default_name
400888
  73.3720012  67.7384997  21.3479988  74.2290761  68.2699385  21.4036432
  73.3853070  67.0252585  22.0629885  72.5948595  68.3809849  21.2900066
  73.3690012  67.0154997  20.0829988  73.3097223  65.9436924  20.2722459
  72.1680012  67.4284997  19.2269988  72.1574047  66.7775782  18.3527630
  71.2725502  67.2507625  19.8225465  72.1970012  68.8804997  18.7769988
  72.1944121  69.5079833  19.6682667  73.1223109  69.0402717  18.2234882
  71.0160012  69.2434997  17.9009988  69.9700012  69.6534997  18.4499988
  71.1320012  69.1204997  16.6649988  74.6640012  67.2524997  19.3139988
  75.5860012  67.8944997  19.8169988  74.7280012  66.7204997  18.0929988
  73.9863489  66.1328967  17.7397650  75.9080012  66.9224997  17.2579988
  76.7918517  66.5971907  17.8067076  75.7940012  66.0924997  15.9789988
  74.9185559  66.4128857  15.4141550  76.6886778  66.2337691  15.3726186
  75.6933827  65.0382959  16.2371260  76.0980012  68.3964997  16.9279988
  77.2150012  68.9234997  17.0029988  75.0130012  69.0824997  16.5619988
  74.1278015  68.6204747  16.4101636  75.0980012  70.5164997  16.3049988
  75.8919570  70.7192694  15.5862375  73.7770012  71.0284997  15.7309988
  73.0048488  70.9430860  16.4955800  73.8982476  72.0755018  15.4531752
  73.3350012  70.2504997  14.5069988  72.3030012  69.5784997  14.5239988
  74.1140012  70.3384997  13.4379988  73.8671830  69.8404943  12.5946891
  74.9507408  70.9031471  13.4717750  75.4670012  71.2794997  17.5709988
  76.2710012  72.2184997  17.5319988  74.8830012  70.8924997  18.7059988
  74.1341298  70.2147932  18.7037617  75.2770012  71.4834997  19.9799988
  75.1940818  72.5691778  19.9297331  74.3640012  70.9744997  21.0979988
  73.3383775  71.1746297  20.7879289  74.5182553  69.8977568  21.1682165
  74.6150012  71.6084997  22.4479988  74.9890012  72.9414997  22.5559988
  75.1008917  73.5320269  21.6466817  75.2180012  73.5204997  23.7869988
  75.5129120  74.5675119  23.8569624  75.0740012  72.7664997  24.9329988
  75.3000012  73.3394997  26.1649988  75.5513731  74.2642594  26.1081546
  74.7030012  71.4424997  24.8539988  74.5880600  70.8462398  25.7591856
  74.4760012  70.8704997  23.6159988  74.1825479  69.8231417  23.5451008
  76.7340012  71.1704997  20.2999988  77.4810012  72.0444997  20.7539988
  77.1540012  69.9274997  20.0629988  76.5317925  69.2172146  19.7045983
  78.5370012  69.5654997  20.3199988  78.7750588  69.8271186  21.3510096
  78.6413528  68.4888720  20.1855262  79.5050012  70.2734997  19.3959988
  80.6040012  70.6594997  19.7989988  79.1050012  70.4634997  18.1349988
  78.1889938  70.1647128  17.8320859  80.0050012  71.0474997  17.1449988
  80.9426618  70.4928718  17.1807722  79.4100012  70.9094997  15.7469988
  78.4750288  71.4671656  15.6928198  80.1114323  71.3049826  15.0123642
  79.2178270  69.8576143  15.5355621  80.3210012  72.5104997  17.4289988
  81.2320012  73.0664997  16.8099988  79.5950012  73.1454997  18.3469988
  78.8843885  72.6484027  18.8647088  79.7570012  74.5714997  18.5919988
  80.3487242  75.0269757  17.7979556  78.3790012  75.2444997  18.6239988
  77.8571430  74.7407339  17.8103752  77.9226487  74.9674416  19.5743047
  78.2790012  76.7594997  18.4329988  78.9784736  77.2478516  19.1114908
  78.6130012  77.1434997  16.9969988  77.9136155  76.6558624  16.3179049
  78.5360652  78.2247043  16.8822026  79.6286233  76.8250545  16.7620418
  76.8910012  77.2474997  18.8109988  76.6925773  77.0067588  19.8553987
  76.8339708  78.3268769  18.6703090  76.1490868  76.7595226  18.1789066
  80.5070012  74.8804997  19.8829988  80.8530012  76.0444997  20.1139988
  80.7800012  73.8744997  20.7179988  80.5765259  72.9153772  20.4755502
  81.2970012  74.1554997  22.0519988  80.8095691  75.0398371  22.4624333
  81.0230012  72.9684997  22.9829988  81.4576621  73.3395664  23.9111575
  79.9398315  72.9076016  23.0885207  81.5850012  71.5764997  22.6769988
  81.5943065  71.4429130  21.5952553  82.9950012  71.3984997  23.2219988
  82.9864179  71.5314922  24.3038204  83.3540696  70.3976357  22.9823281
  83.6556717  72.1387229  22.7706846  80.6590012  70.4954997  23.2159988
  79.6783805  70.5907287  22.7497221  81.0748565  69.5138321  22.9890750
  80.5596664  70.6066776  24.2957539  82.7820012  74.5084997  22.0439988
  83.2370012  75.2444997  22.9279988  83.5560012  74.0054997  21.0759988
  83.1860615  73.4245375  20.3372654  84.9970012  74.2524997  21.1079988
  85.3818275  73.9917701  22.0939136  85.7440012  73.4214997  20.0539988
  85.1426526  73.4675276  19.1460557  86.6953468  73.9259750  19.8850425
  86.0000012  71.9644997  20.4199988  86.8567612  71.6336224  19.8329866
  86.2554080  71.9415442  21.4794054  84.8270012  71.0424997  20.1639988
  85.0583011  70.0448131  20.5371218  83.9433553  71.4250571  20.6748012
  84.5390012  70.9524997  18.7339988  85.2213802  71.3403315  18.0983537
  83.4310012  70.4214997  18.2279988  82.5190012  69.9054997  19.0309988
  82.6663264  69.9157880  20.0301431  81.6781631  69.5028267  18.6424818
  83.2550012  70.3834997  16.9119988  83.9650148  70.7589014  16.2995820
  82.4119682  69.9793799  16.5297930  85.3640012  75.7164997  20.9009988
  86.3080012  76.1944997  21.5399988  84.6600012  76.4414997  20.0329988
  83.8304526  76.0647568  19.5970935  85.1080012  77.7644997  19.6329988
  86.1168640  77.9421454  20.0054729  85.1220012  77.8844997  18.0979988
  85.6986187  78.7773438  17.8562533  85.6396473  77.0041288  17.7170923
  83.7480012  77.9804997  17.4569988  83.1574767  78.6732151  18.0566045
  83.8686267  78.3830029  16.4512454  83.0380012  76.6444997  17.3839988
  83.7110012  75.6014997  17.5289988  81.8080012  76.6384997  17.1709988
  84.2880012  78.9104997  20.2129988  84.4970012  80.0594997  19.8049988
  83.3730012  78.6464997  21.1419988  83.1744486  77.7016995  21.4386953
  82.5650012  79.7284997  21.6929988  82.6637395  80.6201880  21.0739334
  81.0920012  79.3184997  21.7279988  81.1126017  78.2321590  21.6411726
  80.6349777  79.5979989  22.6772668  80.2730012  79.9074997  20.5739988
  80.3867343  80.9915363  20.5794853  80.7460012  79.3554997  19.2389988
  80.6321339  78.2714831  19.2325836  80.1503000  79.7876510  18.4349552
  81.7952251  79.6109813  19.0908139  78.7890012  79.6614997  20.7719988
  78.4637689  80.1278870  21.7019484  78.2345047  80.0907811  19.9375214
  78.6010838  78.5888491  20.8189759  83.0360012  80.1644997  23.0769988
  83.2410012  81.3584997  23.3129988  83.2110012  79.2164997  24.0029988
  82.9819165  78.2551949  23.7944016  83.6680012  79.5404997  25.3439988
  83.9364556  80.5955716  25.3974274  82.5590012  79.2624997  26.3739988
  81.5968000  79.5702577  25.9646662  82.5324244  78.1968059  26.6013541
  82.8190012  80.0394997  27.9899988  84.9280012  78.7974997  25.7659988
  85.5860012  79.2314997  26.7159988  85.2840012  77.7004997  25.0899988
  84.6839277  77.2981112  24.3842405  86.5360012  77.0164997  25.4069988
  86.5923560  76.8239364  26.4783730  86.6140012  75.6834997  24.6669988
  86.1094064  75.8735537  23.7197064  87.6656969  75.4660093  24.4806282
  85.9640012  74.4914997  25.3579988  84.9255455  74.7344754  25.5831063
  86.0140012  73.2684997  24.4629988  87.0522276  73.0246168  24.2378195
  85.5455060  72.4259706  24.9716812  85.4802632  73.4745186  23.5352162
  86.6670012  74.2244997  26.6799988  86.5850610  75.1032662  27.3196508
  86.2014910  73.3715718  27.1738769  87.7189900  74.0070376  26.4952592
  87.7400012  77.8854997  25.0649988  88.7630012  77.8384997  25.7599988
  87.6430012  78.6714997  23.9919988  86.8367812  78.6342224  23.3847763
  88.7380012  79.5674997  23.6339988  89.6615169  79.0034612  23.5033138
  88.4170012  80.2914997  22.3229988  89.1991259  81.0231935  22.1205014
  88.3420012  79.2994997  21.1739988  87.5597270  78.5677121  21.3755768
  88.1131476  79.8299481  20.2496884  89.2992641  78.7883779  21.0715154
  87.1600012  80.9684997  22.4479988  86.9580522  81.4225799  21.6266413
  89.0190012  80.5754997  24.7389988  90.1650012  80.9984997  24.9149988
  87.9890012  80.9694997  25.4899988  87.0429273  80.6968773  25.2647864
  88.2000012  81.8614997  26.6239988  88.9161675  82.6390772  26.3583333
  86.8820012  82.5264997  27.0219988  86.1129892  81.7545127  26.9945041
  87.0002737  82.8845313  28.0447035  86.4700012  83.6854997  26.1229988
  85.6779717  84.2448333  26.6209305  87.3322485  84.3347497  25.9709922
  85.9640012  83.2294997  24.7719988  85.7210012  82.0424997  24.5519988
  85.8040012  84.1734997  23.8519988  85.4686988  83.9260676  22.9319710
  86.0183355  85.1346312  24.0764722  88.8010012  81.1264997  27.8149988
  89.4840012  81.7464997  28.6359988  88.5720012  79.8144997  27.9159988
  88.0400511  79.3321860  27.2057158  89.0230012  79.0544997  29.0789988
  88.5889593  79.4716516  29.9876742  88.5870012  77.5944997  28.9549988
  87.5011106  77.5384792  28.8788243  89.0366115  77.1370000  28.0737243
  88.9790012  76.7454997  30.1259988  88.2890012  76.8304997  31.3229988
  87.4511906  77.5228305  31.4057724  88.6510012  76.0504997  32.4059988
  88.0986233  76.1260565  33.3426260  89.7120012  75.1764997  32.2999988
  90.0004027  74.5584671  33.1502695  90.4100012  75.0854997  31.1119988
  91.2505121  74.3968955  31.0255937  90.0440012  75.8654997  30.0349988
  90.5954357  75.7935237  29.0975344  90.5330012  79.1414997  29.2589988
  91.0270012  79.3064997  30.3789988  91.2840012  79.0204997  28.1619988
  90.8776086  78.7995139  27.2641626  92.7340012  79.1434997  28.2529988
  93.1222676  78.4443285  28.9936120  93.3730012  78.8264997  26.8989988
  92.9808466  79.5447576  26.1789851  94.4481790  78.9701850  27.0059897
  93.0970012  77.4134997  26.4069988  93.9399773  77.0929950  25.7948151
  92.9988112  76.7491936  27.2655780  91.8320012  77.3214997  25.5759988
  91.4790012  78.2534997  24.8579988  91.1390012  76.1944997  25.6809988
  90.2876183  76.0774837  25.1503804  91.4661930  75.4590416  26.2910383
  93.1350012  80.5334997  28.7249988  94.0460012  80.6784997  29.5509988
  92.4650012  81.5694997  28.2209988  91.8256916  81.4489968  27.4484305
  92.7080012  82.9224997  28.7139988  93.7704964  83.1430229  28.8168221
  92.0810012  83.9554997  27.7579988  90.9994074  83.8206122  27.7502765
  92.4120012  85.3694997  28.2099988  93.4934829  85.5052991  28.2175311
  91.9611495  86.0859222  27.5232878  92.0189244  85.5320798  29.2135724
  92.5550012  83.7194997  26.3329988  92.2630258  82.7191474  26.0133931
  92.1020544  84.4582745  25.6718251  93.6402734  83.8116182  26.2905813
  92.1870012  83.0774997  30.1339988  92.8230012  83.7204997  30.9779988
  91.0230012  82.4884997  30.4219988  90.5007125  81.9989491  29.7095003
  90.4420012  82.5924997  31.7579988  90.4137818  83.6353575  32.0738317
  89.0130012  82.0454997  31.7489988  89.0246237  81.0445231  31.3177099
  88.6826241  81.9898348  32.7862318  88.0590012  82.9244997  30.9609988
  88.2930012  84.1494997  30.8989988  87.0860012  82.3894997  30.3889988
  91.2720012  81.8684997  32.8119988  91.1820012  82.2084997  33.9959988
  92.0750012  80.8834997  32.4099988  92.0621210  80.5857051  31.4449848
  92.9460012  80.1744997  33.3409988  92.5493629  80.2518014  34.3533237
  93.0330012  78.6924997  32.9609988  92.0115433  78.3230633  32.8702254
  93.5262783  78.6375405  31.9905570  93.7910012  77.8414997  33.9619988
  93.8957077  76.8355414  33.5555687  94.7789642  78.2768353  34.1120457
  92.9350012  77.7544997  35.5459988  94.2950012  77.3724997  36.6449988
  95.0381665  78.1682719  36.5944936  93.9242988  77.2865570  37.6664166
  94.7519738  76.4296940  36.3443414  94.3480012  80.7584997  33.4029988
  94.9750012  80.7294997  34.4659988  94.8540012  81.2934997  32.2859988
  94.3612633  81.2230073  31.4071702  96.1820012  81.8984997  32.2879988
  96.8906291  81.2602399  32.8157961  96.6610012  82.0694997  30.8369988
  96.6107913  81.0690262  30.4073115  95.9087276  82.7038695  30.3682137
  98.0650012  82.6664997  30.5889988  98.7344406  82.1504172  31.2771925
  98.3368148  82.4175036  29.5632223  98.1870012  84.1764997  30.7959988
  97.1910012  84.8504997  31.1209988  99.3090012  84.6964997  30.6159988
  96.1880012  83.2084997  33.0659988  97.2190012  83.6034997  33.6209988
  95.0390012  83.8874997  33.1329988  94.2120172  83.5469659  32.6637081
  94.9610012  85.1654997  33.8309988  95.7056187  85.8329772  33.3972736
  93.5760012  85.7854997  33.6359988  92.8203694  85.1328938  34.0732930
  93.5411755  86.7592221  34.1246215  93.3783023  85.9067336  32.5709557
  95.2640012  85.0374997  35.3189988  95.6930012  86.0174997  35.9399988
  95.0530012  83.8614997  35.9049988  94.6105010  83.1158782  35.3869819
  95.3610012  83.6374997  37.3089988  95.6824420  84.5531275  37.8053863
  94.1410012  83.0694997  38.0639988  94.4355921  82.8299104  39.0857191
  93.0100012  84.0874997  38.0879988  92.7145339  84.3272552  37.0665697
  92.1571432  83.6712722  38.6241783  93.3471201  84.9941326  38.5904619
  93.6830012  81.7654997  37.4299988  94.4935278  81.0377281  37.4686925
  92.8218215  81.3787654  37.9748894  93.4048786  81.9439205  36.3912906
  96.5680012  82.7294997  37.5079988  97.0150012  82.5664997  38.6539988
  97.1090012  82.1384997  36.4439988  96.7201169  82.2962191  35.5253079
  98.2570012  81.2614997  36.5629988  99.0122145  81.5926753  35.8502052
  98.6495515  81.3520934  37.5758148  97.9260012  79.8094997  36.2909988
  96.8820012  79.3114997  36.7259988  98.8100012  79.1174997  35.5749988
  99.6335404  79.5804712  35.2178717  98.6040012  77.7154997  35.2359988
  97.5694164  77.5543895  34.9330515  99.5220012  77.3104997  34.0779988
  99.3572183  78.0295101  33.2755215 100.5466612  77.3984110  34.4391684
  99.2890012  75.9014997  33.5519988 100.0690018  75.6866722  32.8215544
  99.3769100  75.2106079  34.3904734  97.9290012  75.7364997  32.9019988
  97.3820012  76.7384997  32.3949988  97.4030012  74.6024997  32.8999988
  98.8350012  76.7784997  36.4119988  98.1800012  75.7344997  36.4959988
  99.7380012  77.1284997  37.3249988 100.2839696  77.9670699  37.1878208
 100.0140012  76.3074997  38.4999988 100.0007670  75.2501899  38.2353856
 101.3920012  76.6514997  39.0719988 102.1459439  76.4896726  38.3016206
 101.4340012  78.1024997  39.5249988 100.6805941  78.2649917  40.2957606
 102.4207840  78.3292253  39.9286748 101.2307715  78.7548374  38.6757322
 101.6730012  75.7984997  40.1879988 102.5370366  76.0145323  40.5462905
  98.9610012  76.4564997  39.5889988  99.1180012  75.8694997  40.6639988
  97.8990012  77.2224997  39.3369988  97.8661647  77.7269718  38.4626253
  96.8160012  77.4244997  40.2929988  97.1446312  77.1385974  41.2921791
  96.3990012  78.8954997  40.3179988  96.4977135  79.1981979  39.2755359
  95.3509204  78.9466674  40.6129709  97.2240012  79.8344997  41.2019988
  97.4502802  79.3237673  42.1379748  98.5230012  80.2334997  40.5149988
  98.2975112  80.7447329  39.5791069  99.0887185  80.9004430  41.1655765
  99.1139736  79.3413489  40.3078299  96.4150012  81.0654997  41.5769988
  95.5218321  80.7615162  42.1228399  97.0188858  81.7202535  42.2052678
  96.1233300  81.5987284  40.6721816  95.6140012  76.5364997  39.9929988
  94.4670012  76.9694997  40.1529988  95.8580012  75.3004997  39.5479988
  96.8066389  74.9778861  39.4210884  94.7670012  74.4034997  39.1799988
  94.1488121  74.8628903  38.4087000  95.3320012  73.0914997  38.6359988
  96.2796286  72.8649256  39.1246352  94.6262151  72.2814514  38.8198137
  95.6000012  73.0994997  37.1669988  95.2710012  74.0784997  36.2769988
  94.7562923  74.9528655  36.6753188  95.6820012  73.7274997  35.0129988
  95.5548690  74.2824438  34.1787482  96.2920012  72.5014997  35.0679988
  96.8660012  71.7364997  34.0579988  96.8570320  72.1263292  33.0401328
  97.4100012  70.5324997  34.4109988  97.8693190  69.9069134  33.6456434
  97.3920012  70.0804997  35.7369988  97.8283401  69.1187044  36.0065497
  96.8210012  70.8394997  36.7429988  96.8308445  70.4453989  37.7592115
  96.2580012  72.0754997  36.4109988  93.8480012  74.1324997  40.3649988
  92.6200012  74.1394997  40.2299988  94.4270012  73.8924997  41.5379988
  95.4342397  73.9154503  41.6090144  93.6600012  73.5224997  42.7189988
  92.7067589  73.0834824  42.4245632  94.4380012  72.4944997  43.5429988
  95.3634488  72.9429475  43.9043025  93.8334126  72.1761042  44.3922320
  94.7870012  70.9834997  42.6249988  93.2860012  74.7124997  43.5919988
  92.6810012  74.5174997  44.6509988  93.6270012  75.9344997  43.1819988
  94.2232388  76.0446839  42.3742491  93.2100012  77.1354997  43.9049988
  93.2933862  76.9634921  44.9781062  94.0860012  78.3264997  43.5329988
  95.1271311  78.0111553  43.6015959  93.8569813  78.6004312  42.5031389
  93.8600012  79.5244997  44.4369988  93.0020012  79.4414997  45.3409988
  94.5430012  80.5524997  44.2439988  91.7420012  77.3884997  43.5799988
  91.3830012  78.2514997  42.7749988  90.8740012  76.6024997  44.2229988
  91.1903159  75.9113562  44.8881041  89.4470012  76.6754997  43.9269988
  89.2825551  76.5609783  42.8555784  88.7000012  75.5594997  44.6579988
  88.9515710  74.5933644  44.2205123  88.9621599  75.5580059  45.7160019
  87.2080012  75.6874997  44.5859988  86.3380012  75.7254997  45.6359988
  86.7686103  75.6571416  46.6349996  85.0490012  75.8474997  45.1779988
  84.2227136  75.8971955  45.7566859  85.0650012  75.8894997  43.8099988
  84.0160012  76.0044997  42.9029988  82.9993396  76.0760432  43.2894952
  84.3310012  76.0204997  41.5729988  83.5346697  76.1099578  40.8341121
  85.6560012  75.9244997  41.1339988  85.8948554  75.9392229  40.0705932
  86.6990012  75.8084997  42.0309988  87.7129962  75.7348320  41.6379493
  86.4090012  75.7904997  43.3999988  88.8730012  78.0364997  44.2949988
  87.9890012  78.5534997  43.5999988  89.3580012  78.6324997  45.3859988
  90.0580869  78.1817553  45.9576707  88.8900012  79.9494997  45.7809988
  87.8193633  79.8780494  45.9726460  89.4058531  80.2232570  46.7013536
  89.1340012  81.0234997  44.7409988  88.3620012  81.9844997  44.6619988
  90.1870012  80.8804997  43.9389988  90.8269859  80.1161072  44.1009340
  90.4880012  81.8174997  42.8649988  90.0008475  82.7736825  43.0560353
  92.0020012  82.0474997  42.7779988  92.3450850  82.2880369  43.7842465
  92.4484235  81.1060683  42.4578205  92.4170012  83.1554997  41.8229988
  92.3988429  82.7645921  40.8056678  91.7044703  83.9758446  41.9092304
  93.8130012  83.6614997  42.1459988  93.8118195  84.0848681  43.1504174
  94.5102891  82.8246756  42.1058177  94.2580012  84.6864997  41.2069988
  94.8662444  84.3923512  40.4562550  93.9120012  85.9684997  41.2779988
  93.1150012  86.3894997  42.2509988  92.7716670  85.7334219  42.9378638
  92.8550958  87.3642254  42.3005826  94.3650012  86.8304997  40.3789988
  94.9740629  86.5108422  39.6394293  94.0990767  87.8030986  40.4376005
  89.9660012  81.3534997  41.5119988  89.5740012  82.1834997  40.6869988
  89.9410012  80.0404997  41.2689988  90.3023900  79.3867618  41.9487959
  89.4510012  79.5174997  39.9999988  89.6645858  80.2170949  39.1918853
  90.1250012  78.1814997  39.6809988  89.7034374  77.7826098  38.7583552
  91.6240012  78.3694997  39.5129988  92.0463734  78.7679542  40.4354603
  92.0879731  77.4095377  39.2864987  91.8140874  79.0660120  38.6963971
  89.8770012  77.2514997  40.7429988  90.3007886  76.4142197  40.5405964
  87.9390012  79.3404997  39.9789988  87.4000012  78.9174997  38.9489988
  87.2470012  79.6434997  41.0789988  87.7185532  79.8707027  41.9427793
  85.7890012  79.5614997  41.0869988  85.4303917  78.5989882  40.7222110
  85.2440012  79.8074997  42.5099988  85.7350788  79.1175641  43.1962436
  85.5060012  81.2404997  42.9569988  85.0148150  81.9310528  42.2714529
  85.1116767  81.3857767  43.9627341  86.5791920  81.4311841  42.9570116
  83.7530012  79.4734997  42.5829988  83.2184618  80.2554884  42.0436826
  83.6089149  78.5195021  42.0758229  83.2190012  79.3794997  43.9929988
  83.3623249  80.3333362  44.5006937  82.1560513  79.1398909  43.9642865
  83.7527801  78.5973508  44.5328350  85.1910012  80.5304997  40.0789988
  84.1120012  80.2804997  39.5279988  85.8770012  81.6454997  39.8159988
  86.7097945  81.8819880  40.3362177  85.3990012  82.5884997  38.8079988
  84.3711551  82.8794510  39.0247454  86.2730012  83.8424997  38.8129988
  87.3096927  83.5112245  38.7527765  86.0216392  84.4122861  37.9184259
  86.0930012  84.7194997  40.0379988  86.1560598  84.0921517  40.9271326
  86.8942594  85.4582165  40.0576126  84.7490012  85.4304997  40.0139988
  83.9547601  84.6842619  40.0342302  84.6710431  86.0673111  40.8951873
  84.5830012  86.2584997  38.8219988  85.1118025  87.1180578  38.7816455
  83.7890012  85.9534997  37.7999988  83.0810012  84.8334997  37.8189988
  83.1462045  84.2118555  38.6123505  82.4794434  84.6066698  37.0400404
  83.7030012  86.7694997  36.7589988  84.2423149  87.6233344  36.7446129
  83.0985528  86.5336802  35.9849638  85.3780012  81.9504997  37.4269988
  84.3650012  82.0014997  36.7219988  86.4920012  81.3314997  37.0269988
  87.3141395  81.3068730  37.6131570  86.5700012  80.7294997  35.7009988
  86.2791415  81.4562863  34.9425260  88.0020012  80.2744997  35.4179988
  88.3411063  79.6525636  36.2464325  88.0072267  79.6887705  34.4987632
  88.8710012  81.3854997  35.2749988  89.7618203  81.0743055  35.0983654
  85.5990012  79.5624997  35.5649988  84.8720012  79.4574997  34.5729988
  85.5610012  78.6844997  36.5699988  86.1553408  78.7946521  37.3791503
  84.7040012  77.5044997  36.4959988  84.9251253  76.9379607  35.5914343
  84.9480012  76.6054997  37.7069988  86.0183942  76.6239906  37.9119770
  84.4106863  77.0529519  38.5431682  84.4950012  75.1754997  37.5249988
  84.8180012  74.4644997  36.3759988  85.4043198  74.9531769  35.5978442
  84.4070012  73.1564997  36.2119988  84.6665114  72.6098904  35.3053706
  83.6660012  72.5434997  37.1969988  83.2530012  71.2414997  37.0369988
  83.5363960  70.8577707  36.2039087  83.3360012  73.2274997  38.3459988
  82.7513020  72.7427493  39.1278200  83.7500012  74.5334997  38.5039988
  83.4927522  75.0808584  39.4108182  83.2350012  77.8984997  36.4049988
  82.4500012  77.2644997  35.6899988  82.8460012  78.9484997  37.1329988
  83.4938157  79.4332773  37.7375038  81.4510012  79.3734997  37.1319988
  80.7991223  78.5275453  37.3499767  81.2390012  80.4424997  38.2039988
  81.2187042  79.9224916  39.1617456  82.1089440  81.0981030  38.1654797
  79.9770012  81.2684997  38.0509988  80.1663859  82.0736824  37.3411291
  79.1808261  80.6288447  37.6701461  79.5550012  81.8614997  39.3909988
  78.6195923  82.4035651  39.2521671  79.4006760  81.0468484  40.0985484
  80.5490012  82.7774997  39.9419988  81.3007317  82.3742086  40.4826991
  80.5210012  84.0964997  39.7799988  81.4640012  84.8534997  40.3239988
  82.2036418  84.4248343  40.8618443  81.4382948  85.8552811  40.1980116
  79.5470012  84.6584997  39.0779988  78.8270403  84.0814919  38.6671235
  79.5293664  85.6611010  38.9572578  81.0170012  79.8794997  35.7599988
  79.9040012  79.5864997  35.3089988  81.8810012  80.6364997  35.0789988
  82.7967553  80.8590436  35.4422726  81.4620012  81.2614997  33.8269988
  80.4138920  81.5538200  33.8911485  82.3020012  82.5104997  33.5489988
  82.0611253  82.8145744  32.5303641  81.9512217  83.2705920  34.2470772
  83.8020012  82.3524997  33.6869988  84.2344132  83.3107872  33.9747584
  83.9558669  81.6297694  34.4883011  84.4700012  81.8574997  32.4289988
  83.8420012  81.9114997  31.3489988  85.6440012  81.4454997  32.5189988
  81.4990012  80.2814997  32.6539988  80.8100012  80.4914997  31.6499988
  82.2860012  79.2064997  32.7549988  83.0352498  79.1464441  33.4296240
  82.1160012  78.1054997  31.8079988  82.1374971  78.4978615  30.7912937
  83.2280012  77.0644997  31.9539988  83.3776063  77.0535756  33.0336275
  82.7921597  76.1165523  31.6385023  84.5760012  77.2644997  31.2539988
  85.2539013  76.4588333  31.5358744  84.3750012  77.2534997  29.7449988
  83.6975313  78.0592355  29.4622921  85.3351070  77.3959164  29.2489998
  83.9482453  76.2974594  29.4417383  85.2720012  78.5334997  31.6689988
  85.4569966  78.5125183  32.7429801  86.2207047  78.6181974  31.1390090
  84.6428784  79.3897656  31.4258688  80.7500012  77.4524997  31.9719988
  80.0780012  77.1374997  30.9849988  80.3240012  77.2374997  33.2179988
  80.9321671  77.3636208  34.0144453  78.9720012  76.7464997  33.4519988
  78.8291432  75.8263739  32.8853777  78.7660012  76.4434997  34.9349988
  78.8968263  77.3572707  35.5146601  77.7591668  76.0560458  35.0907687
  79.4948118  75.7006728  35.2592557  77.9360012  77.7454997  32.9629988
  76.8470012  77.3524997  32.5269988  78.2500012  79.0404997  33.0389988
  79.0704185  79.3533974  33.5381077  77.3740012  80.0454997  32.4509988
  76.3564608  79.9163748  32.8198314  77.8570012  81.4454997  32.8299988
  78.9137073  81.5191527  32.5730035  77.2890724  82.1646066  32.2397088
  77.6740012  81.7454997  34.3029988  76.7390012  81.1874997  34.9159988
  78.4680012  82.5394997  34.8549988  77.3050012  79.8924997  30.9359988
  76.2250012  80.0014997  30.3429988  78.4490012  79.6334997  30.2939988
  79.3237260  79.5635560  30.7940625  78.4700012  79.4984997  28.8399988
  78.0565779  80.3945370  28.3770761  79.9070012  79.3124997  28.3479988
  80.3751825  78.4931622  28.8935183  79.8998687  79.0818180  27.2827124
  80.9880012  80.7474997  28.5189988  77.6040012  78.3334997  28.3829988
  76.7040012  78.5054997  27.5529988  77.8420012  77.1414997  28.9349988
  78.5630051  77.0242387  29.6324961  77.1110012  75.9614997  28.4919988
  77.1992422  75.8372827  27.4127014  77.6590012  74.7044997  29.1759988
  78.6854154  74.5436974  28.8462767  77.6310012  74.8564997  30.6839988
  76.6047832  75.0168824  31.0145343  78.0245606  73.9522221  31.1482102
  78.2434968  75.7098469  30.9751140  76.8740012  73.5684997  28.7939988
  77.2188552  72.7822237  29.2234707  75.6160012  76.0834997  28.7459988
  74.8260012  75.4284997  28.0579988  75.2110012  76.9064997  29.7149988
  75.8627179  77.3081747  30.3738021  73.7930012  77.1964997  29.8819988
  73.2170737  76.2711769  29.8684136  73.5600012  77.8974997  31.2209988
  73.9913447  77.3094638  32.0310949  74.0115183  78.8895483  31.2125226
  72.1120012  78.0884997  31.5539988  71.4290012  79.2674997  31.5899988
  71.9918035  80.1696971  31.3504304  70.1200012  79.0454997  31.9369988
  69.4081213  79.7557627  32.0310892  69.9350012  77.7024997  32.1349988
  68.7910012  76.9954997  32.4979988  67.8669416  77.5495363  32.6630924
  68.9020012  75.6394997  32.6249988  68.0277184  75.0540440  32.9095533
  70.1150012  74.9804997  32.3979988  70.1903052  73.8979157  32.5001787
  71.2530012  75.6794997  32.0379988  72.1744079  75.1203187  31.8754352
  71.1710012  77.0674997  31.9009988  73.2700012  78.0464997  28.7299988
  72.1240012  77.8774997  28.2969988  74.0960012  78.9664997  28.2259988
  75.0279724  79.0889175  28.5955158  73.6450012  79.8704997  27.1739988
  72.6676454  80.2809037  27.4278557  74.6340012  81.0254997  27.0169988
  75.6580641  80.6533064  27.0464359  74.4604686  81.5356319  26.0695012
  74.5250012  82.0644997  28.0889988  73.3530012  82.7384997  28.3569988
  72.4830596  82.5921903  27.8651706  73.5520012  83.5914997  29.3449988
  72.7399714  84.2234347  29.7046719  74.8110012  83.4954997  29.7309988
  75.4430012  82.5494997  28.9579988  76.4975663  82.3277719  29.1217984
  73.4550012  79.1384997  25.8499988  72.4120012  79.2764997  25.1979988
  74.4510012  78.3504997  25.4289988  75.3137940  78.2555668  25.9454052
  74.3350012  77.6674997  24.1419988  74.0084580  78.3778057  23.3824370
  75.6760012  77.0704997  23.7089988  76.1046364  76.5825888  24.5843924
  75.4598830  76.3225178  22.9461645  76.6670012  78.0844997  23.1579988
  77.4440262  77.5167033  22.6461979  76.1239682  78.6911156  22.4332682
  77.4300012  79.1634997  24.3789988  78.5740012  78.0114997  25.1369988
  79.2658216  77.6363718  24.3828353  79.1339137  78.5186294  25.9227583
  78.0191978  77.1776908  25.5671816  73.2570012  76.5894997  24.1719988
  72.6090012  76.3264997  23.1539988  73.0550012  75.9524997  25.3279988
  73.6552123  76.0984680  26.1270852  71.9820012  74.9694997  25.4389988
  72.1233900  74.2013773  24.6786722  72.0130012  74.3064997  26.8139988
  71.8636196  75.0617850  27.5855746  71.2195540  73.5617883  26.8768228
  72.9779923  73.8219337  26.9626164  70.6270012  75.6134997  25.1859988
  69.7770012  75.0414997  24.4909988  70.4070012  76.8064997  25.7409988
  71.0659723  77.2082799  26.3924809  69.1720012  77.5324997  25.4709988
  68.3117232  76.8838682  25.6362202  69.0630012  78.7364997  26.4069988
  69.9893807  79.3029620  26.3119162  68.2288593  79.3433970  26.0548865
  68.8420012  78.3694997  27.8629988  67.7881825  78.1235755  27.9937213
  69.4492852  77.4908294  28.0803555  69.2200012  79.4914997  28.8099988
  69.9930012  80.3814997  28.3989988  68.7420012  79.4854997  29.9619988
  69.0930012  77.9724997  24.0179988  68.0300012  77.8894997  23.3899988
  70.2100012  78.4444997  23.4559988  71.0657999  78.5095819  23.9884198
  70.2110012  78.9354997  22.0829988  69.3891411  79.6375656  21.9424688
  71.5260012  79.6524997  21.7679988  72.3322308  78.9541712  21.9925659
  71.5225289  79.8714213  20.7002154  71.7390012  80.9394997  22.5479988
  70.8273592  81.5348829  22.4977140  71.9515732  80.6885327  23.5871960
  72.8970012  81.7374997  21.9729988  72.7443773  81.8447368  20.8990783
  72.9036583  82.7229806  22.4387052  74.2270012  81.0474997  22.2289988
  74.1411191  80.0099110  21.9062997  74.9918322  81.5496009  21.6365234
  74.6070012  81.0894997  23.6669988  73.8986325  80.6239159  24.2161301
  75.4932418  80.6222248  23.7947943  74.6870518  82.0508655  23.9661085
  69.9820012  77.8304997  21.0639988  69.3090012  78.0664997  20.0519988
  70.5210012  76.6374997  21.2959988  71.0755201  76.4991869  22.1287518
  70.3990012  75.5314997  20.3559988  70.2890724  75.9171502  19.3424463
  71.6470012  74.6464997  20.4099988  71.9208858  74.7070814  21.4632871
  71.3506058  73.6253161  20.1703450  72.8490012  75.0454997  19.5459988
  73.6722165  74.3591047  19.7441889  72.4850012  74.9874997  18.0699988
  71.6621041  75.6740221  17.8709352  73.3492697  75.2735991  17.4705926
  72.1824589  73.9732621  17.8094400  73.3940012  76.4204997  19.9159988
  73.7132276  76.4169731  20.9581991  74.2442045  76.6589269  19.2769307
  72.6147564  77.1700112  19.7777636  69.1560012  74.6884997  20.6029988
  68.9460012  73.6954997  19.8979988  68.3300012  75.0624997  21.5729988
  68.5079092  75.8961783  22.1146887  67.1440012  74.2794997  21.8819988
  66.5868425  74.8033073  22.6587219  66.5364058  74.2169102  20.9792198
  67.4590012  72.8804997  22.3609988  66.7550012  71.9274997  21.9989988
  68.5080012  72.7354997  23.1659988  69.0513189  73.5493288  23.4161733
  68.9340012  71.4404997  23.6709988  68.2626258  70.6688592  23.2942690
  70.3630012  71.1054997  23.2279988  70.9977148  71.9895874  23.2882205
  70.7804115  70.3159457  23.8528773  70.4870012  70.5144997  21.5239988
  71.8062137  70.3456021  21.5310817  68.8450012  71.4344997  25.1899988
  68.9560012  72.4774997  25.8429988  68.6440012  70.2434997  25.7449988
  68.5805091  69.4159535  25.1694682  68.4530012  70.1024997  27.1739988
  67.7759224  70.8764170  27.5355449  67.8500012  68.7364997  27.4969988
  68.6204621  67.9662659  27.4619417  67.3967898  68.7514788  28.4881976
  66.7730012  68.3114997  26.5379988  65.7610012  69.1874997  26.1749988
  65.7538808  70.1940974  26.5931019  64.7710012  68.7984997  25.2959988
  63.9806038  69.4967494  25.0206443  64.7820012  67.5234997  24.7649988
  64.0016064  67.2132788  24.0701269  65.7840012  66.6414997  25.1159988
  65.7962598  65.6345937  24.6987575  66.7730012  67.0364997  25.9979988
  67.5650068  66.3410488  26.2758027  69.7780012  70.2944997  27.9129988
  70.8670012  70.1554997  27.3489988  69.6700012  70.6214997  29.1939988
  68.7567713  70.7309143  29.6112984  70.8420012  70.8784997  30.0199988
  71.7034552  70.3474241  29.6150854  71.1590012  72.3764997  30.0469988
  71.0069030  72.8138398  29.0602369  70.5100411  72.8734934  30.7680731
  72.5690012  72.6974997  30.4459988  73.5900012  73.0544997  29.6169988
  73.3615047  73.1092135  28.5526231  74.7340012  73.2764997  30.3409988
  75.6284044  73.5496076  29.9594828  74.4660012  73.0654997  31.6679988
  75.2990012  73.1634997  32.7779988  76.3395890  73.4489972  32.6238341
  74.7530012  72.8924997  34.0039988  75.3726970  72.9625579  34.8979612
  73.4100012  72.5254997  34.1369988  72.9873388  72.3070337  35.1176764
  72.5810012  72.4284997  33.0379988  71.5418547  72.1409237  33.1979222
  73.1100012  72.7004997  31.7719988  70.6110012  70.3584997  31.4319988
  69.6470012  70.7654997  32.0949988  71.4680012  69.4584997  31.9339988
  71.4480012  68.9864997  33.3309988  70.6039650  68.3112492  33.4714979
  71.3438032  69.8414149  33.9991018  72.7810012  68.2904997  33.4889988
  72.5988196  67.2218417  33.6024845  73.2641795  68.6736389  34.3878004
  73.6080012  68.5784997  32.2729988  74.1837361  67.6920324  32.0069086
  74.2819665  69.4270616  32.3905271  72.5800012  68.8764997  31.1829988
  72.9250472  69.6205931  30.4651085  72.1870012  67.6024997  30.4439988
  71.2580012  66.9114997  30.8579988  72.8930012  67.2954997  29.3559988
  73.6097411  67.9243784  29.0229901  72.6190012  66.0904997  28.5849988
  71.9244411  65.4530739  29.1321495  71.9950012  66.4464997  27.2329988
  71.9450488  65.5453067  26.6218889  70.9874366  66.8261751  27.4025871
  72.7880012  67.4964997  26.4829988  73.8100012  67.9834997  26.9679988
  72.3220012  67.8524997  25.2909988  72.8121677  68.5488734  24.7479516
  71.4796837  67.4251501  24.9332636  73.8910012  65.2764997  28.3859988
  74.9200012  65.5584997  29.0079988  73.8270012  64.2604997  27.5199988
  72.9631553  64.0314458  27.0494629  74.9900012  63.4094997  27.2849988
  75.3480648  63.0380022  28.2451442  74.5990012  62.2174997  26.4159988
  74.2469134  62.5731096  25.4476621  75.4656023  61.5721651  26.2723117
  73.8048182  61.6546272  26.9064550  76.1320012  64.1874997  26.6459988
  77.3000012  63.8054997  26.7729988  75.8150012  65.2754997  25.9399988
  74.8527424  65.5467324  25.7965056  76.8590012  66.0674997  25.3009988
  77.5841961  65.4115855  24.8193682  76.2450012  66.9804997  24.2389988
  75.7094597  66.3381825  23.5399114  75.5354241  67.6302284  24.7513004
  77.2510012  67.8294997  23.4779988  76.7016432  68.4228229  22.7470582
  77.7360405  68.4935106  24.1934885  78.3020012  66.9984997  22.7669988
  78.0240012  66.5164997  21.6499988  79.4060012  66.8294997  23.3289988
  77.6470012  66.8904997  26.3139988  78.8600012  67.0694997  26.1569988
  76.9820012  67.3914997  27.3529988  76.0026179  67.1845073  27.4873933
  77.6260012  68.3224997  28.2759988  78.3236222  68.9849644  27.7635882
  76.5700012  69.1804997  28.9929988  75.7594655  68.5357952  29.3328331
  77.1860012  69.8914997  30.1869988  77.9963702  70.5367903  29.8478779
  76.4256580  70.4944075  30.6834672  77.5783228  69.1538639  30.8870550
  75.9630012  70.1864997  28.0309988  75.4887556  69.6584785  27.2037220
  75.2176416  70.7858832  28.5537588  76.7462834  70.8382712  27.6440057
  78.5100012  67.5804997  29.2739988  79.6800012  67.9284997  29.4659988
  77.9610012  66.5484997  29.9189988  77.0247317  66.2350995  29.7062099
  78.6780012  65.8954997  31.0089988  78.9953185  66.6375576  31.7416371
  77.7720012  64.8774997  31.7049988  78.3709342  64.3487246  32.4464672
  76.9753907  65.4267607  32.2068195  77.1660012  63.8784997  30.7399988
  77.3520012  64.0464997  29.5179988  76.5050012  62.9274997  31.2049988
  79.9610012  65.2304997  30.5229988  80.9930012  65.2884997  31.2019988
  79.9200012  64.5954997  29.3499988  79.0603157  64.5010919  28.8283404
  81.1220012  63.9524997  28.8259988  81.5501452  63.2948285  29.5824777
  80.7830012  63.1184997  27.5879988  81.6571979  62.5028845  27.3761091
  79.9454193  62.4771183  27.8622006  80.4190012  63.9264997  26.3489988
  79.5542292  63.4604669  25.8766813  80.1601768  64.9379475  26.6621845
  81.5710012  63.9824997  25.3549988  82.3988875  64.5331615  25.8016247
  81.8924821  62.9663714  25.1264538  81.1880012  64.6414997  24.1129988
  80.2192120  64.9083075  24.0112123  82.0280012  64.9064997  23.1149988
  83.3060012  64.5694997  23.2199988  83.6374513  64.1126312  24.0575619
  83.9422092  64.7712048  22.4619394  81.5920012  65.5094997  22.0179988
  80.6187802  65.7682140  21.9404882  82.2350246  65.7074543  21.2647169
  82.2030012  64.9754997  28.5039988  83.3970012  64.6684997  28.6049988
  81.8090012  66.1874997  28.1099988  80.8316239  66.4030307  27.9744282
  82.7940012  67.2154997  27.7939988  83.5736937  66.8030636  27.1536275
  82.1200012  68.3724997  27.0589988  82.0965558  68.1842423  25.9856355
  81.1017809  68.4951510  27.4281656  82.8060012  69.6904997  27.2479988
  84.0530012  69.9234997  26.6919988  84.5364254  69.1388792  26.1099578
  84.6820012  71.1354997  26.8699988  85.6683863  71.3045462  26.4380632
  84.0670012  72.1324997  27.5919988  84.5621708  73.0940399  27.7274513
  82.8260012  71.9144997  28.1429988  82.3388714  72.7023423  28.7175496
  82.1990012  70.7014997  27.9689988  81.2134015  70.5303920  28.4019139
  83.5010012  67.7064997  29.0519988  84.7120012  67.9614997  29.0319988
  82.7620012  67.8474997  30.1559988  81.7618462  67.7079518  30.1382275
  83.3780012  68.2804997  31.4059988  83.9503859  69.1935892  31.2424678
  82.3000012  68.5604997  32.4549988  81.4561848  67.8847079  32.3157916
  82.7081687  68.4295992  33.4571786  81.7480012  69.9544997  32.3949988
  82.0540012  70.7884997  31.3319988  82.7007434  70.4203881  30.5355578
  81.5500012  72.0724997  31.2739988  81.7992885  72.7195038  30.4329624
  80.7300012  72.5364997  32.2819988  80.3303658  73.5497358  32.2402379
  80.4170012  71.7164997  33.3419988  79.7677449  72.0801997  34.1384212
  80.9250012  70.4334997  33.3969988  80.6781723  69.7851779  34.2377450
  84.3760012  67.2514997  31.9209988  85.3750012  67.6134997  32.5549988
  84.1210012  65.9664997  31.6679988  83.2536703  65.6813603  31.2361052
  85.0650012  64.9304997  32.0739988  85.2538476  64.9988889  33.1453340
  84.4950012  63.5464997  31.7659988  83.4476977  63.6294410  32.0564734
  84.5611199  63.3773425  30.6912364  85.1370012  62.3744997  32.5059988
  86.1495631  62.2288949  32.1296766  85.1870012  62.6524997  33.9989988
  84.1747019  62.7977649  34.3761554  85.6472591  61.8075759  34.5112168
  85.7749607  63.5518660  34.1821492  84.3870012  61.0824997  32.2209988
  84.4092087  60.8774049  31.1506986  84.8608967  60.2606939  32.7578037
  83.3526054  61.1821019  32.5499422  86.4120012  65.1184997  31.3959988
  87.4640012  64.9354997  32.0179988  86.4000012  65.4834997  30.1109988
  85.5366793  65.5333423  29.5891842  87.6480012  65.7584997  29.4099988
  88.3175700  64.9070757  29.5318757  87.3780012  65.9584997  27.9169988
  86.7161213  66.8133483  27.7782585  88.3192030  66.1404216  27.3982080
  86.9060951  65.0643843  27.5096148  88.3510012  66.9754997  29.9939988
  89.5850012  67.0134997  30.0659988  87.5830012  67.9844997  30.4149988
  86.5805761  67.9580414  30.2944029  88.1800012  69.1884997  30.9859988
  88.9530680  69.6056803  30.3406871  87.1020012  70.2634997  31.2209988
  86.3299915  69.8568449  31.8742462  87.7160012  71.4944997  31.8679988
  88.4878365  71.9020155  31.2150807  86.9424383  72.2455627  32.0280151
  88.1586065  71.2198249  32.8254725  86.4260012  70.6254997  29.9109988
  85.9569316  69.7380164  29.4862055  85.6664480  71.3861462  30.0915413
  87.1685115  71.0126497  29.2132208  88.9240012  68.8554997  32.2739988
  90.0560012  69.3014997  32.4919988  88.3000012  68.0584997  33.1429988
  87.3598370  67.7305671  32.9737328  88.9440012  67.6944997  34.4019988
  89.3187993  68.5885164  34.9003556  87.9410012  67.0034997  35.3269988
  87.3455743  66.2824389  34.7669653  88.4677392  66.4915216  36.1323096
  86.9750012  67.9434997  35.9769988  86.4880012  67.7484997  37.2509988
  86.7328082  66.9694242  37.8453141  85.6620012  68.7324997  37.5609988
  85.1742538  68.7634835  38.5352890  85.5900012  69.5544997  36.5289988
  86.4020012  69.0854997  35.5279988  86.4801238  69.6323797  34.5883604
  90.1610012  66.8024997  34.1909988  91.0630012  66.8004997  35.0389988
  90.2150012  66.0564997  33.0879988  89.4632388  66.0735778  32.4137132
  91.3560012  65.1984997  32.8249988  91.6013865  64.6835224  33.7538064
  91.0526099  64.4684593  32.0746028  92.5830012  65.9324997  32.3299988
  93.6600012  65.3314997  32.2489988  92.4480012  67.2154997  31.9919988
  91.5358050  67.6477083  32.0265403  93.5700012  68.0094997  31.5139988
  94.4551116  67.3805803  31.4184001  93.2470012  68.6174997  30.1359988
  92.5906825  69.4702136  30.3098491  94.1891785  68.9652696  29.7123739
  92.5830012  67.6584997  29.1699988  93.2788465  66.8511172  28.9418899
  91.6907846  67.2462131  29.6412433  92.1940012  68.3694997  27.8849988
  93.0993426  68.6749720  27.3604585  91.6254208  67.6829345  27.2577476
  91.3800012  69.5524997  28.1399988  91.8521434  70.3700409  28.4988962
  90.0690012  69.6164997  27.9349988  89.4180012  68.5624997  27.4629988
  89.9217578  67.7109999  27.2598302  88.4212776  68.6158614  27.3087449
  89.4080012  70.7354997  28.1969988  89.9041691  71.5399006  28.5531682
  88.4113252  70.7784043  28.0392174  93.9760012  69.1254997  32.4629988
  95.0880012  69.6484997  32.3319988  93.1170012  69.5064997  33.4069988
  92.2075024  69.0731074  33.4782909  93.4350012  70.5964997  34.3169988
  94.5084665  70.7853442  34.3065585  92.7060012  71.8814997  33.8919988
  91.6791179  71.8085197  34.2501662  93.2048464  72.7142554  34.3877520
  92.7030012  72.1134997  32.3979988  93.8120012  72.6504997  31.7549988
  94.6912152  72.9050850  32.3468335  93.8130012  72.8624997  30.3929988
  94.6889723  73.2874491  29.9029024  92.6970012  72.5364997  29.6499988
  92.6930012  72.7444997  28.2869988  93.5152248  73.1187870  27.9622574
  91.5850012  72.0004997  30.2639988  90.7026488  71.7406942  29.6791434
  91.5940012  71.7934997  31.6279988  90.7184547  71.3709277  32.1208998
  93.1050012  70.2994997  35.7719988  93.2280012  71.2034997  36.6059988
  92.6890012  69.0784997  36.1099988  92.5847827  68.3650595  35.4027216
  92.3030012  68.7564997  37.4789988  92.7649189  69.4595635  38.1721311
  90.7810012  68.8474997  37.6309988  90.2792729  68.2383443  36.8791359
  90.4915548  68.5077228  38.6254195  90.2460012  70.2414997  37.4809988
  90.3010012  71.1374997  38.5359988  90.7321472  70.8185812  39.4849477
  89.8170012  72.4224997  38.3949988  89.8652635  73.1175570  39.2332509
  89.2720012  72.8274997  37.1929988  88.8865403  73.8407671  37.0798215
  89.2160012  71.9454997  36.1329988  88.7890558  72.2609715  35.1810033
  89.7020012  70.6614997  36.2799988  89.6600781  69.9638101  35.4435947
  92.7920012  67.3854997  37.9249988  92.2710012  66.8454997  38.9069988
  93.7760012  66.8064997  37.2329988  94.1475094  67.2332259  36.3963473
  94.2980012  65.5044997  37.6359988  93.4753889  64.8118055  37.8137150
  95.1900012  64.9314997  36.5329988  95.9114116  65.7060718  36.2727983
  95.7139849  64.0762897  36.9597973  94.4430012  64.4954997  35.2839988
  93.8351488  65.3309481  34.9366627  95.1739497  64.2356272  34.5183079
  93.5490012  63.2984997  35.5569988  92.8773494  63.5397532  36.3808796
  92.9638099  63.0833641  34.6629253  94.3160012  62.1074997  35.9119988
  95.2836224  62.0764311  35.6241736  93.8210012  61.0734997  36.5869988
  92.5550012  61.0804997  36.9799988  91.9671968  61.8733084  36.7654286
  92.1840639  60.2929934  37.4921893  94.5920012  60.0324997  36.8659988
  95.5559877  60.0267586  36.5646731  94.2121084  59.2496006  37.3786869
  95.0690012  65.5844997  38.9469988  95.1470012  64.5914997  39.6779988
  95.6390012  66.7454997  39.2589988  95.5316271  67.5267271  38.6279251
  96.4670012  66.9234997  40.4429988  96.7949540  65.9540150  40.8180262
  97.7030012  67.7584997  40.0989988  98.3164761  67.8604563  40.9941818
  98.2714038  67.2402225  39.3267247  97.3340012  69.0434997  39.6309988
  98.1241959  69.5471262  39.4223067  95.7180012  67.5694997  41.6019988
  96.3570012  68.0454997  42.5449988  94.3940012  67.5984997  41.5559988
  93.9221389  67.1767434  40.7688730  93.5890012  68.2544997  42.5699988
  94.2211439  68.8837266  43.1965514  92.5200012  69.1354997  41.9109988
  92.1363831  68.6374870  41.0205383  91.7033130  69.3032749  42.6131184
  93.1530012  70.7534997  41.4399988  92.9280012  67.2384997  43.4919988
  92.6770012  66.0934997  43.0999988  92.6460012  67.6214997  44.7399988
  92.8950012  68.9294997  45.3649988  92.6516373  69.7256413  44.6614131
  93.9438587  69.0065439  45.6514618  91.9810012  68.9094997  46.5479988
  90.9928767  69.2687494  46.2605117  92.3820333  69.5441301  47.3382638
  91.9370012  67.4814997  46.9819988  90.9758707  67.2893316  47.4588622
  92.7417322  67.2049177  47.6631816  92.0470012  66.6704997  45.6859988
  92.7197243  65.8189622  45.7881052  90.6840012  66.1854997  45.2139988
  89.9170012  66.9254997  44.5949988  90.3940012  64.9174997  45.5139988
  91.0716894  64.3282149  45.9761475  89.1240012  64.3234997  45.1059988
  88.9174200  64.5047595  44.0512152  89.1370012  62.8064997  45.3729988
  89.2797805  62.6358597  46.4400491  87.8260012  62.1754997  44.9299988
  87.6827401  62.3453362  43.8628847  87.8534358  61.1036772  45.1263270
  87.0009201  62.6246162  45.4828411  90.3240012  62.1464997  44.6649988
  91.2247440  62.4446734  45.2015205  90.1906674  61.0681149  44.7510680
  90.4590012  62.5234997  43.2029988  90.5928414  63.6017595  43.1161519
  91.3226086  62.0150127  42.7743702  89.5587631  62.2252028  42.6656996
  87.9600012  65.0064997  45.8109988  86.9400012  65.3264997  45.1889988
  88.0900012  65.2424997  47.1129988  88.9372648  64.9605717  47.5849737
  87.0190012  65.8304997  47.9079988  86.3491711  66.3964347  47.2605851
  86.2080012  64.7384997  48.6179988  86.8320974  64.2842660  49.3875928
  85.3354199  65.1975755  49.0827044  85.7860012  63.7414997  47.7029988
  85.2818436  63.0712563  48.1701164  87.6350012  66.8204997  48.8909988
  88.8040012  67.2034997  48.7689988  86.8370012  67.2424997  49.8719988
  85.8742566  66.9379247  49.8933588  87.2990012  68.1274997  50.9169988
  86.7862489  67.8298600  51.8316544  88.3691946  67.9527842  51.0277232
  87.0630012  69.6034997  50.6779988  87.3690012  70.4114997  51.5639988
  86.5310012  69.9874997  49.5149988  86.3217737  69.3228111  48.7838953
  86.3090012  71.4044997  49.2459988  87.1809670  71.9818373  49.5533357
  86.0760012  71.6294997  47.7529988  85.1749644  71.0806005  47.4792441
  85.9086692  72.6968164  47.6083095  87.2300012  71.1754997  46.8779988
  88.1296872  71.1186597  47.4907263  86.9979828  70.1870129  46.4815604
  87.4610012  72.1394997  45.7289988  86.6427455  72.0458231  45.0150090
  87.4885862  73.1574588  46.1177117  88.7180012  71.8684997  45.0379988
  88.6761326  71.2840221  44.2153613  89.8990012  72.3414997  45.4199988
  89.9920012  73.1114997  46.4949988  89.1616841  73.3379534  47.0235744
  90.8927479  73.4681819  46.7805383  90.9910012  72.0424997  44.7289988
  90.9220033  71.4538794  43.9111568  91.8864793  72.4048197  45.0238576
  85.1460012  71.9614997  50.0569988  85.2260012  73.0914997  50.5539988
  84.0660012  71.2004997  50.1999988  84.0061530  70.3123450  49.7228207
  82.9250012  71.6384997  50.9859988  82.8130442  72.7181009  50.8858685
  81.6430012  70.9664997  50.4929988  81.7363236  69.8853491  50.5954901
  80.7978795  71.3155810  51.0863046  81.4796448  71.2188605  49.4452736
  83.1540012  71.3414997  52.4649988  84.1190012  70.6794997  52.8519988
  82.2470012  71.8424997  53.2999988  81.4943917  72.4063880  52.9316128
  82.3580012  71.6974997  54.7469988  83.4014524  71.5277337  55.0124950
  81.8630012  72.9464997  55.4819988  81.9228811  72.7803211  56.5575908
  82.7240012  74.1374997  55.1059988  82.6642611  74.3045963  54.0305404
  82.3682718  75.0239056  55.6312050  83.7590174  73.9409963  55.3856942
  80.4150012  73.2694997  55.1269988  79.7764546  72.4310666  55.4051900
  80.0982520  74.1616547  55.6672108  80.3341781  73.4468979  54.0545724
  81.6130012  70.4284997  55.1599988  80.3850012  70.3494997  55.0899988
  82.3710012  69.4134997  55.5609988  83.3729080  69.4994546  55.4666923
  81.8320012  68.1684997  56.0859988  80.7543666  68.2732564  56.2118119
  82.1040012  66.9804997  55.1489988  83.1834171  66.9541272  54.9997842
  81.7909726  66.0889984  55.6924494  81.4020012  67.0214997  53.7889988
  80.3330777  67.1217762  53.9772756  81.7622990  67.9056939  53.2631774
  81.6520012  65.7904997  52.9379988  82.7238164  65.6841997  52.7706326
  81.2778988  64.9117282  53.4632678  80.9840012  65.8814997  51.6449988
  81.5347625  66.1974803  50.8595577  79.7070012  65.5764997  51.4419988
  79.1790012  65.6894997  50.2319988  79.7504643  66.0086145  49.4627812
  78.2075013  65.4560009  50.0844656  78.9560012  65.1574997  52.4519988
  79.3580951  65.0713644  53.3744961  77.9855649  64.9265415  52.2938519
  82.4290012  67.8874997  57.4579988  83.2820012  68.6244997  57.9599988
  81.9660012  66.7984997  58.0629988  81.2328144  66.2487334  57.6383889
  82.4720012  66.3864997  59.3609988  82.4998120  67.2419367  60.0359456
  81.5700012  65.3154997  59.9679988  81.1172013  64.7561758  59.1493240
  82.1949843  64.6481005  60.5613573  80.4820012  65.8974997  60.8429988
  80.2770012  67.1274997  60.7979988  79.8310012  65.1244997  61.5769988
  83.8970012  65.8494997  59.2319988  84.3120012  65.4224997  58.1509988
  84.6690012  65.8724997  60.3159988  84.4510012  66.6214997  61.5629988
  83.4089344  66.5324265  61.8700218  84.6955954  67.6726335  61.4100598
  85.3850012  65.9534997  62.5099988  84.8881895  65.1045458  62.9796311
  85.6985491  66.6606545  63.2779318  86.5470012  65.5154997  61.6829988
  86.9353439  64.6007720  62.1308405  87.3498347  66.2480880  61.6000993
  85.9690012  65.2114997  60.2919988  86.5681731  65.6353059  59.4860958
  85.8020012  63.7234997  60.0669988  84.7620012  63.1364997  60.4219988
  86.7990012  63.0694997  59.4619988  88.1210012  63.5944997  59.0829988
  88.7662533  63.6300722  59.9607712  88.0122720  64.5980570  58.6717207
  88.5930012  62.6084997  58.0629988  89.6819724  62.5622208  58.0729506
  88.2517800  62.9118752  57.0732348  87.9880012  61.3014997  58.4579988
  88.5982191  60.7975784  59.2075296  87.8564079  60.6462221  57.5969563
  86.6210012  61.6624997  59.0549988  85.8385064  61.6459015  58.2963653
  86.2440012  60.7244997  60.1919988  85.4550012  59.7954997  59.9849988
  86.7850012  60.9414997  61.3869988  87.4228515  61.7116095  61.5290452
  86.4790012  60.0864997  62.5149988  85.7875924  60.6154622  63.1709346
  86.0029037  59.1799858  62.1412835  87.7120012  59.7054997  63.3039988
  87.6530012  59.5504997  64.5279988  88.8410012  59.5534997  62.6129988
  88.8317492  59.5646846  61.6031034  90.1070012  59.3084997  63.2889988
  89.9830354  58.5273781  64.0390526  91.1660012  58.8544997  62.2799988
  90.7121247  58.1390146  61.5943046  91.5119583  59.7237610  61.7207150
  92.2650012  58.2474997  62.9359988  92.9140530  57.9718831  62.2845641
  90.6090012  60.5304997  64.0429988  91.4830012  60.3914997  64.9059988
  90.0820012  61.7144997  63.7389988  89.4623848  61.7746869  62.9436672
  90.4270012  62.9434997  64.4399988  91.2024422  62.7314034  65.1760732
  90.9300012  64.0174997  63.4609988  90.0712541  64.4984721  62.9926833
  91.7580012  65.0594997  64.1889988  92.6172444  64.5793184  64.6572162
  92.1043507  65.8102505  63.4787059  91.1481881  65.5386894  64.9548998
  91.7860012  63.3854997  62.3619988  91.1713425  62.6330124  61.8679761
  92.0330850  64.1751049  61.6523702  93.0630012  62.7424997  62.8669988
  92.8166888  61.9524272  63.5763757  93.6131603  62.3176755  62.0273866
  93.6784306  63.4945199  63.3607721  89.2550012  63.4604997  65.2639988
  89.4220012  64.3814997  66.0699988  88.0700012  62.8784997  65.0929988
  87.9844240  62.1548678  64.3936185  86.8750012  63.2754997  65.8259988
  86.9225973  64.3358457  66.0739910  85.6280012  63.0284997  64.9649988
  85.8213969  63.6166592  64.0679114  85.5904132  61.9708088  64.7042742
  84.2890012  63.4514997  65.5729988  84.1533347  62.9279533  66.5193574
  84.2500012  64.9504997  65.8139988  84.3851464  65.4747575  64.8679605
  83.2877294  65.2245821  66.2464483  85.0490991  65.2295154  66.5007980
  83.1380012  63.0164997  64.6809988  83.1507581  61.9318837  64.5735516
  82.1936031  63.3256349  65.1289373  83.2429534  63.4795474  63.6998409
  86.7330012  62.5514997  67.1549988  86.3860012  63.1734997  68.1649988
  86.9910012  61.2454997  67.1799988  87.1928733  60.7752450  66.3092477
  86.9180012  60.4454997  68.3969988  85.9167953  60.5082108  68.8233242
  87.2260012  58.9794997  68.0859988  87.9582889  58.9705296  67.2786739
  87.6651577  58.5350161  68.9791258  86.0100012  58.1814997  67.6719988
  85.5090012  58.2644997  66.3799988  86.0099969  58.9145337  65.6626715
  84.3960012  57.5414997  65.9969988  84.0138893  57.6153173  64.9788419
  83.7680012  56.7234997  66.9109988  82.6600012  56.0014997  66.5329988
  82.4146584  56.1436081  65.6158228  84.2450012  56.6254997  68.2009988
  83.7487258  55.9784733  68.9243024  85.3590012  57.3534997  68.5749988
  85.7396656  57.2824140  69.5938911  87.8420012  60.9534997  69.5039988
  87.3900012  61.0764997  70.6509988  89.1390012  61.2504997  69.2379988
  89.8470012  61.2924997  67.9429988  89.1971010  61.7427091  67.1926378
  90.1020862  60.2770550  67.6398441  91.0630012  62.1274997  68.2289988
  90.8483219  63.1731549  68.0085061  91.8928698  61.7888769  67.6087133
  91.3590012  61.9294997  69.6549988  91.8654729  62.8069462  70.0570845
  91.9674997  61.0438181  69.8377480  89.9880012  61.7684997  70.3209988
  90.0174180  61.0171632  71.1101289  89.4790012  63.0824997  70.8919988
  89.5990012  63.3284997  72.0949988  88.8980012  63.9324997  70.0419988
  88.8929749  63.7611179  69.0466584  88.3160012  65.1754997  70.5319988
  89.0138280  65.6702928  71.2075109  88.0140012  66.1164997  69.3669988
  87.8149557  65.5369414  68.4655597  87.1505261  66.7416153  69.5944656
  89.1430012  67.0474997  69.0379988  90.4230012  66.7914997  69.4969988
  90.6037377  65.9013645  70.0995712  91.4660012  67.6484997  69.1999988
  92.4703580  67.4352035  69.5658850  91.2340012  68.7754997  68.4389988
  92.0534879  69.4537823  68.2013561  89.9600012  69.0434997  67.9779988
  89.7727916  69.9338795  67.3777683  88.9230012  68.1824997  68.2779988
  87.9170988  68.3935133  67.9150474  87.0580012  64.9374997  71.3529988
  86.6020012  65.8544997  72.0449988  86.4840012  63.7394997  71.2889988
  86.7980488  63.0531915  70.6178397  85.3330012  63.4144997  72.1229988
  84.8618751  64.3163610  72.5138767  84.3030012  62.6074997  71.3149988
  84.8163886  61.7932819  70.8035467  83.2300012  62.0354997  72.2279988
  82.7158297  62.8492018  72.7394841  82.5121988  61.4685525  71.6351823
  83.6917056  61.3781273  72.9647414  83.6710012  63.4844997  70.2329988
  83.3761296  64.4209591  70.7064915  84.4399527  63.6819607  69.4861238
  82.4680012  62.8574997  69.5639988  81.6983870  62.6601606  70.3102234
  82.0752644  63.5387018  68.8091341  82.7622100  61.9211605  69.0898575
  85.7480012  62.6644997  73.3889988  85.2420012  62.9604997  74.4759988
  86.6630012  61.7044997  73.2709988  87.0412032  61.4839389  72.3608254
  87.0720012  60.8864997  74.4059988  86.2162992  60.5575513  74.9956311
  87.8560012  59.6414997  73.9369988  88.6972322  59.9668094  73.3249505
  88.3720012  58.8454997  75.1249988  87.5312542  58.5194302  75.7373093
  88.9206385  57.9738148  74.7682593  89.0345986  59.4717283  75.7224131
  86.9770012  58.7714997  73.0529988  86.6594218  59.3428593  72.1807640
  87.5402468  57.8966363  72.7282401  86.1001803  58.4503165  73.6152509
  87.8820012  61.6624997  75.4399988  87.6810012  61.4454997  76.6449988
  88.7850012  62.5524997  75.0229988  89.0117967  62.6482878  74.0434643
  89.5770012  63.3094997  75.9969988  90.0683224  62.6498584  76.7122442
  90.6520012  64.1394997  75.2749988  90.1716769  64.7741171  74.5302515
  91.4040012  65.0064997  76.2689988  91.8850089  64.3725171  77.0138468
  92.1616131  65.5883747  75.7440740  90.7060160  65.6819208  76.7636952
  91.6170012  63.2244997  74.5419988  91.0706156  62.6328597  73.8074737
  92.3730177  63.8241197  74.0350525  92.1010604  62.5587670  75.2565528
  88.7060012  64.1504997  76.9239988  88.8790012  64.0534997  78.1489988
  87.7700012  64.9754997  76.4349988  87.4220012  65.3024997  75.0419988
  86.7068995  64.5744672  74.6589861  88.3196929  65.2891396  74.4238806
  86.8380012  66.6674997  75.1659988  86.1632400  66.8631536  74.3326225
  87.6315185  67.4147450  75.1734823  86.1090012  66.6534997  76.4639988
  85.1113291  66.2311593  76.3440907  86.0309519  67.6523863  76.8932230
  86.9510012  65.7524997  77.3819988  87.6333866  66.3452167  77.9912073
  86.0820012  64.8954997  78.2849988  85.8870012  65.2494997  79.4549988
  85.5550012  63.7744997  77.7889988  85.6955816  63.5213433  76.8213995
  84.6840012  62.9374997  78.6019988  83.9910589  63.5594870  79.1686220
  83.8860012  61.9574997  77.7109988  83.5466408  62.4894548  76.8222026
  84.7420012  60.7814997  77.2979988  85.0813791  60.2487421  78.1863076
  84.1569405  60.1076047  76.6721631  85.6056344  61.1391925  76.7373807
  82.6490012  61.4434997  78.4489988  82.9557642  60.5726668  79.0283495
  82.3239063  62.2334971  79.1259899  81.5060012  61.0624997  77.5329988
  81.8302210  60.2721704  76.8559751  80.6650738  60.7075473  78.1287750
  81.1983645  61.9330008  76.9536135  85.4520012  62.1874997  79.6829988
  84.8410012  61.6734997  80.6249988  86.7780012  62.1134997  79.5749988
  87.2248419  62.4140099  78.7205245  87.6130012  61.5564997  80.6329988
  87.0364975  60.8838154  81.2680096  88.7910012  60.7784997  80.0379988
  89.4010136  60.3857338  80.8514605  88.2950012  59.6274997  79.1749988
  87.6852518  60.0195492  78.3609948  89.1477481  59.0883545  78.7623920
  87.6962102  58.9489595  79.7825621  89.6030012  61.6604997  79.2529988
  90.3403136  61.1707813  78.8813180  88.1430012  62.6184997  81.5839988
  88.3280012  62.3394997  82.7719988  88.3970012  63.8324997  81.0879988
  88.3671390  64.0058597  80.0934366  88.8130012  64.9204997  81.9679988
  89.6607770  64.6294303  82.5882036  89.2100012  66.1584997  81.1409988
  88.3853098  66.4211389  80.4784250  89.5190012  67.3314997  82.0529988
  90.3439559  67.0697605  82.7156021  89.7973922  68.1967088  81.4513243
  88.6379038  67.5717153  82.6480328  90.4120012  65.8454997  80.2689988
  90.1665065  65.0283752  79.5906611  90.6815762  66.7289428  79.6902439
  91.2524650  65.5540507  80.8989026  87.7160012  65.2434997  82.9709988
  87.9940012  65.4834997  84.1529988  86.4560012  65.2504997  82.5259988
  86.2427675  65.1360349  81.5454231  85.3550012  65.5014997  83.4479988
  85.5428195  66.4080149  84.0233714  84.0440012  65.6734997  82.6789988
  84.1620228  66.4856013  81.9615993  83.6760012  64.3964997  81.9419988
  83.5573475  63.5839952  82.6588373  82.7402301  64.5442911  81.4029354
  84.4660960  64.1439514  81.2348425  82.9930012  66.0084997  83.5929988
  82.1706908  66.1162322  83.1094703  85.2330012  64.3864997  84.4799988
  84.7360012  64.6094997  85.5889988  85.6790012  63.1794997  84.1359988
  85.9438520  62.9873855  83.1804646  85.7340012  62.0884997  85.1009988
  84.9032456  62.1709937  85.8018120  85.6370012  60.7394997  84.3839988
  86.3870956  60.8094955  83.5962436  85.9210633  59.9563517  85.0869126
  84.2790012  60.4014997  83.7659988  83.9729589  61.2223389  83.1174142
  84.3610012  59.1174997  82.9539988  84.6665601  58.2960595  83.6020486
  83.3843146  58.8961343  82.5236716  85.0909614  59.2390936  82.1537030
  83.2160012  60.2854997  84.8459988  83.1354524  61.2320810  85.3804097
  82.2566835  60.0446864  84.3879379  83.4924057  59.4964191  85.5453209
  86.9900012  62.1284997  85.9579988  87.0840012  61.3684997  86.9269988
  87.9510012  62.9884997  85.6239988  87.8695301  63.4979182  84.7556932
  89.1470012  63.1874997  86.4319988  89.2508677  62.3725380  87.1483425
  90.3940012  63.2164997  85.5379988  90.2714951  62.3312812  84.9139155
  90.3027079  64.1106366  84.9213265  91.7770012  63.1894997  86.1959988
  91.7038472  62.7041249  87.1692206  92.7490012  62.4214997  85.3199988
  92.8230403  62.9065739  84.3466951  93.7308399  62.4056776  85.7931194
  92.3924151  61.3997192  85.1899542  92.3030012  64.5974997  86.4429988
  91.6177278  65.1316675  87.1011512  93.2859619  64.5418501  86.9107515
  92.3822526  65.1279755  85.4940975  89.1010012  64.4564997  87.2649988
  89.5440012  64.4394997  88.4159988  88.5810012  65.5544997  86.7149988
  88.3572182  65.5831901  85.7305205  88.3980012  66.7684997  87.5009988
  89.2968306  67.0336213  88.0576992  88.0230012  67.9454997  86.5829988
  87.1507510  67.6651910  85.9924855  87.7050012  69.1904997  87.3969988
  88.5769930  69.4717092  87.9874667  87.4431205  70.0076291  86.7248243
  86.8666902  68.9855803  88.0628399  89.1510012  68.2254997  85.6059988
  89.3322875  67.3404133  84.9961959  88.8752140  69.0600092  84.9613012
  90.0564440  68.4773708  86.1581175  87.3540012  66.5774997  88.5929988
  87.5030012  67.1334997  89.6879988  86.3080012  65.7914997  88.3289988
  86.2086463  65.3975855  87.4043045  85.2690012  65.5164997  89.3119988
  84.7712719  66.4405856  89.6059885  84.2230012  64.5604997  88.7319988
  84.7356863  63.7549833  88.2062635  83.3570012  63.9744997  89.8349988
  82.8436021  64.7794397  90.3609194  82.6212117  63.2984456  89.3994946
  83.9842352  63.4247534  90.5367516  83.3930012  65.2664997  87.8029988
  82.7374053  64.6666708  87.4396812  85.8620012  64.9294997  90.5859988
  85.6090012  65.4364997  91.6839988  86.6620012  63.8714997  90.4519988
  86.8119737  63.4442783  89.5491757  87.2910012  63.2624997  91.6179988
  86.5088892  63.0550982  92.3483307  87.9570012  61.9424997  91.2269988
  88.7486543  62.1348732  90.5028594  88.3827325  61.4730599  92.1138355
  87.2149725  61.2774212  90.7852259  88.3100012  64.1774997  92.2789988
  88.5630012  64.0244997  93.4799988  88.8570012  65.1344997  91.5409988
  88.6610999  65.2050076  90.5526918  89.7900012  66.0884997  92.1309988
  90.5526460  65.5547983  92.6981274  90.4770012  66.9114997  91.0439988
  91.0341527  66.1654649  90.4773299  89.6944396  67.3352377  90.4145995
  91.4260012  68.0224997  91.4939988  90.8850673  68.7054812  92.1490008
  92.6170012  67.4404997  92.2409988  93.1587337  66.7577235  91.5864444
  93.2804471  68.2471590  92.5528336  92.2662200  66.8991011  93.1196002
  91.8890012  68.8314997  90.2929988  91.0252301  69.2770221  89.7995327
  92.5644947  69.6202644  90.6241480  92.4097089  68.1780687  89.5930056
  89.0570012  67.0044997  93.0919988  89.5050012  67.2194997  94.2149988
  87.9150012  67.5294997  92.6649988  87.5863218  67.3547970  91.7260908
  87.1490012  68.4444997  93.5079988  87.7703651  69.2588451  93.8806214
  85.9510012  69.0474997  92.7459988  85.3602167  68.2324866  92.3278759
  85.0770012  69.8874997  93.6639988  85.6670154  70.7030464  94.0821706
  84.2419577  70.2978517  93.0961835  84.6946329  69.2645911  94.4726279
  86.4440012  69.8824997  91.5739988  87.0192119  69.2528950  90.8951522
  85.5904620  70.3036244  91.0427507  87.0761049  70.6901662  91.9430793
  86.6870012  67.7494997  94.7819988  86.7350012  68.3324997  95.8609988
  86.2750012  66.4904997  94.6709988  86.2551233  66.0228211  93.7760233
  85.8070012  65.7624997  95.8399988  84.9948450  66.2952815  96.3346148
  85.3150012  64.3524997  95.4669988  86.1351740  63.8073383  94.9998639
  84.8420012  63.5974997  96.6999988  84.0214695  64.1418529  97.1674474
  84.4995339  62.6043437  96.4093824  85.6655953  63.5045453  97.4079210
  84.1940012  64.4374997  94.4469988  84.5568000  64.9364342  93.5483646
  83.8563179  63.4327587  94.1929019  83.3627953  65.0044319  94.8662665
  86.9340012  65.6594997  96.8589988  86.7180012  65.8404997  98.0549988
  88.1440012  65.3884997  96.3939988  88.3000160  65.1754038  95.4191404
  89.2810012  65.3414997  97.3009988  89.0767094  64.6524019  98.1204549
  90.5220012  64.8604997  96.5579988  90.2636225  64.5682337  95.5401970
  91.2703342  65.6525007  96.5291518  91.1750012  63.6804997  97.1869988
  92.3590012  63.6624997  97.8599988  92.8881640  64.6111196  97.9505890
  92.6360012  62.3904997  98.2959988  93.4568810  62.1133324  98.8150693
  91.6200012  61.5574997  97.9109988  91.4480012  60.1924997  98.1179988
  92.2145543  59.6498297  98.6711752  90.3190012  59.6144997  97.6099988
  90.1517950  58.5468633  97.7524581  89.3660012  60.3634997  96.9069988
  88.4677136  59.8926263  96.5076778  89.5350012  61.7174997  96.6989988
  88.7659058  62.2544722  96.1437929  90.6800012  62.3374997  97.2069988
  89.5500012  66.6964997  97.9339988  89.8420012  66.7874997  99.1199988
  89.4640012  67.7564997  97.1429988  89.2817645  67.6541222  96.1548652
  89.7030012  69.0944997  97.6659988  90.6650090  69.1282485  98.1773706
  89.7210012  70.1064997  96.5279988  88.7778420  70.0079731  95.9905580
  89.7813785  71.0983178  96.9760517  90.8740012  69.9174997  95.5629988
  90.7752794  68.9386715  95.0936905  90.8294194  70.6927597  94.7980893
  92.2220012  69.9914997  96.2489988  92.4840012  70.9054997  97.0309988
  93.0900012  69.0314997  95.9539988  94.0042979  69.0322499  96.3831402
  92.8321471  68.3047286  95.3017592  88.6730012  69.4844997  98.7079988
  89.0060012  70.1004997  99.7139988  87.4160012  69.1414997  98.4639988
  87.1643227  68.7189266  97.5818484  86.3500012  69.4444997  99.4159988
  86.3809537  70.5012002  99.6815645  84.9890012  69.1354997  98.8069988
  84.2153982  69.4699012  99.4982392  84.8969548  69.6811457  97.8679045
  84.8370012  67.7504997  98.5639988  83.9721933  67.5858237  98.1811293
  86.5000012  68.7244997 100.7469988  86.1780012  69.2884997 101.7909988
  86.9840012  67.4864997 100.7239988  87.2135680  67.0441926  99.8454984
  87.0920012  66.6914997 101.9519988  86.1265490  66.6766467 102.4577464
  87.5100012  65.2464997 101.6509988  87.0543967  64.6247194 102.4216563
  87.0808291  64.9949218 100.6811431  89.0080012  64.9984997 101.6209988
  89.4550033  65.6670549 100.8852516  89.4154896  65.2200524 102.6073910
  89.3240012  63.5604997 101.2549988  88.8392707  62.8986375 101.9726852
  88.9382074  63.3573065 100.2560117  90.8230012  63.3194997 101.2769988
  91.0045776  62.2630996 101.0791367  91.2795673  63.9197336 100.4900008
  91.4190012  63.6874997 102.5899988  90.9963786  63.1311174 103.3193331
  92.4138711  63.5146781 102.5683992  91.2512308  64.6664478 102.7733367
  88.0330012  67.3464997 102.9499988  87.9290012  67.0984997 104.1519988
  88.9440012  68.1834997 102.4659988  89.0375303  68.3352444 101.4718533
  89.8350012  68.9044997 103.3599988  90.4381565  68.1972185 103.9292581
  90.7690012  69.8134997 102.5659988  90.1442870  70.4839270 101.9757796
  91.3452247  70.3944910 103.2860790  91.7170012  69.0644997 101.6459988
  92.4777005  68.5753856 102.2544433  91.1489250  68.3109543 101.1005073
  92.3860012  70.0054997 100.6599988  93.2119199  69.4844795 100.1757517
  91.6576466  70.3088943  99.9079677  92.9070012  71.2004997 101.3149988
  92.7409306  71.2949566 102.3067638  93.5770012  72.1624997 100.6899988
  93.8150012  72.0684997  99.3889988  93.4854631  71.2637535  98.8752982
  94.3247357  72.8020749  98.9176839  94.0120012  73.2164997 101.3639988
  93.8328933  73.2871873 102.3554743  94.5207992  73.9446526 100.8833569
  88.9390012  69.7244997 104.2799988  87.6920012  69.6394997 104.1169988
  89.4890012  70.4444997 105.1529988  73.2520012  86.2144997  48.8769988
  73.7751929  85.4110016  48.5595682  72.8975321  86.0256204  49.8037008
  73.7985492  87.0462861  48.7051964  72.0700012  86.3484997  48.0319988
  71.1696985  86.2814606  48.6427852  72.0750012  87.7024997  47.3139988
  72.2002470  88.4629372  48.0848083  72.9456983  87.7037174  46.6582663
  70.8260012  88.0074997  46.4989988  70.9626044  88.9670695  46.0003344
  70.6938692  87.2255630  45.7511898  69.5760012  88.0784997  47.3509988
  68.7530012  87.1624997  47.3449988  69.4240012  89.1724997  48.0889988
  68.6084003  89.2724877  48.6762798  70.1247320  89.8992763  48.0594461
  72.0390012  85.1864997  47.0389988  71.6210012  84.0804997  47.3839988
  72.4790012  85.4354997  45.8039988  72.6691254  86.3775854  45.4934725
  72.6310012  84.3464997  44.8439988  71.9605422  83.5280114  45.1060312
  72.2910012  84.8234997  43.4319988  72.6867143  85.8391318  43.4306682
  72.8567971  84.2127503  42.7284647  70.8180012  84.8494997  43.0149988
  70.3580953  83.9119704  43.3274508  70.0710012  86.0134997  43.6429988
  70.5300754  86.9514583  43.3306156  69.0299200  85.9940786  43.3207044
  70.1162076  85.9314237  44.7289639  70.6980012  84.8884997  41.4979988
  71.1719913  84.0039002  41.0726559  69.6450943  84.9066700  41.2166480
  71.1908702  85.7828942  41.1168983  74.0400012  83.7684997  44.8859988
  74.2270012  82.5624997  44.6869988  75.0400012  84.6144997  45.1489988
  74.8633838  85.5838139  45.3711150  76.4200012  84.1534997  45.1209988
  76.6415251  83.8036498  44.1127173  77.0658013  84.9978291  45.3621405
  76.6890012  83.0304997  46.1029988  77.4120012  82.0804997  45.7899988
  76.1130012  83.1214997  47.3029988  75.6274868  83.9597776  47.5887700
  76.2630012  82.0434997  48.2749988  77.2984521  81.7246888  48.3945824
  75.7200012  82.4834997  49.6519988  76.2289423  83.3998091  49.9510893
  74.2170012  82.7324997  49.5959988  73.7073060  81.8164467  49.2974042
  73.8623978  83.0409430  50.5794720  74.0051520  83.5183937  48.8710214
  76.0600012  81.4474997  50.7139988  77.1422285  81.3352967  50.7795470
  75.6699615  81.7733744  51.6782468  75.6116439  80.4908654  50.4458059
  75.5940012  80.7704997  47.7749988  76.0770012  79.6624997  48.0339988
  74.4840012  80.9004997  47.0479988  74.0810742  81.8135885  46.8930211
  73.7920012  79.7394997  46.5059988  73.8917101  78.8941029  47.1867789
  72.3030012  80.0474997  46.3229988  72.1800145  80.7100470  45.4662575
  71.5210012  78.7654997  46.0879988  71.6431368  78.1025946  46.9445846
  70.4646907  79.0019274  45.9599000  71.8935884  78.2713136  45.1907477
  71.8020012  80.6934997  47.4989988  70.8686204  80.8868235  47.3848651
  74.3750012  79.2704997  45.1819988  74.4600012  78.0584997  44.9469988
  74.7740012  80.1954997  44.3049988  74.6515118  81.1823107  44.4819157
  75.3380012  79.7874997  43.0229988  74.6795611  79.0637852  42.5425893
  75.4920012  80.9954997  42.0999988  76.0985343  81.7303774  42.6293111
  76.0255003  80.6566957  41.2119162  74.1720012  81.6304997  41.6869988
  73.4005721  80.8619127  41.7346663  73.9416609  82.4205573  42.4017395
  74.2190012  82.2154997  40.2819988  73.3637729  82.8781206  40.1492697
  75.1409167  82.7862269  40.1704564  74.1780012  81.1834997  39.2449988
  73.2651305  80.8670770  38.9506466  75.2500012  80.6384997  38.6809988
  76.4640012  81.0284997  39.0369988  76.5750238  81.7440952  39.7410563
  77.2735521  80.6086422  38.6028944  75.1070012  79.7054997  37.7499988
  74.1815985  79.4114929  37.4719880  75.9241226  79.2930331  37.3230531
  76.6740012  79.0794997  43.2069988  76.9550012  78.0834997  42.5289988
  77.5130012  79.5754997  44.1169988  77.2982011  80.4212929  44.6255203
  78.8060012  78.9394997  44.3469988  79.2872559  78.7216373  43.3935686
  79.7160012  79.8654997  45.1529988  79.2278659  80.0936099  46.1005160
  80.6598093  79.3550471  45.3447396  80.0070012  81.1674997  44.4319988
  79.7070012  82.2504997  44.9349988  80.5910012  81.0684997  43.2429988
  80.8076048  81.9043344  42.7190113  80.8157435  80.1578474  42.8684269
  78.6590012  77.5934997  45.0499988  79.3880012  76.6474997  44.7349988
  77.7250012  77.4854997  45.9989988  77.1431974  78.2722570  46.2492319
  77.5710012  76.2454997  46.7499988  78.5396770  75.9221742  47.1310854
  76.6230012  76.4494997  47.9339988  76.8353718  75.6544608  48.6487793
  76.8748487  77.4128525  48.3774219  75.1490012  76.4274997  47.5769988
  74.8574450  77.4222777  47.2400826  74.9970555  75.7117863  46.7690576
  74.2990012  76.0284997  48.7739988  73.2833994  75.8368383  48.4277070
  74.7140005  75.1167080  49.2035462  74.2760012  77.1204997  49.8299988
  73.9096536  76.6873585  50.7607398  75.2956089  77.4783545  49.9729644
  73.4020012  78.2584997  49.4349988  72.4570753  77.9271949  49.3028926
  73.4142836  78.9602822  50.1612565  73.7415457  78.6602707  48.5727989
  77.0770012  75.0904997  45.8899988  77.2080012  73.9344997  46.3069988
  76.5120012  75.3644997  44.7149988  76.2498992  76.3113986  44.4809382
  76.1770012  74.3024997  43.7749988  76.1579940  73.3345132  44.2757384
  74.8150012  74.5574997  43.0979988  74.5696863  73.7067871  42.4622242
  73.7290012  74.7374997  44.1429988  73.9734011  75.5883743  44.7789089
  72.7742841  74.9165395  43.6484678  73.6583213  73.8370334  44.7531332
  74.8860012  75.7774997  42.1809988  75.0006219  76.6550432  42.8173007
  75.7726902  75.6631607  41.5574536  73.6710012  75.9494997  41.3009988
  72.7839165  76.0643713  41.9238832  73.7948227  76.8359704  40.6789560
  73.5559835  75.0724871  40.6640374  77.2610012  74.1104997  42.7209988
  77.3000012  73.0504997  42.0769988  78.1380012  75.0974997  42.5219988
  78.0072014  76.0084917  42.9380327  79.2830012  74.8974997  41.6419988
  78.9458150  74.5261008  40.6742862  80.0270012  76.2174997  41.4269988
  80.2442118  76.6054440  42.4221962  80.9602217  75.9583341  40.9269660
  79.2900012  77.2874997  40.6109988  78.8451455  77.9404077  41.3619418
  80.0833586  77.8225929  40.0891163  78.0160012  76.7974997  39.4169988
  78.8560012  75.5814997  38.3989988  79.1855786  74.7503121  39.0223806
  78.1725386  75.2126795  37.6341777  79.7208121  76.0418860  37.9212460
  80.2250012  73.8424997  42.2059988  80.7690012  73.0204997  41.4589988
  80.4270012  73.8524997  43.5259988  80.0391663  74.5824127  44.1064386
  81.2660012  72.8394997  44.1569988  82.2580360  72.8316088  43.7054417
  81.4110012  73.1374997  45.6499988  80.4210948  73.1447083  46.1062155
  82.2720012  72.0844997  46.3259988  83.2622798  72.0770165  45.8705959
  82.3625333  72.3151199  47.3874682  81.8099379  71.1046357  46.2057293
  82.0160012  74.4244997  45.8249988  82.1066100  74.6106835  46.7624026
  80.6930012  71.4464997  43.9419988  81.4370012  70.4954997  43.6719988
  79.3710012  71.3064997  44.0539988  78.7910016  72.0568271  44.4014301
  78.7370012  70.0324997  43.7379988  79.1870063  69.2518940  44.3513904
  77.2440012  70.0954997  44.0469988  76.7777305  70.8665848  43.4337131
  76.7859920  69.1310651  43.8274677  77.1002946  70.3339156  45.1008515
  78.9700012  69.6544997  42.2849988  79.2240012  68.4854997  41.9719988
  78.8810012  70.6284997  41.3759988  78.5022563  71.5354538  41.6085623
  79.2760012  70.3774997  39.9939988  78.7569031  69.4978122  39.6134906
  78.9170012  71.5744997  39.1149988  77.8357065  71.7017765  39.1669775
  79.4062936  72.4492392  39.5433955  79.3390012  71.4184997  37.6639988
  80.4278022  71.4175789  37.6128880  78.9573128  70.4694575  37.2875217
  78.8150012  72.5324997  36.7859988  79.5480012  73.0964997  35.9759988
  77.5380012  72.8564997  36.9419988  77.1351143  73.5937634  36.3814402
  76.9745790  72.3644065  37.6206011  80.7630012  70.0724997  39.8999988
  81.1740012  69.1774997  39.1509988  81.5830012  70.8044997  40.6499988
  81.2101323  71.5692528  41.1942604  83.0220012  70.5774997  40.6729988
  83.4251450  70.6295825  39.6616325  83.7060012  71.6474997  41.5279988
  83.3992061  72.6105257  41.1198850  83.3208523  71.5440459  42.5424236
  85.2170012  71.5684997  41.5519988  85.8750012  70.7284997  42.4429988
  85.2841080  70.1220780  43.1294370  87.2530012  70.6544997  42.4679988
  87.7575630  69.9878358  43.1673402  87.9910012  71.4294997  41.6009988
  89.3650012  71.3604997  41.6239988  89.6986750  70.7435740  42.2794865
  87.3620012  72.2734997  40.7119988  87.9464810  72.8869267  40.0262940
  85.9830012  72.3394997  40.6929988  85.4788875  73.0066264  39.9937768
  83.3450012  69.1854997  41.1989988  83.9070012  68.3574997  40.4759988
  82.9710012  68.9214997  42.4539988  82.4179277  69.5846654  42.9778501
  83.4000012  67.6964997  43.1229988  84.4860417  67.6102754  43.0886399
  82.9580012  67.7244997  44.5869988  81.8867661  67.9258814  44.5866153
  83.1395532  66.7272439  44.9877727  83.6700012  68.7594997  45.4559988
  83.6760857  69.6906128  44.8893489  83.0853847  68.8925677  46.3662821
  85.0960012  68.3794997  45.8209988  85.4310012  68.4524997  47.0209988
  85.8860012  68.0254997  44.9209988  82.8590012  66.4494997  42.4369988
  83.4870012  65.3864997  42.5059988  81.6980012  66.5504997  41.7849988
  81.1928460  67.4237641  41.7367612  81.0980012  65.3694997  41.1729988
  81.0187694  64.5695406  41.9091285  79.6990012  65.6954997  40.6539988
  79.0449988  65.9304887  41.4937370  79.7504671  66.5530702  39.9831604
  78.9500012  64.3634997  39.6979988  81.9610012  64.8224997  40.0449988
  82.1570012  63.6074997  39.9379988  82.4910012  65.7044997  39.1939988
  82.3698118  66.6992388  39.3201201  83.1930012  65.2384997  38.0019988
  82.6219968  64.4462609  37.5178387  83.3650012  66.3894997  37.0139988
  83.6336694  67.2776469  37.5859351  84.1866273  66.1240962  36.3487233
  82.1250012  66.6734997  36.1949988  81.7190012  65.8044997  35.1919988
  82.3107212  64.9091876  35.0012551  80.5870012  66.0574997  34.4409988
  80.2811776  65.3693026  33.6529895  79.8440012  67.1904997  34.6929988
  78.7160012  67.4464997  33.9509988  78.5417307  66.7734487  33.2890079
  80.2250012  68.0654997  35.6849988  79.6355458  68.9602041  35.8853658
  81.3600012  67.8054997  36.4279988  81.6675267  68.4962424  37.2131119
  84.5390012  64.6064997  38.3379988  85.0140012  63.7444997  37.5889988
  85.1710012  65.0104997  39.4429988  84.8586215  65.8089112  39.9769063
  86.3940012  64.3324997  39.8629988  87.0946014  64.2946331  39.0288378
  87.0590012  65.0704997  41.0269988  86.2619380  65.4130167  41.6869015
  87.6797039  64.3456252  41.5536725  87.9130012  66.2574997  40.6049988
  88.8219233  66.2624980  41.2066103  88.1746882  66.1414794  39.5532568
  87.2080012  67.5824997  40.7839988  86.2860012  67.7034997  41.5859988
  87.6410012  68.5884997  40.0319988  87.2063499  69.4968390  40.1100967
  88.4028421  68.4403269  39.3856671  86.1160012  62.8854997  40.2409988
  86.9520012  62.0044997  40.0129988  84.9510012  62.6184997  40.8329988
  84.3459512  63.3495007  41.1789053  84.5560012  61.2324997  41.0529988
  85.3525237  60.7005864  41.5733057  83.2870012  61.1634997  41.9019988
  83.4553812  61.7592145  42.7991449  82.4755069  61.6027745  41.3218137
  82.9150012  59.7444997  42.2989988  83.8037304  59.1193447  42.2127292
  82.5779019  59.7548288  43.3355119  81.8150012  59.1844997  41.4149988
  80.8583576  59.5911342  41.7429934  82.0033766  59.4862066  40.3846653
  81.7760012  57.6714997  41.4989988  82.7912571  57.2929749  41.3803613
  81.3963153  57.3900493  42.4812022  80.9020012  57.0874997  40.4429988
  81.2539016  57.3478224  39.5327802  80.8985870  56.0810403  40.5274260
  79.9611015  57.4377906  40.5530129  84.3530012  60.5134997  39.7239988
  84.7400012  59.3504997  39.5749988  83.7400012  61.1924997  38.7499988
  83.3058091  62.0857238  38.9336487  83.6190012  60.6274997  37.4119988
  83.2065376  59.6196167  37.4583130  82.7160012  61.5114997  36.5309988
  83.2730752  62.3996298  36.2326806  82.2700012  60.7514997  35.2889988
  81.7124234  59.8634202  35.5865261  81.6330982  61.3924476  34.6793750
  83.1447971  60.4538762  34.7108539  81.4890012  61.9904997  37.3109988
  81.8545424  62.5747163  38.1554934  80.9173702  62.6356521  36.6438287
  80.6020012  60.8764997  37.8159988  81.1728512  60.2311491  38.4836460
  79.7566553  61.3014495  38.3572078  80.2356807  60.2920832  36.9719807
  84.9870012  60.4484997  36.7719988  85.1670012  59.5584997  35.9299988
  85.9610012  61.2784997  37.1529988  85.7653526  62.0491976  37.7757714
  87.3190012  61.1324997  36.6379988  87.3135611  61.1534372  35.5482138
  88.1850012  62.2844997  37.1439988  87.5128938  63.1245705  37.3190757
  88.6126608  61.9583160  38.0920555  89.2950012  62.7134997  36.2119988
  90.1039119  61.9842181  36.2557321  88.9096408  62.7672730  35.1938102
  89.9280012  64.3284997  36.6909988  91.0210012  63.8764997  38.0359988
  91.7905081  63.1982700  37.6672677  91.4909667  64.7731905  38.4399525
  90.4476403  63.3825721  38.8204694  87.9230012  59.7924997  37.0399988
  88.5740012  59.1274997  36.2229988  87.7690012  59.3604997  38.4219988
  87.1565841  59.8763758  39.0375607  88.5070012  58.2144997  38.9729988
  89.4788762  58.1357890  38.4857998  88.7290012  58.3844997  40.4939988
  87.7549489  58.5465583  40.9555813  89.1600105  57.4575275  40.8722231
  89.6640012  59.5644997  40.8379988  89.0687824  60.4770745  40.8699779
  90.0706588  59.3616669  41.8287513  90.8130012  59.7704997  39.8769988
  90.8740012  60.7414997  39.1359988  91.7400012  58.8034997  39.9509988
  92.5528320  58.8405272  39.3526373  91.6208250  58.0428888  40.6047338
  87.7140012  56.9644997  38.6769988  87.1980012  56.2784997  39.5269988
  87.5750012  56.5814997  37.2839988  87.4774678  57.2310092  36.5167153
  87.5780012  55.1474997  36.9839988  87.6903022  54.5824290  37.9093010
  86.6384076  54.8742699  36.5037800  88.4075286  54.9173824  36.3153956
  72.2950012  49.2114997  32.7569988  71.7174034  49.8773782  32.2639596
  71.8011904  48.9014151  33.5816798  72.6475048  48.5348688  32.0951745
  73.4720012  49.9134997  33.2539988  73.5152768  49.8382087  34.3405335
  74.7480012  49.3014997  32.6699988  74.6806298  48.2225348  32.8092651
  74.7619707  49.5295883  31.6042218  76.0170012  49.8134997  33.3109988
  76.3080012  49.5394997  34.6409988  75.6026349  48.9447472  35.2213672
  77.4680012  50.0064997  35.2309988  77.6860018  49.7826718  36.2752586
  78.3540012  50.7594997  34.4869988  79.5110012  51.2284997  35.0709988
  79.5964492  50.9727667  35.9923559  78.0880012  51.0464997  33.1659988
  78.7875913  51.6407209  32.5781424  76.9250012  50.5754997  32.5869988
  76.7060843  50.8002587  31.5431315  73.4140012  51.4004997  32.9239988
  74.0060012  51.8524997  31.9439988  72.6940012  52.1584997  33.7489988
  72.1590097  51.7453390  34.4994531  72.6200012  53.6014997  33.5609988
  72.3669636  53.8286033  32.5253854  71.5460012  54.1984997  34.4679988
  71.5623518  53.6923269  35.4332039  71.7411023  55.2611513  34.6122454
  69.8580012  54.0634997  33.8369988  73.9720012  54.2384997  33.8469988
  74.5950012  53.9684997  34.8789988  74.4280012  55.0854997  32.9259988
  73.9018899  55.2670785  32.0831848  75.7180012  55.7384997  33.0879988
  76.4700043  55.0072028  33.3843016  76.1540012  56.3814997  31.7719988
  75.2757596  56.7923354  31.2739978  76.8556779  57.1859832  31.9923529
  76.8250012  55.3964997  30.8359988  76.2670012  55.0254997  29.8049988
  78.0300012  54.9694997  31.1919988  78.5232265  54.3120245  30.6050107
  78.4483293  55.3039611  32.0482919  75.6570012  56.7894997  34.1859988
  74.6630012  57.5054997  34.3319988  76.7300012  56.8754997  34.9709988
  77.4848985  56.2095081  34.8892396  76.8260012  57.9054997  35.9959988
  75.9588873  57.8555064  36.6545679  78.0880012  57.7034997  36.8339988
  78.2105300  58.5931587  37.4517306  77.9148166  56.8383970  37.4740804
  79.3490012  57.4804997  36.0099988  79.0756550  56.9474840  35.0993523
  79.7668243  58.4529904  35.7496383  80.3830012  56.6744997  36.7769988
  80.2015282  56.7886508  37.8457064  80.2891735  55.6236100  36.5032714
  81.7440012  57.1144997  36.4839988  81.8769441  58.0911631  36.2636491
  82.8060012  56.3154997  36.4899988  84.0060012  56.8034997  36.2079988
  84.1103393  57.7838747  35.9887310  84.8103157  56.1926438  36.2137311
  82.6670012  55.0294997  36.7779988  81.7521703  54.6592245  36.9926633
  83.4765308  54.4255558  36.7815128  76.8360012  59.2824997  35.3479988
  77.5300012  59.5074997  34.3499988  76.0600012  60.2064997  35.9079988
  75.5195286  59.9918629  36.7337831  75.9230012  61.5284997  35.3189988
  76.8560324  61.8107990  34.8312909  74.7960012  61.5664997  34.2799988
  75.0314190  60.8720098  33.4735482  73.4740012  61.1704997  34.9199988
  73.2376694  61.8648578  35.7262951  72.6831032  61.2019651  34.1706061
  73.5526294  60.1605255  35.3223300  74.6870012  62.8894997  33.7429988
  73.9814647  62.9136516  33.0924334  75.6690012  62.5514997  36.4169988
  75.2920012  62.2144997  37.5409988  75.8840012  63.8164997  36.0649988
  76.2418419  63.9975283  35.1380263  75.6760012  64.9514997  36.9609988
  75.4987347  64.5929270  37.9749521  76.9040012  65.8584997  36.9719988
  77.6086404  65.4729130  37.7088201  77.3809612  65.8834566  35.9922099
  76.6260012  67.2764997  37.3479988  76.5960012  68.3544997  36.5149988
  76.7845520  68.1636124  35.4585375  76.3220012  69.4954997  37.2249988
  76.2320903  70.4233476  36.8362652  76.1830012  69.1704997  38.5489988
  75.9040012  69.9774997  39.6469988  75.7676299  71.0467789  39.4853096
  75.8180012  69.3724997  40.8689988  75.6006012  69.9735930  41.7519053
  76.0030012  67.9934997  41.0159988  75.9342146  67.5217101  41.9961939
  76.2780012  67.1884997  39.9259988  76.4073164  66.1189966  40.0919552
  76.3710012  67.7794997  38.6629988  74.4300012  65.6814997  36.4729988
  74.4360012  66.2704997  35.3849988  73.3640012  65.6454997  37.2679988
  73.4311195  65.1990688  38.1714887  72.0670012  66.1654997  36.8479988
  71.9178587  65.9803349  35.7842461  70.9440012  65.4724997  37.6279988
  70.0187582  65.6053047  37.0672961  71.1849092  64.4109493  37.6843387
  70.7690012  66.0274997  39.0329988  71.7500012  66.5324997  39.6169988
  69.6380012  65.9564997  39.5549988  71.9490012  67.6744997  36.9979988
  70.9010012  68.2354997  36.6639988  72.9880012  68.3404997  37.4999988
  73.8350168  67.8388943  37.7259543  72.9520012  69.7614997  37.7359988
  73.8989496  70.1709825  37.3842722  72.1365234  70.1673429  37.1373448
  72.7490012  70.1614997  39.1789988  73.0420012  71.3074997  39.5349988
  72.2740012  69.2484997  40.0249988  72.0310875  68.3270728  39.6902378
  72.0360012  69.5584997  41.4289988  72.5040272  70.5089666  41.6852476
  70.5330012  69.6654997  41.6969988  69.9712923  68.9986750  41.0428372
  70.3354134  69.4049521  42.7367940  69.9780012  71.0384997  41.4869988
  70.6540012  72.1364997  41.0459988  71.7138944  72.0069208  40.8270571
  69.8080012  73.2144997  40.9719988  70.0665417  74.1455851  40.6781684
  68.5550012  72.8224997  41.3599988  67.3740012  73.5514997  41.4479988
  67.3910957  74.6072960  41.1776277  66.2550012  72.8884997  41.8729988
  65.3105779  73.4265475  41.9546644  66.2930012  71.5304997  42.2069988
  65.3948457  71.0133569  42.5446073  67.4640012  70.8054997  42.1199988
  67.4424457  69.7517384  42.3978895  68.6240012  71.4554997  41.6879988
  72.6610012  68.5134997  42.3439988  73.0160012  68.8144997  43.4869988
  72.8010012  67.2814997  41.8569988  72.5007341  67.0768996  40.9146199
  73.3460012  66.1964997  42.6579988  74.0214011  66.6060508  43.4091326
  72.2360012  65.4154997  43.3709988  71.4640833  65.3289941  42.6063035
  72.6242063  64.4250102  43.6083326  71.6380012  66.0424997  44.6289988
  71.2323811  67.0232890  44.3807539  70.5290012  65.1604997  45.1799988
  70.9339809  64.1796191  45.4289235  70.1111984  65.6186761  46.0764451
  69.7455961  65.0499543  44.4302277  72.7140012  66.2784997  45.6739988
  73.4711918  66.9511403  45.2711137  72.2670261  66.7255657  46.5619438
  73.1773101  65.3284507  45.9401767  74.1480012  65.2504997  41.7779988
  73.7640012  64.9724997  40.6389988  75.2600012  64.7584997  42.3129988
  75.6144239  65.1052351  43.1929183  76.0230012  63.7364997  41.6179988
  76.1007730  63.9913852  40.5610768  77.4310012  63.6254997  42.1979988
  77.7939456  64.6180927  42.4647001  77.4094953  62.9959325  43.0875395
  78.6370012  62.9004997  41.0689988  75.3080012  62.3914997  41.7109988
  74.5340012  62.1294997  42.6339988  75.5730012  61.5314997  40.7289988
  76.1681716  61.7994772  39.9582462  74.9670012  60.2094997  40.7049988
  74.6954684  59.9181664  41.7196387  73.7050012  60.1884997  39.8349988
  73.9388049  60.5431325  38.8311708  73.2867071  59.1836550  39.7765406
  72.6190012  61.0744997  40.3599988  72.3340012  62.3424997  39.9529988
  72.9570261  62.7562569  39.1600645  71.2720012  62.8424997  40.6679988
  70.8645315  63.7595875  40.5539026  70.8540012  61.8914997  41.5619988
  69.8220012  61.9284997  42.4949988  69.2198305  62.8340554  42.5688762
  69.6280012  60.8164997  43.2659988  68.8310936  60.8096903  44.0096331
  70.4320012  59.6804997  43.1229988  70.2650216  58.7976324  43.7400585
  71.4590012  59.6414997  42.1989988  72.0547912  58.7317032  42.1254775
  71.6820012  60.7634997  41.3979988  75.9910012  59.2024997  40.2029988
  76.9050012  59.5384997  39.4469988  75.8210012  57.9574997  40.6349988
  75.0105611  57.7473106  41.1998942  76.7710012  56.8894997  40.3679988
  77.6985316  57.3079646  39.9772641  77.0850012  56.1204997  41.6559988
  76.1462031  55.8287326  42.1267742  77.6564943  55.2276831  41.4022779
  77.8860012  56.9434997  42.6429988  78.8080012  57.6594997  42.2629988
  77.5350012  56.8414997  43.9189988  78.0350810  57.3682754  44.6208017
  76.7694493  56.2375792  44.1822690  76.2190012  55.9434997  39.3129988
  75.0430012  55.9964997  38.9409988  77.0910012  55.0634997  38.8219988
  78.0744669  55.1271253  39.0430108  76.6530012  54.0084997  37.9159988
  76.0976728  54.4420045  37.0842637  77.8560012  53.2524997  37.3579988
  78.5651336  53.1080386  38.1730825  77.5102184  52.2821577  37.0016690
  78.5340012  53.9934997  36.2249988  77.8230012  54.6614997  35.4449988
  79.7750012  53.9044997  36.1129988  75.7200012  53.0524997  38.6459988
  76.0220012  52.5904997  39.7499988  74.5820012  52.7544997  38.0219988
  74.3792352  53.1915375  37.1343146  73.5860012  51.8624997  38.5949988
  74.0107887  51.2668466  39.4029914  72.3550012  52.6234997  39.1369988
  71.6392111  51.9023016  39.5314823  72.7640012  53.5874997  40.2409988
  73.4794828  54.3093389  39.8471268  71.8833085  54.1135852  40.6093937
  73.2226114  53.0311006  41.0584328  71.6520012  53.3624997  38.0129988
  71.3231428  52.6484947  37.2579152  70.7873416  53.8932663  38.4114335
  72.3399459  54.0772026  37.5612991  73.1620012  50.8534997  37.5359988
  73.3270012  51.0694997  36.3339988  72.6100012  49.7364997  38.0039988
  72.5162443  49.5844965  38.9980833  72.1800012  48.6824997  37.1029988
  72.9355634  48.5385663  36.3306594  72.0020012  47.3684997  37.8629988
  71.2418354  47.4942055  38.6340021  71.6903262  46.5868220  37.1702224
  72.9467139  47.0860157  38.3275629  70.8800012  49.0754997  36.4019988
  70.2290012  50.0694997  36.7369988  70.5070012  48.2724997  35.4089988
  71.0798338  47.4781275  35.1621487  69.3060012  48.5324997  34.6189988
  69.2673242  49.5799888  34.3200508  69.3060012  47.6674997  33.3639988
  69.3352982  46.6153606  33.6472746  68.4018912  47.8629499  32.7873840
  70.1808141  47.9047293  32.7585868  68.0700012  48.2624997  35.4689988
  67.8050012  47.1184997  35.8479988  67.3080012  49.3124997  35.7619988
  67.5787048  50.2390750  35.4648843  66.0760012  49.1634997  36.5099988
  65.3988803  49.9595999  36.2004330  65.6426787  48.1974588  36.2509695
  66.2640012  49.2324997  38.0089988  65.7560012  48.3844997  38.7489988
  66.9950012  50.2424997  38.4719988  67.4092258  50.8839978  37.8109409
  67.2530012  50.4504997  39.8909988  66.6574437  49.7510245  40.4776374
  68.7290012  50.2394997  40.2299988  68.8437768  50.2311658  41.3139071
  69.2300012  48.9244997  39.6579988  69.1159688  48.9322706  38.5740081
  70.2822378  48.7949492  39.9112059  68.6518086  48.1013321  40.0777476
  69.4990012  51.3164997  39.6829988  70.4263569  51.1864767  39.8944360
  66.8380012  51.8594997  40.2839988  66.9220012  52.7894997  39.4749988
  66.3930012  52.0114997  41.5299988  66.3022664  51.2006702  42.1253324
  65.9600012  53.3064997  42.0519988  65.8371837  54.0063244  41.2254031
  64.6320012  53.1914997  42.7949988  64.8616537  52.6872250  43.7336499
  64.3190007  54.2152215  43.0002408  63.4990012  52.4444997  42.0769988
  62.5951132  52.5753871  42.6719407  63.3674734  52.9239357  41.1069778
  63.7630012  50.9614997  41.8769988  64.1380012  50.2824997  42.8559988
  63.5890012  50.4754997  40.7369988  67.0650012  53.8534997  42.9489988
  67.2080012  53.4854997  44.1169988  67.8660012  54.7494997  42.3819988
  67.7650382  54.9991227  41.4085543  68.9500012  55.3524997  43.1389988
  69.5166674  54.5759427  43.6527573  69.8960012  56.1144997  42.2109988
  70.2603790  55.4330401  41.4422720  69.3473504  56.9310197  41.7415551
  70.9950012  56.6394997  42.9359988  71.5764067  57.1135537  42.3369661
  68.3940012  56.2814997  44.2159988  67.4820012  57.0794997  43.9809988
  68.9650012  56.1684997  45.4099988  69.7786831  55.5830370  45.5335081
  68.4180012  56.8434997  46.5759988  67.5623009  57.4513099  46.2819871
  67.9580012  55.8244997  47.6219988  68.8092413  55.1843908  47.8538394
  67.6667863  56.3783060  48.5145191  66.7950012  54.9694997  47.1559988
  67.1066481  54.4323390  46.2602112  66.5621816  54.2545864  47.9451731
  65.3240012  55.9394997  46.7829988  64.8740012  56.4574997  48.4349988
  65.6892262  57.0359046  48.8696882  63.9755050  57.0730397  48.3912304
  64.6826810  55.5796368  49.0521329  69.4730012  57.7704997  47.1619988
  70.6300012  57.3764997  47.3379988  69.0600012  58.9954997  47.4669988
  68.1158521  59.2737750  47.2406259  69.9490012  59.9864997  48.0609988
  70.6945990  59.4829661  48.6763336  70.6730012  60.7994997  46.9809988
  69.9321834  61.0454047  46.2201972  71.0230077  61.7159009  47.4561874
  71.8420012  60.0884997  46.3349988  72.5537606  59.8078770  47.1113686
  71.4800440  59.1911719  45.8331105  72.5500012  60.9554997  45.3219988
  72.1350012  62.0824997  45.0589988  73.6240012  60.4334997  44.7419988
  74.1354398  60.9708239  44.0565686  73.9247268  59.5014380  44.9888318
  69.1400012  60.8864997  48.9859988  67.9690012  60.6204997  49.2779988
  69.7760012  61.9604997  49.4469988  70.7472874  62.0797112  49.1970169
  69.1610012  62.9514997  50.3159988  68.1326137  62.6604906  50.5300834
  69.9220012  63.0694997  51.6399988  70.9437454  63.2683455  51.3165820
  69.5344814  63.9380334  52.1725188  69.9090012  61.8534997  52.5699988
  70.2532890  60.9801853  52.0160233  70.8200012  62.0864997  53.7659988
  70.4760470  62.9594405  54.3207678  70.7980654  61.2117613  54.4159621
  71.8395065  62.2554686  53.4193595  68.4950012  61.5314997  53.0239988
  67.8745345  61.3134715  52.1547553  68.5133132  60.6638558  53.6835138
  68.0814618  62.3858753  53.5598405  69.1340012  64.3004997  49.6099988
  70.0140012  64.6024997  48.7969988  68.1240012  65.1044997  49.9209988
  67.4272619  64.8283878  50.5980630  67.9680012  66.3894997  49.2549988
  68.0898897  66.2634210  48.1791983  66.5830012  66.9704997  49.5239988
  65.8223049  66.2393041  49.2505150  66.4893985  67.2127890  50.5825990
  66.2440012  68.4874997  48.6039988  69.0460012  67.3664997  49.7189988
  69.2480012  67.5314997  50.9289988  69.7500012  68.0254997  48.8019988
  69.6260012  67.9294997  47.3379988  68.5831275  68.0671427  47.0523955
  69.9657942  66.9475639  47.0086936  70.5100012  69.0364997  46.8429988
  69.9023617  69.9218238  46.6557170  70.9896549  68.7228764  45.9158127
  71.5220012  69.2864997  47.9069988  71.8099631  70.3373671  47.8777669
  72.4137469  68.6638163  47.8352034  70.7790012  68.9864997  49.2119988
  71.4182180  68.5109329  49.9558646  70.1650012  70.2454997  49.8029988
  69.0160012  70.5924997  49.5199988  70.9510012  70.9334997  50.6309988
  71.8654199  70.5666456  50.8531605  70.5070012  72.1484997  51.3129988
  69.4180474  72.1862986  51.3421548  71.0330012  72.1584997  52.7429988
  70.6317492  73.0401484  53.2427903  70.6578784  71.2607160  53.2342904
  72.5560012  72.1804997  52.8189988  73.2220012  72.1464997  51.7629988
  73.0880012  72.2394997  53.9479988  70.9180012  73.4074997  50.5389988
  71.6200012  74.2884997  51.0339988  70.4370012  73.4904997  49.2989988
  69.8600755  72.7546749  48.9171375  70.7770012  74.6184997  48.4399988
  71.7967014  74.9453533  48.6436584  70.6780012  74.2144997  46.9679988
  69.6609333  73.8543071  46.8132942  70.8401405  75.1113807  46.3701566
  71.6580012  73.1474997  46.5489988  72.8390012  72.9474997  47.2489988
  73.0512130  73.5743113  48.1151239  73.7380012  71.9744997  46.8649988
  74.6612095  71.8225786  47.4242019  73.4630012  71.1934997  45.7649988
  74.3530012  70.2214997  45.3769988  75.1278753  70.1753597  45.9418358
  72.3010012  71.3774997  45.0509988  72.0863659  70.7599152  44.1788625
  71.4070012  72.3484997  45.4439988  70.4843126  72.4987955  44.8835015
  69.8990012  75.8394997  48.6839988  70.4040012  76.9664997  48.7049988
  68.5970012  75.6434997  48.8679988  68.2412939  74.7005812  48.9349060
  67.6480012  76.7434997  48.9209988  68.1877544  77.6904333  48.9300763
  66.7140012  76.7234997  47.7049988  65.9048630  76.0088551  47.8555901
  66.2953404  77.7167980  47.5431913  67.3990012  76.3334997  46.4289988
  68.1970012  77.2384997  45.7519988  68.3241936  78.2429044  46.1558467
  68.8290012  76.8814997  44.5769988  69.4517120  77.6040646  44.0495219
  68.6710012  75.6074997  44.0709988  69.1699048  75.3217265  43.1449702
  67.8800012  74.6944997  44.7389988  67.7520338  73.6879060  44.3408861
  67.2510012  75.0574997  45.9119988  66.6291566  74.3365225  46.4426599
  66.8420012  76.6794997  50.2109988  66.8110012  75.6604997  50.9059988
  66.1860012  77.8004997  50.5249988  66.2430732  78.6136670  49.9286759
  65.4330012  77.9074997  51.7709988  66.0619585  77.6236684  52.6147711
  64.9660012  79.3484997  51.9729988  64.4134620  79.6373297  51.0789199
  64.2946535  79.3531210  52.8317019  66.0990012  80.3364997  52.2099988
  65.6928750  81.2101831  52.7197434  66.8506878  79.8642490  52.8424927
  66.7630012  80.7904997  50.9249988  66.2090012  80.6324997  49.8369988
  67.9590012  81.3534997  51.0449988  68.4474710  81.6747489  50.2214105
  68.3750981  81.4580646  51.9593460  64.2520012  76.9444997  51.7969988
  63.9940012  76.2934997  52.8159988  63.5160012  76.8404997  50.6869988
  63.6796358  77.4298499  49.8832642  62.4010012  75.9004997  50.6399988
  61.7577802  76.0477382  51.5075740  61.5700012  76.1154997  49.3729988
  60.8406585  75.3080122  49.3087925  61.0491145  77.0678688  49.4718426
  62.4150012  76.1314997  48.1199988  63.6570012  76.1444997  48.2399988
  61.8400012  76.1304997  47.0109988  62.8750012  74.4564997  50.7119988
  62.0930012  73.5744997  51.0809988  64.1330012  74.2004997  50.3669988
  64.7109701  74.9308851  49.9763731  64.7020012  72.8714997  50.5039988
  63.9862640  72.1262558  50.1569669  65.9790012  72.7464997  49.6729988
  66.5305886  73.6864782  49.6900561  66.6063655  71.9503630  50.0738483
  65.7370012  72.4164997  48.2279988  64.4920012  72.6084997  47.6559988
  63.6787798  73.0008938  48.2665704  64.2740012  72.3084997  46.3259988
  63.2896527  72.4671768  45.8855668  65.3030012  71.8074997  45.5539988
  65.1348334  71.5671951  44.5042020  66.5460012  71.6114997  46.1149988
  67.3604835  71.2156461  45.5083535  66.7600012  71.9154997  47.4419988
  67.7442843  71.7620182  47.8844126  65.0070012  72.5774997  51.9739988
  65.1780012  73.4814997  52.7959988  65.0710012  71.2864997  52.2979988
  64.7591016  70.5813330  51.6456508  65.5130012  70.8594997  53.6149988
  66.3310385  71.5029374  53.9388846  64.3890012  70.9324997  54.6579988
  64.8151801  70.6631255  55.6243881  64.0428448  71.9655968  54.6894008
  63.2140012  70.0124997  54.3469988  63.2140012  69.3314997  53.3029988
  62.2750012  69.9684997  55.1689988  66.0830012  69.4494997  53.5419988
  65.6780012  68.6774997  52.6619988  67.0560012  69.1154997  54.3829988
  68.1320012  70.0794997  54.6629988  67.7289152  70.9174692  55.2317070
  68.5453281  70.4444973  53.7227666  69.1310012  69.2674997  55.4549988
  69.1712542  69.6727919  56.4660462  70.1069539  69.3754037  54.9817396
  68.6900012  67.8244997  55.4569988  68.2989434  67.5608572  56.4396816
  69.4974853  67.1416967  55.1927090  67.5720012  67.7414997  54.4119988
  67.9344446  67.5101235  53.4104010  66.5390012  66.7064997  54.8279988
  65.3930012  67.0414997  55.1469988  66.9560012  65.4384997  54.8229988
  67.7976378  65.2452667  54.2991589  66.2420012  64.3144997  55.4269988
  66.8756912  63.4278907  55.4055349  65.8680012  64.6144997  56.8839988
  66.7836059  64.7730010  57.4537746  65.2632829  65.5210124  56.9095032
  65.1370012  63.5434997  57.4539988  64.9156530  63.7555677  58.3637416
  64.9980012  63.8754997  54.6549988  63.9920012  63.5084997  55.2709988
  65.0250012  63.9014997  53.3239988  65.7185080  64.4543511  52.8407775
  64.0440012  63.1734997  52.5279988  63.5918691  62.4048524  53.1547820
  62.9300012  64.0734997  51.9749988  62.2079123  63.4197365  51.4858355
  62.4595830  64.5576567  52.8308017  63.4000012  65.1254997  50.9969988
  64.2099314  64.6921470  50.4102115  62.5701485  65.3798845  50.3376566
  63.8900012  66.3664997  51.6859988  64.7080012  66.2284997  52.6119988
  63.4540012  67.4714997  51.3129988  64.7570012  62.4874997  51.3709988
  65.9730012  62.6054997  51.2079988  63.9780012  61.7714997  50.5669988
  62.9803384  61.7390734  50.7210015  64.5340012  60.9774997  49.4849988
  65.5636349  60.7041692  49.7157456  63.7200012  59.6984997  49.2959988
  62.7976708  59.9797968  48.7877884  64.3036848  59.0415005  48.6511999
  63.3830012  58.9684997  50.5949988  62.7104064  59.5978182  51.1778156
  62.8795817  58.0350134  50.3434549  64.6380012  58.6654997  51.4169988
  65.0514458  57.7159133  51.0772220  65.3637055  59.4600510  51.2433878
  64.3260012  58.5794997  52.9059988  63.3824936  58.0463266  53.0227057
  65.1243944  58.0134061  53.3857961  64.2190012  59.9214997  53.5409988
  63.4789609  60.4460585  53.0968388  64.0121289  59.8134328  54.5236612
  65.0933142  60.4155497  53.4333407  64.5760012  61.7704997  48.1789988
  63.7370012  62.6324997  47.9109988  65.5820012  61.4564997  47.3629988
  66.3147441  60.8547634  47.7109939  65.6980012  61.9734997  45.9979988
  64.8193019  62.5661431  45.7435179  66.9460012  62.8364997  45.7939988
  67.8284642  62.2616957  46.0749947  67.0580012  63.2554997  44.3449988
  66.1760495  63.8307855  44.0633810  67.9491197  63.8688246  44.2114290
  67.1296609  62.3692706  43.7144715  66.8990012  64.0594997  46.6919988
  66.8534618  63.7440104  47.7343494  67.7937722  64.6615752  46.5339182
  66.0159698  64.6523346  46.4534547  65.7180012  60.7444997  45.0919988
  66.6890012  59.9814997  45.0789988  64.6450012  60.5474997  44.3339988
  63.9302355  61.2595156  44.2866402  64.4370012  59.3094997  43.5939988
  65.0400779  58.5104537  44.0251869  62.9660012  58.8964997  43.6509988
  62.3636819  59.6646477  43.1659624  62.7570012  57.5694997  42.9449988
  63.3586868  56.8007051  43.4297965  61.7041346  57.2920701  42.9960273
  63.0578567  57.6612509  41.9013665  62.5590012  58.7694997  45.0219988
  61.6354243  58.5101841  45.0588994  64.8770012  59.4614997  42.1439988
  64.4890012  60.4164997  41.4639988  65.6910012  58.5154997  41.6789988
  66.1008342  57.8703646  42.3392540  66.0500012  58.3864997  40.2749988
  65.5269199  59.1513246  39.7009535  67.5570012  58.5534997  40.0539988
  68.0599460  58.0687812  40.8907746  67.8057746  58.0319708  39.1297588
  68.0130012  59.9974997  39.9579988  67.2135704  60.5850415  39.5065500
  68.2110241  60.3669624  40.9641728  69.2710012  60.1234997  39.1159988
  69.7321907  61.0895574  39.3212684  69.9591297  59.3260430  39.3964297
  68.9530012  60.0194997  37.6359988  68.4865542  59.0518116  37.4513164
  68.2536628  60.8146069  37.3774846  70.1790012  60.1464997  36.8009988
  70.8269766  59.4095703  37.0400858  69.9305751  60.0727938  35.8248062
  70.6111398  61.0432880  36.9716619  65.6010012  57.0234997  39.7669988
  65.5700012  56.0444997  40.5169988  65.2490012  56.9674997  38.4849988
  65.3098665  57.8059466  37.9251760  64.7280012  55.7584997  37.8629988
  64.7577043  54.9206148  38.5595373  63.2850012  55.9554997  37.3579988
  63.3024900  56.5965663  36.4766203  62.6590012  54.6184997  36.9989988
  62.6407387  53.9770102  37.8800540  61.6405332  54.7770818  36.6444915
  63.2459832  54.1408402  36.2145290  62.4430012  56.6854997  38.4069988
  62.9530042  57.6203940  38.6393135  61.4760509  56.9027423  37.9532231
  62.2360012  55.8944997  39.6799988  63.2025547  55.6772645  40.1346227
  61.6305034  56.4759418  40.3752661  61.7256031  54.9596111  39.4485315
  65.6480012  55.3594997  36.7189988  66.1360012  56.2144997  35.9719988
  65.8910012  54.0604997  36.5919988  65.5524830  53.4402632  37.3136715
  66.6690012  53.4914997  35.5029988  66.8460874  54.2539794  34.7444710
  68.0210012  52.9764997  36.0039988  68.5469683  53.7788765  36.5213471
  67.8618778  52.1451417  36.6907475  69.1270012  52.3774997  34.7029988
  65.8690012  52.3734997  34.8379988  64.8010012  51.9794997  35.3129988
  66.3700012  51.7294997  33.6409988  67.3024550  51.9105917  33.2977279
  65.4970012  50.8534997  32.8529988  64.9191081  50.2175430  33.5235940
  64.5210012  51.6734997  31.9899988  63.8391848  50.9897141  31.4843675
  63.9543961  52.3245352  32.6557401  65.2450012  52.5104997  30.9649988
  65.9660012  51.8854997  30.1099988  65.0730012  53.7764997  31.0209988
  66.3960012  49.9604997  32.0319988  67.5850012  49.9264997  32.2559988
  65.8350012  49.1584997  30.9559988  64.9100219  49.3206538  30.5842209
  66.6330012  48.0724997  30.3829988  67.5985215  48.0255935  30.8866563
  66.1082861  47.1263503  30.5155734  66.7870083  48.2560719  29.3196630
  70.4810012  55.3264997  28.9649988  70.6726686  55.8876083  29.7826305
  70.3448971  55.9404067  28.1746228  71.1620646  54.5823513  28.9150451
  69.1990012  54.6624997  29.1619988  68.5056730  54.9584042  28.3747023
  69.3690012  53.1414997  29.1179988  68.3972593  52.6733556  29.2750280
  69.7509229  52.8639474  28.1355526  70.3300012  52.6294997  30.1739988
  69.9140012  52.1814997  31.2419988  71.6220012  52.6894997  29.8779988
  72.3055979  52.3618302  30.5454027  71.9159399  53.0625645  28.9866383
  68.5560012  55.0874997  30.4789988  67.9800012  54.2694997  31.1949988
  68.6510012  56.3744997  30.7859988  69.1787681  56.9946139  30.1884875
  68.0810012  56.9164997  32.0129988  68.2600883  56.2291766  32.8398083
  68.7220012  58.2594997  32.3479988  69.0262806  58.7684537  31.4334065
  68.0160769  58.8854403  32.8938644  69.9480012  58.1474997  33.2049988
  71.2170012  58.5174997  32.8689988  71.3606766  58.9376128  31.8735280
  72.0750012  58.2654997  33.9129988  73.0674791  58.4527663  33.9172663
  71.3640012  57.7204997  34.9489988  71.7910012  57.3014997  36.2099988
  72.8464603  57.4000653  36.4637496  70.8460012  56.7884997  37.0549988
  71.1425823  56.4492132  38.0474827  69.5030012  56.6874997  36.6769988
  68.7594007  56.2759636  37.3594912  69.0780012  57.1054997  35.4289988
  68.0195139  57.0118441  35.1862355  70.0200012  57.6314997  34.5389988
  66.5630012  57.0264997  31.8649988  65.9720012  56.6174997  30.8619988
  65.9140012  57.5904997  32.8809988  66.4353597  57.9156539  33.6825967
  64.4570012  57.7094997  32.9069988  64.0089608  56.8485610  32.4108701
  63.9470012  57.7644997  34.3419988  64.1463698  56.8201367  34.8484867
  64.4352626  58.5758603  34.8818087  62.4700012  58.0054997  34.4489988
  61.5670012  57.0884997  33.9409988  61.9391868  56.1846837  33.4586147
  60.2070012  57.3084997  34.0399988  59.5062322  56.5780473  33.6356932
  59.7350012  58.4534997  34.6509988  58.6625065  58.6305452  34.7316835
  60.6260012  59.3744997  35.1599988  60.2567505  60.2799328  35.6416054
  61.9860012  59.1504997  35.0599988  62.6894181  59.8785180  35.4640949
  64.0420012  58.9514997  32.1309988  64.0580012  60.0724997  32.6459988
  63.6560012  58.7504997  30.8719988  63.7745746  57.8472796  30.4358415
  63.1110012  59.8364997  30.0719988  63.7093492  60.7362010  30.2155827
  63.1270012  59.4704997  28.5859988  62.5638099  58.5444123  28.4707730
  62.6223353  60.2716269  28.0459918  64.5300012  59.2844997  28.0229988
  65.0540635  60.2373134  28.0978687  65.0429979  58.5395005  28.6312032
  64.5120012  58.8284997  26.5709988  65.5220570  58.5351111  26.2849755
  63.8462330  57.9699242  26.4832465  64.0520012  59.8724997  25.6589988
  63.8763395  60.7871519  26.0497079  63.8550012  59.6904997  24.3579988
  64.0770012  58.5034997  23.8109988  64.3965223  57.7374632  24.3864937
  63.9255928  58.3706743  22.8212854  63.4340012  60.6944997  23.6019988
  63.2632880  61.5988509  24.0180589  63.2858471  60.5505783  22.6133453
  61.6990012  60.1464997  30.5519988  60.7330012  59.5144997  30.1099988
  61.5770012  61.1114997  31.4599988  62.3796702  61.6550257  31.7435497
  60.3000012  61.3794997  32.1039988  59.8984107  60.4608537  32.5316831
  60.4810012  62.4024997  33.2259988  60.8161334  61.8893556  34.1273693
  61.2135805  63.1594064  32.9457849  59.2270012  63.1344997  33.5909988
  58.1330012  62.5084997  34.1489988  58.0797259  61.5208785  34.3536105
  57.1820012  63.3994997  34.3679988  56.2293503  63.0983032  34.8037005
  57.6210012  64.5824997  33.9779988  58.9010012  64.4454997  33.4939988
  59.4419170  65.3185004  33.1287851  59.2830012  61.8844997  31.0819988
  59.5910012  62.7734997  30.2809988  58.0700012  61.3364997  31.0799988
  57.5920012  60.2284997  31.9239988  57.8624065  60.4169216  32.9629783
  58.0472164  59.2946106  31.5942573  56.1120012  60.2514997  31.7019988
  55.6423568  60.9085611  32.4339847  55.7103388  59.2438219  31.8085553
  55.9180012  60.7584997  30.3099988  54.9637834  61.2824964  30.2552725
  55.9475469  59.9781625  29.5495380  57.0680012  61.7464997  30.0899988
  57.5072887  61.6505825  29.0970614  56.6150012  63.1834997  30.3069988
  56.9220012  63.8254997  31.3139988  55.8930012  63.6864997  29.3009988
  55.7639394  63.0903236  28.4960040  55.3520012  65.0444997  29.2519988
  54.7199777  65.1136107  28.3666349  54.4970012  65.3444997  30.4889988
  55.1180637  65.2880721  31.3829771  54.0730419  66.3450934  30.4043174
  53.6912513  64.6138939  30.5602836  56.4580012  66.0824997  29.1039988
  56.1840012  67.2754997  28.9519988  57.7160012  65.6384997  29.1539988
  57.9009666  64.6900909  29.4479511  58.8500012  66.5014997  28.8519988
  58.5170908  67.3509177  28.2555435  59.4880012  67.0294997  30.1439988
  60.4142487  67.5458732  29.8919611  58.7983803  67.7303106  30.6145167
  59.7680012  65.9684997  31.0409988  60.1656821  66.3216776  31.8401952
  59.9220012  65.8204997  28.0159988  60.7770012  66.5244997  27.4689988
  59.9040012  64.4914997  27.8889988  59.1667344  63.9724721  28.3441333
  60.9530012  63.7424997  27.1929988  60.8237164  62.6765968  27.3807104
  60.8950012  63.9834997  25.6839988  59.8847073  64.2931898  25.4166083
  61.5974488  64.7764469  25.4272847  61.2490012  62.7464997  24.8859988
  62.2360012  62.0724997  25.1749988  60.4450012  62.4424997  23.8769988
  60.6350834  61.6273594  23.3117423  59.6459890  63.0273979  23.6780655
  62.3300012  64.0894997  27.7529988  63.2970012  64.2854997  27.0149988
  62.4160012  64.1624997  29.0809988  61.6079490  63.9239484  29.6379946
  63.6200012  64.5984997  29.7659988  64.4206371  64.7311038  29.0383330
  63.3990012  65.9284997  30.4999988  62.5349758  65.7954866  31.1510494
  64.2859019  66.1108250  31.1068468  63.1630012  67.1104997  29.5839988
  62.3765194  66.8569726  28.8731744  62.8493223  67.9659060  30.1823195
  64.4290012  67.4584997  28.8319988  64.7140174  66.6110640  28.2085266
  64.2376447  68.3257449  28.2000432  65.5360012  67.7704997  29.7319988
  66.1673976  67.0179760  29.9668307  65.7630012  68.9744997  30.2499988
  66.7950012  69.1664997  31.0589988  67.4088148  68.3958026  31.2811675
  66.9629172  70.0826339  31.4496417  64.9610012  69.9864997  29.9529988
  64.1775002  69.8406710  29.3325470  65.1368540  70.8990868  30.3484215
  64.0700012  63.5494997  30.7709988  63.2530012  62.8394997  31.3649988
  65.3840012  63.4604997  30.9559988  66.0118255  63.9326912  30.3211988
  65.9600012  62.6624997  32.0319988  65.4214567  61.7189614  32.1203428
  67.4270012  62.3614997  31.7569988  67.7727487  61.6038007  32.4601710
  67.6050012  61.8514997  30.3339988  67.2598760  62.6088964  29.6301959
  68.6588466  61.6406398  30.1522104  67.0239306  60.9392183  30.1990904
  68.2030012  63.5534997  31.9279988  69.1273430  63.3612552  31.7541177
  65.7890012  63.4454997  33.3289988  66.6730012  64.2034997  33.7329988
  64.6450012  63.2634997  33.9819988  64.0071359  62.5470805  33.6658171
  64.2470012  64.0924997  35.1069988  64.9597531  64.9078910  35.2303718
  62.8500012  64.6914997  34.8799988  62.8792446  65.4546320  34.1022629
  62.1737666  63.8916586  34.5782352  62.2420012  65.3334997  36.0869988
  62.4320012  66.6134997  36.5169988  63.1032725  67.2371678  35.9266323
  61.6980012  66.8434997  37.6559988  61.6743668  67.7093384  38.1754834
  61.0060012  65.7054997  37.9749988  60.1350012  65.4504997  39.0309988
  59.9369007  66.2489984  39.7460195  59.5790012  64.2034997  39.1039988
  58.8902646  63.9680692  39.9153645  59.8750012  63.2144997  38.1549988
  59.4279218  62.2227496  38.2231997  60.7400012  63.4654997  37.1069988
  60.9404671  62.6624655  36.3977384  61.3220012  64.7324997  37.0069988
  64.2720012  63.2784997  36.3909988  63.9080012  62.0984997  36.4109988
  64.7100012  63.9264997  37.4689988  64.9944785  64.8897631  37.3627183
  64.8400012  63.3104997  38.7779988  64.6868228  62.2338530  38.7040561
  66.2360012  63.5684997  39.3639988  66.4251234  64.6419275  39.3547386
  66.3370012  63.0494997  40.7869988  66.1484437  61.9759794  40.7969997
  67.3361116  63.2460211  41.1759163  65.5990695  63.5533130  41.4112820
  67.2220012  62.9154997  38.5549988  68.0945209  63.0768689  38.9214269
  63.7640012  63.8584997  39.7039988  63.4560012  65.0544997  39.6719988
  63.1960012  62.9794997  40.5299988  63.5133127  62.0206423  40.5277018
  62.0760012  63.3374997  41.4009988  61.3478495  63.9271109  40.8439952
  61.3880012  62.0824997  41.9249988  61.4733204  61.2966680  41.1744733
  61.8892316  61.7664150  42.8398532  59.9200012  62.3044997  42.2289988
  59.5660012  63.0994997  43.0989988  59.0540012  61.5994997  41.5079988
  58.0625975  61.7073349  41.6679681  59.3913609  60.9592158  40.8034949
  62.5770012  64.2164997  42.5439988  62.9590012  63.7494997  43.6189988
  62.5760012  65.5234997  42.2959988  62.3724461  65.8429367  41.3597164
  62.9080012  66.5174997  43.3079988  63.5289155  66.0662951  44.0819361
  63.6800012  67.6794997  42.6769988  63.2140127  67.8887950  41.7141128
  63.5514832  68.5378019  43.3364686  65.1540012  67.4154997  42.4759988
  65.6170012  66.8144997  41.3149988  64.8992690  66.5313942  40.5450563
  66.9630012  66.5734997  41.1259988  67.3125196  66.1007913  40.2081287
  67.8640012  66.9334997  42.0999988  69.2050012  66.6924997  41.9129988
  69.3967204  66.2714828  41.0718161  67.4300012  67.5324997  43.2619988
  68.1432499  67.8181098  44.0351764  66.0830012  67.7704997  43.4439988
  65.7323611  68.2450603  44.3604833  61.6780012  67.0594997  44.0239988
  61.8080012  67.9954997  44.8199988  60.4980012  66.4994997  43.7539988
  60.4530547  65.6985909  43.1403016  59.2480012  67.0434997  44.2739988
  59.1513930  68.0951613  44.0042323  58.0620012  66.2784997  43.6889988
  57.1368994  66.7471097  44.0246945  58.1160012  66.2954997  42.1699988
  59.0406745  65.8266060  41.8335205  57.2640021  65.7461682  41.7694594
  58.0821063  67.3259338  41.8162230  58.0930012  64.9214997  44.1459988
  57.3471034  64.4425957  43.7773690  59.1640012  67.0154997  45.7939988
  58.4250012  67.8224997  46.3649988  59.8950012  66.1224997  46.4589988
  60.4918930  65.4843323  45.9524794  59.8120012  65.9884997  47.9059988
  58.7981209  66.2064691  48.2416106  60.1710012  64.5594997  48.3279988
  61.0491399  64.2665756  47.7525276  60.4259079  64.5927565  49.3872516
  59.0580012  63.5454997  48.1059988  59.3253576  62.6191945  48.6145065
  58.1357049  63.9402143  48.5322287  58.8230012  63.2424997  46.6389988
  57.7340012  63.4694997  46.1129988  59.8470012  62.7254997  45.9719988
  59.7470157  62.5038935  44.9916952  60.7216930  62.5559718  46.4476834
  60.6950012  66.9744997  48.6589988  60.6330012  67.0174997  49.8909988
  61.5140012  67.7614997  47.9569988  61.6101563  67.6667680  46.9560595
  62.3520012  68.7394997  48.6429988  62.8066967  68.2858050  49.5236305
  63.4640012  69.2274997  47.7159988  63.0301449  69.5720979  46.7773188
  63.9995953  70.0492188  48.1914108  64.7260012  67.9934997  47.3489988
  61.5420012  69.9184997  49.1629988  61.8460012  70.4534997  50.2349988
  60.5140012  70.3394997  48.4259988  60.3029824  69.9012974  47.5408156
  59.7090012  71.4814997  48.8409988  59.9675199  71.7573880  49.8633259
  59.9560012  72.6854997  47.9329988  59.1787598  73.4281628  48.1131280
  60.9290742  73.1125271  48.1756436  59.9420012  72.3174997  46.4669988
  59.7470012  71.1564997  46.1099988  60.1470012  73.3054997  45.6049988
  60.1477539  73.1143067  44.6132607  60.3013192  74.2440649  45.9446781
  58.2260012  71.1384997  48.8599988  57.3780012  72.0314997  48.7599988
  57.8940012  69.8524997  48.9879988  58.5976855  69.1280697  48.9766455
  56.4930012  69.4544997  49.0689988  55.8588477  69.9848022  48.3585569
  56.3490012  67.9414997  48.8229988  56.8551647  67.6881488  47.8914887
  56.9610012  67.1434997  49.9659988  56.4550089  67.3959883  50.8978369
  56.8462338  66.0777873  49.7680440  58.0205541  67.3845756  50.0516240
  54.8880012  67.5624997  48.6119988  54.4946261  68.0971387  47.7474068
  54.8117912  66.4888323  48.4401553  54.3111802  67.8300823  49.4973111
  55.8700012  69.8394997  50.4039988  54.6520012  70.0454997  50.4759988
  56.6720012  69.9674997  51.4569988  57.6614927  69.8110817  51.3283940
  56.1870012  70.2524997  52.7999988  55.1031080  70.3664979  52.7832870
  56.5430012  69.1154997  53.7529988  57.6244960  68.9796369  53.7499144
  56.2139931  69.3845309  54.7567297  55.8890012  67.8044997  53.3639988
  56.3700012  66.7284997  53.7169988  54.7840012  67.8904997  52.6329988
  54.3059550  67.0487248  52.3449246  54.4265425  68.7973008  52.3683558
  56.7400012  71.5774997  53.3109988  57.1240012  71.7064997  54.4749988
  56.7880012  72.5834997  52.4359988  56.5057620  72.4521252  51.4751756
  57.3090012  73.8854997  52.8309988  58.1748867  73.7658435  53.4821699
  57.7320012  74.6854997  51.5969988  58.4404899  74.0937599  51.0173541
  56.5240012  75.0164997  50.7349988  55.8152270  75.6086643  51.3138596
  56.8446457  75.5854979  49.8623435  56.0449094  74.0929597  50.4099672
  58.3690012  75.9014997  52.0089988  58.6338807  76.4024437  51.2340831
  56.3060012  74.6924997  53.6449988  56.6820012  75.7184997  54.2229988
  55.0460012  74.2624997  53.7029988  54.7695703  73.4453777  53.1776446
  54.0250012  74.9764997  54.4569988  54.3938738  75.9634153  54.7363366
  52.7570012  75.1484997  53.6109988  52.4687744  74.2021613  53.1533217
  51.9437492  75.5096248  54.2405302  52.9060012  76.1354997  52.4959988
  53.3320012  75.7764997  51.2349988  53.5736933  74.8359378  50.9574594
  53.3710012  76.8484997  50.4629988  53.6800405  76.7720576  49.4205256
  52.9920012  77.8904997  51.1799988  52.6970012  77.4724997  52.4549988
  52.3647583  78.1936287  53.2017844  53.6520012  74.3164997  55.7729988
  53.2540012  75.0194997  56.7039988  53.7610012  72.9914997  55.8819988
  53.9696663  72.3970915  55.0925450  53.4890012  72.3624997  57.1669988
  52.7232712  72.9270878  57.6989736  52.9900012  70.9264997  56.9689988
  52.7499484  70.5502833  57.9634509  52.0762700  71.0027661  56.3796102
  53.9560012  69.9704997  56.2849988  53.3816751  69.2042306  55.7643432
  54.5228115  70.5544655  55.5598719  54.9130012  69.3094997  57.2609988
  54.6110012  69.2914997  58.4739988  55.9570012  68.7884997  56.8189988
  54.7030012  72.3804997  58.0849988  54.5720012  72.0414997  59.2659988
  55.8720012  72.7694997  57.5749988  55.9485303  72.9073037  56.5773752
  57.0680012  72.9374997  58.3889988  56.9075825  72.5030388  59.3757149
  58.2610012  72.2394997  57.7359988  57.9822563  71.1971617  57.5812989
  58.4280983  72.7174779  56.7707447  59.5340012  72.3054997  58.5599988
  59.6993414  73.3390650  58.8641470  59.4089414  71.6823075  59.4454894
  60.7300012  71.8154997  57.7609988  60.5219530  70.8043613  57.4111215
  60.8675650  72.4748458  56.9040050  61.9930012  71.8094997  58.6019988
  62.8415783  71.6196354  57.9447553  62.1030848  72.7914471  59.0621726
  61.9450012  70.7674997  59.6629988  61.8434302  69.8574876  59.2367816
  62.7999818  70.7942282  60.2000218  61.1590097  70.9434945  60.2723774
  57.3960012  74.4024997  58.6429988  58.3520012  74.6954997  59.3679988
  56.6310012  75.3274997  58.0649988  55.9730813  75.0702586  57.3431485
  56.7870012  76.7404997  58.3859988  57.7809830  76.9732475  58.7680036
  56.5110012  77.6304997  57.1519988  57.0558947  77.2234202  56.3002496
  55.0250012  77.6764997  56.8279988  54.4794598  78.0839294  57.6791666
  54.8621836  78.3097666  55.9558956  54.6673506  76.6687996  56.6165081
  57.0660012  79.0324997  57.3659988  58.1426520  78.9769990  57.5267614
  56.8614866  79.6429580  56.4864454  56.5916501  79.4823936  58.2381727
  55.9030012  77.1534997  59.5579988  56.2640012  78.0874997  60.2909988
  54.7670012  76.4864997  59.7639988  54.4120936  75.8597762  59.0559326
  53.9700012  76.6934997  60.9649988  53.9448162  77.7535746  61.2173994
  52.5330012  76.2104997  60.7339988  52.1670115  76.7376124  59.8529182
  52.5956919  75.1438239  60.5186554  51.5730012  76.4384997  61.8979988
  51.9459563  75.8855803  62.7601388  51.5628073  77.5041009  62.1271106
  50.1600012  75.9764997  61.5719988  49.7985163  76.5444321  60.7147471
  50.1914408  74.9169484  61.3181049  49.2220012  76.1874997  62.7519988
  49.6066111  75.6212694  63.6002671  49.2149669  77.2493969  62.9978116
  47.8360012  75.7404997  62.4449988  47.8422372  74.7564479  62.2176157
  47.2459762  75.8963649  63.2497824  47.4792708  76.2653578  61.6592720
  54.5860012  76.0004997  62.1749988  54.5150012  76.5244997  63.2919988
  55.1960012  74.8304997  61.9699988  55.1364335  74.3593083  61.0786348
  55.9130012  74.1704997  63.0539988  55.2779405  74.0964947  63.9367901
  56.3260012  72.7614997  62.6299988  57.0294338  72.8341760  61.8005406
  56.9810012  72.0244997  63.7859988  56.2779656  71.9510181  64.6157222
  57.2676692  71.0235045  63.4636181  57.8679311  72.5695055  64.1091465
  55.1690012  72.0324997  62.2029988  55.4286929  71.1474822  61.9367197
  57.1290012  74.9824997  63.4769988  57.4360012  75.0784997  64.6709988
  57.8290012  75.5824997  62.5119988  57.5797642  75.4310113  61.5450285
  58.9940012  76.4074997  62.8039988  59.6842903  75.8045684  63.3939768
  59.6880012  76.8134997  61.5049988  59.0123841  77.4254887  60.9074112
  60.5868618  77.3851601  61.7359840  59.9606232  75.9199398  60.9434587
  58.6550012  77.6494997  63.6129988  59.5630012  78.2474997  64.1979988
  57.3910012  78.0544997  63.6559988  56.7105591  77.6152765  63.0525246
  56.9550012  79.1604997  64.4989988  57.8222888  79.7161293  64.8556316
  56.0490012  80.1184997  63.7079988  55.5004745  79.4346916  63.0602146
  55.3577069  80.5890664  64.4071263  56.7260012  81.1974997  62.8549988
  55.9635793  81.7471683  62.3030221  57.5020012  82.1604997  63.7439988
  58.2649656  81.6115966  64.2959856  57.9782812  82.9221331  63.1266069
  56.8188834  82.6379115  64.4465146  57.6310012  80.6104997  61.7819988
  57.0435845  79.9774699  61.1169315  58.0849339  81.4178067  61.2072800
  58.4137528  80.0150943  62.2519895  56.2320012  78.7004997  65.7529988
  56.3450012  79.3524997  66.7939988  55.4830012  77.5974997  65.6839988
  55.2828188  77.1534738  64.7992008  54.8800012  77.0404997  66.8889988
  54.2985393  77.8066494  67.4018495  53.9510012  75.8824997  66.5279988
  54.4970415  75.1779908  65.9006182  53.6392004  75.3845666  67.4461180
  52.7150012  76.3384997  65.7809988  52.6180012  77.4934997  65.3649988
  51.7610012  75.4324997  65.6059988  50.9150107  75.6829448  65.1143920
  51.8854145  74.4967818  65.9652398  55.9520012  76.5834997  67.8689988
  55.8650012  76.8504997  69.0729988  56.9770012  75.8944997  67.3679988
  56.9682409  75.5811440  66.4078786  58.1060012  75.5174997  68.2069988
  57.7487822  75.0781819  69.1383922  58.9750012  74.4894997  67.4839988
  59.0405938  74.8675090  66.4637509  59.9667017  74.4921350  67.9363517
  58.4280012  73.0614997  67.4639988  57.5788689  73.0202314  66.7818168
  59.4930012  72.0804997  67.0059988  60.3423184  72.1208654  67.6880029
  59.0800961  71.0717506  67.0000397  59.8220646  72.3437845  66.0007631
  57.9000012  72.6724997  68.8339988  57.0989603  73.3533088  69.1219778
  57.5151196  71.6532900  68.7996598  58.7064744  72.7313446  69.5649141
  58.9490012  76.7154997  68.6179988  59.6150012  76.6554997  69.6549988
  58.9350012  77.7934997  67.8349988  58.4833875  77.7470771  66.9327852
  59.5960012  79.0344997  68.2129988  60.5331716  78.8144907  68.7242784
  59.9020012  79.8734997  66.9709988  60.7595980  79.4600640  66.4402466
  59.0379468  79.8904489  66.3067527  60.2350012  81.3004997  67.2769988
  61.4540012  81.6334997  67.8349988  62.1753581  80.8454829  68.0512709
  61.7620012  82.9454997  68.1179988  62.7273606  83.1965662  68.5574841
  60.8480012  83.9424997  67.8449988  61.0907638  84.9810842  68.0697393
  59.6300012  83.6254997  67.2889988  58.9055339  84.4105238  67.0722399
  59.3270012  82.3104997  67.0059988  58.3636780  82.0561550  66.5639385
  58.7800012  79.8694997  69.1859988  59.3510012  80.4614997  70.1069988
  57.4590012  79.9394997  68.9989988  57.0295249  79.5816247  68.1578240
  56.6070012  80.5904997  69.9869988  56.9708442  81.5991992  70.1825559
  55.1700012  80.6804997  69.4739988  54.8901137  79.6812903  69.1403181
  54.5449618  80.9691612  70.3190433  54.9720012  81.6634997  68.3419988
  55.9380012  82.6154997  68.0429988  56.8505254  82.6455402  68.6383949
  55.7570012  83.5154997  67.0099988  56.5231436  84.2576466  66.7856204
  54.6000012  83.4714997  66.2619988  54.4150012  84.3644997  65.2319988
  55.1518159  84.9703195  65.1238970  53.6260012  82.5364997  66.5399988
  52.7106914  82.5017000  65.9491540  53.8150012  81.6404997  67.5739988
  53.0488364  80.8986185  67.7991742  56.6510012  79.8444997  71.3129988
  56.5790012  80.4574997  72.3849988  56.7590012  78.5164997  71.2569988
  56.7395912  78.0345994  70.3695898  56.8490012  77.7204997  72.4729988
  56.0216225  77.9578224  73.1417451  56.7800012  76.2374997  72.1189988
  55.9192454  76.1755907  71.4531414  57.6874236  76.0054562  71.5614682
  56.6140012  75.2374997  73.2579988  56.2403367  75.7531531  74.1426327
  55.6280012  74.1594997  72.8469988  56.0012289  73.6430622  71.9626389
  55.5096925  73.4449209  73.6615422  54.6639041  74.6151683  72.6212036
  57.9570012  74.6294997  73.6239988  58.6396805  75.4184433  73.9396191
  57.8241711  73.9173543  74.4384350  58.3722486  74.1157856  72.7569541
  58.1230012  78.0194997  73.2529988  58.0950012  78.0684997  74.4869988
  59.2420012  78.2174997  72.5579988  59.2173952  78.1875331  71.5487436
  60.5280012  78.4244997  73.2119988  60.6766875  77.6761988  73.9904828
  61.6600012  78.2984997  72.1899988  61.5177527  79.0469017  71.4104091
  63.0080012  78.5124997  72.8569988  63.1511746  77.7641284  73.6364482
  63.8003555  78.4190320  72.1143431  63.0410528  79.5081047  73.2994677
  61.6320012  76.9904997  71.6069988  62.3419269  76.9107390  70.9657156
  60.6200012  79.7744997  73.9119988  61.1640012  79.8614997  75.0179988
  60.0860012  80.8294997  73.2999988  59.6323847  80.7137002  72.4050563
  60.2000012  82.1754997  73.8479988  61.2103505  82.3587571  74.2136627
  59.8360012  83.2364997  72.7929988  59.9198464  84.2267600  73.2407206
  60.7710012  83.1394997  71.6019988  60.6873685  82.1496014  71.1534370
  60.5010507  83.8957976  70.8649500  61.7972392  83.3033149  71.9307831
  58.3820012  83.0694997  72.3509988  58.3181090  82.1350232  71.7935292
  57.7754069  82.9957133  73.2536053  57.8710012  84.2044997  71.4919988
  58.4768555  84.2786152  70.5889222  56.8331785  84.0147703  71.2180899
  57.9341556  85.1393062  72.0489980  59.3250012  82.3134997  75.0869988
  59.4550012  83.2784997  75.8469988  58.4320012  81.3544997  75.2979988
  58.2734831  80.6650238  74.5771698  57.6030012  81.3044997  76.4969988
  57.4800545  82.2960678  76.9326316  56.2150012  80.7124997  76.1649988
  56.3509708  79.7444570  75.6828099  55.3900012  80.5374997  77.4259988
  55.2532059  81.5052552  77.9085306  54.4167296  80.1194450  77.1689510
  55.9064531  79.8618819  78.1078472  55.4840012  81.6074997  75.1669988
  56.0936470  81.6544802  74.2646543  54.5320295  81.1289290  74.9371735
  55.2330012  83.0084997  75.6789988  56.1846031  83.4879051  75.9086159
  54.7102822  83.5862582  74.9167264  54.6229871  82.9623536  76.5811369
  58.2870012  80.5224997  77.6099988  58.2670012  80.9344997  78.7709988
  58.9050012  79.3904997  77.2699988  58.9008942  79.0552683  76.3172646
  59.6050012  78.6064997  78.2729988  58.8868745  78.3231686  79.0424900
  59.9929144  77.7092659  77.7907184  60.7530012  79.3534997  78.9209988
  60.9640012  79.2434997  80.1309988  61.5090012  80.1184997  78.1349988
  61.3553973  80.0992129  77.1369340  62.6040012  80.9274997  78.6489988
  62.9990112  80.4798172  79.5609454  63.7310012  81.0134997  77.6189988
  63.3267160  81.3257339  76.6561060  64.4913264  81.7249795  77.9411819
  64.4330012  79.7124997  77.3869988  64.4190012  78.6854997  78.3049988
  65.1170012  77.6654997  77.8319988  65.2302484  76.7517028  78.4153077
  65.5760012  77.9934997  76.6399988  66.1407141  77.4097422  76.0396435
  65.1620012  79.2684997  76.3369988  65.4421746  79.7208673  75.3857009
  62.1510012  82.3224997  79.0559988  62.9810012  83.1534997  79.4369988
  60.8530012  82.5984997  78.9749988  60.2149271  81.9300890  78.5673372
  60.3160012  83.8504997  79.4619988  61.1299752  84.5675435  79.5687395
  59.5910089  84.2292209  78.7415435  59.6340012  83.6764997  80.8019988
  59.7680012  84.5164997  81.6939988  58.8950012  82.5744997  80.9509988
  58.7191743  81.9517674  80.1755062  58.2720012  82.2734997  82.2339988
  57.8022888  83.1699699  82.6387340  57.2010012  81.1964997  82.0609988
  57.6924990  80.4567027  81.4291526  57.0049405  80.7631624  83.0417531
  55.8810012  81.6184997  81.4179988  56.0733138  81.9627510  80.4018257
  54.9160012  80.4474997  81.3809988  54.7228302  80.1029703  82.3969138
  53.9795597  80.7621389  80.9203685  55.3516367  79.6352666  80.7991057
  55.2760012  82.7944997  82.1619988  55.9670171  83.6370127  82.1342837
  54.3365392  83.0800701  81.6887526  55.0892408  82.5123724  83.1981569
  59.3060012  81.8284997  83.2589988  59.1860012  82.1464997  84.4489988
  60.3250012  81.0874997  82.8169988  60.4037203  80.8410109  81.8407068
  61.3170012  80.5564997  83.7469988  60.8232917  79.9881700  84.5352574
  62.2820012  79.6314997  83.0099988  62.5962260  80.1160690  82.0855776
  63.1526558  79.4564700  83.6419996  61.6620012  78.3934997  82.7069988
  62.2851600  77.8282385  82.2446648  62.0740012  81.6774997  84.4459988
  62.2800012  81.6344997  85.6629988  62.4880012  82.6974997  83.6899988
  62.3766558  82.6868133  82.6862123  63.1990012  83.8204997  84.2959988
  64.0550751  83.4727118  84.8741684  63.6780012  84.7994997  83.2089988
  62.8125158  85.1668826  82.6575776  64.4150012  85.9714997  83.8329988
  65.2809397  85.6049199  84.3842432  64.7457904  86.6524637  83.0488003
  63.7480233  86.4995374  84.5144793  64.5790012  84.0734997  82.2089988
  65.2793071  83.4688699  82.7852758  63.9404030  83.4207104  81.6138870
  65.3480012  84.9984997  81.2919988  65.9872152  85.6513282  81.8864062
  65.9634265  84.4085307  80.6128173  64.6483105  85.6031706  80.7150188
  62.3180012  84.5084997  85.3289988  62.7940012  84.9484997  86.3819988
  61.0170012  84.6064997  85.0479988  60.6560613  84.3789573  84.1325501
  60.0880012  85.1124997  86.0509988  60.4458367  86.0785084  86.4072010
  58.7020012  85.3014997  85.4369988  58.3264391  84.3411077  85.0838692
  58.0224873  85.7024808  86.1890462  58.7667391  85.9959555  84.5993596
  60.0170012  84.1824997  87.2549988  59.9470012  84.6434997  88.3999988
  60.0390012  82.8684997  87.0169988  60.0952956  82.5190279  86.0710602
  59.9220012  81.9044997  88.1039988  59.1668747  82.2350068  88.8171946
  59.5080012  80.5424997  87.5509988  58.5084398  80.6278398  87.1247437
  60.2118928  80.2539279  86.7703817  59.5040012  79.5594997  88.5689988
  59.2411108  78.7145188  88.1968486  61.2030012  81.7544997  88.9129988
  61.1400012  81.2724997  90.0489988  62.3530012  82.1404997  88.3669988
  62.3783962  82.4350358  87.4012333  63.6090012  82.0844997  89.1059988
  63.5512383  81.3148794  89.8757047  64.7690012  81.7484997  88.1639988
  64.8018055  82.6006579  87.4851399  65.6840613  81.7204780  88.7555896
  64.6460012  80.4574997  87.3549988  63.8637388  80.5828682  86.6063672
  65.9570012  80.1314997  86.6659988  66.7397028  80.0055223  87.4140674
  65.8486365  79.2091284  86.0953946  66.2263112  80.9451975  85.9925982
  64.2120012  79.3104997  88.2449988  63.2443709  79.5415713  88.6904165
  64.1299699  78.4001217  87.6512108  64.9490246  79.1635494  89.0344929
  63.9000012  83.3794997  89.8519988  64.3940012  83.3434997  90.9809988
  63.5990012  84.5274997  89.2419988  63.2838697  84.5464658  88.2826074
  63.7900012  85.7974997  89.9319988  64.8087936  85.8618004  90.3141330
  63.5530012  86.9654997  88.9729988  62.8509009  86.5581082  88.2455465
  63.0730326  87.7710136  89.5287662  64.7830012  87.5114997  88.2439988
  64.4664981  88.2779205  87.5365203  65.7620012  88.1134997  89.2379988
  66.0793322  87.3475103  89.9455722  66.6316945  88.4976907  88.7049590
  65.2782520  88.9277518  89.7775176  65.4650012  86.4374997  87.4139988
  64.7667022  86.0545893  86.6697826  66.3336793  86.8628728  86.9114480
  65.7846905  85.6232856  88.0643472  62.8890012  85.9264997  91.1509988
  63.3060012  86.5094997  92.1559988  61.6630012  85.4024997  91.0849988
  61.2689164  85.0924336  90.2082687  60.8210012  85.3584997  92.2759988
  60.8384615  86.3092405  92.8088085  59.3700012  85.0084997  91.8989988
  59.0449522  85.6799355  91.1042551  59.2580012  83.5684997  91.4229988
  59.5824618  82.8964042  92.2174254  58.2219368  83.3504742  91.1638921
  59.8892159  83.4250370  90.5460235  58.4350012  85.2514997  93.0839988
  58.6654104  84.4998586  93.8390141  58.6606354  86.2424742  93.4779000
  56.9680012  85.1734997  92.7269988  56.7414947  84.1825912  92.3334317
  56.3666042  85.3563855  93.6174894  56.7367202  85.9252058  91.9723154
  61.3990012  84.3834997  93.2949988  61.2420012  84.5634997  94.5049988
  62.0840012  83.3404997  92.8219988  62.1529509  83.1791490  91.8273575
  62.6970012  82.3714997  93.7239988  62.0673792  82.2290781  94.6022877
  62.8600012  81.0254997  93.0159988  61.8735045  80.5896992  92.8578798
  63.3421270  81.1911491  92.0525596  63.6470012  80.1414997  93.7909988
  63.7366487  79.3045445  93.3294046  64.0420012  82.8724997  94.2389988
  64.3460012  82.7524997  95.4289988  64.8640012  83.4304997  93.3499988
  64.6345935  83.4543656  92.3666871  66.1530012  83.9684997  93.7729988
  66.7055896  83.2155226  94.3349336  66.9800012  84.3704997  92.5499988
  67.0307872  83.4472091  91.9728901  66.4079933  85.1141724  91.9951494
  68.3940012  84.8954997  92.7959988  68.3455031  85.7269646  93.4991452
  69.2770012  83.8014997  93.3669988  69.3263616  82.9698277  92.6641588
  70.2797717  84.1941340  93.5354932  68.8600518  83.4535719  94.3120913
  68.9900012  85.4524997  91.5139988  68.3689367  86.2707454  91.1495095
  69.9967431  85.8210229  91.7108806  69.0324564  84.6658488  90.7606881
  65.9800012  85.1544997  94.7089988  66.8540012  85.4244997  95.5419988
  64.8610012  85.8704997  94.5929988  64.1468737  85.6310122  93.9201191
  64.6440012  87.0274997  95.4459988  65.4999680  87.6943409  95.3423521
  63.7428808  87.5384289  95.1068339  64.4810012  86.6574997  96.9069988
  65.0280012  87.3194997  97.7919988  63.7290012  85.5884997  97.1819988
  63.3073358  85.0389699  96.4469377  63.4290012  85.2384997  98.5659988
  63.1435722  86.1244431  99.1332145  62.2960012  84.1964997  98.6369988
  61.9893936  84.0765978  99.6760925  61.1060012  84.6464997  97.8069988
  61.4117412  84.7661781  96.7676236  60.3155564  83.8985205  97.8688455
  60.7355996  85.5981606  98.1881067  62.7840012  82.8304997  98.1579988
  62.9593815  82.9034428  97.0846760  63.7256124  82.6226081  98.6661808
  61.8070012  81.7134997  98.4329988  60.8652355  81.9204720  97.9247274
  62.2176969  80.7725316  98.0669287  61.6314645  81.6396389  99.5062328
  64.6580012  84.7344997  99.3049988  64.6380012  84.6484997 100.5379988
  65.7290012  84.3894997  98.5929988  65.6880911  84.3814675  97.5838599
  66.9610012  83.9484997  99.2389988  66.7337714  83.4972680 100.2048433
  67.6710012  82.9084997  98.3679988  67.7909199  83.2905680  97.3542224
  68.6501966  82.6743717  98.7856833  66.9320012  81.6084997  98.2519988
  66.0480012  81.2074997  99.2369988  65.8924385  81.8491227 100.1043049
  65.3660012  80.0104997  99.1319988  64.6713520  79.7054900  99.9146432
  65.5660012  79.2004997  98.0329988  65.0303843  78.2551774  97.9459344
  66.4450012  79.5884997  97.0439988  66.6040041  78.9510371  96.1742519
  67.1240012  80.7854997  97.1559988  67.8207908  81.0918956  96.3758028
  67.8860012  85.1274997  99.5339988  68.4210012  85.2464997 100.6419988
  68.0800012  86.0064997  98.5479988  67.6418438  85.8775899  97.6471660
  68.9740012  87.1434997  98.7249988  69.9182376  86.8128601  99.1576583
  69.2590012  87.7994997  97.3729988  69.2802461  87.0375970  96.5937991
  68.4884139  88.5345882  97.1407485  70.5770012  88.5214997  97.3049988
  70.7020012  89.8124997  97.7959988  69.8315965  90.3009316  98.2340967
  71.9110012  90.4794997  97.7349988  71.9956736  91.4927270  98.1278112
  73.0120012  89.8614997  97.1759988  73.9672593  90.3839524  97.1247641
  72.9000012  88.5774997  96.6809988  73.7665427  88.0848472  96.2399778
  71.6890012  87.9174997  96.7449988  71.5984910  86.9052688  96.3509220
  68.4150012  88.1794997  99.6909988  69.1900012  88.9284997 100.2989988
  67.0950012  88.2414997  99.8589988  66.5028721  87.5738880  99.3859478
  66.4610012  89.2814997 100.6609988  67.1390440  90.1267304 100.7790758
  65.1830012  89.7714997  99.9719988  65.4894461  90.3193138  99.0808813
  64.6169717  88.8876680  99.6778011  64.3170012  90.6594997 100.8359988
  64.7430012  91.9284997 101.2069988  65.7162780  92.2791727 100.8636913
  63.9550012  92.7424997 101.9979988  64.3016177  93.7362833 102.2814647
  62.7250012  92.2934997 102.4269988  61.9380012  93.1014997 103.2149988
  62.3429339  93.9513901 103.4029227  62.2800012  91.0374997 102.0719988
  61.3073411  90.6813756 102.4114227  63.0740012  90.2294997 101.2819988
  62.7281364  89.2355491 100.9982032  66.1270012  88.8354997 102.0759988
  66.2130012  89.6434997 103.0079988  65.7530012  87.5704997 102.2699988
  65.7420420  86.9072072 101.5084067  65.2850012  87.1274997 103.5809988
  64.5814766  87.8518742 103.9914058  64.5780012  85.7774997 103.4539988
  65.0204985  85.1967983 102.6446279  64.6630248  85.2217604 104.3878215
  63.1130012  85.8874997 103.1519988  62.5650012  87.0924997 102.7489988
  63.2117387  87.9644556 102.6514117  61.2180012  87.1984997 102.4719988
  60.7974588  88.1538588 102.1580979  60.4020012  86.0914997 102.5929988
  59.3372382  86.1696270 102.3732810  60.9370012  84.8844997 102.9929988
  60.2955426  84.0086167 103.0902622  62.2850012  84.7864997 103.2699988
  62.7085624  83.8331570 103.5859634  66.4310012  87.0394997 104.5799988
  66.3790012  87.6434997 105.6559988  67.4680012  86.2704997 104.2479988
  67.4144208  85.8028237 103.3544062  68.6170012  85.9934997 105.1069988
  69.2981975  85.3208740 104.5858027  69.3790012  87.2754997 105.4749988
  68.6623174  88.0959403 105.4383827  69.7380441  87.1527212 106.4968176
  70.5510012  87.5864997 104.5609988  71.2258501  88.2669322 105.0803169
  71.0741915  86.6566533 104.3379303  70.0850012  88.2264997 103.2679988
  70.9065149  88.2011418 102.5520581  69.2459052  87.6504111 102.8779482
  69.6510012  89.6664997 103.4899988  68.7683603  89.6621890 104.1295511
  70.4614269  90.1934102 103.9936599  69.3320012  90.3554997 102.2089988
  68.5807735  89.8676582 101.7423431  69.0490090  91.3061536 102.3994521
  70.1498685  90.3599799 101.6164011  68.2400012  85.2404997 106.3799988
  69.1030012  85.0094997 107.2339988  66.9760012  84.8504997 106.5309988
  66.2757883  85.1350914 105.8610669  66.5520012  84.0654997 107.6809988
  67.0034032  84.4623076 108.5903276  65.0280012  84.1244997 107.8249988
  64.7412222  85.1389807 108.1019196  64.5753513  83.8681870 106.8671303
  64.5770012  83.2184997 108.8179988  63.6212824  83.2728720 108.8904216
  67.0030012  82.6164997 107.6019988  67.0480012  81.9384997 108.6319988
  67.3380012  82.1294997 106.4069988  67.1757458  82.6852969 105.5794349
  67.8800012  80.7854997 106.2419988  68.2256561  80.4144876 107.2068677
  66.8230012  79.8194997 105.6959988  67.3058366  78.8597783 105.8801296
  65.9677013  79.9291821 106.3627310  66.3470012  79.8804997 104.2409988
  67.2112776  79.9946220 103.5867029  65.6030012  78.6064997 103.8789988
  64.7382688  78.4919239 104.5326112  65.2697041  78.6617559 102.8426781
  66.2664281  77.7503828 104.0015921  65.4670012  81.0954997 103.9909988
  66.0302527  82.0033505 104.2069940  65.1482571  81.1056289 102.9486932
  64.5909161  81.0495281 104.6378840  69.0830012  80.8944997 105.3169988
  68.9780012  81.4504997 104.2199988  70.2350012  80.3994997 105.7759988
  70.2774782  79.9598729 106.6843067  71.4720012  80.5404997 105.0179988
  71.2390280  80.6706343 103.9611697  72.2730012  81.7534997 105.4949988
  71.8183908  82.6557767 105.0859453  72.2367308  81.7905253 106.5837658
  73.6230012  81.6704997 105.0699988  74.1042042  82.4409148 105.3806497
  72.3320012  79.2854997 105.0979988  73.5640012  79.3764997 105.1049988
  71.7130012  78.1114997 105.1189988  70.7091571  78.0360326 105.2008592
  72.5000012  76.8854997 105.1179988  73.2218904  76.9214641 105.9338919
  71.6180012  75.6494997 105.2999988  72.2418204  74.7591163 105.3785245
  71.0187040  75.7535459 106.2044972  70.4540012  75.3274997 103.9639988
  69.9256205  74.2314933 104.5011042  73.3310012  76.7794997 103.8479988
  73.0640012  77.4584997 102.8579988  74.3250012  75.9044997 103.8559988
  74.5519398  75.3819201 104.6899705  75.2070012  75.7814997 102.7019988
  75.5811194  76.7681020 102.4285933  76.3990012  74.8724997 102.9999988
  76.0482663  74.0776462 103.6582481  76.7270555  74.4418230 102.0539554
  77.5610012  75.5964997 103.6559988  77.8601202  76.4301179 103.0206176
  77.2298918  75.9773095 104.6221522  78.7620012  74.6994997 103.8749988
  79.8910012  75.1724997 103.9939988  78.5240012  73.3954997 103.9339988
  79.2887120  72.7517227 104.0784632  77.5792210  73.0526773 103.8341754
  74.4570012  75.3454997 101.4519988  74.8300012  75.6954997 100.3399988
  73.4170012  74.5484997 101.6269988  73.1691076  74.1755192 102.5322798
  72.6390012  74.1374997 100.4799988  73.2907765  73.6659169  99.7445412
  71.5600012  73.1374997 100.8879988  72.0400682  72.3794040 101.5068087
  70.8257031  73.6801354 101.4833583  70.8650012  72.4674997  99.7149988
  70.6939606  73.2152041  98.9405414  71.5173126  71.6854120  99.3265007
  69.5380012  71.8584997 100.1319988  69.7244154  71.0216978 100.8051343
  68.9443469  72.6134768 100.6474438  68.7810012  71.3734997  98.9809988
  69.2484129  71.3791103  98.0856808  67.5290012  70.9314997  99.0399988
  66.8840012  70.9094997 100.1989988  67.3472364  71.2298273 101.0373921
  65.9326605  70.5725219 100.2376843  66.9200012  70.5094997  97.9389988
  67.4108353  70.5253012  97.0564274  65.9684836  70.1744742  97.9887078
  72.0120012  75.3344997  99.7849988  72.0270012  75.3974997  98.5579988
  71.5080012  76.3144997 100.5319988  71.3788503  76.2358165 101.5306120
  71.0400012  77.5244997  99.8679988  70.4211875  77.2832947  99.0037135
  70.2310012  78.3884997 100.8529988  70.8881157  78.7068217 101.6623021
  69.6570012  79.6114997 100.1559988  68.9993709  79.2939541  99.3468092
  69.0898798  80.2058698 100.8723773  70.4696025  80.2128260  99.7483411
  69.1080012  77.5604997 101.4809988  69.5775726  76.8008893 102.1059752
  68.5217080  78.2334690 102.1066761  68.2010012  76.8924997 100.4719988
  68.7865459  76.2189777  99.8462149  67.4311058  76.3248044 100.9945717
  67.7306828  77.6515580  99.8469140  72.2090012  78.2944997  99.2729988
  72.0580012  78.9784997  98.2519988  73.3880012  78.1954997  99.8889988
  73.4827258  77.6773566 100.7507727  74.5610012  78.8864997  99.3649988
  74.3717209  79.9586730  99.3128792  75.7620012  78.6464997 100.2789988
  76.1241999  77.6294954 100.1286169  76.8760012  79.6324997  99.9649988
  76.5146676  80.6497772 100.1156110  77.7230679  79.4468486 100.6253856
  77.1900182  79.5087332  98.9285743  75.3630012  78.8124997 101.6449988
  76.1173753  78.6617600 102.2192788  74.8830012  78.4454997  97.9429988
  75.4220012  79.2314997  97.1569988  74.5600012  77.2014997  97.5969988
  74.2072861  76.5565559  98.2896307  74.7660012  76.7124997  96.2379988
  75.5634586  77.2768758  95.7546350  75.1610012  75.2374997  96.2679988
  74.3203164  74.7283137  96.7392504  75.2798321  74.8734778  95.2474757
  76.4350012  74.9554997  97.0599988  76.3302800  75.3737999  98.0610778
  76.6770012  73.4694997  97.1589988  76.7822945  73.0505370  96.1582578
  77.5892528  73.2864502  97.7267933  75.8345283  72.9964753  97.6635656
  77.6200012  75.6514997  96.4159988  77.4438705  76.7270033  96.3967820
  78.5217990  75.4417538  96.9912106  77.7466084  75.2863189  95.3968263
  73.5370012  76.9094997  95.3609988  73.6730012  77.1564997  94.1569988
  72.3370012  76.8024997  95.9349988  72.2299383  76.4492664  96.8751387
  71.1350012  77.1414997  95.1829988  71.1017152  76.5637903  94.2592871
  69.8860012  76.8244997  96.0019988  70.0563149  77.0865688  97.0462268
  69.0296167  77.3822228  95.6229861  69.4990012  75.3794997  95.9809988
  69.1850012  74.7104997  94.8189988  69.1848243  75.1261749  93.8985023
  68.8890012  73.4554997  95.1039988  68.6093408  72.7586584  94.3138714
  69.0030012  73.2854997  96.4099988  69.3850012  74.4744997  96.9809988
  69.5345196  74.5382933  98.0588094  71.1360012  78.6064997  94.7719988
  70.4910012  78.9754997  93.7869988  71.8520012  79.4514997  95.5129988
  72.2781177  79.1303395  96.3705419  72.0030012  80.8534997  95.1499988
  71.0233950  81.2927516  94.9615083  72.6780012  81.6314997  96.2789988
  73.4387482  80.9799558  96.7089450  73.1571489  82.5010508  95.8291118
  71.7270012  82.0864997  97.3699988  71.0155940  81.2859822  97.5729088
  72.3016147  82.2984140  98.2716715  70.9770012  83.3324997  96.9449988
  70.4608008  83.1279829  96.0070174  70.2462310  83.5812504  97.7145424
  71.9260012  84.4974997  96.7549988  72.6009267  84.2580665  95.9332641
  71.3383383  85.3784829  96.4968901  72.7200012  84.7734997  97.9849988
  73.2649445  83.9574302  98.2240953  73.3385084  85.5543650  97.8182708
  72.0948062  84.9958044  98.7464519  72.8090012  80.9784997  93.8639988
  72.7590012  82.0114997  93.1899988  73.5550012  79.9354997  93.5229988
  73.6173611  79.1476480  94.1518870  74.3420012  79.9044997  92.2959988
  74.4027277  80.9041995  91.8658688  75.7620012  79.4134997  92.5959988
  75.7025797  78.5692691  93.2829072  76.2267159  79.0910921  91.6642297
  76.6270012  80.4864997  93.2219988  76.6020012  81.6414997  92.8029988
  77.4010012  80.1074997  94.2329988  77.9987843  80.7825858  94.6879865
  77.3881069  79.1460137  94.5419960  73.7240012  79.0374997  91.2129988
  73.8020012  79.3894997  90.0349988  73.1130012  77.9084997  91.5809988
  73.1193314  77.5961558  92.5414677  72.4710012  77.0604997  90.5819988
  73.1850657  76.7993322  89.8009721  71.9650012  75.7734997  91.2309988
  72.8676195  75.1855159  91.3972948  71.5136980  76.0247504  92.1908418
  70.9740012  74.9604997  90.3999988  70.1995950  75.6253140  90.0173530
  71.6850012  74.2934997  89.2399988  72.4592985  73.6281299  89.6218960
  70.9672313  73.7174070  88.6560257  72.1406594  75.0544744  88.6064426
  70.2710012  73.9284997  91.2629988  69.7294038  74.4319512  92.0638160
  69.5696169  73.3602366  90.6520663  71.0084403  73.2511780  91.6937166
  71.3310012  77.7954997  89.8909988  71.1750012  77.7074997  88.6679988
  70.5220012  78.5274997  90.6599988  70.5843836  78.4928120  91.6674731
  69.4830012  79.3554997  90.0599988  68.8506941  78.7479193  89.4125939
  68.6110012  79.9784997  91.1489988  69.2395050  80.3896053  91.9389825
  67.9937219  80.7714922  90.7268268  67.6750012  79.0104997  91.8059988
  67.2630012  77.8674997  91.1459988  67.6278940  77.6741516  90.1372522
  66.4000012  76.9764997  91.7499988  66.0827152  76.0795445  91.2181137
  65.9390012  77.2204997  93.0259988  65.2581243  76.5175523  93.5059692
  66.3410012  78.3564997  93.6949988  65.9782244  78.5539410  94.7037158
  67.2040012  79.2444997  93.0859988  67.5228649  80.1433947  93.6136479
  70.0890012  80.4384997  89.1809988  69.5700012  80.7334997  88.0979988
  71.1920012  81.0424997  89.6289988  71.5871572  80.8048033  90.5275818
  71.8200012  82.1084997  88.8579988  71.0902226  82.8879637  88.6390049
  72.9700012  82.7254997  89.6489988  72.6095632  83.0822041  90.6138540
  73.7581106  81.9890258  89.8058102  73.6090012  83.8994997  88.9689988
  72.9900012  85.1364997  88.9669988  72.0285849  85.2503757  89.4678091
  73.5750012  86.2194997  88.3409988  73.0777303  87.1894290  88.3487144
  74.7910012  86.0724997  87.7049988  75.2548216  86.9245428  87.2080148
  75.4200012  84.8434997  87.6989988  76.3812035  84.7235640  87.1991932
  74.8290012  83.7644997  88.3279988  75.3234032  82.7930858  88.3233509
  72.3190012  81.6094997  87.5099988  72.2410012  82.3364997  86.5129988
  72.8440012  80.3834997  87.4579988  72.9713093  79.8317646  88.2943482
  73.3090012  79.8334997  86.1889988  74.0228735  80.5149423  85.7262663
  73.9970012  78.4894997  86.4209988  74.4751219  78.1744828  85.4934945
  74.7536235  78.6109604  87.1961568  73.0600012  77.5074997  86.8259988
  73.5121517  76.6723231  86.9661406  72.1590012  79.6844997  85.2019988
  72.2960012  80.0114997  84.0169988  71.0120012  79.1904997  85.6719988
  70.9284040  78.8750966  86.6278396  69.8630012  79.0284997  84.7869988
  70.1648359  78.5069411  83.8787192  68.7720012  78.2124997  85.4789988
  68.7485764  78.4581792  86.5406918  67.7984958  78.4231818  85.0362794
  68.9740012  76.7264997  85.3859988  70.2320012  76.1724997  85.5349988
  71.0823694  76.8271755  85.7257164  70.4180012  74.8094997  85.4449988
  71.4147337  74.3855692  85.5670964  69.3450012  73.9844997  85.2009988
  69.4896002  72.9064436  85.1303857  68.0880012  74.5214997  85.0459988
  67.2366889  73.8694379  84.8505940  67.9050012  75.8864997  85.1379988
  66.9092685  76.3124196  85.0146759  69.3190012  80.3764997  84.3349988
  68.8770012  80.5224997  83.1899988  69.3350012  81.3734997  85.2229988
  69.5913761  81.2083966  86.1858654  68.9070012  82.7164997  84.8409988
  67.9072821  82.7118015  84.4066730  68.9080012  83.6524997  86.0629988
  69.8601296  83.5550558  86.5845881  68.7160012  85.0934997  85.6259988
  67.7638018  85.1918315  85.1047041  68.7190312  85.7427199  86.5015583
  69.5271092  85.3821332  84.9574959  67.8240012  83.2484997  87.0379988
  67.9993022  82.2265091  87.3740151  67.8379796  83.9200922  87.8964088
  66.8526235  83.3074122  86.5470246  69.7990012  83.2554997  83.7299988
  69.3170012  83.8014997  82.7299988  71.1140012  83.1024997  83.8869988
  71.4974160  82.7147763  84.7371535  72.0370012  83.5574997  82.8589988
  71.8043915  84.5845136  82.5775127  73.4730012  83.5074997  83.3819988
  73.5368699  83.9875048  84.3585309  73.8103813  82.4741877  83.4628761
  74.6790012  84.3474997  82.3309988  75.7355328  84.0860505  83.0953832
  71.9160012  82.7454997  81.5769988  72.2220012  83.2634997  80.4989988
  71.4720012  81.4904997  81.6669988  71.2876901  81.0699155  82.5665752
  71.2960012  80.6724997  80.4719988  72.1366382  80.8174320  79.7934539
  71.2260012  79.1914997  80.8549988  72.2021583  78.9064741  81.2473977
  70.4683689  79.0437354  81.6245825  70.8980012  78.2964997  79.6729988
  71.2700012  78.5924997  78.5379988  70.1750012  77.2134997  79.9299988
  69.9289892  76.5843902  79.1791332  69.8741720  77.0234798  80.8752474
  70.0440012  81.0824997  79.7039988  70.0890012  81.3074997  78.4909988
  68.9100012  81.1784997  80.3989988  68.8878565  80.9601724  81.3848700
  67.6590012  81.5344997  79.7419988  67.5176208  80.9203044  78.8526872
  66.4830012  81.3014997  80.6879988  66.7565910  81.6548811  81.6821665
  65.6237857  81.8661091  80.3259697  66.1510012  79.9254997  80.7509988
  65.4109605  79.8019875  81.3499014  67.6430012  82.9714997  79.2439988
  66.7650012  83.3214997  78.4489988  68.5790012  83.8074997  79.6879988
  69.2247381  83.5318159  80.4140302  68.6340012  85.1784997  79.1989988
  67.6791166  85.5184905  78.7981237  69.0640012  86.1364997  80.3249988
  68.5140882  85.8828034  81.2312731  70.5550012  86.0244997  80.5899988
  71.1056266  86.2785141  79.6842454  70.8350450  86.7106526  81.3892922
  70.7961146  85.0038202  80.8869489  68.6780012  87.5684997  79.9849988
  67.5972680  87.6339171  79.8591481  68.9900012  88.2309228  80.7924338
  69.1698247  87.8679440  79.0595024  69.5540012  85.3064997  77.9869988
  69.4060012  86.2444997  77.1969988  70.4970012  84.3834997  77.8109988
  70.6785854  83.6763687  78.5089188  71.3590012  84.4324997  76.6359988
  71.4103212  85.4250742  76.1884932  72.7870012  83.9774997  76.9889988
  73.1566015  84.5885792  77.8124528  72.8040012  82.5154997  77.3969988
  72.4349434  81.9037091  76.5738283  73.8236561  82.2178158  77.6415159
  72.1656259  82.3736608  78.2690426  73.7410012  84.2364997  75.8299988
  73.7585860  85.3027819  75.6045326  74.7433933  83.9068502  76.1032037
  73.4046247  83.6854587  74.9517587  70.7820012  83.6034997  75.4909988
  71.0190012  83.9184997  74.3209988  70.0160012  82.5544997  75.7999988
  69.9119213  82.2407290  76.7543649  69.3550012  81.7934997  74.7459988
  70.0778505  81.5027104  73.9837458  68.7230012  80.5284997  75.3279988
  68.0945380  80.8031799  76.1751617  67.8800012  79.8264997  74.2799988
  68.5079139  79.5510811  73.4326677  67.4375654  78.9283054  74.7108082
  67.0880095  80.4950445  73.9425116  69.7540012  79.6394997  75.7719988
  69.3565810  78.8456091  76.1372321  68.3050012  82.6394997  74.0389988
  68.1980012  82.6114997  72.8069988  67.5280012  83.4134997  74.8029988
  67.6070054  83.3846644  75.8094908  66.4910012  84.2554997  74.2139988
  65.9256217  83.7189721  73.4520385  65.5280012  84.7664997  75.3029988
  65.3286810  83.9566827  76.0048309  66.1330012  85.9444997  76.0479988
  66.3321832  86.7549438  75.3468516  65.4358328  86.2887563  76.8118995
  67.0656110  85.6360575  76.5204409  64.1810012  85.1464997  74.6869988
  63.5785223  85.5957267  75.4765018  64.3762191  85.8885613  73.9128321
  63.4340012  83.9774997  74.0869988  63.2380020  83.2351784  74.8607192
  62.4888397  84.3250863  73.6699225  64.0357004  83.5280113  73.2970506
  67.0570012  85.4244997  73.4259988  66.3470012  85.9914997  72.5869988
  68.3130012  85.8064997  73.6619988  68.7992982  85.4634096  74.4780280
  68.9810012  86.7934997  72.8239988  68.2608889  87.3375779  72.2128389
  69.7960012  87.7904997  73.6649988  70.1404725  88.5997223  73.0211055
  68.9430012  88.3624997  74.7839988  68.5985184  87.5538648  75.4286242
  69.5349061  89.0660861  75.3694178  68.0825594  88.8786215  74.3581380
  71.0530012  87.1254997  74.2249988  70.7461493  86.5072066  75.0685961
  71.4628667  86.4902976  73.4397420  72.1080012  88.1094997  74.6789988
  71.6989891  88.7447877  75.4646310  72.9707303  87.5660127  75.0642513
  72.4157050  88.7278806  73.8357768  69.8570012  86.1304997  71.7669988
  70.6120012  86.8144997  71.0699988  69.7740012  84.8084997  71.6379988
  69.2182899  84.2927753  72.3053163  70.4910012  84.0624997  70.6139988
  71.0727181  84.7442446  69.9935728  71.4490012  83.0574997  71.2699988
  72.1916877  83.5823696  71.8708544  70.8900670  82.3691829  71.9039646
  72.2070012  82.2174997  70.2899988  73.2570012  82.7074997  69.5449988
  73.6009996  83.6558599  69.5937603  73.7310012  81.7484997  68.7699988
  74.5697326  81.9380605  68.1001516  73.0250012  80.6534997  68.9859988
  72.0640012  80.9194997  69.9319988  71.3759138  80.1344554  70.2455950
  69.5520012  83.3364997  69.6669988  69.7510012  83.3804997  68.4479988
  68.5280012  82.6654997  70.1949988  68.3905513  82.6296433  71.1949594
  67.6240012  81.8994997  69.3449988  68.1943343  81.2728912  68.6593013
  66.7380012  80.9984997  70.2089988  67.4479992  80.5178328  70.8820228
  66.0875802  81.6606722  70.7804706  65.8920012  79.9294997  69.5119988
  66.3783905  79.6348890  68.5820897  65.7480012  78.7174997  70.4129988
  65.2612407  79.0112518  71.3429841  65.1450513  77.9606831  69.9112210
  66.7341022  78.3085114  70.6330756  64.5190012  80.4614997  69.1379988
  64.6290707  81.3088789  68.4612916  63.9461573  79.6758212  68.6453929
  63.9952834  80.7820384  70.0385950  66.7710012  82.7894997  68.4519988
  66.5110012  82.4194997  67.3029988  66.3320012  83.9484997  68.9439988
  66.5336159  84.2012397  69.9008547  65.5090012  84.8484997  68.1519988
  65.2141272  84.3574455  67.2246292  64.2400012  85.2444997  68.9229988
  63.8143398  84.3527688  69.3831387  64.5620012  86.2634997  69.9989988
  64.9873030  87.1557556  69.5395454  63.6496145  86.5299143  70.5325464
  65.2808559  85.8382801  70.6993821  63.2900012  85.8124997  68.0149988
  62.4967112  86.0603222  68.4954937  66.2260012  86.1154997  67.7149988
  65.7230012  86.8074997  66.8229988  67.3720012  86.4444997  68.3059988
  67.7228127  85.8852970  69.0704090  68.1160012  87.6344997  67.9239988
  67.4430201  88.2661330  67.3441410  68.5610012  88.4074997  69.1699988
  69.2426667  87.7913066  69.7562907  69.0687196  89.3234907  68.8678686
  67.6886099  88.6583410  69.7734151  69.3310012  87.3274997  67.0589988
  69.9190012  88.2554997  66.4959988  69.7180012  86.0584997  66.9409988
  69.2534820  85.3377977  67.4747684  70.8530012  85.6784997  66.1069988
  71.2215800  86.5240673  65.5262543  72.0110012  85.1214997  66.9539988
  71.6089908  84.4300309  67.6945107  73.0100012  84.3934997  66.0719988
  73.4128175  85.0844883  65.3314755  73.8226745  84.0056339  66.6861833
  72.5126163  83.5670713  65.5643314  72.6910012  86.2434997  67.7209988
  71.9678721  86.7241660  68.3798966  73.5079685  85.8347201  68.3156106
  73.0855739  86.9774976  67.0183892  70.3950012  84.6654997  65.0669988
  70.5310012  84.8984997  63.8599988  69.8480012  83.5384997  65.5189988
  69.7740624  83.3568484  66.5097738  69.3960012  82.5084997  64.5919988
  70.0246821  82.5389244  63.7020921  69.5170012  81.1224997  65.2289988
  68.8859339  81.0735497  66.1163871  69.1972439  80.3643361  64.5141257
  70.5541409  80.9409038  65.5108913  67.9620012  82.7604997  64.1479988
  67.1220012  81.8554997  64.1859988  67.6760012  83.9914997  63.7239988
  68.3349431  84.7406424  63.8810975  66.4060012  84.3114997  63.0899988
  65.9839585  83.4139470  62.6379164  65.4070012  84.8574997  64.1229988
  65.5947624  84.3722043  65.0807740  65.5565054  85.9323316  64.2253946
  63.9660012  84.6044997  63.7259988  63.1170012  85.4874997  63.8349988
  63.6840012  83.3914997  63.2649988  62.7395383  83.1677126  62.9856978
  64.4152793  82.6982871  63.1957933  66.5500012  85.3084997  61.9519988
  65.5360012  85.6904997  61.3579988  67.7660012  85.7404997  61.6299988
  68.5485356  85.3969836  62.1682699  68.0260012  86.7184997  60.5769988
  67.1038988  86.9181667  60.0311422  68.5430012  88.0334997  61.1599988
  69.5254309  87.8615446  61.5997288  68.6289133  88.7616555  60.3534579
  67.6270012  88.5984997  62.2269988  68.0600012  89.3424997  63.1059988
  66.3490012  88.2484997  62.1529988  65.6930435  88.5955672  62.8380998
  66.0382297  87.6366793  61.4119200  69.0320012  86.0944997  59.6179988
  70.2310012  86.0454997  59.9069988  68.5380012  85.6144997  58.4749988
  67.5455420  85.6268433  58.2879914  69.4190012  84.9924997  57.4929988
  69.9783818  84.1789539  57.9548817  68.5950012  84.4244997  56.3379988
  67.8956069  85.2011714  56.0285994  69.2864125  84.2129993  55.5223285
  67.8240012  83.1584997  56.6909988  67.6144183  82.6148128  55.7698145
  68.4439722  82.5427906  57.3426430  66.5100012  83.4414997  57.3969988
  66.3210012  84.5054997  57.9839988  65.5940012  82.4814997  57.3439988
  64.7006682  82.6145980  57.7960414  65.7948672  81.6226739  56.8518885
  70.4630012  85.9724997  56.9759988  71.5790012  85.5664997  56.6359988
  70.1210012  87.2604997  56.9039988  69.1686861  87.5611131  57.0550845
  71.1140012  88.2654997  56.5379988  71.5685717  87.9866049  55.5873766
  70.4460012  89.6304997  56.3779988  69.9940306  89.9275655  57.3243467
  71.1924328  90.3687469  56.0848586  69.6743707  89.5702403  55.6105000
  72.2310012  88.3314997  57.5719988  73.4120012  88.4264997  57.2149988
  71.8760012  88.2884997  58.8569988  70.9048070  88.3169913  59.1328058
  72.8920012  88.2634997  59.9039988  73.5926642  89.0862913  59.7619269
  72.2380012  88.4104997  61.2779988  71.2410035  88.0018449  61.1133893
  72.7766658  87.7793388  61.9848059  72.1210012  89.8274997  61.8459988
  71.6051254  89.7834094  62.8051802  73.5000012  90.4394997  62.0399988
  74.0163440  90.4843513  61.0811050  73.3975486  91.4465244  62.4443568
  74.0756743  89.8267900  62.7337477  71.2540012  90.7114997  60.9609988
  70.2536286  90.2846901  60.8889725  71.1921187  91.7101434  61.3934134
  71.6944441  90.7736690  59.9658887  73.7170012  86.9844997  59.8399988
  74.9400012  87.0144997  60.0269988  73.0640012  85.8474997  59.5879988
  72.0552108  85.8285126  59.5423836  73.7870012  84.5854997  59.4549988
  74.4581419  84.4099586  60.2957453  72.8010012  83.4084997  59.3589988
  72.1416978  83.5663183  58.5054698  73.5520012  82.1004997  59.1829988
  74.2112147  81.9417527  60.0364259  72.8397491  81.2780559  59.1167893
  74.1448879  82.1414540  58.2692648  71.9180012  83.3554997  60.5929988
  71.3541173  84.2845132  60.6770874  71.2261007  82.5173972  60.5095867
  72.5389744  83.2264885  61.4794802  74.7180012  84.6374997  58.2499988
  75.8830012  84.2274997  58.3229988  74.2180012  85.1494997  57.1219988
  73.2446690  85.4094730  57.0503207  75.0600012  85.2874997  55.9379988
  75.5219706  84.3235188  55.7248689  74.2140012  85.7004997  54.7339988
  73.7521033  86.6684066  54.9286949  74.8487430  85.7724794  53.8508102
  73.4369481  84.9555764  54.5626011  76.1810012  86.2914997  56.1639988
  77.2380012  86.1934997  55.5279988  75.9710012  87.2624997  57.0559988
  75.0677237  87.3830040  57.4915075  77.0260012  88.2164997  57.3769988
  77.4045580  88.6784244  56.4651767  76.4780012  89.3144997  58.2899988
  76.3012926  88.8933291  59.2796905  77.4640012  90.4694997  58.3989988
  77.6408631  90.8915095  57.4096924  77.0529077  91.2383331  59.0532131
  78.4051286  90.1067111  58.8122349  75.2430012  89.8084997  57.7569988
  74.8997927  90.4975460  58.3306044  78.2190012  87.5274997  58.0269988
  79.3530012  88.0054997  57.9089988  77.9830012  86.4044997  58.7009988
  77.0268993  86.0898602  58.7844893  79.0220012  85.6514997  59.3949988
  78.5660598  84.8598262  59.9895320  79.9860012  85.0194997  58.4009988
  79.4543929  84.8184291  57.4709114  80.7956672  85.7241093  58.2110878
  80.5820012  83.7224997  58.9079988  79.8710012  82.8544997  59.4099988
  81.8960012  83.5814997  58.7719988  82.3460116  82.7361932  59.0930086
  82.4389054  84.3202604  58.3482201  79.7740012  86.5264997  60.4019988
  80.9850012  86.7294997  60.2719988  79.0890012  87.0544997  61.4119988
  77.6910012  86.8064997  61.7929988  77.6365701  85.9417271  62.4542899
  77.0930842  86.6193676  60.9010481  77.3070012  88.0844997  62.4819988
  76.6885718  87.8370995  63.3448066  76.7300989  88.6913829  61.7841607
  78.5890012  88.8054997  62.9019988  78.6253753  88.8253296  63.9912107
  78.6600911  89.8231465  62.5180186  79.7460012  87.9584997  62.3569988
  80.4818055  88.5487713  61.8108581  80.4380012  87.1994997  63.4799988
  80.0990012  86.0614997  63.8079988  81.4300012  87.8674997  64.0749988
  81.7543878  88.7505926  63.7075488  82.1330012  87.2934997  65.2179988
  82.4484745  86.2636058  65.0509827  83.3770012  88.1414997  65.5569988
  84.0278444  88.1750208  64.6832834  82.9780012  89.5584997  65.9469988
  82.3274771  89.5258184  66.8209846  83.8717825  90.1367017  66.1813870
  82.4487526  90.0286339  65.1181614  84.1980012  87.4824997  66.6579988
  84.5249074  86.4965857  66.3275323  85.0696141  88.0982147  66.8800021
  83.5877739  87.3804837  67.5553929  81.1940012  87.1594997  66.4109988
  81.3660012  86.2674997  67.2509988  80.1860012  88.0304997  66.5009988
  80.0892381  88.7845840  65.8360979  79.2320012  87.9524997  67.6019988
  79.7607765  87.9571844  68.5551377  78.2870012  89.1524997  67.5619988
  77.7116713  89.1748348  68.4875235  78.8815371  90.0625980  67.4823244
  77.4030012  89.0684997  66.4589988  76.8212206  89.8321253  66.4563233
  78.4430012  86.6504997  67.5589988  78.0940012  86.0934997  68.6069988
  78.1460012  86.1524997  66.3569988  78.3886324  86.6453007  65.5094278
  77.3970012  84.9064997  66.2419988  76.4826728  84.9656869  66.8324221
  77.0200012  84.6514997  64.7809988  76.4636571  85.5053970  64.3944243
  77.9255317  84.5111294  64.1907356  76.0210012  83.1664997  64.5139988
  78.1900012  83.7344997  66.8059988  77.6210012  82.8384997  67.4409988
  79.5060012  83.7204997  66.5819988  79.9464166  84.4274447  66.0107175
  80.3370012  82.6454997  67.1159988  79.9260729  81.6790553  66.8240698
  81.7620012  82.7554997  66.5709988  82.0286781  83.8116978  66.6087889
  82.4003403  82.1954514  67.2543501  81.9550012  82.2354997  65.1579988
  82.9748640  81.8632549  65.0609701  81.2531009  81.4187994  64.9893606
  81.7160012  83.3264997  64.1329988  80.6416553  83.4859102  64.0409758
  82.1898509  84.2426555  64.4854536  82.2890012  82.9494997  62.7789988
  83.3682826  82.8356021  62.8803868  81.8512967  81.9999154  62.4710966
  81.9940012  83.9874997  61.7529988  82.3998700  84.8673841  62.0379087
  82.3880835  83.7062646  60.8665982  80.9939618  84.0928905  61.6585895
  80.3550012  82.6694997  68.6399988  80.1190012  81.6454997  69.2919988
  80.6360012  83.8354997  69.2259988  80.8338622  84.6596852  68.6767551
  80.7690012  83.9224997  70.6769988  81.3753870  83.1113605  71.0800479
  81.4090012  85.2644997  71.0829988  81.5198679  85.2945667  72.1669285
  82.7740012  85.4124997  70.4299988  82.6638842  85.3829890  69.3459765
  83.2166987  86.3641923  70.7239384  83.4214223  84.5965715  70.7512599
  80.5140012  86.4334997  70.7109988  79.5565435  86.3359454  71.2227213
  80.9915194  87.3667436  71.0095482  80.3505978  86.4381034  69.6333258
  79.4220012  83.7024997  71.3559988  79.3540012  83.1264997  72.4499988
  78.3330012  84.1544997  70.7299988  78.4026222  84.7096731  69.8891452
  77.0070012  83.9054997  71.2869988  76.9546552  84.2874313  72.3065513
  75.9400012  84.6074997  70.4469988  76.0797686  85.6850361  70.5334833
  76.0616171  84.3082695  69.4059556  74.6380012  84.2634997  70.8879988
  73.9868786  84.7155822  70.3464633  76.7290012  82.4114997  71.3679988
  76.2030012  81.9174997  72.3709988  77.0820012  81.6734997  70.3149988
  77.3508957  82.1013305  69.4404956  77.0290012  80.2184997  70.3849988
  76.0412488  79.8963773  70.7146677  77.3040012  79.6174997  69.0069988
  76.5515556  80.0194252  68.3284852  78.2910670  79.9633430  68.7000892
  77.2640012  78.0984997  68.9649988  77.5687080  77.7637624  67.9734315
  77.9618013  77.7130617  69.7083793  75.8860012  77.5434997  69.2609988
  74.8730012  78.1794997  68.9729988  75.8400012  76.3474997  69.8349988
  74.9468600  75.9300951  70.0544839  76.6983529  75.8603930  70.0496163
  78.0220012  79.6894997  71.4089988  77.7290012  78.7334997  72.1369988
  79.2070012  80.2994997  71.4779988  79.4378836  81.0534710  70.8468729
  80.2250012  79.8514997  72.4219988  80.3966617  78.7811038  72.3084883
  81.5380012  80.5874997  72.1569988  82.0511692  80.1393081  71.3061861
  81.3437795  81.6399428  71.9502590  82.4990012  80.5464997  73.3079988
  83.0470012  79.3464997  73.7279988  82.7722676  78.4259228  73.2130623
  83.9320012  79.3074997  74.7859988  84.3585386  78.3568811  75.1061405
  84.2770012  80.4734997  75.4389988  84.9753378  80.4451277  76.2754322
  83.7370012  81.6754997  75.0319988  84.0065185  82.5987278  75.5449416
  82.8530012  81.7074997  73.9719988  82.4242989  82.6559407  73.6483108
  79.7740012  80.0574997  73.8619988  79.8700012  79.1424997  74.6899988
  79.2830012  81.2554997  74.1859988  79.2667825  82.0129360  73.5180718
  78.8560012  81.5304997  75.5549988  79.5819740  81.1701653  76.2838484
  78.6280012  83.0424997  75.7609988  79.5151413  83.5749974  75.4181738
  77.4120012  83.5344997  74.9899988  76.5243331  83.0027514  75.3326207
  77.2822622  84.6035162  75.1587357  77.5570641  83.3501848  73.9255346
  78.4900012  83.3594997  77.2509988  78.2063196  84.4085286  77.3356377
  77.6884255  82.7340488  77.6439201  79.7530012  83.1144997  78.0419988
  80.5549644  83.7399883  77.6499290  79.5798126  83.3609252  79.0895576
  80.0370717  82.0655082  77.9582094  77.6210012  80.7104997  75.9059988
  77.4560012  80.2704997  77.0499988  76.7340012  80.4944997  74.9329988
  76.8340453  80.9242463  74.0244789  75.5510012  79.6794997  75.1859988
  75.0439598  80.0267242  76.0862450  74.5830012  79.7834997  74.0099988
  74.1629757  80.7881063  73.9605684  75.1003821  79.5602527  73.0769512
  73.4270012  78.8404997  74.0939988  73.0080012  78.0814997  73.0229988
  73.4375777  78.0934598  72.1089853  71.9710012  77.3494997  73.3829988
  71.4894818  76.6811961  72.6691302  71.7040012  77.5994997  74.6519988
  72.6000012  78.5294997  75.1199988  72.5425920  78.8693980  76.1540561
  75.9310012  78.2294997  75.4479988  75.3480012  77.5764997  76.3199988
  76.9080012  77.7084997  74.7029988  77.2904322  78.2084447  73.9131248
  77.4080012  76.3674997  74.9799988  76.5755608  75.6671572  75.0482816
  78.3410012  75.9094997  73.8589988  78.9679571  76.7815951  73.6733242
  78.9575908  75.0925831  74.2339181  77.6660012  75.4814997  72.5569988
  77.0262155  76.2912995  72.2062861  78.7070012  75.1644997  71.4979988
  79.3469182  74.3544215  71.8478249  78.2086844  74.8613957  70.5771789
  79.3137399  76.0498023  71.3077154  76.7550012  74.2904997  72.7959988
  75.9865913  74.5598066  73.5206500  76.2827928  73.9995288  71.8576723
  77.3407156  73.4559725  73.1814880  78.1250012  76.3194997  76.3219988
  78.0730012  75.3044997  77.0259988  78.8010012  77.4084997  76.6899988
  78.8755066  78.2086196  76.0781521  79.5030012  77.4474997  77.9679988
  80.1930486  76.6069658  78.0417310  80.3010012  78.7464997  78.0849988
  81.1541969  78.6598025  77.4122136  79.6536381  79.5559109  77.7475458
  80.7910012  79.0434997  79.4839988  81.6070012  78.1474997  80.1599988
  81.8927717  77.2183764  79.6668815  82.0560012  78.4174997  81.4369988
  82.6987167  77.7066448  81.9563290  81.6880012  79.5924997  82.0549988
  82.1320012  79.8654997  83.3279988  82.6891926  79.1714787  83.6878213
  80.8770012  80.4964997  81.4049988  80.5849763  81.4261140  81.8935059
  80.4340012  80.2194997  80.1279988  79.7921316  80.9303515  79.6076208
  78.5340012  77.3114997  79.1329988  78.8180012  76.6084997  80.1099988
  77.3800012  77.9774997  79.0499988  77.1662835  78.5656221  78.2571961
  76.4290012  77.9324997  80.1529988  76.9489568  78.0763507  81.1001272
  75.3910012  79.0384997  79.9939988  74.9913114  78.9158250  78.9873716
  74.5901793  78.9043737  80.7211814  75.9820012  80.4414997  80.1399988
  76.6418541  80.6349187  79.2942541  74.8890012  81.4834997  80.1739988
  74.2289665  81.2909989  81.0198099  75.3331505  82.4734225  80.2783300
  74.3150307  81.4390767  79.2484260  76.8430012  80.5264997  81.3909988
  77.6565114  79.8042691  81.3225626  77.2563043  81.5311092  81.4806733
  76.2340731  80.3051192  82.2675239  75.7550012  76.5724997  80.2689988
  75.3690012  76.1734997  81.3729988  75.6080012  75.8484997  79.1549988
  75.8102387  76.2350610  78.2440818  75.0890012  74.4854997  79.2289988
  74.0721121  74.5001877  79.6211979  75.0690012  73.8394997  77.8439988
  76.1057805  73.7936843  77.5106990  74.6871109  72.8279104  77.9816467
  74.2360012  74.5554997  76.8029988  73.4575507  75.1413538  77.2917631
  74.8706609  75.2163452  76.2125818  73.4680012  73.3414997  75.7129988
  72.2760012  74.3474997  74.8409988  72.7940373  75.1418265  74.3036139
  71.7266077  73.7282275  74.1319364  71.5792397  74.7869476  75.5547987
  75.9090012  73.6374997  80.1889988  75.3560012  72.8334997  80.9479988
  77.2320012  73.7934997  80.1629988  77.6905302  74.3587389  79.4627452
  78.0540012  73.1374997  81.1649988  77.8735662  72.0635722  81.1178573
  79.1023314  73.3392657  80.9450136  77.7400012  73.6294997  82.5639988
  77.5660012  72.8364997  83.4929988  77.6360012  74.9494997  82.7259988
  77.8289713  75.5858520  81.9657899  77.3020012  75.5114997  84.0309988
  77.9946155  75.1406195  84.7865334  77.4020012  77.0354997  83.9829988
  76.5783135  77.4518334  83.4030814  77.3813510  77.4491619  84.9912433
  78.9170012  77.6554997  83.2179988  78.6293779  78.9456095  83.3656053
  75.9130012  75.0784997  84.4789988  75.6720012  74.8774997  85.6739988
  74.9830012  74.9314997  83.5329988  75.1818936  75.1574016  82.5688881
  73.6380012  74.4854997  83.8749988  73.2164728  75.1331209  84.6437639
  72.7340012  74.5364997  82.6439988  73.2143432  73.9790411  81.8398777
  71.7786022  74.0716439  82.8873542  72.4770012  75.9474997  82.1669988
  72.6200012  76.2484997  80.9829988  72.1010012  76.8254997  83.0879988
  71.9162377  77.7825360  82.8233411  72.0012810  76.5327592  84.0494871
  73.6270012  73.0784997  84.4489988  72.7570012  72.7604997  85.2649988
  74.5690012  72.2294997  84.0449988  75.2603556  72.5331779  83.3742471
  74.6060012  70.8454997  84.4959988  73.6910088  70.6066311  85.0380596
  74.7250012  69.9004997  83.2959988  75.5203234  70.2857808  82.6579390
  75.0094044  68.9201815  83.6783483  73.4520012  69.7774997  82.4939988
  72.4800012  68.8504997  82.8389988  72.6478639  68.2080578  83.7034003
  71.3150012  68.7334997  82.1079988  70.5588920  68.0013503  82.3914735
  71.1090012  69.5494997  81.0169988  69.9500012  69.4344997  80.2869988
  69.3591970  68.7576790  80.6253238  72.0610012  70.4784997  80.6529988
  71.9002401  71.1243837  79.7898127  73.2240012  70.5874997  81.3899988
  73.9814546  71.3187968  81.1079193  75.7320012  70.5484997  85.4699988
  75.5920012  69.6414997  86.2929988  76.8460012  71.2794997  85.3989988
  76.9953408  71.9563052  84.6643347  77.9170012  71.0574997  86.3619988
  78.1221347  69.9906170  86.4502072  79.1920012  71.7634997  85.9059988
  78.9737069  72.7691020  85.5465397  79.8945203  71.8199590  86.7374909
  79.9020012  71.0544997  84.7919988  79.9930012  69.6744997  84.7789988
  79.5457179  69.1026681  85.5920463  80.6410012  69.0214997  83.7519988
  80.7147334  67.9340114  83.7577845  81.1950012  69.7434997  82.7189988
  81.7016910  69.2294718  81.9022120  81.1080012  71.1184997  82.7189988
  81.5496311  71.6936133  81.9051761  80.4620012  71.7664997  83.7489988
  80.3880683  72.8539883  83.7474513  77.5150012  71.5234997  87.7529988
  77.9470012  70.9384997  88.7509988  76.6970012  72.5744997  87.8409988
  76.4773697  73.1463265  87.0379574  76.1570012  72.9664997  89.1369988
  76.9628375  73.0432939  89.8669506  75.4630012  74.3204997  89.0329988
  75.0583625  74.4483434  88.0289954  74.6609810  74.4260427  89.7635631
  76.3990012  75.4534997  89.2619988  76.8820012  76.3174997  88.3269988
  76.5428984  76.1730022  87.3012164  77.7310012  77.2234997  88.9139988
  78.2133440  77.9723456  88.4378951  77.8170012  76.9464997  90.2519988
  78.5460012  77.5794997  91.2539988  79.1637384  78.4369531  90.9870286
  78.4390012  77.0794997  92.5219988  78.9958878  77.5486563  93.3330901
  77.6280012  75.9744997  92.8059988  77.5489064  75.5848659  93.8209022
  76.9050012  75.3454997  91.8119988  76.2835445  74.4930106  92.0861424
  76.9940012  75.8334997  90.5059988  75.2080012  71.9054997  89.6699988
  75.1350012  71.6824997  90.8829988  74.4710012  71.2404997  88.7769988
  74.3782781  71.5612997  87.8237994  73.7280012  70.0544997  89.1819988
  73.0612847  70.2976388  90.0093268  72.8880012  69.5334997  88.0139988
  73.5191118  69.5847640  87.1267725  72.6564612  68.4915186  88.2348261
  71.5910012  70.3004997  87.7609988  71.8953660  71.3352717  87.6038055
  71.1937369  69.8938906  86.8309707  70.3040012  70.2454997  89.0319988
  70.6850012  68.7434997  89.9329988  71.6868288  68.8172074  90.3560917
  69.9609751  68.6075405  90.7363679  70.6392142  67.8910870  89.2552101
  74.6710012  68.9704997  89.6869988  74.3660012  68.2914997  90.6739988
  75.8140012  68.7944997  89.0229988  75.9598908  69.2108137  88.1144295
  76.8620012  67.9394997  89.5679988  76.4530930  66.9592605  89.8129977
  77.9810012  67.7594997  88.5419988  77.5502575  67.0731954  87.8129270
  78.1735353  68.7208469  88.0657193  79.2940012  67.1814997  89.0719988
  79.6700880  67.8268095  89.8658721  79.0780012  65.7814997  89.6179988
  78.7023303  65.1354523  88.8245298  80.0230926  65.3864452  89.9906044
  78.3532749  65.8159992  90.4314372  80.3580012  67.1814997  87.9909988
  80.5347582  68.2030609  87.6544440  81.2829879  66.7660794  88.3909073
  80.0219585  66.5753592  87.1497092  77.4080012  68.5174997  90.8669988
  77.6720012  67.7814997  91.8249988  77.5750012  69.8414997  90.9169988
  77.3774899  70.4189047  90.1122056  78.1050012  70.4834997  92.1159988
  79.0756566  70.0585869  92.3716867  78.2780012  71.9824997  91.8669988
  78.8199263  72.1467445  90.9356342  77.3032743  72.4670064  91.8098958
  79.1970012  72.8594997  93.1399988  79.1196590  74.0572720  92.5670608
  77.2020012  70.2414997  93.3159988  77.6840012  70.0234997  94.4329988
  75.8850012  70.2784997  93.1029988  75.5053954  70.5609655  92.2106917
  74.9550012  69.9704997  94.1839988  75.1534578  70.6125549  95.0421825
  73.5160012  70.2064997  93.7189988  73.4054475  69.6332875  92.7985071
  72.8811590  69.7755954  94.4932061  73.0980012  71.6674997  93.4669988
  73.6608532  72.0182477  92.6019703  72.0375962  71.6274027  93.2179349
  73.3110012  72.6314997  94.6399988  72.6620012  73.6994997  94.6269988
  74.0840012  72.3484997  95.5759988  75.1350012  68.5394997  94.6699988
  75.1280012  68.2764997  95.8779988  75.3000012  67.5974997  93.7419988
  75.2844311  67.8152961  92.7558844  75.5090012  66.2154997  94.1389988
  74.6775140  65.9128462  94.7754964  75.5207314  65.5992680  93.2399880
  76.8080012  66.0114997  94.8939988  76.8560012  65.2644997  95.8749988
  77.8780012  66.6724997  94.4499988  77.8278325  67.2450709  93.6194901
  79.1730012  66.5164997  95.1059988  79.4156680  65.4617194  95.2350356
  80.2800012  67.2004997  94.2829988  80.0012404  68.2395420  94.1075453
  81.6000012  67.1504997  95.0259988  81.8796695  66.1116958  95.2014206
  82.3715435  67.6383174  94.4302999  81.4994885  67.6654729  95.9814039
  80.4170012  66.5314997  92.9159988  79.5735842  66.8583629  92.3077973
  81.3455116  66.8886438  92.4705596  80.4370012  65.0224997  92.9789988
  79.5085499  64.6645704  93.4239311  80.5364307  64.6175722  91.9719006
  81.2804766  64.6948513  93.5866957  79.1200012  67.0584997  96.5269988
  79.5720012  66.4064997  97.4759988  78.5650012  68.2584997  96.6969988
  78.2461668  68.8080910  95.9118915  78.4640012  68.8364997  98.0319988
  79.4475951  68.8560453  98.5013176  77.9310012  70.2644997  97.9569988
  78.7883545  70.9170901  97.7921651  77.2561915  70.3294598  97.1034696
  77.2030012  70.6964997  99.2079988  77.9040012  71.1204997 100.3289988
  78.9931495  71.1421293 100.2917485  77.2450012  71.5104997 101.4769988
  77.8077340  71.8436334 102.3490398  75.8680012  71.4774997 101.5169988
  75.2070012  71.8654997 102.6589988  75.8011375  72.1387297 103.3618124
  75.1500012  71.0574997 100.4189988  74.0607495  71.0315061 100.4499116
  75.8170012  70.6684997  99.2759988  75.2549582  70.3314247  98.4050290
  77.5770012  67.9844997  98.9309988  77.9120012  67.7244997 100.0889988
  76.4330012  67.5424997  98.4059988  76.1428803  67.8237536  97.4803501
  75.5410012  66.6934997  99.1799988  75.3093583  67.1677313 100.1336995
  74.2350012  66.4684997  98.4159988  74.0121827  67.4452357  97.9865365
  74.4242741  65.7543971  97.6145418  73.0430012  65.9944997  99.2499988
  73.2038493  64.9571398  99.5434492  72.8930012  66.8544997 100.4929988
  72.7316481  67.8920001 100.2003267  72.0409946  66.5053786 101.0763512
  73.7985672  66.7841438 101.0955770  71.7680012  66.0144997  98.4249988
  71.8805681  65.3540664  97.5651988  70.9330480  65.6738520  99.0373008
  71.5740340  67.0299546  98.0795615  76.1730012  65.3544997  99.5309988
  75.8170012  64.7704997 100.5589988  77.1000012  64.8604997  98.7119988
  77.2978982  65.3066196  97.8277403  77.8040012  63.6254997  99.0359988
  77.0969442  62.8696208  99.3777835  78.5240012  63.0954997  97.7929988
  77.8246646  62.5587271  97.1519817  78.9612739  63.9254270  97.2379193
  79.6410012  62.1474997  98.0959988  79.4570012  60.7844997  98.1849988
  78.5726126  60.3145024  98.0543878  80.6110012  60.2044997  98.4649988
  80.6757789  59.1221878  98.5768198  81.5360012  61.1424997  98.5609988
  80.9560012  62.3664997  98.3359988  81.5617617  63.2718799  98.3739720
  78.7820012  63.8404997 100.1839988  78.8530012  63.0324997 101.1159988
  79.5500012  64.9294997 100.1289988  79.5420789  65.5336175  99.3196298
  80.4670012  65.2434997 101.2159988  81.0902202  64.3791665 101.4454009
  81.3740012  66.4094997 100.8249988  82.1104486  66.5661355 101.6131680
  82.0880012  66.1114997  99.5169988  81.3521602  65.9551950  98.7281980
  82.7297920  66.9520687  99.2530907  82.6948957  65.2131884  99.6302090
  80.5870012  67.5974997 100.6759988  81.1567624  68.3300523 100.4303587
  79.7100012  65.5704997 102.4979988  80.1130012  65.1544997 103.5899988
  78.6090012  66.3144997 102.3839988  78.3003890  66.6399200 101.4790350
  77.8590012  66.7314997 103.5599988  78.5327857  67.1635032 104.2999221
  76.8220012  67.7844997 103.1699988  77.4075604  68.4860391 102.5758085
  76.0798761  67.3017009 102.5341876  76.1150012  68.5374997 104.2959988
  76.0238653  67.8778272 105.1589167  76.9010012  69.7784997 104.6879988
  76.9921606  70.4389154 103.8256532  76.3805291  70.3002189 105.4911293
  77.8946222  69.4873381 105.0286489  74.6960012  68.8974997 103.8919988
  74.1381054  67.9871620 103.6725970  74.2102294  69.4330368 104.7076746
  74.7197605  69.5310501 103.0053487  77.1760012  65.5634997 104.2609988
  76.8080012  65.6894997 105.4359988  77.0020012  64.4334997 103.5839988
  77.3273889  64.3792194 102.6293911  76.2770012  63.2974997 104.1309988
  75.8745565  63.5328709 105.1162591  75.1250012  62.8804997 103.1909988
  75.5252709  62.7313121 102.1881889  74.4750012  61.5944997 103.6729988
  74.0740594  61.7430551 104.6756341  73.6662617  61.3195980 102.9958944
  75.2177202  60.7969802 103.6937396  74.0860012  63.9984997 103.0979988
  74.5624528  64.8437858 102.6014246  73.2668643  63.6297008 102.4806644
  73.5470012  64.4404997 104.4369988  74.3655490  64.8098855 105.0547636
  72.8157500  65.2354161 104.2904423  73.0699622  63.5957992 104.9340046
  77.1990012  62.1184997 104.4189988  77.0880012  61.4874997 105.4689988
  78.1200012  61.8094997 103.5069988  78.2025965  62.3876889 102.6829997
  78.9490012  60.6084997 103.5969988  78.5865005  59.9238370 104.3637643
  78.9910012  59.8604997 102.2479988  79.2777585  60.5599191 101.4627078
  79.9970012  58.7214997 102.3039988  79.7106340  58.0213770 103.0888065
  80.0144988  58.2040149 101.3448304  80.9879804  59.1215323 102.5185583
  77.6080012  59.3414997 101.8879988  76.9145308  60.1786828 101.8084669
  77.6534666  58.8161518 100.9340375  77.2631044  58.6570591 102.6630395
  80.3550012  60.9334997 104.0949988  80.7780012  60.4444997 105.1419988
  81.0980012  61.7554997 103.3499988  80.7296263  62.1591901 102.5006265
  82.4930012  62.0254997 103.6979988  83.0440315  61.1061994 103.8963717
  83.1980012  62.7854997 102.5639988  82.5059918  63.5161506 102.1452249
  84.4360012  63.5004997 103.0849988  85.1287336  62.7703992 103.5035393
  84.9204988  64.0325166 102.2662677  84.1468677  64.2114991 103.8589389
  83.5690012  61.8274997 101.4429988  82.6662590  61.3587624 101.0512794
  84.0679993  62.3771489 100.6448846  84.2390737  61.0588646 101.8281011
  82.5710012  62.7894997 105.0149988  83.3280012  62.4274997 105.9229988
  81.7870012  63.8524997 105.1399988  81.2395746  64.1410512 104.3417748
  81.7170012  64.6584997 106.3549988  82.3032155  64.2106453 107.1574191
  82.2260012  66.0754997 106.1119988  81.6426611  66.5403554 105.3171884
  82.1244372  66.6603676 107.0261730  83.2752009  66.0399376 105.8187165
  80.2620012  64.6474997 106.8159988  79.4450012  65.4444997 106.3509988
  79.9470012  63.7384997 107.7349988  80.6639570  63.1359709 108.1131954
  78.5700012  63.5314997 108.1689988  77.8761546  63.5030027 107.3288416
  78.4330012  62.2224997 108.9639988  79.0908783  62.2647982 109.8320470
  76.9990012  62.0264997 109.4249988  76.3405397  61.9836371 108.5574204
  76.9212033  61.0951311 109.9858915  76.7047733  62.8598859 110.0629635
  78.8990012  61.0404997 108.1319988  79.9447374  61.1786319 107.8573039
  78.7942801  60.1235232 108.7119017  78.2929162  60.9698042 107.2288022
  78.1110012  64.7284997 108.9899988  78.4890012  64.8764997 110.1559988
  77.2650012  65.5584997 108.3789988  77.1405746  65.4850638 107.3793866
  76.7010012  66.7274997 109.0669988  76.1190520  67.3115941 108.3540696
  75.7860012  66.3264997 110.2369988  76.3750940  65.8761938 111.0359315
  75.2603767  67.2003032 110.6220784  74.7330012  65.3224997 109.8609988
  74.0820012  65.4014997 108.6409988  74.3384175  66.2089034 107.9551054
  73.1210012  64.4764997 108.2889988  72.6242204  64.5463712 107.3213069
  72.7890012  63.4624997 109.1629988  72.0265350  62.7329752 108.8899797
  73.4240012  63.3724997 110.3849988  73.1648502  62.5730431 111.0791242
  74.3910012  64.2994997 110.7279988  74.8948650  64.2301407 111.6920581
  77.6770012  67.8324997 109.4529988  77.2860012  68.7794997 110.1309988
  78.9370012  67.7274997 109.0399988  79.2880534  66.9235125 108.5395326
  79.8520012  68.8324997 109.3019988  79.9191644  69.1401303 110.3455272
  81.2460012  68.5154997 108.7999988  81.1962042  68.2145820 107.7535434
  81.8762930  69.3998458 108.8936173  81.6697664  67.7036989 109.3911856
  79.2570012  69.9864997 108.5319988  78.9420012  69.8454997 107.3569988
  79.1140012  71.1404997 109.1709988  79.3742154  71.2507181 110.1406584
  78.4310012  72.2464997 108.5079988  77.7845822  71.8660057 107.7171346
  77.5710012  73.0114997 109.5169988  77.4083882  72.3477415 110.3661638
  78.1500461  73.8771011 109.8387767  76.2280012  73.4744997 108.9709988
  75.7592998  74.1139607 109.7190024  76.4304931  74.0563223 108.0717888
  75.2950012  72.3264997 108.6309988  75.4140012  71.2434997 109.2429988
  74.4270012  72.5124997 107.7529988  79.3190012  73.2084997 107.7209988
  78.8160012  74.1104997 107.0529988  80.6300012  73.0314997 107.7929988
  81.0463222  72.3186573 108.3749197  81.5110012  73.9564997 107.0999988
  80.9161985  74.6567837 106.5135593  82.3630012  74.7504997 108.0929988
  82.3062195  74.2374177 109.0530102  83.3905569  74.7284233 107.7300361
  81.9170012  76.1934997 108.2629988  80.8888408  76.1970503 108.6249027
  82.5628378  76.6702110 109.0003883  81.9950012  76.9594997 106.9499988
  81.4082942  76.4238663 106.2036940  81.5683709  77.9506565 107.1039276
  83.4310012  77.0954997 106.4639988  83.9914011  77.6567283 107.2117118
  83.8539671  76.0954385 106.3687274  83.5140012  77.7954997 105.1539988
  83.1225140  78.7223563 105.2421707  84.4806965  77.8639849 104.8695520
  82.9951412  77.2753897 104.4609121  82.3960012  73.3014997 106.0669988
  83.1090012  72.3484997 106.3709988  82.3580012  73.8124997 104.8449988
  81.7127622  74.5556788 104.6181712  83.2170012  73.2974997 103.7879988
  84.0210449  72.7089534 104.2298429  82.4350012  72.4074997 102.8189988
  81.6618737  73.0276968 102.3654255  83.1335903  72.0781790 102.0498297
  81.7920012  71.1934997 103.4729988  82.5772428  70.5850800 103.9216880
  81.1131079  71.5414473 104.2515477  81.0130012  70.3364997 102.4999988
  80.2900012  69.4234997 102.8979988  81.1540012  70.6264997 101.2159988
  80.6570832  70.0866063 100.5219605  81.7578374  71.3863005 100.9363815
  83.7920012  74.5174997 103.0899988  83.1760012  75.5804997 103.1039988
  84.9680012  74.3874997 102.4909988  85.4683852  73.5106147 102.5190682
  85.6210012  75.5394997 101.8669988  85.6889026  76.3594012 102.5820163
  87.0290012  75.1694997 101.4149988  87.5153477  74.5592835 102.1760523
  86.9911382  74.6167108 100.4763343  87.9170012  76.3494997 101.1809988
  88.1310012  77.3204997 102.1389988  87.7183400  77.3217409 103.0608496
  88.9540012  78.2344997 101.6549988  89.2459421  79.0928353 102.2600850
  89.2850012  77.8894997 100.4239988  88.6480012  76.7144997 100.1029988
  88.7942810  76.2660868  99.1203344  84.8070012  76.1174997 100.7189988
  84.7880012  77.3364997 100.5449988  84.1720012  75.2584997  99.9229988
  84.3840049  74.2739794  99.9996380  83.3090012  75.7024997  98.8159988
  82.8977702  74.8264586  98.3144608  82.1460012  76.5804997  99.3029988
  82.6711674  77.3994444  99.7945567  81.6350089  76.9571379  98.4169228
  81.1200012  75.9814997 100.2669988  81.6428070  75.4935982 101.0896330
  80.2210012  77.0764997 100.8169988  79.6974731  77.5645856  99.9949347
  79.4940056  76.6404790 101.5021733  80.8258365  77.8108975 101.3489146
  80.2960012  74.8894997  99.6049988  80.9556270  74.0902745  99.2670160
  79.5790935  74.4894215 100.3219940  79.7614566  75.3044885  98.7505133
  84.0040012  76.3664997  97.6219988  83.3870012  76.5434997  96.5769988
  85.2700012  76.7304997  97.7689988  85.7572997  76.6013253  98.6441864
  85.9790012  77.3674997  96.6739988  85.4080451  78.2258014  96.3198426
  87.3520012  77.8474997  97.1199988  87.2563819  78.1967032  98.1481102
  88.0225946  76.9887402  97.0893949  87.9170012  78.9604997  96.2589988
  88.7987939  79.3621492  96.7582182  88.2065590  78.5337436  95.2987188
  86.7340012  80.2924997  95.9829988  86.5160012  80.9214997  97.6459988
  87.4744189  81.2682225  98.0324153  85.8091128  81.7510771  97.6314809
  86.1316294  80.1284871  98.2874741  86.0950012  76.3694997  95.5519988
  85.9500012  76.7124997  94.3819988  86.3460012  75.1214997  95.9149988
  86.4421224  74.8724791  96.8890875  86.5040012  74.0774997  94.9189988
  87.3080090  74.3310021  94.2280523  86.8530012  72.7674997  95.6119988
  85.9395456  72.2332107  95.8732142  87.4749785  72.1347538  94.9788503
  87.6070012  72.9714997  96.8839988  87.1410012  72.7754997  98.1499988
  86.1115571  72.4311437  98.2488105  88.1220012  73.0704997  99.0649988
  88.0299039  72.9993205 100.0682690  89.2450012  73.4764997  98.3969988
  90.4840012  73.8774997  98.8859988  90.6409873  73.8895372  99.9645669
  91.4350012  74.2344997  97.9709988  92.4165346  74.5571922  98.3182186
  91.1810012  74.1964997  96.5969988  91.9501972  74.4806757  95.8788895
  89.9530012  73.7994997  96.1079988  89.8072763  73.7773020  95.0280116
  88.9570012  73.4314997  97.0189988  85.2240012  73.9174997  94.1359988
  85.2480012  73.7114997  92.9259988  84.0980012  74.0044997  94.8259988
  84.1076348  74.1243067  95.8288212  82.8160012  73.8704997  94.1619988
  82.7750589  72.9325068  93.6082910  81.7030012  73.8734997  95.1939988
  81.8227075  74.7573962  95.8204942  80.7567616  73.9352189  94.6564846
  81.7090012  72.6424997  96.0579988  81.2910012  71.4264997  95.5579988
  80.9512792  71.3710184  94.5237791  81.2980012  70.2974997  96.3399988
  80.9667122  69.3434744  95.9298948  81.7250012  70.3734997  97.6419988
  81.7260012  69.2454997  98.4199988  81.4105466  68.4679197  97.9536754
  82.1490012  71.5724997  98.1659988  82.4891396  71.6377273  99.1995130
  82.1410012  72.6964997  97.3719988  82.4788290  73.6511105  97.7753479
  82.6070012  74.9764997  93.1489988  82.0880012  74.7394997  92.0619988
  83.0210012  76.1844997  93.4969988  83.3979939  76.3662979  94.4161969
  82.8890012  77.2974997  92.5749988  81.8492282  77.3832282  92.2593691
  83.3110012  78.6104997  93.2229988  84.3550783  78.5002636  93.5160007
  83.2259023  79.3959343  92.4720323  82.4850012  78.9794997  94.4329988
  81.1400012  78.6454997  94.5079988  80.6844876  78.1116804  93.6739461
  80.3820012  78.9764997  95.6109988  79.3280717  78.7024196  95.6580589
  80.9620012  79.6604997  96.6539988  80.2060012  79.9934997  97.7529988
  79.2944003  79.7005620  97.6839260  82.2950012  80.0084997  96.6039988
  82.7559025  80.5465100  97.4323798  83.0470012  79.6714997  95.4959988
  84.0998344  79.9493926  95.4468269  83.7180012  77.0224997  91.3389988
  83.3040012  77.3364997  90.2289988  84.8950012  76.4374997  91.5259988
  85.2414890  76.2375647  92.4533992  85.7420012  76.1104997  90.3869988
  85.9182595  77.0088616  89.7954094  87.0900012  75.5544997  90.8439988
  86.9212943  74.6892667  91.4850987  87.6961622  75.2588797  89.9876825
  87.9140012  76.5234997  91.6389988  87.8780012  77.8794997  91.3599988
  87.2396312  78.2408437  90.5537642  88.6390012  78.7704997  92.0899988
  88.5942532  79.8367069  91.8679619  89.4580012  78.3094997  93.1029988
  90.0652526  79.0090701  93.6774087  89.5060012  76.9584997  93.3869988
  90.1462384  76.5906741  94.1888097  88.7420012  76.0744997  92.6539988
  88.7852351  75.0071255  92.8706624  85.0770012  75.1044997  89.4619988
  85.1360012  75.2474997  88.2449988  84.4330012  74.0934997  90.0299988
  84.4017554  73.9978745  91.0349758  83.7910012  73.0674997  89.2179988
  84.5164598  72.6334237  88.5299674  83.2340012  71.9574997  90.1029988
  84.1082720  71.6253852  90.6628646  82.5251412  72.4293071  90.7834511
  82.5720012  70.7544997  89.4319988  81.7912794  71.1093526  88.7592032
  83.5950012  69.9544997  88.6429988  84.3758516  69.5988957  89.3152466
  83.1055986  69.1019055  88.1721813  84.0384112  70.5880304  87.8748017
  81.9030012  69.8784997  90.4789988  81.1446018  70.4568836  91.0066368
  81.4337544  69.0235669  89.9921737  82.6502990  69.5260728  91.1899420
  82.6790012  73.6564997  88.3749988  82.4990012  73.2794997  87.2229988
  81.9230012  74.5814997  88.9439988  82.1117248  74.9230381  89.8755750
  80.7910012  75.1304997  88.2279988  80.3969155  74.3134761  87.6236245
  80.0609208  75.4028949  88.9901555  81.0410012  76.3264997  87.3359988
  80.2360012  76.5924997  86.4509988  82.1240012  77.0644997  87.5519988
  82.7962629  76.8500960  88.2746291  82.3210012  78.2744997  86.7609988
  81.5440969  78.3499270  86.0001902  82.2510012  79.5154997  87.6569988
  82.7341188  79.3172952  88.6137702  82.7370440  80.3630871  87.1738239
  80.8510012  79.9434997  87.9649988  80.0030012  79.3764997  88.8689988
  80.3820013  78.5218341  89.4293607  78.8010012  80.0404997  88.8729988
  78.0056963  79.8156340  89.4535374  78.8560012  81.0594997  87.9589988
  77.8930012  82.0004997  87.6059988  76.9240607  81.9664936  88.1040917
  78.2280012  82.9154997  86.6479988  77.4994778  83.6682149  86.3467127
  79.4890012  82.9104997  86.0409988  79.7447229  83.6450034  85.2773168
  80.4470012  81.9764997  86.3899988  81.4150358  82.0153772  85.8905008
  80.1320012  81.0274997  87.3679988  83.6230012  78.3134997  85.9769988
  83.6930012  79.0534997  84.9899988  84.6500012  77.5634997  86.3589988
  84.5795230  76.9689755  87.1724318  85.8980012  77.5754997  85.6229988
  85.8867286  78.4272943  84.9429855  86.7149434  77.6907188  86.3353395
  86.1170012  76.3094997  84.8229988  86.6560012  76.3494997  83.7129988
  85.7020012  75.1764997  85.3839988  85.3551369  75.1640884  86.3324873
  85.8410012  73.9024997  84.6799988  86.8768170  73.7500158  84.3767937
  85.4290012  72.7564997  85.6069988  86.1533991  72.6597070  86.4156878
  84.4391229  72.9367023  86.0262457  85.3690012  71.4234997  84.9229988
  86.5020012  70.8824997  84.3429988  87.4405533  71.4345664  84.3924175
  86.4540012  69.6584997  83.7069988  87.3541047  69.2409207  83.2558423
  85.2660012  68.9644997  83.6429988  85.2236789  67.9988619  83.1391610
  84.1300012  69.4924997  84.2169988  83.1907817  68.9411576  84.1724010
  84.1810012  70.7184997  84.8479988  83.2798773  71.1401867  85.2932580
  85.0750012  73.8464997  83.3619988  85.6520012  73.3774997  82.3669988
  83.8110012  74.2804997  83.2679988  82.9820012  74.9824997  84.2649988
  83.5750472  75.7632478  84.7412644  82.6459051  74.2711038  85.0193557
  81.8460012  75.5354997  83.4529988  82.0917474  76.5455152  83.1250102
  80.9427027  75.5616534  84.0624815  81.6820012  74.6254997  82.3109988
  81.2541530  75.1457785  81.4540537  81.0591313  73.7670097  82.5622513
  83.1050012  74.1604997  81.9809988  83.1213079  73.1074143  81.7002079
  83.7130012  74.9884997  80.8679988  83.3550012  74.7864997  79.7019988
  84.6040012  75.9274997  81.1869988  84.7810164  76.1828620  82.1480165
  85.3020012  76.6604997  80.1369988  84.5824237  77.1137033  79.4551527
  86.1550012  77.7684997  80.7539988  85.4111004  78.4657425  81.1394379
  86.7162670  77.3408709  81.5847901  87.1120012  78.5094997  79.8209988
  87.5289016  77.8002939  79.1059309  86.3820012  79.6124997  79.0729988
  85.9651921  80.3223937  79.7874353  87.0799557  80.1286423  78.4137894
  85.5764654  79.1787928  78.4804527  88.2920012  79.0684997  80.5989988
  88.8301678  78.2519120  81.0803102  88.9619209  79.5924784  79.9172694
  87.9313456  79.7625605  81.3581470  86.1620012  75.7354997  79.2859988
  86.3160012  75.9664997  78.0819988  86.7180012  74.6864997  79.8859988
  86.5735494  74.5534485  80.8767209  87.6160012  73.7684997  79.1869988
  88.4151587  74.3132099  78.6842690  88.2270012  72.7394997  80.1549988
  87.4211519  72.1925360  80.6444250  89.1180012  71.7644997  79.4059988
  89.9244104  72.3107145  78.9166582  89.5405246  71.0451152  80.1074691
  88.5295983  71.2367548  78.6554212  89.0090012  73.4494997  81.2609988
  88.3075160  74.0921287  81.7930207  89.3828668  72.6815693  81.9382040
  90.1650012  74.2784997  80.7529988  89.7918398  75.0469938  80.0760444
  90.6713421  74.7511359  81.5946240  90.8671899  73.6364343  80.2212254
  86.8930012  73.0874997  78.0249988  87.4110012  73.1144997  76.8999988
  85.7210012  72.4674997  78.2169988  85.0300012  72.0814997  79.4619988
  84.4212012  72.9125051  79.8182190  85.7635664  71.8166165  80.2234566
  84.2080012  70.9114997  79.0319988  83.3529798  70.7843835  79.6959859
  84.8101088  70.0029106  79.0377951  83.7780012  71.2524997  77.6549988
  82.9184351  71.9221869  77.6826436  83.5321274  70.3708142  77.0631572
  84.9840012  71.9764997  77.0399988  85.6352039  71.2836490  76.5070905
  84.5530012  73.0884997  76.1009988  84.4980012  72.8734997  74.8839988
  84.2480012  74.2734997  76.6319988  84.2970179  74.4270709  77.6290507
  83.7660012  75.3604997  75.7879988  83.0005649  74.9668744  75.1192195
  83.1440012  76.4564997  76.6499988  83.9006429  76.8667945  77.3187673
  82.7584809  77.2490265  76.0086130  82.3281984  76.0372339  77.2388801
  84.8790012  75.9294997  74.9179988  84.6680012  76.1984997  73.7309988
  86.0720012  76.1244997  75.4889988  86.2241004  75.9597928  76.4738017
  87.1780012  76.6524997  74.6969988  86.8463461  77.5258226  74.1353839
  88.3360012  77.0664997  75.6049988  89.1271322  77.5286356  75.0145402
  87.9862489  77.7722124  76.3584859  89.1130012  75.7124997  76.5099988
  90.0131847  76.4635811  77.1380469  87.6530012  75.6424997  73.6619988
  88.1420012  76.0334997  72.5959988  87.5240012  74.3474997  73.9569988
  87.2386478  74.0529327  74.8799847  87.8670012  73.3204997  72.9779988
  88.8675343  73.4758317  72.5743843  87.7830012  71.9214997  73.6169988
  86.9133362  71.8864267  74.2731642  87.6560012  70.8474997  72.5509988
  88.5255871  70.8816496  71.8946797  87.5983223  69.8682262  73.0261802
  86.7528055  71.0206142  71.9658764  89.0060012  71.6604997  74.4969988
  89.8810526  71.6584508  73.8470899  89.0812565  72.4865011  75.2042170
  88.9380012  70.3524997  75.2549988  88.8631949  69.5259407  74.5483842
  89.8383599  70.2340957  75.8578536  88.0633968  70.3539903  75.9055100
  86.9600012  73.4314997  71.7589988  87.4180012  73.3604997  70.6119988
  85.6610012  73.6274997  71.9909988  85.3048676  73.6942189  72.9337696
  84.7090012  73.6844997  70.8859988  84.8184784  72.8048483  70.2517060
  83.2820012  73.7194997  71.4299988  83.1636733  72.9774606  72.2196036
  83.0555097  74.7095802  71.8256530  82.2380012  73.4204997  70.4019988
  81.7690012  74.3674997  69.5189988  82.0811446  75.3275745  69.4886258
  80.8590012  73.8214997  68.7319988  80.3659592  74.4115908  67.9594698
  80.7200012  72.5524997  69.0749988  81.5710012  72.2764997  70.1159988
  81.6034761  71.2738119  70.5422191  84.9680012  74.8854997  69.9869988
  84.6900012  74.8344997  68.7839988  85.4900012  75.9754997  70.5519988
  85.6395462  76.0304560  71.5493530  85.7970012  77.1484997  69.7409988
  84.9006103  77.4423706  69.1949013  86.2250012  78.3094997  70.6379988
  87.1267804  78.0336811  71.1846415  86.4267822  79.1878058  70.0248405
  85.4271293  78.5362249  71.3451730  86.8760012  76.8414997  68.7099988
  86.7740012  77.2584997  67.5499988  87.9150012  76.1094997  69.1099988
  88.0046924  75.7957751  70.0658396  89.0060012  75.8264997  68.1839988
  89.0637142  76.5816269  67.4000656  90.3450012  75.7674997  68.9379988
  91.1417134  75.5395164  68.2299213  90.6330012  77.0994997  69.6129988
  89.8368993  77.3279563  70.3216101  91.5840889  77.0410716  70.1422614
  90.6847271  77.8855204  68.8596098  90.3360012  74.6364997  69.9679988
  89.6292033  74.9147378  70.7497411  89.9818274  73.7386866  69.4614496
  91.6900012  74.3654997  70.5859988  92.0446423  75.2627819  71.0931616
  91.6050400  73.5514529  71.3058659  92.3972673  74.0867327  69.8048691
  88.7500012  74.5454997  67.3989988  89.2220012  74.4084997  66.2639988
  88.0070012  73.5944997  67.9679988  87.6698587  73.6965640  68.9145806
  87.7140012  72.3544997  67.2599988  88.6443052  71.9985268  66.8173738
  87.2010012  71.2954997  68.2369988  86.2650001  71.6336170  68.6816096
  87.0322788  70.3598812  67.7038468  87.9395986  71.1371993  69.0228194
  86.7050012  72.5414997  66.1359988  86.5490012  71.6334997  65.3129988
  86.0230012  73.6814997  66.0809988  86.1751496  74.3795050  66.7949587
  85.0200012  73.9464997  65.0589988  84.6622986  73.0081917  64.6350574
  83.8310012  74.6914997  65.6709988  83.3934880  74.0317372  66.4202617
  84.2296868  75.5808328  66.1590934  82.7650012  75.0984997  64.6719988
  83.0292136  76.0709349  64.2564722  82.7351987  74.3582701  63.8724526
  81.4020012  75.1844997  65.3319988  81.5271027  75.5713023  66.3433505
  80.7775633  75.8680827  64.7567675  80.7330012  73.8904997  65.4059988
  81.3093488  73.0719715  65.5399185  79.4180012  73.7304997  65.3069988
  78.8880012  72.5194997  65.3859988  79.4866630  71.7174632  65.5217987
  77.8875601  72.4035064  65.3100849  78.6330012  74.7834997  65.1279988
  79.0378245  75.7068224  65.0672266  77.6336671  74.6576560  65.0532090
  85.5650012  74.7454997  63.8849988  85.2610012  74.4274997  62.7319988
  86.3780012  75.7694997  64.1489988  86.6118940  76.0034800  65.1032769
  86.9010012  76.6144997  63.0819988  86.0912241  76.9286208  62.4234487
  87.5590012  77.8604997  63.6759988  86.7822012  78.5028673  64.0907816
  88.2381227  77.5527107  64.4710836  88.2820012  78.5724997  62.6869988
  88.6853676  79.3487936  63.0822999  87.8950012  75.8924997  62.1849988
  88.2480012  76.4264997  61.1279988  88.3560012  74.7044997  62.5739988
  88.0582194  74.3246095  63.4611903  89.3310012  73.9534997  61.7929988
  89.8259490  74.6124697  61.0796375  90.3930012  73.3494997  62.7209988
  89.8217934  72.6589746  63.3414792  91.1002965  72.7883664  62.1102920
  91.1560012  74.3264997  63.6159988  90.4819758  74.7020713  64.3858926
  92.3400012  73.6344997  64.2729988  93.0147531  73.2590406  63.5036880
  92.8712457  74.3450818  64.9062073  91.9839027  72.8026442  64.8807083
  91.6140012  75.5434997  62.8249988  90.7459269  76.0547853  62.4089057
  92.1542580  76.2233928  63.4837621  92.2702837  75.2251214  62.0150436
  88.6960012  72.8544997  60.9519988  89.1040012  72.6404997  59.8059988
  87.7050012  72.1474997  61.4939988  87.3545023  72.3915376  62.4092558
  87.1420012  70.9794997  60.8269988  87.7620060  70.7041243  59.9738507
  87.0850012  69.7904997  61.7959988  86.4434708  70.0847893  62.6266200
  86.6230989  68.9639917  61.2559701  88.4330012  69.3534997  62.3299988
  89.6130012  69.7764997  61.7319988  89.5545813  70.4317729  60.8629167
  90.8410012  69.3834997  62.2169988  91.7575806  69.7244818  61.7356308
  90.9070012  68.5544997  63.3139988  92.1350012  68.1654997  63.7949988
  92.8672801  68.5293640  63.2920376  89.7520012  68.1174997  63.9289988
  89.8021732  67.4607804  64.7975050  88.5250012  68.5184997  63.4359988
  87.6073114  68.1790939  63.9163625  85.7540012  71.2194997  60.2489988
  85.4840012  70.8104997  59.1159988  84.8640012  71.8704997  60.9949988
  85.1498691  72.2181594  61.8991622  83.4710012  72.0474997  60.5939988
  83.3656416  71.8321048  59.5307003  82.5580012  71.1064997  61.3749988
  83.0399774  70.1288640  61.3801578  82.4893780  71.4825693  62.3957644
  81.1710012  70.9804997  60.7909988  80.9830012  70.5424997  59.4879988
  81.8564040  70.2863560  58.8882844  79.7170012  70.4284997  58.9479988
  79.5832594  70.0786843  57.9243561  78.6190012  70.7594997  59.7119988
  77.3550012  70.6484997  59.1789988  77.3565904  70.3326148  58.2724592
  78.7800012  71.2014997  61.0059988  77.9112909  71.4656082  61.6090656
  80.0490012  71.3094997  61.5389988  80.1821087  71.6579389  62.5631924
  83.0390012  73.4944997  60.7819988  82.0010012  73.7924997  61.3769988
  83.8450012  74.4254997  60.2779988  84.7097971  74.1581363  59.8299539
  83.5400012  75.8484997  60.4009988  83.2596007  76.0792404  61.4287310
  84.7570012  76.6874997  60.0279988  85.6127300  76.3433777  60.6088666
  84.9620133  76.5536417  58.9658537  84.5500012  78.1644997  60.2989988
  83.8760012  78.5434997  61.2569988  85.1320012  79.0074997  59.4539988
  85.0275079  80.0032840  59.5866427  85.6764762  78.6490063  58.6825520
  82.3490012  76.1754997  59.5109988  82.4900012  76.3554997  58.2999988
  81.1650012  76.2544997  60.1119988  81.0977806  76.0469845  61.0981621
  79.9420012  76.5544997  59.3859988  80.0519137  76.2700475  58.3395259
  78.7700012  75.7784997  59.9819988  78.8248130  75.8701231  61.0667568
  77.8464974  76.2347772  59.6255557  78.7900012  74.3144997  59.5979988
  79.8950012  73.7454997  59.4789988  77.7010012  73.7324997  59.4129988
  79.6910012  78.0604997  59.3979988  80.5540012  78.8544997  59.7829988
  78.4980012  78.4704997  58.9739988  77.8269073  77.7960886  58.6350267
  78.1410012  79.8854997  58.9279988  78.9547944  80.4574897  58.4822778
  76.8850012  80.0914997  58.0899988  76.8440462  79.3257400  57.3153801
  76.0159396  79.9959615  58.7409247  76.8460012  81.4534997  57.4269988
  75.8750012  81.8004997  56.7579988  77.9020012  82.2354997  57.6169988
  77.9283452  83.1539964  57.1977500  78.6741165  81.9082866  58.1799112
  77.9500012  80.3854997  60.3529988  76.9130012  80.1474997  60.9759988
  78.9690012  81.0754997  60.8689988  79.7886507  81.1884878  60.2897686
  79.0200012  81.5674997  62.2489988  80.0521049  81.8008855  62.5105175
  78.1710012  82.8334997  62.4259988  78.5259214  83.3914008  63.2925305
  78.2549667  83.4554437  61.5347999  76.3830012  82.6414997  62.5839988
  78.6330012  80.4814997  63.2529988  78.0140012  80.7444997  64.2859988
  79.0230012  79.2414997  62.9449988  79.3558843  79.0622436  62.0084330
  78.9160012  78.1134997  63.8709988  79.2520385  77.2024766  63.3758067
  79.7790012  78.3404997  65.1169988  79.4485351  79.2391729  65.6378422
  79.6990773  77.4834708  65.7857392  81.2390012  78.5244997  64.8279988
  81.8600012  78.4094997  63.6179988  81.2312382  78.1552838  62.7646927
  83.2050012  78.6514997  63.7509988  83.8835236  78.6284918  63.0032171
  83.4780012  78.9284997  65.0649988  84.6860012  79.2334997  65.6859988
  85.5899564  79.2704715  65.0780542  84.6600012  79.4694997  67.0329988
  85.5862924  79.7124643  67.5536259  83.4680012  79.4064997  67.7629988
  83.4607888  79.5961150  68.8363550  82.2680012  79.1034997  67.1499988
  81.3671936  79.0711565  67.7628612  82.2620012  78.8564997  65.7729988
  77.4740012  77.8274997  64.2789988  77.1920012  77.5734997  65.4519988
  76.5470012  77.8634997  63.3259988  76.7800220  78.1658779  62.3909223
  75.1550012  77.5364997  63.6209988  75.0588734  77.2349181  64.6640267
  74.2280012  78.7324997  63.3459988  74.3190094  79.0177217  62.2979214
  72.7830012  78.3674997  63.6479988  72.6911080  78.0825915  64.6960845
  72.1414698  79.2256485  63.4477019  72.4791945  77.5322586  63.0169891
  74.6490012  79.9314997  64.1939988  75.6733481  80.1802684  63.9166395
  73.9908503  80.7600038  63.9322396  74.5770012  79.6824997  65.6819988
  75.2352908  78.8543733  65.9446035  74.8908849  80.5790679  66.2165468
  73.5527928  79.4341062  65.9602032  74.7380012  76.3204997  62.8059988
  74.2890012  76.4484997  61.6619988  74.8960012  75.1314997  63.3849988
  75.3540428  75.0583329  64.2821854  74.4580012  73.9024997  62.7289988
  73.4896519  74.0649240  62.2556943  75.4560012  73.4734997  61.6609988
  75.4067556  74.1804839  60.8328397  76.4570143  73.4888298  62.0920879
  75.1670012  72.1734997  61.1879988  75.8084203  71.9269666  60.5176236
  74.3000012  72.8314997  63.7979988  75.3000012  72.3194997  64.3079988
  73.0580012  72.4964997  64.1339988  72.2770452  72.9802388  63.7142326
  72.7810012  71.4934997  65.1619988  73.6524476  71.3685812  65.8047084
  71.6000012  71.9344997  66.0219988  71.4577864  71.2054397  66.8197116
  71.8288669  72.9076329  66.4564319  70.4150012  72.0284997  65.2519988
  69.6888878  72.3069250  65.8148829  72.5300012  70.1254997  64.5309988
  71.4990012  69.4874997  64.7449988  73.4990012  69.6734997  63.7359988
  74.2781594  70.2662788  63.4877556  73.4320012  68.3364997  63.1509988
  72.7198293  67.7266120  63.7068292  72.9780012  68.4094997  61.6889988
  72.7480744  67.3982575  61.3534065  72.0745853  69.0182472  61.6520370
  74.0300012  69.0134997  60.7849988  74.4260012  70.1704997  61.0269988
  74.4650012  68.3284997  59.8349988  74.7360012  67.5604997  63.2139988
  74.6950012  66.3274997  63.1339988  75.8860012  68.2144997  63.3529988
  75.8905271  69.2192411  63.4558262  77.1620012  67.5194997  63.3199988
  77.1733388  66.8068439  62.4953216  78.3090012  68.5084997  63.1259988
  78.1319956  69.0848612  62.2179367  78.4010012  69.4504997  64.3129988
  78.5784751  68.8748609  65.2214274  79.2232662  70.1494631  64.1599321
  77.4674081  70.0044699  64.4110882  79.5430012  67.7944997  62.9999988
  80.2625569  68.4181913  62.8781443  77.3810012  66.7244997  64.6039988
  76.7340012  66.9464997  65.6319988  78.3130012  65.7794997  64.5289988
  78.6983562  65.5360864  63.6276937  78.7620012  65.0344997  65.6949988
  77.9563959  64.9641608  66.4258556  79.1760012  63.6194997  65.2859988
  80.0461130  63.6606890  64.6307827  79.4139662  63.0252303  66.1682213
  78.1140012  62.8734997  64.5409988  78.1540012  62.6874997  63.1759988
  78.8859241  63.0303039  62.5702977  77.0930012  61.9974997  62.7979988
  76.9407204  61.7468875  61.7481878  76.3670012  61.7274997  63.8669988
  76.9840012  62.2634997  64.9709988  76.5354362  62.1449835  65.9573276
  79.9130012  65.7224997  66.4129988  80.3180012  65.2664997  67.4869988
  80.4460012  66.8064997  65.8439988  80.1442267  67.1145603  64.9306915
  81.5260012  67.5364997  66.4979988  82.3171259  66.8477239  66.7943242
  82.1130012  68.5704997  65.5379988  82.4799037  67.9685894  64.7066230
  81.3024695  69.2117627  65.1917038  83.2500012  69.4354997  66.0809988
  83.0028314  69.7452047  67.0964252  84.5560012  68.6624997  66.0919988
  84.8040843  68.3528361  65.0767835  85.3513736  69.2974904  66.4822168
  84.4518642  67.7812037  66.7249074  83.3840012  70.7054997  65.2629988
  82.4531673  71.2704286  65.3130282  84.1978108  71.3110529  65.6618979
  83.5974713  70.4491002  64.2253144  81.0470012  68.2054997  67.7799988
  81.7980012  68.2944997  68.7579988  79.8010012  68.6744997  67.7979988
  79.2330859  68.6193190  66.9646161  79.2490012  69.3474997  68.9669988
  79.9662941  70.0714149  69.3536987  77.9600012  70.0884997  68.5889988
  77.7039733  70.5488816  69.5432511  78.2478568  70.8630332  67.8781282
  76.7450012  69.3244997  68.0479988  77.1126069  68.5283542  67.4006046
  75.8860012  68.7234997  69.1539988  75.5176271  69.5191388  69.8015771
  75.0412888  68.1950256  68.7120972  76.4838036  68.0258501  69.7405290
  75.9110012  70.2334997  67.1589988  76.5173844  70.5800893  66.3221747
  75.0507174  69.6819590  66.7797678  75.5662134  71.0909787  67.7368829
  78.9940012  68.3994997  70.1309988  78.6080012  68.8624997  71.2089988
  79.1940012  67.0924997  69.9449988  79.3787856  66.7209770  69.0241703
  79.0910012  66.1584997  71.0589988  78.1294826  66.2822598  71.5572605
  79.2010012  64.7164997  70.5599988  80.0724979  64.6809897  69.9062926
  79.3719340  64.0790247  71.4274708  77.9870012  64.2264997  69.8069988
  76.7860012  64.9174997  69.8609988  76.7291192  65.8291389  70.4557910
  75.6730012  64.4684997  69.1769988  74.7356189  65.0228849  69.2225335
  75.7540012  63.3114997  68.4319988  74.6490012  62.8574997  67.7479988
  73.8804639  63.4217465  67.8601394  76.9340012  62.6044997  68.3679988
  76.9973890  61.6886106  67.7804363  78.0410012  63.0624997  69.0539988
  78.9779279  62.5072593  69.0095412  80.1430012  66.4044997  72.1299988
  79.9860012  65.9114997  73.2509988  81.2060012  67.1504997  71.8179988
  81.3537932  67.4587040  70.8675952  82.2150012  67.4804997  72.8159988
  82.5056506  66.5859372  73.3667984  83.4560012  68.0914997  72.1379988
  84.2495224  68.1992640  72.8774656  83.9330012  67.1974997  71.0129988
  83.1401238  67.0896292  70.2728568  84.8104481  67.6413179  70.5426658
  84.1923193  66.2170299  71.4124136  83.1360012  69.4784997  71.5889988
  82.3743111  69.3618552  70.8180753  82.7344473  70.0744816  72.4085472
  84.3350012  70.1714997  71.0069988  84.7368576  69.5762985  70.1870311
  84.0423938  71.1528369  70.6335589  85.0969951  70.2889228  71.7775031
  81.6910012  68.4234997  73.8859988  82.3680012  68.6394997  74.8959988
  80.5090012  69.0014997  73.6829988  80.0928114  68.9485796  72.7642578
  79.8280012  69.7794997  74.7039988  80.4871838  69.9736484  75.5500979
  79.3250012  71.1194997  74.1259988  78.8467291  70.9296767  73.1651016
  78.3300012  71.7744997  75.0649988  78.8077164  71.9650675  76.0260256
  77.9903559  72.7169545  74.6354401  77.4759028  71.1128326  75.2092620
  80.5020012  72.0554997  73.8599988  81.1708840  71.5495466  73.1637890
  80.1041261  72.9557042  73.3915687  81.2650012  72.4324997  75.1059988
  81.6635990  71.5327884  75.5747623  82.0865187  73.0984880  74.8420523
  80.5968399  72.9389443  75.8025433  78.6840012  68.9934997  75.3309988
  78.5020012  69.0234997  76.5499988  77.9210012  68.2704997  74.5189988
  78.0894419  68.3110161  73.5239684  76.8050012  67.4674997  74.9979988
  76.3269916  67.9590818  75.8453198  75.7690012  67.2954997  73.8839988
  76.2422999  66.8552449  73.0063523  74.9520445  66.6545874  74.2155307
  75.1490012  68.5824997  73.4359988  73.9750012  69.0684997  73.9679988
  73.4394678  68.6086549  74.6903882  73.6710012  70.2154997  73.3869988
  72.7702713  70.7606169  73.6691899  74.6090012  70.4924997  72.4999988
  75.5460012  69.4884997  72.5129988  76.4072495  69.5381401  71.8467493
  77.2370012  66.1024997  75.5169988  76.3910012  65.3404997  75.9919988
  78.5240012  65.7764997  75.4319988  79.1734413  66.4131985  74.9927477
  79.0330012  64.5304997  75.9509988  78.2417140  63.7839788  75.8826584
  79.8764512  64.2227992  75.3329277  79.4900012  64.6344997  77.3929988
  79.0540012  63.8694997  78.2579988  80.3930012  65.5804997  77.6819988
  81.2730012  66.3124997  76.7539988  80.7069960  67.1083475  76.2698867
  81.6531023  65.6258180  75.9976322  82.3590012  66.8384997  77.6469988
  82.7057188  67.7990353  77.2658726  83.1891377  66.1322353  77.6598573
  81.7610012  66.9754997  78.9939988  81.2337509  67.9260287  79.0752440
  82.4962952  66.8988457  79.7949772  80.7620012  65.8154997  79.0879988
  81.2343807  64.9080383  79.4641234  79.5720012  66.1634997  79.9599988
  79.5310012  65.7764997  81.1349988  78.5960012  66.8894997  79.4119988
  78.7126146  67.3129801  78.5025127  77.3640012  67.1584997  80.1479988
  77.5731658  67.5677992  81.1363425  76.4780012  68.1404997  79.3639988
  76.5960283  67.9456585  78.2980687  75.0190012  67.9784997  79.7489988
  74.9001010  68.1736508  80.8147752  74.4123534  68.6838837  79.1810968
  74.6951554  66.9614451  79.5280392  76.9420012  69.5744997  79.6039988
  76.7077048  69.8258093  80.6384307  78.0223058  69.5975390  79.4607839
  76.2940012  70.5734997  78.6869988  75.2136469  70.5513667  78.8299839
  76.6694780  71.5715915  78.9126733  76.5282463  70.3230948  77.6523363
  76.6360012  65.8534997  80.4399988  76.1450012  65.6284997  81.5529988
  76.5650012  64.9664997  79.4439988  76.8582723  65.2032021  78.5069484
  75.9960012  63.6444997  79.6769988  74.9939936  63.7394224  80.0954121
  75.9050012  62.8694997  78.3619988  75.6386561  63.5390735  77.5441782
  76.8561013  62.3856745  78.1396886  74.6630012  61.5574997  78.3599988
  74.8898076  61.1532586  77.1133849  76.8110012  62.8664997  80.6989988
  76.2410012  62.1714997  81.5469988  78.1400012  62.9694997  80.6359988
  78.5935830  63.4192040  79.8536121  78.9770012  62.3744997  81.6719988
  78.7400939  61.3140910  81.7586447  80.4530012  62.5164997  81.3019988
  80.7076521  63.5731987  81.2205125  81.0677783  62.0536238  82.0739413
  80.6377834  62.0240988  80.3472757  78.6970012  63.0124997  83.0269988
  78.6230012  62.3204997  84.0469988  78.5380012  64.3384997  83.0519988
  78.7049712  64.9006592  82.2296868  78.1760012  65.0164997  84.2909988
  78.8942334  64.7403122  85.0629846  78.2240012  66.5314997  84.0989988
  77.5035809  66.8244797  83.3352858  77.9774194  67.0253678  85.0388881
  79.2252948  66.8270060  83.7856519  76.7980012  64.5914997  84.7749988
  76.5650012  64.5004997  85.9859988  75.8700012  64.3424997  83.8499988
  76.0475512  64.5205112  82.8717926  74.5500012  63.8584997  84.2359988
  74.1084377  64.5256333  84.9763052  73.6350012  63.8114997  83.0139988
  73.5982908  64.8523034  82.6923171  74.0987342  63.2069755  82.2345103
  72.2140012  63.3074997  83.2719988  72.2478645  62.5334116  84.0386420
  71.3170012  64.4444997  83.7389988  71.2822693  65.2188167  82.9726270
  70.3109198  64.0646770  83.9168632  71.7143620  64.8656210  84.6625038
  71.6480012  62.6254997  82.0369988  72.2773863  61.7767547  81.7694061
  70.6368873  62.2758854  82.2456131  71.6232984  63.3341296  81.2091507
  74.6370012  62.4844997  84.8879988  73.9930012  62.2284997  85.9129988
  75.4330012  61.5854997  84.3069988  75.9631480  61.8192931  83.4797236
  75.5040012  60.2194997  84.8099988  74.5035371  59.8585496  85.0485065
  76.1170012  59.2984997  83.7529988  76.7639741  59.9728100  83.1919009
  76.7257349  58.5498055  84.2599508  75.1480012  58.6024997  82.7909988
  75.7209192  58.0246011  82.0658098  74.2160012  57.6744997  83.5559988
  73.6423727  58.2517902  84.2811090  73.5341328  57.1878601  82.8586192
  74.8028758  56.9180953  84.0770852  74.3520012  59.6024997  81.9659988
  75.0355157  60.2148908  81.3778794  73.6774749  59.0675462  81.2974628
  73.7718603  60.2425915  82.6306927  76.2900012  60.1174997  86.1099988
  75.9200012  59.3284997  86.9879988  77.3670012  60.8934997  86.2569988
  77.7087890  61.4714689  85.5025241  78.1410012  60.8414997  87.4949988
  78.3795987  59.8219722  87.7978752  79.4580012  61.6324997  87.3449988
  79.9852662  61.2728960  86.4613835  79.1830012  63.1134997  87.1999988
  78.6561274  63.4739489  88.0835039  80.1259845  63.6501750  87.0957756
  78.5685271  63.2846442  86.3161250  80.3850012  61.3644997  88.5219988
  80.6172246  60.3004887  88.5673299  81.3069780  61.9320172  88.3955782
  79.8956269  61.6687858  89.4472142  77.3060012  61.3384997  88.6659988
  77.5420012  60.9504997  89.8169988  76.3180012  62.1974997  88.4009988
  76.2406589  62.6509861  87.5018505  75.3520012  62.5464997  89.4369988
  75.8718525  62.9382610  90.3112852  74.3850012  63.6134997  88.9249988
  74.3073288  63.5153806  87.8422066  73.4051745  63.4536821  89.3749967
  74.8430012  65.0154997  89.2509988  74.6680012  65.9354997  88.4559988
  75.4430012  65.1834997  90.4219988  75.7697022  66.1003753  90.6916380
  75.5703938  64.3937703  91.0386020  74.5880012  61.3134997  89.8979988
  74.4060012  61.0954997  91.1009988  74.1430012  60.4854997  88.9509988
  74.2522506  60.7030820  87.9707836  73.4250012  59.2704997  89.3129988
  72.5750800  59.5160387  89.9497434  72.9080012  58.5704997  88.0569988
  73.7952639  58.4524626  87.4349608  72.5252233  57.5880085  88.3332095
  71.8370012  59.3334997  87.2769988  72.2188367  60.3242049  87.0304109
  71.4770012  58.5964997  85.9969988  71.0946282  57.6058116  86.2428176
  70.7133694  59.1564834  85.4571974  72.3645248  58.4980328  85.3719336
  70.6070012  59.5494997  88.1399988  70.8795862  60.1254394  89.0243575
  69.8538966  60.0939675  87.5703589  70.2030634  58.5844115  88.4458389
  74.3020012  58.3284997  90.1249988  73.8170012  57.6814997  91.0599988
  75.5890012  58.2384997  89.7879988  75.9430261  58.6881402  88.9557794
  76.5090012  57.4314997  90.5829988  76.1294021  56.4142379  90.6788226
  77.8780012  57.3804997  89.8989988  77.8271980  56.7677463  88.9989701
  78.1992017  58.3879283  89.6343898  78.9620012  56.7954997  90.7559988
  79.0140012  55.4334997  91.0019988  78.2548392  54.7842923  90.5657618
  80.0130012  54.8954997  91.7899988  80.0421143  53.8220333  91.9768761
  80.9750012  55.7184997  92.3409988  81.7648614  55.2972184  92.9628853
  80.9350012  57.0764997  92.1029988  81.6924718  57.7293057  92.5367990
  79.9350012  57.6084997  91.3149988  79.9033292  58.6813781  91.1251867
  76.6330012  57.9774997  91.9989988  76.5750012  57.2234997  92.9779988
  76.8040012  59.2934997  92.1289988  76.8727896  59.8948355  91.3204428
  76.9620012  59.8904997  93.4499988  77.6439938  59.2901660  94.0521488
  77.5370012  61.3014997  93.3209988  77.3242255  61.7036397  92.3304892
  77.1016882  61.9533585  94.0784172  79.0260012  61.3684997  93.5009988
  79.5870012  61.2794997  94.7639988  78.9345935  61.1600303  95.6289792
  80.9570012  61.3404997  94.9349988  81.3857133  61.2685585  95.9345642
  81.7820012  61.4924997  93.8399988  82.8629263  61.5415481  93.9715096
  81.2360012  61.5824997  92.5759988  81.8842635  61.7030508  91.7080566
  79.8630012  61.5194997  92.4109988  79.4302493  61.5891056  91.4130104
  75.6410012  59.9184997  94.2079988  75.5830012  59.5654997  95.3919988
  74.5610012  60.3294997  93.5379988  74.6029440  60.5462513  92.5524234
  73.3020012  60.5504997  94.2419988  73.4806040  61.1118495  95.1591065
  72.3420012  61.3484997  93.3599988  72.9852751  62.0923616  92.8899272
  71.9599206  60.6669825  92.5999666  71.1710012  62.0504997  94.0499988
  71.4572967  62.3044999  95.0705964  70.8040012  63.3164997  93.2979988
  70.5171277  63.0632385  92.2773807  69.9693928  63.8077943  93.7981579
  71.6615060  63.9890826  93.2775537  69.9700012  61.1294997  94.1489988
  70.2368769  60.2443602  94.7264110  69.1507827  61.6517069  94.6432477
  69.6580113  60.8296081  93.1485857  72.6670012  59.2374997  94.6839988
  72.1330012  59.1474997  95.7949988  72.7060012  58.2124997  93.8279988
  73.1044772  58.3050238  92.9045512  72.0980012  56.9364997  94.1949988
  71.0661517  57.0935709  94.5091874  72.1050012  55.9844997  93.0009988
  73.0709239  56.1677565  92.5303509  72.0689543  54.9587309  93.3678762
  70.9900012  56.1984997  91.9759988  71.0739431  57.2067960  91.5705446
  71.0940012  55.1874997  90.8449988  71.0096761  54.1789126  91.2496471
  70.2908064  55.3592648  90.1284266  72.0561798  55.2985630  90.3450212
  69.6260012  56.1244997  92.6429988  69.5531332  56.8966333  93.4088965
  68.8470324  56.2793287  91.8964488  69.4984130  55.1444012  93.1025934
  72.8110012  56.3114997  95.3869988  72.1790012  55.6564997  96.2229988
  74.1280012  56.4994997  95.4789988  74.6528776  56.9163355  94.7234513
  74.8560012  56.0444997  96.6579988  74.6631876  54.9853048  96.8283759
  76.3580012  56.2414997  96.4589988  76.5729820  56.2351729  95.3904285
  76.6452953  57.2044737  96.8811871  77.1790012  55.1574997  97.1239988
  76.7780012  54.5944997  98.1439988  78.3380012  54.8564997  96.5519988
  78.9254727  54.1403750  96.9546680  78.6272901  55.3449231  95.7166214
  74.3790012  56.7744997  97.9059988  74.3050012  56.1844997  98.9919988
  74.0540012  58.0614997  97.7709988  74.2404764  58.5558984  96.9102455
  73.4930012  58.8104997  98.8919988  74.1200270  58.6940326  99.7759519
  73.3820012  60.3044997  98.5349988  72.7657409  60.4103557  97.6421840
  72.7540012  61.0794997  99.6769988  73.3699857  60.9744928 100.5701042
  72.6837778  62.1330657  99.4065029  71.7561580  60.6888448  99.8764904
  74.7610012  60.8824997  98.2199988  75.3635882  60.8105349  99.1254327
  75.2059842  60.2670155  97.4381619  74.7120012  62.3184997  97.7619988
  74.2675323  62.9347138  98.5435533  75.7230756  62.6689799  97.5546551
  74.1099259  62.3911945  96.8562832  72.1420012  58.2294997  99.2909988
  71.7920012  58.1854997 100.4749988  71.3610012  57.7774997  98.3069988
  71.6177436  57.9000854  97.3378985  70.0700012  57.1664997  98.6089988
  69.4434562  57.8129435  99.2235319  69.3140012  56.8404997  97.3089988
  69.9004286  56.1299151  96.7265284  67.9530012  56.2384997  97.6209988
  67.3657847  56.9487381  98.2030976  67.4323095  56.0141695  96.6900548
  68.0838926  55.3204344  98.1938209  69.1650012  58.0854997  96.4529988
  70.1517472  58.4734970  96.2002294  68.6280047  57.8357670  95.5379206
  68.6081264  58.8423585  97.0054080  70.2580012  55.9254997  99.4719988
  69.5160012  55.7014997 100.4339988  71.2570012  55.1024997  99.1419988
  71.8540928  55.3072734  98.3535518  71.4710012  53.8534997  99.8659988
  70.5568508  53.2598592  99.8703969  72.5760012  53.0444997  99.1839988
  72.1841541  52.7176334  98.2208199  73.4147689  53.7218502  99.0234844
  73.0460012  51.8354997  99.9759988  73.4114614  52.1744754 100.9453465
  72.1998765  51.1640064 100.1218474  74.1560012  51.0994997  99.2459988
  74.4086392  50.1971952  99.8028827  73.8047472  50.8254674  98.2511991
  75.3580012  51.9164997  99.1089988  75.4773361  52.4187951  98.2409217
  76.2940012  52.0364997 100.0449988  77.3540012  52.8024997  99.8329988
  77.4495319  53.2960175  98.9569771  78.0616560  52.8893951 100.5483822
  76.1690012  51.3864997 101.1949988  75.3614932  50.8015267 101.3557393
  76.8819355  51.4796997 101.9043203  71.8120012  54.1044997 101.3299988
  71.2850012  53.4334997 102.2249988  72.6940012  55.0714997 101.5949988
  73.1158837  55.6183770 100.8580865  73.1510012  55.2874997 102.9669988
  73.3786482  54.3586186 103.4899290  74.4090012  56.1804997 102.9779988
  75.1434340  55.7562413 102.2933730  74.0780012  57.6004997 102.5489988
  73.3439194  58.0256145 103.2334710  74.9839191  58.2063934 102.5664907
  73.6684424  57.5893179 101.5389303  75.0650012  56.1664997 104.3479988
  75.3547233  55.1469391 104.6022809  75.9501479  56.8024411 104.3340900
  74.3615234  56.5400562 105.0920925  72.0360012  55.8624997 103.8329988
  72.0080012  55.6344997 105.0499988  71.1000012  56.6074997 103.2389988
  71.1553752  56.8368689 102.2569485  70.0060012  57.1754997 104.0219988
  70.4026420  57.6745487 104.9061511  69.2330012  58.1984997 103.1889988
  69.4288196  57.8787303 102.1655233  68.1719751  58.0808084 103.4091635
  69.6270012  59.6704997 103.3479988  69.0761320  60.2674484 102.6211589
  69.3010012  60.1554997 104.7539988  69.8518963  59.5592863 105.4814210
  69.5861560  61.2028852 104.8528471  68.2312426  60.0520206 104.9356831
  71.0960012  59.9004997 103.0339988  71.2993060  59.6020415 102.0055585
  71.3337160  60.9568989 103.1589530  71.7101229  59.3077606 103.7119470
  69.0660012  56.0994997 104.5509988  68.4860012  56.2614997 105.6289988
  68.8990012  54.9984997 103.8099988  69.3302536  54.9091366 102.9010791
  68.0180012  53.9264997 104.2669988  67.0717358  54.3387583 104.6173184
  67.7510012  52.9254997 103.1279988  68.6108634  52.2622285 103.0341443
  66.5040012  52.1014997 103.4129988  65.6435788  52.7640900 103.5065300
  66.3355815  51.4014570 102.5946615  66.6382696  51.5478322 104.3422584
  67.5850012  53.6604997 101.7969988  68.4672543  54.2860934 101.6614896
  67.5524283  52.9043761 101.0125782  66.3400012  54.5204997 101.7209988
  66.3720797  55.2772058 102.5048780  66.2936868  55.0084060 100.7473964
  65.4572533  53.8954883 101.8559689  68.5880012  53.2144997 105.4859988
  67.8490012  52.5184997 106.1959988  69.8860012  53.3714997 105.7589988
  70.4873934  53.9015554 105.1446149  70.4840012  52.7234997 106.9239988
  70.2886828  51.6513275 106.9040792  71.9970012  52.9444997 106.9299988
  72.2045926  53.9735894 107.2232228  72.6690012  51.9924997 107.9099988
  72.4622296  50.9631417 107.6171383  73.7456166  52.1626150 107.9023053
  72.2809139  52.1692500 108.9131180  72.5220012  52.7194997 105.6149988
  73.4718101  52.8588597 105.6214907  69.8720012  53.2264997 108.2209988
  69.6260012  52.4334997 109.1369988  69.5890012  54.6384997 108.3959988
  69.9505310  55.3258435 107.7502790  68.8620012  55.1114997 109.5819988
  69.2308591  54.5961646 110.4688318  69.0620012  56.6304997 109.7749988
  68.6870293  57.1297101 108.8815312  68.4686490  56.9354178 110.6370070
  70.5380012  57.0224997 110.0019988  70.5612093  57.9960291 110.4916953
  70.9926539  56.2771763 110.6545983  71.3240012  57.0944997 108.6799988
  71.4187086  56.0902803 108.2668730  70.7812221  57.7263405 107.9769572
  72.7230012  57.6824997 108.9219988  72.6370031  58.7437154 109.1555071
  73.1967800  57.1647267 109.7559915  73.5570012  57.5084997 107.6869988
  73.1183819  57.9885675 106.9141807  74.4768487  57.8946091 107.8447964
  73.6371686  56.5251967 107.4706944  67.3940012  54.7494997 109.5269988
  66.5030012  55.5614997 109.6499988  67.0390012  53.3534997 109.3529988
  67.5733744  52.6615292 108.8473097  65.7780012  52.9364997 109.9829988
  65.3230452  53.7897282 110.4861059  65.0970263  52.5599605 109.2197216
  65.9775770  52.1501659 110.7109746  62.3290012  62.0784997 106.5659988
  62.1582899  62.4504045 105.6426107  61.4524031  62.0355901 107.0658337
  62.9034039  61.2519999 106.4819796  63.1440012  63.0414997 107.2989988
  62.6122074  63.3712227 108.1915106  64.4700012  62.4074997 107.7259988
  64.3105456  61.3418243 107.8903437  65.1994598  62.5463929 106.9280647
  65.0220012  63.0154997 108.9969988  65.2630012  64.2214997 109.0709988
  65.2300012  62.1824997 110.0129988  65.5974139  62.5360697 110.8848336
  65.0195637  61.2002684 109.9079343  63.4050012  64.2834997 106.4529988
  63.0210012  64.3424997 105.2859988  64.0510012  65.2834997 107.0549988
  64.2728585  65.2500236 108.0397617  64.3850012  66.4924997 106.3119988
  63.5495281  66.7827076 105.6749247  64.6800012  67.6364997 107.2819988
  64.9356116  68.4484810 106.6012280  63.7525844  67.8771332 107.8017041
  65.8070012  67.4544997 108.3059988  65.8776004  66.3950333 108.5522661
  67.1460012  67.9404997 107.7679988  67.0763138  69.0000708 107.5219264
  67.9169815  67.7936316 108.5243848  67.4045841  67.3761909 106.8720128
  65.4630012  68.1594997 109.6099988  64.5433944  67.7405382 110.0185255
  66.2742460  68.0193660 110.3243836  65.3246144  69.2242850 109.4224347
  65.5580012  66.2664997 105.3679988  65.6690012  66.9514997 104.3429988
  66.4440012  65.3224997 105.6949988  66.3536602  64.8005306 106.5549326
  67.6010012  65.0634997 104.8479988  68.1402086  65.9918449 104.6595058
  68.5470012  64.0804997 105.5369988  68.1030721  63.0890809 105.4469148
  69.4924656  64.1052713 104.9951654  68.7940012  64.3904997 106.9939988
  69.6320012  65.4284997 107.3719988  70.1158820  66.0229632 106.5970331
  69.8580012  65.7144997 108.7029988  70.5166978  66.5355583 108.9859885
  69.2450012  64.9554997 109.6769988  69.4670012  65.2334997 111.0069988
  70.0632927  65.9738213 111.1410134  68.4090012  63.9164997 109.3299988
  67.9237466  63.3144543 110.0982239  68.1880012  63.6404997 107.9929988
  67.5278607  62.8214902 107.7074499  67.1830012  64.5294997 103.4829988
  67.7210012  64.9524997 102.4519988  66.2220012  63.6024997 103.4539988
  65.8189781  63.2468662 104.3090991  65.7890012  63.0184997 102.1909988
  66.6559675  62.7266850 101.5982823  64.9330012  61.7734997 102.4529988
  64.6865825  61.3591466 101.4754055  65.5683163  61.0725848 102.9944718
  63.6490012  62.0104997 103.2429988  63.3589113  61.0477169 103.6637101
  63.9013833  62.6979880 104.0503185  62.2660012  62.6864997 102.2979988
  61.8290012  61.2794997 101.2819988  61.5512244  60.4414136 101.9211785
  60.9873897  61.5411975 100.6406681  62.6818562  60.9977280 100.6644680
  65.0350012  64.0134997 101.3179988  64.8980012  63.7784997 100.1129988
  64.5440012  65.1124997 101.8939988  64.5767076  65.2390022 102.8955110
  63.8880012  66.1344997 101.0899988  63.1207771  65.6794383 100.4635918
  63.2260012  67.1744997 101.9959988  63.9821126  67.5133536 102.7042168
  62.9228798  68.0080342 101.3624076  62.0190012  66.6514997 102.7559988
  61.3467525  66.1664626 102.0482406  62.3606701  65.9219232 103.4902212
  61.2820012  67.7764997 103.4649988  61.9613994  68.2399241 104.1803692
  60.9781907  68.5145193 102.7226204  60.0550012  67.2584997 104.1949988
  60.3747901  66.8460437 105.1519291  59.3805833  68.0970370 104.3685355
  59.3470012  66.2054997 103.4119988  59.9716251  65.4282152 103.2514573
  58.5395987  65.8874306 103.9287514  59.0502188  66.5876065 102.5254246
  64.8570012  66.8154997 100.1349988  64.4220012  67.4134997  99.1439988
  66.1590012  66.7364997 100.4089988  66.4593556  66.3444032 101.2899908
  67.1750012  67.2394997  99.4949988  66.7971194  68.1407576  99.0122579
  68.4480012  67.5954997 100.2679988  68.8433846  66.7011308 100.7495341
  69.1919813  67.9957374  99.5792292  68.2160819  68.3434005 101.0262580
  67.5070012  66.2324997  98.4059988  67.5900012  66.5974997  97.2279988
  67.6990012  64.9694997  98.7849988  67.6436904  64.7112722  99.7598622
  68.0730012  63.9434997  97.8179988  68.8887817  64.2592368  97.1676824
  68.4960012  62.6564997  98.5479988  67.6850787  62.3386853  99.2033598
  68.8020012  61.5544997  97.5519988  69.6131958  61.8714214  96.8965411
  69.0992367  60.6526276  98.0871420  67.9138097  61.3462981  96.9554507
  69.6910012  62.9314997  99.4429988  69.4266162  63.6895651 100.1802500
  69.9814261  62.0137629  99.9543815  70.5241875  63.2889045  98.8378847
  66.9280012  63.6854997  96.8459988  67.1280012  63.6134997  95.6279988
  65.7070012  63.5474997  97.3709988  65.5571720  63.5960808  98.3686412
  64.5650012  63.2504997  96.5139988  64.7779468  62.3758091  95.8994503
  63.3280012  62.9594997  97.3669988  63.6390349  62.2756397  98.1567410
  63.0155469  63.9057482  97.8086842  62.1630012  62.3494997  96.5969988
  62.5565232  61.8761614  95.6974477  61.6922756  61.5952534  97.2275795
  61.1330012  63.3994997  96.2079988  61.5824338  64.0885961  95.4929775
  60.2789056  62.9038381  95.7465446  60.6640012  64.1624997  97.3619988
  61.0965986  65.0593831  97.5309925  59.7130012  63.7514997  98.1919988
  59.1220012  62.5794997  98.0019988  59.3974683  61.9988982  97.2228198
  58.3991863  62.2729778  98.6373590  59.3500012  64.5114997  99.2159988
  59.7992279  65.4041272  99.3626666  58.6259302  64.1943074  99.8446553
  64.2940012  64.3904997  95.5409988  63.9930012  64.1554997  94.3659988
  64.3940012  65.6354997  96.0139988  64.5699673  65.8124603  96.9926817
  64.1840012  66.7784997  95.1309988  63.2088338  66.6847073  94.6531382
  64.2100012  68.0764997  95.9369988  65.1835226  68.1890544  96.4141649
  64.0321242  68.9214711  95.2718046  63.4329299  68.0461539  96.7007649
  65.2280012  66.8104997  94.0239988  64.9070012  67.0574997  92.8569988
  66.4900012  66.5574997  94.3729988  66.7475822  66.3998925  95.3367992
  67.5470012  66.5704997  93.3679988  67.4477076  67.4500780  92.7319313
  68.9150012  66.6114997  94.0479988  69.1049922  65.6474554  94.5198274
  70.0060012  66.9014997  93.0329988  69.8169307  67.8656671  92.5610528
  70.9729673  66.9268817  93.5354243  70.0125631  66.1204682  92.2727045
  68.9210012  67.6404997  95.0459988  69.7801775  67.6666596  95.4734705
  67.4450012  65.3674997  92.4389988  67.7390012  65.4734997  91.2439988
  67.0280012  64.2144997  92.9699988  66.7818528  64.1488698  93.9473437
  66.9790012  63.0004997  92.1609988  67.9509696  62.8205720  91.7016486
  66.6210012  61.7974997  93.0339988  67.4636426  61.7194494  93.7209942
  65.7139239  62.0195080  93.5961582  66.4470012  60.4724997  92.2879988
  65.6153754  60.5714592  91.5903553  67.7090012  60.1044997  91.5229988
  68.5410229  60.0049035  92.2200778  67.5563959  59.1589194  91.0027196
  67.9352927  60.8855724  90.7971765  66.0530012  59.3594997  93.2469988
  65.1114059  59.6145460  93.7332592  65.9350365  58.4275863  92.6940765
  66.8298204  59.2376615  94.0018539  65.9870012  63.1354997  91.0129988
  66.2770012  62.7314997  89.8809988  64.8070012  63.6974997  91.2859988
  64.5771088  64.0015975  92.2212920  63.7810012  63.8024997  90.2519988
  63.6374395  62.8463403  89.7487608  62.4470012  64.2624997  90.8699988
  62.5852627  65.2490021  91.3124885  61.3580012  64.3304997  89.8109988
  61.2188358  63.3441957  89.3683497  60.4246620  64.6574479  90.2693475
  61.6487416  65.0386693  89.0350703  62.0270012  63.3154997  91.9959988
  62.8570491  63.2616447  92.7004282  61.1620578  63.7605769  92.4878104
  61.6760012  61.9214997  91.5229988  62.5406611  61.4755722  91.0314585
  61.3884986  61.3089433  92.3775257  60.8456707  61.9745048  90.8188386
  64.2310012  64.7314997  89.1339988  63.9170012  64.5004997  87.9589988
  64.9740012  65.7854997  89.4699988  65.2337436  65.9533635  90.4314846
  65.3830012  66.7574997  88.4639988  64.5268039  67.0458365  87.8541731
  65.9440012  68.0074997  89.1399988  65.3702339  68.0915231  90.0629453
  66.9929716  67.8331438  89.3795004  65.8130012  69.3034997  88.3389988
  66.4793216  69.2560285  87.4776832  64.3840012  69.4944997  87.8629988
  63.7171015  69.5425311  88.7238336  64.3105883  70.4218948  87.2949763
  64.0969325  68.6563914  87.2279660  66.2640012  70.4844997  89.1699988
  67.3064276  70.3495152  89.4584876  66.1647370  71.3994534  88.5859546
  65.6462440  70.5566428  90.0651359  66.4130012  66.2034997  87.4879988
  66.5690012  66.7604997  86.3969988  67.1160012  65.1334997  87.8439988
  66.9590535  64.6970869  88.7412226  68.2000012  64.6244997  87.0059988
  68.8449381  65.4303978  86.6557364  69.0610012  63.6014997  87.7679988
  68.4133434  62.8275482  88.1798699  70.0760012  62.9674997  86.8349988
  70.7243603  63.7408311  86.4230644  70.6777080  62.2461931  87.3879601
  69.5560546  62.4594195  86.0228339  69.7560012  64.2694997  88.9409988
  69.0092681  64.6819972  89.6194806  70.3617269  63.5347875  89.4714646
  70.3966697  65.0719692  88.5753661  67.6560012  64.0404997  85.7019988
  68.0860012  64.4814997  84.6259988  66.7370012  63.0634997  85.7189988
  66.0620012  62.3994997  86.8459988  65.1989316  62.9870304  87.1590783
  66.7530350  62.2957407  87.6825424  65.6780012  61.0874997  86.2619988
  64.8410530  60.6594444  86.8137102  66.5227696  60.3993732  86.2928144
  65.2990012  61.4014997  84.8559988  64.2576994  61.7203850  84.8101526
  65.4472190  60.5498726  84.1920240  66.2190012  62.5594997  84.4369988
  67.0697865  62.2036900  83.8559119  65.4660012  63.6064997  83.6399988
  65.5140012  63.5844997  82.4039988  64.7750012  64.5284997  84.3099988
  64.7513760  64.5057190  85.3194651  63.9870012  65.5444997  83.6229988
  63.3305868  65.0754398  82.8900579  63.1270012  66.3104997  84.6299988
  63.7281745  66.2693948  85.5382940  63.0427915  67.3450162  84.2971561
  61.7300012  65.7514997  84.9169988  61.2538642  66.3604027  85.6855244
  60.8820012  65.7744997  83.6549988  61.3572955  65.1653958  82.8861122
  59.8921344  65.3743581  83.8744330  60.7878511  66.8002561  83.2985440
  61.7880012  64.3474997  85.5029988  62.3459232  64.3667365  86.4391891
  60.7757529  63.9896669  85.6911751  62.2839112  63.6794969  84.7987655
  64.8410012  66.5204997  82.8279988  64.3060012  67.2104997  81.9539988
  66.1360012  66.5974997  83.1019988  66.5016311  66.0995966  83.9010649
  67.0500012  67.4234997  82.3259988  66.4889302  68.1601405  81.7509693
  68.0170012  68.1634997  83.2599988  68.5611895  67.3598366  83.7560672
  68.7082116  68.7500460  82.6547785  67.3700012  69.0644997  84.3109988
  66.7582747  68.4508601  84.9723142  68.4290012  69.7874997  85.1269988
  69.0408734  70.4017464  84.4663838  67.9455962  70.4231119  85.8689000
  69.0610848  69.0568821  85.6317449  66.4230012  70.0544997  83.6559988
  65.6400576  69.5126393  83.1254462  65.9721489  70.6871750  84.4205610
  66.9760740  70.6753165  82.9511613  67.8430012  66.6284997  81.3039988
  68.1090012  67.1314997  80.2099988  68.2290012  65.3964997  81.6329988
  68.0091477  65.0245037  82.5458968  68.9670012  64.5574997  80.7079988
  69.6235582  65.2144643  80.1375344  69.5689086  63.8754222  81.3084795
  68.1220012  63.7524997  79.7479988  68.6780012  63.0494997  78.8989988
  66.7930012  63.8334997  79.8609988  66.3691387  64.3472511  80.6202743
  65.9200012  63.1054997  78.9459988  66.1814915  62.0506404  78.8623693
  64.4510012  63.2364997  79.3999988  64.3710018  62.9120851  80.4375226
  63.9840012  64.6714997  79.2829988  64.0632761  64.9964980  78.2456019
  62.9459742  64.7439346  79.6075816  64.6059720  65.3089309  79.9114355
  63.5510012  62.2814997  78.6119988  63.4652606  62.6776994  77.6001810
  64.0526919  61.3142964  78.5816045  62.1710012  62.1144997  79.2059988
  61.6684827  63.0812764  79.2362945  61.5921286  61.4237604  78.5929041
  62.2559143  61.7178753  80.2177194  66.1150012  63.5854997  77.5149988
  65.8840012  62.8334997  76.5599988  66.5390012  64.8384997  77.3389988
  66.5923761  65.4871167  78.1113629  66.8790012  65.3214997  76.0059988
  66.0472463  65.1494706  75.3228523  67.1710012  66.8204997  76.0519988
  66.3479366  67.2889041  76.5916851  68.0944265  66.9479196  76.6169322
  67.3180012  67.4724997  74.6889988  66.6718322  66.9372715  73.9932277
  66.9827902  68.5062274  74.7734954  68.7440012  67.4444997  74.1769988
  69.6670012  67.2554997  74.9969988  68.9430012  67.6134997  72.9559988
  68.0680012  64.5614997  75.4359988  68.1310012  64.3044997  74.2279988
  69.0160012  64.1914997  76.2899988  68.8948923  64.3906135  77.2727427
  70.2570012  63.5634997  75.8609988  70.5685800  63.9662604  74.8972552
  71.3580012  63.8414997  76.8859988  71.0474048  63.5273641  77.8824665
  72.2650718  63.3072017  76.6034238  71.7280012  65.2894997  76.9889988
  72.7250012  65.8214997  76.1909988  73.2458588  65.1752710  75.4844608
  73.0620012  67.1554997  76.2829988  73.8529257  67.5618007  75.6525556
  72.3990012  67.9754997  77.1719988  72.6629045  69.0305106  77.2455300
  71.4000012  67.4574997  77.9689988  70.8730739  68.1013660  78.6731891
  71.0680012  66.1224997  77.8739988  70.2766638  65.7117387  78.5010239
  70.1260012  62.0624997  75.6429988  71.0770012  61.4384997  75.1609988
  68.9860012  61.4684997  75.9849988  68.2749062  61.9884799  76.4790269
  68.7640012  60.0504997  75.7479988  69.6777007  59.5403335  75.4430679
  68.2050012  59.3514997  77.0059988  68.1493616  58.2783664  76.8232739
  69.1080012  59.6154997  78.1979988  69.1637701  60.6884708  78.3816387
  68.7029083  59.1172371  79.0787568  70.1064183  59.2305590  77.9904282
  66.7820012  59.8114997  77.2839988  66.1475091  59.5666816  76.4321854
  66.4043420  59.3084281  78.1741629  66.7730125  60.8894860  77.4451368
  67.8520012  59.7904997  74.5559988  67.8240012  58.6544997  74.0579988
  67.1070012  60.7894997  74.0879988  67.0995519  61.6686985  74.5850433
  66.2450012  60.6474997  72.9249988  66.1089217  59.5923818  72.6877060
  64.8740012  61.2654997  73.2099988  65.1230183  62.2859680  73.5010901
  64.3048781  61.2819788  72.2805218  64.0340012  60.6114997  74.3109988
  64.3832658  60.9666805  75.2805150  62.5620012  60.9634997  74.1419988
  62.2118753  60.6082032  73.1728367  61.9813899  60.4896838  74.9335099
  62.4376763  62.0449105  74.1985175  64.2260012  59.0994997  74.3379988
  65.2752332  58.8692070  74.5228686  63.6148567  58.6692323  75.1313926
  63.9253979  58.6773747  73.3790685  66.8500012  61.2664997  71.6709988
  66.1550012  61.4034997  70.6599988  68.1260012  61.6564997  71.7219988
  68.6234156  61.6866366  72.6005031  68.7910012  62.1854997  70.5289988
  68.2081833  62.9819382  70.0662804  70.1860012  62.7184997  70.8959988
  70.6776951  61.9981998  71.5498379  71.0280012  62.9264997  69.6479988
  70.5371440  63.6470767  68.9938362  72.0107117  63.3038510  69.9308179
  71.1408963  61.9779640  69.1229903  70.0670012  64.0204997  71.6889988
  69.4037853  63.8283457  72.5323981  71.0619214  64.2682745  72.0589188
  69.5290012  65.1764997  70.8789988  68.5338465  64.9296311  70.5091029
  69.4724170  66.0656328  71.5069636  70.1919819  65.3695584  70.0356218
  68.8280012  61.1694997  69.3909988  68.4980012  61.5404997  68.2519988
  69.2130012  59.9014997  69.6049988  69.7840012  59.2874997  70.8189988
  68.9791989  58.9691619  71.4816108  70.4132650  60.0127433  71.3348938
  70.5670012  58.1394997  70.2759988  70.6575361  57.3591536  71.0316194
  71.5609879  58.4736429  69.9786101  69.7910012  57.6674997  69.0979988
  68.9930616  56.9922073  69.4068217  70.4258125  57.1682520  68.3659701
  69.1890012  58.9424997  68.4869988  69.8241398  59.3473497  67.6990942
  67.7990012  58.6814997  67.9319988  67.6900012  58.1994997  66.7969988
  66.6200012  58.9654997  68.7369988  66.7185716  59.2460992  69.7022174
  65.2630012  58.8304997  68.1849988  65.0985847  57.8163982  67.8207673
  64.2340012  59.1284997  69.2949988  64.5603842  58.6703278  70.2286218
  64.1446083  60.2062116  69.4315485  62.8310012  58.6064997  69.0209988
  62.3410012  57.4524997  69.4869988  63.0465581  56.8967596  70.1046088
  61.0570012  57.2094997  69.0919988  60.4428569  56.4328638  69.2914056
  60.7420012  58.2934997  68.3179988  59.5290012  58.4844997  67.6659988
  58.7566129  57.7216088  67.7635313  59.3830012  59.6314997  66.9359988
  58.4544091  59.8264435  66.3995160  60.4150012  60.5684997  66.8649988
  60.2939254  61.4845765  66.2868610  61.6030012  60.3704997  67.5129988
  62.3727540  61.1377865  67.4302209  61.7760012  59.1974997  68.2459988
  65.0800012  59.7844997  67.0309988  64.4390012  60.8064997  67.1099988
  65.6860012  59.4364997  65.7599988  66.4417353  58.7828776  65.6125424
  65.1200012  60.1214997  64.5909988  64.3198263  60.7883476  64.9121447
  65.8992202  60.7015684  64.0965916  64.7202103  59.3837910  63.8952595
  55.6560012  66.2364997  63.6169988  55.9816852  67.0637353  64.0962818
  55.0171341  66.5151911  62.8860540  56.4514921  65.6541701  63.3974856
  54.8550012  65.4574997  64.5519988  53.8430426  65.3440767  64.1631874
  55.4600012  64.0664997  64.7539988  56.5275141  64.2038591  64.9261837
  54.9998138  63.6441169  65.6472627  55.2540012  63.1214997  63.5839988
  54.1839721  63.0594116  63.3857974  55.7595858  63.5461844  62.7167467
  55.7980012  61.7344997  63.8559988  56.5000012  61.5604997  64.8749988
  55.5240012  60.8184997  63.0529988  54.7310012  66.1654997  65.8949988
  54.7920012  67.3924997  65.9709988  54.5570012  65.3794997  66.9539988
  54.4145316  64.3884638  66.8211465  54.4750012  65.9134997  68.3059988
  54.4938982  67.0033209  68.3116255  53.1930012  65.4394997  69.0179988
  53.2000536  65.8065163  70.0443263  51.9620012  65.9674997  68.2999988
  51.9540107  65.6005026  67.2736702  51.0649643  65.6239383  68.8151598
  51.9828762  67.0572911  68.2954687  53.1620012  63.9204997  69.0999988
  54.0288888  63.5685403  69.6592236  52.2503662  63.6019369  69.6055075
  53.1845123  63.5012826  68.0940906  55.6990012  65.5674997  69.1429988
  55.8220012  66.0824997  70.2659988  56.5970012  64.7144997  68.6459988
  56.4319578  64.2385373  67.7706018  57.8130012  64.3964997  69.3879988
  57.5607335  64.0255794  70.3814163  58.6030012  63.3144997  68.6479988
  58.1656816  62.3499308  68.9057929  58.4569774  63.5066098  67.5850450
  60.0840012  63.2954997  68.9579988  60.5710012  62.6244997  70.0709988
  59.8672084  62.1108221  70.7259115  61.9220012  62.6004997  70.3549988
  62.2908723  62.0757405  71.2362841  62.8060012  63.2464997  69.5169988
  64.1530012  63.2244997  69.7949988  64.3634629  62.7330981  70.5923883
  62.3480012  63.9134997  68.4009988  63.0463660  64.4246584  67.7383498
  60.9960012  63.9314997  68.1249988  60.6271774  64.4509752  67.2405700
  58.6660012  65.6394997  69.6019988  59.2080012  65.8514997  70.6919988
  58.7920012  66.4764997  68.5699988  58.4160877  66.2466965  67.6611650
  59.5350012  67.7234997  68.7159988  60.5149054  67.5255975  69.1504197
  59.7300012  68.3794997  67.3499988  60.1736681  69.3612373  67.5156797
  60.4173602  67.7639811  66.7696760  58.4290012  68.5354997  66.5909988
  57.4200012  67.9274997  67.0069988  58.4150012  69.2594997  65.5729988
  58.8350012  68.6824997  69.6689988  59.4980012  69.4574997  70.3669988
  57.4990012  68.6544997  69.7019988  56.9726265  68.0731635  69.0655419
  56.7630012  69.5134997  70.6239988  57.0553210  70.5536319  70.4798695
  55.2630012  69.3884997  70.3689988  55.0652998  68.3473268  70.1141017
  54.7577443  69.6356939  71.3026532  54.7490012  70.2814997  69.2679988
  54.5670012  71.6414997  69.4789988  54.8027409  72.0587202  70.4580051
  54.0960012  72.4624997  68.4739988  53.9560960  73.5288941  68.6510052
  53.8030012  71.9244997  67.2389988  53.3340012  72.7334997  66.2319988
  53.2489743  73.6520787  66.4976728  53.9760012  70.5774997  67.0049988
  53.7436087  70.1526619  66.0284707  54.4460012  69.7664997  68.0149988
  54.5858994  68.7002275  67.8372568  57.0850012  69.1744997  72.0729988
  57.2970012  70.0714997  72.8969988  57.1210012  67.8804997  72.4039988
  56.8722815  67.1658517  71.7350323  57.4390012  67.4704997  73.7689988
  56.8705408  68.0547108  74.4926349  57.1330012  65.9744997  73.9639988
  57.7986018  65.3907259  73.3281652  57.3390012  65.5734997  75.4159988
  56.6733625  66.1565626  76.0524447  57.1181572  64.5128035  75.5353819
  58.3733804  65.7632366  75.7026322  55.7010012  65.6624997  73.5249988
  55.6173820  65.9365764  72.4733379  55.5559704  64.5875460  73.6324241
  54.6480012  66.3934997  74.3199988  54.7921114  67.4685879  74.2126801
  53.6591786  66.1213485  73.9508608  54.7307015  66.1195590  75.3717673
  58.8910012  67.7924997  74.0959988  59.2090012  68.2454997  75.2029988
  59.7950012  67.5504997  73.1459988  59.5301021  67.1148912  72.2741197
  61.2070012  67.8464997  73.3709988  61.5498836  67.3613749  74.2848832
  62.0410012  67.3284997  72.2009988  61.6011328  67.7281791  71.2872858
  63.0494624  67.7242289  72.3214330  62.0990012  65.8174997  72.1139988
  61.1499416  65.4542335  71.7197598  62.9046827  65.5379766  71.4351423
  62.3960012  65.0694997  73.7249988  64.1350012  64.6814997  73.5789988
  64.6992059  65.5982445  73.4076778  64.4808363  64.2090924  74.4984171
  64.2867579  64.0002557  72.7417546  61.4400012  69.3364997  73.5779988
  62.2170012  69.7344997  74.4529988  60.7770012  70.1794997  72.7799988
  60.1958785  69.8353204  72.0290418  60.9330012  71.6214997  72.9279988
  61.9891649  71.8868099  72.8807985  60.1960012  72.3524997  71.8089988
  59.3285706  71.7651817  71.5077992  59.8700703  73.3405494  72.1340016
  61.0220012  72.5574997  70.5789988  61.5660012  71.5104997  69.8669988
  61.4628692  70.5359677  70.1114390  62.2330012  71.9844997  68.8299988
  62.7438985  71.3106681  68.1422241  62.1350012  73.3004997  68.8399988
  61.3800012  73.6854997  69.9219988  61.1823356  74.7425035  70.1002472
  60.4520012  72.1214997  74.2829988  60.8860012  73.1924997  74.7219988
  59.5640012  71.3844997  74.9479988  59.0886353  70.6127012  74.5025172
  59.2050012  71.7174997  76.3229988  58.9344260  72.7690723  76.4183054
  58.0360012  70.8414997  76.8069988  58.3176598  69.7922160  76.7188369
  57.7030012  71.1564997  78.2569988  57.4207802  72.2055715  78.3458821
  56.8742774  70.5288267  78.5846332  58.5749244  70.9612039  78.8812652
  56.8070012  71.0284997  75.9209988  57.0875075  70.7434260  74.9070215
  56.0334299  70.3533318  76.2868338  56.2820012  72.4364997  75.9179988
  57.0549129  73.1122364  75.5518197  55.4088979  72.4978838  75.2683667
  56.0008373  72.7221430  76.9316331  60.4130012  71.5614997  77.2359988
  60.7640012  72.4674997  78.0009988  61.0810012  70.4114997  77.1509988
  60.8950293  69.7544125  76.4068548  62.0390012  70.0344997  78.1819988
  61.6793457  70.3388581  79.1649093  62.2150012  68.5184997  78.1749988
  62.4594558  68.2486315  77.1476175  63.0219631  68.2009353  78.8353512
  60.9140012  67.8244997  78.5889988  60.1121864  68.1961447  77.9509754
  61.0060012  66.3184997  78.4579988  61.8073524  65.9460460  79.0961314
  60.0610352  65.8684084  78.7622320  61.2159252  66.0556084  77.4212150
  60.5370012  68.2144997  80.0109988  60.3977129  69.2940907  80.0674036
  59.6104123  67.7139530  80.2920456  61.3324912  67.9151671  80.6934170
  63.3770012  70.7454997  78.0159988  64.1210012  70.8894997  78.9919988
  63.7030012  71.1984997  76.8029988  63.1750918  70.9531048  75.9776550
  64.8870012  72.0314997  76.6429988  65.6924930  71.6404364  77.2645706
  65.3580012  72.0504997  75.1869988  64.4938909  72.3286608  74.5836422
  66.1166963  72.8298059  75.1151411  65.9280012  70.7434997  74.6789988
  66.9162844  70.6053842  75.1175432  65.2722936  69.9341080  74.9999890
  66.0680012  70.7154997  72.8809988  64.8480012  69.4794997  72.4549988
  63.8675205  69.7992771  72.8078432  64.8206434  69.3531325  71.3726940
  65.1111198  68.5315995  72.9244187  64.6540012  73.4604997  77.1049988
  65.6230012  74.1764997  77.3759988  63.3980012  73.8954997  77.1979988
  62.6266006  73.2537029  77.0833804  63.0990012  75.3024997  77.3999988
  64.0202324  75.8616419  77.5636820  62.3950012  75.8694997  76.1599988
  61.3549668  75.5446523  76.1299677  62.4346747  76.9587036  76.1726765
  63.0170012  75.4334997  74.8709988  62.2740012  75.0244997  73.7849988
  63.0870012  74.6934997  72.7969988  62.6898833  74.3387140  71.8459343
  64.3300012  74.8774997  73.2019988  65.1632501  74.7094848  72.6565016
  64.3150012  75.3384997  74.4959988  65.2525893  75.5498305  75.0101670
  62.2510012  75.5994997  78.6259988  62.2400012  76.7514997  79.0729988
  61.5490012  74.6154997  79.1849988  61.5388688  73.7025460  78.7531281
  60.7250012  74.8294997  80.3669988  60.6165850  75.8976187  80.5553252
  59.3360012  74.2264997  80.1609988  59.4184737  73.2416130  79.7013295
  58.8210064  74.1384340  81.1176204  58.4470012  75.0444997  79.2679988
  58.6420012  75.0574997  77.8959988  59.4510588  74.4655050  77.4681344
  57.8260012  75.8084997  77.0729988  57.9897124  75.8097479  75.9953635
  56.8030012  76.5574997  77.6159988  56.1572932  77.1518023  76.9694963
  56.5980012  76.5534997  78.9789988  55.7908867  77.1449414  79.4112754
  57.4160012  75.7994997  79.7969988  57.2533000  75.7941462  80.8747741
  61.3740012  74.2624997  81.6239988  60.6920012  74.0624997  82.6339988
  62.6800012  73.9934997  81.5779988  63.2076303  74.1154901  80.7254583
  63.3680012  73.4544997  82.7459988  62.8401864  72.5758708  83.1168384
  64.7930012  73.0474997  82.3749988  65.3621814  72.9925826  83.3029628
  64.7360440  72.0563111  81.9251085  65.4820012  73.9994997  81.4149988
  64.7798694  74.2751520  80.6281521  65.7829556  74.8929588  81.9620446
  66.7100012  73.3874997  80.7749988  66.9720012  72.1934997  80.9259988
  67.4710012  74.2014997  80.0549988  68.3024971  73.8450369  79.6059439
  67.2153423  75.1739038  79.9592382  63.3820012  74.4584997  83.8909988
  63.2210012  74.0804997  85.0579988  63.5710012  75.7414997  83.5759988
  63.6639618  76.0418563  82.6161844  63.6480012  76.7474997  84.6239988
  64.5020833  76.5164136  85.2605850  63.7968757  77.7207514  84.1563272
  62.3960012  76.7964997  85.4769988  62.4670012  76.9614997  86.6979988
  61.2290012  76.6574997  84.8439988  61.1725157  76.6597710  83.8355824
  59.9890012  76.5554997  85.6059988  59.8836288  77.4196591  86.2619136
  58.7900012  76.5114997  84.6599988  59.0056277  75.6762516  83.9936917
  57.9163303  76.2749443  85.2673214  58.5100012  77.7634997  83.8319988
  59.4127040  78.0369228  83.2856762  57.3830012  77.5084997  82.8499988
  56.4797738  77.2354551  83.3956414  57.1963986  78.4109915  82.2679431
  57.6615839  76.6954948  82.1795398  58.1560012  78.9144997  84.7429988
  58.9867034  79.1107995  85.4208627  57.9576168  79.8040351  84.1451094
  57.2677802  78.6607116  85.3215782  59.9990012  75.3274997  86.5039988
  59.5880012  75.3954997  87.6689988  60.4660012  74.1934997  85.9799988
  60.7673454  74.1492310  85.0170183  60.4940012  72.9684997  86.7699988
  59.5184835  72.7926277  87.2233568  60.8370012  71.7804997  85.8739988
  60.0675370  71.7969466  85.1021480  61.8114738  71.9570604  85.4186644
  60.8370012  70.4164997  86.5639988  61.5443799  70.4393183  87.3929713
  59.4520012  70.0844997  87.0899988  58.7441090  70.0610425  86.2614837
  59.4720145  69.1099559  87.5778151  59.1441384  70.8438115  87.8088634
  61.3220012  69.3424997  85.6069988  62.3355338  69.5762791  85.2811181
  61.3168955  68.3763178  86.1115459  60.6623070  69.3026577  84.7402143
  61.4840012  73.0704997  87.9219988  61.2070012  72.5964997  89.0309988
  62.6440012  73.6834997  87.6799988  62.8412384  74.0745285  86.7698926
  63.6930012  73.7284997  88.6949988  63.9043751  72.7419367  89.1074472
  64.9890012  74.2984997  88.0959988  64.7564380  75.2165220  87.5563243
  65.9940012  74.5974997  89.1919988  66.2274250  73.6798028  89.7318568
  66.9053444  75.0002286  88.7499995  65.5724783  75.3276426  89.8828760
  65.5700012  73.3284997  87.0899988  64.8503403  73.1607714  86.2887138
  66.4875568  73.7432352  86.6726432  65.7911437  72.3818874  87.5830728
  63.2350012  74.5304997  89.9069988  63.4360012  74.1184997  91.0559988
  62.6140012  75.6884997  89.6709988  62.4851685  76.0363394  88.7315793
  62.1570012  76.5144997  90.7829988  62.9828642  76.7055370  91.4682390
  61.6330012  77.8514997  90.2659988  61.2559754  78.4304082  91.1090976
  62.4537508  78.3911009  89.7934519  60.5930012  77.6564997  89.3249988
  60.2791311  78.5086920  89.0137857  61.0830012  75.8114997  91.5999988
  61.0890012  75.8914997  92.8319988  60.1560012  75.1204997  90.9359988
  60.1641814  75.0688872  89.9273519  59.0650012  74.4694997  91.6529988
  58.5664038  75.1821614  92.3099715  58.0410012  73.9194997  90.6629988
  57.3572018  73.2549885  91.1911499  57.2550012  75.0544997  90.0289988
  57.9381225  75.7192228  89.5002379  56.5291952  74.6460821  89.3257919
  56.7329442  75.6136958  90.8054373  58.7170012  73.1814997  89.6379988
  58.0733667  72.8355612  89.0153740  59.5760012  73.3564997  92.5569988
  59.0780012  73.1774997  93.6759988  60.5690012  72.5954997  92.0949988
  61.0090828  72.7985248  91.2088790  60.9750012  71.3884997  92.8089988
  60.1396193  70.9226690  93.3317206  61.6030012  70.3724997  91.8379988
  60.9043124  70.1963114  91.0201405  62.9210012  70.8854997  91.2769988
  63.6204084  71.0614919  92.0942851  63.3389087  70.1450723  90.5949274
  62.7492337  71.8179666  90.7393181  61.7920012  69.0184997  92.5209988
  62.6138535  69.1216956  93.2295255  60.8726714  68.7940951  93.0619007
  62.0960012  67.8954997  91.5579988  63.0155111  68.1189883  91.0170236
  62.2178789  66.9644723  92.1115628  61.2743294  67.7913893  90.8493970
  61.9140012  71.7304997  93.9619988  61.9040012  71.0714997  95.0079988
  62.7380012  72.7664997  93.7939988  62.7683724  73.2862316  92.9285187
  63.6810012  73.1244997  94.8499988  63.8311547  72.2732249  95.5139900
  65.0310012  73.5224997  94.2529988  64.8691731  74.2510514  93.4585661
  65.6823140  73.9534770  95.0133606  65.7860012  72.3774997  93.6389988
  65.4190012  71.0674997  93.8999988  64.5678115  70.8731406  94.5525327
  66.1180012  70.0134997  93.3439988  65.8156156  68.9870811  93.5516729
  67.2000012  70.2614997  92.5249988  67.7546640  69.4323372  92.0857509
  67.5800012  71.5624997  92.2619988  68.4338220  71.7609200  91.6141412
  66.8780012  72.6124997  92.8199988  67.1814739  73.6396547  92.6176211
  63.1640012  74.2394997  95.7489988  63.3890012  74.1984997  96.9629988
  62.4840012  75.2374997  95.1879988  62.3131048  75.2335724  94.1925700
  62.0310012  76.3894997  95.9639988  62.6080687  76.4711750  96.8850967
  62.2230012  77.6744997  95.1499988  63.2846377  77.8772840  95.0089113
  61.7390080  77.5817248  94.1777624  61.5290012  79.1524997  95.9149988
  61.8886474  79.9915940  94.9477999  60.5780012  76.2514997  96.4059988
  60.2800012  76.3214997  97.6019988  59.6630012  76.0534997  95.4569988
  59.9285343  75.9813710  94.4852020  58.2430012  76.0134997  95.7909988
  57.9955774  76.8403509  96.4567297  57.3940012  76.1354997  94.5229988
  57.7754368  75.4598513  93.7574235  56.3560819  75.8856204  94.7429625
  57.3860012  77.5184997  93.9139988  58.4330012  78.4024997  94.1199988
  59.2775819  78.0886922  94.7334383  58.4170012  79.6674997  93.5599988
  59.2485962  80.3513603  93.7299546  57.3470012  80.0624997  92.7859988
  57.3304983  81.0580543  92.3424916  56.2950012  79.1944997  92.5729988
  55.4465334  79.5047218  91.9631096  56.3180012  77.9304997  93.1339988
  55.4885446  77.2438965  92.9646534  57.8630012  74.7554997  96.5599988
  56.9240012  74.7894997  97.3629988  58.5650012  73.6474997  96.3369988
  59.2659131  73.6326160  95.6099497  58.3090012  72.4174997  97.0749988
  57.2839083  72.4145693  97.4455055  58.5050012  71.1974997  96.1649988
  59.3837398  71.3441977  95.5369881  58.6308179  70.2925138  96.7593646
  57.3520012  70.9454997  95.2379988  56.1460012  71.5994997  95.4139988
  56.0399439  72.3076402  96.2358191  55.0840012  71.3644997  94.5639988
  54.1403174  71.8892603  94.7129550  55.2170012  70.4654997  93.5259988
  54.3798340  70.2784182  92.8535023  56.4130012  69.8024997  93.3399988
  56.5222377  69.0907353  92.5217329  57.4740012  70.0424997  94.1939988
  58.4190390  69.5188972  94.0496249  59.1820012  72.2694997  98.3129988
  59.1030012  71.2364997  98.9869988  60.0070012  73.2634997  98.6289988
  60.1008156  74.0639357  98.0202292  60.8330012  73.2074997  99.8299988
  61.3310171  72.2399899  99.8932765  61.8960012  74.3014997  99.7919988
  62.4195064  74.2524691  98.8372016  61.4012080  75.2682380  99.8852554
  62.9130012  74.1674997 100.9099988  62.8230012  73.2684997 101.7469988
  63.8930012  75.0614997 100.9269988  64.5980240  75.0197701 101.6490107
  63.9295702  75.7797416 100.2178500  59.9410012  73.3534997 101.0559988
  59.1920012  74.3284997 101.1759988  60.0190012  72.3834997 101.9689988
  60.6464100  71.6002085 101.8553660  59.1910012  72.4354997 103.1619988
  58.1467276  72.4788279 102.8526210  59.3615087  71.5255188 103.7372912
  59.4970012  73.6364997 104.0359988  58.5890012  74.2744997 104.5719988
  60.7840012  73.9564997 104.1949988  61.5201329  73.3710983 103.8268757
  61.1590012  75.1334997 104.9699988  60.6993267  75.0913869 105.9574323
  62.6780012  75.1894997 105.1399988  63.1174066  74.8673659 104.1959374
  62.9406873  76.2309272 105.3258070  63.2130012  74.3224997 106.2699988
  64.2688324  74.5605239 106.3990941  62.6684669  74.5844818 107.1771630
  63.0590012  72.8364997 105.9989988  63.0320012  72.0544997 106.9709988
  62.9660012  72.4504997 104.8149988  60.6430012  76.4084997 104.3179988
  60.1310012  77.3024997 105.0029988  60.7660012  76.5094997 102.9959988
  61.2863392  75.8222651 102.4696373  60.2290012  77.6654997 102.2839988
  60.5088276  78.6038333 102.7628790  60.7350012  77.6844997 100.8339988
  60.5831583  76.6984770 100.3949063  59.9870012  78.7224997 100.0169988
  60.1387571  79.7089139 100.4552430  60.3614678  78.7187598  98.9933478
  58.9229232  78.4862045 100.0149391  62.2300012  77.9594997 100.8019988
  62.7553951  77.1789588 101.3522890  62.5759257  77.9703131  99.7684036
  62.4319860  78.9266577 101.2623338  58.7070012  77.6694997 102.3519988
  58.0830012  78.7194997 102.5509988  58.0840012  76.4964997 102.1959988
  58.5989449  75.6591585 101.9640675  56.6310012  76.4104997 102.2919988
  56.1693142  77.0983434 101.5836095  56.1660012  74.9904997 101.9679988
  56.7264310  74.6612201 101.0930173  56.4261424  74.3650618 102.8219625
  54.6760012  74.8724997 101.6889988  54.1496742  74.7680578 102.6377731
  54.3389307  75.7782408 101.1848970  54.3420012  73.6794997 100.8159988
  55.2270012  72.9314997 100.3989988  53.0570012  73.4954997 100.5319988
  52.7773157  72.7158544  99.9540449  52.3658940  74.1361350 100.8953975
  56.1330012  76.8304997 103.6669988  55.0420012  77.3974997 103.7859988
  56.9150012  76.5594997 104.7149988  57.7423939  75.9884286 104.6180532
  56.5540012  77.0314997 106.0439988  55.5473687  76.6862565 106.2797900
  57.5200012  76.4684997 107.0859988  58.5310150  76.8129629 106.8685219
  57.2254461  76.8112008 108.0779128  57.4934572  75.3792431 107.0557540
  56.5360012  78.5534997 106.0979988  55.6500012  79.1514997 106.7219988
  57.5080012  79.1984997 105.4509988  58.2716280  78.6900816 105.0285245
  57.5390012  80.6574997 105.4059988  57.4279889  81.0817086 106.4039077
  58.8610012  81.1444997 104.7859988  58.8974398  80.8341587 103.7417473
  58.9640012  82.6574997 104.8679988  58.9280973  82.9685853 105.9120473
  59.9051905  82.9826782 104.4246903  58.1327448  83.1086783 104.3261964
  60.0520012  80.4914997 105.4899988  60.1901159  81.0069385 106.4404449
  59.7881754  79.4505345 105.6767792  61.3340012  80.5504997 104.6949988
  61.5987343  81.5912338 104.5082136  62.1334261  80.0680948 105.2574083
  61.1967929  80.0348313 103.7445463  56.3330012  81.1914997 104.6419988
  55.7860012  82.2494997 104.9759988  55.9040012  80.4704997 103.6039988
  56.3932795  79.6367686 103.3114264  54.7560012  80.9114997 102.8169988
  54.9225910  81.9226698 102.4456743  54.5550012  79.9774997 101.6199988
  55.5516122  79.9554499 101.1791139  54.3250339  79.0009006 102.0459909
  53.5250012  80.3174997 100.5369988  53.4682507  81.3997231 100.4200688
  53.9380012  79.6864997  99.2169988  53.9945209  78.6041679  99.3330256
  53.2024384  79.9313356  98.4507719  54.9135844  80.0709297  98.9194232
  52.1200012  79.8574997 100.9139988  51.8129179  80.3463758 101.8385524
  51.4249184  80.1201398 100.1165144  52.1169694  78.7768796 101.0566523
  53.4990012  80.9824997 103.6739988  52.6940012  81.9084997 103.5309988
  53.3130012  80.0094997 104.5709988  53.9496003  79.2274162 104.6274466
  52.1510012  80.0204997 105.4529988  51.2386532  80.1321433 104.8671181
  52.0730012  78.7064997 106.2339988  52.9643419  78.6500946 106.8588423
  51.1881871  78.7610955 106.8682096  51.9910012  77.4684997 105.3559988
  52.6306174  77.6166579 104.4859177  52.3491139  76.6125511 105.9280210
  50.5650012  77.2104997 104.8979988  49.9799583  76.8486055 105.7434906
  50.1350033  78.1427331 104.5317447  50.5070012  76.2164997 103.8289988
  50.7475187  75.2652033 104.0683435  50.1640012  76.4874997 102.5729988
  49.8420012  77.7254997 102.2249988  49.8580577  78.4615340 102.9164434
  49.5821045  77.9269553 101.2700281  50.1390012  75.5214997 101.6669988
  50.3813274  74.5777006 101.9327455  49.8777302  75.7331964 100.7146224
  52.1710012  81.1954997 106.4189988  51.1080012  81.5924997 106.9129988
  53.3470012  81.7584997 106.7029988  54.2018614  81.4058114 106.2968900
  53.4370012  82.8594997 107.6579988  52.7414336  82.6975826 108.4814475
  54.8560012  82.9454997 108.2259988  55.4951467  83.3210660 107.4269104
  54.8284616  83.6703845 109.0395611  55.4120012  81.6244997 108.7419988
  55.1500527  80.8455290 108.0259760  56.4967541  81.7145106 108.7995411
  54.8600012  81.2594997 110.1129988  55.4987137  80.4924040 110.5508452
  54.8782806  82.1493854 110.7421798  53.4890012  80.7524997 110.0579988
  52.7580143  81.3617438 110.3964942  53.1520012  79.5484997 109.6029988
  51.8770012  79.1804997 109.5889988  51.1673465  79.8163165 109.9240021
  51.6221927  78.2663121 109.2434073  54.0820012  78.7094997 109.1719988
  55.0534776  78.9852772 109.1887438  53.8153510  77.7978645 108.8286072
  53.0370012  84.1834997 107.0169988  52.1660012  84.8954997 107.5289988
  53.6680012  84.5324997 105.8939988  54.3984662  83.9541114 105.5041435
  53.3650012  85.7994997 105.2379988  53.4153863  86.6142759 105.9602870
  54.3760012  86.0704997 104.1249988  54.5922550  85.1354767 103.6082149
  53.9409638  86.7811982 103.4223253  55.6760012  86.6444997 104.6519988
  55.7320012  87.1734997 105.7589988  56.7320012  86.5384997 103.8559988
  57.6248946  86.9034845 104.1553767  56.6381959  86.0933019 102.9542780
  51.9450012  85.8234997 104.6859988  51.2970012  86.8754997 104.6959988
  51.4500012  84.6844997 104.1929988  52.0252630  83.8600931 104.0953926
  50.0690012  84.6244997 103.7229988  49.8934442  85.4053698 102.9830522
  49.7910012  83.2684997 103.0769988  50.3694777  83.1598944 102.1595735
  50.0540036  82.4681498 103.7686417  48.3570012  83.0594997 102.7059988
  47.7350012  83.4794997 101.5669988  48.3446496  84.0282055 100.8491196
  46.4150012  83.0994997 101.5779988  45.7403157  83.2899576 100.8509328
  46.1620012  82.4174997 102.7399988  44.9820012  81.8394997 103.2039988
  44.0883338  81.9133377 102.5843172  45.0210012  81.2114997 104.4169988
  44.1171161  80.7471491 104.8112961  46.2000012  81.1494997 105.1699988
  46.2204059  80.6460774 106.1365644  47.3720012  81.7234997 104.7119988
  48.2620153  81.6493716 105.3368832  47.3630012  82.3714997 103.4749988
  49.0930012  84.8834997 104.8649988  48.0920012  85.5894997 104.6869988
  49.3690012  84.3224997 106.0449988  50.1141776  83.6478959 106.1435948
  48.5530012  84.6274997 107.2149988  47.4969407  84.5027709 106.9756700
  48.9080012  83.6844997 108.3629988  49.9911018  83.5707205 108.4082383
  48.5500553  84.1231828 109.2944127  48.2830012  82.3124997 108.2019988
  48.9720012  81.2934997 108.2439988  46.9660012  82.2794997 108.0229988
  46.4968568  81.3922188 107.9101441  46.4407087  83.1418634 108.0006959
  48.7220012  86.0784997 107.6489988  47.7710012  86.6874997 108.1509988
  49.9190012  86.6424997 107.4649988  50.7039008  86.1053715 107.1251089
  50.1380012  88.0434997 107.8139988  49.8414578  88.2223206 108.8475288
  51.6190012  88.3934997 107.6629988  52.1717647  87.7292551 108.3273261
  51.8916785  88.1817652 106.6291150  51.9620012  89.8404997 107.9919988
  51.2070497  90.2318382 108.6739102  52.9375118  89.8656189 108.4776428
  52.0100012  90.7264997 106.7619988  52.1440012  91.9464997 106.8659988
  51.9010012  90.1154997 105.5889988  51.9265536  90.6568943 104.7367427
  51.7929957  89.1119034 105.5539177  49.2780012  88.9644997 106.9569988
  48.7120012  89.9404997 107.4559988  49.1690012  88.6684997 105.6649988
  49.6940195  87.8971546 105.2783700  48.3490012  89.4684997 104.7619988
  48.2089364  90.4656947 105.1792316  49.0200012  89.6004997 103.3979988
  49.8681471  90.2737286 103.5225399  49.3801876  88.6121011 103.1126324
  48.1080012  90.1344997 102.3189988  47.5700012  91.4134997 102.4089988
  47.8215869  92.0300833 103.2719175  46.7300012  91.9064997 101.4289988
  46.3140155  92.9104297 101.5137472  46.4190012  91.1214997 100.3399988
  45.5850012  91.6084997  99.3599988  45.2799825  92.5014435  99.5366752
  46.9400012  89.8494997 100.2279988  46.6937528  89.2281192  99.3669828
  47.7780012  89.3634997 101.2139988  48.1917325  88.3584910 101.1310283
  46.9580012  88.8584997 104.6119988  46.7050012  87.7984997 105.2419988
  46.1370012  89.4444997 103.8549988  73.1386739  66.6818593  72.4793115
  72.5560012  66.8944997  71.5829988  72.1853865  65.9608143  71.1599446
  73.1859434  67.3997352  70.8508725  71.3780012  67.7814997  71.8989988
  71.1440012  68.1864997  73.0269988  70.6480012  68.0864997  70.8139988
  70.7731004  67.6034948  69.9358440  69.6570012  69.1784997  70.8769988
  68.9080317  68.9826354  71.6443196  70.4010012  70.4774997  71.2359988
  69.6607353  71.2770533  71.2073693  70.8580318  70.4414398  72.2248985
  71.4960012  70.8664997  70.2669988  71.8620012  70.2314997  69.1499988
  71.2355671  69.3709521  68.9151838  72.9370012  70.7874997  68.5379988
  73.4456718  70.5087382  67.7111700  73.2620012  71.8354997  69.3549988
  74.3600012  72.6624997  69.2019988  75.0081700  72.5419897  68.3339820
  74.5560012  73.5914997  70.1729988  75.4494321  74.2141395  70.1260862
  73.6550012  73.7764997  71.2269988  73.7978584  74.5672653  71.9634640
  72.5660012  72.9654997  71.3609988  71.8982982  73.0969523  72.2124644
  72.4000012  71.9584997  70.4169988  68.8890012  69.3794997  69.5889988
  69.3610012  69.1744997  68.4809988  67.6510012  69.8434997  69.8009988
  67.2207841  69.8371769  70.7147671  66.8970012  70.4214997  68.6799988
  67.3040955  70.0934017  67.7235861  65.4520012  69.9044997  68.8029988
  65.4479895  68.8857791  69.1906733  64.6990012  70.8254997  69.7759988
  64.7021899  71.8443837  69.3887442  63.6703854  70.4805544  69.8811788
  65.1896180  70.8056949  70.7491403  64.7160012  69.9194997  67.4519988
  65.2449574  69.2832693  66.7424085  63.7006200  69.5467170  67.5866602
  64.6802592  70.9391562  67.0684315  66.8520012  71.9374997  68.7219988
  66.3080012  72.6004997  67.8559988  67.4170012  72.4644997  69.8199988
  67.8451862  71.8863654  70.5288836  67.2650012  73.9034997  70.0909988
  66.2018971  74.1252498  69.9975327  67.7580012  74.4204997  71.4579988
  67.4441663  73.7091223  72.2219034  69.2890012  74.5804997  71.5039988
  69.6035616  75.2921300  70.7406288  69.5872054  74.9467472  72.4863613
  69.7613906  73.6160271  71.3176081  67.1550012  75.6994997  71.7099988
  67.4542454  76.0326064  72.5591708  67.8520012  74.7714997  69.0019988
  67.3950012  75.8694997  68.7269988  68.9010012  74.1974997  68.3919988
  69.3707850  73.3968261  68.7898986  69.5410012  74.8924997  67.2669988
  69.0819787  75.8687343  67.1109105  71.0320012  75.0954997  67.5829988
  71.4643823  74.1973295  68.0239479  71.6106081  75.3834322  66.7052694
  71.2060012  76.2024997  68.5979988  70.1740012  76.9304997  69.1299988
  69.1985237  76.8159077  68.8946009  70.6670012  77.7984997  69.9939988
  69.9847029  78.4666553  70.5194854  71.9860012  77.6774997  70.0559988
  72.3070012  76.6704997  69.1709988  73.3475601  76.3759877  69.0346134
  69.2060012  74.2724997  65.9259988  69.8590012  74.4384997  64.9059988
  68.0860012  73.5384997  66.0009988  67.7689500  73.1930272  66.8955527
  67.3510012  73.1274997  64.7939988  68.0047892  73.3532438  63.9515619
  66.9030012  71.6514997  64.6899988  66.3148871  71.4157330  65.5769233
  66.2774769  71.5520860  63.8029045  68.0950012  70.6774997  64.5899988
  68.8406605  71.1412369  63.9442118  68.5054295  70.5616822  65.5931124
  67.7170012  69.2914997  64.0259988  67.2662643  69.4498874  63.0462802
  68.6398449  68.7225419  63.9131009  66.7900012  68.5204997  64.8479988
  65.8190958  68.4901691  64.5713721  67.1650012  67.8544997  65.9699988
  68.4210012  67.8994997  66.4679988  69.1276193  68.4478723  65.9988738
  68.6470763  67.3845424  67.3069318  66.2510012  67.0994997  66.6179988
  65.3071737  67.0395859  66.2634565  66.5156837  66.5984156  67.4540350
  66.1460012  74.0304997  64.6389988  65.9000012  74.5894997  63.5889988
  65.4970012  76.6114997  65.3449988  65.1840012  77.2134997  64.3259988
  64.6960012  75.4714997  65.9779988  64.5460012  75.6384997  67.5209988
  63.2740012  75.3894997  65.3589988  62.6000012  76.7544997  65.0409988
  62.7940012  77.8674997  66.0989988  62.8420012  79.3094997  65.6299988
  62.5500012  79.9224997  64.4969988  61.9120012  79.4134997  63.2299988
  65.4490012  74.2194997  65.7719988  64.5166729  76.6732168  67.8226884
  65.3688188  75.1572572  68.0344806  63.6216509  75.1704511  67.8400951
  62.6517028  74.8476737  66.0689773  63.3296202  74.7998153  64.4533620
  61.5409303  76.6050368  64.8743595  63.0265286  77.1085864  64.1081526
  63.6949974  77.6525755  66.6728693  61.9592313  77.7233246  66.7764586
  63.2054183  79.9227101  66.4405319  62.7878475  80.9724511  64.4468078
  61.6034650  80.2575028  62.6172789  61.0032446  78.8886523  63.4862444
  65.3702410  73.5515718  66.5036698  66.6160012  76.8954997  66.0229988
  66.9399616  76.3408744  66.8024472  67.3090012  78.1554997  65.7299988
  66.5295096  78.9166310  65.6957760  68.2920012  78.5074997  66.8649988
  69.0835281  77.7592284  66.9059288  68.7291186  79.4880968  66.6766961
  67.7591076  78.5243124  67.8157043  67.9580012  78.1554997  64.3589988
  67.9180012  79.1064997  63.5929988  68.5510012  76.9874997  64.0689988
  68.5393094  76.2025390  64.7044509  69.2470012  76.8324997  62.7809988
  69.8904966  77.7026369  62.6510985  69.8606803  75.9341492  62.8478088
  68.3290012  76.7144997  61.5809988  68.6690012  77.0294997  60.4509988
  67.1150012  76.2444997  61.8989988  66.8860438  75.9490883  62.8373004
  66.0890012  76.1014997  60.8519988  66.5351169  75.5806879  60.0047473
  64.8440012  75.3154997  61.3139988  65.1752073  74.2814756  61.4098946
  64.5529457  75.6955444  62.2932601  63.6340012  75.3814997  60.3559988
  63.3627077  76.4284992  60.2207483  63.9490012  74.7514997  58.9849988
  64.2199498  73.7043023  59.1193992  63.0708227  74.8195215  58.3429112
  64.7793082  75.2845233  58.5217748  62.4520012  74.6484997  61.0169988
  62.2063874  75.1325580  61.9622294  61.5862904  74.6837095  60.3556317
  62.7254785  73.6096529  61.2016782  65.6250012  77.4414997  60.3369988
  66.0504243  78.4820177  60.8337660  66.3530012  80.6494997  60.8539988
  66.3020012  81.8704997  60.8139988  65.1350012  79.7554997  61.0079988
  64.4190012  80.0334997  59.6739988  64.1370012  80.1234997  62.1259988
  62.9020012  79.1944997  62.0759988  65.5530012  78.3704997  61.3019988
  64.3123674  81.0878596  59.4753264  63.4332636  79.5856068  59.6742104
  64.9940347  79.5969517  58.8652481  63.8149592  81.1460391  61.9373136
  64.5669407  80.0918623  63.1185460  62.0005086  79.7925950  62.0395011
  62.8547523  78.5945355  62.9789471  65.8728909  78.2115122  62.2293968
  67.4590012  79.9264997  60.6129988  67.5547999  78.9838892  60.9628664
  68.5490012  80.4814997  59.7989988  68.4461082  81.5643338  59.7284120
  69.9060012  80.1584997  60.4389988  69.9506338  80.5815327  61.4425675
  70.0400011  79.0781853  60.4943613  70.9490012  80.7294997  59.6319988
  71.8022159  80.5321556  60.0252922  68.6000012  79.9014997  58.3939988
  69.5330012  80.1184997  57.6319988  67.5500012  79.1154997  58.1029988
  66.8132117  78.9641299  58.7770372  67.4800012  78.3974997  56.8189988
  68.2849709  78.6948057  56.1468886  67.6370012  76.8964997  57.1429988
  68.5191004  76.7790299  57.7724438  66.7526274  76.5774435  57.6945296
  67.7920012  76.0294997  55.8719988  67.4360150  76.6073251  55.0190670
  68.8499817  75.8026468  55.7404045  66.9920012  74.7124997  55.9709988
  65.9492630  74.9479085  56.1840216  67.0579771  74.1868106  55.0184246
  67.4980012  73.8384997  57.0229988  67.0373111  73.8541768  57.9216746
  68.5530012  73.0034997  56.8509988  69.2580012  72.9384997  55.6979988
  69.0030374  73.5296293  54.9197576  70.0360465  72.2991415  55.6207569
  68.9210012  72.2044997  57.8749988  68.4114719  72.2385309  58.7463895
  69.7041910  71.5763004  57.7650981  66.2400012  78.5974997  55.9589988
  66.3080012  78.7074997  54.7449988  65.0740012  78.5584997  56.6249988
  65.0185648  78.4690052  57.6294971  63.8200012  78.5574997  55.8539988
  63.8992228  79.1400896  54.9361687  63.5700012  77.0894997  55.4829988
  63.3085128  76.5263726  56.3788844  62.7522458  77.0290071  54.7648645
  64.7590012  76.5364997  54.9009988  64.6040781  75.6180841  54.6683798
  62.5760012  79.1524997  56.4769988  61.4560012  78.6864997  56.3329988
  62.8340012  80.2774997  57.1519988  63.7742169  80.5978527  57.3349403
  61.7110012  81.0874997  57.6519988  60.8916818  80.4174582  57.9124972
  62.0407469  81.6210762  58.5434376  61.2220012  82.0884997  56.6329988
  60.1120012  82.5944997  56.6819988  62.1220012  82.3304997  55.6669988
  63.0312789  81.8912303  55.6481375  61.7800012  83.2694997  54.5909988
  61.3541602  84.1615992  55.0502559  62.7022582  83.5329991  54.0732060
  60.7950012  82.7144997  53.5889988  60.3920012  83.3664997  52.6389988
  60.4220012  81.4564997  53.8709988  60.9230276  80.8969022  54.5462191
  59.3530012  80.8144997  53.0879988  59.5923277  80.8216668  52.0246218
  59.1620012  79.3474997  53.5419988  59.0868244  79.3287295  54.6292409
  57.8910012  78.7294997  52.9289988  57.9656483  78.7474970  51.8417063
  57.7873312  77.6989356  53.2685436  57.0194289  79.3041718  53.2423919
  60.3760012  78.4814997  53.1389988  61.2770481  78.8777302  53.6072058
  60.2166078  77.4551658  53.4696531  60.4922031  78.4996608  52.0553622
  58.0580012  81.6084997  53.1219988  57.2070012  81.5394997  52.2459988
  57.9590012  82.3944997  54.2049988  58.6420956  82.3729334  54.9486494
  56.7850012  83.2654997  54.3619988  56.2197685  83.3106321  53.4310990
  55.8570012  82.7344997  55.4779988  56.4129377  82.6986970  56.4148829
  54.6310012  83.6554997  55.6429988  54.0742688  83.6914421  54.7065917
  53.9878945  83.2672134  56.4327760  54.9631214  84.6596973  55.9064088
  55.3680012  81.3094997  55.1569988  56.2251599  80.6420388  55.0682465
  54.7168096  80.9592450  55.9578551  54.8155194  81.3174277  54.2174234
  57.1930012  84.6994997  54.6479988  57.4430012  85.1194997  55.7699988
  57.2040012  85.4624997  53.5459988  56.9627890  85.0924845  52.6377010
  57.5130012  86.8944997  53.6549988  57.5136751  87.2159719  54.6965142
  58.9200012  87.1254997  53.0669988  58.9162627  86.7866382  52.0310170
  59.1311879  88.1943858  53.0983447  60.0030012  86.3664997  53.8499988
  59.9370762  86.6572211  54.8984432  59.8096419  85.2978270  53.7569771
  61.4170012  86.6814997  53.3169988  61.5532774  87.7621203  53.3592695
  62.1353810  86.1990171  53.9797508  61.6420012  86.1904997  51.8689988
  62.5910496  85.6568311  51.8179551  60.8313813  85.5164551  51.5921260
  61.6710012  87.3584997  50.9169988  62.4223431  87.9829886  51.1731209
  61.8185709  87.0223187  49.9760920  60.7915233  87.8528930  50.9638292
  56.5120012  87.6544997  52.8159988  55.6420012  87.0904997  52.1699988
  56.7080012  88.9824997  52.8209988  57.1607384  89.4572570  53.5889400
  56.2100012  89.7934997  51.6929988  55.1957330  90.1335902  51.9020386
  57.1110012  91.0304997  51.4769988  57.1361734  91.2604440  50.4118269
  56.7210486  91.8886846  52.0243155  58.5250012  90.7584997  51.9469988
  59.2760012  89.9714997  51.3949988  58.8620012  91.4474997  53.0439988
  59.7843567  91.3393209  53.4410597  58.1923908  92.0724199  53.4696717
  56.1360012  89.0074997  50.3979988  55.1410012  88.9834997  49.6889988
  57.2670012  88.3344997  50.1409988  58.0872635  88.4281846  50.7227996
  57.3300012  87.4274997  48.9929988  56.3888368  86.8996611  48.8390661
  57.6050012  88.3144997  47.7609988  57.9703926  87.6776374  46.9553966
  56.6762135  88.7938514  47.4516843  58.6360012  89.3884997  48.0339988
  58.3510012  90.5714997  48.1339988  59.8820012  88.9094997  48.1419988
  60.6486202  89.5413301  48.3241675  60.0493635  87.9186179  48.0407863
  58.4390012  86.4064997  49.1509988  59.4760012  86.6424997  49.7469988
  58.1890012  85.2464997  48.5309988  57.2955579  85.0339425  48.1106681
  59.2160012  84.1974997  48.5509988  60.1953655  84.6241933  48.7675104
  58.8670012  83.1754997  49.6569988  58.9048443  83.6720798  50.6265736
  57.8751170  82.7495080  49.5060123  59.8360012  82.0064997  49.7289988
  61.1180012  82.1794997  50.2039988  61.4313461  83.1604140  50.5613808
  62.0000012  81.1244997  50.2289988  63.0135268  81.2677333  50.6036328
  61.6010012  79.8864997  49.7799988  62.2979255  79.0485379  49.7947093
  60.3200012  79.7074997  49.3119988  60.0020480  78.7261630  48.9598847
  59.4410012  80.7644997  49.2879988  58.4257226  80.6207367  48.9183482
  59.3020012  83.6084997  47.1569988  58.4310012  83.7984997  46.3209988
  60.4320012  82.9204997  46.9379988  61.1457780  82.8332733  47.6472332
  60.6680012  82.2924997  45.6319988  59.7756251  82.3232380  45.0068434
  61.8070012  83.0414997  44.9039988  62.7193832  82.9652050  45.4954693
  62.0450012  82.4264997  43.5119988  61.1331315  82.5028467  42.9197439
  62.8498098  82.9633318  43.0098088  62.3207224  81.3774917  43.6199884
  61.4760012  84.5394997  44.7499988  61.3398754  84.9852185  45.7353447
  62.2945196  85.0418635  44.2344817  60.5592728  84.6519296  44.1711469
  61.0340012  80.8314997  45.8259988  62.1870012  80.4814997  46.0359988
  60.0010012  79.9694997  45.7259988  58.5860012  80.3734997  45.6799988
  58.2813697  80.6345328  44.6665090  58.3927969  81.2152012  46.3450624
  57.9350012  79.0754997  46.1749988  56.9134558  78.9974624  45.8029043
  57.9274526  79.0466607  47.2645917  58.8240012  77.9664997  45.6049988
  58.5697397  77.7718570  44.5630946  58.7453534  77.0416900  46.1765241
  60.2560012  78.5214997  45.6989988  60.7350274  78.2617350  46.6430085
  61.1320012  78.0684997  44.5469988  61.6870012  78.8394997  43.7779988
  61.2140012  76.7324997  44.4609988  60.6149320  76.1264771  45.0031724
  62.2090012  76.1154997  43.5729988  62.7559238  76.8454472  42.9762145
  63.2060012  75.3964997  44.5089988  62.6566419  74.6967181  45.1387689
  64.2570012  74.6354997  43.6979988  64.8071182  75.3347343  43.0682832
  64.9489711  74.1365231  44.3764522  63.7646430  73.8923837  43.0707328
  63.8750012  76.3354997  45.3639988  64.4881316  75.8674415  45.9354818
  61.5370012  75.1464997  42.6169988  60.5030012  74.5604997  42.8989988
  62.1800012  75.0104997  41.4449988  63.0195524  75.5256080  41.2215788
  61.6170012  74.1134997  40.4199988  60.5306068  74.0970719  40.5070431
  61.9900012  74.5894997  39.0039988  61.8318071  75.6663293  38.9447375
  63.0445780  74.3681356  38.8397867  61.1610012  73.9004997  37.9469988
  60.5110012  72.8554997  38.3009988  61.1680012  74.4214997  36.7799988
  62.0700012  72.6754997  40.5819988  63.2480012  72.3544997  40.6499988
  61.0480012  71.8064997  40.6189988  60.0936159  72.1055553  40.4782370
  61.2950012  70.3934997  40.9499988  62.3103843  70.0810007  40.7061942
  61.0590012  70.1714997  42.4649988  61.1754732  69.1095291  42.6812211
  62.0590012  70.9824997  43.3169988  61.9428002  72.0446782  43.1016503
  61.8650108  70.8033639  44.3745330  63.0762045  70.6728422  43.0771836
  59.6200012  70.5434997  42.8769988  58.9121317  69.9251703  42.3250098
  59.4924764  70.3745427  43.9462464  59.4369864  71.5940586  42.6513168
  60.4240012  69.4764997  40.1079988  59.8190012  68.5084997  40.5429988
  60.3740012  69.8654997  38.8249988  60.9724689  70.5963152  38.4674455
  59.4290012  69.2224997  37.8989988  59.1156676  68.2694690  38.3252075
  58.5602756  69.8700979  37.7805427  60.0480012  68.9744997  36.5389988
  61.1920012  69.3224997  36.3009988  59.2520012  68.3504997  35.6459988
  57.8540012  67.9544997  35.8769988  57.3878119  68.5319042  36.6753545
  57.7569883  66.8907974  36.0943117  57.3090012  68.3204997  34.4889988
  57.0471897  69.3784098  34.4695052  56.4218096  67.7232387  34.2785901
  58.4330012  68.0024997  33.4919988  58.5481026  68.7317827  32.6901279
  58.2023607  67.0266787  33.0645901  59.7310012  67.9214997  34.3159988
  60.0844450  66.9052648  34.4904766  60.7940012  68.7044997  33.5769988
  61.5830012  68.1774997  32.8079988  60.7530012  70.0184997  33.8369988
  60.0521616  70.4268846  34.4387837  61.6750012  70.9184997  33.1309988
  62.2756316  70.3551153  32.4168977  60.8750012  71.9914997  32.3639988
  60.3112297  72.5996329  33.0714131  61.5351783  72.6326710  31.7799050
  59.8620012  71.4054997  31.3889988  58.5150012  71.4554997  31.6759988
  58.1764473  71.9353286  32.5942827  57.5990012  70.9034997  30.8099988
  56.5347413  70.9435378  31.0420517  58.0280012  70.3004997  29.6499988
  57.3043594  69.8610372  28.9634747  59.3710012  70.2524997  29.3569988
  59.7101873  69.7781496  28.4361052  60.2860012  70.8024997  30.2249988
  61.3501992  70.7620161  29.9927411  62.6810012  71.4974997  34.1019988
  63.0220012  72.6714997  34.1309988  63.1500012  70.5484997  34.9219988
  62.8045274  69.6013804  34.8610696  64.1820012  70.8484997  35.9169988
  64.8448483  71.6871681  35.7040007  63.4170012  71.1444997  37.2209988
  62.7556793  70.3095154  37.4524175  64.1272380  71.2815946  38.0363937
  62.8260437  72.0521193  37.0981364  65.0590012  69.6214997  36.0449988
  64.8870012  68.6074997  35.3869988  66.0340012  69.7514997  36.9529988
  66.2014535  70.6122270  37.4542048  66.9840012  68.6394997  37.1369988
  67.2794671  68.2351857  36.1688411  68.2480012  69.1434997  37.8679988
  67.9617300  69.4736033  38.8665876  68.9681834  68.3291911  37.9476170
  68.9810012  70.3124997  37.2149988  69.0110012  70.5094997  35.8489988
  68.4891453  69.8086183  35.1974378  69.6900012  71.5764997  35.3079988
  69.7023729  71.7227430  34.2279245  70.3530012  72.4584997  36.1289988
  70.8935158  73.3044882  35.7044434  70.3320012  72.2694997  37.4909988
  70.8552308  72.9648053  38.1474141  69.6490012  71.2004997  38.0249988
  69.6324277  71.0484876  39.1042196  66.4260012  67.4114997  37.8279988
  67.0940012  66.4104997  38.0349988  65.1360012  67.5344997  38.1679988
  64.6735394  68.4029507  37.9399110  64.6988338  66.7518277  38.6331966
  80.8970012  86.6694997  82.9069988  80.2337693  85.9877697  82.3837427
  81.2455636  87.4077938  82.1906078  80.3094451  87.1913084  83.6574024
  82.0540012  85.9324997  83.5389988  82.5608670  85.3978315  82.7374877
  81.6189073  85.1741171  84.1842609  83.0740012  86.7574997  84.3139988
  83.6243771  87.3779435  83.6068463  83.8014880  86.0702421  84.7413288
  82.5160012  87.6494997  85.4489988  81.9355735  88.4455146  84.9877896
  83.3529988  88.1364336  85.9470311  81.6110012  86.9234997  86.5309988
  82.1832012  86.1338257  87.0111813  80.7834742  86.4338722  86.0202845
  81.0530012  87.8654997  87.6149988  80.6256831  88.7266983  87.1045546
  81.9007048  88.2396103  88.1851012  80.0020012  87.2744997  88.5899988
  79.1234750  86.9430756  88.0394356  79.6564472  88.0426541  89.2804778
  80.5900012  86.0614997  89.4119988  81.4848971  86.3805771  89.9447294
  80.9068666  85.2752668  88.7292703  79.5920012  85.4894997  90.4059988
  78.6080868  85.4106897  89.9485685  79.4787400  86.1616220  91.2557049
  80.0270012  84.1204997  90.9039988  80.3753348  83.5344345  90.0563607
  79.1593695  83.5951881  91.3023604  81.1330012  84.1844997  91.9979988
  81.7951436  84.9922901  91.6937243  81.7094947  83.2666534  91.8963059
  80.7640012  84.3914997  93.4799988  80.3198458  83.4633898  93.8315056
  79.9710479  85.1366518  93.5053654  81.9060012  84.8434997  94.4499988
  82.3096212  85.8186970  94.1829165  82.7519726  84.1626590  94.4825919
  81.3000012  84.9514997  95.8459988  80.9588039  83.9924542  96.2217130
  80.4383698  85.6138315  95.8459512  82.3310012  85.5094997  96.7819988
  82.7106021  86.4523297  96.4091506  83.1589037  84.8183955  96.8869821
  82.2440012  87.0594997  96.9859988  81.6490012  87.8414997  96.2669988
  82.9800012  87.2574997  98.0159988  83.0910012  88.5834997  98.6169988
  82.9536270  89.2179064  97.7543757  84.1231428  88.6344416  98.9320870
  82.1200012  89.0274997  99.7839988  82.4511216  89.9602627 100.2096821
  82.0830012  87.9664997 100.8459988  81.5364263  88.3533523 101.6953526
  83.1092950  87.7920348 101.1441061  81.5090012  86.7984997 100.3949988
  80.3930012  85.9914997 101.2929988  79.5530012  87.1804997 102.0069988
  78.5890012  86.8814997 103.0609988  78.8764894  87.2139471 104.0499468
  78.3958237  85.8154427 103.1384721  77.2360012  87.5104997 102.6329988
  77.5283392  88.5529252 102.6446784  76.5533428  87.3320794 103.4512413
  76.4100012  87.3204997 101.3429988  77.2010012  87.6594997 100.0999988
  77.6414974  88.6388064 100.2274956  76.5177357  87.6741261  99.2639160
  77.9500349  86.8979773  99.9426802  75.9120012  85.9744997 101.1979988
  75.4293122  85.6865448 102.1193062  76.7322311  85.3201586 100.9625618
  75.1948217  85.9806906 100.3899689  75.1120012  88.1474997 101.4229988
  74.5447168  87.8361560 102.2874845  74.5298824  87.9813190 100.5290347
  75.3572402  89.1966108 101.5045991  79.5790012  85.2034997 100.3729988
  81.1320012  85.2694997 102.3559988  80.7660012  89.2294997  99.2159988
  80.4640012  90.3214997  98.6399988  81.2030012  91.2774997  98.4769988
  78.9580012  90.4354997  98.3269988  78.6037964  89.4725910  97.9735884
  78.3949938  90.6452312  99.2330575  78.7520012  91.5554997  97.2679988
  77.6870831  91.6653683  97.0949684  79.0869470  92.4991905  97.6866775
  79.4570012  91.3004997  95.9239988  79.2161736  92.1302916  95.2643766
  80.5252440  91.3656587  96.1155100  79.1670012  89.9704997  95.2219988
  79.8107815  89.1677132  95.5766632  78.1458761  89.6171273  95.3429684
  79.4420012  90.1854997  93.7329988  78.8142286  90.9938252  93.3636583
  80.4700448  90.5232046  93.6169702  79.2260012  88.8954997  92.8299988
  79.3995568  89.1132473  91.7773044  79.9017540  88.0858522  93.0910488
  77.7980012  88.4144997  93.0139988  77.7196812  87.5893671  92.3157135
  77.8089358  87.9735348  94.0098785  76.6340012  89.3114997  92.9089988
  76.6806816  90.2485090  93.4432164  75.4950012  89.0634997  92.1759988
  74.7110142  89.8065595  92.2049192  75.1860012  87.8954997  91.3289988
  76.0082268  87.1931890  91.4551961  74.3002713  87.3969093  91.7065849
  75.0170012  88.1684997  89.8409988  74.6533542  87.2776120  89.3303276
  74.2585198  88.9345476  89.6915480  76.3540012  88.6354997  89.1849988
  76.4876815  89.6703466  89.5001627  77.1407695  88.0657837  89.6717464
  76.5270012  88.5434997  87.6399988  77.5860599  88.3657499  87.4669536
  76.0108727  87.6390649  87.3226752  76.0400012  89.7444997  86.7719988
  75.7891943  89.4082722  85.7676895  75.1289799  90.1772424  87.1762252
  77.1370012  90.8344997  86.6499988  76.7212701  91.8393497  86.6982378
  77.8640605  90.7696338  87.4574708  77.8960012  90.6724997  85.2809988
  78.8563511  91.1779960  85.3451588  78.1251209  89.6151577  85.1676626
  77.1420012  91.1564997  84.0169988  77.7062084  90.9238036  83.1188943
  76.9773233  92.2286399  84.0287265  76.1720595  90.6746240  83.9324411
  78.9360012  46.5554997  82.1349988  78.5994960  45.6903284  81.5722626
  79.6855461  47.0675926  81.5385650  78.0891585  47.2271407  82.2462097
  79.5100012  46.1384997  83.5289988  80.3309440  45.4413847  83.3699809
  78.7400410  45.5868660  84.0616108  79.9900012  47.2794997  84.3589988
  79.3894602  48.1598371  84.1303385  81.0059423  47.5200192  84.0521029
  79.9830012  47.0394997  85.8909988  80.6370302  47.7450217  86.3986745
  80.3517402  46.0477635  86.1482863  78.5290012  47.2134997  86.4489988
  77.8750864  46.4769921  85.9890802  78.1544268  48.1886268  86.1421012
  78.4220012  47.0864997  87.9959988  79.0265727  47.8317554  88.5097147
  78.7664656  46.1177401  88.3515633  76.9800012  47.2694997  88.3759988
  76.3047566  47.0865330  87.5421295  76.7674830  48.2795697  88.7235971
  76.6680012  46.2454997  89.5319988  76.9819446  45.2493452  89.2228600
  75.5915426  46.1914770  89.6836647  77.3610012  46.6074997  90.8849988
  76.8845525  47.4821743  91.3225854  78.3993866  46.8845203  90.7072566
  77.3130012  45.4864997  91.8529988  77.8978690  44.6606832  91.4539301
  76.2865224  45.1275813  91.9233407  77.8250012  45.8634997  93.2829988
  77.4170243  46.8304633  93.5694899  78.9070771  45.9825339  93.2746080
  77.4530012  44.8804997  94.3119988  77.8104095  43.9183449  93.9532000
  76.3660433  44.8272561  94.2930820  77.9000012  45.1024997  95.7359988
  77.4097628  45.9752749  96.1639962  78.9681541  45.2852813  95.8129019
  77.5420012  43.9024997  96.5859988  78.1569580  43.0482907  96.3223701
  76.5105089  43.6181713  96.3955439  77.7000012  44.1954997  98.0899988
  77.1201337  45.0659564  98.3694623  78.7402962  44.3784385  98.3316363
  79.1570012  44.2664997  98.4289988  80.0250012  44.1894997  97.6489988
  79.2500012  44.4264997  99.7289988  80.5170012  44.6024997 100.3459988
  81.2092819  43.9357003  99.8544828  80.4854155  44.3649713 101.3994572
  80.9420012  46.0824997 100.1209988  81.7777870  46.2958489 100.7666288
  79.7380012  46.9574997 100.5169988  79.1168296  46.5334199 101.2942395
  79.1122459  47.2028895  99.6679999  80.4320012  48.1644997 101.0109988
  80.0360012  49.5604997 100.3069988  78.9600012  50.2334997 101.2899988
  78.8810012  49.8134997 102.6089988  79.6405434  50.2589822 103.2381489
  79.0234696  48.7383433 102.6684847  77.4400012  50.0724997 103.1919988
  77.2325391  51.1346226 103.2252150  77.3181681  49.6636504 104.1846598
  76.2860012  49.4354997 102.3149988  75.9240012  50.2994997 101.1539988
  75.7356538  51.3013731 101.5147047  75.0260070  49.8988494 100.7076963
  76.7285343  50.2747686 100.4343935  76.5540012  48.0854997 101.7499988
  76.9038375  47.4446252 102.5447368  77.2834917  48.1720831 100.9646856
  75.6214335  47.7099570 101.3542941  75.1800012  49.3454997 103.3629988
  75.5224085  48.7419826 104.1904082  74.3073495  48.8900252 102.9195215
  74.9319392  50.3376324 103.7116717  81.2080012  50.4674997 100.1339988
  79.3160012  49.3154997  99.0559988  81.3330012  46.3684997  98.7569988
  82.4740012  46.9984997  98.5079988  83.1580012  47.6594997  99.2599988
  82.7760012  46.7744997  97.0299988  83.6446254  47.3908134  96.8221471
  83.1099353  45.7451355  96.9260545  81.5970012  47.0824997  96.0589988
  81.7953496  46.4864038  95.1750369  80.7157408  46.6494402  96.5214625
  81.2880012  48.6164997  95.6089988  80.9365356  49.1199882  96.5060078
  82.2627402  49.0425475  95.3844279  80.3610012  48.9054997  94.4579988
  80.4849199  48.0626429  93.7805457  79.3505700  48.8321101  94.8527708
  80.4820012  50.1994997  93.6449988  80.5645607  51.0577134  94.3087413
  81.4009145  50.1777461  93.0623272  79.3270012  50.4024997  92.7109988
  79.4001614  49.6167932  91.9606562  78.4174083  50.2069325  93.2719910
  79.1880012  51.7744997  92.0039988  78.3606771  51.7035381  91.3075223
  78.8901874  52.4985118  92.7612698  80.4320012  52.2774997  91.3199988
  80.8298564  53.1827824  91.7532751  81.0770012  51.7704997  90.3119988
  81.9503172  52.2958189  89.9528764  80.7610012  50.4884997  89.5429988
  81.6502244  50.1694163  89.0019916  80.4951834  49.6683879  90.2005994
  79.5950012  50.7194997  88.4899988  79.3131479  49.7400831  88.1052820
  78.7374753  51.0821843  89.0535307  79.8660012  51.6674997  87.3219988
  78.9588278  51.7034112  86.7187957  79.9985127  52.6653951  87.7308379
  81.1020012  51.3094997  86.3879988  82.0085637  51.3429591  86.9881402
  81.0018390  50.2811292  86.0452061  81.2430012  52.2304997  85.1799988
  80.2978466  52.3435739  84.6522800  81.5498863  53.2351648  85.4576577
  82.2760012  51.6114997  84.1869988  83.2161126  52.1458314  84.3117510
  82.4656965  50.5883833  84.5065023  81.9120012  51.5964997  82.6709988
  82.7588312  51.2992875  82.0574364  81.1404085  50.8510169  82.4915185
  81.3910012  52.9754997  82.1969988  81.0589227  52.9278598  81.1642726
  82.1572807  53.7409752  82.2570301  80.5491961  53.3033162  82.8003574
  54.7280012  66.8444997  84.6999988  55.0024090  67.2977830  83.7525477
  54.1237792  67.5618739  85.2477944  54.1015273  65.9831396  84.4850541
  55.9310012  66.4494997  85.4779988  56.5630986  67.3103793  85.6890488
  56.5447915  65.7506406  84.9161523  55.4890012  65.8194997  86.7909988
  56.2645749  65.1195721  87.1016685  54.6081408  65.2174115  86.5771157
  55.1610012  66.7664997  87.9609988  54.4164876  67.4822648  87.6194877
  56.0486646  67.3480903  88.2049493  54.6300012  66.0724997  89.2479988
  53.6181140  65.7340162  89.0404264  54.5428749  66.8494399  90.0057177
  55.4530012  64.8804997  89.8259988  56.5078624  65.1397324  89.8958779
  55.3950258  64.0170522  89.1667004  54.9180012  64.4794997  91.2579988
  53.8555488  64.2748094  91.1393946  54.9883562  65.3768627  91.8712032
  55.5760012  63.3154997  91.9919988  56.5976725  63.5419869  92.2942273
  55.6323153  62.4177941  91.3791061  54.7320012  63.0234997  93.2399988
  54.0980894  62.1706704  93.0068054  54.0616501  63.8705034  93.3806795
  55.4940012  62.7504997  94.5599988  56.1846758  61.9297255  94.3794512
  54.7753833  62.3886564  95.2949047  56.2480012  63.9524997  95.1419988
  55.6604766  64.8242038  94.8618421  57.1781111  64.0217956  94.5805528
  56.5470012  64.0364997  96.6029988  57.3821826  63.3927010  96.8679785
  55.6970332  63.6872626  97.1863151  56.8580012  65.5184997  97.0089988
  55.9812333  66.1326295  96.8105682  57.6579732  65.9229541  96.3952110
  57.2170012  65.6814997  98.4429988  57.9902489  64.9589011  98.6823402
  56.3402756  65.4080271  99.0240814  57.6840012  67.0964997  98.8879988
  56.9409206  67.8398249  98.6284993  58.6183390  67.3551254  98.4040624
  56.5240012  68.0644997  98.8519988  56.4730012  69.0704997  98.2219988
  55.5550012  67.5084997  99.5889988  54.2490012  68.1534997  99.5319988
  54.0802817  68.4270040  98.5013722  54.2659060  69.0486099 100.1367167
  53.1510012  67.1814997 100.0139988  52.2460067  67.7566042 100.1195158
  53.5500012  66.5664997 101.3869988  52.6635596  66.0753455 101.7648742
  53.7656463  67.4231434 102.0132923  54.6560012  65.6644997 101.3799988
  55.1090012  65.2034997 102.8419988  54.9300012  63.6394997 102.6509988
  55.6960012  62.8954997 101.7489988  55.9028742  61.9039760 102.1301461
  56.6583291  63.3813319 101.6159988  55.0700012  62.8274997 100.3189988
  55.7947400  62.5652709  99.5585787  54.7122771  63.8288151 100.1272230
  53.8700012  61.9004997 100.0889988  52.6830012  62.3454997 100.9099988
  53.0002201  62.4699710 101.9362604  51.9302423  61.5733459 100.8531423
  52.2934833  63.2627221 100.4944318  53.4270012  61.9204997  98.6709988
  54.2888730  61.7646354  98.0404456  52.9539218  62.8638061  98.4642651
  52.7218631  61.1122385  98.5414179  54.1930012  60.5524997 100.6329988
  55.0782595  60.1743568 100.1437058  53.3638760  59.8866605 100.4462913
  54.3656551  60.6249111 101.6971332  56.5520012  65.6154997 102.9839988
  54.2320012  65.6334997 103.9519988  52.9300012  66.1094997  99.1089988
  52.1810012  66.3824997  98.0349988  51.7800012  67.4874997  97.7409988
  51.8800012  65.0304997  97.2829988  52.8405088  64.6315083  96.9735089
  51.4811098  64.3204898  98.0031923  50.9210012  65.2104997  96.0929988
  49.9787445  65.6319320  96.4255767  51.3228329  65.9098372  95.3667128
  50.6550012  63.8494997  95.4179988  51.5897652  63.2947077  95.4092793
  49.9823227  63.2997856  96.0717443  50.0380012  63.8824997  93.9819988
  49.5884400  62.9213864  93.7393839  49.2444459  64.6204021  93.8927123
  51.1350012  64.1924997  92.9199988  51.7059954  65.0729571  93.2075075
  51.8466131  63.3701232  92.8789325  50.5500012  64.4014997  91.5259988
  49.7623294  65.1463184  91.6285618  51.3211012  64.8537847  90.9086164
  50.0100012  63.2084997  90.8159988  49.0055678  63.0123392  91.1726706
  49.9178203  63.4521037  89.7584044  50.8910012  61.9784997  90.9559988
  50.9282467  61.6702623  91.9899990  51.6170012  61.2044997  90.0289988
  52.1986404  60.3659914  90.3842588  51.6810012  61.4084997  88.5399988
  52.0722758  60.5044434  88.0765256  50.7001605  61.5712871  88.1074103
  52.6050012  62.5794997  88.1659988  52.6064428  63.2936783  88.9885873
  53.6204411  62.1939726  88.0973718  52.2510012  63.3034997  86.8599988
  53.0344901  64.0077129  86.5801133  52.1584375  62.6070684  86.0311927
  50.9110012  64.0734997  87.0419988  50.1088217  63.3480533  87.1576734
  50.9481346  64.6370196  87.9726713  50.5880012  65.0354997  85.8769988
  49.8325223  65.7409340  86.2178859  51.4708614  65.6294567  85.6570038
  50.0730012  64.3764997  84.6049988  50.9146115  63.9784876  84.0409407
  49.4567870  63.5199660  84.8723267  49.2650012  65.2854997  83.6909988
  48.5461945  65.8343871  84.2942852  49.9566691  66.0305561  83.3039594
  48.5450012  64.6274997  82.5159988  48.0755708  65.3753094  81.8839507
  47.7676382  63.9468879  82.8464762  49.2386320  64.0620732  81.9001172
  94.1970012  54.6404997  79.5459988  94.0829291  55.3399455  78.7236898
  93.2043781  54.3957011  79.9128272  94.6338915  53.7293427  79.1465845
  95.1020012  55.2494997  80.6999988  94.6550283  56.1722832  81.0659070
  96.0713716  55.5211973  80.2909569  95.2830012  54.2484997  81.9039988
  95.7218214  53.3393525  81.4931249  94.2794114  53.9790765  82.2270926
  96.0800012  54.6834997  83.1209988  97.0855564  54.9305807  82.7877426
  96.1849888  53.8298866  83.7888522  95.5070012  55.8954997  83.9179988
  94.4610437  55.7160070  84.1532185  95.5296267  56.7769901  83.2793849
  96.2910012  56.2034997  85.2629988  96.2723620  55.2852375  85.8471769
  95.6899914  56.9253936  85.8118461  97.7110012  56.7064997  85.1699988
  97.6794770  57.6305269  84.5955861  98.2588878  55.9884462  84.5613533
  98.4640012  56.9454997  86.4579988  99.4321769  57.3789413  86.2105819
  98.6713383  55.9802487  86.9162409  97.7260012  57.8784997  87.5129988
  96.6990230  57.5706340  87.6975944  97.6780780  58.9181677  87.1914856
  98.5400012  57.7874997  88.8419988  99.5537934  58.1679533  88.7381758
  98.6334794  56.7662179  89.2103387  97.7460012  58.6484997  89.8979988
  96.8146767  58.1391715  90.1362436  97.4641463  59.6009932  89.4525305
  98.5130012  58.9094997  91.2219988  99.4156347  59.4848505  91.0310979
  98.8399794  57.9654096  91.6537964  97.6320012  59.6344997  92.2419988
  97.2153049  60.5442823  91.8131495  98.1868604  59.9405533  93.1244592
  96.4820012  58.7494997  92.6649988  96.8750379  57.7648036  92.8957385
  95.8301943  58.6339091  91.8030947  95.6210012  59.2604997  93.8789988
  95.2453885  60.2570272  93.6843480  96.2190359  59.2845652  94.7822397
  94.6120012  58.2014997  94.1209988  93.8400012  57.7204997  93.2999988
  94.5650012  57.9884997  95.4319988  93.4700012  57.3274997  96.0159988
  92.8645332  57.0537913  95.1651438  92.9124738  58.0095408  96.6414386
  93.8860012  56.0624997  96.8079988  93.0145013  55.4498450  96.9693561
  94.4340012  56.5524997  98.1519988  93.6003775  56.9286363  98.7294014
  95.0956795  57.3776606  97.9198860  95.1490012  55.5214997  98.8989988
  96.0240012  56.0654997 100.0739988  95.1790012  57.2994997 100.6719988
  95.6630012  58.6404997 100.7709988  95.1500535  59.2463971 100.0354975
  96.7086783  58.6197874 100.4778652  95.6440012  59.3364997 102.1949988
  95.8202749  60.3889007 102.0116179  96.4362951  58.9560121 102.8233908
  94.4010012  59.2704997 103.0179988  93.9260012  57.9444997 103.5129988
  93.8798347  57.2602328 102.6769476  92.9382652  58.0782550 103.9284350
  94.5986596  57.5961204 104.2823358  94.6240012  60.1514997 104.2219988
  94.9844685  61.1105465 103.8828726  95.3300386  59.6759412 104.8790568
  93.6712748  60.2678645 104.7180520  93.3740012  59.8964997 102.0959988
  93.6885870  60.8974780 101.8407338  92.4204460  59.9344719 102.6009152
  93.2842910  59.3010825 101.1988558  96.0530012  55.0714997 101.1899988
  97.3520012  56.4294997  99.5309988  94.8720012  55.2374997  96.0639988
  94.5380012  54.7444997  94.9259988  93.4460012  54.7804997  94.3879988
  95.7310012  53.9424997  94.3689988  96.6041675  54.5721514  94.5056451
  95.8828977  53.0796060  95.0126205  95.5500012  53.5054997  92.8699988
  96.1688876  52.6497599  92.6235236  94.5297996  53.2137242  92.6417689
  95.9690012  54.7144997  91.9739988  95.3291251  55.5608542  92.2104235
  96.9758571  55.0056402  92.2630375  95.9510012  54.4384997  90.4099988
  96.4394481  55.2659120  89.8986140  96.5290570  53.5493353  90.1703319
  94.5230012  54.2794997  89.8269988  94.3624953  53.2696988  89.4549219
  93.7800107  54.4367257  90.6065026  94.2560012  55.3324997  88.6429988
  94.5107117  56.3069064  89.0569494  94.9915858  55.1257245  87.8706794
  92.8400012  55.4064997  87.9789988  92.8924647  56.0851153  87.1356078
  92.6116383  54.4238916  87.5682949  91.7070012  55.8114997  88.9509988
  91.1296785  55.0616381  89.4705757  91.4040012  57.1014997  89.1999988
  90.6202858  57.3320354  89.9072848  92.0360012  58.2764997  88.6079988
  92.3616185  57.9910213  87.6091512  91.3012815  59.0626798  88.4746242
  93.3150012  58.8654997  89.4089988  93.0152973  59.2222460  90.3936889
  94.0386584  58.0711484  89.5815828  94.0170012  60.0474997  88.6069988
  93.3088420  60.8736938  88.5435894  94.8542231  60.4097889  89.1971766
  94.5030012  59.6894997  87.1969988  95.1260472  58.7984880  87.2295094
  93.6619649  59.4491693  86.5489368  95.2640012  60.8174997  86.6109988
  94.6002283  61.6791477  86.5715251  96.0593023  61.0869159  87.3005899
  95.8460012  60.5974997  85.1879988  96.3260354  61.5182692  84.8614508
  96.6356084  59.8507595  85.2491013  94.8640012  60.1684997  84.1299988
  94.3169713  59.2627377  84.3795355  94.1087892  60.9317545  83.9556146
  95.6610012  59.9454997  82.8149988  94.9904048  59.7189214  81.9915719
  96.3612868  59.1214205  82.9000548  96.2269181  60.8329576  82.5461169
  53.6580012  88.8914997  79.9289988  53.7195999  89.0108884  78.8517890
  54.1882012  89.7224567  80.3852753  52.6120178  88.9740862  80.2113288
  54.2530012  87.5284997  80.3809988  55.2895865  87.4716419  80.0531862
  53.7250037  86.7324625  79.8629664  54.1900012  87.3014997  81.9099988
  53.2427311  87.6172396  82.3469390  54.9642822  87.8550899  82.4374433
  54.3960012  85.8024997  82.1759988  55.3806317  85.5105827  81.8174781
  53.6798548  85.2219950  81.5964690  54.2830012  85.4294997  83.6199988
  53.2770786  85.6082381  83.9911393  54.9452052  86.0506450  84.2208559
  54.6560012  83.8794997  83.8489988  55.6482157  83.7223080  83.4299307
  53.9723693  83.2904737  83.2413205  54.6260012  83.3414997  85.3399988
  55.2808078  84.0079369  85.8984428  55.1304202  82.3767766  85.3068198
  53.3100012  83.1934997  86.0829988  52.8330184  82.2572588  85.7959596
  52.6287251  83.9867697  85.7808903  53.4910012  83.2294997  87.6939988
  54.1341372  84.0719544  87.9393292  54.0370793  82.3345467  87.9896927
  52.2100012  83.3234997  88.5009988  51.5140795  82.5468115  88.1915679
  51.7108462  84.2735293  88.3120095  52.5070012  83.1964997  90.0199988
  53.0382135  84.0980791  90.3175033  53.2087132  82.3747661  90.1522188
  51.2980012  82.9994997  90.9819988  50.7471291  82.1152965  90.6706408
  50.6199516  83.8410979  90.8530368  51.6650012  82.8954997  92.4419988
  52.3204172  82.0316343  92.5390476  50.7636755  82.6577517  92.9999970
  52.3600012  84.0924997  93.1009988  51.7090116  84.9585509  93.0417296
  53.2481263  84.3262983  92.5199102  52.7900012  83.8654997  94.6109988
  53.4141858  82.9853398  94.6990506  51.9152439  83.7355017  95.2370733
  53.1390012  85.2314997  95.2309988  53.4220012  86.2244997  94.5959988
  53.0550012  85.1304997  96.5229988  53.9250012  85.9444997  97.3049988
  54.3705886  86.6816446  96.6542061  54.7073927  85.3458015  97.7484127
  53.0900012  86.6224997  98.3719988  53.7246624  87.3055846  98.9119006
  52.4200012  85.6294997  99.3619988  52.1980044  86.1930162 100.2580833
  53.1918541  84.9050524  99.5900429  51.2670012  84.9834997  98.8899988
  50.0140012  84.8334997  99.8189988  50.7030012  84.3254997 101.1309988
  51.3310012  83.0484997 101.0029988  51.4542236  82.7256759  99.9774306
  50.7458206  82.2799214 101.4996357  52.6610012  83.0684997 101.7309988
  53.2630680  83.7578126 101.1525421  53.1628963  82.1122588 101.7638884
  52.6790012  83.5904997 103.1339988  51.4390012  83.1434997 103.9069988
  50.5619338  83.3863890 103.3229683  51.4154136  83.6850189 104.8409691
  51.5115954  82.0843955 104.1038375  53.9250012  83.0264997 103.8909988
  54.8000100  83.1910226 103.2810760  53.7730011  81.9800552 104.0864982
  54.0127198  83.5714891 104.8197554  52.8480012  85.0934997 103.2049988
  53.7687269  85.3713905 102.7139562  52.8837337  85.3979048 104.2402334
  52.0128929  85.5738371 102.7158105  49.4600012  86.1754997 100.0609988
  49.0710012  83.8714997  99.4099988  52.0390012  87.3824997  97.6889988
  51.2870012  88.2444997  98.4529988  51.6670012  88.7884997  99.4529988
  49.9610012  88.4754997  97.8319988  49.2538001  87.7981501  98.2995640
  49.6146553  89.4780800  98.0702932  50.0410012  88.2624997  96.2989988
  50.8594526  88.8495187  95.8969952  50.2784039  87.2264905  96.0790941
  48.6810012  88.6794997  95.5559988  47.8741626  88.0525462  95.9269366
  48.4379742  89.6956912  95.8565942  48.7310012  88.6204997  94.0039988
  48.3996385  89.6047752  93.6782589  49.7825251  88.5499195  93.7365704
  47.9520012  87.5684997  93.2209988  48.1712590  86.6162947  93.6996768
  46.9037577  87.7765738  93.4266001  48.1420012  87.4254997  91.6559988
  48.3125212  88.4461890  91.3171520  49.0845597  86.8997122  91.5317049
  47.0450012  86.7354997  90.7219988  46.0867185  87.2416854  90.7290904
  47.3560610  86.6822901  89.6795226  46.9260012  85.3704997  91.2459988
  46.5156330  85.3012965  92.2421729  47.2470012  84.2304997  90.6429988
  47.1184310  83.2528986  91.0850122  47.8110012  84.2054997  89.2939988
  48.5188912  85.0269133  89.1970848  48.3729287  83.2970030  89.1081164
  46.7070012  84.3734997  88.1849988  45.9508797  83.5947728  88.2775719
  46.1863951  85.3194183  88.3216235  47.3150012  84.3314997  86.7779988
  47.8091392  83.3692274  86.6439592  46.5131900  84.3657468  86.0455849
  48.3660012  85.5134997  86.4779988  47.9459902  86.4711642  86.7773553
  49.2709760  85.3803359  87.0682300  48.7440012  85.5464997  84.9479988
  47.8328841  85.6453105  84.3608939  49.3316976  86.4354104  84.7356886
  49.4870012  84.2964997  84.4589988  50.5584628  84.3666608  84.6376893
  49.1522554  83.4010227  84.9794795  49.2450012  84.0914997  82.8879988
  48.1705418  84.0467652  82.7284657  49.5751001  85.0172527  82.4218132
  49.9050012  82.9334997  82.1849988  49.7208072  82.9760857  81.1157336
  49.5340061  81.9782946  82.5409297  50.9806987  82.9467078  82.3361320
  60.5050012  56.0164997  80.5159988  60.0744492  55.1842077  79.9679622
  61.4399136  56.2837133  80.0319268  59.8299142  56.8620834  80.4167125
  60.7240012  55.6614997  81.9749988  61.3725495  54.7879690  82.0141421
  59.7671854  55.3498304  82.3850963  61.3580012  56.8314997  82.8779988
  60.5651047  57.4130156  83.3481939  61.9022323  57.5250180  82.2400209
  62.3130012  56.3134997  83.9579988  63.0894624  55.8210106  83.3767824
  61.7440552  55.5177731  84.4363561  62.9790012  57.1764997  85.0319988
  63.2177098  58.1534482  84.6194909  63.9285725  56.7213282  85.3085819
  62.1440012  57.3594997  86.2589988  62.2874297  56.4817961  86.8865988
  61.1006989  57.3459089  85.9509198  62.4190012  58.6634997  87.1129988
  62.1403753  59.5139931  86.4934840  63.4969488  58.7298957  87.2538902
  61.7280012  58.7784997  88.4639988  61.9209478  57.8663869  89.0272685
  60.6526303  58.8122256  88.2993051  62.1560012  60.0114997  89.3189988
  62.2243232  60.8860044  88.6754814  63.1583556  59.8442667  89.7112942
  61.2170012  60.3044997  90.4619988  60.2974039  60.6922832  90.0292590
  61.6505801  61.1206971  91.0392855  60.9010012  59.1304997  91.4049988
  61.8603234  58.7227152  91.7163727  60.4262765  58.3589425  90.8012902
  60.0310012  59.3914997  92.6929988  59.0964576  59.8773164  92.4231293
  60.5520431  60.0810671  93.3545742  59.7550012  58.1214997  93.4449988
  60.6841301  57.8446165  93.9402837  59.5522675  57.3389970  92.7191457
  58.5720012  58.1274997  94.5639988  58.6010599  57.1580237  95.0504317
  57.6416593  58.1705716  94.0039087  58.5500012  59.2144997  95.6199988
  58.5544982  60.1929912  95.1567763  59.4163822  59.1313109  96.2653921
  57.4250012  58.9664997  96.6529988  56.3910012  59.6094997  96.7249988
  57.7030012  57.9414997  97.4259988  56.7420012  57.6214997  98.4319988
  55.7833317  57.8837536  98.0105278  56.8600781  58.1243041  99.3809126
  56.8510012  56.1004997  98.5989988  55.9629996  55.7026771  99.0616913
  58.1360012  55.8084997  99.5349988  58.0774762  54.7897408  99.8934763
  58.0649053  56.4790535 100.3822815  59.4070012  56.0294997  98.8069988
  60.7290012  55.5754997  99.5029988  60.7420012  56.3504997 100.8609988
  61.5660012  57.5434997 100.9909988  61.6644730  58.1626585 100.1088794
  62.5751204  57.3265531 101.3292437  60.9250012  58.3104997 102.1229988
  59.8783312  58.4137618 101.8659621  61.3517418  59.2957152 102.2439107
  60.9520012  57.6484997 103.5539988  60.3500012  56.2234997 103.6529988
  59.3653584  56.2328754 103.2060931  60.2722007  55.9665794 104.6989620
  61.0110570  55.5285366 103.1572685  62.3970012  57.6754997 103.8569988
  62.7670135  58.6726262 103.6738496  62.8984775  56.9506378 103.2409900
  62.5129097  57.4230600 104.9010948  60.1930012  58.6424997 104.4139988
  60.6853271  59.6024211 104.3665854  60.1812780  58.2917721 105.4350290
  59.1792071  58.7328319 104.0513740  60.6690012  54.1254997  99.7469988
  61.8530012  56.0554997  98.6699988  56.8990012  55.5174997  97.2899988
  56.6150012  54.1874997  97.2419988  56.6360012  53.4224997  98.1239988
  56.3010012  53.7164997  95.8189988  55.2747171  53.3710172  95.7487429
  56.3974736  54.5132336  95.0856399  57.3310012  52.5614997  95.5389988
  58.1584629  52.7099930  96.2240665  56.8590969  51.6302326  95.8357834
  57.8780012  52.4364997  94.1099988  58.3969771  51.4889352  93.9898335
  57.0443820  52.4161584  93.4123381  58.8160012  53.6084997  93.7249988
  58.3773194  54.5478694  94.0564332  59.7751789  53.5259885  94.2303423
  59.0650012  53.6984997  92.1739988  59.8410855  54.4392430  91.9926332
  59.4756689  52.7440812  91.8502421  57.8280012  54.0264997  91.3019988
  58.1177376  54.1369185  90.2581782  57.0939541  53.2261828  91.3333966
  57.1430012  55.3594997  91.7969988  56.8701739  55.2544008  92.8405981
  57.8752679  56.1644927  91.7509813  55.9480012  55.7454997  90.9579988
  55.0494841  55.1685770  91.1173142  55.8900012  56.6924997  90.0889988
  54.9314291  56.7710425  89.5964740  56.9190012  57.7304997  89.6239988
  56.4699005  58.7055947  89.4431143  57.7557583  57.9009425  90.2921811
  57.4610012  57.1604997  88.2259988  58.4750586  57.5244135  88.0648802
  57.5362896  56.0775916  88.3041065  56.5460012  57.5374997  86.9539988
  55.5055714  57.2710920  87.1401166  56.5569745  58.6081783  86.7695242
  57.0610012  56.7684997  85.6529988  57.9933719  57.2772926  85.4185642
  57.3372424  55.7841538  86.0269493  56.2060012  56.6054997  84.3629988
  56.2623248  55.5865346  83.9846763  55.1524129  56.7951614  84.5490237
  56.7420012  57.5794997  83.2259988  57.7122249  57.1999662  82.9105573
  56.0795863  57.4629508  82.3701618  56.8820012  59.0924997  83.5369988
  55.9254257  59.4804820  83.8780970  57.5584829  59.1868395  84.3836306
  57.4070012  59.9654997  82.3859988  57.5566017  60.9891390  82.7159250
  56.7170600  59.9912270  81.5493027  58.3590571  59.5943217  82.0172747
  99.6530012  65.0864997  81.1559988  99.5511504  65.4609870  80.1421868
  99.9320062  64.0385028  81.0955936 100.4761491  65.6194479  81.6239791
  98.3230012  65.2744997  81.9699988  97.4991979  64.7475156  81.4916276
  98.0386108  66.3228670  81.9993583  98.5050012  64.7384997  83.3919988
  98.8102525  63.6932685  83.3446437  97.5379362  64.7474728  83.8908734
  99.4850012  65.5034997  84.2379988  99.2241127  66.5591793  84.2649742
 100.4918296  65.4522196  83.8264493  99.4950012  64.9654997  85.6699988
  99.9516829  63.9824245  85.7511034  98.4907042  64.8705672  86.0795600
 100.2990012  65.9604997  86.5239988  99.6542888  66.7897722  86.8094283
 101.0961685  66.3888655  85.9201743 100.9270012  65.3054997  87.8359988
 101.8372624  65.8428157  88.0957793 101.2307790  64.2846878  87.6082005
  99.9580012  65.2944997  89.0769988  98.9555630  65.1175218  88.6893809
  99.9536679  66.3052954  89.4806783 100.2400012  64.3194997  90.1859988
 100.3705384  63.3304197  89.7521534  99.3597824  64.2570469  90.8246627
 101.4030012  64.6464997  91.0009988 102.2447962  64.8587244  90.3455289
 101.6859705  63.7732716  91.5882211 101.1580012  65.8444997  91.9549988
 100.5294771  65.5438431  92.7905251 100.6258777  66.6493649  91.4508514
 102.5110012  66.3974997  92.5279988 103.1953255  66.6150446  91.7115471
 102.9898357  65.6263894  93.1286455 102.3120012  67.6584997  93.4079988
 101.7909034  68.3708192  92.7705743 103.3018391  68.0718013  93.5802678
 101.5620012  67.5824997  94.7439988 100.6717530  66.9645125  94.6901928
 101.2420117  68.5667773  95.0755048 102.5240012  66.9964997  95.8009988
 103.4353215  67.5789919  95.8483185 102.7781685  65.9726470  95.5536252
 101.6850012  66.7724997  97.0209988 100.4700012  67.0784997  97.0229988
 102.3660012  66.2764997  97.9479988 101.8430012  65.8284997  99.1899988
 102.4400076  65.0310939  99.6061590 100.8318456  65.4755114  99.0480281
 101.8730012  67.0604997 100.1199988 102.8002114  67.6053973 100.0547170
 101.6850012  66.5004997 101.5729988 102.0017898  67.2181901 102.3175566
 102.2696868  65.5967759 101.6913672 100.2330012  66.2024997 101.7209988
  99.6460012  64.8874997 102.3789988  98.0720012  65.0144997 102.2579988
  97.3190012  66.1084997 102.7239988  97.7764827  66.5895952 103.5786605
  96.3397413  65.7692058 103.0491555  97.0390012  67.1354997 101.5879988
  98.0243219  67.4465392 101.2645078  96.5048420  68.0001361 101.9546796
  96.3010012  66.6924997 100.3139988  97.3060012  66.0304997  99.3319988
  98.1497529  66.6942168  99.2020117  96.8043824  65.8904219  98.3860301
  97.6045870  65.0720237  99.7293490  95.3120012  65.6584997 100.6759988
  94.7279774  66.0194238 101.5086836  95.8295880  64.7490006 100.9235573
  94.6760674  65.5046429  99.8162236  95.6030012  67.9084997  99.7309988
  94.9226603  68.3139462 100.4650501  95.0518463  67.6130901  98.8508786
  96.3389073  68.6530057  99.4634393 100.1120012  63.7424997 101.5989988
  99.9830012  65.0194997 103.8599988 100.7640012  67.9644997  99.8249988
 100.6490012  69.0934997 100.4169988 101.4160012  69.6324997 101.1739988
  99.2970012  69.6714997  99.9949988  98.5519342  69.1254231 100.5644095
  99.2506993  70.6974801 100.3515478  99.0420012  69.6014997  98.5399988
  99.9935067  69.5154093  98.0268842  98.4968530  68.6900176  98.3162870
  98.2610012  70.8444997  97.9719988  97.3030560  70.9304100  98.4785701
  98.8190602  71.7427690  98.2244811  98.0550012  70.8104997  96.4799988
  97.5122357  71.6930351  96.1464678  98.9934439  70.8053119  95.9309084
  97.2230012  69.5354997  96.0769988  97.8209806  68.6266170  96.0610615
  96.4052231  69.3478924  96.7701247  96.6560012  69.7744997  94.7289988
  95.9476722  70.6007676  94.7643873  97.4302903  70.0644406  94.0242090
  95.9230012  68.4774997  94.1739988  95.1870327  68.2300162  94.9300956
  95.3654614  68.8272003  93.3061250  96.7440012  67.2304997  93.7649988
  96.6645847  66.3311984  94.3570328  97.5530012  67.1884997  92.6949988
  98.0071547  66.2249418  92.5135857  97.9410012  68.2524997  91.6909988
  97.4723835  69.1917160  91.9799471  99.0098608  68.4347454  91.6884529
  97.4750012  67.8994997  90.2539988  97.7918122  66.8845078  90.0170869
  96.3868346  67.8889109  90.2384965  97.9880012  68.8654997  89.1669988
  97.8610759  69.8800876  89.5446338  99.0584816  68.7125435  89.0612631
  97.3050012  68.7484997  87.7669988  97.3334909  67.6894224  87.5206479
  96.2566648  68.9962035  87.9242207  97.8520012  69.5784997  86.5869988
  97.7438537  70.6304170  86.8446111  98.9211201  69.3998688  86.5114953
  97.1810012  69.3544997  85.2159988  96.7423464  68.3582772  85.2136108
  96.3485953  70.0509574  85.1330462  98.1010012  69.5074997  83.9179988
  98.6621381  70.4371386  83.9710253  98.8428153  68.7122556  83.9427310
  97.3590012  69.4404997  82.5969988  98.0539810  69.4629091  81.7629904
  96.6755827  70.2737588  82.4730657  96.7798603  68.5245971  82.5204527
  67.4400012  92.8204997  84.3789988  67.2803502  93.3001501  83.4183344
  66.5663265  93.0133731  84.9948578  67.4920192  91.7486496  84.2085771
  68.6960012  93.3254997  85.0409988  68.6115999  94.4046595  85.1571601
  69.5260570  93.1557979  84.3605412  68.9990012  92.6854997  86.4229988
  69.8619510  93.1653404  86.8845174  69.2701138  91.6397669  86.2921863
  67.7950012  92.7624997  87.3899988  67.0319313  92.0946630  86.9963382
  67.3813443  93.7673423  87.3201045  68.0430012  92.4074997  88.8939988
  68.1630521  91.3385183  89.0503308  67.2057134  92.7154107  89.5181022
  69.3060012  93.1194997  89.3609988  69.1877986  94.1544182  89.0451052
  70.1111812  92.7071130  88.7566815  69.7130012  93.0844997  90.8349988
  70.5173406  92.3714677  91.0064440  68.8846943  92.7664374  91.4666427
  70.1770012  94.4914997  91.2729988  69.4186095  95.2345976  91.0298969
  71.0737429  94.7834660  90.7295893  70.4570012  94.5334997  92.7499988
  71.5045580  94.2833919  92.9036600  69.8824632  93.7405756  93.2272351
  70.1470012  95.8674997  93.4389988  69.2012309  96.2761674  93.0899882
  70.9057104  96.6154293  93.2101089  70.0960012  95.6474997  94.9669988
  70.9015641  94.9780941  95.2611169  69.1700942  95.1448634  95.2411906
  70.2250012  96.9324997  95.7679988  71.2305105  97.2899690  95.5597067
  70.2265054  96.6094158  96.8073662  69.2220012  98.0684997  95.6129988
  69.3320519  98.4267567  94.5908477  69.5516517  98.8792298  96.2566766
  67.7250012  97.8034997  95.8649988  67.2851269  97.1077840  95.1580084
  67.1353359  98.7151591  95.8174179  67.6150012  97.2344997  97.2519988
  68.0780332  97.8977709  97.9715219  68.1043037  96.2691154  97.3038176
  66.1900012  97.3054997  97.5929988  65.2870012  96.9604997  96.8389988
  66.0430012  97.9584997  98.7569988  64.7230012  98.0324997  99.2949988
  64.0806821  98.1340560  98.4332711  64.6586988  98.9311098  99.8912849
  64.3220012  96.8004997 100.1139988  63.3586384  96.9505215 100.5726050
  65.3990012  96.4454997 101.2249988  64.8946607  95.8686215 101.9883160
  65.7003567  97.3948043 101.6499582  66.5100012  95.7534997 100.7449988
  67.9280012  96.0614997 101.4589988  68.4340012  94.6704997 101.9479988
  67.7450012  93.8064997 102.8649988  67.0531450  94.3163344 103.5227164
  68.4433176  93.2748247 103.5048994  67.0140012  92.6884997 102.0329988
  66.4344633  93.2408817 101.3041236  66.3433262  92.0752278 102.6173529
  67.8890012  91.7034997 101.2169988  68.9330012  91.0474997 102.1619988
  69.4458467  91.8291005 102.7055275  69.6397861  90.5047170 101.5521283
  68.4248104  90.3627475 102.8242476  67.1530012  90.5094997 100.6799988
  66.2634249  90.8537811 100.1751836  66.9125783  89.8497964 101.4944670
  67.8089426  90.0141881  99.9787825  68.5440012  92.3224997 100.0199988
  67.7840810  92.7284553  99.3689970  69.1061980  91.5664988  99.4926967
  69.2103152  93.1103400 100.3405735  68.8530012  96.5144997 100.3869988
  67.7670012  96.9404997 102.6639988  64.2000012  95.7444997  99.1739988
  63.6050012  94.6434997  99.6409988  62.8890012  94.5884997 100.6019988
  63.9740012  93.4234997  98.6889988  64.1318902  92.5611486  99.3285101
  63.1092855  93.1841634  98.0750835  65.2200012  93.7304997  97.8069988
  64.9780998  94.5948614  97.1983744  66.0250450  94.0424231  98.4647534
  65.7160012  92.5614997  96.8699988  66.0482063  91.6834201  97.4179678
  64.9330284  92.2206133  96.1970834  66.8570012  93.1194997  96.0409988
  67.1017908  94.1191462  96.3952456  67.7571534  92.5230659  96.1682574
  66.5130012  93.2084997  94.4829988  67.3768178  93.6636173  94.0028012
  66.4773394  92.1796588  94.1300175  65.2240012  93.9364997  94.0199988
  64.3447620  93.2954964  94.0618831  64.9874559  94.8200505  94.6062601
  65.4740012  94.3674997  92.5529988  66.4505199  94.8352502  92.5060885
  65.5395586  93.4599410  91.9543457  64.3850012  95.2854997  91.9429988
  63.4234353  94.7965727  91.9865357  64.4210012  96.5134997  91.4119988
  63.5754223  97.0417278  90.9953677  65.7010012  97.2784997  91.3619988
  65.4632349  98.3002038  91.6532183  66.3800347  96.8979360  92.1168271
  66.4380012  97.3214997  89.9679988  67.5152386  97.3411866  90.1288615
  66.2282018  96.3975015  89.4325825  66.0270012  98.5204997  89.0899988
  64.9858152  98.4129994  88.7858894  66.0823429  99.4418318  89.6632250
  66.9000012  98.6414997  87.8519988  66.5446373  99.5841009  87.4416764
  67.8738052  98.8491172  88.2920962  67.0670012  97.5824997  86.6989988
  67.7856699  97.9844926  85.9873057  67.5315788  96.6955035  87.1209352
  65.8290012  97.2024997  85.9399988  65.0992742  96.7974697  86.6388065
  65.3827856  98.1055269  85.5273639  66.0270012  96.1884997  84.7959988
  67.0478301  95.8163496  84.8324352  65.3924446  95.3345720  85.0228433
  65.7090012  96.6764997  83.3669988  65.7969583  95.8628472  82.6533446
  66.3839753  97.4633564  83.0476128  64.6962999  97.0644468  83.3031690
  50.1890012  76.8384997  80.3429988  49.8693534  76.3043950  79.4536245
  51.1028353  76.3717957  80.6992073  50.4325606  77.8554976  80.0480311
  49.1140012  76.8234997  81.4099988  48.8911569  75.7771149  81.6115485
  48.2232894  77.2419382  80.9491780  49.4050012  77.5294997  82.7139988
  49.7541932  78.5456710  82.5312702  50.2135529  77.0227341  83.2370702
  48.1560012  77.5744997  83.6559988  47.7644870  76.5706165  83.8049461
  47.3486051  78.1490580  83.2046670  48.5040012  78.1764997  85.0309988
  47.5585225  78.4839274  85.4704658  49.0503321  79.0920100  84.8102539
  49.3210012  77.3214997  86.1059988  50.2199837  76.9070849  85.6533314
  48.7296443  76.4718999  86.4407438  49.7340012  78.2234997  87.3879988
  48.8766165  78.7917396  87.7440395  50.4898446  78.9562188  87.1086187
  50.2590012  77.3724997  88.5009988  51.3448803  77.3069667  88.4460182
  49.8878654  76.3537243  88.4059253  49.8470012  77.9424997  89.8969988
  48.7639121  77.9712838  89.9951344  50.1892962  78.9706069  90.0083839
  50.4240012  77.1064997  91.0009988  50.1355477  76.0688080  90.8483893
  49.9832459  77.4093529  91.9504426  51.9390012  77.2174997  91.0949988
  52.2289697  78.2112757  91.4294663  52.4079220  77.0771213  90.1226125
  52.5250012  76.1564997  92.1159988  53.6105505  76.1690433  92.0556301
  52.2144615  75.1624668  91.7995597  52.0840012  76.3674997  93.5349988
  52.3858555  75.5437859  94.1796937  51.0074830  76.4622604  93.6463682
  52.7480012  77.6314997  94.0489988  52.6252163  78.4234221  93.3174745
  53.8150393  77.4427539  94.1320444  52.2320012  78.1154997  95.4059988
  52.3140326  77.3287617  96.1451572  51.1932596  78.4143623  95.3300639
  50.8910012  78.7254997  95.4359988  50.4940012  79.7914997  95.0089988
  50.1100012  77.8024997  96.0509988  48.6870012  78.0724997  96.0349988
  48.3934335  77.9493234  95.0034428  48.4898272  79.0902314  96.3391970
  47.9420012  77.0904997  96.9129988  46.8990337  77.0919004  96.6426086
  48.0980012  77.4804997  98.3809988  47.6271846  78.4405927  98.5433382
  49.1587141  77.5767720  98.5764588  47.5250012  76.4954997  99.2309988
  48.1500012  76.1254997 100.6359988  49.6820012  76.5774997 100.6669988
  50.6470012  75.6284997 100.1429988  51.4724061  76.1072968  99.6324608
  50.1725464  74.9753620  99.4162932  51.1490012  74.7014997 101.2469988
  52.0357255  74.2365889 100.8348982  50.3978041  73.9404614 101.4015972
  51.5350012  75.1774997 102.6059988  52.3090012  76.4504997 102.3989988
  53.0873618  76.2668154 101.6711603  52.7525757  76.7281037 103.3436033
  51.6297504  77.2250915 102.0759774  50.3100012  75.3404997 103.4869988
  49.7230822  74.4367177 103.4285327  49.7494268  76.1956619 103.1540963
  50.6575383  75.4920019 104.4987112  52.3600012  74.1504997 103.3069988
  51.7984840  73.2308128 103.3774016  52.6002445  74.5046811 104.2982044
  53.2720295  73.9809748 102.7530127  47.4770012  77.0694997 101.6439988
  48.0950012  74.6494997 100.8139988  48.4620012  75.7544997  96.6559988
  47.5470012  74.7214997  96.7929988  46.3890012  74.8854997  97.0709988
  48.2510012  73.3354997  96.6779988  48.8768059  73.1691252  97.5487691
  47.5321097  72.5200206  96.6682003  49.0810012  73.3664997  95.3619988
  48.4230463  73.3146855  94.5014921  49.6259259  74.3003765  95.2673198
  50.0330012  72.2174997  95.3189988  50.5327394  72.1541215  96.2822738
  49.4398874  71.3111648  95.2249870  51.1080012  72.2434997  94.1479988
  51.7478373  73.1180557  94.2503093  51.7663018  71.3790367  94.1873181
  50.4320012  72.2944997  92.7549988  49.8524138  73.2145428  92.7162670
  51.2356182  72.4120603  92.0305954  49.5430012  71.1104997  92.3179988
  49.9510457  70.2128970  92.7800702  48.5527544  71.2506954  92.7423505
  49.3980012  70.8774997  90.7659988  50.3648553  70.6263161  90.3456656
  48.7566048  70.0133908  90.5978541  48.7910012  72.0754997  90.0629988
  47.8308620  72.3299252  90.4860288  49.2480012  72.8594997  89.0329988
  48.6278793  73.6631630  88.6626151  50.5760012  72.7304997  88.3259988
  50.8331119  73.7164677  87.9426162  51.3535385  72.4681660  89.0347284
  50.5990012  71.7054997  87.1149988  51.5809002  71.7587341  86.6462286
  50.5165941  70.7041680  87.5333323  49.4860012  71.9024997  86.0239988
  49.3984102  71.0345066  85.3705289  48.5017240  72.0568194  86.4574591
  49.8760012  73.1364997  85.1809988  49.9834984  73.9963809  85.8384131
  50.8527681  72.9758631  84.7280007  48.8070012  73.4574997  84.0309988
  47.7892133  73.4039921  84.4128819  48.9221809  74.4619524  83.6329618
  48.9360012  72.4744997  82.9549988  49.9968842  72.2616451  82.8362421
  48.4805295  71.5509074  83.3076416  48.3560012  72.8074997  81.5939988
  48.8815609  73.6338572  81.1219446  48.4813307  71.9574156  80.9269436
  46.8620012  73.1414997  81.6909988  46.4358429  73.2921609  80.7036997
  46.6850289  74.0461266  82.2629008  46.3120352  72.3359243  82.1692527
  83.9920012  86.4094997  80.1709988  83.4990791  86.4670002  79.2055194
  84.3977538  87.3918675  80.3948474  83.2331319  86.1894396  80.9168560
  85.0890012  85.3444997  80.1719988  85.8032448  85.5880618  79.3873099
  84.6376572  84.3969559  79.8904612  85.8340012  85.1984997  81.5039988
  86.2590361  86.1692738  81.7586985  86.6794857  84.5357411  81.3305688
  85.0400012  84.6684997  82.6949988  84.6204610  83.7036048  82.4189299
  84.1909172  85.3264616  82.8734604  85.8240012  84.5054997  83.9749988
  86.2334435  85.4686792  84.2686229  86.6769477  83.8591707  83.7747339
  85.0150012  83.9284997  85.1499988  84.7308022  82.8993668  84.9380237
  84.0861279  84.4815900  85.2719108  85.7950012  83.9744997  86.4419988
  85.1062716  83.7302898  87.2487101  86.0990514  85.0077392  86.6038617
  87.0190012  83.0694997  86.5339988  87.6759342  83.3332461  85.7061534
  86.6823700  82.0522753  86.3426401  87.8160012  83.0994997  87.8399988
  88.7247891  82.5085012  87.7485311  87.2426184  82.6511107  88.6504039
  88.1840012  84.5454997  88.2179988  87.2797925  85.1008989  88.4572422
  88.6334941  85.0481932  87.3620290  89.1600012  84.5954997  89.4019988
  89.5487068  85.6015309  89.5446523  90.0265871  83.9568903  89.2397187
  88.4360012  84.1574997  90.7139988  87.9463658  83.2008253  90.5489221
  87.6433332  84.8712766  90.9304935  89.3830012  84.0704997  91.9559988
  89.8021159  85.0527403  92.1676546  90.2273312  83.4145307  91.7634229
  88.6070012  83.5584997  93.2899988  88.1181426  82.6038938  93.1254087
  87.8303242  84.2655826  93.5691021  89.5610012  83.4304997  94.4249988
  90.0855863  84.3637034  94.5861891  90.2881905  82.6535425  94.2210324
  89.7450012  84.7884997  95.2049988  89.8390012  85.8894997  94.6449988
  89.7390012  84.6094997  96.5109988  89.7930012  85.8434997  97.3219988
  90.1380491  86.6184156  96.6542344  90.5082915  85.7229044  98.1226289
  88.3840012  86.2014997  97.8819988  88.5484179  86.9934938  98.5937617
  87.7090012  84.9724997  98.5959988  88.3784356  84.6468127  99.3805920
  87.6505052  84.1947626  97.8448075  86.4250012  85.2464997  99.1229988
  85.8660012  84.3454997 100.3349988  85.8650012  85.2264997 101.6209988
  85.2110012  86.5004997 101.6749988  84.5213687  86.5630523 102.5066737
  84.6205346  86.6401460 100.7740853  86.2540012  87.7324997 101.6929988
  85.6172680  88.5147866 102.0865049  86.5595157  88.0036740 100.6927476
  87.4800012  87.7624997 102.5129988  88.1290012  89.1434997 102.5119988
  88.2433608  89.4704724 101.4876235  89.1000051  89.0556748 102.9762596
  87.5132514  89.8205445 103.0848682  87.1300012  87.4914997 104.0309988
  86.5133652  86.6076325 104.0880327  86.6238729  88.3507369 104.4333860
  88.0616336  87.3278445 104.5530858  88.4150012  86.6694997 102.0859988
  87.9167306  85.7165734 102.1846903  89.2917010  86.6864830 102.7158869
  88.7062068  86.8254237 101.0572510  84.4870012  83.9714997  99.9349988
  86.8380012  83.2944997 100.6569988  87.4640012  86.6664997  96.8299988
  87.5340012  87.9884997  96.5859988  88.3110012  88.7454997  97.1689988
  86.5860012  88.3224997  95.3889988  85.5813852  88.0666096  95.7096543
  86.5855285  89.3994575  95.2404435  86.9850012  87.5824997  94.0929988
  88.0408202  87.7369987  93.8995119  86.8564272  86.5121307  94.2187446
  86.1500012  88.0814997  92.8419988  85.0897652  87.9541041  93.0452818
  86.3110832  89.1510264  92.7314088  86.5220012  87.3864997  91.5109988
  87.5803686  87.5562129  91.3218912  86.3993849  86.3105430  91.6083868
  85.7270012  87.8684997  90.2829988  85.9306732  88.9215950  90.1002176
  86.0774923  87.3348146  89.4016831  84.2220012  87.6594997  90.4129988
  84.0761043  86.6763276  90.8577322  83.8428632  88.3804747  91.1318641
  83.3890012  87.7634997  89.1269988  83.5397531  86.8600247  88.5477002
  82.3373007  87.7744099  89.4101119  83.6870012  89.0264997  88.2799988
  83.4691465  89.9495026  88.7959047  84.1920012  89.1264997  86.9939988
  84.3470428  90.0612254  86.4745183  84.5840012  87.8984997  86.1899988
  84.2028640  86.9887800  86.6508302  84.2246040  87.8941144  85.1670152
  86.1450012  87.8304997  86.1919988  86.5458541  87.7921092  87.2041984
  86.4976693  86.9305305  85.6918590  86.7060012  89.0684997  85.4629988
  86.2149178  89.1006382  84.4904191  86.3558521  89.9402023  86.0089239
  88.2300012  89.1654997  85.2649988  88.4368667  90.1399171  84.8281208
  88.6942258  89.1687953  86.2496660  88.8620012  88.0704997  84.4159988
  89.9271981  88.0014367  84.6285446  88.4459334  87.0983060  84.6657028
  88.6990012  88.3394997  82.9319988  87.6651519  88.6045993  82.7180807
  89.2967631  89.2046050  82.6507385  89.1060012  87.1314997  82.0109988
  88.4877985  86.2644945  82.2301849  88.8835964  87.4006991  80.9807654
  90.5620012  86.7474997  82.1079988  90.8043187  85.9702564  81.3894975
  90.8172975  86.3708567  83.0927347  91.2048652  87.5990140  81.9035724
  96.2480012  75.2254997  80.4989988  96.6067418  74.5087356  79.7668898
  96.1490457  76.1859346  80.0014422  95.2549647  74.9120554  80.8092299
  97.1730012  75.3154997  81.6689988  98.1638031  75.6052050  81.3231877
  97.2807290  74.3291478  82.1120775  96.6870012  76.3344997  82.7419988
  95.7308469  76.0610138  83.1879848  96.5525175  77.3325982  82.3298283
  97.7860012  76.4034997  83.8699988  98.7192023  76.8461666  83.5287780
  98.0487204  75.4353338  84.2934836  97.1810012  77.3134997  84.9919988
  96.2480898  76.8964256  85.3625370  96.9365906  78.2918777  84.5816271
  98.1630012  77.4884997  86.1839988  97.6580567  78.0199433  86.9886203
  98.9924720  78.1211322  85.8752414  98.7180012  76.1464997  86.7259988
  99.4773907  75.7648447  86.0459715  97.9224216  75.4028399  86.7419182
  99.3060012  76.2744997  88.1059988  98.5807641  76.4559190  88.8981914
 100.0691274  77.0435035  88.2106669  99.9640012  74.8574997  88.3179988
 100.7311266  74.9764506  89.0801735 100.4882762  74.6109078  87.3955536
  99.0790012  73.7404997  88.6869988  98.3352911  73.6555330  87.8977111
  98.5390213  74.0427985  89.5839191  99.7780012  72.3044997  88.9459988
 100.6289073  72.1861693  88.2785426  99.0889515  71.4974103  88.7032122
 100.2870012  72.1274997  90.4429988 101.1132040  72.8231088  90.5684412
 100.7186992  71.1298363  90.4975386  99.2700012  72.2914997  91.6029988
  99.1356696  73.3485284  91.8263757  99.6362776  71.8316440  92.5165897
  97.8950012  71.7014997  91.2619988  97.9304601  70.6213014  91.3582243
  97.6797208  71.9174121  90.2188649  96.7540012  72.2434997  92.1149988
  96.7204023  73.3242140  92.0605138  96.8849530  71.9514131  93.1501828
  97.0580012  71.9304997  93.6429988  97.5700012  70.9484997  94.1349988
  96.7420012  73.0634997  94.3389988  97.0200012  72.9614997  95.7689988
  97.3313570  71.9458922  95.9615112  96.1116420  73.1625468  96.3182306
  98.1660012  73.9734997  96.1789988  99.0494724  73.6721918  95.6408667
  98.4390012  73.9284997  97.7129988  99.2782547  74.5652020  97.9580794
  98.6868140  72.9091479  97.9815055  97.2630012  74.3574997  98.4119988
  97.4060012  75.2934997  99.6989988  98.0280012  74.2194997 100.7289988
  97.3340012  73.0014997 101.1049988  98.0146853  72.3439468 101.6298628
  97.0529216  72.4874081 100.1903944  96.0010012  73.1804997 101.9009988
  95.6007809  72.1818816 102.0227970  95.2558400  73.7968926 101.4191568
  96.1600012  73.7454997 103.3269988  96.7160012  75.1914997 103.4529988
  97.6259491  75.2632374 102.8731864  96.9330994  75.3754156 104.4947009
  95.9643143  75.8870613 103.1111246  94.7410012  73.7674997 103.8809988
  94.2934607  72.7994779 103.7156040  94.1849177  74.5467134 103.3911345
  94.8108982  73.9674358 104.9404500  96.9770012  72.8844997 104.1739988
  96.5269759  71.9041477 104.2236917  97.0299310  73.3091332 105.1652277
  97.9719490  72.8098881 103.7593338  98.4860012  76.3224997  99.3339988
  96.0280012  75.6624997 100.1669988  97.8250012  75.3704997  95.8449988
  98.2860012  75.8194997  94.6739988  98.9150012  75.1564997  93.8969988
  97.7950012  77.2244997  94.5229988  97.1947443  77.4834988  95.3891189
  98.6249880  77.9266210  94.5156251  96.9690012  77.3104997  93.1879988
  96.7288829  78.3531924  93.0113744  97.6091423  77.0065308  92.3658946
  95.7500012  76.5354997  93.1729988  95.9783515  75.4730028  93.1482885
  95.2058685  76.7071681  94.0984795  94.8370012  76.9064997  91.9909988
  94.6086240  77.9707087  91.9880138  95.2832264  76.6887101  91.0237073
  93.5160012  76.1284997  92.1149988  93.5842321  75.0886501  91.8020158
  93.1261745  76.1140424  93.1309747  92.5060012  76.8724997  91.2079988
  91.5050363  76.5921869  91.5323366  92.5983739  77.9401599  91.3865676
  92.6410012  76.6154997  89.7149988  92.0519213  77.3398820  89.1646941
  93.6771361  76.7745160  89.4192215  92.2450012  75.1984997  89.3499988
  91.3808734  74.8237698  89.8776489  92.8260012  74.3694997  88.4509988
  92.4393337  73.3768081  88.2702732  94.0220012  74.7154997  87.6289988
  93.7010606  75.3444447  86.8003575  94.7400045  75.3000153  88.1933512
  94.7320012  73.4484997  87.0369988  95.6794942  73.7907063  86.6224429
  94.9832046  72.8213193  87.8902283  93.9890012  72.6024997  85.9889988
  93.1589872  72.1248663  86.5096236  93.5443415  73.2957133  85.2803122
  94.7940012  71.5294997  85.2229988  94.0957150  70.9550133  84.6184272
  95.4604950  72.0313518  84.5237024  95.6120012  70.5884997  86.1129988
  96.3783676  71.1901996  86.5980035  94.9615177  70.2380598  86.9096720
  96.2840012  69.4324997  85.4579988  96.8108653  68.8573992  86.2173120
  95.5204535  68.7703960  85.0537121  97.2600012  69.7744997  84.3489988
  97.5266058  68.8968337  83.7654412  96.7863871  70.4613253  83.6509491
  98.5650012  70.4454997  84.9099988  99.2137572  70.7637745  84.0995139
  99.1345496  69.7652877  85.5342321  98.3279359  71.3213525  85.5073453
  87.3690012  54.1584997  85.0369988  87.4165344  53.9366482  83.9754190
  88.3024250  53.8314269  85.4859233  87.3118717  55.2379928  85.1467384
  86.1480012  53.4624997  85.7059988  86.2264000  52.3884404  85.5464580
  85.2454985  53.7822784  85.1921462  86.0250012  53.7434997  87.2209988
  85.0430405  53.5252667  87.6405898  86.2447249  54.7749143  87.4894690
  87.1030012  52.8074997  87.9019988  87.8451263  52.4969015  87.1698587
  86.6456975  51.8922237  88.2746235  87.8120012  53.5144997  89.0409988
  88.3765959  54.3222638  88.5823890  88.5456949  52.7968931  89.4044534
  87.0250012  54.0704997  90.2219988  86.5260386  54.9600586  89.8418170
  87.7744644  54.4206948  90.9285716  85.9770012  53.1694997  90.9799988
  86.4847334  52.2308772  91.1943951  85.1989807  52.9357522  90.2545498
  85.3080012  53.7154997  92.3049988  85.7923811  54.6471280  92.5946463
  85.4898964  53.0133161  93.1165013  83.8600012  53.9414997  92.1749988
  83.6868307  54.4589535  91.2338322  83.5581720  54.6323774  92.9612329
  82.9770012  52.6884997  92.2359988  83.0382087  52.2696230  93.2380442
  83.3878004  51.9349480  91.5645579  81.5050012  52.9504997  91.8629988
  80.9909120  51.9948235  91.9400473  81.4838155  53.2209079  90.8086940
  80.7210012  53.9824997  92.6619988  79.6642869  53.8951561  92.4212811
  81.0241858  54.9779027  92.3427467  80.9250012  53.8714997  94.1529988
  80.3745846  54.6726970  94.6432807  81.9711548  54.0235632  94.4034249
  80.4470012  52.5154997  94.7629988  80.8359355  51.6871371  94.1799975
  79.3633460  52.4637211  94.6989486  80.8640012  52.3344997  96.2499988
  80.5145070  53.1681542  96.8457462  81.9425415  52.2744029  96.3348996
  82.3710012  52.1734997  96.5009988  83.1420012  51.6914997  95.6399988
  82.6710012  52.7064997  97.6789988  84.0300012  52.7324997  98.1249988
  84.5923161  52.8038402  97.2062091  84.2130043  51.7685053  98.5771235
  84.4130012  53.8434997  99.0559988  85.4461863  53.7257494  99.3380578
  83.5060012  53.8644997 100.3429988  83.8770080  53.1170739 101.0311192
  82.5120589  53.5781643 100.0225679  83.4770012  55.1444997 100.9659988
  84.7090012  55.8784997 101.7219988  85.8340012  56.1384997 100.6249988
  86.9260012  56.9494997 101.0319988  86.6116514  57.8497353 101.5438083
  87.4956511  57.2711167 100.1649011  87.9530012  56.1144997 101.9209988
  87.4798066  55.8260779 102.8511325  88.7688846  56.7879009 102.1406394
  88.6130012  54.8084997 101.3549988  89.5710012  54.3654997 102.4179988
  90.1991678  55.2033943 102.6875783  90.1787796  53.5720616 102.0091450
  89.0101858  53.9940276 103.2625174  87.6780012  53.6894997 101.0329988
  86.8754399  54.0777232 100.4248114  87.3075845  53.2667004 101.9497334
  88.2380435  52.9497009 100.4795122  89.3910012  55.2124997 100.1069988
  88.7152522  55.6684398  99.3987870  89.8372184  54.3332834  99.6670910
  90.1665767  55.9146344 100.3770437  84.2670012  57.1134997 102.3729988
  85.1670012  54.8084997 102.6279988  84.2660012  55.1114997  98.3319988
  85.3550012  55.4584997  97.6659988  86.3340012  54.7584997  97.5959988
  84.9970012  56.8644997  97.0649988  84.3942245  57.3763770  97.8080969
  85.9116246  57.4449025  96.9727843  84.2660012  56.7534997  95.7009988
  85.0243365  56.4949907  94.9701351  83.6067932  55.8937329  95.7664128
  83.4820012  57.9744997  95.2009988  82.8785779  58.3740863  96.0120875
  84.1927033  58.7545154  94.9391918  82.5970012  57.6874997  93.9779988
  83.2203403  57.3228229  93.1636492  81.8841876  56.8952184  94.1933804
  81.8000012  58.9724997  93.4639988  81.1337945  59.3484657  94.2377683
  82.4982227  59.7787289  93.2475222  80.9770012  58.6674997  92.1769988
  80.2769106  57.8743237  92.4347703  80.3769549  59.5444693  91.9507540
  81.7720012  58.2584997  90.8899988  82.3464638  57.3943077  91.2026408
  81.0009844  57.8869140  90.2163495  82.6110012  59.2154997  90.1599988
  82.0675522  60.1058638  89.8816662  83.9080012  59.1554997  89.8109988
  84.2536602  60.0269851  89.2737437  84.9490012  58.1274997  90.0259988
  85.7975814  58.6087527  90.5092462  84.6022490  57.3630651  90.7123542
  85.4430012  57.4674997  88.7379988  86.3618973  56.9216532  88.9486799
  84.7112651  56.7224967  88.4314177  85.6840012  58.4514997  87.5729988
  84.7282853  58.9315239  87.3625447  86.3420032  59.2336200  87.9415432
  86.2550012  57.8744997  86.2749988  86.8868519  57.0228618  86.5171196
  85.4423070  57.4862869  85.6635219  87.0720012  58.9294997  85.4419988
  86.5705336  59.8954659  85.4365672  88.0558344  59.1082756  85.8671298
  87.2100012  58.4444997  83.9419988  87.8144529  59.1636085  83.3920863
  87.7654200  57.5085061  83.9258738  85.8950012  58.2404997  83.1909988
  86.0404345  57.5322113  82.3791541  85.1940828  57.7669003  83.8749067
  85.2970012  59.4424997  82.6759988  84.3275908  59.2320808  82.2343695
  85.9101091  59.9041506  81.9093710  85.1491428  60.1742096  83.4652259
  43.4960012  92.0184997  81.9849988  43.9373302  92.4264240  81.0809770
  42.9061578  92.8036370  82.4491476  42.8141823  91.2252243  81.6909762
  44.5460012  91.5064997  82.9189988  45.2169785  92.3366461  83.1331234
  45.1302792  90.7770190  82.3646603  44.0520012  90.8894997  84.2589988
  43.3690864  90.0723716  84.0269252  43.4563206  91.6442683  84.7685672
  45.1570012  90.3754997  85.2489988  45.9252094  91.1280472  85.4126398
  45.6737202  89.4942911  84.8719326  44.4990012  90.0414997  86.6009988
  44.1192885  89.0230635  86.6143819  43.6419657  90.6894398  86.7771489
  45.5100012  90.2124997  87.7509988  45.9445313  91.1990061  87.5999833
  46.3012757  89.4961521  87.5405046  45.0780012  90.0704997  89.2029988
  45.9042666  90.3030873  89.8722958  44.7925099  89.0417027  89.4181768
  43.8880012  91.0064997  89.5169988  42.9474973  90.5418039  89.2238072
  43.9630223  91.9286855  88.9437370  43.8420012  91.3364997  90.9809988
  43.0058710  92.0038826  91.1785523  44.7407154  91.8849408  91.2604663
  43.7150012  90.0814997  91.8689988  44.6661168  89.5552156  91.8277290
  42.9806565  89.4213995  91.4080925  43.3040012  90.3444997  93.3819988
  43.0666546  89.4093829  93.8847553  42.4093935  90.9608484  93.4521361
  44.4420012  91.0214997  94.1389988  44.5145015  92.0527033  93.8019797
  45.3741474  90.5405243  93.8484199  44.3230012  90.9734997  95.6439988
  44.3125195  89.9495860  96.0137863  43.4180951  91.4422018  96.0204789
  45.5480012  91.6854997  96.2509988  45.6941748  92.6709316  95.8209963
  46.4537959  91.1185127  96.0531260  45.3740012  91.8204997  97.7969988
  45.1932800  90.8512203  98.2440764  44.5385914  92.4709361  98.0274159
  44.2300012  92.8164997  98.1739988  43.9990012  93.7914997  97.5619988
  43.7230012  92.4654997  99.3419988  42.7540012  93.2584997 100.0219988
  42.3644734  93.9399943  99.2808543  43.2718483  93.8232881 100.7836026
  41.5910012  92.4104997 100.6449988  40.7507697  93.0288536 100.9143377
  42.1130012  91.6984997 101.8629988  41.2393883  91.3932789 102.4228576
  42.6291362  92.4709868 102.4192840  42.9370012  90.6364997 101.6499988
  44.2480012  90.2994997 102.5289988  44.7730012  88.8264997 101.9529988
  44.8790012  88.7174997 100.5419988  45.6987412  88.1195426 100.1656177
  44.9501322  89.6827545 100.0490278  43.4980012  88.1264997 100.0919988
  43.5433620  87.9867825  99.0193057  42.6727065  88.7848499 100.3218698
  43.1300012  86.7924997 100.6609988  42.7880012  86.8154997 102.0789988
  43.5776204  87.3224884 102.6163979  42.7136398  85.7937406 102.4204351
  41.8355595  87.3089334 102.2018607  41.8870012  86.2864997  99.9109988
  42.0696651  86.3683428  98.8505038  41.0348966  86.8706087 100.2095023
  41.7444651  85.2508426 100.1837529  44.2510012  85.7454997 100.4899988
  44.4772235  85.6350383  99.4399017  43.9170633  84.7998047 100.8897443
  45.1330979  86.0713868 101.0221058  45.2260012  91.3984997 102.3399988
  43.8600012  90.0934997 103.9359988  41.1570012  91.4744997  99.6709988
  40.6290012  91.9474997  98.5369988  40.3700012  93.1364997  98.3259988
  40.3550012  90.9044997  97.5209988  39.3240407  91.0718629  97.2266128
  40.9570248  91.1539008  96.6507841  40.5950012  89.4704997  97.9589988
  41.6411683  89.3542931  98.2199421  40.0351543  89.2697599  98.8669129
  40.2250012  88.4304997  96.8719988  39.9657421  87.4880775  97.3476869
  39.3258414  88.7714654  96.3647324  41.3110012  88.2084997  95.8349988
  41.5340131  89.1492156  95.3349735  42.2388007  87.8839946  96.2998499
  40.9100012  87.1954997  94.7859988  41.7743419  86.7987493  94.2574109
  40.4159044  86.3404418  95.2433012  39.9540012  87.8324997  93.7849988
  38.9101213  87.6693811  94.0484530  40.0815040  88.9070859  93.6884302
  40.2330012  87.2004997  92.4689988  41.2416966  87.4640167  92.1729038
  40.2274595  86.1207191  92.6117894  39.2330012  87.5514997  91.3799988
  38.2416530  87.7797207  91.7415205  39.4310012  87.6224997  90.0599988
  38.6315153  87.9101892  89.3924158  40.7330012  87.3294997  89.3669988
  41.5457576  87.5536008  90.0557851  40.8246091  86.2773589  89.1214611
  40.9420012  88.2014997  88.0479988  40.8601362  89.2601636  88.2913786
  41.9555660  88.0522896  87.6807365  39.9420012  87.8524997  86.9299988
  39.9055646  86.7802152  86.7376826  38.9263579  88.1520285  87.1734229
  40.3870012  88.5614997  85.6879988  40.4201470  89.6403345  85.8227641
  41.3850823  88.2636211  85.3714749  39.3840012  88.2034997  84.5929988
  39.1646302  87.1380897  84.6299845  38.4369034  88.7076206  84.7647340
  39.9070012  88.5304997  83.1819988  40.9622510  88.2657376  83.1469030
  39.4056837  87.8661087  82.4805007  39.7540012  89.9304997  82.6979988
  38.7332243  90.2340413  82.9166129  40.3865929  90.5274290  83.3513103
  40.0950012  90.2814997  81.2089988  40.0171561  91.3508979  81.0375445
  39.4232606  89.7909379  80.5126836  41.1079839  89.9792416  80.9587049
  55.7540012  92.4504997  82.5049988  54.7319120  92.6058303  82.1738868
  56.4071427  92.9986792  81.8321724  55.8524390  92.8934761  83.4922646
  56.1010012  90.9984997  82.5309988  55.9544999  90.5913364  81.5320200
  55.3873085  90.4916143  83.1748342  57.5750012  90.6904997  83.0059988
  58.3039756  91.2633303  82.4329453  57.8183593  89.6427796  82.8409823
  57.7450012  90.9954997  84.4729988  58.2247133  90.1529374  84.9661672
  56.7735590  91.1114226  84.9510867  58.5950012  92.2654997  84.7239988
  58.1744213  93.0765810  84.1350738  59.5876758  92.0765187  84.3187233
  58.7210012  92.7174997  86.1599988  59.3413392  91.9919068  86.6829832
  57.7345280  92.6582694  86.6149048  59.2900012  94.1134997  86.3749988
  58.5293399  94.8424940  86.1016278  60.1159771  94.2606485  85.6804911
  59.7600012  94.3894997  87.7649988  60.4541190  95.2289275  87.7684984
  60.3129771  93.5362898  88.1535017  58.5160012  94.7184997  88.7579988
  57.9103407  93.8260245  88.9001411  57.8620669  95.4592476  88.2994799
  58.9900012  95.2384997  90.1309988  59.3451258  96.2629750  90.0436164
  59.8353290  94.6520016  90.4899832  57.8590012  95.1634997  91.1509988
  57.2443653  94.3012670  90.9013618  57.2215159  96.0365118  91.0221949
  58.2700012  95.0524997  92.6149988  59.0086537  95.8063892  92.8762686
  58.7361521  94.0889766  92.8124743  56.9990012  95.1954997  93.5369988
  56.1836128  94.6479293  93.0673600  56.6906379  96.2368871  93.5634253
  57.1470012  94.6844997  94.9649988  57.3421813  93.6174784  94.9917448
  56.2304376  94.8506779  95.5248095  58.3080012  95.4354997  95.6809988
  58.1508822  96.5057549  95.6373150  59.2553419  95.2035559  95.2089642
  57.9510012  95.7514997  97.1939988  57.6180012  96.8094997  97.6649988
  58.0020012  94.5664997  97.8769988  57.9080012  94.5854997  99.3169988
  58.2205851  95.5662173  99.6424927  58.5735656  93.8452559  99.7368263
  56.4570012  94.3224997  99.7399988  55.7943282  94.9114909  99.1277506
  56.2380012  94.6624997 101.2239988  55.2118313  94.5045004 101.5270047
  56.4990351  95.6970029 101.4090643  57.0730012  93.8304997 101.9129988
  56.6200012  92.5544997 102.7279988  57.4320012  91.4834997 101.9279988
  58.8750012  91.4984997 101.8329988  59.3613302  91.0484878 102.6886636
  59.2386689  92.5203010 101.7741364  59.3310012  90.8324997 100.5259988
  60.4077981  90.7330803 100.4723964  59.0036765  91.4944754  99.7373140
  58.7720012  89.4634997 100.1799988  58.8990012  88.6174997 101.4549988
  59.9154589  88.6890545 101.8169760  58.6756238  87.5926138 101.1984613
  58.1857109  88.9724689 102.1836488  57.3430012  89.5124997  99.6949988
  57.2693470  90.2606112  98.9206486  56.6982510  89.7406522 100.5248263
  57.1046626  88.5383325  99.2931404  59.7180012  88.8874997  99.1439988
  59.7594298  89.5505199  98.2926646  59.3553802  87.9196953  98.8317315
  60.7034928  88.7824210  99.5743472  57.1990012  92.6004997 104.1399988
  55.1600012  92.2634997 102.6389988  56.1760012  92.9524997  99.5219988
  54.8210012  92.7404997  99.3999988  53.9480012  93.5094997  99.5139988
  54.5960012  91.2364997  99.0579988  55.0861404  90.6368773  99.8181103
  53.5389024  90.9905858  99.1210515  55.1430012  90.9504997  97.6669988
  54.9365415  91.7932339  97.0164340  56.2236611  90.8554085  97.7011272
  54.5230012  89.6744997  97.0539988  54.9527777  88.8037857  97.5426739
  53.4636071  89.6671637  97.2983251  54.6730012  89.5534997  95.5509988
  54.2052286  88.6097414  95.2767449  54.0692261  90.3353027  95.0966401
  56.0830012  89.5924997  94.9339988  56.0236298  89.6855658  93.8515410
  56.6118933  90.4763295  95.2854227  56.9040012  88.3594997  95.2909988
  57.2270456  88.4539589  96.3265763  56.2690751  87.4790153  95.2470187
  58.1440012  88.1234997  94.3859988  58.7090613  87.3727377  94.9260390
  57.7254458  87.6236200  93.5134865  59.0760012  89.2914997  93.8969988
  59.8270543  89.6370329  94.5913185  59.0330012  89.8934997  92.6849988
  59.6820821  90.7295429  92.4674310  58.1390012  89.5034997  91.5499988
  58.7237175  88.9477299  90.8189394  57.3433612  88.8400180  91.8700458
  57.5410012  90.7084997  90.8599988  57.1180667  91.4181805  91.5700584
  58.2936103  91.2560153  90.2958489  56.4460012  90.2284997  89.9039988
  56.7784098  89.2695569  89.5064561  55.5663956  90.0190097  90.5064205
  56.0580012  91.1574997  88.7329988  56.9643905  91.3872931  88.1773024
  55.4166092  90.6006553  88.0520981  55.3570012  92.4474997  89.1409988
  54.4289223  92.2275677  89.6652979  55.9613664  93.0234998  89.8364062
  55.0070012  93.3174997  87.8869988  54.7412329  94.3325648  88.1766417
  55.8662915  93.4077784  87.2249536  53.8800012  92.7364997  87.1179988
  54.2191797  91.7606054  86.7796154  53.1182788  92.5408347  87.8695354
  53.2240012  93.4994997  85.9269988  52.3635537  92.9561308  85.5482516
  53.9142927  93.6318511  85.1007290  52.8841953  94.4845821  86.2340583
  61.5990012  51.7624997  85.0699988  61.0303511  50.9720094  84.5902162
  60.9993906  52.6676473  85.0389372  61.7285666  51.4895876  86.1137151
  63.0190012  51.9804997  84.3489988  62.8031935  52.1959460  83.3039089
  63.5153618  51.0139702  84.3651527  63.9360012  53.0424997  84.8939988
  63.4785831  54.0309731  84.8537756  64.8485486  53.1087830  84.3049022
  64.3090012  52.7254997  86.3179988  65.3906565  52.7814532  86.4187007
  64.0377274  51.6962041  86.5474922  63.6590012  53.6794997  87.3719988
  62.5833850  53.7030420  87.2168578  64.0168273  54.6906564  87.1852166
  63.9310012  53.3194997  88.7729988  63.5277855  52.3268227  88.9649015
  63.3855924  54.0002310  89.4231611  65.4030012  53.3434997  89.1449988
  65.8094652  54.3217748  88.8949291  65.9319160  52.6254191  88.5198273
  65.6880012  53.0404997  90.6089988  65.7240505  51.9581753  90.7261542
  64.8362694  53.3813694  91.1946990  66.9960012  53.6654997  91.1909988
  67.1623299  53.2449253  92.1804395  66.8272821  54.7314673  91.3387281
  68.2510012  53.4664997  90.3379988  68.2816968  54.1976172  89.5331237
  68.2387987  52.4871150  89.8604155  69.5330012  53.5904997  91.2219988
  69.3291564  54.3419694  91.9817892  70.3293494  53.9969759  90.6009234
  70.0390012  52.3094997  91.9269988  70.9734195  51.9759102  91.4822524
  69.3264626  51.4999188  91.7802420  70.2260012  52.5394997  93.4679988
  71.0054449  53.2872796  93.6041775  70.5958687  51.6273182  93.9277780
  69.0130012  52.9994997  94.2059988  68.1627966  52.3815400  93.9365121
  68.7783205  54.0124496  93.8898508  69.1780012  52.9904997  95.7119988
  70.0420000  53.5748058  96.0020562  69.3073272  51.9765329  96.0714638
  68.0380012  53.9064997  96.3159988  68.1440012  54.9554997  96.9329988
  66.8950012  53.3324997  95.9829988  65.5950012  53.9354997  96.3269988
  64.9820153  53.7772642  95.4525436  65.7295824  54.9969611  96.4765968
  64.9390012  53.2784997  97.5689988  63.9706656  53.7172155  97.7443520
  65.8680012  53.4714997  98.8639988  65.2881575  53.2607498  99.7523494
  66.1762866  54.5092469  98.8890141  66.9760012  52.6394997  98.7989988
  67.8000012  52.3974997 100.1459988  66.6920012  51.7754997 101.2009988
  65.7250012  50.7964997 100.8149988  66.0454350  50.1392978 100.0171286
  64.8025519  51.2614698 100.4793098  65.3350012  49.9854997 102.0839988
  64.7890914  49.1980067 101.5799289  64.6772158  50.4635697 102.7954371
  66.3640012  49.3114997 102.8779988  67.3740012  50.2564997 103.5129988
  67.7613807  50.9135554 102.7464814  68.1768891  49.6607687 103.9211355
  66.8897956  50.8049182 104.3070384  65.6440012  48.6254997 104.0409988
  64.8193658  48.0535510 103.6440538  65.3054850  49.3740410 104.7348739
  66.3556129  47.9675529 104.5185046  66.9890012  48.1124997 102.1409988
  66.2124679  47.4053856 101.8898659  67.7148532  47.6393617 102.7851488
  67.4757533  48.4568829 101.2399397  68.8760012  51.3874997  99.9409988
  68.1920012  53.7264997 100.6209988  64.7440012  51.8744997  97.2739988
  63.8550012  51.2374997  98.0839988  63.1750012  51.7104997  98.9379988
  63.8710012  49.6744997  97.6549988  63.8633385  49.1307634  98.5940649
  62.9116539  49.4711425  97.1857381  65.0560012  49.2314997  96.7309988
  64.8184152  48.2987773  96.2313560  65.2321351  49.9573897  95.9435386
  66.3280012  49.0454997  97.5599988  66.4311887  49.8705594  98.2602007
  66.2191349  48.1476498  98.1633881  67.5900012  48.9144997  96.7179988
  67.5297248  49.4971748  95.8006316  68.4933564  49.2416613  97.2270337
  67.7440012  47.4154997  96.3359988  67.7614982  46.8441101  97.2618005
  66.8288905  47.1297083  95.8209485  68.9460012  47.0114997  95.4639988
  69.8118301  47.6018027  95.7599438  69.2066340  45.9725804  95.6457547
  68.6970012  47.1964997  93.9799988  68.7963166  48.2685041  93.8554077
  69.5854051  46.7521786  93.5331618  67.5050012  46.6854997  93.2699988
  66.9233470  45.9659135  93.8262615  67.0740012  47.0054997  92.0759988
  66.1568950  46.5571797  91.7216889  67.7170012  47.9644997  91.0879988
  66.9260681  48.5608086  90.6362670  68.3728189  48.6638544  91.5944442
  68.4810012  47.2714997  89.9779988  69.0635020  46.4519278  90.3971643
  67.7675381  46.8171902  89.2931394  69.4470012  48.2484997  89.1589988
  68.9154873  49.1531272  88.8636192  70.2839409  48.5740585  89.7705928
  70.0050012  47.5014997  87.8349988  70.1679306  46.4518537  88.0691833
  69.2407097  47.5252741  87.0601579  71.2630012  48.1064997  87.3039988
  71.9147746  48.3507794  88.1407238  71.8000215  47.3677651  86.7153517
  71.0540012  49.3854997  86.4789988  70.3409545  50.0150795  87.0082215
  71.9936306  49.9349190  86.4706966  70.5770012  49.2184997  85.0349988
  71.3430908  48.6401841  84.5245355  69.7117578  48.5633653  85.1089304
  70.2030012  50.4314997  84.1829988  69.8056169  50.1196153  83.2218105
  71.0581483  51.0702298  83.9893801  69.4449596  51.0349674  84.6742632
  91.6240012  83.4114997  83.6019988  90.7897443  83.4265157  82.9075788
  92.5017057  83.0743633  83.0581571  91.8072365  84.4340355  83.9205224
  91.3270012  82.4854997  84.8269988  91.1092090  81.4919636  84.4388550
  90.4074894  82.8437244  85.2819572  92.3890012  82.3864997  85.8419988
  92.5476455  83.3620893  86.3013306  93.3246035  82.1300677  85.3489856
  92.1100012  81.3224997  86.9669988  92.2114123  80.3170502  86.5644603
  91.0868657  81.3994385  87.3316635  93.1030012  81.4834997  88.1689988
  92.7329401  82.2853835  88.8027260  94.0489545  81.8313205  87.7572247
  93.3470012  80.2764997  89.0099988  94.1267306  79.6918397  88.5252187
  92.4461831  79.6672984  88.9787315  93.7320012  80.5244997  90.4529988
  93.7756113  79.5662394  90.9673969  92.9328783  81.0899677  90.9303651
  95.0240012  81.2434997  90.6419988  94.9445762  82.2013666  90.1295209
  95.7938272  80.6809098  90.1170754  95.4820012  81.4864997  92.1289988
  95.6166618  80.5258332  92.6214696  94.6844951  81.9953029  92.6690731
  96.7710012  82.3014997  92.2469988  96.6114993  83.3101187  91.8721043
  97.5533331  81.8653526  91.6263850  97.2520012  82.3524997  93.7019988
  98.1329294  82.9890708  93.7497856  97.5802240  81.3592065  94.0032736
  96.2070012  82.8824997  94.7299988  96.5508141  82.7327050  95.7505737
  95.2711403  82.3339517  94.6409504  95.9360012  84.3314997  94.4859988
  95.6929068  84.4874589  93.4363160  96.8154753  84.9365573  94.6877522
  94.7320012  84.8704997  95.3489988  94.8556071  84.6676521  96.4077336
  93.7948936  84.4098244  95.0478348  94.6220012  86.3864997  95.1349988
  94.5312638  86.6147757  94.0806280  95.5001299  86.8874120  95.5249292
  93.2200012  86.7394997  95.6129988  92.3580012  87.3244997  94.9209988
  93.0390012  86.3934997  96.8889988  91.7460012  86.5644997  97.5109988
  91.0205842  86.5719749  96.7115137  91.7396361  87.5264833  98.0026683
  91.4280012  85.4264997  98.5139988  90.4415434  85.5514943  98.9289342
  92.4480012  85.3344997  99.6299988  92.5572060  86.3137068 100.0761251
  93.3878401  85.0561592  99.1697659  92.0740012  84.3734997 100.6189988
  92.4160012  82.8614997 100.6389988  93.0980012  82.8204997 102.1159988
  94.1940012  83.6554997 102.4389988  94.3359553  83.6174994 103.5111900
  93.8842017  84.6699481 102.2050849  95.5710012  83.4534997 101.6739988
  96.2466000  84.2647843 101.9140665  95.4052106  83.4440179 100.6063843
  96.3440012  82.1534997 101.9949988  96.9800012  82.1384997 103.4199988
  97.5528541  83.0461123 103.5519563  97.6351886  81.2824615 103.4834660
  96.1933477  82.0480523 104.1539692  95.4720012  80.9454997 101.9869988
  94.8992862  80.9422763 101.0722851  94.8325518  80.9683815 102.8512620
  96.1182020  80.0803757 102.0228042  97.4650012  82.0234997 101.0029988
  97.0555725  82.0069034 100.0039118  97.9996517  81.1044300 101.1903747
  98.1389210  82.8614383 101.1084783  91.1230012  82.1114997 100.7119988
  93.3920012  82.4804997  99.5779988  91.4470012  84.2474997  97.7579988
  90.2480012  83.8074997  97.4409988  89.2230012  84.4224997  97.6349988
  90.2330012  82.4934997  96.7049988  90.8536650  81.8217173  97.2889833
  89.2238380  82.0936112  96.7648806  90.7170012  82.5914997  95.2069988
  91.7732984  82.8347840  95.2403145  90.6520474  81.5935286  94.7852550
  89.9780012  83.6224997  94.2629988  88.9016655  83.4736337  94.2945347
  90.1544652  84.6351737  94.6171410  90.4980012  83.5114997  92.7709988
  90.4622045  82.4672737  92.4660121  89.8333355  84.0476413  92.0979655
  91.9220012  84.0224997  92.5679988  92.0412861  84.9550212  93.1157904
  92.6033893  83.3106259  93.0298721  92.3400012  84.2284997  91.1309988
  92.2298090  83.2811733  90.6055167  91.6565929  84.9251858  90.6536105
  93.7800012  84.7474997  90.9489988  94.3908549  84.1824902  91.6434065
  94.0814868  84.4343569  89.9503026  94.0340012  86.2534997  91.0879988
  93.2565730  86.9054076  91.4570184  95.1920012  86.8104997  90.7839988
  95.3123260  87.8735361  90.9359380  96.4030012  86.1334997  90.2409988
  97.2496644  86.5160722  90.8084674  96.3481343  85.0721690  90.4560517
  96.6970012  86.3384997  88.7349988  95.8526932  85.9470122  88.1687950
  96.7164404  87.4105016  88.5482019  97.9550012  85.7324997  88.2309988
  98.7452295  86.4495165  88.4535589  98.1497624  84.8631758  88.8529699
  98.0380012  85.3324997  86.7549988  97.5720323  86.0951065  86.1349593
  99.0759667  85.2706982  86.4326743  97.3260012  83.9214997  86.5119988
  98.0005379  83.1093337  86.7765298  96.4572564  83.8069083  87.1544755
  96.9200012  83.7384997  85.0399988  97.6793033  84.1578279  84.3823460
  96.8602225  82.6795528  84.7952702  95.5350012  84.4094997  84.6979988
  94.7538472  84.0448584  85.3603810  95.6093267  85.4779719  84.8881455
  95.1030012  84.1944997  83.2219988  94.1919747  84.7433363  83.0031880
  94.9131631  83.1491113  83.0032164  95.8707703  84.5410083  82.5359934
  50.7980012  90.2014997  83.7659988  49.8968073  89.6100911  83.8945077
  51.5898228  89.5325181  83.4415422  50.6164340  90.9101095  82.9625577
  51.1820012  90.9294997  85.0719988  51.2775571  90.1425925  85.8182221
  50.2967897  91.4994074  85.3411081  52.4040012  91.8134997  85.1239988
  52.3495998  92.5676254  84.3389740  53.2868585  91.2156268  84.9065548
  52.6100012  92.5164997  86.4979988  51.7874711  93.2193523  86.6106594
  53.5130958  93.1196225  86.4181932  52.6850012  91.6924997  87.6949988
  53.5376618  91.0206163  87.6391816  51.8010974  91.0598838  87.7572590
  52.7980012  92.5404997  88.9859988  52.8302170  91.8356467  89.8148302
  51.8587774  93.0809510  89.0826838  53.9590012  93.5224997  89.1139988
  53.9193672  94.2470323  88.3026717  54.9036891  92.9920936  89.0023555
  53.9510012  94.2534997  90.4359988  54.9385581  94.2299465  90.8949404
  53.2768676  93.7698997  91.1405262  53.5220012  95.6984997  90.2439988
  52.5092049  95.6805763  89.8471820  54.1489147  96.1162542  89.4572094
  53.5710012  96.6224997  91.4779988  53.7980105  97.6292269  91.1341006
  54.4111913  96.3158795  92.1004886  52.2630012  96.6334997  92.3459988
  52.0140735  95.6644221  92.7731577  51.3714692  96.9696439  91.8194004
  52.5730012  97.6184997  93.5119988  52.9752063  98.5203190  93.0568373
  53.3893523  97.1736137  94.0779646  51.4270012  97.9814997  94.4959988
  50.7897836  98.6667547  93.9395536  51.8858316  98.5674921  95.2874288
  50.5170012  96.8904997  95.1339988  51.0873005  96.2329739  95.7818904
  50.0836845  96.2672717  94.3562356  49.3460012  97.5464997  95.9619988
  48.7827527  98.2333130  95.3430645  49.7426423  98.0893869  96.8117153
  48.2910012  96.5314997  96.4069988  47.6480012  95.7824997  95.7199988
  48.0500012  96.6464997  97.7289988  47.2180012  95.6344997  98.3989988
  46.5289120  95.2142868  97.6820334  46.6575681  96.1151090  99.1877455
  48.1570012  94.5084997  98.9789988  47.5674344  93.7821056  99.5134673
  49.2640012  95.1574997  99.9709988  48.7830925  95.4509241 100.8942701
  49.6512665  96.0440471  99.4845379  50.3400012  94.2124997 100.2349988
  51.6490012  94.9114997 100.5589988  52.6140012  93.8534997 101.1229988
  52.5310012  92.4764997 100.6729988  53.3426221  92.2107113 100.0083057
  51.6125608  92.3275791 100.1125641  52.4410012  91.4624997 101.9009988
  53.0660565  91.8990514 102.6697493  52.8057025  90.4699886 101.6789813
  51.0210012  91.2644997 102.5629988  50.0130012  90.8774997 101.4479988
  50.0951009  91.5958227 100.6438808  49.0194313  90.9152246 101.8693013
  50.2275032  89.8731728 101.1147821  51.1150012  90.0054997 103.5179988
  51.9794472  90.1212706 104.1536434  51.1836474  89.1149655 102.9191611
  50.2152806  89.9856189 104.1158320  50.6830012  92.5754997 103.3289988
  51.4499218  92.7649825 104.0652127  49.7287164  92.4627344 103.8212127
  50.6343917  93.3987690 102.6309302  52.1770012  95.4674997  99.2399988
  51.2720012  95.8444997 101.5919988  48.8790012  93.8434997  97.8749988
  48.0960012  92.9164997  97.1839988  46.9230012  92.8404997  97.3569988
  48.9080012  92.1664997  96.1799988  49.9438631  92.4155481  96.3861975
  48.8088197  91.1053761  96.3946771  48.5220012  92.4744997  94.7279988
  48.4031963  93.5489961  94.6419535  49.3615063  92.2134639  94.0915048
  47.2530012  91.7884997  94.2209988  47.2379201  90.7429512  94.5180761
  46.3829432  92.2477123  94.6838031  47.1160012  91.9034997  92.7089988
  47.9178238  91.3035645  92.2825434  46.1868215  91.4182345  92.4203035
  47.1650012  93.2884997  92.0759988  46.3217025  93.8534881  92.4678361
  48.0598000  93.7738171  92.4609441  47.1750012  93.3864997  90.5219988
  48.1501135  93.0046136  90.2236366  46.4426401  92.6648637  90.1709906
  46.9210012  94.7154997  89.8259988  46.9521611  94.5284225  88.7589415
  45.8953883  94.9996774  90.0577472  47.8070012  95.8204997  90.1939988
  48.3740629  95.7484178  91.1098586  47.9780012  96.9344997  89.4509988
  48.6828409  97.6735780  89.8039494  47.3080012  97.2964997  88.1629988
  46.5422166  96.5560260  87.9382905  46.7993979  98.2526253  88.2161727
  48.2970012  97.3164997  87.0189988  49.0224214  98.1194493  87.1444673
  48.8694845  96.3911382  86.9983130  47.5420012  97.4954997  85.6299988
  46.9106395  96.6328727  85.4170103  46.8820257  98.3584611  85.6452923
  48.6180012  97.6664997  84.4519988  48.0710487  97.8932031  83.5395331
  49.2220139  98.5453099  84.6709648  49.5560012  96.4434997  84.2199988
  50.3528342  96.4548312  84.9612940  49.0104914  95.5183639  84.3848256
  50.2270012  96.4294997  82.7829988  49.4667884  96.3239457  82.0111064
  50.7225616  97.3793631  82.5906103  51.2570012  95.2984997  82.6129988
  50.7696687  94.3384964  82.7640479  51.5796210  95.3063971  81.5741691
  52.5170012  95.3914997  83.5299988  53.2297472  94.6094544  83.2861396
  52.2636130  95.2846453  84.5793403  53.0194191  96.3468629  83.4075310
  41.6170012 101.4104997  82.5859988  41.9254574 101.7922056  81.6177094
  42.4820990 101.4342838  83.2423753  40.8778507 102.0960946  82.9912496
  41.0440012  99.9824997  82.4689988  41.8147720  99.3608013  82.0166644
  40.2280389 100.0264500  81.7526972  40.5650012  99.3234997  83.7789988
  40.3937059  98.2641882  83.5880903  39.5930795  99.7459503  84.0261319
  41.4840012  99.4754997  84.9949988  41.6841061 100.5234278  85.2072595
  42.4550821  99.0095907  84.8348844  40.7890012  98.8214997  86.2699988
  39.7145258  98.9640920  86.1878828  41.1062123  99.3865828  87.1448834
  41.0840012  97.2944997  86.5039988  42.1593606  97.1633396  86.6099048
  40.7973982  96.7462104  85.6091163  40.3890012  96.6934997  87.6989988
  39.3226325  96.8190477  87.5204897  40.6339099  97.3364513  88.5433109
  40.6840012  95.1644997  88.0939988  40.9632912  94.5957659  87.2080022
  39.7820602  94.6962991  88.4838382  41.8090012  95.0544997  89.1449988
  42.6232624  95.7327370  88.8990031  42.2361164  94.0524490  89.1383615
  41.2800012  95.3794997  90.5779988  41.2104257  94.4867701  91.1956494
  40.2809599  95.8140833  90.5560314  42.2880012  96.4194997  91.2359988
  43.2834620  96.1372484  90.8999438  42.2706279  96.2439868  92.3102526
  42.0910012  97.9314997  90.9619988  42.1750165  98.1051406  89.8919477
  42.9154798  98.4719874  91.4232774  40.7650012  98.5114997  91.4909988
  39.9491952  97.9640171  91.0219834  40.6667619  99.5428902  91.1641094
  40.5640012  98.4464997  93.0239988  41.5188837  98.2439772  93.4978437
  39.9194294  97.5986911  93.2404241  39.9630012  99.6674997  93.6339988
  39.0234706  99.9082172  93.1529806  40.6340831 100.5116241  93.5283012
  40.0970012  99.5364997  95.1819988  40.4590012 100.4284997  95.9509988
  39.6890012  98.3884997  95.5649988  39.6460012  98.1554997  97.0189988
  38.8119033  97.5000195  97.2192199  39.4314423  99.1338746  97.4238925
  40.9260012  97.5824997  97.6229988  41.2096981  96.6387845  97.1873250
  40.7020012  97.4074997  99.2169988  39.9611476  96.6366937  99.3806914
  40.3113469  98.3479624  99.5851075  41.9750012  97.0644997  99.9149988
  41.9960012  97.1454997 101.5069988  43.3390012  96.4864997 102.0379988
  44.4780012  96.3694997 101.2249988  44.3275309  95.6614608 100.4204935
  45.3063009  95.9913472 101.8172126  44.9740012  97.7784997 100.6629988
  44.0770117  98.3214208 100.3930068  45.5714811  97.6314196  99.7748759
  45.7670012  98.7094997 101.5459988  47.1270012  98.0374997 101.8449988
  46.9446469  97.0341000 102.2045400  47.6221712  98.6142541 102.6119805
  47.7248905  98.0411009 100.9459813  45.9730012 100.0764997 100.7889988
  45.0157151 100.4117569 100.4203254  46.6744275  99.9314108  99.9869263
  46.3640300 100.7859336 101.5039092  45.0770012  99.0294997 102.8149988
  44.1205907  99.4804143 102.5958254  45.6814358  99.7207538 103.3828689
  44.9322792  98.1232747 103.3853030  42.0220012  98.5564997 101.8569988
  40.8010012  96.3784997 101.9809988  41.9780012  98.5324997  97.4479988
  42.9800012  98.1414997  96.6269988  42.9700012  97.1074997  95.9509988
  44.0690012  99.1694997  96.6439988  43.5882123 100.1413098  96.5994995
  44.5741510  99.1313562  97.6059113  45.0700012  98.9644997  95.4799988
  45.9992270  99.4703788  95.7180885  45.3164900  97.9114532  95.3885140
  44.5460012  99.4864997  94.1589988  43.6776801  98.9128431  93.8450074
  44.2020079 100.5094035  94.2909134  45.5820012  99.4684997  93.0919988
  46.5663578  99.5053241  93.5550236  45.5424558  98.5350221  92.5358893
  45.4680012 100.6444997  92.0999988  44.4641277 100.7477514  91.6932086
  45.6992607 101.5933210  92.5802468  46.4620012 100.4204997  90.9519988
  46.5859478 101.3866892  90.4653613  47.4219729 100.1767223  91.3984793
  46.1360012  99.3824997  89.9179988  47.0236229  99.2395750  89.3127879
  45.9733313  98.4459957  90.4498303  44.9430012  99.6604997  89.0659988
  44.0591017  99.1422286  89.4061030  44.8150012 100.4374997  87.9929988
  43.8129572 100.4592350  87.5892099  45.8160012 101.3074997  87.2269988
  45.2770727 102.2197965  86.9770156  46.6066577 101.5992835  87.9092050
  46.4080012 100.7714997  85.9949988  47.0343388 101.5461645  85.5542035
  47.0795494  99.9631955  86.2780646  45.4090012 100.2544997  84.9389988
  44.8544041  99.4189335  85.3660331  44.6773744 101.0308346  84.7327699
  46.0860012  99.7924997  83.5809988  45.3166691  99.4109572  82.9133922
  46.5234501 100.6543425  83.0800494  47.1760012  98.7214997  83.7949988
  47.9282387  99.1278656  84.4684937  46.7405830  97.8721374  84.3142480
  47.8780012  98.2564997  82.5409988  47.1243545  97.9343203  81.8246886
  48.3750539  99.1139592  82.0909591  48.9450012  97.0874997  82.7129988
  49.4231291  96.8477440  81.7665180  49.7425122  97.4289018  83.3693019
  48.3350012  95.8334997  83.3009988  49.0988238  95.0850038  83.4891421
  47.6014349  95.3894253  82.6366047  47.8400417  96.0454351  84.2445238
  44.2960012  80.6044997  82.9889988  44.1908914  80.7630010  81.9202339
  44.3808313  79.5349912  83.1585440  45.2310394  81.0619696  83.3005060
  43.0480012  81.2264997  83.7989988  42.0987847  80.7770244  83.5123579
  42.9410912  82.2954987  83.6358260  43.3120012  80.9434997  85.2819988
  44.2821044  81.3644395  85.5458896  43.4082611  79.8663094  85.4026894
  42.2390012  81.4584997  86.2849988  41.3347513  80.8580937  86.2136199
  41.9413464  82.4803042  86.0547311  42.7490012  81.3944997  87.7009988
  43.6896797  81.9384262  87.7299944  42.9933331  80.3511252  87.8934478
  41.8530012  81.9074997  88.8029988  41.6982804  82.9751576  88.6581367
  42.3721183  81.8015712  89.7531953  40.4650012  81.1914997  88.8909988
  39.8094026  81.5909198  88.1193615  39.9981408  81.4369938  89.8438912
  40.5450012  79.7114997  88.7499988  41.0813289  79.4313337  87.8442888
  39.5539859  79.2694454  88.6653774  41.2530012  79.1224997  89.9519988
  40.7316922  79.4655688  90.8431113  42.2496336  79.5599458  89.9960640
  41.3680012  77.6134997  89.9879988  41.4553214  77.3153387  88.9455141
  40.3941069  77.2602920  90.3259386  42.4660012  76.9384997  90.8209988
  43.4393018  77.2730991  90.4684790  42.4418054  75.8614429  90.6645018
  42.3660012  77.2414997  92.3619988  41.3771830  76.9312058  92.6908991
  42.3992478  78.3232448  92.4777230  43.4510012  76.6134997  93.2699988
  44.4005864  77.0827364  93.0182909  43.5554448  75.5616587  93.0190084
  43.2510012  76.7434997  94.7279988  42.5549813  76.0113573  95.1240656
  42.8601636  77.7230501  94.9903325  44.6290012  76.5614997  95.4159988
  45.3497105  77.2609361  95.0117616  44.9976868  75.5543228  95.2619382
  44.3280012  76.3664997  96.9059988  43.2790012  76.0734997  97.3459988
  45.3740012  76.6464997  97.6829988  45.1030012  76.8354997  99.1079988
  45.3185026  75.8678931  99.5355016  44.0662113  77.0789039  99.2896940
  46.0430012  77.9144997  99.7159988  47.0452370  77.5679394  99.5254382
  45.8160012  78.0644997 101.2579988  46.7040289  78.5124698 101.6828876
  45.7149541  77.0587619 101.6464135  44.6740012  78.8324997 101.5769988
  44.6010012  79.4044997 103.0119988  43.4550012  80.4664997 102.8369988
  43.6040012  81.5274997 101.8779988  44.5660618  81.9918049 102.0513454
  42.8532888  82.2702661 102.1320185  43.3930012  81.2354997 100.3819988
  44.1082237  80.4687703 100.1121252  43.5853907  82.1154080  99.7852369
  42.0030012  80.7004997  99.9199988  40.9830012  81.7464997 100.1899988
  41.0789521  82.0648313 101.2189751  40.0080086  81.3092888 100.0339986
  41.1282288  82.5640723  99.4999256  42.1540012  80.5054997  98.3919988
  43.0533770  79.9387024  98.2060474  42.1914745  81.4695534  97.9170607
  41.2905631  79.9534707  98.0498941  41.6150012  79.3964997 100.6309988
  42.3696993  78.6484831 100.4386866  40.6629956  79.0558252 100.2524803
  41.5384371  79.5743065 101.6939934  44.1480012  78.4184997 104.0219988
  45.8690012  80.0614997 103.3409988  45.8800012  79.1434997  99.0699988
  46.9540012  79.9104997  98.8249988  48.0260012  79.8254997  99.3319988
  46.4310012  81.0644997  98.0179988  45.5973009  81.5195334  98.5428236
  47.1808550  81.8451992  97.9173286  46.0060012  80.5044997  96.6139988
  46.7159879  79.7564928  96.2786400  45.0455029  80.0022941  96.6711440
  45.9400012  81.6674997  95.5499988  46.6257579  82.4852060  95.7567548
  46.1757014  81.3204701  94.5469629  44.4470012  82.1944997  95.5639988
  43.7769995  81.3709581  95.3240340  44.1674721  82.5338227  96.5584460
  44.1940012  83.3284997  94.5649988  43.1138470  83.4488572  94.5132101
  44.5761551  84.2269478  95.0457589  44.7600012  83.2524997  93.1589988
  44.3358019  84.0958084  92.6162407  45.8277516  83.4398428  93.2306202
  44.5400012  81.9644997  92.3489988  44.7363492  81.0831649  92.9483955
  43.5029379  81.8899449  92.0245186  45.4020012  81.9994997  91.1609988
  45.4609101  82.9789160  90.7106352  46.1440012  80.9744997  90.5589988
  46.7232247  81.1923446  89.6731920  46.2400012  79.5474997  91.0179988
  47.2054764  79.4203023  91.5047218  45.4898659  79.3339043  91.7712286
  46.1330012  78.5114997  89.8799988  46.2064794  77.5341426  90.3554765
  45.1130226  78.5923534  89.5091006  47.1080012  78.5794997  88.6949988
  47.1648540  79.6307120  88.4124614  48.0869951  78.3168519  89.0862673
  46.8200012  77.7554997  87.4759988  47.7640228  77.5859666  86.9629425
  46.4709438  76.7772565  87.8020115  45.8070012  78.3534997  86.5139988
  44.9636056  78.7602716  87.0688056  46.2381479  79.1913644  85.9729626
  45.2680012  77.3214997  85.5329988  44.7904793  77.7748380  84.6661999
  46.0479468  76.6706772  85.1419118  44.2240012  76.4484997  86.2689988
  44.3130390  75.4211234  85.9247819  44.5050070  76.4339414  87.3197779
  42.7730012  76.8964997  86.1569988  42.1295893  76.2770212  86.7745233
  42.4060986  76.8317216  85.1382116  42.6555696  77.9254088  86.4851706
  75.6210012  98.7754997  79.9689988  75.6717302  99.1952873  78.9691818
  76.5065382  99.0979657  80.5090263  74.7570889  99.2085265  80.4657436
  75.5220012  97.2244997  79.9259988  76.3897240  96.8620517  79.3774630
  74.6539604  96.9813063  79.3192236  75.4400012  96.4924997  81.2929988
  74.7214320  95.6743512  81.2458778  75.0691953  97.1754523  82.0547400
  76.8340012  95.9324997  81.7609988  77.5339897  96.7553412  81.8882700
  77.2622654  95.2881915  80.9947333  76.7420012  95.1614997  83.0769988
  75.9845853  94.3848070  83.0088608  76.4201176  95.8333231  83.8709820
  78.1030012  94.5074997  83.4759988  78.8161577  95.2899160  83.7290789
  78.5165806  93.9857028  82.6156168  77.9870012  93.5444997  84.6339988
  78.9320778  93.0182549  84.7551044  77.2447117  92.7850614  84.3921522
  77.6080012  94.2194997  85.9629988  76.6468947  94.7186078  85.8463089
  78.3317641  95.0017294  86.1842857  77.5330012  93.2414997  87.1589988
  78.5098824  92.7795361  87.2848309  76.8472452  92.4356865  86.9001920
  77.0880012  93.8814997  88.5059988  77.9642908  94.3728532  88.9231166
  76.8456756  93.0629717  89.1832870  75.8750012  94.8904997  88.4569988
  75.0449612  94.4520120  87.9071777  76.1459501  95.7987912  87.9215353
  75.3770012  95.2634997  89.8779988  76.0998449  95.8786597  90.4083703
  75.2297825  94.3738115  90.4874671  73.9980012  96.0264997  89.7569988
  73.3285090  95.4752089  89.0988872  74.1262486  97.0074614  89.3080660
  73.3030012  96.1844997  91.1129988  73.2480401  95.2519647  91.6649977
  72.2830316  96.5405562  90.9947713  74.0860012  97.2124997  91.9369988
  74.1822708  98.1421222  91.3905785  75.0772255  96.8382858  92.1639508
  73.5070012  97.0984997  93.3089988  72.3370012  97.2894997  93.5569988
  74.5300012  97.1114997  94.1889988  74.1100012  97.2964997  95.5509988
  73.1426553  96.8177252  95.5291136  73.9845467  98.3337673  95.8258240
  75.0800012  96.5424997  96.5819988  75.0022298  95.5030074  96.3094159
  74.7840012  96.7094997  98.0379988  75.5459108  96.2215931  98.6306555
  73.8299739  96.2413175  98.2458989  74.7310012  98.1024997  98.3419988
  75.4070012  98.6574997  99.6219988  76.0970012  97.4064997 100.3699988
  75.3920012  96.4144997 101.0989988  75.8109959  95.4204444 101.0124743
  74.3603144  96.3438889 100.7666832  75.3110012  96.8634997 102.6019988
  74.7209459  96.0897393 103.0767394  74.8195676  97.8144185 102.7490482
  76.6070012  96.9374997 103.3909988  77.7520012  97.3794997 102.4759988
  77.7542876  96.7496665 101.5969999  78.6782650  97.2529382 103.0164778
  77.6181084  98.4210798 102.2251989  76.4640012  98.0334997 104.4699988
  75.5430170  97.8672354 105.0074542  76.4730924  98.9978356 103.9942430
  77.3063640  97.9391406 105.1399378  76.8460012  95.6224997 104.0579988
  76.0104528  95.3937127 104.7026673  77.7503421  95.6815905 104.6447915
  76.9515623  94.8517048 103.3082207  76.4390012  99.6324997  99.2379988
  74.2450012  99.0594997 100.5129988  76.4210012  96.9704997  96.2029988
  77.4410012  96.2664997  96.5979988  77.2950012  95.2064997  97.2139988
  78.7060012  96.9374997  96.1359988  78.6404760  98.0076154  96.3036642
  79.5726361  96.6006963  96.6993942  78.8560012  96.5814997  94.5759988
  79.1029550  95.5320127  94.4591571  77.9133030  96.7274217  94.0582538
  79.9450012  97.4274997  93.9189988  79.6457902  98.4708124  93.8587877
  80.8467033  97.4052926  94.5260450  80.2720012  96.9144997  92.5689988
  81.1592500  97.4401270  92.2208445  80.5485057  95.8653420  92.6398191
  79.1760012  97.0664997  91.5109988  79.5539378  96.6978273  90.5596074
  78.3521381  96.4101101  91.7844642  78.6440012  98.4504997  91.3299988
  78.5019859  98.9204083  92.3019651  79.3536680  99.0711929  90.7901554
  77.3730012  98.4504997  90.6019988  77.5920550  98.0466498  89.6204181
  76.7471576  97.7138771  91.1040477  76.6010012  99.7524997  90.4979988
  76.1223065 100.0219287  91.4274144  76.4430012 100.5894997  89.4659988
  75.8567254 101.4932952  89.5499292  77.0760012 100.3684997  88.0519988
  77.6011166 101.2809260  87.7745948  77.8241686  99.5841802  88.0797364
  76.0430012 100.0524997  86.9509988  75.1224722  99.6874439  87.4049435
  75.7815267 100.9738012  86.4339944  76.5680012  98.9934997  85.8949988
  77.2533774  99.4851846  85.2046276  77.1463385  98.2260568  86.4020110
  75.4420012  98.3404997  85.1039988  75.9327183  97.5720950  84.5107906
  74.8397710  97.8156502  85.8435505  74.5060012  99.2004997  84.1939988
  75.1328958  99.7919737  83.5293548  73.9380138  98.5338151  83.5509225
  73.5900012 100.1264997  84.8999988  73.2827483  99.7330664  85.8673089
  74.0643790 101.0853366  85.1010742  72.3320012 100.3734997  84.0509988
  71.6211583  99.5595883  84.1700188  71.8298634 101.2622815  84.4268146
  72.6420012 100.5764997  82.5289988  71.7395904 100.8343762  81.9829004
  73.0513943  99.6801386  82.0754847  73.3592975 101.3786758  82.3802022
  70.3340012  42.6644997  80.8039988  69.7745475  41.8248632  81.2045625
  70.8918613  42.3099379  79.9421008  69.6172421  43.4010865  80.4514248
  71.2830012  43.2754997  81.8769988  71.9240733  42.4618081  82.2118654
  70.6480420  43.5309073  82.7210413  72.1400012  44.4574997  81.4959988
  71.6349037  45.0481609  80.7318490  73.0595744  44.0971686  81.0391425
  72.5150012  45.3854997  82.7029988  71.6035313  45.7710408  83.1544749
  73.0665932  46.2546745  82.3480518  73.3740012  44.6364997  83.8379988
  74.4300687  44.6425958  83.5805942  73.0779134  43.5900134  83.8886305
  73.1910012  45.2954997  85.2519988  72.9788460  46.3445358  85.0536801
  74.1764433  45.2661743  85.7120214  72.1610012  44.7504997  86.2349988
  72.3120723  43.6823810  86.3801537  71.1580475  44.8630416  85.8255501
  72.2390012  45.4864997  87.6399988  72.1947637  46.5673571  87.5125572
  73.1857436  45.2773070  88.1345704  71.0810012  45.0344997  88.5489988
  70.9512995  43.9603166  88.4356444  70.1596987  45.4910948  88.1894161
  71.2710012  45.3794997  90.0759988  70.3054383  45.4742708  90.5679396
  71.7697853  46.3410206  90.1948303  72.1070012  44.2884997  90.7639988
  72.8457020  43.8767206  90.0796742  71.4904307  43.4500655  91.0833684
  72.8610012  44.8804997  92.0079988  73.1509201  45.9065278  91.7948501
  73.7868832  44.3266594  92.1517813  72.0450012  44.8204997  93.3109988
  71.9399124  43.7952918  93.6619364  71.0364229  45.2074417  93.1955873
  72.8040012  45.6634997  94.4579988  72.5981481  46.7200369  94.3212557
  73.8741098  45.5314098  94.3219410  72.4500012  45.2704997  95.8569988
  72.6161973  44.2112393  96.0066227  71.4085262  45.4910182  96.0589161
  71.1230012  45.9044997  96.2239988  70.8140012  47.0354997  95.7739988
  70.4070012  45.1414997  97.0169988  69.0510012  45.5464997  97.2409988
  68.5693296  45.6691947  96.2826666  69.0704253  46.4987150  97.7509994
  68.2890012  44.4564997  98.1029988  67.2630575  44.7744206  98.1882041
  68.9140012  44.2844997  99.5309988  68.4454650  43.4389632 100.0161202
  68.6757536  45.1809174 100.0897996  70.3260012  44.1014997  99.4639988
  71.0670012  42.7644997  99.7569988  71.8970012  43.1134997 101.0949988
  72.7890012  44.2434997 101.1869988  73.2197586  44.5001817 100.2279621
  73.6199116  43.9979775 101.8420589  72.0890012  45.5074997 101.8559988
  71.2752653  45.7828579 101.1970141  72.7835542  46.3331030 101.9138968
  71.4970012  45.3854997 103.1909988  70.4570012  44.3354997 103.1409988
  69.7923569  44.5469696 102.3146439  69.9055178  44.3683001 104.0688405
  70.9353041  43.3730931 103.0374762  72.4760012  44.9074997 104.2689988
  73.3680900  45.5123987 104.2143299  72.6956770  43.8673093 104.1073927
  71.9940039  45.0435034 105.2263277  70.9620012  46.7404997 103.4989988
  71.7670575  47.4589079 103.4559184  70.5336574  46.7358811 104.4900337
  70.2007178  47.0002204 102.7775919  70.0370012  41.7644997 100.0349988
  72.0670012  42.4474997  98.6869988  68.3630012  43.1744997  97.4899988
  67.7320012  42.9754997  96.3309988  67.1020012  43.7714997  95.6779988
  68.2170012  41.5974997  95.9119988  68.3943759  41.0330638  96.8216709
  67.4114965  41.0823381  95.3946228  69.4790012  41.6814997  95.0299988
  69.3870560  42.5591963  94.3997165  70.3365044  41.8606855  95.6707902
  69.7530012  40.3734997  94.0889988  70.7747419  40.4599574  93.7281320
  69.7403329  39.5194145  94.7616376  68.8260012  40.0944997  92.9449988
  69.0777025  39.1206464  92.5291115  67.8031392  40.0159572  93.3052576
  68.8740012  41.1164997  91.8279988  68.6085751  42.1007434  92.2084121
  69.8948386  41.1992075  91.4599889  67.9750012  40.7684997  90.6759988
  68.3281914  39.8282025  90.2555242  66.9761895  40.5773870  91.0583195
  67.8800012  41.8324997  89.5469988  67.0949309  41.5842430  88.8422909
  67.6210060  42.8044502  89.9648261  69.2630012  41.9494997  88.8309988
  70.1273263  42.2276884  89.4150424  69.4600012  41.7104997  87.5149988
  70.4861267  41.8430031  87.2033591  68.5530012  41.3034997  86.4329988
  69.0596228  40.5525817  85.8291132  67.6609210  40.8271650  86.8241244
  68.1470012  42.4734997  85.5089988  68.0680371  43.3788018  86.1097463
  68.9611588  42.6451618  84.8074729  66.8800012  42.2684997  84.7489988
  67.1198274  41.6836727  83.8609853  66.2219766  41.6489445  85.3520403
  66.1240012  43.5674997  84.3209988  65.0931485  43.3023461  84.0969869
  66.0856635  44.2464690  85.1710669  66.7330012  44.2724997  83.1559988
  67.8051883  44.3465744  83.3278057  66.6163242  43.6516952  82.2719098
  66.1930012  45.7054997  82.8759988  66.1579582  45.8997082  81.8055138
  65.1697171  45.8030598  83.2340570  67.0300012  46.7714997  83.5279988
  66.3992888  47.6241391  83.7670029  67.3653967  46.3744149  84.4835858
  68.2550012  47.2484997  82.7349988  68.8431873  47.9497680  83.3192323
  67.9727117  47.7486753  81.8147390  68.8994856  46.4142220  82.4727744
  48.4730012  70.0644997  81.9279988  48.5809311  69.6367971  80.9361063
  49.1990562  70.8666705  82.0236861  47.4830010  70.5078696  81.9907262
  48.6670012  69.0294997  82.9899988  49.6563222  68.5788310  82.9321649
  47.9544061  68.2161327  82.8829636  48.4960012  69.7114997  84.3779988
  47.5814403  70.2969762  84.4714044  49.3127965  70.3879236  84.6218572
  48.4780012  68.5404997  85.4449988  49.4718955  68.1044507  85.5176996
  47.8207729  67.7388763  85.1115966  48.0500012  68.9994997  86.8199988
  46.9742927  68.8670026  86.9028768  48.2309686  70.0716485  86.8757893
  48.7170012  68.3214997  87.9889988  48.5588868  67.2506136  87.8748938
  48.1755555  68.6150341  88.8857993  50.1870012  68.5894997  88.1859988
  50.6765392  68.4235873  87.2280867  50.5675579  67.8224215  88.8590498
  50.5780012  69.9704997  88.7209988  49.9655225  70.2095543  89.5894305
  50.3524764  70.7276895  87.9723425  52.0580012  70.0654997  89.1049988
  52.3183819  71.1199220  89.1677401  52.6428073  69.6568998  88.2818190
  52.4770012  69.3354997  90.4619988  53.5190924  69.5546271  90.6840980
  52.4130393  68.2553820  90.3328337  51.5960012  69.7524997  91.6319988
  50.5693387  69.7270969  91.2730280  51.8158210  70.7971706  91.8452352
  51.6740012  68.9334997  92.9489988  51.1027155  69.4811470  93.6946086
  52.7118906  68.9690886  93.2748652  51.2380012  67.5174997  92.9109988
  51.9807182  66.8344541  92.5022542  50.3137144  67.3173367  92.3763000
  51.0370012  67.1614997  94.4419988  50.7022878  68.0214261  95.0128214
  51.9765190  66.8381253  94.8822570  49.9960012  66.0094997  94.5919988
  50.2931491  65.1511520  94.0029458  49.0186787  66.3382345  94.2590675
  49.7390012  65.9704997  96.1049988  50.1680012  65.2074997  96.9049988
  49.0130012  67.0634997  96.4919988  48.6840012  67.2484997  97.8629988
  48.8524426  66.3280378  98.4013661  47.6316649  67.4905087  97.8978134
  49.5350012  68.3884997  98.4709988  50.5823456  68.3533510  98.2205428
  49.3660012  68.3924997  99.9719988  50.2132129  68.9131203 100.3974249
  49.4066604  67.3548258 100.2788616  48.1190012  69.0034997 100.4119988
  47.9570012  69.2994997 101.9159988  46.8780012  68.2154997 102.3549988
  45.5960012  68.3574997 101.8819988  45.4266664  69.3889809 101.6017111
  44.9179345  68.1463544 102.7038505  45.1890012  67.4394997 100.7979988
  45.6135358  67.7342626  99.8466134  44.1129025  67.5140721 100.7361312
  45.5050012  65.9184997 100.9509988  45.3870012  65.5334997 102.3879988
  45.9768300  66.2205900 102.9790510  45.7765149  64.5323378 102.4977896
  44.3451693  65.5501272 102.6708889  44.6370012  65.0794997 100.0869988
  44.6634346  65.4781461  99.0844538  43.6380141  65.0819959 100.4849794
  45.0414948  64.0777248 100.0983600  46.9580012  65.7284997 100.5709988
  47.1094460  66.0758512  99.5598146  47.2070723  64.6798982 100.6346273
  47.5844657  66.2903930 101.2486808  49.2870012  69.0534997 102.5979988
  47.4190012  70.5894997 102.2229988  48.9480012  69.6384997  97.9079988
  49.7350012  70.3254997  97.2229988  50.9040012  70.2114997  97.0459988
  48.8160012  71.3354997  96.5519988  48.1606674  71.7713202  97.2990939
  49.3838428  72.1635273  96.1350656  47.9930012  70.5634997  95.4069988
  48.7664498  70.2540372  94.7126853  47.6540314  69.6586886  95.9014171
  46.8100012  71.2064997  94.6039988  45.9438612  71.3557118  95.2436794
  47.1000760  72.1932339  94.2514692  46.4200012  70.3314997  93.3699988
  45.7351464  70.8824138  92.7279913  47.2867214  70.0948653  92.7576246
  45.7530012  69.0494997  93.7829988  46.3715435  68.4673734  94.4630247
  44.8221972  69.2446220  94.3120661  45.4310012  68.1834997  92.4919988
  44.7013240  67.4256180  92.7728682  44.9466334  68.8168177  91.7540190
  46.6640012  67.4914997  91.8249988  46.7360216  67.7594145  90.7773277
  47.5846365  67.8364791  92.2937906  46.5670012  66.0174997  91.9959988
  46.4057112  65.6741382  93.0067621  46.6470012  65.0554997  91.0109988
  46.6261952  63.9988940  91.2363021  46.7630012  65.3634997  89.5639988
  46.6631926  66.4419106  89.4531424  47.7538618  65.1116510  89.2028223
  45.7200012  64.6964997  88.6829988  46.0488149  64.6931330  87.6444540
  45.6120888  63.6523335  88.9702809  44.3400012  65.3994997  88.7869988
  43.6473829  64.8404918  88.1577952  43.9870955  65.2800559  89.8076333
  44.2890012  66.9074997  88.3929988  43.2908702  67.2798493  88.6126242
  44.9687332  67.4591518  89.0400918  44.6450012  67.1934997  86.9209988
  44.4856326  68.2473475  86.7005529  45.7002078  67.0086105  86.7393947
  43.7990012  66.3794997  85.9519988  44.1441670  65.3471640  85.9468462
  42.7703581  66.3519977  86.3069229  43.8020012  66.9004997  84.5129988
  43.4664101  67.9340505  84.4803454  44.8288749  66.9113120  84.1542141
  42.9150012  66.0194997  83.5089988  43.0193390  66.3758269  82.4886001
  41.8603694  66.0570819  83.7601570  43.2218866  64.9775876  83.5285344
  34.6520012  93.7414997  83.8719988  34.8615130  93.9858677  82.8352644
  34.1610528  92.7727968  83.8913475  35.6037238  93.6380949  84.3859476
  33.8010012  94.7944997  84.5189988  32.9002768  94.8697982  83.9121802
  34.3376959  95.7299510  84.3859443  33.4000012  94.6164997  86.0069988
  33.2248780  93.5639212  86.2291235  32.4562566  95.1248544  86.1943292
  34.4580012  95.1734997  86.9829988  33.9994636  95.3427889  87.9547675
  34.8100302  96.1459610  86.6422636  35.6600012  94.2314997  87.1639988
  36.4977310  94.7950243  87.5667664  35.9715724  93.8813523  86.1813059
  35.3980012  93.0484997  88.0509988  34.5649991  92.4568909  87.6756007
  35.1180282  93.3664714  89.0530397  36.6230012  92.1854997  88.1299988
  37.4991588  92.7821220  88.3773033  36.8316303  91.7236784  87.1659319
  36.4440012  91.1014997  89.1759988  35.6290454  90.4625710  88.8382588
  36.0929123  91.5870877  90.0846378  37.6590012  90.2364997  89.5049988
  38.4426476  90.8966607  89.8705485  38.0272411  89.8171919  88.5695003
  37.4380012  89.1074997  90.5109988  38.4380119  88.7137327  90.6790020
  36.9023550  88.3477705  89.9423831  36.7220012  89.3284997  91.8639988
  36.6755180  88.3708249  92.3780409  35.6906611  89.6165140  91.6677505
  37.3620012  90.3524997  92.8079988  37.7607356  91.1733974  92.2169347
  38.2162818  89.8849921  93.2941174  36.3580012  90.9244997  93.9569988
  36.2280621  90.1627102  94.7238395  35.3712971  91.1095677  93.5417411
  36.8800012  92.2504997  94.6659988  36.0264193  92.7475290  95.1151144
  37.2467547  92.9045801  93.8793841  38.0100012  92.0854997  95.7469988
  38.8602407  91.5612981  95.3294505  37.6397570  91.5256079  96.5975924
  38.6400012  93.4744997  96.0009988  39.7690012  93.8074997  95.6089988
  37.7860012  94.2594997  96.5929988  38.2640012  95.5064997  97.0709988
  38.3221707  96.0483424  96.1390735  39.2455578  95.4714446  97.5210095
  37.2310012  96.1874997  98.0309988  37.5520510  97.2122829  98.1184074
  37.2060012  95.5214997  99.4319988  38.2149600  95.6267678  99.8071277
  37.0269415  94.4776860  99.2062207  36.2700012  95.9874997 100.3889988
  35.0500012  95.0674997 101.0049988  35.7130012  93.8164997 101.7809988
  36.9450012  93.8244997 102.5109988  36.7769393  93.8002768 103.5798100
  37.4783632  94.7477773 102.3039231  37.8690012  92.7374997 102.0909988
  38.6032518  92.4817359 102.8444640  38.3840095  93.1008707 101.2134426
  37.2090012  91.3974997 101.6729988  36.0910012  91.0224997 102.6479988
  36.4806145  91.0718480 103.6555206  35.7812064  90.0119163 102.4269820
  35.2596672  91.6961654 102.5038624  36.7890012  91.5384997 100.3109988
  37.6176610  91.9203233  99.7345896  35.9435341  92.2018037 100.2712102
  36.5111549  90.5568627  99.9553482  38.4220012  90.3024997 101.8839988
  39.2667688  90.5856614 101.2738601  38.0728485  89.3248476 101.5874539
  38.7125039  90.2821091 102.9244926  34.3000012  95.8644997 102.0249988
  34.2520012  94.5644997  99.8629988  36.0010012  96.2354997  97.3619988
  35.8420012  97.0374997  96.2769988  36.4980012  98.0174997  95.9619988
  34.5130012  96.5444997  95.6849988  33.8547449  96.2151440  96.4823547
  33.9813473  97.3409594  95.1703115  34.8740012  95.3704997  94.6949988
  35.6007065  94.7494284  95.2070836  33.9824975  94.7611697  94.5855856
  35.4220012  95.7474997  93.3089988  35.1156350  95.0244503  92.5573383
  35.0099995  96.7035906  92.9956145  36.9590012  95.8604997  93.3379988
  37.2948288  96.1517861  94.3315168  37.4396559  94.9095810  93.1213732
  37.4470012  96.8854997  92.3549988  36.9304428  97.8385790  92.4483164
  38.5056119  97.1005366  92.4872237  37.2300012  96.3194997  90.9239988
  36.1546155  96.1959994  90.8057009  37.5290296  97.0920275  90.2210757
  37.9400012  95.0024997  90.5419988  37.4526180  94.2077149  91.0945880
  37.7202320  94.8242284  89.4902065  39.4070012  94.9624997  90.7319988
  39.7501856  95.0516248  91.7517218  40.3590012  94.8134997  89.7669988
  41.4141961  94.8091772  89.9997112  40.0560012  94.6394997  88.3209988
  40.9589370  94.3317966  87.7963593  39.3196728  93.8649189  88.1378970
  39.5860012  95.9174997  87.7269988  38.6328154  96.2124496  88.1642018
  40.2881284  96.7143703  87.9646404  39.4400012  95.8124997  86.2079988
  40.4101099  95.6077550  85.7551459  38.7994931  94.9750625  85.9454109
  38.8390012  97.1614997  85.5819988  37.7537336  97.0933748  85.5555730
  39.0752222  98.0058602  86.2272428  39.3840012  97.4364997  84.1649988
  38.9052151  98.3189615  83.7447429  40.4466643  97.6612001  84.1946931
  39.1180012  96.2414997  83.1999988  39.5581283  95.3478207  83.6387571
  38.0441063  96.0661099  83.1713229  39.6300012  96.3794997  81.7509988
  40.6303176  96.8046223  81.7745085  39.7468121  95.3692222  81.3649838
  38.7440012  97.1934997  80.7619988  39.1514806  97.1526209  79.7563356
  38.6775040  98.2390032  81.0434975  37.7333896  96.7966434  80.7257993
  59.7090012  99.5014997  79.7859988  59.1521507  99.2942290  78.8774915
  60.7375353  99.7078622  79.5043570  59.3001204 100.4075617  80.2247244
  59.6290012  98.3444997  80.7549988  59.9913184  97.5073022  80.1608358
  58.5566736  98.2030781  80.8595340  60.3000012  98.3134997  82.1289988
  59.7265365  98.9198414  82.8300102  61.2784069  98.7839387  82.0542971
  60.4870012  96.8554997  82.7289988  61.1542631  96.9338190  83.5844972
  61.0095226  96.2451743  81.9940291  59.2330012  96.1494997  83.1609988
  59.5105957  95.1540451  83.4980218  58.6225534  96.0112785  82.2701489
  58.4030012  96.8174997  84.2359988  57.4751904  96.2667998  84.3799219
  58.1169246  97.8163262  83.9133801  59.1910012  96.9174997  85.6489988
  58.6662669  97.5953083  86.3198187  60.1793314  97.3479213  85.4935297
  59.3360012  95.5474997  86.3249988  60.1761235  95.0254318  85.8688292
  58.4512332  94.9552085  86.0990323  59.5380012  95.5974997  87.8579988
  60.0230849  96.5395867  88.1043862  60.2418655  94.8127728  88.1325089
  58.2790012  95.4504997  88.6849988  58.6036976  95.0509738  89.6432526
  57.6974674  94.6625831  88.2070501  57.3410012  96.7334997  88.9139988
  56.4622990  96.4789575  89.5027533  56.9684603  97.1406749  87.9756227
  58.1060012  97.7934997  89.6429988  58.7009883  98.3954732  88.9604761
  58.8072022  97.3507093  90.3479270  57.1210012  98.6924997  90.4249988
  56.1606704  98.6331688  89.9155906  57.4501284  99.7238943  90.3345869
  56.8890012  98.3654997  91.9209988  56.9135013  97.2970493  92.1085050
  55.9123558  98.7186732  92.2411929  57.9580012  99.0504997  92.7739988
  57.9742732 100.1151278  92.5781846  58.9366459  98.6412756  92.5529577
  57.8060012  98.6234997  94.2319988  56.8310012  97.8954997  94.6239988
  58.8350012  99.0814997  94.9939988  58.4800012  98.8924997  96.4059988
  58.2873599  97.8390243  96.5421643  57.5989572  99.4516888  96.6857506
  59.7150012  99.3314997  97.2569988  60.5787269  98.7509568  96.9779972
  59.4380012  99.1684997  98.7749988  60.1860933  98.5072878  99.1908809
  58.4681819  98.6952469  98.8648170  59.4450012 100.4564997  99.4759988
  58.2600012 100.6794997 100.5609988  58.9640012 100.3394997 101.9209988
  60.3410012 100.5954997 102.0609988  60.6195999 100.8959847 103.0626377
  60.6456264 101.4028339 101.4012929  61.1670012  99.3544997 101.5979988
  62.2222323  99.5492212 101.7422892  60.9775418  99.2333417 100.5412098
  60.8960012  97.9344997 102.2549988  61.5800012  97.8224997 103.5909988
  62.6176547  98.1026543 103.4721604  61.5156449  96.7938012 103.9130823
  61.0698732  98.4569411 104.3002029  59.4020012  97.6194997 102.3269988
  58.9677135  97.7938949 101.3545305  58.9479013  98.2412624 103.0777147
  59.3041120  96.5774977 102.5952274  61.5100012  96.9394997 101.3419988
  61.0672089  97.0355364 100.3617978  61.3284156  95.9467267 101.7255068
  62.5745285  97.1142804 101.2814325  57.8760012 102.1254997 100.6719988
  57.2780012  99.6054997 100.3769988  59.9950012 100.7624997  96.8919988
  61.0850012 101.1764997  97.4869988  61.8960012 100.4744997  98.0739988
  61.2620012 102.6994997  97.2659988  60.4057928 103.2137929  97.6902188
  62.1288475 103.0664631  97.8098942  61.3980012 102.9554997  95.8039988
  61.9572810 103.8775265  95.6893968  62.0216127 102.1721795  95.3850105
  60.0840012 103.0604997  95.0069988  59.9464245 102.1269634  94.4673352
  59.2771332 103.1121887  95.7338807  59.9490012 104.2804997  94.0189988
  58.9362214 104.2395493  93.6223802  60.0079134 105.1922352  94.6084643
  60.9400012 104.3904997  92.8219988  60.5685432 105.1225879  92.1078792
  61.8881656 104.7790477  93.1885988  61.1970012 103.0804997  92.1099988
  61.9920134 103.2840898  91.3943120  61.6138617 102.3980062  92.8453544
  60.0030012 102.3594997  91.3719988  59.3777893 101.9133462  92.1366145
  59.4055612 103.1413391  90.9049456  60.3740012 101.3644997  90.3369988
  60.6506548 100.4237076  90.7885816  60.4100012 101.4344997  88.9729988
  60.6965972 100.5742420  88.3852663  60.0700012 102.6474997  88.1569988
  60.1016135 103.5215942  88.8052120  60.7998428 102.8232529  87.3746158
  58.6760012 102.5604997  87.5399988  57.9609227 102.4017945  88.3463364
  58.4458251 103.5371061  87.1184328  58.4850012 101.5214997  86.4969988
  58.4405501 100.5465428  86.9823752  57.5189084 101.6686122  86.0221023
  59.6150012 101.5024997  85.3949988  60.5769201 101.6586330  85.8781957
  59.6590446 100.5136074  84.9419677  59.3960012 102.5934997  84.2539988
  58.3254882 102.7090874  84.0951548  59.7478400 103.5555967  84.6162193
  60.0390012 102.2754997  82.9059988  61.0980678 102.0525802  83.0224795
  59.5905902 101.3876752  82.4638119  59.8910012 103.4434997  81.9129988
  60.3883102 103.1480794  80.9924959  58.8301321 103.4849926  81.6760428
  60.3600012 104.8454997  82.3189988  60.1099663 105.5726398  81.5523053
  61.4336956 104.8865621  82.4681132  59.8861247 105.1633134  83.2434318
  87.1590012  44.6444997  83.0429988  87.5366969  44.7041744  82.0270195
  87.0346032  45.6590853  83.4103286  86.1746206  44.1862178  83.0031907
  88.1340012  43.8164997  83.9699988  89.0930272  44.3236039  83.8787986
  88.2420859  42.8646709  83.4570138  87.8310012  43.5874997  85.4299988
  88.6184550  42.9671569  85.8578074  86.9163808  43.0016971  85.4969024
  87.6600012  44.8714997  86.2969988  86.8656311  45.4729545  85.8605605
  88.5661597  45.4710237  86.2252097  87.3100012  44.6064997  87.8699988
  87.0564473  45.5516229  88.3433122  88.2110135  44.2486935  88.3654951
  86.1450012  43.5864997  88.1159988  86.0977597  42.8602627  87.3065761
  85.1850569  44.0984090  88.1217345  86.3400012  42.8214997  89.4979988
  86.0518981  43.4637338  90.3282409  87.3911521  42.5804573  89.6503476
  85.5260012  41.5514997  89.5449988  85.9339402  40.8557538  88.8128960
  84.5137636  41.7796109  89.2163282  85.4690012  40.8574997  90.9359988
  86.4817589  40.6323338  91.2633564  84.9621803  39.8985225  90.8356371
  84.7830012  41.6684997  91.9779988  85.2637990  42.6406269  92.0622671
  84.8887156  41.1902889  92.9514298  83.2270012  41.8534997  91.6489988
  82.7075302  40.9143077  91.4712084  83.0217024  42.4809614  90.7833937
  82.6190012  42.5174997  92.9209988  83.0115438  42.0444854  93.8178749
  81.5422691  42.3595832  92.9405047  82.8910012  44.0114997  92.9559988
  82.5492005  44.3990505  91.9977563  83.9695307  44.1413723  92.9694590
  82.2780012  44.8604997  94.0479988  81.2341450  44.5810693  94.1461212
  82.2966277  45.8893421  93.6983870  82.9450012  44.8014997  95.4209988
  83.9969818  45.0446855  95.3420161  82.8483925  43.8091381  95.8452090
  82.4020012  43.6604997  96.2319988  81.3950012  43.0674997  96.0309988
  83.3240012  43.4174997  97.1949988  83.0240012  42.1794997  97.9089988
  83.1506538  41.3902757  97.1833634  82.0004675  42.1804171  98.2547877
  83.9910012  41.9894997  99.0689988  83.6838937  41.0826553  99.5631772
  83.9810012  43.1824997 100.0889988  84.5120350  42.8969066 100.9869078
  82.9495828  43.3884343 100.3465878  84.5970012  44.3554997  99.4839988
  84.1940012  45.7904997  99.9429988  85.3350012  46.2014997 100.8729988
  85.7050012  45.3064997 101.9479988  86.1937565  44.4369981 101.5281484
  84.7834765  44.9529244 102.4014012  86.5390012  45.9044997 103.1269988
  86.5586806  45.2821270 104.0127267  86.0225245  46.8243815 103.3603360
  87.9710012  46.2894997 102.8649988  88.5060012  46.9114997 104.1649988
  87.8168314  47.6789446 104.4896636  89.4680374  47.3532133 103.9517491
  88.6204006  46.1333568 104.9046767  88.8280012  45.1194997 102.5839988
  88.3494027  44.5181728 101.8263290  88.9730577  44.5640952 103.4933142
  89.7739614  45.4922650 102.2186193  88.1090012  47.4634997 101.8489988
  87.6425676  47.1832413 100.9162732  89.1560924  47.6677329 101.6830511
  87.6279485  48.3446383 102.2485210  84.3020012  46.6074997  98.6619988
  82.8930012  45.7284997 100.6799988  85.3080012  41.8254997  98.5779988
  85.7250012  40.7014997  98.0499988  85.1160012  39.6754997  97.8879988
  87.1130012  40.9034997  97.5619988  87.5932358  41.5316503  98.3052043
  87.6187789  39.9425205  97.6131349  87.2100012  41.5054997  96.1509988
  88.2316468  41.4117078  95.7995669  86.6022156  40.9234856  95.4655139
  86.8040012  42.9404997  96.0949988  86.9870334  43.2307690  95.0635450
  85.7237566  42.9046179  96.2126813  87.3830012  44.0384997  97.0789988
  87.2271445  43.7502201  98.1169340  88.4541335  44.1836115  96.9614402
  86.6640012  45.3924997  96.8349988  85.6019514  45.2951765  97.0505900
  87.0484041  46.1326100  97.5341783  86.8540012  45.9454997  95.3519988
  87.8972000  45.8109470  95.0703382  86.2702807  45.3394486  94.6647648
  86.4570012  47.4404997  95.1589988  86.7641473  48.0000232  96.0348838
  87.0295649  47.8404599  94.3232065  84.9710012  47.6394997  94.8719988
  84.3971859  47.4746818  95.7715126  84.2780012  47.9814997  93.7459988
  83.2036876  48.0887057  93.7016457  84.9950012  48.2564997  92.4039988
  84.9059467  49.3206911  92.1923697  86.0565439  48.0508786  92.4847944
  84.4080012  47.4714997  91.2009988  84.6285554  46.4127115  91.3314920
  83.3238904  47.5616271  91.2332458  84.9300012  47.9504997  89.7779988
  84.5943113  48.9672143  89.5737669  86.0158662  47.9784794  89.7531327
  84.4240012  47.0294997  88.6869988  84.8977794  46.0574454  88.8044283
  83.3563085  46.8659271  88.8225031  84.6790012  47.5714997  87.2639988
  84.3103580  48.5944161  87.2156854  85.7506465  47.6340172  87.0957943
  84.0240012  46.7874997  86.1469988  84.7218074  46.0049841  85.8543916
  83.1642090  46.2789027  86.5793418  83.5630012  47.5344997  84.8759988
  82.7730347  48.2414915  85.1168940  84.3950771  48.1332099  84.5119813
  83.0910012  46.6054997  83.7449988  82.8628744  47.1744984  82.8487467
  82.1961210  46.0565127  84.0180260  83.8582076  45.8799443  83.4898425
  47.2530012  54.7134997  80.3109988  46.7108978  54.2824673  79.4750777
  47.7209969  55.6305405  79.9648688  46.5263046  54.9824176  81.0727122
  48.2830012  53.7444997  80.8579988  48.9247474  53.4901463  80.0161739
  47.7279746  52.8427158  81.1020181  49.1450012  54.1604997  82.0339988
  48.5024573  54.5289308  82.8335767  49.7588175  55.0051926  81.7275767
  50.0780012  53.0514997  82.5959988  50.6306391  53.4340282  83.4512842
  50.8253478  52.7676376  81.8566739  49.2920012  51.7964997  83.0369988
  48.5343572  51.5435238  82.2997391  48.7592799  52.0052001  83.9632909
  50.2220012  50.5674997  83.2459988  50.8544246  50.4628205  82.3662829
  49.6046615  49.6725436  83.2850161  51.1020012  50.6284997  84.4969988
  52.0513826  51.0857613  84.2243145  51.3320783  49.6086597  84.8023197
  50.5180012  51.3614997  85.6429988  49.5376579  50.9155140  85.8057096
  50.3360068  52.3721726  85.2823018  51.2630012  51.4284997  86.9639988
  52.2610118  51.8311135  86.8045689  51.4009661  50.4237990  87.3616408
  50.5460012  52.2664997  87.9769988  50.9267622  51.9878517  88.9571392
  49.4959259  51.9756585  87.9634910  50.6500012  53.7714997  87.7869988
  49.8538083  54.1159499  87.1305142  51.5838704  54.0309455  87.2913133
  50.5520012  54.5234997  89.0849988  50.6615957  55.5932866  88.9244871
  51.3590655  54.2323970  89.7547573  49.2600012  54.2374997  89.7489988
  49.0145322  53.1830561  89.6343440  48.4479477  54.7910051  89.2858844
  49.2930012  54.5804997  91.3669988  48.2844553  54.6430468  91.7623063
  49.7507692  55.5546014  91.5175519  50.0740012  53.5544997  92.1569988
  51.0751411  53.4509777  91.7581969  49.5813099  52.5903882  92.1144158
  49.7280012  53.7324997  93.6459988  48.6870012  53.3984997  94.2119988
  50.8220012  54.2064997  94.3359988  50.6100012  54.5554997  95.6629988
  49.6532669  55.0556071  95.6592360  51.3754790  55.2597162  95.9550857
  50.5770012  53.3344997  96.6299988  49.6038035  52.8965436  96.4817594
  50.7960012  53.6434997  98.1509988  50.3306310  52.8573860  98.7300124
  50.2827363  54.5749178  98.3549705  52.1580012  53.7534997  98.4769988
  52.6760012  54.7134997  99.6569988  51.9550012  54.0584997 100.9059988
  52.3130012  52.6524997 101.1649988  53.0566927  52.3239583 100.4507352
  51.4292695  52.0455019 100.9907313  52.7460012  52.3294997 102.5969988
  53.0949460  51.3056323 102.6437121  51.8320772  52.4112869 103.1674643
  53.7680012  53.1434997 103.3369988  54.0180012  52.3774997 104.6019988
  53.0667201  52.1622066 105.0689541  54.6117691  52.9987528 105.2558979
  54.5633763  51.4765363 104.3642007  55.0870012  53.2354997 102.5609988
  54.8682965  53.5358912 101.5477627  55.5789673  52.2797384 102.5903178
  55.6958468  53.9844601 103.0464493  53.2390012  54.4744997 103.7499988
  52.9144835  55.0156662 102.8736945  54.0207969  55.0278590 104.2482345
  52.4064583  54.3380553 104.4250471  54.1110012  54.5044997  99.6389988
  52.0930012  56.0894997  99.4899988  51.5880012  52.4084997  96.2389988
  51.5670012  51.1944997  96.7149988  50.6730012  50.6394997  97.3149988
  52.9030012  50.6204997  96.4479988  52.8083104  49.6385326  95.9959729
  53.4749897  51.2185562  95.7429708  53.6400012  50.5554997  97.8909988
  53.6476493  51.5430051  98.3391454  53.0796135  49.9217063  98.5709287
  55.0760012  50.0484997  97.7739988  55.5457737  49.9286254  98.7469314
  55.1011892  49.0691595  97.3024868  55.8860012  51.0234997  96.9169988
  56.8921610  50.6211849  96.8145724  55.4685563  51.0571852  95.9136010
  55.9870012  52.3944997  97.4349988  54.9993618  52.8479281  97.4885907
  56.3626719  52.3653063  98.4559788  56.9290012  53.3034997  96.5819988
  56.7674394  54.3291537  96.9100730  57.9571635  53.0593272  96.8341494
  56.7630012  53.2254997  95.0309988  57.3814571  53.9877077  94.5715086
  57.1540450  52.2673393  94.6913526  55.3410012  53.3454997  94.5869988
  54.6023827  53.8959286  95.1500483  54.9300012  52.7644997  93.4279988
  53.8960630  52.8361000  93.1222943  55.8020012  51.9954997  92.4699988
  56.7881939  52.4564904  92.4815084  55.9394283  50.9761056  92.8129719
  55.2740012  51.9814997  90.9609988  56.0682077  51.5241210  90.3721476
  54.4457296  51.2755507  90.9531705  54.8340012  53.2734997  90.2999988
  53.8271570  53.5213218  90.6360879  55.4731997  54.0879671  90.6295014
  54.8510012  53.1984997  88.7679988  55.8538368  52.9266998  88.4461438
  54.1978412  52.3902537  88.4436447  54.4100012  54.5264997  88.0739988
  53.3822348  54.6925457  88.3913551  54.9955094  55.3140792  88.5403931
  54.4600012  54.6654997  86.5759988  53.8750916  53.8663114  86.1242665
  53.9712362  55.5953798  86.2909273  55.8400012  54.6474997  85.9739988
  56.5387433  55.1457787  86.6413760  56.1650474  53.6105139  85.9258488
  55.9460012  55.2644997  84.5679988  56.9463232  55.1366656  84.1654032
  55.7317427  56.3278860  84.5746147  55.2499462  54.7919615  83.8807170
  99.1140012  47.9674997  82.2559988  98.9529056  48.0534597  81.1859109
  99.2484414  46.9147767  82.4872780 100.0439713  48.4773957  82.4921631
  97.9370012  48.5664997  83.0489988  97.0287708  48.0479344  82.7466568
  97.8180006  49.5995250  82.7335442  98.0770012  48.4924997  84.5959988
  99.1267655  48.4830899  84.8889754  97.6532915  47.5601896  84.9640192
  97.3490012  49.6884997  85.3129988  96.3029850  49.4661179  85.5121131
  97.3555581  50.6030979  84.7220901  98.0760012  49.9474997  86.6799988
  99.0782331  50.3422715  86.5341931  98.1911044  49.0207454  87.2396797
  97.2770012  50.9314997  87.5039988  97.3426875  51.9029483  87.0173883
  97.7724249  51.0393615  88.4665465  95.7650012  50.5684997  87.7369988
  95.2131347  50.7168853  86.8106106  95.3367718  51.2609018  88.4604827
  95.5500012  49.1004997  88.2369988  96.0033653  48.4230079  87.5145606
  94.4828133  48.8867925  88.2258949  96.1150012  48.7984997  89.6429988
  95.7008770  49.5200233  90.3440307  97.1902826  48.9720982  89.6284953
  95.8390012  47.3804997  90.1519988  96.3300910  46.6470426  89.5162547
  94.7732787  47.1574234  90.1083907  96.3190012  47.2334997  91.5769988
  95.5417158  46.6466708  92.0617671  96.2482601  48.2350338  91.9977754
  97.6920012  46.6214997  91.9439988  98.4993897  47.2970377  91.6719859
  97.8582990  45.7061010  91.3791445  97.7600012  46.2934997  93.4379988
  98.5336450  45.5519079  93.6297508  96.8311822  45.8661323  93.8053221
  98.0990012  47.5704997  94.2729988  97.5823990  48.3884666  93.7816768
  99.1623124  47.7296533  94.1144703  97.8170012  47.6274997  95.7749988
  98.2962137  46.7997805  96.2822239  96.7506351  47.5788769  95.9609242
  98.5270012  48.8114997  96.3869988  98.7120012  49.8804997  95.8379988
  98.9050012  48.4774997  97.6249988  99.1410012  49.5024997  98.5859988
  99.3249898  50.3831577  97.9892982 100.0147468  49.2936247  99.1861086
  97.9260012  49.7044997  99.4539988  98.1741788  50.4629183 100.1779484
  97.5930012  48.3974997 100.1659988  98.2957438  48.2920660 100.9813744
  97.7856624  47.6184300  99.4390069  96.2900012  48.3104997 100.6339988
  94.9380012  47.7394997  99.9789988  94.0950012  47.6014997 101.3189988
  93.2650012  48.6734997 101.7849988  92.6958446  48.3789805 102.6570701
  92.5411404  48.9200589 101.0136161  94.0510012  49.9994997 102.0489988
  94.3231897  50.3805425 101.0727976  94.9524385  49.8366771 102.6219529
  93.2980012  51.1564997 102.7589988  92.7190012  50.7494997 104.0589988
  92.1404248  49.8478324 103.9120992  92.0727841  51.5448130 104.3995573
  93.5193403  50.6037008 104.7688698  94.3520012  52.2734997 103.1119988
  94.9287424  52.4926265 102.2265232  94.9786817  51.9242835 103.9130541
  93.8020123  53.1500858 103.4224921  92.2140012  51.7014997 101.8699988
  92.6526979  52.0490416 100.9465045  91.7249050  52.5237531 102.3703328
  91.4927024  50.9241828 101.6627753  94.3220012  48.8004997  99.1589988
  95.1460012  46.3844997  99.4559988  96.7700012  50.1994997  98.6589988
  96.7460012  51.4824997  98.4469988  97.6470012  52.2944997  98.6449988
  95.3730012  51.8274997  97.9239988  94.6408589  51.7461616  98.7208079
  95.3183087  52.8551869  97.5736067  95.0910012  50.8334997  96.7769988
  95.8921912  50.9001172  96.0491818  95.1172582  49.8183440  97.1601470
  93.6900012  51.1024997  96.0419988  92.8925494  50.9595686  96.7667714
  93.6660179  52.1544704  95.7684161  93.4110012  50.2484997  94.7629988
  92.4789168  50.6080308  94.3309546  94.1854953  50.4527094  94.0277034
  93.3020012  48.7654997  94.9519988  94.1245820  48.3810948  95.5515774
  92.3909924  48.5176593  95.4933112  93.2800012  48.0694997  93.6439988
  93.5649673  48.8106197  92.8988569  94.0731224  47.3271326  93.6569541
  91.9880012  47.3934997  93.2119988  91.7349958  46.5456925  93.8379311
  91.1419890  48.0774326  93.2653394  92.1790012  46.9684997  91.7639988
  92.8243489  46.1206982  91.5898925  91.6090012  47.5414997  90.6799988
  91.8069708  47.2163900  89.6687017  90.6710012  48.6474997  90.7739988
  89.7104865  48.2938963  91.1449398  90.9903566  49.4286885  91.4547609
  90.4570012  49.2414997  89.3859988  90.3659839  48.4186740  88.6779177
  89.4917880  49.7442746  89.3923228  91.5180012  50.2074997  88.9039988
  91.8320181  50.8111739  89.7555138  92.3896336  49.6344071  88.6001471
  91.0840012  51.1484997  87.7399988  90.8153097  50.5603537  86.8653364
  90.1929689  51.7106722  88.0140580  92.1930012  52.1124997  87.3919988
  92.6049622  52.5011636  88.3214171  92.9990472  51.5582681  86.9189849
  91.7860012  53.3294997  86.5009988  90.9379075  53.8419711  86.9515465
  92.6003939  54.0515090  86.4836469  91.4250012  52.9684997  85.0539988
  90.4314444  52.5289030  85.0150783  91.3623376  53.8925004  84.4833772
  92.4260012  52.0304997  84.3649988  92.1624077  51.8847095  83.3217669
  92.4534097  51.0522919  84.8330792  93.4315385  52.4403166  84.3979499
 103.6190012  71.1174997  84.4359988 103.4570960  70.8548372  83.3952182
 104.1221261  72.0798193  84.4604181 102.6448010  71.2439367  84.9002828
 104.4270012  70.0604997  85.1489988 105.3995962  69.9289950  84.6778635
 103.9299185  69.0955876  85.0973497 104.6350012  70.4884997  86.6679988
 103.7318349  70.9898964  87.0155919 105.4257908  71.2353029  86.7012815
 104.9850012  69.3814997  87.6209988 105.5898299  68.6458356  87.0954223
 104.0776338  68.8628742  87.9266427 105.7740012  69.8594997  88.9069988
 105.1697431  70.5409178  89.5003911 106.6624522  70.4159395  88.6130694
 106.1940012  68.6554997  89.7949988 107.1901864  68.7629402  90.2203086
 106.1915244  67.7070985  89.2619826 105.1310012  68.5994997  90.9629988
 104.1354477  68.6056105  90.5229920 105.2115826  69.5159144  91.5460259
 105.2680012  67.3504997  91.9299988 105.5183253  66.4547128  91.3631172
 104.3203620  67.1428966  92.4235218 106.3480012  67.5954997  92.9919988
 106.1504065  68.5857371  93.3968780 107.2898353  67.6715670  92.4500216
 106.5150012  66.5494997  94.2009988 107.5688624  66.3027721  94.3096316
 106.0090542  65.6199079  93.9415650 105.9460012  67.0834997  95.5609988
 104.8669604  66.9483099  95.5915877 106.1193579  68.1537956  95.6586825
 106.5640012  66.3524997  96.7789988 106.4886194  65.2780796  96.6301428
 105.9716465  66.5790898  97.6635568 108.0380012  66.7514997  97.0539988
 108.5921920  66.3763915  96.1952681 108.3560550  66.1559168  97.9051138
 108.4410012  68.1764997  97.2769988 107.7932534  68.6537097  98.0050361
 108.3387915  68.7357490  96.3507777 109.9150012  68.2814997  97.7579988
 110.5771586  67.7819999  97.0622341 110.0270245  67.8242724  98.7339409
 110.2700012  69.7654997  97.7279988 111.3330012  70.1644997  97.2479988
 109.3690012  70.6074997  98.2809988 109.5690012  72.0084997  98.0769988
 109.6722403  72.1782440  97.0158717 110.4950650  72.2698506  98.5682150
 108.4010012  72.8294997  98.6349988 108.6630912  73.8736478  98.5907565
 108.1100012  72.4104997 100.1349988 108.8972204  72.7837740 100.7758991
 108.1080916  71.3286597 100.1819425 106.7980012  72.9474997 100.5599988
 106.2820012  72.3894997 102.0029988 105.6820012  70.9914997 101.6499988
 105.1240012  70.8174997 100.4099988 105.7931655  71.0943141  99.6057713
 104.2419950  71.4428061 100.3058164 104.6120012  69.3554997 100.2339988
 105.4926781  68.7262703 100.2609703 104.1326286  69.2409072  99.2725168
 103.6530012  68.7664997 101.2499988 102.4940012  69.7704997 101.3619988
 102.9056463  70.7545891 101.5393409 101.8788933  69.4772308 102.1996954
 101.9107257  69.7351717 100.4541118 103.2200012  67.4454997 100.6769988
 104.0999533  66.8958146 100.3799390 102.5662802  67.6224918  99.8417187
 102.6950689  66.9119078 101.4561155 104.1580012  68.4674997 102.6639988
 104.9863363  67.7770558 102.6071647 103.3584562  68.0269155 103.2404218
 104.4786955  69.3859423 103.1341618 107.3830012  72.1814997 102.9569988
 105.1570012  73.2704997 102.4129988 107.2010012  72.5954997  97.9099988
 106.8790012  73.3874997  96.8899988 107.3930012  74.4374997  96.5169988
 105.6200012  72.7634997  96.2409988 104.8671522  72.6361359  97.0120694
 105.1907199  73.4515164  95.5169424 105.9900012  71.4534997  95.5919988
 106.3154953  70.7652877  96.3643192 105.1034489  71.0105052  95.1494901
 107.1170012  71.5814997  94.5109988 107.9393594  72.2058187  94.8510086
 107.5477540  70.6089963  94.2857118 106.5080012  72.1664997  93.2089988
 105.9439114  71.4085292  92.6686382 105.8154568  72.9828929  93.3989631
 107.6580012  72.6844997  92.2759988 107.2322853  73.0053767  91.3274710
 108.0930109  73.5733464  92.7288774 108.7980012  71.6514997  92.0089988
 109.5536738  71.6835338  92.7923465 108.4331391  70.6286864  91.9766469
 109.4630012  71.9884997  90.6359988 108.7785337  71.7598567  89.8274157
 109.6542052  73.0594413  90.5824158 110.7790012  71.2514997  90.4639988
 111.6012818  71.6870592  91.0114441 111.0390012  70.1484997  89.7459988
 112.0351854  69.7299373  89.7403006 110.0460012  69.3844997  88.9059988
 110.1403625  68.3077538  89.0361346 109.0020062  69.6208120  89.0789497
 110.4070012  69.7214997  87.4779988 110.4322058  70.8068466  87.3880449
 111.4273457  69.3799193  87.3146620 109.5150012  69.1484997  86.4059988
 109.5086492  68.0604822  86.4714560 108.4875538  69.4678132  86.5573089
 109.9680012  69.5574997  85.0389988 111.0548867  69.5166734  85.0264236
 109.6270773  68.8060046  84.3289909 109.4960012  70.9254997  84.5839988
 108.4425754  71.0945595  84.7991798 110.0303425  71.7467880  85.0536686
 109.6780012  70.9794997  83.0889988 110.7359062  70.8162240  82.8913603
 109.1573691  70.1170266  82.6767895 109.2280012  72.2274997  82.3269988
 109.4030709  73.1471208  82.8797759 109.7849753  72.3299031  81.3982327
 107.7600012  72.1094997  82.0009988 107.4342072  72.9412406  81.3836380
 107.1450501  72.1075953  82.8946276 107.5534294  71.1925109  81.4563881
  75.7600012  41.1514997  80.5079988  75.7833798  41.4847684  79.4751317
  76.1278359  41.9647701  81.1269324  74.7213266  40.9782787  80.7758822
  76.6200012  39.8504997  80.7079988  77.6247920  40.0945505  80.3673559
  76.2269040  39.1232289  80.0027571  76.7000012  39.2254997  82.1339988
  75.6957484  38.9249528  82.4324564  76.9957202  40.0139039  82.8233028
  77.6570012  38.0394997  82.3119988  78.6689371  38.4359738  82.3572079
  77.6139509  37.4246829  81.4143056  77.4230012  37.1654997  83.5319988
  78.1332750  36.3430292  83.5069703  76.4349944  36.7190872  83.4323815
  77.5240012  37.8604997  84.8739988  77.3214453  37.0671852  85.5912437
  76.6557317  38.5157569  84.8919718  78.7310012  38.6284997  85.3139988
  78.5857269  38.9903636  86.3302270  78.8508808  39.5132384  84.6902230
  79.9920012  37.8034997  85.2549988  80.2548461  37.7138957  84.2017492
  79.7246104  36.8022628  85.5877314  81.2310012  38.2934997  86.0519988
  81.4774919  39.3042573  85.7339541  82.0878301  37.6748102  85.7880963
  81.0380012  38.2714997  87.5969988  81.0716621  37.2421286  87.9470860
  80.0448479  38.6456384  87.8441745  82.1450012  39.1544997  88.3709988
  82.3864815  40.0540580  87.8088395  83.0814746  38.6124556  88.4907224
  81.6170012  39.5774997  89.7659988  80.6579901  40.0826424  89.6802806
  82.2966918  40.2918723  90.2268266  81.4870012  38.3224997  90.7129988
  82.4825216  37.9306571  90.9146183  80.9425239  37.5268167  90.2122922
  80.8110012  38.6204997  92.0649988  80.5111451  37.6862208  92.5281988
  79.9007211  39.1813742  91.8703145  81.6500012  39.3954997  93.0229988
  81.9888531  40.3182646  92.5694293  82.5157634  38.8160233  93.3208776
  81.0330012  39.1764997  94.3939988  79.8450012  39.0224997  94.6299988
  82.0080012  39.1684997  95.3539988  81.6440012  38.9154997  96.6679988
  82.5686665  38.5330142  97.0731663  80.8840846  38.1508985  96.7394401
  81.2140012  40.1994997  97.4279988  82.0388874  40.8746300  97.2709777
  80.9490012  40.0494997  98.9029988  80.6408542  40.9957472  99.3266284
  81.8664577  39.7358521  99.3851644  79.9590012  39.0934997  99.0789988
  78.4050012  39.3224997  99.4699988  78.5730012  40.1554997 100.8289988
  77.9280012  39.7844997 101.9789988  78.1642000  38.7779831 102.2988792
  76.8512003  39.8190505 101.8407848  78.2370012  40.8444997 103.1399988
  77.9232815  40.4592629 104.1019871  77.6667960  41.7354757 102.9199879
  79.6870012  41.3084997 103.3289988  80.5110012  40.0784997 103.3999988
  80.0779710  39.4148552 104.1357942  81.5067672  40.3617865 103.7070793
  80.5488933  39.6250183 102.4208993  80.1510012  42.2144997 102.1759988
  79.4113419  42.9862446 102.0275805  80.2798703  41.6178265 101.2907056
  81.0925739  42.6551388 102.4702348  79.8010012  42.0344997 104.6509988
  79.1196444  42.8722373 104.6565322  80.8129171  42.3901489 104.7742459
  79.5553346  41.3576100 105.4565441  77.7320012  40.1114997  98.4619988
  77.8720012  37.9634997  99.6669988  80.0430012  40.7524997  96.7229988
  80.0330012  42.0624997  96.6079988  80.7240012  42.8394997  97.2599988
  78.8460012  42.4714997  95.7579988  78.4596887  41.5381759  95.3614861
  78.0876447  42.8395117  96.4445624  79.1260012  43.4814997  94.6609988
  78.2875117  44.1609413  94.5544365  79.9827188  44.0990397  94.9114227
  79.3660012  42.7804997  93.3419988  80.3093551  42.2406856  93.3603892
  78.5924112  42.0335759  93.1815982  79.3470012  43.7374997  92.1989988
  78.3156081  44.0345818  92.0182322  79.8825348  44.6454429  92.4655411
  79.9270012  43.1864997  90.8899988  80.2045721  44.0367930  90.2704371
  80.8566695  42.6819078  91.1458988  79.0550012  42.2234997  90.0719988
  79.6182927  41.7938781  89.2450593  78.6988274  41.3874718  90.6674110
  77.8430012  42.9834997  89.5189988  77.1360301  43.2773593  90.2860831
  78.1309886  43.8973301  89.0009996  77.1840012  42.0114997  88.4879988
  76.7356546  41.1574121  88.9728428  77.0830012  42.0784997  87.1469988
  76.5823973  41.2465985  86.6727138  77.5620012  43.1524997  86.1749988
  76.6604766  43.5075050  85.6785658  77.9356804  43.9865262  86.7584750
  78.5700012  42.7904997  85.1179988  78.3910661  41.7497277  84.8506394
  78.3165016  43.3776740  84.2374176  80.0910012  42.9914997  85.4519988
  80.1783168  43.8349864  86.1368441  80.4437354  42.1201836  85.9968757
  81.0250012  43.2414997  84.1929988  80.6173228  44.0756987  83.6263814
  82.0058976  43.5605574  84.5410352  81.1850012  42.0214997  83.2839988
  82.0043852  41.3954532  83.6322309  80.2990724  41.3929964  83.3111808
  81.4970012  42.4464997  81.8059988  82.1666879  43.3046356  81.8083256
  82.0366607  41.6439103  81.3065471  80.2890012  42.7874997  80.9879988
  79.7037156  41.9335279  80.6562036  79.5945001  43.4331007  81.5210847
  80.8570012  43.5874997  79.6959988  80.0411062  43.9561318  79.0815927
  81.4769039  42.9561431  79.0684237  81.4558355  44.4420620  79.9980941
  35.5110012  80.6664997  83.1979988  35.5297981  79.6715722  82.7641843
  34.8368290  80.6440294  84.0493371  36.5075850  80.8821780  83.5733858
  35.0740012  81.7064997  82.1769988  34.0882641  81.4338513  81.8039191
  35.7478269  81.6531395  81.3261606  35.0290012  83.0964997  82.7079988
  36.0359217  83.4376973  82.9480492  34.4762818  83.1062838  83.6453229
  34.3740012  84.0924997  81.7479988  33.3770526  83.7197399  81.5235134
  34.9233939  84.0688185  80.8081515  34.2520012  85.6124997  82.2549988
  33.7113533  86.1797757  81.5016922  35.2583187  86.0269237  82.2857039
  33.5570012  85.8294997  83.6549988  33.5651570  86.9064139  83.8131326
  34.2466732  85.4097813  84.3842216  32.1150012  85.2764997  83.9289988
  32.1265952  84.1911399  83.8475749  31.4413447  85.6327928  83.1508778
  31.5540012  85.6784997  85.3129988  30.6787201  85.0544974  85.4889395
  31.1860129  86.6984528  85.2183186  32.4490012  85.5934997  86.4709988
  32.0183226  86.1510268  87.2999863  33.3926237  86.0831762  86.2335742
  32.7270012  84.1424997  86.9199988  33.4773432  84.1617316  87.7073462
  33.1711595  83.5961195  86.0883612  31.4640012  83.3874997  87.4089988
  31.0504417  82.7536957  86.6274604  30.6642705  84.0648530  87.7035345
  31.8410012  82.4984997  88.6039988  32.6590224  81.8494529  88.3010162
  30.9962595  81.8450244  88.8138835  32.2160012  83.2594997  89.9069988
  31.3671419  83.8455885  90.2551219  33.0254293  83.9649947  89.7415395
  32.6150012  82.2954997  91.0269988  33.4526070  81.6743870  90.7270313
  31.7889704  81.6245251  91.2473583  32.9900012  83.0684997  92.3329988
  32.1799183  83.7210525  92.6329680  33.8788502  83.6676851  92.1749063
  32.9520012  82.1744997  93.5749988  32.2580012  81.2254997  93.7249988
  33.9570012  82.6184997  94.4799988  34.2470012  81.6174997  95.5509988
  34.6797289  80.8245746  94.9598317  33.3096307  81.2770355  95.9664657
  35.2150012  82.0424997  96.6579988  35.3994668  81.1411967  97.2188190
  34.5910012  83.1194997  97.5819988  33.8075235  82.6717876  98.1782518
  34.1528302  83.8803791  96.9482373  35.5700012  83.6754997  98.4019988
  36.1170012  83.0774997  99.7579988  36.4290012  84.2714997 100.6109988
  35.3880012  85.2824997 100.7709988  34.4115110  84.8167083 100.7973500
  35.3995987  85.9242276  99.8947295  35.5780012  86.2174997 101.9519988
  34.7071276  86.8596629 101.9901369  36.4570088  86.8318586 101.8205237
  35.7010012  85.6034997 103.3399988  37.0230012  84.8504997 103.4699988
  37.1182842  84.1731167 102.6324980  36.9969002  84.2880855 104.3914699
  37.8315357  85.5652078 103.5043671  35.5320012  86.6314997 104.4509988
  34.6342495  87.1989337 104.2592317  36.3999839  87.2657530 104.4774324
  35.4364735  86.0895649 105.3807720  34.5460012  84.6754997 103.5679988
  33.6223894  85.2257191 103.4665990  34.6139044  84.2625377 104.5632382
  34.5771720  83.8757714 102.8421213  35.0770012  82.2134997 100.4279988
  37.4310012  82.4754997  99.4309988  36.5230012  82.5244997  96.1019988
  37.5470012  81.7294997  96.0479988  37.5740012  80.5474997  96.3339988
  38.7840012  82.5924997  95.7189988  38.8909751  83.3204220  96.5166444
  39.6751865  81.9713165  95.7617453  38.6450012  83.2524997  94.3659988
  37.9558384  84.0842504  94.4624685  39.6000128  83.6850781  94.0851754
  38.1380012  82.2934997  93.2279988  38.9350293  81.5781782  93.0416784
  37.3167510  81.7266708  93.6596447  37.6690012  82.9044997  91.9169988
  36.7575148  83.4783674  92.0737609  38.3985736  83.5987927  91.5072631
  37.3860012  81.8354997  90.8929988  38.2001544  81.1213164  90.7881283
  36.5024844  81.2525951  91.1459839  37.1470012  82.5264997  89.5609988
  36.3545807  83.2535481  89.7317947  38.0409442  83.0970767  89.3251477
  36.7970012  81.6854997  88.3879988  37.7165090  81.2040085  88.0761471
  36.1514905  80.8957272  88.7699956  36.1100012  82.3474997  87.2249988
  35.0366476  82.2505534  87.1612208  36.7380012  83.0854997  86.2319988
  36.2068699  83.5526765  85.4151417  38.2240012  83.3084997  86.2039988
  38.6219331  82.7243125  87.0320064  38.6196475  82.8610334  85.2990574
  38.7730012  84.8114997  86.3399988  38.1814300  85.3009194  87.1127969
  39.7849093  84.7378694  86.7338000  38.7860012  85.7094997  85.0369988
  37.8863932  85.4604044  84.4741808  38.6687185  86.7415485  85.3557839
  40.0250012  85.5934997  84.1009988  40.9416754  85.7640953  84.6611330
  40.1056043  84.5913664  83.6834859  39.9090012  86.6494997  82.9129988
  39.4388622  87.5450367  83.3149599  40.9139166  86.9457322  82.6248733
  39.0900012  86.2014997  81.6369988  38.0572046  85.9581380  81.8798761
  39.0460887  86.9892630  80.8871090  39.7270012  85.0034997  81.0259988
  40.8078494  85.1123531  80.9831845  39.5414027  84.1413212  81.6627990
  39.1860012  84.7024997  79.6159988  39.6032722  83.7762017  79.2326896
  39.4347619  85.4876880  78.9100679  38.1046734  84.5987713  79.6265717
  89.9490012  94.7484997  82.5539988  90.8373302  95.3590721  82.4255394
  90.0666174  93.8594324  81.9412052  89.9142716  94.4299849  83.5922445
  88.7150012  95.5014997  82.1819988  88.8545705  95.8277315  81.1527776
  88.7197204  96.4016171  82.7907519  87.3390012  94.7754997  82.3079988
  87.0499040  94.6594146  83.3524489  87.4030019  93.7688789  81.8996000
  86.2050012  95.5564997  81.5379988  85.3299455  94.9110243  81.5081818
  86.5228048  95.6814325  80.5040265  85.7930012  96.9104997  82.1069988
  85.0118225  97.3438278  81.4876768  86.6424922  97.5887664  82.0463015
  85.2950012  96.8464997  83.5699988  85.2210889  95.7967396  83.8481314
  84.2806051  97.2390599  83.5917751  86.1570012  97.5964997  84.6219988
  86.2611578  98.6308199  84.2993486  87.1590661  97.1701122  84.6049818
  85.6100012  97.5654997  86.0799988  84.7264941  98.2024434  86.0929966
  86.3524562  98.0629870  86.7012482  85.2680012  96.2274997  86.6889988
  84.3690315  95.8359281  86.2177597  85.0247887  96.3615593  87.7423044
  86.3800012  95.2174997  86.5599988  86.7364838  95.1889737  85.5326695
  86.0063247  94.2180843  86.7812765  87.5580012  95.5484997  87.5239988
  87.9254541  96.5456035  87.2909682  88.3846469  94.8680920  87.3269447
  87.2070012  95.4994997  89.0169988  86.5473361  94.6554447  89.2030963
  86.6388782  96.3916627  89.2738088  88.4430012  95.4204997  89.9369988
  88.8290964  96.4134315  90.1612060  89.2652977  94.8678331  89.4912836
  88.0340012  94.7224997  91.3259988  88.9400601  94.6047893  91.9112735
  87.6881543  93.7226891  91.0772807  86.9940012  95.3904997  92.1609988
  86.0904170  95.5486250  91.5860440  87.3530472  96.3494905  92.5152466
  86.5620012  94.6384997  93.4419988  85.6550012  93.8834997  93.5809988
  87.4710012  94.8804997  94.3959988  87.3720012  94.2734997  95.6979988
  88.3570438  93.9114026  95.9510572  86.6731881  93.4503470  95.7336644
  86.9510012  95.3974997  96.6659988  87.5867495  96.2496404  96.4911439
  87.0720012  94.9504997  98.1169988  87.0698342  95.8333468  98.7418005
  88.0356677  94.4647221  98.2061719  86.0090012  94.0434997  98.5149988
  85.9820012  93.7094997 100.0639988  85.3110012  95.0584997 100.5579988
  83.8840012  95.1394997 100.4379988  83.5107809  94.5715205  99.5958020
  83.5889850  96.1710724 100.2688236  83.1780012  94.7264997 101.7379988
  83.2718302  93.6527756 101.8407689  82.1472921  94.9656852 101.5193525
  83.4550012  95.2984997 103.1149988  84.8950012  95.0534997 103.4459988
  85.1128042  94.0065137 103.2856357  85.0444764  95.3008313 104.4864718
  85.5098560  95.6921189 102.8296904  83.1910012  96.8184997 103.3449988
  82.2009488  97.0527295 102.9849338  83.9424978  97.3875839 102.8275378
  83.2511483  96.9995369 104.4084389  82.6460012  94.4894997 104.0909988
  81.6013402  94.5520268 103.8248113  82.7905017  94.8850230 105.0851471
  82.9701854  93.4592253 104.0614304  85.1250012  92.5034997 100.1889988
  87.3070012  93.6084997 100.6819988  85.6020012  95.7834997  96.3529988
  84.8670012  96.6234997  97.1169988  85.2940012  97.2034997  98.0699988
  83.4280012  96.8384997  96.5909988  82.7620420  96.3783554  97.3137149
  83.2064275  97.9025013  96.6176930  83.2210012  96.2494997  95.1359988
  83.6487268  95.2531082  95.1182281  82.1566460  96.1222664  94.9657264
  83.8330012  97.0774997  94.0039988  83.5036192  98.1072648  94.1168938
  84.9098225  97.0855098  94.1538542  83.5430012  96.5884997  92.5909988
  84.1861727  95.7372195  92.3756887  82.5213407  96.2238769  92.5170926
  83.7660012  97.6344997  91.5239988  83.1830353  98.5132897  91.7919162
  84.8105202  97.9340808  91.5840995  83.4440012  97.2274997  90.0379988
  83.7400816  98.0742491  89.4207040  84.1089165  96.4093923  89.7754994
  81.9620012  96.8104997  89.6769988  81.3603697  97.6872361  89.8866479
  81.9594907  96.6884443  88.5946669  81.3370012  95.5264997  90.3279988
  80.4883225  95.6751542  90.9785373  81.7620012  94.2274997  90.1359988
  81.2998975  93.3914747  90.6411052  82.8560012  93.8534997  89.2439988
  83.2352524  94.7710582  88.7973716  83.6765218  93.4313826  89.8134231
  82.4680012  92.8784997  88.0969988  83.3539858  92.6517080  87.5051357
  82.1480131  91.9360279  88.5372414  81.3870012  93.3944997  87.1999988
  80.4310288  93.0808782  87.6193619  81.3975387  94.4799620  87.2465216
  81.4670012  92.9504997  85.7529988  81.6958894  91.8876069  85.7211517
  80.4922377  93.0660474  85.2822866  82.5110012  93.7344997  84.9509988
  82.3717485  94.8075294  85.0684973  83.5234707  93.5280989  85.2870481
  82.3720012  93.3954997  83.4319988  81.4758010  93.8640167  83.0292582
  83.2088950  93.8232203  82.8829107  82.3120012  91.8884997  83.1329988
  83.1487769  91.3614469  83.5845923  81.4176245  91.4698703  83.5892365
  82.2790012  91.6004997  81.6379988  82.1481591  90.5385826  81.4528459
  83.1963339  91.9056199  81.1459183  81.4570922  92.1237669  81.1575843
  67.8930012 105.6014997  83.0619988  67.8006824 105.7942125  81.9976830
  68.7506595 106.1594616  83.4265405  67.0084177 106.0032927  83.5485031
  68.0530012 104.0254997  83.3599988  68.9279375 103.6676129  82.8199928
  67.1966641 103.5181037  82.9240514  68.1810012 103.6734997  84.7629988
  68.4265534 102.6175236  84.8750152  67.2291721 103.8168138  85.2705946
  69.2670012 104.5364997  85.4909988  68.8060428 105.4116994  85.9435391
  70.0019097 104.9153028  84.7823920  69.9660012 103.7564997  86.5609988
  70.7228410 104.3745013  87.0372764  70.4956652 102.9212469  86.1058352
  69.0080012 103.2224997  87.6389988  69.5524550 102.5190238  88.2663014
  68.2228213 102.6496050  87.1502644  68.3580012 104.3234997  88.5409988
  67.6542222 104.8753314  87.9205578  69.1446397 105.0276085  88.8086937
  67.6330012 103.8414997  89.8399988  68.3075590 103.2097474  90.4164637
  66.7855258 103.2141646  89.5699612  67.1380012 105.0144997  90.7349988
  66.9103349 105.8556903  90.0837635  67.9723676 105.3312799  91.3595465
  65.9770012 104.7304997  91.5859988  65.1289353 104.4143969  90.9825402
  65.6571070 105.6272531  92.1160270  66.3350012 103.6264997  92.6199988
  67.2984938 103.8970170  93.0466640  66.4980200 102.7032365  92.0667014
  65.3530012 103.3604997  93.7719988  65.0369384 104.2918733  94.2355357
  65.8363506 102.7797812  94.5554587  64.1060012 102.5644997  93.2559988
  64.4376343 101.7962011  92.5595874  63.4410226 103.2160875  92.6960784
  63.3290012 101.8944997  94.3469988  63.9929226 101.2690245  94.9346501
  62.5966982 101.2338636  93.8905073  62.5900012 102.8734997  95.2859988
  61.9455519 103.5311375  94.7165792  63.3012135 103.4761914  95.8382747
  63.2250012 103.2104997  96.6939988  62.9780012 104.2064997  97.3329988
  64.0660012 102.2274997  97.0389988  64.4340012 102.2174997  98.4139988
  63.5249982 102.4166524  98.9612774  65.1609472 102.9821479  98.6464951
  64.9760012 100.8114997  98.7679988  64.1492354 100.1329676  98.6378197
  65.4400012 100.8104997 100.2829988  64.6526575 100.3388255 100.8552002
  65.4961645 101.8544701 100.5650563  66.7080012 100.1524997 100.5269988
  67.5390012 100.5024997 101.7919988  67.1740012 101.9694997 102.1129988
  68.1080012 102.8244997 102.8239988  68.7530385 102.2667608 103.4903644
  67.5626289 103.5310097 103.4430381  68.9380012 103.6964997 101.8459988
  69.5190229 103.0441801 101.2063568  69.6149529 104.3003600 102.4329111
  68.2270012 104.6524997 100.9199988  67.2230012 105.5654997 101.6989988
  66.5861050 104.9379175 102.3071417  66.6245576 106.0969806 100.9740896
  67.7813875 106.2713205 102.2954370  69.2330012 105.5654997 100.2759988
  70.0303895 104.9634772  99.8680100  69.6002766 106.2581057 101.0120529
  68.7263689 106.0963646  99.4830277  67.4370012 103.8074997  99.9329988
  68.1138339 103.1542128  99.4027199  66.9365436 104.4572409  99.2308389
  66.7042307 103.2198392 100.4669816  67.2320012  99.5964997 102.9359988
  68.9200012 100.4584997 101.3169988  66.0740012 100.3724997  97.9199988
  65.7050012  99.5134997  97.0089988  64.5480012  99.1294997  96.7729988
  66.9740012  99.1124997  96.2319988  67.2379001  99.9871147  95.6463718
  67.7710527  98.9913463  96.9613393  66.8250012  97.8224997  95.3329988
  67.8133530  97.5261791  94.9992086  66.4587657  97.0065632  95.9479396
  65.8760012  98.0104997  94.0579988  65.6437267  97.0119633  93.6965743
  64.9445847  98.4175058  94.4438412  66.3630012  98.9144997  92.8679988
  66.6439128  99.8881006  93.2653599  67.2627814  98.4967836  92.4229023
  65.3180012  99.1264997  91.7659988  64.8574237  98.1652173  91.5475827
  64.5307074  99.7519218  92.1824080  65.8290012  99.7864997  90.4119988
  66.2860118 100.7445064  90.6550326  66.6168228  99.1695613  89.9888652
  64.7090012 100.0044997  89.3109988  65.1853464 100.4829383  88.4631947
  64.4058637  99.0141445  88.9738781  63.4620012 100.7744997  89.7499988
  62.8884511 100.4592264  90.6086006  63.0320012 101.8924997  89.0899988
  62.1323595 102.3622334  89.4609503  63.6370012 102.5814997  87.9059988
  64.1819700 103.4458607  88.2816447  64.3733119 101.9393238  87.4357460
  62.6310012 103.0694997  86.8449988  61.9869800 103.8024753  87.3294453
  63.2080169 103.6168449  86.1020822  61.7640012 102.0134997  86.1349988
  61.2069554 101.4945184  86.9150407  61.0285332 102.5520783  85.5437932
  62.4800012 100.9734997  85.2429988  62.9105925 100.2305133  85.9106120
  61.7140311 100.4573155  84.6668662  63.5340012 101.4954997  84.3089988
  63.0555761 101.7320097  83.3604407  63.9052501 102.4398059  84.6976952
  64.7380012 100.5224997  84.0149988  64.3626082  99.5135635  83.8537195
  65.2236367 100.8158816  83.0860643  65.7900012 100.4774997  85.1169988
  66.1639042 101.4788519  85.3155064  65.2995119 100.1576284  86.0337406
  66.9660012  99.5414997  84.8369988  67.6300058  99.4896433  85.6945988
  67.5555425  99.8735035  83.9890864  66.6208517  98.5336077  84.6244745
  92.1920012  91.2744997  80.4139988  91.5295678  90.8703599  79.6548663
  92.5551658  92.2348576  80.0595781  91.5997425  91.4560356  81.3066837
  93.3260012  90.3384997  80.7009988  93.8736740  90.1580123  79.7775911
  92.9131555  89.3798639  81.0033065  94.2930012  90.8534997  81.7659988
  94.2921018  91.9428326  81.7301939  95.2955824  90.5435748  81.4779912
  94.0300012  90.3814997  83.2479988  93.9271920  89.2997220  83.2973676
  93.1016744  90.7908873  83.6433683  95.1350012  90.7824997  84.1019988
  94.8988224  91.7133242  84.6112711  96.0118722  90.9836881  83.4888223
  95.4930012  89.6894997  85.1769988  96.2631388  89.0214971  84.7955835
  94.6264226  89.0661612  85.3869220  95.9790012  90.3304997  86.4759988
  96.0257824  89.5715869  87.2548652  95.2466284  91.0642852  86.8097935
  97.3410012  91.0024997  86.3459988  97.2623289  91.7225745  85.5325162
  98.0408352  90.2396191  86.0099489  97.9060012  91.6934997  87.5729988
  97.4614034  92.6853416  87.6190805  98.9702954  91.8457823  87.3978852
  97.7100012  90.9824997  88.9269988  98.0709486  89.9622202  88.8172462
  96.6389876  90.9089205  89.1139346  98.3840012  91.6494997  90.1249988
  98.1323865  92.7077559  90.1430189  99.4670639  91.5980020  90.0277818
  97.9560012  91.0154997  91.4979988  98.5477610  91.5651982  92.2259210
  98.3801789  90.0140347  91.4554399  96.4730012  90.9094997  91.9799988
  95.9218331  90.3059818  91.2608104  96.0112249  91.8928212  91.9692537
  96.2830012  90.2814997  93.3699988  96.8799880  90.8194105  94.0991103
  96.6615589  89.2631308  93.3433357  94.7820012  90.2464997  93.8529988
  94.1607984  89.7426385  93.1234290  94.4069695  91.2533937  93.9929442
  94.6470012  89.7674997  95.2869988  93.5400012  89.5914997  95.8059988
  95.8220012  89.7154997  95.8379988  96.0420012  89.6294997  97.2779988
  97.0926342  89.3998194  97.3722278  95.4637799  88.8053543  97.6699639
  95.7080012  90.9564997  98.0329988  96.5161502  91.6399353  97.8312444
  95.5740012  90.7324997  99.5739988  95.2038223  91.6191995 100.0705187
  96.5427696  90.4819835  99.9879002  94.6340012  89.6114997  99.7519988
  94.1060012  89.3204997 101.1829988  93.7150012  90.7484997 101.7669988
  92.5230012  91.3824997 101.3489988  91.7649500  91.3599722 102.1210350
  92.1115324  90.8480148 100.4976373  92.7600012  92.8224997 100.8469988
  91.7901199  93.1870872 100.5329044  93.4270922  92.8336535  99.9971505
  93.2830012  93.8314997 101.7849988  94.7150012  93.5984997 102.1049988
  94.8373305  92.5684027 102.4103999  94.9853040  94.2538637 102.9195750
  95.3111894  93.8349346 101.2364510  93.2140012  95.1674997 101.1959988
  92.2181960  95.3204762 100.8091083  93.9540319  95.2476706 100.4199208
  93.4191506  95.8785637 101.9831446  92.3830012  93.7514997 103.0509988
  91.3572007  93.9388864 102.7704606  92.7053648  94.4963355 103.7630039
  92.4680616  92.7690021 103.4924716  92.9320012  88.3964997 101.1609988
  95.2640012  88.8544997 101.9829988  94.4780012  91.5254997  97.5299988
  94.3280012  92.8384997  97.7949988  95.0150012  93.4914997  98.5319988
  93.0530012  93.3794997  97.0389988  92.3672035  92.5472233  96.9183725
  92.5378642  94.1004652  97.6688794  93.4380012  93.9944997  95.7079988
  93.9532752  93.2491250  95.1122050  92.5416101  94.2543409  95.1539243
  94.3300012  95.2204997  95.8529988  94.0052112  95.7640547  96.7365787
  95.3309779  94.8568165  96.0717340  94.4120012  96.2384997  94.5629988
  93.3962136  96.4625256  94.2425397  94.8501558  97.1855567  94.8684583
  95.1910012  95.6984997  93.3559988  94.8249472  94.7077457  93.0946328
  94.9907964  96.3324041  92.4943351  96.6760012  95.6394997  93.5739988
  97.0232561  96.6423707  93.8176476  96.8871731  95.0224178  94.4428683
  97.4890012  95.0934997  92.3669988  98.4930419  94.9582936  92.7519682
  97.0878868  94.0948937  92.1989531  97.5050012  95.8094997  91.0959988
  98.1576337  96.6511397  90.9191745  96.6810012  95.4184997  90.0509988
  96.7680214  95.9873866  89.1364469  95.6490012  94.2814997  89.9859988
  95.8458206  93.6811314  89.0994092  95.7332168  93.6093057  90.8326061
  94.1750012  94.8254997  89.8949988  94.0236279  95.5576128  90.6873380
  94.0727730  95.3681553  88.9571644  93.1070012  93.7724997  89.9749988
  93.1587159  93.2753094  90.9436238  92.1250296  94.2345838  89.9229024
  93.2350012  92.7524997  88.8909988  93.7186268  93.1921252  88.0215273
  93.8740784  91.9318033  89.2121261  91.8540012  92.1964997  88.4989988
  91.9362522  91.1475546  88.2205407  91.1677922  92.2271028  89.3409048
  91.2790012  92.9274997  87.3509988  90.2515524  92.5898377  87.2276435
  91.2199819  93.9779341  87.6301729  91.9990012  92.8224997  85.9839988
  93.0510926  93.0299873  86.1627932  91.9462203  91.7691432  85.7176020
  91.5300012  93.6214997  84.8439988  92.0813490  93.3687212  83.9433392
  91.6567082  94.6852133  85.0148777  90.4766162  93.4419423  84.6483452
  46.4860012 106.1544997  80.6859988  45.9128546 105.7746480  79.8459721
  47.2291930 106.8436376  80.2954289  45.8092841 106.7238424  81.3172791
  47.1370012 105.0284997  81.4619988  47.7842052 104.4632003  80.7935928
  46.3647276 104.3397758  81.7937621  47.9870012 105.5374997  82.7059988
  48.0263941 104.7014861  83.4041811  47.3735061 106.2993702  83.1828090
  49.3740012 106.0914997  82.5159988  49.6523334 106.5645658  83.4551418
  49.3065348 106.8936912  81.7827573  50.4900012 105.1204997  82.1059988
  51.4383034 105.6412932  82.0007844  50.2693171 104.6878028  81.1316082
  50.6580012 103.9594997  83.1659988  51.5502739 103.4002247  82.8905393
  49.8195225 103.2791351  83.0332032  50.7460012 104.3464997  84.5709988
  50.8394237 103.4417487  85.1688850  49.8007635 104.8048860  84.8584665
  51.8620012 105.2724997  84.9039988  51.8741651 106.1871780  84.3126727
  52.8526748 104.8328675  84.8041325  51.6040012 105.6354997  86.4199988
  51.2956299 104.7464896  86.9659927  50.7773648 106.3407474  86.4966470
  52.8610012 106.2444997  87.0969988  53.3427397 106.9772675  86.4533542
  53.6116234 105.4832760  87.3080291  52.4240012 106.9124997  88.4279988
  51.7228707 107.7135104  88.2036353  53.2849519 107.3867367  88.8959636
  51.7510012 105.9414997  89.4509988  52.4016692 105.0798497  89.5790977
  50.8345649 105.5658907  88.9996314  51.4010012 106.5694997  90.8519988
  50.7447478 107.4336889  90.7639059  52.2674966 106.9018218  91.4168187
  50.6560012 105.4864997  91.6629988  51.2672123 104.5903645  91.6363936
  49.7489161 105.2651195  91.1068697  50.2640012 105.8024997  93.1569988
  49.6806643 106.7128913  93.2112766  51.1539179 105.9230514  93.7632863
  51.3440012 105.7924997  94.2279988  52.5330012 105.8424997  94.0549988
  50.7700012 105.6394997  95.3999988  51.6410012 105.8484997  96.5809988
  51.8245519 106.9054881  96.7016077  52.5852262 105.3376136  96.4600583
  50.8490012 105.2854997  97.8249988  49.9474615 105.8488085  98.0005078
  51.7530012 105.3254997  99.0919988  52.3591922 106.2212285  99.0938149
  52.4079680 104.4633608  99.0741102  50.8920012 105.2874997 100.2749988
  51.6530012 104.6954997 101.6059988  51.8140012 103.1894997 101.2209988
  50.6720012 102.3214997 101.4609988  49.7779097 102.7229275 101.0020379
  50.4803520 102.2859901 102.5295523  50.9080012 100.7964997 101.0249988
  50.8954603 100.7649706  99.9428261  50.0623388 100.2373047 101.3985401
  52.1280012 100.0264997 101.4419988  53.3310012 100.3614997 100.6179988
  53.0684193 100.2748869  99.5725883  54.1077014  99.6506897 100.8579694
  53.6615166 101.3581435 100.8693504  52.2000012 100.3124997 102.9449988
  51.2301538 100.1197727 103.3773949  52.5010082 101.3340560 103.0939533
  52.9339520  99.6411558 103.3667931  51.7470012  98.5374997 101.2009988
  50.8688540  98.2967147 101.7814832  52.5679521  97.9071299 101.5081201
  51.5454848  98.3822019 100.1508994  53.0280012 105.2204997 101.6349988
  50.7880012 104.7654997 102.7529988  50.4870012 103.9444997  97.5249988
  49.3830012 103.3594997  98.0749988  48.5670012 103.8944997  98.7349988
  49.1970012 101.9424997  97.4939988  49.8051466 101.8922483  96.5966767
  49.6294446 101.2250440  98.1869324  47.7420012 101.6204997  97.2119988
  47.6448233 100.5404259  97.2043785  47.1519597 101.9689731  98.0536937
  47.1860012 102.1694997  95.9419988  46.1211793 101.9518113  95.9214986
  47.2731115 103.2517087  95.9994480  47.8460012 101.6934997  94.6389988
  47.3983794 102.2609059  93.8251247  48.8978985 101.9679855  94.6582731
  47.7300012 100.2034997  94.3079988  46.8131816  99.7849958  94.7181176
  47.6703641 100.0653459  93.2301593  48.9390012  99.4074997  94.8409988
  49.1949486  99.7929033  95.8267249  48.6546487  98.3685251  94.9823969
  50.1790012  99.4584997  93.9389988  50.8505288  98.7064819  94.3366166
  49.8393348  99.0865915  92.9732570  50.8990012 100.7764997  93.7249988
  51.2618967 101.3012806  94.5958981  51.1320012 101.3344997  92.5409988
  51.6459180 102.2849039  92.5257917  50.7730012 100.8094997  91.1779988
  50.0442724 100.0125239  91.3158577  50.2772887 101.5762278  90.5931243
  52.0000012 100.2244997  90.3509988  52.4096697  99.3550897  90.8638370
  51.6430644  99.8675167  89.3868316  53.0930012 101.2394997  90.1299988
  52.6347152 102.0966516  89.6366717  53.4148667 101.5880143  91.1074670
  54.3630012 100.7674997  89.2899988  55.1402703 101.5171856  89.4202624
  54.7451094  99.8520079  89.7382768  54.1130012 100.5344997  87.8189988
  55.0578550 100.3760062  87.3025483  53.5352432  99.6271074  87.6658320
  53.4120012 101.7164997  87.1609988  52.3801789 101.7437537  87.5066619
  53.8748943 102.6338897  87.5201082  53.4130012 101.7384997  85.6829988
  53.2962114 102.7767323  85.3824190  54.4254573 101.4602204  85.3987343
  52.3940012 100.8394997  84.8759988  52.5835969 100.9049591  83.8088355
  51.3658111 101.1424861  85.0426282  52.4811738  99.7956699  85.1640288
 104.1530012  81.2304997  80.5699988 104.0504572  80.8197183  79.5704127
 105.2136771  81.3459869  80.7735160 103.7089226  82.2221632  80.5668781
 103.4730012  80.3164997  81.6289988 103.9307481  79.3321348  81.5471665
 102.4366731  80.1974068  81.3246059 103.5440012  80.7874997  83.0929988
 103.2005490  81.8189982  83.1703316 104.5819006  80.7903888  83.4199963
 102.7440012  79.9224997  84.0429988 103.0769296  78.8890499  83.9767405
 101.6897407  79.9176270  83.7705704 102.8970012  80.4114997  85.5529988
 102.6818859  81.4732585  85.6422550 103.9244505  80.2787357  85.8877920
 101.9700012  79.6444997  86.4709988 102.1807645  78.5813123  86.3708562
 100.9461995  79.7849650  86.1308862 102.0720012  80.0464997  87.9569988
 101.7487429  81.0790717  88.0756120 103.1149720  80.0164251  88.2693084
 101.2270012  79.1314997  88.8959988 101.6479373  78.1317482  88.7972017
 100.2323330  79.0872589  88.4562693 101.1070012  79.4834997  90.3779988
 102.0992839  79.6356427  90.7972463 100.6748608  78.6422302  90.9184591
 100.2570012  80.7304997  90.6229988  99.3879195  80.6800249  89.9707347
 100.8273485  81.6027135  90.3046028  99.8090012  80.9244997  92.0839988
  99.1007931  81.7499785  92.1078117 100.6688531  81.2470634  92.6685800
  99.1610012  79.7124997  92.7639988  99.9500811  78.9701749  92.8563346
  98.4539863  79.3158031  92.0377538  98.4400012  79.8854997  94.1049988
  97.8607055  78.9843933  94.2991014  97.7230286  80.6985954  94.0335860
  99.3480012  80.1274997  95.3039988  98.7599451  80.2417298  96.2087012
  99.8897255  81.0587775  95.1613511 100.3500012  79.0134997  95.4999988
 100.9265446  78.8591290  94.5967777  99.8427925  78.0894737  95.7509657
 101.0800012  79.0994997  96.8279988 101.1970012  80.0894997  97.5169988
 101.7750012  78.0234997  96.9729988 102.7090012  77.8004997  98.0659988
 102.5511445  76.7505181  98.2611449 102.4130957  78.3696752  98.9352922
 104.1400012  78.0534997  97.7229988 104.3975693  77.4568914  96.8635739
 105.0540012  77.6934997  98.8999988 106.0850469  77.9282794  98.6727890
 104.9749242  76.6312967  99.0950801 104.6270012  78.4114997  99.9859988
 105.5530012  79.6284997 100.5259988 104.7380012  80.2304997 101.6999988
 104.0480012  79.2964997 102.6379988 104.1825932  79.6475053 103.6528234
 104.5561764  78.3386973 102.5734267 102.5640012  78.9874997 102.3509988
 102.1845150  78.4395550 103.2042255 102.4722992  78.3671555 101.4711460
 101.5720012  80.1874997 102.1379988 101.9020012  81.2204997 103.2199988
 101.9143295  80.7229692 104.1800224 101.1271371  81.9725549 103.2100753
 102.8531027  81.6769812 102.9903305 101.8270012  80.8334997 100.8609988
 101.8626001  80.0748914 100.0942131 102.7535626  81.3759717 100.9208145
 101.0077603  81.5123442 100.6730855 100.1300012  79.7654997 102.2369988
  99.9315439  79.0018991 101.4996991  99.4968029  80.6202506 102.0523078
  99.9346613  79.3782960 103.2266202 106.8450012  79.1394997 101.0299988
 105.5560012  80.6614997  99.4929988 104.2370012  79.4244997  97.3079988
 105.1710012  79.5684997  96.4269988 105.9490012  78.6974997  96.0169988
 105.2510012  81.0124997  95.9079988 105.4219456  81.6506112  96.7688963
 106.1342461  81.1141983  95.2823449 103.9780012  81.4114997  95.1389988
 103.5390037  80.5042846  94.7386201 103.2594476  81.8033344  95.8518658
 104.1790012  82.4054997  94.0109988 103.2131183  82.5268245  93.5272585
 104.3993516  83.3560169  94.4906108 105.2480012  82.1284997  92.9739988
 105.4685848  83.0011307  92.3619824 106.1980885  81.7995721  93.3879343
 104.7000012  81.0314997  92.0659988 105.0157237  80.0766614  92.4813350
 103.6162596  81.0597539  92.1613236 105.0570012  81.0824997  90.5999988
 104.4848787  80.3036813  90.0981833 104.7105132  82.0281648  90.1925903
 106.5170012  80.9204997  90.2669988 106.7054948  81.1396772  89.2224839
 107.1160476  81.6259017  90.8413656 106.9430012  79.5574997  90.6069988
 107.2018109  79.3353165  91.6313064 107.0200012  78.5734997  89.7449988
 107.3351783  77.6007554  90.0943438 106.7120012  78.6254997  88.2869988
 105.9990409  79.4325545  88.1270891 107.5961773  78.8837947  87.7149873
 106.0960012  77.3124997  87.7219988 106.8294996  76.5114068  87.8052770
 105.2594647  77.0247912  88.3559463 105.6080012  77.4184997  86.2479988
 105.1397716  76.4670992  85.9956000 104.8179395  78.1636779  86.2161256
 106.6480012  77.7474997  85.2149988 107.2002527  78.6077269  85.5867141
 107.3549676  76.9200836  85.1891902 106.1330012  78.0294997  83.7679988
 105.7019499  79.0288852  83.7643380 106.9948149  78.0756193  83.1078662
 105.0500012  77.0284997  83.1789988 104.0884109  77.1627761  83.6711339
 104.8781535  77.2247090  82.1222091 105.4780012  75.5674997  83.3379988
 106.5400235  75.3789879  83.2020321 105.2280483  75.1609179  84.3155098
 104.7000012  74.8214997  82.2919988 104.8662930  73.7518873  82.3777045
 104.9856921  75.1153972  81.2876353 103.6335915  74.9999371  82.3972204
 103.6820012  63.8484997  84.1219988 103.3204649  64.8448797  84.3564071
 104.5719861  63.9548226  83.5084744 103.9799212  63.3771951  85.0545907
 102.6250012  63.0334997  83.4149988 102.3378042  63.5735242  82.5143909
 101.7463819  63.0170025  84.0541936 103.0250012  61.6194997  83.0419988
 103.9383762  61.6639653  82.4489576 102.2572097  61.2192003  82.3828874
 103.2230012  60.6504997  84.1949988 102.2880904  60.1703384  84.4754216
 103.5892347  61.1449868  85.0933647 104.2060012  59.5844997  83.7749988
 105.0361537  60.0415488  83.2425273 103.7188087  58.9169861  83.0661728
 104.7750012  58.7384997  84.9799988 105.1744623  57.8049353  84.5879460
 103.9478019  58.4654690  85.6317446 105.8800012  59.4604997  85.8229988
 105.4747256  60.3620753  86.2787214 106.6929155  59.7859829  85.1753407
 106.4390012  58.5514997  86.9149988 106.7633846  57.6129044  86.4674886
 105.6427198  58.2966933  87.6119161 107.5930012  59.1654997  87.6789988
 107.5054889  60.2489481  87.7239653 108.5451324  58.9578269  87.1922801
 107.6180012  58.6164997  89.0579988 107.7362511  57.5375296  88.9863085
 106.6412587  58.7871466  89.5099752 108.7100012  59.2074997  89.9729988
 109.6595183  59.2076614  89.4420014 108.8505018  58.5686277  90.8431885
 108.4170012  60.6374997  90.4379988 108.1021593  61.1814342  89.5507396
 109.3794122  61.0565267  90.7258379 107.4270012  60.8674997  91.5729988
 106.4131606  60.6955540  91.2154878 107.4569483  61.8967331  91.9194893
 107.6740012  59.9314997  92.7629988 108.7404202  59.7603550  92.8669454
 107.2219979  58.9699936  92.5343261 107.0910012  60.4474997  94.1459988
 106.0326291  60.6569973  94.0565537 107.5996860  61.3526547  94.4558425
 107.8200012  61.7024997  94.5359988 109.0550012  61.8094997  94.4119988
 107.1070012  62.4724997  95.3599988 107.6830012  63.4654997  96.2369988
 107.4477520  64.4112018  95.7724912 108.7559848  63.3422019  96.2633761
 107.0860012  63.4044997  97.6549988 107.6476836  64.0824898  98.2760754
 107.1980012  61.8904997  98.2459988 108.2486740  61.6338164  98.2448217
 106.6882404  61.2691203  97.5203152 106.6430012  61.7004997  99.5349988
 106.6630012  60.2564997 100.1959988 105.9300012  60.5214997 101.4839988
 104.4440012  60.6994997 101.5449988 103.9351887  60.1769504 102.3445243
 103.9510600  60.4061231 100.6226451 104.2270012  62.2234997 101.6529988
 103.1524838  62.3516143 101.6883268 104.5897575  62.5926535 100.7045736
 104.8090012  63.1924997 102.7439988 106.2390012  63.5794997 102.3319988
 106.7929172  62.6759314 102.1173466 106.6960890  64.0978057 103.1617755
 106.1916188  64.2361370 101.4762539 103.9770012  64.4444997 102.8309988
 102.9394739  64.1610389 102.9198876 104.1477899  65.0412363 101.9528720
 104.2917585  64.9807930 103.7145225 104.9350012  62.6094997 104.0849988
 103.9646955  62.2736120 104.4193166 105.3120680  63.3595730 104.7638659
 105.6200806  61.7746120 104.0523830 105.8510012  59.3124997  99.3499988
 108.0540012  59.8824997 100.4269988 105.6720012  63.8354997  97.6489988
 105.3800012  65.0944997  97.5909988 106.1620012  65.9904997  97.7239988
 103.9220012  65.1894997  97.2129988 103.4170604  64.3202637  97.6216755
 103.4730062  66.0510247  97.7009386 103.7650012  65.2804997  95.6289988
 102.8853285  65.8834949  95.4324441 104.6086187  65.8473357  95.2481584
 103.6410012  63.9224997  94.8519988 104.4582228  63.2720327  95.1531558
 102.7274612  63.4343851  95.1825347 103.6010012  64.0554997  93.2149988
 103.4329730  63.0671352  92.7911965 102.7549371  64.6655987  92.9081489
 104.8370012  64.6154997  92.6169988 105.0228002  65.6241828  92.9802315
 105.6986147  64.0221116  92.9168217 104.7650012  64.6314997  91.1419988
 104.8571610  63.6091971  90.7785362 103.7865338  64.9822160  90.8259012
 105.8350012  65.5024997  90.4789988 105.5696872  65.7352855  89.4543040
 105.9214446  66.4563426  90.9977059 107.1290012  64.8124997  90.5469988
 107.4665158  64.6294330  91.5560203 107.9210012  64.3794997  89.5469988
 108.8036190  63.8511068  89.8777503 107.7970012  64.4954997  88.0309988
 107.3477920  63.5896587  87.6274094 107.1607668  65.3155627  87.7173375
 109.1550012  64.6574997  87.4199988 109.7625941  65.2600801  88.0941150
 109.6215228  63.6747533  87.3879649 109.1830012  65.2774997  86.0099988
 108.6246224  66.2134808  86.0261085 110.2056632  65.5384046  85.7519389
 108.6300012  64.4064997  84.9809988 107.6135956  64.1833805  85.2976731
 108.5421379  65.0125943  84.0809908 109.3780012  63.0934997  84.6409988
 110.4539225  63.2571782  84.6548792 109.1847050  62.3275925  85.3870871
 108.9940012  62.5724997  83.2349988 107.9178183  62.4219425  83.1713912
 109.2393706  63.3187574  82.4815220 109.6960012  61.2524997  82.8619988
 110.7708783  61.3273649  83.0067376 109.3596627  60.4718404  83.5407922
 109.4110012  60.8224997  81.4549988 109.8469761  59.8485808  81.2538100
 109.8182442  61.5173068  80.7282683 108.3416677  60.7491459  81.2781199
 101.8060012  52.7644997  83.1129988 101.3130044  53.3772177  82.3646941
 102.4872247  52.0946171  82.5962959 102.4031661  53.4228366  83.7379776
 100.7870012  51.9814997  83.9519988 100.1843487  51.3323948  83.3190092
 100.0936901  52.6613392  84.4398021 101.5360012  51.1054997  85.0289988
 102.0922145  50.3665301  84.4523883 100.7417524  50.5584764  85.5330874
 102.4430012  51.7054997  86.0759988 102.2723447  51.1759066  87.0106953
 102.1387071  52.7358558  86.2534175 103.9810012  51.6654997  85.7489988
 104.1723638  51.9358106  84.7136798 104.3719780  50.6577180  85.8789152
 104.7120012  52.5814997  86.6199988 104.3694639  53.5841538  86.3706597
 105.7552193  52.5319478  86.3153392 104.6170012  52.3744997  88.1529988
 104.8180733  51.3379418  88.4173619 103.6115582  52.5904330  88.5117289
 105.6470012  53.3104997  88.8959988 105.5913305  54.3225310  88.4970697
 106.6647382  52.9687639  88.7168004 105.3830012  53.3474997  90.4179988
 105.6575358  52.3932595  90.8625182 104.3172061  53.4737247  90.6043453
 106.1990012  54.5374997  91.1549988 105.8252051  55.5028208  90.8207373
 107.2502058  54.5019667  90.8701563 106.0840012  54.4284997  92.7149988
 106.8703225  55.0368509  93.1567551 106.2924778  53.4023559  93.0128148
 104.7550012  54.8614997  93.3069988 103.9872156  54.3515375  92.7302293
 104.6567361  55.9202824  93.0746345 104.5020012  54.6604997  94.8349988
 105.3948334  54.9231408  95.3999078 104.2851210  53.6230916  95.0737905
 103.3970012  55.5044997  95.3149988 102.5408616  55.4611520  94.6497987
 103.7070166  56.5451007  95.3611712 102.9700012  55.0624997  96.7119988
 103.8171637  55.0660091  97.3860494 102.5545267  54.0622591  96.6808745
 102.0770012  56.1664997  97.3379988 101.9610012  57.2894997  96.8369988
 101.3160012  55.7214997  98.3779988 100.4090012  56.7884997  98.9119988
  99.6663252  56.9998441  98.1575268 100.9449922  57.6973086  99.1443175
  99.7420012  56.2074997 100.1669988  98.9509507  56.8780964 100.4592884
 100.7620012  56.0244997 101.3639988 100.2753329  55.5302478 102.1938602
 101.0851191  57.0065228 101.6861948 101.8370012  55.2854997 100.9269988
 103.1640012  55.4904997 101.6879988 103.7490012  54.0104997 101.7639988
 103.7160012  53.1504997 100.6179988 104.5957817  52.5211926 100.6518768
 103.8314492  53.7949119  99.7512798 102.4200012  52.2974997 100.3299988
 102.7552979  51.5998515  99.5729571 101.6023115  52.8787492  99.9288632
 101.7980012  51.4124997 101.4859988 101.2900012  52.3664997 102.5329988
 102.0821219  53.0590611 102.7824729 101.0218428  51.7907883 103.4063530
 100.4167077  52.8735806 102.1509720 100.5880012  50.6634997 101.0039988
 100.8407446  50.1600926 100.0834467  99.7785914  51.3573635 100.8633615
 100.3321319  49.9396434 101.7641699 102.9360012  50.4814997 101.8269988
 103.2187082  49.9273054 100.9443734 102.6151245  49.7963636 102.5972434
 103.7782882  51.0568673 102.1832847 104.1180012  56.2884997 100.9039988
 102.8270012  55.9084997 103.0999988  99.1780012  54.9584997  99.8389988
  97.9300012  54.5734997 100.2479988  97.1630012  55.2414997 100.9479988
  97.6570012  53.1084997  99.8539988  97.7515720  52.4937949 100.7432386
  96.6280780  52.9948042  99.5218881  98.6850012  52.6664997  98.7079988
  98.6882717  53.4064845  97.9152360  99.6975817  52.6399024  99.0978785
  98.3170012  51.2944997  98.1149988  98.4385286  50.5291140  98.8772782
  97.2596361  51.3053270  97.8621611  99.1380012  50.9084997  96.8259988
 100.1908526  50.9347946  97.1008048  98.9159720  49.8749166  96.5718115
  98.9430012  51.7794997  95.5759988  98.4884780  51.1834311  94.7873215
  98.2290888  52.5667936  95.8102600 100.2830012  52.4524997  95.0259988
 100.9311768  52.6678339  95.8740557 100.8178205  51.7396522  94.4046013
 100.0650012  53.7144997  94.2329988  99.4968011  54.3742852  94.8782985
 101.0508761  54.1648720  94.1254751  99.4390012  53.6114997  92.8849988
  98.9649489  52.6462371  92.7896224  99.3480012  54.4434997  91.8359988
  98.8536592  54.1842002  90.9107962  99.9440012  55.8694997  91.8539988
  99.1343528  56.5912242  91.7601680 100.4419525  56.0920799  92.7911132
 100.9150012  56.0894997  90.6999988 101.4468649  57.0307940  90.8333817
 101.6730456  55.3086655  90.7112102 100.2100012  56.0884997  89.3369988
  99.5182684  55.2467495  89.3042979  99.6019141  56.9847746  89.2508284
 101.2070012  55.9994997  88.0899988 102.0808063  56.6148390  88.2924020
 101.5708077  54.9785279  87.9882812 100.5660012  56.4274997  86.7999988
  99.7215366  55.7751383  86.5857695 100.1504054  57.4258682  86.9056650
 101.5260012  56.3784997  85.5849988 102.5022126  56.7722491  85.8622272
 101.6917010  55.3458642  85.2832678 101.0260012  57.1394997  84.4079988
 101.6628073  56.9263616  83.5530338 100.0493494  56.7303705  84.1588449
 100.8950012  58.6524997  84.5799988 100.4420638  59.1024784  83.7016846
 101.8582703  59.1285847  84.7289836 100.2709715  58.8956815  85.4353294
  40.0870012  76.0734997  83.6329988  40.7328951  76.7721555  83.1103804
  39.5469673  76.6280085  84.3950180  39.3577996  75.7002461  82.9191649
  40.8620012  74.9684997  84.2259988  41.5988647  75.3560269  84.9274671
  41.4207382  74.4471249  83.4534735  39.9450012  74.0004997  84.9499988
  39.2977275  73.5103882  84.2228422  39.2871372  74.5720097  85.6017367
  40.6620012  72.9284997  85.7969988  41.2919570  73.4171379  86.5370246
  41.3323224  72.3421547  85.1704407  39.6830012  71.9784997  86.5299988
  39.1690529  71.3660625  85.7935540  38.9176936  72.5868814  87.0091031
  40.3440012  71.0384997  87.6019988  41.0950894  70.4467548  87.0818820
  39.5759318  70.3390504  87.9251352  40.9530012  71.6674997  88.7809988
  41.5202361  72.5222411  88.4170874  41.6845902  70.9586278  89.1663664
  40.0090012  72.1314997  89.9559988  39.4671839  71.2526607  90.3031690
  39.2630042  72.7996807  89.5297282  40.6640012  72.8044997  91.1279988
  39.9996925  73.5646470  91.5334749  41.5596914  73.3290755  90.7976411
  41.0310012  71.8324997  92.2149988  41.7381011  71.1517870  91.7460223
  40.1241300  71.2552917  92.3934494  41.5940012  72.3304997  93.5729988
  42.5822308  72.7465743  93.3890827  41.7449081  71.4676518  94.2194110
  40.7250012  73.4224997  94.3469988  40.4024103  74.1834293  93.6405001
  41.3656954  73.9282877  95.0669705  39.5140012  72.8444997  95.0899988
  39.8303851  72.1054082  95.8240948  38.8247965  72.3347259  94.4226146
  38.7690012  73.9454997  95.8249988  39.5188484  74.5062438  96.3733054
  38.1573690  73.4332503  96.5629681  37.8890012  74.9104997  95.0549988
  37.1530045  74.3703754  94.4730918  38.4881573  75.5142383  94.3837458
  37.3290012  76.1094997  95.8979988  36.3420012  76.7004997  95.6349988
  38.2840012  76.4074997  96.8969988  37.8290012  77.3674997  97.8539988
  37.0892284  77.9757640  97.3557892  38.6923492  77.9762027  98.0804997
  37.2470012  76.7604997  99.1149988  36.7368498  77.5423040  99.6529778
  38.2690012  76.0904997 100.0219988  37.8173237  75.9245335 100.9906286
  39.0913296  76.7855537 100.1371539  38.7480012  74.8174997  99.4509988
  39.8020012  73.9774997 100.3189988  38.8430012  73.7254997 101.5839988
  39.3850012  73.0494997 102.7039988  38.9313352  73.4209613 103.6136099
  40.4411550  73.2960376 102.7636228  39.3320012  71.5204997 102.6479988
  39.6985896  71.1644201 103.6024982  39.9980195  71.1764188 101.8699210
  37.9910012  70.7884997 102.4129988  37.4820012  71.2294997 101.0499988
  37.4920955  72.3100985 101.0107788  36.4692553  70.8710700 100.9405725
  38.1058089  70.7925328 100.2847270  38.3010012  69.3164997 102.3419988
  38.9061720  69.0521411 103.1955776  38.8116913  69.1094220 101.4185896
  37.3602755  68.7862428 102.3760552  36.9760012  71.0974997 103.4369988
  37.3585651  70.8269247 104.4098893  36.0799459  70.5318125 103.2302793
  36.7498808  72.1537906 103.4134600  40.0740012  72.7384997  99.5189988
  40.9480012  74.8304997 100.7129988  36.3380012  75.7434997  98.7409988
  35.4430012  75.3314997  99.6479988  35.3910012  75.5464997 100.8109988
  34.3050012  74.6034997  98.9079988  33.8203352  73.9260049  99.6034503
  33.5394454  75.3112267  98.5998530  34.8760012  73.8814997  97.7299988
  35.0831426  74.6233088  96.9665378  35.8388680  73.4746396  98.0222065
  33.9970012  72.7654997  97.1249988  33.6516140  72.1405892  97.9446625
  33.1124908  73.2518642  96.7210730  34.6220012  71.8934997  96.0249988
  35.6254232  71.5805727  96.3077124  34.0574409  70.9811219  95.8488155
  34.7150012  72.6884997  94.6979988  35.3060568  73.5862572  94.8670714
  35.2747418  72.0873581  93.9840658  33.3810012  73.0724997  94.0709988
  32.7955383  72.1571655  93.9996011  32.8583515  73.7167812  94.7724663
  33.4140012  73.7924997  92.6409988  34.0608014  73.2195997  91.9867701
  32.4136595  73.7302334  92.2146357  33.8270012  75.2304997  92.6839988
  33.2125777  75.8167395  93.3506026  34.8790012  75.9074997  92.0099988
  35.0979926  76.9474603  92.2052799  35.7660012  75.2824997  91.0019988
  36.7672171  75.6798213  91.1598694  35.8338107  74.2133732  91.1694845
  35.3820012  75.5374997  89.5889988  34.3397768  75.2642590  89.4283350
  35.4516407  76.6033923  89.3804747  36.2850012  74.7584997  88.5839988
  37.2606737  75.2330878  88.4794222  36.4758845  73.7420029  88.9168680
  35.5720012  74.7254997  87.1819988  36.1857196  74.1157398  86.5226904
  34.6300707  74.1926417  87.2999576  35.3070012  76.0704997  86.5429988
  34.5041864  76.5646653  87.0869461  36.1804336  76.7059592  86.6610326
  34.8910012  76.0004997  85.0209988  34.1254828  75.2363698  84.8986463
  34.4238195  76.9431389  84.7417021  36.0340012  75.7104997  84.0319988
  36.6590442  76.5851082  83.8698380  36.6911358  74.9502694  84.4485765
  35.4960012  75.2124997  82.6879988  36.3102754  74.9274637  82.0286195
  34.9149096  75.9727391  82.1770099  34.8580505  74.3432689  82.8206557
  47.7020012  59.0014997  83.8929988  48.7407041  59.2507297  83.6995834
  47.1383738  59.2043394  82.9869247  47.6481838  57.9327478  84.0813737
  47.1590012  59.7854997  85.0599988  47.2383435  60.8529726  84.8614810
  47.7615217  59.5938343  85.9437676  45.6800012  59.4284997  85.3369988
  45.5884100  58.3513103  85.4755744  45.0924679  59.6694558  84.4533044
  45.0550012  60.1564997  86.5569988  44.0017553  59.8997810  86.6465456
  45.0919462  61.2370351  86.4274444  45.7880012  59.7644997  87.9049988
  45.8296244  60.6153067  88.5802527  46.8205026  59.4889348  87.6967444
  45.0780012  58.5844997  88.6249988  44.8463586  57.8342494  87.8711531
  44.1221124  58.9527198  88.9914243  45.8280012  57.9354997  89.7589988
  45.6542398  58.4852492  90.6822281  46.8998672  57.9853875  89.5723324
  45.4240012  56.4984997  89.9529988  45.9795746  56.0870585  90.7947264
  45.7275997  55.9251129  89.0790768  43.9530012  56.3024997  90.1869988
  43.7563514  55.2362283  90.2760783  43.4140014  56.6376346  89.3017074
  43.3850012  57.0444997  91.4519988  43.0600346  58.0297309  91.1248669
  44.2186206  57.2089849  92.1342393  42.2850012  56.3624997  92.1809988
  42.5703307  55.3603568  92.4937890  41.3897801  56.2457954  91.5726508
  41.9320012  57.2064997  93.4729988  40.9736032  56.8323698  93.8247360
  41.7525456  58.2218967  93.1245242  42.9010012  57.2544997  94.5899988
  42.3347594  57.5313510  95.4776787  43.5876532  58.0744762  94.3991546
  43.6970012  56.0094997  94.9139988  44.2750516  55.6763272  94.0583126
  43.0265392  55.1955489  95.1767857  44.6760012  56.2714997  96.1349988
  44.1240809  56.6372683  96.9915257  45.4268507  57.0049691  95.8660814
  45.6720012  55.1974997  96.2219988  45.9110012  54.3654997  95.3949988
  46.1890012  55.2924997  97.4759988  47.4280012  54.6134997  97.7319988
  47.6412545  53.9464694  96.9103811  47.3774944  54.0416354  98.6472104
  48.4890012  55.6894997  97.8229988  49.3725632  55.1395226  98.1018130
  48.2070012  56.8284997  98.8849988  49.1568201  57.3169714  99.0554113
  47.9270051  56.2915674  99.7827130  47.2280012  57.7664997  98.5539988
  47.2160012  59.0724997  99.4139988  46.7170012  58.6014997 100.8109988
  45.4600012  57.9474997 100.9149988  45.5621859  56.8752045 100.8104501
  44.8202688  58.2767280 100.1012738  44.6870012  58.3104997 102.2139988
  43.9507474  57.5170356 102.2383745  44.1748697  59.2564679 102.1127931
  45.3310012  58.3264997 103.6099988  45.8790012  56.9664997 103.9529988
  45.1035806  56.2306616 103.7899058  46.1599743  56.9737434 104.9956404
  46.7500593  56.7758727 103.3441999  46.4740012  59.2014997 103.7499988
  46.2098545  60.1745938 103.3652541  47.3064003  58.7799504 103.2154168
  46.7020084  59.2689823 104.8039228  44.2980012  58.8524997 104.4999988
  44.0014020  59.8335257 104.1598533  44.6944154  58.9213145 105.5018821
  43.4448349  58.1895488 104.4937905  48.6180012  59.5544997  99.6579988
  46.2460012  60.0054997  98.8029988  48.6880012  56.4084997  96.5729988
  49.6860012  56.0104997  95.8639988  50.4200012  55.0354997  96.0939988
  49.8830012  56.9544997  94.6609988  49.2481349  57.8092916  94.8703518
  50.9045627  57.3225273  94.7146154  49.5740012  56.3154997  93.2219988
  50.2304709  55.4690137  93.0529720  48.5631023  55.9212654  93.1956201
  49.7700012  57.3554997  92.0659988  48.7805728  57.7348645  91.8235781
  50.3126477  58.1861957  92.5104578  50.4890012  56.9304997  90.7989988
  51.2620424  57.6590873  90.5617788  50.9993667  55.9808101  90.9397777
  49.5640012  56.8154997  89.6109988  48.8463397  56.0063518  89.7299223
  48.9780865  57.7235606  89.4825062  50.3900012  56.5804997  88.3389988
  51.1199610  57.3729337  88.1811764  50.9491978  55.6494194  88.3655821
  49.4330012  56.5384997  87.1619988  48.8899746  57.4749808  87.1099871
  50.0144528  56.4696935  86.2435622  48.5080012  55.3894997  87.2219988
  47.5630952  55.5254160  87.7262145  48.7500012  54.1604997  86.6729988
  47.9974371  53.3861808  86.7140795  50.0210012  53.7464997  85.9739988
  50.1075642  54.3369272  85.0634367  50.8898630  53.9879268  86.5760561
  50.0640012  52.2644997  85.5899988  51.0661731  52.0563568  85.2171276
  49.9609815  51.6994468  86.5144235  48.9870012  51.7464997  84.5369988
  49.0083904  50.6568336  84.5203417  47.9924939  52.0255784  84.8740067
  49.2150012  52.2834997  83.1009988  49.1057686  53.3654955  83.1233206
  50.2470743  52.0877279  82.8153706  48.2940012  51.6954997  82.0659988
  48.8710880  51.5502438  81.1547022  48.0030134  50.7015245  82.3945783
  47.0010012  52.5474997  81.6959988  46.4422256  52.7840200  82.5997194
  47.3004743  53.5023671  81.2677721  46.0560012  51.8444997  80.7069988
  46.6228820  51.3721313  79.9086071  45.5524536  51.0352219  81.2312338
  44.9730012  52.7934997  80.0869988  44.2795523  52.2336344  79.4667178
  45.4167954  53.5634242  79.4649023  44.3967339  53.2883447  80.8636489
  62.6950012  35.4784997  84.3169988  62.0027894  35.9736060  83.6430985
  62.4140887  34.4305774  84.3693165  63.6847280  35.5317620  83.8717844
  62.6800012  36.1174997  85.6859988  61.6781434  36.0716573  86.1095345
  62.9285259  37.1721363  85.6035914  63.6490012  35.4254997  86.6229988
  64.6311243  35.3355373  86.1590270  63.3126315  34.4086594  86.8155145
  63.7920012  36.1714997  87.9979988  64.4552612  35.6111515  88.6532438
  62.8322046  36.2193904  88.5100563  64.3640012  37.6244997  87.8279988
  63.6275622  38.2415992  87.3196496  65.2299131  37.5774234  87.1697090
  64.7710012  38.3204997  89.1649988  65.6129209  37.7857308  89.6009007
  63.9523555  38.2301110  89.8757914  65.1550012  39.8624997  88.9969988
  64.3253923  40.3764933  88.5149929  65.9986213  39.9377232  88.3122532
  65.4930012  40.5614997  90.2749988  65.9894168  41.5143345  90.0957550
  66.1732824  39.9753932  90.8901252  64.1510012  40.8144997  91.0769988
  63.6720927  39.8672034  91.3153630  63.4427009  41.3658764  90.4598510
  64.4090012  41.5994997  92.3809988  64.7623396  42.5985692  92.1354158
  65.2114325  41.1213024  92.9421229  63.1450012  41.6884997  93.2749988
  62.2305284  41.5349302  92.7060550  63.0380250  42.6553128  93.7638306
  63.2380012  40.6204997  94.3119988  63.9147745  40.9714424  95.0872639
  63.7231769  39.7623388  93.8506589  61.8800012  40.1464997  94.9519988
  61.4988953  39.3683689  94.2928154  61.1847793  40.9777810  94.8751090
  61.8560012  39.6174997  96.3529988  60.9279157  39.1051156  96.5842235
  61.9591171  40.4227552  97.0755101  63.0190012  38.6524997  96.5339988
  63.9540668  39.1333804  96.2762256  62.8894517  37.7824167  95.9013522
  62.4620012  37.7834997  97.6539988  61.7470012  38.1144997  98.5829988
  62.9770012  36.5664997  97.5229988  62.6810012  35.5354997  98.4419988
  62.4688663  34.6774226  97.8221886  61.8144643  35.7560881  99.0483375
  63.9310012  35.2624997  99.3329988  63.7288013  34.3815059  99.9193938
  64.2600012  36.4074997 100.2339988  64.6696405  36.0295228 101.1608915
  63.3362308  36.9294739 100.4502771  65.1750012  37.2704997  99.6079988
  66.0930012  38.2704997 100.3059988  65.1250012  39.1534997 101.1489988
  64.3990012  40.1924997 100.5599988  64.2808673  40.0625488  99.4921288
  64.9215845  41.1344047 100.6997075  63.0350012  40.3814997 101.2479988
  62.3306998  39.6732426 100.8301705  62.6832523  41.3825150 101.0439938
  62.9490012  40.2064997 102.7739988  63.9090012  41.2284997 103.4649988
  64.8880307  41.1417825 103.0140938  63.9674973  40.9746407 104.5129653
  63.5011249  42.2221035 103.3549746  61.5560012  40.4454997 103.2659988
  60.8755906  39.8608493 102.6660492  61.3356377  41.4959331 103.1996704
  61.5165428  40.1194560 104.2952876  63.3730012  38.8574997 103.1689988
  62.7477782  38.1291433 102.6743521  63.2730070  38.7533242 104.2389514
  64.4048134  38.7064697 102.8861765  66.8520012  37.5154997 101.3049988
  66.7970012  39.1084997  99.3309988  65.0240012  34.9384997  98.4319988
  66.1090012  34.3414997  98.9389988  66.1900012  33.9994997 100.1099988
  67.1300012  34.1584997  97.8419988  68.0556318  34.4426267  98.3319302
  67.1861423  33.0819210  97.7015223  66.9440012  34.8844997  96.4959988
  67.6587140  34.5279902  95.7624133  65.9618475  34.6987793  96.0730151
  67.1520012  36.4374997  96.7089988  66.4991652  36.7359236  97.5253334
  68.1688404  36.5576076  97.0746174  66.9500012  37.3744997  95.5009988
  65.9433439  37.2025120  95.1244786  66.9726435  38.4045050  95.8485304
  67.9230012  37.2254997  94.3469988  68.9361115  37.4308518  94.6866145
  67.9202778  36.1905128  94.0105828  67.5930012  38.1314997  93.1509988
  66.6287162  37.8686586  92.7188298  67.5256206  39.1772205  93.4377839
  68.6880012  37.9844997  92.0789988  68.6092183  38.8005844  91.3702118
  69.6615249  38.0861182  92.5567761  68.6320012  36.6654997  91.3879988
  68.4191978  35.8235750  92.0294281  68.8000012  36.4114997  90.0829988
  68.6964049  35.3968842  89.7260207  69.1300012  37.4254997  88.9899988
  69.1696806  38.4124871  89.4477131  70.1145180  37.2443214  88.5733669
  68.0560012  37.4644997  87.8129988  67.9590361  36.4831539  87.3501129
  67.0743533  37.7087291  88.2144692  68.4540012  38.5484997  86.6939988
  68.7492324  39.4395307  87.2480829  69.3575242  38.1698453  86.2241361
  67.4620012  38.9314997  85.6339988  66.5298904  39.2526981  86.0935052
  67.8255048  39.7805163  85.0576995  67.1990012  37.7474997  84.6829988
  68.1166641  37.2787917  84.3325740  66.6100722  36.9504477  85.1285276
  66.4810012  38.3114997  83.4859988  65.4436915  38.5816092  83.6755047
  66.9518193  39.1983482  83.0656847  66.5110012  37.1594997  82.3929988
  67.5240473  36.7769742  82.2964233  65.9175583  36.3322095  82.7760516
  65.9710012  37.5534997  80.9899988  65.9443133  36.6908464  80.3310707
  66.5897349  38.3068733  80.5142490  64.9617413  37.9497574  81.0571958
  38.8920012 105.0264997  84.1769988  39.3191214 104.8046602  83.2039702
  39.5234208 105.7704123  84.6541708  37.9170870 105.4779788  84.0147615
  38.7750012 103.7304997  85.0579988  39.7605528 103.2857759  85.1849311
  38.1727875 102.9933759  84.5337839  38.1850012 104.0134997  86.4059988
  37.1611546 104.3615700  86.2699319  38.7313935 104.8479127  86.8411785
  38.1950012 102.8814997  87.3799988  37.7155345 103.2146811  88.2977960
  39.2247192 102.6473727  87.6456514  37.4990012 101.6174997  86.8989988
  37.4237569 100.9144525  87.7246113  38.1301050 101.1424437  86.1497359
  36.0520012 101.8534997  86.2909988  35.6862293 100.9340979  85.8374260
  36.1011307 102.5888399  85.4907251  35.0560012 102.3254997  87.3479988
  34.8565282 103.3851947  87.1995842  35.5142840 102.2370837  88.3320666
  33.7270012 101.5524997  87.3359988  33.8437991 100.5821019  87.8167662
  33.4097359 101.3495002  86.3148142  32.6100012 102.3604997  88.0709988
  31.6777524 101.8312543  87.8856542  32.5272123 103.3130370  87.5490833
  32.7560012 102.6174997  89.5659988  33.6778358 103.1618631  89.7588417
  32.8418344 101.6724514  90.1016716  31.5420012 103.4124997  90.1239988
  30.6506049 103.0128500  89.6452151  31.6335289 104.4416858  89.7811771
  31.3190012 103.4024997  91.6539988  31.0844066 102.3901952  91.9740365
  30.4418724 104.0047432  91.8833846  32.4790012 103.9324997  92.4329988
  32.6146703 104.9883071  92.2047080  33.4009265 103.4372667  92.1413276
  32.2950012 103.7954997  93.9589988  31.2528435 103.7073261  94.2479242
  32.6950718 104.6586237  94.4844056  33.0690012 102.5224997  94.4319988
  34.1058605 102.5734668  94.1248083  32.6239058 101.6305905  94.0071961
  34.5600012 102.7494997  94.8309988  35.2600012 103.5954997  94.2999988
  34.9590012 101.7634997  95.5289988  36.3700012 101.5464997  95.6289988
  36.7759556 101.8421803  94.6733650  36.4807595 100.4780433  95.7444352
  37.0870012 102.3064997  96.7759988  38.1346538 102.0608667  96.8306090
  36.3610012 101.8644997  98.1099988  37.0858716 101.8087392  98.9107825
  35.9495780 100.8765207  97.9450333  35.2930012 102.8134997  98.4489988
  35.6400012 103.7494997  99.7259988  35.7470012 102.5514997 100.7469988
  34.6080012 101.8074997 101.3409988  34.3523657 100.9622956 100.7153235
  33.7427823 102.4641523 101.3402030  34.7900012 101.3654997 102.8419988
  33.9659816 100.7153301 103.1075555  34.7362321 102.2590650 103.4470003
  36.0400012 100.6434997 103.2799988  36.2280012  99.4804997 102.2899988
  35.3009938  98.9272808 102.2272276  37.0085609  98.8399527 102.6727860
  36.5244976  99.8802742 101.3318823  37.2230012 101.5294997 103.1949988
  36.9920780 102.4583421 103.6936371  37.4684700 101.6890864 102.1602780
  38.0374206 101.0302889 103.6997825  35.9350012 100.0684997 104.6399988
  35.7210976 100.8584369 105.3445031  36.8708572  99.5963890 104.8987165
  35.1422059  99.3346976 104.6610971  36.9150012 104.4044997  99.6189988
  34.4910012 104.5454997 100.0519988  36.9530012 103.7194997  96.6149988
  37.7240012 104.2804997  95.7929988  38.5720012 103.7524997  95.0479988
  37.4600012 105.7704997  95.7939988  36.3884738 105.9168532  95.8832327
  37.8964968 106.2191003  96.6828948  38.0330012 106.4234997  94.4949988
  38.0819019 107.5041578  94.5714691  39.0414344 106.0928013  94.2675475
  37.1060012 106.0504997  93.3679988  37.4160390 105.1308890  92.8782573
  36.1018195 105.8701806  93.7437236  37.0480012 107.2064997  92.3389988
  36.7570361 108.1264079  92.8427984  38.0265264 107.3946781  91.9039364
  36.0560012 106.9404997  91.2189988  35.1168325 106.6019786  91.6517420
  35.8391265 107.8866654  90.7269451  36.5330012 105.9064997  90.1329988
  37.5997792 106.0393148  89.9596619  36.4059681 104.8916703  90.4994711
  35.8190012 106.0384997  88.8679988  36.1433569 106.9303616  88.3445911
  36.0639874 105.1970935  88.2211886  34.3250012 106.0534997  89.0959988
  33.9002129 105.7591061  90.0438602  33.4940012 106.4344997  88.1649988
  32.4347443 106.3911806  88.3740644  33.8320012 106.9554997  86.7729988
  32.9695933 107.5820566  86.5518652  34.6648070 107.6310349  86.9335217
  34.1170012 106.0754997  85.5409988  34.4584953 106.7357662  84.7446729
  34.9664239 105.4453345  85.7975758  32.9450012 105.1714997  85.0069988
  32.2670220 104.8896815  85.8126226  32.3403080 105.6916141  84.2692107
  33.5660012 103.8444997  84.3499988  34.0518673 103.3134437  85.1655101
  32.7197972 103.2297991  84.0480600  34.5390012 103.9884997  83.1619988
  34.1093853 104.7233475  82.4837519  35.4557899 104.4332085  83.5393015
  34.8560012 102.7534997  82.3649988  34.8080716 101.8884285  83.0239659
  34.0749496 102.6094934  81.6206503  36.2180012 102.7484997  81.6499988
  36.2753011 103.5047807  80.8711081  37.0079721 102.9916109  82.3572158
  36.5080012 101.3614997  81.0409988  37.5052755 101.3295019  80.6126427
  35.8071514 101.1104930  80.2519827  36.4472556 100.5829875  81.7962271
  99.7910012  85.8134997  81.4589988  99.2521076  85.3050883  80.6655628
 100.5350640  86.4550705  80.9958062  99.0845791  86.4530415  81.9810774
 100.4380012  84.8194997  82.4129988 101.0999503  84.1824204  81.8289128
  99.6504928  84.1743401  82.7930170 101.2330012  85.4374997  83.5879988
 100.7065745  86.2914806  84.0140510 102.1913146  85.8176658  83.2397461
 101.4960012  84.3854997  84.7069988 101.9243589  83.4990191  84.2444926
 100.5422918  84.0738177  85.1300812 102.4300012  84.8494997  85.8409988
 103.4124181  85.0807170  85.4373051 102.5727678  84.0271440  86.5400795
 101.8820012  86.1254997  86.6329988 101.6189720  86.9216266  85.9388701
 102.6533678  86.5318622  87.2837214 100.6490012  85.7584997  87.4759988
 100.7584458  84.7368886  87.8353075  99.7688450  85.7627379  86.8344872
 100.4090012  86.6954997  88.6739988 100.4458121  87.7271526  88.3264527
 101.2299377  86.5831083  89.3797716  99.0340012  86.4454997  89.4269988
  98.9908667  85.3790582  89.6376714  98.2469281  86.6434405  88.7004230
  98.7280012  87.2734997  90.7849988  99.5127645  87.0675348  91.5095841
  97.8010981  86.9089693  91.2270365  98.6120012  88.8114997  90.5459988
  97.9007534  88.9921735  89.7428645  99.5666184  89.2021593  90.1978336
  98.1550012  89.6134997  91.7929988  97.1543775  89.3043750  92.0852544
  98.0846451  90.6693179  91.5381107  99.0990012  89.4614997  92.9459988
 100.1091424  89.7859641  92.7018890  99.1877816  88.4450606  93.3191525
  98.5650012  90.3734997  94.0829988  97.4909537  90.2354486  94.1516206
  98.7306989  91.4015174  93.7718462  99.1900012  90.1764997  95.4739988
 100.2667510  90.2769097  95.4233171  98.9502654  89.1926759  95.8595977
  98.7540012  88.8374997  96.1279988  97.7880012  88.6174997  96.8489988
  99.7070012  87.9974997  95.8349988  99.5880012  86.6664997  96.1539988
  99.4016935  86.2892578  95.1597956  98.7325100  86.4537299  96.7785433
 100.8780012  86.0264997  96.7399988 100.6814700  84.9694285  96.6702128
 101.0980012  86.4104997  98.1729988 101.4395457  85.5233675  98.6888910
 100.1181882  86.6756010  98.5501894 102.0060012  87.4764997  98.3679988
 101.7500012  88.7764997  99.2789988 102.0350012  88.2134997 100.7249988
 102.4490012  89.1454997 101.6429988 101.7725078  89.9896838 101.6729786
 103.4147466  89.5355037 101.3347300 102.6800012  88.5624997 103.0699988
 102.4947269  89.4031355 103.7266980 103.7109920  88.2579672 103.1781410
 101.8240012  87.3854997 103.6349988 102.1780012  86.0784997 102.9089988
 102.1215701  86.2496391 101.8427620 101.4534814  85.3310432 103.1961921
 103.1643626  85.7636384 103.2150550 102.1880012  87.3084997 105.0579988
 102.1129505  88.2968395 105.4849247 103.1860264  86.9175432 105.1444196
 101.4832952  86.6436544 105.5361905 100.3360012  87.6004997 103.5489988
 100.0748182  88.4990629 104.0879324  99.8293884  86.7545408 103.9887114
 100.0448849  87.6974187 102.5130002 102.8250012  89.7124997  98.8099988
 100.3990012  89.2414997  99.1339988 101.9930012  86.2824997  95.8899988
 103.1600012  85.7194997  96.1329988 103.4680012  84.8884997  96.9729988
 104.0760012  86.3474997  95.0039988 104.1807225  85.6468735  94.1819833
 103.6326273  87.2433869  94.5765497 105.4370012  86.6634997  95.6729988
 105.7337668  85.8125077  96.2761603 106.1988824  86.7688373  94.9071829
 105.4080012  87.9154997  96.5529988 105.0905077  87.5881281  97.5397509
 106.4459778  88.2225582  96.6549029 104.5600012  89.1584997  96.0989988
 103.5367402  88.8278532  95.9307254 104.5152190  89.8877249  96.9042485
 105.0570012  89.8554997  94.8269988 105.9459545  90.4490752  95.0302993
 105.3505065  89.1145886  94.0858602 103.9730012  90.7544997  94.2189988
 103.2569095  90.0668095  93.7717897 103.4656463  91.2227249  95.0578517
 104.3370012  91.8354997  93.2029988 103.4151059  92.2637665  92.8271309
 104.8474194  92.6319275  93.7429265 105.2330012  91.3694997  92.0599988
 106.2748185  91.5824363  92.2466233 104.9270012  90.7364997  90.8869988
 105.7266005  90.5164596  90.1942988 103.5570012  90.2814997  90.4159988
 103.3551599  89.3557087  90.9520884 102.8197340  90.9983276  90.7599113
 103.3540012  90.0204997  88.9079988 104.1751233  89.4207924  88.5170835
 102.4509229  89.4315219  88.7596282 103.2420012  91.3474997  88.0899988
 102.3054905  91.8518340  88.3281199 104.0363014  92.0337222  88.3705157
 103.3040012  91.0844997  86.5829988 102.5604602  90.3136702  86.3929623
 102.9333546  91.9893252  86.1044626 104.6770012  90.6784997  85.9309988
 105.3848208  91.4992149  86.0310381 105.1161573  89.8409934  86.4661158
 104.5510012  90.3364997  84.4159988 105.4795227  89.8951352  84.0583283
 103.7824115  89.5789116  84.2739977 104.2240012  91.5044997  83.5609988
 103.2164192  91.8673485  83.7481732 104.8869493  92.3300712  83.8104873
 104.3860012  91.1694997  82.0219988 104.2290388  92.0566272  81.4158334
 103.6735115  90.4206759  81.6928144 105.3824115  90.7939472  81.8068992
  45.2420012 107.2514997  84.3599988  45.4427512 107.9384404  83.5437630
  44.6411029 106.4365117  83.9669263  46.1921389 106.8339781  84.6817534
  44.5410012 107.9454997  85.4999988  43.6016699 108.3734209  85.1539594
  45.1453219 108.7782533  85.8494726  44.2560012 106.9684997  86.6659988
  45.2095979 106.7028144  87.1220620  43.8642289 106.0511367  86.2311073
  43.3040012 107.4334997  87.7389988  42.3607790 106.8999633  87.6445486
  43.0683516 108.4882397  87.6059624  43.8660012 107.2054997  89.1839988
  43.2479549 107.7505075  89.8929122  44.8572180 107.6529121  89.2357309
  43.9510012 105.7184997  89.6289988  44.3191058 105.6610040  90.6517452
  44.6771269 105.1908142  89.0142903  42.6100012 105.0114997  89.5379988
  42.7563620 103.9848017  89.8685131  42.3381108 104.9562389  88.4847885
  41.4490012 105.6394997  90.3299988  40.5094288 105.2223080  89.9699907
  41.4098867 106.7059190  90.1157471  41.5490012 105.4264997  91.8869988
  40.8748067 106.0972083  92.4153479  42.5506471 105.6566501  92.2479878
  41.2060012 103.9834997  92.2409988  42.1090003 103.3796372  92.1840626
  40.5224548 103.5816556  91.4935266  40.5850012 103.8504997  93.5979988
  40.2282144 102.8272190  93.6936064  39.6996194 104.4832401  93.6274378
  41.4660012 104.1644997  94.7969988  40.8319608 103.9621779  95.6568113
  41.5915374 105.2450099  94.7594717  42.8180012 103.5294997  94.9889988
  43.1962015 103.8830268  95.9467227  43.4876369 103.9276017  94.2317823
  42.9100012 101.9594997  94.9809988  42.2790454 101.6149120  94.1682878
  42.4388789 101.6339575  95.9046643  44.2910012 101.2854997  94.8709988
  44.9492873 101.6403349  95.6538093  44.7426572 101.5049048  93.9108231
  45.2210012 101.4784997  96.0959988  45.0850012 100.8254997  97.1209988
  46.1410012 102.3184997  95.7499988  46.9030012 102.7364997  96.8369988
  47.8505666 102.8924324  96.3437781  47.0096866 101.9452597  97.5648377
  46.4280012 104.0414997  97.5059988  47.2809963 104.3145919  98.1049261
  45.1530012 104.0104997  98.3879988  45.4043212 103.4434544  99.2740568
  44.4294914 103.4488958  97.8103139  44.6300012 105.2664997  98.7399988
  44.9790012 105.9724997 100.1479988  43.8460012 105.5294997 101.1469988
  42.4980012 105.6964997 100.9229988  41.8710442 104.9239209 101.3487169
  42.2718291 105.7263121  99.8610409  42.1010012 107.0984997 101.4639988
  41.0993824 107.2328341 101.0754590  42.7639008 107.7877526 100.9611356
  42.0450012 107.5694997 102.9629988  41.1080012 106.5154997 103.6639988
  40.1940363 106.4318341 103.0921576  40.8841081 106.8768739 104.6566621
  41.6295356 105.5724845 103.7306411  43.4100012 107.6904997 103.6699988
  44.0703498 108.2701377 103.0433622  43.8015836 106.7049882 103.8483253
  43.2442442 108.2021653 104.6070259  41.4860012 108.9474997 102.9669988
  42.1126208 109.5871794 102.3634761  41.4613655 109.3173355 103.9810326
  40.4836544 108.9312592 102.5639204  46.2240012 105.4004997 100.5949988
  44.9330012 107.4334997  99.9009988  46.3070012 105.0374997  96.4139988
  47.4970012 105.6034997  96.0749988  48.5890012 105.3204997  96.5769988
  47.2780012 106.7844997  95.1719988  46.7953973 107.5558103  95.7633755
  48.2421250 107.1932420  94.8799339  46.4350012 106.3944997  93.9259988
  45.7358592 105.6286645  94.2434228  45.8333773 107.2559348  93.6539488
  47.2360012 105.8734997  92.6569988  46.5714599 105.7983608  91.8000314
  47.9929485 106.6069363  92.3902285  47.9220012 104.5354997  92.9049988
  48.6313407 104.6607413  93.7210000  47.1943568 103.8024459  93.2446572
  48.6820012 103.9574997  91.6819988  49.3882276 104.7093370  91.3357534
  49.2803465 103.1208511  92.0375027  47.8170012 103.4764997  90.4889988
  47.0201055 102.8817834  90.9328128  47.3439963 104.3625031  90.0747739
  48.4530012 102.6974997  89.3629988  48.7002993 103.3994019  88.5751175
  49.3996684 102.3076687  89.7347500  47.6310012 101.5434997  88.8279988
  47.4851940 100.7222766  89.5134818  47.0560012 101.4364997  87.6049988
  46.5101759 100.5384191  87.3537297  47.0830012 102.4494997  86.5239988
  47.8108661 103.2128198  86.7937691  47.4269597 102.0185618  85.5903682
  45.7440012 103.1274997  86.3029988  45.2969052 103.2350968  87.2905376
  45.9827047 104.1347112  85.9668372  44.7330012 102.5114997  85.3539988
  45.1906512 101.6561172  84.8570237  43.8951850 102.1191604  85.9237688
  44.2140012 103.4964997  84.2919988  43.9256417 104.4412000  84.7475590
  44.9843240 103.7341176  83.5604077  43.0220012 102.8784997  83.5809988
  42.5886999 103.6553409  82.9538164  43.4040155 102.1245450  82.8981793
  41.8990012 102.2864997  84.4419988  42.2607880 101.4302005  85.0083423
  41.5602265 103.0136154  85.1777762  40.7020012 101.8464997  83.6119988
  40.4854698 102.5061718  82.7754213  40.8634021 100.8619698  83.1784510
  39.4710012 101.7814997  84.5489988  38.6068209 101.3867678  84.0232154
  39.2000466 102.7599685  84.9309978  39.6627996 101.1360236  85.4014745
  52.8150012  45.4324997  84.8959988  52.5914732  45.4540414  83.8339252
  51.8786876  45.2941029  85.4288714  53.4335067  44.5595637  85.0858558
  53.5300012  46.7304997  85.3469988  52.8873043  47.5739636  85.1006000
  54.4261743  46.8429660  84.7428142  53.8980012  46.7894997  86.8789988
  53.3333825  46.0297151  87.4192414  53.5750530  47.7475917  87.2814105
  55.4400012  46.6104997  87.1859988  56.0696422  47.1074364  86.4512498
  55.7596546  45.5697006  87.2022801  55.7070012  47.2664997  88.6119988
  55.0256569  46.9030778  89.3770266  55.5920398  48.3489285  88.5897106
  57.1950012  46.9064997  89.0349988  57.0977548  46.2551925  89.9016931
  57.6237092  47.8371886  89.4005183  58.1570012  46.2684997  88.0279988
  58.2109074  46.9969867  87.2210472  57.5984530  45.4200364  87.6351069
  59.5810012  45.8124997  88.3969988  60.0436489  46.5936935  88.9987830
  60.1667121  45.7467850  87.4819533  59.6690012  44.4324997  89.1739988
  60.7176988  44.2451454  89.3946176  59.3582911  43.6465518  88.4867417
  58.8440012  44.3254997  90.4779988  57.8028163  44.1120375  90.2463376
  58.8495585  45.2765078  91.0099589  59.4070012  43.2444997  91.3829988
  60.4237399  43.4654482  91.7007488  59.4454447  42.2672386  90.9048661
  58.5140012  43.1624997  92.6359988  57.9382272  42.2406479  92.6061209
  57.7897453  43.9743675  92.6044694  59.2980012  43.2544997  93.9559988
  59.7559164  44.2355316  94.0706374  60.1074515  42.5322411  94.0143653
  58.3490012  43.0364997  95.1349988  57.7505377  42.1509897  94.9477595
  57.6625730  43.8783232  95.1702320  59.0370012  42.9034997  96.5159988
  59.6669610  43.7623510  96.7098181  59.6482815  42.0094400  96.5485976
  59.7650012  44.2624997  96.8899988  60.9150012  44.4424997  96.6319988
  58.8800012  45.1424997  97.3639988  59.3740012  46.4324997  97.6619988
  59.2040254  47.1107493  96.8394736  60.4374761  46.2904830  97.7886652
  58.7200012  46.9964997  98.9779988  59.1443320  47.9580200  99.2153087
  58.9470012  46.0464997 100.1119988  59.9882974  45.7569305 100.0713430
  58.3372639  45.1823935  99.8793488  58.6170012  46.5564997 101.4159988
  57.0560012  46.4994997 101.8969988  56.3500012  45.3694997 101.0049988
  56.3400012  44.0084997 101.3319988  56.2468922  43.8254759 102.3945533
  57.2664189  43.5362365 101.0181282  55.2410012  43.2904997 100.5539988
  55.5020913  42.2398727 100.5377502  55.1660759  43.6455011  99.5362870
  53.7820012  43.3604997 101.1449988  53.3030012  44.7874997 101.2329988
  54.0531574  45.3723745 101.7473148  52.3837055  44.7960577 101.7994988
  53.1175906  45.1571031 100.2356356  52.9000012  42.5754997 100.1949988
  53.3592548  41.6155889 100.0150782  52.7833461  43.1328024  99.2827623
  51.9424200  42.4436546 100.6776500  53.7240012  42.7274997 102.4949988
  54.0461904  41.6995722 102.4198906  52.7085174  42.7627778 102.8599622
  54.3706212  43.2650734 103.1734765  57.0630012  46.0844997 103.2949988
  56.3880012  47.7504997 101.6149988  57.2770012  47.0644997  98.8729988
  56.7530012  47.7854997  97.9189988  57.4100012  48.5804997  97.1879988
  55.2240012  47.5674997  97.7949988  55.0320442  46.5186470  97.9965271
  54.7205694  48.1191445  98.5850313  54.6870012  48.0084997  96.3509988
  53.6039208  48.0385993  96.3967370  55.0079206  49.0282892  96.1637210
  55.1060012  47.1254997  95.2129988  55.0300433  47.6897827  94.2870025
  56.1609089  46.8966583  95.3428688  54.3400012  45.8224997  95.0919988
  54.4215386  45.2790631  96.0315382  53.2804286  46.0164677  94.9440647
  54.8290012  44.9304997  93.9859988  54.7515233  45.4734854  93.0462836
  55.8908796  44.7559965  94.1483066  54.1150012  43.5564997  93.8479988
  54.4622355  42.9019919  94.6459642  53.0460106  43.6807818  93.9967645
  54.3450012  42.8744997  92.4989988  55.3991935  42.7701997  92.2701319
  53.9283818  41.8681644  92.4910195  53.6310012  43.7064997  91.4369988
  52.7159706  44.1725317  91.7702964  54.0050012  43.9324997  90.1689988
  53.3891006  44.5093131  89.4940449  55.3220012  43.4174997  89.5379988
  55.7669428  44.2938220  89.0696963  55.9850923  43.1369891  90.3487422
  55.2790012  42.2714997  88.4849988  54.9310399  41.3422031  88.9344827
  54.5691458  42.5109003  87.6955358  56.6700012  42.0524997  87.8649988
  57.1197157  43.0357563  87.7269037  57.2822856  41.5392487  88.6013310
  56.7150012  41.3064997  86.5749988  57.7530442  41.0594800  86.3638285
  56.1965196  40.3578959  86.7031115  56.0630012  42.1104997  85.3069988
  55.9838476  41.4303956  84.4609591  55.0451626  42.4059001  85.5465153
  56.8870012  43.3554997  84.8469988  56.9304100  44.1038130  85.6363186
  57.9183488  43.0771678  84.6379832  56.3180012  43.9804997  83.6399988
  56.4209052  43.3171866  82.7848137  55.2479210  44.1033656  83.7921352
  56.9230012  45.3364997  83.3049988  56.4094809  45.7901764  82.4626548
  57.9725479  45.2584745  83.0421208  56.8435795  46.0182867  84.1470199
  71.9840012  34.3214997  82.9129988  71.6324002  33.2959348  82.8580211
  72.5749918  34.5172739  82.0229468  71.1138589  34.9713744  82.8794241
  72.8250012  34.5684997  84.2209988  73.6618666  33.8722025  84.2264354
  72.2045714  34.3066234  85.0738186  73.3590012  36.0014997  84.3759988
  74.0345258  36.2493755  83.5573700  73.9488265  36.0792360  85.2871706
  72.2580012  37.0184997  84.4339988  71.4115996  36.5679614  84.9476813
  71.9194779  37.2263162  83.4201347  72.6110012  38.3424997  85.1349988
  71.7519788  39.0050916  85.0669878  73.4070368  38.8144394  84.5614440
  73.0440012  38.2344997  86.6139988  73.0019667  39.2445169  87.0176264
  74.0952125  37.9544405  86.6040656  72.2880012  37.2994997  87.5289988
  72.2810442  36.3283669  87.0374473  71.2550826  37.6448592  87.5350105
  72.7780012  37.1304997  88.9859988  73.0918499  38.0997469  89.3713683
  73.6642471  36.4986906  88.9943389  71.7250012  36.5334997  89.9199988
  71.5200146  35.5153906  89.5959996  70.7965985  37.0873434  89.7861980
  72.1040012  36.5274997  91.4199988  71.3976267  35.9065871  91.9666264
  72.0032713  37.5338778  91.8255670  73.5450012  36.0254997  91.6599988
  74.2474926  36.5519596  91.0174362  73.6456018  34.9692819  91.4162540
  73.9560012  36.2464997  93.0949988  74.8354026  35.6453752  93.3129931
  73.1664945  35.8777925  93.7472290  74.2220012  37.7024997  93.4309988
  73.2638352  38.2160683  93.3725421  74.8404833  38.1217175  92.6423225
  74.8450012  38.0274997  94.7729988  75.1025622  39.0810920  94.8038295
  75.7761627  37.4735162  94.8574529  73.9570012  37.6854997  95.9909988
  73.6598148  36.6448563  95.9630234  73.0657487  38.3017246  95.9932064
  72.4650012  38.1874997  95.8889988  72.0190012  39.3154997  95.9579988
  71.6850012  37.1224997  95.6699988  70.2210012  37.1534997  95.6589988
  69.9038981  36.4352109  94.9180744  69.9304519  38.1434045  95.3382785
  69.6080012  36.8164997  97.0209988  68.5840184  37.1484637  96.9745955
  70.3700012  37.5634997  98.2209988  69.7235483  37.5703925  99.0880928
  70.5314079  38.5851579  97.9004566  71.6550012  36.9164997  98.5409988
  72.1410012  36.8084997  99.9729988  71.0690012  36.0054997 100.8049988
  71.1520012  34.5754997 100.6159988  71.8628198  34.3002923  99.8477626
  70.1884341  34.1888900 100.2968305  71.4570012  33.8574997 101.9269988
  72.4653588  34.1599282 102.1799827  71.4244057  32.7796732 101.8591419
  70.6140012  34.2204997 103.1099988  70.5130012  33.1484997 104.1609988
  70.2241243  32.2225301 103.6830192  69.7526206  33.4455108 104.8678975
  71.4634094  33.0620711 104.6659456  71.3490012  35.4224997 103.7959988
  71.5734315  36.1620038 103.0426870  72.2433870  35.0617763 104.2717326
  70.6747081  35.8359184 104.5320088  69.2040012  34.6474997 102.6719988
  69.2801657  35.4883746 101.9987898  68.6328749  34.9317523 103.5430127
  68.7159220  33.8225156 102.1733857  73.3930012  36.0884997 100.0829988
  72.2340012  38.1794997 100.4979988  69.6720012  35.4374997  97.3349988
  69.0330012  34.5914997  96.6349988  68.1250012  34.7784997  95.8959988
  69.7330012  33.2544997  96.8459988  70.7565129  33.4706677  97.1345264
  69.2844503  32.7488041  97.6974570  69.6630012  32.3684997  95.5669988
  70.0053058  31.3718831  95.8232097  68.6252708  32.2616239  95.2674555
  70.5010012  32.9024997  94.3789988  70.2709098  33.9514333  94.2103271
  71.5529944  32.8627992  94.6506587  70.3050012  32.1254997  93.1169988
  71.1576836  32.3180314  92.4684849  70.3251111  31.0609891  93.3374865
  69.0120012  32.4484997  92.3299988  68.9708830  31.7708525  91.4797020
  68.1786007  32.1763221  92.9747810  68.8020012  33.9134997  91.8349988
  68.7528184  34.5885852  92.6879592  69.6417385  34.2442925  91.2302382
  67.4790012  34.0524997  90.9819988  67.6683962  33.7933958  89.9468298
  66.7338850  33.3452277  91.3438195  66.9090012  35.4664997  91.1009988
  66.2747546  35.6639693  91.9520517  67.1360012  36.4974997  90.2459988
  66.6253423  37.4165123  90.4955047  67.9900012  36.5844997  88.9969988
  68.0573264  37.6424158  88.7490031  68.9982199  36.2635214  89.2339566
  67.4630012  35.7844997  87.6789988  66.9883391  34.8378251  87.9343578
  66.7172761  36.3604112  87.1343163  68.6560012  35.5254997  86.7709988
  69.2779591  36.4206395  86.7710397  69.2587352  34.7369286  87.2130071
  68.3070012  35.1514997  85.3209988  67.6542039  35.9028846  84.8823401
  69.2009059  35.1252876  84.7002474  67.6510012  33.8314997  85.2839988
  66.9148931  33.7834016  86.0842621  67.0903374  33.7312737  84.3586686
  68.5880012  32.6664997  85.4469988  69.4886817  32.8006104  84.8506165
  68.9204821  32.5755742  86.4794826  67.9290012  31.3644997  85.0379988
  67.0428961  31.2304677  85.6534403  67.5648513  31.5200220  84.0248252
  68.7480012  30.1154997  85.0669988  68.1851996  29.2762363  84.6695564
  69.0533419  29.8541188  86.0745642  69.6473641  30.2242826  84.4674542
  77.4550012 108.2104997  82.7729988  77.8748807 108.7638447  81.9387689
  76.7614531 108.8669975  83.2904847  76.8817990 107.3824002  82.3651968
  78.5620012 107.7044997  83.7249988  79.1296153 108.5634671  84.0788238
  79.2539299 107.0990797  83.1457621  78.0540012 106.9194997  84.9149988
  77.6912422 107.6239090  85.6634254  78.9044508 106.4121916  85.3661582
  76.9350012 105.8524997  84.6209988  77.2572708 105.2944261  83.7446734
  76.0387612 106.3933747  84.3211420  76.5690012 104.8274997  85.7659988
  76.2885063 105.3632088  86.6692769  77.4524676 104.2436568  86.0189405
  75.4280012 103.8764997  85.3769988  75.6428106 103.4781104  84.3870696
  74.5172475 104.4632195  85.2776781  75.1730012 102.6914997  86.3669988
  76.0722774 102.5442846  86.9623138  75.0419764 101.7812030  85.7835414
  73.9850012 102.8684997  87.2909988  73.8809937 101.9261023  87.8272082
  73.1125395 102.9485789  86.6451800  73.9770012 104.0344997  88.3039988
  74.2262191 104.9813284  87.8297133  74.7130397 103.8874504  89.0934295
  72.6000012 104.1294997  88.9179988  72.3525745 103.1478040  89.3159342
  71.8905178 104.3203169  88.1132310  72.4250012 105.2034997  90.0139988
  72.6508505 106.1711353  89.5710378  73.1788796 105.0393634  90.7820187
  70.9890012 105.2874997  90.6969988  70.6795080 104.3362413  91.1230744
  70.2190198 105.5638515  89.9790653  71.0470012 106.3494997  91.7779988
  70.0659704 106.4648494  92.2357379  71.3070670 107.3209504  91.3669960
  72.0750012 105.9804997  92.9169988  73.0703242 105.9632350  92.4852824
  71.8521341 104.9652143  93.2342019  72.0770012 106.8724997  94.1309988
  71.0846128 106.9313337  94.5596535  72.4005377 107.8717210  93.8646345
  72.9010012 106.2764997  95.2769988  73.8540012 105.5494997  95.1229988
  72.2780012 106.4664997  96.4429988  72.8250012 105.7594997  97.5709988
  73.3852080 104.9092673  97.2122020  72.0069600 105.4101814  98.1841688
  73.7670012 106.7314997  98.3849988  74.3826072 106.0830183  98.9861603
  73.0560012 107.7894997  99.2989988  72.2449157 108.2780101  98.7762188
  73.7738029 108.5403918  99.6047873  72.5650012 107.0844997 100.4299988
  73.0690012 107.3934997 101.9019988  74.6100012 107.1064997 101.8389988
  75.2210012 105.8294997 101.7179988  74.5430718 105.0526029 101.3893162
  75.6239713 105.5031300 102.6724069  76.4500012 105.9354997 100.7709988
  76.1523376 106.1339577  99.7491085  76.9103371 104.9590199 100.8152154
  77.5810012 106.9554997 101.0879988  77.1640012 108.3234997 100.8079988
  76.7630929 108.3636705  99.8045084  78.0349440 108.9581267 100.8773321
  76.4356395 108.6257804 101.5454489  78.0710012 106.9164997 102.5009988
  78.2932951 105.8923004 102.7585162  77.3159239 107.3291526 103.1459374
  78.9699628 107.5139746 102.5477827  78.7290012 106.6974997 100.0999988
  79.0668723 105.6773589 100.2060082  79.5427979 107.3727843 100.3176579
  78.3808271 106.8647334  99.0909187  72.7810012 108.8244997 102.1409988
  72.3930012 106.4824997 102.8839988  74.5680012 107.5254997  97.4829988
  75.7600012 107.1084997  97.1609988  76.2330012 105.9664997  97.3889988
  76.6210012 108.1814997  96.4179988  76.0569422 108.3496026  95.5063344
  76.5031932 109.0847387  97.0114527  78.1000012 107.8974997  96.1329988
  78.4819746 108.7421956  95.5702857  78.6249573 107.9076359  97.0829205
  78.4200012 106.6034997  95.3749988  79.4902845 106.5794389  95.1864025
  78.2126944 105.7776877  96.0511078  77.6160012 106.3604997  94.0099988
  76.5573567 106.3770265  94.2623969  77.7860961 107.2130662  93.3570056
  77.9060012 105.0714997  93.2279988  78.9152190 105.0092842  92.8261161
  77.7588617 104.1690713  93.8182140  76.9170012 105.0714997  92.0949988
  77.1728725 104.2160812  91.4717091  75.9403415 104.8592658  92.5209220
  76.8060012 106.3404997  91.2049988  75.8025099 106.3444095  90.7956457
  76.8647106 107.1923106  91.8812511  77.8300012 106.5144997  90.1259988
  78.2996098 105.6844787  89.6199484  78.1930012 107.7604997  89.7359988
  78.9511678 107.9292817  88.9847958  77.5740012 109.0514997  90.3049988
  77.5176416 108.9605721  91.3884086  78.1955492 109.9171484  90.1049706
  76.0940012 109.3174997  89.7459988  75.3713366 108.6654168  90.2351295
  75.7845011 110.3362292  89.9715179  76.0380012 109.1004997  88.2499988
  76.9055028 109.6016902  87.8206317  76.1791389 108.0388818  88.0668279
  74.7190012 109.5984997  87.5009988  74.3398353 110.5272673  87.9214378
  74.8899538 109.7908095  86.4432289  73.6620012 108.4814997  87.6509988
  74.1172282 107.5576738  87.2989986  73.4803075 108.3371223  88.7124919
  72.4040012 108.6534997  86.9509988  71.8682991 109.5066148  87.3634317
  72.5982834 108.8949036  85.9075370  71.5060012 107.4584997  87.0019988
  71.9652943 106.5703521  86.5751982  71.2725580 107.2042792  88.0335942
  70.2110012 107.7594997  86.2689988  69.5105386 106.9359617  86.3700263
  70.3731903 107.9200025  85.2084920  69.7341953 108.6501778  86.6683603
  55.9870012 107.7754997  84.0049988  55.6871290 107.2703764  83.0921153
  57.0378158 107.5585332  84.1738306  55.8950429 108.8449498  83.8363809
  55.1630012 107.3464997  85.1499988  55.2562793 106.2687256  85.2720860
  54.1181967 107.5384141  84.9211617  55.5440012 108.0254997  86.4389988
  56.3285416 107.4254090  86.8997770  54.6808291 107.9493796  87.0972622
  55.9910012 109.4914997  86.3909988  55.1272176 110.1235770  86.1970756
  56.6722945 109.6475918  85.5560254  56.6740012 109.9704997  87.7129988
  56.6815086 111.0574001  87.7258117  57.7164748 109.6581304  87.6807642
  56.0160012 109.4484997  89.0469988  56.2869437 108.4092819  89.2242938
  54.9309264 109.4713238  88.9717068  56.4660012 110.3144997  90.2669988
  55.6131504 110.4435353  90.9309003  56.7242043 111.3092984  89.9065316
  57.6670012 109.7324997  91.0779988  57.8099234 108.6838610  90.8203534
  57.4383352 109.7556060  92.1418888  58.9660012 110.4944997  90.8259988
  59.1114196 110.4648791  89.7482617  59.7513897 109.8737465  91.2554254
  59.1420012 112.0154997  91.3489988  58.3300486 112.5985822  90.9199919
  60.0615041 112.4067262  90.9143896  59.1810012 112.2094997  92.8679988
  58.2870925 111.7694221  93.3048053  59.1416447 113.2713770  93.1046327
  60.3990012 111.5894997  93.5409988  61.3001080 111.9546269  93.0542673
  60.3792886 110.5137593  93.3764868  60.4710012 111.8554997  95.0639988
  60.5749144 112.9248435  95.2399471  61.3501568 111.3887166  95.4992837
  59.2520012 111.3824997  95.7979988  58.3827076 111.8316756  95.3290481
  59.3115834 111.7886744  96.8042612  59.0460012 109.8704997  95.8949988
  59.9166099 109.3965858  96.3302998  58.8758603 109.4488978  94.9114475
  57.5820012 109.5144997  96.1389988  56.8270012 109.3414997  95.2009988
  57.2640012 109.3534997  97.4099988  55.8850012 109.0444997  97.5909988
  55.7570112 108.5594354  96.6350734  55.2359077 109.9067905  97.6392086
  55.5660012 108.0174997  98.7829988  54.4928355 107.9217528  98.7765169
  56.0600012 108.5164997 100.2249988  55.2894603 109.1496984 100.6434807
  56.9455083 109.1154355 100.0525516  56.3620012 107.4094997 101.1329988
  57.0220012 107.8044997 102.4819988  58.5560012 108.0134997 102.1029988
  59.2490012 106.9004997 101.4519988  58.5632913 106.0934565 101.2291256
  59.9857997 106.4972959 102.1407307  60.0710012 107.3214997 100.1629988
  59.4711816 107.8193726  99.4116080  60.5562944 106.4685953  99.7108687
  61.1820012 108.2944997 100.5159988  62.2170012 108.2944997  99.4319988
  62.5085292 107.2723681  99.2330202  63.0702787 108.8536867  99.7860148
  61.8071236 108.7745524  98.5560611  60.6920012 109.6724997 100.7359988
  59.8604477 109.6349879 101.4228945  60.4029092 110.0973081  99.7913647
  61.5042588 110.2391014 101.1678517  61.9430012 107.9214997 101.7999988
  61.2475321 107.8751062 102.6247729  62.6916634 108.6733498 101.9996890
  62.4210147 106.9612872 101.6698832  56.4880012 109.0164997 103.0529988
  57.0000012 106.5874997 103.3099988  56.0320012 106.7434997  98.2999988
  55.3770012 105.6964997  98.7389988  54.4400012 105.7164997  99.5159988
  55.9600012 104.4924997  98.1569988  57.0273826 104.6682100  98.2428813
  55.7315303 103.6983256  98.8633950  55.5600012 104.0994997  96.7429988
  56.1159084 103.2085393  96.4724109  54.5136134 103.8112276  96.7452030
  55.8030012 105.1964997  95.6689988  55.4279655 104.8287771  94.7172728
  55.1799122 106.0478166  95.9318382  57.2740012 105.6874997  95.5099988
  57.4649738 106.5555372  96.1382871  58.0025581 104.9349722  95.8017336
  57.5220012 106.0734997  94.0859988  57.0377850 105.3622991  93.4199436
  57.0536714 107.0366795  93.8927817  59.0350012 106.1734997  93.7239988
  59.1271264 106.4064419  92.6643045  59.4900634 107.0013527  94.2605579
  59.8490012 104.8564997  94.0419988  60.9094580 105.0346618  93.9068341
  59.7133035 104.5937093  95.0902704  59.3790012 103.7044997  93.1919988
  58.4217892 103.3206409  93.5112974  59.9420012 103.1244997  92.1429988
  59.3914846 102.2766632  91.7612725  61.2270012 103.4354997  91.3679988
  61.6739421 104.2712535  91.9037042  61.8971856 102.5941469  91.5045980
  61.1650012 103.7854997  89.9349988  62.1938059 103.8427640  89.5814643
  60.7191417 102.9288885  89.4331167  60.4190012 105.0454997  89.5299988
  59.3488953 104.8875108  89.6642369  60.6909831 105.8619060  90.1933316
  60.6840012 105.4454997  88.1129988  61.5409111 106.1153969  88.1223833
  60.9988694 104.5563337  87.5695590  59.4470012 106.1404997  87.3289988
  58.8180443 105.3785410  86.8724658  58.8048402 106.6810454  88.0189732
  59.9230012 107.0624997  86.2379988  59.0429831 107.5876701  85.8710557
  60.5435865 107.8147633  86.7215349  60.6700012 106.5134997  85.0679988
  61.0570330 107.3213819  84.4520056  61.5425270 105.9811152  85.4402600
  59.8500012 105.5644997  84.2029988  60.4640142 105.1278937  83.4210574
  59.0203459 106.0701219  83.7205473  59.4410486 104.7509419  84.7954703
  83.4100012 103.2044997  81.3489988  82.8023172 103.6705577  80.5796229
  83.6717002 102.2077042  81.0059209  84.3306569 103.7752981  81.4338175
  82.6500012 103.1514997  82.7219988  81.7210143 102.6007958  82.5844789
  82.3667507 104.1643753  82.9952497  83.4870012 102.4804997  83.8989988
  84.5109227 102.8532438  83.9229893  83.5615028 101.4047635  83.7526700
  82.8070012 102.7474997  85.2859988  83.4329111 102.3860345  86.0989131
  81.8589799 102.2197534  85.3778989  82.5700012 104.2654997  85.4809988
  81.9418890 104.6617159  84.6872351  83.5168534 104.7990448  85.4164592
  81.8800012 104.5804997  86.8969988  80.8264979 104.3138472  86.8349955
  81.9123931 105.6546356  87.0665859  82.5170012 103.8584997  88.0959988
  83.5992875 103.9679838  88.0580590  82.3168028 102.7899490  88.0300430
  82.0000012 104.3894997  89.4439988  81.9536113 105.4744782  89.3596153
  82.7677377 104.1748705  90.1850783  80.6870012 103.8774997  89.9339988
  80.8130471 102.9131416  90.4215097  80.0084346 103.7089584  89.0987034
  80.0480012 104.8574997  90.9109988  79.0210732 104.5519703  91.0990675
  79.9935247 105.8427834  90.4487464  80.8200012 104.9644997  92.2439988
  80.1660108 105.4234431  92.9823812  81.6574331 105.6481221  92.1155618
  81.3230012 103.6644997  92.8009988  82.1892940 103.3203407  92.2412574
  80.5630557 102.8933306  92.6894140  81.6870012 103.8004997  94.3459988
  80.8125442 104.0667591  94.9373386  82.4317186 104.5667896  94.5421355
  82.2120012 102.4474997  94.8579988  83.0253018 102.1016880  94.2284740
  81.4177131 101.7099607  94.7790386  82.6860012 102.4974997  96.3079988
  81.8997418 102.8721734  96.9510048  83.5494280 103.1455507  96.4006972
  83.7620012 101.3974997  96.7059988  83.6880012 100.2144997  96.4159988
  84.7750012 102.0094997  97.3909988  85.8220012 101.1384997  97.8179988
  85.9702831 100.4022061  97.0425336  85.5805823 100.6341284  98.7424005
  87.0910012 102.0124997  97.9779988  87.9582236 101.3800916  98.0722287
  86.9390012 102.9374997  99.2969988  87.8650771 103.4430319  99.5349515
  86.6530956 102.3218529 100.1406942  85.9270012 103.8734997  99.0069988
  85.1030012 104.5674997 100.1729988  84.5170012 103.3534997 100.9509988
  83.3540012 102.5974997 100.5769988  83.5716211 101.7453474  99.9463902
  82.6510427 103.2163033 100.0267911  82.6120012 102.1714997 101.8329988
  83.3748549 101.5640147 102.3033871  81.7529745 101.5502410 101.6244613
  82.1520012 103.1854997 102.9159988  81.4990012 104.3484997 102.2329988
  82.1618792 104.7112435 101.4594720  81.3419701 105.1222835 102.9696804
  80.5479483 104.0309198 101.8325509  81.1840012 102.5514997 103.8769988
  81.6059823 101.6210142 104.2246231  80.2448193 102.3949622 103.3771953
  81.0576150 103.2335740 104.7053092  83.3230012 103.5274997 103.8549988
  83.6861450 102.6207120 104.3153733  82.9780524 104.2081585 104.6187814
  84.1160914 103.9929408 103.2877181  86.0620012 105.1574997 101.1149988
  83.9950012 105.3854997  99.6449988  87.2530012 102.7964997  96.8379988
  87.6120012 102.3224997  95.6879988  88.1000012 101.2504997  95.4169988
  87.5900012 103.4614997  94.6149988  87.7463047 104.3745281  95.1802433
  88.4818583 103.3317372  94.0070024  86.3090012 103.5374997  93.7249988
  85.4581663 103.7108531  94.3746830  86.3809403 104.4112447  93.0851336
  86.0450012 102.2904997  92.8749988  86.9973276 101.8215944  92.6407848
  85.5010714 101.5800451  93.4926230  85.2580012 102.5274997  91.6059988
  84.5321766 103.3194945  91.7810099  85.9086187 102.8819356  90.8102136
  84.4890012 101.2554997  91.1029988  84.1375345 100.6410902  91.9293602
  83.6034238 101.5356887  90.5358763  85.3790012 100.4424997  90.2259988
  85.5649826 101.0282831  89.3271274  86.3383469 100.3317544  90.7237027
  84.8780012  99.0754997  89.8349988  84.1971116  98.8524079  90.6481405
  84.2575935  99.3075892  88.9703747  85.7470012  97.8714997  89.5009988
  86.2844670  97.3777222  90.2965290  85.8870012  97.3474997  88.2229988
  86.4826091  96.4817530  87.9713169  85.1630012  97.9914997  87.0109988
  85.0624689  97.2645460  86.2068516  84.1592293  98.3316976  87.2398838
  86.0210012  99.2084997  86.4739988  85.3802899  99.7866209  85.8091906
  86.2249924  99.8481767  87.3305382  87.3520012  98.8824997  85.7539988
  87.8298402  97.9846991  86.1460842  87.2306718  98.7204033  84.6865214
  88.2950012 100.1164997  85.9919988  88.5986963 100.1152698  87.0364665
  89.2049106  99.9789641  85.4104200  87.6630012 101.4704997  85.6309988
  87.0810290 101.4196491  84.7126782  86.9831223 101.8416012  86.3930180
  88.7760012 102.4484997  85.4169988  89.2098723 102.8330260  86.3382904
  89.6056018 102.0489550  84.8365155  88.1520012 103.6354997  84.6319988
  87.7670132 103.2985168  83.6727585  87.2890315 103.9975190  85.1865602
  89.1350012 104.8204997  84.4079988  88.6290830 105.6568372  83.9350766
  89.9675434 104.5418403  83.7708462  89.5443491 105.1718583  85.3509316
  36.6210012  64.0924997  80.9619988  36.8759677  64.1297130  79.9074675
  37.0620896  64.9622030  81.4403785  35.5414449  64.1840754  81.0443643
  37.0830012  62.8774997  81.5669988  38.1610885  62.8119006  81.4305165
  36.6547304  62.0419810  81.0199094  36.7550012  62.7534997  83.0619988
  35.6881454  62.8633378  83.2561205  37.2478807  63.5337407  83.6385963
  37.2330012  61.3724997  83.5919988  38.2756668  61.4523077  83.8915468
  37.2060620  60.6407725  82.7860486  36.3760012  60.8194997  84.8459988
  36.8158061  59.8750385  85.1560597  35.3816304  60.5846236  84.4699335
  36.2500012  61.7384997  86.0749988  35.3402268  61.4843068  86.6158440
  36.1270709  62.7658973  85.7389642  37.4680012  61.6574997  87.0479988
  38.3811245  61.9350196  86.5245883  37.6091158  60.6306178  87.3824091
  37.2830012  62.5944997  88.3059988  36.9407352  63.5838791  88.0052773
  38.2297737  62.7441877  88.8216529  36.2100012  61.9474997  89.3359988
  35.4164690  61.4378689  88.7936665  35.7245968  62.7252909  89.9242168
  36.8780012  60.9844997  90.2519988  37.4070372  60.3299712  89.5627874
  36.0447861  60.4032720  90.6461512  37.8190012  61.3944997  91.4279988
  37.3323221  62.2523469  91.8871093  38.7216741  61.7767668  90.9545208
  38.2030012  60.4214997  92.5229988  37.3651450  60.2903482  93.2034510
  39.0100258  60.8508494  93.1137948  38.6550012  59.0814997  91.9899988
  38.9787831  59.1986089  90.9571858  37.8284802  58.3766589  91.9716529
  39.8630012  58.4454997  92.8149988  40.6067312  59.2268971  92.9317409
  40.2982380  57.6917739  92.1641852  39.5850012  57.8124997  94.1709988
  38.8201708  57.0512249  94.0841874  39.2496763  58.5634613  94.8764652
  39.4210012  58.8004997  95.2959988  38.4610012  59.4874997  95.4289988
  40.4920012  58.6354997  96.0889988  40.3580012  59.1194997  97.4109988
  40.6669556  58.2918712  98.0315148  39.3278482  59.3600663  97.6303261
  41.2770012  60.3434997  97.6519988  42.3034671  60.0535416  97.4997291
  41.0720012  60.8064997  99.1179988  41.6937477  61.6784678  99.2693387
  41.4509360  59.9993333  99.7323894  39.7240012  61.0934997  99.4549988
  38.9830012  62.4374997  99.2669988  38.6630012  62.7384997 100.7539988
  38.9630012  61.7944997 101.8859988  40.0121423  61.5361962 101.9474078
  38.4239269  60.8620357 101.7456174  38.4330012  62.3804997 103.2779988
  39.0103033  61.8889035 104.0508535  37.3838582  62.1938947 103.4564776
  38.6270012  63.8144997 103.4879988  37.5280012  64.6644997 102.7669988
  37.4686086  64.3478702 101.7347428  37.8255123  65.7015604 102.8127394
  36.5888813  64.5337283 103.2833995  38.5430012  64.0814997 104.9929988
  39.1937751  63.3865703 105.5012117  37.5223583  63.9703311 105.3128420
  38.8791231  65.0945251 105.1606248  40.0790012  64.1814997 102.9929988
  40.8006997  63.5955504 103.5424500  40.2580336  65.2319391 103.1667062
  40.1640848  63.9703435 101.9367749  39.8770012  63.4974997  98.6819988
  37.6370012  62.2304997  98.6189988  40.9820012  61.3894997  96.7069988
  41.9050012  62.2334997  96.3789988  43.1280012  62.1204997  96.6669988
  41.2870012  63.4234997  95.7009988  40.5882865  63.0114617  94.9801828
  40.6806477  63.9371618  96.4428840  42.2740012  64.3694997  95.0549988
  41.7464183  65.2913951  94.8363071  43.0295921  64.6236146  95.7915726
  42.9450012  63.8604997  93.7759988  43.6977420  64.5795241  93.4628868
  43.4815809  62.9472523  94.0212057  41.9500012  63.5564997  92.5759988
  41.4416848  62.6322919  92.8446259  41.1907995  64.3347813  92.5856227
  42.5000012  63.4094997  91.1289988  42.8402806  64.3606124  90.7246530
  43.3612511  62.7446326  91.1048861  41.4260012  62.8404997  90.2339988
  41.0441387  61.9309755  90.6951363  40.5910238  63.5339412  90.1863586
  41.8910012  62.5264997  88.7929988  41.0043902  62.3531878  88.1942801
  42.3532186  63.4317968  88.4016700  42.8610012  61.3984997  88.6579988
  43.8920906  61.6586125  88.8444117  42.5950012  60.0964997  88.3439988
  43.4697101  59.4620780  88.3421389  41.3430012  59.3944997  88.0119988
  41.2339364  58.5689140  88.7132363  40.4883829  60.0426225  88.1708867
  41.2940012  58.8374997  86.6199988  42.1638531  58.2088797  86.4331847
  40.4246287  58.1913521  86.5144338  41.2290012  59.9374997  85.5729988
  40.2248144  60.3592276  85.6161429  41.9042020  60.7281264  85.8884622
  41.5600012  59.5254997  84.0729988  40.9436950  58.6558856  83.8560123
  41.1876821  60.3281644  83.4388120  43.0340012  59.2314997  83.7099988
  43.3330250  58.2849175  84.1562688  43.1343297  59.0982061  82.6363172
  44.0130012  60.3174997  84.2009988  44.0164668  60.3301863  85.2894426
  45.0232086  60.0469540  83.8991378  43.7070012  61.7924997  83.6779988
  42.7335355  62.1054949  84.0472054  44.4295725  62.4538013  84.1511624
  43.7690012  62.0034997  82.1449988  43.6343137  63.0514178  81.8944076
  42.9975394  61.4437082  81.6270979  44.7291560  61.6887488  81.7460307
  23.6420012  92.2364997  80.7449988  23.2889335  92.8752959  79.9414370
  22.7855888  91.9717936  81.3584143  24.0212837  91.3218361  80.2976205
  24.7460012  92.9474997  81.5919988  24.3092586  93.8733809  81.9624078
  25.5282571  93.2363948  80.8952713  25.3730012  92.1364997  82.8159988
  24.5646054  91.7606679  83.4430360  25.9351310  92.8330922  83.4348201
  26.2810012  90.9934997  82.4369988  27.1566970  91.4286926  81.9605390
  25.7767826  90.4116142  81.6670124  26.7580012  90.0354997  83.5829988
  27.5008711  89.3629432  83.1618277  25.9033313  89.4169221  83.8518225
  27.3490012  90.6984997  84.8839988  26.5530069  91.1881798  85.4420520
  28.0549068  91.4802401  84.6116825  28.0160012  89.7264997  85.7469988
  28.7447364  89.1748774  85.1558746  27.2822476  88.9958034  86.0845172
  28.7320012  90.3574997  86.9959988  28.0230849  90.9127499  87.6088495
  29.4921901  91.0726766  86.6872615  29.4090012  89.2214997  87.8769988
  30.4249867  89.0032825  87.5549808  28.8643355  88.2797400  87.8221809
  29.4300012  89.6964997  89.2919988  28.3912789  89.8488781  89.5768424
  29.8915154  90.6835757  89.2812947  30.1430012  88.8134997  90.3429988
  31.2195342  88.8296630  90.1869336  29.8404976  87.7714464  90.2549956
  29.8440012  89.3224997  91.8149988  28.8030664  89.1465626  92.0752294
  29.9944736  90.3988216  91.8746572  30.7820012  88.6294997  92.8529988
  31.7729904  88.5906000  92.4039117  30.4585104  87.5985466  92.9659743
  30.9210012  89.2864997  94.2849988  31.4372281  88.6187169  94.9668499
  29.9330521  89.4605957  94.7030170  31.6740012  90.6334997  94.2259988
  31.1947678  91.3051634  93.5251105  32.6999569  90.4790002  93.9135668
  31.3460012  91.5234997  95.4279988  31.1540012  92.7264997  95.2549988
  31.1910012  90.8024997  96.4799988  30.3950012  91.2284997  97.6219988
  30.7692715  92.2153416  97.8489939  30.5680717  90.5815075  98.4697250
  28.8890012  91.2934997  97.2729988  28.8639793  91.8976786  96.3812389
  27.9590012  91.9074997  98.3519988  26.9398443  91.9880161  97.9989586
  28.3130570  92.8956258  98.6181497  28.0290012  91.0424997  99.4669988
  28.1710012  91.6894997 100.8769988  28.1740012  90.4834997 101.8939988
  27.0020012  89.8854997 102.4909988  26.1383923  90.5367060 102.5270417
  27.1959106  89.5742078 103.5133947  26.6810012  88.5754997 101.7199988
  26.6523966  88.8084368 100.6630356  25.7127536  88.2010331 102.0194124
  27.6500012  87.3964997 101.8609988  29.0630012  87.7844997 101.3839988
  28.9864785  88.2224946 100.3982814  29.6576301  86.8843390 101.3368064
  29.4978078  88.4691689 102.0966615  27.7710012  87.0424997 103.2769988
  26.7794616  86.9396398 103.6904999  28.3309017  87.8081137 103.7836708
  28.2946573  86.0989857 103.3305031  27.2070012  86.2594997 101.0699988
  26.2180905  85.9671181 101.3903901  27.8921995  85.4378716 101.2151900
  27.1871817  86.5330159 100.0249002  29.4940012  92.3054997 100.9589988
  27.0400012  92.5814997 101.1809988  28.3880012  89.9244997  96.9579988
  27.3380012  89.7264997  96.1549988  26.8530012  90.5004997  95.3529988
  26.9210012  88.2724997  96.3209988  27.7812717  87.6635449  96.0628096
  26.7247691  88.0793648  97.3727111  25.6760012  87.9264997  95.4439988
  25.2309493  86.9870067  95.7527751  24.8949561  88.6741417  95.5390412
  26.1220012  87.8144997  93.9579988  25.2967458  88.1593386  93.3401851
  26.9258631  88.5331591  93.8187163  26.5970012  86.4614997  93.4799988
  27.4009551  86.1729054  94.1545930  25.7886988  85.7545506  93.6505050
  27.0890012  86.3064997  92.0609988  27.9346320  86.9668135  91.8799047
  27.4588841  85.2935387  91.9144464  26.0370012  86.5734997  91.0619988
  25.1658679  85.9526365  91.2653626  25.6984028  87.6043367  91.1171731
  26.5410012  86.2934997  89.6229988  25.8063762  86.6377591  88.9043948
  27.4433393  86.8761300  89.4422398  26.8640012  84.8174997  89.4149988
  26.2353424  84.0683528  89.8722965  27.8840012  84.3854997  88.6799988
  27.9812394  83.3132178  88.5885309  28.9360012  85.1604997  87.9419988
  28.9663858  86.1789381  88.3255101  29.9299856  84.7520284  88.0863152
  28.6200012  85.2224997  86.4259988  28.5422040  84.2101877  86.0311859
  27.6402084  85.6766876  86.2911711  29.6640012  86.0154997  85.6089988
  29.7964230  87.0140756  86.0254331  30.6384854  85.5369157  85.6519143
  29.2010012  86.1374997  84.0949988  28.8249397  85.1816143  83.7372196
  28.3784256  86.8438501  83.9974103  30.3710012  86.6004997  83.2189988
  31.0758021  85.7791621  83.1038895  30.0139767  86.8276250  82.2182128
  31.1050012  87.7534997  83.7659988  30.4102461  88.4177508  84.2768498
  31.8054007  87.4083064  84.5243629  31.8570012  88.5434997  82.7539988
  32.6317016  87.9324593  82.2975079  31.1723759  88.8030433  81.9494875
  32.4830012  89.8354997  83.3059988  32.9417184  90.4126912  82.5088178
  33.2521543  89.6306908  84.0430183  31.7320099  90.4624322  83.7783426
 113.7710012  76.1244997  85.2869988 114.2038422  76.0227726  84.2966810
 114.4528838  75.6632442  85.9955673 113.7230830  77.1848452  85.5193415
 112.4000012  75.4904997  85.3549988 112.4937015  74.4411802  85.0804958
 111.7781443  75.9511479  84.5921677 111.7300012  75.5924997  86.7009988
 112.3201197  75.0307987  87.4250023 110.7701884  75.0839390  86.6354511
 111.4920012  77.0184997  87.2359988 110.8300932  77.5937072  86.5923653
 112.4076350  77.6011501  87.3245376 110.8240012  76.8824997  88.6489988
 109.9689523  76.2173681  88.5591968 110.4244361  77.8593678  88.9162839
 111.7350012  76.3754997  89.7889988 112.6280596  76.9949535  89.8485024
 112.0782395  75.3677333  89.5650090 111.0280012  76.3774997  91.1439988
 110.2314664  75.6356883  91.1482650 110.5476477  77.3406671  91.3107294
 112.0170012  76.0814997  92.3239988 112.7709091  75.3485494  92.0396437
 111.4992646  75.6659567  93.1865282 112.7140012  77.3954997  92.7339988
 111.9602428  78.1480139  92.9556104 113.2858607  77.7781815  91.8895414
 113.6330012  77.2374997  93.9299988 114.6000101  76.8961490  93.5671317
 113.2422600  76.4365906  94.5571311 113.8070012  78.4964997  94.7749988
 113.8784523  79.3442080  94.0968938 114.7657401  78.4376960  95.2873363
 112.7270012  78.7824997  95.7769988 112.1960926  77.8617449  96.0062713
 111.9958741  79.4505701  95.3255508 113.2520012  79.4314997  97.0769988
 114.0923470  78.8596758  97.4669838 112.4968496  79.4336182  97.8580337
 113.7430012  80.9124997  96.8309988 113.0708280  81.4459789  96.1669745
 114.7189180  80.9073025  96.3528239 113.8550012  81.6884997  98.1789988
 114.4957495  81.1562775  98.8705348 112.8767116  81.8043523  98.6302157
 112.6110012  82.2644997  98.7439988 112.4580012  82.8894997  99.7839988
 111.5410012  82.0154997  97.9399988 110.3020012  82.5794997  98.3029988
 109.9730953  83.1340359  97.4371047 110.3832895  83.2530357  99.1437921
 109.2920012  81.4014997  98.6159988 108.3368910  81.8936075  98.6965497
 109.5820012  80.6184997  99.8949988 108.6511508  80.1901961 100.2412280
 109.9212561  81.3453440 100.6224522 110.5600012  79.6034997  99.7159988
 111.2550012  79.2394997 101.1229988 111.8730012  77.8124997 100.7549988
 111.0820012  76.7864997 100.0769988 111.6920403  76.2412237  99.3686801
 110.3043873  77.2780210  99.4994865 110.3450012  75.8344997 101.0109988
 110.0057510  75.0256093 100.3762904 109.4831768  76.3178557 101.4480373
 111.0770012  75.1784997 102.1559988 112.4430012  74.6534997 101.7169988
 112.3113589  74.0464282 100.8318612 112.8401594  74.0475921 102.5177742
 113.0992962  75.4916980 101.5369505 111.2110012  76.1894997 103.3109988
 110.2400980  76.6189870 103.5049101 111.9268018  76.9435104 103.0362857
 111.5555192  75.6452314 104.1783951 110.2860012  74.0394997 102.7729988
 109.3363672  74.4152175 103.1238741 110.8422236  73.6300962 103.6028514
 110.1239470  73.2700359 102.0319866 112.3600012  80.1764997 101.3429988
 110.2050012  79.1204997 102.1999988 109.2550012  80.4644997  97.4989988
 108.7930012  80.8124997  96.3659988 108.3800012  81.8904997  96.0249988
 108.6770012  79.5344997  95.5749988 109.6704531  79.1034151  95.5059169
 108.0800287  78.8179126  96.1335986 108.0620012  79.8034997  94.1749988
 107.0142056  80.0359612  94.3303923 108.5162409  80.7099108  93.7875479
 108.1800012  78.6624997  93.1239988 109.2152569  78.3468367  93.0227247
 107.6309606  77.7927232  93.4762889 107.6090012  79.0814997  91.7309988
 107.5326974  78.2098731  91.0835802 106.6036312  79.4870506  91.8144356
 108.5320012  80.1484997  91.0209988 108.4412017  81.1339777  91.4732039
 109.5821354  79.8742236  91.1008223 108.1700012  80.2314997  89.5789988
 108.1472782  79.1965587  89.2412388 107.1431397  80.5852862  89.5523798
 109.0090012  81.0734997  88.5899988 109.7811775  80.4960190  88.0951860
 108.3944536  81.5039191  87.8004315 109.6060012  82.1964997  89.4029988
 108.8849179  82.9624551  89.6457027 110.8700012  82.3684997  89.8659988
 111.1011344  83.2658507  90.4218302 112.0350012  81.4314997  89.7019988
 112.3578974  81.1326243  90.6978063 111.7254460  80.5228461  89.1978110
 113.2430012  82.0384997  88.9659988 113.7036206  82.7567182  89.6432704
 113.9653056  81.2342375  88.8399127 112.9860012  82.7134997  87.5919988
 112.2761302  83.5343339  87.6940841 113.8976606  83.1484607  87.1917613
 112.4260012  81.6774997  86.5889988 113.0616531  80.7975653  86.5196656
 111.4387512  81.3179690  86.8738850 112.3360012  82.3784997  85.2019988
 111.4589266  83.0221835  85.2336425 113.1905277  83.0449769  85.1231474
 112.2300012  81.4674997  83.8929988 111.2373380  81.0298638  83.8036811
 112.3785112  82.0645126  82.9950265 113.2760012  80.3204997  83.8999988
 114.2538709  80.7844338  83.7977687 113.2437399  79.9175804  84.9099137
 113.1500012  79.1204997  82.8679988 113.9041764  78.3639316  83.0626615
 113.2789387  79.4518209  81.8431366 112.1766251  78.6436241  82.9405923
 104.4850012  45.4014997  81.7309988 105.4428343  45.0266543  82.0780947
 104.6479260  46.3911269  81.3140055 104.1502349  44.7556500  80.9238917
 103.4680012  45.4404997  82.8559988 103.8824259  46.0640335  83.6463536
 103.4050867  44.4345942  83.2622130 102.1000012  45.9394997  82.5009988
 101.7659804  45.4699180  81.5758760 102.1546362  47.0065127  82.2944338
 101.0010012  45.6984997  83.6429988 101.0521085  44.6490994  83.9247739
 100.0168351  45.8441973  83.2003982 101.1230012  46.5804997  84.9519988
 101.1013235  47.6412712  84.7156372 102.0758713  46.3968930  85.4456505
  99.9650012  46.2604997  85.9379988  99.8192629  45.1823939  85.9735699
  99.0406986  46.6795922  85.5460763 100.1880012  46.7684997  87.3079988
 100.1688193  47.8562784  87.2742413 101.1961062  46.4913105  87.6131551
  99.1800012  46.2734997  88.3689988  98.9008432  45.2407169  88.1643488
  98.2610872  46.8539244  88.3107897  99.7630012  46.3734997  89.8209988
 100.1779505  47.3675954  89.9730897 100.5954779  45.6783217  89.9224237
  98.7190012  46.0814997  90.9199988  98.1499238  45.2065568  90.6135268
  98.0131808  46.9113348  90.9449050  99.3130012  45.8604997  92.3699988
  99.5708832  46.8611048  92.7103327 100.2573258  45.3435380  92.2083519
  98.5110012  45.1334997  93.5229988  98.3287104  44.0881686  93.2857816
  97.5322643  45.5883198  93.6640047  99.2820012  45.2454997  94.8079988
  98.6164123  44.9812577  95.6280107  99.5713165  46.2797196  94.9721932
 100.5440012  44.3444997  94.9059988 101.0413323  44.4756535  95.8614073
 101.2582872  44.6290871  94.1379509 100.1820012  42.8234997  94.7149988
  99.6543432  42.6738610  93.7816037  99.5539907  42.4799660  95.5284214
 101.2500012  41.8324997  95.2479988 101.7750012  40.9144997  94.6599988
 101.5250012  42.1614997  96.5609988 102.5080012  41.4084997  97.2649988
 103.1585186  40.9544014  96.5328213 102.0328125  40.6311740  97.8456472
 103.3100012  42.3644997  98.1729988 104.1600641  41.8753922  98.6191611
 102.3350012  42.9224997  99.3229988 102.9271963  43.5231043 100.0000364
 101.9709294  42.0540442  99.8576219 101.2400012  43.6844997  98.8049988
 100.2520012  44.2594997  99.9509988 101.1630012  44.6814997 101.2479988
 101.8250012  45.9334997 101.3119988 101.4033616  46.6350606 102.0199686
 101.8297855  46.4340314 100.3480267 103.3050012  45.6514997 101.6279988
 103.9163478  46.5441067 101.5860827 103.7361603  44.9044073 100.9773592
 103.4570012  45.1124997 103.0399988 102.7610012  46.0154997 104.0089988
 103.0957184  47.0293774 103.8376798 103.0333533  45.7063865 105.0071838
 101.6940868  45.9155188 103.8770343 102.9500012  43.7144997 103.2019988
 103.3746260  43.1032183 102.4204983 101.8757272  43.7229698 103.1547359
 103.2789529  43.3615566 104.1687040 104.8820012  45.1214997 103.2499988
 105.3564016  44.5111170 102.4960364 105.0987997  44.7211147 104.2289473
 105.2497658  46.1353692 103.1847852  99.6580012  45.5034997  99.3429988
  99.2770012  43.2064997 100.3939988 103.7970012  43.4354997  97.3509988
 104.9180012  43.2944997  96.6269988 105.7210012  42.4124997  96.8199988
 105.1400012  44.3644997  95.5619988 106.2008409  44.4568401  95.3530844
 104.6736595  44.0921608  94.6184607 104.5480012  45.6684997  96.1149988
 103.4988837  45.5407271  96.3580785 105.0357032  45.9665419  97.0376853
 104.6870012  46.7654997  95.0829988 104.8716277  47.7087149  95.5908491
 105.5762978  46.5601782  94.4921862 103.5290012  46.9004997  94.1639988
 103.0117321  45.9436010  94.2025170 102.8535772  47.6290889  94.6057704
 103.7620012  47.2724997  92.6669988 102.8358593  47.4536457  92.1253823
 104.3572552  48.1772915  92.5602031 104.5340012  46.0814997  91.9949988
 105.1805551  46.5075582  91.2293989 105.1903244  45.6365505  92.7376818
 103.6640012  44.9604997  91.3659988 102.7108783  44.9955817  91.8806891
 103.4710475  45.2755182  90.3413631 104.2140012  43.5684997  91.3429988
 105.2840083  43.4317537  91.3870352 103.4700012  42.4784997  91.2849988
 103.9523670  41.5123814  91.2456452 101.9840012  42.4154997  91.2709988
 101.6804030  41.3712711  91.3223389 101.5525964  42.9000964  92.1397547
 101.3850012  43.0284997  89.9939988 100.3470271  43.3034808  90.1775748
 101.9096181  43.9558066  89.7718776 101.4600012  42.1114997  88.7869988
 102.4781299  41.7335856  88.6937155 100.8279814  41.2435388  88.9534288
 101.0640012  42.7774997  87.5109988 100.1847467  43.3776323  87.7343762
 101.8554841  43.4803239  87.2566804 100.7830012  41.8594997  86.2899988
  99.9538016  41.2049683  86.5519278 100.4250532  42.4792478  85.4724350
 101.9460012  40.9794997  85.8119988 102.9034875  41.4884310  85.9073493
 102.0283219  40.0685998  86.4021842 101.7470012  40.5934997  84.3549988
 100.8266336  40.0184522  84.2905083 101.5509475  41.5256625  83.8296908
 102.8880012  39.8314997  83.6139988 102.6451830  39.7004202  82.5637957
 103.0566559  38.8456957  84.0341025 103.8244788  40.3791186  83.6711312
  28.9890012  81.1704997  82.2539988  29.0516178  81.5134398  81.2259422
  27.9708157  81.3324702  82.5958379  29.1701916  80.0991568  82.2565658
  29.9920012  81.8984997  83.1429988  29.8009136  82.9692880  83.0971637
  30.9913060  81.7494372  82.7430185  29.9360012  81.4464997  84.5789988
  30.7108913  81.9989792  85.1102620  30.2542128  80.4058690  84.5792757
  28.6480012  81.5494997  85.3369988  28.8743046  81.3465006  86.3814259
  28.0001044  80.7393460  85.0059598  27.8800012  82.8874997  85.2489988
  27.5845888  83.0064543  84.2096940  28.6171729  83.6636469  85.4478410
  26.6310012  83.1174997  86.1599988  25.7499385  82.6988194  85.6770366
  26.4460838  84.1851717  86.2572561  26.7810012  82.5144997  87.5269988
  27.6035170  82.9621377  88.0818482  26.9907497  81.4467509  87.4806519
  25.4700012  82.7404997  88.2939988  24.6747722  82.3258792  87.6758145
  25.3063534  83.8162811  88.3184486  25.3480012  82.1684997  89.7419988
  25.3710404  81.0808504  89.7474028  24.4065064  82.4544797  90.2093103
  26.5480012  82.7214997  90.6069988  26.6598882  83.7935400  90.4603366
  27.4888944  82.2705808  90.2926407  26.3220012  82.4264997  92.0429988
  26.3174887  81.3481421  92.1867539  25.3340320  82.7749679  92.3389967
  27.3990012  83.0484997  93.0009988  27.8202894  83.9267894  92.5179435
  28.2145774  82.3342613  93.0977922  26.8900012  83.4114997  94.4149988
  26.1780276  84.2285779  94.3114192  27.7165383  83.8008722  95.0027907
  26.1760012  82.2354997  95.2329988  26.7181294  81.2970775  95.1800285
  25.1743571  82.0416135  94.8585534  26.0700012  82.6864997  96.7329988
  25.5609426  83.6390695  96.8072350  27.0574153  82.7850568  97.1681640
  25.0890012  81.7034997  97.4889988  23.9770012  81.9654997  97.8479988
  25.5800012  80.5104997  97.4669988  24.8840012  79.4584997  98.1969988
  24.3537000  78.9396462  97.4127578  24.1717896  79.8268690  98.9210504
  25.8670012  78.5574997  98.8329988  25.2402183  77.7123020  99.0646842
  26.5100012  79.1054997 100.1279988  25.7696901  79.0428355 100.9140100
  26.7230998  80.1494085  99.9345346  27.6860012  78.4254997 100.5029988
  29.0470012  79.0654997 101.0619988  28.5520012  80.4934997 101.3959988
  27.7490012  80.8674997 102.5199988  27.9834068  80.2936756 103.4071115
  26.7004880  80.6847908 102.3031239  27.8480012  82.3984997 102.8009988
  28.9027365  82.6125881 102.9191022  27.3270333  82.7171340 103.6923133
  27.3490012  83.3374997 101.6529988  28.1250012  83.2304997 100.3699988
  29.1779462  83.3332579 100.5937876  27.8106294  84.0353612  99.7223351
  27.9026335  82.2823163  99.9039324  25.8480012  83.0594997 101.2549988
  25.2515440  83.0475336 102.1543372  25.7912526  82.1210789 100.7329680
  25.5301247  83.8659294 100.6100782  27.3820012  84.7824997 102.2219988
  26.7533728  84.8339622 103.0985032  27.0147442  85.4673219 101.4724717
  28.3971589  85.0439129 102.4838250  29.4060012  78.4764997 102.3659988
  30.1320012  79.1324997 100.0339988  26.9300012  78.1314997  97.9339988
  26.7220012  77.1754997  97.0379988  25.7540012  76.4614997  96.8909988
  27.9630012  77.1014997  96.1389988  28.7917221  76.7006786  96.7135569
  27.8064133  76.4061857  95.3180690  28.2550012  78.5084997  95.6199988
  27.2681505  78.9080005  95.4136353  28.6155976  79.0373734  96.4965236
  29.2000012  78.8034997  94.3889988  29.2519035  79.8793533  94.2423731
  30.2033474  78.4860265  94.6620777  28.7990012  78.0954997  93.0449988
  28.7977759  77.0184344  93.2019537  27.7837498  78.3625199  92.7618612
  29.7210012  78.4054997  91.8969988  29.5474344  79.4306757  91.5763905
  30.7428045  78.3737586  92.2702166  29.6110012  77.4644997  90.6819988
  30.4931210  77.5733953  90.0529460  29.5869164  76.4256512  90.9990664
  28.3030012  77.7644997  89.8139988  28.3799645  78.8286717  89.6237501
  28.5216295  77.2675184  88.8697757  26.9030012  77.3874997  90.2459988
  26.7533208  77.1775574  91.2943661  25.8430012  77.3044997  89.4569988
  24.9076198  76.9905686  89.8975881  25.7610012  77.5924997  88.0269988
  26.5666060  78.2929316  87.8134177  25.9884597  76.6896513  87.4712934
  24.4060012  78.2154997  87.4879988  23.6146869  77.5218515  87.7697415
  24.2404428  79.1181862  88.0729830  24.2850012  78.5504997  86.0029988
  25.2485766  78.9710760  85.7153446  24.2014985  77.5997241  85.4838098
  23.1690012  79.4844997  85.5369988  22.2421337  78.9180322  85.4806404
  23.0093583  80.2550846  86.2891942  23.4610012  80.1544997  84.1759988
  22.6718103  80.8633795  83.9325709  24.3783334  80.7351935  84.2198304
  23.5430012  79.1184997  83.0249988  24.2563185  78.3510597  83.3201212
  22.5761373  78.6227663  82.9597550  23.9190012  79.6204997  81.6469988
  24.3368945  78.8082458  81.0574873  23.0033236  79.9144428  81.1386238
  24.8570012  80.7684997  81.6399988  25.0139779  81.1318094  80.6288443
  25.8277614  80.5014315  82.0437811  24.4692415  81.5931898  82.2313275
  30.4630012  70.0564997  83.8989988  30.0209531  69.8283464  82.9341316
  30.6444258  69.1159132  84.4110263  31.4271403  70.5239130  83.7185203
  29.5750012  70.9494997  84.7059988  28.6125462  70.4562603  84.8308922
  29.3840680  71.8490550  84.1270698  30.1450012  71.3254997  86.1099988
  30.0993700  70.4415758  86.7460219  29.4697898  72.0528364  86.5563640
  31.5270012  71.8824997  86.1409988  31.6097593  72.6839639  85.4102073
  32.2460388  71.1229309  85.8381025  31.9110012  72.4214997  87.4909988
  32.9298900  72.1072932  87.7024529  31.2797338  71.9270407  88.2274612
  31.8140012  73.8894997  87.6709988  30.8158501  74.2565788  87.4391274
  32.4947759  74.4207844  87.0092894  32.1520012  74.2294997  89.1179988
  33.1464323  73.8561309  89.3556379  31.4645180  73.7087511  89.7831437
  32.0950012  75.7054997  89.4019988  31.3153328  76.1569533  88.7898241
  33.0306804  76.1663943  89.0909290  31.8320012  76.0394997  90.8929988
  30.8037749  75.7760967  91.1315584  31.9078186  77.1179462  91.0263468
  32.8080012  75.3174997  91.9099988  33.8305370  75.4298608  91.5563118
  32.5997501  74.2478966  91.9068857  32.6870012  75.8494997  93.3409988
  32.7908739  76.9324021  93.3495926  33.4877288  75.4641077  93.9698360
  31.3320012  75.4884997  93.9679988  31.2290060  74.4062203  93.9848054
  30.5415329  75.8589781  93.3179406  31.1210012  76.0534997  95.3559988
  31.5907456  77.0332708  95.4241207  31.6015981  75.4328163  96.1070332
  29.6250012  76.2154997  95.7169988  29.0814285  75.3291858  95.4066418
  29.2248848  77.0469552  95.1428206  29.3540012  76.4794997  97.2239988
  29.9135989  77.3415114  97.5643325  29.6451669  75.6199973  97.8160690
  27.7920012  76.3334997  97.3379988  26.9670012  76.4644997  96.4449988
  27.5190012  76.0934997  98.6179988  26.1670012  75.7624997  99.0789988
  25.6182956  75.5887940  98.1656475  25.6661371  76.5297375  99.6514263
  26.2840012  74.4404997  99.8989988  25.2786457  74.1803832 100.1862161
  27.1780012  74.5854997 101.1699988  27.2367517  73.6334823 101.6799128
  26.7006093  75.3019694 101.8267735  28.4760012  75.0354997 100.8059988
  29.5950012  75.2654997 101.9119988  30.7540012  74.2914997 101.5029988
  30.6580012  73.5594997 100.3029988  31.6104127  73.5998451  99.7906771
  29.9448064  74.0778550  99.6686030  30.1360012  72.1004997 100.3949988
  30.3296381  71.7092725  99.4041935  29.0731947  72.0560624 100.5843260
  30.7690012  71.1214997 101.3539988  29.8500012  71.1294997 102.5409988
  29.6881463  72.1544280 102.8453980  30.3319769  70.5848575 103.3392245
  28.9267981  70.6380876 102.2728061  30.6850012  69.7684997 100.6439988
  31.0704657  69.8825146  99.6424341  29.6614003  69.4390275 100.6362893
  31.2973554  69.0733590 101.1999653  32.1990012  71.4274997 101.6789988
  32.7766872  71.4375966 100.7667165  32.5827072  70.6666672 102.3419872
  32.2606565  72.3920783 102.1619290  30.0480012  76.6664997 101.8359988
  29.0770012  74.8104997 103.2069988  26.7200012  73.4494997  99.0309988
  26.2800012  72.1994997  99.2899988  25.7730012  71.8754997 100.3589988
  26.5280012  71.3174997  98.0949988  26.5048766  70.3011746  98.4746060
  25.6664326  71.4094051  97.4383710  27.8300012  71.6194997  97.3429988
  27.7869191  72.6196611  96.9260071  28.6717810  71.6160148  98.0281466
  28.0790012  70.5994997  96.1949988  27.8127456  69.5942854  96.5117106
  27.4303336  70.8343670  95.3546817  29.5790012  70.6314997  95.6979988
  30.2040868  70.5730513  96.5871319  29.7695705  69.7227600  95.1322448
  30.0390012  71.8494997  94.8579988  30.2688340  72.6752362  95.5282503
  30.9744410  71.5888349  94.3666871  29.0190012  72.3314997  93.7699988
  28.0680297  72.5691214  94.2442246  29.3651144  73.2482142  93.3007887
  28.7970012  71.3004997  92.7029988  29.0596920  70.3442851  93.1402942
  27.7222619  71.2729799  92.5282871  29.5060012  71.5074997  91.3609988
  30.5812200  71.5305813  91.4554741  28.9990012  71.6464997  90.1299988
  29.7350317  71.7858254  89.3512450  27.5300012  71.6384997  89.6199988
  27.5336679  71.3921642  88.5595619  26.9405824  70.8703226  90.1080260
  26.8310012  73.0164997  89.7969988  25.9651677  73.0524589  89.1368894
  26.4408695  73.0657468  90.8118047  27.7410012  74.2644997  89.5339988
  28.5062673  74.3355502  90.3069325  28.2705259  74.1562494  88.5914547
  26.9360012  75.5384997  89.5139988  26.1140847  75.4517762  90.2211602
  27.5511690  76.3662562  89.8625280  26.4030012  75.8594997  88.1439988
  26.1019165  74.9208088  87.6826989  25.4904720  76.4367961  88.2650127
  27.3390012  76.5654997  87.1919988  27.7590977  77.4543485  87.6592778
  28.1843637  75.9246980  86.9479302  26.6690012  76.9694997  85.9209988
  26.1829680  76.1194036  85.4487451  25.8733761  77.6743216  86.1523421
  27.6430012  77.6314997  84.9139988  27.1081624  77.9914549  84.0402433
  28.4016402  76.9377331  84.5677389  28.1518992  78.4797598  85.3630183
  46.5220012  50.3624997  84.4169988  45.7015374  50.2211746  83.7203673
  46.4610717  51.3774199  84.7991172  46.3657123  49.6864292  85.2531295
  47.8850012  50.1014997  83.7389988  48.0283296  50.7740833  82.8950253
  47.9195160  49.0933046  83.3350613  49.0620012  50.3124997  84.7789988
  48.8273649  51.1129870  85.4804935  49.9706746  50.6193781  84.2648887
  49.3550012  49.0304997  85.5569988  48.4233520  48.7037152  86.0136077
  50.0245712  49.2751482  86.3801203  49.9360012  47.8774997  84.7629988
  50.8282681  48.2203297  84.2454079  49.2197426  47.6052492  83.9895530
  50.2890012  46.6264997  85.5919988  50.8566906  45.9401256  84.9663500
  49.3691819  46.1084297  85.8548924  51.0970012  46.9284997  86.8889988
  50.4664719  47.3998020  87.6407148  51.9076197  47.6280968  86.6897718
  51.6870012  45.6104997  87.4669988  52.3510185  45.9203057  88.2729468
  52.3270369  45.2108033  86.6826002  50.7750012  44.5214997  87.9659988
  51.4779782  43.7848376  88.3490044  50.3755616  44.1076232  87.0409413
  49.6120012  44.7084997  88.9909988  49.3093815  43.7263077  89.3473963
  48.7504733  45.1219623  88.4673123  49.9510012  45.5864997  90.1439988
  50.0837920  46.6013297  89.7751797  50.9145518  45.2842341  90.5506113
  48.9150012  45.6144997  91.2689988  49.0070635  44.7682846  91.9455071
  47.8961663  45.5887359  90.8869231  49.1220012  46.9544997  92.0509988
  49.2383242  47.7881211  91.3604944  50.0185959  46.9401176  92.6643380
  47.9150012  47.2444997  92.9399988  47.0518386  47.5213555  92.3436380
  48.1325801  48.0885361  93.5891165  47.5440012  45.9904997  93.8469988
  48.4019439  45.6754369  94.4272666  47.2181549  45.1615779  93.2299235
  48.6150012  45.7534997  94.8879988  49.2320012  44.7254997  95.0369988
  48.6120012  46.8594997  95.7169988  49.6390012  46.8524997  96.6689988
  50.5367131  46.8393280  96.0694974  49.6390192  45.9932500  97.3238896
  49.5520012  48.2204997  97.5129988  50.3727587  48.2831518  98.2082151
  48.1790012  48.2514997  98.2979988  48.1514343  47.4386901  99.0110077
  47.3840835  48.1075648  97.5769068  48.0270012  49.4964997  98.9589988
  47.0330012  49.5664997 100.2189988  46.8840012  48.1204997 100.7149988
  46.1200012  47.7944997 101.8579988  45.0546926  47.8440764 101.6740185
  46.3278532  48.5008330 102.6565523  46.5200012  46.4194997 102.4209988
  46.0595562  45.6426706 101.8236915  46.0197399  46.4644984 103.3776025
  47.9280012  45.9374997 102.7099988  48.5840012  46.7574997 103.7799988
  48.4897038  47.8029722 103.5203276  49.6281552  46.4844614 103.8159481
  48.1180788  46.5340179 104.7279910  47.7720012  44.4444997 102.9909988
  47.1916980  44.0046367 102.1944545  47.2923984  44.3150039 103.9447189
  48.7627576  44.0139562 103.0091937  48.8170012  46.2184997 101.5389988
  48.4190859  45.7260665 100.6642102  49.8073237  45.8422186 101.7471426
  48.8638487  47.2845516 101.3693707  47.8160012  50.3414997 101.1889988
  45.6990012  50.0714997  99.7999988  49.7610012  49.2924997  96.5759988
  51.0090012  49.5774997  96.1779988  52.0360012  48.9774997  96.5329988
  50.9230012  50.9934997  95.5439988  49.8801826  51.2859999  95.6112747
  51.4665172  51.6795173  96.1888840  51.4430012  51.0584997  94.1099988
  51.6593359  52.0909353  93.8583306  52.3870543  50.5278559  94.0377922
  50.4460012  50.4904997  93.0889988  50.9848939  50.2479421  92.1766313
  50.0752777  49.5470184  93.4820282  49.2480012  51.3904997  92.7679988
  48.6301592  51.3569560  93.6634607  49.6390299  52.4031665  92.7063195
  48.3460012  51.1304997  91.5469988  48.9279615  50.9759747  90.6407178
  47.7569019  50.2261370  91.6865385  47.3980012  52.3014997  91.3439988
  47.0464185  52.6210127  92.3237957  47.9525547  53.1386408  90.9292903
  46.2000012  52.0184997  90.4469988  45.7248630  51.0964647  90.7611251
  45.4623127  52.8072953  90.5882896  46.5830012  51.9654997  88.9619988
  46.4892852  52.8615561  88.3671423  47.0510012  50.8574997  88.3389988
  47.3220788  50.9347749  87.2958519  47.2520012  49.5084997  88.9169988
  48.3016409  49.2327816  88.8306446  47.0137486  49.4689451  89.9740476
  46.4020012  48.4424997  88.1529988  45.3600400  48.5558258  88.4499486
  46.4427777  48.6822589  87.0921916  46.8290012  47.0124997  88.3539988
  47.7475406  46.8440459  87.7918461  47.0814593  46.8628859  89.4001271
  45.7580012  45.9564997  87.9199988  46.2517974  44.9896785  87.9875789
  44.9915513  45.9613704  88.6930550  45.0860012  46.1104997  86.5349988
  44.2986495  45.3599562  86.4982325  44.5794884  47.0717444  86.5438575
  45.9180012  45.9744997  85.2769988  46.7720356  46.6487976  85.3058158
  46.3292984  44.9697758  85.1982677  45.1080012  46.2684997  84.0099988
  44.2773767  45.5705350  83.9405480  44.6589256  47.2516864  84.1324242
  45.9010012  46.2494997  82.6989988  45.2747439  46.5525212  81.8653029
  46.2872581  45.2613314  82.4730117  46.7453651  46.9315654  82.7434605
  23.9590012  93.5684997  83.2149988  23.1746035  93.7754620  82.4936694
  23.5163635  93.0098834  84.0346388  24.6887382  92.9232468  82.7336001
  24.6270012  94.8924997  83.7259988  23.8274715  95.5015476  84.1443478
  24.9779415  95.4158161  82.8406769  25.7840012  94.7714997  84.7739988
  26.7160025  94.4721779  84.2947191  25.5551955  93.9935584  85.4996890
  26.0010012  96.0774997  85.5199988  25.7516323  96.8972534  84.8498727
  27.0607197  96.1848090  85.7462448  25.1830012  96.2354997  86.8179988
  25.6264354  95.6838742  87.6430129  24.1761284  95.8407027  86.6926686
  25.0980012  97.7684997  87.2119988  24.3536125  97.9058449  87.9942001
  24.7533438  98.3489401  86.3588415  26.5150012  98.3534997  87.7159988
  27.2850898  98.1061513  86.9876086  26.8003774  97.8553206  88.6415300
  26.5000012  99.8934997  87.9449988  25.8345310 100.1323526  88.7735818
  26.0851377 100.3893340  87.0693729  27.9210012 100.4744997  88.2409988
  27.8372782 101.5591300  88.2305822  28.5619355 100.2114542  87.4004113
  28.6070012 100.0184997  89.5779988  29.5235790 100.5900333  89.7065808
  28.9086963  98.9761628  89.4782840  27.7190012 100.1684997  90.8139988
  27.0698586  99.2974752  90.8729162  27.0626388 101.0256252  90.6738119
  28.4670012 100.3124997  92.1649988  29.0468722 101.2317166  92.1332374
  29.1883809  99.5002361  92.2321485  27.5880012 100.2884997  93.4129988
  27.0069941  99.3724697  93.3204146  26.8848062 101.1080765  93.2943205
  28.1870012 100.3354997  94.8559988  27.4364854 100.6953833  95.5520985
  28.9997245 101.0568883  94.8690826  28.7330012  98.9644997  95.3549988
  29.4605840  98.5697240  94.6572765  27.9244377  98.2502259  95.4555330
  27.6550012  98.0744997  95.9599988  26.4700012  98.4054997  95.9119988
  28.1410012  97.0834997  96.6289988  27.2750012  96.2924997  97.4469988
  26.9930926  95.4879701  96.7846380  26.3829125  96.7283263  97.8729388
  28.2590012  95.7464997  98.6019988  27.6502947  95.0082666  99.0973597
  28.7100012  96.7984997  99.6009988  27.8482452  97.3429164  99.9626451
  29.3612396  97.4875818  99.0778933  29.3830012  96.2034997 100.6529988
  28.6050012  96.0894997 101.9889988  28.1820012  97.6144997 102.3079988
  29.1180012  98.6304997 102.0269988  30.0958028  98.1968085 101.8626674
  29.2040793  99.2590954 102.9086194  28.7280012  99.6164997 100.8499988
  28.7990059  99.0764033  99.9143155  29.4226753 100.4437115 100.8270754
  27.3330012 100.2404997 100.8649988  26.9060012 100.4164997 102.3119988
  27.0401621  99.4759256 102.8283855  25.8614123 100.6901168 102.3202294
  27.4913617 101.2074116 102.7564404  27.5100012 101.5774997 100.1629988
  28.0301096 101.4097611  99.2323726  28.0590635 102.2417468 100.8061755
  26.5237194 101.9741841  99.9701600  26.3060012  99.3994997 100.1839988
  26.6049225  99.2330260  99.1597847  25.3564244  99.9128333 100.2050370
  26.2165256  98.4531040 100.6975787  27.3550012  95.3264997 101.7539988
  29.4330012  95.5464997 103.0779988  29.3580012  95.0124997  97.9649988
  28.9690012  93.9314997  97.2149988  27.8970012  93.3674997  97.1549988
  30.1400012  93.3724997  96.5029988  30.9296995  93.2801027  97.2415055
  29.8986622  92.3575773  96.1970655  30.5610012  94.1974997  95.3379988
  30.6575313  95.2219981  95.6802646  31.5575641  93.8843920  95.0432804
  29.6170012  94.1594997  94.1169988  29.5623504  93.1399048  93.7440462
  28.6162407  94.4110737  94.4594223  30.0060012  95.1314997  92.9609988
  30.0166343  96.1349341  93.3825580  31.0288912  94.9169355  92.6612319
  29.0980012  95.1424997  91.6869988  29.2534687  94.2102084  91.1479590
  28.0627018  95.1295203  92.0222116  29.2960012  96.3754997  90.6839988
  28.4526517  96.3055811  89.9987440  29.1315754  97.2671481  91.2825347
  30.5690012  96.5534997  89.8919988  30.6760436  95.6044387  89.3797438
  30.2876726  97.2818912  89.1326267  31.8550012  96.9794997  90.5059988
  32.2017731  96.4920197  91.4047014  32.6120012  97.9154997  90.0089988
  33.5221402  98.1674968  90.5341220  32.3750012  98.7494997  88.7069988
  31.3180775  98.6804704  88.4552682  32.5781404  99.8006797  88.8785677
  33.2070012  98.2524997  87.4729988  33.2267843  99.0608297  86.7429877
  34.2331954  98.1252514  87.8123987  32.7410012  96.9714997  86.7989988
  33.0877359  96.0820387  87.3250608  31.6583348  96.8934970  86.7515324
  33.3170012  96.9734997  85.3739988  34.3858200  97.1292161  85.5025435
  33.1996954  95.9545471  85.0092247  32.7810012  97.9274997  84.3529988
  32.8304659  98.9280289  84.7785391  33.4586721  97.9324228  83.5036679
  31.3310012  97.6864997  83.8719988  31.3103724  96.8756637  83.1460494
  30.7152451  97.3590482  84.7077344  30.6750012  98.9264997  83.2389988
  31.3117319  99.3380167  82.4598052  29.7612769  98.6123148  82.7392901
  30.3260012 100.0394997  84.2619988  29.7882412 100.8507057  83.7805135
  31.2139867 100.4638734  84.7182111  29.6975675  99.6535878  85.0596730
 113.3010012  68.7034997  80.5779988 113.6610162  69.5783914  81.1103357
 113.3062202  68.9358742  79.5169781 114.0140133  67.9002109  80.7421722
 111.8990012  68.3014997  81.0509988 111.1881121  69.1108754  80.8936750
 111.8974039  68.0970605  82.1182457 111.4300012  67.0564997  80.2719988
 112.1448459  66.2350211  80.3178124 111.2828365  67.2690115  79.2149499
 110.0240012  66.5734997  80.8969988 109.4739916  65.9631288  80.1841265
 109.3775170  67.4172452  81.1333409 110.2690012  65.7344997  82.1859988
 111.0978577  66.1653897  82.7417898 110.5856263  64.7355258  81.8907620
 108.9800012  65.6194997  83.1679988 108.5497648  64.6368816  82.9831329
 108.2561610  66.3428357  82.7986514 109.1560012  65.8054997  84.6009988
 109.6732892  66.7435521  84.7939769 109.7926486  65.0186487  85.0032121
 107.8260012  65.8034997  85.3419988 107.3915611  64.8046949  85.3319050
 107.1117415  66.4506978  84.8363786 107.9890012  66.2664997  86.7859988
 108.5615288  67.1915592  86.7817498 108.6010027  65.5331689  87.3096943
 106.7040012  66.4774997  87.5479988 106.1988724  65.5145244  87.5766794
 106.0794949  67.1317748  86.9402612 106.8110012  67.0544997  88.9599988
 105.8011714  67.1126077  89.3605087 107.1617243  68.0815336  88.8744272
 107.6710012  66.3174997  89.9489988 108.6443271  66.1110400  89.5105583
 107.2236958  65.3491897  90.1657102 107.8440012  67.1164997  91.3179988
 106.8860546  67.5376085  91.6184281 108.5218959  67.9570602  91.1988738
 108.3540012  66.2144997  92.4739988 109.3655831  65.9027729  92.2355173
 107.7396018  65.3180661  92.4704974 108.3310012  66.8174997  93.8869988
 107.3363761  67.1664651  94.1339502 109.0186268  67.6523485  93.9523244
 108.9430012  65.9314997  94.9809988 109.5430012  64.8674997  94.8759988
 108.6740012  66.5104997  96.1819988 109.1330012  65.7634997  97.4099988
 109.0226201  64.7055081  97.2257928 108.4551759  66.0573446  98.1982881
 110.6080012  66.0944997  97.7899988 111.2938749  65.6533881  97.0858029
 110.9550012  65.6634997  99.1719988 110.7241518  64.6175029  99.3216663
 110.3833798  66.2497843  99.8805920 112.3650012  65.8984997  99.3479988
 113.1100012  65.4794997 100.6899988 112.9660012  66.7874997 101.6639988
 113.2370012  68.0194997 101.0929988 112.7440098  68.1588798 100.1397298
 114.3023461  68.1194565 100.9063286 112.8740012  69.2084997 102.1089988
 113.2525524  70.0996995 101.6245291 113.2989155  69.1450260 103.1003594
 111.3960012  69.4444997 102.3059988 110.8540012  68.3764997 103.1879988
 111.1551711  67.4161997 102.7924554 109.7768063  68.4518191 103.1791553
 111.2199582  68.5316856 104.1918463 111.2220012  70.8064997 103.0379988
 111.8034895  71.5520098 102.5176144 111.5425223  70.6998369 104.0589097
 110.1728695  71.0618293 103.0002286 110.5860012  69.5894997 101.0219988
 110.9797502  70.4124109 100.4441919 109.5543819  69.7847761 101.2735517
 110.6514398  68.6757104 100.4491620 112.3220012  64.4524997 101.3809988
 114.5130012  65.1694997 100.3429988 110.7290012  67.5724997  97.7549988
 111.6260012  68.1014997  96.8269988 112.3660012  67.3754997  96.1579988
 111.7040012  69.6204997  96.8629988 110.6871480  69.9993861  96.8657608
 112.1420775  69.9375110  97.8061318 112.5260012  70.1624997  95.6509988
 113.2139002  70.9106685  96.0292835 113.1417819  69.3543561  95.2692252
 111.6990012  70.7714997  94.5099988 111.1785605  70.0235218  93.9172723
 110.9340820  71.4468360  94.8853447 112.6570012  71.5644997  93.6269988
 112.8823829  72.5644305  93.9931235 113.6145916  71.0967186  93.4115842
 111.8820012  71.6934997  92.3479988 111.6854460  70.7001488  91.9498516
 110.9100774  72.1242760  92.5807584 112.5620012  72.5634997  91.2519988
 112.3317957  73.6144679  91.4198448 113.6436778  72.4749013  91.3014364
 112.0910012  72.1534997  89.8159988 111.9746616  71.0770588  89.7678306
 111.1038629  72.5770594  89.6357178 113.0440012  72.6544997  88.7289988
 113.2412909  73.7147806  88.7783453 113.6690012  71.9514997  87.7409988
 114.3564768  72.4298919  87.0582630 113.4790012  70.4194997  87.4859988
 112.4242376  70.1669524  87.5804165 113.7733454  70.1244245  86.4850127
 114.2760012  69.5804997  88.5279988 115.3412358  69.7585709  88.3856233
 114.0366196  69.9525252  89.5223591 113.9970012  68.0714997  88.4729988
 114.7012444  67.6546572  87.7530052 114.2756198  67.6642621  89.4410035
 112.6050012  67.6214997  88.1219988 111.9204097  68.0169519  88.8690577
 112.3173610  68.0753005  87.1752079 112.4470012  66.0954997  88.0209988
 112.7469583  65.6890749  88.9850707 111.3835442  65.8916157  87.9309121
 113.2370012  65.3264997  86.9069988 114.2949447  65.5515146  87.0295009
 113.1309714  64.2604008  87.0994171 112.8510012  65.5954997  85.4659988
 111.8280258  65.9567658  85.3958333 113.4753163  66.3974945  85.0782516
 113.0230012  64.3374997  84.5509988 112.8235282  64.5857729  83.5129044
 112.3454453  63.5375634  84.8298552 114.0353468  63.9477519  84.6092560
  85.7470012  36.3634997  82.0959988  85.8666703  37.3270877  81.6106058
  84.7431654  36.0075781  81.8828706  86.4461053  35.6717497  81.6341033
  85.9850012  36.4644997  83.5749988  85.2882201  37.1849310  84.0000608
  86.9803586  36.8665971  83.7435075  85.8290012  35.1284997  84.2979988
  86.4730955  34.3771156  83.8413878  84.8100727  34.7670490  84.1742682
  86.1320012  35.2124997  85.7789988  85.5271594  34.4521478  86.2681628
  85.7591664  36.1708109  86.1372442  87.6090012  35.0354997  86.2259988
  88.2314173  35.9083144  86.0460943  88.1055538  34.1998323  85.7356310
  87.5460012  34.7664997  87.7659988  87.0889184  33.7963415  87.9522392
  86.9025252  35.5025313  88.2432545  88.9090012  34.8064997  88.4089988
  89.4357756  35.7273459  88.1654400  89.5393320  33.9923673  88.0538911
  88.7510012  34.6974997  89.9599988  88.3917360  33.7143214  90.2612297
  88.0295230  35.4157780  90.3450046  90.1460012  34.9624997  90.6209988
  90.5983676  35.7994559  90.0933532  90.7723953  34.0965784  90.4103146
  90.1620012  35.2404997  92.1109988  91.1742290  35.4613449  92.4425425
  89.8440263  34.3591768  92.6674079  89.2030012  36.4484997  92.4589988
  89.1931284  36.5105068  93.5450921  88.2025673  36.1356725  92.1650613
  89.4790012  37.8404997  91.9009988  88.7737914  38.0461564  91.0993732
  90.4669308  37.8407145  91.4442001  89.4230012  38.9904997  92.9829988
  89.6562820  39.9403627  92.5048856  90.1837558  38.8377108  93.7433815
  88.0310012  39.1294997  93.6759988  87.6094801  38.1772927  93.9809035
  87.3011277  39.6022397  93.0241602  88.2230012  40.0024997  94.8969988
  88.6742264  40.9469302  94.6204346  88.8642867  39.5083947  95.6171946
  88.7910012  39.1904997  96.0529988  89.0680012  38.0384997  96.0979988
  88.7820012  40.0564997  97.0639988  89.0430012  39.6434997  98.3889988
  89.8760656  40.2563322  98.6986792  89.3107801  38.6024885  98.4975443
  87.7810012  39.9844997  99.2309988  87.5382441  41.0229750  99.0775972
  87.9650012  39.7104997 100.7159988  87.0041498  39.8404050 101.1952589
  88.6394597  40.4766272 101.0775776  88.4950012  38.4024997 100.9969988
  87.6890012  37.3994997 101.8459988  86.1620012  37.5004997 101.3709988
  85.2550012  36.8074997 102.2929988  84.2160933  37.0642063 102.1318744
  85.4843202  37.0809920 103.3188700  85.4760012  35.2034997 102.2209988
  84.9360540  34.6788261 102.9990886  86.5341498  35.0323145 102.3566233
  85.1090012  34.5184997 100.9359988  85.3710012  33.0124997 101.2229988
  86.3694592  32.9061503 101.6243780  85.2959210  32.4771729 100.2881789
  84.6200589  32.6506630 101.9092034  83.5840012  34.7374997 100.7809988
  83.3726202  35.7867281 100.9193888  83.0671899  34.1333824 101.5050971
  83.3141516  34.4339018  99.7798461  85.8940012  34.7884997  99.7409988
  85.8652840  35.8468045  99.5282825  85.4751058  34.2408246  98.9101987
  86.9154267  34.4751462  99.9020404  88.2420012  36.0734997 101.4839988
  87.7570012  37.8034997 103.2869988  86.7410012  39.2454997  98.6209988
  85.4590012  39.4344997  99.0149988  84.9840012  40.3524997  99.7159988
  84.8120012  38.3014997  98.2319988  85.5676346  37.5508580  98.0243735
  84.0575642  37.8046872  98.8369031  84.1840012  38.8874997  96.9099988
  83.2929258  39.4603006  97.1422590  84.8689769  39.5794087  96.4303081
  83.8070012  37.7304997  95.9119988  83.0951164  37.0884786  96.4245249
  83.2601121  38.2006675  95.0984144  84.9960012  36.8464997  95.2869988
  85.7823570  37.4738399  94.8713130  85.4774886  36.1979529  96.0148442
  84.4120012  35.9694997  94.1409988  85.1985031  35.2673470  93.8721171
  83.6247974  35.3790636  94.6058391  83.8690012  36.5984997  92.9069988
  82.8090113  36.7989634  93.0551098  84.3435831  37.5622863  92.7451184
  84.0490012  35.7574997  91.6669988  85.0730030  35.8114266  91.3161540
  83.8594962  34.7106288  91.9004410  83.0790012  36.1964997  90.5899988
  82.0489780  35.9060806  90.7323473  83.3620012  36.9054997  89.5069988
  82.5856949  37.1370675  88.7919219  84.7470012  37.4704997  89.1359988
  85.2996911  37.6532568  90.0559741  85.3297328  36.7529225  88.5692645
  84.6650012  38.7704997  88.3669988  83.9801771  38.7143688  87.5216761
  84.3106137  39.5890980  88.9905092  86.1170012  39.1054997  87.8469988
  86.8373055  39.1450480  88.6641307  86.4869831  38.3567368  87.1520372
  86.0680012  40.5044997  87.1319988  85.1094267  40.6178624  86.6305719
  86.1194279  41.2998768  87.8734943  87.1790012  40.6744997  86.1509988
  87.2060990  41.7329951  85.8991196  88.1036108  40.4727389  86.6848663
  87.1440012  39.8534997  84.7989988  86.8890906  38.8330527  85.0793407
  86.2887588  40.2369994  84.2455348  88.3530012  39.8124997  83.8579988
  88.0791378  39.4416970  82.8734079  88.7201962  40.8244262  83.7015203
  89.5150012  38.9404997  84.4379988  90.3927032  38.9949869  83.8010221
  89.2362731  37.8952453  84.5185901  89.8030779  39.2824241  85.4280697
  93.5980012  41.3304997  82.6609988  93.1048758  41.0808869  81.7266809
  94.5951414  41.6898813  82.4236252  93.0511722  42.1530467  83.1137751
  93.6520012  40.1544997  83.5759988  94.1812725  39.3408156  83.0830555
  92.6406722  39.7981905  83.7522697  94.3400012  40.4684997  84.9089988
  95.3784592  40.7725211  84.7782132  94.3609266  39.5985983  85.5624548
  93.5580012  41.6074997  85.6279988  92.4980851  41.3629311  85.6317611
  93.6515408  42.5341948  85.0639133  94.0050012  41.8414997  87.0529988
  95.0542027  42.1254797  87.0632236  93.9374585  40.9019370  87.5989154
  93.1680012  42.9464997  87.8119988  92.1051332  42.8192744  87.6146606
  93.4285888  43.9377072  87.4470623  93.4150012  42.8834997  89.3339988
  93.0361607  43.8198920  89.7394852  94.4959087  42.9104574  89.4649265
  92.8100012  41.6584997  90.1759988  93.4459831  40.7803180  90.0721964
  91.8350738  41.3758195  89.7831978  92.6740012  42.0084997  91.6519988
  91.9622689  42.8272148  91.7337529  93.6315436  42.4039794  91.9885775
  92.2640012  40.9204997  92.5369988  92.6306061  41.2172901  93.5172106
  92.8706800  40.0692830  92.2291026  90.7570012  40.4724997  92.6379988
  90.5129893  39.9655568  91.7068660  90.1460756  41.3732658  92.6607669
  90.3450012  39.5334997  93.8379988  89.2604929  39.5248023  93.9153629
  90.7119513  39.9796067  94.7604987  90.8750012  38.1094997  93.7419988
  91.9530454  38.1341367  93.5921133  90.4594614  37.5971965  92.8787803
  90.5960012  37.2934997  94.9799988  89.5213722  37.2821050  95.1296240
  91.0239022  37.8427527  95.8144529  91.1320012  35.8384997  95.0199988
  92.1993337  35.8227433  94.8394610  90.6426205  35.2350971  94.2646969
  92.6520012  35.8454997  95.2899988  93.5210012  36.4474997  94.6819988
  92.8510012  35.1524997  96.3859988  94.2050012  35.1404997  96.9099988
  94.8083287  35.1989040  96.0166641  94.4054047  34.2045091  97.4109500
  94.5080012  36.3544997  97.8489988  95.5352995  36.2212551  98.1453061
  93.5680012  36.2744997  99.1179988  93.5615041  35.2911807  99.5683794
  92.5519456  36.5435168  98.8575263  94.1020012  37.2004997  99.9889988
  93.3710012  38.4634997 100.5659988  94.5560012  38.9124997 101.5279988
  95.5480012  39.8494997 101.1829988  96.0588105  39.5866256 100.2658510
  96.3066602  39.8820689 101.9596407  94.9870012  41.2684997 101.1109988
  94.1365070  41.3210900 100.4430595  95.7558439  41.9348821 100.7474163
  94.5340012  41.8324997 102.3739988  93.1940012  41.3954997 102.8469988
  92.4829366  41.5320316 102.0438299  92.9181431  42.0163357 103.6863824
  93.2526993  40.3646062 103.1624828  95.5620012  41.6484997 103.3909988
  96.5035506  41.9948079 102.9931680  95.6074964  40.6083428 103.6600229
  95.2797644  42.2441124 104.2470857  94.4130012  43.3524997 102.1919988
  95.3713594  43.7526067 101.8961173  94.1075380  43.7984354 103.1266022
  93.6761881  43.5671412 101.4314263  93.1080012  39.5254997  99.5939988
  92.2700012  37.9774997 101.4049988  94.3760012  37.6234997  97.2389988
  95.5140012  38.3934997  97.3209988  96.4910012  38.2514997  98.0139988
  95.4320012  39.5184997  96.3299988  95.1367745  39.0179238  95.4135829
  94.5699753  40.1038406  96.6401510  96.6440012  40.3994997  96.1279988
  96.3206793  41.4104571  95.9055376  97.2159966  40.4630056  97.0482277
  97.5460012  39.8954997  94.9849988  98.5964114  40.0683343  95.2050453
  97.4339730  38.8205613  94.8665833  97.1740012  40.5624997  93.6879988
  96.1227129  40.3863014  93.4678780  97.2966314  41.6415336  93.7413802
  98.0240012  40.0164997  92.4959988  97.7715305  40.5767123  91.5980448
  99.0708495  40.2307706  92.7023421  97.8730012  38.4804997  92.2109988
  98.4854996  37.9245981  92.9191797  96.8470022  38.1656362  92.3798336
  98.2820012  38.0894997  90.7579988  97.8010090  38.7325643  90.0301976
  99.3546683  38.2178721  90.6192483  97.9350012  36.6424997  90.5179988
  98.7554758  36.0441158  90.1515125  96.7350012  36.0044997  90.7159988
  96.7353950  34.9544782  90.4609206  95.3880012  36.5204997  91.2419988
  95.3127601  36.1492302  92.2626450  95.4416188  37.6009834  91.3152180
  94.1590012  36.1384997  90.5199988  94.1962707  35.0593584  90.3758805
  93.3310148  36.3250213  91.2012530  93.8630012  36.8464997  89.1349988
  93.9877873  37.9242110  89.2402305  94.5864909  36.5284078  88.3894224
  92.4380012  36.5474997  88.6279988  92.3484580  35.4634991  88.6196410
  91.7569662  36.9031011  89.3992472  92.0100012  37.1154997  87.2789988
  90.9950937  36.7712722  87.0891035  91.9435639  38.1955971  87.3769814
  92.8370012  36.7634997  86.1039988  92.4027545  37.1334249  85.1769237
  93.8319154  37.2005883  86.1667143  92.9850012  35.1954997  85.9979988
  93.5403062  34.8093792  86.8491523  91.9927829  34.7550711  86.0675588
  93.6470012  34.7174997  84.6959988  93.6433220  33.6332480  84.6372295
  94.6790157  35.0434908  84.6223998  93.1181069  35.0976848  83.8265903
  63.5800012 109.9104997  83.0269988  63.5637673 108.8255418  82.9948762
  64.0128985 110.2630849  82.0952941  62.5502668 110.2554706  83.0624139
  64.3980012 110.4354997  84.2719988  65.3911005 109.9982454  84.1838772
  63.9369293 109.9730842  85.1405600  64.5300012 111.9424997  84.4869988
  63.5656082 112.4066067  84.2808922  65.2161632 112.3272405  83.7351163
  65.0230012 112.3914997  85.8719988  66.0796703 112.1359572  85.9093935
  64.5314272 111.7486313  86.6005462  64.8550012 113.8804997  86.3009988
  63.9498218 114.3670527  85.9467539  65.6820432 114.5280988  86.0146741
  64.7990012 113.7794997  87.8169988  65.5307679 113.0645996  88.1888219
  63.8272979 113.4212747  88.1502325  65.0720012 115.1544997  88.4399988
  64.7531528 115.1719557  89.4805760  64.4940882 115.9251641  87.9317440
  66.5540012 115.5034997  88.3619988  66.7054729 116.5670093  88.5421501
  66.9415562 115.3060630  87.3642494  67.3730012 114.6854997  89.4009988
  67.2492722 113.6187843  89.2267848  67.0040683 114.8732976  90.4085689
  68.8700012 115.0434997  89.3329988  68.9877304 115.9861308  88.8030125
  69.3952608 114.2934997  88.7422100  69.5160012 115.1364997  90.7159988
  68.9783881 115.8501947  91.3366055  70.5379479 115.5053396  90.6473703
  69.5150012 113.7914997  91.4229988  69.9326839 113.0658075  90.7293627
  68.4726566 113.5118437  91.5643506  70.2430012 113.7024997  92.7929988
  71.2741171 113.9780476  92.5782307  70.2583162 112.6486823  93.0566433
  69.7750012 114.5234997  94.0199988  69.7141470 115.5773801  93.7690451
  70.5117680 114.4312181  94.8135671  68.4310012 114.0584997  94.5519988
  68.4585538 113.0001270  94.7781165  67.6527686 114.2374684  93.8196100
  67.8480012 115.0174997  95.5959988  68.3150012 116.1264997  95.8909988
  66.7890012 114.3764997  96.2629988  66.2850012 115.2024997  97.3379988
  65.2871391 115.5294831  97.0873693  66.9459005 116.0571223  97.3429264
  66.2870012 114.5074997  98.6839988  65.8455104 115.1429442  99.4337921
  67.7590012 114.1804997  99.0679988  68.3218151 115.1040690  99.0601837
  68.1411176 113.5347420  98.2872498  67.8720012 113.5084997 100.4039988
  68.5650012 112.1444997 100.5089988  67.3740012 111.2764997 100.1079988
  67.1200012 110.0104997 100.6119988  67.9707340 109.3584624 100.4627001
  66.2959913 109.5741707 100.0548436  66.6670012 109.9974997 102.0759988
  67.5539518 110.3920652 102.5554627  66.4806299 109.0029989 102.4549592
  65.5280012 110.8444997 102.5639988  64.2850012 110.0434997 102.3429988
  64.2739758 109.6989775 101.3180515  63.4371485 110.6887115 102.5189181
  64.2675951 109.2227923 103.0443215  65.6660012 110.9214997 104.0499988
  66.6808086 111.2030387 104.2858282  65.4136380 109.9669045 104.4759459
  64.9802415 111.6798199 104.3992566  65.3500012 112.2364997 102.0949988
  66.2349479 112.8077823 102.3328799  64.4946925 112.6710229 102.5902630
  65.1888018 112.2392811 101.0266159  69.6160012 111.9494997  99.4949988
  69.0150012 111.9044997 101.9239988  65.6370012 113.2654997  98.6379988
  64.2540012 113.3704997  98.8239988  63.6200012 114.4544997  98.9739988
  63.7120012 111.9054997  98.6579988  64.4725916 111.2964993  98.1803233
  63.5267140 111.4452897  99.6253572  62.3760012 111.9784997  97.7919988
  61.8771767 111.0187974  97.8707812  61.7090427 112.7018921  98.2501502
  62.5770012 112.3214997  96.3039988  61.6078254 112.7217479  96.0173741
  63.2529790 113.1715150  96.3549184  63.1090012 111.3124997  95.1789988
  62.2719961 110.6662516  94.9211384  63.3333429 111.8902608  94.2856540
  64.3280012 110.4194997  95.5159988  65.1696072 111.0052797  95.8799521
  64.0843792 109.7145431  96.3085047  64.7560012 109.6324997  94.2759988
  65.5312415 108.9466067  94.6140140  63.9090140 109.0179664  93.9839722
  65.2730012 110.4204997  93.0029988  65.1313245 109.8047587  92.1224474
  64.6484457 111.3020384  92.8645575  66.7540012 110.8764997  93.1359988
  67.0186035 111.3302587  94.0792073  67.7100012 110.7584997  92.2379988
  68.7213296 111.1047574  92.3958926  67.4800012 110.1104997  90.8769988
  67.1982800 109.0729093  91.0480552  66.6416835 110.5726442  90.3677572
  68.7340012 110.1294997  89.9379988  69.1902743 111.1155899  89.8596027
  69.5180111 109.4593705  90.2854384  68.2520012 109.6674997  88.5329988
  67.9953791 108.6118376  88.6214845  67.3221074 110.1896763  88.3253135
  69.2420012 109.8604997  87.3259988  70.2707795 109.6563730  87.6142562
  69.0183314 109.1878001  86.4998437  69.1090012 111.3324997  86.8389988
  68.1431086 111.4455494  86.3502644  69.0828544 111.9900520  87.7036179
  70.1590012 111.7844997  85.8869988  70.4942240 112.7825373  86.1634576
  71.0297657 111.1377083  85.9779057  69.7320012 111.8064997  84.4529988
  70.5698898 112.1168946  83.8337149  69.5164137 110.7795963  84.1661111
  68.4850012 112.6924997  84.1239988  68.1954707 112.5793436  83.0835965
  68.6797090 113.7459571  84.2944608  67.6333459 112.4110023  84.7368475
  90.2170012  98.0714997  83.9309988  90.0140812  97.5841813  82.9824350
  89.9501994  97.3781753  84.7234053  91.2881259  98.2436470  83.9915712
  89.4770012  99.3224997  84.0529988  88.4041003  99.1508912  83.9849006
  89.7294696 100.0014862  83.2430291  89.8040012  99.9814997  85.4259988
  89.3353794 100.9642443  85.4763534  90.8766188 100.1561304  85.4822709
  89.3770012  99.1484997  86.6589988  90.1688964  98.4529441  86.9279864
  88.5049335  98.5382323  86.4292648  89.0640012 100.0554997  87.8989988
  88.0950500 100.5282290  87.7603135  89.7957324 100.8611795  87.9275360
  89.0700012  99.2844997  89.3079988  90.0918711  99.0843743  89.6250929
  88.5861983  98.3148984  89.2111216  88.3430012 100.1134997  90.4079988
  87.8574379  99.4551169  91.1260033  87.5527426 100.7217305  89.9700756
  89.3300012 101.0214997  91.1429988  89.8632160 101.5968538  90.3872868
  90.0711540 100.3790479  91.6148379  88.7400012 101.9954997  92.2099988
  88.0583418 101.4426913  92.8528707  88.1369506 102.7489518  91.7048088
  89.8130012 102.6994997  93.0829988  90.6781897 102.8495644  92.4409487
  90.1177201 101.9800707  93.8426022  89.4210012 104.0484997  93.7789988
  88.9741507 104.7153474  93.0447102  90.3138966 104.5541503  94.1425688
  88.4040012 103.8684997  94.9699988  87.5934433 103.2082065  94.6712882
  87.9445266 104.8268826  95.2046374  89.0830012 103.3314997  96.2289988
  89.7034918 102.4809092  95.9519803  88.3371649 102.9513037  96.9214245
  89.9890012 104.3674997  96.9729988  89.3964799 105.2369473  97.2381861
  90.7537127 104.7076200  96.2797265  90.6640012 103.8344997  98.2059988
  91.2352738 102.9454278  97.9709675  89.9281482 103.5854313  98.9613493
  89.7310012 103.3784997  99.2929988  89.3530012 104.0404997 100.2509988
  89.2920012 102.1514997  99.0659988  88.1730012 101.7174997  99.8409988
  87.3495219 102.0223225  99.2129645  88.1291711 102.2650319 100.7713102
  88.1180012 100.1674997 100.0969988  87.1398743 100.0016828 100.5173160
  89.2360012  99.5414997 101.0569988  90.1538376  99.3485884 100.5183315
  88.8739853  98.6086261 101.4708543  89.4550012 100.4814997 102.0829988
  90.5040012 100.3474997 103.1669988  91.8060012 100.3264997 102.2399988
  92.2460012 101.5544997 101.7139988  92.8990615 102.0896319 102.3910029
  91.3967906 102.2052398 101.5264471  92.9070012 101.3594997 100.3569988
  93.5849574 102.2035574 100.3431826  92.1290049 101.5269653  99.6262087
  93.7290012 100.1484997  99.8349988  92.8100012  98.9814997  99.7179988
  92.2802253  98.8641239 100.6533567  93.4089576  98.1035844  99.5266460
  92.1359683  99.1477007  98.8910925  94.2200012 100.5324997  98.4499988
  94.6798419 101.5071608  98.5074114  93.3876117 100.5298815  97.7691970
  94.9505006  99.7950574  98.1502547  94.8670012  99.9044997 100.7829988
  95.4740187 100.7953194 100.8466535  95.4652435  99.0843590 100.4154049
  94.4762308  99.6573458 101.7595480  90.5650012 101.5224997 104.1039988
  90.4140012  98.9874997 103.7289988  88.1530012  99.5294997  98.7529988
  87.5430012  98.3214997  98.5569988  86.9190012  97.6734997  99.3609988
  88.1080012  97.7944997  97.2159988  88.4981720  96.8106375  97.4554461
  87.2507211  97.6251587  96.5692365  89.1550012  98.6734997  96.5249988
  88.6303622  99.5541591  96.1710866  89.8369460  99.0197032  97.2951464
  89.9570012  98.0544997  95.3509988  90.2527970  97.0327635  95.5750837
  89.3318642  98.0012884  94.4630588  91.1670012  98.8824997  95.0349988
  90.9216972  99.9408888  95.1009115  91.9697243  98.7115885  95.7481796
  91.6760012  98.6034997  93.6609988  91.8195254  97.5322183  93.5358669
  90.9135918  98.8931433  92.9404299  92.9890012  99.3404997  93.3139988
  93.7240835  99.2092586  94.1065457  93.4429524  98.9506673  92.4072038
  92.7100012 100.8574997  93.1179988  91.8090125 100.9668802  92.5256852
  92.4890260 101.2863385  94.0945300  93.8550012 101.6164997  92.5079988
  94.7661768 101.6777372  93.0838137  93.8500012 102.2304997  91.2719988
  94.7223390 102.7469835  90.8979918  92.6490012 102.2494997  90.3099988
  91.7650265 102.2592473  90.9453843  92.6505690 103.1940816  89.7776047
  92.5060012 101.1024997  89.3089988  92.1019451 100.2636216  89.8744431
  91.7186048 101.4149906  88.6257599  93.7330012 100.6304997  88.4899988
  94.2929962 101.5167647  88.1915915  94.3857087 100.0672559  89.1512350
  93.4190012  99.7944997  87.2529988  92.9942514  98.8629554  87.6203650
  92.6165554 100.3078430  86.7260790  94.6020012  99.4874997  86.2349988
  94.9215568 100.4107261  85.7552832  95.4724786  99.1123868  86.7662091
  94.1770012  98.4614997  85.0899988  93.2302034  98.7462863  84.6346378
  94.9078506  98.4481819  84.2834532  94.0440012  97.0644997  85.6369988
  93.5602882  97.0592767  86.6106052  93.3998367  96.4804130  84.9833873
  95.4230012  96.3564997  85.7409988  95.3032360  95.3232011  86.0524780
  96.0736850  96.8399343  86.4618610  95.9348992  96.3559350  84.7828229
  78.4560012  27.7004997  80.9499988  79.4181515  27.6421114  80.4507127
  78.0208806  28.6684457  80.7186103  77.8126635  26.9390055  80.5177311
  78.6010012  27.5054997  82.4609988  79.3108391  28.2716480  82.7681629
  79.1178905  26.5544839  82.5569591  77.4160012  27.5404997  83.3709988
  77.7405408  27.4311252  84.4057163  76.7805731  26.6820839  83.1623736
  76.5810012  28.8004997  83.2389988  75.7213799  28.7228153  83.9010157
  76.1787717  28.8690079  82.2294325  77.3510012  30.1074997  83.5759988
  76.7510194  30.9578197  83.2620709  78.2544554  30.1302644  82.9688602
  77.7390012  30.2884997  85.0909988  78.4001565  31.1450908  85.2090761
  78.2969799  29.4229753  85.4418610  76.4440012  30.4894997  86.0099988
  76.7633432  30.4756436  87.0504788  75.7989036  29.6219178  85.8781621
  75.6310012  31.7734997  85.7439988  75.4716013  31.8506015  84.6692439
  76.2498911  32.6248373  86.0212775  74.3090012  31.8724997  86.4489988
  73.6172551  31.2127313  85.9296394  73.9366235  32.8845453  86.2951304
  74.2910012  31.5524997  87.9329988  74.5506013  30.5050265  88.0697716
  73.2752118  31.6670173  88.3104729  75.2060012  32.4104997  88.7269988
  75.0023541  33.4631409  88.5425665  76.2459349  32.2504196  88.4476421
  75.0380012  32.1414997  90.2289988  75.4653005  31.1776168  90.4946379
  73.9808926  32.0854761  90.4820852  75.6760012  33.2404997  91.0549988
  75.0496772  34.1304997  91.0844969  76.6402344  33.5596986  90.6694599
  75.8530012  32.7404997  92.4899988  76.4749762  31.8514127  92.4859471
  74.8785623  32.4409065  92.8665686  76.4560012  33.7764997  93.4589988
  75.8692342  34.6862924  93.4542377  77.4723369  34.0166784  93.1701307
  77.0200012  33.0314997  94.7439988  78.0950012  32.4024997  94.7889988
  76.2290012  33.4064997  95.7379988  76.5540012  32.8664997  97.0099988
  76.0042258  33.4658779  97.7198965  77.6118161  32.9736269  97.2016839
  76.1110012  31.3534997  97.1119988  75.1061370  31.2820125  96.7298580
  76.1540012  30.8574997  98.5479988  75.5675831  29.9488277  98.5631661
  75.6260492  31.6204905  99.1062968  77.4070012  30.6354997  99.0989988
  77.5770012  29.7044997 100.3959988  78.1920012  30.7324997 101.4639988
  77.9740012  32.1374997 101.4109988  76.9435439  32.4402242 101.5440576
  78.2977980  32.5556095 100.4622434  78.8900012  32.7934997 102.4789988
  78.4069828  32.5359009 103.4131214  78.8992012  33.8691695 102.3778718
  80.2850012  32.3934997 102.6299988  80.5040012  30.9364997 102.8199988
  79.8631899  30.5925311 103.6202366  81.5381939  30.7877907 103.0928191
  80.2973866  30.4269183 101.8908302  80.9890012  32.8414997 101.2899988
  80.7344730  33.8723988 101.0971868  80.6633105  32.1999302 100.4908215
  82.0549432  32.7440916 101.4368870  80.8860012  33.1824997 103.7919988
  80.7971689  34.2391745 103.5879665  81.9280909  32.9205351 103.8972292
  80.3587472  32.9401468 104.7034280  76.2150012  29.2634997 100.7279988
  78.6210012  28.6634997 100.0709988  76.9510012  30.5624997  96.3059988
  76.2900012  29.6264997  95.5419988  75.0850012  29.5344997  95.5119988
  77.3370012  28.8354997  94.7879988  78.3277921  29.0108348  95.1943779
  77.1794472  27.7611514  94.8414734  77.2070012  29.3564997  93.3009988
  76.3432843  30.0028918  93.1904034  78.0662133  29.9507246  93.0065770
  77.0560012  28.1374997  92.3469988  77.7006882  27.3638812  92.7563241
  76.0358862  27.7923129  92.4962518  77.3070012  28.2884997  90.8349988
  77.2056838  27.3056289  90.3784840  76.5289150  28.9087959  90.3968018
  78.6520012  28.8524997  90.4529988  78.9956047  29.6114510  91.1528777
  79.4178252  28.0793088  90.4446065  78.5590012  29.4374997  89.1049988
  78.1201561  28.7227234  88.4105847  77.9142594  30.3118489  89.0931927
  79.9710012  29.8524997  88.5929988  80.4177506  28.9631494  88.1639870
  79.8038752  30.5412719  87.7659512  80.9070012  30.5084997  89.5879988
  81.8148761  30.0284851  89.9210200  80.6410012  31.7374997  90.0869988
  81.3440360  32.1344654  90.8051702  79.4620012  32.6794997  89.7749988
  78.8548212  32.2636957  88.9727142  78.7940598  32.8260007  90.6164694
  79.9970012  34.0204997  89.3179988  79.1661152  34.7249429  89.3276571
  80.6921869  34.3610646  90.0829768  80.7180012  34.0674997  87.8959988
  81.0368003  35.0925134  87.7067344  81.6249928  33.4710903  87.9425391
  79.8280012  33.5734997  86.6999988  79.6440294  32.5015454  86.6853867
  78.8525208  34.0506768  86.6236762  80.6870012  33.9764997  85.4849988
  80.6928205  35.0599486  85.3815844  81.7232090  33.6874100  85.6377259
  80.1690012  33.3864997  84.1859988  80.0674122  32.3078865  84.2916226
  79.1676222  33.7663215  83.9915520  81.0380012  33.6734997  82.9709988
  81.1160565  34.7426004  82.7897641  82.0509063  33.3331578  83.1747229
  80.5000012  32.9354997  81.6279988  81.1883957  33.0881492  80.8022385
  79.5315873  33.3133512  81.3179282  80.4020620  31.8647973  81.7833864
  48.5660012 108.1074997  83.3369988  47.9515908 107.2234769  83.4764002
  48.4896973 108.4029722  82.2945671  48.1376756 108.9055917  83.9371640
  49.9940012 107.8464997  83.7249988  50.3113410 107.0005122  83.1177067
  49.9489250 107.4869153  84.7494407  51.0620012 109.0034997  83.6019988
  51.1442078 109.3097073  82.5592102  52.0374473 108.6074318  83.8773279
  50.7660012 110.2724997  84.4959988  50.6423415 109.9576209  85.5298313
  49.8179219 110.7199910  84.2017145  51.8510012 111.3174997  84.4369988
  51.3905891 112.2933756  84.5683757  52.2594170 111.3057360  83.4278292
  52.9970012 111.1674997  85.4489988  53.6304251 110.3796363  85.0454366
  52.5341074 110.7571378  86.3439342  53.9200012 112.4414997  85.8589988
  53.3624733 113.3487305  85.6334665  54.7921490 112.4502850  85.2066867
  54.3730012 112.4804997  87.2949988  54.9722011 113.3779593  87.4432437
  55.0392098 111.6378628  87.4705356  53.2390012 112.4524997  88.3289988
  53.5348609 111.8455682  89.1820183  52.3627349 111.9674395  87.9006869
  52.8520012 113.8644997  88.8159988  52.2763407 114.3141700  88.0099525
  53.7795751 114.4325088  88.8823402  52.0940012 113.9894997  90.1299988
  51.4854624 113.0963130  90.2542533  51.3967177 114.8220167  90.0535838
  52.9620012 114.1664997  91.3949988  53.7144001 114.9261421  91.1973675
  53.5046918 113.2391659  91.5688062  52.1580012 114.5274997  92.6929988
  51.9224952 115.5896950  92.6538829  52.7973852 114.3893895  93.5604016
  50.8720012 113.7744997  92.9059988  51.0657375 112.7233074  93.0925624
  50.2643725 113.8274940  92.0065150  50.0700012 114.3504997  94.0679988
  49.8932834 115.4081505  93.9190470  50.6057681 114.2153407  95.0000689
  48.8740012 113.4414997  94.5039988  47.8400012 113.1324997  93.9879988
  49.2280012 112.9084997  95.6529988  48.2490012 112.0144997  96.2429988
  47.9979347 111.2044755  95.5749505  47.3685296 112.6166023  96.4145630
  48.8100012 111.4554997  97.5799988  48.1112254 110.6947736  97.8864336
  48.9940012 112.4894997  98.7169988  48.0277519 112.7910442  99.0980948
  49.4895107 113.3580506  98.3014576  49.8120012 111.8964997  99.7939988
  49.0800012 110.7994997 100.7229988  49.7640012 111.1304997 102.1869988
  50.3140012 112.4044997 102.4799988  50.2694106 112.5553345 103.5507226
  49.6482488 113.1397956 102.0373809  51.7650012 112.7564997 101.9109988
  52.0418628 113.6272195 102.4918977  51.6977406 113.0401490 100.8706161
  52.9570012 111.7924997 102.0089988  52.6160012 110.4954997 101.3219988
  51.6682362 110.1414160 101.7037060  53.3915991 109.7811342 101.5548719
  52.5844124 110.6614706 100.2556157  54.1110012 112.3664997 101.2139988
  54.2550899 113.3937102 101.5119769  53.8875692 112.2889824 100.1649805
  54.9892337 111.7844568 101.4532283  53.4320012 111.5214997 103.4609988
  53.7078864 112.4566156 103.9252482  54.2872286 110.8629588 103.4373357
  52.6333817 111.0565303 104.0208607  47.6620012 111.2074997 100.8589988
  49.4860012 109.4094997 100.2189988  50.1490012 110.9614997  97.4499988
  50.2520012 109.6464997  97.1789988  49.3500012 108.8044997  97.2009988
  51.6710012 109.3574997  96.8859988  52.2454068 110.2776917  96.9152866
  52.1112812 108.7079829  97.6384537  51.7080012 108.7114997  95.5209988
  52.7042219 108.3401177  95.3072682  51.0508559 107.8486484  95.4800016
  51.2990012 109.7434997  94.4189988  50.3541673 110.2033725  94.6973150
  52.0361850 110.5426378  94.4171855  51.2020012 109.1504997  92.9729988
  52.1628757 108.7182935  92.6998248  50.4815052 108.3370072  92.9367004
  50.8110012 110.2304997  91.8779988  49.7955919 110.5630037  92.0836346
  51.4513378 111.0957554  92.0382564  50.9190012 109.8074997  90.4139988
  50.7891668 110.7064668  89.8134139  51.9341756 109.4638861  90.2360424
  49.9610012 108.7474997  89.9369988  50.1018922 108.5377455  88.8830856
  50.1395601 107.8104668  90.4627669  48.5390012 109.1994997  90.2199988
  48.2819362 109.1829273  91.2684247  47.5690012 109.6264997  89.3439988
  46.6201630 109.9352523  89.7587131  47.6460012 109.7304997  87.8589988
  48.5542377 109.2389470  87.5144652  46.8221825 109.2251111  87.3674845
  47.6920012 111.2504997  87.3859988  47.8878803 111.3057676  86.3158204
  46.7172933 111.7095194  87.5399610  48.7600012 112.0614997  88.1469988
  48.5612258 111.9942440  89.2166118  49.7366713 111.6118164  87.9907799
  48.8050012 113.5254997  87.7369988  47.7749948 113.8506844  87.6085977
  49.1994885 114.0901835  88.5799679  49.6230012 113.8594997  86.4749988
  50.6463307 113.5194997  86.6226021  49.2387145 113.2879646  85.6345843
  49.6680012 115.3424997  86.1209988  48.7537935 115.5680007  85.5748700
  49.6036164 115.8932502  87.0576751  50.9110012 115.9054997  85.2859988
  50.8632369 116.9867692  85.1835793  51.8298080 115.7001653  85.8309251
  51.0100012 115.2594997  83.8839988  51.9078041 115.5895144  83.3700832
  50.1631160 115.5184094  83.2575068  51.0488352 114.1761806  83.9550805
 114.9230012  55.7224997  79.3039988 115.8993463  55.2766548  79.1415133
 115.0771893  56.7288697  79.6824633 114.4329721  55.8060546  78.3378196
 114.0660012  54.8684997  80.2979988 114.6489635  54.7895239  81.2140341
 114.0261654  53.8685815  79.8744533 112.6090012  55.3674997  80.6509988
 112.1159807  55.5867346  79.7040057 112.7321766  56.3240980  81.1549019
 111.6920012  54.4814997  81.5059988 111.6717816  53.4868859  81.0660162
 110.6727590  54.8595724  81.4434492 112.0950012  54.3584997  82.9679988
 113.1676694  54.5117541  83.0544215 111.9058181  53.3351887  83.2880134
 111.3660012  55.3404997  83.9309988 110.3185939  55.4300653  83.6486282
 111.7919405  56.3374026  83.8396908 111.4630012  54.8654997  85.4459988
 112.5053410  54.6966628  85.7101799 110.9606814  53.9060015  85.5611860
 110.8280012  55.9154997  86.4589988 110.6490609  55.3883314  87.3952279
 109.8478631  56.1844646  86.0695488 111.6020012  57.1534997  86.7339988
 111.8443255  57.6257088  85.7843470 112.5530471  56.8723143  87.1845801
 110.8800012  58.1874997  87.6569988 110.0746274  58.6215064  87.0685174
 111.5882704  58.9936606  87.8464404 110.3430012  57.6804997  88.9719988
 110.8313969  56.7518149  89.2593228 109.2790554  57.4572221  88.9146007
 110.5890012  58.7374997  90.1019988 109.8282964  58.6013094  90.8668514
 110.4198286  59.7253835  89.6775743 112.0090012  58.7084997  90.7459988
 112.1165265  59.6200100  91.3315235 112.7508955  58.7660868  89.9544494
 112.3400012  57.5204997  91.6559988 113.3770796  57.6670745  91.9394225
 112.3147180  56.6640640  90.9874401 111.5050012  57.1824997  92.9259988
 110.4593059  57.0646184  92.6717028 111.5972575  57.9741363  93.6600759
 112.1600012  55.9554997  93.4989988 112.7250012  55.0974997  92.8589988
 111.9920012  55.9784997  94.8989988 112.9180012  55.2684997  95.7179988
 113.8575284  55.3750681  95.1970441 112.7334624  54.2201404  95.9026075
 112.9460012  56.0734997  97.0519988 113.6535436  55.5379097  97.6630806
 111.5590012  56.2034997  97.8189988 111.4937061  55.4522744  98.5943685
 110.7623237  56.0354156  97.1051095 111.4550012  57.5184997  98.3839988
 111.6930012  57.7264997  99.9399988 112.7870012  56.6184997 100.2919988
 112.5250012  55.5654997 101.1669988 113.1594508  54.7292663 100.9036046
 111.5031094  55.2468992 100.9825320 112.5920012  55.8584997 102.6939988
 112.7348581  54.8676241 103.1063172 111.7815031  56.3405490 103.2213491
 113.8290012  56.6294997 103.0469988 113.7230012  58.1084997 102.9779988
 113.3155673  58.3808233 102.0140633 114.7163747  58.5189665 103.0820471
 113.1012936  58.4536102 103.7904613 114.0040012  56.3044997 104.5109988
 113.9453357  55.2338956 104.6337962 113.2398442  56.8076039 105.0760831
 114.9812664  56.6584444 104.8059103 115.0700012  56.1284997 102.3379988
 115.2242466  55.0882853 102.5834463 115.9218220  56.7071078 102.6624427
 114.9444013  56.2379082 101.2704364 112.2720012  59.1104997 100.0879988
 110.5180012  57.3714997 100.7409988 113.5750012  57.3954997  96.7259988
 114.8430012  57.3544997  96.5909988 115.6330012  56.4564997  96.7719988
 115.3530012  58.7844997  96.1679988 114.8674953  59.4914952  96.8328253
 116.4151440  58.8475858  96.3911124 115.0790012  59.1024997  94.6939988
 115.6787136  58.4314185  94.0889731 114.0439915  58.8616486  94.4731395
 115.3680012  60.5104997  94.2939988 114.7626955  61.2298632  94.8396866
 116.4040573  60.7712714  94.4956194 115.1080012  60.6484997  92.7509988
 115.6760993  59.8571098  92.2655376 114.0598563  60.4307876  92.5607466
 115.4580012  61.9484997  92.0969988 115.2090501  62.7416652  92.7990050
 116.5414496  61.9629526  91.9954529 114.8220012  62.2684997  90.7069988
 113.8096182  61.8680277  90.6869026 114.7287873  63.3438954  90.5839007
 115.6220012  61.6994997  89.5069988 116.6734869  61.9524343  89.5775803
 115.5684718  60.6117102  89.4930422 115.0300012  62.2194997  88.2499988
 115.2276169  63.2741824  88.1310601 114.3100012  61.5964997  87.2469988
 113.8837550  62.0813597  86.3804914 114.0620012  60.0914997  87.3029988
 113.8757571  59.8449726  88.3469138 113.1499263  59.8529276  86.7673834
 115.2080012  59.1914997  86.7909988 116.0601605  59.3275083  87.4558530
 114.8868969  58.1592683  86.9168932 115.6620012  59.4124997  85.3069988
 116.0412065  60.4319036  85.2354026 116.5102264  58.7592730  85.1217614
 114.6500012  59.2014997  84.2729988 114.0612351  58.3207584  84.5195640
 113.9541858  60.0386035  84.2594666 115.2800012  59.0394997  82.8689988
 115.8054747  59.9495345  82.5856190 116.0282057  58.2515878  82.8658667
 114.1900012  58.7504997  81.7749988 114.7059290  58.4451531  80.8664478
 113.6179124  57.8844062  82.1027648 113.1850012  59.9044997  81.4149988
 112.7765661  60.3824539  82.3019348 113.7046494  60.6887771  80.8689332
 112.0050012  59.3614997  80.5209988 111.3597690  60.1735568  80.1995837
 111.3872212  58.6473589  81.0549388 112.3846972  58.8684515  79.6305633
 110.5060012  81.5554997  84.6429988 110.5809397  80.6241537  84.0903616
 111.4899205  81.7837790  85.0424750 110.2481740  82.3393535  83.9360968
 109.4900012  81.4594997  85.7319988 109.7551220  80.6568961  86.4181047
 108.5246100  81.1937033  85.3098777 109.3800012  82.7744997  86.5129988
 109.3852546  83.6177834  85.8225106 110.2616329  82.8930233  87.1397751
 108.1340012  82.8584997  87.4049988 108.2178319  82.2689400  88.3152964
 107.2144503  82.5348403  86.9198423 108.0130012  84.3274997  87.7859988
 107.7757023  84.9220358  86.9074836 108.9766074  84.6847096  88.1454832
 106.9630012  84.5764997  88.8439988 107.2456852  84.0247862  89.7387161
 106.0262380  84.1417569  88.5018723 106.7340012  86.0494997  89.2079988
 105.6691206  86.2291909  89.3440523 107.0456452  86.6819532  88.3778720
 107.4680012  86.4634997  90.4479988 108.5339466  86.3458901  90.2572651
 107.2198005  85.7531275  91.2344159 107.1990012  87.8824997  90.9479988
 106.1248561  87.9761168  91.0928754 107.4568651  88.5652985  90.1393771
 107.9180012  88.3134997  92.2169988 107.1774077  88.1941297  93.0047621
 108.0711990  89.3862331  92.1020969 109.2160012  87.6694997  92.6279988
 109.9160085  87.8134251  91.8077450 109.0450878  86.5964328  92.6946632
 109.8850012  88.1604997  93.9299988 109.8400699  89.2466681  93.9090605
 110.9381469  87.8982244  93.8477450 109.3320012  87.6154997  95.3209988
 109.6991663  86.6126754  95.5326239 108.2478598  87.5569716  95.3595460
 109.8140012  88.5274997  96.4179988 109.2867890  89.4758379  96.4248480
 110.8697582  88.7554718  96.2975923 109.6190012  87.8404997  97.7509988
 110.1095817  86.8754332  97.7552983 108.5638371  87.6950963  97.9498848
 108.1390012  87.8834997  98.1929988 107.3280012  88.4694997  97.4759988
 107.9220012  87.2664997  99.3889988 106.6200012  87.0744997  99.9269988
 106.0098725  87.7640877  99.3633736 106.5019953  87.2788861 100.9812724
 106.2180012  85.5944997  99.5929988 105.1506745  85.5120778  99.7151236
 106.9380012  84.5594997 100.5109988 106.3441737  83.6570815 100.5640205
 106.9994203  84.9930883 101.5013591 108.2390012  84.2704997 100.0149988
 109.2860012  83.5014997 100.9949988 110.2460012  84.6584997 101.4629988
 109.9270012  85.5104997 102.5369988 110.5829726  85.3979708 103.3903613
 108.9198196  85.3179903 102.8952199 109.9080012  86.9794997 102.0389988
 109.4137397  87.6465552 102.7339747 109.3723174  86.9963318 101.1008428
 111.2240012  87.5884997 101.7649988 111.0440012  89.1344997 101.5789988
 110.2598695  89.3060675 100.8544051 111.9754850  89.5362547 101.2088220
 110.8127523  89.5780541 102.5358166 112.1760012  87.3264997 102.9089988
 112.1546748  86.2720700 103.1379908 111.8787407  87.9189084 103.7557916
 113.1638805  87.6143805 102.5795810 111.7780012  87.1054997 100.4799988
 111.8677277  86.0298974 100.5133302 112.7518821  87.5453466 100.3259190
 111.1199155  87.3930192  99.6727251 108.6640012  82.9824997 102.2489988
 110.0020012  82.5204997 100.1519988 106.4630012  85.4374997  98.1829988
 106.1090012  84.2984997  97.6769988 105.4010012  83.4534997  98.2349988
 106.7780012  84.1124997  96.3559988 106.4572906  83.1627036  95.9405651
 106.4441390  84.8722260  95.6536748 108.2910012  84.1694997  96.5489988
 108.6110841  85.1645588  96.8379021 108.6237370  83.5055854  97.3405401
 108.9880012  83.7774997  95.1949988 108.6510961  82.8202161  94.8054385
 108.7901176  84.5087312  94.4151221 110.5500012  83.7354997  95.4639988
 110.9189086  84.6307018  95.9612175 110.8875699  82.8937504  96.0637550
 111.2030012  83.6494997  94.0769988 110.6634764  82.9873222  93.4029550
 111.2316977  84.6213982  93.5881524 112.6470012  83.1404997  94.2459988
 113.1040174  83.6636058  95.0845673 112.6364693  82.0869144  94.5108860
 113.5320012  83.3264997  92.9799988 113.9842552  84.3057459  93.0854647
 114.3388980  82.6028160  93.0874484 112.8990012  83.1544997  91.5869988
 112.3687463  82.2209533  91.4735312 112.9060012  83.9864997  90.5319988
 112.3550680  83.6413179  89.6689043 113.5520012  85.3284997  90.3489988
 114.2285071  85.5501041  91.1726809 114.1375193  85.4235006  89.4413511
 112.4070012  86.4084997  90.3479988 111.9180935  86.4075628  91.3214840
 112.8624353  87.3908523  90.2383541 111.3740012  86.2174997  89.2659988
 111.8164535  85.6149354  88.4727401 110.5502682  85.6336228  89.6673165
 110.8280012  87.5304997  88.6629988 110.2102177  87.9951409  89.4282420
 111.6758863  88.1961120  88.5108936 110.0340012  87.4104997  87.3469988
 110.5985402  86.7830234  86.6598603 109.1053444  86.8799169  87.5385803
 109.7410012  88.7484997  86.6359988 108.7594989  88.6934896  86.1685481
 109.6752488  89.5364870  87.3840540 110.8050012  89.1874997  85.5309988
 110.6404276  90.1969525  85.1624401 111.8105050  89.1842601  85.9460464
 110.7540012  88.2154997  84.3749988 111.5291349  88.4397371  83.6483942
 109.8019573  88.2518770  83.8563175 110.9052710  87.1951513  84.7158032
  58.2150012  35.3094997  83.1319988  58.7996938  36.1886285  82.8796183
  57.3850641  35.2519107  82.4336593  58.8425334  34.4374798  82.9695283
  57.7180012  35.3684997  84.5799988  57.1384633  36.2841463  84.6845462
  58.5953124  35.4890244  85.2097707  56.8770012  34.1804997  85.0679988
  57.4989106  33.2949145  84.9380124  56.0631245  34.0846391  84.3520473
  56.2700012  34.1784997  86.5139988  55.5615855  33.3577878  86.6024819
  55.6974499  35.0899901  86.6785475  57.3430012  34.0334997  87.6349988
  57.9581729  34.9283169  87.6843827  58.0154053  33.2137539  87.3875023
  56.7120012  33.7754997  89.0389988  57.5132570  33.7767028  89.7757515
  56.2954966  32.7704756  89.0442582  55.6230012  34.7794997  89.4689988
  54.7941341  34.7711243  88.7635349  56.0155297  35.7954409  89.4651660
  55.1080012  34.4514997  90.8439988  55.8585262  34.7611654  91.5701325
  55.0309602  33.3691569  90.9293380  53.7380012  35.0944997  91.2149988
  53.3596674  34.6537158  92.1348434  53.0018761  34.8679642  90.4446881
  53.8430012  36.6504997  91.3889988  53.7986635  37.1487405  90.4230333
  54.7989285  36.9283894  91.8321797  52.7080012  37.1484997  92.2879988
  52.7395757  36.5891512  93.2205615  51.7540897  36.9064733  91.8225912
  52.7430012  38.6404997  92.6199988  51.7974498  38.9110348  93.0836391
  52.7910818  39.1925151  91.6831758  53.9200012  39.0844997  93.5149988
  54.8125361  38.9488389  92.9065339  53.9885725  38.3598283  94.3214870
  53.9630012  40.5224997  94.1179988  53.0621131  40.6976904  94.6968372
  53.9534971  41.2355269  93.2978806  55.1730012  40.8004997  94.9839988
  56.0850939  40.5998967  94.4363801  55.1547156  40.1764469  95.8696018
  55.1930012  39.8534997  96.1999988  55.7890012  38.7824997  96.1509988
  54.4200012  40.2784997  97.2189988  54.4920012  39.7204997  98.5189988
  54.1717651  40.5251584  99.1635413  55.5200503  39.4758684  98.7436373
  53.5660012  38.4744997  98.7069988  52.5893498  38.7678022  98.3591199
  53.4710012  37.9494997 100.1829988  52.5862182  37.3424375 100.3187762
  53.4165110  38.7972392 100.8545295  54.6500012  37.1814997 100.4439988
  55.1910012  37.3364997 101.9709988  55.3040012  35.8544997 102.5129988
  56.6380012  35.2314997 102.7249988  56.9282112  35.2727002 103.7667615
  57.3828371  35.7994816 102.1750779  56.7390012  33.8194997 102.1879988
  56.0842158  33.1974590 102.7851340  57.7490226  33.4462684 102.2770611
  56.3400012  33.5854997 100.7719988  56.9130012  34.6504997  99.8849988
  56.6650396  35.6170767 100.3016256  56.4627165  34.5489253  98.9087681
  57.9802789  34.5062553  99.8086528  56.9310012  32.2684997 100.2449988
  56.7099990  31.4856276 100.9542120  57.9909935  32.3887147 100.1095933
  56.4548341  32.0565804  99.2986097  54.8750012  33.5764997 100.6029988
  54.4494495  32.8071466 101.2299626  54.6384270  33.3730880  99.5694097
  54.4737748  34.5399721 100.8825937  56.5850012  37.8924997 101.9779988
  54.2510012  38.0694997 102.8589988  54.0590012  37.4324997  97.8609988
  53.1790012  36.6354997  97.3249988  52.0070012  36.4854997  97.6119988
  53.8220012  35.7574997  96.2429988  53.1288161  34.9510868  96.0267909
  53.9094358  36.3293481  95.3225361  55.2170012  35.2214997  96.7079988
  55.8258318  36.0801732  96.9688933  55.0749362  34.6636433  97.6281329
  55.9800012  34.3534997  95.6799988  56.7660542  33.7845150  96.1699284
  55.3001096  33.6225227  95.2493188  56.5690012  35.1944997  94.5509988
  56.8610420  34.4979979  93.7672236  55.7710555  35.8040957  94.1340126
  57.7720012  36.0994997  94.8669988  57.4627742  36.8664817  95.5741184
  58.5226790  35.5005090  95.3789304  58.4380012  36.7794997  93.6199988
  59.3545727  37.2811419  93.9265156  58.7279591  36.0325516  92.8863020
  57.5250012  37.7734997  92.9589988  56.8296627  37.2253620  92.3339951
  56.9299947  38.2423873  93.7415956  58.2230012  38.8484997  92.1779988
  58.8863551  39.4688728  92.7616533  58.1350012  39.1074997  90.9089988
  58.7399263  39.8981475  90.4888184  57.2670012  38.4144997  89.9169988
  57.9056632  37.7894223  89.2952190  56.5740528  37.7430848  90.4116761
  56.5080012  39.3414997  89.0239988  55.7790625  39.9200780  89.5902147
  57.1818282  40.0648945  88.5688987  55.7850012  38.5494997  87.9099988
  56.4923951  37.8166259  87.5219308  54.9830773  37.9816064  88.3735927
  55.2230012  39.3694997  86.7499988  54.4820079  40.0896202  87.0898522
  55.9951817  39.9443778  86.2417298  54.5680012  38.3654997  85.7299988
  55.3650536  37.8458040  85.2015919  54.0304671  37.6001668  86.2831242
  53.6540012  38.9964997  84.6929988  53.0831460  39.7899487  85.1720040
  54.2727255  39.4819625  83.9404431  52.6880012  38.0644997  83.9919988
  51.9253958  37.7180006  84.6850259  52.1591748  38.6329080  83.2300489
  53.3590012  36.8594997  83.3289988  52.6351414  36.2749577  82.7691714
  53.8168509  36.1987343  84.0573557  54.1345415  37.1760492  82.6372802
 102.1720012  97.4284997  80.2419988 102.0887092  97.4758433  79.1606801
 103.2232190  97.5248244  80.4978358 101.6535755  98.2911785  80.6514276
 101.5780012  96.1054997  80.7959988 102.0951239  95.2485912  80.3676357
 100.5360309  96.0111954  80.5023686 101.7030012  96.0564997  82.3379988
 101.4071226  95.0667395  82.6855037 100.9810333  96.7523513  82.7607563
 103.0910012  96.3954997  82.8979988 103.3175079  97.4393793  82.6924266
 103.8556213  95.8143982  82.3847901 103.2010012  96.1594997  84.4009988
 102.9683471  95.1166043  84.6005343 102.4184836  96.7444410  84.8814932
 104.5510012  96.4984997  85.0419988 104.8239605  97.5093847  84.7446410
 105.3053671  95.8415152  84.6143535 104.5940012  96.3934997  86.5349988
 105.6405118  96.4048167  86.8340930 104.2109313  95.4104375  86.8053249
 103.8370012  97.4594997  87.3149988 102.8021218  97.3787027  86.9849267
 104.2035283  98.4115633  86.9356354 103.8790012  97.4764997  88.8459988
 103.3816014  98.3698643  89.2175283 104.9120954  97.5409536  89.1853202
 103.2310012  96.2544997  89.4519988 103.8122977  95.3948173  89.1259013
 102.2482757  96.1503986  88.9928228 103.0770012  96.2364997  90.9939988
 102.2891131  96.9249464  91.2920165 103.9874546  96.5940566  91.4718645
 102.7390012  94.8674997  91.5289988 103.1831390  94.6975792  92.5067961
 103.1277255  94.0860757  90.8786604 101.1320012  94.7164997  91.6139988
 100.7141863  94.5751187  90.6186625 100.6626361  95.6095950  92.0169269
 100.7270012  93.5004997  92.4779988 101.4860901  93.3339201  93.2352175
 100.7223769  92.6216851  91.8386587  99.3430012  93.6194997  93.1619988
  98.5732290  93.8194851  92.4274937  99.3485991  94.4240752  93.8877369
  99.4310012  94.4314997  94.4509988  99.4450012  93.9624997  95.5469988
  99.3640012  95.6824997  94.1409988  98.8610012  96.6404997  95.0559988
  97.9527533  96.2024695  95.4415859  98.6172926  97.5500959  94.5264397
  99.8370012  96.9154997  96.1909988 100.0807855  95.9702177  96.6469650
  99.2820012  97.8934997  97.2659988  98.2572247  97.6146335  97.4706153
  99.2898870  98.8758197  96.8104001 100.0470012  97.8974997  98.4679988
  99.7270012  96.9094997  99.6609988 101.0460012  96.9524997 100.4699988
 101.3920012  98.1914997 101.1519988 100.8927201  99.0748403 100.7756788
 102.4577677  98.3948168 101.1010002 101.0930012  97.9824997 102.6419988
 100.0267531  97.8199350 102.7365340 101.3566155  98.8804284 103.1820066
 101.7510012  96.8414997 103.3869988 103.2590012  96.9664997 103.2829988
 103.5244107  97.0872974 102.2417017 103.6960103  96.0565166 103.6664748
 103.5833236  97.8045687 103.8814736 101.3960012  96.9704997 104.7939988
 100.3266280  97.0959846 104.8675423 101.9202799  97.8108360 105.2127309
 101.6970094  96.0580483 105.2880874 101.3160012  95.5654997 102.7829988
 100.2395500  95.4966768 102.8339730 101.7573918  94.7456779 103.3295485
 101.6368060  95.5266409 101.7519754  98.6110012  97.3944997 100.4719988
  99.5210012  95.5784997  99.0689988 101.0220012  97.4554997  95.6099988
 102.1870012  97.0494997  96.1729988 102.4020012  96.1364997  96.9349988
 103.2170012  97.9934997  95.7559988 102.9400235  98.9318243  96.2254487
 104.1405390  97.6813965  96.2372226 103.3990012  98.1374997  94.3049988
 103.7299422  97.1913412  93.8910867 102.4463568  98.3549471  93.8325389
 104.3870012  99.1924997  93.9579988 104.1501752 100.0343954  94.6035830
 105.3400154  98.8020374  94.3063779 104.5570012  99.6784997  92.4869988
 105.3362179 100.4374584  92.4481551 104.8915024  98.8664132  91.8460412
 103.2790012 100.2724997  91.9029988 103.4335041 100.3537158  90.8290184
 102.5068544  99.5182283  92.0417258 102.7500012 101.6374997  92.4559988
 103.0969473 101.7268622  93.4842710 103.2258455 102.4411304  91.9009601
 101.1660012 101.8534997  92.4119988 100.9194010 102.8990088  92.5558009
 100.7824262 101.5801662  91.4299066 100.4820012 100.9724997  93.4689988
 100.5463888 101.3748206  94.4687718  99.8110012  99.7874997  93.3149988
  99.3802754  99.2743965  94.1628256  99.5950012  99.0824997  91.9909988
 100.1230628  99.5912784  91.1863149  99.9305656  98.0516550  91.9700972
  98.1190012  99.1344997  91.6929988  97.5954657  98.6924397  92.5398746
  97.8339783 100.1846876  91.6749365  97.6370012  98.4414997  90.3539988
  96.5637819  98.5869976  90.2309630  98.1077872  98.9139490  89.4962948
  97.9510012  96.9224997  90.3439988  98.2904349  96.7126469  91.3558740
  96.9816997  96.4376857  90.2415534  98.8870012  96.3434997  89.3709988
  99.8849764  96.7157253  89.5947922  98.9306794  95.2682791  89.5213916
  98.5760012  96.6664997  87.8509988  97.5682229  96.3629076  87.5733339
  98.6356565  97.7345658  87.6497281  99.5730012  95.9424997  86.9359988
 100.5414979  96.4283441  87.0247923  99.7037626  94.9443262  87.3481447
  99.1960012  95.8174997  85.4449988  99.9255606  95.2150922  84.9121599
  99.1529220  96.7844374  84.9551859  98.2256341  95.3438323  85.3259691
 110.7610012  43.9114997  84.8019988 111.8302278  43.9455108  84.6175357
 110.2856162  43.4939548  83.9191310 110.5893606  43.2227587  85.6246697
 110.1900012  45.3464997  85.1339988 110.5292316  45.9035436  84.2623178
 110.8477466  45.6288943  85.9515794 108.7100012  45.7564997  85.4649988
 108.3029624  45.0626381  86.2003930 108.1086497  45.6303835  84.5668662
 108.5280012  47.2214997  85.9819988 107.4680556  47.4652146  85.9628040
 109.0082987  47.9103219  85.2887858 109.0500012  47.4644997  87.3639988
 109.0973983  48.5306946  87.5702868 110.0706058  47.0930076  87.4396612
 108.1590012  46.7684997  88.4679988 108.0897107  45.6937425  88.3101603
 107.1379774  47.1439581  88.4571116 108.7920012  47.0434997  89.8629988
 108.7226362  48.1011774  90.1105394 109.8540650  46.8023478  89.8531902
 108.0940012  46.2184997  90.9589988 108.8727490  45.6213826  91.4317080
 107.4430190  45.5152743  90.4428783 107.3130012  46.9294997  92.0109988
 106.8287103  46.1885929  92.6435022 106.5113389  47.4886511  91.5300992
 108.1430012  47.8844997  92.8879988 108.2968529  48.8157318  92.3472259
 109.1324913  47.4563585  93.0462184 107.4730012  48.1774997  94.2909988
 106.4418655  48.4853435  94.1312100 107.9706801  49.0221796  94.7642423
 107.4770012  46.9834997  95.2539988 107.0658739  46.1243915  94.7294737
 106.7831432  47.2066837  96.0623428 108.8240012  46.6324997  95.8549988
 109.3056027  47.5245230  96.2519955 109.5055510  46.2226199  95.1148890
 108.6690012  45.6254997  97.0059988 108.0585607  44.7915629  96.6754586
 108.1267951  46.1118984  97.8125475 110.0330012  45.0754997  97.5779988
 110.6730020  45.8934013  97.8837386 110.5499692  44.4920134  96.8254320
 109.8700012  44.1344997  98.7119988 108.8290012  43.5544997  99.1199988
 111.0470012  44.0684997  99.3329988 111.0160012  43.4914997 100.6899988
 111.7897289  42.7421544 100.7627247 110.0508618  43.0088759 100.7426520
 111.1780012  44.5584997 101.8419988 111.4014826  44.0856001 102.7839733
 109.8390012  45.3434997 101.9489988 109.0234383  44.6376951 102.0296105
 109.7233101  45.9038271 101.0296328 109.8490012  46.2394997 103.0889988
 109.1800012  47.6594997 102.9939988 109.6000012  48.1934997 101.5519988
 109.0010012  49.2874997 100.9889988 108.1036175  49.5388372 101.5391996
 108.6817497  49.0136865  99.9875489 109.9220012  50.5544997 100.7979988
 110.1507279  50.9089646 101.7951385 109.4684807  51.3599746 100.2386184
 111.2320012  50.2964997 100.1509988 110.9290012  49.5644997  98.8079988
 110.2791334  48.7245316  99.0116150 111.8652461  49.2101532  98.4030493
 110.4788684  50.2650888  98.1207780 111.9490012  51.5164997  99.7729988
 111.9723543  52.1782831 100.6251791 111.4508665  51.9712473  98.9354807
 112.9538484  51.2289851  99.4992939 112.1440012  49.5204997 101.0789988
 112.2818232  50.0802431 101.9921112 113.0987984  49.3736145 100.5968817
 111.7001791  48.5608275 101.3014540 107.7240012  47.5094997 102.9489988
 109.8090012  48.5344997 103.9979988 112.1780012  45.5364997 101.5209988
 113.4260012  45.2404997 101.7869988 113.8020012  44.2674997 102.3659988
 114.3120012  46.3424997 101.3019988 113.8248609  47.3038583 101.4286357
 115.2410403  46.4036090 101.8632998 114.5840012  46.0184997  99.7969988
 114.9691987  45.0060311  99.7460937 113.6312105  46.0035762  99.2773832
 115.5590012  46.9654997  99.0739988 115.2218871  47.9884667  99.2207862
 116.5220323  46.8891664  99.5728066 115.7670012  46.6764997  97.5209988
 116.8128103  46.8494565  97.2738648 115.5728946  45.6287411  97.3048352
 114.8890012  47.5554997  96.5799988 113.8632430  47.6058180  96.9394279
 115.2582998  48.5791990  96.5737452 114.8990012  47.0004997  95.0839988
 115.7591321  47.4058874  94.5533986 115.0165723  45.9204693  95.0785699
 113.6100012  47.3604997  94.3159988 113.4296635  46.5865658  93.5790559
 112.7816652  47.3112100  95.0215313 113.6190012  48.6974997  93.6919988
 113.0483138  49.5301518  94.0748309 114.3960012  48.9284997  92.5729988
 114.3893897  49.9297195  92.1666428 115.3070012  47.9324997  91.7939988
 116.3501100  48.2378201  91.8566430 115.2659912  46.9142820  92.1644472
 114.8820012  47.9554997  90.2969988 115.1976081  47.0306764  89.8155435
 113.7952624  47.9712988  90.2403566 115.4230012  49.1074997  89.5519988
 114.9846499  49.9864381  90.0246745 116.4841549  49.1355643  89.7836649
 115.2220012  49.2044997  87.9779988 115.4906701  50.2144086  87.6762606
 115.9452515  48.5429047  87.5044103 113.7980012  48.8584997  87.4629988
 113.6021722  47.7969835  87.6023703 113.0426647  49.3786147  88.0457270
 113.6160012  49.1934997  85.9029988 113.9077953  50.2322674  85.7591215
 114.3464862  48.5968188  85.3596779 112.2660012  48.9844997  85.2729988
 111.9487748  47.9497973  85.3763110 111.5337623  49.5745223  85.8198192
 112.2200012  49.3724997  83.8499988 111.2099920  49.2889396  83.4601677
 112.8578063  48.7441354  83.2375415 112.5426002  50.4010266  83.7150795
  35.3570012  52.6984997  84.8359988  34.9895615  51.7274084  85.1528566
  35.4304555  52.6874704  83.7523601  34.6097552  53.4391677  85.1073775
  36.6780012  53.0114997  85.4649988  37.3589056  52.2074136  85.1911049
  36.5357449  52.9381149  86.5397973  37.3130012  54.3454997  85.1119988
  36.8950775  55.1233497  85.7509183  37.0287362  54.6065633  84.0945460
  38.8510012  54.3764997  85.2129988  39.1782939  55.4061423  85.0866443
  39.2715923  53.8216015  84.3758028  39.4240012  53.8424997  86.5059988
  40.5017765  53.7073764  86.4645869  39.0042338  52.8722784  86.7664428
  39.0800012  54.8864997  87.6519988  38.0260247  54.7850610  87.9043098
  39.2014806  55.8904950  87.2509837  39.9170012  54.7464997  88.9189988
  39.5020021  55.4126439  89.6731855  40.9187432  55.1162803  88.7045105
  40.0120012  53.3514997  89.4849988  40.7431164  53.3532172  90.2924135
  40.4088619  52.6900779  88.7170751  38.6880012  52.7844997  90.0039988
  38.8989935  51.8768778  90.5654663  38.0851337  52.4795758  89.1495110
  37.8660012  53.7564997  90.8889988  37.5618143  54.6277587  90.3130847
  38.4729227  54.1317113  91.7125833  36.6580012  53.0604997  91.4439988
  37.0107687  52.3031526  92.1407925  36.1759498  52.5214070  90.6302828
  35.5760012  53.9644997  92.1899988  34.6138859  53.4640945  92.2684070
  35.3935715  54.8907919  91.6483605  36.0950012  54.3024997  93.5559988
  36.1081703  55.3785789  93.7207166  37.1110995  53.9565855  93.7238128
  35.1830012  53.6814997  94.5959988  35.0737108  52.6121008  94.4483956
  34.1866689  54.1110430  94.5334961  35.7250012  53.9354997  95.9639988
  35.8738810  54.9961602  96.1217169  36.6734456  53.4280436  96.0944231
  34.9820012  52.9424997  96.9169988  34.1000012  52.1144997  96.5159988
  35.3530012  53.1864997  98.1519988  34.7550012  52.3964997  99.1819988
  33.8780800  51.9940925  98.6977056  34.4485395  52.9893396 100.0315952
  35.6990012  51.2524997  99.6169988  35.1399735  50.6083939 100.2754134
  36.9540012  51.7354997 100.3129988  37.3446181  50.8874760 100.8589614
  36.6052029  52.4746466 101.0233414  37.9530012  52.2884997  99.4759988
  39.4450012  51.8364997  99.3269988  40.0920012  52.0124997 100.7499988
  40.6060012  53.3444997 101.1189988  39.9509121  54.1386392 100.7852477
  41.5635491  53.5108162 100.6339857  40.8910012  53.4604997 102.6239988
  41.4237010  54.3947982 102.7487634  41.5153291  52.6543646 102.9814032
  39.6760012  53.5294997 103.6049988  38.5520012  54.3964997 103.2259988
  38.9390412  55.3758127 102.9800720  37.8875787  54.4704936 104.0740363
  38.0292802  53.9490631 102.3939649  39.1870012  52.1774997 103.6579988
  40.0196446  51.5193018 103.8534327  38.7088703  51.9402596 102.7244689
  38.4737605  52.1234516 104.4677293  40.1820012  53.9784997 104.9869988
  40.9283047  53.2806178 105.3363894  39.3533205  53.9987033 105.6787575
  40.6124476  54.9665344 104.9099384  39.4250012  50.3534997  99.0529988
  40.1550012  52.6744997  98.3569988  35.9650012  50.5044997  98.4409988
  35.5630012  49.2534997  98.3379988  34.9630012  48.6724997  99.1969988
  35.9750012  48.7024997  97.0199988  36.0646540  47.6281872  97.1439672
  35.1649152  48.8534858  96.3108649  37.3140012  49.3494997  96.4979988
  37.1912089  50.4178376  96.3578660  38.1163780  49.2317081  97.2193514
  37.7140012  48.7144997  95.1699988  37.9260493  47.6572766  95.3077268
  36.8734117  48.7680270  94.4825330  38.9040012  49.4044997  94.5329988
  38.8421078  50.4582370  94.7985414  39.8130005  49.0274564  94.9953412
  39.0410012  49.2994997  93.0269988  38.2764544  49.9269099  92.5734289
  39.9969843  49.7439954  92.7569972  38.9690012  47.9244997  92.4379988
  39.7394635  47.2925856  92.8770585  38.0178573  47.4517250  92.6663131
  39.1430012  47.9564997  90.9529988  40.1652101  48.2853787  90.8063447
  39.1120605  46.9092140  90.6553723  38.1710012  48.7504997  90.0609988
  37.1405319  48.7933129  90.3801446  38.4890012  49.4034997  88.9329988
  37.6717703  49.8867566  88.4170468  39.7800012  49.5704997  88.2859988
  39.5925491  50.1813931  87.4045840  40.4188122  50.1603216  88.9338503
  40.5380012  48.2934997  87.8389988  41.5268791  48.5836063  87.4859213
  40.6998902  47.6747612  88.7195745  39.8220012  47.4474997  86.7429988
  40.3740902  46.5190666  86.5969959  38.8347735  47.1615482  87.0953016
  39.6870012  48.2134997  85.3289988  38.9935800  49.0457607  85.4272520
  40.6436043  48.6467506  85.0421382  39.2210012  47.2834997  84.2469988
  39.8282457  46.3841950  84.1627657  38.1964602  46.9401360  84.3612013
  39.3730012  48.1074997  82.8879988  38.9182414  49.0921873  82.9800139
  40.4231787  48.2802404  82.6596970  38.7340012  47.3874997  81.7069988
  38.9287769  46.3191332  81.7576998  37.6540566  47.4952401  81.7806518
  39.1790012  47.9114997  80.3809988  38.6342250  47.4307567  79.5740451
  40.2356720  47.7360475  80.2095221  39.0057145  48.9812901  80.3057581
  39.0680012 111.5244997  84.5449988  39.8833897 110.8858466  84.8701032
  38.8797643 112.2482787  85.3327175  39.4059827 112.0719348  83.6693874
  37.7590012 110.6724997  84.2189988  37.4763161 110.1160331  85.1109837
  38.0133458 109.9321933  83.4652951  36.5800012 111.5034997  83.7559988
  35.6969513 110.8713750  83.6634222  36.7838994 111.8841505  82.7571487
  36.2520012 112.7144997  84.6909988  35.4944033 113.2881470  84.1616367
  37.1468700 113.3348187  84.7019566  35.7760012 112.4844997  86.1299988
  36.5083643 111.8662639  86.6428358  34.8588347 111.8994261  86.0868748
  35.5350012 113.7204997  86.9369988  34.6320007 114.2310505  86.6072338
  36.3488726 114.4318015  86.8135485  35.4040012 113.3714997  88.3729988
  34.5377631 112.7182136  88.4602851  35.1462177 114.2903536  88.8978656
  36.6650012 112.6814997  89.0979988  37.5828119 113.1596182  88.7581797
  36.7335232 111.6394875  88.7910794  36.5950012 112.7524997  90.5999988
  37.2612697 112.0083765  91.0311691  35.5911810 112.4893628  90.9311801
  36.9650012 114.1554997  91.1519988  36.1535440 114.8357387  90.9027776
  37.8401512 114.5127382  90.6098530  37.2500012 114.2074997  92.6609988
  37.2914101 115.2590150  92.9369366  38.2531405 113.8144127  92.8169543
  36.2700012 113.4934997  93.6139988  36.6903398 113.4768420  94.6166238
  36.1744966 112.4535981  93.3071541  34.8960012 114.1174997  93.6369988
  34.3423326 113.8314748  92.7443102  34.9491531 115.2025603  93.6273931
  34.0790012 113.6624997  94.8719988  34.6269888 113.8791791  95.7830995
  33.9496716 112.5841947  94.8316953  32.6650012 114.3314997  94.9499988
  32.1118922 114.1561896  94.0360087  32.7609144 115.4004831  95.0988078
  31.7480012 113.6434997  96.0079988  30.7480012 113.0514997  95.8059988
  32.4330012 113.5874997  97.1679988  31.9160012 112.9884997  98.4009988
  30.8674453 113.1565568  98.2067068  32.2045115 113.5404622  99.2837735
  32.1930012 111.4754997  98.5779988  31.4356561 111.0266096  97.9568545
  32.0790012 110.9244997 100.0369988  31.8201969 109.8744246 100.0242023
  31.2958537 111.4686101 100.5500376  33.3230012 111.1204997 100.6859988
  33.4400012 111.6294997 102.2089988  35.0470012 111.9944997 102.3229988
  35.7330012 112.1844997 101.1079988  36.6256730 112.7754075 101.2665986
  35.0960753 112.7609928 100.4433349  36.0500012 110.9144997 100.3509988
  36.6056794 111.2561417  99.4868510  35.1119861 110.4949779 100.0170734
  36.8340012 109.7714997 100.9129988  35.8530012 108.8794997 101.6249988
  35.2660149 109.4837466 102.3029861  36.4146259 108.1463549 102.1846205
  35.2362391 108.3814095 100.8920405  37.3790012 108.9064997  99.7309988
  37.8627091 109.5608156  99.0220479  36.5612370 108.3735373  99.2797972
  38.0962000 108.2114943 100.1431763  37.9190012 110.2324997 101.8659988
  38.5857840 110.9050215 101.3471568  38.4716377 109.3737546 102.2164267
  37.4686789 110.7400373 102.7068617  32.6880012 112.8694997 102.3289988
  33.0780012 110.5044997 103.0399988  33.4430012 111.2014997  97.9449988
  33.7540012 109.9384997  97.7869988  33.1780012 108.9464997  98.1549988
  35.0040012 109.9304997  96.8569988  35.0373824 110.8738462  96.3217082
  35.9142925 109.8927501  97.4501696  34.9150012 108.7144997  95.8889988
  35.1090853 107.8034217  96.4442728  33.9038109 108.6225707  95.5054935
  35.9220012 108.8144997  94.7059988  36.0048775 109.8406292  94.3569377
  36.9141327 108.5292998  95.0471747  35.5110012 107.8724997  93.5169988
  36.3704219 107.7147293  92.8679914  35.2196085 106.8897859  93.8797191
  34.3200012 108.4714997  92.6369988  34.1621795 107.8143322  91.7842829
  33.4121785 108.4155765  93.2345870  34.4920012 109.8984997  92.1479988
  34.5701546 110.5409802  93.0236767  35.4404476 109.9776410  91.6240674
  33.4060012 110.4114997  91.2529988  33.7356213 111.3503056  90.8233780
  33.3031926 109.7137026  90.4230255  32.0720012 110.5614997  91.9209988
  32.0060634 111.0102783  92.9006946  30.9350012 110.1754997  91.3549988
  30.0452498 110.3369039  91.9465232  30.6710012 109.5414997  89.9979988
  31.6184265 109.4257980  89.4743392  30.2510025 108.5460201  90.0891175
  29.7550012 110.3994997  89.1399988  29.4214970 109.8229186  88.2780044
  28.8595245 110.6357714  89.7116248  30.3870012 111.6634997  88.6769988
  29.5888617 112.3138335  88.3190236  30.8158022 112.1581342  89.5441610
  31.4380012 111.5304997  87.6039988  31.6946724 112.5502783  87.3259405
  32.3170561 111.1191875  88.0971211  31.1310012 110.7044997  86.3439988
  30.9955323 109.6483199  86.5692156  30.2223147 111.0189513  85.8380006
  32.3380012 110.8354997  85.3919988  32.4207132 111.8408960  84.9830735
  33.2764847 110.6415160  85.9081896  32.2090012 109.8414997  84.2239988
  32.9310240 110.0962361  83.4521779  32.5071406 108.8641723  84.5971703
  30.7800012 109.7224997  83.5839988  30.7588038 108.9403770  82.8310686
  30.4729900 110.6450802  83.1030307  30.0346166 109.4783629  84.3356237
  64.3910012  31.7514997  84.4369988  64.4663725  31.2713734  83.4663150
  64.8690088  32.7240759  84.3635533  63.3370799  31.9177975  84.6424422
  65.0110012  30.9324997  85.4869988  66.0327695  30.7761507  85.1453154
  64.5112069  29.9711242  85.4046772  65.0330012  31.3834997  86.9239988
  65.6731571  32.2652516  86.9493539  65.5713875  30.6049766  87.4608535
  63.7070012  31.6874997  87.6909988  63.1633461  30.7601258  87.8573325
  63.0548322  32.3147619  87.0852565  63.9470012  32.3624997  89.0419988
  64.0851102  33.4151436  88.8086757  64.9201710  31.9889975  89.3563262
  62.9500012  32.2364997  90.2149988  62.7484585  31.1833494  90.4022739
  61.9997866  32.6816047  89.9276822  63.4460012  32.8944997  91.5069988
  63.6926896  33.9284504  91.2727752  64.3837236  32.4122513  91.7796579
  62.4710012  32.8604997  92.7339988  61.5246621  33.2770056  92.3913382
  62.8650805  33.5632139  93.4658308  62.2130012  31.5154997  93.4149988
  63.1872519  31.1503304  93.7328476  61.8781304  30.8411556  92.6277893
  61.2120012  31.4414997  94.6199988  60.2917700  31.9611443  94.3622332
  61.6283241  31.9661824  95.4795406  60.9020012  29.9864997  95.0169988
  61.8215763  29.4804233  95.3030218  60.5060645  29.4355268  94.1656521
  59.9400012  29.8924997  96.1549988  58.9419558  30.0695987  95.7616029
  60.1517933  30.7195957  96.8300737  59.9670012  28.5834997  96.9589988
  59.6698424  27.7393831  96.3389859  59.2831221  28.5966619  97.8030427
  61.4030012  28.3144997  97.4759988  61.7916007  29.2117068  97.9464823
  62.0400484  28.1069545  96.6203190  61.5050012  27.1944997  98.4159988
  61.0917604  26.2942691  97.9791258  60.9653308  27.4174675  99.3287475
  62.8950012  26.9484997  98.9359988  63.0530012  26.1424997  99.8399988
  63.8450012  27.6274997  98.3759988  65.1040012  27.4154997  99.0409988
  65.4767432  26.4441456  98.7529075  64.9944896  27.4473619 100.1153283
  66.0840012  28.5494997  98.5379988  67.0789299  28.2148091  98.7808835
  65.7830012  29.8344997  99.2679988  66.6409896  30.4916992  99.2262174
  65.5812629  29.5927736 100.3040756  64.6490012  30.4574997  98.6739988
  64.2550012  31.7944997  99.5379988  63.6820012  31.2094997 100.9359988
  62.9060012  30.0284997 100.9589988  62.8986957  29.5569026  99.9849701
  61.8767346  30.2968262 101.1790172  63.3160012  28.9974997 102.0859988
  64.3487822  28.7132175 101.9285316  62.6996667  28.1118272 102.0303824
  63.2340012  29.4694997 103.5149988  61.8010012  29.9734997 103.6599988
  61.5942150  30.6629785 102.8530338  61.7227136  30.4874325 104.6064892
  61.1294444  29.1281433 103.6499467  63.4390012  28.2904997 104.4149988
  64.3257863  27.7651830 104.0950480  62.5698814  27.6588811 104.3696240
  63.5740326  28.6692124 105.4178149  64.1780012  30.5344997 103.8489988
  65.1839251  30.1901151 103.6603235  64.0720250  30.7878343 104.8931446
  63.9693335  31.4044882 103.2431830  65.4130012  32.6554997  99.7169988
  63.1000012  32.3384997  98.8309988  65.9950012  28.8254997  97.0969988
  66.3530012  27.7994997  96.3069988  66.8380012  26.7304997  96.6929988
  66.3900012  28.2454997  94.8239988  66.1321186  29.2978799  94.7644551
  67.3950199  28.1621219  94.4179292  65.3720012  27.3394997  94.0169988
  65.3235295  27.7055723  92.9973408  65.7684115  26.3309955  93.9552639
  63.9990012  27.3084997  94.5889988  64.0437591  27.0631834  95.6470492
  63.5703620  28.3057349  94.5269073  63.0860012  26.3484997  93.8749988
  62.9320545  26.7207469  92.8638418  63.5787306  25.3847172  93.7723189
  61.7030012  26.1344997  94.5299988  61.8533127  25.7106902  95.5208030
  61.2560955  27.1147019  94.6844653  60.7000012  25.2504997  93.7379988
  61.0491617  24.2295439  93.8844131  59.7514487  25.3282123  94.2619521
  60.4460012  25.5034997  92.1809988  61.2795430  25.0892112  91.6258834
  59.5672233  24.9306938  91.8877601  60.2250012  26.9164997  91.8309988
  59.6085689  27.4177677  92.5619540  60.6630012  27.6494997  90.7939988
  60.4422927  28.6948661  90.6324225  61.5650012  27.0184997  89.7039988
  62.2660906  27.7758263  89.3573708  62.1656364  26.2088679  90.1032665
  60.7620012  26.5094997  88.4859988  61.3098622  25.6649098  88.0698002
  59.8301512  26.1041439  88.8756159  60.4490012  27.5094997  87.3769988
  59.7911945  27.0847377  86.6187279  59.9492618  28.3999891  87.7482037
  61.8000012  27.9104997  86.7169988  62.4310123  28.2945126  87.5154372
  62.2714612  26.9920513  86.3716541  61.7460012  28.9494997  85.5239988
  61.4453330  29.9241287  85.9038498  62.7369147  29.0888366  85.1005599
  60.7760012  28.5544997  84.4449988  60.7681339  27.4666688  84.4069849
  59.7861669  28.8516864  84.7866742  60.9780012  29.0834997  83.0409988
  60.1409427  28.8260346  82.3968250  61.0053020  30.1705594  83.0704732
  62.2900012  28.5714997  82.4079988  62.4559886  29.0324934  81.4389777
  62.2759311  27.4971391  82.2586924  63.1443814  28.8060818  83.0366056
  33.4650012  65.9644997  84.9089988  33.4610081  66.5059902  83.9681475
  32.4318239  65.7915880  85.1961159  33.9232645  64.9955816  84.7306604
  34.2050012  66.7244997  85.9729988  33.7274428  67.6974764  86.0752599
  35.2065963  66.9141956  85.5966524  34.2780012  66.0454997  87.3609988
  34.4871300  66.7943471  88.1248192  35.1216292  65.3582653  87.3740983
  32.9850012  65.2524997  87.7549988  32.9567299  64.3238733  87.1892215
  32.1036016  65.8162551  87.4533025  32.8870012  64.9154997  89.2669988
  33.1045483  65.7991043  89.8615483  33.6493397  64.1809282  89.5211832
  31.5390012  64.3854997  89.6589988  31.4986570  63.3554855  89.3093415
  30.8073856  64.9352707  89.0707238  31.1530012  64.4324997  91.0829988
  30.0692280  64.3754865  91.1663965  31.4403682  65.3948136  91.5044274
  31.7890012  63.2994997  91.9189988  32.8704686  63.3843914  92.0173485
  31.5970404  62.3037693  91.5235798  31.1360012  63.4274997  93.3209988
  30.0728840  63.2103081  93.2425719  31.2106678  64.4603266  93.6590378
  31.7760012  62.4914997  94.3859988  32.8299582  62.7497862  94.4619035
  31.7384022  61.4718573  94.0034484  31.1230012  62.5334997  95.7759988
  31.6095786  61.7757477  96.3864047  30.0866067  62.2172864  95.6710046
  31.1720012  63.8964997  96.5489988  30.4512414  63.8597433  97.3622474
  30.8311397  64.6810760  95.8760028  32.6020012  64.2924997  97.1049988
  33.3436161  64.0357242  96.3504621  32.8352251  63.6898004  97.9782880
  32.7810012  65.7834997  97.4599988  32.0698177  66.0754098  98.2257347
  32.5628269  66.3858366  96.5821137  34.1830012  66.1094997  97.9319988
  34.9129624  65.7958375  97.1965984  34.3931095  65.6050207  98.8676399
  34.1280012  67.6104997  98.1049988  33.7430012  68.3264997  97.1969988
  34.3140012  68.0054997  99.3879988  34.2530012  69.4434997  99.6279988
  34.3153023  69.8898452  98.6470012  35.0583372  69.8226054 100.2402933
  32.8880012  69.7464997 100.2649988  32.8824159  70.8116146 100.4274579
  32.6670012  69.0054997 101.6129988  31.7281909  69.3583422 102.0178920
  33.4703704  69.3401348 102.2573606  32.6660012  67.5524997 101.5159988
  31.4100012  66.8124997 102.0889988  31.7860012  65.2504997 102.1819988
  32.0620012  64.6354997 100.9559988  32.7980570  63.8477895 101.0504629
  32.4781592  65.3649146 100.2671132  30.7300012  64.0964997 100.2439988
  31.0014043  63.6441880  99.2984812  30.1132956  64.9622930 100.0504706
  29.8270012  63.0874997 100.9419988  28.6340012  62.6414997 100.0889988
  28.1256176  63.5214745  99.7195065  27.9665326  62.0741148 100.7203941
  28.9921950  62.0156873  99.2853987  30.7230012  61.8884997 101.4139988
  31.5729405  62.2851747 101.9478209  31.0291164  61.3193649 100.5544937
  30.1236517  61.2772146 102.0730950  29.2410012  63.7034997 102.1359988
  30.0333930  64.0308913 102.7925137  28.6264778  62.9762462 102.6450306
  28.6342201  64.5487736 101.8448565  31.2360012  67.3514997 103.4519988
  30.3500012  67.0844997 101.1619988  31.8410012  69.4354997  99.3319988
  31.0510012  70.3654997  98.8489988  31.1280012  71.5324997  99.1409988
  29.9680012  69.7324997  97.9949988  29.1298805  69.5322663  98.6545542
  29.6144693  70.4721501  97.2809683  30.4620012  68.4394997  97.2679988
  31.2498758  68.7268812  96.5804478  30.9269461  67.7895852  98.0024853
  29.3670012  67.6574997  96.4889988  29.6888248  66.6411722  96.2764853
  28.4705324  67.5705199  97.0979678  28.9980012  68.3894997  95.1629988
  28.3752101  69.2491241  95.4035880  29.8936169  68.7857401  94.6906980
  28.2720012  67.5474997  94.1819988  28.7510357  66.5881349  93.9974829
  27.2559868  67.3224286  94.5004934  28.2090012  68.3614997  92.8469988
  28.0222668  69.4160655  93.0437785  29.1439819  68.3133587  92.2958079
  27.1110012  67.8164997  91.9789988  26.1822925  67.9276595  92.5264691
  27.0372193  68.4733540  91.1132940  27.2950012  66.3644997  91.4829988
  27.1624484  65.6381550  92.2706580  27.5720012  65.8954997  90.2629988
  27.6303092  64.8397954  90.0400667  27.8220012  66.7764997  89.0929988
  28.0558965  66.1366605  88.2438110  26.9230408  67.3202332  88.8248476
  28.9830012  67.7694997  89.2819988  28.6569943  68.6766384  89.7894669
  29.7658598  67.3390207  89.9035124  29.5650012  68.1294997  87.9219988
  29.9375693  67.2442261  87.4066439  28.8167786  68.5690857  87.2682166
  30.7010012  69.1074997  88.1159988  30.2917197  69.9363416  88.6892830
  31.4275970  68.6193675  88.7632007  31.4300012  69.6494997  86.8369988
  32.4871755  69.7575249  87.0721646  31.3748833  68.8932241  86.0587737
  30.9310012  70.9834997  86.3029988  29.9715332  70.8349692  85.8108169
  30.7401085  71.6514981  87.1409558  31.8980012  71.7054997  85.3019988
  31.7531636  72.7818967  85.3500245  32.9190749  71.5292336  85.6331356
  31.7590012  71.2194997  83.7939988  32.5107313  71.6892021  83.1668222
  30.7881716  71.4647551  83.3767690  31.8890338  70.1437278  83.7168797
  25.9910012 106.1414997  82.1239988  26.5915809 106.3635279  81.2473937
  26.2838725 106.8318502  82.9097675  24.9537312 106.3478613  81.8748043
  26.1850012 104.5804997  82.6009988  27.2406915 104.4110246  82.8059358
  25.9293277 103.9362443  81.7641116  25.3790012 104.1994997  83.8119988
  25.4819098 103.1228354  83.9466568  24.3343256 104.3731720  83.5616750
  25.6740012 104.8804997  85.0889988  26.6876826 105.2735003  85.0536376
  25.6589982 104.1581305  85.9036543  24.7270012 106.0144997  85.4079988
  23.7273090 105.6670691  85.6559515  24.6138139 106.6948353  84.5655636
  25.2800012 106.7604997  86.5699988  24.9022245 107.7811039  86.5916498
  26.3630202 106.8384362  86.5023778  24.9110012 106.0654997  87.8559988
  25.3780933 105.0826450  87.8316756  23.8361112 105.8923273  87.8267925
  25.2860012 106.7874997  89.2099988  26.3095773 107.1531805  89.1391442
  25.2808604 106.0521637  90.0124566  24.3660012 107.9404997  89.5809988
  23.3427547 107.5774254  89.6494434  24.3729193 108.6796596  88.7808914
  24.7460012 108.6064997  90.8749988  24.0113033 109.3549951  91.1635689
  25.6977406 109.1301934  90.7891741  24.8590012 107.5224997  91.9759988
  25.7147500 106.8844000  91.7660850  23.9851818 106.8736499  91.9522983
  25.0240012 108.1074997  93.4049988  24.0500948 108.4374491  93.7583523
  25.6412453 109.0013488  93.3363453  25.6720012 107.1304997  94.4439988
  25.6030478 107.5646695  95.4399877  26.7312479 106.9965496  94.2431809
  24.9730012 105.7184997  94.4799988  25.2740617 105.1434534  93.6104993
  23.8992259 105.8670817  94.4023968  25.2620012 104.9074997  95.7439988
  24.9998670 105.4760405  96.6272247  26.3133437 104.6503707  95.7953073
  26.7560012 104.5424997  95.8609988  27.6750012 104.9014997  95.1119988
  26.8540012 103.9134997  97.0089988  28.1220012 103.4494997  97.4179988
  28.7442704 103.8724074  96.6437947  28.2364131 102.3752110  97.4156015
  28.5030012 104.0464997  98.8009988  29.5720535 103.9473726  98.8915248
  27.8210012 103.3874997  99.9879988  27.7900206 102.3130512  99.8679915
  26.8061073 103.7576976 100.0623558  28.5420012 103.7274997 101.1179988
  28.4920012 104.9444997 101.9889988  28.5560012 106.1754997 100.9869988
  28.9760012 107.4184997 101.4959988  30.0422920 107.5482254 101.3641504
  28.7938826 107.4341751 102.5666921  28.1860012 108.6444997 100.9269988
  28.4027327 108.7770779  99.8745258  28.5132639 109.5240342 101.4624380
  26.6860012 108.6284997 101.0369988  26.0140012 107.5424997 100.0739988
  26.4016850 107.6808331  99.0740492  24.9471325 107.7094840 100.0767407
  26.2273602 106.5554758 100.4560705  26.1730012 108.2574997 102.4349988
  26.6854520 108.8691801 103.1616040  26.3496115 107.2108656 102.6074397
  25.1131629 108.4662904 102.4561241  26.2250012 109.9794997 100.5789988
  26.6791932 110.7388982 101.1979539  25.1503996 110.0361140 100.6666135
  26.5117261 110.1279939  99.5478958  27.2180012 104.9934997 102.7109988
  29.7170012 104.9474997 102.8279988  28.2650012 105.4804997  98.6299988
  29.2300012 106.2464997  97.9479988  30.3870012 105.9154997  97.8159988
  28.5690012 107.5354997  97.4979988  28.0476749 107.3473504  96.5650616
  27.8050565 107.8382762  98.2097726  29.6460012 108.6224997  97.3459988
  30.0875619 108.8354965  98.3133237  30.4563186 108.2656646  96.7182349
  29.0620012 109.9274997  96.7579988  28.2455454 110.2641027  97.3918382
  29.8303574 110.6941550  96.8207139  28.6010012 109.8284997  95.3359988
  29.2607928 109.1454884  94.8041372  27.6080125 109.3877625  95.2921092
  28.5840012 111.0984997  94.6219988  27.9845182 111.7694500  95.2338376
  29.6064637 111.4664504  94.6816946  28.1030012 111.1874997  93.1229988
  27.3905447 110.3933628  92.9051605  27.5889781 112.1236648  92.9237673
  29.3100012 111.0704997  92.1599988  29.9681499 111.9068131  92.3649380
  29.8565820 110.1728186  92.4459430  28.9850012 110.9874997  90.7159988
  28.6766677 111.8760677  90.1859693  29.0660012 109.8474997  90.0059988
  28.8672164 109.9499127  88.9488298  29.3910012 108.4514997  90.4329988
  29.0593763 108.2909291  91.4574318  28.8983017 107.6950785  89.8323696
  30.9200012 108.2334997  90.3799988  31.4304821 109.1172080  90.7610156
  31.1861474 107.4174706  91.0491189  31.4540012 107.9014997  88.9059988
  31.4801840 108.8627452  88.3927459  32.4892244 107.5980775  89.0354279
  30.7180012 106.8634997  88.0119988  29.6678841 107.1370269  87.9372862
  31.1155204 106.9031555  86.9993335  30.8470012 105.4594997  88.5409988
  31.9004431 105.2067802  88.6457980  30.4253644 105.3943447  89.5402996
  30.2130012 104.4334997  87.6479988  30.4174546 103.4354844  88.0314663
  29.1309200 104.5494575  87.6700942  30.6700012 104.4984997  86.2179988
  30.2661954 105.3599057  85.6918471  31.7516440 104.6057901  86.1749808
  30.2690012 103.2044997  85.4709988  30.6702218 103.2018464  84.4619973
  29.1922466 103.0984787  85.3928949  30.6510050 102.3247698  85.9811844
  49.7180012  37.4854997  82.4049988  49.8680068  36.7892008  81.5857947
  50.6885473  37.8892054  82.6785894  49.1128256  38.3077566  82.0331545
  49.0420012  36.7994997  83.6049988  49.6488876  35.9691177  83.9618708
  48.0875333  36.3739933  83.3070904  48.8400012  37.7964997  84.7399988
  48.4560877  38.7505712  84.3790459  49.7819332  38.0196130  85.2371461
  47.9030012  37.2404997  85.7389988  47.1799050  36.5846935  85.2591028
  47.3237431  38.0267368  86.2206597  48.6650012  36.4324997  86.8159988
  48.9974566  37.0900965  87.6151312  49.5652434  36.0045838  86.3780297
  47.8200012  35.3184997  87.4139988  48.4643846  34.8533517  88.1577893
  47.7105675  34.5934749  86.6102946  46.4880012  35.5864997  88.0169988
  46.1392065  34.6981550  88.5404068  45.7625045  35.7791721  87.2278461
  46.5060012  36.8224997  89.0299988  47.1089645  37.6167430  88.5917480
  47.0212439  36.5157993  89.9383730  45.0950012  37.3914997  89.4039988
  44.4714910  36.6498648  89.8987248  44.5385904  37.7193782  88.5267988
  45.3100012  38.5994997  90.3549988  44.3134503  38.8913126  90.6790831
  45.6752381  39.4095305  89.7242206  46.2300012  38.4514997  91.5639988
  46.0759350  39.3250748  92.1938171  47.2577364  38.5115932  91.2100539
  46.0670012  37.2054997  92.4239988  46.5249634  36.3657488  91.9069802
  45.0049801  36.9774052  92.4929498  46.6510012  37.3284997  93.8819988
  46.3321866  38.2778945  94.3089165  47.7366286  37.3573478  93.8527602
  46.2060012  36.2104997  94.8309988  46.6628639  35.3327177  94.3858916
  45.1421422  36.1544826  94.6161544  46.4010012  36.1634997  96.3599988
  45.9814112  37.0476482  96.8228882  47.4552262  36.1099688  96.6045658
  47.9120012  35.8974997  96.7489988  48.8410012  36.1604997  96.0449988
  47.8970012  35.2644997  97.9319988  49.1780012  35.0614997  98.5709988
  49.7927014  34.8890641  97.7004406  49.2009734  34.1828631  99.1992202
  49.6840012  36.3234997  99.3519988  50.6628387  36.0768267  99.7287261
  48.8250012  36.7994997 100.4579988  49.2876143  37.6557263 100.9298737
  48.7534860  35.9995838 101.1843631  47.5260012  37.1414997  99.9629988
  46.4470012  37.5024997 101.1289988  47.0880012  38.7424997 101.9199988
  47.2290012  39.9374997 101.1679988  46.7922936  40.7863310 101.6778624
  46.6954306  39.8352581 100.2274425  48.7300012  40.2284997 100.7639988
  48.6935029  41.1326635 100.1695203  49.1983720  39.4484444 100.1813158
  49.6910012  40.5264997 101.9159988  49.8650012  39.3344997 102.7909988
  48.8876366  38.9665033 103.0714826  50.4037993  39.6450082 103.6738243
  50.4386428  38.5901914 102.2593433  51.0240012  40.9434997 101.2619988
  50.8201224  41.7020672 100.5219158  51.4847038  40.0776483 100.8210628
  51.6543006  41.3461842 102.0416556  49.2260012  41.7514997 102.7129988
  49.1624655  42.6028101 102.0517002  49.9386539  41.9553537 103.4979954
  48.2569747  41.5524799 103.1475259  45.1670012  37.9404997 100.5019988
  46.3730012  36.3064997 102.0519988  49.9090012  37.2444997  98.3009988
  50.7280012  38.2724997  98.3199988  51.3760012  38.5834997  99.2839988
  50.5220012  39.0784997  97.0259988  51.2270226  39.9015865  96.9709908
  50.6894909  38.4831675  96.1318881  49.0780012  39.5674997  97.0979988
  48.3904810  38.7626726  96.8621377  48.8217991  39.8971290  98.0998660
  48.8680012  40.7144997  96.1029988  47.8494543  41.0854829  96.1841632
  49.5150894  41.5407170  96.3870881  49.1640012  40.3434997  94.6959988
  50.2452801  40.2912112  94.5828270  48.7887440  39.3428171  94.4959529
  48.6330012  41.2664997  93.6699988  47.9146352  40.7788457  93.0142207
  48.1063686  42.1010898  94.1287999  49.7740012  41.8104997  92.8459988
  49.3977308  42.4787715  92.0729953  50.4582661  42.3974975  93.4522438
  50.5550012  40.6704997  92.1919988  51.1709393  40.2288368  92.9666820
  49.8211927  39.9146132  91.9154001  51.3970012  41.0224997  90.9429988
  52.4678914  41.0230830  91.0799213  50.9410012  41.3094997  89.7249988
  51.6453200  41.5326396  88.9364852  49.5070012  41.3584997  89.2949988
  48.9469998  40.6233799  89.8705146  49.0553738  42.3204925  89.5101345
  49.3260012  41.0224997  87.7449988  49.6848030  40.0067193  87.5832688
  48.2562540  41.0015346  87.5458495  50.0090012  41.9744997  86.7439988
  49.9344489  42.9812088  87.1551991  51.0677089  41.7308370  86.7275554
  49.4800012  41.9724997  85.3579988  49.6476861  40.9838585  84.9365543
  48.4004514  42.1063634  85.3996852  50.0910012  43.0494997  84.4349988
  49.5057038  43.9669558  84.4520625  51.0955187  43.3326797  84.7372876
  50.1050012  42.5074997  82.9439988  49.2436452  41.8540303  82.8177977
  49.9401394  43.3554101  82.2816525  51.3150012  41.7844997  82.4889988
  52.1589381  42.4451213  82.3066129  51.6483801  41.0815076  83.2492445
  50.9910012  41.0104997  81.2139988  51.8360494  40.4012998  80.9076689
  50.7506747  41.6716733  80.3882666  50.1429783  40.3483146  81.3640294
  43.5580012 117.9344997  80.9169988  42.9864418 118.8346690  80.7134207
  43.1831133 117.5061534  81.8420764  43.3529855 117.2255011  80.1195643
  45.0800012 118.2414997  81.0149988  45.2810569 118.9591786  81.8085456
  45.4395629 118.6948535  80.0952164  45.8110012 117.0104997  81.2859988
  45.8609373 116.3621053  80.4113445  45.3265161 116.4268417  82.0662478
  47.2940012 117.3644997  81.7649988  47.7688367 117.9229133  80.9612853
  47.8509431 116.4331382  81.8549287  47.4330012 118.1804997  83.0899988
  47.3488082 119.2364019  82.8459599  48.4476557 118.0313618  83.4555108
  46.4510012 117.8524997  84.1949988  45.4554165 117.6986269  83.7827473
  46.3676773 118.6872290  84.8877188  46.8790012 116.6004997  84.9629988
  47.8584036 116.7564774  85.4115650  46.9890051 115.7626278  84.2759036
  45.8990012 116.2364997  86.0319988  44.9125295 116.3033859  85.5749968
  45.9456694 117.0331392  86.7721823  46.0400012 114.8684997  86.7449988
  47.0869985 114.7393525  87.0108154  45.8131738 114.0898039  86.0178404
  45.1550012 114.6614997  88.0139988  44.1039365 114.7054639  87.7371788
  45.3197772 115.4773265  88.7173511  45.4620012 113.3174997  88.7139988
  46.4485910 113.3960496  89.1656750  45.5387046 112.5424627  87.9533659
  44.5260012 112.8944997  89.7339988  44.7148215 111.8592363  90.0074866
  43.5138103 112.9236691  89.3348888  44.5880012 113.7894997  90.9789988
  44.3638771 114.8178573  90.7006087  45.5874065 113.8005201  91.4048408
  43.5730012 113.3574997  92.0769988  43.8645583 112.3921225  92.4774815
  42.6017750 113.2231748  91.6082039  43.4250012 114.3524997  93.2239988
  43.1664835 115.3328178  92.8442803  44.3519817 114.4282571  93.7799095
  44.5910012 114.4234997  94.1069988  45.7350012 113.9974997  93.8759988
  44.3020012 115.0744997  95.2329988  45.3370012 115.3754997  96.2179988
  45.9588944 116.1763449  95.8473807  45.9330325 114.4791299  96.3099761
  44.7170012 115.7644997  97.5679988  45.5343918 115.7531543  98.2698804
  43.6100012 114.7984997  98.0369988  43.9099137 113.7723981  97.8727760
  42.7145182 114.9947044  97.4606317  43.3730012 115.0294997  99.4059988
  42.0700012 114.5204997 100.1049988  42.3750012 114.5314997 101.6519988
  43.7120012 114.4964997 102.1419988  44.3552284 113.8375954 101.5734103
  43.7291495 114.1352890 103.1662203  44.3260012 115.9924997 102.2089988
  44.4904393 116.1786017 101.1551605  45.2673901 116.0908421 102.7300484
  43.4330012 117.1674997 102.7129988  42.8830012 116.9824997 104.0839988
  42.4065842 116.0131930 104.1369647  42.1510310 117.7574065 104.2567388
  43.6861155 117.0765386 104.7994574  44.3050012 118.4074997 102.6439988
  44.7573951 118.4543252 101.6652950  45.0487586 118.3572237 103.4190260
  43.6629220 119.2628689 102.7968871  42.3930012 117.5044997 101.7109988
  42.8697964 117.7709597 100.7794692  41.8106123 118.3391818 102.0712473
  41.7471456 116.6514421 101.5606712  40.9210012 115.4224997  99.7969988
  41.7990012 113.0924997  99.7169988  44.0480012 117.0114997  97.5519988
  44.8660012 118.0914997  97.2939988  46.0880012 118.1144997  97.2209988
  43.9690012 119.3794997  97.3839988  43.2045767 119.2019091  98.1334452
  44.5591268 120.2145910  97.7531616  43.3580012 119.6984997  95.9979988
  42.7769010 120.6121011  96.0589586  44.1446690 119.8908505  95.2753731
  42.4550012 118.5604997  95.4959988  43.0189867 117.6968209  95.1530216
  41.7964206 118.1997437  96.2822505  41.5990012 119.1114997  94.3589988
  41.2120058 120.0704915  94.6985209  42.2529483 119.3282653  93.5178283
  40.3790012 118.2334997  93.8469988  39.7528991 117.8897637  94.6678172
  39.7298798 118.8122782  93.1927527  40.9090012 117.0164997  93.0639988
  41.3167337 117.3724891  92.1191566  41.7382340 116.5729981  93.6080550
  39.8300012 115.8904997  92.7779988  40.2243318 115.1745939  92.0662669
  39.6384471 115.3365968  93.6960645  38.5370012 116.4784997  92.2939988
  37.9820240 117.0990234  92.9813885  38.0110012 116.3054997  91.0539988
  37.0596562 116.7834690  90.8693418  38.5470012 115.5544997  89.8909988
  38.8590633 114.5540565  90.1858745  37.8401752 115.4250047  89.0790202
  39.7820012 116.3114997  89.3769988  39.5787971 117.3816311  89.3617750
  40.6043745 116.1689187  90.0754483  40.2290012 115.8464997  87.9569988
  39.3475851 115.7881428  87.3184009  40.8702234 116.6074247  87.5207292
  40.9660012 114.4754997  87.9399988  42.0073706 114.6432575  88.2056151
  40.5508178 113.8420240  88.7219299  40.8780012 113.7214997  86.5599988
  41.4904299 112.8230468  86.6079935  39.8603670 113.3784744  86.3945318
  41.3520012 114.5504997  85.3649988  40.8440252 115.5120172  85.3167551
  42.4152147 114.7739276  85.4320125  41.1010012 113.8144997  84.0839988
  41.2001134 112.7381866  84.2007976  40.0787936 113.9833015  83.7524711
  42.0460012 114.2924997  83.0059988  41.8113020 113.8269307  82.0535121
  43.0788553 114.0554736  83.2378865  41.9759770 115.3685631  82.8743737
  81.6010012 115.2234997  83.3099988  80.9125113 114.5524703  82.8058855
  81.8978449 115.9890609  82.5989503  81.0567031 115.7135309  84.1126325
  82.8110012 114.4724997  83.8479988  83.2797537 113.9703558  83.0034127
  82.4317248 113.6880227  84.4972748  83.8600012 115.3014997  84.5839988
  84.2233294 116.1250088  83.9693816  84.7323057 114.6963305  84.8228003
  83.2870012 115.8584997  85.8839988  82.8914778 115.0493281  86.4939599
  82.4483423 116.5240517  85.6855101  84.3790012 116.6294997  86.7169988
  83.8799245 117.0199667  87.6001924  84.6566300 117.4936964  86.1157906
  85.6830012 115.8664997  87.1629988  86.2337993 116.5103126  87.8463313
  86.3165019 115.7392854  86.2877443  85.4630012 114.5474997  87.8029988
  85.1820658 113.8519545  87.0142895  84.5901918 114.6458688  88.4470153
  86.6080012 113.9624997  88.5999988  87.0877001 114.7446369  89.1870262
  87.3707895 113.5774981  87.9257497  86.1130012 112.7554997  89.6049988
  86.9148586 112.0274436  89.7074689  85.2802504 112.2268371  89.1428093
  85.6980012 113.2384997  90.9739988  84.8479855 112.6439083  91.3014640
  85.3376566 114.2630278  90.8849878  86.8620012 113.1834997  92.0739988
  87.4735290 114.0811934  92.0130022  87.5328508 112.3473801  91.8842808
  86.3030012 113.0724997  93.5089988  85.5809433 112.2619885  93.5716340
  85.7625104 113.9816021  93.7660444  87.4310012 112.8604997  94.5419988
  87.9597031 113.8092354  94.6170102  88.1369746 112.1514383  94.1187877
  87.0560012 112.4054997  95.9809988  87.9411412 112.3780066  96.6079886
  86.6670466 111.3914794  95.9413852  86.0030012 113.3064997  96.6349988
  85.1220893 113.3755373  96.0094836  86.4006388 114.3029437  96.7868294
  86.6990012 114.3324997  97.4619988  87.9030012 114.5794997  97.4659988
  85.7580012 114.9934997  98.1069988  86.2360012 115.9124997  99.0979988
  86.3946892 116.8515516  98.5896076  87.1710931 115.5792664  99.5243211
  85.1470012 116.0724997 100.1989988  85.3160309 117.0374702 100.6475017
  85.1990012 114.9764997 101.2799988  86.2271886 114.8562856 101.5933359
  84.8714753 114.0598857 100.8055194  84.3650012 115.2824997 102.4039988
  82.9450012 114.6844997 102.5209988  83.1360012 113.2484997 101.7449988
  81.9610012 112.5814997 101.3329988  81.2085089 113.2923167 101.0172717
  81.5468932 112.0535800 102.1871723  82.1880012 111.4864997 100.2459988
  82.6641199 112.0256096  99.4367272  81.2487076 111.0869255  99.8918165
  83.0940012 110.2594997 100.5259988  82.7620012 109.5224997 101.7979988
  82.7186808 110.2361780 102.6092450  83.5496705 108.8076496 101.9841878
  81.8245036 109.0030634 101.6676101  83.0150012 109.2784997  99.3549988
  83.1774510 109.8248918  98.4386038  82.0519610 108.8000935  99.3621594
  83.7972650 108.5462856  99.4936449  84.4540012 110.7904997 100.5179988
  84.6490745 111.2541855  99.5624760  85.1514509 109.9818417 100.6770149
  84.5608834 111.5202861 101.3075702  82.7020012 114.4284997 103.9499988
  81.9460012 115.5104997 101.7839988  83.8330012 116.0594997  99.5859988
  83.4420012 117.1544997  99.0059988  84.0100012 118.2284997  98.8329988
  82.0300012 116.9254997  98.3409988  81.3272613 117.4976588  98.9379439
  82.0454079 117.4004842  97.3632159  81.6260012 115.4624997  98.2329988
  81.7816207 115.0004611  99.2016906  80.5584296 115.4112139  98.0440708
  82.3940012 114.6484997  97.1509988  83.2461857 115.2378259  96.8221674
  82.8045684 113.7683597  97.6397249  81.5770012 114.1994997  95.9509988
  80.9230123 113.3961826  96.2851936  80.9254052 115.0133845  95.6424276
  82.3790012 113.6954997  94.7069988  82.8323204 114.5397263  94.1915532
  83.2024612 113.0694884  95.0452359  81.5160012 112.8814997  93.7029988
  81.3429332 111.9013130  94.1445671  80.5426435 113.3571205  93.6212812
  82.1030012 112.7054997  92.2789988  83.0955719 112.2936010  92.4194368
  81.5077408 111.9199994  91.8153173  82.1340012 113.8844997  91.3629988
  83.0622684 114.4231880  91.4799982  81.2750012 114.3514997  90.4739988
  81.5288121 115.2172188  89.8792548  79.8910012 113.7714997  90.1729988
  79.7792396 112.8775700  90.7842435  79.1195925 114.4603409  90.4987402
  79.6450012 113.3864997  88.7119988  78.8935105 112.5989619  88.6701518
  79.2160688 114.2427127  88.1949153  80.8740012 112.9414997  87.9889988
  80.6016297 112.8312110  86.9393525  81.5896265 113.7578702  88.0328571
  81.5440012 111.6464997  88.4769988  81.8131327 111.7701988  89.5236180
  80.8180861 110.8359477  88.4432666  82.7640012 111.2564997  87.6729988
  83.4040029 112.1314514  87.5758020  83.3407130 110.5281057  88.2364442
  82.4800012 110.7274997  86.2759988  81.6790737 109.9922585  86.3290904
  82.1021957 111.5413374  85.6597478  83.6980012 110.0814997  85.5489988
  84.5504483 110.7548370  85.5058055  84.0371290 109.2100131  86.1047113
  83.3320012 109.6564997  84.1699988  84.1551928 109.1285012  83.6981491
  83.0831835 110.5020772  83.5376781  82.4745488 108.9895795  84.1815729
  71.6950012  25.2574997  82.4399988  71.1698471  25.6841833  81.5911270
  71.9484398  24.2310820  82.1909494  72.6252663  25.8054238  82.5624645
  70.8670012  25.3234997  83.6779988  69.9347393  24.7948944  83.4865114
  70.5999604  26.3643028  83.8399620  71.5340012  24.7374997  84.9549988
  72.1889147  23.9058878  84.6953086  70.7704533  24.3256965  85.6119491
  72.3290012  25.7794997  85.7319988  72.8870521  26.3481795  84.9914365
  73.0703662  25.2384725  86.3179795  71.5900012  26.7484997  86.6299988
  70.8675397  27.2791234  86.0151322  72.3173612  27.4903000  86.9556438
  70.8520012  26.1574997  87.8889988  69.8938840  25.7676995  87.5500528
  70.6244799  26.9891179  88.5524911  71.5770012  25.0904997  88.6619988
  72.5638914  25.4703222  88.9199766  71.7412051  24.2431737  87.9976903
  70.8830012  24.6134997  89.9159988  69.8218435  24.5524163  89.6779564
  70.9844900  25.4112698  90.6494473  71.3340012  23.3004997  90.5379988
  72.4178178  23.2432743  90.4631145  70.9442870  22.4843074  89.9309320
  70.9040012  23.0854997  92.0319988  70.9963835  22.0274692  92.2672347
  69.8462498  23.3286120  92.1294022  71.7040012  23.9154997  93.0339988
  71.5903827  24.9594842  92.7498719  72.7576503  23.6781321  92.8975875
  71.3470012  23.7784997  94.4979988  71.1599369  22.7172870  94.6430976
  70.3824931  24.2733004  94.5958064  72.2540012  24.2894997  95.5629988
  71.8742689  23.9527690  96.5261539  72.2202931  25.3751499  95.5853874
  73.7150012  23.8364997  95.4459988  74.1827651  24.3245993  94.5972935
  73.7304687  22.7690205  95.2426738  74.5790012  24.1154997  96.7509988
  74.1124391  23.6650207  97.6178491  74.6724580  25.1815363  96.9210010
  74.9960012  25.6404997  96.7539988  75.8280012  26.0544997  95.8929988
  74.5780012  26.2014997  97.8389988  74.7830012  27.5734997  98.0739988
  75.4134443  27.9458271  97.2806667  75.2700399  27.7463207  99.0227443
  73.4060012  28.2604997  98.0279988  73.6073849  29.3065837  98.1893890
  72.4370012  27.7084997  99.1789988  71.5247737  28.2874982  99.2280175
  72.9443128  27.7789247 100.1330744  72.1380012  26.3014997  98.8589988
  72.2930012  25.1214997  99.9479988  71.6270012  25.8094997 101.2109988
  70.2160012  25.9394997 101.2169988  69.6694191  25.2590027 101.8568119
  69.7780301  25.8503332 100.2270353  69.9660012  27.4724997 101.6539988
  68.9242302  27.7251754 101.5019554  70.5649553  28.0287154 100.9474190
  70.3280012  28.0174997 103.0289988  70.0860012  27.0814997 104.1529988
  69.0724699  26.7113212 104.0818919  70.2091596  27.6294562 105.0753195
  70.8110336  26.2828347 104.1063163  71.7890012  28.5094997 102.9329988
  71.8803779  29.1448415 102.0654130  72.4425760  27.6580767 102.8675089
  71.9993004  29.0741772 103.8297766  69.3700012  29.1764997 103.3119988
  69.4742935  29.9213439 102.5371361  69.6141822  29.6129595 104.2688313
  68.3543568  28.8083660 103.3314678  71.4570012  23.9394997  99.5899988
  73.7150012  24.8614997 100.2739988  72.7280012  28.0864997  96.7779988
  73.1960012  28.8064997  95.7499988  74.1560012  29.5404997  95.8059988
  72.2610012  28.5514997  94.5029988  71.3505332  28.1461915  94.9323314
  71.9972023  29.5338650  94.1192339  72.8270012  27.6424997  93.3739988
  73.6073228  27.0239335  93.8035741  72.0451503  26.9606822  93.0548324
  73.3970012  28.3994997  92.1489988  72.7270127  29.2250808  91.9227570
  74.3367199  28.8485004  92.4610758  73.6550012  27.5454997  90.8559988
  73.3905141  26.5039772  91.0291563  73.0490136  27.8774164  90.0164677
  75.1130012  27.6064997  90.4599988  75.2536950  28.6207854  90.0921255
  75.6437816  27.5519863  91.4085141  75.7630012  26.6054997  89.4699988
  75.8269180  25.6294658  89.9485106  75.1262895  26.4787480  88.5988786
  77.1750012  27.0364997  88.9939988  77.8184979  27.3736475  89.7982520
  77.7088357  26.2312066  88.4911372  76.9210012  28.1494997  87.9929988
  76.5220035  29.0464353  88.4422886  77.1350012  28.1714997  86.6439988
  76.9273431  29.0440201  86.0413412  77.6760012  27.0094997  85.8699988
  78.1494490  27.4009186  84.9711888  78.4558896  26.5036233  86.4281601
  76.6170012  25.9974997  85.4489988  77.1084469  25.0253350  85.4580539
  75.8929879  25.9788462  86.2613508  75.8930012  26.1804997  84.1469988
  75.2673945  25.3096565  83.9511530  75.2191188  27.0304169  84.2104602
  76.8630012  26.3824997  82.9699988  77.3818917  27.3349280  83.0523269
  77.6354585  25.6156046  82.9536712  76.0220012  26.3264997  81.5769988
  76.6952945  26.3169288  80.7219113  75.4341952  25.4157337  81.5020695
  75.1150012  27.5454997  81.4459988  74.5098783  27.6532415  82.3443868
  75.7212489  28.4471738  81.3805664  74.1690012  27.4984997  80.2169988
  74.6941217  27.2892987  79.2883447  73.4377868  26.7010300  80.3296076
  73.4780012  28.7404997  80.1019988  72.7451584  28.7011844  79.3017083
  74.1529454  29.5614338  79.8846088  72.9513745  28.9809270  81.0212376
  57.6500012 117.4064997  83.8779988  57.3890890 118.1633085  83.1447906
  57.8329223 116.4779485  83.3449672  58.5839119 117.7069852  84.3450440
  56.5360012 117.2364997  84.9269988  55.6109217 116.9648100  84.4214143
  56.3538167 118.1970527  85.4012989  56.8700012 116.1464997  86.0189988
  57.1617870 115.2245167  85.5162689  55.9536124 115.9177670  86.5594467
  57.9360012 116.5264997  87.0219988  58.6374147 117.2072462  86.5446590
  58.5112483 115.6428918  87.2940905  57.3980012 117.1884997  88.2869988
  56.3808810 117.5032920  88.0680346  57.9786008 118.1002281  88.4174610
  57.4010012 116.3794997  89.6249988  57.0287948 117.0331975  90.4117380
  58.4349955 116.1560910  89.8790092  56.6120012 115.1154997  89.6209988
  57.0966741 114.4549761  88.9043603  55.6398518 115.3634295  89.1971044
  56.4040012 114.3404997  90.9899988  56.0024086 113.3550015  90.7576892
  55.6304781 114.8587117  91.5537383  57.6720012 114.1814997  91.8839988
  57.9355995 115.1509454  92.3014097  58.5121718 113.8815747  91.2589105
  57.5030012 113.1794997  93.0089988  57.4297186 112.2042485  92.5327491
  56.5268520 113.3774484  93.4510147  58.5570012 113.1434997  94.1149988
  58.4509092 112.1997374  94.6456570  58.3263300 113.9241970  94.8377923
  60.0300012 113.2854997  93.6629988  60.1979662 114.1662678  93.0479750
  60.3602922 112.4339422  93.0710294  60.8910012 113.3594997  94.9449988
  61.9301270 113.3264556  94.6219237  60.7202521 112.4499169  95.5140137
  60.7170012 114.6084997  95.9029988  61.3690921 114.5148791  96.7651807
  59.6979031 114.6275318  96.2800518  61.0070012 115.9664997  95.1839988
  60.3899961 116.0666222  94.3000750  62.0482272 116.0228123  94.8894716
  61.5230012 117.0854997  96.1319988  62.5410012 117.0034997  96.8179988
  60.8090012 118.1404997  96.0469988  61.1540012 119.2884997  96.8379988
  60.8428874 120.1199877  96.2237530  62.2251871 119.3299599  96.9722888
  60.4310012 119.3254997  98.1859988  60.6912447 120.3086084  98.5418982
  60.7500012 118.2744997  99.2689988  60.3320350 118.6201987 100.2047324
  61.8288306 118.2497786  99.3590033  60.2470012 116.9754997  98.9459988
  60.1080012 115.8304997 100.0309988  59.0420012 116.5484997 100.9779988
  59.3430012 116.7314997 102.3379988  60.2474650 117.2779499 102.5715074
  59.3932187 115.8003697 102.8950196  58.0330012 117.5004997 102.9109988
  58.0174724 118.4713783 102.4320389  58.1387354 117.6408327 103.9770681
  56.6270012 116.9064997 102.6999988  56.5500012 115.5524997 103.3299988
  57.3858969 114.9615611 102.9815682  55.6242151 115.0921615 103.0183756
  56.5555098 115.6647415 104.4038183  55.6750012 117.8024997 103.5029988
  55.8725210 118.8313816 103.2439584  55.8274588 117.6249915 104.5525785
  54.6664338 117.5364063 103.2214261  56.1890012 116.7404997 101.2439988
  56.2149256 117.7019458 100.7530494  55.1834929 116.3481239 101.2186144
  56.8569784 116.0552539 100.7423219  59.6080012 114.6074997  99.3959988
  61.3960012 115.7194997 100.8049988  59.0130012 119.2444997  97.9439988
  58.1660012 119.8534997  98.7389988  58.4830012 120.6374997  99.5819988
  56.7240012 119.4314997  98.3859988  56.2392966 119.1172055  99.3046029
  56.1667844 120.2972426  98.0368489  56.7320012 118.2994997  97.3139988
  57.5423650 117.6346231  97.5920465  55.8168736 117.7341438  97.4587307
  56.8790012 118.6774997  95.8489988  56.0206644 119.3053128  95.6236930
  57.7481577 119.3299540  95.8184155  57.0360012 117.6194997  94.7909988
  57.9413045 117.0359655  94.9479054  56.2143815 116.9075293  94.7754611
  57.1340012 118.3224997  93.3659988  57.3739508 117.5907702  92.5973004
  56.1643471 118.7371720  93.0973003  58.2100012 119.4884997  93.3369988
  57.9158492 120.2083263  92.5747487  58.1941646 120.0209482  94.2838703
  59.6070012 119.0294997  93.0699988  59.9177364 118.2195968  93.7196764
  59.7297516 118.6685758  92.0496987  60.4810012 120.2454997  93.2599988
  60.3467843 120.6676501  94.2445438  61.3590012 120.8484997  92.4539988
  61.9228635 121.7215989  92.7495779  61.6640012 120.3554997  91.0129988
  60.7615249 119.8581953  90.6616500  61.8104666 121.2122116  90.3647137
  62.8800012 119.3534997  90.8439988  63.7678138 119.9526056  90.6450871
  63.0392886 118.8884781  91.8149990  62.7510012 118.2604997  89.7769988
  63.6362353 117.6350255  89.8921055  61.9053344 117.6481208  90.0775715
  62.6020012 118.6444997  88.3359988  61.6307206 119.1104160  88.1853968
  63.3441324 119.3966078  88.0739689  62.7570012 117.4144997  87.3839988
  62.6640075 117.7375780  86.3488357  63.7520951 116.9873724  87.4733035
  61.7520012 116.3904997  87.6249988  61.9051894 116.0318985  88.6412771
  60.7870183 116.8941287  87.6249358  61.6700012 115.2034997  86.7069988
  62.5780129 114.6086397  86.7667586  60.8680406 114.5549264  87.0527226
  61.4120012 115.5674997  85.2969988  61.2735519 114.6787929  84.6886394
  62.2330628 116.1311056  84.8669440  60.5141356 116.1725140  85.2079141
 108.3260012  93.4634997  79.8549988 107.8184143  93.6785378  78.9198286
 107.7265827  92.7386779  80.3982492 109.2748879  92.9916494  79.6150336
 108.5350012  94.7244997  80.6709988 107.5751352  95.1921984  80.8834095
 109.1039035  95.4454864  80.0901870 109.2740012  94.4184997  82.0289988
 110.2905771  94.0686544  81.8498042 108.7679363  93.6143755  82.5595208
 109.3170012  95.6624997  82.9489988 108.3263612  96.0740553  83.1292886
 109.9119297  96.4772802  82.5392443 109.9190012  95.2184997  84.2969988
 110.9918441  95.0800479  84.1901715 109.5099284  94.2444063  84.5599944
 109.6540012  96.2134997  85.4549988 108.5877875  96.1462659  85.6635295
 109.8203665  97.2042388  85.0374637 110.4450012  96.0784997  86.7819988
 111.4142435  96.5366593  86.5937728 110.6311970  95.0125165  86.9054536
 109.8760012  96.6304997  88.0509988 108.8516113  96.2800315  88.1703661
 109.8199205  97.7152645  87.9815419 110.7190012  96.2314997  89.3359988
 111.6026036  96.8618945  89.4094151 111.0826505  95.2093681  89.2381049
 109.8820012  96.3574997  90.6509988 109.0830961  95.6197670  90.6227095
 109.3963931  97.3329106  90.6646888 110.7240012  96.1844997  91.9569988
 111.2008298  97.1245741  92.2261371 111.5301600  95.4674794  91.8116789
 109.8670012  95.7404997  93.1109988 110.4874352  95.5790281  93.9891830
 109.4171275  94.7777814  92.8755053 108.7360012  96.7494997  93.4349988
 108.0095787  96.7012074  92.6255358 109.1435119  97.7564421  93.4183896
 107.9830012  96.5334997  94.7629988 107.1694653  97.2356069  94.9131646
 108.6417315  96.6269644  95.6223187 107.4020012  95.0634997  94.7319988
 108.1929848  94.3471621  94.5496631 106.6589270  94.9677816  93.9492166
 106.3790012  94.9844997  95.9319988 105.9960012  95.9184997  96.6249988
 105.9840012  93.8124997  96.0789988 105.1460012  93.4204997  97.1639988
 104.5633218  92.6064948  96.7598417 104.4887997  94.2483241  97.3875720
 105.9130012  92.9544997  98.4419988 105.2819169  92.2156862  98.9075965
 106.2010012  94.1104997  99.4429988 106.6461790  93.6582104 100.3188139
 105.2254831  94.4972614  99.7101409 107.0640012  95.1984997  98.9259988
 108.4210012  95.3904997  99.6399988 108.1280012  94.8984997 101.1099988
 109.1310012  94.6444997 102.1219988 108.8968747  95.0372901 103.1028603
 110.0946291  95.0621687 101.8449234 109.3490012  93.1344997 102.1739988
 109.6516964  92.7571525 101.2053741 108.4718346  92.5936754 102.4987524
 110.4950012  92.7314997 103.1659988 110.6390012  91.2534997 103.1029988
 109.6646601  90.8054726 103.2417983 111.2968786  90.9484098 103.9031346
 111.0748949  90.9840140 102.1526877 111.8170012  93.2704997 102.7179988
 111.7036284  94.3222168 102.5041026 112.1424012  92.7255048 101.8499749
 112.5150597  93.1306509 103.5306817 110.1850012  93.1484997 104.6069988
 110.0359080  94.2173837 104.6436070 111.0154176  92.8769421 105.2412818
 109.2919643  92.6426274 104.9446573 109.4230012  94.5054997  98.9869988
 108.7340012  96.8554997  99.6269988 107.1950012  92.3444997  98.0809988
 107.2300012  91.2824997  97.2829988 106.2960012  90.6514997  96.8039988
 108.7070012  91.1104997  96.9139988 109.0744967  92.1113005  96.7117668
 109.2292060  90.7767513  97.8072071 108.9570012  90.1674997  95.7499988
 109.8942940  89.6510898  95.9256801 108.1883672  89.4011988  95.7457737
 109.0130012  90.8614997  94.3719988 108.0673787  91.3550443  94.1625571
 109.7647919  91.6463933  94.4005929 109.3610012  89.8944997  93.2409988
 110.1311813  89.2015098  93.5746057 108.5047086  89.2855728  92.9614043
 109.8610012  90.6034997  92.0329988 110.7134484  91.2293416  92.2890391
 110.2259730  89.8749299  91.3116371 108.7530012  91.4864997  91.3409988
 107.9792032  90.8260531  90.9527358 108.2732250  92.1171154  92.0842731
 109.2790012  92.3814997  90.1999988 108.4756042  93.0647159  89.9503011
 110.0735310  92.9875984  90.6332570 109.8240012  91.6824997  88.9419988
 110.6135610  90.9551927  89.0567758 109.3660012  91.9084997  87.6759988
 109.8233779  91.3600372  86.8650700 108.2400012  92.8724997  87.2299988
 108.4106639  93.8429876  87.6928686 108.2550808  93.0402167  86.1588664
 106.8060012  92.3634997  87.6619988 106.7663920  91.3023683  87.4188189
 106.7794989  92.4268667  88.7481577 105.5630012  93.0714997  87.0819988
 104.6604452  92.6725362  87.5449545 105.5847551  94.1308587  87.3223926
 105.4700012  92.8924997  85.5429988 106.1588166  92.0977985  85.2652789
 104.4722933  92.5267985  85.3065108 105.7550012  94.1364997  84.7199988
 105.6414260  95.0417106  85.3135337 106.7721932  94.1574404  84.3385451
 104.7700012  94.2054997  83.5729988 103.7706841  94.0986300  83.9911222
 104.8189663  95.2121036  83.1616779 104.9280012  93.1974997  82.4179988
 104.1883797  93.4262736  81.6547572 105.8952143  93.3978415  81.9622851
 104.8500012  91.7024997  82.7749988 105.0611323  91.0871060  81.9056408
 103.8672616  91.4234542  83.1398242 105.5725998  91.4466376  83.5447564
 118.8930012  73.1264997  81.8879988 118.7834239  72.1210968  81.4935537
 119.3228764  73.7445316  81.1050340 117.8981281  73.5086893  82.0995895
 119.7660012  73.1384997  83.1449988 120.7261368  72.7025401  82.8742925
 119.3083210  72.4529410  83.8530611 120.0040012  74.5244997  83.8179988
 120.2173721  75.2059778  82.9945977 120.9393097  74.4069057  84.3616353
 118.9350012  75.1944997  84.7909988 117.9632572  74.7961072  84.5077195
 118.9045718  76.2576811  84.5577063 119.1130012  75.0164997  86.2589988
 119.4723035  74.0062982  86.4377946 118.1264234  75.0751806  86.7157107
 120.0410012  75.9964997  86.9469988 119.9372528  76.9724300  86.4762407
 121.0704883  75.6865156  86.7807363 119.7840012  76.1354997  88.4949988
 118.7073342  76.1282146  88.6547023 120.1304113  77.1214624  88.8017683
 120.4430012  75.0574997  89.3969988 120.0313197  74.0883130  89.1183474
 120.1281765  75.2377263  90.4231994 121.9890012  74.9904997  89.3419988
 122.3586759  75.9886668  89.5668187 122.2626184  74.7915610  88.3065597
 122.7030012  73.9484997  90.2759988 123.7654112  73.9410990  90.0424840
 122.3322226  72.9507716  90.0425657 122.4950012  74.2274997  91.7769988
 123.0230529  73.4571506  92.3349098 121.4392177  74.0986024  92.0090221
 122.9690012  75.6204997  92.2939988 122.4023809  76.4162051  91.8164914
 124.0101666  75.7831292  92.0216089 122.8370012  75.7244997  93.8529988
 123.6406042  76.3283158  94.2711856 122.8977198  74.7563669  94.3421881
 121.5600012  76.3614997  94.2069988 120.7739803  75.8068285  93.7051461
 121.5813103  77.3515604  93.7593184 121.1980012  76.5084997  95.7279988
 121.9855556  77.0307890  96.2562154 121.0637848  75.5329334  96.1800226
 119.8700012  77.1994997  96.0609988 119.2290012  77.6654997  95.1649988
 119.5640012  77.0644997  97.3199988 118.3180012  77.7114997  97.7389988
 117.7835224  78.0301375  96.8568059 118.5169584  78.5718616  98.3614017
 117.4840012  76.6314997  98.5209988 116.5324702  77.0491260  98.8057287
 118.1650012  76.0194997  99.7369988 117.3810056  75.6661536 100.3929702
 118.6768873  76.8424405 100.2200370 119.1150012  74.9294997  99.4329988
 120.3240012  74.4744997 100.3139988 119.6890012  73.3864997 101.3059988
 119.3410012  72.1034997 100.7499988 120.1596085  71.6906245 100.1750161
 118.5132090  72.2323525 100.0586565 118.8260012  71.0704997 101.8239988
 119.6379374  70.8028200 102.4883452 118.4932207  70.1821599 101.3068077
 117.6280012  71.5014997 102.7609988 116.4900012  72.0744997 102.0289988
 116.8567668  72.8553783 101.3770435 115.8067311  72.4951855 102.7516781
 115.9960042  71.2883124 101.4780055 117.0990012  70.4264997 103.6469988
 117.9291128  69.9662350 104.1605990 116.5612571  69.7121262 103.0496112
 116.4347319  70.8931712 104.3599230 118.1150012  72.6024997 103.7209988
 118.9464882  72.2278427 104.2992232 117.3082023  72.8777242 104.3835522
 118.4252528  73.4664981 103.1511868 121.2220012  73.9044997  99.2819988
 120.9070012  75.5454997 101.1129988 117.2500012  75.6074997  97.5049988
 116.5550012  74.5334997  97.7479988 115.8460012  74.3774997  98.7209988
 116.6640012  73.5774997  96.5549988 115.7165995  73.0495551  96.5195368
 116.6997629  74.1851495  95.6542270 117.8600012  72.6104997  96.6189988
 118.0478742  72.3750732  97.6607949 117.5785430  71.6750554  96.1459677
 119.0970012  73.1254997  96.0109988 119.1292041  74.2029014  96.1517908
 119.9331859  72.7208411  96.5758983 119.3010012  72.7744997  94.4939988
 120.2306364  73.2511169  94.1885151 119.4686768  71.7030876  94.4154929
 118.1990012  73.1794997  93.4979988 117.2428670  73.0084136  93.9883436
 118.2831809  74.2564516  93.3658276 118.1870012  72.4654997  92.0119988
 117.6394791  73.1653020  91.3825567 119.2185574  72.4897120  91.6719643
 117.6140012  71.0024997  91.7909988 117.6783759  70.4508018  92.7216251
 116.5540710  71.0778544  91.5518005 118.3100012  70.2654997  90.6719988
 119.1473905  69.7185548  91.0784277 118.0870012  70.1554997  89.3189988
 118.7237006  69.5437210  88.6961419 116.9230012  70.8714997  88.5389988
 116.4559383  70.2087237  87.8124994 116.1203035  71.2589370  89.1564531
 117.5800012  72.0204997  87.7829988 118.0236202  72.7817621  88.4236131
 118.3674752  71.6990726  87.1040081 116.4230012  72.6454997  86.9619988
 115.6351960  73.0015321  87.6258594 116.7663855  73.5132273  86.4055458
 115.8530012  71.6434997  86.0169988 116.6425400  70.9991918  85.6366820
 115.1488567  70.9911494  86.5305207 115.1490012  72.3304997  84.8679988
 114.3709703  72.9569625  85.3002050 115.8593778  73.0132394  84.4098978
 114.4870012  71.4284997  83.7699988 115.2205303  70.7505140  83.3373865
 113.7160111  70.7983247  84.2096439 113.8460012  72.2644997  82.6199988
 112.9957424  72.8373325  82.9817136 114.5710057  72.9977556  82.2735637
 113.4000012  71.3804997  81.3999988 113.0405430  72.0015248  80.5850223
 112.6002287  70.6972851  81.6651835 114.2289441  70.7878482  81.0234900
  72.5460012 115.9064997  79.3949988  73.5194276 115.8701918  78.9158833
  71.8093228 116.1386336  78.6313176  72.3261188 114.9115694  79.7723283
  72.5210012 116.8844997  80.4609988  72.8049382 117.8323368  80.0069200
  73.3327495 116.6111653  81.1297043  71.2150012 117.0764997  81.2619988
  71.0149518 116.1050178  81.7138088  70.4481745 117.2193556  80.5032234
  71.0540012 118.1924997  82.3459988  70.0437525 118.5917572  82.2890678
  71.7197272 119.0228888  82.1158495  71.3200012 117.7034997  83.8199988
  70.6540791 116.8560557  83.9612767  70.9294917 118.5061698  84.4433670
  72.6890012 117.3294997  84.2969988  73.4194998 118.0623945  83.9592802
  72.9920871 116.3773856  83.8666562  72.7400012 117.2304997  85.8479988
  72.1411772 116.3932861  86.2019101  72.3163224 118.1229362  86.3065655
  74.1910012 117.0544997  86.3259988  74.8368050 117.8169446  85.8923329
  74.5928834 116.0960443  86.0026754  74.2630012 117.1434997  87.8819988
  74.0645133 118.1877658  88.1136274  75.3106733 116.9722539  88.1262016
  73.4070012 116.2734997  88.7449988  73.5172010 115.2712095  88.3368697
  72.3809815 116.5763748  88.5376844  73.6290012 116.2494997  90.2659988
  74.6700502 116.0716968  90.5270430  73.0544648 115.4740112  90.7696392
  73.2110012 117.6514997  90.8299988  72.2714462 117.9338737  90.3612553
  73.9496216 118.3752898  90.4905319  73.0830012 117.7594997  92.4599988
  72.6383924 118.7286664  92.6797507  74.0844103 117.7817721  92.8806621
  72.2860012 116.7204997  93.1609988  72.7765770 115.7535653  93.1195472
  71.3196910 116.6038731  92.6775374  72.0540012 117.1074997  94.6319988
  71.5948357 118.0856454  94.6986236  72.9944166 117.1274432  95.1698556
  70.9910012 116.1254997  95.2869988  70.3060012 115.2754997  94.7039988
  70.9840012 116.3974997  96.6099988  70.3570012 115.3364997  97.3949988
  69.8229178 114.7503543  96.6624344  69.6519730 115.7372909  98.1087871
  71.4520012 114.4474997  98.1169988  70.9433812 113.5459710  98.4160736
  72.0770012 115.1364997  99.3579988  72.4586806 114.3868656 100.0378300
  71.2942044 115.6925278  99.8586452  73.1180012 116.0094997  98.9459988
  73.4850012 117.2594997  99.7619988  74.1890012 116.6414997 101.0809988
  75.2780012 115.7604997 100.8439988  75.9959440 116.1560208 100.1373799
  74.9200269 114.8233970 100.4274773  75.9480012 115.3854997 102.1459988
  76.4332772 116.2386347 102.6030730  76.6999891 114.6512373 101.8954994
  75.0970012 114.7554997 103.2429988  75.9250012 114.5464997 104.4549988
  76.8257129 114.0197343 104.1711493  75.3553603 113.9455171 105.1481288
  76.1424212 115.5056051 104.9006020  73.8890012 115.5684997 103.6609988
  73.3443372 115.8538404 102.7740738  74.2195769 116.4297435 104.2135825
  73.2747562 114.9364675 104.2859272  74.6730012 113.3954997 102.8039988
  74.1205114 113.4763470 101.8797148  74.0441879 112.9573063 103.5644135
  75.5457180 112.7759703 102.6557300  74.5230012 118.0584997  99.0069988
  72.3110012 117.9834997 100.2319988  72.4720012 114.0974997  97.1819988
  72.1730012 113.1684997  96.2599988  71.2540012 112.3944997  96.2429988
  73.2400012 113.1414997  95.2079988  73.7086988 114.1201203  95.2213134
  74.0091947 112.4390765  95.5192062  72.6770012 112.7724997  93.7709988
  72.1049121 111.8563965  93.8686213  71.9674835 113.5395375  93.4772801
  73.6760012 112.6004997  92.7309988  74.2378494 113.5078897  92.5245432
  74.4096866 111.8436845  92.9974596  72.9350012 112.1404997  91.4659988
  72.5483930 111.1266115  91.5512682  72.0907137 112.7650056  91.1842666
  73.9370012 112.1674997  90.3719988  74.3742426 113.1621749  90.3141872
  74.7498868 111.4942750  90.6372656  73.4010012 111.7684997  88.9969988
  73.9828706 112.3235816  88.2628237  73.6337427 110.7186226  88.8423781
  71.8860012 111.9874997  88.7239988  71.6833638 111.4258284  87.8195412
  71.3821438 111.4593339  89.5324013  71.3280012 113.3684997  88.6359988
  71.7421862 114.1195086  89.2917352  70.3690012 113.7544997  87.8049988
  70.0319254 114.7804659  87.8421905  69.6790012 112.9304997  86.7929988
  69.7653261 111.8663431  87.0059302  68.6205005 113.1304251  86.6693576
  70.4310012 113.2254997  85.4349988  69.6814685 113.0871566  84.6566884
  70.6449198 114.2922089  85.4637948  71.6960012 112.4724997  85.0599988
  71.7542747 111.5382414  85.6184544  71.6795010 112.1975081  84.0089938
  72.9870012 113.3394997  85.3579988  72.9285420 114.2661206  84.7913409
  72.9981660 113.6253823  86.4083470  74.2900012 112.6004997  85.0209988
  74.3719333 111.7410168  85.6836951  74.2104298 112.1941324  84.0164297
  75.5470012 113.4034997  85.1509988  75.4762143 114.0511227  86.0230404
  76.3845590 112.7342669  85.3393025  75.8810012 114.2694997  83.9249988
  76.2356828 113.6723634  83.0886111  74.9813660 114.7686877  83.5717555
  76.9450012 115.3484997  84.2789988  77.1141498 116.0136478  83.4375502
  77.9001588 114.9056844  84.5403978  76.6212477 115.9549470  85.1201565
  19.5150012  74.7224997  82.6979988  18.7982569  73.9515173  82.4328707
  20.3994735  74.5777350  82.0843687  19.0822010  75.6823573  82.4297276
  19.8690012  74.6704997  84.2249988  20.2533281  73.6739346  84.4356024
  18.9339232  74.7587564  84.7714911  20.9120012  75.7544997  84.7459988
  20.6659825  76.7824212  84.4799517  21.9272652  75.5866140  84.3921283
  20.8990012  75.6084997  86.2919988  21.4530110  74.7073016  86.5453071
  19.8740223  75.4330462  86.6150164  21.4890012  76.7884997  87.0859988
  21.0381214  77.7309661  86.7859362  22.5555744  76.8837314  86.8892313
  21.2580012  76.5794997  88.6599988  22.0751918  75.9618750  89.0281785
  20.3524061  75.9885849  88.7795579  21.1530012  77.8434997  89.5179988
  21.4055068  78.7013132  88.8973807  21.9149602  77.7951137  90.2947273
  19.7870012  78.0734997  90.1649988  19.5056348  77.1477708  90.6653087
  19.0666726  78.2157755  89.3615260  19.6740012  79.2474997  91.1639988
  18.6321755  79.5306905  91.2979510  20.1799586  80.1285942  90.7712436
  20.2800012  78.8804997  92.5249988  21.3234913  78.6160520  92.3684909
  19.7874954  77.9783907  92.8870299  20.1730012  79.9544997  93.5699988
  19.1293520  80.2532410  93.6413505  20.7160096  80.8331343  93.2260932
  20.6660012  79.5714997  94.9799988  20.8203879  80.5046088  95.5163672
  21.6521924  79.1305425  94.8471317  19.7630012  78.5614997  95.8669988
  18.7154967  78.7054858  95.6076643  19.8509477  78.8024495  96.9226893
  20.1100012  77.0424997  95.6569988  21.1543368  76.8513481  95.8809836
  19.9578845  76.7752009  94.6146438  19.2350012  76.1354997  96.5249988
  18.1863472  76.3327848  96.3421202  19.4424755  76.3035413  97.5751347
  19.6540012  74.6544997  96.5599988  18.9440012  73.7534997  96.2019988
  20.8680012  74.6174997  97.0589988  21.5460012  73.3674997  97.0849988
  21.4753185  72.8431651  96.1439678  21.1103973  72.7573024  97.8628809
  23.0200012  73.6994997  97.4029988  23.6486707  72.8302037  97.3030334
  23.1160012  74.2454997  98.8149988  24.1181957  74.0909603  99.1911965
  22.4242114  73.6828283  99.4293381  22.8020012  75.5564997  98.8339988
  22.8420012  76.2644997 100.2809988  21.4160012  76.9814997 100.2189988
  20.2600012  76.2324997 100.5859988  20.2336240  75.2826242 100.0680896
  19.3760449  76.7796023 100.2712020  20.0920012  76.0344997 102.1389988
  21.0164252  75.7740035 102.6388297  19.3834100  75.2308622 102.2784345
  19.5220012  77.2404997 102.9129988  18.1340012  77.4914997 102.5149988
  18.0888129  77.5464964 101.4359865  17.8311517  78.4367451 102.9403143
  17.5093380  76.7018709 102.9048696  19.6040012  77.0384997 104.4349988
  20.6087105  76.7354623 104.6868747  18.8838132  76.2964100 104.7299601
  19.3753932  77.9867925 104.8995159  20.2460012  78.4734997 102.5289988
  21.2977756  78.3483497 102.7392131  19.8591672  79.3043015 103.0997683
  20.1033890  78.6619410 101.4746807  22.7230012  75.1804997 101.2749988
  23.9310012  77.2494997 100.4549988  23.4820012  74.7524997  96.5219988
  24.7790012  74.6404997  96.2609988  25.6080012  73.9044997  96.8929988
  25.1590012  75.4624997  94.9809988  25.7041158  76.3312984  95.3353882
  25.8734092  74.8763872  94.4082856  23.8990012  75.8714997  94.0839988
  23.1535557  76.3810193  94.6846334  24.1816054  76.5685912  93.3015467
  23.2850012  74.6444997  93.4759988  24.0569977  73.9061738  93.2746279
  22.6148656  74.1919005  94.2027293  22.5030012  74.9344997  92.2139988
  21.5951921  75.4865361  92.4503132  23.0638093  75.5549384  91.5191952
  22.1130012  73.6564997  91.5189988  21.7253957  72.9280145  92.2282042
  21.3097482  73.8455016  90.8094609  23.2490012  73.0754997  90.7969988
  23.6989148  73.9010943  90.2477518  23.9748490  72.7747952  91.5473585
  23.0110012  71.8784997  89.8249988  22.4142793  71.1881253  90.4097092
  22.3468185  72.2925190  89.0675059  24.1250012  71.1784997  89.1459988
  24.3895373  70.1761626  89.4474867  24.8100012  71.7044997  88.1789988
  25.5973202  71.1409183  87.6992959  24.6150012  73.0914997  87.6159988
  23.7072188  73.4974722  88.0590998  25.4230555  73.7436108  87.9282170
  24.4750012  73.1504997  86.1169988  24.3519736  74.1852033  85.7992606
  25.3980830  72.8003618  85.6589786  23.2480012  72.2724997  85.5689988
  23.3221029  71.2757615  86.0038883  22.3210221  72.6986706  85.9426191
  23.1770012  72.1544997  84.0599988  22.6173094  71.2508672  83.8290473
  22.5821000  72.9852049  83.6843573  24.5350012  72.1324997  83.3319988
  25.0379192  73.0871068  83.4747872  25.1863951  71.3846044  83.7758047
  24.4120012  71.8984997  81.8869988  25.4250999  71.7124736  81.5349927
  23.8811845  70.9529446  81.7921659  23.7540012  72.9194997  80.9569988
  23.8350431  72.5802711  79.9273040  22.6898916  72.9288767  81.1826001
  24.2800012  74.3154997  81.0639988  23.7052355  74.9928680  80.4395906
  25.3159731  74.3836964  80.7495909  24.2209948  74.6777139  82.0864762
  17.6010012  92.5254997  80.8879988  16.7611193  91.9612309  80.4947709
  18.3172767  91.8155791  81.2914242  18.0765521  93.0344893  80.0540966
  17.1570012  93.5054997  81.9369988  16.6515178  92.9386173  82.7169564
  16.4004962  94.1380447  81.4804892  18.2590012  94.3734997  82.5749988
  18.6611336  95.0353887  81.8081080  19.0753633  93.7133820  82.8613003
  17.8450012  95.2224997  83.8249988  17.5827755  94.5472212  84.6364707
  16.9423238  95.7884951  83.6002126  18.9160012  96.1634997  84.3089988
  18.9294921  97.0385850  83.6643154  19.8782904  95.6717019  84.1767139
  18.7770012  96.6264997  85.7809988  18.9364856  95.7508130  86.4075405
  17.7397979  96.9203780  85.9273612  19.7080012  97.7764997  86.2589988
  19.4999217  97.9988982  87.3039925  19.4760537  98.6837513  85.7028290
  21.2330012  97.4434997  86.0939988  21.8342272  98.2988147  86.3996365
  21.4639241  97.2691059  85.0447393  21.6680012  96.1544997  86.9539988
  22.6586156  95.8512323  86.6219553  20.9969438  95.3370943  86.6930248
  21.6760012  96.3354997  88.4739988  22.0012846  95.3887485  88.8996181
  20.6401498  96.4698721  88.7844583  22.5160012  97.4724997  89.0319988
  21.9707042  98.4128880  88.9888491  23.4242643  97.6229046  88.4509958
  22.9110012  97.1824997  90.5749988  23.5483119  97.9636268  90.9823001
  23.4701764  96.2535604  90.6702092  21.6450012  97.0684997  91.3879988
  21.2526156  96.0540177  91.3420437  20.8577283  97.7164704  91.0130197
  21.9140012  97.4084997  92.8709988  22.1063946  98.4693027  92.9935817
  22.8056880  96.8862183  93.2074640  20.7270012  96.9964997  93.7819988
  20.4952864  95.9471143  93.6510805  19.8461949  97.5797890  93.5411193
  20.8140012  97.5974997  95.1649988  21.6990012  98.4254997  95.4359988
  19.9060012  97.0734997  95.9529988  20.0450012  97.3624997  97.3799988
  19.8786149  98.4246755  97.4777741  21.0670125  97.1388264  97.6495449
  19.0190012  96.5534997  98.3029988  18.0133876  96.7441086  97.9663929
  19.1400012  96.8794997  99.8349988  19.1022617  97.9531524  99.9600847
  20.1141641  96.5274637 100.1506921  18.1420012  96.2694997 100.5779988
  18.4460012  95.4384997 101.9019988  19.6070012  94.4654997 101.3459988
  20.0730012  93.6384997 102.3759988  19.2986076  92.9606290 102.7106553
  20.3315979  94.2567974 103.2307693  21.3930012  92.8564997 102.0169988
  21.6142597  92.3208581 102.9315379  22.2244604  93.5064194 101.7853592
  21.3670012  91.8444997 100.9589988  20.9200012  92.4374997  99.5849988
  19.9970140  92.9824491  99.7280334  20.7550854  91.6150506  98.9049397
  21.7070532  93.0707364  99.2038462  22.8160012  91.4534997 100.7589988
  23.2462251  91.2277668 101.7226720  23.3345995  92.2626508 100.2766086
  22.8296345  90.5739182 100.1317448  20.5080012  90.6414997 101.3479988
  20.8949649  90.2076356 102.2580005  20.5425170  89.9097270 100.5549241
  19.4872445  90.9613551 101.5002596  19.1490012  96.3494997 102.8909988
  17.2520012  94.6834997 102.4199988  19.3200012  95.1844997  98.0989988
  18.4290012  94.5704997  97.3339988  17.3020012  95.0074997  97.1329988
  18.9330012  93.1784997  97.1189988  20.0160357  93.2438600  97.1368074
  18.6567014  92.5828552  97.9854704  18.4160012  92.5374997  95.8179988
  18.4246971  91.4595233  95.9361189  17.3771514  92.8148039  95.6699225
  19.2420012  92.9154997  94.5709988  18.8358520  93.8048488  94.0958619
  20.2566309  93.1677109  94.8692957  19.3010012  91.7684997  93.5689988
  19.3748716  90.8229523  94.1030300  18.3892000  91.7140054  92.9792097
  20.5180012  91.8824997  92.6039988  20.5351593  92.8658905  92.1386504
  21.4390847  91.8030153  93.1781663  20.5250012  90.8274997  91.5379988
  21.4748516  90.8412265  91.0057425  20.4287839  89.8343863  91.9678663
  19.3500012  91.0484997  90.5119988  19.3195852  90.1253108  89.9450974
  18.4568747  91.0551825  91.1353978  19.3100012  92.2424997  89.6039988
  18.6915059  93.0775612  89.8967272  20.0140012  92.3654997  88.4259988
  19.8550868  93.2664751  87.8510209  21.0510012  91.3584997  87.7759988
  21.9859942  91.9145285  87.8189050  21.1474864  90.5469570  88.4885786
  20.8980012  90.7704997  86.3379988  21.7581662  90.1413452  86.1121984
  20.0295679  90.1147958  86.3196909  20.7430012  91.8584997  85.2289988
  20.4250430  91.3972641  84.2939740  19.9661282  92.5694371  85.4964691
  22.0530012  92.6004997  85.0019988  22.1479532  93.3584135  85.7763990
  22.8760041  91.9045300  85.1548953  22.1960012  93.2834997  83.5389988
  21.6266748  94.2102786  83.5782208  23.2362292  93.5785598  83.4318067
  21.7440012  92.5074997  82.3069988  22.1725284  91.5072900  82.3357743
  20.6643802  92.3745094  82.3465735  22.1000012  93.1444997  80.9839988
  21.7144562  94.1578522  80.9040816  23.1809436  93.2315422  80.8985591
  21.5830012  92.3124997  79.8189988  21.9161973  92.7263424  78.8720122
  20.4990459  92.2777072  79.7950910  21.9446911  91.2898737  79.8786441
  21.5420012  83.6114997  83.0909988  22.3095702  84.3791219  83.0862286
  20.6259750  84.0612638  83.4630179  21.3669548  83.3128465  82.0610584
  21.9470012  82.4474997  83.9239988  22.1591082  82.8744064  84.9027552
  22.9047764  82.1462611  83.5083836  21.0690012  81.2664997  84.0879988
  21.5826507  80.4812677  84.6425292  20.8343078  80.8427870  83.1135463
  19.7250012  81.6174997  84.8139988  19.0335434  80.7889429  84.6775074
  19.2667719  82.4761158  84.3256236  19.8650012  81.9074997  86.3549988
  20.4638776  82.7975155  86.5304745  20.3867047  81.0867980  86.8445283
  18.4790012  82.0974997  87.0159988  17.9685624  81.1364448  87.0413521
  17.8753049  82.7459574  86.3846269  18.5340012  82.6894997  88.4569988
  19.4375771  82.3614642  88.9675995  17.6983778  82.3211697  89.0505446
  18.4960012  84.2744997  88.4269988  17.5547929  84.5766916  87.9695514
  19.2828998  84.6152133  87.7566341  18.6510012  84.9904997  89.8099988
  18.6813215  86.0659868  89.6489116  19.6142272  84.7209240  90.2413936
  17.5430012  84.6594997  90.8059988  17.4478816  83.5789724  90.8879260
  16.5899705  85.0214951  90.4211341  17.7930012  85.2724997  92.1939988
  17.8518924  86.3527832  92.0797171  18.7718298  84.9521166  92.5466703
  16.7340012  84.9544997  93.2719988  16.0881615  84.1924464  92.8425980
  16.1256636  85.8524499  93.3629969  17.2040012  84.5194997  94.7059988
  16.3321470  84.4373761  95.3528202  17.8378943  85.2845405  95.1455053
  17.9670012  83.1364997  94.7389988  18.9547726  83.1854464  94.2926168
  17.4196689  82.3625776  94.2074313  18.0980012  82.7194997  96.2089988
  17.1256478  82.6963314  96.6844281  18.7303486  83.4176972  96.7444667
  19.0230012  81.5224997  96.4019988  19.6490012  81.0094997  95.4969988
  18.8570012  80.9154997  97.6279988  19.7790012  79.9314997  98.0089988
  20.1252369  79.4359828  97.1145459  19.3289192  79.2011400  98.6656517
  20.9820012  80.6744997  98.7259988  21.5915322  79.9371189  99.2216149
  20.3750012  81.6154997  99.7509988  21.1223883  81.7371618 100.5232758
  19.5397339  81.0614068 100.1607483  19.9510012  82.8574997  99.2829988
  19.2370012  83.8934997 100.2879988  20.3810012  84.1844997 101.3609988
  21.6060012  84.7414997 100.9759988  21.8631511  84.5393105  99.9444066
  22.4138497  84.3379455 101.5795895  21.6070012  86.2784997 101.2639988
  20.7163259  86.6505416 100.7735588  22.4706660  86.7567265 100.8249553
  21.5300012  86.8024997 102.7469988  20.2450012  86.2764997 103.4379988
  19.3971450  86.4971360 102.8041270  20.1384460  86.7925775 104.3805536
  20.3509767  85.2167083 103.6149975  22.7190012  86.2794997 103.5669988
  23.6270717  86.4768595 103.0182084  22.5874384  85.2270378 103.7441575
  22.7273843  86.8181197 104.5035430  21.5820012  88.2724997 102.7629988
  22.4954321  88.6011670 102.2900255  21.5597943  88.6170920 103.7859421
  20.7303161  88.6693360 102.2295303  18.9460012  85.1344997  99.5069988
  18.0680012  83.2314997 100.9879988  21.8170012  81.4284997  97.8129988
  22.8580012  81.9804997  98.2739988  23.3780012  81.9124997  99.4189988
  23.5050012  82.5444997  97.0769988  24.4816263  82.0900517  96.9457231
  22.9442951  82.3101032  96.1755699  23.6020012  84.0694997  97.2899988
  23.8935121  84.2321168  98.3218118  24.4234588  84.4387823  96.6843003
  22.3760012  84.8494997  97.0039988  21.5678373  84.4936012  97.6379242
  22.5549443  85.8824401  97.2922318  21.9440012  84.8204997  95.5389988
  22.1822975  83.8489928  95.1099355  20.8672426  84.9384836  95.4448033
  22.6660012  85.9484997  94.6629988  22.7978185  86.8586127  95.2445652
  23.6656339  85.6164688  94.3893734  21.9070012  86.2644997  93.4109988
  20.8882207  86.4763920  93.7317618  22.3086876  87.1988192  93.0288824
  21.8770012  85.2604997  92.2919988  21.2266194  84.4471954  92.5921982
  21.3969582  85.7382279  91.4389568  23.2410012  84.7404997  91.8549988
  23.5666258  83.8379878  92.3499684  24.0660012  85.2634997  90.9279988
  25.0370661  84.8238572  90.7509185  23.7730012  86.4244997  90.0839988
  23.1616316  87.0764428  90.7056243  24.7045132  86.9528908  89.9143840
  23.0490012  86.2214997  88.7419988  22.1163195  85.6980509  88.9489074
  22.7687419  87.2092143  88.3809815  23.8310012  85.4684997  87.6209988
  24.8465801  85.8594233  87.5586675  23.9257002  84.4161993  87.8743759
  23.1610012  85.6034997  86.2699988  23.4390824  84.7641991  85.6364450
  22.0788589  85.5569580  86.3790266  23.5420012  86.9164997  85.5919988
  23.3125165  87.7528808  86.2495650  24.6135089  86.9615636  85.4174551
  22.7700012  87.1354997  84.2469988  22.7439192  86.2001744  83.6907890
  21.7335273  87.3847128  84.4671098  23.3410012  88.2094997  83.3529988
  23.4076827  89.1431181  83.9060134  24.3662131  87.9282280  83.1224782
  22.5920012  88.4464997  82.0449988  23.1162303  89.1683655  81.4259976
  21.5913387  88.8295410  82.2143943  22.5009022  87.5262512  81.4749244
  92.0490012 109.4894997  81.9409988  92.9516146 109.5108888  81.3382879
  91.2003414 109.5877596  81.2702443  91.9869752 108.5106263  82.4085153
  92.0560012 110.6314997  83.0199988  92.1618451 111.5802708  82.4967078
  92.9567122 110.5092762  83.6154776  90.8080012 110.6944997  83.9449988
  90.8531919 109.8655160  84.6511665  89.9250800 110.5209701  83.3330276
  90.6100012 112.0394997  84.7359988  90.3604674 112.8250929  84.0261916
  91.5546326 112.3332931  85.1910403  89.5090012 111.9884997  85.8259988
  89.6048708 111.0273469  86.3245640  88.5603390 111.9626099  85.2923932
  89.4620012 113.1154997  86.9049988  88.7122637 112.8764241  87.6570318
  89.1476432 114.0519226  86.4490732  90.8230012 113.3174997  87.5909988
  90.7483838 114.2352777  88.1714174  91.5460699 113.5151620  86.8008524
  91.3500012 112.1924997  88.4889988  92.3063081 112.5819839  88.8357408
  91.5835482 111.3997314  87.7807204  90.5590012 111.5784997  89.7179988
  89.6543174 111.1256954  89.3179279  90.2325926 112.4147819  90.3349805
  91.2910012 110.5594997  90.5949988  92.1761245 111.0665669  90.9728063
  91.6494002 109.7774624  89.9261214  90.5050012 109.9044997  91.7759988
  91.1661528 109.3262011  92.4178634  89.7413079 109.2118963  91.4264259
  89.8440012 111.0014997  92.6249988  89.2563430 111.6367525  91.9667202
  90.6322862 111.6321455  93.0318924  88.9860012 110.5004997  93.7689988
  89.5886395 110.0091233  94.5309885  88.2403764 109.7749370  93.4561464
  88.2600012 111.7264997  94.4399988  87.7292492 112.2883493  93.6784396
  89.0206947 112.3880269  94.8459780  87.2820012 111.3544997  95.5679988
  87.7829527 110.7638131  96.3244232  86.4510163 110.7818805  95.1734858
  88.1390012 111.4274997  96.8359988  89.1900012 112.0694997  96.9919988
  87.6850012 110.5374997  97.7379988  88.1600012 110.6004997  99.0919988
  87.7014759 111.4778375  99.5226899  89.2343353 110.7007202  99.1463490
  87.6770012 109.3094997  99.8439988  86.6173607 109.2380487  99.6624753
  87.9460012 109.3404997 101.3519988  87.1854824 108.7707564 101.8685302
  87.8877735 110.3717144 101.6772537  89.2150012 108.8164997 101.6179988
  89.9390012 108.8484997 103.0879988  91.5070012 108.4674997 102.6969988
  91.6750012 107.3684997 101.8179988  90.9845830 106.5575757 102.0101294
  92.6735956 106.9526009 101.9161534  91.5760012 107.8484997 100.3409988
  90.5601421 108.1399255 100.1057322  91.8477357 107.0057248  99.7219124
  92.4530012 109.0014997  99.8839988  93.8610012 108.8174997 100.3819988
  93.8288972 108.6291385 101.4463405  94.4041838 109.7309577 100.1905644
  94.3200598 108.0029109  99.8421587  92.4260012 108.9914997  98.3949988
  91.3976423 108.9432014  98.0711790  92.9903223 108.1480613  98.0392976
  92.8780161 109.9129547  98.0575078  92.0130012 110.3174997 100.4659988
  90.9895601 110.5086294 100.1794332  92.6481171 111.1035070 100.0859064
  92.0904894 110.2794684 101.5430244  89.8430012 110.2504997 103.5579988
  89.3640012 107.8054997 103.9339988  88.2960012 108.2034997  99.2779988
  87.5960012 107.0574997  99.3929988  86.4820012 106.9124997  99.8829988
  88.4480012 105.8884997  98.9799988  89.4900901 106.1537445  99.1257683
  88.2640774 105.0369308  99.6303137  88.1410012 105.5394997  97.5059988
  88.3966116 104.5020384  97.3205306  87.0757508 105.6246720  97.3162083
  88.9330012 106.4484997  96.5079988  88.4278261 107.4056939  96.4068491
  89.9084508 106.6643779  96.9369040  89.1340012 105.8184997  95.1399988
  89.8620623 106.4509040  94.6353229  89.6236507 104.8614025  95.3025117
  87.9560012 105.6134997  94.2109988  87.1917778 105.0321597  94.7227678
  87.5093524 106.5836922  94.0021630  88.3080012 104.9274997  92.8609988
  88.8886392 105.6430793  92.2809071  88.9700938 104.0912954  93.0676720
  87.1670012 104.4394997  92.0399988  87.6091901 104.0312977  91.1386553
  86.7565808 103.5939370  92.5903850  86.0210012 105.4114997  91.7049988
  85.3614396 105.7783574  92.4769754  85.8040012 105.8504997  90.4569988
  85.0207990 106.5784359  90.3010718  86.5210012 105.4614997  89.2219988
  87.4386323 104.9555721  89.5173144  85.9454119 104.7391520  88.6540271
  86.8980012 106.6544997  88.3059988  86.9694330 106.3300360  87.2685375
  86.1103438 107.4049576  88.3354581  88.2870012 107.3284997  88.7539988
  88.0456798 107.7945896  89.7093161  88.9257121 106.4798809  88.9829062
  89.0470012 108.3134997  87.8979988  88.4259607 109.2014184  87.8028461
  89.9326501 108.6196198  88.4520758  89.4720012 107.8104997  86.4909988
  88.6007576 107.8461777  85.8396527  90.1870049 108.5113507  86.0688585
  90.0630012 106.3294997  86.4389988  90.7874312 106.1637576  87.2343690
  89.2794625 105.5881940  86.5851739  90.7530012 106.0534997  85.0789988
  91.3224776 106.9112927  84.7299963  91.4729967 105.2456905  85.1901914
  89.7440012 105.6614997  84.0309988  90.2382442 105.3839269  83.1048529
  89.0595222 106.4718500  83.8039263  89.1519352 104.8112756  84.3576758
 101.2590012  32.9214997  84.6409988 101.9397487  32.3339049  84.0329329
 100.8720079  33.7257766  84.0219957 100.4224369  32.2829990  84.9113487
 101.9510012  33.4634997  85.8739988 102.8008955  34.0559202  85.5394536
 102.3637929  32.6135325  86.4106298 101.0850012  34.3104997  86.8139988
 101.5895780  34.4416942  87.7711399 100.1611989  33.7779334  87.0311015
 100.7210012  35.7174997  86.2239988 100.3673000  35.5991754  85.2021647
 101.6112044  36.3417600  86.1644744  99.5970012  36.4774997  87.0689988
  98.7377869  35.8230890  87.1917611  99.2503420  37.3313773  86.4892701
 100.0570012  36.9574997  88.4499988 100.7512434  37.7848666  88.3146893
 100.6243031  36.1586777  88.9228931  98.9330012  37.3914997  89.3779988
  98.2845580  38.0720575  88.8292434  99.3689453  37.9738655  90.1885743
  98.1260012  36.3034997  89.9429988  97.6359147  35.7924853  89.1152726
  97.3315899  36.7540316  90.5351269  98.8660012  35.2864997  90.7909988
  99.7036722  35.8044195  91.2531754  99.2996549  34.5557727  90.1094128
  98.0520012  34.5454997  91.8859988  98.6132946  33.6865120  92.2470927
  97.1279226  34.1509354  91.4643035  97.7100012  35.4914997  93.0679988
  96.7836301  35.1573625  93.5303082  97.5148179  36.4935782  92.6900170
  98.7750012  35.5604997  94.1339988  99.7253386  35.8340909  93.6820855
  98.9158514  34.5695108  94.5615176  98.4390012  36.5044997  95.2269988
  97.7211165  35.9992030  95.8708690  97.9156262  37.3527344  94.7947367
  99.5580012  37.0074997  96.0879988  99.2053487  37.7875085  96.7547576
 100.3238244  37.4537911  95.4591659 100.2260012  35.8394997  96.9519988
 100.5558755  35.0335694  96.3088034  99.5140949  35.4445671  97.6670419
 101.6490012  35.2874997  96.3979988 102.0200012  35.4634997  95.2729988
 102.3110012  34.7204997  97.3539988 103.6350012  34.3004997  97.2199988
 103.7989304  34.2387149  96.1547421 103.7901196  33.3253173  97.6583475
 104.5670012  35.3284997  97.8369988 105.5902451  34.9910794  97.8333355
 104.1450012  35.7144997  99.2769988 104.9571702  36.2382480  99.7626634
 103.9503668  34.7973962  99.8188694 102.9710012  36.5324997  99.2429988
 102.3670012  37.3974997 100.4799988 101.6320012  36.3754997 101.4999988
 100.3580012  35.7824997 101.3369988 100.2797951  35.3786167 100.3360236
  99.6204367  36.5767762 101.4071446  99.9280012  34.7324997 102.3969988
  98.9123873  34.4341053 102.1695381  99.9481111  35.1718433 103.3838877
 100.7380012  33.4214997 102.4999988 100.2120012  32.5554997 103.6499988
 100.1628971  33.1616730 104.5441334 100.9067247  31.7424249 103.7995601
  99.2449287  32.1604029 103.3772601 100.7160012  32.5744997 101.2419988
 100.9654324  33.2032687 100.4010781  99.7399585  32.1372177 101.1302166
 101.4609417  31.8009594 101.3603040 102.2230012  33.8444997 102.7519988
 102.5561467  34.4737743 101.9401432 102.8402666  32.9600718 102.8011999
 102.2907131  34.3846945 103.6852938 103.5680012  37.8934997 101.2329988
 101.4070012  38.3334997  99.8459988 104.4970012  36.4104997  96.8899988
 105.2690012  37.5344997  97.1769988 106.0770012  37.6414997  98.0189988
 104.9290012  38.6424997  96.2659988 105.5201266  39.5313145  96.4612727
 105.0744864  38.4139390  95.2131450 103.4110012  38.8644997  96.5909988
 102.8882128  37.9165182  96.5270882 103.2960284  39.2021049  97.6161022
 102.7630012  39.8494997  95.6519988 101.7049642  39.9558819  95.8775972
 103.2040044  40.8327903  95.7959452 102.9600012  39.4164997  94.1019988
 104.0161085  39.3594944  93.8449119 102.5404584  38.4377791  93.8822443
 102.2810012  40.4804997  93.1679988 101.2008593  40.3519318  93.1422147
 102.4574568  41.4852073  93.5472178 102.8340012  40.3904997  91.7529988
 102.8155605  41.3953127  91.3338189 103.8796912  40.1014659  91.8105298
 102.1190012  39.4404997  90.8099988 101.0612063  39.6552835  90.9075588
 102.4029392  39.7479813  89.8044242 102.3970012  37.9254997  90.9609988
 101.9143479  37.6277221  91.8796545 103.0330012  36.9744997  90.2719988
 103.1546555  35.9752861  90.6649140 103.6520012  37.1804997  88.8629988
 103.0849622  36.6809829  88.0793082 103.7772361  38.2077363  88.5392982
 105.0480012  36.4964997  88.9659988 105.7646676  37.1821367  89.4165495
 104.9809489  35.6431429  89.6381187 105.5810012  36.0214997  87.5919988
 104.7983600  35.5116409  87.0301946 105.8959137  36.8619785  86.9796840
 106.7550012  35.0714997  87.7919988 107.5775686  35.5899571  88.2795741
 106.4779671  34.2516368  88.4524244 107.2010012  34.5244997  86.5009988
 107.7872402  33.6197319  86.6503611 106.3583768  34.2329842  85.8800093
 108.1230012  35.5884997  85.7159988 107.7130538  36.5921921  85.8130948
 109.1173365  35.6246442  86.1573884 108.2690012  35.2524997  84.1799988
 108.7362559  34.2919096  83.9778735 107.3026735  35.2222884  83.6813895
 109.1120012  36.3724997  83.5539988 109.1777617  36.2494485  82.4771501
 110.1248135  36.3830897  83.9423802 108.6735042  37.3470134  83.7494070
 109.1600012  39.3874997  81.5849988 109.3216983  39.5341620  80.5216206
 109.5912540  40.2374215  82.1060014 108.0879790  39.4030813  81.7614575
 109.7390012  38.1544997  82.0349988 110.8070364  38.1561414  81.8240459
 109.3165349  37.3316988  81.4646173 109.5200012  37.9204997  83.5479988
 108.4601863  37.9100215  83.8021872 109.9614943  38.7264653  84.1308145
 110.1500012  36.6144997  83.9809988 111.2002464  36.5838318  83.6994062
 109.6813502  35.7628539  83.4903137 110.0450012  36.4454997  85.5019988
 109.0810915  36.0219262  85.7722516 110.0957740  37.4209043  85.9830112
 111.1420012  35.5594997  86.0529988 112.1023861  35.8837746  85.6563584
 110.9959457  34.5405259  85.7009515 111.1990012  35.5614997  87.5569988
 111.9475889  34.8332052  87.8635497 110.2442729  35.1908747  87.9276214
 111.5140012  36.9404997  88.2289988 110.8756120  37.6946676  87.7705873
 112.5369576  37.2151728  87.9784017 111.3430012  36.9844997  89.7019988
 111.9802028  37.7709525  90.1007556 111.7146168  36.0506159  90.1219273
 109.8910012  37.2134997  90.1749988 109.2543607  36.4872668  89.6744253
 109.5672048  38.1941716  89.8273389 109.6930012  37.1264997  91.6939988
 110.4414567  36.4914735  92.1631438 108.7263781  36.7072188  91.9678077
 109.8200012  38.5594997  92.2929988 109.3095176  39.2799615  91.6585224
 110.8661552  38.8592506  92.3125215 109.2570012  38.6274997  93.7399988
 108.1975273  38.3816840  93.6916056 109.3155232  39.6529841  94.0938785
 109.9190012  37.6904997  94.7889988 109.5594626  36.6817287  94.6144760
 109.5469540  37.9926246  95.7643927 111.5020012  37.6784997  94.8349988
 111.8846536  38.6814765  94.9751969 111.9034176  37.2791395  93.9111777
 111.9800012  36.5924997  95.8089988 112.5270012  35.5674997  95.4879988
 111.5900012  36.9334997  97.0209988 112.2000012  36.1174997  98.0609988
 113.0408596  35.5595669  97.6774232 111.4654827  35.4269231  98.4493010
 112.6810012  37.1344997  99.1909988 113.0654048  36.5888215 100.0367902
 111.6210012  38.1134997  99.6489988 111.1907889  38.6213964  98.7964969
 112.0924414  38.8486423 100.2892287 110.6400012  37.4204997 100.3479988
 109.2930012  38.2784997 100.6389988 109.8260012  39.7414997 100.6999988
 109.1210012  40.9684997 100.6319988 108.0523228  40.8600710 100.5002457
 109.4729957  41.5783337  99.8049563 109.4410012  41.7794997 101.8949988
 108.7858315  41.4348110 102.6850566 109.2706394  42.8348582 101.7382435
 110.8970012  41.6584997 102.4649988 111.9390012  41.8874997 101.3709988
 111.7042483  41.2478719 100.5312956 112.9061734  41.6219550 101.7712035
 111.9347785  42.9315583 101.0959700 111.1380012  42.6384997 103.6079988
 110.3302271  42.5431091 104.3173052 111.1955802  43.6355506 103.2093208
 112.0743648  42.3674656 104.0738964 111.1480012  40.3274997 103.0689988
 110.4338857  40.1558602 103.8606180 112.1488887  40.3044384 103.4731552
 111.0462669  39.5630475 102.3122306 108.3900012  38.1014997  99.4739988
 108.7730012  37.8804997 101.9809988 113.7090012  37.8844997  98.6019988
 114.5690012  38.5664997  99.4099988 114.6160012  38.4424997 100.5869988
 115.3320012  39.5944997  98.5999988 115.6905623  40.3269048  99.3159385
 116.2193040  39.1085123  98.2019824 114.5130012  40.2384997  97.4869988
 115.2217814  40.8575291  96.9480237 114.2551051  39.4245826  96.8168782
 113.2340012  41.0864997  97.8119988 112.5196536  40.5206350  98.4045853
 113.4990679  41.9571236  98.4068253 112.6000012  41.5474997  96.5579988
 113.3168398  42.2067077  96.0718990 112.4838972  40.6882103  95.9019929
 111.2180012  42.3034997  96.6569988 110.5562016  41.7265625  97.2997008
 111.3945979  43.2458254  97.1719908 110.5010012  42.5994997  95.3129988
 110.4255433  41.6631320  94.7623422 109.4826042  42.9171607  95.5186125
 111.1770012  43.6584997  94.4249988 111.1172988  44.6236093  94.9144669
 112.2367338  43.4194332  94.3465133 110.5870012  43.7164997  93.0249988
 109.5212435  43.8401246  92.9048673 111.3340012  43.6344997  91.8889988
 110.7995672  43.6679883  90.9504526 112.8390012  43.5044997  91.7399988
 113.3164486  44.0728545  92.5363892 113.1674634  42.4782161  91.8605624
 113.3380012  44.0414997  90.4069988 112.9510949  45.0417023  90.2156790
 114.4225239  44.1321485  90.4142203 112.9040012  43.0724997  89.2299988
 111.9132705  43.4387709  88.9609166 113.5636673  43.3534382  88.4136544
 112.8620012  41.5424997  89.3499988 113.8512988  41.2457653  89.6911495
 112.1783990  41.3178163  90.1668773 112.4760012  40.7434997  88.1529988
 112.3814140  39.6971775  88.4373456 111.4916297  41.0472788  87.8075192
 113.4810012  40.8294997  87.0079988 113.8037555  41.8615779  86.8833907
 114.3737153  40.2633977  87.2676603 112.9490012  40.3114997  85.6459988
 112.8076229  39.2386516  85.7505179 111.9506973  40.7342002  85.5564074
 113.7100012  40.5954997  84.3779988 113.1601352  40.2418041  83.5110410
 114.6792488  40.1084474  84.3690478 113.8754056  41.6618008  84.2523637
 118.6850012  82.0454997  81.8879988 118.3391050  81.0953058  81.4931363
 119.2491016  82.5440178  81.1050171 117.8097681  82.6532899  82.1005314
 119.5370012  81.8484997  83.1449988 120.3657659  81.1968595  82.8734901
 118.9298850  81.2911283  83.8532086 120.0980012  83.1374997  83.8179988
 120.4677715  83.7482028  82.9944451 120.9782728  82.8001006  84.3615561
 119.2200012  84.0434997  84.7909988 118.1812789  83.8887272  84.5075353
 119.4445007  85.0831075  84.5575002 119.3500012  83.8284997  86.2589988
 119.4575071  82.7617538  86.4380761 118.4059152  84.1213001  86.7154356
 120.4850012  84.5584997  86.9469988 120.6170291  85.5310840  86.4763977
 121.4107270  84.0118260  86.7803958 120.2690012  84.7544997  88.4949988
 119.2216317  85.0040699  88.6546921 120.8404221  85.6296297  88.8013573
 120.6520012  83.5514997  89.3969988 120.0203144  82.7087606  89.1191251
 120.3896737  83.8025964  90.4230683 122.1370012  83.1164997  89.3419988
 122.7344704  83.9976974  89.5657444 122.3544458  82.8572394  88.3065863
 122.5820012  81.9354997  90.2759988 123.6122143  81.6756891  90.0426356
 121.9846071  81.0546636  90.0421673 122.4460012  82.2554997  91.7769988
 122.7749078  81.3814458  92.3350232 121.3899639  82.3823600  92.0089894
 123.2390012  83.4954997  92.2939988 122.8788459  84.4035913  91.8166344
 124.2890047  83.4050387  92.0220072 123.1350012  83.6274997  93.8529988
 124.0597311  84.0209626  94.2717032 122.9618083  82.6727728  94.3416447
 122.0480012  84.5514997  94.2069988 121.1522229  84.2014717  93.7045979
 122.3061303  85.5077527  93.7597388 121.7310012  84.7804997  95.7279988
 122.6204966  85.0987135  96.2567508 121.3667245  83.8653704  96.1795625
 120.6060012  85.7674997  96.0609988 120.0950012  86.3734997  95.1649988
 120.2770012  85.7094997  97.3199988 119.2210012  86.6344997  97.7389988
 118.7782921  87.0710041  96.8564261 119.6189864  87.4228866  98.3612895
 118.1530012  85.7844997  98.5209988 117.3283102  86.4169313  98.8052682
 118.6680012  85.0284997  99.7369988 117.8222971  84.8720893 100.3928352
 119.3611547  85.7057407 100.2201837 119.3310012  83.7434997  99.4329988
 120.3970012  83.0124997 100.3139988 119.5200012  82.1074997 101.3059988
 118.8770012  80.9454997 100.7499988 119.5736086  80.3497181 100.1746977
 118.1035564  81.2679669 100.0589163 118.1310012  80.0644997 101.8239988
 118.8555819  79.6108431 102.4883988 117.5961621  79.2812095 101.3065234
 117.0700012  80.7684997 102.7609988 116.1010012  81.5964997 102.0289988
 116.6432281  82.2676446 101.3771641 115.5376556  82.1677114 102.7518120
 115.4339052  80.9507572 101.4778939 116.3000012  79.8504997 103.6469988
 116.9964989  79.2057259 104.1606831 115.6075872  79.2848005 103.0495731
 115.7659908  80.4620282 104.3598541 117.8060012  81.7224997 103.7209988
 118.5244871  81.1606761 104.2991114 117.0882371  82.1821801 104.3836892
 118.3129638  82.4875614 103.1508195 121.1330012  82.2454997  99.2819988
 121.2180012  83.9144997 101.1129988 117.6820012  84.8464997  97.5049988
 116.7510012  83.9694997  97.7479988 116.0250012  83.9864997  98.7209988
 116.6280012  83.0154997  96.5549988 115.5819627  82.7289443  96.5197474
 116.8076136  83.5969516  95.6541325 117.5590012  81.7904997  96.6189988
 117.6853289  81.5169995  97.6607761 117.0624603  80.9492458  96.1459531
 118.8830012  81.9954997  96.0109988 119.1709835  83.0342290  96.1515748
 119.5984703  81.4033994  96.5763183 118.9980012  81.6054997  94.4939988
 120.0144939  81.8464140  94.1883702 118.9049493  80.5250675  94.4151968
 118.0240012  82.2624997  93.4979988 117.0546326  82.3247234  93.9882576
 118.3628220  83.2881907  93.3655625 117.8420012  81.5714997  92.0119988
 117.4765705  82.3815287  91.3827020 118.8496949  81.3497417  91.6718595
 116.9380012  80.2874997  91.7909988 116.8693928  79.7366236  92.7218094
 115.9264693  80.6131621  91.5520567 117.4380012  79.4054997  90.6719988
 118.1211124  78.6744128  91.0774924 117.1940012  79.3524997  89.3189988
 117.6663185  78.6061366  88.6965291 116.2350012  80.3244997  88.5389988
 115.6238755  79.7918593  87.8123347 115.5473498  80.8917912  89.1562483
 117.1470012  81.2844997  87.7829988 117.7591427  81.9180209  88.4238096
 117.8352863  80.7849323  87.1039148 116.1720012  82.1674997  86.9619988
 115.4914345  82.7008315  87.6256954 116.7119498  82.9285357  86.4054167
 115.3800012  81.3294997  86.0169988 115.9933641  80.5158731  85.6362853
 114.5406006  80.8633797  86.5300522 114.8600012  82.1654997  84.8679988
 114.2537610  82.9592835  85.3003992 115.7125941  82.6593139  84.4098963
 114.0020012  81.4474997  83.7699988 114.5526033  80.6141282  83.3373185
 113.1029005  81.0194281  84.2095517 113.5790012  82.4124997  82.6199988
 112.8897572  83.1716238  82.9813689 114.4578655  82.9516891  82.2733215
 112.9350012  81.6594997  81.3999988 112.7339037  82.3479282  80.5847105
 111.9954491  81.1866916  81.6653956 113.5988203  80.8862013  81.0238410
  32.0410012  56.6474997  81.8879988  31.1107431  56.2515847  81.4926504
  32.7907716  56.5756702  81.1053911  31.8875056  57.7019634  82.1005012
  32.4780012  55.8904997  83.1449988  32.5680910  54.8399880  82.8738678
  31.6562258  55.9535079  83.8531861  33.8030012  56.3614997  83.8179988
  34.5016320  56.5082906  82.9944112  34.1578335  55.4883008  84.3618634
  33.8650012  57.6224997  84.7909988  33.0423152  58.2753348  84.5077249
  34.7775245  58.1688152  84.5574468  33.7970012  57.3804997  86.2589988
  33.0908995  56.5736668  86.4379242  33.3663828  58.2701967  86.7154766
  35.1050012  57.0494997  86.9469988  35.9058760  57.6167242  86.4761773
  35.3372841  55.9997691  86.7806037  35.1010012  57.3414997  88.4949988
  34.5683166  58.2771464  88.6549437  36.1305303  57.5212940  88.8015500
  34.4830012  56.2394997  89.3969988  33.4362926  56.1246043  89.1183389
  34.4862292  56.6022635  90.4231937  35.1810012  54.8574997  89.3419988
  36.2325117  55.0233684  89.5663961  35.1409329  54.5214512  88.3066037
  34.6220012  53.7254997  90.2759988  35.1362191  52.7956798  90.0429452
  33.5707625  53.5599586  90.0416433  34.7620012  54.0434997  91.7769988
  34.3483609  53.2063191  92.3351846  34.1333472  54.9014720  92.0089593
  36.2100012  54.3114997  92.2939988  36.6272538  55.1949015  91.8167982
  36.8612876  53.4829096  92.0220900  36.2350012  54.4774997  93.8529988
  37.1539903  54.0710892  94.2719755  35.4193804  53.9517901  94.3415335
  36.1670012  55.9034997  94.2069988  35.2992327  56.3183753  93.7048025
  37.0414786  56.3683869  93.7594933  36.1180012  56.2914997  95.7279988
  36.9582540  55.8594749  96.2565541  35.2010239  55.9322164  96.1798143
  36.0710012  57.7864997  96.0609988  36.1640012  58.5744997  95.1649988
  35.8040012  57.9874997  97.3199988  35.7580012  59.3904997  97.7389988
  35.7747345  60.0121890  96.8565678  36.6058241  59.6377107  98.3613130
  34.4080012  59.5904997  98.5209988  34.3062666  60.6247141  98.8055064
  34.2080012  58.6974997  99.7369988  33.5164725  59.2083149 100.3932433
  35.1763248  58.6536589 100.2197123  33.7220012  57.3354997  99.4329988
  33.9160012  56.0584997 100.3139988  32.6560012  56.0794997 101.3059988
  31.3670012  55.7564997 100.7499988  31.4068271  54.8411951 100.1739602
  31.0743876  56.5423894 100.0596715  30.2150012  55.6994997 101.8239988
  30.3782502  54.8604306 102.4885000  29.2778362  55.5551072 101.3060705
  30.0040012  56.9554997 102.7609988  29.9480012  58.2274997 102.0289988
  30.8091611  58.2893396 101.3779125  29.9800223  59.0294076 102.7515072
  29.0212207  58.2737329 101.4770409  28.8090012  56.8904997 103.6469988
  28.8146215  55.9415387 104.1609594  27.9224850  57.0091564 103.0500233
  28.8908353  57.6984848 104.3595717  31.2040012  57.0694997 103.7209988
  31.2845511  56.1609169 104.2989876  31.0496038  57.9076399 104.3838203
  32.1089401  57.2218773 103.1506467  33.8580012  54.9964997  99.2819988
  35.1360012  56.0744997 101.1129988  33.4010012  59.2934997  97.5049988
  32.1250012  59.3744997  97.7479988  31.6410012  59.9164997  98.7209988
  31.3440012  58.8124997  96.5549988  30.4202723  59.3808655  96.5198115
  31.8913381  59.0784340  95.6541058  31.0850012  57.2954997  96.6189988
  30.9715105  57.0163916  97.6607663  30.1314007  57.0836133  96.1459413
  32.1390012  56.4684997  96.0109988  33.0944169  56.9674826  96.1518917
  32.1949715  55.5413785  96.5761348  31.9330012  56.1184997  94.4939988
  32.8036181  55.5411193  94.1884434  31.0807038  55.4479981  94.4151388
  31.7470012  57.2784997  93.4979988  31.1295861  58.0284224  93.9882187
  32.7273006  57.7323669  93.3660953  31.1190012  56.9394997  92.0119988
  31.4614963  57.7593021  91.3824577  31.6448069  56.0516240  91.6721118
  29.5630012  56.7234997  91.7909988  29.1135095  56.3977949  92.7218337
  29.1104015  57.6848776  91.5517249  29.2600012  55.7554997  90.6719988
  29.1920117  54.7572762  91.0775617  29.0550012  55.8974997  89.3189988
  28.8326962  55.0426440  88.6965742  29.1100012  57.2614997  88.5389988
  28.3035019  57.3438596  87.8123649  29.0544300  58.1511857  89.1562925
  30.4340012  57.2514997  87.7829988  31.3147605  57.2372133  88.4239074
  30.5393629  56.4075133  87.1039958  30.4130012  58.5664997  86.9619988
  30.3376830  59.4279199  87.6256172  31.3376613  58.6918908  86.4054157
  29.2600012  58.5724997  86.0169988  29.0846037  57.5688410  85.6361443
  28.3461166  58.8673474  86.5297996  29.5160012  59.5234997  84.8679988
  29.6819597  60.5085976  85.3000056  30.4587117  59.2379730  84.4093089
  28.4040012  59.6594997  83.7699988  28.1710522  58.6882136  83.3373083
  27.4773985  60.0240505  84.2097080  28.8200012  60.6274997  82.6199988
  28.9034496  61.6494237  82.9814164  29.8142785  60.3539523  82.2737367
  27.8310012  60.5834997  81.3999988  28.1967607  61.2006358  80.5848718
  26.8437837  60.9467148  81.6649844  27.7198396  59.5704621  81.0237820
  42.8820012  43.0714997  83.7329988  43.8397484  42.8809011  83.2588454
  43.0207215  43.8776153  84.4476484  42.1984204  43.4257949  82.9663149
  42.3350012  41.8034997  84.4209988  43.0682069  41.4674864  85.1522357
  42.2676818  41.0179669  83.6731884  40.9320012  41.9954997  85.1389988
  40.1878372  42.3385285  84.4203332  41.0141360  42.7823386  85.8861998
  40.4330012  40.7504997  85.8119988  41.2211991  40.3904184  86.4695210
  40.2959569  39.9795122  85.0553594  39.1170012  40.8994997  86.6439988
  38.2865212  40.4861865  86.0773876  38.9058973  41.9606516  86.7654761
  39.1590012  40.2274997  88.0309988  40.2098451  40.0562480  88.2573102
  38.7097550  39.2440811  87.9099909  38.4940012  40.9464997  89.2179988
  38.3501531  40.2243419  90.0196009  37.4980652  41.2641895  88.9123606
  39.2760012  42.1694997  89.7649988  38.6526352  42.7852085  90.4121220
  39.6151245  42.8201700  88.9610662  40.4600012  41.6834997  90.5379988
  41.2879910  42.3820356  90.4378926  40.8119595  40.7355451  90.1329253
  40.1240012  41.5054997  92.0179988  39.4495349  40.6560810  92.1009582
  39.5561747  42.3785653  92.3385586  41.3470012  41.3114997  92.9689988
  41.9897859  42.1817411  92.8547684  41.9232723  40.4608426  92.6092458
  41.0470012  41.1244997  94.4639988  40.5864047  40.1540227  94.6320595
  40.3177538  41.8665152  94.7838131  42.3010012  41.2684997  95.3269988
  43.1504843  40.8234397  94.8116814  42.1958170  40.7277380  96.2633679
  42.6430012  42.7204997  95.6279988  41.7467569  43.1813519  96.0301263
  42.8327818  43.1887229  94.6657918  43.8540012  43.0274997  96.5809988
  44.7539604  42.5487388  96.2164409  43.6482952  42.6654361  97.5813307
  43.9370012  44.5364997  96.8569988  44.9330012  45.2534997  96.8189988
  42.7580012  44.9064997  97.2039988  42.6020012  46.2744997  97.7229988
  42.5216732  46.9289613  96.8681950  43.4640838  46.5612901  98.3075984
  41.3480012  46.3384997  98.5469988  41.0284696  47.3450956  98.7604426
  41.6550012  45.6124997  99.8369988  42.5710263  46.0015758 100.2604590
  41.8001511  44.5663445  99.5980932  40.5670012  45.7684997 100.7629988
  40.7990012  45.3424997 102.3259988  39.7760012  44.0614997 102.4699988
  40.3150012  42.7934997 102.4999988  40.6882849  42.5232008 103.4791753
  41.1605133  42.7338049 101.8207766  39.2760012  41.7154997 101.9679988
  38.3051542  41.9510381 102.3854036  39.5501185  40.7148166 102.2694455
  39.0790012  41.6584997 100.4869988  38.6760012  43.0124997  99.9539988
  37.8408632  43.3778996 100.5356872  38.3756160  42.8892463  98.9241068
  39.5253926  43.6769283 100.0067794  40.3650012  41.3114997  99.7489988
  40.7992094  40.4373455 100.2094678  41.0334309  42.1526641  99.7938764
  40.1012465  41.0978313  98.7232911  38.0420012  40.6704997 100.1579988
  38.3368017  39.7047228 100.5406861  37.9311951  40.6163691  99.0854122
  37.1042591  40.9699679 100.6034128  42.2130012  44.8504997 102.4879988
  40.3770012  46.3954997 103.3179988  40.2750012  45.6994997  97.7839988
  39.0790012  46.1484997  98.0239988  38.7240012  47.0914997  98.7839988
  38.0980012  45.2874997  97.2289988  38.4614004  45.1883576  96.2113225
  38.0567109  44.2777515  97.6297614  36.7050012  45.9674997  97.2839988
  36.2389721  45.7964056  98.2481589  36.7907662  47.0443712  97.1789990
  35.7900012  45.4024997  96.1719988  35.8203993  44.3162968  96.2018852
  34.7651382  45.6835057  96.4016867  36.1350012  45.9084997  94.7349988
  35.2094637  46.1705218  94.2256552  36.7227646  46.8217960  94.7862427
  36.9110012  44.8494997  93.8459988  37.6628847  44.3565111  94.4588074
  36.2064830  44.0748433  93.5494475  37.5690012  45.4124997  92.5959988
  38.0905580  44.5707583  92.1430628  36.7626553  45.6749153  91.9168358
  38.5550012  46.6384997  92.7059988  38.9905522  46.8299756  91.7322368
  37.9755002  47.5243911  92.9623599  39.6060012  46.4464997  93.7329988
  39.2249510  46.3113033  94.7340366  40.9610012  46.4074997  93.5729988
  41.5710179  46.2578543  94.4522574  41.7290012  46.5414997  92.3259988
  41.2522325  47.2913086  91.6969524  42.7392484  46.8926679  92.5042191
  41.7780012  45.2354997  91.5539988  42.3623347  44.5015644  92.1077120
  40.7718300  44.8275903  91.4785762  42.3860012  45.4044997  90.0899988
  43.4131963  45.7532574  90.1965125  42.4451991  44.4208864  89.6322820
  41.6150012  46.3664997  89.1489988  40.5462966  46.3778468  89.3512039
  41.9508181  47.3989061  89.2293043  41.8790012  45.8484997  87.6899988
  42.9374542  45.6372049  87.5499210  41.3624047  44.9101558  87.5076148
  41.4550012  46.9094997  86.6219988  41.8739262  47.8833861  86.8688388
  41.8612507  46.6444305  85.6475586  39.8980012  47.0554997  86.4889988
  39.4387573  47.0958970  87.4735688  39.6876767  48.0164923  86.0247039
  39.2160012  45.9264997  85.6409988  38.1570314  46.1284353  85.5110984
  39.3059063  44.9541457  86.1134242  39.6628922  45.8560376  84.6533427
  86.0500012  23.9864997  83.2239988  86.0542785  24.5640100  82.3048184
  85.6544473  23.0012971  82.9944273  87.0819336  23.8610029  83.5401916
  85.2180012  24.6794997  84.3149988  84.1937167  24.8137646  83.9714622
  85.6117189  25.6757288  84.4975578  85.2110012  23.8744997  85.6069988
  86.0624732  24.1668625  86.2213670  85.3605565  22.8240556  85.3653970
  83.9240012  24.0054997  86.4309988  83.9968164  23.2646914  87.2241892
  83.1053994  23.6815417  85.7901802  83.5760012  25.3504997  87.0519988
  82.6461738  25.2602495  87.6077406  83.3848406  26.0616470  86.2500686
  84.6700012  25.9214997  87.9919988  85.5747628  26.1066966  87.4158691
  84.9308203  25.1707177  88.7348829  84.2470012  27.2214997  88.7089988
  83.2093261  27.1541111  89.0306496  84.2983459  28.0649006  88.0217808
  85.1500012  27.5094997  89.9439988  85.4967473  26.5757514  90.3848302
  84.5807673  28.0187247  90.7194643  86.4000012  28.3954997  89.5479988
  86.0183599  29.3428222  89.1732041  86.8867455  27.9089598  88.7036434
  87.4360012  28.6634997  90.6419988  86.9452474  29.2041945  91.4482921
  88.1944600  29.3354739  90.2412247  88.0810012  27.4734997  91.1629988
  88.5741177  26.9812616  90.3274877  87.3028139  26.7906301  91.4995130
  89.1580012  27.6724997  92.3409988  88.8348621  28.5294728  92.9269998
  90.0924758  27.9644498  91.8654021  89.4280012  26.4824997  93.2559988
  90.3111305  26.7030237  93.8532455  89.6741577  25.6078957  92.6603909
  88.2670012  26.1234997  94.2299988  88.4464213  25.1050277  94.5584317
  87.3711602  26.1024373  93.6150862  88.0000012  27.0024997  95.4459988
  87.8508596  28.0314891  95.1443723  88.8361855  26.9594397  96.1337564
  86.6630012  27.8024997  95.5009988  86.1920012  28.4244997  94.5639988
  86.1300012  27.7844997  96.7479988  84.8400012  28.3464997  96.9369988
  84.5338534  28.6528692  95.9481240  84.8998372  29.2171923  97.5737923
  83.8690012  27.3344997  97.4949988  82.8646219  27.7238797  97.5173478
  84.3410012  26.9584997  98.9809988  83.4850390  26.7649707  99.6131983
  84.8930997  27.7949546  99.3910175  85.1860012  25.7874997  98.9009988
  86.3240012  25.5464997  99.8859988  86.6700012  26.9374997 100.3899988
  87.8930012  27.3574997 101.0249988  88.5526473  27.7350982 100.2546253
  88.3581943  26.4565216 101.4143968  87.8250012  28.3494997 102.2479988
  87.6813282  29.3483710 101.8557449  88.7138918  28.3421086 102.8621615
  86.6690012  28.1074997 103.1889988  86.7610012  28.9434997 104.4279988
  87.7441466  28.8143830 104.8593778  86.0107346  28.5945684 105.1218626
  86.5657610  29.9737959 104.1709230  85.3780012  28.4814997 102.4819988
  85.3636113  27.9989220 101.5167912  85.3267261  29.5514594 102.3875156
  84.5607287  28.1201881 103.0893016  86.6960012  26.6534997 103.4929988
  86.6091610  26.0960415 102.5722484  85.8679637  26.4114201 104.1421532
  87.6253575  26.4051021 103.9849647  85.8320012  24.6664997 100.9699988
  87.5060012  24.9554997  99.1689988  83.8580012  26.2004997  96.5999988
  83.2380012  26.3294997  95.4439988  82.6740012  27.3274997  95.0179988
  83.3100012  24.9774997  94.6389988  83.6444968  24.2095023  95.3288144
  82.3067186  24.6885594  94.3359399  84.2100012  25.0984997  93.4629988
  83.6118915  25.4099969  92.6137077  84.9140252  25.9040710  93.6458591
  84.9840012  23.7904997  93.0919988  85.6112785  23.5134138  93.9354444
  84.2481908  22.9969015  92.9878348  85.8390012  23.8514997  91.7859988
  85.1650803  23.9981644  90.9439619  86.4894529  24.7224419  91.8099616
  86.6700012  22.6344997  91.5179988  87.4569642  22.5939596  92.2682965
  86.0367345  21.7675405  91.6961452  87.2740012  22.5124997  90.1609988
  87.6594490  21.5008755  90.0437490  86.5033227  22.6364272  89.4053436
  88.4050012  23.5244997  89.8829988  87.9964821  24.3598316  89.3263007
  88.7429035  23.9274778  90.8368209  89.5820012  22.9244997  89.1719988
  90.1419759  22.1772839  89.7138945  90.0030012  23.2214997  87.9069988
  90.8917401  22.8195939  87.4419988  89.2150012  24.1774997  87.0189988
  89.3906605  23.9242959  85.9748471  88.1446006  24.1007372  87.1740190
  89.6450012  25.5814997  87.2349988  89.4750707  25.8707359  88.2714210
  90.7176404  25.6623777  87.0695818  88.9110012  26.5664997  86.2979988
  89.1371301  26.2907777  85.2679745  87.8397464  26.4322891  86.4200843
  89.2770012  28.0744997  86.5209988  89.3233948  28.3066614  87.5826454
  90.2603879  28.3062505  86.1156260  88.2470012  28.9424997  85.8499988
  87.2690327  28.7272778  86.2764342  88.4448836  29.9872146  86.0736910
  88.1540012  28.7364997  84.3159988  89.1606677  28.5886824  83.9291454
  87.6198537  27.8063701  84.1305819  87.4660012  29.8774997  83.4909988
  86.4383745  29.9875031  83.8283380  87.9659493  30.8061347  83.7574605
  87.4880012  29.7314997  82.0189988  87.0674535  30.6096174  81.5382514
  86.9132328  28.8731112  81.6880128  88.5037973  29.6090637  81.6538842
  22.8350012  68.2524997  79.7979988  23.2936676  67.5611403  79.0979443
  23.5839435  68.9886457  80.0754233  22.0393322  68.7745006  79.2735582
  22.3030012  67.5314997  81.0109988  23.1347434  66.9958164  81.4653678
  21.6094438  66.7739193  80.6562253  21.6190012  68.4204997  82.0869988
  21.1301327  69.2640145  81.5997418  22.3896413  68.8471385  82.7259542
  20.5760012  67.6704997  82.9959988  19.6804854  67.5742401  82.3860516
  20.3225397  68.3640613  83.7962710  20.9180012  66.2614997  83.6149988
  21.7174131  66.3639079  84.3443999  21.3027555  65.6138614  82.8289365
  19.6900012  65.5684997  84.3009988  19.8684698  64.5051950  84.4504951
  18.7972194  65.6432277  83.6838006  19.4240012  66.2334997  85.6579988
  19.2323370  67.2853708  85.4540331  20.3626708  66.1965807  86.2091487
  18.3030012  65.6774997  86.5339988  18.7249199  65.0153114  87.2889440
  17.6370442  65.0642180  85.9297878  17.4600012  66.8164997  87.2489988
  16.5288846  66.4020836  87.6295540  17.1788298  67.5784797  86.5231157
  18.2420012  67.4834997  88.4159988  19.2945677  67.5353600  88.1463448
  18.1833022  66.8418186  89.2947643  17.7490012  68.8114997  88.7589988
  16.8339484  68.6590121  89.3273007  17.4499771  69.2875793  87.8267645
  18.6820012  69.7964997  89.5719988  18.0903121  70.6807538  89.7960918
  19.4647441  70.1198037  88.8882897  19.3570012  69.2474997  90.8869988
  20.0273842  70.0010886  91.2968063  19.9702540  68.3748941  90.6802275
  18.3140012  68.8864997  91.9829988  17.6273646  68.1369139  91.6035300
  17.7229851  69.7714470  92.2035896  18.9460012  68.3774997  93.2969988
  19.6608537  69.0962701  93.6769933  19.4548984  67.4354246  93.1309050
  19.5350012  69.6134997  94.0789988  19.3410012  70.7414997  93.7579988
  20.0490012  69.2684997  95.3049988  20.5820012  70.3124997  96.0369988
  19.7188308  70.9111283  96.2860825  21.2153977  70.8697159  95.3620832
  21.3710012  69.9094997  97.3549988  20.6449061  69.3713161  97.9415466
  21.8730012  71.0544997  98.1139988  20.9813620  71.5196705  98.5119896
  22.2793589  71.6908514  97.3377805  22.8610012  70.8494997  99.1749988
  22.4020012  70.1644997 100.5349988  22.9820012  68.7204997 100.2569988
  22.1170012  67.5784997 100.1439988  22.5105009  66.8300692  99.4685739
  21.1565846  67.8842698  99.7391509  21.7800012  66.9314997 101.6029988
  21.4672294  65.9083898 101.4366584  20.9426910  67.4914324 101.9938491
  22.8070012  66.8734997 102.7289988  24.1560012  66.3674997 102.3139988
  24.0266781  65.4325576 101.7862746  24.7395432  66.2030083 103.2075989
  24.6365571  67.1140262 101.6996038  22.9240012  68.2214997 103.4069988
  21.9323990  68.5671555 103.6559189  23.4241282  68.9053428 102.7447288
  23.5044648  68.0809685 104.3073376  22.2730012  65.8924997 103.7729988
  21.3085942  66.2325302 104.1199577  22.9615709  65.8486408 104.6034192
  22.1776920  64.9114004 103.3305110  23.1550012  70.8444997 101.6469988
  20.9140012  70.1664997 100.5969988  22.5080012  69.0834997  97.0899988
  22.1960012  67.8044997  96.7969988  21.1060012  67.2924997  96.8229988
  23.4300012  66.9744997  96.5459988  24.2160935  67.6464692  96.2172607
  23.7769341  66.5469497  97.4834131  23.1430012  65.8804997  95.5139988
  24.0742801  65.3636135  95.3100156  22.4844927  65.1454256  95.9657351
  22.5490012  66.3694997  94.2049988  21.5183010  66.6964917  94.3162980
  23.0990991  67.2258368  93.8227109  22.6320012  65.2434997  93.1829988
  23.6663042  65.0148314  92.9327309  22.1926832  64.3144385  93.5380300
  21.8830012  65.6904997  91.8539988  20.8819550  65.2652844  91.8856156
  21.7557868  66.7695786  91.9155302  22.5390012  65.3494997  90.5079988
  23.3927725  64.7032299  90.7057634  21.8434490  64.7648965  89.9123778
  23.0150012  66.6014997  89.6509988  23.3325961  66.2094479  88.6918279
  22.1190512  67.1907058  89.4600646  24.0920012  67.5244997  90.2589988
  25.0672439  67.0921401  90.4248927  23.9390012  68.7584997  90.5729988
  24.7388576  69.3631335  90.9758109  22.6210012  69.5024997  90.4079988
  21.9991987  68.9838242  89.6802911  22.0441998  69.5442690  91.3251882
  22.8870012  71.0234997  89.8629988  21.9570005  71.3579436  89.4047947
  23.0278860  71.6405592  90.7483507  24.0350012  71.2584997  88.9049988
  24.1134538  72.3265416  88.7019257  24.9682790  70.9705502  89.3810047
  23.8840012  70.5064997  87.5869988  24.3799637  69.5434141  87.6851438
  22.8294865  70.2905067  87.4244230  24.4550012  71.2814997  86.3359988
  23.8864530  72.1995705  86.2000245  25.4771459  71.5920895  86.5344403
  24.3910012  70.4734997  84.9979988  23.3685339  70.1297230  84.8521860
  24.5997378  71.1565889  84.1766266  25.3100012  69.2964997  84.8819988
  26.2783811  69.5512723  85.3053736  24.9081373  68.5086794  85.5153689
  25.5020012  68.7414997  83.4699988  26.1091000  67.8414203  83.4888951
  25.9967414  69.4536229  82.8181909  24.5477675  68.4874172  83.0172061
  96.8420012  27.3744997  82.2799988  96.7851398  26.3076169  82.0877566
  97.6526040  27.5416439  82.9834018  97.1093578  27.8644458  81.3477513
  95.5100012  27.9154997  82.8269988  95.2697567  27.3679743  83.7367798
  94.7317590  27.6709381  82.1091250  95.4980012  29.4254997  83.1269988
  95.3782148  30.0137036  82.2172755  96.4428987  29.7392418  83.5662088
  94.3480012  29.7774997  84.1229988  93.4717253  29.2183878  83.8023986
  94.1024879  30.8290754  83.9829358  94.5830012  29.5074997  85.6019988
  95.5680746  29.8333544  85.9260698  94.5252907  28.4429871  85.8230134
  93.5260012  30.2474997  86.4139988  92.5316248  29.9617785  86.0757738
  93.6092703  31.3186853  86.2431055  93.6500012  29.9664997  87.9019988
  94.6929806  30.1048091  88.1809868  93.4298440  28.9117490  88.0609388
  92.7500012  30.8254997  88.8369988  91.7328652  30.4390175  88.7868300
  92.7097264  31.8391757  88.4426348  93.2090012  30.8714997  90.3239988
  92.5520993  31.5417857  90.8742146  94.2033199  31.3137476  90.3722075
  93.2310012  29.4734997  91.0279988  94.1476564  28.9790984  90.7139773
  92.4110216  28.8913967  90.6082148  93.1260012  29.4614997  92.5559988
  92.3953138  30.2057827  92.8653200  94.0749505  29.7707144  92.9907508
  92.7170012  28.1104997  93.1459988  93.2507570  27.3426341  92.5912860
  91.6618063  27.9723741  92.9176237  92.9290012  27.9054997  94.7029988
  92.5855574  26.9108029  94.9820628  92.3219649  28.6067717  95.2686829
  94.4240012  28.0444997  95.1529988  94.7090832  29.0827026  95.2879358
  95.0885700  27.6313518  94.3988442  94.6530012  27.2604997  96.5109988
  94.3433944  26.2280943  96.4093923  94.0829879  27.7173254  97.3112888
  96.0320012  27.6804997  97.0749988  97.0350012  27.4564997  96.3659988
  96.0250012  28.1474997  98.3759988  97.3720012  28.3244997  98.9019988
  97.9696350  27.7296410  98.2278778  97.4295971  27.8995664  99.8936168
  97.8590012  29.7854997  98.8989988  98.8014630  29.8642198  99.4151991
  96.8080012  30.7774997  99.5439988  97.2871984  31.7336369  99.7051586
  96.5314589  30.3616907 100.5048381  95.6440012  30.9314997  98.7099988
  94.4270012  31.7474997  99.2989988  94.1980012  30.8874997 100.6409988
  93.2700012  31.3934997 101.5249988  92.3814305  31.7989932 101.0589449
  93.6924898  32.1913757 102.1288980  92.9190012  30.3044997 102.4999988
  92.7045486  29.4102729 101.9284941  92.0289681  30.5931163 103.0402937
  93.9520012  29.8794997 103.5769988  93.6260012  28.4824997 104.0519988
  92.5813992  28.4471075 104.3292860  94.2389087  28.2728198 104.9159888
  93.8579307  27.7814371 103.2643206  95.3900012  29.9394997 103.1069988
  95.5631133  30.9044595 102.6557797  95.5643751  29.1414080 102.4077039
  96.0194496  29.8187069 103.9767693  93.7890012  30.8944997 104.6779988
  93.9676059  31.8823964 104.2802019  94.5018067  30.6854794 105.4614965
  92.7864678  30.8362446 105.0767068  94.8590012  33.0964997  99.6849988
  93.2690012  31.7034997  98.4079988  98.1210012  30.0534997  97.5309988
  98.9820012  31.0764997  97.4309988  99.3630012  31.6944997  98.3819988
  99.2530012  31.3774997  95.9609988 100.1228528  32.0260439  95.9436360
  99.5623593  30.4520999  95.4815827  98.0440012  32.0094997  95.2259988
  97.5521379  32.7283661  95.8720348  98.3728715  32.5655821  94.3538465
  97.0300012  30.9334997  94.8069988  96.6943904  30.4394642  95.7152654
  96.1670246  31.4661428  94.4150449  97.4810012  29.8674997  93.7509988
  98.2662913  29.2577348  94.1939572  96.6585500  29.1911337  93.5312143
  98.0060012  30.4484997  92.4389988  97.3965369  31.3087447  92.1698654
  99.0080656  30.8322034  92.6207108  98.0600012  29.4954997  91.2819988
  99.0477458  29.0414723  91.2193840  97.3551706  28.6792535  91.4134300
  97.7490012  30.1984997  89.9779988  97.4395403  29.4354301  89.2733437
  96.8734109  30.8198192  90.1614372  98.8590012  31.0774997  89.3889988
  99.8517165  30.6564358  89.4416815  98.7360012  32.2884997  88.8119988
  99.6488542  32.7278544  88.4361308  97.5150012  33.1374997  88.5999988
  96.8466900  32.9728166  89.4434801  97.7710142  34.1909974  88.6167574
  96.7120012  32.8054997  87.2509988  96.4749194  31.7432799  87.2042402
  95.7579827  33.3292281  87.2550343  97.4870012  33.2004997  86.0259988
  97.6974388  34.2628782  86.1491851  98.4430621  32.6904006  86.1050585
  96.9020012  32.9644997  84.6499988  96.4222393  31.9900557  84.7085871
  96.0999339  33.6924665  84.5411985  97.7930012  33.0254997  83.4419988
  98.6257480  32.3363787  83.5694152  97.2568488  32.6833932  82.5610170
  98.3630012  34.4024997  83.1979988  97.6111069  35.1878887  83.2499799
  99.1323835  34.6731074  83.9188706  98.9720012  34.4144997  81.8239988
  98.1955969  34.2916978  81.0729787  99.3931537  35.4031819  81.6553247
 100.0530012  33.3824997  81.6029988 100.5079647  33.5043398  80.6246164
  99.6650938  32.3709103  81.6573661 100.8390450  33.4748758  82.3471377
 124.0270012  64.6824997  83.6169988 123.7694920  65.0369308  82.6237734
 124.7944766  63.9215690  83.5085738 124.4639027  65.5148549  84.1618967
 122.8250012  64.1424997  84.3309988 122.3799994  63.3091470  83.7899814
 122.0481359  64.8968055  84.4221968 123.2600012  63.6674997  85.7139988
 123.7224559  64.4852712  86.2665514 124.0264008  62.9017460  85.6119006
 122.0970012  63.0874997  86.5429988 121.6240241  62.3153483  85.9402343
 121.3505449  63.8699897  86.6703502 122.4460012  62.4984997  87.9009988
 122.9314167  63.2248798  88.5477728 123.1403301  61.6657963  87.8016134
 121.1010012  61.9844997  88.6129988 121.3866486  61.3187726  89.4254210
 120.5556496  61.3736755  87.8967150 120.2000012  63.0444997  89.1399988
 119.3020770  62.5628639  89.5227901 119.8803114  63.6615881  88.3014105
 120.7920012  63.9354997  90.2219988 119.9795949  64.5141956  90.6596723
 121.4519935  64.6544619  89.7401406 121.5740012  63.2004997  91.3609988
 122.4918933  62.8290635  90.9103879 120.9847669  62.3212065  91.6183379
 121.9160012  63.9804997  92.6509988 122.5752189  63.3802749  93.2742653
 121.0098835  64.1437348  93.2338659 122.5500012  65.2924997  92.3559988
 122.0861162  65.8449562  91.5416625 123.6145295  65.2590690  92.1306328
 122.3310012  66.0814997  93.6659988 122.4688340  65.4462861  94.5376207
 121.3116259  66.4587255  93.7229619 123.2880012  67.2594997  93.7209988
 123.1044047  67.8804868  92.8458306 124.3085872  66.8985829  93.6292533
 123.1800012  68.1734997  94.9949988 122.4894901  68.9866250  94.7965884
 124.1530643  68.6235869  95.1729359 122.7570012  67.4644997  96.2239988
 123.4135254  66.6270854  96.4233836 121.7442519  67.0945153  96.1166699
 122.8920012  68.3924997  97.4279988 122.6220012  69.5754997  97.3539988
 123.3640012  67.7534997  98.5019988 123.4910012  68.6154997  99.6409988
 123.6406187  69.6432442  99.3463503 124.3506152  68.2805565 100.2031987
 122.2150012  68.4824997 100.4639988 122.2978540  68.9874331 101.4121926
 121.8090012  66.9744997 100.6929988 121.1081593  66.9211121 101.5150520
 122.7096911  66.4408840 100.9697603 121.2420012  66.4124997  99.5199988
 120.3800012  65.0854997  99.3739988 120.6060012  64.2424997 100.7169988
 121.7650012  63.5694997 101.0809988 122.6601725  63.8840354 100.5604947
 121.6765617  62.4986348 100.9221783 121.9280012  63.7474997 102.6649988
 122.1655424  64.7765284 102.9035844 122.7564519  63.1215885 102.9637988
 120.7930012  63.3764997 103.5559988 121.3640012  63.3134997 104.9779988
 122.2438148  62.6848626 104.9692035 120.6125034  62.8783150 105.6198442
 121.5881911  64.3159810 105.3103946 119.6680012  64.4054997 103.5319988
 119.4166148  64.6145374 102.5034940 119.9927175  65.2927130 104.0455956
 118.8199871  63.9689082 104.0394996 120.2880012  61.9794997 103.1889988
 119.9812497  61.9729022 102.1536524 119.4462815  61.7301643 103.8174810
 121.0784694  61.2587664 103.3411119 119.0050012  65.5904997  99.3799988
 120.8010012  64.3414997  98.1899988 121.1500012  69.0834997  99.6669988
 120.0560012  69.3624997 100.3659988 119.7920012  69.1054997 101.5209988
 119.0720012  70.1594997  99.4099988 118.4032484  70.6998694 100.0720587
 119.6615417  70.9170795  98.8996834 118.2950012  69.2754997  98.3929988
 117.7646244  68.5585452  99.0100383 117.5372015  69.9311907  97.9760552
 118.9960012  68.5504997  97.2959988 119.5583889  69.2684345  96.7044384
 119.7307296  67.8903244  97.7503200 118.1200012  67.7474997  96.4189988
 117.3899130  67.2453233  97.0510559 117.5544344  68.4119080  95.7702324
 118.8140012  66.6984997  95.5629988 119.7069814  67.1222230  95.1080858
 119.1558138  65.8869534  96.2024812 117.9180012  66.1164997  94.4729988
 118.1911772  65.0671372  94.3734286 116.8958411  66.1336349  94.8407123
 117.9550012  66.8054997  93.0449988 118.9903882  66.7799419  92.7257801
 117.4121350  66.1359672  92.3791394 117.3690012  68.2144997  92.9069988
 116.3065753  68.2661024  92.7222219 118.0520012  69.4174997  93.0069988
 117.5079322  70.3461604  92.9111438 119.5180012  69.5914997  93.2469988
 119.6606041  70.4513201  93.8993746 119.9410583  68.7406932  93.7693320
 120.3200012  69.8414997  91.9239988 120.0385275  70.8279867  91.5575006
 121.3695036  69.9100660  92.2038241 120.1640012  68.8064997  90.7889988
 120.4245223  67.8043544  91.1294993 119.1391025  68.7493442  90.4328808
 121.0770012  69.1974997  89.6409988 120.9284782  70.2584587  89.4527121
 122.1066703  69.0894269  89.9774311 120.8830012  68.4014997  88.3399988
 121.0697594  67.3552276  88.5745755 119.8320381  68.4622678  88.0709097
 121.7640012  68.7814997  87.1249988 121.4982543  69.7881293  86.8072594
 122.7996784  68.8330613  87.4559792 121.6860012  67.8254997  85.8759988
 122.2881289  68.2519628  85.0775713 122.1856903  66.9028544  86.1629648
 120.3210012  67.4904997  85.3479988 120.3860380  66.7596645  84.5475494
 119.8144204  68.3635489  84.9506301 119.6924939  67.0711335  86.1285445
  99.9250012 107.2304997  80.8249988 100.1711030 107.8070155  79.9387187
 100.7436613 107.3413210  81.5301968  99.0415586 107.6759226  81.2741532
  99.6860012 105.7634997  80.4829988 100.5851508 105.3832116  80.0012168
  98.8996540 105.7269214  79.7339099  99.3370012 104.8814997  81.6379988
  99.6327042 105.3364269  82.5832659  99.8801152 103.9407241  81.5736603
  97.8160012 104.5704997  81.6729988  97.5382732 104.2929288  80.6585671
  97.3041044 105.5091157  81.8795603  97.2810012 103.4414997  82.6779988
  97.7896213 102.4882600  82.5587815  96.2193953 103.2401426  82.5445319
  97.5260012 103.9664997  84.1219988  96.5837939 104.3356270  84.5230068
  98.1927051 104.8247931  84.0728545  98.1330012 102.8884997  85.1169988
  98.1426943 103.3598850  86.0980553  99.1758912 102.7683666  84.8268637
  97.4920012 101.5414997  85.2229988  97.4378496 101.0760861  84.2396836
  96.4647821 101.6424751  85.5684100  98.2680012 100.6054997  86.1909988
  99.3278915 100.6913075  85.9611932  97.9893212  99.5783083  85.9590669
  98.0490012 100.8644997  87.6939988  96.9700136 100.9068687  87.8254893
  98.4186407 101.8730943  87.8771172  98.6780012  99.8884997  88.7419988
  99.7605425  99.9944839  88.7216857  98.4698449  98.8582765  88.4583806
  98.1930012 100.1264997  90.1889988  98.3542667  99.2230705  90.7721181
  97.1171116 100.2905264  90.1739392  98.8780012 101.3534997  90.8919988
  98.5228798 102.2637722  90.4118480  99.9510039 101.3202488  90.7251647
  98.6080012 101.4774997  92.4039988  98.7270720 100.5152527  92.8910798
  97.5769709 101.7835831  92.5601443  99.5330012 102.5064997  93.0819988
  99.4554263 103.4677826  92.5901063 100.5635901 102.1749573  93.0368876
  98.9360012 102.9994997  94.4439988  97.8860012 102.5984997  94.9739988
  99.6810012 103.9874997  94.8899988  99.4330012 104.3764997  96.2269988
  98.3570919 104.3074168  96.2827558  99.7293194 105.4041148  96.3799517
 100.0750012 103.4634997  97.2639988  99.5627717 102.5208470  97.1643950
  99.9080012 103.9954997  98.6789988  98.8501402 104.1733357  98.8172212
 100.4227531 104.9481877  98.6780856 100.4090012 103.1654997  99.7089988
 101.0540012 103.9144997 100.9629988  99.9690012 104.9174997 101.4539988
 100.3850012 106.1124997 102.1329988 100.9218845 106.8131859 101.5069125
 101.0402322 105.8805267 102.9676591  99.1000012 106.7964997 102.7869988
  99.4264742 107.5880071 103.4497055  98.5553710 106.0630662 103.3639133
  98.1030012 107.4194997 101.8719988  97.6520012 106.2804997 100.9599988
  98.5288836 105.8008656 100.5472490  97.0610492 106.7061304 100.1626819
  97.0475069 105.5922753 101.5315326  96.9290012 107.9614997 102.5899988
  97.2793921 108.5800152 103.4020201  96.3288582 107.1444532 102.9486538
  96.3666351 108.5576103 101.8859437  98.6750012 108.5274997 101.0459988
  99.0752953 109.2881494 101.6996489  97.8945612 108.9517201 100.4323209
  99.4600004 108.1379359 100.4139772 101.2470012 102.8814997 102.0309988
 102.3090012 104.5944997 100.6359988 101.4350012 103.2544997  96.9699988
 101.9400012 102.0454997  97.1059988 101.5150012 101.1194997  97.7589988
 103.2900012 102.1024997  96.3749988 104.0459025 102.2011183  97.1472944
 103.4621854 101.1339318  95.9122506 103.3760012 103.2334997  95.3389988
 102.5353100 103.1652432  94.6573534 103.2880674 104.1983299  95.8282872
 104.7010012 103.1734997  94.5219988 105.5508890 103.1218770  95.1977796
 104.7159993 102.2520506  93.9451352 104.8610012 104.3204997  93.5879988
 104.9020409 105.2276538  94.1880763 105.8242678 104.2417735  93.0898807
 103.7460012 104.4964997  92.5059988 102.9433791 105.0903214  92.9385200
 104.1657829 105.0957375  91.7003448 103.1750012 103.2394997  91.9209988
 102.8621610 102.5790290  92.7282227 102.2818328 103.4632252  91.3443574
 104.1770012 102.4944997  91.0109988 104.5079574 103.1605009  90.2226522
 105.0621124 102.2478990  91.5959024 103.6050012 101.2204997  90.4419988
 103.7435612 100.2874919  90.9672145 102.8800012 101.1784997  89.2589988
 102.4639366 100.2422213  88.9156576 102.5900012 102.3414997  88.3609988
 103.0037603 103.1909381  88.9018117 103.2124356 102.2081343  87.4832345
 101.1420012 102.7044997  87.9179988 100.7943474 101.9491817  87.2141973
 100.4947617 102.6276156  88.7895657 100.9820012 104.1144997  87.2859988
 101.5149198 104.1044838  86.3352073  99.9316166 104.2508948  87.0439397
 101.4780012 105.3184997  88.1389988 101.5334971 105.0050317  89.1790964
 102.4948520 105.5695504  87.8422279 100.6110012 106.5394997  88.0169988
  99.6029497 106.1916448  87.7992393 100.5597133 107.0019273  88.9989128
 100.9910012 107.6004997  86.9489988 100.5160729 108.5575173  87.1574293
 102.0630176 107.7892185  86.9491602 100.5760012 107.1454997  85.5389988
 100.7292892 106.0703996  85.4882286  99.4992111 107.2933203  85.4944441
 101.2260012 107.8214997  84.2939988 100.7710963 107.4589589  83.3771047
 102.2897619 107.6184217  84.2314420 101.0971242 108.8997723  84.3233205
  17.4650012 100.6264997  80.4069988  17.5116140 100.8114180  79.3383260
  18.4142880 100.1943670  80.7101587  17.3672914 101.5874343  80.9046627
  16.3270012  99.7254997  80.7519988  16.4415937  98.7851845  80.2154553
  15.4044528 100.1722406  80.3912481  16.2190012  99.4314997  82.2929988
  17.0544769  98.8248694  82.6421534  15.3194153  98.8598479  82.5123855
  16.1730012 100.7264997  83.0879988  15.4214012 101.3623483  82.6253498
  17.1248429 101.2379397  82.9533422  15.8760012 100.6174997  84.5309988
  15.0887810  99.8863651  84.6962248  15.4892154 101.5694955  84.8908122
  17.1240012 100.2164997  85.3769988  17.8354313 101.0386229  85.3241079
  17.5989421  99.3710839  84.8837643  16.8560012  99.8514997  86.8999988
  17.7537027  99.4250413  87.3438854  16.0878236  99.0824609  86.9686473
  16.4230012 101.0694997  87.7109988  15.6390061 101.6067294  87.1788456
  17.2554544 101.7640093  87.8077567  15.9250012 100.6954997  89.0859988
  15.7387329  99.6252541  89.1444764  14.9716215 101.1811378  89.2904489
  16.9350012 101.0934997  90.1629988  16.5039718 100.9159808  91.1458516
  17.1307591 102.1638588  90.1043546  18.2470012 100.3374997  90.0259988
  18.7280100 100.6725943  89.1095474  18.0218421  99.2823531  89.8807500
  19.1950012 100.4794997  91.1189988  20.1363245  99.9899446  90.8813746
  18.8157133  99.9906128  92.0144318  19.4420012 102.0024997  91.4429988
  18.4594079 102.4390867  91.6137450  19.8298900 102.4692677  90.5419195
  20.3910012 102.4014997  92.6959988  20.7621266 103.4132829  92.5698813
  21.2581620 101.7464276  92.6981598  19.6970012 102.2884997  94.0409988
  19.2888916 101.2946914  94.1745376  18.8899544 103.0081209  94.1109260
  19.8280012 100.8944997  94.7019988  20.2970012  99.8594997  94.2879988
  19.2660012 101.0284997  95.9329988  18.8150012  99.7864997  96.5959988
  18.9619760  98.9875982  95.8849314  17.7703167  99.8294666  96.8679916
  19.7070012  99.5634997  97.8479988  19.2862702  98.6762693  98.2915093
  19.7350012 100.6794997  98.8619988  18.7655488 100.7155923  99.3401832
  19.8775070 101.5923951  98.2972873  20.7720012 100.5304997  99.8409988
  20.4290012 100.1484997 101.3639988  19.6220012 101.4304997 101.9159988
  20.3900012 102.5754997 102.2209988  21.4563282 102.4116762 102.1355738
  20.2083120 102.8945024 103.2432626  19.9300012 103.7844997 101.3229988
  19.9757493 103.4134810 100.3068781  20.5991388 104.6277798 101.4152508
  18.4960012 104.3564997 101.4999988  18.5500012 105.1784997 102.7629988
  18.9787185 104.5738597 103.5503652  17.5391520 105.4534423 103.0250875
  19.1312054 106.0691697 102.5769193  18.2270012 105.2724997 100.2889988
  18.4748174 104.7317469  99.3885058  18.8176885 106.1657886 100.3864326
  17.1747329 105.5173885 100.2966152  17.4730012 103.3154997 101.5499988
  17.5127157 102.7339700 100.6409729  16.5013881 103.7771478 101.6421895
  17.6511555 102.6753999 102.4020365  19.5700012  98.9264997 101.3709988
  21.7370012  99.9224997 102.0419988  21.0740012  99.3234997  97.4629988
  21.5870012  98.1704997  97.7599988  20.9640012  97.1834997  98.1689988
  23.0980012  98.1934997  97.4719988  23.5994793  97.7580208  98.3301542
  23.3154221  97.5350303  96.6347095  23.5730012  99.6034997  97.1939988
  23.0306759 100.2708763  97.8547202  24.6163197  99.6763703  97.4841873
  23.4030012 100.0734997  95.7679988  23.3961127  99.2050064  95.1142971
  22.4166985 100.5233382  95.6848285  24.4480012 101.0904997  95.2819988
  25.3735929 100.5272116  95.1785945  24.1580019 101.3858003  94.2765636
  24.7410012 102.3554997  96.1059988  25.2697759 102.0174209  96.9948188
  25.4642748 102.9182382  95.5189880  23.5610012 103.3344997  96.5339988
  22.8171986 102.7457253  97.0686047  23.9453893 104.0609906  97.2444737
  22.8860012 104.0804997  95.3919988  22.5217489 103.3332191  94.6966772
  22.0049475 104.5628586  95.8132116  23.7060012 105.1124997  94.6919988
  24.0629595 105.9355233  95.2926375  24.0500012 105.1074997  93.3989988
  24.6902519 105.8793018  92.9964935  23.6120012 104.0634997  92.3729988
  23.0993515 103.2535257  92.8890933  22.9027367 104.4645667  91.6576176
  24.8320012 103.4614997  91.6109988  25.6846996 104.1358274  91.6809444
  25.1375140 102.5352333  92.0938565  24.5100012 103.1724997  90.0859988
  24.5697296 104.1494392  89.6062815  25.3624809 102.6040738  89.7245099
  23.1690012 102.4534997  89.6409988  23.2082052 101.4527875  90.0654788
  22.3550928 102.9678180  90.1490488  22.8640012 102.3754997  88.1679988
  22.5175412 103.3568504  87.8493982  23.7951948 102.2022754  87.6355546
  21.8180012 101.3464997  87.7409988  22.2067502 100.3733860  88.0356291
  20.9442401 101.5240510  88.3653793  21.3540012 101.2654997  86.2509988
  22.2227027 100.9753325  85.6652721  20.6752831 100.4161974  86.2143866
  20.6790012 102.4574997  85.5969988  20.3422553 102.2080392  84.5952799
  21.3485639 103.3068085  85.5127301  19.8114886 102.7766361  86.1677131
  65.7780012 117.9794997  83.4519988  65.3248268 117.5468475  82.5655033
  66.8213177 117.6780021  83.4714894  65.7500413 119.0602626  83.3434549
  65.0420012 117.5304997  84.7349988  65.0658990 116.4428981  84.7768893
  63.9965496 117.8091098  84.6338976  65.6340012 118.1164997  86.0819988
  65.4299676 119.1858909  86.1339759  66.7174659 118.0173352  86.0609850
  65.0940012 117.4204997  87.3879988  65.6262585 116.5010150  87.6214513
  64.0397669 117.1532502  87.3343908  65.3080012 118.4154997  88.5349988
  66.3113025 118.8292434  88.4735535  65.2578031 117.8746867  89.4785911
  64.2960012 119.5674997  88.5579988  63.3279094 119.1519197  88.2843044
  64.5692134 120.2537291  87.7592364  64.1620012 120.3324997  89.8439988
  63.6926400 121.2925877  89.6373565  65.1563783 120.5563176  90.2278602
  63.3670012 119.6064997  90.9089988  63.7838401 118.6129607  91.0689255
  62.3437310 119.4557970  90.5700432  63.3510012 120.3864997  92.2709988
  62.6864096 119.8452935  92.9410398  62.8753398 121.3483082  92.0832553
  64.7380012 120.6224997  92.9879988  65.5575045 120.2044974  92.4074927
  64.7719024 120.1324430  93.9606879  64.9470012 122.1534997  93.1789988
  64.0291486 122.6231316  93.5261783  65.1976579 122.6393017  92.2375660
  66.0680012 122.4404997  94.2189988  67.0211605 122.1263461  93.8006523
  65.8960295 121.8108232  95.0899771  66.1500012 123.9174997  94.6839988
  66.1200234 124.5536454  93.8010084  67.1110077 124.0988553  95.1571272
  65.0330012 124.3704997  95.6309988  64.0999582 124.4385257  95.0813186
  65.2673638 125.3733438  95.9780862  64.8240012 123.4214997  96.9119988
  65.7523740 123.3121070  97.4580739  64.4844797 122.4399557  96.6031857
  63.5050012 122.7384997  96.9929988  62.7110012 122.4804997  96.0509988
  63.3360012 122.4134997  98.2209988  62.2040012 121.5914997  98.6159988
  61.4918003 121.8270772  97.8396386  61.7750679 121.8398756  99.5759559
  62.6000012 120.0584997  98.5509988  61.7949579 119.4766843  98.9684796
  63.8330012 119.9514997  99.4419988  63.8729946 118.9824264  99.9206412
  63.7748915 120.7146669 100.2080171  64.9770012 120.1514997  98.6319988
  66.4360012 120.0534997  99.2429988  66.5560012 121.1384997 100.3929988
  67.4630012 120.9164997 101.4989988  67.7730564 121.8948293 101.8424020
  68.3407661 120.4520572 101.0589772  67.0810012 120.0184997 102.6739988
  67.9998950 119.9156862 103.2373038  66.7645329 119.0395347 102.3440707
  66.0070012 120.4924997 103.6979988  66.0670012 119.4974997 104.8089988
  65.9962643 118.5043281 104.3871687  65.2256714 119.6760329 105.4619843
  66.9869305 119.6383710 105.3563581  66.4620012 121.8244997 104.1819988
  66.6974039 122.4381187 103.3259782  67.3183763 121.6928420 104.8189115
  65.6458523 122.2620504 104.7385483  64.7050012 120.5734997 102.9349988
  64.8194054 121.2586250 102.1081995  63.9285023 120.9294928 103.5952777
  64.4426264 119.5931053 102.5642948  66.6520012 118.7204997  99.8279988
  67.3500012 120.5684997  98.2879988  62.7390012 119.5864997  97.2019988
  62.9640012 118.2514997  96.9139988  62.9400012 117.4344997  97.8099988
  63.2300012 117.9264997  95.4729988  62.4875579 117.2069972  95.1433819
  63.0833898 118.8092105  94.8555575  64.7140012 117.3624997  95.3249988
  65.4497167 118.1585160  95.3587860  64.9779833 116.6757933  96.1229843
  64.8090012 116.6464997  93.9669988  64.2101127 115.7494328  94.1021199
  64.2400241 117.2938521  93.3042281  66.1100012 116.3014997  93.2989988
  66.8418008 115.8926028  93.9932456  66.0241965 115.5814242  92.4888563
  66.6900012 117.6844997  92.7069988  65.8855188 118.1623597  92.1516980
  66.8919977 118.3277027  93.5613221  68.0040012 117.6214997  91.7909988
  68.7190207 116.9403802  92.2498282  67.7588517 117.2001960  90.8200595
  68.6890012 119.0284997  91.5729988  68.0814740 119.7927443  92.0435526
  69.6440159 119.0302604  92.0967256  68.9320012 119.3434997  90.1409988
  68.8664436 118.4899978  89.4831304  69.2080012 120.5494997  89.5679988
  69.3926646 120.4642693  88.5067518  69.3060012 121.9854997  90.1079988
  69.5866402 121.9511016  91.1593215  70.0761002 122.5613262  89.6069475
  67.9970012 122.7024997  89.9959988  67.4070884 122.3569040  90.8440976
  68.2346465 123.7454117  90.1967924  67.1640012 122.6154997  88.7309988
  66.8598983 121.5790943  88.5843960  66.2483304 123.1842739  88.8671862
  67.8550012 123.0864997  87.5369988  68.0205451 124.1590889  87.6097490
  68.8411226 122.6303509  87.4693396  67.0560012 122.7624997  86.2569988
  67.1950453 121.7083318  86.0246482  65.9959011 122.8838355  86.4621583
  67.4450012 123.5704997  85.0219988  66.7627484 123.3779033  84.1959716
  67.3842826 124.6389879  85.2206950  68.8840012 123.2384997  84.5589988
  69.3664963 124.1320473  84.1708157  69.4591777 122.9487111  85.4356444
  68.9780012 122.0714997  83.4759988  70.0140699 121.8285299  83.2601370
  68.5072067 122.3490145  82.5389400  68.4937165 121.1671456  83.8334245
 120.8520012  55.8254997  84.7829988 120.7492082  55.9978737  83.7161577
 121.7279866  55.2015031  84.9348799 121.0455703  56.7845876  85.2555380
 119.5920012  55.1664997  85.3659988 119.4228628  54.2323176  84.8331769
 118.7459241  55.8076848  85.1339446 119.6410012  54.8964997  86.8129988
 118.6708006  54.5435911  87.1624204 119.8345669  55.8240974  87.3480368
 120.7120012  53.8844997  87.1979988 121.7135685  54.3004336  87.1136671
 120.7008319  52.9955482  86.5692328 120.4700012  53.4754997  88.6649988
 120.0609519  52.4688470  88.6950320 119.7059487  54.1283688  89.0837477
 121.7140012  53.5294997  89.5439988 122.5197313  53.0115897  89.0269057
 121.5176376  52.9592296  90.4494326 122.1800012  54.9364997  89.9249988
 121.3350591  55.4810378  90.3425166 122.4643732  55.4660170  89.0167180
 123.3660012  54.9744997  90.9349988 124.2924031  54.7086618  90.4274945
 123.2176583  54.2242378  91.7094570 123.5240012  56.3394997  91.5839988
 122.5399618  56.6246343  91.9499302 123.7643812  57.0381883  90.7836060
 124.5130012  56.4864997  92.6729988 124.5127321  57.5198477  93.0128380
 125.5108114  56.2949779  92.2791421 124.2480012  55.5434997  93.8569988
 125.0856033  55.5747383  94.5505316 124.1744725  54.5115280  93.5182422
 122.9390012  55.9264997  94.6429988 122.8620256  55.2169398  95.4632539
 122.1130600  55.7038575  93.9700042 122.7720012  57.3604997  95.1669988
 122.7398993  58.0442105  94.3203814 123.6346667  57.6509468  95.7600609
 121.4710012  57.5794997  96.0149988 121.3457442  56.7556316  96.7099067
 120.6158108  57.5583363  95.3447052 121.4490012  58.9554997  96.8229988
 121.6058903  59.7910813  96.1527524 122.2275917  58.9631995  97.5765281
 120.0510012  59.3274997  97.1969988 119.0280012  59.1724997  96.4939988
 120.0440012  59.8234997  98.4609988 118.7710012  59.9644997  99.0609988
 118.0628153  60.0938671  98.2565120 118.7060547  60.8116368  99.7283312
 118.4930012  58.6544997  99.8079988 117.6094403  58.8199933 100.4019904
 119.6900012  58.3044997 100.7299988 120.3054797  59.1629119 100.9626265
 120.3136389  57.5421780 100.2799692 119.0590012  57.7974997 101.9239988
 118.8550012  56.2204997 102.2839988 120.2100012  55.5604997 101.6979988
 121.3730012  55.4344997 102.5779988 121.3425500  54.5527208 103.2046787
 121.4369911  56.2867370 103.2483672 122.7160012  55.4784997 101.7149988
 123.5075489  55.1451319 102.3742158 122.9673142  56.4597848 101.3391022
 122.7580012  54.5674997 100.5389988 122.0160012  53.2254997 100.8289988
 122.3932859  52.8157017 101.7558514 122.2282467  52.5453146 100.0175802
 120.9540556  53.4149568 100.8747666 122.0270012  55.1104997  99.2839988
 122.3689584  56.1168461  99.0967927 120.9658533  55.0812912  99.4557026
 122.2893565  54.4695596  98.4547446 124.1420012  54.3364997 100.1459988
 124.6085220  55.2824553  99.9144644 124.1616280  53.7002031  99.2739945
 124.6714853  53.8558285 100.9559598 118.7640012  56.0564997 103.7169988
 117.7590012  55.6644997 101.4679988 118.2410012  57.5974997  98.9279988
 117.0160012  57.4514997  98.5059988 116.1470012  58.3164997  98.6389988
 116.9770012  56.0694997  97.7669988 117.2664755  55.3410502  98.5174113
 115.9345829  55.8624747  97.5380622 117.9240012  55.9654997  96.3989988
 118.8219850  56.5513158  96.5618037 118.2536840  54.9387388  96.2760990
 117.2280012  56.4534997  95.1029988 116.4158482  55.7863778  94.8254920
 116.7753622  57.4269553  95.2749495 118.2130012  56.5744997  93.9609988
 118.8651554  57.4289558  94.1321873 118.8614190  55.7034324  93.9062425
 117.4840012  56.7704997  92.5379988 116.6572761  56.0672343  92.4615498
 117.0397274  57.7637390  92.5161468 118.4040012  56.6144997  91.3089988
 118.8645350  55.6287674  91.3530599 117.8014694  56.6312505  90.4051222
 119.5270012  57.7074997  91.1849988 120.1798523  57.6025245  92.0436870
 120.1256016  57.4522560  90.3115721 119.0550012  59.0964997  91.0429988
 118.6852179  59.5523692  91.9490878 119.0460012  59.8604997  89.9159988
 118.6405824  60.8611536  89.9600141 119.5440012  59.4764997  88.5959988
 120.5198106  59.9470266  88.4881961 119.7191482  58.4066188  88.5770420
 118.6600012  59.8844997  87.3559988 117.7712495  59.2641751  87.2463496
 118.3064723  60.9116023  87.4233527 119.5190012  59.7404997  86.1469988
 120.5492069  59.9398682  86.4420162 119.4901401  58.7024796  85.8273344
 119.1460012  60.6494997  84.9669988 118.1966027  60.2682004  84.5976772
 118.9347868  61.6272059  85.3966078 120.1300012  60.8104997  83.8079988
 121.1152680  61.0824230  84.1820267 120.2638325  59.8746962  83.2722879
 119.6890012  61.8714997  82.8729988 118.6030210  61.9345103  82.8335049
 120.0363111  62.8496094  83.2008878 120.2350012  61.6094997  81.3989988
 120.1644245  62.5354625  80.8337318 121.2984553  61.4018275  81.4951786
 119.5980012  60.5024997  80.6219988 120.1041552  60.3572660  79.6723755
 118.5546623  60.7066313  80.4063248 119.6446024  59.5647757  81.1684813
  51.8950012  30.6604997  82.2569988  52.3404160  31.2497689  81.4615138
  51.4097897  29.8020715  81.8015199  52.7009553  30.2884944  82.8836262
  50.8870012  31.5014997  83.0849988  50.1251184  31.8803522  82.4058755
  51.4154915  32.3710158  83.4663827  50.2030012  30.7454997  84.2439988
  50.9469648  30.4462038  84.9821513  49.7691242  29.8232463  83.8627239
  49.1280012  31.5304997  84.9189988  49.6207189  32.3842604  85.3789682
  48.7580079  30.9178300  85.7396369  47.9210012  32.0464997  84.0739988
  47.2318037  31.2379730  83.8440761  48.2698331  32.4319358  83.1173796
  47.1680012  33.1404997  84.8099988  46.1806566  33.2237782  84.3594077
  47.6736158  34.0830140  84.6110075  47.0130012  32.9484997  86.3909988
  47.9950216  33.0317489  86.8530327  46.6682281  31.9346600  86.5897214
  46.0270012  33.9774997  87.0729988  45.1171947  34.0252016  86.4759830
  46.4763466  34.9675250  87.0217885  45.6700012  33.6714997  88.4919988
  45.0991170  32.7458627  88.4632166  44.9719230  34.4492237  88.7992595
  46.7710012  33.5504997  89.5269988  47.4560618  34.3950249  89.4992840
  47.3801201  32.6585162  89.3828854  46.0880012  33.4764997  90.8899988
  45.3312171  34.2549088  90.9599854  46.8054064  33.6803187  91.6830407
  45.4050012  32.1034997  91.1559988  46.1874071  31.3486527  91.1396932
  44.7668769  31.8984020  90.2984427  44.6070012  31.9744997  92.3729988
  44.0709338  31.0318877  92.2762179  43.8539549  32.7570514  92.3445729
  45.2810012  31.9894997  93.7209988  44.5417329  31.9014433  94.5103488
  45.7752985  32.9475464  93.8585074  46.3530012  30.8434997  93.8839988
  47.0833939  30.8915782  93.0863423  45.8737867  29.8720176  93.8586016
  47.0160012  31.0114997  95.2599988  46.6120012  31.7064997  96.1499988
  48.1650012  30.2714997  95.2839988  48.9380012  30.3594997  96.4829988
  49.4030467  29.3871557  96.5441697  48.2661513  30.4829471  97.3199997
  50.0520012  31.5064997  96.4689988  50.9865328  31.1647969  96.0557387
  50.2230012  31.7994997  98.0209988  50.9168721  32.6235867  98.1170441
  50.6815989  30.9098577  98.4342907  48.9930012  32.0944997  98.7069988
  48.8130012  31.9664997 100.3379988  49.5950012  30.6054997 100.5659988
  48.9610012  29.3274997 100.3809988  49.6816336  28.5209452 100.3442866
  48.4390053  29.3177390  99.4285167  47.8620012  29.0484997 101.4529988
  47.4329884  28.0963992 101.1671634  47.0732320  29.7855667 101.4971858
  48.3620012  28.8654997 102.9249988  48.8770012  30.1484997 103.4409988
  49.5890491  30.5454844 102.7305589  49.3709764  29.9551637 104.3815888
  48.0473422  30.8211532 103.5988604  47.1620012  28.5184997 103.7529988
  46.6331447  27.7118948 103.2688361  46.5413068  29.3907519 103.8544117
  47.5190982  28.1990732 104.7213713  49.3630012  27.7464997 102.9409988
  48.8975964  26.8476655 102.5647308  49.6971512  27.5839743 103.9546946
  50.2073239  28.0089814 102.3199856  49.5340012  33.1144997 100.9179988
  47.4190012  31.7924997 100.7569988  49.6690012  32.6394997  95.7079988
  49.7080012  32.6184997  94.3949988  49.7820012  31.5884997  93.6749988
  49.7550012  33.9894997  93.7469988  48.7589493  34.1646910  93.3536264
  49.8964063  34.7235780  94.5363280  50.8850012  34.1354997  92.6109988
  51.1651674  35.1762413  92.4908961  51.7921856  33.6112611  92.8942359
  50.3620012  33.5894997  91.2529988  50.0333865  32.5617816  91.3851426
  49.4766296  34.1580272  90.9792131  51.3610012  33.6734997  90.1159988
  51.3473367  34.7008804  89.7568218  52.3570782  33.5053825  90.5182041
  51.1480012  32.7454997  88.9239988  50.1003170  32.8282325  88.6421935
  51.7176141  33.1736221  88.1014215  51.5220012  31.2664997  89.0609988
  52.4803435  31.2575048  89.5779126  50.8008043  30.8273658  89.7446321
  51.6120012  30.3894997  87.8179988  50.6230740  30.3727993  87.3749138
  52.2542185  30.9182474  87.1149136  52.1520012  28.9824997  88.0049988
  52.9356019  28.8931871  88.7422553  51.7730012  27.8734997  87.3909988
  52.2509879  26.9301553  87.6128998  50.7050012  27.7824997  86.3829988
  49.8160630  28.2067079  86.8467415  50.9510444  28.4305631  85.5492377
  50.3360012  26.3254997  85.8329988  51.0099752  26.0382323  85.0268093
  50.4723211  25.5863283  86.6200830  48.9120012  26.2694997  85.3419988
  48.4786261  25.2940556  85.5629102  48.2990957  26.9992931  85.8637769
  48.8340012  26.5334997  83.7839988  49.4391804  27.3922592  83.5021564
  49.2197931  25.6894822  83.2148906  47.3420012  26.7804997  83.3909988
  46.7879859  25.8437574  83.4040719  46.8487312  27.4270781  84.1115861
  47.2240012  27.3834997  81.9699988  46.2184682  27.2369562  81.5797277
  47.3799068  28.4601851  82.0057191  48.2240012  26.7804997  80.9779988
  48.1808480  27.3971513  80.0836870  49.1985353  26.9711083  81.4221436
  48.1440012  25.3004997  80.5819988  48.9782663  25.0268135  79.9431196
  47.2318458  25.0744544  80.0401343  48.1744811  24.6595414  81.4585742
  48.9080012 119.3404997  81.3459988  49.7045590 119.9991738  81.0142263
  48.1005230 119.9611720  81.7235367  48.5344852 118.8089361  80.4750579
  49.4030012 118.3644997  82.4159988  49.7966067 118.9336915  83.2564144
  50.2392405 117.8015300  82.0103105  48.2690012 117.3634997  82.9429988
  48.6990899 116.6994118  83.6926253  47.9616590 116.7257695  82.1165534
  47.0000012 118.0534997  83.5339988  46.3685327 117.2870092  83.9778343
  46.4195534 118.4895675  82.7224378  47.2830012 119.1294997  84.5919988
  46.6203876 119.9794556  84.4502557  48.2959558 119.5067172  84.4616348
  47.1130012 118.5854997  86.0769988  47.6627245 117.6536579  86.1965489
  46.0686169 118.3493641  86.2695567  47.5990012 119.5924997  87.1109988
  47.0970293 120.5436327  86.9432481  48.6609182 119.7771862  86.9546236
  47.3640012 119.1354997  88.6039988  48.1354982 118.4116881  88.8634988
  46.4171544 118.6008500  88.6521136  47.3600012 120.2764997  89.6529988
  47.3037513 119.8482999  90.6515086  46.4601010 120.8777387  89.5294338
  48.6230012 121.2074997  89.5559988  48.9594940 121.2052337  88.5215586
  49.4241299 120.7533628  90.1385633  48.4050012 122.6594997  90.0379988
  47.8351652 123.1875020  89.2763942  49.3701263 123.1599661  90.0945222
  47.6760012 122.8124997  91.3799988  46.7190469 122.3059967  91.2804381
  47.4493208 123.8710719  91.4927415  48.4090012 122.3234997  92.6579988
  48.7013876 123.1708804  93.2758240  49.3245260 121.7876409  92.4235980
  47.4920012 121.4094997  93.5049988  46.9922497 120.6712687  92.8864451
  46.7135779 122.0008088  93.9798701  48.3100012 120.6784997  94.6179988
  48.8446909 121.3954632  95.2280078  49.0260363 119.9970641  94.1741428
  47.3360012 119.5424997  95.0949988  46.6000012 118.9574997  94.3699988
  47.4480012 119.4374997  96.4479988  46.6320012 118.4324997  96.9499988
  46.5688214 117.7236716  96.1381903  45.6355510 118.7534239  97.2169944
  47.3500012 117.7984997  98.1579988  46.6188045 117.1117745  98.5512595
  47.8280012 118.7744997  99.2899988  47.8418522 118.2587573 100.2405875
  47.1211659 119.5926885  99.3494619  49.0830012 119.2464997  98.9799988
  49.6750012 120.6404997  99.4679988  49.6170012 120.7854997 101.0499988
  49.7110012 119.5854997 101.8619988  49.4517153 118.7131109 101.2764241
  48.9733460 119.6536212 102.6563672  51.0450012 119.3914997 102.5709988
  51.7014046 119.2422133 101.7230028  51.0861091 118.5144247 103.2006230
  51.6720012 120.5264997 103.3889988  50.7820012 121.1534997 104.4369988
  49.8443188 121.4285499 103.9739294  51.2772703 122.0381358 104.8087883
  50.6419394 120.4502428 105.2441725  52.8850012 119.8124997 103.9579988
  53.4015932 119.3174912 103.1500301  52.5607253 119.1109883 104.7057266
  53.5232189 120.5631344 104.4013076  52.2690012 121.5694997 102.4989988
  53.0167867 121.1127803 101.8678837  52.7271349 122.3348653 103.1072577
  51.4936960 122.0092836 101.8883213  51.0900012 120.7874997  99.0369988
  48.7000012 121.6384997  98.9289988  48.4700012 117.0134997  97.6359988
  49.2660012 116.4074997  98.4269988  49.1580012 116.1544997  99.6339988
  50.3720012 115.8934997  97.5559988  50.8773241 115.0515226  98.0178173
  50.0249696 115.5381209  96.5889507  51.2750012 117.0704997  97.4029988
  50.8204394 117.7885549  96.7293288  51.3877441 117.5809993  98.3541623
  52.6740012 116.6674997  96.8499988  53.2851091 117.5664994  96.8507770
  53.1101867 116.0038139  97.5925137  52.7460012 115.9944997  95.5019988
  53.6359228 115.3699669  95.4499959  51.8994065 115.3310771  95.3427817
  52.8010012 116.9964997  94.3699988  52.1694631 117.8579226  94.5773901
  53.8124016 117.3823888  94.2580177  52.3630012 116.3464997  93.0209988
  53.0230627 115.5019236  92.8293975  51.3641732 115.9349728  93.1363515
  52.3710012 117.3014997  91.7799988  53.3835709 117.6781618  91.6939284
  52.2059391 116.6643998  90.9121253  51.3540012 118.4424997  91.7489988
  50.3048682 118.1984114  91.8217652  51.6680012 119.7184997  91.6519988
  50.8667289 120.4433768  91.6407840  53.0960012 120.3454997  91.5519988
  53.0566824 121.3214248  92.0328783  53.8082417 119.7563087  92.1187866
  53.6040012 120.5314997  90.1549988  54.6045923 120.9615543  90.1789870
  53.7034413 119.5586874  89.6772886  52.6780012 121.4264997  89.2979988
  51.7537418 120.9021079  89.0553777  52.3859075 122.3218094  89.8398527
  53.3950012 121.8284997  87.9869988  53.3700775 122.9099071  87.8726236
  54.4467999 121.5515997  88.0331586  52.7580012 121.1674997  86.7849988
  52.7287565 120.0891372  86.9294602  51.7229579 121.4810154  86.6800308
  53.5470012 121.4564997  85.4519988  53.5896273 122.5237441  85.2421053
  54.5801620 121.1224527  85.5283227  52.8920012 120.7474997  84.2519988
  51.8134711 120.8745281  84.2014843  53.2789056 121.1243521  83.3077529
  53.2280012 119.2434997  84.3609988  52.8652288 118.7035250  83.4915779
  52.7769574 118.7896865  85.2369863  54.3011334 119.0866832  84.4237419
  54.7060012  27.4384997  80.7029988  54.8318808  28.3183658  81.3262314
  53.6475564  27.3388715  80.4803806  55.2234770  27.6210704  79.7651829
  55.2530012  26.1704997  81.4029988  54.7414328  25.9763295  82.3441676
  56.3077857  26.2711208  81.6440777  55.0410012  24.9924997  80.4669988
  55.3815476  25.3096357  79.4814117  53.9638675  24.8609332  80.3854864
  55.6680012  23.6454997  80.8059988  56.6783589  23.6298287  80.4032808
  55.1235138  22.8596443  80.2847782  55.7320012  23.3094997  82.3189988
  56.1250351  24.1657961  82.8610815  56.4479181  22.5019616  82.4629091
  54.4030012  22.9124997  82.9259988  53.9242782  22.1503031  82.3138732
  53.7258421  23.7639264  82.9362549  54.5800012  22.3534997  84.4339988
  55.0369099  21.3663266  84.3953482  53.5956855  22.2159347  84.8794519
  55.4430012  23.2894997  85.3599988  55.0629189  24.3087163  85.3035559
  56.4663146  23.3258960  84.9909609  55.4500012  22.8194997  86.8659988
  56.0826234  21.9357622  86.9143543  54.4394694  22.4821989  87.0932227
  55.8890012  23.8014997  87.9079988  55.2884260  24.7070075  87.8563845
  56.9205276  24.1093412  87.7388365  55.7730012  23.1744997  89.2999988
  56.2833652  22.2156456  89.3605656  54.7425882  22.9877089  89.5974654
  56.4070012  24.1074997  90.2789988  56.1592557  25.1291263  90.0012934
  57.4879903  24.0209063  90.1860793  56.0140012  23.8454997  91.7569988
  56.7349692  24.3154575  92.4237796  56.0269077  22.7852504  91.9935972
  54.6460012  24.4064997  92.0789988  53.9616676  24.2393843  91.2537079
  54.7206092  25.4824359  92.2127404  54.0480012  23.7884997  93.3709988
  54.7302065  23.9142976  94.2021496  53.8610100  22.7303421  93.2316936
  54.5430012  24.4714997  94.6159988  54.1620012  25.5584997  95.0149988
  55.3720012  23.6224997  95.2579988  55.9350012  23.8204997  96.6219988
  55.9857379  22.8205405  97.0256935  55.2402153  24.4035123  97.2089918
  57.2980012  24.4504997  96.6199988  57.9491681  23.9021977  95.9595136
  57.9210012  24.5254997  98.0249988  58.9948444  24.4231614  97.9463317
  57.5340607  23.6918257  98.5975805  57.5760012  25.7824997  98.6649988
  58.1000012  26.0584997 100.0949988  56.7590012  26.0614997 100.9579988
  55.7000012  25.1394997 100.6639988  55.9334622  24.0992939 100.8501626
  55.3857794  25.2036942  99.6262412  54.4780012  25.5864997 101.4839988
  53.7446601  24.8553879 101.1678729  54.0939414  26.5751332 101.2778948
  54.5490012  25.4724997 103.0119988  55.3340012  26.5094997 103.7149988
  56.3091971  26.5769289 103.2526351  55.4404359  26.2052830 104.7456412
  54.7994912  27.4463613 103.6669737  53.1920012  25.6774997 103.5059988
  52.5251259  25.0337520 102.9532055  52.9276685  26.7130074 103.3867430
  53.1849027  25.4079002 104.5522123  54.9770012  24.0234997 103.3959988
  54.2649583  23.3222242 102.9869882  54.9972398  23.9329320 104.4716557
  55.9606975  23.8205144 102.9977858  58.9820012  25.0474997 100.5939988
  58.5280012  27.4944997 100.0909988  57.0970012  25.8064997  96.0259988
  58.3130012  26.3604997  95.6249988  59.3250012  25.7404997  95.5519988
  58.1080012  27.8504997  95.3639988  57.3887035  28.2305882  96.0821190
  59.0289894  28.3983732  95.5470897  57.6170012  28.0454997  93.8769988
  58.3367990  27.6124229  93.1911442  56.6855047  27.5142224  93.7093928
  57.4300012  29.5844997  93.5309988  56.4203259  29.8608227  93.8240099
  58.0978368  30.1304617  94.1928039  57.7020012  30.0344997  92.0739988
  58.0133262  31.0769571  92.0413623  58.4979562  29.4646550  91.6007815
  56.3810012  29.8814997  91.2119988  55.5293852  30.2582547  91.7747660
  56.4624531  30.5111838  90.3281184  56.0950012  28.4254997  90.7589988
  56.9932245  28.0018086  90.3124769  55.8531951  27.7999761  91.6137316
  54.8790012  28.3414997  89.6959988  54.6922524  27.3047083  89.4415019
  53.9704213  28.7091661  90.1710252  55.1390012  29.1484997  88.4859988
  54.4951857  29.9888293  88.2740986  56.1190012  28.9204997  87.6459988
  56.1526371  29.6069487  86.8121725  57.2330012  27.8584997  87.6299988
  58.2063268  28.3345374  87.5239506  57.2820588  27.2660239  88.5367770
  57.0110012  26.8994997  86.3849988  57.7531916  26.1030088  86.4232176
  56.0423156  26.4171386  86.5009084  57.0700012  27.5854997  85.0229988
  56.9359078  26.7753375  84.3062260  56.1656226  28.1857862  84.9754658
  58.2560012  28.4274997  84.6069988  58.0911679  28.8485130  83.6176946
  58.3851293  29.2733801  85.2799751  59.5390012  27.5774997  84.6089988
  60.3709993  28.2351985  84.3644556  59.7192402  27.2360595  85.6246550
  59.5790012  26.3384997  83.5999988  60.5293045  25.8095903  83.6454022
  58.8125088  25.6026948  83.8364614  59.3550012  26.8344997  82.1309988
  59.2438176  25.9697997  81.4815011  58.3933560  27.3427069  82.1143573
  60.4290012  27.7834997  81.5459988  60.1364660  28.1365103  80.5616839
  61.3908618  27.2926962  81.4426691  60.5690932  28.6535166  82.1812827
  78.1170012  22.3614997  79.5439988  78.0532804  22.7427268  78.5295854
  77.1148689  22.3653739  79.9629331  78.4461070  21.3274771  79.4883328
  79.0840012  23.2064997  80.4009988  78.7412507  24.2397407  80.4127500
  80.0605871  23.2143279  79.9245194  79.2000012  22.7194997  81.7849988
  79.1523803  21.6326328  81.7188042  78.2791165  23.0320785  82.2732988
  80.4530012  23.1444997  82.7279988  80.5619595  24.2262146  82.6923498
  81.3726573  22.7350496  82.3129215  80.3200012  22.7094997  84.2059988
  81.3119938  22.6338440  84.6439483  79.8988226  21.7057685  84.2283006
  79.4510012  23.6494997  85.0869988  78.5188057  23.8910430  84.5795685
  79.9616703  24.5958844  85.2517711  79.1350012  22.9964997  86.4519988
  78.4295416  22.1889469  86.2650356  78.5997548  23.7368790  87.0449405
  80.2970012  22.4664997  87.2499988  80.8389572  21.7434135  86.6418202
  79.9130160  21.9158713  88.1067647  81.2850012  23.5634997  87.7459988
  81.3897205  24.3769997  87.0313012  82.2882229  23.1716345  87.9089858
  80.7270012  24.1254997  89.0909988  80.8170254  23.3414766  89.8396659
  79.6597468  24.3050277  88.9638501  81.3990012  25.4124997  89.5939988
  81.5355584  26.1521947  88.8080316  82.3827143  25.2513943  90.0315848
  80.4600012  26.0054997  90.6599988  79.4370127  25.7380528  90.4066496
  80.5155951  27.0905307  90.5945233  80.7790012  25.5784997  92.1229988
  81.6966974  26.0267185  92.5000737  80.8825748  24.5066299  92.2666709
  79.5950012  26.0974997  92.9979988  78.6636160  26.0586112  92.4427021
  79.7651929  27.1398825  93.2540552  79.4460012  25.3144997  94.2639988
  80.3752750  25.3116565  94.8194113  79.1692684  24.2902593  94.0439541
  78.0730012  25.6154997  94.9169988  77.4180012  26.5414997  94.5169988
  77.8750012  24.7884997  95.8659988  76.5200012  24.9484997  96.3609988
  75.8665048  24.6983965  95.5388961  76.3930347  25.9925404  96.6080825
  76.2190012  24.0644997  97.5609988  75.2804375  24.4251191  97.9482273
  77.3070012  24.1074997  98.6809988  76.8265202  23.8777866  99.6223653
  77.6657663  25.1286450  98.7146841  78.3880012  23.2084997  98.4399988
  78.3400012  21.8954997  99.2799988  78.5280012  22.5574997 100.7289988
  79.6840012  23.1914997 101.3069988  79.8434759  24.1638834 100.8595319
  80.5573558  22.5933945 101.0634440  79.6740012  23.2874997 102.8839988
  78.8575775  23.9380967 103.1710960  80.5960908  23.6953110 103.2723513
  79.4460012  21.9804997 103.6339988  80.5280012  20.9634997 103.3759988
  80.6585549  20.8618623 102.3073737  80.2063276  20.0213497 103.7943044
  81.4355262  21.2857896 103.8641017  79.3870012  22.2764997 105.1069988
  78.6938688  23.0882971 105.2659528  80.3731981  22.5277232 105.4543780
  79.0323448  21.3839830 105.6019026  78.1270012  21.2724997 103.3209988
  77.3050826  21.9344257 103.5498783  78.0517005  20.3800455 103.9239128
  78.1008428  21.0047994 102.2745346  77.0390012  21.1824997  99.2229988
  79.5250012  21.1214997  98.8789988  76.1200012  22.7084997  97.1949988
  75.0700012  22.2464997  96.4509988  74.1020012  22.9344997  96.1599988
  75.1730012  20.7814997  96.0269988  74.9557904  20.2137867  96.9259284
  74.3457952  20.5909932  95.3477753  76.5160012  20.3684997  95.3949988
  77.2295515  21.1166596  95.7223573  76.8038718  19.4442082  95.8857623
  76.6220012  20.2054997  93.8749988  76.5225898  19.1469260  93.6487396
  75.7483764  20.6904335  93.4464151  77.8710012  20.7694997  93.2019988
  78.7190496  20.4284991  93.7929628  77.9693532  20.2962735  92.2280450
  77.9860012  22.3144997  93.0249988  77.9539212  22.7889978  94.0036322
  78.9673421  22.5390355  92.6115565  76.9090012  22.9464997  92.1129988
  75.9368880  22.5350343  92.3801938  76.8497544  24.0159383  92.2949570
  77.1710012  22.7094997  90.5719988  78.0209242  23.2902066  90.2328967
  77.4222547  21.6648852  90.3931184  75.8960012  23.0584997  89.7609988
  75.6510053  24.1036978  89.6465788  75.0740012  22.1684997  89.1749988
  74.2626218  22.6879502  88.6856679  75.0170012  20.7094997  89.0409988
  75.9406653  20.2906192  89.4367320  74.2133633  20.2848378  89.6321921
  74.8640012  20.2354997  87.5139988  74.4169738  19.2420865  87.5152996
  74.1374964  20.8943159  87.0421820  76.1680012  20.2174997  86.6619988
  76.5935125  21.2136048  86.5402543  76.9496003  19.6052803  87.1033537
  75.8010012  19.6634997  85.3039988  76.7298696  19.4792953  84.7688191
  75.3385956  18.6896093  85.4550078  74.8600012  20.5484997  84.4429988
  74.6349995  19.9922261  83.5349657  73.9166509  20.6446544  84.9735357
  75.3700012  21.9204997  84.0359988  75.6534938  22.4118418  84.9650293
  76.2976597  21.7341706  83.4978862  74.5230012  22.8844997  83.2179988
  74.2490887  22.4775083  82.2478210  73.5846129  23.0868677  83.7296506
  75.2960012  24.2484997  83.0169988  74.6686189  24.9761361  82.5110287
  76.1930993  24.1220840  82.4203624  75.5919718  24.6739594  83.9717377
  27.8390012 112.3194997  83.4959988  26.9335536 111.7379394  83.3532353
  28.6676888 111.7477723  83.0883291  27.7447639 113.2276243  82.9068969
  28.0690012 112.6504997  85.0059988  28.1101911 111.7054207  85.5448235
  27.1795843 113.1649376  85.3597010  29.3720012 113.5074997  85.3489988
  30.1725551 113.2544489  84.6540112  29.7311960 113.2269426  86.3371474
  29.1430012 115.0284997  85.3269988  28.4786373 115.2778645  84.5025670
  30.0808083 115.5436168  85.1248157  28.5200012 115.5844997  86.6609988
  29.1938067 115.5177984  87.5113575  27.6123753 115.0562046  86.9482003
  28.1880012 117.0554997  86.4059988  27.5091065 117.1536967  85.5608501
  29.0853878 117.6106983  86.1413694  27.5450012 117.6934997  87.6519988
  27.8735370 118.7264503  87.7512312  27.8847734 117.1786090  88.5495913
  25.9950012 117.6524997  87.5939988  25.6473546 116.6309374  87.4456633
  25.6304128 118.2242306  86.7425982  25.3680012 118.2244997  88.9039988
  25.4360376 117.4492953  89.6642423  24.3052294 118.3759279  88.7191672
  25.9820012 119.5334997  89.4509988  26.1545296 120.2386327  88.6408628
  26.9555892 119.3418393  89.9013560  25.0580012 120.1554997  90.4979988
  24.0214841 120.1455858  90.1677335  25.3023146 121.1978388  90.6954019
  25.1580012 119.3454997  91.8219988  26.2172331 119.2456924  92.0462424
  24.7995296 118.3430936  91.5953929  24.4170012 119.8604997  93.0319988
  23.3607289 119.8583582  92.7683013  24.6939222 120.9018723  93.1703160
  24.5780012 119.0954997  94.4099988  24.2419716 119.7426020  95.2135457
  25.6383908 118.9196184  94.5704094  23.8710012 117.8074997  94.4979988
  24.1665227 117.1566671  93.6849028  22.7995118 117.9609653  94.4487246
  23.9270012 117.1794997  95.9159988  24.5670012 117.5874997  96.8679988
  23.0130012 116.2134997  95.8779988  22.6530012 115.5294997  97.0899988
  21.6413055 115.1788646  96.9521980  22.6896652 116.1692577  97.9598019
  23.6410012 114.3044997  97.2459988  23.3757970 113.5898026  96.4845733
  23.4860012 113.6434997  98.6859988  24.2601235 112.9106617  98.8689854
  22.5221321 113.1551885  98.7573683  23.5740012 114.7034997  99.6249988
  23.8600012 114.3874997 101.1209988  25.4990012 114.3824997 101.1249988
  26.2560012 115.4124997 100.4659988  25.9261262 116.4020585 100.7543473
  26.1070587 115.3387827  99.3926028  27.8220012 115.2474997 100.6819988
  28.2387299 116.0708092 100.1156530  28.1773124 114.3193630 100.2580963
  28.4220012 115.3364997 102.0139988  28.3260012 113.9824997 102.7729988
  27.3007754 113.6402086 102.7400895  28.6195609 114.1535598 103.7980164
  29.0018466 113.2756001 102.3155679  29.9210012 115.5894997 101.9599988
  30.1045426 116.4212161 101.2972210  30.4154479 114.6978033 101.6182824
  30.2433974 115.8353906 102.9614454  27.8660012 116.4504997 102.9579988
  27.9941529 117.4132149 102.4859411  28.4098791 116.4293114 103.8904138
  26.8172545 116.2724400 103.1473666  23.4490012 115.5214997 102.0059988
  23.3010012 113.0714997 101.4509988  24.9960012 114.7074997  97.0309988
  25.8730012 113.7454997  96.7949988  25.6450012 112.5674997  96.8159988
  27.3130012 114.2964997  96.6249988  27.3798780 115.3121354  97.0012493
  28.0470702 113.7228196  97.1853030  27.5930012 114.2224997  95.0939988
  28.6400035 114.4780435  94.9733982  27.5057124 113.1763959  94.8181717
  26.7360012 115.1014997  94.1229988  25.6734051 114.9607197  94.3038981
  26.9372346 116.1546590  94.3030694  27.0660012 114.7844997  92.6629988
  28.0509998 115.1737875  92.4121229  27.1082163 113.7128159  92.4843542
  26.0510012 115.4014997  91.7119988  25.8792021 116.4419750  91.9799486
  26.4689533 115.4125383  90.7072226  24.7400012 114.6734997  91.6779988
  24.9065858 113.6657591  91.3006270  24.3499430 114.5628375  92.6859306
  23.6560012 115.3844997  90.7959988  23.6945740 116.4507972  90.9860033
  23.9254620 115.2495167  89.7493296  22.2570012 114.8414997  91.0099988
  22.1457823 114.2742170  91.9217963  21.1590012 114.9824997  90.2349988
  20.2082261 114.5532280  90.5167123  21.1310012 115.7274997  88.9439988
  20.1465938 116.1915080  88.9146842  21.8466086 116.5384086  89.0215466
  21.3570012 114.9524997  87.5729988  22.3591243 114.5259529  87.5956259
  20.6687278 114.1094818  87.5652708  21.1720012 115.7774997  86.2619988
  21.2122628 115.1195935  85.3938712  20.1941498 116.2505745  86.2393975
  22.2620012 116.8504997  86.1339988  21.9188231 117.7554128  86.6304924
  23.1495528 116.5251599  86.6738979  22.6360012 117.1584997  84.6979988
  21.8450285 116.7428346  84.0765692  22.5724232 118.2365008  84.5775974
  24.0290012 116.6284997  84.1369988  24.1207610 116.9457989  83.0997985
  24.8254575 117.1350422  84.6791297  24.2740012 115.1384997  84.2069988
  25.2948100 115.0177622  84.5609576  23.6365585 114.8014974  85.0214982
  24.0410012 114.2184997  82.9779988  24.1843714 113.1756669  83.2444831
  24.7255209 114.4438505  82.1672025  23.0298690 114.3262200  82.5957041
 118.5950012  89.9234997  80.4279988 118.4721698  90.7002200  79.6796359
 119.5841912  89.4935110  80.2999252 118.5668909  90.3984368  81.4048593
 117.4530012  88.8024997  80.2979988 117.4913938  88.3682876  79.3004072
 116.4809553  89.2802581  80.3856781 117.5930012  87.6374997  81.3839988
 118.5318639  87.1307025  81.1612379 116.8037027  86.9262315  81.1488892
 117.5340012  87.9434997  82.8369988 118.3808512  88.5925606  83.0486939
 117.7271270  87.0129629  83.3685152 116.2930012  88.5804997  83.3859988
 115.4584898  88.5572450  82.6898501 116.4469571  89.6270829  83.6435372
 115.9090012  87.8014997  84.6469988 115.9228076  86.7318385  84.4458733
 114.8898390  88.0424387  84.9416747 116.8680012  88.1134997  85.8229988
 116.7647457  89.1458249  86.1522598 117.9086584  87.9916363  85.5256576
 116.5700012  87.1934997  86.9739988 117.2482416  87.5198280  87.7613683
 116.9328097  86.2219102  86.6437444 115.1520012  87.0344997  87.5579988
 115.2240393  86.3650326  88.4124959 114.5486528  86.5144386  86.8149750
 114.4290012  88.3324997  87.9839988 113.4277640  88.0575750  88.3084053
 114.3030107  88.9504242  87.0953342 115.0970012  89.1194997  89.0279988
 114.4433430  89.9512338  89.2819482 115.9955254  89.5609515  88.6003278
 115.4740012  88.3574997  90.3609988 116.2915390  88.9024367  90.8267180
 115.8795802  87.3897499  90.0717997 114.4050012  88.1444997  91.3199988
 113.6326635  87.5323670  90.8573539 113.9319844  89.0881556  91.5769864
 114.8680012  87.4244997  92.6429988 115.4885561  86.5689464  92.3974683
 113.9892973  87.0394669  93.1536076 115.6650012  88.3814997  93.6509988
 115.0770020  89.2601122  93.8841038 116.6026107  88.6976634  93.2094131
 115.8570012  87.5534997  94.9509988 115.7800012  86.3594997  95.0319988
 116.0050012  88.3904997  95.9289988 116.2740012  87.7584997  97.2559988
 116.1018884  86.7194787  97.0187758 115.5986816  88.0572755  98.0445851
 117.7880012  87.9814997  97.6879988 118.3635300  87.6306274  96.8474339
 118.2020012  87.1944997  98.9849988 119.2289015  87.4476889  99.2112108
 118.1526871  86.1443672  98.7254318 117.3660012  87.4684997 100.0989988
 118.0880012  88.0834997 101.4249988 118.3300012  89.5044997 100.8959988
 119.1270012  90.3534997 101.7589988 120.1555762  90.0170462 101.7636250
 118.7606284  90.2381355 102.7750003 119.0400012  91.8694997 101.4659988
 119.3654128  91.9889651 100.4402872 119.7496116  92.3619908 102.1150615
 117.7310012  92.6704997 101.5859988 116.6090012  91.6674997 101.3249988
 116.8215146  91.1439511 100.4030069 115.6857444  92.2187155 101.2257108
 116.5397160  90.9926914 102.1649692 117.4970012  93.2924997 102.9069988
 118.3854508  93.8343888 103.1928790 117.2589684  92.5234516 103.6199332
 116.6653801  93.9739328 102.8004515 117.7050012  93.7924997 100.5589988
 118.5579089  94.4363712 100.7141110 116.7953590  94.3616559 100.6784237
 117.7400399  93.3718927  99.5643646 117.0730012  88.1774997 102.4679988
 119.3660012  87.5054997 101.6909988 118.0080012  89.3944997  97.7609988
 119.1750012  89.8004997  97.3549988 120.0990012  89.1764997  96.8659988
 119.2060012  91.3504997  97.4199988 118.3315419  91.6034123  98.0106841
 120.0648200  91.6027690  98.0370056 119.2380012  92.0814997  96.1429988
 119.7970857  93.0024381  96.2669255 119.7715769  91.5049685  95.3940383
 117.8350012  92.4124997  95.6399988 117.1310112  91.6746280  96.0162932
 117.5325572  93.3654659  96.0671382 117.7330012  92.5054997  94.1289988
 116.7159618  92.7933297  93.8692090 118.3774285  93.2991195  93.7587517
 118.0740012  91.1954997  93.3809988 119.1282612  90.9787592  93.5405615
 117.5228558  90.3919883  93.8657556 117.7670012  91.1614997  91.8659988
 117.8286733  90.1293579  91.5245594 116.7428269  91.4806047  91.6940774
 118.7160012  92.0464997  91.0039988 118.2571824  92.1954848  90.0334995
 118.7722099  93.0290033  91.4707676 120.0840012  91.5094997  90.8689988
 120.8553705  91.8951352  91.5184821 120.4400012  90.5574997  89.9979988
 121.4707087  90.2368451  89.9486770 119.5000012  89.8214997  89.0059988
 119.6841153  88.7583294  89.1508852 118.4715588  89.9946472  89.3026591
 119.6620012  90.1414997  87.4929988 120.6525993  89.8032712  87.1913005
 118.9514688  89.5133158  86.9591563 119.4570012  91.6734997  87.0419988
 118.5829373  92.0709612  87.5578898 120.3050455  92.2591187  87.3860556
 119.2880012  91.8604997  85.5779988 120.1008484  91.3291259  85.0880332
 118.3709600  91.3551166  85.2801592 119.2440012  93.3364997  85.0839988
 118.7369500  93.9394024  85.8349964 120.2566718  93.7259175  85.0250328
 118.5370012  93.5404997  83.7729988 117.4726810  93.3707703  83.9256343
 118.6381832  94.5865969  83.4896672 118.9960012  92.6894997  82.6239988
 118.8873297  91.6440872  82.9018807 118.2891398  92.8554098  81.8139779
 120.4680012  92.9414997  82.0769988 120.6606222  92.3366419  81.1960259
 121.2230555  92.6911990  82.8145512 120.6089992  93.9826195  81.8007198
 114.3730012  39.7464997  81.4429988 114.5784768  39.9028145  80.3885916
 113.2987128  39.6350487  81.5582080 114.8341270  38.8065724  81.7337077
 114.9120012  40.9234997  82.3039988 114.4531287  41.8566718  81.9817740
 115.9801003  41.0354984  82.1383654 114.6210012  40.7054997  83.8389988
 114.9374925  39.6963307  84.1023239 113.5410974  40.7265953  83.9714142
 115.2700012  41.7354997  84.8479988 114.9882425  42.7493937  84.5725338
 116.3567229  41.6983334  84.7900282 114.8370012  41.4844997  86.2699988
 114.7882188  40.4193126  86.4811142 113.8333741  41.8742947  86.4317320
 115.8300012  42.1634997  87.2919988 116.8753137  41.9198339  87.1109859
 115.6325085  41.9039226  88.3298780 115.6160012  43.7014997  87.0949988
 114.5573361  43.9347138  87.1930267 115.8957520  43.9783093  86.0794467
 116.4240012  44.5604997  88.0999988 116.2320369  45.6086116  87.8740295
 117.4824586  44.3967622  87.9062416 116.1410012  44.3064997  89.5589988
 116.6234810  43.3590965  89.7896096 115.0688810  44.1243892  89.6220154
 116.5250012  45.3104997  90.5719988 116.2532615  46.2954899  90.1988355
 117.6103120  45.3098130  90.6696146 115.8730012  45.0714997  91.9989988
 116.1495335  44.0533393  92.2643672 114.7982382  45.0574891  91.8263247
 116.1880012  46.0014997  93.2179988 116.1816892  47.0353861  92.8814606
 117.2032066  45.7971171  93.5530446 115.2130012  45.8234997  94.4349988
 114.2662788  46.2883227  94.1649833 115.5989518  46.3875839  95.2794661
 114.9230012  44.3864997  94.8839988 114.3691881  43.9323827  94.0688829
 114.2297226  44.4934857  95.7140655 116.0370012  43.4584997  95.3049988
 116.6245947  43.9063427  96.0963340 116.6885798  43.2459008  94.4657634
 115.5700012  42.0364997  95.5769988 114.5570012  41.4614997  95.1139988
 116.4840012  41.4274997  96.4229988 116.0540012  40.2064997  97.0379988
 116.3882520  39.5076122  96.2861380 115.0015123  40.0486945  97.2238932
 116.9200012  40.0234997  98.4019988 116.7489737  38.9985248  98.6867271
 116.5240012  40.9524997  99.5459988 116.7579334  40.4755811 100.4881375
 115.4525842  41.0982000  99.4875001 117.2180012  42.2314997  99.4349988
 116.4650012  43.6324997  99.2309988 116.1730012  44.0874997 100.7579988
 117.2340012  44.2314997 101.6829988 117.1479695  45.1494585 102.2496902
 118.1744099  44.2901055 101.1426344 117.3830012  42.9924997 102.6359988
 118.2629385  43.1319896 103.2512238 117.5442658  42.1442426 101.9865138
 116.2720012  42.5824997 103.5899988 115.1420012  41.9954997 102.8399988
 114.8674837  42.6729602 102.0431165 114.3127180  41.8814241 103.5221837
 115.4367418  41.0277638 102.4627293 116.8440012  41.5864997 104.6569988
 117.7417553  42.0130658 105.0774661 117.0418629  40.6411195 104.1842651
 116.0935825  41.4704161 105.4255646 115.7890012  43.8024997 104.2289988
 116.6086449  44.2841284 104.7411509 115.0170060  43.5488495 104.9398680
 115.3851297  44.4669785 103.4788050 117.3270012  44.6594997  98.5339988
 115.1100012  43.4224997  98.5899988 118.3350012  40.0404997  97.9379988
 119.2720012  40.3824997  98.7149988 119.3590012  40.3074997  99.9139988
 120.4700012  40.9284997  97.9379988 120.9783453  41.6421448  98.5781940
 121.1831856  40.1273706  97.7606087 120.0220012  41.5534997  96.6409988
 119.8141783  40.7716708  95.9187700 119.0861348  42.0833893  96.7873006
 121.0740012  42.5054997  96.0609988 121.3402190  43.2212678  96.8345994
 121.9674942  41.9149425  95.8739763 120.6910012  43.2524997  94.7529988
 120.0273667  44.0890765  94.9637938 121.5541124  43.6708081  94.2408865
 119.9970012  42.3294997  93.8389988 120.5941772  41.4401164  93.6485282
 119.0686647  41.9807091  94.2872370 119.6430012  43.0754997  92.3959988
 118.9153649  43.8611199  92.5936025 120.5352382  43.5707331  92.0232054
 119.1000012  42.1434997  91.2949988 118.1125510  41.8481336  91.6300826
 118.9503663  42.7855964  90.4280114 119.9190012  40.9344997  90.8689988
 119.5227792  39.9751282  91.1659306 121.0270012  40.9324997  90.1819988
 121.4392371  39.9460195  90.0253834 121.8270012  42.0284997  89.5709988
 121.4422101  42.9625484  89.9768434 122.8579876  41.9568979  89.8990552
 121.7830012  42.1194997  87.9919988 122.3709899  42.9912835  87.7074512
 122.3257686  41.2528915  87.6193692 120.4330012  42.1834997  87.3239988
 119.8223383  41.3568039  87.6870028 119.9243051  43.0937165  87.6293470
 120.5040012  42.1244997  85.7509988 121.2086337  42.9091107  85.4844962
 121.0002029  41.1814722  85.5283598 119.2570012  42.2424997  84.9059988
 118.6490499  41.3448617  85.0020789 118.6301636  43.0630539  85.2442153
 119.6140012  42.4284997  83.3689988 118.7060102  42.6272060  82.8024732
 120.2451209  43.3066964  83.2453366 120.3480012  41.1894997  82.7219988
 121.4203500  41.3423639  82.8148182 120.1152169  40.3346479  83.3531509
 119.9970012  40.8264997  81.2279988 120.4955648  39.9101482  80.9266628
 120.3042497  41.6055503  80.5384921 118.9281356  40.6780206  81.1030136
  34.0640012  50.2284997  81.2199988  33.2427701  50.5154730  80.5706492
  34.8109718  49.7301211  80.6088983  34.5115288  51.1390722  81.6088286
  33.5950012  49.3434997  82.3299988  33.1185775  48.4786338  81.8714897
  32.8096662  49.8835716  82.8519042  34.6750012  48.8564997  83.3429988
  35.6310161  48.7605428  82.8284536  34.4098174  47.8546787  83.6749676
  34.8600012  49.7824997  84.6279988  33.8897535  50.0623449  85.0324196
  35.3595658  50.7151120  84.3703644  35.6670012  49.0564997  85.7339988
  36.0766572  49.8428662  86.3627934  36.5126868  48.6091767  85.2143038
  35.0040012  47.9964997  86.6299988  35.6980888  47.6498966  87.3934944
  34.7281466  47.1191354  86.0488678  33.7760012  48.5584997  87.2929988
  32.9865163  48.6862070  86.5546395  33.9919012  49.5524093  87.6825635
  33.2590012  47.6594997  88.4439988  34.0959325  47.1652596  88.9356529
  32.6294932  46.8663009  88.0449506  32.4660012  48.4594997  89.4799988
  31.5332963  48.7270707  88.9880554  33.0168392  49.3898207  89.6128792
  32.1620012  47.8574997  90.8429988  31.4415706  47.0567141  90.6912707
  31.6530343  48.6178950  91.4347595  33.3790012  47.3304997  91.6329988
  34.2575709  47.9504030  91.4675415  33.6595604  46.3223924  91.3327749
  33.0550012  47.3404997  93.1379988  32.0892928  46.8702441  93.3067772
  32.9545035  48.3705645  93.4749507  34.1560012  46.6364997  94.0019988
  35.1061038  46.8521598  93.5161514  34.0050745  45.5643465  93.9126528
  34.2900012  47.0004997  95.4839988  34.6908020  46.1496112  96.0250094
  33.2930955  47.1817957  95.8769400  35.1500012  48.2214997  95.7649988
  34.7877247  49.0764286  95.2083182  36.1784472  48.0321826  95.4812265
  34.5290012  49.6034997  95.7749988  35.2440012  50.5984997  95.6389988
  33.1640012  49.5534997  95.8629988  32.6270012  50.8994997  95.9809988
  32.0833606  51.1826995  95.0923398  33.4411573  51.5932014  96.1330502
  31.6440012  50.8784997  97.2519988  31.2108223  51.8469539  97.4400052
  32.2820012  50.3624997  98.4889988  31.7168783  50.7034997  99.3458279
  33.2766275  50.7878506  98.5377849  32.3490012  48.9774997  98.4719988
  33.3670012  48.2414997  99.4949988  32.6190012  48.5144997 100.8219988
  31.3170012  47.9864997 101.0879988  30.8793351  47.5441169 100.2025978
  30.6578966  48.7970535 101.3852874  31.2980012  47.0024997 102.2609988
  31.7115061  46.0285331 102.0315390  30.2587392  46.8835942 102.5315038
  32.0280012  47.4794997 103.5599988  31.8550012  49.0314997 103.6759988
  32.1512363  49.4828791 102.7390701  32.5007692  49.3804740 104.4680218
  30.8272653  49.2521376 103.9225649  31.5590012  46.7764997 104.7259988
  31.5814455  45.7174075 104.5197611  30.5641367  47.1104295 104.9607443
  32.2331133  47.0105454 105.5372277  33.4980012  47.2504997 103.3479988
  33.6693662  46.2035284 103.1465856  34.0342488  47.5401473 104.2391736
  33.8387015  47.8445262 102.5122412  33.4670012  46.8234997  99.2189988
  34.6450012  49.0004997  99.5129988  30.5890012  49.9484997  96.8559988
  29.5080012  49.8644997  97.6849988  29.2910012  50.6404997  98.6039988
  28.4970012  48.8554997  97.2199988  28.5352966  48.0446224  97.9401130
  27.5111850  49.3013447  97.3262804  28.7300012  48.3564997  95.7729988
  29.6988320  47.8705423  95.7373159  27.9992838  47.5858692  95.5489143
  28.6760012  49.4894997  94.6629988  27.6929131  49.9441526  94.7550991
  29.3892880  50.2397417  94.9952995  28.9670012  49.1544997  93.1869988
  29.1232174  50.0666516  92.6140403  29.8723631  48.5637409  93.0706982
  27.7860012  48.3844997  92.5609988  27.5659731  47.4827462  93.1287393
  26.8842703  48.9927390  92.5971559  28.0560012  48.0244997  91.1559988
  27.9214998  48.8989196  90.5211758  29.0880849  47.7096610  91.0295165
  27.1350012  46.8964997  90.6679988  26.9733438  46.0919783  91.3759482
  26.1473878  47.2335298  90.3559467  27.9040012  46.3964997  89.4209988
  28.9108929  46.0336049  89.5625275  27.4200012  46.3654997  88.1909988
  28.0264189  46.0059499  87.3721023  25.9900012  46.8114997  87.7729988
  25.5993628  46.1742983  86.9814199  25.2597197  46.7827846  88.5739640
  26.0950012  48.2494997  87.2269988  25.1007706  48.6456527  87.0238402
  26.5287642  48.8948122  87.9884976  26.9480012  48.3284997  85.9529988
  27.2284909  47.3296080  85.6188611  26.3885687  48.7760143  85.1361328
  28.2240012  49.1534997  86.2139988  27.9079910  50.1332982  86.5651075
  28.7561925  48.6903016  87.0430373  29.2070012  49.3114997  84.9879988
  29.8893670  50.1472710  85.1310131  29.8352486  48.4363599  84.8463636
  28.3820012  49.5844997  83.7069988  27.8164260  48.6902522  83.4514031
  27.6452362  50.3568052  83.9204363  29.2110012  50.0224997  82.4559988
  29.9923666  50.7095190  82.7712566  29.7256718  49.1365976  82.0904789
  28.3970012  50.6634997  81.2649988  29.0438931  50.8520919  80.4135102
  27.9448489  51.6088562  81.5453563  27.6008913  50.0018700  80.9354592
  34.3510012 118.8594997  85.1809988  34.9443535 118.9087916  84.2732916
  33.6285323 119.6699326  85.1489490  33.7974559 117.9246758  85.1635629
  35.2350012 118.9534997  86.4299988  35.7864711 119.8851494  86.3154880
  35.9605459 118.1530463  86.3130663  34.6180012 118.9034997  87.8269988
  35.4109227 119.0543738  88.5594204  34.2458792 117.8939361  87.9897186
  33.4830012 119.8884997  88.1029988  32.9115278 119.5645268  88.9700107
  32.7805226 119.9142533  87.2713939  34.0070012 121.2914997  88.3629988
  34.3168270 121.7789245  87.4421307  34.8868920 121.2609071  89.0034839
  32.9150012 122.1474997  89.0389988  31.9935752 121.9145852  88.5083934
  33.1573291 123.1783534  88.7896100  32.6700012 122.0354997  90.5609988
  32.7065015 123.0260147  91.0107961  33.4752956 121.4632618  91.0195558
  31.3120012 121.3694997  90.8999988  31.1508492 120.4772778  90.2963256
  30.4807635 122.0376973  90.6826512  31.2790012 120.9914997  92.3719988
  31.5310674 121.8847013  92.9396206  32.0903425 120.2848131  92.5419883
  29.9760012 120.4014997  92.9089988  29.8733043 119.3863092  92.5319831
  29.1383281 120.9654002  92.4994269  29.8850012 120.4044997  94.4389988
  28.8862574 120.0579866  94.6958657  29.9390561 121.4409840  94.7674896
  30.9140012 119.5614997  95.2349988  31.0919515 119.9920185  96.2174479
  31.8760482 119.5578710  94.7259582  30.4180012 118.0854997  95.3759988
  30.4213028 117.6582149  94.3746652  29.3792612 118.1087638  95.6934135
  31.2030012 117.1384997  96.2979988  32.2340811 117.2502458  95.9790444
  30.8795063 116.1520502  95.9765013  31.1400012 117.1974997  97.8169988
  30.1149977 117.1213303  98.1570093  31.5570331 118.1308888  98.1760783
  31.7540012 115.9954997  98.4679988  32.3040012 115.1004997  97.9139988
  31.7530012 116.1774997  99.8169988  32.5780012 115.3344997 100.6289988
  32.4892685 114.3533042 100.1875873  32.1668666 115.3109290 101.6278004
  34.0580012 115.7804997 100.6499988  34.6140343 115.0722093 101.2416454
  34.1820012 117.1784997 101.2599988  33.7100917 117.2005366 102.2329411
  33.6694332 117.8765195 100.6099008  35.5610012 117.5204997 101.3669988
  36.1450012 118.4324997 102.5029988  35.3710012 119.7844997 102.3289988
  35.8590012 120.8744997 101.5969988  36.3674841 120.5636316 100.6936742
  36.5901357 121.4144161 102.1917503  34.7320012 121.9224997 101.2779988
  35.1590300 122.7823511 100.7774481  34.3481467 122.2349453 102.2384208
  33.4860012 121.5134997 100.4309988  32.5420012 120.6964997 101.3179988
  33.1086357 119.9038748 101.7870459  31.7760426 120.2714071 100.6865689
  32.0888512 121.3530145 102.0455703  32.8860012 122.8014997  99.9719988
  33.6661786 123.4073378  99.5372606  32.4272165 123.2937041 100.8108202
  32.1421129 122.5634514  99.2255000  33.8420012 120.5744997  99.2599988
  34.5618157 121.0620138  98.6194685  32.9472977 120.3543959  98.6972287
  34.2597636 119.6566511  99.6478951  35.6440012 117.8264997 103.7639988
  37.5930012 118.6414997 102.3629988  34.6150012 115.7904997  99.2719988
  35.8990012 115.5604997  99.0089988  36.7320012 114.9974997  99.6899988
  36.2300012 116.1474997  97.5859988  37.2665631 115.8978641  97.3840719
  35.6443188 115.6058598  96.8474126  35.9670012 117.7044997  97.4909988
  34.9374345 117.8442379  97.8016862  36.5781080 118.1600654  98.2636832
  36.1960012 118.4424997  96.1269988  36.3090044 119.5093523  96.3022408
  37.1380240 118.1034856  95.7030560  35.0970012 118.1964997  95.1179988
  34.4189747 117.4760833  95.5718559  34.5313468 119.1184786  95.0075809
  35.4830012 117.6854997  93.7309988  34.6335059 117.6476931  93.0521545
  36.2189444 118.3338515  93.2593968  36.0780012 116.2974997  93.8699988
  37.1327933 116.3928960  94.1230089  35.6095565 115.7761417  94.7000972
  35.9310012 115.4124997  92.5699988  36.4206522 115.8566934  91.7112125
  36.3802374 114.4294551  92.7047433  34.4280012 115.2344997  92.3189988
  33.8101399 114.9981126  93.1721826  33.7980012 115.3624997  91.1079988
  32.7393711 115.1958375  90.9696655  34.5600012 115.7724997  89.7939988
  33.8087837 115.9568062  89.0278888  35.0829104 116.7113184  89.9384505
  35.5650012 114.6934997  89.2479988  36.3601970 114.5686382  89.9820138
  35.0362641 113.7430349  89.2091033  36.1790012 114.9854997  87.8729988
  36.5948802 115.9918424  87.9222526  37.0237639 114.3135629  87.7489792
  35.2200012 114.8744997  86.6009988  34.7093657 113.9140860  86.5995927
  34.4405323 115.6334495  86.6398384  35.9940012 115.0354997  85.3539988
  36.4658907 116.0157108  85.3871111  36.8066331 114.3143365  85.3673380
  35.2350012 114.9314997  84.0609988  34.9701076 113.9087821  83.7987715
  34.3023294 115.4926761  84.0671907  36.1370012 115.4994997  82.9579988
  36.5088284 116.4863172  83.2222914  37.0173333 114.8680922  82.8597499
  35.4470012 115.5664997  81.6399988  36.1327126 115.8880147  80.8618620
  34.6176323 116.2656096  81.6515578  35.0550948 114.5943529  81.3545497
 110.7300012 104.4504997  84.0739988 111.0521304 104.1174461  83.0922976
 111.5755184 104.9354862  84.5532468 109.9577955 105.2014507  83.9312294
 110.1970012 103.2474997  84.9399988 111.0013133 102.5164758  85.0023608
 109.4013338 102.7777562  84.3680998 109.7240012 103.5654997  86.3009988
 109.1836409 104.5084706  86.2188667 110.6216795 103.7820016  86.8767344
 108.8750012 102.5644997  87.0849988 109.2219971 101.5512793  86.8946611
 107.8369521 102.5941585  86.7574617 108.9380012 102.8244997  88.5669988
 108.4158601 103.7380258  88.8397840 109.9677514 102.9509525  88.8971337
 108.2840012 101.6054997  89.3469988 108.8965200 100.7306289  89.1366684
 107.3165296 101.4172948  88.8863963 108.1090012 101.7404997  90.8169988
 107.6612718 100.8328125  91.2175140 107.4070359 102.5455604  91.0299590
 109.4180012 102.0134997  91.5369988 110.0166349 102.7191464  90.9624108
 110.0045841 101.0988916  91.6010032 109.1960012 102.5694997  92.9449988
 108.4302344 101.9700162  93.4326071 108.7840315 103.5739314  92.8556969
 110.4640012 102.6134997  93.8419988 111.2910820 103.0340398  93.2742116
 110.7595123 101.5982150  94.1052464 110.2390012 103.4394997  95.1519988
 109.3801601 103.0782574  95.7136367 110.0497873 104.4933312  94.9551101
 111.4880012 103.3054997  96.0379988 111.9851529 102.3626599  95.8232609
 111.1794895 103.2558707  97.0806049 112.5020012 104.5064997  95.8679988
 112.8375683 104.6020809  94.8367321 113.3991440 104.3981309  96.4710451
 111.7810012 105.8294997  96.2629988 110.8947952 105.9799202  95.6552507
 112.4399446 106.6724103  96.0722444 111.3740012 105.8454997  97.7859988
 112.2388695 105.6637343  98.4113028 110.6329289 105.0809041  97.9866836
 110.0980012 106.6264997  98.0399988 109.3970012 107.0894997  97.1369988
 109.9080012 106.6144997  99.3089988 108.8260012 107.4354997  99.8069988
 108.3776570 107.8338274  98.9093437 109.2513478 108.2470472 100.3794171
 107.7850012 106.6754997 100.6259988 107.1285981 107.4587591 100.9673690
 108.3860012 105.9014997 101.8639988 109.1371702 106.5438109 102.3032964
 108.8756466 105.0314087 101.4447447 107.4050012 105.4984997 102.8709988
 106.8520012 104.1334997 102.8549988 107.6230012 103.4074997 101.7089988
 107.2580012 102.1294997 101.2229988 106.6003377 102.2378268 100.3703951
 106.6793827 101.6341159 101.9973324 108.4830012 101.1134997 100.8899988
 108.1056055 100.3329688 100.2414673 108.8121087 100.6660701 101.8167522
 109.7180012 101.6344997 100.2239988 109.3130012 102.3674997  98.8999988
 108.6790817 101.7097949  98.3212893 110.2160449 102.5809899  98.3477000
 108.8137815 103.2917101  99.1496619 110.5100012 102.5834997 101.0529988
 110.6660521 102.1415564 102.0251347 109.9777331 103.5150697 101.1253724
 111.4581823 102.7322052 100.5568776 110.6110012 100.4744997  99.8909988
 110.8508976  99.9387708 100.7973797 111.5186464 100.8441933  99.4380564
 110.1045267  99.8162140  99.1999282 107.1340012 103.4364997 104.1389988
 105.4530012 104.1144997 102.4249988 107.0460012 105.7004997  99.8639988
 106.4200012 106.2004997  98.7529988 106.4540012 107.3394997  98.3489988
 105.8220012 105.0194997  98.0479988 106.6694155 104.3993002  97.7745130
 105.2688922 104.4549586  98.7945045 104.9270012 105.3534997  96.8229988
 104.1344465 104.6154711  96.7661479 104.4372597 106.3074871  96.9906122
 105.6930012 105.3834997  95.4689988 106.6916136 104.9718664  95.5914130
 105.1844562 104.7384674  94.7566923 105.7740012 106.7704997  94.8879988
 104.7675046 107.1353117  94.6915736 106.2149692 107.4637793  95.6001171
 106.5840012 106.8304997  93.5609988 106.2317104 106.0375086  92.9045253
 106.3373990 107.7668728  93.0642356 108.1170012 106.7354997  93.7009988
 108.4385504 107.4152716  94.4885375 108.3967590 105.7369090  94.0248355
 108.8660012 107.0584997  92.4239988 108.4804704 108.0298024  92.1367411
 109.8892062 107.2217107  92.7597957 108.8890012 106.1264997  91.2649988
 109.5058279 105.2472744  91.3747339 108.2230012 106.2594997  90.1239988
 108.2709364 105.4949368  89.3619254 107.3640012 107.4174997  89.7669988
 107.0829351 107.9471235  90.6756910 107.8805820 108.1382586  89.1430342
 106.0540012 106.9504997  89.0469988 105.6111664 106.1709695  89.6658162
 105.3662889 107.7932552  89.0826917 106.1700012 106.4404997  87.5639988
 106.3263618 105.3627584  87.6101730 105.2018138 106.5869748  87.0931885
 107.2470012 107.0634997  86.7049988 107.1925351 108.1457739  86.7991313
 108.2262577 106.7741776  87.0824036 107.1340012 106.6574997  85.2199988
 107.4366066 105.6181049  85.1073997 106.0964855 106.7008285  84.9001413
 108.0100012 107.5094997  84.2839988 107.7018042 108.5517385  84.3442969
 109.0422885 107.4796754  84.6279862 107.9750012 107.0784997  82.8249988
 108.7173677 107.6083309  82.2333183 108.2369415 106.0250898  82.7540911
 106.5820012 107.2844997  82.2029988 106.5497517 106.8916784  81.1912080
 106.3113504 108.3337830  82.1530631 105.8169504 106.7735665  82.7807406
  68.3850012  19.8784997  81.3379988  69.2918713  20.2176977  80.8471218
  67.8776892  20.7520942  81.7370691  67.7414089  19.4428168  80.5786692
  68.6920012  18.8794997  82.4279988  69.3770096  19.3703174  83.1172479
  69.2548648  18.0779334  81.9573716  67.5350012  18.3134997  83.2009988
  67.8293423  17.3710547  83.6626152  66.7322289  18.0712995  82.5074089
  66.9810012  19.2504997  84.2759988  66.4447136  20.0869496  83.8332832
  67.7687135  19.6873599  84.8878553  65.9870012  18.4464997  85.1999988
  66.4883069  17.6293325  85.7123496  65.1911423  17.9948237  84.6101154
  65.3450012  19.4254997  86.2899988  64.5270879  19.9764793  85.8292859
  66.0871488  20.1670615  86.5778876  64.8280012  18.7074997  87.5519988
  65.5027699  17.9087499  87.8544156  63.8626026  18.2374586  87.3695243
  64.6930012  19.7014997  88.6829988  63.9625107  20.4672814  88.4252915
  65.6356087  20.2219454  88.8420938  64.2760012  19.0284997  89.9629988
  64.8482672  18.1187098  90.1313287  63.2301329  18.7264382  89.9243272
  64.4860012  19.9984997  91.1609988  63.8723820  20.8875371  91.0330028
  65.5194272  20.3427506  91.1918348  64.1390012  19.3014997  92.5079988
  64.9361555  18.5844253  92.6920920  63.2385832  18.7145977  92.3350199
  63.9620012  20.1134997  93.7129988  63.1214562  20.7855974  93.5581188
  64.8399287  20.7463935  93.8285784  63.7610012  19.2964997  95.0249988
  62.9784118  18.5591326  94.8544243  63.3980072  19.9482332  95.8147790
  64.9920012  18.5654997  95.5149988  65.7934818  18.6298652  94.7864173
  64.7632373  17.5102694  95.6384821  65.4830012  19.1154997  96.8509988
  64.6881525  19.0919417  97.5856427  65.8207010  20.1387166  96.7367408
  66.8170012  18.6274997  97.4769988  67.6720012  17.9254997  96.8979988
  66.8970012  19.1424997  98.6459988  68.0150012  18.7934997  99.4799988
  68.6814965  18.2391641  98.8366030  67.7143884  18.1631367 100.3042964
  68.7220012  20.1044997  99.9999988  69.6745346  19.8672989 100.4441944
  67.9260012  20.9924997 100.9329988  68.5363535  21.7292658 101.4374258
  67.4050889  20.4044666 101.6782856  67.0370012  21.5994997 100.1019988
  66.0610012  22.6604997 100.6969988  64.6190012  22.2814997 100.3589988
  64.1710012  20.9584997 100.1539988  64.7504005  20.4130944  99.4205013
  63.1432838  20.9505614  99.8025291  64.1430012  20.2154997 101.4979988
  65.0905347  20.3792554 101.9956063  64.0333472  19.1592490 101.2987814
  63.0510012  20.5674997 102.5429988  61.5920012  20.4084997 102.0429988
  61.4879324  20.9400633 101.1070801  60.9368823  20.8434829 102.7830723
  61.3707186  19.3571461 101.9361970  63.2140012  19.7894997 103.8139988
  64.2385834  19.8783085 104.1411963  62.9460162  18.7636650 103.6345072
  62.5515213  20.2261960 104.5472885  63.2720012  22.0654997 102.8959988
  64.2733726  22.1967683 103.2782367  62.5559103  22.3621933 103.6475550
  63.1365292  22.6686441 102.0098277  66.1990012  22.6954997 102.1309988
  66.2770012  23.9594997  99.9449988  69.0170012  20.7014997  98.7059988
  69.8070012  21.7734997  98.7229988  70.5910012  22.0954997  99.5409988
  69.4930012  22.7004997  97.5039988  68.9987899  23.5913379  97.8777842
  70.4195080  23.0427970  97.0497690  68.6220012  21.9434997  96.4839988
  67.8648031  21.3815878  97.0196919  68.0855227  22.6564860  95.8660389
  69.4150012  20.9954997  95.6059988  70.4381976  21.3351278  95.4668016
  69.4817374  20.0134307  96.0676823  68.7290012  20.8524997  94.2649988
  69.0039596  19.9102732  93.7945594  67.6455137  20.8423129  94.3552936
  69.1400012  22.0044997  93.3219988  68.7017541  22.9106537  93.7351880
  70.2170746  22.1090004  93.4376418  68.8080012  21.9164997  91.7999988
  69.2426202  20.9927004  91.4213140  67.7322732  21.8199159  91.6825296
  69.3020012  23.1184997  90.9239988  70.3800294  23.2084693  90.9898811
  69.0741267  22.9205858  89.8774572  68.6260012  24.3974997  91.3289988
  68.9835324  24.8397569  92.2466773  67.6250012  25.0634997  90.6609988
  67.3200797  26.0054238  91.0939097  66.8880012  24.6984997  89.4249988
  67.1364195  23.6771930  89.1413756  65.8117189  24.7244643  89.5539301
  67.2740012  25.6004997  88.3039988  67.0915928  26.6239894  88.6294230
  68.3514443  25.5089818  88.1807114  66.5830012  25.3614997  86.9379988
  65.5701980  25.7593814  87.0014566  67.0960026  25.9553155  86.1865227
  66.5190012  23.7934997  86.4469988  67.3751372  23.2349962  86.8188184
  65.6353895  23.2905301  86.8360194  66.4910012  23.7494997  84.8929988
  67.2873645  24.3638884  84.4771599  66.6658100  22.7443007  84.5193118
  65.1530012  24.2844997  84.3579988  64.3363039  23.5956990  84.5664267
  64.8838625  25.2249722  84.8353977  65.2250012  24.5124997  82.8349988
  65.9617197  25.2659897  82.5677656  65.5435790  23.5981873  82.3391620
  63.8710012  24.9154997  82.2889988  63.8989148  24.9906695  81.2061140
  63.5486990  25.8773310  82.6733722  63.1112187  24.1843569  82.5503449
  20.5060012  59.6334997  82.4399988  20.2562448  59.8946153  81.4163439
  20.0314477  60.3606283  83.0925882  20.0632848  58.6639396  82.6511089
  22.0250012  59.6044997  82.6529988  22.3952485  60.5889363  82.3719217
  22.4196584  58.9086111  81.9176085  22.5360012  59.2574997  84.0159988
  21.8820689  58.4709659  84.3923845  22.3396973  60.1327846  84.6320442
  23.9970012  58.8394997  84.2169988  24.6714232  59.6387788  83.9177368
  24.2573393  57.9793548  83.6021160  24.2630012  58.4964997  85.7359988
  23.5254921  57.7644131  86.0549074  24.0677629  59.3984642  86.3136726
  25.6930012  57.9604997  86.0829988  26.4285053  58.6384906  85.6538380
  25.8334766  57.0039911  85.5840648  25.9760012  57.7914997  87.6089988
  25.7433987  58.7192348  88.1285887  27.0389409  57.6132044  87.7658420
  25.1610012  56.6284997  88.2449988  25.5112903  55.6660779  87.8741984
  24.1107673  56.6970945  87.9675323  25.2750012  56.6544997  89.6779988
  25.2910887  57.6926586  90.0028189  26.2415822  56.2350075  89.9542675
  24.1160012  55.8714997  90.4599988  24.0800843  54.8790178  90.0161647
  23.1827521  56.3625577  90.1855227  24.1940012  55.7644997  91.9349988
  25.2465708  55.7075984  92.2040721  23.7547196  54.8132358  92.2303915
  23.5730012  56.8504997  92.7159988  23.3172163  56.4258238  93.6836989
  22.6287386  57.0757083  92.2237395  24.3620012  58.1744997  92.9049988
  24.3976932  58.7087655  91.9570862  25.3935906  57.9725147  93.1794058
  23.7360012  59.1134997  93.9569988  22.6541164  59.0344008  93.9322247
  23.9820658  60.1413129  93.7037318  24.2240012  58.8334997  95.3639988
  25.3050556  58.8742207  95.4052790  23.9004212  57.8512146  95.6872340
  25.5110012  59.7094997  95.6069988  26.4070012  59.9004997  94.7769988
  25.4140012  60.3774997  96.8059988  26.5180012  61.0664997  97.4349988
  26.5613328  62.0739774  97.0495470  27.4429230  60.5591312  97.2019993
  26.2720012  61.0864997  98.9289988  27.1102878  61.5667011  99.4060481
  26.0620012  59.7014997  99.5239988  26.0261381  59.7849030 100.6017551
  26.9227413  59.1039833  99.2507121  24.8900012  59.1164997  99.0399988
  24.3210012  57.9254997  99.9239988  23.7100012  58.7284997 101.1749988
  22.8840012  59.8014997 100.8099988  22.1270427  59.5954146 100.0645246
  23.4428126  60.6613642 100.4520047  22.2290012  60.2694997 102.1689988
  22.0208628  59.3425381 102.6882961  21.3175328  60.8466516 102.1098537
  23.1790012  61.0684997 103.0969988  23.5860012  62.3974997 102.4809988
  23.9536667  62.2160444 101.4803839  24.3742743  62.8183038 103.0873397
  22.7338298  63.0604596 102.4832608  22.4060012  61.4514997 104.4499988
  21.9438421  60.5597530 104.8448542  21.6754277  62.2104650 104.2341191
  23.1411766  61.8275869 105.1466855  24.3380012  60.3014997 103.5379988
  24.0020036  59.4179478 104.0600368  24.9339733  60.9095033 104.2019255
  24.9297971  60.0168094 102.6799987  23.2650012  57.1704997  99.2359988
  25.5320012  57.1184997 100.2619988  25.0840012  61.8504997  99.1679988
  25.0800012  63.2314997  99.0169988  26.0640012  63.9174997  98.9869988
  23.6480012  63.7304997  98.7909988  23.1035436  63.6965988  99.7290658
  23.6381993  64.7718450  98.4788918  22.9950012  62.8044997  97.6969988
  23.7714655  62.7466873  96.9421333  22.9732099  61.8328344  98.1801393
  21.6490012  63.0764997  97.0129988  21.3415695  62.2090737  96.4344558
  20.8867862  63.2181252  97.7752556  21.6820012  64.3214997  96.1169988
  20.6757379  64.4707420  95.7298721  21.9044601  65.1922722  96.7289377
  22.6850012  64.2864997  94.8949988  23.0052180  65.3097960  94.7099941
  23.5684775  63.7494005  95.2346679  22.2030012  63.6564997  93.5769988
  21.9976167  62.6003083  93.7442648  21.2631612  64.1066749  93.2698162
  23.2430012  63.8054997  92.3989988  23.0521387  64.7072440  91.8289034
  24.2504438  63.9042874  92.8010514  23.1940012  62.5844997  91.5169988
  22.2249824  62.2922047  91.1413390  24.2500012  61.8324997  91.1439988
  24.0975381  60.9676675  90.5143716  25.6710012  62.0704997  91.5139988
  25.8619279  63.1416783  91.4773351  25.8761527  61.7602988  92.5325120
  26.6310012  61.3904997  90.5829988  27.5952479  61.8853390  90.6928493
  26.7658218  60.3772851  90.9567349  26.2430012  61.3324997  89.0659988
  26.9105262  60.6039851  88.6057989  25.2450487  60.9061929  89.0125448
  26.2850012  62.6274997  88.2649988  25.4687023  63.2789781  88.5689347
  27.2035229  63.1741036  88.4714618  26.1930012  62.3374997  86.7389988
  26.9367428  61.5848403  86.4841610  25.2285867  61.8885701  86.5176573
  26.4210012  63.5324997  85.8519988  25.7710554  64.3211787  86.2267507
  27.4397452  63.8640465  86.0445377  26.2240012  63.4184997  84.3269988
  26.9939058  62.7526448  83.9451622  25.2825745  62.8904299  84.1921980
  26.1940012  64.7254997  83.4689988  25.9616924  64.5007998  82.4323640
  27.1476921  65.2422177  83.4837299  25.4391316  65.4156594  83.8350486
  79.7370012 121.7314997  84.6269988  80.0464460 121.0500938  83.8406408
  80.3905757 122.5982722  84.5904510  78.7304768 122.0686389  84.3949258
  79.7890012 121.0504997  86.0119988  80.8118724 120.6974348  86.1315085
  79.1683684 120.1630534  85.9221761  79.3950012 121.8324997  87.2219988
  78.6392576 122.5754336  86.9673816  80.2517763 122.3901301  87.5950345
  78.8780012 120.9594997  88.3269988  77.9759628 120.4773977  87.9566549
  78.5603231 121.6079422  89.1420503  79.8450012 119.8534997  88.8879988
  80.0399764 119.0769964  88.1527435  79.4066052 119.3543569  89.7505708
  81.1640012 120.4894997  89.2939988  80.9443905 121.2883010  90.0000473
  81.5871936 120.9692026  88.4140156  82.2070012 119.5444997  89.9059988
  83.0518063 120.1464109  90.2358127  82.5833447 118.9013588  89.1116654
  81.7140012 118.6674997  91.0829988  80.8704575 118.0640116  90.7503018
  81.3341100 119.3105200  91.8747636  82.8500012 117.7044997  91.6829988
  83.1672162 116.9987934  90.9182150  82.4293644 117.1074733  92.4912075
  84.1020012 118.4914997  92.2169988  84.4985577 119.0793935  91.3921213
  84.8724521 117.7641352  92.4715084  83.8430012 119.3934997  93.4259988
  83.0965017 118.8966997  94.0420097  83.3761955 120.3079728  93.0641157
  85.0720012 119.7634997  94.3379988  84.7857609 120.5661196  95.0133407
  85.8651524 120.1637186  93.7091857  85.6280012 118.5804997  95.1319988
  86.1533233 117.9007029  94.4632948  84.8320941 118.0009246  95.5912358
  86.5990012 119.0224997  96.2049988  87.2514876 119.7702531  95.7662832
  87.2185714 118.1591788  96.4328185  86.0250012 119.5604997  97.5019988
  85.3436765 118.8429786  97.9413178  85.4885978 120.4847195  97.3226721
  85.8730012 121.0804997  97.6569988  86.0120012 121.7924997  96.6719988
  85.7930012 121.4334997  98.9709988  86.4050012 122.6834997  99.2579988
  86.5089450 123.2836747  98.3666809  87.3860458 122.4737425  99.6589293
  85.5010012 123.4384997 100.3289988  86.0724236 124.2646420 100.7186899
  84.9780012 122.5724997 101.4869988  84.5954175 123.2150587 102.2683749
  85.8182411 122.0127475 101.8784823  83.9630012 121.6874997 101.0289988
  83.7390012 120.2314997 101.5989988  82.1820012 120.2364997 101.6299988
  81.4690012 120.8094997 100.5669988  80.8871643 120.0535849 100.0558748
  82.1857179 121.1877916  99.8438049  80.5930012 122.0234997 100.9419988
  80.4529885 122.6087780 100.0419462  81.1570088 122.6096182 101.6531509
  79.1950012 121.8534997 101.5509988  78.2780012 121.4524997 100.4789988
  78.3872418 122.1437767  99.6546587  77.2709598 121.5036191 100.8654629
  78.5029577 120.4377872 100.1866460  79.3070012 120.8864997 102.6909988
  80.1193703 121.2005751 103.3282797  79.4739306 119.8992369 102.2988038
  78.3744773 120.9197298 103.2356013  78.7410012 123.1624997 102.1179988
  79.4499114 123.4924384 102.8627596  77.7706545 123.0342311 102.5736571
  78.6744091 123.8947845 101.3263173  84.1120012 119.2514997 100.5869988
  84.3310012 120.1054997 102.9849988  84.3050012 123.8944997  99.6669988
  83.7430012 124.9234997 100.1269988  84.1490012 125.7194997 101.0039988
  82.3840012 125.2454997  99.3189988  81.5739879 125.3257881 100.0366235
  82.4551704 126.2191689  98.8406577  82.1270012 124.1344997  98.2809988
  83.0195190 123.9538187  97.6920783  81.8916481 123.1924529  98.7659626
  80.9740012 124.5414997  97.3389988  80.1657469 124.9282402  97.9544748
  81.3335349 125.3806088  96.7484936  80.4410012 123.4674997  96.3869988
  80.3205728 122.5481910  96.9571519  79.4465951 123.7471182  96.0476285
  81.3640012 123.1484997  95.0949988  82.2702886 122.6764767  95.4688148
  80.8339561 122.3828902  94.5317267  81.7290012 124.2524997  94.1689988
  80.8401174 124.7068763  93.7341096  82.2651533 125.0506947  94.6747098
  82.6360012 123.6874997  93.0219988  82.1170984 122.8767958  92.5239233
  82.7761883 124.4671048  92.2743963  83.9770012 123.2484997  93.5109988
  84.0114448 122.5014774  94.2896677  85.1210012 123.6904997  93.0589988
  85.9925785 123.2707753  93.5404492  85.4310012 124.6634997  91.9989988
  84.9498882 125.5966226  92.2871530  86.4971209 124.8610534  91.9925027
  84.9530012 124.2904997  90.5259988  83.8954465 124.5259621  90.4126822
  85.4817140 124.9183713  89.8113667  85.2030012 122.7334997  90.1539988
  86.2705526 122.5143569  90.1744275  84.7461803 122.0879301  90.8990213
  84.6380012 122.3864997  88.7549988  83.5853653 122.1220148  88.8267660
  84.6908478 123.2470840  88.0904036  85.4420012 121.2054997  88.1309988
  86.5082568 121.3168240  88.3188703  85.1623055 120.2497217  88.5656065
  85.2200012 121.1714997  86.5279988  85.5273978 122.1112638  86.0727694
  85.8346960 120.3988808  86.0696928  83.6880012 120.8964997  86.1439988
  83.3648071 119.9952029  86.6589014  83.1143032 121.7098836  86.5828499
  83.3250012 120.7874997  84.6259988  82.2518898 120.6892494  84.4924030
  83.7909076 119.9266442  84.1584519  83.6463053 121.6719555  84.0831889
  20.4710012 113.1034997  83.7289988  21.0825493 112.8936169  82.8569970
  19.9737082 114.0548977  83.5636761  19.7032307 112.3367919  83.7864415
  21.3250012 113.1344997  85.0209988  22.0993740 113.8893465  84.8954759
  21.8389483 112.1804111  85.1009195  20.5390012 113.4244997  86.3179988
  20.1137774 114.4265530  86.2631995  21.2395292 113.4397735  87.1505840
  19.4490012 112.4404997  86.6309988  19.8707842 111.4502225  86.7881621
  18.7566859 112.3442406  85.7960498  18.6940012 112.8374997  87.8559988
  17.9648116 113.6158766  87.6462730  19.3644256 113.2426366  88.6121470
  17.9650012 111.6144997  88.4289988  18.6510315 110.7704487  88.4709208
  17.1628934 111.3213140  87.7550238  17.3900012 111.8634997  89.8139988
  16.3247359 111.6436091  89.7736501  17.4729710 112.9299355  90.0190856
  18.0400012 111.0584997  90.9909988  19.1143488 111.2369744  91.0103597
  17.9123039 109.9906771  90.8232715  17.4340012 111.4354997  92.3679988
  16.3510134 111.3520834  92.3070047  17.6468232 112.4849594  92.5677936
  17.9260012 110.6144997  93.4959988  17.6485100 111.0915820  94.4333835
  19.0152175 110.5879902  93.4777247  17.3920012 109.1944997  93.4579988
  17.5804931 108.7597727  92.4787009  16.3109736 109.1926385  93.5864665
  18.0470012 108.2634997  94.5489988  17.6379153 107.2603488  94.4564993
  17.7562871 108.6205469  95.5352404  19.5610012 108.2184997  94.4769988
  19.9286535 109.2148414  94.7165543  19.8581100 108.0232699  93.4504094
  20.2530012 107.2394997  95.3819988  19.7791632 106.2671793  95.2958839
  20.1160670 107.5661877  96.4094305  21.7800012 107.0914997  95.1079988
  22.2688485 108.0562685  95.1558554  21.9476800 106.6650305  94.1261246
  22.3850012 108.4654997  95.5309988  22.3720012 109.6024997  94.9879988
  23.0470012 108.1514997  96.6979988  23.7110012 109.2954997  97.3619988
  23.9862447 109.9170177  96.5232984  24.6059609 108.9930556  97.8861806
  22.7360012 110.0704997  98.3159988  23.3159315 110.7832602  98.8786240
  22.1680012 109.0454997  99.2319988  22.9937111 108.5592296  99.7335419
  21.6728690 108.3214741  98.5970058  21.2890012 109.5584997 100.1449988
  19.8080012 109.1914997 100.3129988  19.1380012 110.2964997 101.2429988
  19.0320012 111.6244997 100.6539988  18.1877870 111.6328346  99.9769301
  19.9183895 111.7681392 100.0428683  18.9930012 112.8444997 101.6059988
  18.0106028 112.8907309 102.0587736  19.1911488 113.7834968 101.1096129
  19.9900012 112.7664997 102.7759988  19.6200012 111.6644997 103.7999988
  18.5847401 111.7918177 104.0852333  20.2535528 111.7878388 104.6657353
  19.7993458 110.6975407 103.3544172  21.4200012 112.4904997 102.1969988
  21.6112964 113.1977671 101.4046019  21.4643148 111.4774389 101.8390684
  22.1273185 112.6342721 103.0009444  20.0580012 114.0904997 103.4769988
  20.3567987 114.8514573 102.7714880  20.7826317 114.0324092 104.2752381
  19.0877897 114.3319290 103.8866774  19.1320012 109.2654997  98.9729988
  19.7510012 107.8734997 100.9979988  21.7520012 110.8144997  97.6139988
  21.5950012 112.1374997  97.8169988  21.9890012 112.7324997  98.8189988
  20.6690012 112.7814997  96.7929988  20.5582301 112.0676316  95.9832610
  19.6817688 112.8834989  97.2367051  21.1920012 114.1294997  96.2989988
  20.4383671 114.5742662  95.6584682  21.2991504 114.7994230  97.1462029
  22.5690012 114.0414997  95.5009988  22.8852385 115.0301489  95.1781664
  23.3477133 113.6762748  96.1660426  22.4770012 113.1194997  94.3199988
  22.3518432 112.0901001  94.6507223  21.6190239 113.3429489  93.6905963
  23.7830012 113.2034997  93.4469988  23.6943216 113.9944775  92.7051153
  24.6269296 113.4739550  94.0786788  24.0950012 111.9094997  92.7589988
  25.0284497 112.0709439  92.2220531  24.3090230 111.1773945  93.5326491
  23.0630012 111.3244997  91.8079988  22.2867483 110.7903387  92.3434272
  22.5625449 112.1148110  91.2500583  23.7870012 110.3994997  90.8099988
  24.5410077 110.9128077  90.2324670  23.6260012 109.0954997  90.5769988
  24.2467787 108.5852363  89.8545885  22.6100012 108.2014997  91.2599988
  23.1118396 107.6349248  92.0425408  21.8312149 108.7738377  91.7515292
  21.9440012 107.1644997  90.2399988  22.7109527 106.6172521  89.6931803
  21.3721118 106.4185087  90.7885414  20.9780012 107.9104997  89.2029988
  20.4796530 108.7081191  89.7539610  21.6102866 108.3991094  88.4668062
  19.9380012 107.0684997  88.4949988  20.4290076 106.1786011  88.1075219
  19.2120910 106.7207237  89.2279321  19.1890012 107.8104997  87.3399988
  18.3124715 107.2181964  87.0841422  18.8083915 108.7493767  87.7327724
  19.9880012 108.0654997  86.0379988  19.4011940 108.6398281  85.3233749
  20.8809407 108.6549327  86.2381527  20.4230012 106.7174997  85.3579988
  19.9902097 105.8585375  85.8647439  20.0357450 106.6877156  84.3418991
  21.9300012 106.5674997  85.3089988  22.2107665 105.6745649  84.7586287
  22.3619798 106.4872558  86.3008135  22.3913046 107.4186024  84.8160846
  40.6670012  33.4004997  82.7229988  41.3672273  33.5389852  81.9051149
  40.0682648  32.5217701  82.5013253  41.2435053  33.1880379  83.6191656
  39.7710012  34.6574997  82.9189988  39.2644138  34.8366709  81.9721778
  40.4436678  35.4976429  83.0689755  38.7270012  34.6064997  84.0499988
  38.1233532  33.7248772  83.8348709  38.0841100  35.4644578  83.8635319
  39.1230012  34.6034997  85.5609988  39.8656155  35.3826702  85.7180565
  39.6191769  33.6627236  85.7943572  37.9650012  34.8244997  86.5429988
  37.1551031  34.1328648  86.3255604  37.5596167  35.8246442  86.3989870
  38.3790012  34.6564997  87.9929988  37.5780578  35.0991476  88.5823794
  39.2471944  35.2977284  88.1295388  38.6890012  33.2774997  88.5279988
  39.3787731  33.3992553  89.3611616  39.2384769  32.7440440  87.7535755
  37.5490012  32.4644997  88.9589988  36.8038152  32.3049623  88.1807336
  37.0133484  32.8746240  89.8131405  38.1880012  31.0734997  89.3629988
  39.1386957  31.2759599  89.8515996  38.4266568  30.5393564  88.4441345
  37.3480012  30.1864997  90.2509988  36.4440388  29.9046226  89.7155585
  37.0223007  30.7553034  91.1215219  38.1020012  28.9164997  90.7249988
  38.6407176  28.4783829  89.8875149  37.3950261  28.1590505  91.0590424
  39.1070012  29.2024997  91.8499988  38.5870790  29.8590369  92.5434386
  39.8884971  29.8042050  91.3896893  39.7720012  28.0314997  92.6199988
  40.2854650  27.3912131  91.9047086  39.0127393  27.4135800  93.0911364
  40.7990012  28.4714997  93.6889988  40.4071206  29.2206513  94.3691065
  41.6919658  28.8941897  93.2361861  41.1920012  27.2504997  94.4719988
  41.5554794  26.4758114  93.8088376  40.3420988  26.8658640  95.0231705
  41.9170012  27.6064997  95.8569988  43.0800012  27.7564997  96.0549988
  40.9360012  27.7854997  96.7679988  41.2220012  28.2634997  98.1149988
  42.1806877  27.8056882  98.3068080  40.5041513  27.8938288  98.8327920
  41.3410012  29.8324997  98.1929988  42.2882335  30.1276769  97.7728615
  41.2920012  30.2034997  99.6769988  42.0303276  29.6439728 100.2352144
  40.3095233  29.9641209 100.0643231  41.5470012  31.6374997  99.7869988
  41.4440012  32.1514997 101.2559988  41.6980012  33.7014997 101.0679988
  41.0950012  34.5284997 100.0969988  40.3281044  34.0150238  99.5318431
  41.8388737  34.8584803  99.3775800  40.5380012  35.8344997 100.7369988
  39.9329913  36.2454395  99.9386626  41.3239135  36.5370279 100.9740069
  39.5970012  35.7884997 102.0109988  40.4350012  35.4414997 103.2479988
  41.0161935  34.5551379 103.0337272  39.7570647  35.2431835 104.0648053
  41.0622968  36.2850433 103.4942736  39.0260012  37.1614997 102.2499988
  38.6118434  37.5266236 101.3227060  39.8050518  37.8072253 102.6139885
  38.2458596  37.0624532 102.9908537  38.4660012  34.8654997 101.8049988
  37.9018260  35.1818308 100.9402890  37.8306924  34.8826340 102.6777755
  38.8412201  33.8640537 101.6508826  40.0840012  31.9854997 101.8359988
  42.5690012  31.5854997 102.0869988  40.3410012  30.4604997  97.3949988
  40.5800012  31.7024997  96.9309988  41.5320012  32.3594997  97.2229988
  39.4700012  32.1854997  96.0329988  38.9941120  31.3109682  95.6014002
  38.7059912  32.6746051  96.6321412  40.0170012  33.1314997  94.9559988
  39.1781216  33.6685618  94.5271558  40.6381121  33.8801270  95.4374667
  40.7990012  32.4514997  93.8369988  41.8021210  32.2021219  94.1734737
  40.3198790  31.5081287  93.5868825  40.8680012  33.3094997  92.5799988
  39.8738464  33.4932648  92.1767710  41.3086274  34.2871550  92.7595556
  41.6990012  32.5784997  91.5069988  42.4806586  31.9624696  91.9467937
  41.0756816  31.9049390  90.9220460  42.3240012  33.5914997  90.5739988
  41.5739792  34.3031203  90.2322910  43.0919670  34.1730297  91.0763624
  42.9580012  32.8874997  89.3479988  43.7577388  32.2445003  89.6966410
  42.2056121  32.2319844  88.9114711  43.4500012  33.8394997  88.2779988
  43.3380503  34.9006937  88.4419752  44.0540012  33.4434997  87.0939988
  44.3939373  34.1506043  86.3509937  44.2970012  32.0194997  86.7329988
  45.2367976  31.9460385  86.1883823  44.4019551  31.3855688  87.6063815
  43.1790012  31.4714997  85.8369988  42.2114843  31.7558194  86.2490406
  43.2451736  31.9489670  84.8612400  43.2300012  29.9924997  85.6629988
  44.2254931  29.7280675  85.3063780  43.1227945  29.5254881  86.6381454
  42.1780012  29.4164997  84.7009988  41.7548374  28.5222590  85.1531172
  41.3587955  30.1274267  84.6084252  42.7200012  29.0914997  83.3139988
  43.6154274  29.6811912  83.1267403  43.0338088  28.0523057  83.2668216
  41.6760012  29.4004997  82.1469988  41.4577410  30.4658703  82.0997662
  42.0978700  29.1356839  81.1791489  40.3170012  28.6174997  82.3319988
  40.5036851  27.5498067  82.4162358  39.8786329  28.9170792  83.2814188
  39.3000012  28.8694997  81.2209988  38.3571288  28.3788105  81.4430008
  39.6442635  28.4939494  80.2633003  39.1014274  29.9314282  81.1069054
  90.3680012 116.4334997  83.0609988  90.5980952 117.4785061  82.8781127
  90.9656888 115.8380268  82.3769143  90.6901642 116.1961043  84.0711801
  88.8130012 116.1414997  82.8719988  88.5545292 116.4474324  81.8596745
  88.2876630 116.8194806  83.5392136  88.3380012 114.7064997  83.0999988
  88.8486730 114.0484779  82.3970403  87.2805516 114.6529793  82.8487875
  88.5280012 114.1674997  84.5299988  89.5935644 114.0861171  84.7329811
  88.1310339 113.1554757  84.5926917  87.8940012 115.0224997  85.6069988
  86.9445188 115.4342737  85.2745858  88.5316158 115.8738473  85.8394205
  87.6510012 114.1674997  86.9359988  88.5985143 113.7999665  87.3258131
  87.0515617 113.2872270  86.7138067  86.9250012 115.0254997  88.0499988
  86.6473979 114.4170185  88.9087520  86.0012754 115.4672740  87.6787898
  87.8830012 116.1544997  88.5109988  88.2054203 116.6970337  87.6232185
  88.7752941 115.6850766  88.9210466  87.3260012 117.1364997  89.5219988
  86.8134194 116.5874169  90.3089607  86.5692649 117.7551180  89.0411260
  88.3700012 118.0184997  90.1319988  88.5296160 118.8402262  89.4373136
  89.2985895 117.4485347  90.1491089  88.0860012 118.5714997  91.5509988
  87.0871121 119.0024924  91.5536148  88.7704721 119.3938353  91.7519754
  88.1760012 117.5284997  92.7149988  89.1423247 117.0307430  92.6889943
  87.4296302 116.7515295  92.5603452  87.9460012 118.1604997  94.0889988
  88.4948840 119.0993047  94.1402306  88.3550698 117.5259062  94.8701697
  86.5190012 118.4464997  94.3939988  86.1661898 119.1787944  93.6752404
  86.4977543 118.9268790  95.3686147  85.5460012 117.2464997  94.4159988
  85.8965565 116.4869355  95.1031772  85.4629119 116.8097966  93.4278411
  85.9470012 116.1604997  95.3639988  85.8870012 114.9484997  95.1389988
  86.5390012 116.6754997  96.4759988  86.9010012 115.8274997  97.4729988
  87.3167453 114.9171211  97.0682399  86.0319712 115.5851905  98.0673599
  87.9720012 116.5784997  98.3279988  88.3036842 115.9493145  99.1373234
  87.3880012 117.8914997  98.8899988  86.5259791 117.6587035  99.5003470
  87.0638999 118.4837010  98.0433342  88.3780012 118.6164997  99.6649988
  88.5270012 117.9904997 101.1589988  89.8170012 117.0714997 101.2159988
  90.9780012 117.4244997 100.4069988  90.6990535 118.1293688  99.6346409
  91.3225296 116.5293807  99.8972349  92.2210012 117.9404997 101.2199988
  91.8321596 118.6871287 101.9008779  92.9210973 118.4148034 100.5474823
  93.0390012 116.9934997 102.0709988  93.8890012 116.1634997 101.1729988
  93.2609887 115.7296220 100.4070454  94.3334586 115.3785464 101.7666366
  94.6660009 116.7845787 100.7531784  93.7630012 117.8884997 103.0549988
  93.0429465 118.5521737 103.5086198  94.5286371 118.4354938 102.5344518
  94.2047247 117.2509059 103.8070968  92.0340012 116.1724997 102.8609988
  91.4179086 116.8354662 103.4500550  92.5641008 115.4954638 103.5138899
  91.4151559 115.6068398 102.1794604  88.6890012 119.1324997 102.0279988
  87.3370012 117.1184997 101.3269988  89.0850012 116.9334997  97.5009988
  89.9890012 115.9784997  97.2969988  89.9450012 114.8334997  97.6809988
  91.2520012 116.6274997  96.6669988  92.0747685 116.4422111  97.3498421
  91.4992667 116.0950939  95.7519519  91.0510012 118.1564997  96.3929988
  90.6136945 118.2883082  95.4094082  90.3346929 118.5672934  97.0974021
  92.3880012 118.9574997  96.4689988  92.1793203 120.0124638  96.6276079
  92.9472209 118.6248147  97.3400091  93.2530012 118.7794997  95.2449988
  94.1064633 119.4260067  95.4407968  93.6232027 117.7592762  95.3105495
  92.7620012 119.0434997  93.7919988  92.0646858 118.2470543  93.5403500
  92.1753157 119.9593841  93.8285612  93.8260012 119.1774997  92.6579988
  93.3436235 119.5935407  91.7748665  94.5914069 119.8896748  92.9534284
  94.5400012 117.7844997  92.2689988  95.1236169 117.4202075  93.1064138
  93.7780443 117.0307117  92.0751654  95.3820012 117.9324997  91.0529988
  96.3353972 118.3987928  91.2508895  95.1300012 117.5634997  89.7769988
  95.8634190 117.7361036  89.0024562  93.8520012 116.8874997  89.2849988
  94.1072462 116.1569660  88.5192367  93.3465393 116.3386010  90.0717005
  92.8870012 117.9034997  88.6739988  91.8856616 117.4977047  88.8131193
  92.9468905 118.7867566  89.3070307  93.0720012 118.3204997  87.2059988
  94.1238828 118.3105982  86.9204222  92.5660989 117.6415357  86.5251354
  92.5120012 119.7384997  87.0239988  91.5530330 119.8619970  87.5222693
  93.1704258 120.5000320  87.4382818  92.3530012 119.9734997  85.5179988
  93.2647653 119.6792683  85.0015648  91.5663794 119.3417847  85.1145295
  92.0780012 121.4124997  85.1859988  91.2094278 121.7901923  85.7224794
  92.9104679 122.0537070  85.4700522  91.8300012 121.5754997  83.6799988
  90.8822515 121.0930369  83.4543548  91.6634841 122.6398766  83.5293776
  92.9300012 121.0824997  82.6529988  92.6524680 121.3434285  81.6361603
  93.0637464 120.0065516  82.6874816  93.8923481 121.5414394  82.8613342
  12.7110012  76.4424997  83.3679988  12.7937585  75.3636326  83.2806719
  13.7009927  76.8344061  83.5827455  12.4069206  76.8300447  82.3995175
  11.7250012  76.8314997  84.4419988  12.0757638  76.3571131  85.3569446
  10.7947643  76.3355487  84.1783589  11.4780012  78.2804997  84.7039988
  10.7244227  78.3461126  85.4886920  11.0151685  78.6876229  83.8072225
  12.6680012  79.1584997  85.0749988  13.1860131  79.4123086  84.1527761
  13.3654240  78.5580683  85.6570551  12.3630012  80.4254997  85.8179988
  11.4392448  80.8603250  85.4449382  13.1468111  81.1536808  85.6161099
  12.2410012  80.2234997  87.3209988  12.5349723  81.1610064  87.7894847
  12.9957662  79.4926141  87.6033338  10.7980012  79.7584997  87.9089988
  10.6043928  78.7242480  87.6304144  10.0070260  80.3503006  87.4503486
  10.7120012  79.8984997  89.4599988  10.9764453  78.9334727  89.8903976
   9.6681713  80.0698348  89.7164114  11.6110012  81.0364997  90.1269988
  11.4449495  81.9636910  89.5826789  12.6578299  80.7775309  89.9731752
  11.3660012  81.2704997  91.6029988  10.3023585  81.4707774  91.7118662
  11.8791487  82.1953164  91.8653394  11.7970012  80.1554997  92.5819988
  12.7737727  79.7675274  92.3010436  11.1116092  79.3109848  92.5355178
  11.8780012  80.6734997  94.0549988  10.9378268  81.1664364  94.2901681
  12.6437072  81.4461870  94.0913097  12.2080012  79.5864997  95.1459988
  12.8553181  80.0269715  95.9024493  12.7667577  78.7635249  94.7092176
  10.9500012  79.0214997  95.8619988  10.5854799  78.1650724  95.3043237
  10.1744123  79.7812732  95.8140602  11.1510012  78.6184997  97.3349988
  11.5466198  79.4497424  97.9047026  11.8417775  77.7868844  97.4078895
  11.9080012  77.2654997  97.4819988  12.2400012  76.4964997  96.6159988
  12.2260012  77.1264997  98.7569988  12.9390012  75.9734997  99.0879988
  12.6515252  75.2740965  98.3175088  12.5663133  75.6234011 100.0396956
  14.5120012  76.1364997  99.1209988  14.9215660  75.1592552  99.3163032
  15.0580012  77.1594997 100.1669988  16.1305265  77.1204497 100.3010341
  14.5831535  77.0433224 101.1332324  14.6730012  78.4014997  99.5679988
  14.7110012  79.7084997 100.4339988  13.6530012  79.3924997 101.5969988
  12.3110012  79.1034997 101.3729988  12.1016271  78.0417318 101.3736577
  12.0031374  79.4775410 100.4008311  11.4060012  79.8564997 102.4089988
  11.7236568  79.4619761 103.3659183  10.3541144  79.6468293 102.2788080
  11.5170012  81.3444997 102.5249988  12.7820012  81.7424997 103.1349988
  12.9112232  81.1884888 104.0546224  12.7297234  82.7991827 103.3513039
  13.5827631  81.5549054 102.4354948  11.4790012  81.9544997 101.1459988
  10.6324210  81.5476702 100.6144861  12.4025994  81.7366221 100.6401671
  11.3621880  83.0216399 101.2679141  10.3210012  81.8824997 103.2839988
   9.4158549  81.6032497 102.7655282  10.3899240  82.9585991 103.3379402
  10.3126124  81.4705050 104.2828106  16.0410012  79.9334997 101.1189988
  14.2020012  80.7914997  99.5919988  14.9060012  76.5464997  97.8129988
  16.1900012  76.5134997  97.4959988  17.1490012  76.1094997  98.1729988
  16.3610012  77.0674997  96.0849988  17.4103593  77.3180390  95.9682493
  16.1633411  76.2735775  95.3690902  15.4910012  78.2234997  95.8449988
  14.4726514  77.8565315  95.7789755  15.5245174  78.8591962  96.7240890
  15.8110012  79.0544997  94.5849988  15.1689287  79.9287703  94.5139501
  16.8301966  79.4300004  94.6330067  15.6700012  78.2134997  93.3559988
  16.4175161  77.4249689  93.4203941  14.7025316  77.7180053  93.3822653
  15.8260012  78.9084997  92.0239988  15.5224956  79.9464058  92.1445651
  16.8886109  78.9289160  91.7898520  15.0880012  78.3044997  90.8589988
  15.3318643  77.2433538  90.8731874  14.0278633  78.3784746  91.0847273
  15.3380012  78.8804997  89.4019988  14.7488138  78.3209422  88.6848282
  14.9763556  79.9071095  89.3616175  16.8010012  78.8694997  89.0309988
  17.3014250  79.7320040  89.4447816  17.5570012  78.0014997  88.3149988
  18.6248998  78.1360174  88.2195655  17.0230012  76.7864997  87.5959988
  17.7129539  75.9691141  87.7986488  16.0706173  76.4927487  88.0230308
  16.8780012  76.9264997  86.0739988  16.1431400  76.2143721  85.7004237
  16.4904228  77.9152106  85.8358966  18.2380012  76.7134997  85.3279988
  19.0237381  77.2218267  85.8868620  18.4895847  75.6566295  85.3433320
  18.2410012  77.2334997  83.8359988  18.1596866  78.3180861  83.8503253
  19.2051588  77.0066252  83.3843207  17.1380012  76.6434997  82.9809988
  17.5360238  75.8383108  82.3663128  16.3704149  76.1906607  83.6025880
  16.5080012  77.6874997  82.0429988  15.8608020  77.1812070  81.3290772
  15.8615667  78.3417449  82.6251668  17.4930012  78.5444997  81.2759988
  17.7733474  79.4115118  81.8689666  18.4061223  77.9681010  81.1445171
  17.0070012  78.9984997  79.9209988  17.7895573  79.5317031  79.3896148
  16.1544957  79.6648311  79.9983153  16.7094458  78.1516941  79.3090167
  39.7430012 128.4394997  83.5129988  39.8351933 129.1699683  82.7152863
  40.7094591 127.9591984  83.6357170  39.5247367 128.9784007  84.4309085
  38.6680012 127.4304997  83.2089988  38.8892709 126.9067908  82.2805744
  37.7155006 127.9310931  83.0574638  38.5510012 126.3994997  84.3599988
  37.8838218 125.6122094  84.0093213  38.0228885 126.9048296  85.1661686
  39.8150012 125.7694997  84.9309988  40.3117040 126.5285083  85.5313671
  40.4876175 125.5525615  84.1026081  39.6420012 124.5414997  85.7619988
  40.6217433 124.0726043  85.8046072  39.0140355 123.8832934  85.1638443
  39.0740012 124.6304997  87.1769988  38.0264941 124.3346432  87.1731249
  39.0972589 125.6626536  87.5200649  39.8480012 123.7474997  88.1719988
  39.5038164 123.9145502  89.1910184  40.9095056 123.9912154  88.1656022
  39.6600012 122.2154997  87.7999988  40.2461255 121.9355909  86.9256074
  38.6248943 121.9792878  87.5603286  40.0990012 121.3844997  88.9799988
  39.7480294 120.3601821  88.8744839  39.6544628 121.7645236  89.8989898
  41.6330012 121.3864997  89.1189988  42.0309562 122.3545787  89.4152315
  42.1465805 121.1144689  88.1972262  41.9480012 120.3224997  90.2139988
  41.8843311 119.3352752  89.7613677  41.1717914 120.3559512  90.9765651
  43.2730012 120.4544997  90.8599988  44.0054518 120.7279839  90.1043921
  43.5718638 119.4766932  91.2331552  43.3140012 121.4654997  92.0329988
  43.3389390 122.4744109  91.6246751  44.2315430 121.3448478  92.6020631
  42.0840012 121.3684997  93.0139988  41.8711766 120.3285364  93.2387811
  41.2059300 121.7681718  92.5136536  42.2850012 122.1174997  94.2939988
  42.5318888 123.1522087  94.0928405  43.0890998 121.6735499  94.8688057
  41.2190012 122.0774997  95.3229988  40.2420012 121.3244997  95.4039988
  41.4040012 123.1914997  96.0819988  40.3710012 123.3584997  97.1039988
  40.5362858 122.4519311  97.6663834  39.3931474 123.3170024  96.6465362
  40.4990012 124.5974997  98.0309988  41.5452122 124.6412727  98.2848103
  39.6470012 124.5404997  99.3209988  39.9033488 123.6527557  99.8831354
  38.6075160 124.4753787  99.0246631  39.8690012 125.7184997 100.1129988
  41.2550012 126.0284997 100.9079988  41.5170012 124.7414997 101.7239988
  42.3700012 124.8664997 102.9009988  41.8463281 125.0658976 103.8268475
  43.1034259 125.6592466 102.7850788  43.1830012 123.5804997 102.9979988
  42.4821730 122.9025345 103.4685858  44.0508303 123.6794440 103.6339702
  43.6700012 122.8634997 101.7279988  44.3990012 123.8154997 100.7879988
  43.7765261 124.6847690 100.6260428  44.5577526 123.3022617  99.8512572
  45.3514961 124.0773377 101.2237868  44.6050012 121.6814997 102.1829988
  44.0926697 121.1125446 102.9436042  45.5299436 122.0875321 102.5517659
  44.7875535 121.0621836 101.3167313  42.5320012 122.1034997 100.9819988
  42.0921883 121.3775591 101.6495742  42.9465747 121.5996914 100.1217918
  41.7787785 122.8079790 100.6598196  42.5210012 126.1674997 100.0859988
  40.9260012 127.2114997 101.7709988  40.2040012 125.7714997  97.2209988
  41.2230012 126.2814997  96.5889988  42.3770012 125.9754997  96.7039988
  40.7880012 127.4394997  95.7309988  39.7067532 127.3786339  95.6620693
  41.0003748 128.3599840  96.2690629  41.4620012 127.4424997  94.3269988
  41.1485122 128.3621959  93.8453926  42.5298274 127.5405085  94.4948508
  41.1970012 126.2984997  93.4119988  41.4953308 125.3803194  93.9115970
  40.1206285 126.2324162  93.2737243  41.8670012 126.3874997  92.0239988
  41.5494701 125.5710004  91.3780816  41.6287216 127.3056759  91.4926070
  43.4070012 126.2974997  92.2039988  43.7381250 127.2459368  92.6220001
  43.5841194 125.5489160  92.9738252  44.2510012 125.9594997  90.9989988
  45.3182006 126.0792826  91.1791054  44.1141531 124.9469290  90.6298224
  43.8000012 126.9594997  89.8909988  42.8357121 126.6802235  89.4826712
  43.6783289 127.9575838  90.3097706  44.8130012 127.0124997  88.8519988
  45.5970532 127.7376689  89.0099415  44.8880012 126.2654997  87.7449988
  45.7225812 126.4323913  87.0792410  43.9280012 125.1704997  87.2789988
  43.9249541 124.3590324  88.0047622  42.9028959 125.5161773  87.2058738
  44.3830012 124.5874997  85.8909988  43.8782905 125.0246091  85.0302389
  45.4497587 124.6899258  85.7012717  44.0250012 123.0804997  85.9909988
  44.5812212 122.6720774  86.8347508  42.9739154 123.0076726  86.2563644
  44.2990012 122.2234997  84.7399988  45.3574603 121.9736581  84.7597071
  43.7624395 121.2850748  84.8686273  43.9340012 122.8284997  83.3949988
  44.5570892 123.7137847  83.2826525  44.2743357 122.1279815  82.6373236
  42.4620012 123.2414997  83.1149988  42.0405123 123.8215663  83.9339938
  42.3813396 123.8680974  82.2285999  41.6000012 121.9954997  82.9079988
  41.5570133 121.4742849  83.8611001  40.5946921 122.3712581  82.7305945
  41.9540012 121.0074997  81.8059988  41.2014954 120.2283230  81.7305818
  42.9071824 120.5223590  81.9871755  42.0143420 121.5035559  80.8414117
  10.7170012  89.2474997  82.4889988  10.7221867  88.4976279  81.7040819
  11.4444486  90.0093762  82.2241320   9.7365915  89.7159010  82.4920247
  11.0380012  88.6224997  83.8639988  12.0065528  88.1333790  83.7752762
  10.3105420  87.8317816  84.0264246  11.0630012  89.6324997  85.1429988
  10.3041340  90.4053239  85.0213747  12.0191988  90.1512056  85.1713038
  10.8510012  88.9164997  86.5039988   9.8937710  88.4053315  86.4287162
  10.7179946  89.6969543  87.2515988  11.8820012  87.9364997  86.9859988
  12.9015934  88.2668047  86.8046066  11.7848466  86.9656567  86.5028943
  11.6700012  87.7694997  88.5259988  10.6346369  87.9871713  88.7818441
  12.2753709  88.4962513  89.0635269  12.0240012  86.3644997  89.0079988
  11.3274004  85.6821320  88.5243752  11.7938828  86.3306133  90.0720135
  13.4650012  85.8644997  88.7829988  13.5969832  85.7708280  87.7058463
  13.5106949  84.8535888  89.1838172  14.6210012  86.6924997  89.3649988
  14.5058304  87.7441069  89.1112295  15.5721815  86.3792366  88.9363972
  14.6790012  86.5414997  90.8879988  14.5147291  85.4938137  91.1302130
  13.8419728  87.0894979  91.3198672  15.9790012  87.0274997  91.5249988
  16.8121590  86.4611448  91.1143515  15.9694912  86.8192680  92.5934917
  16.2520012  88.5124997  91.3039988  16.2544699  88.6160154  90.2216414
  17.2855655  88.6330021  91.6232071  15.4220012  89.6104997  91.9299988
  14.4001932  89.6044594  91.5543340  15.8107417  90.6066890  91.7382655
  15.3720012  89.3844997  93.3939988  16.3595519  89.4272916  93.8415000
  14.9699216  88.3988764  93.6130210  14.4470012  90.4664997  94.0739988
  13.4644016  90.4646105  93.6195371  14.8786628  91.4543500  93.9649627
  14.2820012  90.1534997  95.5509988  13.9600012  89.0834997  95.9439988
  14.2860012  91.2484997  96.2319988  14.1800012  91.2704997  97.6479988
  15.0608227  91.7965514  97.9839823  14.1979101  90.2644657  98.0414030
  12.9390012  91.9984997  98.0869988  12.8884436  92.9669565  97.6174997
  12.8290012  92.1564997  99.6629988  13.2459757  93.1148156  99.9415015
  13.4382790  91.3736526 100.0971830  11.5310012  92.0514997 100.1009988
  11.1820012  90.8924997 101.1209988  12.0830012  89.5954997 100.8449988
  11.7160012  88.4034997 101.4539988  10.7683149  88.0793320 101.0441267
  11.5389809  88.6229983 102.5029417  12.7600012  87.2354997 101.4489988
  12.7719715  86.8559293 100.4350796  12.3963643  86.4588850 102.1062771
  14.2310012  87.4554997 101.8299988  14.3090012  87.8964997 103.2659988
  13.6331907  88.7284926 103.4088342  15.3224439  88.2132684 103.4626999
  14.0602288  87.0611428 103.9031865  15.0110012  86.1444997 101.7119988
  14.8059453  85.7094662 100.7458663  14.7154481  85.4871023 102.5100257
  16.0610850  86.3847702 101.7950106  14.9410012  88.4714997 101.0259988
  14.9055595  88.1890446  99.9843438  15.9689971  88.5263768 101.3513645
  14.4675967  89.4333625 101.1606951  11.5990012  91.3344997 102.5139988
   9.8390012  90.4494997 100.8639988  11.8310012  91.1744997  97.5169988
  10.6610012  91.7524997  97.3669988  10.4220012  92.9634997  97.5099988
   9.5390012  90.7394997  97.0429988   9.2928561  90.2455193  97.9773162
   8.6493578  91.2950023  96.7568894   9.9440012  89.7254997  95.9389988
  10.9652076  89.3913828  96.0858467   9.3276087  88.8330181  95.9786232
   9.8250012  90.3744997  94.5699988  10.0020769  89.5742289  93.8559505
   8.7727645  90.6331228  94.4806839  10.6600012  91.5984997  94.2019988
  10.5618148  92.4250519  94.9033381  11.7268808  91.4252155  94.0839210
  10.0960012  92.0244997  92.8959988  10.2100310  91.2253883  92.1663966
   9.0249861  92.1820720  93.0077069  10.7330012  93.3244997  92.3389988
  10.1692487  93.6655836  91.4720813  10.6807595  94.1240996  93.0726396
  12.2180012  93.1164997  91.9359988  12.6887290  92.6692851  92.8037513
  12.1959238  92.3451098  91.1673530  13.0110012  94.2694997  91.4299988
  13.3837100  94.9571142  92.1741953  13.3300012  94.5404997  90.0959988
  13.8746965  95.4565337  89.9176771  13.0280012  93.7254997  88.8139988
  11.9442860  93.6553865  88.7374055  13.3585072  94.2810865  87.9434989
  13.5910012  92.3414997  88.7629988  14.4201448  92.2810561  89.4669678
  12.8288078  91.6583128  89.1328311  14.0790012  91.8534997  87.3209988
  14.4921475  90.8520711  87.4416547  13.1988264  91.7452586  86.6932407
  15.1290012  92.7604997  86.5949988  14.6884279  93.7416791  86.4327422
  15.9835479  92.9154707  87.2513666  15.6210012  92.1704997  85.2449988
  16.6276346  92.5414870  85.0615663  15.7163058  91.0932266  85.3499980
  14.7570012  92.5074997  84.0069988  13.7866479  92.0374613  84.1565363
  14.5786463  93.5810924  84.0275460  15.2930012  92.1124997  82.5609988
  16.3086930  92.4884290  82.4663299  15.3775599  91.0279897  82.5600000
  14.4660012  92.5474997  81.3279988  14.8920833  92.1416412  80.4154190
  14.4352468  93.6264993  81.2205045  13.4414055  92.1938202  81.4004942
  57.7680012 124.3594997  81.6439988  58.2373733 124.7990470  80.7694035
  56.6981606 124.3190336  81.4607128  58.1253876 123.3371901  81.7321467
  58.0790012 125.1524997  82.8899988  57.7304620 126.1779684  82.7798297
  59.1545296 125.2095616  83.0342086  57.4090012 124.5184997  84.1309988
  57.4909870 123.4323630  84.0920818  56.3437183 124.7405177  84.1238289
  58.0150012 125.0344997  85.4809988  58.1357691 126.1153052  85.4580979
  59.0082774 124.6238182  85.6554953  57.1160012 124.6744997  86.6359988
  56.1686168 125.2045621  86.5805933  57.5736044 124.9645565  87.5803670
  56.8530012 123.2304997  86.6489988  57.7818531 122.6693627  86.5642852
  56.2443110 122.9418821  85.7947311  56.1290012 122.8244997  87.9499988
  55.7238105 121.8179187  87.8640609  55.2790181 123.4798371  88.1351786
  57.0650012 122.8834997  89.1229988  57.3135462 123.9262663  89.3161673
  57.9978929 122.3945396  88.8485628  56.5150012 122.2414997  90.4189988
  57.3381405 121.8260518  90.9963944  55.8692700 121.4021803  90.1637514
  55.6930012 123.2864997  91.3349988  54.8047582 123.6412446  90.8168488
  56.2912151 124.1702513  91.5553444  55.2950012 122.6034997  92.6549988
  56.1773189 122.0741335  93.0083087  54.5603531 121.8377984  92.4118490
  54.7490012 123.4904997  93.8269988  53.7475036 123.8500966  93.6035896
  55.3697682 124.3761784  93.9490290  54.7470012 122.7134997  95.1369988
  54.0984865 121.8417890  95.0677082  54.3745198 123.3044215  95.9690702
  56.1630012 122.2244997  95.4649988  56.8938759 123.0121514  95.3140956
  56.4364371 121.4100286  94.7994451  56.2530012 121.7224997  96.9149988
  55.5088373 120.9578357  97.0981659  56.0900977 122.5393650  97.6080086
  57.4410012 120.9704997  97.3759988  58.5260012 120.7884997  96.8499988
  56.9900012 120.4234997  98.5299988  57.9330012 119.7784997  99.3569988
  58.5683354 119.2909562  98.6330417  57.3734493 119.0288324  99.8974547
  58.7900012 120.6464997 100.3309988  59.3893361 120.0032190 100.9538001
  57.8590012 121.5334997 101.2229988  58.4039532 122.0070591 102.0283370
  57.0681030 120.9282547 101.6481382  57.3340012 122.4814997 100.3739988
  56.6350012 123.8124997 100.8519988  57.8050012 124.8014997 100.5089988
  57.5590012 126.2014997 100.4579988  56.5211478 126.4642780 100.2998947
  58.1210277 126.6696602  99.6550362  58.1050012 126.8434997 101.7669988
  57.3858932 126.5193560 102.5086615  58.0912089 127.9227680 101.7183512
  59.4540012 126.4724997 102.3159988  60.4450012 126.3174997 101.2069988
  60.0291973 125.6520467 100.4629467  61.3433151 125.8842290 101.6210139
  60.6677685 127.2913092 100.7973809  59.9500012 127.5584997 103.2819988
  59.1641809 127.7721054 103.9902171  60.2196320 128.4334798 102.7180139
  60.8146219 127.1635978 103.7955943  59.3690012 125.2784997 103.1459988
  58.6752470 125.4559486 103.9542679  60.3455934 125.0566573 103.5493640
  59.0279878 124.4464149 102.5470165  55.4970012 124.0564997  99.9589988
  56.3820012 123.7194997 102.3129988  59.6980012 121.4934997  99.5349988
  60.5500012 122.2664997 100.2049988  60.9140012 122.1054997 101.3789988
  61.1150012 123.3214997  99.1889988  61.3443701 124.1743340  99.8195672
  62.0740300 122.9211052  98.8698514  60.2310012 123.7244997  97.9539988
  60.4660601 123.0632929  97.1271893  59.1851431 123.5525713  98.1877817
  60.4330012 125.1794997  97.5069988  59.9769954 125.8063594  98.2690746
  61.5033001 125.3614931  97.5653383  59.9340012 125.6054997  96.0979988
  60.6100687 125.2444913  95.3251393  58.9554075 125.1946331  95.8618948
  59.8630012 127.1814997  95.9999988  59.3792450 127.6127218  96.8740287
  60.8642406 127.6067435  95.9673148  59.1100012 127.6084997  94.7419988
  58.1500492 127.0968037  94.6934150  58.8897667 128.6721861  94.7616455
  59.9460012 127.2854997  93.4249988  60.6776470 128.0756686  93.3029028
  60.5089161 126.3738886  93.6210552  59.1150012 127.0864997  92.1279988
  58.5772484 127.8929564  91.6526006  59.0530012 125.8764997  91.5389988
  58.4181832 125.8272368  90.6659642  59.7170012 124.5834997  91.8829988
  59.8506237 124.5290250  92.9620718  59.1134487 123.7256612  91.6081923
  61.0740012 124.4704997  91.2329988  61.7187619 125.1685260  91.7656786
  61.4318358 123.4741480  91.4853810  61.2140012 124.6824997  89.7779988
  60.8259060 125.6789405  89.5668238  62.2775893 124.7181390  89.5588777
  60.5180012 123.6434997  88.8259988  60.0986096 122.8328244  89.4176586
  59.6794759 124.1108478  88.3126314  61.4810012 123.0904997  87.8039988
  61.9132607 123.9158016  87.2413102  62.3132482 122.6070566  88.3082532
  60.8340012 122.1134997  86.7939988  60.5662914 121.1882802  87.3011313
  59.9009956 122.5373346  86.4269856  61.6910012 121.7814997  85.6279988
  62.0636980 122.7153752  85.2146120  62.5602868 121.2710008  86.0367118
  61.1210012 120.9534997  84.5399988  61.8785404 120.7158211  83.7992477
  60.3115868 121.4607640  84.0259246  60.7304815 120.0162412  84.9262396
 125.1500012  77.5394997  85.0369988 124.9261748  77.4996492  83.9755174
 124.7902332  76.6183432  85.4862512 126.2308852  77.5583554  85.1462972
 124.4980012  78.7844997  85.7059988 123.4217540  78.7442573  85.5470160
 124.8493361  79.6750747  85.1919425 124.7840012  78.8974997  87.2209988
 124.6015642  79.8866121  87.6408825 125.8067534  78.6403875  87.4894056
 123.8090012  77.8534997  87.9019988 123.4719080  77.1230441  87.1698424
 122.9107701  78.3434443  88.2746128 124.4900012  77.1194997  89.0409988
 125.2768313  76.5261936  88.5822403 123.7463545  76.4121298  89.4042928
 125.0740012  77.8854997  90.2219988 125.9815275  78.3511569  89.8420298
 125.3960179  77.1235893  90.9286634 124.2120012  78.9664997  90.9799988
 123.2550952  78.4939797  91.1940688 124.0075409  79.7527426  90.2545692
 124.7820012  79.6144997  92.3049988 125.6952318  79.0962802  92.5946700
 124.0735941  79.4584672  93.1164772 125.0610012  81.0534997  92.1749988
 125.5844398  81.2077532  91.2338511 125.7623875  81.3299527  92.9612607
 123.8410012  81.9814997  92.2359988 123.4205352  81.9353081  93.2381832
 123.0730751  81.5977700  91.5648281 124.1550012  83.4424997  91.8629988
 123.2182962  83.9903532  91.9403374 124.4256646  83.4540225  90.8086096
 125.2150012  84.1894997  92.6619988 125.1651297  85.2488137  92.4220286
 126.1989995  83.8514572  92.3423983 125.0970012  83.9884997  94.1529988
 125.9176438  84.5090040  94.6437867 125.2106560  82.9373542  94.4028984
 123.7590012  84.5154997  94.7629988 122.9171728  84.1562960  94.1802100
 123.7463921  85.6002697  94.6981371 123.5630012  84.1064997  96.2499988
 124.4086929  84.4261073  96.8455636 123.4639912  83.0308966  96.3356969
 123.3480012  82.6064997  96.5009988 122.8380012  81.8534997  95.6399988
 123.8690012  82.2864997  97.6789988 123.8460012  80.9274997  98.1249988
 123.8969220  80.3628403  97.2062883 122.8759310  80.7797802  98.5770329
 124.9420012  80.5044997  99.0559988 124.7868059  79.4763271  99.3382569
 124.9960012  81.4104997 100.3429988 124.2356437  81.0668528 101.0311589
 124.7457023  82.4140362 100.0222966 126.2760012  81.3934997 100.9659988
 126.9650012  80.1354997 101.7219988 127.1840012  79.0014997 100.6249988
 127.9550012  77.8804997 101.0319988 128.8660612  78.1618257 101.5438720
 128.2557020  77.2995290 100.1649064 127.0830012  76.8844997 101.9209988
 126.8108090  77.3704229 102.8494593 127.7257589  76.0450900 102.1437786
 125.7550012  76.2714997 101.3549988 125.2760012  75.3314997 102.4179988
 126.0900757  74.6734884 102.6893614 124.4615278  74.7526332 102.0085518
 124.9240129  75.9062869 103.2614683 124.6700012  77.2474997 101.0329988
 125.0872527  78.0355940 100.4251151 124.2609022  77.6327585 101.9498323
 123.9103366  76.7149687 100.4792682 126.1290012  75.4804997 100.1069988
 126.6081007  76.1397084  99.3984866 125.2337683  75.0663902  99.6679982
 126.8031041  74.6800505 100.3758880 128.2150012  80.5314997 102.3729988
 125.8790012  79.7154997 102.6279988 126.2150012  80.6054997  98.3319988
 126.5220012  79.5044997  97.6659988 125.7870012  78.5514997  97.5959988
 127.9400012  79.8114997  97.0649988 128.4730629  80.3956002  97.8081170
 128.4870001  78.8764689  96.9732566 127.8560012  80.5454997  95.7009988
 127.5703869  79.7966846  94.9704090 127.0205432  81.2352877  95.7660790
 129.1040012  81.2844997  95.2009988 129.5253435  81.8729846  96.0120537
 129.8577033  80.5460213  94.9389915 128.8490012  82.1794997  93.9779988
 128.4618908  81.5700260  93.1635091 128.0832625  82.9207450  94.1934095
 130.1630012  82.9294997  93.4639988 130.5630971  83.5813859  94.2378647
 130.9432156  82.2024007  93.2472650 129.8880012  83.7634997  92.1769988
 129.1208794  84.4920439  92.4347746 130.7861816  84.3311880  91.9504598
 129.4500012  82.9834997  90.8899988 128.5653671  82.4411393  91.2028051
 129.1068780  83.7673912  90.2161096 130.3760012  82.1094997  90.1599988
 131.2856757  82.6201979  89.8820895 130.2690012  80.8164997  89.8109988
 131.1272643  80.4395498  89.2735016 129.2040012  79.8134997  90.0259988
 129.6540703  78.9481501  90.5095572 128.4524120  80.1878371  90.7120499
 128.5270012  79.3434997  88.7379988 127.9486474  78.4447532  88.9488700
 127.8085917  80.1014753  88.4316985 129.5010012  79.0674997  87.5729988
 130.0142916  80.0056723  87.3621149 130.2595576  78.3825614  87.9417203
 128.9040012  78.5164997  86.2749988 128.0304633  77.9155898  86.5178648
 128.5447078  79.3423931  85.6635306 129.9280012  77.6624997  85.4419988
 130.9114867  78.1286711  85.4364819 130.0711293  76.6727382  85.8668652
 129.4380012  77.5424997  83.9419988 130.1340682  76.9116007  83.3921440
 128.4820010  77.0222637  83.9261148 129.2830012  78.8634997  83.1909988
 128.5699503  78.7437939  82.3791219 128.8350985  79.5811861  83.8748280
 130.5060012  79.4174997  82.6759988 130.3309096  80.3938720  82.2342874
 130.9451531  78.7879932  81.9094428 131.2425474  79.5387776  83.4652594
  10.4940012  69.6024997  82.9479988   9.9984491  69.7569788  81.9945873
   9.9008460  68.8937848  83.5186827  11.4568994  69.1401463  82.7488296
  10.6610012  70.9054997  83.6979988   9.6639893  71.3278554  83.8110737
  11.2008199  71.5718426  83.0306181  11.3600012  70.8604997  85.0919988
  12.2793419  70.2805424  85.0120535  10.7186775  70.3147768  85.7812458
  11.6780012  72.2314997  85.7049988  10.7328105  72.6828442  85.9985168
  12.0847434  72.8672292  84.9200690  12.6320012  72.2464997  86.9219988
  12.9352067  73.2717034  87.1184592  13.5371830  71.7075090  86.6472262
  12.0410012  71.6284997  88.2409988  11.9353486  70.5568028  88.0825045
  11.0328910  72.0186296  88.3638388  12.8430012  71.8754997  89.5349988
  13.3233650  72.8513127  89.4924612  13.6460354  71.1444533  89.6182891
  11.9680012  71.8014997  90.7729988  11.0712107  72.4040382  90.6345605
  12.4903542  72.2260882  91.6283092  11.5870012  70.4444997  91.0749988
  12.4559925  69.7904237  91.0509210  10.8998092  70.0641483  90.3202292
  10.9330012  70.3574997  92.4329988  10.5002582  69.3649253  92.5370592
  10.0989698  71.0583269  92.4587243  11.8980012  70.6554997  93.6449988
  12.1200924  71.7204524  93.6545976  12.8477491  70.1502245  93.4782537
  11.3320012  70.2494997  95.0729988  12.1410028  69.9158767  95.7183135
  10.6539556  69.4038799  94.9737446  10.5590012  71.4344997  95.7459988
   9.7970114  71.7257588  95.0250329  11.2565416  72.2653831  95.8038264
   9.8470012  71.2494997  97.1699988   9.0516424  70.5207063  97.0533382
   9.3723815  72.1973204  97.4097152  10.7410012  70.8374997  98.3509988
  11.5622406  71.5335598  98.4654845  11.1458916  69.8454629  98.1897666
  10.8050012  69.3674997  98.4459988  10.7370012  68.5674997  97.5639988
  11.1040012  68.9594997  99.7999988  11.0100012  67.5934997 100.0649988
  10.6193455  67.1242388  99.1746930  10.2969481  67.4759691 100.8680765
  12.3720012  66.9754997 100.4409988  12.1606512  65.9399591 100.6504764
  13.0090012  67.6634997 101.7169988  13.9668421  67.2414610 101.9894415
  12.3437700  67.5924936 102.5684743  13.1560012  68.9954997 101.3239988
  14.2520012  69.9904997 101.8679988  13.3940012  71.2604997 102.4119988
  12.6330012  71.9414997 101.4229988  11.5896340  71.6691278 101.5145818
  12.9602215  71.5848623 100.4506132  12.8100012  73.5384997 101.3679988
  12.5113287  73.9834413 102.3087808  12.1878877  73.9397965 100.5810345
  14.1420012  74.0274997 101.1079988  15.0940012  73.7114997 102.2289988
  14.6529768  74.0410689 103.1597058  16.0112690  74.2523662 102.0496024
  15.2933603  72.6503826 102.2308885  14.6050012  73.5284997  99.7749988
  13.8376213  73.7373299  99.0454564  14.8047270  72.4741755  99.8448571
  15.5092668  74.0646249  99.5256588  14.1410012  75.5194997 100.9789988
  13.4741240  75.8068642 100.1797626  15.1417097  75.8567650 100.7543110
  13.8108074  75.9615977 101.9079532  14.9770012  69.3174997 102.9919988
  15.0210012  70.4464997 100.7029988  13.3520012  67.0994997  99.4529988
  13.2430012  66.5274997  98.2769988  12.4070012  65.6984997  97.9679988
  14.2840012  67.2094997  97.2499988  14.0281271  68.2639751  97.2372348
  15.2711941  67.1484398  97.7012512  14.2820012  66.6054997  95.8509988
  14.4616047  65.5360553  95.8606096  13.3445790  66.7476394  95.3227290
  15.4040012  67.2894997  95.0999988  15.2966808  68.3698374  95.1548330
  16.3528699  67.0545875  95.5759498  15.4670012  66.8464997  93.6519988
  16.3162779  67.3465714  93.1900861  15.6824249  65.7815411  93.6112824
  14.2190012  67.1324997  92.8049988  13.3537247  66.5654527  93.1421271
  13.9348014  68.1814597  92.8623958  14.5250012  66.7744997  91.2989988
  15.3140305  66.0243965  91.2771131  13.6502769  66.3125250  90.8498275
  14.9520012  68.0024997  90.4189988  15.1698765  67.6433877  89.4199247
  14.0883202  68.6597369  90.3271272  16.1240012  68.8104997  90.9829988
  15.8923256  69.3492323  91.8894465  17.3510012  68.9174997  90.5189988
  18.0547312  69.5421272  91.0502374  17.9130012  68.2624997  89.3179988
  18.7600489  67.6445968  89.6111321  17.2031546  67.5971425  88.8393561
  18.4290012  69.3504997  88.2509988  19.0714816  70.0472263  88.7881169
  19.0739364  68.8192907  87.5536218  17.3830012  70.1244997  87.4719988
  16.7424583  70.6270321  88.1967560  17.8916119  70.9101265  86.9200843
  16.4840012  69.2794997  86.4789988  15.7891385  68.7138159  87.0956938
  15.8812096  69.9866125  85.9117962  17.2140012  68.3294997  85.4979988
  17.6817181  68.8528219  84.6661546  18.0009366  67.7360972  85.9554166
  16.1360012  67.4164997  84.9299988  16.6639076  66.6778058  84.3295579
  15.7318403  66.8774373  85.7849255  14.9620012  67.9704997  84.1029988
  14.8723463  69.0423341  84.2612643  15.2104066  67.8464228  83.0512323
  13.5740012  67.2824997  84.3789988  12.8146591  67.6610576  83.7013835
  13.2260428  67.4628298  85.3905061  13.6363998  66.2071085  84.2383528
 118.8980012  98.9144997  83.7559988 119.9244675  99.1604550  83.5024208
 118.3999509  98.5926223  82.8459818 118.9195508  98.0674950  84.4362419
 118.1700012 100.1254997  84.3959988 118.2069670 100.9563250  83.6934564
 118.7399448 100.4369358  85.2671967 116.6600012  99.8514997  84.8009988
 116.6243803  99.0761910  85.5662154 116.1342086  99.4474056  83.9382003
 115.8960012 101.0954997  85.3009988 114.8333250 100.8647238  85.3276779
 116.0105654 101.9058013  84.5826727 116.3430012 101.6014997  86.7419988
 115.7390519 102.4619710  87.0184176 117.3694371 101.9580043  86.6734513
 116.2460012 100.5444997  87.8579988 116.6914093  99.6303988  87.4696069
 115.1892602 100.3302361  88.0027971 116.8780012 100.8804997  89.1999988
 116.6092102 101.8836829  89.5257976 117.9654790 100.8601637  89.1433560
 116.3960012  99.8414997  90.2719988 115.3114230  99.7572713  90.2168006
 116.6206383 100.2287808  91.2640852 117.0450012  98.3924997  90.1139988
 118.1202603  98.4410054  90.2721315 116.9038369  98.0234964  89.0988701
 116.4250012  97.3874997  91.1129988 115.4350469  97.0815112  90.7818482
 116.2907496  97.8480612  92.0914100 117.3580012  96.1274997  91.2579988
 118.2802870  96.4120256  91.7599696 117.6498426  95.7570871  90.2768000
 116.7140012  95.0054997  92.0439988 117.3901158  94.1543045  92.0204465
 115.8211985  94.6995831  91.5017918 116.3240012  95.3264997  93.4829988
 115.7776762  96.2671637  93.4390424 117.2428916  95.5333778  94.0244005
 115.4830012  94.3284997  94.2879988 116.0371309  93.3963878  94.3261132
 114.5895739  94.1393678  93.6988393 115.0560012  94.7214997  95.7119988
 114.5293218  95.6673088  95.7022545 115.9237157  94.8132765  96.3544297
 116.2540012  94.5154997  96.7019988 117.3360012  93.9374997  96.5489988
 115.9610012  95.2364997  97.7769988 117.0470012  95.5794997  98.6089988
 117.7383046  94.7559351  98.5125471 116.7621644  95.6819027  99.6460974
 117.6600012  96.8234997  98.1039988 117.9820728  96.6482236  97.0908639
 118.8780012  97.1854997  98.9879988 119.3817514  98.0525206  98.5826453
 119.5635768  96.3474362  98.9731483 118.4340012  97.4434997 100.3249988
 118.7800012  98.7934997 101.0879988 117.7250012  98.8094997 102.1849988
 116.7520012  97.9194997 102.5689988 116.4073015  98.0372060 103.5880750
 117.0912486  96.8919112 102.4753504 115.5940012  98.0514997 101.5789988
 114.9042259  97.2493389 101.8092099 115.8992348  97.9614424 100.5464780
 114.7660012  99.3564997 101.6649988 115.7090012 100.5134997 101.3139988
 116.5986095 100.4307653 101.9231671 115.1992684 101.4386354 101.5384902
 115.9372433 100.4720634 100.2595294 113.7150012  99.2334997 100.5619988
 113.2319681  98.2728503 100.6544430 114.1951371  99.3418629  99.6059146
 112.9958676 100.0258906 100.7111982 114.1710012  99.4744997 103.0059988
 113.5498537  98.6119793 103.1965676 113.5698482 100.3702403 103.0497462
 114.9567352  99.5302574 103.7455581 120.1580012  98.6664997 101.7169988
 118.4780012  99.9064997 100.1709988 116.6980012  97.8674997  98.0679988
 117.0780012  98.9384997  97.3529988 118.0930012  99.1394997  96.6819988
 115.8690012  99.8494997  97.3019988 115.6987742 100.2513106  98.2955398
 116.0673618 100.7072949  96.6642312 114.6320012  99.0284997  96.7789988
 114.9217745  98.5509913  95.8494407 114.4339197  98.2243056  97.4804748
 113.3470012  99.8484997  96.5459988 113.2132767 100.4998942  97.4059156
 113.5438584 100.5011480  95.6990263 112.0700012  99.0764997  96.2749988
 111.8253763  98.4814003  97.1529062 111.2358404  99.7582118  96.1278716
 112.1640012  98.1104997  95.0309988 113.0736651  97.5138319  95.0509992
 111.3374515  97.4025565  95.0273733 112.1180012  98.9244997  93.7319988
 111.1284195  99.3337952  93.5347519 112.8050435  99.7660601  93.7238187
 112.5170012  97.9334997  92.5629988 113.4336178  97.3969652  92.7786944
 111.7482885  97.1775473  92.4081991 112.6520012  98.7674997  91.2779988
 112.9198967  99.8031274  91.4238106 112.4890012  98.3534997  90.0209988
 112.6196771  99.0519905  89.2069691 112.1300012  96.9534997  89.5799988
 112.1005697  96.3499495  90.4855826 111.1206528  96.9559247  89.1839041
 113.0530012  96.2814997  88.5949988 114.0884627  96.4344488  88.8968777
 112.8842294  95.2067337  88.6242096 112.8600012  96.7814997  87.1639988
 111.8294385  96.5729359  86.8766858 112.9615270  97.8632528  87.1665912
 113.8130012  96.1784997  86.1109988 113.6247031  95.1072683  86.0986627
 113.4975954  96.5540633  85.1391160 115.3530012  96.4514997  86.2979988
 115.5636679  97.4274686  85.8647619 115.5469326  96.5512256  87.3624565
 116.3540012  95.4124997  85.6619988 116.1343120  94.4113041  86.0283689
 116.2133361  95.3767024  84.5832190 117.7760012  95.7134997  85.9399988
 117.9295871  96.7777954  86.1000019 118.0656140  95.2295803  86.8701920
 118.6970012  95.2304997  84.8309988 119.7377195  95.3843305  85.0999045
 118.5207519  95.7573416  83.8992720 118.5575376  94.1698909  84.6417900
 128.0750012  69.6124997  79.6269988 128.0455155  69.1313899  78.6543257
 128.9668668  69.2659915  80.1410977 128.1838222  70.6812168  79.4638618
 126.8850012  69.3224997  80.3919988 126.7763349  68.2495361  80.5408069
 125.9994190  69.6469823  79.8523051 126.9540012  70.0164997  81.7579988
 127.3363568  71.0341566  81.6798482 127.6288173  69.4921878  82.4317133
 125.5290012  70.0484997  82.4079988 125.0801154  69.0697805  82.2535307
 124.9169108  70.7528428  81.8467927 125.4570012  70.3914997  83.9049988
 124.4531274  70.7748146  84.0689502 126.1310472  71.2375201  84.0285960
 125.7560012  69.3754997  84.9359988 126.7278429  68.9386925  84.7134227
 125.0315316  68.5693132  84.8422748 125.7520012  69.8994997  86.3959988
 124.7362874  70.2254472  86.6124559 126.3693284  70.7966529  86.4119090
 126.2160012  68.9544997  87.4839988 126.6754152  69.5440836  88.2763248
 127.0049249  68.3241941  87.0777991 125.1250012  68.0714997  88.0819988
 125.6379023  67.3759162  88.7427840 124.7399474  67.4764807  87.2547969
 123.9960012  68.6894997  88.8039988 123.5466424  67.9115050  89.4172687
 123.2471150  68.9633743  88.0613069 124.3130012  69.8814997  89.6429988
 123.3927018  70.3066190  90.0377944 124.7708779  70.6617363  89.0374347
 125.2260012  69.5524997  90.8089988 126.2600097  69.6026058  90.4765312
 125.0522877  68.5202224  91.1071553 125.0130012  70.4864997  92.0709988
 123.9537364  70.5940583  92.2982462 125.3938799  71.4916334  91.9131647
 125.7330012  69.8494997  93.3569988 126.6420225  69.3618260  93.0205471
 125.0754575  69.0677102  93.7278540 126.0670012  70.7934997  94.5129988
 125.1788407  71.3168957  94.8435568 126.8055494  71.5232494  94.2030298
 127.0430012  70.0574997  95.4179988 127.0340012  68.8724997  95.6049988
 127.9680012  70.9254997  95.7589988 129.2870012  70.3884997  96.0739988
 129.9934273  70.7086719  95.3230568 129.2524916  69.3087874  96.0889155
 129.7060012  70.9764997  97.5269988 130.7575476  70.8766252  97.7395291
 128.8680012  70.2154997  98.6129988 129.3558162  70.3588759  99.5676090
 128.9209048  69.1662789  98.3504687 127.5670012  70.6254997  98.6749988
 126.4710012  69.8234997  99.4069988 127.2770012  69.5854997 100.7689988
 127.4450012  70.6834997 101.6169988 126.4908818  70.9018303 102.0787098
 127.6807358  71.5318870 100.9810231 128.5500012  70.6414997 102.6479988
 128.2875989  71.4114545 103.3625361 129.5243055  70.8655028 102.2382054
 128.7230012  69.3524997 103.4669988 127.4330012  68.8434997 104.0729988
 126.9579441  69.6556092 104.6060400 127.6792750  68.0503279 104.7631638
 126.8044955  68.4562573 103.2851276 129.0930012  68.2444997 102.5479988
 129.9146693  68.5719891 101.9296734 128.2360278  67.9791886 101.9550597
 129.3991239  67.4071762 103.1583064 129.7890012  69.4644997 104.6099988
 130.7436923  69.7303100 104.1810561 129.8707028  68.5128431 105.1133125
 129.4817420  70.2217875 105.3167816 125.2330012  70.5864997  99.5659988
 126.3120012  68.5314997  98.8009988 129.3770012  72.3894997  97.5289988
 130.0920012  73.1594997  96.7059988 130.9550012  72.8094997  95.9279988
 129.5960012  74.6784997  96.9169988 128.8308057  74.6833022  97.6864180
 130.4088659  75.2891012  97.3021269 129.0580012  75.2474997  95.5449988
 128.7047077  76.2605685  95.7029108 129.8789740  75.3225922  94.8390259
 127.8630012  74.3634997  94.9059988 128.0750318  73.3070046  95.0492297
 126.9495853  74.5671110  95.4594235 127.6140012  74.6474997  93.4459988
 126.5933100  74.3179857  93.2607527 127.6091865  75.7290375  93.3343983
 128.5210012  74.0414997  92.3649988 128.7436649  72.9993584  92.5846884
 128.0091606  74.0459024  91.4045922 129.8230012  74.8174997  92.2259988
 129.6033076  75.8839983  92.2219383 130.4606615  74.6391246  93.0873289
 130.5810012  74.4654997  90.9899988 130.0643409  74.9814492  90.1891003
 131.5432494  74.9627722  91.1046477 130.8220012  73.0354997  90.6409988
 131.5210958  72.5083532  91.2726137 130.2410012  72.3214997  89.6149988
 130.5611514  71.2903172  89.5728490 129.2510012  72.6984997  88.5529988
 128.7583961  71.7582200  88.3112647 128.5031483  73.3176150  89.0357962
 129.6990012  73.3724997  87.2179988 128.7581694  73.7048018  86.7808308
 130.2068006  74.2708991  87.5636535 130.5360012  72.7074997  86.1609988
 130.6286098  73.3503897  85.2856571 131.5474010  72.5312541  86.5166837
 129.9230012  71.4194997  85.7579988 129.8275663  70.8679279  86.6906326
 128.9106556  71.6783676  85.4526648 130.5480012  70.5474997  84.7089988
 129.8464627  69.7860588  84.3733777 130.8146326  71.1166769  83.8226749
 131.8560012  69.7944997  85.2989988 132.3961152  70.4432293  85.9862467
 131.5643550  68.9191452  85.8765203 132.8370012  69.3394997  84.1709988
 132.2547132  68.8374397  83.4023692 133.2087513  70.2526954  83.7114463
 134.0170012  68.4734997  84.5549988 134.6638910  68.3022662  83.6998487
 133.7042682  67.5030850  84.9254504 134.6124719  68.9465494  85.3307433
  69.1190012  20.5674997  82.1389988  68.7943149  21.2176494  81.3325788
  69.8830957  21.0950216  82.7026210  68.2708877  20.4124375  82.8002636
  69.6430012  19.2484997  81.6059988  70.4711119  19.4431110  80.9266152
  68.8648127  18.7774700  81.0115513  70.1100012  18.2984997  82.7079988
  69.5265290  18.3524997  83.6270054  71.1472387  18.4492375  83.0005520
  69.9650012  16.8014997  82.0639988  70.3831740  16.8134680  81.0598881
  68.9100909  16.5575929  81.9483273  70.6490012  15.7074997  82.8609988
  71.6985496  15.9506425  83.0055761  70.6259268  14.7799542  82.2913569
  70.0120012  15.4804997  84.2039988  69.1140761  14.8746488  84.0967965
  69.6907558  16.4270764  84.6333831  70.9530012  14.8054997  85.1479988
  71.8772634  15.3774976  85.0903136  71.1660114  13.8369452  84.6977113
  70.5820012  14.6114997  86.5819988  70.9889416  13.6643634  86.9338274
  69.5001109  14.5275745  86.6665804  71.0710012  15.7364997  87.4879988
  70.9567384  16.7062549  87.0083532  72.1321719  15.6308872  87.7101242
  70.2280012  15.7204997  88.8779988  70.4596760  14.8261130  89.4521923
  69.1573963  15.6859467  88.6778981  70.5350012  16.9294997  89.6769988
  70.1066260  17.8062419  89.1960010  71.6096261  17.0996907  89.7136623
  69.9780012  16.8454997  91.1299988  70.8109831  16.6645249  91.8049863
  69.3390230  15.9666549  91.1933134  69.1540012  18.1034997  91.6089988
  68.1792300  18.0624723  91.1258943  69.6374073  19.0048244  91.2426570
  68.9320012  18.2334997  93.0909988  68.4561329  17.3252839  93.4460177
  68.2197802  19.0407065  93.2401644  70.1790012  18.5174997  93.9439988
  70.6894992  19.4025233  93.5859960  70.8644599  17.6794179  93.9011699
  69.7670012  18.8784997  95.3559988  68.8480012  18.4314997  95.9939988
  70.8070012  19.5734997  95.8309988  70.7960012  20.0094997  97.2019988
  69.7780800  19.9149514  97.5489269  71.0818276  21.0511054  97.2255102
  71.7280012  19.1684997  98.0649988  71.2376144  18.2903839  98.4514280
  72.2970012  20.0004997  99.2229988  71.5398489  20.1157611  99.9866978
  72.5449960  20.9785414  98.8299111  73.4400012  19.3824997  99.7539988
  73.6250012  18.5124997 101.0309988  72.3590012  17.5514997 100.8679988
  72.3980012  16.2254997 101.4729988  73.3519616  16.0781562 101.9623232
  72.3477727  15.4957981 100.6699983  71.1870012  15.8564997 102.4519988
  71.3528667  16.4262939 103.3575771  71.1727689  14.8052002 102.7008839
  69.7810012  16.1964997 102.0029988  69.5970012  15.6114997 100.6199988
  70.4223425  15.9296478  99.9979638  68.6702760  15.9927080 100.2175554
  69.5427739  14.5360560 100.6987221  68.7850012  15.4984997 102.9549988
  69.0705581  15.7197023 103.9719750  68.7993676  14.4403859 102.7637948
  67.8042752  15.9023606 102.7491592  69.5250012  17.7094997 102.0159988
  69.6887322  18.0892869 103.0135136  68.5043140  17.8990989 101.7195198
  70.1982471  18.1951500 101.3243929  74.8690012  17.7254997 100.7979988
  73.4940012  19.4374997 102.2109988  72.7800012  18.7424997  97.1869988
  73.2260012  17.5144997  97.1029988  72.8310012  16.5914997  97.8279988
  74.4030012  17.4054997  96.0419988  75.2045456  16.8543424  96.5229408
  74.0675363  16.7827920  95.2164048  74.8740012  18.7914997  95.5389988
  74.0070500  19.3715179  95.2422910  75.3357189  19.3380363  96.3551773
  75.8370012  18.7024997  94.3679988  76.7166080  18.1619162  94.7081683
  75.3616024  18.0695465  93.6227261  76.2440012  19.9844997  93.7149988
  76.2578223  20.7784284  94.4594396  77.2560219  19.9176536  93.3231472
  75.3040012  20.4014997  92.5849988  74.2735673  20.3599082  92.9319529
  75.4973331  21.4426946  92.3341662  75.4430012  19.5804997  91.3499988
  76.4846119  19.5754241  91.0326311  75.1773345  18.5455428  91.5464766
  74.5340012  20.1224997  90.1619988  74.7676303  21.1740858  90.0429862
  74.8821121  19.6266191  89.2568649  73.0720012  19.9104997  90.2859988
  72.7874476  19.3331602  91.1527528  72.1230012  20.3254997  89.5199988
  71.1237459  20.0369136  89.8129441  72.1790012  21.1654997  88.2629988
  71.1511412  21.4779527  88.0866525  72.7354690  22.0675590  88.4917202
  72.7110012  20.5584997  86.9929988  72.6036321  21.2959896  86.1984640
  73.7809069  20.4114316  87.1276524  72.0630012  19.2174997  86.5469988
  72.0250755  18.5861164  87.4347058  71.0314252  19.4391497  86.2877183
  72.7230012  18.4374997  85.3989988  72.0595257  17.6208187  85.1233584
  72.7828183  19.0880344  84.5281880  74.0770012  17.9084997  85.7089988
  74.6846943  18.7217305  86.1013693  74.0011683  17.1805371  86.5120833
  74.8210012  17.2974997  84.5149988  74.0325946  17.1140301  83.7872371
  75.4038524  18.1300110  84.1250713  75.7360012  16.0424997  84.5789988
  76.3626393  16.0455837  83.6906125  76.4091373  16.2120168  85.4165337
  75.0930012  14.6764997  84.7389988  75.8490267  13.9060578  84.8569557
  74.4884389  14.4096286  83.8787516  74.4513333  14.6471661  85.6150940
 107.5670012  29.5844997  83.7489988 106.7086114  29.0074004  83.4195258
 108.4618319  29.0680783  83.4137720 107.5329746  30.5454960  83.2430933
 107.5670012  29.7584997  85.2349988 107.5820286  28.7860153  85.7241320
 106.6462481  30.2433340  85.5479900 108.8280012  30.6094997  85.7199988
 108.7718983  31.5760147  85.2193690 109.7078752  30.1121270  85.3167456
 109.0300012  30.8194997  87.1519988 108.8985835  29.8531160  87.6337476
 108.2161123  31.4480203  87.5101226 110.3720012  31.4164997  87.6059988
 110.4838422  32.4466540  87.2775988 111.2056709  30.8657452  87.1735301
 110.4740012  31.3684997  89.1429988 111.5298937  31.3733801  89.4073546
 110.0820355  30.4091267  89.4739723 109.7280012  32.5414997  89.9289988
 108.6998559  32.6947119  89.6061779 110.2225547  33.5076334  89.8382661
 109.7370012  32.1094997  91.3819988 109.3913163  31.0771690  91.4173031
 108.9855740  32.6996026  91.9033621 111.0650012  32.2204997  92.1219988
 111.2089658  33.2670007  92.3820963 111.8563148  31.9715705  91.4160002
 111.2210012  31.3544997  93.3859988 112.2734969  31.2814598  93.6509836
 110.8863645  30.3377459  93.1818930 110.4260012  31.9174997  94.5579988
 110.5059308  31.1798721  95.3536480 109.3816963  31.9183578  94.2505013
 110.7750012  33.2564997  95.1209988 110.5689426  34.0212815  94.3761044
 111.8476599  33.2901710  95.3024912 110.0060012  33.6024997  96.5019988
 110.3213171  34.5896745  96.8356357 110.3079556  32.9074444  97.2804560
 108.5030012  33.6044997  96.4009988 108.1953967  32.5706460  96.2832234
 108.2708954  34.1099831  95.4673471 107.6900012  34.2434997  97.5109988
 108.0035042  35.2676089  97.6689768 107.8172877  33.6942007  98.4362759
 106.2110012  33.8874997  97.3979988 105.4060012  34.3064997  96.5849988
 105.9660012  32.9174997  98.2209988 104.5710012  32.7094997  98.4089988
 104.1312911  32.5215643  97.4411159 104.0783677  33.5575826  98.8620547
 104.4470012  31.4244997  99.3269988 103.4148930  31.1176251  99.2885968
 104.8770012  31.6604997 100.8139988 104.2544276  31.0303980 101.4346235
 104.6418094  32.6962348 101.0250027 106.2470012  31.4044997 101.0649988
 107.1620012  32.2964997 101.9759988 108.4620012  31.4324997 102.1009988
 108.3910012  29.9784997 102.2109988 107.3614303  29.6459133 102.1873499
 108.7860758  29.6887823 103.1804196 109.2400012  29.2154997 101.1859988
 108.6785131  29.1997904 100.2603998 109.3618396  28.2004365 101.5355401
 110.5520012  29.6714997 100.8379988 110.4780012  31.0094997 100.1079988
 109.7696489  30.9209148  99.2957650 111.4588929  31.2281838  99.7128675
 110.1911154  31.7769793 100.8111265 111.3140012  29.9044997 102.1149988
 111.2148759  29.0287855 102.7379055 110.9233102  30.7799192 102.6022064
 112.3504386  30.0553680 101.8497949 111.2700012  28.7044997  99.9279988
 111.3405955  27.7433723 100.4151667 112.2612496  29.0799391  99.7227629
 110.7220572  28.6060787  99.0019827 107.4580012  33.6474997 101.4039988
 106.5080012  32.4244997 103.2479988 105.2640012  30.3824997  98.7609988
 105.1210012  29.2364997  99.3399988 104.4030012  28.9024997 100.2679988
 105.9870012  28.1444997  98.7289988 106.9119363  28.1719783  99.2958258
 105.5159521  27.1958834  98.9742474 106.2380012  28.2654997  97.2019988
 106.3626422  27.2731105  96.7828455 105.3634260  28.6881456  96.7177244
 107.4420012  29.0864997  96.8799988 107.4926799  29.9720675  97.5083739
 108.3453271  28.5172494  97.0849899 107.4440012  29.4914997  95.3979988
 108.3970814  29.9421415  95.1273220 107.3129545  28.6378523  94.7374574
 106.3290012  30.5124997  95.1169988 105.3862234  29.9697231  95.0954443
 106.2803769  31.1697169  95.9830716 106.4500012  31.3814997  93.8429988
 105.4736127  31.8123423  93.6268018 107.1179548  32.2166106  94.0346906
 106.9760012  30.5904997  92.5549988 107.2249751  31.2918336  91.7671392
 107.8995274  30.0703153  92.8057046 105.9780012  29.5894997  92.0869988
 105.6522747  28.8392809  92.7917172 105.4350012  29.5504997  90.8539988
 104.7317476  28.7473185  90.6868330 105.6410012  30.4504997  89.6539988
 105.9686908  31.4068613  90.0579949 106.4723192  30.0649719  89.0743784
 104.4430012  30.7064997  88.7219988 104.0270808  29.7453127  88.4222742
 103.6686215  31.2042026  89.3025907 104.7470012  31.5274997  87.4949988
 105.7658047  31.2741790  87.2017839 104.1021259  31.1577546  86.7025794
 104.6100012  33.0954997  87.5949988 103.6036013  33.3743235  87.8992380
 105.2798802  33.5017414  88.3508524 104.9300012  33.7074997  86.2759988
 104.3492188  33.2175453  85.4967514 104.6266376  34.7507443  86.2606300
 106.4380012  33.5844997  85.8989988 106.9960799  33.5431091  86.8326572
 106.5659206  32.6117523  85.4275826 107.0390012  34.5894997  85.0479988
 106.6919684  35.5630241  85.3852426 108.1047225  34.5639114  85.2645542
 106.8450012  34.4764997  83.5569988 107.4170049  35.2377517  83.0351022
 105.8053184  34.5993265  83.2728960 107.1743103  33.5074853  83.1927081
  14.3410012 101.5494997  79.7239988  14.1322222 102.2943887  78.9624342
  15.0500568 100.8397798  79.3076723  14.8288603 102.0532402  80.5539692
  13.0600012 100.8484997  80.1819988  12.5751749 100.3652252  79.3354811
  12.3534541 101.5823959  80.5601542  13.3620012  99.7814997  81.2769988
  13.9022776 100.2350045  82.1078800  14.0218817  99.0181345  80.8695650
  12.0630012  99.0784997  81.8239988  12.3217611  98.2200915  82.4399766
  11.4454520  98.6931954  81.0141348  11.2530012 100.0414997  82.6549988
  10.3797149  99.5141195  83.0302511  10.8789883 100.8134801  81.9845320
  12.0040012 100.7264997  83.8749988  11.3446572 101.4164373  84.3985143
  12.8493439 101.3172947  83.5286842  12.4920012  99.6794997  84.8369988
  13.1280301 100.1520120  85.5833025  13.1245675  98.9727717  84.3016246
  11.4000012  98.9394997  85.5209988  10.8135570  98.5211607  84.7039757
  10.7877393  99.7223717  85.9647677  11.6640012  97.8354997  86.5789988
  12.0739718  96.9711917  86.0608898  10.7005468  97.5211409  86.9783874
  12.5980012  98.2224997  87.7469988  12.3664213  99.2304365  88.0842420
  13.6324126  98.2451537  87.4050795  12.4750012  97.2364997  88.9159988
  12.7767142  96.2442621  88.5874033  11.4355279  97.1486669  89.2273005
  13.3310012  97.6254997  90.1209988  14.3509893  97.7825170  89.7786704
  13.3650272  96.7728635  90.7966643  12.8250012  98.8934997  90.9299988
  11.8056267  98.6975773  91.2582397  12.7707044  99.7495700  90.2633133
  13.6650012  99.2764997  92.1789988  13.3508801 100.2347498  92.5795354
  14.7104946  99.3794324  91.9007176  13.5560012  98.2234997  93.2629988
  13.8331956  97.2511564  92.8760198  12.5408556  98.1718924  93.6383454
  14.0790012  98.7764997  94.6199988  14.1850012  99.9764997  94.8369988
  14.2070012  97.8414997  95.5549988  14.4630012  98.4744997  96.8369988
  13.6254749  99.1428379  96.9686640  15.3790029  99.0467248  96.8632894
  14.4580012  97.3654997  97.9569988  13.4931054  96.8973216  98.0603405
  14.8390012  98.0884997  99.2799988  14.0935378  98.8421175  99.4948140
  15.7897790  98.5788813  99.1122718  14.9420012  97.1494997 100.3789988
  13.9290012  96.9864997 101.5819988  12.5450012  97.0744997 100.7639988
  11.3730012  96.5624997 101.5049988  11.6046252  96.4663783 102.5577570
  11.1532238  95.5614339 101.1453292  10.0700012  97.3634997 101.2949988
   9.3026538  97.0904579 102.0083537   9.6952910  97.1866575 100.2971530
  10.2420012  98.9574997 101.4259988  10.9560012  99.2064997 102.6609988
  10.4570000  98.6770935 103.4610369  10.9271558 100.2685370 102.8542461
  11.9806949  98.8870962 102.5439471  10.9920012  99.4384997 100.2799988
  10.5400958  99.0420378  99.3837212  12.0166782  99.1264154 100.3749219
  10.9279572 100.5170139 100.2815653   8.9080012  99.6234997 101.5299988
   8.3202105  99.3804290 100.6573587   9.0486211 100.6925208 101.5854056
   8.4013877  99.2791443 102.4200534  14.0160012  95.6794997 102.3199988
  14.0570012  98.2354997 102.4389988  15.3550012  96.3074997  97.5319988
  15.1760012  95.0954997  98.0119988  14.3750012  94.7514997  98.8589988
  16.1670012  94.1784997  97.2199988  16.7789293  94.8212649  96.5955392
  16.8519432  93.7001495  97.9156586  15.3740012  93.0994997  96.3649988
  16.0649021  92.4433086  95.8471859  14.7716063  92.4590408  97.0013680
  14.4430012  93.8284997  95.2929988  13.7509695  94.5057812  95.7869986
  15.0573653  94.4449771  94.6414028  13.6960012  92.8584997  94.4589988
  14.4249309  92.1790048  94.0212155  13.0645095  92.2523444  95.1039763
  12.8460012  93.4324997  93.3399988  12.2429060  92.6290854  92.9220241
  12.1459593  94.1352459  93.7877377  13.6210012  94.1644997  92.1769988
  12.8707761  94.6237432  91.5351587  14.1922373  94.9795355  92.6125718
  14.5910012  93.2814997  91.2969988  15.3837483  92.9031054  91.9317819
  14.0336030  92.4119988  90.9511352  15.1470012  93.9954997  90.1089988
  16.0849034  94.5101853  90.2538854  14.5910012  94.0494997  88.8539988
  15.1542334  94.6401387  88.1458145  13.3880012  93.4554997  88.3039988
  13.1081126  92.6484041  88.9788914  12.5807119  94.1782536  88.3438961
  13.4880012  92.8834997  86.8899988  14.3089880  92.1680576  86.8612196
  12.5820827  92.3135817  86.6926050  13.6750012  93.9044997  85.8049988
  13.1594709  94.8069532  86.1335002  14.7326375  94.1518222  85.7777798
  13.1970012  93.5344997  84.3849988  13.9247776  92.8878084  83.8999453
  12.2674176  92.9694429  84.4258691  12.9870012  94.7714997  83.5669988
  12.2696238  95.4365436  84.0441532  13.9021911  95.3478543  83.4627505
  12.4330012  94.3974997  82.1679988  13.2044780  93.9091425  81.5753658
  11.6254082  93.6744104  82.2668400  11.9230012  95.5754997  81.4049988
  11.2148637  96.0870518  82.0521238  12.7777557  96.2424216  81.3159887
  11.3080012  95.3874997  80.0339988  11.0709975  96.3464461  79.5830886
  10.3890817  94.8126372  80.0771402  11.9909627  94.8683539  79.3675214
 124.5670012  48.6354997  85.1959988 124.8489977  48.8268081  84.1653155
 125.1292406  47.7715319  85.5383971 124.8829094  49.4894409  85.7889561
 123.0600012  48.4024997  85.3259988 122.8192429  47.5711005  84.6656853
 122.5824051  49.2799615  84.8984747 122.5110012  48.1294997  86.6709988
 121.4241543  48.0738253  86.6110545 122.7340014  48.9779308  87.3148982
 123.0570012  46.8324997  87.3529988 124.1415567  46.8787816  87.2833770
 122.7510266  45.9891908  86.7358151 122.6560012  46.5504997  88.8669988
 121.6560725  46.9328965  89.0553823 123.3254497  47.1129959  89.5156910
 122.7040012  45.0184997  89.2689988 123.7420331  44.6934221  89.2286098
 122.1782164  44.4532173  88.5024590 122.1310012  44.6804997  90.6129988
 121.8327773  43.6338477  90.6317636 121.2232385  45.2585508  90.7804917
 123.1050012  44.9424997  91.7409988 123.4559424  45.9734781  91.7216405
 123.9912745  44.3179487  91.6453976 122.4330012  44.6624997  93.0899988
 122.4623628  43.5921995  93.2827067 121.3792252  44.9297729  93.0214555
 123.0870012  45.4304997  94.3039988 122.6121807  45.1483040  95.2411274
 122.9509914  46.5071274  94.2049883 124.5660012  45.1194997  94.3589988
 125.0958133  45.6906308  93.5996245 124.7500638  44.0708907  94.1316924
 125.1800012  45.4584997  95.7419988 124.5188382  45.0886958  96.5219524
 125.2054011  46.5409471  95.8530499 126.6080012  44.9074997  95.9499988
 127.1564519  44.9719095  95.0117530 126.5792199  43.8540188  96.2138618
 127.3960012  45.6604997  97.0049988 127.8014569  46.5683256  96.5704844
 128.2434098  45.0461658  97.2975472 126.5750012  46.0264997  98.2939988
 126.1325975  45.1380821  98.7264734 125.7839451  46.7261805  98.0516228
 127.5550012  46.5094997  99.4039988 128.7800012  46.3374997  99.3979988
 126.8820012  47.1164997 100.3629988 127.6930012  47.7494997 101.3349988
 128.7248270  47.5148418 101.1211458 127.4293252  47.3371426 102.2981336
 127.4780012  49.2614997 101.3099988 128.2147049  49.7659766 101.9130449
 126.0380012  49.5574997 101.8669988 125.9511723  50.6082753 102.1081051
 125.9102821  48.9814898 102.7750106 125.0520012  49.1824997 100.8939988
 123.5600012  49.4084997 101.3209988 123.0150012  48.0084997 101.6639988
 122.6920012  47.0354997 100.5879988 122.6441792  47.4886833  99.6064048
 121.7202597  46.5842548 100.7665867 123.6900012  45.8654997 100.6079988
 124.6545824  46.3570294 100.5928148 123.5926566  45.2640079  99.7157495
 123.7450012  44.8624997 101.7949988 124.6970012  43.7324997 101.5009988
 124.4486360  43.3142578 100.5352232 124.5691684  42.9814589 102.2663069
 125.7081963  44.1098938 101.5288388 124.4260012  45.5894997 103.0059988
 123.9408255  46.5426319 103.1504201 125.4744369  45.7092645 102.7990958
 124.2856550  44.9663076 103.8773377 122.3770012  44.3364997 102.1249988
 121.7275555  45.1636909 102.3700639 122.4480693  43.6692197 102.9707746
 121.9817778  43.8004980 101.2741546 123.4010012  50.2524997 102.5029988
 122.7370012  49.8784997 100.1779988 127.5500012  49.7574997  99.9559988
 127.4740012  51.0634997  99.7739988 127.6540012  51.9464997 100.6339988
 127.2730012  51.4244997  98.2959988 127.1438862  52.4928451  98.1562838
 128.1068760  51.1398979  97.6591615 126.0090012  50.6424997  97.9309988
 126.1793969  49.5984331  98.1696435 125.1993456  50.9694315  98.5756743
 125.5890012  50.7574997  96.4779988 124.5051269  50.6808386  96.4464777
 125.8303799  51.7709809  96.1671015 126.1960012  49.8064997  95.5079988
 127.2733199  49.9435402  95.5808697 125.9933645  48.7981391  95.8606309
 125.8070012  49.9014997  94.0709988 126.2976268  50.7623008  93.6213223
 126.1927155  49.0269704  93.5506103 124.3440012  49.9884997  93.8329988
 123.8265963  49.5433879  94.6814496 124.0383936  51.0305279  93.7998468
 123.8690012  49.2784997  92.4989988 124.5806864  48.5287725  92.1734328
 122.9253310  48.7578138  92.6562210 123.6660012  50.3384997  91.4339988
 122.9533072  51.1028422  91.7049264 124.2370012  50.4464997  90.2699988
 124.0291776  51.2360145  89.5621248 125.2800012  49.4444997  89.7939988
 125.1071634  48.4872618  90.2829199 125.2184322  49.2563297  88.7279395
 126.6830012  49.9104997  90.1439988 126.8661322  50.9122581  89.7571550
 126.7975250  49.9769722  91.2242416 127.7690012  48.9144997  89.5659988
 127.7619360  49.0315248  88.4823188 128.7413886  49.2631702  89.9027413
 127.6090012  47.4194997  89.9169988 127.4272670  47.2745278  90.9795903
 126.7662819  46.9645718  89.3993600 128.9220012  46.6924997  89.4979988
 129.7289969  47.0299372  90.1456744 128.8185418  45.6268824  89.6834197
 129.3530012  46.9344997  88.0389988 128.5000379  46.7663109  87.3839803
 129.6225289  47.9824184  87.9204441 130.5300012  46.0674997  87.5439988
 131.3122438  46.0931523  88.2985539 130.1666678  45.0422771  87.5291496
 131.1330012  46.3964997  86.1719988 131.8893999  45.6670373  85.8984763
 131.6042448  47.3734972  86.1599089 130.3705160  46.3883725  85.3982473
  72.0700012 125.4284997  79.4809988  72.1893393 125.3343684  78.4061375
  72.7002800 126.2481274  79.8137885  71.0380248 125.7072798  79.6757252
  72.4310012 124.1304997  80.1939988  73.4635049 123.8420809  80.0043844
  71.8151385 123.3040869  79.8496601  72.2350012 124.3424997  81.7019988
  71.1970420 124.5660028  81.9482021  72.8177778 125.1905867  82.0559631
  72.6700012 123.1184997  82.4549988  73.7494041 122.9989049  82.3930596
  72.2413795 122.2154811  82.0230880  72.2750012 123.2124997  83.9189988
  71.1957658 123.3170198  83.9958078  72.7006143 124.1242720  84.3347987
  72.7220012 122.0084997  84.7709988  72.4693142 121.1159368  84.2015271
  72.0835688 121.9981617  85.6518360  74.1450012 121.9334997  85.1959988
  74.7316394 122.5706571  84.5367143  74.4974076 120.9165572  85.0290627
  74.4110012 122.3254997  86.6389988  74.1531381 123.3786033  86.7435473
  75.4847558 122.2577372  86.8037505  73.6720012 121.5054997  87.7339988
  73.9026639 120.4470693  87.6336951  72.5934289 121.5941878  87.6099291
  74.0490012 121.9654997  89.0999988  73.8506259 123.0343379  89.1391290
  75.1289007 121.8519414  89.1913801  73.3560012 121.2504997  90.2979988
  73.9975113 120.3875012  90.4630425  72.4384211 120.8650127  89.8568926
  73.0270012 121.9014997  91.6999988  73.9178053 122.4456093  92.0043533
  72.9208407 121.0757637  92.4011122  71.7720012 122.8184997  91.8169988
  70.8735841 122.2549638  91.5709781  71.8133134 123.6467605  91.1151788
  71.6070012 123.3764997  93.2439988  72.5165419 123.8839532  93.5482545
  71.4672905 122.5440360  93.9285257  70.4020012 124.3504997  93.3959988
  69.4868307 123.8754992  93.0660311  70.5624178 125.2444640  92.8050984
  70.5360012 125.1704997  94.7209988  70.4730012 126.3964997  94.7139988
  70.7020012 124.3674997  95.7569988  70.7290012 124.9984997  97.0649988
  69.6913561 125.1127190  97.3401508  71.1673512 125.9761880  96.9265548
  71.4870012 124.2004997  98.1519988  71.1682586 123.1714833  98.1314450
  71.1760012 124.8324997  99.5719988  71.3873556 124.1022545 100.3413311
  70.1192980 125.0676584  99.5977645  71.9640012 126.0284997  99.7789988
  71.7310012 126.7964997 101.1399988  73.0910012 126.5694997 101.8919988
  74.2770012 126.3954997 101.2459988  75.1181154 126.7507528 101.8269558
  74.2787315 126.9653300 100.3212894  74.4820012 124.9164997 100.8139988
  75.2716533 124.8280285 100.0785592  73.5389380 124.6843135 100.3406083
  74.7310012 123.7924997 101.8319988  73.4470012 123.6704997 102.7379988
  73.1985167 124.6516960 103.1185815  73.6806132 123.0101062 103.5598296
  72.6434072 123.2499624 102.1522496  75.0860012 122.4834997 101.1789988
  75.8755433 122.6598384 100.4646867  74.2098403 122.0787361 100.7047852
  75.4315415 121.8177900 101.9566424  75.8460012 124.1474997 102.8719988
  76.7661233 124.3599903 102.3482574  75.9925550 123.3083017 103.5352625
  75.5428585 125.0120530 103.4447876  71.6470012 128.2524997 100.8099988
  70.6000012 126.2194997 101.8779988  72.8700012 124.2524997  97.9219988
  73.4390012 123.4524997  97.0459988  72.8940012 122.5604997  96.4659988
  74.8650012 124.0134997  96.7769988  74.7822876 125.0932542  96.7074170
  75.4977791 123.8186362  97.6392790  75.4350012 123.4284997  95.5619988
  75.3760776 122.3458282  95.5822858  74.9010870 123.7414508  94.6703541
  76.9000012 123.8474997  95.4629988  76.9604082 124.9321327  95.4232974
  77.4009246 123.5493875  96.3807514  77.6280012 123.2544997  94.3119988
  78.6991357 123.3923735  94.4475260  77.4649242 122.1811846  94.2519773
  77.2250012 123.8914997  92.9779988  76.1959707 123.6366865  92.7329117
  77.2548403 124.9754554  93.0703596  78.1770012 123.4564997  91.7779988
  79.2091990 123.6781488  92.0447199  78.1233465 122.3819562  91.6270167
  77.8390012 124.1444997  90.4769988  78.2931407 123.5862294  89.6666460
  76.7618013 124.0742765  90.3318947  78.2520012 125.6474997  90.4249988
  79.1985964 125.8449113  90.9051446  77.6200012 126.6884997  89.8739988
  78.0435746 127.6825768  89.8764775  76.2900012 126.5954997  89.2039988
  76.0747299 125.5548879  88.9673419  75.4774001 126.9376309  89.8351142
  76.2900012 127.3634997  87.9469988  76.2941082 128.4297248  88.1702747
  77.2150158 127.1625973  87.4099279  75.1130012 127.0394997  87.0499988
  75.2899600 127.4823861  86.0698742  75.0691195 125.9651007  86.8942900
  73.7110012 127.5524997  87.6129988  73.5955918 127.1890035  88.6316725
  73.7313919 128.6389744  87.6781292  72.5230012 127.1244997  86.7729988
  72.6880608 126.0800022  86.5153745  71.6539830 127.1355349  87.4251572
  72.2130012 127.8974997  85.4599988  71.8217797 128.8811219  85.7136051
  73.1464773 128.0719791  84.9280090  71.2520012 127.2294997  84.5259988
  71.3355329 126.1460941  84.5602024  70.2308090 127.4571171  84.8237737
  71.4600012 127.7024997  83.1159988  70.7068687 127.2851801  82.4544061
  72.4303929 127.4101454  82.7292044  71.3922659 128.7849109  83.0532385
  93.5150012  22.0854997  79.6719988  93.1484539  21.9004149  78.6671029
  94.2033742  21.2847061  79.9262862  94.0818640  23.0122455  79.6514906
  92.3360012  22.1684997  80.7019988  91.7886674  21.2302369  80.6292547
  91.6649080  22.9422242  80.3389583  92.6970012  22.4294997  82.1709988
  93.1090174  23.4281961  82.3151414  93.4621835  21.7357444  82.5135928
  91.4200012  22.2564997  83.0829988  90.9375853  21.3224479  82.8035848
  90.7114919  23.0465147  82.8388741  91.6700012  22.2464997  84.6079988
  90.7573679  21.9962801  85.1428480  91.9550537  23.2434752  84.9398871
  92.7510012  21.2634997  84.9969988  93.6098947  21.4490370  84.3545855
  92.3941783  20.2665420  84.7473391  93.2050012  21.2874997  86.4779988
  93.6688873  22.2476735  86.6962778  93.9776130  20.5349175  86.6293958
  92.0920012  21.0494997  87.4389988  91.6945627  20.0420511  87.3226328
  91.2635559  21.7275773  87.2425982  92.5840012  21.2464997  88.9259988
  93.1385586  22.1824502  88.9278957  93.3168416  20.4591286  89.0979547
  91.5350012  21.2544997  90.1169988  90.7443589  20.5522272  89.8620533
  91.0704481  22.2397817  90.1459613  92.1240012  20.9124997  91.5529988
  91.2734915  20.8171145  92.2246207  92.6797454  21.7853571  91.8912240
  92.9570012  19.7274997  91.6969988  93.8582612  19.8231399  91.0963306
  92.4287259  18.8555987  91.3157063  93.3220012  19.4764997  93.1529988
  92.4020752  19.3568871  93.7228067  93.8236986  20.3477958  93.5646014
  94.1860012  18.2464997  93.3929988  95.0218791  18.3433121  92.7079583
  93.5812307  17.4171124  93.0359814  94.7220012  17.8944997  94.8049988
  93.9064288  17.8255799  95.5136121  95.4154124  18.6542201  95.1456963
  95.9210012  18.7384997  95.0489988  96.9610012  18.8254997  94.4049988
  95.6810012  19.4964997  96.2629988  96.6180012  20.4574997  96.7019988
  97.0491965  20.8702907  95.8024788  97.3750870  19.8979290  97.2319927
  96.0380012  21.5964997  97.5949988  96.7967731  22.2179355  98.0410668
  95.1650012  20.9264997  98.7209988  95.6596680  20.0170361  99.0340190
  94.2202981  20.6665778  98.2599546  94.9570012  21.7714997  99.8149988
  93.7510012  22.7414997  99.6659988  93.0190012  22.8164997 101.0949988
  93.8680012  22.9654997 102.2359988  93.3319818  23.4571338 103.0373527
  94.6865617  23.6251622 101.9628670  94.5340012  21.6834997 102.7279988
  95.0020478  22.0257847 103.6423413  95.2961366  21.2774744 102.0786375
  93.6950012  20.5594997 103.1099988  92.7370012  21.1024997 104.1349988
  93.3035377  21.6192332 104.8974663  92.2116678  20.2679907 104.5751346
  92.0319585  21.7564063 103.6440426  92.8690012  20.0814997 101.9039988
  93.5341613  19.9463175 101.0649506  92.1077558  20.8099491 101.6889713
  92.4177473  19.1380016 102.1750678  94.5640012  19.3814997 103.4989988
  95.2000248  19.1186852 102.6668422  93.9325284  18.5427961 103.7509283
  95.1699910  19.6469055 104.3532651  94.2680012  24.0944997  99.2779988
  92.8160012  22.1274997  98.7159988  95.1990012  22.4384997  96.7379988
  95.7480012  23.4204997  96.1189988  96.8980012  23.7794997  96.2449988
  94.6610012  24.2424997  95.4219988  93.9026241  24.3889850  96.1842056
  95.0911995  25.2238170  95.2380080  94.0840012  23.6564997  94.1569988
  94.0560185  22.5784983  94.2718508  93.0504175  23.9758521  94.0689549
  94.8470012  24.0044997  92.8749988  94.2801068  23.6288617  92.0269535
  94.8486271  25.0877960  92.7826334  96.2920012  23.5064997  92.8019988
  96.8281183  24.1443121  92.1016562  96.7710231  23.6459930  93.7680638
  96.4870012  21.9574997  92.3369988  97.5105933  21.6168789  92.4789061
  95.8615205  21.2918852  92.9287017  96.1040012  21.8094997  90.8699988
  96.0869733  20.7442979  90.6447073  95.0858478  22.1662564  90.7419115
  97.0770012  22.5834997  89.7789988  96.5898167  22.6385629  88.8124589
  97.2399148  23.6116846  90.0993748  98.4330012  21.8834997  89.6739988
  99.0249204  21.7313343  90.5639602  98.9460012  21.4164997  88.4989988
  99.9242065  20.9616260  88.5607587  98.3500012  21.4284997  87.0859988
  97.5134763  22.1241702  87.1245953  99.0758954  21.8639466  86.4083967
  97.8480012  20.1114997  86.5109988  98.4300480  19.2709914  86.8871268
  96.8196836  19.9295362  86.8174483  97.9210012  20.1394997  84.9609988
  97.3130072  20.9648487  84.5905271  98.9401862  20.3487528  84.6479829
  97.4270012  18.7794997  84.2879988  98.0976048  17.9731307  84.5764512
  96.4454511  18.5122609  84.6755913  97.3560012  18.8804997  82.7509988
  96.5970436  19.5949146  82.4376542  98.2896400  19.2310858  82.3196835
  96.9850012  17.5044997  82.1599988  97.2623039  17.4410029  81.1093064
  97.5262752  16.7057056  82.6637691  95.4450012  17.2204997  82.2879988
  95.1619387  16.3334030  81.7268837  95.2122538  16.9999372  83.3274668
  94.6130012  18.3724997  81.8459988  93.5600411  18.1799031  82.0283466
  94.7280027  18.5727219  80.7860805  94.8817338  19.2773439  82.3837540
 101.6820012  26.2524997  79.7979988 102.5003982  26.3874713  79.0976861
 101.3176723  27.2373826  80.0755956 100.8795269  25.7407840  79.2737906
 102.1220012  25.4714997  81.0109988 102.9516161  26.0103141  81.4655546
 102.5284635  24.5281466  80.6564747 101.0300012  25.2124997  82.0869988
 100.0602639  25.1127161  81.5995749 100.9569354  26.0902823  82.7260059
 101.2860012  23.9534997  82.9959988 101.0065295  23.0973239  82.3859917
 100.5494375  24.0067832  83.7962118 102.7110012  23.6874997  83.6149988
 102.9454826  24.4583627  84.3446299 103.4596465  23.7728102  82.8291124
 102.8390012  22.2824997  84.3009988 103.8817642  22.0086185  84.4508369
 102.4043853  21.4989573  83.6839514 102.1230012  22.3134997  85.6579988
 101.0851304  22.5704184  85.4540696 102.5418606  23.1542209  86.2093377
 102.1700012  21.0624997  86.5339988 102.9470887  21.1747945  87.2889662
 102.4551726  20.2032340  85.9298268 100.7850012  20.7624997  87.2489988
 100.7796143  19.7431158  87.6289574  99.9748026  20.8201728  86.5231688
 100.4990012  21.7484997  88.4159988 100.8842174  22.7295860  88.1469691
 101.0597704  21.4308368  89.2946666  99.0850012  21.8444997  88.7589988
  98.8481381  20.9474823  89.3271508  98.5282650  21.7674975  87.8266665
  98.5700012  23.0994997  89.5719988  97.5208155  22.9230290  89.7962454
  98.5964791  23.9460165  88.8883481  99.3480012  23.4894997  90.8869988
  98.9362762  24.4102682  91.2967789 100.3954427  23.6902655  90.6800367
  99.2490012  22.3904997  91.9829988  99.6507573  21.4567441  91.6034760
  98.1993677  22.2148228  92.2032241  99.9720012  22.7574997  93.2969988
  99.6099269  23.7043338  93.6770624 101.0399984  22.8348338  93.1312572
  99.0860012  23.8024997  94.0789988  97.9780012  24.0884997  93.7579988
  99.6120012  24.1294997  95.3049988  98.8790012  25.0434997  96.0369988
  97.9789741  24.5017924  96.2859297  98.6306760  25.8498267  95.3621926
  99.5700012  25.5974997  97.3549988  99.7624337  24.7144149  97.9415352
  98.7320012  26.5254997  98.1139988  97.9418166  25.9035633  98.5122505
  98.3184567  27.1572245  97.3377967  99.3250012  27.3424997  99.1749988
  99.7610012  26.6424997 100.5349988 101.3160012  26.5794997 100.2569988
 102.0020012  25.3204997 100.1439988 102.8456823  25.3711236  99.4681080
 101.3283089  24.5703302  99.7400415 102.4540012  24.7484997 101.6029988
 103.2589988  24.0440892 101.4355664 101.6006246  24.2139532 101.9946433
 102.9290012  25.6614997 102.7289988 103.9430012  26.6834997 102.3139988
 104.7423597  26.1820705 101.7858617 104.3327962  27.1480647 103.2074970
 103.4590775  27.4281046 101.6999155 101.7470012  26.3214997 103.4069988
 101.0249949  25.5589672 103.6559266 101.3285705  27.0580091 102.7445490
 102.1131173  26.7933864 104.3073203 103.6030012  24.7714997 103.7729988
 102.8962158  24.0324257 104.1198505 103.9260603  25.3811277 104.6034423
 104.4581178  24.2809418 103.3307731  99.4500012  27.6084997 101.6469988
  99.1490012  25.2864997 100.5969988 100.7910012  26.2954997  97.0899988
 101.8280012  25.4864997  96.7969988 101.8480012  24.2824997  96.8229988
 103.0920012  26.2704997  96.5459988 102.8025071  27.2633777  96.2174576
 103.6244918  26.4108728  97.4833653 103.9710012  25.5594997  95.5139988
 104.8248103  26.1963524  95.3103090 104.3706180  24.6573160  95.9661094
 103.2820012  25.2184997  94.2049988 102.5610201  24.4125936  94.3161552
 102.7266576  26.0714877  93.8228079 104.3430012  24.8324997  93.1829988
 104.9760140  25.6819172  92.9330178 105.0099164  24.0504478  93.5377111
 103.6280012  24.3334997  91.8539988 103.6045627  23.2461402  91.8856376
 102.5918991  24.6607016  91.9157431 104.2080012  24.7914997  90.5079988
 105.1478997  25.3045511  90.7056598 104.4553424  23.9171467  89.9124762
 103.2620012  25.7394997  89.6509988 103.7501907  25.8682971  88.6920086
 102.3570950  25.1642613  89.4597091 102.8620012  27.1004997  90.2589988
 103.6560260  27.8129571  90.4247785 101.6740012  27.4664997  90.5729988
 101.4514932  28.4439885  90.9762552 100.4540012  26.5704997  90.4079988
 100.6714752  25.7904078  89.6804118 100.1789199  26.0619086  91.3252481
  99.1770012  27.4374997  89.8629988  98.4901263  26.7268111  89.4049270
  98.6723001  27.8194238  90.7483630  99.4340012  28.5804997  88.9049988
  98.4922097  29.0902910  88.7019011 100.0794540  29.3133753  89.3812213
 100.0580012  28.1344997  87.5869988 101.1397740  28.1919721  87.6850265
  99.8226342  27.0841719  87.4242134  99.5850012  28.9734997  86.3359988
  98.5145409  28.8314775  86.1998573  99.7209126  30.0331340  86.5343118
 100.2960012  28.5834997  84.9979988 100.1892359  27.5100969  84.8520857
  99.7589788  29.0545834  84.1767064 101.7460012  28.9374997  84.8819988
 101.9116406  29.9247226  85.3061088 102.2990331  28.2469282  85.5149125
 102.3310012  28.8854997  83.4699988 103.4010486  29.0690801  83.4891214
 101.8851473  29.6296499  82.8186956 102.1705482  27.9114784  83.0164810
 123.6020012  88.1504997  82.4049988 123.5659360  88.2164989  81.3220526
 124.5959097  87.8122061  82.6833750 123.4730753  89.1538173  82.8016648
 122.5500012  87.2264997  82.9279988 122.7206855  86.2687069  82.4394265
 121.6080458  87.6038339  82.5392149 122.4460012  87.0084997  84.4419988
 121.6709547  86.2758275  84.6665505 122.1344354  87.9334934  84.9231270
 123.7340012  86.5664997  85.0549988 124.4699982  87.3648233  84.9899009
 124.1543576  85.7236565  84.5085357 123.5530012  86.1664997  86.5799988
 122.6559028  85.5590293  86.6681316 123.3577396  87.0821718  87.1356807
 124.6910012  85.4414997  87.2119988 125.5915625  86.0525608  87.2322592
 124.9472812  84.5403585  86.6589687 124.2920012  85.0494997  88.6919988
 123.3195346  84.5611616  88.6674080 124.1579543  85.9656960  89.2654495
 125.2990012  84.1394997  89.4169988 125.4418377  83.2443245  88.8130863
 124.8464912  83.8078492  90.3496974 126.6890012  84.7834997  89.7199988
 126.5350995  85.7681964  90.1561497 127.2162487  84.9465387  88.7808474
 127.5660012  83.9484997  90.6519988 127.8354479  83.0177971  90.1575392
 126.9973290  83.6695338  91.5386887 128.8490012  84.7104997  91.0869988
 128.5791834  85.7573958  91.2084398 129.5578335  84.6749075  90.2615184
 129.5580012  84.2284997  92.3979988 130.1692134  85.0606281  92.7388812
 130.2514034  83.4460366  92.0953193 128.7000012  83.7024997  93.5449988
 129.3490911  83.2602969  94.2989159 128.0485677  82.9049848  93.1987639
 127.8240012  84.8154997  94.2479988 127.2102492  84.3294827  94.9992917
 127.1468378  85.2041679  93.4920366 128.5650012  85.9894997  94.8869988
 129.2103056  86.4698486  94.1625072 129.1698559  85.6467035  95.7180888
 127.5330012  87.0904997  95.2769988 126.4190012  87.2634997  94.8319988
 128.1970012  87.9274997  96.0259988 127.8440012  89.2684997  96.3409988
 127.1681628  89.4819309  95.5266575 128.6337852  90.0056549  96.3469417
 127.0970012  89.2654997  97.6539988 126.7629125  90.2893452  97.6859229
 127.9490012  88.9384997  98.9429988 128.8408753  89.5503247  98.9373823
 128.2415341  87.8981287  98.8748973 127.2170012  89.1594997 100.0979988
 127.7720012  88.6194997 101.5579988 126.7280012  87.3734997 101.8219988
 125.3570012  87.6234997 101.8269988 124.9675585  87.9347282 100.8664467
 125.1114603  88.4144087 102.5298285 124.5970012  86.3444997 102.3599988
 123.5971464  86.5842573 102.6991976 125.1496378  85.9158074 103.1835233
 124.4300012  85.2164997 101.3319988 123.5820012  85.5624997 100.1989988
 122.6502899  85.9626874 100.5746289 123.3902795  84.6597189  99.6383476
 124.1033615  86.2728258  99.5750299 125.7300012  84.7844997 100.8289988
 126.3778511  84.5956477 101.6712216 126.1306064  85.5498112 100.1885429
 125.5735452  83.8732562 100.2700231 123.7110012  84.0184997 102.0759988
 124.3100360  83.7141160 102.9213329 123.6026860  83.1901189 101.3921105
 122.7357317  84.3374682 102.4144416 129.2060012  88.1414997 101.4689988
 127.5650012  89.7154997 102.6119988 125.9150012  88.4384997  97.5389988
 124.7870012  89.0434997  96.9729988 124.7910012  90.0914997  96.3799988
 123.6030012  88.0854997  97.1999988 123.9773742  87.0819861  97.0257623
 123.3256521  88.1212366  98.2505736 122.3700012  88.4244997  96.2749988
 121.4577157  88.2571698  96.8369569 122.3827620  89.4821277  96.0314970
 122.3260012  87.6064997  95.0059988 122.4403953  86.5723333  95.3207492
 121.3037832  87.7032689  94.6485479 123.2810012  87.9114997  93.8449988
 124.2986266  87.9671868  94.2271550 123.2733389  87.1034368  93.1175528
 122.9750012  89.1784997  93.1529988 121.9927419  89.0830343  92.6947912
 122.8795059  89.9480345  93.9165941 123.9950012  89.6604997  92.0879988
 124.1698179  88.8845539  91.3443266 123.6321865  90.5289943  91.5454118
 125.4030012  90.0454997  92.8039988 125.2147436  90.5483596  93.7454184
 125.9449335  89.1324716  93.0469702 126.2760012  90.9024997  91.8859988
 126.4199768  91.9078683  92.2521393 126.8690012  90.5854997  90.7479988
 127.4845030  91.2452620  90.1534559 126.7180012  89.1734997  90.1629988
 126.0796594  88.6103799  90.8417011 126.1922948  89.2143502  89.2155575
 128.1090012  88.3524997  89.9739988 128.7342667  88.4240142  90.8631746
 127.9110882  87.2924708  89.8269330 128.8950012  88.9064997  88.7359988
 128.4748429  89.8809983  88.4871483 129.9219675  89.0875346  89.0410733
 128.8820012  87.9754997  87.4279988 129.3369571  87.0167129  87.6665111
 127.8545977  87.7612146  87.1388465 129.6220012  88.6294997  86.2349988
 129.0603962  89.5318293  86.0004968 130.5784587  88.9679355  86.6239398
 129.8340012  87.8424997  84.9139988 128.8621773  87.5694615  84.5067008
 130.2924990  88.5052067  84.1822658 130.6660012  86.6094997  85.0219988
 131.7289925  86.8354738  84.9919963 130.4912567  86.1357290  85.9854917
 130.3340012  85.6324997  83.9389988 130.8801076  84.7041302  84.0767194
 130.5866279  86.0154404  82.9560048 129.2737958  85.3956343  83.9383481
  15.0760012  58.4204997  84.8919988  15.2047356  57.3482698  84.7816377
  15.4813077  58.8960222  84.0035197  14.0090275  58.6244243  84.9163701
  15.7690012  58.9394997  86.1679988  16.8228269  58.6730391  86.1075583
  15.3620363  58.3858877  87.0098464  15.6410012  60.4814997  86.4239988
  15.9251954  61.0695677  85.5514516  16.2942790  60.8059123  87.2315603
  14.2050012  60.8094997  86.8039988  13.9055414  60.2628273  87.6954712
  13.5040287  60.5194469  86.0228374  14.0680012  62.2794997  87.0739988
  13.8665466  62.8173932  86.1511447  15.0101982  62.6694889  87.4554933
  12.9630012  62.5794997  88.0689988  12.9529640  61.8171733  88.8458995
  11.9966703  62.5207008  87.5726881  13.1140012  63.9484997  88.7109988
  13.3164643  64.6990850  87.9491587  13.9728885  63.9553620  89.3806968
  11.8560012  64.3494997  89.4959988  10.9673064  64.0900168  88.9221162
  11.8307083  65.4301600  89.6233467  11.7830012  63.6714997  90.8829988
  12.6780190  63.9029179  91.4565227  11.7685522  62.5885129  90.7667751
  10.5350012  64.1154997  91.6799988   9.7603892  63.4060951  91.3971198
  10.2467494  65.0719151  91.2445572  10.5900012  64.2554997  93.2379988
   9.6041147  64.3175610  93.6937588  11.1381699  65.1303767  93.5832948
  11.2930012  62.9684997  93.7629988  12.3708967  63.1102625  93.7792331
  11.1052422  62.1433547  93.0784899  10.7830012  62.5654997  95.1809988
   9.7007776  62.4877753  95.0915386  10.9741596  63.4101850  95.8369250
  11.3150012  61.2354997  95.8779988  10.9441664  60.4123865  95.2760758
  10.7937289  61.1884171  96.8304432  12.8020012  61.0404997  96.1299988
  13.2012651  61.8686155  96.7017098  13.3386192  60.9754970  95.1909116
  13.0170012  59.7594997  96.8189988  13.4470012  58.6904997  96.3729988
  12.5610012  59.9034997  98.1019988  12.6500012  58.7994997  99.0039988
  12.5891277  57.9562903  98.3326163  11.7787483  58.8059384  99.6428015
  13.9600012  58.7254997  99.8469988  13.9711490  57.8116004 100.4175756
  14.0920012  59.9644997 100.8159988  14.5690603  59.6113058 101.7201391
  13.0752992  60.2541223 101.0505640  14.8300012  61.0994997 100.2569988
  14.1670012  62.5274997 100.1299988  14.4990012  62.9404997 101.6009988
  14.4140012  64.3034997 102.0309988  13.4570125  64.5478504 102.4733271
  14.5423637  64.9729453 101.1853259  15.6080012  64.6514997 103.0239988
  15.4300255  64.2192115 104.0005747  15.6435350  65.7269554 103.1215140
  17.0090012  64.2224997 102.6319988  17.1780012  64.6514997 101.2199988
  16.3371519  64.2876238 100.6456287  18.0911198  64.2131662 100.8455952
  17.2527853  65.7280953 101.1873467  18.0940012  64.8494997 103.5029988
  17.8295080  64.7023502 104.5389063  18.1767321  65.8944197 103.2628578
  19.0207326  64.3403531 103.2811078  17.1550012  62.7004997 102.6779988
  16.9271423  62.3513667 103.6741255  18.1699372  62.4337031 102.4242777
  16.4752237  62.2513679 101.9683381  14.9450012  63.3634997  99.1809988
  12.7330012  62.3634997  99.9219988  15.0530012  58.6414997  98.8869988
  16.2770012  58.3934997  99.3569988  16.6190012  57.9714997 100.4509988
  17.3160012  58.6204997  98.2229988  18.2567943  58.1596350  98.5059562
  17.0064711  58.1257716  97.3057516  17.4600012  60.1514997  98.0109988
  16.5165802  60.5699440  97.6779488  17.6949630  60.6483892  98.9469083
  18.5280012  60.4584997  96.9839988  19.4683142  60.0266985  97.3171849
  18.2643438  59.9391032  96.0659699  18.7250012  62.0164997  96.6519988
  19.2226000  62.4315946  97.5265259  19.4443097  62.0712279  95.8384866
  17.5350012  62.8994997  96.3149988  16.8325536  62.9230336  97.1456098
  17.8713055  63.9248234  96.1736068  16.7940012  62.4354997  95.0239988
  16.4192745  61.4283280  95.1997436  15.9216282  63.0651817  94.8730554
  17.6130012  62.4464997  93.7749988  17.8964882  63.4656164  93.5391678
  18.5400009  61.9050098  93.9588635  16.9090012  61.8084997  92.6329988
  16.6625630  60.7634780  92.7459231  16.5420012  62.4004997  91.4929988
  16.0717218  61.7991751  90.7282399  16.7050012  63.8964997  91.1109988
  15.8907176  64.1435697  90.4319408  16.5701046  64.5214142  91.9867646
  18.0850012  64.2744997  90.3959988  18.1757612  65.3540585  90.2818924
  18.9231897  63.9636594  91.0167059  18.1960012  63.6224997  89.0609988
  18.3517596  62.5499710  89.1773112  17.2730567  63.7361303  88.4990685
  19.3610012  64.2184997  88.2569988  19.2498058  65.3002484  88.2324988
  20.2954419  64.0204529  88.7791893  19.4540012  63.6724997  86.8359988
  20.1954695  64.2817540  86.3225557  19.8863544  62.6783921  86.9097946
  18.2140012  63.6334997  85.9809988  17.5657904  62.8264922  86.3178144
  17.6494715  64.5532663  86.1230181  18.4770012  63.4534997  84.4919988
  17.5424437  63.6243740  83.9634920  19.1339106  64.2711408  84.2034751
  19.0860012  62.1564997  84.0269988  19.3016394  62.1914236  82.9633496
  18.4243066  61.3138827  84.1969927  20.0180987  61.9541971  84.5470074
  84.7120012  18.5384997  82.9269988  83.9730767  17.7849091  82.6729892
  85.6566057  18.0310873  83.1003337  84.8386543  19.1822398  82.0608755
  84.2810012  19.3504997  84.1619988  84.1233920  18.6223654  84.9558393
  83.3013210  19.7518116  83.9170710  85.1990012  20.4734997  84.6799988
  84.7476448  20.8606462  85.5934121  85.1425444  21.2795688  83.9511393
  86.7050012  20.1504997  84.9459988  87.1421068  21.0001570  85.4658748
  87.2213801  20.0840918  83.9896261  86.9880012  18.8514997  85.7809988
  88.0404102  18.9180755  86.0447713  86.9064937  18.0490583  85.0496921
  86.1980012  18.4844997  87.0119988  86.1624468  17.4022811  87.1231560
  85.1664633  18.8133489  86.9053932  86.8230012  19.1304997  88.3329988
  87.1106272  20.1670287  88.1667192  87.7293126  18.6081800  88.6363330
  85.7520012  19.0634997  89.5209988  85.5305829  18.0302162  89.7851015
  84.8064529  19.5088128  89.2171588  86.2750012  19.7884997  90.7399988
  85.4195252  20.1251257  91.3217072  86.7850117  20.6893772  90.4010506
  87.2120012  18.9874997  91.6369988  88.2091375  19.2097953  91.2633644
  87.0186534  17.9441877  91.3889145  87.1720012  19.1594997  93.1659988
  88.1062848  18.7936453  93.5864815  86.3863790  18.5326541  93.5843173
  86.9580012  20.6664997  93.6509988  86.0171160  21.0972572  93.3172292
  87.7406815  21.3355748  93.2982668  87.0050012  20.6224997  95.1979988
  86.9522973  21.6251013  95.6190263  87.9222258  20.1809896  95.5775273
  85.7890012  19.8104997  95.7369988  85.9084113  18.7584476  95.4997801
  84.8884636  20.1469354  95.2301111  85.5840012  19.9674997  97.2579988
  85.4956793  21.0135800  97.5224911  86.4216741  19.5418961  97.7976603
  84.1360012  19.7324997  97.6329988  83.1900012  20.4734997  97.3919988
  84.0480012  18.5384997  98.3059988  82.7490012  17.9314997  98.2139988
  82.5341668  17.7988648  97.1643721  81.9697644  18.5317241  98.6608911
  82.8580012  16.5964997  98.8959988  81.9829969  16.0444133  98.5952297
  82.9000012  16.7164997 100.4419988  82.7145033  15.7491912 100.8888833
  82.1124957  17.3953000 100.7447365  84.1780012  17.2204997 100.8499988
  84.2730012  17.7434997 102.3609988  85.8020012  18.0724997 102.6139988
  86.3930012  19.0064997 101.7259988  87.0651161  19.6324796 102.2983620
  85.5902903  19.6516346 101.3806682  87.0810012  18.4844997 100.4339988
  87.6599782  19.2610037  99.9501848  86.2966062  18.1666690  99.7623699
  88.0240012  17.2884997 100.5739988  87.2520012  16.0264997 101.0529988
  86.6777348  16.2859451 101.9317707  87.9777122  15.2672309 101.3039060
  86.6224730  15.6747477 100.2494554  88.6400012  17.0204997  99.2219988
  89.0307222  17.9484152  98.8333808  87.8912463  16.6057807  98.5710422
  89.4428155  16.3122405  99.3674469  89.0570012  17.4624997 101.6069988
  89.6443820  18.3393060 101.3783587  89.6957826  16.5921895 101.6199778
  88.5857353  17.5791710 102.5722610  83.5520012  19.0534997 102.4559988
  83.8660012  16.6194997 103.2849988  84.0380012  15.8874997  98.4499988
  83.9750012  14.6064997  98.1639988  83.0390012  13.8934997  98.3649988
  85.3180012  14.1764997  97.5069988  86.0784959  14.8930535  97.7998320
  85.6385760  13.2201188  97.9125533  85.1570012  14.1044997  96.0049988
  85.8853062  13.4201574  95.5839187  84.1827384  13.7068229  95.7391075
  85.3490012  15.5204997  95.3579988  84.7311625  16.2717710  95.8433036
  86.3774409  15.8544763  95.4712961  85.0140012  15.4534997  93.8419988
  85.8656714  15.9210394  93.3513151  85.0481429  14.4007410  93.5723035
  83.7430012  16.0634997  93.2769988  82.9280642  15.3914613  93.5380412
  83.5721841  16.9794469  93.8393538  83.6750012  16.3884997  91.7759988
  82.9468763  17.1883631  91.6504848  84.6340745  16.7959759  91.4686563
  83.3120012  15.2144997  90.8359988  82.4007553  14.7236091  91.1573046
  83.1238766  15.5808912  89.8276772  84.4580012  14.2494997  90.7889988
  84.5949986  13.5906327  91.6332025  85.3270012  14.1274997  89.7689988
  86.0997873  13.3724173  89.7851923  85.3310012  14.9914997  88.5189988
  84.2901766  15.0821677  88.2129194  85.6578370  15.9910009  88.7833029
  86.1160012  14.5074997  87.3569988  86.1383673  15.2884145  86.5978039
  87.1464730  14.3665961  87.6775186  85.6000012  13.2074997  86.7369988
  86.3041989  12.8831213  85.9708452  85.5952355  12.4285405  87.4944312
  84.1920012  13.3284997  86.1149988  83.8390620  12.3150509  85.9375148
  83.5364010  13.7502895  86.8748453  84.0750012  14.1484997  84.8419988
  84.1435138  15.2030140  85.1025663  84.9314291  13.9438832  84.2053762
  82.8430012  13.9514997  84.0969988  83.0147375  14.2385709  83.0611514
  82.6172920  12.8867683  84.0816237  81.5850012  14.7174997  84.6229988
  80.7198711  14.2317952  84.1785259  81.5443981  14.4812168  85.6840524
  81.4590012  16.2684997  84.4479988  80.5695519  16.6416512  84.9467039
  81.3903485  16.5545123  83.4038606  82.3168558  16.7805640  84.8746328
  35.4200012  41.4874997  79.7109988  35.3589253  42.0954988  78.8137609
  35.4454583  40.4458478  79.4042360  36.3657658  41.7102413  80.1973395
  34.2610012  41.7554997  80.6329988  33.3568102  41.5601243  80.0590038
  34.2721234  42.8239761  80.8306057  34.1970012  40.9504997  81.9949988
  33.1710006  40.9030585  82.3596922  34.7639669  41.4789276  82.7588605
  34.7720012  39.4874997  81.8679988  35.6801099  39.4773556  81.2692620
  34.0731459  38.8194198  81.3670231  35.1020012  38.9224997  83.2839988
  35.5502348  39.6605859  83.9442172  35.7984955  38.0867146  83.2424795
  33.7360012  38.4324997  83.9149988  33.1021163  37.9384527  83.1808839
  33.1516380  39.2585819  84.3146046  34.0670012  37.4334997  85.0649988
  34.8152413  36.7256023  84.7131634  33.1768560  36.8480535  85.2911060
  34.5970012  38.1414997  86.4169988  33.9859654  39.0175451  86.6306121
  35.6100827  38.5080374  86.2620797  34.5790012  37.2084997  87.6249988
  34.9944428  36.2349929  87.3735354  33.5598833  37.0254049  87.9633066
  35.3940012  37.8294997  88.7779988  35.1160663  38.8776943  88.8636686
  36.4481336  37.8147842  88.5022863  35.2210012  37.1434997  90.0989988
  35.8795683  37.5983855  90.8358226  35.5231257  36.1001144  90.0269162
  33.8190012  37.2164997  90.6119988  33.2717444  36.3116574  90.3590371
  33.2881860  38.0368309  90.1324552  33.7980012  37.4364997  92.1079988
  34.6265940  36.9097226  92.5783091  32.8918911  37.0457252  92.5624588
  33.9320012  38.9694997  92.4619988  33.3019009  39.5886683  91.8319600
  34.9537945  39.3096829  92.3160340  33.5300012  39.2014997  94.0039988
  34.1243076  38.5678571  94.6500157  32.4825638  38.9718871  94.1596332
  33.9680012  40.5694997  94.4509988  34.2650012  41.4714997  93.6919988
  34.3540012  40.5724997  95.7289988  34.7380012  41.6994997  96.4849988
  34.5632003  42.5160359  95.8007655  35.7926648  41.6502512  96.7140212
  33.9310012  41.8824997  97.7239988  34.1796506  42.8448681  98.1398286
  34.2080012  40.7754997  98.7619988  35.2526339  40.8679828  99.0265554
  34.0695005  39.8523198  98.2132351  33.3920012  40.7844997  99.9359988
  31.9070012  40.0804997  99.8209988  32.1750012  38.8864997 100.8859988
  32.2100012  39.2384997 102.2969988  31.3514207  39.8165913 102.6129714
  33.0855528  39.8434139 102.5144500  32.3730012  37.9514997 103.1709988
  31.4628525  37.3652655 103.1854212  32.5809724  38.2946789 104.1741702
  33.4420012  37.0164997 102.8379988  33.3810012  36.2204997 101.5409988
  32.4156762  35.7373281 101.4775405  34.1602446  35.4735402 101.5715141
  33.5523394  36.8893175 100.7109127  34.7020012  37.8644997 102.9529988
  34.6830602  38.3796504 103.9011417  34.7359956  38.5561281 102.1302810
  35.5478096  37.1934791 102.9125461  33.4800012  35.8704997 103.8489988
  33.6276433  36.2747746 104.8393752  34.2960223  35.2076412 103.6032790
  32.5478816  35.3253603 103.8114315  30.7780012  40.8754997 100.4159988
  31.7350012  39.3814997  98.4719988  32.5710012  41.9224997  97.3479988
  32.0620012  42.8994997  96.5029988  32.6970012  43.9164997  96.1849988
  30.6020012  42.7414997  96.0809988  30.0514927  42.2505065  96.8768751
  30.1267243  43.7096138  95.9439805  30.5810012  41.9404997  94.8029988
  31.3121772  41.1419727  94.8646210  29.6174348  41.4562843  94.6800826
  30.8960012  42.8314997  93.5439988  30.1966561  43.6636428  93.5544031
  31.8806769  43.2609531  93.7114754  30.8860012  42.1644997  92.1909988
  31.4812997  41.2542243  92.2325249  29.8805152  41.8576721  91.9134075
  31.4410012  43.0424997  91.1079988  30.7083817  43.7870048  90.8032335
  32.2974862  43.5974094  91.4860061  31.9010012  42.2004997  89.8339988
  32.1496443  42.8843829  89.0239486  32.8081699  41.6454255  90.0559348
  30.8120012  41.2004997  89.3469988  30.6048872  40.5046506  90.1516589
  29.8935851  41.7628354  89.1837919  31.1540012  40.4904997  88.1079988
  32.0076717  39.8364661  88.2030808  30.5320012  40.5404997  86.8709988
  30.9269297  39.8913073  86.1027600  29.3900012  41.3564997  86.4369988
  28.5926746  40.7168846  86.0623203  28.9544149  41.9496732  87.2332969
  29.8360012  42.2784997  85.3029988  29.1359577  43.1118259  85.2559709
  30.7950658  42.7040899  85.5920090  29.9670012  41.6334997  83.8999988
  30.7066062  42.1854207  83.3199345  30.3505188  40.6215419  83.9967445
  28.6370012  41.6054997  83.1289988  27.8803204  41.1685421  83.7768007
  28.3217648  42.6304204  82.9412526  28.6930012  40.8314997  81.7809988
  27.6977153  40.8520375  81.3410280  29.3324581  41.3791152  81.0940948
  29.1500012  39.3424997  81.8639988  30.1456442  39.2523940  82.2946481
  28.4904236  38.7593834  82.5041291  29.1630012  38.6894997  80.4359988
  29.7830974  39.3042580  79.7883354  29.6909455  37.7442092  80.5409454
  27.8300012  38.4304997  79.7609988  27.9691148  37.8994723  78.8241283
  27.3029973  39.3518721  79.5372117  27.1841376  37.8257192  80.3912700
 116.0770012  39.2484997  84.0169988 116.8459841  39.8952500  83.6061361
 115.7452693  39.6830908  84.9555479 115.2335020  39.2617651  83.3322030
 116.6190012  37.7684997  84.2279988 117.4880219  37.8458502  84.8791691
 116.9905285  37.4405819  83.2609148 115.6480012  36.7244997  84.8029988
 116.2095350  35.7964225  84.9092133 114.9059363  36.5405237  84.0286193
 114.9260012  37.0214997  86.0979988 114.0726460  37.6469139  85.8452300
 115.5842453  37.6408133  86.7053465 114.4200012  35.8024997  86.9549988
 113.4310536  35.5468242  86.5832652 114.2774977  36.1852696  87.9642286
 115.2770012  34.5244997  87.0129988 116.2429902  34.7937511  87.4363021
 115.4704825  34.2092980  85.9898713 114.6740012  33.3194997  87.8209988
 114.9817726  32.3459740  87.4437794 113.5850369  33.3089622  87.8376082
 115.2140012  33.5024997  89.2879988 114.6834560  34.3395233  89.7400654
 116.2588744  33.8014663  89.2284772 115.0930012  32.2954997  90.1829988
 115.5702517  32.4797337  91.1431189 115.6079394  31.4402111  89.7472270
 113.6240012  31.9384997  90.4079988 113.5996580  31.0755284  91.0698047
 113.2175598  31.6032154  89.4541545 112.6890012  33.1144997  90.9989988
 111.6996868  32.6669647  91.0661597 112.6321666  33.8553477  90.2033594
 112.9920012  33.8224997  92.3309988 114.0396182  34.1120040  92.3009178
 112.9080299  33.0656598  93.1086955 112.1260012  35.0204997  92.7199988
 111.0758882  34.7350194  92.6881287 112.2419855  35.8334468  92.0087051
 112.4440012  35.5624997  94.1859988 112.0667859  34.8682975  94.9297306
 111.9169446  36.5010287  94.3358876 113.9080012  35.7934997  94.4239988
 114.3138695  36.4583845  93.6721743 114.4490015  34.8553999  94.3871692
 114.2130012  36.8214997  95.5269988 113.3590012  37.2774997  96.2929988
 115.5280012  37.1204997  95.5959988 115.9560012  37.8244997  96.7539988
 115.1890333  38.5726693  96.8861521 116.9049391  38.3157903  96.5948057
 116.0150012  36.8854997  97.9979988 114.9846576  36.6517633  98.2093126
 116.6710012  37.5864997  99.2449988 116.3241731  38.6091065  99.3065344
 117.7428125  37.5923492  99.0908194 116.3440012  36.8754997 100.4389988
 117.5840012  36.2994997 101.2979988 116.8300012  35.3334997 102.3159988
 115.4330012  35.1104997 102.3189988 114.8435089  36.0055385 102.1686880
 115.1083664  34.6828387 103.2631997 115.0960012  34.0284997 101.2409988
 115.5053894  34.3338594 100.2863231 114.0209354  33.9654018 101.1536530
 115.5950012  32.5634997 101.4689988 115.0250012  32.0684997 102.7869988
 115.2441485  32.7987101 103.5538763 115.5067104  31.1325095 103.0277862
 113.9630856  31.9106581 102.6723763 115.0870012  31.7124997 100.3219988
 115.3311811  32.2067507  99.3942024 114.0254422  31.5776699 100.4282224
 115.5924636  30.7592834 100.3784202 117.1010012  32.5534997 101.5679988
 117.5196608  32.9657173 100.6619730 117.4414323  31.5367115 101.6940876
 117.4105773  33.1460182 102.4168329 118.3860012  35.4684997 100.3909988
 118.2870012  37.4074997 102.0329988 116.7110012  35.6534997  97.7009988
 116.0300012  34.5994997  97.6429988 114.8770012  34.4724997  97.9869988
 116.8780012  33.3694997  97.1709988 116.6921123  32.6070226  97.9204166
 116.4129352  33.0080457  96.2572309 118.4220012  33.6264997  96.9599988
 118.6749858  34.4727872  97.5891706 118.9408827  32.7722445  97.3831335
 118.9320012  33.8924997  95.5249988 119.0365561  34.9682621  95.4089925
 119.9376624  33.4827357  95.4720466 118.1020012  33.3124997  94.3589988
 117.9765280  32.2430075  94.5175831 117.1017942  33.7388614  94.3570901
 118.7450012  33.5284997  92.9519988 119.7078380  33.0217826  92.9428320
 118.1204874  33.0052431  92.2304961 118.9360012  35.0404997  92.4619988
 117.9481951  35.4339256  92.2271450 119.3103031  35.6290264  93.2949767
 119.8910012  35.2544997  91.2229988 120.8829551  34.9354927  91.5210623
 119.5654140  34.5608477  90.4489277 119.9190012  36.6494997  90.6409988
 120.0432163  37.4817439  91.3173819 119.8140012  36.9334997  89.3389988
 119.8337866  37.9569632  88.9929628 119.6630012  35.8894997  88.2099988
 120.3784381  35.0913447  88.4005760 118.6810790  35.4305965  88.2402938
 119.9190012  36.4314997  86.8299988 119.1154311  37.1110616  86.5486171
 120.8289076  37.0283613  86.8468932 120.0600012  35.3014997  85.7369988
 120.2664922  35.7618377  84.7707911 120.9189324  34.6765286  85.9653676
 118.7820012  34.4074997  85.6189988 118.6165869  33.8408767  86.5326297
 117.8867881  35.0080111  85.4671285 118.9560012  33.4464997  84.4289988
 119.9860970  33.1154711  84.3110466 118.3612969  32.5411492  84.5143937
 118.5510012  34.2354997  83.1329988 117.4989103  34.5137450  83.1568188
 119.1079698  35.1675199  83.0558092 118.8210012  33.3674997  81.8029988
 119.8258547  33.5640838  81.4375689 118.8105694  32.3183813  82.0903224
 117.8290012  33.5734997  80.6819988 118.0284899  32.8918166  79.8606697
 117.8698800  34.5820267  80.2845783 116.8129430  33.3936937  81.0217585
  25.9180012  51.3684997  82.9829988  26.4763582  52.0473148  82.3459144
  25.2512239  51.9651194  83.5988258  25.3023207  50.7442203  82.3412630
  26.9050012  50.4714997  83.8909988  27.5118958  51.1928330  84.4355721
  27.5682035  49.9932752  83.1752628  26.3580012  49.4414997  84.8659988
  27.1943283  48.9884553  85.3981987  25.9009589  48.6416987  84.2866873
  25.3100012  49.9644997  85.9019988  25.1173895  49.1779140  86.6282451
  24.3625044  50.1477060  85.3976266  25.7210012  51.1784997  86.6219988
  25.8325482  51.9799971  85.8962356  26.7143067  50.9929055  87.0272937
  24.8080012  51.6474997  87.7339988  24.9297997  51.0420456  88.6303288
  23.7608267  51.5645792  87.4509320  25.1200012  53.0724997  88.0549988
  25.1304610  53.6263992  87.1180591  26.1379416  53.1078600  88.4407148
  24.1830012  53.7674997  89.0409988  23.3362752  54.1096204  88.4473157
  24.7097301  54.6636426  89.3637502  23.6500012  52.9914997  90.3099988
  23.1786383  52.0615099  89.9993911  22.8724885  53.5774809  90.7985446
  24.7410012  52.6904997  91.3009988  25.5775268  53.3461091  91.0692662
  25.0872830  51.6749655  91.1107141  24.3730012  52.8214997  92.7429988
  23.7285137  52.0098429  93.0737408  23.8345344  53.7424640  92.9598078
  25.6630012  52.7824997  93.5719988  26.3847050  53.3659990  93.0055263
  26.0005115  51.7489927  93.5208115  25.6620012  53.2424997  95.0969988
  25.4946928  54.3158810  95.1684997  26.6157275  53.0503850  95.5804986
  24.5670012  52.5474997  95.8729988  24.8244925  51.5231753  96.1216006
  23.6456324  52.5094513  95.2979128  24.3040012  53.3274997  97.1629988
  24.0773360  54.3624715  96.9405193  25.1733548  53.2929799  97.8088328
  23.1530012  52.9024997  98.0129988  22.6230012  53.5504997  98.9049988
  22.6830012  51.7694997  97.5109988  21.3530012  51.3744997  97.8249988
  20.7846020  51.6509704  96.9498141  20.9892778  51.9350265  98.6739434
  21.2460012  49.9094997  98.0679988  20.2103145  49.6232324  97.9886374
  21.7920012  49.5194997  99.4539988  21.7052662  48.4508033  99.5960066
  21.1909807  50.0190004 100.2035709  23.1580012  49.9284997  99.5569988
  24.1780012  48.9814997 100.4049988  25.4010012  49.9704997 100.8529988
  25.4880012  51.2574997 100.4069988  25.1995883  51.3214259  99.3658838
  26.5268691  51.5703725 100.4585828  24.7020012  52.2984997 101.2729988
  23.6520878  52.0373143 101.2316094  24.8354844  53.2725290 100.8248626
  25.0370012  52.4744997 102.7899988  24.7140012  51.1874997 103.5169988
  23.7050935  50.8918824 103.2639183  24.7818877  51.3779488 104.5777629
  25.4365824  50.4358031 103.2367390  26.4810012  52.9354997 102.9549988
  26.6478108  53.7796904 102.3036690  27.1394602  52.1192359 102.7172696
  26.6097554  53.2316510 103.9860243  24.1370012  53.6194997 103.2989988
  24.3377345  54.5116854 102.7247229  24.3523553  53.8035558 104.3408221
  23.0994340  53.3389425 103.1886487  23.4120012  48.4524997 101.6259988
  24.6700012  47.9684997  99.4989988  21.9630012  49.2464997  97.0139988
  21.5000012  48.0214997  96.7429988  20.5780012  47.4684997  97.3389988
  22.2450012  47.4394997  95.5349988  23.0965579  46.8822041  95.9115965
  21.6117407  46.7120050  95.0333617  22.7030012  48.6434997  94.4999988
  23.3485630  49.3115231  95.0595124  23.3270949  48.1952451  93.7334429
  21.5750012  49.4644997  93.8429988  20.7690805  49.6588753  94.5461090
  21.9520832  50.4374334  93.5375908  21.0500012  48.7674997  92.6509988
  21.8912892  48.4640905  92.0306091  20.5439276  47.8514714  92.9459290
  20.0780012  49.6214997  91.7769988  19.3458381  48.9257764  91.3722674
  19.5386103  50.2544136  92.4790375  20.6220012  50.4954997  90.6509988
  21.2975707  51.2280558  91.0899387  21.2238533  49.8842240  89.9843399
  19.5730012  51.2104997  89.8349988  19.0629074  50.5267094  89.1665563
  18.8076662  51.6314738  90.4856824  20.2320012  52.3444997  89.0619988
  20.5991730  53.1328760  89.7016874  20.4220012  52.4874997  87.7569988
  20.9348496  53.3577776  87.3733156  19.9880012  51.5294997  86.7089988
  19.5566931  50.6299638  87.1449226  19.2499121  51.9139185  86.0139249
  21.2410012  51.1344997  85.9469988  21.7588550  52.0683131  85.7313025
  21.8574907  50.6063160  86.6718585  21.1370012  50.2694997  84.6229988
  20.7111797  50.8504089  83.8048744  22.1131574  49.9354856  84.2823266
  20.2240012  49.0204997  84.9009988  20.6781266  48.4899073  85.7348973
  19.2708040  49.4001609  85.2648085  19.9730012  48.0564997  83.7449988
  19.3121982  48.4662483  82.9833982  20.8725355  47.7451162  83.2210681
  19.2840012  46.8474997  84.3609988  19.7581661  46.6014737  85.3094300
  18.2517769  47.1004286  84.5963155  19.2880012  45.6014997  83.4789988
  20.2002918  45.4329219  82.9122340  19.1136833  44.6851188  84.0386169
  18.0640012  45.8274997  82.4659988  17.9152778  44.9528444  81.8399568
  18.2330456  46.6732135  81.8080223  17.1388840  46.0091365  83.0057276
  97.2890012 112.3044997  81.8409988  97.7030851 112.2132961  80.8416763
  97.7362036 113.1780826  82.3064586  96.2237795 112.4941411  81.7412440
  97.5560012 111.0054997  82.6919988  98.6311853 110.8391456  82.7308377
  97.1357810 110.1608009  82.1528206  96.9970012 111.0484997  84.1299988
  96.9216049 110.0248013  84.4964495  95.9772648 111.4242776  84.0743241
  97.7850012 111.9084997  85.1649988  97.2244494 111.9451156  86.0964981
  97.8553367 112.9371725  84.8148685  99.1860012 111.3774997  85.4589988
  99.7134444 111.3742475  84.5085431  99.0458039 110.3334769  85.7341828
 100.0780012 112.0754997  86.5289988 100.0186240 113.1467785  86.3455510
 101.1073655 111.7885696  86.3248980  99.7510012 111.7894997  88.0329988
 100.6506342 111.8593343  88.6417298  99.3767969 110.7743847  88.1584690
  98.7200012 112.7694997  88.5509988  97.7330017 112.4098961  88.2629563
  98.8603065 113.7178069  88.0355263  98.7490012 113.0084997  90.0649988
  98.2764353 113.9703776  90.2521174  99.7921754 113.1207351  90.3578600
  98.0890012 111.9384997  90.9439988  98.5040659 110.9674751  90.6829784
  97.0266119 111.8901646  90.7064663  98.2560012 112.1914997  92.4269988
  98.1633947 113.2604456  92.6067752  99.2679534 111.9216455  92.7240837
  97.2650012 111.4704997  93.3169988  97.2012253 110.4211123  93.0396222
  96.2688108 111.8843032  93.1719422  97.6490012 111.6064997  94.8349988
  96.7922995 111.2314300  95.3923470  97.7135044 112.6685241  95.0545836
  98.9210012 110.8984997  95.3779988  99.7938625 111.3244384  94.8942278
  98.8730094 109.8550335  95.0780534  99.1110012 110.9624997  96.9349988
  98.2362790 110.5725915  97.4398489  99.2694507 111.9857824  97.2541462
 100.6040012 110.6054997  97.2769988 101.2180012 109.6434997  96.8519988
 101.0720012 111.5144997  98.1219988 102.4220012 111.3194997  98.6529988
 103.1537539 111.4966203  97.8792881 102.5328113 110.3091850  99.0193011
 102.5910012 112.3314997  99.7819988 103.6373167 112.3321192 100.0391317
 101.7100012 112.0384997 101.0869988 101.8448312 111.0316180 101.4582279
 100.6589751 112.1930611 100.8771420 102.1610012 112.9694997 102.0249988
 101.1610012 113.8504997 102.8599988 100.3820012 114.6334997 101.7879988
  99.4290012 115.5834997 102.2079988  99.7702050 116.5944786 102.0271934
  99.2861997 115.4938889 103.2810200  98.0260012 115.3504997 101.5899988
  97.4209736 116.2095229 101.8512836  97.5768180 114.4661293 102.0183684
  97.8940012 115.1934997 100.0559988  98.5090012 116.3164997  99.2039988
  98.1399811 117.2662072  99.5662332  98.1937063 116.1698518  98.1816566
  99.5851245 116.2527582  99.2641033  98.5820012 113.9864997  99.5719988
  98.2673423 113.1479498 100.1741099  99.6446107 114.1390547  99.6349100
  98.2860580 113.8363477  98.5438115  96.4350012 115.1234997  99.7479988
  95.9985880 114.2918282 100.2808667  96.3031038 114.9821033  98.6858029
  95.9576644 116.0439315 100.0519556 100.0810012 112.9994997 103.4829988
 101.8970012 114.8714997 103.6459988 102.1750012 113.6594997  99.3129988
 102.8780012 114.3274997  98.4219988 104.0550012 114.1204997  98.0769988
 102.1500012 115.5114997  97.8739988 101.5707388 115.9618397  98.6734998
 102.8533143 116.2745972  97.5500548 101.2590012 115.0484997  96.7079988
 101.8732642 114.5793238  95.9473307 100.5652797 114.2854004  97.0463228
 100.4830012 116.2174997  96.0779988  99.7778354 116.5762392  96.8234524
 101.2025776 117.0191402  95.9308689  99.7710012 115.9644997  94.7719988
 100.4770225 115.5416510  94.0596513  98.9867455 115.2223060  94.8996449
  99.1390012 117.2734997  94.1319988  98.6109671 117.8269652  94.9057926
  99.9523068 117.9165198  93.8011814  98.2040012 117.0304997  92.9589988
  97.3415628 116.5016210  93.3617250  97.8417694 117.9993668  92.6267297
  98.7630012 116.2414997  91.7049988  99.3647109 115.4215105  92.0793559
  97.9066331 115.7904300  91.2054831  99.5360012 117.0704997  90.6909988
  98.9062305 117.6176499  90.0057473 100.8560012 117.2144997  90.5509988
 101.3440431 117.8451637  89.8218294 101.8180012 116.4604997  91.4649988
 102.5956579 117.1360054  91.8173665 101.3370911 116.0624785  92.3515571
 102.5060012 115.2884997  90.6729988 103.4052952 115.0119717  91.2220958
 101.8362746 114.4330656  90.7374803 102.8670012 115.5444997  89.1799988
 101.9221240 115.5344959  88.6366628 103.2387814 116.5638784  89.1238708
 103.8800012 114.5794997  88.4719988 104.7218878 114.4204299  89.1421246
 103.4058681 113.6080578  88.3432218 104.3910012 115.0914997  87.0849988
 104.7743458 116.1040245  87.1964897 105.2336488 114.4897535  86.7556487
 103.3100012 115.1144997  86.0039988 102.4473568 114.5074440  86.2727201
 102.9293879 116.1192531  85.8295334 103.9150012 114.5584997  84.6369988
 104.7716220 115.1823672  84.3942953 104.3220682 113.5813304  84.8874974
 103.0310012 114.4184997  83.4149988 103.5717373 113.9466217  82.6001340
 102.6783585 115.3799823  83.0573184 102.1594920 113.8071495  83.6314791
 126.5300012  60.6554997  84.8559988 126.0306886  60.9614733  83.9419440
 126.1838190  59.6562990  85.1040835 127.5941620  60.5920625  84.6458811
 126.2540012  61.6294997  85.9879988 125.1808093  61.6916530  86.1600432
 126.5733218  62.6243244  85.6893819 126.9450012  61.2244997  87.2809988
 128.0195551  61.3864150  87.1970563 126.8130091  60.1561843  87.4405333
 126.3980012  61.9944997  88.5549988 125.4449028  61.5484666  88.8305127
 126.1790225  63.0230512  88.2724459 127.3530012  61.9894997  89.8349988
 127.4917244  60.9607998  90.1576524 126.8254072  62.4944562  90.6424816
 128.7350012  62.6434997  89.6439988 128.5650093  63.7044265  89.4697748
 129.1520866  62.2466862  88.7208759 129.7670012  62.4714997  90.7859988
 129.4081658  63.0795470  91.6144223 130.6859465  62.9419743  90.4389784
 130.0790012  61.0734997  91.2889988 129.1655400  60.5044347  91.1210559
 130.1780536  61.1777866  92.3678856 131.2530012  60.2964997  90.7559988
 131.4240303  60.5475002  89.7113511 131.0374424  59.2290167  90.7803193
 132.5250012  60.5724997  91.5579988 132.3002516  60.4915255  92.6192385
 132.8405075  61.6019800  91.3905024 133.7150012  59.5944997  91.1789988
 134.6057685  59.9433136  91.6970753 133.9215936  59.7036250  90.1157306
 133.5080012  58.0454997  91.5199988 134.4156859  57.5350743  91.2072795
 132.7175048  57.6908211  90.8612207 133.1490012  57.6524997  92.9849988
 132.9288052  56.5865622  93.0083035 132.2365227  58.1583384  93.2879579
 134.2460012  57.9324997  94.0239988 134.5079995  58.9768075  94.1586205
 135.1740498  57.3959409  93.8453304 133.5900012  57.3784997  95.3689988
 133.2897295  56.3455832  95.2466811 132.7181422  57.9651344  95.6331780
 132.8520012  58.5814997  96.0449988 133.4450012  59.6144997  96.4009988
 131.5550012  58.4214997  96.1179988 130.7810012  59.4334997  96.7819988
 130.2159583  59.9651758  96.0313264 131.4698906  60.1176251  97.2559141
 129.8230012  58.7964997  97.8259988 128.9977100  59.4764448  97.9581467
 130.5580012  58.6074997  99.1529988 130.7561646  59.5921262  99.5543003
 131.5011648  58.1402729  98.8985848 129.8450012  57.8074997 100.1119988
 128.6790012  58.3544997 101.0199988 128.8480012  59.9604997 101.0549988
 129.7950012  60.5144997 101.9409988 130.7694933  60.0673038 101.7941315
 129.4982829  60.2789647 102.9589764 129.8750012  61.9864997 101.8919988
 130.3900322  62.2414920 100.9744090 130.4326724  62.3872301 102.7261420
 128.5600012  62.7584997 101.8579988 128.9600012  64.1354997 102.3539988
 129.5057672  64.0235354 103.2807875 128.0573430  64.7015934 102.5296294
 129.5517948  64.6234826 101.5941501 128.0740012  62.8974997 100.4459988
 128.0924427  61.9243323  99.9798236 128.7046898  63.5952637  99.9247241
 127.0603824  63.2690930 100.4883366 127.4290012  62.2034997 102.6639988
 127.2139874  61.1991783 102.3305476 126.5569649  62.8250228 102.5264789
 127.7028338  62.1913853 103.7091322 127.3060012  58.1404997 100.4729988
 128.9460012  57.8274997 102.3669988 129.3520012  57.5224997  97.4549988
 128.3910012  57.5614997  96.4539988 127.9150012  58.5834997  95.9929988
 128.1540012  56.1074997  96.0009988 128.2962922  55.5172173  96.9003724
 127.0968343  56.0310362  95.7592165 129.0020012  55.6174997  94.8699988
 129.9675194  56.1105828  94.8965421 129.2036692  54.5566740  94.9795975
 128.3360012  55.8854997  93.5059988 127.3881204  55.3573952  93.4405638
 128.0994441  56.9437766  93.4275406 129.2520012  55.4904997  92.3069988
 130.2953586  55.6658657  92.5626509 129.1708032  54.4324042  92.0702650
 128.9060012  56.3384997  91.0009988 127.8286286  56.3177758  90.8502009
 129.1638237  57.3765899  91.2016907 129.6200012  55.8924997  89.6899988
 130.6743329  55.7626987  89.9292418 129.2444742  54.9103487  89.4167281
 129.4820012  56.8514997  88.4419988 130.0014716  57.7842267  88.6284143
 129.9678604  56.3968652  87.5796797 127.9900012  57.1014997  88.0959988
 127.5537661  58.0380252  88.4093244 127.2040012  56.2594997  87.4309988
 126.2121280  56.6328787  87.2203194 127.4620012  54.8534997  86.9079988
 128.5149844  54.6099389  87.0388629 126.9059310  54.0994717  87.4538089
 127.1280012  54.7514997  85.4149988 127.1473634  53.6920728  85.1621256
 126.0915372  55.0681449  85.3153132 128.0180012  55.5554997  84.3859988
 127.7313622  55.2675220  83.3745572 127.7981388  56.6159173  84.4736287
 129.5500012  55.3254997  84.5709988 129.8603973  55.5767656  85.5827619
 129.8157612  54.2804001  84.4219234 130.3290012  56.2084997  83.5379988
 129.6627128  56.3599166  82.6908136 130.4629190  57.1879470  83.9889687
 131.6760012  55.6884997  82.9949988 132.3319693  56.5149324  82.7274212
 132.2043217  55.1184018  83.7570354 131.4870012  54.7854997  81.7479988
 130.8367914  53.9535848  82.0069582 130.9401182  55.3704814  81.0117729
 132.7950012  54.2374997  81.0839988 132.5657548  53.6925138  80.1732268
 133.3307904  53.5611008  81.7413840 133.4698144  55.0480051  80.8235203
  46.3430012  17.4534997  82.9479988  45.8259006  17.4080716  81.9945984
  46.0640079  16.5723317  83.5185212  47.4093789  17.3921732  82.7487765
  46.0020012  18.7214997  83.6979988  44.9192392  18.7325768  83.8107230
  46.2477405  19.5429024  83.0303734  46.6650012  18.9464997  85.0919988
  47.7357840  18.7594541  85.0122054  46.2790999  18.1979793  85.7811783
  46.4380012  20.3354997  85.7049988  45.3922361  20.3935015  85.9987013
  46.5722475  21.0780052  84.9199067  47.3150012  20.7124997  86.9219988
  47.2050852  21.7758691  87.1188156  48.3571685  20.5588161  86.6469830
  47.0040012  19.9154997  88.2409988  47.3145746  18.8844417  88.0819998
  45.9232632  19.8921404  88.3636238  47.6510012  20.4484997  89.5349988
  47.7238639  21.5336864  89.4922101  48.6718574  20.0780577  89.6177948
  46.8710012  20.0474997  90.7729988  45.8124797  20.2642700  90.6351800
  47.1935010  20.6388481  91.6279753  47.0340012  18.6484997  91.0749988
  48.0864368  18.3740235  91.0508510  46.5431322  18.0358400  90.3198347
  46.4620012  18.3184997  92.4329988  46.4393234  17.2358862  92.5365976
  45.4240908  18.6494079  92.4588988  47.2410012  18.9604997  93.6449988
  47.0418324  20.0299794  93.6542655  48.3114738  18.8538938  93.4781112
  46.8720012  18.3704997  95.0729988  47.7471544  18.3700785  95.7182317
  46.5668052  17.3304308  94.9740936  45.7060012  19.1724997  95.7459988
  44.8901892  19.1510655  95.0254133  46.0345449  20.2064692  95.8029189
  45.1190012  18.7314997  97.1699988  44.6596888  17.7554190  97.0531928
  44.3201734  19.4283358  97.4095517  46.1020012  18.6894997  98.3509988
  46.5976797  19.6451156  98.4656377  46.8530734  17.9252930  98.1899163
  46.7200012  17.3544997  98.4459988  46.9610012  16.5884997  97.5639988
  47.1520012  17.0914997  99.7999988  47.5840012  15.7914997 100.0649988
  47.4007982  15.2082183  99.1752339  46.9691034  15.4126508 100.8684701
  49.0790012  15.7374997 100.4409988  49.2776603  14.6994602 100.6505282
  49.4070012  16.6164997 101.7169988  50.4535128  16.5908237 101.9889457
  48.8192603  16.2979074 102.5688466  49.0360012  17.9034997 101.3239988
  49.6720012  19.2404997 101.8679988  48.3940012  20.0894997 102.4119988
  47.4320012  20.4304997 101.4229988  46.5703714  19.7820592 101.5141478
  47.8706095  20.2250710 100.4507751  46.9890012  21.9744997 101.3679988
  46.5438681  22.2723265 102.3089582  46.2607699  22.1091668 100.5812834
  48.0340012  22.9324997 101.1079988  49.0360012  23.0024997 102.2289988
  48.5033899  23.1395421 103.1600619  49.6784218  23.8516446 102.0491415
  49.6240462  22.0970066 102.2305190  48.6530012  22.6484997  99.7749988
  47.8643528  22.5499555  99.0449051  49.2391536  21.7496281  99.8444630
  49.2851014  23.4888024  99.5267296  47.4660012  24.3134997 100.9789988
  46.7398005  24.3260936 100.1799018  48.2636298  25.0055147 100.7541572
  46.9928353  24.5970925 101.9080435  50.5980012  18.8944997 102.9919988
  50.2090012  19.9554997 100.7029988  49.9380012  16.2254997  99.4529988
  50.0540012  15.6544997  98.2769988  49.5960012  14.5694997  97.9679988
  50.7580012  16.6814997  97.2499988  50.1204998  17.5595495  97.2368309
  51.6942304  17.0004416  97.7012835  50.9860012  16.1214997  95.8509988
  51.5589648  15.2008045  95.8606961  50.0651602  15.8963630  95.3224173
  51.7640012  17.1814997  95.0999988  51.2542069  18.1400470  95.1543195
  52.7311701  17.3251691  95.5754021  51.9900012  16.7944997  93.6519988
  52.5863623  17.5789368  93.1897026  52.5931017  15.8906928  93.6119379
  50.7270012  16.5854997  92.8049988  50.1416743  15.7324620  93.1420748
  50.0659496  17.4481082  92.8624289  51.1460012  16.3704997  91.2989988
  52.1606896  15.9759975  91.2771709  50.5120863  15.6110661  90.8498543
  51.0750012  17.6684997  90.4189988  51.4133376  17.4188132  89.4201168
  50.0264069  17.9482711  90.3266728  51.8520012  18.8614997  90.9829988
  51.4332953  19.2716029  91.8896711  52.9450012  19.4264997  90.5189988
  53.3580908  20.2719858  91.0501485  53.7140012  19.0344997  89.3179988
  54.7322720  18.7848142  89.6112609  53.3103683  18.1493939  88.8390944
  53.7780012  20.2374997  88.2509988  54.1077800  21.1259079  88.7882899
  54.5762909  19.9912027  87.5534815  52.5160012  20.5564997  87.4719988
  51.7323199  20.7778881  88.1965247  52.6877198  21.4763515  86.9198310
  52.0060012  19.4324997  86.4789988  51.5787598  18.6451590  87.0960114
  51.1793609  19.8570156  85.9119563  53.0420012  18.8314997  85.4979988
  53.2753186  19.4933312  84.6660541  53.9955960  18.5821136  85.9552608
  52.3920012  17.5764997  84.9299988  53.1607556  17.0937891  84.3292575
  52.2229660  16.9240646  85.7847441  51.0950012  17.6434997  84.1029988
  50.6039192  18.6002595  84.2622601  51.3711470  17.6240929  83.0510102
  50.0740012  16.4784997  84.3789988  49.2271933  16.5396901  83.7020637
  49.6843492  16.5120205  85.3908232  50.5412504  15.5080568  84.2373661
  12.3180012 109.5054997  80.8229988  12.8317967 109.8730410  79.9401870
  13.0694097 109.2833728  81.5752187  11.6988845 110.3125812  81.2050014
  11.4660012 108.2574997  80.4979988  12.0777477 107.4432063  80.1134269
  10.7258026 108.4713236  79.7317094  10.7500012 107.7864997  81.8309988
   9.8526447 108.3754801  82.0201613  11.4032463 107.9499912  82.6858159
  10.3640012 106.2444997  81.7789988  11.2588052 105.6709814  81.5473686
   9.6737858 106.0723343  80.9545791   9.7360012 105.6824997  83.1119988
  10.4903500 105.0883956  83.6214800   8.9406276 104.9930339  82.8338211
   9.1570012 106.7724997  84.1329988   8.3683242 107.3644314  83.6721057
   9.9280190 107.4772410  84.4370514   8.6030012 106.0694997  85.3679988
   9.4622522 105.8758291  86.0074902   8.2553848 105.0968106  85.0226454
   7.4780012 106.7494997  86.2089988   7.2535823 106.0601481  87.0219450
   6.5952892 106.7663549  85.5724302   7.7170012 108.1784997  86.7959988
   6.7647311 108.6706710  86.9817136   8.2426648 108.7983279  86.0706936
   8.5170012 108.1284997  88.0849988   9.4039546 107.5128949  87.9521708
   7.9340059 107.6572352  88.8758561   8.9280012 109.5694997  88.5379988
   8.0307775 110.1659439  88.6889457   9.4882479 110.0617680  87.7449518
   9.7140012 109.5974997  89.7739988   9.1103628 109.0787940  90.5147985
   9.7356037 110.6425967  90.0772735  11.1490012 109.0534997  89.7869988
  11.6114406 109.2069441  88.8134195  11.1663653 107.9821837  89.9665942
  12.0210012 109.7524997  90.8409988  12.2589728 110.7305194  90.4357929
  12.9486859 109.1867882  90.8625279  11.5100012 109.9134997  92.2889988
  11.2345132 108.9517624  92.7027727  10.6435094 110.5636284  92.3133623
  11.9550012 108.7214997  93.1589988  12.6440012 107.8734997  92.6429988
  11.3910012 108.7244997  94.3469988  11.8790012 107.8234997  95.4049988
  12.9008314 108.0645747  95.6564105  11.8349450 106.8067152  95.0425069
  10.9860012 108.0074997  96.6099988  10.9753973 109.0403539  96.9165828
  11.4500012 107.1044997  97.7999988  12.3440961 107.5441339  98.2208515
  11.7057390 106.1455994  97.3667627  10.4730012 106.9484997  98.7839988
  10.7930012 105.7794997  99.8139988  12.0470012 106.4164997 100.5469988
  11.9660012 107.7274997 101.0239988  11.0982870 108.2796318 100.6872329
  12.8344557 108.3123821 100.7350415  12.0160012 107.6624997 102.5379988
  11.1137938 107.1591884 102.8619565  11.9978636 108.6784550 102.9052626
  13.1540012 106.9774997 103.2659988  13.0150012 105.4364997 103.1449988
  12.0132901 105.1559717 103.4403171  13.7316084 104.9837531 103.8140238
  13.2325452 105.1436864 102.1288039  14.3970012 107.5254997 102.5919988
  14.3234756 108.6017457 102.5603384  14.4740615 107.1073696 101.6042746
  15.2462616 107.2294187 103.1906555  13.0920012 107.3574997 104.7209988
  13.1585287 108.4315235 104.8111596  13.9182006 106.8985910 105.2429637
  12.1601530 107.0116809 105.1446771   9.6780012 105.5984997 100.7229988
  11.2900012 104.5954997  99.0259988   9.6800012 107.6044997  96.2549988
   8.8550012 108.6194997  95.8459988   9.2860012 109.7434997  95.7089988
   7.4090012 108.1994997  95.7319988   7.0418979 107.8452759  96.6897637
   6.7603563 109.0257989  95.4520054   7.3890012 107.0814997  94.6519988
   7.9970069 106.2479834  94.9861256   6.3824090 106.6919275  94.5378118
   7.9180012 107.5784997  93.2859988   7.2173050 108.3120992  92.8954727
   8.8448914 108.1147542  93.4740697   8.1830012 106.5024997  92.2419988
   7.3508712 105.8043329  92.1725087   8.3276327 106.9034773  91.2417485
   9.4480012 105.7124997  92.6509988  10.3336553 106.3371551  92.7475562
   9.3282274 105.2069342  93.6072617   9.6910012 104.6354997  91.5429988
   8.8363075 103.9608351  91.5482395   9.6880550 105.1265037  90.5738629
  10.9320012 103.8504997  91.6699988  10.8945661 103.4556740  92.6786073
  10.7779865 103.0032630  91.0030539  12.3470012 104.4884997  91.3589988
  12.7755210 104.8985885  92.2610807  13.0420012 104.5884997  90.2829988
  14.0131748 105.0621768  90.2908526  12.6160012 104.0754997  88.9229988
  13.1721552 103.1764001  88.6631262  11.5661688 103.8112904  88.8619533
  12.9430012 105.1924997  87.8409988  12.4354589 106.1124228  88.1288308
  14.0090338 105.4057392  87.8916176  12.5750012 104.8374997  86.4209988
  13.2332850 104.0750343  86.0045665  11.5649148 104.4465999  86.3348192
  12.6970012 106.1014997  85.6019988  12.3143180 105.9567150  84.5941615
  12.1201766 106.9184693  86.0320209  14.2210012 106.5134997  85.5459988
  14.4526908 107.1086821  86.4272863  14.8371295 105.6215646  85.6199083
  14.6170012 107.3184997  84.3219988  14.6007864 106.6504895  83.4627069
  13.8375688 108.0573224  84.1446286  15.9150012 108.0084997  84.3529988
  16.0190413 108.5138113  85.3099475  16.6799263 107.2351422  84.3420103
  16.2090012 109.0284997  83.1859988  17.2221829 109.4127212  83.2560379
  15.5363046 109.8791187  83.2118379  16.1020527 108.5526538  82.2152909
 104.9620012 110.2214997  84.5079988 104.4017675 109.2963011  84.6005992
 105.3055492 110.2993502  83.4805242 104.2745700 111.0434761  84.6880127
 106.1780012 110.2624997  85.5239988 106.8224101 109.4065074  85.3310807
 105.7884333 110.1306694  86.5298177 107.0120012 111.5504997  85.4449988
 106.3415823 112.4048514  85.5374683 107.4410327 111.6110537  84.4467823
 108.1460012 111.6834997  86.4709988 108.5970773 112.6591315  86.3038976
 108.9057336 110.9504568  86.2042391 107.8150012 111.5494997  87.9389988
 106.9918656 110.8562593  88.0920956 107.4863658 112.5071697  88.3392887
 109.0620012 111.0474997  88.7539988 109.7536001 111.8790587  88.8765444
 109.5862616 110.3006607  88.1615804 108.7380012 110.4744997  90.0929988
 108.1624613 109.5680575  89.9144310 108.0593681 111.1753315  90.5772734
 109.8740012 110.1644997  91.0209988 110.2015874 111.0780817  91.5154744
 110.7274870 109.8059735  90.4485437 109.4960012 109.1024997  92.0999988
 110.4159421 108.6721962  92.4899842 108.9660492 108.2891136  91.6059025
 108.6490012 109.6244997  93.2609988 108.4150689 108.7682347  93.8897953
 107.7020363 109.9625188  92.8409636 109.2780012 110.7944997  94.1439988
 108.5400702 111.1580503  94.8559186 109.5417151 111.6468772  93.5202716
 110.5120012 110.3374997  94.9209988 111.3972530 110.7643622  94.4558788
 110.6039426 109.2580730  94.8158572 110.4820012 110.6794997  96.3979988
 109.5211845 110.3755114  96.8099143 110.5468322 111.7548001  96.5387108
 111.6020012 109.9894997  97.2319988 112.5592467 110.2671380  96.8031130
 111.4907134 108.9183568  97.0858479 111.6220012 110.2794997  98.7509988
 110.6639219 110.0408026  99.1950133 111.8385509 111.3255163  98.9327247
 112.2750012 111.5924997  99.1049988 112.9900012 112.2424997  98.3589988
 111.9130012 111.9024997 100.3389988 112.3060012 113.1974997 100.8459988
 112.9924314 113.6132569 100.1239036 112.8288695 113.0346202 101.7772726
 111.1020012 114.1434997 101.0459988 111.4024066 115.0929243 101.4573908
 110.1000012 113.4234997 102.0329988 110.5830386 113.2562471 102.9861527
 109.8405472 112.4643650 101.6024998 108.9200012 114.2344997 102.2009988
 107.8970012 113.7574997 103.2429988 106.9830012 112.7114997 102.4109988
 106.3130012 113.1354997 101.2149988 106.8951020 113.8268027 100.6196437
 105.3849608 113.6445943 101.4586392 105.9070012 111.9444997 100.4099988
 105.2813588 112.1951243  99.5626453 105.3617703 111.2733315 101.0577901
 107.0530012 111.1394997  99.8499988 107.9530012 112.0054997  99.0909988
 107.3680848 112.5733299  98.3805231 108.6548680 111.3764656  98.5639323
 108.4853465 112.6459704  99.7781105 107.7580012 110.4234997 100.9719988
 107.0197979 109.9077984 101.5668282 108.3039488 111.1409951 101.5580973
 108.4368733 109.7117813 100.5249119 106.5780012 110.1524997  98.8739988
 105.8632199 109.4975817  99.3496585 107.4170712 109.5743461  98.5171374
 106.1111976 110.6622709  98.0435394 108.6010012 112.9814997 104.2859988
 107.1130012 114.9534997 103.6279988 110.4700012 114.3754997  99.7999988
 109.6360012 115.4704997  99.7929988 109.6130012 116.2854997 100.6359988
 108.9040012 115.5574997  98.4199988 108.3629828 114.6344275  98.2389191
 108.1556382 116.3460789  98.4183725 109.9990012 115.8174997  97.3319988
 110.8216684 116.3702409  97.7721768 110.4183685 114.8764425  96.9905673
 109.4420012 116.6124997  96.1269988 109.1180718 117.5758902  96.5124886
 110.2964434 116.8143584  95.4857137 108.3300012 115.9854997  95.2769988
 107.6927954 115.3391892  95.8777963 107.6731566 116.7246948  94.8249504
 108.9840012 115.1124997  94.1289988 109.8175114 115.6365179  93.6657854
 109.3963107 114.1949926  94.5444052 107.9290012 114.7354997  93.0279988
 107.5125419 113.7880502  93.3665284 107.1349827 115.4708806  93.1232223
 108.3120012 114.6204997  91.5609988 109.2223200 114.0351016  91.5043523
 107.5374823 114.0312581  91.0718557 108.4600012 115.9294997  90.8239988
 107.5801823 116.5506717  90.7490446 109.6210012 116.4104997  90.2489988
 109.6144394 117.3537494  89.7218869 110.9130012 115.7604997  90.2789988
 111.6213383 116.4804141  89.8725473 111.2022208 115.5998946  91.3115873
 111.0640012 114.4224997  89.4829988 112.0728062 114.0537011  89.6646717
 110.3906513 113.7065688  89.9504407 110.7890012 114.4564997  87.9369988
 110.7872609 113.4180106  87.6058728 109.7721565 114.8175104  87.8097113
 111.7560012 115.2874997  87.0249988 111.8845987 116.2735911  87.4657156
 112.7395841 114.8210072  87.0308572 111.2700012 115.4204997  85.5809988
 110.3026312 115.9139583  85.6536888 111.9373291 116.1423769  85.1181904
 111.1150012 114.2504997  84.7109988 110.0906117 113.8851425  84.7559801
 111.2889424 114.5343033  83.6746427 112.0440012 113.1154997  85.0579988
 113.0776855 113.4491119  85.1039838 111.8058746 112.7515399  86.0550655
 111.9270012 111.9474997  84.0649988 112.5383066 111.1083761  84.3831910
 112.2528731 112.2278199  83.0690223 110.9005776 111.5995652  83.9905857
  70.0590012 129.9414997  84.2529988  70.8337809 130.5766579  83.8350043
  69.8139075 129.1863982  83.5116885  70.4794432 129.4313985  85.1153428
  68.8190012 130.7584997  84.6449988  68.4885167 131.2763692  83.7462251
  69.1637113 131.5275150  85.3310048  67.6410012 130.0054997  85.2509988
  68.0085230 129.2778939  85.9744948  67.1526366 129.4302524  84.4669314
  66.6160012 130.8804997  85.9069988  65.7431251 130.2863423  86.1683692
  66.2653049 131.6418490  85.2119697  67.1510012 131.5634997  87.1879988
  68.0677648 132.0867096  86.9284438  67.4365960 130.7698677  87.8764382
  66.1770012 132.5704997  87.9269988  65.9629318 133.3856723  87.2381701
  66.7259307 133.0099891  88.7571207  64.8580012 131.9864997  88.4459988
  65.0567727 131.0403552  88.9460693  64.2114898 131.7540173  87.6008923
  64.1040012 132.9364997  89.4239988  63.8526377 133.8508656  88.8880862
  64.7897545 133.2280004  90.2173799  62.8020012 132.3354997  90.0609988
  62.0379326 132.3579319  89.2868948  62.4775324 133.0374517  90.8281757
  62.8750012 130.9184997  90.6659988  63.5015163 130.3043996  90.0228356
  61.8796568 130.4760465  90.6351156  63.3850012 130.8774997  92.0629988
  62.7395441 131.5004248  92.6785395  64.3696333 131.3409255  92.0923942
  63.4630012 129.4714997  92.7059988  64.1960179 128.8596394  92.1858715
  62.5076342 128.9621552  92.5941408  63.7950012 129.5474997  94.1569988
  63.7906141 130.6093189  94.3973580  64.8251699 129.2172431  94.2567835
  62.9370012 128.8254997  95.1959988  62.9860485 127.7587670  95.0035908
  61.9057283 129.1273206  95.0332951  63.3070012 129.0974997  96.7019988
  63.2970015 130.1601435  96.9087090  64.2939002 128.7092851  96.9242347
  64.5040012 128.2514997  97.1019988  64.4050012 127.0514997  97.3319988
  65.5380012 129.0174997  97.3789988  66.7130012 128.3184997  97.6779988
  66.9216889 127.6323505  96.8710844  66.5460812 127.7563413  98.5853618
  67.8910012 129.3204997  97.8519988  68.7883957 128.7686402  98.0778931
  67.6180012 130.3544997  98.9629988  68.4866417 130.9941987  99.0407796
  67.5204208 129.7887757  99.8811597  66.4290012 131.1424997  98.7279988
  65.6800012 131.5994997 100.0789988  65.5590012 130.1734997 100.8429988
  66.0950012 130.1734997 102.1689988  65.5508742 130.8074307 102.8569277
  67.1214586 130.5287209 102.1690139  66.1690012 128.7114997 102.6959988
  66.5287117 128.7689942 103.7155828  66.8762360 128.1426878 102.1097830
  64.8570012 127.8424997 102.7529988  63.8790012 128.4874997 103.6489988
  64.3643299 128.7048564 104.5905645  63.0668288 127.7942800 103.8100036
  63.5038471 129.3811169 103.1731576  64.3180012 127.6574997 101.3449988
  65.1238391 127.3207155 100.7110305  63.9098296 128.5906048 100.9999181
  63.5438929 126.9052532 101.3916745  65.2550012 126.4504997 103.2639988
  65.9931819 126.0256671 102.6001550  64.3807686 125.8173406 103.2858382
  65.6644772 126.5355154 104.2602601  66.5340012 132.5764997 100.8529988
  64.2940012 132.0424997  99.8019988  68.0600012 130.0404997  96.6519988
  68.6750012 129.3674997  95.6309988  69.4510012 128.4284997  95.7549988
  68.4120012 130.1144997  94.3309988  67.4089613 130.5257889  94.3790124
  69.0802930 130.9685540  94.2542902  68.5890012 129.1574997  93.1249988
  69.6221642 128.8293043  93.0946199  67.9949609 128.2639596  93.2885079
  68.2220012 129.7874997  91.7739988  67.1551978 129.9914259  91.7292931
  68.7187862 130.7501354  91.6812511  68.6410012 128.9014997  90.5839988
  68.3838362 129.4546869  89.6825798  69.7252011 128.8199230  90.5915964
  68.0280012 127.4684997  90.4729988  68.4524936 126.9104582  89.6409550
  68.2395167 126.8860316  91.3676345  66.4520012 127.5674997  90.2919988
  66.0568652 126.5535877  90.3313819  66.0393077 128.0909004  91.1499345
  65.9540012 128.2594997  89.0049988  64.9102640 128.5147244  89.1466078
  66.4907707 129.2028398  88.9137089  66.1510012 127.4744997  87.7489988
  67.1099459 126.9990758  87.6077504  65.2260012 127.2964997  86.7779988
  65.5482205 126.7394698  85.9099536  63.7500012 127.7694997  86.7139988
  63.1376680 126.8889811  86.5270333  63.4383563 128.1569195  87.6775673
  63.4520012 128.7824997  85.6499988  62.3855962 129.0048388  85.6428745
  63.9546689 129.7156834  85.8968839  63.8850012 128.3334997  84.2659988
  64.9526306 128.5233690  84.1554366  63.7577755 127.2576205  84.1835261
  63.1540012 129.0024997  83.1649988  63.4718119 128.4945354  82.2571917
  62.1045953 128.7486273  83.3042152  63.2860012 130.5004997  82.9919988
  62.9865564 130.9557142  83.9341785  64.3433316 130.7232088  82.8776402
  62.4640012 131.1864997  81.8409988  62.4811445 130.4899991  81.0046519
  61.4330142 131.2148979  82.1889837  62.8580012 132.6434997  81.2989988
  62.8665737 133.3456214  82.1289787  63.8858137 132.5888877  80.9469592
  61.9660012 133.2064997  80.1529988  62.3562152 134.1526571  79.7902480
  60.9464193 133.3795415  80.4804898  61.9303941 132.5192876  79.3123962
  28.5380012 122.4714997  85.1969988  28.6969448 121.8018603  84.3575054
  29.3088957 122.2671161  85.9343853  28.6843309 123.4877309  84.8413673
  27.1270012 122.2914997  85.7989988  27.0057019 121.2574857  86.1172826
  26.3900198 122.4589216  85.0182027  26.8540012 123.2244997  86.9939988
  25.8801605 123.7088072  86.9232206  27.5866615 124.0274892  87.0448679
  26.9260012 122.4024997  88.3229988  27.9624781 122.1261984  88.5036178
  26.3819078 121.4674158  88.1993597  26.3920012 123.1424997  89.5599988
  25.4548531 123.6425861  89.3292606  27.0922849 123.9242803  89.8494580
  26.1730012 122.2034997  90.7379988  27.1142335 121.7306588  91.0124439
  25.5011966 121.3982752  90.4483968  25.6000012 122.9234997  91.9499988
  25.5079017 122.2205251  92.7759010  24.5895186 123.2609981  91.7236147
  26.4690012 124.1554997  92.4099988  26.5933219 124.7873768  91.5315190
  27.4569924 123.7638927  92.6449482  25.9660012 125.0224997  93.5979988
  25.0574300 125.5296625  93.2804686  26.7030178 125.8042332  93.7776546
  25.6970012 124.2704997  94.9069988  25.0255943 123.4476062  94.6717157
  25.1401890 124.9413930  95.5606741  27.0060012 123.7124997  95.7019988
  27.5312558 124.5733014  96.1102498  27.6795722 123.2653088  94.9729923
  26.7580012 122.7184997  96.8349988  25.8046830 122.2256371  96.6603852
  26.6447176 123.2803089  97.7603134  27.8750012 121.6644997  97.0299988
  28.1296869 121.2780822  96.0445706  27.4684721 120.8267063  97.5895614
  29.1550012 122.1284997  97.6949988  29.5584484 121.3501616  98.3343462
  28.9421326 122.9814395  98.3339609  30.2240012 122.5424997  96.6639988
  29.8315481 123.2959546  95.9929345  30.5367519 121.6853006  96.0796481
  31.5000012 123.1494997  97.2789988  32.6560012 122.9074997  96.9669988
  31.1080012 123.8524997  98.3209988  32.0700012 124.4114997  99.1809988
  32.9163468 124.6985083  98.5753692  32.4038759 123.7405383  99.9591572
  31.3580012 125.7284997  99.8139988  32.1692821 126.2986730 100.2354482
  30.2970012 125.4834997 100.8699988  30.1306442 126.4143707 101.3949801
  30.7220589 124.7665093 101.5612554  29.1040012 125.0014997 100.3449988
  27.7570012 125.9294997 100.4919988  26.8570012 124.9084997 101.2999988
  27.3350012 124.4324997 102.5569988  27.5279312 125.2311656 103.2613422
  28.2755395 123.9059165 102.4232273  26.3780012 123.3994997 103.1479988
  25.4458006 123.9206422 103.3259359  26.7004630 122.9396661 104.0710093
  26.0250012 122.2084997 102.1699988  27.2860012 121.5484997 101.7789988
  27.9752127 122.3028816 101.4251212  27.0655388 120.8545480 100.9815482
  27.6784771 121.0109226 102.6291108  25.1610012 121.1534997 102.9229988
  24.3456963 121.6642095 103.4120462  25.7806279 120.6333132 103.6314045
  24.7771453 120.4641096 102.1849655  25.2120012 122.6404997 100.9619988
  24.2942301 123.1004072 101.2970561  24.9837796 121.7739792 100.3597470
  25.7830027 123.3469160 100.3768763  28.0000012 127.1384997 101.3419988
  27.1980012 126.1544997  99.1629988  30.7740012 126.4694997  98.7439988
  31.5410012 127.1394997  97.8839988  32.7560012 127.1104997  97.9299988
  30.6060012 127.6794997  96.7749988  29.5790410 127.5761440  97.1099964
  30.7656936 128.7450246  96.6298718  30.8800012 126.8654997  95.4219988
  31.7206464 127.2899482  94.8842070  31.1455459 125.8334063  95.6276740
  29.6390012 126.9144997  94.5299988  28.7512304 126.7886356  95.1445517
  29.5704617 127.9101708  94.0987143  29.6400012 125.8754997  93.3779988
  29.4837780 124.8949917  93.8239857  28.7814023 126.0577895  92.7362977
  30.9350012 125.8134997  92.4879988  31.8066275 125.6472006  93.1176917
  30.8686524 124.9503196  91.8285301  31.1570012 127.0694997  91.6319988
  31.1655819 127.9314152  92.2973777  32.1437632 127.0212973  91.1800084
  30.0660012 127.3064997  90.4659988  29.0729323 127.3148595  90.8999623
  30.2218000 128.2956644  90.0374828  30.1750012 126.2244997  89.3019988
  29.5323346 125.3663477  89.4289192  30.9280012 126.2554997  88.2219988
  30.8365977 125.4936380  87.4611951  31.9470012 127.2924997  87.9209988
  31.6807510 127.6598993  86.9313779  31.7812910 128.1168803  88.6055554
  33.4210012 126.9324997  87.9129988  33.9944017 127.8380686  87.7184180
  33.6900960 126.6133021  88.9180659  33.8290012 125.8424997  86.9109988
  34.8337751 125.5105192  87.1723899  33.1780611 124.9850678  87.0579397
  33.8020012 126.2594997  85.4259988  32.7921237 126.3930595  85.0446140
  34.3264272 127.1935776  85.2321927  34.4810012 125.1534997  84.6919988
  35.5064281 125.4655977  84.5030959  34.5492167 124.2973798  85.3576041
  33.8560012 124.7254997  83.3389988  32.9501832 124.1498386  83.5206334
  33.5453721 125.6107558  82.7870340  34.7800012 123.9054997  82.4539988
  35.7052875 124.4269296  82.2218974  35.0754480 122.9913757  82.9642943
  34.0640012 123.5324997  81.1509988  34.6804844 122.8729987  80.5476118
  33.8365022 124.4057603  80.5490011  33.1286796 123.0181332  81.3528445
  56.8090012  19.0144997  84.4149988  55.8152228  18.7129152  84.0989600
  57.4950062  18.2111255  84.1624575  57.0920646  19.8848491  83.8293548
  56.8470012  19.3324997  85.9559988  56.5256468  18.4470819  86.5018649
  56.1100134  20.1034647  86.1640275  58.2260012  19.7684997  86.4689988
  58.4644866  20.7829343  86.1496619  59.0055034  19.1315839  86.0556157
  58.2950012  19.6904997  87.9999988  58.4145549  18.6410272  88.2599304
  57.3239051  19.9893246  88.3916391  59.4090012  20.5074997  88.7089988
  59.1099800  20.7096627  89.7343228  59.4923653  21.4759002  88.2184727
  60.7350012  19.8484997  88.7169988  61.3579472  20.3812124  89.4332197
  61.1857584  20.0127246  87.7405639  60.7600012  18.3724997  89.0349988
  61.7657003  17.9659257  89.1246472  60.2496690  17.7608769  88.2922279
  60.0310012  18.2384997  90.3959988  58.9753245  18.4928677  90.3105895
  60.4469352  18.9136943  91.1415154  60.1660012  16.7774997  90.8979988
  61.1518770  16.6107119  91.3266847  60.0736014  16.0780331  90.0680676
  59.0690012  16.4524997  91.9739988  58.0890935  16.6545074  91.5470646
  59.1822917  17.1360076  92.8150762  59.1310012  14.9984997  92.4899988
  60.1707431  14.7499172  92.6917026  58.8075219  14.3253518  91.6979375
  58.2910012  14.7114997  93.7909988  58.2576174  13.6402036  93.9738356
  57.2614684  15.0239669  93.6263886  58.8420012  15.4534997  95.0469988
  58.0475805  15.5409758  95.7862522  59.1356253  16.4685127  94.7943975
  60.0760012  14.7104997  95.7359988  60.8869734  14.6207415  95.0207278
  59.7659135  13.6999182  95.9883136  60.6120012  15.4114997  97.0419988
  59.8107090  15.5418952  97.7582172  61.0281596  16.3834642  96.8050049
  61.0540012  16.8184997  96.7549988  61.5750012  17.1724997  95.7199988
  60.6550012  17.6094997  97.7309988  60.7680012  19.0344997  97.6919988
  61.0755980  19.2840804  96.6877300  61.5291368  19.3607324  98.3858552
  59.4330012  19.6794997  98.0079988  59.5304779  20.7497263  97.9304918
  59.0520012  19.2804997  99.4899988  58.1618145  19.8362478  99.7517480
  59.8728316  19.6314108 100.1029293  58.8450012  17.8854997  99.6889988
  58.8880012  17.2934997 101.1739988  57.3920012  17.3414997 101.5129988
  56.2840012  17.5254997 100.6459988  56.3659486  16.8802542  99.7810526
  56.3057091  18.5452820 100.2726761  54.9050012  17.3714997 101.3239988
  54.1913034  17.4977586 100.5196710  54.7228424  18.1294943 102.0720892
  54.5580012  16.0464997 101.9799988  55.1960012  15.9054997 103.3249988
  56.2522812  16.1165983 103.2298994  55.0570045  14.8865921 103.6545549
  54.7108855  16.5791091 104.0153828  53.0790012  15.9784997 102.2729988
  52.5395507  16.2476144 101.3778539  52.8509580  16.6455082 103.0850738
  52.8512330  14.9595687 102.5508446  54.9690012  14.9484997 101.0159988
  54.4498386  15.0852150 100.0790563  54.7076283  13.9897639 101.4380888
  56.0361904  14.9925951 100.8529106  59.2640012  15.8864997 101.1319988
  59.5270012  18.2404997 102.1089988  58.4620012  19.2764997  97.1539988
  57.3040012  19.8894997  97.2469988  56.9430012  20.8104997  97.9209988
  56.3230012  19.2214997  96.2159988  56.9256825  18.6615928  95.5083035
  55.7064263  18.4869881  96.7280878  55.4490012  20.2914997  95.5139988
  54.6855300  19.7462880  94.9700162  54.9297574  20.8328678  96.2984345
  56.1370012  21.2874997  94.5569988  55.3994389  21.8871620  94.0296839
  56.7415307  21.9858549  95.1305047  57.0450012  20.5654997  93.5509988
  57.5803009  21.3305752  92.9916960  57.7994132  20.0048794  94.0975968
  56.3550012  19.6214997  92.5439988  57.0961467  18.9758721  92.0773412
  55.6774734  18.9634134  93.0846092  55.5620012  20.3544997  91.4559988
  55.0299368  21.2028967  91.8835861  56.2185349  20.7585750  90.6904894
  54.5500012  19.4034997  90.7859988  54.1651791  19.9776895  89.9512545
  55.1737574  18.6200091  90.3577270  53.4100012  18.7454997  91.5779988
  52.4936881  19.3121617  91.6474138  53.4320012  17.5714997  92.1619988
  52.5582420  17.2624604  92.7175612  54.5310012  16.5744997  92.1589988
  55.4198034  17.0945558  91.8057378  54.7434284  16.2675337  93.1770005
  54.3220012  15.3244997  91.2799988  55.0562826  14.5747726  91.5723087
  53.3476475  14.9068175  91.5262416  54.4020012  15.5544997  89.7819988
  53.4629563  15.9646885  89.4104523  55.1687966  16.2860414  89.5424672
  54.7010012  14.2514997  89.0569988  55.5817311  13.8185048  89.5260139
  53.8806031  13.5647287  89.2579408  54.9120012  14.3554997  87.5479988
  55.7579604  15.0236724  87.3980378  55.2406982  13.3787166  87.2037924
  53.7770012  14.8474997  86.6929988  52.9305148  14.1646083  86.6482417
  53.3739029  15.8073633  87.0108157  54.3450012  15.0034997  85.2949988
  55.3069380  15.5092880  85.3227606  54.5424216  14.0143130  84.8877546
  53.3720012  15.7744997  84.3099988  53.7752471  15.7877007  83.3018879
  53.2211689  16.8050480  84.6132489  52.3973930  15.2962798  84.2701780
  44.5090012  27.6534997  84.6099988  45.2293435  28.3290677  85.0607135
  43.6754439  28.2498682  84.2503923  44.9819203  27.1946896  83.7460237
  44.0300012  26.5684997  85.6319988  43.5880621  27.0625395  86.4956060
  44.8970019  26.0270455  86.0007143  43.0280012  25.6054997  85.0449988
  43.4606421  25.1577722  84.1504090  42.1687264  26.1818319  84.7078652
  42.5320012  24.4934997  85.9779988  43.3519736  24.0689183  86.5529995
  42.0890404  23.6649252  85.4275843  41.5290012  25.0494997  86.9209988
  40.7103070  25.4980957  86.3641555  41.9889606  25.8554502  87.4904248
  40.9650012  24.0194997  87.8789988  40.7118895  23.1441100  87.2836464
  40.0229295  24.4183625  88.2491156  41.8570012  23.5784997  89.0989988
  42.8197735  23.1787569  88.7858772  41.3851486  22.8010492  89.6982950
  42.0880012  24.8444997  89.9859988  41.1562483  25.1416256  90.4655859
  42.3934848  25.6865066  89.3676234  43.1360012  24.5984997  91.0439988
  43.1143285  25.4818692  91.6786085  44.0883852  24.6273197  90.5160679
  43.0810012  23.3284997  91.9299988  43.2572430  22.4639886  91.2937139
  42.0676354  23.2217528  92.3161645  44.0820012  23.3274997  93.1169988
  45.0880942  23.1777419  92.7311356  43.8786340  22.4790385  93.7680620
  44.0700012  24.6344997  93.9589988  44.2388955  25.5008572  93.3240827
  44.8852306  24.6225569  94.6800593  42.7560012  24.7854997  94.7129988
  42.4334637  23.8388984  95.1433100  41.9392845  25.1275088  94.0834929
  42.9590012  25.8044997  95.8849988  43.8977134  25.6235316  96.3982384
  42.1690349  25.6790328  96.6207320  42.9310012  27.2464997  95.3829988
  42.0159809  27.4402622  94.8378061  43.7729041  27.4342751  94.7272482
  43.6250012  28.1754997  96.4149988  44.7780012  28.6094997  96.3249988
  42.7190012  28.4974997  97.3249988  43.1170012  29.1814997  98.4839988
  42.6016386  30.1290097  98.4383024  44.1819280  29.3558065  98.4316542
  42.7350012  28.4154997  99.8069988  42.8560406  29.0720955 100.6526496
  43.7080012  27.1454997  99.9579988  43.7418573  26.8426321 100.9957492
  44.6995957  27.4580430  99.6552745  43.2410012  26.0384997  99.1149988
  42.7080012  24.7654997  99.7789988  41.5220012  25.2534997 100.6769988
  40.5990012  24.2354997 101.1909988  41.1269647  23.4752535 101.7517744
  40.1303033  23.7295098 100.3518959  39.3710012  24.8514997 102.0569988
  38.7895920  24.0699047 102.5295680  38.7032531  25.4919089 101.4989975
  39.9120012  25.6974997 103.1819988  40.5090012  26.9984997 102.6949988
  41.2130408  26.7804634 101.9037198  41.0250260  27.4593190 103.5241332
  39.7126247  27.6454942 102.3589935  38.8360012  26.0574997 104.1299988
  38.3021955  25.1591783 104.3997843  38.1854959  26.7771182 103.6659275
  39.3052616  26.4863478 105.0036011  40.9820012  25.0434997 103.9919988
  40.5983742  24.1263677 104.4136399  41.2822187  25.7095468 104.7869205
  41.8319185  24.8285546 103.3604339  42.2040012  23.8754997  98.7049988
  43.7290012  24.1374997 100.6579988  41.4100012  28.0064997  99.7619988
  40.4890012  28.9574997  99.7969988  40.6240012  30.1464997 100.1079988
  39.1020012  28.3034997  99.5849988  38.6392719  28.2104057 100.5621211
  38.4704767  28.9850413  99.0205655  39.2250012  26.9344997  98.8689988
  39.7522108  27.0531820  97.9287725  39.8172132  26.2430374  99.4599284
  37.8210012  26.3244997  98.5919988  37.1855009  26.5587689  99.4422407
  37.4059601  26.8654932  97.7451624  37.7590012  24.7614997  98.2769988
  38.2701466  24.1944360  99.0528049  36.7390823  24.3858313  98.2480031
  38.4360012  24.4604997  96.9339988  39.3057868  25.0814938  96.7296945
  38.7742502  23.4293075  96.8526885  37.3540012  24.7154997  95.8479988
  36.5239488  24.0549685  96.0937885  36.9918392  25.7296018  95.9920597
  37.7340012  24.5294997  94.3439988  37.9238064  23.4800133  94.1513013
  36.8753117  24.8032355  93.7323885  38.8810012  25.3584997  93.9419988
  39.7520653  25.3542748  94.5797945  38.9380012  26.1094997  92.8399988
  39.8286436  26.6659061  92.5854837  37.8060012  26.2654997  91.8439988
  37.8910145  25.5212591  91.0539990  36.8209602  26.1360048  92.2782872
  37.9020012  27.6524997  91.2069988  37.0222586  27.7354457  90.5699132
  37.7457181  28.3454639  92.0315200  39.1590012  28.0834997  90.4109988
  39.0928770  29.1709015  90.3750573  39.9926400  27.8515262  91.0680670
  39.4480012  27.5584997  89.0299988  39.7032983  26.5151927  89.2016932
  38.4777104  27.5570419  88.5364212  40.4770012  28.2004997  88.1109988
  41.4059331  28.3028439  88.6688528  40.6926255  27.5108615  87.2995000
  40.1000012  29.6244997  87.5269988  39.0360827  29.8141963  87.6572896
  40.6160290  30.4041959  88.0843345  40.4450012  29.7804997  86.0379988
  41.4445955  29.3794392  85.8900913  39.7742757  29.1052199  85.5112753
  40.3480012  31.2244997  85.3679988  40.5335740  31.1669622  84.2996724
  41.0718875  31.9153395  85.7868900  39.3607382  31.6551093  85.5095197
  51.4020012 124.4994997  85.7049988  52.3260933 124.0234271  85.3922086
  50.5919632 123.7972317  85.5305044  51.4642921 124.6700075  86.7762872
  51.1710012 125.8034997  84.9559988  51.1277298 125.6191790  83.8839183
  52.0086780 126.4768564  85.1163179  49.9030012 126.4504997  85.3929988
  49.7562689 126.3461092  86.4679412  49.0479802 125.9675764  84.9240688
  49.8840012 127.9994997  85.0069988  48.8712068 128.3489483  85.1951029
  50.0290697 128.0615484  83.9295893  50.8710012 128.9494997  85.7099988
  50.6637044 129.9572621  85.3592626  51.8647781 128.6969736  85.3439345
  50.8820012 128.9494997  87.2549988  51.6523040 129.6233849  87.6255783
  51.1370554 127.9605510  87.6298386  49.5480012 129.3634997  87.8149988
  48.7592265 128.8092770  87.3095863  49.3744810 130.4145886  87.5884313
  49.4310012 129.1484997  89.3099988  49.3552808 128.0746220  89.4758423
  48.4788546 129.5723410  89.6237813  50.5740012 129.7294997  90.2059988
  50.7168676 130.8000044  90.0750414  51.5424439 129.2685177  90.0157585
  50.1490012 129.4424997  91.6729988  49.9775048 128.3720735  91.7628637
  49.1849967 129.9213742  91.8427148  51.1580012 129.9164997  92.7689988
  51.1267480 131.0016360  92.8400149  52.1745993 129.6621053  92.4741433
  50.8730012 129.3324997  94.1599988  51.2793475 128.3312345  94.2807036
  49.8048907 129.2523911  94.3533707  51.5010012 130.2994997  95.2169988
  52.5094575 130.5319214  94.8789930  51.6107697 129.7613925  96.1543703
  50.7810012 131.6114997  95.4799988  49.7407784 131.4400494  95.7366821
  50.7865624 132.2208836  94.5801586  51.4640012 132.4114997  96.6229988
  52.5128281 132.5656673  96.4033732  51.3802550 131.8756371  97.5610323
  50.3770012 133.3204997  97.2789988  49.5380012 133.9264997  96.6519988
  50.5720012 133.3484997  98.6399988  49.4690012 134.0464997  99.3069988
  48.7015815 134.1696083  98.5577502  49.8040358 135.0205741  99.6327635
  48.9460012 133.2474997 100.4579988  48.2230607 133.8555213 100.9762273
  50.0510012 132.7884997 101.4429988  50.7316233 133.6256822 101.5183640
  50.5468820 131.9848401 100.9130756  49.6580012 132.3644997 102.7099988
  49.1420012 130.8654997 102.8579988  50.0050012 129.9994997 101.8139988
  51.0790012 129.3154997 102.3129988  50.7937705 128.5470206 103.0195909
  51.7382238 129.9946040 102.8459526  51.9530012 128.7184997 101.1529988
  52.5137307 127.8814304 101.5494158  52.6482725 129.4722716 100.8127009
  51.2710012 128.2064997  99.9269988  50.1140012 127.4024997 100.3579988
  50.4489589 126.6799260 101.0894525  49.7238223 126.8890562  99.4918370
  49.3589610 128.0618147 100.7591659  50.6730012 129.3134997  99.1099988
  51.4245313 130.0734344  98.9602802  49.8143876 129.7056347  99.6251520
  50.3785016 128.8911784  98.1601505  52.3040012 127.3544997  99.2069988
  53.1695161 127.9596836  98.9817916  51.8765547 126.9785852  98.2895960
  52.5910598 126.5257314  99.8380103  49.4390012 130.4614997 104.2639988
  47.7280012 130.8484997 102.4659988  48.2670012 132.0644997  99.9119988
  46.9930012 132.1724997  99.6469988  46.3830012 133.2544997  99.8179988
  46.3790012 130.8764997  99.3229988  47.1377500 130.1530967  99.0427463
  45.8514355 130.4418053 100.1683521  45.4190012 131.1754997  98.1689988
  44.7525409 131.9841804  98.4481533  45.9680877 131.5253464  97.3005840
  44.5530012 129.8964997  97.7819988  44.1121724 129.5330171  98.7067714
  43.7290657 130.2734272  97.1810653  45.1950012 128.7824997  97.0549988
  45.8271362 128.2388223  97.7546603  44.4393323 128.0775107  96.7171272
  46.0630012 129.2064997  95.8409988  46.9462420 129.7535424  96.1643110
  46.4276009 128.3259428  95.3155775  45.2720012 130.0584997  94.8679988
  44.3513594 129.5533707  94.5799631  44.9763688 131.0047351  95.3124738
  46.1190012 130.3494997  93.5949988  46.5289892 129.4216283  93.2134957
  45.4630241 130.7377810  92.8170028  47.2090012 131.3594997  93.8549988
  47.9182218 131.1034669  94.6276612  47.3880012 132.5014997  93.2339988
  48.2421542 133.1082179  93.4984331  46.5080012 133.1064997  92.1349988
  45.9082855 132.3045680  91.7078363  45.8067885 133.8223448  92.5491817
  47.3070012 133.7724997  90.9939988  46.6167498 134.0211921  90.1887596
  47.6932088 134.7196794  91.3656885  48.4870012 132.9254997  90.4249988
  49.2764258 132.7507494  91.1560105  48.1843872 131.9460892  90.0648824
  49.0560012 133.7534997  89.2489988  48.2422124 133.8422063  88.5327418
  49.2291272 134.7552390  89.6383967  50.3490012 133.2504997  88.5279988
  51.1911139 133.2756759  89.2170577  50.2421511 132.2117037  88.2278137
  50.6940012 134.0794997  87.3609988  49.8342236 134.1779391  86.7007146
  50.9462463 135.0890033  87.6805433  51.8890012 133.5084997  86.5369988
  52.5740308 132.9498971  87.1699384  51.5098193 132.7946161  85.8090535
  52.6640012 134.6114997  85.7909988  53.4333661 134.1807115  85.1573047
  53.1525862 135.2972150  86.4749726  52.0012621 135.1939440  85.1572192
  78.3450012  13.6864997  84.1789988  78.1130547  12.6386034  84.0160774
  79.2686318  13.7367385  84.7483602  78.5319172  14.1382946  83.2086608
  77.1810012  14.4164997  84.9239988  77.0039998  13.9166701  85.8748110
  76.2705853  14.2978546  84.3427240  77.4520012  15.8954997  85.1779988
  76.5661712  16.3573040  85.6138554  77.6107831  16.3912823  84.2224053
  78.6320012  16.1674997  86.0549988  78.6824183  17.2455059  86.1914198
  79.5266355  15.8918666  85.4987957  78.6640012  15.5044997  87.4179988
  78.5460206  14.4317481  87.2881613  77.7921886  15.8424529  87.9757582
  79.9690012  15.7774997  88.2729988  80.2240400  16.8339846  88.2129010
  80.8059390  15.2372248  87.8357173  79.8240012  15.3824997  89.7179988
  79.4068509  14.3772094  89.7058649  79.0464257  16.0297058  90.1213976
  81.0690012  15.4144997  90.6699988  81.7235970  16.2178314  90.3344194
  81.6239594  14.4895226  90.5246620  80.7660012  15.5984997  92.1879988
  80.1617329  16.4883164  92.3511766  81.6889621  15.7518742  92.7458486
  80.0060012  14.3324997  92.7709988  79.1000647  14.1260135  92.2053650
  79.6913776  14.5000544  93.8007397  80.9730012  13.0814997  92.7199988
  81.9811927  13.3456200  93.0319783  81.0650634  12.6716443  91.7156726
  80.4400012  11.9844997  93.6719988  81.2120291  11.2190433  93.6883818
  79.5894411  11.5472475  93.1523565  80.0090012  12.3374997  95.1159988
  79.7590261  11.4405499  95.6801313  79.1282045  12.9726511  95.1484622
  81.1920012  13.0624997  95.8569988  81.4569332  13.9522139  95.2952474
  82.0526708  12.3999002  95.8209201  80.9300012  13.4524997  97.3379988
  80.6311025  12.5841824  97.9113448  80.1448043  14.1966791  97.3990885
  80.0900012  14.7684997  97.4169988  79.9990012  15.5964997  96.5299988
  79.4460012  14.8614997  98.5809988  78.6300012  16.0864997  98.6659988
  79.1704255  16.6928559  97.9548478  78.6654734  16.5626893  99.6351103
  77.1290012  15.8824997  98.1869988  76.6919348  16.8660737  98.2364865
  76.3500012  14.9144997  99.1069988  75.3025673  14.9629726  98.8417937
  76.4697760  15.2865623 100.1168544  76.8290012  13.5694997  99.0109988
  77.4220012  12.8304997 100.2859988  78.2220012  14.0904997 101.0579988
  78.4460012  13.9354997 102.4389988  77.5220667  13.7178814 102.9587837
  78.8108649  14.8765861 102.8402816  79.5720012  12.8624997 102.7979988
  79.3354874  11.8973041 102.3682223  79.5357530  12.7814695 103.8747983
  80.9950012  13.1194997 102.4559988  81.7850012  11.9884997 103.1099988
  81.4980886  11.9237743 104.1505879  82.8350183  12.2296987 103.0366027
  81.5862291  11.0695768 102.5791621  81.1330012  13.2454997 100.9589988
  80.3911783  13.9443733 100.6040501  81.0055718  12.2758670 100.5118476
  82.1248499  13.6231143 100.7566619  81.4260012  14.4094997 103.1279988
  80.7891019  15.2147785 102.7933837  82.4501305  14.6233421 102.8613896
  81.3467880  14.3015819 104.2001527  76.2600012  12.3474997 101.1069988
  78.4920012  11.9154997  99.8299988  77.1340012  15.5264997  96.8009988
  76.0920012  15.1684997  96.2209988  74.9210012  14.9394997  96.6059988
  76.3770012  15.0994997  94.7329988  76.3872054  16.1123582  94.3436834
  77.3757312  14.7052879  94.5625804  75.3260012  14.2394997  94.0519988
  75.2966685  13.2890892  94.5734589  74.3571493  14.7009777  94.2144706
  75.5380012  13.9824997  92.5449988  75.7538523  14.9439723  92.0860514
  76.4502921  13.3965658  92.4645510  74.3990012  13.2484997  91.7479988
  74.1075398  12.3972864  92.3605282  73.5391015  13.9134365  91.7228269
  74.6880012  12.7294997  90.2779988  75.5220104  12.0363104  90.3664200
  73.8207305  12.1276925  90.0133279  74.9520012  13.6674997  89.1949988
  74.6026236  14.6568996  89.4860728  76.0214918  13.7573646  89.0263807
  74.2630012  13.2494997  87.8439988  73.2024702  13.0587594  87.9600685
  74.3535182  14.0298494  87.0895407  74.9800012  12.0304997  87.3589988
  76.0224049  12.0823066  87.6351591  74.5670012  10.9074997  86.6699988
  75.3316329  10.1627719  86.5016873  73.2330012  10.5434997  86.1179988
  73.3590806   9.6231602  85.5502838  72.5440425  10.3118615  86.9225861
  72.6070012  11.5884997  85.1999988  71.5894710  11.2899916  84.9505388
  72.5229230  12.5280192  85.7428551  73.4070012  11.8224997  83.9029988
  72.9366588  12.6287737  83.3401424  74.4055536  12.1695999  84.1538341
  73.5100012  10.5474997  82.9919988  73.9257611   9.7172963  83.5586124
  72.5211835  10.2289068  82.6666941  74.3940012  10.8334997  81.7419988
  74.1714586  10.0942279  80.9748339  74.1233329  11.7951938  81.3147892
  75.9290012  10.7864997  82.0229988  76.2264880  11.5545847  82.7346377
  76.2198109   9.8357180  82.4660313  76.7230012  10.9834997  80.7379988
  76.4242661  10.2494445  79.9937976  76.4574071  11.9525097  80.3211147
  78.2520012  10.9284997  80.9279988  78.7644141  11.1618618  79.9995355
  78.5860806   9.9465616  81.2456930  78.5786612  11.6459539  81.6754569
  19.6390012 122.0854997  83.6499988  19.8953565 123.0332234  83.1868242
  19.1956049 121.4528257  82.8865110  20.5636449 121.6140161  83.9714784
  18.6970012 122.2804997  84.8119988  17.8158704 122.7949945  84.4323851
  19.1797715 122.9692172  85.5000503  18.2630012 121.0234997  85.5489988
  17.6014332 120.4495562  84.9002726  17.6597508 121.3256384  86.4027974
  19.4110012 120.1014997  86.0569988  20.2542911 120.6749461  86.4355107
  19.8113401 119.4559177  85.2768330  18.8300012 119.1984997  87.2469988
  19.5361285 118.3856344  87.3960196  17.9192813 118.7448776  86.8594665
  18.5350012 119.8464997  88.5889988  17.5633607 120.3371180  88.5940484
  19.2649777 120.6148637  88.8346161  18.5610012 118.7134997  89.7189988
  19.2347240 117.9211418  89.3980058  17.5706478 118.2644488  89.7805088
  18.9840012 119.2054997  91.1169988  20.0081416 119.5597555  91.0070435
  19.0357935 118.3149193  91.7405917  18.1720012 120.2514997  91.8169988
  17.1197516 119.9847065  91.7453522  18.2825453 121.1959273  91.2855729
  18.5420012 120.4514997  93.2759988  19.6251363 120.5339258  93.3336460
  18.2756648 119.5443022  93.8177430  17.8830012 121.6644997  93.9639988
  16.8041501 121.5275015  93.9932030  18.0570507 122.5704138  93.3859380
  18.3710012 121.8714997  95.3669988  17.7935520 121.2189809  96.0173761
  18.1144538 122.8899016  95.6528502  19.8920012 121.6564997  95.6069988
  20.4607074 122.4115324  95.0668592  20.2216696 120.6950476  95.2233289
  20.2810012 121.7614997  97.1609988  21.2499927 121.2920577  97.2952547
  19.5608164 121.1580276  97.7071191  20.3110012 123.1914997  97.7909988
  19.3632973 123.6923863  97.6393054  21.0952781 123.7868195  97.3387013
  18.9390012 123.7624997  98.1879988  18.5070012 124.8624997  97.7839988
  18.2810012 122.9124997  98.9699988  16.9240012 123.2844997  99.3589988
  16.6604275 124.0214159  98.6153958  16.8765186 123.7382987 100.3382862
  15.9610012 122.0484997  99.2649988  15.0324710 122.3353247  99.7302483
  16.5890012 120.7844997 100.0329988  15.8206115 120.1995779 100.5200767
  17.2889354 121.1311085 100.7830250  17.2530012 120.0134997  99.0619988
  18.1430012 118.7444997  99.3729988  18.6250012 119.0054997 100.8639988
  19.5580012 120.1214997 101.0459988  19.4229970 120.8752928 100.2813036
  20.5741499 119.7529456 100.9391970  19.5010012 120.7344997 102.4299988
  18.4447895 120.8398795 102.6434488  19.9728943 121.7016986 102.5260203
  20.0610012 119.8894997 103.5419988  21.5210012 119.4314997 103.4049988
  21.6500770 118.9757144 102.4329220  21.7152947 118.7021871 104.1773026
  22.1698403 120.2838658 103.5398940  19.9740012 120.6894997 104.8369988
  18.9710973 121.0760535 104.9343327  20.7000508 121.4822535 104.8093710
  20.1907582 120.0121536 105.6503349  19.1460012 118.6874997 103.7379988
  18.1492070 119.0331864 103.9681816  19.5186048 118.0875065 104.5545922
  19.1286362 118.0962226 102.8338279  17.2490012 117.5964997  99.2189988
  19.3730012 118.7444997  98.6659988  15.6710012 121.7864997  97.8989988
  14.4870012 121.1184997  97.7319988  13.8040012 120.6674997  98.6269988
  14.1790012 120.9674997  96.2229988  14.8594475 120.1926473  95.8851385
  13.1825541 120.5378187  96.1568577  14.2920012 122.2664997  95.3539988
  13.6080654 123.0142230  95.7402664  15.2863813 122.6904719  95.4514085
  13.9720012 122.0104997  93.8549988  14.7390530 121.3563003  93.4484171
  13.0417211 121.4493327  93.8133369  13.8280012 123.2654997  92.9749988
  13.4278865 124.0508201  93.6136584  14.8228144 123.5907085  92.6804008
  12.9350012 123.1654997  91.7039988  11.9079114 123.0760160  92.0518210
  13.0053671 124.1344955  91.2136145  13.2150012 122.0844997  90.6819988
  13.2109622 121.1355980  91.2161057  12.3778205 122.0505892  89.9904088
  14.4730012 122.2024997  89.8999988  14.3616241 123.1186979  89.3318826
  15.2430956 122.3956618  90.6456455  14.9310012 121.0654997  89.0159988
  15.5664700 120.3502747  89.5161853  14.6410012 120.8284997  87.7069988
  14.9973324 119.9543736  87.1811265  13.7760012 121.7724997  86.8449988
  12.8667153 121.9273969  87.4232955  14.2764182 122.7334888  86.8030024
  13.3570012 121.3234997  85.3599988  12.9167450 120.3291523  85.4244418
  12.5585188 121.9882337  85.0359407  14.4720012 121.3224997  84.3049988
  15.3261252 120.7907883  84.7243578  14.1358781 120.7348229  83.4551980
  14.9210012 122.6914997  83.8269988  14.0406929 123.2691504  83.5540116
  15.3889211 123.2225610  84.6541080  15.8970012 122.6354997  82.6459988
  16.8237736 122.1200985  82.8910385  15.4980833 122.1290114  81.7713793
  16.2460012 124.1004997  82.2959988  15.3402854 124.6350946  82.0153385
  16.6309092 124.6030401  83.1815116  17.2500012 124.2494997  81.1899988
  18.1207014 123.6418755  81.4236416  16.8067096 123.8026123  80.3028138
  17.7070012 125.7004997  80.8449988  18.3619370 125.7026532  79.9789021
  18.2497277 126.1602385  81.6640403  16.8548194 126.3344426  80.6168681
  37.5250012 132.8244997  83.6069988  37.4871164 132.6239941  82.5407946
  38.5663538 132.9684252  83.8802389  37.0056168 133.7620300  83.7855731
  36.9060012 131.7054997  84.3949988  37.4314073 130.7787539  84.1707362
  35.8822343 131.5649144  84.0589166  36.9360012 131.9524997  85.9369988
  36.6270841 132.9744483  86.1563618  37.9599611 131.8641168  86.2945815
  36.0410012 130.9584997  86.7459988  36.1958063 129.9742087  86.3095854
  35.0028857 131.2178713  86.5441356  36.2560012 130.8614997  88.2689988
  35.6724065 131.6549323  88.7288410  37.3012192 131.1073025  88.4491796
  35.9250012 129.5454997  88.9549988  36.0330714 129.6998598  90.0270579
  36.6916820 128.8272587  88.6723198  34.5040012 128.9324997  88.6579988
  34.5247877 128.5251763  87.6488280  33.7879326 129.7529633  88.6402420
  34.0090012 127.8454997  89.6359988  33.0651230 127.5299209  89.1933308
  33.7513795 128.4155038  90.5267346  34.8120012 126.6114997  90.0429988
  35.8501387 126.9112095  90.1694323  34.7980267 125.9094338  89.2102411
  34.3400012 125.9134997  91.2879988  34.8330790 124.9443580  91.3186220
  33.2762871 125.7110388  91.1657246  34.5670012 126.6724997  92.6369988
  34.2958685 125.9827544  93.4334155  33.8415016 127.4830538  92.6791943
  35.9140012 127.2084997  92.9239988  36.1850760 127.7644159  92.0297423
  36.5576548 126.3309958  92.9431562  36.1960012 128.0504997  94.1749988
  36.0940464 127.4536068  95.0797507  35.5101131 128.8860781  94.2828883
  37.6070012 128.5764997  94.1219988  37.7785913 129.2118373  93.2593007
  38.3249493 127.7629014  94.0611677  37.8810012 129.3694997  95.3889988
  37.6838128 128.7644627  96.2648344  37.2516284 130.2507332  95.4262316
  37.1770012 130.7184997  95.3679988  36.6560012 131.1404997  94.3149988
  37.1610012 131.3134997  96.5049988  36.2770012 132.4204997  96.7079988
  35.7758444 132.6356407  95.7763238  36.8006410 133.3052879  97.0398770
  35.2640012 131.9544997  97.7609988  34.5327216 132.7250716  97.9408407
  36.0290012 131.6334997  99.0779988  36.8429335 132.3360461  99.1952320
  36.4421488 130.6377766  98.9758731  35.1550012 131.6944997 100.1959988
  35.2220012 130.6854997 101.4559988  35.2720012 129.3554997 100.8249988
  34.1690012 128.7194997 100.1599988  34.1308389 128.9159785  99.0964534
  33.2230019 129.0607549 100.5703977  34.2100012 127.1714997 100.4479988
  35.0436167 126.8619084  99.8303521  33.3066017 126.7204343 100.0635688
  34.4470012 126.5354997 101.8139988  34.5400012 125.0004997 101.6019988
  33.6791764 124.6778457 101.0326051  34.5311078 124.5288352 102.5733656
  35.4663102 124.7719760 101.0965826  35.7870012 126.9694997 102.3969988
  35.8539372 128.0450585 102.3386319  36.5795944 126.4956796 101.8459447
  35.8079966 126.6522797 103.4295818  33.4380012 126.8534997 102.8969988
  33.4019882 127.9223190 103.0466998  33.7378097 126.3694353 103.8143027
  32.4639617 126.4925597 102.5996701  36.4600012 130.9884997 102.3149988
  33.8580012 130.8704997 102.0719988  34.5690012 130.7774997  97.2759988
  33.7810012 130.8524997  96.3119988  33.5690012 131.7584997  95.5149988
  32.9790012 129.4904997  96.3359988  33.6821044 128.7166107  96.0456631
  32.7064893 129.2735905  97.3658506  31.7540012 129.5104997  95.4389988
  30.9285492 130.0041328  95.9400140  31.9414819 130.0818134  94.5354034
  31.3300012 128.0574997  95.0679988  32.0167047 127.6782440  94.3154980
  31.4747310 127.4384389  95.9499750  29.8990012 127.8964997  94.5939988
  29.7325606 126.8301098  94.4532287  29.2352592 128.2041126  95.3983761
  29.4540012 128.6824997  93.2019988  28.3986619 128.5123284  92.9990163
  29.5654935 129.7553929  93.3463962  30.3150012 128.2464997  91.9299988
  31.3033006 127.9455063  92.2740455  29.8675257 127.3669389  91.4756239
  30.4610012 129.3334997  90.8559988  30.7982511 130.2759540  91.2714771
  31.1959047 129.0493329  90.1039935  29.0720012 129.4894997  90.1619988
  28.1450553 129.3769536  90.7039016  28.9830012 129.7914997  88.8339988
  27.9893111 129.8439771  88.4127669  30.0980012 130.0764997  87.8339988
  29.9100884 131.0221314  87.3283404  31.0745974 130.1682080  88.2960922
  30.1380012 128.9374997  86.7489988  30.1895845 127.9774180  87.2611388
  29.1864273 128.9487495  86.2209461  31.2940012 129.0374997  85.7189988
  32.2208657 129.2729103  86.2420771  31.4488052 128.0713062  85.2467595
  31.0350012 130.1154997  84.6229988  30.0628229 129.9564473  84.1617864
  31.0045104 131.1115044  85.0613250  32.1850012 130.0644997  83.5069988
  32.1337224 130.9539486  82.8818259  33.1685677 130.0823992  83.9684113
  32.0580012 128.8634997  82.6129988  32.5059648 127.9849658  83.0738564
  31.0116339 128.6154384  82.4444310  32.7220012 129.0934997  81.2649988
  32.4490196 128.2807142  80.5965858  32.2709953 129.9885417  80.8421436
  34.2290012 129.2614997  81.2659988  34.5901340 129.5068056  80.2717769
  34.7376178 128.3571678  81.5825962  34.5322199 130.0619777  81.9349041
 122.3080012  95.9314997  81.5839988 121.9160954  96.9415952  81.5165758
 121.4832130  95.2443968  81.4184569 123.0162735  95.7969244  80.7710709
 122.9830012  95.6784997  82.9609988 122.2630445  95.8378236  83.7619240
 123.7780684  96.4026552  83.1168219 123.5430012  94.2474997  83.0609988
 124.3864447  94.1697411  82.3750792 122.7790535  93.5747394  82.6763578
 123.9670012  93.7594997  84.4319988 124.3484744  92.7438062  84.3539289
 123.1072772  93.7082318  85.0982962 125.0200012  94.6184997  85.0489988
 124.7157135  95.6618280  85.0278342 125.9322664  94.5542693  84.4582268
 125.3290012  94.2164997  86.5089988 126.2618602  94.7114051  86.7729300
 125.5436459  93.1500434  86.4957405 124.2420012  94.5174997  87.6249988
 123.3638219  93.8953661  87.4621460 123.9035324  95.5493601  87.5417350
 124.7780012  94.2744997  89.0369988 124.0852466  94.6984379  89.7628214
 125.7168062  94.8104213  89.1639523 125.0010012  92.7614997  89.3599988
 125.3432261  92.2999486  88.4362056 124.0153193  92.3436681  89.5610586
 125.9830012  92.3704997  90.5359988 126.9626489  92.7405676  90.2416536
 126.0520061  91.2830365  90.5264528 125.6500012  92.8404997  91.9529988
 126.0999962  92.1742017  92.6858647 124.5769242  92.8076550  92.1334288
 126.1730012  94.2884997  92.2179988 125.6371396  95.0238663  91.6227616
 127.2222026  94.3817604  91.9438662 126.0270012  94.6074997  93.7029988
 126.6408148  93.9220667  94.2849493 125.0040512  94.4582346  94.0370158
 126.4560012  96.0204997  94.0409988 125.8541389  96.7353025  93.4894884
 127.4848369  96.1624413  93.7209337 126.3670012  96.3214997  95.4829988
 126.9341289  95.5993942  96.0565586 125.3348385  96.2931143  95.8114855
 126.6690012  97.7254997  95.7979988 126.7970012  98.5904997  94.9819988
 126.7020012  97.8684997  97.1519988 126.5890012  99.2104997  97.7489988
 126.2812975  99.8878425  96.9667027 127.5643118  99.5054397  98.1081248
 125.5110012  99.2114997  98.9429988 125.3948516 100.2354423  99.2575536
 125.7870012  98.3034997 100.1829988 125.0377864  98.4962018 100.9388719
 126.7567833  98.5804826 100.5771917 125.7770012  96.9494997  99.8159988
 126.8710012  95.8374997 100.1349988 126.4310012  95.4804997 101.6129988
 125.8240012  94.2484997 101.9689988 126.0389690  93.8705646 102.9600300
 126.0567256  93.4452631 101.2758556 124.3070012  94.5124997 101.7909988
 123.8431798  93.5341814 101.7944936 124.2187828  94.9351189 100.8005506
 123.4630012  95.3644997 102.6759988 123.3520012  94.7434997 104.0709988
 123.0480259  93.7110607 103.9661040 122.5998023  95.2900669 104.6201445
 124.3041217  94.8344602 104.5719075 123.9710012  96.7884997 102.7529988
 124.1304405  97.1502755 101.7488019 124.8805227  96.8062489 103.3264319
 123.2088229  97.3773620 103.2425113 122.0710012  95.4194997 102.0549988
 122.1432717  95.8211124 101.0552157 121.4393698  96.0562301 102.6560529
 121.6520305  94.4241672 102.0201858 126.5770012  94.7074997  99.2219988
 128.2190012  96.4054997 100.0789988 124.2750012  98.7404997  98.3299988
 123.0960012  98.8564997  98.8979988 123.0190012  99.3274997 100.0619988
 121.9540012  98.3364997  98.0029988 120.9913967  98.5354435  98.4627454
 121.9290934  98.8307094  97.0349888 122.2180012  96.8244997  97.8479988
 123.1987283  96.6564764  97.4167176 122.2261341  96.3295765  98.8139273
 121.1110012  96.1584997  96.9059988 121.1081222  95.0867291  97.0875297
 120.1420450  96.5245290  97.2364705 121.2530012  96.4374997  95.4019988
 120.3518621  96.0471426  94.9326634 121.2275106  97.5151088  95.2594828
 122.4900012  95.8584997  94.6469988 123.3949663  96.3222325  95.0341562
 122.5691159  94.7985050  94.8805220 122.4450012  96.0274997  93.0789988
 123.1643347  95.3754736  92.5859245 121.4728735  95.7844386  92.6592285
 122.7750012  97.4994997  92.7419988 122.3489272  98.1530387  93.4942804
 123.8537954  97.6429005  92.7865540 122.3050012  97.8664997  91.3889988
 121.3072418  97.5668268  91.1057560 123.0270012  98.5674997  90.4699988
 122.6170979  98.8037335  89.4985139 124.4370012  99.0864997  90.6899988
 124.5141962 100.0560208  90.2008253 124.6237357  99.2623410  91.7435124
 125.5280012  98.1784997  90.1259988 125.3946110  97.1560478  90.4774304
 125.4526571  98.1384754  89.0410194 126.9030012  98.6674997  90.5099988
 126.9770606  99.7242111  90.2531270 127.0089330  98.6093273  91.5897665
 128.0170012  97.9274997  89.8629988 128.9300692  98.4888639  90.0482606
 128.1336239  96.9772687  90.3812123 127.8550012  97.6614997  88.3269988
 128.6992616  97.0685991  87.9801800 126.9726774  97.0517609  88.1527909
 127.7910012  98.9234997  87.4809988 126.7429638  99.2160812  87.5109437
 128.3285881  99.6664032  88.0674531 128.2720012  99.0034997  86.0479988
 128.1983299 100.0405454  85.7301566 129.3358178  98.7785400  86.0796272
 127.6130012  98.1064997  85.0079988 128.1099899  98.2008172  84.0471786
 126.5681826  98.3576017  84.8595300 127.6624966  97.0627061  85.3049603
 134.3890012  53.2654997  82.4819988 134.8887638  54.1500158  82.0995102
 133.6437422  52.9641220  81.7515533 135.1270237  52.4706091  82.5459027
 133.7470012  53.5354997  83.8529988 133.0384924  54.3561642  83.7543676
 134.5197324  53.8797594  84.5350439 133.0570012  52.3664997  84.4189988
 132.5173166  51.8219445  83.6443187 132.3071861  52.6875991  85.1393067
 134.0390012  51.4044997  85.1289988 134.5228755  51.8731710  85.9830847
 134.8419723  51.0608053  84.4787546 133.2250012  50.1834997  85.6289988
 133.8163550  49.2876954  85.4575101 132.3461635  50.0959562  84.9923313
 132.7840012  50.2144997  87.0989988 132.0659047  51.0117920  87.2819725
 133.6246782  50.4040536  87.7630081 132.1580012  48.8884997  87.4549988
 132.9113038  48.1081545  87.3635301 131.3875526  48.6551153  86.7213975
 131.5530012  48.8414997  88.8509988 130.5491062  49.2641267  88.8453176
 132.1351847  49.4504252  89.5401693 131.4920012  47.3854997  89.3819988
 132.4925710  46.9612000  89.3333068 130.8793090  46.7971810  88.7000409
 130.9600012  47.2414997  90.7719988 131.6609241  47.6843032  91.4762225
 130.8919354  46.1855314  91.0322432 129.5780012  47.8894997  90.9289988
 128.9100158  47.5282177  90.1500175 129.6427074  48.9679645  90.7953772
 128.9530012  47.5914997  92.2649988 129.1068178  46.5392491  92.4915559
 127.8771044  47.7286738  92.1738976 129.4720012  48.4784997  93.4459988
 129.4191244  49.5144705  93.1155137 130.5251458  48.2624692  93.6024957
 128.7340012  48.3714997  94.7879988 128.3992849  47.3561383  94.9733401
 127.8460393  48.9979597  94.7752117 129.6500012  48.8324997  95.9639988
 130.0232707  49.8326515  95.7839789 130.4933250  48.1606595  96.0712585
 130.6910012  47.7074997  96.2849988 130.6420012  46.5994997  95.8299988
 131.5330012  48.1614997  97.2249988 132.3670012  47.2294997  97.9409988
 133.1665287  46.8618056  97.3156838 131.7164063  46.4075027  98.2022254
 132.9410012  47.8994997  99.2009988 133.5258340  47.2007981  99.7760472
 131.7900012  48.4764997 100.0799988 132.1541129  48.5656726 101.0945291
 130.9945129  47.7420673 100.0601847 131.3090012  49.7534997  99.6009988
 130.0360012  50.2534997 100.3519988 130.7440012  51.1174997 101.4799988
 130.0380012  51.4854997 102.5919988 130.5568803  51.3142575 103.5261452
 129.0980092  50.9452960 102.6582727 129.6400012  52.9784997 102.4409988
 128.9100525  53.3097158 103.1688173 129.1819217  52.9839757 101.4624743
 130.6810012  54.0294997 102.4079988 129.9160012  55.3054997 102.2479988
 129.2360794  55.1981400 101.4140238 130.6236157  56.0945231 102.0410599
 129.3940456  55.5190241 103.1686978 131.6390012  54.0514997 103.5879988
 132.0221358  53.0536495 103.7370522 131.1160673  54.4060173 104.4581869
 132.4458210  54.7246431 103.3365695 131.4520012  53.9214997 101.1509988
 131.8954643  52.9388506 101.0891664 132.2296057  54.6704722 101.1463846
 130.7933174  54.0794003 100.3091923 129.3500012  51.0374997  99.3579988
 129.2970012  49.1224997 100.9619988 133.7370012  49.0574997  98.8239988
 134.5380012  49.5084997  99.7949988 134.6790012  49.1154997 100.9489988
 135.4060012  50.7264997  99.2239988 135.2632314  51.4983671  99.9732587
 136.4388440  50.4022655  99.3240728 135.1270012  51.2374997  97.8219988
 135.8864549  51.9446914  97.5070847 135.1413509  50.4360310  97.0902371
 133.7240012  51.9484997  97.8079988 132.9589304  51.1796053  97.8795689
 133.6548186  52.5311021  98.7233419 133.4330012  52.8694997  96.6199988
 134.0744287  53.7460209  96.6906186 133.6920709  52.3778143  95.6854773
 131.9890012  53.3384997  96.5439988 131.3107602  52.5029951  96.7046922
 131.7944557  54.0455194  97.3481481 131.6670012  53.9934997  95.2459988
 131.8727051  55.0575018  95.3522363 132.3506840  53.6233503  94.4871278
 130.2140012  53.8004997  94.7409988 129.5206879  53.9081967  95.5670122
 129.9736259  54.5929628  94.0334905 130.0370012  52.4664997  94.0509988
 130.0688279  51.5424454  94.6083718 129.8210012  52.3764997  92.7339988
 129.6857488  51.4180505  92.2536948 129.7390012  53.5324997  91.8099988
 128.7673521  53.9934551  91.9792300 130.4793882  54.2723328  92.0931154
 129.8740012  53.2194997  90.2769988 130.1153424  54.1527895  89.7696237
 130.7437070  52.5760989  90.1582295 128.6600012  52.5614997  89.5929988
 128.4244238  51.6169535  90.0833485 127.7784915  53.1875278  89.7003931
 128.9300012  52.3014997  88.0829988 129.2504689  53.2369198  87.6297499
 129.7701435  51.6153530  87.9910826 127.7250012  51.7324997  87.3159988
 127.6487694  50.6764568  87.5680945 126.8264743  52.1977353  87.7120167
 127.7480012  51.8524997  85.7789988 126.7653065  51.6375132  85.3630960
 127.9853949  52.8721034  85.4808605 128.7870012  50.8894997  85.1209988
 129.4956950  51.3930553  84.4682356 129.3866497  50.3826082  85.8738571
 128.0130012  49.8384997  84.3189988 128.6870595  49.0906305  83.9122973
 127.4754763  50.2789179  83.4860283 127.2884204  49.3253170  84.9449119
  90.3190012 121.1134997  84.1829988  90.6382170 120.0770818  84.1343343
  91.2013458 121.7243974  84.3505155  89.9139728 121.3804988  83.2107460
  89.2760012 121.3254997  85.2939988  89.7043390 121.0222261  86.2478095
  88.4326918 120.6642208  85.1141275  88.7740012 122.8404997  85.4009988
  88.2106625 123.1929661  84.5370856  89.5792904 123.5574283  85.5482864
  87.8720012 122.8644997  86.6349988  88.4349958 123.1090136  87.5330522
  87.4056517 121.8990515  86.8250886  86.7770012 123.9294997  86.4349988
  85.9400485 123.6628300  87.0752882  86.4231716 123.8257222  85.4105966
  87.1600012 125.4164997  86.6979988  86.2995775 126.0098585  86.3940029
  87.9565999 125.6541371  85.9961897  87.6020012 125.8454997  88.1519988
  88.4484205 125.2257302  88.4422229  86.7927120 125.5951353  88.8365414
  87.9810012 127.3534997  88.3299988  87.1188208 128.0109910  88.2260700
  88.7084629 127.6873918  87.5924356  88.5870012 127.5194997  89.7639988
  89.5966148 127.1142660  89.7666366  88.0131315 126.9091404  90.4602116
  88.6180012 128.9054997  90.2469988  87.6335110 129.3473087  90.1095834
  89.3015976 129.4842139  89.6263420  89.0530012 129.0264997  91.7369988
  89.5593089 129.9797114  91.8733103  89.7911284 128.2577679  91.9591419
  87.9050012 128.9374997  92.7569988  87.6360073 127.8899942  92.8692199
  87.0375102 129.4289834  92.3204519  88.1790012 129.5544997  94.1149988
  88.4685069 130.5981594  94.0044871  89.0021635 129.0629040  94.6258915
  86.9590012 129.5024997  94.9889988  86.6382234 128.4711499  95.0927503
  86.1576328 130.0313998  94.4799158  87.1430012 130.1234997  96.3979988
  87.4954944 131.1440804  96.3192303  87.8616847 129.5507058  96.9719936
  87.8320012 129.1974997  97.2589988  88.6520012 129.5794997  98.0869988
  87.3640012 127.9444997  97.1079988  87.8560012 126.8744997  97.9699988
  87.2793392 127.0330821  98.8687616  88.8945621 127.0913331  98.1738774
  87.6790012 125.4014997  97.4639988  86.7011228 125.1612602  97.0806805
  88.0300012 124.4604997  98.6239988  87.8738325 123.4422702  98.2944215
  87.3291488 124.6788464  99.4200614  89.4140012 124.6434997  99.0939988
  89.8980012 124.1594997 100.4819988  88.8650012 125.0634997 101.3089988
  89.2930012 126.3734997 101.8599988  89.4351214 127.1204133 101.0898618
  90.2482205 126.2672278 102.3660218  88.3210012 126.8704997 102.9359988
  88.8135466 127.7095830 103.4109589  88.0312403 126.1612519 103.6978277
  87.0130012 127.4264997 102.3589988  86.1960012 126.3924997 101.7139988
  86.8150984 125.8517122 101.0114309  85.3918382 126.8839425 101.1868310
  85.7877668 125.7435323 102.4741981  86.1890012 127.8364997 103.5989988
  86.8115415 128.4426897 104.2390700  85.8508116 126.9497640 104.1046643
  85.3445161 128.4127470 103.2495980  87.3130012 128.5974997 101.4119988
  87.8464274 129.3647694 101.9531416  86.3829397 128.9984615 101.0380131
  87.9140931 128.2477215 100.5850897  89.6200012 122.7234997 100.7449988
  91.3030012 124.5804997 100.6709988  88.5300012 125.3384997  96.3859988
  88.5520012 124.2994997  95.5339988  87.9750012 123.2254997  95.6559988
  89.6510012 124.7384997  94.5609988  89.5234192 125.8029599  94.3930698
  90.6184629 124.6275066  95.0443261  89.5920012 123.9324997  93.2399988
  89.6713308 122.8704266  93.4443723  88.6379161 124.0717687  92.7416426
  90.7230012 124.3464997  92.3139988  90.7177292 125.4323066  92.2625254
  91.6470870 124.0713247  92.8164021  90.7400012 123.7494997  90.8909988
  90.7541717 122.6613344  90.9110390  89.8777937 124.0312229  90.2914721
  92.0490012 124.2494997  90.1669988  92.9018457 123.8458901  90.7088996
  92.0660013 123.7823825  89.1841999  92.2260012 125.7594997  89.9939988
  91.3946592 126.1482296  89.4079437  92.1778600 126.2542200  90.9600486
  93.5270012 126.1334997  89.3239988  94.3268427 126.1697467  90.0544230
  93.8013171 125.3609679  88.6068576  93.3940012 127.4924997  88.5669988
  93.7066771 128.3786547  89.0985221  92.9330012 127.6614997  87.2949988
  92.8648109 128.6473709  86.8579426  92.4810012 126.5374997  86.3679988
  93.2401825 126.4235597  85.5960646  92.4460867 125.5939173  86.9010226
  91.1350012 126.7844997  85.6829988  90.8679760 125.8141237  85.2661378
  90.4533702 126.9554780  86.5140250  90.9210012 127.8744997  84.6219988
  91.0231404 128.8416248  85.1142827  91.7330128 127.8126107  83.9027555
  89.5490012 127.8224997  83.8659988  89.2676055 126.7845154  83.7030568
  88.7676499 128.2554794  84.4881754  89.6010012 128.5934997  82.4799988
  88.5763719 128.6729118  82.1216434  89.9238761 129.6108242  82.6835363
  90.4270012 128.0044997  81.3829988  91.4698604 127.9227964  81.6840837
  90.0983961 126.9920478  81.1554158  90.3520012 128.8684997  80.0539988
  90.4888769 128.1858720  79.2190140  89.3205888 129.2086149  79.9921673
  91.3320012 130.1444997  79.8729988  91.1012117 130.6809536  78.9575631
  92.3751057 129.8508642  79.8234798  91.2240168 130.8402476  80.7002927
 123.5640012  36.7994997  83.2869988 122.5876313  36.4114886  83.5600891
 123.7785948  36.4730644  82.2735001 123.4973329  37.8839561  83.2759703
 124.6480012  36.3224997  84.2659988 124.6342816  35.2339183  84.2636645
 124.3379621  36.6294739  85.2612156 126.0520012  36.8014997  83.9889988
 125.9777576  37.7897435  83.5353569 126.4632912  36.1482246  83.2220286
 127.0460012  36.8564997  85.1699988 128.0325117  37.0381351  84.7492191
 127.0871674  35.8647419  85.6176904 126.7850012  37.8804997  86.2469988
 125.8379769  37.6692795  86.7370029 126.6787599  38.8614481  85.7867619
 127.8890012  37.9364997  87.3049988 128.8379754  38.1281459  86.8074682
 127.9799171  36.9551995  87.7658255 127.6650012  39.0044997  88.4129988
 128.4475189  38.8406958  89.1516491 126.7270543  38.7410147  88.8998883
 127.6350012  40.5174997  88.0199988 127.0513580  40.6489420  87.1097600
 128.6423355  40.8575096  87.7868576 127.0480012  41.3994997  89.1289988
 127.5500295  41.2304516  90.0792257 125.9949754  41.1781394  89.2984491
 127.1980012  42.8784997  88.7289988 126.6076777  42.9732189  87.8202383
 128.2403517  42.9795205  88.4277859 126.8460012  44.0004997  89.6989988
 125.7716632  44.1469480  89.6101624 127.3077249  44.9053515  89.3076136
 127.1920012  43.8584997  91.1829988 127.3482099  44.8485528  91.6044398
 128.1446037  43.3387069  91.2668674 126.1260012  43.0824997  92.0159988
 125.7137088  42.2748080  91.4135860 125.2900489  43.7263487  92.2746805
 126.7020012  42.4684997  93.3009988 127.4248248  41.6975429  93.0550382
 125.8995072  41.9834521  93.8503841 127.3450012  43.4774997  94.1919988
 126.6509182  44.2753221  94.4238805 128.2172607  43.9042118  93.7112191
 127.9050012  42.6494997  95.4219988 129.0450012  42.2914997  95.4659988
 126.9980012  42.4884997  96.4449988 127.6480012  42.1574997  97.7089988
 127.7909360  43.0498172  98.2995926 128.6072604  41.6922456  97.5342065
 126.6810012  41.1824997  98.4329988 125.8109780  41.7438368  98.7310831
 127.3070012  40.4724997  99.6769988 127.7146135  41.2174520 100.3468489
 128.1155358  39.8459734  99.3215812 126.2950012  39.6604997 100.3659988
 125.3540012  40.0734997 101.5279988 124.6100012  38.7254997 102.0349988
 124.2670012  37.6254997 101.1419988 124.2897676  36.6354780 101.5784937
 124.9040596  37.5892896 100.2629980 122.8960012  37.9544997 100.6219988
 122.7076630  37.2143578  99.8545564 122.9456577  38.9296128 100.1593265
 121.6160012  37.9704997 101.5209988 121.6720012  39.2574997 102.3109988
 122.6413450  39.3298648 102.7847813 120.9004024  39.2191757 103.0654964
 121.4862754  40.0862836 101.6444103 120.3850012  38.0074997 100.6709988
 120.4602153  37.2313388  99.9249216 120.2990835  38.9797762 100.2197046
 119.5401447  37.8194654 101.3176499 121.6660012  36.7544997 102.3909988
 121.7107468  35.8733796 101.7683374 120.7777308  36.7199815 103.0037257
 122.5402218  36.7998685 103.0243351 126.1420012  40.5154997 102.7159988
 124.3310012  40.9214997 100.8779988 126.3110012  40.1694997  97.5249988
 125.0910012  40.1034997  96.9479988 124.0510012  40.4884997  97.4679988
 125.1840012  39.5104997  95.5539988 125.9726928  40.0704664  95.0621087
 125.5633666  38.4978077  95.6655513 123.8260012  39.5264997  94.7129988
 123.1189296  38.8439363  95.1714942 123.3725630  40.5109955  94.7695218
 124.0280012  39.1284997  93.2419988 123.0266750  39.1002881  92.8198566
 124.5198041  39.9907163  92.7984027 124.8120012  37.8494997  92.8389988
 125.8341513  37.9242348  93.2055091 124.3845572  36.9668617  93.3085133
 124.8580012  37.6314997  91.3319988 125.0727625  38.5722142  90.8291720
 125.6860002  36.9659073  91.0958097 123.5830012  37.0384997  90.7659988
 123.3629645  36.1557710  91.3643924 122.7806664  37.7458087  90.9565003
 123.5610012  36.6464997  89.2209988 124.0436212  37.4343158  88.6544269
 124.1717223  35.7545421  89.0876665 122.1630012  36.3634997  88.6869988
 121.7978803  35.3479456  88.7168441 121.3190012  37.3154997  88.1779988
 120.3227901  37.0861532  87.8278935 121.6780012  38.7174997  88.0649988
 120.7589908  39.3003430  88.0344258 122.2224909  39.0549556  88.9398332
 122.4770012  39.0314997  86.8259988 123.4764975  38.6252280  86.9765159
 122.0339997  38.4547351  86.0163375 122.5840012  40.5454997  86.3869988
 121.5763053  40.8144520  86.0702643 122.7706356  41.0954963  87.3052445
 123.6220012  41.0044997  85.2749988 123.8466273  42.0658050  85.3544912
 124.5738567  40.4843242  85.3670503 122.9930012  40.6914997  83.8619988
 122.6920455  39.6469688  83.8074915 122.0874025  41.2700208  83.7012837
 124.0160012  40.9604997  82.7009988 124.9587347  40.4555088  82.9037809
 123.6432070  40.5405951  81.7685082 124.3000012  42.4574997  82.4829988
 123.3708495  42.9732397  82.2536423 124.6383300  42.8656500  83.4328724
 125.3700012  42.7914997  81.3799988 125.5742578  43.8575824  81.3514371
 125.0373454  42.4976653  80.3901793 126.3077943  42.2802206  81.5781875
  27.3110012  41.4614997  79.8249988  28.1909614  42.0971865  79.8260874
  26.8051266  41.5976457  78.8735025  27.6485847  40.4298398  79.8732414
  26.4130012  41.7824997  80.9609988  26.0942136  42.8221920  80.9098392
  26.9463812  41.6727627  81.9013591  25.1940012  40.8874997  80.9469988
  24.7217687  40.9199047  79.9652272  24.4579102  41.2757063  81.6481668
  25.4880012  39.4634997  81.3069988  25.9094430  38.9911764  80.4223816
  24.5383211  38.9639059  81.4919848  26.4270012  39.2174997  82.4859988
  27.4232630  39.5960609  82.2721609  26.5368073  38.1479071  82.6571112
  25.8900012  39.9044997  83.8059988  25.7749375  40.9782005  83.6690905
  26.5914759  39.7760997  84.6275970  24.5170012  39.2864997  84.2019988
  24.5590489  38.2022438  84.2879703  23.7379673  39.5038757  83.4725579
  24.1350012  39.8684997  85.5159988  23.9101228  40.9267861  85.3898618
  24.9842074  39.8170797  86.1948866  22.9720012  39.1924997  86.1369988
  23.3795955  38.3412293  86.6780593  22.3944147  38.7789724  85.3111863
  22.0450012  39.9764997  87.0549988  21.1255094  39.4025148  87.1465157
  21.7790661  40.8986963  86.5389941  22.6140012  40.3314997  88.5039988
  23.4478740  41.0280846  88.4495335  22.9857463  39.4559183  89.0334238
  21.4570012  41.0034997  89.3529988  20.6492126  40.3108185  89.5763583
  21.0025758  41.8407801  88.8265683  22.0720012  41.5154997  90.6339988
  21.4163667  42.2647434  91.0744864  23.0165538  42.0151928  90.4380370
  22.2940012  40.4234997  91.6649988  23.1912257  39.8662734  91.4163381
  21.4637712  39.7245304  91.6079707  22.4040012  40.9454997  93.1319988
  21.5328339  41.5336152  93.3912837  23.2871504  41.5625067  93.2478379
  22.7190012  39.7134997  93.9789988  22.6260012  38.5824997  93.5969988
  23.0230012  40.0704997  95.2519988  23.3100012  39.0414997  96.1459988
  24.1380508  38.4505306  95.7846798  22.4450854  38.4044187  96.2610660
  23.6930012  39.7434997  97.5319988  24.0054509  39.0034541  98.2500529
  22.4680012  40.4934997  98.0579988  21.5862417  39.8671771  98.0533839
  22.2796996  41.3622697  97.4396412  22.7890012  40.8894997  99.3829988
  23.3470012  42.3154997  99.8529988  24.8160012  42.0014997 100.2779988
  25.4640012  43.0204997 101.0709988  24.7737165  43.5161488 101.7410943
  25.8655286  43.7900221 100.4179996  26.6970012  42.4594997 101.8499988
  27.1970300  43.3827014 102.1144201  27.3920713  41.8291833 101.3143163
  26.4220012  41.7604997 103.1439988  25.6540012  40.5164997 102.8689988
  24.8023896  40.7660116 102.2510703  25.3138580  40.1191928 103.8137473
  26.3050418  39.8016715 102.3884951  27.7820012  41.3914997 103.7669988
  28.4084921  42.2702618 103.7674648  28.2241252  40.5936430 103.1975069
  27.5958114  41.0684562 104.7810369  25.8470012  42.6394997 104.1999988
  26.5258933  43.4573835 104.3904023  25.7098750  42.0650365 105.1037899
  24.8934973  43.0248753 103.8687118  23.3940012  43.2424997  98.7349988
  22.5650012  42.6794997 101.0299988  24.7270012  40.6814997  97.3449988
  25.9710012  40.2034997  97.5569988  26.2790012  39.0144997  97.6299988
  27.0490012  41.3684997  97.6439988  26.5166800  42.3141100  97.6468763
  27.5691292  41.3170927  98.5972727  27.9860012  41.2724997  96.5279988
  28.8554023  41.8477246  96.8268614  28.3089081  40.2368656  96.4929826
  27.5410012  41.7244997  95.1379988  26.6640551  42.3625295  95.2124131
  28.3234539  42.3352313  94.6943327  27.2500012  40.5274997  94.1909988
  28.1886142  40.0290733  93.9558759  26.6300392  39.7876240  94.6914317
  26.5730012  40.9314997  92.8709988  26.1340228  40.0587568  92.3919174
  25.7473740  41.6082066  93.0826315  27.5070012  41.6014997  91.9189988
  27.7146379  42.5742301  92.3621506  28.4368397  41.0411161  91.9600897
  27.0960012  41.7954997  90.3919988  27.8831882  42.1961698  89.7640019
  26.7628316  40.8742520  89.9159245  25.9090012  42.7614997  90.4739988
  25.3705487  42.8006470  91.4089268  25.4740012  43.5984997  89.4599988
  24.6300069  44.2540518  89.6197958  26.0690012  43.7024997  88.1179988
  26.7575126  44.5449903  88.1551809  26.6749099  42.8234499  87.9287183
  25.0940012  43.9234997  86.9279988  24.3025904  43.1753473  86.9533367
  24.6030220  44.8882079  87.0408550  25.8230012  43.8724997  85.5269988
  26.7717408  44.4065167  85.5801570  26.0659451  42.8476185  85.2603515
  24.9500012  44.4974997  84.4209988  24.4368855  45.3572028  84.8461668
  25.6050958  44.8877828  83.6440721  23.9230012  43.5314997  83.7839988
  23.8732358  43.7440730  82.7177314  24.2995289  42.5156280  83.8668042
  22.4930012  43.6114997  84.3499988  22.4593327  43.1217809  85.3215568
  22.2342922  44.6536768  84.5282417  21.4310012  42.9984997  83.4659988
  20.4292705  43.1979683  83.8383735  21.4743363  43.4494807  82.4770340
  21.6330012  41.4724997  83.3249988  20.9214917  41.0530240  82.6201133
  21.4974727  40.9565359  84.2695380  22.6313496  41.2425015  82.9636924
 118.5110012 106.1674997  83.8399988 119.5492174 105.8564213  83.7786296
 118.4768382 107.2412291  83.6795996 117.9756446 105.6954696  83.0207351
 117.8850012 105.7824997  85.2139988 118.4185436 106.2499752  86.0398330
 117.9380400 104.7105718  85.3842091 116.4580012 106.2364997  85.2299988
 115.9269535 105.6663596  84.4678586 116.4542163 107.2702025  84.8899767
 115.7220012 106.1604997  86.4879988 116.2133519 106.7935735  87.2235543
 115.7702912 105.1467166  86.8824832 114.2230012 106.6004997  86.3699988
 113.5913768 105.7798838  86.0395244 114.1114828 107.3897129  85.6283310
 113.7220012 107.0964997  87.7029988 114.2855271 107.9783936  88.0021954
 113.9050299 106.3446900  88.4677599 112.1500012 107.4534997  87.6739988
 111.8176870 107.5675995  88.7042019 111.6214218 106.5874819  87.2779595
 111.7480012 108.7114997  86.8649988 110.6957354 108.9209000  87.0529860
 111.8271628 108.4807855  85.8042498 112.5880012 109.9834997  87.1769988
 112.1159124 110.8275062  86.6786754 113.5650794 109.8634344  86.7106519
 112.7790012 110.3194997  88.7049988 113.4616280 109.5826495  89.1225769
 111.8227695 110.1675707  89.2049664 113.2780012 111.7124997  89.0019988
 112.6138676 112.4168045  88.5055894 114.2536040 111.8366447  88.5351851
 113.3760012 112.1124997  90.5319988 112.3857948 111.9335691  90.9439383
 113.5174819 113.1916705  90.5386009 114.4680012 111.4584997  91.4479988
 115.4245150 111.8139784  91.0685675 114.4443694 110.3888811  91.2592352
 114.4400012 111.7064997  93.0029988 113.4441131 111.6291618  93.4267566
 114.8146684 112.6941411  93.2585001 115.3810012 110.6184997  93.6779988
 116.3730232 110.6550499  93.2460296 114.9744079 109.6248484  93.5316835
 115.7830012 110.8574997  95.1659988 116.8880012 110.6774997  95.6319988
 114.7540012 111.4314997  95.8099988 114.9720012 111.7974997  97.1689988
 114.5008603 112.7557364  97.3279664 116.0304951 111.8874080  97.3657196
 114.3370012 110.7404997  98.0679988 113.2963714 110.6541022  97.8024443
 114.4690012 111.2274997  99.5469988 113.8015923 110.6748900 100.1942923
 114.2087220 112.2775012  99.5953361 115.8050012 111.0354997  99.9389988
 116.1910012 110.3504997 101.2609988 116.1290012 108.8174997 100.9899988
 115.0060012 107.9704997 101.3239988 114.4913271 107.6235727 100.4374655
 114.2826269 108.5454196 101.8949573 115.3910012 106.8014997 102.2269988
 114.4707932 106.2359023 102.3016045 115.7021823 107.0910293 103.2203345
 116.4540012 105.8074997 101.7239988 117.7990012 106.4884997 101.5609988
 117.6638605 107.3819648 100.9670366 118.4580078 105.8055587 101.0458270
 118.1998944 106.7110976 102.5384709 116.5970012 104.7254997 102.7599988
 115.6136032 104.3569996 103.0086957 117.0954583 105.1294252 103.6229904
 117.1892165 103.9351014 102.3219935 116.0080012 105.0724997 100.4189988
 115.0837600 104.5461239 100.6055164 116.7734323 104.3683696 100.1292297
 115.8644254 105.7954798  99.6289856 117.5670012 110.6734997 101.7019988
 115.1560012 110.6254997 102.2739988 114.9670012 109.4354997  97.9489988
 114.1260012 108.4274997  97.7509988 112.9120012 108.3824997  97.8759988
 114.9620012 107.1364997  97.4659988 115.7612723 107.1092340  98.1994668
 114.3431895 106.2657523  97.6679350 115.5000012 107.1104997  96.0299988
 114.6561924 107.1793638  95.3522779 116.0929886 108.0040371  95.8626978
 116.3110012 105.8854997  95.6859988 116.9867074 105.7267832  96.5225896
 115.6042948 105.0595321  95.7062145 117.1070012 105.8304997  94.3329988
 117.8688458 105.0585305  94.4244447 116.4432783 105.5093311  93.5339214
 117.7770012 107.1084997  93.9219988 117.0357982 107.8985777  93.8205301
 118.4514545 107.4259556  94.7149145 118.5470012 106.9934997  92.6639988
 119.0145211 107.9637140  92.5033434 119.3551364 106.2893649  92.8412829
 117.7740012 106.5584997  91.3459988 118.5283961 106.4076164  90.5826493
 117.3483934 105.5778588  91.5546790 116.6560012 107.4814997  90.8439988
 115.6829062 107.0384486  90.9934841 116.6940012 108.7324997  90.2709988
 115.8219169 109.2754518  89.9359136 117.9990012 109.4714997  90.0629988
 117.9353937 110.5025684  90.4066153 118.8587828 109.0379237  90.5614648
 118.2410012 109.4844997  88.5489988 119.1704178 110.0184043  88.3544850
 118.4090581 108.4573584  88.2308846 117.1080012 110.0984997  87.7019988
 116.2538527 109.4262371  87.6207551 116.7276411 111.0225731  88.1285178
 117.6670012 110.3744997  86.3039988 118.5555424 110.9991304  86.3629555
 117.9754197 109.4521227  85.8149346 116.5680012 111.0844997  85.4269988
 116.0630464 110.2869949  84.8851529 115.8346480 111.4799583  86.1244445
 116.9570012 112.1434997  84.4339988 117.5640446 112.9012896  84.9260717
 117.5884282 111.7043658  83.6637421 115.7680012 112.8374997  83.7519988
 115.0301697 113.0416945  84.5238953 116.1456388 113.8085428  83.4393040
 115.0880012 112.1724997  82.5649988 114.3284518 112.8229415  82.1418213
 114.6018381 111.2438183  82.8441716 115.8047355 111.9468346  81.7804555
  66.5050012  14.4494997  83.5559988  66.5777700  15.2821755  82.8633339
  65.5787709  13.9228995  83.3448593  67.3255500  13.7698333  83.3430077
  66.5510012  14.9334997  85.0219988  65.7353486  15.6492386  85.1093587
  67.4703934  15.5083534  85.0932377  66.4680012  13.9504997  86.1529988
  67.0451792  14.3704318  86.9766805  67.0105107  13.0658975  85.8253811
  65.0650012  13.5044997  86.6809988  65.1994476  12.8872939  87.5665671
  64.5767903  12.8701907  85.9427520  64.1310012  14.6874997  87.0389988
  64.0103254  15.3244423  86.1664654  64.6232089  15.2960708  87.7957932
  62.7880012  14.2854997  87.5309988  62.2851024  13.7326626  86.7396196
  62.1993266  15.1856527  87.6945951  62.7920012  13.4374997  88.8229988
  63.2325935  14.0146753  89.6338728  63.4339822  12.5686947  88.6841882
  61.3850012  12.9684997  89.2389988  61.4350301  12.0386970  89.8041671
  60.7680153  12.7610681  88.3666545  60.7030012  14.0474997  90.0969988
  59.6742437  13.7654158  90.3106053  60.6525242  14.9886629  89.5508844
  61.4600012  14.2694997  91.4269988  62.4340495  14.7134473  91.2335063
  61.6513811  13.3157164  91.9180182  60.6750012  15.1424997  92.3429988
  59.6737221  14.7243501  92.4213072  60.5593934  16.1174960  91.8727383
  61.2440012  15.3304997  93.7859988  60.6960714  16.1448351  94.2538125
  62.2723009  15.6733085  93.6872472  61.2250012  14.0904997  94.6929988
  61.3138291  13.2148005  94.0522862  60.2527311  14.0192872  95.1724711
  62.3150012  14.0054997  95.7609988  62.4109148  14.9428477  96.2990733
  63.2769485  13.8109930  95.2941835  62.0190012  12.8744997  96.7629988
  61.8861360  11.9336739  96.2441204  61.1176398  13.0929375  97.3232680
  62.7270012  11.5224997  96.4689988  63.3100012  11.3094997  95.4669988
  62.6940012  10.8964997  97.6079988  63.1050012   9.5504997  97.5089988
  63.5318198   9.3854434  96.5312236  62.1729697   9.0092371  97.5834579
  64.1200012   9.0904997  98.6359988  64.4238253   8.0693452  98.4752865
  63.4840012   9.2474997 100.1089988  64.1359551   8.6965232 100.7732141
  62.5354724   8.7290546 100.0450226  63.2930012  10.5724997 100.5859988
  62.8430012  10.8744997 102.0429988  63.0120012  12.4424997 102.1279988
  62.8760012  13.3044997 100.9709988  62.3091660  14.1806750 101.2577106
  62.2689633  12.7681356 100.2473859  64.1890012  13.7084997 100.1919988
  64.0135262  14.5895807  99.5877193  64.4937891  12.8986803  99.5449485
  65.4150012  14.0364997 101.0649988  65.0110012  14.8934997 102.1919988
  64.4513402  15.7333641 101.8037445  65.9072390  15.2477275 102.6792157
  64.4282930  14.3073682 102.8867060  66.0480012  12.7374997 101.5609988
  66.1887259  12.0805084 100.7164439  65.4060418  12.2944209 102.3012281
  67.0035165  12.9898766 101.9975687  66.3840012  14.7904997 100.1899988
  66.6415185  14.1805822  99.3369059  67.2748998  15.0135342 100.7576300
  65.9277536  15.7115837  99.8570164  61.3960012  10.6174997 102.2979988
  63.8150012  10.2854997 102.9559988  65.2400012   9.9654997  98.6449988
  66.1780012  10.0184997  97.7569988  66.3410012   9.2974997  96.7789988
  67.1260012  11.1234997  98.0979988  66.6501994  11.7446317  98.8499034
  68.0123904  10.7092103  98.5719033  67.5070012  11.9514997  96.7979988
  68.3912662  12.5165160  97.0716643  67.8338467  11.2173036  96.0685050
  66.5000012  12.8834997  96.1709988  65.5790039  12.3146776  96.0717036
  66.3057900  13.6463407  96.9209458  66.8480012  13.6014997  94.7959988
  66.1781005  14.4485122  94.6599514  67.8547672  14.0113338  94.8216913
  66.7190012  12.6874997  93.5809988  67.5985612  12.0476757  93.5509914
  65.8719987  12.0295388  93.7655399  66.5250012  13.3774997  92.1739988
  65.9490646  14.2872992  92.3360567  67.4984160  13.6919651  91.8080847
  65.8290012  12.5144997  91.0679988  64.7924548  12.3597812  91.3440673
  65.8174991  13.0888212  90.1425970  66.5300012  11.1924997  90.8099988
  67.5869433  11.2151168  90.5911020  65.9340012   9.9784997  90.8459988
  66.5290584   9.1009629  90.6375615  64.4680012   9.6774997  91.1609988
  64.4014049   8.6663801  91.5590230  64.0820278  10.3336761  91.9330985
  63.5680012   9.7654997  89.9199988  62.5295582   9.6363357  90.2227492
  63.6417537  10.7713675  89.5110373  63.9210012   8.7214997  88.7939988
  64.8845937   9.0363988  88.3934556  64.0974893   7.7780800  89.3032288
  62.9380012   8.5004997  87.6329988  62.0122237   8.0740885  88.0128074
  62.6705591   9.4533779  87.1795864  63.5580012   7.5484997  86.5229988
  64.6278849   7.7276571  86.4344468  63.4544221   6.5050461  86.8077811
  62.9350012   7.7784997  85.1669988  63.2482731   8.7410462  84.7666890
  63.2882463   7.0287807  84.4613265  61.3740012   7.7364997  85.1939988
  61.0004583   6.7580413  85.4855462  61.0035040   8.4305772  85.9451987
  60.7970012   8.1144997  83.8629988  59.7136920   8.1685683  83.9138604
  61.0506698   7.3948743  83.0919394  61.1619014   9.0856789  83.5408193
  17.0620012  52.8124997  83.0609988  17.5540650  52.0384546  82.4803470
  16.4469856  53.3957115  82.3817272  16.3977442  52.3232141  83.7680874
  18.0830012  53.6994997  83.7859988  18.7307605  54.0854080  83.0007054
  18.6864067  53.0067675  84.3663761  17.6200012  54.8524997  84.6639988
  17.1357949  55.5702334  84.0019326  18.5261541  55.3369895  85.0222270
  16.7070012  54.5774997  85.8669988  17.2882967  54.0107593  86.5909814
  15.9067850  53.9159816  85.5387397  16.1110012  55.7764997  86.5599988
  15.6316602  56.4752745  85.8791765  16.8520771  56.3498373  87.1144854
  15.0370012  55.2204997  87.5559988  14.7232301  56.0214006  88.2230239
  15.4957988  54.4618120  88.1864548  13.8380012  54.6414997  86.8829988
  14.0422622  53.6187280  86.5715738  13.6154429  55.1977820  85.9734671
  12.6180012  54.6554997  87.7909988  11.6745478  54.7188075  87.2503151
  12.6152272  55.4776010  88.5043190  12.6770012  53.3044997  88.5649988
  13.5164489  53.3042573  89.2570020  12.8537043  52.4818622  87.8731747
  11.3730012  53.0424997  89.3439988  11.1508989  51.9797156  89.2772181
  10.5606541  53.5568952  88.8312429  11.4000012  53.4864997  90.8289988
  10.4069083  53.8281659  91.1128503  12.0589499  54.3456458  90.9420581
  11.8500012  52.3364997  91.8519988  12.9354977  52.2739251  91.8527710
  11.4907606  51.3812466  91.4737028  11.3440012  52.5184997  93.2469988
  10.2777968  52.3010061  93.2810094  11.4550301  53.5483075  93.5747829
  12.0190012  51.6324997  94.2099988  13.0993643  51.6775266  94.1198152
  11.7328860  50.5964915  94.0490106  11.6150012  52.0344997  95.6319988
  10.5373826  52.0289252  95.7356720  11.9813202  53.0280091  95.8618214
  12.2530012  51.0354997  96.6209988  11.5730012  50.2814997  97.3409988
  13.5830012  51.2834997  96.7719988  14.2620012  50.6294997  97.8349988
  14.9738568  49.9628859  97.3720197  13.5333501  50.0457860  98.3786328
  14.9790012  51.6084997  98.7609988  15.8651619  51.1218071  99.1334817
  14.0850012  52.0914997  99.9679988  13.7788950  51.2761810 100.6093688
  13.1997853  52.5998773  99.6067093  14.9100012  52.9844997 100.6689988
  14.3560012  54.2804997 101.3829988  15.7140012  55.0444997 101.6919988
  16.6670012  55.3194997 100.6639988  17.0803662  56.3141184 100.7691273
  16.1634713  55.2953302  99.7018810  17.7840012  54.2644997 100.5619988
  18.4344129  54.5628667  99.7494776  17.4079998  53.2720639 100.3593384
  18.6630012  54.1324997 101.7569988  17.9590012  53.7144997 103.0279988
  17.1099056  54.3660084 103.1826181  18.6552778  53.8241885 103.8460863
  17.6626289  52.6799813 102.9405218  19.7810012  53.0834997 101.3649988
  20.2047130  53.3728799 100.4155561  19.3413763  52.1032950 101.3170537
  20.5387201  53.1162056 102.1344722  19.3870012  55.4354997 102.0399988
  19.9719821  55.7122703 101.1755468  20.0387000  55.3017300 102.8903189
  18.6649849  56.2096318 102.2564403  13.5810012  55.0334997 100.4019988
  13.6200012  53.9794997 102.6189988  15.3580012  52.7874997  97.9889988
  16.7050012  52.8104997  97.6769988  17.5350012  51.9464997  97.9839988
  16.9210012  53.9334997  96.6459988  16.9136448  54.8726894  97.1895258
  17.9189328  53.8415536  96.2245899  15.7930012  53.8964997  95.4859988
  15.6913907  52.9027650  95.0638285  14.8103517  54.1654745  95.8602787
  16.2080012  54.8584997  94.3939988  16.4756504  55.8319070  94.7971069
  17.0919677  54.4900766  93.8792827  15.0950012  55.0034997  93.3919988
  15.1487431  54.1306570  92.7439529  14.1509446  54.9278329  93.9260716
  15.0660012  56.2554997  92.5119988  14.3869407  56.1005094  91.6760826
  14.6530094  57.0808725  93.0886949  16.4990012  56.6874997  91.9569988
  16.3927812  57.6840016  91.5310855  17.1774277  56.7850945  92.7999286
  17.1430012  55.7504997  90.9099988  17.2979732  54.7744145  91.3547699
  16.4366002  55.6068371  90.0934789  18.4470012  56.3084997  90.3359988
  18.3877489  57.2529030  89.8162435  19.6570012  55.7384997  90.4309988
  20.5364528  56.1954366  90.0004370  19.9280012  54.4164997  91.1429988
  20.7551157  54.5957405  91.8278164  19.0751843  54.1542417  91.7591198
  20.3060012  53.1914997  90.2219988  21.1771236  53.4641271  89.6274191
  20.6232455  52.3751302  90.8680297  19.1400012  52.6744997  89.2549988
  18.6594522  53.5022328  88.7334265  19.5169570  52.0078400  88.4843022
  18.1120012  51.9484997  90.0889988  18.4857949  50.9478377  90.2941787
  18.0286702  52.4459038  91.0537423  16.7620012  51.8684997  89.4589988
  16.0221790  51.5918472  90.2078088  16.4567619  52.8422688  89.0858666
  16.7010012  50.8214997  88.3199988  17.4497945  51.0516087  87.5641936
  16.9580812  49.8383114  88.7099793  15.2690012  50.7264997  87.6059988
  14.7383934  49.8132100  87.8634328  14.6315731  51.5428379  87.9385499
  15.4300012  50.8154997  86.0459988  14.4597147  50.8406105  85.5591901
  15.9728165  49.9660920  85.6452506  15.9671617  51.7152581  85.7595825
  79.7140012 131.6534997  83.3029988  80.2036072 131.5392926  82.3408804
  78.7555829 132.1351131  83.1319054  79.5170968 130.6589107  83.6936820
  80.5800012 132.4684997  84.2769988  80.7822200 133.4519754  83.8561828
  81.5450813 131.9838409  84.3975818  79.8770012 132.6394997  85.6849988
  79.9294451 131.7161151  86.2616613  78.8180199 132.8522124  85.5527754
  80.5010012 133.7734997  86.4929988  79.7984263 134.1175071  87.2488409
  80.7034137 134.6331713  85.8560530  81.8340012 133.3284997  87.2089988
  82.2599458 134.1456707  87.7855190  82.5843295 133.0523630  86.4699988
  81.5830012 132.1384997  88.1439988  81.2550941 131.3061752  87.5238940
  80.7367162 132.3986371  88.7762228  82.7360012 131.6894997  89.0139988
  83.2055042 132.5637526  89.4612333  83.4948710 131.2242173  88.3864169
  82.3270012 130.7114997  90.1229988  83.1784122 130.0891071  90.3953547
  81.5612940 130.0331773  89.7511718  81.8100012 131.4184997  91.3579988
  81.2997164 130.7060919  92.0026890  81.0634565 132.1587435  91.0728899
  82.9280012 132.1064997  92.1469988  83.2488661 132.9923837  91.6033498
  83.7932341 131.4455690  92.1914025  82.5110012 132.4884997  93.5749988
  83.3742204 132.4492042  94.2359447  81.7941760 131.7713121  93.9711447
  81.8820012 133.9634997  93.6519988  81.0715517 134.1105030  92.9422237
  82.6201435 134.7331515  93.4341641  81.3860012 134.1594997  95.0459988
  82.2508109 134.1150494  95.7058322  80.7559620 133.3156641  95.3129559
  80.6460012 135.4354997  95.3369988  79.7675329 135.4410718  94.7001255
  81.2918421 136.2372871  94.9889780  80.2180012 135.7444997  96.8029988
  81.0754402 135.7112842  97.4631017  79.4883911 135.0195860  97.1439362
  78.7420012 135.3544997  97.0289988  77.9610012 135.3554997  96.0929988
  78.4570012 135.2474997  98.3009988  77.1610012 134.6834997  98.6369988
  76.4948782 134.8348536  97.8010357  76.7784699 135.2176830  99.4946175
  77.3070012 133.1284997  98.9519988  76.3789033 132.7326063  99.3298833
  78.4610012 132.8384997  99.9669988  78.2191941 133.2163893 100.9511379
  79.3679675 133.3202282  99.6235825  78.6360012 131.4024997 100.0049988
  79.8950012 130.5934997  99.4119988  80.5760012 129.9704997 100.7309988
  79.8180012 129.6444997 101.8719988  80.0528997 128.6944774 102.3340262
  78.7514114 129.6319424 101.6669973  80.0230012 130.7914997 102.8479988
  79.4323686 130.5439238 103.7209869  79.6541182 131.7171157 102.4302220
  81.4410012 131.0994997 103.3739988  82.3130012 131.6394997 102.2389988
  82.2433134 130.9629871 101.3982798  83.3329613 131.6775232 102.5916112
  81.9802075 132.6345452 101.9843427  81.2610012 132.2064997 104.3689988
  80.4748095 131.9274586 105.0536540  81.0219575 133.1144031 103.8446520
  82.1944687 132.3170498 104.9016470  82.0720012 129.8524997 103.9759988
  81.4461392 129.4887039 104.7772674  83.0485007 130.1009813 104.3637557
  82.1685935 129.0931446 103.2134472  79.3150012 129.5224997  98.6299988
  80.8070012 131.5034997  98.7249988  77.6240012 132.4924997  97.7329988
  76.6520012 132.3264997  96.8609988  75.4440012 132.5014997  96.9959988
  77.2130012 131.8154997  95.5559988  78.0345768 132.4777757  95.3031017
  77.6615508 130.8428706  95.7422861  76.1730012 131.7374997  94.4329988
  75.5627074 130.8453744  94.5208340  75.4839014 132.5757890  94.4541039
  76.9160012 131.7074997  93.0909988  76.1808146 131.6213688  92.2949233
  77.3907672 132.6769910  92.9615817  77.9990012 130.6004997  92.9389988
  78.4058065 130.6964842  91.9340100  78.8156311 130.8266299  93.6203083
  77.5690012 129.1444997  93.1479988  78.4591690 128.5193268  93.1222853
  77.1710245 129.0634340  94.1576640  76.5240012 128.5874997  92.1599988
  76.1516191 127.6491279  92.5680320  75.6760826 129.2659931  92.1283970
  77.0210012 128.3554997  90.7259988  77.4561831 129.2995937  90.4195954
  77.8484360 127.6541603  90.8250983  76.0400012 127.8164997  89.6509988
  76.0584589 126.7483281  89.4953616  75.1650012 128.5334997  88.9059988
  74.5278436 128.0049255  88.2115568  74.9500012 130.0414997  88.9219988
  74.0118497 130.2517850  89.4327560  75.7234249 130.5509483  89.4858772
  74.8730012 130.6304997  87.5269988  74.2476488 129.9884738  86.9077717
  74.3576019 131.5870324  87.5891899  76.2930012 130.8424997  86.8139988
  76.8574145 131.6228091  87.3245492  76.8946231 129.9401504  86.8797320
  76.1140012 131.2294997  85.3449988  77.0729702 131.5754656  84.9657482
  75.8660760 130.3356161  84.7752705  75.0340012 132.3024997  85.1019988
  74.0599866 131.8374152  85.2419350  75.1156560 133.0592540  85.8774214
  75.0460012 132.9674997  83.7129988  74.9044988 132.1983158  82.9558883
  74.1838815 133.6276896  83.6372827  76.2730012 133.7494997  83.3719988
  77.1450529 133.1451507  83.6090707  76.2764711 133.8624354  82.2900808
  76.4230012 135.1364997  84.0129988  77.3011794 135.6460817  83.6280335
  76.5288705 135.0757626  85.0908873  75.5591545 135.7601534  83.8009469
   3.9670012  79.0434997  80.5079988   4.2282668  79.2519471  79.4751779
   4.8143816  79.3235984  81.1270957   3.1361130  79.6904755  80.7756908
   3.5920012  77.5294997  80.7079988   4.4520669  76.9553939  80.3675689
   2.7908012  77.3261990  80.0026184   3.1860012  77.0474997  82.1339988
   2.2849049  77.5831716  82.4323444   3.9663902  77.3636128  82.8233726
   2.9610012  75.5404997  82.3119988   3.9378033  75.0639569  82.3568832
   2.4789202  75.1559134  81.4145594   2.1600012  75.1214997  83.5319988
   2.0353426  74.0419609  83.5069115   1.1626394  75.5466148  83.4324412
   2.7400012  75.5174997  84.8739988   2.0187958  75.1299012  85.5912486
   2.6349727  76.6001933  84.8919037   4.1220012  75.1484997  85.3139988
   4.2896441  75.5004175  86.3302761   4.8542418  75.6595435  84.6903900
   4.3690012  73.6624997  85.2549988   4.4809377  73.4084926  84.2017174
   3.4512674  73.1811677  85.5878175   5.5690012  73.0824997  86.0519988
   6.4796222  73.5857066  85.7340474   5.6941116  72.0330958  85.7880368
   5.4220012  73.2094997  87.5969988   4.6876074  72.4873608  87.9469706
   5.0243265  74.1934744  87.8441376   6.8210012  72.9934997  88.3709988
   7.6462538  73.4258332  87.8092276   7.0570006  71.9374577  88.4901947
   6.7740012  73.6674997  89.7659988   6.4961780  74.7152010  89.6802358
   7.7600041  73.6512447  90.2266548   5.7630012  72.9134997  90.7129988
   6.1491859  71.9157676  90.9146023   4.8089530  72.7749762  90.2121222
   5.5240012  73.6124997  92.0649988   4.6335939  73.2000120  92.5280041
   5.3198073  74.6620213  91.8703164   6.6620012  73.5204997  93.0229988
   7.5703593  73.8965048  92.5696262   6.8223305  72.4911127  93.3208679
   6.0840012  73.8254997  94.3939988   5.1660012  74.5964997  94.6299988
   6.7380012  73.1034997  95.3539988   6.3060012  73.1994997  96.6679988
   6.6513856  72.2600050  97.0723765   5.2288092  73.2403124  96.7399974
   6.9590012  74.3844997  97.4279988   8.0142450  74.2336168  97.2711903
   6.6690012  74.4784997  98.9029988   7.1572181  75.3457965  99.3263678
   7.0589403  73.5908811  99.3853532   5.2960012  74.5604997  99.0789988
   4.4120012  75.8584997  99.4699988   5.1390012  76.2994997 100.8289988
   4.4290012  76.5224997 101.9789988   3.8487917  75.6668105 102.2989082
   3.7248063  77.3378533 101.8407777   5.4180012  77.0134997 103.1399988
   4.9222827  76.9839080 104.1020988   5.6879739  78.0362315 102.9197460
   6.7420012  76.2594997 103.3289988   6.3940012  74.8204997 103.3999988
   5.6124255  74.6902242 104.1358668   7.2764332  74.2790431 103.7069816
   6.0856653  74.4857555 102.4209215   7.7220012  76.5324997 102.1759988
   7.7888993  77.5994875 102.0284329   7.3697586  76.0343559 101.2904775
   8.6840028  76.1378253 102.4693962   7.3530012  76.6674997 104.6509988
   7.5082703  77.7361184 104.6562472   8.2997824  76.1635703 104.7747345
   6.6882288  76.3903003 105.4564012   4.5370012  76.8884997  98.4619988
   3.0520012  75.3304997  99.6669988   6.5740012  75.6214997  96.7229988
   7.5300012  76.5164997  96.6079988   8.5700012  76.5334997  97.2599988
   7.0280012  77.6664997  95.7579988   6.0794975  77.3187146  95.3618431
   6.7854829  78.4736077  96.4447800   7.9600012  78.1444997  94.6609988
   7.8917479  79.2215821  94.5547166   8.9946261  77.9326073  94.9113701
   7.6070012  77.4934997  93.3419988   7.8478134  76.4336377  93.3608669
   6.5336261  77.5576643  93.1813320   8.2990012  78.1544997  92.1989988
   7.8201373  79.1151415  92.0185476   9.3298568  78.3741696  92.4659888
   8.2860012  77.3554997  90.8899988   9.0994225  77.7277483  90.2705816
   8.5448722  76.3298049  91.1455708   6.9870012  77.3444997  90.0719988
   7.0525949  76.6392397  89.2449517   6.1306936  77.0400872  90.6673041
   6.7250012  78.7514997  89.5189988   6.4627061  79.4704922  90.2863520
   7.5923279  79.1585235  89.0009042   5.5630012  78.5784997  88.4879988
   4.6307387  78.3310306  88.9729728   5.5440012  78.6974997  87.1469988
   4.5932551  78.5021276  86.6721075   6.6600012  79.0724997  86.1749988
   6.3118463  79.9767763  85.6787196   7.5270724  79.3611613  86.7585593
   7.0750012  78.0854997  85.1179988   6.1879699  77.5119400  84.8517097
   7.3345766  78.6690897  84.2368051   8.2540012  77.1024997  85.4519988
   8.9338758  77.6099323  86.1363887   7.8522887  76.2529434  85.9973292
   9.0700012  76.5844997  84.1929988   9.4075554  77.4494812  83.6264220
   9.9691244  76.0790204  84.5410693   8.2810012  75.6404997  83.2839988
   8.3753328  74.6137150  83.6324306   7.2185780  75.8666540  83.3111317
   8.8050012  75.6984997  81.8059988   9.8899490  75.7866258  81.8082435
   8.5796602  74.7579653  81.3065485   8.2380012  76.8184997  80.9879988
   7.2132341  76.6709658  80.6563345   8.2428564  77.7666130  81.5212628
   9.2110012  76.9424997  79.6959988   8.9296715  77.7926046  79.0817967
   9.1660981  76.0589422  79.0682640  10.2453729  77.0804693  79.9979599
   6.4050012  85.3574997  82.7499988   5.9143119  85.1584007  81.8023635
   7.3151561  84.7655993  82.7825878   6.6935189  86.4050147  82.7590405
   5.5120012  85.0374997  83.8999988   5.2216514  83.9905340  83.8309853
   4.5982519  85.6154226  83.7909974   6.1210012  85.2894997  85.2349988
   6.4158970  86.3358505  85.3131993   7.0385500  84.7108139  85.3210095
   5.2100012  84.9324997  86.4119988   4.8495694  83.9112449  86.3101285
   4.3237461  85.5650132  86.4255845   5.9310012  85.0584997  87.7229988
   5.2684223  85.4053315  88.5118397   6.7325704  85.7919326  87.6527994
   6.5210012  83.7014997  88.1299988   7.2054587  83.3666262  87.3526992
   5.7210024  82.9652359  88.1686596   7.2680012  83.7224997  89.5009988
   8.0200686  84.5018637  89.3925725   7.8104581  82.7786051  89.5331475
   6.4980012  83.9274997  90.8639988   5.6793059  83.2124049  90.9334868
   6.0411919  84.9152468  90.8830988   7.4030012  83.7714997  92.0729988
   7.9520737  84.7033982  92.1897272   8.1438660  83.0112498  91.8286293
   6.7270012  83.4104997  93.4009988   7.4741473  83.2108714  94.1659956
   6.1424075  82.4965184  93.2994238   5.8120012  84.5424997  93.8489988
   5.1474503  84.7560128  93.0145377   6.4313398  85.4286670  93.9764947
   4.9310012  84.3304997  95.1459988   4.8179402  83.2664457  95.3389375
   3.9291621  84.7142171  94.9622887   5.5060012  85.0334997  96.3829988
   4.8722313  84.7860263  97.2329074   5.4327084  86.1094770  96.2519459
   6.9700012  84.6664997  96.7539988   7.6855212  85.0102101  96.0142426
   7.0969343  83.5904381  96.8380908   7.2970012  85.2984997  98.0969988
   6.5748068  84.9953289  98.8443700   7.2837386  86.3791394  98.0188264
   7.3630012  86.8364997  98.0789988   7.2190012  87.6714997  97.2099988
   7.6020012  87.1084997  99.3859988   7.6200012  88.5044997  99.7349988
   7.9204572  88.9669783  98.8069354   8.3372381  88.7553181 100.5030178
   6.1870012  88.9744997 100.1339988   6.3459113  89.9769384 100.4956037
   5.4750012  88.0794997 101.2849988   4.6522482  88.6260353 101.7256544
   6.2069862  87.8733048 102.0558857   4.9980012  86.8294997 100.6859988
   3.5000012  86.3044997 101.0229988   3.7900012  84.9884997 101.8079988
   4.8840012  84.9644997 102.7379988   4.6944227  84.2495576 103.5280031
   4.9500705  85.9387739 103.2136264   6.2410012  84.7354997 102.1129988
   6.9121907  85.0240254 102.9120648   6.4255714  85.3701222 101.2582678
   6.6710012  83.3384997 101.6959988   6.4130012  82.4214997 102.8559988
   6.8637799  82.8491195 103.7410263   6.8734683  81.4695867 102.6370655
   5.3472384  82.2910554 102.9693610   5.9580012  82.8384997 100.5129988
   6.0030794  83.5920692  99.7417563   4.9420062  82.6138231 100.7843743
   6.4644761  81.9421155 100.1854691   8.0930012  83.4264997 101.2139988
   8.1475014  84.1256586 100.3928481   8.4156971  82.4514329 100.8811894
   8.7276658  83.7607683 102.0220213   2.7450012  87.2674997 101.8659988
   2.9100012  86.0294997  99.6679988   5.3440012  89.0634997  98.9169988
   4.1810012  89.8114997  99.0289988   3.8740012  90.4834997  99.9879988
   3.3600012  89.5674997  97.6589988   3.3985309  90.4943707  97.0959903
   3.8880230  88.8318874  97.0573556   1.9160012  89.1224997  97.9349988
   1.8811614  88.2491098  98.5769002   1.3340831  89.8881515  98.4381704
   1.2770012  88.7834997  96.5989988   0.2100954  88.9321724  96.7448155
   1.6049174  89.5758349  95.9306120   1.5300012  87.4404997  95.9219988
   2.5402830  87.4358566  95.5170111   1.4905522  86.6335408  96.6496409
   0.5970012  87.1424997  94.8349988   0.7651174  86.1042442  94.5563170
  -0.3969898  87.1804517  95.2764992   0.6070012  88.0074997  93.5859988
  -0.2000194  87.6828370  92.9310080   0.3908889  89.0387681  93.8507608
   1.9890012  87.9644997  92.7829988   1.9608415  88.8344117  92.1372123
   2.7498675  88.1659299  93.5358960   2.3930012  86.7094997  92.0019988
   1.9530968  85.7679003  92.2942808   3.2740012  86.6894997  90.9339988
   3.4603989  85.7175924  90.5001070   4.0140012  87.8024997  90.2729988
   3.7671623  88.7092904  90.8225642   5.0807322  87.6531197  90.3973026
   3.7110012  88.0334997  88.8319988   4.1088351  87.2301930  88.2130226
   2.6355072  88.0403696  88.6654921   4.3190012  89.4144997  88.3589988
   3.8585367  90.2173635  88.9347498   5.3791678  89.4407860  88.5953453
   4.1290012  89.6794997  86.9139988   4.2321005  88.7467979  86.3639234
   3.1130105  90.0273071  86.7354549   5.1510012  90.7494997  86.3579988
   4.7616392  91.0978234  85.4031910   5.1213187  91.6090945  87.0219571
   6.6090012  90.3014997  86.1399988   7.2128647  91.1645709  85.8655177
   7.0143620  89.9368946  87.0821133   6.8060012  89.1814997  85.0429988
   6.1869290  88.3139869  85.2576758   6.4575213  89.5642748  84.0862553
   8.1940012  88.7634997  84.9019988   8.3032907  88.0600372  84.0820808
   8.5642930  88.2778071  85.7985074   8.8388276  89.6133579  84.6968628
  32.2190012  30.5624997  79.8689988  32.3654792  31.6320175  79.9834745
  32.0080211  30.3672460  78.8215479  33.1578169  30.0725070  80.1121944
  31.0730012  30.0514997  80.7759988  30.2277670  30.6712260  80.4815135
  31.3751444  30.3957374  81.7614042  30.6160012  28.5584997  80.8449988
  30.2561193  28.2282674  79.8706473  29.7710960  28.4675597  81.5247313
  31.7600012  27.5854997  81.3349988  32.6333885  27.7771828  80.7155619
  31.4513549  26.5650400  81.1134012  32.1650012  27.6804997  82.7789988
  32.6365516  28.6365608  82.9915083  32.9038900  26.9163457  83.0145343
  30.9390012  27.5084997  83.7079988  30.4201426  26.5665445  83.5397038
  30.1984158  28.2929782  83.5676285  31.4590012  27.5524997  85.1649988
  31.9797792  28.4862115  85.3693083  32.1782702  26.7560167  85.3507321
  30.2520012  27.4034997  86.1599988  29.8295188  26.4097508  86.0170901
  29.4820126  28.1082931  85.8516680  30.5620012  27.6124997  87.6489988
  31.4462518  28.2385898  87.7472484  30.8164362  26.6547561  88.1012897
  29.4420012  28.2244997  88.3989988  28.6025100  27.5407733  88.2937763
  29.1687441  29.1291241  87.8563992  29.6560012  28.5694997  89.8789988
  28.7169724  28.8061933  90.3747225  30.2969893  29.4388632  90.0149001
  30.2650012  27.3994997  90.5639988  31.3396071  27.3536128  90.4048275
  29.8606435  26.4648924  90.1797148  29.9540012  27.4874997  92.0769988
  28.8827911  27.3530233  92.2172740  30.1866789  28.4823224  92.4464075
  30.6870012  26.4374997  92.9539988  31.7012945  26.3295943  92.5839847
  30.1917662  25.4829306  92.7970521  30.7270012  26.7214997  94.4439988
  29.7256380  26.8661114  94.8292262  31.3082674  27.6141079  94.6426165
  31.2660012  25.5284997  95.2109988  31.6640012  24.5324997  94.7039988
  31.2190012  25.7004997  96.5949988  31.9740012  24.8174997  97.3999988
  32.4462566  24.1301073  96.7144854  31.3433904  24.2619176  98.0788585
  33.0530012  25.6304997  98.1789988  33.8239185  24.9600725  98.5212091
  32.4660012  26.4034997  99.3709988  33.2262615  26.5316999 100.1295302
  31.6601125  25.8099729  99.7843442  31.9780012  27.6684997  98.9359988
  32.2380012  28.9824997  99.7829988  32.4690012  28.4744997 101.2709988
  32.3160012  29.4044997 102.3849988  32.1598790  28.9062487 103.3329233
  31.4512259  30.0422517 102.2261497  33.5310012  30.3744997 102.4569988
  33.3331509  31.2052758 103.1225175  33.7050103  30.7598530 101.4627148
  34.9200012  29.7564997 102.9359988  35.2520012  28.6064997 102.0829988
  34.3995325  27.9419016 102.0523298  36.0950938  28.0964070 102.5247004
  35.5193919  28.9647225 101.1001989  35.9870012  30.7964997 102.8709988
  35.6320797  31.6834974 103.3729745  36.2214213  30.9950336 101.8404642
  36.8534601  30.4027726 103.3823938  34.7840012  29.2244997 104.3469988
  34.4764122  30.0265739 105.0013290  35.7372914  28.8366223 104.6732484
  34.0471825  28.4344327 104.3650982  33.4640012  29.6734997  99.3139988
  30.9680012  29.7194997  99.7979988  33.6280012  26.4854997  97.2399988
  34.8160012  26.9004997  97.4069988  35.5750012  26.7584997  98.3539988
  35.2200012  27.8254997  96.2549988  34.3873141  28.5060523  96.1099702
  36.0507026  28.4397760  96.5933871  35.5800012  27.0694997  94.9589988
  36.2348704  26.2523037  95.2407754  34.6709238  26.6100154  94.5841847
  36.2440012  27.8824997  93.8519988  37.1672619  28.3392858  94.1992595
  36.5198864  27.2312038  93.0263075  35.2730012  28.9794997  93.3169988
  34.2931810  28.5127059  93.2347674  35.1799848  29.7490867  94.0794198
  35.6030012  29.6474997  91.9769988  35.0072767  30.5387820  91.7909096
  36.6434440  29.9626400  91.9265381  35.3450012  28.6164997  90.8579988
  36.0643863  27.8005903  90.9077770  34.3610922  28.1631240  90.9398016
  35.4530012  29.2934997  89.5189988  34.9104757  28.6886116  88.8018122
  34.9151298  30.2377271  89.5929920  36.7930012  29.5614997  89.0639988
  37.3681239  30.2407487  89.6750704  37.4170012  29.0364997  87.9479988
  38.4387321  29.2650145  87.6806847  36.7130012  28.0644997  86.9739988
  37.4741046  27.4990277  86.4390370  36.1082715  27.3355641  87.5018585
  35.8200012  28.8164997  85.9129988  34.9464759  29.2342674  86.4121268
  36.3822059  29.6640746  85.5256986  35.3650012  27.9294997  84.7359988
  34.6811178  27.1766577  85.1279676  34.7838719  28.5401453  84.0505029
  36.5300012  27.2124997  83.9439988  37.1873318  26.7052404  84.6466719
  36.1198001  26.4383197  83.2978831  37.3460012  28.2164997  83.0849988
  36.7873639  28.4997522  82.1948963  37.5322480  29.1407536  83.6250837
  38.6830012  27.5924997  82.6279988  39.3279054  27.5042976  83.5004676
  38.4800610  26.5750647  82.2986427  39.4610012  28.3194997  81.5159988
  40.0481142  27.5920652  80.9609740  38.7246933  28.7035703  80.8133939
  40.3600012  29.4654997  81.9569988  40.7940211  29.9675831  81.0975757
  41.1786176  29.1219318  82.5803520  39.8009499  30.2043215  82.5242245
 132.5280012  73.3834997  82.1389988 131.9538862  72.9820021  81.3097698
 132.2796706  74.4365678  82.2347563 132.1948581  72.8834798  83.0443207
 134.0740012  73.1804997  81.9159988 134.3639238  73.6682380  80.9868813
 134.2686569  72.1203913  81.7778199 134.9310012  73.7284997  83.0609988
 134.5871058  73.2858650  83.9957391 134.7369302  74.7960287  83.1439997
 136.4500012  73.5174997  82.9279988 136.8410800  74.3073283  82.2904424
 136.6254874  72.5846875  82.3943584 137.2770012  73.5084997  84.2959988
 138.3334915  73.3297641  84.1130926 136.9362336  72.6967775  84.9365841
 137.1130012  74.8984997  85.0729988 136.3353315  75.4457716  84.5433382
 138.0382471  75.4454715  84.9047168 136.7870012  74.8914997  86.6129988
 137.6034423  74.4134728  87.1512219 135.9048424  74.2780430  86.7910346
 136.5610012  76.2464997  87.1699988 135.7888374  76.7728033  86.6103394
 137.4603733  76.8546134  87.0924657 136.1440012  76.1504997  88.6339988
 135.1194339  75.7854917  88.6579155 136.1145680  77.1638945  89.0324226
 137.0540012  75.2374997  89.5809988 138.0930929  75.4386228  89.3297284
 136.8718528  74.1963842  89.3158015 136.8290012  75.4234997  91.1199988
 135.8206629  75.0814312  91.3431222 136.8403636  76.4908024  91.3341570
 137.7940012  74.7134997  92.0569988 138.7834104  75.1290206  91.8819823
 137.8408576  73.6732197  91.7403094 137.4610012  74.7554997  93.5529988
 138.1436580  74.1189554  94.1133942 136.4607446  74.3857332  93.7604440
 137.5930012  76.2174997  94.1119988 136.7975979  76.8711131  93.7692624
 138.5300424  76.6758878  93.8071611 137.5610012  76.1444997  95.6419988
 138.3263178  75.4704556  96.0053114 136.5953613  75.7903349  95.9828447
 136.9430012  77.4014997  96.1609988 137.2350012  78.5034997  95.8419988
 136.0290012  76.9514997  97.0789988 135.2150012  78.0524997  97.5649988
 134.6916812  78.4472626  96.7072339 135.9070309  78.7974568  97.9301366
 134.2220012  77.6504997  98.6509988 133.7513292  78.5392852  99.0375504
 134.8660012  76.8614997  99.7969988 134.1175560  76.5814808 100.5258474
 135.5992679  77.4960449 100.2789295 135.4980012  75.6914997  99.2499988
 136.6410012  74.9024997 100.1319988 135.6880012  74.3654997 101.3129988
 134.6330012  73.4184997 101.0459988 134.7842772  72.4704564 101.5455170
 134.5857077  73.2022542  99.9826088 133.2360012  74.0254997 101.4039988
 132.5005810  73.2633930 101.1790553 132.9761022  74.9275518 100.8690863
 133.0560012  74.3534997 102.8989988 133.5850012  73.2294997 103.7689988
 133.1520225  72.2981149 103.4307889 133.2800992  73.4239806 104.7865016
 134.6629862  73.2179355 103.7095717 133.9060012  75.6104997 103.2339988
 133.6844000  76.3775557 102.5078914 134.9477093  75.3440561 103.2191031
 133.6186744  75.9409256 104.2217027 131.5870012  74.6374997 103.1089988
 131.2886014  75.4567780 102.4719567 131.4213077  74.9034474 104.1421819
 131.0109564  73.7562947 102.8659244 137.1870012  73.7934997  99.4059988
 137.6250012  75.8674997 100.6189988 133.1760012  76.7484997  98.0169988
 132.1080012  76.4144997  98.7679988 131.7870012  76.9464997  99.8319988
 131.2670012  75.3344997  98.0279988 130.3117373  75.2325383  98.5326053
 131.0358095  75.6574892  97.0160031 132.0750012  73.9864997  98.0209988
 133.1274121  74.2018756  98.1696779 131.7727528  73.3713484  98.8625852
 131.9040012  73.2074997  96.7229988 132.1610480  72.1600569  96.8588092
 130.8615562  73.2263053  96.4147459 132.7820012  73.8354997  95.5689988
 132.3381806  74.7843453  95.2733279 133.7778410  74.0678158  95.9385042
 132.9100012  72.9544997  94.3229988 133.7565294  73.2368426  93.7004448
 133.0640425  71.9103285  94.5882513 131.5550012  73.0724997  93.4659988
 130.9562283  72.2016266  93.7282053 131.0148039  73.9389736  93.8371159
 131.6610012  73.1784997  91.8969988 130.6589580  73.3129073  91.5065836
 132.2038221  74.0953129  91.6708464 132.3290012  72.0744997  91.2479988
 132.3036643  71.1466267  91.7993278 132.9170012  72.0634997  90.1289988
 133.3636343  71.1868428  89.6822308 133.0440012  73.3054997  89.2979988
 133.2326525  74.1132199  90.0031369 133.9356951  73.2216712  88.6868231
 131.8360012  73.7144997  88.3989988 131.7989739  72.9975463  87.5796625
 130.9426687  73.5396543  88.9955263 131.7920012  75.2054997  87.8079988
 130.7794737  75.3530317  87.4323267 131.9030951  75.8783202  88.6538561
 132.8090012  75.5934997  86.7019988 133.8010510  75.3674236  87.0865398
 132.6502108  74.9247000  85.8578556 132.7560012  77.0394997  86.2149988
 131.7273151  77.3658128  86.0738791 133.1888047  77.7264073  86.9371234
 133.4910012  77.1694997  84.8489988 133.9727819  78.1383009  84.7298582
 134.2771146  76.4253913  84.7342708 132.4760012  76.9854997  83.7099988
 131.9160047  76.0643910  83.8509877 131.7456385  77.7889327  83.7761713
 133.1310012  76.9974997  82.2249988 132.3589262  76.9522423  81.4628171
 133.7934353  76.1531020  82.0671550 133.7065597  77.9038386  82.0593993
   4.9970012  90.0554997  84.0419988   5.1807825  89.3067227  83.2778087
   5.4638184  89.7126078  84.9608550   5.5012589  90.9686623  83.7379096
   3.4740012  90.2974997  84.2409988   3.0869601  89.3047690  84.4643552
   3.1317237  90.5400810  83.2385944   2.8800012  91.3394997  85.2899988
   3.1444639  92.3515982  84.9839841   3.3631734  91.1797988  86.2518778
   1.4150012  91.2544997  85.4809988   1.1209717  90.2187161  85.6357536
   0.8888839  91.5869269  84.5874671   0.9590012  92.0594997  86.6509988
   1.5432294  91.7891446  87.5268746  -0.0718869  91.7918694  86.8768501
   1.0520012  93.5574997  86.4419988   0.4104642  93.7991627  85.5965129
   2.0698333  93.7701366  86.1220296   0.6910012  94.4724997  87.6349988
   1.3203194  94.1229777  88.4514318  -0.3291270  94.1951081  87.8969576
   0.7920012  96.0174997  87.5359988   0.8903607  96.2657788  86.4799998
   1.7294476  96.3098045  88.0055049  -0.3589988  96.8394997  88.1459988
  -1.2887128  96.5354754  87.6698242  -0.2116309  97.8863419  87.8833566
  -0.4959988  96.7214997  89.5909988  -1.0995060  95.8311340  89.7532548
  -1.1097380  97.5668941  89.9009366   0.7830012  96.6664997  90.4759988
   1.3739381  97.5685242  90.3321712   1.4219776  95.8362473  90.1801642
   0.4580012  96.5444997  91.9249988  -0.2592139  95.7324419  92.0165610
  -0.0753720  97.4532723  92.1976073   1.6510012  96.3344997  92.9419988
   2.2033325  97.2641238  93.0684148   2.3664751  95.6026810  92.5775643
   1.1540012  95.9034997  94.2929988   0.4973776  96.6838395  94.6634854
   2.0210907  95.8848918  94.9479045   0.4490012  94.5734997  94.3919988
   1.0739112  93.7829686  93.9962853  -0.4790892  94.5957670  93.8332310
   0.1260012  94.2104997  95.7779988   0.0190012  95.0204997  96.6469988
  -0.0389988  92.8634997  95.9189988  -0.0879988  92.4404997  97.3469988
  -0.9779213  91.8357956  97.4355027  -0.1752549  93.2952794  98.0019262
   1.1500012  91.6134997  97.6889988   1.1519728  90.7428330  97.0543102
   1.1720012  91.1814997  99.1739988   1.9300945  90.4210173  99.3034666
   0.2040737  90.7468631  99.3903145   1.4190012  92.2684997 100.0209988
   1.7280012  92.1484997 101.5729988   3.0180012  92.9524997 101.5969988
   4.2630012  92.3524997 101.5689988   4.2615730  91.3828825 101.0883436
   4.6332544  92.1955493 102.5779964   5.2780012  93.2914997 100.9099988
   4.9078982  93.3825041  99.8965931   6.2671173  92.8577072 100.8808378
   5.4670012  94.7604997 101.4289988   5.5530012  94.8214997 102.9469988
   4.7108448  94.2852078 103.3623272   5.5046822  95.8591480 103.2420430
   6.4951823  94.3986267 103.2619435   6.8190012  95.2834997 100.9899988
   6.9289435  95.1034455  99.9316004   7.5876967  94.7875068 101.5552139
   6.8347725  96.3453164 101.1889800   4.3730012  95.6264997 100.9029988
   4.3848858  95.5981587  99.8235834   4.5297616  96.6400900 101.2402090
   3.4215994  95.2673627 101.2680883   0.7060012  92.8264997 102.3769988
   2.0650012  90.7204997 101.8639988   2.3280012  92.4094997  97.3689988
   3.5670012  91.8724997  97.3799988   3.7830012  90.6704997  97.4649988
   4.5630012  93.0004997  97.2859988   4.3334554  93.7401760  98.0460913
   5.5688110  92.6509721  97.5052794   4.4800012  93.5744997  95.8999988
   4.6099844  92.7932056  95.1592255   3.5016634  94.0056543  95.7129321
   5.5740012  94.6484997  95.6999988   5.6822797  95.1812922  96.6413074
   6.5074083  94.1127357  95.5458135   5.3830012  95.6664997  94.5259988
   4.5432939  96.3379288  94.6956475   6.2471164  96.3006570  94.3433753
   5.0870012  94.8184997  93.2229988   5.8903232  94.0918446  93.1202993
   4.1840931  94.2453512  93.4245900   4.9080012  95.5604997  91.9099988
   4.1225501  96.2982186  92.0666460   5.8182386  96.1193250  91.7112528
   4.5650012  94.7004997  90.6519988   5.3396674  93.9638787  90.4735005
   3.6459218  94.1428106  90.8269904   4.3690012  95.5874997  89.4459988
   3.6276444  96.3667335  89.5394806   5.0480012  95.5084997  88.2519988
   4.8069577  96.2286374  87.4832923   6.1570012  94.4914997  87.8449988
   6.9416909  95.0680330  87.3580775   6.6021951  94.0661898  88.7375204
   5.7310012  93.3524997  86.8909988   6.4012621  92.4996515  86.9915238
   4.7403873  92.9933884  87.1633630   5.7140012  93.8114997  85.4579988
   5.0120913  93.2305828  84.8596969   5.4063000  94.8493276  85.3645256
   7.0870012  93.6484997  84.8999988   7.7431914  94.3151497  85.4550997
   7.4210026  92.6368727  85.1239160   7.2310012  93.9074997  83.3889988
   8.2960191  93.9212990  83.1650872   6.8288389  93.0445213  82.8653969
   6.6080012  95.2094997  82.8229988   5.6368243  95.4088491  83.2723965
   7.2301108  96.0724004  83.0536847   6.4160012  95.1204997  81.1479988
   5.5158314  94.5323194  80.9878319   6.1590879  96.1383248  80.8627959
   7.5440012  94.6074997  80.2069988   7.2542052  94.7113124  79.1656966
   7.7703383  93.5605622  80.3785637   8.4609137  95.1715052  80.3529789
  10.7760012 115.1874997  83.7109988  11.3723369 115.1461114  82.8048533
  11.4043644 114.8648917  84.5361495  10.5119837 116.2269286  83.8856250
   9.5410012 114.3254997  83.5949988   9.8788852 113.3145653  83.3735283
   9.0047137 114.6678822  82.7140992   8.5980012 114.2884997  84.8059988
   7.7732518 113.6018258  84.6157450   8.1476842 115.2698950  84.9410868
   9.2840012 113.8974997  86.0879988  10.1767601 114.5085150  86.2015406
   9.6309588 112.8682446  86.0107952   8.4300012 114.0484997  87.3359988
   7.5362369 113.4352893  87.2539529   8.0873864 115.0789508  87.4144243
   9.1680012 113.6714997  88.5989988  10.0619283 114.2858217  88.6902116
   9.5126904 112.6425489  88.5213673   8.3150012 113.8254997  89.8669988
   8.8723674 113.4147112  90.7068593   7.4260861 113.2054437  89.7593385
   7.9010012 115.2344997  90.1879988   7.3171936 115.2273565  91.1075469
   7.2326832 115.5912527  89.4064858   9.0390012 116.1884997  90.3349988
   9.5824522 116.2550230  89.3949049   9.7464366 115.8025290  91.0678963
   8.5740012 117.6244997  90.7699988   7.8975243 117.5367988  91.6173397
   7.9963217 118.0756412  89.9636571   9.7480012 118.5484997  91.1279988
   9.3815842 119.5657781  91.2480998  10.4625846 118.5795995  90.3073092
  10.4850012 118.1354997  92.4349988  11.2114452 118.9072620  92.6776527
  11.0576879 117.2334760  92.2275060   9.5620012 117.8674997  93.6549988
   8.6577663 118.4345907  93.4404781  10.0386854 118.3619554  94.4967586
   9.1350012 116.4214997  94.0859988  10.0051298 115.7746988  94.1292396
   8.4747458 116.0101146  93.3271066   8.4480012 116.3844997  95.3659988
   7.5936966 117.0494225  95.3569220   9.1169253 116.6886384  96.1623084
   8.4030012 114.9234997  95.9179988   8.5720012 113.9154997  95.2219988
   8.1710012 114.9654997  97.2629988   8.0480012 113.6934997  97.9349988
   7.6545723 113.0078241  97.1997949   7.3327673 113.7991706  98.7377852
   9.4150012 113.1824997  98.4709988   9.2489389 112.1963494  98.8720287
  10.0630012 114.1124997  99.5789988  10.8869201 113.6030633 100.0600738
   9.3085587 114.3324350 100.3240021  10.5220012 115.3364997  98.9469988
  10.6400012 116.5654997  99.8249988  11.3060012 116.0284997 101.1099988
  12.6580012 115.6284997 101.2659988  13.3574500 116.4077227 100.9925543
  12.8718730 114.7820086 100.6198497  12.9340012 115.1054997 102.7449988
  12.5766225 115.8758166 103.4166693  13.9787323 114.9224900 102.9509629
  12.1960012 113.8264997 103.1479988  10.6860012 114.0294997 103.1659988
  10.4625530 114.9061621 103.7583399  10.2381703 113.1589066 103.6216470
  10.3335752 114.1287634 102.1502923  12.7130012 112.7984997 102.0909988
  13.7905837 112.8499926 102.0613614  12.2816751 113.0319673 101.1340136
  12.3975377 111.8168932 102.4138431  12.7020012 113.4014997 104.4589988
  13.7678794 113.2410771 104.3938058  12.2144888 112.4820194 104.7462925
  12.4912137 114.1665729 105.1922562  11.6540012 117.4714997  99.2459988
   9.3310012 117.2084997 100.1799988  10.3190012 113.1024997  97.3849988
  11.5940012 112.6134997  97.5499988  12.0380012 111.9584997  98.4289988
  12.4660012 113.0984997  96.4079988  13.3739745 112.5042495  96.4059740
  11.9761879 112.8964429  95.4587027  12.7510012 114.5484997  96.5649988
  11.8048892 115.0780841  96.5432402  13.1646152 114.7135535  97.5548036
  13.6840012 115.1444997  95.5049988  14.6280192 114.6055470  95.5087329
  13.2428067 114.9763337  94.5256456  13.9270012 116.5934997  95.6699988
  13.0560821 117.0063294  96.1757434  14.7652720 116.7286622  96.3491417
  14.1790012 117.4064997  94.4119988  13.2883866 117.5890718  93.8141911
  14.6130415 118.3836198  94.6150412  15.1780012 116.5884997  93.5959988
  16.1466155 116.5858394  94.0934726  14.8658806 115.5501570  93.5271271
  15.3440012 117.1664997  92.1289988  15.5933598 118.2193372  92.1917152
  16.1972092 116.6765272  91.6617633  14.1300012 116.9464997  91.2649988
  13.4637700 117.7862469  91.1364894  13.7930012 115.7544997  90.6009988
  12.8716072 115.6917984  90.0400071  14.5910012 114.5264997  90.5779988
  15.3164534 114.6019385  91.3862370  13.9655082 113.6718316  90.8103392
  15.3710012 114.2544997  89.2409988  16.1103418 115.0508813  89.1644695
  15.9299721 113.3379724  89.4198512  14.6130012 114.1314997  87.9149988
  13.9940698 113.2356962  87.8643316  13.9504875 114.9698635  87.7182101
  15.6670012 114.0654997  86.8469988  15.9748856 115.0792839  86.6008407
  16.5491539 113.5681333  87.2463962  15.1920012 113.3134997  85.5399988
  15.0324767 112.2581383  85.7529644  14.2336178 113.6956451  85.1992772
  16.2340012 113.4164997  84.4079988  17.1684232 113.7539688  84.8528055
  16.4197370 112.4072511  84.0450200  15.9150012 114.3114997  83.2099988
  15.9001803 115.3435366  83.5514590  16.7672405 114.2342075  82.5384133
  14.6650012 114.0244997  82.4359988  14.5956761 114.6673418  81.5636358
  13.7729837 114.1873143  83.0314291  14.6475296 112.9947733  82.0903121
 131.1480012  83.8734997  83.9719988 131.8830702  83.3157768  83.4001180
 131.5344103  84.8780969  84.1178151 130.2487574  83.9516813  83.3671350
 130.8560012  83.2004997  85.2979988 131.8091437  83.1136329  85.8168210
 130.5446705  82.1869939  85.0598953 129.8310012  83.8624997  86.2319988
 130.0023424  83.4818519  87.2388148 128.8474247  83.5021803  85.9371797
 129.7960012  85.3984997  86.2699988 128.9061188  85.7016958  86.8172021
 129.6678837  85.7722646  85.2553108 131.0140012  86.0694997  86.9069988
 130.9376098  87.1463285  86.7798097 131.9028081  85.7595271  86.3599117
 131.2030012  85.7564997  88.3999988 131.5280958  84.7262743  88.5332883
 130.2572822  85.8479813  88.9299268 132.2450012  86.7104997  89.0439988
 131.7049855  87.5581007  89.4620008 132.8672260  87.1104706  88.2445680
 133.1510012  86.0934997  90.1359988 133.7665629  86.9305938  90.4628138
 133.8107395  85.4300251  89.5799136 132.6300012  85.3814997  91.3189988
 132.1167047  84.4781546  90.9964535 131.8780953  85.9997312  91.8078795
 133.7300012  85.0084997  92.3439988 134.3402497  85.9084867  92.3743168
 134.3164232  84.2598700  91.8119351 133.4500012  84.5054997  93.7909988
 134.3998033  84.1910743  94.2182616 132.8360495  83.6088236  93.7264739
 132.7680012  85.5374997  94.7909988 131.8119336  85.8661528  94.3908227
 133.3869070  86.4292914  94.8705797 132.5770012  84.9424997  96.2019988
 132.0626881  85.6749395  96.8218906 133.5423503  84.7718634  96.6702490
 131.7510012  83.6154997  96.2379988 132.3619371  82.7536053  95.9905309
 130.9445804  83.6487636  95.5102137 131.1600012  83.4244997  97.5919988
 130.5721379  84.2886778  97.8742292 131.9418716  83.2803131  98.3281766
 130.4070012  82.0964997  97.6159988 130.4100012  81.2944997  96.6859988
 130.0640012  81.8094997  98.9139988 129.7990012  80.5044997  99.2989988
 129.6477296  79.8723296  98.4370592 128.8834231  80.5468935  99.8709354
 130.9910012  79.9544997 100.1789988 130.7054087  79.0268145 100.6466857
 131.4140012  80.9934997 101.2719988 130.5528074  81.2285723 101.8826437
 131.7264372  81.8908716 100.7526797 132.4870012  80.4864997 102.0879988
 133.2520012  81.5234997 102.9969988 133.5620012  82.7494997 102.0849988
 134.2420012  82.6474997 100.7989988 134.0886602  81.6824981 100.3337595
 135.3131955  82.7522159 100.9451982 133.8540012  83.7814997  99.8509988
 132.7909421  83.9417728  99.9793224 134.0474192  83.5488739  98.8137660
 134.5310012  85.1744997 100.1139988 133.7470012  85.9814997 101.1489988
 132.7077932  86.0078568 100.8511966 134.1470661  86.9844321 101.1622083
 133.8767582  85.5267051 102.1195873 135.9150012  85.0484997 100.7059988
 136.4813488  84.3510679 100.1080412 135.8319251  84.7157428 101.7251853
 136.3728285  86.0263823 100.6680947 134.6170012  85.8574997  98.8429988
 135.1883412  85.2543659  98.1531566 135.1075380  86.8088813  98.9840542
 133.6226848  86.0181780  98.4519074 132.2930012  81.9514997 104.0449988
 134.5360012  80.9204997 103.5029988 132.1480012  79.7844997  99.3779988
 132.2690012  78.8304997  98.4919988 131.5390012  77.8914997  98.2479988
 133.6370012  79.0624997  97.7529988 133.7438500  80.1192834  97.5308626
 134.4745924  78.8079105  98.3976167 133.6390012  78.2004997  96.4729988
 134.6810888  78.1692852  96.1744356 133.3944330  77.1995587  96.8140803
 132.7860012  78.5574997  95.2659988 132.6134407  77.6588791  94.6791786
 131.8113279  78.8744400  95.6288015 133.3800012  79.7044997  94.3429988
 133.5047513  80.6309316  94.9005536 134.3592160  79.4583850  93.9395537
 132.4110012  79.9694997  93.1719988 132.0828800  79.0320487  92.7276754
 131.5129258  80.4594152  93.5432458 133.0370012  80.8504997  92.0919988
 132.5968885  81.8442010  92.1595225 134.0984319  80.9712321  92.2897525
 132.8610012  80.3124997  90.6609988 133.6075501  80.8625060  90.0999839
 133.2271611  79.2895845  90.7379244 131.5150012  80.2974997  89.9239988
 131.0441482  81.2576362  89.7757109 130.8760012  79.2214997  89.4379988
 129.9245236  79.4389764  88.9743131 131.2480012  77.7674997  89.4189988
 131.4086556  77.5207814  90.4671119 130.3633213  77.2215677  89.1108091
 132.4900012  77.2574997  88.5969988 133.3874718  77.6995751  89.0280682
 132.5727954  76.1844523  88.7587813 132.4550012  77.5334997  87.1179988
 131.8680008  76.7758854  86.5988087 131.9765126  78.4858404  86.9068122
 133.9480012  77.5424997  86.5269988 134.3758761  76.5746878  86.7788087
 133.8529536  77.5602994  85.4426860 134.9000012  78.6704997  86.9719988
 134.4543457  79.6464499  86.7889624 135.0982180  78.6302965  88.0395749
 136.2030012  78.6004997  86.1989988 136.8308629  79.4397191  86.4929092
 136.7388462  77.7024324  86.5009579 136.0760012  78.5994997  84.6849988
 135.4305093  77.7796928  84.3797580 135.5499151  79.5099251  84.4063017
 137.4160012  78.5304997  83.8869988 137.2346493  78.6232481  82.8204256
 137.9359196  77.5921297  84.0478949 138.0865164  79.3335845  84.1795822
   7.8280012  67.9024997  81.8669988   8.5266286  67.8063815  81.0417049
   7.6910623  68.9619530  82.0634585   6.8723344  67.5026669  81.5392079
   8.3410012  67.1584997  83.1299988   9.3065243  67.5586795  83.4346693
   8.5044305  66.1091314  82.8999311   7.3490012  67.2954997  84.2919988
   6.6060626  66.5060822  84.1789002   6.8176628  68.2330032  84.1405472
   7.9090012  67.2724997  85.7559988   8.4441238  66.3363901  85.8994998
   7.0733940  67.2520988  86.4538888   8.8350012  68.4204997  86.1139988
   8.3676716  69.3244892  85.7319268   9.7351886  68.2678336  85.5209384
   9.2400012  68.6524997  87.6279988  10.0714300  69.3550212  87.6254372
   9.6399916  67.7092008  87.9937473   8.1580012  69.1514997  88.5939988
   7.2825582  68.5093270  88.5166440   7.8339983  70.1456146  88.2890601
   8.6490012  69.1994997  90.1299988   9.4430858  69.9440966  90.1681577
   9.1231090  68.2393332  90.3248992   7.6200012  69.4944997  91.2439988
   6.7162850  68.8995743  91.1304123   7.3006331  70.5359119  91.2375497
   8.2820012  69.1694997  92.6129988   8.8560381  68.2473132  92.5550961
   7.5282059  69.0119152  93.3839650   9.2100012  70.3504997  93.0369988
   8.6217811  71.1987937  93.3804159   9.8037274  70.7135442  92.1998513
  10.1320012  69.9274997  94.1549988  10.9691050  70.6208543  94.1821174
  10.5491491  68.9575810  93.8905836   9.4910012  69.8224997  95.5379988
  10.0427828  69.0379586  96.0530563   8.4859465  69.4386564  95.3869903
   9.4260012  71.0534997  96.4739988   8.9865045  71.8733473  95.9153956
  10.4525440  71.3360361  96.6918864   8.6790012  70.8874997  97.7909988
   9.0796803  70.0522754  98.3512645   7.6258787  70.7101541  97.6078301
   7.1240012  70.8094997  97.5599988   6.5620012  71.5764997  96.7889988
   6.6260012  69.7644997  98.1879988   5.3290012  69.5344997  97.7139988
   5.4195849  69.4553966  96.6411524   4.7218544  70.3951062  97.9546668
   4.6990012  68.2134997  98.3089988   3.7502786  68.0400106  97.8286645
   4.5150012  68.2454997  99.8259988   4.1742010  67.2772182 100.1667145
   3.7503641  68.9798107 100.0466851   5.7300012  68.5934997 100.4599988
   5.6580012  68.8964997 102.0709988   6.6550012  67.7884997 102.6829988
   6.3850012  66.3824997 102.6429988   5.3582570  66.1896269 102.9254623
   7.0063527  65.8967711 103.3898502   6.7510012  65.6504997 101.2439988
   6.1870617  66.2395545 100.5317940   6.3783903  64.6364529 101.2282740
   8.1610012  65.5834997 100.6979988   8.8110012  66.8594997 100.2589988
   8.1413675  67.3732939  99.5830252   9.7255136  66.6072716  99.7431034
   9.0388218  67.4546969 101.1305233   8.9930012  64.9694997 101.7299988
   8.5121610  64.0626114 102.0632562   9.1210163  65.6667433 102.5385984
   9.9479648  64.7390424 101.2802980   8.0400012  64.5414997  99.5569988
   7.6794845  63.6085885  99.9641676   9.0112204  64.3902015  99.1103534
   7.3507304  64.9047798  98.8084212   6.2880012  70.2074997 102.1129988
   4.3210012  68.8344997 102.7219988   5.6040012  67.1334997  97.9609988
   5.2110012  66.4154997  96.8649988   4.2890012  66.7134997  96.0999988
   6.1230012  65.2064997  96.6329988   7.1521443  65.5324481  96.7433394
   5.9618455  64.4624410  97.4090867   5.8570012  64.6294997  95.2629988
   6.1867274  63.5973299  95.3073531   4.7781869  64.5952779  95.1488860
   6.5050012  65.3234997  94.0089988   6.1004179  66.3039069  93.7707384
   7.5809835  65.4526657  94.0964234   6.2130012  64.3154997  92.8279988
   6.7450095  63.3894408  93.0379703   5.1555274  64.0628302  92.8175404
   6.6150012  64.7934997  91.4489988   6.3704290  65.8513751  91.3783935
   7.6999022  64.7290182  91.3923172   6.0380012  64.0784997  90.2909988
   6.1768893  63.0217834  90.5140723   4.9675845  64.2610429  90.3256985
   6.5490012  64.3724997  88.8419988   6.3890358  65.4217623  88.6228208
   7.6267768  64.2162334  88.8239264   5.9340012  63.5184997  87.8189988
   6.4868569  62.6228327  87.5788212   4.7620012  63.7174997  87.1609988
   4.3840083  63.0768383  86.3772357   3.8800012  64.8644997  87.4819988
   2.9608709  64.4397283  87.8819862   4.3232784  65.4407714  88.2864223
   3.5110012  65.8044997  86.3239988   4.3703821  66.4431372  86.1232218
   3.3767660  65.1889153  85.4365891   2.2630012  66.6744997  86.5279988
   1.9481284  67.0664265  85.5608610   1.4469459  66.0514134  86.8834159
   2.4760012  67.8414997  87.5009988   1.6038995  68.4902344  87.4594439
   2.5191904  67.4545532  88.5176069   3.6690012  68.6034997  87.2319988
   3.6955611  69.4006291  87.9725859   4.5118568  67.9572362  87.4612647
   3.8540012  69.2334997  85.8599988   4.6148290  70.0090598  85.9273069
   4.2492532  68.4812386  85.1797686   2.5960012  69.8394997  85.2349988
   1.8914067  69.0332078  85.0469693   2.1422631  70.4544993  86.0090854
   2.7540012  70.6764997  83.9769988   1.8056414  71.1183535  83.6863996
   3.1078131  70.0858411  83.1387383   3.4620015  71.4855982  84.1326782
  95.0830012 126.4754997  79.9399988  94.5369410 126.1204826  79.0715460
  95.7146503 127.2992382  79.6202110  94.3587353 126.8715978  80.6465094
  95.9530012 125.2994997  80.6029988  96.6289783 124.9153235  79.8409840
  95.2729871 124.4872749  80.8452506  96.7530012 125.6904997  81.8259988
  97.2420546 126.6590720  81.7229293  97.5438060 124.9755999  82.0444412
  95.7910012 125.7334997  83.0229988  95.1255067 124.8763103  82.9482083
  95.1585421 126.6150967  82.9308670  96.4440012 125.7234997  84.3959988
  97.1533764 126.5466378  84.4243424  97.0336190 124.8099713  84.4524045
  95.5390012 125.8114997  85.6129988  94.8054887 125.0100750  85.5459538
  94.9791428 126.7422235  85.5506386  96.2290012 125.7394997  86.9359988
  97.0929892 126.4013631  86.9207840  96.6195379 124.7325934  87.0768913
  95.3170012 126.1114997  88.1449988  94.6145001 125.2892431  88.2747578
  94.7243910 126.9724311  87.8411992  95.9690012 126.4014997  89.4339988
  95.1997610 126.5425499  90.1902496  96.4940450 127.3525577  89.3540330
  96.9840012 125.2824997  89.9189988  97.9765847 125.4502520  89.5067657
  96.6751164 124.2944866  89.5786321  97.0430012 125.2914997  91.4319988
  97.5825971 124.4233932  91.8045151  96.0495278 125.2425440  91.8744261
  97.7870012 126.6074997  91.9509988  97.1046574 127.4455463  91.8314005
  98.6224307 126.7975798  91.2797336  98.3160012 126.5584997  93.3899988
  99.2579998 127.1028452  93.4297292  98.5452800 125.5331169  93.6662150
  97.4190012 127.1344997  94.3939988  96.4414986 126.6722592  94.3036246
  97.2909284 128.1887113  94.1630718  97.9060012 127.0074997  95.8469988
  98.8956896 127.4331848  95.9535350  97.9417202 125.9658995  96.1434143
  96.8810012 127.7004997  96.8619988  95.8140012 128.2314997  96.5039988
  97.5060012 127.8144997  98.0009988  96.6430012 128.2264997  99.0619988
  95.9429856 128.8683389  98.5486932  97.2084001 128.8151708  99.7697998
  95.8570012 127.0204997  99.8069988  95.3106376 127.4621693 100.6238885
  96.8460012 125.9604997 100.3479988  96.3311530 125.4039621 101.1193601
  97.6520058 126.5215220 100.8042831  97.3510012 125.0874997  99.3639988
  98.8020012 124.4384997  99.6559988  98.5210012 123.5324997 100.9099988
  97.9950012 122.2224997 100.6969988  98.5100779 121.6047586  99.9729263
  96.9479447 122.2276349 100.4081331  98.0260012 121.5614997 102.1299988
  99.0891608 121.5412218 102.3337862  97.6656325 120.5450672 102.0638430
  97.3820012 122.1504997 103.3639988  95.9990012 122.6244997 103.0619988
  96.0356189 123.2631672 102.1901634  95.6473611 123.1896725 103.9123099
  95.3607329 121.7675187 102.9073561  97.2890012 121.0584997 104.4099988
  98.2563011 120.5888606 104.5021071  96.5351820 120.3513599 104.1132162
  97.0144493 121.5279393 105.3435643  98.2460012 123.2294997 103.9059988
  99.2196666 122.8233766 104.1364801  97.7971510 123.6256853 104.8044533
  98.3422213 124.0171169 103.1726259  99.1330012 123.5554997  98.4999988
  99.8300012 125.3894997 100.1839988  94.8850012 126.4114997  98.8899988
  94.0040012 125.5464997  99.4159988  93.9060012 125.2094997 100.5859988
  93.1210012 125.1244997  98.2459988  92.1748769 124.7908522  98.6596184
  92.8894836 125.9966563  97.6396578  93.7970012 124.0334997  97.4079988
  94.2021506 123.2804262  98.0749285  93.0520212 123.5279947  96.8017788
  94.9260012 124.5704997  96.5089988  94.5789358 125.4829471  96.0308363
  95.7476860 124.8622441  97.1584480  95.4460012 123.6194997  95.4809988
  94.6101660 123.2587016  94.8844166  96.1117678 124.1334189  94.7919097
  96.1750012 122.4144997  96.0629988  96.7074062 122.7221428  96.9606633
  95.4296233 121.6903630  96.3861380  97.1650012 121.7094997  95.0919988
  97.5243924 120.8071276  95.5842015  96.6188871 121.3818395  94.2118191
  98.3690012 122.5554997  94.6379988  98.0457704 123.1574438  93.7967110
  98.5927198 123.2516486  95.4452611  99.6460012 121.7694997  94.2989988
 100.1528399 121.2834143  95.1189924 100.1960012 121.6174997  93.0399988
 101.0848002 121.0130115  92.9293628  99.6900012 122.2084997  91.7489988
  98.6511998 122.5187173  91.8483855 100.2376164 123.0834261  91.4168809
  99.7650012 121.1184997  90.6679988 100.7848845 120.8291674  90.4173401
  99.2534611 120.2035288  90.9605976  99.0680012 121.7144997  89.4059988
  98.1138665 122.1534183  89.6976912  99.6671943 122.5282186  89.0068334
  98.8250012 120.6524997  88.2899988  99.6495916 120.6939014  87.5818452
  98.8504013 119.6565028  88.7286673  97.5030012 120.8454997  87.5599988
  97.2548311 119.9169842  87.0492536  96.7145532 121.0019231  88.2910983
  97.4870012 121.9914997  86.5049988  97.7289447 122.9559489  86.9479254
  98.2221535 121.8273485  85.7192256  96.0750012 122.0874997  85.8489988
  95.3295824 122.0659304  86.6400744  96.0108947 123.0802648  85.4089751
  95.7120012 121.0454997  84.7739988  94.7452269 121.2679566  84.3324905
  95.6593467 120.0422273  85.1831601  96.4469770 121.0374283  83.9740698
  37.3390012 134.6134997  83.3409988  37.5315501 135.6535021  83.0965629
  36.6730232 134.5926076  84.1988023  36.8092608 134.1696162  82.5025749
  38.6120012 133.8764997  83.6249988  39.1065395 134.4067385  84.4370835
  39.2419194 134.0043147  82.7488251  38.5050012 132.3904997  83.9849988
  37.9758878 131.9149275  83.1592875  37.8333559 132.3435543  84.8399021
  39.7740012 131.5744997  84.3139988  40.4879324 131.6823663  83.5004160
  39.5315398 130.5140989  84.3636857  40.4510012 132.0014997  85.6189988
  40.5896934 133.0765980  85.6996281  41.4370807 131.5562699  85.7405825
  39.4920012 131.5064997  86.8189988  39.0195761 130.5700169  86.5280837
  38.6866403 132.2267609  86.9462573  40.2270012 131.3114997  88.1799988
  40.9616269 130.5205890  88.0401580  39.4962199 130.9259636  88.8896118
  40.9280012 132.5624997  88.7919988  41.5506093 132.9926056  88.0085328
  41.6107732 132.2017642  89.5590557  40.0400012 133.6504997  89.3819988
  39.6350001 133.2705225  90.3174839  39.1899585 133.7783109  88.7129183
  40.6910012 134.9984997  89.6269988  41.1078842 135.3748004  88.6953844
  41.5303339 134.8827775  90.3122418  39.6490012 136.0714997  90.2399988
  38.9434400 136.3723747  89.4685075  40.1742887 136.9769708  90.5388683
  38.8650012 135.5354997  91.4209988  38.3490344 134.6215074  91.1370700
  38.0902717 136.2496818  91.6937775  39.7510012 135.2824997  92.6459988
  39.9942112 136.2452804  93.0922657  40.6945303 134.8469641  92.3292411
  39.1490012 134.4214997  93.7079988  39.8963717 134.0744341  94.4139221
  38.6975883 133.5365090  93.2674196  38.0130012 135.2344997  94.4989988
  37.2726877 135.6194520  93.8092245  38.4505639 136.0657331  95.0390532
  37.5360012 134.4254997  95.6739988  37.3140012 133.2234997  95.6059988
  37.5810012 135.2534997  96.6749988  37.7430012 134.6644997  97.9829988
  37.2792611 133.6959866  97.8716905  37.1956865 135.2356690  98.7188005
  39.2460012 134.5024997  98.4019988  39.7311933 133.8646569  97.6818327
  39.3570012 133.8614997  99.8529988  38.5447332 133.1769647 100.0565514
  39.3506532 134.6407700 100.6048515  40.6380012 133.1534997  99.8629988
  40.8050012 132.0024997 100.8759988  42.3090012 132.0304997 101.1659988
  43.2620012 132.8534997 100.4619988  43.2301911 132.7106651  99.3897230
  44.2725576 132.6080547 100.7755740  43.0700012 134.3744997 100.8369988
  42.0496537 134.6695200 100.6269913  43.7357085 134.9688432 100.2279286
  43.3380012 134.7994997 102.2959988  44.5800012 134.1044997 102.7639988
  44.4823002 133.0473424 102.5585552  44.6685277 134.2613913 103.8287279
  45.4331587 134.5355270 102.2619484  43.4950012 136.2984997 102.3449988
  42.6625074 136.7474647 101.8252887  44.4325991 136.5682556 101.8927689
  43.4837928 136.5906587 103.3851019  42.1980012 134.3844997 103.2099988
  41.2799195 134.8316133 102.8588613  42.4058242 134.7249705 104.2132630
  42.1058618 133.3079652 103.2056422  40.2200012 132.4024997 102.1819988
  40.5170012 130.6984997 100.1789988  39.8910012 135.8104997  98.3299988
  41.1450012 135.8404997  97.8719988  41.8110012 134.8424997  97.6199988
  41.5600012 137.2154997  97.6439988  40.6641268 137.7606485  97.3651172
  41.8794842 137.6348804  98.5947655  42.7110012 137.3494997  96.5389988
  43.2599083 138.2569080  96.7656529  43.4071015 136.5311871  96.6934066
  42.2740012 137.3844997  95.0969988  41.8163009 136.4292782  94.8526293
  41.4858373 138.1286592  95.0128012  43.3390012 137.7074997  94.1089988
  43.5502662 138.7731802  94.1753169  44.2598684 137.1975860  94.3813838
  43.0040012 137.3764997  92.6679988  42.4341452 136.4498395  92.6464097
  42.3372618 138.1508686  92.2935760  44.2000012 137.2594997  91.7189988
  43.8242380 136.7289567  90.8454844  44.4317309 138.2682534  91.3887939
  45.4860012 136.5954997  92.1969988  46.2468770 136.7949698  91.4514388
  45.7954500 137.1212452  93.0993174  45.3970012 135.0924997  92.5099988
  44.8709412 134.8735327  93.4269875  45.8630012 134.0464997  91.8069988
  45.6726283 133.0737073  92.2371652  46.5960012 134.0054997  90.5289988
  47.1383558 134.9489513  90.4978315  47.3457803 133.2271007  90.6162179
  45.8540012 133.8434997  89.2229988  46.5717441 133.6112207  88.4371256
  45.2040119 132.9745927  89.3065068  45.0000012 135.0864997  88.7999988
  44.0169230 135.0139881  89.2651937  45.4570090 135.9895997  89.1950408
  44.8290012 135.2234997  87.2589988  44.0639305 135.9672247  87.0476106
  45.7499692 135.6004872  86.8176562  44.4480012 133.8464997  86.5749988
  45.2884650 133.1549741  86.5732645  43.6425463 133.3333208  87.0931831
  44.0690012 134.0974997  85.1839988  44.9740990 134.1934239  84.5869398
  43.5477745 133.2210474  84.8032255  43.1590012 135.3744997  84.9299988
  42.4241403 135.1503794  84.1608013  42.5899100 135.5552710  85.8392677
  43.9300012 136.6864997  84.5489988  43.2475028 137.5281616  84.4792128
  44.4346732 136.5971406  83.5929328  44.6798639 136.9297857  85.2964335
  61.2400012 135.2064997  84.1999988  60.8730401 135.1081978  83.1830891
  62.3115653 135.0296196  84.1840724  61.0811964 136.2355486  84.5105649
  60.5260012 134.2234997  85.1509988  60.6817631 133.2065268  84.7950390
  59.4554694 134.4034065  85.1019133  61.0240012 134.3324997  86.6349988
  61.0304542 135.3859130  86.9146552  62.0627453 134.0088905  86.6564184
  60.2550012 133.5454997  87.6729988  60.9414069 133.2194861  88.4513382
  59.8529307 132.6376173  87.2260145  59.1240012 134.3324997  88.3199988
  58.4293756 134.7230569  87.5807198  59.5098272 135.1943238  88.8619973
  58.3520012 133.4184997  89.2989988  58.0238649 132.5179789  88.7830472
  57.4487078 133.9201667  89.6395400  59.2110012 133.0204997  90.5289988
  59.7417377 133.8792169  90.9360534  59.9736720 132.2909191  90.2601579
  58.2820012 132.4134997  91.6369988  58.0040963 131.3883395  91.3956141
  57.3501874 132.9704750  91.7156479  59.0130012 132.4374997  93.0149988
  59.0305353 133.4580779  93.3913678  60.0535746 132.1487508  92.8721424
  58.3760012 131.5244997  94.0589988  58.5286558 130.4972978  93.7351902
  57.2996811 131.6936619  94.0403336  58.8950012 131.7064997  95.5079988
  58.3356825 131.0792373  96.1988283  58.7627510 132.7300472  95.8543922
  60.3470012 131.3354997  95.6019988  60.7928353 131.4554625  94.6175904
  60.4054086 130.2738642  95.8347835  61.1340012 132.0884997  96.6159988
  62.1473940 131.6965760  96.6844299  60.7085435 132.0074450  97.6123370
  61.2250012 133.5694997  96.2299988  60.3062861 134.0563000  96.5403746
  61.2533339 133.6140836  95.1445028  62.4200012 134.3514997  96.7809988
  63.3484939 133.8644920  96.5112475  62.3626493 134.4169393  97.8610439
  62.2040012 135.8554997  96.8099988  62.4110012 136.6814997  95.9409988
  61.6460012 136.1184997  97.9889988  61.1970012 137.4464997  98.3319988
  61.0330038 138.0110975  97.4265728  61.9683504 137.9292240  98.9143985
  59.9100012 137.3364997  99.1219988  59.5026965 138.3170627  99.3050098
  60.1490012 136.6174997 100.4489988  61.1430757 136.8001256 100.8340501
  60.0171058 135.5503355 100.3211344  59.1480012 137.1454997 101.3569988
  58.4040012 136.2164997 102.4599988  57.8400012 135.0624997 101.5229988
  56.6080012 134.3264997 101.8659988  55.7672832 134.9719413 102.0846022
  56.7625996 133.7125231 102.7485683  56.2510012 133.2934997 100.6919988
  56.2325878 133.7816855  99.7257770  55.2632660 132.9121890 100.9073086
  57.1040012 132.1244997 100.5289988  58.4290012 132.5714997  99.9049988
  58.2143602 133.1591418  99.0229897  58.9815968 131.6864588  99.6267171
  58.9893132 133.1333625 100.6371720  57.2980012 131.3264997 101.7739988
  56.3303055 131.1304869 102.2097258  57.9290148 131.8766923 102.4488913
  57.7724535 130.3977667 101.4917807  56.3420012 131.2824997  99.5219988
  55.3608821 131.0600723  99.9144442  56.8799922 130.3624515  99.3495834
  56.2498983 131.8266592  98.5931056  59.2960012 135.7844997 103.6039988
  57.2510012 137.0234997 102.9489988  58.8980012 136.5004997  98.3109988
  58.3700012 137.0864997  97.2649988  58.3700012 138.2864997  97.0199988
  57.7700012 136.0774997  96.1949988  58.2367768 135.1053839  96.3160953
  56.7065103 135.9188262  96.3553638  58.0330012 136.6654997  94.8239988
  57.4968700 136.0660488  94.0964804  57.5895022 137.6552629  94.7826407
  59.5430012 136.7414997  94.4129988  60.1163280 137.1117228  95.2590987
  59.8881134 135.7261624  94.2339658  59.8420012 137.5924997  93.1569988
  59.2856361 137.1223320  92.3482304  59.3832376 138.5653526  93.3160431
  61.2540012 137.7924997  92.7029988  61.3459946 138.6913064  92.0967112
  61.9065197 137.9382892  93.5616872  61.7500012 136.6064997  91.9169988
  62.8378597 136.6262465  91.9602973  61.4390050 135.7024959  92.4331156
  61.2950012 136.5124997  90.4279988  61.6502355 135.5625026  90.0460379
  60.2075167 136.4521454  90.4369907  61.7080012 137.6514997  89.5249988
  62.6793525 137.5250609  89.0710783  61.0200012 138.7814997  89.2109988
  61.5009265 139.4690652  88.5301357  59.6810012 139.2204997  89.6669988
  59.4686512 138.7209642  90.6107110  59.6716058 140.2840766  89.8777042
  58.5410012 138.8824997  88.6719988  58.7372368 137.9465478  88.1502797
  57.6004374 138.7430756  89.2014889  58.3860012 139.9784997  87.6819988
  57.5947193 140.6677552  87.9767984  59.2905614 140.5740420  87.5947980
  58.0460012 139.3754997  86.3319988  58.0809622 140.2179481  85.6448282
  58.8981092 138.7450269  86.0840047  56.7160012 138.5594997  86.1149988
  56.3866090 138.1976850  87.0872029  55.9448239 139.2463380  85.7771175
  56.8010012 137.3314997  85.1479988  56.8623697 137.7290570  84.1365320
  57.7564480 136.8467128  85.3401888  55.6650012 136.2334997  85.1879988
  55.8637790 135.4561225  84.4544545  55.7014882 135.7417389  86.1576137
  54.2710012 136.7834997  84.9739988  53.5256681 136.0037461  85.0986264
  54.1463042 137.1962094  83.9785781  54.0481575 137.5712648  85.6880770
 107.8650012  23.9324997  82.1389988 107.3450746  24.4016522  81.3095403
 108.8351956  24.4112981  82.2352527 107.3024265  24.1446083  83.0440577
 108.0150012  22.3804997  81.9159988 108.5558586  22.2078500  80.9870917
 107.0258548  21.9525290  81.7772742 108.7410012  21.6684997  83.0609988
 108.2319813  21.9040667  83.9955232 109.7375351  22.0976030  83.1444337
 108.8770012  20.1404997  82.9279988 109.7350453  19.9367401  82.2912160
 108.0079519  19.7595648  82.3938190 109.0530012  19.3334997  84.2959988
 109.1156534  18.2637073  84.1138122 108.1854648  19.4840719  84.9363687
 110.3710012  19.8054997  85.0729988 110.7296343  20.6862432  84.5433856
 111.1117880  19.0267370  84.9046524 110.2910012  20.1214997  86.6129988
 110.0088444  19.2184764  87.1512428 109.4949501  20.8431550  86.7911734
 111.5610012  20.6464997  87.1699988 111.9004893  21.5171380  86.6103671
 112.3557861  19.9068617  87.0929497 111.3730012  21.0314997  88.6339988
 110.7863484  21.9473686  88.6577415 112.3534810  21.2886528  89.0328828
 110.6880012  19.9384997  89.5809988 111.1179589  18.9712851  89.3301375
 109.6325359  19.8812855  89.3161428 110.8190012  20.2004997  91.1199988
 110.2595737  21.1064846  91.3430979 111.8616431  20.4286234  91.3344407
 110.3430012  19.1004997  92.0569988 110.9692550  18.2291089  91.8817754
 109.3394474  18.8221139  91.7406901 110.3100012  19.4344997  93.5529988
 109.8426642  18.6265911  94.1134735 109.7255549  20.3264852  93.7605038
 111.7650012  19.6334997  94.1119988 112.2239892  20.5550633  93.7693687
 112.4217746  18.8229153  93.8075424 111.6860012  19.6484997  95.6419988
 111.2003530  18.7516839  96.0051906 111.1243806  20.5103059  95.9825004
 112.7720012  20.5334997  96.1609988 113.9110012  20.4964997  95.8419988
 112.1280012  21.3224997  97.0789988 113.0180012  22.3634997  97.5649988
 113.2849717  22.9622713  96.7072918 113.8995037  21.8567025  97.9301042
 112.4030012  23.2404997  98.6509988 113.1633187  23.8989894  99.0372662
 111.7790012  22.4364997  99.7969988 111.3377726  23.1031366 100.5254997
 112.5619603  21.8647371 100.2793344 110.7810012  21.5574997  99.2499988
 110.2690012  20.2664997 100.1319988 109.5310012  21.0734997 101.3129988
 108.3710012  21.8884997 101.0459988 107.4812069  21.5282574 101.5456794
 108.1494763  21.8860072  99.9826467 108.6490012  23.3864997 101.4039988
 107.7410657  23.9317450 101.1790326 109.4695571  23.8426218 100.8691927
 108.9280012  23.6354997 102.8989988 107.9520012  22.8674997 103.7689988
 106.9470726  23.0799449 103.4308870 108.0730559  23.2083855 104.7864675
 108.1831156  21.8145153 103.7096101 110.3440012  23.0904997 103.2339988
 111.0414812  23.4792894 102.5079974 110.3190582  22.0155478 103.2189540
 110.6011380  23.4447373 104.2217707 108.8750012  25.1314997 103.1089988
 109.6065076  25.6061226 102.4720424 109.0968139  25.3527186 104.1422031
 107.8870299  25.4950598 102.8657460 109.3110012  19.4844997  99.4059988
 111.4300012  19.5234997 100.6189988 111.2890012  24.0564997  98.0169988
 110.7240012  25.0224997  98.7679988 111.1690012  25.4554997  99.8319988
 109.4820012  25.5994997  98.0279988 109.1681693  26.5073974  98.5327603
 109.7446934  25.8974536  97.0160090 108.3500012  24.5094997  98.0209988
 108.7962415  23.5324407  98.1702848 107.6824370  24.6662511  98.8623192
 107.5530012  24.5004997  96.7229988 106.5902727  24.0143831  96.8590085
 107.3367249  25.5204680  96.4148525 108.3620012  23.7864997  95.5689988
 109.1865680  24.4324644  95.2731525 108.8125402  22.8684758  95.9383883
 107.5320012  23.4634997  94.3229988 107.9974038  22.7022005  93.7003231
 106.5492896  23.0785220  94.5884253 107.3420012  24.8104997  93.4659988
 106.3587830  25.1981348  93.7281476 108.0647939  25.5318836  93.8368004
 107.4690012  24.7304997  91.8969988 107.3748063  25.7371912  91.5067687
 108.4845494  24.4078589  91.6713647 106.5450012  23.8324997  91.2479988
 105.6352056  23.6492283  91.7995762 106.6660012  23.2564997  90.1289988
 105.9125046  22.6236123  89.6825612 107.9040012  23.4124997  89.2979988
 108.7333837  23.4105248  90.0032233 108.0228330  22.5245470  88.6871797
 108.0310012  24.6804997  88.3989988 107.3241770  24.5550199  87.5796335
 107.6596515  25.5118444  88.9951736 109.4740012  25.0584997  87.8079988
 109.3900139  26.0784084  87.4327131 110.1543779  25.1013037  88.6540243
 110.0810012  24.1554997  86.7019988 110.0838863  23.1379398  87.0863275
 109.3935762  24.1599605  85.8578945 111.4780012  24.5324997  86.2149988
 111.5644961  25.6082206  86.0738142 112.2446974  24.2653842  86.9371145
 111.7700012  23.8454997  84.8489988 112.8223224  23.5937349  84.7301815
 111.2216261  22.9122290  84.7344361 111.3630012  24.7924997  83.7099988
 110.3398079  25.1315663  83.8515061 111.9821608  25.6844460  83.7762266
 111.5210012  24.1574997  82.2249988 111.3034129  24.9000055  81.4631527
 110.8466475  23.3225931  82.0671407 112.5332820  23.7999627  82.0588790
  92.7150012  14.6554997  82.3259988  92.0568765  14.9665982  81.5206922
  93.6230841  14.2619664  81.8784420  92.9853749  15.5421004  82.8929637
  92.0300012  13.5934997  83.2389988  91.7499851  12.7187892  82.6544685
  91.1069909  13.9955022  83.6479732  92.9790012  13.1564997  84.3899988
  93.4460250  14.0900131  84.7036393  93.7516705  12.5927243  83.8710474
  92.5420012  12.3504997  85.6519988  91.6038755  12.7158664  86.0639180
  93.2678300  12.4035009  86.4619799  92.3540012  10.8714997  85.2269988
  93.0659930  10.6367231  84.4399024  91.3645544  10.7693794  84.7843572
  92.5050012   9.8784997  86.3259988  92.5350805   8.8958439  85.8587731
  91.5859363   9.9109049  86.9072446  93.7090012  10.0284997  87.2719988
  93.4416075   9.5596022  88.2172002  93.8283494  11.0904737  87.4822300
  95.0350012   9.4604997  86.7869988  95.1132652   9.7436277  85.7381116
  94.9188153   8.3783883  86.8018228  96.2820012   9.8244997  87.4829988
  96.4648459  10.8695068  87.2420239  97.0739390   9.2574727  86.9952571
  96.3800012   9.6294997  88.9919988  97.4219285   9.5112307  89.2813064
  95.8759490   8.7082847  89.2830716  95.7390012  10.8374997  89.7699988
  94.6518517  10.7970010  89.7726321  96.0042863  11.8068510  89.3515375
  96.2120012  10.7644997  91.1719988  96.1927249   9.7121536  91.4447904
  95.4439913  11.2483004  91.7726382  97.5870012  11.3844997  91.5329988
  97.6199722  12.4004827  91.1431997  98.3823569  10.8402798  91.0314931
  97.8830012  11.4424997  92.9929988  98.9534472  11.3235737  93.1247065
  97.4119430  10.5747344  93.4470688  97.4180012  12.7004997  93.7439988
  96.3567746  12.8579089  93.5988731  97.9512018  13.5729067  93.3852899
  97.3460012  12.4344997  95.2479988  97.3920012  11.3474997  95.8239988
  97.0790012  13.6084997  95.7709988  96.7130012  13.6854997  97.0949988
  96.7916108  14.7554178  97.2156540  97.4597410  13.2048897  97.7102920
  95.2590012  13.1954997  97.4819988  94.5962794  13.6859546  96.7883506
  94.8790012  13.5904997  98.9529988  94.0751062  12.9711096  99.3270440
  94.5581120  14.6245389  98.9724414  96.0140012  13.4244997  99.7209988
  96.1010012  12.4114997 100.9409988  94.7260012  12.7054997 101.7049988
  94.4870012  13.9924997 102.2079988  94.6424501  14.7819429 101.4842557
  95.1427105  14.2096543 103.0462625  93.0370012  14.0464997 102.7959988
  92.8978821  15.0109179 103.2680076  92.9339470  13.2750039 103.5453659
  91.8860012  13.8774997 101.8769988  91.9370012  12.4814997 101.4299988
  92.9336266  12.2715133 101.0667118  91.2246922  12.3624681 100.6271617
  91.6648043  11.8394030 102.2542183  90.6030012  14.1134997 102.5689988
  90.6678802  15.0501053 103.1012342  90.4087554  13.2939244 103.2375307
  89.8335303  14.1694796 101.8126405  91.9240012  14.7544997 100.6819988
  91.9572216  15.7862342 100.9990196  91.0369029  14.5861062 100.0900948
  92.8002319  14.5241237 100.0932869  96.0830012  11.0434997 100.4199988
  97.2510012  12.7444997 101.8329988  95.1570012  11.7914997  97.2199988
  93.9740012  11.3154997  96.8109988  92.9450012  11.9984997  96.6379988
  94.0810012   9.8064997  96.5659988  95.0755276   9.5418674  96.2218478
  93.9128138   9.2220808  97.4671506  93.0090012   9.5104997  95.5069988
  92.9538787   8.4310984  95.4180295  92.0565140   9.8265786  95.9203937
  93.2100012  10.1534997  94.0359988  93.2208200  11.2392698  94.0873814
  94.1778806   9.8592175  93.6376616  92.1480012   9.6964997  93.0919988
  92.2402454   8.6148259  93.0133923  91.1790687   9.8866048  93.5472260
  92.1540012  10.2944997  91.6539988  93.0523411   9.9469761  91.1479220
  91.3150958   9.8550545  91.1178022  92.0660012  11.7824997  91.5419988
  91.1983673  12.0890700  92.1241732  92.9341607  12.2054819  92.0396964
  91.9660012  12.3944997  90.1009988  92.8630456  12.1791984  89.5321960
  91.1413227  11.9328893  89.5595494  91.7140012  13.9004997  90.1839988
  90.7323079  14.1594879  90.5510921  92.5230012  14.8934997  89.8849988
  92.2265701  15.9213143  90.0377591  93.9290012  14.7294997  89.3119988
  94.6436195  15.2475408  89.9493174  94.2494049  13.6942675  89.2757100
  94.0080012  15.3174997  87.9529988  93.3990354  14.7030081  87.2909822
  93.5214255  16.2900119  87.9968502  95.3560012  15.4754997  87.3759988
  95.3467458  16.3181050  86.6845961  96.0568488  15.7369795  88.1639993
  95.8560012  14.2254997  86.6419988  95.7253548  13.3590779  87.2865063
  95.2391353  14.0466388  85.7630389  97.3470012  14.3444997  86.2069988
  97.4269183  15.0721741  85.4015839  97.9402368  14.7419655  87.0259722
  97.9380012  13.0564997  85.7239988  99.0216380  13.1178204  85.8067872
  97.6284077  12.2601327  86.3983767  97.5690012  12.6314997  84.2409988
  98.1857628  11.7857584  83.9473292  96.5467507  12.2600430  84.2593541
  97.6760012  13.7554997  83.1569988  97.3219313  13.3979564  82.1947793
  98.6981165  14.0929506  83.0222837  97.0765725  14.6194391  83.4298262
 137.0320012  64.9354997  79.1869988 137.8410937  65.4419697  78.6700012
 136.6090413  64.2041958  78.5042912 137.4630368  64.3931290  80.0240497
 135.9740012  65.9234997  79.6609988 135.6324409  66.4588712  78.7767381
 136.4949138  66.6519161  80.2765258 134.7090012  65.3454997  80.4459988
 134.0986951  64.7718719  79.7485701 134.0957545  66.1875898  80.7606157
 135.0180012  64.4824997  81.6759988 135.8502298  63.8163908  81.4593319
 134.1725332  63.8400330  81.9170930 135.3760012  65.3314997  82.9009988
 134.5692662  66.0152229  83.1525424 136.2462122  65.9505186  82.6890711
 135.6820012  64.4104997  84.1599988 134.9188537  63.6348076  84.1869216
 135.5305964  65.0171508  85.0502953 137.0700012  63.7584997  84.2219988
 137.8144281  64.3229980  83.6634826 137.0712366  62.7539187  83.8012310
 137.4860012  63.6904997  85.6899988 137.3419627  64.6898368  86.0986908
 138.5592745  63.5097695  85.7002388 136.8000012  62.6784997  86.5889988
 136.9658852  61.6809926  86.1877467 135.7242049  62.8454697  86.5521161
 137.2790012  62.7244997  88.0789988 138.3662110  62.7598388  88.0839997
 137.0019032  61.7861487  88.5587311 136.7030012  63.9124997  88.9069988
 136.2724648  63.5022513  89.8179739 135.8747370  64.3481897  88.3508686
 137.7140012  65.0474997  89.3049988 137.9479730  65.6461538  88.4280214
 138.6506109  64.5915008  89.6204307 137.1890012  65.9684997  90.4639988
 137.1336487  65.4253159  91.4058796 136.1918305  66.3575724  90.2781304
 138.1850012  67.1764997  90.6569988 138.1453357  67.7759706  89.7534468
 139.1813253  66.7450394  90.7046666 137.9860012  68.0994997  91.8919988
 137.9886668  67.5171799  92.8046529 137.0431350  68.6285173  91.8197992
 138.5890012  67.3424997  93.0409988 139.5550012  66.6314997  92.9869988
 137.9080012  67.6604997  94.1349988 138.5190012  67.2354997  95.3609988
 139.2979377  67.9498887  95.5809264 138.9680862  66.2729736  95.1633670
 137.5070012  67.1484997  96.5579988 137.4656813  68.1217917  97.0183131
 137.9300012  66.0964997  97.5969988 138.9966551  66.0651574  97.7732601
 137.5946648  65.1045435  97.3210323 137.2180012  66.5634997  98.8089988
 137.5610012  65.8654997 100.2479988 136.4510012  66.1574997 101.3019988
 135.2120012  66.8554997 100.8719988 134.7136958  66.4394244 100.0061107
 135.3839946  67.9054747 100.6534406 134.2980012  66.8454997 102.0839988
 133.3134284  67.1251102 101.7308932 134.6130984  67.5569530 102.8336153
 134.1200012  65.5534997 102.7969988 135.2850012  65.0504997 103.6289988
 136.1769561  65.0639218 103.0177948 135.0660205  64.0369918 103.9305768
 135.3863986  65.6750846 104.5038297 133.0080012  65.8144997 103.8119988
 132.1778933  66.2762989 103.2997718 133.3881501  66.4466842 104.5944306
 132.7085886  64.8583157 104.2161785 133.7850012  64.4364997 101.8519988
 132.8808211  64.6834990 101.3157789 133.6348024  63.5280199 102.4156962
 134.5982295  64.2983756 101.1541331 137.6860012  64.3914997  99.9589988
 138.7510012  66.5264997 100.8169988 136.2140012  66.7644997  96.1029988
 135.4160012  67.7604997  95.6399988 135.5970012  68.9774997  95.7239988
 134.1980012  67.1134997  95.0849988 134.1831065  66.0853378  95.4317182
 133.3116730  67.5820373  95.5054770 134.1960012  67.2044997  93.5229988
 135.1171803  66.7214257  93.2161935 133.3921417  66.5513337  93.1986267
 134.0810012  68.5674997  92.8139988 133.2719602  69.1900388  93.1875649
 134.9873516  69.1609219  92.9058891 133.8460012  68.2324997  91.2699988
 134.0224693  69.1359077  90.6891210 134.5771843  67.5038762  90.9284126
 132.3990012  67.6994997  90.9319988 132.1792612  66.7875013  91.4832468
 131.6500868  68.4269417  91.2391411 132.2440012  67.4434997  89.4689988
 131.2068086  67.6277549  89.1933492 132.8416762  68.1561159  88.9075001
 132.6500012  65.9844997  89.0259988 133.6416933  65.7836750  89.4143237
 131.9770141  65.2927591  89.5309042 132.5830012  65.7194997  87.5149988
 131.8548615  65.0707877  87.0518148 133.4560012  66.3264997  86.7089988
 133.3333304  66.1264085  85.6542356 134.5740012  67.2414997  87.0229988
 134.5932877  67.4396235  88.0933239 135.5430432  66.8235013  86.7741697
 134.3970012  68.5404997  86.3109988 134.5150268  68.3879834  85.2388450
 133.3757705  68.8870867  86.4573691 135.3800012  69.6374997  86.7879988
 135.0734040  70.5632787  86.3011329 135.2059347  69.7812530  87.8507969
 136.9060012  69.4044997  86.5369988 137.4334026  70.0549873  87.2311591
 137.1266513  68.3848798  86.8480838 137.4250012  69.6204997  85.1299988
 136.6297378  70.0676563  84.5365368 138.2244752  70.3558494  85.1569627
 137.8730012  68.4264997  84.4459988 138.6242992  67.8743349  85.0077356
 137.0635590  67.7245644  84.2538420 138.4810012  68.8474997  83.1019988
 137.7827727  69.4620607  82.5392316 139.3434768  69.4814277  83.2958649
 138.9150012  67.6904997  82.2609988 139.4174072  68.0345171  81.3619386
 138.0755807  67.0777927  81.9500253 139.6068859  67.0517836  82.8027352
  99.9680012  18.1984997  84.6319988  99.4784604  18.9963689  84.0822866
  99.3603152  17.3041012  84.5292413 100.9230826  18.0040583  84.1517655
 100.1570012  18.5704997  86.0949988  99.1901512  18.7818690  86.5485704
 100.7335880  19.4890108  86.1635476 100.8620012  17.4334997  86.8969988
 101.5396983  17.8283562  87.6537972 101.4700553  16.8109543  86.2436394
  99.7800012  16.5204997  87.5929988 100.2790435  15.6209501  87.9465765
  99.0644361  16.1923422  86.8406788  98.9830012  17.1934997  88.8349988
  98.1643691  16.5451263  89.1367049  98.5278529  18.1226421  88.4960306
  99.8400012  17.4704997  90.0189988  99.2678885  17.9929238  90.7835752
 100.6580751  18.1333561  89.7452226 100.4090012  16.1874997  90.6059988
 101.3451422  15.8976390  90.1322997  99.7320244  15.3430880  90.4839276
 100.6600012  16.4374997  92.1509988  99.7004194  16.5763149  92.6473697
 101.2044862  17.3716996  92.2754596 101.4470012  15.2824997  92.8609988
 102.3433940  15.0201390  92.3031567 100.8464488  14.3752835  92.9145963
 101.8390012  15.7134997  94.2779988 100.9758586  16.1279137  94.7942786
 102.5824967  16.5091993  94.2391993 102.4140012  14.5174997  95.0809988
 101.7702436  13.6537799  94.9289944 102.3716269  14.7424149  96.1453040
 103.8050012  14.1354997  94.7149988 104.0613037  14.5773780  93.7551698
 103.8512457  13.0570834  94.5751779 104.8430012  14.5384997  95.7779988
 105.8131892  14.2909924  95.3505325 104.7048253  13.8722816  96.6249550
 104.9080012  16.0704997  96.3139988 104.7877149  16.7497435  95.4764404
 105.9004302  16.2455534  96.7208559 103.8630012  16.4134997  97.4009988
 103.9426182  15.7260724  98.2335526 102.8607559  16.3519384  96.9938334
 104.3510012  17.7224997  98.0469988 104.6660012  17.8854997  99.1839988
 104.1730012  18.7054997  97.1069988 104.3120012  20.1154997  97.5649988
 104.7552197  20.6011450  96.7087465 104.9927083  20.1834736  98.4011861
 102.9140012  20.7834997  97.9139988 102.8847776  21.8239709  97.6356830
 102.6750012  20.6404997  99.4219988 101.9949516  21.4360117  99.6949351
 103.6410258  20.8415849  99.8680326 102.1780012  19.3904997  99.8639988
 100.6510012  18.8834997  99.9029988 100.5370012  18.0874997 101.2729988
 100.9810012  18.5634997 102.5109988 100.1705410  18.6485172 103.2231190
 101.3884075  19.5627561 102.3872912 102.1380012  17.7234997 103.0869988
 101.9961718  17.7978713 104.1577939 103.0980708  18.1493555 102.8334437
 102.2460012  16.2684997 102.7929988 100.9070012  15.4114997 102.8999988
 100.4455726  15.6101322 103.8575805 101.1736863  14.3671411 102.8344688
 100.2575011  15.6720063 102.0778048 102.7080012  16.1294997 101.3739988
 103.5727700  16.7593294 101.2318606 101.9056499  16.4084998 100.7146344
 102.9746249  15.0937302 101.2210595 103.2670012  15.5354997 103.6329988
 104.2378007  15.9845872 103.4848412 103.2974259  14.4995695 103.3303886
 102.9893993  15.5994095 104.6752501  99.7950012  20.0754997  99.9769988
 100.4930012  17.8264997  98.8649988 101.9050012  20.1004997  97.0459988
 100.8380012  20.8274997  96.8289988 100.6110012  21.9864997  97.2159988
  99.7590012  19.9994997  96.0759988  99.4378429  19.2306970  96.7712346
  98.8955303  20.6422421  95.9236595 100.2280012  19.4274997  94.7979988
 101.1248064  18.8575444  95.0146838  99.4867370  18.7066659  94.4679091
 100.5170012  20.3924997  93.7029988 100.2967889  19.9656518  92.7278262
  99.8844154  21.2715248  93.7989942 102.0460012  20.8554997  93.7659988
 102.2621402  21.5488574  92.9552923 102.2721281  21.3858102  94.6878661
 103.0150012  19.6274997  93.6369988 103.1596142  19.1903000  94.6228205
 102.5159342  18.8675214  93.0388799 104.4140012  19.9344997  92.9929988
 104.2831518  20.2968933  91.9745439 104.9299556  20.7222619  93.5347918
 105.3180012  18.6674997  92.9759988 106.2166076  18.9513876  92.4407473
 105.6156015  18.5065974  94.0113202 104.7340012  17.3564997  92.4229988
 104.2928117  16.7563809  93.2045122 104.6790012  16.8684997  91.1709988
 104.2213603  15.9139646  90.9541168 105.2290012  17.5774997  89.9569988
 104.6764626  18.5073131  89.8330264 106.2656521  17.8580504  90.1064215
 105.0970012  16.7344997  88.6079988 105.7919039  15.8959976  88.5809906
 104.1015763  16.3068210  88.5046583 105.3800012  17.6934997  87.3839988
 104.7667479  18.5926925  87.4429876 106.4128360  18.0305728  87.3722598
 105.0700012  16.9574997  86.0809988 105.5426401  15.9811540  86.1616622
 103.9967384  16.7757989  86.0676961 105.4800012  17.6254997  84.7819988
 105.3945485  16.9189617  83.9585354 104.8073492  18.4442427  84.5415325
 106.9580012  18.1404997  84.8229988 107.5166276  17.4751417  85.4788328
 107.3754461  18.0031010  83.8271598 107.2200012  19.6144997  85.2709988
 106.3375163  20.2376399  85.1492134 107.4537916  19.6368884  86.3331446
 108.3560012  20.2124997  84.5189988 108.5885715  21.2038519  84.8960940
 108.1353947  20.3105322  83.4614245 109.2508560  19.6039895  84.6143466
 117.0830012  29.1214997  82.6329988 117.5327515  30.0620648  82.3305243
 116.5233032  29.3005351  83.5464945 116.3725411  28.8323651  81.8634147
 118.1380012  28.0444997  82.8359988 118.8396791  28.4133848  83.5821722
 118.6948930  27.9651908  81.9062700 117.6220012  26.6504997  83.2679988
 117.0357517  26.2203668  82.4560712 116.9330212  26.7821580  84.0999505
 118.7480012  25.6184997  83.7049988 119.4281093  26.1308666  84.3818910
 119.3378677  25.3525804  82.8291846 118.2410012  24.3224997  84.3969988
 118.7902790  23.5036836  83.9393884 117.2064519  24.2136464  84.0757141
 118.3170012  24.1744997  85.9719988 117.7417516  24.9693543  86.4432852
 119.3447575  24.3048877  86.3041023 117.8090012  22.8474997  86.4469988
 118.0670502  22.7479467  87.4997427 118.3634003  22.0701185  85.9230235
 116.3030012  22.6034997  86.2689988 116.0801368  21.6009258  86.6318046
 116.0867806  22.5957166  85.2022879 115.3580012  23.6324997  86.9799988
 114.3454299  23.3434189  86.7067357 115.5418357  24.5900183  86.4942623
 115.4450012  23.8184997  88.5529988 114.7245908  24.5730781  88.8610887
 116.4276895  24.2095686  88.8153301 115.1930012  22.4764997  89.3439988
 115.9195716  21.7401400  89.0072336 114.2152849  22.0828893  89.0714738
 115.2870012  22.5844997  90.8689988 116.2996697  22.8618733  91.1514618
 115.1072579  21.6040794  91.3061925 114.2320012  23.6274997  91.4939988
 113.2351360  23.1912518  91.4593645 114.1882756  24.5340416  90.8968859
 114.5290012  23.9954997  92.9259988 113.9063433  24.8316325  93.2268710
 115.5602993  24.3321978  92.9904234 114.3300012  22.8334997  93.9169988
 114.9174110  21.9749516  93.6171890 113.2863808  22.5446000  93.9552410
 114.8090012  23.3324997  95.3339988 114.1490012  23.9644997  96.1449988
 116.1030012  23.0404997  95.5239988 116.6480012  23.2894997  96.8349988
 117.1678267  22.3918562  97.1341303 115.8793737  23.5111190  97.5611452
 117.6790012  24.5094997  96.6999988 118.3122734  24.3636544  95.8405865
 118.5360012  24.6184997  97.9659988 119.5398062  24.9581028  97.7495588
 118.5941572  23.6572188  98.4611169 117.8650012  25.5514997  98.7819988
 118.5180012  26.1064997 100.1069988 117.4330012  26.1024997 101.2009988
 117.0790012  25.0044997 102.0029988 117.9640234  24.4946397 102.3607242
 116.5398297  24.2903657 101.3872847 116.1160012  25.3404997 103.1759988
 116.5489653  26.1169317 103.7940153 115.9271821  24.4722430 103.7906977
 114.7820012  25.8474997 102.7659988 114.8060012  27.2704997 102.3399988
 115.2981514  27.8523008 103.1072208 113.7843915  27.6028732 102.2307216
 115.3144585  27.3435281 101.3903383 114.3010012  25.1734997 101.5369988
 114.3969033  24.1069497 101.6711179 114.8793516  25.5179752 100.6984182
 113.2616060  25.4389913 101.4086673 113.7060012  25.8034997 103.8279988
 113.5786564  24.7849165 104.1631908 112.7790568  26.1652175 103.4089709
 113.9947915  26.4292398 104.6601552 119.5400012  25.1374997 100.5829988
 118.9600012  27.4714997  99.8569988 116.9060012  25.7114997  96.4739988
 117.4610012  26.7654997  95.9579988 118.6280012  26.8644997  95.6839988
 116.4520012  27.8844997  95.8009988 115.4785058  27.4335611  95.9638303
 116.5975157  28.5824386  96.6217385 116.5330012  28.5944997  94.4569988
 116.3017703  29.6451882  94.5935525 117.5500016  28.5576062  94.0796635
 115.5860012  28.0084997  93.4369988 115.7812799  26.9475456  93.3032204
 114.5667062  28.0847558  93.8075225 115.6740012  28.7554997  92.0459988
 116.0587521  29.7647251  92.1806717 116.3537035  28.2605995  91.3565928
 114.3280012  28.8474997  91.4119988 113.9507181  27.8454012  91.2187188
 113.6399242  29.2979388  92.1247650 114.2920012  29.6834997  90.0819988
 113.2526584  29.7859756  89.7738327 114.6536208  30.6886800  90.2798922
 115.1040012  29.0894997  88.9309988 115.1193951  29.8433973  88.1525507
 116.1257299  29.0082455  89.2995284 114.6730012  27.7224997  88.3709988
 114.4305613  26.9827423  89.1190201 114.5540012  27.3554997  87.0899988
 114.2880441  26.3417751  86.8268650 114.7630012  28.2764997  85.8889988
 114.6399723  29.2921364  86.2612445 115.7921799  28.1974884  85.5569907
 113.8280012  28.0884997  84.6939988 112.8866784  28.5804162  84.9361447
 114.2585877  28.6485034  83.8660796 113.5480012  26.6314997  84.2339988
 114.5150348  26.1923394  83.9888639 113.1795380  26.0899481  85.1008672
 112.6140012  26.4314997  83.0899988 112.5906456  25.3715630  82.8468245
 111.6057897  26.6933837  83.4062445 112.9740012  27.2324997  81.8649988
 112.1124687  27.3290388  81.2069471 113.2623903  28.2467917  82.1270454
 114.0730012  26.5704997  81.0909988 115.0191405  26.7422907  81.6010882
 113.9137069  25.4938100  81.1050947 114.2180012  27.0254997  79.6199988
 115.1533152  26.6606190  79.2029080 113.4299732  26.5506767  79.0395953
 114.1310012  28.5064997  79.4269988 114.1507923  28.7594236  78.3712020
 114.9565045  29.0264249  79.9013014 113.2090002  28.9011901  79.8444609
  72.4280012   5.0894997  82.6259988  72.9350688   5.1160380  81.6665160
  71.6713024   4.3116652  82.5794102  73.1563596   4.7951124  83.3766266
  71.7910012   6.4814997  82.9729988  71.0837148   6.7636328  82.1949564
  72.5667098   7.2424762  82.9707939  71.0920012   6.4664997  84.2879988
  71.7918464   6.5621001  85.1180627  70.5709519   5.5234131  84.4405320
  70.0530012   7.6204997  84.3579988  69.3419090   7.4823257  83.5465150
  70.5608992   8.5624118  84.1566355  69.2840012   7.7324997  85.6639988
  68.7988660   6.7727904  85.8226654  68.4870880   8.4506550  85.4781294
  70.0340012   8.1284997  86.9439988  70.6923987   8.9484971  86.6630470
  70.6810487   7.2875880  87.1843610  69.2340012   8.5254997  88.1939988
  68.7725326   7.6449098  88.6371447  68.4170657   9.1910796  87.9185904
  70.1360012   9.2294997  89.2629988  70.8285172   8.4707356  89.6251445
  69.4851443   9.4717345  90.1010868  70.9300012  10.4904997  88.8539988
  70.2799055  11.3552131  88.9688347  71.1579070  10.4211256  87.7910674
  72.2210012  10.7224997  89.6309988  72.6363257  11.6488359  89.2402229
  72.9025024   9.9293030  89.3246913  72.1670012  10.7764997  91.1579988
  72.1013571   9.7386569  91.4775518  71.2080679  11.2295501  91.4036007
  73.3440012  11.5064997  92.0209988  73.0748993  11.5050054  93.0744697
  73.4047531  12.5519423  91.7243020  74.6660012  10.8874997  91.8349988
  75.3757604  11.4705866  92.4193817  74.9574397  11.0067961  90.7952363
  74.8240012   9.4064997  92.2349988  75.7120929   8.9835489  91.7770132
  73.9758743   8.8418609  91.8569038  74.9010012   9.2114997  93.7759988
  74.0395029   9.6562074  94.2577630  75.7976618   9.6744211  94.1706790
  73.4760012   9.0804997  94.3329988  72.7230012   8.1374997  94.0829988
  73.2030012  10.0104997  95.2399988  72.1110012   9.6874997  96.1569988
  71.4357490   9.1257907  95.5293209  71.6657490  10.6446235  96.3869040
  72.4260012   8.8914997  97.4589988  71.5457975   8.8852610  98.0803654
  73.6450012   9.4194997  98.2729988  73.3290586  10.2905426  98.8309104
  74.3903251   9.7230992  97.5484958  74.1700012   8.4484997  99.1359988
  73.9320012   8.4564997 100.6929988  72.4410012   8.0314997 100.8109988
  72.1250012   6.7194997 101.3389988  72.6590888   6.5372491 102.2624294
  72.4675666   5.9695394 100.6318881  70.5780012   6.4474997 101.5149988
  70.4215384   5.4452482 101.8934963  70.1643419   6.5110559 100.5188945
  69.7250012   7.3504997 102.3769988  69.7170012   8.7104997 101.6739988
  70.7385471   8.9973173 101.4653997  69.2669952   9.4287912 102.3430667
  69.1272801   8.6356824 100.7726950  68.3520012   6.8244997 102.4019988
  68.3919629   5.7735443 102.6440936  67.8951380   6.9899733 101.4426946
  67.8142304   7.3615921 103.1698733  70.2810012   7.6084997 103.7339988
  70.4099698   6.6687231 104.2500114  69.5946022   8.2331211 104.2856820
  71.2336164   8.1103576 103.6440103  74.8660012   7.4854997 101.2429988
  74.1080012   9.8234997 101.2569988  72.6980012   7.5634997  97.0309988
  71.6500012   6.6894997  97.1259988  70.5120012   6.9404997  97.4559988
  72.1710012   5.2324997  96.8719988  73.0919818   5.3154893  96.3041427
  72.4470794   4.7824546  97.8223394  71.1220012   4.3834997  96.1429988
  70.3326603   4.1303386  96.8422208  70.6543400   4.9786315  95.3650887
  71.6870012   3.1034997  95.5449988  71.8789772   2.4339769  96.3795876
  70.8694850   2.6596852  94.9821834  72.9540012   3.1814997  94.6129988
  73.8327357   3.2503407  95.2515851  73.0529060   2.2510593  94.0591933
  72.9840012   4.3514997  93.6239988  72.1133747   4.3221829  92.9720394
  72.9232225   5.2919095  94.1683482  74.2730012   4.3604997  92.7609988
  75.1146492   4.4759695  93.4421715  74.3825579   3.3821937  92.3013982
  74.3610012   5.4704997  91.6229988  74.3723955   6.4391013  92.1090657
  75.3303363   5.3587945  91.1389973  73.2920012   5.4044997  90.5749988
  72.2575388   5.4605029  90.8788165  73.5390012   5.2914997  89.2539988
  72.6366731   5.2825446  88.6595799  74.7940012   5.1814997  88.4559988
  75.6215973   4.8934195  89.1019984  74.7422735   4.4303488  87.6757568
  75.1260012   6.5504997  87.8279988  75.3032552   7.3139678  88.5845716
  76.0332837   6.5008077  87.2289761  73.9580012   6.9764997  86.9369988
  73.7837873   6.2249825  86.1669478  73.0403262   7.0368244  87.5155638
  74.2300012   8.3264997  86.2709988  73.3091857   8.9054839  86.2756071
  74.9430412   8.8841236  86.8757421  74.7520012   8.2104997  84.8769988
  75.8213954   8.0179867  84.9396465  74.3170225   7.3242379  84.4231720
  74.5460012   9.4134997  83.9709988  73.4835930   9.4468113  83.7363451
  74.7486957  10.2938981  84.5781622  75.3410012   9.5324997  82.6579988
  75.2886170  10.5588598  82.3033781  76.3862564   9.3569904  82.9028476
  74.9400012   8.5954997  81.5449988  75.6115409   8.6940984  80.6974248
  73.9352089   8.7957619  81.1885882  74.9730739   7.5608986  81.8746164
   6.3580012 101.4184997  84.4889988   6.7005888 100.6131571  83.8467479
   7.2057073 102.0683018  84.6863350   5.6240809 101.9952440  83.9328162
   5.7720012 100.8864997  85.7659988   6.5172735 100.2950434  86.2951033
   4.9532069 100.2102905  85.5354972   5.2750012 102.0314997  86.6939988
   4.9524207 101.5969755  87.6400746   4.3849339 102.4658106  86.2430827
   6.2760012 103.1544997  86.9699988   6.2147421 103.9069407  86.1868450
   7.2971451 102.7771307  86.9462547   6.0100012 103.8464997  88.3519988
   6.4279794 104.8499111  88.3577204   6.5252122 103.2964326  89.1377143
   4.5180012 103.9284997  88.6879988   4.1197671 102.9379979  88.9004437
   3.9549806 104.3066527  87.8373607   4.2740012 104.8624997  89.9269988
   4.7037806 105.8302577  89.6749987   4.8789961 104.4633154  90.7399336
   2.8330012 105.0604997  90.4179988   2.1506279 104.4126102  89.8693122
   2.5014115 106.0799796  90.2298687   2.7170012 104.7554997  91.9439988
   3.2448140 105.5525238  92.4633321   3.2869283 103.8451996  92.1259711
   1.3120012 104.6014997  92.5429988   0.8459719 103.7018564  92.1470724
   0.6845267 105.4345671  92.2272402   1.3420012 104.5464997  94.0619988
   1.6247862 105.5561192  94.3522436   2.1988502 103.9151256  94.2907006
   0.1250012 104.1034997  94.9409988  -0.6558087 104.8468806  94.7997906
   0.4419363 104.1889638  95.9787454  -0.4459988 102.6794997  94.7129988
  -0.9691852 102.6562464  93.7585422  -1.1859482 102.4397269  95.4714564
   0.6620012 101.5414997  94.6919988   1.4210498 101.7768403  93.9532126
   0.1993505 100.6084757  94.3813340   1.3340012 101.3234997  96.0539988
   0.5912047 101.1197542  96.8147761   1.8954174 102.2040066  96.3431153
   2.4700012 100.4104997  95.9089988   3.1930012 100.2234997  94.9039988
   2.7080012  99.7534997  97.1209988   3.8100012  98.8134997  97.0919988
   3.9300252  98.5603924  96.0494092   3.4363162  97.9507226  97.6241334
   5.1310012  99.2814997  97.6749988   5.8055957  98.4765930  97.9157093
   4.7950012 100.1344997  99.0079988   5.6608349 100.2039000  99.6524493
   3.9967487  99.6440834  99.5510180   4.3960012 101.3924997  98.5969988
   4.2620012 102.6644997  99.5409988   4.7740012 102.2674997 100.9749988
   4.4620012 103.1364997 102.0749988   3.5571674 103.7185686 101.9581206
   5.2614565 103.8456388 102.2693950   4.3930012 102.2684997 103.3099988
   3.8992219 102.8751904 104.0585690   5.3805042 102.0129284 103.6662262
   3.6230012 100.9724997 103.2589988   4.4130012  99.9624997 102.4469988
   4.6843994 100.4148832 101.5030570   3.7782559  99.1067977 102.2710088
   5.2810046  99.6595874 103.0131535   3.3530012 100.3614997 104.5889988
   2.9322128 101.1172918 105.2343122   4.2714801  99.9701839 104.9885466
   2.6403840  99.5633609 104.4391708   2.2900012 101.1604997 102.6999988
   1.7522284 101.8814286 103.2976140   1.7645676 100.2173924 102.7108696
   2.3722427 101.5165376 101.6831859   5.1620012 103.7014997  99.0479988
   2.8420012 103.0164997  99.6419988   5.7390012 100.0954997  96.7339988
   7.0550012 100.2994997  96.8349988   7.8500012  99.6574997  97.5079988
   7.3710012 101.4754997  95.9189988   6.8417995 102.3503456  96.2825136
   8.4279186 101.7251795  95.9689227   6.9590012 101.1094997  94.4939988
   7.6696948 100.3422025  94.2072399   6.0046497 100.6059640  94.6110378
   6.8620012 102.1764997  93.3439988   6.0920468 102.8806220  93.6490168
   7.8020523 102.7216626  93.3781477   6.6070012 101.7054997  91.8589988
   6.8225465 102.5132180  91.1619785   7.2521716 100.8779673  91.5741352
   5.1270012 101.2764997  91.6669988   4.7719177 100.6750750  92.5013279
   4.4763667 102.1477832  91.6231718   4.9700012 100.4774997  90.3569988
   5.5716689 100.9679296  89.5933396   5.3959619  99.4874889  90.4939445
   3.5230012 100.3254997  89.8459988   2.9963274 101.2719064  89.8071519
   3.4967760  99.9182209  88.8361561   2.8330012  99.3564997  90.7749988
   2.6060049  99.7497930  91.7544614   2.4630012  98.0844997  90.5229988
   1.9494907  97.5201103  91.2881011   2.6940012  97.2944997  89.1959988
   3.6543924  97.5737819  88.7660323   2.7281122  96.2208107  89.3433398
   1.5810012  97.6394997  88.1659988   1.8070288  97.0206956  87.2984170
   0.6750984  97.2263315  88.6054203   1.3160012  99.0444997  87.7219988
   1.2134583  99.6554213  88.6188637   2.2034391  99.4047717  87.2090056
   0.0580012  99.2574997  86.8039988   0.2047083  98.8126445  85.8223033
  -0.8316613  98.7884981  87.2206799  -0.1899988 100.8024997  86.6609988
  -1.0550741 100.9693563  86.0219420  -0.4480233 101.2282016  87.6268281
   0.9820012 101.5494997  86.0619988   0.8225949 102.6187117  86.1895066
   1.8789080 101.3082979  86.6296376   1.2630012 101.2634997  84.5389988
   1.7214024 100.2862181  84.4097543   0.3107657 101.2153001  84.0153219
   2.1390012 102.3304997  83.8709988   2.2332414 102.1404299  82.8060756
   3.1405116 102.3517095  84.2872535   1.7097399 103.3208851  83.9935240
  68.7180012 136.4194997  80.5839988  68.9609936 137.1183396  79.7896396
  68.2951132 136.9878364  81.4073755  67.9441537 135.7532379  80.2126939
  69.9330012 135.6464997  81.0229988  70.6971357 136.3438618  81.3620967
  70.3509858 135.1302553  80.1630019  69.6300012 134.6394997  82.1499988
  68.7018970 134.1049725  81.9479285  69.4742765 135.1694451  83.0875907
  70.7780012 133.6144997  82.3489988  71.2753547 133.4715409  81.3922061
  70.3491904 132.6490482  82.6130645  71.8140012 134.0004997  83.3789988
  72.2144638 134.9728975  83.1039621  72.6370937 133.2938578  83.2865816
  71.3370012 134.0504997  84.8839988  71.0478970 133.0642906  85.2426454
  70.4622602 134.6861627  85.0037389  72.5160012 134.6094997  85.7829988
  72.1576875 134.7942284  86.7940658  72.8528698 135.5714585  85.3990917
  73.7230012 133.6264997  85.8369988  73.8471460 133.2464254  84.8237946
  73.3975512 132.7814246  86.4408319  75.0960012 134.1364997  86.3659988
  75.2471125 135.1921358  86.1507344  75.9303500 133.6100742  85.9041382
  75.1370012 133.9144997  87.8969988  76.1304464 133.5734696  88.1799546
  74.4510379 133.1107742  88.1632858  74.7760012 135.1504997  88.6749988
  73.7497567 135.4177124  88.4321805  75.3934951 135.9779105  88.3297156
  74.8940012 135.0334997  90.1699988  74.5914736 136.0067142  90.5488780
  75.9636342 134.9543426  90.3551722  74.1640012 133.8964997  90.9609988
  74.6168832 133.7772718  91.9438185  74.2618533 132.9362305  90.4624187
  72.5920012 134.2244997  91.1719988  72.1201876 134.2365284  90.1949664
  72.5324191 135.2369493  91.5624956  71.7920012 133.2834997  92.1139988
  72.2644573 133.2299262  93.0866015  71.7418419 132.2849629  91.6962938
  72.0440012 133.6174997  93.5569988  72.8720012 134.4114997  94.0109988
  71.3000012 132.8154997  94.2689988  71.3150012 133.0164997  95.7449988
  70.2862609 132.9558250  96.0666727  71.6762566 134.0220727  95.9047156
  72.1840012 131.9824997  96.5189988  71.6966378 131.0215853  96.5228067
  72.5340012 132.4054997  97.9799988  73.0941588 131.5874071  98.4121435
  71.5785140 132.4764749  98.4845697  73.2590012 133.6324997  98.1099988
  73.6220012 133.9544997  99.6579988  72.2390012 134.5214997 100.2419988
  71.5540012 133.6314997 101.1559988  71.4891506 132.6052685 100.8186074
  70.5352198 133.9602231 101.3399078  72.2800012 133.7234997 102.5599988
  73.3453010 133.5992897 102.4118195  71.9138935 132.8998806 103.1558124
  72.1240012 134.9694997 103.4269988  70.6680012 135.2234997 103.4619988
  70.2942076 135.2300619 102.4473218  70.5093555 136.1911720 103.9142618
  70.1935285 134.4610840 104.0614277  72.4970012 134.8184997 104.8749988
  73.4734349 134.3623360 104.9316188  71.7534165 134.2184450 105.3683406
  72.5248625 135.8086724 105.3063671  72.8470012 136.1304997 102.7259988
  73.8857674 135.8703289 102.5868665  72.7746660 137.0157178 103.3398444
  72.3848180 136.3168994 101.7673138  73.9730012 132.7164997 100.3249988
  74.5210012 135.0744997  99.6389988  73.4050012 131.8894997  95.7689988
  73.8190012 130.6824997  95.5979988  73.2270012 129.6544997  95.9779988
  75.2400012 130.7924997  94.9769988  75.3398342 131.7571619  94.4901587
  76.0048087 130.7685287  95.7492693  75.4190012 129.6034997  93.9669988
  76.4672856 129.3278383  93.9327711  74.8910329 128.7304084  94.3371259
  74.9470012 129.9344997  92.5649988  73.8687197 130.0717893  92.5542870
  75.3767211 130.8856043  92.2603585  75.3480012 128.8734997  91.5499988
  76.4345862 128.8155620  91.5238796  74.9992372 127.8960025  91.8741359
  74.8440012 129.1314997  90.1239988  75.0900119 130.1487681  89.8264341
  75.3792553 128.4775233  89.4382882  73.3420012 128.9004997  89.9479988
  73.0931447 127.8429595  90.0213487  72.7525928 129.4074919  90.7068628
  72.9250012 129.4224997  88.5769988  71.9072289 129.7948568  88.5853523
  73.5548829 130.2582248  88.2750741  73.0880012 128.3104997  87.5749988
  72.6732950 127.3437427  87.8178029  73.7170012 128.4344997  86.3589988
  73.7726064 127.5634500  85.7219818  74.3590012 129.6684997  85.7719988
  73.8855189 129.8800110  84.8147639  74.1892346 130.5403793  86.3938397
  75.8780012 129.4954997  85.5329988  76.3937592 129.4366260  86.4907213
  76.0510906 128.5427142  85.0363108  76.4970012 130.6344997  84.6809988
  76.2321510 131.5902670  85.1331825  77.5802906 130.5658285  84.7286675
  76.0650012 130.6284997  83.2669988  76.0576301 129.5874035  82.9520234
  75.0279378 130.9590628  83.2493218  76.8660012 131.4544997  82.2939988
  76.9251176 132.4667460  82.6895398  77.8855602 131.0789144  82.2862476
  76.3110012 131.5414997  80.8189988  77.0293258 132.0049984  80.1451579
  76.1073579 130.5535851  80.4098678  74.9630012 132.3904997  80.7839988
  74.5309717 132.3882240  81.7816261  75.2552389 133.4202749  80.5904192
  73.9000012 131.9844997  79.7699988  73.0704360 132.6850669  79.7798067
  73.4960822 130.9995147  79.9783136  74.3070809 131.9679420  78.7629471
 127.9950012  40.8314997  86.0799988 127.3579027  40.9398127  85.2077586
 127.4129602  41.1138785  86.9525127 128.2447663  39.7785924  86.1780582
 129.3080012  41.7214997  85.9509988 128.9478320  42.7369190  85.7947785
 129.7606657  41.4106077  85.0133128 130.3380012  41.7254997  87.0459988
 129.8690366  42.2101630  87.9022129 131.1211177  42.4016881  86.7088508
 130.9910012  40.4134997  87.5019988 131.2402088  39.7992238  86.6395542
 130.3023797  39.8226849  88.1040323 132.2710012  40.6744997  88.3039988
 133.0053576  41.1960781  87.6955174 132.7272984  39.7280125  88.5891653
 131.9840012  41.5274997  89.6039988 131.3020025  42.3560577  89.4218271
 132.8853198  41.9634127  90.0296530 131.3850012  40.6134997  90.5759988
 131.9219572  39.6667790  90.5630291 130.3618986  40.3870868  90.2789662
 131.3850012  41.1624997  91.9689988 132.3550191  41.6320401  92.1272643
 131.3440955  40.3130540  92.6483020 130.2750012  42.1574997  92.3359988
 129.2884508  41.7105340  92.2336214 130.2841321  43.0265477  91.6793032
 130.4760012  42.6144997  93.7789988 129.7978071  43.4502121  93.9369122
 131.4841234  43.0230080  93.8441102 130.2870012  41.5814997  94.8679988
 130.3795544  42.0758828  95.8326542 131.0988568  40.8578060  94.8201869
 128.9360012  40.8344997  94.8319988 128.7373334  40.3688068  93.8697720
 128.0953099  41.4973820  95.0282006 128.9870012  39.7714997  95.9309988
 129.8469221  39.1340739  95.7323121 128.1107095  39.1346430  95.8485335
 129.0960012  40.2634997  97.3189988 128.2709332  40.9487247  97.4835421
 130.0078149  40.8533632  97.3608175 129.1290012  39.2404997  98.4449988
 129.9253826  38.5250763  98.2837941 128.1874974  38.7067796  98.4977497
 130.5610012  39.0074997  98.8389988 131.5060012  38.9304997  98.0629988
 130.6140012  38.8194997 100.1429988 131.9330012  38.3064997 100.6219988
 132.3662817  37.8986664  99.7212202 131.8054462  37.5124729 101.3434163
 132.8290012  39.4254997 101.1859988 133.6676210  38.9236724 101.6396287
 132.1020012  40.3484997 102.2639988 131.9761550  39.7559887 103.1600426
 131.1248027  40.5620571 101.8491959 132.7700012  41.5224997 102.5509988
 132.0660012  42.6394997 103.4239988 131.8280012  43.8144997 102.3569988
 132.6750012  43.9294997 101.2179988 132.9505637  42.9674907 100.8059392
 133.6022137  44.4233856 101.4939526 132.0400012  44.8334997 100.1389988
 132.6542021  44.6528049  99.2658690 132.1096252  45.8790812 100.4022265
 130.6260012  44.6144997  99.6949988 129.6770012  45.1284997 100.6729988
 129.9334434  44.7304432 101.6451728 128.6911400  44.7905755 100.3901826
 129.7083553  46.2076269 100.6582258 130.5220012  45.3784997  98.4229988
 131.3510070  45.1033286  97.7891657 130.5283618  46.4308658  98.6440307
 129.5889739  45.1004762  97.9545331 130.2380012  43.1594997  99.3649988
 130.8839370  42.7877358  98.5835638 129.2120983  43.1333380  99.0296050
 130.3445833  42.5483273 100.2496137 130.6970012  42.2934997 103.8529988
 133.0700012  43.1254997 104.4809988 133.3290012  40.2074997 100.0799988
 134.5120012  40.7274997 100.1749988 135.1560012  40.6904997 101.1579988
 134.8420012  41.3624997  98.8129988 135.5087845  40.6784325  98.2982123
 133.9353817  41.4011401  98.2142876 135.4700012  42.7794997  98.9719988
 134.7878120  43.4251331  99.5140656 136.3749231  42.7301289  99.5692524
 135.7910012  43.4314997  97.5589988 136.3094081  44.3780985  97.6888406
 136.4734633  42.7844765  97.0134060 134.5830012  43.6264997  96.7489988
 133.9664904  42.7315922  96.8103268 133.9799942  44.4388550  97.1473244
 134.8750012  43.9044997  95.2899988 135.6262757  43.2098808  94.9198743
 133.9771003  43.7204404  94.7032474 135.3560012  45.3864997  95.0259988
 134.8139894  46.0591272  95.6889440 136.4078056  45.4895963  95.2777853
 135.1590012  45.8214997  93.6149988 134.1806519  45.5233306  93.2565188
 135.1894741  46.9086083  93.5548969 136.2120012  45.2804997  92.7739988
 137.0958166  44.8925914  93.2576840 136.1700012  45.2144997  91.4899988
 137.0220214  44.7593773  91.0057106 135.1010012  45.6754997  90.5419988
 134.3001945  46.1292142  91.1234391 135.4674822  46.4482070  89.8754435
 134.5040012  44.5304997  89.7149988 135.2603516  43.9134051  89.2314356
 133.9013879  43.8543361  90.3184216 133.6000012  45.1924997  88.6289988
 132.8929954  44.4353481  88.2899244 133.0089258  45.9642048  89.1143904
 134.2920012  45.7654997  87.4639988 133.5739312  46.3425475  86.8856077
 135.0433235  46.4733983  87.8096565 134.9750012  44.6934997  86.5509988
 135.4733381  45.2899996  85.7891339 135.7664316  44.2898012  87.1765309
 134.2600012  43.5984997  85.8729988 133.6869516  42.9783006  86.5599124
 133.5520100  43.9573305  85.1281344 135.3090012  42.7074997  85.1639988
 135.0026676  42.4964355  84.1424672 136.2377073  43.2683103  85.0845672
 135.6050012  41.3224997  85.9319988 136.4072262  40.7758355  85.4455192
 134.7348831  40.6749641  85.9502565 135.9038740  41.5026139  86.9607722
 122.3070012 103.3664997  83.5899988 121.3582429 103.1631833  84.0767731
 122.3109410 102.8410424  82.6393836 122.3477734 104.4312582  83.3773044
 123.4970012 102.9304997  84.4749988 123.3841807 101.8690200  84.6888574
 123.4039850 103.4452725  85.4274540 124.8670012 103.1754997  83.8829988
 125.0337991 104.2468797  83.9936884 124.7373710 102.9994815  82.8169853
 126.1640012 102.3884997  84.3709988 126.9899715 102.6052472  83.6971713
 125.9963772 101.3145012  84.3066916 126.5950012 102.7574997  85.8219988
 125.7523982 102.7322568  86.5082611 126.9903123 103.7712029  85.8607275
 127.6910012 101.7554997  86.3259988 128.6241183 101.9713984  85.8087976
 127.4051730 100.7483890  86.0300132 127.9330012 101.7884997  87.8479988
 128.3014522 102.7885941  88.0689627 128.7651472 101.1102290  88.0316065
 126.7690012 101.4454997  88.8169988 126.6729531 100.3605050  88.8205182
 125.8575280 101.8298011  88.3628918 126.8640012 101.9454997  90.2509988
 126.8287384 103.0327902  90.2608360 127.8306239 101.6693520  90.6704745
 125.7450012 101.3914997  91.1479988 125.8720826 100.3114539  91.1735019
 124.8031521 101.5759101  90.6319152 125.6540012 101.9394997  92.5669988
 125.5897702 103.0230384  92.4937915 126.5943794 101.7259595  93.0721892
 124.4580012 101.4304997  93.4579988 124.0761046 100.4906649  93.0667385
 123.6346437 102.1401348  93.4016924 124.8830012 101.2564997  95.0029988
 123.9915866 101.4217875  95.6057525 125.5789882 102.0482505  95.2656901
 125.4870012  99.9014997  95.4109988 126.2221076  99.5917526  94.6754579
 124.6979472  99.1542472  95.4010178 126.1130012  99.9074997  96.7519988
 125.4060209 100.2460526  97.4987261 126.9734230 100.5659836  96.7639249
 127.4870012 100.5664997  96.6779988 128.2950012 100.4264997  95.7639988
 127.7080012 101.2494997  97.7309988 128.8670012 102.0334997  97.9019988
 129.3429298 102.0754293  96.9339100 129.5514128 101.5943660  98.6132893
 128.4160012 103.5184997  98.3709988 129.2910423 104.1384548  98.2668228
 127.9000012 103.5734997  99.8399988 127.7459326 104.6198691 100.0662174
 128.7302851 103.2091532 100.4319997 126.6870012 102.8014997 100.1309988
 126.0370012 102.9034997 101.5719988 125.3240012 104.2714997 101.6629988
 124.7840012 104.8644997 100.4039988 125.0821387 104.2692469  99.5507830
 125.2352486 105.8433129 100.2694718 123.2550012 105.1174997 100.3989988
 122.7495657 104.4093804  99.7545214 123.1779038 106.1021675  99.9609780
 122.4450012 105.1654997 101.6709988 122.2670012 103.7884997 102.1329988
 121.8886414 103.1950825 101.3120031 121.5467042 103.7974387 102.9374814
 123.2126563 103.4160387 102.4973149 123.1290012 106.0684997 102.6929988
 123.3679036 107.0065869 102.2158908 124.0126855 105.5774539 103.0595312
 122.4293767 106.2307351 103.5001557 121.0460012 105.6484997 101.3569988
 121.1013982 106.6242596 100.8977540 120.4784693 105.7114157 102.2732952
 120.5672965 104.9532214 100.6825620 125.0450012 101.8654997 101.6229988
 127.1790012 102.9254997 102.5359988 127.4170012 103.9994997  97.5119988
 126.8630012 105.1884997  97.6669988 127.3010012 106.1304997  98.3429988
 125.6510012 105.2714997  96.7379988 125.3221734 104.2668834  96.4927000
 124.8095550 105.7465278  97.2362192 126.0640012 106.0474997  95.5079988
 125.1549082 106.2779133  94.9634618 126.4620883 106.9996961  95.8439773
 127.0680012 105.3674997  94.5509988 127.9713846 105.1001739  95.0932988
 126.6375934 104.4329500  94.1996712 127.4070012 106.1954997  93.3839988
 127.9285600 107.1056363  93.6744012 128.0507676 105.6919286  92.6669333
 126.0770012 106.5974997  92.6719988 125.4347906 105.7288009  92.5422718
 125.5219846 107.2937169  93.2977936 126.3250012 107.2534997  91.3109988
 125.5051098 107.9241010  91.0584658 127.2260047 107.8604908  91.3195045
 126.4590012 106.2134997  90.2449988 127.0210422 106.7063113  89.4602526
 127.1266468 105.4713774  90.6807165 125.2900012 105.5284997  89.7039988
 125.0343875 104.5477853  90.0760403 124.4770012 106.0614997  88.7519988
 123.6403051 105.4624481  88.4223218 124.5760012 107.4144997  88.0709988
 123.5697701 107.7620343  87.8430959 125.0145789 108.1613006  88.7233935
 125.3880012 107.3514997  86.7319988 126.3037883 106.7789054  86.8740367
 124.8098974 106.8173424  85.9803798 125.7240012 108.7044997  86.2189988
 124.8040686 109.2313531  85.9655099 126.2011811 109.2864978  87.0026322
 126.6460012 108.6604997  84.9749988 126.8606465 109.6817351  84.6681592
 127.6011288 108.2200466  85.2557430 126.0420012 107.8594997  83.7769988
 126.7612716 107.9120884  82.9618457 125.9995630 106.8135686  84.0682930
 124.6630012 108.3144997  83.2269988 123.8585559 108.1702587  83.9459879
 124.6491126 109.3713016  82.9665936 124.3360012 107.4804997  81.9389988
 124.4478414 106.4296397  82.1941461 123.2736975 107.6297953  81.7586248
 125.0760012 107.7654997  80.6869988 124.6835869 107.1751759  79.8644431
 126.1318634 107.5341110  80.7784051 124.9903709 108.8131360  80.4126512
 131.7980012  93.0464997  82.3279988 131.9433259  92.4808386  81.4129374
 132.5581051  93.8216363  82.3625716 130.8307225  93.5371791  82.2630548
 131.8730012  92.1544997  83.5409988 132.8413902  91.6578408  83.5684875
 131.1287755  91.3675190  83.4538007 131.6720012  92.9164997  84.8209988
 130.7221905  93.4508351  84.8375597 132.4442082  93.6706275  84.9594125
 131.7240012  91.9674997  85.9749988 132.5998861  91.3391803  85.8290868
 130.8623818  91.3061390  85.8980566 131.7810012  92.5774997  87.4109988
 131.3742414  93.5855218  87.4077018 132.8198030  92.6682457  87.7240817
 130.9990012  91.7184997  88.4599988 129.9508278  91.6611190  88.1721498
 131.0220698  92.2169091  89.4267629 131.5730012  90.2714997  88.6119988
 131.6394243  89.8116442  87.6276762 130.8675905  89.6687873  89.1824053
 132.8820012  90.2204997  89.2569988 133.5088958  90.9880204  88.8049301
 133.3428534  89.2663239  89.0083067 132.8820012  90.4014997  90.7939988
 132.4126363  89.5604238  91.2997943 132.3249065  91.2871847  91.0969584
 134.3430012  90.5324997  91.2689988 134.8406577  91.2805282  90.6557368
 134.8595246  89.5914578  91.0817217 134.4810012  90.9004997  92.7739988
 133.8899455  90.2236033  93.3871916 134.0989583  91.9002440  92.9732033
 135.9780012  90.8144997  93.2439988 136.5135019  91.6273209  92.7594582
 136.3856027  89.8934542  92.8314382 136.2480012  90.8344997  94.7829988
 137.1241728  90.2309191  95.0137927 135.4227637  90.3976617  95.3383633
 136.5040012  92.2614997  95.3029988 135.5800833  92.8304560  95.3060615
 137.1835673  92.7689316  94.6234439 137.1260012  92.2834997  96.7369988
 138.0330946  91.6932469  96.7657070 136.4255257  91.8799089  97.4584679
 137.2400012  93.7194997  97.2149988 137.7000012  94.6774997  96.6179988
 136.8460012  93.7674997  98.5119988 136.7390012  95.0254997  99.1489988
 137.3594136  95.6336527  98.5081398 137.1644843  95.0108475 100.1419446
 135.2900012  95.5764997  99.1739988 135.3426052  96.4858887  99.7494450
 134.3060012  94.6204997  99.8119988 133.3435307  95.0797079  99.9924968
 134.6948014  94.2488393 100.7518328 134.1860012  93.5864997  98.8959988
 133.2930012  92.2664997  99.1649988 133.4360012  92.0834997 100.7209988
 133.7140012  90.8084997 101.3679988 134.7519154  90.7366794 101.6659332
 133.5416508  90.0063140 100.6562471 132.7490012  90.4974997 102.5869988
 133.0545776  89.5682542 103.0510837 131.7498911  90.3771619 102.1937114
 132.6320012  91.5184997 103.7319988 134.0510012  92.0534997 104.0739988
 134.7103844  91.2101549 104.2266991 133.9795423  92.6288779 104.9850056
 134.3892384  92.6891213 103.2694507 131.9830012  92.8004997 103.2449988
 131.0776699  92.5465615 102.7152773 132.6751816  93.3257055 102.6114255
 131.7484297  93.3949826 104.1161263 132.1050012  90.9884997 104.9979988
 131.1241744  90.5701750 104.8275128 132.0362990  91.7908132 105.7171810
 132.7691909  90.2231652 105.3728988 131.8910012  92.5924997  98.8969988
 133.7890012  91.0494997  98.4979988 134.9220012  95.9354997  97.8669988
 133.8460012  96.5964997  97.5909988 133.1430012  97.0954997  98.4599988
 133.6820012  96.5184997  96.0339988 133.4118227  95.4867128  95.8340677
 132.8054253  97.1098085  95.7812627 134.8830012  96.9544997  95.2279988
 134.7223336  97.9551444  94.8420492 135.7635316  97.0143096  95.8597598
 135.1500012  95.9884997  94.0409988 135.5546482  95.0619802  94.4403437
 134.1856266  95.7359551  93.6071002 136.0820012  96.5364997  92.9039988
 135.3970972  96.8545198  92.1201138 136.5334919  97.4431741  93.2993463
 137.1840012  95.6704997  92.2629988 137.7231932  96.3330281  91.5890337
 137.8702408  95.4417297  93.0760919 136.8480012  94.3934997  91.5439988
 137.7373913  93.7718476  91.4532530 136.1211433  93.8092303  92.1013362
 136.2620012  94.6864997  90.0959988 135.8279928  93.7821100  89.6857596
 135.4489882  95.4065416  90.1790380 137.3030012  95.2454997  89.1839988
 137.5092472  96.2967396  89.0501662 138.0530012  94.3824997  88.4849988
 138.7668407  94.8320305  87.8097469 138.0720012  92.8544997  88.4849988
 139.0761259  92.4729954  88.3077729 137.7319352  92.3971258  89.4074115
 137.1620012  92.3914997  87.3129988 136.2249128  92.9418962  87.3880588
 137.6366689  92.7250738  86.3921959 136.8620012  90.8654997  87.2109988
 137.8006115  90.3118153  87.1875216 136.3341779  90.5308360  88.0997658
 136.0350012  90.5144997  85.9609988 135.7077361  89.4790486  86.0233171
 135.1297657  91.1185225  85.9328877 136.8130012  90.7304997  84.6959988
 137.7971627  91.0914495  84.9887976 136.9765110  89.7553678  84.2454355
 136.2520012  91.6904997  83.6659988 135.2782150  91.3057941  83.3682992
 136.0606777  92.6302990  84.1807866 137.0840012  91.9924997  82.3739988
 136.4806005  92.6100246  81.7133282 137.9173653  92.6186359  82.6850786
 137.6460012  90.7674997  81.5739988 138.2756801  91.0988942  80.7537847
 136.8524294  90.1613987  81.1501752 138.2458422  90.1257221  82.2131023
  10.3010012  59.8594997  82.0149988  10.8647550  60.0484075  81.1067452
   9.3051961  60.2712430  81.8785079  10.1997390  58.7830931  82.1231971
  10.9910012  60.4724997  83.2349988  11.1004951  61.5339099  83.0190763
  11.9954306  60.0579781  83.2453611  10.3460012  60.3054997  84.5909988
   9.4422338  60.9106545  84.6611494  11.0160674  60.6741268  85.3651410
   9.9890012  58.7914997  84.9129988   9.4780797  58.3564412  84.0568835
   9.2833919  58.7444737  85.7410145  11.1920012  57.9474997  85.2349988
  12.0763902  58.5649689  85.3697608  11.4115862  57.2759346  84.4066584
  10.9600012  57.1114997  86.5249988  11.7936473  56.4323527  86.6941451
  10.0752039  56.4870440  86.4212401  10.7930012  58.0314997  87.7559988
   9.8298005  58.5384316  87.7501142  11.5491170  58.8151420  87.7765783
  10.9120012  57.1674997  89.0489988  11.4731052  57.7054303  89.8120478
  11.4720877  56.2567077  88.8454182   9.5440012  56.8014997  89.5979988
   9.6738827  56.1291899  90.4433811   9.0015866  56.2362027  88.8411614
   8.6990012  58.0064997  90.0319988   7.8310498  57.6103389  90.5545082
   8.3207095  58.4767297  89.1246906   9.4230012  59.1104997  90.9329988
   8.8481231  60.0329899  90.9784735  10.4044877  59.3846341  90.5500334
   9.5720012  58.5584997  92.3689988   9.9142252  57.5284002  92.3057779
   8.5816564  58.5226735  92.8191141  10.5030012  59.3714997  93.2909988
   9.9672457  60.2616852  93.6162491  11.3620918  59.7227849  92.7263431
  11.0050012  58.6164997  94.5679988  11.4426649  57.6666609  94.2788591
  10.1442837  58.3893798  95.1914360  12.0520012  59.4304997  95.4319988
  11.6484575  60.3975067  95.7041953  12.9675670  59.5808024  94.8723406
  11.5920012  60.7564997  95.8149988  12.0340012  61.8194997  95.4149988
  10.5730012  60.5714997  96.6419988   9.6610012  61.7074997  96.8439988
   9.2127957  61.8582195  95.8735054  10.2054539  62.5977488  97.1236766
   8.5900012  61.3774997  97.8739988   7.8667240  62.1676980  97.9895441
   9.2490012  61.0564997  99.2509988   8.5323880  61.0949743 100.0601874
  10.0420568  61.7647745  99.4559243   9.7950012  59.7044997  99.1139988
  10.3650012  59.1154997 100.4889988   9.0940012  58.7554997 101.3829988
   8.1640012  57.6284997 101.0629988   8.4416548  56.7098872 101.5632474
   8.1918634  57.4195258  99.9974704   6.5810012  58.0314997 101.3879988
   6.0603370  57.1058793 101.5986759   6.1329433  58.4920412 100.5193661
   6.2730012  58.9524997 102.5529988   6.9280012  60.2774997 102.3039988
   7.9690482  60.1085405 102.0652357   6.8526457  60.8617552 103.2090220
   6.4073492  60.7808720 101.5032149   4.8330012  59.1864997 102.7349988
   4.3288797  58.2322827 102.7417494   4.4758953  59.8142935 101.9383054
   4.7038183  59.6807296 103.6870206   6.8340012  58.2524997 103.8329988
   6.3693754  57.2837227 103.9410550   6.6094145  58.8600082 104.6967951
   7.9043332  58.1368629 103.7410611  11.1420012  57.8464997 100.1959988
  11.1150012  60.2304997 101.1219988   7.8750012  60.2694997  97.2659988
   6.5770012  60.2974997  97.7429988   6.2140012  60.9854997  98.6629988
   5.7230012  59.3104997  96.9899988   5.6307214  58.4426605  97.6348961
   4.7227053  59.7285255  96.9089458   6.2710012  58.9494997  95.6349988
   6.4191654  59.8748554  95.0892652   7.2589762  58.5228924  95.7762235
   5.4120012  58.0034997  94.7929988   5.1080100  57.1371911  95.3750236
   4.4949309  58.5076759  94.4982896   6.1620012  57.5464997  93.5079988
   6.3593200  58.3828331  92.8399287   7.1255944  57.0852465  93.7103242
   5.2520012  56.5104997  92.7489988   5.8710503  55.8838125  92.1102951
   4.7997136  55.8438472  93.4807032   4.1550012  57.1364997  91.9239988
   3.6946049  56.3200276  91.3698240   3.4016245  57.4994316  92.6175562
   4.5220012  58.2924997  90.9329988   5.5704747  58.1999053  90.6747167
   3.9637631  58.1309796  90.0117889   4.2100012  59.6714997  91.4489988
   3.2327305  59.7594226  91.8992939   4.9840012  60.7834997  91.4319988
   4.6012080  61.7192977  91.8132618   6.3820012  60.8614997  90.9219988
   7.0557851  61.2600039  91.6785902   6.8038712  59.9128971  90.6091733
   6.3690012  61.8284997  89.7349988   5.8138624  62.6946913  90.0931021
   7.4050959  62.1488860  89.6437888   5.8320012  61.4104997  88.3209988
   6.0876330  60.3710605  88.1152668   4.7474460  61.4681911  88.2907382
   6.4190012  62.2984997  87.2269988   6.0356719  63.3078175  87.3592150
   7.4973517  62.3625196  87.3617083   6.1090012  61.7944997  85.7759988
   6.5794873  60.8197101  85.6619015   5.0393352  61.6180884  85.7030684
   6.5760012  62.6834997  84.6129988   6.0432743  63.6306625  84.6759872
   7.6272864  62.9174844  84.7707466   6.4120012  62.1314997  83.2129988
   6.6390280  61.0694387  83.2619911   5.3458997  62.1970247  83.0069717
   7.1760012  62.7614997  82.0499988   6.8830152  62.3101976  81.1068367
   8.2483015  62.6333447  82.1524156   6.9759896  63.8271692  81.9830301
  85.9580012   8.7264997  80.8889988  85.1458663   9.2222484  80.3664098
  85.5541285   8.3049985  81.8049756  86.2954068   7.9011400  80.2680713
  87.1300012   9.7194997  81.1909988  86.7411054  10.5449296  81.7848241
  87.4625792  10.1503215  80.2504678  88.2430012   9.1214997  81.8829988
  88.7515702   8.4248075  81.2167357  87.8605873   8.5241717  82.7083047
  89.2680012  10.1304997  82.4429988  89.7295264  10.5599472  81.5565343
  90.0336562   9.5157665  82.9137232  88.8650012  11.3024997  83.4199988
  87.9062885  11.6837785  83.0778445  89.5883674  12.0983784  83.2506376
  88.7750012  11.0074997  84.9429988  87.9803455  10.2761558  85.0789237
  88.4333101  11.9210234  85.4249724  90.0700012  10.5014997  85.6569988
  90.8227118  11.2870537  85.6901899  90.5161456   9.6757968  85.1043687
  89.7540012  10.0414997  87.0879988  89.0244204   9.2327011  87.0907744
  89.3170937  10.8469015  87.6754711  91.0290012   9.5674997  87.7599988
  91.7250747  10.4035632  87.7645266  91.4725289   8.8067479  87.1188148
  90.8880012   8.9954997  89.2269988  91.8679957   8.8423740  89.6736106
  90.4012842   8.0205937  89.2173077  90.0360012   9.9944997  90.1169988
  89.0511538  10.1956939  89.7009008  90.5074049  10.9651958  90.2607191
  89.8520012   9.3024997  91.5009988  89.6010327  10.0858562  92.2120447
  90.8324375   8.9302952  91.7923378  88.8030012   8.1094997  91.6069988
  89.2740871   7.1701009  91.8913576  88.2623857   7.9120505  90.6855744
  87.8170012   8.4804997  92.6859988  86.9494140   7.8394730  92.5688566
  87.4908763   9.4940366  92.4681054  88.3020012   8.4224997  94.1699988
  89.1883535   9.0297307  94.3030066  88.5339691   7.4022414  94.4516597
  87.8630012   9.7204997  94.9849988  87.7920012  10.8454997  94.5779988
  87.3720012   9.3094997  96.1899988  86.8640012  10.3524997  97.0449988
  86.6032532  11.1470748  96.3622669  87.6387173  10.7006042  97.7127039
  85.6140012   9.8934997  97.8369988  84.6935789  10.0655404  97.3039707
  85.6040012  10.6694997  99.1559988  85.5251055  11.7308181  98.9631784
  86.5380751  10.4786673  99.6694906  84.5080012  10.2244997  99.9409988
  84.8890012   9.8914997 101.5249988  86.2210012   9.0304997 101.3249988
  86.5280012   7.9834997 102.2209988  85.6857689   7.3405074 102.4409870
  86.8696433   8.3800224 103.1727589  87.7570012   7.1424997 101.6529988
  87.4388860   6.7513922 100.6948304  88.0813037   6.3196705 102.2736090
  88.9760012   7.9504997 101.3759988  89.4630012   8.6874997 102.6319988
  88.6295001   9.2266198 103.0609037  90.2314685   9.3844954 102.3324077
  89.8758361   7.9677044 103.3227802  90.1140012   7.0264997 100.9449988
  89.7503413   6.3759736 100.1644340  90.4532627   6.4660469 101.7977381
  90.9108225   7.6502528 100.5664426  88.7350012   8.9214997 100.2269988
  88.4487302   8.3661615  99.3462432  89.6437684   9.4699655 100.0295720
  87.9481542   9.6111417 100.4966296  85.1900012  11.1844997 102.2789988
  83.8820012   8.9314997 102.0579988  85.7250012   8.5154997  97.9869988
  84.6260012   7.7154997  97.9579988  83.4670012   8.0754997  97.9449988
  85.0180012   6.1814997  97.8509988  85.8843724   5.9904090  98.4758493
  84.2253628   5.5468634  98.2394164  85.2930012   5.8794997  96.3949988
  86.1211715   6.5064432  96.0833313  85.6479577   4.8562631  96.3241057
  84.0670012   6.0984997  95.3959988  83.9430528   5.2526634  94.7245438
  83.1367352   6.1827092  95.9523970  84.2690012   7.3694997  94.5979988
  84.5975434   8.1817197  95.2438042  85.0327217   7.2627667  93.8314865
  82.8880012   7.8064997  93.8979988  82.4837048   6.9561563  93.3526900
  82.1681045   8.0335990  94.6819348  82.9870012   9.0274997  92.9469988
  83.5892766   8.7361812  92.0878720  81.9977647   9.2605501  92.5630500
  83.6060012  10.3494997  93.6029988  83.2392780  10.5448679  94.6039610
  84.6917611  10.3053585  93.6773143  83.2290012  11.4754997  92.6509988
  82.2338485  11.8769782  92.7694900  84.0010012  12.0244997  91.6979988
  83.6675776  12.8088434  91.0337371  85.4480012  11.5844997  91.4669988
  86.0121570  12.5134015  91.5309558  85.7294841  10.9980689  92.3344936
  85.8870012  10.8344997  90.1689988  85.6420572  11.4738329  89.3216733
  86.9729302  10.7666297  90.1937114  85.2930012   9.4204997  89.9389988
  85.6773624   8.7629792  90.7187682  84.2177273   9.4704170  90.0866415
  85.6000012   8.7884997  88.5299988  85.3726889   9.5221862  87.7598181
  86.6664153   8.5846301  88.4507325  84.8490012   7.5474997  88.2789988
  85.2386805   6.7516572  88.9109598  83.8083183   7.6714798  88.5657621
  84.9430012   7.0624997  86.7689988  84.1497436   6.3456770  86.5645711
  84.7656528   7.9064358  86.1048050  86.2390012   6.4454997  86.4079988
  87.0774074   7.0918454  86.6554401  86.3842542   5.5370913  86.9885234
  86.2910012   6.0894997  84.9119988  87.2077969   5.5586498  84.6737698
  86.2541997   6.9728519  84.2834485  85.4572558   5.4512790  84.6332803
 119.7520012  31.4384997  82.1969988 119.8184762  30.3711463  82.0105401
 119.4612910  31.9196929  81.2676277 118.9522562  31.5993738  82.9147309
 121.1310012  32.0174997  82.7379988 121.8950605  31.7865596  81.9976725
 121.3882320  31.4510533  83.6289448 121.1610012  33.5124997  83.0399988
 120.6463810  33.6786004  83.9863104 120.5632611  34.0123559  82.2803795
 122.5820012  34.2004997  83.0919988 122.4658510  35.2354230  83.4061528
 123.0151291  34.2353489  82.0935541 123.5790012  33.4924997  84.0639988
 124.0015244  32.6258405  83.5620535 123.0088635  33.1086882  84.9083902
 124.7270012  34.3754997  84.5859988 124.3587402  35.3979786  84.6471346
 125.5127552  34.3797070  83.8335694 125.3190012  33.9744997  85.9259988
 126.0672207  34.7416581  86.1168009 125.8693898  33.0618688  85.7014832
 124.4550012  33.7544997  87.2279988 123.6736748  33.0217132  87.0305043
 123.9448481  34.6790617  87.4918412 125.2950012  33.2874997  88.4139988
 126.0643609  34.0277609  88.6229005 125.8199656  32.3718183  88.1447090
 124.4520012  33.0374997  89.7069988 123.8117570  32.1682159  89.5738369
 123.7872613  33.8802687  89.8948557 125.3920012  32.8294997  90.9579988
 126.2049435  33.5479028  90.8769884 125.8494423  31.8450184  90.8763150
 124.7430012  32.9794997  92.3669988 123.9033429  32.2968032  92.4724432
 124.3357885  33.9822475  92.4825182 125.8080012  32.7244997  93.5289988
 126.5719504  33.4973398  93.4630319 126.3155198  31.7795384  93.3565257
 125.2150012  32.7374997  95.0309988 124.8656566  31.7573037  95.3384385
 124.3651097  33.4110244  95.1026985 126.3330012  33.2294997  96.0349988
 126.7205180  34.1927138  95.7282574 127.1509817  32.5195775  96.0664200
 125.7310012  32.8904997  97.3769988 125.7760012  31.7744997  97.8209988
 125.1600012  33.9464997  97.9609988 124.3460012  33.6964997  99.0549988
 124.3273455  34.6658299  99.5298807 124.7708790  32.9762321  99.7390203
 122.9140012  33.2794997  98.6279988 122.4941541  34.1131580  98.0898201
 122.0530012  32.9584997  99.8339988 121.1074353  33.4662761  99.7003230
 122.5647069  33.3957129 100.6822834 121.8460012  31.5714997 100.0429988
 122.1480012  30.7734997 101.3709988 123.6290012  31.2844997 101.6519988
 124.3250012  30.8914997 102.8099988 123.7123554  30.8865920 103.7020919
 125.1522384  31.5669268 103.0081745 124.9650012  29.5344997 102.5809988
 124.1832510  28.8071612 102.4018497 125.5506167  29.2128845 103.4301131
 125.9310012  29.4464997 101.3279988 125.3080012  29.5194997  99.9439988
 124.5044946  28.7979446  99.8885961 126.0709772  29.2703401  99.2215812
 124.9585788  30.5260776  99.7695798 126.9980012  30.4544997 101.4569988
 127.4352848  30.3668510 102.4397575 126.5785093  31.4319588 101.2989793
 127.7391105  30.2389976 100.7009480 126.6280012  28.0434997 101.5359988
 127.1339276  28.0357351 102.4899695 127.3448349  27.8827888 100.7448152
 125.8815177  27.2627404 101.5112511 121.1890012  31.2714997 102.3749988
 122.0860012  29.3344997 101.0829988 123.0280012  32.1624997  97.6469988
 121.9100012  31.6434997  97.1349988 120.8110012  32.2094997  97.1309988
 122.4490012  30.4474997  96.2749988 123.0311132  30.8487109  95.4517563
 123.1370696  29.8398385  96.8574219 121.3050012  29.6484997  95.8029988
 121.0231035  29.0307281  96.6485477 120.4924243  30.3542665  95.6628380
 121.4430012  28.7804997  94.5839988 120.4470362  28.4004776  94.3711820
 121.6865859  29.4630748  93.7735528 122.4660012  27.6204997  94.5759988
 123.2707740  27.9247780  95.2426781 121.9916383  26.7615863  95.0444535
 123.1020012  27.1664997  93.2049988 122.2923298  26.9773835  92.5031666
 123.6549610  28.0155485  92.8078432 124.0210012  25.9674997  93.2449988
 124.7845690  26.1500717  93.9995400 123.4622520  25.0975102  93.5785189
 124.7060012  25.6294997  91.8929988 125.2830768  24.7208037  92.0188374
 123.9244667  25.3989000  91.1702446 125.5610012  26.7454997  91.3399988
 126.5768832  26.7631006  91.7050026 125.2060012  27.7114997  90.4359988
 125.9339718  28.4568913  90.1495375 123.8880012  27.8644997  89.7689988
 123.2260058  27.0335214  90.0066081 123.3479855  28.7673949  90.0313807
 124.1460012  27.8504997  88.2979988 124.9415425  28.5744747  88.1257221
 124.5752644  26.8726376  88.0882897 122.9820012  28.1174997  87.3119988
 122.3902145  27.2028785  87.2750715 122.3464824  28.8722139  87.7670003
 123.3590012  28.5674997  85.8089988 122.4692068  28.8691751  85.2609086
 124.0236778  29.4296420  85.8082645 124.0850012  27.3324997  85.0489988
 124.8291063  26.8478087  85.6782619 123.3917595  26.5500071  84.7527787
 124.8500012  27.9284997  83.7349988 124.1593390  28.4889697  83.1075100
 125.6272685  28.6309443  84.0303985 125.5220012  26.7684997  82.8459988
 126.2780402  27.2017811  82.1959317 126.0580951  26.1085636  83.5245271
 124.5600012  25.9384997  82.0179988 125.0815488  25.1268732  81.5196820
 124.0706480  26.5296241  81.2512874 123.7856005  25.5006216  82.6414628
  50.4470012  11.2954997  83.3819988  51.4393945  11.4610952  82.9743682
  49.7333805  11.7856799  82.7260575  50.2483872  10.2278971  83.3447262
  50.3380012  11.8274997  84.8179988  50.5988465  12.8837899  84.7803996
  51.1254788  11.3386965  85.3852416  48.9740012  11.6634997  85.5459988
  48.8668425  10.6380168  85.8993130  48.1693713  11.8211214  84.8305289
  48.7750012  12.6244997  86.7189988  47.7645327  12.4805845  87.0951529
  48.8126277  13.6440295  86.3384082  49.7610012  12.4814997  87.8909988
  50.7805119  12.7219449  87.6005561  49.7832027  11.4598200  88.2665554
  49.3380012  13.4084997  88.9989988  48.2605694  13.5149951  88.8866757
  49.7674261  14.3748754  88.7434815  49.6730012  13.0724997  90.4969988
  50.7536231  13.0260685  90.6189431  49.2972943  12.0775588  90.7318753
  49.0970012  14.0754997  91.4909988  49.4606690  15.0787398  91.2725817
  49.4297237  13.8449059  92.5013483  47.5980012  14.0734997  91.4519988
  47.2912470  14.5041337  90.5012111  47.2454796  14.7576248  92.2228933
  46.9350012  12.7444997  91.6309988  47.4231843  11.9806222  91.0297772
  45.8964089  12.7739308  91.3025342  46.9840012  12.3534997  93.1229988
  46.3762127  13.0378239  93.7110758  47.9963340  12.4353890  93.5149226
  46.4660012  10.9274997  93.3529988  47.1744819  10.2542316  92.8765702
  45.5383055  10.8401908  92.7904795  46.2000012  10.4734997  94.8329988
  45.4578885  11.1052841  95.3181475  47.0867476  10.5096772  95.4596134
  45.6420012   8.9924997  94.8129988  46.2125443   8.3732340  94.1286483
  44.6157706   8.9933306  94.4553087  45.6730012   8.3274997  96.2809988
  45.1369436   8.9467701  96.9889447  46.6950652   8.2139962  96.6224238
  47.1430012   8.0344997  96.5949988  47.9670012   7.7814997  95.7679988
  47.3600012   8.0054997  97.9309988  48.5790012   7.3954997  98.2669988
  48.6939566   6.6651144  97.4803701  48.4393866   6.8825790  99.2075370
  49.8670012   8.3634997  98.3229988  50.7025969   7.7547263  98.6264270
  49.6720012   9.5174997  99.3199988  49.8167937   9.1059431 100.3096741
  48.6349472   9.8107136  99.2145013  50.5490012  10.6654997  99.1109988
  50.1430012  12.1374997  99.5779988  48.8350012  11.9374997 100.4179988
  48.3840012  13.0834997 101.1199988  47.3476107  13.2855887 100.8828408
  48.9525980  13.9407104 100.7711659  48.6070012  13.0444997 102.6559988
  48.0430325  13.8578472 103.0949225  49.6567310  13.2007944 102.8585232
  48.2120012  11.7984997 103.4359988  46.6680012  11.7384997 103.3209988
  46.2628359  12.6990905 103.6081229  46.3127432  10.9766588 103.9988559
  46.4019419  11.4752302 102.3082704  48.8790012  10.5234997 102.9609988
  49.9412743  10.6992623 102.8875328  48.4605401  10.2410788 102.0115259
  48.6797434   9.7602772 103.6992974  48.6830012  12.0574997 104.7969988
  49.7485499  12.2315833 104.7774322  48.4677202  11.1995987 105.4161191
  48.1775381  12.9258189 105.1944454  51.2650012  12.6394997 100.4499988
  49.8000012  12.9304997  98.3329988  50.1430012   8.8974997  96.9949988
  50.8290012   8.1064997  96.2099988  51.3730012   7.0284997  96.5059988
  50.9390012   8.6784997  94.7629988  50.0673284   9.2964829  94.5736936
  51.7965955   9.3421483  94.6854788  51.0420012   7.5714997  93.8119988
  52.0279555   7.1211558  93.8458416  50.3406586   6.7760728  94.0431864
  50.7750012   8.1124997  92.3669988  49.9925657   8.8609867  92.4629984
  51.6776594   8.6514079  92.0897785  50.4180012   7.1034997  91.2119988
  50.3731614   7.6278951  90.2592633  51.1775406   6.3336335  91.0997138
  49.0680012   6.4324997  91.4549988  49.0669664   5.5318793  90.8444393
  49.0967501   6.0968316  92.4898328  47.7800012   7.1934997  91.2289988
  46.9548679   6.5613240  91.5533598  47.7664863   8.0691085  91.8719952
  47.5380012   7.6394997  89.7939988  46.5020107   7.9486088  89.7181356
  48.1376885   8.5340794  89.6313698  47.8790012   6.6394997  88.7419988
  48.8764896   6.2271412  88.7650493  47.0550012   6.1954997  87.7769988
  47.4312196   5.4890456  87.0510564  45.6340012   6.5664997  87.5789988
  45.0859891   5.7439013  87.1226703  45.1112505   6.8066073  88.4981076
  45.5710012   7.8084997  86.5979988  44.5640239   8.2219359  86.5559008
  46.2126911   8.6093497  86.9603965  46.0290012   7.3934997  85.1509988
  47.0775747   7.6735586  85.0501649  45.9972258   6.3091002  85.0912319
  45.2190012   8.0024997  83.9669988  45.4273122   7.4584243  83.0484491
  44.1486337   7.9070875  84.1410537  45.5800012   9.5184997  83.7849988
  45.5659749  10.0014505  84.7602689  46.6012898   9.6068927  83.4247471
  44.6410012  10.2814997  82.8739988  44.5485413   9.7434746  81.9322646
  43.6475354  10.2842069  83.3188049  45.0420012  11.7314997  82.5699988
  44.2762850  12.2600465  82.0076537  45.1620905  12.2849398  83.4987590
  46.3430012  11.7744997  81.8089988  46.6741277  12.7991497  81.6692973
  46.2527033  11.3251908  80.8257853  47.1258068  11.2438805  82.3436011
  26.7950012  33.9764997  83.7679988  26.9893803  33.7083099  82.7342096
  27.3944520  33.3252537  84.3975441  27.1472124  34.9934791  83.9173707
  25.3050012  33.8544997  84.1039988  24.9822538  32.8322776  83.9140009
  24.7418826  34.4843280  83.4206045  24.9700012  34.2324997  85.5829988
  23.8908216  34.2994861  85.7201601  25.3635875  35.2228265  85.8032568
  25.5670012  33.2104997  86.6329988  26.6464532  33.2269047  86.4997168
  25.2414591  32.2152919  86.3341847  25.2520012  33.4234997  88.1249988
  25.7609851  32.6593355  88.7068591  24.1857431  33.2608111  88.2732929
  25.6290012  34.7844997  88.6669988  25.1260231  35.5751451  88.1131849
  26.6958269  34.9653623  88.5540894  25.2470012  34.8884997  90.1739988
  25.8416551  35.6637470  90.6537365  25.4929762  33.9576172  90.6831000
  23.7720012  35.1934997  90.3719988  23.1898503  34.5437916  89.7197482
  23.5765273  36.2114562  90.0399771  23.2770012  35.0284997  91.8319988
  23.3503783  33.9839216  92.1269793  22.2205868  35.2873119  91.8918476
  24.0890012  35.9174997  92.8509988  24.1247999  36.9404723  92.4828353
  25.1214580  35.5713334  92.8913803  23.4680012  35.8874997  94.3209988
  22.4832019  36.3497768  94.3176278  24.0750268  36.4744863  95.0080901
  23.3260012  34.4254997  94.8749988  24.2863333  33.9156355  94.8705472
  22.6687182  33.8412597  94.2336621  22.7530012  34.4384997  96.2659988
  21.8018836  34.9670733  96.2308243  23.4003471  35.0200131  96.9164289
  22.5050012  33.0514997  96.9089988  23.4278684  32.5431713  97.1683506
  21.9643693  32.3957119  96.2316867  21.6730012  33.2434997  98.1609988
  20.7607464  33.7792891  97.9312993  22.2294860  33.8057858  98.9014229
  21.5650012  32.0114997  99.0989988  20.8310012  31.9524997 100.0919988
  22.4250012  31.0944997  98.7059988  22.6160012  29.9814997  99.5439988
  22.0035643  29.1793733  99.1606237  22.2773577  30.2409965 100.5365581
  24.0860012  29.5644997  99.5589988  24.2003164  28.6697033 100.1482063
  24.9220012  30.6964997 100.1639988  25.9350565  30.3424907 100.2988969
  24.4977182  30.9128936 101.1364918  24.9060012  31.8804997  99.3319988
  26.2070012  32.7174997  99.1879988  26.4690012  33.3044997 100.6929988
  25.5090012  34.1284997 101.4069988  24.7299454  34.5554236 100.7889397
  25.9928908  34.9602149 101.9108813  24.9190012  33.2784997 102.5179988
  24.6285961  32.3199349 102.1068205  24.0533614  33.7378045 102.9730634
  25.9120012  32.9544997 103.7039988  27.1930012  32.3504997 103.1279988
  26.9248447  31.5352108 102.4701764  27.7834661  31.9750151 103.9504722
  27.7423544  33.1223159 102.6100917  26.2950012  34.1574997 104.4659988
  25.3977979  34.6961344 104.7298415  26.9525454  34.7594313 103.8645972
  26.8042881  33.8255939 105.3591742  25.1860012  32.0034997 104.5949988
  24.2689531  32.4625969 104.9331326  25.8083207  31.7688438 105.4454721
  24.9625412  31.0977156 104.0499705  27.2780012  31.7314997  98.8419988
  26.0980012  33.9054997  98.3079988  24.5640012  29.3114997  98.2069988
  25.5820012  28.3854997  98.2079988  26.1240012  27.9104997  99.1609988
  25.9880012  27.9664997  96.7379988  26.9882932  27.5538173  96.8196203
  25.3472090  27.1378310  96.4471369  25.9170012  29.1344997  95.6849988
  26.2367445  30.0582448  96.1545945  26.6196614  28.9487549  94.8788967
  24.5260012  29.3214997  95.1209988  24.1620270  28.4059230  94.6617645
  23.8289711  29.5569970  95.9214706  24.5040012  30.4524997  94.1129988
  23.4666145  30.6631396  93.8596890  24.8964127  31.3596212  94.5661497
  25.2890012  30.1694997  92.7839988  26.3201719  29.9552662  93.0572969
  24.8850817  29.2444834  92.3770896  25.2650012  31.2694997  91.6549988
  25.5321871  32.2368761  92.0774861  26.0044645  31.0549230  90.8885336
  23.9010012  31.3684997  90.9989988  23.1349954  31.5712390  91.7383985
  23.8844115  32.2058552  90.3026465  23.6140012  30.1614997  90.2729988
  24.2636021  29.3631308  90.5988512  22.7040012  29.8644997  89.3049988
  22.5711666  28.9275337  88.7834053  21.7650012  30.9184997  88.8929988
  21.1871201  31.2012851  89.7712395  22.3042603  31.8074434  88.5853307
  20.7610012  30.4974997  87.7579988  20.2183616  29.6432877  88.1611976
  20.0449654  31.3155951  87.7082827  21.2540012  30.1684997  86.3349988
  21.9476885  29.3283039  86.3662382  20.4242591  29.8540710  85.7079687
  21.9520012  31.3774997  85.6919988  21.6145759  32.2801015  86.1965769
  23.0229741  31.3090336  85.8747948  21.7030012  31.4974997  84.1799988
  20.6606007  31.7679555  84.0223758  22.2870169  32.3252763  83.7871419
  21.9850012  30.2344997  83.3789988  21.2301106  29.5011811  83.6569683
  21.8034784  30.4726261  82.3324906  23.3780012  29.5744997  83.4969988
  24.0545999  30.3968603  83.7157498  23.2984221  29.0033975  84.4193992
  23.9830012  28.6974997  82.4369988  24.9254476  28.2777845  82.7756768
  24.1813292  29.2453606  81.5219822  23.3225418  27.8710581  82.1901610
  44.0850012  16.2754997  83.6899988  44.1635559  15.8039710  82.7153609
  44.8499041  17.0444441  83.7486323  43.1182458  16.7688033  83.7414538
  44.2390012  15.2664997  84.8009988  45.2033359  14.7780800  84.6717404
  43.4851886  14.4990273  84.6474840  44.1420012  15.8264997  86.2369988
  44.6600995  16.7828024  86.3076258  44.6515679  15.1563128  86.9264640
  42.7150012  15.9974997  86.7019988  42.0987943  15.1898220  86.3131595
  42.2877555  16.9187076  86.3088792  42.6050012  16.0014997  88.3039988
  43.1207242  15.1458907  88.7324099  41.5634598  15.9145423  88.6089496
  43.2010012  17.2904997  88.8959988  44.2861255  17.2334875  88.8321888
  42.9603833  17.3309967  89.9562063  42.7180012  18.5874997  88.2149988
  41.6314977  18.6524346  88.2070211  43.0330826  18.6316704  87.1733642
  43.2910012  19.7924997  88.9679988  44.3592933  19.7975691  88.7554494
  43.1928755  19.5593063  90.0266187  42.7270012  21.1624997  88.7079988
  42.8784766  21.4121934  87.6600249  43.2980924  21.8929814  89.2796876
  41.2020012  21.3044997  89.0619988  40.6278712  20.7755451  88.3044495
  40.9250351  22.3549504  88.9767223  40.8130012  20.7814997  90.4959988
  41.6725352  20.8443032  91.1599249  40.5348735  19.7295942  90.4603917
  39.6350012  21.6084997  91.1309988  38.7215021  21.3789068  90.5878363
  39.8334312  22.6648051  90.9592014  39.4270012  21.3894997  92.6209988
  39.1339291  20.3510813  92.7660784  38.5878847  21.9922187  92.9569860
  40.6400012  21.6704997  93.5239988  41.2597425  22.4841966  93.1618345
  41.2845737  20.8001095  93.6136609  40.0910012  22.0344997  94.9489988
  39.4419046  21.2500007  95.3167976  39.5303456  22.9609854  94.9121403
  41.1070012  21.7854997  95.9709988  42.2990012  21.6844997  95.7359988
  40.5040012  21.6794997  97.1789988  41.3970012  21.3504997  98.2679988
  41.1765519  22.1334814  98.9777901  42.4356799  21.4183168  97.9786212
  41.0800012  19.9554997  98.8869988  40.0327202  19.9339689  99.1392547
  41.9220012  19.7404997 100.1449988  41.6759929  20.4636951 100.9106810
  42.9712498  19.8411752  99.8969529  41.6460012  18.4294997 100.5959988
  40.7660012  18.1274997 101.8689988  41.2530012  16.7784997 102.4749988
  42.6150012  16.3314997 102.2929988  43.0233012  15.7638164 103.1189623
  43.2926033  17.1639475 102.1266171  42.6520012  15.5034997 100.9719988
  43.6662558  15.1833065 100.7694825  42.3074512  16.1088079 100.1460059
  41.7770012  14.1964997 100.9439988  40.2800012  14.4544997 100.9159988
  40.0326847  15.1393005 101.7155089  39.7765135  13.5125554 101.0751879
  40.0106306  14.8504676  99.9483388  42.1370012  13.4694997  99.6569988
  43.2118657  13.3958061  99.5941544  41.7305106  14.0116866  98.8220324
  41.7002798  12.4827261  99.7103786  42.0140012  13.3624997 102.1639988
  43.0612629  13.1054662 102.2210830  41.4232002  12.4612643 102.0978247
  41.7254775  13.9198535 103.0435133  40.9310012  19.1844997 102.8809988
  39.3170012  17.9854997 101.4149988  41.2720012  18.9584997  97.8809988
  40.3910012  17.9534997  97.8139988  39.3610012  17.8334997  98.5259988
  40.7420012  17.1444997  96.4549988  41.8169054  17.2296178  96.3329795
  40.5462036  16.0913349  96.6405097  40.0000012  17.6264997  95.2439988
  38.9323598  17.5614099  95.4227901  40.2111558  18.6762813  95.0667833
  40.3540012  16.7994997  93.9849988  41.3913240  16.9535653  93.6988537
  40.2538278  15.7389527  94.2024164  39.4240012  17.1494997  92.8079988
  38.5095762  16.5789999  92.9598637  39.1476291  18.1969870  92.9006853
  39.9260012  16.8904997  91.3659988  40.8904699  17.3829568  91.2602302
  40.1209214  15.8226901  91.2874503  38.9700012  17.3274997  90.1549988
  38.6234342  18.3470456  90.3166105  39.5197852  17.3354887  89.2179866
  37.7320012  16.3774997  90.0019988  38.0961473  15.3617646  89.9007076
  37.1726637  16.4110944  90.9360004  36.8120012  16.7334997  88.8819988
  36.0196324  17.4330496  89.1018522  36.8900012  16.2664997  87.6069988
  36.1366493  16.5938367  86.9049151  37.9050012  15.3394997  87.0229988
  38.7877941  15.4136738  87.6557672  37.5515702  14.3184362  87.1135356
  38.3310012  15.6054997  85.5699988  38.8467210  14.7301120  85.1770173
  37.4385782  15.7310012  84.9598433  39.2210012  16.8324997  85.4139988
  39.6389822  17.1758016  86.3603299  40.0654376  16.6726021  84.7492703
  38.2900012  17.9574997  84.8189988  38.0233637  17.6955530  83.7975129
  37.3562585  17.9934211  85.3774962  38.9480012  19.3364997  84.8489988
  38.2215154  20.1393525  84.7383836  39.4740146  19.5382020  85.7781118
  39.9230012  19.4154997  83.6649988  40.4368431  18.4581916  83.5985856
  39.3271662  19.5017330  82.7581479  40.9770012  20.5374997  83.6649988
  41.7957529  20.2178545  83.0251647  40.5106741  21.3759090  83.1522398
  41.5390012  21.0304997  85.0059988  42.2018548  21.8777270  84.8580125
  42.1062161  20.2592504  85.5160800  40.7406726  21.3473359  85.6711509
 109.2190012 123.3664997  81.9849988 109.8191543 123.3420968  81.0807589
 109.3589650 124.3383740  82.4493912 108.1757121 123.2896083  81.6913192
 109.5980012 122.2604997  82.9189988 110.6596626 122.3708659  83.1332353
 109.4934439 121.3316158  82.3648720 108.8120012 122.1754997  84.2589988
 107.7510856 122.0826565  84.0271210 108.9264202 123.1301279  84.7686694
 109.2280012 121.0294997  85.2489988 110.3032334 121.0168060  85.4132072
 108.9690014 120.0414550  84.8716489 108.5260012 121.2594997  86.6009988
 107.5370373 120.8085688  86.6145990 108.3789754 122.3237500  86.7774062
 109.3620012 120.6644997  87.7509988 110.3672322 121.0537777  87.6000345
 109.4139899 119.5983231  87.5408996 108.9560012 120.8704997  89.2029988
 109.7037900 120.4493197  89.8724681 108.0256777 120.3465043  89.4178408
 108.7790012 122.3734997  89.5169988 107.7857823 122.7116926  89.2244364
 109.4848285 122.9715845  88.9435998 108.9810012 122.6384997  90.9809988
 108.8650760 123.7019540  91.1789059 110.0035063 122.3874640  91.2603574
 108.0010012 121.8434997  91.8689988 108.2981224 120.7978818  91.8277530
 107.0151008 121.8990642  91.4081929 107.8980012 122.3204997  93.3819988
 107.0678439 121.8291785  93.8849734 107.7038211 123.3893885  93.4519899
 109.1810012 121.9914997  94.1389988 109.9632678 122.6674431  93.8022817
 109.4978611 120.9914213  93.8489764 109.0620012 122.0424997  95.6439988
 108.3295523 121.3270997  96.0140980 108.7551882 123.0143270  96.0204179
 110.4320012 121.6774997  96.2509988 111.2330701 122.2701281  95.8215513
 110.6704114 120.6358654  96.0528813 110.4040012 121.8954997  97.7969988
 109.5899605 121.3387315  98.2435277 110.2743649 122.9462303  98.0277120
 110.3030012 123.4094997  98.1739988 110.8300012 124.2604997  97.5619988
 109.6970012 123.5204997  99.3419988 109.5740012 124.7664997 100.0219988
 109.7823388 125.5234876  99.2810354 110.3394910 124.7977595 100.7837337
 108.1520012 124.9924997 100.6449988 107.9967798 126.0240400 100.9146744
 108.0160012 124.1194997 101.8629988 107.1827560 124.5225469 102.4225133
 108.9272275 124.2996642 102.4195886 107.8460012 122.7854997 101.6499988
 108.5320012 121.6194997 102.5289988 107.8600012 120.2084997 101.9529988
 107.8570012 120.0564997 100.5419988 108.0119548 119.0536801 100.1657923
 108.5910255 120.6872836 100.0489299 106.4640012 120.6174997 100.0919988
 106.3970229 120.4869360  99.0192844 106.3479450 121.6667785 100.3220465
 105.2590012 119.9364997 100.6609988 105.0340012 120.1944997 102.0789988
 105.9504681 119.9926677 102.6162940 104.2576339 119.5259767 102.4202184
 104.7114314 121.2174741 102.2022428 104.0230012 120.4604997  99.9109988
 104.2098699 120.3891612  98.8504777 103.8355577 121.4763438 100.2098226
 103.1886243 119.8305670 100.1835737 105.3080012 118.4034997 100.4899988
 105.3893127 118.1652597  99.4398977 104.4022409 117.9728781 100.8897656
 106.1613361 118.0083486 101.0220797 110.0010012 121.7024997 102.3399988
 108.1130012 121.7494997 103.9359988 107.1830012 124.6394997  99.6709988
 107.1460012 125.3474997  98.5369988 107.8050012 126.3694997  98.3259988
 106.2140012 124.8044997  97.5209988 105.6056900 125.6531400  97.2254988
 106.8163557 124.5532211  96.6515535 105.3660012 123.6224997  97.9589988
 106.0214716 122.7992189  98.2209687 104.8281365 123.8783034  98.8663571
 104.3690012 123.1504997  96.8719988 103.5183279 122.6691158  97.3476863
 103.9760497 124.0282234  96.3647954 104.9780012 122.2244997  95.8349988
 105.8022348 122.7302135  95.3354006 105.4023793 121.3378954  96.2997978
 103.9780012 121.7944997  94.7859988 104.3072959 120.9023433  94.2572995
 103.0236579 121.5406163  95.2433313 103.7540012 122.9214997  93.7849988
 102.9015227 123.5457568  94.0482182 104.6049832 123.5898469  93.6877391
 103.5030012 122.2764997  92.4689988 104.4010634 121.7469762  92.1729090
 102.7332971 121.5191462  92.6115378 103.0470012 123.2334997  91.3799988
 102.5106835 124.0976428  91.7421783 103.2360012 123.1434997  90.0599988
 102.8744905 123.9123175  89.3922869 103.9480012 122.0144997  89.3669988
 104.6804042 121.5976021  90.0562035 103.2673483 121.2067369  89.1222296
 104.7130012 122.4804997  88.0479988 105.4062324 123.2849356  88.2909358
 105.3215682 121.6563377  87.6807628 103.7600012 122.9434997  86.9299988
 102.9738075 122.2133198  86.7380511 103.2564436 123.8749990  87.1733972
 104.5760012 123.1274997  85.6879988 105.3646408 123.8644324  85.8226190
 105.0681886 122.2095121  85.3715570 103.6150012 123.5864997  84.5929988
 102.7048618 122.9907724  84.6296764 103.3045771 124.6134976  84.7648626
 104.2160012 123.4464997  83.1819988 104.7739519 122.5124953  83.1472166
 103.3917483 123.3319419  82.4803451 105.0990012 124.5434997  82.6979988
 104.5926903 125.4805281  82.9160401 105.9681104 124.5176644  83.3516766
 105.5890012 124.5494997  81.2089988 106.2910196 125.3599519  81.0375161
 104.7675437 124.6781660  80.5122968 106.0907278 123.6188823  80.9592733
  17.7260012  48.2434997  82.7859988  17.4986173  48.2226139  81.7247310
  18.5807506  47.5948097  82.9545059  18.0268328  49.2563161  83.0396032
  16.5140012  47.7984997  83.6269988  16.1981504  46.7814881  83.4008821
  15.6444942  48.4305618  83.4680363  16.9580012  47.8734997  85.0859988
  17.5808337  48.7500307  85.2640491  17.5711677  47.0115138  85.3412989
  15.7190012  47.9104997  86.0579988  15.2313831  48.8755617  85.9391132
  16.0817273  47.8804224  87.0842692  14.6920012  46.8234997  85.8589988
  15.2109966  45.8715298  85.9362652  14.3541980  46.9044432  84.8271547
  13.4980012  46.8024997  86.7709988  12.9209231  45.8932213  86.6128510
  12.8317451  47.6301209  86.5370695  13.9260012  46.8914997  88.2889988
  14.5611556  47.7620144  88.4424686  14.5294500  46.0241914  88.5533014
  12.7220012  46.9734997  89.2279988  12.2488796  45.9971136  89.3243176
  11.9645766  47.6391168  88.8181866  13.1350012  47.4724997  90.6129988
  12.2100591  47.6461502  91.1587723  13.5851129  48.4524282  90.4589974
  14.0740012  46.6134997  91.4659988  15.0058261  46.3904284  90.9509837
  13.6320045  45.6523553  91.7272829  14.3540012  47.3864997  92.7239988
  13.5095793  47.4064188  93.4096343  14.6297762  48.4258059  92.5539439
  15.5490012  46.6404997  93.4299988  16.4550032  46.7323344  92.8359064
  15.3333539  45.5754991  93.4927687  15.7950012  47.1864997  94.8749988
  15.9860456  48.2485055  94.7304387  16.7370744  46.7483817  95.1925278
  14.7640012  47.0394997  96.0109988  14.6164625  45.9782072  96.1819832
  13.8254853  47.4294797  95.6260371  15.0880012  47.7754997  97.4389988
  15.2719502  48.8316044  97.2878480  15.9620915  47.3330372  97.9018832
  13.8790012  47.5764997  98.3619988  12.7510012  47.5944997  98.0109988
  14.3300012  47.2014997  99.5979988  13.2560012  46.5784997 100.3929988
  12.3625513  46.9675325  99.9283884  13.2977795  46.9181882 101.4177223
  13.2690012  44.9534997 100.3169988  12.4457571  44.5836797 100.9055533
  14.6040012  44.4494997 100.9069988  14.4688268  43.4227489 101.2189470
  14.7990089  45.0554400 101.7830087  15.6930012  44.5524997  99.9739988
  16.9960012  43.7624997 100.3089988  17.9770012  44.8264997 101.0059988
  17.9090012  46.1754997 100.5629988  17.8100662  46.2392483  99.4872028
  18.8344211  46.6838703 100.8178599  16.7570012  47.0084997 101.2959988
  15.8294601  46.4508542 101.2652072  16.6029547  47.9653607 100.8184388
  17.0090012  47.3104997 102.7629988  15.7640012  47.8104997 103.4049988
  15.3674299  48.6188833 102.8061823  16.0201290  48.1776321 104.3877054
  15.0634246  46.9938504 103.4944045  17.5920012  46.1534997 103.5099988
  18.4382273  45.7785668 102.9549847  16.8364076  45.3982737 103.6328083
  17.9139857  46.5204634 104.4738248  18.1200012  48.4074997 102.8959988
  19.0229800  48.0589744 102.4172072  18.3130093  48.5918525 103.9421402
  17.7843434  49.3197954 102.4243153  16.7300012  42.7424997 101.3959988
  17.6080012  43.3294997  99.0629988  13.0580012  44.4934997  98.9379988
  12.9950012  43.1884997  98.6999988  12.9370012  42.3364997  99.5919988
  13.2580012  42.9524997  97.2009988  12.6361615  42.1207775  96.8861865
  12.9139707  43.8129387  96.6324967  14.7630012  42.6804997  96.9459988
  15.2918108  43.6092440  96.7620006  15.2356115  42.2330664  97.8146045
  14.9260012  41.7724997  95.7479988  14.3789130  40.8536336  95.9430210
  14.4242210  42.2522862  94.9112870  16.3900012  41.4434997  95.3269988
  16.9861822  41.1147488  96.1762320  16.4580595  40.6529233  94.5836556
  17.0260012  42.7174997  94.7549988  16.3130368  43.2650027  94.1419545
  17.3070566  43.3881827  95.5646735  18.2790012  42.4014997  93.9209988
  18.7097574  43.3436719  93.5856460  19.0247058  41.9325941  94.5568998
  18.0310012  41.4984997  92.7089988  17.5725059  40.5844207  93.0679163
  17.2854420  41.9918138  92.0868021  19.2000012  41.2134997  91.8949988
  19.9771713  40.5760977  92.2890536  19.3730012  41.6924997  90.6499988
  20.2835352  41.3712155  90.1649068  18.5230012  42.5904997  89.8149988
  18.0547480  43.3604648  90.4258291  19.0596384  43.1108118  89.0295201
  17.3730012  41.6994997  89.1689988  17.4676705  41.6591570  88.0845103
  17.4449631  40.6712032  89.5181217  16.0030012  42.2604997  89.5399988
  15.9751287  42.2754197  90.6295434  16.0051895  43.2994428  89.2220420
  14.7410012  41.5674997  89.0119988  14.6804890  40.5690308  89.4392495
  13.8590823  42.1017680  89.3610853  14.7080012  41.4834997  87.4619988
  15.4245071  40.7218336  87.1602140  13.7326478  41.1075224  87.1654319
  15.0420012  42.8064997  86.6669988  14.2097016  43.5064018  86.7149299
  15.8924483  43.3178517  87.1143161  15.3570012  42.5334997  85.2139988
  15.8188064  43.3901786  84.7294865  16.0820709  41.7258661  85.1410953
  14.0800012  42.1274997  84.4359988  14.3231654  41.8471857  83.4155262
  13.3598751  42.9373366  84.3877961  13.5906760  41.2783305  84.9046283
 135.6450012  58.0334997  83.9389988 136.2010388  57.1191450  83.7567718
 136.3619509  58.8183492  84.1621227 135.1397194  58.3025806  83.0154741
 134.6540012  57.8584997  85.0709988 135.1670382  57.5766225  85.9888992
 133.9633456  57.0500756  84.8468127 133.8660012  59.1884997  85.3099988
 133.0334642  58.9637544  85.9765576 133.4215458  59.4706263  84.3576149
 134.6330012  60.3754997  85.8519988 133.9891162  61.2498026  85.7867573
 135.4793823  60.5748623  85.1965604 135.1300012  60.2394997  87.2959988
 136.0465973  60.8123194  87.4113334 135.3970038  59.1979976  87.4673114
 134.1340012  60.6834997  88.3579988 133.1317295  60.5619633  87.9511851
 134.2686012  61.7506319  88.5213654 134.2290012  59.9394997  89.7219988
 134.0860157  58.8792003  89.5217726 133.3754273  60.2538109  90.3210397
 135.4710012  60.1254997  90.5059988 135.5899885  61.2042737  90.5984083
 136.2736585  59.7859755  89.8539646 135.6320012  59.4864997  91.8699988
 136.6703535  59.2253044  92.0627225 135.0673783  58.5575645  91.9396946
 135.1440012  60.4564997  92.9499988 134.1101156  60.7100704  92.7262098
 135.7124065  61.3814017  92.8556556 135.2590012  59.9344997  94.4039988
 136.2380981  59.4843473  94.5532402 134.5325002  59.1431872  94.5804893
 135.0670012  61.0544997  95.4679988 134.1630995  61.6245595  95.2674682
 135.8909199  61.7640377  95.4191764 135.0130012  60.4454997  96.9189988
 136.0138294  60.1250301  97.2034175 134.3927497  59.5536541  96.9321759
 134.5090012  61.4194997  97.9849988 133.4586200  61.6114585  97.7921357
 135.0342789  62.3577619  97.8273940 134.6840012  61.0034997  99.4449988
 135.7216358  60.7743331  99.6519725 134.0843821  60.1275480  99.6623341
 133.3420012  60.5154997  99.9739988 132.3490012  60.2164997  99.2939988
 133.4410012  60.3754997 101.2899988 132.3490012  59.6844997 101.9509988
 131.5414370  59.7115622 101.2350590 132.0268071  60.1619313 102.8650239
 132.8060012  58.1504997 102.2259988 131.9335486  57.5769466 102.4920014
 133.8210012  58.1044997 103.3599988 133.7037794  57.2114443 103.9587576
 133.6897720  58.9696068 103.9979279 135.1230012  58.1294997 102.7409988
 136.4320012  57.9044997 103.5999988 137.5350012  57.3874997 102.5049988
 137.9100012  58.1614997 101.4189988 138.4057825  59.0600341 101.7625474
 137.0050428  58.4837005 100.9120135 138.7320012  57.4584997 100.3569988
 139.4732985  56.8777774 100.8913105 139.2397877  58.1737874  99.7262109
 138.0660012  56.5144997  99.4429988 137.3770012  57.2444997  98.3579988
 136.7518011  58.0087481  98.7988878 136.7628769  56.5384771  97.8190335
 138.1168627  57.6633415  97.6924963 139.0700012  55.6634997  98.8389988
 139.6964146  55.2638237  99.6216732 139.6414048  56.2405444  98.1340965
 138.5519354  54.8616794  98.3330451 137.0710012  55.6564997 100.2469988
 137.6026717  55.1331328 101.0277007 136.6035735  54.9422897  99.5858894
 136.3151876  56.2938916 100.6827881 136.7850012  59.2634997 104.0729988
 136.2200012  56.8634997 104.5989988 133.3100012  57.5944997 100.9859988
 133.1940012  56.3084997 100.8849988 132.8940012  55.4784997 101.7839988
 133.4510012  55.9584997  99.4709988 132.6012953  56.3810077  98.9446529
 134.3104898  56.5550615  99.1755327 133.6610012  54.4804997  99.1269988
 134.5893831  54.1131454  99.5503412 132.8749163  53.8571797  99.5412159
 133.7060012  54.3164997  97.5869988 133.7532576  53.2553101  97.3561360
 132.7558372  54.6701335  97.1943200 134.8710012  55.0824997  96.8499988
 134.7523569  56.1585251  96.9631309 135.8486153  54.8398301  97.2593690
 134.8650012  54.7464997  95.3309988 135.2939162  53.7536963  95.2115234
 133.8223616  54.6641955  95.0301502 135.5610012  55.7074997  94.3999988
 135.3291007  55.4378253  93.3708248 135.1808307  56.7146941  94.5461074
 137.0860012  55.7254997  94.5889988 137.3381119  55.9330440  95.6224133
 137.4966365  54.7419289  94.3646928 137.7030012  56.7114997  93.6829988
 137.8458687  57.7312001  94.0075815 138.1370012  56.3874997  92.3999988
 138.5596380  57.1825540  91.8026072 138.1050012  55.0574997  91.7119988
 139.0936158  54.6307117  91.8723549 137.4092142  54.4212558  92.2474941
 137.7890012  54.9994997  90.1789988 138.5072490  55.6070811  89.6297540
 137.9210803  53.9790911  89.8243433 136.3650012  55.4674997  89.8499988
 136.1837155  56.3282911  90.4936451 136.4023629  55.8505889  88.8339521
 135.1790012  54.4684997  89.9839988 135.1656433  54.0588081  90.9915301
 134.2350199  54.9957168  89.8574030 135.2680012  53.2854997  88.9159988
 136.2180129  52.7703469  89.0451703 134.4991182  52.5482855  89.1303797
 135.1700012  53.7384997  87.4429988 134.4016526  54.5067242  87.3770095
 136.1072247  54.2257014  87.1801670 134.8730012  52.6634997  86.3979988
 135.4520011  51.7732320  86.6305876 133.8303864  52.3793395  86.5225800
 135.1030012  53.0514997  84.9469988 134.7822769  52.2568966  84.2800573
 136.1499333  53.2464564  84.7404413 134.5435684  53.9461672  84.6886463
  17.5990012 132.2404997  83.4789988  16.7931417 132.3146489  82.7554509
  18.3387872 131.5516533  83.0815102  18.0669103 133.2182908  83.5538154
  17.1020012 131.7904997  84.7879988  16.6099056 130.8298119  84.6461397
  16.3284136 132.4863083  85.1014102  18.1860012 131.6524997  85.9059988
  18.4220014 132.6319069  86.3219247  19.1103529 131.2803994  85.4686359
  17.7660012 130.6984997  87.0519988  17.3424266 129.7847415  86.6410479
  16.9834916 131.1450621  87.6635270  18.9460012 130.3324997  87.9339988
  19.6357761 131.1670119  88.0308127  19.5128035 129.5180212  87.4859754
  18.4770012 129.9134997  89.3269988  17.8631651 129.0240868  89.1967411
  17.8085458 130.6951151  89.6817122  19.5630012 129.6354997  90.4099988
  19.1522143 129.8714510  91.3899738  20.3967774 130.3193249  90.2569294
  20.0850012 128.1944997  90.4139988  20.2442571 127.8560626  89.3909890
  19.3361091 127.5299335  90.8408436  21.3740012 128.0564997  91.1909988
  21.4345231 128.8947081  91.8818567  22.1980956 128.1811191  90.4896320
  21.5670012 126.7114997  91.9849988  22.5987284 126.6468408  92.3236094
  21.4146332 125.8711405  91.3082349  20.5780012 126.5714997  93.2229988
  20.2534930 125.5379881  93.3234437  19.6747584 127.1576130  93.0625254
  21.2440012 127.0094997  94.5629988  22.1712975 126.4735798  94.7504297
  20.5965669 126.8032681  95.4132737  21.5090012 128.5174997  94.5039988
  20.6417715 129.0674285  94.1424148  22.3347672 128.7889550  93.8523113
  21.8060012 128.9854997  95.8839988  22.6340897 128.4602872  96.3485052
  20.9513522 128.8730464  96.5458307  22.1610012 130.5264997  95.7759988
  21.3614025 131.0660400  95.2844917  23.0737711 130.6646827  95.2087022
  20.9020012 131.4594997  95.7079988  20.5930012 132.1384997  94.7279988
  20.3500012 131.5164997  96.9279988  19.1330012 132.2454997  97.0369988
  18.9217611 132.6498632  96.0585665  19.2458579 133.0592494  97.7386159
  18.0110012 131.2964997  97.4729988  17.1249144 131.9072082  97.4202800
  18.2010012 130.7404997  98.9629988  17.4426529 129.9917799  99.1477354
  18.0323337 131.5769964  99.6296393  19.4830012 130.2024997  99.1669988
  19.7070012 128.6504997  99.2689988  19.1590012 128.3984997 100.7719988
  19.6440012 129.2974997 101.7689988  19.4916214 130.3366727 101.5080605
  20.7140957 129.1670336 101.9019398  19.0320012 128.9794997 103.1239988
  18.0644936 129.4647134 103.1513084  19.6501682 129.3930877 103.9077024
  18.7750012 127.5054997 103.5189988  18.3200012 127.6084997 105.0219988
  19.0462758 128.1995579 105.5628400  18.2882362 126.6090868 105.4297548
  17.3341960 128.0471610 105.0604868  17.6150012 126.9404997 102.7489988
  17.7638447 127.1515224 101.7011300  16.7040296 127.3807325 103.1132733
  17.6066394 125.8728821 102.9145881  20.0950012 126.7424997 103.3159988
  20.4057045 126.8371972 102.2861552  19.9425184 125.7004358 103.5537001
  20.8532483 127.1542062 103.9663786  18.8570012 127.9384997  98.2919988
  21.1450012 128.3704997  99.1829988  17.8730012 130.1414997  96.6449988
  17.3900012 130.3354997  95.3789988  17.2190012 131.3794997  94.8249988
  17.0420012 128.9844997  94.7229988  16.4003032 129.1710982  93.8680381
  17.9373974 128.5131014  94.3255616  16.3400012 128.0584997  95.7999988
  16.9124468 128.0367636  96.7208107  15.3564423 128.4319263  96.0668272
  16.2210012 126.6024997  95.2359988  15.5963710 125.9898005  95.8810498
  15.7260297 126.6260911  94.2682634  17.5650012 125.9664997  95.0689988
  18.0182025 126.3721435  94.1663540  18.2118159 126.2601194  95.8921756
  17.5630012 124.4334997  94.9619988  18.5784366 124.0572130  94.8561673
  17.1750387 124.0032366  95.8832695  16.7030012 123.9284997  93.7799988
  16.8683478 122.8530279  93.7385014  15.6649518 124.0681702  94.0685531
  16.9060012 124.5194997  92.4009988  17.0639707 125.5744200  92.5927503
  17.8684848 124.1172091  92.0877358  15.9260012 124.3154997  91.3029988
  14.9133241 124.6731175  91.4132194  16.2550012 123.6754997  90.0829988
  15.5083691 123.5247027  89.3165714  17.6100012 123.1604997  89.7229988
  18.3189769 123.4621817  90.4921297  17.6409185 122.0771615  89.6897795
  18.0890012 123.7244997  88.3819988  19.0690963 123.3074677  88.1535194
  17.4184765 123.3677999  87.6024983  18.1590012 125.2654997  88.3249988
  17.1589437 125.6209723  88.0767424  18.3663154 125.6201050  89.3308715
  19.1820012 125.8864997  87.3369988  19.2158792 126.9619479  87.4963985
  20.1785756 125.5133637  87.5665502  18.8710012 125.5994997  85.9399988
  18.8551547 124.5160506  85.8376410  17.8512006 125.9293689  85.7616225
  19.8060012 126.1644997  84.8529988  19.5121776 127.1877985  84.6262607
  20.8173813 126.2221379  85.2512725  19.8440012 125.3614997  83.5349988
  20.8230979 125.5186261  83.0893578  19.8195987 124.3160861  83.8347120
  18.7660012 125.5944997  82.4849988  18.8759852 124.8986629  81.6586915
  18.8106163 126.5972572  82.0736257  17.7743005 125.4543077  82.9057327
  27.8640012 131.3524997  84.2169988  28.1155181 130.3897483  83.7830887
  28.7856972 131.8102332  84.5644845  27.4648242 131.9783905  83.4235692
  26.8760012 131.2044997  85.3359988  27.3297033 130.5250185  86.0554865
  26.0245788 130.6777137  84.9136358  26.4010012 132.4804997  86.0709988
  25.9298746 133.1278118  85.3314342  27.2950588 133.0041647  86.4035747
  25.4590012 132.3144997  87.2719988  26.0026396 131.9281831  88.1313396
  24.6728167 131.5908225  87.0624481  24.8530012 133.5964997  87.6389988
  24.3807499 134.0781899  86.7866337  25.6064162 134.2923391  88.0044277
  23.7860012 133.3704997  88.7439988  23.2255543 132.4546308  88.5653914
  23.0557168 134.1768203  88.7544276  24.4800012 133.2864997  90.1399988
  24.9946424 134.2297722  90.3136399  25.2549133 132.5233962  90.0815668
  23.5700012 132.9874997  91.3189988  23.0374807 132.0586282  91.1188220
  22.8115034 133.7658245  91.3787951  24.2890012 132.8774997  92.6699988
  25.2119135 132.3131582  92.5547060  23.6755033 132.3156588  93.3732286
  24.6050012 134.2474997  93.2609988  23.6629130 134.7473892  93.4751936
  25.1003977 134.8447395  92.4959394  25.4710012 134.2154997  94.5069988
  25.7488957 135.2492595  94.7010509  26.3900925 133.7026062  94.2288993
  24.9430012 133.6274997  95.7679988  25.6884388 133.8445270  96.5292088
  24.9662997 132.5496638  95.6183427  23.5380012 134.0254997  96.2709988
  23.2871711 134.9657626  95.7828985  23.6109951 134.2438737  97.3327231
  22.3950012 133.0624997  96.0429988  22.4805583 132.6335450  95.0500119
  21.4673629 133.6283688  96.0622737  22.2970012 131.9164997  97.0879988
  22.2442327 132.3214203  98.0906431  23.1627256 131.2684728  97.0197975
  23.3850012 130.8714997  96.8399988  23.5620012 130.1944997  95.7789988
  23.8980012 130.6944997  98.0289988  24.5810012 129.4364997  98.3449988
  24.4489633 128.7974387  97.4849819  23.9941622 129.0500020  99.1656275
  26.0830012 129.5204997  98.7269988  26.5134191 128.5619603  98.9654031
  26.1970012 130.4814997  99.9679988  27.1524497 130.3479555 100.4569621
  25.4106147 130.2282833 100.6680436  26.0490012 131.8314997  99.5189988
  25.0500012 132.9004997 100.1809988  25.8650012 133.2484997 101.5009988
  27.0460012 134.0154997 101.2649988  26.8120990 135.0304989 100.9713063
  27.6000895 133.5762129 100.4404927  28.0190012 133.9954997 102.4629988
  27.4571926 134.2205208 103.3607658  28.7934995 134.7391393 102.3424611
  28.7700012 132.6274997 102.7549988  27.7840012 131.5644997 103.1979988
  27.1839457 131.9645130 104.0037635  28.3475486 130.7140225 103.5518390
  27.1798848 131.2724835 102.3521341  29.5410012 132.2024997 101.5769988
  30.1390223 133.0353073 101.2400772  28.8606127 131.8722071 100.8125720
  30.1802284 131.3880892 101.8859020  29.7950012 132.8894997 103.8549988
  30.4772488 133.6604391 103.5290041  30.3434167 131.9807298 104.0525532
  29.2862935 133.2070945 104.7537674  24.9830012 134.1174997  99.2919988
  23.8010012 132.2144997 100.5749988  26.7950012 130.1064997  97.6719988
  28.0700012 130.0874997  97.5999988  28.8430012 129.3914997  98.2969988
  28.4970012 131.2464997  96.6399988  28.2547147 132.1236223  97.2311892
  29.5823459 131.1844326  96.6309690  27.9320012 131.3434997  95.2009988
  26.8760562 131.0969799  95.2174067  27.9954489 132.3685426  94.8498658
  28.6710012 130.3834997  94.1889988  29.7136463 130.3290009  94.4916123
  28.2576645 129.3901321  94.3453277  28.5700012 130.7374997  92.6389988
  29.0431567 129.9331079  92.0788348  27.5264448 130.7473748  92.3338846
  29.2260012 132.0744997  92.2189988  29.1033675 132.8042991  93.0166546
  30.2977966 131.9173365  92.1144270  28.6720012 132.6734997  90.8739988
  28.9549461 132.0263699  90.0452249  27.5859482 132.6993143  90.8858541
  29.1950012 134.0954997  90.6099988  28.5331463 134.5614722  89.8893062
  29.0838464 134.6572420  91.5365171  30.6370012 134.1824997  90.1619988
  31.3711379 134.1163922  90.9508125  31.1090012 134.3214997  88.8759988
  32.1711704 134.4158645  88.7013511  30.2730012 134.3544997  87.6189988
  29.2661758 134.7001501  87.8471423  30.6594810 135.0253025  86.8598296
  30.1760012 132.9574997  87.0519988  29.5100973 132.3887198  87.6998926
  29.6675246 133.0416775  86.0934453  31.5490012 132.1484997  86.8519988
  32.2832360 132.8233860  86.4120731  31.9377376 131.8713503  87.8279989
  31.4260012 130.8904997  85.9729988  31.0347592 131.1183514  84.9839799
  32.3821668 130.3946102  85.8151196  30.4280012 129.8864997  86.7409988
  30.8501190 129.5742743  87.6943727  29.4806064 130.3629692  86.9777370
  30.1940012 128.6664997  85.9229988  29.4416842 128.8530731  85.1587393
  31.1004378 128.3828002  85.3912834  29.7210012 127.4324997  86.8069988
  30.5234152 127.1050800  87.4633852  28.9208864 127.7688322  87.4627500
  29.2140012 126.2364997  85.9819988  28.8226744 125.4588160  86.6309521
  30.0025639 125.7936659  85.3829929  28.4168379 126.5369850  85.3079214
   5.2390012 109.7714997  81.9099988   6.1505744 109.2096635  82.0883337
   5.5152768 110.7102261  81.4385600   4.6388808 109.2105167  81.1988267
   4.4510012 110.0164997  83.2429988   5.1097327 110.5447886  83.9301571
   4.2551773 109.0468435  83.6927030   3.1330012 110.8084997  83.0929988
   2.5974024 110.3887085  82.2416244   3.4078533 111.8215636  82.8060688
   2.1820012 110.8844997  84.3049988   1.5371771 110.0089148  84.2766608
   1.5272541 111.7452890  84.1782946   2.8770012 110.9574997  85.7319988
   3.3862863 111.9148423  85.8074753   3.6546035 110.1956399  85.7484084
   1.9930012 110.7844997  86.9229988   1.2763982 109.9851746  86.7430636
   1.4074783 111.6864103  87.0882170   2.7970012 110.4674997  88.1839988
   3.7171783 111.0486443  88.1662498   3.0973781 109.4210785  88.1522756
   2.0400012 110.7444997  89.5159988   1.0926009 110.2081375  89.4813656
   1.7889377 111.8031342  89.5467229   2.7930012 110.3634997  90.8059988
   3.7025977 110.9578763  90.8597714   3.1130939 109.3256406  90.7225349
   1.9940012 110.5424997  92.0969988   2.5113387 110.0173790  92.8969420
   1.0292415 110.0491053  91.9819778   1.7760012 111.9494997  92.4759988
   1.5041388 112.5196171  91.5902234   2.7054990 112.3830682  92.8409373
   0.6880012 112.1414997  93.5219988  -0.2428831 111.6772453  93.2055475
   0.4702901 113.1996912  93.6542964   1.1220012 111.5794997  94.8269988
   2.0784334 112.0213564  95.1013199   1.2941389 110.5102087  94.7417969
   0.1520012 111.8334997  95.9539988  -0.8500146 111.5631867  95.6373913
   0.1395393 112.9004478  96.1602957   0.4900012 111.0864997  97.2569988
   1.4993774 111.3156865  97.5742903   0.4059357 110.0161189  97.1110979
   0.0680012 109.5954997  97.2559988  -0.4929988 108.9574997  96.3959988
   0.2970012 109.2154997  98.4649988  -0.3969988 108.0004997  98.9889988
  -1.1008211 107.8225511  98.1899802  -0.9361712 108.0920704  99.9207176
   0.6070012 106.8854997  99.0559988   0.0321115 106.0467231  99.4121587
   1.7810012 107.1734997 100.0319988   2.3651741 106.2684164 100.1287836
   1.3296150 107.3992013 100.9900667   2.6330012 108.2924997  99.5889988
   3.9280012 108.6504997 100.3899988   3.4410012 109.5614997 101.5869988
   2.4950012 110.5874997 101.3549988   1.4726993 110.2324514 101.3603435
   2.6589390 111.0396291 100.3810889   2.6870012 111.7204997 102.3599988
   2.3540746 111.4203034 103.3455398   2.0958422 112.5648414 102.0359693
   4.1100012 112.2504997 102.5449988   4.9410012 111.3574997 103.3819988
   4.4053052 111.1445858 104.2968931   5.8603162 111.8756694 103.6110403
   5.1604632 110.4590087 102.8249822   4.8080012 112.4434997 101.2349988
   4.1621348 113.0112472 100.5828996   5.0414988 111.4808656 100.8164483
   5.7154877 112.9961445 101.4308275   3.8950012 113.6064997 103.3099988
   3.2611564 114.2512499 102.7195582   4.8518133 114.0822533 103.4643326
   3.4300811 113.4116508 104.2656756   4.4330012 107.3764997 101.0429988
   4.8390012 109.3774997  99.3839988   0.9870012 106.5474997  97.7059988
   1.5480012 105.3254997  97.5499988   2.0590012 104.6734997  98.4709988
   1.5760012 104.9214997  96.0229988   1.9110612 103.9009066  95.8691234
   0.6154447 104.9982683  95.5196651   2.6080012 105.9774997  95.4469988
   2.2314191 106.9846733  95.5878825   3.5504291 105.9317024  95.9834362
   2.8460012 105.7374997  93.9619988   3.7795678 106.1867149  93.6328893
   2.9359618 104.6721825  93.7643339   1.6860012 106.2864997  93.1439988
   0.8076289 105.6892269  93.3815559   1.4647606 107.2978610  93.4762681
   1.8780012 106.2944997  91.5269988   1.1602684 106.9917698  91.0997108
   2.8629981 106.7058482  91.3149742   1.7510012 104.9374997  90.8219988
   2.5364006 104.2836117  91.1978702   0.8079815 104.4744383  91.0987767
   1.8370012 105.0044997  89.2549988   1.4009538 104.0940054  88.8607363
   1.1915106 105.8194252  88.9300615   3.2160012 105.2314997  88.6969988
   4.0540808 104.7744999  89.2013080   3.4730012 105.9264997  87.6449988
   4.5156942 105.9241916  87.3614570   2.5820012 106.7464997  86.7249988
   1.7635269 107.1725133  87.3027819   3.1052290 107.5838191  86.2768807
   1.9720012 105.8534997  85.5989988   2.7742187 105.4342180  84.9929007
   1.4643355 105.0070801  86.0575927   1.0210012 106.5764997  84.7269988
   1.5988955 107.3235421  84.1828731   0.6635367 105.8688358  83.9840755
  -0.1609988 107.2484997  85.3929988  -0.5900741 106.5356686  86.0936493
   0.2148605 108.0757833  85.9925123  -1.2539988 107.7694997  84.4359988
  -1.5617775 106.8992598  83.8593316  -2.0990463 108.0178875  85.0722560
  -0.9809988 108.9214997  83.4469988  -1.9186295 109.4183182  83.2042993
  -0.3595079 109.6709816  83.9336812  -0.2879988 108.4924997  82.1159988
   0.2617148 109.3371531  81.7082115   0.4616239 107.7460173  82.3692630
  -1.2159988 107.9134997  81.0319988  -0.6414513 107.5623245  80.1801536
  -1.9218301 108.6514690  80.6660143  -1.7869469 107.0725043  81.4152560
  52.6490012   6.1964997  80.4649988  52.2017022   5.5155151  79.7476337
  52.5488762   7.2041958  80.0721713  52.0666520   6.1411776  81.3806521
  54.1280012   5.8434997  80.7259988  54.7247768   5.8970996  79.8170495
  54.2384338   4.8308281  81.1043041  54.6680012   6.8414997  81.7379988
  54.2024144   6.6813939  82.7103794  54.3936940   7.8500828  81.4352009
  56.2370012   6.7754997  81.8949988  56.5451157   7.6643710  82.4410969
  56.6793293   6.8622513  80.9037743  56.8190012   5.5274997  82.6099988
  57.8764173   5.7250727  82.7662327  56.7634302   4.7185216  81.8834788
  56.1830012   5.0494997  83.9689988  56.6968919   4.1323914  84.2512146
  55.1544574   4.7678873  83.7536637  56.2030012   6.0294997  85.1559988
  55.5198206   5.6402121  85.9086537  55.7710437   6.9671332  84.8088877
  57.5720012   6.3104997  85.8079988  58.2672414   6.4912483  84.9892058
  57.8857751   5.3776469  86.2727736  57.6880012   7.4524997  86.8339988
  56.9019959   8.1890397  86.6815343  58.6305589   7.9851585  86.7138473
  57.5960012   6.8934997  88.2809988  58.1083607   7.5625484  88.9688654
  58.1114963   5.9356529  88.3459856  56.1660012   6.7144997  88.7069988
  55.7681504   5.8850307  88.1262777  55.6185758   7.5987397  88.3851711
  55.8730012   6.4494997  90.1939988  56.5279808   7.0651936  90.8056700
  56.1248239   5.4159743  90.4243913  54.3880012   6.6974997  90.5829988
  53.7762227   6.1785590  89.8470098  54.1754548   7.7561572  90.4632399
  53.9340012   6.2524997  91.9699988  53.9330532   5.1703303  92.0490779
  52.9129797   6.5814610  92.1443308  54.8110012   6.8254997  93.0459988
  54.8535794   7.9042865  92.9657046  55.8166646   6.4306856  92.9633431
  54.0610012   6.7894997  94.3089988  53.1090012   6.0824997  94.5639988
  54.5210012   7.7474997  95.1189988  53.9290012   7.8394997  96.4459988
  53.7621670   6.8075001  96.7154522  52.9804547   8.3561150  96.4223320
  54.9160012   8.5184997  97.4699988  55.8033401   7.9191403  97.5895478
  54.1750012   8.6364997  98.8229988  53.7428504   7.6768017  99.0720501
  53.3743335   9.3527816  98.6871438  55.0540012   9.0664997  99.8499988
  54.8220012   8.6394997 101.3489988  55.6070012   7.2824997 101.2999988
  56.6480012   6.9664997 100.4169988  56.8685106   7.8195451  99.7886055
  56.2964799   6.1796209  99.7559000  57.9730012   6.3904997 101.0839988
  58.6511088   5.9683881 100.3530809  57.6591860   5.6076920 101.7593574
  58.8140012   7.3574997 101.9229988  59.2820012   8.4794997 101.1099988
  59.7526281   8.0874684 100.2188446  60.0056890   9.0323988 101.6902387
  58.4424609   9.1165933 100.8754761  57.9660012   7.7664997 103.1249988
  57.5718095   6.8738514 103.5859826  57.1779389   8.4185490 102.7930957
  58.6143489   8.2853120 103.8162122  60.0790012   6.5264997 102.3279988
  59.7676172   5.6471720 102.8719702  60.7161025   7.1327851 102.9542334
  60.6187104   6.2346469 101.4386333  55.4570012   9.6864997 102.2139988
  53.3360012   8.3754997 101.4809988  55.3460012   9.7714997  96.9309988
  56.5940012  10.1654997  97.2289988  57.4400012   9.5254997  97.8839988
  56.8420012  11.5214997  96.6069988  55.9741046  11.7308009  95.9901506
  56.8268376  12.2620149  97.4028092  58.1600012  11.5994997  95.7979988
  58.3531691  12.6332582  95.5332529  58.9926476  11.2886307  96.4209701
  58.1220012  10.7674997  94.5419988  57.8235878   9.7873641  94.9052310
  57.2592719  11.1724581  94.0187666  59.3050012  10.6254997  93.5209988
  59.4332100  11.5968758  93.0469767  60.2199343  10.4354538  94.0768602
  59.1660012   9.5734997  92.4279988  60.0317134   9.6187971  91.7704340
  59.1880620   8.5885536  92.8903575  57.8620012   9.6964997  91.5769988
  57.8683354   8.9183850  90.8152912  56.9946021   9.5058721  92.2027767
  57.6920012  11.0484997  90.9109988  57.3159437  11.8481696  91.5384449
  58.5858839  11.4355621  90.4236567  56.6750012  10.6674997  89.8349988
  55.7223326  10.3810712  90.2544453  56.7830012  10.6494997  88.5139988
  55.9538724  10.3615753  87.8837171  58.0310012  11.0204997  87.7559988
  58.7889704  11.1929289  88.5182138  58.3559860  10.1507212  87.1960422
  57.9980012  12.2324997  86.8339988  57.9466296  13.1153530  87.4701088
  58.9673172  12.2702626  86.3405828  56.9080012  12.2984997  85.7919988
  55.9797184  12.0559690  86.3092772  56.8264499  13.3402155  85.4942044
  57.0330012  11.4294997  84.5579988  57.1869346  10.3884804  84.8331868
  56.1222314  11.4552380  83.9622464  58.2070012  11.9244997  83.7069988
  58.3584274  12.9880183  83.8818936  59.1276043  11.4385301  84.0183642
  57.9820012  11.7144997  82.1589988  57.0953269  12.2720534  81.8626449
  58.8163550  12.1706303  81.6292512  57.8330012  10.2784997  81.6789988
  58.7977108   9.7824775  81.7511945  57.1866762   9.7741294  82.3939727
  57.2470012  10.0734997  80.2379988  57.1001480   9.0182896  80.0281541
  57.9060487  10.4685213  79.4722604  56.2856594  10.5684848  80.1333441
 116.7040012 114.8564997  83.3259988 117.4592155 114.2386427  82.8502540
 117.1673593 115.8033650  83.5877913 115.9320289 115.0608194  82.5891648
 116.1110012 114.1584997  84.5749988 116.9394625 113.9423090  85.2473948
 115.7258753 113.1970269  84.2462707 115.0430012 114.9154997  85.3299988
 114.3018770 115.3087385  84.6342782 115.4902765 115.7811334  85.8145541
 114.3490012 114.0864997  86.3789988 113.9166580 113.2326746  85.8619765
 113.5087432 114.6720083  86.7489342 115.1750012 113.5734997  87.5689988
 115.9520939 112.8804260  87.2569911 114.5496350 113.0326184  88.2773275
 115.8210012 114.7524997  88.2709988 115.0958103 115.5542953  88.3976438
 116.6211605 115.1602969  87.6569764 116.3880012 114.3574997  89.6469988
 117.1377896 113.5766213  89.5337897 115.6007691 113.9353565  90.2701286
 117.0520012 115.6334997  90.4109988 116.3017849 116.4167507  90.5117180
 117.8431515 116.0486010  89.7893429 117.5880012 115.3164997  91.7149988
 118.0790594 114.3475013  91.6563049 116.7555210 115.1935048  92.4066823
 118.5850012 116.3664997  92.2919988 118.1751863 117.3606989  92.1279299
 119.5131320 116.3211913  91.7228334 118.9130012 116.1554997  93.8599988
 119.4548240 117.0218620  94.2333421 119.5783078 115.3037435  93.9904073
 117.6030012 115.9484997  94.7669988 117.2861543 114.9088727  94.7986673
 116.7562166 116.5126784  94.3805686 117.9180012 116.4454997  96.1769988
 116.9966087 116.5503393  96.7473465 118.3782371 117.4294358  96.1589299
 118.8700012 115.4414997  96.9629988 119.9230179 115.5918790  96.7487866
 118.6468015 114.4036701  96.7302246 118.6240012 115.6684997  98.4469988
 117.5723720 115.5562168  98.6783203 118.9386445 116.6649442  98.7336462
 119.2900012 117.0884997  98.6409988 120.4560012 117.2004997  98.9099988
 118.3680012 118.0774997  98.6069988 118.8710012 119.4034997  99.0049988
 118.7869982 119.9570483  98.0819660 119.9090446 119.3680205  99.3023184
 118.0030012 120.0584997 100.1029988 118.2992933 121.0855592 100.2381049
 118.1800012 119.2574997 101.4739988 118.1318965 119.9370396 102.3140657
 119.1522987 118.7808520 101.4685625 117.1640012 118.2944997 101.5629988
 117.4760012 117.0324997 102.5219988 116.1410012 116.1464997 102.3559988
 114.9150012 116.6094997 102.7139988 115.0521408 117.2369391 103.5850335
 114.3561562 115.7393356 103.0461188 114.0070012 117.3004997 101.6689988
 114.4257425 118.2933738 101.5636159 112.9868818 117.3886417 102.0139110
 113.9190012 116.7024997 100.1789988 115.1660012 116.8884997  99.3869988
 115.4551439 117.9292518  99.4376493 114.9535865 116.6194974  98.3629784
 115.9319736 116.2376999  99.7812867 113.5720012 115.2454997 100.1719988
 112.7072313 115.0961190 100.8001489 114.4168006 114.6817141 100.5253114
 113.3409199 114.9733485  99.1522771 112.6890012 117.4254997  99.6079988
 111.8306332 117.2095704 100.2265947 112.5075109 117.0765841  98.6025291
 112.8710908 118.4904261  99.5935091 118.6540012 116.3134997 102.0849988
 117.5760012 117.5774997 103.9259988 116.6740012 120.1024997  99.5969988
 115.8810012 121.0364997 100.0429988 116.1990012 121.9064997 100.8759988
 114.4710012 120.8624997  99.4379988 114.3260556 119.7896674  99.3633353
 113.7601672 121.2073986 100.1847697 114.2450012 121.5684997  98.0909988
 113.2242596 121.9287746  98.0250467 114.8789339 122.4450584  98.0026417
 114.5200012 120.5944997  96.9049988 115.4859324 120.1215888  97.0630686
 113.7808743 119.7988218  96.9565078 114.4650012 121.2224997  95.5089988
 114.0759083 120.4628529  94.8335363 113.7313504 122.0249085  95.5189253
 115.7810012 121.7604997  94.9249988 115.5708063 122.2236482  93.9631191
 116.1321118 122.5592374  95.5754758 116.8620012 120.7734997  94.7659988
 116.9583980 120.2223229  95.7001362 116.5771252 120.0474779  94.0096549
 118.2310012 121.3724997  94.3839988 118.0333302 122.3494679  93.9585116
 118.7586815 121.5469803  95.3207249 119.1320012 120.5384997  93.4609988
 119.9834111 120.0054431  93.8566069 118.8990012 120.4254997  92.1539988
 119.5740361 119.8531001  91.5340822 117.7620012 121.0204997  91.4179988
 117.0703205 120.1825701  91.3496402 117.3209642 121.7218667  92.1174640
 117.8630012 121.6874997  90.0079988 116.9656102 122.2536722  89.7613349
 118.6890276 122.3948462  89.9655708 118.0800012 120.6044997  88.9679988
 119.0257730 120.1021264  89.1710844 117.3068595 119.8474264  89.0659583
 118.0910012 121.1364997  87.5409988 117.2156659 121.7589078  87.3691228
 118.9562663 121.7768444  87.3786414 118.1190012 120.0024997  86.5479988
 118.7978280 120.1477759  85.7097393 118.3514758 119.0207458  86.9514091
 116.6500012 120.0204997  85.9889988 115.9270957 120.2359850  86.7737642
 116.5215869 120.7984004  85.2385228 116.2950012 118.6754997  85.3579988
 117.1920351 118.3465757  84.8392945 116.1842296 118.0081371  86.2098613
 115.0350012 118.4974997  84.4019988 114.9031137 117.4550379  84.1282323
 115.1400444 119.0641187  83.4829505 114.1235428 118.8288061  84.8915095
  37.9670012  19.8894997  83.1009988  38.8128934  20.2854607  83.6542709
  38.3044347  19.0054014  82.5678019  37.2191439  19.5727140  83.8227801
  37.3870012  20.9474997  82.1239988  38.2181123  21.2435831  81.4861964
  37.1548561  21.8100466  82.7428166  36.1530012  20.5794997  81.2259988
  36.4396699  19.8725432  80.4475628  35.7918686  21.4664154  80.7091479
  34.9860012  19.9834997  82.0529988  35.3144808  19.0683990  82.5407917
  34.1632263  19.6980576  81.3993395  34.4730012  20.9484997  83.1199988
  34.2265349  21.9325982  82.7296432  35.1944981  21.1088375  83.9194354
  33.2250012  20.3234997  83.6939988  33.3556654  19.2677208  83.9243785
  32.3775379  20.3839125  83.0144892  32.8970012  21.0814997  84.9749988
  31.9299462  20.7210048  85.3208574  32.7520558  22.1254205  84.7003171
  33.9560012  20.9924997  86.1769988  34.4836071  21.9415071  86.2634154
  34.7110705  20.2455891  85.9389255  33.3040012  20.6434997  87.5409988
  32.6577277  19.7701745  87.4846538  32.6873360  21.4528594  87.9298920
  34.4850012  20.3564997  88.5509988  35.1590071  21.2094042  88.5906063
  35.0813550  19.5119304  88.2067693  33.9590012  20.0614997  89.9069988
  33.0384138  20.6106471  90.0927325  34.6564571  20.3691670  90.6841886
  33.6530012  18.4974997  90.0609988  34.0535507  17.9586839  89.2057464
  32.5764050  18.3384369  90.0433986  34.2000012  17.9264997  91.3319988
  35.2396413  18.2225132  91.4615225  34.1916414  16.8401521  91.3247159
  33.4180012  18.4204997  92.5389988  33.2839230  19.4970306  92.5178047
  33.9501659  18.1878840  93.4575752  32.0750012  17.7574997  92.5849988
  32.1835102  16.6804080  92.5731488  31.4772225  18.0561808  91.7320514
  31.2560012  17.7154997  93.9309988  30.1090012  18.0464997  94.1139988
  32.1590012  17.2404997  94.9169988  31.6760012  17.2094997  96.2459988
  32.0190511  16.2868351  96.6892468  30.5956888  17.2201555  96.2441011
  32.2730012  18.4904997  97.0699988  33.3295916  18.5823755  96.8800791
  32.0250012  18.3394997  98.5779988  32.2594490  17.3332927  98.8979717
  30.9771987  18.5304610  98.7735205  32.8220012  19.2644997  99.2529988
  32.1660012  20.4014997  99.9939988  33.4240012  21.2394997 100.4629988
  33.4880012  21.9544997 101.6979988  32.6089007  22.5724910 101.8262877
  34.3370382  22.6308584 101.6596323  33.7280012  21.0784997 102.9289988
  32.9687898  20.3068441 102.9488685  33.6830595  21.6338178 103.8547304
  35.0540012  20.3514997 102.9449988  35.3940012  19.8194997 104.3469988
  35.2947950  20.6291412 105.0569091  36.4162204  19.4717076 104.3325566
  34.7344786  18.9967861 104.5791398  34.9590012  19.2224997 101.9459988
  34.5877276  19.6199958 101.0138685  34.3068816  18.4619414 102.3367175
  35.9551597  18.8270214 101.8097556  36.2000012  21.2404997 102.4809988
  35.9938526  21.5937168 101.4815877  37.1153870  20.6680325 102.4809410
  36.2994425  22.0807861 103.1529104  31.3220012  21.1614997  99.0369988
  31.3780012  19.8144997 101.0879988  31.6220012  19.6654997  96.5919988
  32.2470012  20.4274997  95.8509988  33.4300012  20.3424997  95.5779988
  31.3030012  21.4884997  95.2889988  30.3065274  21.1462781  95.5487630
  31.4655547  22.3958064  95.8654342  31.4450012  21.7594997  93.7709988
  31.7210278  22.8043310  93.6804569  32.3071240  21.1912673  93.4365003
  30.2720012  21.4814997  92.8749988  30.1411208  20.4050533  92.7989225
  29.3821088  21.8607384  93.3713198  30.3570012  22.1354997  91.3979988
  30.3901795  23.2199057  91.4855696  31.2749825  21.8430656  90.8940200
  29.1260012  21.7474997  90.4829988  28.2505546  22.2734612  90.8583104
  29.3217183  22.1535380  89.4924390  28.7960012  20.2244997  90.3429988
  28.7637889  19.7687238  91.3313974  27.8095838  20.0860405  89.9092617
  29.8170012  19.4864997  89.4799988  29.8300270  19.9205571  88.4870212
  30.8100747  19.6465784  89.8977615  29.5590012  18.0414997  89.4229988
  29.8296089  17.4387965  90.2768573  28.9850012  17.3994997  88.3669988
  28.8297845  16.3312175  88.3191352  28.4890012  18.1664997  87.1159988
  27.6236281  17.6343708  86.7246047  28.1395784  19.1565796  87.3867872
  29.5310012  18.2824997  85.9919988  30.2420553  19.0489247  86.2981026
  30.0808140  17.3432749  85.9873456  29.0500012  18.5734997  84.6169988
  29.9227289  18.7228415  83.9812706  28.5446511  17.6901743  84.2363919
  28.0890012  19.8284997  84.4879988  27.2309539  19.5633018  85.1016518
  28.6084719  20.6242975  85.0189800  27.5990012  20.3734997  83.0759988
  27.2189180  19.5363304  82.4935261  26.7542028  21.0409538  83.2224427
  28.6780012  21.0694997  82.2489988  28.1986816  21.7132678  81.5136768
  29.2480326  21.7286534  82.9012369  29.6930012  20.1074997  81.4929988
  30.2679851  19.5473666  82.2261832  29.0975068  19.3707288  80.9583324
  30.6080012  20.7524997  80.5439988  31.1991590  20.0115330  80.0143104
  31.2991069  21.4252567  81.0404984  30.0603002  21.3292392  79.8040419
  65.0110012 136.8754997  85.4979988  64.1170241 136.6014219  84.9465322
  64.6980175 137.3917433  86.4009516  65.5076962 135.9573698  85.7995672
  65.9520012 137.7634997  84.6409988  65.4006164 138.6506101  84.3340576
  66.1889997 137.2210042  83.7297664  67.2310012 138.1884997  85.3439988
  67.9116016 138.7019281  84.6649528  67.7742288 137.3225167  85.7170247
  66.9070012 139.1144997  86.5369988  66.3167451 138.5863907  87.2826184
  66.3073331 139.9692260  86.2278920  68.1420012 139.5904997  87.1679988
  68.8851680 139.7770319  86.3969723  68.5388928 138.7876062  87.7870335
  67.9810012 140.8684997  88.0299988  67.4453042 141.6400757  87.4799840
  68.9518571 141.2913208  88.2794740  67.2240012 140.5494997  89.3189988
  67.7829263 139.8247782  89.9081944  66.2704654 140.0791147  89.0829108
  66.9730012 141.8074997  90.1669988  66.4926846 142.5447388  89.5249509
  67.9430459 142.2228473  90.4338012  66.1420012 141.6234997  91.4289988
  66.3944397 142.4318568  92.1119149  66.4716678 140.7042938  91.9116555
  64.6120012 141.5764997  91.2359988  64.3634904 140.9152712  90.4087634
  64.2380871 142.5625433  90.9615261  63.9010012 141.1044997  92.5209988
  64.2163030 140.0842973  92.7291165  62.8294583 141.0575722  92.3346612
  64.1710012 141.9894997  93.8219988  64.2049233 143.0289541  93.5048193
  65.1728022 141.7451857  94.1703884  63.2310012 141.8324997  94.9449988
  62.2149121 142.1120289  94.6717252  63.4853032 142.4260978  95.8186381
  63.2250012 140.3094997  95.3429988  64.2169408 139.9417800  95.5842105
  62.8509992 139.6944879  94.5287660  62.2710012 140.1134997  96.6069988
  61.2828803 140.5045398  96.4002482  62.6759616 140.6299294  97.4691915
  62.2370012 138.6834997  97.0859988  61.3900012 138.1334997  97.8099988
  63.3240012 138.0344997  96.6319988  63.4840012 136.6074997  96.9159988
  63.5905798 136.1373635  95.9500407  62.6487971 136.1610021  97.4358700
  64.8430012 136.4504997  97.7659988  64.8242315 135.4050101  98.0257933
  65.0630012 137.2814997  99.0029988  65.9362290 136.9593589  99.5539066
  64.1987220 137.2130433  99.6517825  65.2310012 138.6164997  98.5399988
  65.2060012 139.8284997  99.5799988  65.6680012 139.2274997 101.0139988
  65.5860012 140.0064997 102.1529988  64.8717307 140.8157905 102.0751843
  66.5457063 140.4631909 102.3770437  65.2610012 139.0714997 103.4129988
  64.5673321 139.5811321 104.0697689  66.1868840 138.9079382 103.9453197
  64.6710012 137.7004997 103.1759988  63.3130012 137.8574997 102.5549988
  62.7367998 138.5484035 103.1549804  62.8335179 136.8899291 102.5532809
  63.4300097 138.2058323 101.5397695  65.4580012 136.6684997 102.3949988
  66.4530793 136.6111385 102.8088143  65.4790274 136.9537466 101.3583879
  64.9527611 135.7206664 102.5117959  64.5480012 137.1114997 104.5589988
  65.5225989 137.0879179 105.0234179  64.1586289 136.1073369 104.4835247
  63.8754641 137.7162871 105.1500665  66.1860012 140.8714997  99.1379988
  63.8750012 140.4464997  99.6569988  65.9220012 136.6844997  96.8539988
  67.0930012 136.1054997  97.0429988  67.3630012 135.4664997  97.9979988
  68.0240012 136.4294997  95.8579988  68.3595149 137.4567219  95.9569838
  68.9214357 135.8176768  95.9048073  67.2290012 136.1864997  94.4819988
  66.6122061 135.2978453  94.5589290  66.5487124 137.0072413  94.2779808
  68.2080012 136.0184997  93.3129988  68.8263209 136.9084350  93.2272677
  68.8848877 135.2004634  93.5468926  67.5050012 135.7114997  91.9299988
  68.2370280 135.2502411  91.2696328  66.7162636 134.9763352  92.0700996
  66.9220012 136.9304997  91.2229988  66.2108515 137.3909636  91.9057433
  67.7374313 137.6422611  91.1096392  66.2510012 136.7244997  89.8459988
  65.9086680 137.6929654  89.4846360  66.9914783 136.3751002  89.1319038
  65.0720012 135.7394997  89.8529988  64.6446274 135.6768871  88.8590112
  65.4444072 134.7437690  90.0900225  63.9920012 136.1304997  90.9049988
  64.1736196 136.0267044  91.9641471  62.8080012 136.6214997  90.5369988
  62.1150552 136.8157206  91.3430472  62.2560012 136.9674997  89.1329988
  62.6877598 136.2473626  88.4400283  61.1841852 136.8050051  89.1109293
  62.5630012 138.3534997  88.6249988  62.2018425 139.0869361  89.3449574
  63.6436392 138.4758504  88.5836384  61.9380012 138.6714997  87.1739988
  62.2783709 137.9035035  86.4794216  60.8573656 138.5732971  87.2295600
  62.3000012 140.0644997  86.6099988  61.5758876 140.8032776  86.9461709
  63.2667821 140.3919464  86.9884143  62.3430012 140.0314997  85.0359988
  63.1567399 139.3784365  84.7262766  61.4330775 139.5688198  84.6637202
  62.5540012 141.4134997  84.3559988  61.7133296 142.0707671  84.5708331
  63.4333984 141.9029845  84.7706058  62.7280012 141.3154997  82.7819988
  61.8762752 140.7850402  82.3635604  62.6658183 142.3292097  82.3923346
  64.0160012 140.6784997  82.2829988  64.0808398 140.7370820  81.2006712
  64.0826644 139.6308521  82.5563695  64.8858838 141.1827897  82.6942611
  92.9320012 130.0414997  82.5049988  92.2878760 129.2328256  82.1739730
  92.7823100 130.8809030  81.8321061  92.5970696 130.3477204  83.4922483
  94.3640012 129.6184997  82.5309988  94.6443115 129.2885601  81.5321149
  94.4481023 128.7472762  83.1749790  95.3650012 130.7434997  83.0059988
  95.2309631 131.6606534  82.4325951  96.3946574 130.4326890  82.8405423
  95.1860012 131.0434997  84.4729988  96.1559059 131.0403201  84.9654667
  94.6022649 130.2587950  84.9517436  94.5080012 132.4124997  84.7239988
  93.5946769 132.4514802  84.1358726  95.1656336 133.1794740  84.3182464
  94.1800012 132.7464997  86.1599988  95.1183595 132.9226473  86.6827536
  93.7396353 131.8619517  86.6152237  93.2530012 133.9364997  86.3749988
  92.2420408 133.6405872  86.1008365  93.5377978 134.7258699  85.6807254
  93.2470012 134.4814997  87.7649988  92.8645415 135.5013846  87.7682019
  94.2621461 134.5363967  88.1537803  92.3420012 133.5664997  88.7579988
  92.8138959 132.5965951  88.8999195  91.3737069 133.3688082  88.2998490
  92.1280012 134.2364997  90.1309988  91.4173685 135.0554359  90.0435707
  93.0581451 134.6764928  90.4897009  91.6290012 133.2194997  91.1509988
  92.0694799 132.2566891  90.9009680  90.5543561 133.1028343  91.0219439
  91.9300012 133.5194997  92.6149988  91.6449111 134.5356889  92.8763456
  92.9977191 133.4431656  92.8120305  91.1730012 132.4894997  93.5369988
  91.2412784 131.5095727  93.0676019  90.1164835 132.7411769  93.5635149
  91.6900012 132.3634997  94.9649988  92.7125206 132.0014271  94.9915026
  91.0895721 131.6512749  95.5247423  91.6170012 133.7434997  95.6809988
  90.6106272 134.1401932  95.6375625  92.2898017 134.4496464  95.2090187
  91.1650012 133.5924997  97.1939988  90.0820012 133.8304997  97.6649988
  92.2180012 133.0454997  97.8769988  92.1540012 132.9734997  99.3169988
  91.4595739 133.7332297  99.6426414  93.1275285 133.1816072  99.7366745
  91.6590012 131.5844997  99.7399988  90.8177534 131.3037836  99.1281207
  91.2560012 131.5634997 101.2239988  90.8824049 130.5946885 101.5267062
  90.4885701 132.3046509 101.4092806  92.3930012 131.8734997 101.9129988
  93.2740012 130.8444997 102.7279988  94.6060012 131.0144997 101.9279988
  95.3130012 132.2734997 101.8329988  95.9459402 132.4705515 102.6884213
  94.6087613 133.0983689 101.7743984  96.1170012 132.3364997 100.5259988
  96.7394514 133.2207449 100.4720077  95.3797620 132.3820992  99.7374710
  97.0260012 131.1694997 100.1799988  97.8220012 130.8584997 101.4549988
  98.2660355 131.7755904 101.8170928  98.5995916 130.1543217 101.1989001
  97.1585882 130.4168428 102.1833801  96.2710012 129.9554997  99.6949988
  95.5857748 130.2647882  98.9207123  95.7517655 129.5103375 100.5248150
  96.9965249 129.2631543  99.2930409  97.9970012 131.7024997  99.1439988
  97.4429397 132.0686030  98.2924905  98.6554754 130.9058013  98.8320158
  98.5790774 132.5046740  99.5742761  93.5220012 131.3694997 104.1399988
  92.7980012 129.4334997 102.6389988  92.7070012 130.6574997  99.5219988
  92.2160012 129.3774997  99.3999988  91.1140012 129.0034997  99.5139988
  93.4070012 128.4334997  99.0579988  94.1709702 128.5592988  99.8183138
  93.0932008 127.3945092  99.1207292  93.9280012 128.7654997  97.6669988
  93.0947851 129.0069670  97.0162258  94.5494385 129.6546941  97.7013761
  94.7250012 127.5914997  97.0539988  95.6939405 127.5299939  97.5429033
  94.2029718 126.6697041  97.2986275  94.9050012 127.6604997  95.5509988
  95.4903404 126.7846705  95.2771244  93.9265081 127.5264355  95.0962679
  95.5740012 128.9024997  94.9339988  95.4637431 128.8975458  93.8515388
  95.0714760 129.8015470  95.2855145  97.0520012 128.9994997  95.2909988
  97.1311335 129.3262759  96.3266900  97.4988129 128.0102004  95.2466788
  97.8750012 129.9574997  94.3859988  98.8072847 130.0737652  94.9262855
  98.1004013 129.3457755  93.5134540  97.3260012 131.3474997  93.8969988
  97.3999551 132.1705327  94.5917660  96.7830012 131.6104997  92.6849988
  96.3817208 132.5898117  92.4669804  96.6760012 130.6404997  91.5499988
  97.4491702 130.8703501  90.8188357  96.8547281 129.6200948  91.8701731
  95.3330012 130.7224997  90.8599988  94.5069225 130.7090083  91.5700107
  95.2330581 131.6479462  90.2960670  95.2040012 129.5344997  89.9039988
  96.2010418 129.3451695  89.5062915  94.9474654 128.6671619  90.5060109
  94.2050012 129.6614997  88.7329988  94.4575118 130.5620224  88.1776230
  94.3681632 128.8281559  88.0518223  92.7370012 129.6964997  89.1409988
  92.4656592 128.7822502  89.6655094  92.5391449 130.5075123  89.8365104
  91.8070012 129.8264997  87.8869988  90.7943839 130.1008349  88.1772219
  92.1558189 130.6170000  87.2249796  91.7500012 128.5604997  87.1179988
  92.7652902 128.3690109  86.7797161  91.5404862 127.8023255  87.8693897
  90.7620012 128.3714997  85.9269988  90.8050704 127.3548147  85.5480980
  90.9908873 129.0362185  85.1008625  89.7384346 128.5670224  86.2339571
  33.9300012 134.9984997  80.2119988  32.9146797 134.9528052  79.8306021
  34.3133415 133.9831696  80.2561006  34.5299629 135.5453891  79.4898008
  33.9780012 135.6724997  81.5949988  33.3502397 135.1189676  82.2912177
  33.5491555 136.6683424  81.5228693  35.3860012 135.7504997  82.1479988
  35.9888242 136.3937020  81.5070431  35.8360062 134.7613681  82.0906822
  35.4850012 136.2554997  83.6249988  34.6421667 135.8998896  84.2135746
  35.4561540 137.3424565  83.6832961  36.7840012 135.7454997  84.2689988
  37.6050903 135.8628141  83.5664157  36.6850363 134.6760491  84.4474545
  37.1590012 136.4614997  85.6129988  37.3058058 137.5265455  85.4428729
  38.1054297 136.0805501  85.9907917  36.0840012 136.2654997  86.6669988
  35.6251141 135.2960092  86.4818478  35.3105129 137.0090003  86.4795082
  36.5310012 136.3494997  88.1749988  35.9045907 137.1164578  88.6286905
  37.5428420 136.7504422  88.1646470  36.4970012 135.1094997  89.0309988
  36.5606221 135.4060855  90.0757620  37.3907584 134.5209429  88.8275880
  35.2640012 134.2374997  88.8279988  35.4253210 133.6636595  87.9180634
  34.4250933 134.9025891  88.6247289  34.8780012 133.2574997  90.0319988
  35.7723032 132.7259804  90.3502001  34.1862483 132.4973279  89.6731884
  34.2700012 133.9584997  91.2569988  33.7240865 133.1992465  91.8117336
  33.5229142 134.6515539  90.8746285  35.2110012 134.7214997  92.1939988
  35.3943798 135.7127232  91.7827808  36.1785098 134.2301229  92.2464386
  34.6630012 134.8924997  93.6059988  34.5286607 133.9059935  94.0373956
  33.6735053 135.3319405  93.5117554  35.5170012 135.7824997  94.5979988
  35.6921764 136.7625052  94.1726239  36.4734335 135.3138924  94.7972808
  34.9770012 137.2714997  94.7229988  34.2280012 137.8044997  93.8949988
  35.5450012 137.9174997  95.7399988  35.0690012 139.2264997  96.1099988
  34.9739655 139.6282737  95.1124980  35.7887866 139.8146974  96.6605660
  33.6960012 139.2254997  96.8199988  33.3777268 140.2503687  96.9161175
  33.8610012 138.6154997  98.1749988  32.8762103 138.3797048  98.5549840
  34.2986964 139.3845974  98.7990953  34.6620012 137.4844997  98.1689988
  34.5190012 136.5004997  99.3389988  34.2900012 137.4554997 100.5389988
  35.3690012 138.1464997 101.1289988  35.7127936 138.9927030 100.5485372
  36.2253094 137.4899205 101.2532444  34.9680012 138.5884997 102.5959988
  34.0724809 139.1864111 102.4828864  35.7572688 139.2153881 102.9851574
  34.6630012 137.6004997 103.6699988  35.5060012 136.3554997 103.6749988
  35.4924381 135.9253984 102.6829489  35.0707921 135.6612398 104.3783453
  36.5066303 136.6110246 103.9899041  34.7320012 138.4824997 104.9689988
  34.1273270 139.3634994 104.8175964  35.7577821 138.7385655 105.1654006
  34.3316331 137.8932041 105.7812384  33.1470012 137.2144997 103.4289988
  32.5403509 138.1063062 103.4813294  32.8328394 136.5177729 104.1915761
  33.0416769 136.7567926 102.4559386  33.3340012 135.6374997  99.1379988
  35.8600012 135.8674997  99.5269988  32.7560012 138.6564997  95.9409988
  31.5630012 139.0564997  96.2389988  31.1940012 139.8814997  97.0759988
  30.5910012 138.2294997  95.4219988  30.7524942 137.1957692  95.7098778
  29.5817527 138.4737153  95.7439975  30.7570012 138.4404997  93.8809988
  31.7840091 138.2669162  93.5790311  30.1550110 137.7353591  93.3167136
  30.3610012 139.8754997  93.5119988  29.7550947 139.8714483  92.6094939
  29.7288219 140.2778618  94.2997291  31.5740012 140.8094997  93.3299988
  31.2177778 141.8333157  93.2319593  32.2055486 140.7908738  94.2148733
  32.4570012 140.4674997  92.0659988  33.2898547 141.1639830  91.9941179
  32.8976044 139.4807702  92.1948967  31.6560012 140.4834997  90.7359988
  31.0115715 139.6058472  90.7477273  30.9976191 141.3475236  90.7537111
  32.4660012 140.5054997  89.4179988  31.7657167 140.1929332  88.6521764
  32.6708239 141.5594260  89.2346061  33.7600012 139.7384997  89.3169988
  33.7483031 138.7768371  89.8075313  34.9080012 140.0974997  88.6869988
  35.7422439 139.4111378  88.6634100  35.1740012 141.4444997  87.9559988
  34.2711487 142.0441464  87.8535186  35.9176692 142.0905440  88.4090612
  35.6310012 141.0444997  86.5819988  35.9970688 141.9258178  86.0566628
  36.4835266 140.3755042  86.6825196  34.5120012 140.3354997  85.7099988
  34.9145087 139.9578776  84.7700540  34.0758617 139.4803499  86.2189244
  33.4040012 141.3774997  85.4089988  33.3171225 142.0319331  86.2734720
  33.7363512 142.0054577  84.5841975  32.0420012 140.7804997  85.0689988
  32.1763589 140.1162481  84.2173487  31.7334814 140.1454192  85.8949003
  30.9450012 141.7524997  84.7289988  30.8737133 142.4954126  85.5213885
  31.2263131 142.2968804  83.8293615  29.5750012 141.1454997  84.5139988
  29.6426138 140.4627384  83.6706835  29.3871904 140.5219076  85.3853041
  28.4240012 142.0514997  84.3219988  27.4962741 141.4898632  84.2676307
  28.5094740 142.6273144  83.4066448  28.3378467 142.7535090  85.1465601
  54.5730012 138.1644997  80.7299988  54.9585409 139.0326665  80.2045708
  53.9821444 137.5862641  80.0254975  55.4214981 137.5539364  81.0264400
  53.7370012 138.5764997  81.9489988  52.9080231 139.2052574  81.6285895
  54.3439481 139.1864807  82.6125894  53.1760012 137.3414997  82.7189988
  54.0038970 136.6482637  82.8671251  52.4819663 136.8422343  82.0457821
  52.4790012 137.5744997  84.0389988  51.6560513 138.2716101  83.8974344
  53.1569635 138.0482883  84.7472341  51.9200012 136.2664997  84.6589988
  52.7370110 135.6514876  85.0275472  51.4269025 135.6854707  83.8814230
  50.9190012 136.5224997  85.8199988  50.1774680 135.7262226  85.8498054
  50.3692613 137.4433687  85.6373424  51.6510012 136.6174997  87.2419988
  52.4479190 137.3570073  87.1888915  52.1328926 135.6663309  87.4640092
  50.7010012 136.9804997  88.3839988  50.1670173 137.8922297  88.1193091
  51.2891177 137.2186277  89.2683618  49.6660012 135.8604997  88.7389988
  50.2486150 134.9467017  88.8342631  49.0527806 135.7379055  87.8470861
  48.7430012 136.0134997  89.9779988  47.9369162 135.2874584  89.8980605
  48.2731538 136.9961284  89.9446334  49.4530012 135.8504997  91.2909988
  50.0751763 136.7207697  91.4886579  50.1278445 134.9967423  91.2624885
  48.4410012 135.6764997  92.4969988  47.6547963 134.9673167  92.2496925
  47.9423330 136.6186801  92.7167626  49.1970012 135.2124997  93.7599988
  49.6274502 134.2325175  93.5609996  48.4969801 135.0765608  94.5796116
  50.3180012 136.1334997  94.2129988  49.9329563 137.1161011  94.4651492
  51.0270644 136.2723966  93.4011928  51.0710012 135.5564997  95.4289988
  51.4360441 134.5608489  95.2111359  50.4149404 135.5057039  96.2898548
  52.1150012 136.5604997  95.9289988  52.3710012 137.6274997  95.3509988
  52.6270012 136.1344997  97.0739988  53.7120012 136.9054997  97.6509988
  54.3570662 137.1408856  96.8179642  54.2298976 136.2334615  98.3198336
  53.2870012 138.2084997  98.3889988  54.1485895 138.6145188  98.8926932
  52.1800012 137.9344997  99.3969988  52.0928053 138.7534042 100.0981359
  52.4244928 137.0331133  99.9450057  50.9660012 137.7634997  98.6789988
  49.6600012 137.5774997  99.4499988  49.7800012 138.7334997 100.5319988
  48.6150012 138.9724997 101.2649988  48.1789318 138.0688505 101.6705240
  47.8572939 139.4218585 100.6295829  48.8760012 140.0054997 102.3739988
  47.9352876 140.2869164 102.8301914  49.3400535 140.8896424 101.9612953
  49.7850012 139.5524997 103.5329988  48.9820012 138.6694997 104.4859988
  48.0692402 139.1862551 104.7489918  49.5772264 138.5086805 105.3725337
  48.7851642 137.7231346 104.0049943  51.0010012 138.6654997 103.0649988
  51.4981185 139.1681969 102.2495947  50.6362387 137.6987629 102.7671088
  51.6728000 138.5688885 103.9056233  50.2330012 140.7604997 104.2159988
  50.7532470 141.3941593 103.5132174  50.9002839 140.4869316 105.0194564
  49.3785494 141.2850243 104.6187656  48.6320012 137.7904997  98.4269988
  49.6760012 136.3004997 100.1539988  52.7900012 139.1744997  97.4309988
  52.2270012 140.2984997  97.7459988  52.0340012 140.6964997  98.9009988
  52.2520012 141.0634997  96.4379988  53.2736534 141.4060388  96.3097539
  52.0720465 140.3563126  95.6321391  51.2210012 142.2534997  96.3889988
  51.5025701 142.9203897  97.1964872  51.4224849 142.7937960  95.4694787
  49.7270012 141.9444997  96.4929988  49.4513612 141.7275853  97.5218937
  49.1541858 142.8223543  96.2043488  49.3320012 140.7994997  95.6009988
  49.6664048 141.0506643  94.5961124  49.8972814 139.9195962  95.8983708
  47.7980012 140.4224997  95.5349988  47.4102083 140.2130811  96.5298161
  47.2262131 141.2686946  95.1589755  47.5420012 139.2124997  94.6229988
  48.2281912 139.2580903  93.7787443  47.7705291 138.2929290  95.1544899
  46.0580012 139.1304997  94.0859988  45.9454134 138.1832848  93.5715203
  45.4023404 139.0875430  94.9546815  45.6270012 140.2714997  93.2169988
  44.8078301 140.8765029  93.5754452  46.1830012 140.6234997  92.0219988
  45.8015895 141.4592539  91.4530963  47.3210012 139.9414997  91.3939988
  48.2003858 140.4875544  91.7312344  47.3952493 138.9498456  91.8261913
  47.3780012 139.8374997  89.8799988  48.1952032 139.1780830  89.5900756
  46.4651751 139.3636923  89.5240293  47.5530012 141.2594997  89.1529988
  46.6652443 141.8639239  89.3391872  48.3848527 141.7955015  89.6015844
  47.7780012 141.1424997  87.6309988  46.9928294 140.4981880  87.2417523
  47.6077549 142.1260475  87.1965625  49.1240012 140.6334997  87.1929988
  49.2968254 139.6774649  87.6836303  49.0826643 140.4177532  86.1288701
  50.3550012 141.5694997  87.5069988  50.2157632 142.0880763  88.4538747
  51.2657654 140.9832713  87.6150671  50.5780012 142.6184997  86.4029988
  49.6434616 143.0932990  86.1146995  51.2072898 143.4158732  86.7922342
  51.2320012 142.0384997  85.1969988  51.4575413 142.8134358  84.4705866
  50.6001189 141.3063688  84.7056229  52.1653347 141.5472192  85.4571392
   7.0040012 125.6864997  84.2209988   6.2811102 124.9982256  83.7942243
   6.6655872 126.6964326  84.0081572   6.9886806 125.5550296  85.2994666
   8.3770012 125.4464997  83.6679988   8.3399310 125.5554699  82.5854304
   8.6472931 124.4119404  83.8615016   9.4610012 126.3964997  84.2389988
   9.6647491 126.1494722  85.2808208   9.0828478 127.4168772  84.2398705
  10.7910012 126.3644997  83.4349988  10.6817967 126.9508748  82.5253348
  11.0172249 125.3489733  83.1136966  11.9990012 126.9304997  84.2529988
  11.7691308 127.9156763  84.6506917  12.8623761 127.0576405  83.6020119
  12.3810012 125.9824997  85.4369988  11.9387187 124.9993996  85.2862755
  11.9677192 126.3623004  86.3689464  13.9130012 125.8364997  85.5809988
  14.3894173 126.8116587  85.6638384  14.3419552 125.3622341  84.6993522
  14.2500012 125.0064997  86.8119988  15.3311478 124.8755747  86.7912239
  13.8212021 124.0226236  86.6308818  13.8250012 125.4954997  88.2069988
  12.7471904 125.3964902  88.3168266  14.0437823 126.5580662  88.3053053
  14.5180012 124.7344997  89.3279988  15.5991641 124.8021132  89.2289323
  14.2736356 123.6733002  89.2883748  14.0670012 125.3174997  90.7189988
  14.0624444 124.5260600  91.4654192  13.0446003 125.6874473  90.6645634
  15.0130012 126.4744997  91.2269988  14.9639597 127.3037457  90.5254541
  16.0405027 126.1162747  91.2028025  14.7030012 126.9564997  92.6239988
  15.1951625 127.9121922  92.7962804  15.0975144 126.2722925  93.3699839
  13.1730012 127.1514997  92.8699988  12.6852285 126.1980913  93.0444561
  12.7131456 127.5826912  91.9847312  12.9040012 128.0844997  94.0659988
  13.4096787 129.0318700  93.9288102  13.2571746 127.6316666  94.9848457
  11.4150012 127.9344997  94.5569988  10.5300012 127.8344997  93.7549988
  11.2880012 127.8574997  95.8499988   9.9970012 127.9314997  96.4419988
   9.3168405 128.3150647  95.6965316  10.1421065 128.6808313  97.2066153
   9.4250012 126.5774997  97.0689988   8.4360377 126.6762982  97.4850325
  10.4830012 126.2954997  98.2399988  10.4089715 127.0290309  99.0313600
  11.4886124 126.3180767  97.8389733  10.1780012 125.0084997  98.7299988
  11.1020012 123.9354997  99.2959988  11.6770012 124.6254997 100.5579988
  10.8100012 125.0444997 101.6179988   9.9344221 125.5108043 101.1854363
  11.3338206 125.8220435 102.1664837  10.4100012 123.9904997 102.6869988
   9.8707780 123.2122304 102.1618470   9.7270856 124.4968490 103.3537923
  11.3990012 123.2784997 103.5709988  10.5860012 122.2224997 104.3379988
   9.7313275 122.7064125 104.7904314  11.2197456 121.8089274 105.1083402
  10.2912979 121.4415964 103.6531214  12.4840012 122.6454997 102.7559988
  12.8756437 123.3843901 102.0738177  12.0795424 121.7995099 102.2296107
  13.2569344 122.3257366 103.4398283  12.0410012 124.2524997 104.5779988
  12.5316226 125.0491613 104.0388301  12.7658539 123.7192008 105.1745144
  11.2757020 124.6628499 105.2209333  10.3070012 122.7584997  99.6899988
  12.2770012 123.6694997  98.3579988   9.4670012 125.4474997  96.1739988
   8.4020012 125.3374997  95.3189988   7.5330012 126.1964997  95.2299988
   8.4880012 123.9674997  94.5749988   7.5565409 123.8513360  94.0305351
   9.2675815 124.0330045  93.8201010   8.7500012 122.7644997  95.5579988
   9.7136448 122.8631798  96.0455582   8.0133205 122.7266142  96.3541767
   8.7220012 121.4194997  94.7389988   7.7088407 121.0957716  94.5145882
   9.2218598 121.5372950  93.7807031   9.4680012 120.3164997  95.5579988
   9.0850340 120.3145609  96.5768404   9.2563389 119.3303594  95.1518850
  11.0610012 120.5224997  95.6169988  11.2359216 121.4693614  96.1237104
  11.4391833 119.7486206  96.2821833  11.8850012 120.4854997  94.2869988
  12.4547228 119.5580075  94.3166040  11.1710892 120.3809668  93.4747669
  12.8480012 121.6734997  93.9569988  13.7056932 121.5321889  94.6042820
  13.1943732 121.4809629  92.9424536  12.3550012 123.0444997  94.0289988
  12.6345359 123.6856348  94.8514099  11.5530012 123.5734997  93.0829988
  11.1564321 124.5776106  93.1288711  11.1410012 122.8134997  91.8729988
  12.0325118 122.3341982  91.4721248  10.4615152 122.0129532  92.1433783
  10.4870012 123.6954997  90.7179988   9.7757689 124.3877655  91.1670219
  11.2700638 124.3091049  90.2766819   9.7810012 122.8814997  89.5949988
  10.1477881 121.8551974  89.6116703   8.7149371 122.8262956  89.7973942
  10.0080012 123.4814997  88.1849988   9.2531553 124.2197776  87.9236593
  10.9696846 123.9825378  88.0890263   9.9500012 122.2804997  87.1829988
  10.6733519 121.5345099  87.5068089   8.9765080 121.8047428  87.2641860
  10.2490012 122.6224997  85.7099988   9.6342732 123.4566613  85.3765819
  11.2824520 122.9445264  85.5954909  10.0040012 121.4314997  84.7739988
  10.6893551 120.6285194  85.0336671   9.0081101 121.0534166  84.9943786
  10.1040012 121.7294997  83.2129988   9.8300562 120.8521715  82.6347960
  11.1087004 122.0126281  82.9177721   9.4359729 122.5366525  82.9259733
  86.2800012 131.4304997  84.9649988  86.1625879 130.4387267  84.5395233
  86.4420015 132.1253059  84.1459809  85.3415429 131.6983577  85.4426598
  87.4490012 131.4734997  85.9739988  88.3667448 131.1737072  85.4709340
  87.2709578 130.7341674  86.7502090  87.6520012 132.8924997  86.6159988
  86.8466394 133.0779745  87.3265763  87.5409745 133.6401405  85.8331339
  89.0020012 133.1134997  87.3119988  89.7926203 133.0584588  86.5669203
  89.1893931 132.2999110  88.0110437  89.1130012 134.4194997  88.0309988
  89.9737791 134.3400598  88.6900311  88.2382999 134.4781611  88.6766160
  89.2270012 135.6994997  87.2259988  88.2949732 135.9416462  86.7185483
  89.9850194 135.6225314  86.4494286  89.5890012 136.8214997  88.1639988
  89.8679496 137.6980890  87.5821492  90.4737642 136.5401444  88.7334402
  88.4430012 137.2014997  89.1489988  88.2207189 136.3357926  89.7715683
  87.5415882 137.4006516  88.5723903  88.7370012 138.3774997  90.0259988
  88.9761058 139.2053437  89.3618871  89.6563413 138.1420810  90.5607592
  87.6630012 138.8264997  91.0349988  86.6822703 138.6928716  90.5837676
  87.7721024 139.8953014  91.2171764  87.7310012 138.0894997  92.3509988
  88.7595557 137.7665212  92.4969488  87.1378787 137.1805184  92.2668156
  87.3130012 138.8254997  93.5259988  88.0299951 139.6220693  93.7093442
  87.3735913 138.1585982  94.3840438  85.8650012 139.4114997  93.4499988
  85.7292372 140.0093705  92.5503485  85.6281802 140.0627591  94.2866892
  84.8290012 138.2334997  93.4089988  85.1297108 137.4498024  92.7214398
  83.8563356 138.5868690  93.0771195  84.6790012 137.6404997  94.8149988
  84.4113294 138.4124411  95.5252799  85.6083088 137.1827489  95.1326788
  83.8400012 136.4044997  94.8519988  83.3640012 135.8684997  93.8659988
  83.7820012 136.0044997  96.1179988  83.0180012 134.8134997  96.3939988
  82.5842564 134.5036091  95.4552255  82.2255096 135.0777701  97.0790610
  83.9220012 133.6544997  96.9909988  83.3599057 132.7639067  97.2185659
  84.4850012 134.2584997  98.2809988  83.8094258 134.1811419  99.1220782
  84.7536700 135.2988215  98.1463421  85.6740012 133.4534997  98.5079988
  86.7530012 134.0774997  99.4399988  85.8820012 134.9504997 100.4439988
  86.4240012 136.1374997 101.0719988  85.6729421 136.8444479 101.3996014
  87.0769001 136.6753688 100.3906642  87.3290012 135.7074997 102.2449988
  87.6953123 136.6776627 102.5562041  88.1703072 135.0964723 101.9513548
  86.7620012 135.0624997 103.4909988  86.4490012 133.5594997 103.3829988
  85.8430749 133.3954399 102.5025036  85.8958853 133.2701778 104.2641660
  87.3775909 133.0102239 103.3413542  87.7840012 135.0824997 104.6019988
  88.1723109 136.0853684 104.6924638  88.5638113 134.3778982 104.3743961
  87.2769258 134.7977931 105.5125556  85.6070012 135.7144997 104.1139988
  85.8703400 136.7279347 104.3779764  85.3290522 135.1693568 105.0035007
  84.7786332 135.7204676 103.4203087  87.4420012 133.0384997 100.2109988
  87.6200012 134.9814997  98.6699988  84.9560012 133.2984997  96.1079988
  84.7430012 132.3104997  95.2759988  83.7160012 131.6784997  95.1609988
  85.9420012 132.0554997  94.4329988  86.6065727 132.8897612  94.6327618
  86.4345982 131.1778198  94.8440136  85.6670012 131.8824997  92.9139988
  86.5859500 131.7461046  92.3545433  85.0538531 131.0126938  92.7006440
  84.9830012 133.1124997  92.4339988  84.1183026 133.2698709  93.0736742
  85.6624703 133.9372448  92.6344533  84.5630012 133.1714997  90.9559988
  85.4080850 133.4293858  90.3203620  84.1843241 132.2212555  90.5874318
  83.4890012 134.2304997  90.7759988  82.5623988 133.9233072  91.2565628
  83.7944179 135.1518728  91.2681097  83.2100012 134.5414997  89.2449988
  83.3505415 133.5786793  88.7561978  82.1467309 134.7587601  89.1942807
  83.9620012 135.6114997  88.4719988  84.8815233 135.1484055  88.1334683
  83.3689363 135.8044800  87.5790382  84.2400012 136.9424997  89.1709988
  84.7840054 136.9705621  90.1031070  83.8370012 138.1284997  88.6559988
  84.1328114 139.0100508  89.2064294  83.0250012 138.4224997  87.4039988
  82.7488437 137.4738240  86.9468636  82.0951084 138.9252554  87.6452812
  83.7920012 139.2434997  86.3729988  83.1664738 139.3088558  85.4835331
  83.8615010 140.2545342  86.7697834  85.2210012 138.7494997  85.9709988
  85.7017320 139.4466262  85.2846902  85.8780206 138.6699508  86.8326840
  85.0950012 137.3474997  85.2789988  84.9378916 136.5474363  85.9989711
  84.2604852 137.2975507  84.5817375  86.4110012 137.1144997  84.5129988
  86.6650962 138.0174397  83.9609798  87.2234610 136.9588686  85.2174936
  86.3510012 135.9284997  83.4939988  87.3499792 135.5518768  83.2816756
  85.7958510 135.0915589  83.9137279  85.6930012 136.3334997  82.1729988
  84.6420436 136.5920992  82.2756125  86.1742925 137.2129374  81.7507893
  85.8360012 135.1874997  81.1989988  85.4598743 135.4653604  80.2190033
  85.2856818 134.3100973  81.5215740  86.8773486 134.9001117  81.0843487
 136.4630012  49.8224997  82.5829988 135.8325580  50.7001014  82.4791451
 137.2378217  49.8794829  81.8239230 136.9487087  49.8775250  83.5533968
 135.6580012  48.5484997  82.4489988 135.1643780  48.5842530  81.4793283
 134.8693822  48.5984077  83.1949233 136.4450012  47.1854997  82.5809988
 137.0586433  47.0535505  81.6899535 135.7160127  46.3776949  82.5669165
 137.3380012  47.0234997  83.8489988 137.8873932  47.9567727  83.9510766
 138.0795740  46.2611684  83.6152749 136.6640012  46.6874997  85.2199988
 136.2065228  45.7033611  85.1586979 135.8505918  47.3930332  85.3810970
 137.6330012  46.7224997  86.4569988 138.6122781  46.3606608  86.1489301
 137.2729014  46.0230714  87.2084675 137.7830012  48.1194997  87.0929988
 137.9659970  48.8392605  86.2972433 138.6780254  48.1179863  87.7136108
 136.5660012  48.5934997  87.9459988 135.6847743  48.0331258  87.6363677
 136.3607049  49.6364325  87.7118436 136.7530012  48.4444997  89.4489988
 135.9019008  48.8537669  89.9890632 137.6250064  49.0012831  89.7898447
 136.9240012  46.9554997  89.8169988 137.7840399  46.5016681  89.3294854
 136.0610541  46.3513834  89.5380814 137.1030012  46.9094997  91.3689988
 137.8216285  47.6826190  91.6324420 137.5732850  45.9608711  91.6221092
 135.8580012  47.0984997  92.2279988 135.3366663  46.1459510  92.2834965
 135.1914627  47.7795978  91.7021644 136.1090012  47.6534997  93.6539988
 135.1585867  47.8885562  94.1301423 136.6720619  48.5821164  93.6238726
 136.8400012  46.6604997  94.5349988 137.8796035  46.5905832  94.2322058
 136.4033858  45.6758629  94.3902596 136.7700012  47.0184997  96.0619988
 135.7405185  47.1263336  96.3791396 137.2928214  47.9474814  96.2562174
 137.5530012  45.9464997  96.8359988 138.1240012  45.0124997  96.3379988
 137.6960012  46.2374997  98.1439988 138.7880012  45.6354997  98.8919988
 138.8592838  44.6340690  98.4951142 138.5279850  45.5826659  99.9392772
 140.1530012  46.4044997  98.6859988 141.0018574  45.8744778  99.0852654
 140.1070012  47.8394997  99.2679988 141.0276493  48.3700564  99.0662126
 139.9666853  47.7835414 100.3402698 138.9920012  48.5114997  98.6499988
 138.4240012  49.8374997  99.2879988 137.6850012  49.1704997 100.6319988
 137.8510012  49.8004997 101.8729988 136.8993824  50.0267993 102.3360314
 138.3561496  50.7508941 101.7268056 138.7160012  49.0404997 102.7879988
 139.0837212  49.6918009 103.5708382 139.5582667  48.6616758 102.2272331
 138.0690012  47.7504997 103.5509988 137.2930012  46.9064997 102.5769988
 136.6055722  47.5444382 102.0386588 136.7400318  46.1701344 103.1409944
 137.9856177  46.4100957 101.9139886 139.2000012  46.9624997 104.1749988
 139.8216445  47.6420856 104.7375256 139.7573382  46.4722037 103.3969530
 138.7579138  46.2310938 104.8359838 137.1340012  48.2794997 104.5699988
 137.6736156  48.9254595 105.2464855 136.7060551  47.4552822 105.1206145
 136.3464963  48.8359953 104.0825733 139.5730012  50.6474997  99.7349988
 137.5300012  50.4724997  98.3419988 140.2830012  46.3444997  97.2549988
 141.3310012  46.9624997  96.7969988 142.3650012  47.3084997  97.3589988
 141.0650012  47.1374997  95.3339988 140.0977843  47.6171847  95.2246972
 141.7888569  47.8268092  94.9064567 141.1140012  45.7724997  94.6249988
 142.0877769  45.3288097  94.8009559 140.3925803  45.1057149  95.0864996
 140.8640012  45.8464997  93.1259988 140.8146703  44.8401402  92.7180023
 139.8835692  46.2876379  92.9640878 141.9210012  46.6864997  92.3489988
 142.1909941  47.5411557  92.9665527 142.8299307  46.1032133  92.2231971
 141.4600012  47.2184997  90.9419988 140.8460132  48.1040151  91.0929365
 142.3477688  47.5528098  90.4086261 140.7110012  46.2294997  90.0659988
 139.7682657  46.0327055  90.5741552 140.4600888  46.7452631  89.1433130
 141.3790012  44.9104997  89.7189988 142.4260031  45.0696513  89.4886995
 141.3523280  44.2500976  90.5847375 140.6670012  44.2334997  88.5739988
 139.8413470  43.5973409  88.8553369 140.9300012  44.3414997  87.2879988
 140.3705504  43.7549561  86.5734419 141.9860012  45.2504997  86.6579988
 141.8218594  46.2650907  87.0170024 142.9860091  44.9748607  86.9737332
 141.9220012  45.2674997  85.1239988 142.6619434  44.6047832  84.6767882
 140.9529947  44.9267112  84.7643479 142.1720012  46.7594997  84.6219988
 141.6418447  46.9025417  83.6804149 141.7254820  47.4520693  85.3301456
 143.6590012  47.1134997  84.4259988 144.2411836  46.9242500  85.3251056
 144.1224954  46.5272775  83.6344170 143.7320012  48.6554997  84.0469988
 142.8971243  48.9369264  83.4079607 143.6595724  49.2896708  84.9263201
 145.0050012  48.9514997  83.3019988 145.8476721  48.7062584  83.9459284
 145.0691462  48.2761808  82.4507268 145.1850012  50.4304997  82.7819988
 145.0472024  51.1153563  83.6150041 146.2256709  50.5341610  82.4827100
 144.3070012  50.8544997  81.6339988 144.5689937  51.8528115  81.2966526
 143.2579814  50.8694776  81.9098141 144.4164036  50.1804931  80.7890802
  82.5800012   6.5884997  80.6979988  82.7150712   6.7132570  79.6281293
  82.5406737   7.5778585  81.1445549  81.6136600   6.1176316  80.8563658
  83.7500012   5.7184997  81.3299988  84.6770382   6.2305620  81.0778134
  83.7561214   4.7848243  80.7740969  83.7240012   5.4284997  82.8709988
  83.7344998   6.3767563  83.4082400  84.6494637   4.9215295  83.1368396
  82.5960012   4.6164997  83.3439988  82.6263122   3.6539516  82.8381999
  81.6612425   5.0863758  83.0420904  82.5770012   4.3764997  84.8439988
  82.6901671   5.3022500  85.4023471  83.4030582   3.7347236  85.1458566
  81.2600012   3.7194997  85.2389988  81.1015511   2.8409746  84.6161791
  80.4422874   4.4016640  85.0163488  81.1910012   3.3124997  86.7159988
  81.4204146   4.1964126  87.3083140  82.0001827   2.6063792  86.8972417
  79.8630012   2.7014997  87.2069988  79.6122764   1.7985508  86.6517768
  79.0311910   3.3883121  87.0618621  79.9880012   2.3484997  88.7549988
  79.0171441   2.0817730  89.1671084  80.3299782   3.2147457  89.3200178
  80.9580012   1.1974997  88.9659988  81.9464254   1.5328630  88.6596528
  80.6840368   0.3924740  88.2845987  81.0090012   0.6594997  90.3729988
  81.2365254   1.4936744  91.0332458  81.8550230  -0.0218802  90.4443893
  79.7150012  -0.0605003  90.9109988  79.4357324  -0.8594434  90.2284170
  78.8881189   0.6472430  90.9050622  79.8760012  -0.6105003  92.3259988
  80.9187782  -0.8720251  92.4976750  79.3071476  -1.5268937  92.4560099
  79.4380012   0.4414997  93.4539988  78.3883756   0.7055242  93.3770420
  80.0025251   1.3651013  93.3572273  79.7150012  -0.1675003  94.8769988
  80.7509256  -0.4694632  94.9648625  79.0850349  -1.0326624  95.0464276
  79.3990012   0.9524997  95.8649988  78.4470012   1.6884997  95.8009988
  80.2810012   0.9314997  96.8189988  80.3050012   1.9724997  97.8609988
  80.4885056   1.5046223  98.8164457  79.3490793   2.4749629  97.8915951
  81.4800012   2.9984997  97.5119988  82.4422154   2.5184930  97.4439442
  81.4530012   3.9784997  98.7609988  82.4044143   4.4896058  98.8191760
  81.3372346   3.3595486  99.6419543  80.3940012   4.9124997  98.6719988
  79.9450012   5.5944997 100.0089988  79.1810012   4.3914997 100.6839988
  78.6250012   4.6594997 101.9819988  77.8090702   5.3703100 101.9680620
  79.3790528   5.0691827 102.6478538  78.1770012   3.2894997 102.6519988
  77.3819219   2.8733376 102.0462701  77.7841935   3.5160469 103.6326901
  79.1660012   2.1744997 102.8509988  78.4460012   1.0064997 103.6249988
  77.9703971   1.4172134 104.5050266  79.1973664   0.2888434 103.9191413
  77.7335758   0.5353106 102.9645838  79.6140012   1.6404997 101.5619988
  79.9194017   2.4654390 100.9367631  78.8101990   1.0840848 101.1140315
  80.4554403   0.9912135 101.7561756  80.3850012   2.5754997 103.6789988
  80.8867455   3.4009883 103.1963984  81.0580542   1.7342829 103.7497377
  80.0677129   2.8685928 104.6693823  81.0880012   6.0274997 100.7599988
  78.9250012   6.6044997  99.7029988  81.2580012   3.7234997  96.2969988
  82.0140012   3.4954997  95.2899988  82.8040012   2.5904997  95.1129988
  81.7710012   4.5714997  94.2319988  82.2862848   5.4709681  94.5529229
  82.2418049   4.2763684  93.2975747  80.2350012   4.8134997  94.0379988
  79.7049412   3.9336188  94.3857159  79.9216411   5.6274496  94.6840049
  79.8130012   5.1154997  92.5579988  80.1439027   6.1202011  92.3075327
  80.3770710   4.4420493  91.9174093  78.3110012   4.9574997  92.2369988
  77.9757974   3.9674535  92.5405658  77.7104692   5.6676478  92.8002510
  78.0110012   5.1314997  90.7399988  78.3650594   6.1046449  90.4060346
  78.5810661   4.3930966  90.1794919  76.5040012   4.9774997  90.3769988
  75.9657439   5.7413888  90.9359742  76.3855170   5.2260423  89.3260439
  75.8490012   3.5944997  90.6369988  76.4744919   2.7745855  90.3037089
  75.6719316   3.4329419  91.6994918  74.5230012   3.5914997  89.9219988
  73.6846823   3.6351937  90.6008701  74.2570012   3.5574997  88.6639988
  73.2127587   3.5602006  88.3862211  75.2130012   3.5174997  87.4819988
  76.2081504   3.4567710  87.9192755  75.0564087   2.5840413  86.9530231
  75.1990012   4.6774997  86.4819988  74.2143661   4.7531907  86.0221404
  75.3552971   5.6109543  87.0193004  76.2910012   4.5374997  85.3619988
  76.5608152   5.5211906  84.9777338  77.2031476   4.1097704  85.7688654
  75.7580012   3.6104997  84.1349988  75.4342872   2.6560435  84.5441048
  74.8717862   4.0730699  83.7040268  76.7540012   3.3904997  83.0749988
  77.2181884   4.3293362  82.7788464  77.5656557   2.7513962  83.4117312
  76.0890012   2.7844997  81.8389988  76.8188346   2.2209916  81.2604793
  75.3264752   2.0691119  82.1416676  75.4470012   3.8164997  80.9309988
  74.5119953   3.4408565  80.5228673  75.1809420   4.6851724  81.5292739
  76.3220012   4.2504997  79.8309988  75.8574658   5.0497563  79.2613807
  76.5369334   3.4418355  79.1406312  77.2701060   4.6219271  80.2095220
 136.6710012  34.5824997  83.5479988 137.5903782  35.1213867  83.3411761
 136.4153363  34.0107229  82.6605886 136.8751551  33.8753266  84.3472730
 135.5700012  35.5144997  83.9249988 135.5233713  36.2032504  83.0831846
 135.9968798  36.0734566  84.7533439 134.1260012  35.0434997  84.2829988
 133.7229112  34.4678605  83.4498799 133.4918639  35.9229126  84.3761317
 134.0100012  34.2384997  85.5419988 134.4413964  34.8132185  86.3586054
 134.6188963  33.3403623  85.4508839 132.5810012  33.8454997  85.9219988
 132.0486318  33.4989972  85.0399036 132.0523076  34.7315468  86.2695165
 132.5080012  32.6924997  87.0689988 133.1251180  32.9854689  87.9164377
 132.9380840  31.7703638  86.6839387 131.0650012  32.4174997  87.5579988
 131.0316851  31.6569884  88.3359979 130.4193510  32.0612599  86.7564633
 130.5170012  33.7044997  88.0999988 130.6212613  34.5008130  87.3641551
 131.0840882  34.0215178  88.9732661 128.9950012  33.5554997  88.4939988
 128.9001231  32.7797660  89.2508187 128.4376416  33.2033544  87.6268650
 128.3750012  34.8184997  88.9989988 127.3207070  34.6117823  89.1693831
 128.4162327  35.5482026  88.1907522 128.9960012  35.4224997  90.2499988
 128.2875318  36.1675581  90.6056672 129.8762084  35.9738872  89.9239082
 129.3830012  34.4954997  91.4529988 129.9014586  33.6213790  91.0665612
 128.4659059  34.1277980  91.9095092 130.2230012  35.1704997  92.5259988
 129.9025554  36.1996630  92.6789346 131.2762377  35.2156331  92.2634539
 130.0740012  34.4404997  93.8299988 130.5182701  33.4541887  93.7453776
 129.0140946  34.2928042  94.0194089 130.7020012  35.1854997  95.0599988
 130.2970410  36.1859764  95.1442283 131.7778571  35.2538806  94.9507873
 132.2720012  35.0004997  94.9469988 132.9080012  35.0614997  93.9409988
 132.8300012  34.9154997  96.2059988 134.2450012  34.7444997  96.3049988
 134.5640791  34.9048222  95.2862015 134.4630953  33.7246613  96.5870568
 134.9090012  35.6844997  97.1949988 135.9674379  35.6395024  96.9985784
 134.6260012  35.3124997  98.7089988 135.3992094  35.6882713  99.3653110
 134.5703900  34.2366526  98.8187511 133.3560012  35.9164997  99.0279988
 133.2150012  36.7194997 100.3859988 133.1010012  35.5494997 101.4809988
 132.7500012  34.2204997 101.1589988 133.6077644  33.6279705 100.8685847
 132.0710098  34.2156437 100.3112110 131.9570012  33.5304997 102.3259988
 132.4780189  33.7167040 103.2566531 131.9556520  32.4669698 102.1355272
 130.5270012  33.9054997 102.5769988 129.7560012  33.9824997 101.2599988
 130.3052920  34.6134293 100.5747678 128.7906973  34.4213619 101.4641762
 129.6251856  32.9836490 100.8715381 129.9640012  32.9384997 103.5509988
 130.6378489  32.8663804 104.3909047 129.8357974  31.9869067 103.0668453
 129.0084258  33.3251433 103.8745406 130.5480012  35.3044997 103.2239988
 131.1286934  35.2669035 104.1336498 129.5364490  35.6048461 103.4524813
 130.9888196  36.0128081 102.5374034 134.4540012  37.4674997 100.6779988
 131.9600012  37.5114997 100.5119988 134.4850012  36.9674997  96.8879988
 135.1140012  38.0384997  97.4439988 136.2530012  37.9744997  97.9079988
 134.2260012  39.2824997  97.3939988 133.3700669  39.0357746  98.0137215
 134.7601018  40.0675686  97.9234422 133.8060012  39.7474997  95.9949988
 133.3438776  38.9433694  95.4329692 133.0734876  40.5475704  96.0316565
 135.0290012  40.2114997  95.2699988 135.5552735  40.8997280  95.9265300
 135.6731257  39.3421705  95.1630625 134.8300012  40.8604997  93.8619988
 134.2588648  41.7847538  93.9272947 135.7659132  41.1156310  93.3708993
 134.0610012  39.8824997  92.9789988 134.1002135  38.8701002  93.3757490
 133.0071541  40.1509613  92.9375779 134.6350012  39.8924997  91.5299988
 134.4056035  40.8698591  91.1082804 135.7176824  39.8349927  91.5993686
 134.1300012  38.7634997  90.5399988 134.6978141  38.8521356  89.6211342
 134.4028339  37.8042196  90.9778231 132.6580012  38.7634997  90.2669988
 132.0634913  38.3706694  91.0780452 131.9740012  39.2064997  89.1339988
 130.8945576  39.1694754  89.1017376 132.5980012  39.7564997  87.9039988
 131.8764902  40.4394547  87.4587848 133.4636270  40.3559356  88.1629379
 132.9880012  38.7364997  86.8619988 133.6841762  38.0345618  87.3195231
 132.0965058  38.1626826  86.6161754 133.6090012  39.3044997  85.5509988
 134.5094539  39.8535730  85.8263357 133.9386038  38.4649526  84.9451713
 132.6870012  40.2254997  84.7019988 132.4745188  41.1009567  85.3115653
 133.2745315  40.5788582  83.8564038 131.3580012  39.6064997  84.1799988
 130.8445821  39.1404904  85.0189423 130.7053707  40.4057596  83.8395844
 131.5120012  38.5694997  83.0969988 131.7156106  39.0614710  82.1475829
 132.3825126  37.9515113  83.3094470 130.3470012  37.6904997  82.9269988
 129.4413503  38.2894714  82.8727369 130.4400898  37.2062910  81.9573651
 130.1870012  36.6504997  83.9629988 129.3597795  35.9898768  83.7214399
 129.9868158  37.0783291  84.9395379 131.0828545  36.0417639  84.0468354
 130.5520012 100.6194997  81.2299988 130.0580129 100.7550583  80.2729050
 129.9506776 101.1155654  81.9863841 130.5513468  99.5563951  81.4545433
 131.9520012 101.1654997  81.2039988 131.8448048 102.2084175  80.9106826
 132.4298797 100.6610823  80.3685293 132.8600012 101.0794997  82.4749988
 132.3581161 101.5239794  83.3343463 133.7659790 101.6622460  82.3207850
 133.2630012  99.6294997  82.8149988 133.6328825  99.1138223  81.9315314
 132.4137089  99.0478493  83.1700923 134.3480012  99.6244997  83.8669988
 135.2525594 100.0184253  83.4107423 134.5540738  98.5818628  84.1032349
 134.0700012 100.3964997  85.1729988 133.2040905  99.9677671  85.6742015
 133.8080611 101.4266420  84.9411124 135.2810012 100.3824997  86.1409988
 136.1242393 100.9104937  85.6994767 135.6172738  99.3606649  86.3113057
 134.9190012 101.0434997  87.5149988 133.9967507 100.5970662  87.8845962
 134.7017240 102.0971738  87.3499365 136.0220012 100.9124997  88.5999988
 136.8979010 101.4409419  88.2297431 136.2999542  99.8603386  88.6477081
 135.6910012 101.4044997  89.9909988 135.3007952 102.4076349  89.8336518
 136.6589100 101.5261795  90.4765659 134.7510012 100.6124997  90.9249988
 135.2079971  99.6933656  91.2853988 133.8193769 100.3185968  90.4445559
 134.4280012 101.5304997  92.1719988 133.5783727 101.0918346  92.6896120
 134.0865852 102.4889637  91.7854087 135.5330012 101.7714997  93.1219988
 136.3085280 102.3311938  92.6018520 135.9806617 100.8231584  93.4057644
 135.1720012 102.5224997  94.3489988 135.2158303 101.8375627  95.1894066
 134.1333937 102.8245027  94.2432600 136.0400012 103.8074997  94.6779988
 136.0379274 104.4912814  93.8386662 137.0636752 103.5261272  94.8947707
 135.5410012 104.5154997  95.8829988 136.0830012 105.5464997  96.2609988
 134.5640012 103.9874997  96.4909988 134.2020012 104.4014997  97.8239988
 134.1622570 105.4799408  97.8531027 134.9422599 104.0561572  98.5310684
 132.7930012 103.7974997  98.1469988 132.3840804 104.3282666  98.9907785
 132.7470012 102.2724997  98.4119988 133.4130014 101.9812584  99.2128878
 133.0249815 101.7320453  97.5157728 131.4160012 101.9964997  98.7559988
 131.0460012 101.9084997 100.3499988 131.8820012 100.6654997 100.8239988
 131.7080012 100.1414997 102.1579988 131.4427793  99.0923114 102.1509049
 130.8911312 100.6623735 102.6491311 132.9610012 100.3984997 103.0609988
 132.8621355  99.8897830 104.0116206 133.0068753 101.4630461 103.2399215
 134.3210012 100.0084997 102.5249988 135.3090012  99.9544997 103.5869988
 135.2676781 100.8802215 104.1443725 136.2822350  99.8473673 103.1315445
 135.1051343  99.0981479 104.2121523 134.1620012  98.6204997 101.8089988
 133.3259987  98.6793900 101.1290386 134.0118168  97.8575002 102.5517278
 135.0737357  98.4337778 101.2602073 134.8470012 101.0364997 101.5749988
 134.1502419 101.1558752 100.7586912 135.8015942 100.7092838 101.1911604
 134.9689345 101.9770538 102.0926137 131.5000012 103.0974997 101.0779988
 129.6180012 101.5454997 100.4569988 131.9990012 104.0764997  96.9809988
 130.8700012 104.6914997  97.0579988 130.4310012 105.1524997  98.1079988
 130.2370012 104.7694997  95.6939988 129.3071663 105.3169794  95.8090039
 130.8648318 105.3813528  95.0510591 130.0140012 103.3864997  95.0889988
 130.9794830 102.8946502  95.0443905 129.4151916 102.8094889  95.7865077
 129.3660012 103.3534997  93.6909988 128.8277388 102.4292545  93.4968378
 128.6438602 104.1566988  93.5667070 130.4910012 103.5384997  92.6519988
 131.0327141 104.4289381  92.9656428 131.1782180 102.7051421  92.7762970
 130.1430012 103.6834997  91.1359988 129.3701715 104.4376910  91.0024672
 131.0184531 104.0492446  90.6028989 129.6900012 102.3734997  90.4909988
 130.1947602 101.5485679  90.9914056 128.6265153 102.2305132  90.6609125
 129.9760012 102.2894997  88.8999988 131.0499578 102.3203707  88.7577171
 129.6506286 101.3049201  88.5667095 129.2850012 103.3364997  88.0589988
 128.2258094 103.1555035  87.9545616 129.7780012 104.4204997  87.4589988
 129.0904815 105.1104847  86.9911875 131.2720012 104.8384997  87.3449988
 131.2672640 105.8164026  86.8665593 131.6634067 104.9914985  88.3445357
 132.2160012 103.9304997  86.5649988 132.5370347 103.1396588  87.2419133
 131.6186580 103.4464058  85.7947434 133.4440012 104.5784997  85.9169988
 134.0080320 105.1079171  86.6849137 134.1022424 103.8015080  85.5381763
 133.1130012 105.5084997  84.8339988 132.4261554 106.2502450  85.2354982
 134.0181430 106.0482288  84.5610600 132.5240012 104.8764997  83.6049988
 133.1594083 104.0812207  83.2197987 131.5570734 104.4183989  83.7942592
 132.3910012 105.9674997  82.4919988 132.0120528 105.4327093  81.6229300
 131.5783446 106.6077794  82.8303258 133.5920012 106.8834997  82.0329988
 133.2716542 107.6263949  81.3067760 133.9616307 107.4455216  82.8878779
 134.7530012 106.0574997  81.4439988 135.6023801 106.6944339  81.2160969
 134.4680998 105.5548215  80.5259101 135.0875116 105.2985354  82.1455805
   5.5980012  49.1734997  81.5049988   5.3991806  48.1952828  81.0783946
   6.3444406  49.6602675  80.8839712   4.6831817  49.7558085  81.4369275
   6.0930012  49.0564997  83.0189988   6.9938723  48.4463819  83.0562896
   5.3409593  48.5259235  83.5966976   6.3680012  50.3564997  83.6259988
   5.6844830  51.0782608  83.1790169   7.3662465  50.6495238  83.3069156
   6.2920012  50.4704997  85.1839988   6.7311936  49.5840952  85.6363782
   5.2544054  50.4944529  85.5134334   7.0370012  51.7304997  85.7289988
   6.5159087  52.6475003  85.4660436   8.0314636  51.8083413  85.2927074
   7.1630012  51.6464997  87.2989988   7.4996743  50.6628027  87.6211919
   6.2055698  51.8152897  87.7872734   8.1640012  52.7034997  87.7719988
   7.7793062  53.7142021  87.6484656   9.0967228  52.6623101  87.2111390
   8.4580012  52.4474997  89.2739988   8.5556988  51.3776492  89.4537937
   7.6164674  52.7815749  89.8780672   9.7080012  53.1444997  89.7369988
   9.5896905  54.2211343  89.6350117  10.5441828  52.8689184  89.0955689
  10.0620012  52.7994997  91.2249988  10.4866212  51.7980031  91.2237516
   9.1217516  52.7316956  91.7715903  10.9960012  53.7614997  91.9519988
  10.8167993  54.7837646  91.6258053  12.0383956  53.5489227  91.7210163
  10.7860012  53.6944997  93.5059988  11.6460977  54.0741422  94.0521897
  10.6384527  52.6707512  93.8448772   9.5280012  54.5164997  93.8579988
   8.8513407  54.5415808  93.0055003   9.7769998  55.5505697  94.0792967
   8.7660012  53.9184997  95.0499988   9.4428321  53.7459645  95.8803460
   8.3648777  52.9495912  94.7646771   7.5850012  54.8244997  95.5289988
   6.9133982  55.0376279  94.7070700   7.9629340  55.7612403  95.9211119
   6.6310012  54.2114997  96.5929988   5.6830012  53.4944997  96.2989988
   7.0650012  54.4454997  97.8249988   6.3740012  53.7754997  98.9019988
   5.5338775  53.2789459  98.4403836   6.0090591  54.4723400  99.6425546
   7.3370012  52.7244997  99.5479988   6.7546194  52.2314255 100.3086586
   8.5400012  53.3724997 100.1669988   8.1727939  54.1698605 100.7988022
   9.0807143  53.8089644  99.3365093   9.3710012  52.5174997 100.8929988
   9.1440012  52.0784997 102.4249988   9.4890012  50.5474997 102.4219988
  10.6400012  50.1284997 101.6889988  11.3264714  49.5358085 102.2794772
  11.1997255  50.9914465 101.3399595  10.2190012  49.3794997 100.4159988
  11.1655198  49.1237215  99.9567287   9.6654378  50.0149972  99.7399163
   9.4050012  48.0274997 100.5049988  10.0920012  47.2084997 101.5539988
  11.1482604  47.1705274 101.3255069   9.6772318  46.2119434 101.5233082
   9.9044896  47.6494949 102.5215109   7.9980012  48.3134997 100.9339988
   7.6026032  49.1001811 100.3098940   7.9980042  48.5969556 101.9713139
   7.4270333  47.4070102 100.7941074   9.2970012  47.3504997  99.1849988
   8.8164709  48.0152724  98.4826813   8.7080816  46.4522249  99.2942059
  10.2845093  47.0940567  98.8293307  10.1140012  52.7304997 103.3279988
   7.7340012  52.2004997 102.8309988   7.7500012  51.7904997  98.6319988
   6.9110012  50.8444997  98.1659988   5.8430012  50.5794997  98.6899988
   7.4720012  50.1404997  96.9319988   8.5243266  50.4024053  96.8923801
   7.4387770  49.0695096  97.1158015   6.7440012  50.4994997  95.6359988
   5.6947934  50.2745092  95.7928535   6.8053597  51.5765193  95.5164296
   7.2130012  49.8154997  94.3729988   7.0480730  48.7477539  94.4928808
   6.5480756  50.1372497  93.5752419   8.6440012  50.0754997  93.9439988
   8.7453550  51.0986137  93.5866879   9.3381886  49.9734881  94.7746007
   9.0820012  49.1114997  92.8009988  10.1318697  49.2648331  92.5598225
   8.9972169  48.0821229  93.1438924   8.2160012  49.2804997  91.4959988
   7.2161607  48.8984419  91.6961286   8.1011136  50.3372041  91.2712889
   8.7870012  48.5794997  90.2669988   9.6846195  49.1098277  89.9710030
   9.1066360  47.5864538  90.5801113   7.8590012  48.4394997  89.1389988
   7.0426410  49.1400015  89.2306897   7.8590012  47.6164997  88.0329988
   7.0185480  47.7688303  87.3711499   8.8130012  46.5504997  87.5759988
   9.6225494  46.4801687  88.3005029   8.3399825  45.5750823  87.5537427
   9.4450012  46.8624997  86.1539988   9.8999972  45.9572893  85.7536516
   8.6449709  47.1294953  85.4661587  10.4580012  47.9604997  86.1789988
   9.9577360  48.8714256  86.5077171  11.1974387  47.7284365  86.9404991
  11.1820012  48.2324997  84.8129988  11.8280451  47.3952315  84.5585300
  10.4580409  48.3149604  84.0041930  11.9800012  49.4854997  84.8859988
  11.2834469  50.2728188  85.1680106  12.6582743  49.3739347  85.7274997
  12.7400012  49.9524997  83.6679988  13.3692851  49.1357875  83.3189055
  12.0246808  50.1445051  82.8703242  13.6330012  51.2254997  83.8509988
  14.5638504  50.9155648  84.3193737  13.9000126  51.5484072  82.8471319
  13.0460012  52.4314997  84.6209988  13.7313093  53.2734803  84.5988534
  12.8561630  52.1942385  85.6623487  12.1078435  52.7569162  84.1804250
 142.0340012  76.8034997  83.5779988 141.4800212  76.7716192  82.6449827
 142.5703841  75.8642087  83.6770738 142.7721631  77.5967073  83.4970627
 141.1120012  77.0354997  84.7579988 140.3817588  76.2296274  84.7078081
 140.5764119  77.9484175  84.5119518 141.6860012  77.1224997  86.2189988
 142.3729942  77.9654696  86.2922876 142.2793687  76.2322840  86.4180012
 140.5820012  77.2504997  87.3429988 141.1075017  77.3570574  88.2894367
 140.0555593  76.2987870  87.3959878 139.5480012  78.4044997  87.2159988
 138.7817630  78.2335981  87.9678264 139.0622980  78.2761572  86.2500869
 140.0560012  79.8554997  87.3409988 139.1877715  80.4745165  87.5596591
 140.4015744  80.1541678  86.3536014 141.1930012  80.1534997  88.4049988
 142.1200819  79.6254645  88.1894294 140.9082184  79.8676536  89.4166414
 141.4510012  81.6764997  88.3589988 140.5779522  82.1741341  88.7792325
 141.4971664  81.9752804  87.3133971 142.7030012  82.1664997  89.0769988
 142.8355453  83.2328709  88.9072182 143.5848721  81.6809778  88.6608867
 142.6390012  81.8874997  90.6329988 142.5216950  80.8255403  90.8374019
 141.7831188  82.3828080  91.0907804 143.8960012  82.3944997  91.2649988
 144.1725496  83.3619976  90.8514656 144.7373902  81.7314116  91.0713322
 143.7140012  82.5504997  92.7749988 142.8777878  83.2214212  92.9561909
 144.5955125  83.0488451  93.1740721 143.5040012  81.2014997  93.5539988
 144.0050268  80.3948209  93.0215567 142.4517314  80.9338978  93.5913034
 144.0730012  81.2434997  95.0139988 145.1118591  81.5558327  94.9901834
 144.0571530  80.2344127  95.4172161 143.2950012  82.1574997  95.9599988
 142.2473842  81.8848423  95.9740610 143.3813595  83.1900681  95.6431176
 141.7650012  81.9164997  95.9379988 141.0320012  82.0544997  94.9679988
 141.3840012  81.4154997  97.0729988 140.0590012  80.7614997  97.1659988
 139.5310137  80.9243843  96.2385507 139.4968193  81.2049253  97.9750211
 140.2760012  79.2114997  97.4089988 139.3473274  78.6652298  97.4020485
 141.0140012  78.9864997  98.7669988 140.7131132  78.0163852  99.1386779
 140.6302751  79.7480173  99.4344044 142.4830012  79.0724997  98.6799988
 143.4050012  79.7194997  99.7449988 142.6080012  79.6504997 101.0789988
 142.0040012  80.8214997 101.6259988 141.2735735  81.2442073 100.9485161
 142.7669230  81.5812111 101.7694765 141.4010012  80.5934997 103.0089988
 140.9078434  81.5055986 103.3206397 142.2081191  80.3830130 103.6957542
 140.3650012  79.4644997 103.2129988 139.1420012  79.6334997 102.3019988
 138.7625219  80.6395768 102.4166212 138.3914960  78.9236938 102.6166696
 139.4325938  79.4259508 101.2830795 140.9320012  78.1344997 102.8769988
 141.8760563  78.0252658 103.3884104 141.0518045  78.0631378 101.8107321
 140.2330679  77.3879537 103.2255076 139.8290012  79.4364997 104.5979988
 140.6453158  79.3052884 105.2926181 139.1364742  78.6137683 104.6937566
 139.3174920  80.3653112 104.8056103 144.6850012  78.9334997  99.7999988
 143.4610012  81.1064997  99.2519988 141.0780012  78.7434997  96.3339988
 141.1990012  77.4384997  96.1499988 140.6870012  76.5204997  96.7659988
 141.9720012  77.2464997  94.7629988 143.0174957  77.4431070  94.9771008
 141.9159498  76.1942461  94.4955523 141.4370012  78.1414997  93.6189988
 140.3607720  78.0447348  93.5271926 141.6283766  79.1920652  93.8132165
 142.1010012  77.7234997  92.2789988 141.4690529  76.9639699  91.8257769
 142.0491368  78.5906313  91.6251961 143.5710012  77.2304997  92.3309988
 144.1683453  77.9212303  92.9232631 143.6479079  76.2636775  92.8224683
 144.1820012  77.1294997  90.9659988 143.6587763  76.3743610  90.3829874
 144.0346809  78.0721635  90.4424888 145.7380012  76.7964997  90.9859988
 146.1711706  77.2598091  91.8711031 145.8728508  75.7249282  91.1037616
 146.5150012  77.2564997  89.7389988 146.6293099  78.3341078  89.7224383
 147.5219388  76.8412850  89.7434079 145.8010012  76.7694997  88.5129988
 145.6522309  75.7038341  88.4248035 145.3260012  77.5274997  87.5369988
 144.8269976  76.9896620  86.7436917 145.3590012  79.1014997  87.3309988
 144.3465184  79.4882551  87.4335650 145.9516342  79.5966819  88.0920912
 145.8970012  79.5014997  85.9069988 145.9574267  80.5887886  85.9362646
 146.9237739  79.1406752  85.9054315 145.1770012  79.0434997  84.5549988
 145.1040932  77.9562572  84.5813670 144.1570514  79.4169757  84.5818720
 145.8380012  79.4694997  83.2539988 145.9516140  80.5511972  83.2669437
 146.8453378  79.0581634  83.2199346 145.1000012  79.0534997  82.0399988
 145.7162253  79.2222339  81.1588707 144.9001251  77.9857085  82.0622846
 143.7420012  79.8574997  81.8479988 142.9417659  79.5154580  82.5018443
 143.8466491  80.9251837  82.0322096 143.2900012  79.6504997  80.3529988
 144.0651354  79.9860740  79.6685488 143.1771142  78.5837840  80.1722026
 141.9540012  80.3584997  80.0069988 141.6396288  80.1157968  78.9963879
 142.0388726  81.4380823  80.0705534 141.1617973  80.0494609  80.6830528
  64.3450012   4.1624997  80.4279988  63.9972837   3.4573622  79.6794651
  63.7849451   5.0843454  80.3002187  64.0940921   3.7580439  81.4047649
  65.9240012   4.4194997  80.2979988  66.1428873   4.7965443  79.3004371
  66.4423604   3.4684516  80.3853218  66.4820012   5.4514997  81.3839988
  66.0079163   6.4074123  81.1617298  67.5371739   5.5769182  81.1493676
  66.3530012   5.1664997  82.8369988  65.2867242   5.1238025  83.0479026
  66.7308825   6.0381168  83.3691596  67.0000012   3.9304997  83.3859988
  67.6958473   3.4685869  82.6902922  66.2712151   3.1637389  83.6435134
  67.7620012   4.3464997  84.6469988  68.3669874   5.2286163  84.4453086
  68.4562425   3.5624559  84.9417552  66.7990012   4.6444997  85.8229988
  66.2876792   3.7417516  86.1521882  66.0193483   5.3447342  85.5262783
  67.5740012   5.2234997  86.9739988  66.8317870   5.3482977  87.7613962
  67.8380908   6.2263803  86.6435882  68.8240012   4.5354997  87.5579988
  69.1516072   5.1237699  88.4124889  69.6169387   4.6117891  86.8150271
  68.6650012   3.0584997  87.9839988  69.6414023   2.7053460  88.3083788
  68.4115640   2.4814533  87.0950578  67.6650012   2.8004997  89.0279988
  67.7191157   1.7440408  89.2819816  66.6763062   2.9582875  88.6005490
  67.7970012   3.6404997  90.3609988  66.8148407   3.6669203  90.8267043
  68.0237220   4.6649060  90.0714140  68.7930012   3.1984997  91.3199988
  69.7768762   3.2537413  90.8571918  68.6355546   2.1545751  91.5763307
  68.8300012   4.0524997  92.6429988  68.8175361   5.1093757  92.3976365
  69.7697917   3.8592066  93.1534139  67.6270012   3.7314997  93.6509988
  67.5995691   2.6746053  93.8839425  66.6789139   4.0150248  93.2096223
  67.9480012   4.5174997  94.9509988  68.7000012   5.4484997  95.0319988
  67.3450012   3.9194997  95.9289988  67.4900012   4.5914997  97.2559988
  68.2302324   5.3407181  97.0189517  67.8689314   3.9577385  98.0446373
  66.1240012   5.2834997  97.6879988  65.8563478   5.9024436  96.8476631
  66.2400012   6.1644997  98.9849988  65.2552217   6.5505220  99.2108242
  66.8865172   6.9935303  98.7255566  66.7640012   5.4584997 100.0989988
  65.8200012   5.3724997 101.4249988  64.8020012   4.3514997 100.8959988
  63.6620012   4.1184997 101.7589988  63.0155666   4.9864234 101.7634414
  64.0277252   4.0016411 102.7750632  62.8590012   2.8294997 101.4659988
  62.5247356   2.9197958 100.4401517  61.9949696   2.8364200 102.1146733
  63.4660012   1.4204997 101.5859988  64.9610012   1.5924997 101.3249988
  65.0894328   2.1427150 100.4029888  65.3971569   0.6096388 101.2257385
  65.4068851   2.1037592 102.1649501  63.2980012   0.7774997 102.9069988
  62.2596168   0.8474140 103.1926276  63.9359126   1.2683957 103.6200626
  63.5842108  -0.2588659 102.8005684  62.8390012   0.4894997 100.5589988
  61.7709509   0.4560102 100.7146557  63.2533238  -0.5003687 100.6779414
  63.0526612   0.8534534  99.5643521  66.5940012   4.7104997 102.4679988
  65.1090012   6.5824997 101.6909988  65.1290012   4.2564997  97.7609988
  63.9410012   4.5964997  97.3549988  63.5470012   5.6394997  96.8659988
  63.0220012   3.3494997  97.4199988  63.5902395   2.6385151  98.0108957
  62.1750164   3.6392211  98.0369147  62.5740012   2.7704997  96.1429988
  61.5862423   2.3403818  96.2670641  62.4703947   3.5489967  95.3938385
  63.5300012   1.6904997  95.6399988  64.5307879   1.8876507  96.0157797
  63.2279850   0.7375224  96.0674160  63.5590012   1.5554997  94.1289988
  64.2235990   0.7337126  93.8688415  62.5746614   1.2790952  93.7590288
  64.0360012   2.8224997  93.3809988  63.2999275   3.6077946  93.5403991
  64.9498451   3.1610964  93.8653773  64.3060012   2.6724997  91.8659988
  64.8522028   3.5504506  91.5245797  64.9575453   1.8202171  91.6944683
  63.0210012   2.4984997  91.0039988  63.3102428   2.1123173  90.0335440
  62.4080879   1.7283013  91.4703440  62.2140012   3.7254997  90.8689988
  61.3616208   3.8553476  91.5187227  62.4720012   4.7084997  89.9979988
  61.8149563   5.5649314  89.9487378  63.6640012   4.7674997  89.0059988
  64.1268300   5.7421954  89.1508388  64.4042782   4.0328706  89.3026315
  63.3470012   4.5994997  87.4929988  62.7335087   5.4476001  87.1912410
  64.2898850   4.7021592  86.9592477  62.6300012   3.2304997  87.0419988
  63.1136092   2.4014542  87.5586360  61.5992274   3.2424035  87.3853176
  62.6610012   2.9794997  85.5779988  62.3048239   3.8826030  85.0874000
  63.7017406   2.8621959  85.2810369  61.8450012   1.7494997  85.0839988
  61.9104909   0.9645197  85.8350697  60.7933952   2.0163717  85.0245910
  62.3050012   1.1744997  83.7729988  63.2722989   0.6991931  83.9256478
  61.6189270   0.3783671  83.4896100  62.4210012   2.1344997  82.6239988
  63.1126175   2.9259173  82.9019194  62.9028326   1.5913819  81.8139527
  61.0730012   2.7774997  82.0769988  61.2644209   3.3827811  81.1960550
  60.6004599   3.4173577  82.8145810  60.3574495   2.0082299  81.8006821
 124.7490012 110.1384997  83.2589988 124.4675495 109.5091954  82.4204344
 124.6988381 109.5328267  84.1592398 125.7854039 110.4327997  83.1180417
 123.8440012 111.3564997  83.3639988 122.8191853 111.0024950  83.4621626
 123.8951048 111.8840102  82.4153497 124.1600012 112.3194997  84.5229988
 123.2480914 112.8646166  84.7663032 124.8626252 113.0605879  84.1471283
 124.7490012 111.6954997  85.8249988 125.4132274 110.8701622  85.5782772
 123.9615924 111.2730738  86.4472928 125.5700012 112.7774997  86.6709988
 125.0912693 113.7481389  86.5697652 126.5602440 112.8777288  86.2297072
 125.7020012 112.4694997  88.0579988 126.2111810 111.5140460  88.1705210
 124.7149690 112.3417275  88.4973379 126.4850012 113.5714997  88.8559988
 127.1428460 114.0815169  88.1546482 127.1342749 113.0640307  89.5681426
 125.6140012 114.6334997  89.6149988 125.0163805 114.1134711  90.3625754
 124.9079018 115.0655275  88.9082743 126.3990012 115.7534997  90.2889988
 125.7287074 116.5826752  90.5051357 127.1446046 116.1389749  89.5946924
 127.0850012 115.3164997  91.5669988 127.7148743 116.1470466  91.8780464
 127.7606698 114.5045064  91.2994769 126.1820012 114.8614997  92.7489988
 125.9677390 113.8011080  92.6340977 125.2225648 115.3721357  92.6868640
 126.7820012 115.0834997  94.1359988 127.5845227 115.8151283  94.0821688
 127.2363195 114.1594073  94.4885866 125.7070012 115.5394997  95.1749988
 125.5670386 116.6014002  94.9799866 126.1842332 115.4692669  96.1484416
 124.3150012 114.8824997  95.2489988 124.3453345 113.9099785  95.7292357
 123.9048503 114.7293977  94.2542988 123.3710012 115.7994997  96.0289988
 123.3506540 116.7872739  95.5863600 123.6952766 115.8867058  97.0591975
 122.0190012 115.1174997  96.2569988 121.0110012 115.3144997  95.6449988
 122.1890012 114.0884997  97.0969988 121.0960012 113.1714997  97.1509988
 120.8130022 112.9285134  96.1379187 120.2860316 113.7064551  97.6253025
 121.4510012 111.8524997  97.9529988 120.5537459 111.2563531  97.9321140
 121.9280012 112.0344997  99.4149988 122.0287468 111.0760607  99.9059632
 121.1939367 112.6233004  99.9507674 123.1830012 112.7134997  99.3829988
 124.5010012 111.9764997  99.6299988 124.7820012 112.1724997 101.1679988
 123.9590012 111.6144997 102.2129988 124.5429255 111.1083683 102.9706612
 123.2872996 110.8708465 101.7939595 123.0410012 112.6794997 102.8419988
 122.6949767 112.2808292 103.7872913 122.1948001 112.7832955 102.1782614
 123.5100012 114.0784997 103.1349988 123.3930012 114.8944997 101.8359988
 123.8862750 114.3514633 101.0415641 123.8884974 115.8412873 101.9914870
 122.3484826 115.0630787 101.6208731 122.6750012 114.6494997 104.2439988
 122.6498557 113.9381509 105.0552106 121.6878212 114.8547563 103.8702135
 123.1499028 115.5643376 104.5677840 124.9400012 113.9994997 103.5539988
 125.0219168 113.3599512 104.4202260 125.2925973 114.9897237 103.8005393
 125.5313128 113.5966216 102.7443848 124.2890012 110.5214997  99.4109988
 125.5050012 112.6724997  98.7639988 122.5370012 111.1844997  97.3379988
 122.3250012 110.3104997  96.3919988 121.2840012 109.7304997  96.1659988
 123.6530012 109.9994997  95.6449988 124.3969605 110.7610555  95.8550229
 124.0958863 109.0569785  95.9571104 123.2650012 109.9644997  94.1379988
 124.0678210 109.4986303  93.5771895 122.3947274 109.3310540  93.9987034
 122.9960012 111.3394997  93.5679988 122.0796070 111.7839552  93.9479132
 123.7942055 112.0368305  93.8102064 122.9170012 111.1944997  92.0249988
 123.9161478 111.0303988  91.6256455 122.3302072 110.3236448  91.7430649
 122.3070012 112.4664997  91.3259988 121.3690752 112.6311050  91.8524026
 122.9737517 113.2683534  91.6372147 122.0720012 112.5834997  89.8279988
 122.9305147 112.1636941  89.3060612 121.2143315 111.9815375  89.5410105
 121.8300012 114.1034997  89.3239988 122.7442138 114.6512215  89.5209657
 121.7267516 114.0585271  88.2406415 120.6700012 114.7994997  89.8749988
 120.8797364 115.5931487  90.5762022 119.4300012 114.5704997  89.5999988
 118.6831177 115.1704424  90.0998425 118.8570012 113.5434997  88.6359988
 119.6623319 112.8932224  88.2986520 118.1280959 112.9000099  89.1158936
 118.2150012 114.2094997  87.3879988 117.8060584 113.4077186  86.7743067
 117.3616607 114.7804433  87.7489593 119.0880012 115.1054997  86.5329988
 119.4305761 115.9485545  87.1330054 119.9808631 114.5651275  86.2308408
 118.3550012 115.6394997  85.2719988 117.9979436 114.7677341  84.7282345
 117.4676236 116.1679902  85.6160101 119.1670012 116.5664997  84.3169988
 118.4712016 116.9700389  83.5837805 119.5181821 117.4182631  84.8930161
 120.3170012 115.9394997  83.5689988 119.9325724 115.0245401  83.1218449
 120.5441878 116.6079579  82.7405159 121.6220012 115.6124997  84.3009988
 121.7332335 116.3027638  85.1335117 121.4873597 114.6296999  84.7474170
 122.9120012 115.6034997  83.4689988 123.7553306 115.2750509  84.0689870
 123.1520638 116.5882101  83.0824029 122.8257517 114.9285862  82.6221258
  15.6790012  37.6584997  84.9599988  15.8501601  38.2399880  84.0594407
  15.1572483  38.2934754  85.6701887  15.0145956  36.8382452  84.7023947
  17.0070012  37.1334997  85.5499988  17.6601512  37.9754278  85.7730571
  17.5196455  36.5405906  84.7973577  16.8020012  36.3114997  86.8129988
  16.1533243  35.4630102  86.5957135  16.2710105  36.9167963  87.5450069
  18.1140012  35.7994997  87.4579988  18.8133550  36.6325575  87.4450050
  18.5309574  35.0454607  86.7922070  18.0490012  35.2514997  88.8479988
  19.0614698  35.0329483  89.1777191  17.5303820  34.2954374  88.7995819
  17.3430012  36.1764997  89.9309988  16.2596969  36.1246527  89.8383662
  17.6111873  37.2205795  89.7841977  17.7640012  35.7304997  91.3859988
  18.8181482  35.4593365  91.3898095  17.2170621  34.8293774  91.6599810
  17.5200012  36.7974997  92.4269988  16.4886699  37.1349206  92.3323738
  18.1439915  37.6565099  92.1873711  17.7800012  36.3744997  93.8669988
  18.8426524  36.4008026  94.0985618  17.4568848  35.3487596  94.0402906
  17.0280012  37.3104997  94.8229988  15.9889056  37.3145124  94.5011863
  17.4064732  38.3167744  94.6452376  17.1110012  37.0014997  96.3059988
  18.1352756  37.0458333  96.6699184  16.7477714  36.0038205  96.5464741
  16.3040012  38.0114997  97.0499988  16.3801919  38.9604139  96.5246649
  16.7729834  38.1628499  98.0204722  14.8070012  37.6404997  97.2729988
  14.3724865  37.2889513  96.3387275  14.2252750  38.5080845  97.5716043
  14.6300012  36.5274997  98.3289988  15.1546611  36.8090563  99.2360836
  15.1106830  35.6278088  97.9540409  13.1420012  36.1884997  98.6789988
  12.5897996  35.9365112  97.7825523  12.6637617  37.0361583  99.1552664
  13.3320012  35.2924997  99.8629988  13.7430012  35.6724997 100.9649988
  13.0310012  34.0734997  99.5289988  13.0120012  33.1264997 100.6019988
  12.1386555  32.5449128 100.3480575  12.8829734  33.5445086 101.5898309
  14.3030012  32.2294997 100.5339988  14.1411497  31.3881662 101.1873411
  15.6440012  32.9904997 100.9509988  16.3771815  32.2627160 101.2712777
  15.4011452  33.6306350 101.7899462  16.1400012  33.7484997  99.8879988
  17.6490012  34.1304997  99.9709988  17.5530012  35.2914997 101.0119988
  18.5880012  36.1404997 101.4029988  18.7873918  36.9177444 100.6768287
  19.5101940  35.5770870 101.5121936  18.3180012  36.7324997 102.7749988
  19.1198310  37.4148010 103.0275514  18.2968931  35.9360838 103.5048297
  17.0470012  37.5054997 102.9719988  15.7520012  36.7394997 103.0459988
  15.6927554  36.0782657 102.1924218  14.9411035  37.4517743 103.0112181
  15.7183568  36.1972559 103.9790351  17.1620012  38.3294997 104.1769988
  18.0885764  38.8806681 104.1281545  17.1286504  37.6922614 105.0425536
  16.3245272  39.0120694 104.1827363  16.8770012  38.4654997 101.7619988
  17.7350370  39.1184604 101.7028493  15.9826986  39.0545434 101.8994771
  16.7930674  37.8881511 100.8525711  18.4660012  33.0574997 100.5449988
  18.1090012  34.6354997  98.6299988  14.2570012  31.6744997  99.1889988
  15.2140012  30.9364997  98.7419988  16.1030012  30.4334997  99.4869988
  15.1970012  30.8664997  97.1849988  15.9111219  30.1033934  96.8930171
  14.2251681  30.5050100  96.8582378  15.5210012  32.2274997  96.5539988
  14.7165073  32.9167091  96.7860353  16.4109174  32.6366142  97.0216604
  15.7170012  32.1694997  94.9839988  15.9589956  33.1577522  94.6013113
  16.5732338  31.5388093  94.7578122  14.4720012  31.6004997  94.2429988
  14.4536054  30.5216068  94.3856797  13.5623964  31.9830025  94.6996307
  14.4280012  31.8974997  92.6919988  15.2975151  31.4488217  92.2160423
  13.5592441  31.3955846  92.2704262  14.3580012  33.4184997  92.3189988
  15.2683308  33.8904358  92.6854374  14.3769462  33.5147253  91.2370100
  13.1130012  34.1964997  92.8699988  12.1831691  33.8570868  92.4286471
  13.0059030  34.0695131  93.9464515  13.3500012  35.6434997  92.5809988
  13.9110060  36.1586728  93.3461290  12.9670012  36.3734997  91.4929988
  13.2154516  37.4247821  91.4667769  12.2130012  35.8834997  90.2659988
  11.8508679  34.8893739  90.5225033  11.3326397  36.5025870  90.1341824
  12.9870012  35.7874997  88.9129988  12.5158406  36.4314456  88.1713476
  13.9961617  36.1711400  89.0503815  13.0590012  34.4084997  88.3929988
  13.8933258  33.8960849  88.8719983  12.1628105  33.8678545  88.6846304
  13.2290012  34.3334997  86.8579988  12.3340590  34.7241104  86.3787841
  14.0478301  34.9793967  86.5458750  13.5020012  32.8954997  86.3709988
  13.8492897  32.9672764  85.3420047  14.3422248  32.5092852  86.9415140
  12.3880012  31.9384997  86.4059988  12.7433508  30.9413242  86.1525213
  11.9900381  31.8691708  87.4167672  11.2810012  32.2904997  85.4889988
  10.3881672  31.7139933  85.7179156  11.0105571  33.3316448  85.6508312
  11.6540012  32.0964997  83.9809988  10.8524185  32.4465402  83.3375659
  11.8338931  31.0545743  83.7385704  12.5506013  32.6542144  83.7256492
 141.6840012  69.8594997  83.5289988 141.2752144  70.1730435  82.5734818
 142.7568388  69.7409699  83.4075073 141.5205748  70.6657193  84.2388676
 141.0430012  68.5774997  84.0059988 141.2029053  67.8215644  83.2390597
 139.9704660  68.7467839  84.0487209 141.5480012  68.0424997  85.3559988
 142.4820210  67.5250643  85.1373745 140.8356049  67.2706535  85.6404562
 141.7530012  68.9634997  86.5359988 142.2954292  69.8351849  86.1765732
 142.4158846  68.4660532  87.2422838 140.4690012  69.4474997  87.2839988
 139.9097272  68.5947507  87.6603030 139.8123765  69.9573564  86.5809659
 140.7840012  70.3804997  88.4429988 141.5138987  71.1348775  88.1549352
 141.2206896  69.8383817  89.2790539 139.5390012  71.0494997  88.8909988
 138.9812851  70.2943650  89.4419020 138.9689989  71.2475504  87.9842997
 139.6210012  72.3714997  89.7549988 138.7019234  72.4842744  90.3286093
 139.6733175  73.2333466  89.0923021 140.8100012  72.3954997  90.7029988
 141.7087978  72.1870638  90.1265787 140.7020334  71.5703550  91.4058901
 140.9990012  73.7084997  91.4859988 140.0365949  73.9302698  91.9419496
 141.1725967  74.4883082  90.7449237 142.0910012  73.7634997  92.5299988
 143.0234793  73.9262862  91.9937843 142.1646096  72.7702934  92.9696021
 141.9900012  74.8014997  93.6449988 141.1010297  74.6177569  94.2434864
 141.8638452  75.7908489  93.2091746 143.2270012  74.8154997  94.5339988
 144.1124065  74.9488159  93.9146958 143.3499095  73.8615805  95.0391776
 143.2080012  75.9624997  95.6039988 142.4680952  76.6993786  95.3092216
 144.1751605  76.4570215  95.5701892 142.9400012  75.5314997  97.0199988
 143.6472224  74.7705987  97.3248082 141.9374815  75.1301305  97.1090281
 141.4340012  75.2514997  97.2449988 140.5690012  76.0084997  96.8639988
 141.2460012  74.0904997  97.8919988 139.9230012  73.8014997  98.3979988
 139.2407724  74.2136535  97.6698812 139.7911550  74.3181369  99.3376235
 139.6830012  72.3094997  98.5589988 138.6924669  72.2123066  98.9716602
 140.7220012  71.5244997  99.4619988 140.1435855  70.8770011 100.1069654
 141.1942301  72.2868136 100.0690097 141.7160012  70.7654997  98.7459988
 143.2640012  71.1374997  99.0319988 143.4920012  71.1424997 100.6779988
 142.8920012  70.1234997 101.3429988 143.0381378  69.1764395 100.8400971
 141.8198606  70.2954154 101.3705060 143.3120012  70.0414997 102.7719988
 144.3891022  70.0946121 102.6756591 143.0485614  69.0863921 103.2029813
 142.9250012  71.1214997 103.8469988 141.4590012  71.0404997 104.0039988
 141.0033893  71.0950834 103.0248295 141.1407651  71.8824395 104.6006253
 141.2113017  70.1211948 104.5131555 143.5420012  70.6354997 105.2159988
 144.5809665  70.3911523 105.0561256 142.9875285  69.7841890 105.5684193
 143.4571395  71.4532487 105.9169852 143.4390012  72.4734997 103.4909988
 144.5134487  72.4307060 103.3919376 143.1750136  73.1703647 104.2722412
 142.9978546  72.7928468 102.5578095 144.1100012  70.0344997  98.5789988
 143.6310012  72.5104997  98.4729988 139.7140012  71.7324997  97.2569988
 139.4230012  70.4974997  96.9769988 139.0650012  69.5974997  97.7759988
 139.3970012  70.3964997  95.4819988 138.4619155  70.8529897  95.1741275
 140.1834751  71.0403991  95.0963055 139.5440012  68.9404997  94.9359988
 138.9069724  68.2475307  95.4745610 139.2585291  68.8610883  93.8918567
 141.0700012  68.4974997  95.1169988 141.3388953  68.4459420  96.1689929
 141.2133808  67.4963265  94.7180507 142.0480012  69.4934997  94.3519988
 141.7749507  69.5583694  93.3003613 141.9893842  70.5058879  94.7442183
 143.5260012  69.0014997  94.4459988 143.8194764  68.7571266  95.4648486
 143.6839796  68.0979463  93.8603238 144.4500012  70.1124997  93.8989988
 144.2212637  71.0303355  94.4384036 145.4799147  69.8640722  94.1395814
 144.3440012  70.3804997  92.3409988 144.5536977  69.4680989  91.7949839
 143.3199287  70.6572816  92.0939899 145.2430012  71.4724997  91.9179988
 145.0516411  72.3916840  92.4509486 146.1990012  71.4854997  91.0429988
 146.7619013  72.3966882  90.8998595 146.6360012  70.3684997  90.1869988
 147.7156752  70.2816782  90.2964834 146.2184072  69.4345303  90.5461609
 146.3280012  70.5234997  88.7499988 146.4167235  69.5523933  88.2644209
 145.2838829  70.8155890  88.6553416 147.1900012  71.5264997  88.0289988
 148.1348664  71.5981907  88.5676982 147.4292440  71.1241509  87.0484977
 146.5710012  72.9734997  87.8679988 146.0841296  73.2114445  88.8111230
 147.4011173  73.6708723  87.7696954 145.5550012  73.1934997  86.6609988
 145.3795121  74.2630033  86.5612209 146.0409801  72.8852684  85.7393465
 144.1670012  72.4894997  86.7949988 144.2719221  71.4118156  86.9066754
 143.6288591  72.8332663  87.6765098 143.2890012  72.7744997  85.5369988
 143.6822105  72.2065811  84.6974930 142.3042704  72.3592366  85.7399150
 143.1320012  74.2184997  85.1359988 142.4361468  74.3151239  84.3080377
 144.0733522  74.6568735  84.8222670 142.7495950  74.8133964  85.9606226
  83.3500012 137.2084997  83.2819988  84.3365011 136.8167294  83.0544840
  83.4704984 138.0099322  84.0051697  82.9496718 137.6450401  82.3710757
  82.4420012 136.1304997  83.8099988  82.8755390 135.6940055  84.7081751
  82.3751543 135.3267503  83.0817595  81.0110012 136.6774997  84.1419988
  80.4118523 135.8297678  84.4741136  80.5766430 137.0020063  83.1984949
  80.8800012 137.8004997  85.1399988  79.8541579 138.1531046  85.0589724
  81.5076301 138.6133104  84.7778845  81.1970012 137.5334997  86.6389988
  82.2637602 137.3489364  86.7366435  80.6996096 136.6066726  86.9199939
  80.7960012 138.6324997  87.6109988  79.7264595 138.8332148  87.5862791
  81.2879564 139.5773326  87.3899834  81.2020012 138.1624997  89.0519988
  82.2772468 137.9933863  89.0561711  80.7406419 137.1916547  89.2276054
  80.8310012 139.1214997  90.2099988  79.7491946 139.2141410  90.2969647
  81.2069102 140.1236358  90.0122627  81.3870012 138.6354997  91.5009988
  82.4686684 138.5650667  91.4083906  81.0303705 137.6207096  91.6730240
  81.0320012 139.5184997  92.7289988  81.2447686 140.5580010  92.4892779
  81.6868069 139.2566368  93.5597131  79.5310012 139.3664997  93.1849988
  79.3478515 138.2959168  93.2470443  78.9215911 139.7299955  92.3593971
  79.0400012 140.0324997  94.5259988  77.9535616 140.0745073  94.5158314
  79.3839782 141.0650539  94.5394696  79.5280012 139.3384997  95.7979988
  79.5501332 140.0438658  96.6269866  80.5418596 138.9631841  95.6907453
  78.6030012 138.1774997  96.1889988  78.4722378 137.4761388  95.3714788
  77.6146418 138.5499504  96.4449642  79.1800012 137.4284997  97.4149988
  79.3502509 138.1162335  98.2335818  80.1194777 136.9531535  97.1590712
  80.4970012 136.7604997  97.0169988  80.8970012 136.7154997  95.8959988
  81.0850012 136.3834997  98.1029988  82.4530012 136.0244997  97.8599988
  82.4521878 135.7379720  96.8191514  82.7545817 135.1776265  98.4592041
  83.3910012 137.2154997  98.0819988  84.3715299 136.8101309  98.2694382
  82.9720012 138.1074997  99.2369988  83.8825513 138.4746551  99.6907569
  82.4788338 137.4440872  99.9364663  82.1140012 139.1924997  98.8919988
  81.2550012 139.8364997 100.0119988  81.0420012 138.7114997 101.0209988
  81.0870012 138.8494997 102.4659988  81.9548763 139.4179780 102.7739178
  81.1928557 137.8625956 102.9071475  79.7480012 139.4534997 103.1039988
  79.7802923 140.4900249 102.7928370  79.8238621 139.4116904 104.1809733
  78.3130012 138.9504997 102.7559988  77.2700012 139.7184997 103.4529988
  77.5084362 139.7466137 104.5073670  76.3283096 139.2106992 103.3065210
  77.2184705 140.7083272 103.0248596  78.0360012 138.8974997 101.2959988
  78.8436225 138.3692350 100.8128858  77.9416164 139.9005151 100.9199381
  77.1087376 138.3593153 101.1624440  78.2510012 137.4834997 103.1039988
  79.0096054 136.9536303 102.5473659  77.2763450 137.0982961 102.8445500
  78.4191554 137.3568128 104.1637674  82.1650012 140.8924997 100.5889988
  79.9490012 140.2914997  99.4879988  83.4540012 137.9364997  96.8439988
  84.3710012 138.8954997  96.7049988  85.3160012 139.0994997  97.3979988
  84.0170012 139.8424997  95.5149988  83.0752778 139.4884823  95.1083270
  83.8152170 140.8339231  95.9128300  85.0920012 139.8874997  94.4779988
  85.9657677 140.3966501  94.8696094  85.4195480 138.8858100  94.2184532
  84.6140012 140.6074997  93.2399988  83.7248761 140.1336007  92.8319174
  84.3262871 141.6250681  93.4926646  85.6820012 140.6594997  92.2089988
  86.5163728 141.2235974  92.6217017  86.0558658 139.6553947  92.0240649
  85.2760012 141.3094997  90.8389988  84.9354395 142.3364043  90.9546947
  86.1201607 141.3458186  90.1531004  84.1380012 140.4554997  90.1869988
  84.3007499 139.3975277  90.3867714  83.1677847 140.7015505  90.6094406
  84.0850012 140.6824997  88.6729988  85.0596328 140.5383891  88.2214400
  83.4197719 139.9584651  88.2043944  83.5490012 142.0934997  88.3939988
  82.9637405 142.4991176  89.2054777  83.7160012 142.8674997  87.3179988
  83.3239557 143.8742461  87.2987118  84.4190012 142.4754997  86.0909988
  84.3476186 143.3098971  85.3953649  85.4757223 142.3352377  86.2893622
  83.8560012 141.2164997  85.3949988  84.4041278 141.0286670  84.4725124
  84.0271232 140.3501923  86.0311495  82.3410012 141.3284997  85.0829988
  82.0683808 140.4179381  84.5494608  81.8192620 141.2902265  86.0352736
  81.8540012 142.5554997  84.2779988  82.1789218 143.4784057  84.7531998
  82.2807848 142.5623058  83.2765526  80.3380012 142.5304997  84.1759988
  80.0358274 141.6089372  83.6820314  79.9091271 142.4869776  85.1733943
  79.7410012 143.6894997  83.4049988  80.3008202 144.5861549  83.6647968
  79.9272505 143.5133799  82.3471108  78.2340012 143.9784997  83.5959988
  77.9354219 144.7086159  82.8478707  77.7175791 143.0577653  83.3335688
  77.7460012 144.4424997  84.9939988  76.6635282 144.5250363  85.0165595
  78.1515672 145.4117109  85.2639743  78.0399700 143.7355446  85.7646724
 140.8750012  88.5264997  79.6719988 141.2737870  88.4283259  78.6671303
 140.8734778  89.5825352  79.9261181 139.8414935  88.1917546  79.6515134
 141.7160012  87.6964997  80.7019988 142.7421790  88.0526831  80.6292294
 141.7220240  86.6722445  80.3391227 141.2720012  87.7334997  82.1709988
 140.3088396  87.2441472  82.3151617 141.1434206  88.7582527  82.5138095
 142.3540012  87.0324997  83.0829988 143.3285713  87.4265499  82.8033786
 142.3765993  85.9714779  82.8392200 142.1710012  87.2034997  84.6079988
 143.0269078  86.7996048  85.1426630 141.3058498  86.6320378  84.9401273
 141.9900012  88.6534997  84.9969988 141.2169723  89.0716238  84.3548029
 142.9096464  89.1783207  84.7472137 141.6300012  88.9304997  86.4779988
 140.6528491  88.5035315  86.6962691 141.5333739  90.0047111  86.6295339
 142.6300012  88.3864997  87.4389988 143.5875812  88.8924368  87.3227273
 142.8174106  87.3324315  87.2427792 142.1280012  88.5574997  88.9259988
 141.0977226  88.2081238  88.9278909 142.0843646  89.6322594  89.0979417
 142.9190012  87.8684997  90.1169988 143.9764053  87.8871089  89.8623437
 142.6304397  86.8181055  90.1458691 142.6940012  88.5114997  91.5529988
 143.4009713  88.0298163  92.2250964 141.7035136  88.2113936  91.8906358
 142.8340012  89.9534997  91.6969988 142.0881711  90.4681592  91.0960978
 143.8029595  90.2709010  91.3161495 142.7200012  90.3814997  93.1529988
 143.4960119  89.8734441  93.7230329 141.7718518  90.0468220  93.5644324
 142.8650012  91.8784997  93.3929988 142.1675620  92.3495552  92.7081409
 143.8640438  92.1147068  93.0363309 142.6870012  92.4934997  94.8049988
 143.3508649  92.0144710  95.5134177 141.6660180  92.3678889  95.1454168
 141.2280012  92.6334997  95.0489988 140.3820012  93.2444997  94.4049988
 140.9160012  91.9014997  96.2629988 139.5790012  91.7834997  96.7019988
 138.9822161  91.7514888  95.8029521 139.3693164  92.7009295  97.2326087
 139.2780012  90.5404997  97.5949988 138.2975172  90.5629109  98.0411409
 140.3770012  90.4804997  98.7209988 140.5940430  91.4929150  99.0335833
 141.2630134  90.0623057  98.2598250 139.9850012  89.7044997  99.8149988
 140.2690012  88.1824997  99.6659988 140.7760012  87.6484997 101.0949988
 140.0350012  88.0884997 102.2359988 140.1220366  87.3663931 103.0373575
 138.9841642  88.1205147 101.9630266 140.3640012  89.4954997 102.7279988
 139.7856594  89.5410531 103.6421622 140.0500602  90.2994547 102.0780185
 141.7320012  89.8024997 103.1099988 142.1050012  88.7674997 104.1349988
 141.3383152  88.7445042 104.8972309 143.0469487  89.0589586 104.5753242
 142.2144707  87.8119446 103.6444400 142.6700012  89.6274997 101.9039988
 142.2530149  90.1630478 101.0649370 142.7736026  88.5789571 101.6890678
 143.6267822  90.0499481 102.1749310 141.8380012  91.2624997 103.4989988
 141.5260257  91.8757888 102.6667550 142.8630952  91.4888596 103.7511760
 141.2048678  91.4550544 104.3531064 138.9960012  87.4914997  99.2779988
 141.3790012  88.0404997  98.7159988 139.3670012  89.3544997  96.7379988
 138.3110012  88.9674997  96.1189988 137.2040012  89.4434997  96.2449988
 138.6010012  87.6354997  95.4219988 139.0815475  87.0307850  96.1841985
 137.6355977  87.1705541  95.2383445 139.4200012  87.7044997  94.1569988
 140.1429000  88.5046750  94.2718800 139.9967945  86.7892503  94.0694712
 138.6150012  87.9364997  92.8749988 139.2900652  87.8527899  92.0270983
 137.9086496  87.1151912  92.7823440 137.8420012  89.2554997  92.8019988
 137.0198226  89.1201722  92.1017025 137.3875822  89.4612967  93.7681007
 138.7020012  90.5584997  92.3369988 138.1462173  91.4831541  92.4784885
 139.6097339  90.6570958  92.9291821 139.0900012  90.4214997  90.8699988
 139.7963323  91.2189950  90.6446133 139.6305733  89.4878798  90.7417270
 137.8470012  90.4674997  89.7789988 138.1805889  90.1083087  88.8124166
 137.0538262  89.7934098  90.0996580 137.2740012  91.8814997  89.6739988
 136.9246295  92.3827809  90.5640609 137.1880012  92.5694997  88.4989988
 136.7402866  93.5509802  88.5611090 137.6330012  92.1734997  87.0859988
 137.8145051  91.1007405  87.1242768 136.7983559  92.3161580  86.4087271
 138.8710012  92.8454997  86.5109988 138.9770886  93.8621902  86.8875499
 139.7697694  92.3134846  86.8169963 138.7970012  92.8724997  84.9609988
 138.7208620  91.8504135  84.5899871 137.8872649  93.3775999  84.6483364
 140.0580012  93.5834997  84.2879988 140.0740224  94.6321791  84.5763732
 140.9770422  93.1473146  84.6755438 140.0460012  93.4604997  82.7509988
 140.1571828  92.4241282  82.4376894 139.1089784  93.8019976  82.3197302
 141.2230012  94.2634997  82.1599988 141.0536643  94.4920985  81.1093082
 141.3318750  95.2222847  82.6636969 142.5780012  93.4764997  82.2879988
 143.3703416  93.9653646  81.7266409 142.8986069  93.4922647  83.3273622
 142.4590012  92.0604997  81.8459988 143.3835451  91.5209126  82.0280241
 142.2409885  91.9834894  80.7861493 141.6659695  91.5488353  82.3839963
  23.0410012  22.4684997  82.0039988  23.5171843  22.3088693  81.0416076
  22.6422826  23.4788142  82.0128300  22.2010315  21.7829003  82.0748255
  24.0200012  22.2534997  83.1469988  24.8522868  22.9356848  82.9822961
  24.4194403  21.2501103  83.0266980  23.5010012  22.4374997  84.5389988
  22.7692198  21.6606489  84.7601955  22.9626492  23.3817902  84.5906083
  24.6100012  22.4354997  85.6499988  25.5157857  22.8175272  85.1843172
  24.8151474  21.3957842  85.9002241  24.3440012  23.2444997  86.9679988
  24.9265373  22.8654863  87.8038059  23.2995245  23.1759976  87.2675669
  24.7070012  24.7124997  86.7359988  23.9133937  25.2760682  86.2487670
  25.5938786  24.8405680  86.1190515  24.9690012  25.3054997  88.1289988
  24.2473859  24.9261635  88.8502099  24.8456887  26.3875551  88.1155764
  26.4410012  24.9504997  88.6219988  27.1058136  24.8322360  87.7673122
  26.4441366  23.9953586  89.1438989  27.0020012  26.0404997  89.5549988
  27.0597947  26.9736849  88.9987917  28.0267630  25.7781816  89.8150553
  26.1760012  26.2694997  90.8709988  25.2199865  26.7057224  90.5898500
  26.6920780  27.0227192  91.4657710  25.9470012  25.0014997  91.7399988
  25.2906483  24.3435073  91.1745008  25.3848968  25.3039468  92.6218675
  27.1810012  24.1954997  92.1769988  27.6123284  23.6576091  91.3362553
  26.9017700  23.4406611  92.9097461  28.2490012  25.1404997  92.8159988
  27.7538523  25.8353743  93.4921857  28.7308310  25.7478241  92.0549003
  29.3100012  24.4004997  93.6019988  29.9080755  23.7550949  92.9670934
  28.8540976  23.7646987  94.3563203  30.2560012  25.4394997  94.3249988
  29.6760118  26.1164513  94.9393194  30.8080474  26.0191090  93.5946790
  29.6590012  25.9524997  95.6549988  28.7980012  26.8104997  95.6539988
  30.1540012  25.2444997  96.7109988  29.3800012  25.4504997  97.9859988
  29.1398560  26.5011217  97.9228660  30.0259360  25.2863359  98.8362990
  28.0990012  24.6194997  98.1019988  27.4174634  25.0591069  97.3926711
  27.4970012  24.6864997  99.5159988  26.4251876  24.8113541  99.4423241
  27.9148391  25.5571120 100.0059280  27.8180012  23.4834997 100.2619988
  28.1200012  23.6764997 101.7779988  26.7430012  24.0404997 102.3869988
  25.7120012  23.0844997 102.4209988  25.1592011  23.1190031 103.3507356
  26.1399965  22.0884486 102.3539217  24.7650012  23.2004997 101.2089988
  24.0398334  22.3975782 101.2502039  25.3644549  23.0816599 100.3179829
  23.9490012  24.4924997 101.0009988  24.7190012  25.7694997 101.3519988
  25.1393191  25.6580794 102.3420757  24.0202101  26.5927426 101.3441109
  25.4821766  25.9347275 100.6063581  23.5730012  24.4874997  99.5089988
  23.1475350  23.5259159  99.2659984  24.4532481  24.6871023  98.9244527
  22.8394503  25.2662363  99.3581038  22.7000012  24.5794997 101.8879988
  22.0627453  23.7307358 101.6890343  22.1682708  25.4918838 101.6633481
  22.9951135  24.5799087 102.9273945  28.5110012  22.3194997 102.2829988
  29.0030012  24.8424997 102.0909988  28.3280012  23.2484997  97.7149988
  27.1710012  22.5454997  97.5129988  26.0580012  23.0074997  97.5019988
  27.5250012  21.1234997  97.1349988  28.4341361  20.8548089  97.6630441
  26.7580940  20.4440360  97.4984400  27.6860012  21.0104997  95.6449988
  26.7716153  21.3047287  95.1416213  28.4579163  21.6813347  95.2814601
  28.0410012  19.5114997  95.2459988  29.1136290  19.3694356  95.1413975
  27.7191817  18.8264696  96.0265313  27.3290012  19.1324997  93.9369988
  27.4472153  18.0574972  93.8141119  26.2634793  19.3086588  94.0628284
  27.7840012  19.8024997  92.6799988  27.2501782  19.3821511  91.8301510
  27.5038084  20.8531800  92.7240883  29.2370012  19.7114997  92.4389988
  29.7516732  20.2421556  93.2385098  29.5522584  18.6740543  92.5071010
  29.7180012  20.3104997  90.9959988  29.1104814  19.7091894  90.3297212
  29.2531395  21.2949131  91.0303459  31.0910012  20.4554997  90.4779988
  31.9137510  20.2372182  91.1420695  31.3960012  20.8264997  89.2359988
  32.4410848  20.9401821  88.9860257  30.4760012  21.1084997  88.1179988
  30.8075958  20.5953582  87.2169151  29.4583975  20.7798914  88.2973878
  30.4830012  22.6344997  87.8379988  30.1619193  23.0908879  88.7735848
  31.5368157  22.8821682  87.7257746  29.6890012  23.2504997  86.6649988
  30.0176815  22.8254017  85.7166486  28.6298739  23.0230844  86.7488785
  29.8850012  24.7814997  86.6309988  29.3519474  25.2489115  87.4559381
  30.9342700  25.0408070  86.7609203  29.3810012  25.3544997  85.2839988
  28.2949598  25.3830699  85.3494804  29.7031437  26.3913682  85.2421331
  29.7560012  24.6354997  83.9829988  30.8013949  24.3337623  83.9515417
  29.1753130  23.7292313  83.8207864  29.4970012  25.5764997  82.8439988
  28.4846105  25.9724626  82.8579076  30.1537283  26.4404974  82.9183650
  29.7570012  24.8664997  81.4829988  29.6570292  25.5656757  80.6582397
  29.0576709  24.0558164  81.3084400  30.7600105  24.4509945  81.4446749
 114.7010012  17.1924997  85.0669988 114.2594358  16.2377590  84.7988211
 115.6871662  17.2402629  84.6142437 114.0948823  17.9746246  84.6180972
 114.7790012  17.3584997  86.5609988 115.3662965  16.5404685  86.9746559
 113.7785403  17.2542702  86.9721292 115.3910012  18.6874997  86.9989988
 114.7598517  19.4707018  86.5792681 116.3454189  18.7601479  86.4813310
 115.6260012  18.9724997  88.5069988 115.7114024  20.0542769  88.5825937
 116.6141415  18.5754879  88.7343010 114.6230012  18.4824997  89.5679988
 114.5454818  17.4000048  89.5066089 113.6403515  18.8742622  89.3105365
 114.9610012  18.8744997  91.0079988 114.1611738  18.5987448  91.6928728
 115.0894139  19.9502078  91.1076942 116.3050012  18.1424997  91.4469988
 117.1081528  18.5303255  90.8230528 116.2027661  17.0887740  91.1911860
 116.7040012  18.2684997  92.9209988 117.0575816  19.2937765  93.0221878
 117.5815913  17.6328782  93.0234928 115.6760012  17.9444997  94.1069988
 115.2813986  16.9357220  94.0060161 114.8167126  18.6124659  94.0620407
 116.3610012  18.0894997  95.4789988 116.9594367  18.9978613  95.4862849
 117.0570712  17.2642177  95.6267322 115.3390012  18.1144997  96.6559988
 115.8885925  18.1350506  97.5946510 114.7687696  17.1871656  96.6599277
 114.3660012  19.3094997  96.6369988 113.6076436  19.1593718  95.8724241
 114.9050473  20.2127267  96.3572127 113.6910012  19.5414997  98.0249988
 112.9341461  20.3170656  97.9205000 114.4178859  19.9198973  98.7382503
 113.0280012  18.3214997  98.6009988 112.5009788  18.5995468  99.5077966
 113.8082793  17.6233381  98.8922520 112.0540012  17.5994997  97.6499988
 112.5505191  17.3417667  96.7231306 111.2056027  18.2348504  97.4250132
 111.5950012  16.1514997  98.0369988 111.4520012  15.3144997  97.1959988
 111.6800012  15.9764997  99.3359988 111.7040012  14.7504997  99.9789988
 111.3888611  14.0272542  99.2420696 110.9737100  14.7854416 100.7743892
 113.1100012  14.3804997 100.5299988 113.0660700  13.3931061 100.9589720
 113.5930012  15.3914997 101.5899988 112.8120756  15.5057264 102.3295314
 113.7247079  16.3353879 101.0758847 114.8140012  14.9884997 102.2109988
 115.8470012  16.0694997 102.7709988 115.9300012  17.0944997 101.5169988
 116.5060012  16.8514997 100.3259988 115.9810831  17.3875954  99.5460941
 116.3869707  15.7943370 100.1068281 118.0520012  17.1164997 100.2499988
 118.4561805  16.8546910  99.2802853 118.5274265  16.5029042 101.0015627
 118.5360012  18.6084997 100.5329988 117.9480012  19.4414997  99.4269988
 118.1929551  18.9804955  98.4800000 118.3916774  20.4246619  99.4784121
 116.8811159  19.5171466  99.5744791 118.1240012  19.0974997 101.8339988
 118.3944596  18.3634309 102.5774429 117.0632482  19.2737176 101.8230237
 118.6546011  20.0211125 102.0148302 120.0360012  18.6134997 100.4099988
 120.4529179  17.9094859 101.1147165 120.4063140  19.6043542 100.6261600
 120.3163512  18.3344242  99.4045358 115.3580012  16.7294997 103.9969988
 117.1350012  15.3014997 102.9039988 114.0330012  14.3774997  99.4529988
 113.9880012  13.3384997  98.6169988 113.4170012  12.2894997  98.7389988
 114.6580012  13.6944997  97.2879988 114.4383196  14.7416113  97.1067523
 115.7350395  13.6357445  97.4238044 114.2090012  12.8234997  96.1549988
 115.0733590  12.7682215  95.5023957 114.0995211  11.8361828  96.5923230
 112.9050012  13.1804997  95.2749988 112.7474844  12.3330534  94.6126716
 112.0753978  13.1743389  95.9776973 112.8590012  14.4824997  94.4789988
 112.6545651  15.3301973  95.1303977 113.7989061  14.7032138  93.9789328
 111.7450012  14.4024997  93.4269988 111.9609270  13.6262267  92.6957824
 110.8081067  14.1186061  93.9024083 111.5480012  15.7034997  92.7239988
 110.4729698  15.8157582  92.5920644 111.8566306  16.4891727  93.4079460
 112.2810012  15.9314997  91.3169988 112.4280734  16.9996756  91.2076833
 113.2737138  15.4932049  91.4106220 111.6090012  15.3474997  90.0989988
 110.7333633  15.8928368  89.7805341 111.9730012  14.2274997  89.3419988
 111.3991117  13.9150724  88.4813885 113.1880012  13.3484997  89.6329988
 113.6418273  13.5573448  90.6002870 113.0328918  12.2760114  89.5957013
 114.2190012  13.7734997  88.4969988 114.3691414  14.8524317  88.4887146
 115.1957118  13.3328908  88.6876795 113.7060012  13.3034997  87.0839988
 113.3550614  12.2800698  87.2164362 112.8255514  13.9000468  86.8616394
 114.6620012  13.3554997  85.9069988 115.1655759  14.3196093  85.8999219
 115.4412403  12.6061705  86.0349720 113.9660012  13.1284997  84.5879988
 113.4989480  12.1455150  84.5741284 113.1593795  13.8423410  84.4451108
 114.9070012  13.1984997  83.4579988 115.2510588  14.2252256  83.3469079
 115.7896272  12.6088843  83.6991606 114.3660012  12.7284997  82.1319988
 115.1781192  12.6741312  81.4112884 114.0227633  11.7053742  82.2688014
 113.2170012  13.5594997  81.5449988 112.8333783  13.1006994  80.6386849
 113.5327821  14.5658155  81.2913220 112.3936972  13.6397104  82.2491847
 105.2250012   8.4924997  84.1479988 105.1605479   8.0893883  83.1421280
 105.2986537   7.6554544  84.8362724 106.1498077   9.0585145  84.2185110
 104.0380012   9.3554997  84.4669988 103.1551862   8.7346246  84.3243281
 104.0018467  10.1194090  83.6950212 103.9770012  10.0214997  85.8899988
 104.9629697  10.4385826  86.0945395 103.8369300   9.2144183  86.6063581
 102.9350012  11.0684997  86.1439988 101.9466500  10.6404729  85.9916667
 103.0279405  11.8773288  85.4209057 103.0080012  11.6614997  87.6029988
 102.5060057  12.6244036  87.6518829 104.0459858  11.8438671  87.8763026
 102.3710012  10.7144997  88.6339988 102.6533782   9.6762735  88.4691758
 101.2838745  10.7425736  88.6032650 102.8560012  11.1614997  90.0429988
 102.2170933  11.9466123  90.4432049 103.8596427  11.5816134  89.9936213
 102.8540012   9.9694997  91.0039988 103.7528757   9.3733335  90.8521387
 102.0138018   9.3153893  90.7784137 102.7800012  10.3844997  92.4109988
 101.8423868  10.9023417  92.6014193 103.5718569  11.0981304  92.6352143
 102.9010012   9.1574997  93.3779988 101.9670091   8.6008479  93.3448833
 103.0006778   9.5260047  94.3986346 104.0710012   8.2324997  93.0629988
 104.9931434   8.8008333  92.9620451 103.9279158   7.7177086  92.1145027
 104.2620012   7.1954997  94.1779988 105.1586690   6.6383384  93.9176584
 103.4316269   6.4989627  94.0780740 104.3350012   7.6564997  95.6149988
 104.4255316   6.8413638  96.3309665 103.5032364   8.2678717  95.9536220
 105.6570012   8.5074997  95.6789988 105.7615113   9.0663204  94.7548007
 106.4948709   7.8169110  95.7254051 105.7530012   9.4594997  96.8489988
 105.6179804   8.9277403  97.7822953 104.9929427  10.2280637  96.7735709
 104.8020012  10.5504997  96.5279988 104.8760012  11.1744997  95.4769988
 103.9170012  10.6634997  97.5669988 102.7340012  11.3484997  97.1249988
 102.5828295  11.0689609  96.0932686 102.9155973  12.4120856  97.1797691
 101.4440012  10.9334997  98.0139988 100.6273721  11.5453254  97.6680505
 101.6930012  11.1904997  99.5499988 101.8191872  12.2518279  99.7157106
 102.6135808  10.6860038  99.8157091 100.5660012  10.6694997 100.3599988
 100.6740012  10.5844997 101.9039988 100.8110012   8.9574997 102.0459988
 100.4540012   8.0074997 101.0629988  99.7248918   8.3927496 100.3621629
  99.9993996   7.1415747 101.5355540 101.7190012   7.4514997 100.3129988
 102.1160009   8.1519339  99.5890981 101.3873956   6.5646719  99.7924690
 102.9310012   7.0084997 101.1819988 103.5950012   8.2914997 101.6049988
 103.7650798   8.8982584 100.7262206 104.5404570   8.0420436 102.0632398
 102.9643534   8.7918953 102.3244462 102.6690012   6.1234997 102.4169988
 102.0485851   5.2926495 102.1178567 102.1933352   6.7153358 103.1784723
 103.6263467   5.7644375 102.7660846 103.8750012   6.2914997 100.3129988
 103.3747761   5.4449792  99.8666133 104.7104472   5.9477776 100.9042136
 104.2295616   6.9569383  99.5391039 101.9280012  11.1374997 102.4089988
  99.4380012  11.0064997 102.5679988 101.1040012   9.5204997  97.8739988
 100.6850012   9.1754997  96.5549988 100.5520012   9.8984997  95.6249988
 100.4560012   7.6764997  96.4759988 101.3553763   7.2366955  96.0573705
 100.3703791   7.2764833  97.4832538  99.2320012   7.3484997  95.6549988
  98.3789375   7.8566849  96.0909932  99.3501605   7.7615586  94.6582773
  98.9220012   5.8094997  95.5619988  98.7914941   5.3939258  96.5579507
  97.9737380   5.6701415  95.0487334 100.0360012   5.0104997  94.7849988
 100.9716131   5.2361155  95.2933627  99.8487105   3.9520512  94.9487398
 100.2360012   5.2564997  93.2559988 100.4943941   6.2947851  93.0582678
 101.0692757   4.6614978  92.8872070  98.9330012   4.8714997  92.4319988
  98.6209931   3.8645126  92.7046322  98.1100936   5.5296205  92.6966081
  99.1510012   4.9424997  90.9029988 100.1073705   4.5120900  90.6297129
  98.3918234   4.3538194  90.3897243  99.0450012   6.3924997  90.4329988
  98.2415927   6.9214600  90.9231925  99.7470012   7.0514997  89.5859988
  99.4348284   8.0771094  89.4507849 100.9370012   6.6534997  88.7439988
 101.5845372   7.5221940  88.6377524 101.5307690   5.8905375  89.2349259
 100.5260012   6.1454997  87.2659988 101.4555219   5.9670828  86.7266811
 100.0611917   5.1705734  87.3999018  99.6270012   7.0094997  86.4389988
  98.6915368   7.1704677  86.9748184 100.0764782   7.9904037  86.3113206
  99.3300012   6.4174997  85.0939988 100.2731548   6.3106803  84.5627778
  98.9474675   5.4089081  85.2406139  98.3130012   7.2344997  84.2209988
  98.8593909   8.0637911  83.7756631  98.0017798   6.6048775  83.3919377
  97.0630012   7.8184997  84.9459988  96.5566888   7.0043191  85.4614023
  97.4096305   8.4979725  85.7225287  96.0370012   8.5574997  84.0749988
  96.4866845   9.3301196  83.4563241  95.5559883   7.8681636  83.3845239
  94.9690012   9.1804997  84.9689988  94.1835053   9.6342729  84.3722115
  95.3777882   9.9539395  85.6104229  94.5086764   8.4316646  85.6073467
 107.2560012  16.4714997  79.4059988 107.2615014  16.9745745  78.4440661
 108.0145768  16.9377610  80.0280545 106.2910617  16.6563389  79.8700443
 107.5250012  14.9024997  79.2429988 108.4832069  14.7659122  78.7446128
 106.7719125  14.4966733  78.5729417 107.5290012  14.1094997  80.5909988
 107.4875459  13.0344564  80.4163778 106.6458646  14.3534781  81.1781235
 108.7380012  14.4294997  81.4009988 108.9405844  15.4851956  81.2345171
 109.5691445  13.8884859  80.9513202 108.7190012  14.1714997  82.8819988
 108.2648132  13.2111288  83.1121598 108.1202432  14.9231259  83.3937720
 110.1400012  14.1934997  83.4409988 110.6474793  15.0774215  83.0589450
 110.6808721  13.3369659  83.0442804 110.2270012  14.1814997  84.9719988
 111.2587463  14.2273466  85.3157576 109.8071076  13.2679508  85.3907444
 109.4660012  15.3754997  85.5129988 108.4209123  15.2823310  85.2204926
 109.8386394  16.2751409  85.0267167 109.5520012  15.5514997  87.0389988
 109.3484309  16.5889552  87.2954870 110.5702891  15.3511925  87.3699725
 108.5840012  14.6404997  87.8019988 109.0455064  14.3894473  88.7545137
 108.4944788  13.7050903  87.2502524 107.1270012  15.2484997  88.0439988
 106.6047742  15.3268112  87.0928483 107.2026521  16.2629661  88.4316361
 106.2620012  14.3964997  89.0069988 105.9769241  13.5000258  88.4617605
 105.3434263  14.9562468  89.1730508 106.8610012  14.0174997  90.3739988
 107.6764709  13.3121084  90.2233854 106.1249143  13.5051626  90.9871553
 107.4160012  15.2264997  91.1579988 106.6551490  15.9989154  91.2006957
 108.2486620  15.6361808  90.5923759 107.8940012  14.9174997  92.5669988
 108.6309718  14.1246035  92.5518014 107.0621899  14.6072481  93.1882097
 106.6580012  14.9204997  93.4669988 105.5720012  14.9304997  93.0859988
 107.1200012  14.9164997  94.6839988 106.1990012  14.5134997  95.6809988
 105.6175046  13.7621001  95.1684342 105.5424772  15.3079747  96.0050014
 106.9570012  13.8764997  96.9019988 106.1987279  13.5164626  97.5774905
 107.7930012  14.9424997  97.5859988 107.1175302  15.7224818  97.9102947
 108.4405185  15.3424362  96.8157020 108.5430012  14.4764997  98.6529988
 107.7260012  14.2504997  99.9879988 108.8370012  13.7444997 100.9989988
 108.5430012  13.7284997 102.4219988 107.5431401  13.3757123 102.6388119
 108.6096250  14.7338594 102.8277205 109.6430012  12.8754997 103.2259988
 109.1740033  12.6886346 104.1837939 110.4849936  13.5360627 103.3745993
 110.2340012  11.5344997 102.7829988 110.6980012  11.5784997 101.3139988
 109.8877292  11.9588479 100.7072627 110.9377973  10.5704477 101.0099773
 111.5795814  12.1978019 101.2433021 111.4700012  11.2674997 103.7069988
 111.1663729  11.4042201 104.7335617 112.2620261  11.9432354 103.4378377
 111.7795704  10.2451361 103.5450213 109.1500012  10.5344997 102.9629988
 108.8374486  10.5310444 103.9966239 109.5209219   9.5569645 102.6937538
 108.3137803  10.7909346 102.3286402 107.1840012  15.5664997 100.4069988
 106.7460012  13.1264997  99.7179988 107.7370012  12.7134997  96.4849988
 106.9780012  11.6114997  96.3209988 105.7750012  11.4944997  96.6449988
 107.8740012  10.5084997  95.7869988 108.8388788  10.7078865  96.2417614
 107.5167711   9.5867391  96.2393825 107.9730012  10.3754997  94.2979988
 108.0830421   9.3290600  94.0354800 107.0510897  10.7067907  93.8307103
 109.1510012  11.1584997  93.7309988 109.0913732  12.2076019  94.0093564
 110.0799651  10.7848071  94.1546081 109.2200012  11.0224997  92.2039988
 109.0167130   9.9985352  91.8959782 108.4880035  11.6442160  91.6942438
 110.6140012  11.4024997  91.7159988 110.8868715  12.4239429  91.9730912
 111.3820311  10.7653898  92.1502822 110.6440012  11.2334997  90.1649988
 110.5374374  10.1893906  89.8748586 109.8415068  11.7728029  89.6695465
 111.9560012  11.7564997  89.6609988 112.2313650  12.6023553  90.2800973
 112.7018982  10.9848036  89.8466566 111.9910012  12.1114997  88.2289988
 112.0684242  13.1623639  87.9939582 111.9500012  11.2744997  87.2189988
 112.0461167  11.6833003  86.2233814 111.7880012   9.7864997  87.2549988
 112.5835516   9.3374803  86.6627976 111.8997953   9.3950797  88.2599731
 110.4200012   9.3214997  86.6669988 110.3369057   8.2383867  86.7486469
 109.6162439   9.7338911  87.2739308 110.2070012   9.7584997  85.1479988
 110.1019543  10.8433367  85.1338299 111.1219501   9.5349177  84.6063499
 109.0400012   9.1394997  84.4349988 108.8784781   9.7154569  83.5265228
 109.3393977   8.1431771  84.1143930 107.7080012   9.0404997  85.2479988
 107.0856287   8.2857326  84.7709566 107.9406078   8.6522692  86.2358228
 106.8770012  10.3304997  85.3709988 105.9659774  10.1547697  85.9402419
 107.4288941  11.0959692  85.9134972 106.5000012  10.8794997  84.0239988
 107.4118850  11.1505754  83.4977852 106.0713441  10.0503174  83.4654087
 105.5140012  12.0644997  83.9859988 105.2511010  12.3144895  82.9625450
 105.9332759  12.9556234  84.4408043 104.5954928  11.8253152  84.5144627
   5.4260012 119.6794997  84.2619988   4.9228343 120.1448428  83.4201508
   5.7343626 118.6843428  83.9548083   6.3253172 120.2534918  84.4678521
   4.5000012 119.6214997  85.5129988   3.5973097 119.0619394  85.2737425
   4.1770046 120.6271261  85.7683469   5.2040012 118.9594997  86.7329988
   6.1071045 119.4897642  87.0349141   5.5123341 117.9385447  86.5167749
   4.2270012 118.9314997  87.8959988   3.2073104 118.7813990  87.5482193
   4.2219799 119.8697226  88.4486456   4.6130012 117.7284997  88.8919988
   4.6813337 116.8157353  88.3056841   3.7737363 117.5926446  89.5721038
   5.9080012 117.8944997  89.7099988   6.6989866 118.2062390  89.0303094
   6.1983097 116.9157768  90.0860300   5.8280012 118.8734997  90.8699988
   5.9423927 119.8965582  90.5163948   6.6419548 118.7017775  91.5730073
   4.5270012 118.7424997  91.5829988   4.2662826 117.6888577  91.6741880
   3.7377309 119.2006292  90.9898261   4.5470012 119.3924997  93.0019988
   5.3318550 118.9055034  93.5767857   3.6088123 119.1397838  93.4944552
   4.7500012 120.9094997  93.0499988   3.9583912 121.3469190  92.4455842
   5.6835899 121.1199181  92.5288796   4.7830012 121.5664997  94.4159988
   5.6101154 121.0862233  94.9344172   3.8766805 121.2315315  94.9175037
   4.9240012 123.0934997  94.5859988   4.0768989 123.5590286  94.0880836
   5.8086967 123.3995843  94.0307548   5.0440012 123.6184997  96.0339988
   5.2379149 124.6891888  95.9983032   5.9045643 123.1695714  96.5220238
   3.8160012 123.3944997  96.8929988   3.6354262 122.3393758  97.0703437
   2.9301083 123.7867681  96.4006459   3.9850012 124.1154997  98.2479988
   4.1995639 125.1654583  98.0944058   4.7977050 123.6733757  98.8120092
   2.6260012 124.4074997  98.9989988   1.8070012 125.1834997  98.5149988
   2.4410012 123.6094997 100.0609988   1.1340012 123.7024997 100.7229988
   0.6390659 124.5372821 100.2500935   1.1390234 123.8546641 101.7925841
   0.3990012 122.3354997 100.3429988  -0.6030420 122.3937730 100.7346718
   1.1360012 121.1764997 100.9839988   0.5327080 120.2849415 100.8792975
   1.2295577 121.4103956 102.0371487   2.4530012 120.9744997 100.3889988
   2.7380012 119.5914997  99.5179988   3.9730012 118.9504997 100.2499988
   4.7310012 119.6044997 101.2439988   4.9686123 120.6070474 100.9128976
   5.6765023 119.0773466 101.3330726   4.1330012 119.6174997 102.6829988
   3.2693675 120.2692869 102.6435120   4.8690034 120.0557383 103.3415006
   3.6490012 118.3144997 103.3889988   2.4130012 117.7674997 102.6829988
   1.6890120 118.5649629 102.5869464   2.0035951 116.9761807 103.2931635
   2.7050325 117.3703490 101.7224229   4.7900012 117.2794997 103.3459988
   5.6939515 117.7510120 103.6999252   4.9017204 116.9218063 102.3380582
   4.5141207 116.4670776 104.0026246   3.3060012 118.6314997 104.8269988
   4.1765033 119.0398402 105.3184924   3.0001231 117.7247366 105.3268681
   2.4991157 119.3495256 104.8554518   1.6970012 118.5714997  99.7169988
   3.2890012 119.9224997  98.1359988   0.2690012 122.2194997  98.8699988
  -0.8279988 121.4214997  98.4819988  -1.5929988 120.8804997  99.2169988
  -0.9029988 121.4084997  97.0019988  -1.7807837 120.8445004  96.7037513
  -1.0513539 122.4146990  96.6179928   0.4350012 120.7704997  96.4319988
   1.2120754 121.5242723  96.4955866   0.7400408 119.9682235  97.0963306
   0.3540012 120.2404997  94.9599988   1.2490734 119.6618976  94.7461779
  -0.4783387 119.5433054  94.9034693   0.1610012 121.3124997  93.8999988
  -0.8794680 121.6317479  93.8854919   0.7483059 122.2004690  94.1208732
   0.5210012 120.8234997  92.5369988   1.6013442 120.7080667  92.4783893
   0.1027875 119.8261934  92.4151033   0.0230012 121.7324997  91.3359988
   0.1368935 121.1729216  90.4088515  -1.0393411 121.9321252  91.4450703
   0.7450012 123.0364997  91.2179988   0.5906227 123.5984431  92.1317640
   1.8121676 122.8252349  91.1644361   0.3440012 123.8654997  89.9809988
  -0.6976579 124.0680008  89.7822687   1.2330012 124.3704997  89.1289988
   0.9604694 124.9494115  88.2582534   2.7680012 124.1784997  89.3089988
   3.2498066 125.0599850  88.8893940   3.0188616 124.1686175  90.3638222
   3.3770012 122.9104997  88.6169988   4.2079390 122.5489695  89.2216005
   2.6251168 122.1238275  88.6336056   3.8540012 123.1274997  87.1609988
   4.4629472 124.0314312  87.1468726   4.5193804 122.3090216  86.9004834
   2.7490012 123.2454997  86.1009988   2.2628501 122.2732473  86.1400816
   2.0465915 123.9545753  86.5356451   3.0230012 123.6344997  84.6459988
   3.7331194 124.4592893  84.6526369   3.5343571 122.8065399  84.1626534
   1.7860012 124.0714997  83.7929988   1.1053462 124.6932952  84.3717578
   2.0906132 124.6724262  82.9380527   1.0210012 122.8634997  83.2839988
   0.9628391 122.1221686  84.0770690  -0.0019179 123.1886144  83.1072220
   1.5520012 122.2084997  82.0159988   0.8898492 121.4134741  81.6865170
   2.5340304 121.7725820  82.1654490   1.6307601 122.9297612  81.2074694
  58.3270012 141.6584997  84.6319988  58.2596364 140.7247938  84.0823767
  59.3420609 142.0310937  84.5289578  57.6641158 142.3731161  84.1518754
  57.9570012 141.4664997  86.0949988  58.6195788 140.7312576  86.5484445
  56.9531525 141.0561749  86.1638131  58.0470012 142.8014997  86.8969988
  57.2660672 142.8755062  87.6536983  57.9154615 143.6615483  86.2434051
  59.4580012 142.9134997  87.5929988  59.5761646 143.9354376  87.9464536
  60.2307984 142.7634782  86.8406797  59.7140012 141.9024997  88.8349988
  60.7570651 141.9533434  89.1366702  59.5434767 140.8821220  88.4957114
  58.8560012 142.1754997  90.0189988  59.0170603 141.4177097  90.7836106
  57.8048493 142.1130815  89.7455748  59.1410012 143.5504997  90.6059988
  58.5490534 144.3314352  90.1321766  60.1831761 143.8424855  90.4841555
  58.7910012 143.4934997  92.1509988  59.4899727 142.8216402  92.6474810
  57.8042045 143.0513594  92.2752099  58.8240012 144.8904997  92.8609988
  58.2478424 145.6257580  92.3033454  59.8405472 145.2782938  92.9141661
  58.2550012 144.7684997  94.2779988  58.7156879 143.9290037  94.7940543
  57.1872437 144.5543938  94.2395062  58.4840012 146.0754997  95.0809988
  59.5104484 146.4024750  94.9292285  58.3872202 145.8678349  96.1452529
  57.5760012 147.1964997  94.7149988  57.1105334 146.9868828  93.7549886
  58.1667193 148.0999796  94.5755493  56.4970012 147.4734997  95.7779988
  55.8523342 148.2395002  95.3503309  56.9970031 147.9348215  96.6250254
  55.5520012 146.2654997  96.3139988  55.2547136 145.6432184  95.4763048
  54.6430330 146.7011032  96.7203465  56.2010012 145.3784997  97.4009988
  56.5361195 145.9837516  98.2337093  57.0518621 144.8449143  96.9943154
  55.0430012 144.5984997  98.0469988  54.6920012 144.6504997  99.1839988
  54.6140012 143.6954997  97.1069988  53.6810012 142.6304997  97.5649988
  53.0377092 142.4938547  96.7088646  53.0882617 142.9719276  98.4012277
  54.4280012 141.2734997  97.9139988  53.8459474 140.4105419  97.6357699
  54.7060012 141.2504997  99.4219988  54.7955349 140.2076817  99.6946074
  53.8035343 141.6494565  99.8680615  55.8370012 141.9764997  99.8639988
  57.3740012 141.4994997  99.9029988  57.9290012 142.0804997 101.2729988
  57.2920012 141.9524997 102.5109988  57.9019645 141.4115591 103.2226989
  56.3788949 141.3772561 102.3880000  56.8410012 143.3084997 103.0869988
  56.9126893 143.1657975 104.1578610  55.8125739 143.5211831 102.8330692
  57.6000012 144.5534997 102.7929988  59.1880012 144.4714997 102.8999988
  59.4477565 144.0417223 103.8576796  59.5787061 145.4760500 102.8342100
  59.5646736 143.8815382 102.0779402  57.3060012 144.9364997 101.3739988
  56.2362711 144.9284179 101.2314288  57.7958905 144.2427260 100.7144106
  57.6927238 145.9337876 101.2218163  57.1980012 145.7444997 103.6329988
  56.1472781 145.9452619 103.4854941  57.7767784 146.6039819 103.3297543
  57.3870507 145.5310817 104.6751830  57.3750012 140.0324997  99.9769988
  58.1180012 142.2664997  98.8649988  55.6450012 141.2414997  97.0459988
  56.0890012 140.0284997  96.8289988  55.5980012 138.9544997  97.2159988
  57.4480012 140.0724997  96.0759988  58.1570926 140.5093308  96.7716430
  57.7745447 139.0468565  95.9232492  57.4010012 140.8114997  94.7979988
  57.0048064 141.7975125  95.0144922  58.4234384 140.9648021  94.4676151
  56.6030012 140.1954997  93.7029988  57.0305660 140.4142484  92.7278109
  56.6054566 139.1125256  93.7990517  55.0900012 140.7094997  93.7659988
  54.5101801 140.2723276  92.9552003  54.5969102 140.4105600  94.6877896
  55.0190012 142.2724997  93.6369988  55.1562380 142.7125186  94.6226206
  55.8672440 142.5993271  93.0386269  53.7030012 142.8374997  92.9929988
  53.5983413 142.4667037  91.9745403  52.8247849 142.4975939  93.5347721
  53.7060012 144.3944997  92.9759988  52.8102156 144.6872312  92.4407825
  53.5579432 144.6987727  94.0112971  54.9440012 145.1194997  92.4229988
  55.6521192 145.3506990  93.2044523  55.2730012 145.4834997  91.1709988
  56.2015679 145.9918353  90.9542763  54.4130012 145.2284997  89.9569988
  54.3199291 144.1509160  89.8330144  53.4072025 145.6047928  90.1068441
  55.0110012 145.8364997  88.6079988  54.9341951 146.9228096  88.5808594
  56.0693493 145.6046766  88.5049638  54.2230012 145.2214997  87.3839988
  54.1984972 144.1333747  87.4430793  53.1868955 145.5483882  87.3724690
  54.9030012 145.6394997  86.0809988  55.0871072 146.7084652  86.1620090
  55.8814165 145.1624142  86.0676639  54.1810012 145.3354997  84.7819988
  54.6619941 145.8602561  83.9586723  54.2509876 144.2782403  84.5413133
  52.6800012 145.7774997  84.8229988  52.6134728 146.6438300  85.4786883
  52.4206756 146.1321602  83.8271071  51.6090012 144.7324997  85.2709988
  51.9636322 143.7120090  85.1495462  51.4060173 144.8508120  86.3331253
  50.3370012 144.9074997  84.5189988  49.5707491 144.2370732  84.8964311
  50.4591516 144.6989617  83.4614865  49.9637917 145.9232886  84.6140177
  93.6280012   5.0524997  83.8669988  93.3285921   5.6421449  83.0061261
  93.3042921   4.0297386  83.6968159  94.7138819   5.0516103  83.9053936
  93.0210012   5.6244997  85.1839988  91.9377466   5.6392127  85.0765458
  93.3334566   6.6618634  85.2680355  93.3810012   4.8774997  86.4259988
  94.4653075   4.8524209  86.5336087  93.0653029   3.8419499  86.3158067
  92.7520012   5.4474997  87.7219988  92.7670949   6.5347016  87.6901529
  93.3426001   5.1631634  88.5915111  91.2870012   4.9774997  87.9199988
  91.2447951   3.9818711  88.3541824  90.7726524   4.9152764  86.9624296
  90.5100012   5.9834997  88.8659988  89.5644833   5.5513436  89.1885729
  90.2599450   6.8966699  88.3301173  91.3590012   6.3374997  90.1069988
  90.8595174   7.0955560  90.7075291  92.3134125   6.7676095  89.8064418
  91.6150012   5.0854997  90.9759988  92.0623726   4.3329860  90.3278993
  90.6424189   4.6946298  91.2692369  92.5000012   5.2624997  92.2439988
  93.5037946   5.5765513  91.9659497  92.6125782   4.3125696  92.7650902
  91.8840012   6.3074997  93.2119988  90.9053432   5.9505502  93.5252314
  91.7101046   7.2323780  92.6626455  92.7650012   6.6114997  94.4599988
  92.3529321   7.4653593  94.9935377  93.7666319   6.9038513  94.1495242
  92.8660012   5.3824997  95.4779988  93.9194530   5.2825434  95.7279328
  92.6047874   4.4964331  94.9023918  92.0010012   5.4034997  96.7849988
  92.3745766   6.1744053  97.4568602  92.0831418   4.4640117  97.3243404
  90.5280012   5.6924997  96.5099988  90.1681482   5.0621260  95.7034754
  90.4274511   6.7211294  96.1739889  89.6780012   5.5014997  97.6859988
  90.0388957   6.0967524  98.5151371  89.6725607   4.4593303  97.9825158
  89.7030012   4.0594997  98.1829988  89.4190012   3.0964997  97.4789988
  89.8750012   4.0484997  99.5719988  89.6970012   2.7804997 100.2319988
  89.4684592   2.1166134  99.4119465  88.8342963   2.8535670 100.8782135
  90.9830012   2.2434997 101.0439988  90.6556598   1.4364821 101.6783995
  91.5750012   3.3934997 101.9129988  92.4809790   3.0209461 102.3714844
  90.8442550   3.5799726 102.6900591  91.8450012   4.6094997 101.1709988
  92.8000012   5.6724997 101.7619988  94.2880012   5.0224997 101.7979988
  94.9450012   5.0374997 100.5019988  95.1491531   6.0529478 100.1883492
  94.2649480   4.6185997  99.7658958  96.1970012   4.1794997 100.4219988
  97.0263658   4.8361126 100.6527859  96.3300623   3.7899049  99.4230555
  96.3430012   2.9604997 101.3789988  96.5510012   3.3154997 102.8209988
  97.3641324   4.0251908 102.8880069  96.8119256   2.4122727 103.3522233
  95.6313989   3.7173654 103.2191856  95.1590012   2.0844997 101.4119988
  94.8806535   1.8460975 100.3969121  94.3631154   2.5893202 101.9297749
  95.4375841   1.1846200 101.9410593  97.4960012   2.1274997 100.9209988
  97.3225516   1.8087082  99.9039593  97.5852080   1.2626976 101.5611624
  98.4045630   2.7100326 100.9720448  92.7840012   6.7974997 100.8329988
  92.3720012   5.8904997 103.1579988  91.9850012   1.7254997 100.1369988
  91.6770012   0.6024997  99.4609988  90.7130012  -0.1115003  99.6669988
  92.8130012   0.1924997  98.5139988  93.6796296   0.0781774  99.1569907
  92.5740205  -0.8060377  98.1566217  93.0900012   1.1534997  97.3359988
  92.1647196   1.3057247  96.7912580  93.3710598   2.1258939  97.7277748
  94.1180012   0.6744997  96.4099988  94.9602822   0.2890448  96.9788935
  93.7114317  -0.1706863  95.8600652  94.6090012   1.7444997  95.3859988
  93.7323057   2.1811506  94.9111861  95.1033635   2.5553051  95.9155292
  95.5430012   1.2284997  94.2899988  96.0772563   2.0944761  93.9045674
  96.2856557   0.6153809  94.7968820  94.9480012   0.4074997  93.0909988
  95.7242533   0.2030114  92.3552555  94.5761676  -0.5585318  93.4209093
  93.8120012   1.1634997  92.4249988  93.1434286   0.4160141  92.0140777
  93.2647131   1.6566957  93.2272329  94.1760012   2.1864997  91.3949988
  94.5209931   3.1216227  91.8098234  94.1420012   2.0904997  90.1009988
  94.4976472   2.9726614  89.5882448  93.7020012   0.9744997  89.1769988
  94.3576926   0.9680020  88.3079490  93.8090354   0.0024163  89.6452707
  92.2650012   1.1474997  88.6899988  91.6221599   1.4068011  89.5303695
  92.2223957   1.9913108  88.0039765  91.7150012  -0.0955003  87.9919988
  91.2842861  -0.7334544  88.7637540  90.8877857   0.2197519  87.3620507
  92.7310012  -0.9305003  87.1399988  93.5048916  -1.3180458  87.7988213
  92.2236028  -1.7986858  86.7230024  93.3740012  -0.1155003  85.9919988
  93.5498510   0.9104542  86.3099360  94.3488573  -0.5150211  85.7261723
  92.4750012  -0.0775003  84.7659988  92.3305221  -1.0659727  84.3336435
  91.4806272   0.2964695  85.0030661  93.1270012   0.8794997  83.6479988
  93.3495040   1.8592067  84.0634282  94.0853956   0.4595599  83.3506041
  92.2730012   1.0374997  82.4299988  92.7888214   1.6167578  81.6700918
  91.3416335   1.5477641  82.6511897  92.0256690   0.0716757  81.9985456
 127.5040012  23.3604997  83.0589988 127.9877150  22.7745446  82.2836881
 127.2059159  22.6798864  83.8512745 128.2453341  24.0398407  83.4707429
 126.3300012  24.1094997  82.5199988 125.6270347  23.3982102  82.0897564
 126.6681817  24.7380061  81.7005919 125.6040012  24.9624997  83.5769988
 124.7718302  25.4879494  83.1086794 126.2856113  25.7332152  83.9313660
 125.0880012  24.1754997  84.7879988 125.8559070  23.4528629  85.0551444
 124.2244217  23.5937841  84.4693396 124.7190012  24.9914997  86.0459988
 123.8279590  25.5838236  85.8542457 125.5179075  25.7006775  86.2561901
 124.4830012  24.1344997  87.2619988 125.3293365  23.4614558  87.3866798
 123.6155400  23.5025672  87.0838148 124.2760012  24.9154997  88.5349988
 123.7632208  24.2654463  89.2415799 123.5865489  25.7293557  88.3147174
 125.5770012  25.5034997  89.2159988 125.2653957  26.0586468  90.0998340
 126.0069435  26.2345950  88.5338454 126.6780012  24.4644997  89.6199988
 127.6543278  24.9171299  89.4604584 126.6208396  23.6176178  88.9372831
 126.5810012  23.9464997  91.0949988 125.6038049  23.4750143  91.1730252
 126.5406520  24.8378565  91.7205256 127.6750012  22.9924997  91.6379988
 128.5512674  23.0718974  90.9981593 127.3293017  21.9639052  91.5507443
 128.1250012  23.2704997  93.1429988 127.2596147  23.0846747  93.7745005
 128.3319543  24.3365056  93.2169701 129.3780012  22.4734997  93.6879988
 129.5027650  22.7408108  94.7359638 130.2681712  22.8275820  93.1756542
 129.3230012  20.9814997  93.5959988 130.2768396  20.6071176  93.9528956
 129.2713827  20.7503384  92.5353424 128.1880012  20.2374997  94.3139988
 127.2253687  20.6184897  93.9974132 128.2751451  20.3611242  95.3869349
 128.1080012  20.4334997  95.8359988 128.4950012  19.6534997  96.6639988
 127.6290012  21.6644997  96.1089988 127.7480012  22.0774997  97.5009988
 128.7334850  21.7967744  97.8408179 127.0089423  21.5513643  98.0876551
 127.5570012  23.6154997  97.6149988 128.5099367  24.1087719  97.5175800
 126.8820012  24.0394997  98.9259988 127.0933980  25.0918608  99.0588458
 127.3962683  23.4820564  99.6988968 125.4950012  23.8034997  98.9909988
 124.8200012  23.9334997 100.4189988 125.5100012  22.7994997 101.2919988
 126.1180012  21.5204997 100.9129988 127.1009924  21.7190875 100.5062064
 125.5217123  21.1223004 100.0971103 126.1720012  20.3704997 101.9839988
 126.8149283  20.6713758 102.8015361 126.5524489  19.4508944 101.5633295
 124.8440012  20.0204997 102.6129988 123.6830012  19.7644997 101.7189988
 123.5925749  20.5894755 101.0257658 122.7963722  19.7063149 102.3326792
 123.8335051  18.8245446 101.2095383 125.0220012  18.7914997 103.5109988
 125.8650574  18.9624425 104.1627262 125.1719714  17.9241273 102.8933062
 124.1187149  18.6837593 104.0938906 124.4950012  21.2204997 103.4979988
 125.2813053  21.3680616 104.2232803 123.5636998  21.0259002 104.0083504
 124.3928569  22.1037659 102.8841240 125.1050012  25.2714997 100.9519988
 123.3860012  23.5634997 100.2899988 126.7380012  23.9904997  96.5329988
 126.8570012  25.2114997  96.0779988 127.6300012  26.0444997  96.4939988
 125.9270012  25.3904997  94.9679988 126.4602635  25.8938454  94.1681067
 125.6414996  24.4198049  94.5703210 124.6640012  26.2044997  95.4369988
 123.9953302  25.5691422  96.0073153 124.9454448  27.0160718  96.1004542
 123.8750012  26.7894997  94.1619988 123.1367983  27.4988189  94.5274803
 124.5937828  27.3688719  93.5877639 123.2000012  25.7584997  93.2149988
 122.8888980  26.3082448  92.3286010 123.9598016  25.0543231  92.8847858
 122.0000012  24.9774997  93.7409988 122.3279603  24.3315814  94.5528691
 121.3018841  25.6867743  94.1813884 121.2690012  24.1574997  92.7159988
 120.5032888  23.5805987  93.2323038 120.7448486  24.8236767  92.0364473
 122.1530012  23.2044997  91.8879988 121.5222308  22.7456714  91.1355458
 122.8720408  23.8215151  91.3507651 122.9150012  22.1494997  92.6849988
 123.3257388  22.4837383  93.6258139 123.1200012  20.8364997  92.3449988
 123.7103300  20.1981918  92.9866255 122.5900012  20.1544997  91.1309988
 122.4540372  19.0895986  91.3118867 121.6313322  20.5293261  90.7902054
 123.6140012  20.3204997  90.0309988 123.8194787  21.3738179  89.8439032
 124.5619146  19.8743287  90.3257031 123.1350012  19.6704997  88.7639988
 123.0542177  18.6006137  88.9561578 122.1252009  20.0211799  88.5694971
 123.9890012  19.8924997  87.5389988 123.4278451  20.5629597  86.8919036
 124.8686715  20.4466644  87.8617472 124.4340012  18.6514997  86.7489988
 125.0727292  18.0379397  87.3815812 123.5699102  18.0360763  86.5139969
 125.2100012  18.9754997  85.4699988 124.7672453  19.8506829  84.9978710
 126.2266388  19.2584477  85.7368739 125.2770012  17.8194997  84.4129988
 125.9385114  17.0599576  84.8221626 124.2820295  17.3798333  84.4191573
 125.6850012  18.1224997  82.9279988 125.5955186  17.2312655  82.3141880
 126.7104077  18.4681217  82.8516590 125.0459905  18.8873470  82.4957779
  40.2140012 139.4744997  84.6399988  39.9880787 138.9535909  83.7147734
  39.2767897 139.6436733  85.1623062  40.8173877 138.8112871  85.2537461
  40.9360012 140.7774997  84.3749988  40.3170523 141.4049361  83.7359144
  41.8419555 140.5686935  83.8124503  41.2800012 141.5524997  85.6689988
  40.3465243 141.7565170  86.1933334  41.6742625 142.5210975  85.3680881
  42.2690012 140.9064997  86.6349988  43.1844196 140.7461625  86.0697103
  41.8818622 139.9160269  86.8690782  42.6180012 141.6344997  87.9349988
  41.7207817 141.9850692  88.4386566  43.2140441 142.5201061  87.7209918
  43.4260012 140.6844997  88.9229988  44.3080175 140.2958634  88.4172062
  42.8172454 139.8202509  89.1800348  43.8590012 141.4094997  90.2229988
  43.0950364 142.1303464  90.5084945  44.7643802 141.9845758  90.0337735
  44.1080012 140.4394997  91.3969988  44.9512891 139.7905465  91.1642408
  43.2470638 139.7856072  91.5230760  44.3870012 141.1834997  92.7349988
  43.5822772 141.8911525  92.9225831  45.2945166 141.7767432  92.6298562
  44.5280012 140.2704997  93.9109988  45.4711455 139.7329054  93.8419319
  43.7433695 139.5147392  93.8863353  44.4520012 141.0464997  95.2679988
  44.3874918 140.3102198  96.0662917  43.5161638 141.6021178  95.2929974
  45.5840012 141.9734997  95.5729988  45.6664210 142.6430836  94.7203069
  46.4831912 141.3602483  95.5659152  45.5500012 142.8214997  96.9429988
  46.2578168 143.6467922  96.8869515  45.8530654 142.2180494  97.7940415
  44.1790012 143.4004997  97.2119988  44.1804282 144.0116793  98.1085491
  43.4644638 142.5988535  97.3790072  43.6860012 144.2634997  96.0009988
  43.7081107 143.6825360  95.0877445  44.3192846 145.1336428  95.8750142
  42.1730012 144.5874997  96.0829988  41.5980012 145.5514997  95.6269988
  41.5060012 143.6324997  96.7619988  40.0950012 143.8854997  97.0779988
  39.6733990 144.0315053  96.0949444  39.9592064 144.7868354  97.6579519
  39.4090012 142.6384997  97.7929988  38.3561307 142.8190413  97.9335781
  40.1110012 142.4014997  99.2039988  39.5066049 141.7379490  99.8074941
  40.1830407 143.3581474  99.7062143  41.3980012 141.8524997  99.0029988
  42.0400012 140.7774997  99.9199988  42.4940012 141.3664997 101.3579988
  43.0410012 142.6874997 101.2929988  43.4647870 142.8798411 100.3159628
  43.8598080 142.7580129 102.0031961  42.0460012 143.8144997 101.7029988
  41.2878012 143.9149625 100.9366509  42.5704243 144.7543573 101.7979988
  41.2780012 143.6204997 103.0319988  42.2770012 143.2964997 104.0389988
  42.8884566 142.4845385 103.6699794  41.7591766 142.9842528 104.9336828
  42.8625657 144.1790836 104.2484669  40.5500012 144.8814997 103.3869988
  39.9886826 145.2074980 102.5248152  41.2640009 145.6241829 103.6952129
  39.8780860 144.6485521 104.2003637  40.2720012 142.5254997 103.0109988
  39.5518523 142.7191728 102.2300005  39.7691800 142.4874308 103.9656567
  40.7679921 141.5835646 102.8261035  40.9810012 139.7964997 100.1769988
  43.2490012 140.2484997  99.2569988  39.4910012 141.5104997  96.8339988
  39.1220012 140.3504997  97.2969988  38.4230012 140.2294997  98.2789988
  39.8960012 139.2244997  96.5999988  40.5107403 138.7725756  97.3716292
  39.1753891 138.4637778  96.3102965  40.7200012 139.6764997  95.4109988
  41.3603068 140.4799188  95.7582557  41.3822750 138.8594130  95.1430513
  39.9070012 140.1744997  94.1059988  39.4044077 139.3282073  93.6446496
  39.1221601 140.8549790  94.4269931  40.7880012 140.8954997  93.0679988
  41.1402857 141.8069384  93.5474578  41.6692648 140.2821983  92.8964244
  40.1520012 141.2824997  91.6659988  40.9192044 141.3447323  90.8969557
  39.4626955 140.5043703  91.3438912  39.3830012 142.6284997  91.7359988
  39.0882072 142.9130606  90.7271268  38.4629614 142.4969044  92.2986066
  40.1890012 143.7734997  92.3719988  40.5144936 143.5469045  93.3806064
  41.0896419 143.9986979  91.8023690  39.2920012 144.9804997  92.3499988
  38.5549765 145.1056667  93.1288966  39.3610012 145.9614997  91.3899988
  38.6519524 146.7736456  91.4626542  40.3360012 146.0784997  90.1889988
  41.3137359 145.7222688  90.5089291  40.0320198 145.4362517  89.3699787
  40.4970012 147.5554997  89.6639988  39.5715268 147.9302550  89.2283835
  40.7449926 148.2333302  90.4785569  41.6410012 147.6024997  88.5859988
  41.9684608 148.6282951  88.4168215  42.5181601 147.0548009  88.9193487
  41.1610012 147.0334997  87.3209988  40.6104178 146.1164412  87.5184997
  40.4570707 147.7147221  86.8461274  42.3300012 146.7484997  86.3479988
  42.0315246 146.9511338  85.3211389  43.1782455 147.3985701  86.5442509
  42.7640012 145.2784997  86.4319988  43.1914725 145.0820136  87.4136018
  41.8866721 144.6392497  86.3514564  43.7780012 144.8494997  85.3639988
  44.6523808 145.4895287  85.4519645  44.1107500 143.8533220  85.6472323
  43.3370012 144.8184997  83.9739988  44.1149138 144.4167940  83.3316956
  43.0895847 145.8080954  83.6049103  42.4562997 144.1932329  83.8576057
 144.3830012  63.8454997  83.4839988 145.2194420  63.9816785  82.8055807
 144.7543432  63.3392185  84.3703252 144.0399793  64.8307835  83.7875834
 143.2820012  63.0684997  82.8389988 143.7060763  62.1180834  82.5195113
 143.0120242  63.6025170  81.9319420 142.0240012  62.8014997  83.6919988
 141.1950949  62.6710896  82.9964152 141.8223295  63.7250626  84.2310080
 142.0280012  61.6474997  84.6929988 142.3017748  61.9982376  85.6856119
 142.7619077  60.8877443  84.4286901 140.6570012  61.0154997  84.7649988
 140.5735399  60.1732012  84.0829867 139.8921968  61.7294447  84.4637983
 140.3540012  60.5154997  86.2379988 139.2917883  60.3087452  86.3553593
 140.5936099  61.2946755  86.9584497 141.1420012  59.2744997  86.5679988
 142.1951487  59.5485900  86.5909060 141.0264847  58.5795623  85.7373677
 140.7750012  58.5634997  87.8779988 141.4361196  57.7095496  88.0199241
 139.7680705  58.1581840  87.7974145 140.8570012  59.4914997  89.1299988
 140.2581543  60.3758530  88.9230143 141.8867373  59.8358563  89.2174000
 140.4100012  58.8734997  90.4749988 140.5676468  57.7975933  90.4454625
 139.3383043  59.0214925  90.6053558 141.1390012  59.4694997  91.6519988
 141.0360646  60.5524242  91.6371858 142.2062031  59.2663899  91.5816111
 140.6070012  58.9464997  93.0129988 140.1858792  57.9545682  92.8682674
 139.7827999  59.5835367  93.3285080 141.6790012  58.9154997  94.1519988
 142.0677828  59.9168665  94.3291011 142.5336393  58.3001097  93.8852350
 141.0830012  58.4004997  95.4669988 140.9562067  57.3245028  95.4078470
 140.0904686  58.8283473  95.5806537 141.9300012  58.7524997  96.7469988
 142.0976888  59.8202668  96.8086042 142.8899758  58.2510738  96.7139863
 143.3680012  58.1674997  96.7569988 144.0070012  57.7324997  95.8199988
 143.7490012  58.1184997  98.0439988 145.0440012  57.6934997  98.4319988
 145.3739250  57.0194915  97.6559026 144.9592471  57.1482134  99.3608000
 146.0070012  58.8444997  98.5679988 146.9933646  58.5396233  98.8762706
 145.4150012  59.8864997  99.6079988 146.1846137  60.5910562  99.8927751
 145.1065316  59.3353431 100.4875770 144.2940012  60.5734997  99.0289988
 143.0760012  61.1954997  99.9019988 143.6880012  62.1704997 100.9449988
 144.7670012  63.0834997 100.6849988 144.4248073  64.1072809 100.6077696
 145.2283002  62.8402281  99.7322033 145.9760012  62.9454997 101.7989988
 146.8344832  63.5992206 101.7100800 146.3137751  61.9203010 101.7515281
 145.4650012  63.1394997 103.1649988 146.6510012  63.5404997 104.0269988
 147.4473278  62.8253608 103.8728097 146.3356633  63.5166373 105.0595164
 146.9528925  64.5430167 103.7632979 144.3370012  64.0264997 103.4079988
 143.5443899  63.7687072 102.7224154 144.6561419  65.0447730 103.2751882
 144.0132592  63.8659161 104.4261839 145.0470012  61.7804997 103.7379988
 144.2949318  61.3414860 103.0994531 144.6424595  61.9226088 104.7288575
 145.9084570  61.1303486 103.7893070 142.3760012  62.0974997  98.9639988
 142.2710012  60.1454997 100.5199988 146.1220012  59.3944997  97.2729988
 147.0050012  60.3494997  97.0069988 147.9500012  60.6214997  97.6979988
 146.5900012  61.1304997  95.7769988 145.6194722  60.7474044  95.4788972
 146.4255220  62.1659880  96.0644314 147.6410012  61.0264997  94.6209988
 148.5460901  61.5652303  94.8791544 147.9420429  59.9974375  94.4523632
 147.0580012  61.6144997  93.3349988 146.2117075  62.2314123  93.6263060
 147.8119464  62.2965577  92.9497346 146.6640012  60.6944997  92.2579988
 147.5582599  60.2446779  91.8306023 146.0693355  59.8737231  92.6515730
 145.8560012  61.3984997  91.0939988 144.9376240  61.8114759  91.5062304
 146.4408985  62.2479702  90.7466145 145.5110012  60.4894997  89.8619988
 146.3884821  59.8842656  89.6396929 144.7241254  59.7961113  90.1454718
 145.0710012  61.2414997  88.5829988 144.5475521  60.5773796  87.9051155
 144.3695716  62.0348856  88.8377169 146.2660012  61.8534997  87.9229988
 146.5533721  62.8260099  88.2933983 146.9920012  61.3434997  86.9749988
 147.7809218  62.0053907  86.6477152 146.9570012  60.0244997  86.2499988
 147.8916365  59.4738163  86.3417894 146.1704322  59.3386409  86.5442570
 146.7700012  60.4134997  84.7709988 145.8880972  61.0467254  84.6816925
 147.6163297  61.0281387  84.4703231 146.6450012  59.2244997  83.8119988
 147.4896317  58.5741394  84.0394583 145.7540110  58.6834923  84.1185138
 146.5940012  59.4794997  82.2829988 147.4672879  60.0546960  81.9835586
 146.6539613  58.5339882  81.7468105 145.3690012  60.1844997  81.8849988
 144.5058036  59.8527818  82.4589703 145.4316463  61.2585245  82.0372195
 145.0980012  59.8784997  80.4059988 145.8420854  60.3498120  79.7664002
 145.1668436  58.8096335  80.2120406 143.6760012  60.3734997  79.9649988
 143.2986331  61.1560506  80.6185448 143.7353466  60.8185007  78.9741581
 142.6740012  59.2154997  79.9249988 141.7164564  59.5476438  79.5353100
 142.4967955  58.7983768  80.9105685 143.0305686  58.4124916  79.2861102
 139.0860012  39.2714997  81.4939988 138.3438338  40.0574033  81.3941382
 138.5596558  38.3223658  81.5375353 139.6904455  39.2711600  80.5910819
 139.9600012  39.4824997  82.7459988 139.2602749  39.5297810  83.5786756
 140.3694535  40.4828400  82.6342762 141.0640012  38.5024997  83.0789988
 141.8522228  38.5857923  82.3308691 140.6669813  37.4934934  82.9870610
 141.6920012  38.6634997  84.5159988 142.2012021  39.6225176  84.5811829
 142.4558993  37.9048813  84.6792893 140.6620012  38.5854997  85.6249988
 140.1497525  37.6268950  85.6091425 139.8956472  39.3439558  85.4739662
 141.3090012  38.7844997  87.0139988 141.6802597  39.8075296  86.9941528
 142.1867986  38.1420199  86.9976145 140.5300012  38.5494997  88.3279988
 139.8880292  37.6819353  88.1866689 139.8649823  39.3985432  88.4800022
 141.4020012  38.3424997  89.6069988 142.1345604  39.1462958  89.6679878
 141.9706525  37.4204113  89.5017721 140.6210012  38.2944997  90.8699988
 139.6147841  37.9371564  90.6617342 140.5089492  39.3025797  91.2672341
 141.2730012  37.3924997  91.9439988 142.3364037  37.6174498  91.9007374
 141.1617197  36.3721718  91.5779709 140.7700012  37.4654997  93.4239988
 141.3841135  36.8006980  94.0276923 139.7568544  37.0704561  93.4750118
 140.8020012  38.8924997  94.0729988 140.0641916  39.5120365  93.5689847
 141.7715744  39.3364725  93.8550863 140.5790012  38.9294997  95.5669988
 141.4472312  38.5278038  96.0866803 139.7346106  38.3141890  95.8647762
 140.3530012  40.3614997  96.0619988 140.0920977  40.3706540  97.1151799
 139.5178176  40.8060014  95.5272290 141.5840012  41.2284997  95.8439988
 141.8828704  41.2075407  94.8036724 142.4086347  40.8723092  96.4499500
 141.5000012  42.5434997  96.6049988 140.7910012  43.4594997  96.3489988
 142.3280012  42.5344997  97.6639988 142.4810012  43.5984997  98.5299988
 142.3352836  44.4479622  97.8798896 143.4784462  43.6370591  98.9432887
 141.4060012  43.5934997  99.6629988 141.6127848  44.4497135 100.2835085
 141.4190012  42.2774997 100.5409988 140.4637099  42.2048721 101.0429398
 142.1919868  42.4219188 101.2854592 141.6640012  41.1464997  99.8129988
 140.9740012  39.7214997 100.0709988 139.4460012  39.9534997 100.2179988
 138.5870012  38.8724997 100.6579988 138.8197017  37.9547610 100.1337897
 137.5595971  39.1190682 100.4061221 138.5880012  38.6514997 102.1999988
 139.5884197  38.5274029 102.5949821 138.0118172  37.7667760 102.4294611
 137.9310012  39.8334997 103.0459988 136.6970012  40.3224997 102.2699988
 136.9899833  40.5280496 101.2495848 136.3474628  41.2307500 102.7379777
 135.9271300  39.5674514 102.3240125 137.5850012  39.4804997 104.4659988
 138.4471095  39.0211342 104.9247651 136.7388186  38.8169149 104.4665831
 137.3392189  40.4002587 104.9768132 138.9000012  41.0444997 103.1689988
 139.8167520  40.7201034 103.6384846 138.4358314  41.8103603 103.7720360
 139.1119415  41.4381708 102.1853630 141.2920012  38.9344997  98.8489988
 141.5240012  39.2134997 101.4199988 140.1690012  43.8144997  99.0539988
 139.1940012  44.2454997  99.9079988 139.3740012  44.4564997 101.0589988
 137.8430012  44.2974997  99.0929988 137.0185526  44.6059029  99.7276050
 137.8708686  45.0114961  98.2736456 137.6660012  42.8984997  98.5839988
 138.3487456  42.6955834  97.7662299 137.8883016  42.1625750  99.3501779
 136.1950012  42.7144997  98.0809988 135.5302289  42.7101634  98.9410645
 135.9321123  43.5944754  97.4991078 135.9450012  41.4424997  97.2029988
 136.3615641  40.5849522  97.7281594 134.8762610  41.2595794  97.1221486
 136.5450012  41.4844997  95.8009988 137.0802421  42.4265955  95.7016329
 137.2996672  40.7015007  95.7588933 135.6050012  41.3144997  94.6259988
 135.1640859  40.3198586  94.6705405 134.7815307  42.0187130  94.7053583
 136.2880012  41.5074997  93.2599988 137.2367179  40.9846992  93.2945866
 135.6778193  40.9872704  92.5228518 136.4700012  42.9324997  92.8139988
 135.4902395  43.3356498  92.6064150 137.5100012  43.7474997  92.6439988
 137.3357742  44.7568980  92.2999495 138.9860012  43.4174997  92.8909988
 139.5540940  44.2947074  92.5860426 139.1565329  43.3003711  93.9553675
 139.5710012  42.1504997  92.1179988 140.6073440  41.9652155  92.3979420
 139.0185958  41.2527507  92.3888383 139.4800012  42.3604997  90.5969988
 139.8462935  41.4578300  90.1079953 138.4328481  42.4513283  90.3218178
 140.2540012  43.5714997  90.0659988 139.9095443  44.4424522  90.6191138
 141.3019895  43.4389114  90.3291066 140.1340012  43.8444997  88.4749988
 139.0867215  43.8373124  88.1787832 140.5050399  44.8357985  88.2294749
 140.8780012  42.7724997  87.6279988 141.8316824  42.4942831  88.0729377
 140.3023205  41.8521472  87.5481417 141.1430012  43.3194997  86.1839988
 141.7351743  44.2312143  86.1792768 141.7080122  42.5966168  85.5996052
 139.8100012  43.5764997  85.4889988 139.9647862  43.8726987  84.4558595
 139.2462346  44.3669869  85.9727738 139.1915988  42.6833488  85.4879400
  68.3940012 143.4244997  84.5629988  67.5923784 143.5004732  83.8349480
  68.8079460 142.4224839  84.4966362  69.1736130 144.1223797  84.2701150
  67.8820012 143.7284997  86.0019988  67.0759449 143.0270329  86.2103753
  67.4276653 144.7151411  85.9714767  68.9190012 143.6584997  87.1359988
  69.1100226 142.6025419  87.3267685  68.4246434 144.0408209  88.0268477
  70.2780012 144.4044997  86.9659988  70.1006107 145.4638714  86.7942019
  70.8111093 144.0419316  86.0884760  71.2120012 144.2444997  88.2579988
  71.9185674 145.0698280  88.2922096  71.8052663 143.3390415  88.1416072
  70.4810012 144.1864997  89.5409988  70.0860933 143.1897180  89.7288581
  69.6250301 144.8579823  89.5422279  71.4370012 144.5794997  90.6849988
  70.9471267 144.3660814  91.6332844  71.5860846 145.6579870  90.6555162
  72.7610012 143.8994997  90.6519988  73.3753090 144.2726735  89.8335745
  72.6515208 142.8293364  90.4863224  73.4900012 144.1324997  91.9769988
  73.0206007 143.5285967  92.7506301  73.3550790 145.1704928  92.2785670
  74.9650012 143.8174997  91.9229988  75.3740633 144.3400920  91.0611029
  75.0653037 142.7534159  91.7106448  75.7770012 144.1594997  93.1779988
  75.8334929 145.2398825  93.2925531  76.8034093 143.8128834  93.0708938
  75.1590012 143.5534997  94.4919988  75.1803804 142.4683838  94.4265350
  74.1086725 143.8342423  94.5436067  75.8420012 144.0104997  95.7549988
  75.9500947 145.0932537  95.7201938  76.8489670 143.6056498  95.8038902
  75.0710012 143.6394997  97.0869988  75.4343408 142.7233365  97.5408427
  74.0085920 143.5005410  96.9051491  75.2560012 144.8404997  98.1129988
  74.9302898 145.7723115  97.6683868  76.2969575 144.9363862  98.3981034
  74.1490012 145.9714997  97.9619988  74.4680012 147.1084997  97.9269988
  72.9680012 145.3504997  97.7879988  71.9600012 146.3074997  97.3659988
  72.1367194 146.4039897  96.3053752  72.1152092 147.2665415  97.8385888
  70.5780012 145.8064997  97.6159988  69.9979456 146.4406287  96.9661450
  70.0720012 145.9504997  99.0899988  69.2434258 145.2819560  99.2805591
  69.7404518 146.9686609  99.2512681  71.1530012 145.6474997  99.9359988
  70.8160012 145.1304997 101.4019988  70.6490012 143.4934997 101.2069988
  71.5230012 142.9584997 100.2579988  71.3690954 143.3383262  99.2563832
  71.4175868 141.8791269 100.1976727  73.0070012 143.2034997 100.7349988
  73.0307792 144.2435114 101.0350975  73.6458153 143.0760958  99.8729885
  73.6680012 142.4354997 101.8589988  72.9720012 142.6724997 103.2209988
  72.8791081 143.7379949 103.3804499  73.5935312 142.2422090 103.9921345
  72.0108510 142.1807130 103.2137063  73.6480012 140.9124997 101.6019988
  74.0199651 140.7281132 100.6058268  72.6425480 140.5497739 101.7197439
  74.2990414 140.4531756 102.3317007  75.0810012 142.9184997 101.9009988
  75.5462119 142.7406482 100.9428600  75.6168835 142.3810608 102.6688787
  75.0942990 143.9756961 102.1236955  71.9490012 145.5524997 102.2429988
  69.4460012 145.5524997 101.8179988  70.3950012 144.4054997  97.2389988
  70.8420012 144.0564997  96.0549988  71.3670012 144.8114997  95.2049988
  70.2420012 142.7364997  95.8009988  70.7652060 141.9857970  96.3843127
  69.2073449 142.7033695  96.1331068  70.3480012 142.4664997  94.2829988
  69.6228753 143.0444616  93.7206700  71.3203896 142.7313625  93.8800827
  70.0800012 140.9664997  94.0589988  70.8531054 140.4329481  94.6060695
  69.1455664 140.7586280  94.5744462  69.9770012 140.4094997  92.5869988
  68.9446317 140.1243055  92.3931336  70.2165364 141.1902467  91.8691833
  70.8740012 139.1924997  92.3139988  70.8125210 138.5042350  93.1544825
  70.4763299 138.6568396  91.4541692  72.3450012 139.5334997  92.0419988
  72.3755225 140.4733962  91.4930326  72.8485729 139.7142444  92.9875488
  73.1340012 138.4584997  91.2589988  73.0253146 137.4635030  91.6746295
  72.8167030 138.3928594  90.2191145  74.5960012 138.9164997  91.2969988
  75.0978341 139.0630328  92.2415864  75.3140012 139.1394997  90.1799988
  76.3619532 139.4022458  90.1992588  74.7610012 139.0454997  88.8659988
  75.5975489 138.9192284  88.1808241  74.1623076 138.1452794  88.7832318
  73.9080012 140.2914997  88.3829988  72.8549482 140.2014031  88.6469439
  74.2560598 141.2176901  88.8363039  74.0460012 140.3924997  86.8659988
  75.0962541 140.2708806  86.6008862  73.5178362 139.5639757  86.4022167
  73.5240012 141.7284997  86.2819988  72.5213926 141.9544868  86.6381600
  74.1475198 142.5721699  86.5727392  73.5210012 141.6024997  84.7159988
  74.5448741 141.4680043  84.3722180  72.9893515 140.7007065  84.4248926
  72.9270012 142.8314997  83.9769988  73.1651399 142.7597562  82.9172696
  71.8412870 142.7945326  84.0454989  73.4220012 144.2584997  84.5149988
  73.2947436 144.4022120  85.5850769  74.4793849 144.4213836  84.3182213
  72.6350012 145.2864997  83.7799988  72.9786287 146.2859388  84.0292184
  71.5783718 145.2367159  84.0204087  72.7352118 145.1605684  82.7056431
  38.2300012   7.7634997  83.8069988  37.9814006   6.8075558  83.3566676
  39.1270904   8.1355582  83.3205902  37.4227846   8.4549483  83.5813613
  38.4410012   7.6254997  85.3689988  39.2274543   6.8893952  85.5266206
  37.5313099   7.1920043  85.7756405  38.8020012   8.9344997  86.1379988
  38.3718274   9.8039364  85.6410488  39.8797128   9.0849045  86.1286723
  38.3390012   8.9004997  87.5639988  37.3437161   8.4668716  87.6320018
  38.2600357   9.9033215  87.9809146  39.3190012   8.0474997  88.4439988
  40.3318305   8.1932878  88.0772623  39.0835394   6.9969899  88.2816656
  39.2870012   8.3484997  89.9589988  38.2769711   8.1338041  90.3033272
  39.4253272   9.4216183  90.0723972  40.3420012   7.5764997  90.8939988
  40.4817097   6.5909744  90.4535542  39.8466149   7.4148690  91.8503972
  41.7210012   8.2254997  91.1379988  41.5798856   9.2777963  91.3813282
  42.2942912   8.2016847  90.2130905  42.5410012   7.5454997  92.2649988
  42.4824578   6.4599758  92.2231465  42.1965279   7.8299701  93.2584733
  44.0370012   7.9934997  92.0869988  44.0836575   9.0757530  91.9877525
  44.4371693   7.5844183  91.1596656  44.9350012   7.5244997  93.2879988
  45.9489759   7.8788583  93.1152962  44.9903801   6.4372752  93.2859689
  44.4780012   8.0124997  94.6929988  43.4482829   7.6930252  94.8338371
  44.4578235   9.1004234  94.6668308  45.3450012   7.5624997  95.8949988
  46.4039053   7.6110223  95.6467658  45.1477507   6.5348185  96.1869536
  45.0960012   8.4914997  97.1129988  45.2727153   9.5269854  96.8411784
  45.8053930   8.2472917  97.8992670  43.7100012   8.3564997  97.6629988
  43.4994316   7.3238088  97.9104881  42.9810028   8.6956103  96.9366143
  42.7360012   9.4094997  97.1839988  43.0410012  10.3174997  96.4109988
  41.5280012   9.1454997  97.6649988  40.4710012  10.0134997  97.1459988
  40.2887713   9.6860188  96.1335707  40.8377915  11.0295362  97.1279247
  39.1450012   9.9044997  98.0049988  38.3125606  10.2658677  97.4241806
  39.2610012  10.7134997  99.3159988  38.3699154  10.4589861  99.8736635
  39.1772694  11.7385665  98.9771595  40.4900012  10.5424997 100.1769988
  40.4930012   9.6514997 101.4719988  40.8450012   8.2584997 100.8019988
  41.8480012   7.4984997 101.5099988  41.6745001   7.3443258 102.5670308
  42.8412088   7.9289880 101.4204704  41.9220012   6.1304997 100.7459988
  42.8798096   6.0544068 100.2469377  41.1382972   6.0676559 100.0048944
  41.7980012   4.8904997 101.5829988  40.4250012   4.9264997 102.2599988
  40.3061948   5.8836195 102.7490189  40.3952475   4.1362393 102.9953241
  39.6622558   4.7571383 101.5148456  41.9440012   3.7294997 100.6089988
  42.8257541   3.8943455 100.0089558  41.0597111   3.6687167 100.0001421
  42.0572981   2.8287340 101.1947308  42.8980012   4.8244997 102.6689988
  43.8678326   4.8502265 102.1948183  42.7917493   3.9058122 103.2261108
  42.7952716   5.6666755 103.3380440  41.6820012  10.0434997 102.2789988
  39.1150012   9.7034997 102.0729988  38.9160012   8.4794997  98.3219988
  38.7190012   7.6774997  97.3149988  38.5150012   7.9174997  96.1039988
  38.9950012   6.3324997  97.8279988  38.8363875   6.3752097  98.9006453
  38.2356203   5.6571995  97.4417120  40.3820012   5.8464997  97.4809988
  40.7337792   6.3767842  96.6028692  41.0705463   6.1002861  98.2807056
  40.4320012   4.3384997  97.2099988  40.0594861   3.7929845  98.0733062
  39.7572279   4.1055568  96.3899478  41.8500012   3.8404997  96.8389988
  42.5601835   4.1587682  97.5999535  41.8949737   2.7543701  96.8165902
  42.3210012   4.3854997  95.4789988  41.5070352   4.8707885  94.9443446
  43.0865545   5.1460112  95.6201767  42.8950012   3.2724997  94.6199988
  43.9682486   3.2181928  94.7957591  42.4839408   2.3176896  94.9357284
  42.6390012   3.4434997  93.1389988  41.6702725   3.9208666  93.0480831
  43.3722421   4.1682060  92.7875669  42.7220012   2.2224997  92.2769988
  43.2529992   1.3657819  92.6638189  42.1690012   2.1014997  91.0479988
  42.2580922   1.1744291  90.5000819  41.4040012   3.1634997  90.3279988
  40.3591947   2.8678086  90.4065308  41.5010341   4.0869234  90.8879578
  41.7110012   3.4224997  88.8829988  42.7881733   3.5777322  88.8349558
  41.5180168   2.4776103  88.3786178  41.0180012   4.5184997  88.1509988
  39.9400427   4.3720635  88.2193287  41.2260731   5.4709331  88.6306659
  41.4300012   4.5914997  86.6569988  41.9771784   3.6843803  86.4102669
  40.5303277   4.5803184  86.0441793  42.2880012   5.8494997  86.2909988
  41.6974402   6.7633228  86.3184759  43.1145080   6.0095409  86.9779472
  42.8440012   5.6654997  84.7949988  43.6874853   6.3330275  84.6281933
  43.2287718   4.6553070  84.6673419  41.7940012   5.9264997  83.7089988
  41.8772427   5.1941529  82.9098404  40.8064021   5.7816747  84.1414185
  41.8710012   7.3574997  83.1089988  41.0571832   7.5268130  82.4103556
  42.7993803   7.5229819  82.5728377  41.8007674   8.1117132  83.8876965
  50.5120012   0.2214997  82.2839988  50.8004615   0.8655599  81.4591315
  50.2372743  -0.7443010  81.8698199  51.3878769   0.0737609  82.9097998
  49.3070012   0.8554997  83.1219988  48.5156054   1.0199478  82.3927165
  49.6653621   1.8399113  83.4106597  48.7280012   0.1294997  84.3369988
  48.0323962  -0.6266678  83.9733045  48.1274929   0.8515231  84.8867650
  49.7300012  -0.5285003  85.3219988  50.6486717   0.0483936  85.4025462
  50.0280150  -1.5276145  85.0078895  49.0840012  -0.6045003  86.6909988
  49.4247493  -1.4629065  87.2642373  48.0014290  -0.6953061  86.6191879
  49.4340012   0.6754997  87.4579988  49.1237026   1.5380115  86.8709680
  50.5150645   0.7475708  87.5564106  48.8110012   0.7504997  88.8109988
  49.4632106   1.3265968  89.4648374  48.7675355  -0.2530148  89.2320682
  47.4190012   1.3614997  88.8259988  46.8126405   0.9748411  88.0079078
  47.4620612   2.4403889  88.6887845  46.7340012   1.0514997  90.1479988
  46.7856116  -0.0207042  90.3247932  45.6757558   1.2938046  90.0586567
  47.3280012   1.8004997  91.3639988  47.1181302   2.8573109  91.2143216
  48.4109606   1.6934226  91.3077649  46.8480012   1.3604997  92.7589988
  45.7688101   1.2268300  92.7270610  47.0321847   2.1627896  93.4714138
  47.4800012   0.0644997  93.2819988  48.5574077   0.0838866  93.1369529
  47.1113290  -0.7839280  92.7084821  47.1420012  -0.1705003  94.8009988
  47.5120833  -1.1537525  95.0864920  46.0647978  -0.1989706  94.9391885
  47.7490012   0.8694997  95.7749988  47.0736996   1.7172717  95.8259427
  48.6699937   1.2277883  95.3227886  48.0590012   0.3864997  97.1949988
  48.7058992  -0.4811417  97.1673883  47.1441492   0.1218501  97.7117923
  49.0940012  -0.6775003  97.2379988  49.8690012  -0.9145003  96.3259988
  49.2090012  -1.2165003  98.4749988  50.4040012  -1.9725003  98.7679988
  50.7826493  -2.2311526  97.7906623  50.1937538  -2.8791536  99.3166042
  51.4090012  -1.1085003  99.5099988  52.2864521  -1.7007778  99.7104516
  50.8470012  -0.5145003 100.8529988  51.6568749  -0.1977467 101.4960949
  50.2804693  -1.2842153 101.3620817  49.9930012   0.6064997 100.5249988
  48.7620012   1.0014997 101.3599988  48.9990012   2.5744997 101.3909988
  48.0340012   3.5054997 100.9229988  47.0071395   3.1862634 101.0447872
  48.1676315   3.7165270  99.8659238  48.2900012   4.8754997 101.6529988
  47.9621619   4.7269096 102.6741214  47.6762557   5.6400689 101.1989863
  49.7150012   5.4764997 101.7509988  50.5380012   4.6144997 102.6589988
  49.9948950   4.4688540 103.5826638  51.4646488   5.1313920 102.8596139
  50.7451894   3.6789802 102.1614113  50.2060012   5.4334997 100.3889988
  49.4610985   5.8710456  99.7421698  50.4085181   4.4119887 100.1209089
  51.1151003   6.0163074 100.3547807  49.7920012   6.9054997 102.2719988
  49.2077972   7.5494371 101.6315830  50.8219362   7.2293373 102.2683949
  49.4049669   6.9431887 103.2800757  47.6380012   0.7434997 100.4489988
  48.6660012   0.5724997 102.8089988  51.8000012  -0.1075003  98.5569988
  52.9180012   0.5144997  98.7939988  53.7120012   0.2374997  99.7069988
  53.1430012   1.5814997  97.7469988  54.1515213   1.5150777  97.3519948
  52.4807404   1.4658212  96.8926358  52.8910012   2.9294997  98.4699988
  51.8337127   2.9703897  98.7077595  53.4115414   2.8954963  99.4217942
  53.2880012   4.2154997  97.6979988  53.4887294   5.0715910  98.3371152
  54.1763919   4.0789565  97.0862938  52.0640012   4.5244997  96.7469988
  51.1511637   4.1521387  97.2082808  51.9286151   5.5966863  96.6274646
  52.2020012   3.8714997  95.3309988  53.2012811   4.0286804  94.9302061
  52.0723956   2.7936561  95.4073961  51.1610012   4.4234997  94.3389988
  50.1694380   4.2182973  94.7394927  51.2530589   5.5047869  94.2874119
  51.2630012   3.8464997  92.8989988  51.3815791   2.7693826  92.9173844
  50.3456375   4.0446847  92.3462668  52.4060012   4.5044997  92.1829988
  53.3787958   4.0365060  92.1686254  52.2780012   5.6734997  91.5269988
  53.1612161   6.0103626  91.0034868  51.1250012   6.5754997  91.3989988
  50.2505489   6.0881916  91.8268831  51.2648660   7.4937829  91.9583508
  50.8090012   6.9224997  89.8919988  49.9848012   7.6337885  89.8536895
  51.6705032   7.4334293  89.4662945  50.4890012   5.7664997  89.0759988
  50.6970877   4.8374446  89.6067187  49.4352664   5.7364326  88.8128581
  51.3170012   5.8164997  87.8219988  50.9153079   6.5795870  87.1590619
  52.3318065   6.1273597  88.0641168  51.3620012   4.4534997  87.0919988
  50.6538555   3.7241755  87.4808509  51.1818264   4.5005370  86.0215084
  52.7840012   3.9254997  87.3649988  53.5525464   4.6819576  87.2167000
  52.9096041   3.5633681  88.3837817  53.0490012   2.7714997  86.4059988
  53.9112592   2.2312344  86.7888035  52.2012298   2.1010679  86.5289536
  53.2450012   3.0514997  84.9019988  53.3355519   2.1233543  84.3457472
  54.1403526   3.6334593  84.7111851  52.4012753   3.6007677  84.4938660
  -0.8159988  47.5074997  85.1369988  -0.6210721  46.5709724  84.6238231
  -1.8924145  47.6487529  85.1711572  -0.4654852  47.4028348  86.1601300
  -0.1039988  48.7164997  84.4139988  -0.4583240  48.7642426  83.3857102
   0.9602730  48.5037171  84.3604913  -0.3389988  50.0824997  85.0959988
  -1.3451185  50.3967729  84.8187182   0.3394150  50.7793652  84.6078348
  -0.1659988  50.2194997  86.6209988   0.5846425  49.4872254  86.9100698
  -1.0984362  49.8919183  87.0781170   0.2300012  51.5784997  87.1969988
  -0.4520920  52.3183468  86.7859658   1.2139275  51.8129239  86.7941349
   0.2610012  51.7264997  88.7429988   0.7844143  50.8573818  89.1373207
  -0.7659494  51.6479250  89.0933921   0.9060012  53.0254997  89.3249988
   1.9006214  53.1312351  88.8956730   1.0501706  52.8817781  90.3949470
   0.1060012  54.3294997  89.0879988  -0.8856463  54.2295358  89.5274229
  -0.0477893  54.4708700  88.0198008   0.8050012  55.5924997  89.6779988
   0.6176009  56.4638801  89.0542053   1.8861532  55.4611980  89.6991438
   0.2960012  55.8704997  91.1139988  -0.7806701  55.9447859  90.9777655
   0.6491911  56.8822571  91.3115656   0.6030012  55.0064997  92.2889988
   1.6590501  54.7543048  92.3575505   0.0659005  54.0595980  92.2836998
   0.1980012  55.8344997  93.5929988  -0.8497448  56.1173980  93.5265465
   0.7635521  56.7643433  93.6075887   0.4570012  55.0884997  94.8909988
   0.4309411  55.7871087  95.7255755   1.4480865  54.6435492  94.8975484
  -0.5709988  54.0084997  95.1539988  -0.3554623  53.1423352  94.5370319
  -1.5452842  54.3790499  94.8465048  -0.6569988  53.5654997  96.6489988
  -0.8386654  54.4205087  97.2877459   0.2680405  53.0922277  96.9562198
  -1.7149988  52.4084997  96.7989988  -2.3979988  51.9924997  95.8719988
  -1.7609988  52.0094997  98.0909988  -2.3179988  50.7074997  98.2989988
  -2.7918691  50.5124675  97.3488033  -3.0740968  50.7440693  99.0698234
  -1.2479988  49.5984997  98.6119988  -1.7485424  48.6445392  98.5944050
  -0.5379988  49.7824997  99.9359988   0.0905410  48.9198091 100.1106517
  -1.3059595  49.8123815 100.6988411   0.2510012  50.9994997  99.9649988
   0.9270012  51.4564997 101.4019988   1.9750012  52.4684997 100.8559988
   1.6610012  53.6224997 100.2089988   0.6932593  53.5928039  99.7254878
   2.3882915  53.8317925  99.4298696   1.7610012  54.8634997 101.2229988
   1.0607924  54.7637014 102.0427530   1.5371126  55.7726063 100.6837623
   3.1330012  55.0854997 101.8709988   2.9380012  56.3544997 102.7089988
   2.5055614  57.1204925 102.0800434   3.9080987  56.6755238 103.0582182
   2.3069774  56.1230095 103.5539475   3.5530012  53.9934997 102.8009988
   3.4294936  53.0474007 102.2966609   2.9560698  54.0439632 103.6940253
   4.5947982  54.1539613 103.0380811   4.2190012  55.3414997 100.9349988
   4.3024906  54.5099516 100.2511571   5.1418634  55.4525194 101.4842254
   4.0146355  56.2486896 100.3848387  -0.1589988  52.1594997 102.2189988
   1.5960012  50.2884997 101.9919988  -0.3519988  49.6214997  97.4909988
   0.5530012  48.7324997  97.3679988   0.9300012  47.9104997  98.1479988
   1.2360012  48.9294997  95.9719988   1.0184585  48.0715563  95.3441760
   0.8234785  49.7906417  95.4522234   2.6820012  49.0914997  96.2019988
   3.0325865  48.2936874  96.8474804   3.2204162  48.9790063  95.2663239
   3.0320012  50.4664997  96.8529988   2.3697928  50.6703452  97.6906031
   4.0373932  50.4244615  97.2646840   2.9660012  51.6224997  95.8329988
   2.1468164  51.4625694  95.1343826   2.7738633  52.5790917  96.3128078
   4.2740012  51.7234997  95.0299988   5.0762958  52.1252737  95.6454677
   4.5973136  50.7314339  94.7207165   4.1020012  52.6164997  93.7509988
   3.5601461  53.5189708  94.0296383   5.0768449  52.9409503  93.3978282
   3.3610012  51.9134997  92.5849988   2.5999464  51.2475605  92.9747432
   2.8390444  52.6587190  91.9862039   4.3300012  51.1714997  91.6949988
   4.3046317  50.0925985  91.6652895   5.2180012  51.7744997  90.9229988
   5.8762462  51.1530673  90.3329605   5.4410012  53.2344997  90.7449988
   5.3088144  53.6862491  91.7266658   6.4749928  53.4073026  90.4680845
   4.5370012  53.9464997  89.7729988   3.5164598  53.7393783  90.0928440
   4.6976367  55.0096752  89.9412632   4.6770012  53.6414997  88.2489988
   5.7198266  53.4970858  87.9665686   4.1572021  52.7297592  87.9678542
   4.0880012  54.8454997  87.4449988   3.0841929  55.0235808  87.8242099
   4.6703278  55.7296235  87.6985846   4.0510012  54.6864997  85.9319988
   3.1201206  55.1175115  85.5682953   4.8456711  55.2866597  85.4973350
   4.1360012  53.2744997  85.4239988   5.1764001  52.9635925  85.5000895
   3.5819832  52.6475307  86.1202803   3.6260012  52.9684997  83.9589988
   4.3065825  53.3952037  83.2264363   3.6633505  51.8921696  83.8059250
   2.1840012  53.4624997  83.6729988   1.8575248  53.1482446  82.6862233
   2.1110459  54.5441770  83.7103158   1.4821960  53.0592907  84.3975904
 143.7450012  96.6494997  81.8029988 143.3246326  97.1017689  80.9101540
 144.1430902  95.6775866  81.5260508 144.5791757  97.2669387  82.1247657
 142.6820012  96.5214997  82.9229988 141.8492335  95.9211564  82.5606605
 142.2768189  97.5062555  83.1395566 143.2430012  95.8854997  84.2079988
 144.2373822  96.2890116  84.3985598 143.3790492  94.8204418  84.0310420
 142.3810012  96.0624997  85.4539988 142.7969446  95.3876735  86.1988818
 141.3967230  95.6681819  85.2061761 142.2320012  97.4124997  86.0649988
 141.3380968  97.3890164  86.6830251 142.0195794  98.0982296  85.2464535
 143.3930012  97.9614997  86.8939988 144.3114570  97.6383620  86.4073389
 143.3643163  97.4550402  87.8564191 143.4480012  99.5194997  87.1279988
 142.5341410  99.7950727  87.6511518 143.3912322  99.9906168  86.1476642
 144.6660012 100.0844997  87.8959988 144.7859561 101.1161820  87.5678319
 145.5387916  99.5461285  87.5312011 144.6490012 100.0394997  89.4489988
 144.1771926 100.9566024  89.7952071 145.6835576 100.0840544  89.7870591
 143.9660012  98.8524997  90.0889988 144.2771742  97.9228641  89.6175669
 142.8843259  98.9082356  89.9694114 144.3070012  98.8224997  91.5849988
 145.3902605  98.8627374  91.6770378 144.0054026  97.8560550  91.9851875
 143.6980012  99.9544997  92.4629988 143.8971025 100.8887250  91.9435754
 144.2897247  99.9823329  93.3761026 142.1480012  99.8634997  92.8599988
 141.8868535  98.8291974  93.0774216 141.5124851 100.1705697  92.0341045
 141.8030012 100.7154997  94.1069988 142.6821823 101.3090375  94.3352493
 141.6801079 100.0086849  94.9233333 140.5460012 101.6514997  94.0639988
 139.6605225 101.0851787  93.8046745 140.6845281 102.4359845  93.3295174
 140.0970012 102.2404997  95.4109988 140.6060012 103.1804997  95.9619988
 139.1100012 101.4224997  95.7969988 138.4810012 101.4924997  97.0889988
 137.4128894 101.5484911  96.9424917 138.8239979 102.4113867  97.5419799
 138.8420012 100.2584997  97.9819988 138.1877950 100.2143843  98.8369620
 140.2600012 100.2554997  98.4299988 140.4231278 101.1205308  99.0584189
 140.8678336 100.3541724  97.5392752 140.5870012  99.0894997  99.1129988
 140.0110012  98.8534997 100.5759988 141.1600012  98.0314997 101.3279988
 142.2120012  97.3664997 100.7159988 142.8252998  98.0667331 100.1639780
 141.7966618  96.6783276  99.9854446 143.0710012  96.4954997 101.6479988
 143.4850132  97.2115104 102.3466916 143.8834720  95.9754862 101.1613222
 142.3490012  95.4414997 102.5069988 141.3600012  94.6204997 101.7389988
 140.7033537  95.2879444 101.1980129 140.7865232  94.0411436 102.4472146
 141.8949070  93.9566941 101.0764620 143.4500012  94.4754997 103.0619988
 144.2368804  95.0691256 103.5014795 143.8201042  93.8657408 102.2572703
 142.9864391  93.8571167 103.8169886 141.7370012  96.1244997 103.6949988
 142.5125885  96.6230540 104.2571285 141.2550405  95.3868515 104.3188891
 141.0066472  96.8465144 103.3592714 140.0440012 100.2024997 101.2199988
 138.7740012  98.0684997 100.5789988 138.6530012  99.0694997  97.1489988
 137.4770012  98.5744997  97.3289988 136.5630012  99.0074997  98.0159988
 137.3140012  97.2584997  96.5159988 136.6019286  96.6170368  97.0249497
 136.8862205  97.4597584  95.5370168 138.7150012  96.5884997  96.3889988
 139.3612485  97.3122177  95.9045841 139.1035540  96.4651382  97.3949022
 138.7970012  95.2494997  95.6279988 137.9790373  94.5923755  95.9122116
 138.6862406  95.4274078  94.5611596 140.1500012  94.5464997  95.8719988
 140.2403150  94.2649938  96.9195215 140.2343650  93.6248953  95.3012711
 141.3670012  95.4894997  95.5029988 141.4280963  96.3011022  96.2251273
 142.2896804  94.9217825  95.6066389 141.3060012  96.0814997  94.0649988
 140.4615949  96.7671862  94.0148679 142.1960023  96.6773513  93.8828540
 141.1810012  95.0624997  92.9759988 141.9264849  94.3123297  93.2128088
 140.2116129  94.5963414  93.1472554 141.2680012  95.4794997  91.5199988
 142.1884886  95.3651791  90.9675608 140.1960012  95.9984997  90.8449988
 140.3980955  96.2396530  89.8112614 138.7780012  96.2924997  91.2809988
 138.0598529  95.7148264  90.7015355 138.5704941  96.0770665  92.3232129
 138.5150012  97.8564997  90.9949988 137.6313564  98.1797579  91.5439806
 139.3482857  98.4295526  91.3971259 138.3460012  98.1874997  89.5229988
 139.2395759  97.8778484  88.9810143 137.5243249  97.6094212  89.1092629
 138.0940012  99.6944997  89.2719988 138.4934361 100.1932258  90.1522651
 138.7499494  99.9636191  88.4459288 136.6380012 100.2184997  88.9709988
 136.0025698  99.9037173  89.7966676 136.6588077 101.3041748  89.0097486
 135.9870012  99.7564997  87.6779988 136.2303641  98.7118171  87.4928075
 134.9037613  99.8013989  87.7750017 136.4120012 100.6024997  86.4139988
 136.1659298 101.6555622  86.5254583 137.4919763 100.5624714  86.2900452
 135.7730012 100.0744997  85.1879988 136.1333173 100.5998814  84.3086721
 134.6941543 100.1849185  85.2132614 135.9936302  99.0189907  85.0562241
  16.8800012 139.8944997  82.7919988  16.3164943 140.5855625  82.1728695
  16.5871570 140.0605019  83.8247018  16.5768513 138.8865624  82.5222312
  18.3590012 140.0804997  82.6099988  18.5881497 141.1168737  82.8521200
  18.5663273 139.9617379  81.5499396  19.2880012 139.1374997  83.4499988
  20.3220351 139.2188047  83.1151969  19.0014084 138.0995161  83.2930731
  19.2170012 139.4414997  84.9609988  18.2198783 139.1437251  85.2777421
  19.2542540 140.5250919  85.0617268  20.2410012 138.8084997  85.9079988
  20.7434115 139.5779551  86.4885977  21.0147086 138.3115400  85.3250984
  19.6060012 137.8004997  86.8659988  19.2172407 136.9450578  86.3165431
  18.7555069 138.2446292  87.3788199  20.6350012 137.3104997  87.9139988
  20.8770270 138.1336586  88.5837770  21.5618483 137.0500622  87.4047280
  20.1590012 136.1154997  88.7359988  19.3661490 136.5145461  89.3673453
  20.9909631 135.8883818  89.4000325  19.6690012 134.8074997  88.0659988
  20.4648744 134.3244648  87.5031452  18.8668403 134.9987568  87.3542856
  19.1490012 133.8244997  89.1839988  18.9974279 132.8418921  88.7426293
  18.1699742 134.1603403  89.5248010  20.1240012 133.7154997  90.4279988
  20.1190100 134.6340380  91.0109253  21.1568044 133.5570915  90.1224627
  19.6810012 132.5564997  91.3439988  20.3670478 132.4962983  92.1853874
  19.7931660 131.6245190  90.7930894  18.1880012 132.6604997  91.8639988
  17.9993578 131.7692307  92.4600737  17.5247662 132.5985162  91.0057730
  17.7860012 133.9374997  92.7439988  16.7129512 133.9270573  92.9046219
  18.0074875 134.8248073  92.1568694  18.5140012 134.0604997  94.1289988
  19.5881634 134.0393469  93.9956980  18.2281587 133.2425239  94.7795976
  18.3200012 135.4474997  94.9129988  17.8320012 136.4184997  94.3879988
  19.0420012 135.3994997  96.0669988  19.4300012 136.5994997  96.7159988
  19.5267456 137.3373351  95.9338853  20.4043954 136.4042448  97.1398188
  18.4480012 137.0914997  97.7949988  18.7880869 138.0399990  98.1765545
  18.4570012 136.0704997  98.8889988  19.3905666 136.0845769  99.4349460
  18.3181991 135.0840461  98.4644657  17.3540012 136.4024997  99.7639988
  17.2820012 135.8724997 101.2959988  18.1080012 136.8974997 102.1079988
  18.2660012 138.2604997 101.6509988  18.0602016 139.0111858 102.4028670
  17.6086234 138.4751671 100.8134014  19.7080012 138.4144997 101.0879988
  19.8124726 139.4919256 101.1100892  19.6840845 138.0889561 100.0580345
  21.0090012 137.8574997 101.6749988  20.8850012 136.3584997 101.9029988
  19.9814276 136.1684813 102.4658325  21.7433447 136.0361024 102.4734428
  20.8767718 135.8579770 100.9463764  22.0940012 138.0954997 100.6559988
  22.0540007 139.1290033 100.3478036  21.9458329 137.4309184  99.8236840
  23.0393402 137.8882259 101.1362786  21.3970012 138.5224997 102.8949988
  21.5167671 139.5781844 102.7019499  22.3322812 138.1096167 103.2420275
  20.6348595 138.3719181 103.6459318  15.8650012 136.0244997 101.7249988
  17.9630012 134.5034997 101.4199988  17.0820012 137.2224997  97.3199988
  16.7360012 138.3304997  96.7019988  17.4710012 139.3144997  96.6579988
  15.3210012 138.2844997  96.1929988  15.0063322 137.2501297  96.1001810
  14.6332017 138.7423553  96.8995447  15.2950012 139.0204997  94.8349988
  15.4520237 140.0795810  95.0074854  16.1300266 138.6885426  94.2262542
  13.9290012 138.8184997  94.0369988  13.1074712 138.6728185  94.7337911
  13.7025733 139.7288897  93.4874668  13.9920012 137.6134997  93.0129988
  14.5366275 136.8025932  93.4931226  12.9856174 137.2413903  92.8371340
  14.6650012 137.9104997  91.6409988  13.9190880 138.2001080  90.9036783
  15.3391433 138.7591752  91.7393007  15.4320012 136.7544997  91.1339988
  16.3131301 136.6258700  91.7607101  14.8412568 135.8496496  91.2461834
  15.8740012 136.8804997  89.6419988  16.6579860 137.6286907  89.6294305
  16.3513193 135.9319869  89.3994356  14.8190012 137.1754997  88.5909988
  14.5743940 138.2240967  88.5124773  14.1930012 136.3534997  87.7819988
  13.4566113 136.6776697  87.0607126  14.4390012 134.9074997  87.7769988
  14.6980954 134.5931338  88.7865855  13.5527166 134.3464362  87.5024290
  15.6260012 134.5134997  86.8179988  16.4913560 135.1309315  87.0559987
  15.9157707 133.4877105  87.0376560  15.2940012 134.6414997  85.2749988
  14.5620737 133.8710417  85.0325450  14.7957405 135.5940626  85.1173149
  16.5150012 134.5214997  84.2949988  17.3668196 135.0224408  84.7495406
  16.7912599 133.4723316  84.2054869  16.2480012 135.1104997  82.8629988
  15.4800273 134.4870832  82.4089523  15.7940819 136.0882009  82.9996833
  17.4070012 135.2074997  81.8879988  18.2568790 135.6425455  82.4108044
  17.7053229 134.1966648  81.6158757  17.1660012 136.0044997  80.6039988
  16.1979996 135.8087366  80.1495048  17.1907237 137.0745191  80.7983186
  18.2550012 135.6664997  79.6259988  18.1728328 136.2767043  78.7315897
  18.2134149 134.6278517  79.3158021  19.2361350 135.8428538  80.0577587
 131.3240012  25.4604997  81.0739988 131.0565968  25.7341737  80.0581118
 131.1564809  24.3930221  81.1845364 132.3886451  25.6405493  81.1953552
 130.5140012  26.2544997  82.0929988 129.4560104  26.0711532  81.9134366
 130.6762533  27.3127052  81.9067482 130.8410012  25.9214997  83.5439988
 131.9232276  25.9149277  83.6731180 130.5073430  24.9058157  83.7470488
 130.2160012  26.8524997  84.5799988 129.1436450  26.8670367  84.3980896
 130.5688954  27.8636339  84.3830745 130.4610012  26.5044997  86.0699988
 131.5248317  26.3666199  86.2455741 129.9883574  25.5491701  86.2920758
 129.9390012  27.5524997  87.0249988 128.8660917  27.6634911  86.8788371
 130.3812239  28.5143469  86.7742680 130.2260012  27.2284997  88.5339988
 131.2799925  26.9734794  88.6280039 129.6707767  26.3287755  88.7956325
 129.8850012  28.3384997  89.5279988 128.8077356  28.4947446  89.5672091
 130.3176558  29.2838241  89.2057322 130.4080012  27.9944997  90.9589988
 131.4752045  27.7849803  90.9321734 129.9300826  27.0887145  91.3301106
 130.1420012  29.1384997  91.9319988 129.0718294  29.3328833  91.9163014
 130.6202355  30.0307441  91.5287361 130.6350012  28.9124997  93.4359988
 131.7011621  29.1288497  93.4301214 130.5443746  27.8447177  93.6277184
 130.0070012  29.6704997  94.5609988 128.9304819  29.5988271  94.4261349
 130.2632377  30.7174529  94.4096653 130.3820012  29.2804997  95.9739988
 130.2030580  30.1021998  96.6654033 131.4330089  29.0236017  96.0722852
 129.5080012  28.0554997  96.4389988 129.8577129  27.2047914  95.8633755
 128.5036059  28.2799705  96.0898642 129.4330012  27.6604997  97.9409988
 129.1176089  28.5055112  98.5397677 130.4023676  27.3276593  98.2925879
 128.6380012  26.3534997  98.2059988 127.9090012  25.7324997  97.4279988
 128.8440012  26.0814997  99.4409988 128.1290012  24.9194997 100.0089988
 127.3465023  24.7141704  99.2941579 127.6815969  25.1963261 100.9526028
 129.0300012  23.7024997 100.1689988 128.4503267  22.9183824 100.6272908
 130.2910012  23.9814997 101.0099988 130.5900850  23.0274514 101.4224813
 129.9390649  24.6130287 101.8161606 131.3900012  24.6014997 100.3339988
 132.9120012  24.4914997 100.8549988 133.3380012  25.9744997 100.9979988
 132.5990012  26.9284997 100.2519988 132.4162489  26.6048861  99.2356008
 133.1596587  27.8562930 100.1837372 131.2700012  27.3064997 100.9649988
 130.8094224  26.3438537 101.1478345 130.6067587  27.8976402 100.3501497
 131.3210012  28.0164997 102.3389988 129.9540012  28.5184997 102.6499988
 129.5937619  29.0862692 101.8031225 130.0237573  29.1607776 103.5152809
 129.3142914  27.6778678 102.8732172 131.6600012  27.0404997 103.4709988
 132.5337750  26.4749420 103.1857308 130.8154276  26.3981150 103.6453762
 131.8706511  27.6287090 104.3524370 132.4340012  29.1084997 102.3089988
 133.3810599  28.6446720 102.0765644 132.4913572  29.5831927 103.2770002
 132.1942158  29.8473297 101.5579540 133.0470012  23.8734997 102.2269988
 133.6650012  23.8034997  99.7819988 129.3850012  23.2804997  98.8589988
 130.0020012  22.1214997  98.7709988 130.1210012  21.3294997  99.6599988
 130.1210012  21.7624997  97.2729988 129.7455144  20.7504253  97.1622368
 129.4414676  22.3953752  96.7076585 131.6060012  21.9044997  96.7429988
 132.2572060  21.3996166  97.4480423 131.6896907  21.3551210  95.8106833
 132.1160012  23.3924997  96.5389988 132.1926097  23.8635464  97.5156769
 133.1294139  23.3362188  96.1492653 131.2630012  24.2824997  95.5809988
 130.2131029  24.2824710  95.8680870 131.5753913  25.3239027  95.5712933
 131.3760012  23.7104997  94.1379988 131.0454620  22.6740391  94.1181421
 130.7015392  24.2561370  93.4809128 132.7990012  23.8024997  93.5669988
 133.2846605  24.6848429  93.9808906 133.3840275  22.9480324  93.8955530
 132.8460012  23.8694997  92.0359988 132.5245586  24.8654122  91.7541956
 133.8957328  23.7950727  91.7551604 132.0920012  22.8444997  91.3069988
 131.1454909  22.5661479  91.7453966 132.4360012  22.2394997  90.1759988
 131.7191436  21.5032173  89.8419127 133.7000012  22.3964997  89.2189988
 134.3703872  23.1495383  89.6297740 134.2795792  21.4832851  89.1427790
 133.2640012  22.8574997  87.7859988 133.0006861  23.9130901  87.8416670
 134.1432111  22.7975693  87.1473618 132.1110012  22.0744997  87.1339988
 132.4480910  21.0385914  87.0969652 131.2919614  22.1019912  87.8473865
 131.5960012  22.4884997  85.7479988 130.5127017  22.3910450  85.7584816
 131.8048416  23.5482297  85.6121943 132.1990012  21.6784997  84.5309988
 133.2755838  21.8359040  84.5030044 132.0589760  20.6139953  84.6978771
 131.6310012  22.0734997  83.1689988 131.5081048  23.1550588  83.1659582
 132.3927421  21.8542393  82.4230030 130.2580012  21.4054997  82.7019988
 129.9959049  21.7544839  81.7062927 130.4250422  20.3349036  82.6059031
 129.1310012  21.6254997  83.6069988 128.2568734  21.0732423  83.2753642
 128.8527284  22.6725849  83.6610142 129.3686627  21.2948970  84.6141531
  33.6440012  10.3074997  82.2539988  33.9824573  10.2222153  81.2260868
  33.8732839  11.3126229  82.5959734  32.5629676  10.1980733  82.2560903
  34.3030012   9.2584997  83.1429988  35.3841621   9.3778280  83.0976679
  34.0878838   8.2713451  82.7429183  33.8550012   9.3444997  84.5789988
  34.3539003   8.5342162  85.1104771  32.7953316   9.0969689  84.5788053
  34.0440012  10.6224997  85.3369988  33.8263202  10.4102103  86.3814116
  33.2790341  11.3232048  85.0060248  35.4310012  11.2994997  85.2489988
  35.5695531  11.5861982  84.2096815  36.1560646  10.5120640  85.4479787
  35.7440012  12.5304997  86.1599988  35.3845435  13.4375452  85.6774269
  36.8216315  12.6441070  86.2568663  35.1330012  12.4204997  87.5269988
  35.5254341  11.5702280  88.0818000  34.0536717  12.2819835  87.4812691
  35.4460012  13.7144997  88.2939988  35.0850757  14.5356962  87.6760829
  36.5302518  13.8065505  88.3187208  34.8830012  13.8734997  89.7419988
  33.7962106  13.9225117  89.7470025  35.2305055  14.7939485  90.2095366
  35.3550012  12.6394997  90.6069988  36.4171921  12.4565481  90.4601037
  34.8424181  11.7307159  90.2926747  35.0760012  12.8844997  92.0429988
  34.0003707  12.9614945  92.1866372  35.4900507  13.8468555  92.3389078
  35.6240012  11.7684997  93.0009988  36.4721798  11.2891127  92.5182979
  34.8566635  11.0026797  93.0978634  36.0200012  12.2524997  94.4149988
  36.8828948  12.9081488  94.3111206  36.3533111  11.4017986  95.0027795
  34.8950012  13.0434997  95.2329988  33.9222485  12.5657230  95.1798323
  34.7689378  14.0560218  94.8588344  35.3520012  13.1184997  96.7329988
  36.3366443  13.5623241  96.8074222  35.3839046  12.1265688  97.1678831
  34.4370012  14.1634997  97.4889988  34.7730012  15.2554997  97.8479988
  33.2140012  13.7534997  97.4669988  32.2100012  14.5174997  98.1969988
  31.7279004  15.0801987  97.4118805  32.6242902  15.2044900  98.9206015
  31.2460012  13.5974997  98.8329988  30.4451301  14.2801183  99.0643671
  31.7490012  12.9194997 100.1279988  31.7355434  13.6625182 100.9138381
  32.7764539  12.6372619  99.9349505  30.9920012  11.7914997 100.5029988
  31.5390012  10.3904997 101.0619988  32.9970012  10.7894997 101.3959988
  33.4240012  11.5654997 102.5199988  32.8358019  11.3698295 103.4070861
  33.3116869  12.6238914 102.3032281  34.9450012  11.3644997 102.8009988
  35.0894881  10.2981459 102.9204229  35.2967334  11.8645314 103.6918577
  35.9150012  11.7994997 101.6529988  35.7570012  11.0314997 100.3699988
  35.7897433   9.9741643 100.5942838  36.5810278  11.2915615  99.7223507
  34.8257087  11.3159757  99.9036461  35.7390012  13.3144997 101.2549988
  35.7673605  13.9106068 102.1542018  34.8065088  13.4343036 100.7330074
  36.5649908  13.5771097 100.6099606  37.3550012  11.6684997 102.2219988
  37.4489352  12.2917369 103.0988304  38.0630285  11.9890045 101.4725831
  37.5471835  10.6378462 102.4832543  30.9270012  10.0714997 102.3659988
  31.5340012   9.3044997 100.0339988  30.7490012  12.5654997  97.9339988
  29.8100012  12.8374997  97.0379988  29.1620012  13.8514997  96.8909988
  29.6520012  11.6034997  96.1389988  29.1969700  10.8033815  96.7137253
  28.9685443  11.8059260  95.3181350  31.0360012  11.2184997  95.6199988
  31.5002518  12.1766924  95.4140886  31.5394236  10.8233125  96.4965979
  31.2680012  10.2564997  94.3889988  32.3381185  10.1333683  94.2429116
  30.8845494   9.2764080  94.6618541  30.5890012  10.7034997  93.0449988
  29.5145854  10.7777347  93.2025612  30.9241383  11.6984124  92.7620964
  30.8350012   9.7634997  91.8969988  31.8695735   9.8678152  91.5765625
  30.7348053   8.7463437  92.2708108  29.9040012   9.9354997  90.6819988
  29.9540751   9.0480067  90.0530713  28.8689344  10.0288829  90.9985968
  30.2910012  11.2204997  89.8139988  31.3475673  11.0722262  89.6235702
  29.7802958  11.0357498  88.8698624  30.0090012  12.6424997  90.2459988
  29.8100036  12.8060193  91.2944335  29.9970012  13.7054997  89.4569988
  29.7460183  14.6596020  89.8978007  30.2900012  13.7684997  88.0269988
  30.9350007  12.9178607  87.8134342  29.3739365  13.6018705  87.4713538
  31.0020012  15.0784997  87.4879988  30.3625093  15.9143616  87.7692283
  31.9134575  15.1836924  88.0733541  31.3450012  15.1764997  86.0029988
  31.7012686  14.1871710  85.7159287  30.4020693  15.3223078  85.4832646
  32.3510012  16.2284997  85.5369988  31.8473679  17.1909153  85.4799491
  33.1306006  16.3371818  86.2889947  33.0000012  15.8914997  84.1759988
  33.7606540  16.6308852  83.9324700  33.5173193  14.9370034  84.2200871
  31.9610012  15.8794997  83.0249988  31.1472052  15.2194589  83.3198976
  31.5314877  16.8775364  82.9596156  32.4370012  15.4704997  81.6469988
  31.5986113  15.1078809  81.0574862  32.7915440  16.3644612  81.1386238
  33.5200012  14.4574997  81.6399988  33.8719969  14.2765692  80.6288449
  33.1885883  13.5067808  82.0437811  34.3687835  14.7892203  82.2313286
 130.6400012 108.1694997  85.0869988 129.8172629 108.8438529  84.8707157
 130.9494628 108.3430057  86.1136044 130.2594762 107.1536093  85.0255214
 131.7870012 108.3784997  84.1279988 132.1984553 109.3852574  84.1764487
 131.5001194 108.2155664  83.0926410 132.8510012 107.3874997  84.5339988
 132.3865667 106.4434551  84.8186205 133.3574426 107.7544855  85.4245096
 133.9040012 107.1264997  83.4479988 134.1028671 108.0667625  82.9384812
 133.4783608 106.4614559  82.6981633 135.2010012 106.5614997  83.9319988
 135.7706973 106.1957875  83.0815437 134.9859465 105.6927641  84.5520108
 136.0470012 107.5214997  84.7049988 136.8627504 106.9290124  85.1152778
 135.4399380 107.8315783  85.5528800 136.6480012 108.8214997  83.9809988
 135.8362864 109.4693499  83.6551472 137.1823716 108.5262163  83.0790642
 137.6070012 109.6254997  84.9059988 138.1908486 110.3030568  84.2843160
 138.3179439 108.9298756  85.3479847 136.9150012 110.4344997  86.0339988
 135.8986556 110.6615949  85.7193396 137.4238266 111.3927116  86.1314846
 136.8790012 109.7114997  87.4539988 137.8567545 109.2881786  87.6733082
 136.1830032 108.8735228  87.4255279 136.4530012 110.6954997  88.5949988
 135.5556298 111.2339142  88.2977187 137.2209357 111.4511193  88.7513432
 136.1680012 109.9754997  89.9299988 136.9552610 109.2428840  90.0903585
 135.2463279 109.4095039  89.8081912 136.0250012 110.9044997  91.1959988
 135.3228533 111.6982543  90.9466117 136.9769001 111.3904955  91.3908589
 135.5360012 110.2274997  92.4829988 136.2931006 109.5378928  92.8415902
 134.6569568 109.6340238  92.2460189 135.1720012 111.2154997  93.6139988
 134.4410988 111.9352048  93.2678091 136.0541957 111.7488453  93.9476815
 135.1560012 110.5164997  95.0339988 136.1880012 110.0944997  95.5899988
 133.9710012 110.5764997  95.5729988 133.6440012 110.1114997  96.8569988
 134.0181127 109.1167807  97.0468321 132.5642125 110.0946148  96.8880349
 134.2240012 111.1254997  97.9179988 135.2796644 111.2487360  97.7411316
 133.9820012 110.7234997  99.3879988 134.5583701 109.8193272  99.5296746
 132.9292858 110.4705478  99.4077644 134.2800012 111.6594997 100.3939988
 133.4990012 111.8404997 101.7259988 132.4470012 110.6914997 101.6839988
 132.8630012 109.3554997 102.1569988 133.4790507 109.4110014 103.0450256
 133.4650822 108.8701331 101.3942965 131.6690012 108.4284997 102.3749988
 130.9929352 108.8560674 103.1046354 131.9683758 107.4467088 102.7123983
 130.8330012 108.2024997 101.1159988 131.7790012 107.6914997 100.0159988
 132.6253981 108.3612686  99.9500002 131.2373687 107.6967717  99.0818112
 132.0809315 106.6826357 100.2542185 129.7380012 107.2124997 101.4569988
 129.2446353 107.5439689 102.3577941 130.1732276 106.2372813 101.5830826
 129.0396843 107.2065472 100.6326110 130.1700012 109.5124997 100.6729988
 129.5504776 109.8863064 101.4745854 129.5604569 109.3246648  99.8018938
 130.9324922 110.2386565 100.4306380 134.4400012 111.5394997 102.8139988
 132.8800012 113.1594997 101.7699988 133.5240012 112.3474997  97.8149988
 133.9790012 113.2784997  97.0019988 135.0720012 113.2374997  96.5059988
 132.9080012 114.2894997  96.6089988 132.3196323 114.5216922  97.4907366
 133.3695283 115.2255279  96.3044484 132.0400012 113.7014997  95.4729988
 131.5529741 114.5536591  95.0118155 132.7358701 113.3173169  94.7339433
 130.9590012 112.6094997  95.8069988 131.3587336 111.6265257  96.0428591
 130.3122235 112.8810264  96.6376714 130.0920012 112.5384997  94.4999988
 129.0929701 112.2013589  94.7701450 129.9733138 113.5338072  94.0787172
 130.6350012 111.6114997  93.4239988 131.5799177 112.0155409  93.0665291
 130.8718664 110.6604504  93.8970539 129.7120012 111.3484997  92.2319988
 130.2554935 110.6360020  91.6134002 128.8545719 110.8150655  92.6327244
 129.1930012 112.5314997  91.3299988 128.5244188 112.0326200  90.6381197
 128.5609981 113.0975021  92.0130502 130.0920012 113.4794997  90.6179988
 129.9251255 114.5346163  90.7743171 131.0940012 113.1374997  89.8139988
 131.6694183 113.9318989  89.3607494 131.5690012 111.7134997  89.4279988
 132.4841910 111.4582156  89.9594859 130.8544574 110.9320393  89.6612967
 131.8830012 111.6974997  87.8459988 132.7471420 112.3305183  87.6478748
 132.1752405 110.6881099  87.5628246 130.6850012 112.1554997  86.9519988
 129.9208637 111.3785092  86.9299371 130.2105939 113.0359943  87.3764642
 131.1380012 112.4604997  85.5159988 131.6951545 113.3939964  85.4798192
 131.8109832 111.6899046  85.1440263 129.9290012 112.5454997  84.6109988
 129.2541016 111.7240867  84.8441968 129.3746118 113.4550675  84.8253903
 130.2680012 112.4714997  83.0829988 130.7777369 111.5282982  82.8947877
 129.3298125 112.4224449  82.5332446 131.1130012 113.6054997  82.4999988
 132.1462886 113.4114866  82.7767496 131.0654980 113.4722203  81.4214381
 130.7490012 115.1064997  82.8429988 131.3813198 115.7929359  82.2879786
 130.8796899 115.3246304  83.8975510 129.7166548 115.3264541  82.5860510
   6.8090012 131.8114997  84.1249988   7.1249465 132.3274203  83.2236479
   5.7976575 132.1345324  84.3543977   6.7720369 130.7487730  83.9017103
   7.7700012 132.0994997  85.3039988   7.7776105 133.1849409  85.3874404
   8.7467252 131.8159866  84.9213182   7.5420012 131.4654997  86.7459988
   6.4792808 131.3264100  86.9440099   7.9049207 132.1456303  87.5140370
   8.2930012 130.0724997  86.9099988   9.3161981 130.1688196  86.5535715
   7.8252442 129.3153610  86.2825831   8.3240012 129.5804997  88.3619988
   8.4644165 128.5036622  88.4097219   7.3740887 129.7867719  88.8523895
   9.4220012 130.2444997  89.1189988   9.3514765 129.9557500  90.1661219
   9.2689021 131.3211905  89.0894281  10.8250012 129.9194997  88.5979988
  11.0851439 130.5742932  87.7683355  10.8609636 128.9037025  88.2067279
  11.9090012 130.0764997  89.7499988  11.8080631 131.0665934  90.1926915
  12.9016309 130.0424282  89.3047917  11.8150012 129.0284997  90.8419988
  11.5542350 128.0854383  90.3664178  10.9693973 129.2928698  91.4757492
  13.0610012 128.8294997  91.7169988  13.9277658 128.7505109  91.0644815
  12.9763669 127.8715161  92.2293790  13.2800012 129.9184997  92.7359988
  12.3314429 130.0258435  93.2577798  13.4199891 130.8385305  92.1711318
  14.3750012 129.7944997  93.7629988  15.3101300 129.5929692  93.2461443
  14.1686586 128.9160303  94.3715909  14.5340012 131.0024997  94.6869988
  14.8533330 131.8486679  94.0809636  15.3376379 130.8136081  95.3932296
  13.2750012 131.4224997  95.4609988  13.0752122 130.7667168  96.3020565
  12.3982117 131.3876376  94.8198148  13.4530012 132.8854997  95.9809988
  13.6865812 133.5531904  95.1614437  14.2554364 132.9327994  96.7075863
  12.2200012 133.4684997  96.6549988  12.1610012 134.6274997  96.9859988
  11.2380012 132.5814997  96.9309988  10.0890012 133.0644997  97.7279988
   9.6876018 133.9160590  97.1996171  10.4205538 133.3802309  98.7065582
   9.0280012 131.9564997  97.8369988   8.0434030 132.3811488  97.9425147
   9.3530012 131.1014997  99.0469988   8.5755337 130.3618214  99.1819859
   9.3660871 131.7528916  99.9119278  10.6290012 130.4644997  98.8809988
  11.7780012 130.6564997  99.9649988  11.5700012 132.0984997 100.5909988
  12.4940012 132.4644997 101.5469988  13.5082558 132.4779463 101.1697777
  12.4813014 131.7572539 102.3712798  12.1160012 133.8304997 102.1769988
  12.0250373 134.4884350 101.3219574  12.9164963 134.1893585 102.8077165
  10.8730012 134.0104997 102.9569988   9.6980012 133.7844997 102.0769988
   9.8105966 134.3903092 101.1883756   8.8139978 134.0907440 102.6163061
   9.6331211 132.7326550 101.8422000  10.8280012 133.0434997 104.1159988
  11.7626093 133.1070859 104.6518891  10.6577492 132.0510032 103.7387255
  10.0120345 133.3449970 104.7567754  10.9320012 135.4284997 103.5629988
  11.8165796 135.5166825 104.1760459  10.0537061 135.5919739 104.1692363
  10.9633625 136.1594728 102.7679329  11.6070012 129.5854997 100.9999988
  13.0500012 130.7194997  99.3079988   9.0430012 131.1914997  96.6589988
   8.5130012 131.7384997  95.5379988   8.0630012 132.8494997  95.4259988
   8.5750012 130.7654997  94.3989988   9.5495945 130.2889899  94.4246748
   7.8508909 129.9703821  94.5582448   8.3180012 131.4964997  93.0439988
   7.9169085 130.7663703  92.3496669   7.5311836 132.2281165  93.1979076
   9.5470012 132.1754997  92.4079988  10.3884469 131.5009079  92.5441937
   9.3539291 132.2072254  91.3385215   9.9150012 133.5584997  92.8699988
   9.0096090 134.1623111  92.8895625  10.2774325 133.5209168  93.8944172
  10.9660012 134.2844997  91.9939988  10.6666201 134.2395553  90.9488902
  10.9775612 135.3395590  92.2606392  12.3810012 133.7284997  92.1399988
  12.7404548 133.8784106  93.1568669  12.4049928 132.6571624  91.9611725
  13.3320012 134.4054997  91.1659988  13.0347939 134.1537760  90.1546220
  13.2090299 135.4834178  91.2625211  14.7950012 134.0584997  91.4109988
  15.1489151 134.4096349  92.3686015  15.6550012 133.4054997  90.6559988
  16.6312255 133.2951140  91.1058999  15.5340012 132.7814997  89.2889988
  15.9419292 131.7723419  89.3094048  14.5063681 132.6868312  88.9562990
  16.3060012 133.5764997  88.2919988  16.1505330 134.6428679  88.4513522
  17.3718951 133.4021279  88.4258776  15.9060012 133.2054997  86.8339988
  16.8295259 133.2262954  86.2554000  15.5861022 132.1674313  86.8581364
  14.8090012 134.0784997  86.0969988  13.9982765 134.2895622  86.7907733
  15.2333590 135.0427006  85.8225503  14.2460012 133.3784997  84.8139988
  13.8250488 134.1550019  84.1780480  15.0858304 132.9656421  84.2618571
  13.1420012 132.2724997  85.0239988  13.5205259 131.4624068  85.6447657
  12.2845223 132.6833609  85.5538638  12.6780012 131.7094997  83.7579988
  11.7803078 131.1184150  83.9213404  12.3762002 132.5350374  83.1171270
  13.7150012 130.8654997  83.0159988  13.3361241 130.5530877  82.0475361
  13.9773657 129.9687125  83.5670692  14.6286924 131.4285414  82.8477924
 108.1530012 132.5834997  82.3989988 107.8480127 133.6235910  82.4591733
 107.5089383 132.0906668  81.6764416 109.1661819 132.5583866  82.0072767
 108.0730012 131.8864997  83.7959988 107.0389895 132.0632076  84.0871982
 108.6801475 132.5447761  84.4115143 108.4410012 130.3874997  84.0829988
 109.5221593 130.2505959  84.0661602 108.0449174 129.7541831  83.2916715
 107.8740012 129.8774997  85.4619988 108.1320771 128.8218632  85.5097324
 106.7891470 129.9191046  85.3779369 108.3110012 130.5524997  86.7799988
 107.8382737 131.5283598  86.8561486 109.3832586 130.7352837  86.7328925
 107.9940012 129.7534997  88.0309988 108.3110972 130.3481529  88.8857821
 108.6286819 128.8699317  88.0229275 106.5200012 129.3214997  88.2269988
 106.1965438 128.8232035  87.3149427 105.9179154 130.2253038  88.3098291
 106.2310012 128.3974997  89.4479988 106.6579541 127.4133598  89.2592373
 105.1563842 128.2502719  89.5385883 106.7680012 128.9294997  90.7439988
 106.2394007 129.8457956  90.9980152 107.8120711 129.2090079  90.6084627
 106.6580012 127.9504997  91.8959988 107.1700449 127.0331336  91.6139531
 105.6090117 127.6864497  92.0276333 107.2220012 128.4814997  93.2389988
 107.0503023 127.7386602  94.0150464 106.6722601 129.3701378  93.5443429
 108.6330012 128.7834997  93.2029988 108.7698972 129.8612711  93.2464417
 109.0355624 128.4644210  92.2434139 109.4500012 128.0904997  94.3429988
 109.4383446 127.0078816  94.2287436 109.0484889 128.2964590  95.3312511
 110.8650012 128.5414997  94.2909988 110.9192310 129.6217797  94.3770173
 111.2855920 128.2815688  93.3232016 111.7470012 127.8914997  95.4079988
 111.6815536 126.8118411  95.3622267 111.4176916 128.2186418  96.3870811
 112.6020012 128.9154997  96.1559988 112.9610012 129.9354997  95.6719988
 112.7950012 128.4574997  97.4159988 113.4560012 129.5264997  98.2739988
 113.9073073 130.2069386  97.5677498 114.2314994 129.0804575  98.8796727
 112.4020012 130.2904997  99.1749988 113.0098240 130.8148759  99.8936607
 111.3910012 129.3834997  99.9059988 111.4238298 129.7264923 100.9312204
 111.8663733 128.4121916  99.8497238 110.0350012 129.3034997  99.4469988
 108.9990012 128.1514997  99.8799988 108.1390012 128.9034997 100.9529988
 107.5500012 130.2154997 100.8529988 106.5290452 130.2739087 101.2071546
 107.5398109 130.5653249  99.8247403 108.4690012 131.2224997 101.6199988
 108.2123736 132.2489862 101.3903979 109.4775423 131.0327492 101.2820393
 108.5140012 131.1374997 103.1279988 107.1490012 131.4174997 103.7369988
 106.7712553 132.3438467 103.3264831 107.2747264 131.5174734 104.8048463
 106.4936025 130.5859763 103.5254841 108.9640012 129.8244997 103.7499988
 109.8881630 129.5223548 103.2816535 108.1932617 129.0876697 103.6106708
 109.1236334 130.0040036 104.8033709 109.4400012 132.2814997 103.5339988
 110.4024943 132.1437107 103.0642082 109.5574029 132.2789579 104.6072463
 109.0106372 133.2218928 103.2197659 108.1290012 127.8014997  98.6929988
 109.7270012 127.0714997 100.5859988 111.6360012 131.2344997  98.3979988
 110.9010012 132.1804997  98.9869988 110.9050012 132.4844997 100.1809988
 110.0690012 132.8604997  97.9149988 110.0286482 133.9127550  98.1770737
 110.6118383 132.8088461  96.9744847 108.7020012 132.2634997  97.7819988
 108.7842839 131.1842618  97.7146477 108.1174305 132.4648180  98.6740644
 107.9600012 132.7904997  96.5409988 107.0436165 132.2163975  96.4300940
 107.6540790 133.8098485  96.7632700 108.7700012 132.7914997  95.1759988
 109.2896838 133.7404392  95.0570463 109.5376046 132.0214882  95.1676749
 107.8460012 132.5874997  93.9559988 107.4074738 131.5936794  94.0185776
 107.0194502 133.2895563  94.0471628 108.5040012 132.7734997  92.5609988
 108.0125705 132.0778314  91.8825870 108.2633615 133.7711166  92.2043883
 110.0470012 132.5724997  92.4759988 110.5185692 133.1921562  93.2298086
 110.2682728 131.5404872  92.7449508 110.6200012 132.8474997  91.1109988
 110.3151032 133.7965937  90.6964970 111.4380012 132.1014997  90.3769988
 111.6674291 132.5265136  89.4103882 112.0930012 130.8074997  90.6349988
 113.1685542 130.9029141  90.4960646 111.9483821 130.4499278  91.6483638
 111.5630012 129.7384997  89.6269988 110.5203214 129.9514538  89.3942447
 112.1098518 129.8427587  88.6918285 111.6880012 128.3274997  90.1159988
 112.7389593 128.0394587  90.0909722 111.3851379 128.2809909  91.1584069
 110.8790012 127.3324997  89.3109988 111.1005986 126.3376596  89.6909105
 109.8230315 127.5061722  89.5106255 111.1250012 127.3814997  87.7769988
 110.5863965 126.5589666  87.3101644 110.6897709 128.2901217  87.3700522
 112.6150012 127.2734997  87.3599988 113.0679566 128.2625277  87.3992134
 113.1441680 126.6698690  88.0951494 112.8640012 126.6824997  85.9819988
 113.9070668 126.4082781  85.8451355 112.2989826 125.7588862  85.8770934
 112.4320012 127.6664997  84.8479988 112.5326522 127.1991042  83.8730732
 113.0365127 128.5671950  84.8406051 111.3945151 127.9664225  84.9655148
  20.9700012  30.0614997  84.2239988  20.6116249  30.4611006  83.2804340
  22.0237143  30.3105251  84.3103988  20.4437020  30.5772908  85.0224853
  20.7520012  28.5644997  84.3059988  21.2665786  28.0969024  83.4682841
  19.6928018  28.3703485  84.1603412  21.2420012  27.9074997  85.6439988
  20.6299833  28.2785489  86.4659997  22.2547249  28.2523601  85.8430787
  21.2380012  26.3474997  85.6629988  21.5382372  25.9973738  86.6481486
  21.9799491  25.9602427  84.9663989  19.8390012  25.7384997  85.3209988
  19.9378674  24.6921532  85.0435864  19.4218846  26.2465780  84.4531076
  18.8880012  25.8474997  86.4559988  17.8725737  25.8426415  86.0639522
  19.0239958  26.8141758  86.9362275  19.0370012  24.6954997  87.5439988
  20.0816689  24.5416824  87.8081568  18.6781291  23.7434947  87.1552477
  18.2520012  25.0544997  88.7929988  18.7440859  25.8768081  89.3107945
  18.2571473  24.2136741  89.4841355  16.7830012  25.4514997  88.4809988
  16.4661125  24.9654442  87.5607419  16.7311621  26.5229815  88.2917468
  15.7770012  25.0774997  89.6449988  15.9657785  24.0463076  89.9353519
  14.7641808  25.1010637  89.2436653  15.8550012  26.0124997  90.9029988
  15.0011683  26.6866256  90.8949526  16.7392288  26.6439491  90.8356117
  15.8680012  25.2564997  92.2579988  16.6600963  24.5152195  92.1851421
  14.9336338  24.6998111  92.2995380  16.0200012  26.0814997  93.5859988
  16.6312632  26.9695274  93.4342835  16.4936085  25.5191792  94.3858524
  14.5780012  26.5544997  94.0669988  13.9316186  25.6852990  94.1304406
  14.1684963  27.1949272  93.2903068  14.5350012  27.3034997  95.3809988
  15.1994123  28.1577640  95.3521673  14.8371526  26.6552834  96.1949945
  15.3140012  26.4894997  96.3869988  14.9070012  25.4914997  96.9129988
  16.5660012  27.0294997  96.5379988  17.2650012  26.4424997  97.6819988
  17.3439602  25.3691754  97.5971310  16.7374787  26.6869195  98.5925870
  18.6590012  27.0804997  97.6669988  19.1340732  26.9944959  96.7037730
  19.5260012  26.3414997  98.7609988  20.5598443  26.5775989  98.5483336
  19.3661733  25.2864030  98.5771208  19.2120012  26.6604997 100.0989988
  20.3710012  26.9634997 101.1869988  19.4670012  27.9164997 102.1669988
  19.0190012  29.1384997 101.6529988  19.7868428  29.5656638 101.0212242
  18.8951707  29.8191829 102.4903359  17.6480012  29.1274997 100.9319988
  17.7096951  28.5003579 100.0515807  17.4591976  30.1448927 100.6211263
  16.3810012  28.6724997 101.6829988  16.5420012  27.2004997 101.8649988
  16.7766639  26.7577780 100.9067373  15.6051330  26.8052692 102.2285520
  17.3184266  27.0202377 102.5932750  16.1870012  29.3294997 102.9849988
  16.2844674  30.3956451 102.8488069  16.9163140  28.9535427 103.6800737
  15.1894670  29.0886309 103.3229409  15.1060012  28.8774997 100.9179988
  15.0015215  29.9244591 100.6750133  14.2722318  28.5623691 101.5272371
  15.1318881  28.2919372 100.0103196  20.5660012  25.7054997 101.9639988
  21.6380012  27.6444997 100.7279988  18.5690012  28.4884997  98.0389988
  19.7410012  29.2324997  97.7999988  20.7320012  28.7514997  97.2799988
  19.6820012  30.7354997  98.2359988  18.6673398  30.9463285  98.5578163
  20.3090705  30.8867942  99.1110993  20.1140012  31.6364997  97.0909988
  19.8865806  32.6489723  97.4060227  21.1963793  31.5739954  97.0401671
  19.4980012  31.3904997  95.6669988  19.9300319  32.1292610  94.9967487
  19.8712434  30.4248641  95.3348794  17.9240012  31.3944997  95.5349988
  17.5232181  30.5556228  96.1010063  17.5076452  32.2920016  95.9859312
  17.4290012  31.2884997  94.1159988  17.8531341  32.0595014  93.4760233
  17.7125191  30.3363339  93.6717253  15.9350012  31.3974997  94.1019988
  15.5652747  30.6192004  94.7677716  15.6730227  32.3455510  94.5633923
  15.1870012  31.2894997  92.6989988  14.1130095  31.3513017  92.8305373
  15.4667708  32.1277834  92.0623235  15.5930012  29.9554997  91.9789988
  15.1348948  29.0332879  92.3033719  16.4770012  29.8784997  90.9589988
  16.6949532  28.9197594  90.5107533  17.2310012  31.0364997  90.3379988
  16.5291569  31.8464502  90.1466464  17.9807716  31.4372063  91.0110214
  17.9010012  30.6464997  88.9929988  18.7505727  31.3116309  88.8428864
  18.3160868  29.6486675  89.1214270  16.9850012  30.6654997  87.7099988
  16.1990538  29.9159126  87.8022649  16.4813149  31.6235980  87.6159152
  17.8000012  30.3894997  86.4389988  18.6500340  31.0677001  86.4641637
  18.2091916  29.3851617  86.5336211  17.0480012  30.5174997  85.0529988
  16.6449883  31.5170893  84.9013704  17.6959797  30.3265438  84.2019496
  15.8670012  29.5244997  85.0509988  16.2242915  28.5317501  85.3187204
  15.1547399  29.8074899  85.8239376  15.1250012  29.4304997  83.7199988
  14.5761564  30.3368864  83.4767961  15.8259172  29.2804293  82.9017638
  14.1400012  28.2234997  83.7629988  13.6633918  28.0803884  82.7978917
  13.3532938  28.3680265  84.4957637  14.6603110  27.3036569  84.0146095
   8.0630012  39.8304997  82.6789988   8.1208068  39.2329956  81.7745230
   7.7330813  40.8263830  82.3976462   7.2947899  39.3965524  83.3131543
   9.4160012  39.8774997  83.4039988  10.1557606  40.2833300  82.7160592
   9.7193407  38.8545102  83.6096479   9.4260012  40.7204997  84.7289988
   9.3445952  41.7819742  84.4953885  10.3853073  40.5944811  85.2270170
   8.3010012  40.3274997  85.7219988   8.2273272  39.2427501  85.6882254
   7.3658436  40.7060587  85.3122679   8.4260012  40.7584997  87.1649988
   7.6585831  40.2178635  87.7130453   8.1324372  41.8067811  87.1820622
   9.7730012  40.5954997  87.8989988   9.7380628  41.0085544  88.9054689
  10.5798038  41.1139299  87.3853096  10.1040012  39.0894997  87.9769988
  10.3285431  38.6566523  87.0038626   9.2874665  38.4996691  88.3912463
  11.3610012  38.9564997  88.9049988  11.0797666  39.3402220  89.8848535
  12.1202417  39.6345021  88.5195763  11.9830012  37.5214997  89.0689988
  12.9648973  37.5356533  89.5372088  12.1067137  37.0011976  88.1200215
  10.9800012  36.7104997  89.9809988  11.3505469  35.6879798  90.0021621
  10.0314842  36.6803991  89.4454257  10.7430012  37.1954997  91.3689988
  10.1890596  36.4534339  91.9399876  10.1321734  38.0966156  91.3717315
  12.1160012  37.4884997  92.1249988  12.6774968  38.2155227  91.5432951
  12.7045339  36.5729485  92.1169256  11.9790012  37.9554997  93.5379988
  12.9686545  38.0867334  93.9722981  11.4763010  37.2089609  94.1464776
  11.2070012  39.3264997  93.6629988  10.1637255  39.2485627  93.3751678
  11.6511613  40.0913911  93.0315284  11.2940012  39.7864997  95.1189988
  12.3269969  39.8393601  95.4386337  10.7649443  39.0961270  95.7651825
  10.5380012  41.0874997  95.2559988   9.9210012  41.5454997  94.2749988
  10.4890012  41.5144997  96.5389988   9.6070012  42.6344997  96.7129988
   9.5643422  43.0501892  95.7175871  10.0431130  43.3626542  97.3814219
   8.1880012  42.2264997  97.1859988   7.5752792  43.0718188  96.9197257
   8.0060012  41.8934997  98.7179988   7.1354640  42.4102765  99.0986663
   8.8818800  42.2585715  99.2396728   7.8730012  40.5184997  98.8959988
   8.9980012  39.7134997  99.6999988   9.5410012  40.5484997 100.8949988
   8.7530012  40.4964997 102.0769988   8.8327909  39.5603819 102.6141264
   7.7001038  40.6303901 101.8461795   9.1240012  41.6904997 102.9849988
   8.7934153  41.3986428 103.9738271   8.6188496  42.6037544 102.7054191
  10.5670012  42.0474997 103.1279988  11.0700012  42.6744997 101.9009988
  10.8142237  42.0434434 101.0609512  12.1438623  42.7531499 101.9830748
  10.6402599  43.6607680 101.8098162  10.7400012  43.1824997 104.1619988
  10.2024236  42.9142481 105.0585285  10.3697431  44.1002127 103.7411879
  11.7958868  43.2677988 104.3744290  11.4460012  40.9204997 103.4939988
  11.1095217  40.4959224 104.4281282  12.4577589  41.2809538 103.6038586
  11.4122186  40.1698626 102.7175725   8.3970012  38.4164997 100.1459988
  10.1500012  39.6624997  98.7979988   7.7750012  41.0824997  96.3749988
   6.6180012  41.2034997  95.7139988   5.9300012  42.1474997  95.6369988
   6.3510012  39.9314997  94.8319988   7.2485947  39.3220605  94.8535125
   5.5709463  39.3283570  95.2898638   5.9740012  40.3314997  93.4269988
   5.5089964  39.4719494  92.9568873   5.2035789  41.0935804  93.4879531
   7.1690012  40.8434997  92.5099988   7.2482269  41.9268486  92.5516200
   8.1109311  40.4558419  92.8902019   7.0050012  40.3914997  91.0799988
   7.9327619  40.6293219  90.5628851   6.9191361  39.3076800  91.0671879
   5.7830012  41.0194997  90.2419988   5.5616118  40.4571526  89.3372040
   4.8624721  41.0341829  90.8223362   6.1490012  42.4574997  89.8689988
   6.3325406  43.0247294  90.7801874   7.0777781  42.4735158  89.3055852
   5.0700012  43.1554997  89.0499988   4.1090432  42.9672577  89.5144390
   5.2382878  44.2294797  89.1177673   5.0570012  42.7554997  87.5759988
   5.0657192  41.6891495  87.4075492   5.0230012  43.5734997  86.4529988
   5.0026393  43.1161560  85.4742076   5.0060012  45.0654997  86.4279988
   4.0735030  45.4079334  85.9825694   5.0454885  45.4994986  87.4208566
   6.1710012  45.6114997  85.5849988   6.2083270  46.6919601  85.7188531
   7.0936426  45.2212143  86.0102858   6.1260012  45.2714997  84.0369988
   6.3456270  44.2065447  83.9612199   5.0905388  45.3905885  83.7301772
   7.0630012  46.0674997  83.0459988   6.9648930  45.6170407  82.0608051
   6.6828525  47.0835352  82.9552038   8.5120012  46.1144997  83.4469988
   9.0506310  46.8709364  82.8793092   8.6361885  46.3836181  84.4923589
   9.1730012  44.7594997  83.1719988   8.4713503  43.9612520  83.4073067
   9.3825483  44.6729912  82.1073672  10.4710012  44.5094997  83.9439988
  11.0258871  43.6680452  83.5366035  11.1252814  45.3725611  83.8422378
  10.1990012  44.2674997  85.4449988  11.1303995  44.1791956  85.9961507
   9.6342686  43.3566930  85.6130742   9.6355355  45.0895817  85.8772355
  97.5840012 132.8214997  85.6749988  97.2500784 132.9947878  84.6567180
  97.1139935 133.5675446  86.3092698  97.2135694 131.8475740  85.9829941
  99.1420012 132.8894997  85.7809988  99.4632950 133.8674074  85.4264995
  99.5544277 132.1625212  85.0865777  99.6950012 132.6574997  87.1629988
 100.7840221 132.6561816  87.1187200  99.4056724 131.6603772  87.4888925
  99.2240012 133.6874997  88.2409988  99.3880591 133.2271704  89.2128176
  98.1459209 133.8027513  88.1401717  99.8870012 135.0744997  88.2359988
  99.3737235 135.7192605  88.9448024  99.7401721 135.5217622  87.2542847
 101.4160012 135.0634997  88.5749988 101.7849174 136.0669232  88.3704038
 101.8901006 134.4104893  87.8453522 101.8590012 134.6314997  90.0239988
 101.6280086 133.5798631  90.1836016 101.2860304 135.1849688  90.7667008
 103.3980012 134.8694997  90.2709988 103.6770844 135.9130868  90.1313945
 104.0163240 134.2950138  89.5837384 103.7210012 134.4444997  91.7249988
 104.8008546 134.4939624  91.8475181 103.4518368 133.3938516  91.8263215
 103.0340012 135.2634997  92.8609988 101.9734855 135.3174171  92.6249934
 103.4112593 136.2843131  92.8058156 103.2330012 134.7174997  94.3219988
 104.2872186 134.7714462  94.5851646 102.9640796 133.6635227  94.3660631
 102.4140012 135.5054997  95.4009988 102.8206873 136.5117386  95.4666389
 102.6008390 135.0385953  96.3662769 100.8180012 135.5654997  95.1569988
 100.4030627 134.5788699  94.9579015 100.5315974 136.1912800  94.3163765
 100.1550012 136.1104997  96.4389988 100.4357936 137.1385691  96.6428953
 100.4476512 135.5264008  97.3074897  98.6400012 136.0254997  96.2849988
  98.3394387 135.0128850  96.0476912  98.3037592 136.6829127  95.4920180
  98.1560012 134.6514997  96.6049988  97.9810012 133.8094997  95.7509988
  97.7700012 134.6114997  97.8649988  97.2360012 133.3984997  98.3599988
  96.6938184 133.0285356  97.5028953  96.5417091 133.5710426  99.1695539
  98.3740012 132.3524997  98.7919988  97.8912075 131.4244356  99.0498773
  99.2180012 132.8894997 100.0369988  99.8058658 132.0811189 100.4502017
  98.5156422 133.2272124 100.7888146 100.0440012 133.9384997  99.6379988
 101.5910012 133.7974997  99.9589988 101.6480012 134.2214997 101.4619988
 100.9280012 135.1774997 102.1139988 100.6104324 134.9325946 103.1191657
 100.0338188 135.4699703 101.5711398 101.8120012 136.3994997 102.1079988
 101.2427014 137.2243882 102.5175176 102.0274326 136.6077199 101.0699185
 103.1640012 136.4254997 102.8319988 102.9140012 135.8994997 104.1899988
 102.0822521 136.4392003 104.6215664 103.8021466 136.0670529 104.7809502
 102.7166692 134.8400154 104.1246525 104.2220012 135.6224997 102.0979988
 104.2259417 135.9265187 101.0624936 104.0009432 134.5750239 102.1994771
 105.1744884 135.8495652 102.5546238 103.5480012 137.8924997 102.8799988
 103.5962900 138.2805462 101.8734353 104.5136825 137.9910913 103.3526394
 102.8100263 138.4400683 103.4483267 102.0280012 132.4004997  99.7489988
 102.3160012 134.7824997  99.1489988  99.2110012 132.0754997  97.5679988
  99.9530012 130.9894997  97.6059988 100.0950012 130.2494997  98.5849988
 100.9190012 130.9794997  96.4359988 100.3210866 131.3873715  95.6274867
 101.6526548 131.7442771  96.6784341 101.5710012 129.7254997  96.0559988
 102.1411211 129.3622363  96.9039752 100.8131433 128.9737382  95.8596849
 102.5010012 129.8554997  94.8449988 103.2622622 130.6048818  95.0463987
 103.0295482 128.9149160  94.7108145 101.7470012 130.1994997  93.5139988
 101.1000375 129.3648559  93.2503440 101.0939413 131.0570960  93.6562782
 102.6820012 130.4794997  92.3279988 102.1395985 131.0612489  91.5855244
 103.4894450 131.1175777  92.6819365 103.2890012 129.2494997  91.6619988
 103.9577664 128.8379684  92.4163833 102.4702985 128.5426917  91.5596933
 104.0590012 129.3424997  90.2699988 104.8763424 130.0362459  90.4288998
 104.5123420 128.3634746  90.1205395 103.2710012 129.7034997  89.0329988
 102.4054879 129.0759233  88.8827031 103.4820012 130.6554997  88.1489988
 102.7708729 130.7164238  87.3377067 104.5610012 131.6824997  88.0899988
 104.1261674 132.5727210  87.6387266 104.8569218 131.9648789  89.0941770
 105.8400012 131.2834997  87.2599988 106.5701950 132.0778525  87.4100836
 106.2500887 130.3992295  87.7440994 105.6820012 131.0074997  85.7479988
 106.6182493 130.6219098  85.3444311 104.9382011 130.2329552  85.5826314
 105.2850012 132.2644997  84.9819988 104.2941098 132.5901041  85.2906427
 105.9616354 133.0841621  85.2173807 105.3050012 132.0134997  83.4839988
 106.3128498 131.7063618  83.2110564 104.6666732 131.1606488  83.2699712
 104.8900012 133.2744997  82.5339988 105.6499141 134.0454975  82.6479187
 104.9477383 132.9445634  81.4983142 103.5080012 133.9114997  82.7669988
 102.7291554 133.1702145  82.9276555 103.5230925 134.5243924  83.6655798
 103.1340012 134.7904997  81.5819988 102.2024237 135.3155916  81.7704423
 103.0031701 134.2122881  80.6735410 103.9010239 135.5357518  81.3911679
  26.1030012 140.4424997  82.0199988  25.4190867 139.7587557  82.5131359
  26.1367339 140.1757390  80.9676249  25.6813576 141.4412727  82.0926701
  27.5130012 140.3854997  82.6579988  27.9426778 139.3874567  82.5909814
  27.4790217 140.6327413  83.7156050  28.4240012 141.3814997  81.9089988
  28.3034735 141.2353402  80.8356677  29.4596372 141.1329929  82.1323221
  28.1990012 142.8334997  82.2409988  27.2396489 143.1005599  81.8033094
  28.9487341 143.4039650  81.6949439  28.2040012 143.2704997  83.7279988
  27.3736927 142.8405527  84.2823510  28.1065587 144.3508880  83.8209025
  29.4760012 142.8384997  84.3559988  30.3087670 143.2365569  83.7790512
  29.5526358 141.7551114  84.2929587  29.6190012 143.2644997  85.7969988
  28.6978642 142.9684807  86.2956465  29.6268663 144.3536089  85.7939563
  30.8010012 142.7594997  86.5919988  31.0023631 143.4489734  87.4108579
  31.6881585 142.7691320  85.9614886  30.6080012 141.4164997  87.1299988
  31.5840389 141.0403283  87.4289745  30.2751754 140.7799171  86.3111174
  29.6140012 141.2804997  88.3239988  28.6248371 141.0555613  87.9312442
  29.5307026 142.2431082  88.8278590  30.0320012 140.2054997  89.3499988
  31.0413797 140.4171346  89.6962740  30.0763491 139.2309157  88.8669383
  29.1180012 140.1234997  90.5609988  28.2298361 139.6219930  90.1843387
  28.8304478 141.1580603  90.7389518  29.5510012 139.5004997  91.8909988
  30.4952982 139.9000475  92.2569450  29.6655775 138.4203665  91.8695826
  28.4710012 139.8634997  92.8909988  27.5068466 139.6476316  92.4424991
  28.5170693 140.9397387  93.0348016  28.5520012 139.1864997  94.2579988
  29.5199056 139.3609454  94.7105148  28.4016919 138.1179624  94.1594891
  27.4390012 139.7334997  95.1489988  26.3460012 140.1834997  94.7689988
  27.7670012 139.6234997  96.4369988  26.6870012 139.5014997  97.3739988
  27.0303067 138.8342475  98.1501288  25.8521120 139.0465945  96.8609554
  26.2910012 140.8544997  97.9739988  27.0945565 141.1576406  98.6246126
  25.0220012 140.5304997  98.8159988  25.3095058 139.9933718  99.7096630
  24.3850030 139.8916650  98.2170759  24.3410012 141.7314997  99.1549988
  24.7330012 142.5474997 100.4909988  26.1790012 142.0824997 100.7979988
  27.0810012 142.9564997 101.3879988  26.7900115 143.3609942 102.3486747
  27.3119595 143.8068786 100.7529312  28.3940012 142.1664997 101.4969988
  29.1644546 142.8927476 101.7233050  28.6268155 141.6960652 100.5526122
  28.5280012 141.0894997 102.5389988  28.0420012 141.6874997 103.8279988
  28.5508581 142.6285591 103.9854971  28.2877319 141.0031326 104.6263459
  26.9709051 141.8124448 103.7745303  27.7410012 139.9314997 102.0279988
  28.0390899 139.7374156 101.0090834  26.6929117 140.1628987 102.0938242
  27.9759775 139.0809280 102.6513854  29.9520012 140.6434997 102.6259988
  30.2710591 140.2819846 101.6597737  30.0312890 139.8498408 103.3536450
  30.5723846 141.4746468 102.9289076  24.7400012 144.0094997 100.2179988
  23.8950012 142.0304997 101.6129988  25.9740012 141.9054997  97.1039988
  26.8740012 142.6804997  96.6029988  28.0550012 142.5934997  96.6819988
  26.0450012 143.5764997  95.6199988  25.8777901 143.0670033  94.6765970
  25.0582558 143.8244893  96.0030677  26.8910012 144.8184997  95.4499988
  27.1053074 145.2534024  96.4200469  27.8529874 144.5678728  95.0143365
  26.1890012 145.8484997  94.5889988  25.1365795 145.5779089  94.5599600
  26.2454658 146.7883165  95.1327091  26.7030012 146.0704997  93.1929988
  26.1486798 146.9012205  92.7601745  27.7423271 146.3872255  93.2340874
  26.5900012 144.8844997  92.2589988  27.1661734 144.0568079  92.6674751
  25.5522595 144.5567460  92.2518770  27.0570012 145.1624997  90.7289988
  26.5218237 146.0523461  90.4011887  28.1100165 145.4289117  90.7513889
  26.8550012 144.0364997  89.6949988  27.3183246 144.3091246  88.7539424
  27.3635972 143.1364417  90.0378860  25.4020012 143.7244997  89.5109988
  24.7556164 144.5370395  89.2151612  24.8210012 142.4894997  89.6729988
  23.7606538 142.3941831  89.4880981  25.4980012 141.1904997  90.0889988
  26.5600512 141.3624176  89.9225208  25.3723593 141.0821221  91.1605161
  25.1090012 139.8764997  89.3939988  25.3478558 139.0391295  90.0485708
  24.0288775 139.8594636  89.2617048  25.7950012 139.6694997  88.0169988
  26.8288900 139.3954421  88.2269352  25.3350110 138.7953146  87.5645461
  25.7730012 140.8764997  86.9799988  26.1541750 141.7815367  87.4477160
  26.4280336 140.6716606  86.1349790  24.3660012 141.1094997  86.4749988
  23.9785157 140.1835035  86.0543135  23.7099800 141.3554980  87.3055083
  24.2740012 142.1884997  85.3989988  25.0683661 142.9151873  85.5595991
  24.4723229 141.7337987  84.4301079  22.9790012 142.9134997  85.3229988
  22.1564120 142.2616450  85.6064552  22.9883110 143.7150572  86.0583434
  22.7050012 143.5044997  83.9679988  21.7950425 144.0968074  83.9826868
  22.5824402 142.7391780  83.2090504  23.5172699 144.1537766  83.6536742
 111.8050012 128.3734997  82.1109988 111.1680958 127.9513897  81.3398932
 111.9065162 129.4364039  81.9117019 111.2895681 128.2649203  83.0613415
 113.1880012 127.6744997  82.1439988 113.6375771 127.7799745  81.1581187
 113.0128190 126.6116918  82.2874025 114.1850012 128.2044997  83.2219988
 115.1522843 127.7116699  83.1249874 113.8194759 127.9572294  84.2166945
 114.3820012 129.7334997  83.1389988 113.5277891 130.2004453  83.6243168
 114.3319251 130.0279831  82.0918704 115.6500012 130.2854997  83.7549988
 115.6216443 131.3716641  83.7868676 116.5074274 130.0202113  83.1387136
 115.8630012 129.7564997  85.1649988 115.9040351 128.6724898  85.0752442
 114.9497349 129.9820859  85.7114716 117.0970012 130.2544997  85.9929988
 116.9896794 131.3136455  86.2198516 118.0053654 130.1610177  85.3993949
 117.2600012 129.4914997  87.2669988 116.9470911 128.4648909  87.0809535
 116.5554243 129.8975913  87.9904247 118.7210012 129.4884997  87.9019988
 119.1154412 130.4997624  87.8291588 119.3558522 128.8688153  87.2699130
 118.8260012 129.0084997  89.3439988 118.2377231 129.6934973  89.9506339
 119.8623805 129.1389840  89.6543546 118.3990012 127.5724997  89.6169988
 118.6715218 126.8836358  88.8202930 117.3290569 127.4460102  89.7730365
 119.1500012 127.1584997  90.8929988 120.1721360 127.5244475  90.8334885
 119.2168812 126.0723738  90.9159698 118.5040012 127.6284997  92.1719988
 117.5273840 127.1599861  92.2813879 118.3267429 128.7001501  92.1515331
 119.3340012 127.2834997  93.4099988 120.2410195 127.8786606  93.3888732
 119.6373938 126.2443656  93.3138464 118.6420012 127.4664997  94.7669988
 117.7157530 126.9069380  94.7985602 118.4220105 128.5132153  94.9403756
 118.4530012 128.8784997  95.2219988 119.1900012 129.7744997  94.9649988
 117.5380012 128.8884997  96.2219988 117.4210012 130.1674997  96.8329988
 117.2146466 130.7992605  95.9822591 118.3293240 130.5044928  97.3110963
 116.1520012 130.1964997  97.8879988 115.9288694 131.2415938  98.0254195
 116.5670012 129.5584997  99.2519988 115.7871337 129.6984867  99.9882129
 117.4671005 130.0477648  99.6027491 116.8010012 128.2074997  99.0439988
 115.7420012 127.0634997  99.4699988 115.2810012 127.4504997 101.0249988
 115.0430012 126.3844997 101.8849988 114.6186573 125.5241818 101.3840253
 114.3333000 126.6737979 102.6546921 116.3930012 125.9854997 102.6809988
 117.1027779 125.4741613 102.0430340 116.1219853 125.3288990 103.4951259
 117.1620012 127.1424997 103.3139988 117.9650012 126.5674997 104.4519988
 117.3051825 125.9853753 105.0805722 118.3756236 127.3897566 105.0189050
 118.7677902 125.9695094 104.0474565 118.0040012 127.9204997 102.2639988
 117.3679906 128.1636037 101.4266786 118.8371532 127.3117436 101.9612716
 118.3550491 128.8257266 102.7379467 116.0600012 128.0694997 103.8659988
 115.4128000 128.3735400 103.0568189 116.5184992 128.9405142 104.3095788
 115.4867230 127.5421322 104.6147783 114.5490012 127.1004997  98.6519988
 116.4080012 125.7284997  99.5279988 114.9790012 129.5864997  97.3239988
 114.3480012 130.2204997  96.3309988 114.8600012 131.0714997  95.5999988
 112.9000012 129.7374997  96.2709988 112.5286515 129.4901353  97.2601718
 112.2175077 130.4856792  95.8756041 112.9600012 128.5224997  95.3679988
 113.6886447 127.8358085  95.7846458 112.0037852 128.0113044  95.4166138
 113.3160012 128.8074997  93.9299988 112.9321777 129.7983133  93.7006040
 114.3998457 128.8879341  93.9003974 112.8700012 127.8084997  92.8539988
 111.9688556 127.2984672  93.1894231 112.6037604 128.3219947  91.9333247
 113.9610012 126.7244997  92.5329988 114.7527565 127.2363602  91.9898383
 114.3867767 126.4415861  93.4937568 113.5700012 125.4584997  91.7819988
 114.4881447 124.9606054  91.4740787 113.0711319 124.7828319  92.4711435
 112.6910012 125.6584997  90.5869988 112.3832152 124.6957944  90.1957873
 111.7802862 126.1684727  90.8982411 113.3660012 126.4844997  89.5259988
 113.2857183 127.5601075  89.5726518 114.0880012 125.9654997  88.5109988
 114.5211353 126.6591278  87.8046809 114.3870012 124.5284997  88.2169988
 114.9059458 124.0804266  89.0626630 113.4949219 123.9329857  88.0581320
 115.3200012 124.4204997  86.9529988 115.4394596 123.3569505  86.7497802
 114.7430058 124.8247770  86.1234838 116.7000012 125.0944997  86.9839988
 116.5059722 126.1670554  86.9748337 117.1249359 124.8711031  87.9586928
 117.7050012 124.7624997  85.9099988 117.9433515 123.7041529  85.9889685
 117.2309796 124.8959949  84.9391396 119.0330012 125.6204997  85.9639988
 118.8008153 126.6812657  85.8901400 119.5433598 125.4939399  86.9148624
 120.0130012 125.2494997  84.7659988 121.0406803 125.2842811  85.1231385
 119.8317269 124.2183214  84.4682657 119.8970012 126.1514997  83.5099988
 120.1675060 127.1742268  83.7605407 120.6400597 125.8169188  82.7894208
 118.5510012 126.1384997  82.8539988 118.5639968 126.7183784  81.9360441
 117.7837704 126.5606022  83.4942545 118.2495221 125.1258752  82.6013269
  95.1690012 142.2074997  84.0769988  95.1972035 143.1868022  83.6094517
  94.1324462 141.8842950  84.1067084  95.7099023 141.5186348  83.4339567
  95.7910012 142.2444997  85.5099988  95.2456149 142.9603144  86.1226700
  96.8113313 142.6127552  85.4457478  95.7680012 140.9004997  86.1819988
  96.2741099 140.1579392  85.5652436  94.7399076 140.5583045  86.2824835
  96.4360012 140.9254997  87.6289988  95.8627383 141.5631487  88.2983442
  97.4379759 141.3502674  87.5925978  96.5010012 139.5604997  88.2129988
  97.0242824 138.8908521  87.5352658  95.4910083 139.1663535  88.3126393
  97.1920012 139.5254997  89.5749988  96.7778119 140.2822284  90.2387953
  98.2514908 139.7528423  89.4781792  97.0250012 138.1154997  90.2309988
  97.8749316 137.9131844  90.8801958  97.0441963 137.3494477  89.4570311
  95.7180012 137.9844997  91.0459988  94.9820893 138.6834509  90.6505853
  95.9071252 138.2910840  92.0730928  95.1360012 136.5954997  91.0419988
  95.9309736 135.8632771  91.1661358  94.6818261 136.3892025  90.0736272
  94.0940012 136.4004997  92.1379988  94.4093142 136.9918042  92.9948742
  94.1369447 135.3584554  92.4537971  92.6860012 136.7444997  91.7689988
  92.4501158 136.2553307  90.8263361  92.6200391 137.8144075  91.5790664
  91.5720012 136.3284997  92.8469988  91.5324275 135.2459107  92.9400258
  90.5909441 136.6391583  92.4924735  91.8230012 136.9694997  94.2229988
  92.0286112 138.0280814  94.0733952  92.7191376 136.5453367  94.6671826
  90.6580012 136.8484997  95.2269988  90.3065478 135.8221684  95.2053273
  89.8498208 137.4658250  94.8437940  90.9380012 137.2574997  96.6859988
  91.3220642 138.2687787  96.7290253  91.6655960 136.5899279  97.1321184
  91.9570012 136.2564997  97.2329988  91.7450012 135.1304997  97.5779988
  93.2050012 136.8264997  97.3729988  94.2190012 135.8544997  97.8609988
  94.2770818 135.0812036  97.1099316  93.9938239 135.4028488  98.8162468
  95.5670012 136.6554997  97.9219988  96.4067945 136.0278209  98.1703142
  95.4020012 137.7494997  98.9839988  96.3689951 138.1239595  99.2914130
  94.9066106 137.3194311  99.8455173  94.6040012 138.8124997  98.4239988
  93.6700012 139.6934997  99.3529988  94.4320012 139.5744997 100.7569988
  95.4570012 140.5274997 101.0749988  95.4147827 141.3699301 100.3969740
  96.4228596 140.0554145 100.9199175  95.4680012 140.9974997 102.5399988
  94.6328987 141.6577410 102.7373167  96.3869707 141.5376743 102.7163034
  95.4030012 139.8804997 103.6499988  94.0420012 139.1734997 103.7169988
  93.2660134 139.9238191 103.7817894  94.0289754 138.5592355 104.6050359
  93.9276561 138.5497814 102.8431466  96.5490012 138.8684997 103.4609988
  97.4744678 139.4140356 103.3579644  96.3474956 138.2682248 102.5918408
  96.5809634 138.2478808 104.3448017  95.6130012 140.6994997 104.9279988
  96.5576192 141.2190732 104.8661755  95.6207864 140.0342674 105.7783254
  94.8089990 141.4133239 105.0350991  93.7170012 141.0214997  98.8109988
  92.3370012 139.0694997  99.4639988  95.8130012 137.1214997  96.6039988
  96.6860012 138.0274997  96.2689988  97.6040012 138.4174997  96.9889988
  96.3140012 138.5154997  94.8399988  96.7938686 137.8253084  94.1537654
  95.2446093 138.3729674  94.7058624  96.7180012 139.9774997  94.5639988
  97.7241784 140.1090195  94.9465834  96.7869160 140.1048110  93.4883243
  95.7700012 141.1064997  95.1849988  95.4170641 140.7427129  96.1466373
  96.4069300 141.9611429  95.3994086  94.5510012 141.5944997  94.3109988
  94.3119420 142.6310625  94.5414206  94.7727168 141.5630239  93.2470188
  93.3110012 140.7434997  94.5819988  93.3902014 139.7949292  94.0548912
  93.2729337 140.4988465  95.6417519  91.9520012 141.4594997  94.1769988
  91.1446770 141.2560843  94.8788185  92.0301121 142.5406891  94.1045690
  91.5780012 140.9014997  92.7989988  92.4500235 140.6786274  92.1952729
  91.0191662 139.9706548  92.8860464  90.6710012 141.9644997  92.1059988
  89.7347772 142.2276536  92.5748149  90.9820012 142.5984997  90.9529988
  90.3124153 143.3613361  90.5823975  92.1640012 142.3764997  90.1079988
  92.1183479 143.1170666  89.3113197  93.0608931 142.5967385  90.6761191
  92.2940012 140.9984997  89.4709988  93.3068586 140.8603900  89.0945011
  92.1479615 140.2370816  90.2347879  91.3050012 140.7744997  88.3509988
  90.3339752 141.1434989  88.6812337  91.5946292 141.3947683  87.5072651
  91.1620012 139.3204997  87.8899988  90.9581015 138.6495451  88.7214974
  90.3439551 139.1875905  87.1841512  92.4650012 138.9344997  87.2219988
  92.7486961 139.6592004  86.4611335  93.2932176 138.9022706  87.9245967
  92.3030012 137.5674997  86.5359988  91.7375234 136.9348718  87.2178344
  91.6635692 137.7240064  85.6691271  93.5200012 136.8234997  86.0979988
  94.1406388 136.6793403  86.9788745  93.1637545 135.8335043  85.8217554
  94.3670012 137.3674997  84.9689988  95.1601994 136.6717410  84.7124339
  94.8342076 138.3108609  85.2307786  93.7695236 137.5316287  84.0766853
  22.3000012  16.8084997  84.0309988  21.6479576  17.6642195  83.8860444
  23.2813143  17.1828686  84.3078786  21.9157391  16.2391305  84.8728856
  22.3740012  15.9264997  82.7429988  22.7136905  16.5817292  81.9426936
  21.3479812  15.6598157  82.5043008  23.2350012  14.6944997  82.7719988
  24.2687181  14.9487873  82.5381268  22.9115482  14.0043697  81.9952944
  23.1860012  13.9654997  84.1219988  22.1414126  13.8611064  84.4069316
  23.6425089  14.6023697  84.8781094  23.8490012  12.5724997  84.1589988
  24.8498523  12.6681883  83.7458237  23.2940330  11.9366517  83.4711960
  23.9420012  11.8614997  85.5649988  24.3854723  10.8773742  85.4248294
  22.9325305  11.6906099  85.9328884  24.7460012  12.6354997  86.6279988
  24.4809344  13.6792781  86.4697704  25.7848688  12.5348715  86.3167786
  24.6310012  12.3054997  88.1179988  25.6023949  12.4239510  88.5963443
  24.3559493  11.2598958  88.2434704  23.6500012  13.1474997  88.8029988
  22.7289636  13.1041525  88.2256324  24.0030633  14.1757184  88.7345123
  23.3490012  12.8154997  90.2589988  23.1863542  11.7423061  90.3304171
  22.4032830  13.2860213  90.5266841  24.4440012  13.2564997  91.2719988
  25.4101438  12.9502016  90.8766623  24.3063417  12.7006434  92.1978506
  24.5050012  14.7724997  91.5899988  24.9959716  15.2515209  90.7463723
  25.1789002  14.8842491  92.4373724  23.1790012  15.4964997  91.9149988
  22.5274206  15.4072376  91.0474003  23.3702405  16.5581426  92.0439014
  22.4010012  14.9654997  93.1569988  22.0776484  13.9434891  92.9888253
  21.5023746  15.5611993  93.2937625  23.2360012  15.0274997  94.4589988
  23.5978677  16.0334811  94.6295711  24.0859011  14.3584828  94.3945350
  22.2680012  14.6514997  95.6049988  21.0930012  14.4224997  95.5119988
  22.8910012  14.8264997  96.8259988  21.9490012  14.7584997  97.9139988
  21.3552202  13.8839705  97.6947160  21.2964644  15.6147189  98.0049735
  22.7840012  14.5364997  99.2449988  22.0863784  14.3010100 100.0316125
  23.6540012  15.6884997  99.6619988  23.8319609  15.6732100 100.7287216
  23.1590039  16.6169864  99.4061177  24.8770012  15.5684997  98.9529988
  26.1910012  16.1664997  99.4299988  26.5340012  15.2424997 100.6099988
  27.7300012  15.4724997 101.3519988  28.3252590  16.2686429 100.9241985
  28.3479270  14.5795047 101.3290916  27.4440012  15.7374997 102.8759988
  27.0729753  16.7502274 102.9707162  28.3235691  15.6306367 103.4943171
  26.3690012  14.8364997 103.5109988  26.4840012  15.0214997 104.9269988
  27.5177455  14.8796468 105.2108727  25.8685791  14.2779534 105.4112452
  26.1278754  16.0084534 105.1815843  24.9860012  15.4024997 103.0619988
  25.0020209  15.5371174 101.9913282  24.8043377  16.3313681 103.5724611
  24.2354782  14.6740312 103.3328235  26.6230012  13.4204997 103.0669988
  26.5925370  13.3751211 101.9885301  25.8593044  12.7774905 103.4780419
  27.5929233  13.1004797 103.4195229  27.1260012  15.9674997  98.2979988
  26.0130012  17.4804997 100.0949988  23.5050012  13.3134997  98.9669988
  23.7450012  12.4404997  99.9969988  23.3940012  12.4904997 101.1479988
  24.4010012  11.2484997  99.4069988  24.6779196  10.6128722 100.2417724
  23.6515301  10.6945684  98.8472128  25.5860012  11.5874997  98.5389988
  25.2785796  12.4282793  97.9269182  26.3583339  11.9651219  99.2015217
  26.1610012  10.5014997  97.6409988  26.4465379   9.6526994  98.2571650
  25.3623085  10.1501759  96.9923643  27.3350012  10.9354997  96.7739988
  28.0085626  11.5395834  97.3790640  27.9081512  10.0683568  96.4549936
  26.9350012  11.7544997  95.5279988  27.7251449  11.6645548  94.7853792
  26.0544933  11.2869693  95.0915332  26.6270012  13.2644997  95.7759988
  25.5527924  13.4385578  95.8144736  27.0277162  13.6098900  96.7249197
  27.2440012  14.1174997  94.6369988  28.3230250  14.0184571  94.6588646
  26.9180164  13.7111054  93.6804823  26.8290012  15.5664997  94.7119988
  25.9295791  15.7699563  95.2734250  27.4540012  16.6044997  94.1769988
  27.1035204  17.6124014  94.3470202  28.6630012  16.5204997  93.3189988
  29.1398336  17.4977033  93.3730811  29.3607234  15.8174644  93.7601406
  28.4400012  16.1484997  91.7489988  27.4119732  15.8000552  91.6570756
  28.4898066  17.0920363  91.2088903  29.4170012  15.1024997  91.0629988
  30.4460441  15.3983547  91.2670756  29.2830643  14.1293552  91.5272775
  29.2180012  14.9764997  89.5419988  29.4761679  15.9212813  89.0688365
  29.9090000  14.2367972  89.1414418  27.7690012  14.5764997  89.1679988
  27.8570900  13.6414632  88.6179650  27.2775180  14.3250882  90.1038735
  26.8850012  15.5234997  88.3489988  25.8549721  15.1727149  88.3194493
  26.8535982  16.5142724  88.7986844  27.3970012  15.6594997  86.9039988
  28.4342254  15.9848726  86.9186011  27.4058073  14.6621431  86.4698152
  26.5850012  16.5854997  85.9929988  26.9628188  16.5534231  84.9755048
  26.6272288  17.6180035  86.3229891  25.5399869  16.2898224  85.9672842
   2.5880012 124.7534997  83.4479988   1.7311955 124.0872289  83.4280918
   3.4511497 124.1739009  83.7623709   2.7697885 125.0884974  82.4304813
   2.3500012 125.9284997  84.3739988   2.1315095 125.5269300  85.3620302
   1.4423407 126.4223592  84.0377410   3.5000012 126.9504997  84.4849988
   3.5318392 127.5751415  83.5923970   4.4501733 126.4209896  84.5160299
   3.4030012 127.8354997  85.7109988   3.0377614 127.2074784  86.5205908
   2.6205198 128.5687182  85.5217387   4.6850012 128.5644997  86.1889988
   4.9331903 129.3672521  85.4993875   5.5213768 127.8680448  86.1608662
   4.5610012 129.1314997  87.5689988   4.0476737 128.4806609  88.2744921
   4.0504592 130.0911545  87.6135695   6.0500012 129.3164997  88.0239988
   6.5368206 130.1205215  87.4750673   6.6381705 128.4195087  87.8350699
   6.0820012 129.6374997  89.5309988   7.0953547 129.8972459  89.8344746
   5.8093485 128.7546717  90.1062893   5.1260012 130.7994997  89.8959988
   4.1080179 130.5326668  89.6202248   5.3799263 131.6787922  89.3052842
   5.1700012 131.1554997  91.3639988   4.3725838 131.8598574  91.5905044
   6.1041494 131.6689163  91.5902717   5.0440012 129.8954997  92.2749988
   5.9279690 129.2661419  92.1972129   4.2009439 129.2691724  91.9884738
   4.8790012 130.3314997  93.7699988   4.3927677 129.4866772  94.2517363
   4.1410398 131.1310365  93.7412967   6.0430012 130.7864997  94.5839988
   6.4591158 131.7225173  94.2152555   6.8653712 130.0770348  94.6093187
   5.5380012 131.0244997  96.0249988   4.9053147 131.9024637  95.9460561
   6.4342968 131.3296950  96.5584797   4.8370012 129.9864997  96.8309988
   5.4367624 129.0874927  96.8951385   3.8842491 129.7373925  96.3790273
   4.7300012 130.5884997  98.2219988   5.5800012 130.4574997  99.0509988
   3.6850012 131.4354997  98.2539988   3.3350012 131.9804997  99.5659988
   3.2214954 133.0120801  99.2686435   4.0763692 131.9182842 100.3493855
   1.9160012 131.3804997 100.0619988   1.5934504 132.0268489 100.8614284
   2.0900012 129.9754997 100.5779988   1.3811163 129.7540439 101.3642816
   3.0921047 129.8571346 100.9708897   1.8830012 129.0904997  99.4419988
   1.9080012 127.4564997  99.6649988   2.5120012 127.3104997 101.0609988
   3.5490012 126.3954997 101.1719988   4.3486757 126.5808560 100.4667665
   3.1851098 125.3925370 100.9684159   4.0770012 126.3464997 102.5939988
   4.9283640 125.6778211 102.6112955   3.2810205 125.9105237 103.1802723
   4.5350012 127.6504997 103.3809988   3.2560012 128.3804997 103.6819988
   2.6916908 128.4807490 102.7650267   3.5119384 129.3590007 104.0603265
   2.7085595 127.8327998 104.4343613   5.4020012 127.2484997 104.5049988
   6.1639564 126.5830287 104.1291175   4.8010938 126.7723261 105.2590141
   5.8556636 128.1459459 104.9000654   5.3750012 128.4254997 102.4159988
   6.2061705 127.8141801 102.0973642   5.7456312 129.3148930 102.9030951
   4.7769107 128.7046836 101.5605579   0.5350012 126.9164997  99.6819988
   2.6580012 126.7654997  98.5809988   0.9360012 131.6314997  98.9929988
  -0.3329988 131.2544997  99.2109988  -0.6909988 130.7054997 100.2279988
  -1.1689988 131.4134997  97.9609988  -2.1003919 130.8819249  98.1267947
  -1.4404455 132.4596631  97.8436715  -0.4159988 130.8884997  96.7109988
   0.3649674 131.5977846  96.4598661   0.0900079 129.9627023  96.9657329
  -1.2939988 130.6764997  95.5079988  -2.1546435 130.0769989  95.7935571
  -1.6863104 131.6424086  95.1994917  -0.5749988 130.0304997  94.3049988
  -0.4655638 128.9658863  94.5033127  -1.1942745 130.1117731  93.4150020
   0.7480012 130.5824997  94.0119988   0.7660258 131.6409240  94.2636214
   1.4784814 130.1042560  94.6616623   1.1890012 130.3994997  92.5659988
   0.4164898 130.8647227  91.9556752   2.0880090 130.9936801  92.4279682
   1.4600012 128.9554997  92.0419988   2.2603716 128.5514773  92.6508937
   0.5701227 128.3743511  92.2801768   1.7580012 128.7974997  90.5869988
   2.5766653 128.0983460  90.5062075   1.2550012 129.2944997  89.4319988
   1.8231208 128.9711123  88.5716089   0.0610012 130.2054997  89.0899988
  -0.3514958 130.4954820  90.0548705   0.4586222 131.1109747  88.6453715
  -1.0689988 129.6774997  88.2309988  -1.2810071 128.6464342  88.5114655
  -1.9702067 130.2444898  88.4563997  -0.7929988 129.7504997  86.7369988
  -0.5827591 130.7726142  86.4220574   0.0757881 129.1614878  86.4563239
  -2.0539988 129.2214997  85.9669988  -2.3966151 128.2828106  86.3966754
  -2.8860314 129.9179761  86.0549043  -1.7159988 129.0264997  84.4939988
  -0.8129430 128.4206167  84.4494353  -2.5021376 128.4203408  84.0522043
  -1.4869988 130.2614997  83.6609988  -2.3066085 130.9671457  83.7842331
  -0.5887605 130.7821954  83.9879204  -1.3429988 129.9324997  82.1539988
  -2.1397333 129.2487007  81.8719560  -1.5419254 130.8567188  81.6158907
  -0.0169988 129.3774997  81.6909988  -0.0009406 129.2682376  80.6107798
   0.1860453 128.4018127  82.1194250   0.8006334 130.0365416  81.9689956
 124.1320012 122.5014997  82.5479988 124.0692900 122.2028572  81.5062171
 124.4412237 123.5423526  82.5762239 123.1319552 122.4440666  82.9689756
 125.1220012 121.5994997  83.3349988 126.1075075 121.6575041  82.8760698
 124.8056074 120.5635269  83.2485735 125.2300012 121.9974997  84.8159988
 124.2238830 122.1461712  85.2078560 125.7187371 122.9685392  84.8648918
 125.9790012 121.0374997  85.7149988 127.0260975 121.0249091  85.4205828
 125.6096799 120.0251605  85.5585468 125.8930012 121.3854997  87.2099988
 126.0135513 122.4593122  87.3281824 126.7425817 120.9255932  87.7120585
 124.5870012 120.9474997  87.9129988 124.4050639 119.8931629  87.7127744
 123.7461435 121.4881176  87.4837347 124.6160012 121.1834997  89.4669988
 123.6421942 120.9279135  89.8806963 124.7591031 122.2458639  89.6597006
 125.7050012 120.3834997  90.2009988 126.6940577 120.7897196  89.9931443
 125.7243792 119.3488409  89.8636713 125.4500012 120.4174997  91.7249988
 124.8928938 119.5326548  92.0253685 124.8215366 121.2713139  91.9752199
 126.7250012 120.4934997  92.5129988 127.3028903 121.3147284  92.0947566
 127.2871126 119.5847819  92.2992422 126.6000012 120.6584997  94.0039988
 125.9054191 121.4731039  94.1976913 127.5604848 120.9787607  94.4040388
 126.1250012 119.4354997  94.7629988 126.8443460 118.6255509  94.6694840
 125.1955067 119.0677181  94.3323635 125.8800012 119.7664997  96.2719988
 125.5790180 118.8528998  96.7818972 125.0481222 120.4582301  96.3707934
 127.1140012 120.3474997  97.0179988 127.5018799 121.2205685  96.5035613
 127.9127349 119.6106899  97.0330914 126.7700012 120.7264997  98.4689988
 126.3493434 119.8775758  98.9928464 126.0513464 121.5372261  98.4870827
 127.7960012 121.6674997  99.0369988 128.8820012 121.9934997  98.4989988
 127.3350012 122.3224997 100.1699988 128.1560012 123.3984997 100.7129988
 129.1911043 123.2357347 100.4531312 128.0470784 123.3351652 101.7859930
 127.6750012 124.7934997 100.1809988 128.1933826 125.6336104 100.6127263
 126.0900012 124.8954997 100.5099988 125.8829821 125.9428078 100.6834630
 125.9704287 124.3590415 101.4430047 125.2030012 124.3664997  99.5109988
 123.8670012 123.6894997  99.9419988 124.2950012 122.2534997 100.5189988
 123.2290012 121.4624997 100.8869988 122.6243540 121.0894371 100.0706562
 122.5515866 121.9785719 101.5612213 123.8230012 120.2924997 101.7219988
 124.6423170 119.8760220 101.1497078 123.0965831 119.5140384 101.9055522
 124.4200012 120.6564997 103.1129988 124.8410012 119.4564997 103.8149988
 124.0220625 118.7503333 103.8133772 125.0816535 119.7319629 104.8310236
 125.7189782 119.0566673 103.3302231 125.6080012 121.4544997 102.9119988
 125.3711137 122.2558013 102.2289804 126.3911749 120.8270331 102.5256122
 125.8922776 121.8583658 103.8729233 123.4040012 121.4344997 103.9889988
 123.1065810 122.3354688 103.4733653 123.8697421 121.6920403 104.9283646
 122.5379205 120.8152284 104.1729620 123.2780012 124.5124997 101.0229988
 123.0460012 123.5514997  98.7469988 127.8360012 124.8174997  98.7259988
 127.3290012 125.8904997  98.1139988 126.8460012 126.8774997  98.6439988
 127.2720012 125.5924997  96.6169988 127.6421288 126.4751627  96.1056627
 127.9797786 124.7989433  96.3906664 125.9090012 125.2304997  96.1779988
 125.5442338 124.4361482  96.8198800 125.2490612 126.0763115  96.3426636
 125.8180012 124.7744997  94.7109988 126.7002624 124.2114070  94.4174076
 124.9726933 124.1033254  94.5804432 125.6340012 125.9674997  93.7939988
 125.0379108 126.7299324  94.2920737 126.5840983 126.4362203  93.5494207
 124.9180012 125.5714997  92.4779988 123.9789703 125.0762601  92.7164516
 124.6531238 126.4821616  91.9442236 125.7700012 124.6464997  91.5109988
 125.8002881 123.6465574  91.9409977 125.2549970 124.5552577  90.5587574
 127.1960012 125.1274997  91.2509988 127.1968297 126.1995576  91.0920299
 127.7990525 124.9488266  92.1402405 127.8230012 124.4094997  90.0949988
 128.5025758 123.5955571  90.2980500 127.5880012 124.6994997  88.8149988
 128.0678249 124.1122032  88.0452832 126.6470012 125.8464997  88.2599988
 125.9758343 125.4759777  87.4870373 126.0193659 126.3272541  89.0020434
 127.5690012 126.8784997  87.6339988 126.9636306 127.7001071  87.2529570
 128.1884762 127.2991706  88.4237745 128.4870012 126.3374997  86.4959988
 129.1368265 127.1427623  86.1533823 129.1418473 125.5678612  86.8951694
 127.7060012 125.7744997  85.2999988 128.4600091 125.5109133  84.5616633
 127.2724109 124.8358194  85.6405334 126.6210012 126.6224997  84.6539988
 125.7266187 126.5392822  85.2686083 126.9240163 127.6644267  84.7105224
 126.2290012 126.2564997  83.1799988 126.0685022 125.1803404  83.1483076
 125.2595977 126.7120290  82.9861330 127.1900012 126.6434997  82.0339988
 128.1315806 126.1093089  82.1339152 126.7547451 126.3032863  81.0969182
 127.4690012 128.1674997  81.9299988 128.0767844 128.3894442  81.0579843
 127.9982755 128.5430886  82.7992183 126.5432375 128.7286660  81.8394729
  91.6230012 146.7754997  84.8439988  91.9066334 146.0031862  84.1358224
  92.3970568 146.8284132  85.6041488  91.6173641 147.7239575  84.3138969
  90.2460012 146.4824997  85.4699988  90.3160122 145.5009139  85.9356069
  89.5492653 146.3787949  84.6425820  89.7140012 147.4694997  86.4739988
  88.6291891 147.3711902  86.5120395  89.9125786 148.4695454  86.0936746
  90.2970012 147.3654997  87.9349988  91.3414269 147.6665067  87.9776572
  90.2583807 146.3534537  88.3349705  89.4900012 148.2884997  88.8259988
  88.5304894 147.8078903  88.9989867  89.2833787 149.1793659  88.2352116
  90.0740012 148.6944997  90.1439988  89.4004879 149.4123376  90.6086553
  91.0037082 149.2273011  89.9559973  90.3430012 147.5294997  91.1329988
  90.9526113 147.9181882  91.9466736  90.9570308 146.7916458  90.6184414
  88.9980012 146.7804997  91.7639988  88.2333953 147.5466949  91.8855460
  89.2574718 146.4482163  92.7674661  88.4180012 145.6134997  90.9849988
  89.2399459 145.0610409  90.5347353  87.8310557 146.0117512  90.1582777
  87.5220012 144.6224997  91.8309988  88.1770469 144.0822970  92.5109951
  87.1076361 143.8786655  91.1509684  86.3850012 145.2774997  92.6109988
  85.6079429 145.6397981  91.9413262  86.7249198 146.1436620  93.1761059
  85.7430012 144.2354997  93.5959988  85.7256246 143.2428119  93.1527290
  84.7058653 144.4959278  93.7989677  86.4800012 144.2084997  94.8719988
  86.4000107 145.1888853  95.3385794  87.5380270 144.0448337  94.6874213
  85.9780012 143.1594997  95.8819988  86.5058995 142.2217592  95.7430339
  84.9266960 142.9596456  95.6925050  86.1310012 143.6074997  97.3149988
  85.6393561 144.5596751  97.4689078  87.1794128 143.7126180  97.5676888
  87.5920012 143.6264997  97.7869988  88.0380012 142.6394997  98.3279988
  88.2460012 144.8294997  97.6319988  89.5900012 145.0244997  98.0639988
  90.2138658 144.4144928  97.4282735  89.6088977 144.6235405  99.0670275
  90.0760012 146.4854997  98.0449988  91.1294417 146.4411356  98.2667845
  89.3900012 147.4424997  98.9959988  89.7264805 148.4658699  98.8995833
  89.5075523 147.1343517 100.0274112  88.0240012 147.3254997  98.5939988
  86.8710012 147.2304997  99.6409988  87.2800012 146.2284997 100.7829988
  86.7680012 146.4524997 102.0739988  85.7024424 146.6369880 102.0323137
  87.2218567 147.3565033 102.4697128  87.0940012 145.3684997 103.0839988
  86.6320490 144.4289528 102.8081347  86.7854543 145.6259169 104.0869505
  88.6130012 145.0824997 103.1669988  88.9980012 144.0014997 102.1149988
  88.3338973 143.1558797 102.2300068  90.0148359 143.6944403 102.3095797
  88.9325970 144.4340677 101.1279201  89.4360012 146.3464997 103.0059988
  89.0482835 147.0959445 103.6788445  89.3831530 146.6718363 101.9824104
  90.4554376 146.1039213 103.2690616  88.9430012 144.5684997 104.5839988
  88.6436836 145.3098728 105.3098478  90.0060618 144.3959862 104.6600981
  88.4131746 143.6443843 104.7649123  86.7060012 148.6264997 100.1919988
  85.6710012 146.7594997  98.9409988  89.8300012 147.0664997  96.7649988
  90.6170012 148.0004997  96.3269988  91.6120012 148.4574997  96.9749988
  90.3230012 148.1104997  94.7949988  91.2483579 147.9280991  94.2583444
  89.6405539 147.3220175  94.4876415  89.7640012 149.4444997  94.4949988
  90.4678743 150.1935824  94.8406845  89.7011761 149.5659512  93.4182743
  88.3510012 149.7204997  95.1499988  88.3545050 149.5110328  96.2166596
  88.0827866 150.7691651  95.0478870  87.2860012 148.8754997  94.4539988
  87.2676602 149.0799819  93.3850944  87.4668131 147.8082300  94.5561969
  85.8580012 149.2114997  95.0499988  85.9707178 149.2002050  96.1321579
  85.6654541 150.2470741  94.7763345  84.6730012 148.3884997  94.6669988
  84.8683690 147.3272496  94.8128781  83.7972230 148.6240614  95.2651971
  84.3470012 148.6414997  93.2109988  84.1225445 149.6867410  93.0330388
  85.2019012 148.3997760  92.5808705  83.1650012 147.7424997  92.8029988
  82.5766847 147.3001283  93.5927742  82.8010012 147.4764997  91.5589988
  81.9236439 146.8614111  91.4192840  83.4460012 147.9214997  90.2799988
  82.6859651 148.3872754  89.6550034  84.2006714 148.6798649  90.4561690
  84.0440012 146.7994997  89.5229988  84.9139832 146.3838876  90.0300519
  83.3380697 145.9789009  89.4101387  84.4540012 147.3054997  88.1359988
  83.5655935 147.6233913  87.5903031  85.0812026 148.1871531  88.2350425
  85.1960012 146.2394997  87.3169988  85.9215150 145.8050963  88.0011541
  84.4656783 145.4586801  87.1119762  85.8860012 146.6414997  86.0089988
  86.5157559 147.5045636  86.2166511  86.5632674 145.8428954  85.7188837
  84.9790012 146.9954997  84.8539988  84.0419502 146.4574414  84.9855732
  84.7337761 148.0529120  84.9351019  85.5120012 146.7194997  83.4099988
  84.7207804 146.9139458  82.6902242  86.2859443 147.4559537  83.2051566
  86.0760012 145.3494997  83.1739988  86.5006352 145.2739040  82.1774847
  85.3185878 144.5781509  83.2639274  86.8635962 145.1232782  83.8872020
 140.7260012  33.4794997  84.1129988 140.0548579  34.0732417  83.5002458
 141.0665383  32.6401257  83.5136025 141.5930904  34.0926535  84.3428046
 140.0340012  33.0014997  85.3939988 139.1536489  32.4528173  85.0636496
 139.6680777  33.9049173  85.8743639 140.8340012  32.1224997  86.4299988
 140.1520845  31.7469558  87.1928130 141.5487121  32.7566004  86.9508398
 141.6030012  30.9294997  85.7979988 142.4934318  31.2677179  85.2726497
 141.0029198  30.3966392  85.0620177 142.0310012  29.9494997  86.9169988
 142.6565408  29.1861099  86.4614669 141.1268686  29.4438038  87.2519330
 142.7760012  30.5424997  88.1519988 142.9859150  29.7576425  88.8763968
 142.1427370  31.2654587  88.6617868 144.0810012  31.2154997  87.7469988
 143.9004371  31.9143638  86.9322868 144.7774096  30.4721263  87.3614585
 144.7340012  31.9614997  88.9189988 145.4682754  32.6516519  88.5054989
 145.2951746  31.2357246  89.5046769 143.7620012  32.7464997  89.8639988
 144.2010404  32.9101947  90.8458284 142.8356855  32.1988779  90.0331930
 143.4510012  34.0494997  89.2439988 143.2023264  33.9231609  88.1925719
 144.3171858  34.7099212  89.2755653 142.2900012  34.7104997  89.9789988
 141.3607825  34.2018009  89.7313715 142.1672697  35.7410180  89.6502178
 142.4610012  34.6834997  91.4709988 143.5069261  34.8736819  91.6992328
 142.2541051  33.6715950  91.8143833 141.5340012  35.6914997  92.2749988
 140.4933316  35.4016376  92.1399475 141.6243856  36.6968292  91.8732311
 141.8230012  35.7264997  93.7779988 142.8302884  36.0988425  93.9331701
 141.8066044  34.7026579  94.1421019 140.8110012  36.5854997  94.6429988
 139.7941377  36.2526250  94.4780011 140.8814974  37.6333244  94.3762355
 141.1080012  36.3204997  96.1389988 142.1290012  35.8884997  96.6269988
 139.9080012  36.5204997  96.7959988 140.0900012  36.3994997  98.2499988
 139.4108825  37.0928099  98.7228421 141.1055004  36.6859030  98.4822195
 139.7960012  34.9404997  98.7299988 138.7516506  34.7108336  98.5977887
 140.1600012  34.8624997 100.2059988 139.9178513  35.8277159 100.6296991
 141.2358236  34.7395924 100.2152090 139.5600012  33.8624997 100.9199988
 140.4650012  32.7634997 101.6389988 139.7410012  31.4414997 101.2289988
 138.3310012  31.2654997 101.4619988 137.7598332  32.1295838 101.1484469
 138.1532752  31.1487839 102.5271691 137.7830012  29.9744997 100.8159988
 138.0806406  30.0252772  99.7762481 136.7077843  29.8803638 100.8652346
 138.3420012  28.6604997 101.3429988 139.8120012  28.5564997 100.9819988
 139.9217694  28.7467442  99.9231825 140.1401574  27.5526248 101.2070514
 140.3701621  29.2625422 101.5783856 138.2320012  28.5754997 102.8289988
 137.2203435  28.8223123 103.1124531 138.9407886  29.2515806 103.2727384
 138.4584214  27.5576867 103.1119962 137.5290012  27.4774997 100.8169988
 136.4982822  27.5926034 101.1177505 137.9264586  26.5624558 101.2297606
 137.5943422  27.4458570  99.7389615 141.8110012  32.6244997 101.0149988
 140.4560012  32.9214997 103.1289988 140.5800012  33.9824997  98.0209988
 139.9530012  33.1034997  97.1699988 138.7270012  33.1934997  96.8619988
 140.9840012  32.1774997  96.5239988 141.1164261  32.5167604  95.5017861
 141.9435779  32.3253998  97.0131255 140.5460012  30.6874997  96.5899988
 140.4004840  30.4229599  97.6315862 139.5748875  30.5858184  96.1160449
 141.5240012  29.7214997  95.9669988 142.5315377  29.9893859  96.2748316
 141.3323454  28.7351276  96.3822135 141.4470012  29.6304997  94.4199988
 141.4555773  30.6288186  93.9864185 142.3059661  29.1105740  94.0027956
 140.1600012  28.9134997  93.9619988 139.8334108  28.1550312  94.6704939
 139.3307169  29.6110165  93.8613068 140.4190012  28.2574997  92.5959988
 141.1970242  27.5030289  92.7016156 139.5304964  27.7355429  92.2518498
 140.8400012  29.2754997  91.5199988 141.7468618  29.7878982  91.8193840
 141.0744362  28.7532765  90.5933547 139.7360012  30.2454997  91.2549988
 139.6973185  31.0844155  91.9334366 138.8070012  30.2024997  90.2769988
 138.0964488  31.0146038  90.2203233 138.6200012  29.1454997  89.2149988
 139.3832954  29.2661817  88.4481620 138.7360266  28.1397317  89.6031353
 137.2190012  29.2814997  88.5359988 137.1275810  28.5100549  87.7723101
 136.4607944  29.0587535  89.2843073 136.9160012  30.7044997  87.8919988
 136.8144776  31.3975690  88.7271364 137.8158585  31.0001610  87.3596971
 135.7060012  30.8494997  86.9669988 135.7858851  30.1396064  86.1467457
 134.7922445  30.5953949  87.5013811 135.5840012  32.3334997  86.3929988
 135.1551752  33.0150629  87.1252350 136.5459894  32.7584173  86.1197799
 134.6470012  32.3074997  85.1609988 135.0060255  31.6035967  84.4123299
 133.6504542  31.9696393  85.4395281 134.5300012  33.6594997  84.5259988
 134.0137735  34.2762924  85.2574294 135.5561546  34.0199696  84.5064131
 133.9160012  33.8734997  83.1669988 134.0106934  34.9108176  82.8602842
 132.8598125  33.6263562  83.1557463 134.4063143  33.2604498  82.4160635
 138.1850012 103.9164997  83.6439988 137.7872803 103.1042262  83.0436165
 138.5567148 104.6788217  82.9654090 137.3598709 104.3484930  84.2036002
 139.3080012 103.4164997  84.5989988 140.1297241 102.9761750  84.0367812
 138.9345085 102.6354730  85.2557442 139.8380012 104.5944997  85.4279988
 139.0797949 104.9210929  86.1396090 140.0202610 105.4430411  84.7715463
 141.1510012 104.2714997  86.1909988 141.6794026 105.2118163  86.3318764
 141.7783384 103.6683038  85.5365458 141.0180012 103.5724997  87.5559988
 141.8400336 102.8775481  87.7072537 140.1070540 102.9764581  87.5725741
 140.9900012 104.5884997  88.7409988 140.8043263 103.9837738  89.6268026
 140.0916208 105.1816261  88.5838661 142.2300012 105.5694997  89.0189988
 142.4294321 106.1381542  88.1125611 143.1162189 104.9623266  89.1984116
 142.0400012 106.5114997  90.1589988 142.9955891 106.9453184  90.4507246
 141.6700127 105.9765791  91.0317259 141.0450012 107.6554997  89.7979988
 140.0615756 107.2429192  89.5830740 141.3677158 108.1604861  88.8883719
 140.9290012 108.6794997  90.9299988 141.8945470 109.1295987  91.1500694
 140.5931503 108.2103196  91.8543923 139.9250012 109.7644997  90.5219988
 139.0637691 109.2633012  90.0853977 140.3703196 110.3526348  89.7214261
 139.4160012 110.7284997  91.6509988 138.7554770 111.4772981  91.2206178
 140.2633465 111.2722792  92.0644956 138.6890012 109.9734997  92.8159988
 139.4114424 109.4292761  93.4219289 137.9857464 109.2338959  92.4435836
 137.9520012 110.9454997  93.7249988 137.2710993 111.5419873  93.1267345
 138.6843229 111.6301741  94.1445435 137.1680012 110.2904997  94.8869988
 137.8219107 109.6627513  95.4789239 136.3584381 109.6826652  94.5007167
 138.1660012 109.8754997  95.9629988 139.3700012 110.0924997  95.9409988
 137.5730012 109.0544997  96.8739988 138.3630012 108.4904997  97.8629988
 137.9207198 108.8903169  98.7629962 139.3989793 108.7930647  97.8140532
 138.2360012 106.9664997  97.8419988 137.1814440 106.7549840  97.9057508
 138.9880012 106.2314997  98.9729988 138.2845601 105.5376760  99.4129766
 139.2180720 107.0001894  99.7001635 140.1930012 105.5424997  98.5699988
 140.7530012 104.4074997  99.5289988 140.3900012 104.8954997 100.9849988
 141.4120012 105.5954997 101.7189988 141.7803565 106.4453619 101.1593225
 142.2586254 104.9301052 101.8613880 140.9830012 106.0114997 103.1359988
 141.7342675 106.7028569 103.4963779 140.9689827 105.1458978 103.7824614
 139.6020012 106.7314997 103.3489988 139.8450012 107.7094997 104.4019988
 140.3165728 107.2085727 105.2362807 138.8911443 108.1107053 104.7106912
 140.4615639 108.5032486 104.0076258 139.2100012 107.3904997 102.1129988
 139.2940666 106.6805791 101.3045065 139.8440065 108.2444004 101.9540625
 138.1821817 107.7037868 102.2258495 138.5540012 105.7544997 103.7339988
 138.4683535 105.0027795 102.9635033 137.6115881 106.2698356 103.8432532
 138.8219331 105.2888494 104.6714513 140.0410012 103.1094997  99.2309988
 142.2560012 104.3784997  99.4129988 138.6630012 106.5654997  96.4879988
 138.3350012 105.3224997  96.1429988 137.7170012 104.5314997  96.7829988
 138.7230012 105.3124997  94.6929988 138.3142628 106.1902483  94.2030567
 139.8012114 105.3784979  94.5704678 138.1740012 104.0044997  94.0859988
 138.7489182 103.1769347  94.4868325 137.1554918 103.8572792  94.4309595
 138.2180012 103.9504997  92.5489988 139.1571004 104.3606589  92.1863474
 138.1976703 102.9113949  92.2297607 137.0110012 104.7014997  91.8849988
 136.0662521 104.1808274  92.0301046 136.8585570 105.7147726  92.2486481
 137.3130012 104.7554997  90.3489988 138.3232481 105.1476952  90.2516091
 137.3584694 103.7176112  90.0248056 136.3950012 105.5074997  89.4259988
 135.4032205 105.0581445  89.4383299 136.2692448 106.5368449  89.7499612
 136.9220012 105.5074997  88.0209988 137.9079370 105.9534270  87.9605057
 137.0213118 104.4911126  87.6422630 135.8950012 106.2804997  87.1199988
 135.0368229 105.7192374  86.7822581 135.9720012 107.5614997  86.7429988
 135.1768786 107.8747394  86.0817341 136.9680012 108.6574997  87.0759988
 136.4148290 109.5684835  87.2981021 137.5359374 108.4218795  87.9690904
 137.9060012 108.9434997  85.9539988 138.1311643 108.0016499  85.4550744
 137.3690451 109.5506077  85.2276676 139.1870012 109.6334997  86.3229988
 138.9119753 110.6432151  86.6278634 139.5620486 109.1386474  87.2146067
 140.3380012 109.7114997  85.2399988 139.9088716 109.5656650  84.2511989
 140.7741605 110.7089199  85.2382883 141.4170012 108.7014997  85.4829988
 141.7769699 108.7980781  86.5055862 141.0114443 107.6964926  85.4048361
 142.6680012 108.8634997  84.5049988 142.3961347 108.7161610  83.4613212
 143.1070419 109.8577203  84.5650196 143.7480012 107.8284997  84.8809988
 143.6404045 107.5007311  85.9119720 143.6148815 106.9372376  84.2717007
 145.1230012 108.3504997  84.6689988 145.8619449 107.5771104  84.8558147
 145.3477322 109.1811173  85.3295374 145.2564591 108.6957200  83.6476502
  10.8990012  36.0164997  83.2239988  11.9094981  36.0666793  82.8305436
  10.5777266  37.0308551  83.4423007  10.2568292  35.6303654  82.4371522
  10.8300012  35.1124997  84.5019988  11.4807137  35.4962067  85.2859281
  11.1784507  34.1072360  84.2809970   9.3870012  35.0684997  85.0209988
   8.7971321  34.6050608  84.2302979   9.0642087  36.1066362  85.0684168
   9.0500012  34.3804997  86.3879988   8.6783118  33.3741618  86.2080510
   8.2459827  34.9128561  86.8938217  10.2570012  34.2954997  87.3109988
  10.7933210  35.2406774  87.3349380  10.9609269  33.5541971  86.9364002
   9.8480012  33.9274997  88.7219988   9.4478379  32.9155336  88.6972779
   9.0212137  34.5746214  89.0070128  10.9300012  34.0104997  89.7719988
  10.5291440  33.7496031  90.7497597  11.2974961  35.0322718  89.8566113
  12.1210012  33.0614997  89.4339988  12.7968969  33.5626411  88.7422812
  11.7471149  32.1832630  88.9109371  12.9210012  32.6064997  90.6979988
  12.5536375  31.6445703  91.0491068  12.7635045  33.3084751  91.5159244
  14.3940012  32.5024997  90.4099988  14.6901537  33.4517974  89.9690606
  14.5100195  31.7530763  89.6274814  15.3490012  32.1454997  91.6159988
  16.3946043  32.1694680  91.3165316  15.1686843  31.1445157  92.0041287
  15.1480012  33.1534997  92.7239988  14.5785239  33.9965161  92.3402829
  16.1187414  33.5500272  93.0157166  14.4600012  32.5734997  93.9699988
  15.0879240  31.8325235  94.4618516  13.5206616  32.0757706  93.7459876
  14.1960012  33.7224997  94.9789988  13.5136048  34.4734603  94.5946313
  15.1143221  34.2389811  95.2455051  13.5920012  33.0934997  96.2639988
  14.2415612  32.3167303  96.6470680  12.6209661  32.6617829  96.0523848
  13.2290012  34.2024997  97.2119988  14.0070012  34.7654997  97.9469988
  11.9590012  34.4864997  97.2069988  11.4840012  35.7224997  97.8299988
  10.7331415  36.1918238  97.2124175  12.3547897  36.3604873  97.8734862
  10.9220012  35.4544997  99.2469988  10.6076264  36.3955580  99.6670842
  11.9100012  34.7034997 100.2679988  12.7866421  35.3093442 100.4530774
  12.2222494  33.7704946  99.8156851  11.2110012  34.4564997 101.4809988
  11.9670012  33.4874997 102.6249988  11.3210012  32.0434997 102.3049988
  10.0700012  32.0194997 101.7469988   9.9147033  32.7145221 100.9321274
   9.2947020  32.2253172 102.4793562   9.8180012  30.5504997 101.2859988
   8.8929285  30.6007709 100.7256754   9.6855552  29.8699237 102.1146431
  10.8010012  29.9064997 100.3839988  11.9350012  29.4674997 101.1559988
  12.2856637  30.2958980 101.7561037  12.7094182  29.1637939 100.4674197
  11.6401849  28.6255410 101.7641977  10.2390012  28.6064997  99.6829988
   9.2805033  28.8401589  99.2455068  10.1570808  27.8213890 100.4132456
  10.9407858  28.3269365  98.9105742  11.1430012  30.8874997  99.2999988
  10.2414550  31.1655279  98.7746449  11.8360465  30.4279107  98.6114379
  11.5969016  31.7649027  99.7376897  13.4220012  33.5304997 102.2469988
  11.4540012  33.9774997 103.9649988   9.8120012  34.5264997  99.1169988
   8.7080012  35.0304997  98.5229988   8.6000012  36.1444997  98.1109988
   7.8140012  33.8624997  98.3309988   7.7379771  33.3377098  99.2777664
   6.8074828  34.1996798  98.0961852   8.3890012  32.9294997  97.1779988
   9.3612810  32.5890897  97.5168999   7.7581977  32.0470306  97.1410092
   8.5290012  33.5304997  95.7699988   7.5436371  33.6229562  95.3203728
   8.9128817  34.5427993  95.8697499   9.4500012  32.7524997  94.8489988
   9.6321569  33.3410713  93.9517203  10.4203812  32.6016211  95.3156894
   8.8930012  31.4054997  94.4309988   8.5077911  30.8362402  95.2744784
   8.0627367  31.5168511  93.7362737  10.0160012  30.5964997  93.7349988
  10.3446805  31.2073741  92.8956518  10.8512512  30.5533764  94.4284075
   9.7100012  29.1534997  93.2329988   9.2080988  28.5951788  94.0146328
   9.0114319  29.2095719  92.3992105  10.9470012  28.4464997  92.7739988
  11.3965981  27.7720379  93.4871031  11.5230012  28.5504997  91.6119988
  12.4192554  27.9691471  91.4496182  11.1140012  29.3704997  90.4449988
  10.5437426  30.2120518  90.8346349  11.9904074  29.7932189  89.9665621
  10.2690012  28.6654997  89.4109988  10.7963110  27.7883112  89.0379174
   9.3607154  28.2954335  89.8827264   9.8880012  29.5834997  88.2229988
   8.8123739  29.5582105  88.0483748  10.1372526  30.6199688  88.4330212
  10.6070012  29.1364997  86.9689988  11.6818950  29.1020783  87.1319813
  10.3105803  28.1294570  86.6807545  10.2650012  30.1554997  85.7669988
   9.2106684  30.4254093  85.7559889  10.8103201  31.0921678  85.8438427
  10.5900012  29.4654997  84.4329988  11.6716137  29.3920345  84.3350186
  10.2207152  28.4424630  84.4761015  10.0330012  30.1284997  83.1759988
  10.0572170  29.4454902  82.3305245   8.9829570  30.3620707  83.3377542
  10.7680012  31.4094997  82.8129988  10.2928744  31.9005705  81.9690953
  11.8008054  31.2209750  82.5400246  10.7688603  32.1082947  83.6447594
   2.0400012  47.5344997  84.0539988   1.3301469  48.3520617  83.9757156
   1.5661615  46.7373420  84.6195124   2.2253528  47.1606276  83.0507658
   3.3270012  47.9844997  84.7139988   3.0692281  48.3866674  85.6922713
   3.7102195  48.8186233  84.1324530   4.4180012  46.9084997  84.8799988
   5.2704733  47.4033516  85.3451244   4.7342173  46.6481269  83.8718399
   4.1070012  45.6134997  85.6419988   5.0125047  45.0165133  85.7251891
   3.3967974  45.0074509  85.0816226   3.5480012  45.8724997  87.0729988
   2.9397489  45.0468509  87.4334241   2.9106041  46.7548306  87.0971264
   4.7830012  46.0844997  88.0749988   5.3540069  46.9807995  87.8395926
   5.4880971  45.2567381  88.0399631   4.2090012  46.2054997  89.5069988
   3.5024127  47.0333654  89.5188725   5.0218680  46.4897066  90.1738599
   3.5230012  44.9464997  90.0529988   2.7472694  44.6530736  89.3468880
   3.0095154  45.2146625  90.9744678   4.4270012  43.7724997  90.3129988
   5.1285781  44.0747919  91.0875633   5.0183820  43.6178831  89.4113672
   3.7660012  42.4534997  90.7149988   3.2464588  42.0189834  89.8637818
   3.0088473  42.6248801  91.4797051   4.8180012  41.4594997  91.2559988
   5.6178936  41.4363516  90.5189932   4.3572189  40.4734589  91.2329497
   5.4140012  41.6844997  92.5779988   5.5506595  42.7458881  92.7703474
   6.4041878  41.2358572  92.6320396   4.5580012  41.0774997  93.6359988
   4.6180146  39.9927878  93.5649314   3.5142121  41.3353082  93.4800722
   4.9600012  41.4754997  95.0369988   6.0227269  41.3003324  95.1684351
   4.4447155  40.8213858  95.7353595   4.6310012  42.9684997  95.4129988
   3.5798651  43.1756795  95.2573370   5.2135410  43.6485297  94.8028549
   5.3510012  43.2544997  96.7029988   5.7350012  42.3824997  97.5129988
   5.6500012  44.5544997  96.7879988   6.4110012  45.0344997  97.9519988
   7.3508441  45.3696891  97.5399244   6.6057294  44.3429121  98.7588318
   5.5800012  46.2444997  98.4469988   6.2990483  46.9115614  98.8929739
   4.5950012  45.7624997  99.5049988   4.2516217  46.5726028 100.1339857
   5.0627955  45.0122027 100.1301451   3.5200012  45.2044997  98.7909988
   2.1740012  44.8684997  99.4539988   2.6000012  44.5944997 100.9409988
   2.1350012  43.3984997 101.5689988   2.8593851  42.9132867 102.2101113
   1.8264070  42.6576610 100.8370666   0.8710012  43.7484997 102.3399988
   0.7292781  42.8623847 102.9457741  -0.0227280  43.9170080 101.7567062
   0.9580012  44.9394997 103.3439988   0.8040012  46.2934997 102.7749988
   1.4838371  46.3966356 101.9404210   1.0595518  47.0086046 103.5427349
  -0.2242422  46.4335738 102.4769856  -0.1109988  44.6444997 104.3479988
   0.0055139  43.6253092 104.6832442  -1.0727199  44.8013675 103.8931856
   0.0265959  45.3250359 105.1757880   2.1920012  44.9474997 104.2639988
   2.2133352  44.0332493 104.8382575   2.1307642  45.7933037 104.9322170
   3.0879446  45.0244431 103.6649995   1.3490012  46.0424997  99.4359988
   1.6200012  43.6234997  98.9189988   4.9350012  46.9954997  97.3339988
   4.1580012  48.1054997  97.5289988   3.9100012  48.5964997  98.6459988
   3.6110012  48.5494997  96.2379988   3.0280761  49.4446385  96.4289903
   4.4299933  48.8597240  95.5938561   2.7810012  47.4604997  95.5809988
   3.4367015  46.7746299  95.0559266   2.2729974  46.8704523  96.3371795
   1.7220012  48.0524997  94.5579988   1.0504924  48.6700306  95.1490872
   2.2878051  48.7357780  93.9294595   0.9230012  47.1234997  93.6649988
   0.0325177  47.6725460  93.3645103   1.4958093  46.9529314  92.7567040
   0.4780012  45.7474997  94.2449988   1.3107208  45.1876010  94.6657036
  -0.2418139  45.8717026  95.0517335  -0.1929988  44.9024997  93.0969988
   0.5538888  44.7575909  92.3179857  -0.4274360  43.9149577  93.4844496
  -1.4199988  45.4804997  92.4979988  -2.0548264  45.9287419  93.2534144
  -1.1658222  46.2764427  91.7992749  -2.1649988  44.3744997  91.7329988
  -3.0976717  44.0434917  92.1644024  -1.7819988  43.7934997  90.5859988
  -2.4108691  43.0114090  90.1854161  -0.5799988  44.0864997  89.7619988
  -0.2474764  45.0881094  90.0292586   0.2278987  43.4160405  90.0330469
  -0.7929988  44.0404997  88.2399988  -1.1797843  43.0595093  87.9665762
  -1.5712984  44.7560633  87.9817791   0.4530012  44.3404997  87.4219988
   0.7050598  45.3962308  87.5220243   1.2986715  43.7872657  87.8210950
   0.2740012  43.9974997  85.9169988   1.1628512  44.3759655  85.4171445
   0.3199927  42.9126250  85.8394313  -1.0519988  44.5294997  85.1619988
  -1.8881516  43.9122660  85.4852033  -1.2689772  45.5329864  85.5177511
  -1.0189988  44.5124997  83.6789988  -1.9856198  44.8345819  83.2958670
  -0.2962424  45.2486058  83.3317167  -0.6679988  43.1384997  83.0419988
  -0.4588214  43.2899895  81.9859634   0.2726401  42.8223750  83.4876181
  -1.7099988  41.9904997  83.2049988  -1.3241632  41.0594944  82.8007351
  -2.6384126  42.2091791  82.6883091  -1.9465315  41.8236089  84.2520617
 122.8820012   9.2894997  84.8439988 122.0869495   9.5019585  84.1360559
 122.4800855   8.6259588  85.6042404 123.6607973   8.7483658  84.3136567
 123.4350012  10.5844997  85.4699988 122.5920728  11.0920663  85.9358860
 123.7508885  11.2140503  84.6425357 124.5490012  10.4514997  86.4739988
 125.0930316  11.3951619  86.5122273 125.2525477   9.7135059  86.0937903
 124.1280012  10.0344997  87.9349988 123.7725088   9.0073394  87.9776245
 123.3230409  10.6489371  88.3352632 125.3480012  10.1624997  88.8259988
 125.5082936  11.2236314  88.9988535 126.1951607   9.8177731  88.2353641
 125.3430012   9.4514997  90.1439988 126.3177852   9.5884592  90.6086009
 125.2429477   8.3846513  89.9558477 124.2360012   9.9024997  91.1329988
 124.2027756   9.1801064  91.9465183 123.2791784   9.8254458  90.6184282
 124.3980012  11.4324997  91.7639988 125.4647115  11.6165816  91.8852167
 123.9772816  11.4113806  92.7676088 123.7770012  12.5794997  90.9849988
 122.8514816  12.2258400  90.5356889 124.4398148  12.8298137  90.1575944
 123.4840012  13.8824997  91.8309988 122.6649565  13.6578003  92.5106863
 123.1143823  14.6491920  91.1505624 124.6730012  14.4354997  92.6109988
 125.4163502  14.8625454  91.9412189 125.1857803  13.6588098  93.1757451
 124.1910012  15.5594997  93.5959988 123.3893311  16.1450991  93.1525831
 125.0012194  16.2575497  93.7983416 123.7450012  14.9734997  94.8719988
 124.5928199  14.4743630  95.3381725 123.0019130  14.2027116  94.6876629
 123.1770012  15.9874997  95.8819988 122.1065068  16.0965236  95.7423542
 123.6196938  16.9618033  95.6926639 123.4540012  15.6044997  97.3149988
 124.5153889  15.4575314  97.4695864 122.9355172  14.6871673  97.5674759
 122.6290012  14.3994997  97.7869988 121.5650012  14.6024997  98.3279988
 123.2350012  13.1714997  97.6319988 122.6210012  11.9604997  98.0639988
 121.7631701  11.8017489  97.4280852 122.2821019  12.1757781  99.0669915
 123.5360012  10.7214997  98.0449988 122.8933489   9.8855502  98.2665400
 124.7130012  10.7314997  98.9959988 125.3559194   9.8670837  98.8998627
 124.3931504  10.8130048 100.0273268 125.4040012  11.9154997  98.5939988
 125.9900012  12.9124997  99.6409988 124.9360012  13.1554997 100.7829988
 125.4130012  13.4454997 102.0739988 126.1769483  14.2108951 102.0322421
 125.8913154  12.5541805 102.4696788 124.3390012  13.8024997 103.0839988
 123.8372510  14.7212012 102.8074427 124.7267171  13.9069311 104.0870678
 123.2310012  12.7264997 103.1669988 122.1250012  13.0334997 102.1149988
 121.8159135  14.0633918 102.2295460 121.2886038  12.3789397 102.3101674
 122.5160695  12.8374280 101.1279129 123.7910012  11.3244997 103.0059988
 124.6269329  11.2099718 103.6789145 124.0874912  11.1802873 101.9824430
 123.0056255  10.6307540 103.2690558 122.6210012  12.7514997 104.5839988
 123.3995512  12.5685036 105.3095705 121.8676859  11.9817823 104.6595052
 122.1707668  13.7167211 104.7658549 127.2270012  12.2444997 100.1919988
 126.2960012  14.1644997  98.9409988 124.1520012  10.5884997  96.7649988
 124.4630012   9.4064997  96.3269988 124.2630012   8.3304997  96.9749988
 124.7220012   9.5844997  94.7949988 124.0395601   8.9338952  94.2578385
 124.4711791  10.5968868  94.4882945 126.1340012   9.2724997  94.4949988
 126.3408993   8.2658219  94.8411983 126.2695853   9.2533781  93.4182981
 127.1740012  10.2694997  95.1499988 127.0010685  10.3873322  96.2167057
 128.1858245   9.8850645  95.0475876 127.0960012  11.6264997  94.4539988
 127.2736584  11.5238514  93.3850707 126.1193072  12.0931920  94.5563182
 128.1930012  12.6004997  95.0499988 128.1186493  12.5148221  96.1321412
 129.1504448  12.1613304  94.7764791 128.2030012  14.0434997  94.6669988
 127.2229291  14.4950859  94.8127030 128.8998764  14.6235968  95.2654721
 128.5980012  14.1644997  93.2109988 129.5820783  13.7466355  93.0333425
 127.9085834  13.6044018  92.5806500 128.5430012  15.6484997  92.8029988
 128.5197419  16.3846378  93.5923742 128.5350012  16.0984997  91.5589988
 128.5367258  17.1700339  91.4196379 128.5280012  15.3154997  90.2799988
 129.3460200  15.6694423  89.6548662 128.7140970  14.2618248  90.4555510
 127.2650012  15.4724997  89.5229988 126.4244241  14.9995878  90.0294467
 126.9996313  16.5219420  89.4102665 127.4440012  14.8464997  88.1359988
 128.2151827  15.3904080  87.5905175 127.8041317  13.8261545  88.2345169
 126.1450012  14.8534997  87.3169988 125.3721755  14.5107060  88.0013802
 125.9272265  15.9001842  87.1117901 126.0760012  14.0574997  86.0089988
 126.4189506  13.0456123  86.2165071 125.0331344  13.9637084  85.7187280
 126.8880012  14.5954997  84.8539988 126.9876832  15.6714478  84.9854604
 127.8937518  14.1871375  84.9348686 126.3550012  14.3184997  83.4099988
 126.9696169  14.8531637  82.6900704 126.5112640  13.2616080  83.2053653
 124.9100012  14.6464997  83.1739988 124.6035627  14.3427031  82.1775691
 124.7156842  15.7099526  83.2637199 124.2714975  14.1330994  83.8873530
 115.8060012  10.8754997  82.8939988 115.7238912  11.1770600  81.8544083
 116.5867665  11.4755931  83.3523473 114.8691991  11.1240862  83.3851389
 116.1100012   9.3914997  83.0159988 117.0228791   9.2427860  82.4417679
 115.3157253   8.9024428  82.4585374 116.2700012   8.7294997  84.4069988
 115.2984567   8.5085541  84.8488285 116.7651233   9.4124713  85.0944395
 117.1160012   7.4044997  84.3239988 118.0146466   7.5917094  83.7403560
 116.5587559   6.6412713  83.7830125 117.5230012   6.8624997  85.6799988
 118.2820853   7.5148504  86.1040303 118.0017513   5.8970068  85.5251219
 116.3460012   6.6994997  86.7239988 115.4364238   6.3239937  86.2587232
 116.0803202   7.6451231  87.1917455 116.8040012   5.7194997  87.7969988
 117.1721899   4.8269267  87.2944846 115.9244239   5.4106219  88.3601759
 117.8930012   6.2394997  88.7869988 117.5530513   7.2117983  89.1412873
 118.7880467   6.4270672  88.1967480 118.2580012   5.3574997  89.9959988
 118.6575466   4.4348225  89.5805817 117.3124614   5.0934245  90.4680113
 119.2560012   5.9134997  91.0979988 120.0828169   6.4609180  90.6507764
 119.7028036   5.1098226  91.6827207 118.4730012   6.8204997  92.0179988
 117.6368441   6.2754699  92.4508092 118.0381288   7.6489528  91.4615103
 119.3070012   7.3584997  93.1279988 119.8109969   8.2668447  92.8068809
 120.0921496   6.6448376  93.3706886 118.4900012   7.6284997  94.3839988
 118.3835328   6.7013112  94.9445681 117.4834599   7.9443560  94.1244156
 119.1270012   8.6884997  95.3269988 118.4636116   8.8338159  96.1732508
 119.1523975   9.6285504  94.7822497 120.5860012   8.3734997  95.8569988
 121.2590318   8.1917197  95.0287314 120.5749584   7.4976085  96.4947775
 121.1630012   9.4414997  96.7839988 122.0520012  10.2414997  96.4539988
 120.3460012   9.6564997  97.8629988 120.2600012  10.9734997  98.4389988
 120.7194920  11.6175371  97.7044609 120.8275239  11.0235183  99.3569356
 118.8680012  11.3694997  98.6609988 118.8711298  12.4086873  98.9455567
 118.2360012  10.5134997  99.7939988 117.4421131  11.0709020 100.2723767
 119.0074212  10.3105139 100.5263190 117.7390012   9.3094997  99.2579988
 116.2250012   8.7794997  99.4579988 116.2280012   7.9624997 100.8059988
 117.2500012   7.0144997 101.2199988 117.6233997   6.4728291 100.3607226
 116.7826709   6.2790390 101.8684562 118.4590012   7.6314997 102.0839988
 118.8536392   8.4990494 101.5703186 119.2574052   6.9167949 102.2222924
 118.0870012   8.1054997 103.4599988 116.9790012   9.1224997 103.4209988
 117.2464902   9.8976074 102.7160224 116.8817311   9.5473309 104.4090053
 116.0590848   8.6282410 103.1468105 117.6030012   6.9924997 104.3609988
 118.3155983   6.1830878 104.3189076 116.6283939   6.6757489 104.0351465
 117.5511229   7.3888803 105.3647358 119.2940012   8.7394997 104.1419988
 120.0937360   8.0157758 104.1942487 119.0173583   9.0458841 105.1396196
 119.6167244   9.6013241 103.5758333 115.3080012   9.9244997  99.6399988
 115.8670012   7.8824997  98.3319988 118.1160012  11.2414997  97.4609988
 117.0710012  12.0094997  97.3409988 116.7430012  13.0044997  97.9769988
 116.2780012  11.4804997  96.0889988 116.3751533  12.2335824  95.3137693
 116.7783367  10.5941395  95.7069817 114.8090012  11.1854997  96.4219988
 114.7878433  10.3862190  97.1546404 114.3857319  12.0552263  96.9143926
 113.9490012  10.7954997  95.2379988 112.9152568  10.7923045  95.5741778
 114.0309051  11.6054614  94.5173611 114.2790012   9.4604997  94.5209988
 115.3559915   9.3149987  94.5812262 113.8299798   8.6395756  95.0747726
 113.8670012   9.3554997  93.0769988 113.7133971   8.2988625  92.8676555
 112.8871520   9.8237974  93.0064738 114.7680012   9.9534997  92.0129988
 114.7840135  11.0336076  92.1501535 115.7864146   9.6093691  92.1702445
 114.3660012   9.6374997  90.5959988 114.2272318   8.5648811  90.6653704
 113.3687574  10.0746137  90.5680288 115.0830012  10.0064997  89.3429988
 114.4764780   9.7037440  88.5027472 116.2440012  10.6074997  89.0699988
 116.5263017  10.8156907  88.0479553 117.2140012  11.0364997  90.0469988
 117.3454427  12.1108739  89.9301052 116.8373382  10.8843837  91.0523180
 118.6160012  10.3534997  89.9079988 119.2081902  10.6369263  90.7773010
 118.4563389   9.2798368  89.9868343 119.4130012  10.6544997  88.6219988
 119.0089466  11.5768178  88.2046546 120.4353001  10.8763381  88.9155912
 119.4170012   9.5374997  87.5069988 119.7207708   8.5736743  87.9093786
 118.4290254   9.3889755  87.0746454 120.3780012   9.9694997  86.4189988
 120.0314670  10.9439975  86.0800918 121.3342778  10.1466368  86.9035424
 120.5640012   9.1184997  85.2339988 119.6946416   9.2316091  84.5887832
 121.4115184   9.5012605  84.6682756 120.7850012   7.6404997  85.4899988
 121.7153308   7.4986777  86.0343224 119.9964370   7.3021229  86.1585650
 120.7850012   6.6964997  84.1599988 120.8602535   5.6478726  84.4316372
 121.6175872   6.9224548  83.5023623 119.8695330   6.8255551  83.5895571
 128.1470012 117.0624997  82.4039988 127.2186777 116.9920067  82.9622776
 128.5351564 116.0558792  82.2781386 127.9102450 117.4494402  81.4166612
 129.2070012 118.0034997  83.1529988 129.3855680 117.5970932  84.1470565
 128.7491292 118.9780349  83.2994512 130.5890012 118.1594997  82.3989988
 131.2721788 118.7769376  82.9820663 130.4356089 118.6855185  81.4588147
 131.2560012 116.8124997  82.0989988 132.1704253 116.9951669  81.5388996
 130.6125132 116.2280084  81.4432555 131.6030012 115.9774997  83.3529988
 132.0725633 115.0358218  83.0803687 130.6967797 115.7202551  83.8988494
 132.5480012 116.7544997  84.2789988 132.0643225 117.6797437  84.5868876
 133.4350276 117.0461702  83.7207073 132.9720012 115.9634997  85.5269988
 133.9280516 116.3212474  85.9048270 133.1143389 114.9106532  85.2872399
 131.8670012 116.0984997  86.6749988 130.9115875 115.8888573  86.1957433
 131.8455053 117.1519941  86.9477101 131.9930012 115.2434997  87.9559988
 132.9075788 115.4808957  88.4951943 132.0499598 114.1829716  87.7138975
 130.7870012 115.4894997  88.8689988 130.7154389 114.7233034  89.6378428
 129.8525094 115.4491504  88.3099584 130.9240012 116.8434997  89.5039988
 130.8373888 117.5688111  88.6977962 131.9464170 116.9192806  89.8701287
 129.9380012 117.2534997  90.6419988 128.9441022 117.4574535  90.2511194
 130.2675835 118.1700994  91.1276843 129.8730012 116.1304997  91.6999988
 129.4389469 115.2692124  91.1949908 129.1514835 116.4378463  92.4518127
 131.1590012 115.6704997  92.3989988 131.5140105 116.4485423  93.0668033
 131.9304243 115.5249898  91.6474502 130.9880012 114.3204997  93.2149988
 130.6022708 113.5371287  92.5750120 130.3022059 114.4634202  94.0416350
 132.3800012 113.9904997  93.9209988 133.0950012 113.0634997  93.5639988
 132.4270012 114.7124997  95.0689988 133.5900012 114.5124997  96.0149988
 134.4643551 114.4374911  95.3862374 133.4544365 113.5803544  96.5440728
 133.7400012 115.6934997  97.0029988 134.6142008 115.5252990  97.6099399
 132.5000012 115.9224997  97.9139988 132.0721190 114.9663990  98.1834228
 131.7710806 116.4788884  97.3380723 132.8780012 116.6654997  99.1069988
 131.9940012 116.4394997 100.3499988 132.3790012 117.5744997 101.3819988
 132.5170012 118.9044997 100.9049988 132.7299637 118.9320585  99.8443026
 133.3585727 119.3798558 101.4005700 131.3030012 119.7784997 101.2459988
 130.4379542 119.3586250 100.7483563 131.4384434 120.7957053 100.9078789
 130.9260012 119.8744997 102.7259988 132.1030012 120.2054997 103.5159988
 132.8957791 119.5161409 103.2598317 131.8465587 120.0934729 104.5589692
 132.3805249 121.2301451 103.3190234 129.8910012 120.9814997 102.8409988
 129.1203651 120.8079161 102.1056738 130.3734393 121.9303867 102.6885622
 129.4724720 120.9303733 103.8357432 130.3610012 118.5674997 103.1419988
 129.5031352 118.3390793 102.5272044 130.0595450 118.6247091 104.1771322
 131.1099634 117.7974324 103.0258653 130.5330012 116.5864997 100.0469988
 132.3310012 115.1324997 100.9199988 133.9660012 116.8454997  96.1949988
 134.7670012 117.8314997  96.5639988 135.2890012 117.9694997  97.6679988
 134.9400012 118.7614997  95.3699988 134.0108852 119.3150394  95.2811717
 135.7008396 119.4959753  95.6221443 135.3060012 117.9974997  94.0289988
 136.3188986 117.6201528  94.1168007 134.6678015 117.1247512  93.9338973
 135.2010012 118.8494997  92.7819988 135.3769822 119.9005191  92.9965747
 135.9564515 118.5575732  92.0566445 133.8500012 118.6714997  92.1619988
 133.7071370 117.6313412  91.8750035 133.0522486 118.9057730  92.8626476
 133.6830012 119.5454997  90.9099988 132.6333348 119.6405654  90.6396953
 134.0367246 120.5549657  91.1105956 134.4670012 118.9784997  89.7169988
 135.5118969 119.2394618  89.8775995 134.4104920 117.8947048  89.7671334
 134.0490012 119.4204997  88.3349988 134.6255947 118.8854293  87.5894657
 133.0076663 119.1453204  88.1729983 134.1890012 120.9444997  88.1569988
 134.7000421 121.5083965  88.9227738 133.7280012 121.6284997  87.0999988
 133.8407443 122.6951942  86.9693779 132.9900012 120.9374997  85.9599988
 132.3557771 120.1803021  86.4178553 132.3214656 121.6453295  85.4828006
 133.8440012 120.2664997  84.9089988 134.2326138 119.3434978  85.3376626
 133.1804013 119.9689539  84.0993317 135.0450012 121.1214997  84.3129988
 134.5981072 122.0331860  83.9164880 135.6564474 121.4256976  85.1580438
 135.9380012 120.4874997  83.2379988 135.3491059 120.2863332  82.3458780
 136.7169672 121.1859619  82.9372540 136.5890012 119.1884997  83.7409988
 137.2994432 119.4113149  84.5348599 135.8461318 118.5305828  84.1836222
 137.3640012 118.4334997  82.5949988 138.2321234 119.0352739  82.3321022
 137.7541761 117.5095617  83.0180072 136.5980012 118.0944997  81.3089988
 136.5270133 119.0171440  80.7383823 137.2727181 117.4511021  80.7485439
 135.2240012 117.4284997  81.3719988 134.8689274 117.1823925  80.3757945
 134.4819105 118.0725032  81.8316746 135.2625869 116.5072326  81.9463847
 107.9540012   1.1944997  83.8589988 107.8585784   0.2630681  83.3096731
 106.9595986   1.6172492  83.9696169 108.3221828   0.9556669  84.8529873
 108.9070012   2.1824997  83.1329988 108.4841898   2.3009439  82.1368037
 109.8328592   1.6276396  83.0075743 109.1930012   3.5434997  83.7149988
 108.2497591   4.0839828  83.7931093 109.7936992   4.0893445  82.9901635
 109.9050012   3.5814997  85.0569988 110.8392231   3.0299118  84.9780679
 109.3099539   3.0609975  85.8057993 110.2130012   4.9974997  85.5489988
 109.2907470   5.4399316  85.9167952 110.5108568   5.5871753  84.6835915
 111.2800012   5.1144997  86.6269988 111.6538639   6.1350207  86.6868366
 112.1378556   4.4898881  86.3871589 110.7250012   4.7044997  87.9769988
 110.4734533   3.6455461  87.9664666 109.7944407   5.2363473  88.1704550
 111.7420012   4.9874997  89.1539988 112.3147717   5.8965620  88.9751397
 112.4698742   4.1844835  89.2542474 110.9690012   5.1294997  90.4579988
 110.6003378   4.1606760  90.7881639 110.0894432   5.7553800  90.3122986
 111.8530012   5.7434997  91.5629988 112.1050246   6.7817727  91.3586159
 112.7998370   5.2165336  91.6780536 111.0710012   5.6454997  92.8509988
 111.6806629   6.0928488  93.6331320 110.9778042   4.5913225  93.1062492
 109.6620012   6.3094997  92.8869988 109.1089769   5.9281687  92.0320310
 109.8121744   7.3716377  92.7026602 108.8060012   6.1414997  94.2089988
 109.1386013   6.8782050  94.9383097 108.9880520   5.1678847  94.6553230
 107.2570012   6.3294997  94.0009988 106.8866008   5.6531718  93.2376317
 107.0573779   7.3387303  93.6507187 106.4350012   6.0884997  95.3669988
 106.8106475   6.7305043  96.1536123 106.5273208   5.0571284  95.6860902
 106.0980012   4.5684997  95.4649988 105.9480012   3.8954997  94.4709988
 105.9670012   4.0954997  96.7339988 105.3560012   2.7804997  96.8239988
 104.9822345   2.4284722  95.8743477 104.5309161   2.8757995  97.5149000
 106.4830012   1.7584997  97.3999988 106.0442126   0.7950204  97.6001646
 107.2080012   2.2664997  98.6429988 107.7081631   1.4458795  99.1392060
 106.4688537   2.6809126  99.3171708 108.1120012   3.2274997  98.2769988
 109.0690012   3.8854997  99.2919988 108.8760012   2.9764997 100.5779988
 108.0250012   3.3434997 101.6839988 107.6259821   2.4466615 102.1396896
 107.1767512   3.8846931 101.2748794 108.6500012   4.3144997 102.7829988
 107.8919180   4.6304036 103.4885225 108.9396856   5.1637110 102.1810851
 109.8040012   3.9784997 103.5729988 110.0580012   5.1074997 104.5899988
 110.0768386   6.0506096 104.0612996 111.0179081   4.9302339 105.0517947
 109.2837930   5.0824298 105.3421226 109.6940012   2.6214997 104.2479988
 109.4039867   1.8925661 103.5068770 108.9725677   2.6823521 105.0431093
 110.6688152   2.3784118 104.6454189 111.0650012   3.9864997 102.7889988
 110.9802293   3.2854648 101.9720252 111.8835331   3.6971118 103.4308010
 111.2428801   4.9795529 102.4021662 110.4260012   3.6394997  98.7789988
 108.5980012   5.3084997  99.5879988 107.5140012   1.6634997  96.4039988
 107.5610012   0.5694997  95.5749988 106.8350012  -0.4585003  95.7779988
 108.5830012   0.8244997  94.4419988 108.8596058   1.8733590  94.4113891
 109.5100734   0.2766641  94.5913983 107.8650012   0.3694997  93.1269988
 108.5977718   0.2875703  92.3317656 107.4519041  -0.6255836  93.2581215
 106.7830012   1.3184997  92.7019988 105.9519402   1.3536482  93.4018246
 107.1537398   2.3372893  92.6202333 106.2810012   0.8574997  91.2979988
 107.0407307   1.1205126  90.5642814 106.1989133  -0.2264504  91.2752877
 104.9070012   1.4824997  90.8359988 104.5786548   1.0760737  89.8815840
 104.1179410   1.2542971  91.5499236 105.0410012   3.0284997  90.7199988
 104.1012122   3.4048167  90.3188964 105.1340266   3.4405827  91.7209242
 106.1870012   3.5434997  89.8759988 107.1279165   3.0986754  90.1783060
 106.0412528   3.2724269  88.8311912 106.2400012   5.1144997  89.9859988
 105.9067832   5.5776954  90.9024973 106.6870012   5.9284997  89.0169988
 106.7012561   7.0009239  89.1485779 107.2070012   5.4674997  87.6839988
 108.1059863   6.0453143  87.4762080 107.5198924   4.4312120  87.7463519
 106.2600012   5.6354997  86.5239988 105.9854254   6.6873756  86.4542117
 106.8071864   5.4038083  85.6122058 104.9760012   4.7684997  86.5819988
 105.1873875   3.7603576  86.9384709 104.2326834   5.1803479  87.2590244
 104.3920012   4.6914997  85.1699988 103.3459102   4.4003469  85.2337853
 104.4054019   5.6802475  84.7147151 105.1320012   3.7394997  84.2969988
 106.0061554   4.2896608  83.9538266 105.5093238   2.9683466  84.9630135
 104.4720012   3.1004997  83.0789988 104.1518265   3.8797554  82.3897008
 105.2086386   2.5061427  82.5414682 103.2260012   2.1774997  83.4099988
 103.5324980   1.2768385  83.9361017 102.5641697   2.7075296  84.0914387
 102.4350012   1.7914997  82.1569988 101.5410289   1.2349301  82.4217874
 103.0175365   1.1702701  81.4850855 102.1239467   2.6735791  81.6044393
  18.4630012  22.0434997  83.7569988  17.4939568  21.9689463  83.2734455
  18.6386435  23.0903411  83.9873525  18.4046088  21.5048899  84.6988596
  19.5590012  21.4854997  82.8789988  19.5103601  22.0408426  81.9438884
  19.2607459  20.4671160  82.6450064  20.9810012  21.5054997  83.3959988
  21.2848618  22.5521797  83.3883482  21.5724872  21.0145919  82.6257229
  21.3360012  20.8884997  84.7449988  21.0626787  21.6292922  85.4931774
  22.4218607  20.8138601  84.7773109  20.7340012  19.5664997  85.1349988
  21.0803898  18.8163131  84.4287353  19.6577102  19.6469776  84.9918690
  21.0300012  19.0584997  86.6129988  20.7667205  19.8495079  87.3128603
  22.1011541  18.9014423  86.7204294  20.2810012  17.7584997  87.0039988
  20.7614893  16.9066166  86.5262997  19.2654950  17.7942999  86.6119585
  20.2320012  17.5334997  88.4769988  19.5208503  18.2205340  88.9338349
  21.2001358  17.7590274  88.9203231  19.8380012  16.0874997  88.8279988
  20.3946156  15.3953672  88.1997680  18.7856201  15.9292386  88.5955668
  20.0960012  15.7354997  90.3559988  21.1621027  15.8192950  90.5552594
  19.8350084  14.6911550  90.5252798  19.3300012  16.5924997  91.3069988
  18.2712176  16.3641277  91.2051923  19.4425791  17.6371545  91.0221296
  19.7150012  16.4274997  92.7589988  19.6884065  15.3568087  92.9464359
  18.8895760  16.8556853  93.3246846  21.0280012  17.0224997  93.2819988
  20.8007726  18.0265145  93.6363621  21.7057568  17.1426657  92.4414742
  21.7560012  16.2754997  94.4099988  21.8437438  15.2126544  94.2099832
  21.2216303  16.3753513  95.3510457  23.1840012  16.8854997  94.5819988
  23.1222860  17.9532588  94.7496967  23.7801506  16.7066850  93.6950375
  23.1200012  18.2874997  95.2369988  23.3550012  19.2954997  94.5849988
  22.6700012  18.2134997  96.5699988  22.5610012  19.5434997  97.2059988
  22.5967078  20.2353978  96.3780712  23.4306565  19.6933450  97.8292467
  21.2770012  19.7404997  98.0039988  21.1579307  20.7522225  98.3549021
  21.1960012  18.7494997  99.2059988  21.8836494  18.9887527 100.0058105
  21.3737855  17.7294152  98.8891307  19.8620012  18.9044997  99.6389988
  19.0550012  17.5604997 100.0369988  18.0550012  18.0824997 101.0889988
  17.1900012  19.1844997 100.8049988  16.1688026  19.0717883 101.1450555
  17.1385856  19.3987243  99.7413911  17.8640012  20.4534997 101.4499988
  17.3725710  21.3888457 101.2136235  18.8720644  20.4831698 101.0623067
  18.0010012  20.4284997 102.9779988  16.7140012  20.4774997 103.7249988
  16.1302225  21.3081776 103.3528286  16.9406585  20.6313646 104.7695331
  16.2003878  19.5360114 103.6004268  18.9310012  19.3244997 103.5959988
  19.8788392  19.3468748 103.0804249  18.4522287  18.3666745 103.4974189
  19.0708339  19.5669699 104.6395274  18.6890012  21.7884997 103.2369988
  19.6230606  21.8231688 102.6962465  18.8788760  21.8942445 104.2945505
  18.0434690  22.5884346 102.9040915  18.3070012  17.0044997  98.8779988
  19.9500012  16.6254997 100.7469988  20.2810012  19.5234997  97.0479988
  19.1890012  20.3684997  97.0779988  18.9610012  21.1234997  97.9889988
  18.4300012  20.3264997  95.7539988  18.4020988  19.2857881  95.4479042
  17.3971203  20.6091483  95.9415456  19.0530012  21.2104997  94.6969988
  18.6585723  22.2160422  94.7938034  20.1224837  21.2902779  94.8639581
  18.7780012  20.6884997  93.2419988  19.0298206  19.6314265  93.2130624
  17.7044033  20.7488690  93.0813496  19.4890012  21.4324997  92.0949988
  19.4100813  22.4998186  92.2932613  20.5502803  21.1970643  92.1164180
  18.9420012  21.1584997  90.6629988  19.6790253  21.5222050  89.9499666
  18.9059239  20.0781489  90.5368177  17.6080012  21.7214997  90.3239988
  16.8200405  21.3851644  90.9960833  17.5696149  22.8072445  90.3256405
  17.3080012  21.2174997  88.8909988  18.1189615  21.5288541  88.2429388
  17.3305500  20.1286874  88.9090367  15.9340012  21.6764997  88.3289988
  15.8566703  22.6978302  87.9877396  14.7950012  20.8804997  88.2139988
  13.9201702  21.3528105  87.7906746  14.5900012  19.4254997  88.5939988
  15.5339806  18.9659641  88.8820109  13.9128028  19.2758850  89.4274847
  14.0440012  18.6744997  87.3419988  13.6235450  17.7298698  87.6849215
  13.2077342  19.2587764  86.9628718  15.0640012  18.4014997  86.1639988
  15.6701283  19.2962680  86.0222015  15.7493411  17.6157698  86.4696810
  14.4150012  18.0214997  84.8419988  13.7344721  17.1784581  84.9384665
  13.8353022  18.8318028  84.4033156  15.5470012  17.6644997  83.9169988
  16.0939700  16.8511800  84.3902073  15.1072348  17.2424969  83.0174744
  16.5560012  18.7574997  83.5449988  16.0541755  19.6947991  83.3114955
  17.2247587  18.9722446  84.3765527  17.4260012  18.3314997  82.3009988
  16.7877224  18.0142872  81.4800899  17.9590941  19.2081708  81.9396505
  18.4330012  17.2414997  82.6069988  19.0640280  17.0467204  81.7450619
  17.9507283  16.3073646  82.8744789  19.0791660  17.5273182  83.4321774
 134.5750012  18.6964997  79.9499988 135.5975113  18.3321655  79.9627513
 134.4644172  19.3429508  79.0841685 133.9210294  17.8406470  79.8069983
 134.2310012  19.4454997  81.2529988 134.9710368  20.2395560  81.3368128
 134.4477986  18.7407913  82.0512462 132.8200012  20.0444997  81.4419988
 132.4277317  20.4629100  80.5151835 132.8339330  20.8625162  82.1595124
 131.8830012  18.9894997  81.9429988 132.2253425  18.7428089  82.9455935
 132.0638602  18.1036086  81.3362096 130.3990012  19.2664997  81.9939988
 129.8336003  18.3517809  82.1526945 130.0575180  19.6759496  81.0447332
 130.0600012  20.2854997  83.1529988 128.9768612  20.2620989  83.2582469
 130.3063501  21.2702594  82.7616708 130.6990012  20.1154997  84.5159988
 130.5331016  21.0411150  85.0641626 131.7742400  20.0440594  84.3579235
 130.2220012  18.9014997  85.3919988 130.3771275  17.9945343  84.8090745
 129.1461344  18.9952714  85.5276511 130.8890012  18.7434997  86.7559988
 131.9609648  18.6488578  86.5963809 130.5609345  17.7965906  87.1829794
 130.6300012  19.8394997  87.7329988 129.5663805  20.0675528  87.7343728
 131.1358748  20.7449546  87.3988249 131.1130012  19.4844997  89.2079988
 132.1907215  19.3362005  89.1997938 130.6795804  18.5345916  89.5161368
 130.7720012  20.5834997  90.2819988 129.7332389  20.8841171  90.1687679
 131.3690688  21.4702412  90.0773780 131.0370012  20.1374997  91.7199988
 131.1280097  21.0145617  92.3585374 131.9828143  19.6080822  91.7936778
 129.9270012  19.2554997  92.2869988 129.5973166  18.6308853  91.4632816
 129.1133185  19.9416217  92.5066554 130.1650012  18.3974997  93.4909988
 130.5272063  18.9959966  94.3172250 130.8980249  17.6309609  93.2692703
 130.3280012  19.3484997  94.6409988 130.0870012  20.5354997  94.6069988
 130.7770012  18.7224997  95.6459988 131.0580012  19.4384997  96.8449988
 130.6892045  20.4468027  96.7319678 132.1298894  19.4672157  96.9769952
 130.3710012  18.7484997  98.0449988 129.3001940  18.8265563  97.9545936
 130.8390012  19.4134997  99.3689988 130.7365105  20.4851669  99.2649507
 131.8894744  19.1744235  99.4782397 130.1180012  18.9584997 100.4769988
 130.8100012  19.2584997 101.9109988 131.8650012  18.0824997 102.1109988
 131.5390012  16.7454997 101.5509988 131.3248060  16.7470826 100.4901939
 130.6698552  16.3151645 102.0400733 132.6840012  15.8044997 101.8739988
 132.4649356  14.7445759 101.8453471 132.9530087  16.0763278 102.8845043
 133.9600012  15.9914997 101.0319988 133.7150012  15.4964997  99.6489988
 133.3068699  14.4968210  99.7073549 134.6621386  15.4729486  99.1308520
 133.0439775  16.1771558  99.1468518 134.7270012  17.2944997 101.1319988
 134.8912761  17.5162946 102.1753275 134.1627509  18.0719899 100.6487798
 135.6729843  17.1518633 100.6299353 135.0080012  14.9574997 101.5919988
 135.1720334  15.1505798 102.6417109 135.9375612  15.0679871 101.0540763
 134.6307760  13.9537733 101.4590716 131.5210012  20.5234997 101.9309988
 129.7520012  19.0054997 102.9219988 130.7650012  17.2884997  98.0869988
 130.0730012  16.3834997  97.4219988 128.9220012  16.5164997  97.0269988
 130.9590012  15.1844997  97.0549988 131.9124850  15.3471905  97.5468861
 130.5354792  14.2947040  97.5141282 131.1170012  15.0034997  95.5549988
 130.1510567  15.1516652  95.0848293 131.7631095  15.7839142  95.1657300
 131.6840012  13.5764997  95.1409988 132.6304722  13.4113498  95.6494986
 131.0000435  12.8215172  95.5208256 131.8620012  13.3574997  93.5659988
 132.4507435  12.4563720  93.4045758 130.8968291  13.1777032  93.0987536
 132.5430012  14.5044997  92.8539988 131.8322854  15.3204601  92.7400132
 133.3346729  14.8803251  93.4992833 133.1580012  14.1544997  91.4609988
 133.6478445  15.0517158  91.0858219 133.9408187  13.4148760  91.6040771
 132.1490012  13.6174997  90.3729988 132.7481624  13.3092106  89.5241503
 131.7135313  12.7090957  90.7871415 131.0080012  14.5554997  89.9359988
 130.1479043  14.4277462  90.5758944 130.9040012  15.5194997  88.8959988
 130.0475906  16.1288084  88.6451726 132.0930012  15.7544997  88.0269988
 132.3289455  16.8168954  87.9975596 132.9884123  15.2543428  88.3787985
 131.7840012  15.2994997  86.6189988 131.3022882  14.3224373  86.6215899
 131.0809026  15.9829680  86.1467885 133.0700012  15.2354997  85.7769988
 133.5402055  16.2170807  85.7177231 133.8036636  14.5741925  86.2296755
 132.7390012  14.7354997  84.3339988 133.6917837  14.4472866  83.8954972
 132.1677582  13.8163019  84.4516505 131.9940012  15.6724997  83.3899988
 131.0550994  15.9823762  83.8450042 132.5624479  16.5848919  83.2317780
 131.6650012  15.0034997  82.0189988 131.6187598  15.8048614  81.2837681
 132.5311225  14.4000105  81.7535395 130.4050012  14.1364997  81.8759988
 130.3219768  13.4353412  82.7026782 129.5305400  14.7798607  81.9446801
 130.3500012  13.3784997  80.5639988 129.4071657  12.8492514  80.4638655
 131.1447348  12.6442678  80.4862617 130.4413667  14.0543701  79.7184265
  33.6110012   1.6154997  84.6859988  33.2763193   1.5095608  83.6587724
  34.4971192   2.2436504  84.6826167  32.8353727   2.1440603  85.2333890
  33.9030012   0.2414997  85.3249988  34.6394184  -0.2290130  84.6757604
  32.9839818  -0.3258974  85.2055077  34.3790012   0.1624997  86.7529988
  34.3011002  -0.8797803  87.0620503  33.6546362   0.7094995  87.3532134
  35.7220012   0.6634997  87.0729988  35.9284101   1.4635082  86.3654455
  36.4259194  -0.1339749  86.8401054  35.9990012   1.1944997  88.5269988
  35.8918876   0.3353211  89.1841988  35.1644087   1.8566856  88.7513426
  37.2490012   1.8744997  88.8389988  38.0729736   1.1674064  88.7621511
  37.2299862   2.2080169  89.8743643  37.5330012   3.1094997  87.8999988
  37.7236746   2.7670130  86.8845597  38.4385412   3.6208136  88.2237043
  36.3990012   4.0774997  87.8879988  35.5645316   3.5431436  87.4356989
  36.6836123   4.8526870  87.1789395  35.9160012   4.7554997  89.2369988
  35.7122658   3.9862676  89.9788309  34.9719303   5.2720451  89.0682150
  36.9750012   5.7794997  89.8199988  37.2884761   6.4543369  89.0265083
  37.8676029   5.2361447  90.1289591  36.4200012   6.6084997  91.0479988
  35.5239185   7.1436091  90.7410220  37.1424094   7.3697949  91.3372805
  36.0670012   5.7304997  92.2959988  35.4151824   4.9127052  91.9984024
  35.4998690   6.3276664  93.0076329  37.3040012   5.1864997  92.9949988
  38.0105179   6.0012919  93.1439944  37.8066446   4.4597271  92.3629978
  37.0210012   4.5504997  94.3609988  37.8339641   3.9171773  94.7006148
  36.1305202   3.9283849  94.3276989  36.7930012   5.6814997  95.3909988
  36.0070412   6.3463783  95.0559699  37.7009720   6.2570207  95.5267687
  36.3900012   5.1524997  96.7309988  36.7170012   4.0394997  97.0739988
  35.7380012   6.0224997  97.4479988  34.8550012   5.6584997  98.5319988
  34.7821713   6.5022687  99.2014849  35.4181648   4.8726587  99.0141737
  33.4440012   5.1654997  98.1359988  32.8694513   5.8046472  97.4861704
  32.7140012   4.9934997  99.4789988  31.6507792   5.0677145  99.2950091
  33.0178782   5.8277168 100.0989387  33.0330012   3.7234997 100.1389988
  32.4010012   3.4854997 101.6259988  32.7050012   1.8944997 101.7949988
  33.0470012   1.0384997 100.7139988  32.4889684   1.2919899  99.8220732
  32.7709638   0.0198770 100.9709193  34.5920012   0.9854997 100.4179988
  34.8472601   1.7963445  99.7474598  34.7498597   0.0478208  99.9049529
  35.6090012   1.0294997 101.5159988  35.1120012   0.0954997 102.5899988
  34.0866957   0.3497070 102.8212158  35.7280173   0.2367249 103.4656012
  35.2061521  -0.9218212 102.2408413  36.9900012   0.6194997 101.0899988
  37.2507664   1.1686118 100.1982638  37.0032909  -0.4416552 100.9163793
  37.6652718   0.8753617 101.8936412  35.7030012   2.4364997 102.1509988
  35.9595044   3.1550827 101.3868479  36.4670180   2.4310526 102.9138215
  34.7523261   2.6966338 102.5936976  33.1980012   4.1834997 102.5929988
  30.9130012   3.7074997 101.5489988  33.5730012   3.8624997  97.5389988
  32.5910012   3.5814997  96.5839988  31.7150012   4.3184997  96.2589988
  32.6560012   2.0884997  96.2029988  33.6612965   1.6882656  96.2851387
  32.0291139   1.4461950  96.8164840  32.1740012   2.1134997  94.7749988
  31.1288263   2.4017551  94.7990684  32.6957176   2.9185268  94.2672821
  32.3150012   0.8384997  93.9899988  33.3868884   0.6583641  93.9737855
  31.8916751   0.0890230  94.6541861  31.7210012   0.6354997  92.5739988
  31.9194978  -0.3894579  92.2661563  30.6391416   0.7379680  92.6098054
  32.2790012   1.5894997  91.4839988  33.3086597   1.8768806  91.6867708
  32.2863524   1.1034621  90.5102973  31.3870012   2.8774997  91.3949988
  30.3631991   2.5241423  91.2824422  31.4375280   3.3673558  92.3634026
  31.6820012   3.8914997  90.3279988  30.8472634   4.5755321  90.2285379
  32.5372261   4.4934386  90.6323109  32.0050012   3.2244997  89.0009988
  33.0143989   2.8471917  88.9353558  31.2280012   3.0424997  87.9549988
  31.6033609   2.5572975  87.0654517  29.7550012   3.4684997  87.8619988
  29.1762838   2.5836872  87.6023567  29.3932088   3.7943087  88.8308309
  29.4550012   4.5934997  86.7809988  28.3778321   4.6614505  86.6333691
  29.7657969   5.5520997  87.1920351  30.1550012   4.3744997  85.4069988
  31.1751207   4.0981879  85.6736724  29.6912291   3.4761262  85.0090735
  30.1940012   5.5014997  84.2719988  30.5724593   5.0583625  83.3535523
  29.1784346   5.8286795  84.0559830  31.0190012   6.6794997  84.6439988
  30.8067527   7.4365108  83.8913536  30.6008697   7.0587002  85.5724373
  32.5450012   6.5514997  84.7679988  32.9689443   7.5501967  84.8560861
  32.7707347   6.0441814  85.7042181  33.2540012   5.8254997  83.6459988
  32.6662298   4.9462245  83.3943739  33.1902346   6.4816398  82.7807086
  34.7250012   5.4174997  83.8499988  35.1349740   4.9864889  82.9415820
  34.8358214   4.6804871  84.6382071  35.3355757   6.2765616  84.1133471
  11.1690012 145.1444997  83.1709988  10.5716592 145.0832821  82.2666404
  12.2026673 145.2993200  82.8754402  10.8484000 146.0258125  83.7197378
  11.0170012 143.8584997  84.0379988  11.3270704 142.9807797  83.4734922
   9.9732057 143.7020289  84.2964983  11.8640012 143.9644997  85.3089988
  11.4777212 144.7463019  85.9628351  12.8792045 144.2607642  85.0525607
  11.9250012 142.6264997  86.0919988  11.8215521 141.7892660  85.4052760
  11.0931892 142.5481492  86.7903225  13.2110012 142.4774997  86.8359988
  13.4682288 143.4086107  87.3344355  14.0160302 142.2756470  86.1313366
  13.1560012 141.3124997  87.9169988  14.1357885 140.8642482  88.0716092
  12.4984123 140.5050657  87.6020316  12.6510012 141.8864997  89.2359988
  11.6510791 142.2918419  89.0923897  13.2806763 142.7260557  89.5273486
  12.6210012 140.8384997  90.3939988  13.5463081 140.2642198  90.3725352
  11.8180271 140.1281376  90.2061093  12.4300012 141.4774997  91.8489988
  11.4625830 141.9728617  91.8965336  13.1772591 142.2559581  91.9979451
  12.5320012 140.4614997  92.9769988  11.6312348 139.8524458  92.9458177
  12.4973591 141.0097012  93.9181172  13.7850012 139.5544997  92.9629988
  14.6971726 140.1453733  92.9144951  13.8037649 138.8978682  92.0948910
  13.8270012 138.6934997  94.2589988  14.5204948 137.8706418  94.1034657
  12.8460645 138.2423875  94.3965893  14.2070012 139.4834997  95.5709988
  13.9100675 138.8322990  96.3913768  13.5469025 140.3453711  95.6124891
  15.6820012 139.9544997  95.8359988  15.9575722 140.6011641  95.0094210
  16.2956451 139.0612445  95.7545838  16.0240012 140.6754997  97.1939988
  15.7263669 140.0614777  98.0344938  15.5072946 141.6257992  97.2573558
  15.4820012 142.1264997  97.2339988  15.2040012 142.7274997  96.2509988
  15.3150012 142.6024997  98.5539988  14.6550012 143.9104997  98.7189988
  14.9455089 144.4837846  97.8515821  15.0552343 144.3825156  99.6045530
  13.0720012 143.7984997  98.7999988  12.6394480 144.7182118  99.1576596
  12.7140012 142.6514997  99.7489988  11.6669309 142.7070061 100.0142607
  13.3062230 142.7637876 100.6485818  12.9970012 141.4324997  99.1289988
  12.3970012 140.0624997  99.7179988  11.7230012 140.6074997 100.9859988
  10.4080012 140.2044997 101.3109988  10.2026422 139.1541810 101.1502275
   9.6677699 140.7544420 100.7370492  10.1590012 140.5944997 102.7619988
  10.8333196 140.0552209 103.4152384   9.1457755 140.2896299 102.9806428
  10.2570012 142.0744997 103.1869988  11.6320012 142.5074997 103.0599988
  12.2658518 141.8001329 103.5769124  11.7192984 143.4794871 103.5222969
  11.8809559 142.5809254 102.0119781   9.3040012 142.8714997 102.3769988
   8.3379975 142.3917230 102.4139475   9.6712412 142.9390087 101.3685607
   9.2466580 143.8549533 102.8206515   9.8920012 142.1514997 104.6709988
   8.8970160 141.7567762 104.8134061   9.9215994 143.1823625 104.9905230
  10.6006852 141.5742037 105.2471336  11.3350012 139.4484997  98.8629988
  13.4350012 139.0734997 100.1169988  12.5630012 143.5534997  97.4919988
  11.2000012 143.6534997  97.3569988  10.4710012 144.0804997  98.1759988
  10.8300012 143.2214997  95.9569988  11.2288392 143.9670582  95.2768343
  11.3503533 142.2962378  95.7224118   9.3040012 143.0554997  95.8009988
   8.9639050 142.4284136  96.6177966   8.8458700 144.0269065  95.9575799
   8.8040012 142.4404997  94.4339988   7.7876204 142.7689212  94.2320993
   9.4165126 142.8373050  93.6281202   8.8800012 140.8864997  94.3959988
   9.8590814 140.5638145  94.7452583   8.1542758 140.4423608  95.0729518
   8.6560012 140.3124997  92.9769988   7.7745206 140.7779843  92.5408598
   9.4961760 140.6108003  92.3528962   8.5120012 138.7864997  92.9089988
   9.5004233 138.3499582  93.0437362   7.9106207 138.4486088  93.7483374
   7.9090012 138.2624997  91.6479988   7.7119437 137.2092768  91.8106946
   6.9373364 138.7446950  91.5495043   8.6960012 138.4824997  90.3579988
   9.7496449 138.2797232  90.4774586   8.2700012 138.8754997  89.1069988
   9.0578659 138.9598080  88.3723075   6.9070012 139.2034997  88.5809988
   6.6281707 138.4552836  87.8409668   6.1513599 139.1589079  89.3573356
   6.8650012 140.6244997  87.8879988   5.8351984 140.8320448  87.5996650
   7.1241476 141.3657095  88.6415969   7.7880012 140.8014997  86.6639988
   7.7285425 141.8263431  86.2975732   8.8254430 140.6383185  86.9425490
   7.4020012 139.8304997  85.5249988   7.2642672 138.8466740  85.9680127
   6.4281884 140.1308015  85.1421248   8.4040012 139.7454997  84.3549988
   7.9722154 139.0771545  83.6123913   8.4447238 140.7244159  83.8852225
   9.8370012 139.2474997  84.6679988  10.2880995 139.9482555  85.3682377
   9.7495445 138.3024490  85.2009758  10.7980012 139.0524997  83.4849988
  10.2995259 138.6297063  82.6162738  11.1886610 140.0151967  83.1626445
  12.0010012 138.1324997  83.8959988  12.7265103 138.0641235  83.0909956
  11.6784969 137.1234291  84.1294694  12.5126272 138.5258554  84.7698701
   2.4210012 133.7374997  82.6259988   2.8269161 133.4326527  81.6664518
   1.3415839 133.6256731  82.5797034   2.7914375 133.0447140  83.3766231
   2.8250012 135.2154997  82.9729988   2.4628481 135.8856328  82.1952008
   3.9081657 135.3024676  82.9707421   2.2790012 135.6514997  84.2879988
   2.8775987 135.2763779  85.1179950   1.2746342 135.2614828  84.4406582
   2.2210012 137.2034997  84.3579988   1.5863066 137.5530568  83.5466895
   3.2144822 137.6009715  84.1562128   1.7030012 137.7824997  85.6639988
   0.7149979 137.3578309  85.8223625   1.5528065 138.8447416  85.4783956
   2.5320012 137.6044997  86.9439988   3.5632989 137.8106252  86.6633669
   2.4882783 136.5443575  87.1843399   2.1730012 138.4224997  88.1939988
   1.2540681 138.0429678  88.6370423   1.9731406 139.4570180  87.9182136
   3.3160012 138.3844997  89.2629988   3.3611451 137.3582006  89.6251081
   2.9716866 138.9875958  90.1010957   4.7340012 138.8434997  88.8539988
   4.7896628 139.9238605  88.9691651   4.8646721 138.6444284  87.7910440
   5.8730012 138.1934997  89.6309988   6.7856927 138.6376160  89.2397778
   5.8867091 137.1478492  89.3246392   5.8670012 138.2694997  91.1579988
   5.1513572 137.5149849  91.4775329   5.4213221 139.2319103  91.4034859
   7.2380012 138.0754997  92.0209988   7.0303189 138.2466984  93.0744588
   7.9546618 138.8391392  91.7244822   7.8560012 136.7534997  91.8349988
   8.7745165 136.7461302  92.4194020   8.1561872 136.6582404  90.7952450
   7.0280012 135.5154997  92.2349988   7.4386094 134.6216097  91.7770614
   6.0151189 135.6257139  91.8568265   6.9620012 135.3164997  93.7759988
   6.5857489 136.2100445  94.2577174   7.9469378 135.0971022  94.1707564
   5.7840012 136.1294997  94.3329988   4.6020012 135.8874997  94.0829988
   6.1710012 137.0174997  95.2399988   5.1260012 137.4694997  96.1569988
   4.2477280 137.4702854  95.5292269   5.3971079 138.4898421  96.3863336
   4.8580012 136.6574997  97.4589988   4.1783916 137.2173062  98.0799991
   6.1310012 136.2814997  98.2729988   6.4460827 137.1529078  98.8308272
   6.8977056 136.0376114  97.5482451   5.9130012 135.1994997  99.1359988
   5.7350012 135.3574997 100.6929988   4.3170012 135.9884997 100.8109988
   3.2340012 135.1824997 101.3389988   3.5267070 134.6999740 102.2624062
   3.0158577 134.3875091 100.6317503   1.8720012 135.9664997 101.5149988
   1.1088819 135.2977105 101.8926482   1.5961586 136.2809254 100.5187938
   1.7960012 137.2054997 102.3769988   2.6620012 138.2544997 101.6739988
   3.6298584 137.8196527 101.4654454   2.7771477 139.0942197 102.3431112
   2.1615313 138.5752231 100.7726756   0.4060012 137.6824997 102.4019988
  -0.2375534 136.8505336 102.6436266   0.1618149 138.1029430 101.4428479
   0.3378866 138.4391496 103.1702033   2.3880012 137.0474997 103.7339988
   1.8847981 136.2434151 104.2500575   2.2611872 137.9669316 104.2855540
   3.4409458 136.8223997 103.6441514   5.8290012 134.0134997 101.2429988
   6.7450012 136.2944997 101.2569988   4.2150012 135.4644997  97.0309988
   2.8500012 135.4644997  97.1259988   2.1370012 136.3864997  97.4559988
   2.3160012 134.0124997  96.8719988   3.0760710 133.4857598  96.3042031
   2.2392390 133.4900739  97.8223071   0.9670012 134.0334997  96.1429988
   0.1988150 134.3453568  96.8420668   0.9897329 134.7899374  95.3649767
   0.5800012 132.6884997  95.5449988   0.2984663 132.0515498  96.3796765
  -0.3321284 132.8717920  94.9824257   1.6020012 131.9364997  94.6129988
   2.3206342 131.4258861  95.2513923   1.0813724 131.1591015  94.0591037
   2.3750012 132.8154997  93.6239988   1.6879075 133.3511100  92.9721361
   2.9311098 133.5762265  94.1684424   3.3700012 131.9964997  92.7609988
   4.0899621 131.5457181  93.4422867   2.8268834 131.1753329  92.3016228
   4.1490012 132.7914997  91.6229988   4.7785587 133.5277358  92.1089963
   4.8214669 132.0841630  91.1394590   3.2870012 133.4254997  90.5749988
   2.5287334 134.1311099  90.8794626   3.4040012 133.1814997  89.2539988
   2.7066735 133.7538348  88.6592075   4.2970012 132.2914997  88.4559988
   4.7477142 131.5401342  89.1021633   3.7759932 131.7478379  87.6758298
   5.4290012 133.1294997  87.8279988   6.0545359 133.6018834  88.5844807
   6.0934841 132.5099707  87.2287448   4.8050012 134.2054997  86.9369988
   4.1892385 133.7408430  86.1669094   4.1397975 134.8406010  87.5154920
   5.8800012 135.0664997  86.2709988   5.5452775 136.1014286  86.2762108
   6.7846446 135.0362728  86.8758059   6.2060012 134.6434997  84.8769988
   6.9034144 133.8102329  84.9392179   5.3039527 134.2422394  84.4232105
   6.8190012 135.6994997  83.9709988   6.0249045 136.4058810  83.7357991
   7.5387295 136.2456916  84.5780403   7.5060012 135.2804997  82.6579988
   8.1241638 136.1012312  82.3027669   8.1952510 134.4752792  82.9026775
   6.5960012 134.8184997  81.5449988   7.1738380 134.4629877  80.6971870
   5.9536029 135.6167101  81.1887325   5.9577239 134.0038308  81.8752377
  28.2420012   8.3294997  81.7309988  29.2646878   8.4413940  82.0774388
  27.9270147   9.2821564  81.3150437  28.2443960   7.6027353  80.9232737
  27.3240012   7.8914997  82.8559988  27.4021941   8.6353680  83.6470416
  27.7348077   6.9707283  83.2612543  25.8800012   7.6994997  82.5009988
  25.8012974   7.1296880  81.5752291  25.4331328   8.6702967  82.2959799
  25.0190012   6.9744997  83.6429988  25.5522393   6.0692806  83.9249307
  24.0799041   6.6457551  83.2005852  24.7170012   7.8124997  84.9519988
  24.2051332   8.7417770  84.7153393  25.6460449   8.0926055  85.4457430
  23.8400012   6.9914997  85.9379988  24.2113901   5.9689522  85.9738310
  22.8266886   6.9335006  85.5463218  23.8020012   7.5454997  87.3079988
  23.2798367   8.4999580  87.2744790  24.8235218   7.7681121  87.6132353
  23.1390012   6.6384997  88.3689988  23.3713606   5.5942371  88.1641190
  22.0556347   6.7258253  88.3109001  23.6090012   6.9974997  89.8209988
  23.5152493   8.0706399  89.9730564  24.6690347   6.7680490  89.9222819
  22.8200012   6.2544997  90.9199988  22.7219150   5.2153647  90.6136059
  21.8096827   6.6620024  90.9450416  23.4490012   6.3344997  92.3699988
  23.2132285   7.3405498  92.7103154  24.5253701   6.3146824  92.2082422
  23.0760012   5.3184997  93.5229988  23.3995880   4.3079326  93.2857967
  21.9979667   5.2672285  93.6640059  23.7070012   5.7754997  94.8079988
  23.2401950   5.2323312  95.6279452  23.4830156   6.8257898  94.9723005
  25.2430012   5.5634997  94.9059988  25.6224404   5.9106601  95.8614309
  25.7433650   6.1473506  94.1379844  25.6290012   4.0484997  94.7149988
  25.2312922   3.6708813  93.7815787  25.2324197   3.4525275  95.5283925
  27.0340012   3.6664997  95.2479988  27.9250012   3.0974997  94.6599988
  27.1250012   4.0854997  96.5609988  28.3450012   3.8754997  97.2649988
  29.1321027   3.7749781  96.5329957  28.2842085   2.9662768  97.8453522
  28.6120012   5.0934997  98.1729988  29.5918885   5.0548092  98.6193370
  27.4890012   5.1354997  99.3229988  27.7348890   5.9422818 100.0000828
  27.5692930   4.1972465  99.8576194  26.1660012   5.3024997  98.8049988
  25.0240012   5.3534997  99.9509988  25.6340012   6.1494997 101.2479988
  25.6400012   7.5664997 101.3119988  24.9406055   7.9921964 102.0196830
  25.4121211   8.0118557 100.3478796  27.0800012   8.0034997 101.6279988
  27.2077032   9.0778478 101.5865592  27.8078638   7.5418721 100.9764675
  27.4660012   7.5954997 103.0399988  26.4300012   8.0724997 104.0089988
  26.2561236   9.1259547 103.8377299  26.8144374   7.9249538 105.0072668
  25.5313069   7.4889090 103.8767580  27.6660012   6.1224997 103.2019988
  28.3253572   5.7781128 102.4201028  26.7105483   5.6312643 103.1554406
  28.1218556   5.9627409 104.1684204  28.7240012   8.2664997 103.2499988
  29.4274621   7.9475361 102.4953552  29.1027159   8.0120469 104.2285073
  28.5778839   9.3351279 103.1858238  23.9200012   6.1784997  99.3429988
  24.6490012   3.9674997 100.3939988  28.5460012   6.2684997  97.3509988
  29.6040012   6.6644997  96.6269988  30.7250012   6.2564997  96.8199988
  29.3030012   7.7154997  95.5619988  30.1995580   8.2899771  95.3529185
  29.0164339   7.2575635  94.6185579  28.1730012   8.5954997  96.1149988
  27.3027657   7.9955049  96.3573983  28.4660183   9.0857940  97.0379210
  27.7880012   9.6314997  95.0829988  27.5142413  10.5530687  95.5903647
  28.6710769   9.8616340  94.4919993  26.6990012   9.2134997  94.1639988
  26.6844399   8.1258519  94.2029396  25.7627052   9.5459821  94.6055952
  26.7330012   9.6504997  92.6669988  25.8287099   9.3804886  92.1254710
  26.8396619  10.7282603  92.5600575  27.9700012   8.9544997  91.9949988
  28.3446850   9.6320550  91.2293410  28.7579555   8.8652577  92.7376170
  27.7200012   7.5574997  91.3659988  26.8596029   7.1460004  91.8807444
  27.4027850   7.7468528  90.3413694  28.8530012   6.5804997  91.3429988
  29.8642094   6.9560989  91.3870126  28.7000012   5.2694997  91.2849988
  29.5760681   4.6381774  91.2456438  27.4140012   4.5234997  91.2709988
  27.6305013   3.4577767  91.3218247  26.8071215   4.7517353  92.1400710
  26.5980012   4.7884997  89.9939988  25.5511258   4.5498281  90.1778272
  26.6317616   5.8534010  89.7719530  27.0900012   4.0114997  88.7869988
  28.1672871   4.1491996  88.6942590  26.9328465   2.9493721  88.9534062
  26.4310012   4.4174997  87.5109988  25.3736522   4.5413167  87.7342196
  26.8062924   5.4073311  87.2570792  26.6080012   3.4744997  86.2899988
  26.1770083   2.5099144  86.5515525  26.0035256   3.8577468  85.4724684
  28.0470012   3.2344997  85.8119988  28.6590817   4.1295432  85.9075883
  28.5424427   2.4656544  86.4021247  28.0500012   2.8004997  84.3549988
  27.5011453   1.8642844  84.2903983  27.4440714   3.5356004  83.8298426
  29.4140012   2.6544997  83.6139988  29.2595661   2.4259420  82.5637701
  30.0205184   1.8591846  84.0339414  29.9898475   3.5738831  83.6712368
 101.1910012 142.0284997  84.4439988 101.6912175 141.0682232  84.5219844
 100.8234895 142.1289698  83.4268307 100.3285528 142.0064243  85.1045345
 102.1230012 143.1644997  84.8039988 102.9805177 143.0925690  84.1371447
 102.4948311 142.9538052  85.8030805 101.5530012 144.5904997  84.7419988
 100.5009464 144.5547028  85.0245379 101.5749395 144.9130785  83.7029450
 102.2700012 145.6454997  85.5939988 101.8223900 146.6215408  85.4201082
 103.3127205 145.7341105  85.2930163 102.1960012 145.3204997  87.1579988
 102.8262885 144.4596895  87.3661254 101.1765706 145.0156262  87.3886036
 102.6170012 146.5114997  88.1209988 102.2633781 147.4500092  87.6979532
 103.7025051 146.5793227  88.1466564 102.0840012 146.3684997  89.5559988
 102.5909660 145.5480020  90.0605186 101.0270856 146.1063342  89.5352938
 102.2730012 147.6734997  90.3809988 101.7758257 147.5435594  91.3414065
 101.7454852 148.4781451  89.8721210 103.7540012 148.1014997  90.6219988
 103.8023758 149.0815034  91.0918856 104.2904569 148.1906208  89.6781504
 104.4840012 147.0474997  91.5369988 105.4400990 147.4448240  91.8706293
 104.7100083 146.1469160  90.9666490 103.5710012 146.6524997  92.8159988
 102.8424812 145.9226341  92.4694501 103.0022703 147.5372206  93.0969650
 104.2450012 146.1054997  94.0129988 104.9942738 146.7749570  94.4284942
 104.7551408 145.1650768  93.8129180 103.1030012 145.8444997  95.0709988
 103.4498100 145.0921697  95.7773806 102.2298451 145.4224780  94.5813354
 102.6750012 147.0944997  95.8769988 102.1836580 147.8215676  95.2387989
 103.5517828 147.5832607  96.2934824 101.7300012 146.7144997  97.0329988
 102.1872912 145.9639781  97.6651730 100.7979422 146.3212376  96.6448235
 100.4450012 145.9834997  96.5169988  99.5940012 146.4434997  95.7949988
 100.4670012 144.8344997  96.9869988  99.3600012 143.9644997  96.6059988
  99.2466545 143.9720451  95.5324264  98.4472260 144.3221191  97.0600272
  99.7050012 142.5264997  97.1029988  99.0484666 141.7911098  96.6681908
  99.6790012 142.4094997  98.6299988  99.6518435 141.3599476  98.8898140
  98.7566723 142.8721762  98.9583659 100.8320012 143.0644997  99.2589988
 102.2330012 142.4274997  99.7359988 102.5060012 143.0774997 101.1919988
 101.4700012 143.2034997 102.1339988 101.7680914 142.8607825 103.1162799
 100.6281461 142.5858718 101.8346447 100.9050012 144.6694997 102.1949988
  99.8892414 144.7363345 102.5637999 100.9282718 145.0253308 101.1750872
 101.7340012 145.7094997 103.0339988 101.2890012 145.5404997 104.4709988
 100.2091516 145.5858903 104.5056199 101.7058031 146.3534913 105.0466903
 101.6651640 144.6005668 104.8461583 103.1720012 145.4654997 102.8569988
 103.3800221 145.3941654 101.8004228 103.4406775 144.5609071 103.3726492
 103.6974227 146.3083876 103.2821682 101.3060012 147.1034997 102.6419988
 101.4657676 147.2398690 101.5827726 101.8936748 147.8228803 103.1922543
 100.2595021 147.2382718 102.8746170 102.1350012 140.9684997  99.8039988
 103.3150012 142.9284997  98.8569988 101.0610012 142.2854997  96.6249988
 101.2720012 141.5144997  95.6039988 100.4770012 141.1054997  94.8249988
 102.7540012 141.2614997  95.4329988 103.2170255 141.5999168  96.3542128
 102.9016746 140.1848120  95.4039612 103.3920012 141.9624997  94.1529988
 103.0837387 143.0020754  94.1351794 104.4731848 141.9716630  94.2478196
 103.0000012 141.3124997  92.8609988 102.6758925 140.2971947  93.0749227
 102.1244125 141.8379032  92.4876885 104.0550012 141.3024997  91.7769988
 104.2956902 142.3393996  91.5498133 104.9647170 140.8595050  92.1749620
 103.6870012 140.5854997  90.4519988 104.5950771 140.2937359  89.9283835
 103.1623313 139.6613020  90.6864367 102.8090012 141.4234997  89.5179988
 103.1834172 142.4394330  89.6337275 103.0744766 141.1117023  88.5117070
 101.2620012 141.4294997  89.6439988 100.9481272 142.3002105  90.2078479
 100.8281019 141.5346745  88.6505121 100.7410012 140.1684997  90.2629988
 100.7660762 140.0806641  91.3387358 100.2260012 139.1304997  89.5739988
  99.9438535 138.2939792  90.1970848  99.9770012 138.9264997  88.1659988
 100.7106092 139.5548932  87.6638417 100.2464248 137.9018399  87.9354250
  98.5910012 139.2364997  87.5729988  97.8787847 138.4913455  87.9254163
  98.2525483 140.1913640  87.9706704  98.5600012 139.2894997  86.0329988
  99.5453863 139.5284905  85.6329907  98.2850692 138.3278267  85.6086150
  97.5700012 140.3414997  85.5809988  96.5533098 140.0232903  85.8006040
  97.7205374 141.2740014  86.1221682  97.7280012 140.6054997  84.0419988
  98.7488450 140.9357855  83.8592991  97.6225153 139.6616580  83.5141155
  96.7440012 141.6904997  83.4199988  95.7141761 141.5007468  83.7172143
  96.9846821 142.6872976  83.7851023  96.8140012 141.7034997  81.9009988
  96.0748544 141.0152558  81.4986340  96.5072216 142.6935074  81.5707200
  98.1850012 141.3874997  81.2989988  98.1681136 141.5040646  80.2195561
  98.4963574 140.3702710  81.5112349  98.9471144 142.0545754  81.6918528
 138.5650012  20.9744997  80.8249988 138.0268902  20.6529214  79.9387409
 137.8377686  21.3667716  81.5300133 139.0171923  20.0946444  81.2744316
 139.6210012  22.0194997  80.4829988 139.1174708  22.8556553  80.0008122
 140.2781039  21.5859249  79.7339708 140.4230012  22.5284997  81.6379988
 139.9165077  22.3357926  82.5836506 140.5379668  23.6086292  81.5726226
 141.8350012  21.8844997  81.6729988 142.2230840  21.9447039  80.6585940
 141.6965506  20.8245312  81.8803737 142.9320012  22.4834997  82.6779988
 143.0808957  23.5536605  82.5590067 143.9091990  22.0223721  82.5445423
 142.4250012  22.2024997  84.1219988 142.9700373  21.3499005  84.5230316
 141.3810355  21.9003361  84.0729095 142.5680012  23.4314997  85.1169988
 142.2826965  23.0562409  86.0980961 141.7954950  24.1422549  84.8266693
 143.8790012  24.1434997  85.2229988 144.1965417  24.4876005  84.2395286
 144.6499673  23.4572018  85.5683833 143.8030012  25.3574997  86.1909988
 142.8960304  25.9124538  85.9608446 144.6333384  26.0233601  85.9591647
 143.8270012  25.0194997  87.6939988 144.6745354  24.3504685  87.8258393
 142.9346567  24.4213341  87.8766140 143.8920012  26.1784997  88.7419988
 142.9541246  26.7294189  88.7215909 144.6662832  26.8893751  88.4586765
 144.1440012  25.7004997  90.1889988 144.5452211  26.5259113  90.7720401
 144.9175234  24.9349282  90.1737117 142.8690012  25.1114997  90.8919988
 142.6208402  24.1664507  90.4118418 142.0208884  25.7695706  90.7249018
 143.0140012  24.8524997  92.4039988 143.4836898  25.7007074  92.8911139
 143.6676512  23.9984559  92.5603407 141.6600012  24.5644997  93.0819988
 141.1573246  23.7414826  92.5900637 141.0216623  25.4388794  93.0366929
 141.8530012  23.8144997  94.4439988 142.9380012  23.5204997  94.9739988
 140.6700012  23.4534997  94.8899988 140.6410012  22.9924997  96.2269988
 141.5516831  22.4154498  96.2829791 139.7968596  22.3359025  96.3802872
 140.6590012  24.1094997  97.2639988 141.6275265  24.5708708  97.1640518
 140.4820012  23.5804997  98.6789988 141.2338946  22.8153906  98.8170762
 139.5059318  23.1115935  98.6782443 140.5640012  24.5464997  99.7089988
 139.6020012  24.3204997 100.9629988 139.8900012  22.8704997 101.4539988
 138.8500012  22.1494997 102.1329988 138.0034329  21.8989822 101.5070976
 138.4569416  22.7225022 102.9678456 139.4870012  20.8394997 102.7869988
 138.7577217  20.3907856 103.4496119 140.3585280  21.1130884 103.3640318
 139.9280012  19.7494997 101.8719988 140.9610012  20.4054997 100.9599988
 140.5329373  21.3085589 100.5469862 141.1889746  19.7135543 100.1629168
 141.8546715  20.6076585 101.5311398 140.5580012  18.6214997 102.5899988
 139.9102114  18.3270887 103.4014201 141.5235048  18.9295667 102.9495366
 140.6630773  17.8087350 101.8859607 138.8130012  19.1904997 101.0459988
 138.0419452  18.8108297 101.6997612 139.1941371  18.3884691 100.4318877
 138.4073686  19.9676685 100.4144089 140.0540012  25.2694997 102.0309988
 138.1870012  24.5084997 100.6359988 139.6830012  25.0774997  96.9699988
 139.9850012  26.3534997  97.1059988 140.8740012  26.8514997  97.7589988
 138.8600012  27.1014997  96.3749988 138.1901863  27.4663475  97.1468712
 139.2901717  27.9861011  95.9120295 138.1260012  26.2364997  95.3389988
 138.8461786  25.7977008  94.6571916 137.6299634  25.4041566  95.8280638
 137.0890012  27.0644997  94.5219988 136.4326102  27.6062221  95.1982693
 137.6188963  27.8184644  93.9450991 136.2840012  26.2314997  93.5879988
 135.7165628  25.5222791  94.1877703 135.5518642  26.8620059  93.0893613
 137.0830012  25.4324997  92.5059988 137.3826982  24.4803058  92.9389069
 136.3914043  25.1945291  91.7001174 138.2850012  26.1134997  91.9209988
 138.9263669  26.4635520  92.7283490 138.8758108  25.4072539  91.3443889
 137.9130012  27.3054997  91.0109988 137.2535297  26.9613825  90.2227978
 137.3421433  28.0253099  91.5960975 139.1240012  27.9994997  90.4419988
 139.5598653  28.8362902  90.9667445 139.7360012  27.6064997  89.2589988
 140.6240711  28.1175265  88.9157884 139.2850012  26.4954997  88.3609988
 138.4510486  26.0516403  88.9020468 138.8596975  26.9691200  87.4832279
 140.2430012  25.3504997  87.9179988 140.9684300  25.7572183  87.2144094
 140.8115868  25.0320887  88.7896546 139.5440012  24.1164997  87.2859988
 139.1193027  24.4377473  86.3349266 140.3133961  23.3883447  87.0444914
 138.4340012  23.4344997  88.1389988 138.5731680  23.7206859  89.1791310
 137.4640846  23.8295700  87.8419024 138.4170012  21.9364997  88.0169988
 139.4368287  21.6247364  87.7994085 138.1861930  21.5322332  88.9987937
 137.4860012  21.3024997  86.9489988 137.3071154  20.2491775  87.1573144
 136.5080781  21.7805168  86.9493806 138.0890012  21.4264997  85.5389988
 138.5968701  22.3863966  85.4881860 138.8733013  20.6740267  85.4946045
 137.1660012  21.2614997  84.2939988 137.7472202  21.2873535  83.3771645
 136.4247310  22.0510097  84.2312824 136.6365201  20.3133811  84.3233596
 110.1350012 134.7724997  85.3809988 109.6628122 133.7962906  85.4308222
 111.0777915 134.7122355  85.9170069 110.3620838 134.9768842  84.3382752
 109.2350012 135.8534997  85.9679988 109.0120851 135.5549269  86.9909189
 108.2963108 135.8004189  85.4231531 109.7650012 137.2934997  85.9669988
 109.6226814 137.7758623  85.0000446 110.8358809 137.3143972  86.1592249
 109.0710012 138.1044997  87.0349988 108.0035735 137.9422228  86.9026565
 109.2465680 139.1550182  86.8085190 109.4560012 137.8144997  88.6079988
 110.5095005 137.5613176  88.6952393 108.9027403 136.9452338  88.9596297
 109.1410012 139.0634997  89.5629988 108.1249043 139.4229115  89.4107252
 109.7970535 139.9014972  89.3373166 109.3200012 138.6644997  91.0209988
 110.3834203 138.5444306  91.2197274 108.8700239 137.6839191  91.1700363
 108.7090012 139.6794997  92.0579988 107.6459094 139.7518144  91.8320399
 109.1355138 140.6541642  91.8282162 108.8910012 139.3864997  93.5639988
 108.7130170 140.2695548  94.1739793 109.9033645 139.0571951  93.7947712
 107.9300012 138.3214997  93.9479988 107.9233429 137.5997650  93.1341476
 106.9398530 138.7763336  93.9607139 108.1840012 137.5724997  95.3439988
 107.9948882 138.2666254  96.1600667 109.2317007 137.2882776  95.4256774
 107.3370012 136.3764997  95.5439988 107.7367932 135.5005705  95.0388914
 106.3344105 136.5249830  95.1472183 107.2340012 136.1164997  97.0439988
 106.2588783 135.6973607  97.2863003 107.3224387 137.0336750  97.6195353
 108.2960012 135.1334997  97.5109988 109.2651146 135.4286383  97.1223378
 108.0725178 134.1567958  97.0900514 108.3850012 134.9974997  99.0539988
 107.4194138 134.7356533  99.4676635 108.7115274 135.9309033  99.4969516
 109.8160012 134.4854997  99.3329988 110.0720012 133.2894997  99.4699988
 110.6870012 135.5184997  99.6809988 111.9510012 134.9994997 100.0369988
 112.1422492 134.1965406  99.3411949 111.9715652 134.6071444 101.0433916
 113.0060012 136.1314997  99.8579988 113.9061256 135.9303559 100.4149648
 112.3400012 137.5084997 100.3709988 113.1239429 138.1633951 100.7264539
 111.6944119 137.2566886 101.2030989 111.5950012 138.1394997  99.3399988
 110.4660012 139.1854997  99.5049988 110.6420012 139.5564997 101.0219988
 109.9190012 140.6674997 101.5629988 109.8629647 141.4947115 100.8674634
 110.4315075 141.0407995 102.4449180 108.4780012 140.2494997 102.0659988
 107.9358058 139.5990194 101.3913518 107.8967972 141.1461707 102.2258738
 108.5060012 139.5464997 103.3669988 107.1060012 139.0574997 103.7069988
 106.4181346 139.8863987 103.6116051 107.1142442 138.7074779 104.7285255
 106.8493675 138.2426961 103.0467326 109.4980012 138.4244997 103.4429988
 110.4538522 138.7881941 103.0983409 109.1483805 137.6053607 102.8403822
 109.5671687 138.1240362 104.4784863 108.8870012 140.7214997 104.3189988
 109.8299155 141.1430299 104.0038688 108.9772748 140.3461000 105.3272526
 108.1172592 141.4788903 104.2830590 110.6230012 140.3694997  98.5879988
 109.1760012 138.5264997  99.2609988 113.3960012 136.1494997  98.4179988
 114.4340012 136.9114997  98.2269988 115.0910012 137.4024997  99.1249988
 114.7930012 137.1144997  96.7609988 115.8159524 137.4571154  96.6437886
 114.7125280 136.2088659  96.1649630 113.7890012 138.1584997  96.3069988
 113.7479449 138.9331379  97.0648319 114.1695423 138.6362664  95.4098029
 112.3620012 137.6244997  96.0519988 111.9208714 137.4967110  97.0372544
 111.8360067 138.4562969  95.5899293 112.1370012 136.4094997  95.2329988
 112.8756036 135.6399829  95.4498313 111.1644168 135.9526370  95.3990056
 112.2630012 136.8054997  93.6979988 111.4248163 137.4538720  93.4510970
 113.1581145 137.4164020  93.5982415 112.3360012 135.6594997  92.6819988
 113.1249976 134.9521667  92.9327292 111.4149204 135.0856933  92.6302831
 112.6140012 136.2574997  91.3119988 112.4562467 135.5099827  90.5432908
 111.8983050 137.0548070  91.1159730 113.9970012 136.8264997  91.2359988
 114.7875652 136.1317605  91.4766228 114.3580012 138.0634997  90.8999988
 115.3882564 138.3837342  90.8397166 113.3630012 139.1364997  90.5659988
 112.3659755 138.8075499  90.8540141 113.5459313 140.0590440  91.1055630
 113.3580012 139.4154997  89.0839988 113.2595193 138.5111654  88.4846776
 112.5337373 140.0636643  88.7925700 114.6870012 140.1084997  88.7509988
 114.9042326 140.9211392  89.4442048 115.5325789 139.4284259  88.8057887
 114.5760012 140.6784997  87.3159988 113.7949476 141.4351182  87.3410736
 115.5045557 141.2066036  87.1062904 114.2970012 139.6714997  86.1819988
 113.4398540 139.0655025  86.4694985 113.9893793 140.2188729  85.2952202
 115.5050012 138.6784997  85.8229988 116.2681038 139.1484403  85.2051694
 116.0192477 138.3077176  86.7078180 114.9280012 137.4804997  85.0579988
 114.1427496 137.8504420  84.4034473 115.7237694 137.1369754  84.4006884
 114.4110012 136.3054997  85.8469988 114.1149474 135.4971198  85.1852261
 113.5457674 136.5684992  86.4461172 115.1729524 135.9206929  86.5189326
 116.6390012 136.5054997  84.7599988 117.1973403 137.4161315  84.5665148
 115.7061076 136.5650294  84.2068660 117.2098901 135.6751867  84.3534545
 116.3830012 136.3164997  86.2629988 115.8301731 137.1703291  86.6510187
 117.3321632 136.3016051  86.7918499 115.5920012 135.0244997  86.5559988
 116.0808245 134.1605189  86.1059788 114.6039440 135.0810188  86.1035392
 115.4250012 134.7844997  88.0559988 114.6981488 133.9903153  88.2115840
 115.0085377 135.6715500  88.5307680 116.7770012 134.3844997  88.7839988
 117.2535618 135.2543986  89.2286772 117.4872354 133.9818299  88.0637284
 116.5330012 133.3844997  89.8359988 117.4687267 132.9555069  90.1898349
 115.9425228 132.5539934  89.4549848 115.8080012 134.0194997  90.9929988
 114.7802176 134.2530385  90.7211705 116.2731776 134.9658569  91.2654852
 115.8100012 133.1054997  92.1839988 116.8360488 132.8083464  92.3970178
 115.2759949 132.1922130  91.9282084 115.2030012 133.7034997  93.4159988
 114.1317478 133.7803966  93.2426666 115.5719328 134.7254254  93.4943202
 115.4590012 132.9524997  94.7779988 114.8958853 132.0218455  94.7870744
 115.0730962 133.5508111  95.6029410 116.9590012 132.6654997  95.0169988
 117.5098178 133.6000262  94.9345228 117.3348285 132.0221390  94.2232930
 117.2840012 132.0284997  96.3859988 116.7663933 131.0723302  96.3795919
 116.7634264 132.6510656  97.1113150 118.7310012 131.8414997  96.8509988
 118.7069645 131.6121592  97.9149899 119.2580606 132.7866624  96.7553446
 119.5540012 130.7254997  96.1369988 119.7625385 130.9880434  95.1050453
 118.9867839 129.7986951  96.1172549 120.8820012 130.4714997  96.8729988
 120.6996603 130.2400065  97.9147299 121.5177649 131.3471663  96.8174878
 121.6990012 131.7624997  97.0629988 122.3570012 132.2054997  96.1339988
 121.6380012 132.2684997  98.3149988 122.1640012 133.5624997  98.6859988
 122.5261762 133.9879815  97.7622800 122.9889289 133.4634032  99.3765537
 121.0130012 134.4754997  99.2999988 121.4830573 135.3516959  99.7149944
 120.1030012 133.7544997 100.4259988 119.7690834 134.4723983 101.1628308
 120.6984015 132.9987405 100.9229007 118.9480012 133.1354997  99.7479988
 117.6470012 132.8314997 100.5439988 117.1950012 134.2744997 100.9469988
 117.1910012 134.6114997 102.2889988 118.0238209 134.2040869 102.8472238
 116.2888258 134.2545220 102.7773057 117.1410012 136.0744997 102.4089988
 117.7946119 136.3377046 101.5869494 117.5807743 136.4296721 103.3297751
 115.8260012 136.9234997 102.2009988 115.2650012 136.6614997 100.9059988
 116.0408090 136.7832810 100.1626109 114.4784340 137.3806045 100.7319289
 114.8522570 135.6638536 100.8981565 114.8190012 136.4204997 103.3479988
 115.3388704 136.4408458 104.2935335 114.4796055 135.4289643 103.1070877
 113.9845979 137.1065251 103.3689083 116.2100012 138.3434997 102.5299988
 116.5818142 138.3857248 103.5429421 115.3405072 138.9767163 102.4369022
 116.9755851 138.6780452 101.8448743 116.6980012 132.2534997  99.5839988
 118.0860012 131.9304997 101.6739988 120.2000012 134.8994997  98.1599988
 119.3340012 135.8434997  98.5039988 119.1780012 136.3804997  99.5939988
 118.4290012 136.1534997  97.2119988 118.3010503 135.2015687  96.7070146
 117.4405307 136.4391942  97.5630141 119.0010012 137.1974997  96.3029988
 118.1442669 137.6095448  95.7811882 119.3592372 137.9840055  96.9595873
 120.1240012 136.8254997  95.2449988 120.3033578 137.6560547  94.5670138
 121.0643446 136.6465328  95.7605471 119.7550012 135.5654997  94.4479988
 119.7146854 134.7813396  95.2017717 118.7308983 135.7233860  94.1186246
 120.5780012 135.0564997  93.2699988 120.3934941 135.6472946  92.3751135
 121.6411743 135.1518653  93.4820110 120.2660012 133.5824997  92.9799988
 120.4713316 132.9932726  93.8723842 119.2080135 133.4576718  92.7669307
 121.0510012 133.0344997  91.8359988 120.9824567 133.6918548  90.9770657
 122.1062347 132.9856511  92.1014080 120.5770012 131.6514997  91.4979988
 120.5482552 131.0149571  92.3695154 120.1850012 131.1054997  90.3219988
 119.8647517 130.0735050  90.3158969 120.1310012 131.7694997  88.9809988
 119.7185249 132.7726243  89.0749417 121.1031769 131.8835068  88.5145680
 119.1840012 130.9314997  88.0259988 119.4930758 129.8869317  88.0185334
 118.1702513 130.9449449  88.4217126 119.1720012 131.4754997  86.5809988
 118.6676971 132.4418066  86.5750599 120.1930920 131.6638994  86.2610252
 118.4940012 130.5524997  85.5879988 118.9524164 129.5708057  85.6843181
 117.4545167 130.4337131  85.8887426 118.5490012 131.0264997  84.0869988
 119.5867120 131.1870417  83.8006903 118.1802033 130.2382569  83.4363941
 117.8170012 132.2654997  83.8359988 116.8360480 132.2793003  84.3076166
 118.3419542 133.1444859  84.2056492 117.6250012 132.4164997  82.2689988
 116.9991389 131.6257023  81.8629803 117.1019530 133.3463455  82.0565835
 118.9410012 132.4294997  81.5509988 118.8001624 132.6213486  80.4915520
 119.4626869 131.4828980  81.6433582 119.5925055 133.2049737  81.9438385
 139.4090012 110.2444997  83.1009988 139.7906096 109.3923052  83.6546852
 138.5195604 109.9216900  82.5676329 139.1045184 110.9977906  83.8224244
 140.4770012 110.8064997  82.1239988 140.7593861 109.9703768  81.4865348
 141.3431278 111.0244605  82.7429750 140.1300012 112.0454997  81.2259988
 139.4185076 111.7703620  80.4475354 141.0229310 112.3915454  80.7091819
 139.5530012 113.2234997  82.0529988 138.6321491 112.9109499  82.5404350
 139.2821338 114.0511046  81.3992351 140.5260012 113.7194997  83.1199988
 141.5144099 113.9485104  82.7299024 140.6733286 112.9952244  83.9194266
 139.9230012 114.9784997  83.6939988 138.8650148 114.8663455  83.9240060
 139.9984567 115.8246025  83.0142977 140.6860012 115.2934997  84.9749988
 140.3416358 116.2663447  85.3210553 141.7322637 115.4210578  84.7006020
 140.5790012 114.2354997  86.1769988 141.5187971 113.6917261  86.2638608
 139.8192548 113.4932181  85.9393278 140.2410012 114.8944997  87.5409988
 139.3782402 115.5548442  87.4850566 141.0603091 115.4978425  87.9299576
 139.9350012 113.7174997  88.5509988 140.7770801 113.0300380  88.5909794
 139.0811540 113.1345611  88.2066780 139.6480012 114.2484997  89.9069988
 140.2124909 115.1597618  90.0927234 139.9439786 113.5459799  90.6841675
 138.0900012 114.5804997  90.0609988 137.5448841 114.1890160  89.2055416
 137.9493270 115.6596476  90.0430985 137.5090012 114.0434997  91.3319988
 137.7866604 112.9988649  91.4619817 136.4229689 114.0709993  91.3248130
 138.0170012 114.8174997  92.5389988 139.0955724 114.9339009  92.5170949
 137.7762651 114.2894996  93.4578862 137.3760012 116.1714997  92.5849988
 136.2972679 116.0806632  92.5738509 137.6839107 116.7640414  91.7316788
 137.3480012 116.9904997  93.9309988 137.6980012 118.1314997  94.1139988
 136.8570012 116.0954997  94.9169988 136.8350012 116.5784997  96.2459988
 135.9068160 116.2507939  96.6893308 136.8635102 117.6584882  96.2439824
 138.1060012 115.9604997  97.0699988 138.1800501 114.9024496  96.8804184
 137.9590012 116.2114997  98.5779988 136.9489575 115.9941513  98.8979558
 138.1676079 117.2559795  98.7732682 138.8700012 115.3994997  99.2529988
 140.0180012 116.0354997  99.9939988 140.8360012 114.7634997 100.4629988
 141.5490012 114.6874997 101.6979988 142.1817679 115.5560369 101.8262104
 142.2109037 113.8271390 101.6597680 140.6690012 114.4624997 102.9289988
 139.9102982 115.2346397 102.9494554 141.2254555 114.4977933 103.8544662
 139.9200012 113.1494997 102.9449988 139.3830012 112.8174997 104.3469988
 140.1945204 112.9025700 105.0565997 139.0180596 111.8012848 104.3320000
 138.5716021 113.4906001 104.5799890 138.7930012 113.2624997 101.9459988
 139.1966407 113.6266724 101.0137073 138.0432399 113.9272597 102.3362835
 138.3811972 112.2729094 101.8102578 140.7890012 111.9884997 102.4809988
 141.1455792 112.1884943 101.4815308 140.2008800 111.0830918 102.4810639
 141.6275418 111.8746595 103.1528060 140.7920012 116.8674997  99.0369988
 139.4440012 116.8324997 101.0879988 139.2920012 116.5914997  96.5919988
 140.0430012 115.9544997  95.8509988 139.9380012 114.7734997  95.5779988
 141.1190012 116.8804997  95.2889988 140.7930238 117.8825238  95.5483043
 142.0234093 116.7033898  95.8657006 141.3880012 116.7334997  93.7709988
 142.4280734 116.4399624  93.6807407 140.8054560 115.8809759  93.4365179
 141.1300012 117.9104997  92.8749988 140.0558490 118.0592283  92.7992954
 141.5240587 118.7937202  93.3716930 141.7820012 117.8154997  91.3979988
 142.8656826 117.7640575  91.4857159 141.4742005 116.9025194  90.8940863
 141.4150012 119.0524997  90.4829988 141.9553367 119.9191708  90.8582583
 141.8177602 118.8500448  89.4924544 139.8980012 119.4074997  90.3429988
 139.4429688 119.4470764  91.3314725 139.7760647 120.3962277  89.9095632
 139.1430012 118.3994997  89.4799988 139.5767730 118.3791043  88.4870204
 139.2859407 117.4037691  89.8976528 137.7020012 118.6824997  89.4229988
 137.0947153 118.4223174  90.2768507 137.0700012 119.2674997  88.3669988
 136.0046033 119.4414971  88.3194354 137.8450012 119.7494997  87.1159988
 137.3273604 120.6235258  86.7244029 138.8406686 120.0825099  87.3869814
 137.9440012 118.7054997  85.9919988 138.6986129 117.9819873  86.2982600
 136.9958738 118.1711856  85.9873042 138.2430012 119.1814997  84.6169988
 138.3777726 118.3063789  83.9813044 137.3682497 119.7015151  84.2363443
 139.5140012 120.1214997  84.4879988 139.2632316 120.9837842  85.1017781
 140.3010505 119.5887370  85.0188492 140.0670012 120.6024997  83.0759988
 139.2364829 120.9970364  82.4936155 140.7490685 121.4355742  83.2222721
 140.7440012 119.5114997  82.2489988 141.3961139 119.9798994  81.5139929
 141.3931351 118.9304299  82.9015453 139.7660012 118.5134997  81.4929988
 139.1959250 117.9480552  82.2259386 139.0396231 119.1213703  80.9580397
 140.3960012 117.5874997  80.5439988 139.6453679 117.0089584  80.0139906
 141.0567743 116.8851140  81.0407625 140.9822230 118.1253844  79.8042928
   2.0720012  36.4794997  82.7859988   2.6205601  36.7566394  81.8911772
   1.0201198  36.6814955  82.6056289   2.1822239  35.4071749  82.9223163
   2.5820012  37.2464997  84.0119988   2.4866533  38.3050110  83.7760635
   3.6475155  37.0424497  84.0741015   1.9040012  36.9654997  85.3799988
   0.8268702  37.0488026  85.2358515   2.1827796  37.7806777  86.0447832
   2.2150012  35.6564997  86.0699988   3.1811550  35.7805500  86.5541560
   2.3605260  34.9059441  85.2946312   1.1990012  35.1234997  87.1179988
   1.5711423  34.1802066  87.5095114   0.2739322  34.8924709  86.5924151
   0.8910012  36.0684997  88.2989988   0.5391765  35.4644227  89.1333413
   0.0581657  36.7077591  88.0138506   2.0110012  36.9034997  88.7439988
   2.4549599  37.4030784  87.8848761   2.7911097  36.2703055  89.1643865
   1.5980012  37.9524997  89.7809988   0.7389295  38.5114954  89.4122567
   2.4002336  38.6770402  89.9080738   1.2490012  37.3274997  91.1609988
   0.5008585  36.5610081  90.9704357   0.7466029  38.1064089  91.7332517
   2.3840012  36.7314997  92.0049988   3.0959578  37.5101827  92.2697051
   2.9383130  35.9964928  91.4219617   1.8520012  36.0754997  93.2499988
   1.1468238  35.2897048  92.9877158   1.2980172  36.7877450  93.8590442
   2.9500012  35.4694997  94.0729988   3.6383010  36.2562581  94.3721201
   3.5195525  34.7920360  93.4394973   2.4760012  34.7144997  95.2759988
   2.1085034  33.7401283  94.9585121   1.6326927  35.2229660  95.7348743
   3.5260012  34.4954997  96.3019988   3.0877899  34.3058183  97.2763380
   4.1383736  35.3878607  96.4009117   4.4510012  33.2984997  95.9129988
   4.8738047  33.4508110  94.9280727   3.8887319  32.3722618  95.9106209
   5.1450012  32.8584997  97.1779988   4.8230012  31.9114997  97.8789988
   6.1220012  33.6494997  97.3329988   6.9300012  33.5254997  98.4799988
   7.9509031  33.5857159  98.1341733   6.7516446  32.5396477  98.8843215
   6.6560012  34.6274997  99.5519988   7.5891918  34.7983214 100.0627523
   5.5440012  34.1964997 100.5929988   5.5207408  34.8685689 101.4401014
   5.7567325  33.1963365 100.9493749   4.3120012  34.2224997  99.9089988
   2.9280012  33.9624997 100.6099988   2.9860012  34.8494997 101.9099988
   1.7580012  35.1914997 102.6089988   1.8568208  35.1756986 103.6865766
   0.9685223  34.4876623 102.3617476   1.2150012  36.6454997 102.0899988
   0.4361279  36.8924172 102.8003769   0.7887700  36.6343944 101.0972346
   2.1830012  37.8154997 102.1149988   3.0310012  37.7484997 103.3459988
   2.3841691  37.6342876 104.2050086   3.5788953  38.6757641 103.4240542
   3.7232107  36.9254440 103.2503833   3.0700012  37.8054997 100.8959988
   2.4480371  37.6993815 100.0204340   3.7726405  36.9957735 100.9797335
   3.5912403  38.7514502 100.8679911   1.4990012  39.1394997 101.9729988
   0.9468607  39.1567905 101.0451389   2.2413511  39.9234204 101.9670993
   0.8238395  39.2875472 102.8034647   1.9200012  34.5214997  99.6759988
   2.8530012  32.5094997 101.0469988   6.1790012  35.8744997  98.9319988
   7.0110012  36.5434997  98.0769988   8.0260012  36.1474997  97.6619988
   6.3780012  37.8264997  97.5899988   5.3886311  37.5731530  97.2232355
   6.2203365  38.4864681  98.4394048   7.2680012  38.5354997  96.4679988
   7.5197990  39.5244378  96.8349595   8.2060499  37.9942856  96.3959928
   6.6430012  38.6604997  95.1019988   5.6479616  39.0864838  95.2024368
   7.2238851  39.3789470  94.5288738   6.5790012  37.4184997  94.3569988
   6.0718746  36.6971276  94.9950826   5.9320600  37.5706909  93.4964716
   7.8930012  36.8004997  93.8829988   8.4070830  37.4859345  93.2123275
   8.5519293  36.6621050  94.7380085   7.7090012  35.4644997  93.1919988
   8.6277975  34.8858207  93.2735154   6.9356637  34.8831296  93.6862416
   7.3270012  35.6224997  91.6739988   6.3382575  36.0637688  91.6265904
   8.0100573  36.3534317  91.2432799   7.3970012  34.3634997  90.8609988
   8.3651490  33.8930748  90.7776671   6.3820012  33.7694997  90.2479988
   6.6727334  32.8688614  89.7265244   4.9330012  34.0924997  90.1399988
   4.4572660  33.8991249  91.0999484   4.7647631  35.1415935  89.9237139
   4.2290012  33.2274997  89.0679988   4.2861981  32.1825421  89.3704838
   3.1717185  33.4855931  89.0674928   4.7800012  33.3784997  87.6619988
   4.6896521  34.4244201  87.3687505   5.8438052  33.1580153  87.6765437
   4.0920012  32.5004997  86.6149988   4.1721959  31.4675994  86.9464060
   3.0297537  32.7386485  86.6157067   4.6470012  32.6384997  85.1689988
   4.4654988  33.6188397  84.7324438   5.7167023  32.4685627  85.0824774
   3.8980012  31.6244997  84.3539988   4.0764241  30.6376505  84.7772918
   2.8316141  31.8122978  84.4652843   4.2360012  31.5794997  82.8319988
   3.6230567  30.8114730  82.3668653   3.8945077  32.5239994  82.4141285
   5.7480012  31.3624997  82.4269988   5.8732875  31.4368685  81.3509683
   6.1129797  30.3869564  82.7300616   6.3867627  32.1112317  82.8869173
   9.4980012  21.9414997  83.9389988  10.5538869  22.1160211  83.7571292
   9.0374686  22.8995839  84.1621004   9.0600377  21.5733181  83.0152876
   9.2900012  20.9564997  85.0709988   9.7429301  21.3272349  85.9889387
   9.7824164  20.0141479  84.8466899   7.7620012  20.7214997  85.3099988
   7.6597642  19.8653548  85.9767015   7.3342762  20.4143423  84.3576980
   6.9470012  21.8764997  85.8519988   5.8954800  21.6057362  85.7868810
   7.0780520  22.7362053  85.1966837   7.2590012  22.2864997  87.2959988
   7.0702716  23.3507476  87.4114561   8.3248319  22.1448830  87.4672137
   6.4750012  21.5284997  88.3579988   6.2136219  20.5531251  87.9516217
   5.5352370  22.0517009  88.5213414   7.2010012  21.3394997  89.7219988
   8.1313604  20.8112390  89.5216435   6.5910352  20.6648674  90.3212006
   7.4920012  22.5614997  90.5059988   6.5357257  23.0747160  90.5987206
   8.1066910  23.1796134  89.8542505   8.1450012  22.4714997  91.8699988
   8.7750870  23.3370802  92.0631391   8.7958680  21.6007763  91.9392090
   7.0630012  22.3804997  92.9499988   6.4421344  21.5158019  92.7261210
   6.4168631  23.2528632  92.8555716   7.5900012  22.2924997  94.4039988
   8.3730275  23.0328579  94.5532654   8.0529729  21.3231755  94.5806225
   6.4790012  22.5324997  95.4679988   5.6128692  21.9064802  95.2676639
   6.1280551  23.5616282  95.4189962   7.0240012  22.2554997  96.9189988
   7.6946912  23.0645592  97.2033391   7.6200377  21.3472963  96.9324571
   5.9320012  22.1514997  97.9849988   5.3621434  21.2483454  97.7928543
   5.2571867  22.9886647  97.8272896   6.3840012  22.1594997  99.4449988
   6.9836372  23.0369601  99.6512528   6.9733070  21.2766179  99.6625014
   6.3360012  20.7314997  99.9739988   6.2420012  19.6984997  99.2939988
   6.5020012  20.7704997 101.2899988   6.7360012  19.5004997 101.9509988
   6.4092546  18.7613258 101.2352330   6.1727308  19.3802160 102.8650285
   8.3290012  19.3514997 102.2259988   8.5345255  18.3278391 102.4920305
   8.7510012  20.2754997 103.3599988   9.5358801  19.8330793 103.9583551
   7.8996581  20.4765472 103.9982619   9.2140012  21.4934997 102.7409988
   9.9110012  22.6224997 103.5999988  10.8030012  23.4534997 102.5049988
  10.2240012  24.0904997 101.4189988   9.5756200  24.8859497 101.7625829
   9.5871490  23.3713235 100.9120452  11.1830012  24.5904997 100.3569988
  11.9981274  25.0625600 100.8908314  10.7078944  25.3278167  99.7261152
  11.8110012  23.6204997  99.4429988  10.8760012  23.2534997  98.3579988
   9.9339003  22.9583686  98.7992217  11.3018371  22.4204484  97.8187499
  10.7630413  24.0962791  97.6926568  12.9750012  24.2334997  98.8389988
  13.5796943  24.6656324  99.6215085  12.6531641  24.9787770  98.1337665
  13.5253089  23.4532267  98.3333977  12.2350012  22.3774997 100.2469988
  12.9183787  22.6754088 101.0282332  12.7236877  21.6773648  99.5862063
  11.3612823  21.9141039 100.6821020   8.7820012  23.4584997 104.0729988
  10.7980012  22.0384997 104.5989988   9.0340012  19.6114997 100.9859988
  10.1830012  19.0234997 100.8849988  10.8410012  18.4354997 101.7839988
  10.6040012  19.1314997  99.4709988   9.8947077  18.5012416  98.9444718
  10.3716206  20.1516876  99.1758331  12.0530012  18.7744997  99.1269988
  12.7405058  19.4983455  99.5506088  12.3375899  17.8123554  99.5409079
  12.2220012  18.7554997  97.5869988  13.2242085  18.4034269  97.3561756
  11.5394180  18.0059394  97.1941825  11.9460012  20.1224997  96.8499988
  10.9033595  20.4138455  96.9627910  12.5357305  20.9390292  97.2595116
  12.2560012  19.9914997  95.3309988  13.3371631  20.0197779  95.2118760
  11.9441790  18.9931230  95.0303461  11.6240012  20.9944997  94.3999988
  11.7879781  20.6786565  93.3708945  10.5476564  21.0173278  94.5458714
  12.1760012  22.4164997  94.5889988  12.0765974  22.7277825  95.6223437
  13.2419785  22.4302134  94.3657271  11.4930012  23.3564997  93.6829988
  10.6002818  23.8690697  94.0083881  11.9550012  23.6394997  92.3999988
  11.3760027  24.3291908  91.8027577  13.1770012  23.1124997  91.7119988
  13.9424467  23.8699572  91.8719116  13.5072982  22.2294047  92.2474688
  13.1120012  22.7974997  90.1789988  12.8160630  23.6907220  89.6301094
  14.1079521  22.5395382  89.8240387  12.1470012  21.6514997  89.8499988
  11.2806465  21.8046025  90.4935018  11.8057244  21.8292059  88.8339010
  12.6310012  20.1784997  89.9839988  13.0059619  20.0131328  90.9915717
  11.7895484  19.4995453  89.8572577  13.7620012  19.8194997  88.9159988
  14.5944351  20.5086956  89.0450436  14.1591054  18.8310869  89.1304130
  13.3050012  19.8974997  87.4429988  12.3056078  19.4711989  87.3769412
  13.2026527  20.9487624  87.1799297  14.1920012  19.2204997  86.3979988
  15.2339831  19.4255542  86.6306813  14.0666295  18.1471627  86.5226691
  13.9180012  19.5784997  84.9469988  14.5356373  18.9844044  84.2801814
  14.1277548  20.6225526  84.7403642  12.8792403  19.3932386  84.6885510
 124.2560012 130.5204997  83.3169988 124.4069485 130.2775178  82.2698103
 124.8457697 131.4048790  83.5402392 123.2094366 130.7815032  83.4481163
 124.6490012 129.3494997  84.2219988 125.6925914 129.0981840  84.0404420
 124.0699827 128.4771238  83.9312893 124.4470012 129.6474997  85.7579988
 124.6116254 128.7509634  86.3555358 123.4207517 129.9537120  85.9509157
 125.4470012 130.8314997  86.2759988 124.9855455 131.7842366  86.0257968
 126.3674148 130.7809039  85.6963568 125.7810012 130.8294997  87.7419988
 126.0096342 129.8076400  88.0337226 124.8748652 131.1050555  88.2789826
 126.9240012 131.7374997  88.1849988 126.7306440 132.7923831  87.9988509
 127.8679937 131.5101106  87.6943367 127.0650012 131.5164997  89.6379988
 127.3983137 130.4935065  89.8027951 126.0807748 131.5936328  90.0979759
 128.0430012 132.4964997  90.3499988 127.5734596 133.4753863  90.4381044
 128.9278354 132.6383714  89.7322409 128.4810012 132.0014997  91.7759988
 129.2360207 132.7022786  92.1258494 128.9936342 131.0518069  91.6281205
 127.4030012 131.8324997  92.8579988 126.6536823 131.1875556  92.4042727
 126.9415921 132.8148653  92.9554069 127.7700012 131.3114997  94.2439988
 128.2668940 132.0906444  94.8180823 128.4787848 130.4880623  94.1754083
 126.4980012 130.8374997  95.0469988 126.7880753 130.1451975  95.8336332
 125.8326411 130.2850926  94.3860808 125.7060012 132.0494997  95.6579988
 125.5381300 132.7887364  94.8765895 126.3011802 132.5432194  96.4210693
 124.3700012 131.6794997  96.2409988 124.4868205 131.0357841  97.1066364
 123.7906121 131.1216213  95.5101280 123.5420012 132.9794997  96.6609988
 123.4416329 133.6531277  95.8194570 124.0432865 133.5021917  97.4669610
 122.0590012 132.6354997  96.8729988 121.1230012 133.1564997  96.2599988
 122.0380012 131.7954997  97.8639988 120.8290012 131.7414997  98.6079988
 120.0311969 131.3068793  98.0248388 120.5643321 132.7562648  98.8676024
 121.1000012 130.8564997  99.9339988 120.1834702 130.4412679 100.3192878
 121.7240012 131.7554997 100.9609988 121.9494284 131.1890098 101.8543480
 121.0047563 132.5255038 101.2107297 122.9090012 132.3374997 100.4279988
 124.0800012 133.0984997 101.2079988 125.0350012 131.8624997 101.6339988
 125.4580012 131.0194997 100.5519988 126.5294114 131.0194087 100.3994567
 125.0137052 131.3465428  99.6163488 124.9200012 129.5604997 100.7759988
 125.2654017 129.0599915  99.8802091 123.8448087 129.6555716 100.7280452
 125.1990012 128.6164997 101.9029988 126.6090012 128.2704997 101.9239988
 126.8991233 127.9439769 100.9347839 126.7433616 127.4624711 102.6276585
 127.1761561 129.1305410 102.2470794 124.8350012 129.2264997 103.2339988
 123.8337633 129.6236178 103.1666643 125.5475581 129.9951151 103.4745459
 124.8722157 128.4380238 103.9717100 124.4100012 127.3444997 101.8219988
 123.3560604 127.5795657 101.8160930 124.6389600 126.7298668 102.6795851
 124.6718763 126.8146365 100.9175091 124.8180012 133.9994997 100.2509988
 123.5020012 133.6584997 102.4489988 122.0300012 129.8304997  99.6849988
 121.6430012 128.7274997  99.0939988 120.4890012 128.4874997  98.8379988
 122.8860012 127.9304997  98.5969988 123.7197216 128.6241304  98.5603973
 123.1525368 127.1841051  99.3411499 122.6260012 127.2944997  97.2629988
 121.7801257 126.6187468  97.3255580 122.3605740 128.0395511  96.5197090
 123.8610012 126.5114997  96.7979988 124.7502723 127.1100844  96.9784072
 123.9568227 125.6293145  97.4261967 123.8150012 126.0504997  95.2839988
 124.6936836 125.4438349  95.0728566 122.9540232 125.4111644  95.1046406
 123.7810012 127.2714997  94.2399988 122.9496648 127.9213069  94.5055763
 124.6849539 127.8571155  94.3958980 123.6830012 126.8964997  92.7229988
 124.5346660 126.2503797  92.5158827 122.7952324 126.2825368  92.5995716
 123.6430012 128.0394997  91.6809988 124.4651470 128.7350270  91.8030559
 123.7166799 127.6526968  90.6654689 122.3260012 128.7294997  91.8349988
 121.4975695 128.0400144  91.7728284 122.0320012 130.0184997  92.0419988
 121.0036691 130.3413491  92.1188842 123.0490012 131.1424997  92.1939988
 122.5737878 131.8877025  92.8296607 123.9002465 130.7669450  92.7507941
 123.5300012 131.8254997  90.9499988 124.1802868 132.6678470  91.1829892
 124.1213307 131.1457042  90.3395346 122.3470012 132.3094997  90.1489988
 121.7652877 131.4206871  89.9046041 121.7343644 132.8961564  90.8279789
 122.6000012 133.1034997  88.8839988 123.2893404 133.8886293  89.1865344
 123.1649525 132.4356705  88.2359870 121.4450012 133.7014997  88.1009988
 120.8815322 134.3164212  88.8002586 121.8729923 134.3905503  87.3780480
 120.4780012 132.7734997  87.4179988 119.9212925 132.1908431  88.1497568
 119.7371975 133.3396817  86.8563211 121.1730012 131.8174997  86.4689988
 121.6803686 132.3631224  85.6772986 121.9546271 131.2951320  87.0162702
 120.2410012 130.7944997  85.8579988 120.7944296 130.0794101  85.2568059
 119.4992143 131.2551132  85.2143153 119.7114019 130.2399600  86.6275125
  20.8990012  10.0914997  80.7679988  20.9962871  10.4972939  79.7658533
  21.5611349   9.2338193  80.8438496  21.2552796  10.8446268  81.4654779
  19.4730012   9.7074997  81.0669988  19.1515447   8.9813373  80.3223130
  18.8517443  10.5873907  80.9233129  19.2500012   9.1314997  82.4549988
  19.8252612   8.2099680  82.5432275  18.2038299   8.8418858  82.5312918
  19.5910012  10.0644997  83.6489988  19.3158178  11.0819535  83.3800901
  20.6692623  10.0739040  83.8005591  18.8880012   9.6964997  84.9819988
  17.8341724   9.9226023  84.8409474  19.2595384  10.4143770  85.7113664
  19.0190012   8.2904997  85.5499988  18.3424846   7.6227707  85.0196400
  18.6956099   8.2889013  86.5887444  20.3830012   7.7624997  85.4679988
  20.7804381   7.9394439  84.4702490  20.3614099   6.6815540  85.5996056
  21.3490012   8.3934997  86.5289988  21.1484227   9.4594597  86.6287412
  22.3807394   8.3085557  86.1928667  21.2070012   7.7194997  87.9049988
  21.3001404   6.6405640  87.8012491  20.2109143   7.9009255  88.3068353
  22.2350012   8.2164997  88.8839988  22.4326693   9.2718614  88.7095339
  23.1814678   7.6990666  88.7294253  21.7870012   8.0074997  90.2879988
  21.7934706   6.9451309  90.5222457  20.7575926   8.3384900  90.4140600
  22.6890012   8.7394997  91.3149988  22.5239638   9.8131014  91.2664089
  23.7367030   8.5814685  91.0659665  22.4380012   8.2224997  92.7659988
  22.9128571   7.2541788  92.9147219  21.3815119   8.0784277  92.9741999
  23.0370012   9.2234997  93.8209988  24.0250000   9.5448250  93.5080238
  23.1606133   8.7026881  94.7668145  22.1920012  10.4064997  94.0449988
  21.1899334  10.1086462  94.3263962  22.1364439  11.0066155  93.1445304
  22.7770012  10.9744997  95.3599988  23.9250012  11.2364997  95.5889988
  21.8090012  10.9704997  96.3249988  22.3720012  11.0974997  97.6749988
  22.9310080  12.0206155  97.6461803  23.0399156  10.2880133  97.9315414
  21.1870012  11.2064997  98.7179988  21.6365006  11.4262521  99.6722279
  20.4350012   9.8224997  98.7859988  21.1334487   8.9987652  98.7274033
  19.7455338   9.7526210  97.9539310  19.7250012   9.7884997 100.0249988
  18.5950012   8.7334997 100.2479988  17.8490012   9.3874997 101.4859988
  18.6190012   9.6414997 102.6609988  19.2738271   8.8082134 102.8801471
  17.9426640   9.7322695 103.5060584  19.4200012  10.9954997 102.6259988
  20.0895485  10.9349400 101.7773010  20.0058916  11.1532742 103.5199879
  18.6330012  12.2364997 102.4309988  17.9970012  12.2704997 101.0629988
  18.7598263  12.0723690 100.3226097  17.5892236  13.2585705 100.9095928
  17.2019852  11.5408201 101.0278668  17.4990012  12.3064997 103.4229988
  17.8947794  12.1205233 104.4096529  16.7529152  11.5798688 103.1551678
  17.0856070  13.3033575 103.3712607  19.4740012  13.5354997 102.6219988
  19.8976478  13.5419967 103.6152577  18.8326908  14.3949164 102.4964044
  20.2650068  13.5644284 101.8865341  17.6530012   8.7834997  99.1129988
  19.2110012   7.4734997 100.4819988  20.2820012  12.2864997  98.4019988
  20.5370012  13.5124997  99.0369988  21.2900012  13.6174997  99.9609988
  19.5850012  14.5944997  98.4859988  18.6024032  14.1400164  98.5601557
  19.5964505  15.3991483  99.2169683  19.8690012  15.1314997  97.0609988
  19.3398755  16.0621868  96.8880582  20.9220143  15.3545782  96.9215988
  19.4280012  14.1264997  96.0559988  19.9839351  13.2010179  96.1827857
  18.3843079  13.8801443  96.2351034  19.5730012  14.6404997  94.5919988
  18.9757188  15.5417404  94.4665996  20.6006223  14.9248717  94.3790918
  19.1110012  13.5954997  93.5339988  19.5356619  12.6189306  93.7573304
  18.0307603  13.4762115  93.5908416  19.4870012  13.9994997  92.0949988
  18.6827310  14.6340084  91.7258792  20.3735519  14.6255643  92.1438751
  19.7390012  12.8744997  91.0979988  19.7845223  13.3109853  90.1070456
  20.7308558  12.4735016  91.3023782  18.7400012  11.7414997  91.1489988
  18.9276465  10.8698933  91.7578054  17.5860012  11.7714997  90.4629988
  16.8710918  10.9635165  90.5236439  17.1570012  12.9134997  89.5499988
  16.3894418  13.5014634  90.0503708  17.9702899  13.5972208  89.3337401
  16.5740012  12.3834997  88.2349988  15.7946834  11.6408016  88.4016373
  16.1139340  13.1807141  87.6542697  17.7420012  11.7404997  87.3969988
  18.0054245  10.7919679  87.8649760  17.3595401  11.4961832  86.4098124
  19.0240012  12.6164997  87.2549988  19.5029122  12.6733086  88.2299665
  19.7257048  12.1019022  86.6008685  18.7650012  14.0604997  86.7009988
  18.0181527  14.5410891  87.3301579  19.6705012  14.6508020  86.8116231
  18.2810012  14.1224997  85.2799988  18.9334642  13.5190293  84.6515097
  17.2953441  13.6646862  85.2189985  18.2010012  15.5064997  84.6959988
  17.7466339  15.4410360  83.7105142  17.4958422  16.0616647  85.3106984
  19.4730012  16.2824997  84.6059988  19.2844162  17.2922138  84.2538880
  20.1789833  15.8258108  83.9206044  19.9554689  16.3553595  85.5765951
 131.6700012 128.1124997  80.7669988 131.6998345 128.3391147  79.7057803
 132.5005610 128.6289168  81.2395172 130.7512540 128.5311319  81.1685740
 131.7400012 126.6504997  81.0079988 132.6566821 126.2601944  80.5691812
 130.9204635 126.1686387  80.4817079 131.6980012 126.2824997  82.5059988
 130.7324778 126.5091537  82.9580182 132.4358390 126.8465069  83.0731515
 132.0040012 124.7464997  82.6769988 132.8522142 124.4644205  82.0571471
 131.1654860 124.1427807  82.3333103 132.3190012 124.3944997  84.1199988
 133.0371087 125.0885744  84.5491313 132.7741392 123.4073419  84.1811039
 131.0240012 124.4154997  84.9779988 130.2229534 123.8747921  84.4772247
 130.6668340 125.4346015  85.1100600 131.2860012 123.7644997  86.4009988
 131.7158162 124.5477410  87.0227399 132.0711229 123.0229730  86.2597474
 130.1300012 123.1314997  87.1279988 130.4407862 122.6893947  88.0737296
 129.6795449 122.3268179  86.5498462 129.0250012 124.2634997  87.4099988
 128.0586897 123.7936259  87.5802981 128.9077242 124.8863583  86.5240698
 129.3690012 125.1324997  88.5839988 130.3876536 125.4915446  88.4546424
 129.3747573 124.5148557  89.4817247 128.4470012 126.2804997  88.7869988
 127.4163807 125.9715663  88.6259936 128.6410450 127.0729716  88.0662608
 128.5650012 126.8484997  90.2079988 128.7583400 126.0445128  90.9140045
 127.6144680 127.2894954  90.5024125 129.6530012 127.9164997  90.3159988
 129.2979340 128.8403153  89.8624087 130.5391844 127.6251705  89.7591500
 130.0470012 128.2204997  91.7499988 129.1777499 128.1532821  92.3959315
 130.4017827 129.2462180  91.8058909 131.1680012 127.2754997  92.2959988
 132.0344105 127.3011161  91.6473697 130.8068431 126.2555464  92.3536985
 131.4500012 127.7604997  93.7399988 131.2060012 128.9054997  94.1469988
 132.0070012 126.8384997  94.4559988 132.3050012 127.1394997  95.8849988
 132.1937355 128.2074192  95.9973810 133.3023011 126.8545677  96.1873210
 131.2260012 126.3894997  96.7349988 130.2361032 126.7587936  96.5237691
 131.4970012 126.4554997  98.2489988 130.5596171 126.3027991  98.7664876
 131.8464559 127.4598631  98.4532548 132.4700012 125.4904997  98.6769988
 132.5760012 124.9524997 100.1269988 132.6600012 126.2174997 101.1139988
 131.4700012 126.8124997 101.6569988 130.7124042 126.0778397 101.8968123
 131.0273729 127.4845097 100.9274237 131.7970012 127.7144997 102.9039988
 132.2827174 127.0933612 103.6459662 130.8451906 128.0432912 103.2955724
 132.6690012 128.9864997 102.7839988 134.0960012 128.6044997 102.4189988
 134.4372400 127.8448806 103.1088313 134.7119458 129.4862371 102.5151820
 134.1155630 128.2584865 101.3964484 132.0210012 129.9144997 101.7989988
 130.9810086 130.0250698 102.0652763 132.1325755 129.5093840 100.8091491
 132.5256907 130.8669804 101.8722508 132.6940012 129.6794997 104.1869988
 131.6831023 129.9132653 104.4861964 133.2720609 130.5891197 104.1230578
 133.1451104 129.0148117 104.9095812 131.3690012 124.1454997 100.2969988
 133.7830012 124.1454997 100.2159988 131.2890012 125.0084997  96.1559988
 130.3750012 124.1654997  96.6419988 129.4840012 124.4084997  97.3879988
 130.4090012 122.9394997  95.8209988 130.7615795 122.1688670  96.4987648
 129.3742206 122.6902079  95.5996625 131.2360012 123.0024997  94.5569988
 132.1878501 123.4945190  94.7242160 131.4717243 122.0183368  94.1647092
 130.4400012 123.7934997  93.5259988 129.3983370 123.4864402  93.5740018
 130.4613075 124.8402112  93.8192666 130.9560012 123.6784997  92.0869988
 130.5766249 122.7426090  91.6809344 130.5122324 124.4711016  91.4894593
 132.4930012 123.7064997  91.8929988 132.8825742 124.6000762  92.3763772
 132.9076989 122.8614551  92.4391732 133.0200012 123.6474997  90.3809988
 132.6817493 122.7469857  89.8707426 132.6781108 124.4864267  89.7813068
 134.5520012 123.6634997  90.4179988 134.8625721 122.9942311  91.2118534
 134.8955789 123.2150363  89.4867733 135.2110012 125.0504997  90.5699988
 135.1966649 125.5860468  91.5073022 135.8440012 125.6394997  89.5359988
 136.2873286 126.6059488  89.7284744 136.0390012 125.1374997  88.1029988
 137.0080737 125.4592632  87.7253911 136.0253926 124.0563323  88.0219253
 134.9150012 125.7494997  87.1689988 135.1257079 125.4101983  86.1554988
 133.9813600 125.2722681  87.4605862 134.7210012 127.3034997  87.1699988
 134.6389364 127.6293229  88.2069229 135.6253077 127.7612084  86.7785445
 133.5240012 127.8074997  86.3929988 133.5169715 127.3213851  85.4199683
 132.6142860 127.4888003  86.8988980 133.4960012 129.4024997  86.2089988
 133.1895912 129.8951125  87.1298872 134.4794110 129.7997690  85.9729752
 132.5090012 129.7844997  85.1259988 132.4781599 129.0861507  84.2915885
 131.4840606 129.8761318  85.4808712 132.9920012 131.2294997  84.5709988
 133.1286858 131.8957080  85.4191725 133.9834046 131.0808088  84.1487155
 132.1480012 131.8824997  83.5699988 132.6129054 132.7954493  83.2101987
 131.1758312 132.1489376  83.9707947 131.9854026 131.2343276  82.7135085
 120.5360012   5.1834997  84.5609988 119.5037992   5.2667975  84.2353463
 121.0639130   4.5713434  83.8354894 120.9728850   6.1779383  84.5320789
 120.6280012   4.5894997  85.9479988 120.1070233   3.6363409  85.8753805
 120.0011309   5.2342184  86.5580688 122.0070012   4.3684997  86.6429988
 122.6377088   3.7698237  85.9859417 121.8425744   3.7656823  87.5339231
 122.7350012   5.5934997  87.0339988 122.1135719   6.1806008  87.7065967
 122.9090637   6.2199238  86.1604995 124.1310012   5.2934997  87.7579988
 124.7907450   6.1506802  87.6505160 124.6204903   4.4653856  87.2481042
 123.9910012   4.9584997  89.2459988 123.2470751   4.1712363  89.3537367
 123.5890695   5.8291434  89.7598153 125.2940012   4.5224997  89.9319988
 125.0563243   4.2951854  90.9695960 125.9563279   5.3868336  89.9539111
 126.0260012   3.3474997  89.3179988 126.7843006   3.0684705  90.0484614
 126.5626466   3.7568412  88.4641046 125.2490012   2.0744997  88.8729988
 125.8300450   1.5150505  88.1429675 124.3222617   2.3541041  88.3734466
 124.9370012   1.1984997  90.0279988 124.0468053   0.6346054  89.7580477
 124.6469954   1.8511048  90.8510615 126.0570012   0.2274997  90.5139988
 126.7989338   0.8091430  91.0569242 126.5702170  -0.1816889  89.6454931
 125.5960012  -0.9115003  91.4059988 126.4315245  -1.5649145  91.6451007
 124.8720780  -1.5260599  90.8740948 124.9500012  -0.3965003  92.6859988
 124.1278217   0.2817298  92.4640147 125.6422700   0.1593076  93.3121899
 124.3830012  -1.5835003  93.4929988 125.1827176  -2.2534796  93.7912039
 123.7119973  -2.1572141  92.8592019 123.5910012  -1.1215003  94.7719988
 122.8076301  -0.4249138  94.5015583 124.2586976  -0.6380436  95.4752200
 124.4360012  -0.6005003  95.8459988 125.6050012  -0.8745003  96.1239988
 123.6920012   0.2344997  96.6219988 124.2990012   0.7604997  97.7769988
 125.1269363   0.1221197  98.0461762 123.5748729   0.7566741  98.5787566
 124.7930012   2.1754997  97.4939988 125.7103362   2.1277970  96.9308692
 125.0450012   2.9294997  98.8789988 126.0452788   2.6689868  99.1973989
 124.3357391   2.4906076  99.5695827 124.8900012   4.3234997  98.8389988
 123.8470012   5.0574997  99.8239988 124.4610012   5.0884997 101.2569988
 125.8680012   5.0274997 101.5739988 126.1722157   5.7062830 102.3600622
 126.4740211   5.2701664 100.7058688 126.2360012   3.5584997 101.9309988
 127.2855016   3.5570837 102.1970735 126.1035072   2.9659191 101.0373150
 125.5160012   2.7904997 103.0589988 124.0860012   2.5104997 102.6679988
 123.6288611   3.4357787 102.3451741 123.5699926   2.1343893 103.5388467
 124.0755654   1.7626093 101.8893666 126.2360012   1.5364997 103.4069988
 127.2773789   1.7717342 103.5648310 126.1097577   0.8263118 102.6094615
 125.7995742   1.1559024 104.3191250 125.5530012   3.7114997 104.3209988
 126.5801613   3.9350940 104.5680407 125.0851556   3.1988935 105.1480450
 125.0184358   4.6275451 104.1147569 123.8130012   6.4634997  99.3479988
 122.5850012   4.3274997  99.9519988 123.7990012   2.9394997  96.7419988
 124.1940012   3.5894997  95.7069988 125.3950012   3.7034997  95.3659988
 123.0330012   4.3014997  95.0859988 122.1380836   4.1250117  95.6738147
 123.1786286   5.3788504  95.0821218 122.9000012   3.7644997  93.6769988
 122.2758103   4.4353631  93.0970082 123.8699110   3.7606649  93.1898712
 122.2750012   2.3144997  93.6389988 122.9964874   1.5766478  93.9805924
 121.4373046   2.2619065  94.3300584 121.7710012   1.9474997  92.2249988
 120.9966732   2.6611520  91.9496399 122.5758634   2.0798701  91.5060573
 121.1910012   0.5124997  92.0709988 122.0042878  -0.2047128  91.9811538
 120.6548387   0.2500108  92.9809495 120.2080012   0.3494997  90.8389988
 119.6788152  -0.5961049  90.9462143 119.4523179   1.1293027  90.8731757
 120.9070012   0.3934997  89.4469988 120.1812838   0.4808568  88.6468219
 121.5513351   1.2685936  89.3735793 121.7520012  -0.8415003  89.2809988
 122.2244207  -1.2121312  90.1782204 121.9740012  -1.5545003  88.1069988
 122.6212610  -2.4154482  88.0207805 121.2720012  -1.1505003  86.7739988
 121.3322845  -2.0479137  86.1606178 120.2217427  -1.0100395  87.0040180
 121.7640012   0.0114997  85.9569988 121.2206438   0.0983312  85.0168243
 121.6082775   0.9503162  86.4850448 123.2500012  -0.1615003  85.6709988
 123.8030771  -0.0906387  86.6075844 123.4322762  -1.1608638  85.2855738
 123.7930012   0.8674997  84.6889988 123.0037419   0.9826458  83.9494340
 123.8269435   1.8023301  85.2457977 125.1410012   0.6474997  83.9869988
 125.8170052   0.0889116  84.6316598 125.0232942   0.0470181  83.0891168
 125.8210012   1.9964997  83.6379988 125.3175609   2.4903256  82.8088023
 125.7719962   2.6890369  84.4763452 127.2890012   1.7924997  83.2629988
 127.7224542   1.1296099  84.0077206 127.2714925   1.2243844  82.3355013
 128.1720012   2.9784997  83.0809988 129.1553056   2.6771067  82.7326545
 128.3092319   3.5276921  84.0063616 127.7575750   3.6650895  82.3482052
 133.3990012   6.0764997  81.0499988 133.9021278   5.7246701  80.1547287
 133.9004928   5.6357389  81.9067520 133.5376838   7.1527348  81.1056507
 131.8840012   5.7064997  81.0309988 131.7967710   4.6252933  80.9383340
 131.4467994   6.1263510  80.1291155 131.0860012   6.1794997  82.2839988
 130.0085645   6.0711587  82.1602190 131.2599918   7.2317590  82.4999817
 131.5400012   5.3564997  83.4879988 132.6198538   5.4585858  83.5701364
 131.3517561   4.3047937  83.2777980 130.8890012   5.7374997  84.8779988
 131.1610808   5.0001274  85.6288834 129.8049321   5.6948699  84.7866640
 131.3120012   7.1684997  85.3899988 130.9675348   7.9199676  84.6818632
 132.3975168   7.2393394  85.4046445 130.7490012   7.5074997  86.8249988
 129.6919124   7.6981818  86.6490055 131.1977354   8.4724415  87.0568498
 130.8990012   6.5864997  88.0189988 130.2772468   5.7193173  87.8002131
 130.4205402   7.1016321  88.8499005 132.3130012   6.1064997  88.4589988
 133.0580702   6.8095056  88.0926714 132.5322898   5.1539025  87.9783241
 132.4690012   5.9464997  90.0429988 132.2524326   4.9054418  90.2723362
 131.6718261   6.5320046  90.5003005 133.8390012   6.3604997  90.6759988
 133.9078395   7.4457489  90.7081905 134.6596669   6.0242322  90.0446827
 134.0510012   5.7934997  92.1709988 135.0278217   5.3241722  92.2591593
 133.3195882   5.0135432  92.3744026 133.8990012   6.8874997  93.2179988
 133.0434796   7.4785235  92.8954686 134.7678841   7.5326012  93.1222879
 133.6970012   6.5304997  94.7109988 133.5243658   7.4365823  95.2824498
 134.6172986   6.0918216  95.0874377 132.4910012   5.4984997  94.9779988
 132.6252941   4.5986990  94.3911725 131.5424694   5.9492821  94.7112562
 132.2320012   5.4304997  96.3969988 131.2070012   5.7094997  96.8989988
 133.3540012   5.1384997  97.0299988 133.2330012   5.0154997  98.4939988
 133.3170159   3.9625560  98.7169634 132.2485386   5.3589661  98.7769411
 134.2950012   5.7834997  99.2129988 135.2065105   5.2134347  99.1417906
 133.9110012   5.9914997 100.7249988 133.9666655   5.0636247 101.2779460
 132.9006666   6.3753001 100.7921271 134.8430012   6.9444997 101.2499988
 134.4200012   8.4134997 101.7099988 133.3500012   8.8084997 100.5679988
 132.6970012  10.0994997 100.6029988 132.4598690  10.4207322  99.5971324
 133.4054358  10.8218827 100.9980685 131.4620012  10.1994997 101.5219988
 130.9842611  11.1337056 101.2550293 131.7698831  10.2500736 102.5564203
 130.4240012   9.1974997 101.4659988 130.8430012   7.9534997 102.1969988
 131.8169689   7.6525748 101.8362149 130.1204061   7.1806825 101.9808737
 130.8508803   8.1560101 103.2574913 129.2330012   9.7904997 102.1739988
 129.0512200  10.7756707 101.7726166 129.4344758   9.8269886 103.2296723
 128.3870759   9.1479913 101.9767919 130.0940012   8.8714997 100.0399988
 129.7784270   9.7714018  99.5333716 129.2958346   8.1448020 100.0178464
 130.9674361   8.4637864  99.5518222 133.6530012   8.3184997 102.9969988
 135.5480012   9.3694997 101.6529988 134.4930012   7.0934997  98.6329988
 135.5740012   7.3484997  97.8769988 136.4400012   6.5514997  97.4959988
 135.6050012   8.8374997  97.5449988 134.6502739   9.1438738  97.1300486
 135.7527210   9.4470706  98.4329792 136.7220012   9.0244997  96.5729988
 137.6598397   8.8616973  97.0926286 136.6631636   8.2535139  95.8113216
 136.7480012  10.4174997  95.9079988 135.8465508  10.5992765  95.3283450
 136.7833877  11.1964059  96.6657044 137.9640012  10.5484997  95.0269988
 137.8548636  11.4390261  94.4107539 138.8546476  10.7041149  95.6309316
 138.1970012   9.3444997  94.0999988 138.5473431   8.5116470  94.7062314
 137.2279824   9.0452316  93.7052554 139.1610012   9.5594997  92.9239988
 139.9345644  10.2654675  93.2221771 139.6703456   8.6311253  92.6810847
 138.4710012  10.0704997  91.6829988 137.9639061  11.0033686  91.9002318
 139.2189027  10.2973763  90.9243709 137.4910012   9.0244997  91.1119988
 137.9452341   8.0608216  90.9372101 136.2480012   9.1404997  90.8379988
 135.7488517   8.2933384  90.3899165 135.3360012  10.3544997  91.0689988
 134.4231754  10.0478559  91.5768764 135.7849285  11.1225115  91.6889206
 134.9500012  10.9574997  89.7079988 134.5037475  11.9322701  89.9013516
 135.8801431  11.1498406  89.1766798 134.0120012  10.1324997  88.8049988
 134.4575590   9.1533632  88.6292802 133.0745947   9.9509270  89.3234624
 133.7270012  10.8094997  87.4529988 132.8890858  10.2737134  87.0125717
 133.3658743  11.8131887  87.6704398 134.9320012  10.8984997  86.4019988
 134.9084479  11.8237221  85.8292870 135.9112790  10.8650263  86.8715936
 134.7810012   9.7304997  85.4179988 135.7162218   9.5813990  84.8813291
 134.6009451   8.8108769  85.9718109 133.6540012   9.9094997  84.3929988
 132.6786935   9.9154323  84.8732641 133.7555880  10.8825359  83.9174007
 133.6820012   8.8314997  83.3139988 132.9326683   9.0281641  82.5531490
 133.4817661   7.8458119  83.7202825 134.6503986   8.7955062  82.8230285
   6.3760012  28.1044997  82.0299988   7.3607933  27.7140676  81.7929834
   6.4125047  29.1844800  81.9199992   5.6812667  27.7216642  81.2874403
   5.9480012  27.7084997  83.4349988   6.6723386  28.0834191  84.1560908
   5.9625032  26.6254955  83.5227808   4.5400012  28.2544997  83.7949988
   3.7907887  27.7046121  83.2255839   4.4775563  29.2868531  83.4565938
   4.1870012  28.2094997  85.2459988   4.7621770  28.9756221  85.7612455
   4.5122164  27.2573368  85.6623243   2.7130012  28.4174997  85.5559988
   2.1080245  27.7733407  84.9230411   2.4381611  29.4400776  85.3026960
   2.3560012  28.1454997  87.0329988   2.9046702  28.8444291  87.6617093
   2.7081841  27.1522670  87.3032450   0.8480012  28.2534997  87.3459988
   0.4284493  29.0731468  86.7655465   0.7272266  28.5289600  88.3927868
   0.0700012  27.0044997  87.0709988   0.2064171  26.7244705  86.0272434
  -0.9913283  27.2123940  87.1936513   0.4750012  25.7774997  88.0009988
   0.8894125  26.1444364  88.9375679   1.2653828  25.1977709  87.5258269
  -0.7129988  24.8624997  88.2969988  -1.2780062  24.7217032  87.3781723
  -1.3819337  25.3693325  88.9920352  -0.3199988  23.5184997  88.8749988
  -0.0161023  22.9307418  88.0114430  -1.2528301  23.0803327  89.2256604
   0.7710012  23.3644997  89.9839988   1.6514572  23.8768982  89.6039147
   1.0197818  22.3050315  90.0014752   0.4770012  23.8134997  91.3929988
  -0.4208917  23.3332929  91.7782802   0.3052236  24.8836900  91.4668845
   1.6410012  23.4324997  92.3019988   2.5383902  23.9593769  91.9946906
   1.8434394  22.3712699  92.1840913   1.3770012  23.7114997  93.7599988
   0.4662333  23.2218879  94.0806595   1.2766739  24.7771960  93.9282094
   2.7060012  23.4684997  94.4499988   3.6660012  22.9734997  93.9519988
   2.6590012  23.8814997  95.7509988   3.7330012  23.6774997  96.6279988
   4.5243866  23.3267244  95.9829191   3.4837174  22.9003152  97.3358363
   4.1770012  24.9954997  97.3699988   4.9976822  24.7789074  98.0336737
   2.9660012  25.4644997  98.1769988   2.6259911  24.6532222  98.8063024
   2.1831489  25.7058061  97.4688332   3.2890012  26.6004997  98.9629988
   2.0200012  27.3974997  99.5169988   2.4620012  27.7154997 101.0139988
   3.7910012  28.2714997 101.3609988   3.9229258  29.3156720 101.1090285
   4.5908872  27.7310634 100.8630952   4.0160012  28.0344997 102.8549988
   3.2727297  28.6153876 103.3863798   4.9983254  28.3722317 103.1522414
   3.8840012  26.5964997 103.3889988   2.5450012  25.9414997 103.0999988
   1.7575459  26.6078374 103.4244094   2.4964569  25.0205001 103.6616955
   2.4809829  25.7258221 102.0440149   4.9680012  25.7964997 102.8299988
   5.8975995  26.3219607 102.9863691   4.7800357  25.6326362 101.7839645
   4.9808387  24.8548597 103.3595707   4.1010012  26.6954997 104.8869988
   5.0731090  27.1252269 105.0778464   4.0510723  25.7071782 105.3187138
   3.3333741  27.3190338 105.3221872   2.0550012  28.6624997  98.7409988
   0.7590012  26.6664997  99.5239988   4.6310012  25.9934997  96.4419988
   5.5470012  25.6404997  95.5119988   6.3710012  24.7474997  95.6299988
   5.5430012  26.5694997  94.3309988   5.0618521  27.4672547  94.7052773
   6.5825651  26.8381783  94.1606300   4.8990012  26.0714997  93.0679988
   5.2732708  25.0693758  92.8898669   3.8352975  25.9655744  93.2560075
   5.1320012  26.9534997  91.7649988   4.3428088  27.6981374  91.6990895
   6.0592110  27.5054431  91.8980603   5.2180012  26.1634997  90.4579988
   5.9109555  25.3465277  90.6505530   4.2460882  25.7050228  90.2925108
   5.6620012  26.8844997  89.1529988   4.8576076  27.4945569  88.7471883
   6.4845185  27.5664479  89.3598633   6.1130012  25.8844997  88.1049988
   6.5090466  26.4310073  87.2504940   6.9334722  25.2884728  88.4947387
   5.0290012  24.9624997  87.6429988   4.4359876  24.7380343  88.5219357
   4.3950234  25.5606398  86.9898169   5.4250012  23.6814997  86.9019988
   5.9240482  22.9441678  87.5126113   5.2180012  23.3694997  85.6149988
   5.5180945  22.4308004  85.1718309   4.4940012  24.3654997  84.6009988
   4.6691416  25.3694181  84.9840062   4.9914945  24.3166286  83.6388174
   2.9720012  24.1824997  84.4019988   2.7284083  23.1318795  84.5555074
   2.4643464  24.7302778  85.1936330   2.4460012  24.6254997  83.0879988
   2.9891799  25.5336346  82.8265511   2.7397750  23.8754143  82.3589084
   0.9440012  24.8864997  82.9729988   0.3863277  23.9730802  83.1674473
   0.6178943  25.6071277  83.7209524   0.6000012  25.4264997  81.5579988
   0.3308877  26.4806959  81.5869507   1.4374155  25.3528064  80.8695719
  -0.5869988  24.6574997  81.0149988  -0.7586604  25.0389087  80.0100398
  -0.2471102  23.6305236  80.8940448  -1.9539988  24.6414997  81.7819988
  -2.6845906  24.0346870  81.2529155  -1.8051241  24.1543793  82.7431767
  -2.5259988  26.0264997  82.0209988  -3.4238598  25.9729931  82.6293176
  -2.7912576  26.5213807  81.0928439  -1.8119814  26.6596174  82.5401153
 140.8210012 123.5954997  81.7369988 140.3893968 123.8385249  80.7710353
 140.0913985 123.0088187  82.2877032 141.6871087 122.9630986  81.5622456
 141.2060012 124.8494997  82.4999988 140.3060452 125.4543121  82.5973854
 141.8827536 125.4101009  81.8608225 141.8750012 124.6374997  83.9799988
 142.0918505 125.6294349  84.3761929 142.8396273 124.1615457  83.8152712
 141.1060012 123.8274997  85.0349988 140.6318904 122.9479046  84.6051366
 140.3088849 124.3985239  85.5085418 142.0910012 123.3794997  86.0849988
 141.5143795 123.2236652  86.9931816 142.7260362 124.2441068  86.2708750
 142.9700012 122.1514997  85.8389988 143.3917115 122.1716751  84.8357190
 142.3853134 121.2364118  85.9048127 144.1280012 122.0984997  86.8839988
 143.7663561 122.4545010  87.8469349 144.9204992 122.7830224  86.5846570
 144.7300012 120.6474997  87.0569988 145.6638667 120.7158062  87.6134880
 144.9886188 120.2512266  86.0768107 143.7540012 119.6294997  87.7929988
 144.0187148 118.5987489  87.5671213 142.7255266 119.7590778  87.4582950
 143.8260012 119.8564997  89.3419988 143.0684111 120.5585109  89.6833731
 144.7860592 120.2698019  89.6500554 143.6250012 118.5084997  90.0119988
 144.4486149 117.8609277  89.7189936 142.7227375 118.0502016  89.6107368
 143.5470012 118.5254997  91.5139988 143.6784756 117.5154303  91.8943846
 142.5472924 118.8351376  91.8129583 144.6240012 119.5234997  92.1979988
 144.3113014 120.5384803  91.9586557 145.5828870 119.3772162  91.7087001
 144.8160012 119.4354997  93.6969988 145.7483118 119.8997026  94.0013957
 144.8682247 118.3942613  94.0038983 143.6130012 120.1284997  94.4649988
 142.6680871 119.7031057  94.1516006 143.5992903 121.1929176  94.2627725
 143.6940012 121.5854997  94.6429988 144.3920012 122.4664997  94.1059988
 142.7380012 121.9214997  95.5569988 142.6430012 123.3004997  95.8249988
 141.9522100 123.6673957  95.0809176 143.6023560 123.7760720  95.6812587
 142.0890012 123.5784997  97.2639988 141.8423744 124.6265408  97.3049750
 143.1180012 123.2464997  98.3369988 144.0083979 123.8386748  98.1747543
 143.3734229 122.1995998  98.2304841 142.5880012 123.4944997  99.6179988
 142.2700012 122.2944997 100.6029988 141.7710012 123.1384997 101.8249988
 140.5280012 123.8074997 101.6129988 140.3659603 124.0726912 100.5763671
 140.5028974 124.7360388 102.1760102 139.3400012 122.9604997 102.1669988
 139.5798809 122.6396754 103.1728708 139.2031020 122.0862861 101.5470098
 137.9470012 123.6384997 102.2609988 137.0560012 122.5264997 102.7039988
 137.2082594 121.6800763 102.0484693 136.0342351 122.8672406 102.6266057
 137.2808522 122.2856201 103.7321700 138.0290012 124.6704997 103.3179988
 138.8997116 125.2810347 103.1340852 138.0830542 124.1871865 104.2770904
 137.1339121 125.2719996 103.2523451 137.5230012 124.1774997 100.9159988
 138.2603523 124.8856098 100.5681836 136.5674281 124.6698888 101.0164137
 137.4372927 123.3626544 100.2116436 141.1890012 121.4504997 100.0559988
 143.4840012 121.6864997 101.0999988 140.8900012 122.8234997  97.4819988
 139.8320012 123.2084997  96.7369988 139.7450012 124.2054997  96.0299988
 138.7120012 122.2634997  96.9859988 139.0385973 121.6272727  97.8021502
 137.8747868 122.8384718  97.3737953 138.2920012 121.4354997  95.7329988
 137.4085793 120.8333057  95.9146284 138.0619689 122.0533536  94.8708070
 139.4650012 120.5164997  95.4129988 140.3187878 121.1012836  95.0802374
 139.7791653 120.0125601  96.3237187 139.1020012 119.4204997  94.3289988
 139.5134231 118.4600411  94.6338878 138.0260092 119.2813647  94.2576918
 139.6730012 119.7744997  92.8809988 140.7380864 119.5521939  92.8723632
 139.2142748 119.0866010  92.1733642 139.4540012 121.1744997  92.3979988
 138.3834883 121.3282848  92.2712968 139.7758836 121.8750766  93.1634409
 140.2100012 121.5324997  91.0209988 139.9026324 122.5485196  90.8023484
 141.2616974 121.5834731  91.2997151 140.0740012 120.6384997  89.7889988
 140.8578602 119.9072690  89.6608558 139.1000012 120.6534997  88.8739988
 139.1081988 119.9494615  88.0543202 137.8860012 121.6254997  88.8629988
 136.9804083 121.0534591  89.0576579 137.9539295 122.3646130  89.6534279
 137.7190012 122.3574997  87.4729988 138.6800522 122.7978012  87.2099011
 137.5220696 121.5908163  86.7260894 136.5790012 123.4764997  87.3909988
 135.6955589 123.1395746  87.9333256 136.9104933 124.3854570  87.8853808
 136.1850012 123.8004997  85.9199988 135.7412962 122.9020168  85.4969155
 135.3948792 124.5490617  85.9411459 137.3390012 124.3004997  85.0099988
 137.4799636 125.3656712  85.1835766 138.2669540 123.8247366  85.3152496
 137.1080012 124.0894997  83.4779988 136.1354326 124.5140727  83.2356536
 137.8423984 124.6998997  82.9555941 137.1710012 122.6764997  82.9199988
 137.8066318 122.6813702  82.0380322 137.6957074 122.0756901  83.6596096
 135.8530012 122.0004997  82.5889988 136.0138823 120.9709728  82.2836126
 135.3320292 122.5017861  81.7802706 135.1920280 121.9903743  83.4510620
 141.2140012  11.8104997  81.5029988 141.0192639  12.5229946  80.7074755
 140.2645929  11.3691823  81.7922269 141.8335004  11.0178981  81.0923706
 141.9000012  12.4834997  82.6979988 141.2696780  13.2878104  83.0734718
 142.8233158  12.9495901  82.3647364 142.1920012  11.4834997  83.8499988
 142.9903223  10.7839810  83.6024386 141.3206058  10.8752787  84.0843241
 142.5930012  12.2934997  85.1329988 141.6998357  12.7457985  85.5583588
 143.2471270  13.1192986  84.8575326 143.2630012  11.4584997  86.1949988
 144.0143244  10.8088748  85.7533271 142.5307647  10.8036709  86.6644601
 143.9420012  12.3464997  87.2939988 144.7540677  12.8818653  86.8053798
 144.4093433  11.6655271  88.0021263 143.0470012  13.3644997  88.0719988
 142.6116245  14.0847443  87.3817345 143.6536715  13.9401272  88.7697338
 141.9230012  12.6574997  88.8419988 141.4466756  11.8807440  88.2451608
 141.1314863  13.3458434  89.1324660 142.5380012  12.0194997  90.1149988
 142.8242140  12.8587676  90.7452784 143.4673843  11.5580406  89.7835181
 141.7360012  11.0034997  90.9509988 142.3490143  10.6503707  91.7773242
 141.5075370  10.1275889  90.3443577 140.3930012  11.6174997  91.4999988
 139.8313518  12.1128252  90.7108577 140.5671507  12.3713506  92.2658373
 139.5270012  10.5024997  92.0789988 139.8682478   9.5706950  91.6345780
 138.5171503  10.6648384  91.7068195 139.4700012  10.3674997  93.6319988
 138.9233596   9.4679835  93.9100378 138.9406618  11.1987379  94.0892917
 140.8660012  10.2744997  94.2359988 141.3614391  11.2211403  94.0469016
 141.3956457   9.5214695  93.6584918 140.9940012   9.9254997  95.7309988
 140.4773747   8.9995591  95.9495671 140.5679293  10.7136467  96.3403886
 142.3420012  10.3604997  96.3789988 143.0770012  11.0954997  95.7729988
 142.4040012   9.8904997  97.6109988 143.6490012  10.0504997  98.3879988
 144.3208216  10.1706999  97.5515352 143.9827152   9.2195463  98.9924353
 143.5910012  11.3584997  99.2239988 144.5954285  11.4633584  99.5995310
 142.6020012  11.1714997 100.4069988 142.8396227  11.8683572 101.1992907
 142.7179905  10.1634827 100.7851961 141.2610012  11.3794997  99.9409988
 140.0530012  11.2004997 100.9929988 140.6510012  11.8584997 102.3419988
 140.3330012  13.1794997 102.6579988 140.8416582  13.4917228 103.5607577
 139.2689269  13.2385543 102.8678927 140.5790012  14.1964997 101.4939988
 139.9627260  13.8923850 100.6573578 141.6177746  14.1103778 101.2095525
 140.3210012  15.6724997 101.6789988 141.2360012  16.1664997 102.7759988
 141.1230547  15.5213295 103.6364245 140.9357047  17.1714115 103.0330479
 142.2512175  16.1743736 102.4085878 140.5980012  16.4394997 100.4439988
 140.0901740  15.9597144  99.6214226 141.6607136  16.4745464 100.2834250
 140.2086777  17.4368505 100.5889662 138.8340012  15.8124997 102.1109988
 138.2007925  15.3772866 101.3522376 138.5948888  16.8591134 102.2253444
 138.6820420  15.3023785 103.0512752 138.8280012  11.8604997 100.5969988
 139.8780012   9.7654997 101.1459988 143.4140012  12.4774997  98.3869988
 143.6210012  13.6714997  98.9849988 143.9420012  13.8304997 100.1979988
 143.5050012  14.8104997  97.9969988 142.4770259  15.1539961  98.0501962
 144.1133628  15.6354359  98.3593291 143.9060012  14.4134997  96.5649988
 144.8656079  13.9107575  96.6146598 143.1989128  13.6751842  96.2003766
 144.0030012  15.6084997  95.5469988 143.0984904  16.2112988  95.5348551
 144.8127541  16.2823183  95.8159478 144.2870012  15.0304997  94.1069988
 144.8916856  15.7332364  93.5367148 144.8559986  14.1049700  94.1498795
 142.9800012  14.7754997  93.3319988 143.1848014  14.1509822  92.4648565
 142.3034945  14.2035796  93.9641595 142.2410012  16.0974997  92.8649988
 141.9522017  16.6300877  93.7697893 142.9698833  16.7247802  92.3594615
 141.0200012  15.9404997  91.9599988 141.1809772  15.1358498  91.2520402
 140.1580969  15.6527791  92.5605684 140.6990012  17.2514997  91.2409988
 140.2384616  18.0659699  91.7796040 140.9850012  17.4614997  89.9129988
 140.7185964  18.4084679  89.4659084 141.6460012  16.5124997  88.9759988
 142.6953966  16.7829679  88.8718975 141.6304212  15.4911224  89.3396286
 140.9800012  16.5704997  87.5539988 140.7193347  17.5986639  87.3057323
 141.7011736  16.2509961  86.8041410 139.7480012  15.7014997  87.4599988
 140.0293701  14.6750222  87.6951210 139.0405722  16.0056143  88.2265251
 139.0430012  15.7364997  86.0519988 138.1439695  16.3405043  86.1523254
 139.6937473  16.2717000  85.3626693 138.6970012  14.3934997  85.4659988
 139.4968245  13.6814813  85.6606846 137.8098798  13.9794879  85.9374167
 138.4980012  14.4724997  83.9629988 139.4037384  14.9565529  83.6021450
 138.5592951  13.4358877  83.6366360 137.2780012  15.1334997  83.2729988
 137.3510441  16.2172786  83.3177540 137.2988071  14.8789135  82.2156124
 135.9230012  14.6844997  83.8649988 135.0969851  15.1018730  83.2970498
 135.8042135  15.0048277  84.8945717 135.8264542  13.6026828  83.8428204
  12.3810012  12.0874997  83.0649988  12.8311840  12.4242802  82.1363744
  11.3023958  12.1195274  82.9410042  12.6643722  11.0488895  83.2119744
  12.8390012  12.9724997  84.2729988  12.5656842  14.0068358  84.0713815
  13.9241744  12.9480074  84.3241180  12.2440012  12.5494997  85.6039988
  11.1921046  12.8347745  85.6117975  12.7227935  13.1432648  86.3801250
  12.3720012  11.0314997  85.9879988  13.0434955  10.5692376  85.2678188
  11.4012124  10.5609390  85.8401887  12.8960012  10.7074997  87.4509988
  13.9111076  11.0859230  87.5400365  12.9648079   9.6245344  87.5394123
  12.0660012  11.2514997  88.5989988  11.8531024  12.3033172  88.4168698
  12.6545342  11.2141780  89.5132268  10.7910012  10.5224997  88.8079988
  11.0429422   9.4745768  88.6558364  10.1656406  10.8106969  87.9641406
   9.9530012  10.6724997  90.1609988  10.5448414  10.3175281  91.0037154
   9.0691024  10.0385590  90.1219322   9.5210012  12.1324997  90.4209988
   8.9541658  12.5056126  89.5706897  10.4015264  12.7687124  90.5015322
   8.6880012  12.2704997  91.6789988   7.7787892  11.7005853  91.5005883
   8.3868540  13.3163084  91.7339851   9.3150012  11.8544997  93.0189988
  10.2607308  12.3787615  93.1385229   9.5589496  10.7939447  92.9900112
   8.4170012  12.1494997  94.2899988   7.3935655  12.1076329  93.9252447
   8.6116797  13.1931351  94.5299890   8.5500012  11.3494997  95.5229988
   7.8815643  11.7634319  96.2760621   9.5557280  11.4476564  95.9219382
   8.2260012   9.8954997  95.3669988   8.9426107   9.4653813  94.6750349
   7.2525776   9.8392266  94.8870279   8.1880012   9.0194997  96.6909988
   7.5028645   9.4496407  97.4104482   9.1738520   8.9675587  97.1376187
   9.6010012   8.7704997  97.2569988  10.5670012   8.4164997  96.5829988
   9.6490012   8.9364997  98.6039988  10.9280012   8.7214997  99.2269988
  11.3987113   8.1241160  98.4608220  10.8973225   8.1557618 100.1468854
  11.6970012  10.0494997  99.4189988  12.6298613   9.7726853  99.8816432
  10.9620012  11.1024997 100.2989988  11.6872477  11.8591053 100.5661437
  10.6661794  10.5733094 101.1962346   9.8350012  11.6934997  99.6809988
   9.2730012  12.9424997 100.4409988  10.4660012  13.7314997 101.0019988
  10.4870012  15.1614997 100.7309988   9.7188285  15.7345819 101.2336682
  10.3846427  15.3728525  99.6705037  11.9170012  15.6764997 101.1169988
  12.0658878  16.7296684 100.9147182  12.6469577  15.1089338 100.5580628
  12.2680012  15.4844997 102.5699988  12.3820012  14.0964997 103.0649988
  11.4895115  13.5549815 102.7829450  12.4608889  14.1320365 104.1413880
  13.2729243  13.6487640 102.6508662  13.4760012  16.1724997 102.8319988
  13.3872294  17.1782435 102.4507994  14.2886609  15.6452820 102.3650986
  13.6102582  16.1928369 103.9038469  11.2420012  15.9914997 103.5469988
  11.0825543  17.0463504 103.3798202  11.6020390  15.8347835 104.5527138
  10.3148234  15.4545689 103.4074218   8.4910012  13.8574997  99.4879988
   8.5320012  12.5094997 101.7079988  12.0370012  10.4564997  98.1199988
  12.8900012  11.4874997  97.9689988  13.5830012  11.8994997  98.8619988
  12.8530012  12.0114997  96.5159988  13.2884634  11.2111481  95.9266237
  11.8047107  12.0541917  96.2310926  13.5460012  13.3484997  96.2639988
  14.6064751  13.1880460  96.4243444  13.4335518  13.5798885  95.2095570
  13.0660012  14.5904997  97.1459988  13.2182697  14.3466002  98.1943219
  13.7324673  15.4214303  96.9281868  11.6100012  15.0534997  96.9159988
  10.9555237  14.2229672  97.1740319  11.3744282  15.8539973  97.6130719
  11.2520012  15.5334997  95.4429988  11.9072718  16.3549020  95.1604752
  11.4684399  14.7217041  94.7512450   9.7850012  15.9624997  95.2549988
   9.1731645  15.3165428  95.8827700   9.6663138  16.9698786  95.6441246
   9.2620012  15.9264997  93.8469988   9.4957753  14.9658876  93.4029783
   8.1753272  15.9941367  93.8771792   9.8070012  17.0904997  92.9799988
   9.6694498  18.1009679  93.3343821  10.4540012  16.9344997  91.8189988
  10.7742659  17.7980017  91.2538397  10.8230012  15.5614997  91.1539988
  11.3655464  14.9881259  91.9037375   9.9169310  15.0045533  90.9429807
  11.7100012  15.6334997  89.8499988  12.6144598  16.1963645  90.0776886
  12.0342529  14.6227108  89.6099451  11.0240012  16.2434997  88.6299988
  10.2118567  15.5869697  88.3177541  10.5618363  17.1859682  88.9104640
  11.9830012  16.4744997  87.4329988  12.8903225  16.9106107  87.8449699
  12.2621730  15.4929440  87.0539254  11.4640012  17.3424997  86.2649988
  11.4334213  18.3766339  86.6029652  12.1946766  17.3144504  85.4612876
  10.0120012  16.9654997  85.6999988   9.3848610  16.6777066  86.5418737
   9.5669921  17.8690385  85.2871811   9.9420012  15.8734997  84.6519988
  10.5359524  16.1724358  83.7918975  10.4435326  15.0033976  85.0699720
   8.4830012  15.4404997  84.1659988   8.5382879  14.5967752  83.4847196
   7.9733044  16.2448934  83.6464788   7.8624863  15.1459526  85.0076307
   3.7100012 144.8984997  84.1219988   2.9920477 144.2896092  83.5814211
   4.0313998 145.6976476  83.4602923   3.1912445 145.3546848  84.9606874
   4.8760012 144.0794997  84.5899988   5.3303830 143.6161491  83.7159013
   4.4831110 143.2677103  85.1961747   5.8990012 144.8104997  85.3319988
   5.4282231 145.5884377  85.9329226   6.5455457 145.3261994  84.6247471
   6.7690012 143.9334997  86.2339988   7.6311582 144.5074857  86.5663771
   7.1666306 143.0938583  85.6660206   6.0030012 143.3894997  87.5059988
   6.5423001 142.5985916  88.0209687   5.0267929 142.9790934  87.2531171
   5.8200012 144.5804997  88.4709988   4.9510549 145.1650960  88.1743566
   6.6753217 145.2489282  88.3988388   5.6460012 144.1084997  89.9899988
   5.4248220 144.9919062  90.5861888   6.6126178 143.7433098  90.3342640
   4.5480012 143.0094997  90.2609988   4.5308432 142.7481660  91.3182884
   4.7912332 142.0936630  89.7254940   3.1750012 143.4814997  89.8419988
   3.1835088 143.6279617  88.7640296   3.0075852 144.4644615  90.2805589
   2.0180012 142.5584997  90.2179988   2.2655371 142.0999909  91.1728782
   1.9901133 141.7491510  89.4888856   0.6960012 143.1864997  90.2909988
  -0.0206540 142.3777568  90.4170198   0.4951744 143.6184377  89.3121085
   0.4330012 144.2294997  91.3619988   0.6142696 145.2365358  90.9942503
   1.0976818 144.0924348  92.2129293  -1.0339988 144.0954997  91.8519988
  -1.0452308 143.2409057  92.5263837  -1.6345113 143.8123546  90.9920641
  -1.6909988 145.2404997  92.5489988  -2.6821845 144.9311670  92.8639737
  -1.8264163 146.0331104  91.8178884  -0.9539988 145.7974997  93.7229988
   0.0510750 146.0825084  93.4390313  -0.8957789 145.0613767  94.5159694
  -0.9159988 144.7424997  94.8399988  -1.3909988 143.6114997  94.7609988
  -0.5319988 145.3124997  95.9089988  -0.2779988 144.4324997  97.0129988
  -0.9749927 143.6162832  96.8970146  -0.4806087 144.9402216  97.9448570
   1.2170012 143.8904997  96.9729988   1.3549049 143.2769352  96.0981187
   1.5220012 143.0554997  98.2619988   2.5902830 142.9284245  98.3734743
   1.0669506 142.0799334  98.1445917   0.9980012 143.6994997  99.3559988
   1.6840012 143.9414997 100.7529988   3.1340012 144.4294997 100.4069988
   3.4070012 145.8694997 100.2959988   2.5787617 146.4009191  99.8456636
   4.2624527 146.0235421  99.6446382   3.8120012 146.5154997 101.6669988
   2.8904522 146.4604477 102.2326540   4.1318678 147.5466117 101.6237525
   4.8420012 145.7984997 102.4929988   6.0810012 145.4604997 101.6559988
   5.7613801 144.9574136 100.7537345   6.7065529 144.8004160 102.2382998
   6.6178255 146.3721669 101.4405935   5.1700012 146.8464997 103.5609988
   4.2444695 147.2069860 103.9830826   5.7330812 147.6436112 103.1094193
   5.7593677 146.3575403 104.3231424   4.2450012 144.6414997 103.1669988
   3.4291593 144.9752628 103.7907666   4.9945417 144.1611083 103.7777877
   3.8789302 143.9430845 102.4283220   0.9240012 144.9224997 101.5199988
   1.7800012 142.5924997 101.3049988   2.1160012 145.0304997  96.8669988
   3.3880012 144.6524997  96.4359988   3.7140012 143.5054997  96.1599988
   4.3660012 145.7954997  96.3589988   3.8384238 146.6841670  96.6898847
   5.1558301 145.6299817  97.0874773   4.9520012 145.9654997  94.9249988
   5.9311797 146.4206406  95.0255828   5.1217861 144.9766706  94.5109660
   4.0920012 146.8154997  93.9339988   3.2325767 146.2655763  93.5589948
   3.6949205 147.7009896  94.4242023   4.9700012 147.2544997  92.7819988
   5.6274892 148.0304915  93.1696225   5.6121667 146.4209819  92.5080032
   4.2660012 147.8044997  91.4809988   3.5134862 147.1257772  91.0848194
   3.7569959 148.7494850  91.6607135   5.3450012 148.0254997  90.4359988
   5.8640883 148.9676116  90.6053346   6.1038944 147.2484802  90.4612949
   4.7330012 148.0414997  89.0999988   5.5508926 147.9602707  88.3935743
   4.1672659 147.1140103  89.0221971   3.7880012 149.2364997  88.7349988
   4.1256803 150.2575955  88.8292858   2.5430012 149.0454997  88.2829988
   1.9893737 149.9510641  88.0803668   1.7870012 147.7994997  88.0059988
   1.3450524 147.7993978  87.0110604   2.3515517 146.8773672  88.0874566
   0.6040012 147.7934997  89.0779988   0.9761616 147.5786160  90.0790115
   0.1306062 148.7718739  89.1340346  -0.4709988 146.7224997  88.6779988
   0.0372253 145.8104585  88.3649555  -1.0603138 146.4572358  89.5514099
  -1.4029988 147.1904997  87.5569988  -1.9012370 148.0914540  87.9079761
  -0.7836942 147.4938114  86.7146516  -2.4689988 146.1444997  87.0659988
  -2.9822369 145.7259421  87.9297037  -3.2346610 146.6451103  86.4796751
  -1.8629988 144.9684997  86.2549988  -1.1977788 144.3921580  86.8954638
  -2.6599072 144.2889739  85.9583244  -1.0809988 145.3914997  84.9869988
  -0.0905294 145.7848368  85.2018734  -0.9251658 144.5435221  84.3237017
  -1.9189988 146.4754997  84.2289988  -1.4481529 146.7369295  83.2861162
  -2.0185294 147.3882533  84.8066799  -2.9193542 146.1129880  84.0098743
 115.2990012 142.5844997  82.9609988 114.4183030 142.0003635  82.7128361
 116.0618766 142.3649496  82.2196426 115.0375335 143.6345403  82.8627063
 115.8180012 142.2554997  84.4429988 116.0087398 141.1841725  84.4758600
 114.9773345 142.4363227  85.1073756 117.0210012 142.9814997  84.9309988
 116.8845529 144.0615853  84.8787881 117.8851232 142.7567299  84.3089516
 117.3370012 142.5914997  86.3409988 117.6738515 141.5572181  86.3475864
 116.4253238 142.6154076  86.9359599 118.3680012 143.4284997  86.9909988
 118.3881819 144.4058558  86.5156666 119.3422594 142.9788768  86.8065395
 118.1690012 143.6194997  88.5439988 117.1384009 143.8969181  88.7578189
 118.7857276 144.4408534  88.9026121 118.5100012 142.3894997  89.2939988
 119.5578990 142.1196837  89.1761879 117.9343309 141.5314343  88.9496768
 118.2250012 142.6254997  90.7249988 117.1480660 142.6151667  90.8879556
 118.5652745 143.6205842  91.0055427 118.8910012 141.5794997  91.6499988
 119.0212067 140.6674905  91.0713565 118.1790312 141.3395055  92.4387183
 120.2190012 141.9724997  92.2759988 120.7971423 142.4177865  91.4692947
 120.7157820 141.0355200  92.5264124 120.2330012 142.8934997  93.5019988
 119.4116004 143.6020292  93.4193693 121.1454213 143.4873155  93.5024522
 120.1020012 142.1394997  94.8819988 120.9094712 141.4309279  95.0497401
 119.1778350 141.5683083  94.9477813 120.0980012 143.2554997  96.0349988
 119.8811236 142.7440680  96.9712967 119.2646516 143.9291723  95.8562038
 121.4270012 144.1144997  96.2399988 121.6795168 144.6273069  95.3177138
 122.2482042 143.4368821  96.4580630 121.3260012 145.1374997  97.3729988
 121.0418105 144.6518215  98.2978736 120.5860580 145.8924315  97.1350260
 120.2790012 146.1764997  96.8609988 119.8160012 146.3014997  95.7339988
 119.9580012 146.9334997  97.8919988 118.8820012 147.8394997  97.7779988
 118.8745485 148.0292616  96.7152679 119.0728874 148.7654913  98.3007740
 117.4940012 147.2014997  98.2349988 116.7694336 147.9989051  98.2413603
 117.5100012 146.5004997  99.5999988 116.5879172 145.9514778  99.7346730
 117.5718116 147.2671384 100.3622517 118.5770012 145.6644997  99.6819988
 118.3500012 144.0524997  99.9469988 117.5820012 143.9964997 101.2869988
 117.8760012 144.8244997 102.4239988 118.7708413 145.4261295 102.3318479
 117.9916871 144.2372215 103.3303751 116.6140012 145.7254997 102.6749988
 116.5149271 146.4338750 101.8622026 116.6762154 146.2710825 103.6055071
 115.2980012 144.9654997 102.7239988 114.7150012 144.4354997 101.4729988
 114.6750064 145.2342927 100.7452185 113.7148016 144.0917219 101.6909841
 115.3162199 143.6070539 101.1295885 115.3780012 143.8884997 103.7619988
 115.7445395 144.3231404 104.6793052 116.0285285 143.1083689 103.4090397
 114.3784966 143.5047822 103.9070800 114.2550012 145.9124997 103.3159988
 114.5779760 146.2289906 104.2966122 113.3106906 145.3951770 103.3954016
 114.1425254 146.7729847 102.6722988 117.4810012 143.5804997  98.8089988
 119.6790012 143.3694997 100.0809988 117.1370012 146.3384997  97.1289988
 115.9060012 145.8084997  97.0709988 114.9550012 146.1374997  97.7399988
 115.8120012 144.8414997  95.9089988 116.8061504 144.4954743  95.6453954
 115.2490622 143.9514043  96.1786967 115.1450012 145.5844997  94.7609988
 114.8026945 144.8443083  94.0461534 114.2517120 146.0684239  95.1429474
 116.0720012 146.6664997  93.9989988 115.4091256 147.3098930  93.4260285
 116.5077817 147.2929615  94.7734055 117.2330012 146.1264997  93.0759988
 117.8643781 145.4166446  93.6072002 116.8707562 145.6083460  92.1914099
 118.1150012 147.3264997  92.6289988 117.5566227 147.9841583  91.9659757
 118.3822808 147.9268761  93.4964610 119.4330012 146.8634997  91.9139988
 120.0153250 146.2294280  92.5807470 119.2123058 146.2635636  91.0355409
 120.2940012 148.0794997  91.4809988 119.6718894 148.8171288  90.9875818
 120.7020677 148.5652543  92.3663631 121.4430012 147.6504997  90.5909988
 122.0914611 146.9171400  91.0462321 121.7460012 148.0444997  89.3349988
 122.6338190 147.6358241  88.8741584 120.9740012 149.0204997  88.4449988
 119.9642213 149.1235900  88.8386206 121.4102731 150.0129501  88.4647452
 120.8740012 148.5264997  86.9649988 120.9256923 149.3794063  86.2892892
 121.7396635 147.9070921  86.7382346 119.5770012 147.7164997  86.6799988
 119.4359809 147.0322350  87.5166601 118.7423692 148.4113864  86.7120290
 119.5330012 146.9344997  85.3829988 120.3690281 146.2403594  85.3342833
 118.6305314 146.3281171  85.3288371 119.5740012 147.8924997  84.1769988
 118.7359710 148.5865708  84.2006786 120.4693160 148.5081587  84.1774942
 119.4850012 147.0714997  82.8359988 120.4776222 147.0666641  82.3892740
 119.2689146 146.0384514  83.1023669 118.4560012 147.5294997  81.7539988
 117.6625690 148.0887250  82.2435367 118.9723772 148.2443689  81.1171073
 117.8360012 146.4294997  80.8639988 117.2065481 146.8657827  80.0942488
 117.2210012 145.7434162  81.4365418 118.6076533 145.8465299  80.3691854
  21.7900012  -1.5025003  82.5859988  21.5461473  -1.9283558  81.6176954
  20.9396081  -1.6633537  83.2423126  22.6286144  -2.0620139  82.9913189
  22.1290012  -0.0015003  82.4689988  21.2693893   0.4901313  82.0167059
  22.9417141   0.0849058  81.7528663  22.4970012   0.7244997  83.7789988
  22.4986535   1.7975228  83.5878244  23.5235306   0.4610592  84.0259955
  21.6140012   0.4294997  84.9949988  21.5817250  -0.6369300  85.2069800
  20.5815800   0.7364129  84.8349462  22.1970012   1.1844997  86.2699988
  23.2804909   1.2142124  86.1879009  21.9734649   0.5763414  87.1449502
  21.6630012   2.6464997  86.5039988  20.5805074   2.6057955  86.6106164
  21.8586277   3.2335904  85.6092185  22.2550012   3.3494997  87.6989988
  23.3277111   3.3948629  87.5200980  22.1156086   2.6759535  88.5434722
  21.7210012   4.8124997  88.0939988  21.3548738   5.3296554  87.2080237
  22.5371907   5.4179803  88.4837575  20.5930012   4.7424997  89.1449988
  19.8966909   3.9436356  88.8990126  20.0122580   5.6640589  89.1384488
  21.1670012   4.5054997  90.5779988  21.0943067   5.3978980  91.1957688
  22.2222476   4.2345681  90.5560884  20.3360012   3.3184997  91.2359988
  19.3084744   3.4396139  90.8997531  20.3251686   3.4945251  92.3102546
  20.7700012   1.8564997  90.9619988  20.7146998   1.6711236  89.8920471
  20.0421387   1.1918404  91.4236418  22.1710012   1.4954997  91.4909988
  22.8889004   2.1666390  91.0225495  22.4327165   0.4933097  91.1632879
  22.3590012   1.5904997  93.0239988  21.3838872   1.6386577  93.4974738
  22.8606178   2.5298955  93.2408125  23.1460012   0.4804997  93.6339988
  24.1120287   0.3921942  93.1533388  22.6175826  -0.4594931  93.5279023
  22.9930012   0.5884997  95.1819988  22.7780012  -0.3495003  95.9509988
  23.2140012   1.7864997  95.5649988  23.2200012   2.0234997  97.0189988
  23.9397405   2.8027418  97.2195452  23.5867154   1.0913417  97.4237137
  21.8650012   2.3864997  97.6229988  21.4343971   3.2730964  97.1877741
  22.0590012   2.5944997  99.2169988  22.6684838   3.4728540  99.3807836
  22.5936509   1.7276933  99.5849410  20.7480012   2.7314997  99.9149988
  20.7390012   2.6484997 101.5069988  19.3090012   3.0864997 102.0379988
  18.1660012   3.0204997 101.2249988  18.2024993   3.7435724 100.4206215
  17.2884396   3.2628368 101.8174136  17.8990012   1.5514997 100.6629988
  18.8703492   1.1573975 100.3920457  17.2850553   1.6026109  99.7753980
  17.2640012   0.5064997 101.5459988  15.8140012   0.9544997 101.8449988
  15.8348752   1.9741586 102.2044344  15.4165382   0.3065865 102.6120266
  15.2243010   0.8560169 100.9459594  17.2770012  -0.8755003 100.7889988
  18.2751861  -1.0547364 100.4199254  16.5611391  -0.8433424  99.9872025
  17.0036426  -1.6380266 101.5039294  17.9960012   0.3004997 102.8149988
  19.0119408   0.0073195 102.5959232  17.5091163  -0.4779478 103.3829888
  17.9947955   1.2183105 103.3851363  20.9380012   1.2514997 101.8569988
  21.7970012   3.5954997 101.9809988  20.9780012   1.2814997  97.4479988
  19.9260012   1.5084997  96.6269988  19.7720012   2.5314997  95.9509988
  19.0130012   0.3214997  96.6439988  19.6413262  -0.5621241  96.5996175
  18.5082599   0.2795227  97.6059661  17.9920012   0.3654997  95.4799988
  17.1547606  -0.2815423  95.7175401  17.5814924   1.3660712  95.3884995
  18.5930012  -0.0665003  94.1589988  19.3588309   0.6379790  93.8445665
  19.0953855  -1.0216861  94.2905099  17.5660012  -0.2135003  93.0919988
  16.6002381  -0.4068592  93.5552699  17.4559591   0.7142452  92.5357785
  17.8660012  -1.3565003  92.0999988  18.8733044  -1.2984496  91.6927257
  17.7890795  -2.3301206  92.5801318  16.8480012  -1.2935003  90.9519988
  16.8784233  -2.2670233  90.4651431  15.8614983  -1.2046471  91.3983566
  17.0060012  -0.2165003  89.9179988  16.1069695  -0.2153744  89.3127544
  17.0187632   0.7338312  90.4500261  18.2280012  -0.3025003  89.0659988
  19.0185089   0.3488998  89.4070697  18.4780012  -1.0485003  87.9929988
  19.4705871  -0.9109118  87.5887061  17.6270012  -2.0665003  87.2269988
  18.3032957  -2.8821802  86.9769729  16.8922366  -2.4796297  87.9090004
  16.9580012  -1.6305003  85.9949988  16.4616913  -2.4943841  85.5544465
  16.1673358  -0.9383995  86.2783779  17.8620012  -0.9625003  84.9389988
  18.2774988  -0.0497501  85.3660301  18.7071538  -1.6135123  84.7330755
  17.1210012  -0.6135003  83.5809988  17.8203343  -0.1148426  82.9136018
  16.8255917  -1.5336309  83.0798221  15.8750012   0.2714997  83.7949988
  15.1970897  -0.2487961  84.4690302  16.1708014   1.1791421  84.3139520
  15.1070012   0.6194997  82.5409988  15.7998535   1.0566118  81.8242201
  14.7517733  -0.3060272  82.0915022  13.8690012   1.6044997  82.7129988
  13.3589781   1.7658519  81.7665544  13.1354760   1.1412317  83.3692279
  14.2730012   2.9384997  83.3009988  13.4004893   3.5568420  83.4892666
  14.9271589   3.4930454  82.6366963  14.7952474   2.8072786  84.2444927
 127.5550012 141.6024997  82.5969988 128.1596114 140.8585607  82.0876559
 128.2234802 142.2318307  83.1774022 127.0912936 142.2271486  81.8384468
 126.5210012 140.9584997  83.4709988 127.0580114 140.3142980  84.1651366
 125.9455851 140.2997673  82.8261871 125.5740012 141.8834997  84.2659988
 125.9801064 142.8884837  84.3800801 125.4083671 141.5093936  85.2743543
 124.2160012 141.9634997  83.5459988 123.9444058 140.9368848  83.3103126
 124.4003223 142.4533574  82.5911317 123.0470012 142.6264997  84.2299988
 122.3143688 142.8334579  83.4541179 123.4159252 143.5935903  84.5676313
 122.3260012 141.8934997  85.4339988 121.4280052 142.4888449  85.5888671
 122.9773389 142.0996244  86.2806680 121.9540012 140.4074997  85.4329988
 122.8375983 139.8633534  85.1044703 121.2058898 140.2721468  84.6531020
 121.4310012 139.7844997  86.7599988 122.2314097 139.8283103  87.4974795
 121.2330553 138.7280082  86.5887470 120.1540012 140.4574997  87.3469988
 119.3550920 140.3536179  86.6159080 120.3483427 141.5257459  87.4345112
 119.6700012 139.9094997  88.7209988 118.9575160 139.1359484  88.4430017
 119.0837859 140.7308453  89.1323041 120.6380012 139.3734997  89.8159988
 121.2836164 138.6315262  89.3510285 120.0503764 138.8388550  90.5602972
 121.5070012 140.3924997  90.5069988 122.1656188 140.8706608  89.7860246
 122.1543108 139.8922143  91.2248949 120.6930012 141.4314997  91.2349988
 119.6325793 141.2399457  91.0798712 120.8831391 142.4262960  90.8419315
 120.9640012 141.4314997  92.7829988 120.4853775 142.3394113  93.1350795
 122.0363314 141.5962557  92.8466794 120.5910012 140.2674997  93.7179988
 121.0312621 139.3430351  93.3664640 119.5150234 140.1465610  93.7594073
 121.0660012 140.5044997  95.1309988 121.1310012 141.5604997  95.7829988
 121.3300012 139.3124997  95.6209988 121.5670012 139.3314997  97.0569988
 120.5826042 139.2280965  97.4879656 121.9567272 140.3100530  97.2972881
 122.4970012 138.2244997  97.5809988 122.0684358 137.2407110  97.4841195
 122.8840012 138.4974997  99.0959988 122.0349959 138.3581995  99.7514273
 123.2396343 139.5149529  99.2003972 123.9460012 137.5504997  99.4269988
 124.3980012 137.4354997 100.9539988 124.4780012 138.9384997 101.3589988
 123.8740012 139.3934997 102.4989988 123.9040823 138.7037398 103.3323747
 122.8266777 139.6262400 102.3294625 124.5200012 140.7124997 102.8619988
 125.5607423 140.5476323 103.1108472 124.0174767 141.1240797 103.7253921
 124.5150012 141.8024997 101.8219988 123.1510012 141.8174997 101.2099988
 122.9005363 140.8122019 100.9001959 123.1797215 142.4671888 100.3479203
 122.4472142 142.2039765 101.9318273 124.8500012 143.1524997 102.5479988
 125.7336500 143.0075967 103.1503956 124.0080963 143.4461819 103.1490953
 125.0397031 143.8920045 101.7835102 125.4810012 141.5764997 100.7489988
 126.4713374 141.4994211 101.1725257 125.4458314 142.4065125 100.0594396
 125.2337882 140.6629756 100.2276595 123.4510012 136.6644997 101.8039988
 125.7840012 136.8954997 100.9469988 123.6830012 138.2834997  96.6839988
 124.2280012 137.1264997  96.3209988 123.7550012 136.0294997  96.7649988
 125.4280012 137.4294997  95.4659988 125.1913335 138.2856650  94.8426831
 126.2626467 137.7379780  96.0905906 125.7960012 136.1734997  94.6169988
 126.6935057 136.4697545  94.0852284 126.1099587 135.4342700  95.3470694
 124.8210012 135.5474997  93.6359988 125.2959687 134.6889932  93.1679961
 123.9811170 135.1564798  94.2050005 124.2680012 136.5264997  92.5329988
 123.7109674 137.3516519  92.9729342 125.0484977 136.9768848  91.9245743
 123.3340012 135.7484997  91.6319988 123.8252410 134.8555361  91.2509469
 122.4762671 135.4012612  92.2047978 122.8160012 136.6134997  90.4259988
 122.0945564 135.9916667  89.8982277 122.2557683 137.4447096  90.8449823
 123.8870012 137.1924997  89.3759988 123.3291203 137.7606972  88.6408114
 124.4955071 137.9118955  89.9223835 124.7970012 136.1984997  88.7149988
 125.7620697 136.0652402  89.1802284 124.5360012 135.4594997  87.6299988
 125.3016913 134.7957658  87.2547842 123.2430012 135.4314997  86.8279988
 122.8132779 134.4400738  86.9607907 122.5323818 136.1300724  87.2554298
 123.3790012 135.7004997  85.3119988 123.9448692 134.8818698  84.8688921
 122.3827224 135.6509248  84.8767631 124.0360012 137.0504997  84.9279988
 123.4484187 137.8048188  85.4513117 125.0114011 137.0395305  85.4065159
 124.1950012 137.4684997  83.4349988 123.2495269 137.7990850  83.0108092
 124.8889414 138.2987038  83.3154454 124.7270012 136.2404997  82.6499988
 124.1491066 135.3430856  82.8627801 124.6789867 136.3759505  81.5729785
 126.1400012 135.9884997  83.0719988 126.1535924 135.9153280  84.1579749
 126.4238294 135.0057962  82.6997497 127.2310012 137.0214997  82.6289988
 127.2319574 137.8663486  83.3132095 128.2007766 136.5432729  82.7479431
 127.1070012 137.5314997  81.1889988 127.9459960 138.1716041  80.9332196
 126.2006236 138.1085316  81.0398180 127.0929300 136.7064741  80.4824042
   2.4340012  20.1894997  84.9809988   3.4523534  20.2465764  84.6093405
   2.2513067  21.0742931  85.5839526   1.7667927  20.2317955  84.1244616
   2.2050012  18.8894997  85.8049988   2.9598638  18.9187288  86.5889191
   2.4946016  18.0867830  85.1322495   0.8580012  18.5894997  86.4229988
   0.0564353  18.7786183  85.7090973   0.6778632  19.2584355  87.2621925
   0.7610012  17.1804997  86.9109988   1.7703594  16.7750180  86.9054805
   0.2039595  16.6126713  86.1673715   0.1370012  16.9414997  88.3149988
  -0.2332603  15.9204226  88.3583700  -0.7354800  17.5868438  88.4025917
   1.0580012  17.1814997  89.4979988   0.4524408  17.2754298  90.3976047
   1.5551226  18.1399560  89.3645494   2.1350012  16.0674997  89.7139988
   2.9070216  16.2286707  88.9638132   1.6600947  15.1199951  89.4631425
   2.8000012  15.9534997  91.1209988   3.3167242  16.8842693  91.3514681
   3.5646116  15.1792273  91.0973920   1.7820012  15.6354997  92.2579988
   1.3063736  14.6913726  92.0012041   1.0011304  16.3931167  92.2047610
   2.3270012  15.5594997  93.7189988   1.5720938  15.3263674  94.4667041
   2.8260823  16.4656623  94.0613673   3.3610012  14.4104997  93.6339988
   4.1386949  14.6957777  92.9287684   2.8827678  13.5266977  93.2152925
   4.0380012  14.0364997  94.9859988   4.6174590  13.1321804  94.8167230
   3.2405709  13.7621630  95.6741225   4.9110012  15.1054997  95.6499988
   5.5129454  14.6499903  96.4344899   4.3026494  15.8638173  96.1349075
   5.8520012  15.7784997  94.6699988   5.3170790  16.2299068  93.8408819
   6.5408895  15.0545159  94.2429479   6.6700012  16.8644997  95.3969988
   7.1867612  16.4425020  96.2495936   6.0193065  17.6588256  95.7429927
   5.9070012  18.1664997  95.3609988   5.6470012  18.7874997  94.3689988
   5.6450012  18.6324997  96.6139988   4.9190012  19.8354997  96.7829988
   5.1237186  20.3473846  95.8548142   5.4249992  20.3482370  97.5881438
   3.4100012  19.7754997  97.0339988   2.9650421  20.7542743  97.1040384
   3.1760012  18.9744997  98.3949988   2.2060492  19.2783519  98.7646853
   3.9368941  19.3497644  99.0679054   3.2510012  17.5674997  98.3029988
   3.2120012  16.7434997  99.6809988   3.3550012  17.8134997 100.7959988
   3.5390012  17.4514997 102.1499988   4.5849432  17.4829275 102.4260540
   3.2149417  16.4239206 102.2873444   2.7030012  18.2604997 103.1059988
   2.8036423  17.8809918 104.1150053   1.6593473  18.2344145 102.8276408
   3.0940012  19.7904997 103.1809988   2.9560012  20.4214997 101.7929988
   3.4960672  19.8120825 101.0814698   3.3918893  21.4087485 101.8309622
   1.9079010  20.4973361 101.5451039   2.0990012  20.4634997 104.1089988
   2.0384903  19.8895649 105.0209479   1.1444903  20.5222170 103.6172353
   2.4729285  21.4551096 104.3192013   4.5320012  20.0144997 103.6299988
   4.6752281  19.5653772 104.6015218   4.7237522  21.0753029 103.6898158
   5.2069505  19.5650696 102.9159322   1.9340012  16.0124997  99.7399988
   4.5010012  16.0564997  99.6919988   2.8190012  19.1184997  95.9259988
   1.5340012  19.3374997  95.8349988   0.8450012  20.1104997  96.4889988
   0.9360012  18.5684997  94.6629988   1.7294304  18.4321613  93.9353760
   0.6651363  17.5704155  94.9982110  -0.2479988  19.2814997  94.0759988
  -0.7027874  18.6403838  93.3288717  -0.9990586  19.4240425  94.8464686
   0.1020012  20.6284997  93.4349988  -0.7466304  21.0133713  92.8752200
   0.3042253  21.3559856  94.2172613   1.3410012  20.5334997  92.5189988
   2.2410310  20.6634946  93.1171239   1.4163224  19.5475327  92.0668950
   1.3440012  21.5934997  91.4029988   0.4482522  21.4602225  90.7998636
   1.2486765  22.5693032  91.8753351   2.5680012  21.6094997  90.4939988
   2.4600995  20.8128239  89.7595834   2.5923466  22.5406718  89.9348531
   3.8890012  21.4454997  91.2209988   3.9019831  22.0032676  92.1501416
   4.0533230  20.4022059  91.4872362   5.0150012  21.8954997  90.2929988
   5.0459952  22.9436478  90.0361352   5.9790012  21.1084997  89.7769988
   6.7681941  21.5147108  89.1607383   6.0760012  19.5674997  90.0009988
   7.1495804  19.4014071  90.0721459   5.6759157  19.3964549  90.9941535
   5.4990012  18.5414997  89.0409988   5.5592820  17.5387408  89.4623606
   4.4415829  18.7368076  88.8731283   6.2440012  18.5774997  87.6859988
   5.8443906  19.3678944  87.0506292   7.2976493  18.8032770  87.8251183
   6.0970012  17.1934997  86.9469988   6.4828873  16.4312208  87.6201762
   5.0330414  16.9913886  86.8364281   6.7840012  17.0754997  85.5669988
   6.4607339  17.8863573  84.9169232   7.8615744  17.1804572  85.6588950
   6.4360012  15.7244997  84.8599988   6.6111662  14.8997034  85.5484110
   5.3726184  15.7036678  84.6284449   7.2360012  15.4514997  83.5429988
   7.3876358  16.3929530  83.0208996   8.2268709  15.1148175  83.8398746
   6.6280012  14.4104997  82.5649988   7.2979707  14.2289088  81.7299931
   5.6807316  14.7442075  82.1550470   6.4555682  13.4607309  83.0633433
 137.4110012 136.9104997  85.6749988 137.6831200 136.6512128  84.6565928
 137.6530917 136.0622679  86.3087851 138.0394254 137.7414498  85.9835709
 135.8970012 137.2814997  85.7809988 135.3149670 136.4328640  85.4256726
 135.7051911 138.0952068  85.0868060 135.4300012 137.6584997  87.1629988
 134.3846795 137.9638012  87.1180244 135.9860140 138.5352579  87.4890597
 135.5940012 136.5384997  88.2409988 135.5649690 137.0265487  89.2127062
 136.5968793 136.1263820  88.1404976 134.5690012 135.3914997  88.2359988
 134.8815093 134.6288574  88.9447219 134.5847409 134.9210769  87.2542556
 133.1050012 135.8294997  88.5749988 132.4704589 134.9689337  88.3710396
 132.8323461 136.5883397  87.8446578 132.8000012 136.3694997  90.0239988
 133.3152318 137.3150916  90.1826279 133.1959280 135.6788621  90.7672966
 131.2560012 136.5704997  90.2709988 130.6966501 135.6462344  90.1320344
 130.8223616 137.2944299  89.5835646 131.0650012 137.0694997  91.7249988
 130.0145255 137.3245374  91.8474632 131.6176918 138.0027253  91.8259939
 131.4950012 136.0914997  92.8609988 132.4979761 135.7429226  92.6247058
 130.8470044 135.2171763  92.8054303 131.4570012 136.6704997  94.3219988
 130.4297032 136.9133732  94.5850810 132.0097487 137.6073426  94.3658563
 132.0230012 135.6854997  95.4009988 131.3510851 134.8332205  95.4670902
 131.9744022 136.1864044  96.3660908 133.5380012 135.1814997  95.1569988
 134.2122035 136.0128730  94.9581986 133.6375978 134.5012045  94.3158371
 134.0230012 134.4714997  96.4389988 133.4663684 133.5624876  96.6419815
 133.9048755 135.1132872  97.3080483 135.5010012 134.1304997  96.2849988
 136.0723098 135.0191829  96.0485892 135.6405090 133.4060761  95.4913886
 136.3490012 135.3134997  96.6049988 136.7540012 136.0734997  95.7509988
 136.7310012 135.2444997  97.8649988 137.5840012 136.2594997  98.3599988
 138.2073110 136.4629472  97.5023532 138.2031016 135.9005213  99.1693449
 136.7830012 137.5824997  98.7919988 137.5059560 138.3386311  99.0498661
 135.8230012 137.3024997 100.0369988 135.4845383 138.2428187 100.4505734
 136.4030993 136.7816954 100.7885532 134.7370012 136.5264997  99.6379988
 133.2910012 137.0944997  99.9589988 133.1180012 136.7034997 101.4619988
 133.5410012 135.5844997 102.1139988 133.9140567 135.7313791 103.1192077
 134.3182091 135.0540183 101.5714728 132.3510012 134.6574997 102.1079988
 132.6666940 133.7065246 102.5181615 132.0860208 134.5172132 101.0699804
 131.0450012 135.0114997 102.8319988 131.4320012 135.4464997 104.1899988
 132.0791633 134.6954469 104.6217798 130.5323385 135.5344950 104.7807305
 131.9182374 136.4082825 104.1246902 130.2540012 136.0784997 102.0979988
 130.1650964 135.7877078 101.0625037 130.7593925 137.0222474 102.1994374
 129.2760437 136.1270992 102.5546544 130.2660012 133.7104997 102.8799988
 130.1113738 133.3512840 101.8734520 129.3111595 133.8860295 103.3523510
 130.8212059 132.9784627 103.4485976 133.2620012 138.5584997  99.7489988
 132.3190012 136.3514997  99.1489988 136.0580012 138.0824997  97.5679988
 135.6490012 139.3324997  97.6059988 135.7200012 140.0824997  98.5849988
 134.7250012 139.6114997  96.4359988 135.1856578 139.0531265  95.6275633
 133.8069126 139.0818677  96.6778878 134.4490012 140.9984997  96.0559988
 134.0028347 141.5063679  96.9039766 135.3866493 141.5087966  95.8599224
 133.5200012 141.1334997  94.8449988 132.5795928 140.6269635  95.0467590
 133.2755997 142.1843887  94.7109643 134.1470012 140.5924997  93.5139988
 135.0017248 141.2127142  93.2503942 134.5339116 139.5863772  93.6561958
 133.1710012 140.5854997  92.3279988 133.5291067 139.8753793  91.5854421
 132.2173800 140.1985684  92.6819364 132.9320012 141.9364997  91.6619988
 132.4045520 142.5186749  92.4160348 133.9154720 142.3866468  91.5596726
 132.1670012 142.0614997  90.2699988 131.1887830 141.6228723  90.4289809
 132.0043007 143.1280738  90.1206867 132.8230012 141.4954997  89.0329988
 133.8293497 141.8562307  88.8823678 132.3540012 140.6404997  88.1489988
 133.0196685 140.3833891  87.3375857 131.0300012 139.9554997  88.0899988
 131.1984305 138.9792268  87.6386189 130.6667162 139.7670685  89.0940898
 129.9140012 140.6964997  87.2599988 128.9906873 140.1381896  87.4099536
 129.7677202 141.6601232  87.7442410 130.1430012 140.9174997  85.7479988
 129.3518441 141.5493415  85.3443238 131.0736293 141.4533282  85.5827020
 130.1730012 139.5994997  84.9819988 131.0334379 139.0099201  85.2905267
 129.2942855 139.0014753  85.2171809 130.2240012 139.8464997  83.4839988
 129.3421930 140.4230956  83.2109759 131.0752896 140.4868987  83.2699378
 130.2700012 138.5194997  82.5339988 129.3243906 137.9924163  82.6475186
 130.3073364 138.8527053  81.4984245 131.4180012 137.5204997  82.7669988
 132.3731121 138.0139796  82.9287254 131.2310379 136.9360529  83.6652080
 131.5320012 136.5724997  81.5819988 132.2790924 135.8074886  81.7708951
 131.8203715 137.0912463  80.6739869 130.5871580 136.0719108  81.3901053
  14.6140012   5.9624997  83.4139988  15.2918612   6.2061236  82.6018521
  15.0981680   5.2160215  84.0370098  14.4833846   6.8580445  84.0152897
  13.2940012   5.4634997  82.8929988  13.4185349   4.5678165  82.2868255
  12.8197499   6.2020617  82.2523538  12.4010012   5.1464997  84.0699988
  11.3526192   5.2045768  83.7776782  12.5390996   5.8963281  84.8464376
  12.6840012   3.7554997  84.6769988  13.7351923   3.6536872  84.9375395
  12.4698691   2.9556511  83.9698242  11.8600012   3.5564997  85.9179988
  11.8203149   2.4920794  86.1348109  10.8403289   3.8591774  85.6855776
  12.3360012   4.3024997  87.1729988  12.5767893   5.3386490  86.9422770
  13.2475583   3.8591178  87.5680343  11.2690012   4.2644997  88.2289988
  11.2151706   3.2525048  88.6261620  10.3082470   4.4560678  87.7530964
  11.4670012   5.2534997  89.3869988  10.6166890   5.2174072  90.0667911
  11.5133700   6.2743344  89.0122584  12.7920012   4.9324997  90.1909988
  12.8620985   5.5985360  91.0483336  13.6553082   5.1526256  89.5642432
  12.8720012   3.4834997  90.6679988  12.6914348   2.8242396  89.8217890
  12.0668633   3.2962857  91.3780219  14.2010012   3.1414997  91.3189988
  15.0157148   3.3218609  90.6209640  14.2478742   2.0835499  91.5713343
  14.4560012   3.9824997  92.5939988  14.2273896   5.0144199  92.3388587
  15.5281299   3.9452401  92.7779057  13.7080012   3.5734997  93.9089988
  13.7816828   2.4975296  94.0576976  12.6472018   3.8006354  93.8507924
  14.3280012   4.2954997  95.2019988  14.9640199   3.5797609  95.7124331
  13.4988135   4.5120466  95.8703156  15.1320012   5.6184997  94.9599988
  14.5267788   6.3366101  94.4214226  16.0269437   5.4162227  94.3836040
  15.4220012   6.2094997  96.3369988  15.4830012   5.6174997  97.4039988
  15.4130012   7.5764997  96.1979988  15.0270012   8.1854997  97.4609988
  15.4323664   9.1852896  97.4214879  15.4443801   7.6685867  98.3129306
  13.4390012   8.2374997  97.5479988  13.0586550   9.0407552  96.9388918
  13.1570012   8.5274997  99.0299988  12.1277406   8.8449101  99.1283570
  13.8021907   9.3491181  99.3150577  13.4120012   7.3754997  99.8619988
  12.6710012   6.9594997 101.1589988  11.2550012   6.3704997 100.6699988
  11.0590012   5.1364997 100.1039988  11.9259226   4.8218414  99.5377600
  10.2359858   5.1989341  99.3979218  10.6330012   4.0394997 101.1349988
  11.4618288   3.7590376 101.7726779  10.3510719   3.1854941 100.5361939
   9.4420012   4.3034997 102.0849988   9.8120012   5.4494997 103.0579988
  10.7652192   5.2206197 103.5144232   9.0473950   5.5005241 103.8188364
   9.8404581   6.3792333 102.5098177   8.1660012   4.6214997 101.3359988
   8.0154297   3.8666433 100.5795372   8.2486208   5.6019854 100.9021881
   7.3566663   4.5961053 102.0512814   9.1910012   3.1314997 102.9699988
   8.9928032   2.2620517 102.3610161   8.3362169   3.3369151 103.5967350
  10.0587134   2.9546483 103.5890578  13.4860012   5.9474997 101.9319988
  12.5220012   8.2684997 101.8699988  12.8100012   7.0144997  97.0649988
  11.4680012   6.8574997  97.2459988  10.7400012   7.5154997  97.9589988
  10.9090012   5.6394997  96.5019988  11.6486529   5.2063511  95.8365286
  10.5967727   4.8352044  97.1634590   9.7370012   6.2064997  95.7479988
   8.8628542   6.2371380  96.3890834   9.9294136   7.2333188  95.4536300
   9.4330012   5.3914997  94.5549988  10.3150306   5.3829171  93.9197000
   9.2941466   4.3680890  94.8947268   8.1960012   5.8094997  93.7359988
   8.0367873   5.0470019  92.9757658   7.3204742   5.7838551  94.3802013
   8.2600012   7.1594997  93.0509988   7.2576071   7.5330508  92.8520849
   8.7268012   7.8838519  93.7156736   9.0510012   7.1134997  91.7469988
  10.0639429   6.7797402  91.9666680   8.6204782   6.3696677  91.0824072
   9.1100012   8.4844997  90.9929988   9.2771135   9.2267626  91.7648143
  10.0254297   8.4427276  90.4042784   7.9930012   8.8804997  90.1039988
   7.1761298   9.4670339  90.4967489   7.9410012   8.5474997  88.7679988
   7.1079049   8.8873409  88.1696105   8.9500012   7.7364997  88.0079988
   9.7878365   7.5863125  88.6867452   8.5366658   6.7530854  87.8137535
   9.4940012   8.3314997  86.6949988  10.0411871   7.5345935  86.1927706
   8.6247739   8.5403494  86.0742857  10.4090012   9.6384997  86.7739988
   9.9847008  10.3112962  87.5192646  11.3920561   9.3584686  87.1423593
  10.5550012  10.3804997  85.4549988   9.5936120  10.6013657  84.9966386
  11.0675157  11.3349514  85.5619366  11.3880012   9.4524997  84.5219988
  12.2249846   9.0034384  85.0534051  10.8026029   8.6228652  84.1351648
  11.9560012  10.2814997  83.3609988  11.1775736  10.8132785  82.8168070
  12.6552198  11.0408320  83.7064574  12.7190012   9.3164997  82.3419988
  13.5117747   8.7790122  82.8563258  12.0159258   8.5571836  82.0066823
  13.2950012  10.0234997  81.1209988  13.7220596   9.3065481  80.4262538
  14.0796585  10.7226206  81.3898553  12.5254750  10.5786545  80.5920625
 140.0680012   4.3854997  83.0609988 139.9967701   5.4531223  82.8778674
 140.8084385   3.9807325  82.3771084 140.4435466   4.2478684  84.0712637
 138.6570012   3.6704997  82.8719988 138.3237274   3.8921493  81.8595744
 137.9632565   4.1751164  83.5390027 138.6010012   2.1604997  83.0999988
 139.2747371   1.6710514  82.3968279 137.6003427   1.8143793  82.8488925
 138.9340012   1.6954997  84.5299988 139.9800149   1.9144277  84.7329168
 138.8349743   0.6129139  84.5925113 138.0870012   2.3394997  85.6069988
 137.0603634   2.4702891  85.2746103 138.4620122   3.3348275  85.8394945
 138.0920012   1.4504997  86.9359988 139.1043716   1.3620866  87.3260066
 137.7622465   0.4378999  86.7135567 137.1550012   2.0714997  88.0499988
 137.0582876   1.4098022  88.9088195 136.1446721   2.2378492  87.6787939
 137.7600012   3.4234997  88.5109988 137.9179343   4.0346322  87.6232909
 138.7479431   3.2220289  88.9209551 136.9510012   4.2104997  89.5219988
 136.6125475   3.5399882  90.3090214 136.0513828   4.5928364  89.0412884
 137.7070012   5.3494997  90.1319988 137.6305114   6.1829079  89.4371038
 138.7578738   5.0617390  90.1490112 137.2800012   5.8014997  91.5509988
 136.2005899   5.9371670  91.5535993 137.7082886   6.7819210  91.7521749
 137.6570012   4.8244997  92.7149988 138.7237158   4.6155346  92.6890676
 137.1565359   3.8704113  92.5603380 137.2600012   5.3674997  94.0889988
 137.5247374   6.4222817  94.1400047 137.8300716   4.8726331  94.8702803
 135.8100012   5.2434997  94.3939988 135.2666513   5.8480765  93.6752479
 135.6554078   5.6988132  95.3686179 135.2110012   3.8194997  94.4159988
 135.7598027   3.1881090  95.1031695 135.2532109   3.3769754  93.4278391
 135.8990012   2.8884997  95.3639988 136.1800012   1.7074997  95.1389988
 136.3240012   3.5484997  96.4759988 136.9080012   2.8354997  97.4729988
 137.5611696   2.0771001  97.0684459 136.1409165   2.3605622  98.0673114
 137.7270012   3.8554997  98.3279988 138.2214383   3.3443482  99.1374122
 136.7990012   4.9534997  98.8899988 136.0361097   4.4896545  99.5004455
 136.3225466   5.4320964  98.0435230 137.5480012   5.9254997  99.6649988
 137.8660012   5.3664997 101.1589988 139.3610012   4.8434997 101.2159988
 140.3770012   5.5074997 100.4069988 139.9117424   6.1064956  99.6350356
 140.9577637   4.7445149  99.8967379 141.4270012   6.3504997 101.2199988
 140.8446795   6.9581600 101.9011004 141.9674601   7.0021161 100.5486738
 142.4760012   5.6684997 102.0709988 143.5250012   5.1094997 101.1729988
 143.0436978   4.5184470 100.4059670 144.1703406   4.4791126 101.7665047
 144.0981696   5.9232093 100.7545831 142.9220012   6.7304997 103.0549988
 142.0454874   7.1675470 103.5082396 143.5051097   7.4688818 102.5342817
 143.5236576   6.2414747 103.8074356 141.7410012   4.6004997 102.8609988
 140.9647419   5.0652779 103.4504771 142.4393587   4.0983400 103.5135188
 141.3041668   3.8845576 102.1797957 137.7020012   6.5084997 102.0279988
 136.9660012   4.1964997 101.3269988 138.6960012   4.5064997  97.5009988
 139.8320012   3.8424997  97.2969988 140.1090012   2.7304997  97.6809988
 140.8630012   4.8194997  96.6669988 141.7046322   4.8716267  97.3500017
 141.2494189   4.3774155  95.7520398 140.2430012   6.2304997  96.3929988
 139.7863370   6.2349878  95.4093836 139.4404672   6.4250684  97.0973533
 141.3030012   7.3724997  96.4689988 140.8081189   8.3272002  96.6280346
 141.9330143   7.2088546  97.3398425 142.1830012   7.4434997  95.2449988
 142.8220602   8.3024624  95.4411937 142.8232545   6.5671355  95.3102936
 141.6380012   7.5604997  93.7919988 141.1900459   6.6013554  93.5404448
 140.8194376   8.2767247  93.8288287 142.6220012   7.9854997  92.6579988
 142.0422664   8.2500670  91.7750420 143.1578935   8.8832645  92.9532202
 143.6960012   6.8484997  92.2689988 144.3576360   6.6619550  93.1068654
 143.1744768   5.9120408  92.0755996 144.4640012   7.2244997  91.0529988
 145.2503031   7.9371635  91.2514766 144.3250012   6.8004997  89.7769988
 144.9808311   7.1711154  89.0023111 143.2860012   5.7944997  89.2849988
 143.7349933   5.1640845  88.5193593 142.9538519   5.1264958  90.0718461
 142.0760012   6.5004997  88.6739988 141.2278129   5.8312568  88.8132668
 141.8869752   7.3653761  89.3070208 142.1370012   6.9524997  87.2059988
 143.1498540   7.2363835  86.9202611 141.8405072   6.1592604  86.5252883
 141.2040012   8.1574997  87.0239988 140.2488934   8.0087369  87.5227812
 141.6241019   9.0725477  87.4378677 140.9850012   8.3384997  85.5179988
 141.9423603   8.3101496  85.0010367 140.4055354   7.5124256  85.1149527
 140.3190012   9.6444997  85.1859988 139.3793056   9.7648360  85.7220719
 140.9392816  10.4926435  85.4701434 140.0360012   9.7314997  83.6799988
 139.2601852   9.0039801  83.4547438 139.5793887  10.7072723  83.5293806
 141.2290012   9.5644997  82.6529988 140.8893874   9.7375784  81.6362514
 141.6573244   8.5684623  82.6874917 142.0253858  10.2734937  82.8609409
 141.3540012 132.8504997  82.4529988 141.9694767 132.3578451  81.7067345
 142.0156057 133.2548333  83.2136457 140.8568095 133.6877458  81.9708875
 140.3260012 131.8724997  83.0679988 140.8812550 131.0388282  83.4944822
 139.7422842 131.4628061  82.2480965 139.3910012 132.4604997  84.1419988
 138.6744174 131.7248169  84.5069749 138.8010778 133.2831095  83.7426562
 140.2150012 132.9804997  85.3099988 140.4139108 134.0324253  85.1172882
 141.1822816 132.4811038  85.2839550 139.6140012 132.8454997  86.7059988
 140.2795572 133.2905697  87.4412000 139.5390294 131.7897620  86.9612677
 138.2130012 133.5034997  86.8319988 137.5973435 133.0974437  86.0314357
 138.3368122 134.5620233  86.6134226 137.4790012 133.3464997  88.1619988
 136.4125396 133.4629165  87.9779421 137.7679471 134.1730088  88.8097818
 137.7240012 132.0244997  88.8909988 138.7844782 131.7761560  88.8781578
 137.2147865 131.2093672  88.3801725 137.2430012 132.0914997  90.3289988
 136.1554096 132.1129833  90.3140271 137.5598602 133.0488604  90.7408699
 137.7160012 130.9624997  91.2519988 138.7736773 130.8268425  91.0370168
 137.2158313 130.0582024  90.9063029 137.5060012 131.1074997  92.7379988
 138.0507666 131.9847388  93.0803773 137.9527513 130.2560598  93.2484814
 136.0210012 131.2494997  93.1799988 135.4709333 130.3720682  92.8487007
 135.5856048 132.0974687  92.6545955 135.8280012 131.4554997  94.6869988
 134.7548749 131.4574190  94.8704336 136.1820588 132.4503558  94.9422994
 136.4670012 130.4394997  95.6359988 136.1032997 130.6547600  96.6353632
 137.5331390 130.6503094  95.6371384 136.2640012 128.9454997  95.3349988
 136.5898194 128.7139520  94.3288829 135.2180016 128.6797514  95.4315996
 137.1510012 128.0604997  96.1129988 136.7820012 126.9814997  96.5999988
 138.3770012 128.5784997  96.2509988 139.1810012 127.9774997  97.1709988
 139.5683161 127.0410657  96.7987884 138.6311657 127.7947960  98.0828608
 140.3710012 129.0074997  97.4189988 141.0865381 128.6500609  98.1408980
 139.7220012 130.4104997  97.9309988 139.0122127 130.2424894  98.7296062
 139.2088429 130.8876706  97.1054314 140.8190012 131.2414997  98.3929988
 140.5500012 132.6054997  99.2059988 140.0540012 132.0644997 100.6319988
 140.8470012 131.2464997 101.4519988 141.8531616 131.2597496 101.0536842
 140.4760083 130.2344649 101.3180325 140.8520012 131.4744997 102.9599988
 141.2982643 132.4265383 103.2183021 141.4354938 130.6840677 103.4095882
 139.5350012 131.4474997 103.6429988 138.6450012 132.5644997 103.1599988
 139.1923874 133.4947992 103.2251528 137.7807627 132.6050469 103.8061782
 138.3319512 132.3509717 102.1489980 138.8560012 130.0684997 103.5329988
 139.5670480 129.3119060 103.8274345 138.5215550 129.9215353 102.5216050
 138.0133451 130.0684698 104.2091849 139.9040012 131.7124997 105.1099988
 140.5913473 130.9508518 105.4469405 139.0081586 131.6834858 105.7118910
 140.3654454 132.6857227 105.1956791 141.8230012 133.2694997  99.4179988
 139.4540012 133.4094997  98.6739988 141.0380012 129.2274997  96.1799988
 141.5840012 128.1524997  95.5689988 141.9080012 127.1404997  96.2049988
 141.7050012 128.3834997  94.0899988 141.6827662 129.4503735  93.8929229
 142.6634101 128.0319079  93.7161773 140.4940012 127.6184997  93.3789988
 140.4606624 126.6300578  93.8238945 139.5832886 128.1192758  93.6918228
 140.5150012 127.4774997  91.8119988 140.7763519 128.4063519  91.3114159
 141.2490958 126.7428463  91.4903553 139.0790012 126.9944997  91.3459988
 138.7982735 126.0581106  91.8246150 138.2891733 127.7041594  91.5800006
 139.1100012 126.7714997  89.8349988 139.3099251 127.7069895  89.3165490
 139.9310437 126.1035028  89.5819170 137.8340012 126.1794997  89.3179988
 137.8237151 125.1116665  89.5309015 136.9821443 126.6046672  89.8413443
 137.6420012 126.3994997  87.8009988 138.5146428 126.0353768  87.2713846
 136.8027658 125.7932311  87.4626667 137.3540012 127.8854997  87.4509988
 136.5155119 128.3649839  87.9332690 138.0860012 128.6384997  86.5909988
 137.8345807 129.6769525  86.4297118 139.2870012 128.1594997  85.7899988
 139.1024490 127.1123927  85.5560574 139.3166836 128.6820166  84.8403799
 140.6820012 128.2664997  86.4849988 140.8694843 129.3303524  86.6256131
 140.5454573 127.8484824  87.4805269 141.9260012 127.6024997  85.8159988
 141.9068204 127.8159836  84.7472782 142.8311063 128.0636112  86.2015694
 141.9970012 126.0684997  86.0289988 142.4000527 125.8307763  87.0109265
 141.0083841 125.6145938  85.9878792 142.8580012 125.4694997  84.9659988
 143.7930375 126.0254377  85.0010706 143.0966782 124.4656292  85.3064433
 142.3690012 125.4294997  83.4519988 141.3672623 125.0091278  83.3835164
 142.3014992 126.4377125  83.0472959 143.2970012 124.6144997  82.5639988
 144.2841405 125.0664455  82.5072899 143.4454643 123.6346528  83.0125205
 142.7420012 124.4294997  81.1559988 143.3806444 123.7725783  80.5731968
 142.6699347 125.3707688  80.6216208 141.7496717 123.9882149  81.1822872
   3.2320012   7.1044997  80.5979988   2.2162822   6.7485838  80.7396597
   3.6605166   6.5593050  79.7619800   3.1785426   8.1520908  80.3146140
   4.0590012   6.9214997  81.8529988   4.0696961   5.8672825  82.1245034
   3.5741480   7.4431110  82.6737624   5.5310012   7.4254997  81.6899988
   6.0295984   6.6819618  81.0683226   5.9731747   7.3354798  82.6802260
   5.8400012   8.8404997  81.1409988   5.4889546   8.8799005  80.1121820
   6.9208734   8.9644574  81.0956599   5.2140012  10.0374997  81.9289988
   4.2111886   9.8318107  82.2945559   5.1392026  10.9383942  81.3222376
   6.0910012  10.2964997  83.0709988   7.1368564  10.3309363  82.7713022
   6.0148583   9.5108220  83.8196575   5.7110012  11.6034997  83.6879988
   4.6861409  11.5185993  84.0446825   5.6972098  12.3536405  82.8984872
   6.6080012  12.0914997  84.8349988   6.3266876  13.0908991  85.1644141
   7.6505847  12.1546560  84.5288700   6.4850012  11.1134997  86.0179988
   6.8641298  10.1411680  85.7107957   5.4298692  10.9693134  86.2470921
   7.2220012  11.5694997  87.2879988   7.1022788  12.6375894  87.4557783
   8.2944664  11.3899858  87.2171321   6.6500012  10.7744997  88.4939988
   6.7396296   9.7008169  88.3432904   5.5911852  10.9697121  88.6550231
   7.4460012  11.1584997  89.7809988   7.4608566  12.2451793  89.8145488
   8.4728781  10.8459146  89.6007649   7.0140012  10.6214997  91.0689988
   7.1558615   9.5421271  91.0599113   5.9488380  10.7872222  91.2040450
   7.7930012  11.2074997  92.3239988   7.5310475  12.2508252  92.4661151
   8.8594362  11.1763814  92.1170206   7.5160012  10.4114997  93.6699988
   7.7392041   9.3600076  93.5412126   6.4774722  10.5133355  93.9618137
   6.2450012  10.8284997  94.4239988   5.6070012  11.8914997  94.2749988
   6.0230012   9.9664997  95.4499988   4.9640012  10.4114997  96.3509988
   4.1644308  10.7740248  95.7227276   5.3203942  11.2209975  96.9713932
   4.4630012   9.2064997  97.2299988   3.6251693   9.5938456  97.7857820
   5.5080012   8.5344997  98.2249988   5.8027920   9.2260336  99.0026107
   6.3896233   8.2417724  97.6685473   4.8820012   7.4034997  98.7829988
   4.1420012   7.3724997 100.1519988   3.7770012   8.9074997 100.5999988
   2.9550012   8.8224997 101.7399988   3.4958054   8.4028114 102.5782001
   2.1357096   8.1410678 101.5297395   2.2870012  10.1484997 102.1239988
   1.4855364   9.9457326 102.8231331   1.8665083  10.5909046 101.2324604
   3.1770012  11.2894997 102.8019988   4.1760012  11.8014997 101.7199988
   4.6817733  10.9497068 101.2864352   4.8955916  12.4423134 102.2074896
   3.6307943  12.3666512 100.9790060   2.3530012  12.5254997 103.2439988
   1.5069545  12.1848917 103.8209783   2.0401066  13.0694072 102.3707109
   2.9962739  13.1402757 103.8568182   3.9400012  10.6164997 103.9789988
   3.2261677  10.1893933 104.6675508   4.5337182  11.3605723 104.4884160
   4.5858956   9.8408432 103.5934960   2.8960012   6.5924997  99.8349988
   5.0020012   6.8434997 101.2009988   4.0260012   8.2244997  96.3549988
   2.7750012   8.2084997  95.8679988   1.8670012   8.9864997  96.1879988
   2.7000012   7.0394997  94.8299988   3.6442367   7.1120900  94.3001848
   2.7590777   6.1280000  95.4195625   1.4780012   6.9984997  93.8479988
   0.5562594   6.9477874  94.4171046   1.4258396   7.9179318  93.2735802
   1.5490012   5.7994997  92.9029988   2.5967490   5.5970763  92.6958677
   1.1768664   4.9385477  93.4528555   0.7710012   5.9154997  91.5969988
   0.9451576   4.9955109  91.0420247  -0.2910783   5.9340280  91.8290459
   1.1030012   7.1174997  90.6679988   0.5402387   6.9525375  89.7514908
   0.6527948   7.9842734  91.1479972   2.5840012   7.4574997  90.3119988
   2.6058786   8.2862290  89.6060030   3.1218001   7.7923637  91.1945838
   3.3570012   6.2114997  89.6859988   3.4392051   5.4159300  90.4173615
   2.7808106   5.8061454  88.8553133   4.6970012   6.6174997  89.1819988
   5.5188434   6.6328474  89.8819229   4.9670012   6.9534997  87.9219988
   6.0073675   7.1799510  87.7376956   4.0900012   7.0714997  86.7079988
   4.6857290   6.6038084  85.9259539   3.2502162   6.4093368  86.8868357
   3.5550012   8.4684997  86.1589988   4.3286680   9.2158786  86.3309563
   3.4564206   8.3770574  85.0790084   2.2370012   8.9584997  86.7419988
   1.6385649   8.0732983  86.9574046   2.4585635   9.4162669  87.7021359
   1.4080012   9.9354997  85.8869988   0.5066519  10.2195969  86.4255184
   1.9653193  10.8555846  85.7198901   1.0250012   9.2984997  84.4929988
   1.8363039   9.4736921  83.7889495   0.9464935   8.2193745  84.5927503
  -0.2969988   9.8794997  83.8629988  -0.5907692   9.2486334  83.0259863
  -1.0955257   9.7967598  84.5980790  -0.2299988  11.3574997  83.3699988
  -1.1375208  11.6498225  82.8476327  -0.1543780  12.0231619  84.2270217
   0.9770012  11.5884997  82.4609988   1.0640654  12.6376819  82.1950936
   0.9030389  11.0242029  81.5375055   1.8992217  11.2946422  82.9542513
 129.1890012 146.8484997  82.5479988 129.4265749 147.0229449  81.5032229
 129.6937114 147.6109389  83.1342956 128.1192417 146.9927606  82.6721583
 129.6030012 145.4654997  82.9799988 130.6730328 145.3374681  82.8255860
 129.1133242 144.7280570  82.3497537 129.2620012 145.1954997  84.4959988
 129.5336648 144.1580046  84.6902459 128.1770499 145.2409678  84.5665987
 129.8620012 146.0934997  85.5979988 129.4219467 147.0815258  85.4822131
 130.9249238 146.2109865  85.3928199 129.6710012 145.6364997  87.0599988
 130.0527793 144.6225154  87.1474877 128.5989644 145.5759235  87.2400898
 130.3260012 146.5174997  88.1589988 130.0156646 146.0602836  89.0967949
 129.8017465 147.4687074  88.0962465 131.8950012 146.7844997  88.1979988
 132.2395249 147.0427340  87.1983046 132.4087283 145.8629373  88.4682526
 132.3030012 147.9034997  89.1829988 131.7751008 147.7884042  90.1287922
 132.0171893 148.8782802  88.7921043 133.8080012 147.8864997  89.4409988
 134.0297593 148.6995342  90.1289953 134.3026819 148.1385012  88.5037884
 134.3900012 146.5994997  89.9819988 135.4440627 146.6746510  89.7239183
 133.9700717 145.8336494  89.3304148 134.2400012 146.1644997  91.4189988
 134.1456434 147.0079126  92.0996545 135.0816868 145.5766403  91.7810963
 132.9200012 145.2984997  91.5129988 133.0579628 144.3916877  90.9291514
 132.1159254 145.8511744  91.0306267 132.5060012 144.9634997  92.8699988
 133.3126869 144.4036338  93.3401693 131.6515254 144.2935460  92.8338442
 132.1560012 146.2014997  93.8079988 131.3768792 146.8378253  93.4013004
 133.0219956 146.8352808  93.9796588 131.6880012 145.6294997  95.1659988
 132.4373581 144.9639683  95.5753559 130.7627127 145.0788276  95.0448768
 131.1280012 146.7194997  96.0229988 131.3250012 147.9004997  95.9239988
 130.4500012 146.1254997  97.0159988 129.6760012 146.8934997  97.8609988
 128.9512594 147.3578298  97.2093785 130.2383393 147.6633393  98.3692455
 128.9730012 145.9714997  98.8669988 128.2676849 146.5590187  99.4311302
 130.0260012 145.2574997  99.8739988 129.6585018 145.2805058 100.8909628
 130.9666290 145.7923918  99.8328314 130.1970012 143.9364997  99.4449988
 130.8620012 142.9024997 100.4179988 131.7350012 143.8134997 101.3229988
 133.2030012 143.7264997 101.1489988 133.5104744 144.1085701 100.1842857
 133.5025487 142.6828022 101.1766380 134.0190012 144.4284997 102.3309988
 135.0652823 144.3545132 102.0625389 133.8728275 143.9566653 103.2919267
 133.7480012 145.9284997 102.5509988 132.3960012 146.1064997 103.1829988
 131.6681571 145.5572807 102.6016765 132.1559715 147.1591997 103.1654376
 132.4387768 145.7615032 104.2051850 134.7500012 146.3394997 103.6209988
 135.7282414 145.9919773 103.3260612 134.4502618 145.9171710 104.5634238
 134.7406408 147.4185269 103.6749398 133.8620012 146.6294997 101.2639988
 134.8492629 146.4680676 100.8573836 133.7031868 147.6859197 101.4202192
 133.1175432 146.2496290 100.5792246 129.8190012 142.2614997 101.2779988
 131.6630012 141.9444997  99.6199988 128.2280012 145.0594997  98.1139988
 127.2220012 144.3824997  98.6969988 126.9450012 144.4394997  99.8739988
 126.5690012 143.5124997  97.6609988 125.9260334 142.7876145  98.1495548
 125.9215065 144.0913244  97.0070724 127.7120012 142.8274997  96.8549988
 127.2727636 142.4730368  95.9289926 128.4195073 143.6013634  96.5746365
 128.4850012 141.6144997  97.5679988 128.8377997 141.8728853  98.5631993
 127.8352789 140.7515226  97.6912734 129.6570012 141.2164997  96.6869988
 130.3726292 142.0364234  96.7045370 130.1622563 140.3625581  97.1316369
 129.3260012 140.8874997  95.2029988 128.6767253 140.0175650  95.1284636
 128.7814716 141.7118360  94.7465580 130.6340012 140.6324997  94.3769988
 131.0742411 141.5970295  94.1288618 131.3590106 140.1156341  94.9995172
 130.4270012 139.8234997  93.0899988 131.3696454 139.5424947  92.6349845
 129.8964847 138.8946207  93.2951380 129.5780012 140.6724997  92.1279988
 128.6194492 141.0590335  92.4399661 129.9990012 140.9884997  90.8469988
 129.3618982 141.6195681  90.2441203 131.2590012 140.5644997  90.1639988
 132.0523927 140.5766874  90.9093861 131.1777502 139.5381302  89.8239326
 131.6690012 141.4184997  89.0429988 130.8330411 141.4915940  88.3483528
 131.8262313 142.4215861  89.4348600 132.9640012 140.9564997  88.2629988
 133.7493177 140.8019831  89.0029376 132.7591444 139.9815045  87.8294989
 133.4950012 141.9344997  87.1349988 133.6812690 142.9342747  87.5208734
 134.4344646 141.5956669  86.7017716 132.3860012 141.9894997  86.0009988
 132.5344181 141.1469118  85.3282373 131.4067448 141.8430426  86.4484719
 132.3920012 143.2204997  85.1929988 131.5017035 143.2230353  84.5667028
 132.2893116 144.0691083  85.8669070 133.5660012 143.4444997  84.3369988
 133.5834403 144.4877401  84.0316134 134.4431826 143.3053103  84.9650847
 133.6970012 142.5614997  83.1179988 134.6366267 142.7474674  82.6065411
 132.8986449 142.7345411  82.4042587 133.6721343 141.5107042  83.3925012
 143.9910012 143.3594997  84.0169988 144.9525929 143.0678294  83.6062692
 144.1741389 143.8746458  84.9555482 143.5420474 144.0736336  83.3321154
 143.0460012 142.0974997  84.2279988 143.5845801 141.4112926  84.8793479
 142.9737309 141.6070709  83.2610082 141.6410012 142.3424997  84.8029988
 141.1687807 141.3659473  84.9092173 141.0822005 142.8645886  84.0288308
 141.4970012 143.1094997  86.0979988 141.5558785 144.1659544  85.8456362
 142.3750566 142.8952521  86.7053064 140.1990012 142.8684997  86.9549988
 139.4454822 143.5581252  86.5832477 140.4421664 143.1966643  87.9642280
 139.5950012 141.4534997  87.0129988 140.3473380 140.7903395  87.4361121
 139.4358513 141.1194290  85.9899420 138.2570012 141.3024997  87.8209988
 137.6084905 140.5139979  87.4435483 137.6548599 142.2099077  87.8373218
 138.7040012 140.9494997  89.2879988 139.1161530 141.8506909  89.7401450
 139.5244683 140.2367678  89.2285770 137.6260012 140.3924997  90.1829988
 138.0404769 140.0926666  91.1431295 137.1896373 139.4946548  89.7470651
 136.5260012 141.4294997  90.4079988 135.7894222 140.9793750  91.0699189
 136.0232790 141.5870890  89.4541303 137.0020012 142.8554997  90.9989988
 136.0875319 143.4409052  91.0667289 137.5919769 143.3075379  90.2035630
 137.7610012 142.9864997  92.3309988 138.5749548 142.2662411  92.3005675
 137.0810424 142.6440479  93.1088502 138.2930012 144.3654997  92.7199988
 137.4812229 145.0902244  92.6877182 139.0380607 144.7113737  92.0089914
 138.9200012 144.3944997  94.1859988 138.1321880 144.3318178  94.9294814
 139.4190895 145.3481352  94.3362725 139.9120012 143.2934997  94.4239988
 140.6908737 143.3161769  93.6724109 139.4208447 142.3283834  94.3867837
 140.9400012 143.5984997  95.5269988 140.8570012 144.5624997  96.2929988
 141.9080012 142.6584997  95.5959988 142.7320012 142.6834997  96.7539988
 142.9406417 143.7344958  96.8856736 143.6614366 142.1561036  96.5952692
 141.9770012 142.1224997  97.9979988 141.2193882 142.8590481  98.2087425
 142.9220012 141.9554997  99.2449988 143.5890598 142.8046257  99.3067957
 143.5124146 141.0610196  99.0903949 142.1480012 141.8404997 100.4389988
 142.3410012 140.4884997 101.2979988 141.1210012 140.5924997 102.3159988
 140.1710012 141.6424997 102.3189988 140.5996803 142.6248547 102.1693266
 139.6352626 141.6808132 103.2630926 139.0810012 141.3354997 101.2409988
 139.5603390 141.1587751 100.2864032 138.4420571 142.2023802 101.1535595
 138.1240012 140.1174997 101.4689988 137.3980012 140.3254997 102.7869988
 138.1295051 140.5398263 103.5540060 136.8758756 139.4114101 103.0276753
 136.6868030 141.1297090 102.6722746 137.1350012 140.0804997 100.3219988
 137.6831251 140.1454769  99.3946088 136.4435422 140.8971889 100.4281742
 136.6109877 139.1373040 100.3775756 138.9380012 138.8504997 101.5679988
 139.5120410 138.7249460 100.6620205 138.2721180 138.0100359 101.6939762
 139.6033441 138.9146901 102.4169000 142.0810012 139.3614997 100.3909988
 143.6530012 140.5024997 102.0329988 141.3230012 140.8674997  97.7009988
 140.0690012 140.8634997  97.6429988 139.3330012 141.7604997  97.9869988
 139.5000012 139.4824997  97.1709988 138.7592780 139.2229384  97.9203386
 138.9436104 139.6755901  96.2571868 140.5570012 138.3274997  96.9599988
 141.4044356 138.5761202  97.5893665 140.1233270 137.4267615  97.3826458
 141.0580012 138.0454997  95.5249988 142.0164845 138.5450115  95.4090177
 141.2635032 136.9791860  95.4719981 140.1190012 138.4244997  94.3589988
 139.1543232 137.9459967  94.5175463 139.9304365 139.4953131  94.3570390
 140.6510012 138.0034997  92.9519988 140.7508868 136.9200613  92.9427671
 139.8719379 138.2419917  92.2304983 142.0230012 138.6674997  92.4619988
 141.8143699 139.7102418  92.2277706 142.7203198 138.6740106  93.2950788
 142.7230012 137.9844997  91.2229988 142.9960147 136.9788787  91.5209420
 141.9636668 137.8796428  90.4492014 143.9070012 138.7204997  90.6409988
 144.6725488 139.0696181  91.3174655 144.0880012 138.9634997  89.3389988
 144.9565585 139.5053230  88.9931005 143.1310012 138.5204997  88.2099988
 142.8528975 137.4852573  88.4001369 142.2104264 139.0925972  88.2404527
 143.7250012 138.6024997  86.8299988 143.8563493 139.6467588  86.5489729
 144.7214795 138.1652050  86.8462237 142.8540012 137.8684997  85.7369988
 143.3524890 137.9463046  84.7707880 142.7982842 136.8077292  85.9653968
 141.4080012 138.4524997  85.6189988 140.8428284 138.2828750  86.5327560
 141.4232693 139.5302506  85.4663393 140.6970012 137.7814997  84.4289988
 140.9813949 136.7375621  84.3110813 139.6137744 137.7861873  84.5139861
 141.1380012 138.5514997  83.1329988 140.7978383 139.5852377  83.1566174
 142.2229684 138.5925203  83.0555566 140.5570012 137.8514997  81.8029988
 141.2693275 137.1160346  81.4374891 139.6716796 137.2885904  82.0904910
 140.1890012 138.7954997  80.6819988 139.7259819 138.2567377  79.8607694
 141.0568602 139.3107556  80.2844147 139.4846337 139.5495010  81.0218362
  57.0040012  55.8904997  81.9139988  57.3897693  55.5418286  82.8669103
  56.1899851  56.5799809  82.1184087  57.7944320  56.4513499  81.4227982
  56.5430012  54.7424997  81.0579988  55.8002671  54.2096453  81.6492816
  57.4000207  54.0795672  80.9752213  55.9750012  55.0294997  79.6899988
  55.2737261  55.8604037  79.7657665  55.3884215  54.1679638  79.3771870
  56.9890012  55.3314997  78.6179988  57.5870516  54.4348029  78.4713000
  57.6715208  56.0902796  78.9976381  56.4350012  55.7804997  77.2569988
  55.8212164  56.6685386  77.3843881  55.7747488  55.0055272  76.8711886
  57.5080012  56.0704997  76.2399988  57.9759433  55.1246115  75.9732728
  58.2777775  56.6632790  76.7295230  57.0460012  56.7984997  74.9449988
  56.4859083  57.6954673  75.2029039  56.3612371  56.1625509  74.3856265
  58.2330012  57.1824997  74.0439988  58.8651128  56.2954829  74.0533299
  58.7634889  57.9397619  74.6182990  58.0680012  57.6624997  72.6189988
  58.8634984  58.3863092  72.4552158  57.1361305  58.2262864  72.6005947
  58.0650012  56.6184997  71.4459988  58.6038094  55.7261707  71.7570193
  58.6115122  57.0239315  70.5948938  56.6580012  56.2494997  71.0059988
  56.0669811  57.1329991  70.7743417  56.1090315  55.7124630  71.7775893
  56.7370012  55.4184997  69.8019988  57.3705213  55.8774757  69.0468748
  55.7546434  55.3059321  69.3470573  57.2700012  54.0304997  70.1639988
  56.6511320  53.5706396  70.9326220  58.2779791  54.0686210  70.5674851
  57.2570012  53.0844997  68.8969988  58.1578272  52.4796467  68.9002019
  57.3040371  53.7140338  68.0123710  55.9560012  52.1084997  68.7709988
  55.0426205  52.6889938  68.7993397  55.9395856  51.3943695  69.5857488
  54.5910012  52.7984997  68.4839988  53.8340012  53.1064997  69.3539988
  54.3180012  52.5674997  67.2169988  53.0430012  53.0034997  66.7729988
  52.3142308  52.6307577  67.4768590  52.9083010  52.5013831  65.8259366
  52.8980012  54.5464997  66.6119988  51.8678361  54.7565115  66.3763105
  53.8350012  55.1284997  65.4849988  53.5766731  56.1691544  65.3432058
  53.5911111  54.5842294  64.5811888  55.2220012  54.9954997  65.7859988
  56.2700012  55.7014997  64.7449988  55.8980012  57.2314997  64.8529988
  56.6810012  58.2474997  64.2949988  57.6666488  58.1301383  64.7261763
  56.2727790  59.1666375  64.7052880  56.7680012  58.4894997  62.7549988
  57.0950702  57.5304577  62.3735367  57.4862652  59.2423080  62.4638745
  55.4820012  58.8214997  61.9979988  54.8350012  60.0934997  62.4769988
  54.7339272  60.0456277  63.5525574  53.8577944  60.1618881  62.0225872
  55.4389411  60.9326413  62.1658478  55.9680012  59.1304997  60.6249988
  56.6199232  58.3323882  60.3044839  56.4807225  60.0756476  60.6384958
  55.1026166  59.1837601  59.9803517  54.5620012  57.6504997  62.0569988
  55.0533018  56.7902915  61.6271760  53.6669880  57.8739793  61.4960546
  54.3022177  57.4474322  63.0859357  57.6540012  55.4804997  65.1949988
  55.9360012  55.1394997  63.3939988  53.3130012  55.2424997  67.8199988
  52.9550012  56.5194997  67.9259988  52.1650012  57.1324997  67.2189988
  53.6910012  57.1554997  69.1389988  53.7410342  56.3728719  69.8890277
  54.7178069  57.3410203  68.8337790  53.0620012  58.3844997  69.6639988
  52.3770875  58.7181475  68.8922259  52.4437838  58.0774487  70.5015906
  53.9420012  59.5354997  70.0729988  54.8970824  59.4470845  69.5614750
  53.4851052  60.4511955  69.7058308  54.1690012  59.6744997  71.6069988
  54.4762955  58.6980582  71.9769153  55.0097110  60.3425292  71.7777193
  52.9820012  60.1524997  72.4409988  52.5360144  61.0490588  72.0153479
  52.1972681  59.3985061  72.4492889  53.4180012  60.4404997  73.9239988
  54.1419091  61.2529130  73.9645322  52.5790816  60.7462429  74.5429115
  54.0160012  59.2254997  74.5069988  53.4418373  58.3561553  74.2084084
  55.0154157  59.0889413  74.0960629  54.1210012  59.3184997  76.0109988
  54.9285038  59.9371272  76.3726526  53.3150012  58.7284997  76.9529988
  53.5145474  58.8519831  78.0077704  52.0690012  57.8534997  76.6419988
  51.3725068  58.5192235  76.1351177  52.3589301  57.1052379  75.9128029
  51.3190012  57.1674997  77.8139988  51.0838000  57.8937777  78.5911124
  50.3647800  56.7794946  77.4627537  52.1260012  56.0374997  78.4079988
  52.5608941  55.4922900  77.5703106  52.9582142  56.4873099  78.9424108
  51.4030012  55.0544997  79.3269988  50.8055913  55.5916851  80.0602642
  50.7077083  54.4354026  78.7627544  52.4050012  54.1654997  80.0289988
  53.1393228  53.7908811  79.3183493  52.9687264  54.7224999  80.7723624
  51.7250012  52.9604997  80.6819988  50.7854407  53.2465681  81.1513323
  51.4737500  52.2053697  79.9393780  52.6520012  52.2974997  81.7769988
  53.2320499  51.4973539  81.3239809  53.3753978  53.0483463  82.0872238
  51.9090012  51.7474997  83.0599988  52.6233828  51.3906453  83.7957859
  51.2470968  50.9215610  82.8224090  51.3118026  52.5246288  83.5285767
  82.9980012  55.4974997  82.4669988  84.0731776  55.4921143  82.3173475
  82.6118618  54.5396922  82.1304110  82.8134437  55.5693329  83.5353576
  82.3340012  56.6624997  81.7109988  82.5401878  56.5870773  80.6446960
  82.7580481  57.6081610  82.0376835  80.8260012  56.6604997  81.9309988
  80.6264391  56.6175390  83.0016333  80.4232251  55.7403040  81.5124507
  80.0510012  57.8684997  81.3099988  80.0036067  58.6346987  82.0806757
  79.0250287  57.5432387  81.1447961  80.5730012  58.4724997  80.0799988
  80.6460200  57.7104590  79.3082895  81.5891873  58.8149116  80.2683726
  79.7170012  59.6684997  79.5339988  80.1677934  60.0133201  78.6051811
  79.7986798  60.4948713  80.2368611  78.2710012  59.3624997  79.2979988
  77.7298208  59.4435916  80.2389121  78.1720396  58.3260017  78.9784545
  77.6000012  60.2994997  78.2319988  77.9280441  61.3340481  78.3244562
  76.5150467  60.3159326  78.3173674  77.9830012  59.7764997  76.8719988
  77.8223299  58.7043125  76.7817740  79.0348778  59.9459345  76.6452292
  77.0830012  60.5384997  75.7959988  77.4401701  61.5659855  75.7974882
  76.0781997  60.5640300  76.2168921  77.0150012  60.0184997  74.3839988
  76.3571118  60.6524676  73.7933997  76.5714077  59.0244727  74.3677748
  78.4040012  59.9714997  73.6879988  79.1209185  59.4950842  74.3522855
  78.7565790  60.9906825  73.5409437  78.3870012  59.2474997  72.3099988
  77.6763713  59.7392334  71.6478393  78.0485617  58.2200502  72.4104000
  79.7330012  59.2574997  71.6359988  80.3973681  58.5035529  72.0452981
  80.2238372  60.2173129  71.7735870  79.5590012  59.0154997  70.1599988
  78.8724437  59.7372365  69.7359990  79.1693036  58.0198715  69.9841314
  80.9220012  59.1334997  69.4349988  81.8730012  59.7484997  69.8739988
  80.9340012  58.4234997  68.2659988  82.1610012  58.3564997  67.6009988
  82.9368353  58.1994496  68.3350824  82.3292019  59.3020174  67.1061283
  82.1440012  57.1774997  66.5679988  83.1286197  56.9056585  66.2251828
  81.3060012  57.5614997  65.4249988  81.5093750  56.8822856  64.6082318
  81.6163271  58.5571982  65.1336791  79.9790012  57.5494997  65.7359988
  78.8800012  57.9524997  64.7009988  78.7110012  56.6264997  63.8519988
  78.6640012  56.6294997  62.3779988  79.5465122  56.1865842  61.9350663
  78.6155683  57.6511661  62.0124184  77.3710012  55.9454997  61.8499988
  77.4893962  54.8983191  62.0982818  77.2958503  56.0415274  60.7764495
  75.9990012  56.3544997  62.4069988  75.7840012  57.8554997  62.3219988
  76.6367480  58.3519994  62.7643163  74.8923296  58.0965859  62.8813727
  75.6485616  58.1321171  61.2871771  74.8590012  55.6974997  61.6779988
  75.0529820  54.6372839  61.6229714  74.7713629  56.1326026  60.6985219
  73.9611235  55.8808494  62.2502710  75.9260012  55.8494997  63.8529988
  76.0636127  54.7784977  63.8629867  74.9587648  56.0940109  64.2656949
  76.6995101  56.3233724  64.4399942  77.7010012  58.2464997  65.5479988
  79.4430012  58.9924997  63.8569988  81.5620012  56.0344997  67.2449988
  81.6600012  54.8404997  66.7359988  82.3160012  54.4664997  65.8389988
  80.7480012  53.7974997  67.4339988  80.3483041  53.1645764  66.6483759
  81.3727395  53.1523655  68.0467067  79.6510012  54.4374997  68.2589988
  80.0866993  55.2522677  68.8267850  78.9283583  54.8917122  67.5885428
  78.9260012  53.4634997  69.2379988  78.7075465  52.5375799  68.7120671
  79.6269008  53.2052798  70.0280160  77.6460012  54.0184997  69.8809988
  77.0420350  54.4646343  69.0930300  77.0583559  53.1987760  70.2871122
  77.8660012  55.1094997  71.0229988  78.5113153  55.9071508  70.6607511
  76.9126965  55.5764967  71.2628008  78.4670012  54.5114997  72.3239988
  77.8148484  53.7003377  72.6440207  79.4261331  54.0589263  72.0882845
  78.6580012  55.4814997  73.4699988  79.3298654  56.2550959  73.1168313
  77.6938383  55.9622464  73.6300569  79.1280012  54.9114997  74.7669988
  80.1786714  54.8390985  75.0044944  78.2540012  54.4764997  75.7019988
  78.5984800  54.0808902  76.6466878  76.7680012  54.4924997  75.5539988
  76.4348867  55.5261531  75.6302643  76.4713033  54.1498648  74.5689847
  76.0210012  53.6574997  76.6399988  75.4620090  52.8789909  76.1221600
  76.7853025  53.1459458  77.2219052  75.0780012  54.4184997  77.5979988
  74.1386570  54.5513334  77.0612542  74.8629614  53.7472859  78.4248809
  75.5340012  55.7504997  78.1379988  76.5574059  55.9056020  77.8037370
  74.9379879  56.5286144  77.6642999  75.4510012  55.9084997  79.6689988
  75.7067432  56.9273218  79.9539329  74.4355703  55.7479916  80.0207975
  76.4350012  54.9394997  80.4099988  76.1805311  53.9015397  80.2031967
  77.4519620  55.0788254  80.0477653  76.4270012  55.1454997  81.8969988
  77.2601890  54.6309350  82.3691599  76.5740930  56.2024654  82.1079502
  75.1410012  54.7014997  82.5319988  75.1303041  54.9431000  83.5905751
  74.9925754  53.6307442  82.4414801  74.2883157  55.1928408  82.0719418
  90.9270012  85.8574997  81.1349988  91.6996753  85.2418372  81.5848468
  89.9863778  85.6169750  81.6219952  91.1581370  86.8949682  81.3604922
  90.8400012  85.6204997  79.5729988  90.6524920  84.5596715  79.4158777
  91.8277936  85.8193472  79.1661330  89.7660012  86.4504997  78.8039988
  89.5879691  87.4040029  79.3010553  88.8138148  85.9237834  78.8130620
  90.1570012  86.7014997  77.3779988  91.2133576  86.9519662  77.3099726
  89.6183211  87.5509430  76.9608946  89.8850012  85.4304997  76.4979988
  88.9869165  84.9394228  76.8638682  90.7034040  84.7310665  76.6604026
  89.7310012  85.6914997  74.9829988  90.6678014  86.1260021  74.6388622
  88.9761632  86.4665861  74.8688161  89.3510012  84.4394997  74.0479988
  89.8308649  83.5676525  74.4888879  89.8442651  84.6071507  73.0915398
  87.8580012  84.1304997  73.8039988  87.3389009  85.0566494  73.5606213
  87.4137291  83.7670966  74.7287931  87.6110012  83.0944997  72.6769988
  88.3099651  82.2618855  72.7187615  87.7155000  83.5289929  71.6835841
  86.1450012  82.5534997  72.8549988  85.4574987  83.3906110  72.9544177
  86.0708547  81.9858540  73.7822040  85.7090012  81.6394997  71.6539988
  84.6855671  81.3134696  71.8267070  86.3180025  80.7371460  71.6558184
  85.7810012  82.3044997  70.2489988  86.7958754  82.6684237  70.1082561
  85.1429238  83.1858905  70.2750247  85.3590012  81.4234997  69.0469988
  84.4834137  80.8257863  69.2946625  86.1343590  80.7207925  68.7549425
  85.0000012  82.3164997  67.8289988  84.2371274  83.0384863  68.1012191
  84.5790347  81.6955255  67.0426971  86.1890012  83.0404997  67.2789988
  86.9772804  82.3410664  67.0311077  86.5686589  83.7491582  68.0054505
  86.3350012  84.4674997  67.7579988  85.5460012  85.0104997  68.5309988
  87.4600012  84.9814997  67.2769988  87.7840012  86.3104997  67.7959988
  88.1269375  86.1574748  68.8081450  86.8807318  86.9029006  67.8149110
  88.9090012  87.0194997  66.9369988  89.3570105  87.8080815  67.5186519
  88.3310012  87.5974997  65.6259988  89.1963987  87.9290413  65.0683535
  87.7823265  88.4674724  65.9646558  87.4510012  86.7224997  64.7649988
  87.9840012  86.0084997  63.4699988  88.5380012  84.6834997  64.1399988
  88.1930012  83.4734997  63.4319988  88.4243189  83.4548339  62.3749592
  87.1403628  83.2210136  63.5214429  88.9560012  82.3344997  64.1959988
  88.2355962  81.6987153  64.6950418  89.6206848  82.7544462  64.9370909
  89.7990012  81.4174997  63.3589988  90.8760012  82.2714997  62.6819988
  90.3963383  83.1084758  62.1934002  91.3742642  81.6577631  61.9463620
  91.5876601  82.5936534  63.4273011  90.3800012  80.4024997  64.3329988
  89.5763695  80.0051106  64.9338084  91.1239192  80.8854125  64.9410705
  90.8300534  79.6138642  63.7475040  88.9600012  80.7034997  62.2729988
  88.1691516  80.1414035  62.7470102  89.5972298  80.0328760  61.7163539
  88.5363089  81.4381891  61.6035577  86.7980012  85.6074997  62.6629988
  89.0540012  86.8774997  62.8689988  89.9480012  86.0184997  66.6199988
  90.5870012  85.4954997  67.6269988  90.6070012  85.8094997  68.8379988
  91.1740012  84.2544997  67.1139988  91.2747053  84.3841762  66.0413405
  92.1869406  84.1712516  67.4999138  90.3580012  83.0324997  67.4609988
  89.7582507  83.2451430  68.3391464  89.6550496  82.8218672  66.6612950
  91.2240012  81.7964997  67.7319988  91.8493986  81.5833611  66.8688047
  91.9035171  82.0149122  68.5521323  90.3880012  80.5474997  68.1029988
  89.6285618  80.3769464  67.3421640  91.0035649  79.6514897  68.1241967
  89.6850012  80.6994997  69.4629988  90.0442714  81.5766054  69.9973315
  88.6160653  80.8474754  69.3220724  89.8950012  79.4654997  70.3219988
  89.0697393  78.7772435  70.1460802  90.7972842  78.9494002  70.0060167
  89.9970012  79.7554997  71.8029988  90.4852899  80.7187653  71.8939565
  88.9754499  79.8950914  72.1541302  90.6630012  78.7294997  72.6649988
  90.7522052  77.7255190  72.2781919  91.1780012  78.9644997  73.8939988
  91.6633380  78.1698976  74.4423287  91.1520012  80.2744997  74.6139988
  92.1649014  80.6657948  74.5356259  90.5196897  80.9546836  74.0543444
  90.7510012  80.2964997  76.0589988  89.7964718  79.7737414  76.1069821
  91.4727630  79.6567691  76.5632444  90.6470012  81.5884997  76.7909988
  91.5968544  82.1187755  76.7224911  89.9085653  82.2250816  76.3114365
  90.2740012  81.3994997  78.2849988  90.3811106  80.3455841  78.5318478
  91.0001177  81.9308320  78.8978003  88.8320012  81.8904997  78.6509988
  88.7554940  82.9758485  78.6235296  88.0749477  81.5221696  77.9641013
  88.4980012  81.4094997  80.1469988  87.4226911  81.4368762  80.3138577
  88.7968273  80.3706205  80.2745411  89.1810012  82.2484997  81.2329988
  89.5543407  81.6131139  82.0322594  90.0575381  82.7262040  80.8008014
  88.2590012  83.3464997  81.8329988  88.8075688  83.9708793  82.5317782
  87.4173591  82.9208942  82.3689461  87.8621188  83.9915472  81.0541926
  48.9930012  87.1714997  80.0969988  49.1319953  86.5888625  81.0023404
  48.1272463  86.7728341  79.5761109  48.7584817  88.1904509  80.3925509
  50.2450012  87.1284997  79.2079988  50.4824934  86.1052809  78.9219501
  51.1105789  87.5032560  79.7475790  50.0130012  87.9514997  77.9619988
  50.9252248  87.9987256  77.3674007  49.7832840  88.9773784  78.2430216
  48.8290012  87.3994997  77.0609988  48.5897632  88.1667771  76.3279908
  47.9439645  87.2937258  77.6864810  49.0860012  86.1004997  76.3339988
  49.0593315  85.3097685  77.0793886  50.1140277  86.1512770  75.9791071
  48.1740012  85.7184997  75.1769988  47.1568639  85.9764385  75.4663367
  48.1990202  84.6345916  75.0870302  48.4910012  86.3534997  73.7979988
  49.4625193  85.9882837  73.4700660  48.6004867  87.4284213  73.9350622
  47.4770012  86.0924997  72.7259988  47.7517033  86.6468646  71.8295228
  46.5112896  86.4834209  73.0410635  47.3260012  84.5564997  72.3649988
  47.4000135  83.9925488  73.2923728  48.1912187  84.2725612  71.7672074
  46.0380012  84.1494997  71.6209988  45.3547588  84.9916984  71.7057341
  45.5906388  83.3350674  72.1902053  46.1700012  83.7224997  70.1419988
  45.2399577  83.2168084  69.8913267  46.9472091  82.9610668  70.1060028
  46.4600012  84.8234997  69.0249988  47.4795379  85.1753080  69.1628202
  45.8141515  85.6749104  69.2315126  46.2410012  84.3794997  67.5479988
  45.8449071  85.2165789  66.9755829  45.4968438  83.5902990  67.4874498
  47.5660012  83.8924997  66.8439988  47.9078718  83.0318999  67.4095406
  48.2860429  84.6881261  67.0160758  47.5680012  83.5534997  65.3769988
  47.1981882  84.3879150  64.7947355  46.9390805  82.6916534  65.1879250
  47.0940012  84.7084997  64.4649988  46.7050012  84.6834997  63.2979988
  47.2990012  85.8364997  65.1529988  46.6610012  87.0244997  64.5619988
  45.9954364  87.4661040  65.2882708  46.0882573  86.7171255  63.6990517
  47.7920012  88.0574997  64.1539988  47.3163312  89.0152418  64.0222336
  48.4650012  87.6084997  62.8129988  49.0754969  88.3918264  62.3846355
  47.7065277  87.3269899  62.0932382  49.2720012  86.4754997  63.1569988
  50.1120012  85.8304997  61.9499988  51.6240012  86.0734997  62.3339988
  51.9660012  87.3924997  62.7759988  51.3235655  88.1411720  62.3310771
  52.9776282  87.6254017  62.4563672  51.9870012  87.5234997  64.3159988
  51.0890392  87.0147810  64.6432887  51.9511612  88.5471306  64.6599059
  53.1680012  86.8484997  65.0959988  53.2410012  85.3784997  64.7229988
  52.2589568  84.9423672  64.8442889  53.9374895  84.8985841  65.3943295
  53.5979390  85.2918340  63.7077149  54.5290012  87.4314997  64.6859988
  54.4694967  88.5079666  64.7349074  54.7700985  87.0956725  63.6932943
  55.2618868  87.0683063  65.3918785  53.0440012  87.0484997  66.5939988
  53.0234230  88.1061157  66.8110400  53.8925139  86.5949246  67.0838414
  52.1335451  86.5849479  66.9456015  49.9470012  84.3554997  61.9019988
  49.7960012  86.5054997  60.6469988  48.8580012  88.1544997  65.1179988
  48.5340012  88.5434997  66.3839988  47.4170012  88.9714997  66.6369988
  49.6490012  88.2934997  67.3549988  49.2192285  87.9459225  68.2888288
  50.2844613  87.4855057  67.0011016  50.4590012  89.5984997  67.5409988
  51.3839475  89.3606808  68.0547862  50.7466803  89.9829226  66.5676064
  49.6750012  90.7344997  68.3669988  50.2438410  91.6574725  68.2882816
  48.7359540  90.9120142  67.8485935  49.3670012  90.4244997  69.8569988
  48.5973037  89.6560478  69.8988744  50.2440437  90.0029362  70.3420582
  48.8960012  91.6084997  70.6509988  49.6636736  92.3731297  70.7506024
  48.0455013  92.0933178  70.1756227  48.4660012  91.1234997  72.0619988
  48.0754823  91.9751680  72.6168474  47.6474078  90.4149122  71.9718506
  49.6300012  90.4484997  72.8919988  49.2083473  90.0756772  73.8181691
  49.9659935  89.5751924  72.3345137  50.8220012  91.3414997  73.1559988
  50.6686709  92.3562928  73.4910193  52.0960012  90.9304997  73.0069988
  52.8413164  91.6839083  73.2179266  52.6680012  89.5974997  72.5999988
  51.9360277  89.1619234  71.9219802  53.5602057  89.7751972  72.0100194
  52.9900012  88.5304997  73.7379988  52.1332729  87.8937733  73.9554874
  53.7956584  87.8629351  73.4384443  53.4140012  89.2994997  75.0379988
  54.2058015  90.0235138  74.8457421  52.5932928  89.8573685  75.4804060
  53.9180012  88.2544997  76.0379988  53.0779424  87.6646446  76.3978838
  54.5883093  87.5566187  75.5392661  54.6290012  88.8814997  77.1879988
  55.6034148  89.2122729  76.8334608  54.0931891  89.7841811  77.4685279
  54.8510012  87.9984997  78.4209988  54.0100077  87.3143444  78.5186952
  55.7277829  87.3764721  78.2502080  55.0340012  88.7454997  79.7599988
  55.9691366  89.2963227  79.6965110  54.2482486  89.4975393  79.7785005
  54.9930012  87.9474997  81.0939988  55.0478078  88.6182030  81.9461855
  55.8202848  87.2505406  81.1751830  54.0720125  87.3778434  81.1800957
  73.0180012  93.8814997  82.5849988  73.0857759  93.1640507  83.3968501
  72.3317409  94.6654266  82.8920743  73.9984095  94.3330218  82.4603419
  72.5600012  93.2254997  81.3139988  71.5926659  92.7590585  81.4925993
  73.2489738  92.4188200  81.0786296  72.4390012  94.2334997  80.0629988
  72.0839618  93.6595842  79.2071383  73.4478736  94.5551742  79.8122542
  71.5530012  95.4894997  80.2379988  71.6711655  96.1129001  79.3544496
  71.9324666  96.0757262  81.0734929  70.0920012  95.2204997  80.4429988
  69.5702947  96.1703072  80.5282107  69.9750370  94.7204740  81.4030294
  69.4300012  94.3934997  79.3669988  68.3967213  94.1977907  79.6477970
  69.9178202  93.4229510  79.3066262  69.4610012  95.0404997  78.0319988
  70.4999218  95.2755574  77.8080303  68.9453108  95.9956863  78.1209472
  68.8600012  94.2484997  76.8679988  68.8081417  94.8222136  75.9435455
  67.8484024  93.8989331  77.0658755  69.8170012  92.9924997  76.6539988
  69.2615964  92.1061199  76.9529930  70.6409891  93.0869415  77.3601869
  70.3840012  92.7854997  75.2359988  70.8507180  91.8029257  75.2312169
  71.1908268  93.5072570  75.1113880  69.4280012  92.9074997  74.0789988
  68.7851873  93.7699744  74.2416911  68.7700280  92.0405538  74.0544162
  70.0950012  93.0604997  72.7439988  69.4307557  92.7058612  71.9596337
  70.9757990  92.4220847  72.7080621  70.5170012  94.4784997  72.4639988
  71.1951057  94.7953174  73.2546015  69.6544835  95.1365817  72.5211414
  71.2440012  94.7014997  71.0809988  72.1451111  94.1049859  70.9834426
  71.5388879  95.7397774  70.9540609  70.2650012  94.3284997  69.9519988
  69.3435758  94.8885033  70.0490157  70.0341695  93.2704016  69.9868438
  70.1600012  95.4694997  68.8359988  70.3630012  96.6204997  69.0549988
  69.9010012  94.9474997  67.6519988  70.0010012  95.7824997  66.4489988
  70.5442099  96.6752691  66.7198290  68.9955503  96.0542797  66.1619513
  70.7290012  95.0384997  65.2919988  70.5626920  95.6590922  64.4270709
  70.2040012  93.5924997  65.0169988  69.1410356  93.6576069  64.8281439
  70.3601014  93.0388873  65.9344578  70.8640012  92.9504997  63.9319988
  71.6170012  91.5404997  63.9669988  73.0000012  92.0334997  64.5409988
  74.1950012  91.3094997  64.6549988  74.0996500  90.3458254  64.1718538
  74.3731202  91.1099694  65.7077372  75.4500012  92.0494997  64.1669988
  76.2992785  91.4548506  64.4790396  75.4799114  92.9967681  64.6858098
  75.6830012  92.3654997  62.7189988  74.7450012  93.4854997  62.2719988
  73.7348308  93.2234452  62.5552255  74.8118172  93.5670473  61.1972962
  75.0635833  94.4117044  62.7262754  77.1180012  92.8534997  62.5139988
  77.7889851  92.1538922  62.9883867  77.2168912  93.8389786  62.9328328
  77.3014255  92.8794880  61.4495848  75.3920012  91.1254997  61.8969988
  76.0302889  90.3204984  62.2296302  75.5874284  91.3359385  60.8562425
  74.3556908  90.8458385  62.0206330  71.0070012  90.6354997  64.9049988
  71.9090012  91.0894997  62.6119988  72.1570012  94.8504997  65.5469988
  73.0050012  95.8814997  65.1919988  72.7060012  96.9764997  64.7339988
  74.4720012  95.6004997  65.6569988  74.9280503  95.0240958  64.8586688
  74.9989903  96.5512006  65.6758985  74.5700012  94.9084997  66.9679988
  73.8160318  94.1307132  67.0193733  75.5275415  94.4041560  67.0503823
  74.3890012  95.8374997  68.1129988  74.8420344  96.7815525  67.8211443
  73.3193430  96.0214535  68.1766961  74.8870012  95.4244997  69.4729988
  74.7561367  96.2664256  70.1503031  74.2657431  94.6216803  69.8625132
  76.3980012  94.9724997  69.5289988  76.4690252  93.9626130  69.1302689
  76.9568283  95.6082143  68.8449227  77.0890012  95.0254997  70.9439988
  78.0848889  94.5877856  70.8958837  77.2199606  96.0486053  71.2852062
  76.2360012  94.2524997  71.9989988  75.3516894  94.8379224  72.2222767
  75.8850104  93.3306993  71.5370080  76.9800012  93.9084997  73.2419988
  77.7310474  94.6029123  73.5873602  76.7850012  92.8194997  73.9699988
  77.3880790  92.5865299  74.8358118  75.7010012  91.7924997  73.6739988
  75.5490715  91.6893423  72.6009205  75.9168832  90.7975505  74.0470297
  74.4050012  92.2934997  74.2919988  74.1824730  93.2840001  73.8969102
  73.5943239  91.6464438  73.9624838  74.4180012  92.3464997  75.8699988
  75.3886939  92.7381250  76.1741240  73.6820468  93.0814016  76.1843145
  74.1590012  91.0244997  76.5939988  73.0855243  90.8502094  76.6143800
  74.5880250  90.2124950  76.0094717  74.7420012  90.9734997  78.0629988
  74.2195785  91.7227268  78.6548799  74.4824171  90.0142631  78.5024374
  76.2630012  91.2284997  78.2069988  76.8568362  90.5011185  77.6563995
  76.5518884  92.2056800  77.8242499  76.6670012  91.1494997  79.7509988
  75.8016518  91.3501560  80.3777544  76.9612940  90.1257948  79.9717546
  77.8310012  92.1024997  80.1539988  78.1195424  91.9424842  81.1885074
  77.5543865  93.1463922  80.0514628  78.7077116  91.9312367  79.5357846
  60.0020012  92.8834997  79.8429988  59.5123877  93.2355604  80.7456398
  59.3730238  93.1513295  78.9989344  60.9375827  93.4265924  79.7412659
  60.2440012  91.3804997  79.8949988  59.2892231  90.8746380  80.0280624
  60.8343845  91.1555244  80.7791071  60.9240012  90.8384997  78.6669988
  62.0012240  90.9803948  78.7529390  60.6111720  91.4230468  77.8040888
  60.6270012  89.3474997  78.3829988  59.5822506  89.2267668  78.1052040
  60.7710426  88.7495363  79.2815520  61.5120012  88.7814997  77.2419988
  61.0389456  87.9002616  76.8163101  62.4573425  88.4463178  77.6654937
  61.8020012  89.8324997  76.0689988  62.4725891  89.3914725  75.3337275
  62.3190045  90.7020499  76.4692074  60.4720012  90.3014997  75.3489988
  60.1740457  91.2154082  75.8596491  59.7247879  89.5519329  75.6060046
  60.4510012  90.5364997  73.8459988  61.1344061  89.8521271  73.3449569
  60.8007490  91.5404045  73.6124704  59.0340012  90.3474997  73.2749988
  58.7368776  89.3066556  73.3840955  59.0458072  90.5491887  72.2045974
  57.9430012  91.2874997  73.9779988  58.3598295  92.2920959  73.9964280
  57.8683341  90.9689070  75.0173988  56.5870012  91.3114997  73.3769988
  56.6768568  91.4090842  72.2972098  56.0469449  92.1937517  73.7162605
  55.7600012  90.0694997  73.6789988  55.7550600  89.9716816  74.7618774
  56.3416256  89.2308771  73.3007195  54.3270012  89.9604997  73.1309988
  53.7643057  90.8282849  73.4709613  53.8347149  89.0918538  73.5592308
  54.2150012  89.8934997  71.5699988  54.5849146  90.8134230  71.1292607
  53.1667397  89.8123050  71.2949580  55.0170012  88.6334997  70.9289988
  54.6870799  87.7057559  71.3789816  56.0824648  88.7406404  71.0944590
  54.5410012  88.2254997  69.5479988  53.3180012  88.1644997  69.2759988
  55.5620012  87.9944997  68.7619988  55.3130012  87.7334997  67.3689988
  54.3960025  88.2769468  67.1979996  55.1519336  86.6892377  67.1436850
  56.4550012  88.3194997  66.4989988  56.5534387  89.3477940  66.8052909
  56.1570012  88.2484997  64.9759988  55.2478822  88.8105542  64.8104739
  55.9590629  87.2024370  64.7781141  57.1860012  88.7194997  64.1399988
  57.1750012  90.1014997  63.3599988  58.6160012  90.0494997  62.5959988
  59.5210012  88.9894997  62.5529988  59.9752351  88.8676553  61.5783119
  59.0114092  88.0561224  62.7741773  60.5840012  89.1324997  63.6389988
  61.2016836  88.2732647  63.4100169  60.1408622  88.9916308  64.6142735
  61.5470012  90.3104997  63.7819988  60.8050012  91.4744997  64.3129988
  59.9224033  91.6269445  63.7070981  61.4477891  92.3394087  64.2433135
  60.5568290  91.2897506  65.3474046  62.5910012  89.8984997  64.7169988
  62.9723287  88.9387179  64.4037541  62.1764038  89.8524868  65.7081405
  63.3747862  90.6408610  64.6736652  62.2530012  90.5394997  62.4149988
  62.7737262  89.6379865  62.1282909  62.9593869  91.3502127  62.5120218
  61.5158436  90.7903252  61.6659192  56.0170012  90.1234997  62.3529988
  57.2920012  91.2284997  64.3109988  57.6570012  87.6684997  66.8619988
  58.5970012  88.2464997  67.6169988  58.4950012  89.3664997  68.0839988
  59.7470012  87.2764997  67.6619988  59.2963125  86.3077790  67.8517698
  60.1593578  87.2210603  66.6576106  60.8390012  87.6144997  68.6909988
  61.6999961  86.9739617  68.5346025  61.1916514  88.6311773  68.5494451
  60.3350012  87.4344997  70.1229988  61.1943720  87.3400357  70.7819467
  59.8320414  88.3544437  70.4107476  59.3690012  86.2574997  70.3439988
  58.5496391  86.3603911  69.6349395  59.8704333  85.3252085  70.0958034
  58.7850012  86.1424997  71.7309988  59.6032320  85.9274172  72.4152055
  58.4167551  87.1305481  72.0003239  57.6490012  85.1144997  71.9499988
  56.8862896  85.3360539  71.2050922  58.0434937  84.1330022  71.7022966
  57.0140012  85.0474997  73.3029988  56.1183745  84.4391449  73.2546521
  57.6926461  84.5403957  73.9875663  56.7100012  86.4224997  73.8539988
  55.9317114  86.9807228  73.3557961  57.2950012  86.9984997  74.8909988
  56.9671813  87.9783482  75.2072912  58.3910012  86.4354997  75.7099988
  58.4982979  85.3722366  75.5022008  59.3549330  86.8848418  75.4987927
  58.0690012  86.6014997  77.1869988  58.9911398  86.6412830  77.7656028
  57.5728314  87.5578073  77.3411097  57.2040012  85.5134997  77.7079988
  56.2573531  85.5555421  77.1692995  57.6600955  84.5625975  77.4467193
  56.9300012  85.5504997  79.2099988  56.3486275  84.6744317  79.4886645
  57.8687846  85.4790959  79.7565079  56.1700012  86.8644997  79.6499988
  56.8710712  87.6949159  79.7091561  55.4341076  87.1500283  78.9033000
  55.5010012  86.7174997  81.0129988  54.9237680  85.7960432  81.0640174
  56.2474763  86.6500749  81.8023421  54.5560012  87.9104997  81.3289988
  54.2431798  87.7643291  82.3598683  55.2250099  88.7681611  81.3415377
  53.3460012  88.2484997  80.4769988  52.8769261  89.1656548  80.8203122
  52.5947907  87.4666737  80.5112343  53.6276930  88.3900929  79.4374113
  66.5360012  55.3074997  81.9359988  67.4561626  55.2649331  82.5103854
  65.7083702  55.3444001  82.6384625  66.5367527  56.2407075  81.3794607
  66.4100012  54.0934997  80.9859988  66.4317698  53.1693002  81.5609635
  67.2688938  54.0596236  80.3211907  65.0740012  54.1504997  80.1449988
  64.9772662  55.0856876  79.5936415  64.1995177  54.0892178  80.7897423
  65.0340012  52.9514997  79.1389988  64.8333947  52.0073230  79.6405338
  65.9732129  52.8156058  78.6050324  63.9090012  53.2194997  78.1289988
  63.9350879  54.2611963  77.8195467  62.9502064  53.0714936  78.6231361
  63.9780012  52.3314997  76.8859988  64.9164362  52.5274709  76.3704874
  63.1868415  52.6290940  76.2011039  63.8600012  50.8164997  77.1739988
  62.9687753  50.6338889  77.7716105  64.7052958  50.5009990  77.7840531
  63.8040012  49.9694997  75.9229988  62.9116216  50.2166355  75.3493843
  63.7116145  48.9186441  76.1910498  65.0440012  50.1584997  75.0369988
  65.9216065  50.0346282  75.6678757  65.0551282  51.1948143  74.7015809
  65.1600012  49.2154997  73.7989988  64.2025587  49.1891417  73.2833360
  65.3516488  48.1981166  74.1390457  66.2510012  49.6324997  72.8419988
  67.1012942  50.0098609  73.4060389  65.9093802  50.4589539  72.2211957
  66.7310012  48.5054997  71.9529988  66.0624975  48.2869787  71.1238001
  66.8660678  47.5682507  72.4896470  68.1130012  48.9744997  71.4169988
  68.7482452  49.3069278  72.2362719  68.0257790  49.8181204  70.7380507
  68.8550012  47.7874997  70.6739988  68.5250194  46.8205031  71.0392038
  69.9256756  47.8423117  70.8521672  68.6030012  47.8684997  69.1379988
  68.8945304  48.8389348  68.7568068  67.5538283  47.7096308  68.9187590
  67.1800012  47.4044997  68.7109988  66.3370012  46.7414997  69.3649988
  66.9770012  47.9334997  67.5239988  65.7090012  47.8514997  66.8449988
  65.0960956  47.4401782  67.6327953  65.7240566  47.1624908  66.0129939
  65.1740012  49.2144997  66.4159988  64.1516141  49.1017055  66.0952244
  66.0080012  49.8094997  65.2879988  65.3865406  50.4806845  64.7108517
  66.3142259  48.9877370  64.6527685  67.1750012  50.5134997  65.8059988
  68.0910012  51.3514997  64.9019988  67.0480012  52.0324997  63.9059988
  67.5300012  52.8514997  62.8689988  68.4345347  52.4976025  62.3917516
  67.7393109  53.8588629  63.2171449  66.3960012  53.0054997  61.8519988
  66.1097151  52.0268664  61.4879024  66.8003153  53.5774912  61.0293610
  65.0980012  53.6974997  62.2439988  64.4530012  52.9114997  63.2859988
  64.3910541  51.8839415  62.9549085  63.4589136  53.3064139  63.4340959
  65.0207974  53.0071702  64.1993287  65.4310012  55.1714997  62.5219988
  66.0022842  55.5563874  61.6912093  65.9818618  55.2392942  63.4430452
  64.4946470  55.7038823  62.6062996  64.2930012  53.6194997  60.8999988
  64.8539527  54.1130417  60.1203632  63.3407046  54.1118792  61.0278415
  64.1318677  52.5843183  60.6356682  68.6420012  52.4704997  65.6929988
  69.0170012  50.4344997  64.2009988  65.1010012  49.9954997  67.6569988
  64.3780012  51.1394997  67.5409988  63.7630012  51.4874997  66.5779988
  64.5070012  52.0024997  68.8539988  63.5173250  52.0940310  69.2895629
  65.1062588  51.4680903  69.5869407  65.1280012  53.3874997  68.5269988
  64.5823235  53.7900301  67.6806737  64.9182158  54.0490769  69.3614679
  66.6130012  53.4064997  68.2149988  66.8788953  52.6006317  67.5356379
  66.8708011  54.3310245  67.7042562  67.4620012  53.3064997  69.5229988
  67.1549695  54.1516682  70.1362913  67.1335849  52.4137051  70.0495561
  68.9450012  53.2994997  69.4459988  69.2356027  52.3319833  69.0418157
  69.2120271  54.0359223  68.6905123  69.7930012  53.5974997  70.7749988
  70.8383689  53.7742893  70.5266991  69.4421093  54.4932009  71.2798871
  69.6920012  52.3674997  71.7879988  68.6766153  52.1524538  72.0999711
  70.0823195  51.4461428  71.3577673  70.5780012  52.7634997  72.9999988
  71.6370651  52.7713038  72.7905312  70.1910012  53.1074997  74.2649988
  70.8843933  53.3484762  75.0579348  68.7190012  53.1884997  74.6769988
  68.5544192  54.0802693  75.2793945  68.0449444  53.2649251  73.8311338
  68.3330012  51.9344997  75.5399988  67.3178932  52.0895642  75.9036138
  68.2850285  51.0868110  74.8591305  69.1960012  51.6044997  76.6479988
  70.2069683  51.6798493  76.2475304  69.0861820  52.4250536  77.3516571
  69.0470012  50.2884997  77.3809988  69.2009883  49.5053592  76.6419968
  69.8793999  50.2162418  78.0788356  67.7030012  50.0404997  78.1519988
  67.3402364  51.0013117  78.5123208  66.9574755  49.6882385  77.4443770
  67.7820012  49.0804997  79.3579988  66.7874935  48.9934221  79.7918823
  68.0371145  48.0895669  78.9867798  68.7930012  49.4604997  80.4989988
  68.6481411  48.8286517  81.3717523  69.8035371  49.2575952  80.1512059
  68.7050012  50.8814997  80.8999988  69.4756657  51.1258673  81.6248640
  67.7473377  51.1167300  81.3519815  68.8359303  51.5375871  80.0441087
  90.9340012  54.5954997  81.8729988  91.6293115  55.4076813  82.0609708
  91.4172771  53.6697958  82.1718410  90.0733494  54.7408873  82.5201100
  90.5240012  54.5524997  80.4329988  91.4268934  54.4477085  79.8338265
  90.1042462  55.5236698  80.1851109  89.5060012  53.4044997  80.0449988
  88.6746009  53.4488657  80.7483722  90.0081683  52.4573247  80.2317037
  88.9480012  53.3894997  78.5899988  88.0725315  54.0346636  78.5662025
  88.5886034  52.3854385  78.3699978  89.8940012  53.8254997  77.5119988
  90.2510631  54.8252150  77.7457701  89.3274388  53.9121169  76.5863263
  91.0910012  52.9154997  77.2839988  90.7267689  51.9623165  76.9050611
  91.5479146  52.7047599  78.2485691  92.1460012  53.4604997  76.3389988
  91.6409832  53.6942000  75.4035251  92.8275203  52.6396421  76.1200134
  92.9500012  54.6744997  76.7939988  93.6075771  54.3499493  77.5994253
  92.2535692  55.3837650  77.2374051  93.7850012  55.3904997  75.7129988
  93.2063309  55.3399185  74.7931492  94.6696441  54.7763626  75.5492320
  94.1960012  56.7754997  75.9519988  94.7906993  56.7896558  76.8627308
  93.3002686  57.3589886  76.1632635  94.9680012  57.4364997  74.8139988
  95.9276953  56.9305977  74.7328122  95.1904317  58.4615276  75.1054956
  94.2700012  57.4364997  73.3619988  93.2850397  57.8955704  73.3983865
  94.1179100  56.4183138  73.0086778  95.1330012  58.1534997  72.3869988
  96.1245157  57.7043631  72.3663277  95.2758176  59.1933040  72.6675062
  94.5710012  58.0944997  71.0019988  94.1826982  57.0968945  70.8249402
  95.3933833  58.2398868  70.3065549  93.4960012  59.1074997  70.6929988
  93.8509278  60.1101930  70.8946772  92.6168465  58.9214694  71.2984315
  93.4300012  59.3024997  69.2549988  93.8540012  60.2514997  68.6189988
  92.9800012  58.1944997  68.6059988  93.0090012  58.1494997  67.1279988
  93.5877132  59.0283662  66.8868599  92.0030844  58.2755966  66.7546049
  93.6580012  56.9134997  66.5339988  94.6829930  56.8489265  66.8597532
  93.6040012  57.0414997  65.0169988  94.5312783  57.4681635  64.6593453
  92.7943915  57.7186332  64.7749091  93.3790012  55.7624997  64.4199988
  93.6380012  55.7984997  62.7749988  92.2100012  55.2824997  62.4259988
  91.1200012  56.1444997  62.7949988  90.9521173  56.9377134  62.0781891
  91.3312549  56.6272854  63.7447812  89.8230012  55.3254997  63.0339988
  89.7228929  54.6757951  62.1737015  88.9879344  56.0108933  63.0506136
  89.6570012  54.4554997  64.2159988  89.7560012  55.3284997  65.4599988
  90.6571672  55.9225416  65.3940596  89.8114265  54.6778990  66.3200841
  88.8715225  55.9440114  65.5275256  88.2920012  53.8634997  64.1479988
  88.1488456  53.4443633  63.1638518  87.5665427  54.6287584  64.3588520
  88.2405280  53.0837418  64.8940719  90.7610012  53.3404997  64.2599988
  90.7069695  52.7507684  63.3570150  90.5907951  52.7064498  65.1171222
  91.7354057  53.8006689  64.3388343  93.8200012  57.1284997  62.1489988
  94.6950012  54.7924997  62.4979988  93.0030012  55.7614997  67.0079988
  93.5020012  55.1034997  68.1789988  94.6030012  55.3394997  68.6439988
  92.4250012  54.2654997  68.8209988  91.5350611  54.8652140  68.9819409
  92.1169839  53.4417887  68.1818332  93.0260012  53.7414997  70.1619988
  93.8992456  53.1375068  69.9413231  93.3824345  54.5803271  70.7513686
  92.0270012  52.9024997  70.9929988  91.7323126  51.9911293  70.4789787
  92.4740311  52.5892077  71.9332527  90.7380012  53.7924997  71.3129988
  90.2328191  54.0698142  70.3896387  90.0068790  53.2514564  71.9087627
  91.1260012  55.0714997  72.0509988  91.9685652  54.8771431  72.7114625
  91.4715202  55.8078205  71.3279295  89.9590012  55.6904997  72.8719988
  89.1409988  55.9233012  72.1920160  89.5742870  54.9563579  73.5743868
  90.3570012  56.9824997  73.6649988  91.0156004  56.6760399  74.4693056
  90.9579561  57.5928357  72.9921771  89.2220012  57.8154997  74.1829988
  88.4788104  57.9896997  73.4195357  88.9880012  58.3474997  75.4019988
  88.0811648  58.9239247  75.5159813  89.8100012  58.2534997  76.6449988
  89.2958464  57.5850050  77.3334613  90.7711464  57.7960262  76.4386038
  90.0280012  59.6054997  77.3569988  90.0347915  60.4064738  76.6186904
  89.1774163  59.7999251  78.0075087  91.3040012  59.6604997  78.1749988
  92.1049318  59.8673485  77.4651885  91.2240992  60.5402879  78.8075274
  91.6960012  58.4274997  79.0469988  91.0546423  58.3737624  79.9238774
  91.5346464  57.5032277  78.4949381  93.1600012  58.5084997  79.4759988
  93.7244245  58.6079710  78.5507303  93.2622412  59.4604508  79.9897702
  93.8090012  57.3884997  80.3079988  93.4842033  57.4739636  81.3434143
  93.4450755  56.4248732  79.9561236  95.3500012  57.3694997  80.2779988
  95.6960000  57.2780658  79.2514318  95.6977462  58.3411008  80.6220592
  96.0090012  56.2724997  81.1419988  97.0897593  56.3775045  81.1398099
  95.7784461  55.2768335  80.7783584  95.6728589  56.3331610  82.1732454
  98.3620012  70.0124997  81.6939988  98.8006054  69.4890265  82.5378182
  97.9606713  70.9531440  82.0599396  99.1625883  70.2454473  80.9972867
  97.2900012  69.1824997  81.0309988  96.5519278  68.9481353  81.7961942
  97.7540914  68.2393251  80.7555791  96.5980012  69.7804997  79.8469988
  95.8211482  70.4352076  80.2416960  96.0791801  68.9579459  79.3587354
  97.4060012  70.5354997  78.7949988  98.4150236  70.1394482  78.7040761
  97.5172500  71.5923422  79.0325139  96.7270012  70.3964997  77.4959988
  95.7537832  70.8778413  77.5482489  96.5358518  69.3390961  77.3207144
  97.4870012  70.9614997  76.3319988  98.2879735  70.2628859  76.0970539
  97.9701966  71.8752468  76.6713588  96.7010012  71.2504997  75.0879988
  97.2418167  71.9721236  74.4784519  95.7589795  71.7257483  75.3581172
  96.4000012  69.9354997  74.2119988  95.6965024  70.2588613  73.4458540
  95.8454398  69.2724117  74.8734064  97.5540012  69.1434997  73.5449988
  97.1246229  68.2263812  73.1474197  98.2355057  68.8403379  74.3388637
  98.3530012  69.8584997  72.4329988  98.8079599  70.7509655  72.8570461
  97.6560817  70.2042757  71.6699973  99.4240012  68.9864997  71.7769988
  98.9358734  68.0910312  71.3983055 100.1142665  68.6508827  72.5490240
 100.1830012  69.5964997  70.6819988 100.8525722  68.8419331  70.2763844
 100.8192152  70.3679849  71.1117803  99.3520012  70.2174997  69.5629988
 100.0248368  70.4634805  68.7432197  98.9327521  71.1593955  69.9055430
  98.2490012  69.3614997  69.0149988  97.5234237  69.9625584  68.4768438
  97.7165296  68.8832052  69.8328010  98.7940012  68.2674997  68.0789988
  99.5454427  67.6752131  68.5855293  99.2385521  68.7126440  67.1967913
  97.6780012  67.2444997  67.9729988  97.2020012  66.6354997  68.9139988
  97.4020012  67.0184997  66.6819988  96.2800012  66.2834997  66.4739988
  96.1702742  65.5774018  67.2832255  96.3905505  65.7422435  65.5455524
  95.0470012  67.2404997  66.4199988  94.1604934  66.7554841  66.0461566
  95.4570012  68.3864997  65.4719988  94.5705391  68.8548303  65.0662248
  96.0240614  67.9530460  64.6576612  96.2490012  69.3424997  66.1759988
  96.3270012  70.7814997  65.6669988  96.7850012  70.5814997  64.1609988
  98.0400012  70.1464997  63.8789988  98.1962762  69.0790946  63.9651002
  98.7900126  70.6192056  64.5065567  98.3420012  70.6364997  62.4489988
  99.2828044  70.1358896  62.2578765  98.5250443  71.6976104  62.5379725
  97.5500012  70.4674997  61.2379988  96.9940012  69.0074997  61.2089988
  97.8151532  68.3221406  61.3681412  96.5602167  68.8354309  60.2351798
  96.2325116  68.9073147  61.9678226  96.3700012  71.4224997  61.2499988
  96.7332032  72.4132321  61.4763781  95.6557576  71.0888499  61.9813700
  95.9304640  71.4053244  60.2631811  98.3840012  70.7634997  60.0719988
  98.7603887  71.7725481  60.1509646  97.7883828  70.6684011  59.1765408
  99.2091829  70.0671067  60.0326676  94.9990012  71.3334997  65.5669988
  97.3520012  71.4614997  66.5139988  94.7630012  67.7694997  67.7229988
  93.6080012  68.3964997  67.9269988  92.6570012  68.5714997  67.1609988
  93.6820012  69.0754997  69.2829988  93.6240678  68.3534919  70.0910219
  94.6075646  69.6237982  69.4398679  92.4330012  70.0544997  69.2709988
  92.4442790  70.6242420  68.3483247  91.5169441  69.4726432  69.2532379
  92.4110012  71.0374997  70.4759988  93.3828423  71.5043554  70.6146512
  91.7116599  71.8461628  70.2783863  91.9800012  70.3204997  71.7699988
  90.9291325  70.0486291  71.6895776  92.5266376  69.3884565  71.8911853
  92.1640012  71.1734997  73.0389988  93.2023420  71.1700326  73.3641713
  91.9153669  72.2123040  72.8305577  91.3230012  70.7044997  74.1159988
  90.2800217  70.6572930  73.8066988  91.5918245  69.7034753  74.4415786
  91.4590012  71.6864997  75.3409988  91.4027762  72.7006584  74.9629766
  90.5819615  71.5450033  75.9711782  92.7330012  71.4814997  76.2089988
  93.6645597  71.6901450  75.7047967  92.8070012  71.0874997  77.5159988
  93.8403553  71.0410628  77.8284615  91.8440012  70.7254997  78.5699988
  92.3642885  70.5498489  79.5100354  91.1092383  71.4975387  78.7693985
  91.1220012  69.4224997  78.1669988  90.2688710  69.2534438  78.8229668
  90.7156374  69.5332601  77.1634752  92.0380012  68.2104997  78.2039988
  91.4964100  67.3740794  77.7621990  92.8825107  68.4054716  77.5487937
  92.5590012  67.7974997  79.6129988  93.3706327  68.4741468  79.8709673
  91.7650033  67.9861365  80.3334629  93.0290012  66.3384997  79.7469988
  92.1903938  65.7076236  80.0356560  93.3695994  65.9587407  78.7876235
  94.1530012  66.1654997  80.8209988  95.0640724  66.6932030  80.5446632
  93.8529298  66.5670395  81.7872063  94.4860012  64.6724997  80.9949988
  93.7304319  64.1371416  81.5645792  94.5317123  64.1787974  80.0267624
  95.8750012  64.5224997  81.7019988  96.1696064  63.4787427  81.7553679
  95.8575755  64.9075604  82.7159838  96.6492204  65.0573915  81.1592131
  84.1290012  50.1234997  84.0049988  83.4365821  50.8254168  84.4591982
  85.1331824  50.5154717  84.1382955  84.0641062  49.1905268  84.5581373
  83.8140012  49.9104997  82.5389988  83.8646938  50.8589484  82.0069478
  82.7926843  49.5550139  82.4324352  84.7960012  48.9094997  81.8879988
  84.6536429  47.9030875  82.2814420  85.8245337  49.1801546  82.1182979
  84.6200012  48.8834997  80.2779988  85.4094217  48.2915158  79.8201556
  84.7085930  49.8828707  79.8547789  83.2370012  48.2704997  79.8749988
  82.4064267  48.8210456  80.3093008  83.1438461  47.2458528  80.2310688
  83.1000012  48.2894997  78.3349988  83.2066616  47.2934801  77.9091049
  83.8683227  48.9031868  77.8695451  81.6860012  48.8624997  77.9659988
  81.6360124  49.9484106  78.0213942  80.8908203  48.4881211  78.6092391
  81.4160012  48.4074997  76.4929988  80.4626854  48.7866446  76.1270902
  81.3627618  47.3233214  76.4129547  82.5360012  48.9214997  75.6009988
  83.4460011  48.3665384  75.8188501  82.7452233  49.9596725  75.8559502
  82.2210012  48.8194997  74.0769988  83.0345838  49.2572212  73.5027321
  81.3316477  49.4027723  73.8397806  81.9920012  47.3204997  73.6339988
  81.2316871  46.8926646  74.2839378  82.9046854  46.7591105  73.8262948
  81.5630012  47.1034997  72.1839988  80.6094541  47.6082568  72.0491389
  81.3632037  46.0400143  72.0667393  82.5610012  47.5444997  71.0819988
  83.5517333  47.1395369  71.2812649  82.6759683  48.6240716  71.0422366
  82.1070012  47.0334997  69.6929988  81.7572071  46.0092393  69.7696786
  82.9642685  47.0238893  69.0250973  81.0040012  47.8984997  69.0609988
  81.3189120  48.9327816  69.0050248  80.0964473  47.8427329  69.6503248
  80.5910012  47.3334997  67.6579988  81.0440012  46.3714997  67.0659988
  79.7020012  48.2404997  67.1019988  79.2250012  47.8914997  65.7739988
  78.1497187  47.8496723  65.8604858  79.5930075  46.9217042  65.4719059
  79.6520012  49.0164997  64.7259988  79.0582714  48.9549277  63.8290105
  81.1200012  48.9204997  64.3779988  81.3279023  49.4813147  63.4768525
  81.3613379  47.8796016  64.2022924  81.8640012  49.4174997  65.4429988
  83.4690012  49.4484997  65.3989988  83.8620012  50.3384997  64.1719988
  84.8840012  49.9364997  63.2689988  84.6312276  49.0737339  62.6665623
  85.7992538  49.6857242  63.7974126  85.2490012  51.1504997  62.3769988
  85.9272987  50.8176340  61.6015235  85.7276545  51.9364480  62.9431730
  84.0590012  51.8214997  61.6379988  83.2220012  52.5764997  62.5799988
  82.9674375  51.9311087  63.4094575  82.3227092  52.8744647  62.0617413
  83.7618538  53.4539847  62.9029477  84.7120012  52.7354997  60.5349988
  85.4311617  52.1481921  59.9849152  85.1758965  53.5815846  61.0096686
  83.9203091  53.0635055  59.8770224  83.2080012  50.7724997  60.9489988
  83.8204339  50.2188061  60.2529875  82.4056679  51.2605328  60.4163309
  82.7951062  50.1008584  61.6878159  83.9190012  50.2014997  66.5879988
  83.9900012  48.1054997  65.2319988  79.3170012  50.2234997  65.3539988
  79.3550012  51.4104997  64.6929988  79.7740012  51.6784997  63.5669988
  78.7990012  52.4134997  65.6569988  77.9507857  52.8391887  65.1308121
  78.3806086  51.8356857  66.4773558  79.7680012  53.5104997  66.1819988
  80.5482001  53.6760214  65.4471837  79.2392640  54.4537064  66.2759721
  80.4180012  53.1354997  67.5349988  79.6311807  52.8303171  68.2201492
  81.0322785  52.2543082  67.3669811  81.2960012  54.2324997  68.1889988
  81.8533859  54.6867788  67.3718949  80.6227113  55.0006418  68.5616117
  82.2930012  53.8574997  69.3079988  83.1534172  53.3282460  68.9036773
  82.6845283  54.7575644  69.7780742  81.6410012  53.0154997  70.3569988
  80.8816124  53.5865983  70.8888597  81.1331554  52.1573811  69.9256715
  82.7000012  52.5084997  71.3659988  82.2104503  51.9210967  72.1340337
  83.3788689  51.8319810  70.8484979  83.5130012  53.6404997  71.9759988
  84.3217819  54.0310227  71.3768998  83.3100012  54.2154997  73.1969988
  84.0358753  54.9738788  73.4530805  82.2710012  53.9934997  74.2389988
  81.7495656  54.9412449  74.3619009  81.5351412  53.2878278  73.8699210
  82.7780012  53.5284997  75.6429988  83.4134147  52.6518940  75.5225113
  83.4131319  54.3086145  76.0583164  81.6250012  53.2044997  76.6609988
  80.8845396  54.0022574  76.6026358  81.1203507  52.2976623  76.3393188
  82.0800012  53.0464997  78.1079988  82.8612810  52.2897003  78.1092530
  82.5594136  53.9791877  78.4001317  80.9830012  52.6814997  79.1569988
  80.2203307  53.4572514  79.1233395  80.4913867  51.7678305  78.8342777
  81.4420012  52.5434997  80.5889988  80.6109330  52.3514701  81.2652630
  82.1307364  51.7097580  80.7129043  82.1490012  53.8294997  81.0379988
  83.1212895  53.9191130  80.5599403  81.5684526  54.6810100  80.6898514
  82.3200012  53.9384997  82.5929988  82.7435121  54.8998677  82.8677333
  82.9783415  53.1697989  82.9834192  81.3634513  53.8417458  83.0987577
  98.3760012  60.7444997  83.8679988  98.6966963  60.9525555  84.8840187
  98.3040653  59.6663492  83.7575147  97.3773212  61.1548672  83.7461433
  99.3420012  61.3404997  82.8489988 100.3334755  60.9284108  83.0289001
  99.4170367  62.4084755  83.0350401  98.9500012  61.0874997  81.3979988
  97.8929737  61.3196349  81.2686344  99.0515763  60.0231953  81.1952434
  99.7650012  61.8574997  80.3619988 100.8140935  61.6347351  80.5437438
  99.6442337  62.9215767  80.5591315  99.4490012  61.5724997  78.8719988
  98.3810449  61.6737617  78.6965322  99.6981795  60.5361624  78.6500070
 100.1900012  62.4784997  77.9169988 101.2608319  62.3487286  78.0629373
  99.9721774  63.5144284  78.1679599  99.8380012  62.2264997  76.4079988
  98.7536589  62.2105853  76.3146249 100.1806304  61.2263703  76.1461276
 100.4150012  63.2334997  75.4139988 101.5002382  63.1485290  75.3753792
 100.2011092  64.2508709  75.7363184  99.8300012  63.0134997  73.9829988
  98.7428546  63.0444084  74.0094192 100.0966148  62.0245672  73.6121797
 100.3420012  64.0704997  73.0099988 101.4286691  64.0234804  73.0255247
 100.0729121  65.0462800  73.4135739  99.8110012  63.9594997  71.5059988
  98.8192714  64.4066862  71.5121034  99.6627625  62.8981838  71.3142648
 100.5910012  64.5594997  70.3809988 101.6248973  64.2511282  70.5158495
 100.5730324  65.6371785  70.5325091 100.1390012  64.2624997  68.9679988
 100.4950907  65.0243830  68.2766334  99.0572204  64.2440769  68.8695865
 100.7210012  62.8744997  68.5029988 100.1920366  62.1220844  69.0786834
 101.7501522  62.8716762  68.8521866 100.7070012  62.4724997  67.0009988
 101.2012367  63.2269346  66.4021664  99.6880838  62.3618933  66.6493703
 101.1930012  61.0214997  66.7359988 101.7670012  60.2554997  67.5139988
 100.9320012  60.8024997  65.5009988 101.3720012  59.5114997  64.9329988
 102.0907525  59.1382209  65.6468065 101.8685432  59.6841450  63.9891600
 100.2260012  58.5234997  64.7729988 100.6180218  57.6307034  64.3146010
  99.0580012  59.0744997  63.9319988  98.5557174  58.2102413  63.5189981
  99.5409565  59.6130551  63.1262090  98.1230012  59.9214997  64.6079988
  96.6130012  60.1504997  64.0869988  96.5260012  61.6914997  63.9439988
  97.4570012  62.4584997  64.6899988  97.5636360  62.1025611  65.7064267
  97.1151821  63.4872413  64.7581705  98.8370012  62.5334997  63.9769988
  99.0744373  61.4929920  63.7947436  99.6138885  62.9644335  64.5919126
  98.9440012  63.2364997  62.6029988 100.3880012  63.4244997  62.2919988
 100.8645510  63.8992135  63.1386870 100.4616581  64.0659625  61.4264353
 100.8265680  62.4633809  62.0692277  98.3980012  62.3594997  61.4709988
  97.4208434  62.0009185  61.7561239  99.0798514  61.5464265  61.2967510
  98.3226161  62.9796843  60.5895312  98.1000012  64.5474997  62.6329988
  97.0739067  64.3045719  62.8658041  98.1487057  65.0229323  61.6648863
  98.4974295  65.2151871  63.3837844  96.3450012  59.5774997  62.7149988
  95.7270012  59.6454997  65.1599988  99.7850012  58.1904997  66.0829988
  98.9280012  57.1964997  66.1709988  98.6360012  56.4504997  65.2819988
  98.7320012  56.8724997  67.6689988  98.8747043  55.8024520  67.7793925
  99.5346038  57.3394810  68.2343876  97.3160012  57.3384997  68.1989988
  96.5692530  56.9897535  67.4941553  97.1133656  56.8211714  69.1313846
  97.1470012  58.9024997  68.4029988  97.1759750  59.3788255  67.4263063
  96.1462708  59.0712942  68.7930143  98.1760012  59.5824997  69.3609988
  99.1999973  59.3504352  69.0741469  98.1015112  60.6671923  69.3707529
  97.9390012  59.0494997  70.8039988  98.0322791  57.9656107  70.8236197
  98.7174288  59.4324276  71.4611119  96.5720012  59.4534997  71.3749988
  96.2932182  60.4212486  70.9609418  95.8126809  58.7492990  71.0465901
  96.5410012  59.5294997  72.9059988  97.0744687  60.4298602  73.1876783
  95.5007696  59.6887688  73.1868859  97.0500012  58.3634997  73.6349988
  97.9119997  57.8829392  73.1973069  96.5800012  57.8494997  74.7659988
  97.1163795  56.9728419  75.0997344  95.3820012  58.2814997  75.7229988
  94.8940633  59.1636639  75.3119953  94.6153955  57.5185129  75.7994707
  95.9090012  58.6354997  77.1559988  96.3991187  59.6067794  77.1002711
  95.0384490  58.7713535  77.7948585  96.8610012  57.6164997  77.8079988
  96.3036907  56.6804636  77.8447222  97.6662015  57.4627172  77.0949017
  97.4540012  57.9064997  79.1939988  98.4891290  57.5725104  79.1836753
  97.4840213  58.9862034  79.3297328  96.6870012  57.2494997  80.4109988
  95.6717842  57.6408009  80.4394224  96.5883775  56.1803396  80.2442800
  97.3290012  57.5094997  81.7729988  97.6882719  58.5370216  81.7754803
  96.5378378  57.4646344  82.5192438  98.5200012  56.5544997  82.2399988
  98.8527241  56.8369746  83.2356987  98.1201665  55.5474294  82.3361997
  99.6680012  56.5194997  81.3349988 100.3982042  55.7875377  81.6668182
 100.1711022  57.4790325  81.2808959  99.3631762  56.2495415  80.3278516
  47.1070012  58.8504997  82.5019988  47.3635362  58.5949445  83.5253806
  47.8225427  58.3596700  81.8486409  46.1274832  58.4297369  82.2919624
  47.1120012  60.3694997  82.2889988  48.1047964  60.7177398  82.5688014
  46.4259437  60.7800204  83.0249416  46.7750012  60.8874997  80.9259988
  45.9738977  60.2509438  80.5505538  47.6451476  60.6718346  80.3091481
  46.3890012  62.3574997  80.7249988  47.2028405  63.0141459  81.0245504
  45.5347220  62.6363992  81.3399200  46.0520012  62.6314997  79.2059988
  45.3048355  61.9094463  78.8866940  46.9499257  62.4176051  78.6286378
  45.5460012  64.0724997  78.8589988  46.2388233  64.7938789  79.2884477
  44.5922688  64.2329474  79.3572238  45.3840012  64.3584997  77.3329988
  46.3064120  64.1047846  76.8138101  45.2297454  65.4251051  77.1755568
  44.2030012  63.5694997  76.6969988  43.2485710  63.9414086  77.0674010
  44.2479121  62.5180652  76.9747624  44.2320012  63.6824997  75.2639988
  45.2703710  63.6757790  74.9395240  43.8338356  64.6579331  74.9872846
  43.4240012  62.5404997  74.4819988  42.4308901  62.5262847  74.9256511
  43.8945803  61.5968415  74.7567597  43.3190012  62.6204997  73.0069988
  43.2846853  63.6740581  72.7379671  42.3584687  62.2017699  72.7117518
  44.3910012  61.9764997  72.2259988  43.9609503  61.7299544  71.2582743
  44.5960978  61.0275847  72.7181021  45.7320012  62.7374997  72.0369988
  46.2671591  62.7621000  72.9847608  45.5524599  63.7730833  71.7620345
  46.6570012  62.0904997  70.9849988  46.5537944  61.0106498  71.0098521
  47.6900392  62.3136013  71.2382773  46.3880012  62.5844997  69.5779988
  46.4528216  63.6643740  69.5366382  45.3987532  62.2828813  69.2547591
  47.2910012  63.8524997  69.3349988  47.5010012  64.7434997  70.1649988
  47.9570012  63.7414997  68.1359988  48.6690012  64.8304997  67.5069988
  49.6769539  64.8548189  67.8928769  48.1789954  65.7647365  67.7399965
  48.6850012  64.5844997  66.0129988  49.1829070  65.4119695  65.5352149
  47.2950012  64.4034997  65.4179988  47.3776849  64.3657675  64.3402508
  46.7160906  65.2768957  65.6911780  46.6850012  63.2444997  65.9019988
  45.4820012  62.7004997  65.0179988  46.2710012  62.0724997  63.7669988
  47.3260012  61.2234997  64.1319988  47.1032615  60.4711122  64.8773102
  48.1973422  61.7638232  64.4906244  47.7810012  60.5584997  62.7729988
  46.8503928  60.3689965  62.2530895  48.3393915  59.6354832  62.8331473
  48.6000012  61.4914997  61.8449988  49.9370012  61.8704997  62.4609988
  49.7632140  62.2419833  63.4615645  50.3743226  62.6497083  61.8546294
  50.5819194  61.0045938  62.4588734  48.9660012  60.7104997  60.4919988
  48.0644587  60.2675596  60.0973605  49.7091817  59.9638261  60.7077100
  49.3575974  61.4374373  59.7952126  47.8580012  62.6674997  61.4039988
  46.9673391  62.3508547  60.8819460  48.4787841  63.2502224  60.7401368
  47.5862662  63.2652116  62.2620987  44.7050012  61.6624997  65.7059988
  44.7010012  63.9284997  64.6799988  49.4220012  63.3794997  65.7739988
  50.8030012  63.3454997  65.9249988  51.5110012  64.3144997  65.9549988
  51.2720012  61.9034997  66.1509988  51.2268361  61.3596300  65.2130654
  52.3128192  61.8717301  66.4634014  50.3320012  61.2704997  67.2449988
  50.2914035  62.0479844  67.9999361  49.3601293  61.2703586  66.7617824
  50.5740012  59.9184997  67.9289988  49.7003555  59.6299212  68.5078941
  50.6992070  59.1530174  67.1671423  51.8200012  59.9254997  68.8249988
  51.9484830  58.9162696  69.2118491  52.6950625  60.1300568  68.2129318
  51.8060012  60.9284997  70.0469988  52.8357841  61.2271643  70.2320596
  51.2875314  61.8231077  69.7075188  51.1660012  60.4594997  71.3649988
  50.1055454  60.2769219  71.1982657  51.5959372  59.5102217  71.6721542
  51.3380012  61.4964997  72.5429988  52.2352844  61.2859742  73.1132108
  51.4589363  62.5014546  72.1407721  50.1160012  61.4744997  73.4249988
  49.8038914  60.5116748  73.8006445  49.3860012  62.5454997  73.7979988
  48.5175996  62.4117788  74.4269720  49.6550012  63.9614997  73.4279988
  50.7301047  64.1289048  73.4647253  49.3494534  64.1732610  72.4094318
  48.9960012  64.9364997  74.3589988  49.5116381  65.8897947  74.2492166
  47.9858514  65.0933789  73.9855748  48.9300012  64.5494997  75.8759988
  48.2158744  65.2323711  76.3362341  48.4823803  63.5609046  75.9290961
  50.2250012  64.5634997  76.6769988  50.8584951  63.7330298  76.3734364
  50.7915586  65.4697687  76.4701800  49.9330012  64.4784997  78.2029988
  49.1969309  65.2387496  78.4575780  49.4629409  63.5243016  78.4247516
  51.1330012  64.6804997  79.0899988  51.9075824  64.0137264  78.7154052
  51.4866573  65.6918773  78.8979662  51.0140012  64.4854997  80.6149988
  50.3647620  65.2692625  80.9972543  50.4661083  63.5554588  80.7497226
  52.3210012  64.4274997  81.4729988  52.0917508  64.1997329  82.5096451
  52.8578434  65.3700106  81.4583515  52.9948639  63.6582483  81.1065260
  45.4040012  70.2464997  81.0569988  45.0715950  69.6764639  81.9189700
  44.5848986  70.8902089  80.7495913  46.2215596  70.8857255  81.3788692
  45.8600012  69.2874997  79.8699988  45.0020738  68.6515870  79.6583888
  46.6207467  68.6408839  80.2989140  46.3690012  69.9034997  78.5559988
  47.3200849  70.4033179  78.7391668  45.6741690  70.6820874  78.2474856
  46.5320012  68.9214997  77.4089988  46.7575306  69.5425863  76.5449166
  45.5371357  68.5140607  77.2359605  47.5740012  67.7444997  77.4679988
  47.1418373  66.8866354  76.9592000  47.6782496  67.4590397  78.5134699
  48.9700012  68.0254997  76.8759988  48.8699917  68.5497944  75.9273523
  49.4729371  67.0868850  76.6532097  49.8460012  68.8564997  77.8249988
  50.0222106  68.3107363  78.7501272  49.3313047  69.7741660  78.1064344
  51.1650012  69.2014997  77.1939988  51.5561225  68.3585857  76.6256932
  51.9118501  69.4295509  77.9522159  51.0000012  70.4524997  76.2289988
  50.4647953  71.2664640  76.7133105  50.4272023  70.2007368  75.3373184
  52.3550012  70.9234997  75.8259988  52.9336131  70.0762993  75.4643930
  52.8817583  71.3013078  76.7019079  52.3070012  71.9934997  74.7819988
  51.9806144  72.9303427  75.2284713  51.5708889  71.7503601  74.0177018
  53.6590012  72.2224997  74.1219988  54.4091714  72.3550582  74.8978156
  53.6185176  73.1623781  73.5745870  54.0930012  71.1004997  73.1469988
  54.0875401  70.1613042  73.6975749  55.1223302  71.2690070  72.8430891
  53.2080012  70.9164997  71.8709988  52.1473427  70.9252357  72.0996301
  53.4170477  69.9674217  71.3845395  53.5220012  72.0534997  70.8819988
  54.5821528  72.0849227  70.6648997  53.2237499  73.0085764  71.2978638
  52.6450012  71.9734997  69.6159988  51.7990012  72.8284997  69.2789988
  52.8780012  70.8474997  69.0569988  52.3280012  70.6304997  67.7409988
  53.0825232  70.1063888  67.1740187  52.0881376  71.5563016  67.2384570
  51.0510012  69.7334997  67.9059988  51.3943581  68.8016103  68.3238292
  50.2060012  69.4584997  66.6099988  49.9394931  68.4103539  66.5971575
  50.8596185  69.6605938  65.7706375  49.0310012  70.2754997  66.5359988
  48.8300012  71.4034997  65.4609988  48.8470012  70.5474997  64.1529988
  47.7380012  69.5884997  63.8619988  47.2227593  69.2764741  64.7610843
  48.1444585  68.6875763  63.4115252  46.7620012  70.1404997  62.8379988
  46.3966037  71.0683627  63.2596668  45.9278043  69.4665853  62.7063473
  47.2470012  70.4854997  61.4339988  48.3810012  71.5754997  61.3549988
  48.0702120  72.4390923  61.9267957  48.5062802  71.8514730  60.3185414
  49.3004461  71.1526042  61.7311602  47.7420012  69.2254997  60.7709988
  46.9876752  68.4614944  60.8805539  48.6700080  68.9301383  61.2269975
  47.8939217  69.4491303  59.7249555  46.1720012  70.9534997  60.5739988
  45.4092465  70.1916599  60.5116493  46.5667285  71.1519592  59.5888825
  45.7509908  71.8602279  60.9839123  47.5050012  72.0234997  65.7049988
  50.0500012  72.2684997  65.4929988  50.2320012  70.4014997  68.8849988
  49.5040012  69.6424997  69.6539988  49.5570012  68.4584997  69.6759988
  48.6370012  70.4424997  70.5679988  48.6837822  71.4620809  70.1994629
  47.6107083  70.1179063  70.4154565  49.0230012  70.3504997  72.0139988
  48.8788676  69.3350153  72.3662459  50.0800312  70.5637734  72.1374282
  48.2010012  71.2974997  72.8749988  47.1445140  71.2511423  72.6233245
  48.2756236  71.0168990  73.9227391  48.7050012  72.6994997  72.7189988
  49.7146329  72.7246933  73.1248497  48.7980724  72.9212526  71.6586378
  47.8880012  73.8124997  73.3879988  48.2546979  74.7948691  73.0975081
  46.8518624  73.7663276  73.0583541  47.9230012  73.6854997  74.9489988
  47.3584521  72.7831319  75.1786023  48.9546840  73.4788523  75.2196378
  47.4140012  74.8294997  75.8109988  46.3432066  74.8317631  75.6437446
  47.5643664  74.4784065  76.8310330  47.9790012  76.2024997  75.6919988
  47.4160943  76.8622065  75.0489772  49.0640012  76.7074997  76.2799988
  49.2673604  77.7242807  75.9760065  50.0710012  76.1434997  77.2949988
  49.9247072  75.0702139  77.4039791  51.1034896  76.2800246  76.9933210
  49.8440012  76.8144997  78.6949988  49.6695540  77.8851469  78.5950599
  48.9564089  76.4061043  79.1744278  51.0950012  76.5694997  79.6249988
  51.9714349  76.9812454  79.1245626  50.9652174  77.1482843  80.5353111
  51.3620012  75.1024997  79.9859988  51.5280362  74.5389412  79.0705867
  52.2853645  75.0321435  80.5583056  50.2100012  74.4644997  80.7969988
  50.1641481  74.8420975  81.8167572  49.2285228  74.6476850  80.3683166
  50.4710012  73.0084997  80.8619988  50.6002833  72.5834952  79.8682481
  51.3917214  72.7970885  81.4027515  49.3040012  72.2664997  81.5679988
  49.2124175  72.6176624  82.5927974  48.3808710  72.5578255  81.0717399
  49.4060012  70.7324997  81.5599988  48.5158651  70.2847729  81.9915861
  50.2573788  70.3797250  82.1322288  49.5091979  70.3532949  80.5472326
  94.1180012  77.6324997  83.8639988  93.9282262  77.2200821  84.8500648
  94.9823128  77.1201795  83.4513447  93.2638021  77.3942048  83.2361680
  94.3540012  79.1774997  83.9299988  95.1844950  79.3264592  84.6179625
  93.4750518  79.5886518  84.4190957  94.6310012  79.9224997  82.6509988
  95.2741718  79.3185599  82.0110634  95.1979040  80.8213081  82.8853820
  93.3880012  80.3254997  81.8749988  92.7389223  80.9150742  82.5186979
  92.8161391  79.4408370  81.5992239  93.6920012  81.1184997  80.6499988
  94.2715436  81.9911371  80.9401839  92.7482595  81.4948110  80.2587106
  94.4330012  80.3794997  79.5469988  93.9106515  79.4473114  79.3396516
  95.4185171  80.1007898  79.9139540  94.5920012  81.2134997  78.1829988
  93.6045284  81.5810731  77.9099468  94.8808728  80.5096641  77.4036409
  95.5870012  82.3914997  78.1989988  96.5432082  82.0616762  78.6031467
  95.2271010  83.1711855  78.8677632  95.8010012  82.9714997  76.8349988
  95.9583740  82.1556628  76.1327274  96.7259006  83.5468745  76.8440467
  94.6920012  83.8334997  76.3479988  94.4514262  84.5039540  77.1701384
  93.8287632  83.1800648  76.2244186  94.9040012  84.6394997  75.0569988
  95.8960218  85.0827502  75.1114499  94.2009867  85.4706936  75.0609229
  94.7870012  83.8934997  73.7469988  93.7382229  83.7659447  73.4900689
  95.1945122  82.8914323  73.8672727  95.5380012  84.5974997  72.5889988
  96.6040370  84.4087939  72.7039322  95.4098048  85.6737470  72.6633721
  95.1320012  84.1474997  71.2059988  94.1424577  84.4970545  70.9303900
  95.1131389  83.0631070  71.1365100  96.1210012  84.6654997  70.2309988
  97.1215302  84.3562444  70.5054871  96.0881255  85.7480731  70.1990140
  95.6510012  84.4274997  68.7229988  94.5290012  84.5464997  68.2629988
  96.7570012  84.1984997  67.9959988  96.6370012  83.8814997  66.5909988
  97.2346784  84.5002634  65.9387907  95.5912574  84.0606333  66.3872266
  96.9950012  82.3814997  66.3879988  97.9425410  82.1707206  66.8555825
  97.0620012  82.0044997  64.8129988  97.7722300  81.1959607  64.7051066
  97.4591715  82.8832139  64.3203508  95.7860012  81.6374997  64.2379988
  95.8050012  81.2504997  62.7149988  96.5570012  79.8584997  62.8099988
  95.9330012  78.7294997  63.3599988  94.9935840  78.4650225  62.8923062
  95.7224950  78.8695208  64.4163502  96.9570012  77.5264997  63.2969988
  97.2926671  77.4365951  62.2715747  96.4910762  76.5975707  63.5926031
  98.1930012  77.6434997  64.1189988  97.7450012  77.8314997  65.5469988
  97.0248938  78.6375483  65.5796338  98.6111752  78.0935930  66.1361928
  97.3279819  76.9035495  65.9085516  99.0330012  76.3534997  64.0689988
  99.1624134  76.0686024  63.0361386  98.5302274  75.5852574  64.6288133
  99.9916774  76.5747507  64.5154122  99.1220012  78.7454997  63.7709988
  99.4335648  78.6366057  62.7428197  99.9853293  78.6991603  64.4176573
  98.6219596  79.6941127  63.9033872  94.4420012  81.0084997  62.2679988
  96.5950012  82.2084997  61.9869988  95.9190012  81.4754997  66.8299988
  96.0280012  80.7704997  67.9299988  97.0080012  80.7034997  68.6729988
  94.7340012  79.9684997  68.0889988  93.9154286  80.6763041  68.0083453
  94.6330351  79.2988466  67.2385414  94.6920012  79.1744997  69.4409988
  94.8509242  78.1182997  69.2532590  95.5006058  79.4883278  70.0934582
  93.3420012  79.3614997  70.1549988  93.1033886  80.4200399  70.0901091
  92.6104962  78.8473902  69.5364060  93.1870012  78.8744997  71.6039988
  92.1133425  78.8655810  71.7825585  93.5052403  77.8348631  71.6130376
  93.8800012  79.6274997  72.7959988  93.9076199  80.6946424  72.5854171
  93.2657533  79.5103485  73.6867042  95.2850012  79.1384997  73.1069988
  95.1763716  78.2051205  73.6571842  95.7649559  78.8854713  72.1657559
  96.2050012  80.0824997  73.8879988  96.1968904  81.0538944  73.4074715
  95.7800694  80.2276354  74.8803266  97.5860012  79.5714997  74.0349988
  98.0061048  79.3576461  73.0637451  98.3510012  79.3554997  75.0769988
  99.3324543  78.9335529  74.9147621  98.0320012  79.6324997  76.5259988
  97.5830570  80.6241085  76.5455460  97.2596300  78.9432064  76.8484870
  99.1330012  79.6104997  77.4849988  99.3703431  78.5609186  77.6545673
  99.9885246  80.0342718  76.9625470  98.9670012  80.3054997  78.8039988
  98.9642525  81.3878142  78.6747905  98.0179780  80.0527554  79.2687346
 100.1130012  79.9124997  79.7389988 100.5490437  79.0085687  79.3195697
 100.8721270  80.6873551  79.6472820  99.7820012  79.6934997  81.2469988
 100.6521102  79.2790608  81.7527069  99.5838024  80.6463147  81.7302025
  98.5790012  78.7144997  81.4769988  97.6544382  79.1593354  81.1134228
  98.7220991  77.8023227  80.9005526  98.3900012  78.3334997  82.9519988
  98.1618990  79.2226433  83.5345003  97.5068944  77.7017868  83.0181376
  99.5670012  77.5984997  83.5869988  99.3259190  77.2861930  84.5986375
 100.4527538  78.2223425  83.6418024  99.8244735  76.7091457  83.0187572
  68.8840012  97.5434997  82.2909988  68.8855020  98.2671401  83.1001781
  69.8898118  97.1430557  82.2027970  68.2288652  96.7261963  82.5798310
  68.4320012  98.1684997  80.9999988  69.0926134  98.9999120  80.7601072
  67.4443888  98.5965872  81.1489176  68.4090012  97.1824997  79.8169988
  67.7969855  96.3150021  80.0636035  69.4138646  96.8025921  79.6435322
  67.8780012  97.8314997  78.4719988  68.2976146  98.8274513  78.3484878
  66.7973718  97.9615403  78.5041786  68.2620012  96.9634997  77.2139988
  67.5290658  96.1802257  77.0383268  69.2135936  96.4603927  77.3774618
  68.3640012  97.8534997  75.9409988  69.1259650  98.5995511  76.1592540
  67.4208270  98.3918792  75.8766010  68.6660012  97.2034997  74.5919988
  69.1537701  96.2388961  74.7200279  69.3498954  97.8146764  74.0046473
  67.3790012  97.0134997  73.8209988  66.8462029  97.9533443  73.6821856
  66.6901026  96.3468966  74.3365015  67.7340012  96.4044997  72.4119988
  68.4697876  95.6170740  72.5607272  68.2302268  97.1767688  71.8255369
  66.5200012  95.8344997  71.5959988  66.0400246  95.1143658  72.2550350
  66.9551357  95.2585086  70.7797138  65.4920012  96.7884997  71.0369988
  65.9630066  97.5467500  70.4151055  64.9694600  97.3266144  71.8259926
  64.4490012  96.0114997  70.1629988  63.5765798  96.6439400  70.0176741
  64.1067420  95.1467758  70.7284909  64.9830012  95.5314997  68.8109988
  64.1383613  95.1396389  68.2468351  65.6540997  94.6931700  68.9756317
  65.7190012  96.6164997  67.9039988  66.1473710  96.0597087  67.0770598
  66.5493451  96.9622952  68.5139548  64.9680012  97.8484997  67.3519988
  64.5034649  98.4017756  68.1583069  64.1990295  97.5401328  66.6536711
  65.8940012  98.8634997  66.8029988  65.7340012 100.0814997  66.8319988
  66.9220012  98.2384997  66.2019988  67.8940012  99.1264997  65.4749988
  68.5090402  99.5244342  66.2679912  67.3662462  99.9384644  64.9960624
  68.7780012  98.3444997  64.4419988  69.5253171  99.0731282  64.1745789
  68.0680012  97.8694997  63.2129988  68.7314006  97.2768099  62.5978394
  67.7463696  98.7329800  62.6441931  66.9590012  97.1074997  63.6149988
  65.5750012  97.1524997  62.7779988  65.2040012  95.6014997  62.7629988
  64.9110012  94.9524997  63.9799988  64.2197250  94.1337030  63.8286768
  64.4146697  95.6562987  64.6419043  66.1380012  94.4944997  64.7359988
  65.7041927  93.9315859  65.5528141  66.8064454  95.2390043  65.1437637
  67.0440012  93.4844997  63.9569988  67.7590012  94.0164997  62.7669988
  67.0433611  94.5175134  62.1296773  68.1941659  93.1812186  62.2387590
  68.5410283  94.6836471  63.0972483  68.0430012  93.1124997  65.0519988
  67.4929478  92.8419239  65.9402240  68.6940434  93.9491775  65.2322321
  68.6120305  92.2658464  64.6960762  66.2770012  92.2094997  63.6359988
  65.9262594  91.7645362  64.5552755  66.9331536  91.5194325  63.1271557
  65.4363862  92.4449173  62.9993042  64.5580012  97.8814997  63.5439988
  65.8090012  97.6524997  61.3519988  69.3930012  97.2244997  65.0249988
  70.1640012  97.4064997  66.1399988  70.5950012  98.4184997  66.5269988
  70.5310012  96.0514997  66.7899988  70.8595634  95.3633737  66.0179350
  71.3722499  96.1590456  67.4701763  69.3070012  95.5444997  67.5149988
  68.9681371  96.2277928  68.2859350  68.4555756  95.3833391  66.8614433
  69.7330012  94.1844997  68.1829988  70.2921099  93.5985273  67.4579555
  70.4272395  94.4134784  68.9877763  68.6070012  93.3714997  68.7409988
  67.8583626  94.0258289  69.1838301  68.0957176  92.8052874  67.9662764
  69.0980012  92.4014997  69.8199988  69.7146939  91.6307369  69.3622698
  69.7481333  92.9425451  70.5048192  67.9390012  91.7194997  70.6549988
  67.2069412  92.5040992  70.8399119  67.4580442  91.0000812  69.9981613
  68.2620012  91.0624997  71.9039988  68.8815047  90.1951790  71.7076569
  68.8628766  91.7372475  72.5122834  67.0690012  90.6964997  72.6549988
  66.7554295  89.6726627  72.5172140  66.3550012  91.4344997  73.4659988
  65.4652586  91.0289272  73.9258674  66.6650012  92.9204997  73.8709988
  67.6571527  93.1506390  73.4864312  65.9797194  93.5896537  73.3627638
  66.6510012  93.2264997  75.3929988  67.5213627  92.7789438  75.8714018
  66.7395108  94.3003611  75.5461220  65.3760012  92.7234997  76.0779988
  64.5088254  93.0113426  75.4836422  65.3765846  91.6374053  76.1080438
  65.2160012  93.2814997  77.5209988  65.4645643  94.3396673  77.4804693
  64.1595261  93.2267568  77.7778036  66.0180012  92.6094997  78.5889988
  65.9429243  91.5309484  78.4637768  67.0702450  92.8501596  78.4645374
  65.5660012  92.9514997  80.0149988  65.6541005  94.0151912  80.2287316
  64.5214199  92.6954876  80.1827542  66.3890012  92.2104997  80.9829988
  66.0115436  91.2095068  81.1765295  67.3982423  92.0772098  80.5996202
  66.4590012  92.9614997  82.2489988  67.1332602  92.4762156  82.9482434
  65.4897818  93.0358791  82.7304784  66.8239457  93.9713648  82.0842900
  46.1190012  78.2884997  85.1219988  45.1597505  77.7829623  85.0700443
  46.3989868  78.3610326  86.1689644  46.8525465  77.6568686  84.6284753
  46.0560012  79.6474997  84.4799988  45.2739731  80.2077138  84.9896999
  45.7096348  79.4981367  83.4609134  47.3650012  80.4814997  84.4819988
  48.0708746  80.0001054  85.1587050  47.1342266  81.4481177  84.9253537
  48.0580012  80.7224997  83.0989988  47.2947160  80.9437323  82.3562324
  48.5448818  79.8067083  82.7673673  49.0940012  81.8824997  83.1079988
  49.7240538  81.7943651  83.9893835  48.5562843  82.8237124  83.2097049
  49.9740012  81.9414997  81.8809988  50.5549013  81.0216542  81.8455548
  50.6899142  82.7479887  82.0245985  49.2500012  82.1384997  80.5349988
  48.8354099  83.1440437  80.4929827  48.4020716  81.4572284  80.4791871
  50.1450012  81.9184997  79.3399988  50.4633964  80.8771318  79.3650672
  51.0423393  82.5144776  79.4958144  49.5620012  82.2354997  77.9589988
  50.2639053  82.9146788  77.4798462  48.6543139  82.8114660  78.1349069
  49.2450012  81.0634997  76.9979988  48.9665447  81.3917822  75.9990035
  48.4331574  80.4259800  77.3471511  50.4990012  80.2694997  76.9409988
  50.5176524  79.5649599  77.7697429  51.3607398  80.9204160  77.0782667
  50.6660012  79.4644997  75.6039988  49.8033229  78.8186822  75.4593442
  51.5277338  78.8054345  75.6918622  50.8640012  80.3764997  74.3649988
  51.8057215  80.9221081  74.3919462  50.0851103  81.1207527  74.2246761
  50.8920012  79.4334997  73.1309988  49.9561001  78.8844894  73.1356720
  51.6805501  78.7124972  73.3295890  51.1170012  80.0294997  71.7449988
  52.0302447  80.6105923  71.7260651  50.2893770  80.6734464  71.4721620
  50.7840012  79.0054997  70.7129988  51.4490012  78.0194997  70.4709988
  49.5120012  79.2044997  70.2039988  48.7750012  78.0244997  69.8539988
  48.2324441  77.8552588  70.7718502  49.3890896  77.1611813  69.6424125
  47.7900012  78.3024997  68.6919988  47.2169045  77.3986611  68.5673788
  48.5810012  78.6324997  67.3469988  49.1592204  77.7571494  67.0838915
  49.2623964  79.4369565  67.5942530  47.7610012  79.0014997  66.3009988
  46.8140012  78.0744997  65.5979988  47.1510012  78.1904997  64.0679988
  47.9010012  79.2744997  63.5129988  48.9667904  79.1834554  63.6772947
  47.5988572  80.2147188  63.9652090  47.5740012  79.4314997  61.9679988
  47.8454050  78.4812839  61.5256425  48.2500078  80.1906999  61.6019292
  46.1410012  79.7954997  61.3689988  45.9190012  81.2524997  61.8669988
  46.0923016  81.2828406  62.9339479  44.8951526  81.5240427  61.6570024
  46.5858812  81.9113939  61.3314183  46.1700012  79.8054997  59.8659988
  46.6255032  78.8881367  59.5258854  46.7212552  80.6659717  59.5312198
  45.1467846  79.8605053  59.5235089  44.9780012  78.9344997  61.8209988
  45.1776521  77.9045182  61.5653433  44.0784991  79.2633298  61.3225845
  44.8536541  79.0287251  62.8901547  47.1150012  76.6384997  65.9689988
  45.4680012  78.6414997  65.8409988  46.8510012  79.3064997  69.1079988
  45.7450012  78.8094997  69.5249988  45.3820012  77.6924997  69.6149988
  44.7360012  80.0074997  69.7989988  44.6209444  80.5198390  68.8493550
  43.7638227  79.5759549  70.0238214  45.1930012  80.9684997  70.9239988
  46.0615181  81.5420561  70.6194133  44.4258485  81.6948674  71.1727954
  45.5500012  80.1364997  72.1709988  44.6492932  79.7065649  72.6017368
  46.1716953  79.2974231  71.8684893  46.3250012  80.9684997  73.2599988
  47.3349359  81.2480262  72.9657153  45.8406666  81.8838335  73.5913385
  46.4190012  79.9954997  74.4519988  46.8577389  79.0694578  74.0861345
  47.1412616  80.4188377  75.1473445  45.1500012  79.6844997  75.2049988
  44.7503668  80.6536319  75.4995766  44.4563999  79.2757673  74.4754967
  45.1820012  78.7284997  76.4629988  45.6621714  79.3096643  77.2416285
  44.1383174  78.6250847  76.7568958  45.7970012  77.3404997  76.3559988
  45.4245276  76.7937930  75.5028111  46.7110012  76.7214997  77.1309988
  47.0372222  75.7481491  76.7936879  47.3640012  77.1794997  78.4109988
  48.4142837  77.4158734  78.2489650  46.9176864  78.0651103  78.8493798
  47.2800012  75.9914997  79.4349988  47.9982502  75.2448068  79.0984382
  47.6664105  76.3821308  80.3744423  45.9070012  75.3114997  79.6909988
  45.1098248  75.9616449  79.3305434  45.8360788  74.3946291  79.1123603
  45.6680012  74.9934997  81.1999988  46.3913671  74.2547167  81.5377656
  45.8375345  75.8834227  81.8036380  44.2170012  74.4714997  81.4489988
  43.5551194  74.8992708  80.6983228  44.1851293  73.3964155  81.2947157
  43.6720012  74.8074997  82.7789988  42.7610860  74.2374606  82.9527000
  44.3762549  74.4923355  83.5468088  43.3570012  76.3214997  82.9879988
  44.2974028  76.8609387  83.0690252  42.8946238  76.6695167  82.0669101
  42.4530012  76.6954997  84.1629988  42.2333464  77.7588837  84.1570723
  42.9125397  76.4638536  85.1179362  41.5078421  76.1622239  84.1136801
  87.4570012  95.0664997  81.7349988  88.4323747  95.4405196  81.4397285
  87.4702886  93.9856991  81.6278368  87.3225320  95.2907134  82.7896353
  86.3010012  95.7164997  80.8609988  86.4186356  95.4979554  79.8009971
  86.2880348  96.7994472  80.9497144  85.0060012  95.1464997  81.3389988
  85.0376117  94.9974510  82.4182180  84.8626368  94.1599017  80.9028313
  83.8250012  95.9934997  80.9929988  84.0402360  96.9743261  81.4112133
  82.9901559  95.5969029  81.5687161  83.4010012  96.1654997  79.5459988
  84.0835838  96.8617359  79.0654689  82.4231166  96.6441298  79.5415321
  83.3380012  94.8844997  78.7189988  82.7700296  94.1568275  79.2958163
  84.3513659  94.4945743  78.6509764  82.7500012  94.9894997  77.3299988
  82.0017659  95.7799952  77.3244458  82.2187968  94.0661734  77.1030174
  83.8090012  95.2694997  76.2019988  84.0573654  94.3490128  75.6752444
  84.7397389  95.6334942  76.6331823  83.2810012  96.2994997  75.1979988
  82.7515555  97.0844185  75.7338446  82.5453278  95.8252240  74.5495974
  84.3830012  96.9264997  74.3379988  85.1098719  97.4148278  74.9833619
  83.9567996  97.7093647  73.7111786  85.0650012  95.9194997  73.4699988
  85.1941556  94.9944107  74.0277357  86.0668843  96.2629794  73.2182451
  84.2900012  95.5984997  72.1629988  84.1295252  96.5314426  71.6281306
  83.3030749  95.2356109  72.4439941  84.9540012  94.5544997  71.2279988
  84.8403930  93.5975502  71.7345488  86.0185170  94.7714138  71.2226795
  84.4620012  94.3814997  69.7559988  83.4208951  94.6583591  69.6264145
  84.5569861  93.3509254  69.4243564  85.3560012  95.2874997  68.8349988
  86.4034642  95.0511162  68.9727854  85.2017164  96.3337939  69.0706546
  84.8660012  95.3134997  67.4049988  83.7420012  95.7394997  67.1649988
  85.8550012  94.9704997  66.6189988  85.5640012  94.8484997  65.2129988
  86.5629979  94.9214691  64.8103290  84.9636799  95.6545072  64.8165670
  84.9160012  93.4094997  64.8489988  85.6207993  92.6413003  65.1210712
  84.6370012  93.3504997  63.3449988  84.1373608  92.4046072  63.1854747
  85.6252620  93.2993337  62.9053313  83.8870012  94.4164997  62.7609988
  82.3600012  94.2934997  62.4609988  81.8870012  95.0174997  63.7759988
  82.0380012  96.4524997  63.8879988  82.8843006  96.8515685  63.3442063
  82.1684116  96.7521803  64.9238470  80.6900012  97.1384997  63.4239988
  80.3847827  96.6488514  62.5078464  80.8499033  98.1874958  63.2204909
  79.4800012  97.0714997  64.3539988  79.8510012  97.5904997  65.6549988
  80.7524236  97.0905810  65.9818825  79.0460506  97.3747241  66.3417269
  79.9871029  98.6589633  65.5803077  78.3490012  97.9554997  63.7959988
  78.2008306  97.7067780  62.7563368  78.6185298  98.9892897  63.9184836
  77.4557937  97.7324595  64.3614460  79.1400012  95.6504997  64.3709988
  78.9339207  95.3221015  63.3631459  78.2650293  95.5024749  64.9859483
  79.9670572  95.0866174  64.7777544  81.9940012  95.0624997  61.1869988
  81.8620012  92.9514997  62.5079988  83.7840012  93.2064997  65.7369988
  83.1190012  91.9984997  65.6249988  83.3670012  91.0774997  64.8049988
  82.1150012  91.8034997  66.8129988  81.6348451  90.8506004  66.6155493
  82.7153642  91.6544322  67.7070067  81.1100012  92.9114997  67.0119988
  81.6499568  93.8171939  67.2654290  80.6159855  93.1112656  66.0664433
  80.0550012  92.6284997  68.1059988  79.5689436  91.6727101  67.9274817
  80.5503437  92.5413273  69.0698980  78.9530012  93.7994997  68.1989988
  78.4153739  93.8473587  67.2538149  78.2121437  93.5612427  68.9583181
  79.5480012  95.2174997  68.4999988  80.2832125  95.5079016  67.7523144
  78.7667469  95.9744025  68.4665182  80.1790012  95.2434997  69.8499988
  79.6836500  94.4813171  70.4495036  81.2137440  94.9285809  69.7477669
  80.1450012  96.5804997  70.6009988  80.6724390  97.2966665  69.9817295
  79.1024411  96.8955264  70.6141369  80.6800012  96.5934997  72.0409988
  81.6991333  96.9291336  72.1604704  79.9990012  96.2384997  73.1829988
  80.4658357  96.2700403  74.1570012  78.5240012  95.7704997  73.2049988
  77.9569649  96.3353871  73.9429643  78.0084396  95.9021897  72.2602580
  78.4890012  94.3304997  73.5919988  77.4473851  94.0158275  73.5398217
  79.0086887  93.7908848  72.8025688  79.0900012  93.9194997  74.9779988
  79.1865701  92.8352780  75.0349616  80.0935862  94.3201143  75.0912639
  78.2040012  94.4134997  76.1439988  77.9906536  95.4578333  75.9272154
  77.2573197  93.8840301  76.0515806  78.7240012  94.2724997  77.5809988
  79.5222022  95.0058834  77.6790467  77.9221821  94.6183433  78.2276079
  79.2540012  92.9344997  78.0779988  78.7770236  92.1569368  77.4840532
  80.3131179  92.8970084  77.8296037  79.0930012  92.5904997  79.5339988
  79.5833637  93.3201059  80.1736349  78.0383286  92.6270282  79.7979012
  79.6370012  91.1764997  79.8539988  79.4338463  90.9099994  80.8868466
  80.7097694  91.1118039  79.7066088  79.1711859  90.4264441  79.2210898
  89.5360012  89.8184997  82.0829988  90.5008568  89.4826347  82.4499828
  88.9011927  90.0065035  82.9440811  89.6879095  90.7660256  81.5733613
  88.9220012  88.8094997  81.1689988  88.7884719  87.8607125  81.6858893
  89.5854190  88.6101832  80.3317630  87.5920012  89.2904997  80.6699988
  86.9816439  89.5280153  81.5411929  87.1104254  88.4425446  80.1870620
  87.5730012  90.4484997  79.7239988  87.9790830  91.3300351  80.2151634
  86.5501025  90.7009688  79.4489649  88.4250012  90.1634997  78.3959988
  89.4525645  90.4572330  78.5945117  88.0545563  90.8450821  77.6320740
  88.4150012  88.7434997  77.8489988  87.3728777  88.4449716  77.7506287
  88.8444403  88.1010287  78.6147599  89.1660012  88.4904997  76.4709988
  88.5266592  88.7995260  75.6460657  89.3365983  87.4227780  76.3402427
  90.4990012  89.2284997  76.3789988  91.1941723  88.7705912  77.0814999
  90.3508774  90.2511447  76.7209644  91.1320012  89.2494997  74.9819988
  90.4066021  89.5470253  74.2278001  91.4798865  88.2581856  74.6941635
  92.2970012  90.2114997  74.9629988  92.9513317  89.8542347  75.7551555
  91.8796304  91.1548833  75.3140799  93.1240012  90.4684997  73.6609988
  93.4639142  89.5263355  73.2363497  94.0222086  91.0457654  73.8734034
  92.2900012  91.2014997  72.6039988  91.9314345  92.1667248  72.9532686
  91.4060102  90.6333792  72.3203280  93.2110012  91.3914997  71.3119988
  93.8643491  90.5232547  71.2446259  93.8598859  92.2494395  71.4641886
  92.4840012  91.5444997  69.9629988  91.9561543  92.4903951  69.8997179
  91.7403510  90.7608500  69.8448059  93.4970012  91.4454997  68.7899988
  94.0596635  90.5226785  68.8520722  94.1900457  92.2779318  68.8185460
  92.7150012  91.5554997  67.5069988  91.5780012  92.0044997  67.4969988
  93.3320012  91.1334997  66.4419988  92.8420012  91.2704997  65.1609988
  93.7143516  91.5758420  64.6031164  92.0834232  92.0351265  65.0767536
  92.3240012  89.9234997  64.6419988  93.0970322  89.1824413  64.7609503
  91.9450012  90.0624997  63.1179988  91.6640411  89.0793681  62.7654158
  92.8575493  90.3626222  62.6182314  90.9190012  90.9884997  62.8619988
  89.4350012  90.4434997  62.5529988  88.5930012  91.6614997  62.8299988
  88.9530012  92.9844997  62.3669988  88.8577196  93.0847111  61.2936544
  89.9937186  93.1858739  62.6039645  88.1550012  94.0764997  63.0959988
  87.1075478  94.0658636  62.8221788  88.5710272  95.0402999  62.8402872
  88.1870012  93.9964997  64.6399988  89.6630012  93.7284997  65.0799988
  90.0406250  92.8814334  64.5239295  89.6596472  93.4986159  66.1351017
  90.2480864  94.6188535  64.9048919  87.5930012  95.2144997  65.2449988
  86.6357925  95.3958907  64.7807112  88.2640162  96.0420196  65.0989865
  87.4625454  95.0205373  66.2998243  87.3350012  92.7974997  65.0089988
  86.3376045  92.9365376  64.6191907  87.2942744  92.7087346  66.0842253
  87.7706793  91.9024597  64.5888524  89.4130012  90.3174997  61.1269988
  89.0250012  89.3344997  63.3709988  91.2160012  89.4994997  65.5079988
  90.8880012  88.2984997  65.4049988  91.3800012  87.4904997  64.6189988
  89.9680012  87.8984997  66.5219988  89.1850055  88.6492764  66.5503720
  89.4793086  86.9696698  66.2385175  90.6730012  87.7594997  67.8649988
  91.4483835  87.0123910  67.7358788  91.1873090  88.6952169  68.0598159
  89.8140012  87.3834997  69.0619988  89.4434275  86.3783706  68.8774868
  90.4969175  87.3049311  69.9043273  88.6630012  88.3004997  69.4539988
  88.1416482  88.5987959  68.5463003  87.9406880  87.7509349  70.0527009
  89.0780012  89.5824997  70.2219988  89.4441055  89.3094699  71.2095834
  89.9182313  90.0400798  69.7033324  88.0050012  90.5854997  70.3579988
  87.5963839  90.8053210  69.3729041  87.1858978  90.1817673  70.9465461
  88.5060012  91.9524997  71.0429988  89.1269297  91.6976104  71.8939155
  89.1548219  92.4612820  70.3312979  87.4210012  92.8724997  71.4329988
  86.9254757  93.3733400  70.6149722  86.9840012  93.1394997  72.6609988
  86.2177610  93.8409677  72.9583681  87.6120012  92.3804997  73.8179988
  87.0198182  92.5833024  74.7087352  87.5559716  91.3102376  73.6534364
  89.0670012  92.7764997  74.1079988  89.5953925  91.9027894  74.4876537
  89.5408674  93.0299011  73.1615858  89.2390012  93.9384997  75.0819988
  90.1630524  94.4561475  74.8245558  88.4351239  94.6492745  74.9114571
  89.2730012  93.5524997  76.5649988  88.2627887  93.3462342  76.9115106
  89.8350639  92.6299471  76.6994129  89.9040012  94.6574997  77.4199988
  90.9704817  94.6482161  77.2029203  89.5324209  95.6059092  77.0417496
  89.7280012  94.5944997  78.9799988  89.6755557  95.6007354  79.3918509
  88.7816761  94.1172164  79.2279980  90.8740012  93.8234997  79.7009988
  90.7353659  92.7479911  79.6236904  91.8155933  94.0372720  79.1999812
  91.0050012  94.2274997  81.2179988  91.8637711  93.7432426  81.6730573
  90.1292878  93.9416369  81.7908422  91.1343846  95.3006363  81.3265286
  57.9770012  51.6944997  83.2909988  57.1575101  51.9935398  83.9370934
  58.0125920  52.3901143  82.4575460  58.8996391  51.8079301  83.8535685
  57.8040012  50.2594997  82.8049988  56.8652494  50.1628955  82.2622136
  57.7329913  49.5911470  83.6588584  58.9440012  49.8354997  81.9059988
  58.8760585  48.7580385  81.7563651  59.8709304  50.0061158  82.4499320
  59.0470012  50.5404997  80.5219988  59.7829991  50.0637687  79.8783493
  59.3467737  51.5843319  80.6010973  57.6940012  50.4574997  79.8529988
  57.1383506  51.3824773  79.9843065  57.0960021  49.6736625  80.3149094
  57.8370012  50.1614997  78.3089988  56.8377447  50.0110318  77.9044461
  58.3563716  49.2120666  78.1976062  58.5690012  51.2454997  77.4759988
  59.6446987  51.0792543  77.4733031  58.4154449  52.2370266  77.8997023
  58.0370012  51.2254997  75.9959988  58.4838908  52.0357315  75.4213119
  56.9621157  51.3954922  75.9758071  58.3390012  49.9354997  75.3369988
  57.8142055  49.9288820  74.3840629  57.8843175  49.1500174  75.9393752
  59.8550012  49.5944997  75.0989988  60.3564943  49.4706668  76.0563227
  60.3488943  50.4286725  74.6013501  60.0210012  48.3604997  74.2709988
  59.4922276  48.4923460  73.3294277  59.5456030  47.5172585  74.7690639
  61.4660012  48.0104997  73.9629988  61.8789277  47.4653434  74.8082889
  62.0329299  48.9369471  73.8925930  61.6700012  47.2104997  72.6669988
  61.2072849  46.2356713  72.8114127  62.7323643  47.0262741  72.5338842
  61.0990012  47.8204997  71.3709988  61.6826618  48.6675410  71.0257362
  60.0851108  48.1796175  71.5264103  61.0730012  46.7104997  70.2409988
  60.5230340  45.8405870  70.5768991  62.0816466  46.4073084  69.9864827
  60.6640012  47.3614997  68.9209988  60.4240012  48.5504997  68.8449988
  60.6080012  46.4024997  67.9239988  59.8990012  46.9514997  66.7689988
  60.3236779  46.4917367  65.8893797  60.0946965  48.0136455  66.7417664
  58.4100012  46.6754997  66.8389988  58.2608798  45.6248701  66.6523590
  57.6520012  47.5334997  65.7349988  56.5813648  47.4990291  65.8844998
  57.8786745  47.1311081  64.7555677  58.1360012  48.8954997  65.8459988
  57.2520012  50.1594997  65.4869988  57.5800012  50.4404997  63.9589988
  58.9360012  50.7654997  63.6649988  59.6222336  50.1967484  64.2788359
  59.1094734  51.8121586  63.8978282  59.2830012  50.6204997  62.1619988
  60.3523278  50.7270434  62.0299462  58.7852128  51.4063581  61.6124442
  58.9040012  49.3094997  61.4589988  59.5380012  49.2754997  60.0879988
  59.2980174  50.1959756  59.5737363  59.1207962  48.4381654  59.5486368
  60.6036484  49.1411893  60.1978794  59.3680012  48.1674997  62.2609988
  59.0392275  48.3077115  63.2793124  60.4398342  48.1070843  62.1985979
  58.9185152  47.2771554  61.8456116  57.4800012  49.1904997  61.2679988
  56.9870113  49.2420792  62.2273644  57.2629276  48.2420591  60.8000355
  57.1327201  49.9938557  60.6343980  55.8240012  49.8284997  65.6079988
  57.7910012  51.2434997  66.3769988  57.8270012  47.0414997  68.1429988
  56.7230012  46.3884997  68.5289988  56.1160012  45.6134997  67.8559988
  56.4420012  46.7734997  70.0619988  55.6630348  46.1168619  70.4356179
  57.3223326  46.5633804  70.6643056  56.0430012  48.2544997  70.1629988
  56.7899726  48.8495450  69.6491742  55.1127285  48.4121230  69.6265469
  55.9010012  48.7714997  71.6419988  56.8933211  48.8396799  72.0805265
  55.5186128  49.7883027  71.5977753  55.0230012  47.9794997  72.5069988
  53.9897357  48.3002301  72.3878329  55.0449280  46.9232575  72.2499508
  55.4110012  48.1384997  73.9849988  56.4174074  47.7409565  74.0990464
  55.4848745  49.2080825  74.1718579  54.4660012  47.4974997  75.0809988
  53.4293919  47.6202296  74.7710316  54.6415926  46.4273949  75.1470395
  54.6580012  48.1224997  76.4959988  55.7216741  48.3248545  76.5432458
  54.1649339  49.0903646  76.4155737  54.1770012  47.4384997  77.7549988
  53.2820801  47.8277194  78.2167112  54.7550012  46.3854997  78.3399988
  54.3158166  45.9674269  79.2343936  55.9980012  45.6774997  77.8789988
  56.0168362  44.6940999  78.3456798  55.9744111  45.5051842  76.8087502
  57.2810012  46.4014997  78.2449988  57.1883950  47.4641957  78.0240773
  57.4460654  46.3281614  79.3182342  58.4710012  45.8424997  77.5239988
  58.7077215  44.8819236  77.9815619  58.1708973  45.6264605  76.5023487
  59.7440012  46.7304997  77.5119988  60.5074217  46.2584461  76.8975888
  59.5241979  47.6875959  77.0421708  60.3160012  46.9874997  79.0019988
  59.6069504  47.6380571  79.5105379  60.2859966  46.0413580  79.5354223
  61.7040012  47.6154997  79.1279988  62.4319562  47.0633307  78.5363283
  61.7017570  48.6300413  78.7336204  62.1960012  47.6604997  80.5979988
  61.4391268  48.1225327  81.2269517  62.2863060  46.6347423  80.9486835
  63.5340012  48.3704997  80.8069988  63.8573395  48.2870870  81.8402285
  63.4737240  49.4272626  80.5695969  64.3086882  47.9355660  80.1818319
  77.8150012  50.7594997  81.0089988  78.8518673  51.0012657  81.2208636
  77.7166242  49.6779352  81.0271722  77.2105457  51.1582925  81.8190666
  77.3660012  51.3444997  79.6329988  78.0336710  50.9430655  78.8725577
  77.5480967  52.4153233  79.6644943  75.9410012  51.0734997  79.2329988
  75.2603682  51.2249630  80.0706900  75.8215818  50.0345950  78.9320219
  75.5100012  51.9764997  78.0569988  75.7941755  51.5235930  77.1097023
  76.0163697  52.9397701  78.0945080  73.9750012  52.2024997  78.0579988
  73.7041733  52.9592676  77.3262013  73.6657148  52.5902117  79.0272182
  73.1840012  50.8984997  77.7509988  72.1402246  51.1712406  77.6062237
  73.2146526  50.2748901  78.6419245  73.6760012  50.0654997  76.5209988
  74.7130781  49.7617226  76.6512329  73.6465218  50.6655158  75.6125156
  72.7920012  48.8024997  76.3299988  71.7753161  49.1865518  76.2571535
  72.8510297  48.2773357  77.2815251  73.0350012  47.8304997  75.2129988
  73.9317655  47.2585910  75.4416365  73.2565108  48.3929433  74.3068158
  71.8820012  46.8734997  74.9409988  70.9659562  47.4474518  74.8195918
  71.7298804  46.2364379  75.8118837  72.1150012  46.0004997  73.7179988
  71.3718457  45.2061681  73.7007257  73.0825670  45.5074902  73.7947195
  72.0390012  46.7634997  72.3859988  73.0267734  47.1880032  72.2237592
  71.3716904  47.6051138  72.5622144  71.5790012  46.0354997  71.1519988
  71.2820423  46.7263787  70.3647544  70.7246648  45.3874017  71.3262184
  72.7530012  45.1884997  70.6229988  73.0382421  44.3858107  71.2950650
  73.6427530  45.7896919  70.4556622  72.2990012  44.5764997  69.2519988
  71.9776978  45.3584965  68.5757695  71.4773405  43.8859358  69.4005394
  72.5770012  45.7024997  68.2649988  73.6710012  46.2174997  68.2689988
  71.5120012  46.1384997  67.6269988  71.6600012  47.2204997  66.7129988
  70.8012030  47.1948892  66.0593384  72.5409582  46.9492739  66.1494890
  71.8190012  48.6664997  67.3579988  70.9216405  48.9622606  67.8758437
  72.0850012  49.6344997  66.1619988  71.6315127  50.5888244  66.3931125
  71.5782740  49.2079715  65.3053271  73.4270012  49.7904997  65.8969988
  73.9650012  50.1044997  64.3959988  74.0050012  48.5914997  63.8959988
  74.8330012  47.5814997  64.3139988  74.2490243  46.7617605  64.7117269
  75.4350842  47.9579901  65.1359160  75.8690012  47.0704997  63.2429988
  75.2223414  46.5410401  62.5547018  76.5803473  46.3715024  63.6586506
  76.6710012  48.0234997  62.3999988  77.7100012  48.8414997  63.1869988
  77.2179044  49.3028664  64.0321707  78.0987421  49.6059200  62.5307655
  78.5111811  48.1866544  63.4952282  77.3640012  47.1604997  61.3539988
  76.6266424  46.5199079  60.8950235  78.1406369  46.5884652  61.8293759
  77.7881122  47.8257214  60.6158207  75.8400012  48.9754997  61.5539988
  75.2000147  48.4029947  60.8992183  76.4998334  49.5944677  60.9648044
  75.2389055  49.6000853  62.1989885  72.8770012  50.6854997  63.5899988
  75.2770012  50.8044997  64.3489988  72.9590012  48.7744997  68.2409988
  73.0350012  49.9374997  68.9289988  72.1990012  50.8404997  68.9769988
  74.3370012  49.8634997  69.7189988  74.5875986  48.8110304  69.8030369
  75.1275080  50.3106634  69.1214617  74.2330012  50.5374997  71.0869988
  73.9750531  51.5815225  70.9472125  73.4147764  50.0988970  71.6492877
  75.5730012  50.4424997  71.9249988  75.7265170  49.4394495  72.3148413
  76.4289194  50.6548670  71.2890985  75.5550012  51.4544997  73.0729988
  75.4907324  52.4706809  72.6883546  74.6978403  51.3230289  73.7288895
  76.7970012  51.3374997  73.8779988  77.6725791  51.6292630  73.3016842
  76.7603696  52.0086324  74.7339310  76.9690012  49.9774997  74.3609988
  75.9933019  49.6527650  74.7191319  77.2043946  49.3528829  73.5038163
  78.0150012  49.7294997  75.4489988  78.8994928  50.3291808  75.2683416
  77.6228192  50.0446541  76.4150303  78.3610012  48.2514997  75.5239988
  78.8378110  47.7999557  74.6670773  78.1280012  47.4484997  76.5989988
  78.4490953  46.4248155  76.4702383  77.5230012  47.7244997  77.9019988
  78.0725480  47.2202209  78.6950449  77.5038778  48.7757290  78.1670122
  76.0380012  47.1564997  77.8869988  75.6257886  47.2646598  78.8895391
  75.4471690  47.8065098  77.2444544  75.8730012  45.6794997  77.4129988
  74.8324293  45.5351179  77.1223595  76.4622956  45.5411076  76.5107329
  76.2690012  44.5934997  78.4649988  75.9292790  43.6540671  78.0346496
  77.3569736  44.5596555  78.4490163  75.7790012  44.7104997  79.9449988
  76.3114121  43.9908165  80.5640179  76.0250247  45.6887258  80.3489430
  74.2930012  44.4454997  80.0949988  73.7242585  45.2952898  79.7218078
  74.0058474  43.5958676  79.4781502  73.8580012  44.1644997  81.5469988
  72.9511231  43.5662839  81.5873112  74.6234381  43.5756565  82.0476812
  73.6490012  45.4494997  82.3209988  73.4292528  45.2400868  83.3635562
  72.8234598  46.0314796  81.9253704  74.5376931  46.0734808  82.2891370
  38.1200012  70.7724997  85.2179988  37.3847534  70.5327361  85.9798079
  39.1040496  70.5765394  85.6339773  37.9714325  70.0871325  84.3880522
  37.9920012  72.2274997  84.7599988  38.1250487  72.8986340  85.6068046
  36.9890657  72.4075916  84.3825051  39.0460012  72.5694997  83.6649988
  38.9686175  71.8683777  82.8341144  40.0474353  72.4446559  84.0720795
  38.9090012  74.0404997  83.1179988  39.7663641  74.3023858  82.5018864
  38.8861590  74.7681718  83.9277379  37.6580012  74.1784997  82.2869988
  37.6108742  75.1976012  81.9117866  36.8084361  74.0602122  82.9575301
  37.5060012  73.1734997  81.0669988  36.5660956  73.3383364  80.5433354
  37.4844359  72.1424044  81.4133432  38.6480012  73.3494997  80.1049988
  38.6084877  72.5581342  79.3587084  39.5869202  73.2160132  80.6405754
  38.6570012  74.6684997  79.4209988  38.6793213  75.3883110  80.2382040
  37.6657628  74.7427755  78.9775875  39.7210012  75.0624997  78.3629988
  40.6675016  75.2018427  78.8809384  39.4468493  76.0382855  77.9639251
  39.9180012  74.0714997  77.1949988  38.9511662  73.7044998  76.8575964
  40.4734638  73.1985677  77.5368760  40.6700012  74.7214997  76.0259988
  41.6630047  75.0211690  76.3541501  40.1662716  75.6348761  75.7143450
  40.8210012  73.7924997  74.8209988  41.2562123  72.8570112  75.1640317
  41.5494396  74.2368740  74.1452926  39.4860012  73.5094997  74.0119988
  39.0830664  74.4659168  73.6831189  38.7434190  73.0794585  74.6782647
  39.6350012  72.5974997  72.7629988  38.6641569  72.3253815  72.3620522
  40.1311239  71.6714737  73.0412616  40.4500012  73.2744997  71.6789988
  41.4120129  73.5851446  72.0663927  39.9281543  74.1467713  71.3036496
  40.2800012  72.5314997  70.3219988  39.3420012  71.7774997  70.1049988
  41.1290012  72.9454997  69.3869988  40.7440012  72.3804997  68.1049988
  39.7234949  72.7071176  67.9732806  40.7755716  71.3009309  68.0780447
  41.6650012  73.0004997  66.9849988  41.5185218  74.0629571  66.8819361
  41.2750012  72.2824997  65.6619988  40.2341138  72.4837240  65.4478418
  41.3955393  71.2194835  65.8294863  42.1120012  72.7184997  64.5629988
  41.6850012  73.6514997  63.3599988  40.8430012  74.7534997  64.1779988
  40.6170012  76.0114997  63.4369988  40.8254632  75.8719910  62.3842548
  41.3270878  76.7507548  63.7962700  39.2270012  76.6494997  63.6469988
  39.0277571  77.4391858  62.9335938  39.1657515  77.0593446  64.6448227
  37.9980012  75.6214997  63.5159988  38.1880012  74.8894997  62.2809988
  38.3510661  75.5985487  61.4810029  37.2890243  74.3233586  62.0875436
  39.0229060  74.2150319  62.3982343  38.0150012  74.7304997  64.6619988
  38.0936418  75.3264341  65.5583200  38.8438311  74.0519963  64.5668976
  37.0827282  74.1844576  64.6605125  36.7030012  76.3604997  63.4119988
  36.5784400  76.9842175  64.2846628  35.8923674  75.6495514  63.3565418
  36.7077987  76.9730860  62.5219707  42.8200012  74.3054997  62.6219988
  40.7180012  72.8504997  62.5029988  43.0420012  72.8424997  67.4099988
  43.9500012  73.6644997  66.9299988  43.7920012  74.5214997  66.0829988
  45.2630012  73.3494997  67.7219988  45.0683743  72.4839217  68.3468572
  46.0412753  73.0453149  67.0265363  45.7200012  74.6094997  68.5769988
  46.6495495  74.4003364  69.0949290  45.9172026  75.4664538  67.9407800
  44.5960012  74.9774997  69.6489988  43.6481232  75.1763611  69.1554042
  44.4251738  74.1243334  70.3009116  44.9880012  76.1384997  70.4829988
  45.9578981  75.9101450  70.9210170  45.1411648  77.0002357  69.8378989
  44.0380012  76.5264997  71.6019988  44.3703158  77.4744044  72.0202626
  43.0645013  76.7175497  71.1545852  43.8610012  75.4744997  72.7649988
  43.0616435  75.8421257  73.4065433  43.5017798  74.5466013  72.3287847
  45.1330012  75.1594997  73.6449988  45.8886782  74.7117120  73.0101614
  45.5451098  76.1063958  73.9912649  44.8490012  74.2994997  74.8329988
  44.9426849  73.2336755  74.6887898  44.4950012  74.7324997  76.0879988
  44.3162612  73.9360383  76.7960322  44.3210012  76.0624997  76.6379988
  44.8373296  76.7431712  75.9632305  43.2716661  76.3325172  76.5971637
  44.8510012  76.2974997  78.0519988  45.9021675  76.0130708  78.0812326
  44.8207742  77.3674037  78.2491046  44.1060012  75.5744997  79.1369988
  43.0692329  75.5016013  78.8085107  44.4881203  74.5577653  79.1642062
  44.1480012  76.1774997  80.5569988  45.0901244  75.9319253  81.0420163
  44.1010496  77.2643362  80.5161699  43.0030012  75.6644997  81.3749988
  42.0513589  75.8909442  80.8978302  43.0326855  74.5833890  81.4796107
  43.0060012  76.3334997  82.7739988  43.8408116  75.9636706  83.3666208
  43.1584823  77.4066765  82.6746254  41.7440012  76.1034997  83.5369988
  40.9252807  76.4086845  82.8901031  41.6640185  75.0222545  83.6254564
  41.5590012  76.7184997  84.9079988  40.6299276  76.3828589  85.3588165
  41.5267958  77.8019621  84.8654207  42.3700582  76.4384590  85.5742605
  53.6810012  91.3434997  80.9709988  53.1997619  90.3924982  81.1769938
  53.4171270  92.0285937  81.7715027  54.7552831  91.1862729  81.0135424
  53.2560012  91.9004997  79.5969988  52.1729142  92.0101784  79.5871908
  53.4944435  91.1582688  78.8399963  53.9140012  93.2694997  79.2329988
  54.9776326  93.0677076  79.1069152  53.8275636  93.8801359  80.1295605
  53.4080012  94.0884997  78.0349988  53.2321692  93.4141069  77.1998176
  54.1866504  94.7760953  77.7084661  52.0760012  94.9004997  78.3199988
  52.1484443  95.4878648  79.2317702  51.2313785  94.2272117  78.4566032
  51.7880012  95.8394997  77.1469988  51.5480390  95.2654918  76.2538302
  52.6728881  96.4240003  76.9042827  50.6200012  96.7944997  77.4679988
  50.8884939  97.3783105  78.3465468  49.7573315  96.1941381  77.7536509
  50.2060012  97.7814997  76.2869988  50.9336828  98.5912777  76.2525028
  49.2534058  98.2397879  76.5462631  50.0970012  97.1414997  74.9009988
  49.3526004  96.3506418  74.9638669  51.0459901  96.6491894  74.6921265
  49.7450012  98.0814997  73.7339988  50.6814868  98.5566844  73.4502856
  49.1216055  98.8664852  74.1613214  49.0450012  97.5014997  72.4819988
  48.2608073  98.2117437  72.2287509  48.5379462  96.5954629  72.8092918
  49.8730012  97.1914997  71.1789988  50.2233781  98.1074971  70.7095270
  49.2506496  96.6900855  70.4401264  51.1250012  96.2344997  71.5339988
  50.7330090  95.3222964  71.9806299  51.7359811  96.7086196  72.2970111
  52.0100012  95.8404997  70.3649988  52.4724737  96.7199982  69.9291704
  51.3957404  95.3910872  69.5892384  53.1260012  94.8194997  70.7709988
  52.6889554  93.9467284  71.2392960  53.8204763  95.2760954  71.4661920
  52.9630012  93.3884997  70.3549988  52.8120012  92.4694997  71.1139988
  53.1740012  93.3594997  68.9809988  52.6960012  92.2244997  68.3649988
  52.4151224  91.5965011  69.1969765  53.4729927  91.7327470  67.7978519
  51.4620012  92.5204997  67.4749988  51.1640508  91.6094154  66.9830181
  51.8220012  93.5584997  66.4519988  51.8352526  93.1016675  65.4717285
  52.8197210  93.9090618  66.6849071  50.8770012  94.6614997  66.4859988
  51.1350012  95.8894997  65.4569988  51.2470012  95.1114997  64.0909988
  50.4380012  95.3064997  62.9219988  50.7464729  96.1595593  62.3318095
  49.4047460  95.4853217  63.2052009  50.4070012  94.0284997  62.0699988
  49.8595081  94.1951124  61.1509011  49.9122944  93.2500052  62.6326608
  51.7100012  93.4694997  61.6649988  52.5200012  94.5904997  61.0849988
  51.9262143  95.0926508  60.3336031  53.4001375  94.1636346  60.6275644
  52.8130257  95.2592052  61.8804147  52.5410012  92.8464997  62.7029988
  51.9332501  92.1445031  63.2530474  52.9342638  93.6139701  63.3454190
  53.3465643  92.3277591  62.2037261  51.4200012  92.4144997  60.5649988
  50.7565670  91.6604155  60.9616020  52.3484779  91.9555824  60.2600793
  50.9592443  92.8969518  59.7150705  49.9310012  96.7624997  65.4219988
  52.4750012  96.5034997  65.7159988  50.3600012  92.9224997  68.3199988
  49.1270012  92.6924997  67.7779988  48.8840012  92.4254997  66.6099988
  48.1360012  93.0484997  68.8749988  48.2385183  94.1086219  69.0828064
  47.1209945  92.9138464  68.5095718  48.3910012  92.1964997  70.1149988
  48.1770367  91.1500783  69.9271620  49.4271945  92.2381429  70.4353145
  47.4890012  92.6954997  71.2249988  47.4433572  93.7815439  71.2338560
  46.4714198  92.3506781  71.0585919  47.9570012  92.1854997  72.5689988
  48.4173979  91.2021669  72.4928574  48.6902059  92.8278959  73.0506002
  46.7340012  92.0734997  73.4699988  45.8459870  91.9213731  72.8599255
  46.8352855  91.1814921  74.0851776  46.5200012  93.2724997  74.3829988
  46.9186618  94.1684851  73.9097327  45.4602472  93.4538668  74.5390296
  47.2250012  93.0694997  75.8179988  46.7960589  93.7645978  76.5303380
  46.9905580  92.0709823  76.1845305  48.7410012  93.2194997  75.7479988
  49.1413082  94.2098913  75.5916893  49.6250012  92.2154997  75.8789988
  50.6819114  92.4399919  75.8665905  49.3060012  90.7354997  76.0549988
  48.2199103  90.6604839  76.0555634  49.6470730  90.1959346  75.1785169
  49.8500012  90.0244997  77.3519988  49.8303035  88.9415593  77.2355637
  50.8918416  90.2929128  77.5162605  49.0440012  90.4134997  78.5579988
  48.8117442  91.4751534  78.4740041  48.0928151  89.8901942  78.5144041
  49.7230012  90.1434997  79.9369988  49.8536992  89.0705875  80.0591567
  50.7229768  90.5737713  79.9371033  48.9330012  90.7084997  81.1119988
  48.7376554  91.7692912  80.9665636  47.9582011  90.2364115  81.1987315
  49.7150012  90.5474997  82.4269988  49.5868604  89.5302947  82.7927268
  50.7774363  90.6620968  82.2197959  49.3310012  91.5194997  83.5469988
  50.1405517  91.6550486  84.2598588  49.1400521  92.5039126  83.1253560
  48.0660012  91.0454997  84.2909988  47.7505876  91.7826205  85.0232803
  48.2319170  90.1127631  84.8194071  47.2415941  90.8914044  83.6005289
  49.7230012  50.9704997  81.5879988  50.5869711  50.4717916  82.0161053
  49.0435657  50.2041094  81.2263314  49.2194687  51.5049449  82.3888953
  50.1150012  51.8834997  80.5099988  50.6383731  51.3255423  79.7354225
  50.8261808  52.6079120  80.8976382  48.9580012  52.5784997  79.9099988
  48.5102615  53.2369710  80.6542256  48.1984213  51.8380775  79.6671316
  49.2900012  53.4304997  78.5739988  49.9908875  52.8942157  77.9380680
  49.7644430  54.3816680  78.8104090  48.0020012  53.6884997  77.7769988
  47.3110817  54.2889018  78.3632757  47.4988959  52.7418225  77.5871238
  48.2790012  54.4284997  76.3829988  47.4360584  54.2995343  75.7065134
  49.1406781  53.9928047  75.8817407  48.5350012  55.9774997  76.6119988
  49.2005751  56.0805182  77.4670827  47.5889848  56.4297170  76.9065875
  49.1180012  56.7524997  75.4189988  50.1918205  56.5829400  75.3510823
  48.9881304  57.8229747  75.5669876  48.4490012  56.3364997  74.0829988
  47.3965242  56.6117911  74.0899196  48.4787195  55.2534501  73.9703158
  49.1370012  56.9894997  72.8779988  50.2107103  56.8984316  73.0268421
  48.9143105  58.0558233  72.9061356  48.7440012  56.4234997  71.4889988
  48.8638121  57.2097155  70.7466707  47.6858978  56.1674835  71.4899521
  49.5840012  55.1674997  71.0239988  49.2635373  54.2916339  71.5829095
  50.6295272  55.3265243  71.2814021  49.4860012  54.8974997  69.5179988
  49.6260154  55.8433235  68.9973596  48.4814345  54.5624676  69.2753605
  50.5360012  53.8554997  68.9329988  50.5920740  53.9402856  67.8527154
  50.1981714  52.8460689  69.1521167  51.8910012  54.0344997  69.5069988
  51.8539763  53.9868993  70.5879263  52.3008406  54.9941073  69.2150162
  52.8690012  53.0114997  68.8329988  52.9590012  51.8304997  69.1439988
  53.4490012  53.5334997  67.8339988  54.2430012  52.6784997  66.9849988
  54.5285929  51.8882528  67.6627961  55.1341775  53.1369467  66.5814854
  53.3350012  52.1094997  65.8379988  54.0043525  51.5811620  65.1794230
  52.5180012  53.2374997  65.0049988  52.5907221  52.9731856  63.9587432
  53.0597453  54.1608162  65.1680474  51.1410012  53.3894997  65.3909988
  50.2230012  54.3664997  64.5889988  49.1940012  53.4584997  63.8189988
  49.5390012  52.3684997  62.9529988  49.7904034  51.4726243  63.5056227
  50.4189948  52.6291779  62.3720899  48.4380012  52.0864997  61.9139988
  48.8756770  51.4170559  61.1842496  48.0730253  52.9660246  61.4035034
  47.1950012  51.3644997  62.4499988  47.4530012  50.3164997  63.5059988
  48.2181901  49.6432941  63.1445931  46.5347093  49.7711913  63.6656196
  47.7472715  50.8067827  64.4218287  46.3200012  52.4234997  63.1229988
  46.1988875  53.2515574  62.4415548  46.7876399  52.7341390  64.0401613
  45.3616604  51.9684136  63.3273921  46.3880012  50.7114997  61.3469988
  46.0861056  51.4641799  60.6339676  45.5126121  50.2469473  61.7754088
  46.9905310  49.9617780  60.8547485  49.4860012  55.2834997  65.5069988
  51.0840012  55.0194997  63.5819988  52.4890012  51.1044997  66.4539988
  51.8710012  50.2344997  65.7849988  51.8770012  50.1084997  64.5819988
  51.0140012  49.4574997  66.7829988  50.9617734  48.4147605  66.4871604
  51.4524777  49.4628163  67.7777937  49.6710012  50.1044997  66.7849988
  49.8427103  51.1654142  66.9300409  49.2674407  50.0000559  65.7828693
  48.6230012  49.6074997  67.8339988  48.2214444  48.6235699  67.6053321
  49.0505733  49.5361800  68.8310748  47.4350012  50.6964997  67.8609988
  47.7833963  51.6189882  68.3218042  47.1067789  50.9623426  66.8591007
  46.2420012  50.1904997  68.6489988  45.3628112  50.8097351  68.4832477
  45.9701347  49.1865768  68.3286731  46.5720012  50.1554997  70.1809988
  45.6579817  49.8947899  70.7123177  47.2772950  49.3513791  70.3714423
  47.1460012  51.4644997  70.7649988  48.2117186  51.4823065  70.5687613
  46.7166537  52.2924162  70.2023613  46.8660012  51.6724997  72.1959988
  46.1173786  52.4072667  72.4514116  47.4880012  50.9774997  73.2739988
  47.1461128  51.2358197  74.2659630  48.5570012  49.9234997  73.2499988
  48.4124246  49.2914222  74.1245253  48.4363188  49.2790536  72.3863981
  50.0290012  50.4824997  73.2839988  50.7134384  49.6392869  73.1988930
  50.1725344  51.0813209  72.3866302  50.3990012  51.3184997  74.5109988
  49.7405066  52.1859065  74.5567941  50.2043490  50.7416342  75.4109103
  51.8400012  51.7854997  74.5129988  52.4913871  50.9168938  74.4469294
  52.0301228  52.3770631  73.6191355  52.1980012  52.6164997  75.7559988
  53.1274463  53.1585605  75.5920117  51.4433705  53.3735696  75.9509415
  52.3810012  51.7334997  76.9849988  51.4253009  51.2924350  77.2624549
  53.0370712  50.9009612  76.7374390  52.9630012  52.4674997  78.2219988
  53.7629747  53.1060938  77.8557271  52.1700203  53.1402156  78.5412911
  53.4550012  51.6814997  79.4319988  53.7456043  52.3521115  80.2350545
  54.3167948  51.0673492  79.1935205  52.6778395  51.0254646  79.8138085
 101.6420012  51.4884997  80.3139988 102.1842069  51.4518604  81.2537325
 102.0504201  50.7186909  79.6656329 100.6068097  51.2301234  80.5195038
 101.7460012  52.8724997  79.6649988 102.7977301  53.1050776  79.5069584
 101.3729544  53.6102029  80.3702959 100.9740012  52.9954997  78.2899988
  99.9044984  52.8263460  78.4144168 101.3181824  52.2412033  77.5851957
 101.2000012  54.3904997  77.6639988 102.2662376  54.5347794  77.5040827
 100.8937933  55.1619325  78.3688634 100.4630012  54.6044997  76.3159988
 100.4477411  55.6654563  76.0799667  99.4239126  54.3042290  76.4404876
 101.0730012  53.8394997  75.1309988 101.1247121  52.7837628  75.3909271
 102.1006862  54.1704964  74.9972769 100.3350012  53.9944997  73.8439988
  99.2928962  53.7130097  73.9838223 100.7399502  53.3046347  73.1048556
 100.4070012  55.4964997  73.2649988 101.4272112  55.8740827  73.3202574
  99.8017195  56.1662778  73.8730409  99.9270012  55.5574997  71.8229988
  99.6892558  56.5887117  71.5707688  98.9950172  55.0006587  71.7340552
 100.9780012  54.9894997  70.7779988 101.5310368  54.1365976  71.1653083
 101.7229349  55.7295159  70.4866593 100.1500012  54.5634997  69.5109988
  99.3974746  55.3118019  69.2716484  99.6090133  53.6338686  69.6790652
 101.0850012  54.3974997  68.2789988 101.4511023  55.3783703  67.9856017
 100.4880865  54.0338137  67.4446754 102.2630012  53.4364997  68.4949988
 101.8785996  52.4205792  68.5684353 102.7525642  53.6457327  69.4420064
 103.2770012  53.4654997  67.4079988 103.4940472  54.5041395  67.1811433
 102.8043572  53.0429326  66.5253115 104.5990012  52.7154997  67.6629988
 104.4046319  51.6830600  67.9243987 105.1474120  53.1819192  68.4727934
 104.5730012  51.3354997  67.0279988 105.1850012  50.3604997  67.5129988
 104.0290012  51.4094997  65.7939988 103.9130012  50.1764997  65.0939988
 103.9596260  49.4172755  65.8600711 104.7068806  50.0079020  64.3808912
 102.5430012  50.1534997  64.4059988 102.3657489  49.2492428  63.8476126
 102.4970012  51.4184997  63.4229988 101.7103318  51.3042676  62.6895799
 103.4453635  51.4935043  62.9057288 102.2740012  52.5694997  64.2119988
 101.2160012  53.6804997  63.8359988  99.9050012  52.7724997  63.8719988
  98.8230012  53.1174997  62.9369988  99.0884221  53.8657063  62.2015210
  97.9521833  53.4979894  63.4630224  98.3360012  51.7814997  62.2389988
  99.1527543  51.3166404  61.7013472  97.5292942  51.9739236  61.5464861
  97.8160012  50.7194997  63.2029988  96.9450012  51.4534997  64.2749988
  97.5179728  52.2756415  64.6813488  96.7162830  50.7470556  65.0590426
  96.0295333  51.7901487  63.8120700  96.8600012  49.7824997  62.4479988
  97.3457693  49.4550772  61.5416115  95.9465725  50.3090702  62.2364770
  96.6635031  48.9359279  63.0898724  98.9640012  50.0674997  63.8359988
  99.5919796  49.6332839  63.0723354  98.6105083  49.2915870  64.4983072
  99.5263228  50.7966011  64.4013663 101.0830012  54.7184997  64.8959988
 101.5430012  54.0504997  62.4269988 101.5670012  50.1484997  65.4639988
 101.3920012  48.9444997  66.1409988 101.8310012  47.8984997  65.8029988
 100.4310012  49.2004997  67.3699988 100.9523353  49.9381985  67.9713009
  99.5549250  49.7064970  66.9720488 100.0300012  47.9644997  68.1949988
  99.9955453  47.1333235  67.4992833 100.8537829  47.7565693  68.8704110
  98.7000012  48.0174997  68.9879988  97.8719447  48.1745622  68.3014802
  98.5327823  47.0464470  69.4475197  98.6820012  49.1204997  70.1199988
  98.6217360  50.1182704  69.6892695  97.8276387  49.0247198  70.7856511
  99.9910012  49.0284997  70.9639988 100.1584740  47.9939987  71.2566790
 100.8308594  49.3033045  70.3287811 100.0080012  49.9064997  72.1939988
 101.0364233  50.0633345  72.5156378  99.6036217  50.8896044  71.9697215
  99.2280012  49.3154997  73.3129988  98.2699584  48.9994833  72.9169336
  99.7453601  48.4089377  73.6241759  99.0470012  50.2294997  74.5469988
  98.2279862  50.9265711  74.4528719  99.7620012  50.2604997  75.7159988
  99.5268008  50.9378416  76.5243914 100.9320012  49.3604997  75.9919988
 100.9762753  48.5985243  75.2156906 101.8734922  49.8963238  75.9454360
 100.8110012  48.6434997  77.3739988 100.7875552  49.3621330  78.1923639
  99.8798425  48.0834771  77.4354579 102.0210012  47.6584997  77.5749988
 101.9210852  46.8108780  76.8970155 102.9532254  48.1502244  77.3110504
 102.1060012  47.1404997  79.0279988 101.5556842  47.8760654  79.6104413
 101.5057895  46.2323715  79.0395799 103.4670012  46.8574997  79.6899988
 103.9965215  46.1574152  79.0465083 104.0434106  47.7782215  79.6645367
 103.4620012  46.3084997  81.0419988 102.7883996  45.4579837  81.1301263
 104.4465596  45.9448573  81.3305174 103.0120012  47.4164997  82.0799988
 103.0813327  48.4165135  81.6591896 101.9637075  47.2739898  82.3331476
 103.8430012  47.3454997  83.3659988 103.4706866  48.0487873  84.1048069
 104.8864391  47.5828833  83.1881584 103.8006082  46.3522587  83.8039671
  43.4120012  66.2254997  81.2939988  43.1539180  66.5287081  82.3038932
  44.4633377  66.4501921  81.1390960  43.2936832  65.1471628  81.2323338
  42.5380012  66.9334997  80.2619988  42.6634591  68.0074532  80.3888339
  41.4997009  66.7174678  80.4988042  42.8340012  66.5614997  78.8109988
  42.5117031  65.5411697  78.6036830  43.9080645  66.5792261  78.6370886
  42.1350012  67.5574997  77.7709988  42.6632447  67.5285497  76.8205406
  42.2000810  68.5866229  78.1208216  40.6410012  67.1904997  77.5219988
  40.1091885  67.2753293  78.4662192  40.6072927  66.1378951  77.2458603
  39.9080012  68.0104997  76.4669988  40.2081472  69.0566448  76.4845974
  38.8309081  68.0004964  76.6197977  40.2360012  67.4014997  75.0609988
  39.7547950  66.4268378  75.0040355  41.3082847  67.2139374  75.0255245
  39.8320012  68.2314997  73.8539988  40.5554938  68.0362463  73.0635018
  39.9488280  69.2802842  74.1206191  38.3890012  67.9984997  73.3009988
  37.6882172  67.9680084  74.1325715  38.3409999  67.0186547  72.8275257
  37.9450012  69.0564997  72.3079988  37.6339920  69.9131079  72.9019639
  37.0433564  68.6711469  71.8326368  38.9010012  69.4854997  71.2619988
  39.7268542  70.0107285  71.7370171  38.4204630  70.2088584  70.6055209
  39.4880012  68.3204997  70.4029988  38.8235971  68.0929713  69.5729283
  39.5462384  67.4142102  71.0029304  40.9350012  68.6634997  69.8639988
  41.5260049  69.1129641  70.6602075  40.8941359  69.3974387  69.0640378
  41.6950012  67.3984997  69.3559988  41.4588605  67.2052612  68.3147296
  41.3645465  66.5301566  69.9198002  43.1950012  67.5304997  69.5099988
  43.4520357  67.7569820  70.5369749  43.5713579  68.3232425  68.8744018
  43.8140012  66.2734997  68.9439988  43.8990012  65.2884997  69.6749988
  44.2120012  66.3944997  67.6579988  44.9670012  65.3304997  67.0839988
  45.2888089  64.6642649  67.8701495  45.8362019  65.7571094  66.6047429
  44.1140012  64.5914997  66.0919988  44.6982025  63.8556278  65.5646513
  43.4880012  65.6184997  65.0639988  43.2505538  65.0845184  64.1538978
  44.2606575  66.3457775  64.8480030  42.3520012  66.2514997  65.5689988
  41.5110012  67.1754997  64.6219988  40.5240012  66.2384997  64.0419988
  39.3330012  65.6394997  64.5389988  39.1016506  65.9473447  65.5503827
  39.4422675  64.5590975  64.5632707  38.1000012  65.9144997  63.5589988
  37.8998383  66.9781962  63.5860812  37.2188008  65.3866637  63.8940392
  38.2610012  65.5684997  62.1169988  39.1550012  66.5674997  61.4269988
  38.7916957  67.5628392  61.6429670  39.1020781  66.3836939  60.3642125
  40.1690709  66.4254441  61.7693432  38.8610012  64.1984997  62.0329988
  38.2914110  63.5354876  62.6660043  39.8906001  64.2467602  62.3395391
  38.7920321  63.8781947  61.0034625  36.9500012  65.5304997  61.3879988
  36.3017096  64.8070692  61.8596432  37.1233228  65.2459305  60.3610470
  36.4913709  66.5083053  61.4194551  40.7380012  68.1854997  65.3949988
  42.4180012  67.6394997  63.4899988  43.0360012  63.9434997  66.7769988
  43.0360012  62.6524997  66.5929988  43.9850012  61.9704997  66.1469988
  41.6330012  62.1144997  67.0039988  41.3714274  62.7089359  67.8733535
  40.9543870  62.4276138  66.2144740  41.5010012  60.5594997  67.2869988
  40.4941038  60.2377472  67.0447304  42.1600968  60.0068594  66.6250209
  41.8160012  60.1864997  68.7939988  41.8763822  59.1027507  68.8531290
  42.8171723  60.5575245  68.9990886  40.8650012  60.7204997  69.8749988
  40.9939955  61.7972266  69.9684100  39.8266246  60.5620413  69.5941659
  41.1120012  60.0764997  71.2659988  41.1935656  58.9940582  71.1913751
  42.0560312  60.4234227  71.6817303  39.9540012  60.4454997  72.2689988
  39.0672748  60.6108562  71.6590196  39.7533062  59.5619675  72.8685073
  40.1530012  61.6414997  73.2089988  39.3235878  61.5888097  73.9046116
  41.0479070  61.3968422  73.7796407  40.3070012  63.0554997  72.6389988
  39.4186043  63.5929995  72.3433657  41.4830012  63.6884997  72.4909988
  41.5169634  64.6730881  72.0471043  42.8450012  63.1464997  72.9049988
  42.6805176  62.1103441  73.1957698  43.4917605  63.1186570  72.0351665
  43.5650012  63.8554997  74.0499988  44.6202135  63.5865996  74.0195902
  43.5197709  64.9272263  73.8661094  43.0020012  63.5594997  75.4439988
  43.5306413  64.2399502  76.1115568  41.9707301  63.9004833  75.4172756
  43.0580012  62.0844997  76.0459988  42.3342333  61.4197201  75.5797658
  44.0307149  61.6125894  75.9186662  42.7560012  62.2204997  77.5369988
  42.8981761  61.2376404  77.9823794  43.5228309  62.8565412  77.9706443
  41.3630012  62.7254997  77.9419988  41.1766423  63.6920077  77.4772241
  40.6054635  62.0502405  77.5483037  41.1570012  62.8604997  79.4219988
  41.2295412  61.8847824  79.8959488  41.9836809  63.4449602  79.8198927
  39.8060012  63.5464997  79.8409988  39.7639638  63.6900801  80.9164924
  38.9442772  62.9511441  79.5586436  39.7013429  64.5211785  79.3728227
  46.2930012  86.0334997  80.2989988  46.8066389  85.2528816  80.8514847
  45.3766086  85.6085986  79.8996572  46.0145115  86.8101540  81.0060090
  47.1530012  86.5824997  79.2099988  47.4372689  85.7865485  78.5238089
  48.0778504  86.9663954  79.6320081  46.4310012  87.6874997  78.4289988
  45.9085889  88.3494631  79.1195195  45.6626664  87.2390678  77.8023078
  47.3620012  88.5194997  77.5369988  47.6581183  88.0027888  76.6267381
  48.2863575  88.8292159  78.0221247  46.5550012  89.7524997  77.1559988
  46.3768469  90.3671893  78.0346288  45.5753135  89.4419825  76.7966156
  47.2300012  90.5944997  76.0979988  47.3460894  89.9854328  75.2033602
  48.2361503  90.8271785  76.4401996  46.5060012  91.8964997  75.7339988
  47.2360443  92.6921982  75.5973572  45.8723520  92.2043202  76.5646403
  45.6710012  91.7724997  74.4939988  44.9013773  91.0259172  74.6856878
  46.3021582  91.3632598  73.7073301  45.0130012  93.0574997  73.9939988
  45.8036229  93.7904350  73.8481766  44.3907378  93.4390732  74.8025573
  44.1800012  92.9554997  72.7249988  44.8370525  93.3168751  71.9369694
  43.3996851  93.7072982  72.8404752  43.5520012  91.6494997  72.3139988
  42.9111328  91.3328834  73.1341103  44.3463650  90.9080757  72.2476319
  42.7230012  91.6254997  71.0119988  42.0902657  92.5094735  71.0333300
  42.0540452  90.7708430  71.0940351  43.4940012  91.5364997  69.6209988
  43.8219334  90.5201570  69.4094331  44.3844543  92.1576990  69.5825466
  42.5530012  91.9584997  68.5239988  42.3847815  93.0304159  68.5174612
  41.5806550  91.4882975  68.6446014  43.1290012  91.5374997  67.1909988
  43.3363839  90.4749499  67.1863774  44.0500320  92.0724297  66.9919485
  44.2700012  92.4804997  66.7489988  44.5500012  93.4414997  67.4659988
  44.8200012  92.1264997  65.5529988  45.9650012  92.7754997  65.0149988
  46.0220129  93.6943468  65.5788530  45.9325742  93.0094921  63.9607749
  47.1920012  91.8554997  65.3489988  48.0840229  92.4472219  65.2262957
  47.2610012  90.5954997  64.4309988  48.2840533  90.2484413  64.3788852
  46.9467744  90.8992005  63.4402352  46.4120012  89.5684997  64.9269988
  46.0590012  88.3184997  63.9469988  44.5910012  88.6414997  63.4789988
  44.3180012  89.5094997  62.4049988  43.8693237  89.0170856  61.5521178
  45.2305896  89.9765666  62.0460728  43.4300012  90.6804997  62.9029988
  43.4095182  91.5106952  62.2083012  43.8421938  91.0228587  63.8412229
  42.0180012  90.3514997  63.1769988  41.2100012  91.6814997  63.3629988
  41.7231745  92.2987601  64.0875514  40.2283057  91.4259692  63.7332394
  41.1197691  92.1735063  62.4061787  41.4280012  89.5604997  62.0329988
  42.0929983  88.7421389  61.8032633  41.2979450  90.2110102  61.1866587
  40.4719993  89.1799992  62.3625087  41.8780012  89.6304997  64.4619988
  42.4687150  88.7271423  64.4290657  40.8395304  89.3784865  64.6160046
  42.2199952  90.2622009  65.2691100  46.8680012  88.2914997  62.6929988
  46.0960012  87.1044997  64.7899988  47.0960012  91.5814997  66.7589988
  48.0750012  90.9004997  67.2649988  49.1530012  90.6684997  66.7069988
  47.6610012  90.3414997  68.5859988  48.4977067  89.7889976  69.0009908
  47.4577749  91.1457184  69.2887351  46.4330012  89.4574997  68.3929988
  45.5690530  90.0461979  68.1047471  46.5782391  88.7299206  67.6008071
  46.1240012  88.7184997  69.7469988  46.9779922  88.1695559  70.1356041
  45.8316200  89.4165220  70.5276030  44.9170012  87.7264997  69.4779988
  44.0759568  88.2066445  68.9811977  45.1671552  86.8549294  68.8780069
  44.4550012  87.2574997  70.8649988  45.2876085  87.0668441  71.5390288
  43.8349361  88.0064377  71.3538670  43.6290012  85.9684997  70.6959988
  42.9472865  86.0999954  69.8571454  44.2850056  85.1438480  70.4315639
  42.8160012  85.5714997  71.9619988  41.8576410  86.0664627  71.8564650
  42.6237799  84.5048055  71.8544791  43.4210012  85.8244997  73.3549988
  44.4131077  85.4139199  73.4677058  42.9050012  86.4754997  74.4099988
  43.5514942  86.5409200  75.2733509  41.5710012  87.1374997  74.5929988
  40.9011921  86.8963222  73.7693421  41.0508608  86.8524103  75.5006656
  41.8100012  88.6934997  74.5939988  42.1962596  88.9935236  73.6206052
  40.8469149  89.1883604  74.7037107  42.7420012  89.1774997  75.6759988
  42.7631128  88.4301407  76.4691670  43.7506890  89.2230580  75.2747791
  42.3660012  90.5484997  76.2789988  42.5676190  91.2944919  75.5134984
  41.2880637  90.5522481  76.4310572  43.0660012  90.9424997  77.5949988
  43.0062898  90.1006917  78.2823007  44.1246522  91.0945001  77.4032209
  42.4750012  92.1784997  78.3059988  43.2830102  92.7383606  78.7735030
  42.0424281  92.8405898  77.5581009  41.3660012  91.8704997  79.4109988
  40.8751609  92.7679293  79.7792527  40.5750562  91.2498381  78.9956697
  42.0030012  91.1354997  80.5669988  41.2534436  90.8359864  81.2933074
  42.7313639  91.7494492  81.0859349  42.5110203  90.2376563  80.2265066
  99.4990012  89.8264997  81.4589988  99.5329166  90.9062866  81.3525147
 100.5207732  89.4588764  81.4340001  99.0934784  89.6039995  82.4421859
  98.6330012  89.1704997  80.3309988  99.0569194  89.4524404  79.3687068
  97.6418930  89.6143708  80.3696903  98.5260012  87.5854997  80.4109988
  98.0513637  87.3042448  81.3509690  99.5318433  87.1716965  80.4459204
  97.7740012  86.9334997  79.2519988  96.7710226  87.3545391  79.2551324
  97.6584817  85.8777240  79.4922050  98.3560012  87.0714997  77.8499988
  99.3596773  86.6542547  77.8393268  98.4636653  88.1320800  77.6287686
  97.5230012  86.4004997  76.7349988  96.5663097  86.9163771  76.6764409
  97.3010930  85.3829200  77.0494273  98.1480012  86.3714997  75.3879988
  99.1058907  85.8668151  75.4998521  98.3767133  87.4042371  75.1284336
  97.3420012  85.7034997  74.2059988  97.3643639  84.6290158  74.3832990
  97.9197671  85.8740098  73.2994687  95.8960012  86.1464997  73.9729988
  95.8978349  87.2318905  74.0469203  95.3277760  85.7849190  74.8291276
  95.1990012  85.7344997  72.7049988  94.4800012  84.9657584  72.9795438
  95.9432320  85.2459207  72.0766358  94.5020012  86.8424997  71.8949988
  93.8853149  87.4069917  72.5911221  93.8133206  86.3625647  71.2018108
  95.3960012  87.8374997  71.1189988  96.0545265  87.2252131  70.5077145
  96.0280241  88.3061873  71.8710286  94.7750012  88.9004997  70.2929988
  94.5867933  89.7841014  70.9005165  93.8110173  88.5914571  69.8986617
  95.6880012  89.3144997  69.1219988  95.9274727  88.4488397  68.5132039
  96.6270435  89.6860979  69.5235037  95.0610012  90.4234997  68.2149988
  94.7830525  91.2856309  68.8078860  94.1772897  90.0464164  67.7140685
  96.2110012  91.1024997  67.4929988  96.9150012  91.9434997  68.0179988
  96.3790012  90.5084997  66.3559988  97.5810012  91.0174997  65.6519988
  97.9362461  91.7692083  66.3406185  97.3140128  91.4915170  64.7186088
  98.6830012  89.9174997  65.4299988  99.4251388  90.4083647  64.8223992
  98.1430012  88.6654997  64.6929988  98.9524371  87.9642510  64.5417880
  97.7801345  88.9903045  63.7258304  97.0930012  88.0604997  65.4389988
  96.3670012  86.8044997  64.8519988  95.6130012  87.4444997  63.6069988
  94.5860012  88.3954997  64.0119988  94.4007279  88.4339344  65.0775435
  93.6319805  88.1764430  63.5411954  95.0070012  89.8184997  63.4559988
  96.0140442  89.8661026  63.8507737  94.4349876  90.6394319  63.8637337
  95.1320012  90.0944997  61.9789988  93.7940012  90.2404997  61.3289988
  93.1852458  89.3878061  61.5967013  93.9433179  90.2593723  60.2596773
  93.3483801  91.1703412  61.6492074  95.8350012  91.4754997  61.8339988
  96.7213139  91.4752318  62.4497615  95.1507971  92.2505232  62.1299267
  96.1057618  91.5926163  60.7946387  96.0410012  89.0934997  61.3369988
  97.0098814  89.1370864  61.8118179  96.1413037  89.3271632  60.2877177
  95.6231023  88.1033424  61.4482826  97.3810012  85.8124997  64.4549988
  95.4290012  86.3134997  65.8789988  99.3140012  89.5334997  66.7039988
  99.8380012  90.4214997  67.5329988 100.0560012  91.6054997  67.2969988
  99.9490012  89.6664997  68.8069988  98.9496464  89.3772667  69.1155234
 100.4901422  88.7379234  68.6432324 100.6420012  90.5274997  69.8549988
 100.9575361  89.8587525  70.6482679 101.5526056  90.9113899  69.4061548
  99.8670012  91.6344997  70.4379988 100.5805576  92.3533354  70.8326712
  99.3677896  92.1276084  69.6075190  98.8050012  91.2884997  71.5199988
  97.9734453  90.7358490  71.0866420  99.2034468  90.6636521  72.3156171
  98.2620012  92.5694997  72.1279988  99.0185574  93.3513664  72.1135703
  97.4332307  92.9388635  71.5270903  97.7670012  92.3614997  73.5779988
  98.6231000  92.1291095  74.2094974  97.3460159  93.2870465  73.9606899
  96.7120012  91.2444997  73.7179988  97.1712768  90.2859318  73.5063539
  96.3797762  91.2032543  74.7544694  95.5740012  91.4664997  72.8819988
  95.7985117  91.2466186  71.8491380  94.2870012  91.8864997  73.1719988
  93.5880520  91.9470430  72.3501626  93.6890012  92.2874997  74.5379988
  94.5278786  92.6543900  75.1269784  93.0302390  93.1353924  74.3870309
  92.9620012  91.2184997  75.3549988  92.4741007  91.7049348  76.1988228
  92.1640028  90.8136838  74.7354975  93.8370012  90.0684997  75.8639988
  93.8501364  89.2576673  75.1356545  94.8678923  90.3929312  75.9758545
  93.3240012  89.5364997  77.1989988  93.3947256  90.3234571  77.9465555
  92.2666253  89.2920307  77.1136982  94.0890012  88.3024997  77.6679988
  94.0277722  87.5492927  76.8847234  95.1419195  88.5568274  77.7534700
  93.6040012  87.6784997  78.9489988  92.5861405  87.3196206  78.8074060
  94.2072297  86.7982352  79.1636701  93.6310012  88.6154997  80.2009988
  94.6382068  88.9908871  80.3638979  93.0221035  89.4889286  79.9781118
  93.1280012  87.9894997  81.4519988  93.0908913  88.7156625  82.2584598
  93.7614905  87.1720957  81.7795397  92.1249650  87.5952772  81.3154407
  72.1280012  99.7734997  80.6939988  72.1285417 100.6203310  81.3731934
  73.0009419  99.1676476  80.9191826  71.2474991  99.1754277  80.9122602
  72.1340012 100.2484997  79.1809988  73.0124419 100.8662637  79.0023581
  71.2717420 100.8867815  79.0080260  72.1310012  99.1084997  78.2159988
  71.2117660  98.5255644  78.2718752  72.9417851  98.4128199  78.4229530
  72.3020012  99.6414997  76.8009988  72.6822564 100.6595259  76.8487324
  71.3323909  99.7046157  76.3094926  73.2200012  98.8324997  75.9709988
  72.9236948  97.7934126  76.0896312  74.2033992  98.9239916  76.4291718
  73.3300012  99.1574997  74.4429988  74.1680637  98.6047274  74.0223909
  73.5688429 100.2117811  74.3204329  72.0900012  98.8394997  73.6689988
  71.2905739  99.4519961  74.0819566  71.8293886  97.8063985  73.8948595
  72.1390012  99.0324997  72.1139988  73.0452439  98.5612597  71.7357027
  72.2367297 100.0950964  71.8994729  70.9200012  98.4714997  71.3559988
  69.9736920  98.7734864  71.7996698  70.9075383  97.3826759  71.3262576
  71.0070012  99.0174997  69.9199988  70.4261762  98.4179947  69.2224780
  72.0296030  99.0185884  69.5435506  70.4770012 100.4564997  69.9429988
  70.9640636 101.0128543  69.1450133  70.7827371 100.9321900  70.8732526
  68.9330012 100.6034997  69.7729988  68.6098721 101.5102447  70.2785875
  68.4505458  99.7775418  70.2923256  68.4490012 100.6124997  68.2989988
  67.3799631 100.4116429  68.3444546  68.9004365  99.7497299  67.8172223
  68.6620012 101.8534997  67.4099988  69.7258890 102.0454219  67.3169750
  68.2314780 102.7101079  67.9218232  68.0510012 101.7604997  66.0299988
  66.9941089 101.5359654  66.0978527  68.5358391 100.9810199  65.4543143
  68.1370012 103.1274997  65.3229988  67.5060012 104.1304997  65.7009988
  68.9460012 103.1374997  64.3139988  69.2420012 104.4014997  63.6509988
  68.4802333 105.1321606  63.8775076  69.2559837 104.2246291  62.5853003
  70.6160012 104.8914997  64.1469988  70.8888340 105.8358294  63.7057533
  71.6900012 103.7734997  63.7469988  72.6963229 104.1685234  63.7797684
  71.4865672 103.4251945  62.7420694  71.5480012 102.7504997  64.6439988
  72.7490012 101.9304997  65.2469988  73.0170012 100.7504997  64.2969988
  72.1230012 100.1464997  63.4179988  71.7121302 100.9363739  62.8027973
  71.3087932  99.7849653  64.0394127  72.5380012  98.9534997  62.5699988
  71.7569374  98.7123408  61.8600475  72.6323727  98.1382365  63.2727199
  73.8320012  98.9684997  61.7719988  73.8310012 100.1784997  60.9019988
  72.9015306 100.2060793  60.3500406  74.6597613 100.0954139  60.2147191
  73.9589982 101.0545736  61.5199212  75.0310012  98.8784997  62.6579988
  74.8924276  98.0531770  63.3394340  75.1485006  99.8083255  63.1852442
  75.8875104  98.6967831  62.0250153  73.7880012  97.7384997  60.8439988
  73.6841291  96.8453909  61.4420366  74.7051122  97.6894086  60.2764184
  72.9493181  97.8262040  60.1684592  73.9730012 102.8234997  65.2789988
  72.3330012 101.3774997  66.5509988  70.6200012 105.0064997  65.5099988
  71.7230012 105.5574997  66.0979988  72.4480012 106.4154997  65.6369988
  71.8770012 104.9804997  67.5239988  70.9974805 105.3334078  68.0526312
  71.7558692 103.9041684  67.4304839  73.2120012 105.3384997  68.2919988
  74.0593124 104.9237881  67.7570792  73.3611114 106.4135227  68.3031598
  73.2110012 104.7674997  69.8079988  73.2143422 103.6819859  69.7505290
  74.1637876 105.0506691  70.2485417  72.0840012 105.2414997  70.7339988
  72.0499426 106.3293691  70.7432787  71.1116205 104.9100192  70.3779110
  72.2760012 104.7544997  72.1689988  72.2937978 103.6673620  72.2104226
  73.2398360 105.0878837  72.5488125  71.1630012 105.2864997  73.1069988
  71.5065436 105.1776025  74.1345303  71.0323681 106.3518296  72.9386978
  69.8180012 104.6024997  72.9529988  69.1001771 105.0489099  73.6312513
  69.4409919 104.7804819  71.9467521  69.9220012 103.0994997  73.1749988
  70.4204090 102.5905697  72.3637442  69.5120012 102.3554997  74.1939988
  69.5982728 101.2805155  74.1263510  68.9230012 102.8414997  75.4839988
  68.3183758 103.7126518  75.2375374  68.2373295 102.0954808  75.8699927
  69.9600012 103.2594997  76.6359988  70.6659069 102.4464739  76.8015017
  70.5487745 104.1062122  76.2883168  69.2450012 103.6474997  78.0359988
  68.5962585 104.4752581  77.7495447  68.5916077 102.7989774  78.2192769
  69.9920012 104.0134997  79.3399988  70.4732247 103.1104898  79.7089731
  70.7943863 104.7054095  79.0899510  69.1150012 104.6314997  80.4459988
  69.7540046 105.1790382  81.1362641  68.4474841 105.3698970  80.0103209
  68.2980012 103.5954997  81.2699988  67.7007213 104.1342196  82.0034295
  67.5892685 103.1109650  80.6008514  69.1040012 102.5044997  82.0009988
  69.5245069 101.8448555  81.2460421  69.9512049 103.0178092  82.4505232
  68.4210012 101.6834997  83.0579988  69.1275097 101.0191514  83.5464207
  67.6287575 101.0684145  82.6447661  67.9813401 102.3183303  83.8220860
  95.9290012  42.9454997  82.6699988  95.7341826  41.9370020  83.0212925
  95.6902968  43.6299822  83.4788831  96.9946137  43.0270363  82.4739535
  95.1130012  43.2644997  81.4159988  94.0509181  43.1561782  81.6291868
  95.3435027  42.5412571  80.6384364  95.3880012  44.7124997  80.9009988
  96.4397202  44.9512866  80.7435284  94.9955687  45.4937625  81.5489156
  94.6500012  44.7764997  79.5619988  93.7125102  44.2336639  79.6604366
  95.2286495  44.2445642  78.8083963  94.3330012  46.2524997  79.0409988
  95.2916601  46.7377122  78.8763327  93.8685335  46.7700285  79.8787331
  93.4980012  46.4254997  77.8399988  93.4447128  47.5028676  77.6942058
  92.5030719  46.1106097  78.1474677  93.8560012  45.7454997  76.4979988
  93.4904210  44.7204110  76.4802678  94.9367449  45.6852143  76.3772150
  93.2480012  46.5284997  75.2979988  93.6020495  47.5585735  75.3049691
  92.1648399  46.5788022  75.3924198  93.6060012  45.8834997  73.9659988
  93.3414331  44.8282853  73.9742051  94.6821778  45.9253393  73.8026887
  92.8780012  46.5894997  72.7809988  93.3159546  47.5834698  72.7216766
  91.8472643  46.7290034  73.1058822  92.8850012  45.9314997  71.4009988
  92.4409255  46.6121775  70.6778006  92.2532955  45.0449269  71.4090445
  94.2690012  45.5544997  70.9139988  94.8123293  44.9684727  71.6512816
  94.8745076  46.4383545  70.7220807  94.1270012  44.7424997  69.5749988
  95.0493113  44.8873311  69.0149810  93.3367733  45.1940080  68.9817416
  93.8750012  43.2544997  69.6819988  92.8037552  43.0910773  69.7374092
  94.2930859  42.9230193  70.6287923  94.4960012  42.3344997  68.4909988
  95.5605670  42.5064576  68.3952334  94.0196457  42.5681158  67.5462353
  93.4430012  41.4544997  67.7149988  92.4360012  40.9574997  68.2509988
  93.6010012  41.6104997  66.3629988  92.7410012  40.9744997  65.4129988
  92.2322794  40.1508616  65.8907901  93.3742839  40.5900938  64.6266291
  91.7500012  41.9504997  64.8719988  91.0312826  41.3895571  64.2978201
  92.3680012  43.1494997  63.9639988  93.0718561  42.7397885  63.2522924
  92.8963996  43.8254007  64.6247089  91.3380012  43.8224997  63.3009988
  91.5990012  44.7974997  62.1159988  92.2100012  46.0904997  62.8479988
  91.4910012  46.8114997  63.7829988  90.6352863  46.2164866  64.0743758
  91.0990303  47.6804383  63.2623247  92.2240012  47.3784997  65.0259988
  92.7744526  46.5617301  65.4755982  91.5879682  47.8237995  65.7773623
  93.2290012  48.4014997  64.6889988  94.3680012  47.8474997  63.8639988
  94.7557039  46.9671174  64.3579094  95.1379781  48.6026545  63.8094397
  94.0063088  47.6262530  62.8710509  92.6390012  49.4544997  63.8489988
  91.7262718  49.7932379  64.3147191  92.4554832  49.0580902  62.8663744
  93.3520341  50.2646224  63.7981841  93.7370012  49.0334997  65.9709988
  92.9058196  49.4657340  66.5080208  94.4511514  49.8056007  65.7270739
  94.2141145  48.2795338  66.5803700  92.5770012  44.2624997  61.1409988
  90.2660012  45.1654997  61.5949988  91.0820012  42.6564997  66.0399988
  89.7210012  42.5314997  66.0409988  89.0630012  41.7584997  65.3239988
  89.1270012  43.6474997  66.9259988  89.9085237  43.9810007  67.6009452
  88.8805690  44.5074733  66.3082419  87.8590012  43.1254997  67.7039988
  87.2302550  43.9824839  67.9192133  87.2854048  42.4932261  67.0337373
  88.1510012  42.3644997  69.0259988  87.2665248  41.8989735  69.4533640
  88.8732241  41.5652164  68.8790118  88.7330012  43.3684997  70.0019988
  89.6908235  43.7161199  69.6193207  88.0960272  44.2470330  70.0701555
  88.9460012  42.8214997  71.3709988  88.9903076  43.6285276  72.0994519
  88.0944257  42.2053342  71.6530279  90.2440012  41.9574997  71.4749988
  90.1374669  41.0774164  70.8426975  91.0956030  42.5109009  71.0892017
  90.5500012  41.5234997  72.8849988  89.6584774  41.0916620  73.3246368
  91.2909349  40.7260043  72.8480628  91.0770012  42.6174997  73.7189988
  92.0278351  43.0461747  73.4402398  90.4360012  43.1604997  74.8429988
  90.8752981  43.9747570  75.4012220  89.0890012  42.6864997  75.3879988
  88.6012345  42.0208081  74.6779569  89.1586161  42.1374032  76.3203763
  88.1770012  43.9384997  75.5899988  88.0804040  44.4569441  74.6367992
  87.1787458  43.5903636  75.8483522  88.6520012  44.9064997  76.6429988
  89.4106875  45.5201383  76.1572522  87.8127253  45.5658334  76.8464661
  89.2070012  44.3694997  77.9589988  88.4567829  43.8125612  78.5158983
  90.0417806  43.6874513  77.8072152  89.7020012  45.6254997  78.8159988
  90.4180159  46.1899697  78.2216197  88.8637760  46.2956403  78.9860429
  90.3900012  45.2624997  80.1879988  91.2664894  44.6397416  80.0182228
  90.7514688  46.1655086  80.6766194  89.4190012  44.5044997  81.1869988
  89.1195049  43.5688505  80.7214049  90.0271831  44.2266904  82.0450487
  88.1660012  45.2524997  81.6889988  87.6355067  44.6618693  82.4298094
  87.4706871  45.4647001  80.8838588  88.4347377  46.1983951  82.1507385
  85.9110012  97.4654997  81.7769988  86.5216720  96.9973117  82.5427077
  85.8786672  96.7949639  80.9231099  84.9002948  97.5506344  82.1666611
  86.4650012  98.8324997  81.3849988  87.4809284  98.7453499  81.0035545
  86.5191453  99.4871485  82.2506299  85.5570012  99.4694997  80.2859988
  85.9525454 100.4324671  79.9632488  84.5657531  99.6704171  80.6875338
  85.4100012  98.5434997  79.0609988  84.6554004  97.7957072  79.2947383
  86.3419346  97.9979012  78.9212547  85.0070012  99.2664997  77.6879988
  85.1585254 100.3363124  77.8068018  83.9373579  99.1235885  77.5437605
  85.7610012  98.7904997  76.4219988  85.1881996  99.0417559  75.5311645
  85.8532696  97.7065161  76.4285678  87.1380012  99.4074997  76.3209988
  87.8748773  98.6925983  76.6825227  87.1927103 100.2653428  76.9898352
  87.5140012  99.8474997  74.9029988  86.7205836 100.4638715  74.4822550
  87.6005088  98.9784246  74.2534535  88.8820012 100.6614997  74.8749988
  89.6581425 100.0327831  75.3061149  88.7801750 101.5175803  75.5408323
  89.3320012 101.1474997  73.4909988  90.1363526 101.8535676  73.6853843
  88.4989658 101.7330785  73.1029542  89.7630012 100.1494997  72.4489988
  90.6143911  99.6129754  72.8622999  90.1441999 100.7119653  71.5984413
  88.7270012  99.1114997  71.9519988  87.7119518  99.5008609  71.9690739
  88.7208848  98.2194525  72.5756048  89.1240012  98.6974997  70.4859988
  90.0794416  98.1793891  70.5488243  89.3052995  99.6013920  69.9112088
  88.1530012  97.8034997  69.7159988  87.2035922  97.8653417  70.2376723
  88.5235116  96.7914859  69.8561495  87.9140012  98.0424997  68.1709988
  88.8537128  98.0182910  67.6339728  87.4440015  99.0047958  68.0062095
  86.6480012  97.4124997  67.7659988  85.8730012  96.7614997  68.4359988
  86.4060012  97.7284997  66.4849988  85.1720012  97.2344997  65.9119988
  84.7253909  96.5390656  66.6065294  85.4106451  96.7143448  64.9956582
  84.2110012  98.4154997  65.6439988  83.3232732  98.0644088  65.1444307
  84.9400012  99.4914997  64.7489988  84.2188209 100.1501912  64.2844285
  85.4926739  98.9787096  63.9717059  85.8250012 100.2304997  65.5809988
  86.6370012 101.4944997  65.1199988  87.9810012 100.6974997  64.7559988
  89.1320012 101.4304997  64.2559988  90.0505227 100.8977053  64.4648942
  89.1981189 102.3772406  64.7843046  89.0370012 101.8054997  62.7649988
  89.9556011 102.3581492  62.6133359  88.2024395 102.4418719  62.5082614
  89.0480012 100.6674997  61.7049988  87.9330012  99.7314997  61.7689988
  87.8435723  99.3699734  62.7842009  88.1519054  98.9067435  61.1072146
  87.0353684 100.2325859  61.4390217  89.0190012 101.4194997  60.3779988
  89.7882390 102.1762441  60.3960241  88.0443241 101.8526966  60.2411958
  89.2226189 100.7025020  59.5958536  90.3480012  99.9804997  61.7509988
  91.1348805 100.6954029  61.5617468  90.3691256  99.2103119  60.9946823
  90.4857000  99.5340214  62.7252324  86.0240012 102.0954997  63.8929988
  86.7230012 102.4814997  66.2059988  83.8420012  99.0504997  66.8929988
  82.7120012  99.6984997  66.8799988  82.0080012  99.9974997  65.9019988
  82.2980012 100.0154997  68.3949988  81.4377162 100.6739177  68.3321610
  81.9334486  99.0910842  68.8359800  83.4220012 100.6214997  69.2369988
  83.1833032 100.4451344  70.2800614  84.3331730 100.0657947  69.0395378
  83.6840012 102.2064997  69.0129988  83.7000265 102.3962611  67.9427708
  82.8141746 102.7309349  69.4008576  84.9300012 102.7864997  69.6639988
  85.7377078 102.0569037  69.6663927  85.3085864 103.6572715  69.1342520
  84.6300012 103.1834997  71.1249988  84.1545180 104.1617036  71.1555564
  83.9101814 102.4836009  71.5449777  85.8700012 103.1964997  72.0099988
  86.3097661 102.2003622  72.0057625  86.6161178 103.8628089  71.5861356
  85.6030012 103.6134997  73.4229988  86.5844967 103.8112446  73.8379005
  85.1089278 104.5797326  73.3300928  84.7940012 102.7484997  74.3389988
  84.3685736 101.8233328  73.9803463  84.5700012 103.0704997  75.6489988
  83.9797626 102.4080122  76.2657150  85.0880012 104.3244997  76.3879988
  85.2906796 105.1083644  75.6601948  84.3539307 104.7305715  77.0749684
  86.3690012 104.0314997  77.1369988  86.2563138 103.1630031  77.7848570
  87.1703155 103.7891187  76.4415810  86.7790012 105.2404997  77.9729988
  87.4845144 105.8224012  77.3799147  85.9019085 105.8683009  78.1036820
  87.4050012 104.9354997  79.3549988  88.4137721 104.5715354  79.1731851
  87.5133683 105.8816986  79.8823023  86.6370012 103.9364997  80.2529988
  85.5917580 104.2317189  80.3230154  86.6362010 102.9451128  79.8082781
  87.2110012 103.8724997  81.6899988  88.2507347 103.5540250  81.6408955
  87.2226903 104.8777714  82.1072830  86.4640012 102.9504997  82.6629988
  85.5455128 102.6000119  82.1988303  87.0784873 102.0648235  82.8089356
  86.1460012 103.5534997  84.0219988  85.6985116 102.8123334  84.6773572
  85.4499801 104.3819893  83.9451834  87.0460037 103.9224573  84.5057412
 107.8960012  78.6364997  84.6479988 108.7347461  79.3095805  84.7959793
 107.0106599  79.1157893  85.0557269 107.7463002  78.5254691  83.5775438
 108.1510012  77.2604997  85.3219988 108.3264983  77.4162562  86.3850809
 109.0696227  76.8426757  84.9190452 106.9780012  76.2514997  85.1389988
 106.1315542  76.5974776  85.7320888 107.2851054  75.3037619  85.5767785
 106.5130012  75.9934997  83.6909988 106.1427084  76.9165806  83.2504822
 105.6784722  75.2942894  83.6717016 107.6540012  75.4504997  82.8099988
 108.0556840  74.5200658  83.2030850 108.4852312  76.1529410  82.7784109
 107.1350012  75.2044997  81.3639988 106.0727522  74.9670687  81.3724042
 107.6345868  74.3478948  80.9165401 107.3730012  76.4534997  80.4799988
 108.4297691  76.7132230  80.4564343 106.8558231  77.3199498  80.8899025
 106.8670012  76.1934997  79.0059988 105.9697222  76.7774500  78.8051418
 106.5849394  75.1498456  78.8798586 107.9610012  76.5584997  77.9619988
 108.9209707  76.1009976  78.1915449 108.1411247  77.6314826  77.9087056
 107.4850012  76.0704997  76.6279988 106.5792163  76.6037410  76.3478086
 107.2107721  75.0181163  76.6966777 108.6120012  76.2524997  75.4809988
 109.5779738  75.9341279  75.8671041 108.7213819  77.3045327  75.2233354
 108.3130012  75.4534997  74.2169988 108.3181776  74.3977157  74.4768305
 109.1430527  75.6011658  73.5286100 106.9530012  75.8284997  73.4649988
 106.1494780  75.3957125  74.0585455 106.9485118  75.3002107  72.5157019
 106.6110012  77.3274997  73.2139988 106.8274700  77.9137707  74.1010007
 105.5441045  77.4196872  73.0287286 107.3660012  77.9214997  72.0209988
 107.1909960  77.3318230  71.1301028 108.4307931  77.9422998  72.2206344
 106.7280012  77.4084997  70.6869988 105.5720012  77.4814997  70.2969988
 107.7440012  77.0444997  69.8989988 107.4030012  76.6564997  68.5489988
 108.3172852  76.7403252  67.9810903 106.6664804  77.3291301  68.1339114
 106.8810012  75.1634997  68.5299988 107.6814345  74.5692701  68.9387672
 106.5850012  74.7194997  67.0809988 106.6603200  73.6444642  66.9892014
 107.3128750  75.1758338  66.4217994 105.2850012  75.1524997  66.7519988
 105.1430012  75.9464997  65.4489988 106.1750012  75.1154997  64.4759988
 106.7770012  75.7564997  63.3799988 107.6809439  75.2249128  63.1126192
 107.0869130  76.7424208  63.7142310 105.8840012  76.0114997  62.1239988
 106.4702501  76.4587438  61.3311974 105.0639208  76.6724806  62.3647257
 105.2750012  74.8094997  61.5409988 104.6740012  75.2314997  60.2019988
 104.0510568  76.1008256  60.3618325 104.0708272  74.4143574  59.8351749
 105.4747313  75.4318598  59.5060073 106.4330012  73.8454997  61.3589988
 106.9820503  73.7903583  62.2864784 107.0553660  74.1924582  60.5536095
 106.0140892  72.8791527  61.1182017 104.1650012  74.1884997  62.3629988
 104.5480479  73.9277557  63.3383806 103.8091898  73.2994567  61.8643497
 103.3536020  74.8946272  62.4652257 103.7430012  75.9114997  64.9899988
 105.6800012  77.2954997  65.5459988 105.6920012  74.9634997  69.3189988
 105.2540012  73.6714997  69.3069988 105.8890012  72.7094997  68.8399988
 103.9630012  73.5304997  70.0179988 103.7627015  72.4835025  70.2210502
 103.9761798  74.0240747  70.9865632 102.8930012  74.1554997  69.0879988
 103.0753915  75.2233245  69.1384466 103.1744822  73.8500136  68.0852627
 101.4010012  73.8904997  69.3129988 100.8798067  74.4368613  68.5310146
 101.2637341  72.8355345  69.0887861 100.7770012  74.1814997  70.6479988
  99.7858125  73.7356328  70.7067681 101.3505438  73.7564935  71.4681333
 100.6410012  75.6834997  70.8689988 101.5690373  76.1003487  70.4831403
  99.8618428  75.9800517  70.1694631 100.3310012  76.3114997  72.2509988
 100.1576679  77.3849670  72.1933415  99.4586287  75.8858700  72.7389779
 101.5740012  76.0404997  73.1339988 101.6658477  74.9645386  73.2259336
 102.4382831  76.3742879  72.5613312 101.6060012  76.7124997  74.4989988
 101.0840781  77.6540000  74.5810197 102.2120012  76.2404997  75.6209988
 102.1389407  76.7780039  76.5555368 103.0160012  74.9734997  75.7039988
 103.4282540  74.7726203  74.7166204 103.8643759  75.0932627  76.3685272
 102.1930012  73.7474997  76.1409988 101.8038683  73.9558362  77.1369287
 101.3284556  73.6987646  75.4817227 102.8940012  72.4044997  76.1429988
 102.1362210  71.6339031  76.2846221 103.3148043  72.2386587  75.1551094
 104.0020012  72.2324997  77.2109988 104.4773913  71.2588389  77.1154275
 104.7912730  72.9706495  77.0795841 103.3870012  72.3864997  78.6339988
 102.3335454  72.6137742  78.4817906 103.4150717  71.4000758  79.0887570
 103.9590012  73.4284997  79.6039988 105.0403235  73.3469220  79.5092887
 103.6905970  74.3931372  79.1770708 103.6080012  73.4394997  81.0609988
 104.1441519  74.2529240  81.5434904 102.5538744  73.6999746  81.1264407
 103.8470012  72.1204997  81.8519988 103.4795986  72.2095475  82.8699157
 104.9000745  71.8661705  81.9076234 103.3303314  71.2864194  81.3856261
  66.8900012  44.4454997  80.2559988  66.3756005  44.5054787  81.2100551
  66.4034218  45.1360928  79.5732751  67.9078216  44.7946351  80.4068564
  66.8740012  43.0244997  79.7069988  65.8325197  42.7193565  79.6209351
  67.3180870  42.3840130  80.4642165  67.5660012  42.8144997  78.3759988
  67.5979289  41.7424446  78.1820721  68.6004650  43.1293513  78.4981625
  66.9680012  43.5474997  77.1279988  67.1012380  44.6234947  77.2159346
  65.8949221  43.3824484  77.0445394  67.6640012  43.0664997  75.8289988
  67.7249765  41.9819513  75.7888769  68.6886745  43.4319223  75.7856885
  66.9030012  43.5624997  74.6099988  66.8816726  44.6506642  74.5938729
  65.8653180  43.2385606  74.6530591  67.5340012  43.0534997  73.3239988
  67.5853885  41.9675108  73.2714866  68.5505841  43.4138623  73.1725793
  66.6350012  43.5754997  72.1869988  66.5708672  44.6487182  72.3617554
  65.6493186  43.1717226  72.4107797  66.9700012  43.3154997  70.6709988
  67.9001659  43.8105107  70.4002616  66.1993151  43.7484652  70.0344763
  67.0880012  41.8104997  70.3729988  66.1633854  41.3234247  70.6748972
  67.8739494  41.3877924  70.9983250  67.3870012  41.5004997  68.9199988
  67.4458876  40.4240161  68.7742026  68.3589255  41.8979745  68.6327623
  66.2640012  42.0834997  67.9329988  66.4384409  41.7122440  66.9260435
  66.3659312  43.1658351  67.8797982  64.8410012  41.7484997  68.3779988
  64.6571177  42.1709958  69.3643739  64.7017934  40.6755048  68.4758623
  63.7630012  42.3144997  67.4039988  63.6417134  43.3759069  67.5938646
  62.8157280  41.8410750  67.6482008  64.0500012  42.0954997  65.8939988
  64.2077819  41.0446918  65.6867571  64.9340404  42.6456336  65.5941716
  62.9730012  42.7714997  65.1049988  61.8040012  42.9824997  65.4279988
  63.5410012  43.1424997  63.9139988  62.8630012  43.8864997  62.9659988
  61.8525297  43.8113413  63.3385046  62.8917099  43.5266424  61.9477303
  63.3430012  45.3054997  63.0479988  62.8770480  45.8661732  62.2546345
  64.8850012  45.2974997  62.8539988  65.1736207  46.0373786  62.1197788
  65.1787883  44.3191546  62.4946729  65.5130012  45.5764997  64.1279988
  66.9340012  46.2084997  64.1549988  67.8820012  44.9994997  63.6629988
  67.9700012  43.8254997  64.4689988  66.9877798  43.4391681  64.7081183
  68.4388579  44.0816132  65.4147134  68.8590012  42.7324997  63.8619988
  68.9960376  41.9437135  64.5908927  69.8277105  43.1263865  63.5902775
  68.3290012  42.0644997  62.6349988  68.4010012  42.9034997  61.4219988
  67.9525580  43.8632712  61.6389581  67.8422251  42.4091657  60.6412918
  69.4340324  42.9995911  61.1231179  69.0550012  40.7594997  62.3979988
  69.0509089  40.1932698  63.3167376  70.0573210  40.9698818  62.0701814
  68.5151248  40.2242789  61.6302949  66.8380012  41.6844997  62.8329988
  66.7480795  41.0311828  63.6880854  66.4812633  41.1760347  61.9499067
  66.2558155  42.5803550  62.9940518  66.8920012  47.2614997  63.0859988
  67.1810012  46.6084997  65.5289988  62.8080012  45.9024997  64.2749988
  63.0670012  47.2424997  64.2729988  63.6180012  47.8554997  63.3479988
  62.7700012  47.9144997  65.5609988  63.6256954  48.5438620  65.7829072
  61.9339539  48.5923666  65.4079354  62.4830012  46.9434997  66.6719988
  61.8366303  46.1677448  66.2764359  63.4102698  46.4505650  66.9462638
  61.8070012  47.5754997  67.9609988  62.4843557  48.2707996  68.4502869
  60.9355291  48.1561953  67.6687760  61.3580012  46.4794997  68.9599988
  60.6786542  46.8950547  69.7019608  60.8174363  45.6726726  68.4711004
  62.5920012  45.8804997  69.7049988  63.0807590  45.1216755  69.0973783
  63.3354304  46.6566688  69.8760413  62.2040012  45.2834997  71.0339988
  61.7454751  46.0879423  71.6069969  61.4198931  44.5553225  70.8462473
  63.2880012  44.6254997  71.8709988  63.8584014  43.9578691  71.2357877
  63.9786754  45.4010552  72.1993718  62.7790012  43.9264997  73.0459988
  62.7062639  42.8529345  72.9581292  62.4090012  44.4694997  74.2129988
  61.9878272  43.8204902  74.9673258  62.5100012  45.9304997  74.6359988
  62.3982573  46.5377910  73.7393764  61.6838814  46.1949204  75.2866052
  63.8880012  46.3274997  75.3399988  64.6299762  45.7062323  74.8397938
  64.0652301  47.3456263  74.9987260  64.1100012  46.2574997  76.9079988
  64.1692291  45.2137316  77.2164583  65.0665655  46.7045826  77.1641345
  63.0010012  46.9494997  77.6899988  63.0729283  48.0142125  77.4793854
  62.0478288  46.6217234  77.2787686  63.0050012  46.7214997  79.1589988
  64.0461430  46.5869831  79.4462599  62.6867418  47.6508623  79.6233490
  62.1680012  45.4964997  79.7559988  62.4986778  45.2391978  80.7606538
  61.1110569  45.7427684  79.8399900  62.3100012  44.2484997  78.8579988
  61.9640672  44.4787119  77.8533859  63.3716762  44.0314323  78.7629153
  61.5660012  42.9424997  79.3889988  61.7840582  42.0894488  78.7535270
  60.4886641  43.0681880  79.4059759  61.8851119  42.6940319  80.3972513
 107.0730012  65.1664997  81.6159988 107.4945086  64.2862640  82.0913362
 106.0432065  64.9407611  81.3545508 107.0577040  65.9646992  82.3530574
 107.8910012  65.5774997  80.3669988 107.9043613  64.7211349  79.6949393
 108.9163530  65.7233015  80.6959507 107.4100012  66.7934997  79.6119988
 107.2034565  67.6066313  80.3077612 106.4630938  66.5640452  79.1273463
 108.3800012  67.2714997  78.5629988 109.3122029  67.4890499  79.0796436
 108.0105785  68.2265529  78.1927201 108.6820012  66.3464997  77.3729988
 109.1701447  65.4268487  77.6852983 109.3562272  66.8249094  76.6645438
 107.3830012  65.9994997  76.6709988 106.7766174  66.8944436  76.5437547
 106.7962717  65.3192852  77.2847037 107.6330012  65.3544997  75.2949988
 108.2128104  64.4403173  75.4084088 108.2305890  66.0184567  74.6718778
 106.2360012  65.0134997  74.5309988 105.6539824  65.9286970  74.4304056
 105.6444873  64.3439720  75.1527125 106.4160012  64.4174997  73.2269988
 107.2410190  63.7107713  73.2854924 106.7326516  65.1971390  72.5352820
 105.1590012  63.6974997  72.6499988 104.2900560  64.3310271  72.8139389
 104.9829855  62.7848151  73.2187292 105.2870012  63.3294997  71.0819988
 104.3169501  63.0085489  70.7084583 105.9566665  62.4810995  70.9520238
 105.7990012  64.5524997  70.1749988 106.8841312  64.6132647  70.1430700
 105.4522584  65.5091040  70.5614539 105.2410012  64.3644997  68.7649988
 105.3577850  65.2844171  68.1945906 104.1759353  64.1510200  68.7833047
 105.9900012  63.2014997  67.9789988 105.5939261  62.2144036  68.1937333
 107.0511344  63.1720719  68.2118556 105.8280012  63.4934997  66.4949988
 106.1867404  64.4882823  66.2631483 104.7853649  63.4242433  66.2083245
 104.2900012  63.1844997  66.3009988 103.9050012  62.0774997  66.0319988
 103.5490012  64.3144997  66.3349988 102.1410012  64.1404997  65.9369988
 101.6231260  64.3534253  66.8599993 101.9289580  63.1237802  65.6394905
 101.7110012  65.1394997  64.8389988 100.6429586  65.0954524  64.7039473
 102.4470012  64.7774997  63.4679988 101.7982656  64.9854024  62.6279276
 102.6794821  63.7199041  63.4734083 103.6240012  65.5364997  63.3789988
 104.7760012  64.9334997  62.4199988 105.9540012  66.0194997  62.5859988
 105.7950012  67.3204997  62.2279988 105.1530015  67.3361028  61.3569179
 106.7729095  67.6570075  61.8959524 105.3390012  68.3664997  63.2729988
 104.2751612  68.1951660  63.3785369 105.4952370  69.3783507  62.9278540
 105.9410012  68.3104997  64.7629988 105.4640012  67.1434997  65.5549988
 104.3843568  67.1099127  65.5042635 105.7756869  67.2859806  66.5790355
 105.9142040  66.2448097  65.1608024 107.4380012  68.3004997  64.7699988
 107.7890496  69.1043981  64.1413285 107.7843498  67.3455035  64.4173022
 107.7573606  68.4607695  65.7896164 105.5310012  69.6764997  65.3339988
 105.9443845  70.4590914  64.7153337 105.9133062  69.7699019  66.3393688
 104.4532967  69.7524563  65.3487887 105.1950012  63.6174997  62.8569988
 104.2220012  64.9654997  61.0159988 101.9840012  66.4414997  65.3449988
 101.2640012  67.4334997  64.8989988 100.3450012  67.3304997  64.0659988
 101.7680012  68.7614997  65.5039988 102.8446077  68.6474602  65.5779339
 101.6013192  69.5339688  64.7573961 101.1370012  69.1484997  66.8509988
 101.0293754  70.2256114  66.9166336 100.1350116  68.7408276  66.9396184
 102.0180012  68.6504997  68.0369988 102.2483942  67.5999002  67.8794746
 102.9663167  69.1797850  67.9858158 101.4200012  68.8534997  69.4329988
 102.2498117  69.0517383  70.1088848 100.8143034  69.7563948  69.4223930
 100.5850012  67.7024997  70.0169988 100.1850775  68.0167119  70.9788890
  99.7257045  67.5513161  69.3665115 101.2870012  66.4174997  70.1759988
 101.7993767  66.1928082  69.2418221 102.0599991  66.5216234  70.9322728
 100.3800012  65.2304997  70.5579988  99.4780187  65.6543563  70.9838546
 100.0848579  64.7590654  69.6215234 100.9770012  64.1574997  71.4809988
 101.2933048  63.2042748  71.0849326 101.1420012  64.3564997  72.7879988
 101.5374651  63.5648008  73.4080239 100.8340012  65.6024997  73.5239988
 101.8121782  66.0754686  73.5924905 100.2574268  66.1975508  72.8246010
 100.1620012  65.6624997  74.9339988  99.8244641  66.6685233  75.1803527
  99.2790839  65.0275740  74.9762547 101.1620012  65.1954997  75.9739988
 101.4261097  64.1577121  75.7706501 102.0805705  65.7674313  75.8758740
 100.6430012  65.3104997  77.4009988 100.2463285  66.3085560  77.5732758
  99.8154506  64.6220383  77.5630667 101.7380012  65.0134997  78.3939988
 101.4358227  64.3886326  79.2323420 102.6366360  64.5547539  77.9907212
 102.0690012  66.4454997  78.9529988 102.0315283  67.1989726  78.1682967
 101.3439701  66.7551153  79.7035333 103.4600012  66.4704997  79.5839988
 103.5664298  65.5208713  80.1024521 104.1345986  66.4198133  78.7321406
 103.9320012  67.6514997  80.5399988 104.9759484  67.5319286  80.8137612
 103.3566230  67.6838033  81.4590404 103.8266836  68.6156977  80.0507428
  57.5480012  98.6034997  81.8809988  58.3709982  99.2873495  82.0639039
  56.7446935  98.8613884  82.5650895  57.1892674  98.7808826  80.8708219
  58.0020012  97.0874997  82.0699988  58.3924044  96.9980952  83.0823204
  58.8454210  96.9316907  81.4027802  56.9450012  96.0074997  81.8419988
  56.1260099  96.1593091  82.5449470  57.3824239  95.0432188  82.0929864
  56.3790012  95.9294997  80.4119988  55.8186070  96.8394725  80.2091251
  55.6611407  95.1131232  80.3494542  57.4290012  95.7574997  79.3349988
  58.2300851  95.1024366  79.6677599  57.8934448  96.7143952  79.1026024
  56.7810012  95.1494997  78.0059988  56.0200724  95.8230267  77.6159145
  56.2734591  94.2132104  78.2281257  57.8770012  94.8974997  76.8919988
  57.4642386  94.3714064  76.0331490  58.6936670  94.2799517  77.2633766
  58.4400012  96.2674997  76.4309988  58.7742426  96.8033020  77.3184950
  57.6135580  96.8448519  76.0207061  59.5680012  96.2224997  75.4199988
  59.3146400  95.5153678  74.6330339  60.4644706  95.8330766  75.9009033
  59.8740012  97.5544997  74.8099988  60.5316178  98.0722100  75.5048479
  58.9419994  98.1188900  74.7937135  60.4950012  97.5564997  73.3909988
  61.3367218  96.8672690  73.3881019  60.9109309  98.5422979  73.1901698
  59.5270012  97.1574997  72.2269988  58.6410708  97.7873148  72.2530618
  59.1795654  96.1376681  72.3816016  60.1940012  97.2434997  70.8529988
  60.7767971  98.1616430  70.8018749  59.4426641  97.3161716  70.0716631
  61.1030012  96.1054997  70.5479988  61.9154160  96.1272533  71.2669243
  61.5399858  96.3065064  69.5734564  60.4820012  94.6914997  70.5259988
  59.6463706  94.6552558  69.8386495  60.1316197  94.4177409  71.5141071
  59.3330012  94.5494997  69.5779988  58.2830012  93.9404997  69.8029988
  59.5200012  95.3124997  68.4659988  58.6000012  95.2444997  67.4689988
  57.6003288  95.1962941  67.8737128  58.7834008  94.3611127  66.8747059
  58.7760012  96.5404997  66.6139988  58.0648310  96.5471125  65.8046241
  60.2110012  96.6234997  66.0519988  60.3995736  95.7506802  65.4417303
  60.8859193  96.6072655  66.8986433  60.4010012  97.8354997  65.2769988
  59.7760012  97.6814997  63.7829988  58.3680012  98.4054997  63.7259988
  58.1490012  99.6004997  64.5349988  58.9030612  99.6757915  65.3076006
  57.1953747  99.4963449  65.0444548  58.0380012 100.9414997  63.7219988
  58.8795845 100.9373996  63.0408456  58.1388533 101.7818707  64.3935509
  56.8210012 101.2334997  62.8709988  55.6940012 101.6084997  63.7689988
  55.5967664 100.8518475  64.5353909  54.7924498 101.6430505  63.1756091
  55.8895895 102.5840533  64.1882329  57.2850012 102.2874997  61.8869988
  58.2051502 101.9518697  61.4337966  57.4198480 103.2187077  62.4076117
  56.5161906 102.3877387  61.1345498  56.5530012  99.9644997  62.0809988
  57.4247537  99.7216508  61.4918010  55.7081169 100.1248307  61.4282243
  56.3346022  99.1548598  62.7623358  60.7180012  98.3484997  62.9139988
  59.5470012  96.2234997  63.6149988  58.5810012  97.6914997  67.4409988
  57.3180012  98.0584997  67.6449988  56.3200012  97.4934997  67.2609988
  57.3160012  99.4784997  68.2749988  56.7742774 100.1248745  67.5921460
  56.7294641  99.4542915  69.1900372  58.7670012 100.0004997  68.5489988
  59.0848950  99.6724736  69.5325655  59.4606665  99.5526156  67.8445406
  58.8650012 101.5554997  68.4729988  59.8979939 101.8540925  68.3135551
  58.3121656 101.8995596  67.6023320  58.3110012 102.2424997  69.6969988
  58.4943695 103.2972144  69.5003799  57.2346158 102.1037238  69.6311359
  58.7700012 101.9284997  71.1499988  58.3823714 100.9433555  71.4012657
  59.8529804 101.8275406  71.1133359  58.4010012 102.9344997  72.2839988
  58.9920319 102.6960920  73.1669175  58.6831137 103.9413059  71.9889196
  56.8370012 102.9304997  72.6729988  56.2459154 103.2825877  71.8356030
  56.5165599 101.9075641  72.8660436  56.5820012 103.7454997  73.8889988
  56.5595267 104.8064157  73.6902374  56.3690012 103.3534997  75.1649988
  56.1850648 104.0842387  75.9394649  56.3550012 101.9074997  75.6569988
  55.5886161 101.7992431  76.4226067  56.0990073 101.2068805  74.8700548
  57.7000012 101.5154997  76.2679988  57.7984436 100.4395053  76.1292540
  58.4578801 101.9734227  75.6352389  57.9850012 101.8714997  77.7359988
  57.4942431 102.8020441  78.0212191  57.6132650 101.1109858  78.4171264
  59.5020012 102.0234997  77.9179988  60.0510656 101.2274776  77.4199805
  59.8771488 102.9574841  77.5032429  59.7840012 101.9904997  79.4239988
  59.1042366 102.6657777  79.9402447  59.5835762 101.0018249  79.8277028
  61.1890012 102.4064997  79.7559988  61.9230581 101.8082881  79.2191688
  61.3765923 103.4404771  79.4722131  61.4480012 102.2604997  81.2619988
  61.4543137 101.1970198  81.4875772  62.4700643 102.6010552  81.4127363
  60.5050012 103.0114997  82.2889988  60.8641072 102.8846167  83.3058628
  59.4876878 102.6365099  82.2543979  60.4710882 104.0771514  82.0807265
  40.3850012  55.5884997  85.6099988  40.5592285  55.4679370  86.6746764
  39.3434823  55.8651308  85.4739702  40.9936988  56.4209427  85.2677448
  40.7190012  54.3214997  84.8509988  40.1088169  53.5378608  85.2968557
  41.7488364  54.0909702  85.1100537  40.5360012  54.2944997  83.2969988
  40.8550918  53.3422307  82.8735676  41.1522638  55.0561979  82.8234935
  39.1220012  54.5414997  82.9329988  38.7547345  55.4916391  83.3145749
  38.4389792  53.7813650  83.3090070  39.0580012  54.5694997  81.4359988
  39.1678390  53.5559570  81.0588516  39.9192964  55.1264059  81.0707716
  37.7660012  55.1854997  80.8489988  37.5799674  56.1904745  81.2234770
  36.8811013  54.6014463  81.0927424  37.9340012  55.2354997  79.3329988
  38.0097818  54.2225223  78.9419692  38.8740995  55.7275561  79.0873861
  36.7810012  55.9654997  78.6289988  36.6035322  56.9324754  79.0979484
  35.8555042  55.4023784  78.7340411  37.0860012  56.1774997  77.1079988
  38.0325608  56.7044342  77.0084710  36.3271444  56.8339066  76.6839194
  37.1410012  54.8694997  76.2919988  36.1339168  54.4714861  76.1887255
  37.7093939  54.1220554  76.8448873  37.7730012  55.0614997  74.9099988
  38.6816682  55.6523453  75.0036286  37.1067390  55.6319113  74.2651318
  38.1290012  53.7294997  74.2219988  37.2044102  53.2427243  73.9213325
  38.5863700  53.0800505  74.9661087  39.0850012  53.8464997  73.0149988
  39.1331523  52.8360682  72.6125541  40.0635697  54.0516670  73.4399505
  38.8310012  54.8234997  71.8299988  38.4385522  55.7486448  72.2391874
  38.0400574  54.3860205  71.2265818  40.0020012  55.1354997  70.9329988
  40.4312413  54.2230435  70.5390221  40.7669799  55.6703449  71.4832869
  40.0650012  54.0704997  69.7769988  39.6400012  52.9224997  69.8879988
  40.5670012  54.6524997  68.7489988  40.3850012  54.0514997  67.4459988
  40.1590193  53.0175690  67.6590285  41.2546825  54.0984686  66.8067489
  39.1540012  54.7484997  66.7709988  38.3172651  54.5905909  67.4311742
  38.8390012  54.1394997  65.3519988  38.2477329  53.2411402  65.4666857
  39.7822009  53.8773261  64.8891550  38.1440012  55.0954997  64.5559988
  38.4970012  55.4464997  63.0409988  40.0790012  55.6164997  63.2489988
  40.8620012  56.3634997  62.3509988  40.2894219  56.5599699  61.4539249
  41.6991147  55.7394842  62.0515950  41.5010012  57.6654997  62.8999988
  40.7376161  58.3068978  63.3220185  42.0086346  58.2022200  62.1115721
  42.5580012  57.4634997  64.0299988  42.9940012  58.7584997  64.7189988
  43.2854633  59.4719240  63.9604412  43.8408460  58.5316840  65.3494814
  42.1788417  59.1247649  65.3248716  42.0300012  56.4664997  65.0619988
  41.6764437  55.5895725  64.5417009  41.2432234  56.9314172  65.6287459
  42.8540047  56.2058015  65.7103440  43.8210012  56.8294997  63.3579988
  43.5434022  55.8984693  62.8866143  44.5692486  56.6435534  64.1137763
  44.2161964  57.5106942  62.6182490  38.1380012  54.3174997  62.1909988
  37.9340012  56.7664997  62.7239988  39.3890012  56.1484997  66.7179988
  38.4640012  56.9084997  67.2569988  37.3640012  56.5934997  67.7369988
  38.9230012  58.3234997  67.1579988  39.7975313  58.4079041  66.5211111
  38.1757684  58.9847198  66.7263297  39.2390012  58.7214997  68.6479988
  38.3101143  58.7734585  69.2052514  39.8283131  57.9412085  69.1190510
  39.9690012  60.0664997  68.7619988  40.7501313  60.1149554  68.0075839
  39.2633309  60.8570690  68.5189048  40.5800012  60.3574997  70.1969988
  41.0682772  61.3293874  70.1554453  39.7709554  60.4543814  70.9169022
  41.6170012  59.3054997  70.7369988  41.1367856  58.3331455  70.8254374
  42.4089675  59.1862705  70.0001442  42.2570012  59.6874997  72.0939988
  42.9191230  58.8643992  72.3581982  42.8944998  60.5495120  71.9183624
  41.3140012  60.0004997  73.3019988  41.8960273  60.4209931  74.1137936
  40.6043309  60.7705569  73.0024558  40.5290012  58.7624997  73.7659988
  39.5613354  58.6878751  73.2931266  40.8570012  57.8104997  74.6139988
  40.2206624  56.9589333  74.8076937  42.1420012  57.8044997  75.3919988
  42.6828646  56.8645586  75.2960902  42.8507090  58.5885818  75.1498636
  41.6950012  57.9544997  76.8529988  41.1108584  58.8632244  76.9933611
  41.0453228  57.1292997  77.1383442  42.9310012  57.9814997  77.7959988
  43.3676869  56.9847419  77.8583415  43.7031189  58.6261385  77.3851715
  42.5670012  58.4544997  79.1879988  43.2532752  59.2457437  79.4814367
  41.5752349  58.9030201  79.1702720  42.5930012  57.3314997  80.2229988
  41.9260050  56.5250765  79.9240208  43.5817556  56.8869799  80.2964277
  42.1450012  57.8264997  81.5819988  42.2778848  57.0223925  82.3035503
  42.8154394  58.6254098  81.8935900  40.6990012  58.3374997  81.6809988
  40.5609062  59.0467675  80.8687280  40.0819499  57.4772780  81.4308397
  40.1850012  58.9474997  82.9799988  39.1255980  59.1741251  82.9066850
  40.6986755  59.8708681  83.2254991  40.3200357  58.2633153  83.8129444
  86.8120012  39.1174997  84.0099988  87.2726469  38.4318978  84.7144025
  86.9745764  38.7244481  83.0105641  85.7413913  39.1118515  84.1954030
  87.4020012  40.5644997  84.1539988  88.4774477  40.5390876  83.9867507
  87.2598903  40.9112438  85.1739924  86.7700012  41.5364997  83.1809988
  87.1482009  42.5410389  83.3701942  85.6990466  41.5774761  83.3695411
  86.9970012  41.1724997  81.6629988  86.3949873  40.3074525  81.3936985
  88.0323034  40.8871015  81.4829900  86.6210012  42.3434997  80.7329988
  87.2915665  42.3770990  79.8781385  86.7542179  43.2851603  81.2629926
  85.1140012  42.2434997  80.2059988  84.4576058  41.9293521  81.0154884
  85.0386036  41.4764383  79.4382038  84.6150012  43.5784997  79.6379988
  85.1927713  44.4012191  80.0552329  83.5820129  43.7492745  79.9380007
  84.7100012  43.6174997  78.1179988  84.5815180  42.5930514  77.7709414
  85.7342494  43.8943973  77.8752495  83.7340012  44.5444997  77.3479988
  83.6674761  45.5101162  77.8446879  82.7290436  44.1245604  77.3649781
  84.1750012  44.7524997  75.8809988  83.3279046  45.1363944  75.3167725
  84.4170793  43.7829990  75.4463775  85.4140012  45.7174997  75.7189988
  86.3543085  45.2535354  76.0089993  85.3377589  46.6348510  76.3001887
  85.4890012  46.0724997  74.2089988  85.8771000  47.0838940  74.1158337
  84.4722626  46.1002069  73.8215133  86.3050012  45.1204997  73.3589988
  86.2675798  44.1151094  73.7749821  87.3547124  45.3989907  73.3303097
  85.7740012  45.0604997  71.9509988  85.7624951  46.0589000  71.5262525
  84.7415514  44.7234330  71.9900572  86.5840012  44.0944997  70.9899988
  86.6370440  43.0984527  71.4108526  87.5919088  44.4647694  70.8447695
  85.7780012  43.8984997  69.7039988  85.0970012  44.6994997  69.1499988
  86.0360012  42.7024997  69.1949988  85.4900012  42.2774997  67.9419988
  86.2339086  41.6725440  67.4459219  85.2724243  43.1413868  67.3308103
  84.1960012  41.4374997  68.2059988  84.4016425  40.6366127  68.8967850
  83.7360012  40.8574997  66.8529988  83.0901709  40.0042281  67.0099442
  84.6110256  40.5338618  66.3032935  83.0450012  41.8824997  66.1319988
  82.6220012  41.5474997  64.6379988  84.0740012  41.5864997  63.9239988
  84.8490012  42.7594997  64.1319988  85.5384040  42.6668301  64.9610494
  84.2012590  43.6003718  64.3625656  85.5970012  43.1654997  62.8239988
  86.2911293  43.9309264  63.1473517  84.9619075  43.5761709  62.0523887
  86.4530012  42.0874997  62.1369988  85.6300012  41.0714997  61.4259988
  84.8788057  40.6971257  62.1078224  86.2824569  40.2652536  61.1253849
  85.1896990  41.5266827  60.5515507  87.3450012  42.6634997  61.1099988
  87.8757561  43.4963687  61.5451337  86.7550569  42.9712311  60.2652283
  88.0421495  41.8915246  60.8178761  87.3990012  41.4434997  63.1219988
  88.0332827  42.2029442  63.5544486  88.0065288  40.7152143  62.6060911
  86.8312291  40.9541631  63.9002145  82.0520012  40.1724997  64.5439988
  81.6890012  42.6104997  64.1919988  83.1810012  42.2404997  68.7419988
  82.1210012  41.5704997  69.1599988  82.0170012  40.3264997  69.1689988
  81.0500012  42.6044997  69.6659988  81.0190343  43.4213036  68.9522584
  80.0634157  42.1486036  69.6392618  81.4030012  43.1004997  71.1089988
  81.4886652  42.2233562  71.7409340  82.3923472  43.5457651  71.0779170
  80.3930012  44.0984997  71.7549988  80.9231527  44.8958673  72.2695842
  79.8103769  44.5778315  70.9721482  79.4130012  43.3854997  72.7389988
  78.5616363  44.0477211  72.8851037  79.0230566  42.4900996  72.2610825
  79.9660012  43.0124997  74.0999988  80.8213103  42.3581111  73.9446835
  80.3591108  43.9240456  74.5460143  79.0200012  42.3724997  75.0719988
  78.1019683  42.9577412  75.0517736  78.7638541  41.3871856  74.6927061
  79.5130012  42.2264997  76.5649988  80.5176758  41.8209647  76.5376074
  79.5995493  43.2331123  76.9719219  78.6300012  41.4204997  77.4659988
  77.6433508  41.8564231  77.5112300  78.8380012  40.3024997  78.1799988
  78.0574565  39.8528649  78.7768142  80.1320012  39.5724997  78.2249988
  79.9018305  38.5300803  78.4385503  80.5994438  39.5858847  77.2467354
  81.1300012  40.0654997  79.2709988  82.0330261  39.4561999  79.2731585
  81.4499449  41.0810150  79.0455580  80.4940012  40.0364997  80.6549988
  79.6887834  40.7697377  80.7007532  80.0336546  39.0684780  80.8325352
  81.5350012  40.3384997  81.7949988  82.1233915  39.4529481  82.0246513
  82.2451980  41.1047740  81.4891735  80.7510012  40.8364997  83.1149988
  80.5570045  41.9031770  83.0193181  79.7753927  40.3595461  83.1514457
  81.5220012  40.6014997  84.4819988  81.4606639  39.5438257  84.7318919
  82.5771255  40.8118511  84.3167749  81.0420012  41.4254997  85.7049988
  80.0452096  41.0838124  85.9725270  81.6856224  41.1381785  86.5335585
  81.0430012  42.9134997  85.5909988  80.7716729  43.3727058  86.5368210
  80.3370971  43.2635402  84.8454036  82.0261563  43.2832256  85.3137811
  39.8720012  83.3014997  81.4779988  39.6461746  82.4098917  82.0545980
  39.6906889  84.1625742  82.1147613  40.9328101  83.2834991  81.2435368
  39.0070012  83.3694997  80.1719988  37.9618973  83.3376893  80.4752298
  39.1931896  82.4511650  79.6217176  39.2320012  84.5874997  79.2599988
  40.1288449  84.4790353  78.6502153  39.3733236  85.4942649  79.8447858
  38.0530012  84.7784997  78.3699988  38.1803493  85.7168074  77.8346381
  37.1619596  84.9002576  78.9839418  37.8110012  83.6314997  77.3229988
  37.6365000  82.6983567  77.8524953  38.7278138  83.4922475  76.7525354
  36.6560012  83.8774997  76.3639988  36.7677447  84.8386021  75.8653883
  35.7112773  83.9218268  76.9016873  36.5860012  82.7584997  75.3039988
  36.2012685  81.8412396  75.7460224  37.5832716  82.5232902  74.9347318
  35.6540012  83.1834997  74.0739988  36.1208678  84.0291497  73.5706474
  34.7101061  83.5505364  74.4727848  35.3770012  82.0904997  73.0619988
  35.0976385  82.5872512  72.1353190  34.4865192  81.5653565  73.4052821
  36.5240012  81.0374997  72.7679988  36.8560005  80.6218446  73.7168435
  37.3803562  81.5660147  72.3499595  36.1130012  79.9034997  71.8109988
  35.3465803  79.3055120  72.2994153  36.9635138  79.2407268  71.6610379
  35.5860012  80.3474997  70.4699988  34.7522973  81.0264635  70.6317548
  35.1752481  79.4777712  69.9605635  36.5930012  80.9784997  69.5899988
  37.3661799  80.2372675  69.3950077  37.0761009  81.7866837  70.1319648
  36.0750012  81.5304997  68.1849988  35.3046653  80.9099235  67.7391144
  36.8791175  81.6047729  67.4576939  35.5000012  82.9604997  68.4379988
  36.2422702  83.5886744  68.9138917  34.6268317  82.9085024  69.0774832
  34.8090012  83.5504997  67.2509988  34.3820012  82.9044997  66.2979988
  34.6510012  84.8534997  67.4229988  33.9380012  85.4484997  66.3079988
  33.1124652  86.0024767  66.7287859  33.5516332  84.6885751  65.6443524
  34.9310012  86.4364997  65.5319988  34.3830100  86.9929779  64.7897510
  36.0850012  85.6504997  64.8559988  36.5821037  86.3182751  64.1655163
  35.6160382  84.8541468  64.2916578  36.9760012  85.1384997  65.7479988
  38.4540012  84.5894997  65.2209988  38.2540012  83.5904997  64.0309988
  37.4990012  82.3594997  64.1869988  36.5068830  82.5800864  64.5587944
  37.9884194  81.7621727  64.9508491  37.4350012  81.4564997  62.9499988
  36.6277940  80.7474837  63.0840206  38.3649316  80.9125699  62.8678597
  37.2030012  82.0954997  61.5879988  35.9690012  82.9804997  61.5649988
  35.1335795  82.4183193  61.9591533  35.7727179  83.2519282  60.5384027
  36.1650896  83.8704209  62.1440553  38.3330012  83.0494997  61.2069988
  39.2738440  82.5397549  61.3473166  38.2687398  83.9317787  61.8184104
  38.2020152  83.3058934  60.1656526  36.9970012  80.9914997  60.5679988
  37.8650193  80.3492027  60.5589939  36.8622112  81.4315569  59.5913559
  36.1197726  80.4176274  60.8298682  39.2120012  85.7314997  64.6669988
  38.9790012  83.9334997  66.4489988  35.4460012  87.3764997  66.5029988
  36.5080012  88.1314997  66.1409988  36.6780012  88.6224997  65.0379988
  37.3180012  88.3364997  67.3769988  38.3022229  88.6471633  67.0418141
  36.9033707  89.1876859  67.9112932  37.3850012  87.0704997  68.2979988
  36.3840509  86.6537920  68.3206765  38.0033278  86.3385151  67.7881913
  37.8810012  87.2604997  69.7329988  38.0253534  86.2778597  70.1748528
  38.8671592  87.7145673  69.6748616  37.0110012  88.1104997  70.6319988
  37.4792216  88.1659175  71.6130209  36.9693086  89.1302611  70.2570983
  35.5420012  87.5754997  70.8139988  35.0142285  87.5447089  69.8629946
  35.5568131  86.5526572  71.1854216  34.7700012  88.4304997  71.7869988
  35.2167444  89.4211706  71.7184965  33.7632868  88.5199514  71.3884481
  34.6800012  88.0204997  73.2459988  34.1698981  88.8586749  73.7062565
  33.9649945  87.1990619  73.2272520  35.8840012  87.5964997  74.0649988
  36.6523254  87.0838588  73.5060434  36.1110012  87.7944997  75.3959988
  37.0020618  87.4730963  75.9159227  35.0930012  88.5144997  76.2869988
  35.6053030  89.2848836  76.8608248  34.3289345  89.0234118  75.7100312
  34.4330012  87.5544997  77.2629988  33.7240113  86.9074469  76.7478667
  35.1800788  86.8964220  77.7026209  33.6930012  88.3354997  78.4099988
  34.3860861  89.1206756  78.7120568  32.8574265  88.8365355  77.9290808
  33.1750012  87.5644997  79.7069988  32.4824285  88.2369831  80.2082513
  32.5818382  86.7202699  79.3598405  34.2500012  87.0564997  80.7179988
  34.7814080  86.2029748  80.3012350  35.0046830  87.8175181  80.8966921
  33.6140012  86.6124997  82.0629988  34.3741961  86.4850162  82.8315914
  32.9301804  87.3718828  82.4379125  32.8490012  85.3034997  81.9169988
  32.3334521  85.0764704  82.8468277  32.0679399  85.4620454  81.1766478
  33.6830012  84.1074997  81.4969988  33.0538471  83.2383550  81.3302004
  34.4151946  83.8388511  82.2509627  34.2189241  84.3099449  80.5739909
 105.9920012  54.9624997  83.3759988 105.6999590  54.6982181  84.3875795
 106.3209223  54.0548134  82.8782976 105.1054118  55.3184628  82.8584454
 107.0600012  55.9924997  83.3749988 107.9421152  55.6352402  83.9036229
 106.7300139  56.8847551  83.9001680 107.4560012  56.3524997  81.8869988
 106.5589390  56.3445131  81.2680119 108.0952530  55.5609594  81.5010037
 108.1850012  57.7004997  81.7089988 109.0157033  57.7830552  82.4064000
 107.5279869  58.5423873  81.9217510 108.7520012  57.8344997  80.2209988
 109.3376357  56.9416672  80.0173926 109.4556654  58.6652039  80.2333334
 107.7450012  58.0404997  79.0789988 106.9181284  57.3453003  79.2124014
 108.2212711  57.7698649  78.1390516 107.1930012  59.4724997  78.9739988
 108.0282708  60.1311239  78.7431119 106.8409314  59.7628669  79.9629192
 106.0480012  59.7034997  77.9289988 105.7371831  60.7397470  78.0556264
 105.2123124  59.0923559  78.2648731 106.3150012  59.4234997  76.3989988
 106.7354868  58.4282890  76.2713719 107.0614051  60.1195024  76.0181599
 104.9960012  59.5494997  75.5359988 104.3822506  60.3611038  75.9205867
 104.3994854  58.6428621  75.6340101 105.3110012  59.7864997  74.0579988
 106.0470300  60.5804386  73.9509309 104.4269717  60.1189460  73.5166123
 105.8810012  58.4854997  73.3739988 105.1205224  57.7152796  73.4772076
 106.7259771  58.1612918  73.9786266 106.3280012  58.5854997  71.9339988
 105.4415338  58.7146306  71.3153286 106.7775612  57.6447309  71.6288367
 107.3050012  59.7384997  71.6129988 108.1350907  59.7222041  72.3115908
 106.7878495  60.6828115  71.7610570 107.8490012  59.7004997  70.1849988
 107.0361414  59.6823611  69.4701763 108.4613300  58.8187795  70.0377170
 108.6790012  58.4644997  69.8959988 109.7570012  58.2164997  70.3009988
 107.9500012  57.6644997  69.1059988 108.4660012  56.3134997  69.0159988
 108.2562487  55.8738324  69.9794086 109.5361233  56.3657218  68.8770621
 107.7930012  55.4734997  67.8779988 108.3403529  54.5460504  67.8442661
 107.8140012  56.1664997  66.4449988 107.3718490  55.4977093  65.7190360
 108.8509097  56.3303715  66.1793829 107.1210012  57.3814997  66.4769988
 107.4560012  58.5434997  65.4309988 107.0260012  57.8744997  64.0039988
 105.6930012  57.3314997  63.9229988 105.2496436  57.2947779  64.9095456
 105.7717934  56.3031589  63.5822584 104.7450012  58.0224997  62.9129988
 104.5393565  59.0301173  63.2516223 103.8192172  57.4656742  62.8973018
 105.1850012  58.1564997  61.4359988 105.6340012  56.7164997  60.9399988
 106.3451116  56.3136569  61.6480762 106.1053840  56.8284834  59.9749299
 104.7598129  56.0898822  60.8458580 104.0410012  58.6254997  60.5599988
 103.5936321  59.4948977  61.0168597 103.3291371  57.8264347  60.4545718
 104.4568234  58.8852478  59.5972321 106.3700012  59.0744997  61.2439988
 106.1259826  60.0547080  61.6257428 106.5988513  59.1427831  60.1910909
 107.2235521  58.6773046  61.7742080 106.5800012  59.6734997  65.7589988
 108.9480012  58.7474997  65.4939988 106.4450012  55.2174997  68.2039988
 106.2890012  54.2874997  69.1299988 107.1700012  53.6024997  69.6549988
 104.8820012  54.3844997  69.5909988 104.6398199  55.4398799  69.6622286
 104.2272305  53.9802723  68.8230257 104.6750012  53.6384997  70.9629988
 104.7381341  52.5693995  70.7924113 105.4911033  53.8838569  71.6351669
 103.3050012  53.9684997  71.6469988 103.2036683  55.0157615  71.9201805
 102.4630142  53.7417793  70.9975984 103.2070012  53.0724997  72.9189988
 102.2134720  53.2212669  73.3378950 103.2551033  52.0300862  72.6136099
 104.2380012  53.3114997  74.0269988 104.1806368  52.5253597  74.7770617
 105.2416894  53.2591786  73.6095621 104.0590012  54.6794997  74.7069988
 103.6123085  55.3623914  73.9860095 103.3473413  54.5862219  75.5225707
 105.3360012  55.2864997  75.2459988 106.0329332  55.3740809  74.4206532
 105.1024636  56.3031446  75.5594302 105.9550012  54.5594997  76.4009988
 106.7848917  53.9470258  76.0820764 105.6670012  54.5584997  77.6899988
 106.1901583  54.0102125  78.4602571 104.5340012  55.3694997  78.1899988
 104.8403259  56.4141838  78.1946042 103.6803374  55.3064275  77.5244456
 104.1080012  54.9964997  79.5879988 103.7978910  53.9531990  79.5426074
 105.0167616  55.0169546  80.1864927 102.9880012  55.8494997  80.3129988
 102.1562517  55.9965151  79.6240239 102.5912700  55.2840920  81.1517017
 103.4900012  57.2344997  80.8129988 104.4492252  57.0681208  81.2981300
 103.6947109  57.8456199  79.9356670 102.5310012  58.0184997  81.7769988
 101.6017154  58.1979998  81.2395999 102.2736270  57.3622267  82.6038538
 103.0430012  59.3894997  82.3219988 103.3842868  60.0333297  81.5133641
 102.2455950  59.9336176  82.8249035 104.2120012  59.1934997  83.3229988
 104.9462992  58.4630703  82.9925531 104.7617392  60.1208492  83.4683395
 103.6100012  58.7424997  84.7019988 104.3859996  58.6783437  85.4588207
 103.1364508  57.7686006  84.6386614 102.8638460  59.4500137  85.0524517
 103.0870012  83.3434997  83.8189988 103.1373569  84.2707240  84.3812695
 102.1542642  82.8500955  84.0765723 103.0433906  83.5988997  82.7637827
 104.2830012  82.4504997  84.1169988 104.3318347  82.1985866  85.1749960
 105.2146867  82.9573726  83.8806602 104.1660012  81.2064997  83.3259988
 103.3462362  80.6052583  83.7189660 105.0687171  80.6163974  83.4710998
 103.9560012  81.4244997  81.7849988 103.0284793  81.9785579  81.6586157
 103.7912075  80.4517134  81.3243080 105.0600012  82.1514997  81.0419988
 106.0078143  81.6688671  81.2662510 105.1273286  83.1599310  81.4468422
 104.8860012  82.2294997  79.4909988 104.4766391  81.2801347  79.1504906
 105.8748221  82.3118543  79.0448733 103.9980012  83.3814997  78.9759988
 104.5304301  84.3190369  79.1253752 103.1073614  83.4345501  79.6006398
 103.5750012  83.2654997  77.4929988 102.9084030  84.1081473  77.3139935
 102.9570025  82.3714220  77.4348015 104.6680012  83.2164997  76.3569988
 105.2786410  82.3300726  76.5148182 105.3317374  84.0699307  76.4899899
 104.1460012  83.2134997  74.9649988 103.8586820  84.2110155  74.6398698
 103.2567170  82.5917865  74.8646224 105.2840012  82.6464997  74.0279988
 105.3486431  81.5667173  74.1438976 106.2534992  83.0411188  74.3271262
 105.0460012  82.9594997  72.5469988 105.0375678  84.0385768  72.4138053
 104.0500121  82.6123099  72.2784193 106.0610012  82.3184997  71.5949988
 107.0692440  82.5669907  71.9220317 105.9590064  82.7208055  70.5909962
 105.9470012  80.7994997  71.5359988 105.9123197  80.4777560  72.5716740
 106.9053528  80.4763519  71.1382180 104.8540012  80.1114997  70.7679988
 104.8484082  80.4431276  69.7374491 103.8883744  80.3293560  71.2086490
 104.9150012  80.5654997  69.3109988 105.8660012  80.3784997  68.5849988
 103.7370012  81.2254997  68.9849988 103.7180012  81.7624997  67.6839988
 102.9262103  81.2283170  67.1808306 104.6646247  81.4924200  67.2388552
 103.4720012  83.3254997  67.5899988 102.4768856  83.5783181  67.9166819
 103.7110012  83.8724997  66.2299988 103.1536786  84.7886530  66.0890890
 103.3727239  83.1452408  65.5025044 105.1290012  84.1144997  66.0789988
 105.5720012  85.4294997  65.3249988 105.0570012  85.0474997  63.8919988
 105.4870012  83.8124997  63.3599988 105.1829435  83.0040836  64.0120734
 106.5731686  83.8114413  63.3539793 105.0820012  83.5374997  61.9289988
 105.5112660  82.5924816  61.6209054 105.4374371  84.3129977  61.2659414
 103.5960012  83.4184997  61.6699988 103.2350012  83.4204997  60.1889988
 103.7078094  84.2722098  59.7195564 102.1619029  83.5096972  60.1077338
 103.5555718  82.4881789  59.7488517 103.0960012  82.1214997  62.3419988
 103.4485613  82.1060263  63.3618889 103.4604366  81.2755704  61.7870568
 102.0159732  82.1436822  62.3234341 102.8970012  84.6144997  62.3449988
 103.1185058  84.6056466  63.4018523 101.8306502  84.5312643  62.1979696
 103.2516657  85.5351207  61.9044254 104.8030012  86.5744997  65.8779988
 107.0840012  85.5514997  65.1729988 104.4420012  83.9084997  68.5499988
 104.1860012  85.1014997  69.0279988 103.1220012  85.7214997  68.8229988
 105.4010012  85.7304997  69.8389988 105.5984298  84.9789148  70.5964255
 106.2419106  85.6877495  69.1512847 105.2630012  87.0494997  70.4099988
 106.2375044  87.4525381  70.6629106 104.8295381  87.7397971  69.6933174
 104.3760012  86.9984997  71.7049988 103.6554443  87.8123134  71.7176076
 103.7954682  86.0793548  71.7198025 105.2480012  87.0474997  72.9689988
 104.6105477  86.9203898  73.8420407 105.9496665  86.2170111  72.9815087
 106.0220012  88.3464997  73.1269988 106.8926566  88.3507596  72.4744331
 105.4003698  89.1809082  72.8080664 106.4810012  88.5994997  74.6119988
 106.7616988  89.6481566  74.6970190 105.6295198  88.4556355  75.2712412
 107.6380012  87.7234997  75.1069988 107.3063148  86.6939147  75.1742219
 108.4336863  87.7414743  74.3634209 108.1800012  88.1864997  76.3819988
 109.1232823  88.7085787  76.3253587 107.6400012  88.0474997  77.5799988
 108.1821917  88.4089807  78.4419563 106.2930012  87.4204997  77.9119988
 105.8910107  86.9738121  77.0042021 106.3973962  86.6124296  78.6274046
 105.2330012  88.4784997  78.4589988 105.6508660  88.9812175  79.3304164
 105.0946416  89.2482826  77.7021964 103.8680012  87.8754997  78.8209988
 103.1252923  88.6665343  78.7172937 103.6239654  87.1294592  78.0697503
 103.7470012  87.2354997  80.2539988 102.9083328  86.5435281  80.2849153
 104.6338299  86.6494043  80.4887582 103.5630012  88.3414997  81.3329988
 104.4300548  88.9991890  81.3488990 102.7129370  88.9767312  81.0995533
 103.4020012  87.7464997  82.7229988 103.1934576  88.5733193  83.3995797
 102.4992385  87.1387071  82.7019807 104.5360012  86.9094997  83.3139988
 104.4154372  86.7735208  84.3858612 104.5077021  85.9107120  82.8839577
 105.8830012  87.5174997  83.0349988 106.6792747  86.8669744  83.3840466
 106.0057354  88.4753799  83.5291067 106.0273575  87.6748078  81.9698432
  91.3980012  96.4494997  79.2849988  90.9369319  97.3633780  78.9235149
  91.7151145  96.6212260  80.3095666  90.6330867  95.6779998  79.3024865
  92.5820012  96.0334997  78.3989988  93.2887252  96.8615196  78.3877244
  92.2052198  95.9400256  77.3840542  93.3300012  94.7244997  78.8179988
  92.7932790  93.8302896  78.5013813  93.4203519  94.6541348  79.9001524
  94.7720012  94.7104997  78.1959988  95.2742237  93.7953020  78.5016714
  95.3559444  95.5289181  78.6142182  94.7990012  94.7944997  76.7119988
  94.5154357  95.8013426  76.4163115  94.0239425  94.1334955  76.3276518
  96.1180012  94.4464997  76.0619988  96.1301888  93.3776387  75.8565607
  96.9154880  94.6274124  76.7795378  96.4220012  95.2254997  74.7499988
  97.4316819  95.0126956  74.4035463  96.3801933  96.2998188  74.9241264
  95.4090012  94.8474997  73.6379988  94.4187412  95.2169735  73.9012958
  95.3214649  93.7646595  73.5710762  95.8020012  95.3964997  72.2949988
  94.9243062  95.3107895  71.6579381  96.5425188  94.7106238  71.8853832
  96.3470012  96.8354997  72.2219988  97.0872296  97.0062336  73.0005942
  95.5524285  97.5616327  72.3917463  96.9780012  97.0864997  70.8239988
  97.8362522  96.4263561  70.7183740  97.3717529  98.1010261  70.7953001
  96.0210012  96.8624997  69.5829988  95.9125690  97.7719820  68.9970778
  95.0193714  96.5912944  69.9114124  96.5690012  95.7374997  68.7099988
  97.0830847  95.0010321  69.3252919  97.3017183  96.1015361  67.9952421
  95.4220012  95.0044997  67.9369988  94.6550124  95.7110728  67.6372863
  94.9462490  94.2860206  68.5992220  95.9370012  94.2574997  66.6919988
  96.7278553  93.5696241  66.9629563  96.3220837  94.9602170  65.9626369
  94.7330012  93.3334997  66.1169988  94.0830012  92.5714997  66.8409988
  94.4780012  93.4964997  64.8129988  93.2380012  92.9024997  64.3299988
  93.0398564  92.0187999  64.9176001  93.3357968  92.6214418  63.2914255
  92.0940012  93.9464997  64.5209988  91.1030065  93.5677970  64.3328289
  92.3810012  95.1534997  63.5939988  91.7689020  95.9839204  63.9188635
  92.0673358  94.8592004  62.6002246  93.7110012  95.5074997  63.5919988
  94.2180012  96.8164997  62.7419988  95.7860012  96.6344997  62.8909988
  96.7050012  97.4714997  62.1739988  96.3529213  97.8616219  61.2279367
  97.6488057  96.9741001  61.9699802  97.0410012  98.5764997  63.1169988
  96.1580221  99.0553746  63.5210727  97.6564001  99.3268500  62.6419877
  97.8420012  98.0814997  64.3329988  98.9490012  97.1704997  64.0939988
  98.5968192  96.3527370  63.4803489  99.2809356  96.7916539  65.0491927
  99.7532015  97.7129218  63.6199134  98.2830012  99.2954997  65.1669988
  97.4218393  99.9218767  65.3424012  99.0530729  99.8254904  64.6355204
  98.6661821  98.9209200  66.1051669  96.9680012  97.2874997  65.2999988
  96.1492167  97.9087292  65.6312810  97.5618564  96.9875955  66.1503184
  96.5829455  96.4100559  64.8007398  93.7400012  96.6874997  61.3509988
  93.8210012  98.0764997  63.4209988  92.1550012  94.2884997  65.8879988
  91.1650012  94.9264997  66.5139988  90.0600012  95.2634997  66.0569988
  91.4620012  95.1294997  68.0289988  90.6096578  94.7836398  68.6047111
  92.3025428  94.5164451  68.3445316  91.7440012  96.6074997  68.2609988
  92.6574583  96.8504578  67.7293707  90.9561532  97.1789838  67.7806504
  91.8870012  97.0504997  69.7519988  90.9009160  96.9565380  70.1997277
  92.5083155  96.2944603  70.2257477  92.4560012  98.3854997  70.0519988
  93.4927687  98.4384570  69.7248679  91.9314636  99.1819221  69.5297214
  92.4120012  98.6584997  71.5099988  91.4166046  98.4536403  71.8987394
  93.0844023  97.9736806  72.0231075  92.8160012 100.1134997  71.8699988
  93.7739269 100.3444567  71.4066003  92.0985448 100.8178357  71.4583131
  92.9190012 100.3494997  73.4229988  93.7851439  99.8276879  73.8129851
  93.0898878 101.4090390  73.6087948  91.6710012  99.9334997  74.1379988
  90.7267244 100.0991729  73.6415637  91.6330012  99.3694997  75.3189988
  90.6424649  99.1735525  75.7037748  92.7200012  98.9494997  76.2179988
  92.2531475  98.4099777  77.0403033  93.3571240  98.2348896  75.7089919
  93.6010012 100.0944997  76.8209988  94.2425047 100.5446814  76.0643518
  92.9778058 100.8986178  77.2076259  94.4700012  99.5324997  77.9639988
  94.4871351  98.4432624  77.9269090  95.5020887  99.8561080  77.8611541
  93.9370012  99.9744997  79.2999988  93.9917662 101.0595497  79.3530284
  92.8806125  99.7196603  79.3646904  94.6630012  99.3684997  80.4619988
  94.2909211  98.3523263  80.5783521  95.7088786  99.2715331  80.1838570
  94.5460012 100.0594997  81.7939988  95.3537652 100.7844560  81.8766940
  93.6221964 100.6351701  81.7987187  94.5670012  99.1434997  83.0649988
  94.3636724  99.7697095  83.9301193  93.7078974  98.4831384  82.9692031
  95.8210012  98.2884997  83.3339988  95.6686098  97.6398935  84.1914111
  96.6925120  98.9005858  83.5403005  96.0547330  97.6587364  82.4802373
  67.5980012 101.8224997  84.4519988  67.2695230 102.6135139  85.1189527
  68.6838375 101.8378572  84.4293383  67.2915745 100.8750937  84.8868971
  67.0210012 101.9964997  83.0699988  67.3229205 102.9601299  82.6632254
  65.9361687 102.0167437  83.1295204  67.4830012 100.8664997  82.1049988
  67.4728829  99.8969192  82.6027339  68.5117549 101.0336384  81.7921068
  66.5790012 100.8004997  80.8259988  65.5742269 100.4909149  81.1049898
  66.9481330 100.0415598  80.1379159  66.4890012 102.2024997  80.0679988
  67.4845622 102.6387982  80.0593481  65.8741593 102.8565050  80.6841249
  65.9200012 102.1914997  78.5879988  66.5526143 101.5704613  77.9563905
  65.9642476 103.1948891  78.1698733  64.4850012 101.6814997  78.5199988
  63.9631265 101.9879737  79.4247034  64.5013521 100.5925498  78.5322779
  63.6940012 102.1644997  77.2879988  64.3569467 102.2142994  76.4251696
  63.3376848 103.1790707  77.4564273  62.4910012 101.2504997  76.9549988
  61.8403285 101.2181396  77.8262731  62.8645776 100.2365643  76.8173303
  61.6700012 101.6604997  75.7209988  61.5985164 102.7459369  75.7171206
  60.6544799 101.2882021  75.8534378  62.2070012 101.1744997  74.3999988
  63.2066223 101.5873281  74.2822221  61.6035584 101.6131113  73.6071528
  62.2850012  99.6414997  74.1939988  61.4589018  99.1834344  74.7324736
  63.1949480  99.2862009  74.6740295  62.2870012  99.1744997  72.7349988
  61.2926768  99.3322025  72.3206308  62.4701778  98.1046988  72.6876021
  63.2930012  99.8934997  71.8339988  64.2600163  99.7865494  72.3144031
  63.0269764 100.9455436  71.8933828  63.4220012  99.4934997  70.3139988
  62.4602582  99.5608044  69.8214934  63.7901985  98.4787109  70.2207058
  64.6530012 100.0494997  69.5839988  65.4480012 100.8704997  69.9809988
  64.7320012  99.4674997  68.4619988  65.7660012  99.7344997  67.4359988
  65.7604955  98.8238346  66.8562394  66.7376911  99.8569387  67.8920902
  65.4250012 100.9264997  66.5499988  64.6504610 100.5506654  65.9021329
  66.6260012 101.4524997  65.6939988  66.9968752 100.6101243  65.1259696
  67.3792546 101.7429408  66.4156900  66.3120012 102.5764997  64.8009988
  66.0380012 102.1904997  63.3429988  65.8600012 103.5454997  62.6529988
  66.6010012 104.6774997  63.1189988  66.9536120 105.3425182  62.3414353
  67.4762020 104.3776859  63.6881492  65.7190012 105.4134997  64.1049988
  66.2992324 106.2438437  64.4872414  65.4703320 104.7565306  64.9259326
  64.3830012 106.0194997  63.6279988  63.3970012 104.9414997  63.4329988
  63.8395969 104.1776160  62.8085592  62.5359159 105.3633724  62.9363545
  63.1054333 104.5544608  64.3978335  64.0040012 106.9854997  64.7109988
  64.8537511 107.6173008  64.9194848  63.7006390 106.4340504  65.5829191
  63.1819104 107.5803851  64.3400876  64.5920012 106.7964997  62.2689988
  65.3297168 107.5719040  62.4125459  63.6552590 107.2397150  61.9661386
  64.9285466 106.1075574  61.5077296  67.2240012 101.6644997  62.7109988
  64.7580012 101.4454997  63.4079988  64.8960012 101.9874997  67.3199988
  63.7770012 102.5754997  66.9459988  63.1940012 102.3984997  65.8779988
  63.4640012 103.5964997  68.0999988  62.6287235 104.1901751  67.7430481
  63.0843736 103.0263325  68.9442140  64.6720012 104.4844997  68.5209988
  65.3690939 103.8221157  69.0223671  65.1611712 104.7962765  67.6036434
  64.4060012 105.7224997  69.4249988  65.2862687 106.3601129  69.4402458
  63.6110585 106.3138751  68.9773313  64.0080012 105.3674997  70.8169988
  63.7172393 106.2641728  71.3611869  63.1433241 104.7085004  70.8329819
  65.1760012 104.6834997  71.5879988  65.4419263 103.7549219  71.0870715
  66.0531182 105.3244841  71.5233021  64.8910012 104.4044997  73.0359988
  64.2847398 105.2067457  73.4537899  64.3121956 103.4920799  73.1491023
  66.1930012 104.2684997  73.8559988  65.9319114 103.7364527  74.7633786
  66.8419126 103.6041761  73.2868466  66.9400012 105.5134997  74.1619988
  67.1173496 106.2079957  73.3546718  67.4180012 105.8634997  75.4089988
  67.8690430 106.8428753  75.4796718  67.4100012 105.0834997  76.7259988
  66.7019032 104.2602392  76.6481500  68.3728204 104.6359643  76.9459357
  66.9880012 105.9634997  77.8839988  67.1682431 105.4371498  78.8205743
  67.6271272 106.8441848  77.9032478  65.5410012 106.4004997  77.8209988
  65.3332976 106.9804371  76.9217553  64.8561065 105.5572237  77.8034237
  65.2610012 107.2494997  79.0349988  65.4936722 106.6370513  79.9032823
  65.9849811 108.0624789  79.0332972  63.8720012 107.8214997  79.1659988
  63.7312963 108.2174602  80.1699945  63.7430167 108.6651485  78.4935074
  62.7410012 106.7414997  78.9049988  61.7631521 107.1541841  79.1466301
  62.7070766 106.4840621  77.8479231  62.9390012 105.4564997  79.7109988
  63.8834566 105.0057128  79.4165329  63.0660634 105.7588844  80.7481736
  61.8460012 104.4224997  79.6389988  62.0509120 103.5973710  80.3144566
  61.7445589 104.0084627  78.6414899  60.8865330 104.8483997  79.9185895
  57.7540012  38.6034997  83.6299988  57.2224652  38.7133245  84.5701248
  58.3456673  39.5014618  83.4770770  58.4428558  37.7698329  83.7353127
  56.7720012  38.3704997  82.4509988  56.0956308  39.2230651  82.4802949
  56.1869939  37.5062956  82.7538713  57.2780012  38.1864997  81.0399988
  57.5281664  39.1635531  80.6268246  56.4588519  37.8041528  80.4342130
  58.4720012  37.2534997  80.8819988  58.3046860  36.3363979  81.4425165
  59.3727038  37.7014851  81.2988319  58.7210012  36.8874997  79.3949988
  57.8009771  36.4795224  78.9842882  59.4497792  36.0789091  79.3742890
  59.2150012  38.0504997  78.4739988  59.6169395  38.8688916  79.0685550
  58.3888979  38.4673624  77.9018485  60.3400012  37.5264997  77.4689988
  59.9239256  36.8160762  76.7569949  61.1236437  36.9946499  78.0068372
  60.9440012  38.6744997  76.7249988  61.1106853  39.4939734  77.4229459
  60.2221302  39.0382031  75.9960913  62.2300012  38.3504997  76.0269988
  62.0463795  37.5324613  75.3337187  62.9345236  37.9700791  76.7655820
  62.8810012  39.5394997  75.2609988  63.6915586  39.1473234  74.6506764
  63.3420119  40.2077271  75.9878896  61.8630012  40.3754997  74.3489988
  62.3801816  41.2356617  73.9292528  61.0571287  40.7765859  74.9612303
  61.2640012  39.5604997  73.1939988  60.7036622  40.2422996  72.5588704
  60.5350442  38.8737571  73.6202338  62.2620012  38.7554997  72.3529988
  62.5673263  37.8990461  72.9517607  63.1541315  39.3579673  72.2066765
  61.7770012  38.2294997  70.9799988  62.6037592  37.7853629  70.4354268
  61.4225154  39.0671814  70.3852542  60.6310012  37.1914997  71.1029988
  59.8071228  37.6023277  71.6726354  60.9847339  36.2958247  71.5996963
  60.2110012  36.7294997  69.7339988  60.6150012  35.6714997  69.2409988
  59.3240012  37.5074997  69.1589988  59.1970012  37.4404997  67.7099988
  58.4231445  36.7082244  67.5356977  60.0972485  37.1314632  67.1988792
  58.7320012  38.8434997  67.2209988  57.9463882  39.1240067  67.9029241
  58.1940012  38.8404997  65.7729988  58.0400521  39.8476507  65.4100285
  57.2490778  38.3125067  65.7425318  59.1800012  38.1564997  64.9649988
  60.0910012  39.0034997  63.9249988  59.9710012  40.5344997  64.4839988
  60.3380012  41.5504997  63.6479988  61.3057629  41.3526367  63.2058716
  60.4471209  42.4581473  64.2345699  59.2540012  41.9044997  62.5239988
  58.9839906  40.9552425  62.0787413  59.6820029  42.5372535  61.7599215
  57.9550012  42.5554997  62.9199988  57.0060012  41.6484997  63.6929988
  56.8876885  40.7244649  63.1439124  56.0531188  42.1508026  63.7692030
  57.4077863  41.4815833  64.6811407  58.1990012  43.7604997  63.7949988
  58.9373269  44.3866058  63.3179450  58.5300651  43.4300089  64.7632666
  57.2623196  44.2919648  63.8814241  57.3370012  43.0204997  61.6589988
  58.0112624  43.7027184  61.1629833  56.4103339  43.5268715  61.8837771
  57.1392495  42.1720080  61.0199438  61.4540012  38.4854997  63.9739988
  59.4070012  38.9894997  62.5939988  59.8250012  39.8094997  67.3649988
  59.4000012  41.0544997  67.5829988  58.2660012  41.4504997  67.6349988
  60.5500012  41.8854997  67.5309988  61.2457936  41.5272964  68.2827409
  61.0499653  41.7513444  66.5749939  60.1640012  43.3794997  67.7579988
  59.7606386  43.7355758  66.8164206  59.3370696  43.3876039  68.4609579
  61.2610012  44.3444997  68.2319988  62.2163401  43.8364041  68.3360201
  61.4134279  45.1286421  67.4944679  60.8780012  44.9724997  69.5159988
  61.6035265  45.7482821  69.7536553  59.9179549  45.4736274  69.4191271
  60.8100012  43.9914997  70.7039988  59.8060584  43.5777244  70.7732088
  61.4701966  43.1514737  70.4969255  61.2080012  44.6104997  72.0729988
  61.0644556  43.8817028  72.8692090  62.2598549  44.8817449  72.0916467
  60.3440012  45.9054997  72.3849988  60.8032434  46.5055813  73.1619019
  60.2810152  46.5415637  71.5030683  58.9570012  45.4864997  72.7739988
  58.2390145  45.3940640  71.9730588  58.5290012  45.2044997  74.0139988
  57.5070415  44.9397902  74.2445141  59.4680012  45.2264997  75.2439988
  60.4555761  45.5877472  74.9621886  59.1259014  45.8720103  76.0452258
  59.6180012  43.7504997  75.7869988  59.9278210  43.0655142  74.9986387
  60.3880446  43.6979425  76.5542861  58.2720012  43.2754997  76.3839988
  57.8407429  44.0648139  76.9997149  57.5539035  43.0816206  75.5920072
  58.4480012  42.0144997  77.2319988  57.4753083  41.6003265  77.4878782
  58.9674901  41.2435493  76.6655610  59.2350012  42.3204997  78.5039988
  59.6653167  41.4053198  78.9063225  60.0756751  42.9752840  78.2915141
  58.3570012  42.9344997  79.5779988  57.3911555  43.1948117  79.1487403
  58.1553537  42.1884584  80.3445460  58.9570012  44.2134997  80.2719988
  59.0949416  45.0081411  79.5430047  58.2237445  44.5880717  80.9828739
  60.3140012  43.9574997  81.0319988  60.6331231  44.8497826  81.5621510
  61.1129737  43.6797267  80.3528625  60.2085185  43.1593414  81.7613531
  77.9400012 104.5754997  79.8749988  77.1712173 105.2936182  80.1427788
  78.8714260 104.9030082  80.3277415  77.6731789 103.6228277  80.3242583
  78.0750012 104.4504997  78.3809988  78.3106946 105.4295029  77.9672304
  77.1088958 104.1700743  77.9701263  79.1420012 103.4504997  77.9429988
  78.8524779 102.4873643  78.3630886  80.0534794 103.7429936  78.4605176
  79.4670012 103.2744997  76.4349988  79.9534191 102.3044672  76.3596028
  80.2329035 104.0142871  76.2073716  78.3530012 103.3504997  75.3739988
  77.8733868 104.3240491  75.4351908  77.5902959 102.6174504  75.6314564
  78.8140012 103.1144997  73.9339988  77.9692899 103.0684912  73.2490439
  79.3382161 102.1664056  73.8345339  79.7830012 104.2984997  73.4949988
  80.6727316 104.2414176  74.1194115  79.2910129 105.2357583  73.7513654
  80.2010012 104.3334997  72.0209988  80.9152419 103.5174706  71.9189807
  80.7738800 105.2533242  71.9189366  79.1260012 104.2464997  70.8349988
  78.3808402 105.0326967  70.9358466  78.5811989 103.3043126  70.8802870
  79.8150012 104.3694997  69.4629988  80.7113196 103.7531683  69.4560730
  80.1493092 105.3960504  69.3151452  78.8780012 103.9614997  68.2859988
  79.3953067 104.1490726  67.3475147  78.0008413 104.6062476  68.2816744
  78.4260012 102.4884997  68.3049988  77.6662883 102.3425026  69.0690277
  79.2649835 101.8544032  68.5855345  77.8890012 102.0194997  66.9169988
  77.4805470 101.0157093  67.0210277  78.7051334 101.9434668  66.2039621
  76.8150012 102.8994997  66.3409988  76.4312638 102.4426538  65.4346972
  77.2749170 103.8398110  66.0487934  75.6410012 103.2024997  67.2919988
  76.0041322 103.6290589  68.2184026  75.0943142 102.2946673  67.5179253
  74.6710012 104.3704997  66.9049988  74.2220012 105.0914997  67.7459988
  74.6830012 104.5644997  65.6059988  74.2440012 105.7084997  64.9629988
  73.6789393 106.2597764  65.6993825  73.5812363 105.4002188  64.1674501
  75.4070012 106.5814997  64.4119988  74.9948239 107.4798168  63.9830114
  76.2350012 105.8264997  63.3519988  75.5544996 105.4269190  62.6123678
  76.7120791 105.0014719  63.8661104  77.2150012 106.6594997  62.7309988
  78.5790012 106.0474997  62.1709988  79.0410012 105.1284997  63.4249988
  79.4840012 105.5704997  64.6159988  79.1997859 104.8759588  65.3957575
  78.9754560 106.5048636  64.8354136  81.0160012 105.9074997  64.6919988
  81.2924076 106.3022774  65.6615342  81.2255127 106.6546920  63.9402106
  82.0250012 104.7074997  64.4089988  81.7940012 103.7144997  65.5149988
  81.8479315 104.2337502  66.4619964  82.5749059 102.9704509  65.4632386
  80.8338749 103.2430832  65.3678898  81.8280012 104.0994997  63.1079988
  81.8029747 104.8813892  62.3645363  80.9114048 103.5372605  63.1184031
  82.6671348 103.4432667  62.9276934  83.4180012 105.2674997  64.5319988
  83.5394756 106.0766355  63.8272824  84.1337607 104.4886661  64.3157662
  83.5728951 105.6315091  65.5374539  78.3740012 105.2514997  60.9449988
  79.4830012 107.2444997  62.0379988  76.2610012 106.9314997  65.4889988
  75.8280012 107.8774997  66.3249988  74.9040012 108.6334997  66.2029988
  76.5820012 107.8004997  67.6539988  76.7730212 106.7477047  67.8347947
  77.5575046 108.2606678  67.5178174  75.8390012 108.4374997  68.7869988
  76.6192687 108.8134278  69.4396255  75.3660867 109.3114050  68.3503360
  74.7650012 107.6154997  69.6669988  74.2995804 108.3411104  70.3292121
  73.9943563 107.3084317  68.9642323  75.2130012 106.3924997  70.4629988
  75.3428333 105.5300000  69.8118890  76.1668327 106.5421438  70.9630128
  74.1510012 106.0474997  71.5149988  74.0591933 106.8478976  72.2463233
  73.1760575 105.9582060  71.0397173  74.4580012 104.7674997  72.2179988
  73.5041251 104.2591256  72.3498214  75.0394327 104.1557911  71.5338439
  75.2230012 104.8314997  73.6249988  75.7603978 103.8967097  73.7343266
  75.9785006 105.6104632  73.5312846  74.3810012 105.1204997  74.8429988
  73.7754175 104.2852906  75.1611940  74.2960012 106.2944997  75.5999988
  73.6465856 106.3676183  76.4605353  75.0910012 107.5674997  75.3089988
  75.5901293 107.5452998  74.3417349  74.5434894 108.5026438  75.3466466
  76.2060012 107.5614997  76.4449988  76.7512618 106.6184585  76.4533161
  76.9450830 108.3374295  76.2548675  75.5530012 107.8034997  77.8579988
  74.8423789 108.6193834  77.7258751  74.9621723 106.9192663  78.0806119
  76.4590012 108.1154997  79.0349988  77.2886482 107.4120914  79.0418984
  76.8985659 109.1031718  78.9070475  75.7290012 108.0634997  80.3539988
  74.9262838 108.7983719  80.3680531  75.2504069 107.0984912  80.4965864
  76.6270012 108.3524997  81.4839988  77.3319407 107.5305448  81.5950553
  77.2230760 109.2307773  81.2428409  75.9490012 108.5844997  82.8099988
  76.6810716 108.9403331  83.5306723  75.2461580 109.4034087  82.6732053
  75.1970012 107.3824997  83.3969988  74.6690239 107.6633521  84.3033270
  75.8680857 106.5688421  83.6506675  74.4642861 106.9985147  82.6928502
  54.6220012  43.9774997  81.4589988  55.0146252  44.9839580  81.3526178
  55.4623216  43.2897260  81.4341207  54.1652826  43.9031820  82.4421046
  53.5870012  43.6484997  80.3309988  54.0808523  43.7726421  79.3687604
  52.8009909  44.3978435  80.3695436  52.9570012  42.1904997  80.4109988
  52.4159264  42.0840134  81.3511199  53.7670641  41.4647239  80.4459075
  52.0300012  41.8264997  79.2519988  51.2248762  42.5579467  79.2549957
  51.5689284  40.8697008  79.4921108  52.6250012  41.7624997  77.8499988
  53.4315530  41.0338539  77.8389327  53.0808008  42.7261714  77.6287557
  51.6150012  41.4084997  76.7349988  50.8856664  42.2143771  76.6762683
  51.0657432  40.5234929  77.0490939  52.1950012  41.1724997  75.3879988
  52.9296074  40.3771332  75.4998726  52.7551691  42.0696972  75.1282326
  51.2120012  40.8114997  74.2059988  50.8744702  39.7912054  74.3835474
  51.8134427  40.7792038  73.2994068  49.9970012  41.7114997  73.9729988
  50.3612272  42.7339280  74.0473009  49.3408739  41.5600432  74.8292318
  49.2020012  41.5564997  72.7049988  48.2672060  41.0728176  72.9797873
  49.7396507  40.8468857  72.0766597  48.9160012  42.8334997  71.8949988
  48.5229626  43.5712609  72.5912530  48.1066774  42.6109634  71.2017451
  50.0910012  43.4734997  71.1189988  50.5078156  42.6766700  70.5078137
  50.8430312  43.7047397  71.8710951  49.8600012  44.6824997  70.2929988
  49.9774692  45.5785072  70.9001427  48.8481889  44.7127862  69.8985463
  50.8590012  44.7674997  69.1219988  50.7954793  43.8714165  68.5134390
  51.8681632  44.8039724  69.5236874  50.6390012  46.0214997  68.2149988
  50.6650823  46.9271132  68.8076411  49.6801736  45.9613361  67.7139009
  51.9490012  46.2784997  67.4929988  52.8940012  46.8354997  68.0179988
  51.9090012  45.6624997  66.3559988  53.2120012  45.7414997  65.6519988
  53.7981334  46.3319410  66.3399596  53.1177222  46.2770612  64.7184693
  53.8840012  44.3364997  65.4299988  54.7474089  44.5514978  64.8223831
  52.9570012  43.3354997  64.6929988  53.4858531  42.4040802  64.5427510
  52.7236264  43.7619458  63.7253909  51.7650012  43.1164997  65.4389988
  50.6610012  42.1744997  64.8519988  50.1640012  43.0304997  63.6069988
  49.5130012  44.2694997  64.0119988  49.3510587  44.3679141  65.0774931
  48.5406827  44.3816378  63.5410224  50.3850012  45.4694997  63.4559988
  51.3497345  45.1776245  63.8514067  50.1202609  46.4345562  63.8633752
  50.5960012  45.6874997  61.9789988  49.3830012  46.2734997  61.3289988
  48.5240094  45.6737355  61.5968608  49.5296970  46.2414796  60.2596274
  49.2744496  47.2988135  61.6494126  51.7190012  46.7554997  61.8339988
  52.5542498  46.4604295  62.4504461  51.3318184  47.7143401  62.1290995
  52.0139337  46.7751037  60.7948032  51.1180012  44.4414997  61.3369988
  52.0455543  44.1584898  61.8120067  51.2910179  44.6287563  60.2878800
  50.3931463  43.6479075  61.4475969  51.2860012  40.9004997  64.4549988
  49.6130012  42.0254997  65.8789988  54.3500012  43.7634997  66.7039988
  55.1410012  44.4254997  67.5329988  55.7410012  45.4684997  67.2969988
  54.9930012  43.6754997  68.8069988  53.9544785  43.7360587  69.1157968
  55.1935314  42.6196098  68.6433187  55.9340012  44.2564997  69.8549988
  56.0086266  43.5208316  70.6482733  56.9203460  44.3145627  69.4057932
  55.5730012  45.5584997  70.4379988  56.4857967  45.9978178  70.8322802
  55.2669699  46.1897555  69.6073809  54.4570012  45.5874997  71.5199988
  53.4885876  45.3443084  71.0867099  54.6240409  44.8653112  72.3154506
  54.3730012  46.9754997  72.1279988  55.3473483  47.4595799  72.1133357
  53.7152969  47.6003329  71.5268418  53.8370012  46.9454997  73.5779988
  54.5661011  46.4406182  74.2098286  53.7493434  47.9586254  73.9603733
  52.4680012  46.2444997  73.7179988  52.5804482  45.1874789  73.5067105
  52.1405558  46.3170022  74.7542752  51.4710012  46.8334997  72.8819988
  51.6094661  46.5515923  71.8490856  50.3980012  47.6594997  73.1719988
  49.7601359  47.9499905  72.3495919  49.9670012  48.2374997  74.5379988
  50.8799935  48.3040769  75.1272640  49.6286297  49.2564153  74.3863523
  48.9250012  47.4724997  75.3549988  48.6274492  48.0939065  76.1988124
  48.0376341  47.3572120  74.7355252  49.3660012  46.0964997  75.8639988
  49.1076307  45.3276941  75.1357889  50.4460680  46.0581832  75.9757640
  48.7050012  45.7664997  77.1989988  49.0346716  46.4845997  77.9465245
  47.6266852  45.8892858  77.1138915  49.0140012  44.3474997  77.6679988
  48.7043437  43.6580246  76.8848472  50.0914182  44.2354240  77.7530668
  48.3490012  43.9214997  78.9489988  47.2697854  43.9222364  78.8069574
  48.6244346  42.8905153  79.1635718  48.6860012  44.7954997  80.2009988
  49.7607931  44.8140974  80.3634531  48.4026566  45.8217486  79.9777458
  48.0040012  44.3734997  81.4519988  48.2111759  45.0709454  82.2580491
  48.3292344  43.3919365  81.7798678  46.9268786  44.3357658  81.3158955
  77.2350012  44.4664997  79.6239988  77.0138648  45.4896122  79.9116938
  77.3525671  43.8846185  80.5336045  76.3694830  44.0777130  79.0945319
  78.4660012  44.3944997  78.7709988  79.3006493  44.8216232  79.3242898
  78.3194463  45.0294689  77.9014301  78.8290012  42.9724997  78.3299988
  78.8713615  42.3384439  79.2154974  79.8404111  42.9980786  77.9292910
  77.8990012  42.3174997  77.2759988  76.8934631  42.7117830  77.4051646
  77.8300647  41.2476176  77.4665402  78.3250012  42.5434997  75.8499988
  79.3236386  42.1311556  75.7305475  78.4201251  43.6192611  75.7119632
  77.4090012  41.9664997  74.7449988  77.2483425  40.9062129  74.9315401
  77.9191139  42.0327866  73.7863706  76.0680012  42.6664997  74.6469988
  76.2618493  43.7339144  74.5585752  75.5563729  42.5279883  75.5984614
  75.1450012  42.2244997  73.5079988  74.5297481  41.3927567  73.8487603
  75.7473738  41.8404604  72.6868136  74.2310012  43.3524997  72.9839988
  74.8062985  44.2550830  72.7892748  73.4854800  43.6229397  73.7307500
  73.5170012  42.9114997  71.6879988  74.2418143  42.5346955  70.9696927
  73.0309026  43.7632332  71.2129334  72.4490012  41.8164997  71.9929988
  71.8121775  42.1562520  72.8069797  72.9379271  40.9114708  72.3493724
  71.5350012  41.4624997  70.7639988  71.3894017  42.3808265  70.2003539
  70.5596011  41.1946704  71.1659095  72.0150012  40.3174997  69.8129988
  71.1487502  39.9496829  69.2656670  72.3772050  39.4824221  70.4060652
  73.0900012  40.7084997  68.7899988  73.4264557  39.8223547  68.2618979
  73.9491349  41.0982582  69.3295073  72.6370012  41.7564997  67.7749988
  72.2652759  42.6383836  68.2811035  71.8490811  41.3578871  67.1470187
  73.3040012  43.1244997  67.7669988  73.8100012  43.6254997  68.7479988
  73.5620012  43.4624997  66.5069988  74.1610012  44.7034997  66.2979988
  74.2601104  45.1226226  67.2879358  73.5288369  45.3471491  65.7036287
  75.5370012  44.5394997  65.6519988  75.9079970  45.5476247  65.5686919
  75.5160012  43.8654997  64.2479988  75.3097151  44.6516765  63.5344352
  74.6675646  43.1933351  64.2785783  76.7110012  43.1494997  63.8779988
  76.6470012  42.2324997  62.5249988  76.2780012  40.7874997  63.0849988
  76.9560012  40.1234997  64.1609988  77.4727636  40.8089478  64.8200180
  77.7093763  39.4466458  63.7684536  75.9620012  39.2124997  64.9629988
  75.2430043  39.9108050  65.3724645  76.4402192  38.6885662  65.7779701
  75.1360012  38.1554997  64.2079988  74.3750012  37.2234997  65.1009988
  75.0561890  36.8157156  65.8351849  73.9787249  36.4260648  64.4901282
  73.5625480  37.7650010  65.5618817  74.1070012  38.8194997  63.3149988
  74.6021376  39.5751722  62.7246489  73.3321898  39.2443144  63.9278363
  73.6972018  38.0552093  62.6706218  76.0060012  37.3204997  63.2229988
  76.4755517  37.9846018  62.5126660  75.3744169  36.6185735  62.6995000
  76.7622321  36.7828511  63.7766085  75.6130012  42.8024997  61.6889988
  78.0330012  42.2104997  62.0329988  76.4110012  43.7844997  66.5059988
  77.1720012  44.3064997  67.4899988  77.1690012  45.5004997  67.8139988
  77.9970012  43.1824997  68.0839988  77.5942582  42.2163501  67.7978064
  79.0274102  43.1896822  67.7374261  77.9220012  43.4104997  69.6079988
  78.7062998  44.0914469  69.9198442  76.9853689  43.8871238  69.8792596
  78.0760012  42.0634997  70.3839988  77.8637085  42.1986225  71.4415089
  77.3478139  41.3437886  70.0181787  79.4780012  41.4754997  70.2009988
  79.7687126  41.4856367  69.1521470  80.2408963  42.0384129  70.7332785
  79.5000012  40.0224997  70.6939988  80.5162392  39.7542510  70.9754307
  78.9068951  39.9590849  71.6042651  78.9610012  38.9924997  69.6819988
  78.5987935  39.5155165  68.7982793  79.7617550  38.3399777  69.3453589
  77.8310012  38.1264997  70.2579988  77.9502163  37.1697637  69.7629998
  78.1192800  37.9723148  71.2969734  76.3880012  38.5854997  70.2189988
  76.0048907  38.7497535  69.2231067  75.5540012  38.7934997  71.2289988
  74.5297693  39.0993032  71.0707482  75.9260012  38.6274997  72.6699988
  76.6188210  37.7907431  72.7411340  76.4616843  39.4969387  73.0344165
  74.7520012  38.3464997  73.5749988  73.9711132  39.0928851  73.4341878
  74.3052121  37.3879905  73.3179020  75.1820012  38.3244997  75.0569988
  75.8778825  37.5029826  75.2271926  75.7197868  39.2347953  75.3073036
  73.9610012  38.1664997  76.0069988  73.3496955  39.0627006  75.9277883
  73.3430417  37.3442144  75.6505468  74.3490012  37.9094997  77.5189988
  73.4398870  37.6069424  78.0352938  75.0077358  37.0458470  77.5472435
  74.9730012  39.0724997  78.3039988  75.7359405  39.5606064  77.7002121
  74.2165753  39.8292405  78.5039919  75.5980012  38.6534997  79.6269988
  76.5586010  38.1936606  79.4085704  75.8253526  39.5786172  80.1521481
  74.7750012  37.7164997  80.5869988  75.3000769  37.5700842  81.5261084
  74.6075309  36.7369295  80.1521000  73.8038490  38.1468405  80.8146197
  97.2440012  41.5774997  80.7609988  96.5867536  40.7150910  80.8130172
  96.7550428  42.3983204  81.2776834  98.1498586  41.3362044  81.3103720
  97.5640012  41.9494997  79.3019988  96.6681984  42.2000516  78.7363451
  98.0421284  41.1315563  78.7698551  98.5140012  43.1954997  79.3409988
  99.5051984  42.9609229  79.7288529  98.1222132  43.9880850  79.9754132
  98.6470012  43.7444997  77.8909988  97.6381565  43.9714294  77.5533817
  98.9962690  42.9235068  77.2667482  99.5430012  44.9904997  77.6509988
  99.6954181  45.5371241  78.5781146  99.0439142  45.6776182  76.9697166
 100.9080012  44.6064997  77.0709988 101.2968428  43.8004254  77.6905660
 101.5676198  45.4570478  77.2292652 100.9680012  44.1914997  75.6129988
 100.4630247  43.2322833  75.5146487 102.0113475  44.0138317  75.3559142
 100.3900012  45.1424997  74.6589988 100.6485722  46.1500930  74.9820277
  99.3055248  45.0727114  74.7200286 100.8120012  44.9574997  73.2529988
 100.5009613  43.9999528  72.8408105 101.8927409  45.0061106  73.1256580
 100.1280012  46.1414997  72.4189988 100.6615852  47.0631942  72.6405078
  99.1123746  46.2803922  72.7886480 100.0850012  45.9084997  70.8869988
  99.6174633  46.7982958  70.4708110  99.3810898  45.0938222  70.7259474
 101.3990012  45.6214997  70.0859988 101.9943575  44.9488102  70.6985823
 101.9450479  46.5623137  70.0489610 101.2710012  45.0394997  68.5839988
 101.1215055  45.8800076  67.9083883 100.3781163  44.4253229  68.5077269
 102.4910012  44.2254997  68.0729988 102.0997677  43.6727823  67.2251870
 102.6553511  43.5046948  68.8695673 103.8680012  44.8594997  67.6829988
 104.2620891  45.4444221  68.5043400 103.7556109  45.5042296  66.8194243
 104.6620012  43.6524997  67.0659988 104.8490012  42.6044997  67.6259988
 104.9590012  44.0084997  65.8089988 105.7070012  43.1174997  65.0339988
 106.2275114  42.4249663  65.6781483 106.4284247  43.7582759  64.5480503
 104.8580012  42.3464997  63.9909988 105.5132376  41.7827911  63.3477323
 104.0230012  43.3044997  63.1639988 104.6514671  44.1318815  62.8635478
 103.2451931  43.6791418  63.8176370 103.4510012  42.6734997  62.0229988
 101.8150012  42.6234997  61.9769988 101.4930012  42.3234997  63.5399988
 100.1870012  42.0624997  63.9569988 100.0401956  41.0379817  64.2732267
  99.4897324  42.2363642  63.1425146  99.7600012  43.0694997  65.0879988
 100.4715685  42.9747281  65.8985166  98.7755735  42.8242643  65.4596689
  99.7200012  44.5294997  64.7489988 101.0810012  45.1324997  64.5969988
 101.6684898  44.8832589  65.4699651 100.9651402  46.2040620  64.5304372
 101.5302187  44.7594029  63.6888582  98.8710012  44.7994997  63.5109988
  97.9197324  44.3046565  63.6331955  99.3927059  44.4397161  62.6422353
  98.7270904  45.8682379  63.4447778  98.9630012  45.2184997  65.9099988
  97.9774232  44.7861035  65.9980416  98.8777027  46.2742351  65.7007219
  99.5089126  45.0758065  66.8314402 101.3710012  43.9824997  61.6219988
 101.3240012  41.4334997  61.2069988 103.8330012  41.4734997  64.6379988
 104.3430012  40.3944997  65.3109988 105.4550012  40.1224997  65.5799988
 103.0740012  39.6764997  65.8609988 102.3565706  39.6704868  65.0468672
 103.3296361  38.6350720  66.0398453 102.4850012  40.3484997  67.1619988
 102.5443623  41.4309812  67.1342309 101.4405417  40.1095688  67.3353465
 103.3730012  39.8074997  68.3729988 103.4161070  38.7213412  68.3655368
 104.3976377  40.1523356  68.2577899 102.8140012  40.3264997  69.7859988
 102.8863623  41.4124292  69.7709377 101.7533339  40.0932933  69.8389300
 103.4810012  39.8274997  71.0289988 103.2642977  38.7692357  71.1594515
 104.5591675  39.9023712  70.9012000 103.0730012  40.6094997  72.3349988
 102.0607337  40.3151616  72.6077270 103.7137367  40.3011814  73.1564096
 103.1420012  42.1864997  72.2029988 102.3501065  42.5358421  71.5507390
 102.9566308  42.6352128  73.1780066 104.4850012  42.6404997  71.7139988
 104.5930443  42.5053541  70.6483457 105.5160012  43.1734997  72.3649988
 106.4363014  43.5002326  71.9025023 105.4730012  43.3764997  73.8739988
 104.6290707  42.8082007  74.2613471 106.3584733  42.9635019  74.3441614
 105.3080012  44.8024997  74.2919988 105.8542165  45.4590733  73.6157851
 104.2607580  45.0875058  74.2112997 105.7840012  45.0374997  75.7269988
 106.7435963  44.5405065  75.8694135 105.9652616  46.0976334  75.8811580
 104.7580012  44.5134997  76.8159988 103.9225223  45.2072608  76.8777687
 104.3397438  43.5614694  76.4938434 105.4150012  44.3374997  78.2329988
 106.0338785  43.4425401  78.2079341 106.0974261  45.1654941  78.4043071
 104.4190012  44.2024997  79.4409988 103.8603237  45.1350099  79.4974545
 103.6972863  43.4342978  79.1692866 104.9630012  43.8844997  80.8149988
 105.4408033  42.9085332  80.8483096 105.7368929  44.6020167  81.0787673
 103.8430012  43.9464997  81.8819988 104.2513597  43.8048031  82.8781084
 103.0918880  43.1794340  81.7264987 103.3399579  44.9091966  81.8645879
  43.9840012  99.0234997  81.0699988  43.7025199  99.1795258  82.1067500
  44.7811573  98.2859678  81.0505338  43.1276612  98.5957275  80.5558928
  44.4160012 100.3074997  80.4229988  45.2342767 100.6911398  81.0299982
  43.5874924 100.9978956  80.5561931  44.8540012 100.2804997  78.9349988
  45.3846158  99.3547905  78.7126484  45.5616905 101.0856615  78.7477520
  43.6680012 100.4344997  77.9589988  44.0387481 100.7529138  76.9871916
  42.9994133 101.2234906  78.2998647  42.8690012  99.1324997  77.7779988
  41.8874329  99.3692632  77.3754571  42.6989939  98.6959570  78.7607973
  43.5260012  98.1144997  76.8909988  44.5129806  97.8501894  77.2662701
  43.6775298  98.5102078  75.8889852  42.6790012  96.8794997  76.8119988
  41.6498737  97.1336806  76.5648979  42.6444550  96.3740734  77.7761465
  43.2240012  95.9254997  75.7659988  44.2102388  95.6097056  76.1037270
  43.3843784  96.5027544  74.8572963  42.3850012  94.6914997  75.4369988
  41.4206106  95.0377688  75.0714998  42.1856651  94.1699931  76.3723452
  42.9850012  93.7104997  74.4309988  42.1845663  92.9932275  74.2632975
  43.7516866  93.1848739  74.9996287  43.5790012  94.1664997  73.0779988
  43.9550153  93.2844055  72.5641269  44.4462850  94.7944880  73.2744099
  42.6240012  94.9044997  72.1339988  41.9651116  95.5354563  72.7255875
  41.9852841  94.1690252  71.6484189  43.3650012  95.7894997  70.9849988
  43.7512047  95.1200393  70.2182383  44.2261439  96.3057524  71.3999571
  42.4150012  96.8514997  70.2759988  43.0422797  97.6141950  69.8263740
  41.8433942  97.3376519  71.0621371  41.4130012  96.3024997  69.1949988
  40.7983186  95.5154694  69.6130775  41.9551066  95.9058105  68.3448056
  40.3380012  97.3854997  68.9409988  39.1650012  97.3054997  69.3329988
  40.8660012  98.4194997  68.3489988  39.9840012  99.4214997  67.8709988
  39.7413653  99.9090695  68.8031283  39.0756931  99.0477358  67.4210333
  40.7160012 100.4194997  66.9109988  40.0586483 101.2687302  66.8238854
  40.9700012  99.8034997  65.5099988  39.9872585  99.5519582  65.1348391
  41.5005284  98.8867493  65.7351537  41.6860012 100.5664997  64.5529988
  43.1490012 100.1294997  63.9369988  42.9630012  98.7254997  63.1609988
  41.8060012  98.3034997  62.4309988  41.9726415  98.3389228  61.3622775
  40.9845246  98.9834965  62.6373421  41.3180012  96.9634997  62.8509988
  40.7186991  96.4684831  62.0973114  40.7086075  97.1248199  63.7284908
  42.4030012  95.9364997  63.2689988  43.5820012  95.9744997  62.2939988
  43.1997201  95.8856566  61.2863768  44.2240960  95.1347962  62.5147077
  44.1268995  96.8953015  62.4386599  42.7480012  96.2154997  64.6309988
  41.8383641  96.2856302  65.2075022  43.3100468  97.1314339  64.6702311
  43.3499174  95.3919320  64.9869906  41.6470012  94.4884997  63.0579988
  40.7564830  94.4600648  63.6681224  42.3144481  93.6933625  63.3545141
  41.3817531  94.3683740  62.0174949  43.5750012 101.1364997  62.9169988
  44.0730012  99.9344997  65.0789988  41.8520012 100.8924997  67.5799988
  41.7220012 101.6994997  68.6649988  40.7660012 102.3904997  68.9799988
  43.1390012 101.6994997  69.2569988  43.8706561 101.6193122  68.4596255
  43.3604111 102.6314235  69.7711997  43.2090012 100.4744997  70.2469988
  42.7437087  99.6394871  69.7348288  44.2569331 100.2136333  70.3557203
  42.5650012 100.6364997  71.6329988  43.1039413 100.0647204  72.3841752
  42.6186808 101.6759953  71.9470567  41.0840012 100.2074997  71.6039988
  40.6677216 100.3634216  70.6104669  40.9639799  99.1488851  71.8210982
  40.2700012 100.9994997  72.5869988  40.4228437 102.0727114  72.4934208
  39.2026185 100.8329629  72.4553148  40.6710012 100.5444997  74.0179988
  41.7223448 100.8023539  74.1358490  40.1224890 101.1649012  74.7212444
  40.4630012  99.0624997  74.3999988  41.1969568  98.4873571  73.8476400
  40.7310222  98.9723133  75.4518434  39.1020012  98.5134997  74.2099988
  38.7499759  98.4760056  73.1900839  38.2610012  98.0434997  75.1749988
  37.2729850  97.6732115  74.9419309  38.6050012  97.9854997  76.6209988
  37.8648157  97.3834321  77.1452707  39.5643373  97.5146082  76.8043467
  38.6020012  99.3464997  77.2149988  39.3940260  99.9536085  76.7781686
  37.6672191  99.8501323  76.9762612  38.7740012  99.2994997  78.7339988
  37.9348155  98.7708966  79.1861638  39.6650704  98.7363881  78.9974470
  38.8690012 100.7734997  79.3599988  39.9103096 101.0867152  79.3867911
  38.3542633 101.4833917  78.7148760  38.2620012 100.8414997  80.7769988
  38.4033428 101.8353817  81.1974878  37.1876352 100.6818624  80.7473555
  38.9280012  99.8134997  81.7419988  38.8267119  98.8222542  81.3037569
  39.9957767 100.0228722  81.7711979  38.3990012  99.7654997  83.1909988
  37.3133364  99.8171432  83.1669148  38.6397679  98.7775353  83.5773545
  38.9470012 100.8364997  84.1799988  38.5784955 100.6570025  85.1855102
  38.6467699 101.8400680  83.8981251  40.0325077 100.8149412  84.2167657
  26.6900012  75.2684997  81.4319988  26.1603384  74.3491415  81.2025059
  26.3497704  76.0295200  80.7356647  26.3940453  75.5800521  82.4299753
  28.1870012  75.0764997  81.3439988  28.4186760  74.7264639  80.3395065
  28.4517247  74.2663707  82.0181104  29.0550012  76.3494997  81.6609988
  29.0483432  76.5701307  82.7283350  28.6326506  77.2240296  81.1700931
  30.4850012  76.1814997  81.1949988  30.8714280  75.2128511  81.5042629
  31.1371693  76.9254335  81.6499111  30.5820012  76.2814997  79.7099988
  30.1243348  77.2167636  79.3979157  29.9712528  75.4860979  79.2861032
  32.0280012  76.1984997  79.1099988  32.5815610  75.4218623  79.6346157
  32.5472856  77.1325288  79.3137396  32.0660012  75.9154997  77.5929988
  31.2283028  76.4279364  77.1234882  31.8989811  74.8509787  77.4344758
  33.3590012  76.3294997  76.9029988  33.3087535  75.9288241  75.8913737
  34.1613351  75.7907858  77.4037298  33.7170012  77.8324997  76.8389988
  34.7045491  77.8923966  76.3865582  33.8349516  78.1633921  77.8701025
  32.7780012  78.7724997  76.1179988  33.1401964  79.7642808  76.3796928
  31.8231490  78.6516109  76.6289510  32.5510012  78.6764997  74.5789988
  31.5986133  79.1226803  74.3007520  32.5093243  77.6416162  74.2437267
  33.6740012  79.4134997  73.8179988  34.6552536  79.2242678  74.2464308
  33.5345418  80.4926709  73.8427086  33.6380012  78.9594997  72.3929988
  33.8003034  77.8829968  72.3858128  34.4772204  79.3972571  71.8597507
  32.3680012  79.2434997  71.6299988  31.8091207  80.0094053  72.1576219
  31.7630588  78.3409346  71.6526498  32.5610012  79.6894997  70.1039988
  33.1457096  78.9545702  69.5654492  33.0695321  80.6448539  70.0514287
  32.5520012  78.3464997  69.2459988  32.6700012  77.2864997  69.7419988
  32.1800012  78.6674997  68.0129988  32.0230012  77.6524997  66.9749988
  32.9472866  77.1158063  67.1270473  31.9944979  78.0268227  65.9619529
  30.7790012  76.7024997  67.2669988  30.8886086  76.2595439  68.2430471
  30.6770012  75.6094997  66.2109988  30.8926727  74.6810917  66.7222184
  31.4873590  75.8245624  65.5256862  29.4720012  75.5174997  65.5229988
  29.0360012  76.4814997  64.2839988  30.2420012  77.4764997  64.1589988
  29.8040012  78.6834997  63.5309988  29.0345411  79.1420244  64.1383498
  29.3319791  78.4076197  62.5924454  30.9120012  79.7254997  63.1439988
  31.1541266  80.1769885  64.0978237  30.6324485  80.5061055  62.4512637
  32.2560012  79.1294997  62.6009988  32.0760012  78.4584997  61.2259988
  31.2492542  77.7641022  61.2862945  32.9847575  77.9228099  60.9951343
  31.9069844  79.2228676  60.4824317  33.1480012  80.3824997  62.3289988
  33.1348485  81.0097197  63.2071423  32.7686512  80.9032867  61.4680432
  34.1516496  80.0297677  62.1404069  33.0000012  78.2054997  63.5649988
  33.2214770  78.7442248  64.4742873  33.9202983  77.8791442  63.1043522
  32.3838695  77.3467029  63.7892418  28.9860012  75.6484997  63.0859988
  27.7990012  77.2344997  64.7339988  29.6950012  77.6214997  67.4389988
  28.6960012  77.0054997  68.0959988  28.6750012  75.9054997  68.6789988
  27.5200012  77.9414997  67.9419988  27.8670404  78.8160864  67.4014298
  26.7692444  77.4778560  67.3069351  26.9280012  78.3124997  69.3269988
  25.8619246  78.4529842  69.1862653  27.0340214  77.4445571  69.9700138
  27.5150012  79.5604997  70.0279988  28.5998821  79.5247984  70.0864169
  27.2707291  80.4650512  69.4764712  26.9150012  79.6694997  71.4379988
  26.6555166  80.7089897  71.6299212  25.9862009  79.1077639  71.5011252
  27.8870012  79.1794997  72.5849988  28.1413562  78.1428219  72.3740396
  28.8094023  79.7462846  72.4740392  27.4290012  79.2954997  73.9759988
  26.8030710  80.1864963  73.9821179  26.7630842  78.4519340  74.1349630
  28.3900012  79.3624997  75.1079988  27.8195771  79.2765641  76.0255016
  29.0141404  78.4717317  75.0503045  29.3040012  80.6034997  75.1359988
  29.8459291  80.7086521  74.2081997  29.5180012  81.5444997  76.0849988
  30.2236560  82.3423884  75.9032438  28.8770012  81.6094997  77.3729988
  29.0837776  82.6012974  77.7714982  27.8018825  81.5520775  77.2445326
  29.3380012  80.5354997  78.4489988  28.6793057  80.5197361  79.3165106
  29.3185466  79.5291073  78.0351693  30.7310012  80.8604997  78.8859988
  31.3990536  80.7621776  78.0303436  30.7778429  81.9026664  79.1896406
  31.2410012  79.9694997  80.0319988  31.0408244  78.9345499  79.7637576
  32.3239945  80.0656993  80.0863685  30.6320012  80.2824997  81.4169988
  29.5450333  80.2308299  81.3964798  30.9483158  79.5761804  82.1796803
  31.0300012  81.7114997  81.8249988  32.0647835  81.8381375  81.5118353
  30.4409743  82.3773451  81.1968816  30.9040012  82.1654997  83.2479988
  31.6228046  81.6638928  83.8911373  31.1417915  83.2252649  83.3085487
  29.4710012  81.9434997  83.8029988  29.3761665  82.3578824  84.8021796
  29.2178396  80.8903577  83.8625149  28.7291463  82.4260700  83.1729843
 107.9290012  49.1334997  83.7029988 107.9818496  48.5331093  84.6058650
 108.9460697  49.3455528  83.3861470 107.4633868  48.5279344  82.9302724
 107.1360012  50.4344997  83.9409988 107.6402050  50.9379720  84.7641009
 106.1711015  50.1139861  84.3244746 106.9350012  51.4614997  82.7449988
 106.1344586  52.1704764  82.9557418 106.6447365  50.9415640  81.8341835
 108.2090012  52.2164997  82.4779988 109.0213155  51.4971964  82.4005503
 108.4397753  52.8401394  83.3402764 108.1990012  53.0894997  81.2029988
 109.2126849  53.4115207  80.9786761 107.6292791  53.9943681  81.4079254
 107.6260012  52.4064997  79.9929988 106.6171061  52.7510718  79.7734131
 107.5564312  51.3295222  80.1303182 108.5560012  52.7124997  78.7679988
 109.5301578  52.3046895  79.0315887 108.6732621  53.7952123  78.7533993
 108.1710012  52.2324997  77.3829988 107.3056793  52.7944634  77.0339058
 107.8566703  51.1917414  77.4349820 109.3130012  52.3674997  76.3559988
 110.0726354  51.6913953  76.7424955 109.6857799  53.3756818  76.5325821
 109.1510012  52.1394997  74.8169988 108.3867296  52.8391466  74.4858158
 108.7265666  51.1433570  74.6945893 110.3950012  52.2674997  73.9359988
 111.1797781  51.5992679  74.2840396 110.8114662  53.2722949  73.9815105
 110.0660012  51.9084997  72.4369988 109.5298300  52.7092612  71.9334906
 109.4304312  51.0275302  72.3690751 111.3970012  51.6154997  71.7039988
 111.9436165  50.8727253  72.2825746 112.0126740  52.5105952  71.6990033
 111.2640012  51.0944997  70.2749988 110.4313217  51.5773768  69.7741799
 111.0401046  50.0314178  70.3036202 112.5320012  51.3014997  69.4529988
 113.3835710  50.8558033  69.9512202 112.7240141  52.3589495  69.3151587
 112.5380012  50.3474997  68.2679988 113.1760012  49.2734997  68.2659988
 111.9690012  50.9044997  67.2619988 111.8590012  50.0954997  66.0749988
 112.8924921  49.8210305  65.9265904 111.5220298  50.6742022  65.2272101
 110.9630012  48.7904997  66.2679988 111.6086603  48.0843842  66.7633968
 110.4690012  48.1874997  64.8679988 109.8566180  47.3384102  65.1397245
 111.3877883  47.8247922  64.4243114 109.7770012  49.0274997  63.9559988
 109.3640012  48.6094997  62.5229988 108.0510012  49.5154997  62.3029988
 107.6420012  50.5984997  63.0399988 107.0200975  51.2231925  62.4121582
 108.5329464  51.1777353  63.2647203 106.9520012  50.3354997  64.4429988
 106.6898733  51.2858892  64.8905451 107.6391279  49.8205665  65.0988018
 105.6730012  49.5094997  64.4459988 105.9240012  48.1634997  63.9889988
 106.4561772  48.2116967  63.0488926 104.9705675  47.6780521  63.8426944
 106.4870924  47.6361772  64.7443638 105.1860012  49.4194997  65.8139988
 105.1591645  50.4131450  66.2343114 105.8353270  48.7722181  66.3759352
 104.1884592  49.0063334  65.7752611 104.6610012  50.1284997  63.5239988
 104.4613050  51.1405802  63.8432111 103.7492674  49.5513072  63.5592183
 105.0473081  50.1324854  62.5149467 110.4120012  49.1334997  61.6049988
 109.0690012  47.1594997  62.5379988 109.8540012  49.0704997  67.1739988
 109.4540012  47.9534997  67.8239988 110.0520012  46.8494997  67.8799988
 108.1640012  48.2584997  68.6049988 108.2401879  49.2516889  69.0354912
 107.3062178  48.2885556  67.9377571 107.9970012  47.2254997  69.6339988
 107.6522304  46.3364772  69.1174397 108.9890370  46.9904888  70.0063801
 107.0390012  47.5254997  70.8299988 106.8010703  48.5859998  70.8104469
 106.1074013  47.0020712  70.6294761 107.5540012  47.1084997  72.2769988
 106.8754652  47.5970156  72.9738827 107.3752728  46.0406577  72.3768578
 109.0310012  47.4204997  72.7229988 109.8027376  46.9670785  72.1043445
 109.2627311  48.4829629  72.7660586 109.1130012  46.8344997  74.1629988
 108.6819248  47.5675112  74.8431225 108.4792197  45.9539074  74.2195356
 110.5730012  46.4444997  74.6659988 110.3806543  45.8084196  75.5221441
 110.9430576  45.7921212  73.8761845 111.6570012  47.4954997  74.9859988
 112.4557708  47.5187917  74.2600659 111.7320012  48.3654997  76.0059988
 112.5665903  49.0440925  76.1088711 110.6600012  48.5034997  77.1259988
 110.1776126  49.4655787  76.9619064 109.8949310  47.7504215  76.9736114
 111.1410012  48.4514997  78.5719988 111.3175518  47.4190649  78.8713535
 112.1001911  48.9591724  78.6537424 110.0960012  49.1314997  79.5839988
 110.5777705  49.3255906  80.5422962 109.7727165  50.0972888  79.2055251
 108.8640012  48.2284997  79.8079988 108.2080374  48.7402083  80.5087204
 108.3169525  48.1665417  78.8688587 109.1560012  46.8534997  80.2969988
 108.2341547  46.2773438  80.2437674 109.8429448  46.3792305  79.6014399
 109.7070012  46.7424997  81.7499988 110.7194590  47.1394276  81.7975420
 109.1100234  47.3572537  82.4212133 109.7210012  45.2684997  82.3029988
 110.0685628  45.2553794  83.3330200 108.6950544  44.9080965  82.3322527
 110.5840012  44.2684997  81.4459988 110.4858633  43.2546037  81.8221011
 111.6384820  44.5222310  81.4667740 110.2650735  44.2684037  80.4075258
  31.0870012  74.1554997  80.2119988  31.4954103  74.2918909  81.2085069
  30.1277440  74.6636569  80.1746907  31.7509794  74.6546781  79.5115947
  30.9370012  72.6304997  79.8599988  30.3105724  72.2126898  80.6462715
  31.9285034  72.2097138  80.0037924  30.3890012  72.2184997  78.5189988
  30.9688675  72.6525321  77.7045665  29.3722978  72.5856534  78.3937650
  30.3760012  70.6804997  78.3719988  29.6353307  70.2264474  79.0265932
  31.3311760  70.2320573  78.6407858  30.0380012  70.3214997  76.9319988
  29.1613071  70.8749099  76.6053220  29.7713191  69.2672837  76.8783851
  31.2310012  70.6104997  75.9289988  32.1426110  70.2541673  76.4052463
  31.3303872  71.6911456  75.8521622  31.1240012  69.9924997  74.4779988
  30.0835912  70.0926641  74.1742157  31.3092293  68.9242265  74.5815027
  32.0370012  70.5634997  73.3679988  33.0776797  70.3407638  73.6000071
  31.9555735  71.6487031  73.3483261  31.6980012  70.0064997  71.9809988
  30.7235150  70.3614217  71.6524442  31.6315734  68.9195845  72.0089235
  32.7600012  70.4214997  70.9589988  32.4637384  69.9418481  70.0286968
  33.6792496  69.9300079  71.2765631  33.0500012  71.9504997  70.7089988
  33.5277616  72.3523405  71.5999588  32.1007152  72.4746185  70.6126476
  33.9430012  72.2804997  69.4849988  33.3330837  72.1119452  68.6007991
  34.7248425  71.5235704  69.4637333  34.6040012  73.6744997  69.4169988
  35.1641295  73.7665022  70.3460002  33.7954935  74.3977347  69.4763320
  35.5660012  74.0724997  68.2259988  35.5871646  75.1548971  68.1531096
  35.1112927  73.7044519  67.3100986  37.0460012  73.5284997  68.3059988
  37.0484962  72.4511902  68.4129524  37.5626386  73.9632753  69.1534212
  37.1760012  72.2734997  67.4929988  37.5380012  71.2064997  67.9889988
  36.8080012  72.4754997  66.2289988  36.7660012  71.5444997  65.1779988
  37.6945606  71.0040949  65.2838390  36.7669654  72.0664267  64.2320690
  35.5170012  70.5324997  65.2769988  35.6754729  69.7520281  64.5512958
  34.2200012  71.2544997  64.9809988  34.4493849  72.1574859  64.4316355
  33.7933788  71.5292947  65.9375896  33.2730012  70.4094997  64.2169988
  32.9580012  70.7394997  62.6369988  31.5710012  69.9304997  62.4519988
  30.4510012  70.2844997  63.1859988  29.9038416  71.0969178  62.7258009
  30.7560869  70.6356741  64.1675263  29.5060012  69.0494997  63.4629988
  29.1929251  68.6364824  62.5123942  28.6293908  69.3650003  64.0101647
  30.1020012  67.8634997  64.2619988  31.0210012  67.0764997  63.3809988
  30.4991122  66.8359567  62.4649720  31.2822935  66.1665204  63.9003870
  31.9122996  67.6572532  63.1965281  30.8350012  68.3364997  65.4829988
  30.1953423  69.0160819  66.0249568  31.7496112  68.8142505  65.1803231
  31.0495672  67.4673878  66.0878979  28.9760012  66.9754997  64.7399988
  28.3005627  67.5555856  65.3510350  29.3865814  66.1651748  65.3234776
  28.4461191  66.5747952  63.8878861  32.7430012  72.1754997  62.4689988
  34.0810012  70.1704997  61.8909988  35.4740012  69.9244997  66.5869988
  34.9200012  68.7114997  66.6139988  34.3930012  68.1204997  65.6769988
  35.0000012  68.1874997  68.0739988  36.0399358  68.2526366  68.3770601
  34.4577475  68.8707026  68.7229223  34.4470012  66.7384997  68.1989988
  33.3942617  66.7923953  67.9442522  34.9162186  66.1541526  67.4138831
  34.6050012  66.0044997  69.5759988  34.3767441  64.9534090  69.4186419
  35.6595774  66.0499873  69.8365074  33.7720012  66.5594997  70.7739988
  33.7993823  67.6472398  70.7461125  32.7264121  66.2791036  70.6723934
  34.2920012  66.0854997  72.1879988  34.3340680  64.9997934  72.2460782
  35.3088804  66.4371687  72.3512977  33.4220012  66.6084997  73.2889988
  33.4080538  67.6965211  73.2475769  32.3954319  66.2830631  73.1455948
  33.8960012  66.1534997  74.6999988  34.1496809  65.1009841  74.6506260
  34.8213100  66.6817387  74.9260809  32.9280012  66.4164997  75.7789988
  31.9660423  65.9526952  75.6206489  33.0930012  67.1584997  76.9569988
  32.3000098  67.2051403  77.6895282  34.2910012  67.9154997  77.3249988
  34.9345141  67.8017090  76.4542728  33.9880656  68.9564257  77.3445954
  35.1520012  67.5894997  78.6279988  34.5017227  67.5618777  79.5015432
  35.5763427  66.5917053  78.5341926  36.2890012  68.6034997  78.8649988
  37.0526681  68.1425025  79.4914184  36.7717018  68.8370503  77.9200341
  35.8110012  69.8924997  79.5229988  35.3337467  70.5114331  78.7664972
  35.0393345  69.6554973  80.2533723  36.9040012  70.6584997  80.1929988
  37.5019120  69.9476910  80.7603114  37.5618787  71.0514459  79.4226641
  36.4820012  71.7774997  81.1399988  37.3369329  72.4223346  81.3353513
  35.7405962  72.4013103  80.6440018  35.9040012  71.3104997  82.4869988
  35.0587812  70.6588210  82.2800372  36.6653935  70.6748117  82.9336480
  35.4960012  72.3574997  83.4929988  35.1894616  71.8959733  84.4268595
  34.6647871  72.9578961  83.1389532  36.3198886  73.0309533  83.7116553
  40.6570012  50.7944997  79.8719988  39.8275187  50.9331939  79.1855938
  41.2621630  51.6961289  79.8468222  40.2454201  50.7026110  80.8733826
  41.5270012  49.4984997  79.4829988  41.8514065  49.6483975  78.4546531
  40.8275508  48.6670966  79.4642356  42.7290012  49.1494997  80.3389988
  42.4320569  48.8419879  81.3415902  43.3757812  50.0149674  80.4686609
  43.5510012  48.0174997  79.6809988  42.8700159  47.1870676  79.5081068
  44.2772135  47.6647210  80.4116620  44.2750012  48.3454997  78.3579988
  45.3322735  48.1073453  78.4418479  44.2168771  49.4168662  78.1731736
  43.6850012  47.5864997  77.1469988  42.6044728  47.7168289  77.1299786
  43.8608131  46.5196538  77.2674445  44.2770012  48.0514997  75.7959988
  45.3203722  47.7430458  75.7643285  44.2814065  49.1406166  75.7900965
  43.5460012  47.5314997  74.5149988  42.4767040  47.6238725  74.7007994
  43.7508807  46.4649680  74.4427584  43.8700012  48.1694997  73.2459988
  44.9093389  47.9557109  73.0059727  43.8038158  49.2493014  73.3733748
  42.9700012  47.7384997  72.0599988  43.1668665  48.4169492  71.2328052
  41.9321799  47.9024927  72.3488972  43.1440012  46.2624997  71.5919988
  43.0402338  45.5464640  72.4044434  44.1089294  46.0587364  71.1309978
  41.9960012  45.9914997  70.5399988  41.7787470  46.9192054  70.0161842
  41.0902445  45.7304106  71.0841563  42.2990012  44.8844997  69.5409988
  42.1420519  43.9279295  70.0365716  43.3500007  44.9167702  69.2678091
  41.4540012  44.9004997  68.2709988  42.0063065  44.4776422  67.4382351
  41.2210586  45.9280294  68.0045173  40.0650012  44.0884997  68.4559988
  39.5116673  44.4723326  69.3036631  40.2621052  43.0353336  68.6174308
  39.0780012  44.1684997  67.2889988  38.8300012  43.2274997  66.5649988
  38.5900012  45.4024997  67.2989988  37.5840012  45.6044997  66.2649988
  36.6968115  45.9781132  66.7536391  37.3496091  44.6721899  65.7719969
  38.1480012  46.7044997  65.1979988  37.3064558  47.0657393  64.6303709
  39.2050012  46.1034997  64.2449988  39.2587681  46.7490678  63.3788856
  38.8054489  45.1447501  63.9388253  40.5060012  45.9394997  64.8309988
  41.7810012  45.5524997  64.1009988  42.3240012  46.8264997  63.3669988
  42.7660012  47.8374997  64.2759988  43.7425761  47.6761609  64.7135604
  42.0762388  47.9737859  65.1039184  42.7220012  49.2034997  63.4679988
  43.5136177  49.1329107  62.7327373  42.8829885  50.0876179  64.0678279
  41.4360012  49.4624997  62.6729988  40.3310012  49.6324997  63.6359988
  40.3394031  48.7967702  64.3221618  39.4041504  49.6388073  63.0819158
  40.4538712  50.5753148  64.1475842  41.6810012  50.8564997  62.0439988
  42.6470865  50.8504682  61.5630032  41.6306018  51.6036484  62.8157491
  40.9035761  51.0218495  61.3121745  41.0510012  48.4414997  61.6289988
  41.8502228  48.3509068  60.9084992  40.1497350  48.7659998  61.1309335
  40.8772256  47.4870971  62.1047643  42.8260012  45.1334997  65.0849988
  41.3750012  44.5814997  63.0699988  38.7410012  47.8084997  65.9129988
  37.9700012  48.7744997  66.3609988  36.8270012  49.0544997  66.0849988
  38.8600012  49.5934997  67.2819988  39.6866960  49.9198271  66.6593921
  38.3078658  50.4939928  67.5392257  39.3230012  48.8944997  68.4879988
  39.6609395  47.8930116  68.2453462  40.1732808  49.3974637  68.9375371
  38.1530012  48.8034997  69.5209988  37.6998683  49.7806372  69.6677192
  37.3703398  48.1633250  69.1213958  38.6130012  48.2314997  70.8639988
  39.1664289  47.3097862  70.6940927  39.2993432  48.9102421  71.3644438
  37.3650012  47.9044997  71.8709988  36.8944128  48.8323570  72.1896339
  36.6040843  47.3513004  71.3238634  37.7720012  47.0874997  73.1089988
  38.8281795  47.2949546  73.2737739  37.2410807  47.5057337  73.9595996
  37.5470012  45.5464997  73.0899988  37.4470092  45.1501534  74.0937374
  36.6215450  45.3022341  72.5701803  38.6650012  44.9134997  72.3799988
  38.9007008  45.2281609  71.3745198  39.4230012  43.9754997  72.9079988
  40.2502192  43.6307997  72.3042586  39.3190012  43.3084997  74.2289988
  38.2767516  43.2885055  74.5429050  39.6480057  42.2756615  74.2028767
  40.1120012  44.0614997  75.2709988  41.1715274  44.0774319  75.0183028
  39.7936608  45.1015353  75.3090015  39.9240012  43.4214997  76.6649988
  38.8619986  43.4696923  76.9056956  40.1693915  42.3661760  76.5838843
  40.7260012  44.0434997  77.8039988  41.7409915  43.7000086  77.6170402
  40.7197684  45.1092604  77.5821876  40.3810012  43.8414997  79.2159988
  39.2972609  43.8136554  79.3125480  40.7329729  42.8659973  79.5402456
  40.9130012  44.9354997  80.1619988  41.9142219  44.6769994  80.5020247
  41.0113560  45.8743759  79.6200839  40.0180012  45.1764997  81.4039988
  39.7386016  44.2297079  81.8594505  40.6078230  45.7019930  82.1518490
  38.7890012  45.9714997  81.1179988  38.2462855  46.1850700  82.0339226
  38.1114096  45.4457528  80.4537692  39.0376488  46.9207209  80.6518503
  35.7180012  58.4754997  80.2709988  35.7364035  58.7552760  81.3197197
  36.7350485  58.5349950  79.8943490  35.4056453  57.4364998  80.2116271
  34.7670012  59.3894997  79.4619988  35.0795433  60.4296209  79.5372860
  33.7607936  59.3429227  79.8696640  34.7580012  58.9654997  77.9659988
  33.8496471  59.3071510  77.4699179  34.7562054  57.8804301  77.8835862
  36.0140012  59.5234997  77.1929988  35.9957916  59.1820672  76.1603603
  36.9363145  59.1355262  77.6225574  36.0560012  61.0894997  77.2019988
  36.8952054  61.4405546  76.6069612  36.2369364  61.4343112  78.2187251
  34.7680012  61.7314997  76.6719988  33.9168469  61.3442790  77.2291465
  34.6153846  61.4328355  75.6370664  34.7770012  63.2394997  76.7589988
  35.7378364  63.6139950  76.4106901  34.6935431  63.5399297  77.8025535
  33.6660012  63.8924997  75.9599988  33.8846556  63.7093063  74.9087702
  33.7602820  64.9667912  76.1072834  32.2340012  63.4694997  76.2559988
  31.9761593  63.6870534  77.2902758  32.1188716  62.3931428  76.1344339
  31.2660012  64.1814997  75.3379988  31.6476799  65.1787297  75.1302667
  30.3178892  64.3195623  75.8570859  31.0170012  63.4324997  74.0269988
  30.5673429  62.4821470  74.3066025  31.9963239  63.1940534  73.6156616
  30.1450012  64.0784997  72.9259988  30.2517557  65.1588552  72.9864498
  29.1012569  63.8633607  73.1473200  30.4560012  63.5924997  71.4919988
  29.6079379  63.8236497  70.8496512  30.5661793  62.5118588  71.4732858
  31.7110012  64.2364997  70.8719988  32.5435379  63.9056711  71.4841915
  31.5919165  65.3016119  71.0521283  32.0550012  64.0294997  69.4069988
  31.2242118  64.3222786  68.7776256  32.2851036  62.9878807  69.2168625
  33.3650012  64.6684997  68.9649988  33.7130012  65.7654997  69.4179988
  34.0130012  63.9234997  68.1549988  35.2930012  64.3574997  67.6119988
  35.8208995  64.6224861  68.5156400  35.3341222  65.1881799  66.9224544
  35.9280012  63.0484997  66.9659988  36.9656485  63.3298257  66.8950218
  35.3940012  62.6344997  65.5609988  36.0882656  62.9904102  64.8119156
  34.4474461  63.1428743  65.4261891  35.2110012  61.1464997  65.4439988
  34.7210012  60.6594997  63.9819988  33.3030012  60.0724997  64.3139988
  32.2420012  60.9344997  64.7669988  32.6295858  61.8050594  65.2799247
  31.6313882  60.3986631  65.4879897  31.2600012  61.3474997  63.6249988
  31.8162985  62.0504917  63.0178872  30.4154640  61.8594273  64.0632499
  30.6770012  60.3364997  62.6559988  29.7080012  60.9354997  61.6989988
  28.9770101  61.5034657  62.2579269  29.2177926  60.1297968  61.1730344
  30.2462322  61.5529778  60.9956176  31.7850012  59.7244997  61.7959988
  32.5788119  59.3906233  62.4464641  32.1342394  60.4624435  61.0961120
  31.3580448  58.8828641  61.2700189  29.9470012  59.1844997  63.3409988
  30.6298889  58.6753237  64.0046901  29.5895822  58.4950784  62.5909321
  29.1099852  59.5718009  63.9038815  34.4930012  61.8424997  63.1349988
  35.5650012  59.6274997  63.4209988  35.8650012  62.0074997  67.9659988
  36.7770012  62.0264997  69.0639988  37.6870012  62.8034997  69.1589988
  36.5090012  60.8234997  69.9419988  36.4902054  59.9454195  69.3046803
  37.3407964  60.6765002  70.6264072  35.1630012  61.0104997  70.7219988
  35.1940280  61.9169762  71.3164722  34.3280534  61.1282269  70.0385988
  34.9070012  59.7764997  71.6739988  34.9471629  58.8251633  71.1495941
  35.6541988  59.7201740  72.4617729  33.5690012  59.9574997  72.3009988
  33.5246818  60.9325278  72.7827269  32.7816480  59.9529139  71.5511614
  33.2540012  58.8724997  73.3649988  33.2955978  57.8706697  72.9424975
  33.9894001  58.8937758  74.1669444  31.8220012  59.1204997  73.9859988
  31.7023046  58.5674168  74.9163068  31.6596719  60.1670107  74.2284487
  30.7120012  58.6614997  72.9589988  31.0394567  59.0194357  71.9898575
  30.7789315  57.5749489  72.9233085  29.2160012  59.0644997  73.2369988
  28.5869680  58.8048012  72.3988890  28.6190012  59.6384997  74.2959988
  27.5567162  59.7567638  74.1373346  29.0940012  60.1334997  75.6159988
  30.1593636  60.3487653  75.5536729  28.6133477  61.0611531  75.9060200
  28.8760012  59.0644997  76.7339988  27.8551788  59.1192785  77.1103310
  28.9899009  58.0685755  76.3101817  29.8660012  59.2334997  77.9049988
  29.6089875  58.5037325  78.6727819  30.8611485  58.9705439  77.5570906
  29.8970012  60.6464997  78.5349988  30.0527884  61.4015728  77.7677049
  28.9451648  60.8840885  79.0068506  31.0690012  60.7304997  79.6339988
  30.7161132  60.2975390  80.5681321  31.9127446  60.1200460  79.3240499
  31.5460012  62.1944997  79.9309988  32.0151445  62.6067710  79.0394721
  30.6765967  62.8183517  80.1304442  32.5680012  62.3394997  81.1579988
  32.0362305  62.7629779  82.0064097  32.8432339  61.3299369  81.4552244
  33.8720012  63.1594997  80.8999988  34.5291454  63.1203091  81.7635348
  33.6608892  64.2044510  80.6993763  34.4198588  62.7643335  80.0492128
  49.6820012 106.1334997  85.0649988  49.8290506 106.3289861  86.1226332
  49.8797073 107.0561028  84.5269414  50.4282857 105.4065402  84.7564517
  48.2990012 105.6334997  84.7919988  47.5501252 106.3582799  85.1067707
  48.0978427 104.7241295  85.3518159  48.1430012 105.3654997  83.2519988
  47.1856557 104.8944099  83.0295285  48.9072943 104.6711469  82.9086313
  48.2680012 106.6684997  82.4419988  49.2837439 107.0403549  82.5570659
  47.6191007 107.4217758  82.8860812  47.9490012 106.5454997  80.9089988
  47.6830526 107.5196541  80.5066712  47.0738373 105.9113435  80.7774728
  49.1530012 105.9544997  80.0679988  48.9035498 106.0128132  79.0100807
  49.2561072 104.8962409  80.2982910  50.4890012 106.6554997  80.3109988
  50.7796135 106.5238528  81.3516637  50.3643136 107.7273372  80.1631901
  51.6610012 106.1264997  79.3659988  51.6128951 105.0405102  79.2969797
  52.6257344 106.3601959  79.8124961  51.5980012 106.7294997  77.9479988
  52.6112466 106.8859606  77.5841381  51.1391187 107.7159600  78.0018488
  50.7940012 105.8314997  76.9029988  51.0844389 106.1899335  75.9178743
  49.7427539 106.0913285  77.0246429  50.9560012 104.2244997  76.9769988
  50.4843809 103.8054463  77.8632886  51.9954239 103.9022572  77.0067994
  50.2880012 103.6364997  75.7609988  49.2952844 104.0719486  75.6766384
  50.1392461 102.5741417  75.9452203  51.0780012 103.8084997  74.3949988
  51.2095072 102.8369212  73.9217192  52.0763315 104.2027197  74.5629308
  50.3200012 104.7444997  73.3799988  51.0210065 105.1884449  72.6808213
  49.8596898 105.5633741  73.9264876  49.2140012 103.9954997  72.5879988
  48.5205822 103.5157533  73.2670087  49.6539643 103.2393779  71.9486387
  48.7280012 104.8774997  71.3879988  47.9620012 105.8264997  71.4629988
  49.2310012 104.3354997  70.3159988  48.7300012 104.5944997  69.0399988
  48.5745254 105.6612506  69.0977203  47.7845991 104.1099239  68.8435472
  49.7400012 104.2694997  67.9609988  50.6032595 104.8836146  68.1573197
  49.1760012 104.5894997  66.5589988  49.9975259 104.4562171  65.8682500
  48.9274877 105.6425176  66.6034884  48.1120012 103.8744997  66.1659988
  47.6830012 103.5294997  64.6979988  49.1330012 103.4084997  64.0239988
  49.2720012 104.1144997  62.8119988  48.7238660 105.0476313  62.8134414
  48.8711922 103.5231103  61.9938253  50.7580012 104.3444997  62.4559988
  51.2152254 105.0229650  63.1651390  50.7397928 104.8176559  61.4848300
  51.7410012 103.1394997  62.3269988  51.8750012 102.3684997  63.6479988
  52.0993939 103.0725964  64.4374477  52.6897292 101.6675021  63.5434969
  50.9569884 101.8319614  63.8353386  51.3560012 102.3174997  61.1139988
  51.2482830 102.9815619  60.2701196  50.4402210 101.7933675  61.3213682
  52.1562847 101.6146372  60.9328147  53.1360012 103.6284997  62.0549988
  53.1369389 104.2141520  61.1477543  53.7930019 102.7797093  61.9385726
  53.4732175 104.2355059  62.8828053  46.9470012 102.2114997  64.6809988
  46.9880012 104.6944997  64.1979988  50.1550012 102.9604997  68.1279988
  51.0660012 102.4874997  67.3269988  51.6370012 103.0994997  66.4349988
  51.3000012 100.9434997  67.4939988  50.5972053 100.5556996  68.2242330
  51.0881046 100.4154128  66.5676451  52.7930012 100.7264997  67.9409988
  53.1405802  99.7686681  67.5697732  53.4290177 101.4756500  67.4802496
  52.9660012 100.7664997  69.4999988  53.9662621 100.4065827  69.7271369
  52.9486850 101.8150261  69.7869788  51.9040012  99.9914997  70.3659988
  50.9455483 100.5038085  70.3058842  51.7380416  98.9897124  69.9773064
  52.3010012  99.8904997  71.8289988  52.5506452  98.8619405  72.0812782
  53.2051915 100.4719413  71.9985465  51.2070012 100.3964997  72.7789988
  51.5930762 100.3833956  73.7970731  50.9712121 101.4328551  72.5538568
  49.8980012  99.5644997  72.7159988  49.6018587  99.3819637  71.6895679
  50.0508568  98.5861792  73.1697280  48.8240012 100.2754997  73.4669988
  48.6649462 101.1988184  72.9305865  48.0490012 100.0554997  74.5709988
  47.3042887 100.7355154  74.9590606  48.1900012  98.7394997  75.3839988
  47.1857604  98.3892043  75.6164094  48.6490377  97.9655257  74.7790767
  48.9620012  98.8834997  76.6959988  48.4492998  99.6173500  77.3167290
  48.8929614  97.9360052  77.2269853  50.4160012  99.2694997  76.5559988
  50.9313668  98.5296802  75.9434856  50.5005471 100.2143543  76.0262766
  51.1280012  99.3814997  77.9279988  50.7671793  98.6180328  78.6136159
  52.2004507  99.2214351  77.8314773  50.8760012 100.7754997  78.5169988
  51.3149891 101.5695258  77.9158314  49.8228538 101.0246015  78.6142302
  51.5640012 100.7994997  79.9219988  51.7116407  99.7548254  80.1898441
  52.5571282 101.2096754  79.7479627  50.9330012 101.5354997  81.1349988
  49.8466359 101.5096365  81.1024935  51.2137123 101.0274286  82.0549868
  51.4160012 103.0204997  81.2139988  51.0402413 103.5007446  82.1124632
  51.0734875 103.6039670  80.3660652  52.5005904 103.0776360  81.2372937
  35.5840012  90.7384997  83.4369988  35.6292982  91.5794586  84.1219551
  35.1999303  89.8839341  83.9865416  34.8626123  90.9821642  82.6618616
  36.9440012  90.4404997  82.8409988  37.6506227  90.2250947  83.6406798
  37.3148565  91.3290021  82.3371697  36.9100012  89.2664997  81.8739988
  36.4256961  88.4110092  82.3446512  37.9287976  88.9529578  81.6551008
  36.1810012  89.5924997  80.5079988  35.3501346  90.2704642  80.6904127
  35.7454060  88.6891000  80.0839328  37.1270012  90.2384997  79.4729988
  37.7889048  89.4711357  79.0797951  37.7619200  90.9491522  79.9995119
  36.4020012  90.9844997  78.2409988  36.5495174  92.0628379  78.2565733
  35.3259476  90.8249049  78.2263276  36.9940012  90.4284997  77.0059988
  36.2809326  90.5463889  76.1921159  37.1325035  89.3560752  77.1362018
  38.3660012  91.0834997  76.5939988  38.7932326  90.4115785  75.8507315
  38.9995945  91.0039819  77.4754296  38.4160012  92.5184997  76.0649988
  39.4415837  92.8812272  76.0527397  37.8660308  93.1855351  76.7277003
  37.8250012  92.6114997  74.6459988  36.7396307  92.5527257  74.6886090
  38.1530614  91.7652465  74.0429556  38.2570012  93.9254997  73.9549988
  39.3156957  94.0521486  74.1710241  37.7446986  94.7378986  74.4675240
  38.0490012  94.0744997  72.4219988  37.0108023  93.8936259  72.1543296
  38.6348876  93.3284678  71.8882914  38.4670012  95.4214997  71.9639988
  39.3461483  95.7268362  72.5289075  37.6940785  96.1520576  72.1856959
  38.8150012  95.4974997  70.4669988  38.9789369  96.5344948  70.1929346
  37.9498689  95.1565448  69.9045151  40.0520012  94.6514997  70.0359988
  39.9247876  93.6173149  70.3298008  40.9525646  95.0364335  70.4995507
  40.0470012  94.6044997  68.4619988  39.6640012  95.5154997  67.7169988
  40.5610012  93.4384997  67.9759988  40.2530012  93.1254997  66.6369988
  41.0434915  92.4470533  66.3536304  40.3657871  94.0485757  66.0870878
  38.8960012  92.4944997  66.3689988  38.8386977  91.5040875  66.7893486
  38.5620012  92.4464997  64.8829988  37.7598299  91.7520356  64.6731372
  39.4361121  92.1479268  64.3178711  38.1690012  93.7974997  64.5299988
  37.5770012  94.2034997  63.1299988  36.3290012  93.2144997  62.8779988
  35.2980012  93.4444997  63.7469988  34.8366121  94.4229428  63.7160428
  35.5612451  93.2607923  64.7846650  34.2600012  92.3174997  63.3779988
  34.1494285  92.3651603  62.3020103  33.2971735  92.4966807  63.8343255
  34.6100012  90.8684997  63.6949988  35.5190012  90.2664997  62.6629988
  35.0914837  90.4373763  61.6845490  35.5813598  89.2051938  62.8523168
  36.4989319  90.7097608  62.7577205  35.2840012  90.7834997  65.0649988
  34.6789942  91.3215405  65.7785761  36.2734320  91.1989716  64.9958635
  35.3352428  89.7387640  65.3355512  33.2840012  90.0824997  63.8059988
  32.6712628  90.5258875  64.5767393  33.5004163  89.0560617  64.0614193
  32.7637963  90.1173253  62.8596325  37.0510012  95.5934997  63.1429988
  38.6640012  93.9924997  62.1459988  37.9540012  93.3414997  67.0889988
  36.8770012  92.6624997  67.6489988  36.9370012  91.4694997  67.8609988
  35.7820012  93.5804997  68.1409988  36.1090911  94.0010400  69.0863616
  35.6826150  94.4218574  67.4597157  34.4240012  92.8034997  68.2819988
  34.2630412  92.1929263  67.4003225  34.4711855  92.1147296  69.1194965
  33.2560012  93.7384997  68.4539988  33.5090150  94.6831319  67.9793327
  32.4291898  93.3239559  67.8825083  32.7620012  93.9934997  69.9539988
  32.2125288  94.9330537  69.9490644  32.0416828  93.2215292  70.2136235
  33.8430012  94.0654997  71.0669988  34.5914370  93.2803912  70.9812696
  34.3878558  95.0072736  71.0429936  33.1180012  93.9424997  72.4469988
  32.3170463  94.6777487  72.5068413  32.6483053  92.9683599  72.5507076
  34.0830012  94.1484997  73.6189988  33.5626800  94.0681776  74.5663077
  34.8431257  93.3683994  73.6194628  34.7830012  95.5204997  73.4819988
  35.4139543  95.5606096  72.6068740  34.7210012  96.6274997  74.2439988
  35.2955844  97.5143508  74.0182574  33.8660012  96.7504997  75.4559988
  33.2323681  97.6265897  75.3287341  33.1966561  95.9021121  75.5448630
  34.6630012  96.9164997  76.7719988  35.0783393  97.9231774  76.8002690
  33.9587738  96.8556805  77.5995396  35.7810012  95.8974997  76.9879988
  35.4148120  94.9021558  76.7363975  36.6015441  96.1006993  76.3054131
  36.3050012  95.8934997  78.4299988  37.2170493  95.3023343  78.4728565
  36.5845142  96.9054179  78.7180594  35.2850012  95.3504997  79.4269988
  34.4207311  96.0075589  79.5038131  34.8953093  94.3813350  79.1278582
  35.9440012  95.2494997  80.8519988  36.5817991  94.3677375  80.8763364
  36.6050951  96.1039024  80.9853586  35.0020012  95.1894997  82.0199988
  34.4028707  96.0954515  82.0669994  34.2986439  94.3783029  81.8451809
  35.7250012  94.9504997  83.4399988  34.9907923  94.8285712  84.2306566
  36.3636583  95.7830792  83.7150796  36.3403605  94.0554922  83.4191293
  72.3170012 110.7894997  81.2309988  72.0337960 110.2627833  82.1369754
  72.2542199 110.0862786  80.4055724  71.5789880 111.5677061  81.0568055
  73.7050012 111.3734997  81.3469988  74.3796762 110.5481489  81.5679349
  73.7021035 112.0095213  82.2280675  74.2390012 112.1514997  80.1359988
  75.2593910 112.4837639  80.3266135  73.6483336 113.0553533  80.0006050
  74.2050012 111.3624997  78.8539988  73.2122908 110.9326446  78.7399775
  74.8910140 110.5204436  78.9316777  74.5330012 112.1654997  77.6059988
  75.5288308 112.5935448  77.6876915  73.8448210 113.0055531  77.5280033
  74.4570012 111.3404997  76.3429988  73.4601511 110.9129215  76.2519823
  75.1428087 110.4994842  76.4200569  74.7820012 112.1444997  75.0749988
  74.8323624 111.4539652  74.2351203  75.7806437 112.5655454  75.1829969
  73.8120012 113.2454997  74.7539988  74.1301284 113.7349122  73.8343676
  73.8677082 114.0011700  75.5353713  72.3970012 112.7934997  74.6069988
  72.0507925 112.3699745  75.5473748  72.3457127 111.9888348  73.8745638
  71.4320012 113.9514997  74.1719988  71.8675754 114.4763288  73.3245742
  71.3590595 114.6810513  74.9781395  70.0240012 113.4524997  73.8139988
  69.3598259 114.3057239  73.6939133  69.6161393 112.8652250  74.6349039
  69.9790012 112.6084997  72.5069988  68.9384732 112.4070308  72.2642420
  70.4352674 111.6423480  72.7144645  70.6990012 113.2454997  71.2869988
  70.7017482 114.3128482  71.5015020  70.0263478 113.1060661  70.4453517
  72.1490012 112.8354997  70.8559988  72.2317130 111.7544864  70.8122488
  72.8492214 113.1740202  71.6150689  72.5470012 113.3974997  69.5759988
  72.4405199 114.4748162  69.5855822  71.9328577 112.9944377  68.7794827
  73.8070012 112.6554997  69.0239988  74.5690012 111.9744997  69.7199988
  73.8950012 112.8744997  67.6789988  75.0370012 112.2994997  67.0069988
  75.8265848 112.2660005  67.7424561  75.3299241 112.9604952  66.2042080
  74.7390012 110.8704997  66.4709988  75.6614701 110.4842431  66.0700612
  73.6070012 110.8194997  65.3629988  73.5984784 109.8512961  64.8810130
  73.8234702 111.5756660  64.6187282  72.3270012 111.0834997  65.9949988
  71.2240012 111.6404997  65.1169988  71.3230012 110.7904997  63.8319988
  70.9400012 109.4334997  63.6759988  69.9079564 109.2578165  63.9502396
  71.5422619 108.8011736  64.3219420  71.2340012 108.9204997  62.1969988
  70.7731469 109.6334662  61.5250306  70.8316799 107.9390941  61.9911887
  72.7110012 108.8624997  61.7939988  73.3450012 110.2484997  61.7759988
  72.7228196 110.9050757  61.1834348  74.3203852 110.1628465  61.3205985
  73.4487850 110.5996566  62.7916930  73.3040012 107.8764997  62.8509988
  72.6854375 106.9926189  62.8801179  73.3362376 108.3656327  63.8081193
  74.3026706 107.6195904  62.5285799  72.8000012 108.2074997  60.4829988
  72.3669365 107.2204611  60.5485113  73.8376798 108.1291116  60.1953734
  72.2651878 108.7938881  59.7498151  69.9170012 111.2654997  65.6959988
  71.3790012 113.0904997  64.7619988  74.3240012 110.0634997  67.5569988
  74.0580012 108.7244997  67.3919988  74.3750012 107.9994997  66.5129988
  73.1820012 108.2454997  68.5339988  73.1998098 107.1604959  68.5356434
  73.6141823 108.5514904  69.4834703  71.8040012 108.7784997  68.3769988
  71.8614478 109.8612173  68.3989842  71.4439738 108.5171165  67.3870027
  70.8010012 108.3074997  69.4369988  70.7525847 107.2215471  69.4328964
  71.1785681 108.5904035  70.4165260  69.4470012 108.8754997  69.2719988
  69.5629973 109.8327086  68.7670217  68.8851938 108.2394251  68.5923050
  68.6250012 109.0954997  70.5299988  68.9456539 109.9460627  71.1280166
  67.5669907 109.2496682  70.3269545  68.7840012 107.8134997  71.3459988
  68.2694725 106.9926489  70.8488416  69.8286579 107.5233360  71.4153919
  68.2060012 107.9824997  72.8129988  67.1827804 108.3340578  72.7497044
  68.1642569 106.9996455  73.2805467  69.0400012 108.8914997  73.6769988
  68.6852492 109.9030260  73.8055272  70.2280012 108.5404997  74.3409988
  70.7731061 109.2861188  74.9018220  70.8400012 107.2104997  74.3639988
  70.3886549 106.6374802  73.5558179  71.8965365 107.2831513  74.1313279
  70.6540012 106.4054997  75.7009988  69.5859228 106.2054460  75.7777589
  71.1305574 105.4436032  75.5218105  71.1630012 106.9804997  77.0269988
  72.2509175 107.0251791  77.0774837  70.8082362 107.9884369  77.2237431
  70.6560012 106.0544997  78.0949988  69.6345920 106.3358365  78.3414089
  70.6050827 105.0430162  77.6957576  71.5460012 106.0544997  79.4019988
  72.5234470 105.6259054  79.1886996  71.7347035 107.0688591  79.7427206
  70.9030012 105.2284997  80.5339988  70.1191980 104.6181204  80.0890574
  71.6576332 104.5330602  80.8969429  70.3160012 105.9754997  81.7319988
  69.4510542 106.5388087  81.3907295  69.9266819 105.2134538  82.4035861
  71.2260012 106.8794997  82.5059988  70.7194872 107.2811089  83.3784795
  71.5642338 107.7208189  81.9105816  72.1062276 106.3447331  82.8514943
 102.7670012  91.4454997  85.3329988 101.7667715  91.4955504  85.7518836
 103.4714826  91.6628544  86.1306534 102.9397858  90.4220616  85.0115457
 102.9290012  92.4104997  84.1829988 102.6958366  93.4032564  84.5641436
 102.1523338  92.1702481  83.4619711 104.3020012  92.4444997  83.4899988
 104.5265829  91.5028176  82.9892724 105.1004873  92.5990168  84.2129893
 104.3460012  93.5824997  82.4679988 105.2931056  93.5054436  81.9385598
 104.3810971  94.5245307  83.0130234 103.2170012  93.6334997  81.4429988
 102.2940303  93.9941367  81.8898081 103.0030494  92.6359276  81.0629467
 103.5920012  94.5454997  80.2789988 104.5962203  94.2803840  79.9533079
 103.6532753  95.5645904  80.6548666 102.6120012  94.5054997  79.0369988
 101.5670018  94.4722210  79.3397179 102.7760446  93.6281175  78.4128831
 102.8540012  95.7494997  78.2199988 103.9246956  95.8647886  78.0563749
 102.5387222  96.6195336  78.7929946 102.1310012  95.7474997  76.8629988
 102.1155261  96.7617515  76.4698133 101.0901160  95.4658921  77.0173758
 102.7530012  94.8204997  75.8369988 102.6393374  93.7833858  76.1448534
 103.8249397  94.9996062  75.7576411 102.1070012  95.0334997  74.4719988
 102.3563276  96.0279299  74.1080126 101.0226177  95.0087753  74.5648921
 102.5410012  94.0254997  73.4359988 101.8081000  93.9925480  72.6335095
 102.5442150  93.0342673  73.8855741 103.9570012  94.3134997  72.8569988
 104.6667899  94.1831018  73.6721358 104.0058032  95.3617654  72.5758735
 104.4250012  93.4654997  71.6889988 103.8698713  93.7605520  70.8046233
 104.1500683  92.4362994  71.9040585 105.8670012  93.5134997  71.3939988
 106.4425747  93.2545770  72.2736095 106.1533337  94.5074300  71.0712215
 106.2200012  92.2154997  70.5389988 106.7050012  91.1894997  71.0069988
 105.7850012  92.3824997  69.3359988 105.6680012  91.2704997  68.4659988
 105.7884636  90.4321288  69.1353904 106.4514285  91.2442307  67.7225316
 104.2820012  91.2294997  67.8059988 104.2842277  90.3207383  67.2271708
 104.0180012  92.3824997  66.9269988 104.7571549  92.4802105  66.1434777
 103.9990355  93.2996384  67.5023959 102.6820012  92.1084997  66.3479988
 102.2890012  92.9894997  65.0559988 103.7710012  93.2294997  64.3359988
 103.6720012  93.8154997  63.0129988 103.1854414  94.7789217  63.0921599
 103.0081033  93.1819745  62.4318941 104.9510012  93.9144997  62.1909988
 105.6525038  94.5519101  62.7143065 104.7913485  94.3140041  61.1998962
 105.6710012  92.5754997  61.9939988 106.3050012  92.0144997  63.2469988
 106.9181667  92.7829206  63.6974332 106.9235269  91.1767765  62.9610867
 105.5253419  91.6784128  63.9140025 104.7830012  91.5404997  61.3329988
 104.3394472  91.9810478  60.4532879 104.0326018  91.2223016  62.0344407
 105.4111120  90.7069915  61.0536462 106.7740012  92.8084997  60.9039988
 106.3074886  93.1584626  59.9951677 107.2859458  91.8773828  60.7127289
 107.4818688  93.5437542  61.2586243 101.4790012  92.1264997  64.1249988
 101.6460012  94.2404997  65.6329988 103.2720012  91.1084997  68.8089988
 103.2940012  90.1044997  69.6369988 104.0370012  89.1454997  69.6579988
 102.1220012  90.2284997  70.5229988 101.7128380  91.2218870  70.3702896
 101.3534599  89.5357572  70.1892935 102.4900012  89.9794997  71.9889988
 103.4058764  90.5154952  72.2124766 101.7265166  90.4099966  72.6291525
 102.6740012  88.5454997  72.3189988 101.9587335  87.9313939  71.7777777
 103.6593998  88.2206854  71.9941139 102.5480012  88.2924997  73.8329988
 102.5994350  89.2819470  74.2836144 101.5338491  87.9363066  73.9967792
 103.5240012  87.3704997  74.5789988 103.2610300  87.3455635  75.6345201
 103.3910699  86.3554533  74.2096870 104.9980012  87.7554997  74.4319988
 105.5373579  86.8114356  74.4914829 105.1115222  88.1096403  73.4112072
 105.6480012  88.7704997  75.3779988 105.2181661  88.6286282  76.3627294
 106.7015050  88.5071344  75.4623455 105.5420012  90.2464997  74.9309988
 105.9264303  90.4801910  73.9495934 105.0010012  91.2734997  75.6469988
 105.0179556  92.2822426  75.2600101 104.3400012  91.1434997  76.9959988
 103.3583836  91.6142580  76.9901190 104.1835363  90.1192728  77.3156221
 105.2400012  91.8914997  78.0549988 105.2181520  92.9665445  77.8803384
 104.8365414  91.7383593  79.0541120 106.6870012  91.3974997  78.0159988
 106.6925306  90.4027033  77.5705141 107.2519801  92.0352758  77.3417997
 107.3670012  91.3464997  79.3339988 108.3272611  90.8613244  79.1738401
 107.5889301  92.3716294  79.6254461 106.6150012  90.6524997  80.4679988
 105.8804621  91.3447835  80.8751662 106.0460501  89.8183076  80.0666968
 107.5020012  90.1754997  81.6209988 108.4842534  89.9001726  81.2411848
 107.6669359  90.9945846  82.3186594 106.9370012  89.0024997  82.3849988
 106.0629262  89.2925026  82.9627584 106.5888379  88.2530118  81.6776351
 107.9440012  88.3764997  83.2889988 107.5390954  87.4849989  83.7584098
 108.2515147  89.0501158  84.0817268 108.8346729  88.0854400  82.7393360
  96.7630012  35.1194997  82.3529988  97.4764890  34.4677421  82.8475452
  97.0250342  36.1445700  82.5986803  96.8900487  34.9955443  81.2810352
  95.2880012  34.7884997  82.7899988  95.1733472  34.9025908  83.8665863
  95.0518561  33.7517119  82.5661223  94.2920012  35.7284997  82.0699988
  94.5279391  35.7034228  81.0062162  94.5142112  36.7400647  82.4039597
  92.8440012  35.4804997  82.2549988  92.5307491  35.9613263  83.1790815
  92.6812260  34.4136537  82.4000846  91.9290012  35.9914997  81.0889988
  92.2263622  36.9910693  80.7823885  90.9013104  36.0724164  81.4392405
  91.9770012  35.0414997  79.8409988  91.5972774  34.0755645  80.1690171
  93.0277491  34.8903404  79.6029722  91.1910012  35.4984997  78.5099988
  91.3393070  36.5641652  78.3452800  90.1201616  35.3586121  78.6512934
  91.6350012  34.7384997  77.2839988  90.8291388  34.8301530  76.5569248
  91.6701562  33.6883414  77.5679278  92.9700012  35.1294997  76.6159988
  93.1434833  34.4055944  75.8226476  93.7498387  34.9599966  77.3574157
  93.1080012  36.5234997  76.0589988  93.1946950  37.2437726  76.8695480
  92.2140099  36.7990132  75.5001599  94.3100012  36.6204997  75.1509988
  94.9889656  35.8066065  75.3962054  94.8480615  37.5403390  75.3735177
  94.0070012  36.5614997  73.6419988  93.2520058  37.3086303  73.4096267
  93.5562149  35.5954107  73.4226045  95.2070012  36.7444997  72.7539988
  95.8190859  35.8545669  72.8904684  95.7823462  37.5739637  73.1555477
  95.0110012  36.9534997  71.2639988  94.3623343  37.7961254  71.0482254
  94.5553284  36.0801828  70.8048996  96.3700012  37.1884997  70.6159988
  97.0454938  36.3744282  70.8462991  96.8047879  38.1134916  70.9757477
  96.1940012  37.1314997  69.0539988  96.1010012  38.1434997  68.3359988
  96.3190012  35.8994997  68.6669988  96.4070012  35.5904997  67.2609988
  96.9593547  34.6655575  67.1913599  96.9970409  36.3873707  66.8319981
  95.0430012  35.4574997  66.5359988  94.5814928  34.4984437  66.7036764
  95.3130012  35.6404997  65.0909988  95.9429762  34.8161126  64.7855182
  95.8859966  36.5571291  65.0273461  94.1610012  35.7184997  64.2639988
  94.2720012  36.1894997  62.7699988  94.1600012  37.7174997  62.9389988
  93.8420012  38.4764997  64.1239988  94.0375553  39.5305647  63.9760306
  94.4917345  38.1531754  64.9321479  92.3620012  38.2394997  64.6579988
  92.3013676  38.6210871  65.6694154  92.2311264  37.1672927  64.6829196
  91.1430012  38.7924997  63.9329988  91.1610012  40.2694997  63.8569988
  91.3292939  40.6642393  64.8495672  90.1978290  40.5962351  63.4941719
  91.9316551  40.5755011  63.1654985  91.0240012  38.2224997  62.5479988
  91.1084259  37.1484335  62.6109941  91.7961644  38.6419796  61.9281838
  90.0501050  38.4961622  62.1686149  90.0070012  38.3584997  64.8239988
  90.0184855  37.2826562  64.9162540  89.0720864  38.6742559  64.3859551
  90.1201906  38.8106472  65.7987735  95.5940012  35.8564997  62.2259988
  93.1220012  35.6644997  62.0379988  94.1360012  36.5004997  66.9849988
  93.3450012  36.2704997  68.0509988  93.2260012  35.1814997  68.6169988
  92.6390012  37.6604997  68.4739988  93.2584180  38.2218386  69.1659341
  92.4591414  38.3230725  67.6310547  91.3260012  37.2164997  69.1139988
  90.9272330  36.4189374  68.4967958  91.5647738  36.7643089  70.0713619
  90.2580012  38.2844997  69.2989988  90.7590544  39.2450925  69.3876619
  89.6874373  38.3244165  68.3743753  89.3000012  38.0934997  70.4469988
  88.3593723  38.5702998  70.1775830  89.0817962  37.0346333  70.5627167
  89.7550012  38.6544997  71.7959988  90.8001154  38.4226849  71.9906757
  89.6793341  39.7401412  71.8021651  88.9010012  38.1034997  72.9179988
  87.9153335  38.5596263  72.8398401  88.7589480  37.0378387  72.7614562
  89.4500012  38.3224997  74.3329988  88.9968129  37.5985245  75.0001272
  90.5170344  38.1041462  74.3226177  89.2520012  39.7194997  74.8369988
  88.2466692  40.1130237  74.8376558  90.2120012  40.5124997  75.2969988
  89.8843100  41.4907808  75.6182379  91.6920012  40.2784997  75.4529988
  91.8805640  39.2064835  75.4741261  92.2592438  40.6700336  74.6159695
  92.2350012  40.8974997  76.7839988  93.3202563  40.8038758  76.7966782
  92.0228443  41.9648873  76.7725077  91.6390012  40.2664997  78.0939988
  90.5843782  40.5105912  78.2216571  91.7026320  39.1818757  78.1007830
  92.4650012  40.8534997  79.3209988  93.5213253  40.6830335  79.1253827
  92.3300360  41.9334968  79.3428076  92.0830012  40.2664997  80.6929988
  91.0184360  40.4426268  80.8353726  92.2006008  39.1876996  80.6383572
  92.8470012  40.8334997  81.9669988  93.7432959  41.3739094  81.6678399
  92.2236794  41.5522353  82.4958873  93.2490012  39.7294997  82.9439988
  92.3337422  39.2204084  83.2356186  93.8064255  39.0147662  82.3425446
  94.0450012  40.0544997  84.1609988  94.3180880  39.1498512  84.6958854
  93.4933851  40.6853771  84.8498052  94.9625631  40.5742832  83.9001421
  93.0470012 104.4664997  81.6829988  92.8828815 103.7970636  82.5216578
  92.7148624 103.9574265  80.7828219  92.4094584 105.3350191  81.8238008
  94.5090012 104.8724997  81.5779988  95.1006458 103.9638920  81.4800612
  94.7923130 105.3203790  82.5266570  94.8510012 105.8264997  80.4189988
  95.9055455 105.6972467  80.1757728  94.7509347 106.8430059  80.7943289
  94.0030012 105.6944997  79.1169988  92.9720046 105.4504182  79.3634136
  94.3655998 104.8779265  78.4945548  94.0190012 107.0534997  78.2709988
  94.9926376 107.5260605  78.3724450  93.2985962 107.7402843  78.7122568
  93.7260012 106.8914997  76.8839988  92.7376835 106.4494809  76.7714613
  94.4270139 106.1848683  76.4448744  93.7840012 108.2414997  76.0859988
  93.5768528 109.0477871  76.7872548  92.9601256 108.2386725  75.3736427
  95.1240012 108.5464997  75.3269988  95.2774552 107.7689990  74.5797400
  95.9463965 108.4549759  76.0340867  95.1910012 109.9114997  74.6529988
  96.2291423 110.1550462  74.4373853  94.8384115 110.6732407  75.3472668
  94.3820012 109.9874997  73.3749988  94.3949103 111.0298950  73.0642830
  93.3501233 109.7615098  73.6425537  94.8150012 109.0744997  72.1929988
  94.3330196 108.1060137  72.3081932  95.8858107 108.8884754  72.2553677
  94.4780012 109.6174997  70.8059988  94.2929580 110.6875745  70.8600157
  93.5522614 109.1663721  70.4536356  95.6060012 109.3184997  69.7669988
  96.3687565 110.0704035  69.9621830  95.1864512 109.5563187  68.7935030
  96.3010012 107.9444997  69.6929988  95.6802286 107.1956319  69.2121833
  96.5305663 107.5713175  70.6875473  97.6100012 108.0894997  68.9129988
  98.2322622 108.8565598  69.3562267  97.4077915 108.3579688  67.8828995
  98.2580012 106.7214997  68.6849988  99.1760012 106.2574997  69.2969988
  97.4930012 106.0124997  67.8449988  97.7930012 104.6184997  67.7909988
  97.8684957 104.2519960  68.8036377  98.7605842 104.5455954  67.3159619
  96.7040012 103.7944997  66.9889988  97.0461519 102.7730239  67.0093495
  96.4380012 104.2314997  65.5269988  95.7700172 103.5365108  65.0365002
  97.3786624 104.2457608  64.9907730  95.8640012 105.5374997  65.5589988
  94.3710012 105.7644997  65.3119988  94.2700012 106.0914997  63.7739988
  94.5770012 105.1464997  62.7289988  93.8052513 105.1053535  61.9714381
  94.6512533 104.1469898  63.1476438  95.9550012 105.4244997  62.0999988
  95.9831256 104.8972993  61.1547381  96.6869418 104.9870467  62.7635308
  96.4430012 106.8154997  61.8069988  97.0370012 107.3884997  63.1059988
  96.3146124 107.2628215  63.9007903  97.2268969 108.4400374  62.9500886
  97.9651759 106.8805293  63.3208818  97.4540012 106.7544997  60.6979988
  97.0380932 106.1773485  59.8864379  98.3593599 106.3111061  61.0722951
  97.6402022 107.7683842  60.3744800  95.2670012 107.6314997  61.3879988
  94.8095154 107.1772786  60.5217009  95.5973846 108.6293642  61.1414971
  94.5527982 107.6770504  62.1974889  93.6460012 104.4854997  65.5309988
  94.0060012 106.9304997  66.1779988  95.4360012 103.9344997  67.6039988
  95.0670012 103.1144997  68.5499988  95.5320012 102.0174997  68.7759988
  93.8270012 103.6834997  69.2969988  93.7062839 104.7411902  69.0865920
  92.8992182 103.2104129  68.9850457  94.1120012 103.4184997  70.8039988
  93.1921306 103.5436800  71.3645601  94.4100460 102.3842127  70.9434717
  95.1680012 104.3384997  71.3739988  96.1641331 104.1269981  70.9936801
  94.9656785 105.3789405  71.1318965  95.1420012 104.1754997  72.9169988
  94.2525812 104.6591570  73.3166407  95.0708312 103.1277890  73.1988484
  96.4050012 104.8054997  73.6159988  97.2467674 104.3594316  73.0903050
  96.3714793 105.8478035  73.3047755  96.6610012 104.7534997  75.1139988
  95.7255253 104.9501144  75.6354665  96.9676436 103.7517260  75.4016408
  97.7860012 105.8044997  75.6179988  97.4003559 106.7981493  75.4217385
  97.8401243 105.7049353  76.7012825  99.1280012 105.6424997  75.0669988
  99.4492065 106.3978159  74.3656583  99.9670012 104.7004997  75.3419988
 100.9248946 104.7155845  74.8421762  99.7890012 103.5384997  76.3059988
  98.7541286 103.5199649  76.6435136  99.9688532 102.5830707  75.8259052
 100.7050012 103.6694997  77.5539988 100.5360804 102.7853899  78.1676115
 101.7292176 103.5970117  77.1931868 100.5650012 104.9124997  78.4089988
 100.8117562 105.7884852  77.8091085  99.5283118 105.0334348  78.7109158
 101.4710012 104.8844997  79.6699988 101.2176872 103.9770798  80.2136588
 102.4959499 104.7570003  79.3260381 101.3990012 106.1144997  80.6249988
 102.1961552 106.0058688  81.3580300 101.6445772 107.0024494  80.0489235
 100.1070012 106.3254997  81.3729988  99.8484432 105.3673133  81.8201113
 100.3379530 106.9926137  82.2015240  98.8770012 106.8684997  80.6409988
  99.2133969 107.4824403  79.8092357  98.3805953 106.0102174  80.1935106
  97.8520012 107.6524997  81.4729988  96.9850423 107.9111204  80.8725268
  98.2663867 108.5770270  81.8606517  97.5052873 107.0659988  82.3191354
  89.9410012 107.1784997  79.6069988  90.2639330 106.1711825  79.8508353
  88.9666355 107.3331538  80.0614034  90.6356608 107.8705907  80.0750480
  89.8860012 107.3944997  78.0859988  89.2167395 106.6276150  77.6997609
  90.8786391 107.1454383  77.7206874  89.4580012 108.7434997  77.5509988
  90.1107692 109.5003545  77.9857329  88.4619738 108.9454831  77.9399759
  89.4290012 108.9154997  76.0259988  89.0592824 108.0077598  75.5542293
  90.4318997 109.0729448  75.6321567  88.5280012 110.0884997  75.6079988
  89.1435480 110.9355995  75.3162850  87.9516797 110.4130506  76.4728024
  87.5720012 109.7524997  74.4619988  86.8739496 109.0037932  74.8321064
  88.1566200 109.2652948  73.6845483  86.7680012 110.9454997  73.8339988
  86.0518230 111.3292442  74.5582908  86.1831385 110.5904071  72.9866058
  87.7060012 112.1144997  73.3629988  88.3038348 112.4541149  74.2078108
  87.0952890 112.9636760  73.0619769  88.6410012 111.7254997  72.2029988
  88.1525485 111.8834345  71.2438264  88.8901540 110.6659444  72.2459232
  89.9620012 112.5704997  72.2589988  90.4678577 112.2517176  73.1677265
  89.6455169 113.5990032  72.4306003  90.9510012 112.5334997  71.0579988
  91.2518636 111.4944960  70.9418346  91.8442044 113.0740912  71.3663438
  90.4930012 113.0524997  69.7069988  90.3717146 114.1288245  69.8020425
  89.4969884 112.6483358  69.5358847  91.3800012 112.7214997  68.4779988
  92.3352179 113.2262968  68.6121358  90.9312093 113.1514026  67.5869077
  91.6660012 111.2124997  68.2249988  90.7218658 110.6818304  68.1590939
  92.1856326 110.8228225  69.0963350  92.4860012 110.9124997  67.0069988
  93.4203839 111.4585484  67.0352957  91.9463616 111.1929541  66.1102249
  92.7060012 109.4264997  66.8399988  93.0080012 108.5694997  67.6439988
  92.3560012 109.2204997  65.5149988  92.1000012 107.8874997  65.0679988
  92.5629141 107.2046310  65.7643205  92.4953447 107.7055325  64.0791695
  90.5810012 107.7174997  65.0899988  90.3240624 106.7796918  64.6258944
  89.9360012 108.9054997  64.2869988  89.0742749 108.4997277  63.7745751
  90.6808264 109.1790495  63.5501196  89.5520012 110.0814997  65.0909988
  89.0970012 111.4744997  64.2699988  87.8340012 111.0094997  63.4019988
  86.6210012 110.6724997  63.9979988  85.8124650 111.2728772  63.6017602
  86.6786623 110.8955142  65.0594773  86.2810012 109.1504997  63.9169988
  85.3191901 109.0293437  64.3991706  87.0248004 108.6108924  64.4852977
  86.1670012 108.4134997  62.5569988  87.4600012 108.4404997  61.7859988
  87.8085890 109.4627157  61.7321942  87.2623165 108.0708281  60.7908286
  88.1741776 107.7963828  62.2766947  85.7660012 107.0194997  62.8649988
  84.9164595 107.0462419  63.5300384  86.5984372 106.5051116  63.3108970
  85.4917628 106.5486187  61.9320671  85.1170012 109.0634997  61.7199988
  84.1757106 109.0398404  62.2486711  85.0226195 108.5257303  60.7885771
  85.3983596 110.0871968  61.5192089  88.7220012 112.5494997  65.1959988
  90.1880012 111.7744997  63.3789988  90.0970012 107.7054997  66.4059988
  88.8520012 107.3814997  66.8729988  87.8860012 107.0534997  66.1659988
  88.9720012 107.5494997  68.3389988  89.6927583 106.8247213  68.7033591
  89.3904654 108.5262998  68.5684681  87.5990012 107.3704997  68.9929988
  86.8916866 108.1087328  68.6313652  87.1634236 106.4021390  68.7680925
  87.7590012 107.5294997  70.5069988  88.6003321 106.9111282  70.8093777
  88.0634798 108.5594076  70.6762543  86.5500012 107.2304997  71.3829988
  86.8512641 107.3309700  72.4240811  85.7791149 107.9788875  71.2161097
  85.9660012 105.9014997  71.1989988  85.8582304 105.7414286  70.1281749
  86.7122749 105.1858772  71.5386176  84.5790012 105.5774997  71.9259988
  83.9499212 106.4662962  71.9256087  84.0296492 104.8128458  71.3839335
  84.7930012 105.0844997  73.4259988  85.2537685 104.1038049  73.4033901
  85.5130919 105.7508738  73.8990325  83.5240012 105.0734997  74.2569988
  82.8118126 104.2632687  74.2137868  83.2480012 106.0934997  75.1059988
  82.3371171 106.0089045  75.6811021  84.0360012 107.3544997  75.3809988
  85.0764853 107.2377762  75.0826879  83.6693665 108.2350795  74.8654028
  83.9940012 107.6034997  76.9379988  82.9872360 107.4599631  77.3285448
  84.6247707 106.8812990  77.4527948  84.4870012 109.0564997  77.2799988
  85.5610428 109.0926490  77.0976946  84.0351137 109.7430891  76.5694379
  84.2030012 109.5334997  78.6959988  84.6512868 110.5095639  78.8677063
  83.1340385 109.6563241  78.8612803  84.7410012 108.5474997  79.6749988
  84.1058150 107.6637220  79.6830929  85.7224547 108.2046699  79.3590213
  84.8120012 109.1004997  81.1319988  84.3794045 110.0992951  81.1442813
  84.1720558 108.4866782  81.7632888  86.2360012 109.1664997  81.7829988
  86.2037616 109.5392474  82.8037508  86.6606750 108.1670154  81.8462147
  87.1650012 110.0404997  80.9539988  88.1744304 110.0173214  81.3534789
  86.8438046 111.0765672  80.9422622  87.2087802 109.6969651  79.9243345
 111.6810012  75.4184997  84.7129988 111.3270181  75.3292744  85.7353313
 110.9853992  76.0569777  84.1760874 112.6409878  75.9267979  84.7388926
 111.8040012  74.0284997  84.0359988 110.8334801  73.5354766  84.0508319
 112.4713004  73.4065557  84.6265167 112.3200012  74.1154997  82.5439988
 111.9821293  75.0238084  82.0452535 111.9447200  73.2867312  81.9469411
 113.8560012  74.0704997  82.5289988 114.2011429  73.1073726  82.8984759
 114.2700866  74.8181788  83.2036951 114.4370012  74.2924997  81.0869988
 114.1298600  75.2493298  80.6726155 114.0715153  73.5307229  80.4003538
 115.9940012  74.2384997  81.1329988 116.3299400  74.5581895  82.1177630
 116.3945417  74.9614006  80.4254972 116.5460012  72.9234997  80.8399988
 115.9784478  72.1572994  81.3649658 117.5662611  72.8571462  81.2153611
 116.5390012  72.6234997  79.3639988 116.8285641  73.5197339  78.8168530
 115.5226042  72.3915863  79.0512090 117.4770012  71.4534997  78.9629988
 117.2179511  70.6037574  79.5909894 118.4893697  71.7411339  79.2439856
 117.4640012  71.0194997  77.4879988 118.1815206  70.2102896  77.3711919
 117.8373842  71.8477357  76.8863018 116.0550012  70.5744997  76.9389988
 115.3091320  71.3381535  77.1488870 115.7085438  69.6693382  77.4347588
 116.0910012  70.3454997  75.4659988 115.3416301  69.6257900  75.1455617
 117.0520852  69.9454284  75.1483033 115.8690012  71.6644997  74.7789988
 116.6814604  72.3496731  75.0150061 114.9565264  72.1457443  75.1196853
 115.8110012  71.5034997  73.2309988 114.9240146  70.9164819  73.0164992
 116.6670174  70.8856985  72.9728322 115.8200012  72.7194997  72.3569988
 116.6805305  73.3382995  72.5774914 114.9215699  73.3043208  72.5147150
 115.8510012  72.1764997  70.9979988 116.2780012  71.0684997  70.6979988
 115.2920012  73.1174997  70.2589988 115.0740012  72.6954997  68.8999988
 116.0152642  72.3056683  68.5429030 114.8516492  73.6148659  68.3779668
 113.9990012  71.7004997  68.7009988 114.2043672  70.8354552  69.3096175
 113.8430012  71.2754997  67.2149988 113.4224957  70.2795513  67.1823938
 114.8389459  71.2456435  66.7909851 112.9920012  72.2204997  66.4639988
 113.6000012  73.0024997  65.3189988 113.9240012  71.9834997  64.2869988
 113.0290012  70.9744997  64.0859988 112.0145577  71.2550092  64.3378078
 113.2775457  70.1226927  64.7124551 113.1160012  70.4474997  62.6289988
 112.3095392  69.7280322  62.5639244 114.0474053  69.9459673  62.4091612
 112.8910012  71.4214997  61.4939988 112.9530012  70.6744997  60.1859988
 113.8636028  70.0916970  60.1640957 112.9671450  71.4013643  59.3875203
 112.0745874  70.0533283  60.0951564 111.4490012  71.8144997  61.8129988
 111.3903499  72.0854456  62.8560052 110.8009562  70.9873302  61.5845290
 111.2016581  72.6651706  61.1945512 113.8120012  72.6014997  61.4699988
 113.7156977  73.1466578  62.3971504 113.5451890  73.2429462  60.6435560
 114.8305204  72.2616475  61.3493584 112.6590012  73.9354997  64.6969988
 114.8840012  73.6554997  65.7359988 112.7400012  72.2884997  69.0659988
 111.7350012  71.3504997  69.1419988 111.9160012  70.1484997  69.0319988
 110.3340012  71.9844997  69.4949988 109.8072572  71.9746210  68.5463175
 109.8352837  71.2477250  70.1197795 110.3110012  73.3114997  70.1219988
 111.0422144  73.3229851  70.9227835 110.6454088  74.0493409  69.3996451
 108.9610012  73.7114997  70.6779988 108.7466634  74.7609178  70.4924321
 108.1687398  73.1493493  70.1897633 108.9090012  73.4204997  72.1939988
 107.8507170  73.4593442  72.4454581 109.2115778  72.3828695  72.3122063
 109.6860012  74.2884997  73.2179988 110.7444071  74.2324412  72.9719593
 109.3910776  75.3229950  73.0530126 109.4890012  73.9514997  74.7109988
 109.8036858  74.7836624  75.3388361 108.4456991  73.7647857  74.9496967
 110.3550012  72.6304997  75.0959988 110.3520098  72.5299378  76.1750995
 109.8228497  71.7639834  74.7057290 111.7270012  72.6174997  74.5659988
 112.3258728  73.4306607  74.9476737 112.3360012  71.7464997  73.6989988
 113.3535837  71.8997246  73.3693657 111.6720012  70.4914997  73.1169988
 110.6150849  70.5042034  73.3777433 111.7172424  70.4766929  72.0337560
 112.2880012  69.1984997  73.6709988 111.9681576  68.3724154  73.0369721
 113.3671650  69.2725667  73.5510886 111.9660012  68.8764997  75.1279988
 112.4023977  69.6772654  75.7250241 110.8890853  68.9657044  75.2411301
 112.4040012  67.5924997  75.6549988 112.0965788  66.8104397  74.9643333
 113.4920912  67.5676522  75.6779692 111.8390012  67.2814997  77.1179988
 110.8546989  67.7122571  77.2917431 111.7422016  66.2218273  77.3378834
 112.8470012  67.9524997  78.1279988 113.1894176  67.2014932  78.8376629
 113.7304938  68.2748195  77.5799252 112.2950012  69.1564997  78.9169988
 112.1930447  70.0137264  78.2561795 111.2853647  68.9068680  79.2357955
 113.1010012  69.5494997  80.1269988 112.6062841  70.3433851  80.6784241
 114.0887757  69.9077571  79.8573802 113.2281718  68.7076552  80.8017331
 112.0010012  80.4104997  84.1169988 111.5060638  80.0261483  85.0034185
 112.1032574  79.5900253  83.4126157 111.3449192  81.1504594  83.6668566
 113.3580012  81.0164997  84.4589988 113.9547929  80.2445778  84.9418851
 113.1918778  81.7866387  85.2073990 114.1230012  81.5784997  83.3039988
 113.7595302  81.1764011  82.3584119 115.1712801  81.2938378  83.3691903
 114.0350012  83.1284997  83.2689988 114.2319355  83.4683006  84.2833962
 112.9969864  83.3839523  83.0616941 114.9910012  83.9334997  82.2639988
 116.0423366  83.6842353  82.3828857 114.9156243  85.0114333  82.3971992
 114.5450012  83.5624997  80.8199988 113.9477309  84.3792309  80.4187067
 113.8852910  82.6988141  80.8690584 115.7430012  83.2504997  79.8249988
 115.2899244  83.1204599  78.8438866 116.1253462  82.2729361  80.1155359
 116.8810012  84.2134997  79.7189988 117.3167723  84.3847859  80.7024699
 116.5208542  85.1807793  79.3735306 117.9850012  83.7024997  78.7509988
 118.1728376  82.6558027  78.9805285 118.9068159  84.2343495  78.9833138
 117.6790012  83.8484997  77.2479988 117.3643011  84.8814230  77.1163465
 116.7972062  83.2350551  77.0648252 118.7830012  83.4874997  76.1999988
 118.9555671  82.4135516  76.2199400 119.7268163  83.9505319  76.4827394
 118.4280012  83.8964997  74.7529988 119.3423822  83.9719900  74.1695370
 117.9943799  84.8946914  74.7689908 117.4170012  82.9214997  74.0499988
 116.4462878  83.0325779  74.5302374 117.7231140  81.8925880  74.2170607
 117.2280012  83.1504997  72.5379988 118.1887789  83.2808535  72.0509064
 116.6689994  84.0693148  72.3818326 116.4690012  81.9934997  71.8599988
 115.5197423  81.8232691  72.3519035 117.0525058  81.0816036  71.9051301
 115.8400012  82.4454997  70.4979988 115.9600012  83.5624997  69.9679988
 115.0750012  81.4734997  70.0519988 114.6350012  81.6134997  68.7149988
 114.4271609  82.6713868  68.6589691 113.7170895  81.0646485  68.5620521
 115.6820012  81.2254997  67.6779988 116.4627258  81.9613063  67.7777564
 115.1250012  81.2514997  66.2629988 114.6835696  82.2291797  66.1248648
 114.3348452  80.5110690  66.2639798 116.0550012  80.9784997  65.2329988
 115.4950012  80.1644997  63.9789988 114.2490012  80.9574997  63.4879988
 113.2000012  80.2504997  62.8089988 112.6597995  79.5523060  63.4350154
 113.5916535  79.6764162  61.9742331 112.2100012  81.3184997  62.1549988
 111.5274179  80.8004700  61.4932024 112.7799235  82.0316556  61.5770938
 111.3540012  82.1244997  63.0699988 112.3400012  82.8504997  63.9819988
 113.0269119  82.1246684  64.3951048 111.7776443  83.3137257  64.7790410
 112.8518751  83.6102120  63.4105627 110.5310012  83.1204997  62.3519988
 110.0218234  82.6234556  61.5405808 111.1680437  83.9087107  61.9924572
 109.8115829  83.5129970  63.0560444 110.4280012  81.2884997  63.8959988
 109.7944163  80.7078640  63.2421529 109.8189636  81.9348810  64.5099323
 111.0047231  80.6284211  64.5277606 116.5430012  80.2404997  62.9109988
 115.1580012  78.7774997  64.3059988 116.2310012  79.9644997  67.9719988
 117.5290012  79.7834997  67.8359988 118.3150012  80.4314997  67.1829988
 117.8180012  78.4634997  68.5669988 117.9147530  77.7069579  67.7950942
 118.7984946  78.5433129  69.0297833 116.7460012  78.0934997  69.6029988
 116.5981463  78.9239087  70.2846298 115.7903747  77.9326753  69.1141771
 117.1420012  76.8274997  70.4199988 117.4091816  76.0191027  69.7441563
 118.0365220  77.0481831  70.9972304 116.0730012  76.3794997  71.3539988
 115.2061121  76.1087493  70.7540791 116.3943644  75.4681324  71.8523334
 115.6190012  77.4134997  72.4359988 114.8405857  78.0385275  72.0032049
 115.1461268  76.8551775  73.2416334 116.6890012  78.2854997  73.0209988
 117.2478103  78.7563352  72.2136901 116.2450439  79.0921532  73.5976529
 117.6650012  77.5064997  73.9309988 117.1055583  77.0162535  74.7192008
 118.1296215  76.7138544  73.3460309 118.7500012  78.3844997  74.4999988
 119.6869837  78.4882239  73.9738248 118.6070012  79.0964997  75.6829988
 119.4058912  79.7377698  76.0267389 117.4080012  79.0794997  76.5809988
 116.6920652  78.4631090  76.0399634 117.6952633  78.5114793  77.4587882
 116.6880012  80.3874997  77.0239988 117.3299951  80.9160789  77.7276697
 116.5975663  81.0328344  76.1523201 115.2840012  80.1834997  77.6559988
 115.4292912  79.6711945  78.6070725 114.8844515  81.1645925  77.8974959
 114.2460012  79.3964997  76.8029988 114.5632039  79.4226140  75.7628808
 114.2626347  78.3492997  77.0999510 112.8440012  79.9234997  76.9249988
 112.9232481  80.9869397  77.1427259 112.3837985  79.8551195  75.9430809
 111.9150012  79.2854997  77.9929988 110.8684261  79.5006943  77.7850207
 112.0057896  78.2007917  77.9932380 112.2500012  79.8034997  79.4029988
 113.3286828  79.9291660  79.4536836 111.8327286  80.8070907  79.4477385
 111.7620012  79.0024997  80.6479988 111.9967705  79.5346255  81.5649472
 112.2293984  78.0255705  80.7103695 110.6864729  78.8524164  80.6187585
  65.3260012  33.8034997  82.8469988  66.1161639  33.3038871  83.3987769
  64.4247276  33.2051033  82.9440441  65.1396311  34.7592150  83.3291673
  65.7060012  33.9924997  81.3879988  65.9149054  33.0173815  80.9512991
  66.6364680  34.5520905  81.3443698  64.6250012  34.6984997  80.5539988
  64.2487437  35.5458352  81.1270449  63.7880057  34.0112104  80.4479650
  65.0380012  35.1734997  79.1679988  65.9091739  35.8076794  79.3167404
  64.2444279  35.8296393  78.8138402  65.3550012  34.1674997  78.1129988
  64.5142999  33.4831933  78.0322568  66.1968920  33.5764250  78.4696717
  65.6800012  34.7214997  76.7209988  66.7563699  34.8750615  76.6693645
  65.2279602  35.7080085  76.6433055  65.2230012  33.8464997  75.5039988
  64.1733564  33.5901547  75.6355400  65.7712250  32.9056905  75.5276383
  65.4100012  34.4944997  74.1649988  66.4767343  34.6270371  73.9890295
  64.9810141  35.4942628  74.1985808  64.8010012  33.7264997  73.0009988
  63.7545670  33.4716885  73.1545821  65.3136468  32.7891244  72.7886335
  64.9230012  34.6444997  71.8039988  65.9445327  35.0134515  71.7436099
  64.2910691  35.5191271  71.9560439  64.5300012  33.9594997  70.4789988
  63.4615167  33.7583143  70.5165002  65.0192256  32.9878298  70.4384387
  64.8310012  34.7314997  69.1889988  64.2423871  35.6451226  69.2213362
  64.4280074  34.1391513  68.3696152  66.3540012  35.0714997  68.8699988
  66.6332360  35.8483692  69.5797548  66.3725545  35.5357120  67.8879414
  67.4060012  33.9924997  68.9239988  67.1018032  33.2128472  69.6146149
  68.3249537  34.4195353  69.3167566  67.7110012  33.3524997  67.5259988
  67.9848791  34.1175310  66.8106255  66.8406546  32.8246691  67.1545681
  66.5390012  32.5864997  66.9169988  66.1980012  31.4294997  67.2399988
  65.9040012  33.3474997  66.0089988  64.8130012  32.6994997  65.3889988
  64.1610148  32.3520202  66.1761669  65.1188721  31.8568587  64.7860135
  64.0800012  33.7844997  64.5119988  63.0461524  33.4888637  64.4438071
  64.6990012  33.9134997  63.0619988  64.0324307  34.4834138  62.4290038
  64.7984005  32.9161362  62.6521563  66.0170012  34.5684997  63.1449988
  66.9630012  34.3804997  61.8779988  68.3030012  35.1984997  62.2079988
  69.0840012  34.8354997  63.2979988  70.1317097  35.0259591  63.1050712
  68.9892232  33.7647613  63.4539906  68.6450012  35.4714997  64.6119988
  69.1312708  34.8703717  65.3699143  67.5785097  35.3087654  64.6710797
  68.8640012  36.8794997  65.0129988  68.5170012  36.9504997  66.4789988
  67.5393588  36.5117274  66.6240106  68.4947337  37.9912544  66.7661114
  69.2782787  36.4346460  67.0447447  70.2840012  37.2784997  64.7899988
  70.5638613  37.0021763  63.7849924  70.9047095  36.7897358  65.5195199
  70.3407510  38.3508379  64.9090248  67.9690012  37.7864997  64.1979988
  68.1842993  37.6491580  63.1487772  68.1575701  38.8128719  64.4748592
  66.9346293  37.5435833  64.3942167  67.2870012  32.9164997  61.7759988
  66.2050012  35.0444997  60.7829988  64.1490012  35.0434997  65.1769988
  63.5360012  36.0494997  64.6129988  62.7240012  35.9134997  63.6839988
  64.2380012  37.3264997  65.1619988  65.3030817  37.1319376  65.0891833
  64.0358578  38.1384890  64.4679395  63.8200012  37.7024997  66.5879988
  62.7720805  37.9726048  66.6584728  63.9735335  36.9052944  67.3083630
  64.6860012  38.9284997  66.9679988  65.6912119  38.8223287  66.5680823
  64.2689113  39.8203592  66.5068181  64.7440012  39.1444997  68.4879988
  64.5129321  40.1701560  68.7696761  64.0640381  38.5131379  69.0547743
  66.1730012  38.8394997  68.9189988  66.4100075  37.7883725  68.7678015
  66.8760827  39.3997691  68.3056836  66.4070012  39.2104997  70.4049988
  66.0366504  40.2130701  70.6133106  65.8754497  38.5417168  71.0761921
  67.9200012  39.1444997  70.7349988  68.4933113  39.7041916  70.0051766
  68.1082831  39.6149412  71.6991464  68.3750012  37.7184997  70.8009988
  68.1036551  37.1655077  69.9143618  69.0570012  37.0504997  71.7589988
  69.2355774  36.0169320  71.4992711  69.5990012  37.4404997  73.0589988
  70.4607247  36.8305727  73.3247856  69.9265349  38.4722481  73.1214307
  68.4720012  37.1864997  74.1199988  67.6975887  37.9505746  74.0636084
  67.9754143  36.2368636  73.9301257  69.0740012  37.1684997  75.5379988
  68.3171929  36.7723781  76.2150778  69.8945967  36.4564691  75.5498066
  69.5410012  38.4564997  76.0399988  70.4521073  38.6976511  75.4969733
  68.8071882  39.2070983  75.7515455  69.7900012  38.5484997  77.5399988
  70.4482440  37.7165081  77.7830961  70.3789888  39.4481973  77.6957636
  68.6060012  38.5174997  78.5219988  68.4329608  39.5024134  78.9519812
  67.6859960  38.2472425  78.0068428  68.8310012  37.5354997  79.6469988
  68.8746789  36.5282924  79.2401317  69.8205574  37.7338703  80.0528811
  67.8180012  37.5794997  80.7839988  68.1071744  36.9048401  81.5841752
  66.8263661  37.2875306  80.4551296  67.7454482  38.5787860  81.2038842
 115.1780012  59.2744997  84.5829988 114.7957918  58.8957112  85.5257948
 115.5053676  58.4237069  83.9924289 114.3513689  59.7424146  84.0554129
 116.3460012  60.2884997  84.8099988 117.1052462  59.7618519  85.3856655
 115.9512617  61.0629963  85.4620338 117.0000012  60.9224997  83.5719988
 117.5164554  60.1322886  83.0272322 117.7748054  61.5979731  83.9291892
 116.0700012  61.7104997  82.5829988 115.8756030  62.6989676  82.9933530
 115.1019944  61.2164257  82.5154731 116.6600012  61.8714997  81.1699988
 116.8085331  60.8923971  80.7218141 117.6472271  62.3233703  81.2510097
 115.7800012  62.7304997  80.2219988 115.5939945  63.7063813  80.6668286
 114.8054204  62.2648900  80.0917025 116.4600012  62.9224997  78.8059988
 116.6604707  61.9605336  78.3378072 117.4237132  63.4207091  78.9023128
 115.5390012  63.7624997  77.8779988 115.3939584  64.7424578  78.3308737
 114.5573075  63.2934113  77.8477066 116.0750012  63.9444997  76.4019988
 115.8641588  63.0286079  75.8540674 117.1601419  64.0281474  76.4472711
 115.5080012  65.1394997  75.6299988 115.8843769  66.0632555  76.0639521
 114.4244550  65.1690660  75.7417237 115.8570012  65.0794997  74.1479988
 115.3782897  64.2346872  73.6574193 116.9256624  64.9627868  73.9763326
 115.3620012  66.3994997  73.4549988 116.1469019  67.1348547  73.6143815
 114.5066710  66.7368015  74.0375001 114.9680012  66.3654997  71.9909988
 114.1378124  65.6657682  71.9109083 115.7912780  65.9256995  71.4350625
 114.5430012  67.6954997  71.3019988 115.3697353  68.3975182  71.3340255
 113.7349305  68.1346292  71.8810317 114.0570012  67.5304997  69.8019988
 113.2529737  66.8080630  69.7414500 114.8744479  67.1943673  69.1752095
 115.2810012  67.1824997  68.8699988 115.7000012  67.9294997  68.0359988
 115.5700012  65.9024997  68.9459988 116.4130012  65.3194997  67.8319988
 117.4205364  65.4824458  68.1838272 116.2672444  65.8670270  66.9121288
 116.1560012  63.8094997  67.6239988 116.6802099  63.3626348  68.4524980
 116.6660012  63.2234997  66.3109988 116.7527938  62.1505781  66.4163903
 117.6524368  63.6362592  66.1402375 115.8000012  63.5484997  65.2329988
 116.2940012  63.4154997  63.6939988 114.9730012  64.0014997  62.8719988
 114.1480012  63.1074997  62.1509988 114.7247489  62.3194672  61.6845698
 113.6544676  63.6453496  61.3466735 112.9880012  62.5154997  63.0219988
 113.5812748  62.2498594  63.8878571 112.5352311  61.6192870  62.6230263
 111.8010012  63.3924997  63.5689988 112.2700012  64.5454997  64.3779988
 112.9584592  64.1830363  65.1289847 111.4095006  64.9884451  64.8569957
 112.7322661  65.2684759  63.7227633 111.1860012  63.9934997  62.3139988
 111.0114649  63.1997282  61.6039439 111.8542102  64.7365395  61.9168104
 110.2484474  64.4481816  62.5995760 110.7870012  62.5164997  64.2059988
 110.4316722  61.7987961  63.4816198 109.9619590  63.1215137  64.5508371
 111.2318804  62.0004991  65.0446053 117.3740012  64.3834997  63.3969988
 116.6180012  62.0054997  63.3449988 114.7830012  63.5214997  67.7359988
 114.3790012  62.4104997  68.1999988 114.9920012  61.6214997  68.8239988
 112.8490012  62.3094997  67.7939988 112.6535442  63.2201544  67.2371706
 112.7741465  61.4986168  67.0737399 111.8400012  62.1144997  68.9649988
 110.8848697  61.8899674  68.5030787 112.1408238  61.2114157  69.4865139
 111.6540012  63.2664997  69.9759988 112.6364356  63.5277296  70.3610123
 111.3122979  64.1279864  69.4075407 110.6770012  63.0284997  71.1409988
 109.7600671  62.5502905  70.8015081 111.0834719  62.3879180  71.9198689
 110.3210012  64.3604997  71.7439988 110.2741832  65.1093713  70.9560264
 109.3165802  64.2926520  72.1574190 111.3070012  64.8574997  72.8849988
 111.2419569  64.2120765  73.7595839 112.3443550  64.8339009  72.5630390
 110.9460012  66.3134997  73.2929988 111.6131864  66.7036774  74.0527390
 111.0179012  66.9919085  72.4439182 109.4850012  66.2984997  73.7899988
 108.6777379  66.4450017  73.0882743 109.1550012  66.0984997  75.0539988
 108.1101666  66.0571377  75.3264321 110.0990012  65.9084997  76.2109988
 110.2120491  64.8447167  76.4130064 111.0941981  66.2854393  76.0031993
 109.5420012  66.5954997  77.5019988 109.5826678  67.6759254  77.3688390
 108.4878561  66.3406710  77.5931006 110.2700012  66.2104997  78.8029988
 111.2678422  66.6456038  78.7472799 109.7629447  66.7172002  79.6194866
 110.3920012  64.6664997  79.1349988 109.5376364  64.1701383  78.6802117
 111.2736973  64.2841294  78.6236379 110.4750012  64.3074997  80.6189988
 109.6617047  64.7866578  81.1607979 110.3383577  63.2391653  80.7625788
 111.7820012  64.7534997  81.2489988 112.6072218  64.0865731  81.0058880
 112.0840465  65.7430584  80.9108034 111.6190012  64.7894997  82.7599988
 110.7575655  65.4130237  82.9859661 111.3380039  63.7797758  83.0512226
 112.8560012  65.2524997  83.6489988 112.6316569  65.1473475  84.7062034
 113.1153017  66.2911057  83.4734947 113.7361075  64.6522330  83.4363166
  57.8850012 106.8534997  84.6349988  57.2422978 107.2326286  85.4234293
  58.9009239 106.8294764  85.0185530  57.5867955 105.8290549  84.4295765
  57.7860012 107.7434997  83.3379988  58.0513369 108.7594614  83.6254388
  56.7370879 107.7703840  83.0553821  58.6150012 107.3324997  82.1809988
  58.3364477 106.3182511  81.8952771  59.6503310 107.2785884  82.5116901
  58.5460012 108.2294997  80.9659988  59.0445453 109.1686498  81.1955650
  57.5076218 108.4825216  80.7575421  59.1900012 107.6254997  79.6979988
  59.7044358 106.7105321  79.9804247  59.9602548 108.3179844  79.3625300
  58.2570012 107.3274997  78.5529988  58.8101157 106.9585171  77.6911791
  57.7487750 108.2313917  78.2239663  57.1830012 106.2534997  78.9819988
  56.5843326 106.6703517  79.7898355  57.7049761 105.3947920  79.4019909
  56.2390012 105.7724997  77.8369988  55.5464755 106.5850543  77.6210955
  55.6362546 104.9558255  78.2299668  56.9090012 105.3244997  76.5409988
  57.4227432 104.3818846  76.7173140  57.6807914 106.0456757  76.2748747
  55.9220012 105.1594997  75.3409988  55.7668585 106.1432099  74.9033416
  54.9571640 104.8472123  75.7397404  56.3630012 104.1714997  74.2629988
  56.3574011 103.1629193  74.6707674  57.3910549 104.3717268  73.9661107
  55.4540012 104.1954997  73.0069988  54.4450851 103.8835954  73.2658868
  55.8166809 103.4751761  72.2760628  55.4260012 105.6134997  72.3409988
  55.0126929 106.3181960  73.0606038  54.7435960 105.6064570  71.4956896
  56.8340012 106.1694997  71.8649988  57.4211671 105.3754048  71.4155607
  57.3898277 106.5203714  72.7304685  56.7050012 107.3104997  70.8809988
  56.0939174 108.1017974  71.2962884  56.2488543 106.9654773  69.9606952
  56.4140012 106.8434997  69.4269988  55.9890012 105.7064997  69.1879988
  56.5110012 107.8214997  68.5629988  55.8730012 107.5254997  67.3329988
  54.9168037 107.0543223  67.5037039  56.5147518 106.8391658  66.7998066
  55.6970012 108.7794997  66.5769988  55.1748934 108.5910094  65.6535439
  57.0600012 109.3934997  66.2849988  57.6793910 108.6611964  65.7851097
  57.5135128 109.6396247  67.2370149  56.9300012 110.5154997  65.5149988
  56.8720012 110.4064997  63.9339988  57.3950012 108.8724997  63.5559988
  56.6180012 108.0284997  62.6579988  56.2156035 108.6210298  61.8467200
  55.7657238 107.6445406  63.2111676  57.3630012 106.7554997  62.1119988
  58.1004805 107.1771418  61.4407379  56.7115338 106.1042530  61.5473350
  58.1390012 105.8484997  63.0649988  59.4160012 106.5104997  63.5699988
  59.9734746 106.8787582  62.7197382  59.9964237 105.7622609  64.0889866
  59.1528744 107.3036631  64.2536456  57.2430012 105.5494997  64.2609988
  56.2821795 105.2207107  63.8957133  57.1526000 106.4363911  64.8623483
  57.7140492 104.7596700  64.8280789  58.4990012 104.5034997  62.5979988
  57.6003774 103.9671866  62.3316799  59.0124938 103.9787940  63.3896169
  59.1470478 104.5821066  61.7370159  55.5030012 110.4994997  63.5179988
  57.9470012 111.3874997  63.3939988  54.9670012 109.7754997  67.3859988
  53.7100012 109.7484997  67.4129988  52.9400012 109.0074997  66.7669988
  53.2370012 110.8674997  68.4359988  52.6128511 111.5613916  67.8823710
  52.5884667 110.4135463  69.1811406  54.4270012 111.5684997  69.0949988
  55.2555291 111.6442762  68.3993980  54.1771375 112.5866081  69.3761684
  54.8920012 110.7624997  70.3639988  54.0357383 110.4317303  70.9462869
  55.4137252 109.8607350  70.0530492  55.8050012 111.5684997  71.2139988
  56.7816385 111.1014006  71.1012865  55.8801044 112.5467785  70.7454563
  55.5310012 111.7554997  72.7049988  56.1444074 112.5732361  73.0777466
  54.4971552 112.0744932  72.8224156  55.7630012 110.5024997  73.5769988
  55.4656004 109.5957958  73.0524590  56.8076249 110.3725856  73.8457024
  54.8710012 110.6484997  74.9689988  54.8186780 111.7019327  75.2182400
  53.8536860 110.3378711  74.7346364  55.3610012 109.8434997  76.1299988
  55.2183426 108.7792911  76.0174706  55.9830012 110.2874997  77.3189988
  56.2757646 109.5574699  78.0599145  56.3170012 111.7564997  77.7089988
  57.1474469 111.7425097  78.4128348  56.6556250 112.3269023  76.8512950
  55.1230012 112.4924997  78.3799988  55.3179302 113.5614033  78.4584384
  54.2266162 112.3916219  77.7710844  54.8450012 111.9044997  79.8089988
  53.9029276 112.3298140  80.1549933  54.6741395 110.8371409  79.6992012
  55.9190012 112.1404997  80.8629988  56.7516561 111.4904235  80.6037079
  56.2762731 113.1601954  80.7300992  55.5350012 111.9334997  82.3029988
  56.3913686 112.1377842  82.9429149  54.7684213 112.6452432  82.5969401
  55.0780012 110.5524997  82.5809988  54.2336865 110.3028666  81.9409214
  55.8660225 109.8444805  82.3308682  54.6670012 110.3264997  84.0389988
  54.5369621 109.2654704  84.2370437  55.4860487 110.6486572  84.6782864
  53.4470012 111.0514997  84.4319988  53.2501331 110.9281101  85.4926999
  52.5735768 110.6960165  83.8958060  53.5445439 112.1154143  84.2352450
  28.6950012  89.6444997  80.0359988  28.2422403  89.8087275  81.0088635
  28.1914409  90.2907798  79.3228795  29.7314611  89.9651549  80.0955219
  28.5980012  88.1974997  79.6239988  27.5385840  87.9476535  79.6443742
  29.0608005  87.6303590  80.4271066  29.1900012  87.7764997  78.2709988
  28.7585008  88.4189800  77.5035645  28.8288896  86.7717687  78.0605584
  30.7220012  87.7824997  78.1349988  31.1451304  87.5212266  79.1024428
  31.0503353  88.7997058  77.9271664  31.2900012  86.8514997  77.0929988
  30.8914537  85.8542165  77.2608059  32.3643374  86.7825082  77.2555005
  31.0290012  87.2464997  75.6669988  29.9730581  87.0164643  75.5370562
  31.5757382  86.4968107  75.0990004  31.3180012  88.6224997  75.0889988
  32.2715969  89.0333206  75.4155739  30.5629181  89.3636222  75.3474886
  31.3430012  88.4304997  73.5339988  30.8340746  89.2725502  73.0666705
  30.7639966  87.5452036  73.2777009  32.7760012  88.2984997  72.9339988
  33.3033453  87.4696684  73.4014255  33.3590209  89.1919465  73.1540389
  32.7340012  88.0814997  71.4069988  33.7331960  87.8739706  71.0303816
  32.4003940  88.9885838  70.9036763  31.7670012  86.9034997  71.0399988
  30.7493560  87.2366563  71.2322122  31.9503165  86.0798110  71.7277927
  31.8420012  86.3804997  69.5859988  32.8816050  86.2848511  69.2821992
  31.3958087  87.1132810  68.9162124  31.0850012  84.9904997  69.3969988
  30.0127060  85.1756429  69.3629843  31.2555225  84.3468987  70.2554709
  31.4680012  84.2494997  68.1439988  32.5514635  84.1963531  68.1690963
  31.2052147  84.9342248  67.3420095  30.9050012  82.8694997  67.8089988
  29.8226097  82.8910555  67.8112303  31.2397537  82.1387375  68.5356324
  29.4290012  82.9224997  67.4909988  28.6020012  83.2214997  68.2639988
  29.1560012  82.4184997  66.2429988  27.8040012  82.4204997  65.8099988
  27.2417687  82.2763445  66.7202603  27.6023207  81.6000715  65.1366381
  27.4330012  83.7764997  65.1589988  26.3556776  83.7606177  65.1629657
  27.9420012  83.9864997  63.7399988  27.4467629  83.3378437  63.0302203
  29.0078598  83.8008238  63.6946689  27.6640012  85.3474997  63.4469988
  28.3170012  85.8964997  62.1659988  29.7870012  86.2184997  62.5919988
  30.3680012  86.0404997  63.8899988  30.8957052  85.1039710  64.0150249
  29.6095681  86.0727768  64.6668736  31.3260012  87.2824997  64.1879988
  31.8908279  87.5118228  63.2932191  32.0155201  87.0068042  64.9728125
  30.7030012  88.5814997  64.6229988  29.5990012  88.9114997  63.7009988
  29.9676208  88.8529869  62.6860949  29.2776018  89.9202669  63.9135806
  28.7820455  88.2269259  63.8732175  30.1750012  88.3894997  66.0169988
  30.9557310  87.9551505  66.6224042  29.3075104  87.7551277  65.9795560
  29.9089688  89.3645537  66.3988278  31.6750012  89.7804997  64.5919988
  32.5186196  89.5710120  65.2327053  31.1620224  90.6622058  64.9456894
  32.0157066  89.9424933  63.5795202  28.3940012  84.8754997  61.0759988
  27.5990012  87.1824997  61.8869988  27.8970012  84.8774997  65.9749988
  27.0230012  85.2294997  66.9709988  25.9750012  84.7124997  67.2729988
  27.5270012  86.5634997  67.5549988  28.5780382  86.3924086  67.7638095
  27.4988169  87.2871155  66.7441394  26.7700012  87.0874997  68.7939988
  25.9466935  87.6968119  68.4376786  26.3189420  86.2378388  69.2966469
  27.6330012  87.9324997  69.8299988  28.5847352  87.4697558  70.0784429
  27.8677287  88.9247273  69.4525702  26.7600012  88.0824997  71.1139988
  25.8324862  88.5913484  70.8580789  26.4746723  87.1085683  71.5041873
  27.4870012  88.9134997  72.2769988  28.3154165  88.3601439  72.7145218
  27.9114184  89.8372519  71.8884979  26.4800012  89.2604997  73.3659988
  26.9672665  89.9501818  74.0534666  25.6568238  89.8075916  72.9150137
  25.8870012  88.0334997  74.1849988  25.0157106  88.3837381  74.7260772
  25.5260286  87.3029523  73.4622641  26.8590012  87.3574997  75.1049988
  27.0702291  87.9195485  76.0022378  27.4970012  86.1264997  74.9619988
  28.1521568  85.7819295  75.7491788  27.3770012  85.1594997  73.7819988
  26.7571620  84.3221374  74.0979812  26.8587204  85.6240404  72.9505735
  28.7690012  84.5854997  73.2809988  28.5645374  83.9132359  72.4485560
  29.3245127  85.4236044  72.8645299  29.6790012  83.8364997  74.3599988
  30.6213728  83.5346872  73.9028861  29.9373894  84.5123484  75.1705344
  28.9810012  82.6084997  74.9269988  28.0059526  82.9460814  75.2711846
  28.7929783  81.9393015  74.0892004  29.7130012  81.8084997  76.0789988
  28.9814625  81.0874401  76.4388798  30.4870297  81.2256969  75.5872206
  30.3010012  82.5404997  77.3049988  30.7864375  81.8160139  77.9564241
  31.0841157  83.2192542  76.9720454  29.3250012  83.3074997  78.1019988
  28.8243219  84.0211169  77.4523945  28.5566242  82.6054153  78.4182065
  29.8610012  84.0284997  79.3269988  29.0527133  84.4866694  79.8889776
  30.5589534  84.8152989  79.0613851  30.3766787  83.3402270  79.9906993
  35.5190012  51.7784997  83.5899988  35.9166321  52.0544764  84.5616754
  34.5230050  52.2037519  83.5066791  36.1412672  52.2477755  82.8329141
  35.4900012  50.3194997  83.4199988  34.8852693  49.8895344  84.2166369
  36.4980409  49.9398265  83.5632401  34.9420012  49.8594997  82.0689988
  35.2986242  48.8633436  81.8074224  35.2758390  50.5183303  81.2698332
  33.4560012  49.8584997  82.0889988  33.1206153  50.8883584  82.1897823
  33.1178410  49.3421832  82.9860891  32.7660012  49.2294997  80.8399988
  31.6985259  49.1413526  81.0252003  33.1391440  48.2144321  80.7144307
  32.9710012  49.9734997  79.6029988  33.8502003  50.5884310  79.7865343
  32.1279851  50.6585063  79.5424433  33.1270012  49.2664997  78.2939988
  32.9808332  50.0051663  77.5080111  32.3011907  48.5617797  78.2066092
  34.4330012  48.5374997  78.0579988  34.4893343  47.7203141  78.7759718
  35.2431558  49.2194436  78.3095656  34.6560012  47.9894997  76.6549988
  33.8856869  47.2565363  76.4249517  35.6041942  47.4544352  76.6201709
  34.6530012  49.0794997  75.5849988  35.4892982  49.7568164  75.7435809
  33.7504032  49.6844226  75.6675467  34.7300012  48.4514997  74.1239988
  33.8010186  47.9254044  73.9148192  35.5173996  47.7006481  74.0872077
  34.9700012  49.5184997  72.9739988  34.3370743  50.3943074  73.0947602
  34.7332498  49.1050046  71.9954076  36.4530012  49.9304997  72.9879988
  37.0594306  49.0263453  72.9884064  36.6819892  50.4508207  73.9137982
  36.9140012  50.8294997  71.7599988  36.9027730  50.2601309  70.8363981
  37.9375842  51.1613609  71.9124387  36.0140012  52.0714997  71.6009988
  35.9835718  52.6379867  72.5230658  35.0045678  51.7753859  71.3413259
  36.3490012  52.6634997  70.2279988  37.4590012  52.7184997  69.7429988
  35.2790012  52.9474997  69.6499988  35.4220012  53.4114997  68.3019988
  36.2346921  54.1219934  68.3159290  34.5125691  53.9206868  68.0176509
  35.7340012  52.2694997  67.3369988  36.7023815  51.9055691  67.6381433
  35.7220012  52.5354997  65.7979988  36.4842667  51.9328455  65.3230669
  35.9606038  53.5805908  65.6449032  34.4390012  52.2344997  65.2559988
  33.3790012  53.3014997  64.8279988  33.0020012  52.8134997  63.3249988
  34.0680012  52.5834997  62.4459988  34.8466305  53.3090518  62.6422115
  33.7041725  52.7858401  61.4427620  34.6510012  51.1394997  62.3859988
  35.2405579  50.9986836  63.2831290  35.2972312  51.0372806  61.5261645
  33.6940012  49.9604997  62.3309988  32.8730012  49.7844997  63.6139988
  33.5486001  49.7801814  64.4583218  32.3600195  48.8361678  63.5538615
  32.1503369  50.5839397  63.6800971  32.7110012  50.2534997  61.2169988
  33.2662484  50.5308094  60.3340980  32.0505090  51.0422441  61.5300521
  32.1512272  49.3477874  61.0335991  34.4650012  48.6284997  62.0879988
  35.0183729  48.7014993  61.1635894  33.7572458  47.8157870  62.0229555
  35.1450368  48.4505490  62.9085596  32.2340012  53.0844997  65.7299988
  34.0130012  54.6294997  64.9619988  34.7180012  51.2554997  67.6039988
  35.1280012  49.9964997  67.7399988  36.2640012  49.6544997  67.5379988
  34.0590012  49.0374997  68.1429988  33.5060000  48.8625134  67.2258714
  34.5681007  48.1032041  68.3661949  33.1230012  49.4614997  69.3169988
  32.8477105  48.5800741  69.8856507  33.6647529  50.1043976  70.0034536
  31.8710012  50.1554997  68.8459988  32.0880135  51.1511980  68.4676544
  31.4266325  49.6071644  68.0189982  30.8710012  50.2354997  69.9579988
  29.8792413  50.2402527  69.5095617  30.9290525  49.3303947  70.5576795
  30.9830012  51.4074997  70.8509988  32.0356728  51.6040696  71.0437256
  30.6056002  52.2767397  70.3158621  30.2000012  51.2844997  72.2469988
  29.1716086  50.9701080  72.0759207  30.6484663  50.5305827  72.8879404
  30.2030012  52.6724997  73.0169988  29.3608097  53.2517978  72.6568500
  30.0030294  52.4604137  74.0664638  31.5160012  53.4784997  72.9179988
  31.6098052  54.1059824  72.0444885  32.5360012  53.4934997  73.7959988
  33.4224926  54.0548039  73.5377729  32.6080012  52.8214997  75.1219988
  31.7853606  52.1222672  75.2618466  33.5176632  52.2604454  75.3047943
  32.4780012  53.9164997  76.1539988  33.4297888  54.4327410  76.2735819
  31.7698009  54.6639720  75.8015836  31.9940012  53.3614997  77.5649988
  30.9086188  53.4555428  77.5997540  32.2077610  52.2967442  77.5982628
  32.6030012  54.0464997  78.8049988  32.5406553  55.1295355  78.7256802
  32.0706804  53.7769781  79.7155358  34.0790012  53.6114997  78.9309988
  34.1419227  52.5249341  78.9285089  34.6475216  53.9436492  78.0666573
  34.7490012  54.1274997  80.2409988  34.1658160  53.7849495  81.0938982
  35.7285456  53.6630621  80.3391025  34.9110012  55.5754997  80.3409988
  35.4481559  55.9693408  79.4817730  33.9286856  56.0420863  80.3151901
  35.6270012  56.0034997  81.6319988  35.6530701  57.0856502  81.7176706
  36.6521482  55.6501854  81.6633595  35.1169787  55.6144668  82.5087379
 111.1200012  58.0724997  83.9949988 111.5022886  58.6536508  84.8283946
 110.1626892  57.6551610  84.2936158 110.9376702  58.7568802  83.1709898
 112.0790012  56.9964997  83.5979988 112.2617212  56.3423566  84.4488297
 113.0359603  57.4465613  83.3480232 111.5530012  56.1384997  82.3899988
 110.6316329  55.6409238  82.6923690 112.2752578  55.3465250  82.2021358
 111.3110012  56.8984997  81.0769988 110.5097688  57.6110826  81.2600348
 110.9238982  56.1910053  80.3453507 112.5430012  57.6714997  80.4569988
 113.4201471  57.0338557  80.3821786 112.8290418  58.5118355  81.0873807
 112.1850012  58.1854997  79.0649988 112.9299722  58.9213194  78.7676700
 111.2387417  58.7187079  79.1271193 112.0850012  57.1064997  77.9899988
 111.3158681  56.3768692  78.2366639 113.0169850  56.5493044  77.9053248
 111.7360012  57.7904997  76.5549988 112.6344428  58.2452070  76.1396738
 111.0241932  58.6011054  76.6996771 111.1390012  56.7474997  75.5029988
 110.6026342  57.2570062  74.7053431 110.4187735  56.0805567  75.9752659
 112.3010012  55.8994997  74.8869988 113.0046662  55.6130440  75.6655215
 112.8645352  56.4973354  74.1711421 111.7490012  54.6254997  74.1699988
 110.9188587  54.2057913  74.7341348 112.5064545  53.8451057  74.1212381
 111.2620012  54.9404997  72.7639988 112.1002877  55.3389320  72.1976541
 110.5346773  55.7468258  72.8382162 110.6150012  53.7594997  71.9989988
 109.9390544  53.1918041  72.6362348 111.3398453  53.0477051  71.6140008
 109.7640012  54.3494997  70.7789988 109.5765955  55.4122543  70.8920333
 108.7937074  53.8637697  70.7182672 110.5000012  54.1114997  69.4889988
 110.7274318  53.0596521  69.3709606 111.4274793  54.6715448  69.4747565
 109.7850012  54.9614997  68.4069988 108.5750012  54.9914997  68.1509988
 110.7480012  55.5974997  67.7129988 110.2330012  56.6494997  66.8619988
 109.6191556  57.3445482  67.4147765 109.6271079  56.1625784  66.1116701
 111.4140012  57.3784997  66.2229988 111.0764159  58.1702779  65.5749112
 112.3340012  56.4034997  65.4319988 112.9951637  56.9677985  64.7883903
 111.7014183  55.7768580  64.8157650 113.0830012  55.6094997  66.3399988
 113.6570012  54.3284997  65.7799988 113.5030012  54.3864997  64.1969988
 113.3680012  53.0964997  63.4619988 112.4553780  52.6147124  63.7878653
 114.1858895  52.4632567  63.7934487 113.4670012  53.1124997  61.9179988
 112.4449463  53.1960706  61.5706247 113.8959862  52.2043445  61.5197488
 114.2130012  54.2404997  61.2669988 115.5220012  54.5214997  61.9319988
 115.3525734  54.6339202  62.9940674 115.9107577  55.4435898  61.5261439
 116.2053068  53.7139158  61.7160852 114.5150012  53.9134997  59.7979988
 113.6018747  53.5860242  59.3250570 115.2740396  53.1529009  59.7565231
 114.8693409  54.8211785  59.3312446 113.3300012  55.4684997  61.2569988
 112.4170017  55.2456521  60.7251595 113.8496576  56.2750143  60.7618813
 113.1008409  55.7562163  62.2729416 115.1280012  54.1964997  66.0319988
 112.7560012  53.1684997  66.1999988 112.2510012  57.9124997  67.2999988
 111.8530012  58.9684997  67.9879988 110.7060012  59.3534997  68.0499988
 112.9600012  59.6094997  68.8679988 113.9160869  59.3629794  68.4177979
 112.8778283  60.6923647  68.8174226 112.8670012  59.1324997  70.2669988
 113.5021058  59.7358284  70.9062933 111.8574225  59.2535440  70.6466462
 113.3160012  57.5834997  70.3849988 112.5902394  57.0745859  71.0142290
 113.2142062  57.1498791  69.3931943 114.7630012  57.3054997  70.9039988
 115.4748718  57.8190762  70.2604265 114.8998247  57.7197622  71.8999244
 115.1250012  55.8214997  70.9329988 116.1154412  55.6924380  71.3645919
 114.4355812  55.3029921  71.5964979 115.0770012  55.1224997  69.5009988
 114.0864624  55.2082667  69.0569514 115.7685642  55.5787559  68.7982265
 115.4430012  53.6194997  69.6539988 115.5897223  53.1598380  68.6835535
 116.3876520  53.5192313  70.1868468 114.3740012  52.9084997  70.4339988
 113.4204195  52.8393741  69.9325433 114.4690012  52.3364997  71.6789988
 113.6129243  51.8015632  72.0644665 115.6760012  52.3534997  72.6279988
 115.6804852  51.3887081  73.1323580 116.5881640  52.3945559  72.0432301
 115.7060012  53.4624997  73.7049988 116.1514974  54.3860610  73.3372045
 114.7045070  53.7223529  74.0425558 116.5090012  52.9474997  74.8799988
 116.2526789  51.8900778  74.9453050 117.5444083  52.9893557  74.5533734
 116.3820012  53.6034997  76.3129988 117.1989010  53.2382716  76.9314065
 116.5253159  54.6789390  76.2236901 115.0370012  53.3274997  77.0039988
 114.2261467  53.4757650  76.2932791 114.9773014  52.2864376  77.3093687
 114.7850012  54.2334997  78.1949988 115.2313231  55.2103204  78.0175138
 113.7158580  54.4057142  78.3050402 115.3500012  53.6604997  79.5739988
 114.8471243  52.7313004  79.8301602 116.3962543  53.4004950  79.4288611
 115.2440012  54.6414997  80.7529988 115.7212908  54.2328080  81.6385690
 114.2123016  54.8567951  81.0098739 115.7299899  55.5849384  80.5208796
  49.0410012  37.1764997  81.8799988  48.9346740  37.3617897  82.9443254
  48.0944580  36.7882864  81.5151200  49.2135591  38.1327382  81.3937440
  50.2470012  36.1484997  81.5819988  50.0438452  35.2251030  82.1216923
  51.1512285  36.5643131  82.0182167  50.4640012  35.8434997  80.1789988
  51.1940919  35.0420281  80.0670168  50.8863393  36.7086068  79.6716615
  49.1380012  35.4394997  79.4509988  48.6792680  36.3162882  78.9992734
  48.4092462  35.0494347  80.1598510  49.3820012  34.4224997  78.3809988
  48.4430471  34.1519232  77.9048406  49.7674820  33.5115714  78.8359484
  50.3660012  34.9064997  77.3029988  50.6350612  34.0587285  76.6755375
  51.2838584  35.2268775  77.7913358  49.8290012  36.0674997  76.4009988
  49.7749759  36.9600375  77.0216657  48.8025449  35.8202878  76.1335967
  50.6370012  36.3904997  75.1019988  50.7734523  35.4764503  74.5255043
  51.6348161  36.7313237  75.3719770  49.9530012  37.4644997  74.2069988
  49.3906727  38.1302016  74.8582810  49.2178017  36.9581156  73.5827921
  50.8460012  38.2574997  73.3559988  51.5874280  38.7761628  73.9597982
  50.2893795  39.0299885  72.8260343  51.5520012  37.3364997  72.3219988
  50.7824715  36.6965177  71.8956325  52.2197341  36.6785549  72.8755052
  52.3280012  37.9934997  71.1699988  51.7410075  38.7828573  70.7067796
  52.5311270  37.2660029  70.3863162  53.6920012  38.5674997  71.6859988
  54.1361652  37.8579095  72.3820247  53.5338096  39.4847688  72.2462368
  54.6840012  38.8264997  70.5949988  54.8211888  37.9246010  70.0075438
  55.6437501  39.0534433  71.0515845  54.2990012  39.9904997  69.6559988
  54.1242866  40.8946609  70.2252161  53.3989254  39.7479452  69.1036403
  53.6600012  39.6604997  68.2479988  52.9810012  40.4284997  67.6089988
  53.9920012  38.4094997  67.9029988  53.7910012  38.1014997  66.5279988
  54.1447025  38.9626929  65.9814609  52.7488375  37.9385830  66.2944497
  54.6400012  36.8554997  66.1739988  55.6681171  37.1503637  66.3041017
  54.3770012  36.4734997  64.6589988  55.2124230  36.8534299  64.0867013
  53.4859716  37.0204741  64.3770939  54.1980012  35.0564997  64.4149988
  53.4390012  34.5704997  63.1499988  52.4390012  35.7054997  62.8289988
  51.2040012  35.4214997  62.1179988  51.2967837  34.5736787  61.4518306
  50.9316502  36.2713560  61.4988331  50.0160012  35.2334997  63.0959988
  50.2238153  34.3853385  63.7360652  49.1345457  35.0181897  62.5094368
  49.6320012  36.3624997  64.0219988  49.4510012  37.7064997  63.2429988
  50.3295616  37.8743192  62.6352965  49.3528846  38.5010509  63.9676790
  48.5532674  37.6474637  62.6460851  48.3100012  36.0524997  64.6659988
  48.3534005  35.0545150  65.0744802  47.5312226  36.1426304  63.9299618
  48.1603374  36.7712778  65.4586246  50.7760012  36.5324997  65.0089988
  50.9290288  35.6043435  65.5392729  50.5255767  37.3134725  65.7111519
  51.6759692  36.8016566  64.4751007  54.3590012  34.3094997  62.0059988
  52.6910012  33.4094997  63.6249988  54.3780012  35.7034997  67.0219988
  55.2950012  35.5194997  67.9329988  56.2670012  36.2524997  68.1689988
  54.9040012  34.2464997  68.7099988  54.0340912  34.5258474  69.2954682
  54.5512679  33.5217844  67.9804277  56.0500012  33.6364997  69.6089988
  55.7324823  32.6547653  69.9428258  56.9296956  33.4744536  68.9942535
  56.4340012  34.5244997  70.8839988  57.3881021  34.1490595  71.2450943
  56.6273457  35.5223826  70.4981069  55.4140012  34.6364997  72.0739988
  54.4527894  34.9576976  71.6769976  55.2474896  33.6586168  72.5192189
  55.8330012  35.6174997  73.1759988  56.8857569  35.4508749  73.3947281
  55.7652622  36.6206987  72.7596046  54.9990012  35.5714997  74.5299988
  53.9509514  35.7395626  74.2870016  55.0592145  34.5727537  74.9533175
  55.4560012  36.6174997  75.6309988  54.7915447  36.4975066  76.4787483
  56.4431484  36.3042284  75.9682634  55.5310012  38.0804997  75.1919988
  56.1165043  38.3729720  74.3333952  54.8550012  39.0704997  75.8519988
  54.9800238  40.0779152  75.4817378  53.9430012  38.9634997  77.0359988
  52.9221101  39.0070529  76.6603586  54.0522368  37.9926255  77.5062668
  54.1140012  40.0684997  78.0969988  53.8765776  41.0147308  77.6122496
  53.3356455  39.9046450  78.8398131  55.4750012  40.1824997  78.8069988
  56.2184525  40.3466986  78.0269822  55.4489442  41.0936458  79.3983005
  55.9250012  39.0024997  79.6989988  56.2925211  38.2264960  79.0312470
  56.7846435  39.3402684  80.2752038  54.8970012  38.4304997  80.6329988
  54.9743177  38.9587380  81.5814588  53.9090802  38.6617541  80.2442076
  55.0130012  36.8884997  80.9269988  56.0564994  36.6240558  81.0884418
  54.4955723  36.6560801  81.8560211  54.4520012  35.9964997  79.8249988
  53.4153002  36.2572449  79.6270644  54.9932976  36.2186754  78.9079660
  54.5550012  34.4964997  80.1049988  54.2202205  33.9204758  79.2475680
  53.9474413  34.1996754  80.9532365  55.5807680  34.2083714  80.3169551
  83.5630012  32.6774997  80.6779988  83.8331483  31.8976735  81.3832084
  82.6323541  32.3845853  80.2006235  83.3704069  33.5838905  81.2454273
  84.6720012  32.9004997  79.6419988  84.8304040  31.9293409  79.1762067
  85.5642019  33.1076947  80.2266885  84.5050012  33.9294997  78.5819988
  84.2911705  34.9032873  79.0223884  83.6457370  33.6847275  77.9607719
  85.7300012  34.0414997  77.6879988  86.0863964  33.0292305  77.5103935
  86.5115794  34.5404460  78.2588701  85.5590012  34.7504997  76.3269988
  85.6867343  35.8200868  76.4727401  84.5295605  34.6071087  76.0028754
  86.4980012  34.2884997  75.2289988  86.3995495  35.0165038  74.4257963
  86.0802324  33.3584641  74.8494199  87.9710012  34.0844997  75.5439988
  88.0491972  33.3907819  76.3791102  88.3797915  35.0309022  75.8953429
  88.8210012  33.5684997  74.3759988  89.8229012  33.9928011  74.4271423
  88.3982505  33.9006623  73.4296194  88.9250012  31.9494997  74.3759988
  87.9606218  31.4634414  74.5073793  89.5683449  31.5662466  75.1670758
  89.5220012  31.5494997  72.9859988  90.4790827  32.0460307  72.8419473
  88.8712695  31.9032356  72.1867190  89.6950012  30.0264997  72.8599988
  88.7256624  29.5543104  73.0047766  90.3294639  29.6682996  73.6688732
  90.2730012  29.5474997  71.5079988  90.2852669  28.4627780  71.4341917
  91.3041527  29.8723854  71.3821190  89.4320012  30.1424997  70.3779988
  89.5458571  31.2239946  70.3264465  88.3684424  29.9537540  70.4941527
  89.9000012  29.5554997  69.0469988  89.8133903  28.4739068  69.0475751
  90.9506774  29.7867783  68.8931102  89.0800012  30.1374997  67.8449988
  89.1248283  31.2191792  67.8440901  88.0424916  29.8325169  67.9130308
  87.8230012  29.1804997  67.6759988  86.8510012  29.1934997  68.4489988
  87.9630012  28.5744997  66.5489988  86.8020012  27.8074997  66.1479988
  86.3072129  27.6907360  67.1003710  87.0632222  26.8321344  65.7637875
  85.9090012  28.5474997  65.1819988  85.1520212  27.8080762  64.9791975
  86.5080012  29.0764997  63.8389988  85.6829533  29.4156133  63.2273625
  86.9626055  28.2168416  63.3626502  87.4770012  30.1284997  64.0059988
  87.4740012  31.4964997  63.1829988  85.8980012  31.8364997  63.1919988
  85.5560012  33.1844997  62.9169988  85.2443259  33.3235017  61.8900002
  86.4265572  33.8174322  63.0630312  84.4950012  33.7244997  63.8949988
  84.3672247  34.7883544  63.7396438  84.8163065  33.5583324  64.9130991
  83.1030012  33.1214997  63.7929988  82.2840012  33.7964997  64.8199988
  82.8048968  33.7442646  65.7661875  81.3429712  33.2719398  64.8934809
  82.1074155  34.8163997  64.5128531  82.4860012  33.3394997  62.4769988
  83.1897324  33.0415841  61.7149471  82.2190935  34.3768458  62.3819030
  81.6021860  32.7200128  62.4279712  83.2000012  31.6544997  64.0759988
  83.8788413  31.2002223  63.3696772  82.2218426  31.2085488  63.9760798
  83.5643271  31.5045982  65.0820957  88.2630012  32.4324997  64.0289988
  87.9240012  31.2814997  61.7919988  85.3170012  29.5774997  65.9039988
  84.2440012  29.3414997  66.6859988  83.7190012  28.2564997  66.8719988
  83.7030012  30.5924997  67.3789988  84.5643424  31.2390488  67.5117331
  83.0578704  31.0992316  66.6656012  82.9640012  30.3334997  68.7109988
  82.6315609  31.2899664  69.0992201  82.0633303  29.7652702  68.5013795
  83.8040012  29.6084997  69.7969988  84.2106854  28.6826695  69.3981249
  84.6588523  30.2286837  70.0551968  82.9820012  29.3164997  71.1069988
  82.0541390  28.8300154  70.8118532  83.5227763  28.5958261  71.7155987
  82.6290012  30.5524997  71.9859988  82.2289076  31.3142203  71.3199599
  81.8040633  30.2466685  72.6265656  83.7580012  31.1854997  72.8859988
  83.9812036  30.4647883  73.6711465  84.6593966  31.2742715  72.2860623
  83.4650012  32.5024997  73.4989988  84.4407472  32.8596429  73.8071356
  83.1685508  33.1152804  72.6487265  82.4190012  32.6854997  74.6309988
  81.9565465  33.6607176  74.6562886  82.0170012  31.7894997  75.5589988
  81.2267931  32.1667851  76.1921156  82.4500012  30.3594997  75.8869988
  81.5102805  29.8234555  76.0086658  82.9115498  29.9631301  74.9894772
  83.3440012  30.0474997  77.1029988  84.1630773  30.7656258  77.1136794
  82.7575453  30.2430954  77.9986945  83.9160012  28.6104997  77.1729988
  83.1188948  27.8739796  77.0716744  84.6082554  28.4229759  76.3568352
  84.6480012  28.3924997  78.5369988  84.0579480  28.8086684  79.3505009
  84.7553508  27.3305980  78.7513022  86.1190012  29.0844997  78.5079988
  86.5628339  28.9693090  77.5209154  86.0427804  30.1552940  78.6759716
  87.1120012  28.4354997  79.5699988  87.0204191  28.9553779  80.5219559
  86.8176189  27.4048335  79.7594725  88.6190012  28.4504997  79.1369988
  88.7192201  28.3292491  78.0612806  89.0420319  29.4262794  79.3654980
  89.4330012  27.3934997  79.8389988  90.4848896  27.4857004  79.5858216
  89.1193824  26.3917944  79.5651908  89.3432759  27.4839912  80.9178415
 103.5710012 102.9524997  83.4659988 102.8567696 102.2002085  83.7859368
 103.1345556 103.9278414  83.6609700 104.4543577 102.8566074  84.0913769
 103.9250012 102.7894997  81.9829988 102.9979904 102.8517160  81.4155632
 104.2965170 101.7769556  81.8505432 104.9470012 103.8144997  81.4079988
 105.9247850 103.6496480  81.8604275 104.6442886 104.8174712  81.7022506
 105.0820012 103.7764997  79.8959988 105.6593438 104.6336020  79.5564385
 104.1058953 103.8633465  79.4212556 105.7810012 102.4794997  79.4019988
 105.0578472 101.6750344  79.2949615 106.5011724 102.1457872  80.1472198
 106.5260012 102.6924997  78.0099988 107.2803774 103.4614877  78.1661745
 105.7991405 103.1152334  77.3196751 107.1750012 101.4744997  77.3709988
 106.4318995 100.6864084  77.2638443 107.9397834 101.0825989  78.0401414
 107.8070012 101.7704997  75.9919988 108.6224032 101.0784596  75.7854775
 108.2425851 102.7677867  75.9727826 106.7550012 101.6574997  74.8829988
 105.9020823 101.1442139  75.3218702 107.1672768 100.9784747  74.1376593
 106.2810012 102.9234997  74.1979988 107.0388742 103.1782729  73.4604230
 106.3050490 103.7152262  74.9463434 104.8390012 102.8934997  73.5119988
 104.6477919 103.8612669  73.0532977 104.0741871 102.7647705  74.2759465
 104.6630012 101.7574997  72.3889988 103.6289745 101.7464617  72.0530135
 104.8449032 100.7859391  72.8446870 105.5700012 101.9144997  71.2359988
 106.5784760 101.6985881  71.5847290 105.5702605 102.9572394  70.9310925
 105.2850012 101.0024997  69.9649988 104.4872500 101.4353884  69.3704019
 104.9334356 100.0315248  70.3036749 106.5140012 100.7934997  69.0809988
 107.3348922 100.3925992  69.6619099 106.8260605 101.7328783  68.6402543
 106.4110012  99.4594997  68.2549988 106.0150012  98.4264997  68.7449988
 106.9430012  99.6694997  67.0599988 106.8980012  98.5784997  66.0949988
 106.8758560  97.6994036  66.7212270 107.7121752  98.4897857  65.3904120
 105.5440012  98.7484997  65.3599988 105.5513557  98.0081060  64.5772746
 105.4320012 100.2304997  64.7149988 104.7150402 100.2359443  63.9052221
 106.4017735 100.5086975  64.3216382 105.0360012 101.1304997  65.7329988
 104.6610012 102.6524997  65.3369988 103.6300012 102.2744997  64.1529988
 102.2770012 102.7054997  64.1839988 102.1925286 103.6898971  64.6256040
 101.7101816 102.0325366  64.8208922 101.5560012 102.6504997  62.7759988
 101.1085498 103.6192277  62.5926895 100.7681431 101.9197670  62.8886330
 102.2490012 102.3014997  61.5589988 103.3940012 103.3174997  61.2369988
 102.9879199 104.3189634  61.2757589 103.7537110 103.1092568  60.2403324
 104.1950583 103.1795766  61.9476334 102.7380012 100.8904997  61.5749988
 101.9205599 100.2477324  61.8637098 103.5614965 100.8121102  62.2620799
 103.0628032 100.6497873  60.5730715 101.2700012 102.3924997  60.4739988
 100.4466504 101.7251951  60.6810737 101.7419403 102.1078286  59.5456207
 100.9082133 103.4078337  60.3988893 104.0060012 103.3154997  66.4929988
 105.7670012 103.3944997  64.6589988 104.4630012  98.3944997  66.2299988
 103.2870012  98.3214997  65.7099988 102.9070012  98.1544997  64.5439988
 102.2830012  98.2234997  66.8639988 101.2940104  98.0678706  66.4453940
 102.4903371  97.3460014  67.4713830 102.3570012  99.5284997  67.7179988
 103.3975027  99.7221213  67.9544904 102.0261398 100.3659041  67.1119314
 101.5420012  99.4754997  69.0289988 100.6187463  98.9740285  68.7501060
 102.0956487  98.7708819  69.6446717 101.2250012 100.7444997  69.8859988
 102.1094155 100.9703154  70.4788938 101.0772327 101.5947817  69.2246464
 100.0170012 100.6384997  70.8379988  99.7533371 101.5672979  71.3397120
  99.1090301 100.2895907  70.3499086 100.4330012  99.6224997  71.8589988
 100.6162994  98.6956172  71.3177117 101.3910553  99.9350944  72.2648742
  99.4740012  99.3484997  73.0219988  98.4960319  99.1977289  72.5799306
  99.7744951  98.3873354  73.4369839  99.4140012 100.3834997  74.1669988
  98.6165178 101.1000382  74.0399285 100.1960012 100.5094997  75.2909988
 100.0869553 101.2824251  76.0381971 101.3120012  99.5274997  75.5769988
 101.3451361  98.8099782  74.7588998 102.2757339 100.0243379  75.5842046
 101.1240012  98.7334997  76.9199988 100.1434017  98.2590472  76.9150507
 101.8520052  97.9248375  76.9431224 101.2760012  99.5914997  78.1989988
 102.3209467  99.8831514  78.3045217 100.7136354 100.5137769  78.0821505
 100.8140012  98.8634997  79.4939988 100.9178579  99.5685691  80.3157261
  99.7486868  98.6598388  79.4006578 101.5580012  97.5464997  79.8299988
 101.1906801  97.1498587  80.7746369 101.3394872  96.7870697  79.0842489
 103.1170012  97.7424997  79.9599988 103.5588809  98.2539514  79.1067448
 103.4030682  98.3183396  80.8382971 103.7430012  96.3454997  80.0689988
 103.4306736  95.7776725  79.1961077 104.8143613  96.4963440  79.9560983
 103.5040012  95.5514997  81.2789988 104.0765570  94.6292034  81.2541307
 102.4587601  95.2823569  81.3875085 103.7978366  96.0993263  82.1698903
 114.2480012  90.7444997  82.5369988 114.2819651  90.8121694  83.6199098
 113.2682001  90.3668477  82.2592238 114.3366950  91.7520477  82.1400198
 115.3350012  89.8634997  82.0139988 115.2025071  88.9000809  82.5033582
 116.2610709  90.2784103  82.4026607 115.4480012  89.6484997  80.4999988
 116.2515193  88.9468876  80.2763293 115.7229213  90.5847140  80.0182389
 114.1790012  89.1554997  79.8869988 113.4115881  89.9236606  79.9522369
 113.7927260  88.2963397  80.4332054 114.3760012  88.7634997  78.3619988
 115.2965150  88.1921830  78.2735423 114.5345277  89.6862453  77.8063236
 113.2670012  87.9934997  77.7299988 112.3427078  88.5680481  77.7101782
 113.0470920  87.0825802  78.2826674 113.6810012  87.6184997  76.2499988
 114.6726139  87.1702946  76.2742143 113.7773729  88.5396028  75.6768395
 112.7120012  86.6684997  75.5249988 112.6051231  85.7682586  76.1288151
 113.1774221  86.3553328  74.5922641 111.2970012  87.2564997  75.2219988
 111.4109506  88.2465449  74.7856880 110.7632694  87.3981914  76.1609508
 110.4550012  86.3864997  74.2899988 110.2232418  85.4456217  74.7843016
 111.0344418  86.1308017  73.4032654 109.1420012  87.0964997  73.8549988
 109.3695489  88.1534757  73.7343144 108.4352317  87.0318654  74.6804849
 108.4530012  86.5874997  72.5439988 107.8093290  87.3949352  72.2034801
 107.7911159  85.7780596  72.8462978 109.3310012  86.0964997  71.3969988
 108.6998904  85.6289344  70.6431195 110.0136510  85.3254602  71.7430642
 110.1620012  87.2434997  70.6939988 110.7947749  86.7823237  69.9428270
 110.8230016  87.6590032  71.4499930 109.3750012  88.3864997  70.0549988
 108.7109297  88.8407481  70.7793664 108.7844267  88.0197139  69.2238796
 110.3620012  89.5274997  69.6649988 111.4680012  89.7444997  70.1099988
 109.6650012  90.3374997  68.9159988 109.9640012  91.6914997  68.6009988
 110.6304420  91.9321451  69.4154976 109.1451016  92.3961671  68.5947362
 110.7110012  91.7184997  67.2879988 111.0037921  92.7549087  67.2560029
 109.8730012  91.3574997  65.9989988 108.9572503  91.9329714  66.0048006
 109.6225560  90.3062197  66.0673553 110.5950012  91.6074997  64.8439988
 110.0620012  91.0454997  63.3839988 111.1550012  89.8424997  63.1199988
 112.5150012  90.1474997  63.1149988 112.8920031  90.4740569  64.0754252
 112.7288650  90.9474134  62.4120071 113.3250012  88.8994997  62.5819988
 114.3144528  89.1790620  62.2427653 112.7899957  88.4488645  61.7585462
 113.5370012  87.7794997  63.6099988 114.3700012  88.1584997  64.7429988
 115.2851378  88.5955924  64.3677536 114.5973697  87.2638830  65.3034134
 113.8206073  88.8472968  65.3670516 112.2550012  87.2954997  64.1129988
 111.6154085  87.0806171  63.2707039 111.8238319  88.0441717  64.7532747
 112.4478945  86.3913693  64.6721386 114.3030012  86.6104997  62.8659988
 113.7162982  86.2822783  62.0209353 114.4443335  85.7873011  63.5501181
 115.2647334  86.9678541  62.5271715 108.6480012  90.5114997  63.4729988
 110.2250012  92.1494997  62.3299988 111.9250012  90.9394997  67.4029988
 113.0270012  91.5884997  67.9689988 112.9820012  92.6364997  68.5619988
 114.2490012  90.6794997  67.7419988 113.9149138  89.6617301  67.9154454
 114.5243264  90.7271839  66.6913660 115.4680012  91.0664997  68.6669988
 116.3860491  90.9346608  68.1049779 115.4140392  92.1229164  68.9101134
 115.5440012  90.2514997  69.9359988 115.4710188  89.2135287  69.6214453
 116.5614477  90.3890229  70.2937067 114.5770012  90.5184997  71.0969988
 113.5581089  90.5345879  70.7144996 114.6159001  89.7111581  71.8242460
 114.8330012  91.7954997  71.7889988 115.8181963  91.7381440  72.2472583
 114.8986349  92.5682305  71.0254804 113.7950012  92.2374997  72.8539988
 113.6515439  91.4559207  73.5984821 114.1231280  93.1202873  73.3956045
 112.3720012  92.5654997  72.1379988 112.5398032  93.0750293  71.1962971
 111.8671881  91.6312971  71.8955626 111.4650012  93.3874997  73.0559988
 111.2800483  94.3862292  72.6900949 110.8860012  93.0464997  74.1939988
 110.2451405  93.6814200  74.7887960 111.0930012  91.6414997  74.7789988
 111.7533618  91.1043877  74.1002827 111.6166615  91.7033457  75.7264353
 109.7360012  90.7654997  74.9679988 109.1081597  90.8120988  74.0789832
 109.9760687  89.7141943  75.1149127 108.9290012  91.2874997  76.2059988
 109.3102424  92.2778491  76.4549366 107.8956407  91.4277415  75.9010358
 108.9790012  90.3574997  77.5139988 108.5624061  89.3813622  77.2757778
 110.0139858  90.1841516  77.8035540 108.2130012  90.9824997  78.7069988
 108.7380129  91.9064818  78.9419661 107.2436422  91.2825429  78.3184860
 108.0330012  90.1864997  80.0279988 109.0151736  89.9517613  80.4343461
 107.5493654  90.8302526  80.7604690 107.2500012  88.9214997  79.9199988
 106.1789069  89.1051877  79.9505061 107.4429030  88.4549032  78.9564690
 107.6210012  87.9584997  81.0029988 107.1120348  87.0092068  80.8656477
 107.3538862  88.3312545  81.9860778 108.6897582  87.7638223  81.0031472
  63.8340012 111.0034997  82.5849988  64.1884286 111.6301578  83.3974701
  63.9481922 109.9677163  82.8914350  62.7716418 111.1941605  82.4598869
  64.5860012 111.2804997  81.3139988  65.6462342 111.1093668  81.4923874
  64.4826649 112.3363039  81.0785992  64.1080012 110.3844997  80.0629988
  64.7257989 110.6532004  79.2062288  63.0956062 110.6961435  79.8137890
  64.1190012 108.8464997  80.2379988  63.6662013 108.4021627  79.3543772
  63.4727597 108.5816628  81.0734264  65.4720012 108.2334997  80.4429988
  65.3580761 107.1558541  80.5282867  65.8533160 108.5773438  81.4030692
  66.4880012 108.5344997  79.3669988  67.4481084 108.1050468  79.6473223
  66.6419113 109.6097606  79.3061500  66.0920012 108.0204997  78.0319988
  65.1047477 108.4203925  77.8079757  65.9704171 106.9417893  78.1204927
  67.0380012 108.3284997  76.8679988  66.7530991 107.8279335  75.9434906
  68.0679520 108.0376042  77.0661532  66.9700012 109.9054997  76.6539988
  67.9324276 110.3156356  76.9524362  66.2402053 110.2987137  77.3606513
  66.6220012 110.3994997  75.2359988  66.7992711 111.4727424  75.2310511
  65.5476212 110.2670157  75.1111602  67.3380012 109.7534997  74.0789988
  67.3737380 108.6784153  74.2416561  68.3730355 110.0899962  74.0544648
  66.7030012 110.0084997  72.7439988  67.4508661 109.9202795  71.9596938
  66.3444924 111.0355557  72.7079781  65.5470012 109.0854997  72.4639988
  64.8093559 109.2131012  73.2544729  65.8793915 108.0528134  72.5218760
  64.8230012 109.3164997  71.0809988  64.4229652 110.3203967  70.9834946
  63.9885683 108.6317957  70.9545304  65.8390012 109.0644997  69.9519988
  66.2765468 108.0790067  70.0489442  66.6320795 109.8020044  69.9863862
  65.2740012 108.0684997  68.8359988  64.4500012 107.2384997  69.0549988
  65.7840012 108.3484997  67.6519988  65.2260012 107.7204997  66.4489988
  64.2702672 107.2979387  66.7200650  65.8959404 106.9231593  66.1615588
  65.0530012 108.7474997  65.2919988  64.8348567 108.1430143  64.4271841
  66.3090012 109.6334997  65.0169988  67.1438074 108.9722878  64.8280586
  66.4972731 110.1764455  65.9347942  66.1350012 110.5384997  63.9319988
  66.3220012 112.1254997  63.9669988  64.9050012 112.5094997  64.5409988
  64.3370012 113.7874997  64.6549988  64.9649471 114.5243187  64.1712936
  64.3048172 114.0535530  65.7076035  62.8830012 113.8954997  64.1669988
  62.5229197 114.8672665  64.4804626  62.3192645 113.1327575  64.6844950
  62.5120012 113.7704997  62.7189988  62.6430012 112.3144997  62.2719988
  63.6217784 111.9529326  62.5558975  62.5422729 112.2855579  61.1972354
  61.8523496 111.7360451  62.7258461  61.0550012 114.1884997  62.5139988
  60.9028157 115.1453298  62.9894246  60.4114983 113.4350148  62.9317722
  60.8898617 114.2729931  61.4496272  63.4590012 114.6204997  61.8969988
  63.3960101 115.6459602  62.2294815  63.1779067 114.5594856  60.8563676
  64.4690657 114.2571736  62.0202820  67.3390012 112.5204997  64.9049988
  66.3390012 112.6624997  62.6119988  63.9880012 109.7164997  65.5469988
  62.7030012 109.3534997  65.1919988  62.3230012 108.2844997  64.7339988
  61.6590012 110.4214997  65.6569988  61.6135110 111.1546798  64.8582932
  60.6838024 109.9413557  65.6758704  61.9730012 111.0464997  66.9679988
  63.0358591 111.2556609  67.0194337  61.4738488 112.0067816  67.0500872
  61.5920012 110.1804997  68.1129988  60.6812548 109.6636810  67.8212909
  62.3655606 109.4191482  68.1763611  61.4190012 110.8034997  69.4729988
  61.0453550 110.0375696  70.1500850  62.3874232 111.1075251  69.8627799
  60.4370012 112.0374997  69.5289988  60.9557108 112.9070517  69.1306012
  59.6154228 111.8350395  68.8446014  59.8390012 112.3884997  70.9439988
  59.2710628 113.3163111  70.8959055  59.1475933 111.6231687  71.2853808
  60.9810012 112.5364997  71.9989988  61.3730296 111.5510464  72.2221031
  61.7951798 113.0930476  71.5367072  60.5670012 113.2434997  73.2419988
  59.5540122 113.1013704  73.5872620  61.3480012 114.0264997  73.9699988
  60.9858161 114.5626084  74.8354578  62.8250012 114.2504997  73.6739988
  63.0085576 114.2483456  72.6009082  63.2157779 115.1906689  74.0469015
  63.6030012 113.0994997  74.2919988  63.2203139 112.1591850  73.8969496
  64.6379971 113.1679883  73.9625268  63.5620012 113.0634997  75.8699988
  62.5414359 113.2962354  76.1739519  63.7464931 112.0399242  76.1842598
  64.5290012 114.0004997  76.5939988  65.5097221 113.5304990  76.6147557
  64.6407694 114.9120206  76.0094284  64.0790012 114.3754997  78.0629988
  64.0798392 113.4620472  78.6547706  64.8400165 115.0145013  78.5024957
  62.6860012 115.0344997  78.2069988  62.6145137 115.9706138  77.6561242
  61.8911076 114.3973004  77.8236512  62.3980012 115.3304997  79.7509988
  62.9945587 114.6726403  80.3780994  62.7399012 116.3394355  79.9711482
  60.8990012 115.2114997  80.1539988  60.7532478 115.5080700  81.1883445
  60.5310751 114.1961264  80.0520745  60.2763520 115.8516936  79.5354515
  78.5650012 113.4524997  85.0419988  78.0779205 112.9953781  85.8976981
  79.6259426 113.2286933  85.1060613  78.1808520 112.9709795  84.1469123
  78.3170012 114.9744997  85.0029988  78.6825334 115.3911026  85.9400319
  77.2408783 115.1253976  85.0011387  78.9710012 115.7454997  83.8069988
  80.0469544 115.5716341  83.8119454  78.8377899 116.8133935  83.9683323
  78.4060012 115.3874997  82.4229988  77.3204402 115.3642234  82.4883100
  78.7138009 114.3771113  82.1582713  78.8010012 116.3324997  81.3229988
  79.1020877 115.7420026  80.4614693  79.6915256 116.8629198  81.6561439
  77.6880012 117.4014997  80.8599988  77.3236680 117.9747629  81.7105560
  76.8201721 116.8998713  80.4371292  78.2900012 118.3834997  79.7919988
  79.2830219 118.7238210  80.0798550  77.6798211 119.2795549  79.6871398
  78.3760012 117.6424997  78.3929988  79.0156517 116.7723378  78.5348319
  78.9105608 118.3053671  77.7151073  77.0410012 117.1954997  77.7269988
  76.3183506 118.0078672  77.7640967  76.6023519 116.3730705  78.2907132
  77.2450012 116.7524997  76.2449988  77.8945827 115.8802367  76.2226338
  77.7710365 117.5387578  75.7041532  75.9240012 116.4424997  75.5259988
  75.1772138 117.1961747  75.7664643  75.5109662 115.4913136  75.8573223
  76.1030012 116.4124997  74.0329988  76.6569264 117.2786578  73.6792249
  75.1410622 116.4384089  73.5244005  76.8400012 115.1074997  73.6329988
  76.4657083 114.2898355  74.2466617  77.9011505 115.1902054  73.8507048
  76.6510012 114.6944997  72.0849988  76.6758253 115.5839005  71.4639554
  75.6650760 114.2536640  71.9637248  77.6740012 113.7184997  71.5889988
  77.6901601 112.8354671  72.2151245  78.6597266 114.1683383  71.5967126
  77.2110012 113.1064997  70.2879988  76.0620012 112.8104997  69.9879988
  78.2980012 112.8944997  69.5719988  78.0790012 112.2854997  68.2849988
  77.4124735 111.4547580  68.4612688  79.0348845 111.9070649  67.9529352
  77.4430012 113.2914997  67.1909988  76.4438684 113.6236197  67.4197430
  77.4750012 112.6454997  65.7709988  76.4790193 112.6540530  65.3493970
  77.7940608 111.6171703  65.8864317  78.3590012 113.3384997  64.9469988
  79.6620012 112.5864997  64.6319988  80.5280012 113.5954997  63.8609988
  80.5470012 114.9904997  64.3339988  81.5500603 115.3931954  64.2801698
  80.2680862 114.9978191  65.3837368  79.5550012 115.9094997  63.6529988
  80.0887078 116.8495174  63.7144217  78.6339222 115.9959916  64.2111293
  79.1470012 115.7594997  62.1939988  78.1200012 114.7264997  61.8759988
  78.4258397 113.7881254  62.3178704  78.0717475 114.6241514  60.8020824
  77.1631226 115.0561992  62.2520287  78.4280012 117.0674997  61.8059988
  79.0460461 117.9000871  62.1052187  77.4677653 117.0969143  62.2891674
  78.3063977 117.0630908  60.7324578  80.4620012 115.5634997  61.3819988
  81.1086081 116.4134737  61.5417659  80.2221442 115.4834211  60.3323769
  80.9568575 114.6605313  61.7094135  80.3310012 112.1024997  65.8879988
  79.3380012 111.4894997  63.6089988  78.3000012 114.4234997  67.2739988
  77.7700012 115.5604997  66.8389988  76.6850012 115.7144997  66.3699988
  78.7850012 116.6814997  67.0759988  79.8058551 116.3444952  66.9282208
  78.6569885 117.5390150  66.4201121  78.5160012 117.0514997  68.5109988
  77.5670216 117.5727162  68.5729026  78.4044518 116.1529168  69.1094455
  79.6160012 117.9394997  69.1049988  80.5875475 117.4719937  68.9664709
  79.6490333 118.8762323  68.5540851  79.3890012 118.2544997  70.5969988
  79.8050120 119.2418523  70.7887687  78.3208491 118.3331521  70.7842603
  79.9850012 117.2904997  71.5839988  79.5179233 116.3190539  71.4355656
  81.0343468 117.1648926  71.3242342  79.8890012 117.6824997  73.0739988
  80.3649839 118.6591175  73.1472044  78.8348325 117.8386194  73.2853588
  80.4790012 116.7414997  74.1589988  80.4184795 117.2446203  75.1170106
  79.8325918 115.8677424  74.2300559  81.9160012 116.2684997  73.8699988
  82.5049413 116.9384730  73.2618547  82.5060012 115.1544997  74.2879988
  83.5252252 114.9692469  73.9806329  81.9320012 114.0924997  75.1569988
  82.7437592 113.5267541  75.6110933  81.3506794 114.5002281  75.9764519
  81.0510012 113.1074997  74.3389988  80.2547472 113.6516919  73.8325016
  81.6523237 112.6508446  73.5552026  80.4360012 111.9954997  75.2209988
  80.5211271 111.0362509  74.7104085  80.9990608 111.8986009  76.1451625
  79.0250012 112.2534997  75.5329988  78.6323163 112.9003571  74.7516416
  78.4848850 111.3120958  75.4486293  78.7540012 112.8664997  76.8999988
  79.0857639 113.9028470  76.8774677  77.6798005 112.9021978  77.0595090
  79.4320012 112.1844997  78.0759988  79.1654335 111.1292975  78.0953139
  80.5123136 112.2205455  77.9477034  79.0830012 112.8004997  79.4369988
  79.5868749 113.7485030  79.6082177  78.0183792 113.0172339  79.4910304
  79.4530012 111.7954997  80.5889988  79.1318166 112.1788290  81.5528287
  80.5222153 111.6221950  80.6480546  78.9707309 110.8338420  80.4380985
  63.8560012  35.5674997  79.9669988  63.7649486  35.8242112  81.0178259
  63.7643798  36.4848779  79.3927055  64.8578963  35.1784216  79.8075110
  62.8200012  34.5684997  79.5599988  61.8295467  34.9759092  79.7554991
  62.9149571  33.6842369  80.1843999  62.9250012  34.1744997  78.0499988
  62.8475332  33.0913401  77.9567620  63.9190660  34.4370894  77.6935542
  61.8890012  34.8364997  77.1329988  62.0325548  35.9143553  77.1035120
  60.8735178  34.6773570  77.4924053  62.0170012  34.2784997  75.6879988
  61.7293175  33.2302619  75.6850359  63.0674305  34.3078379  75.4032139
  61.1970012  35.0154997  74.6489988  61.6192964  34.7419437  73.6837781
  61.4148711  36.0723085  74.7877961  59.6880012  34.8144997  74.6129988
  59.3230167  35.1262367  73.6360769  59.2340268  35.4896986  75.3370455
  59.2240012  33.3944997  74.8919988  58.1379000  33.3118850  74.8951700
  59.5588276  33.0367521  75.8639000  59.8070012  32.4724997  73.7759988
  59.4395686  31.4646545  73.9570583  60.8867806  32.4312132  73.9136537
  59.4970012  32.8734997  72.3309988  60.1324429  33.6956058  72.0090449
  58.4701048  33.2237870  72.2299458  59.7110012  31.6374997  71.4019988
  58.8024179  31.0395309  71.4232290  60.4941343  31.0124823  71.8276557
  60.0480012  31.9454997  69.9509988  59.4390989  32.7876161  69.6311597
  59.7333083  31.0962513  69.3473303  61.5650012  32.2334997  69.6599988
  62.1758265  31.3731655  69.9282702  61.9436636  33.0688820  70.2422573
  61.7860012  32.5254997  68.1539988  61.3327679  31.7244605  67.5793155
  62.8559534  32.4785730  67.9693582  61.2740012  33.8394997  67.6549988
  61.6880546  34.6531950  68.2368069  60.1934310  33.8753855  67.7267572
  62.2660012  34.2724997  66.5329988  62.5190012  35.4484997  66.2989988
  62.7740012  33.2374997  65.9629988  63.8440012  33.4974997  65.0399988
  64.6267799  33.9385471  65.6384940  63.6282336  34.1486167  64.2053234
  64.2640012  32.1124997  64.5579988  65.1202381  32.2083641  63.9110348
  63.1230012  31.3074997  63.8219988  63.5757458  30.4672933  63.3131996
  62.7043808  31.9771723  63.0811340  62.0880012  30.8514997  64.7349988
  60.8870012  29.9814997  64.2059988  59.7930012  31.1094997  63.8919988
  59.6770012  32.2804997  64.5419988  59.9076415  32.1760241  65.5941769
  58.6467304  32.6197021  64.4847208  60.5000012  33.3944997  63.9099988
  61.5513808  33.1500849  63.8256706  60.3976067  34.2835260  64.5154115
  60.0490012  33.7924997  62.4969988  60.7690012  35.1004997  62.1109988
  60.6256115  35.8207151  62.9047640  60.3228225  35.4700216  61.1996930
  61.8142738  34.8887276  61.9428480  60.3000012  32.7164997  61.5169988
  59.9000974  31.7945196  61.9103736  61.3581347  32.6424474  61.3402511
  59.7863936  32.9840172  60.6048921  58.6220012  34.0764997  62.5629988
  58.1014882  33.2012348  62.9222476  58.2648760  34.3304355  61.5762727
  58.4499620  34.9057401  63.2339665  61.2970012  29.3694997  62.9179988
  60.5020012  29.0324997  65.2909988  64.7750012  31.5254997  65.7799988
  65.3330012  30.3404997  65.7449988  65.6160012  29.7384997  64.7039988
  65.6610012  29.8004997  67.0769988  66.7066692  29.5108049  67.0625655
  65.5821239  30.5929982  67.8170200  64.7690012  28.6544997  67.4199988
  64.5427125  28.1155699  66.5065388  65.3154784  27.9603087  68.0504704
  63.4600012  29.0554997  68.1019988  63.6386912  29.7376628  68.9292698
  62.8220388  29.5889221  67.4016206  62.7430012  27.8674997  68.5759988
  62.7913392  27.0874706  67.8184210  63.2103118  27.4552069  69.4669743
  61.2810012  28.1524997  68.8759988  61.2165786  29.1528551  69.2991296
  60.7613168  28.1936779  67.9206907  60.5720012  27.1984997  69.7599988
  59.5467726  27.1970953  69.3931126  60.9830035  26.2206313  69.5251192
  60.5650012  27.3714997  71.2569988  60.2782691  28.3942118  71.4724625
  59.7710908  26.7402550  71.6539654  61.8270012  27.0204997  71.9309988
  61.9786804  25.9556189  71.8383896  62.7530012  27.7054997  72.5729988
  63.5651164  27.1514560  73.0214566  62.8460012  29.2454997  72.7779988
  63.6700194  29.6274510  72.1777254  61.9544228  29.7536629  72.4279429
  63.1050012  29.6214997  74.2439988  64.1239825  29.3141344  74.4761811
  63.0987596  30.7089111  74.2882294  62.1440012  29.0654997  75.3129988
  61.1379360  29.4740054  75.2177988  62.0387810  27.9851265  75.2658114
  62.7300012  29.4674997  76.6909988  63.8104702  29.5238141  76.5789255
  62.3942215  30.4785779  76.9147348  62.3530012  28.4944997  77.9279988
  61.3561201  28.7550321  78.2786282  62.2827400  27.4721577  77.5667435
  63.2950012  28.5624997  79.1109988  64.2169119  28.0331152  78.8770848
  63.5788965  29.5977437  79.2912960  62.7130012  27.9804997  80.4159988
  63.5202546  27.7524531  81.1075561  62.1275144  28.7637363  80.8925054
  61.8040012  26.7094997  80.2349988  61.3631014  26.4129419  81.1819570
  62.3641756  25.8607889  79.8573274  60.9928856  26.9053793  79.5393957
  72.8840012  29.5914997  80.3929988  71.8751375  29.1912004  80.4125869
  73.0398564  30.1422981  81.3161024  73.5729091  28.7512530  80.3911600
  73.1050012  30.4914997  79.1629988  72.3764609  31.3001488  79.1857708
  72.8895015  29.9116539  78.2696048  74.4830012  31.0724997  79.0799988
  75.2236617  30.3206269  79.3520984  74.5825093  31.8718253  79.8116733
  74.8180012  31.6324997  77.7049988  74.2591934  31.0816397  76.9516481
  75.8705697  31.4636932  77.4829405  74.5060012  33.1004997  77.5589988
  74.7983696  33.5875022  78.4857794  73.4219080  33.1818388  77.4999138
  75.1540012  33.8784997  76.3449988  76.2347419  33.7498531  76.3286748
  74.9762857  34.9488544  76.4245911  74.5570012  33.3594997  75.0139988
  73.4688956  33.3772112  75.0359648  74.8408016  32.3239781  74.8312904
  75.0490012  34.2234997  73.8669988  75.1846595  35.2378747  74.2399479
  74.2603999  34.2777347  73.1187671  76.3680012  33.7444997  73.1889988
  76.2630297  32.6946500  72.9237862  77.1746776  33.7938742  73.9193495
  76.7770012  34.5724997  71.9019988  77.7654857  34.2689645  71.5642656
  76.8493407  35.6324738  72.1441783  75.7800012  34.3864997  70.8009988
  74.8871286  34.9929629  70.9370940  75.4345467  33.3595835  70.6950154
  76.4440012  34.8094997  69.5489988  76.7742081  35.8413250  69.6412964
  75.7191413  34.7938070  68.7372094  77.6540012  33.8874997  69.1589988
  78.4351626  33.9472291  69.9149559  78.1129472  34.1920092  68.2225606
  77.2160012  32.4264997  69.0479988  76.3457958  32.2956352  68.4132058
  76.9612211  32.0127700  70.0201134  78.3830012  31.6284997  68.4709988
  79.2728967  31.7710484  69.0708378  78.5927615  31.9464971  67.4566284
  77.9980012  30.1624997  68.5519988  78.3220012  29.3794997  69.3859988
  77.1630012  29.8864997  67.5319988  76.5180012  28.6004997  67.5949988
  76.5537589  28.2667582  68.6210592  77.0333017  27.8836440  66.9722826
  75.0040012  28.7814997  67.1249988  74.6167347  27.7765765  67.1573744
  74.7110012  29.4134997  65.7439988  73.6906523  29.2446646  65.4274802
  75.3785111  29.0033282  64.9964863  74.9510012  30.7824997  65.9139988
  74.6930012  31.8034997  64.7329988  75.4160012  31.0334997  63.5509988
  75.5250012  31.7794997  62.3069988  74.7194801  32.4950646  62.2055509
  75.4317402  31.0903946  61.4725926  76.9110012  32.4664997  62.1169988
  76.9530261  33.3428587  62.7514101  77.0621201  32.7723508  61.0918182
  78.1510012  31.6124997  62.4939988  78.1000012  30.3294997  61.6229988
  77.1201670  29.8831020  61.7229389  78.8503020  29.6461733  61.9920702
  78.3208911  30.5918775  60.5992397  79.4070012  32.3694997  62.1009988
  79.3387942  33.3730598  62.4920599  79.4955950  32.3702313  61.0293082
  80.2466872  31.8548311  62.5452291  78.2390012  31.2004997  63.9219988
  78.2456401  32.0814340  64.5464926  79.1502195  30.6418581  64.0744808
  77.3895222  30.5812539  64.1717090  73.2510012  31.8804997  64.4409988
  75.2490012  33.1304997  64.9779988  74.3070012  29.6414997  68.1039988
  73.1290012  29.2884997  68.6199988  72.4040012  28.3984997  68.2379988
  72.7010012  30.2744997  69.7379988  72.4911898  31.2124629  69.2342557
  71.7483064  29.9284000  70.1310570  73.7340012  30.4444997  70.8619988
  74.6604595  30.7306552  70.3763538  73.4210769  31.3062480  71.4429474
  74.0100012  29.2224997  71.8219988  73.0406026  28.8167438  72.0999963
  74.4911867  28.4647202  71.2085692  74.8500012  29.4474997  73.0559988
  74.4428026  30.2586335  73.6567960  74.8802246  28.5749077  73.7039740
  76.2560012  29.8094997  72.6629988  76.5724383  29.3285210  71.7397284
  76.3671027  30.8798298  72.5004231  77.1680012  29.3974997  73.7749988
  76.9279147  29.9108659  74.7047915  77.1179977  28.3338078  73.9903525
  78.6500012  29.7584997  73.3449988  79.2317178  29.4849642  74.2175606
  78.8722434  29.0133649  72.5822874  79.0570012  31.1244997  72.8219988
  78.5694977  31.3890451  71.8957644  79.9200012  32.0404997  73.3549988
  80.1712119  33.0017608  72.9301691  80.6170012  31.7434997  74.6619988
  80.6780635  30.6618640  74.7695010  81.6390534  32.1052749  74.6475440
  79.8920012  32.3094997  75.8949988  79.9712718  33.3958720  75.9097043
  78.8295704  32.0839011  75.8256801  80.4710012  31.7104997  77.2709988
  80.7192624  30.6542712  77.1668126  81.3877836  32.2096131  77.5724946
  79.4430012  31.8704997  78.3409988  78.9450621  32.8359585  78.2854028
  78.6577075  31.1191336  78.2789679  80.1860012  31.7294997  79.7159988
  80.8496169  30.8669480  79.7015495  80.8212333  32.5894187  79.9100204
  79.1820012  31.5384997  80.8799988  78.4472234  30.7583553  80.6893172
  79.6643965  31.2755463  81.8196712  78.4450012  32.8644997  81.0679988
  79.0889672  33.7393484  81.1111544  77.7360944  33.0581393  80.2659589
  77.6910012  32.7364997  82.3559988  77.0652930  33.6077905  82.5245530
  78.3562485  32.6443773  83.2078793  77.0455328  31.8627720  82.3454389
 107.4180012  37.7654997  79.6429988 106.8406672  36.8474998  79.6918950
 108.1691871  37.7265758  80.4265769 107.9382153  37.7782700  78.6891507
 106.5140012  39.0044997  79.7979988 105.9873945  38.9566849  80.7496301
 105.7499285  38.9920955  79.0254361 107.3350012  40.3484997  79.7269988
 108.0754677  40.2855757  78.9297040 107.8969323  40.4698954  80.6509400
 106.4600012  41.6114997  79.5139988 105.6931774  41.6350968  80.2851502
 105.9313674  41.5284452  78.5656558 107.2660012  42.9924997  79.5519988
 107.7054442  43.1653649  80.5310699 106.5942988  43.8290414  79.3665832
 108.4130012  42.9964997  78.4689988 109.1699653  42.2656092  78.7476051
 108.9083378  43.9650919  78.4758964 107.9270012  42.7014997  77.0869988
 107.2046127  43.4447434  76.7545629 107.4164383  41.7404093  77.0438609
 109.1300012  42.6854997  76.1109988 109.7330369  41.8011286  76.3127085
 109.7665602  43.5423713  76.3237136 108.7260012  42.7034997  74.5829988
 108.4123682  43.6847739  74.2333185 107.9101061  42.0217749  74.3460525
 110.0200012  42.2584997  73.7989988 110.1014046  41.1753523  73.8578564
 110.8938679  42.6586158  74.3125091 110.0470012  42.7014997  72.3539988
 109.8546181  43.7716968  72.3192455 109.2237641  42.2290012  71.8209378
 111.3470012  42.4244997  71.6159988 111.5848999  41.3637056  71.6344149
 112.1761981  42.9305156  72.1069676 111.2590012  42.9194997  70.1709988
 111.1869030  44.0051627  70.1337213 110.3854830  42.5385052  69.6493828
 112.4790012  42.5164997  69.4299988 112.7815926  41.5206155  69.7365898
 113.2876212  43.1890761  69.7036165 112.3140012  42.5464997  67.9059988
 111.9796104  43.5232661  67.5801902 111.5875336  41.8071047  67.5903898
 113.4730012  41.8564997  67.1599988 114.6310012  41.6974997  67.6009988
 113.0700012  41.5134997  65.9699988 114.0820012  41.0964997  64.9599988
 114.8214357  40.5406436  65.5165260 114.5543863  41.9546930  64.5044239
 113.4100012  40.1714997  63.8649988 114.2137700  39.5650300  63.4815354
 112.6780012  40.8994997  62.6799988 113.4115226  41.4650507  62.1215193
 111.9750707  41.5904699  63.1283668 111.9850012  39.9664997  61.8089988
 110.5010012  40.2664997  61.3829988 109.7890012  40.5284997  62.7069988
 109.4900012  39.5244997  63.6759988 110.2320161  38.7376385  63.7141085
 108.5439897  39.0446988  63.4422245 109.2740012  40.2054997  65.1589988
 110.0588497  40.9357299  65.3107402 109.3638621  39.4372508  65.9133831
 107.9990012  40.9154997  65.4489988 107.9950012  42.2754997  64.7839988
 108.9070269  42.7922868  65.0494682 107.1436667  42.8258414  65.1560923
 107.9027095  42.1433531  63.7164143 106.8160012  40.1164997  64.9579988
 106.9109381  39.1048680  65.3217326 106.7931110  40.1474823  63.8833425
 105.9257992  40.5744954  65.3642959 107.9240012  41.0714997  66.9089988
 107.9644558  40.0973715  67.3732398 106.9946476  41.5568921  67.1665762
 108.7531612  41.6743261  67.2503621 110.3270012  41.4854997  60.5949988
 109.9530012  39.0474997  60.7519988 112.4630012  39.3164997  64.5499988
 112.9280012  38.4994997  65.4139988 114.1300012  38.3054997  65.7119988
 111.7940012  37.7034997  66.1069988 110.8990262  37.8554636  65.5124570
 112.0219316  36.6429037  66.0356474 111.5810012  38.1504997  67.6449988
 111.4545594  39.2275616  67.6483262 110.6354515  37.7362946  67.9802643
 112.7090012  37.7674997  68.6439988 112.9994655  36.7333068  68.4774765
 113.5849367  38.3691468  68.4141670 112.3420012  37.9804997  70.1219988
 111.9610589  38.9831730  70.3070260 111.5829333  37.2943434  70.4897046
 113.5910012  37.7954997  70.9259988 114.0795627  36.9104048  70.5237355
 114.2287041  38.6381096  70.6657596 113.5220012  37.6894997  72.4259988
 112.9396586  36.7988329  72.6568471 114.5253206  37.5051762  72.7997539
 112.9180012  38.9174997  73.1939988 111.8853965  39.0339549  72.8861909
 112.8957170  38.6659636  74.2535171 113.7080012  40.2414997  73.0149988
 113.8133253  40.5372195  71.9820367 114.2500012  41.0494997  73.9409988
 114.7905431  41.9346883  73.6379057 114.1830012  40.8564997  75.4009988
 114.3038298  39.7810156  75.5191322 115.0821501  41.3090452  75.8040060
 112.9630012  41.3014997  76.2409988 112.5972279  42.2311219  75.8065826
 112.1840937  40.5605184  76.0715617 113.1650012  41.4874997  77.7619988
 114.1883764  41.8142416  77.9465250 112.5219140  42.2875799  78.1181092
 112.8940012  40.2374997  78.5529988 111.8178820  40.0798667  78.5692614
 113.3173626  39.3912072  78.0148175 113.4530012  40.2514997  80.0119988
 113.2116707  39.3253234  80.5302141 114.5367625  40.3275538  80.0293779
 112.8130012  41.4464997  80.8279988 113.1082292  42.3878563  80.3680302
 111.7295710  41.3931685  80.7376173 113.1620012  41.4954997  82.2649988
 112.6341936  42.3236855  82.7313061 112.7596681  40.5937080  82.7213023
 114.6340012  41.5894997  82.5919988 114.7951300  41.5311059  83.6642379
 115.0668538  42.5230337  82.2486421 115.1893323  40.7784802  82.1294020
  40.7990012  41.7134997  84.9599988  40.8023866  42.7838314  84.7788701
  40.4416425  41.5499808  85.9725926  40.0787318  41.2657099  84.2808019
  42.1870012  41.1134997  84.7609988  42.8836032  41.6088349  85.4352328
  42.5214272  41.3442788  83.7531723  42.2430012  39.5904997  85.0029988
  41.7839212  39.3593831  85.9641230  43.2850890  39.2884611  85.0866451
  41.5480012  38.7074997  83.8589988  40.5075356  39.0046635  83.7477559
  41.5325737  37.6565454  84.1435388  42.2210012  38.8504997  82.5549988
  43.2741071  38.5902415  82.6243278  42.1835464  39.8857545  82.2200218
  41.5330012  37.9234997  81.4669988  41.6442829  36.8844428  81.7716202
  42.0730903  38.0246840  80.5280406  40.0460012  38.2264997  81.2309988
  39.5405066  38.1241396  82.1895224  39.6533603  37.4351614  80.5939376
  39.6980012  39.5894997  80.6179988  39.8267830  40.3104560  81.4242792
  38.6298489  39.5510554  80.4124341  40.4390012  40.0924997  79.3629988
  41.5085124  40.0840331  79.5620343  40.1703067  41.1342118  79.1920713
  40.1440012  39.2584997  78.0579988  39.0654133  39.3324181  77.9376521
  40.3491846  38.2274092  78.3446714  40.8280012  39.5534997  76.7539988
  40.5522743  38.6798764  76.1672296  41.8751091  39.4204022  77.0204158
  40.6850012  40.8034997  75.8609988  40.3216976  41.6152834  76.4864880
  39.8952375  40.5978636  75.1408202  41.9430012  41.2464997  75.0969988
  42.7804724  41.3860190  75.7784886  41.8060528  42.1949188  74.5851196
  42.3340012  40.1954997  74.0889988  41.4532032  39.8154714  73.5819302
  42.7842321  39.3547174  74.6100259  43.3300012  40.7134997  73.0479988
  44.2040381  41.1286810  73.5335138  42.8723579  41.4833646  72.4381302
  42.5250012  41.2854997  71.8229988  41.4360012  41.8324997  71.8359988
  43.3050012  41.1984997  70.8079988  42.6840012  41.5994997  69.5559988
  43.3555526  42.3716839  69.2121788  41.7406775  42.0485917  69.8310421
  42.4720012  40.4404997  68.3629988  43.4000298  39.9077069  68.2373461
  42.0480012  41.0904997  67.0129988  42.6891714  41.9298431  66.7801805
  41.0298981  41.4472020  67.1068849  42.1340012  40.1074997  66.0019988
  43.6090012  39.5954997  65.6349988  43.4500012  39.3004997  64.1089988
  44.1310012  38.1784997  63.5179988  43.8329477  37.2121857  63.9034732
  45.2064866  38.2460692  63.6542426  43.9080012  38.2594997  61.9769988
  44.3255517  37.3232114  61.6287678  44.4569870  39.0735896  61.5261671
  42.4730012  38.3304997  61.3809988  42.0080012  39.7934997  61.3639988
  42.1545428  40.2138038  62.3494956  40.9571317  39.8062554  61.1157837
  42.5649902  40.3295600  60.6102617  42.5500012  37.9074997  59.9579988
  43.0906669  36.9749027  59.9064482  43.0391635  38.6776297  59.3887976
  41.5376492  37.7689679  59.6069298  41.5070012  37.4474997  62.0809988
  41.8578163  36.4273840  62.0322672  40.5439784  37.5225041  61.5987005
  41.4191937  37.7554252  63.1129419  44.5720012  40.7054997  65.7579988
  43.9240012  38.3424997  66.3969988  41.4690012  39.5104997  68.7919988
  41.7820012  38.5454997  69.6619988  42.8710012  38.3194997  70.1229988
  40.5330012  37.7784997  69.9819988  39.7717745  38.5343402  70.1456812
  40.2414560  37.2542228  69.0753333  40.6480012  36.7894997  71.1939988
  41.1208319  37.2491227  72.0549510  39.6851611  36.4260612  71.5387950
  41.5000012  35.6244997  70.7219988  40.9490020  34.9820511  70.0398597
  42.3596997  35.9904011  70.1660315  42.0110012  34.7974997  71.9389988
  42.5639120  33.9356623  71.5699026  42.7151941  35.3814205  72.5266643
  40.9060012  34.3004997  72.8509988  40.3005318  35.1592537  73.1335749
  40.2629847  33.6615417  72.2487998  41.3180012  33.5324997  74.1109988
  40.4137630  33.1176489  74.5536647  41.9322802  32.6856516  73.8180353
  42.0980012  34.3694997  75.2029988  43.0314142  34.6929811  74.7572636
  41.5165169  35.2721023  75.3861124  42.3450012  33.6494997  76.5669988
  41.6170854  32.9172038  76.8823327  43.4130012  33.8584997  77.3899988
  43.5022233  33.2897617  78.3044311  44.5350012  34.8294997  77.1609988
  45.4964380  34.3260102  77.2467801  44.5207642  35.2915358  76.1801823
  44.4660012  35.9194997  78.2389988  43.4819351  36.3860987  78.2635823
  44.6221284  35.4888241  79.2262180  45.5480012  37.0044997  77.9779988
  46.5058183  36.4853794  78.0127477  45.4150045  37.3278441  76.9492790
  45.6060012  38.2494997  78.9089988  45.2529896  37.9516154  79.8937793
  46.6469595  38.5422492  79.0346510  44.8110012  39.4364997  78.4129988
  45.4422490  39.9892523  77.7197595  43.9776194  39.0644299  77.8233684
  44.3180012  40.3934997  79.4479988  43.5193265  40.9794589  78.9967188
  43.8522062  39.8054275  80.2366940  45.2890012  41.3204997  80.0659988
  46.2686741  40.8570415  79.9801945  45.3120033  42.1853701  79.4066179
  45.0750012  41.8104997  81.5239988  45.8226325  42.5495475  81.7958898
  45.1458714  40.9980926  82.2393401  44.0976283  42.2697762  81.6421020
  25.0970012  72.3564997  80.4769988  25.2875938  71.9918614  81.4815595
  25.3222219  71.5510844  79.7839101  24.0344686  72.5699266  80.3989891
  25.9150012  73.5754997  80.1759988  26.9549903  73.2919464  80.3283901
  25.6775713  74.2949995  80.9549474  25.7730012  74.1984997  78.8519988
  25.9076943  73.4604429  78.0613920  26.5532234  74.9427417  78.7052744
  24.4150012  74.8794997  78.6799988  24.2884579  75.5662879  79.5140004
  23.6401185  74.1227776  78.7924023  24.1910012  75.6384997  77.3899988
  24.2010520  74.9676289  76.5347769  24.9973011  76.3519707  77.2281205
  22.8180012  76.4054997  77.4199988  22.9249974  77.3129743  76.8285103
  22.6331593  76.7287520  78.4422113  21.6070012  75.6104997  76.9139988
  20.7006612  76.1984266  77.0468890  21.4788710  74.7132114  77.5178915
  21.7400012  75.2144997  75.4449988  22.4925878  74.4365268  75.3232504
  22.0767240  76.0593063  74.8469992  20.4140012  74.7164997  74.9039988
  19.7241645  75.5577226  74.9072369  20.0187284  73.9970656  75.6200652
  20.4350012  74.0684997  73.4789988  21.1874188  73.2830290  73.4932290
  20.7948809  74.8232851  72.7802752  19.1140012  73.5134997  72.9769988
  18.4566322  74.3443166  72.7297131  18.6213445  72.9667405  73.7791657
  19.2310012  72.6124997  71.7519988  19.5492041  73.2401310  70.9231171
  18.2237057  72.2780789  71.5107758  20.1780012  71.3344997  71.8679988
  19.9058522  70.7942211  72.7731430  21.2067900  71.6562436  72.0034547
  20.1120012  70.3534997  70.6949988  19.1021963  69.9608008  70.6364598
  20.7610526  69.5169410  70.9399351  20.5270012  70.9114997  69.2989988
  21.5205196  71.3394141  69.3420258  19.8319482  71.6778611  68.9770351
  19.5290012  71.6274997  68.4349988  18.3270012  71.7524997  68.6089988
  20.2300012  72.3144997  67.5849988  19.6140012  73.4924997  67.1029988
  19.3228315  74.0224249  67.9973485  18.7278077  73.2310142  66.5431072
  20.5460012  74.3394997  66.2739988  20.2714273  75.3480707  66.5353179
  20.3510012  74.1174997  64.7479988  20.9521272  74.8076242  64.1716511
  19.3093338  74.2688123  64.4937967  20.7370012  72.7764997  64.4779988
  21.1370012  72.4194997  62.9739988  22.7520012  72.6004997  62.9409988
  23.4710012  72.3524997  64.1239988  23.4024076  71.3164347  64.4290450
  23.0488808  72.9405945  64.9337864  24.9990012  72.8204997  64.0169988
  25.4590314  72.3193683  63.1746873  25.5539920  72.5768886  64.9114348
  25.2190012  74.3254997  63.7799988  26.6790012  74.5314997  63.3549988
  27.3201792  74.0356907  64.0708188  26.8808614  75.5923161  63.3595864
  26.8118688  74.1415752  62.3569897  24.2980012  74.8784997  62.7159988
  23.2885666  74.5717688  62.9433138  24.6129138  74.5134350  61.7547871
  24.3747425  75.9556388  62.7503350  24.9360012  75.1634997  65.0309988
  23.9171567  74.9968428  65.3476428  25.0761033  76.2082001  64.7972843
  25.6161162  74.8753475  65.8195715  20.8860012  70.9684997  62.8239988
  20.6840012  73.3654997  61.9419988  21.9140012  74.1274997  66.5509988
  22.3920012  74.1774997  67.8539988  21.8380012  74.7914997  68.7529988
  23.7320012  73.3654997  67.9819988  23.6131111  72.4838990  67.3605502
  24.5263089  73.9484148  67.5224424  24.0860012  72.9974997  69.4539988
  24.4014910  73.9301928  69.9085433  23.1425357  72.7386430  69.9239979
  25.0840012  71.9634997  69.7389988  24.7542053  71.0137946  69.3255390
  26.0038887  72.2177581  69.2182066  25.3940012  71.8074997  71.2279988
  25.8663010  72.7176367  71.5930870  24.4799828  71.6871280  71.8044388
  26.3230012  70.6314997  71.5249988  25.6966375  69.7622967  71.7148823
  26.8625815  70.4205489  70.6037312  27.3210012  70.7824997  72.6439988
  27.8927499  69.8597988  72.7301821  28.0351248  71.5639873  72.3998216
  26.6840012  71.1074997  73.9889988  27.4210740  71.4983128  74.6807854
  25.9327815  71.8869287  73.8685606  25.9980012  69.8434997  74.5599988
  26.5522071  68.9194077  74.4931877  24.7410012  69.7884997  75.1629988
  24.3324778  68.8848316  75.5920707  23.8310012  70.9924997  75.2779988
  24.2350112  71.6630107  76.0345777  23.7963471  71.5613696  74.3555742
  22.3840012  70.5994997  75.6979988  21.6480151  71.1244003  75.0901263
  22.2183882  69.5378224  75.5251612  22.1400012  70.9144997  77.1869988
  22.7869472  70.3087799  77.8215627  22.3744385  71.9505505  77.4153448
  20.6630012  70.6294997  77.5459988  20.0487798  71.2570493  76.9040809
  20.4447576  69.6007618  77.2646571  20.2690012  70.8484997  79.0389988
  19.2026745  71.0656482  79.0585927  20.3877845  69.8981333  79.5521453
  20.9890012  71.9554997  79.8129988  22.0438813  71.7132759  79.9289233
  20.9533706  72.8894429  79.2550431  20.3690012  72.2044997  81.2489988
  20.8834390  73.0400688  81.7170724  19.3435925  72.5350170  81.0986376
  20.3650012  71.0234997  82.1929988  19.8434373  71.2676567  83.1135570
  21.3699248  70.7150261  82.4607926  19.8653525  70.1684226  81.7465288
  41.9780012 105.2654997  80.7419988  42.6308344 105.4574079  81.5878173
  41.5410008 104.2803949  80.8776060  41.1700889 105.9912246  80.7768282
  42.7530012 105.3564997  79.3989988  43.5651681 104.6330802  79.3515425
  43.2073232 106.3345651  79.2656066  41.7620012 105.0764997  78.2639988
  40.9015821 105.7339661  78.3878777  41.3874725 104.0629217  78.3926805
  42.3030012 105.2164997  76.8399988  41.4538392 105.1769037  76.1613191
  42.9087003 104.3396497  76.6164619  43.1090012 106.4774997  76.5399988
  44.1535771 106.3237749  76.7984609  42.7540954 107.2895596  77.1724271
  43.0180012 106.9074997  75.0609988  43.5552669 107.8468203  74.9433581
  41.9768802 107.1214807  74.8289291  43.5750012 105.8564997  74.0279988
  43.0358359 104.9211171  74.1663109  44.6144862 105.6482861  74.2776945
  43.4830012 106.2814997  72.5549988  44.1252971 107.1448148  72.3859018
  42.4689392 106.6091667  72.3336468  43.8700012 105.1764997  71.5969988
  43.1696024 104.3492364  71.6898324  44.8467922 104.7793407  71.8703500
  43.9060012 105.6434997  70.1589988  44.6896438 105.0875608  69.6489642
  44.2175705 106.6876655  70.1505516  42.6050012 105.5084997  69.4079988
  42.6371571 106.1496298  68.5296713  41.7873892 105.8798334  70.0234254
  42.2940012 104.1154997  68.9629988  41.7346389 103.5948795  69.7364892
  43.2212376 103.5605698  68.8327857  41.5160012 104.0884997  67.6389988
  42.0571321 104.6297201  66.8647186  40.5441065 104.5668548  67.7218904
  41.3220012 102.6324997  67.1559988  40.9648539 102.0602297  68.0058799
  42.3155876 102.2600084  66.9212048  40.4250012 102.3784997  65.9769988
  40.7432791 102.9659817  65.1251743  39.4017217 102.6411746  66.2177684
  38.9790012 102.9244997  66.3329988  38.2430012 102.4004997  67.1579988
  38.7360012 103.9974997  65.5439988  37.3960012 104.4444997  65.4239988
  36.8309503 104.0337231  66.2470675  37.0549983 103.9953441  64.5024955
  37.2380012 105.9984997  65.3809988  36.1970349 106.2752263  65.3544337
  37.9590012 106.5484997  64.1319988  37.5500774 107.5268979  63.9191156
  37.7005133 105.8802749  63.3200600  39.3880012 106.6224997  64.2849988
  40.2190012 107.3444997  63.1509988  41.3710012 106.3294997  62.9429988
  41.9920012 105.7984997  64.1019988  42.2722742 104.7688890  63.9216162
  41.2483463 105.7811413  64.8934994  43.1310012 106.5714997  64.6549988
  43.6498108 106.0384834  65.4417510  42.7390190 107.4932666  65.0600576
  44.2420012 106.9924997  63.6169988  44.8030012 105.7634997  62.9679988
  45.0915889 105.0655415  63.7418886  45.6728644 106.0550153  62.3983879
  44.0592630 105.3462626  62.3058176  43.8250012 107.9244997  62.5389988
  43.3102551 108.7598878  62.9883061  43.1922470 107.3992459  61.8461058
  44.7216673 108.2654475  62.0419662  45.3410012 107.6224997  64.3939988
  44.9508950 108.4686944  64.9397584  46.1112097 107.9542405  63.7140158
  45.7544433 106.9010657  65.0839507  39.4340012 107.4154997  61.8599988
  40.8160012 108.6174997  63.6669988  37.9040012 106.6174997  66.5269988
  37.2010012 106.4894997  67.6879988  36.1300012 105.9264997  67.8169988
  37.9760012 107.1294997  68.8609988  38.8601024 106.5124288  68.9840501
  38.3336577 108.0958027  68.5142320  37.1990012 107.2674997  70.1499988
  36.3360770 107.8956633  69.9580785  36.8061573 106.2943953  70.4270809
  38.0200012 107.8724997  71.3469988  38.4651049 108.8013854  70.9995684
  37.2957271 108.1498085  72.1089646  39.1330012 106.9504997  72.0159988
  39.9220511 106.8724863  71.2703312  39.5512090 107.5197334  72.8426045
  38.7900012 105.5234997  72.5139988  37.8187632 105.5891809  73.0000892
  38.6404546 104.9237475  71.6182789  39.7950012 104.7734997  73.4579988
  40.7637305 104.7290676  72.9627310  39.9411769 105.3517430  74.3660656
  39.3620012 103.3684997  73.8409988  39.5004677 102.7116149  72.9901701
  40.0279663 103.0035757  74.6218104  37.9210012 103.3064997  74.3579988
  37.1796602 103.7443093  73.7066231  37.4750012 102.7554997  75.5279988
  36.4216910 102.7606292  75.7690825  38.3470012 102.0974997  76.5799988
  37.8419045 101.2372056  77.0158799  39.2969379 101.7336798  76.2045839
  38.6020012 103.1384997  77.7119988  39.2450551 102.7194634  78.4850416
  39.1301320 104.0028151  77.3138835  37.2600012 103.6074997  78.3499988
  36.6390667 104.0845636  77.5917393  36.6956162 102.7518586  78.7103485
  37.4960012 104.6104997  79.5289988  37.9649073 104.1186537  80.3783277
  38.1617028 105.4226903  79.2421666  36.1640012 105.1814997  79.9369988
  35.6890292 105.6983668  79.1052295  35.4660908 104.4067165  80.2423790
  36.3590012 106.2124997  81.0949988  37.1591535 106.9107129  80.8559643
  35.4613297 106.8146492  81.2232012  36.6850012 105.5374997  82.4289988
  35.8717296 104.8917367  82.7507046  37.5448754 104.8851815  82.2933139
  37.0090012 106.5654997  83.5569988  37.3210398 106.0567494  84.4641228
  36.1490249 107.1775942  83.8070429  37.8129813 107.2323074  83.2584616
 103.3310012  35.8424997  80.2499988 104.0347104  36.4116251  80.8494306
 103.8336480  34.9386218  79.9181239 102.5111486  35.5439352  80.8975426
 102.8110012  36.6814997  79.0329988 103.6977753  36.9823966  78.4777549
 102.3967345  37.5898777  79.4620052 101.7910012  36.0394997  78.0559988
 100.9814808  35.5817404  78.6243844 102.2805197  35.2275645  77.5218602
 101.1740012  37.0544997  76.9819988 101.2530980  38.0781233  77.3414264
 100.1116681  36.8693574  76.8307477 101.9020012  36.9494997  75.6419988
 101.5250507  37.7227524  74.9774979 101.6319389  35.9977508  75.1874601
 103.5180012  37.0654997  75.7199988 103.9134906  36.3806694  76.4679376
 103.8141575  38.0638555  76.0348862 104.1550012  36.7544997  74.3619988
 105.2071021  37.0324652  74.3862622 103.6932926  37.3774637  73.5971648
 104.0350012  35.3374997  73.9729988 102.9953208  35.0438458  73.8341351
 104.4392861  34.6732357  74.7345702 104.8060012  35.1244997  72.6499988
 105.8439907  35.4209306  72.7850814 104.3992980  35.7836901  71.8840761
 104.7530012  33.6934997  72.1569988 105.1953112  33.0515640  72.9156682
 105.3859735  33.6039166  71.2745307 103.3350012  33.2034997  71.8139988
 102.8679313  33.8707454  71.0927707 102.6928617  33.2114498  72.6930447
 103.3610012  31.7504997  71.2019988 103.8972140  31.1044082  71.8928393
 103.9586926  31.7861482  70.2930631 101.9630012  31.1304997  70.8579988
 101.4895101  30.7607874  71.7659476 102.0603249  30.2749271  70.1955807
 101.0000012  32.1764997  70.2029988 101.5132918  32.6851926  69.3936106
 100.7585000  32.9318100  70.9461511  99.6870012  31.5754997  69.6709988
  99.1732303  31.0336883  70.4549127  99.8879317  30.8949816  68.8521025
  98.6910012  32.6164997  69.1219988  98.3640012  33.6044997  69.7189988
  98.5050012  32.4124997  67.7809988  98.0420012  33.5554997  67.0089988
  97.6373944  34.2563364  67.7235499  97.2483683  33.2153191  66.3596791
  99.1770012  34.2154997  66.1959988  98.8765178  34.9753376  65.4936811
  99.7970012  32.9754997  65.4179988  99.0994894  32.5204861  64.7278965
 100.1437403  32.2185481  66.1103724 100.9180012  33.5554997  64.6989988
 101.4650012  32.8814997  63.4329988 102.3520012  34.0294997  62.6089988
 101.6500012  35.2194997  62.3119988 100.5833567  35.0410584  62.3522160
 101.8774876  35.4965919  61.2866857 102.0400012  36.4544997  63.1629988
 101.4084602  36.3431021  64.0353494 101.7791257  37.3748014  62.6606386
 103.4950012  36.6614997  63.7129988 104.4590012  36.6094997  62.5889988
 104.2741801  35.7106312  62.0169755 105.4548501  36.5772757  63.0053477
 104.3457643  37.4997304  61.9886791 103.5120012  38.0534997  64.2889988
 102.6625777  38.1630918  64.9456443 103.4818884  38.7666401  63.4847016
 104.4297183  38.1601574  64.8491026 103.7580012  35.6574997  64.7729988
 103.0254671  35.7694623  65.5584542 104.7471668  35.8171005  65.1751542
 103.6948841  34.6641789  64.3525643 102.3770012  31.7824997  63.9539988
 100.3230012  32.3524997  62.6489988 100.0900012  34.8174997  67.0859988
  99.7280012  36.0034997  67.6079988  98.7590012  36.6674997  67.2099988
 100.6740012  36.4044997  68.7299988 100.8331567  35.5418796  69.3688330
 101.6507628  36.6604983  68.3271236 100.0620012  37.5954997  69.5069988
 100.7648707  38.0220893  70.2141457  99.7589781  38.4099120  68.8566584
  98.8430012  37.0574997  70.2719988  97.9063426  37.2673634  69.7618204
  98.8931511  35.9769454  70.3813262  98.8340012  37.6944997  71.6779988
  99.6602831  37.3303379  72.2857408  98.9244843  38.7778671  71.6598372
  97.5050012  37.3144997  72.3829988  96.6652277  37.6241345  71.7642842
  97.4464901  36.2299935  72.4523088  97.3460012  37.9034997  73.7859988
  97.7762274  38.9034180  73.8137408  96.2956545  38.0145113  74.0404910
  98.0040012  37.0524997  74.8279988  99.0083094  36.8165448  74.4959292
  98.1123853  37.6511087  75.7314732  97.2420012  35.8104997  75.1659988
  96.3246271  36.0185904  75.6957885  97.5250012  34.4924997  74.8979988
  96.7925023  33.7609165  75.2075815  98.7470012  33.8954997  74.2079988
  98.4429019  33.1788025  73.4470192  99.3685404  34.6275001  73.7044659
  99.5980012  33.1404997  75.2779988 100.0437675  33.8370626  75.9870809
  98.9674186  32.4739909  75.8633113 100.6820012  32.3384997  74.6139988
 100.2027252  31.6107501  73.9591842 101.2480688  33.0027935  73.9668627
 101.6350012  31.6144997  75.5559988 102.3244354  31.0725682  74.9124650
 102.2217742  32.3892655  76.0464274 101.0670012  30.6854997  76.5999988
 100.0134717  30.5173622  76.3846026 101.5451891  29.7131320  76.5196091
 101.1790012  31.2174997  78.0659988 102.1549596  31.6583395  78.2610588
 100.4492010  32.0005046  78.2638089 100.9520012  30.0814997  79.0609988
  99.9228798  29.7319409  79.0358417 101.5616351  29.2277684  78.7732446
 101.3190012  30.4884997  80.4969988 101.2339507  29.6416514  81.1713009
 100.6701608  31.2713725  80.8749634 102.3411079  30.8526057  80.5505314
  33.8610012 100.3904997  80.2029988  34.0066458 100.0542624  81.2248408
  32.8382560 100.7451479  80.1135175  34.5189709 101.2391931  80.0374473
  34.1540012  99.2434997  79.1799988  33.4950796  98.4215431  79.4546126
  35.1650857  98.9096437  79.3969374  34.0060012  99.5264997  77.7039988
  33.5546399 100.5152322  77.6226963  33.2594522  98.8237668  77.3393041
  35.2280012  99.4534997  76.7889988  35.6197260  98.4389193  76.8096960
  36.0180403 100.0897993  77.1848104  34.9440012  99.8434997  75.3209988
  34.6419965 100.8838367  75.2311936  34.1264689  99.2516970  74.9126170
  36.1840012  99.6204997  74.4889988  36.3757495  98.5494874  74.4576565
  37.0247444 100.0646624  75.0176265  36.1400012 100.1664997  73.0649988
  37.1416840 100.4345869  72.7340444  35.5530696 101.0833664  73.0318823
  35.5430012  99.1504997  72.0929988  34.8673242  98.4700667  72.6096444
  36.3211097  98.5298535  71.6525111  34.7800012  99.8694997  70.9779988
  35.4185709 100.5190448  70.3831368  33.9756528 100.4988414  71.3568519
  34.1980012  98.7974997  70.0949988  33.9117580  97.9447602  70.7067171
  34.9626700  98.4369640  69.4074490  32.9530012  99.3104997  69.2649988
  33.2410571 100.0579394  68.5288612  32.1974876  99.7799628  69.8926386
  32.3040012  98.0734997  68.4969988  32.2629403  97.1906220  69.1302918
  32.9028090  97.7985500  67.6306836  30.8860012  98.4494997  68.0169988
  30.9040801  99.3885913  67.4665153  30.1962748  98.5947015  68.8437200
  30.3290012  97.3654997  67.0849988  29.2629990  97.5369859  66.9774026
  30.4442358  96.4179985  67.6046665  30.9720012  97.2374997  65.6729988
  32.0425489  97.0989292  65.7552594  30.7807341  98.1298491  65.0888768
  30.5700012  98.3924997  64.7699988  29.6590012  99.1774997  65.1019988
  31.2150012  98.4914997  63.5779988  30.5990012  99.2314997  62.5709988
  29.5619458  99.2453994  62.8706403  30.6981702  98.6452172  61.6689842
  31.1260012 100.7094997  62.3479988  30.3982154 101.1788844  61.7069840
  32.5640012 100.7064997  61.6309988  32.4921929 100.1120137  60.7303151
  33.2469476 100.2186039  62.3151968  33.0330012 102.0534997  61.3179988
  34.6290012 102.2834997  61.2409988  35.0160012 101.7664997  62.6909988
  36.1300012 102.3784997  63.4139988  35.9918744 103.4378353  63.5869671
  37.0496983 102.2766426  62.8451584  36.3900012 101.6244997  64.7479988
  37.0485687 102.2397940  65.3479577  36.8977823 100.7006185  64.5114003
  35.2120012 101.2364997  65.6779988  34.5040012 100.0954997  65.0539988
  34.2771322 100.3495325  64.0276792  33.5864619  99.9338451  65.5999745
  35.1267775  99.2162674  65.1234045  35.7030012 100.7604997  67.0209988
  36.4080969 101.4823816  67.4036741  36.1552816  99.7916661  66.9062212
  34.8451884 100.6975847  67.6748306  34.3230012 102.4344997  65.7579988
  34.8884863 103.2721692  66.1382857  33.4998309 102.2215442  66.4233488
  33.9415198 102.6668659  64.7741731  35.2280012 101.4904997  60.1289988
  34.8580012 103.7364997  61.1289988  31.2730012 101.4734997  63.5779988
  30.3060012 102.2204997  63.8819988  29.3100012 102.3744997  63.2069988
  30.6340012 103.0134997  65.1899988  31.6508409 102.7646830  65.4757962
  30.6378347 104.0791453  64.9748439  29.6490012 102.6844997  66.2749988
  28.6789100 103.0490828  65.9555252  29.5594517 101.6043843  66.3330044
  29.9690012 103.2574997  67.6659988  29.9781744 104.3391140  67.5579237
  29.1060417 103.0219094  68.2839496  31.2180012 102.7974997  68.3859988
  31.4686960 101.7514800  68.2195625  32.1239774 103.3632301  68.1826319
  30.8370012 102.9784997  69.8919988  30.4211747 103.9659613  70.0814949
  30.0667421 102.2653071  70.1791194  32.0410012 102.7664997  70.7709988
  32.6198215 101.9107809  70.4268863  32.7120723 103.6205275  70.7461406
  31.5820012 102.5204997  72.2829988  31.0089805 103.3592513  72.6607858
  30.9297634 101.6504286  72.3455148  32.8230012 102.2654997  73.1459988
  33.3493980 101.3512306  72.9167118  33.3290012 103.0334997  74.1229988
  34.2171017 102.6604136  74.6125846  32.8650012 104.3114997  74.6319988
  33.7490157 104.9235956  74.8025212  32.2842613 104.8221020  73.8719280
  32.0300012 104.2544997  75.9859988  32.6542002 103.8422581  76.7779189
  31.7870592 105.2710170  76.2895291  30.7130012 103.4234997  75.8749988
  30.1527127 103.7281528  74.9910473  30.9373860 102.3685599  75.7436307
  29.8450012 103.6054997  77.1029988  29.8954091 104.6606916  77.3621785
  28.8172949 103.4158479  76.7981429  30.1770012 102.7404997  78.3429988
  30.3695128 101.7010731  78.0839201  31.0565228 103.0793825  78.8835773
  28.8980012 102.7794997  79.2999988  28.6296787 103.8006930  79.5646687
  28.0240345 102.3554832  78.8088509  29.1480012 102.0274997  80.5359988
  29.7919161 102.6368526  81.1652662  28.1896958 101.9826442  81.0487870
  29.7370012 100.5724997  80.4379988  29.7857459 100.1095332  81.4189957
  30.7406201 100.5681863  80.0263297  29.1181609  99.9425187  79.8053048
  25.8600012  84.0764997  80.5419988  25.1092681  84.6413383  81.0858611
  26.7416088  84.7037117  80.4462748  26.1318543  83.2177184  81.1496193
  25.3340012  83.6324997  79.1529988  25.0506479  84.5007972  78.5605688
  24.4337607  83.0349997  79.2686484  26.4270012  82.8164997  78.3809988
  27.0531850  82.2507100  79.0707124  27.0964456  83.4906277  77.8503703
  25.7740012  81.8184997  77.3249988  25.1680289  81.0572444  77.8113506
  26.5180688  81.2820703  76.7382170  24.8660012  82.6424997  76.3739988
  25.4611367  83.4076421  75.8821210  24.1263359  83.1696787  76.9742841
  24.1440012  81.8024997  75.2989988  23.4128367  81.1638566  75.7912899
  24.8676437  81.1352417  74.8356573  23.4400012  82.6324997  74.2009988
  24.0980608  83.3403323  73.7002989  22.5931917  83.2111507  74.5674777
  22.9460012  81.6024997  73.1899988  21.9182769  81.8167527  72.8996033
  22.9358104  80.6080016  73.6322134  23.8740012  81.5894997  71.8809988
  24.8290675  81.1324241  72.1309414  24.0948970  82.6171061  71.5949794
  23.2600012  80.8584997  70.6939988  22.5149869  81.4944758  70.2209372
  22.7289983  79.9724325  71.0409137  24.3420012  80.4324997  69.6479988
  23.8516317  79.8669471  68.8585502  25.0429008  79.7465031  70.1205201
  25.0810012  81.5284997  69.0359988  25.3877418  82.2191413  69.8177553
  24.3987259  82.0811334  68.3927520  26.3470012  81.0794997  68.1709988
  26.9800778  80.3744363  68.7070507  26.9913291  81.9024688  67.8746253
  25.8210012  80.3814997  66.9169988  25.2975440  81.0605399  66.2519861
  25.1217433  79.5895704  67.1719077  26.9930012  79.7704997  66.1819988
  27.5505848  79.1135948  66.8374509  27.6573126  80.5461540  65.8198943
  26.6330012  79.2824997  64.7879988  27.0970012  79.7314997  63.8189988
  25.8440012  78.2554997  65.0109988  25.5870012  77.2234997  64.0729988
  25.6742517  76.3014259  64.6276422  26.3015262  77.2171902  63.2626864
  24.1430012  77.3934997  63.5379988  23.8375807  76.4858532  63.0442475
  23.9030012  78.6274997  62.5869988  23.0076780  78.4050798  62.0224398
  24.7497473  78.6192699  61.9120631  23.7840012  79.9424997  63.2469988
  24.0010012  81.1464997  62.2359988  23.8830012  82.2424997  63.4159988
  23.1440012  83.4414997  63.1029988  22.4564256  83.3516929  62.2721176
  23.8036109  84.2720121  62.8685607  22.3750012  83.8794997  64.4429988
  22.0525736  84.9118071  64.3917067  22.9713804  83.7458079  65.3339732
  21.1110012  83.0614997  64.6599988  20.2700012  83.2024997  63.4409988
  20.1615184  84.2546598  63.2162222  19.3016358  82.7741716  63.6529033
  20.7353431  82.6629154  62.6298128  21.4250012  81.5494997  64.9349988
  22.1741955  81.4904138  65.7095507  21.7642593  81.0900395  64.0238620
  20.5086879  81.0848941  65.2693767  20.4030012  83.6104997  65.8659988
  21.0620943  83.5580593  66.7197717  19.5175306  83.0226036  66.0556569
  20.1222937  84.6376848  65.6828896  25.3110012  81.1014997  61.5159988
  22.7890012  81.2784997  61.3169988  23.4130012  77.4684997  64.7369988
  22.1240012  76.9774997  64.6789988  21.5100012  76.5824997  63.7559988
  21.5690012  77.0574997  66.0759988  21.4116427  78.1078286  66.2987106
  20.5835282  76.5987753  66.0939412  22.5140012  76.3854997  67.0969988
  22.4553138  75.3141688  66.9393063  23.5325085  76.6695423  66.8520588
  22.2270012  76.6934997  68.5789988  22.5554009  77.7009592  68.8215536
  21.1521552  76.6775803  68.7418412  22.8830012  75.6804997  69.5339988
  22.4089094  74.7011262  69.5062402  23.9431018  75.5099421  69.3628301
  22.6940012  76.2744997  70.9559988  23.1576597  77.2546751  71.0464304
  21.6378220  76.4176027  71.1759716  23.2860012  75.3374997  71.9999988
  22.5279138  74.6997151  72.4519228  24.0444745  74.6729418  71.5957723
  23.9270012  76.2104997  73.0859988  24.4581073  75.6145955  73.8190775
  24.6598973  76.8912259  72.6549291  22.8470012  77.0164997  73.7279988
  22.2679979  77.6477342  73.0708441  22.5120012  77.0244997  75.0549988
  21.7776687  77.6917156  75.4830042  23.1560012  76.0674997  76.0699988
  22.5663808  75.9354811  76.9756145  23.4056882  75.0712379  75.7224359
  24.4740012  76.8334997  76.4489988  25.0058663  76.2140225  77.1701594
  25.0890404  76.8496934  75.5512663  24.3430012  78.2754997  77.0029988
  25.3517912  78.5716031  77.2907007  24.0734992  78.8994653  76.1553316
  23.3690012  78.5574997  78.1849988  23.0790050  79.6002530  78.0767731
  22.4748554  77.9704571  77.9825901  23.8460012  78.2834997  79.6569988
  24.2429861  77.2702606  79.6754228  24.6922248  78.9373070  79.8495253
  22.7970012  78.4104997  80.8119988  21.8045325  78.1090143  80.4818541
  23.0487012  77.7580545  81.6461429  22.7200012  79.8854997  81.3399988
  23.7067501  80.3118124  81.5027837  22.2437687  80.5179846  80.5940239
  21.9370012  79.9594997  82.5969988  21.8108961  80.9908554  82.9123904
  22.4222681  79.4283605  83.4088782  20.9476592  79.5301463  82.4666180
  22.5110012  64.6184997  80.7769988  21.5596924  65.0640442  81.0507333
  22.7196878  63.8218001  81.4851723  22.3934569  64.1646728  79.7967761
  23.6420012  65.6704997  80.7699988  23.6581937  66.1114903  81.7652214
  23.3173425  66.4562761  80.0932668  25.0630012  65.2054997  80.3989988
  25.3390569  64.4124123  81.0937899  25.7318770  66.0374009  80.6104614
  25.3230012  64.7184997  78.9259988  24.5722890  63.9999962  78.6043872
  26.2845535  64.2194988  78.8159024  25.2710012  65.9374997  77.9879988
  26.0618009  66.6429648  78.2299236  24.3323354  66.4713725  78.1267483
  25.4030012  65.5334997  76.5459988  26.2982294  64.9216312  76.4511282
  25.5859932  66.4328730  75.9618597  24.2000012  64.7734997  75.9469988
  23.8419609  64.0921162  76.7166049  24.5891832  64.1485048  75.1444099
  23.0330012  65.5954997  75.4219988  22.6590477  66.1360831  76.2905490
  22.2679110  64.8648029  75.1662582  23.2100012  66.5864997  74.2389988
  23.8901999  67.3875935  74.5202806  22.2593939  67.0638424  74.0043358
  23.7410012  65.8874997  72.9959988  23.0770678  65.0627611  72.7464035
  24.7090235  65.4419134  73.2236269  23.8900012  66.8334997  71.7809988
  24.3799534  67.7488272  72.1060577  22.9043717  67.1283323  71.4249983
  24.7190012  66.2244997  70.5779988  24.4270400  66.7602717  69.6780399
  24.3808217  65.1986343  70.4441897  26.2010012  66.2224997  70.7149988
  26.4639990  65.9257164  71.7289040  26.5991095  67.2240376  70.5782306
  26.9140012  65.2564997  69.7339988  26.7953837  65.5976406  68.7108185
  26.4494547  64.2758674  69.7944060  28.4210012  65.1074997  70.0489988
  28.5646467  64.7994875  71.0768779  28.9340501  66.0490816  69.8931998
  29.1300012  64.3894997  68.8359988  29.5420012  63.2114997  68.7969988
  29.0300012  65.2134997  67.8319988  29.4540012  64.6534997  66.5249988
  30.0955509  63.8019524  66.6945373  30.0164178  65.4239866  66.0178210
  28.2340012  64.2414997  65.7089988  28.5392415  63.9313001  64.7233525
  27.1020012  65.2584997  65.6049988  27.4766604  66.2720448  65.5585471
  26.4479187  65.1693980  66.4633822  26.4210012  64.9414997  64.4459988
  25.2360012  65.7684997  63.9349988  24.7150012  64.9184997  62.6749988
  25.1600012  63.6314997  62.3309988  26.2382278  63.5751467  62.2572378
  24.7697463  63.3566396  61.3553195  24.5970012  62.5284997  63.3319988
  24.7751947  62.8166742  64.3603234  25.1215693  61.6048556  63.1342947
  23.1010012  62.1904997  63.2459988  22.1750012  63.4414997  63.3629988
  22.4618205  64.0023387  64.2419346  21.1579228  63.0944660  63.4689198
  22.2652669  64.0298475  62.4622125  22.9570012  61.4464997  61.9249988
  23.7025004  60.6670466  61.8876118  23.0758046  62.1434819  61.1147695
  21.9671452  61.0140145  61.9040543  22.7380012  61.3144997  64.4139988
  23.3440696  60.4210783  64.3903083  21.6945465  61.0459574  64.3451702
  22.9129334  61.8510947  65.3353562  24.2640012  65.7154997  65.0659988
  25.5730012  67.1304997  63.4479988  27.7020012  63.0444997  66.4799988
  27.4030012  61.9624997  65.7889988  27.3980012  61.8304997  64.5729988
  26.7940012  61.0064997  66.8799988  26.9853679  59.9912323  66.5480893
  27.3561442  61.1287748  67.8024688  25.2670012  61.2694997  67.1109988
  25.1115662  62.0200012  67.8782330  24.7819090  61.6490081  66.2173031
  24.5820012  59.9214997  67.5609988  23.5082618  60.0658693  67.6498533
  24.7244520  59.1799110  66.7788101  25.1660012  59.3454997  68.9149988
  24.6076384  58.4613555  69.2170355  26.2007285  59.0293755  68.8072631
  25.0770012  60.4064997  70.0729988  25.3768799  59.8582415  70.9637213
  25.8900858  61.0957869  69.8535506  23.7880012  61.2364997  70.3839988
  23.8088652  62.1415994  69.7789697  22.9116960  60.6770714  70.0686459
  23.6230012  61.6144997  71.8489988  22.7562442  62.2457121  72.0067428
  23.4735967  60.7287692  72.4650392  24.9320012  62.3294997  72.3119988
  25.1357156  63.2795715  71.8414480  25.8290012  61.8924997  73.2469988
  26.6800819  62.5334751  73.4270604  25.8160012  60.6454997  74.0789988
  25.0947146  59.9782433  73.6102391  26.7802617  60.1566041  73.9961515
  25.4410012  60.7914997  75.5709988  24.4262629  61.1686612  75.6924910
  25.4677628  59.8260784  76.0727005  26.4290012  61.7464997  76.2599988
  26.5760900  62.6422787  75.6566317  26.0399970  62.0850327  77.2163330
  27.7710012  61.0594997  76.4729988  27.5970604  60.1734492  77.0794674
  28.1293445  60.7027804  75.5089311  28.8520012  61.9344997  77.1219988
  29.7495972  61.3236319  77.1978398  29.0918959  62.7285874  76.4202152
  28.5660012  62.5274997  78.5089988  27.5476082  62.9099004  78.5480947
  28.6240617  61.7458793  79.2643349  29.5480012  63.6824997  78.9119988
  30.5723120  63.3248922  78.9814192  29.5505373  64.4373564  78.1287377
  29.1460012  64.3514997  80.2439988  29.7864504  65.2021602  80.4567671
  29.2257057  63.6670513  81.0818046  28.1211888  64.7100346  80.2072109
 114.6320012  49.0784997  82.0179988 114.9809447  49.8260156  82.7236100
 113.6622906  49.3990523  81.6482726 115.3191602  49.0723500  81.1763417
 114.5460012  47.6794997  82.6769988 113.8859697  47.7880867  83.5359344
 115.5362836  47.4783106  83.0765957 114.0750012  46.5054997  81.8289988
 113.0848745  46.7419828  81.4395710 113.9419412  45.6534295  82.4926571
 114.9740012  46.0874997  80.6859988 115.9832325  45.9499729  81.0678213
 115.0348595  46.8938873  79.9567929 114.5150012  44.7344997  79.9469988
 114.6256922  43.9099281  80.6465717 115.2219636  44.5477796  79.1403360
 113.0710012  44.7194997  79.3759988 112.3964076  45.2063986  80.0779033
 112.7251558  43.6920631  79.2846640 112.9690012  45.4004997  78.0319988
 113.6765438  46.2239285  77.9537790 111.9806024  45.8336332  77.8847125
 113.2490012  44.3824997  76.9129988 112.3942422  43.7084742  76.8739115
 114.0968297  43.7798565  77.2334547 113.5210012  44.9294997  75.5189988
 114.4041644  45.5636988  75.5558117 112.6947806  45.5763629  75.2265871
 113.7210012  43.8274997  74.4329988 112.9138513  43.1015523  74.5023414
 114.6418950  43.2799727  74.6319905 113.7790012  44.4104997  73.0249988
 114.2061642  43.6356920  72.3919538 114.5082945  45.2184284  73.0475909
 112.4710012  44.9194997  72.3599988 112.0722166  45.7550946  72.9300610
 111.7183188  44.1345333  72.4043514 112.6700012  45.3294997  70.8839988
 111.7009674  45.5490495  70.4390005 113.0899191  44.5089242  70.3090215
 113.5410012  46.5404997  70.7169988 114.5894633  46.3192109  70.8875962
 113.2646876  47.3183440  71.4238941 113.3600012  47.1074997  69.2459988
 112.3152490  47.3044234  69.0416585 113.7281214  46.3938671  68.5184789
 114.2890012  48.2714997  69.0059988 115.1230012  48.7244997  69.7739988
 114.0950012  48.7364997  67.8019988 114.9230012  49.8234997  67.3949988
 115.6224398  50.0741250  68.1782194 114.2420262  50.6499262  67.2518753
 115.7120012  49.4814997  66.0289988 116.3570947  50.3013799  65.7596576
 114.6600012  49.2274997  64.8809988 114.1052898  50.1325532  64.6736960
 113.9673909  48.4647140  65.2142165 115.3660012  48.7854997  63.6999988
 115.1190012  47.4664997  62.9829988 116.1010012  46.4904997  63.8749988
 117.3770012  46.1874997  63.2989988 118.0771068  47.0076235  63.3908577
 117.2653168  45.9954933  62.2357692 117.9660012  44.8884997  63.8849988
 118.1650105  45.1424584  64.9185118 118.8651692  44.4776716  63.4490009
 116.9490012  43.7314997  63.9259988 116.5270012  43.3734997  62.4429988
 116.2259027  44.2825697  61.9407384 115.6920747  42.6902716  62.4898726
 117.3588711  42.8957972  61.9475093 117.6910012  42.5334997  64.4769988
 118.1998027  42.8315035  65.3808951 118.3833217  42.1776694  63.7350775
 116.9566784  41.7726105  64.6986176 115.7140012  43.9644997  64.8979988
 116.0773180  44.1279195  65.9016804 115.0792091  43.0913537  64.8805301
 115.1522935  44.8262033  64.5672628 113.7490012  47.0444997  63.1089988
 115.5930012  47.6034997  61.5859988 116.4660012  48.2244997  66.1219988
 117.3830012  48.1614997  67.0399988 117.8420012  49.1184997  67.6569988
 117.7680012  46.6644997  67.2679988 116.8440502  46.0960794  67.2403214
 118.3532601  46.3223499  66.4181091 118.5390012  46.4544997  68.5979988
 118.9967569  45.4715970  68.5774303 119.3573003  47.1656156  68.6502832
 117.6420012  46.5774997  69.8829988 117.2957980  47.6047993  69.9633283
 116.7548171  45.9704827  69.7202110 118.3030012  46.1374997  71.2049988
 118.4793155  45.0637447  71.1791235 119.2781346  46.6027552  71.3268758
 117.4330012  46.4604997  72.4529988 117.0978745  47.4912282  72.3571347
 116.5398021  45.8433454  72.3775201 118.0380012  46.2604997  73.8009988
 118.5714341  45.3121952  73.7577681 118.7923008  47.0306788  73.9358101
 117.0960012  46.2644997  75.0389988 116.2763244  45.5871230  74.8295450
 117.6519238  45.8265163  75.8669279 116.6030012  47.5764997  75.4499988
 116.0174116  48.1269042  74.7291009 116.8030012  48.1604997  76.6599988
 116.3854089  49.1285919  76.8966931 117.5870012  47.5554997  77.7609988
 117.3319996  48.0479100  78.6978698 117.3655952  46.5033335  77.9010230
 119.1050012  47.7334997  77.5179988 119.4258355  47.2146012  76.6154941
 119.3495734  48.7832435  77.3673954 119.9120012  47.1864997  78.7529988
 119.8494712  46.0984408  78.7710236 120.9653432  47.4283131  78.6411917
 119.3900012  47.7534997  80.1089988 119.2612318  48.8318013  80.0471187
 118.4115029  47.3437712  80.3534345 120.3950012  47.4014997  81.2509988
 120.6063645  46.3340065  81.2316644 121.3472216  47.8957153  81.0788008
 119.8600012  47.7564997  82.6639988 118.9150901  47.2351200  82.8060882
 120.5486786  47.3378138  83.3956130 119.6470012  49.2684997  82.9929988
 119.0228545  49.7363472  82.2357177 119.0866799  49.3383061  83.9227730
 120.9460012  50.0604997  83.1419988 120.7421011  51.0798484  83.4557216
 121.4988905  50.1116737  82.2100998 121.5954614  49.6088956  83.8865766
  96.2050012 117.6464997  81.0089988  97.0783095 118.2556418  81.2204401
  96.5147135 116.6055778  81.0277082  95.4958434 117.7931533  81.8190605
  95.5710012 118.0224997  79.6329988  96.3400469 117.8969016  78.8727377
  95.3432231 119.0845551  79.6641356  94.3480012 117.2424997  79.2329988
  93.6596843 117.1308116  80.0706590  94.6222074 116.2333628  78.9319593
  93.6130012 117.9214997  78.0569988  94.0449588 117.6066965  77.1096015
  93.7255505 119.0039102  78.0947626  92.1040012 117.5614997  78.0579988
  91.5717563 118.1639201  77.3263035  91.6731027 117.8068064  79.0272852
  91.8530012 116.0574997  77.7509988  90.7825263 115.9237079  77.6060839
  92.1126377 115.4896267  78.6418894  92.6190012 115.4664997  76.5209988
  93.6947349 115.5695907  76.6511495  92.3687401 116.0125956  75.6124952
  92.2670012 113.9644997  76.3299988  91.1803713 113.9431381  76.2576791
  92.5174859 113.4984587  77.2811808  92.8530012 113.1534997  75.2129988
  93.8980958 112.9551456  75.4409764  92.8494499 113.7581961  74.3069598
  92.1370012 111.8364997  74.9409988  91.0734769 112.0297160  74.8190042
  92.2315848 111.1887346  75.8121379  92.6780012 111.1114997  73.7179988
  92.2827089 110.0981022  73.7003737  93.7594441 111.0127516  73.7945358
  92.3240012 111.7924997  72.3859988  93.0836008 112.5533233  72.2235955
  91.3919665 112.3262882  72.5622124  92.1670012 110.9454997  71.1519988
  91.6349116 111.4767053  70.3646276  91.6141930 110.0266465  71.3263149
  93.5720012 110.5944997  70.6229988  94.1346283 109.9544809  71.2946918
  94.1754399 111.4827751  70.4559045  93.3770012 109.8584997  69.2519988
  92.7885515 110.4659332  68.5761345  92.8699304 108.9124719  69.4002544
  93.2170012 111.0074997  68.2649988  94.0420012 111.8904997  68.2689988
  92.0660012 111.0164997  67.6269988  91.8030012 112.0764997  66.7129988
  91.0163380 111.7345961  66.0574646  92.7229537 112.1515102  66.1515250
  91.4130012 113.4784997  67.3579988  90.4697942 113.4211754  67.8756556
  91.3020012 114.4754997  66.1619988  90.5264919 115.1932798  66.3926023
  90.9900984 113.8908930  65.3055312  92.4900012 115.1184997  65.8969988
  92.8730012 115.6104997  64.3959988  93.4710012 114.2194997  63.8959988
  94.6150012 113.5884997  64.3139988  94.3767439 112.6105340  64.7114980
  95.0343128 114.1613274  65.1360956  95.7670012 113.4984997  63.2429988
  95.3629051 112.7670038  62.5546172  96.6870231 113.1133295  63.6584270
  96.1580012 114.6814997  62.3999988  96.8190012 115.8264997  63.1869988
  96.1908079 116.0721228  64.0322067  96.8961766 116.6806797  62.5308582
  97.8060326 115.5158386  63.4951798  97.1220012 114.1364997  61.3539988
  96.6748195 113.2679824  60.8952827  98.0553422 113.8934238  61.8295601
  97.2692626 114.9113051  60.6155628  95.0330012 115.2564997  61.5539988
  94.6516231 114.4871884  60.8991760  95.4156673 116.0763270  60.9648471
  94.2427997 115.6130204  62.1989093  91.6460012 115.7454997  63.5899988
  93.8310012 116.7454997  64.3489988  92.4320012 114.0014997  68.2409988
  92.0710012 115.1084997  68.9289988  90.9600012 115.6374997  68.9769988
  93.3080012 115.5234997  69.7189988  93.9313583 114.6392850  69.8035164
  93.8761151 116.2318761  69.1212059  92.9610012 116.1114997  71.0869988
  92.3343489 116.9854205  70.9468906  92.3637214 115.4010026  71.6495676
  94.2410012 116.5204997  71.9249988  94.7560804 115.6459770  72.3143026
  94.9567148 117.0357891  71.2891562  93.8490012 117.4524997  73.0729988
  93.4114318 118.3720595  72.6887477  93.1023381 117.0115728  73.7289559
  95.0460012 117.8054997  73.8779988  95.7509232 118.4011168  73.3016082
  94.7631229 118.4152641  74.7338891  95.7100012 116.6064997  74.3609988
  94.9241219 115.9431068  74.7187763  96.1603036 116.1139231  73.5037275
  96.7730012 116.7634997  75.4489988  97.3718541 117.6486258  75.2687019
  96.2915478 116.9104370  76.4148963  97.6420012 115.5204997  75.5239988
  98.2515853 115.2787749  74.6663681  97.7250012 114.6874997  76.5989988
  98.4036671 113.8564579  76.4709670  97.0600012 114.7194997  77.9019988
  97.7571749 114.4552868  78.6953217  96.6522233 115.6887169  78.1666044
  95.8920012 113.6414997  77.8869988  95.4691277 113.5895011  78.8895850
  95.1023791 114.0262977  77.2444363  96.2860012 112.2074997  77.4129988
  95.3729087 111.6874457  77.1233211  96.8840188 112.2967991  76.5102782
  97.0570012 111.3464997  78.4649988  97.0907026 110.3479769  78.0349272
  98.0797070 111.7192075  78.4492930  96.5580012 111.2734997  79.9449988
  97.3193620 110.8028940  80.5642322  96.4234702 112.2732937  80.3486549
  95.2770012 110.4764997  80.0949988  94.4333803 111.0545193  79.7220642
  95.3253332 109.5808510  79.4783048  94.9780012 110.0544997  81.5469988
  94.3588934 109.1617653  81.5875698  95.9077132 109.7928684  82.0474961
  94.3060012 111.1694997  82.3209988  94.1802134 110.8934819  83.3636208
  93.3230806 111.4024064  81.9255717  94.8986426 112.0793819  82.2888823
  36.5780012  42.8184997  81.0329988  36.5395765  42.2906121  81.9807789
  36.7752060  43.8654473  81.2446609  37.4247673  42.4310806  80.4730830
  35.2710012  42.6474997  80.2459988  34.4376966  43.0208908  80.8387766
  35.0834142  41.5887808  80.0887108  35.3020012  43.3774997  78.9109988
  35.6220574  44.4090635  79.0571807  34.2932291  43.4296832  78.5062434
  36.2100012  42.7084997  77.8699988  35.9729811  41.6520618  77.7650676
  37.2600990  42.7550519  78.1543108  36.0190012  43.3994997  76.4919988
  36.1164341  44.4725552  76.6356356  34.9898358  43.2248628  76.1826680
  36.9640012  42.9614997  75.3709988  36.5762289  43.3481370  74.4302750
  36.9211086  41.8770886  75.2949081  38.4680012  43.4124997  75.5399988
  38.7838974  43.2374073  76.5668007  38.5428468  44.4868715  75.3776616
  39.4230012  42.6904997  74.5879988  39.3364621  41.6153617  74.7397890
  40.4490105  42.9514815  74.8407385  39.1710012  43.0114997  73.1259988
  39.2666155  44.0815044  72.9542755  38.1489511  42.7505881  72.8541240
  40.1550012  42.2534997  72.2009988  40.0384596  41.1946605  72.4214001
  41.1622383  42.5222570  72.5182870  40.0250012  42.4864997  70.7349988
  40.9301572  42.1841591  70.2126735  39.8819621  43.5411394  70.5060821
  38.8790012  41.7024997  70.1829988  37.9614824  42.1417798  70.5669406
  38.9364577  40.7010238  70.6053905  38.8080012  41.5834997  68.6139988
  38.7725720  42.5655040  68.1453152  37.9267486  41.0498587  68.2691868
  40.0750012  40.8534997  68.0989988  40.3233169  40.0941517  68.8332160
  40.8741881  41.5895082  68.1251462  40.0440012  40.2104997  66.6929988
  39.7651876  40.9438313  65.9469903  39.3285192  39.3972325  66.6655936
  39.2330012  38.8614997  66.7639988  39.2130012  38.1524997  67.7339988
  38.5560012  38.6924997  65.6249988  37.5670012  37.6194997  65.4819988
  37.9258378  36.7985568  66.0842870  37.6714423  37.3633856  64.4376379
  36.0980012  37.9344997  65.8289988  35.4366176  37.1952650  65.4082877
  35.7440012  39.3134997  65.2879988  34.6746535  39.3131680  65.1258370
  36.2405855  39.3675522  64.3272348  36.1210012  40.4084997  66.0999988
  35.9500012  41.9124997  65.4879988  35.5620012  41.6244997  64.0029988
  36.1660012  42.0994997  62.8809988  37.1329270  41.6362633  62.7338410
  36.3496642  43.1627237  63.0059771  35.2770012  41.9824997  61.5799988
  35.0722458  40.9415131  61.3639635  35.7962593  42.4163674  60.7376765
  33.9150012  42.6714997  61.6329988  33.1250012  42.3164997  62.8629988
  33.0954195  41.2395029  62.9553937  32.1227945  42.6983563  62.7370333
  33.5850749  42.7822325  63.7215685  34.0780012  44.1604997  61.5449988
  34.7170735  44.3862755  60.7051620  34.4970725  44.5228671  62.4666489
  33.0965526  44.5842206  61.3884223  33.2490012  42.1394997  60.4109988
  33.8436427  42.3888694  59.5448012  32.2698703  42.5848705  60.3182753
  33.1516399  41.0664311  60.4914957  34.7910012  42.5994997  66.1799988
  37.3160012  42.5774997  65.4959988  35.9180012  38.0214997  67.2589988
  34.6740012  38.0664997  67.7019988  33.6900012  37.8684997  67.0629988
  34.6290012  38.3474997  69.2079988  33.5876202  38.5154488  69.4626983
  34.9230119  37.4450055  69.7380638  35.5310012  39.5554997  69.6119988
  36.0543582  39.2342591  70.5058460  36.2846519  39.6342425  68.8349253
  34.9110012  40.9054997  69.8619988  35.6644612  41.5601848  70.2925093
  34.6530571  41.3338768  68.8965854  33.6420012  40.8964997  70.7539988
  33.1869520  41.8852321  70.7606687  32.8860571  40.2166238  70.3686165
  33.9700012  40.5034997  72.2089988  34.1564501  39.4325967  72.2570042
  34.9031698  40.9864065  72.4925094  32.8790012  40.8834997  73.2469988
  32.5582082  41.9072525  73.0606580  32.0018026  40.2574915  73.1093237
  33.3560012  40.7544997  74.7229988  34.3244603  41.2213116  74.8599420
  32.6677565  41.2753707  75.3873471  33.3950012  39.2644997  75.1229988
  32.5251900  38.6872550  74.8477333  34.3930012  38.6094997  75.7609988
  34.3824623  37.5475163  75.9602229  35.6260012  39.3124997  76.2519988
  36.4612318  38.9555484  75.6518350  35.5507600  40.3777678  76.0643192
  35.9560012  39.0824997  77.7019988  36.6439515  39.8824127  77.9732338
  35.0293570  39.2856240  78.2354123  36.5490012  37.6784997  78.1929988
  35.7573049  36.9307893  78.2404677  37.2813469  37.3007820  77.4848300
  37.2020012  37.8154997  79.5829988  37.9329359  38.6179128  79.5121995
  36.4348185  38.1627848  80.2728602  37.8720012  36.5364997  80.1629988
  37.0902232  35.7836189  80.2441387  38.5631537  36.1667145  79.4105414
  38.5700012  36.6314997  81.5079988  39.0979859  35.6882095  81.6357435
  39.3380723  37.3933459  81.3876205  37.7760012  36.9334997  82.8099988
  38.4523242  36.6880359  83.6250139  37.6911978  38.0179886  82.8122542
  36.4190012  36.3414997  83.0889988  36.0027915  36.7469746  84.0062929
  36.4620721  35.2633166  83.2003859  35.7235911  36.5625255  82.2842047
  48.9030012 114.6094997  81.6229988  49.1563657 114.5795548  82.6781474
  48.0466909 115.2674805  81.5064491  49.7386779 115.0608026  81.0951901
  48.6010012 113.2004997  81.0799988  47.7690032 112.7464742  81.6155763
  49.4529521 112.5416518  81.2246122  48.2510012 113.2914997  79.5869988
  49.1105799 112.9666004  79.0009153  48.0939065 114.3386559  79.3360882
  46.9790012 112.4744997  79.1409988  46.2134983 112.7159101  79.8751489
  47.2282809 111.4263487  79.2989391  46.3920012 112.6474997  77.7539988
  46.1054966 113.6818417  77.5818806  45.4812625 112.0584370  77.6595254
  47.4190012 112.2054997  76.6309988  48.1642175 111.6260386  77.1729347
  47.9066244 113.1343093  76.3427050  47.0020012 111.4404997  75.3689988
  46.7869896 110.4180261  75.6741017  47.8790364 111.3878920  74.7253594
  45.7780012 112.0064997  74.5389988  44.9003552 112.0728916  75.1807001
  45.5207128 111.3097719  73.7433499  46.0700012 113.4084997  73.9199988
  46.9462447 113.3156934  73.2819351  46.3540457 114.0790979  74.7300566
  44.9550012 114.0214997  73.1419988  45.1552002 115.0906750  73.1328638
  44.0568106 113.8842790  73.7435411  44.6760012 113.5054997  71.6579988
  43.8938459 114.1097430  71.2033956  44.2967805 112.4852362  71.6775455
  45.8530012 113.5634997  70.8059988  46.6902714 113.0284225  71.2474622
  46.1853004 114.5913964  70.6730495  45.5200012 112.9804997  69.4419988
  44.8451198 113.6489682  68.9100805  44.9990608 112.0314917  69.5329882
  46.7850012 112.7814997  68.5659988  46.7477555 111.7791218  68.1522400
  47.6385585 112.8128365  69.2379733  47.0090012 113.7414997  67.4829988
  47.0165940 114.7530148  67.8687714  46.2265460 113.6593383  66.7379602
  47.9840012 114.8224997  67.9839988  48.5900012 114.6544997  68.9819988
  48.2510012 115.7254997  66.9869988  49.3450012 116.5824997  67.2099988
  49.5057825 116.4563360  68.2700431  49.1581166 117.6262293  67.0028889
  50.5470012 116.0814997  66.4329988  51.3562975 116.7050827  66.7751649
  50.4470012 116.1474997  64.8439988  51.3996148 116.3613639  64.3786061
  49.7345696 116.9040834  64.5396842  49.9730012 114.8114997  64.4549988
  50.6580012 114.0364997  63.2849988  50.2010012 112.5764997  63.6309988
  49.4390012 112.2074997  64.6779988  48.6585252 112.9179698  64.9173278
  50.0434244 112.1004524  65.5741072  48.8490012 110.8014997  64.4159988
  48.4179642 110.3780861  65.3144291  49.6968187 110.2002562  64.1208908
  47.8030012 110.6124997  63.3259988  47.5870012 109.0924997  63.3119988
  48.5505178 108.6075628  63.2358013  46.9879310 108.8490334  62.4471640
  47.0609179 108.8049674  64.2099289  46.4920012 111.3054997  63.6859988
  46.7105752 112.3202522  63.9813235  46.0126232 110.7597550  64.4789235
  45.8714450 111.3023228  62.8015798  48.3450012 110.9904997  61.9409988
  48.6718254 112.0196010  61.9557775  47.5611233 110.8701658  61.2083971
  49.1755092 110.3463052  61.6905892  50.1180012 114.4834997  61.9999988
  52.1020012 114.0174997  63.4509988  50.8100012 114.7354997  66.9489988
  51.9730012 114.1804997  66.8589988  52.9830012 114.6094997  66.2979988
  51.9700012 112.7324997  67.5259988  51.2334036 112.1537749  66.9782263
  52.9298567 112.2671953  67.3160555  51.6720012 112.7494997  69.0849988
  52.4601016 113.2809113  69.6070720  50.7550235 113.2910066  69.2946540
  51.5720012 111.2974997  69.6519988  50.6326425 111.0893624  70.1579020
  51.6718655 110.5429407  68.8756401  52.7290012 111.1494997  70.6219988
  53.6223461 111.4462018  70.0755479  52.5959103 111.8867054  71.4100448
  52.9920012 109.7594997  71.2729988  52.1861291 109.0885141  70.9827408
  53.8983630 109.3552935  70.8263371  53.1440012 109.7394997  72.7769988
  53.6699325 108.8133335  73.0035236  53.8236138 110.5480603  73.0313104
  51.8870012 109.8474997  73.6759988  51.2549583 108.9908313  73.4729689
  52.2141458 109.7490499  74.7102279  51.1360012 111.1054997  73.5379988
  50.6665142 111.2765435  72.5809826  50.9710012 112.0244997  74.4559988
  50.4267475 112.8971829  74.1246048  51.4010012 112.0804997  75.8929988
  50.7318574 111.4529004  76.4791616  52.3966163 111.6734905  76.0300204
  51.3500012 113.4704997  76.4519988  51.7239162 114.2035608  75.7381963
  50.3256115 113.7612856  76.6767840  52.1710012 113.5334997  77.7139988
  51.7464291 112.9786113  78.5506256  53.1953672 113.1870397  77.6084351
  52.1700012 114.9844997  78.0379988  52.4401228 115.5826507  77.1705919
  51.1852703 115.3281941  78.3498709  53.1820012 115.2284997  79.1839988
  52.9943095 116.2328113  79.5591254  52.9187290 114.5548375  79.9948576
  54.6860012 115.1134997  78.8699988  54.9470598 114.1087324  78.5426243
  54.9701569 115.7791571  78.0569861  55.5450012 115.4654997  80.1189988
  56.5572952 115.1020224  79.9606951  55.6214995 116.5501657  80.1499923
  55.0520012 114.9894997  81.4199988  55.6743626 115.3623783  82.2278952
  55.0527947 113.9065182  81.4823814  54.0362676 115.3296536  81.6008899
  73.8230012 117.6074997  81.4739988  73.8981005 117.9244879  82.5095216
  73.7520594 116.5236872  81.4636122  72.8926789 118.0017406  81.0743908
  75.0340012 118.0964997  80.6479988  75.9225275 117.7045598  81.1400426
  75.0678511 119.1756116  80.7712285  75.0830012 117.7204997  79.1029988
  74.9986348 116.6445551  78.9508326  76.0357182 118.0126620  78.6658003
  73.9760012 118.4184997  78.3489988  74.1682853 119.4891417  78.3505465
  73.0308000 118.2812277  78.8719300  73.8270012 117.9534997  76.9089988
  73.5178298 116.9113983  76.9122838  74.8136127 117.9780258  76.4492584
  72.8550012 118.7534997  76.0539988  72.9771947 119.7992851  76.3300757
  71.8516739 118.4717278  76.3662743  72.9710012 118.6114997  74.4909988
  72.9286603 117.5599583  74.2130813  73.9428727 118.9748269  74.1598054
  71.9080012 119.3464997  73.7789988  71.7471841 120.2988872  74.2825331
  70.9766803 118.7912992  73.8742767  72.1990012 119.6054997  72.2709988
  73.1092658 120.2010411  72.2880203  71.3994051 120.2817512  71.9711540
  72.3380012 118.5034997  71.2349988  71.4910904 117.8324837  71.3606123
  73.2261538 117.9244453  71.4866134  72.4360012 118.9794997  69.7179988
  71.5772681 119.6010517  69.4734754  72.3898754 118.1230663  69.0475345
  73.7050012 119.7774997  69.4289988  74.5806767 119.2528381  69.8033536
  73.6746381 120.7308209  69.9533333  73.8540012 120.0484997  67.9299988
  74.6654494 120.7571292  67.7730024  72.9586713 120.5182949  67.5325684
  74.1600012 118.7974997  67.1189988  73.2554367 118.3258585  66.7493195
  74.6702744 118.0606248  67.7335951  75.0660012 119.1544997  65.9299988
  75.9612743 119.6571742  66.2732848  74.5438230 119.8067416  65.2400861
  75.5620012 117.8294997  65.2759988  75.9550012 116.8504997  65.8909988
  75.5050012 117.9354997  63.9779988  76.0740012 116.7954997  63.2709988
  76.6833168 116.3565639  64.0465836  76.7016369 117.0459636  62.4280675
  75.0050012 115.8644997  62.8739988  75.4849163 115.0207517  62.4063826
  74.0820012 116.6044997  61.8279988  73.4917309 115.8864353  61.2750380
  74.7152473 117.1417062  61.1330215  73.2530012 117.4914997  62.5159988
  72.3730012 118.5084997  61.6339988  71.0310012 118.3974997  62.4649988
  70.5840012 117.0754997  62.8629988  71.0961588 116.3028069  62.3045818
  69.5278317 116.9751226  62.6301305  70.6870012 116.8294997  64.3469988
  71.7132071 116.7060303  64.6693428  70.1472454 115.9155470  64.5488186
  70.0670012 117.9164997  65.2999988  70.9290012 119.1484997  65.2619988
  71.9546294 118.8579809  65.4437119  70.5951066 119.8130581  66.0449269
  70.8102985 119.6298628  64.3028761  68.6550012 118.2104997  65.0589988
  68.1124880 117.2783309  65.0208576  68.5625357 118.7572987  64.1376785
  68.3040587 118.8100509  65.8864495  70.2170012 117.2304997  66.6439988
  69.6926605 116.2867490  66.6220099  69.7958802 117.8607058  67.4128599
  71.2646132 117.0624635  66.8482240  72.9350012 119.8824997  61.8019988
  72.3250012 117.9654997  60.2889988  74.3500012 115.3474997  63.9989988
  73.2870012 114.5504997  63.9019988  72.7530012 114.2394997  62.8579988
  72.7740012 114.2764997  65.3449988  73.5815037 113.8342142  65.9193473
  72.5305339 115.2107504  65.8448050  71.4960012 113.3134997  65.2679988
  70.6650423 113.8768477  64.8578679  71.6943829 112.5139384  64.5613309
  71.0770012 112.7144997  66.6379988  70.2560611 112.0140842  66.5071186
  71.9052839 112.1384401  67.0431754  70.6800012 113.8204997  67.6789988
  71.4975786 114.5389685  67.6877003  69.8143672 114.3498596  67.2882842
  70.3930012 113.4014997  69.1199988  69.3364385 113.2172934  69.3034230
  70.9112123 112.4818744  69.3848151  70.8810012 114.5214997  70.0429988
  71.9650263 114.5718344  69.9532384  70.4984568 115.4687629  69.6733096
  70.5140012 114.3874997  71.4709988  70.8520153 113.4300170  71.8498832
  71.0380700 115.1480941  72.0482283  69.0310012 114.5614997  71.6789988
  68.4877246 113.7543599  71.2110991  68.3150012 115.4844997  72.3169988
  67.2438228 115.3457463  72.3475675  68.8010012 116.7424997  73.0349988
  69.8178175 116.9634315  72.7148509  68.2073965 117.6143107  72.7834833
  68.8080012 116.5444997  74.6209988  68.8911885 117.4895836  75.1563503
  67.8897225 116.0772360  74.9715526  70.0380012 115.6174997  74.9909988
  69.8584740 114.5869044  74.6848120  70.9444740 115.9321839  74.4813078
  70.2710012 115.6634997  76.5609988  70.5590061 116.6598992  76.8886970
  69.3664447 115.4116600  77.1118521  71.3540012 114.6754997  76.9069988
  70.9160876 113.6881791  76.7727608  72.1158676 114.7692666  76.1379784
  71.9960012 114.7184997  78.2829988  72.3510236 115.7195110  78.5213649
  71.2768599 114.4607538  79.0583935  73.2200012 113.7134997  78.3779988
  72.9764729 112.7003599  78.0679070  74.0399623 114.0301084  77.7371122
  73.7190012 113.6984997  79.8629988  74.6134958 113.0910752  79.9629180
  72.9729615 113.2918374  80.5373812  73.9603468 114.7013066  80.2039850
  26.2550012  54.9034997  82.3799988  25.4073172  54.3135924  82.7144690
  26.5055893  55.6025147  83.1726989  27.0985018  54.2297164  82.2569755
  25.9380012  55.6444997  81.0599988  25.0580588  56.2578154  81.2464079
  25.6343754  54.8844209  80.3452221  27.0770012  56.5454997  80.4429988
  27.9542154  55.9229012  80.2675126  27.3707260  57.2743005  81.1958241
  26.7360012  57.2664997  79.2019988  27.5303523  57.9886462  79.0266118
  25.8362795  57.8488629  79.3945085  26.5360012  56.4184997  77.9039988
  25.9958767  56.9955734  77.1577921  25.9145456  55.5535826  78.1299998
  27.8410012  55.9514997  77.3099988  28.4119560  55.3548829  78.0191363
  28.4781004  56.7894485  77.0351839  27.5390012  55.0904997  76.0329988
  26.4608595  55.0297386  75.8962923  27.8815963  54.0713076  76.2065096
  28.1890012  55.6344997  74.7359988  28.2767056  54.8497346  73.9857304
  29.2007131  55.9885454  74.9251404  27.3260012  56.8164997  74.1529988
  27.2687980  57.6411653  74.8602436  26.2997510  56.4976644  73.9748650
  27.9260012  57.3084997  72.8589988  27.7414781  56.5249704  72.1273348
  29.0044475  57.3345020  73.0129672  27.4620012  58.6654997  72.3049988
  27.7002795  59.4447885  73.0257437  26.3783812  58.6713445  72.2007794
  28.0970012  59.0354997  70.9709988  29.1758174  59.0775910  71.0998507
  27.7821525  60.0448458  70.7126179  27.7480012  58.1194997  69.8359988
  26.6603733  58.0763523  69.8146465  28.0865301  57.1251105  70.1132395
  28.2360012  58.4364997  68.4189988  29.3181224  58.4645541  68.3443564
  27.8722746  59.4031770  68.0808718  27.6880012  57.3434997  67.4679988
  26.6107410  57.2747100  67.5505793  28.1178275  56.3796003  67.7133890
  28.6360012  56.1314997  67.3419988  29.7610012  56.1914997  66.8749988
  28.0220012  55.1184997  67.8939988  28.7680012  53.8944997  67.9709988
  28.8489758  53.5628872  68.9951756  29.7592986  54.0518728  67.5713050
  27.9910012  52.8544997  67.1309988  28.4806251  51.8981557  67.2120455
  27.8660012  53.2674997  65.6079988  28.8115145  53.1088827  65.1073531
  27.6247811  54.3223819  65.5677327  26.8270012  52.4904997  64.9809988
  25.8840012  53.1344997  63.8979988  25.3570012  54.4874997  64.6239988
  23.9740012  54.8744997  64.4439988  23.5778621  55.4793666  65.2492309
  23.3317742  54.0016724  64.3697422  23.8330012  55.6004997  63.0809988
  22.7839138  55.8116504  62.9164386  24.1636936  54.8860752  62.3409871
  24.5720012  56.8994997  62.7689988  25.9930012  56.5604997  62.5079988
  26.3588951  55.9539060  63.3250053  26.5524181  57.4829673  62.4610295
  26.0623966  56.0459238  61.5613664  24.1380012  57.5694997  61.5239988
  23.0617004  57.6481309  61.5343782  24.4825140  56.9991819  60.6799499
  24.5815833  58.5546210  61.5157653  24.5340012  57.8224997  63.9969988
  23.5058932  58.0201029  64.2616285  25.0312009  58.7507189  63.7585634
  25.0392020  57.3440080  64.8235899  26.6700012  53.5564997  62.6839988
  24.7260012  52.2084997  63.6699988  26.6820012  52.7684997  67.6379988
  26.4530012  51.8474997  68.6579988  27.2460012  51.0004997  69.0849988
  25.0880012  52.2074997  69.2279988  24.3357969  52.0271693  68.4669319
  24.8353895  51.5513635  70.0572030  25.1150012  53.7604997  69.6989988
  26.0852500  53.9313556  70.1523049  25.0916740  54.3700227  68.8012401
  24.0380012  54.2124997  70.6529988  23.0831439  54.1579000  70.1363553
  23.9911291  53.4797843  71.4548692  24.2230012  55.6104997  71.2749988
  25.1952486  55.6702225  71.7606675  24.2148392  56.3876841  70.5146569
  23.1410012  55.9264997  72.3189988  23.3843524  56.9018815  72.7353058
  22.2161329  56.0577057  71.7606219  22.8950012  54.9634997  73.4279988
  22.0354564  55.3163455  73.9957871  22.6118572  54.0019614  73.0089622
  24.0730012  54.7554997  74.3739988  24.9604203  54.5277788  73.7950251
  24.2753431  55.6934871  74.8893465  23.8070012  53.6864997  75.4049988
  23.0657345  53.8083712  76.1803858  24.4910012  52.5134997  75.3819988
  24.2317367  51.7480116  76.0992296  25.6060012  52.1254997  74.4449988
  25.2443617  51.8538387  73.4547270  26.3826988  52.8664127  74.2918007
  26.2100012  50.8854997  75.0879988  25.3906592  50.3098574  75.5169740
  26.6163739  50.2792758  74.2806495  27.3060012  51.1044997  76.1619988
  27.9253797  50.2092575  76.1070564  27.9148540  51.9189455  75.7792715
  26.9320012  51.3914997  77.6849988  27.8472079  51.4920042  78.2641711
  26.4165045  52.3472012  77.7623466  26.0530012  50.2954997  78.2849988
  25.1649694  50.1194911  77.6808377  26.5644115  49.3387920  78.3466017
  25.5930012  50.7374997  79.6839988  25.4326621  49.8501422  80.2937291
  26.4057944  51.2857546  80.1568810  24.3420012  51.5914997  79.7379988
  24.3398875  52.1872336  80.6474005  24.3912426  52.3040684  78.9175513
  23.0220012  50.8104997  79.6349988  22.1751866  51.4888115  79.5917876
  22.8707840  50.1556586  80.4865019  23.0002984  50.1968041  78.7388695
 122.3830012  78.2044997  80.2189988 122.1412840  77.9111328  81.2358260
 122.3434273  79.2887956  80.1687364 123.4085004  77.9034803  80.0231658
 121.3960012  77.5514997  79.1869988 120.3836042  77.8530260  79.4503185
 121.4387868  76.4742785  79.3232995 121.6710012  77.9194997  77.6739988
 122.7126501  77.7158838  77.4261339 121.5322090  78.9898901  77.5355356
 120.7460012  77.1664997  76.6679988 119.7363796  77.1340060  77.0715561
 121.0672180  76.1301625  76.5756351 120.6970012  77.8124997  75.2689988
 120.3937949  78.8487752  75.3945853 119.8920714  77.3226044  74.7236038
 121.9970012  77.7674997  74.4149988 122.8296152  78.2320014  74.9401740
 121.8776264  78.3198369  73.4853481 122.3500012  76.3084997  74.0949988
 121.4915119  75.8767152  73.5837960 122.4333794  75.7839391  75.0458480
 123.6390012  76.0494997  73.2479988 123.7842319  74.9835178  73.0775827
 124.5267091  76.3969979  73.7732640 123.5350012  76.7854997  71.8649988
 124.5165029  76.7906200  71.3957769 123.2772407  77.8291352  72.0409571
 122.5120012  76.1664997  70.8989988 121.5303360  76.3214798  71.3412811
 122.6813353  75.0900474  70.9013347 122.5220012  76.6774997  69.4449988
 122.6069133  77.7617117  69.4735497 121.5538762  76.4619090  68.9962418
 123.6470012  76.1224997  68.5279988 124.6068252  76.3367696  68.9917285
 123.6288316  76.6818875  67.5944972 123.5410012  74.6584997  68.2119988
 123.7760204  74.1284198  69.1334288 124.3332005  74.4140920  67.5098883
 122.1990012  74.1054997  67.6719988 121.9742231  74.5749604  66.7199345
 121.4106046  74.3976350  68.3606059 122.1610012  72.5964997  67.5059988
 122.4154142  72.1063035  68.4371393 122.8648005  72.2827522  66.7442259
 120.7890012  72.2594997  66.8819988 119.8770012  71.7444997  67.4929988
 120.7970012  72.5444997  65.6289988 119.6530012  72.1894997  64.9029988
 119.0910259  71.6157153  65.6243983 119.9118124  71.5526462  64.0695563
 118.8130012  73.4364997  64.4219988 117.8693916  73.1113048  64.0161129
 119.6300012  74.2624997  63.3109988 118.9984302  75.0181989  62.8639666
 119.9489774  73.5750123  62.5375647 120.7910012  74.8804997  63.9549988
 121.8930012  75.5914997  62.9979988 121.6060012  77.1744997  63.2029988
 121.2490012  77.7164997  64.4519988 121.8412749  78.5882813  64.6977579
 121.4403213  76.9844757  65.2313155 119.7880012  78.0164997  64.5459988
 119.6100136  78.2594485  65.5859725 119.1620772  77.1792270  64.2729223
 119.2660012  79.2094997  63.7449988 119.0880012  78.7794997  62.3319988
 120.0028857  78.3112362  61.9957703 118.8904077  79.6595741  61.7382599
 118.2457531  78.1064763  62.2739060 117.8500012  79.5244997  64.2329988
 117.8650079  79.5883318  65.3102240 117.1820838  78.7528993  63.8940456
 117.5666559  80.4770473  63.8091292 120.0370012  80.4814997  63.7419988
 120.1415585  80.8363267  64.7565171 119.5070882  81.2160806  63.1544334
 121.0132112  80.3105081  63.3116374 123.2060012  75.3044997  63.4379988
 121.6330012  75.2494997  61.5379988 118.5100012  74.1774997  65.5839988
 117.3360012  74.5974997  65.7899988 116.3820012  74.4224997  65.0589988
 117.2580012  75.2884997  67.1469988 117.2445660  76.3487872  66.9164280
 116.2769057  75.0606620  67.5562037 118.3700012  74.9314997  68.1449988
 118.6424885  73.8875694  68.0353569 119.2698882  75.5003399  67.9336767
 117.9030012  75.1944997  69.6489988 118.0532385  76.2492107  69.8650253
 116.8289327  75.0287225  69.6799817 118.5600012  74.3384997  70.7329988
 118.2579254  73.3036730  70.5826988 119.6411096  74.3591232  70.6190637
 118.2050012  74.7414997  72.1729988 118.1102115  75.8216757  72.2631966
 117.2365699  74.3284250  72.4484825 119.2450012  74.2424997  73.1619988
 120.2365924  74.5292647  72.8152803 119.1081597  74.7198767  74.1282821
 119.1940012  72.6724997  73.3609988 119.1699648  72.1960824  72.3878447
 120.1231362  72.3572717  73.8339526 118.0220012  72.2114997  74.2299988
 117.0161922  72.1372859  73.8447785 118.2110012  71.8684997  75.5039988
 117.3635379  71.5668248  76.1026708 119.5200012  71.8454997  76.2399988
 119.8257712  70.8237958  76.4587380 120.3443944  72.3005660  75.7024381
 119.3070012  72.5984997  77.6049988 118.7503117  73.5194418  77.4356841
 118.6884510  71.9860177  78.2582372 120.6460012  72.9264997  78.3279988
 121.2887634  72.0474466  78.3752146 121.2101808  73.6869334  77.7951330
 120.3510012  73.4134997  79.7519988 119.9279574  74.4142997  79.7012214
 119.5855454  72.7819752  80.1995915 121.6020012  73.4154997  80.6569988
 122.2447362  72.5777572  80.3930496 122.1936422  74.3099764  80.4823641
 121.2590012  73.2954997  82.1469988 121.3122384  72.2326623  82.3759648
 122.0897622  73.7599607  82.6751521 119.9280012  73.8604997  82.7259988
 119.6545887  74.7918206  82.2363030 119.1245956  73.1618790  82.5028807
 119.9850012  74.0834997  84.2759988 119.0163255  74.3929478  84.6567589
 120.7017723  74.8505215  84.5492344 120.2666985  73.1698856  84.7918446
  27.8460012  96.3084997  83.1909988  27.3915551  95.7090904  83.9736968
  28.0709954  97.2850283  83.6099970  28.7891948  95.8408110  82.9221770
  26.9020012  96.4294997  81.9459988  25.9636554  96.8617981  82.2892600
  26.6713936  95.4186115  81.6208229  27.4070012  97.2094997  80.8309988
  27.5830284  98.2319826  81.1648732  26.6264563  97.2696986  80.0751570
  28.7200012  96.6494997  80.1519988  28.5893137  95.5725192  80.0727286
  29.5357443  96.8031087  80.8567494  29.1290012  97.2004997  78.7679988
  30.0389010  96.7196903  78.4180307  29.3554414  98.2625324  78.8465878
  28.0180012  96.9934997  77.7169988  28.2442893  97.5675834  76.8203168
  27.0732452  97.3788597  78.0945049  27.8490012  95.5234997  77.3449988
  27.6236249  94.9287631  78.2283243  28.7760446  95.1230462  76.9370067
  26.7080012  95.3444997  76.2999988  26.8372874  96.0611147  75.4899376
  25.7488953  95.5754368  76.7598552  26.6620012  93.9604997  75.7319988
  25.6686767  93.7501312  75.3413677  26.8405496  93.2277012  76.5179402
  27.7430012  93.7604997  74.5679988  27.8191415  92.6904596  74.3876768
  28.7079126  94.0722103  74.9670119  27.4750012  94.5154997  73.2169988
  28.3758669  94.5606084  72.6087660  27.1697178  95.5473629  73.3818874
  26.3720012  93.7774997  72.4049988  25.5045388  93.6781794  73.0529676
  26.7329569  92.7668721  72.2233044  25.9850012  94.3634997  71.1419988
  25.1002833  93.8456325  70.7754748  26.7621254  94.2001621  70.4005996
  25.6700012  95.8284997  71.2059988  26.4920432  96.4498827  71.5458149
  24.8206448  96.0531378  71.8457045  25.3020012  96.2204997  69.7309988
  24.5047482  95.5896470  69.3589053  26.1643156  96.1088323  69.0844593
  25.4970012  97.7214997  69.5789988  25.6830012  98.5814997  70.4339988
  25.5210012  97.9324997  68.1949988  25.8850012  99.3224997  67.7809988
  25.9822944  99.9516843  68.6528490  25.1230069  99.7315527  67.1335172
  27.2090012  99.2184997  67.0599988  27.3858582 100.1952809  66.6410549
  27.3180012  98.1244997  65.9319988  26.4673379  98.2886221  65.2845138
  27.1762529  97.1903253  66.4609701  28.5090012  98.0874997  65.1809988
  29.5580012  96.8394997  65.2149988  29.1940012  95.9614997  63.9869988
  29.4420012  96.4494997  62.6179988  30.4219785  96.2786919  62.1917849
  29.2273205  97.5056881  62.4831830  28.3260012  95.6914997  61.7959988
  28.4580476  94.6634909  62.1090655  28.5157928  95.7583527  60.7344495
  26.7480012  96.0114997  61.9869988  26.4740012  97.5094997  61.8299988
  27.1526446  98.0537704  62.4722966  25.4553500  97.6957918  62.1361769
  26.5959978  97.7812363  60.7922160  26.1930012  95.1644997  60.9129988
  26.6113848  94.1741114  61.0068085  26.4316260  95.6036417  59.9608526
  25.1219560  95.1289990  61.0504726  26.2880012  95.4524997  63.3709988
  26.4796992  94.3904094  63.4070289  25.2307105  95.6338140  63.4931118
  26.8333385  95.9498064  64.1601301  30.9130012  97.3404997  64.8689988
  29.4040012  95.9414997  66.4139988  28.2210012  98.8844997  68.0049988
  28.7410012  99.8444997  68.8639988  28.4010012 100.9834997  68.8949988
  29.8990012  99.1734997  69.6719988  29.7955668  98.1082724  69.4927080
  30.8337358  99.4652131  69.1996838  29.9100012  99.5024997  71.1589988
  30.9478162  99.5030147  71.4736424  29.5624383 100.5247772  71.2693694
  29.0810012  98.5474997  72.1099988  28.0473553  98.8809512  72.1551690
  29.0597519  97.5528136  71.6715777  29.6640012  98.4454997  73.5279988
  29.1309843  97.6701218  74.0751625  30.7046841  98.1324536  73.4936005
  29.5680012  99.7264997  74.3089988  30.2508262  99.6730827  75.1544558
  29.9322392 100.5333744  73.6760179  28.1660012 100.0914997  74.8099988
  27.5167080 100.1149785  73.9361749  27.8113927  99.2755953  75.4335939
  28.0170012 101.3974997  75.5839988  28.1279256 102.2341728  74.9041062
  27.0043138 101.4567510  75.9806088  28.9800012 101.4954997  76.7189988
  30.0162063 101.5126783  76.4164465  28.7230012 101.5764997  78.0489988
  29.5719063 101.6393798  78.7145934  27.3750012 101.5964997  78.7579988
  27.0164623 102.6241610  78.7338498  26.6527259 101.0098664  78.2013474
  27.3940012 101.1234997  80.2359988  26.4237844 100.6748119  80.4459123
  28.1212028 100.3161469  80.2977907  27.7050012 102.1424997  81.2749988
  28.7205021 102.5259362  81.1757955  27.0476003 103.0057026  81.2183521
  27.5480012 101.4624997  82.6639988  27.4372957 102.2266735  83.4301108
  26.6331132 100.8730106  82.6878244  28.7450012 100.5544997  82.9969988
  28.8032287 100.5336765  84.0836293  28.4534142  99.5519471  82.6961827
  30.1610012 100.8834997  82.4489988  30.3134278 100.3567216  81.5087041
  30.2134960 101.9446692  82.2123610  31.2740012 100.5514997  83.3579988
  32.2164160 100.9268444  82.9669929  31.1175350 101.0699874  84.3013978
  31.4000012  99.0424997  83.6379988  32.1720100  98.8507799  84.3771299
  31.6596128  98.4846019  82.7446383  30.4676160  98.6371913  84.0207834
 107.9220012 101.1934997  82.8089988 107.2092745 101.9262795  83.1743527
 108.7794317 101.2042719  83.4756972 107.4578432 100.2140990  82.8860945
 108.3270012 101.4854997  81.4049988 108.7500513 102.4881664  81.3751494
 107.4262873 101.5161070  80.7978811 109.3550012 100.4744997  80.7929988
 110.1479907 100.1998159  81.4884450 109.8524431 100.8772432  79.9129305
 108.5940012  99.2304997  80.3869988 107.7473775  99.5172553  79.7671201
 108.1730165  98.7484182  81.2679502 109.4390012  98.2284997  79.6209988
 108.8770521  97.3167090  79.4354615 110.3008685  97.9396104  80.2202423
 109.9110012  98.7824997  78.3119988 110.5333123  98.0469015  77.8055985
 110.5454847  99.6487020  78.4872166 108.7270012  99.1914997  77.3739988
 108.4150982 100.2046573  77.6209766 107.8723024  98.5501558  77.5847074
 109.0670012  99.1134997  75.8509988 109.0698049  98.0723057  75.5310639
 110.0756415  99.4860461  75.6820673 108.0490012  99.9344997  74.9519988
 107.7124333 100.7913525  75.5317111 107.1698658  99.3112044  74.7932502
 108.5820012 100.4174997  73.5899988 109.1612586  99.5993016  73.1677291
 109.2894218 101.2227139  73.7865057 107.5290012 100.9044997  72.5659988
 106.9016950 101.6746369  73.0097516 106.8584959 100.0954719  72.2813500
 108.1960012 101.4914997  71.2889988 109.0055957 100.8372295  70.9748233
 108.6561988 102.4452084  71.5406490 107.2010012 101.7144997  70.1139988
 106.6460339 102.6276563  70.3223455 106.4716511 100.9093223  70.1105412
 107.8250012 101.8444997  68.6839988 108.5294881 101.0510108  68.4572419
 108.3597464 102.7831703  68.5655211 106.6850012 101.8054997  67.6749988
 105.9516302 102.5687962  67.9021251 106.1972827 100.8381077  67.6937740
 107.2500012 101.3694997  66.2749988 107.4270012 100.1714997  65.9809988
 107.4640012 102.4124997  65.6049988 108.0020012 102.2014997  64.2799988
 107.5994592 103.0548747  63.7554294 107.5745429 101.2992814  63.8671142
 109.4940012 102.1844997  64.1739988 109.8513790 103.1521546  64.4851564
 109.9060012 101.9184997  62.6999988 109.5792609 102.7268817  62.0600298
 109.4373888 101.0009786  62.3666184 111.3200012 101.7944997  62.6609988
 111.7630012 100.3774997  62.0419988 111.3700012  99.5714997  63.3469988
 111.6520012  98.1764997  63.1959988 112.6647793  98.0699923  62.8297672
 110.9996919  97.8087435  62.4092046 111.3970012  97.2434997  64.4039988
 111.8891441  97.7016372  65.2526179 111.8193701  96.2616484  64.2460445
 109.9980012  97.0204997  64.8229988 109.3320012  96.0104997  63.8699988
 109.4926219  96.3385258  62.8521904 108.2738634  95.9972040  64.0850980
 109.7505319  95.0314202  64.0487515 109.9940012  96.3084997  66.1719988
 110.6502371  96.8415043  66.8428001 110.3150596  95.2916269  66.0332138
 108.9811018  96.3328862  66.5471483 109.1310012  98.2854997  64.8739988
 109.5762608  98.9945008  65.5560129 108.1418396  98.0239061  65.2186410
 109.0666160  98.7186683  63.8862465 110.8930012  99.9194997  60.9259988
 113.1840012 100.4184997  61.8659988 110.0600012 101.1954997  65.0919988
 111.1010012 101.4094997  65.8949988 111.8970012 102.3274997  65.8489988
 111.4420012 100.2544997  66.8869988 110.5043433  99.7146683  66.9702629
 112.1143883  99.5998105  66.3381959 112.0150012 100.6104997  68.2469988
 113.0755377 100.8025118  68.1267716 111.5760858 101.5466056  68.5772896
 111.8170012  99.5274997  69.3299988 110.7669131  99.4993211  69.6095969
 112.0366295  98.5628681  68.8790949 112.6930012  99.6934997  70.5849988
 112.4419885  98.9091864  71.2967230 113.7432148  99.5561525  70.3392570
 112.5260012 101.0054997  71.2579988 112.6570766 101.8007818  70.5270770
 111.4983163 101.0820286  71.6078390 113.4560012 101.2424997  72.4309988
 113.4044943 100.3407695  73.0392181 114.4658227 101.2863578  72.0326835
 113.2410012 102.3924997  73.2669988 114.0596440 102.5315010  73.9634775
 113.1939745 103.2984576  72.6641931 111.9020012 102.2254997  74.0099988
 110.9940905 102.2464528  73.4262067 111.7690012 102.0344997  75.3829988
 110.7769305 101.9273400  75.7976343 112.8730012 101.9504997  76.4029988
 113.6667514 102.6289374  76.0949342 112.5351576 102.2989590  77.3725960
 113.4770012 100.5324997  76.5479988 112.7220578  99.8557169  76.9464088
 113.7300003 100.1559851  75.5587126 114.7480012 100.4874997  77.4549988
 115.2530014  99.5417952  77.2582126 115.4237972 101.2685473  77.1177032
 114.5100012 100.6334997  78.9919988 115.4864261 100.7613055  79.4539565
 113.9723365 101.5660985  79.1540517 113.7710012  99.5154997  79.6599988
 112.7777222  99.4297905  79.2233745 114.2662410  98.5695208  79.4587863
 113.6070012  99.7094997  81.1639988 114.5819000  99.8506526  81.6271738
 113.0461657 100.6221939  81.3570970 112.8900012  98.5324997  81.8739988
 112.0575716  98.1736291  81.2738421 113.5851654  97.6987701  81.9443882
 112.3920012  98.8784997  83.2819988 111.9774092  98.0018061  83.7704564
 111.6167661  99.6370424  83.2629087 113.2024559  99.2505736  83.9023737
  95.6840012  31.7054997  82.3689988  96.2941983  32.6026878  82.3352051
  94.8464383  31.8992985  83.0328665  95.2827010  31.5411024  81.3727339
  96.4950012  30.5004997  82.8399988  96.9037840  30.7459254  83.8187050
  97.3447141  30.4064737  82.1692074  95.7590012  29.1964997  82.9259988
  94.9978185  29.2989884  83.6993202  96.4664795  28.4570608  83.2959657
  95.1030012  28.6454997  81.6319988  94.5447164  29.4270296  81.1213335
  94.3852944  27.8564881  81.8512336  96.1820012  28.1024997  80.6719988
  97.0190362  27.7209678  81.2511177  96.5701705  28.9329658  80.0846185
  95.6720012  26.9624997  79.6929988  95.4259033  26.0898277  80.2952417
  96.5050583  26.6686916  79.0579636  94.4430012  27.3344997  78.7939988
  94.6580038  28.3175586  78.3791024  93.6012842  27.4679490  79.4721830
  94.0430012  26.4054997  77.6849988  93.5239405  25.5458355  78.1069047
  94.9371785  26.0142403  77.2032863  93.1700012  27.0524997  76.6539988
  93.7584838  27.8266083  76.1661617  92.3675853  27.5677435  77.1805248
  92.5530012  26.1094997  75.5689988  91.6062208  25.6528924  75.8490269
  93.2019430  25.2947444  75.2488780  92.3550012  27.0214997  74.4639988
  93.3066626  27.3163796  74.0270465  91.8699796  27.9428418  74.7818206
  91.4970012  26.3454997  73.3579988  90.9816684  27.1023781  72.7716660
  90.7207907  25.7380426  73.8196948  92.3520012  25.4364997  72.4269988
  91.7017001  24.7837866  71.8470625  93.0064547  24.7842148  72.9983910
  93.2040012  26.2634997  71.4359988  93.7460640  25.6035398  70.7666963
  93.9480234  26.8263261  71.9934477  92.3600012  27.2564997  70.5989988
  91.7838644  27.9043841  71.2473453  91.6787725  26.7191309  69.9499754
  93.0830012  27.9074997  69.4489988  94.1590012  28.4504997  69.4949988
  92.3450012  27.7804997  68.2899988  92.8200012  28.4324997  67.1279988
  92.2880052  27.9075958  66.3489492  93.8792252  28.2517812  67.0158504
  92.4920012  30.0164997  67.0619988  91.4462773  30.2035222  66.8820596
  93.3490012  30.5314997  65.8359988  93.0260256  31.5208714  65.5416668
  93.1972430  29.8551856  65.0040410  94.7350012  30.5484997  66.2219988
  95.6840012  31.0454997  65.0809988  95.3740012  29.9544997  64.0099988
  96.0420012  28.6894997  64.0939988  96.1781383  28.3132732  65.0995381
  97.0293633  28.7270647  63.6428869  95.2480012  27.6994997  63.2399988
  94.2982040  27.4731460  63.7078645  95.8505384  26.8027715  63.2257007
  94.9330012  28.0074997  61.8039988  94.7110012  26.7124997  60.9489988
  95.5494533  26.0477224  61.1052137  94.6658578  27.0029401  59.9099095
  93.7760154  26.2570616  61.2389900  93.6750012  28.8344997  61.6019988
  93.7202236  29.6923533  62.2552644  92.8156165  28.2237873  61.8137967
  93.6610655  29.1546255  60.5701934  96.1650012  28.6804997  61.1649988
  96.4058788  29.5775154  61.7158369  95.9387630  28.9347207  60.1403828
  97.0027533  27.9986619  61.1915248  95.2400012  32.3534997  64.5309988
  97.1080012  30.9224997  65.4819988  92.7900012  30.6414997  68.3149988
  92.2870012  31.9404997  68.3759988  91.3950012  32.3894997  67.6019988
  92.9130012  32.7104997  69.5699988  92.1279297  33.1574499  70.1712069
  93.4563624  32.0457411  70.2369033  93.8830012  33.8114997  68.9399988
  94.6141888  33.3363480  68.2952845  93.3270751  34.4974486  68.3087672
  94.5900012  34.5654997  70.0019988  95.1458802  35.3863138  69.5559980
  93.8476986  35.0205569  70.6531322  95.5040012  33.7194997  70.8369988
  96.0841029  34.4082348  71.4484166  94.8894372  33.1452012  71.5259795
  96.4450012  32.7974997  70.1509988  95.9016118  31.9224996  69.8002795
  96.8276919  33.2932205  69.2609484  97.6760012  32.3314997  71.0419988
  98.3597646  31.8039713  70.3787624  98.1999964  33.2222923  71.3770142
  97.3600012  31.4124997  72.3169988  98.2451971  31.3139862  72.9344963
  96.6067470  31.8981308  72.9359628  96.8360012  30.0544997  71.8919988
  97.3970179  29.5995717  71.0895932  95.8040012  29.3634997  72.3799988
  95.5662460  28.4001988  71.9520573  94.8790012  29.7834997  73.5229988
  94.5516097  28.8745682  74.0248746  95.4286905  30.3566875  74.2612253
  93.6280012  30.5724997  73.0899988  93.9499066  31.5237039  72.6677518
  93.1537877  30.0250998  72.2776355  92.5930012  30.8274997  74.1999988
  91.7643373  31.3661202  73.7403130  92.1976060  29.8611284  74.5004871
  93.0760012  31.6084997  75.4649988  94.0906773  31.3232900  75.7337603
  93.0991526  32.6819490  75.2854007  92.1200012  31.3104997  76.6329988
  91.1195420  31.6800267  76.4159243  92.0121284  30.2421907  76.7994453
  92.6220012  32.0154997  77.9539988  93.5768289  31.5905367  78.2582904
  92.8098466  33.0693914  77.7568685  91.6420012  31.9074997  79.1319988
  92.0964119  32.3458825  80.0170108  90.7866533  32.5367670  78.8959571
  91.1500012  30.5264997  79.4549988  90.3993009  30.5583180  80.2389029
  91.9510976  29.8805709  79.7981627  90.6992760  30.0589332  78.5841547
 102.4000012 108.8694997  83.2059988 102.0868196 108.5945235  84.2083632
 103.4735471 109.0332810  83.2275595 102.2099953 108.0199899  82.5557350
 101.6440012 110.1414997  82.7039988 101.8258503 111.0159552  83.3264627
 100.5662328 110.0057103  82.6758798 102.1660012 110.4014997  81.3259988
 102.0855503 109.5086122  80.7061531 103.2258811 110.6445606  81.3677942
 101.4390012 111.5424997  80.6529988 101.5240140 112.3968331  81.3209338
 100.3822966 111.2805357  80.6316359 101.8910012 111.9774997  79.2289988
 102.0451446 111.0868118  78.6252704 102.8641492 112.4571765  79.3198725
 100.9230012 112.9254997  78.4849988 100.6788698 113.7500277  79.1523596
  99.9924319 112.3895701  78.3106506 101.4300012 113.4754997  77.1809988
 102.4136727 113.9181866  77.3265618 100.7800193 114.2822291  76.8449315
 101.5180012 112.3534997  76.0349988 100.5208144 112.1169702  75.6660498
 101.9173322 111.4281812  76.4461002 102.4130012 112.8144997  74.8409988
 103.4053107 113.1100280  75.1749537 101.9916863 113.6827262  74.3357726
 102.5380012 111.6474997  73.8319988 101.5980173 111.1082165  73.9263547
 103.3056424 110.9988582  74.2532115 102.8500012 111.9024997  72.3539988
 103.7852109 112.4453553  72.2347030 102.0852657 112.5081452  71.8707792
 102.9710012 110.5794997  71.6289988 102.1085694 109.9835934  71.9176614
 103.8413118 110.0769677  72.0469593 103.1100012 110.6064997  70.0689988
 103.6614426 109.7311835  69.7299029 103.6755469 111.4712213  69.7333077
 101.7640012 110.6024997  69.3849988 101.0899337 111.2222440  69.9671457
 101.3839567 109.5858796  69.4410513 101.7300012 111.0394997  67.9759988
 102.4212119 110.4557743  67.3814120 102.0020703 112.0854692  67.8985704
 102.0750012 112.5674997  67.9789988 101.3510012 113.4394997  68.3949988
 103.2680012 112.8464997  67.3589988 103.7170012 114.1994997  67.3729988
 104.1096062 114.3650101  68.3649310 102.8592441 114.8386293  67.2214794
 104.7790012 114.4684997  66.3399988 105.2931328 115.3685563  66.6340407
 104.2190012 114.6254997  64.8699988 104.9256755 115.1285134  64.2239418
 103.2981499 115.1949995  64.8869698 103.9860012 113.3604997  64.4269988
 103.7370012 112.9154997  62.9699988 103.8360012 111.3774997  63.0729988
 103.6050012 110.7434997  64.2599988 104.1677244 111.2082728  65.0590717
 103.9664485 109.7221641  64.1823682 102.1110012 110.6174997  64.6339988
 101.6193320 111.5801552  64.5723166 101.9968115 110.2328716  65.6371931
 101.3020012 109.6754997  63.7259988 101.5960012 109.8804997  62.2929988
 101.4985549 110.9336483  62.0677964 100.8734084 109.3178771  61.7207965
 102.5895185 109.5136603  62.0830723 101.3570012 108.2494997  64.0889988
 101.1377812 108.1550605  65.1414900 102.3335304 107.8649940  63.8546570
 100.6042460 107.7385450  63.5062622  99.8200012 109.9914997  63.9679988
  99.5917271 109.8470048  65.0135102  99.2135946 109.3278940  63.3700450
  99.6191189 111.0154546  63.6876461 102.3490012 113.3184997  62.6009988
 104.8660012 113.3544997  62.1409988 105.7190012 113.3484997  66.3519988
 106.5200012 113.1524997  67.3489988 106.5970012 113.9084997  68.2789988
 107.4000012 111.9374997  67.3439988 106.7444012 111.0998322  67.1293946
 108.0685924 112.0181638  66.4905434 108.2260012 111.7214997  68.7089988
 109.1152473 111.1534796  68.4586880 108.5748947 112.6935152  69.0429031
 107.4780012 111.0094997  69.8579988 106.4957306 111.4695366  69.9298633
 107.3110138 109.9892226  69.5215244 108.1510012 110.9654997  71.2619988
 109.0523212 110.3592860  71.1924773 108.4764094 111.9618198  71.5512350
 107.2800012 110.3984997  72.3599988 106.2835589 110.8353687  72.3477766
 107.1426077 109.3270755  72.2275064 107.9270012 110.6444997  73.7299988
 107.8261230 109.7384902  74.3255417 108.9931039 110.8113943  73.6039468
 107.2930012 111.9084997  74.5559988 107.9142545 112.0634255  75.4304256
 107.4212431 112.7895867  73.9286347 105.8570012 111.7964997  74.9309988
 105.1363295 111.5980974  74.1520104 105.3940012 111.9104997  76.1659988
 104.3270039 111.7983406  76.2946345 106.1560012 112.1784997  77.4689988
 105.9746548 111.3836304  78.1904677 107.2318191 112.2389638  77.3479995
 105.6290012 113.5094997  78.0699988 105.9224759 114.3743664  77.4762117
 104.5416116 113.5255564  78.1122505 106.1990012 113.6514997  79.5109988
 106.0041301 112.7374360  80.0719086 107.2793493 113.7614199  79.4753685
 105.6070012 114.8074997  80.2369988 106.2882731 115.0797700  81.0400445
 105.5787215 115.6595376  79.5600079 104.1680012 114.5584997  80.8159988
 103.4313697 114.6868996  80.0251274 104.0696728 113.5288390  81.1487981
 103.8060012 115.5154997  81.9569988 104.4348134 115.3263776  82.8251641
 104.0011526 116.5447856  81.6614987 102.2720012 115.3974997  82.4039988
 102.0329284 114.3797003  82.7020652 102.1200012 116.0089800  83.2907348
 101.3110012 115.8454997  81.3379988 100.2906602 115.8337184  81.7092594
 101.3464130 115.2034823  80.4643280 101.5329480 116.8579388  81.0126565
 125.3930012  61.0324997  80.6639988 126.4174369  60.7305053  80.8583174
 125.4225263  61.9527339  80.0877287 124.9359403  60.2687811  80.0407481
 124.6130012  61.2194997  81.9649988 125.1079252  61.9704720  82.5784266
 124.6420037  60.2937578  82.5333076 123.1420012  61.6494997  81.7199988
 123.1171512  62.6203854  81.2253348 122.6457454  61.7871686  82.6786168
 122.3500012  60.6604997  80.9109988 122.4930006  59.6513922  81.2911347
 122.6761879  60.6403861  79.8722959 120.8680012  60.9954997  80.9669988
 120.5455779  61.0907842  82.0006994 120.2974790  60.1703956  80.5438289
 120.5240012  62.2754997  80.2239988 121.3686840  62.9615799  80.1990641
 119.7105985  62.8119844  80.7078761 120.1000012  61.9114997  78.7379988
 119.5864837  62.7543875  78.2790763 119.3874438  61.0878159  78.7440927
 121.2810012  61.5364997  77.8989988 121.4547879  60.4701380  78.0372811
 122.1512790  62.0424257  78.3129302 121.1850012  61.8404997  76.4109988
 121.0461375  62.9119455  76.2834777 120.2857823  61.3688300  76.0166509
 122.4120012  61.3784997  75.5799988 122.6623742  60.3609357  75.8718480
 123.2698711  61.9935032  75.8506624 122.1960012  61.4524997  74.0489988
 121.7317428  62.4132247  73.8368368 121.4611138  60.6957502  73.7799283
 123.4720012  61.2974997  73.1179988 124.1014999  60.4960951  73.4970780
 124.0675353  62.2065042  73.1789896 123.1100012  61.0344997  71.6109988
 122.5322114  61.8630517  71.2049047 122.4986469  60.1456241  71.4828574
 124.4450012  60.8834997  70.7309988 125.1374845  60.1803225  71.1819463
 124.9612313  61.8378829  70.6697537 124.1080012  60.4174997  69.3059988
 123.3914567  61.0872994  68.8477704 123.6878480  59.4189093  69.3249126
 123.7890012  58.9394997  69.2619988 124.0920012  58.2624997  70.1869988
 123.2160012  58.6844997  68.0949988 122.5970012  57.4314997  68.0569988
 122.1786938  57.2467931  69.0349376 123.3744630  56.7069031  67.8628213
 121.5260012  57.3614997  67.0129988 120.9725169  56.4588783  67.2125579
 122.0450012  57.3504997  65.5439988 121.1927942  57.5186777  64.8995917
 122.4159677  56.3474796  65.3739414 123.0720012  58.3144997  65.2789988
 123.7100012  58.4374997  63.9099988 122.6290012  59.4554997  63.2259988
 122.2550012  60.6854997  63.9429988 122.5892009  61.6013169  63.4731282
 122.6536480  60.6944282  64.9533442 120.6850012  60.6774997  64.1169988
 120.4081806  61.6385784  64.5316638 120.4201887  59.9048371  64.8242780
 119.7600012  60.4654997  62.8879988 120.0280012  61.5604997  61.9029988
 119.9678922  62.5098269  62.4172931 119.2682049  61.5130584  61.1371274
 120.9998093  61.4030469  61.4596991 119.9440012  59.1074997  62.2869988
 119.8805850  58.3726024  63.0747922 120.8967505  59.0697902  61.7897899
 119.1447790  58.9581226  61.5755021 118.3870012  60.5304997  63.4399988
 118.2720668  59.7699022  64.1978665 117.6766672  60.3596542  62.6450852
 118.2178416  61.5062476  63.8721285 125.0350012  59.1274997  63.9769988
 123.5450012  57.1414997  63.2109988 120.6630012  58.5284997  67.0939988
 119.8280012  58.5764997  68.0299988 119.4650012  57.5894997  68.6599988
 119.2240012  59.9314997  68.0919988 119.7885255  60.5855920  67.4354711
 118.2130352  59.9098877  67.6927649 119.2340012  60.4244997  69.5339988
 120.2309329  60.2428540  69.9202537 119.1136983  61.5028959  69.5090611
 118.2050012  59.8074997  70.4899988 117.1849543  60.0774962  70.2287319
 118.2478530  58.7214868  70.4616309 118.5210012  60.2694997  71.9079988
 119.5430194  60.0005285  72.1684586 118.4576376  61.3507610  72.0031875
 117.5820012  59.6294997  72.9259988 116.6028256  60.1037403  72.9114344
 117.4151720  58.5825916  72.6799652 118.1820012  59.7154997  74.3779988
 119.2013247  59.3332481  74.3542452 118.2516960  60.7556545  74.6838394
 117.4090012  58.9774997  75.3909988 116.4120487  59.4022425  75.4071002
 117.3019179  57.9574350  75.0244645 117.9960012  58.9324997  76.7599988
 117.5341484  59.6279611  77.4445274 119.0180012  58.1314997  77.2629988
 119.2931513  58.1974711  78.3058555 119.8290012  57.1194997  76.4709988
 119.7582412  56.1329270  76.9258487 119.5052793  57.0035715  75.4426769
 121.2870012  57.5514997  76.4959988 121.7100991  57.2307425  75.5447848
 121.2660786  58.6392449  76.4671605 122.2200012  57.0844997  77.6679988
 123.2094885  57.5027410  77.4833480 121.8614058  57.5458956  78.5839830
 122.3410012  55.5854997  77.8709988 121.3606286  55.1416192  77.7129332
 122.9877573  55.1787406  77.0955385 122.9020012  55.1654997  79.2919988
 122.8779559  54.0794855  79.3597118 123.9507391  55.4433921  79.3515770
 122.1610012  55.7144997  80.4639988 122.8333708  55.8905435  81.3017402
 121.7192184  56.6798346  80.2236024 121.0140012  54.7444997  80.9379988
 121.4697736  53.8161353  81.2731495 120.5795481  55.1983410  81.8260256
 119.8690012  54.4254997  79.9269988 119.0980731  53.8213980  80.3958273
 120.2312703  53.8774739  79.0637666 119.4011864  55.3372534  79.5664499
  87.9300012 117.6054997  83.7859988  87.5465774 117.5451605  84.7997909
  89.0003375 117.7801843  83.8464586  87.7809552 116.6362288  83.3181191
  87.2140012 118.7414997  82.9719988  87.3573502 119.7087555  83.4506115
  86.1411380 118.5714013  82.9429285  87.7770012 118.7954997  81.5499988
  88.8554697 118.9459352  81.5969433  87.3718925 119.6737014  81.0511804
  87.4810012 117.5874997  80.7039988  86.4111690 117.3927295  80.6761835
  87.9401964 116.6900199  81.1155517  87.9770012 117.7994997  79.2719988
  89.0608831 117.7849608  79.1909958  87.6527926 118.7546794  78.8622605
  87.3980012 116.6584997  78.4179988  86.3774312 116.9069983  78.1325125
  87.3337296 115.7555605  79.0214447  88.2530012 116.3544997  77.1059988
  88.1367220 115.3038752  76.8463117  89.3085699 116.4966153  77.3336121
  87.8650012 117.2424997  75.8649988  87.6147973 118.2292734  76.2524604
  86.9415755 116.8314243  75.4612833  88.8700012 117.3854997  74.7559988
  89.8255454 117.6723010  75.1898434  88.5658284 118.2137882  74.1172547
  89.0490012 116.1904997  73.9409988  89.2014905 115.3359625  74.5965995
  89.9611606 116.2909948  73.3533808  87.8550012 115.9214997  72.9869988
  87.8705886 116.6181788  72.1515730  86.9029008 116.0761181  73.4917027
  87.9060012 114.4614997  72.4139988  87.9882499 113.7477346  73.2300830
  88.8055228 114.3411454  71.8131280  86.6740012 114.1264997  71.5339988
  85.8109210 114.3107598  72.1714882  86.7021951 113.0540728  71.3625938
  86.4360012 114.8404997  70.1979988  86.6336855 115.9060328  70.2518969
  85.4070897 114.7278966  69.8667078  87.3650012 114.2044997  69.1409988
  87.2083365 113.1343369  69.0935771  88.4029323 114.3933830  69.3881650
  87.2250012 115.0614997  67.9209988  86.4480012 116.0444997  67.9189988
  87.9570012 114.6434997  66.9939988  88.1510012 115.3044997  65.7519988
  89.1231999 115.0878860  65.3356213  88.0575176 116.3713517  65.8944049
  87.0400012 114.7714997  64.8219988  86.9232280 113.7023941  64.8873547
  87.4730012 115.1724997  63.3689988  86.9476547 114.5894859  62.6247494
  88.5368622 115.0092428  63.2501210  87.1500012 116.6194997  63.2209988
  88.1090012 117.6934997  62.5629988  87.3480012 119.0764997  62.6839988
  86.0420012 119.3164997  62.2179988  85.7906092 118.7032018  61.3625125
  85.9511956 120.3492355  61.8939492  84.9890012 119.1504997  63.3539988
  85.1071467 118.1241170  63.6777723  83.9817100 119.2851499  62.9871054
  85.0920012 120.0054997  64.6279988  86.1070012 119.3594997  65.6099988
  85.8462804 118.3181818  65.7404431  86.0298557 119.8749362  66.5557650
  87.1037383 119.4787250  65.2124848  85.6300012 121.3314997  64.2659988
  85.0609594 121.7167055  63.4338197  86.6715395 121.2319259  64.0176986
  85.5104704 121.9743978  65.1260519  83.6970012 120.1434997  65.2109988
  83.0481920 120.5977794  64.4769970  83.7405077 120.7673125  66.0911208
  83.3197217 119.1670280  65.4785772  89.3450012 117.7374997  63.3429988
  88.1270012 117.3324997  61.0819988  85.7610012 115.4124997  65.1169988
  84.6840012 115.0544997  64.5249988  84.5060012 114.1344997  63.7679988
  83.6020012 116.0514997  64.9469988  83.7950085 116.9550105  64.3778157
  82.6472145 115.6734341  64.5901291  83.5610012 116.3124997  66.4019988
  84.0288373 115.4793222  66.9148395  84.1697834 117.1827350  66.6258462
  82.1080012 116.5164997  66.9699988  81.6383347 117.3562929  66.4642174
  81.5164325 115.6403499  66.7160833  82.0540012 116.7164997  68.4619988
  81.0266267 116.8495262  68.7959324  82.4438080 115.8626527  69.0108139
  82.8760012 117.9984997  68.8649988  83.9501697 117.8258145  68.8805804
  82.7115398 118.8213285  68.1719720  82.4260012 118.4174997  70.2129988
  81.3818925 118.7245837  70.1778206  82.4792678 117.5922475  70.9175834
  83.3080012 119.6174997  70.7679988  83.2309990 120.3902232  70.0119902
  82.7601305 119.9819233  71.6359730  84.7830012 119.3814997  71.1769988
  85.5712763 119.8237847  70.5866088  85.1520012 118.6594997  72.2469988
  86.2171687 118.6395880  72.4276408  84.3410012 117.8694997  73.2509988
  83.2921810 117.9116429  72.9621713  84.6131711 116.8199295  73.2536456
  84.4720012 118.4394997  74.6879988  85.5276422 118.5665728  74.9250207
  84.0356107 119.4363860  74.7034879  83.8010012 117.5754997  75.7749988
  82.8234495 117.2755753  75.3974472  84.3791386 116.6616684  75.8807039
  83.6280012 118.2464997  77.1749988  84.6059444 118.6542047  77.4210649
  82.9728051 119.1014734  77.0174455  83.0950012 117.4084997  78.3549988
  82.0911988 117.0763046  78.0968957  83.6959551 116.5063805  78.4302343
  83.0240012 118.1114997  79.7259988  83.7524681 118.9203338  79.7285110
  82.0472935 118.5847744  79.8089880  83.2620012 117.2094997  81.0239988
  82.6441282 116.3165348  80.9714460  84.2914637 116.8589139  80.9993120
  83.0190012 117.9144997  82.3449988  83.2835791 117.2718027  83.1792698
  81.9788170 118.1962827  82.4689188  83.6169667 118.8182649  82.4210684
 123.0320012  69.2084997  81.5839988 122.5560149  68.8711628  82.4994603
 123.6641861  70.0561599  81.8322008 123.6778369  68.4082658  81.2330944
 121.9940012  69.5834997  80.5229988 121.3507471  70.3600519  80.9333571
 121.3585243  68.7182745  80.3545690 122.5620012  70.0494997  79.2489988
 122.9167816  69.2121810  78.6482015 123.4306611  70.6793164  79.4304697
 121.5690012  70.8304997  78.4639988 122.0914272  71.1875827  77.5792317
 121.3258091  71.7164164  79.0485628 120.2610012  70.1354997  78.0189988
 119.7562450  70.7157438  77.2508120 119.5693216  70.0713511  78.8573479
 120.5420012  68.6794997  77.4609988 120.8998242  68.0365663  78.2631312
 121.3374010  68.7119610  76.7194717 119.3130012  68.0674997  76.8439988
 118.5559970  68.0659130  77.6261191 119.5609818  67.0233155  76.6584859
 118.7230012  68.6804997  75.5709988 118.3527325  69.6800916  75.7949811
 117.8572243  68.0980053  75.2614593 119.7480012  68.7614997  74.3769988
 120.4226831  67.9081655  74.3641144 120.3793567  69.6466283  74.4441890
 118.9510012  68.8034997  73.0549988 118.3046500  69.6766703  73.1106956
 118.2921686  67.9355316  73.0553933 119.7450012  68.8264997  71.7609988
 120.2703198  67.8826465  71.6316833 120.5127659  69.5975757  71.7942709
 118.8550012  69.0534997  70.5389988 118.4737910  70.0692307  70.6110278
 117.9947301  68.3970052  70.6556981 119.4730012  68.8144997  69.1409988
 118.7569866  69.0937537  68.3699006 119.6966301  67.7632911  68.9821762
 120.7620012  69.6444997  68.9189988 121.1643085  69.4537364  67.9295023
 121.5163296  69.3234504  69.6324468 120.5350012  71.1744997  69.0929988
 120.1020542  71.3855170  70.0625706 119.8668940  71.5466380  68.3253954
 121.5050012  72.0434997  68.3499988 121.1270012  72.9904997  67.6249988
 122.7440012  71.6844997  68.5929988 123.6730012  72.5054997  67.9669988
 124.3699903  72.8195833  68.7292451 123.2035937  73.3781283  67.5364550
 124.3890012  71.6914997  66.9019988 125.1874280  72.3037066  66.5164976
 123.3570012  71.3764997  65.7579988 123.9016569  71.2906922  64.8275214
 122.6986600  72.2340720  65.6968308 122.5960012  70.1744997  66.0109988
 122.8250012  68.9334997  65.1119988 122.0460012  69.3424997  63.8369988
 120.8300012  70.1094997  63.7769988 120.9677207  71.1728032  63.9239953
 120.1220865  69.7831379  64.5333994 120.1290012  69.8164997  62.4029988
 120.6667013  70.5050336  61.7634298 119.0741441  70.0439349  62.3488999
 120.2910012  68.4674997  61.7759988 119.4080012  68.3104997  60.5609988
 118.3975090  68.5851993  60.8307758 119.4351893  67.2734749  60.2610980
 119.7946812  68.9283990  59.7645090 121.6470012  68.4374997  61.1979988
 122.3477268  68.7648117  61.9507035 121.6737482  69.0746888  60.3321785
 121.8557074  67.4154506  60.9166548 120.1630012  67.3244997  62.7639988
 120.9054929  67.4400100  63.5395278 120.3215071  66.3897584  62.2474867
 119.1742895  67.3333837  63.1996653 124.3030012  68.7864997  64.8909988
 122.2500012  67.8444997  65.8509988 124.9650012  70.4274997  67.4089988
 126.0360012  70.5204997  68.1069988 126.7750012  71.5224997  68.2009988
 126.2860012  69.2354997  68.8379988 125.8292135  68.4537456  68.2398695
 127.3550176  69.0387098  68.8183890 125.7560012  69.2434997  70.2659988
 124.7123617  68.9532759  70.2145413 126.2622976  68.4487562  70.8045893
 125.8720012  70.5424997  71.0369988 126.8115725  71.0187724  70.7686259
 125.0849530  71.2033549  70.6821881 125.7620012  70.4254997  72.5319988
 124.9885031  69.7068532  72.7964867 126.6828168  70.0594080  72.9795224
 125.4130012  71.7434997  73.1529988 126.1679217  72.4987597  72.9442448
 124.4799373  72.1269402  72.7446531 125.2560012  71.5864997  74.6729988
 124.5417218  70.7866608  74.8621118 126.1998502  71.2625430  75.1025555
 124.7870012  72.8864997  75.4149988 125.5258667  73.6733811  75.3176582
 123.8727461  73.2663544  74.9609128 124.5120012  72.5754997  76.8639988
 123.4560544  72.4019335  77.0068458 125.2890012  72.4714997  77.9289988
 124.8355310  72.2067319  78.8733890 126.7670012  72.6754997  77.9989988
 127.1894041  72.8087064  77.0044875 127.0733889  73.5400673  78.5772118
 127.3800012  71.4024997  78.6169988 127.0565944  70.5426260  78.0315669
 128.4604992  71.4599169  78.5000101 127.0450012  71.1704997  80.0939988
 125.9676087  71.0169924  80.1553824 127.5029503  70.2300560  80.3878563
 127.4640012  72.2914997  81.1019988 128.4179922  72.7088274  80.7875411
 126.7448759  73.1074618  81.0556348 127.5630012  71.7924997  82.5329988
 127.8521291  70.7432187  82.5308688 128.3557251  72.3176753  83.0587405
 126.2530012  71.9164997  83.3049988 126.0348087  72.9724821  83.4539157
 125.4480485  71.5265862  82.6846337 126.2020012  71.2004997  84.6879988
 126.8249203  71.7457366  85.3926997 125.1834098  71.2965399  85.0575404
 126.5920012  69.7224997  84.7019988 126.4408268  69.2933068  85.6879038
 127.6343559  69.5756666  84.4399345 125.9914695  69.1535050  83.9979051
  69.7490012  27.7694997  83.1639988  70.4062293  27.5571253  84.0014815
  69.4220201  28.8014761  83.2528692  70.3367702  27.6880514  82.2537759
  68.5380012  26.7964997  83.1359988  67.9944498  26.8852635  84.0750812
  68.9145453  25.7779403  83.0964350  67.5230012  27.0614997  81.9079988
  67.9452461  27.8346351  81.2662046  66.6032609  27.4770664  82.3148811
  67.1810012  25.8804997  81.0879988  66.1417907  25.9695053  80.7791791
  67.2353344  24.9882549  81.7098132  68.0490012  25.6824997  79.8379988
  69.0784085  25.5421487  80.1576786  68.0279460  26.6149343  79.2763162
  67.6510012  24.5164997  78.9049988  67.3719308  23.6687802  79.5281428
  68.5373368  24.2099447  78.3536276  66.5110012  24.8144997  77.9099988
  65.6061622  25.0711066  78.4578941  66.2779184  23.9149227  77.3419638
  66.8690012  25.9994997  76.8979988  66.8244755  26.9499445  77.4282092
  66.1098181  26.0498498  76.1196737  68.2560012  25.8464997  76.2449988
  68.3224747  24.8508055  75.8117373  69.0107556  25.8872129  77.0293872
  68.5920012  26.9114997  75.1499988  67.7498159  26.9413479  74.4621528
  69.4401489  26.5362048  74.5779602  68.9170012  28.3594997  75.6649988
  69.8108800  28.3871345  76.2844808  68.1188415  28.7907292  76.2667547
  69.1560012  29.2444997  74.4299988  69.8412446  28.7378913  73.7547148
  69.6590294  30.1566954  74.7454850  67.7670012  29.6564997  73.6289988
  67.0933341  30.1455552  74.3306036  67.2533951  28.7623159  73.2870656
  67.9760012  30.6014997  72.4359988  68.1557364  31.5915612  72.8419772
  67.0224523  30.6430564  71.9162781  69.0690012  30.2684997  71.4209988
  68.9285167  29.2700951  71.0266722  70.0459225  30.3242980  71.8863805
  69.0090012  31.1404997  70.0899988  69.1590012  32.3564997  70.0679988
  68.8040012  30.3264997  69.1379988  68.5330012  30.8944997  67.8739988
  69.4032295  31.4396069  67.5407979  67.7260061  31.5909150  68.0499440
  68.1420012  29.8654997  66.8539988  68.9908657  29.2524083  66.6001447
  67.6160012  30.5914997  65.5839988  68.3302107  31.3383290  65.2647001
  66.6878467  31.0865445  65.8409908  67.4000012  29.6394997  64.5549988
  68.3160012  29.6714997  63.2049988  67.6160012  28.5594997  62.2949988
  66.2260012  28.2964997  62.2759988  65.9165685  27.7490078  61.3952643
  65.6707543  29.2300157  62.2692386  65.7620012  27.5374997  63.6229988
  64.6924104  27.3767932  63.5740287  65.9790166  28.1754561  64.4675654
  66.3510012  26.2234997  63.9459988  67.8370012  26.1324997  63.8299988
  68.1310272  26.5064746  62.8589038  68.1151025  25.0928470  63.9187800
  68.2864753  26.6977391  64.6326160  65.9750012  25.8874997  65.3369988
  64.9098253  26.0223670  65.4462017  66.5227996  26.5209903  66.0115182
  66.2363045  24.8520894  65.5011425  65.7750012  25.2164997  62.9599988
  64.6986405  25.2098395  63.0465165  66.1625499  24.2350044  63.1883032
  66.0596784  25.4925146  61.9549069  68.2550012  30.9744997  62.5109988
  69.7100012  29.2164997  63.6429988  67.0300012  29.0374997  67.3199988
  67.4200012  27.9404997  68.0739988  68.5500012  27.6514997  68.2889988
  66.2400012  27.2374997  68.5329988  65.3479254  27.7586755  68.2011410
  66.1754730  26.2382337  68.1096660  66.3400012  27.1824997  70.1019988
  67.3725158  27.3208558  70.4033823  65.7861502  28.0059451  70.5415665
  65.8200012  25.8324997  70.6719988  64.8481382  25.6220209  70.2328688
  66.4871887  25.0489263  70.3213728  65.7330012  25.7524997  72.2219988
  65.1254761  24.8997071  72.5192598  66.7099169  25.6023850  72.6751028
  65.0990012  27.0314997  72.8149988  65.2034306  27.0475674  73.8979287
  65.6252814  27.9100861  72.4469011  63.6520012  27.1544997  72.4539988
  63.5974414  27.3883312  71.3919032  63.1783420  26.1848078  72.5791496
  62.8620012  28.1834997  73.2339988  61.8267374  28.1591803  72.9142841
  62.8647424  27.9021682  74.2862303  63.4500012  29.5984997  73.1019988
  63.2497803  29.9969069  72.1187708  64.1150012  30.3774997  73.9459988
  64.4573759  31.3709636  73.6941674  64.4690012  29.9294997  75.4109988
  63.7219422  29.2197427  75.7622380  65.4242462  29.4202159  75.4727877
  64.4710012  31.0584997  76.3019988  65.0283265  31.8779737  75.8497202
  63.4496881  31.4153660  76.4204259  65.0690012  30.7354997  77.7099988
  64.6123661  31.4083682  78.4358358  64.7664526  29.7314692  77.9944127
  66.6500012  30.8584997  77.8049988  67.0787528  30.2511304  77.0110091
  66.9276176  31.8877435  77.5843831  67.2520012  30.4504997  79.1619988
  66.8291030  29.4855409  79.4351321  68.3164541  30.2801554  79.0258088
  67.0190012  31.4194997  80.3369988  67.5635920  32.3411686  80.1399451
  65.9648283  31.6900403  80.3560094  67.4200012  30.9004997  81.7459988
  66.8616636  29.9843698  81.9217267  68.4612464  30.5994239  81.6539403
  67.2820012  31.8124997  82.9459988  67.6822550  31.3394548  83.8376794
  66.2460272  32.0628574  83.1480385  67.8225491  32.7424542  82.7939015
 123.5390012  86.6054997  80.3239988 124.0257654  87.5318102  80.6128556
 124.3013434  85.8337335  80.2692144 122.8507738  86.3319861  81.1190745
 122.8010012  86.7564997  78.9799988 123.5458608  87.0812386  78.2554770
 122.1148920  87.5895919  79.1065905 122.0440012  85.5214997  78.4159988
 121.3946454  85.0769133  79.1700604 122.7468512  84.7426842  78.1268287
 121.1960012  85.9064997  77.1719988 121.7723570  86.5467060  76.5077701
 120.3179822  86.4828867  77.4593431 120.7550012  84.6654997  76.3939988
 120.2326246  84.0196742  77.0951443 121.6679263  84.1407958  76.1171984
 119.8710012  84.8564997  75.1309988 119.7289918  83.8511280  74.7387258
 120.5122508  85.3727299  74.4197448 118.4870012  85.5844997  75.2009988
 118.6759182  86.6218386  75.4711994 117.9303175  85.1505818  76.0304857
 117.6010012  85.5394997  73.9009988 117.5334265  84.4979801  73.5893552
 118.1480811  86.0569773  73.1151206 116.1990012  86.1244997  74.0049988
 116.2402318  87.2116217  74.0024103 115.7378123  85.8404924  74.9501029
 115.3230012  85.6514997  72.8579988 114.3130381  86.0214514  73.0205082
 115.2588830  84.5642147  72.8916031 115.8280012  86.0874997  71.4639988
 116.4340617  85.3030433  71.0158249 116.4702425  86.9638631  71.5321245
 114.6770012  86.3854997  70.5379988 114.1370481  87.2391388  70.9404537
 113.9909596  85.5418608  70.5858573 115.0340012  86.6304997  69.1059988
 115.3264242  87.6767934  69.0352163 114.1284314  86.5270441  68.5148014
 116.1300012  85.7964997  68.4799988 115.9358435  84.7529440  68.7050307
 117.0589104  86.0584067  68.9796229 116.3310012  85.9614997  66.9359988
 116.4933932  87.0017765  66.6840189 115.4577901  85.6064893  66.4016402
 116.2050012  87.4614997  66.4979988 115.2740012  87.9304997  65.9029988
 117.3110012  88.1224997  66.8549988 117.3450012  89.4974997  66.3389988
 117.0819874  90.0684887  67.2166418 116.5924279  89.6509414  65.5792086
 118.7140012  89.9074997  65.8369988 118.7250232  90.9750053  65.9826152
 118.9990012  89.5744997  64.3439988 119.9734106  89.9551782  64.0693881
 118.2489611  90.0777855  63.7467314 118.9390012  88.2104997  64.1419988
 118.3090012  87.4484997  62.8709988 118.9090012  85.9894997  62.8549988
 119.0220012  85.1484997  64.0549988 118.2008870  84.4581032  64.1975233
 119.0777799  85.7511594  64.9569339 120.4150012  84.3744997  63.9819988
 120.5382398  83.6909758  63.1514228 120.4949342  83.8179113  64.9046022
 121.6090012  85.2824997  63.9439988 121.5640012  86.0464997  62.6669988
 121.4353049  85.3483121  61.8513362 122.5042250  86.5659173  62.5561634
 120.7576688  86.7628813  62.7153989 121.8260012  86.1694997  65.1089988
 121.7702221  85.5746525  66.0077532 121.0807795  86.9447324  65.1036272
 122.8125369  86.5985166  65.0090555 122.8330012  84.4234997  63.8259988
 122.8730937  83.7444863  64.6646974 123.7098936  85.0533454  63.8279826
 122.7927571  83.8631605  62.9030495 116.8280012  87.1894997  63.1639988
 118.7240012  88.0524997  61.5649988 119.7320012  89.3234997  66.6819988
 119.7260012  89.9124997  67.9359988 119.0200012  90.7894997  68.4199988
 120.9130012  89.5314997  68.7649988 121.7511710  89.3453997  68.1013791
 121.2145987  90.3610772  69.3996223 120.5420012  88.2374997  69.6419988
 119.6270514  88.4201442  70.1947817 120.3387532  87.3882200  68.9974467
 121.6590012  87.8874997  70.6249988 121.6417848  86.8188900  70.8235712
 122.6125329  88.0911145  70.1439757 121.5990012  88.6814997  71.9659988
 122.4923247  88.4153380  72.5279926 121.6870238  89.7412628  71.7393799
 120.3750012  88.4674997  72.8729988 119.5287421  89.0693550  72.5481652
 120.0443300  87.4315684  72.8295940 120.7110012  88.8074997  74.3059988
 119.9420048  88.3677615  74.9392253 121.6440451  88.3190087  74.5726889
 120.8320012  90.2924997  74.6189988 121.5292612  90.4483775  75.4339286
 121.2462394  90.8137186  73.7569758 119.4420012  90.9024997  74.9469988
 118.9819069  91.4560630  74.1423654 118.7510012  90.8084997  76.1019988
 117.7817334  91.2711140  76.2208184 119.2440012  90.0474997  77.3539988
 119.8552196  89.2092596  77.0238675 119.8872199  90.6695685  77.9663557
 118.0890012  89.4924997  78.2209988 118.4212581  89.4712658  79.2582352
 117.2715003  90.2097128  78.1790860 117.5860012  88.1624997  77.8389988
 117.0659903  88.2331550  76.8836436 118.4192366  87.4831826  77.6816742
 116.6250012  87.5644997  78.9009988 117.0113494  87.6938837  79.9095323
 115.6474944  88.0433913  78.8858888 116.4580012  86.0434997  78.5849988
 115.4849702  85.6819878  78.9122753 116.5052426  85.8437919  77.5179889
 117.5540012  85.2174997  79.3329988 118.5237828  85.6788525  79.1553472
 117.3759084  85.2923348  80.4042208 117.6430012  83.7544997  78.9629988
 116.6953027  83.2245869  79.0175443 117.9996921  83.6188543  77.9443306
 118.6580012  83.0994997  79.9379988 118.8356799  82.0623610  79.6699640
 118.3030425  83.1140935  80.9629536 119.6132957  83.6161159  79.9122890
  54.8380012 116.1694997  82.3319988  55.7855789 116.4558387  82.7775718
  54.7138610 115.1000998  82.4760928  54.0480387 116.6697359  82.8854742
  54.7870012 116.5444997  80.8199988  55.6381008 116.0489759  80.3560067
  54.9915725 117.6106719  80.7726552  53.4640012 116.2014997  79.9919988
  52.5819891 116.2361044  80.6313627  53.5146835 115.1862647  79.6035398
  53.2680012 117.1864997  78.7859988  54.2405685 117.4234332  78.3602932
  52.8569757 118.1298159  79.1422552  52.4040012 116.6494997  77.7179988
  52.0385115 117.5310383  77.1975374  51.5530712 116.2397761  78.2596720
  52.8960012 115.6024997  76.6599988  52.0433862 115.0957719  76.2115662
  53.4880657 114.8297767  77.1457309  53.7570012 116.2804997  75.5229988
  54.1921352 117.2040353  75.9005040  53.1061848 116.5659310  74.6976522
  54.8460012 115.3964997  75.0089988  54.4156017 114.5593746  74.4608847
  55.3968788 114.9633833  75.8418421  55.8200012 116.1504997  74.0969988
  56.4321559 115.3615392  73.6653171  56.4632536 116.6871798  74.7932586
  55.3600012 117.1214997  72.9699988  56.2481258 117.5748859  72.5352868
  54.7961995 117.9333872  73.4286875  54.5140012 116.4794997  71.8769988
  54.0675315 117.2864016  71.2998376  53.6876360 115.9583192  72.3572275
  55.2090012 115.5374997  70.9199988  55.6081774 114.6937111  71.4775812
  56.0668367 116.0494516  70.4879185  54.2680012 115.0164997  69.7269988
  53.4427936 114.4213202  70.1143562  54.7984090 114.3801487  69.0241482
  53.6610012 116.2394997  68.9529988  54.4389425 116.8329463  68.4839856
  53.1395300 116.8951899  69.6452632  52.6880012 115.7814997  67.9029988
  51.9199699 115.1587778  68.3438916  53.2001238 115.2118406  67.1366516
  52.3450012 117.0844997  67.1129988  52.4490012 118.2294997  67.5179988
  51.9650012 116.7314997  65.8899988  51.3230012 117.7214997  65.0919988
  50.9176873 118.5158099  65.7004837  50.5177762 117.2430974  64.5535417
  52.3710012 118.2744997  64.1299988  51.9990890 119.0343668  63.4627827
  53.0040012 117.1044997  63.3039988  52.4229475 116.9320800  62.4082035
  52.9740266 116.2105722  63.9143922  54.3530012 117.4334997  62.9689988
  55.1170012 116.8894997  61.7299988  56.5830012 116.5934997  62.2229988
  56.6680012 115.5344997  63.2419988  57.5934632 114.9755426  63.1942915
  55.8661209 114.8149381  63.1040999  56.4540012 116.1034997  64.6089988
  56.5430621 115.2698958  65.2941424  55.4454523 116.4878351  64.6589237
  57.3340012 117.1834997  65.1639988  56.7970012 117.4924997  66.5799988
  55.7326188 117.6716110  66.5140944  57.2939470 118.3818348  66.9380880
  57.0264821 116.6621274  67.2307963  58.7430012 116.6994997  65.3069988
  59.0458029 116.2460301  64.3756608  58.7923287 115.9978222  66.1203778
  59.3605066 117.5605682  65.5180558  57.2920012 118.4064997  64.3089988
  57.6068221 118.1515591  63.3080117  57.9587695 119.1496172  64.7199080
  56.2848435 118.7971516  64.2875646  54.4440012 115.6434997  61.3089988
  55.2270012 117.9964997  60.7389988  53.4210012 118.8594997  64.9959988
  53.3040012 120.1534997  65.2309988  52.3780012 120.8594997  64.8499988
  54.5000012 120.6044997  66.0279988  54.6067373 119.9622029  66.8961090
  55.4152627 120.4832476  65.4539768  54.2870012 122.0624997  66.4199988
  55.2617740 122.4956042  66.6157009  53.8908214 122.5916994  65.5591723
  53.3650012 122.2984997  67.6579988  53.1049874 123.3534850  67.6904442
  52.4368532 121.7630657  67.4738333  53.9390012 121.8424997  69.0469988
  54.0390149 120.7586639  69.0451686  54.9405946 122.2398858  69.1922460
  53.0340012 122.2604997  70.2909988  53.3869474 123.2201114  70.6631215
  52.0256840 122.4321151  69.9192115  52.9610012 121.1994997  71.5199988
  52.5877812 120.2502214  71.1388445  53.9606266 121.0059821  71.8989683
  52.0700012 121.6644997  72.6919988  52.3646131 122.6490502  73.0361558
  51.0345058 121.7508776  72.3654500  52.1420012 120.6294997  73.8369988
  51.3832333 119.8672027  73.9304262  53.1290012 120.6184997  74.7359988
  53.0082387 119.8580090  75.4940755  54.3920012 121.4654997  74.8979988
  54.5721420 122.0268420  73.9827583  54.3060052 122.1989245  75.6919596
  55.5910012 120.5854997  75.1559988  55.6560838 119.7941795  74.4101559
  56.5069605 121.1658766  75.0630464  55.5280012 119.9664997  76.5519988
  55.4400777 120.7441591  77.3106965  54.6495338 119.3362949  76.6598925
  56.8050012 119.1254997  76.8269988  56.5443792 118.0698220  76.8546745
  57.5117582 119.2430129  76.0073829  57.4960012 119.5394997  78.1659988
  58.4755556 119.0670407  78.2089594  57.6830166 120.6097860  78.1542791
  56.7430012 119.1604997  79.4169988  55.8053531 119.7132202  79.4311121
  56.4722738 118.1088076  79.3429409  57.4410012 119.3784997  80.7159988
  57.9825914 118.4813715  81.0054051  58.1976140 120.1456263  80.5664436
  56.5060012 119.8184997  81.8819988  57.0825730 120.0455928  82.7736616
  55.7931087 119.0441118  82.1443893  55.9431129 120.7088669  81.6163975
  21.2410012  89.4874997  80.5839988  22.0880682  88.9627935  81.0148001
  20.8121538  90.1166141  81.3586567  21.6195269  90.1403962  79.8022978
  20.1950012  88.4994997  80.0239988  19.8948729  87.8496356  80.8442443
  20.7114583  87.8671377  79.3069184  18.9240012  89.1214997  79.3719988
  18.2766874  89.3170042  80.2268039  18.4842585  88.2747621  78.8487082
  18.9040012  90.3884997  78.3939988  17.9964683  90.3407022  77.7962116
  19.7321736  90.3060243  77.6918348  18.9620012  91.7614997  79.0929988
  19.8381675  91.7900411  79.7357202  18.0979164  91.8394362  79.7507589
  18.9940012  92.9634997  78.1629988  18.4700685  93.7686376  78.6749211
  18.3860087  92.7065319  77.2981926  20.3850012  93.4794997  77.6789988
  21.0422701  92.6223923  77.5443342  20.8256683  94.0788003  78.4745371
  20.3540012  94.2864997  76.4079988  19.5274447  94.9941592  76.4577332
  20.1372492  93.6243345  75.5717931  21.6720012  95.0574997  76.1219988
  22.4595117  94.3124113  76.0313819  21.9011557  95.6339898  77.0173893
  21.7070012  95.9904997  74.8929988  22.6314759  96.5631850  74.9190182
  20.8969820  96.7144918  74.9774584  21.5870012  95.2644997  73.5779988
  20.5598769  94.9226898  73.4697267  22.2021844  94.3669881  73.6119193
  21.9670012  96.1074997  72.3009988  22.9800009  96.4754247  72.4448098
  21.3229486  96.9848993  72.2949897  21.8470012  95.3934997  70.9239988
  20.8395205  94.9948541  70.8176204  22.5182431  94.5405879  70.8765661
  22.1200012  96.3104997  69.7299988  22.9445062  97.0012874  69.8726480
  21.2569327  96.9057436  69.4438354  22.4470012  95.3814997  68.6119988
  21.6512760  94.6606657  68.4732150  23.3667354  94.8482003  68.8211631
  23.8630012  94.7834997  68.5209988  24.8110012  95.0094997  69.2719988
  23.7760012  93.8444997  67.6619988  24.9930012  93.1644997  67.2899988
  25.4175029  92.6387734  68.1319443  25.6767186  93.9401224  66.9767386
  24.7120012  92.2024997  66.1599988  25.6254349  91.8866739  65.6837772
  23.7640012  92.9624997  65.0849988  23.7836930  92.4257955  64.1461900
  24.1759680  93.9515367  64.9279189  22.4490012  93.0514997  65.5729988
  21.2800012  93.1664997  64.5309988  21.5200012  91.7654997  63.8109988
  21.2880012  90.5644997  64.4819988  20.2398528  90.3864830  64.6841971
  21.7913838  90.5663115  65.4444954  21.9130012  89.3804997  63.6979988
  21.6055475  88.4488088  64.1558998  22.9842453  89.4796599  63.7978994
  21.6500012  89.2204997  62.2329988  22.1330012  87.9044997  61.7069988
  23.1624275  87.7688218  62.0090037  22.0709632  87.9333812  60.6293081
  21.4950561  87.1201593  62.0858829  20.1860012  89.1964997  61.9649988
  19.7328907  90.0411281  62.4609904  19.7791631  88.2668405  62.3207889
  20.0518732  89.2785987  60.8960898  22.4200012  90.2714997  61.4439988
  22.1227326  91.2547223  61.7771453  22.1951239  90.1618504  60.3937334
  23.4802213  90.1363951  61.6024756  19.9580012  93.1574997  65.1759988
  21.5330012  94.2894997  63.5619988  23.9570012  91.0774997  66.5969988
  24.4900012  90.1404997  67.4989988  25.6650012  90.1724997  67.8429988
  23.3450012  89.2684997  68.0189988  22.4230194  89.7520084  67.7128583
  23.3700456  88.3166088  67.4944193  23.4100012  89.0594997  69.5699988
  22.8661590  88.1425920  69.7689387  24.4479754  88.8505962  69.8087493
  22.8850012  90.1524997  70.4739988  23.3083180  91.1051650  70.1659637
  21.8118732  90.2334579  70.3193797  23.1410012  89.9244997  71.9289988
  22.2690307  89.4638472  72.3896210  23.9673638  89.2355803  72.0862152
  23.4540012  91.2904997  72.6989988  22.6847539  92.0154472  72.4409080
  23.3457707  91.1006268  73.7651205  24.8110012  91.8934997  72.4529988
  25.4784455  91.0790601  72.1756770  24.7429033  92.5431701  71.5848922
  25.4550012  92.7154997  73.6549988  26.2915904  93.3082344  73.3037667
  24.7251156  93.4199355  74.0517142  25.8780012  91.7794997  74.7669988
  26.7698097  91.2266081  74.5129466  25.3360012  91.5494997  75.9869988
  25.8233338  90.8092294  76.6051548  24.1720012  92.1664997  76.6059988
  24.2505273  93.2368085  76.4229861  23.2714348  91.8372657  76.0997713
  24.0160012  91.9474997  78.1199988  23.1545192  92.5057814  78.4845195
  23.7978482  90.8976374  78.3061639  25.2630012  92.3524997  78.9169988
  26.1131118  91.7677954  78.5655164  25.5030115  93.3918068  78.7102629
  25.1070012  92.1574997  80.4169988  24.7813575  91.1429073  80.6354103
  26.0598481  92.2876643  80.9271211  24.0900012  93.1674997  80.9769988
  24.3616548  94.1794899  80.6826010  23.0991435  92.9947439  80.5659250
  24.0380012  93.1194997  82.5219988  23.5163897  92.2293462  82.8690308
  25.0402688  93.0654060  82.9431490  23.3200012  94.3774997  83.1109988
  22.3269368  94.0347076  83.3906983  23.8466359  94.5535990  84.0463906
  23.2090012  95.6774997  82.3679988  22.7522653  96.4400913  82.9916295
  22.6025034  95.5828703  81.4736014  24.1877520  96.0395464  82.0661547
  43.3690012  29.7214997  83.3149988  44.3611226  30.0217697  83.6374300
  43.4524752  28.7404271  82.8563935  42.7503829  29.6181343  84.2022637
  42.7770012  30.7254997  82.3539988  43.4809001  30.8075927  81.5275667
  42.8003364  31.6811015  82.8708107  41.3980012  30.4664997  81.8059988
  40.9799430  31.3676832  81.3576412  40.7195851  30.1874971  82.6097900
  41.4070012  29.3304997  80.7549988  40.4004979  28.9512585  80.5925877
  41.9988393  28.4804943  81.0910411  41.9720012  29.8484997  79.3919988
  43.0559500  29.9181549  79.4341430  41.6079177  30.8578953  79.2078014
  41.5880012  28.9704997  78.2479988  40.5109783  29.0438972  78.1085301
  41.7888928  27.9383853  78.5272110  42.3190012  29.2934997  76.8729988
  42.0055087  28.5353339  76.1576826  43.3851516  29.1386060  77.0328776
  42.0950012  30.6844997  76.2669988  41.8888187  31.3865841  77.0738552
  41.1977364  30.6568666  75.6515020  43.2590012  31.2044997  75.4339988
  44.1620067  30.6747312  75.7297477  43.4256873  32.2515278  75.6840485
  43.0700012  31.0744997  73.9579988  42.6041750  30.1332558  73.6745116
  44.0062697  31.1309407  73.4033416  42.1660012  32.2554997  73.5479988
  42.5851850  33.1960442  73.8990001  41.1800915  32.1756721  74.0026830
  42.0140012  32.3334997  72.0099988  41.2130646  33.0381255  71.7997085
  41.6582528  31.3605105  71.6762246  43.2240012  32.6884997  71.2299988
  44.0156171  31.9582674  71.3892375  43.6364287  33.6517384  71.5169632
  42.8890012  32.7114997  69.7009988  41.8164274  32.7510490  69.5417308
  43.2422645  31.7945281  69.2368218  43.5440012  33.8944997  68.9979988
  44.6126314  33.8940723  69.1714063  43.1324453  34.8270227  69.3655469
  43.0840012  34.1804997  67.5519988  42.1000012  33.6054997  67.0929988
  43.9470012  34.9404997  66.9839988  43.8040012  35.1424997  65.5669988
  43.5707258  36.1833588  65.4006953  42.9875478  34.5352073  65.2039672
  45.1030012  34.7774997  64.8729988  45.8291967  35.5561985  65.0378081
  44.8580012  34.5964997  63.3439988  45.8310799  34.5704925  62.8725729
  44.3456305  35.4982254  63.0326277  44.1140012  33.4674997  62.9919988
  44.6920012  32.1514997  62.2699988  44.1130012  30.9744997  63.1819988
  44.4970012  29.6894997  62.7019988  45.2737064  29.7287731  61.9494195
  43.6500611  29.1862713  62.2445595  44.9150012  28.7864997  63.8839988
  45.5076408  29.3901213  64.5597710  45.4895210  27.9163049  63.6010413
  43.7400012  28.2624997  64.7149988  43.1500012  29.5074997  65.3869988
  43.9492166  30.0473456  65.8760335  42.4297050  29.1798017  66.1217692
  42.6562694  30.1090134  64.6385823  42.6400012  27.6164997  63.9179988
  43.0806342  26.8926042  63.2497684  42.1054210  28.3767383  63.3770447
  41.9814737  27.1224293  64.6176651  44.2950012  27.1804997  65.6899988
  44.7639543  26.3935817  65.1182251  43.4795269  26.7716264  66.2674712
  45.0181712  27.6307904  66.3546026  44.1630012  32.0004997  60.8859988
  46.1620012  32.1564997  62.5559988  45.6080012  33.5434997  65.4019988
  46.6500012  33.4904997  66.2239988  47.2620012  34.4704997  66.7349988
  47.0780012  31.9964997  66.5009988  46.1614093  31.4168825  66.5391599
  47.6249157  31.6314441  65.6352471  47.8880012  31.8474997  67.7529988
  48.3045501  30.8475662  67.8047775  48.7355272  32.5254384  67.7415181
  47.0610012  32.0934997  68.9639988  46.6954094  33.1129740  69.0571052
  46.1851246  31.4514515  69.0157608  47.9710012  31.7614997  70.1239988
  48.1281156  30.6852582  70.0824620  48.9370737  32.2176871  69.9220112
  47.5340012  32.1334997  71.5569988  46.4817792  31.8930017  71.6944419
  48.0813207  31.5133588  72.2642807  47.7690012  33.6024997  71.9109988
  48.8129647  33.8581272  71.7363688  47.1824814  34.2523341  71.2675488
  47.4050012  33.9094997  73.3939988  48.0738649  33.2633645  73.9505153
  47.7735217  34.9250124  73.5328239  45.9840012  33.8284997  73.9379988
  45.3901323  33.0522557  73.4793933  45.4140012  34.5414997  74.8619988
  44.3962973  34.2557618  75.0861478  45.9280012  35.7104997  75.6919988
  47.0166107  35.7226100  75.6938797  45.6143057  36.6796468  75.3204748
  45.4560012  35.5424997  77.1129988  45.7002100  36.4481082  77.6670206
  44.3695887  35.4796070  77.0984590  46.0270012  34.3114997  77.8579988
  45.9579047  33.4464261  77.1984683  47.0861858  34.4698524  78.0411826
  45.3280012  33.9974997  79.1699988  45.4668753  34.8815759  79.7882771
  44.2652352  33.9519289  78.9386187  45.7090012  32.8034997  79.9159988
  46.7421737  32.8973973  80.2451305  45.1150027  32.7230332  80.8222636
  45.5880012  31.4794997  79.0729988  44.5652927  31.3932519  78.7103533
  46.2145327  31.5783677  78.1883986  45.9800012  30.1144997  79.8249988
  45.0991455  29.8341333  80.3971902  46.0525832  29.3880868  79.0185441
  47.2280012  29.9914997  80.7139988  47.3589200  28.9689973  81.0551999
  47.1625479  30.6220236  81.5942808  48.1243629  30.2760873  80.1702282
  28.3160012  44.9094997  80.7519988  28.4456391  43.8458128  80.5782364
  28.9902680  45.1989562  81.5528540  28.6302873  45.4319483  79.8526192
  26.7730012  45.2634997  81.1249988  26.4521846  44.7388303  82.0233315
  26.0975796  44.9527907  80.3324840  26.6520012  46.8264997  81.3629988
  27.2480486  47.0838618  82.2384536  25.6183951  47.0379693  81.6296636
  27.0450012  47.7284997  80.2069988  28.0740290  47.5044203  79.9347118
  27.0414737  48.7631182  80.5464954  26.1530012  47.5994997  78.9339988
  25.1003491  47.5536877  79.2012025  26.3769989  46.6694933  78.4141159
  26.3690012  48.7614997  77.9919988  27.4262905  49.0068999  77.9099314
  25.8759153  49.6593876  78.3583873  25.8140012  48.4104997  76.5869988
  24.7549098  48.1861860  76.7000429  26.2891805  47.4833096  76.2695822
  25.9980012  49.5014997  75.4619988  26.9410922  50.0150392  75.6445018
  25.2161437  50.2483245  75.5870412  25.9760012  48.9964997  74.0559988
  24.9574393  48.6774330  73.8455961  26.5880557  48.0958342  74.0282852
  26.4420012  49.9564997  72.9619988  27.4263115  50.3327011  73.2320074
  25.7778697  50.8203341  72.9498166  26.4840012  49.3384997  71.5719988
  25.5653319  48.7899788  71.3752433  27.2921789  48.6137677  71.4898998
  26.6480012  50.3904997  70.5019988  27.5525519  50.9357146  70.7603543
  25.8225670  51.0848755  70.6474999  26.6840012  49.9864997  69.0639988
  25.6782825  49.6952563  68.7657383  27.3043359  49.1024589  68.9459702
  27.1640012  51.0594997  68.1049988  26.6714671  51.9961908  68.3445085
  26.8431792  50.7823748  67.1043154  28.7630012  51.2894997  68.0869988
  29.2774031  50.3591097  67.8825332  29.1003199  51.6703898  69.0436637
  29.3780012  50.7394997  66.7279988  29.0680012  51.1074997  65.6469988
  30.2870012  49.8104997  67.0179988  31.2410012  49.4064997  66.0749988
  32.1665540  49.7578719  66.5055235  31.0502944  49.9463246  65.1588045
  31.3150012  47.8814997  65.8149988  32.2592919  47.6704766  65.3409963
  30.1480012  47.3144997  64.9479988  30.4474066  46.3504019  64.5598328
  30.0182500  47.9976361  64.1178938  28.9010012  47.1954997  65.7119988
  27.7990012  46.2064997  65.0969988  26.6930012  47.1404997  64.6439988
  26.9530012  48.2794997  63.7779988  27.9486382  48.2130090  63.3591016
  26.9341987  49.1792260  64.3862225  25.9110012  48.5134997  62.6829988
  26.1817882  49.3344660  62.0311263  24.9474838  48.7237637  63.1243606
  25.7040012  47.3364997  61.7889988  27.0080012  46.7934997  61.1829988
  27.5470839  47.6149168  60.7313377  26.7472105  46.0694030  60.4255212
  27.5826671  46.3133977  61.9608022  24.9330012  46.2214997  62.5389988
  24.0595370  46.6582636  62.9983589  25.5825465  45.7777102  63.2721507
  24.6372243  45.4844469  61.8064920  24.8360012  47.8054997  60.6199988
  23.9035367  48.1930977  61.0025688  24.6392841  46.9690316  59.9663371
  25.3559929  48.5778755  60.0718390  28.3410012  45.4864997  63.8989988
  27.3570012  45.3914997  66.2379988  31.3260012  47.2514997  67.1619988
  31.8170012  46.0774997  67.2789988  32.2810012  45.4784997  66.3099988
  31.8760012  45.6084997  68.6789988  32.0348561  44.5351595  68.6629075
  32.7486168  46.0309630  69.1709069  30.5540012  45.9964997  69.4389988
  30.5251294  47.0798820  69.4778605  29.7219347  45.6964858  68.8099597
  30.3600012  45.4254997  70.8869988  29.3910619  45.7348725  71.2705338
  30.3293742  44.3404322  70.8257154  31.4720012  45.8304997  71.8729988
  31.1318229  45.5620876  72.8714674  32.3525061  45.2230160  71.6783795
  31.8770012  47.2884997  71.8839988  32.3164586  47.5229468  70.9166246
  30.9636061  47.8762440  71.9521675  32.8410012  47.7394997  73.0089988
  33.4480982  46.8866861  73.3087374  33.5300300  48.4862928  72.6244766
  32.1110012  48.3314997  74.2769988  32.8698163  48.4317322  75.0442882
  31.8142539  49.3435870  74.0050313  30.8990012  47.5974997  74.8019988
  29.9708828  47.7609926  74.2752916  30.8690012  46.7624997  75.8389988
  29.9755891  46.2298758  76.1318069  32.0720012  46.4704997  76.7049988
  31.9996058  45.4183556  76.9751337  32.9696232  46.5686982  76.1047383
  32.2330012  47.3074997  78.0259988  33.1999486  47.0917960  78.4789773
  32.2456854  48.3661295  77.7738064  31.0790012  47.0364997  79.0849988
  30.1472790  47.1887692  78.5401917  31.1290667  45.9747560  79.3101604
  31.0350012  47.8334997  80.3919988  30.1657539  47.5366094  80.9745881
  31.9049544  47.6028852  81.0044392  30.9930012  49.3504997  80.1199988
  31.8914239  49.6521940  79.5848286  30.1611417  49.5965053  79.4656930
  30.9110012  50.1764997  81.4039988  30.0229102  49.8323117  81.9309827
  31.7602589  49.8720959  82.0130420  30.8790012  51.7294997  81.3439988
  31.0257836  52.0954314  82.3571443  31.7730212  52.0148198  80.7938773
  29.6920012  52.4204997  80.7289988  29.8531810  53.4932031  80.6800348
  28.7849593  52.2538516  81.3001769  29.5147301  52.0661327  79.7174949
  54.1930012  26.6714997  81.3519988  55.0928879  27.0342423  80.8651203
  54.4840210  26.2341122  82.3026773  53.5629958  27.5308705  81.5645712
  53.4510012  25.6434997  80.4669988  54.1388821  24.8272053  80.2532550
  53.2397840  26.1219302  79.5144729  52.1790012  25.0794997  81.0589988
  51.4401280  25.8729451  80.9474647  52.3841986  25.0068185  82.1251988
  51.5470012  23.7004997  80.5709988  50.7417532  23.4163261  81.2448468
  52.2883438  22.9055038  80.6350204  50.9830012  23.7644997  79.1199988
  51.6951274  24.2154535  78.4336390  50.0878079  24.3829693  79.0814062
  50.6360012  22.3204997  78.6159988  49.7420067  21.9768130  79.1331741
  51.4367593  21.6461063  78.9118991  50.4170012  22.2124997  77.0939988
  49.5514966  22.8345462  76.8732500  50.1076306  21.1844984  76.9103327
  51.5730012  22.5804997  76.1249988  52.2603248  21.7354985  76.1217937
  52.1125632  23.4093924  76.5794144  51.2150012  22.9414997  74.6909988
  50.6350910  23.8619075  74.6812724  50.5689590  22.1712563  74.2715567
  52.4520012  23.1094997  73.7939988  52.9518403  22.1436835  73.7683278
  53.1289546  23.7899063  74.3099540  52.2200012  23.6144997  72.3749988
  51.6664766  24.5481995  72.4481848  51.5604676  22.9109993  71.8697952
  53.4960012  23.8624997  71.4839988  54.3386737  23.2975376  71.8750741
  53.7809454  24.9114529  71.5403360  53.2410012  23.4804997  69.9389988
  53.8864030  24.1170537  69.3360830  52.2207601  23.7461255  69.6766533
  53.5000012  22.0204997  69.5309988  53.0646163  21.3523803  70.2667987
  54.5723328  21.8441958  69.5416633  52.9790012  21.6734997  68.1899988
  53.3749514  22.3496923  67.4429861  51.8973496  21.7362842  68.1774665
  51.4720012  21.4504997  68.2639988  50.8810012  20.8814997  69.1779988
  50.9050012  21.8924997  67.2109988  49.5060012  21.8914997  67.0399988
  49.0883903  21.6597719  68.0081751  49.1847115  21.1444030  66.3287945
  49.0480012  23.3744997  66.5709988  47.9759025  23.3979120  66.6756428
  49.4440012  23.7094997  65.1019988  48.9855039  24.6626660  64.8760449
  48.9602578  22.9427504  64.5098223  50.8810012  23.7494997  64.8109988
  51.3630012  24.1974997  63.3699988  51.1870012  25.7304997  63.2789988
  51.3020012  26.5244997  64.5379988  51.3882629  25.8645440  65.3913489
  50.3799273  27.0826655  64.6722664  52.4270012  27.5904997  64.5429988
  53.2428536  27.2868161  65.1867456  51.9395465  28.4491387  64.9817515
  53.0700012  28.0844997  63.2709988  53.9890012  27.0434997  62.8089988
  54.6351286  26.7642509  63.6298968  54.5803591  27.4542925  62.0042348
  53.4143679  26.2050019  62.4450825  51.9970012  28.4494997  62.2489988
  51.2735403  29.0924610  62.7264076  51.5401968  27.5477087  61.8822935
  52.4854141  28.9761398  61.4419052  53.9580012  29.2684997  63.5849988
  53.3654406  30.0453429  64.0448559  54.3922628  29.6390701  62.6686231
  54.7444980  28.9607583  64.2589075  52.7660012  23.8944997  63.3189988
  50.4050012  23.5764997  62.4059988  49.6060012  24.3314997  67.4299988
  49.3980012  25.6274997  67.2749988  48.5080012  26.1624997  66.5989988
  50.3550012  26.3754997  68.2039988  51.1901758  25.7274703  68.4491400
  50.7858213  27.2400934  67.7052216  49.5790012  26.7874997  69.4339988
  50.2035074  27.4871798  69.9785175  48.7159678  27.3537593  69.0985046
  49.1280012  25.6614997  70.3909988  48.5295458  24.9340034  69.8485465
  50.0079889  25.1284572  70.7424989  48.3830012  26.1574997  71.5579988
  47.4410880  26.6190756  71.2673902  48.1318155  25.3797015  72.2750327
  49.2590012  27.2354997  72.2699988  50.2777506  26.8759949  72.3996401
  49.3284193  28.1232765  71.6443676  48.6860012  27.6394997  73.6309988
  48.9889065  28.6545070  73.8834060  47.5996135  27.6369498  73.6224280
  49.1580012  26.7034997  74.6969988  48.4165081  26.7969028  75.4818834
  49.0208436  25.7145834  74.2615927  50.5110012  26.7914997  75.2379988
  51.2727170  26.1229930  74.8659209  50.8850012  27.6884997  76.1899988
  51.9136566  27.6610507  76.5197328  50.0450012  28.7534997  76.8709988
  50.6835388  29.6052111  77.0992056  49.2631004  29.1264339  76.2189004
  49.4080012  28.2454997  78.2099988  48.9702612  27.2581286  78.0679171
  50.1859568  28.1269674  78.9617927  48.3710012  29.1784997  78.7229988
  48.8372357  30.1305453  78.9766551  47.6491528  29.3930160  77.9397863
  47.6330012  28.6244997  79.9669988  46.8820302  29.3492972  80.2733582
  47.0898120  27.7239832  79.6857504  48.5810012  28.3004997  81.1649988
  47.9549960  27.9419653  81.9799592  49.2016033  27.4572650  80.8744246
  49.4690012  29.4494997  81.7149988  50.2161603  29.7801216  80.9957455
  48.8886802  30.3329457  81.9749691  50.2070012  28.9424997  83.0029988
  50.7037930  28.0097057  82.7480317  51.0027641  29.6618526  83.1835690
  49.4340012  28.7634997  84.2549988  50.0897193  28.4948374  85.0777522
  48.6895835  27.9797935  84.1634135  48.9173109  29.6789270  84.5291610
 127.0360012  52.3984997  84.5829988 127.4577885  52.0643363  85.5257921
 127.8416298  52.8247831  83.9922069 126.6698214  51.5218979  84.0556528
 125.8900012  53.4374997  84.8099988 126.3223341  54.2543750  85.3853300
 125.1679604  52.9536030  85.4621607 125.1830012  54.0104997  83.5719988
 125.9064117  54.6170203  83.0272613 124.4203371  54.6997165  83.9290626
 124.5110012  52.9934997  82.5829988 123.5526333  52.6829966  82.9933264
 125.1165521  52.0910421  82.5152911 124.2810012  53.5604997  81.1699988
 125.2353061  53.8248481  80.7216741 123.7143856  54.4866687  81.2507625
 123.5330012  52.5834997  80.2219988 122.5863826  52.2822278  80.6669320
 124.1117540  51.6715461  80.0917572 123.2610012  53.2354997  78.8059988
 124.1923458  53.5491790  78.3380540 122.6517717  54.1331028  78.9028393
 122.5370012  52.2224997  77.8779988 121.5814400  51.9619003  78.3312557
 123.1196814  51.3036651  77.8478192 122.2920012  52.7324997  76.4019988
 123.2266520  52.6325323  75.8542987 122.0794739  53.7999019  76.4474028
 121.1740012  52.0274997  75.6299988 120.2119534  52.2912507  76.0638174
 121.2738168  50.9482034  75.7421837 121.1920012  52.3804997  74.1479988
 122.0878050  52.0055453  73.6576053 121.1807147  53.4553916  73.9759291
 119.9400012  51.7314997  73.4549988 119.1162424  52.4230650  73.6143029
 119.7070389  50.8419912  74.0373846 120.0210012  51.3444997  71.9909988
 120.8149198  50.6038812  71.9108155 120.3592048  52.2144392  71.4350334
 118.7510012  50.7634997  71.3019988 117.9549999  51.5001678  71.3343554
 118.4118370  49.9083842  71.8806499 118.9730012  50.3014997  69.8019988
 119.7865534  49.5898334  69.7411312 119.2087867  51.1536066  69.1755900
 119.1730012  51.5574997  68.8699988 118.3810012  51.8854997  68.0359988
 120.4090012  51.9974997  68.9459988 120.8870012  52.9034997  67.8319988
 120.6049422  53.8845463  68.1833564 120.3607786  52.6929749  66.9122373
 122.4170012  52.8284997  67.6239988 122.7980757  53.4024404  68.4524119
 122.9380012  53.4044997  66.3109988 123.9928713  53.6186840  66.4167112
 122.4105105  54.3346779  66.1403908 122.7190012  52.5064997  65.2329988
 122.7920012  53.0124997  63.6939988 122.3680012  51.6314997  62.8719988
 123.3530012  50.9194997  62.1509988 124.0662197  51.5861139  61.6839507
 122.8774362  50.3650590  61.3471141 124.0800012  49.8384997  63.0219988
 124.2734653  50.4587510  63.8880870 125.0235760  49.4956826  62.6225993
 123.3500012  48.5544997  63.5689988 122.1500012  48.8824997  64.3779988
 122.4280876  49.6088848  65.1292421 121.8126726  47.9752066  64.8566728
 121.3770508  49.2557234  63.7230417 122.8270012  47.8724997  62.3139988
 123.6361143  47.7938491  61.6041650 122.0097496  48.4474515  61.9166321
 122.4871871  46.8874236  62.5993906 124.3410012  47.6524997  64.2059988
 125.0960787  47.3856079  63.4816310 123.8390029  46.7609948  64.5507694
 124.8000555  48.1558572  65.0446496 121.7020012  53.9704997  63.3969988
 124.1530012  53.5024997  63.3449988 122.8670012  51.4994997  67.7359988
 124.0180012  51.2314997  68.1999988 124.7280012  51.9344997  68.8239988
 124.3010012  49.7244997  67.7939988 123.4202408  49.4215357  67.2371980
 125.1150560  49.7468673  67.0737756 124.6150012  48.7464997  68.9649988
 124.9520828  47.8248836  68.5034137 125.4755794  49.1531425  69.4866113
 123.4930012  48.4244997  69.9759988 123.1165165  49.3687052  70.3612120
 122.6783508  47.9825935  69.4075547 123.8460012  47.4824997  71.1409988
 124.4303482  46.6293064  70.8014317 124.4332889  47.9623546  71.9201228
 122.5650012  46.9694997  71.7439988 121.8270581  46.8337275  70.9560222
 122.7519956  45.9803566  72.1575324 121.9540012  47.8894997  72.8849988
 122.6026098  47.9021042  73.7595552 121.8535750  48.9222037  72.5628887
 120.5520012  47.3574997  73.2929988 120.0852895  47.9738191  74.0525451
 119.8700160  47.3482734  72.4437891 120.7400012  45.9094997  73.7899988
 120.6899707  45.0905653  73.0882884 120.9780012  45.6054997  75.0539988
 121.1430146  44.5728150  75.3259234 121.0550012  46.5644997  76.2109988
 122.0980302  46.8024321  76.4127400 120.5631006  47.5081826  76.0032069
 120.4390012  45.9304997  77.5019988 119.3613644  45.8430948  77.3687157
 120.8167401  44.9138826  77.5928945 120.7350012  46.6984997  78.8029988
 120.1840190  47.6373648  78.7477004 120.2923951  46.1342881  79.6192519
 122.2530012  47.0034997  79.1349988 122.8477986  46.2144291  78.6803246
 122.5277542  47.9245413  78.6238450 122.5990012  47.1284997  80.6189988
 122.2194211  46.2640973  81.1605867 123.6759542  47.1194022  80.7629238
 122.0010012  48.3734997  81.2489988 122.5651276  49.2720746  81.0056730
 120.9824855  48.5558434  80.9110480 121.9850012  48.2074997  82.7599988
 121.4686925  47.2778776  82.9861475 123.0210872  48.0489340  83.0510241
 121.3780012  49.3804997  83.6489988 121.5093704  49.1703812  84.7061938
 120.3158498  49.5140888  83.4737006 121.8689947  50.3258870  83.4361392
 108.2140012  32.4204997  83.3099988 107.7628920  33.3053470  83.7481480
 107.6576016  31.5563784  83.6614301 108.0818605  32.4809495  82.2331995
 109.6740012  32.3134997  83.6719988 109.7709917  32.2839783  84.7559380
 110.1831341  33.2159129  83.3445112 110.3550012  31.0744997  83.0699988
 109.8180354  30.1851223  83.3995510 111.3536557  30.9982443  83.4954927
 110.4740012  31.0554997  81.5549988 111.4690906  31.3401831  81.2203311
 109.7837860  31.7408864  81.0655562 110.1990012  29.6754997  81.0999988
 109.1536709  29.4495667  81.2944518 110.7792377  28.9992074  81.7255540
 110.5050012  29.3854997  79.6189988 111.3710933  29.9635199  79.3018330
 109.6746510  29.7167365  78.9990166 110.7690012  27.8854997  79.3579988
 109.9078446  27.2637081  79.5958112 111.5964840  27.4990131  79.9514044
 111.1160012  27.7334997  77.8099988 110.5948890  28.5309854  77.2818798
 110.6710908  26.8010014  77.4676747 112.5770012  27.7564997  77.4299988
 113.0333925  26.8191641  77.7408846 113.0743821  28.5400938  78.0002350
 112.8330012  27.9734997  75.9559988 111.9464379  27.6977455  75.3891970
 113.6292213  27.3102192  75.6190693 113.2240012  29.4314997  75.6469988
 114.0155691  29.7502657  76.3217946 112.3835540  30.0986546  75.8305221
 113.6990012  29.6134997  74.2479988 112.9242657  29.2703908  73.5666176
 114.5553873  28.9611143  74.0877925 114.1090012  31.0584997  73.9009988
 114.7957101  31.3890308  74.6784511 113.2301940  31.6920891  73.9818470
 114.8130012  31.3154997  72.4739988 115.7583197  30.7840924  72.4376097
 115.0442516  32.3744340  72.3947945 114.0210012  30.9394997  71.3519988
 113.0580639  31.4331382  71.3853709 113.8622303  29.8676783  71.3442684
 114.5000012  31.8744997  70.1089988 115.1000012  32.9364997  70.2679988
 113.9730012  31.3664997  69.0269988 113.8470012  32.1924997  67.9419988
 114.8662038  32.4571099  67.7039455 113.2978376  33.0893894  68.1893856
 113.2090012  31.4714997  66.7799988 113.8318374  30.6534019  66.4579970
 112.9610012  32.4104997  65.6279988 113.0543009  31.8336600  64.7178602
 113.7666325  33.1331218  65.6648812 111.6560012  33.0934997  65.6739988
 111.1200012  33.8644997  64.4209988 110.4480012  32.6814997  63.5829988
 109.5710012  31.7314997  64.0609988 108.5787096  31.8950768  63.6612626
 109.4923831  31.8486830  65.1379780 110.0290012  30.2484997  63.8409988
 109.2804368  29.5760623  64.2406592 110.9640671  30.0705947  64.3522506
 110.2490012  29.8154997  62.4129988 111.5210012  30.3824997  61.9039988
 111.5256316  31.4467697  62.0954195 111.5630227  30.2042255  60.8397843
 112.3462758  29.8822740  62.3881611 110.4350012  28.2774997  62.2969988
 109.6308591  27.7938538  62.8300619 111.3937392  28.0082236  62.7028087
 110.3888420  28.0247570  61.2475763 109.1440012  30.2984997  61.4979988
 108.1976956  29.9161316  61.8506778 109.3294836  29.9385257  60.4971666
 109.1241976  31.3787943  61.4954976 110.1250012  34.9034997  64.8139988
 112.3170012  34.3014997  63.6759988 111.9850012  30.8684997  67.3339988
 111.5810012  29.6854997  66.9879988 112.0920012  28.8184997  66.2829988
 110.2010012  29.5094997  67.5709988 109.6457611  30.4224337  67.3817559
 109.6760657  28.7249311  67.0317382 110.2870012  29.1814997  69.1039988
 110.9630696  28.3533079  69.2859074 110.6785527  30.0189920  69.6726172
 108.8800012  28.8084997  69.6209988 108.2317191  29.6728665  69.7403905
 108.3680093  28.1380077  68.9351636 109.0620012  28.0614997  71.0239988
 108.0719054  27.8037040  71.3954254 109.5828326  27.1198720  70.8681980
 109.8040012  28.8694997  72.1279988 110.2892549  28.2208379  72.8544062
 110.5911047  29.4876556  71.7005268 108.8140012  29.7694997  72.8399988
 108.4143041  30.5080852  72.1468649 107.9631947  29.2039617  73.2096109
 109.4710012  30.4844997  74.0139988 109.9488929  29.7806388  74.6853998
 110.2552569  31.1532353  73.6617465 108.4200012  31.3084997  74.7409988
 107.4653824  31.3237587  74.2369907 108.5160012  32.0094997  75.9319988
 107.6187206  32.5085074  76.2688799 109.6860012  32.1824997  76.8409988
 109.4975279  31.6698366  77.7827394 110.5995274  31.7567371  76.4411525
 109.9100012  33.6984997  77.1459988 110.0435421  34.2436389  76.2123527
 109.0113621  34.1032628  77.6075978 111.1190012  33.9594997  78.0729988
 111.0636091  35.0042192  78.3789397 110.9696184  33.3709134  78.9739732
 112.5490012  33.6664997  77.4869988 112.4847390  32.9130041  76.7051677
 112.9605535  34.5581066  77.0171618 113.5200012  33.1834997  78.6159988
 113.0782846  32.3569608  79.1694516 114.4482592  32.8003505  78.2010786
 113.8230012  34.3384997  79.6339988 114.4130474  35.0601198  79.0718664
 112.8588826  34.8110268  79.8129611 114.4720012  34.1104997  80.9199988
 115.2385019  33.3468580  80.8139657 114.9989363  35.0233566  81.1889683
 113.5260012  33.7294997  82.0699988 114.0677211  33.6628558  83.0087038
 113.0485981  32.7701205  81.9014197 112.7418202  34.4712384  82.1925749
  87.5930012  24.8134997  79.9049988  87.4040664  24.9390327  80.9665891
  87.6301298  25.8018210  79.4559639  88.5767013  24.3652962  79.7951819
  86.4980012  23.9314997  79.2359988  85.5270287  24.3973663  79.3953216
  86.4652819  22.9744783  79.7496655  86.7150012  23.7144997  77.7209988
  86.1523213  22.8809417  77.3008779  87.7552921  23.5411704  77.4528146
  86.2390012  25.0614997  77.0399988  86.2226696  25.8658369  77.7721360
  85.2196085  24.9718976  76.6678213  87.1560012  25.4614997  75.9009988
  88.1141745  25.6916421  76.3598139  86.7564778  26.4067652  75.5373792
  87.3860012  24.5254997  74.7199988  88.0308045  23.7351921  75.1000773
  87.9864160  25.0944021  74.0132959  86.1630012  23.8804997  73.9619988
  85.4755426  24.6967710  73.7478217  85.6605578  23.2419512  74.6872825
  86.4260012  23.0584997  72.6369988  87.4700812  23.1688589  72.3468804
  85.8385209  23.4845930  71.8258296  86.1070012  21.6274997  72.7669988
  86.5251451  21.2767673  73.7081063  86.6393304  21.0937349  71.9806797
  84.6170012  21.2644997  72.7059988  84.2499236  21.4749250  71.7038639
  84.0664655  21.9230907  73.3772643  84.3210012  19.7994997  73.0789988
  83.2434076  19.6715732  73.0017458  84.5646109  19.6806787  74.1333535
  84.9940012  18.6914997  72.2799988  84.5251122  17.7403758  72.5202602
  86.0311403  18.6083780  72.5995345  84.9660012  18.9224997  70.7889988
  85.5099552  18.1170715  70.2984364  85.4906112  19.8403718  70.5388607
  83.5290012  18.9744997  70.1789988  82.9006486  19.6401192  70.7616381
  83.0835819  17.9852640  70.2430800  83.5140012  19.4284997  68.6919988
  84.1617391  18.7976328  68.0966135  83.8534649  20.4539811  68.6070208
  83.9160012  20.8894997  68.4409988  83.7490012  21.7834997  69.3019988
  84.5220012  20.9734997  67.2629988  85.0430012  22.2294997  66.8169988
  85.3152433  22.7275141  67.7353276  84.2128316  22.7522024  66.3644589
  86.2170012  22.1784997  65.8859988  86.4855120  23.1830878  65.6038664
  85.9050012  21.3264997  64.5989988  85.3453872  21.9454704  63.9108793
  85.2744326  20.5066572  64.9196647  87.0850012  20.8304997  63.9759988
  88.2200012  21.7074997  63.2199988  88.8740012  22.6594997  64.3169988
  90.0280012  23.3784997  63.9099988  90.7504554  22.7563252  63.3979950
  90.5360373  23.7906027  64.7771016  89.6270012  24.6404997  63.0209988
  89.1841632  24.3046629  62.0918286  90.5520622  25.1529499  62.7995628
  88.6540012  25.7334997  63.5869988  88.5920012  26.7864997  62.5239988
  89.6015734  27.0639533  62.2535966  88.0766656  27.6428340  62.9329252
  88.0402991  26.4004603  61.6800109  87.2700012  25.2724997  63.9089988
  87.3376695  24.3834780  64.5170904  86.7410390  25.0825434  62.9922187
  86.7863525  26.0643081  64.4625512  89.3140012  26.3084997  64.8349988
  89.4898175  25.5124346  65.5431308  88.6594144  27.0459857  65.2746356
  90.2518574  26.7725635  64.5657305  89.2070012  20.8444997  62.5689988
  87.3910012  22.5264997  62.3139988  87.3440012  21.5764997  66.6099988
  88.0650012  22.4624997  67.2759988  87.7730012  23.6304997  67.3459988
  89.2430012  21.6154997  67.8769988  89.4994451  20.8673794  67.1339607
  90.1174802  22.2547395  67.9695506  88.8720012  20.9754997  69.2409988
  88.9087008  21.7758028  69.9719085  87.8306660  20.6766093  69.1752828
  89.7210012  19.7994997  69.7409988  89.8725953  19.0917938  68.9299342
  90.7068141  20.1754355  70.0035063  89.1290012  19.0804997  70.9639988
  89.0173407  19.7938044  71.7785135  88.1309364  18.7070754  70.7480751
  90.0330012  17.8684997  71.4779988  90.1392356  17.1112222  70.7039534
  91.0387516  18.2233651  71.6946033  89.4480012  17.2134997  72.7649988
  88.4534535  16.8524422  72.5076789  90.0443945  16.3340417  72.9912435
  89.3590012  18.1034997  74.0519988  88.7648388  18.9541159  73.7389444
  88.7310064  17.5219767  74.7256453  90.5560012  18.5344997  74.7819988
  91.1846412  17.7021611  75.0605274  90.9760012  19.7624997  75.1309988
  91.9138389  19.7654529  75.6677125  90.4000012  21.1074997  74.9159988
  91.1581808  21.7208904  74.4321223  89.5614160  21.0641532  74.2300126
  89.9670012  21.8094997  76.2039988  89.7958478  22.8644362  75.9929999
  89.0056994  21.4017781  76.5107903  90.9710012  21.6734997  77.3689988
  91.0676978  20.6084318  77.5796812  91.9397812  21.9993237  77.0004774
  90.6430012  22.4164997  78.6669988  90.0819716  23.3163228  78.4246989
  89.9840951  21.8025849  79.2785840  91.9240012  22.7904997  79.4999988
  92.6392936  21.9701850  79.5055201  92.4506254  23.6405654  79.0749338
  91.5230012  23.0964997  80.9999988  92.4133755  23.3959669  81.5499405
  90.8551394  23.9558824  81.0160005  90.8520012  21.9474997  81.7509988
  90.2462763  22.3421250  82.5629613  90.1545427  21.4687041  81.0671716
  91.7520012  20.9504997  82.2659988  91.2013148  20.1254276  82.7076656
  92.4062021  21.3519528  83.0325479  92.3786367  20.5450406  81.4766498
  65.4090012 121.3044997  83.1509988  65.5472417 121.6984163  84.1530707
  66.3764545 120.9656230  82.7918517  64.7622937 120.4344358  83.2242808
  64.8200012 122.3404997  82.2329988  65.4818405 123.2047432  82.2170358
  63.8824773 122.6819831  82.6634079  64.5980012 121.8604997  80.8219988
  63.9830655 120.9608194  80.8409378  65.5566772 121.5612177  80.4030220
  63.9190012 122.9534997  79.8269988  64.4807832 123.8778944  79.9416517
  62.9170771 123.1614987  80.1992764  63.8450012 122.6084997  78.3419988
  63.4167327 121.6220073  78.1839107  64.8417305 122.5825118  77.9047113
  63.0250012 123.6064997  77.6259988  63.3381349 124.5993161  77.9439290
  61.9914630 123.4961481  77.9472440  63.0930012 123.5174997  76.0489988
  62.3690350 124.2165229  75.6342583  62.7643329 122.5240729  75.7468225
  64.4720012 123.7994997  75.4439988  65.2459694 123.1771222  75.8912910
  64.7821719 124.8307437  75.6021565  64.4010012 123.5054997  73.8729988
  63.8078176 124.2389744  73.3310679  63.9664176 122.5335851  73.6425728
  65.7870012 123.5444997  73.3859988  66.3586276 122.7913951  73.9239353
  66.2217054 124.5070179  73.6543639  65.9310012 123.3294997  71.8629988
  65.5678153 124.1854355  71.2981883  65.3666621 122.4699780  71.5054071
  67.4250012 123.1294997  71.5349988  67.8133883 122.3289749  72.1599264
  67.9610216 124.0305614  71.8272995  67.7260012 122.8364997  70.0459988
  67.3707344 123.7017798  69.4889281  67.0993447 122.0020079  69.7440067
  69.2210012 122.5484997  69.6009988  69.6470581 121.6832641  70.0981786
  69.8704262 123.3908617  69.8240802  69.2290012 122.3154997  68.0949988
  68.7771613 123.1534341  67.5794917  68.6759157 121.4167555  67.8491852
  68.7970012 120.8884997  67.6459988  68.4490012 120.0594997  68.4179988
  68.7810012 120.8544997  66.3709988  68.3660012 119.6364997  65.6579988
  68.3258160 118.8998614  66.4461683  69.0911879 119.3251202  64.9202054
  67.0060012 119.8104997  65.0369988  66.6937261 118.8732880  64.6068678
  67.1310012 120.8924997  63.9179988  66.5532574 120.5522805  63.0693150
  68.1776055 120.9099018  63.6406875  66.7070012 122.1784997  64.3209988
  65.3570012 122.8314997  63.8319988  64.2760012 121.6844997  64.2919988
  62.9140012 122.1094997  64.4499988  62.9185896 123.1675112  64.6775500
  62.5363571 121.6057256  65.3350941  61.8670012 121.7774997  63.3029988
  62.0662545 122.3456095  62.4031108  60.8978794 122.0626281  63.6862503
  61.7280012 120.3084997  62.8499988  62.9720012 119.7954997  62.2159988
  63.2796658 120.4908017  61.4470829  62.7486123 118.8370989  61.7714029
  63.7288448 119.6746990  62.9764670  61.4910012 119.4554997  64.0149988
  60.6876114 119.8830492  64.5950680  62.3973099 119.3862645  64.5896124
  61.2052505 118.4801538  63.6484692  60.6850012 120.2874997  61.7689988
  59.7599943 120.6848297  62.1596049  60.5326085 119.2696233  61.4428790
  61.0179937 120.8881024  60.9348361  65.1040012 123.9324997  64.7689988
  65.3690012 123.0594997  62.3649988  66.0290012 120.1344997  66.0679988
  65.7340012 119.2064997  66.9379988  66.2080012 118.0684997  66.9759988
  64.5830012 119.6274997  67.8659988  64.6829834 120.6826430  68.0988700
  63.6225087 119.5226257  67.3676388  64.6520012 118.7334997  69.1529988
  63.6323977 118.6942047  69.5203210  64.8819403 117.7338236  68.7983035
  65.5950012 119.1064997  70.3179988  66.5557570 119.3802347  69.8894297
  65.1941731 120.0120678  70.7667173  65.7970012 118.0254997  71.4569988
  64.8600818 117.8656778  71.9874185  66.0831695 117.0596456  71.0478098
  66.8500012 118.4634997  72.4659988  67.8677223 118.3361347  72.1027869
  66.7517350 119.5148803  72.7292926  66.6510012 117.6144997  73.7409988
  65.6239001 117.6754645  74.0974364  66.8543902 116.5609552  73.5707199
  67.5940012 118.1244997  74.8289988  67.9143963 117.2719721  75.4164711
  68.4848794 118.5073803  74.3329299  67.0420012 119.1844997  75.6889988
  67.1823545 120.1952079  75.3364029  66.3730012 119.0254997  76.8559988
  66.0927775 119.9577774  77.3249794  65.9420012 117.7964997  77.6219988
  66.4633558 116.9634637  77.1535317  66.3311813 117.8690892  78.6314296
  64.4320012 117.4544997  77.6759988  64.0460331 117.3871095  76.6595381
  64.3191800 116.4626600  78.1095705  63.5790012 118.4664997  78.4879988
  63.9439723 118.5008012  79.5145106  63.7133424 119.4662765  78.0843867
  62.1370012 118.1264997  78.4939988  61.8754814 117.7581641  77.5045134
  61.9807867 117.2951373  79.1792130  61.2230012 119.2664997  78.8779988
  61.4953064 120.1023892  78.2363380  60.2202737 118.9757064  78.5769971
  61.2110012 119.7814997  80.3639988  60.7615043 119.0264700  81.0064673
  62.2353992 119.9024664  80.7115756  60.4630012 121.1124997  80.5749988
  60.6698328 121.7994410  79.7581467  59.3941566 120.9149146  80.5320519
  60.7740012 121.7734997  81.8669988  60.1586717 122.6573549  82.0057021
  61.8108961 122.0873310  81.9226752  60.5862177 121.1052531  82.7026571
 107.9300012 104.4644997  82.6769988 106.9764092 104.0510165  82.9902446
 108.6416485 104.3024589  83.4814183 108.2706871 103.8946774  81.8168548
 107.8070012 105.9474997  82.3389988 107.4595528 106.5188046  83.1981223
 107.0759741 106.1065324  81.5508858 109.2020012 106.4874997  81.8939988
 110.0173436 105.8858904  82.2955108 109.3652066 107.4989644  82.2607058
 109.2910012 106.5044997  80.3889988 108.4724689 107.1183328  80.0195888
 109.1002714 105.4964164  80.0241751 110.5920012 107.0184997  79.7919988
 111.3184327 106.2189083  79.6714834 111.0526850 107.7531424  80.4503569
 110.3250012 107.6674997  78.4089988 111.2517305 108.1270651  78.0701929
 109.6164523 108.4807230  78.5511371 109.8080012 106.7384997  77.3369988
 109.5738494 107.3121724  76.4421007 108.8707990 106.2914713  77.6657050
 110.8250012 105.5994997  76.9709988 110.4526293 105.1455791  76.0535314
 110.7246741 104.8427952  77.7468963 112.3000012 105.9484997  76.7969988
 112.8651400 105.0522860  76.5500976 112.7073231 106.3143698  77.7387019
 112.5220012 107.0144997  75.6959988 112.1861589 107.9983690  76.0161709
 111.9654096 106.7823964  74.7883849 114.0370012 107.0514997  75.3689988
 114.4031113 106.0721702  75.0683024 114.6378098 107.3483919  76.2269102
 114.2770012 108.0164997  74.2359988 113.8500815 108.9710795  74.5338846
 113.6818954 107.6667660  73.3944493 115.7280012 108.2094997  73.7649988
 116.2383376 107.2569250  73.6330507 116.3342735 108.7860014  74.4580743
 115.7020012 108.9444997  72.3699988 116.5331186 109.6332956  72.2597768
 114.7923952 109.5294317  72.2624649 115.7510012 107.9374997  71.2719988
 114.9488798 107.2186409  71.3810145 116.6964968 107.4084605  71.2869858
 115.4980012 108.6384997  69.9379988 115.6090012 109.8544997  69.8469988
 115.1710012 107.7204997  69.0239988 115.1240012 108.2544997  67.6979988
 115.8265574 107.7354458  67.0636015 115.4484062 109.2776253  67.8211542
 113.6610012 108.1914997  67.0689988 113.4021759 107.1544549  66.9331991
 113.6360012 108.9334997  65.6849988 114.3629640 108.4518951  65.0451683
 113.9680208 109.9439946  65.8880947 112.2780012 108.9484997  65.0239988
 112.3000012 109.2814997  63.4989988 110.8270012 108.9014997  63.1159988
 109.8880012 108.3354997  64.0489988 108.8598217 108.3649424  63.7125927
 109.9164637 108.8615135  64.9988915 110.3240012 106.8904997  64.3729988
 109.7794325 106.5355845  65.2388678 111.3809094 106.8740256  64.5967187
 110.1020012 105.8044997  63.2519988 108.6880012 105.3704997  63.0519988
 108.2734226 105.0919484  64.0110962 108.6922444 104.5135611  62.3949308
 108.1355808 106.1765591  62.5928507 110.6920012 106.3144997  61.9709988
 111.6975172 106.6534820  62.1678297 110.0755968 107.1104329  61.5929697
 110.7086865 105.4904833  61.2724177 110.8870012 104.5704997  63.6619988
 111.9288476 104.8322006  63.7722291 110.7826266 103.8139535  62.8988515
 110.5031520 104.1937462  64.5990963 112.4460012 110.7844997  63.3819988
 113.3130012 108.4314997  62.8009988 112.6300012 108.9264997  67.8449988
 111.8000012 108.2194997  68.6099988 111.9110012 107.0354997  68.9079988
 110.6190012 109.1104997  69.0929988 110.5555846 109.9573742  68.4174731
 109.6863231 108.5647149  68.9740973 110.8220012 109.5574997  70.5689988
 110.7994030 108.6790425  71.2045011 111.8132046 109.9848132  70.6828048
 109.7800012 110.5424997  71.0489988 109.8081201 111.4529705  70.4557819
 108.7877001 110.1205543  70.9098381 109.9640012 110.8744997  72.5239988
 109.0620068 111.3588253  72.8935130 110.0833540 109.9665597  73.1101744
 111.1450012 111.7924997  72.7949988 111.4110141 112.3000532  71.8700514
 110.8134757 112.5687827  73.4819169 112.3980012 111.1144997  73.3849988
 112.1416361 110.6764507  74.3483736 112.7115286 110.2921579  72.7479959
 113.6300012 112.1154997  73.5709988 114.5129834 111.4873316  73.5529077
 113.6545271 112.7055063  72.6557739 113.6550012 113.0564997  74.7529988
 113.0478330 113.9421574  74.6411456 114.3090012 112.9174997  75.8859988
 114.2759191 113.6938873  76.6368235 115.1570012 111.7024997  76.2799988
 114.8235551 110.7862938  75.7956420 116.2209993 111.7787006  76.0856218
 114.9250012 111.5604997  77.7809988 115.4609936 110.6640933  78.0906321
 115.4445331 112.3986825  78.2414280 113.5320012 111.5074997  78.2949988
 113.2358276 112.5397061  78.4819163 112.9095833 111.1564574  77.4765433
 113.2490012 110.6594997  79.5579988 112.1814865 110.7281373  79.7550935
 113.4456925 109.6187057  79.3067112 114.0570012 111.0414997  80.8469988
 115.1063174 111.0069174  80.5600676 113.8375437 112.0872744  81.0440234
 113.8970012 110.2444997  82.0919988 113.9553571 110.8590211  82.9885706
 112.9347100 109.7376240  82.1356665 114.9960012 109.1974997  82.1519988
 114.8225655 108.3252184  81.5267305 115.9587585 109.5974859  81.8414792
 115.0960012 108.7514997  83.6559988 115.9237400 108.0635767  83.7998024
 114.1944470 108.2497671  83.9909696 115.2591940 109.6059905  84.3066557
 118.3050012  90.8184997  80.5779988 118.2630571  89.8960346  81.1487246
 117.4657497  90.8199206  79.8884736 118.1622767  91.6428162  81.2713558
 119.6420012  90.9514997  79.8279988 119.8011984  90.1374534  79.1228832
 120.4918204  90.9393218  80.5051051 119.5950012  92.3224997  79.0379988
 118.8572789  92.2584425  78.2382540 120.5547825  92.4811400  78.5503268
 119.2780012  93.5784997  79.9389988 119.8237753  93.5441711  80.8793190
 118.2241032  93.6459309  80.2044382 119.6870012  94.8284997  79.1869988
 120.7720753  94.8918414  79.2002287 119.3241411  95.6825030  79.7565388
 119.1930012  94.9454997  77.7159988 118.1049794  94.9246942  77.6916495
 119.5265625  94.0806560  77.1464733 119.6880012  96.2174997  77.0349988
 120.7744149  96.1511884  77.0261636 119.4386368  97.0362992  77.7085081
 119.1780012  96.5614997  75.5899988 119.3279922  97.6286530  75.4314509
 118.1018471  96.3996580  75.5704125 119.8400012  95.7674997  74.4159988
 119.5623011  94.7159557  74.4420557 120.9270211  95.7960529  74.4804138
 119.3960012  96.3774997  73.0799988 119.2587788  97.4454641  73.2346628
 118.4126352  95.9753348  72.8377513 120.3610012  96.1314997  71.8779988
 121.4005369  96.1224614  72.1986617 120.2848352  96.9107379  71.1216162
 120.0380012  94.7634997  71.2349988 119.0759861  94.7982580  70.7294912
 119.9482270  94.0017240  72.0072089 121.1650012  94.3264997  70.2259988
 120.9682481  93.2939685  69.9424153 122.1199881  94.3230442  70.7439388
 121.2980012  95.1664997  68.9199988 121.4635654  96.2026685  69.1962008
 120.3378765  95.1258784  68.4124531 122.3960012  94.7234997  67.9299988
 122.2699717  93.6812011  67.6658561 123.3770112  94.8542776  68.3711171
 122.1750012  93.3104997  67.2499988 122.9590012  92.6874997  66.5369988
 120.8980012  93.0124997  67.3729988 120.5550012  91.7274997  66.7849988
 121.1234355  90.9904419  67.3318902 120.8369288  91.6889018  65.7427804
 119.0880012  91.4804997  66.9529988 118.9138898  90.4434154  66.7184022
 118.2110012  92.4034997  66.0029988 117.1717932  92.1074384  66.0498563
 118.5621450  92.2774944  64.9864331 118.3630012  93.7644997  66.4179988
 117.6600012  94.8294997  65.5519988 118.1330012  94.4774997  64.1259988
 119.5660012  94.7934997  63.8889988 120.2439652  94.1981970  64.4866346
 119.7741170  95.8320416  64.1296549 119.8850012  94.6544997  62.3849988
 120.0834532  93.6019258  62.2270302 120.8013486  95.2069760  62.2351516
 118.9810012  95.0624997  61.2879988 119.8030012  94.9814997  60.0509988
 120.7211982  95.5300737  60.2101051 119.2422313  95.4361692  59.2479341
 119.9885728  93.9430768  59.8208726 117.7310012  94.1234997  61.2459988
 117.3155915  94.0611950  62.2401149 118.0304504  93.1563565  60.8835980
 117.0141793  94.5698281  60.5720148 118.5650012  96.4194997  61.5499988
 118.0753920  96.4619629  62.5115401 117.8775160  96.7347607  60.7795284
 119.4292555  97.0679588  61.5504139 116.1680012  94.7064997  65.6949988
 118.2720012  96.0984997  65.9809988 118.7110012  91.7134997  68.3449988
 117.4890012  91.4324997  68.7359988 116.7110012  90.8264997  68.0079988
 117.1750012  91.9274997  70.1079988 118.1344552  92.1742943  70.5508231
 116.6470128  92.8713439  69.9971237 116.3790012  90.9494997  70.9749988
 115.3302516  91.0108956  70.7058968 116.6859845  89.9317785  70.7558232
 116.5300012  91.2284997  72.4839988 116.5100636  90.2789398  73.0127639
 117.5231409  91.6421158  72.6410345 115.4620012  92.2234997  73.1109988
 115.6763301  93.2377289  72.7791734 114.4598343  91.9934763  72.7575122
 115.4620012  92.2074997  74.6429988 115.3753836  91.1617572  74.9307855
 116.4637601  92.5192595  74.9322492 114.4330012  93.0464997  75.4399988
 113.4674948  92.5689181  75.2805800 114.6658014  92.9230225  76.4939795
 114.3130012  94.5514997  75.1349988 114.2363569  94.7302394  74.0688103
 113.4056158  94.9575808  75.5800783 115.5020012  95.2704997  75.7229988
 116.4040431  94.9768686  75.2075813 115.6280012  96.1714997  76.7129988
 116.5482271  96.6505061  77.0152355 114.3680012  96.6194997  77.5439988
 114.3950807  97.6997786  77.6762298 113.4379111  96.3996023  77.0318868
 114.3520012  95.9554997  78.9549988 115.2101449  96.3131449  79.5227876
 113.4693249  96.3056259  79.4867443 114.3540012  94.3964997  78.9359988
 113.5694891  94.0513674  78.2625513 115.2916914  94.0424893  78.5165734
 114.1480012  93.7804997  80.2939988 113.2553840  94.2029369  80.7499882
 113.9615426  92.7127950  80.1923871 115.2980012  93.9864997  81.1669988
 116.1738200  93.9631072  80.5212557 115.2274001  95.0066062  81.5344537
 115.5520012  93.0054997  82.3569988 115.3887518  91.9757716  82.0441206
 116.5902174  93.0620448  82.6790914 114.6430012  93.2994997  83.5759988
 114.7794324  94.3133671  83.9439312 113.5999961  93.2319395  83.2745207
 114.8880012  92.3184997  84.7009988 114.1854069  92.4799371  85.5130137
 115.8873289  92.4141756  85.1120112 114.7685871  91.2943453  84.3589622
  19.2070012  70.2074997  80.1719988  20.1805988  69.9129446  80.5511741
  19.1935963  71.2911952  80.0997894  19.1101968  69.8096865  79.1655269
  18.0520012  69.6854997  81.0989988  18.1848094  70.0789947  82.1053419
  18.1186976  68.6041443  81.1828808  16.6610012  70.0914997  80.5759988
  16.6002697  71.1790979  80.6130238  15.9320905  69.7245246  81.2958527
  16.2420012  69.5994997  79.1509988  16.5791110  70.3504358  78.4398716
  15.1542476  69.6040105  79.1012213  16.7890012  68.1674997  78.6819988
  16.2039576  67.3516812  79.0988168  17.8134895  68.0101306  79.0152010
  16.7370012  68.0854997  77.1589988  17.2097029  67.1758553  76.7930518
  17.2711731  68.9129463  76.6968631  15.2450012  68.1134997  76.6969988
  14.7596972  69.0040602  77.0921594  14.7165322  67.2632827  77.1260461
  15.0890012  68.0874997  75.1549988  15.8957353  67.4974551  74.7220110
  15.2065012  69.0963274  74.7636621  13.7230012  67.5114997  74.6849988
  12.8993777  68.0017437  75.1996308  13.6454646  66.4525007  74.9280755
  13.5620012  67.6924997  73.2039988  13.3950223  68.7482200  73.0018315
  12.6587701  67.1738104  72.8837425  14.7570012  67.1814997  72.3809988
  15.1091235  66.2512089  72.8215779  15.5812679  67.8874566  72.4666554
  14.4540012  66.9274997  70.8789988  13.8220679  66.0581438  70.7143788
  15.3587224  66.7601035  70.2975110  13.7530012  68.2054997  70.3479988
  14.3886894  69.0777568  70.4905468  12.8262904  68.4150600  70.8748437
  13.4440012  68.0694997  68.7789988  12.8818393  67.1646968  68.5724782
  14.3776006  67.9923376  68.2280630  12.6840012  69.2484997  68.2639988
  13.2112218  70.1669071  68.4889591  11.7011191  69.2916074  68.7180401
  13.4440012  70.5094997  68.5349988  13.5830012  70.9374997  69.6439988
  13.8890012  70.9624997  67.3569988  14.8360012  72.1074997  67.4329988
  14.6901805  72.5634054  68.4006497  14.6119681  72.8322502  66.6637538
  16.3150012  71.5774997  67.2959988  17.0612482  72.3363854  67.4636344
  16.5310012  70.9244997  65.9089988  17.5881969  70.9382798  65.6810771
  16.0123375  71.5427433  65.1869546  16.0230012  69.5714997  65.8709988
  15.0750012  69.1464997  64.5939988  16.1670012  69.0074997  63.4899988
  17.4560012  68.3834997  63.7749988  17.4198454  67.8943399  64.7396772
  18.1957956  69.1744296  63.8582513  17.9960012  67.4414997  62.7029988
  18.9581315  67.0511542  63.0098940  18.1345245  68.0560547  61.8252115
  17.1610012  66.1974997  62.2309988  16.9250012  65.2514997  63.3699988
  17.8733616  65.0381258  63.8437265  16.5073137  64.3412870  62.9660804
  16.2226905  65.6987777  64.0573263  15.9410012  66.7534997  61.6869988
  16.2015730  67.5350235  60.9898353  15.3371886  67.1306960  62.4929164
  15.4234437  65.9561366  61.1735365  18.1020012  65.5224997  61.2209988
  18.3384829  66.2218648  60.4329335  17.6106485  64.6573638  60.8017584
  19.0086701  65.2155478  61.7221644  14.5090012  67.8574997  64.9059988
  14.1550012  70.2584997  64.3329988  16.4180012  70.6724997  68.3479988
  17.5060012  69.9514997  68.4539988  18.3220012  69.6264997  67.6249988
  17.6940012  70.0764997  70.0219988  17.9520916  71.0990609  70.2775584
  16.7701489  69.8613136  70.5531286  18.8220012  69.0704997  70.4239988
  18.8045980  68.1780644  69.8081112  19.8162091  69.4917645  70.3139105
  18.5770012  68.6664997  71.9209988  18.0495168  69.4619518  72.4412585
  17.9225832  67.7987935  71.9508002  19.9310012  68.3104997  72.6929988
  20.4010838  67.4181307  72.2838461  20.6776239  69.0990927  72.6393572
  19.5870012  68.0404997  74.1989988  19.3126014  68.9448819  74.7381633
  18.7467157  67.3572616  74.3061762  20.8110012  67.4134997  74.8539988
  21.0793124  66.4619455  74.3976493  21.6966638  68.0403306  74.7992023
  20.4540012  67.1824997  76.3589988  20.2020445  68.1437659  76.7915089
  19.5439412  66.5847922  76.3887097  21.4570012  66.5224997  77.1239988
  22.3927241  67.0256029  77.3159981  21.3020012  65.2684997  77.6549988
  22.1532708  64.9496978  78.2392208  20.1760012  64.2454997  77.5889988
  19.3551473  64.6911188  77.0296746  20.4835595  63.3688118  77.0299753
  19.6440012  63.8144997  78.9589988  19.0095013  62.9390217  78.8261330
  20.4898400  63.4874675  79.5607177  18.8670012  64.9004997  79.7259988
  19.5930754  65.6830652  79.9462587  18.1650000  65.3287484  79.0158569
  18.1130012  64.5174997  81.0339988  17.2829932  63.8526606  80.8054801
  18.7679745  63.9663941  81.7065889  17.5900012  65.7894997  81.7569988
  18.3598753  66.1550607  82.4339396  17.4297411  66.5838660  81.0331729
  16.2870012  65.5544997  82.5919988  15.6786729  64.8263349  82.0585236
  16.5775292  65.0781670  83.5266295  15.3850012  66.8144997  82.9289988
  15.0772058  67.1846864  81.9542481  14.5002869  66.3544799  83.3637118
  15.8140012  68.0024997  83.8179988  14.9881778  68.6921339  83.9645912
  16.6317570  68.5634529  83.3782852  16.1373117  67.6606979  84.7971734
  75.1400012  20.4194997  80.5929988  75.1163469  19.7166537  81.4199673
  76.1651314  20.7588818  80.4758759  74.8678796  19.8779359  79.6911836
  74.1870012  21.6014997  80.8369988  74.4827982  22.0752237  81.7715000
  73.1963594  21.1876477  81.0048365  74.1360012  22.6464997  79.7439988
  73.3063303  23.3156627  79.9715861  73.8623026  22.1285906  78.8269217
  75.3850012  23.4694997  79.4779988  76.2084673  22.7798516  79.3061295
  75.6374128  24.0209812  80.3823563  75.3080012  24.4114997  78.3329988
  75.5831246  23.8437742  77.4478050  76.1066374  25.1339469  78.4930460
  73.9480012  25.1874997  78.0459988  73.5690977  25.6984106  78.9292989
  73.1534300  24.5220263  77.7152741  74.2340012  26.2204997  76.9459988
  75.2629217  26.5545931  77.0663070  73.6072422  27.0901251  77.1387544
  74.0260012  25.7664997  75.5449988  73.0163701  25.3674203  75.4565016
  74.6998715  24.9353964  75.3453738  74.2400012  26.8774997  74.4589988
  75.2490643  27.2694621  74.5671563  73.5674692  27.7052254  74.6806920
  74.0210012  26.4184997  72.9919988  73.8029047  27.3146123  72.4151841
  73.1113391  25.8186724  72.9797008  75.1460012  25.6344997  72.3309988
  75.3885263  24.7539992  72.9221345  76.0583086  26.2264912  72.2823253
  74.7580012  25.1704997  70.8969988  74.5621997  26.0403382  70.2746952
  73.8236808  24.6142046  70.9444458  75.8520012  24.2594997  70.2259988
  75.4609227  23.8171846  69.3113037  76.1340528  23.4301372  70.8685552
  77.0940012  25.0524997  69.8679988  77.6844965  25.2328415  70.7602639
  76.7878216  26.0249685  69.4916340  78.0080012  24.3474997  68.7679988
  77.4299913  24.1274548  67.8794461  78.4175628  23.4217885  69.1545051
  78.1740012  22.7854997  68.9549988  78.1310012  22.2194997  70.0379988
  78.3840012  22.1384997  67.7969988  78.3160012  20.7064997  67.7589988
  78.4516629  20.4537178  68.7997481  79.0988984  20.2414292  67.1776440
  76.9660012  20.2644997  67.2899988  76.9359776  19.1905100  67.3708618
  76.7590012  20.6724997  65.8679988  75.8290887  20.2601318  65.5005528
  77.5741605  20.2659702  65.2824784  76.7440012  22.0774997  65.7789988
  75.3770012  22.9394997  65.6229988  75.0520012  22.7784997  64.1269988
  76.0230012  22.6634997  63.1389988  75.9631409  21.7328075  62.5899834
  77.0156716  22.6985316  63.5785158  75.9580012  23.9074997  62.1589988
  76.6785728  23.7221025  61.3724535  76.2558900  24.7933466  62.7011375
  74.6740012  24.2624997  61.4619988  73.6170012  24.7054997  62.4699988
  73.5477604  23.9582380  63.2485485  72.6725254  24.7792806  61.9517113
  73.8912613  25.6729518  62.8631078  75.0430012  25.3084997  60.4199988
  75.8832892  24.9428596  59.8499659  75.2776194  26.2323769  60.9177690
  74.1859578  25.4384160  59.7750993  74.1510012  23.0824997  60.7109988
  74.8925880  22.7589770  59.9958317  73.2468954  23.3643250  60.1925229
  73.9357746  22.2810778  61.4029782  74.3320012  22.1644997  66.3319988
  75.6010012  24.3224997  65.9589988  75.9660012  20.7624997  68.2189988
  75.0930012  19.8104997  68.6399988  75.1820012  18.6144997  68.5599988
  73.9770012  20.5454997  69.3239988  74.4456954  21.3487283  69.8831968
  73.3751147  21.0281501  68.5580430  73.0940012  19.6284997  70.2419988
  72.2411257  20.2341161  70.5281686  72.7035543  18.8436932  69.6019495
  73.7350012  18.9944997  71.5369988  73.0272112  18.3067584  71.9927392
  74.5911280  18.3945994  71.2382823  74.2060012  20.0444997  72.5819988
  73.5649837  20.9168758  72.4690274  74.0140957  19.6533027  73.5781610
  75.7040012  20.5174997  72.5019988  76.3660504  19.6560968  72.5618059
  75.8804371  20.9679916  71.5271611  76.1000012  21.5614997  73.6199988
  75.4613035  22.4393027  73.5349804  75.9203695  21.1461652  74.6076970
  77.5680012  21.9924997  73.5289988  77.7683860  22.5015071  72.5934041
  77.8037040  22.7022143  74.3208922  78.4410012  20.7954997  73.6869988
  79.0401646  20.5727811  72.8169679  78.5840012  19.9794997  74.7609988
  79.2562405  19.1351313  74.7085939  77.8820012  20.1244997  76.0859988
  77.2147168  20.9826689  76.0268531  77.2544401  19.2660723  76.2980143
  78.8480012  20.3484997  77.2519988  79.6343679  19.5961434  77.2998789
  79.3524499  21.3106704  77.1870537  77.9980012  20.3004997  78.5669988
  77.4370285  21.2324743  78.6365690  77.2604543  19.5087423  78.4687696
  78.7900012  20.0974997  79.8449988  78.0618760  20.0018338  80.6473870
  79.2833872  19.1304153  79.7649799  79.8270012  21.1644997  80.2049988
  80.4425710  20.8084513  81.0289486  80.5075888  21.3226389  79.3728826
  79.1950012  22.5014997  80.6299988  78.4249539  22.7166642  79.8913415
  78.6707690  22.2985984  81.5621177  80.0550012  23.7594997  80.8189988
  80.9203480  23.4799435  81.4147657  80.4413699  24.0014657  79.8313325
  79.4140012  25.0044997  81.4109988  80.1110190  25.8370824  81.4045843
  79.1013593  24.8502545  82.4382302  78.5384409  25.3017040  80.8407315
  35.1770012 115.1964997  82.0319988  35.0933512 116.1452103  82.5529401
  36.1594296 114.7860608  82.2468575  34.4386836 114.5209263  82.4552007
  34.9700012 115.3654997  80.5539988  35.7064572 116.0659862  80.1639293
  33.9971455 115.8175696  80.3807976  35.0850012 113.9764997  79.7519988
  34.1577988 113.4058184  79.8024730  35.8537603 113.3410711  80.1872125
  35.4450012 114.2364997  78.2669988  36.3692602 113.6923214  78.0857108
  35.6970365 115.2929870  78.1894178  34.4770012 113.8864997  77.2109988
  34.8254155 114.4257004  76.3338197  33.5602546 114.3802798  77.5289954
  34.1570012 112.4264997  76.8079988  34.0276174 111.8524977  77.7237491
  35.0374386 112.0191774  76.3155605  32.9340012 112.2234997  75.9059988
  32.8079596 113.0811650  75.2477483  32.0290500 112.1675412  76.5094572
  33.0570012 110.9574997  75.0649988  32.0495655 110.7144488  74.7296621
  33.3498434 110.1626375  75.7484617  34.0420012 110.9614997  73.8109988
  34.2752117 109.9473767  73.4936529  34.9940271 111.4273992  74.0623177
  33.4070012 111.7124997  72.6619988  33.2560310 112.7158086  73.0542717
  32.4157324 111.2706008  72.5643221  34.0850012 111.7854997  71.2379988
  34.1577306 110.7946590  70.7947311  35.1035884 112.1648491  71.2988434
  33.2640012 112.6824997  70.2899988  33.3694726 113.7023463  70.6519486
  32.2194950 112.4142055  70.4372912  33.5880012 112.6174997  68.7489988
  32.8584469 113.2222648  68.2130307  33.4690156 111.6016586  68.3826882
  34.9490012 113.1094997  68.3859988  35.6982971 112.5009706  68.8815721
  35.0606558 114.1201669  68.7696353  35.2370012 113.1264997  66.8369988
  34.4811606 113.7015383  66.3173098  35.2387164 112.1173923  66.4423238
  36.6970012 113.5994997  66.5459988  37.5300012 113.8354997  67.3669988
  36.6670012 113.9084997  65.2399988  37.9390012 114.0324997  64.5869988
  38.5709737 114.3292183  65.4104250  37.9448707 114.8117100  63.8386747
  38.4210012 112.7084997  64.0009988  39.4814930 112.7563877  63.8167225
  37.6460012 112.4324997  62.6359988  38.3100521 111.8686584  61.9949680
  37.4795396 113.4062261  62.1924536  36.4350012 111.7584997  62.7979988
  35.0490012 112.3554997  62.2819988  34.0040012 111.1254997  62.3649988
  34.3410012 109.7274997  62.5649988  35.2728313 109.4654673  62.0810353
  33.5739639 109.1043773  62.1142556  34.3610012 109.3184997  64.1019988
  35.1057965 109.8290689  64.6993662  34.5774895 108.2599720  64.1073760
  33.0420012 109.4804997  64.8549988  33.1050012 108.6964997  66.1329988
  33.4214694 107.6881232  65.9041783  32.1141211 108.6781889  66.5618594
  33.7850186 109.1879739  66.8125179  32.6290012 110.8964997  65.1219988
  32.6902669 111.4513395  64.1983575  33.2731849 111.3140327  65.8750349
  31.6077835 110.8742432  65.4740159  31.9770012 108.8204997  64.1029988
  31.9163897 109.2551847  63.1163594  31.0389851 108.9611621  64.6187408
  32.1916259 107.7644206  64.0250995  34.5620012 113.4974997  63.0619988
  35.2250012 112.6664997  60.7939988  38.2610012 111.7464997  64.9929988
  38.5320012 110.5144997  64.7169988  39.2520012 110.1414997  63.8269988
  37.9670012 109.5114997  65.6989988  36.8862868 109.5640764  65.6162636
  38.2417978 108.5109260  65.3745823  38.4370012 109.7734997  67.1029988
  39.5070561 109.9495731  67.1094437  37.9819836 110.6759128  67.4987798
  38.1150012 108.5724997  68.0279988  37.2854580 107.9876910  67.6387546
  38.9667320 107.8982253  68.0724261  37.7940012 109.0594997  69.4659988
  36.9907319 109.7874339  69.3681402  37.3770992 108.2188680  70.0153012
  38.8980012 109.6784997  70.2869988  39.5794627 108.8806494  70.5750026
  39.4589000 110.3295889  69.6192741  38.5020012 110.4724997  71.5199988
  37.8918136 111.3152614  71.1988684  37.8678734 109.8586896  72.1535895
  39.6580012 110.9794997  72.3419988  40.1480386 110.1662906  72.8646213
  40.4115151 111.4264120  71.6948264  39.1580012 112.0504997  73.3269988
  38.6516949 112.8777146  72.8527378  39.2570012 112.0804997  74.6619988
  38.8463461 112.9065450  75.2246900  39.9050012 111.0364997  75.5019988
  40.5071193 110.3757344  74.8806583  40.5744419 111.4399829  76.2534848
  38.7900012 110.1724997  76.2039988  38.0715161 109.8357140  75.4576345
  39.2494166 109.2733267  76.6100584  38.0300012 110.9354997  77.3609988
  38.7467556 111.2344258  78.1258603  37.5982910 111.8542789  76.9737327
  36.8580012 110.0314997  78.0469988  36.4129975 110.6221218  78.8446717
  36.0732748 109.8774960  77.3083701  37.3060012 108.6894997  78.5859988
  37.7400621 108.0615333  77.8102157  38.0646272 108.7727173  79.3594238
  36.0060012 107.9324997  79.1669988  35.1033400 108.1782971  78.6105192
  36.1066938 106.8498775  79.1157713  35.7960012 108.3384997  80.6539988
  36.6046122 107.9415464  81.2626788  35.8822898 109.4210533  80.7168072
  34.4100012 107.9034997  81.2729988  34.2976692 108.2947637  82.2796581
  34.3124474 106.8246673  81.3308355  33.5818461 108.2782442  80.6781318
  14.1520012  76.7654997  82.1589988  14.2182823  76.9782702  83.2214321
  14.9559967  77.3015491  81.6629824  14.3324753  75.7027038  82.0229616
  12.8350012  77.1544997  81.6149988  12.6908180  78.2151212  81.8137353
  12.0752242  76.6304951  82.1885597  12.6430012  76.8954997  80.1409988
  12.7250395  75.8281408  79.9361968  13.4479979  77.3716039  79.5846931
  11.2730012  77.4254997  79.5859988  11.3410644  78.4862698  79.3549487
  10.4808545  77.3285658  80.3268182  10.8710012  76.6684997  78.3079988
   9.9218793  77.0515975  77.9419704  10.7015607  75.6230828  78.5605030
  11.9510012  76.7584997  77.1369988  12.6459518  77.5689154  77.3493357
  11.4529358  77.0210034  76.2060854  12.7380012  75.4534997  76.9399988
  12.0229776  74.6519901  76.7636650  13.2364592  75.2154850  77.8786779
  13.7650012  75.4674997  75.8149988  14.3366302  74.5437132  75.8944327
  14.4620780  76.2755706  76.0289830  13.2420012  75.6174997  74.3789988
  14.0185441  76.0938994  73.7843851  12.4029182  76.3119515  74.3949162
  12.7800012  74.2324997  73.6539988  12.2753151  73.6180514  74.3963223
  13.6759936  73.6849913  73.3626896  11.9150012  74.4094997  72.4729988
  10.9061718  74.6435438  72.8062070  11.8428093  73.4701164  71.9275856
  12.3810012  75.5264997  71.5069988  13.4144734  75.3604163  71.2127703
  12.3615528  76.4861607  72.0201678  11.5220012  75.6134997  70.3139988
  10.4727803  75.4991273  70.5810317  11.7372794  74.8359022  69.5864884
  11.7000012  77.0354997  69.6219988  12.7522109  77.2975447  69.5828576
  11.2117058  77.7859862  70.2379773  11.1170012  77.1044997  68.2249988
  10.0740973  76.8141622  68.2348323  11.6560442  76.4422854  67.5579351
  10.9060012  78.5544997  67.7449988  11.3190012  79.5284997  68.3479988
  10.3690012  78.4994997  66.5179988  10.4150012  79.8094997  65.8359988
  10.6170332  80.5764353  66.5684294   9.4001390  79.9179922  65.4817726
  11.4470012  79.9084997  64.6389988  11.3130161  80.8553291  64.1425553
  11.4320012  78.7834997  63.6179988  12.0942433  79.0631124  62.8098818
  10.4191609  78.7402929  63.2373773  11.8220012  77.4914997  64.1739988
  12.8660012  76.5694997  63.3919988  14.2020012  77.3814997  63.5239988
  15.0850012  77.3424997  64.6579988  14.8760447  76.4648664  65.2557329
  14.8609501  78.2017132  65.2835787  16.6030012  77.4534997  64.3409988
  17.0948329  77.1786108  65.2655455  16.8683663  78.4717759  64.0959033
  17.2250012  76.5994997  63.2789988  16.9470012  75.1124997  63.5839988
  17.2355040  74.9099624  64.6062897  17.5467265  74.5167584  62.9120450
  15.9005475  74.9092672  63.4126852  16.5880012  76.8644997  61.9379988
  16.5748578  77.9303951  61.7694513  15.5943280  76.4534432  61.9339764
  17.1967738  76.3783203  61.1894519  18.6960012  76.8684997  63.1819988
  18.8525409  77.9140626  62.9620545  19.1154454  76.2654391  62.3907754
  19.1712861  76.6164636  64.1190244  12.8400012  75.2954997  64.1219988
  12.3900012  76.4974997  61.9859988  12.7410012  79.7974997  65.2229988
  13.1980012  80.9594997  65.6549988  12.7480012  82.0874997  65.5359988
  14.5480012  80.7684997  66.3659988  15.2222933  80.2186302  65.7175186
  15.0321694  81.7227720  66.5579686  14.2720012  80.0224997  67.6649988
  13.6101530  80.5903967  68.3096002  13.7777903  79.0721637  67.4899268
  15.5850012  79.7944997  68.3809988  16.1834056  79.0662172  67.8395462
  16.1555604  80.7199699  68.3753480  15.3900012  79.3254997  69.8959988
  14.7436216  80.0299219  70.4162764  14.8931940  78.3598762  69.9503671
  16.7470012  79.2394997  70.6689988  17.4351906  78.5178121  70.2337248
  17.2710327  80.1933101  70.6731981  16.4550012  78.8584997  72.0559988
  15.7637236  79.5704768  72.5042453  15.9702751  77.8874927  72.1060392
  17.7290012  78.8084997  72.8809988  17.6177743  78.0060717  73.6009418
  18.5314420  78.5081688  72.2085137  18.1360012  80.1324997  73.5779988
  18.3932756  80.9689841  72.9458139  18.1840012  80.3354997  74.9309988
  18.4941163  81.3260146  75.2315296  17.8700012  79.4024997  76.0949988
  17.2771156  78.5803763  75.6977320  18.7830188  78.9607734  76.4783495
  17.0410012  80.0824997  77.3219988  17.2200081  79.4752299  78.2085003
  17.5061499  81.0470620  77.5162024  15.5400012  80.2784997  77.1339988
  15.4109951  81.1840777  76.5412147  15.1809223  79.4586454  76.5180398
  14.6900012  80.3774997  78.3909988  13.7291641  80.8001219  78.1058189
  14.4858147  79.3678579  78.7431584  15.3150012  81.2114997  79.5539988
  16.2818720  80.8312006  79.8782262  15.4736443  82.2592107  79.3136678
  14.3080012  81.0804997  80.7689988  13.5581805  81.8665408  80.6997798
  13.7675863  80.1395285  80.6832142  14.9510012  81.1444997  82.1499988
  15.7911032  80.4642498  82.2657733  15.3452718  82.1384067  82.3500301
  13.9020012  80.8244997  83.1799988  14.2979424  80.9454289  84.1838292
  13.5453980  79.8037952  83.0920346  13.0439734  81.4834211  83.0812468
  81.3010012 124.2464997  81.0809988  82.2299939 124.1035580  81.6241094
  80.4838485 124.1406977  81.7887116  81.2871829 125.2688414  80.7132509
  81.1780012 123.3064997  79.9999988  81.2427377 122.3069662  80.4265489
  82.0548130 123.4265925  79.3694493  79.9020012 123.4124997  79.1549988
  79.8279786 124.3957035  78.6904992  79.0254126 123.3137254  79.7921856
  79.8380012 122.3544997  78.0889988  79.9643908 121.3849773  78.5657609
  80.6887774 122.4746881  77.4200888  78.5080012 122.3304997  77.2429988
  78.3958957 123.2543865  76.6813597  77.6494276 122.2723071  77.9099545
  78.4720012 121.1734997  76.2879988  78.7855057 120.2318950  76.7351145
  79.0972702 121.3159728  75.4091831  77.0230012 121.0654997  75.8579988
  76.6754676 122.0171075  75.4599623  76.3899158 120.8453738  76.7164728
  76.8260012 119.9244997  74.7489988  75.7736687 119.6458632  74.7114614
  77.3659046 119.0316746  75.0589208  77.2930012 120.3364997  73.3399988
  78.3591039 120.1292346  73.2766971  77.1891252 121.4182489  73.2651303
  76.5620012 119.6634997  72.1329988  75.5149952 119.9579815  72.1140756
  76.5721608 118.5787865  72.2365509  77.2530012 120.0574997  70.7869988
  76.9506796 119.4193460  69.9594103  78.3398014 120.0075756  70.8257380
  76.8140012 121.5274997  70.4629988  77.1951638 122.2093391  71.2193248
  75.7290571 121.6045491  70.5033687  77.2720012 121.9544997  69.1089988
  77.0008864 121.1743961  68.3996418  78.3566335 122.0149054  69.0949373
  76.6790012 123.3054997  68.5899988  77.4165750 123.7794767  67.9507213
  76.5484933 123.9528216  69.4531523  75.2780012 123.2124997  67.8029988
  74.5346131 122.7120801  68.4104487  75.4003383 122.6608047  66.8784798
  74.9870012 124.5064997  67.0879988  75.4650012 125.5864997  67.3519988
  74.1190012 124.3714997  66.0279988  73.8360012 125.5694997  65.3189988
  73.8770576 126.2794487  66.1312479  72.8422637 125.5748487  64.8951482
  74.9040012 125.9204997  64.2409988  74.4736224 126.7724580  63.7411636
  75.1820012 124.7574997  63.1869988  75.4711492 125.2363906  62.2613326
  74.2243351 124.2731233  63.0426371  76.1600012 123.8104997  63.5819988
  76.3780012 122.5164997  62.7359988  77.5950012 121.8814997  63.4869988
  77.8210012 122.3484997  64.7949988  78.2149404 121.5994330  65.4694615
  76.9017966 122.7140130  65.2436189  78.7650012 123.5914997  64.7239988
  79.1477973 123.7165606  65.7290241  78.2179137 124.4812425  64.4475390
  79.9630012 123.5544997  63.8349988  79.7010012 123.8514997  62.3769988
  78.8921326 123.2200205  62.0359712  80.5994785 123.6222514  61.8235697
  79.4666756 124.8999516  62.2694945  80.9780012 124.5994997  64.3189988
  81.1255970 124.4681993  65.3799840  80.6050667 125.5823463  64.0924986
  81.9033242 124.4198447  63.7909852  80.6120012 122.2034997  63.9419988
  80.8855786 122.0208898  64.9705371  81.4966676 122.1849825  63.3233935
  79.9207599 121.4437545  63.6067259  75.2740012 121.6154997  63.0589988
  76.6920012 122.8594997  61.3239988  76.0790012 126.3554997  64.8699988
  76.8280012 127.2824997  64.2559988  76.6230012 127.6544997  63.1239988
  78.0940012 127.6544997  65.1019988  78.9308359 127.5364812  64.4213136
  78.0305875 128.7189720  65.3136221  78.2900012 126.8224997  66.4279988
  77.3887675 126.9421781  67.0191975  78.3350424 125.7720008  66.1588216
  79.4720012 127.1824997  67.2619988  80.2865634 127.4581107  66.5970319
  79.2145827 128.0823789  67.8151877  79.9410012 126.1214997  68.2509988
  79.4238889 125.2004810  67.9882716  80.9980588 125.9373190  68.0751905
  79.7240012 126.3884997  69.7629988  80.0177355 125.5165594  70.3438096
  80.3764948 127.1988906  70.0822158  78.2510012 126.7684997  70.1089988
  78.0662109 127.7422847  69.6581148  77.5984814 126.0655727  69.5986757
  77.8450012 126.8154997  71.6469988  78.4727376 127.5203233  72.1796812
  76.8234530 127.1808784  71.7433515  77.9270012 125.4184997  72.2739988
  78.8324461 124.8586942  72.4538357  76.7600012 124.8414997  72.6489988
  76.8347114 123.8335457  73.0311731  75.3420012 125.3914997  72.6229988
  75.4683998 126.3844400  73.0511506  75.1197814 125.5400928  71.5721803
  74.1340012 124.7174997  73.3129988  73.2834871 125.3981498  73.3198023
  73.8248898 123.8517643  72.7304084  74.4460012 124.2744997  74.7469988
  73.5573380 123.7941829  75.1564871  75.2173615 123.5099476  74.7158974
  74.8810012 125.3934997  75.6739988  75.6046980 126.0165042  75.1531598
  74.0273736 126.0338638  75.8892632  75.4910012 124.8774997  77.0199988
  76.3678746 124.2698504  76.8044868  75.8494143 125.7173803  77.6088668
  74.5230012 124.0294997  77.8509988  73.5854469 124.5758383  77.9369585
  74.2964792 123.1288440  77.2832478  74.9700012 123.6234997  79.2339988
  74.3760107 122.7788470  79.5740754  75.9896541 123.2537939  79.1507003
  74.9320012 124.7674997  80.3259988  75.3498443 124.4178127  81.2652512
  73.9202678 125.1040711  80.5256390  75.5100346 125.6304741  80.0077324
  39.7470012  33.4774997  81.8189988  40.4204775  33.6399508  82.6547429
  40.3504056  33.2286594  80.9507985  39.1337266  32.6114421  82.0523453
  38.8480012  34.7564997  81.5459988  39.5083990  35.6007950  81.3556228
  38.3124718  34.9885590  82.4626071  37.8360012  34.6114997  80.3499988
  36.9355093  34.0991790  80.6884820  38.2766027  33.9733199  79.5866065
  37.4460012  35.9444997  79.7029988  38.3504671  36.5209099  79.5214975
  36.8521401  36.5283673  80.4045211  36.6800012  35.8054997  78.3819988
  35.6036877  35.7653861  78.5286726  36.9509685  34.8914547  77.8562009
  37.0200012  37.0264997  77.4919988  38.0577975  37.3171365  77.6447273
  36.4175102  37.8814874  77.7912939  36.7820012  36.7334997  75.9659988
  35.7208140  36.5545448  75.8028209  37.2908939  35.8076364  75.7013568
  37.2490012  37.8404997  75.0459988  38.3050729  37.9789141  75.2740444
  36.7426945  38.7390543  75.3937589  37.0650012  37.7114997  73.4719988
  37.8156642  38.2892065  72.9369280  36.0986534  38.0997791  73.1526431
  37.1790012  36.1964997  73.0569988  36.3798711  35.6032961  73.4960884
  38.1128761  35.7545647  73.4034090  37.1160012  36.1074997  71.4929988
  37.3884754  37.0715711  71.0688938  36.0933694  35.9148487  71.1732522
  38.0250012  35.0584997  70.9089988  37.6632013  34.0713430  71.1862020
  39.0124123  35.1569586  71.3562068  38.1700012  35.1644997  69.3299988
  37.2208073  35.4754328  68.8968664  38.4021401  34.1977901  68.8919827
  39.2300012  36.1684997  68.9059988  40.2004321  35.8582702  69.2793169
  39.0061857  37.1257879  69.3692458  39.3170012  36.3754997  67.3369988
  38.3500824  36.6535529  66.9372543  39.6437482  35.4625721  66.8533992
  40.0990012  35.2834997  66.6579988  40.6910012  34.4604997  67.3149988
  40.0110012  35.3204997  65.3149988  40.6720012  34.2524997  64.5799988
  41.2981038  33.7908062  65.3285284  41.2980535  34.6740209  63.8069720
  39.6790012  33.2064997  63.9859988  40.3071809  32.4563956  63.5347470
  38.7800012  33.8384997  62.9239988  39.3925360  34.5252707  62.3557140
  38.0409335  34.4069516  63.4746587  38.1650012  32.9364997  62.0869988
  36.6980012  33.0184997  61.6369988  36.0770012  33.9154997  62.8129988
  35.6320012  33.2454997  64.0179988  36.4584275  32.9599752  64.6557168
  35.1142210  32.3275175  63.7553024  34.6000012  34.0834997  64.7929988
  34.6015037  33.6054746  65.7644609  33.6111666  33.9989450  64.3658761
  34.8180012  35.5944997  65.0659988  34.6820012  36.4054997  63.8379988
  35.3099391  35.9761719  63.0694250  35.0153420  37.4078847  64.0620705
  33.6430866  36.4260593  63.5448250  33.8130012  35.9894997  66.0929988
  33.8643423  35.2870683  66.9107202  32.8363144  35.9986172  65.6431434
  34.0751791  36.9793518  66.4376035  36.1720012  35.8424997  65.7609988
  36.2020178  35.2903241  66.6885133  36.2784035  36.8975002  65.9642286
  36.9741725  35.5163663  65.1147843  36.5880012  33.8514997  60.4449988
  36.1460012  31.6554997  61.6299988  38.8500012  32.5794997  64.9929988
  38.7880012  31.2214997  65.0269988  39.3730012  30.4584997  64.3239988
  37.8660012  30.7724997  66.1269988  36.9015688  30.5395186  65.6875183
  38.2267173  29.8438088  66.5621127  37.7620012  31.8724997  67.1849988
  38.7455892  32.2809116  67.3894865  37.1638842  32.7001949  66.8172899
  37.1540012  31.3284997  68.5039988  37.6652941  30.4063737  68.7684173
  37.3859741  32.0404950  69.2922349  35.6080012  31.0964997  68.4809988
  35.1101255  31.9619699  68.0476546  35.3395181  30.2474532  67.8571085
  35.0240012  30.8634997  69.9469988  33.9544862  30.6884719  69.8500238
  35.4516696  29.9313324  70.3110659  35.2640012  31.9404997  70.9789988
  36.2578171  32.3531826  70.8124942  34.5629390  32.7544754  70.8169083
  35.1440012  31.4654997  72.4629988  34.1496439  31.0836438  72.6630482
  35.8316754  30.6407056  72.6451111  35.5050012  32.6454997  73.4379988
  34.7313395  33.3940548  73.5196490  36.6270012  32.8324997  74.1789988
  36.6640525  33.7092558  74.8095032  37.8170012  31.9984997  74.2519988
  37.8963352  31.3968108  73.3481749  38.7327441  32.5758146  74.3136697
  37.7300012  31.0394997  75.4669988  36.7643979  30.5357272  75.4899901
  38.4790746  30.2552556  75.3758440  37.9490012  31.8024997  76.8039988
  38.7978634  32.4646339  76.6333585  37.0831531  32.4459854  76.9333716
  38.1890012  30.9864997  78.1099988  39.0916617  30.3868771  78.0161816
  38.3530126  31.6531179  78.9548688  37.0070012  30.0954997  78.4019988
  36.1345346  30.4923618  77.8863512  37.1820582  29.1117833  77.9750536
  36.6440012  29.9624997  79.9479988  35.9058022  29.1765342  80.0970075
  37.5231097  29.6623272  80.5153599  36.1120012  31.2314997  80.5339988
  36.8818226  31.9971380  80.4784306  35.3102745  31.5700426  79.8813609
  35.5630012  31.1464997  82.0069988  35.1212275  32.0913904  82.3088043
  36.3470597  30.9121214  82.7190803  34.7977178  30.3804996  82.0948977
 120.8080012  35.2204997  80.3019988 121.3022977  34.9411439  81.2272340
 121.4535982  35.9207272  79.7798150 120.7267281  34.3276397  79.6881521
 119.4460012  35.8244997  80.5669988 119.5613620  36.6981570  81.2062309
 118.8493381  35.1114563  81.1294722 118.7040012  36.2354997  79.2729988
 119.3254328  36.9615036  78.7489091 117.8052846  36.7700937  79.5741446
 118.3050012  35.1244997  78.3069988 117.6716301  34.4445968  78.8725279
 119.2114608  34.5681533  78.0735127 117.5880012  35.4934997  77.0069988
 118.0924218  36.3143213  76.5036255 116.5785722  35.8406359  77.2212755
 117.5160012  34.2494997  76.0189988 117.0465378  33.4077169  76.5247881
 118.5228403  33.9270499  75.7623316 116.7340012  34.5664997  74.7189988
 116.9090862  35.6021788  74.4335447 115.6649445  34.4796272  74.9082102
 117.1200012  33.6424997  73.5449988 116.8384770  32.6163813  73.7779715
 118.2011116  33.6398718  73.4189937 116.4490012  34.0674997  72.2069988
 116.6641176  35.1173272  72.0195740 115.3673288  33.9933849  72.3122075
 116.8870012  33.2544997  71.0309988 116.4586801  32.2569578  71.0999213
 117.9686413  33.1246280  71.0558369 116.4800012  33.9194997  69.6739988
 116.9753176  33.3710488  68.8756228 116.8915462  34.9270376  69.6489779
 115.0170012  33.9764997  69.3689988 114.5475079  34.4610494  70.2216456
 114.6693112  32.9451261  69.3760846 114.5330012  34.6734997  67.9989988
 113.4707137  34.9051656  68.0549298 114.6551415  34.0093517  67.1479622
 115.2780012  35.9624997  67.7299988 114.9084432  36.4491566  66.8333734
 116.3313813  35.7536597  67.5630612 115.1510012  36.9484997  68.9409988
 115.4835638  36.4717631  69.8543253 114.1211564  37.2609696  69.0669009
 116.1620012  38.1184997  68.8589988 116.0400012  39.2344997  69.3149988
 117.2700012  37.7584997  68.1799988 118.2440012  38.8114997  67.8639988
 118.4924039  39.1824999  68.8469112 117.8085714  39.6121873  67.2839193
 119.5430012  38.2304997  67.1489988 120.2739405  39.0094694  67.0081870
 119.1260012  37.6174997  65.7379988 120.0084579  37.4519619  65.1349496
 118.4922584  38.3373674  65.2352606 118.4300012  36.4044997  65.9389988
 118.5660012  35.1594997  65.0219988 117.8480012  35.3554997  63.5839988
 116.6160012  36.0794997  63.6489988 116.1621284  35.9773622  64.6261152
 115.9201869  35.6419698  62.9389233 116.7300012  37.5784997  63.2389988
 117.2741639  38.1159501  64.0053426 115.7449760  38.0121130  63.1437000
 117.4600012  37.8864997  61.9099988 116.8580012  37.0254997  60.9029988
 116.8594334  36.0091355  61.2722357 117.4594099  37.0882315  60.0083076
 115.8588122  37.3768195  60.6934448 117.2800012  39.3314997  61.5549988
 117.5309091  39.9300775  62.4172422 116.2625766  39.4931468  61.2466363
 117.9565434  39.5510558  60.7417444 118.9220012  37.6194997  61.9309988
 119.3798136  38.2082671  62.7119230 119.3461087  37.8921537  60.9763037
 119.0941497  36.5689904  62.1160127 120.0030012  35.0154997  64.7649988
 117.9200012  34.0074997  65.6849988 120.1580012  37.2804997  68.1079988
 121.1520012  36.5774997  67.6449988 121.7820012  36.9024997  66.6629988
 121.2120012  35.2124997  68.3419988 120.9930501  34.4818458  67.5701449
 122.2455898  35.0391415  68.6310464 120.2830012  35.0764997  69.5309988
 119.2876002  35.3308038  69.1837706 120.2478815  34.0253522  69.7991193
 120.6310012  35.9644997  70.8359988 121.5424540  35.5927772  71.2972255
 120.8464739  36.9805506  70.5146314 119.4940012  36.0084997  71.8739988
 118.6633764  36.5232388  71.3946114 119.1607888  34.9878236  72.0454395
 119.7680012  36.7004997  73.2759988 119.1183190  36.2876008  74.0449777
 120.7870429  36.4952419  73.5981853 119.5700012  38.2384997  73.2059988
 119.6334118  38.6433909  74.2148314 120.3833030  38.6883579  72.6434281
 118.2370012  38.6654997  72.5699988 118.1143554  38.2884016  71.5613684
 117.3828023  38.3016395  73.1394688 118.2240012  40.1694997  72.5919988
 118.7361065  40.7144149  71.8133014 117.5770012  40.9094997  73.5519988
 117.6530827  41.9848511  73.4782367 116.7290012  40.4164997  74.7529988
 116.1642697  39.5423097  74.4334816 117.3593757  40.0880192  75.5717841
 115.7100012  41.4964997  75.2779988 116.2222789  42.3536269  75.7134403
 115.1035197  41.8874879  74.4632795 114.7690012  40.8444997  76.3559988
 113.8892709  41.4653550  76.5254697 114.3993948  39.8784994  76.0232246
 115.4960012  40.6804997  77.6209988 116.4880957  40.2806238  77.4235330
 115.6470563  41.6483774  78.0958462 114.7350012  39.7484997  78.5939988
 114.8509821  40.0901106  79.6208582 113.6663361  39.7558717  78.3977192
 115.2750012  38.3134997  78.5099988 115.0527062  37.8991950  77.5282556
 116.3603274  38.3322917  78.5909179 114.7240012  37.3594997  79.5779988
 113.6405041  37.3434470  79.4902985 115.0586090  36.3639675  79.2946857
 115.0950012  37.6004997  80.9679988 114.7163617  36.8111797  81.6103967
 114.6962776  38.5393627  81.3371826 116.1746557  37.6321432  81.0841272
  24.1710012 104.1764997  83.9529988  23.3347147 104.4208906  84.6005534
  24.9481953 104.9161903  84.1221647  24.5610411 103.2121139  84.2667519
  23.7480012 104.1464997  82.4909988  23.3422366 105.1144763  82.2018979
  22.9450062 103.4267022  82.3571898  24.9180012 103.8014997  81.5789988
  25.3446714 102.8542728  81.9086088  25.6921555 104.5504782  81.7335540
  24.6210012 103.7254997  80.1309988  24.4105227 104.7150069  79.7312184
  23.7324539 103.1267178  79.9369625  25.8300012 103.1214997  79.3549988
  26.0417770 102.1120722  79.6981899  26.7266598 103.7061909  79.5537561
  25.5710012 103.0884997  77.8349988  26.5516410 103.0246474  77.3669332
  25.1746509 104.0685717  77.5782065  24.6650012 102.0124997  77.2529988
  23.9200714 101.7999879  78.0176480  25.2779609 101.1162400  77.1679757
  23.9580012 102.2714997  75.9149988  23.6962833 103.3250431  75.8255508
  23.0203061 101.7206213  75.8708973  24.8490012 101.8614997  74.7119988
  24.9446848 100.7778135  74.7088559  25.8516122 102.2542593  74.8765830
  24.3480012 102.3234997  73.3639988  23.6810547 103.1520333  73.5920631
  23.7148368 101.5108280  73.0088978  25.3150012 102.7224997  72.2599988
  25.8188722 103.6211582  72.6093808  24.7098014 103.0272529  71.4079502
  26.3830012 101.7194997  71.7909988  26.6555011 101.1096238  72.6489115
  27.2702252 102.2947318  71.5329069  26.0090012 100.8044997  70.5759988
  24.9458814 100.9455619  70.3885691  26.1295852  99.7682729  70.8792605
  26.7460012 101.0264997  69.2729988  26.4791899 100.2476358  68.5662260
  27.8121329 100.9295169  69.4602138  26.4840012 102.4024997  68.6329988
  26.7121312 103.1958406  69.3334328  25.4456061 102.4889633  68.3357973
  25.1250012 102.3944997  67.7949988  24.1990012 101.6214997  67.8159988
  25.0610012 103.5764997  67.1829988  23.8380012 103.8404997  66.4029988
  23.0774216 103.7464537  67.1633514  23.6712588 103.0918239  65.6421614
  23.8150012 105.2674997  65.7929988  22.8207160 105.4317941  65.4118187
  24.8110012 105.4154997  64.6919988  24.2496583 105.4861518  63.7702052
  25.3672229 104.4864172  64.6891427  25.6930012 106.5194997  64.8219988
  27.1670012 106.4354997  65.3739988  28.0210012 105.7064997  64.2489988
  28.0670012 106.2554997  62.9589988  29.0316432 106.1667967  62.4765191
  27.8280552 107.3149169  62.9773545  26.9300012 105.5884997  62.0829988
  26.7371209 106.1037398  61.1504894  26.0515882 105.6609196  62.7079171
  27.0620012 104.1564997  61.7319988  27.4430012 103.2774997  62.9219988
  28.3090157 103.7078942  63.4058514  27.6872342 102.2951406  62.5459392
  26.5990822 103.2096225  63.5920066  25.8330012 103.5454997  61.1729988
  25.4658973 104.1784306  60.3796847  25.1062114 103.4375490  61.9581696
  26.1043084 102.5768098  60.7788803  28.2570012 104.0334997  60.8479988
  28.1197030 104.6553518  59.9759144  28.3689200 103.0035507  60.5441415
  29.1385483 104.3488961  61.3872897  27.7230012 107.7674997  65.3559988
  27.1470012 105.7504997  66.6619988  24.0070012 106.2464997  66.9209988
  22.9570012 106.3324997  67.7649988  21.8490012 105.8224997  67.6519988
  23.4590012 107.2964997  68.8759988  24.4134702 107.7073220  68.5633218
  22.7857143 108.1451121  68.9679164  23.5730012 106.5094997  70.2429988
  23.9304597 105.5035793  70.0521881  24.3157237 106.9756386  70.8826164
  22.1900012 106.4314997  70.9969988  21.5600133 107.3107883  70.8891986
  21.5806454 105.5831582  70.6952250  22.5850012 106.2504997  72.4479988
  21.6768506 105.9450575  72.9644034  23.2610836 105.4001764  72.4934401
  23.1790012 107.3654997  73.1829988  24.0307974 107.7273557  72.6108062
  22.4497115 108.1732845  73.1841236  23.6030012 107.1034997  74.5899988
  22.9377142 106.3857387  75.0674017  24.6010774 106.6773995  74.6409934
  23.5880012 108.4394997  75.3999988  22.5507270 108.6957283  75.5816282
  24.0258794 108.2244967  76.3738480  24.3140012 109.5654997  74.7969988
  23.7840436 110.1333453  74.0471652  25.5060012 109.9444997  75.0829988
  25.8807893 110.8495323  74.6268630  26.4890012 109.2694997  76.0109988
  26.0885090 108.3750954  76.4852013  27.4479703 108.9869845  75.5911842
  26.7090012 110.3734997  77.1359988  27.1941414 111.2620095  76.7336379
  25.7558983 110.7062642  77.5425965  27.5840012 109.7784997  78.2939988
  26.9087494 109.2381539  78.9574507  28.2405867 109.0321084  77.8554790
  28.4340012 110.7914997  79.1359988  29.1802657 111.2625408  78.5001100
  27.8019946 111.5951024  79.5099978  29.1100012 110.1034997  80.3039988
  29.6119969 109.2060979  79.9472630  29.8925235 110.7415374  80.7054855
  28.1480012 109.6924997  81.4169988  27.5441397 110.5241766  81.7755344
  27.4452905 108.9259230  81.0954526  28.9600012 109.1444997  82.5849988
  29.3955252 108.1932593  82.2894050  29.7985889 109.8229651  82.7255986
  28.2640012 108.9854997  83.8639988  28.9542296 108.6742796  84.6423276
  27.4788632 108.2390399  83.8083453  27.8089574 109.9200464  84.1797495
  62.0200012  18.8534997  80.3629988  62.1556825  17.9599592  80.9643348
  62.1311258  19.7132640  81.0174043  62.8262588  18.8877082  79.6354066
  60.6390012  18.8564997  79.6639988  59.8682421  18.7845863  80.4294803
  60.5626138  17.9510889  79.0680035  60.3640012  20.1074997  78.7759988
  60.6127215  20.9880901  79.3681370  59.2886301  20.1472980  78.6142453
  61.0820012  20.2014997  77.3799988  60.4781090  19.6627004  76.6531841
  62.0311144  19.6707000  77.4360507  61.3260012  21.6284997  76.8559988
  61.8238772  22.1786444  77.6503748  60.3429155  22.0818053  76.7401468
  62.1150012  21.8034997  75.5649988  61.6505170  21.1007701  74.8756203
  63.0965576  21.3966334  75.7986303  62.2830012  23.1644997  74.8669988
  62.5255832  22.9744982  73.8230527  63.1556994  23.6531815  75.2980648
  61.0750012  24.1204997  74.9429988  60.8277467  24.2630484  75.9941867
  60.2203791  23.6165355  74.4954217  61.2620012  25.5034997  74.2699988
  62.2809642  25.8112651  74.4948005  60.6113604  26.1908204  74.8092889
  61.0090012  25.6444997  72.7619988  61.6599663  24.9345681  72.2564885
  61.3471284  26.6359629  72.4618328  59.5690012  25.4474997  72.3059988
  58.9365740  26.1203623  72.8811795  59.2527446  24.4389232  72.5665432
  59.3050012  25.6904997  70.8219988  60.1058284  25.2524383  70.2312391
  59.3316397  26.7604543  70.6241164  57.9230012  25.1304997  70.3539988
  57.1972852  25.5063468  71.0732534  57.9573367  24.0533201  70.4910362
  57.3920012  25.4424997  68.9319988  57.0926609  26.4852502  68.9117050
  56.4883589  24.8532819  68.8002980  58.3460012  25.1604997  67.7349988
  58.6844805  24.1323449  67.7542461  59.2105600  25.8121147  67.7797738
  59.2920012  26.2574997  67.4559988  59.1460012  27.4524997  67.8169988
  60.3470012  25.8464997  66.7629988  61.3920012  26.7704997  66.5499988
  61.8563519  26.9686988  67.5042302  61.0135537  27.6966210  66.1422381
  62.4180012  26.1084997  65.5759988  63.3596861  26.6041724  65.7446169
  61.9320012  26.3704997  64.1019988  62.6934118  26.0635169  63.3978564
  61.7588164  27.4329370  63.9844449  60.7200012  25.6394997  63.8799988
  60.6750012  24.2744997  63.0789988  59.9310012  23.2834997  64.0189988
  58.5780012  22.9384997  64.0649988  57.9263337  23.6885516  63.6361159
  58.2529700  22.7989243  65.0919703  58.3670012  21.5514997  63.3759988
  58.3738139  21.6735526  62.3002173  57.3871109  21.2135862  63.6809686
  59.3200012  20.3934997  63.6689988  58.6200012  19.0604997  63.2769988
  57.6448520  19.0324513  63.7435087  59.2239223  18.2455346  63.6474190
  58.5538442  19.0026239  62.2008990  60.6140012  20.4654997  62.8979988
  61.0308668  21.4535070  63.0195660  60.4190554  20.2454694  61.8636135
  61.2817412  19.7271891  63.3179009  59.5980012  20.3194997  65.1999988
  60.0202547  21.2568317  65.5304418  60.2958437  19.5192237  65.3955087
  58.6734134  20.1290667  65.7256486  59.8560012  24.4304997  61.8779988
  62.0620012  23.6874997  62.8389988  62.5900012  24.6664997  65.7409988
  63.1540012  24.2334997  66.8579988  63.4620012  24.8884997  67.8489988
  63.5830012  22.7314997  66.8199988  63.0331822  22.2279622  66.0315178
  64.6337263  22.6354608  66.5579678  63.2940012  22.1084997  68.2239988
  63.7182380  21.1117573  68.1731181  63.9188409  22.6657011  68.9147483
  61.8220012  22.0154997  68.7879988  61.3706556  23.0000208  68.6949435
  61.2700070  21.3641218  68.1148909  61.6550012  21.4954997  70.2149988
  62.1323293  20.5227410  70.3179765  62.1327436  22.1470147  70.9426610
  60.1490012  21.3444997  70.5869988  59.5594455  22.1616803  70.1764614
  59.7442134  20.4317265  70.1541328  59.9560012  21.2924997  72.1179988
  60.3357321  20.3672156  72.5485272  60.4561511  22.1022825  72.6418498
  58.4380012  21.3944997  72.3849988  58.1531385  22.4104645  72.1375139
  57.9601297  20.7532070  71.6455877  57.9360012  21.0064997  73.7579988
  58.1871129  20.0282064  74.1393637  57.1960012  21.8114997  74.5609988
  56.9483272  21.3638873  75.5127922  56.6580012  23.2104997  74.3799988
  57.4628954  23.7997093  73.9438816  55.8581252  23.2005486  73.6480285
  56.1730012  23.9274997  75.6609988  55.4814055  24.7145298  75.3626971
  55.5872770  23.2094121  76.2317320  57.2620012  24.5184997  76.5619988
  57.9915291  23.7380104  76.7781756  57.7953390  25.2886466  76.0116093
  56.7390012  25.1034997  77.8849988  56.1631577  25.9860092  77.6153207
  56.0250432  24.3839594  78.2820012  57.7840012  25.4654997  79.0009988
  57.2354134  26.0330867  79.7503227  58.0570168  24.5288601  79.4793226
  59.0390012  26.2534997  78.6419988  59.7853875  25.5603327  78.2581890
  58.7994675  26.9249365  77.8194234  59.6740012  27.0774997  79.7749988
  60.6103188  27.5193071  79.4432903  59.0149165  27.9136380  79.9981423
  59.9160012  26.2734997  81.0769988  60.2819047  26.9214872  81.8677552
  60.6487349  25.4859467  80.9369894  58.9973530  25.8110546  81.4268147
  43.3780012 120.7864997  79.2669988  43.2066087 121.1210228  80.2854034
  42.6333802 121.2594011  78.6332056  44.3531532 121.1532148  78.9584367
  43.3040012 119.2294997  79.1609988  42.3250772 118.9120225  79.5161312
  44.0298068 118.8143388  79.8550172  43.5330012 118.6754997  77.7789988
  43.5293565 117.5865022  77.8237240  44.5315329 118.9601608  77.4533098
  42.5060012 119.1504997  76.7009988  42.9658094 118.9837949  75.7293836
  42.3957260 120.2291560  76.8012283  41.1150012 118.4934997  76.7059988
  40.4724110 119.0093331  75.9970794  40.6681436 118.6420961  77.6876313
  41.1200012 116.9644997  76.3669988  40.1149799 116.5996980  76.5711285
  41.7707069 116.4878247  77.0970262  41.5510012 116.5194997  74.9179988
  42.6039996 116.7447969  74.7592369  41.0012387 117.0954113  74.1748185
  41.3050012 114.9824997  74.6709988  40.2598301 114.7092136  74.8102225
  41.8757559 114.3613096  75.3587821  41.7290012 114.6564997  73.2169988
  41.6742043 113.5768913  73.0945889  42.7809334 114.9204909  73.1153909
  40.9130012 115.3474997  72.0809988  40.8638199 116.4081773  72.3173101
  39.8905205 114.9747760  72.1361286  41.4580012 115.1464997  70.6199988
  41.3996443 114.0924932  70.3569288  42.5131239 115.4109330  70.5761927
  40.6740012 115.9684997  69.5409988  39.6659913 115.5662596  69.4751354
  41.1402786 115.7796325  68.5758125  40.6210012 117.5644997  69.7849988
  41.6095587 117.9750371  69.9836570  39.9969574 117.8534220  70.6260500
  40.0780012 118.2304997  68.5029988  39.0485202 117.9544307  68.2997748
  40.6601685 117.9352496  67.6340911  40.1700012 119.7444997  68.6569988
  41.1841404 120.0404064  68.8936456  39.5146690 120.0836827  69.4504492
  41.5460012 120.2224997  68.3369988  42.3890012 120.3944997  69.1909988
  41.5880012 120.6084997  67.0769988  42.8030012 121.1374997  66.5819988
  43.1751839 121.6777024  67.4393919  42.6340304 121.8328172  65.7725703
  43.8440012 119.9944997  66.1499988  44.7744787 120.4727113  65.8922798
  43.3030012 119.1534997  64.9049988  44.1085771 118.5621383  64.4913080
  42.9681306 119.8575693  64.1535118  42.2510012 118.3324997  65.3039988
  42.3850012 116.7844997  64.9829988  41.9610012 116.7294997  63.4799988
  41.0080012 117.4524997  62.8279988  41.2546437 117.7685820  61.8227881
  40.7196848 118.3482379  63.3705149  39.7820012 116.5744997  62.8339988
  38.9592472 117.1468465  62.4244330  39.5729468 116.3598778  63.8720791
  39.7510012 115.2224997  62.1099988  40.2770012 115.4694997  60.7519988
  39.7401595 116.3029450  60.3201378  40.1058225 114.5815667  60.1617676
  41.3372475 115.6629370  60.8166261  40.5500012 114.1604997  62.8439988
  40.2458905 114.1574133  63.8794799  41.5983738 114.3773386  62.7426793
  40.3191033 113.2091105  62.3870065  38.2820012 114.8444997  62.0619988
  37.8937468 114.7979020  63.0685619  38.1793951 113.8792017  61.5894294
  37.7375151 115.5847050  61.4936099  43.7810012 116.3414997  65.1929988
  41.3970012 116.0634997  65.7929988  44.1170012 119.1574997  67.3739988
  45.2000012 118.4104997  67.3359988  45.9400012 118.2654997  66.3569988
  45.2060012 117.4444997  68.5059988  44.8005486 118.0441069  69.3144741
  44.4382234 116.7139955  68.2635364  46.4570012 116.7874997  68.8859988
  46.8181326 116.2161489  68.0379401  47.2117653 117.5422774  69.0826576
  46.3230012 115.8574997  70.0969988  45.5705055 115.0993892  69.8953238
  47.2613789 115.3250403  70.2311596  45.9820012 116.6124997  71.4279988
  46.8189810 117.2565133  71.6914703  45.1266768 117.2685796  71.2859372
  45.6990012 115.6784997  72.6139988  45.1194031 116.2233050  73.3563963
  45.0576082 114.8737470  72.2599236  46.9260012 115.0664997  73.2799988
  47.3344983 114.3957306  72.5257442  47.6363416 115.8821905  73.3818952
  46.8300012 114.2974997  74.6719988  46.1330652 113.4828230  74.5133724
  47.8072456 113.8403854  74.8216181  46.4720012 115.0874997  75.9089988
  47.1023046 115.9510107  76.0593990  45.5190012 114.8794997  76.7929988
  45.4614494 115.5905671  77.6045904  44.4870012 113.8044997  76.8519988
  43.5985377 114.2429014  77.3032832  44.2033466 113.5094601  75.8479207
  44.8810012 112.5244997  77.6819988  44.0840858 111.7971627  77.5316266
  45.7639683 112.1112387  77.1982184  45.1570012 112.6814997  79.1939988
  45.5387550 111.7435719  79.5973131  45.9347946 113.4219617  79.3590965
  43.9030012 113.0834997  79.9599988  43.5815965 114.0757530  79.6513283
  43.0804550 112.4103471  79.7246939  44.1540012 113.0624997  81.4579988
  44.4564390 112.0532602  81.7310501  45.0098344 113.6968621  81.6719119
  42.8950012 113.4834997  82.4079988  42.1211790 112.7263610  82.2947586
  43.2253339 113.4248712  83.4435068  42.2630012 114.8674997  82.1749988
  43.0071785 115.6434252  82.0135844  41.6496948 114.8542082  81.2766716
  41.3860012 115.2454997  83.3599988  40.8643804 116.1789559  83.1712127
  41.9650709 115.3746677  84.2681479  40.6379140 114.4814300  83.5515818
 105.8990012  20.9604997  80.5409988 106.7355476  20.8547016  81.2246842
 105.9414250  20.1357745  79.8354361 104.9848023  20.8526588  81.1182533
 105.9390012  22.3394997  79.8029988 106.8899274  22.4085433  79.2774749
 105.9531490  23.1161937  80.5628410 104.8200012  22.5864997  78.8329988
 103.8378125  22.4814872  79.2936579 104.8417926  21.8796987  78.0058781
 104.9660012  24.0294997  78.2549988 105.0756632  24.7882185  79.0267306
 104.1274949  24.3470077  77.6370975 106.2210012  24.0064997  77.4199988
 106.1784948  23.1828727  76.7118993 107.0740768  23.8093454  78.0671133
 106.4610012  25.3124997  76.6499988 106.7327156  26.1004841  77.3500479
 105.5336334  25.6309033  76.1786335 107.5520012  25.1854997  75.5829988
 107.2947356  24.3261628  74.9664563 108.4736445  24.9234374  76.1008085
 107.8100012  26.4154997  74.6669988 108.8660471  26.6817329  74.6853814
 107.2711856  27.2835189  75.0423712 107.3810012  26.1414997  73.2149988
 106.3080764  25.9645254  73.1825401 107.8508647  25.2227761  72.8660687
 107.7360012  27.2854997  72.2589988 108.8194807  27.3728516  72.2172771
 107.3705756  28.2200348  72.6838955 107.1760012  27.1214997  70.8639988
 106.1166616  26.8806493  70.9217200 107.6502466  26.2802106  70.3615528
 107.3440012  28.4214997  69.9769988 108.3908851  28.7120220  70.0200068
 106.7872133  29.2177229  70.4675963 106.8710012  28.3254997  68.4839988
 105.7840968  28.3877750  68.4875669 107.1178571  27.3371051  68.1066233
 107.3940012  29.3654997  67.5209988 108.4782220  29.4037874  67.5395515
 107.0394844  30.3501628  67.8139977 106.9150012  29.0784997  66.0619988
 105.8356600  29.0028004  66.0254861 107.3411286  28.1501310  65.7005904
 107.9950012  28.2874997  65.2409988 108.2780012  28.5484997  64.0979988
 108.5030012  27.3274997  65.9779988 109.4390012  26.4704997  65.3659988
 110.3602968  26.6630256  65.8947806 109.5770511  26.7025967  64.3199275
 109.0210012  25.0304997  65.5499988 109.7962900  24.3811159  65.1783512
 107.6500012  24.7294997  64.7889988 107.4617009  23.6652186  64.8296162
 107.7986411  25.0163328  63.7554525 106.5160012  25.4784997  65.3739988
 105.1080012  24.8704997  65.1509988 104.7230012  25.1114997  63.6079988
 105.1940012  26.3094997  62.9309988 106.2161881  26.2140719  62.5886300
 105.1765041  27.1507480  63.6178700 104.2370012  26.7214997  61.7479988
 104.2301553  25.8859367  61.0594955 104.7097337  27.5649435  61.2658127
 102.7610012  27.1174997  61.9409988 102.5870012  28.2304997  62.9779988
 103.1111608  27.9467342  63.8802558 101.5320879  28.3299229  63.1862607
 102.9639315  29.1548526  62.5666446 102.2110012  27.7114997  60.6299988
 102.4523104  27.0389194  59.8212222 102.6445781  28.6834170  60.4758631
 101.1389924  27.7930167  60.7369994 102.0010012  25.9604997  62.4299988
 102.0917134  25.1503850  61.7217845 100.9623093  26.2363637  62.5332858
 102.3902535  25.6528402  63.3898233 105.1670012  23.4344997  65.4889988
 104.0770012  25.6704997  65.9019988 108.9410012  24.8124997  66.9609988
 108.3300012  23.7094997  67.4499988 107.9390012  22.7504997  66.7869988
 108.3460012  23.6974997  68.9769988 109.3791099  23.6583315  69.3067033
 107.9453673  24.6309583  69.3643675 107.5010012  22.4444997  69.5049988
 107.8068418  21.5471500  68.9784192 107.7074036  22.2615246  70.5547374
 105.9910012  22.6594997  69.2989988 105.7769712  22.7479202  68.2369126
 105.4659598  21.7710364  69.6410946 105.4170012  23.9154997  70.0749988
 105.5459696  23.7990182  71.1494778 105.9225533  24.8399559  69.8066713
 103.9370012  24.0654997  69.7859988 103.7784626  23.9910959  68.7121130
 103.4190278  23.2166287  70.2281556 103.3080012  25.3304997  70.2959988
 103.8897482  26.1798678  69.9412521 102.3120800  25.4446656  69.8771609
 103.2020012  25.3914997  71.8959988 102.6989611  24.5041259  72.2621934
 104.2055448  25.3717287  72.3189116 102.5110012  26.6344997  72.3619988
 102.8590537  27.5729199  71.9573003 101.4700012  26.6854997  73.2439988
 101.0133771  27.6339553  73.4879996 100.8570012  25.5174997  73.9419988
  99.7742527  25.6051242  73.8698966 101.1188228  24.5832273  73.4579888
 101.2450012  25.4434997  75.4669988 100.4655700  24.9028927  76.0026630
 102.1484576  24.8438079  75.5597089 101.4750012  26.8144997  76.1379988
 102.3875883  27.2788965  75.7643316 100.6677234  27.5052470  75.9106778
 101.5860012  26.6344997  77.6899988 100.6811298  26.1705740  78.0761669
 102.4035882  25.9600780  77.9385784 101.8080012  27.9304997  78.3519988
 102.7339559  28.3747131  77.9916209 101.0208535  28.6326508  78.0912165
 101.9090012  27.8004997  79.8579988 101.0735596  27.2291719  80.2586295
 102.8091166  27.2580851  80.1415700 101.9330012  29.1764997  80.5429988
 100.9672058  29.6528066  80.3937139 102.0076099  28.9872640  81.6116130
 103.0420012  30.1404997  80.1379988 103.0119917  31.0397959  80.7458101
 102.9548682  30.4461428  79.1008242 104.0204528  29.6865065  80.2670867
  12.7820012  85.6944997  83.1589988  12.7656894  84.8015888  83.7761479
  12.0051848  86.3617455  83.5211167  13.7377851  86.1870049  83.3156121
  12.5740012  85.3524997  81.6789988  11.6224823  84.8368436  81.5610425
  13.3424974  84.6497191  81.3686329  12.5930012  86.5894997  80.7719988
  13.4395887  87.1943347  81.0966418  11.7010470  87.1575873  81.0286408
  12.6440012  86.4234997  79.2279988  12.8997764  87.3883913  78.7957800
  11.6434068  86.1879836  78.8687646  13.6410012  85.3644997  78.6989988
  13.4011482  84.4099822  79.1604529  14.6305961  85.6386671  79.0607984
  13.6890012  85.1914997  77.2569988  14.6431275  84.7456320  76.9819314
  13.6601769  86.1678561  76.7779640  12.5260012  84.3084997  76.6979988
  11.6106086  84.8969571  76.6746698  12.3407589  83.4848636  77.3861404
  12.8100012  83.7294997  75.2569988  11.8943488  83.2906532  74.8627329
  13.5283686  82.9154631  75.3343076  13.3450012  84.7924997  74.2509988
  13.7229072  84.2986850  73.3583201  14.1918335  85.3209974  74.6870517
  12.2820012  85.7924997  73.8579988  11.9528672  86.3468688  74.7341521
  11.4024054  85.2749075  73.4761105  12.8060012  86.7714997  72.7769988
  13.5692364  87.3812423  73.2557752  11.9882832  87.4474670  72.5330040
  13.4120012  86.1744997  71.4329988  12.6852742  85.4797781  71.0189349
  14.2824738  85.5791397  71.7022456  13.8290012  87.1994997  70.3689988
  12.9643597  87.4761803  69.7680869  14.5560912  86.7786086  69.6801847
  14.3960012  88.4574997  70.9739988  15.1394433  88.2326142  71.7316697
  13.6092510  89.0249452  71.4640209  15.0250012  89.3304997  69.8999988
  14.3094866  89.5403623  69.1151182  15.8833518  88.8331501  69.4641701
  16.2610012  88.6574997  69.3109988  17.1600012  88.0574997  69.9199988
  16.1950012  88.8534997  67.9629988  17.0000012  88.0924997  67.0769988
  17.8750712  87.7982565  67.6365838  17.2984312  88.7544790  66.2770519
  16.2750012  86.8454997  66.5219988  16.8663895  86.5089296  65.6866100
  14.8210012  87.2154997  66.0349988  14.8995135  88.0768952  65.3856648
  14.2719145  87.4999978  66.9239024  14.1610012  86.1444997  65.3649988
  12.8190012  86.3844997  64.4879988  13.2170012  85.7114997  63.1089988
  13.7840012  84.4194997  63.0879988  13.5262415  83.9573231  62.1439957
  13.2749216  83.8489562  63.8594359  15.3410012  84.2524997  63.4019988
  15.5944258  83.2065337  63.2837612  15.5386743  84.5444187  64.4233144
  16.3240012  85.0074997  62.5609988  16.1790012  86.5774997  62.7089988
  15.1427464  86.8446668  62.5536546  16.7918470  87.0416761  61.9506715
  16.5286468  86.8710842  63.6874021  17.7740012  84.7764997  62.8409988
  17.9534919  83.7125457  62.8633369  18.0284125  85.2379939  63.7783716
  18.3346367  85.2301950  62.0365453  16.0420012  84.6054997  61.1469988
  16.1483333  83.5349501  61.0537301  16.7447694  85.0975073  60.4914873
  15.0359171  84.8977578  60.8827734  11.6990012  85.6214997  65.1229988
  12.7100012  87.8464997  64.3479988  16.0940012  85.7364997  67.5239988
  17.1150012  85.2594997  68.0769988  18.2990012  85.5804997  67.9189988
  16.7880012  84.1534997  68.9959988  15.8126257  84.4024223  69.4012558
  16.6387056  83.2668308  68.3849045  17.7820012  83.9044997  70.0609988
  17.4361457  83.0631959  70.6514672  18.7114614  83.5857046  69.6000146
  18.0420012  85.0894997  70.9849988  18.6306820  85.8378166  70.4604698
  17.0902099  85.5608158  71.2174197  18.7560012  84.6914997  72.3469988
  18.0273021  84.1275110  72.9263263  19.5623854  83.9994944  72.1166184
  19.3070012  85.8174997  73.2299988  19.8032187  85.4090668  74.1079804
  20.0663131  86.3747246  72.6847220  18.2170012  86.7834997  73.6699988
  18.6573516  87.5437971  74.3132252  17.8129074  87.3074672  72.8083235
  17.0330012  86.0794997  74.4319988  16.1496943  86.7029013  74.3563724
  16.7985107  85.1510649  73.9129909  17.3490012  85.7624997  75.8599988
  17.4512647  84.6960422  75.9932829  17.5220012  86.5024997  76.8989988
  17.7269708  86.0075325  77.8374043  17.4830012  87.9714997  76.9909988
  18.4790513  88.3702134  77.1757484  17.1221023  88.4603878  76.0929891
  16.5820012  88.3554997  78.1799988  15.5542527  88.2793207  77.8269620
  16.7083743  87.5658180  78.9181666  16.8000012  89.7734997  78.8849988
  16.7884137  90.5270266  78.0974901  15.9288597  89.9682215  79.5044339
  18.0850012  89.9424997  79.7339988  18.8845852  89.3667126  79.2732607
  18.4017652  90.9834900  79.7010661  17.9030012  89.5044997  81.2299988
  17.1877526  90.1557961  81.7288197  17.4882502  88.5023923  81.2962368
  19.2280012  89.5774997  82.0039988  19.9744818  88.9674326  81.4985606
  19.6029408  90.5989683  81.9747386  19.1450012  89.1314997  83.4699988
  18.9188992  88.0686904  83.5050610  20.1428781  89.2357845  83.8903312
  18.1960012  89.8614997  84.3209988  18.2734332  89.5341644  85.3534352
  17.1689606  89.7078083  84.0074581  18.3919132  90.9297640  84.2971084
  17.3650012  58.7834997  79.6649988  17.7086055  58.5967240  80.6776586
  17.4363491  59.8518945  79.4827023  18.0529480  58.2874071  78.9858571
  15.9820012  58.2984997  79.4689988  15.3895289  58.8042893  80.2294963
  16.0105792  57.2497133  79.7519201  15.2930012  58.4594997  78.0999988
  14.2164634  58.3205970  78.1984946  15.6366814  57.6792130  77.4238274
  15.5690012  59.8164997  77.4539988  16.6208297  59.8891132  77.1863535
  15.3815262  60.6229933  78.1611954  14.7070012  60.0454997  76.1649988
  13.7264501  60.4279732  76.4366724  14.5365479  59.0884431  75.6747403
  15.3620012  61.0164997  75.1679988  15.6298107  61.9397212  75.6786425
  14.6436204  61.2917709  74.3987577  16.6120012  60.4234997  74.5039988
  16.3584497  59.4201636  74.1666586  17.3676405  60.3020607  75.2789128
  17.2040012  61.2074997  73.3449988  16.9593199  62.2594040  73.4867004
  16.6990726  60.8984004  72.4316594  18.7590012  61.0574997  73.1539988
  19.2504441  61.3709045  74.0725859  19.0808673  61.7571383  72.3836190
  19.2410012  59.6074997  72.7729988  18.8755956  58.9534073  73.5616311
  20.3272069  59.6131042  72.8599170  18.8390012  59.0324997  71.3689988
  19.0414767  59.7380345  70.5660260  17.7802348  58.7894276  71.2978804
  19.6970012  57.7194997  71.1099988  19.1442393  57.0510241  70.4543970
  19.8213013  57.1877138  72.0514993  21.0390012  57.9974997  70.5419988
  21.6447163  58.4742260  71.3108246  20.9550450  58.7162462  69.7316724
  21.8050012  56.7524997  70.0349988  21.5656566  55.9427087  70.7163928
  22.8581271  56.9810179  70.1757014  21.5950012  56.2694997  68.5739988
  21.7962640  57.0727940  67.8766806  20.5753149  55.9321097  68.4309014
  20.6390012  55.1684997  68.6069988  20.4540012  54.3954997  69.5079988
  20.1200012  55.0864997  67.3799988  19.0180012  54.1304997  67.1259988
  18.8589952  53.5953574  68.0500128  19.3075197  53.4290938  66.3569729
  17.7460012  54.8904997  66.7259988  16.9657183  54.2326287  66.3806605
  18.1070012  55.9294997  65.5999988  18.5430454  55.4481324  64.7351566
  18.8109274  56.6574462  65.9836219  16.9070012  56.5474997  65.2599988
  16.3930012  57.9734997  65.5019988  16.8420012  58.6534997  64.1019988
  16.2890012  58.2614997  62.8399988  15.2808441  57.8813739  62.9415500
  16.8820087  57.4536881  62.4209766  16.3530012  59.4254997  61.7649988
  15.6191796  60.2161618  61.8577798  16.2134823  58.9320576  60.8139854
  17.6890012  60.1144997  61.6809988  17.7520012  61.1944997  60.5859988
  17.4061457  60.7640595  59.6562465  18.7812241  61.5045077  60.4825817
  17.1484927  62.0368018  60.8893495  18.2560012  60.7524997  62.9269988
  18.2126154  60.0332636  63.7304483  17.6880398  61.6357222  63.1587483
  19.2834582  61.0129124  62.7176803  18.5840012  58.9944997  61.1529988
  18.5499659  58.1597129  61.8371439  19.5978043  59.3575183  61.0750843
  18.2357158  58.6835653  60.1786004  14.9420012  57.9754997  65.7179988
  17.2010012  58.5004997  66.6469988  17.2630012  55.5394997  67.9329988
  16.6430012  54.8694997  68.8699988  16.4290012  53.6714997  68.9689988
  16.3470012  55.9004997  69.9669988  17.0992213  56.6789744  69.8915340
  15.3961899  56.3843927  69.7579235  16.3390012  55.2454997  71.3469988
  15.5771525  54.4739370  71.3654034  17.2838287  54.7383795  71.5148174
  16.0750012  56.2334997  72.4749988  16.6361733  57.1492641  72.3073226
  15.0247988  56.5143923  72.4595296  16.4260012  55.6264997  73.9359988
  15.6270372  55.8981978  74.6234162  16.4370157  54.5399627  73.8970360
  17.7340012  56.1064997  74.5149988  18.5548279  55.4607607  74.2097681
  17.9698685  57.0975842  74.1322468  17.6830012  56.1694997  75.9829988
  16.8408365  56.8079924  76.2452711  17.4436425  55.1776589  76.3561975
  18.9230012  56.6644997  76.6879988  18.8489145  56.4901094  77.7550879
  19.7911789  56.1032561  76.3450424  19.1530012  58.1754997  76.3799988
  18.3114424  58.8496350  76.3263861  20.3900012  58.7104997  76.1829988
  20.3421788  59.7722102  75.9878227  21.7870012  58.1484997  76.1829988
  21.7266614  57.1373482  76.5819385  22.1519426  58.0524804  75.1664954
  22.8510012  58.9684997  77.0549988  23.8059352  58.4450903  77.0258678
  23.0170005  59.9293589  76.5716224  22.4330012  59.2064997  78.5389988
  23.2946053  59.5677287  79.1004780  21.6867353  59.9946811  78.5875915
  21.8710012  57.9094997  79.2299988  20.8636260  57.7267702  78.8626429
  22.4669930  57.0517497  78.9231703  21.8620012  57.9964997  80.7559988
  22.8445209  58.3121211  81.1018717  21.1710913  58.7706559  81.0784127
  21.5260012  56.6814997  81.4399988  20.4900980  56.4295473  81.2202087
  22.1296922  55.8948364  80.9910533  21.7140012  56.6424997  82.8709988
  21.6091245  55.6244700  83.2377840  22.7408848  56.9300981  83.0857314
  20.7770012  57.5594997  83.6459988  21.0215335  57.5553813  84.7039477
  19.7404239  57.2542341  83.5508065  20.8529736  58.5840522  83.2929248
 103.1460012 119.3574997  80.5049988 102.9146748 119.7850037  81.4756467
 104.1160206 118.8743278  80.5784652 102.4090497 118.5859122  80.2996518
 103.1420012 120.3844997  79.4549988 103.8594183 121.1286385  79.7967195
 102.1614486 120.8455152  79.5374334 103.4330012 120.0394997  78.0179988
 104.4770994 119.7278332  77.9924684 103.3877670 120.9849890  77.4811796
 102.5640012 118.9924997  77.2509988 101.5689909 119.3992185  77.0843125
 102.4265193 118.0982598  77.8569193 103.1650012 118.6014997  75.8999988
 103.9135210 117.8486301  76.1334051 103.7118893 119.4888570  75.5855543
 102.2960012 118.0964997  74.7269988 101.4967014 118.8111909  74.5395064
 101.8108642 117.1660565  75.0142175 103.0900012 117.8744997  73.4349988
 103.9135833 117.2024523  73.6691671 103.5425973 118.8268135  73.1620793
 102.2940012 117.3094997  72.2079988 101.7945865 116.4043097  72.5510253
 103.0335701 116.9898309  71.4761971 101.2730012 118.2214997  71.5269988
 101.8258178 119.1027997  71.2088084 100.5977915 118.5545795  72.3142260
 100.4320012 117.6724997  70.3219988 100.0158995 116.7011441  70.5801203
 101.0811635 117.5078111  69.4624088  99.3030012 118.6404997  69.9249988
  99.7266673 119.6006496  69.6383629  98.6540120 118.8385955  70.7762914
  98.4810012 118.1304997  68.7869988  97.7956728 117.3837611  69.1806046
  99.1512279 117.6019616  68.1116369  97.7070012 119.1874997  67.9829988
  96.9584528 119.6777038  68.6031820  97.1714995 118.7620325  67.1389077
  98.6850012 120.2734997  67.4659988  99.5387941 119.7967674  66.9957764
  99.0648106 120.8255909  68.3215875  98.0860012 121.2244997  66.5259988
  97.2108035 121.6886550  66.9626107  97.7929188 120.7192979  65.6133417
  99.0410012 122.2634997  66.0059988  98.6770012 123.0004997  65.1019988
 100.2080012 122.3014997  66.5659988 101.0790012 123.2344997  65.9009988
 100.7851482 124.2328704  66.1879977 101.0109713 123.1413756  64.8268052
 102.5470012 122.9294997  66.4039988 103.1344706 123.7994394  66.1611436
 103.0880012 121.7254997  65.6739988 104.1687632 121.7242404  65.7158664
 102.7810201 121.7952109  64.6379061 102.5650012 120.5414997  66.2679988
 103.0640012 119.2394997  65.4039988 102.2540012 119.3574997  64.0059988
 100.9200012 119.8234997  63.9829988 100.6272924 120.1929875  64.9571596
 100.2658764 118.9849102  63.7623509 100.6190012 120.8924997  62.8559988
 101.2665455 121.7458097  63.0134704  99.5913464 121.2215022  62.9113155
 100.8410012 120.4674997  61.4269988 100.0090012 119.1974997  61.2819988
 100.2631368 118.5242554  62.0891488 100.2591947 118.7414909  60.3356588
  98.9620946 119.4613370  61.2916725 100.2880012 121.5284997  60.5269988
 100.6733185 122.4844352  60.8470485  99.2139204 121.5023589  60.5721350
 100.6255205 121.3096816  59.5242543 102.2380012 120.1944997  61.0929988
 102.8280939 121.0789747  61.2816162 102.3076654 119.9287807  60.0488770
 102.6004892 119.3766182  61.6988927 104.5070012 119.2594997  65.2249988
 102.4780012 118.1064997  66.1109988 102.6440012 122.6554997  67.8449988
 102.3050012 123.6884997  68.6349988 102.0410012 124.8314997  68.2489988
 102.6050012 123.3564997  70.1179988 103.0388903 122.3636497  70.1775151
 103.3530501 124.0328186  70.5241051 101.2460012 123.4584997  70.9249988
 101.4295175 123.1388891  71.9449163 100.9479765 124.5003687  70.9860162
 100.1370012 122.6484997  70.3529988 100.0236904 122.8696390  69.2947398
 100.4020392 121.5959581  70.4160542  98.8280012 122.8574997  71.0669988
  98.9314932 122.4687268  72.0783597  98.6344106 123.9225315  71.1691350
  97.5990012 122.1874997  70.4119988  97.4607953 122.6156050  69.4212788
  97.8392334 121.1373794  70.2573480  96.2660012 122.2804997  71.2039988
  95.9235374 123.3037954  71.0581037  95.5594087 121.6430720  70.6798508
  96.2180012 121.9244997  72.7609988  96.6285277 122.7598742  73.3161540
  95.1719059 121.8459366  73.0540150  96.9000012 120.6684997  73.1109988
  96.7145081 119.8962296  72.3797359  97.6930012 120.3514997  74.1479988
  98.1519520 119.3866941  74.3096290  98.0270012 121.4004997  75.2379988
  99.0438764 121.2241951  75.5845567  98.0128519 122.4085273  74.8387982
  97.0800012 121.3174997  76.4559988  97.0021421 122.3213062  76.8719500
  96.0935029 121.0732697  76.0665994  97.4390012 120.3334997  77.5649988
  96.6582805 120.2712767  78.3230954  97.5831106 119.3225741  77.1938303
  98.7550012 120.8354997  78.2249988  99.4897664 120.9141814  77.4268295
  98.5715103 121.8512814  78.5708362  99.3430012 119.9764997  79.4179988
  99.6954581 119.0195218  79.0377916 100.2152427 120.4670875  79.8412520
  98.3330012 119.7014997  80.4969988  97.6664262 120.5612062  80.5352796
  97.7267123 118.8645303  80.1553408  98.8150012 119.4034997  81.9009988
  97.9938998 119.0992483  82.5453113  99.4972838 118.5567862  81.8713400
  99.5460012 120.6074997  82.5339988  99.9581553 120.3422038  83.5029240
  98.8819663 121.4521608  82.6834858 100.3669559 120.9404493  81.9052550
  94.3080012 120.3284997  81.2939988  94.5627962 120.6346351  82.3038451
  94.7090380 119.3310253  81.1390654  93.2252985 120.2607871  81.2325007
  94.8560012 121.3104997  80.2619988  95.9356020 121.3703961  80.3887954
  94.4657231 122.2965754  80.4989623  94.5400012 120.9554997  78.8109988
  93.4796101 121.0988214  78.6037340  94.7409015 119.9002633  78.6369693
  95.4020012 121.8144997  77.7709988  95.4635605 121.2890052  76.8205694
  96.4271394 121.9257916  78.1208727  94.7860012 123.2234997  77.5219988
  94.7789418 123.7620169  78.4662034  93.7430542 123.0772633  77.2458798
  95.4690012 124.0854997  76.4669988  96.5509340 123.9674086  76.4841081
  95.2762460 125.1451665  76.6203896  94.9240012 123.6594997  75.0609988
  93.8818786 123.9686250  75.0045000  94.9208143 122.5709487  75.0252701
  95.6730012 124.1984997  73.8539988  95.6039901 123.4522480  73.0635578
  96.7263784 124.2624403  74.1204418  95.1970012 125.5804997  73.3009988
  95.0468470 126.2655120  74.1327155  94.2235023 125.4602333  72.8272763
  96.1640012 126.1994997  72.3079988  96.9549303 126.6522332  72.9019369
  95.6304256 127.0220769  71.8325067  96.7500012 125.3304997  71.2619988
  97.4087171 124.6066994  71.7371277  97.3805020 125.9274426  70.6052981
  95.7020012 124.5524997  70.4029988  95.3640519 125.1681871  69.5729757
  94.8191627 124.3403006  71.0031970  96.2870012 123.1854997  69.8639988
  96.8308722 122.6801093  70.6602631  97.0032099 123.3513373  69.0641132
  95.1710012 122.2204997  69.3559988  94.9404994 122.4202060  68.3146865
  94.2588732 122.3978420  69.9196159  95.5570012 120.7654997  69.5099988
  95.8238288 120.5508821  70.5370252  96.4024902 120.5300238  68.8745710
  94.4240012 119.9404997  68.9439988  93.4680012 119.6884997  69.6749988
  94.6110012 119.5694997  67.6579988  93.6920012 118.6434997  67.0839988
  93.0905210 118.2129460  67.8703238  94.2601993 117.8596259  66.6045357
  92.8180012 119.3584997  66.0919988  92.1922367 118.6573867  65.5649757
  93.7230012 120.1494997  65.0639988  93.1565572 120.2921360  64.1537257
  94.5714768 119.5121777  64.8483721  94.1530012 121.3774997  65.5689988
  94.9190012 122.3634997  64.6219988  93.8280012 123.1764997  64.0419988
  93.0340012 124.2474997  64.5389988  93.2977733 124.5284299  65.5502809
  91.9882089 123.9550617  64.5634020  93.0940012 125.5084997  63.5589988
  94.1077949 125.8875960  63.5865159  92.4231743 126.2862798  63.8942992
  92.7810012 125.2914997  62.1169988  93.9180012 124.5814997  61.4269988
  94.8366791 125.1092456  61.6434455  93.7281231 124.6027814  60.3641754
  93.9510152 123.5579008  61.7688650  91.5330012 124.4664997  62.0329988
  90.7826579 124.9146245  62.6661521  91.7561252 123.4601590  62.3393713
  91.2055116 124.4799965  61.0035011  92.5200012 126.5764997  61.3879988
  91.6963518 127.0917706  61.8593580  92.2695351 126.3570970  60.3609743
  93.4051317 127.1953476  61.4197175  95.7820012 123.2984997  65.3949988
  95.5320012 121.5494997  63.4899988  91.9960012 120.3094997  66.7769988
  90.7240012 120.0884997  66.5929988  90.2140012 119.0374997  66.1469988
  89.9530012 121.3784997  67.0039988  90.4941826 121.7377659  67.8732533
  90.1457491 122.1004306  66.2143337  88.3990012 121.2434997  67.2869988
  87.9103478 122.1808194  67.0446960  87.9668604 120.4998573  66.6249690
  88.0850012 120.8694997  68.7939988  87.0274580 120.6250651  68.8532295
  88.6214526 119.9464211  68.9994515  88.4490012 121.8984997  69.8749988
  89.5319247 121.9557859  69.9682775  88.1150148 122.8944699  69.5944662
  87.8570012 121.5444997  71.2659988  86.8045553 121.2786498  71.1912821
  88.3606048 120.6737113  71.6813203  88.0220012 122.7474997  72.2689988
  88.0324533 123.6496972  71.6593830  87.1172714 122.7932162  72.8687421
  89.2350012 122.7564997  73.2089988  89.0412171 123.5649365  73.9043100
  89.1471574 121.8331531  73.7800159  90.6540012 122.8464997  72.6389988
  91.0317445 123.8136419  72.3431951  91.4790012 121.7954997  72.4909988
  92.4550877 121.9297578  72.0473324  91.1770012 120.3614997  72.9049988
  90.1280944 120.3468723  73.1962058  91.2595817 119.7191042  72.0354072
  91.9990012 119.7734997  74.0499988  91.9147653 118.6878432  74.0190235
  93.0470305 120.0017065  73.8655670  91.6120012 120.2764997  75.4439988
  92.3726454 119.8708787  76.1110812  91.7723438 121.3508041  75.4182280
  90.1680012 119.9694997  76.0459988  89.3894905 120.5690114  75.5794671
  89.8692176 118.9304546  75.9187243  90.2500012 120.2904997  77.5369988
  89.3059000 119.9821853  77.9822013  91.0078420 119.6439022  77.9708351
  90.5090012 121.7494997  77.9419988  91.4292086 122.0986980  77.4770667
  89.7138777 122.3801854  77.5484914  90.6070012 121.9754997  79.4219988
  89.6580805 121.7372513  79.8960265  91.3241701 121.2608134  79.8197490
  91.0520012 123.4234997  79.8409988  91.1864001 123.4893515  80.9164845
  90.3181212 124.1708420  79.5587921  91.9944109 123.6932159  79.3727488
  45.6620012 124.2034997  80.5379988  46.4684672 124.8485227  80.8726431
  45.5245597 123.4291144  81.2871499  44.7532232 124.7984138  80.5095064
  45.9720012 123.5884997  79.1429988  46.9159008 123.0548197  79.2401699
  46.1617947 124.4253230  78.4762761  44.9450012 122.6704997  78.5409988
  45.3259406 122.1113125  77.6865259  44.0734359 123.2136473  78.1810882
  44.4910012 121.6874997  79.6269988  43.7681479 120.9915787  79.2069663
  43.9713532 122.2176136  80.4236487  45.7260012 120.8354997  80.2619988
  45.4029811 120.3034201  81.1531342  46.5140940 121.5155605  80.5810471
  46.3070012 119.8194997  79.2559988  47.1823943 119.3228513  79.6705397
  46.6419199 120.3203130  78.3501332  45.2740012 118.7884997  78.8989988
  44.4710411 119.2025787  78.2919043  44.7988771 118.3588540  79.7798459
  45.9860012 117.6704997  78.1079988  45.2364221 116.9929388  77.7011899
  46.5892977 117.0794199  78.7945423  46.9040012 118.2014997  76.9309988
  47.3276972 117.3419393  76.4160438  47.7448177 118.7371317  77.3699781
  46.2280012 119.0754997  75.9499988  46.2570025 120.1036170  76.3041636
  45.1745037 118.8046955  75.8849053  46.8480012 118.9844997  74.5799988
  46.8073974 117.9452896  74.2607265  47.9044022 119.2357589  74.6575471
  46.1980012 119.8534997  73.4869988  46.9481077 120.1304434  72.7502075
  45.8517910 120.7841026  73.9328539  44.9940012 119.1584997  72.7899988
  44.2919853 118.7658314  73.5236454  45.2953621 118.3148760  72.1753813
  44.2560012 120.1594997  71.9269988  43.9578912 121.0359980  72.4928841
  43.3465403 119.7191838  71.5268801  45.1330012 120.5884997  70.7699988
  45.4701956 119.7256368  70.2098126  45.9998202 121.1277711  71.1331517
  44.2840012 121.2504997  69.6889988  43.1000012 121.2484997  69.8379988
  44.8780012 121.7754997  68.6489988  43.9890012 122.2534997  67.6319988
  43.7117405 123.1992026  68.0727192  43.1044639 121.6435021  67.5193539
  44.6760012 122.4784997  66.2809988  43.8864287 122.8283287  65.6367248
  45.2590012 121.2364997  65.7319988  44.4572557 120.7130340  65.2290187
  45.5584589 120.6613682  66.5992553  46.3890012 121.4234997  64.8319988
  46.2960012 122.2394997  63.4679988  47.4770012 121.4674997  62.7509988
  47.7200012 120.0084997  62.7129988  48.0432605 119.6431041  61.7469871
  46.8179088 119.4581795  62.9643434  48.7350012 119.6424997  63.8099988
  48.5487344 118.5924814  63.9971223  48.5342107 120.1974896  64.7150106
  50.2650012 119.7634997  63.5659988  50.6080012 121.0694997  62.9039988
  49.9782834 121.1911010  62.0333653  51.6435727 121.0275114  62.6008015
  50.4708492 121.8698131  63.6156200  50.9740012 119.7234997  64.8449988
  50.6193315 118.8731748  65.4070229  50.7989856 120.6441680  65.3723595
  52.0263645 119.6113550  64.6276237  50.7720012 118.5704997  62.7229988
  50.5443799 117.6490226  63.2379265  51.8401089 118.6574575  62.5917194
  50.2874052 118.5794693  61.7573274  44.9850012 121.9844997  62.8499988
  46.7990012 123.6084997  63.7179988  45.5930012 123.5374997  66.3949988
  45.0650012 124.8094997  66.4769988  43.8960012 125.1374997  66.5759988
  46.3040012 125.7754997  66.7179988  46.9813625 125.7115493  65.8726320
  45.9909314 126.8152892  66.7702682  46.9970012 125.3194997  68.0689988
  47.0501537 124.2367853  68.1000711  48.0232728 125.6713714  68.1003957
  46.2350012 125.8214997  69.3059988  46.4450633 126.8853543  69.3817690
  45.1816451 125.7379804  69.0500096  46.4650012 125.1394997  70.6679988
  46.5111382 124.0633169  70.5117681  47.4312438 125.4294167  71.0736160
  45.3840012 125.4284997  71.7119988  45.3858107 126.5031084  71.8826265
  44.4323117 125.1989109  71.2366491  45.4470012 124.7034997  73.0519988
  44.6605922 125.1487673  73.6594513  45.1447065 123.6771604  72.8634152
  46.7470012 124.6904997  73.8429988  47.5317203 124.4407309  73.1384341
  46.9247702 125.7210588  74.1474525  46.8130012 123.8014997  75.0749988
  45.8875446 123.2712792  75.2421825  47.8220012 123.5744997  75.9519988
  47.6277815 122.8793296  76.7561302  49.2010012 124.1564997  75.9679988
  49.1341718 125.1034755  75.4350901  49.4679557 124.4014864  76.9899566
  50.3310012 123.3214997  75.3289988  50.1247437 123.1456539  74.2738963
  51.2663214 123.8766694  75.3667032  50.5160012 121.9564997  76.0569988
  49.6524429 121.3745955  75.7348780  51.3799241 121.5129308  75.5697741
  50.6630012 121.8384997  77.5219988  51.5978779 122.3222983  77.7960233
  49.8706412 122.4215873  77.9881099  50.6310012 120.3944997  78.0819988
  49.6782155 119.9293371  77.8362077  51.3913900 119.7858166  77.6003986
  50.8050012 120.3404997  79.6249988  50.9980611 119.2977615  79.8705754
  51.7271243 120.8770906  79.8408534  49.7200012 120.8594997  80.5469988
  49.4608169 121.8866587  80.3026982  48.8148294 120.2788941  80.3830651
  50.1010012 120.7684997  82.0259988  49.2690056 121.0656114  82.6573283
  50.9395533 121.4123048  82.2690756  50.3754655 119.7528696  82.2967493
  26.9290012  42.3494997  81.3249988  26.4533562  42.8396856  82.1687455
  26.4037406  42.6555231  80.4248649  27.9464240  42.7245193  81.2555499
  26.9130012  40.8084997  81.4869988  25.8804198  40.4778080  81.5850887
  27.4044554  40.5561696  82.4227425  27.5510012  40.0844997  80.3659988
  28.5616238  40.4848334  80.2866026  27.0254003  40.4142372  79.4720257
  27.6110012  38.5734997  80.3569988  26.5912910  38.1985027  80.3039093
  28.0075730  38.2342475  81.3126895  28.4220012  37.9474997  79.2209988
  28.0734727  36.9215649  79.1340576  29.4426228  37.8926955  79.5960893
  28.4290012  38.5994997  77.8069988  28.6144501  39.6656168  77.9245570
  27.4304226  38.5092278  77.3847798  29.4800012  37.9954997  76.7929988
  29.5693760  36.9233606  76.9582258  30.4635356  38.4174970  76.9950092
  29.1120012  38.2514997  75.3329988  28.0364751  38.1232279  75.2179292
  29.5772024  37.4846078  74.7164368  29.5210012  39.6544997  74.8009988
  29.5530618  39.5756699  73.7164256  30.5481292  39.8199901  75.1237956
  28.6660012  40.8624997  75.1969988  28.7450815  40.9858194  76.2748844
  27.6234464  40.6196181  74.9932413  29.0170012  42.1474997  74.5059988
  30.0114743  42.4637774  74.8134603  28.3381503  42.9393446  74.8178819
  28.9960012  42.0334997  72.9279988  29.7216312  41.2664112  72.6686625
  29.3997515  42.9726135  72.5542061  27.6720012  41.7604997  72.2279988
  27.1073222  42.6912426  72.2383577  27.1050134  41.0539821  72.8276918
  27.7260012  41.2664997  70.8079988  26.8355946  40.6913793  70.5761418
  28.5723749  40.5936416  70.6984292  27.8760012  42.4394997  69.7569988
  28.7410047  43.0477965  69.9889144  26.9948144  43.0699631  69.7667296
  29.2240012  42.3734997  69.0909988  30.1650012  43.1204997  69.2929988
  29.1440012  41.3944997  68.1849988  30.3030012  41.1494997  67.4259988
  31.1010088  41.3096195  68.1352290  30.4501271  41.7999464  66.5760194
  30.2630012  39.6074997  66.9709988  31.2520583  39.2712507  66.7071871
  29.3040012  39.5124997  65.7049988  29.6424065  38.7403694  65.0274313
  29.3192584  40.4619311  65.1844873  28.0150012  39.2294997  66.1639988
  27.0180012  38.5554997  65.1309988  27.7580012  38.4484997  63.7299988
  27.0270012  37.9344997  62.5969988  26.3128063  38.6305383  62.1767073
  26.4676267  37.0422031  62.8629010  28.0240012  37.4814997  61.5519988
  28.4803575  38.3909999  61.1821376  27.5601010  36.9643477  60.7245162
  29.1480012  36.6164997  61.9949988  28.6390012  35.3824997  62.6249988
  27.9167645  35.6542091  63.3825489  29.4737320  34.8740116  63.0840895
  28.2058021  34.7526773  61.8625164  30.0750012  36.1854997  60.8289988
  30.3489064  37.0645607  60.2660231  29.5572802  35.4706371  60.2147460
  30.9550723  35.7356345  61.2653394  30.0860012  37.2904997  62.9119988
  30.4920339  38.1650279  62.4257685  30.8868004  36.6111304  63.1626539
  29.5639882  37.5814329  63.8121628  26.7490012  37.1964997  65.6699988
  25.7770012  39.3804997  64.9769988  29.8810012  38.7954997  68.1489988
  29.9940012  37.4364997  68.0079988  30.4740012  36.9174997  67.0319988
  29.3770012  36.7264997  69.1149988  28.6191048  37.4123320  69.4793888
  28.8363479  35.8935829  68.6724486  30.3060012  36.2474997  70.2389988
  31.1375412  35.6628895  69.8610660  30.7451657  37.0643432  70.8028553
  29.3930012  35.3044997  71.2379988  28.8660468  35.9587816  71.9278453
  28.6296135  34.8351196  70.6223798  30.1160012  34.2394997  71.9939988
  30.5792795  33.5590229  71.2819380  30.9279221  34.6715082  72.5739600
  29.2030012  33.4054997  72.9479988  28.3286327  33.0455849  72.4096288
  29.7422419  32.5192324  73.2768313  28.7520012  34.1894997  74.1819988
  29.5549620  34.8029613  74.5877324  27.9248321  34.8634343  73.9772518
  28.3090012  33.1794997  75.2339988  27.5907828  32.5226996  74.7571801
  29.1807334  32.5673277  75.4613188  27.7540012  33.7464997  76.5439988
  26.6972431  33.9476014  76.4524863  28.3210012  34.0084997  77.7179988
  27.6909944  34.3914302  78.5079770  29.7840012  33.8334997  78.1179988
  30.4188442  33.4598318  77.3163956  30.2978718  34.6912591  78.5373634
  29.6650012  32.7394997  79.1849988  29.2942034  31.8534037  78.6711429
  30.6857746  32.5109284  79.4853915  28.7910012  33.0054997  80.4749988
  27.7475087  33.0419274  80.1621033  28.8826708  32.1407859  81.1264362
  29.1370012  34.3174997  81.2889988  30.1782853  34.1915362  81.5771057
  29.1197840  35.1197099  80.5533037  28.2530012  34.7564997  82.5809988
  28.2654843  33.9831063  83.3466990  28.6425169  35.6520297  83.0573688
  26.7870012  34.9794997  82.1559988  26.7341403  35.6402064  81.2925433
  26.3337601  34.0399127  81.8452211  25.9650012  35.5604997  83.2449988
  26.2321112  35.0725267  84.1790489  26.2796556  36.5963162  83.3517212
  24.4980012  35.5254997  83.0739988  24.0028833  36.0530813  83.8836807
  24.1148905  34.5106657  83.0651000  24.2021761  35.9980231  82.1416093
 128.6200012  76.0524997  85.5049988 129.6718531  75.8548271  85.6865532
 128.0902004  75.9142919  86.4430818 128.5239045  77.0976894  85.2240079
 128.0670012  75.1434997  84.4229988 128.2646001  74.1301240  84.7682921
 128.7123438  75.3043786  83.5636590 126.5500012  75.2594997  83.9929988
 126.3802143  76.2628449  83.6026146 125.9443927  75.1803325  84.8936330
 126.0550012  74.2484997  82.9949988 125.1383184  74.6294698  82.5502466
 125.7783386  73.3360385  83.5209060 127.0210012  73.9144997  81.8929988
 127.9637431  73.5919399  82.3274706 127.2367589  74.8250324  81.3364526
 126.5130012  72.8074997  80.8989988 125.4308593  72.7094343  80.9635683
 126.9230983  71.8373113  81.1712706 126.9070012  73.1354997  79.4519988
 126.7203630  72.2089677  78.9121147 127.9892406  73.2505836  79.4937539
 126.3210012  74.2734997  78.6919988 125.5953894  74.7477422  79.3515688
 125.7497611  73.8410259  77.8726482 127.2960012  75.3664997  78.1229988
 128.1287593  74.8498937  77.6505867 127.7155323  75.9067058  78.9707888
 126.6730012  76.4024997  77.0999988 126.1669612  77.1696817  77.6819390
 125.8969271  75.8853734  76.5363334 127.6440012  77.0414997  76.1359988
 128.5516687  76.4491214  76.0423584 127.9602477  78.0283185  76.4696225
 126.9900012  77.1604997  74.7309988 126.1578207  77.8575125  74.7931902
 126.5590381  76.1948333  74.4732600 127.9740012  77.5934997  73.5839988
 128.9290413  77.1929791  73.9197570 128.0422961  78.6725183  73.6904346
 127.8120012  77.2474997  72.1029988 127.4315759  76.2348369  72.0185256
 128.8008458  77.2506019  71.6521456 126.9030012  78.1994997  71.2989988
 127.2449081  79.2220836  71.3962747 125.8821348  78.1386229  71.6570418
 126.9380012  77.9524997  69.7689988 126.2630012  77.0974997  69.2109988
 127.9310012  78.6234997  69.2249988 128.0530012  78.4974997  67.8249988
 128.4643018  79.4427241  67.5043050 127.0630231  78.3833396  67.4077423
 128.9710012  77.3414997  67.3899988 129.8704796  77.3735067  67.9822892
 129.3020012  77.5524997  65.9579988 130.1712248  78.1919681  65.8849827
 128.4596648  78.0587609  65.5032966 129.5430012  76.3074997  65.3079988
 128.5110012  75.5374997  64.2919988 129.2840012  74.0944997  63.9039988
 128.7990012  72.9044997  64.5249988 127.7211776  72.8190156  64.4783310
 129.0629282  72.9008712  65.5786241 129.4810012  71.6514997  63.9319988
 129.0525948  70.7795551  64.4099420 130.5409730  71.6759126  64.1399426
 129.3520012  71.4024997  62.4059988 130.1940012  72.4354997  61.6109988
 129.9403760  73.4278111  61.9578796 129.9393220  72.3394049  60.5660087
 131.2417531  72.2152981  61.7504409 129.8260012  69.9644997  62.1069988
 129.3249403  69.2905618  62.7848334 130.8940692  69.9158547  62.2220392
 129.5490868  69.7385088  61.0874187 127.9000012  71.5214997  61.9399988
 127.2936852  70.8097767  62.4802889 127.8486154  71.3114508  60.8822233
 127.5421574  72.5236822  62.1271167 127.2960012  75.3314997  65.0549988
 128.4030012  76.4064997  63.0999988 128.3410012  76.0224997  67.5719988
 129.1440012  75.1754997  68.2399988 130.2870012  75.3574997  68.4839988
 128.3340012  73.9094997  68.4829988 127.3542493  74.1935769  68.8530520
 128.1579786  73.3864646  67.5463252 129.0860012  73.0214997  69.4769988
 128.7133849  72.0094320  69.3632566 130.1311404  72.9910035  69.1858168
 128.9670012  73.4384997  70.9509988 129.6357098  72.8336932  71.5581988
 129.3120922  74.4647025  71.0504218 127.4840012  73.3454997  71.5159988
 126.9171951  74.1025059  70.9771310 127.0820579  72.3848846  71.2031692
 127.2250012  73.5254997  73.0139988 127.8297340  74.3207493  73.4450175
 126.1883662  73.7947731  73.2070290 127.5260012  72.2284997  73.7219988
 126.6501697  71.5959283  73.5860806 128.3387019  71.7461351  73.1861256
 127.8860012  72.2834997  75.2149988 128.7643695  72.9042667  75.3480298
 127.0766597  72.7785616  75.7499998 128.1020012  70.8494997  75.8409988
 127.2983362  70.1313918  75.7777718 129.2250012  70.4524997  76.4379988
 129.2945036  69.4509465  76.8375868 130.5320012  71.3164997  76.6349988
 131.3998151  70.6790666  76.7956195 130.7770148  71.9568077  75.7949661
 130.3280012  72.1824997  77.8979988 129.4870879  72.8720611  77.8341634
 130.1724202  71.5974629  78.8024243 131.6310012  72.9764997  78.0299988
 132.3768792  72.3120611  78.4662261 131.9827179  73.2125895  77.0294684
 131.5520012  74.2834997  78.8739988 132.4778572  74.8431006  78.7609397
 130.7600438  74.9251742  78.4917130 131.3000012  73.9984997  80.3249988
 130.6264989  73.1531996  80.4532660 132.2091903  73.7372976  80.8595767
 130.6200012  75.2724997  80.9959988 129.5911107  75.3644408  80.6527580
 130.5670976  75.1329049  82.0742142 131.3040012  76.5114997  80.7289988
 132.3791164  76.3877848  80.8326173 131.1361509  76.7821453  79.6888593
 130.8380012  77.6604997  81.6149988 131.3143430  78.5911351  81.3215962
 131.0753068  77.4891144  82.6595341 129.7634021  77.8007820  81.5395094
 126.4690012  83.2994997  83.5899988 125.9858448  83.3269948  84.5617153
 126.9917332  82.3510310  83.5066417 125.6896753  83.3130566  82.8329786
 127.3900012  84.4304997  83.4199988 128.1312594  84.3967403  84.2166163
 126.8296671  85.3504445  83.5633210 128.1050012  84.4554997  82.0689988
 128.4370399  85.4600805  81.8072801 127.4363102  84.1416361  81.2699287
 129.2770012  83.5414997  82.0889988 128.9076572  82.5233566  82.1900915
 129.8617172  83.7404929  82.9857790 130.2070012  83.6124997  80.8399988
 131.1026497  83.0250890  81.0252971 130.5375054  84.6422732  80.7147052
 129.5880012  83.1524997  79.6029988 128.5165758  83.2088056  79.7865592
 129.8310107  82.0937843  79.5426238 129.9000012  83.8054997  78.2939988
 129.5601671  83.1333435  77.5081941 130.9846033  83.8522747  78.2063614
 129.3200012  85.1834997  78.0579988 129.7784408  85.8618219  78.7764436
 128.2616813  85.1446385  78.3092612 129.4820012  85.7534997  76.6549988
 130.5402904  85.8565080  76.4248811 129.0646078  86.7590704  76.6205435
 128.8130012  84.8934997  75.5849988 127.7370074  84.8752259  75.7437519
 129.1512914  83.8609422  75.6675450 129.1390012  85.4354997  74.1239988
 130.1949445  85.2779900  73.9149167 128.9809256  86.5119664  74.0871290
 128.2930012  84.7424997  72.9739988 128.2527135  83.6626710  73.0946878
 128.7341339  84.9227109  71.9954305 126.8710012  85.3304997  72.9879988
 126.9496458  86.4163482  72.9882042 126.3703663  85.0615616  73.9139097
 125.9540012  84.9054997  71.7599988 126.3134837  85.3471179  70.8363697
 124.9432323  85.2745281  71.9124993 125.8980012  83.3724997  71.6009988
 125.5731110  82.9074933  72.5230923 126.8755978  82.9840236  71.3412677
 125.2700012  83.1134997  70.2279988 124.3620012  83.7524997  69.7429988
 125.9380012  82.2304997  69.6499988 125.5400012  81.9524997  68.3019988
 124.4621767  81.8928324  68.3160098 125.9432540  80.9914006  68.0176263
 125.9970012  83.0444997  67.3369988 125.4583518  83.9274510  67.6389059
 125.8420012  82.8284997  65.7979988 125.6126941  83.7728858  65.3232840
 125.0104956  82.1520479  65.6443875 127.0390012  82.2754997  65.2559988
 127.2170012  80.7814997  64.8279988 127.8150012  80.9334997  63.3249988
 127.1160012  81.7714997  62.4459988 126.0558020  81.6793459  62.6426570
 127.2776080  81.3881526  61.4426418 127.5460012  83.2684997  62.3859988
 127.1682309  83.7432771  63.2827290 127.1000917  83.7465322  61.5257508
 129.0260012  83.6074997  62.3309988 129.7820012  83.2414997  63.6139988
 129.2528519  83.6616363  64.4582856 130.7701651  83.6726714  63.5529830
 129.8590443  82.1666477  63.6808919 129.6200012  82.7714997  61.2169988
 129.0119098  82.8952607  60.3340366 129.6544181  81.7432378  61.5298293
 130.6188960  83.1402190  61.0338265 129.2390012  85.1324997  62.0879988
 128.7580051  85.4158743  61.1636484 130.2971262  85.3369089  62.0228972
 128.8128926  85.6914423  62.9086386 128.2520012  80.2474997  65.7299988
 125.9000012  80.1254997  64.9619988 127.4220012  83.2174997  67.6039988
 127.8730012  84.4624997  67.7399988 127.1890012  85.4314997  67.5379988
 129.3070012  84.5594997  68.1429988 129.8502724  84.3562491  67.2258845
 129.4817048  85.6091450  68.3657774 129.7830012  83.6494997  69.3169988
 130.5427295  84.1743711  69.8856672 128.9602106  83.4766859  70.0034273
 130.3420012  82.3314997  68.8459988 129.5577160  81.6806824  68.4678617
 131.0295824  82.4898341  68.0188185 131.0810012  81.6524997  69.9579988
 131.8588195  81.0372139  69.5095257 131.5934510  82.4011198  70.5573026
 130.2710012  80.7994997  70.8509988 129.3211038  81.2939723  71.0435935
 130.0320733  79.8824824  70.3158597 130.9630012  80.4134997  72.2469988
 131.9670481  80.0285148  72.0756002 131.0736058  81.2837116  72.8879479
 130.1070012  79.3214997  73.0169988 130.4141530  78.3465411  72.6568690
 130.3951541  79.3655775  74.0664610 128.5760012  79.4944997  72.9179988
 128.1155288  79.0571185  72.0449484 127.7630012  80.1114997  73.7959988
 126.7190871  80.2162020  73.5373660 128.1200012  80.6844997  75.1219988
 129.1987926  80.7283495  75.2616667 127.7492926  81.6869501  75.3046168
 127.5480012  79.7424997  76.1539988 126.4802599  79.9224002  76.2734529
 127.6452318  78.7173754  75.8016844 128.2710012  79.8814997  77.5649988
 129.0683884  79.1391383  77.5993537 128.7581212  80.8521241  77.5982605
 127.3700012  79.7164997  78.8049988 126.7525173  78.8245256  78.7259988
 127.9556305  79.6014684  79.7154333 126.4740012  80.9684997  78.9309988
 127.0931548  81.8636143  78.9280672 125.8211845  81.0564019  78.0668641
 125.6290012  80.9744997  80.2409988 126.2996227  80.8851647  81.0937409
 125.1431614  81.9435786  80.3393840 124.6100012  79.9334997  80.3409988
 123.9443805  79.9540830  79.4816732 125.0969322  78.9611154  80.3149233
 123.7820012  80.0364997  81.6319988 123.0953020  79.1996943  81.7172632
 123.1915873  80.9459801  81.6635873 124.4232768  80.0288226  82.5088384
 131.7180012  62.2914997  80.3399988 132.0891129  62.8495475  81.1939822
 132.2100664  62.6782948  79.4522762 132.0261344  61.2567423  80.4622403
 130.1930012  62.4024997  80.2219988 129.9260086  63.4543036  80.1346698
 129.7514506  62.0516631  81.1508480 129.6120012  61.6434997  79.0509988
 128.5282727  61.7285829  79.1298808 129.8452436  60.5950405  79.2256482
 130.0590012  62.0184997  77.5809988 129.3128175  61.6813894  76.8648867
 130.9847633  61.5118136  77.3127830 130.2420012  63.5184997  77.4219988
 131.2034333  63.8721862  77.7854916 129.4844212  64.0858094  77.9601411
 130.1300012  63.8364997  75.8689988 130.4671649  64.8658792  75.7616892
 129.0638639  63.8415139  75.6524271 130.8500012  62.9584997  74.8409988
 130.2781617  62.0511395  74.6553454 131.8141342  62.6359173  75.2316624
 131.0630012  63.6994997  73.5209988 131.9206497  64.3588011  73.6483236
 130.2025769  64.3471666  73.3632595 131.2710012  62.8444997  72.2989988
 130.3699533  62.3132729  71.9999138 132.0377217  62.0843238  72.4433918
 131.7150012  63.8184997  71.1359988 132.6944971  64.2018356  71.4133799
 131.0352389  64.6697482  71.1629843 131.7580012  63.2414997  69.6839988
 131.8691151  64.1067778  69.0340077 130.7626859  62.8447454  69.4914850
 132.8050012  62.1974997  69.2809988 133.7952342  62.5342849  69.5780396
 132.8268901  62.1084526  68.1964429 132.5190012  60.8324997  69.8729988
 132.5825285  60.8854829  70.9585443 133.2633444  60.1057709  69.5598016
 131.1250012  60.3104997  69.5059988 130.3748852  60.9846126  69.9063022
 130.9833448  59.3530979  70.0003744 130.8880012  60.1264997  68.0239988
 131.6459577  59.4827433  67.5960728 130.9166127  61.0829359  67.5155894
 129.4240012  59.7774997  67.7729988 128.5320012  59.8294997  68.5719988
 129.3010012  59.4324997  66.4779988 127.8990012  59.3794997  65.9939988
 127.3048076  59.0897332  66.8474807 127.7476028  58.6638861  65.1989090
 127.5000012  60.8714997  65.5139988 126.4367260  60.9722363  65.3718998
 128.2500012  61.1914997  64.1729988 127.8398001  60.5529139  63.4024507
 129.2852097  60.9183616  64.3352449 128.1550012  62.5154997  63.8029988
 128.3320012  62.9014997  62.2879988 129.5450012  63.9904997  62.4149988
 130.6970012  63.7784997  63.2259988 131.5890651  63.9657410  62.6426021
 130.7199684  62.7263478  63.4947849 130.7420012  64.5364997  64.5609988
 131.7600708  64.4840091  64.9257288 130.0925162  64.0474898  65.2726276
 130.3530012  66.0584997  64.5969988 131.4150012  66.7934997  63.8599988
 132.3770941  66.4994920  64.2565723 131.2624895  67.8502218  64.0217968
 131.3283150  66.5718491  62.8068732 128.9980012  66.3564997  63.9569988
 128.2672886  65.6781028  64.3699767 129.0809297  66.2437229  62.8908026
 128.7401545  67.3756610  64.2062423 130.2930012  66.4424997  66.0329988
 129.5689752  65.8201654  66.5375466 129.9973429  67.4779307  66.1112212
 131.2663962  66.3097627  66.4827965 128.6690012  61.6804997  61.5049988
 127.0710012  63.5554997  61.9349988 127.8420012  61.7354997  66.5939988
 127.2780012  62.8634997  66.6899988 126.3040012  63.2714997  66.0449988
 128.2440012  63.7044997  67.4829988 128.8152351  63.0437384  68.1269237
 128.9668305  64.1681400  66.8163186 127.4810012  64.7524997  68.2769988
 128.1717212  65.5226552  68.6023098 126.7606559  65.2477155  67.6336505
 126.7730012  64.1704997  69.4949988 126.0054490  64.8545160  69.8480418
 126.2566052  63.2583719  69.2061682 127.7590012  63.8374997  70.6459988
 128.5401538  63.2070928  70.2251737 128.2472358  64.7560838  70.9622775
 127.1680012  63.1144997  71.9119988 127.7911549  63.2374801  72.7954331
 126.1867768  63.5035850  72.1769372 127.0350012  61.6494997  71.5949988
 126.3847917  61.5577502  70.7263730 128.0061196  61.2675613  71.2927239
 126.4750012  60.7404997  72.7669988 125.4162403  60.9576257  72.8473831
 126.5514485  59.7120101  72.4166974 127.1430012  60.8424997  74.0859988
 128.0933913  60.3372634  74.1699563 126.7030012  61.4984997  75.1679988
 127.3886090  61.5013947  76.0031894 125.4230012  62.2364997  75.4249988
 124.8474478  62.2319466  74.5009108 124.8201163  61.7159115  76.1606610
 125.6200012  63.7264997  75.8729988 126.2795297  64.1982522  75.1455535
 124.6531619  64.2148545  75.7672143 126.1580012  63.9744997  77.2879988
 127.0254651  63.3348607  77.4507109 126.5169315  64.9973860  77.3613237
 125.1540012  63.7224997  78.3609988 124.4486956  64.5498928  78.3943089
 124.5710094  62.8352538  78.1201662 125.8240012  63.5344997  79.7639988
 126.5008598  62.6821810  79.7663099 126.4265454  64.3927153  80.0486588
 124.7320012  63.2774997  80.8289988 124.2823292  64.1777296  81.2440460
 123.9054265  62.6578971  80.4859230 125.4720012  62.5244997  81.9689988
 124.7889039  62.0966782  82.6985616 126.0346714  61.6864998  81.5634479
 126.4370012  63.4664997  82.6709988 127.0253807  62.9336644  83.4119206
 125.9187264  64.2696907  83.1838501 127.1265546  63.9177942  81.9631921
 127.8780012  39.4174997  80.0759988 127.3304004  39.1303103  80.9682346
 128.9370277  39.3978046  80.3165501 127.6984918  38.6584919  79.3194965
 127.4370012  40.8364997  79.5679988 127.6075629  41.5853477  80.3395804
 126.3696224  40.8456778  79.3644493 128.2380012  41.2354997  78.2739988
 128.1414262  40.4772161  77.4970764 129.3018048  41.3113143  78.4902047
 127.7550012  42.5864997  77.7259988 128.1852775  43.4081564  78.2943231
 126.6748244  42.6920657  77.8142027 128.1650012  42.7424997  76.2449988
 127.6812039  42.0055151  75.6091002 129.2367655  42.5996011  76.1174601
 127.7710012  44.1814997  75.7479988 128.2648892  44.4081083  74.8048444
 128.1070237  44.9358748  76.4562248 126.2780012  44.2974997  75.5689988
 126.0788546  45.3520121  75.3870259 125.8409194  44.0684680  76.5399437
 125.5620012  43.4324997  74.4579988 125.4247307  42.4230540  74.8435209
 126.2321313  43.3435008  73.6049520 124.2140012  43.9794997  73.9849988
 124.2896886  45.0588021  73.8713384 123.4690940  43.8075030  74.7609546
 123.7220012  43.3594997  72.6609988 124.4324264  43.5526539  71.8601952
 122.7800339  43.8094582  72.3484865 123.5220012  41.8224997  72.8379988
 122.9826512  41.6653031  73.7696274 124.4998468  41.3636918  72.9737974
 122.7770012  41.0974997  71.7239988 121.8410513  41.5864562  71.4648881
 122.5193914  40.0786623  72.0073317 123.7310012  41.0454997  70.4639988
 124.6013187  40.4221789  70.6621669 124.1139926  42.0247781  70.1908590
 122.9890012  40.4514997  69.2719988 122.0232005  40.9297343  69.1460396
 122.7966145  39.3976916  69.4552146 123.7850012  40.5814997  67.9789988
 124.7668528  40.1397435  68.0924004 123.9019550  41.6248598  67.7110615
 123.8500012  42.0564997  67.4669988 122.8710012  42.7934997  67.4909988
 125.1140012  42.3904997  67.0459988 125.2880012  43.8154997  66.7809988
 124.7494625  44.3764484  67.5298476 124.8513938  44.0100546  65.8121260
 126.7900012  44.1984997  66.7999988 126.8969244  45.2527373  66.9950485
 127.3490012  43.8674997  65.4209988 128.2493953  44.4533753  65.2951370
 126.6042412  44.2207353  64.7187579 127.6240012  42.4614997  65.2009988
 126.9450012  41.8654997  63.8959988 125.6290012  42.6594997  63.7219988
 124.9520012  42.4394997  62.5219988 125.1908569  41.5191427  62.0052009
 125.1030806  43.2426435  61.8065046 123.5140012  42.4954997  62.8709988
 123.0777832  42.8449094  61.9437039 123.3053866  43.2179472  63.6468380
 122.7300012  41.2304997  63.2509988 121.4050012  41.7534997  63.7089988
 121.5749238  42.5258460  64.4465227 120.8609678  40.9356487  64.1576049
 120.8604587  42.1253451  62.8540593 122.5950012  40.4234997  61.9999988
 123.5692078  40.3311714  61.5449043 121.8979568  40.9103941  61.3416425
 122.2240565  39.4489342  62.2826988 123.4580012  40.4224997  64.1869988
 124.4093557  40.1486027  63.7557366 122.8888422  39.5310625  64.4039041
 123.6164596  40.9806585  65.0984727 127.8390012  42.1084997  62.7449988
 126.6120012  40.4804997  64.0759988 127.5570012  43.4424997  67.7559988
 127.2620012  43.6974997  69.0879988 126.4290012  44.4924997  69.4589988
 128.1930012  42.9024997  69.9149988 128.0960403  41.8869340  69.5451638
 129.1980509  43.2209457  69.6497174 127.9630012  42.9874997  71.4739988
 128.0960944  44.0188593  71.7816423 126.9287181  42.7405389  71.6914888
 128.8920012  42.0974997  72.2949988 129.9282772  42.3873932  72.1408961
 128.6895212  42.2468731  73.3527106 128.7110012  40.6374997  71.9729988
 128.2015487  40.5525438  71.0149034 129.6775157  40.1556379  71.8470591
 127.9050012  39.8624997  73.0169988 128.3759808  39.9432173  73.9945282
 126.9181941  40.3100678  73.1183679 127.7350012  38.3654997  72.6499988
 127.3763511  38.2590899  71.6273805 128.6776284  37.8278293  72.7017913
 126.7470012  37.7074997  73.5999988 125.7745175  38.1726432  73.4882086
 126.6232497  36.6646683  73.3109758 127.2230012  37.7594997  75.0659988
 128.2876189  37.9289445  75.1245773 126.5860012  37.6504997  76.1759988
 127.0962097  37.7646594  77.1216545 125.1070012  37.3664997  76.3039988
 124.8260023  36.6475586  75.5362850 124.8693745  36.9033361  77.2551528
 124.2480012  38.6244997  76.1209988 124.5070439  39.0611164  75.1571691
 123.2148407  38.2931353  76.0359330 124.3450012  39.7004997  77.2139988
 124.3633250  39.2323557  78.1981799 125.2758077  40.2535850  77.1234459
 123.1460012  40.6884997  77.1389988 122.7814380  40.7556886  76.1163921
 122.3117871  40.3242808  77.7360888 123.5670012  42.1104997  77.6519988
 124.0016161  42.0307120  78.6466513 124.3454021  42.5304599  77.0208487
 122.3760012  43.0784997  77.7329988 122.7262097  44.1078680  77.7843578
 121.7727195  43.0097028  76.8295873 121.4430012  42.8014997  78.9819988
 120.5117560  43.3597022  78.9262545 121.1581241  41.7518443  79.0015366
 122.1590012  43.1384997  80.2839988 121.5502177  42.8651396  81.1405768
 122.3764121  44.1981998  80.3646778 123.1002006  42.6017003  80.3623000
  20.6840012  53.6604997  81.7029988  21.1926824  54.0674469  82.5713687
  21.0558356  54.1828332  80.8262452  20.9716559  52.6167960  81.6105355
  19.1460012  53.8054997  81.8319988  18.9541108  54.8674785  81.9754636
  18.8818506  53.3186293  82.7668762  18.2210012  53.2594997  80.6469988
  18.4572755  53.8274803  79.7472758  17.1918866  53.5081712  80.8985075
  18.2930012  51.8224997  80.3459988  17.7173397  51.2937861  81.1025210
  19.3237578  51.4927385  80.4664324  17.7610012  51.3844997  78.8979988
  18.4349221  51.7671686  78.1357861  16.7990619  51.8637653  78.7238086
  17.6150012  49.9024997  78.7179988  16.7309067  49.4756688  79.1881152
  18.4609083  49.3185604  79.0744157  17.5040012  49.7544997  77.2219988
  18.4380499  50.0912641  76.7760025  16.7338624  50.4385116  76.8681005
  17.1900012  48.3434997  76.7289988  16.2957785  47.9622929  77.2204234
  17.9962311  47.6618885  76.9937318  16.9910012  48.3164997  75.2679988
  17.9392203  48.3647577  74.7368749  16.4096809  49.1733697  74.9297422
  16.2380012  46.9884997  74.8729988  15.1936651  46.9987581  75.1772289
  16.6808949  46.1048651  75.3317623  16.3390012  46.8684997  73.3479988
  16.5640716  47.8670738  72.9795777  15.3408389  46.6301934  72.9846665
  17.3120012  45.9234997  72.7569988  17.4811619  45.0883561  73.4323794
  18.2747717  46.4166347  72.6363313  16.8510012  45.4114997  71.3919988
  15.9174948  44.8610208  71.4958777  17.5672031  44.7173571  70.9613075
  16.6150012  46.5584997  70.4089988  15.6923967  47.0635651  70.6755600
  16.4623657  46.1234531  69.4248601  17.7400012  47.5844997  70.3169988
  18.6786488  47.0978162  70.0843598  17.8461169  48.1135316  71.2566442
  17.5520012  48.5444997  68.9799988  16.6130012  48.5624997  68.1909988
  18.6660012  49.2614997  68.8839988  18.6410012  49.9974997  67.6189988
  18.1685081  50.9102348  67.9493424  18.1303532  49.6338849  66.7391039
  20.1600012  50.2484997  67.3229988  20.5332541  50.8415201  68.1414748
  20.2890012  51.0164997  66.0339988  21.1685820  51.6448291  66.0706126
  19.4151439  51.6483366  65.9353040  20.3710012  50.1054997  64.9369988
  20.3540012  50.7334997  63.5269988  18.8460012  50.6474997  63.0799988
  18.3410012  49.6644997  62.2259988  18.8029168  48.7004402  62.3945582
  18.5541188  49.9321193  61.1950974  16.7780012  49.5624997  62.3099988
  16.5566446  48.7548298  61.6237629  16.2605815  50.4512821  61.9787590
  16.1260012  49.1674997  63.6449988  16.4770012  49.9584997  64.9299988
  17.5533090  50.0064132  65.0227334  16.0627296  49.4255992  65.7729081
  16.0335566  50.9410159  64.8688782  14.6600012  49.3594997  63.4159988
  14.3877769  48.8586554  62.4996129  14.4472985  50.4124527  63.3668299
  14.1412017  48.9118623  64.2513220  16.3750012  47.6684997  63.8759988
  15.9603741  47.1079522  63.0514061  15.8963725  47.3670187  64.7956040
  17.4376911  47.4858719  63.9450796  20.8020012  52.1814997  63.5329988
  21.1690012  49.8844997  62.7009988  20.8330012  49.0074997  67.5009988
  22.1670012  49.0904997  67.4729988  22.7900012  50.1474997  67.4059988
  22.7820012  47.7244997  67.5929988  22.0324793  46.9525164  67.4522444
  23.5433967  47.5407932  66.8390519  23.4030012  47.6894997  69.0519988
  24.1726897  46.9255422  69.0489076  23.9166090  48.6323246  69.2111247
  22.4480012  47.4254997  70.1949988  21.7651822  48.2583337  70.3426461
  21.8276321  46.5603422  69.9742957  23.2180012  47.1544997  71.4679988
  23.8275654  46.2654778  71.3170763  23.9114082  47.9688070  71.6636828
  22.3340012  46.9334997  72.7289988  21.6016689  47.7380845  72.7442853
  21.7743445  46.0179622  72.5474592  23.0120012  46.8314997  74.1129988
  23.4398600  45.8385555  74.2422266  23.8369316  47.5337606  74.1944684
  22.0110012  47.1094997  75.2579988  22.5567876  47.5448116  76.0869745
  21.3167690  47.8743416  74.9124491  21.1890012  45.8584997  75.7179988
  20.4175462  45.5167475  75.0444880  21.3630012  45.1464997  76.8879988
  20.7678531  44.2937642  77.1816842  22.4360012  45.5144997  77.8749988
  23.0784098  44.6508662  78.0383060  23.0790216  46.3056184  77.5057607
  21.8420012  45.9294997  79.2199988  21.2996330  46.8677117  79.1090931
  21.1066796  45.1888019  79.5284269  22.9160012  46.0794997  80.3359988
  23.3894308  45.1085236  80.4815215  23.6952316  46.7466563  79.9779402
  22.3980012  46.5774997  81.6499988  21.6804038  45.8597466  82.0411888
  23.2132020  46.6162026  82.3704393  21.7460012  47.9694997  81.5459988
  22.4933142  48.7571095  81.4699454  21.1174960  48.0707476  80.6654563
  20.9380012  48.2184997  82.7849988  20.4511780  47.3025254  83.1149645
  21.5845697  48.5284994  83.6039513  19.8790012  49.2794997  82.5819988
  20.2973339  50.2466880  82.3146799  19.2186112  49.0058757  81.7620427
  19.0610012  49.4174997  83.8349988  18.2387480  50.1104702  83.6841326
  19.6512433  49.7894098  84.6656840  18.6380607  48.4620916  84.1324173
  69.4590012 124.3214997  83.4099988  69.7643055 123.5747237  84.1363209
  68.7117168 124.9544834  83.8797727  70.3237970 124.9414746  83.1900639
  68.9130012 123.6704997  82.1409988  68.0760159 123.0332438  82.4212908
  69.6820438 123.0098049  81.7500129  68.4340012 124.7024997  80.9969988
  68.0144351 125.5901178  81.4703140  67.6189732 124.2444170  80.4401678
  69.5380012 125.1314997  79.9909988  70.4418646 125.3420744  80.5583956
  69.2431409 126.0743166  79.5328943  69.8720012 124.1234997  78.8999988
  68.9924634 123.5196716  78.6917249  70.6271117 123.4405591  79.2856998
  70.3830012 124.7554997  77.5599988  71.1447652 125.4912275  77.8114688
  69.5572698 125.3107879  77.1202265  70.9580012 123.7574997  76.4979988
  70.1629051 123.0926569  76.1654685  71.7062703 123.1236911  76.9719291
  71.5880012 124.4594997  75.2649988  72.1093718 123.7203738  74.6581079
  72.3450008 125.1660893  75.6002102  70.5830012 125.1784997  74.4139988
  70.2418109 126.0792128  74.9198111  69.6998192 124.5567538  74.2725818
  71.1840012 125.5674997  72.9929988  70.3748108 125.5595991  72.2660548
  71.8791383 124.7871136  72.6844360  71.9050012 126.9274997  72.9639988
  72.5923928 127.0442154  73.7991103  71.2208092 127.7727044  73.0153634
  72.7070012 127.0064997  71.6659988  72.0623178 126.7830658  70.8194294
  73.4788132 126.2390692  71.6711579  73.3720012 128.3644997  71.4749988
  73.7989065 128.6575068  72.4326786  72.6080882 129.1016679  71.2441440
  74.4970012 128.4464997  70.4029988  75.3591877 127.8668560  70.7160364
  74.8275964 129.4777638  70.3119331  74.0300012 127.9534997  69.0099988
  73.1489852 128.4962139  68.6917013  73.7941372 126.8964616  69.0432831
  74.0730012 126.4854997  68.8329988  74.8380012 125.7074997  69.4049988
  73.2220012 126.1414997  67.9169988  73.1670012 124.8144997  67.4039988
  73.3243033 124.1881549  68.2691058  73.9726153 124.6557736  66.7018706
  71.7610012 124.4914997  66.7389988  71.8654179 123.5151411  66.2954730
  71.3900012 125.5384997  65.6379988  70.6213624 125.1025831  65.0143224
  72.2842703 125.6742480  65.0426501  70.9570012 126.7744997  66.1639988
  71.0910012 128.0474997  65.2319988  70.4650012 127.5674997  63.8639988
  69.0310012 127.1944997  63.8249988  68.3577593 127.8953085  64.3012354
  68.8490488 126.2291420  64.2884370  68.6700012 127.0034997  62.3359988
  68.9706626 127.9189555  61.8422455  67.6318615 126.8103441  62.1072327
  69.4570012 125.8954997  61.6649988  69.4840012 124.6884997  62.5659988
  69.8113229 124.9986229  63.5488609  70.1885607 123.9811721  62.1544365
  68.4990635 124.2468616  62.5898869  68.7140012 125.5994997  60.4539988
  68.5183671 126.5262784  59.9367730  67.8011397 125.0954064  60.7165704
  69.3331749 124.9579818  59.8437728  70.8530012 126.3214997  61.2399988
  70.7782931 127.1579229  60.5611049  71.3404286 125.4954345  60.7443368
  71.4238368 126.6074803  62.1116620  70.2180012 129.0764997  65.7979988
  72.4860012 128.3774997  65.0369988  70.7270012 124.4484997  67.7009988
  69.5830012 123.9664997  67.4019988  69.3130012 123.4074997  66.2899988
  68.7400012 123.9134997  68.6469988  68.6165947 122.8677288  68.9090812
  69.2888959 124.3636923  69.4703749  67.3920012 124.6144997  68.4329988
  66.8503906 124.2068674  67.5865031  66.7279164 124.5226935  69.2865772
  67.7060012 126.1324997  68.1609988  68.3818852 126.1815393  67.3110400
  66.7752405 126.5901508  67.8349544  68.2860012 126.9734997  69.3619988
  67.6588431 126.9104577  70.2493569  69.2836340 126.6731204  69.6729700
  68.3290012 128.4234997  68.9089988  68.9104840 128.4151166  67.9893747
  67.3044238 128.6462894  68.6174734  68.8130012 129.4994997  69.7809988
  69.8539660 129.3380271  70.0567155  68.7718921 130.4695763  69.2935776
  67.9430012 129.5524997  71.0679988  66.8932896 129.5860903  70.8004968
  68.0860720 128.6328118  71.6337292  68.3250012 130.7414997  71.9599988
  68.4157935 131.7192328  71.5112798  68.5540012 130.6484997  73.3389988
  68.8993289 131.4856417  73.9285341  68.3400012 129.3904997  74.1289988
  67.4793045 128.8742011  73.7072665  69.1820339 128.7161892  74.0196040
  68.0670012 129.6364997  75.6439988  67.3788545 130.4736074  75.7553978
  67.5553903 128.7669980  76.0522636  69.3480012 129.9074997  76.4699988
  69.8340836 130.7828463  76.0391867  69.0435242 130.1922638  77.4733467
  70.3810012 128.7314997  76.5519988  69.9096060 127.8776995  77.0336179
  70.6450839 128.4064794  75.5471569  71.6100012 129.1064997  77.2809988
  72.3107939 128.2737464  77.2797559  72.1202168 129.9244567  76.7797490
  71.3160012 129.4934997  78.7889988  71.1391980 130.5674042  78.8077791
  70.3677598 129.0269412  79.0497584  72.3540012 129.1454997  79.8879988
  73.3421646 129.3189186  79.4692220  72.2230759 129.9006111  80.6599950
  72.3140012 127.7824997  80.5319988  73.0383529 127.7157116  81.3381767
  72.5417870 126.9927105  79.8241233  71.3329400 127.5772134  80.9509468
  81.3640012  19.8574997  79.9119988  81.2313770  19.3132163  80.8418350
  80.8704434  19.2943625  79.1251905  80.8475150  20.8084987  80.0092357
  82.8550012  20.0674997  79.5949988  83.3709497  19.1127972  79.5081463
  83.3451012  20.6070461  80.4009178  83.0010012  20.8464997  78.2679988
  83.9994257  21.2831112  78.2468371  82.3070651  21.6836860  78.3097466
  82.7650012  20.1014997  77.0039988  81.7702046  19.6847861  77.1453478
  83.4553444  19.2617651  77.0670714  82.8440012  20.7254997  75.5879988
  82.6402521  19.9489511  74.8551743  83.8726536  21.0407579  75.4211112
  81.9140012  21.8974997  75.3339988  81.9896598  22.5652789  76.1902485
  80.8961293  21.5134348  75.3368254  82.1480012  22.6914997  74.0539988
  83.0495318  23.2850370  74.1944481  81.3287578  23.4019566  73.9524052
  82.2740012  21.8814997  72.7679988  81.2881085  21.5171056  72.4821954
  82.8794799  20.9984042  72.9635030  82.9080012  22.6944997  71.5499988
  82.4627535  23.6862955  71.5095457  82.6433843  22.2045748  70.6137677
  84.4200012  22.8244997  71.6379988  84.7878891  21.9338345  72.1426501
  84.6363600  23.6620890  72.3006163  85.1890012  23.0294997  70.2749988
  86.1635647  23.4866569  70.4323971  84.6533533  23.6871861  69.5926075
  85.3990012  21.6574997  69.5999988  84.4444427  21.2136097  69.3279715
  85.8686412  20.9652928  70.2963880  86.3130012  21.7904997  68.3329988
  87.2506860  22.2761070  68.5979227  85.8535068  22.4121532  67.5696602
  86.6330012  20.4664997  67.7499988  85.7314634  19.8683327  67.6677133
  87.3008359  19.9376059  68.4248025  87.2990012  20.5594997  66.3829988
  88.1843278  21.1804753  66.4342526  86.6158827  20.9869640  65.6586422
  87.5470012  19.1234997  65.9449988  87.5340012  18.1724997  66.6659988
  87.8830012  19.1964997  64.6139988  88.0240012  17.9374997  63.9719988
  88.2650757  17.2607698  64.7778411  88.8374821  17.9441495  63.2610863
  86.6990012  17.5134997  63.2939988  86.8737459  16.5840817  62.7777231
  86.1590012  18.5344997  62.3369988  86.5377769  18.3349830  61.3437601
  86.5162223  19.5057166  62.6559279  84.7180012  18.5024997  62.3429988
  83.7470012  19.7594997  62.4129988  83.0170012  19.3004997  63.7059988
  81.9730012  19.8544997  64.3999988  81.3826524  20.5375410  63.8032309
  82.3440198  20.4261334  65.2457984  81.0510012  18.7024997  65.0409988
  80.1622088  19.2285142  65.3659692  81.5436112  18.2848976  65.9072094
  80.5370012  17.4704997  64.1989988  81.7370012  16.5954997  63.8359988
  82.4984150  17.2211663  63.3908873  81.4071597  15.8583638  63.1191059
  82.0923038  16.1005909  64.7273698  79.6560012  16.6714997  65.1599988
  78.9538239  17.3473670  65.6235335  80.2806158  16.1907786  65.8915272
  79.1280615  15.9321216  64.5752794  79.8110012  17.9384997  62.9849988
  78.9819929  18.5621652  63.2847798  79.4416013  17.0824583  62.4405846
  80.4850740  18.5027837  62.3567915  84.4920012  21.0004997  62.7469988
  82.7400012  19.8644997  61.3519988  85.7860012  17.2394997  64.3679988
  85.4230012  15.9634997  64.6269988  85.7890012  15.0514997  63.8919988
  84.5850012  15.8334997  65.8749988  83.7546741  15.1764600  65.6374933
  85.1618597  15.3192939  66.6396776  84.1220012  17.1644997  66.3569988
  85.0138827  17.7748200  66.4470954  83.5410954  17.5993051  65.5498274
  83.3130012  17.2394997  67.6939988  82.2971688  16.8729793  67.5698961
  83.7721501  16.6094067  68.4517785  83.2920012  18.6504997  68.1949988
  84.1682540  18.7931817  68.8247040  83.4056469  19.3336105  67.3567588
  82.0810012  19.0444997  68.9779988  81.9818408  20.1243695  68.8888390
  81.2275455  18.6177471  68.4546664  81.9980012  18.6444997  70.4639988
  82.7556976  19.2113666  71.0027557  81.0377294  18.9623877  70.8604118
  82.1860012  17.0944997  70.7679988  81.4937061  16.4909705  70.1926206
  83.1858480  16.7669539  70.4862788  82.0030012  16.8674997  72.2559988
  81.0904425  16.3954507  72.5876016  82.9120012  17.2024997  73.2139988
  82.5634624  16.9870311  74.2138508  84.2870012  17.8004997  73.1609988
  84.3382932  18.5419874  72.3655203  84.5653088  18.3150200  74.0739581
  85.3290012  16.6884997  72.8569988  84.9399482  16.0474968  72.0667721
  86.2225915  17.1600669  72.4525491  85.7150012  15.8324997  74.0649988
  84.7968193  15.5762676  74.5935762  86.1249302  14.8960241  73.6969286
  86.7460012  16.4984997  75.0919988  87.6647861  16.7070940  74.5484294
  86.3469288  17.4643422  75.3969158  87.0590012  15.6504997  76.3579988
  87.7367219  14.8639581  76.0314456  87.6405074  16.2880325  77.0183224
  85.9120012  14.9914997  77.1389988  85.3886822  14.3111637  76.4695488
  86.3463708  14.3709836  77.9207384  84.8720012  15.9424997  77.7869988
  85.2624353  16.9540595  77.7081132  84.0025349  15.9091344  77.1341373
  84.4130012  15.6804997  79.2379988  83.6238205  16.3697256  79.5230083
  85.2237750  15.8031181  79.9481758  84.0268269  14.6712175  79.3491747
  23.4070012  99.2294997  80.5719988  24.3129902  99.7441569  80.8765326
  23.1853409  98.4766050  81.3228691  22.5964782  99.9530684  80.5826215
  23.5600012  98.6174997  79.2249988  24.4047436  97.9315285  79.2575060
  23.8340103  99.4063071  78.5296457  22.3390012  97.8794997  78.7199988
  22.1215848  97.0559139  79.3999735  22.5916495  97.4229037  77.7650852
  21.0430012  98.7504997  78.5289988  20.8062218  99.2869824  79.4451711
  20.1756852  98.1293789  78.3106459  21.2350012  99.7704997  77.3989988
  21.5898603  99.3099243  76.4805662  21.9702098 100.5283059  77.6646358
  19.9590012 100.4114997  77.1409988  19.5291468 100.7762729  78.0721179
  19.2509363  99.6883776  76.7418552  20.1010012 101.5954997  76.1419988
  20.8672714 102.2479169  76.5566693  19.1655167 102.1503269  76.1991430
  20.4270012 101.3024997  74.6709988  19.8240608 100.4533347  74.3518864
  21.4643749 100.9788229  74.6095736  20.2050012 102.4704997  73.7059988
  20.8242390 103.3034206  74.0320788  19.1724069 102.8028751  73.8052596
  20.4950012 102.1694997  72.2509988  19.8835612 101.3210573  71.9516901
  21.5314337 101.8439132  72.1659696  20.2590012 103.3424997  71.3049988
  21.1091545 104.0213041  71.3028085  19.3975290 103.9380620  71.6021507
  20.0520012 102.8344997  69.8969988  19.5744615 103.5816413  69.2677498
  19.3966804 101.9655126  69.8877135  21.4370012 102.4234997  69.2899988
  21.9676910 101.7989553  70.0066330  22.0593640 103.2995567  69.1304290
  21.3260012 101.6504997  67.9869988  21.0638082 102.3364105  67.1881708
  20.5013443 100.9491531  68.0826339  22.6000012 100.8624997  67.5849988
  22.8998787 100.1945923  68.3825037  23.4159028 101.5446184  67.3774233
  22.5940012  99.4664997  68.2429988  21.9620012  99.2664997  69.2959988
  23.1420012  98.6084997  67.4269988  22.9760012  97.1894997  67.6239988
  22.9546531  97.0707012  68.6967957  23.8435550  96.6806548  67.2295127
  21.6790012  96.6354997  66.9989988  21.4975033  95.6272678  67.3327966
  21.8290012  96.6614997  65.4309988  20.9567524  96.2000402  64.9882367
  22.6991898  96.0657768  65.1850902  21.9910012  98.0284997  64.9369988
  21.7110012  98.3214997  63.3849988  20.1760012  98.5814997  63.2569988
  19.3750012  98.9684997  64.3299988  19.9792455  99.1084859  65.2168367
  18.6885753  98.1559864  64.5500870  18.4400012 100.2494997  64.0599988
  18.1872519 100.5936123  65.0549627  17.5344553  99.9375410  63.5599533
  18.9080012 101.4244997  63.3419988  19.6200012 101.1014997  61.9939988
  20.3827295 100.3569248  62.1761738  20.0778981 102.0103617  61.6328891
  18.8840339 100.7588354  61.2822050  17.7040012 102.2624997  63.0019988
  17.1158779 102.3964544  63.8969184  17.1396722 101.7695858  62.2306761
  18.0645884 103.2178161  62.6489487  19.8520012 102.2244997  64.2399988
  19.3305550 102.5060883  65.1427079  20.1731343 103.1119782  63.7156846
  20.7125915 101.6200315  64.4878647  22.4100012  99.5664997  63.0649988
  22.0860012  97.1364997  62.5699988  20.5710012  97.4464997  67.4409988
  19.4210012  96.9194997  67.3319988  19.0810012  95.8334997  66.8719988
  18.2850012  97.8314997  67.9269988  18.8031194  98.6238425  68.4573754
  17.7866041  98.3113991  67.0884262  17.2550012  97.0874997  68.8449988
  16.2786332  97.5584360  68.8136062  17.1006855  96.0563804  68.5433155
  17.7910012  97.1354997  70.2859988  18.7803603  96.6853695  70.3003268
  17.9300870  98.1815816  70.5475954  16.8690012  96.4574997  71.3849988
  15.9090904  96.9634468  71.2995890  16.7027540  95.4333804  71.0598163
  17.2760012  96.4474997  72.8509988  16.4279948  96.1687094  73.4731419
  18.0321053  95.6807246  73.0082997  17.8340012  97.7884997  73.3259988
  18.9129596  97.6935196  73.2140684  17.5126760  98.5202501  72.5900575
  17.5090012  98.3384997  74.7529988  18.1101873  97.8471715  75.5091415
  17.7463744  99.3997488  74.8142386  16.0710012  98.1614997  75.0199988
  15.4598043  98.8909039  74.5101342  15.4570012  97.2794997  75.7439988
  14.3784864  97.2966379  75.8082027  16.0920012  96.1944997  76.5289988
  15.3722287  95.3970949  76.7059003  16.9332140  95.7367926  76.0205244
  16.5570012  96.7424997  77.9039988  17.0611733  97.7061816  77.8420910
  15.7364768  96.8741495  78.6067556  17.5310012  95.6884997  78.4559988
  17.0132550  94.7357404  78.5668848  18.3355535  95.5161092  77.7464348
  18.1310012  96.1074997  79.8269988  18.3996644  97.1609516  79.7922981
  17.3742860  96.0119273  80.6037439  19.4080012  95.2314997  80.2249988
  19.1745120  94.1684516  80.2237543  20.2277006  95.3561046  79.5227228
  19.8560012  95.6044997  81.6099988  20.1266283  96.6576657  81.6598512
  19.0480397  95.4663089  82.3261940  21.0510012  94.7754997  82.0639988
  20.8014927  93.7201718  82.1410937  21.8398295  94.8393305  81.3176821
  21.6100012  95.2754997  83.4249988  22.5123893  94.7343781  83.6932376
  20.8971395  95.1385230  84.2311046  21.8587554  96.3320432  83.3805222
 117.3820012 103.7614997  84.4429988 118.1801158 103.6850921  85.1748484
 116.4505986 103.5076186  84.9408177 117.3164078 104.8008045  84.1329101
 117.6310012 102.8664997  83.2729988 117.7179952 101.8378797  83.6187964
 118.5898069 103.1215835  82.8297858 116.5050012 102.9524997  82.1999988
 116.4149346 103.9428696  81.7539220 115.5255272 102.7175149  82.6118045
 116.8380012 101.9024997  81.0719988 116.7623304 100.8723168  81.4129492
 117.8355371 102.0072460  80.6481400 115.7700012 102.1384997  79.9499988
 115.8220310 103.1590486  79.5793969 114.7694865 102.0132204  80.3606574
 115.9610012 101.1594997  78.7579988 115.2833097 101.4389563  77.9533527
 115.6698466 100.1577602  79.0667446 117.4130012 101.1254997  78.2159988
 118.0424805 100.5544547  78.8960233 117.8199254 102.1356510  78.2006058
 117.5060012 100.5314997  76.8359988 117.0757742 101.1432373  76.0440815
 117.0630356  99.5428503  76.7309369 119.0640012 100.4274997  76.6239988
 119.2293027  99.6691121  75.8617228 119.4830998 100.0272014  77.5463299
 119.7870012 101.6554997  76.2549988 119.5979377 102.3798060  77.0442607
 119.3103209 102.0500614  75.3580451 121.3790012 101.5214997  75.9959988
 121.7962117 100.7706287  76.6635834 121.8831177 102.4553285  76.2388118
 121.7280012 101.1104997  74.4989988 121.3776188 100.0888673  74.3736254
 122.8142365 101.0681196  74.4445308 121.2080012 101.9994997  73.3389988
 120.1734957 101.7438498  73.1160782 121.7685747 101.8234701  72.4251909
 121.2630012 103.4954997  73.6799988 122.2833857 103.8516641  73.5835244
 120.9842262 103.6186427  74.7231729 120.3460012 104.3644997  72.8269988
 119.3257972 104.0064089  72.8817328 120.6654460 104.3474702  71.7917529
 120.7470012 104.1934997  71.2989988 121.8480012 104.0694997  70.8069988
 119.5760012 104.0794997  70.6029988 119.7720012 103.8574997  69.1729988
 120.8315216 103.9332093  68.9802647 119.2568948 104.6323198  68.6238984
 119.2410012 102.4234997  68.7629988 119.8402935 101.7076042  69.3008057
 119.3810012 102.1854997  67.2289988 119.0897365 101.1731064  66.9839970
 120.4211489 102.3218692  66.9605195 118.5570012 103.1274997  66.5299988
 117.7360012 102.6564997  65.2429988 118.9620012 102.4634997  64.2129988
 119.8470012 103.5494997  63.8369988 120.7057005 103.1514145  63.3122582
 120.2251698 103.9968511  64.7516911 119.2000012 104.7284997  63.0409988
 119.9871939 105.4617835  62.9190505 118.3565315 105.2013757  63.5229990
 118.7300012 104.3764997  61.6149988 117.5820012 103.3364997  61.4889988
 117.8433935 102.4618293  62.0686191 117.4886199 103.0678609  60.4472631
 116.6621814 103.7866378  61.8310869 118.1990012 105.6924997  61.0609988
 118.9412309 106.4583191  61.2263153 117.2719383 105.9310659  61.5509075
 118.0375316 105.5553103  60.0015632 119.8280012 103.9244997  60.7679988
 120.5802893 104.6975962  60.7183371 119.4511327 103.7219801  59.7767339
 120.2561146 103.0233502  61.1828283 117.1650012 101.2784997  65.6079988
 116.8950012 103.8084997  64.7749988 117.8150012 102.2384997  69.0969988
 117.5620012 101.6464997  70.2679988 118.4070012 101.2984997  71.0449988
 116.0740012 101.5974997  70.4189988 115.6154596 102.0637379  69.5530227
 115.7182196 100.5702400  70.4270081 115.6970012 102.3374997  71.7539988
 114.6378567 102.1860279  71.9310027 116.2113935 101.8496969  72.5758759
 115.9810012 103.7534997  71.7689988 117.0544364 103.9231333  71.7938013
 115.6249479 104.1993723  70.8435320 115.3060012 104.4714997  72.9509988
 114.2310757 104.3005293  72.9542085 115.6703286 104.1338598  73.9181941
 115.5550012 105.9844997  72.8269988 116.5495509 106.2958340  73.1397970
 115.4278089 106.3531201  71.8109662 114.4970012 106.6584997  73.7339988
 114.3977596 107.6931546  73.4094357 113.5344477 106.1874693  73.5552830
 114.7850012 106.6254997  75.2269988 113.8969093 106.9141520  75.7770466
 115.0099316 105.6017384  75.5230820 115.9640012 107.5054997  75.5919988
 116.0018737 108.4465883  75.0642945 116.9470012 107.2624997  76.4909988
 117.7337620 107.9807387  76.6719686 117.0550012 106.0214997  77.3129988
 116.3527024 106.0941201  78.1416867 116.7683977 105.1412399  76.7484793
 118.4930012 105.8154997  77.9049988 118.5149978 104.8085834  78.3201382
 119.1685283 105.8065249  77.0517453 119.0150012 106.8144997  78.9529988
 119.1618794 107.7604493  78.4317377 118.2080839 106.9802797  79.6614516
 120.3050012 106.4504997  79.7189988 120.5891310 107.3088761  80.3236516
 120.0769212 105.6479129  80.4182263 121.4780012 106.0264997  78.8289988
 121.1929729 105.0946649  78.3441970 121.5702345 106.7594455  78.0321874
 122.7990012 105.8164997  79.4839988 123.5257124 105.5326990  78.7248999
 123.1413380 106.7670473  79.8890896 122.8310012 104.7814997  80.5929988
 123.7453608 104.8492537  81.1771826 122.0191376 104.9756730  81.2904851
 122.6760012 103.3224997  80.0319988 122.6124600 102.6026511  80.8424614
 123.5162310 103.0364610  79.4083509 121.7739916 103.2278459  79.4340352
 106.5560012 118.2714997  79.8869988 105.7345835 118.9237058  80.1668724
 107.2485977 118.8512581  79.2836910 107.0744029 117.9836988  80.7975163
 106.0420012 117.0094997  79.1069988 105.4988036 117.3556090  78.2293042
 105.3139818 116.5065907  79.7377795 107.1140012 116.0384997  78.6759988
 107.7920187 115.8830102  79.5150722 107.7027948 116.5212389  77.8985311
 106.6340012 114.6664997  78.1469988 106.0478653 114.1714196  78.9180957
 107.4895689 114.0202255  77.9571582 105.8020012 114.7674997  76.9029988
 105.2189840 115.6784174  77.0120533 105.0951226 113.9422833  76.9715963
 106.4290012 114.7594997  75.5729988 106.8015363 115.7716386  75.4259978
 105.6087403 114.6321839  74.8697635 107.5570012 113.7424997  75.2349988
 107.2042907 112.7132122  75.2044598 108.3749946 113.7626028  75.9538260
 108.1110012 114.1524997  73.7949988 108.2714407 115.2290983  73.7544332
 107.3658854 113.9274071  73.0341967 109.4150012 113.4354997  73.4499988
 109.1851545 112.3741933  73.3841172 110.0768036 113.5500748  74.3075925
 110.1210012 113.8564997  72.2339988 111.0733105 113.3307565  72.2336402
 110.3558881 114.9134147  72.3572371 109.4030012 113.6504997  70.8819988
 108.7442510 114.4907414  70.6732334 108.7673285 112.7670857  70.9070613
 110.3890012 113.5234997  69.7419988 111.0509368 112.7162489  70.0459830
 110.9788423 114.4366796  69.7954762 109.9570012 113.3264997  68.3579988
 110.7128089 113.5969531  67.6225658 109.0511788 113.8532638  68.0711549
 109.6980012 111.7264997  68.2449988 108.9044934 111.4370108  68.9260909
 110.5964562 111.2090853  68.5708099 109.3400012 111.2414997  66.8029988
 110.1032075 111.5489064  66.0993950 108.3900740 111.6580560  66.4896488
 107.8370012 111.4544997  66.4189988 106.9390012 111.4464997  67.1939988
 107.7790012 111.7904997  65.1339988 106.4510012 112.1564997  64.7409988
 105.8349946 111.5723633  65.4079190 106.2324077 111.8752355  63.7210481
 106.1940012 113.7074997  64.9709988 105.1623411 113.9357281  64.7600882
 107.1180012 114.4034997  63.9189988 106.6552763 115.3248592  63.5922215
 107.2015776 113.7369777  63.0696764 108.4130012 114.6634997  64.4799988
 109.7080012 114.3284997  63.6249988 110.2960012 115.7584997  63.3949988
 110.4590012 116.7214997  64.4419988 111.5021553 116.9941180  64.5352598
 110.1793132 116.2484991  65.3789310 109.5650012 117.9764997  64.3389988
 109.7779575 118.6342512  65.1722223 108.5288114 117.6748165  64.3907204
 109.6860012 118.8264997  63.1059988 108.8340012 118.2814997  61.9699988
 109.0589501 117.2314742  61.8428041 109.0932333 118.8204649  61.0708796
 107.7926034 118.4452571  62.2032179 109.1190012 120.2334997  63.4299988
 109.5704430 120.5823104  64.3461021 108.0492343 120.1690765  63.5184211
 109.3879332 120.8863387  62.6122129 111.1380012 118.8574997  62.5859988
 111.7852977 119.2394997  63.3613472 111.1911661 119.5008116  61.7205664
 111.4446133 117.8581427  62.3126680 110.7380012 113.5494997  64.4259988
 109.3970012 113.7004997  62.3819988 106.4340012 114.1364997  66.3909988
 106.1300012 115.3384997  66.7319988 105.5540012 116.1744997  66.0419988
 106.6500012 115.5644997  68.1519988 106.1760937 114.8132441  68.7753604
 107.7128202 115.3362630  68.1671920 106.3790012 117.0074997  68.6709988
 105.3247519 117.2237355  68.5373515 106.5577789 117.0354837  69.7411802
 107.2270012 118.1224997  67.9589988 107.0324581 118.1062897  66.8896325
 106.8924103 119.0944043  68.3132804 108.7310012 117.9984997  68.2209988
 108.8836833 117.7438837  69.2681687 109.1499086 117.1773877  67.6443762
 109.5170012 119.2624997  67.9169988 109.2404146 119.7219651  66.9702716
 109.3752524 120.0276262  68.6778336 110.9880012 118.8794997  67.8809988
 111.0929898 118.1956102  67.0401815 111.5397259 119.7773026  67.6166737
 111.6270012 118.2614997  69.1139988 111.0592539 117.3862818  69.4076598
 112.6216672 117.9066314  68.8474394 111.7560012 119.2554997  70.2799988
 112.3389014 120.1562853  70.1601382 111.1490012 119.0654997  71.4829988
 111.3308488 119.8721768  72.1785658 110.2780012 117.9654997  72.0319988
 109.2855876 118.1635107  71.6305913 110.6037770 117.0310598  71.5888586
 110.1520012 117.7884997  73.5959988 109.8427330 118.7215549  74.0655369
 109.3765670 117.0608514  73.8277072 111.4750012 117.3244997  74.2059988
 111.8825141 116.5562259  73.5488872 112.1695282 118.1590246  74.1647168
 111.4140012 116.7924997  75.6119988 110.6583215 116.0101952  75.6216459
 112.3634002 116.3009705  75.8172437 111.1220012 117.8214997  76.7269988
 111.8160831 118.6528241  76.6186481 110.1311537 118.2402987  76.5738532
 111.2480012 117.2904997  78.1409988 110.6112468 116.4137585  78.2446904
 112.2681090 116.9421881  78.2923031 110.9110012 118.2514997  79.2279988
 111.3941567 119.1975358  78.9967166 109.8425156 118.4355739  79.1398604
 111.2190012 117.8664997  80.6479988 110.8442683 118.6145830  81.3401084
 112.2857557 117.7701842  80.8197518 110.7565384 116.9175288  80.9043647
  97.9650012  21.1464997  83.9689988  97.3540283  21.9166177  84.4294978
  98.4590743  21.5865667  83.1075914  98.7353483  20.8655815  84.6819239
  97.1180012  19.9304997  83.5629988  96.3437824  20.3070168  82.8966481
  96.6107486  19.6057529  84.4674590  97.8230012  18.7394997  82.8959988
  97.3041123  17.8522007  83.2584678  98.8146204  18.7122374  83.3433455
  97.9750012  18.6494997  81.3649988  98.4460508  19.5361706  80.9464575
  97.0238554  18.5401308  80.8462828  98.8750012  17.4154997  81.0579988
  98.5072831  16.4991257  81.5125482  99.8923227  17.5501053  81.4217338
  98.9020012  17.2374997  79.5249988  97.8687538  17.0772081  79.2224702
  99.4221698  16.3001942  79.3393646  99.5330012  18.3634997  78.6359988
 100.5792634  18.4552812  78.9217986  99.0577694  19.3028264  78.9153733
  99.4340012  18.1734997  77.0579988  98.4523287  18.4572985  76.6808669
  99.5823244  17.1349247  76.7680916 100.5220012  19.0574997  76.3759988
 101.3777329  19.2697908  77.0133343 100.1519808  20.0229500  76.0331175
 100.9860012  18.2244997  75.1539988 100.1260270  17.8535457  74.6007027
 101.5423537  17.3455716  75.4786313 101.8620012  19.0604997  74.2489988
 102.2816811  18.4263469  73.4710142 102.7091868  19.4519884  74.8094817
 101.0920012  20.2654997  73.5519988 101.0354975  21.0835044  74.2660678
 100.0672165  19.9428076  73.3777684 101.6690012  20.7514997  72.2539988
 102.7551329  20.6790188  72.2362106 101.4294025  21.7864794  72.0266587
 101.1130012  19.8474997  71.1319988 101.0014413  18.8345003  71.5044659
 101.8450354  19.8087386  70.3296800  99.7230012  20.3394997  70.5269988
  99.8017956  21.3615611  70.1788280  98.9445109  20.2873045  71.2788615
  98.8860012  19.2564997  69.9369988  97.7450012  18.9684997  70.3299988
  99.5310012  18.6314997  68.9039988  98.7250012  17.6454997  68.1949988
  98.0583757  17.1602698  68.8918663  99.4479684  16.9261431  67.8385768
  97.9300012  18.2474997  67.0309988  97.3207432  17.5183660  66.5229998
  98.9850012  18.8434997  66.0389988  99.4932243  18.0003850  65.5910391
  99.6855880  19.3752632  66.6706557  98.4720012  19.7054997  65.0339988
  99.2640012  20.0034997  63.6899988  98.1320012  20.4464997  62.6689988
  97.0310012  19.6154997  62.4129988  97.3337465  18.5764945  62.4145841
  96.6683021  19.8291022  61.4116895  95.8500012  19.8344997  63.3149988
  96.1924533  19.5705631  64.3076281  95.0032627  19.2125045  63.0629410
  95.3050012  21.2604997  63.4279988  94.8270012  21.8744997  62.0959988
  95.6130579  21.7615824  61.3620380  94.6335137  22.9236514  62.2631610
  93.9160967  21.3821965  61.7900450  94.1290012  21.3204997  64.3569988
  94.3938173  20.8235294  65.2776545  93.2846043  20.8505943  63.8852437
  93.9193110  22.3634270  64.5457568  96.3720012  22.1624997  64.0629988
  96.6358796  21.7715192  65.0343815  95.9745620  23.1605845  64.1703244
  97.2464699  22.1881041  63.4288979 100.1360012  21.1494997  63.9459988
  99.9900012  18.8544997  63.1709988  97.1180012  19.3574997  67.4719988
  95.9910012  19.0094997  67.9449988  95.5970012  17.8704997  68.1519988
  95.0310012  20.1504997  67.7889988  95.6242138  21.0573469  67.7317289
  94.5316089  20.0605612  66.8275283  94.0310012  20.2004997  68.9179988
  93.3093158  20.9800017  68.6998066  93.4719087  19.2703772  68.9359119
  94.6380012  20.4564997  70.2669988  95.3702126  19.6704940  70.4334784
  95.2024340  21.3803242  70.1668550  93.7360012  20.5754997  71.4519988
  93.1456506  21.4896819  71.4304823  93.0265505  19.7579163  71.5541717
  94.6420012  20.6104997  72.7059988  95.0685657  19.6188037  72.8419499
  95.4772885  21.2715266  72.4830199  93.9750012  21.0794997  74.0489988
  93.3049503  21.9147053  73.8510988  93.3618920  20.2878006  74.4704578
  95.0040012  21.4964997  75.0799988  95.6624725  22.2274325  74.6253202
  94.4787248  22.0137064  75.8818266  95.7820012  20.3634997  75.6709988
  96.7079921  20.0286609  75.2283049  95.3740012  19.7354997  76.7679988
  96.0002179  18.9437149  77.1534070  94.0960012  19.9874997  77.5969988
  93.4223383  20.6425929  77.0472240  93.5367526  19.0820107  77.8043915
  94.4690012  20.6894997  78.9469988  95.2238774  20.0934619  79.4584729
  94.9400747  21.6433777  78.7175094  93.2350012  20.9364997  79.9239988
  92.5145238  21.5858217  79.4266052  92.7222200  19.9956722  80.1040075
  93.6360012  21.5594997  81.2569988  92.8705485  21.3619518  82.0041280
  94.5509880  21.1033075  81.6308609  93.8610012  23.1644997  81.1029988
  94.6092093  23.3387530  80.3320186  92.9460512  23.6226904  80.7375500
  94.3200012  23.8594997  82.3599988  93.4335044  24.1348097  82.9285152
  94.8508852  23.1266408  82.9649071  95.1960012  25.0844997  82.2119988
  96.0080484  24.9145205  81.5094311  94.6093443  25.8999101  81.7945630
  95.7520012  25.5164997  83.5109988  96.3051288  26.4447564  83.4039550
  96.4309719  24.7796451  83.9266730  94.9619677  25.6841121  84.2375621
  82.3530012 131.7244997  84.5859988  82.6977676 132.3465335  85.4061445
  81.4585155 131.2050656  84.9174706  82.0677219 132.3823440  83.7696235
  83.4630012 130.7114997  84.1329988  83.7456128 130.0858161  84.9778974
  84.3545116 131.2655744  83.8518860  83.0170012 129.8304997  82.9899988
  82.7015005 130.4264670  82.1337212  82.1505107 129.2404324  83.2818650
  84.1410012 128.8664997  82.5529988  84.5114171 128.2819284  83.3922356
  85.0038960 129.3930354  82.1481794  83.5950012 127.9174997  81.5049988
  82.6461202 127.4933547  81.8232738  84.2754267 127.0781119  81.3715285
  83.3930012 128.6374997  80.1379988  84.3188146 129.0913735  79.7891651
  82.6695744 129.4459972  80.2190079  82.8950012 127.6064997  79.0809988
  81.8193663 127.4566076  79.1538826  83.3497455 126.6296076  79.2394899
  83.2610012 128.1304997  77.5969988  82.9243017 127.3887590  76.8738768
  84.3441959 128.1781085  77.5015702  82.6740012 129.4674997  77.2449988
  82.9955950 130.2237197  77.9579151  81.5869717 129.4345534  77.3071162
  83.0790012 129.8854997  75.8589988  84.1562858 129.7560092  75.7816093
  82.8928088 130.9552611  75.7675004  82.3540012 129.1264997  74.6689988
  81.2921523 129.3587957  74.7143482  82.4358675 128.0534133  74.8330464
  82.8400012 129.4484997  73.3239988  83.8930934 129.2180373  73.1822141
  82.7241093 130.5029077  73.0801490  81.9820012 128.6224997  72.3519988
  80.9952719 129.0682705  72.2383953  81.8188145 127.6086603  72.7066449
  82.6260012 128.5694997  70.9939988  82.2937716 127.6585336  70.5070599
  83.6947330 128.4649276  71.1612379  82.3910012 129.7694997  70.0439988
  82.6849371 130.6949902  70.5226530  81.3443403 129.8359805  69.7716933
  82.8680012 129.4864997  68.5999988  83.4610012 128.4904997  68.1539988
  82.4480012 130.6004997  67.9019988  82.8150012 130.6274997  66.4999988
  82.0218690 131.1491547  65.9859177  82.8968775 129.6271530  66.1002552
  84.1690012 131.4074997  66.3449988  83.9779541 132.4384688  66.5929858
  84.6630012 131.3024997  64.8949988  85.3984285 132.0674089  64.6855674
  83.8206324 131.4393348  64.2284584  85.2380012 129.9844997  64.7179988
  86.3360012 129.7504997  63.5769988  85.6500012 128.7624997  62.4889988
  84.3650012 128.4194997  62.6469988  83.9052020 128.2070827  61.6906240
  83.8303474 129.2679995  63.0641204  84.1330012 127.2734997  63.6349988
  83.0796327 127.0304503  63.5750740  84.3547073 127.6126986  64.6365813
  84.8750012 125.9494997  63.4669988  84.6720012 125.3454997  62.1019988
  83.6113181 125.3095475  61.8946514  85.0735861 124.3432165  62.1180586
  85.2052204 125.9379800  61.3737397  86.2700012 126.2264997  63.8359988
  86.2782767 126.7341940  64.7883075  86.7242310 126.8254839  63.0670624
  86.7772373 125.2761025  63.9181797  84.3460012 125.0664997  64.5099988
  84.5107584 125.5192191  65.4764263  84.8570934 124.1166241  64.4634024
  83.2878272 124.9155083  64.3521872  86.7200012 131.0584997  62.9499988
  87.4070012 129.0514997  64.2499988  85.1730012 130.9034997  67.2259988
  86.1930012 131.7504997  67.5099988  86.3020012 132.9504997  67.2429988
  87.3450012 130.9864997  68.2199988  88.2487777 131.3911819  67.7761822
  87.3429674 131.3261306  69.2527396  87.3040012 129.4704997  68.1429988
  86.4645012 129.1863258  68.7679355  87.0086746 129.2453729  67.1231296
  88.5300012 128.6244997  68.5309988  88.3670852 127.6147087  68.1629845
  89.3747973 129.0184761  67.9713854  88.9110012 128.5874997  70.0509988
  89.8980174 128.1385733  70.1457092  88.9994818 129.6002480  70.4366331
  87.9190012 127.7884997  70.9549988  88.1631310 127.8611302  72.0128392
  86.8987338 128.1534769  70.8538693  87.9590012 126.2944997  70.5169988
  87.3064114 126.2111080  69.6493160  88.9650264 126.0833091  70.1653884
  87.5610012 125.2144997  71.5659988  87.8110854 124.2482170  71.1437007
  88.2161445 125.3526096  72.4251023  86.0790012 125.2474997  72.0579988
  85.3412526 125.0965602  71.2843721  85.6310012 125.4234997  73.2939988
  84.5584918 125.3616369  73.4102170  86.3700012 125.6924997  74.5709988
  85.9037495 125.1184457  75.3699308  87.4001373 125.3582361  74.5183828
  86.3340012 127.2094997  74.9709988  86.5875424 127.7972290  74.0895250
  85.3030028 127.4583303  75.2150984  87.2680012 127.6314997  76.1719988
  86.8074273 127.4076750  77.1342260  88.2157903 127.1004553  76.1581539
  87.5170012 129.0854997  76.0779988  87.7980880 129.2937023  75.0480537
  86.5679158 129.5926098  76.2428058  88.6090012 129.6814997  77.0699988
  89.5026351 129.0608856  77.0409021  88.9213507 130.6673114  76.7364753
  88.1420012 129.7454997  78.4819988  87.9762865 128.7393588  78.8629216
  88.9202563 130.1802752  79.1065971  86.8370012 130.5684997  78.6759988
  86.8369715 131.4467233  78.0351882  85.9944995 129.9632562  78.3486085
  86.6050012 130.9884997  80.0999988  85.6434985 131.4821238  80.2044820
  87.3649214 131.6801330  80.4477135  86.6103469 130.1303037  80.7660409
 128.7170012  56.5484997  82.7739988 127.7475857  56.1130168  82.9953975
 129.3802992  56.3192646  83.6030205 129.1092692  56.0503649  81.8916159
 128.6100012  58.0624997  82.5509988 128.1806371  58.5116216  83.4449445
 127.8966090  58.2355152  81.7497801 129.9200012  58.7414997  82.2349988
 130.6566371  58.4441824  82.9812554 129.7819902  59.8138027  82.3586519
 130.4980012  58.4774997  80.8059988 129.7353213  58.1442371  80.1056378
 131.2763733  57.7162195  80.7888139 131.0950012  59.8494997  80.2889988
 132.1249535  59.9491868  80.6219155 130.5444545  60.6681228  80.7495632
 131.0490012  60.0024997  78.7769988 131.6285101  60.8740360  78.4779822
 130.0266919  60.1926689  78.4571606 131.5570012  58.8274997  78.0859988
 131.0190897  57.9416761  78.4187719 132.6013365  58.6662859  78.3498241
 131.4310012  58.9544997  76.5329988 130.3727984  59.0332232  76.2871116
 131.7775894  58.0229557  76.0893926 132.1840012  60.1244997  75.8999988
 133.2023801  60.1508268  76.2817738 131.7214819  61.0626674  76.2041274
 132.2180012  60.0484997  74.3369988 132.3518511  59.0083991  74.0479070
 133.1006161  60.5799572  73.9820722 131.0170012  60.6064997  73.6779988
 131.0674628  61.6844003  73.8162910 130.1563517  60.2680971  74.2523629
 130.7750012  60.3194997  72.1819988 131.5353761  60.8231019  71.5900242
 129.8223140  60.7560660  71.8879461 130.7520012  58.8384997  71.8519988
 129.9613632  58.3604273  72.4278376 131.6806678  58.3660842  72.1596932
 130.5060012  58.5384997  70.3749988 129.4999275  58.8246054  70.0863740
 130.5905926  57.4688922  70.2021514 131.5120012  59.2584997  69.4739988
 132.5253093  59.0134205  69.7658614 131.3801037  60.3317527  69.5432805
 131.4120012  58.6614997  68.0489988 130.4020012  58.0284997  67.7269988
 132.3210012  59.0674997  67.3029988 132.3820012  58.5904997  65.9379988
 132.7221453  59.3569501  65.2580593 131.3879965  58.2794912  65.6509092
 133.3650012  57.3884997  65.9289988 134.3243964  57.5995449  66.3716213
 133.5490012  56.9834997  64.4289988 134.3701062  56.2886875  64.3157573
 133.7637398  57.8719592  63.8483854 132.3120012  56.3804997  63.9879988
 132.4210012  55.5974997  62.5619988 130.9080012  55.2244997  62.3129988
 129.9130012  56.1734997  62.0539988 129.0947919  55.7127890  61.5159762
 130.3325770  56.9252614  61.3917244 129.3800012  56.9844997  63.3249988
 128.5508263  57.5370814  62.9014760 130.1224549  57.6868205  63.6755481
 128.8290012  56.3004997  64.5719988 129.8870012  55.5454997  65.2989988
 130.3952028  54.8997926  64.5960567 129.4069808  54.9483172  66.0599545
 130.5631827  56.2480718  65.7625588 128.3770012  57.3794997  65.4639988
 127.7496570  58.0514056  64.8985824 129.2362947  57.8871038  65.8644018
 127.8076398  56.9228712  66.2606261 127.6520012  55.3994997  64.3369988
 126.8515983  55.9695662  63.8892695 127.3224768  54.9928559  65.2812999
 127.9406525  54.5936589  63.6776535 132.8510012  56.4474997  61.4509988
 133.2260012  54.3784997  62.8169988 132.7540012  56.2814997  66.6189988
 133.6430012  55.2984997  66.8769988 134.8170012  55.3244997  66.6289988
 132.8220012  54.0994997  67.4589988 131.8060832  54.2724199  67.1190541
 133.1628768  53.2090211  66.9367357 132.8930012  53.9114997  68.9629988
 132.6519320  52.8639081  69.1061721 133.9479560  54.0114856  69.1977455
 132.0470012  54.7694997  69.9519988 132.2039837  54.3482118  70.9417093
 132.5128305  55.7518134  69.9633059 130.5330012  54.9444997  69.6839988
 130.1163490  55.4884383  70.5297160 130.4020132  55.5858484  68.8158306
 129.6750012  53.6054997  69.4729988 128.6153042  53.8501470  69.4399670
 129.9184020  53.1814877  68.5007072 129.9230012  52.5144997  70.5719988
 129.8232484  51.5433731  70.0896467 130.9558786  52.5889714  70.9005350
 129.0450012  52.5624997  71.7589988 128.0436513  52.5398154  71.3450375
 129.2009671  51.5966258  72.2376514 129.1810012  53.6684997  72.8249988
 128.7306888  54.6279439  72.6194759 129.8260012  53.5234997  74.0359988
 129.8845319  54.3637867  74.7128310 130.4710012  52.2994997  74.5409988
 130.1670424  52.2320121  75.5842032 130.0155922  51.4544338  74.0368685
 131.9660012  52.1714997  74.4779988 132.1847225  51.1298982  74.2457655
 132.2858031  52.7487392  73.6125623 132.7940012  52.6114997  75.7209988
 132.4684319  51.9940912  76.5582075 133.8314115  52.3477950  75.5346025
 132.7060012  54.0984997  76.1219988 132.7639993  54.7378991  75.2439614
 131.7535980  54.3226742  76.5992398 133.8570012  54.4364997  77.0979988
 134.1255765  53.5940603  77.7326272 134.7746087  54.7370533  76.5997127
 133.3590012  55.5624997  77.9989988 133.0912323  56.4243169  77.3903496
 132.4433527  55.2483675  78.4967365 134.3770012  56.0194997  79.0819988
 135.1378523  56.6121337  78.5801966 133.8301246  56.7147978  79.7150862
 135.0600012  54.9584997  79.9819988 135.6724026  55.4343558  80.7419951
 135.7044020  54.2976053  79.4121679 134.3221295  54.3433007  80.4891641
 127.5810012  91.5114997  81.7969988 127.5841671  91.9595827  82.7857559
 127.3388507  92.2912636  81.0806739 128.5911711  91.1722116  81.5847435
 126.6160012  90.3924997  81.7169988 125.6572337  90.8204282  82.0048271
 126.9031782  89.7192924  82.5202019 126.4490012  89.6214997  80.4269988
 125.5740039  88.9828841  80.5473273 127.3033980  88.9513505  80.3557453
 126.3320012  90.3874997  79.1309988 126.1638435  89.7187459  78.2897251
 127.2383198  90.9439694  78.8972595 125.1660012  91.3464997  79.2269988
 125.1970327  91.8514238  80.1891119 124.2441973  90.7672663  79.2155375
 125.1130012  92.4374997  78.0749988 125.9303321  93.1466072  78.1931239
 124.1949254  93.0165053  78.1489331 125.1980012  91.7784997  76.6459988
 124.5444058  90.9081163  76.6499936 126.2110116  91.3977136  76.5233538
 124.8450012  92.6704997  75.4509988 125.4124661  93.5984982  75.5080359
 123.7950400  92.9526877  75.5023352 125.1150012  92.0044997  74.1299988
 124.7010576  91.0004169  74.1933194 126.1947827  91.8833450  74.0527305
 124.5800012  92.7054997  72.8359988 125.0380454  93.6890278  72.7574688
 123.5088562  92.8752378  72.9421424 124.8310012  91.9254997  71.5919988
 124.2233124  91.0242742  71.6372535 125.8672384  91.5918792  71.5981497
 124.5290012  92.6604997  70.2289988 123.5066987  93.0287534  70.2678052
 124.5522394  91.9107143  69.4403595 125.4880012  93.8004997  69.8509988
 125.2572640  94.6627728  70.4742944 125.3068996  94.1093637  68.8252896
 126.9860012  93.4774997  70.0219988 127.2881222  92.6039462  69.4536923
 127.2259814  93.2743418  71.0623008 127.8120012  94.6974997  69.5559988
 127.5037132  95.5890791  70.0871161 127.6766227  94.8613747  68.4935080
 129.2410012  94.3944997  69.2329988 129.9930012  93.7424997  69.9449988
 129.5470012  95.0424997  68.0969988 130.7670012  94.8634997  67.4549988
 131.5352995  94.7740465  68.2081108 130.9467049  95.7546463  66.8712554
 130.7500012  93.6074997  66.5559988 131.7377448  93.4134616  66.1718038
 129.7450012  93.7944997  65.3699988 130.0821951  94.6532273  64.8054740
 128.7985457  94.0363373  65.8372477 129.5960012  92.6084997  64.4769988
 128.7470012  92.5454997  63.1829988 128.0470012  91.1824997  63.2709988
 127.5130012  90.7684997  64.4449988 126.9045882  91.5106375  64.9452527
 128.2868105  90.4785506  65.1499425 126.6810012  89.4394997  64.1679988
 126.4767995  89.0473847  65.1563290 127.2389587  88.7014469  63.6100216
 125.3310012  89.5494997  63.4799988 125.3990012  90.4364997  62.2949988
 125.8560900  91.3712850  62.5892440 124.3899483  90.6162437  61.9549922
 125.9604597  89.9403792  61.5176019 124.9660012  88.1174997  63.0189988
 125.0897218  87.4463300  63.8550242 125.6003376  87.8413257  62.1957641
 123.9321311  88.1326733  62.7056628 124.4030012  90.0124997  64.5949988
 124.4262281  89.2921051  65.3990971 123.3976763  90.0923747  64.2095225
 124.7284155  90.9767533  64.9579801 127.8230012  93.6964997  63.2429988
 129.6320012  92.5684997  62.0059988 130.3160012  92.5274997  67.2919988
 130.9870012  91.2854997  66.9959988 131.7830012  91.2114997  66.0819988
 130.6640012  90.2864997  68.0699988 131.5446767  90.0615433  68.6627536
 129.9186582  90.6524122  68.7717672 130.1560012  89.0644997  67.3189988
 129.3896495  89.3608348  66.6112194 130.9529172  88.6212438  66.7303715
 129.5700012  88.0104997  68.2879988 129.2127172  87.1919752  67.6683054
 130.4209260  87.6220823  68.8421864 128.4770012  88.4284997  69.2939988
 127.9927166  89.3392217  68.9464937 127.6956254  87.6754134  69.3611919
 129.0350012  88.6844997  70.6889988 129.1178513  87.7276177  71.2002852
 130.0520846  89.0523040  70.5679938 128.2780012  89.6454997  71.5529988
 128.2239502  90.6081514  71.0469541 127.2532850  89.3069039  71.6780096
 128.9110012  89.8384997  72.9549988 128.1472199  90.3584536  73.5214492
 128.9616556  88.8296724  73.3624883 130.2280012  90.4814997  73.1229988
 131.0850182  89.8365651  72.9999735 130.4700012  91.7774997  73.3979988
 131.4842322  92.1376951  73.4939396 129.4350012  92.8244997  73.5899988
 129.8359858  93.7776604  73.2495330 128.5522089  92.6347635  72.9896997
 129.0190012  92.9764997  75.0949988 127.9815387  93.3055989  75.1405003
 129.0448405  91.9906068  75.5552234 129.9170012  93.9584997  75.9279988
 130.8861524  93.4670130  76.0134023 130.0727891  94.8295905  75.2975744
 129.4630012  94.4034997  77.2969988 129.9980703  95.3068456  77.5812736
 128.4078124  94.6700276  77.2720091 129.6680012  93.3874997  78.2769988
 129.1371199  93.6036070  79.2022299 129.3158176  92.4117416  77.9537529
 131.2100012  93.3234997  78.6059988 131.7459532  92.7990301  77.8169676
 131.6304060  94.3269317  78.6408989 131.4990012  92.6364997  79.9219988
 130.8363135  91.7952504  80.1092413 132.5060538  92.2252157  79.9201293
 131.3810012  93.6444997  81.0709988 131.6709462  93.1901412  82.0136330
 130.3667661  94.0118290  81.1856175 132.0259992  94.5027844  80.9052706
  68.0860012  19.0624997  80.5159988  67.5801828  19.7756264  79.8725494
  68.2768787  18.1667243  79.9320962  69.0477159  19.4880820  80.7891223
  67.2400012  18.7414997  81.7759988  66.2791478  18.3673131  81.4267878
  67.0383657  19.6906460  82.2651596  67.8270012  17.7574997  82.7689988
  67.0989739  17.5873841  83.5620725  68.6841607  18.2310095  83.2435901
  68.2700012  16.4184997  82.1989988  68.8478433  15.9215577  82.9751412
  68.9670602  16.6213120  81.3874066  67.1540012  15.4314997  81.6929988
  66.5027089  16.0322356  81.0633102  66.5784911  15.1897499  82.5850247
  67.5060012  14.1334997  80.9499988  66.5748464  13.6517258  80.6573185
  67.9869112  13.4613767  81.6574966  68.4180012  14.2974997  79.6949988
  68.5481278  13.3325306  79.2085096  69.4116871  14.6188277  80.0041370
  67.8480012  15.3114997  78.6739988  68.2133016  16.3045215  78.9326767
  66.7660780  15.3465781  78.7875586  68.1960012  15.0084997  77.1969988
  68.1049004  13.9446096  76.9887212  69.2304768  15.2726002  76.9809245
  67.2660012  15.7924997  76.2579988  67.6437581  15.7363892  75.2394457
  67.2716129  16.8482228  76.5278990  65.7930012  15.2534997  76.3149988
  65.3107481  15.7447683  77.1573930  65.8422213  14.1961786  76.5695129
  64.8990012  15.4364997  75.0679988  64.6812844  16.5006678  75.0193706
  63.9593957  14.9449314  75.3132991  65.3820012  14.9224997  73.6749988
  65.3418182  13.8345544  73.6714669  66.4233006  15.1889868  73.5170302
  64.5500012  15.4304997  72.4899988  64.3653931  16.4875678  72.6508461
  63.5875176  14.9298683  72.5539178  65.1290012  15.2204997  71.0399988
  65.3523953  14.1751024  70.8688831  66.0376381  15.7961636  70.9093889
  64.1270012  15.8654997  69.9839988  63.1190012  16.4154997  70.2419988
  64.6250012  15.4854997  68.8159988  64.0020012  16.1484997  67.6689988
  62.9784521  16.2085844  68.0069324  64.0402947  15.5651823  66.7604469
  64.5880012  17.5984997  67.4359988  64.0890705  18.0552184  66.5973271
  66.1500012  17.5574997  67.1759988  66.2979063  16.8443882  66.3763756
  66.5597183  17.1445414  68.0893346  66.7810012  18.7924997  66.8639988
  67.5330012  18.9704997  65.4499988  66.3950012  18.6604997  64.3859988
  66.2790012  19.4834997  63.1839988  66.2111197  20.5377189  63.4189519
  65.3658950  19.2264429  62.6548901  67.4710012  19.1994997  62.1339988
  68.4582933  19.3910279  62.5350227  67.3066257  19.8526308  61.2891453
  67.5230012  17.7324997  61.5449988  68.3970012  17.6704997  60.3119988
  68.0828023  18.4457905  59.6267709  68.2587919  16.7024163  59.8539455
  69.4288198  17.7876567  60.6075348  68.0560012  16.6744997  62.4689988
  67.5415489  16.7542600  63.4143512  69.1161804  16.8117432  62.5854210
  67.8507186  15.7158373  62.0149916  66.1060012  17.4194997  61.0639988
  65.4208458  17.5092966  61.8938064  66.0769565  16.4115982  60.6780700
  65.8285528  18.1133157  60.2835651  67.9460012  20.3964997  65.4299988
  68.6410012  18.0504997  65.3429988  64.1460012  18.3234997  68.5529988
  64.1470012  19.6574997  68.4289988  64.5080012  20.2494997  67.4659988
  63.6290012  20.2664997  69.7009988  63.5878735  21.3442835  69.5816521
  62.6067764  19.9491197  69.8913498  64.5360012  19.8614997  70.8199988
  64.0764379  20.1471994  71.7598063  64.6178216  18.7794529  70.8426525
  65.9930012  20.5144997  70.7299988  66.2816813  20.5922084  69.6848772
  65.9269493  21.5336671  71.1028255  67.0650012  19.7824997  71.5119988
  66.8610985  19.8828410  72.5764523  67.0404859  18.7169628  71.2969821
  68.5040012  20.3194997  71.2349988  68.6587910  20.3396088  70.1581809
  68.5346883  21.3561603  71.5648079  69.6460012  19.5664997  71.8939988
  69.8082196  18.6379823  71.3488000  70.5638017  20.1404898  71.8018275
  69.4070012  19.2424997  73.4099988  68.5255331  18.6157115  73.4787788
  70.2442678  18.6322434  73.7460313  69.2910012  20.4554997  74.3239988
  70.1786910  21.0676331  74.3774161  68.2330012  20.8504997  75.0449988
  68.2975749  21.7526111  75.6362983  66.8870012  20.1484997  75.1299988
  66.2084937  20.6278573  74.4263902  66.9623087  19.1119497  74.8208484
  66.2720012  20.2174997  76.4959988  66.9794300  19.8440559  77.2354507
  66.0895095  21.2598489  76.7502895  64.9490012  19.4294997  76.6049988
  64.2037298  19.9733109  76.0245274  65.0917942  18.4779272  76.1003960
  64.4230012  19.1894997  77.9749988  63.5460085  18.5474436  77.9326558
  65.1569801  18.6623478  78.5820168  64.0680012  20.5134997  78.6509988
  64.9135027  21.1987167  78.6370427  63.2603445  21.0282788  78.1378534
  63.6840012  20.2644997  80.1229988  62.7191265  19.7634476  80.1763536
  64.4016394  19.5870470  80.5822234  63.6140012  21.5774997  80.9869988
  63.2859146  21.3161833  81.9899883  64.6362471  21.9338568  81.0934686
  62.7270012  22.7484997  80.4359988  62.8209745  23.6306925  81.0620769
  61.6759908  22.4816217  80.4060932  63.0261534  23.0243278  79.4287412
  53.6970012 129.7524997  80.0949988  54.2663104 130.4617104  80.6877349
  53.2207545 129.0560162  80.7790235  52.9106304 130.3032437  79.5861628
  54.5820012 129.0284997  79.1049988  55.3735955 128.5101403  79.6434085
  55.0735967 129.7604106  78.4698183  53.8250012 128.0364997  78.2619988
  53.1403349 127.4662924  78.8897127  54.5260166 127.3145018  77.8479124
  53.0740012 128.6454997  77.1539988  53.8056875 129.2544688  76.6276512
  52.3833559 129.3435670  77.6245486  52.2970012 127.7734997  76.1029988
  51.4129543 128.2512144  75.6884836  51.9697489 126.8111299  76.4930186
  53.3270012 127.5404997  74.9599988  54.1693788 126.9911285  75.3764218
  53.7160939 128.5103481  74.6573805  52.8060012 126.8084997  73.7399988
  53.6779051 126.5467007  73.1433290  52.2476249 127.5403823  73.1579388
  51.9260012 125.5384997  73.9499988  50.8975854 125.8657047  74.0974740
  52.2324042 125.0693221  74.8830977  51.9690012 124.5054997  72.8309988
  51.1890449 123.7715354  73.0220635  52.9145755 123.9697243  72.9045583
  51.8040012 125.0774997  71.3579988  52.6739979 125.6673453  71.0778437
  50.9477939 125.7488469  71.2977416  51.6150012 123.9504997  70.3889988
  50.5865010 123.5963627  70.4067570  52.2342736 123.0932978  70.6475225
  51.9490012 124.4054997  68.9479988  51.6878310 123.6478575  68.2131604
  53.0151693 124.5894311  68.8291516  51.1700012 125.7444997  68.6479988
  51.4977629 126.5147193  69.3441208  50.1040574 125.6172624  68.8148779
  51.4000012 126.2804997  67.1889988  51.0884812 125.5052247  66.4967206
  52.4729601 126.4005057  67.0647022  50.7070012 127.6134997  66.8069988
  50.9776857 128.3950857  67.5054930  49.6299532 127.4954864  66.8174696
  51.4680012 128.8664997  67.2939988  51.5760012 129.1964997  68.4519988
  52.0020012 129.3974997  66.2659988  52.9220012 130.5184997  66.3129988
  52.7779591 131.0207371  67.2577058  52.7018621 131.2068175  65.5099114
  54.4580012 129.9534997  66.1979988  55.1588893 130.7504382  66.3838450
  54.7540012 129.3034997  64.8319988  55.8130902 129.1165334  64.7172161
  54.4333249 129.9762722  64.0464233  54.0550012 128.1364997  64.7719988
  53.6450012 127.4624997  63.3419988  54.6990012 126.2654997  63.1219988
  55.0140012 125.3934997  64.2439988  54.1288700 125.2242911  64.8432485
  55.7241841 125.9106228  64.8827638  55.7080012 124.0384997  63.8699988
  55.1650096 123.4523802  63.1393325  55.7193867 123.5010769  64.8072416
  57.1440012 124.0674997  63.3899988  57.2410012 124.3544997  61.9459988
  56.5868852 123.6769159  61.4146358  58.2632855 124.1872020  61.6409638
  56.9762220 125.3872089  61.7753514  57.9150012 124.9164997  64.3109988
  57.7114030 124.5984361  65.3219871  57.6360881 125.9437459  64.1582160
  58.9612363 124.7750340  64.0814853  57.6980012 122.6774997  63.4619988
  57.6302009 122.3199062  64.4786659  58.7318980 122.6912042  63.1513230
  57.1327142 122.0296114  62.8076851  52.2760012 126.9414997  63.5099988
  53.8330012 128.3804997  62.2129988  54.5880012 129.0094997  67.2049988
  55.6260012 128.2654997  67.4149988  56.6890012 128.2284997  66.8509988
  55.2640012 127.4964997  68.6899988  54.8382163 128.1752287  69.4218369
  54.5024171 126.7431651  68.5045699  56.6050012 126.8354997  69.2059988
  57.0471481 126.2364930  68.4174824  57.3372134 127.5987965  69.4494655
  56.3520012 125.9444997  70.4329988  56.1130550 126.5341164  71.3144242
  55.4964849 125.2959692  70.2610535  57.6260012 125.0384997  70.7129988
  57.6138810 124.2622519  69.9501105  58.5067497 125.6447724  70.5157239
  57.7800012 124.3834997  72.0479988  57.2524667 123.4319800  72.0332063
  58.8328843 124.1439947  72.1838497  57.2990012 125.2214997  73.2679988
  57.8107245 126.1822353  73.2967611  56.2367040 125.4415970  73.2096901
  57.5640012 124.4844997  74.5349988  57.2640707 123.4466381  74.4485985
  58.6320332 124.4783538  74.7485772  56.8680012 125.1454997  75.6439988
  55.8105899 124.9278175  75.6510589  57.3180012 125.9104997  76.5839988
  56.6795657 126.4111827  77.2976700  58.7620012 126.1724997  76.7779988
  59.2934148 125.2904159  76.4248008  59.0766826 126.9917059  76.1411646
  59.2200012 126.4634997  78.2839988  58.6971206 127.3467082  78.6490243
  58.8897518 125.6357847  78.9087246  60.6560012 126.6454997  78.4499988
  61.1641938 125.7968664  77.9921026  60.9652625 127.5232623  77.8892902
  61.1110012 126.7814997  79.8959988  61.8808909 127.5450298  79.9822343
  60.2902532 127.1035345  80.5345529  61.6610012 125.4044997  80.4149988
  60.8755403 124.6511867  80.4023183  62.4476867 125.0238536  79.7693522
  62.1740012 125.5244997  81.8499988  62.7207740 124.6178563  82.1028231
  62.8986208 126.3356468  81.8924347  61.1080012 125.7674997  82.9269988
  60.5320241 126.6409934  82.6317459  60.4232115 124.9249596  82.8598993
  61.5630012 125.9234997  84.4019988  60.7055647 126.0014407  85.0636611
  62.1679811 126.8120076  84.5479231  62.1509384 125.0678332  84.7218513
  42.6380012  21.7934997  83.1039988  41.8497552  21.6817526  83.8419756
  43.4646519  21.1555157  83.4030221  42.2594665  21.4189021  82.1568978
  43.0700012  23.2154997  82.9839988  43.4017312  23.5505749  83.9652646
  42.1923041  23.8078367  82.7398703  44.1620012  23.4694997  81.9789988
  44.4154642  24.5253316  81.8846358  43.8853690  23.1358534  80.9808376
  45.4610012  22.6534997  82.4459988  45.3415988  21.5970959  82.2157725
  45.5920935  22.7138671  83.5252932  46.7700012  23.1834997  81.7279988
  47.5961987  22.5080219  81.9346396  47.0429399  24.1426530  82.1649132
  46.6220012  23.3464997  80.1689988  47.4102870  24.0556129  79.9228670
  45.6836839  23.8878274  80.0684896  46.6480012  22.2214997  79.1899988
  45.7159889  21.6635271  79.2592073  47.4401353  21.5257587  79.4633079
  46.8510012  22.6704997  77.7769988  47.7962117  23.2042345  77.6866927
  46.0741303  23.3781074  77.4933669  46.8410012  21.4684997  76.7799988
  45.8604021  20.9985125  76.8128407  47.5487657  20.7189848  77.1319559
  47.1780012  21.8414997  75.3289988  48.0694883  22.4613439  75.2630985
  46.3775957  22.4062745  74.8517048  47.3950012  20.5204997  74.5599988
  46.4688714  19.9809481  74.3736960  48.0566726  19.8194352  75.0657927
  48.0030012  20.9064997  73.2189988  48.6764713  21.7524538  73.3330974
  47.2219755  21.2300916  72.5334646  48.7540012  19.7084997  72.5839988
  48.0236340  18.9228447  72.3980899  49.4563173  19.3057512  73.3084432
  49.4930012  19.9854997  71.2729988  50.2220444  19.1892922  71.1639367
  50.0512323  20.9009157  71.4504346  48.6870012  20.1414997  69.9209988
  47.9299382  20.9093338  70.0175770  48.2037078  19.2075473  69.6597910
  47.9360012  18.8204997  69.6129988  48.2590012  17.7044997  69.9869988
  46.9190012  19.1114997  68.7049988  46.5630012  17.9404997  67.9169988
  46.4341954  17.0951135  68.5759322  47.4460647  17.7868421  67.3138569
  45.3210012  18.1214997  67.0359988  45.1938720  17.2031124  66.4870936
  45.2920012  19.2844997  66.0949988  46.2090072  19.2976908  65.5216516
  45.2464100  20.1832887  66.6972318  44.2070012  19.2124997  65.2619988
  43.2180012  20.3454997  64.8369988  43.3560012  20.5474997  63.2399988
  44.5110012  20.0504997  62.5019988  44.3400983  20.0457006  61.4333743
  44.7095153  19.0212861  62.7867944  45.8560012  20.8574997  62.8689988
  46.6901624  20.3395115  62.4128055  46.0340068  20.9339045  63.9319443
  45.9100012  22.2944997  62.3279988  44.8280012  23.0934997  62.8939988
  43.8967591  22.5618831  62.7543348  44.7939145  24.0326688  62.3621158
  45.0356611  23.2754230  63.9377891  47.2000012  22.9954997  62.7569988
  48.0339591  22.3514939  62.5235789  47.1503346  23.2085857  63.8098509
  47.2716129  23.9139916  62.1926042  45.8260012  22.2824997  60.8319988
  46.6409819  21.6958918  60.4347840  45.8963678  23.2952965  60.4646555
  44.8828783  21.8523441  60.5271704  41.9080012  19.7564997  65.1089988
  43.6020012  21.5354997  65.5499988  44.1930012  18.4174997  67.8899988
  43.8630012  17.6634997  68.9219988  44.1610012  16.5214997  69.1509988
  43.0660012  18.5164997  69.9689988  42.8097433  19.4444526  69.4682111
  42.1222675  18.0131171  70.1636259  43.8710012  18.7714997  71.3229988
  44.7150009  19.3963924  71.0523801  43.2313885  19.3856303  71.9489159
  44.3710012  17.5764997  72.1129988  45.0299166  16.9762508  71.4907562
  44.9792559  17.9370001  72.9389107  43.2720012  16.7254997  72.6659988
  42.5677358  17.3268305  73.2379406  42.6915092  16.2353019  71.8882217
  43.8830012  15.6104997  73.6339988  43.3403222  14.6854992  73.4502197
  44.9042223  15.4335898  73.3020481  43.9000012  15.8964997  75.1239988
  42.8583564  15.9563156  75.4356063  44.3182575  15.0241280  75.6183137
  44.6690012  17.1784997  75.6269988  44.2631400  18.0643182  75.1524651
  44.5042980  17.3008180  76.6966983  46.2360012  17.0524997  75.3639988
  46.5829554  17.1809323  74.3497593  47.1690012  16.8114997  76.3059988
  48.2072705  16.7360165  76.0163282  46.9160012  16.6214997  77.8579988
  45.8983829  16.2495716  77.9645050  47.5656632  15.8417405  78.2395691
  47.0560012  17.8284997  78.6939988  48.0309282  18.2909001  78.5443053
  46.3188016  18.5736609  78.4012011  46.8710012  17.4924997  80.1819988
  45.8456107  17.1645126  80.3526030  47.5069544  16.6540253  80.4522362
  47.1760012  18.6704997  81.0879988  48.2222040  18.9304986  80.9430675
  46.5988635  19.5238012  80.7360420  46.9020012  18.4564997  82.5329988
  45.8696046  18.7189249  82.7563380  47.0035833  17.4058872  82.7909126
  47.7690012  19.2694997  83.3899988  48.7947310  19.0979850  83.0685271
  47.5533322  20.3128613  83.1670247  47.6970012  19.0774997  84.8629988
  48.4642843  18.3547546  85.1291398  48.0215245  20.0241702  85.2893935
  46.3960012  18.6824997  85.4999988  46.4852466  18.6684931  86.5820838
  46.0749837  17.6945458  85.1875312  45.6065281  19.3828117  85.2422463
   7.5600012  94.5134997  79.5609988   6.7611682  95.0435789  80.0702245
   7.1081184  93.7231762  78.9685625   8.0331617  95.2097936  78.8740447
   8.5770012  93.9464997  80.5589988   8.0374819  93.2935961  81.2429862
   8.9415838  94.7786474  81.1551729   9.7590012  93.1744997  79.9499988
   9.4263024  92.1606923  79.7276588  10.5215610  93.0790197  80.7204253
  10.4130012  93.7874997  78.6839988  10.7526681  94.8044973  78.8672804
   9.7171854  93.8480220  77.8486046  11.6280012  92.9274997  78.2759988
  11.3052981  91.9201715  78.0255477  12.3006107  92.8302296  79.1265868
  12.4170012  93.5264997  77.0579988  12.6183630  94.5822464  77.2302461
  11.8060240  93.4760831  76.1592541  13.7540012  92.7844997  76.8089988
  13.4984731  91.8144857  76.3864490  14.1872512  92.5852192  77.7881881
  14.8470012  93.4914997  75.8829988  15.7564931  92.8933505  75.8443587
  15.1343283  94.4548315  76.3002743  14.2880012  93.7064997  74.3859988
  14.9961966  94.3437887  73.8607721  13.3632022  94.2772897  74.4603129
  14.0240012  92.3824997  73.5229988  13.2269623  91.7799788  73.9531112
  14.9055241  91.7428445  73.4885368  13.6540012  92.8014997  72.1059988
  14.2864253  93.6387297  71.8185505  12.6326809  93.1783283  72.1002540
  13.7890012  91.7434997  71.0829988  13.2192295  90.8813094  71.4209444
  14.8321570  91.4330620  71.0718500  13.3620012  92.1354997  69.6089988
  13.5364218  91.2515271  68.9979162  14.0590019  92.8909304  69.2571630
  11.9220012  92.6184997  69.3459988  11.9415867  93.2460129  68.4610194
  11.6528526  93.2602983  70.1807116  10.8340012  91.5484997  69.1819988
  10.8186229  90.8890082  70.0404133  11.0170289  90.9573461  68.2925566
   9.4810012  92.1714997  68.7649988   8.5790012  92.4094997  69.5289988
   9.3550012  92.3114997  67.4169988   8.2410012  92.9974997  66.8959988
   7.5729907  93.1790966  67.7243988   7.7255900  92.4120700  66.1484592
   8.7600012  94.3974997  66.2779988   7.8915441  94.8548125  65.8335425
   9.9650012  94.3194997  65.1849988  10.1984538  95.3033780  64.8012224
   9.6501700  93.6914035  64.3610076  11.0840012  93.7634997  65.8239988
  12.4880012  94.2794997  65.5889988  12.7010012  94.3894997  63.9659988
  13.9130012  94.9934997  63.6669988  14.4382892  95.2928476  64.5645801
  13.7271382  95.9019998  63.1014199  14.8010012  94.1414997  62.7729988
  14.9643899  93.1233277  63.1029668  15.7555164  94.6439629  62.7112866
  14.3010012  94.0384997  61.3709988  13.1130012  93.1344997  61.3179988
  13.3629976  92.2064435  61.8135263  12.8862333  92.9427940  60.2797670
  12.2752931  93.6287584  61.7866890  14.1190012  95.4074997  60.7249988
  15.0225813  95.9789100  60.8724681  13.2689231  95.8946214  61.1682252
  13.9499413  95.2469883  59.6700334  15.3770012  93.3314997  60.6489988
  16.2940500  93.8948375  60.7370558  15.1059366  93.2416990  59.6077928
  15.5100043  92.3470152  61.0738935  12.6330012  95.6164997  66.1989988
  13.4500012  93.2854997  66.0979988   9.2030012  95.2084997  67.3989988
   9.6010012  96.5154997  67.1429988   9.5000012  96.9974997  66.0529988
  10.0930012  97.1594997  68.4579988  11.0476666  96.7086235  68.7087528
  10.2965117  98.2146766  68.2934017   9.0630012  96.9654997  69.5639988
   9.0434281  97.8893338  70.1316328   8.0921815  96.8869126  69.0850768
   9.2620012  95.8094997  70.5099988   9.0663091  94.8657143  70.0073779
  10.3017619  95.7748444  70.8258494   8.3600012  95.9374997  71.7789988
   8.4867347  96.9672486  72.1080302   7.3327978  95.8533581  71.4326240
   8.5490012  95.0264997  72.9779988   7.8376492  95.2956995  73.7560803
   8.3052635  94.0073464  72.6842308   9.9940012  95.0434997  73.5689988
  10.0108065  94.1690007  74.2175897  10.6360369  94.8108714  72.7240182
  10.6000012  96.2704997  74.3369988  11.6182014  96.0361097  74.6249390
  10.6622528  97.1099153  73.6457303   9.7740012  96.6924997  75.5399988
   9.1477152  95.9084383  75.9382044   9.7350012  97.8724997  76.1569988
   9.0698213  97.8456312  77.0081297  10.4290012  99.2634997  75.9299988
  10.0780482  99.6443851  74.9724084  10.0967275  99.9733843  76.6792243
  11.9890012  99.2324997  75.9009988  12.3472370  98.7436862  74.9957731
  12.3812199 100.2473134  75.8731330  12.5590012  98.4984997  77.1469988
  12.1213374  98.9677733  78.0281002  12.1867711  97.4778818  77.1300307
  14.1290012  98.4824997  77.2929988  14.5891912  97.8303403  76.5540412
  14.5610409  99.4697175  77.1386367  14.4670012  98.0034997  78.6849988
  15.5519085  98.0484663  78.7594569  14.0910783  98.7609933  79.3672819
  14.0170012  96.6024997  79.1509988  12.9328341  96.5502140  79.2330410
  14.3014629  95.8446979  78.4232269  14.6400012  96.2194997  80.5359988
  15.7163305  96.1090529  80.4300197  14.4936484  97.0668764  81.2022168
  14.0750012  94.9944997  81.1849988  14.4984754  94.8525241  82.1747369
  14.2837708  94.0983172  80.6105310  12.9970142  95.0725324  81.2945252
  37.7700012  23.3194997  82.6159988  37.9145265  22.6061063  83.4213629
  37.6051997  24.2954057  83.0634782  38.6955684  23.3698010  82.0490710
  36.5750012  22.9084997  81.7029988  35.6586303  22.8460111  82.2874324
  36.7444104  21.9160942  81.2940416  36.3780012  23.9344997  80.5519988
  37.3961186  24.1647256  80.2383719  36.0152489  24.8196885  81.0706725
  35.4910012  23.7024997  79.2899988  35.6209920  22.7039277  78.8786516
  35.7162750  24.3940317  78.4796031  34.0100012  23.8744997  79.7149988
  33.9527204  24.6223377  80.5017835  33.6738758  22.9385167  80.1580795
  33.0820012  24.2584997  78.6159988  32.1350542  24.5229808  79.0830729
  32.8935245  23.3583632  78.0347863  33.5160012  25.3914997  77.6699988
  32.9973019  25.2438594  76.7245235  34.5758379  25.2535665  77.4603549
  33.2810012  26.8154997  78.1549988  33.5735259  26.8242648  79.2041906
  32.2025986  26.9620402  78.1389455  33.9340012  27.9384997  77.4589988
  34.9923479  27.8643545  77.6997177  33.5743016  28.8433085  77.9473779
  33.7680012  28.0814997  75.9499988  33.9039549  29.1213170  75.6608698
  32.7526974  27.8138848  75.6585032  34.7870012  27.1684997  75.1719988
  34.4867200  26.1228587  75.1693012  35.7918930  27.1932561  75.5899790
  34.8290012  27.6454997  73.7699988  33.8026644  27.8791921  73.4975290
  35.1144102  26.7841028  73.1689937  35.7610012  28.8324997  73.4089988
  36.7553314  28.6207791  73.7985289  35.4234445  29.7349573  73.9108948
  35.8880012  29.1064997  71.9489988  36.0298259  30.1741521  71.8172827
  34.9325724  28.8577565  71.4947138  36.9980012  28.3524997  71.1979988
  36.8957444  27.2845493  71.3431420  37.9728912  28.6604452  71.5569248
  36.7220012  28.3474997  69.6939988  35.6780012  28.6524997  69.1179988
  37.7980012  27.8074997  69.1709988  37.7850012  27.4324997  67.8469988
  38.8426665  27.2531773  67.7259640  37.4965924  28.2726681  67.2320765
  36.9620012  26.1384997  67.4599988  37.2790418  25.3770883  68.1532751
  37.2540012  25.6754997  65.9889988  36.4601218  25.0430303  65.6154496
  38.1812334  25.1165373  65.9693389  37.3640012  26.8164997  65.2209988
  36.4020012  27.1444997  64.0009988  36.3580012  25.7384997  63.2369988
  37.5510012  25.1984997  62.7339988  38.3548489  25.1598816  63.4575500
  37.9190555  25.7828178  61.8956043  37.2550012  23.7774997  62.1459988
  38.1574085  23.4113239  61.6728970  36.4804887  23.8626796  61.3974991
  36.8160012  22.7004997  63.0649988  35.4730012  23.0844997  63.5119988
  35.5079074  24.1024840  63.8750738  35.1868637  22.4216111  64.3149957
  34.7843260  22.9738778  62.6878590  36.7380012  21.3984997  62.3729988
  37.6627342  21.2375025  61.8403987  35.8955005  21.4059918  61.7047874
  36.6085850  20.6379131  63.1293429  37.6770012  22.5274997  64.2599988
  38.6866650  22.3129740  63.9427614  37.3014106  21.7063977  64.8519221
  37.6630362  23.4333597  64.8487751  35.0690012  27.4544997  64.5219988
  37.0000012  28.1814997  63.1089988  35.5740012  26.3764997  67.7219988
  34.8290012  25.3414997  68.1309988  35.2450012  24.1784997  68.3039988
  33.3890012  25.8054997  68.3759988  33.3697452  26.8346862  68.7194480
  32.7816935  25.7813484  67.4746103  32.8450012  24.8364997  69.4349988
  31.7839532  25.0420958  69.5242657  32.9230815  23.8359294  69.0217246
  33.5180012  24.8774997  70.9059988  34.5747504  24.6279597  70.8543770
  33.4641712  25.8875875  71.3046088  32.8200012  23.9554997  71.8499988
  31.7917572  24.3037169  71.9285166  32.7729316  22.9691674  71.3948778
  33.4020012  23.8184997  73.2879988  33.2793632  24.7739299  73.7939769
  32.7746995  23.1090649  73.8242598  34.8250012  23.3774997  73.3999988
  34.9150391  22.4619502  72.8174498  35.4430855  24.1195467  72.9023484
  35.3960012  23.1334997  74.8409988  35.4018234  24.0559918  75.4098171
  34.7503296  22.4433688  75.3824538  36.7970012  22.5284997  74.7579988
  36.8135276  21.5133151  74.3910094  37.9550012  23.0764997  75.0569988
  38.8817276  22.5423149  74.9039144  38.1330012  24.4804997  75.6299988
  38.8073039  25.0502054  74.9928393  37.2049051  25.0399416  75.6666514
  38.7230012  24.4154997  76.9889988  37.9811221  23.9705736  77.6510873
  39.5513629  23.7109952  76.9448488  39.1980012  25.6864997  77.5659988
  40.0137658  25.4756166  78.2574924  39.6200163  26.3037974  76.7777408
  38.1040012  26.4724997  78.2999988  37.2317908  26.5536908  77.6551716
  37.7819657  25.9165598  79.1788099  38.5770012  27.8904997  78.7349988
  39.3024134  27.7933826  79.5405640  39.1053849  28.3711261  77.9161985
  37.4680012  28.7734997  79.2179988  37.7873963  29.8107936  79.1349864
  36.6205998  28.6637806  78.5436794  36.9670012  28.5174997  80.7009988
  36.2941627  29.3193488  80.9946677  36.3609088  27.6143757  80.6827740
  38.0840012  28.3514997  81.7849988  37.6519798  28.0937383  82.7472802
  38.6570616  29.2626687  81.9195858  38.7786699  27.5621074  81.5121689
  21.0020012  43.3774997  80.3099988  20.5519813  43.8906734  81.1541337
  21.8353530  43.9807176  79.9615121  21.4063062  42.4364397  80.6727046
  19.9920012  43.1464997  79.2039988  19.5914622  44.1136715  78.9050838
  19.1602456  42.5889850  79.6261054  20.5250012  42.4404997  77.9969988
  21.0732494  41.5405672  78.2753410  21.2343305  43.0736049  77.4676589
  19.3610012  42.0544997  77.0039988  18.9117729  42.9405137  76.5608022
  18.5522965  41.5253166  77.5056641  19.9120012  41.1924997  75.9019988
  19.0621304  40.8594823  75.3117512  20.3114994  40.3050792  76.3901084
  20.9530012  41.7614997  74.9789988  21.8440978  42.0959696  75.5071026
  20.5919572  42.6204239  74.4173285  21.3240012  40.6694997  74.0259988
  20.3916925  40.2297606  73.6764275  21.8226968  39.8990573  74.6124723
  22.2040012  41.0334997  72.8089988  23.1988710  41.3376045  73.1318073
  21.7859582  41.8828313  72.2718211  22.3240012  39.8524997  71.8619988
  21.3448559  39.6175167  71.4501753  22.6383484  38.9709973  72.4194182
  23.3630012  40.1174997  70.6539988  24.1677165  40.7354273  71.0462966
  22.8526115  40.7210583  69.9038999  23.9300012  38.8904997  69.9979988
  24.3759803  38.2490335  70.7550752  24.7371987  39.1656000  69.3213305
  22.8980012  38.0874997  69.2419988  22.0163535  37.9555728  69.8645032
  23.2921563  37.0897892  69.0579183  22.5070012  38.7144997  67.8999988
  23.3584002  38.7817541  67.2248332  22.1124632  39.7224101  67.9934353
  21.4420012  37.8164997  67.2349988  21.6961891  36.8046972  67.5333093
  21.6535959  37.8934500  66.1717969  19.9380012  38.0444997  67.4519988
  19.6672403  39.0599137  67.1918759  19.6753815  37.8692543  68.4885261
  19.0750012  36.9224997  66.7369988  19.5500012  35.8814997  66.3639988
  17.9290012  37.4354997  66.4379988  17.0260012  36.6384997  65.6019988
  16.1968616  36.5250080  66.2839879  17.3720633  35.6603546  65.3008921
  16.5970012  37.4814997  64.3679988  15.7212897  37.0102505  63.9533331
  17.6410012  37.6224997  63.3169988  17.1781673  37.7654919  62.3499729
  18.2222514  36.7092101  63.2917920  18.4560012  38.7084997  63.6329988
  19.7610012  39.1734997  62.9049988  20.0880012  40.4544997  63.7449988
  19.3360012  41.0354997  64.7679988  19.9614587  41.2683415  65.6199239
  18.6031109  40.3116904  65.1126275  18.5320012  42.2404997  64.3399988
  18.1656347  42.6184795  65.2861255  17.6867619  41.9958983  63.7130078
  19.2270012  43.4164997  63.6649988  19.8340012  43.0124997  62.2999988
  20.4384711  42.1267918  62.4395396  20.4553594  43.8266093  61.9575963
  19.0328570  42.8468563  61.5954086  18.1300012  44.4164997  63.4709988
  17.6093157  44.5401871  64.4081765  17.4696666  44.0675710  62.6973211
  18.5907346  45.3485119  63.1771026  20.2220012  44.0224997  64.5899988
  19.7203908  44.3446127  65.4903944  20.6824799  44.8720743  64.1085092
  20.9791934  43.2915019  64.8344106  20.7660012  38.1144997  63.2669988
  19.5170012  39.5934997  61.4969988  16.0760012  38.6894997  65.0069988
  15.2800012  39.5474997  64.3389988  15.0360012  39.4724997  63.1379988
  14.6820012  40.5294997  65.3509988  13.9555563  41.1874135  64.8851874
  14.1592130  40.0413810  66.1697415  15.9090012  41.2974997  65.8589988
  16.7489493  40.6320434  66.0254803  16.2508648  42.0392355  65.1441630
  15.5310012  41.9964997  67.2129988  14.6608534  42.6252524  67.0422159
  15.2120708  41.2181464  67.9018489  16.6430012  42.8094997  67.8769988
  17.2289526  43.2704503  67.0839720  16.1981915  43.6262773  68.4402223
  17.5920012  42.0414997  68.7899988  18.0191023  41.1938095  68.2581087
  18.4288632  42.6831345  69.0589739  16.9280012  41.5544997  70.0599988
  16.4547894  42.4130223  70.5340352  16.1267170  40.8704730  69.7947266
  17.8700012  40.8464997  71.0929988  18.5171926  41.6347828  71.4595134
  17.2141880  40.5785743  71.9203265  18.6910012  39.5924997  70.6839988
  19.6512255  39.7423237  70.2138117  18.2970012  38.3154997  70.8859988
  18.9290350  37.5005559  70.5634931  16.9870012  37.8654997  71.5609988
  16.6492148  38.6633901  72.2201590  16.1959408  37.7165862  70.8345490
  17.1570012  36.5894997  72.3989988  16.1999518  36.1459224  72.6710294
  17.7017441  35.8229198  71.8512128  17.9430012  36.9524997  73.6849988
  18.4629964  36.0718778  74.0621156  18.7118636  37.6876421  73.4638198
  16.9870012  37.5134997  74.8099988  16.5825512  38.4776141  74.5099178
  16.1315600  36.8548868  74.9497644  17.7510012  37.6544997  76.1579988
  18.1353943  36.6725716  76.4275340  18.6240672  38.2802966  75.9944171
  16.9580012  38.1734997  77.3189988  16.4873528  39.1233818  77.0718207
  16.1473750  37.4902117  77.5656500  17.8280012  38.3704997  78.5719988
  18.1678839  37.4182524  78.9715234  18.7289889  38.9149807  78.2980015
  17.0830012  39.1644997  79.6869988  17.7447459  39.3668111  80.5237980
  16.2291736  38.6176971  80.0726496  16.7222031  40.1182893  79.3124975
  52.4010012  19.7134997  80.3519988  53.1164559  20.5132340  80.5162499
  52.9233000  18.7699690  80.4813964  51.6458228  19.7807147  81.1303301
  51.7600012  19.8114997  78.9429988  52.5412740  19.7669429  78.1861432
  51.2851438  20.7828777  78.8346047  50.7780012  18.7344997  78.6919988
  49.9099598  18.9144844  79.3260640  51.2191565  17.8035633  79.0425847
  50.3140012  18.5374997  77.2429988  51.0607647  18.0247582  76.6407610
  50.1060376  19.4756714  76.7308552  49.0460012  17.6874997  77.2759988
  48.6573846  17.6417064  76.2618720  48.3134525  18.2431363  77.8590986
  49.1620012  16.2034997  77.8529988  48.1372787  15.8423990  77.9190833
  49.5095674  16.3214227  78.8771417  50.0140012  15.1654997  77.1529988
  49.8199026  14.2454725  77.7013104  51.0369182  15.4525294  77.3927582
  49.9020012  14.8824997  75.6049988  49.5698423  15.8255329  75.1727837
  49.0663319  14.1920830  75.5066845  51.0800012  14.3564997  74.8109988
  51.6107721  13.6360744  75.4297156  51.7718568  15.1811288  74.6439672
  50.7310012  13.7124997  73.4709988  50.2866502  14.5043368  72.8719618
  49.9315446  13.0017941  73.6788345  51.8680012  12.9884997  72.6509988
  51.4278285  12.3504264  71.8876826  52.4505322  12.3317422  73.2947807
  52.7890012  13.9664997  71.9769988  53.2055070  14.6158094  72.7432486
  52.1802983  14.6028738  71.3373280  53.9170012  13.3554997  71.1309988
  53.4689040  12.7348434  70.3568885  54.5200596  12.6905479  71.7429086
  54.8520012  14.3944997  70.4339988  55.6817289  13.9007566  69.9389082
  55.2809734  15.0603733  71.1781003  54.0700012  15.2524997  69.3919988
  53.2164926  15.7288533  69.8574569  53.7193827  14.6299046  68.5774369
  54.0730012  14.2674997  68.2189988  55.0010012  13.8534997  67.5379988
  52.7950012  13.8874997  67.9429988  52.4770012  13.4284997  66.6359988
  52.7156326  12.3770117  66.6897588  53.1418197  13.9059283  65.9308248
  51.0120012  13.6204997  66.2259988  50.4071455  12.8357565  66.6493446
  50.9370012  13.5624997  64.6189988  49.9882500  13.1154287  64.3548021
  51.7324775  12.8945484  64.3129865  51.0790012  14.7934997  64.0059988
  52.0850012  15.0684997  62.8469988  52.2960012  16.6374997  63.1509988
  52.8240012  17.0134997  64.4229988  53.8708580  16.7616151  64.5317830
  52.2970476  16.4886420  65.2146056  52.5810012  18.5244997  64.7029988
  52.9618914  18.6694794  65.7060703  51.5522025  18.8530523  64.6713220
  53.3780012  19.5204997  63.7969988  53.0220012  19.3614997  62.3619988
  53.1077570  18.3161746  62.0987965  53.7214421  19.9419001  61.7788884
  52.0214212  19.7357789  62.2055639  53.1010012  20.8874997  64.3789988
  53.2826525  20.8505742  65.4421795  52.0837809  21.1614196  64.1631268
  53.7828189  21.5823371  63.9103598  54.8480012  19.3544997  64.0899988
  55.0253946  19.5448056  65.1380432  55.4100715  20.0578881  63.4942038
  55.1533247  18.3476627  63.8440480  53.3910012  14.3824997  62.8489988
  51.2990012  14.9134997  61.5749988  50.5380012  14.8244997  66.7329988
  50.0690012  14.8314997  68.0239988  49.7020012  13.8724997  68.7039988
  50.3970012  16.2054997  68.5739988  51.4655147  16.2588508  68.7556178
  50.1824108  16.9725974  67.8341211  49.5830012  16.4324997  69.8589988
  48.5532227  16.2226014  69.5914915  49.8805772  15.6470276  70.5463961
  49.6520012  17.8044997  70.5679988  49.2219731  18.5668151  69.9233244
  49.0215674  17.7649510  71.4529023  51.0710012  18.2144997  70.9949988
  51.7756967  17.7488349  70.3085102  51.1923559  19.2881078  70.8731769
  51.4780012  17.8194997  72.4679988  50.6767334  18.0560699  73.1650680
  51.6282583  16.7435970  72.5330923  52.7440012  18.5104997  72.9079988
  52.6338472  19.5912045  72.8328714  52.9755961  18.2974990  73.9478605
  53.9160012  18.0634997  72.0469988  53.7945371  17.0321173  71.7370359
  53.9552068  18.6556598  71.1336777  55.2450012  18.2614997  72.8239988
  55.8327214  19.1303415  72.5685523  55.7150012  17.4764997  73.7729988
  56.6420627  17.6609350  74.2965925  54.9890012  16.2324997  74.2259988
  53.9352156  16.3419669  73.9754514  55.3378612  15.3544506  73.6940143
  55.1020012  15.9874997  75.7569988  54.4092721  15.1791516  75.9880936
  56.1007813  15.5861496  75.9176705  54.8670012  17.1524997  76.7209988
  55.3418860  18.0390797  76.3007997  53.8018923  17.3647249  76.7527422
  55.3810012  16.9314997  78.1329988  56.4305849  16.6465991  78.1142736
  55.3252768  17.8495125  78.7154353  54.5770012  15.8704997  78.8089988
  53.5156770  16.0870866  78.7028332  54.7328190  14.9078872  78.3297045
  54.8850012  15.7694997  80.2839988  54.5951752  16.6999316  80.7689526
  54.2575756  14.9939756  80.7195829  56.3940012  15.4594997  80.6509988
  56.8121182  14.6693101  80.0323764  57.0076635  16.3379463  80.4637478
  56.5210012  15.0844997  82.0869988  57.5639031  14.9575664  82.3614302
  56.0106926  14.1535013  82.3096378  56.1009601  15.8528988  82.7298590
 116.6400012  27.3114997  80.0789988 116.1490976  28.2142459  80.4289874
 116.6352547  26.5942909  80.8947065 116.0376284  26.8984810  79.2745271
 118.0340012  27.5954997  79.6159988 118.6028383  28.0321535  80.4351207
 118.0000440  28.3480288  78.8328252 118.7590012  26.3404997  79.1109988
 118.0115979  25.6958623  78.6486568 119.1140655  25.8071296  79.9905536
 119.9620012  26.5274997  78.1239988 120.4142743  25.5782239  77.8454767
 120.7652332  27.1334689  78.5403226 119.4220012  27.2004997  76.8619988
 119.1171655  28.2285739  77.0400762 118.5437792  26.6834107  76.4789710
 120.5190012  27.1864997  75.7979988 120.0439139  27.6433587  74.9317488
 120.6350083  26.1312790  75.5600310 121.8710012  27.7984997  76.0009988
 122.4626353  27.6689923  75.0965836 122.3951171  27.2572736  76.7875144
 121.8170012  29.2864997  76.3609988 122.8290186  29.6872738  76.4016419
 121.4029792  29.4046466  77.3606543 120.9800012  30.1164997  75.3619988
 119.9355379  29.8469386  75.5033296 121.2447234  29.7890573  74.3573692
 121.1300012  31.6584997  75.4539988 122.1320129  31.8627501  75.8248805
 120.4424302  32.0095528  76.2230481 120.8780012  32.4474997  74.1489988
 121.7820908  32.3691386  73.5489800 120.7799251  33.4993839  74.4117699
 119.6390012  32.0134997  73.2479988 118.6937053  32.0136714  73.7852462
 119.7521307  31.0139871  72.8322508 119.5890012  33.0464997  72.0649988
 120.6167447  33.2621180  71.7777639 119.1735918  33.9805139  72.4328662
 118.8240012  32.6204997  70.8029988 119.0119353  31.5661927  70.6284636
 119.2578120  33.1601588  69.9653424 117.3090012  32.8684997  70.8119988
 117.0966987  33.9099209  71.0179368 116.8313833  32.2596591  71.5704599
 116.5380012  32.3454997  69.5189988 115.6460012  32.9804997  68.9459988
 117.0250012  31.1234997  69.2319988 116.5880012  30.4754997  68.0719988
 115.5456030  30.6932319  67.8946267 116.7049646  29.4131921  68.2301578
 117.4070012  30.9334997  66.9329988 117.0983233  31.9271087  66.6530827
 117.1640012  29.9414997  65.7369988 117.5723094  30.3126057  64.8067484
 116.1040690  29.7639499  65.6043153 117.8340012  28.7214997  66.1329988
 117.6780012  27.3544997  65.3819988 117.5430012  27.7504997  63.8329988
 117.9320012  26.9114997  62.7779988 117.1385460  26.2320577  62.4951975
 118.7655665  26.2943554  63.1006422 118.4490012  27.6814997  61.5699988
 117.7259363  28.4837663  61.4938774 118.4913878  27.1612693  60.6239857
 119.8130012  28.3634997  61.7369988 119.8730012  29.2494997  62.9409988
 119.0247815  29.9198513  62.9189521 120.7886005  29.8197232  62.8897837
 119.8780018  28.6348003  63.8286004 120.7910012  27.1654997  61.8269988
 120.5909355  26.4971381  61.0036030 120.6575991  26.6737755  62.7739841
 121.7936148  27.5603843  61.7487104 120.3150012  29.0704997  60.4989988
 120.3882400  28.3602113  59.6889318 121.2887224  29.4909253  60.7008879
 119.6285514  29.8609374  60.2317350 118.9580012  26.6024997  65.5479988
 116.3850012  26.8394997  65.9329988 118.8540012  30.9004997  67.1959988
 119.8070012  31.3574997  66.3419988 119.6070012  31.9034997  65.2829988
 121.2270012  31.1634997  66.9069988 121.8719975  31.0748023  66.0388597
 121.5100485  32.0933194  67.3940578 121.3850012  29.9394997  67.8859988
 122.4111567  29.8462755  68.2241926 120.7840912  30.0638597  68.7812500
 120.9800012  28.6614997  67.1649988 119.9298777  28.6571099  66.8841511
 121.5410903  28.5356080  66.2422879 121.2730012  27.5114997  68.0579988
 121.1672258  26.5873117  67.4928491 122.3048687  27.5426241  68.3992942
 120.3160012  27.4354997  69.3239988 120.4145448  28.4217942  69.7727895
 119.3252779  27.4048208  68.8746579 120.3900012  26.3614997  70.4279988
 119.9565537  25.4524544  70.0139202 121.4378129  26.1438484  70.6151793
 119.7200012  26.6794997  71.7439988 120.0692912  26.0034702  72.5157245
 120.0022517  27.6817911  72.0635180 118.2200012  26.6214997  71.6089988
 117.8373126  25.6571882  71.3103235 117.3100012  27.6094997  71.8249988
 116.2545215  27.4075240  71.7119562 117.6210012  29.0104997  72.2249988
 118.6854345  29.1702792  72.0616793 117.1060542  29.7150245  71.5814497
 117.3080012  29.3334997  73.6829988 117.5536350  28.4471963  74.2668098
 118.0149419  30.1028223  73.9876894 115.8860012  29.7924997  74.0239988
 115.7597109  30.7501991  73.5190537 115.2190283  29.0954416  73.5242376
 115.4530012  29.9414997  75.5419988 114.4774617  30.4192686  75.5986075
 115.3378089  28.9596206  75.9977720 116.4600012  30.7364997  76.3259988
 117.4367465  30.3005402  76.1247580 116.4888052  31.7370300  75.9032288
 116.2800012  30.8154997  77.8709988 115.2678370  31.1290209  78.1202199
 116.4092014  29.8307625  78.3164581 117.2730012  31.7884997  78.5389988
 118.2703960  31.3580425  78.5817199 117.3610445  32.6784223  77.9196450
 116.8420012  32.2064997  79.9359988 117.5159445  32.9564453  80.3390508
 116.8368272  31.3696162  80.6261728 115.8423440  32.6316047  79.9254061
   9.0890012  72.0774997  82.6289988   9.1874399  72.2932862  83.6883264
   8.0497903  72.2335744  82.3542781   9.6854543  72.8059457  82.0865764
   9.5330012  70.6664997  82.3119988   8.9383649  69.9480731  82.8736695
  10.5633345  70.5209458  82.6251143   9.3980012  70.3894997  80.8839988
   8.3322464  70.3266016  80.6645916   9.7987648  69.3912788  80.7193340
  10.0970012  71.3994997  79.8399988  11.1653792  71.4601217  80.0353017
   9.7113028  72.4110650  79.9569531   9.8840012  70.9304997  78.3589988
   8.8185979  70.9141766  78.1440046  10.2278809  69.9006859  78.2777876
  10.6070012  71.8034997  77.2769988  11.6673161  71.8488000  77.5188607
  10.2351438  72.8234738  77.3473685  10.4350012  71.2964997  75.8239988
  10.2670615  70.2214668  75.8535033  11.3762489  71.4430132  75.2959680
   9.2290012  72.0074997  74.9829988   9.1203369  73.0282954  75.3471678
   8.2993762  71.4969852  75.2276544   9.4020012  72.0294997  73.5049988
  10.3512647  72.5045458  73.2667324   8.6288899  72.6594894  73.0668333
   9.3500012  70.5994997  72.8359988   8.3355295  70.2075502  72.8588438
   9.9630188  69.8925010  73.3943815   9.8750012  70.6724997  71.3259988
  10.7871322  71.2616246  71.2589930   9.1536320  71.1567195  70.6700371
  10.1700012  69.2664997  70.8009988   9.2316211  68.7555816  70.5994433
  10.6642106  68.6962069  71.5853413  11.0780012  69.2514997  69.5229988
  10.9339488  68.2679132  69.0790861  12.1063062  69.2799594  69.8723593
  10.8950012  70.3034997  68.4149988  11.2529700  71.2422342  68.8248534
   9.8200100  70.4040552  68.2910046  11.5370012  70.0784997  67.0129988
  11.2194292  69.1301120  66.5985715  12.6179367  70.0806703  67.0881157
  11.2000012  68.6954997  66.5619988  12.0560012  67.8184997  66.3619988
   9.9020012  68.4784997  66.3819988   9.6020012  67.0624997  66.3519988
  10.2364429  66.6538531  67.1239791   9.8711452  66.6211971  65.4033126
   8.1340012  66.8004997  66.6799988   7.8888944  65.7612058  66.5361762
   7.2880012  67.7194997  65.6319988   6.2662535  67.3681671  65.5830269
   7.7403141  67.6083911  64.6544238   7.3280012  69.1114997  66.0539988
   6.6010012  70.1744997  65.1129988   7.5070012  70.2724997  63.7639988
   8.7910012  70.7934997  63.8249988   9.5094498  70.1003156  64.2427505
   8.8095371  71.6754760  64.4586952   9.2450012  71.2904997  62.4189988
   9.1402061  70.4846698  61.7035233  10.2963432  71.4980304  62.5567954
   8.6730012  72.4974997  61.7569988   9.0270012  73.6354997  62.6559988
   8.7214376  73.3877174  63.6632569   8.4885969  74.5079777  62.3168779
  10.0893069  73.8168442  62.5901376   9.2620012  72.7924997  60.3559988
   9.2249232  71.8864111  59.7708982  10.2708231  73.1479182  60.4670211
   8.6454690  73.5536411  59.9000945   7.1340012  72.4834997  61.6979988
   6.8065458  71.6026973  61.1659818   6.7908069  73.3670561  61.1810889
   6.7346627  72.4742682  62.7019303   5.2920012  69.6074997  64.7309988
   6.6620012  71.4784997  65.8089988   7.8720012  67.0854997  68.0409988
   6.5540012  66.9574997  68.4809988   5.6080012  66.4594997  67.8959988
   6.4810012  67.5304997  69.8749988   5.6357746  67.0614940  70.3681303
   7.3609543  67.2184251  70.4319538   6.3530012  69.0924997  69.8509988
   6.4064238  69.4584889  70.8704392   7.2106279  69.5132532  69.3357554
   5.0900012  69.5844997  69.2199988   5.0659666  69.2883825  68.1743454
   4.2495032  69.0852808  69.6958231   4.8860012  71.1394997  69.3449988
   5.6381869  71.6328012  68.7321560   3.9220144  71.4213805  68.9284958
   4.9890012  71.6904997  70.7709988   6.0092947  71.5551282  71.1239531
   4.8240823  72.7652938  70.7262738   4.0490012  71.1084997  71.7529988
   3.0316340  71.3552910  71.4534003   4.1193073  70.0244929  71.7355533
   4.2890012  71.5984997  73.2069988   5.3399995  71.5402927  73.4650576
   4.0081022  72.6467901  73.2993506   3.4500012  70.7894997  74.1609988
   2.4761828  70.4590674  73.8322947   3.8320012  70.4324997  75.3999988
   3.2152289  69.8211803  76.0430312   5.1360012  70.8344997  76.0089988
   5.7226319  71.3328803  75.2391272   4.9857307  71.5646453  76.7963913
   5.9920012  69.6114997  76.5759988   6.8328944  70.0210305  77.1344682
   5.3710134  69.0900759  77.3019123   6.5160012  68.5894997  75.5219988
   5.6932695  67.9120161  75.2934479   6.7221431  69.1366541  74.6062305
   7.7600012  67.7634997  75.9189988   8.0569945  67.1332754  75.0836801
   8.6004927  68.4276063  76.1129610   7.4990012  66.8924997  77.1709988
   8.4623782  66.5060288  77.4983135   7.1582420  67.5512854  77.9650451
   6.5800012  65.7554997  77.0319988   5.6676747  66.1244424  76.5667840
   7.0233927  65.0626593  76.3191102   6.2040012  64.9814997  78.2869988
   5.9756979  65.6768414  79.0909219   5.2759553  64.4529428  78.0804277
   7.2430012  63.9764997  78.7659988   6.8665872  63.4052204  79.6092196
   8.1593476  64.4615019  79.0850959   7.4987705  63.2737129  77.9780814
  25.5120012 119.4284997  82.6929988  25.7107521 119.5711684  83.7506247
  24.5456001 118.9414060  82.6002695  25.4300344 120.4111861  82.2366865
  26.6040012 118.6104997  82.0329988  26.6819516 117.6404699  82.5210244
  27.5619300 119.1027203  82.1775849  26.3350012 118.3994997  80.5169988
  25.9018112 119.2943819  80.0703880  25.6036594 117.6067218  80.3727301
  27.6010012 118.0284997  79.7669988  27.9759884 117.0840748  80.1551949
  28.3762728 118.7662016  79.9681346  27.4040012 117.8904997  78.2129988
  27.0595032 118.8221079  77.7714106  26.6424542 117.1456972  77.9878755
  28.7390012 117.4774997  77.5379988  29.4943379 118.2245231  77.7751474
  28.6080910 117.5094041  76.4584518  29.2500012 116.0984997  77.9419988
  29.3397733 116.0648141  79.0262387  30.2579776 115.9723402  77.5491919
  28.3190012 114.8594997  77.4409988  27.2743018 115.0806623  77.6558040
  28.5641182 113.9659450  78.0121044  28.4830012 114.5474997  75.8739988
  28.5059272 115.4632639  75.2871502  27.6443465 113.9648947  75.4947801
  29.7950012 113.7604997  75.6469988  29.9759956 113.0857016  76.4807778
  30.6452213 114.4413419  75.6152409  29.7330012 112.9544997  74.3109988
  28.9152478 112.2395422  74.3714650  30.6417702 112.3655059  74.1998541
  29.5350012 113.7974997  73.0819988  28.7038039 114.4777006  73.2512819
  29.2338896 113.1476734  72.2624088  30.8170012 114.6054997  72.6399988
  31.5408366 113.9460032  72.1642061  31.3284897 115.0605022  73.4835782
  30.4440012 115.6914997  71.6409988  30.5017020 116.6847797  72.0739079
  29.4243580 115.5608817  71.2883532  31.3990012 115.6094997  70.4269988
  31.3828335 114.6153918  69.9985957  32.4135078 115.8417717  70.7284869
  31.0090012 116.6674997  69.3789988  30.5610012 117.7654997  69.6999988
  31.1940012 116.0694997  68.2049988  30.7330012 116.7134997  67.0359988
  31.5443778 116.8462634  66.3363534  30.4305248 117.6795255  67.4134828
  29.5620012 115.9984997  66.3599988  29.8233074 114.9909325  66.0817515
  29.1290012 116.8214997  65.0679988  29.8261274 116.6503111  64.2589805
  29.1336436 117.8763588  65.3126120  27.8510012 116.4144997  64.7029988
  27.7880012 115.4594997  63.4519988  26.2260012 115.1174997  63.3119988
  25.5450012 114.7084997  64.4899988  25.1623674 115.5591848  65.0387384
  26.2485414 114.2079999  65.1490345  24.3960012 113.6404997  64.2169988
  23.5169553 114.1259053  63.8121423  24.1323161 113.1686505  65.1525230
  24.7300012 112.4834997  63.2349988  26.0370012 111.8904997  63.6379988
  26.7612137 112.6871961  63.7386214  26.3492856 111.2114666  62.8585806
  25.9052680 111.3465334  64.5612886  23.6560012 111.5114997  63.2709988
  22.7185478 112.0318617  63.1480411  23.6924146 110.9825710  64.2065620
  23.8111905 110.8280002  62.4487812  24.8720012 113.0584997  61.8459988
  23.9532389 113.5547961  61.5709575  25.0736034 112.2583313  61.1497680
  25.6888496 113.7655654  61.8301345  28.2150012 116.1484997  62.1909988
  28.5400012 114.2414997  63.8269988  28.3920012 116.0304997  67.1829988
  28.1640012 114.9364997  67.9279988  28.8420012 113.8764997  67.8189988
  27.0690012 115.2394997  68.9509988  27.3427701 116.1993231  69.3768420
  26.1541467 115.4131205  68.3899247  26.8620012 114.1824997  70.0199988
  27.0047110 113.2101220  69.5615485  27.6469456 114.2821181  70.7629465
  25.4860012 114.2184997  70.7059988  25.2017687 115.2383802  70.9523921
  24.7253248 113.8484129  70.0230110  25.4730012 113.3324997  71.9939988
  25.5496966 112.2786590  71.7327641  26.3142578 113.5452094  72.6491658
  24.1680012 113.5424997  72.7779988  24.2627947 114.3356964  73.5167505
  23.3600706 113.8425159  72.1134543  23.7670012 112.2384997  73.4799988
  22.7196819 112.3752430  73.7448094  23.7916482 111.4674512  72.7150185
  24.5520012 111.7284997  74.7279988  23.9520195 111.0419388  75.3138623
  25.4373689 111.1747643  74.4184069  24.9960012 112.9324997  75.5699988
  25.5273820 113.7484187  75.1036679  24.7470012 113.0374997  76.8659988
  25.1076952 113.9228455  77.3696579  24.0070012 112.0734997  77.7669988
  23.5930182 112.6019635  78.6240665  23.1718884 111.5804166  77.2820898
  25.0140012 110.9934997  78.2959988  24.4623557 110.1089761  78.6122428
  25.6504877 110.6755460  77.4724398  25.8890012 111.4854997  79.4449988
  26.4827348 112.3296612  79.0943156  25.2533839 111.8698694  80.2379392
  26.8470012 110.3864997  80.0289988  27.1612606 110.7545584  81.0031234
  26.2297665 109.5102438  80.2194770  28.0620012 109.9754997  79.2129988
  28.6390677 109.2542423  79.7886480  27.7338058 109.4488444  78.3210643
  28.9800012 111.1064997  78.8349988  29.7765983 110.7131145  78.2060599
  28.4254493 111.8090179  78.2155034  29.6150012 111.8804997  79.9999988
  28.9244194 112.6453984  80.3463247  29.7267487 111.1853437  80.8292054
  30.9940012 112.5264997  79.7019988  31.4107072 112.9762003  80.5982099
  30.9229575 113.3054432  78.9503733  31.7029494 111.7856184  79.3433508
 115.2930012  20.5234997  84.8079988 115.5393862  20.0105750  85.7324617
 116.0282557  21.3089512  84.6588124 115.4035421  19.8109531  83.9951826
 113.8460012  21.1054997  84.8509988 113.8022308  21.7647262  85.7162776
 113.1889519  20.2685397  85.0714491 113.3590012  21.8344997  83.6589988
 113.9657699  22.7305157  83.5289376 112.3496060  22.1823152  83.8695141
 113.3360012  21.0194997  82.3049988 112.9094022  20.0395602  82.5074386
 114.3608696  20.8414522  81.9830519 112.5750012  21.6484997  81.1969988
 112.9391823  22.6643380  81.0665478 111.5388729  21.7345251  81.5201130
 112.6260012  20.9084997  79.8139988 112.3325410  19.8711159  79.9641089
 113.6576161  20.8859196  79.4692703 111.7500012  21.5274997  78.7349988
 112.1634107  21.3649857  77.7412927 111.6664274  22.6065537  78.8570141
 110.3650012  20.9054997  78.8099988 110.1014222  20.9000900  79.8668563
 110.4930457  19.8633177  78.5233887 109.1790012  21.5294997  77.9819988
 108.9606917  22.5102939  78.3990414 108.2925967  20.9210605  78.1571155
 109.4170012  21.6624997  76.4439988 110.0955407  22.5011165  76.3039809
 108.4679516  21.9601531  75.9988737 109.9610012  20.4054997  75.6979988
 109.3064942  19.5657190  75.9214493 110.9362165  20.1454921  76.1060172
 110.0680012  20.5384997  74.2009988 110.6674552  21.4157031  73.9699405
 109.0744507  20.7358332  73.8027691 110.6260012  19.3414997  73.5149988
 109.8516955  18.5980946  73.3331977 111.3953060  18.8431333  74.0981582
 111.2040012  19.7464997  72.1819988 112.2185704  20.0887079  72.3577480
 110.6337421  20.6102396  71.8505627 111.2110012  18.6964997  71.0469988
 110.2119192  18.3158691  70.8767146 111.8598709  17.8675572  71.3036920
 111.7040012  19.1974997  69.6949988 112.8560012  19.5864997  69.5739988
 110.7850012  19.1194997  68.6789988 111.1320012  19.7504997  67.4619988
 110.8516662  19.0768042  66.6663803 112.2096743  19.7943645  67.5243565
 110.5300012  21.1644997  67.2089988 109.4533638  21.1538468  67.2494041
 111.0070012  21.6834997  65.8029988 110.4818484  22.5853751  65.5190335
 110.8180287  20.9223103  65.0563629 112.4270012  21.9384997  65.9149988
 113.0010012  23.3684997  65.4729988 112.5230012  23.5624997  63.9689988
 113.0420012  22.5984997  63.0629988 113.0390176  21.5855168  63.4438475
 114.0705609  22.8244953  62.7969388 112.2300012  22.6984997  61.7059988
 112.7698020  22.0703433  61.0086584 112.2380791  23.7138825  61.3367978
 110.7690012  22.2374997  61.6379988 109.8400012  22.8194997  62.6569988
 110.2778626  22.6900106  63.6372253 108.9055919  22.2810175  62.6020769
 109.6726163  23.8605084  62.4246194 110.1660012  22.4634997  60.2289988
 110.8413364  22.0485104  59.4965916 110.0184622  23.5175159  60.0752064
 109.2189065  21.9446414  60.1959109 110.8130012  20.7494997  61.7729988
 111.4200381  20.3383200  60.9802065 109.8097626  20.3570277  61.7013869
 111.2361551  20.4867075  62.7318084 112.4180012  24.4834997  66.3059988
 114.4380012  23.2084997  65.4519988 111.0490012  22.0754997  68.1569988
 110.2460012  23.0534997  68.5879988 109.2100012  23.3414997  68.0199988
 110.7940012  23.7974997  69.7439988 110.4640059  24.8283875  69.6670156
 110.3654044  23.4161919  70.6674793 112.3190012  23.6844997  69.7569988
 112.5798562  22.6336728  69.8184683 112.7044656  24.0341817  68.8045427
 113.0260012  24.4654997  70.9439988 114.1037527  24.5422622  70.8247796
 112.6577225  25.4844194  71.0347638 112.6900012  23.7024997  72.2449988
 111.7339261  24.0400473  72.6408373 112.5874239  22.6338334  72.0728585
 113.7530012  23.9284997  73.3059988 113.6513933  23.2240152  74.1289681
 114.7467129  23.7691503  72.8918422 113.6720012  25.3624997  73.8499988
 113.7674653  26.0700207  73.0278056 112.7016814  25.5472992  74.3023776
 114.7580012  25.6454997  74.8889988 115.7309921  25.4996068  74.4344838
 114.7043402  26.6969971  75.1679607 114.6090012  24.8104997  76.1309988
 114.9295048  23.7974498  75.9397883 114.1710012  25.0994997  77.4019988
 114.1122396  24.2995039  78.1259903 113.7250012  26.5234997  77.9679988
 114.4362081  26.7564091  78.7586687 113.8827384  27.2625766  77.1904608
 112.2970012  26.6774997  78.5409988 112.1201375  27.7036514  78.8610564
 111.5610969  26.4703536  77.7664057 112.0590012  25.6924997  79.7639988
 112.3272656  24.6767997  79.4733188 112.7150296  25.9554755  80.5892105
 110.6090012  25.7124997  80.2409988 110.2662807  26.7445441  80.2649134
 109.9855033  25.2017447  79.5092442 110.4060012  25.0504997  81.6419988
 110.8188872  24.0447958  81.5902799 111.0208949  25.5872008  82.3592732
 108.9300012  24.9404997  82.1739988 108.7352823  25.8055409  82.8054030
 108.2607593  25.0330613  81.3205460 108.5420012  23.6374997  82.9749988
 108.7625833  22.7869950  82.3347642 109.2534176  23.5822063  83.7960605
 107.1730012  23.5004997  83.5219988 107.0848964  22.5975209  84.1186025
 106.4263041  23.4455742  82.7370353 106.9207840  24.3436617  84.1588702
  33.6770012 120.1864997  82.2189988  34.1737525 119.6737090  83.0367474
  33.6854099 121.2497522  82.4408395  34.2717667 120.0329057  81.3227427
  32.2240012 119.6634997  82.0229988  31.7055468 119.8046276  82.9698308
  32.2982185 118.5898427  81.8727771  31.3950012 120.3004997  80.8919988
  31.4013438 121.3689348  81.1072547  30.3778191 119.9617844  81.0785023
  31.7220012 120.0774997  79.3809988  31.8883599 119.0140443  79.2240357
  32.6658513 120.5679017  79.1478490  30.6450012 120.5554997  78.3989988
  30.3738743 121.5854231  78.6165327  29.7419430 119.9647812  78.5435761
  31.0800012 120.4574997  76.9489988  30.1694865 120.5505412  76.3598270
  31.4278725 119.4358423  76.8119630  32.1210012 121.4144997  76.4139988
  32.6187964 120.9219410  75.5807185  32.8764930 121.5403412  77.1883540
  31.6460012 122.7324997  75.9829988  31.1248500 123.2886375  76.7611782
  30.9721254 122.7009924  75.1288426  32.9640012 123.5104997  75.5789988
  33.6294842 122.8022843  75.0900158  33.4649828 123.8132228  76.4976680
  32.7790012 124.7184997  74.6909988  32.1963435 125.4647542  75.2266416
  32.1873518 124.4364879  73.8204533  34.1220012 125.3334997  74.2169988
  34.8144567 125.3867739  75.0543805  33.9720645 126.3587757  73.8831483
  34.7850012 124.5264997  73.0919988  33.9835235 124.2836331  72.3985520
  35.0839901 123.5865546  73.5521931  35.9990012 125.1094997  72.3219988
  36.7854818 125.3433085  73.0375640  35.7271409 126.0498356  71.8506874
  36.5930012 124.1624997  71.2529988  35.8444183 123.7694647  70.5729310
  37.0866059 123.3067831  71.7059838  37.6110012 124.9424997  70.4699988
  38.3507668 125.3726942  71.1331130  37.1311471 125.7423998  69.9186651
  38.0040012 124.2374997  69.0849988  38.8750012 123.4514997  68.8869988
  37.0950012 124.6494997  68.1739988  37.0580012 124.0934997  66.8269988
  38.1067641 123.9245242  66.6346303  36.6776877 124.8061577  66.1095922
  36.2630012 122.7354997  66.7489988  36.8731454 121.9530925  67.1690666
  36.0110012 122.4584997  65.2649988  36.9362976 122.4987165  64.7064201
  35.3390509 123.2143946  64.8780999  35.4050012 121.1344997  65.1549988
  35.0270012 120.7704997  63.6859988  34.3530012 119.3524997  63.8739988
  33.3860012 119.0164997  64.8449988  33.0479473 119.8756260  65.4096318
  33.8094540 118.3220329  65.5648603  32.1840012 118.2594997  64.2049988
  31.4525048 118.2661478  65.0031954  32.4299076 117.2344832  63.9678318
  31.4370012 118.8334997  62.9309988  32.3240012 118.6414997  61.6939988
  33.3064962 119.0389553  61.9086297  31.8800051 119.1907479  60.8771182
  32.3591941 117.5908952  61.4476076  30.1860012 118.0294997  62.6919988
  29.6376981 117.9649410  63.6193121  30.4590528 117.0551901  62.3279470
  29.6008715 118.5549824  61.9511964  31.0330012 120.2364997  63.1369988
  30.3889340 120.2977942  64.0015811  30.5012295 120.5843022  62.2641286
  31.9117702 120.8459141  63.2913166  34.0040012 121.6814997  63.1059988
  36.2730012 120.5954997  62.8549988  35.0840012 122.7894997  67.5469988
  34.5730012 121.6324997  68.0109988  34.9800012 120.5494997  67.7189988
  33.3850012 121.8664997  68.9089988  33.4910588 122.8566803  69.3400987
  32.4787440 121.8986932  68.3093585  33.2960012 120.7784997  69.9859988
  32.3003808 120.8151849  70.4143155  33.3800336 119.8094151  69.5044942
  34.3250012 120.8914997  71.1049988  35.2914666 120.5252684  70.7681410
  34.4683712 121.9399005  71.3547302  33.8940012 120.1474997  72.3619988
  32.9722360 120.5628736  72.7651358  33.6990713 119.0930423  72.1822102
  34.9930012 120.2744997  73.4349988  35.9863184 120.3358917  72.9951659
  34.8641618 121.1830361  74.0200996  34.9300012 119.0854997  74.3679988
  33.9083563 118.9270216  74.7097991  35.2308244 118.1701296  73.8660814
  35.8520012 119.3044997  75.5939988  36.8757478 119.3782415  75.2460260
  35.6061479 120.2714702  76.0308857  35.7140012 118.2404997  76.6639988
  35.0181379 117.4315241  76.5000264  36.4360012 118.2224997  77.8479988
  36.3123731 117.4478650  78.5911456  37.4470012 119.2544997  78.2089988
  38.2613044 118.7796483  78.7536522  37.8943664 119.7159102  77.3357029
  36.8400012 120.3414997  79.1049988  35.8828727 120.6590579  78.6929710
  36.6223783 119.9114523  80.0807849  37.7250012 121.5284997  79.2789988
  38.6938225 121.1793510  79.6361926  37.9032851 121.9738519  78.3041243
  37.1870012 122.6004997  80.2409988  37.3472224 123.5767982  79.7889863
  36.1089031 122.4814120  80.3337765  37.8180012 122.5594997  81.6279988
  38.2188572 121.5651023  81.8152908  38.6673574 123.2355282  81.6749494
  36.7840012 122.8994997  82.7949988  35.9977133 122.1482186  82.8420218
  37.2814208 122.8767252  83.7629290  36.1130012 124.3174997  82.6099988
  36.8748933 125.0884314  82.5257392  35.5823409 124.3208408  81.6604191
  35.1330012 124.6904997  83.7209988  34.6379251 125.6309690  83.4985440
  35.6296248 124.8032178  84.6788091  34.3646150 123.9310903  83.8351090
 128.8900012  44.8804997  80.0809988 128.5078728  44.0129048  80.6098522
 129.8325792  45.1609760  80.5421599 129.1011562  44.5779623  79.0589925
 127.8250012  46.1134997  80.1189988 127.6090131  46.4038752  81.1457578
 126.8774754  45.8103607  79.6818309 128.3930012  47.3214997  79.3619988
 127.6808715  48.1415687  79.4530328 128.4183105  47.0605050  78.3058680
 129.7760012  47.8094997  79.7719988 130.4768886  46.9837904  79.6709495
 129.7667740  48.0693865  80.8293916 130.3140012  49.0294997  78.9409988
 130.7746857  48.6583207  78.0290947 131.1092488  49.5033790  79.5140473
 129.2720012  50.0694997  78.5769988 128.9039817  50.5610124  79.4757723
 128.4098031  49.5912347  78.1171573 129.8680012  51.1834997  77.5639988
 130.7962712  51.5774197  77.9737690 129.1773225  52.0240548  77.5124231
 130.1310012  50.6394997  76.1149988 130.0003513  51.4668872  75.4187148
 129.3497498  49.9188107  75.8806107 131.5110012  49.9884997  75.8789988
 131.6740621  49.0931568  76.4750804 132.3458900  50.6537214  76.0958344
 131.5330012  49.6024997  74.3249988 131.5997281  50.5512685  73.7970932
 130.5424302  49.2025585  74.1099518 132.6160012  48.6114997  73.7839988
 132.4295237  47.6269799  74.2076590 133.5967045  48.9154183  74.1459138
 132.6600012  48.4764997  72.2179988 133.2000424  49.3274612  71.8100295
 131.6421697  48.5528871  71.8400384 133.2800012  47.1564997  71.7039988
 132.7655436  46.3073129  72.1506164 134.3231022  47.0672501  71.9942552
 133.1720012  47.0264997  70.1799988 133.9583505  46.4002101  69.7716348
 133.2673710  47.9999581  69.7063162 131.8010012  46.4294997  69.8029988
 131.0002291  47.0206708  70.2288177 131.7173488  45.4139697  70.1714688
 131.6520012  46.2154997  68.2919988 132.3940012  46.5244997  67.3499988
 130.4700012  45.6284997  68.1839988 129.9840012  45.3424997  66.8889988
 129.6133061  44.3286352  66.9002212 130.8110296  45.4085172  66.1970034
 128.8680012  46.3094997  66.5009988 127.9214742  45.8053837  66.6051518
 129.0590012  46.7924997  65.0039988 128.0942545  47.0733781  64.6037837
 129.4331612  45.9443139  64.4443827 130.0210012  47.9444997  64.9149988
 130.1690012  48.8074997  63.5379988 131.5930012  48.4224997  62.8729988
 132.5940012  48.0584997  63.7999988 132.5575747  48.7384461  64.6411498
 133.5527257  48.2191320  63.3153943 132.6220012  46.5564997  64.2859988
 131.6822403  46.3797932  64.7938111 133.4274798  46.4452488  64.9974792
 132.7750012  45.4394997  63.3189988 132.8020012  44.1164997  64.0659988
 133.5364419  44.1815848  64.8570075 133.0879861  43.3448489  63.3668080
 131.8139590  43.9102104  64.4493191 131.5790012  45.4054997  62.4239988
 131.4131914  46.3986854  62.0356649 130.7306966  45.0558258  62.9847818
 131.7997163  44.7234853  61.6156435 134.0090012  45.5084997  62.5159988
 134.0266642  46.4402958  61.9705394 134.0268867  44.6821131  61.8214375
 134.8679064  45.4502991  63.1689379 129.1310012  48.4154997  62.6339988
 130.1630012  50.2684997  63.8089988 128.8870012  47.4844997  67.3509988
 127.8740012  48.3014997  67.3039988 126.8420012  48.1544997  66.7199988
 128.0730012  49.6584997  68.1239988 129.0692706  49.7310986  68.5479442
 127.9386437  50.5556308  67.5248236 127.0150012  49.5544997  69.1879988
 126.8886274  50.5086595  69.6876684 126.0494975  49.3120131  68.7555222
 127.4110012  48.4704997  70.2459988 127.5880970  47.5216476  69.7460280
 128.3583196  48.7576552  70.6956590 126.3410012  48.2854997  71.3979988
 126.1146031  49.2688786  71.8059396 125.4121064  47.9107198  70.9750372
 126.7670012  47.3634997  72.5609988 125.9306008  46.8163634  72.9910886
 127.4855378  46.6129565  72.2373151 127.4200012  48.2324997  73.6469988
 128.0929583  48.9821201  73.2335997 126.7056049  48.7692794  74.2649174
 128.2630012  47.2174997  74.5909988 128.5577426  47.7504662  75.4874664
 127.5892529  46.4246178  74.9130974 129.4490012  46.5944997  73.9179988
 129.6962663  46.9477661  72.9282428 130.2400012  45.6434997  74.4439988
 131.0716974  45.1963793  73.9186658 130.0340012  45.1044997  75.8559988
 129.4914874  45.8571228  76.4256111 129.4066856  44.2201508  75.8468698
 131.3350012  44.7954997  76.5909988 131.0670565  44.4288512  77.5811905
 131.7951145  43.9571352  76.0714801 132.3670012  45.9374997  76.7259988
 132.5121629  46.4482502  75.7740697 132.0345311  46.6955905  77.4297501
 133.7530012  45.3354997  77.2129988 133.5934758  44.7997289  78.1460831
 134.0977065  44.5957847  76.4925233 134.8220012  46.3854997  77.3979988
 135.6865125  45.9112653  77.8587719 135.1544238  46.7221581  76.4198468
 134.4140012  47.6344997  78.2939988 134.9144024  48.5580753  78.0085350
 133.3473866  47.8508444  78.2749613 134.8300012  47.2744997  79.7899988
 134.4671188  46.3017266  80.1124022 135.9123716  47.2349697  79.8911157
 134.2990012  48.3344997  80.7079988 134.6386285  48.1683152  81.7258912
 133.2144717  48.3495733  80.7255967 134.6377662  49.3206114  80.4031007
  62.5170012 135.4324997  79.2059988  62.1529152 136.3546433  79.6481770
  62.9450878 135.6757647  78.2378283  63.3195593 135.0584170  79.8357404
  61.3880012 134.3924997  79.0709988  60.5857571 134.7930841  78.4536337
  60.9528145 134.1959149  80.0471038  61.8990012 133.0874997  78.4489988
  62.6744679 132.6111229  79.0487032  62.3364219 133.2511755  77.4661232
  60.6690012 132.0904997  78.2939988  59.9879601 132.5241120  77.5650177
  60.1268760 132.0700647  79.2381326  60.9910012 130.6804997  77.8729988
  60.0617412 130.1202830  77.9378545  61.6417208 130.2839491  78.6506083
  61.6310012 130.4264997  76.4979988  61.8215406 129.3589334  76.4041157
  62.6045079 130.9118569  76.4809710  60.7740012 130.9214997  75.2449988
  61.0123936 131.9734757  75.0991031  59.7283533 130.8856270  75.5475938
  60.9370012 130.1974997  73.9549988  60.1660963 130.5591823  73.2757769
  60.7143232 129.1475780  74.1360045  62.3420012 130.3164997  73.2559988
  62.2186088 129.8839703  72.2654264  63.0034922 129.6439107  73.8006369
  63.0020012 131.6744997  73.1319988  64.0380699 131.5150123  72.8414402
  63.0291382 132.1289074  74.1220524  62.3310012 132.6324997  72.1609988
  62.8209290 133.5984030  72.2636752  61.3023805 132.7793415  72.4858141
  62.3420012 132.2484997  70.7089988  61.8975299 131.2641715  70.5834503
  63.3712207 132.1633282  70.3653084  61.6430012 133.2324997  69.8629988
  61.1911561 133.9250083  70.5711794  60.8222701 132.6900797  69.4020701
  62.3600012 134.0534997  68.7939988  62.9159581 133.4194022  68.1112270
  63.0789164 134.7256574  69.2549293  61.3660012 134.8774997  68.0089988
  60.7759388 135.4946731  68.6745545  60.6986811 134.2322017  67.4501218
  62.0770012 135.7724997  66.9899988  62.5910012 136.8364997  67.2549988
  62.0590012 135.1744997  65.8359988  63.0220012 135.6904997  64.8809988
  63.8398059 136.2257032  65.3394904  62.5041257 136.3516450  64.2013784
  63.5670012 134.3944997  64.1159988  64.2676612 134.6605181  63.3419163
  62.4300012 133.5364997  63.5219988  62.8281568 132.8130196  62.8235364
  61.7458289 134.1886966  62.9936689  61.7720012 132.8894997  64.5759988
  60.6680012 131.7964997  64.2089988  61.6860012 130.6984997  63.5509988
  62.4690012 129.8734997  64.4109988  62.0143623 128.9033831  64.5638592
  62.5406543 130.3378251  65.3903173  63.8470012 129.7394997  63.9489988
  64.4103415 129.0609841  64.5771017  64.3235876 130.7089296  63.9701624
  64.0110012 129.2324997  62.5539988  65.4260012 128.8414997  62.5219988
  66.0211980 129.6695170  62.8818071  65.6882895 128.6232334  61.4974673
  65.5589280 127.9568514  63.1265191  63.1480012 128.0314997  62.3539988
  62.1504032 128.2661260  62.6923223  63.5645700 127.2048057  62.9011893
  63.1387847 127.8128947  61.2959704  63.7630012 130.3084997  61.5289988
  62.7641040 130.6982086  61.6571136  63.8627797 129.8863359  60.5403269
  64.4847800 131.1022073  61.6574452  60.0130012 131.2124997  65.3719988
  59.8040012 132.3364997  63.1539988  64.2170012 133.5494997  65.1309988
  65.1380012 132.6994997  64.6299988  65.2910012 132.4524997  63.4239988
  65.6910012 131.9084997  65.7509988  64.9399457 131.8770687  66.5336102
  65.8337552 130.8783602  65.4342322  67.0060012 132.5214997  66.2429988
  67.4648237 131.7455469  66.8458588  67.6258348 132.6193970  65.3574168
  67.0110012 133.8354997  67.0289988  68.0287037 134.1693673  67.2146540
  66.5391035 134.6160254  66.4372580  66.2460012 133.6994997  68.3649988
  65.1930472 133.5362823  68.1428412  66.5843268 132.8154445  68.8999607
  66.3620012 134.9314997  69.3069988  67.3696515 135.3361615  69.2377842
  65.6974494 135.7079566  68.9330115  66.0190012 134.6594997  70.7909988
  66.4328599 135.4881394  71.3635178  64.9396966 134.7212645  70.8987241
  66.5140012 133.2894997  71.4189988  65.9967405 132.4622916  70.9470366
  67.5718498 133.1571773  71.1958552  66.3270012 133.2624997  72.9409988
  65.8700345 134.1590168  73.3321412  66.6290012 132.3154997  73.8069988
  66.4144788 132.4106906  74.8617636  67.3090012 130.9794997  73.4189988
  67.2723738 130.8306053  72.3411723  68.3550237 130.9200602  73.6982563
  66.5280012 129.8214997  74.0959988  65.4889320 129.8149169  73.7688949
  66.9467932 128.8631923  73.7948023  66.5840012 129.9404997  75.6639988
  67.5965166 130.0711284  76.0459091  66.0013783 130.7682317  76.0588586
  66.0120012 128.6154997  76.1899988  65.0733040 128.4184718  75.6769952
  66.6849198 127.8051634  75.9150066  65.7960012 128.5974997  77.6859988
  65.3850492 127.6147526  77.9094192  66.7872421 128.6127627  78.1307836
  64.8520012 129.7054997  78.3969988  65.2271164 130.6902055  78.1240041
  63.8594699 129.6279868  77.9568768  64.7110012 129.6414997  79.9499988
  63.9981258 130.3976936  80.2692080  64.2513193 128.6838268  80.1842386
  66.0470012 129.7854997  80.7939988  65.8519945 129.6397471  81.8522037
  66.4960135 130.7661848  80.6783026  66.7832746 129.0474121  80.4885986
   5.7010012  63.6944997  82.9149988   6.2990297  64.2981933  83.5905317
   5.4247142  62.7847636  83.4401995   4.7869379  64.2425377  82.7034456
   6.4900012  63.3694997  81.5839988   7.4115058  62.8457290  81.8323867
   6.7868424  64.3028303  81.1132618   5.6630012  62.5054997  80.5859988
   4.7680967  63.0623253  80.3084737   5.3152882  61.6234614  81.1201103
   6.4000012  62.0424997  79.2959988   7.4024935  61.7165406  79.5643452
   6.5282295  62.8906839  78.6252924   5.7040012  60.9124997  78.5519988
   4.6306847  60.9162312  78.7239024   6.0643522  59.9426860  78.8910764
   5.9700012  61.0534997  77.0289988   5.6889314  62.0624292  76.7325566
   5.2909407  60.3827885  76.5068872   7.4170012  60.7714997  76.5699988
   8.0326071  61.4973058  77.0982077   7.4456135  61.0558272  75.5190139
   8.0470012  59.3334997  76.7379988   7.6328944  58.6491457  75.9986570
   7.7936204  58.9184914  77.7117802   9.5690012  59.3764997  76.5889988
   9.9642201  58.4435592  76.9851870   9.9413152  60.1652758  77.2415258
  10.1190012  59.5994997  75.1469988  11.1368651  59.2160309  75.1327276
  10.1960027  60.6754744  74.9927969   9.2740012  58.9554997  73.9489988
   8.2529303  59.3308942  73.9431367   9.1976153  57.8733695  74.0400346
   9.9270012  59.3064997  72.6009988   9.8534536  58.4812224  71.8969198
  10.9897128  59.5060874  72.7254123   9.2570012  60.5604997  72.0179988
   9.7342362  61.4528716  72.4194599   8.2108877  60.6196422  72.3050923
   9.3620012  60.6174997  70.4599988  10.1995831  60.0173188  70.1200216
   9.5655283  61.6413478  70.1576684   8.0820012  60.1444997  69.7539988
   7.2262302  60.7082067  70.1031856   7.9093143  59.0929556  69.9502216
   8.1910012  60.2444997  68.2569988   9.1750012  60.5924997  67.5909988
   7.0030012  59.9684997  67.7469988   6.7630012  60.1554997  66.3049988
   6.4105324  59.2034544  65.9377964   7.7170812  60.3783493  65.8497392
   5.7000012  61.2964997  65.9879988   4.7517266  61.0106791  66.4122345
   5.5430012  61.5484997  64.4819988   4.8151440  62.3288361  64.3056466
   5.1927398  60.6357151  64.0164600   6.8060012  61.9194997  63.9539988
   7.1530012  62.0724997  62.4599988   8.0520012  63.3504997  62.3829988
   8.2790012  64.1654997  63.5159988   7.3349634  64.5753796  63.8506330
   8.8823913  65.0079021  63.1903064   9.0660012  63.5334997  64.7019988
   8.6275069  62.6083936  65.0543489   9.0772105  64.2444672  65.5154953
  10.5500012  63.2084997  64.4009988  11.3480012  64.4704997  64.1779988
  10.8364643  65.0771470  63.4433947  12.3203882  64.1879424  63.8028656
  11.4587807  64.9861939  65.1200733  11.1600012  62.4974997  65.5769988
  10.5117520  61.6817922  65.8582608  11.2846360  63.1970484  66.3841343
  12.1202310  62.1159658  65.2612655  10.8280012  62.4424997  63.1269988
  10.2945140  61.5039852  63.1527678  11.8883434  62.2541222  63.0505897
  10.5024710  63.0253200  62.2774191   7.9310012  60.8114997  62.1389988
   5.9110012  62.3674997  61.7449988   6.1520012  62.5304997  66.6079988
   5.1380012  63.3074997  66.9479988   3.9590012  63.0284997  66.9779988
   5.6820012  64.6974997  67.4169988   6.3003729  65.1317833  66.6381746
   4.8767716  65.4076131  67.5880288   6.4750012  64.4424997  68.7029988
   5.9177804  63.7703942  69.3463030   7.4077742  63.9361087  68.4759839
   6.7610012  65.7464997  69.4649988   6.9116579  66.5848836  68.7896700
   5.9171358  66.0136506  70.0963359   8.0120012  65.5564997  70.3649988
   8.8187068  65.0991379  69.7951285   8.3977021  66.5052985  70.7299885
   7.7050012  64.6754997  71.5379988   6.7702478  64.9824270  72.0026845
   7.5500213  63.6558807  71.1905231   8.7730012  64.6704997  72.5479988
   9.6331211  64.1195406  72.1707205   9.1199965  65.6801033  72.7495249
   8.2910012  64.0204997  73.9069988   7.5405232  64.6251242  74.4027729
   7.8358407  63.0458208  73.7361888   9.5320012  63.8344997  74.7989988
  10.1630856  62.9717839  74.6473152   9.9080012  64.7254997  75.7939988
  10.7863448  64.5089007  76.3849365   9.2160012  66.0184997  76.1679988
   9.9574573  66.7539678  76.4754894   8.6738470  66.4618374  75.3402298
   8.2580012  65.7874997  77.3369988   7.7502008  66.7374956  77.4993306
   7.5028663  65.1006433  76.9595617   8.7880012  65.2684997  78.6519988
   7.9311528  64.8763612  79.1998539   9.4205358  64.4145233  78.4258830
   9.5880012  66.2914997  79.5869988  10.3412797  66.7878780  78.9792776
   8.9033134  67.0700823  79.9188071  10.2330012  65.6564997  80.7849988
  10.8717282  66.3980580  81.2611384   9.4630577  65.4165837  81.5131831
  11.1600012  64.3084997  80.4699988  11.5626961  64.3665969  79.4603729
  12.0197661  64.2927992  81.1373755  10.3750012  62.9284997  80.6239988
  10.1639223  62.7941178  81.6819696   9.4105654  63.0925579  80.1483292
  11.0100012  61.6014997  80.0409988  10.3224414  60.7674478  80.1443818
  11.9273972  61.3318816  80.5532796  11.2414593  61.7104663  78.9852079
 116.5910012 115.9444997  82.1989988 116.2133555 116.7970689  81.6431764
 116.4624101 116.1552935  83.2567418 115.9668926 115.0889001  81.9559968
 118.0140012 115.6764997  81.8739988 118.6731612 116.5068325  82.1215030
 118.1753984 115.4621271  80.8209986 118.4000012 114.4454997  82.7339988
 117.7565277 113.6161609  82.4406252 118.1410777 114.6773525  83.7651990
 119.8260012 114.0014997  82.6919988 119.9085318 113.0322694  83.1788575
 120.4418366 114.6849009  83.2745925 120.4120012 113.8844997  81.2349988
 121.4533606 113.5877082  81.3301745 120.4180060 114.8929955  80.8247975
 119.7180012 112.9454997  80.2519988 118.8331313 113.4809930  79.9127802
 119.3579058 112.1109823  80.8499026 120.4900012 112.3974997  79.0199988
 121.4782043 112.0378533  79.3008530 120.6498817 113.1761710  78.2754592
 119.6890012 111.2414997  78.3839988 118.6369918 111.5154446  78.4524199
 119.8203053 110.3758890  79.0306527 120.0200012 110.8414997  76.9199988
 121.0910808 110.8111864  76.7318218 119.6042569 111.5409344  76.1957580
 119.4180012 109.4394997  76.6779988 118.3379289 109.4882433  76.7978609
 119.7792427 108.7522100  77.4425682 119.7770012 108.8664997  75.2559988
 119.3147958 107.8848093  75.1773145 120.8520203 108.6977753  75.2244728
 119.3500012 109.7144997  74.0089988 119.6832548 110.7457944  74.0961322
 118.2660362 109.7520186  73.9179913 119.9080012 109.0994997  72.7789988
 119.5138262 108.0888526  72.6869624 120.9860316 108.9986416  72.8681732
 119.5900012 109.8344997  71.5179988 118.5087288 109.8821780  71.4410444
 119.9354104 109.2001440  70.7059783 120.1840012 111.2684997  71.3169988
 121.2612726 111.2507088  71.4228795 119.7738110 111.9530803  72.0499124
 119.8350012 111.9154997  69.9529988 119.4990012 113.0954997  69.7789988
 119.9890012 110.9864997  69.0319988 119.9580012 111.2574997  67.6509988
 120.7161893 110.6550983  67.1737930 120.1746601 112.3014194  67.4764065
 118.5170012 110.8734997  67.0939988 118.3280212 109.8292595  67.2803935
 118.4860012 111.1614997  65.5069988 119.2807491 110.6657274  64.9662709
 118.5337400 112.2229154  65.2979469 117.2360012 110.6434997  65.1279988
 115.9840012 111.4204997  64.5379988 116.6660012 112.3114997  63.3749988
 117.0530012 113.6944997  63.6109988 117.5162444 113.8718856  64.5728350
 116.1964218 114.3599696  63.5542662 117.9520012 114.1174997  62.4969988
 118.0634222 115.1919723  62.5700935 117.4582861 113.8821462  61.5652095
 119.3480012 113.5684997  62.3749988 119.3870012 112.0744997  62.1379988
 118.7743495 111.5901875  62.8859518 120.4111917 111.7476524  62.2395104
 119.0385622 111.8692247  61.1369146 119.9690012 114.4094997  61.2389988
 119.7947272 115.4533016  61.4507064 119.5251006 114.1184739  60.3037842
 121.0299194 114.2054248  61.2288533 120.0470012 113.8584997  63.6679988
 120.0427883 114.9240181  63.8433117 121.0655761 113.5056659  63.6074730
 119.5368438 113.3527767  64.4751039 115.0660012 110.4084997  64.0379988
 115.5410012 112.3754997  65.5729988 117.5060012 111.6424997  67.7189988
 116.7740012 110.8814997  68.5409988 116.9360012 109.7034997  68.7939988
 115.7140012 111.8514997  69.0399988 116.2160677 112.7667094  69.3364332
 115.0543273 112.1261230  68.2206579 114.9280012 111.2304997  70.1949988
 114.0024994 111.7891606  70.2810540 114.6457307 110.2267465  69.8936089
 115.6020012 111.1894997  71.5319988 114.8056917 111.1494688  72.2708782
 116.1015731 110.2246784  71.5721572 116.6390012 112.3074997  71.9169988
 117.5517576 112.1413153  71.3478201 116.2659488 113.2831411  71.6150755
 117.0120012 112.3564997  73.4509988 117.0780207 111.3513208  73.8622867
 117.9978424 112.8002206  73.5759382 115.9640012 113.2024997  74.2929988
 115.5787059 114.0168872  73.6814258 115.1077606 112.5913974  74.5645206
 116.5740012 113.7714997  75.5579988 116.9820670 112.9640140  76.1546805
 117.4155605 114.4068957  75.2852430 115.5250012 114.6444997  76.4049988
 115.6291175 115.6718311  76.0898736 114.6270012 114.3904997  77.3229988
 114.0489651 115.2218406  77.7003003 114.2720012 113.0634997  77.9429988
 113.5445950 113.2009337  78.7412551 113.8289534 112.3606326  77.2463155
 115.5720012 112.4334997  78.5649988 116.2819232 112.1215275  77.7998915
 116.0983106 113.1497708  79.1930218 115.1640012 111.2094997  79.4209988
 114.6375961 111.5599708  80.3087908 114.4535746 110.6025649  78.8665367
 116.3810012 110.3204997  79.8589988 116.9882101 110.1311247  78.9766273
 117.0030924 110.9017598  80.5373970 116.0120012 109.0194997  80.5169988
 115.1842017 108.5683955  79.9730841 116.8381533 108.3185416  80.4348073
 115.5890012 109.1634997  81.9859988 116.4785674 109.3863367  82.5724274
 114.9483152 110.0399503  82.0646733 114.8390012 107.9284997  82.6539988
 113.8789068 107.8578151  82.1488873 115.4117543 107.0649145  82.3231097
 114.6310012 107.8294997  84.1409988 114.1805832 106.8772962  84.4046294
 113.9776407 108.6119270  84.5120359 115.5747330 107.9076830  84.6733506
  90.4970012  14.7314997  83.0539988  89.7870383  15.4513198  83.4492716
  91.2177621  14.5129904  83.8366528  89.9542266  13.8145140  82.8415253
  91.1890012  15.2654997  81.7969988  91.6717093  16.2029188  82.0679993
  90.4050751  15.5195286  81.0886604  92.2360012  14.3254997  81.1239988
  92.8258755  13.9237062  81.9477337  92.8966577  14.9980688  80.5805334
  91.8140012  13.1364997  80.1509988  90.8048999  12.8454558  80.4342975
  92.4502740  12.2841931  80.3843149  91.8430012  13.3864997  78.6829988
  91.4966418  14.4012102  78.5041955  91.1065588  12.7273649  78.2263161
  93.1790012  13.1954997  77.9949988  93.7043768  12.3666276  78.4659219
  93.7927732  14.0782765  78.1610285  93.0640012  12.9264997  76.4469988
  92.2156590  12.2634905  76.2872975  93.9478829  12.3688976  76.1403020
  92.9110012  14.1804997  75.5449988  91.9865395  14.6846392  75.8236832
  92.7760758  13.8437560  74.5188005  94.0820012  15.1934997  75.5999988
  94.9915114  14.6404585  75.3753268  94.1728674  15.5193751  76.6354337
  93.9950012  16.4534997  74.6659988  94.8238196  17.1184064  74.8989322
  93.0853865  17.0060346  74.8999547  94.0040012  16.1054997  73.1649988
  93.9394081  17.0369724  72.6066734  93.0964049  15.5507606  72.9333490
  95.2410012  15.3074997  72.6479988  95.2907891  14.3317885  73.1252072
  96.1582160  15.8262777  72.9204986  95.2020012  15.1444997  71.0889988
  96.2067195  15.1707695  70.6705456  94.6478608  15.9407845  70.5999866
  94.5970012  13.8514997  70.7349988  93.6367277  13.7975670  71.2373046
  95.2291610  13.0890161  71.1823071  94.4040012  13.5114997  69.2139988
  95.3453406  13.5917580  68.6853404  93.6923869  14.1924639  68.7623774
  93.7920012  12.1464997  68.8809988  93.5790012  11.3824997  69.7769988
  93.4690012  12.0614997  67.6219988  92.8930012  10.7814997  67.2029988
  92.6714961  10.2013409  68.0860691  93.5824216  10.2290059  66.5811933
  91.5690012  11.1104997  66.4209988  91.0833028  10.1916019  66.1370655
  91.7220012  12.0114997  65.2049988  90.8872865  11.8020968  64.5498630
  92.6335799  11.6837322  64.7210796  91.7910012  13.4564997  65.5089988
  92.4560012  14.5644997  64.6279988  91.2820012  15.0224997  63.6359988
  90.2130012  15.8124997  64.1919988  90.5984170  16.6443621  64.7670192
  89.6436031  15.1978239  64.8831981  89.1690012  16.3024997  63.1179988
  89.6394072  17.0164593  62.4537483  88.3568673  16.7924132  63.6354929
  88.4970012  15.2214997  62.1809988  87.9600012  14.0654997  62.9129988
  88.7321960  13.6805638  63.5648220  87.6851703  13.3117867  62.1901677
  87.0848087  14.3753831  63.4641134  87.4150012  15.7354997  61.2949988
  87.7799573  16.6115991  60.7812179  86.5499177  15.9617453  61.8923375
  87.1840299  14.9570927  60.5822352  89.5630012  14.6594997  61.2209988
  89.9831398  15.4690567  60.6429132  89.1011681  13.9431469  60.5582779
  90.3419702  14.1742450  61.7912357  92.8060012  15.5684997  65.6599988
  93.5780012  14.0854997  63.8289988  90.7490012  11.7674997  67.4369988
  89.5380012  12.1774997  67.1939988  88.8850012  11.8594997  66.2209988
  89.0300012  12.9944997  68.3869988  87.9595689  12.8199724  68.4226071
  89.4355105  12.5403868  69.2876933  89.3670012  14.4954997  68.3229988
  89.3682528  14.7968294  67.2812407  88.5655658  15.0540660  68.7960083
  90.6560012  14.8594997  68.9309988  91.3498119  14.0346534  68.7898986
  91.0602157  15.6956803  68.3657753  90.5990012  15.2614997  70.4479988
  91.6238742  15.4642698  70.7533272  90.0658594  16.2058066  70.5270328
  89.9860012  14.2594997  71.4439988  89.1302502  13.8000245  70.9536173
  90.7204108  13.4673902  71.5766117  89.5330012  14.8124997  72.9299988
  89.5380370  13.9240260  73.5595145  90.3569993  15.4336777  73.2698264
  88.1770012  15.6034997  73.1509988  87.8854947  16.0758102  72.2201246
  87.3928805  14.8861957  73.3896948  88.2640012  16.6134997  74.2699988
  88.5796858  17.5626977  73.8638949  88.0210012  16.5604997  75.6229988
  88.1408387  17.4354562  76.2456544  87.5530012  15.2774997  76.4029988
  86.7754451  15.5075425  77.1294338  87.1640078  14.4754094  75.7857336
  88.7810012  14.7844997  77.1589988  89.6014906  14.4634335  76.5183595
  89.1985973  15.5252999  77.8381802  88.2620012  13.5754997  77.9799988
  87.8653155  12.8073230  77.3161824  89.0697734  13.1083079  78.5365415
  87.1930012  14.0074997  78.9249988  87.4115192  15.0028524  79.3053510
  86.2356132  14.0811939  78.4121026  87.0690012  13.0314997  80.0739988
  86.8488605  12.0569797  79.6422130  88.0496908  12.9382588  80.5324516
  85.9890012  13.3274997  81.1719988  86.1423482  14.3145728  81.6044965
  84.9934383  13.3421027  80.7321405  86.0060012  12.2744997  82.3219988
  85.6947208  11.2974533  81.9608895  87.0296525  12.1496858  82.6682247
  85.1080012  12.6914997  83.5419988  85.2117885  11.9818954  84.3573263
  84.0568023  12.7307163  83.2770763  85.3902717  13.6708649  83.9179085
   8.0120012  75.6374997  80.3219988   7.5066214  74.6792441  80.2529592
   7.5676459  76.1877648  81.1463449   9.0507132  75.4456610  80.5767284
   7.9020012  76.4214997  79.0079988   6.8428475  76.5420589  78.7869510
   8.3075516  75.7890893  78.2228873   8.6120012  77.8564997  78.9809988
   9.6246854  77.7456862  79.3684520   8.0881067  78.4981014  79.6867273
   8.6650012  78.5694997  77.6209988   7.6617251  78.5536837  77.2009547
   9.2834356  77.9790498  76.9467482   9.1610012  79.9974997  77.6339988
  10.2442073  80.0050855  77.7244412   8.7765938  80.4920606  78.5245073
   8.7480012  80.8304997  76.3559988   7.7293404  80.5547218  76.0893646
   9.3764405  80.5106282  75.5275525   8.8430012  82.4234997  76.5069988
   9.7472726  82.6478239  77.0697969   8.0094128  82.7457973  77.1294814
   8.8440012  83.2244997  75.2169988   9.6532009  82.8398641  74.5975617
   9.1150604  84.2478130  75.4700614   7.5710012  83.2324997  74.4199988
   6.7817957  83.8048682  74.9027928   7.1696300  82.2315231  74.2666231
   7.8900012  83.8514997  73.0809988   8.4050063  84.7874809  73.2859572
   6.9393770  84.1205040  72.6212387   8.7220012  82.9924997  72.0749988
   9.7198532  82.8333954  72.4781341   8.8563105  83.5369803  71.1419233
   8.0670012  81.5564997  71.7619988   6.9828074  81.6063343  71.6967346
   8.2914793  80.8360310  72.5463484   8.6440012  81.0484997  70.4599988
   9.6828246  81.3685143  70.3992658   8.1320435  81.5167684  69.6239977
   8.6080012  79.5684997  70.2849988   7.6093896  79.1491422  70.2197360
   9.1220186  79.0344989  71.0798077   9.3430012  79.3154997  68.9779988
  10.3318545  79.7551651  69.0080711   8.7959677  79.7463659  68.1478315
   9.2210012  77.8354997  68.5419988  10.1480012  77.0684997  68.4739988
   7.9240012  77.6254997  68.2069988   7.7120012  76.3114997  67.7569988
   7.5443746  75.7618356  68.6709094   8.6010536  75.9319421  67.2745946
   6.4850012  76.1914997  66.8279988   6.2985843  75.1466486  66.6424483
   6.6410012  76.9624997  65.4539988   5.7405396  76.9403991  64.8552655
   7.4556113  76.5516125  64.8707603   6.9440012  78.3114997  65.8589988
   7.8800012  79.2884997  64.9529988   6.8480012  79.6724997  63.7339988
   5.5280012  80.0734997  64.1949988   5.4745810  80.2658838  65.2586357
   4.7922478  79.3028058  63.9840605   5.0460012  81.3644997  63.3459988
   5.4612173  82.2474912  63.8152221   3.9680682  81.4360217  63.3639471
   5.4390012  81.4464997  61.9049988   6.8230012  81.9674997  61.5859988
   6.9663870  82.9060156  62.1036495   6.8811148  82.1277522  60.5196771
   7.5524722  81.2284984  61.8817457   5.3010012  80.1334997  61.2399988
   4.3204547  79.7396172  61.4593143   6.0763687  79.4776562  61.5936152
   5.4055533  80.2971002  60.1771720   4.4470012  82.3674997  61.2859988
   3.4535384  81.9702788  61.4320444   4.6517027  82.4509589  60.2292198
   4.5229669  83.3418549  61.7467547   8.1730012  80.5134997  65.6759988
   9.0280012  78.5854997  64.3999988   5.4140012  76.6724997  67.5939988
   4.1400012  76.6014997  67.1419988   3.7770012  76.0614997  66.1249988
   3.2660012  77.0004997  68.3069988   2.3390913  77.3850312  67.8940501
   2.9946762  76.1097575  68.8681299   3.9600012  78.0234997  69.2019988
   4.8340199  77.5551803  69.6411219   4.3323494  78.8363472  68.5866381
   3.0730012  78.5824997  70.3229988   2.2119809  79.0955710  69.9022186
   2.6771643  77.7574325  70.9100613   3.8310012  79.5124997  71.2469988
   4.7338322  79.0173223  71.5997047   4.1597971  80.4061276  70.7220946
   3.0090012  79.9284997  72.4579988   2.0658050  80.3548271  72.1225484
   2.7531874  79.0347134  73.0237605   3.7230012  80.9374997  73.4139988
   4.3977258  81.5554514  72.8235893   2.9899693  81.6119863  73.8476461
   4.4960012  80.2824997  74.5309988   4.6314431  80.9851113  75.3449843
   3.9112120  79.4562624  74.9331176   5.8640012  79.7284997  74.0339988
   6.5758148  80.4620560  73.6864782   6.2440012  78.4574997  74.0069988
   7.2309746  78.1987978  73.6512366   5.4240012  77.2834997  74.4379988
   4.3946863  77.6263048  74.3473532   5.5543638  76.5123695  73.6869695
   5.6010012  76.6854997  75.8019988   5.5236172  75.6003854  75.7450451
   6.6059050  76.8994071  76.1609846   4.5480012  77.2354997  76.8459988
   4.6554763  76.6891252  77.7830318   4.7682114  78.2748434  77.0735423
   3.0710012  77.1134997  76.3449988   2.8035008  77.9677709  75.7270916
   2.9391551  76.2323626  75.7194597   2.1500012  77.0254997  77.5209988
   1.1168886  76.9535171  77.1862047   2.3381462  76.1247339  78.0987941
   2.2730012  78.3044997  78.4529988   3.1894488  78.3806429  79.0354153
   2.1520163  79.2642311  77.9538873   1.0850012  78.1044997  79.4279988
   0.1369613  77.9892428  78.9085266   1.2213471  77.1901741  80.0013499
   0.9930012  79.2944997  80.4069988   0.2199518  79.1233928  81.1500911
   0.7540938  80.2216263  79.8969983   1.9318037  79.4401922  80.9338426
  40.7840012 123.4294997  80.2299988  41.5228650 122.8935073  80.8175542
  40.3968636 122.7452406  79.4805296  39.9627509 123.6916510  80.8913887
  41.3940012 124.6894997  79.5749988  42.2318957 124.3817525  78.9517592
  41.8115422 125.3109803  80.3625490  40.4160012 125.4964997  78.7349988
  39.4709201 125.6130776  79.2652443  40.1841291 124.9502240  77.8228643
  40.9590012 126.8934997  78.3459988  41.6144502 127.1823917  79.1646427
  40.1050582 127.5676198  78.3912702  41.7020012 127.1054997  77.0269988
  41.6721701 128.1680759  76.7998095  41.1165167 126.6111525  76.2535689
  43.1450012 126.6244997  76.9489988  43.1476794 125.5646187  77.1969142
  43.6975550 127.1237641  77.7420916  43.8550012 126.8294997  75.6489988
  43.3715248 126.1825598  74.9192800  44.8652656 126.4429457  75.7761672
  43.9250012 128.2434997  75.0969988  44.4323373 128.8172756  75.8714936
  42.8930125 128.5893685  75.0893756  44.5690012 128.5464997  73.7399988
  45.6305969 128.3131852  73.7860402  44.5014876 129.6151995  73.5402499
  43.9270012 127.7714997  72.5769988  44.1667375 126.7136584  72.6594444
  44.3438586 128.1058260  71.6273226  42.3760012 127.9684997  72.5549988
  41.9870927 127.5007870  73.4569611  41.9856093 127.3877813  71.7210393
  41.8200012 129.4154997  72.4759988  42.2331878 129.9549750  71.6271984
  42.0945457 129.9858111  73.3614591  40.3050012 129.3694997  72.3789988
  39.9026766 128.8209101  73.2289614  39.9862142 128.8310502  71.4908990
  39.6580012 130.7894997  72.3729988  39.5429513 131.1159130  73.4013775
  38.6572098 130.6846664  71.9624886  40.4120012 131.8904997  71.5669988
  40.5677646 131.5716535  70.5442007  41.3757189 132.0951290  72.0180465
  40.3660012 131.5424997  70.0309988  39.4450012 131.7164997  69.2619988
  41.5200012 130.9354997  69.6379988  41.7750012 130.6624997  68.2019988
  42.7283178 131.0862796  67.9244019  40.9980546 131.1214407  67.6079287
  41.7920012 129.1104997  67.9999988  42.5852949 128.6452416  68.5613489
  41.9610012 128.7744997  66.4289988  42.2339362 127.7334790  66.3213726
  42.7742308 129.3864067  66.0591173  40.6910012 129.0694997  65.6659988
  40.3480012 128.5654997  64.2859988  41.3930012 127.3484997  64.2129988
  41.8810012 126.7804997  63.0419988  42.7061614 126.1078319  63.2364665
  42.2678916 127.5641697  62.3970382  40.8020012 126.0964997  62.2319988
  41.2181759 125.9076752  61.2504730  39.9137685 126.7017473  62.1220214
  40.3340012 124.7684997  62.7379988  39.8140012 124.8674997  64.1859988
  40.5623834 125.3638585  64.7883989  39.6582685 123.8640897  64.5534438
  38.8764898 125.4030269  64.1858796  39.1850012 124.2894997  61.8379988
  39.4994177 124.3700763  60.8087448  38.3140060 124.8898205  62.0312665
  38.9895302 123.2562797  62.0860807  41.5530012 123.8774997  62.5899988
  41.8602958 123.8643799  61.5548756  41.3008795 122.8762078  62.9054338
  42.3552703 124.2588212  63.2051354  38.9550012 128.0314997  64.1929988
  40.6130012 129.5304997  63.1969988  40.5020012 128.5804997  68.4739988
  40.5530012 127.1814997  68.4969988  41.6060012 126.5194997  68.6029988
  39.0740012 126.6624997  68.5539988  38.4057539 127.4849235  68.3202948
  38.9003994 125.9112303  67.7876022  38.8170012 126.0974997  69.9429988
  39.5129691 125.3033658  70.1900634  38.9239088 126.8438975  70.7236997
  37.3730012 125.5284997  69.9519988  36.6263560 126.3176039  69.9134034
  37.2011364 124.9055328  69.0776763  37.1640012 124.6484997  71.2459988
  36.1501108 124.2526185  71.2427670  37.8268060 123.7866880  71.2328663
  37.3800012 125.4264997  72.5709988  37.1021611 124.7595705  73.3845782
  38.4525591 125.5862153  72.6631479  36.6640012 126.7774997  72.7509988
  37.0740949 127.4866609  72.0336325  35.6105126 126.6702971  72.5081256
  36.7820012 127.3464997  74.1329988  36.3707063 126.6249059  74.8292163
  37.8431080 127.4265397  74.3653604  36.1410012 128.7104997  74.3159988
  36.0885538 129.3442634  73.4435615  35.6130012 129.2044997  75.4779988
  35.1953662 130.2009517  75.4945637  35.5360012 128.4624997  76.8409988
  34.5769639 128.7638274  77.2589344  35.4528948 127.4035929  76.6230751
  36.6140012 128.6794997  77.9089988  36.4834637 127.9677936  78.7233325
  37.5940306 128.4753237  77.4820169  36.5950012 130.1624997  78.4909988
  36.4466060 130.8590816  77.6658566  35.7347486 130.2782040  79.1445139
  37.8560012 130.5414997  79.2439988  38.6677741 130.4912796  78.5217469
  37.7562479 131.5905609  79.5171377  38.2140012 129.7284997  80.4889988
  38.5369912 128.7427909  80.1593843  39.0824622 130.1844042  80.9564937
  37.0880012 129.5354997  81.5359988  36.1923907 129.1552734  81.0479488
  37.3851229 128.7752465  82.2561153  36.7120012 130.8444997  82.3199988
  37.6017240 131.3559197  82.6788272  36.2273679 131.5381665  81.6364273
  35.7520012 130.5694997  83.5189988  35.4413356 131.4996648  83.9852055
  36.2235286 129.9634997  84.2852670  34.8567972 130.0487734  83.1909819
  71.1940012  14.2484997  84.9289988  70.6661457  14.8987270  85.6196520
  72.1624104  14.0192679  85.3642301  70.6364885  13.3184962  84.8591050
  71.3430012  14.8914997  83.5799988  71.8464030  15.8336348  83.7901677
  70.3233797  15.1454427  83.3030530  72.0770012  14.1644997  82.3639988
  72.9192593  13.6103687  82.7780870  72.5077830  14.9488377  81.7447962
  71.2370012  13.2174997  81.4499988  70.4378943  13.8092909  81.0090211
  70.7497804  12.4751792  82.0803020  72.0070012  12.4994997  80.3129988
  71.5119698  11.5664634  80.0561714  73.0015085  12.2308115  80.6653152
  72.1340012  13.3634997  79.0429988  72.9006623  14.1170807  79.2137718
  71.2016538  13.9053339  78.8990503  72.4700012  12.5754997  77.7549988
  72.3165923  13.2485196  76.9134051  71.7256896  11.7868748  77.6535041
  73.8950012  11.9524997  77.6619988  73.9535608  11.0941744  78.3300553
  74.6250093  12.6723838  78.0274285  74.2720012  11.5274997  76.2789988
  73.3989241  11.1610899  75.7432551  74.9764014  10.6973858  76.3151691
  74.9040012  12.6994997  75.4889988  75.6192758  13.1652394  76.1633634
  74.1098037  13.4295120  75.3348514  75.5690012  12.3944997  74.1539988
  76.3649419  11.6652326  74.2888651  76.0411835  13.2843331  73.7412419
  74.5880012  11.8454997  73.1559988  73.7682161  12.5597338  73.1624071
  74.2066349  10.9408635  73.6259596  74.9940012  11.5124997  71.6979988
  75.3201847  10.4767537  71.6199820  75.8267336  12.1203318  71.3554046
  73.7710012  11.7134997  70.7169988  73.4472404  12.7482789  70.6750960
  72.9147250  11.1290205  71.0429855  74.1710012  11.2504997  69.3039988
  74.5295788  10.2292624  69.3271825  74.9541549  11.8850918  68.9064662
  72.8190012  10.9204997  68.5179988  71.7600012  10.6894997  69.0319988
  73.0830012  10.9584997  67.1059988  71.9580012  10.9004997  66.1919988
  71.1961809  10.4767070  66.8287810  72.1583201  10.2180918  65.3787437
  71.5140012  12.2504997  65.6699988  70.7026021  12.1268990  64.9719670
  72.7250012  12.9904997  64.9629988  72.3206493  13.5565197  64.1347948
  73.3589808  12.2054874  64.5700477  73.4270012  13.7934997  65.7839988
  74.9610012  14.0694997  65.7209988  75.1600012  14.4994997  64.1939988
  74.4960012  15.6754997  63.6599988  74.8199117  16.6197110  64.0780131
  73.4192138  15.6317908  63.7957027  74.7240012  15.6404997  62.0569988
  75.7258150  15.9539396  61.7917186  74.0198959  16.3612475  61.6669536
  74.4750012  14.3534997  61.2849988  75.5820012  13.2534997  61.6469988
  76.5609859  13.6983467  61.5328320  75.4732913  12.4312552  60.9554815
  75.4128794  12.9044549  62.6546111  73.0820012  13.8024997  61.4759988
  72.3724787  14.5972679  61.3038497  72.9946899  13.4062615  62.4718612
  72.9426328  13.0169232  60.7474776  74.6920012  14.6804997  59.8569988
  74.0187086  15.4735701  59.5675193  74.4966021  13.8033537  59.2585975
  75.7146813  14.9970524  59.7108666  75.3530012  15.2294997  66.5379988
  75.6400012  12.8264997  65.9599988  70.9530012  12.9374997  66.8019988
  70.2210012  13.9844997  66.4199988  69.7010012  14.1464997  65.3349988
  70.0230012  14.9274997  67.6069988  69.0025336  15.2950223  67.5734412
  70.1082816  14.3710531  68.5370533  71.1120012  16.1424997  67.5469988
  72.0742555  15.6866906  67.3411698  70.8731555  16.7453266  66.6766049
  71.2350012  17.0314997  68.7719988  71.8193410  17.9181170  68.5393819
  70.2478176  17.3856435  69.0585572  71.8660012  16.2774997  69.9869988
  71.2790460  15.3888547  70.2117201  72.8703483  15.9287705  69.7592338
  71.9200012  17.1684997  71.2699988  72.8980448  17.6373218  71.3568177
  71.2025116  17.9807491  71.1707990  71.6240012  16.4294997  72.5009988
  71.6218723  17.1350762  73.3303710  70.6190952  16.0205869  72.4437940
  72.5950012  15.2954997  72.8069988  72.3905036  14.8620985  73.7790709
  72.4745115  14.4920919  72.0814891  74.0000012  15.8044997  72.7279988
  74.4635883  15.5783090  71.7795902  74.7230012  16.4724997  73.6059988
  75.7536319  16.7508299  73.4388382  74.1800012  16.9144997  74.9209988
  74.0825174  17.9986482  74.9025627  73.1829721  16.5229034  75.0891249
  75.0740012  16.5374997  76.0899988  75.3974451  15.5063380  75.9529055
  75.9727818  17.1480467  76.0276720  74.4480012  16.6984997  77.4899988
  73.6929218  17.4768764  77.3800360  73.9071740  15.7753915  77.6794221
  75.3390012  17.0254997  78.6959988  75.8358616  17.9536156  78.4223648
  74.6475374  17.2757613  79.4987017  76.3980012  15.9844997  79.2279988
  76.9989888  15.6401324  78.3884662  77.0880644  16.4860429  79.9009714
  75.7640012  14.6834997  79.9529988  75.2506568  14.9477806  80.8757751
  75.0210286  14.1981687  79.3226975  76.8360012  13.6904997  80.2729988
  76.3442509  12.7324497  80.4221193  77.4081584  13.5894848  79.3533547
  77.7810012  13.9444997  81.3999988  78.5464629  13.1754871  81.4419152
  77.2750625  13.9521350  82.3595345  78.2802864  14.9021442  81.2826439
 122.2760012 101.6614997  82.1949988 122.3791503 101.6512241  83.2755929
 121.4468647 101.0097394  81.9351311 122.0059000 102.6713058  81.8984369
 123.5890012 101.2064997  81.4979988 123.8336855 100.2087128  81.8582124
 124.3880831 101.8588009  81.8397371 123.5410012 101.1914997  80.0009988
 123.6661790 102.2051272  79.6204483 122.5510795 100.8705270  79.6828752
 124.6060012 100.2534997  79.3339988 124.3697513 100.1236412  78.2801616
 124.5683142  99.2591149  79.7761352 126.0520012 100.8164997  79.4539988
 126.7675622 100.1101325  79.0409723 126.3098687 100.9331535  80.5053128
 126.2260012 102.2484997  78.6959988 127.2447907 102.5968100  78.8558889
 125.5768708 102.9732372  79.1827865 125.9260012 102.2314997  77.1889988
 124.9309255 102.6434905  77.0313346 125.8819170 101.1946926  76.8583664
 126.8980012 102.9694997  76.3529988 126.9421095 104.0029705  76.6942371
 126.5293016 103.0028968  75.3294612 128.3340012 102.3634997  76.3619988
 128.3124711 101.3654343  75.9296296 128.6737703 102.2417833  77.3897726
 129.3500012 103.2344997  75.5889988 130.3297789 102.7632790  75.6248564
 129.4568522 104.1989976  76.0847363 128.9340012 103.4584997  74.1469988
 128.1895028 104.2501463  74.0964140 128.4557966 102.5676934  73.7433745
 130.1030012 103.8444997  73.2599988 130.9859957 103.2711403  73.5316579
 130.3576488 104.8901344  73.4227027 129.7690012 103.6374997  71.7229988
 130.5070514 104.1572622  71.1144096 128.8054352 104.0694467  71.4675847
 129.7780012 102.1344997  71.3099988 128.9259363 101.5801114  71.6894511
 130.6690511 101.6217933  71.6624959 129.7650012 102.0924997  69.7829988
 130.5890415 102.6681967  69.3810394 128.8366808 102.5013812  69.4020707
 129.7800012 100.6304997  69.3239988 130.7260012  99.8824997  69.1599988
 128.5790012 100.2534997  69.0949988 128.4400012  99.1754997  68.1409988
 128.5544136  98.2560329  68.6950319 129.2091561  99.2299053  67.3842737
 126.9910012  99.2484997  67.4869988 126.8155989  98.3419341  66.9317808
 126.9150012 100.4824997  66.5279988 127.6388884 100.3483246  65.7356697
 127.1965173 101.3499057  67.1118998 125.5940012 100.6534997  65.9799988
 125.5080012 101.6854997  64.8079988 126.0770012 100.8424997  63.5269988
 125.5790012  99.5834997  63.3359988 124.5002041  99.5523063  63.2559190
 125.8451065  98.9354109  64.1660385 126.2140012  98.9784997  62.1549988
 126.0761662  99.6106109  61.2868479 125.7095423  98.0385096  61.9837771
 127.7170012  98.6494997  62.1989988 128.5820012  99.8304997  62.0039988
 128.2592918 100.3514652  61.1130512 129.5962239  99.4829870  61.8748202
 128.5225400 100.4571654  62.8811940 128.1900012  98.0104997  63.4879988
 127.5375007  97.1826991  63.7197387 128.1812933  98.7488909  64.2697101
 129.1962477  97.6540272  63.3215888 128.0350012  97.7204997  61.0199988
 127.4304792  96.8290062  61.0966453 129.0804448  97.4527073  61.0513830
 127.8201993  98.2296454  60.0915238 124.0590012 102.0764997  64.5049988
 126.3720012 102.7704997  65.1579988 126.0300012  99.3504997  68.4639988
 125.9030012  98.2494997  69.2059988 126.2650012  97.1824997  68.7759988
 125.2500012  98.5204997  70.5599988 124.6227987  99.3949620  70.4204072
 124.5712358  97.6988479  70.7746451 126.2550012  98.7134997  71.6929988
 126.9143360  99.5222743  71.3976647 125.7084910  99.0729071  72.5591315
 127.1090012  97.4794997  72.0839988 126.4797659  96.7425098  72.5765055
 127.4716335  97.0086114  71.1735994 128.3070012  97.8184997  72.9669988
 128.7508138  96.8806481  73.2958919 129.0638814  98.3194467  72.3683450
 128.0110012  98.6704997  74.2029988 128.8392622  99.3521799  74.3851986
 127.1436030  99.2954155  73.9993286 127.7310012  97.8294997  75.5039988
 127.4585666  98.5471238  76.2763303 126.8448966  97.2294331  75.3167641
 128.8590012  96.8984997  76.0409988 128.5860104  96.4011191  76.9643993
 129.1046027  96.1111879  75.3295452 130.1170012  97.8024997  76.2389988
 130.8897793  97.7766647  75.4855397 130.3140012  98.6644997  77.3259988
 131.1596214  99.3233819  77.4616844 129.3010012  98.7334997  78.4309988
 128.6716604  99.6171429  78.3397527 128.6274434  97.8857164  78.4881347
 130.0790012  98.8404997  79.7129988 130.5122150  97.8704856  79.9540455
 130.9173825  99.5167011  79.5570268 129.2580012  99.3294997  80.8809988
 128.8366751 100.3110999  80.6640831 128.4138505  98.6705219  81.0644706
 130.1400012  99.4204997  82.1739988 130.5990849  98.4464769  82.3278391
 130.9561364 100.1142593  81.9798188 129.3850012  99.8634997  83.4659988
 128.4488130  99.3117004  83.5264914 129.9617534  99.5658258  84.3374183
 129.0610012 101.3374997  83.5389988 129.3011424 101.7150867  82.5467069
 127.9758754 101.3679955  83.6190370 129.6610012 102.3084997  84.5959988
 129.1215290 103.2522569  84.5816097 129.4827799 101.8807379  85.5801583
 131.1840012 102.5804997  84.4379988 131.5531056 103.1923866  85.2555716
 131.4089824 103.1025022  83.5140736 131.7485319 101.6523586  84.4384520
  18.1810012 107.7404997  80.9179988  18.5658081 106.7751728  81.2318406
  17.1054842 107.6457520  80.7993562  18.3619649 108.4462831  81.7240595
  18.8430012 108.2074997  79.6179988  18.6599192 107.4190761  78.8899381
  19.9114525 108.1980991  79.8158305  18.4250012 109.5724997  79.0079988
  19.1676020 109.9437445  78.3018471  18.3373797 110.3336245  79.7807746
  17.0270012 109.4384997  78.2739988  16.5543783 110.4182328  78.2731808
  16.3816160 108.7929717  78.8676970  17.0780012 108.9234997  76.8479988
  17.4546819 107.9044223  76.8821435  17.8343523 109.5116270  76.3308873
  15.7830012 108.9454997  76.0389988  15.5657480 109.9952654  75.8502928
  15.0040566 108.5895285  76.7098989  15.7080012 108.1654997  74.7159988
  14.6989180 108.2888835  74.3270288  15.8131828 107.1091317  74.9594194
  16.7170012 108.5354997  73.6279988  17.6750076 108.0406690  73.7823268
  16.9250648 109.6038020  73.6168825  16.1490012 108.1204997  72.2759988
  15.7680588 107.1038829  72.3461006  16.9546298 108.0929118  71.5433471
  15.0130012 109.0654997  71.7589988  14.2665538 109.2791203  72.5208922
  14.4716897 108.6502750  70.9092933  15.7220012 110.3864997  71.3199988
  16.4096060 110.6379925  72.1246676  14.9586601 111.1626679  71.3211325
  16.5060012 110.4364997  69.9689988  15.9215666 109.8322478  69.2794084
  17.4234676 109.8818041  70.1567171  16.8580012 111.7384997  69.3379988
  17.5159004 112.3014673  69.9979139  15.9771168 112.3562441  69.1873051
  17.5750012 111.5574997  67.9999988  17.0705103 110.8444847  67.3562258
  18.5861382 111.1874590  68.1475246  17.6520012 112.9374997  67.2759988
  18.1227412 113.6745052  67.9141741  16.6583889 113.2844795  67.0182999
  19.0800012 113.3294997  66.8609988  19.9770012 113.4884997  67.6899988
  19.0980012 113.4484997  65.5539988  20.3980012 113.8364997  65.0639988
  20.8014751 114.5065164  65.8081415  20.2294368 114.3853658  64.1488354
  21.3450012 112.6754997  64.8339988  22.0921473 112.9795371  64.1196964
  20.6050012 111.4114997  64.3179988  21.2931519 110.7030507  63.8771478
  19.8763443 111.6987029  63.5702298  19.9440012 110.8274997  65.4699988
  19.6570012 109.3084997  65.6359988  19.2450012 109.0154997  64.1699988
  19.3030012 107.6214997  63.7199988  18.9034788 106.9110111  64.4318815
  20.3268523 107.3172123  63.5226793  18.5920012 107.5134997  62.3859988
  17.5429678 107.2969895  62.5438002  19.0428312 106.6834599  61.8614386
  18.6320012 108.7074997  61.4049988  17.9020012 109.9054997  61.8659988
  16.9040462 109.6100227  62.1594493  17.8477735 110.6005174  61.0413111
  18.4461297 110.3545831  62.6832902  20.0340012 109.0394997  60.9389988
  20.5059652 108.1308652  60.5979016  20.5784838 109.4838560  61.7529128
  19.9452495 109.7404986  60.1216734  17.8650012 108.0344997  60.2019988
  18.3953865 107.1453999  59.8949563  17.8174957 108.7303661  59.3778852
  16.8635937 107.7741587  60.5131911  20.8680012 108.4884997  65.8659988
  18.4820012 109.0624997  66.5199988  21.9770012 112.3364997  66.0709988
  22.8240012 111.3094997  66.1799988  23.4290012 110.7234997  65.2959988
  23.1800012 111.2194997  67.6789988  24.0787899 111.8074898  67.8339162
  22.4021022 111.7060476  68.2621379  23.3650012 109.7714997  68.1119988
  22.4429235 109.2252645  67.9462855  24.1147697 109.2895520  67.4926390
  23.7710012 109.6524997  69.6389988  24.0275458 108.6350494  69.9229595
  24.6454069 110.2590133  69.8617562  22.6140012 110.1484997  70.4769988
  22.6758284 111.2188729  70.6645741  21.6393335 109.9745056  70.0276093
  22.6760012 109.4134997  71.8329988  22.9003935 108.3652604  71.6466024
  23.5250331 109.8113943  72.3854529  21.4320012 109.5164997  72.7099988
  20.5680425 109.2185919  72.1179453  21.5034006 108.8048136  73.5277536
  21.1900012 110.9034997  73.2909988  21.6334255 110.9298252  74.2795643
  21.7524232 111.6113937  72.6836163  19.7580012 111.3384997  73.3299988
  18.9688915 110.6309526  73.5355153  19.3830012 112.6644997  73.1199988
  18.3112442 112.7755022  73.2013953  20.1310012 113.9804997  72.8089988
  21.0576880 113.7358378  72.2926528  19.5644750 114.6114640  72.1332672
  20.4830012 114.7774997  74.0789988  20.7827470 115.7874831  73.8018872
  19.5863398 114.8832845  74.6866722  21.5970012 114.1234997  74.9269988
  21.1990118 113.3029866  75.5240496  22.3725902 113.6937729  74.2990653
  22.1990012 115.1414997  75.8319988  23.1698066 115.4226730  75.4299746
  21.5863966 116.0409824  75.8049525  22.3540012 114.6614997  77.3309988
  22.7549677 115.5100891  77.8820994  21.3492153 114.5066302  77.7144644
  23.2270012 113.4434997  77.6419988  23.1286434 112.7530657  76.8062298
  24.2619826 113.7805393  77.6348053  22.9750012 112.6694997  78.9479988
  22.8795565 113.3329542  79.8039389  22.0305272 112.1338433  78.8820124
  24.0760012 111.6774997  79.2039988  23.8535107 111.0715555  80.0771532
  25.0284409 112.1655590  79.3811924  24.2012983 111.0064850  78.3589065
  79.3710012 130.3034997  81.4939988  80.4524021 130.2109361  81.5148050
  78.9626601 129.3474939  81.1791964  79.0353069 130.4854841  82.5112515
  78.9320012 131.4184997  80.5679988  79.3340714 131.2011029  79.5799293
  79.4237102 132.3272799  80.9043837  77.4100012 131.6484997  80.4569988
  77.0426242 132.1541939  81.3498798  76.9020580 130.6866511  80.4251845
  77.0090012 132.4444997  79.2309988  77.6574697 132.1174168  78.4212115
  77.2655760 133.4855644  79.4208923  75.5370012 132.3574997  78.7529988
  74.8916003 132.8954787  79.4426431  75.2150478 131.3178280  78.7811750
  75.3320012 132.9004997  77.3729988  76.1171011 132.6344869  76.6675398
  75.2372183 133.9833712  77.3284737  73.9830012 132.2444997  76.9179988
  73.1364994 132.6534423  77.4666068  73.9783380 131.1718471  77.1067437
  73.7820012 132.4964997  75.4109988  72.7910478 132.1617043  75.1070672
  74.4921881 131.9050326  74.8361203  73.9500012 133.9914997  75.0459988
  74.9489314 134.3225414  75.3218441  73.2578768 134.5901052  75.6369406
  73.7190012 134.2664997  73.5779988  74.0041126 135.2915541  73.3515616
  72.6559469 134.1882739  73.3516686  74.5110012 133.2784997  72.6669988
  74.1123848 132.2692207  72.7444717  75.5591540 133.2122680  72.9535593
  74.4120012 133.7344997  71.1719988  75.2801582 133.2914419  70.6901045
  74.5947672 134.8070813  71.2008971  73.1880012 133.4814997  70.3579988
  72.3289599 134.0392115  70.7271297  72.8854558 132.4383797  70.3326784
  73.4810012 133.9564997  68.9169988  73.5332152 135.0374439  68.9956006
  72.5632232 133.7239459  68.3834313  74.6350012 133.4674997  68.1109988
  74.6218586 132.3868522  68.0472067  75.5695786 133.7778182  68.5630345
  74.3970012 134.0304997  66.7199988  73.7560012 133.4574997  65.8909988
  74.8130012 135.3104997  66.6879988  74.8090012 135.9574997  65.3759988
  74.3429748 136.8845816  65.6739929  74.2207503 135.5024133  64.5923858
  76.3260012 136.2264997  64.8799988  76.2443719 136.9444101  64.0807271
  76.9440012 134.9544997  64.3639988  77.6583952 135.1547450  63.5770147
  76.1675259 134.3095985  63.9718589  77.6010012 134.3244997  65.4999988
  78.4700012 132.9404997  65.2769988  78.0420012 132.4894997  63.8809988
  77.6710012 131.1564997  63.7699988  76.8994766 130.8758178  64.4750921
  78.5226322 130.5136798  63.9732333  77.2550012 130.8284997  62.3479988
  76.9056012 129.8038813  62.3299460  78.1603192 130.8970675  61.7622730
  76.1610012 131.6724997  61.5609988  76.8360012 132.9824997  61.2599988
  77.2543566 133.3740385  62.1770648  76.0881898 133.6634490  60.8815994
  77.5936126 132.8216981  60.5077456  75.6520012 130.8634997  60.4369988
  75.3749963 129.8905095  60.8128611  76.4150370 130.7910876  59.6827423
  74.7828992 131.3695962  60.0422518  75.0340012 131.8654997  62.5259988
  74.6696347 130.9002729  62.8448347  74.2389537 132.4095648  62.0386152
  75.3835047 132.4255549  63.3813469  79.9150012 133.2364997  65.2599988
  78.2160012 131.9534997  66.3609988  77.0110012 136.9714997  65.9489988
  78.2810012 137.3474997  65.7309988  78.8800012 137.0814997  64.7139988
  78.8950012 137.9354997  66.9809988  79.9655948 137.9971716  66.8149300
  78.5526580 138.9606734  67.0981612  78.5500012 137.0854997  68.2309988
  77.5086907 137.2553205  68.4817862  78.6294761 136.0336126  67.9755572
  79.4010012 137.3844997  69.4339988  80.4491956 137.3498362  69.1480952
  79.2044893 138.4085227  69.7419353  79.1500012 136.4524997  70.6369988
  79.6385101 135.5001033  70.4394989  79.6248073 136.8588623  71.5267350
  77.7400012 136.1944997  70.9299988  77.1481825 137.0722435  70.6785681
  77.3880035 135.3955859  70.2802177  77.4700012 135.8004997  72.3759988
  77.8647208 136.6112981  72.9863293  76.3924260 135.8094197  72.5140940
  78.0290012 134.4414997  72.8999988  77.5775205 133.6666143  72.2914776
  79.0918365 134.4382488  72.6618467  77.8650012 134.1474997  74.3549988
  77.5588228 133.1153319  74.4352395  78.0160012 134.8374997  75.5099988
  77.7161543 134.2567310  76.3704693  78.5210012 136.2524997  75.8519988
  78.7088387 136.7207376  74.8872753  77.6946408 136.7953455  76.2971145
  79.7570012 136.4244997  76.7109988  80.4960276 135.6747953  76.4308410
  80.2047180 137.3905818  76.4858456  79.4850012 136.3354997  78.2049988
  78.7523558 137.0785057  78.5200859  79.0769640 135.3685190  78.4859937
  80.8320012 136.5784997  78.9749988  81.6303408 135.9771769  78.5458021
  81.1511916 137.6155304  78.8868532  80.6540012 136.2314997  80.4479988
  80.2272011 135.2312617  80.4922233  81.6434748 136.1517285  80.8898172
  79.7890012 137.1414997  81.2809988  80.0909304 138.1799197  81.1568793
  78.7520945 137.0875992  80.9542675  79.8480012 136.7884997  82.7879988
  80.8885775 136.6494889  83.0704735  79.5107836 137.6717737  83.3259804
  79.0380012 135.5994997  83.2509988  79.0836435 135.4991254  84.3312352
  79.3997747 134.6708295  82.8227085  77.9933973 135.7063635  82.9725677
  26.6680012  31.2884997  81.6079988  25.8251910  31.0353089  82.2436043
  26.6063157  30.6729701  80.7151896  26.5514677  32.3244939  81.3018161
  27.9820012  31.0784997  82.3279988  27.9765672  30.0368261  82.6443682
  27.9060465  31.6731120  83.2343547  29.3310012  31.3864997  81.5929988
  30.0747682  31.7115272  82.3203891  29.1789034  32.2287603  80.9209613
  29.8900012  30.2244997  80.7899988  29.0778451  29.5958364  80.4316204
  30.5124652  29.5858007  81.4147453  30.7270012  30.7184997  79.5529988
  31.4060493  29.9554946  79.1811251  31.3437143  31.5793642  79.8058667
  29.7130012  31.1214997  78.3869988  29.4561706  32.1792582  78.3883647
  28.7706413  30.5796484  78.4309546  30.4200012  30.7834997  77.1029988
  31.4862868  30.9704581  77.2163627  30.0763802  31.4506251  76.3136330
  30.1970012  29.2764997  76.6499988  29.1342206  29.1829243  76.4304717
  30.3799290  28.6661530  77.5324377  31.0070012  28.7194997  75.4739988
  32.0362975  28.6029654  75.8064288  31.0242674  29.4791948  74.6935232
  30.5020012  27.3684997  74.8679988  29.4269871  27.4513892  74.7238697
  30.6506963  26.5879476  75.6136912  31.1700012  26.9514997  73.5689988
  32.2410668  26.9085918  73.7547898  31.0208835  27.7491846  72.8433331
  30.7400012  25.6384997  72.9609988  30.0329545  25.1548920  73.6306462
  31.6066792  24.9821528  72.9085763  30.1240012  25.7674997  71.5299988
  29.3667812  26.5488628  71.5666248  29.6003752  24.8476464  71.2851319
  31.1170012  26.1124997  70.3729988  32.1402121  25.9513615  70.6961380
  31.0261309  27.1681194  70.1311279  30.8560012  25.2984997  69.1049988
  29.8294532  25.4179921  68.7825675  31.0433330  24.2468010  69.2863982
  29.5210012  25.7664997  68.4749988  28.6750012  24.9604997  68.1159988
  29.3910012  27.0534997  68.4439988  28.0970012  27.4594997  68.1629988
  27.5262871  27.5151667  69.0776838  27.5957048  26.7955070  67.4737907
  28.2630012  28.8464997  67.5599988  27.2995742  29.3113353  67.4310402
  29.0480012  28.8884997  66.2309988  28.6663360  28.0712222  65.6341820
  30.0678742  28.6628504  66.5165269  28.9970012  30.0914997  65.5069988
  27.8780012  30.3804997  64.4689988  28.0680012  29.1714997  63.4889988
  29.3480012  28.8474997  62.8459988  30.1460519  29.5583516  63.0162738
  29.2497307  28.7469039  61.7689563  29.7470012  27.4194997  63.3579988
  29.3445495  27.3762567  64.3621958  30.8145501  27.2596516  63.4045280
  29.1590012  26.1774997  62.6099988  27.6540012  26.3134997  62.5409988
  27.2797011  26.5158018  63.5351352  27.2508664  25.3774289  62.1841320
  27.4048434  27.1031048  61.8480621  29.8090012  26.1584997  61.2969988
  30.8748740  26.2474804  61.4409138  29.4235262  26.9675643  60.7026980
  29.5752619  25.2104660  60.8345108  29.6520012  24.9364997  63.3249988
  30.7318411  24.9312419  63.3246174  29.2856030  24.0612418  62.8099007
  29.2863706  24.9368382  64.3417333  26.4750012  30.2774997  65.0089988
  28.1960012  31.5804997  63.7309988  28.9930012  29.5844997  68.6199988
  28.4560012  30.6974997  69.1799988  27.3100012  31.0834997  69.0279988
  29.4440012  31.3724997  70.1059988  30.4434009  31.2730913  69.6950594
  29.2537049  32.4409487  70.1701157  29.3180012  30.6924997  71.5099988
  29.3414859  29.6187473  71.3597812  30.2045997  30.9341901  72.0875468
  28.0330012  31.0684997  72.3249988  28.3010095  31.8319398  73.0509358
  27.3378163  31.5383509  71.6336069  27.3120012  29.8984997  73.0289988
  27.0928635  29.1258658  72.2943413  27.9621615  29.4384499  73.7691661
  25.9870012  30.3084997  73.7139988  26.2518301  30.9008812  74.5874120
  25.4878013  30.9887644  73.0266704  24.9780012  29.1914997  74.1319988
  23.9885145  29.6353100  74.2302314  24.9038436  28.4486995  73.3426531
  25.3500012  28.4764997  75.4499988  25.6270234  29.2303473  76.1777023
  24.4495333  27.9975104  75.8321936  26.4210012  27.4404997  75.3119988
  26.5659692  27.0202862  74.3281497  27.2340012  26.9904997  76.3029988
  27.9518221  26.2219234  76.0547374  27.2790012  27.4364997  77.7629988
  27.4827666  28.5058526  77.7765969  26.3119509  27.3057386  78.2356470
  28.3650012  26.7254997  78.6079988  29.3279056  27.1312185  78.2999204
  28.2161391  27.0462132  79.6372907  28.4160012  25.2004997  78.5599988
  27.3801023  24.8614007  78.5656944  28.8177652  24.9328995  77.5866130
  29.2260012  24.4324997  79.6979988  28.5413544  24.0108632  80.4305467
  29.7799134  23.5932789  79.2808958  30.2610012  25.4464997  80.4269988
  30.8866154  25.9256112  79.6762331  29.7162798  26.2496077  80.9157943
  31.1550012  24.7704997  81.4029988  30.5885275  24.1338055  82.0802071
  31.8632924  24.1174195  80.8963985  31.9710012  25.8254997  82.2659988
  31.3171852  26.6350028  82.5808708  32.2927067  25.3321655  83.1805697
  33.1980012  26.4064997  81.5639988  33.7577735  27.0501073  82.2359312
  32.9263986  26.9993838  80.6971300  33.8657280  25.6180463  81.2284049
 125.0070012  31.6194997  80.5049988 125.4862940  31.7025001  81.4754720
 124.2400938  30.8538512  80.5786570 124.5102044  32.5638357  80.2999760
 125.9810012  31.2964997  79.4549988 126.4578918  30.3795121  79.7969229
 126.7301473  32.0792786  79.5377705 125.5620012  31.1304997  78.0179988
 124.9344813  30.2397278  77.9920516 126.4729834  30.8728168  77.4814525
 124.8460012  32.2874997  77.2509988 125.5481499  33.1013397  77.0839610
 124.0419783  32.7025958  77.8567614 124.2840012  31.8414997  75.8999988
 123.3320125  31.3716294  76.1334780 124.9511354  31.0405121  75.5858080
 124.0820012  32.8254997  74.7269988 125.0141056  33.3555999  74.5399370
 123.3545202  33.5815999  75.0145067 123.6190012  32.1444997  73.4349988
 122.7196970  31.5777801  73.6692016 124.3777012  31.4122072  73.1623231
 123.3370012  33.0784997  72.2079988 122.6374435  33.8397539  72.5508720
 122.7988825  32.4787204  71.4763041 124.5260012  33.7564997  71.5269988
 125.1859167  32.9519417  71.2096046 125.0559903  34.2910129  72.3143894
 124.2740012  34.7274997  70.3219988 123.4850485  35.4307565  70.5794526
 123.9119534  34.1638404  69.4625579 125.5510012  35.4904997  69.9249988
 126.3268128  34.7836071  69.6387118 125.9448559  36.0430771  70.7762711
 125.3290012  36.4314997  68.7869988 124.8392276  37.3189737  69.1803569
 124.6145955  35.9641214  68.1118306 126.5770012  36.8284997  67.9829988
 127.2799677  37.3821204  68.6031553 126.3438946  37.4716433  67.1390191
 127.2950012  35.5564997  67.4659988 126.5712390  34.8991349  66.9954831
 127.6970508  35.0204957  68.3216551 128.3880012  35.8214997  66.5259988
 129.1066717  36.5031642  66.9629050 128.0027840  36.2603630  65.6132690
 129.0690012  34.5854997  66.0059988 129.8830012  34.6964997  65.1019988
 128.7330012  33.4664997  66.5659988 129.3400012  32.3434997  65.9009988
 130.3797521  32.3041865  66.1888084 129.2742139  32.4371230  64.8267089
 128.5830012  31.0494997  66.4039988 129.2205131  30.2155749  66.1610132
 127.2700012  30.9204997  65.6739988 126.9248917  29.8962896  65.7151601
 127.4341404  31.1899325  64.6381178 126.3140012  31.7924997  66.2679988
 124.9210012  31.7344997  65.4039988 125.2900012  32.4644997  64.0059988
 126.1580012  33.5804997  63.9829988 126.6020688  33.7392952  64.9570506
 125.5718686  34.4681794  63.7632938 127.2660012  33.5254997  62.8559988
 127.8682979  32.6397213  63.0137466 127.9054253  34.3946558  62.9115091
 126.7930012  33.4504997  61.4269988 125.8540012  34.6444997  61.2819988
 125.1347048  34.6180262  62.0889968 125.3422235  34.5529056  60.3355347
 126.4377577  35.5527097  61.2919894 127.9750012  33.6374997  60.5269988
 128.7587246  32.9681016  60.8469953 128.2918282  34.6641137  60.5723229
 127.6602671  33.3872641  59.5241919 126.0900012  32.2134997  61.0929988
 126.7406565  31.3726229  61.2818263 125.8162077  32.2319742  60.0488025
 125.1991207  32.1301589  61.6986565 124.4810012  30.3604997  65.2249988
 124.0340012  32.6514997  66.1109988 128.2930012  31.0444997  67.8449988
 129.3800012  31.0374997  68.6349988 130.5480012  30.9234997  68.2489988
 128.9700012  30.8584997  70.1179988 127.8907199  30.7628671  70.1776594
 129.3733806  29.9341894  70.5240068 129.4990012  32.1144997  70.9249988
 129.1370142  32.0423206  71.9447128 130.5814929  32.0650133  70.9866082
 129.0850012  33.4234997  70.3529988 129.3315221  33.4603655  69.2949239
 128.0027939  33.5072998  70.4152076 129.6990012  34.5974997  71.0669988
 129.2971360  34.6228341  72.0782201 130.7702439  34.4421377  71.1694858
 129.4550012  35.9764997  70.4119988 129.9044906  35.9712580  69.4211240
 128.3829985  36.0832291  70.2577257 129.9680012  37.2104997  71.2039988
 131.0470676  37.2090389  71.0580042 129.5889030  38.0833506  70.6798482
 129.6460012  37.3694997  72.7609988 130.3073355  36.7145978  73.3162649
 129.9042999  38.3862697  73.0539263 128.2380012  37.1224997  73.1109988
 127.5649669  37.5441155  72.3796856 127.6850012  36.4714997  74.1479988
 126.6244163  36.3428718  74.3099387 128.5740012  35.8214997  75.2379988
 128.0840667  34.9131092  75.5844261 129.5343438  35.5150208  74.8386321
 128.7960012  36.7454997  76.4559988 129.7724171  36.4999426  76.8719538
 128.8783862  37.7583656  76.0664165 127.7490012  36.7184997  77.5649988
 127.9385630  37.4784893  78.3230153 126.7447714  36.9036453  77.1938550
 127.8060012  35.3114997  78.2249988 127.6473648  34.5900425  77.4265759
 128.8273384  35.1626062  78.5710998 126.8040012  35.0264997  79.4179988
 125.7845504  34.9970333  79.0379436 126.9914523  34.0434581  79.8412202
 126.8650012  36.0714997  80.4969988 127.8920862  36.4300488  80.5347049
 126.2641319  36.9124651  80.1555793 126.4300012  35.7094997  81.9009988
 126.4029324  36.5850631  82.5448706 125.4101609  35.3321773  81.8715595
 127.3380012  34.6344997  82.5339988 126.9553482  34.3287068  83.5030893
 128.3500912  34.9952369  82.6832749 127.3923229  33.7499489  81.9056994
  99.8690012 130.7054997  79.5399988 100.2266127 129.8682272  80.1311991
  98.9865555 131.1050717  80.0313456 100.6346624 131.4761555  79.5615475
  99.5580012 130.2794997  78.1049988  98.7995082 129.4986374  78.0929343
 100.4416016 129.8539143  77.6370870  99.0530012 131.4924997  77.2849988
  99.8700068 132.2064820  77.1817513  98.2854034 131.9957160  77.8695823
  98.4790012 131.1764997  75.8979988  98.1183351 132.0845652  75.4198911
  97.6202763 130.5104799  75.9666659  99.5450012 130.5394997  74.9989988
  99.7320968 129.5089331  75.2896890 100.4915179 131.0654970  75.1121265
  99.0900012 130.5734997  73.4139988  99.1145563 131.6026783  73.0604378
  98.0544721 130.2494192  73.3350783  99.9750012 129.6914997  72.4889988
  99.6847653 128.6475471  72.5924209 101.0137199 129.7518305  72.8109514
  99.8780012 130.0994997  71.0159988 100.3796605 129.3406118  70.4169344
 100.4430348 131.0192707  70.8765636  98.4560012 130.2974997  70.4909988
  98.0171100 131.1719590  70.9666420  97.8417996 129.4489986  70.7899625
  98.3880012 130.4584997  68.9789988  98.9822183 129.7117087  68.4569755
  98.7559470 131.4286372  68.6460152  96.9020012 130.3184997  68.5879988
  96.3725761 131.2536198  68.7577054  96.3994501 129.5713637  69.1998471
  96.7570012 129.9454997  67.1209988  95.7303631 129.6464688  66.9239863
  97.3727709 129.0717845  66.9157686  97.1670012 131.0604997  66.1759988
  97.1492370 130.7052039  65.1470666  98.1831656 131.3952419  66.3647616
  96.2480012 132.2224997  66.2749988  96.4554939 132.7096732  67.2220752
  95.2474266 131.8047698  66.3487847  96.2580012 133.2884997  65.1369988
  96.0858507 132.8192567  64.1766779  97.2125398 133.8004275  65.1077598
  97.6400012 133.9914997  65.0529988  98.2130012 134.3484997  66.0359988
  98.0530012 134.1684997  63.7889988  99.2760012 134.7944997  63.4359988
  99.4599032 135.5487467  64.1861677  99.2163883 135.2676878  62.4666014
 100.4170012 133.7064997  63.4639988 101.3462779 134.1752748  63.1854515
 100.0860012 132.5444997  62.4649988 100.9582104 131.9224765  62.3162061
  99.8066972 132.9833010  61.5152474  98.9790012 131.7534997  63.0069988
  98.7580012 130.2454997  62.3609988 100.0200012 129.4534997  62.9669988
 100.0860012 129.3674997  64.3679988  99.3055136 128.7343172  64.7693814
  99.9335967 130.3536975  64.7969321 101.4950012 128.9124997  64.8749988
 101.3435873 128.7319213  65.9317458 102.1744170 129.7445147  64.7587144
 102.2290012 127.7024997  64.3529988 103.0710012 128.2144997  63.1709988
 102.4267024 128.7693303  62.5028850 103.4776393 127.3571774  62.6554951
 103.8766035 128.8237640  63.5524680 103.0820012 127.2704997  65.4769988
 102.4715046 127.2032124  66.3643997 103.8819757 127.9780302  65.6027418
 103.4792819 126.2977035  65.2257366 101.3020012 126.5674997  63.9149988
 100.6876940 126.2674758  64.7508782 101.8981063 125.7300360  63.5849028
 100.6749529 126.9069048  63.1031800  97.4920012 129.7144997  62.8159988
  99.0520012 130.2604997  60.8719988 100.5520012 133.2174997  64.7579988
 101.6280012 132.5934997  65.1309988 102.5540012 132.2274997  64.4269988
 101.5540012 132.4674997  66.6649988 101.6831649 133.4614529  67.0808434
 100.5546806 132.1517230  66.9540496 102.6590012 131.4454997  67.2039988
 102.4137546 131.2433603  68.2408473 102.5154298 130.5094604  66.6736679
 104.1360012 131.8794997  67.1099988 104.7747250 131.0133910  66.9565660
 104.2675185 132.5118790  66.2354334 104.6030012 132.6724997  68.3729988
 105.4224902 133.3315574  68.0923092 103.8058042 133.3165209  68.7362008
 105.0780012 131.7744997  69.5239988 104.3171205 131.0675821  69.8483893
 105.9437353 131.1789231  69.2408488 105.4760012 132.6964997  70.7249988
 106.4590619 133.1160951  70.5170754 104.7883959 133.5362072  70.7740732
 105.5010012 131.9804997  72.1339988 106.0954160 132.5620658  72.8290037
 104.4902192 131.9578490  72.5391565 106.0200012 130.5424997  72.0319988
 107.0520501 130.4928262  71.7190108 105.4060012 129.3904997  72.2769988
 105.9661931 128.4714357  72.1815194 103.9160012 129.1874997  72.7079988
 103.4050687 130.1044133  72.4191415 103.4918762 128.3983524  72.0972241
 103.6000012 128.9044997  74.2179988 102.5970433 128.4835736  74.2780135
 104.2781456 128.1207733  74.5501917 103.7120012 130.1264997  75.1879988
 104.6644979 130.6243713  75.0063929 102.9394685 130.8479627  74.9366258
 103.6040012 129.7514997  76.7219988 102.5738476 129.4996700  76.9638882
 104.1924590 128.8600038  76.9318500 104.1000012 130.9294997  77.6429988
 105.1875805 130.9020059  77.6747051 103.8405893 131.8749513  77.1745420
 103.5840012 130.9004997  79.0909988 102.6621381 131.4674549  79.2076745
 103.3593373 129.8878766  79.4210817 104.6550012 131.5004997  80.0389988
 104.3275308 131.4523058  81.0745448 105.5524234 130.8882256  79.9836196
 105.0200012 132.9344997  79.6899988 105.8322574 133.2890728  80.3173636
 104.1833729 133.6110139  79.8282832 105.3417535 133.0148211  78.6555110
 102.3790012  18.2904997  80.7669988 102.5999076  18.7519543  81.7244375
 101.4206482  18.6731977  80.4280419 103.1340298  18.6208880  80.0589117
 102.3580012  16.7514997  80.8779988 101.6205857  16.5204157  81.6448244
 103.3248921  16.4792394  81.2924989 102.0590012  15.8954997  79.6019988
 101.0586533  16.1241767  79.2346569 102.0447845  14.8432814  79.8791369
 103.0720012  16.0854997  78.4639988 103.5624665  17.0455216  78.6090910
 102.5297252  16.1632082  77.5229333 104.1410012  15.0054997  78.3429988
 103.6469509  14.0519966  78.1747155 104.6374954  14.9261067  79.3086878
 105.2000012  15.2204997  77.2429988 105.9703177  14.4556237  77.3229625
 105.7006687  16.1737982  77.3983399 104.6110012  15.1894997  75.8599988
 105.4007218  15.5399678  75.1979690 103.8425644  15.9612984  75.8521434
 104.0480012  13.9374997  75.3249988 103.1708891  13.6823879  75.9183312
 104.7715323  13.1422866  75.4947716 103.6720012  13.9624997  73.8699988
 102.7178289  14.4763057  73.7746060 103.4983523  12.9371564  73.5458163
 104.6770012  14.6064997  72.9589988 105.6734815  14.2705354  73.2373042
 104.6639589  15.6849524  73.1145578 104.4160012  14.3064997  71.4699988
 103.4426902  14.6932474  71.1756640 104.3816786  13.2333357  71.2903626
 105.4910012  14.9434997  70.5549988 106.4959538  14.6043450  70.7942962
 105.5073665  16.0282634  70.6426903 105.1380012  14.5724997  69.1019988
 105.5575126  15.3489833  68.4645544 104.0595664  14.6328059  68.9853126
 105.6260012  13.2074997  68.5729988 105.3525622  12.5354840  69.3798266
 106.7047540  13.3311843  68.6186752 105.2650012  12.5564997  67.2289988
 105.4988338  13.2242423  66.4095581 104.2077632  12.3215921  67.1953044
 103.7630012  12.4054997  67.2319988 103.0180012  12.1134997  68.2129988
 103.4500012  12.7954997  66.0279988 102.0930012  13.1194997  65.6489988
 101.4413127  12.5289643  66.2751234 101.8978003  12.8823493  64.6132148
 101.8730012  14.6584997  65.9279988 100.8274898  14.8712548  65.7778812
 102.7270012  15.5364997  64.9889988 102.3164482  16.5333939  64.9026901
 102.7559480  15.0867654  64.0043739 104.0460012  15.5834997  65.5569988
 105.3260012  15.4724997  64.6579988 105.4530012  16.8804997  63.9389988
 105.1360012  18.1484997  64.4979988 105.5500505  18.3237908  65.4823895
 104.0623571  18.2874206  64.5862391 105.6080012  19.2394997  63.4899988
 106.6777581  19.1539191  63.3466631 105.3847675  20.2317271  63.8547294
 104.9900012  19.1574997  62.0849988 105.5620012  18.0544997  61.2029988
 106.6403359  18.1352742  61.2048948 105.1880511  18.2017462  60.2007115
 105.2287664  17.0981827  61.5773374 103.4750012  18.9554997  62.2419988
 103.1001773  19.6959970  62.9318428 103.2887843  17.9575909  62.5967822
 103.0277992  19.0957633  61.2685341 105.2270012  20.4894997  61.3539988
 104.7865008  21.2924062  61.9261722 104.7667424  20.4454569  60.3783595
 106.2888232  20.6572874  61.2452959 106.4870012  15.2414997  65.4959988
 104.9680012  14.4114997  63.6579988 102.1870012  14.9294997  67.2169988
 101.6570012  16.0444997  67.7879988 101.1920012  16.9954997  67.1229988
 101.6960012  15.9524997  69.2599988 101.8683457  14.9119917  69.5153290
 102.5606679  16.4969867  69.6312025 100.3780012  16.4964997  69.8889988
 100.1084625  17.3636822  69.2962051  99.6172593  15.7484634  69.6896332
 100.3560012  16.8954997  71.4439988  99.3892081  16.6306655  71.8645080
 101.0894916  16.2802112  71.9592432 100.6680012  18.3724997  71.7299988
 101.6640256  18.5681051  71.3370867  99.9857614  18.9882797  71.1489946
 100.6280012  18.8244997  73.1659988 100.6065687  19.9121591  73.1450558
  99.6581620  18.5097254  73.5464067 101.7280012  18.3494997  74.1559988
 101.5442027  18.7972275  75.1314263 101.6662572  17.2738842  74.2958457
 103.1630012  18.7074997  73.6899988 103.8850870  18.1963391  74.3160074
 103.3102029  18.3283297  72.6795990 103.4070012  20.2134997  73.6859988
 103.1018294  20.7360108  72.7919036 103.9670012  20.9824997  74.7149988
 104.0859369  22.0475910  74.5769964 104.4430012  20.4774997  76.0599988
 103.6748218  20.6977576  76.7993281 104.5634490  19.3999224  76.0592095
 105.7360012  21.1284997  76.5109988 106.5637472  20.6953696  75.9506954
 105.7022609  22.1812115  76.2369213 106.0240012  21.0044997  78.0529988
 106.8289572  21.6947103  78.3055104 105.1489321  21.3456639  78.5992268
 106.4130012  19.5524997  78.5369988 105.5287432  18.9342018  78.3993738
 107.1603469  19.1736163  77.8420119 106.9300012  19.4074997  79.9539988
 106.9161739  18.3604651  80.2508445 107.9680932  19.7213081  80.0211860
 106.0660012  20.2044997  80.9719988 106.2491469  21.2757701  80.9110038
 105.0011299  20.0696209  80.7911923 106.3890012  19.7234997  82.4389988
 106.1006994  18.6774302  82.5063473 107.4741984  19.7367326  82.5130583
 105.8040012  20.4924997  83.6319988 106.1845019  20.0975267  84.5691671
 104.7218543  20.4253331  83.6664650 106.0679037  21.5452648  83.5852864
  10.1480012  56.0424997  83.5899988   9.9092301  56.4638739  84.5615239
   9.6343158  55.0890610  83.5071006   9.7369335  56.7043921  82.8326786
  11.5980012  55.8814997  83.4199988  11.9716505  55.2405899  84.2167571
  12.0675344  56.8510289  83.5627069  12.0060012  55.2934997  82.0689988
  13.0301477  55.5588460  81.8069984  11.3796220  55.6854208  81.2701133
  11.8730012  53.8134997  82.0889988  10.8171433  53.5724992  82.1906497
  12.3573744  53.4302463  82.9857738  12.4360012  53.0694997  80.8399988
  12.4273891  51.9984917  81.0255809  13.4805889  53.3493391  80.7139380
  11.7130012  53.3404997  79.6029988  11.1793129  54.2713074  79.7862768
  10.9551744  52.5623216  79.5420529  12.4320012  53.4324997  78.2939988
  11.6832390  53.3537201  77.5079205  13.0590115  52.5462187  78.2068550
  13.2760012  54.6664997  78.0579988  14.0944489  54.6489382  78.7765292
  12.6699894  55.5351311  78.3088238  13.8430012  54.8384997  76.6549988
  14.5022687  54.0042890  76.4247818  14.4626890  55.7336817  76.6201693
  12.7570012  54.9354997  75.5849988  12.1592181  55.8304194  75.7433434
  12.0717887  54.0922137  75.6673500  13.3900012  54.9544997  74.1239988
  13.8292536  53.9814164  73.9149360  14.2094483  55.6702232  74.0869267
  12.3490012  55.2904997  72.9739988  11.4194883  54.7394672  73.0947794
  12.7393439  55.0172811  71.9954007  12.0730012  56.8044997  72.9879988
  13.0284209  57.3264432  72.9882830  11.5758078  57.0795432  73.9139706
  11.2190012  57.3454997  71.7599988  11.7848281  57.2829479  70.8362715
  10.9813022  58.3949084  71.9127485   9.9000012  56.5614997  71.6009988
   9.3332684  56.5823046  72.5231821  10.1033611  55.5294490  71.3410272
   9.3420012  56.9494997  70.2279988   9.3880012  58.0594997  69.7429988
   8.9620012  55.9094997  69.6499988   8.5130012  56.0934997  68.3019988
   7.8795210  56.9675443  68.3165213   7.9229696  55.2343728  68.0174715
   9.6780012  56.3004997  67.3369988  10.1274454  57.2319864  67.6390357
   9.4130012  56.3134997  65.7979988  10.0830432  57.0176290  65.3236081
   8.3941571  56.6465165  65.6442406   9.5960012  55.0084997  65.2559988
   8.4370012  54.0504997  64.8279988   8.8880012  53.6294997  63.3249988
   9.2140012  54.6704997  62.4459988   8.5618813  55.5115812  62.6422395
   8.9795650  54.3265025  61.4427527  10.7050012  55.1204997  62.3859988
  10.8985018  55.6944938  63.2834046  10.8658233  55.7550783  61.5264505
  11.7920012  54.0604997  62.3309988  11.8930012  53.2254997  63.6139988
  11.9585985  53.8972682  64.4588407  12.7909273  52.6287180  63.5533337
  11.0313528  52.5782218  63.6796533  11.4110012  53.1074997  61.2169988
  11.1851742  53.6853199  60.3339133  10.5656266  52.5213283  61.5302319
  12.2622402  52.4678669  61.0338076  13.1890012  54.7064997  62.0879988
  13.1669434  55.2641591  61.1635468  13.9336012  53.9273963  62.0230462
  13.4283473  55.3674777  62.9085208   8.5480012  52.8904997  65.7299988
   7.1720012  54.8014997  64.9619988  10.5960012  55.1974997  67.6039988
  11.8870012  55.4914997  67.7399988  12.3310012  56.5914997  67.5379988
  12.7450012  54.3394997  68.1429988  12.8693231  53.7730200  67.2258304
  13.7216443  54.7614655  68.3666503  12.2370012  53.4454997  69.3169988
  13.0896390  53.0913198  69.8858805  11.6458924  54.0435929  70.0032261
  11.4320012  52.2614997  68.8459988  10.4599815  52.5678147  68.4678416
  11.9375382  51.7689891  68.0189978  11.2620012  51.2734997  69.9579988
  11.1670516  50.2861653  69.5098230  12.1689048  51.2492923  70.5572831
  10.1060012  51.4914997  70.8509988  10.0064812  52.5578428  71.0431160
   9.2061812  51.1949552  70.3154930  10.1560012  50.7014997  72.2469988
  10.3765073  49.6489675  72.0759603  10.9472581  51.0802837  72.8878990
   8.7740012  50.8294997  73.0169988   8.1204858  50.0436417  72.6565477
   8.9666820  50.6108857  74.0664882   8.0910012  52.2104997  72.9179988
   7.4747070  52.3611567  72.0444783   8.1690012  53.2274997  73.7959988
   7.6909494  54.1613529  73.5371657   8.8440012  53.2384997  75.1219988
   9.4658687  52.3558907  75.2616529   9.4853056  54.0935950  75.3042666
   7.7430012  53.2084997  76.1539988   7.3155132  54.2033675  76.2731500
   6.9342846  52.5711938  75.8014681   8.2510012  52.6764997  77.5649988
   8.0585202  51.6041754  77.5993304   9.3308101  52.7923940  77.5979407
   7.6250012  53.3444997  78.8049988   6.5406871  53.3797479  78.7264774
   7.8462600  52.7898576  79.7152194   8.1910012  54.7754997  78.9309988
   9.2788163  54.7402900  78.9280706   7.9110587  55.3714525  78.0666508
   7.7380012  55.4894997  80.2409988   8.0264828  54.8777954  81.0939227
   8.2891255  56.4230390  80.3389802   6.3120012  55.7814997  80.3409988
   5.9684576  56.3518879  79.4816094   5.7586666  54.8453012  80.3151862
   5.9500012  56.5334997  81.6319988   4.8745992  56.6571432  81.7173910
   6.3943900  57.5225790  81.6633295   6.2912006  55.9905694  82.5088971
  61.7790012  14.4284997  83.5189988  61.0538869  14.6815293  84.2862108
  61.9097810  15.3013945  82.8859574  62.7276987  14.2347596  84.0119995
  61.3260012  13.2184997  82.7049988  60.3596032  13.4424170  82.2565135
  61.1608792  12.3892692  83.3875862  62.3340012  12.7964997  81.5759988
  63.3237173  12.5890681  81.9826475  62.4664526  13.6036580  80.8582781
  61.8170012  11.5384997  80.8149988  60.7971765  11.7329700  80.4903620
  61.7577521  10.7028409  81.5106064  62.6400012  11.1304997  79.6089988
  62.2588933  10.1684316  79.2762004  63.6478354  10.9486271  79.9785356
  62.7060012  12.0834997  78.4049988  63.1511173  13.0276206  78.7137451
  61.6973396  12.3175393  78.0712259  63.5140012  11.5004997  77.2189988
  63.2993467  10.4400085  77.1004580  64.5824465  11.5743744  77.4169813
  63.1880012  12.2364997  75.9019988  63.3494616  13.3111402  75.9763574
  62.1512086  12.1052949  75.5978105  64.1280012  11.6484997  74.7969988
  63.8261828  10.6494475  74.4898484  65.1592930  11.5628976  75.1371259
  64.0700012  12.5994997  73.5769988  64.2678096  13.6073969  73.9352081
  63.0463845  12.6037685  73.2033415  65.0490012  12.2454997  72.3979988
  64.9005224  11.2190403  72.0695535  66.0901232  12.3159272  72.7082131
  64.8160012  13.1664997  71.2109988  65.1420481  14.1682652  71.4800308
  63.7435635  13.2323390  71.0371809  65.5190012  12.7064997  69.8679988
  65.4674129  11.6256222  69.7484386  66.5733038  12.9663953  69.8337316
  64.7980012  13.3564997  68.6579988  64.9315985  14.4325884  68.6971102
  63.7324082  13.1680345  68.7584205  65.2670012  12.8304997  67.2619988
  65.1737606  11.7530670  67.2121392  66.3020188  13.0984847  67.0859547
  64.7760012  11.4094997  67.0539988  64.4620012  10.6984997  67.9809988
  64.6740012  11.1304997  65.6979988  63.9190012   9.9434997  65.4199988
  64.1129638   9.3614718  66.3083028  64.3282318   9.4276865  64.5634598
  62.3660012  10.1804997  65.2489988  61.8375716   9.2499165  65.1238140
  62.2050012  11.0544997  63.9749988  61.2328666  10.8997494  63.5268831
  62.9661993  10.7702409  63.2592060  62.3710012  12.4544997  64.3669988
  62.7040012  13.4754997  63.2459988  61.2960012  14.2324997  63.1119988
  60.4430012  14.7064997  64.1339988  60.1542261  15.7230048  63.9005139
  61.0353825  14.7556868  65.0430983  59.2720012  13.8924997  64.4809988
  58.7381825  14.5224907  65.1812829  59.6361194  13.0209938  65.0056629
  58.2280012  13.3844997  63.5039988  58.8660012  12.1004997  62.8569988
  59.8538831  12.3506859  62.4952942  58.2412958  11.7989090  62.0294202
  58.8944899  11.3132442  63.5953308  57.0070012  12.8864997  64.2009988
  56.6834355  13.6381243  64.9046178  57.2379560  11.9593699  64.6944158
  56.2467933  12.7307159  63.4492592  57.8510012  14.4204997  62.4449988
  57.4764728  15.3079121  62.9331684  57.0856674  14.0098370  61.8036951
  58.7222633  14.6671426  61.8555036  63.7030012  14.3164997  63.8539988
  63.0950012  12.7934997  61.9799988  61.8720012  10.7324997  66.4219988
  60.5880012  10.8604997  66.5219988  59.7360012  10.5584997  65.6849988
  60.2240012  11.6094997  67.8029988  60.3144770  12.6659183  67.5720295
  59.1697489  11.4387095  68.0061977  61.1310012  11.1894997  69.0609988
  62.1661870  11.3049037  68.7591159  60.9640225  11.9203383  69.8458720
  60.9250012   9.7784997  69.6129988  59.8661079   9.6813784  69.8387565
  61.1214511   9.1028611  68.7841532  61.7490012   9.3384997  70.7979988
  61.5770775   8.2720403  70.9314625  62.8024430   9.4480840  70.5521255
  61.4750012  10.0454997  72.1399988  62.0696904   9.6507197  72.9612141
  61.6912651  11.1111114  72.0943644  60.0170012   9.8644997  72.4489988
  59.4967984  10.5161634  71.7486956  59.7707272   8.8462709  72.1611143
  59.4950012  10.1114997  73.8409988  59.9876898  10.9709368  74.2805505
  58.4345822  10.3559836  73.7953336  59.6680012   8.9014997  74.6899988
  59.5645983   7.9722520  74.1502205  59.9310012   8.8224997  75.9539988
  60.0678652   7.8638713  76.4334881  60.0790012   9.9954997  76.8779988
  60.7020617   9.7002847  77.7205334  60.5876535  10.8255044  76.4004571
  58.7560012  10.4624997  77.4129988  58.0454287  10.2086039  76.6272961
  58.5552934   9.7790001  78.2358011  58.5090012  11.8974997  77.8799988
  59.3610322  12.2892200  78.4356114  58.3517553  12.5766420  77.0466061
  57.2600012  11.9034997  78.7919988  56.4456929  11.4600537  78.2233136
  57.4535960  11.2280060  79.6234519  56.8330012  13.2664997  79.3389988
  57.6822015  13.7660461  79.8014943  56.5051174  13.9208558  78.5359202
  55.6980012  13.1344997  80.4249988  54.9458333  12.4411209  80.0530413
  56.1265564  12.6683984  81.3103936  55.0110012  14.4074997  80.8409988
  54.6438829  14.9263485  79.9589925  54.1266738  14.1284715  81.4097003
  55.8710012  15.3874997  81.6999988  55.2764953  16.2341493  82.0298718
  56.7153290  15.7803005  81.1436185  56.2606417  14.8921197  82.5848264
   6.1320012  88.9494997  84.3619988   5.9510763  89.6811992  85.1432228
   7.1100469  88.5112843  84.5385880   5.3934298  88.1600681  84.4711874
   6.0550012  89.5784997  82.9939988   6.7849182  90.3856187  82.9626462
   5.0781281  90.0470537  82.9103914   6.2900012  88.6464997  81.8169988
   5.4375653  87.9710806  81.7456460   7.1481434  88.0235597  82.0613523
   6.5480012  89.3314997  80.3789988   7.5140369  89.8309099  80.4037865
   5.8083333  90.1137884  80.2158369   6.5290012  88.3574997  79.1909988
   5.5297101  87.9615683  79.0290459   7.1670875  87.5004061  79.3998082
   6.9910012  89.0194997  77.9469988   7.1313355  88.2424878  77.1977486
   7.9776373  89.4330149  78.1448147   6.1050012  90.0974997  77.3849988
   5.8487105  90.7696851  78.2018536   5.1731792  89.6267745  77.0745866
   6.6690012  90.9074997  76.2259988   7.3456938  91.6600664  76.6287161
   5.8527724  91.4530516  75.7560757   7.4170012  90.0694997  75.1439988
   6.7784779  89.2537097  74.8118604   8.2964473  89.6050295  75.5883174
   7.8470012  90.9104997  73.9249988   8.4439814  91.7569984  74.2571936
   6.9684029  91.3299566  73.4355603   8.6570012  90.0564997  72.8869988
   8.0055855  89.3395121  72.3918952   9.4340795  89.4714461  73.3758643
   9.2910012  90.9444997  71.8219988   9.8048094  91.7796481  72.2918360
   8.5110279  91.3789069  71.1994218  10.2570012  90.1694997  70.9249988
  11.1558332  89.9787925  71.5089369  10.5588781  90.8128049  70.1032307
   9.7640012  88.8194997  70.3539988   9.7282183  88.0587854  71.1269014
  10.4570331  88.4649682  69.5956412   8.3490012  88.9614997  69.7069988
   8.3527832  89.7397602  68.9544450   7.6123251  89.2108795  70.4614436
   7.7660012  87.6054997  69.4529988   7.4620012  86.8154997  70.3229988
   7.7250012  87.4244997  68.1379988   7.2220012  86.0974997  67.7789988
   7.0115980  85.6006998  68.7140829   7.9281010  85.5050810  67.2153898
   5.8850012  86.3154997  66.9609988   5.4955380  85.3310247  66.7609453
   6.1220012  87.0854997  65.6019988   5.1766450  87.0452049  65.0780913
   6.8372693  86.4662536  65.0752059   6.5790012  88.3934997  65.6789988
   5.7050012  89.7084997  65.6319988   5.3480012  90.0414997  64.0929988
   6.4470012  90.1474997  63.2219988   7.3173569  90.5546868  63.7198627
   6.2034572  90.8343038  62.4165278   6.7940012  88.7584997  62.4999988
   6.8065472  88.0218673  63.2933866   7.7730782  88.7950474  62.0445327
   5.8520012  88.2004997  61.4279988   5.3930012  89.3364997  60.4549988
   5.0160010  90.1625864  61.0421832   4.6035577  88.9429278  59.8321181
   6.2295577  89.6290000  59.8382868   6.6710012  87.2634997  60.6539988
   7.1729863  86.5991166  61.3405264   7.3740051  87.8195965  60.0599350
   6.0038629  86.7022048  60.0158988   4.6230012  87.5194997  62.0739988
   4.9576583  86.7255749  62.7249750   3.9951461  87.1100246  61.2969671
   4.0644022  88.2485130  62.6431576   4.4120012  89.4034997  66.2999988
   6.5300012  90.8014997  66.1449988   4.9390012  87.0114997  67.7709988
   4.3780012  86.3104997  68.7119988   4.4590012  85.0794997  68.8989988
   3.5410012  87.1774997  69.6309988   3.2901008  88.0665832  69.0616724
   2.5995094  86.6651803  69.8127381   4.2550012  87.5244997  70.9649988
   5.1857100  88.0096171  70.6920463   3.6528463  88.2838469  71.4537054
   4.5640012  86.3394997  71.9849988   3.6369745  86.0274076  72.4592076
   4.9143108  85.4843939  71.4121618   5.6110012  86.6754997  73.0499988
   6.2431279  87.4656850  72.6490885   5.1115234  87.0972477  73.9188213
   6.5060012  85.5304997  73.5049988   7.2076297  85.3419955  72.6950083
   7.0957084  85.9223911  74.3314656   5.8510012  84.1734997  73.9539988
   5.2958516  83.7951736  73.0970394   6.6513311  83.4624647  74.1389833
   4.9380012  84.2054997  75.1699988   4.1224528  84.8704907  74.9106770
   4.5090781  83.2067371  75.2396008   5.5240012  84.5644997  76.4899988
   6.5565759  84.2602670  76.5723754   4.9980012  85.1814997  77.5229988
   5.5534365  85.3681134  78.4308957   3.5710012  85.6984997  77.5529988
   3.5478892  86.5279260  78.2577958   3.3066011  86.1136767  76.5868716
   2.4960012  84.6674997  77.9819988   1.5200371  85.1486828  77.9304039
   2.4825166  83.8738330  77.2374382   2.6880012  84.0554997  79.3619988
   1.8249786  83.4306323  79.5918680   3.5475784  83.3912038  79.3435090
   2.8710012  85.1024997  80.4829988   3.7941817  85.6585530  80.3357327
   2.0674127  85.8366643  80.4647559   2.8910012  84.3884997  81.8899988
   2.7534701  85.1177948  82.6861168   2.0674891  83.6861193  81.9854696
   4.2170012  83.6744997  82.1319988   4.1052202  82.8752233  82.8624406
   4.5771479  83.2017248  81.2200710   5.2830012  84.6374997  82.6289988
   6.2454477  84.1437529  82.5202522   5.2891173  85.4582438  81.9150978
   5.1630012  85.2184997  84.0489988   5.9414273  85.9531143  84.2319283
   5.2549121  84.4511297  84.8102062   4.2045542  85.7100462  84.1900743
 110.3890012 125.2234997  79.7829988 110.6609738 126.2697530  79.6839344
 109.3968026 125.0975684  79.3593558 111.0807705 124.6435697  79.1782273
 110.4270012 124.7814997  81.2249988 109.7502952 125.4303482  81.7784132
 111.4261283 124.9966141  81.5941663 110.0660012 123.3234997  81.5049988
 108.9781813 123.2597309  81.5275923 110.4012784 123.1096889  82.5179376
 110.6130012 122.2464997  80.5779988 110.2300861 122.3889108  79.5698593
 110.2819352 121.2569319  80.8892173 112.1530012 122.2774997  80.5289988
 112.5381233 121.7942443  81.4232684 112.4661046 123.3187217  80.5854605
 112.7950012 121.6194997  79.2889988 112.4525166 120.5887280  79.2180691
 113.8726946 121.5728760  79.4303495 112.4920012 122.3384997  77.9889988
 113.3822254 122.2929417  77.3643426 112.3335452 123.3917625  78.2165049
 111.2710012 121.7964997  77.1849988 110.3561796 122.0890356  77.6987840
 111.2945767 120.7084592  77.2022051 111.2080012 122.2924997  75.6849988
 111.7054138 123.2564350  75.6016301 110.1695781 122.4613604  75.4026149
 111.8570012 121.2874997  74.6829988 111.1859753 120.4659490  74.4420054
 112.7618162 120.8341134  75.0869537 112.2100012 122.0694997  73.4079988
 112.9012754 121.4826380  72.8069377 112.7376061 122.9858118  73.6670993
 110.9920012 122.4144997  72.5439988 110.3746410 123.1609482  73.0378611
 110.3636906 121.5345048  72.4194801 111.4270012 122.9264997  71.1219988
 110.5994761 122.7239385  70.4441911 112.2581242 122.3172534  70.7780110
 111.8130012 124.4554997  70.9779988 112.4014655 124.7543180  71.8392550
 110.8944949 125.0356138  71.0080960 112.5850012 124.8194997  69.6809988
 112.0307047 124.4998497  68.8077174 113.5558202 124.3383568  69.6719979
 111.7940012 124.9294997  68.3649988 110.9340012 125.7184997  68.0959988
 112.1330012 123.9594997  67.5029988 111.6100012 123.8644997  66.1309988
 112.5202622 123.7661500  65.5589723 111.1390710 124.8055431  65.8863480
 110.6400012 122.6504997  65.8309988 111.0422414 121.6982881  66.1349559
 110.3460012 122.6374997  64.2929988 109.9403342 121.6669858  64.0413282
 111.3053657 122.7500498  63.8035735 109.4760012 123.6474997  63.8929988
 109.2360012 123.9424997  62.3529988 107.9790012 124.8634997  62.4659988
 107.2480012 124.9434997  63.7099988 107.0747470 123.9559026  64.1172138
 106.2694053 125.3697629  63.5088851 107.8860012 125.8734997  64.7639988
 108.8333897 125.4125904  65.0135315 107.2622564 125.8847755  65.6461508
 108.2100012 127.3654997  64.4499988 109.0380012 127.8294997  65.6319988
 108.5125763 127.5757710  66.5424297 109.1473274 128.9015241  65.5619177
 110.0100998 127.3621265  65.5840038 108.9760012 127.3764997  63.1579988
 108.4360488 126.7852639  62.4343927 109.9615971 126.9826781  63.3308436
 109.0363539 128.4031768  62.8269570 106.9980012 128.2264997  64.2709988
 106.3952480 127.8294709  63.4677934 107.3094414 129.2311240  64.0273085
 106.4252879 128.2380173  65.1871330 110.3740012 124.7124997  61.8589988
 108.9070012 122.7154997  61.6259988 109.4970012 122.8754997  66.6609988
 108.8400012 121.7774997  66.9649988 109.1190012 120.6414997  66.6509988
 107.7590012 122.1694997  67.8659988 107.3749568 121.2809410  68.3564337
 108.1353925 122.8087063  68.6607638 106.6580012 122.8984997  67.0319988
 107.0335656 123.8796452  66.7629900 106.5171962 122.3645056  66.0976234
 105.2630012 123.0614997  67.7759988 104.5640272 123.5571394  67.1070962
 104.8611261 122.0666113  67.9513801 105.3270012 123.8064997  69.1159988
 104.2983332 124.0108662  69.4071733 105.7247278 123.1245705  69.8636538
 106.1530012 125.1834997  69.1779988 107.1983867 124.9429033  69.3601619
 106.1133356 125.6300433  68.1863303 105.6820012 126.2284997  70.2079988
 106.5174685 126.9104879  70.3582901 104.8902427 126.8109449  69.7451877
 105.1670012 125.7024997  71.6279988 104.8002583 126.5082946  72.2531182
 104.3401666 125.0028841  71.5129823 106.2840012 125.0054997  72.2669988
 106.4797264 124.0059023  71.9091571 107.1100012 125.4904997  73.2559988
 107.9097060 124.8215110  73.5397881 107.1010012 126.7774997  74.0039988
 108.1254993 127.1087605  74.1649048 106.6066046 127.5737730  73.4588366
 106.4430012 126.6084997  75.3499988 105.4025486 126.3030956  75.2456346
 106.9341095 125.8221779  75.9200599 106.5170012 127.9764997  76.1709988
 107.5337449 128.1234335  76.5353470 106.3068658 128.8138299  75.5112828
 105.5370012 128.0054997  77.3689988 105.4906094 129.0378303  77.7085370
 104.5476558 127.7677479  76.9820172 105.8580012 127.0664997  78.5669988
 105.6951525 126.0345545  78.2617782 106.9129033 127.1390387  78.8170879
 105.0250012 127.3234997  79.7819988 105.1888016 128.3200244  80.1881895
 103.9600895 127.2566372  79.5667627 105.3810012 126.2534997  80.9069988
 104.7049450 126.3442797  81.7535341 105.2165079 125.2572177  80.5024283
 106.8320012 126.3524997  81.3989988 107.0574438 125.5526040  82.0978632
 107.0248785 127.2915775  81.9066130 107.5311566 126.2752776  80.5711344
  48.7250012 124.3134997  78.7329988  49.1980459 123.3462493  78.5948523
  47.8104090 124.1573652  79.2977406  49.3879733 124.9215425  79.3423951
  48.4340012 124.9984997  77.3709988  47.8092477 124.3137088  76.8000806
  49.3831872 125.0561200  76.8451282  47.7700012 126.3714997  77.4069988
  46.7952462 126.2896014  77.8877008  47.5759377 126.6919623  76.3853266
  48.6000012 127.4714997  78.1179988  49.6282467 127.3940697  77.7716381
  48.6246050 127.2580215  79.1854854  48.1120012 128.9214997  77.8969988
  48.4931785 129.5470364  78.7001056  47.0274044 128.9301078  77.9915541
  48.4900012 129.5164997  76.6109988  48.1264208 128.8473212  75.8332928
  49.5760508 129.4868059  76.5545058  47.9880012 130.9994997  76.3069988
  48.2055731 131.6478146  77.1538282  46.9056018 131.0094658  76.1864073
  48.6550012 131.5874997  75.0229988  48.6892786 130.8648385  74.2087280
  49.6835228 131.8981725  75.1970955  47.8170012 132.8174997  74.5809988
  47.7792828 133.5400859  75.3933949  46.7879130 132.5088780  74.4012568
  48.3680012 133.4964997  73.3229988  49.4508277 133.5800506  73.3846820
  47.9874448 134.5143677  73.2420639  47.9720012 132.7074997  72.0639988
  46.9577617 132.3338449  72.1874549  48.6080712 131.8292129  71.9683156
  48.0310012 133.4984997  70.7989988  49.0550399 133.8294336  70.6439297
  47.4371599 134.4006368  70.9337991  47.5510012 132.8004997  69.6279988
  46.5889614 132.3759342  69.9099129  48.2179520 131.9591303  69.4620223
  47.3630012 133.5654997  68.2969988  48.2363462 134.2019318  68.1991844
  46.5144219 134.2209949  68.4740052  47.1320012 132.8084997  66.9639988
  46.2838096 132.1411580  67.0492470  48.0079422 132.2260908  66.7040060
  48.2750012 131.8754997  66.7029988  49.3640012 132.2614997  66.2069988
  47.9590012 130.6404997  67.1359988  48.9950012 129.6614997  66.9299988
  49.8184320 129.9986402  67.5413578  49.2970402 129.6737447  65.8927840
  48.5490012 128.2314997  67.3649988  49.3991052 127.5695739  67.3565529
  47.4260012 127.6624997  66.4479988  47.1010822 126.7112910  66.8472866
  47.8691161 127.4967522  65.4739547  46.3210012 128.5664997  66.3459988
  45.6990012 128.8804997  64.9229988  46.8940012 129.5544997  64.2409988
  46.8090012 130.3044997  63.0669988  46.6734912 131.3327076  63.3762146
  45.8757470 129.9964137  62.6044875  47.9010012 130.1934997  61.9169988
  47.4554409 130.7429888  61.0973728  48.0102254 129.1595200  61.6231738
  49.2680012 130.7204997  62.0559988  49.9190012 130.7514997  60.6839988
  49.8049230 129.7787368  60.2256839  50.9680903 130.9696789  60.8178262
  49.4589259 131.5309024  60.0952890  49.1990012 132.0534997  62.6079988
  48.5673661 132.0299402  63.4827536  48.8115700 132.7231458  61.8611111
  50.2032273 132.3414248  62.8835455  50.0270012 129.9084997  63.0059988
  49.5211285 129.9115043  63.9600249  51.0158782 130.3267395  63.1193460
  50.1030922 128.8964670  62.6352764  45.3460012 127.6154997  64.2759988
  44.6210012 129.8994997  65.0559988  48.0950012 128.3514997  68.7339988
  49.0630012 128.4334997  69.6599988  50.2320012 128.4894997  69.4329988
  48.4550012 128.3684997  71.0629988  48.7729777 129.2428754  71.6214886
  47.3704324 128.4251490  71.0139229  48.9120012 127.0594997  71.7329988
  48.5638616 126.2105772  71.1549066  49.9953791 126.9940685  71.7396262
  48.3960012 126.9504997  73.1079988  49.0679754 126.2822013  73.6404290
  48.5307413 127.9333985  73.5527683  46.9740012 126.5224997  73.3159988
  46.6378512 126.0257885  72.4077107  46.9310221 125.7753126  74.1047106
  45.9460012 127.6914997  73.6579988  46.3687676 128.2957206  74.4580529
  45.8866538 128.3410967  72.7868601  44.5220012 127.2564997  74.0449988
  44.1741367 126.6495419  73.2105567  44.6293045 126.5826841  74.8904434
  43.4310012 128.3324997  74.3949988  42.8416671 128.5389654  73.5092013
  42.7465377 127.9035855  75.1256755  43.9920012 129.5504997  74.9449988
  44.7262817 130.0105429  74.3009908  43.7140012 130.1874997  76.1359988
  44.2764535 131.0760788  76.3843624  42.6920012 129.7984997  77.1709988
  42.1011562 130.6735479  77.4363548  41.9902505 129.0590247  76.8016699
  43.3760012 129.2624997  78.4629988  42.6204516 128.8844922  79.1507198
  44.0056650 128.4124631  78.2072251  44.2220012 130.3194997  79.1669988
  45.0008392 130.6080990  78.4611456  43.5891506 131.1933642  79.2949243
  44.8860012 129.9444997  80.5489988  45.2486225 128.9216861  80.4748154
  45.7662790 130.5702376  80.6855563  44.0160012 130.0804997  81.7089988
  43.6815544 131.1158097  81.7384669  43.1254272 129.4861099  81.5240560
  44.6160012 129.7264997  83.1169988  43.8334054 129.7432422  83.8734024
  45.0073748 128.7108159  83.1101274  45.7430012 130.6814997  83.5569988
  46.5609108 130.5972563  82.8457731  45.3524252 131.6900837  83.4407159
  46.2950012 130.5234997  85.0009988  47.0178938 131.3022643  85.2246522
  46.7907612 129.5692085  85.1434467  45.4963623 130.5930814  85.7341259
  94.9990012 133.6824997  81.8099988  95.8186347 133.0171248  82.0627953
  94.1894647 133.4911493  82.5084440  95.3388798 134.7017629  81.9718533
  94.5420012 133.4774997  80.3619988  94.2607844 132.4309399  80.2579176
  95.4153484 133.6229376  79.7319778  93.3860012 134.3614997  79.8739988
  93.7167927 135.3918239  80.0041449  92.5807493 134.2110083  80.5903037
  92.8050012 134.1834997  78.4279988  91.8851101 134.7572925  78.3396123
  92.5284556 133.1432820  78.2631478  93.7870012 134.6404997  77.3069988
  94.6400597 133.9686102  77.2577182  94.1857553 135.6229017  77.5544788
  93.1080012 134.6994997  75.9029988  93.8734183 134.9366337  75.1663028
  92.4115101 135.5352327  75.8977531  92.3670012 133.4174997  75.4729988
  91.5735022 133.1788150  76.1788026  93.0440603 132.5643826  75.4764851
  91.7770012 133.5774997  74.0979988  92.5854848 133.5059695  73.3715770
  91.3807301 134.5876768  74.0131736  90.6610012 132.5554997  73.7269988
  90.1686613 132.8638021  72.8071661  89.8908202 132.5527802  74.4973175
  91.2240012 131.1014997  73.5529988  91.3300376 130.6125260  74.5188973
  92.2192135 131.1204226  73.1095765  90.2880012 130.2884997  72.6539988
  90.1520153 130.8320332  71.7214645  89.3053109 130.2365363  73.1195604
  90.7640012 128.8744997  72.3219988  89.9416845 128.3355896  71.8576819
  90.9733988 128.3611908  73.2586612  92.0210012 128.8004997  71.4269988
  92.8325079 129.1953537  72.0359315  91.8713453 129.5129202  70.6205658
  92.4900012 127.4404997  70.8239988  91.6817568 127.0051527  70.2455879
  92.6932165 126.7571898  71.6442933  93.7270012 127.5344997  69.9579988
  94.5383767 127.9974300  70.5051790  93.5236871 128.1245728  69.0722527
  93.4640012 128.4444997  68.7419988  93.7150012 129.6444997  68.7909988
  92.8530012 127.8084997  67.7229988  92.7560012 128.3634997  66.4229988
  92.6900894 127.5003384  65.7779636  93.6646893 128.9032235  66.1989987
  91.5010012 129.2774997  66.2349988  90.6557714 128.7070805  66.5829967
  91.2540012 129.7504997  64.7589988  90.2286483 130.0667805  64.6232822
  91.4542081 128.9249682  64.0874335  92.1510012 130.8344997  64.4979988
  92.7150012 130.8474997  62.9709988  92.3820012 132.2964997  62.4289988
  93.4700012 133.2874997  62.2169988  93.7594797 133.3346062  61.1752828
  94.3500670 132.9669784  62.7670417  93.1460012 134.6654997  62.7539988
  92.3356129 135.0644916  62.1570688  93.9992521 135.3222569  62.6645014
  92.6960012 134.7704997  64.1699988  93.5600012 133.9234997  65.0569988
  93.6101508 132.9268795  64.6403848  93.1001962 133.8867900  66.0333859
  94.5363104 134.3782093  65.1330015  92.8690012 136.2034997  64.6969988
  92.4250988 136.8853530  63.9879566  93.9168618 136.4037547  64.8321131
  92.3516405 136.2642592  65.6435415  91.2950012 134.3434997  64.3389988
  90.6598783 134.9514306  63.7120051  91.0086480 134.4674099  65.3725838
  91.1984827 133.3042772  64.0594707  94.2110012 130.7304997  62.9639988
  92.0350012 129.8674997  62.0829988  91.6620012 130.4184997  67.0809988
  90.5850012 130.9184997  67.6169988  89.4220012 130.7134997  67.3299988
  90.9380012 131.9484997  68.6989988  90.0363963 132.5123877  68.9150819
  91.1915121 131.4287189  69.6195786  92.1100012 132.8744997  68.2339988
  92.9464358 132.2355173  67.9729632  91.8083042 133.3647904  67.3138754
  92.5810012 133.9304997  69.2619988  93.1627379 134.7070774  68.7719341
  91.7147746 134.4267962  69.6925870  93.3930012 133.3024997  70.3909988
  93.4644454 134.0540309  71.1750922  92.8125027 132.4829226  70.8075525
  94.8110012 132.7964997  70.0749988  94.7441244 131.9722686  69.3678413
  95.3494599 133.5917743  69.5631575  95.6490012 132.3454997  71.3219988
  96.6733774 132.1394040  71.0156020  95.7034132 133.1448527  72.0557508
  95.0730012 131.1244997  71.9829988  94.2460473 131.4409786  72.6079535
  94.6444270 130.5000417  71.2002329  96.0590012 130.3054997  72.7639988
  96.8768755 129.9107698  72.1801975  96.0520012 130.0314997  74.0329988
  96.8642402 129.4559504  74.4532615  95.0170012 130.4354997  75.0249988
  95.4408522 131.2221831  75.6468512  94.1557206 130.8704815  74.5303599
  94.5680012 129.3244997  75.9179988  94.0442314 128.5553046  75.3516868
  95.4264853 128.8342805  76.3731351  93.6420012 129.8654997  77.0319988
  94.0990099 130.7758636  77.4199260  92.7072416 130.1686765  76.5685202
  93.3500012 128.9154997  78.1919988  92.8568090 128.0073905  77.8525224
  94.2583572 128.5966110  78.7002156  92.4260012 129.6794997  79.2119988
  93.0324811 130.4127449  79.7403202  91.6852312 130.2503272  78.6587892
  91.7410012 128.8054997  80.2489988  91.4319600 127.8780825  79.7701731
  92.4760063 128.5261520  81.0017048  90.5410012 129.4084997  80.9499988
  89.7100615 129.5132811  80.2568356  90.2044852 128.7086259  81.7117381
  90.8240012 130.7574997  81.6129988  89.9591982 131.1008388  82.1727337
  91.0653281 131.5245064  80.8848484  91.6584078 130.6851572  82.3048608
 139.8800012  76.3894997  82.4419988 140.7024564  76.7430429  83.0560049
 139.5347780  75.4485131  82.8605142 139.0686306  77.1066052  82.5317179
 140.3000012  76.2254997  81.0089988 141.1124556  75.5082279  80.9058385
 140.6629167  77.1600560  80.5898201 139.0680012  75.7214997  80.2049988
 138.5028007  75.0147911  80.8124858 139.4198003  75.1616289  79.3407343
 138.1180012  76.8454997  79.7099988 138.6721837  77.3941766  78.9516550
 137.9859920  77.5334461  80.5436709 136.7340012  76.4674997  79.1339988
 136.2070328  77.3996626  78.9470505 136.1994196  75.9711085  79.9421964
 136.6680012  75.6194997  77.9059988 135.6240248  75.4460688  77.6513380
 137.0936327  74.6428263  78.1262803 137.3700012  76.2074997  76.7309988
 138.4308418  76.2679234  76.9670835 137.0260301  77.2339321  76.6112054
 137.1900012  75.4624997  75.4199988 136.1343831  75.3911217  75.1611037
 137.5516570  74.4395175  75.5060025 137.9270012  76.1564997  74.3089988
 138.9987024  76.1432288  74.4956036 137.6407459  77.2062820  74.2580875
 137.6380012  75.4874997  72.9599988 136.5803066  75.5103958  72.7069041
 137.9330066  74.4386198  72.9441315 138.4720012  76.2784997  71.8729988
 139.5285357  76.0344227  71.9607609 138.3959835  77.3530098  72.0304067
 138.0250012  75.9494997  70.4779988 136.9981762  76.2901874  70.3694567
 137.9960105  74.8648335  70.3923895 138.9030012  76.5164997  69.3229988
 138.8885838  77.6045765  69.3566574 138.5006142  76.2367636  68.3534079
 140.4050012  76.0474997  69.4109988 140.4645079  75.0320239  69.7886400
 140.9368960  76.6778798  70.1186716 141.1300012  76.1254997  68.0359988
 141.0544474  77.1237294  67.6238458 140.6883195  75.4260084  67.3362143
 140.4960012  75.2444997  66.9689988 140.0780012  74.1334997  67.1639988
 140.7480012  75.8834997  65.8039988 140.5180012  75.0704997  64.6019988
 140.6900670  74.0728521  64.9769050 141.2746607  75.3074012  63.8681487
 139.0580012  75.1794997  63.9719988 139.0463826  74.6899264  63.0122712
 138.5300012  76.6494997  63.8269988 137.7261203  76.6917395  63.1046468
 139.3428782  77.2742222  63.4783763 138.0670012  77.1004997  65.1309988
 137.9510012  78.6094997  65.2409988 136.9280012  78.9704997  64.0709988
 135.5510012  78.9024997  64.1549988 135.1109124  79.8911406  64.1450032
 135.2799671  78.4543141  65.1065592 134.8810012  77.9624997  63.0409988
 133.8120391  77.9749932  63.2125013 135.2318774  76.9429312  63.1098685
 135.0700012  78.3684997  61.6029988 136.4790012  78.5664997  61.1869988
 136.9574782  79.2307415  61.8935230 136.4764935  79.0191128  60.2065728
 136.9693017  77.6056453  61.1413769 134.4380012  77.2714997  60.7689988
 133.4451883  77.0821517  61.1473955 135.0535583  76.3913607  60.8220528
 134.3846729  77.6296604  59.7510725 134.3190012  79.6364997  61.3769988
 133.2767228  79.4790780  61.6114264 134.4172683  79.9272709  60.3418922
 134.7233567  80.4129311  62.0103121 137.3910012  78.8054997  66.6299988
 139.2920012  79.1934997  64.9759988 138.3060012  74.4114997  64.8099988
 137.1420012  73.9814997  64.3189988 136.8070012  74.0774997  63.1599988
 136.4270012  73.3164997  65.4439988 135.6948168  72.6521210  64.9967180
 137.1301026  72.6742945  65.9685251 135.7790012  74.3224997  66.4009988
 135.2328983  73.8107458  67.1858176 136.5233950  74.9329051  66.9023131
 134.8130012  75.2174997  65.6199988 135.3269152  75.7624096  64.8322047
 134.0570469  74.6118696  65.1262272 134.1090012  76.2024997  66.5699988
 134.8758258  76.7334569  67.1310428 133.5816133  76.9551272  65.9889517
 133.1620012  75.5924997  67.5359988 132.2876865  75.1731428  67.0424254
 133.6280031  74.7707775  68.0763652 132.7120012  76.6594997  68.5539988
 132.4713674  77.5408302  67.9615015 131.7744183  76.3083006  68.9757993
 133.6590012  77.0654997  69.7169988 134.6312833  77.3353019  69.3214559
 133.2664691  77.9584794  70.2016139 133.7750012  75.9784997  70.7389988
 134.1230219  74.9936946  70.4658788 133.4710012  76.1804997  72.0179988
 133.5655512  75.2885830  72.6206222 133.0390012  77.3684997  72.7689988
 132.8041669  78.1832977  72.0862265 132.1488051  77.2071993  73.3666728
 134.1750012  77.8154997  73.6679988 134.5782365  76.9752734  74.2320254
 134.9981561  78.2025579  73.0704530 133.7060012  78.8944997  74.6309988
 133.4928104  79.8058966  74.0724182 132.7685544  78.5937354  75.0906055
 134.7610012  79.2094997  75.7519988 134.9636732  78.3455087  76.3809571
 135.7219233  79.5244960  75.3488972 134.1680012  80.3504997  76.6009988
 134.1763845  81.2930056  76.0567541 133.1295974  80.1692947  76.8646411
 135.0200012  80.5344997  77.8889988 135.9349863  79.9534281  77.7887935
 135.3295402  81.5760402  77.9539055 134.3290012  80.1414997  79.2249988
 133.4291410  80.7140481  79.4356050 134.0210588  79.0982192  79.2178976
 135.3140012  80.3424997  80.3259988 134.9091984  79.9982333  81.2729330
 135.5796541  81.3872965  80.4467014 136.2294409  79.7890365  80.1368175
 138.3500012  66.4864997  80.9109988 138.3415917  67.0555959  81.8353838
 139.3739760  66.1778337  80.7212864 137.7600112  65.5881496  81.0706575
 137.7910012  67.3154997  79.7379988 138.3781799  68.2193848  79.5849767
 136.7761405  67.6426532  79.9473847 137.8190012  66.4944997  78.4899988
 137.4134225  65.5127969  78.7343235 138.8660503  66.3341917  78.2406788
 137.0920012  67.0514997  77.2319988 136.0436272  67.2296986  77.4609250
 137.1043305  66.3198981  76.4255788 137.7370012  68.4074997  76.7209988
 138.7490586  68.1932703  76.3872047 137.8325704  69.0633452  77.5847685
 136.9790012  69.1604997  75.5849988 136.9411416  68.5044374  74.7172626
 137.5815251  70.0176913  75.2921432 135.5540012  69.6344997  75.9269988
 135.6505637  70.3879925  76.7065462 135.0410317  68.7888790  76.3830887
 134.6840012  70.1994997  74.7739988 133.8830903  70.7428270  75.2737870
 134.2213443  69.3241701  74.3218586 135.2710012  71.0654997  73.6909988
 134.6254297  70.9780785  72.8197146 136.2265652  70.6270579  73.4059669
 135.4850012  72.6244997  74.0429988 136.1393121  72.7226463  74.9064474
 134.5359136  73.0789952  74.3260106 136.0900012  73.4094997  72.8149988
 136.1713847  74.4436095  73.1429235 135.3232045  73.3969408  72.0423454
 137.4270012  72.9914997  72.2049988 137.5977711  71.9242020  72.3230336
 138.2526872  73.4891229  72.7102548 137.4610012  73.3614997  70.7549988
 137.2923147  74.4299733  70.6318692 136.6796250  72.8628577  70.1883582
 138.8570012  73.0144997  70.1189988 138.8921875  71.9489986  69.9169730
 139.6182089  73.2179776  70.8674982 139.2160012  73.7894997  68.8279988
 139.1547521  74.8570127  68.9974257 138.5355392  73.5248725  68.0273659
 140.6230012  73.4174997  68.3099988 141.6330012  73.5484997  68.9839988
 140.5420012  72.9064997  67.1829988 141.6220012  72.3464997  66.5349988
 142.4285679  72.4480256  67.2453541 141.8480417  72.9348275  65.6575205
 141.4060012  70.7804997  66.1469988 142.3629131  70.3879162  65.8451848
 140.3640012  70.5694997  65.0079988 140.4243053  69.5547727  64.6385484
 140.6092259  71.2479047  64.2003996 139.0590012  70.8414997  65.5049988
 137.8800012  71.4104997  64.6809988 137.7150012  70.2154997  63.5679988
 137.4140012  68.9364997  64.0489988 136.5621208  68.8998307  64.7154402
 138.2517293  68.5142139  64.5964322 137.2160012  68.0294997  62.8719988
 137.3404026  67.0177834  63.2369693 137.9523952  68.2143847  62.1032866
 135.8710012  68.0534997  62.1739988 135.5590012  69.4294997  61.4829988
 135.7111051  70.2204796  62.2044897 134.5260026  69.4177975  61.1685517
 136.1990796  69.5418176  60.6207916 135.9790012  66.9434997  61.1229988
 136.3383726  66.0478649  61.6061183 136.6452286  67.2633023  60.3418219
 134.9882991  66.7779637  60.7249983 134.7980012  67.7404997  63.1849988
 134.9947010  66.7739993  63.6246216 133.8384220  67.7246451  62.6904217
 134.7953026  68.4989092  63.9545719 136.7200012  71.5684997  65.6179988
 138.3500012  72.5704997  63.9219988 140.9650012  70.0504997  67.3989988
 141.0730012  68.7484997  67.3359988 141.4780012  68.1014997  66.4079988
 140.7330012  68.2044997  68.7079988 141.3858946  67.3711367  68.9463037
 140.8981661  68.9440821  69.4875148 139.2710012  67.7844997  68.6519988
 138.7057475  68.5750684  68.1708020 139.1761596  66.9143712  68.0101930
 138.6450012  67.4854997  70.0419988 137.6227521  67.1382987  69.9150642
 139.1903958  66.6624049  70.4971084 138.6790012  68.7034997  71.0159988
 139.4671127  69.3638996  70.6589861 137.7475564  69.2527906  70.9024548
 138.9160012  68.4314997  72.5109988 138.4290726  69.2385319  73.0545984
 138.3540125  67.5285820  72.7418439 140.4070012  68.2554997  73.0489988
 140.3582625  67.9545726  74.0943544 140.8877629  67.4392470  72.5170986
 141.2860012  69.5104997  72.9219988 141.9634567  69.3945437  72.0840320
 140.6504593  70.3632319  72.6868812 142.0450012  69.8094997  74.2019988
 143.0171333  69.3506375  74.3017917 141.6310012  70.5984997  75.2149988
 142.2796237  70.6840905  76.0749831 140.3320012  71.4214997  75.3229988
 139.8660589  71.4935235  74.3417081 139.5976181  70.9614330  75.9746898
 140.6320012  72.8394997  75.8159988 141.1819051  72.7907672  76.7551132
 141.2925164  73.3290526  75.1028953 139.3690012  73.6954997  76.0049988
 139.6396353  74.7509919  76.0332884 138.7018331  73.5757379  75.1558533
 138.5840012  73.3104997  77.3649988 138.2166722  72.2996163  77.2027360
 139.3496700  73.2360109  78.1352505 137.4660012  74.1904997  77.8599988
 137.9253100  74.9494844  78.4905284 137.0722839  74.7202589  76.9968841
 136.3270012  73.5554997  78.6459988 135.5103362  74.2693131  78.7377136
 135.9297363  72.7132087  78.0824736 136.7070012  73.0654997  80.0509988
 135.8164490  72.6243561  80.4917075 137.3978464  72.2405594  79.8912507
 137.3310012  74.0414997  81.0389988 137.6237276  73.5315275  81.9518562
 136.6435168  74.8337666  81.3154394 138.2191444  74.5064639  80.6204885
 139.6260012  64.4944997  80.9059988 139.5941703  65.2485668  81.6862542
 139.6646086  65.0084928  79.9499075 140.5539694  63.9407413  81.0193065
 138.3490012  63.5104997  80.9889988 137.4290275  64.0845784  80.8926398
 138.3125737  63.0374888  81.9666223 138.3940012  62.4684997  79.9139988
 137.5736110  61.7614078  80.0361056 139.3090850  61.8868978  80.0063671
 138.3370012  63.0924997  78.4459988 139.3609043  63.2318131  78.1061987
 137.9029382  64.0889891  78.5116050 137.5800012  62.2784997  77.3959988
 138.0238522  61.2890443  77.3215183 137.7232698  62.7514340  76.4258585
 136.0310012  62.1254997  77.6779988 135.5880583  63.1191007  77.6409098
 135.9130676  61.7779616  78.7021501 135.2730012  61.2064997  76.7499988
 134.2297848  61.2081371  77.0605901 135.6379751  60.1936816  76.9149944
 135.3570012  61.5394997  75.2439988 136.3776682  61.4681896  74.8703616
 135.0268718  62.5552302  75.0342608 134.4810012  60.5654997  74.4899988
 133.6308726  60.2833125  75.1074070 135.0343603  59.6472008  74.2973908
 133.9780012  61.1364997  73.1679988 134.8431791  61.4794734  72.6048512
 133.3854704  62.0241837  73.3878928 133.1500012  60.1794997  72.3199988
 132.9503012  60.6540829  71.3616503 132.1802172  60.0321146  72.7921478
 133.8130012  58.7814997  72.0509988 134.0666152  58.2865800  72.9853186
 134.7485484  58.9045292  71.5085183 132.8260012  57.8444997  71.1739988
 132.5971659  58.3174202  70.2204619 131.8725650  57.6772950  71.6672290
 133.4930012  56.4704997  70.8799988 132.8105197  55.8277120  70.3337497
 133.7112120  55.9707878  71.8200860 134.7570012  56.6054997  70.1119988
 135.4416730  57.2704978  70.6229223 134.5577264  57.0035548  69.1241169
 134.5000012  57.0204997  68.6069988 133.3840012  56.9104997  68.1009988
 135.5890012  57.5804997  67.9309988 135.4620012  57.6564997  66.5099988
 134.7521474  56.9094751  66.1882475 136.4370439  57.4104496  66.1151025
 135.0060012  59.0804997  66.0339988 133.9754547  59.2574310  66.2939281
 135.1810012  59.1184997  64.4339988 134.3005091  58.6950207  63.9701019
 136.0346591  58.4994741  64.1877054 135.3920012  60.4724997  63.9759988
 135.7650012  60.6934997  62.4759988 137.1610012  61.4224997  62.4079988
 137.5680012  62.2214997  63.5049988 136.7735026  62.8912708  63.8072695
 138.3956155  62.8490300  63.1871041 138.1100012  61.4154997  64.7179988
 137.3144077  60.7864399  65.0968971 138.4553047  62.0570577  65.5158370
 139.2750012  60.4704997  64.4039988 140.4430012  61.0794997  63.6959988
 140.0809429  61.6109304  62.8266144 141.0989135  60.2795623  63.3861936
 140.9652858  61.7325083  64.3790182 139.8000012  59.8964997  65.7649988
 138.9580637  59.5211827  66.3262406 140.3133808  60.6754412  66.2998459
 140.4808911  59.0899886  65.5342915 138.7970012  59.2984997  63.5239988
 138.0095872  58.7666887  64.0370664 139.6256286  58.6307915  63.3418110
 138.4276923  59.6809958  62.5833912 135.9770012  59.3754997  61.8429988
 134.7560012  61.6734997  61.8659988 135.8480012  60.1454997  66.5769988
 135.4880012  60.7804997  67.6269988 134.4160012  60.6344997  68.1899988
 136.5750012  61.7954997  67.9939988 137.5350267  61.3879445  67.6943275
 136.4458312  62.7076121  67.4167008 136.5180012  62.0834997  69.5059988
 135.6308517  62.6416191  69.7844400 136.5076065  61.1822039  70.1106400
 137.8010012  62.9454997  69.8479988 138.6252094  62.5063018  69.2917254
 137.6236884  63.9228673  69.4059833 138.2040012  63.1394997  71.3269988
 139.0623638  63.8087664  71.3257185 137.4004224  63.6768119  71.8247524
 138.5390012  61.9724997  72.1089988 138.2354566  62.0887247  73.1473886
 138.0101920  61.0979599  71.7349372 140.1060012  61.6864997  72.0449988
 140.3510750  61.4717625  71.0059955 140.6307018  62.6028171  72.3006736
 140.6460012  60.5284997  72.9549988 141.7265304  60.5713062  73.0271384
 140.2660134  60.6460069  73.9689748 140.1920012  59.2024997  72.4239988
 140.5400168  59.0482999  71.4137208 139.4590012  58.2054997  72.9849988
 139.2626131  57.2855587  72.4532560 138.8680012  58.2564997  74.3429988
 138.8643565  59.2882560  74.6903986 137.8344933  57.9287581  74.3543074
 139.7010012  57.3954997  75.3649988 139.6062183  56.3521015  75.0666004
 140.7471238  57.6584440  75.2202692 139.3430012  57.5384997  76.8649988
 139.8826076  56.7815410  77.4341608 139.6904821  58.5000061  77.2327846
 137.8030012  57.3964997  77.1449988 137.3618554  58.3253885  76.7904554
 137.4502078  56.6161584  76.4729204 137.3340012  57.1064997  78.5169988
 137.6323848  56.0841521  78.7414153 137.9043867  57.7373378  79.1932595
 135.8150012  57.2384997  78.8199988 135.4941332  58.2363539  78.5263769
 135.2796667  56.5465787  78.1723134 135.3620012  56.9844997  80.3029988
 135.6881508  57.8158336  80.9230191 134.2747020  57.0155059  80.3144931
 135.8230012  55.6674997  80.9329988 135.3910466  55.5409408  81.9211623
 136.9014864  55.6257345  81.0419310 135.5193530  54.8178648  80.3279704
 134.1590012  89.0254997  84.3549988 134.1059616  89.4914893  85.3340133
 134.0631084  89.8094360  83.6093190 135.1490586  88.5904988  84.2492987
 133.0570012  87.9504997  84.1829988 132.1187377  88.4706751  84.3681536
 133.1989289  87.2703934  85.0185381 132.9430012  87.1424997  82.8429988
 132.6003065  87.7782302  82.0267047 132.2032953  86.3501054  82.9384852
 134.2810012  86.5124997  82.4629988 134.6885061  85.9845007  83.3223047
 135.0047657  87.2870423  82.2140922 134.1640012  85.5034997  81.2619988
 133.2833005  84.8759310  81.3719847 135.0201123  84.8308677  81.2597616
 134.0890012  86.2404997  79.8989988 135.0616541  86.6569909  79.6434636
 133.4048057  87.0837863  79.9647345 133.6250012  85.2944997  78.7669988
 133.1551308  85.8150151  77.9344992 132.9100054  84.5426436  79.0982441
 134.9230012  84.5854997  78.2649988 135.3049258  84.0287081  79.1197313
 135.6410445  85.3811550  78.0751824 134.8610012  83.6554997  77.0399988
 134.1385072  82.8603649  77.2111835 135.8227499  83.1653975  76.8936561
 134.4990012  84.3874997  75.8179988 135.0817540  85.3060016  75.8107683
 133.4561735  84.6884098  75.9149141 134.6830012  83.6484997  74.5139988
 134.2600772  82.6472193  74.4680217 135.6975607  83.5660349  74.1279982
 133.8470012  84.5804997  73.5739988 134.2105929  85.6008703  73.6681471
 132.8154966  84.5921506  73.9211767 133.8640012  84.1444997  72.0919988
 132.9180026  84.4486678  71.6472287 133.8894349  83.0596081  72.0406424
 135.0160012  84.7224997  71.2139988 135.3008866  85.7169492  71.5414976
 134.6885962  84.8131213  70.1816782 136.2560012  83.7974997  71.2579988
 135.9877232  82.7899675  70.9665421 136.6718636  83.7710768  72.2582134
 137.3090012  84.3384997  70.3889988 138.4780012  84.4744997  70.7189988
 136.7890012  84.4284997  69.1819988 137.5880012  84.7224997  68.0429988
 137.3846880  83.9350941  67.3329859 138.6416053  84.7191996  68.2819535
 137.1520012  86.1014997  67.4599988 136.1189236  86.0324889  67.1618676
 138.0350012  86.6294997  66.2389988 137.9618209  85.9041313  65.4400705
 139.0570258  86.6502315  66.5962395 137.6360012  87.9454997  65.7689988
 136.8100012  88.2374997  64.4359988 135.9250012  86.9014997  64.3289988
 134.5820012  86.8774997  64.6689988 134.4107589  87.3114621  65.6454933
 134.2470305  85.8459057  64.7273554 133.6650012  87.5474997  63.5859988
 134.0042460  88.5630464  63.4252918 132.6211652  87.5699421  63.8639912
 133.7200012  86.8714997  62.2219988 132.3830012  87.1484997  61.5579988
 131.5934098  86.8730828  62.2435825 132.3205459  86.5400701  60.6680478
 132.3357649  88.1926237  61.2872762 134.8740012  87.4294997  61.4429988
 135.7556385  87.3951114  62.0644865 134.6421486  88.4363004  61.1447258
 135.0092070  86.8035024  60.5728586 133.9810012  85.3714997  62.3099988
 134.9150291  85.2026985  62.8249551 134.0385351  84.9623640  61.3125280
 133.1745236  84.8961381  62.8494988 135.9050012  89.3494997  64.5519988
 137.6970012  88.2074997  63.3069988 137.2200012  86.9914997  68.5869988
 136.3640012  87.9674997  68.5939988 135.3930012  88.0394997  67.8819988
 136.8560012  89.0254997  69.5469988 137.1133429  88.5362881  70.4808083
 137.7813844  89.4550109  69.1713752 135.8040012  90.0864997  69.7379988
 136.2437488  90.9428777  70.2372980 135.4583920  90.4459983  68.7739718
 134.6190012  89.5834997  70.5589988 133.7562268  90.2401531  70.4810209
 134.2899492  88.6078752  70.2097900 135.0700012  89.4524997  72.0819988
 135.9603105  88.8312753  72.1603283 135.3319412  90.4149522  72.5147511
 133.9760012  88.8234997  72.9159988 132.9933322  88.9942129  72.4811197
 134.1028210  87.7436582  72.9633290 134.0050012  89.3864997  74.3509988
 133.6468173  90.4147676  74.3593871 133.3462724  88.8270228  75.0093149
 135.4200012  89.3404997  74.9219988 135.9595216  90.1430021  74.4326242
 135.3195983  89.6309930  75.9669289 136.2080012  88.0174997  74.8519988
 136.1496320  87.5847575  73.8646380 136.9210012  87.3614997  75.7579988
 137.3810065  86.4023626  75.5681009 137.1650012  87.8974997  77.1509988
 136.4104081  88.6529070  77.3635310 137.0401273  87.1243349  77.9008680
 138.5520012  88.5444997  77.3099988 139.2157905  88.1395638  76.5470338
 138.4556676  89.6070608  77.0951903 139.1710012  88.3714997  78.6469988
 139.2351175  87.2896491  78.7635980 140.1903055  88.7235693  78.5144480
 138.5800012  88.9844997  79.9269988 138.6083919  90.0630097  79.7885966
 137.5272374  88.7084900  79.9513339 139.2550012  88.5974997  81.3129988
 138.7881722  87.7052760  81.7260335 140.3051657  88.3502747  81.1839277
 139.0980012  89.7704997  82.3789988 139.3165500  90.7351458  81.9244910
 138.0703061  89.8295151  82.7328264 140.0250012  89.5814997  83.5979988
 139.8946729  88.5565667  83.9362915 141.0332703  89.6335175  83.1930290
 139.9270012  90.5274997  84.7929988 140.7035466  90.3112096  85.5205046
 138.9724773  90.4413822  85.3011415 140.0433908  91.5620349  84.4826258
  16.7200012  35.8394997  82.2039988  16.7712166  36.7334989  82.8176529
  15.9571665  35.1914250  82.6257481  16.3874745  36.1373027  81.2133670
  18.0910012  35.1224997  82.1389988  18.3751844  34.9068577  83.1675615
  18.8000874  35.8610473  81.7749135  18.1950012  33.8244997  81.2989988
  17.4510435  33.0947863  81.6183332  19.1640326  33.3546063  81.4550415
  18.0280012  34.0914997  79.8399988  18.4586241  35.0695249  79.6368225
  16.9631414  34.1816800  79.6310796  18.6560012  33.0624997  78.8679988
  19.6426189  32.7595928  79.2091819  18.7971305  33.5140804  77.8874263
  17.8100012  31.8664997  78.7339988  16.9485921  32.1823324  78.1483016
  17.4374817  31.6579282  79.7346506  18.3800012  30.5984997  78.1399988
  17.6452715  29.8083737  78.2836765  19.2485616  30.3180204  78.7342749
  18.7790012  30.6574997  76.6529988  19.0868934  29.6486099  76.3813470
  19.6754348  31.2727597  76.6025423  17.7280012  31.1824997  75.5989988
  17.5682887  32.2548744  75.6886942  16.7523513  30.7178134  75.7359333
  18.2620012  30.8534997  74.1539988  17.4384697  30.5440160  73.5142215
  18.9535506  30.0121276  74.1897975  18.9810012  32.0764997  73.5369988
  19.8394217  32.3529258  74.1454753  18.3270247  32.9467140  73.5239709
  19.4710012  31.7904997  72.1119988  18.7206326  31.1991356  71.5929087
  20.3614614  31.1674131  72.1712748  19.8180012  33.0924997  71.2719988
  20.1013242  32.8133428  70.2585633  20.6699144  33.6201570  71.6916362
  18.6020012  34.0764997  71.1799988  18.9080266  35.1156079  71.1171704
  17.9564039  33.9908435  72.0500328  17.7880012  33.7134997  69.9299988
  17.4997573  32.6702742  69.9552390  18.3717523  33.8914118  69.0346492
  18.3090012  34.1504997  68.5639988  17.6600012  34.0484997  67.5499988
  19.5890012  34.5654997  68.6689988  20.3940012  34.5584997  67.4839988
  21.0405927  35.4124905  67.6184645  19.7647015  34.7242924  66.6216261
  21.2290012  33.2794997  67.3179988  21.7246173  33.1009511  68.2578812
  22.2500012  33.3154997  66.1949988  23.0055940  32.5541232  66.3335133
  22.7321518  34.2850456  66.1851799  21.5470012  33.1014997  64.9839988
  22.3220012  32.4324997  63.7589988  21.0110012  32.1574997  62.7609988
  19.9560012  31.3844997  63.3969988  20.3959231  30.7726587  64.1737280
  19.5701138  30.6999268  62.6471669  18.6860012  32.1674997  63.9389988
  18.9249373  32.5439411  64.9256347  17.8945405  31.4374159  64.0281322
  18.0750012  33.3654997  63.1669988  16.9410012  33.9424997  63.9199988
  16.2608997  33.1446469  64.1850027  16.4389959  34.6495428  63.2764300
  17.3225173  34.4530610  64.7914857  19.0950012  34.4514997  62.9159988
  19.9775387  34.0006567  62.4887025  19.3165555  34.9464527  63.8446026
  18.6587291  35.1487822  62.2154556  17.5110012  32.9064997  61.8099988
  18.3017852  32.4526314  61.2314262  17.1205045  33.7624479  61.2803622
  16.7188130  32.1899241  61.9724557  23.2000012  33.4764997  63.2219988
  22.8670012  31.1634997  64.3069988  20.2280012  32.1674997  67.0999988
  20.7270012  30.8604997  67.1819988  21.8890012  30.5284997  67.1149988
  19.4670012  29.9994997  67.1649988  18.6508691  30.5205950  67.6548366
  19.1248464  29.7950485  66.1535459  19.8390012  28.7054997  67.8929988
  19.0570058  27.9816644  67.6914876  20.7402601  28.3084488  67.4368014
  20.0300012  28.8244997  69.3889988  19.2969187  29.5275614  69.7762305
  19.7865681  27.8601350  69.8280958  21.4250012  29.2244997  69.8409988
  22.1758814  28.7677741  69.1989032  21.5830853  30.2983446  69.7772136
  21.6700012  28.7934997  71.2109988  20.8653683  29.1258037  71.8637169
  21.6676861  27.7061747  71.2568251  23.0080012  29.3034997  71.7539988
  23.8352946  28.7767485  71.2809027  23.1512823  30.3581257  71.5359333
  23.0800012  29.1054997  73.2479988  22.3543650  29.7790045  73.6889335
  22.7196480  28.0962469  73.4426792  24.4400012  29.2674997  73.8959988
  25.2911885  28.8148324  73.4100703  24.6720012  29.9434997  75.0239988
  25.6930070  30.0027522  75.3727771  23.7090012  30.6394997  75.8769988
  22.7198136  30.1909915  75.8023697  23.9600244  30.6471381  76.9318020
  23.6240012  32.0444997  75.3769988  24.6167596  32.4713980  75.2395448
  23.1448273  32.0705324  74.4001806  22.8200012  32.9184997  76.3589988
  22.4832555  33.7940413  75.8038985  21.9237525  32.3664692  76.6282658
  23.5480012  33.3794997  77.6459988  24.1248856  32.5372690  78.0214942
  24.2710521  34.1468619  77.3750052  22.6030012  33.9334997  78.7809988
  22.1023611  34.8488573  78.4710473  21.8115651  33.2351928  79.0391101
  23.4290012  34.2474997  79.9969988  23.7141589  33.3269504  80.5031184
  24.3588685  34.7287681  79.6994061  22.7200012  35.1454997  80.9929988
  23.4008413  35.5042934  81.7608781  22.3575848  36.0338149  80.4802967
  21.5630012  34.4584997  81.6369988  21.0167591  35.1431583  82.2788174
  21.8785927  33.6206444  82.2494867  20.8696197  34.0795291  80.8915161
  11.8500012 103.0154997  84.9409988  11.6605795 102.3046842  85.7393031
  10.9611655 103.6291182  84.8259622  12.6590277 103.6656536  85.2625386
  12.1970012 102.3154997  83.6579988  11.3808290 101.6536933  83.3732562
  13.0629456 101.6795385  83.8208105  12.4750012 103.3084997  82.5009988
  13.3373211 103.9160653  82.7752199  11.6300543 103.9920793  82.4466414
  12.7080012 102.6924997  81.0789988  11.8029048 102.2022342  80.7273024
  13.4773176 101.9223212  81.1051388  13.1070012 103.7774997  80.0619988
  13.9711004 104.3239190  80.4312296  12.2973376 104.5014105  79.9860838
  13.4330012 103.2154997  78.6359988  14.3365838 102.6094346  78.6682570
  13.6389820 104.0321923  77.9474045  12.2750012 102.3704997  78.0869988
  11.3306970 102.8932017  78.2278612  12.1935425 101.4391938  78.6458046
  12.4640012 102.0464997  76.5689988  13.3285978 101.4003590  76.4226229
  12.6659652 102.9563911  76.0068670  11.1670012 101.3344997  75.9689988
  10.3468450 102.0490321  75.9871143  10.8800506 100.5259771  76.6402123
  11.3270012 100.7774997  74.5419988  11.4481386 101.6289263  73.8758926
  10.3840687 100.3060097  74.2663093  12.4810012  99.7694997  74.3279988
  12.5268716  99.0903852  75.1766686  13.4350520 100.2934536  74.3083186
  12.3360012  98.9384997  73.0539988  11.4573332  98.3028110  73.1318549
  13.1891996  98.2683527  72.9666744  12.2550012  99.8044997  71.7749988
  13.2380943 100.2037338  71.5312942  11.6034184 100.6629658  71.9119283
  11.7740012  99.0074997  70.5969988  10.8114867  98.5953979  70.8817496
  12.4632187  98.1709727  70.5176649  11.6500012  99.6764997  69.2079988
  12.5918491 100.1244941  68.9177153  10.8892899 100.4478753  69.2271583
  10.4590012 100.5674997  69.0329988   9.9580012 101.1174997  70.0009988
  10.0860012 100.7464997  67.7739988   8.9970012 101.6244997  67.4059988
   8.3366611 101.4750907  68.2468852   8.5099174 101.2736752  66.5077429
   9.3660012 103.0734997  67.2859988   8.4404405 103.5729159  67.0518727
  10.3860012 103.3204997  66.1729988  10.6448494 104.3703630  66.1488017
   9.9156336 103.0574060  65.2337857  11.5440012 102.5284997  66.3849988
  12.8980012 102.7844997  65.6029988  12.4940012 103.1634997  64.0839988
  11.8000012 102.2604997  63.2479988  11.2440930 101.5385731  63.8319313
  12.5231333 101.6954299  62.6669884  10.9030012 102.9394997  62.2189988
  10.0455734 103.4214835  62.6715008  10.5533393 102.1858717  61.5282322
  11.5870012 104.0234997  61.3539988  11.8010012 105.2284997  62.2449988
  10.8642815 105.4719398  62.7273131  12.1138916 106.0526714  61.6213478
  12.5761840 105.0014186  62.9614084  12.8820012 103.4724997  60.8169988
  12.6858796 102.5097295  60.3705416  13.5913233 103.3957256  61.6215718
  13.2404847 104.1627418  60.0670972  10.5700012 104.4024997  60.2399988
  10.3197282 103.5191723  59.6715110  11.0160949 105.1382817  59.5878676
   9.6777489 104.8127182  60.6906002  13.4350012 103.9924997  66.1959988
  13.7570012 101.5914997  65.7889988   9.8120012 103.5704997  68.5269988
  10.2080012 104.8364997  68.7369988   9.9120012 105.8404997  68.0659988
  10.9540012 104.9774997  70.1199988  11.9020298 104.4653427  69.9915853
  11.1991391 106.0284686  70.2514469  10.1730012 104.4414997  71.3169988
   9.5526684 105.2399050  71.7091686   9.4896909 103.6684040  70.9801856
  11.0200012 103.9224997  72.3899988  10.3877012 103.4976046  73.1654437
  11.6023276 103.0972109  71.9876811  11.9950012 104.9614997  73.0079988
  12.8448114 104.4608584  73.4683104  12.4073851 105.6355158  72.2611095
  11.2820012 105.7914997  74.0849988  10.3304576 106.1784115  73.7261603
  11.0509853 105.1759057  74.9522108  12.1790012 106.9724997  74.5399988
  13.2128455 106.6562897  74.4100826  12.0231221 107.8004041  73.8540002
  11.9780012 107.4854997  75.9909988  12.1935526 106.6968558  76.7024469
  12.6867576 108.2864974  76.1969428  10.5790012 108.0194997  76.1779988
  10.4162816 109.0359838  75.8526738   9.5270012 107.3664997  76.6879988
   8.5920836 107.9002361  76.7810827   9.4680012 105.9274997  77.1649988
   8.5700746 105.4764581  76.7460592  10.3041383 105.3580862  76.7747117
   9.4140012 105.7714997  78.7199988   9.4265075 104.7143335  78.9825786
  10.3161461 106.2016326  79.1507878   8.1350012 106.4684997  79.3759988
   8.4074437 107.4446202  79.7773349   7.3730779 106.6515271  78.6233515
   7.5330012 105.5874997  80.5249988   6.7312802 106.1472861  81.0014729
   7.0694846 104.7051603  80.0871464   8.5780012 105.1424997  81.5919988
   9.2973022 104.4731305  81.1238737   9.1486808 106.0047346  81.9259160
   7.9830012 104.4274997  82.7769988   8.8227798 104.0838692  83.3783082
   7.4804968 105.1906117  83.3685927   6.9900012 103.2224997  82.5689988
   6.0476810 103.5296372  82.1222167   7.4187500 102.4941918  81.8841227
   6.7220012 102.5454997  83.8909988   6.1095563 101.6595099  83.7531494
   6.1989184 103.1979154  84.5819974   7.6486310 102.2363991  84.3663459
  86.3370012  12.6494997  80.3629988  87.2122541  12.8743993  80.9644814
  85.4702812  12.6737840  81.0172133  86.2221001  13.4481032  79.6352336
  86.4730012  11.2744997  79.6639988  86.6217516  10.5148579  80.4295186
  87.3815465  11.2892167  79.0680602  85.2560012  10.8754997  78.7759988
  84.3550884  11.0349154  79.3683431  85.3242756   9.8014745  78.6148168
  85.0900012  11.5794997  77.3799988  85.6868188  11.0324875  76.6534752
  85.5226743  12.5772026  77.4355762  83.6460012  11.6784997  76.8559988
  83.0484610  12.1179420  77.6506114  83.2943041  10.6546998  76.7397747
  83.3920012  12.4464997  75.5649988  84.1383429  12.0562089  74.8754597
  83.6969125  13.4642470  75.7990851  82.0210012  12.4754997  74.8669988
  82.1857067  12.7359040  73.8230487  81.4466644  13.2944647  75.2978858
  81.1920012  11.1774997  74.9429988  81.0752587  10.9172590  75.9942347
  81.7798286  10.3781850  74.4955181  79.7970012  11.2234997  74.2699988
  79.3877336  12.2060840  74.4948746  79.1791803  10.5066430  74.8094345
  79.6820012  10.9574997  72.7619988  80.3219852  11.6772377  72.2563344
  78.6612307  11.1931769  72.4621438  80.0240012   9.5454997  72.3059988
  79.4189435   8.8481963  72.8815110  81.0595154   9.3335210  72.5665812
  79.8090012   9.2574997  70.8219988  80.1639949  10.0983975  70.2311611
  78.7417583   9.1761971  70.6243816  80.5050012   7.9394997  70.3539988
  80.2042956   7.1796922  71.0733879  81.5732402   8.0822876  70.4909327
  80.2480012   7.3794997  68.9319988  79.2405980   6.9769321  68.9114277
  80.9250351   6.5396473  68.8002226  80.4330012   8.3574997  67.7349988
  81.4219511   8.7975425  67.7545290  79.6978274   9.1522190  67.7798281
  79.2460012   9.1884997  67.4559988  78.0720012   8.9224997  67.8169988
  79.5480012  10.2784997  66.7629988  78.5230012  11.2254997  66.5499988
  78.2793644  11.6676504  67.5042555  77.6395342  10.7557645  66.1425347
  79.0780012  12.3124997  65.5759988  78.4894836  13.1990540  65.7450034
  78.8670012  11.8034997  64.1019988  79.0962536  12.5921821  63.3982770
  77.8274623  11.5243150  63.9836779  79.7170012  10.6704997  63.8799988
  81.0790012  10.7634997  63.0789988  82.1400012  10.1234997  64.0189988
  82.6190012   8.8124997  64.0649988  81.9386562   8.0887167  63.6355131
  82.7900826   8.5028353  65.0919536  84.0220012   8.7424997  63.3759988
  83.9004308   8.7365041  62.3001578  84.4572148   7.8019671  63.6815550
  85.0770012   9.8074997  63.6689988  86.4740012   9.2454997  63.2769988
  86.6003206   8.2782020  63.7435957  87.2238588   9.9286176  63.6473545
  86.5382541   9.1854241  62.2009042  84.8750012  11.0874997  62.8979988
  83.8498841  11.4024232  63.0191280  85.1140452  10.9157919  61.8637143
  85.5418989  11.8264022  63.3181981  85.1220012  10.0914997  65.1999988
  84.1466092  10.4165837  65.5301699  85.8473863  10.8668362  65.3957528
  85.4049911   9.1909466  65.7256943  81.0070012   9.9334997  61.8779988
  81.5230012  12.2024997  62.8389988  80.4960012  12.6294997  65.7409988
  80.8700012  13.2344997  66.8579988  80.1870012  13.4744997  67.8489988
  82.3200012  13.8124997  66.8199988  82.8764726  13.3160137  66.0317131
  82.3094266  14.8674414  66.5575239  82.9690012  13.5884997  68.2239988
  83.9179150  14.1110364  68.1732161  82.3516711  14.1538669  68.9148652
  83.2100012  12.1324997  68.7879988  82.2759495  11.5841529  68.6957089
  83.9133630  11.6486341  68.1147817  83.7450012  12.0194997  70.2149988
  84.6649112  12.5921912  70.3174488  83.0491879  12.4293193  70.9430742
  84.0470012  10.5354997  70.5869988  83.2929837   9.8665820  70.1772332
  84.9955926  10.2242829  70.1537558  84.1190012  10.3494997  72.1179988
  85.0017726  10.8201422  72.5480117  83.2634355  10.7658597  72.6423742
  84.1700012   8.8284997  72.3849988  83.1877167   8.4428909  72.1380108
  84.8557975   8.4172462  71.6454719  84.6070012   8.3684997  73.7579988
  85.5551423   8.7164008  74.1395054  83.8800012   7.5514997  74.5609988
  84.3499606   7.3507144  75.5130667  82.5430012   6.8754997  74.3799988
  81.8754701   7.6169020  73.9441709  82.6334000   6.0808126  73.6478912
  81.8790012   6.3204997  75.6609988  81.1658542   5.5528513  75.3629345
  82.6526758   5.8104529  76.2317342  81.1810012   7.3444997  76.5619988
  81.8837018   8.1491755  76.7783679  80.3607891   7.7973670  76.0118466
  80.6520012   6.7644997  77.8849988  79.8323612   6.1022175  77.6153364
  81.4401619   6.1271094  78.2820144  80.1860012   7.7674997  79.0009988
  79.6762279   7.1643270  79.7499340  81.0901575   8.1333554  79.4798265
  79.2760012   8.9364997  78.6419988  79.8906076   9.7488242  78.2582401
  78.6321943   8.6305834  77.8193433  78.3920012   9.4854997  79.7749988
  77.8586629  10.3728798  79.4433035  77.6260766   8.7458508  79.9976916
  79.1670012   9.8064997  81.0769988  78.4853053  10.1054062  81.8675774
  79.8771707  10.6145357  80.9374357  79.7190948   8.9387649  81.4268129
  71.6520012 135.2924997  79.9809988  72.5360939 135.0560706  80.5648740
  71.1820784 134.3552917  79.6970906  70.9604656 135.8240068  80.6289886
  72.0080012 136.1334997  78.7439988  72.7106967 135.5992486  78.1068192
  72.5046068 137.0528819  79.0422154  70.7390012 136.4554997  77.9379988
  70.4434896 137.4953620  78.0768809  69.9051395 135.8550664  78.2962245
  70.9280012 136.1814997  76.4529988  71.1617682 135.1293901  76.3057964
  71.7840383 136.7366019  76.0725149  69.7280012 136.5174997  75.6489988
  70.0099537 136.3770560  74.6086376  69.5798273 137.5876842  75.7835889
  68.4050012 135.7874997  75.9079988  67.6125259 136.4851293  75.6432105
  68.3377859 135.6451764  76.9844760  68.1620012 134.4774997  75.2199988
  67.1827811 134.1027010  75.5122727  68.8868583 133.7498106  75.5823257
  68.2450012 134.5554997  73.5899988  69.1743524 135.0447994  73.3013067
  67.4405966 135.1877910  73.2187509  68.1630012 133.1724997  72.9049988
  67.1256018 132.8764067  72.7647398  68.6149030 132.4064946  73.5339646
  68.8940012 133.1954997  71.5059988  69.4447719 132.2654516  71.3836830
  69.6371020 133.9925128  71.5063475  67.9240012 133.4014997  70.3069988
  67.4222518 134.3634795  70.3868942  67.1369097 132.6494305  70.3043547
  68.6840012 133.3554997  68.9459988  68.9572394 132.3337842  68.6936944
  69.6174398 133.9104566  69.0193823  67.8250012 133.9764997  67.8079988
  68.4425074 134.0771800  66.9170434  67.5121715 134.9816430  68.0765104
  66.6210012 133.1724997  67.4449988  65.8212837 133.3426939  68.1583226
  66.8672262 132.1151583  67.4949423  66.1110012 133.4904997  66.0269988
  66.9033703 133.3594504  65.3010386  65.7563669 134.5129898  65.9739189
  65.5060012 134.8724997  66.0039988  65.1830012 135.5184997  66.9869988
  65.3090012 135.1654997  64.7669988  64.4170012 136.2534997  64.6499988
  63.7909922 136.2155234  65.5287095  63.8176490 136.0296941  63.7794357
  65.0820012 137.6514997  64.5229988  64.3617276 138.4525043  64.5451703
  65.9390012 137.7384997  63.2039988  66.3099650 138.7526969  63.1440748
  65.2290971 137.5807686  62.4016634  67.0270012 136.7964997  63.1049988
  67.8100012 136.4734997  61.7449988  69.0590012 135.6824997  62.2879988
  68.8960012 134.8464997  63.4489988  69.5720182 134.0036940  63.3868013
  67.8902239 134.4372988  63.4213646  69.0130012 135.5664997  64.8539988
  69.2447767 134.8142149  65.5973672  68.0327809 135.9703278  65.0624887
  70.0310012 136.7474997  65.1059988  71.4340012 136.3974997  64.6639988
  71.7075794 135.4479979  65.1032428  72.0986729 137.1691957  65.0228814
  71.4640377 136.3661478  63.5851884  69.7170012 138.0184997  64.4129988
  68.6854178 138.2690538  64.6073500  69.9010888 137.8991472  63.3602705
  70.3665511 138.7786527  64.8223266  70.1990012 137.1074997  66.5189988
  69.2412400 137.3895010  66.9303998  70.8841088 137.9385307  66.5942650
  70.5958470 136.2618111  67.0619161  67.0120012 135.5614997  60.9439988
  68.2380012 137.7204997  61.0929988  65.9230012 137.7744997  65.6239988
  65.4520012 138.3304997  66.7379988  64.2930012 138.7364997  66.9229988
  66.5580012 138.3844997  67.8339988  66.6170165 137.4310459  68.3487764
  67.5436695 138.5538808  67.4077654  66.1560012 139.5434997  68.7969988
  66.2407044 140.4723276  68.2436770  65.1036720 139.4330964  69.0387581
  66.9820012 139.6514997  70.0929988  68.0075881 139.8778341  69.8126452
  66.6139898 140.5242896  70.6267312  66.9490012 138.4074997  71.0749988
  67.4146186 137.5562788  70.5817144  67.5430755 138.6060426  71.9637386
  65.5430012 138.0034997  71.5029988  65.0165336 138.8375316  71.9624806
  64.9531112 137.7139387  70.6354936  65.5820012 136.8704997  72.4459988
  65.9460076 136.0215403  71.8693980  66.3528719 137.0977140  73.1770596
  64.2840012 136.4604997  73.2019988  63.5163344 136.1932868  72.4851550
  64.4845526 135.5629328  73.7855216  63.7890012 137.5774997  74.1629988
  63.6257223 138.5482331  73.7196360  63.5270012 137.4504997  75.5109988
  63.2130031 138.2927005  76.1107595  63.6390012 136.1784997  76.2659988
  62.7091894 136.0614655  76.8200511  63.6859978 135.3462065  75.5726299
  64.8380012 136.0784997  77.2869988  64.7837696 135.1094687  77.7817137
  65.7612589 136.0735345  76.7107788  64.9080012 137.1784997  78.3329988
  65.9342722 137.2336528  78.6960867  64.7060985 138.1293801  77.8476476
  63.9570012 137.0014997  79.5279988  63.8621045 137.9534540  80.0456111
  62.9616295 136.7523796  79.1643239  64.4200012 135.9244997  80.5009988
  64.6917259 135.0326655  79.9394051  65.3285224 136.2484255  81.0012850
  63.3810012 135.5314997  81.5209988  62.4695254 135.2874100  80.9783062
  63.7162941 134.6034805  81.9805563  63.0370012 136.5174997  82.6229988
  63.9262479 136.8579997  83.1476081  62.5930181 137.4083321  82.1841257
  62.0610012 135.9274997  83.6169988  61.7575056 136.6715792  84.3472762
  62.4912215 135.0939434  84.1618248  61.1650023 135.5685867  83.1184925
 129.9380012  34.7204997  82.9649988 128.8649563  34.8235580  82.8370037
 130.1203705  34.3976164  83.9859188 130.2748957  33.9266946  82.3039484
 130.7100012  36.1194997  82.6419988 130.3182572  36.8915619  83.3020439
 130.4537819  36.4237012  81.6307485 132.2470012  36.0454997  82.8019988
 132.5100868  35.1564175  83.3749279 132.5783922  36.8952130  83.3955796
 132.9910012  36.0434997  81.5359988 132.6856189  36.9081350  80.9508515
 132.7104696  35.1691260  80.9507820 134.5080012  36.0764997  81.6999988
 134.7954173  35.1884243  82.2570329 134.7336522  36.9262623  82.3421436
 135.3450012  36.1614997  80.4519988 135.0240756  35.3224647  79.8373085
 136.3589389  35.9328613  80.7732957 135.3600012  37.4434997  79.5959988
 135.4920306  38.2963900  80.2592606 134.3781130  37.5619667  79.1398286
 136.4470012  37.4824997  78.4889988 136.4250245  36.5569847  77.9150736
 137.4358465  37.5366368  78.9405938 136.2650012  38.6384997  77.5649988
 137.1964632  38.7345694  77.0112027 136.1939041  39.5240671  78.1953102
 135.0570012  38.6214997  76.5549988 135.1875568  39.4500197  75.8623165
 134.1438975  38.8302129  77.1118735 134.8800012  37.2724997  75.7559988
 134.6155581  36.4995419  76.4744326 135.8496817  36.9890839  75.3503843
 133.8370012  37.2624997  74.6289988 132.9106997  37.7074179  74.9842907
 133.5997462  36.2321710  74.3705361 134.3240012  37.9924997  73.3539988
 135.0170988  37.3748751  72.7853094 134.8486638  38.9190780  73.5695345
 133.1020012  38.3014997  72.4459988 133.3852970  38.9611974  71.6324341
 132.3434218  38.8227077  73.0239188 132.4620012  36.9824997  71.8479988
 132.2016853  36.2939906  72.6418702 133.1603948  36.4938619  71.1790081
 131.3250012  37.4974997  70.8159988 130.1290012  37.4944997  71.0269988
 131.8900012  37.9234997  69.7629988 130.9500012  38.5244997  68.8979988
 130.4169956  39.2032324  69.5466041 130.2709538  37.7575124  68.5547536
 131.5750012  39.3074997  67.6849988 130.7403797  39.7179384  67.1410860
 132.4250012  38.4414997  66.7559988 131.7912982  37.6459265  66.3881879
 133.1942162  38.0099977  67.3842498 133.0220012  39.1654997  65.6519988
 132.2330012  39.6984997  64.4569988 133.0660012  39.1934997  63.2309988
 134.3540012  38.7894997  63.3359988 134.9217635  39.2880487  64.1107786
 134.8969491  38.9445679  62.4081203 134.3470012  37.2434997  63.5529988
 133.7709399  37.0508969  64.4492725 135.3745647  36.9626391  63.7335742
 133.8400012  36.2964997  62.5379988 134.3430012  36.7014997  61.1719988
 134.1203888  37.7485149  61.0185816 133.8225525  36.1073550  60.4356392
 135.4026209  36.5021980  61.1154128 134.3360012  34.9244997  62.8609988
 134.1262774  34.7199530  63.8996953 135.3903737  34.8749582  62.6555379
 133.7992393  34.2302524  62.2307573 132.3290012  36.3384997  62.4979988
 131.9404352  36.0918303  63.4748574 131.9732118  35.6200007  61.7749337
 132.0031264  37.3286985  62.2138388 130.9410012  39.0194997  64.4489988
 132.4000012  41.1964997  64.4339988 132.4220012  40.4314997  68.2029988
 131.9080012  41.6744997  68.4249988 130.7470012  41.8774997  68.5259988
 132.9520012  42.7174997  68.7759988 133.5389943  42.8399701  67.8715691
 132.4227736  43.6566868  68.9165433 133.8280012  42.3924997  69.9869988
 134.4431559  41.5427087  69.7122243 134.5109754  43.2240713  70.1286595
 133.1160012  42.0884997  71.2809988 132.1808869  42.6418580  71.3127770
 132.8452199  41.0355331  71.2790279 133.9440012  42.3794997  72.5439988
 134.9321514  41.9391128  72.4243137 134.0999055  43.4495099  72.6579021
 133.3430012  41.8464997  73.7939988 132.7442771  40.9658484  73.5706519
 134.1393854  41.5114488  74.4557344 132.4540012  42.9034997  74.5669988
 133.0830063  43.7239181  74.9090034 131.7155099  43.3405493  73.9007133
 131.7200012  42.2814997  75.7799988 132.3051482  41.4491152  76.1532535
 131.6946662  43.0213146  76.5789844 130.3010012  41.8554997  75.4699988
 129.5946914  42.6459741  75.2654733 129.8460012  40.6064997  75.4129988
 128.8099892  40.4180681  75.1705473 130.6600012  39.3544997  75.6579988
 130.6140097  38.7739003  74.7382107 131.7011159  39.6249126  75.7945193
 130.2140012  38.4604997  76.8089988 129.2086205  38.1138326  76.5729126
 130.8528227  37.5798320  76.7808845 130.2320012  39.0414997  78.1999988
 129.3826229  39.7217070  78.2630974 130.0204559  38.2269905  78.8872595
 131.5230012  39.7874997  78.6599988 132.2413700  39.1088587  79.1144630
 132.0402759  40.2676608  77.8311699 131.0850012  40.8824997  79.7019988
 130.5087177  41.6253771  79.1537102 130.3865081  40.4132171  80.3893897
 132.1830012  41.6214997  80.4889988 131.7193002  42.2706740  81.2295642
 132.7698380  40.8957208  81.0490894 133.1050012  42.4334997  79.6629988
 133.5628520  41.7738422  78.9301006 132.4733437  43.1133565  79.0954457
 134.2140012  43.2614997  80.3799988 134.7582978  43.8745951  79.6680127
 134.9363099  42.6247828  80.8796013 133.7854718  43.9236403  81.1270419
  13.1040012  40.4204997  83.1699988  14.1044267  40.1631476  83.5036868
  12.5153267  39.5078269  83.1532396  12.6667974  41.0801300  83.9145474
  13.1320012  41.0964997  81.7729988  13.6141569  40.4103289  81.0788097
  13.7799992  41.9660570  81.8421544  11.7750012  41.4984997  81.2169988
  11.2491983  42.0907222  81.9658197  11.1841584  40.5952828  81.0781639
  11.8040012  42.2764997  79.8789988  12.2856229  41.6715382  79.1139418
  12.4071496  43.1780634  79.9743970  10.4540012  42.6394997  79.4119988
  10.4501404  43.6956420  79.1548579   9.7720501  42.5273855  80.2532705
   9.8960012  41.7964997  78.1609988   9.8752542  40.7543695  78.4746090
  10.6504700  41.8641647  77.3801177   8.5150012  42.1814997  77.5719988
   8.3638468  43.2564925  77.6514517   7.7202052  41.7185754  78.1552915
   8.3750012  41.7494997  76.0739988   9.1696050  42.2039751  75.4836533
   7.4392937  42.1275007  75.6662603   8.4250012  40.1754997  75.8939988
   8.0489372  39.6692651  76.7804769   9.4491802  39.8300561  75.7587098
   7.5830012  39.7594997  74.6729988   6.6836005  40.3688713  74.6178304
   7.2470354  38.7286177  74.7818029   8.3860012  39.8924997  73.3769988
   8.7283450  40.9181281  73.2568826   7.7592755  39.6799138  72.5126203
   9.6490012  38.9394997  73.3529988   9.3230768  37.9273206  73.1260938
  10.0746790  38.9044999  74.3541198  10.7480012  39.3764997  72.3659988
  11.6536576  38.8013740  72.5511175  11.0145093  40.4193919  72.5130469
  10.3590012  39.1724997  70.9539988   9.3486819  39.5540264  70.8489398
  10.3045875  38.0959271  70.8157139  11.2440012  39.7664997  69.8389988
  12.2659845  39.4250971  69.9440485  11.2325858  40.8490282  69.8845040
  10.8190012  39.2334997  68.5239988   9.8040012  38.5504997  68.3819988
  11.6630012  39.5504997  67.5689988  11.4370012  39.2014997  66.2169988
  10.8049698  38.3262864  66.2174431  12.3763153  38.9585724  65.7417438
  10.7170012  40.3974997  65.4709988  10.2935667  40.1544593  64.5105152
  11.7940012  41.4134997  65.3069988  12.5346282  41.0238538  64.6218356
  12.2539472  41.5417742  66.2788940  11.2830012  42.6494997  64.8349988
  10.7730012  42.8834997  63.3449988  11.5820012  44.1734997  63.0199988
  12.1790012  45.0714997  63.9099988  13.0634194  45.5378694  63.4958822
  12.4984132  44.5461299  64.8054090  11.1380012  46.1674997  64.4169988
  11.6831775  46.8784458  65.0249358  10.4055076  45.6705341  65.0365594
  10.3810012  46.9614997  63.4629988   9.1770012  46.1484997  62.9399988
   9.5326579  45.1864535  62.5974941   8.7424746  46.6908754  62.1134909
   8.4495731  46.0507412  63.7318376   9.7130012  48.2184997  64.1009988
  10.4596661  48.7526466  64.6683545   8.8959578  47.9032363  64.7250333
   9.3493562  48.8363807  63.2927399  11.2150012  47.3834997  62.2029988
  12.0779233  47.9494788  62.5209846  10.5998095  47.9930755  61.5583232
  11.5333825  46.4999494  61.6687635  11.3530012  41.8564997  62.5029988
   9.2910012  43.0294997  63.4429988   9.6540012  40.8444997  66.2849988
   8.5420012  40.3174997  65.9879988   8.1900012  39.6964997  64.9949988
   7.5690012  40.7124997  67.1209988   6.8408960  39.9078841  67.1178867
   8.1379457  40.5952161  68.0399404   6.8830012  42.1274997  67.0559988
   7.6521588  42.8654764  67.2556182   6.5650018  42.2949554  66.0318562
   5.7060012  42.3584997  68.0109988   5.1921955  43.2689736  67.7131817
   4.9975532  41.5475998  67.8606394   6.0820012  42.4244997  69.5589988
   5.1929829  42.7222326  70.1119071   6.3444727  41.4320198  69.9171810
   7.1830012  43.3654997  69.9009988   8.0933672  43.0809133  69.3774099
   6.9266799  44.3609837  69.5436587   7.4720012  43.4444997  71.4439988
   6.5375083  43.5785671  71.9866313   7.9054889  42.5159204  71.8047575
   8.4120012  44.5794997  71.7799988   9.0019836  44.8684477  70.9180186
   7.8492201  45.4635482  72.0767842   9.2790012  44.1704997  72.9069988
   9.0606717  43.2434142  73.4153281  10.3450012  44.8744997  73.3429988
  10.8790806  44.4236071  74.1670528  10.9290012  46.1894997  72.8749988
  11.9306026  46.0227097  72.4823198  10.3584455  46.6393536  72.0701518
  11.0320012  47.1984997  74.0659988  11.7310977  46.7696079  74.7829512
  11.5136370  48.0900408  73.6689594   9.7410012  47.6024997  74.7889988
   9.5723784  48.6651571  74.6145493   8.9065209  47.0826814  74.3264670
   9.7380012  47.3404997  76.2499988  10.3952609  46.4967287  76.4480020
  10.1767389  48.1947698  76.7626554   8.3400012  47.0644997  76.8299988
   7.6143142  47.7361098  76.3751271   8.0140056  46.0595205  76.5762888
   8.2820012  47.2694997  78.3659988   8.7957343  48.1945175  78.6215439
   7.2445507  47.4079777  78.6649206   8.8890012  46.1174997  79.2129988
   8.2686592  45.2289677  79.1258102   9.8480668  45.8531726  78.7729565
   9.1000012  46.4454997  80.6839988   9.6057929  45.6299444  81.1920473
   8.1613242  46.6174240  81.1998172   9.7093038  47.3371411  80.8017563
 125.3780012 113.3374997  81.1189988 125.8622782 113.7148247  82.0142811
 124.8261926 114.1582234  80.6698775 126.1569827 113.0439645  80.4206887
 124.4420012 112.1434997  81.4449988 123.6851978 112.4560836  82.1624547
 125.0150011 111.3571841  81.9289336 123.7690012 111.6104997  80.2219988
 124.5347511 111.4821277  79.4570957 123.1086468 112.3952398  79.8582874
 122.9390012 110.2814997  80.3529988 122.2122326 110.4045996  81.1529387
 123.5981810 109.4734057  80.6663230 122.2000012 109.8674997  79.0809988
 121.4436917 110.6094456  78.8379243 121.6661272 108.9377255  79.2703760
 123.1210012 109.6834997  77.8719988 123.8634368 108.9292846  78.1264903
 123.6690455 110.6111908  77.7216208 122.3990012 109.2734997  76.5119988
 121.6388674 109.9892035  76.2042088 121.9002879 108.3071375  76.5724905
 123.4930012 109.2104997  75.4469988 124.0585132 108.2952323  75.6170951
 124.1804810 110.0324304  75.6380099 123.0490012 109.2594997  74.0109988
 123.1052784 110.2982160  73.6924988 121.9930590 108.9927233  73.9911605
 123.8070012 108.3854997  73.0189988 124.1192344 107.4706993  73.5179473
 124.7212010 108.8946876  72.7150328 122.9780012 108.0464997  71.7689988
 122.5676953 108.9450419  71.3131349 122.1261056 107.4105312  72.0034047
 123.8580012 107.3484997  70.7439988 124.3388359 106.5124614  71.2460516
 124.6533505 108.0436679  70.4816432 123.2040012 106.8874997  69.4999988
 122.3790107 106.2251027  69.7566560 123.8929681 106.2976882  68.9019010
 122.6500012 108.0174997  68.6479988 123.4613599 108.5400432  68.1520247
 122.1620230 108.7390182  69.2979067 121.6040012 107.5284997  67.5619988
 120.8010646 106.9746277  68.0316366 122.0876870 106.8890221  66.8331740
 121.0890012 108.7794997  66.8799988 120.1340012 109.3824997  67.2399988
 121.7770012 109.1094997  65.7889988 121.4330012 110.4074997  65.2339988
 121.2885855 111.1713207  65.9831206 120.4865913 110.1967659  64.7574574
 122.4590012 110.8544997  64.2229988 122.2779260 111.8420773  63.8321071
 122.5590012 109.8414997  63.0629988 123.4678181 110.0903884  62.5320495
 121.7120798 110.0790915  62.4314457 122.5470012 108.4414997  63.4149988
 123.8910012 107.5364997  63.4739988 124.9720012 108.7454997  63.6449988
 126.3030012 108.3984997  63.9359988 126.8353409 107.9028594  63.1346598
 126.3716295 107.7456320  64.8013605 127.0270012 109.7174997  64.3589988
 127.9746813 109.3857853  64.7641123 126.4635851 110.2004438  65.1443040
 127.3660012 110.8114997  63.3539988 126.1650012 111.3214997  62.5459988
 125.6503982 110.4717731  62.1188189 126.5398338 111.9546461  61.7556026
 125.5231233 111.8959397  63.1969431 128.0840012 111.8914997  64.0889988
 128.8798505 111.4439165  64.6643310 127.3855750 112.4102604  64.7210258
 128.4939468 112.5665781  63.3517670 128.3820012 110.2014997  62.4939988
 129.2225499 109.8952787  63.0988032 128.7075288 110.9248636  61.7615874
 127.9607271 109.3428694  61.9912888 124.0190012 106.7134997  64.7259988
 124.0790012 106.8694997  62.1419988 123.7940012 110.7444997  64.8609988
 124.0340012 111.8484997  65.7199988 123.4350012 112.8384997  65.7939988
 125.0620012 111.4334997  66.7389988 125.4963219 110.4884926  66.4293536
 125.8840189 112.1445219  66.7643225 124.3840012 111.3304997  68.0989988
 123.4014739 110.8917208  67.9641871 124.9383133 110.6386098  68.7251453
 124.2390012 112.6664997  68.8089988 125.2137237 113.0875255  69.0420380
 123.7506188 113.3795864  68.1494118 123.3820012 112.5294997  70.1229988
 123.2073479 113.5538634  70.4468523 122.4152297 112.1393619  69.8142148
 123.8920012 111.7024997  71.3549988 123.1230918 111.6346935  72.1218636
 124.1089264 110.6798914  71.0523492 125.2010012 112.3334997  71.9789988
 125.9039604 112.5140939  71.1672506 124.9594912 113.3065297  72.3975718
 125.8980012 111.4714997  73.0849988 125.2629160 111.5124794  73.9622488
 125.8715649 110.4403733  72.7351053 127.3100012 111.8244997  73.4249988
 127.6996789 112.8270375  73.3321376 128.1520012 110.8794997  73.8819988
 129.1275990 111.2748406  74.1259749 128.0120012 109.4094997  74.1219988
 127.0679785 109.0471606  73.7185727 128.7894988 108.8140705  73.6565501
 128.0150012 109.1654997  75.5929988 128.9990470 109.4003531  75.9969823
 127.3204617 109.8581855  76.0644438 127.6460012 107.7764997  75.9639988
 126.5723177 107.6049147  75.8873867 128.1183336 107.0349227  75.3256652
 128.0770012 107.5644997  77.3729988 127.8277708 106.5412480  77.6450011
 129.1626913 107.6339186  77.4122777 127.4740012 108.5344997  78.3859988
 126.6504252 109.0468891  77.8922684 127.0238235 107.9473658  79.1817619
 128.4380012 109.6394997  79.0029988 129.3949755 109.1816927  79.2469167
 128.6475097 110.3900369  78.2429764 127.9060012 110.3474997  80.2499988
 128.4688892 111.2677927  80.3846564 126.8893056 110.6542531  80.0143178
 127.8910012 109.5844997  81.5279988 127.4129752 110.1600710  82.3149409
 128.8923505 109.3404061  81.8663162 127.3429139 108.6527805  81.4201064
  95.5310012   9.3644997  80.1739988  94.4626028   9.3518343  80.3658152
  95.8633071   8.3345012  80.0819879  95.6886023   9.8478615  79.2137200
  96.2950012  10.1004997  81.2989988  96.0675728   9.5992901  82.2382902
  95.8762437  11.1001606  81.3773198  97.8400012  10.1794997  81.1219988
  98.2518638  10.6816042  81.9973211  98.0347151  10.8379110  80.2777523
  98.5830012   8.8764997  80.8969988  98.3355678   8.5388548  79.8929955
  98.1650329   8.1349051  81.5760025 100.1100012   8.8974997  81.0449988
 100.5056847   7.9148341  80.8013271 100.3499017   9.0723097  82.0924978
 100.8380012   9.9734997  80.1599988 101.9071896   9.9197400  80.3568817
 100.5188678  10.9625795  80.4816384 100.5880012   9.8254997  78.6259988
  99.5387997  10.0147779  78.4066359 100.7819356   8.7979493  78.3214341
 101.4760012  10.7924997  77.7749988 102.5207953  10.4978112  77.8645251
 101.4084993  11.7999367  78.1814444 101.0950012  10.8174997  76.3379988
 100.0112915  10.8972404  76.2855029 101.3489869   9.8476957  75.9119136
 101.7210012  11.9134997  75.4959988 102.8051486  11.8246813  75.5018902
 101.4929005  12.8949874  75.9108250 101.2040012  11.8414997  74.0779988
 100.1212342  11.9468716  74.0706874 101.4159110  10.8684649  73.6381970
 101.7810012  12.9004997  73.2209988 102.8304805  12.6815097  73.0397381
 101.7567127  13.8429475  73.7649400 101.0410012  13.0844997  71.8869988
 100.8964544  12.0985927  71.4484265 101.6766456  13.6337059  71.1980846
  99.6530012  13.7834997  71.9639988  99.4994174  14.1898618  72.9582959
  98.8784847  13.0376806  71.8059791  99.4720012  14.9064997  70.9239988
  99.6536314  14.5307623  69.9250629 100.1621870  15.7182189  71.1210378
  99.1140012  14.3364997  69.5489988  98.0550012  13.8934997  69.1859988
 100.2540012  14.2074997  68.9129988 100.3230012  13.5494997  67.6439988
 101.2335566  13.9080893  67.1881870  99.4779391  13.9077049  67.0741294
 100.3300012  12.0494997  67.7099988 101.0177759  11.6954199  68.4599903
 100.6750012  11.4154997  66.3369988 100.5813581  10.3448510  66.4584209
 101.7180576  11.6562289  66.1736962  99.8830012  11.8644997  65.2379988
 100.4340012  11.8374997  63.7659988  99.2830012  12.4294997  62.8329988
  98.3210012  13.1574997  63.4749988  97.9279800  13.9371485  62.8355685
  98.7690771  13.6565603  64.3293777  97.1690012  12.2844997  64.0679988
  96.3649374  12.9796021  64.2743067  97.4185410  11.7615618  64.9799433
  96.5640012  11.2064997  63.1059988  97.3840012   9.8954997  63.1489988
  98.4271203  10.1355438  62.9953259  97.0358640   9.2583667  62.3496477
  97.2179377   9.4092187  64.0985622  95.2040012  10.7964997  63.6659988
  94.6354618  11.6899599  63.8738587  95.3527372  10.2094086  64.5545772
  94.7065851  10.2085002  62.9082845  96.4650012  11.7654997  61.7659988
  95.8471098  12.6506368  61.7947138  96.0193369  11.0341460  61.1086137
  97.4520447  12.0196640  61.4074174 101.5570012  12.8024997  63.7139988
 100.7310012  10.4684997  63.3999988  99.0020012  11.6744997  68.0969988
  98.6920012  10.4404997  68.4839988  99.4900012   9.5624997  68.7499988
  97.1440012  10.2784997  68.6079988  96.7269783  11.2722836  68.7346421
  96.7487196   9.9079778  67.6654633  96.7660012   9.3374997  69.7799988
  95.6975169   9.1566363  69.7388788  97.2397723   8.3735776  69.6237037
  97.1410012   9.8934997  71.2079988  98.2250176   9.9276788  71.2814442
  96.8018109  10.9257148  71.2473282  96.5670012   9.1544997  72.3869988
  96.4125875   8.1158461  72.1005356  97.2836643   9.1409525  73.2045637
  95.1980012   9.7314997  72.9189988  94.4841211   9.9448601  72.1260589
  94.6981503   9.0453691  73.5999943  95.5090012  10.9834997  73.6509988
  96.0947342  10.6869995  74.5197366  96.1717304  11.5687289  73.0196393
  94.3750012  11.8554997  74.0929988  93.6201666  11.8592773  73.3153160
  93.9148538  11.3923048  74.9648135  94.7910012  13.2654997  74.4569988
  94.6116351  14.0540653  73.7417743  95.3530012  13.6094997  75.6059988
  95.6530478  14.6384864  75.7429966  95.6340012  12.7284997  76.7859988
  95.3908297  13.3115540  77.6726420  94.9507639  11.8865814  76.7795546
  97.0490012  12.2244997  76.9259988  97.1423371  11.6996967  77.8760384
  97.2228792  11.4809768  76.1504994  98.1220012  13.3054997  76.8339988
  99.0608377  12.7754418  76.9944096  98.1220749  13.6148692  75.7924641
  98.0830012  14.5124997  77.7109988  98.6632998  15.2895830  77.2185152
  97.0558725  14.8720162  77.7399723  98.5850012  14.3124997  79.1349988
  98.2743853  13.3280099  79.4797998  99.6714719  14.2981865  79.1361759
  98.0730012  15.3474997  80.1419988  98.5724623  16.2854214  79.9059387
  97.0192000  15.5018750  79.9172648  98.2180012  15.0804997  81.6679988
  97.8799028  14.0725345  81.8951787  99.2800784  15.0963112  81.9026367
  97.5180012  16.0494997  82.5549988  97.7397151  15.8466143  83.5984304
  96.4407300  16.0026205  82.4365501  97.8292262  17.0684388  82.3427653
 114.9850012 126.4074997  81.6299988 113.9302885 126.6406638  81.7379097
 115.5359450 127.3430814  81.6606196 115.2839961 125.8214031  82.4946980
 115.2690012 125.6114997  80.2679988 114.9160356 126.2247400  79.4406207
 114.6490753 124.7190394  80.2725382 116.7520012 125.2294997  80.0229988
 117.1749893 124.5972329  80.8035427 117.4041177 126.0977981  79.9524808
 116.7950012 124.4754997  78.6789988 116.0618142 123.6897628  78.8472381
 117.7698464 123.9921511  78.7209151 116.5760012 125.0594997  77.2729988
 117.0934290 126.0091095  77.1630777 115.5188874 125.2676438  77.1163098
 117.0510012 124.1304997  76.2239988 116.6239845 123.1521700  76.4369422
 118.1271951 124.0251830  76.3435480 116.7330012 124.5214997  74.7459988
 117.0978388 125.5206657  74.5150644 115.6591246 124.5404115  74.5652741
 117.4070012 123.4824997  73.7689988 117.2202433 122.4895069  74.1758623
 118.4830002 123.6365661  73.8253326 116.9740012 123.5174997  72.3209988
 117.3351580 124.4449423  71.8817302 115.8864099 123.5718076  72.2931992
 117.4380012 122.3474997  71.4759988 116.9687161 121.4228120  71.8046676
 118.5126620 122.1959118  71.5737441 117.0980012 122.6144997  70.0019988
 117.5411958 121.7894523  69.4484500 117.6597368 123.5035372  69.7205856
 115.6490012 122.7714997  69.5519988 115.1274765 123.5253166  70.1367988
 115.0952297 121.8444124  69.6880737 115.6210012 123.1514997  68.0379988
 114.5697992 123.1178691  67.7567598 116.1037993 122.3347459  67.5087604
 116.1770012 124.4264997  67.5619988 116.1083741 124.5270253  66.4837920
 117.2294733 124.5110539  67.8193796 115.3980012 125.6124997  68.2429988
 115.4249042 125.5141970  69.3207992 114.3636929 125.6193879  67.9201553
 116.4170012 126.7864997  68.2889988 116.4780012 127.6304997  69.1589988
 117.1400012 126.6444997  67.2329988 118.0600012 127.7384997  66.8059988
 118.3641845 128.2220787  67.7220150 117.4745647 128.4309275  66.2186320
 119.3050012 127.2524997  66.0149988 119.9763835 128.0812301  65.8622060
 118.9600012 126.5934997  64.6499988 119.8418635 126.6489733  64.0262660
 118.1850334 127.2091298  64.2106703 118.5190012 125.2534997  64.7659988
 118.1840012 124.6064997  63.3319988 118.4870012 123.0694997  63.6349988
 117.8270012 122.3274997  64.6809988 117.9223569 122.8545131  65.6213993
 118.3518828 121.3842743  64.8019206 116.3700012 121.9444997  64.4109988
 115.9017360 122.9024491  64.2230902 115.9334830 121.5130377  65.3001948
 115.9500012 121.0494997  63.2659988 116.6020012 121.4084997  62.0399988
 116.4697422 122.4691932  61.8763808 116.1335620 120.8558203  61.2392427
 117.6451300 121.1377292  62.1054404 116.3410012 119.6124997  63.5819988
 115.9865536 119.3707225  64.5722637 117.4097526 119.5160690  63.5124180
 115.8600279 118.9786591  62.8511035 114.5020012 121.0094997  63.0259988
 114.0023282 120.6713798  63.9215902 114.2954267 120.3259191  62.2162491
 114.1526246 121.9974718  62.7627838 116.7940012 124.8084997  63.0679988
 119.1570012 125.0874997  62.3729988 119.9450012 126.2934997  66.8539988
 120.6500012 126.6384997  67.8419988 120.9900012 127.7464997  68.1509988
 120.8120012 125.4564997  68.6549988 119.8855569 124.8956398  68.5865133
 121.5758866 124.8246229  68.2087725 121.1540012 125.7974997  70.0639988
 121.5734603 124.9112362  70.5273045 121.9489177 126.5364632  70.0554286
 119.9710012 126.3074997  70.9239988 119.3083536 126.9129982  70.3108726
 119.3852187 125.4510864  71.2487759 120.4220012 127.1204997  72.1979988
 121.5091564 127.0942299  72.2439267 120.1480688 128.1658139  72.0776606
 119.8610012 126.6064997  73.5589988 120.0675180 127.3267010  74.3480246
 118.7773370 126.5280044  73.4966171 120.4180012 125.2664997  73.9489988
 119.7765880 124.8437301  74.7207216 120.3603600 124.5921889  73.0991161
 121.8520012 125.2964997  74.4489988 122.1239469 124.2847940  74.7266263
 122.4823708 125.5618925  73.6013274 122.1360012 126.2944997  75.6129988
 122.0732508 127.3125996  75.2593195 122.4210012 126.1134997  76.9249988
 122.5949780 126.9903043  77.5320866 122.5270012 124.8214997  77.6739988
 122.7797148 124.0283045  76.9724303 123.3235812 124.8414966  78.4093499
 121.2310012 124.4574997  78.3499988 120.4434629 124.4359303  77.5976536
 121.3231322 123.4388147  78.7218210 120.8200012 125.3624997  79.4819988
 120.7921813 126.3770032  79.0843611 119.7961478 125.1111714  79.7447959
 121.7190012 125.3374997  80.7829988 121.5045761 124.3831801  81.2588569
 122.7473927 125.2776790  80.4309798 121.6000012 126.4824997  81.8179988
 122.3180647 126.3243690  82.6204759 121.8679139 127.4321026  81.3629141
 120.1910012 126.5774997  82.4519988 120.2227816 127.3580995  83.2099809
 119.5094105 126.9328230  81.6812760 119.6180012 125.3574997  83.0579988
 119.2818832 124.6366714  82.3168198 120.3668784 124.8411887  83.6545881
 118.4050012 125.7534997  83.9959988 118.0235870 124.8829156  84.5210470
 117.5811883 126.1812892  83.4346883 118.7097838 126.4822890  84.7417297
  27.8190012 124.6604997  80.3009988  28.4624183 124.4164423  79.4614278
  28.0362584 123.9576952  81.1001578  28.0941481 125.6516714  80.6509770
  26.3110012 124.6064997  79.8949988  26.0803000 123.6098916  79.5225041
  26.1498807 125.2877907  79.0639171  25.3340012 124.9554997  81.0779988
  25.6694701 125.9069636  81.4904378  25.5174502 124.2111123  81.8502713
  23.8380012 125.0214997  80.8179988  23.2887259 125.2179125  81.7361320
  23.4488031 124.0818540  80.4290298  23.5460012 126.1284997  79.8349988
  23.9476639 125.8691731  78.8587868  24.0695512 127.0291556  80.1513517
  22.0290012 126.4414997  79.6889988  21.6592968 126.9612266  80.5710530
  21.4536102 125.5211774  79.6147751  21.7610012 127.3254997  78.4139988
  22.4528832 128.1655963  78.4315195  20.7624807 127.7518706  78.4999913
  21.8880012 126.5804997  77.0439988  22.9328898 126.3122589  76.8933151
  21.6351362 127.2772683  76.2469688  21.0250012 125.3324997  76.9119988
  20.0048593 125.5592227  77.2144028  21.3817950 124.5657295  77.5985398
  21.0190012 124.7784997  75.5049988  21.1009521 125.6044630  74.8018860
  20.0558140 124.3071567  75.3112587  22.1460012 123.7534997  75.2499988
  22.0938777 122.9694139  76.0023508  23.1169019 124.2294477  75.3763050
  22.0790012 123.0894997  73.8449988  22.7803012 123.5819319  73.1757396
  21.0896282 123.2515008  73.4212456  22.3530012 121.5924997  73.8819988
  21.6693337 121.1032919  74.5737549  23.3553786 121.3751184  74.2401312
  22.1690012 120.9644997  72.5249988  21.1974402 121.2163861  72.1127276
  22.2001865 119.8821482  72.6179227  23.2920012 121.4134997  71.5159988
  24.2729883 121.2018493  71.9220891  23.2192025 122.4764622  71.3188184
  23.2910012 120.6134997  70.2569988  22.4240012 119.8684997  69.9069988
  24.3440012 120.9864997  69.4939988  24.4290012 120.3124997  68.2009988
  23.8819245 119.3934767  68.3478524  25.4568871 120.0778200  67.9652702
  23.7910012 121.1334997  67.0939988  22.7207030 121.1259152  67.2176851
  24.1490012 120.6284997  65.7319988  23.2644107 120.7435599  65.1203928
  24.3392432 119.5716567  65.8715546  25.3010012 121.2754997  65.0949988
  25.6510012 121.0744997  63.5599988  26.0480012 122.4504997  62.9899988
  26.3580012 123.5424997  63.9389988  27.1702203 124.1680400  63.5923168
  26.6765233 123.1223641  64.8886443  25.1230012 124.3784997  64.2649988
  25.6031552 125.2462362  64.6994345  24.4887881 123.9224250  65.0114214
  24.2060012 124.9054997  63.2159988  23.6260012 123.8394997  62.3679988
  24.4289933 123.2152536  62.0007734  23.1231021 124.3113945  61.5370308
  22.9125733 123.2769023  62.9512841  22.9400012 125.4334997  63.9479988
  23.2541348 126.0811855  64.7520741  22.3725571 124.5972377  64.3154809
  22.3595434 125.9916183  63.2276729  24.9090012 126.0164997  62.4249988
  25.2065351 126.8022647  63.1033268  24.2268900 126.4134054  61.6882218
  25.7796919 125.6111913  61.9299656  26.7760012 120.1044997  63.5739988
  24.4780012 120.5394997  62.8009988  24.2440012 122.5094997  67.3119988
  23.3710012 123.4934997  67.7199988  22.1550012 123.4684997  67.6559988
  24.2590012 124.6214997  68.3169988  25.0689136 124.7919319  67.6151813
  23.6861528 125.5451977  68.3401015  24.7740012 124.2604997  69.7049988
  23.8946377 124.1847539  70.3351127  25.1764581 123.2553454  69.6293263
  25.7760012 125.1624997  70.3659988  26.7608799 124.9625982  69.9516231
  25.5355237 126.1876153  70.0951232  25.8170012 125.0604997  71.8579988
  26.5341605 125.7900981  72.2295826  24.8530251 125.3425806  72.2743911
  26.2110012 123.6654997  72.4079988  25.9320333 123.6234141  73.4588588
  25.5914765 122.9286538  71.9004278  27.6950012 123.2544997  72.2539988
  27.9271132 123.2861241  71.1905963  28.3095129 124.0168080  72.7247209
  28.1120012 121.8204997  72.8459988  29.1841679 121.8818784  72.9918451
  27.6682136 121.7941704  73.8403354  27.7300012 120.5424997  72.1079988
  28.3232518 120.3220779  71.2333434  26.7370012 119.6454997  72.4349988
  26.7102486 118.8047173  71.7567810  25.7120012 119.5894997  73.5109988
  25.7125909 120.5531347  74.0175835  24.7201344 119.4685028  73.0899987
  25.9610012 118.4814997  74.5729988  26.0406640 117.5531443  74.0086273
  26.9567378 118.6866068  74.9614555  24.9920012 118.2854997  75.7469988
  23.9899115 118.3655672  75.3256764  25.1042930 117.2540497  76.0694975
  25.1050012 119.2144997  76.9599988  26.0544623 118.9858068  77.4389227
  25.1931070 120.2306649  76.5795640  23.9290012 119.1554997  78.0299988
  22.9798600 119.2724642  77.5103447  23.9013344 118.1666511  78.4794853
  24.0030012 120.2304997  79.1269988  24.1256988 121.2130879  78.6749494
  23.0613893 120.2645104  79.6720165  25.1710012 120.0054997  80.1609988
  25.2785380 118.9335501  80.3068579  26.0774552 120.3274440  79.6530560
  25.0980012 120.6964997  81.5159988  26.0055436 120.5231803  82.0864338
  24.2660769 120.3352627  82.1111045  24.9796400 121.7702231  81.4008917
 136.8350012  50.5704997  84.0949988 137.5387216  50.2549052  84.8589403
 136.1399064  49.7529770  83.9268024 136.2680578  51.4074123  84.4934515
 137.5700012  50.9674997  82.7759988 138.1519631  50.0969456  82.4782424
 138.2881588  51.7336710  83.0553642 136.7480012  51.4314997  81.6129988
 136.0006209  52.1528586  81.9431397 136.1935650  50.5905786  81.2011453
 137.5790012  52.0444997  80.5089988 138.0642308  51.2269104  79.9804631
 138.3785392  52.6208245  80.9719183 136.8460012  52.9224997  79.4869988
 136.2926850  53.7048632  80.0001474 136.1066525  52.3180666  78.9641324
 137.7870012  53.5694997  78.4619988 138.3666739  52.7967760  77.9603069
 138.5061745  54.2039226  78.9756857 137.0250012  54.4144997  77.3969988
 136.2724345  55.0311038  77.8850693 136.4848812  53.7541669  76.7199012
 137.9700012  55.3164997  76.5809988 138.5705929  55.9627823  77.2197940
 137.4262845  55.9758286  75.9069501 138.9200012  54.3894997  75.7429988
 138.3171498  53.7351670  75.1169317 139.4710260  53.7383171  76.4204276
 139.9270012  55.1724997  74.8509988 140.4386540  55.9053911  75.4709831
 139.3681367  55.7392255  74.1067398 140.9440012  54.2864997  74.1449988
 141.6954033  53.9776588  74.8685684 141.4707183  54.8724438  73.3937554
 140.3520012  53.0114997  73.4789988 139.5525162  53.2662623  72.7875230
 139.9086712  52.3593662  74.2292324 141.4630012  52.2324997  72.7429988
 142.2664913  51.9430444  73.4181812 141.9286490  52.7981174  71.9408002
 140.8590012  50.9724997  72.1709988 139.8643027  51.2725549  71.8581300
 140.7357547  50.3366241  73.0436755 141.5230012  50.1334997  71.0349988
 142.5306396  49.8508465  71.3121503 141.5628657  50.7067955  70.1164065
 140.6460012  49.0864997  70.3939988 140.7520012  47.8874997  70.4529988
 139.7880012  49.7934997  69.6849988 138.9300012  48.9734997  68.8889988
 138.0908740  48.7436341  69.5281305 139.3575199  48.0516161  68.5221875
 138.4820012  49.8754997  67.7239988 137.8193481  49.2394119  67.1608138
 139.6100012  50.3154997  66.8649988 140.2022857  49.4473959  66.6092727
 140.2142948  50.9827660  67.4668042 139.1590012  50.9834997  65.6769988
 140.3860012  51.5804997  64.7809988 139.6850012  52.3134997  63.5329988
 138.7780012  53.4034997  63.7489988 139.3053244  54.3445259  63.8361124
 138.2603042  53.2521076  64.6917964 137.6330012  53.4914997  62.6549988
 138.0896584  53.9737697  61.7999381 136.8178502  54.1072954  63.0067110
 136.9930012  52.2164997  62.1189988 137.9720012  51.3324997  61.2829988
 138.4405516  51.9525640  60.5311246 137.3939250  50.5556224  60.8050974
 138.6971840  50.8877214  61.9478289 136.4700012  51.4044997  63.2839988
 135.8761899  52.0501775  63.9126499 137.3019381  50.9875933  63.8229236
 135.8546629  50.6150998  62.8771772 135.7660012  52.6494997  61.2519988
 135.0832029  53.2213366  61.8626304 135.2665530  51.7680120  60.8789291
 136.1057152  53.2510948  60.4212685 141.0850012  52.6084997  65.6349988
 141.1410012  50.4434997  64.2119988 137.7410012  50.9964997  68.1779988
 136.6480012  51.0224997  68.8689988 135.9700012  50.0784997  69.2249988
 136.3870012  52.4804997  69.1699988 137.3596312  52.9476554  69.2853653
 135.9409840  52.9357558  68.2892505 135.5060012  52.6844997  70.3999988
 135.2076710  53.7258975  70.4505023 134.5888496  52.1145707  70.2902401
 136.1930012  52.3054997  71.6859988 136.5565613  51.2833037  71.6182242
 137.0728438  52.9328415  71.8059326 135.2720012  52.4724997  72.9719988
 134.9691487  53.5144793  73.0572329 134.3555096  51.8974494  72.8644705
 135.9670012  52.0604997  74.2849988 137.0371230  52.2461326  74.2195719
 135.6007298  52.6834790  75.0987082 135.7200012  50.5464997  74.6579988
 135.9795230  50.4350669  75.7096319 134.6535616  50.3530166  74.5832388
 136.4630012  49.4984997  73.8429988 136.0580292  49.4186239  72.8409022
 137.5102366  49.7755257  73.7294182 136.3900012  48.1824997  74.5629988
 135.4959187  47.6088091  74.3705158 137.2940012  47.6434997  75.3899988
 137.0189159  46.6775451  75.7885837 138.6350012  48.1444997  75.8629988
 139.2564360  47.2729362  76.0615355 139.1320327  48.6984113  75.0744415
 138.5880012  49.0014997  77.1369988 138.1669597  49.9785511  76.9029059
 137.9050630  48.5392809  77.8472158 140.0030012  49.1864997  77.8209988
 139.8315754  49.5986816  78.8153962 140.4311858  48.1992760  77.9711698
 141.0250012  50.0854997  77.0619988 141.3012864  49.6404324  76.1087272
 140.6020962  51.0616185  76.8308527 142.2610012  50.2674997  77.9269988
 142.2933708  49.4542460  78.6496057 143.1448198  50.1482969  77.3062893
 142.3370012  51.5824997  78.6969988 143.3675980  51.8788135  78.8839516
 141.8853419  52.3987117  78.1360746 141.6100012  51.4584997  80.0499988
 140.5844537  51.1236879  79.9155799 142.0973663  50.6882193  80.6436791
 141.6190012  52.8364997  80.8829988 141.1786931  52.6958133  81.8655491
 141.0549573  53.6164433  80.3827154 142.6326220  53.2010123  81.0238683
  86.4670012 135.2454997  81.2319988  87.4794759 135.4470184  81.5677278
  85.8063553 135.3554445  82.0871298  86.1998128 136.0117316  80.5094263
  86.3470012 133.7844997  80.5919988  86.6475860 133.0442195  81.3314830
  87.0542984 133.7006891  79.7713158  84.9180012 133.4584997  80.0979988
  84.2583215 133.6571559  80.9425622  84.9036347 132.3802657  79.9517927
  84.3540012 134.1184997  78.8579988  84.9513269 133.7677976  78.0192735
  84.5487160 135.1866298  78.9410053  82.8340012 133.8904997  78.5229988
  82.2455802 133.9651537  79.4339107  82.7056318 132.8724930  78.1589264
  82.2610012 134.8934997  77.4649988  81.3634820 134.5000031  76.9912512
  82.9736421 135.0747041  76.6631978  81.9100012 136.2954997  78.1939988
  82.8334630 136.7076045  78.5966871  81.2734454 136.0806784  79.0512494
  81.2200012 137.3624997  77.2969988  81.0717280 138.2864980  77.8543973
  80.2289927 137.0245888  76.9996731  82.0280012 137.6484997  76.0769988
  82.1525640 136.7318499  75.5044796  83.0290712 137.9603566  76.3722632
  81.3720012 138.7854997  75.1319988  81.7406355 139.7623838  75.4371299
  80.2929064 138.8058995  75.2822233  81.6780012 138.5464997  73.6029988
  81.0489522 139.2162719  73.0205526  81.3734063 137.5363400  73.3348060
  83.1520012 138.7664997  73.1759988  83.8164708 138.1532411  73.7798308
  83.4402071 139.7996672  73.3608561  83.3580012 138.4584997  71.6829988
  82.5224800 138.8871706  71.1321833  83.3084048 137.3849334  71.5240346
  84.6860012 139.0084997  71.0529988  85.5147817 138.7388414  71.6993363
  84.6249866 140.0935620  71.0559781  84.9970012 138.5264997  69.5809988
  84.1676480 138.7557610  68.9239953  85.1698146 137.4569822  69.5626452
  85.6720012 137.1474997  69.6369988  85.9430012 136.5154997  70.6099988
  85.9090012 136.7774997  68.3359988  86.3660012 135.4604997  68.1159988
  86.6793177 135.1108551  69.0881322  87.2314721 135.5434671  67.4746966
  85.2960012 134.4744997  67.4979988  85.6730437 133.4651850  67.4938878
  84.9340012 134.8904997  66.0989988  84.3032784 134.1604013  65.6101775
  85.8312677 135.0250723  65.5079082  84.2390012 136.1374997  66.2439988
  83.1450012 136.6004997  65.1129988  84.0600012 136.9274997  63.8879988
  83.9460012 136.3324997  62.6009988  83.3137632 136.9024632  61.9327131
  83.4959093 135.3475834  62.6855821  85.3280012 136.0914997  61.9799988
  85.0624063 135.9547777  60.9393185  85.8024788 135.1895156  62.3387085
  86.3780012 137.1364997  61.9939988  87.6080012 136.7054997  61.2049988
  87.9139330 135.7272617  61.5496585  88.3940789 137.4207444  61.3963277
  87.3668275 136.7048571  60.1525959  85.8910012 138.4364997  61.3189988
  84.9333957 138.7029812  61.7393479  85.8239597 138.2771542  60.2576390
  86.6181850 139.2054063  61.5364460  86.6870012 137.5554997  63.4289988
  85.7839694 137.9207228  63.8950757  87.4305428 138.3382303  63.4176646
  87.0650918 136.7059902  63.9792861  82.2770012 135.4244997  64.8229988
  82.5300012 137.8774997  65.5849988  84.1270012 134.5244997  68.3309988
  83.6800012 133.4684997  68.8699988  84.0830012 132.3054997  68.6079988
  82.7330012 133.8634997  70.0079988  82.7915178 134.9455105  70.0661488
  81.7222020 133.6376422  69.6775741  83.0500012 133.1644997  71.4279988
  82.1093361 133.0608563  71.9575913  83.3996234 132.1549091  71.2368861
  84.0370012 133.8904997  72.3109988  85.0152132 133.9110183  71.8373594
  83.7258130 134.9276271  72.4089455  84.1460012 133.2684997  73.7339988
  83.3942216 133.7222777  74.3771309  83.9204419 132.2052252  73.7062062
  85.5570012 133.4714997  74.4019988  85.6244624 132.8489900  75.2918480
  86.3172590 133.1028122  73.7160990  85.8900012 134.9194997  74.7689988
  86.0931988 135.4606710  73.8462066  85.0128027 135.3844127  75.2102433
  87.0870012 135.0954997  75.7409988  86.7766684 134.6860107  76.6952484
  87.8796282 134.4460845  75.3717451  87.6390012 136.4834997  75.9009988
  88.4435806 136.7253671  75.2229825  87.2550012 137.4354997  76.7519988
  87.7491170 138.3964163  76.7420640  86.1340012 137.3194997  77.7919988
  85.4648794 136.5164805  77.4876020  86.5210668 137.0395141  78.7653791
  85.3120012 138.6044997  77.9219988  85.3501777 139.2168329  77.0218346
  84.2593136 138.3944913  78.1014548  85.8750012 139.3974997  79.1029988
  85.9255185 138.7265118  79.9605128  86.9004634 139.6716754  78.8711390
  85.0890012 140.6484997  79.4889988  85.7070289 141.2058332  80.1894030
  85.0040837 141.2684028  78.5981597  83.7090012 140.4284997  80.0779988
  83.3933286 141.3384841  80.5848214  82.9920175 140.2710313  79.2768976
  83.6300012 139.2614997  81.0989988  83.7825805 138.3048372  80.6026124
  84.4235233 139.3474022  81.8391186  82.2380012 139.2194997  81.8569988
  82.0029355 140.2329928  82.1724203  81.4984865 138.9659530  81.1005960
  82.0780012 138.2854997  83.0189988  81.0554964 138.2963648  83.3842862
  82.7224022 138.5562241  83.8485749  82.3170039 137.2645073  82.7351092
  18.1150012 116.1024997  83.0319988  18.1847592 115.0339832  82.8535738
  17.1565568 116.2976339  83.5043302  18.8922653 116.3703073  83.7424575
  18.2660012 116.9134997  81.6989988  17.4902217 116.5785305  81.0125843
  19.2141479 116.6327278  81.2484446  18.1830012 118.4494997  81.8489988
  18.8052525 118.7266370  82.6998379  17.1593196 118.6809634  82.1365255
  18.5600012 119.3244997  80.6369988  19.6355006 119.4848811  80.6657881
  18.1053816 120.3057470  80.7642025  18.1710012 118.7454997  79.2099988
  17.0866133 118.7428064  79.1347075  18.4810130 117.7019591  79.1932435
  18.7370012 119.4464997  78.0189988  19.7786366 119.7065347  78.1984265
  18.2132606 120.3855745  77.8534355  18.6410012 118.5864997  76.7579988
  17.6970411 118.0448402  76.7757309  19.4255358 117.8316869  76.7895125
  18.7500012 119.3854997  75.4259988  19.6669445 119.9724135  75.4606122
  17.9314218 120.1021999  75.3951349  18.7350012 118.5414997  74.1359988
  17.7845134 118.0149763  74.0822665  19.5030749 117.7735986  74.2194712
  18.9500012 119.3314997  72.8449988  19.1720601 118.6285842  72.0450621
  19.8373630 119.9534494  72.9598748  17.8080012 120.1824997  72.4659988
  17.4314487 120.6896365  73.3517535  16.9899140 119.5637361  72.1013166
  18.1470012 121.2334997  71.4199988  18.9925493 121.8392954  71.7366672
  17.3133449 121.9206753  71.2877988  18.4410012 120.5874997  70.1149988
  17.6032839 119.9485623  69.8406981  19.3057625 119.9354413  70.2003320
  18.6700012 121.5634997  68.9879988  19.3775778 122.3227621  69.3045440
  17.7327169 122.0734922  68.7818490  19.1720012 120.9154997  67.6849988
  18.4973339 120.1304983  67.3677639  20.1574535 120.4892258  67.8307496
  20.6880012 120.5914997  67.6859988  21.5140012 120.7894997  68.5459988
  20.9160012 120.2114997  66.4769988  22.3150012 120.2574997  65.9529988
  22.8008008 120.7961052  66.7526017  22.4870529 120.7771779  65.0215887
  22.8310012 118.8484997  65.8859988  23.8410169 118.9655635  65.5295464
  22.0280012 117.9444997  64.9099988  22.5551658 117.0050211  64.8136737
  22.0393901 118.4485602  63.9516782  20.6410012 117.7144997  65.3529988
  19.7180012 116.7374997  64.5519988  19.1410012 117.5934997  63.3549988
  18.6760012 118.9094997  63.5869988  19.4677547 119.6472594  63.5819093
  18.1995003 118.9757821  64.5608317  17.5850012 119.2694997  62.5819988
  18.0062870 119.4230951  61.5965163  17.1150981 120.1870031  62.9056583
  16.4510012 118.2594997  62.3969988  16.8520012 117.1074997  61.5599988
  17.2907514 117.4815665  60.6451730  15.9641905 116.5370846  61.3308289
  17.5436045 116.4934245  62.1170567  15.9540012 117.7324997  63.7069988
  15.7542121 118.5687724  64.3592611  16.6957116 117.0758616  64.1254028
  15.0411245 117.1888311  63.5110966  15.3520012 119.0834997  61.6319988
  15.0783170 119.9451813  62.2224932  14.4842409 118.4598801  61.4779183
  15.7412548 119.4034672  60.6762073  20.6090012 115.6954997  63.8989988
  18.6500012 116.2714997  65.5579988  22.9530012 118.3544997  67.2359988
  23.7710012 117.2874997  67.3919988  24.1090012 116.5304997  66.4709988
  24.1140012 117.0734997  68.9189988  24.8598840 116.3004461  69.0726215
  24.4949777 117.9586028  69.4223439  22.6990012 116.6544997  69.4949988
  21.9845004 117.4580958  69.3543471  22.2991266 115.8000323  68.9583249
  22.8000012 116.3314997  70.9799988  21.9665105 115.7163010  71.3093585
  23.6997218 115.7540512  71.1777892  22.8570012 117.6144997  71.7979988
  23.7956583 118.1117347  71.5605413  22.0664406 118.2829034  71.4656548
  22.7600012 117.4484997  73.4149988  22.4790352 118.4088950  73.8423158
  21.9359652 116.7699666  73.6269863  24.0190012 116.9264997  74.1199988
  24.2302387 115.9266360  73.7440302  24.8691585 117.5438949  73.8436409
  23.9190012 116.8814997  75.6869988  24.9276825 116.8416862  76.0814057
  23.5000309 117.8330003  76.0117395  23.0740012 115.7684997  76.2449988
  23.0859217 114.8138871  75.7408889  22.3400012 115.8664997  77.2969988
  21.8553400 114.9433668  77.5807931  22.0310012 117.0374997  78.2169988
  22.0366109 117.9602600  77.6393286  21.0463300 116.9660341  78.6653249
  23.1060012 117.1594997  79.3429988  23.1022307 116.2541998  79.9489054
  24.0914549 117.2132356  78.8842478  22.9110012 118.3374997  80.2149988
  21.9801104 118.1759134  80.7585420  23.7032207 118.3226367  80.9584175
  22.8700012 119.6964997  79.5489988  23.7011050 119.7421542  78.8487652
  21.9632943 119.7507372  78.9489771  22.9200012 120.9074997  80.5059988
  23.8333278 120.7735146  81.0826030  23.0949072 121.7704579  79.8693387
  21.7740012 121.2044997  81.4949988  21.7733362 122.2655115  81.7381787
  20.8209234 121.0058875  81.0081414  21.8290012 120.3904997  82.8259988
  20.8254455 120.2992683  83.2340036  22.1385680 119.3789025  82.5727153
  22.7750012 120.9404997  83.9099988  22.8171399 120.2684762  84.7618660
  22.4525190 121.9094084  84.2760071  23.7852516 121.0522146  83.5265215
  36.9910012  18.3084997  82.3119988  36.2154772  19.0156405  82.5893857
  37.7983740  18.4027572  83.0324532  36.5772141  17.3086850  82.4108065
  37.4860012  18.5584997  80.8939988  37.8390289  19.5876920  80.8574259
  36.6138359  18.5118787  80.2474941  38.5780012  17.6354997  80.3679988
  38.1735421  16.6295692  80.2564386  39.3609642  17.5635240  81.1203015
  39.2110012  18.0714997  79.0519988  39.8453573  17.2627770  78.6958950
  39.8742238  18.9144123  79.2399883  38.2150012  18.4444997  77.9359988
  37.5412736  19.1776357  78.3720901  37.6236570  17.5449737  77.7731180
  38.7210012  18.9764997  76.5729988  39.3763384  19.8327370  76.7220212
  37.8863454  19.3330677  75.9731772  39.5210012  17.8244997  75.7479988
  40.2551589  17.4052266  76.4335588  40.0875423  18.3361400  74.9711556
  38.7020012  16.6744997  75.1099988  37.9690072  16.3050470  75.8260124
  39.3582352  15.8353936  74.8865220  37.9750012  17.1124997  73.8149988
  38.7153824  17.1595256  73.0192820  37.6217265  18.1324482  73.9615561
  36.8240012  16.2464997  73.3749988  36.5351688  15.5987556  74.1998032
  37.1575037  15.5888033  72.5727267  35.6370012  17.0384997  72.9029988
  35.8391516  17.4646399  71.9226515  35.4458043  17.8811427  73.5652106
  34.3920012  16.1894997  72.8049988  33.5513901  16.8766660  72.7467362
  34.2976753  15.6740771  73.7589968  34.3050012  15.1424997  71.6659988
  33.3044640  14.7181845  71.7302957  34.9925812  14.3398813  71.9176164
  34.5550012  15.5874997  70.1519988  34.3898106  14.7413214  69.4931821
  35.5992313  15.8693804  70.0460811  33.7040012  16.7344997  69.7029988
  33.8277021  17.5807493  70.3667763  32.6588780  16.4486260  69.6950733
  33.6820012  17.0314997  68.2289988  33.5060012  16.1954997  67.3819988
  33.9410012  18.2704997  68.0169988  34.0940012  18.7754997  66.6959988
  33.5295197  19.6815488  66.5350714  33.7818778  18.0324444  65.9765268
  35.6390012  19.0654997  66.5739988  35.9950741  19.8106570  67.2659862
  35.8810012  19.5254997  65.1539988  36.9207149  19.8002464  65.0386275
  35.2695683  20.4035187  64.9872131  35.5460012  18.5354997  64.2689988
  36.4040012  17.8114997  63.1689988  37.1620012  16.6524997  63.9779988
  36.5250012  15.3354997  64.2339988  35.8874145  15.0142989  63.4206708
  35.8938698  15.3922290  65.1161847  37.5690012  14.2804997  64.5579988
  37.0209878  13.3473897  64.5228401  38.0502632  14.3644981  65.5216938
  38.6680012  14.1424997  63.5629988  39.6550012  15.2744997  63.4779988
  39.1087529  16.2013677  63.3690837  40.2736249  15.1125549  62.6078387
  40.2697880  15.2708514  64.3655464  39.4500012  12.8654997  63.8549988
  38.7498450  12.0505434  63.9566925  40.0255547  13.0038192  64.7527603
  40.1052150  12.6885717  63.0143512  38.0430012  13.8484997  62.2059988
  37.4532259  12.9464937  62.2740594  38.8270328  13.7140961  61.4760124
  37.4135702  14.6760111  61.9119300  35.4220012  17.3054997  62.1589988
  37.4780012  18.7184997  62.7129988  36.3680012  17.8244997  66.7989988
  37.5350012  17.9574997  67.4129988  38.0540012  18.9944997  67.7689988
  38.1550012  16.6014997  67.6289988  37.3267408  15.9033500  67.6932230
  38.6976193  16.3368675  66.7248736  39.0430012  16.5284997  68.8309988
  39.7497702  17.3498662  68.7874605  38.4483942  16.6912657  69.7242976
  39.8260012  15.1884997  68.9539988  39.1412613  14.3477546  68.8769733
  40.5099005  15.1004502  68.1134073  40.6060012  15.0944997  70.2089988
  41.4693807  15.7535831  70.1390638  40.0194865  15.4504213  71.0525166
  41.1070012  13.6704997  70.5169988  41.6564065  13.2811488  69.6623289
  41.8189080  13.7175096  71.3388015  40.0200012  12.7174997  70.8819988
  39.2689209  12.6596570  70.0957204  40.3906857  11.7065928  71.0268376
  39.3380012  13.2014997  72.2199988  40.0786019  13.2347302  73.0105595
  38.9872426  14.2238151  72.0851450  38.1700012  12.3404997  72.6079988
  37.4756521  12.0168333  71.8472929  37.9310012  11.9174997  73.8959988
  37.1236243  11.2324610  74.1115786  38.7310012  12.3324997  75.1139988
  39.7242062  11.8917134  75.0471249  38.8775573  13.4060053  75.1562828
  38.0610012  11.8404997  76.4589988  37.8574551  10.7743542  76.3662207
  38.8019786  11.9400386  77.2498865  36.7900012  12.5654997  76.8709988
  36.6301117  13.4320210  76.2293734  35.9239239  11.9235412  76.7357078
  36.8620012  13.0284997  78.3419988  37.0782608  12.1462261  78.9403048
  37.7286393  13.6804233  78.4369671  35.6390012  13.7394997  78.8909988
  34.7898895  13.0925998  78.6785844  35.7421221  13.7482551  79.9726246
  35.2950012  15.1594997  78.3799988  36.1307885  15.8496628  78.4800857
  35.0254921  15.1628528  77.3253957  34.0790012  15.7224997  79.2079988
  34.3299477  15.6703176  80.2645109  34.0120062  16.7822200  78.9717417
  32.7060012  15.0784997  78.9769988  31.9353701  15.6039423  79.5329725
  32.6859534  14.0414320  79.2945356  32.4331896  15.1070366  77.9258563
  42.3660012   9.4114997  82.5789988  42.1225698   8.7085172  81.7884384
  41.5283666   9.4360014  83.2700544  43.2247350   9.0193792  83.1169855
  42.6670012  10.8414997  81.9989988  41.7889464  11.1555574  81.4372243
  43.4686740  10.7284479  81.2741858  43.0320012  11.9404997  83.0309988
  43.8838065  11.5847493  83.6104799  42.2015536  12.0138760  83.7303870
  43.3430012  13.3654997  82.4819988  43.1996782  14.1225637  83.2498285
  42.6838529  13.6410403  81.6602281  44.8000012  13.4204997  82.0049988
  45.0808215  12.4230286  81.6767239  45.4127935  13.6386261  82.8780803
  45.1400012  14.4474997  80.8629988  46.2172731  14.5740473  80.7719606
  44.7373292  15.4299221  81.1002296  44.5540012  13.9654997  79.4819988
  43.6763479  13.3476108  79.6628527  45.2825807  13.3225718  78.9900176
  44.1660012  15.1514997  78.5119988  43.5253194  15.8854640  78.9991068
  43.6194242  14.8039047  77.6372900  45.5010012  15.8534997  78.0459988
  46.2444409  15.1083004  77.7711962  45.9338582  16.4263771  78.8651588
  45.2570012  16.7624997  76.8829988  44.7066221  17.6332549  77.2325228
  44.6066607  16.2562972  76.1700855  46.5630012  17.2124997  76.1559988
  47.3851243  17.1697219  76.8672123  46.4684612  18.2574973  75.8658779
  46.9560012  16.3524997  74.8879988  47.9766994  16.5787759  74.5893464
  46.3237876  16.6358970  74.0485573  46.7940012  14.7974997  75.1409988
  45.7292907  14.5802533  75.2076891  47.2170514  14.5460551  76.1095431
  47.4110012  13.8564997  74.0549988  47.2424181  12.8060868  74.2684410
  48.4864529  13.9933138  73.9789888  46.7700012  14.2084997  72.6849988
  46.8971795  15.2611533  72.4663964  45.7106971  13.9807769  72.6942864
  47.2350012  13.3524997  71.5459988  48.3930012  12.9514997  71.4219988
  46.2770012  13.1214997  70.5899988  46.6590012  12.2704997  69.5629988
  46.5108496  11.3045644  70.0217822  47.7166247  12.4313775  69.4121915
  45.9150012  12.3484997  68.2669988  46.1107241  11.4629027  67.6853593
  46.3750012  13.5834997  67.5009988  47.4512228  13.5370309  67.4041040
  46.1186298  14.4362855  68.1171278  45.7630012  13.6954997  66.2179988
  46.3710012  12.9544997  64.9539988  45.2300012  13.2234997  63.8599988
  44.0530012  12.5214997  63.9559988  43.2568635  13.1696235  63.6135235
  43.8841834  12.3603812  65.0168184  43.9440012  11.1104997  63.3059988
  42.8681291  10.9890566  63.3060640  44.3801717  10.3428717  63.9287985
  44.3850012  10.8094997  61.9179988  43.8620012  11.9144997  60.9289988
  42.7986839  12.0388920  61.0813702  44.0476071  11.5743725  59.9210484
  44.4047513  12.8304924  61.1081541  45.9130012  10.8834997  61.7759988
  46.3592513  10.2957384  62.5634704  46.2212111  11.9123000  61.8302804
  46.1684338  10.4670123  60.8123653  44.0500012   9.4394997  61.4559988
  44.5024883   8.7192910  62.1213084  44.4324655   9.2988961  60.4561980
  42.9770780   9.3119640  61.4536234  47.5800012  13.6844997  64.4169988
  46.5540012  11.5434997  65.3909988  44.4820012  12.3894997  68.5399988
  43.8950012  11.2384997  68.8319988  44.3990012  10.1844997  68.7379988
  42.5660012  11.4864997  69.4209988  42.4095327  12.5568080  69.5076630
  41.7758298  11.1222190  68.7692044  42.5200012  10.7554997  70.8489988
  41.4825706  10.5627272  71.0992738  42.9935780   9.7827402  70.7624131
  43.1720012  11.5534997  71.9879988  44.2433142  11.6648810  71.8412455
  42.7654226  12.5609704  72.0299708  42.8980012  10.8674997  73.3079988
  41.8390372  10.6339658  73.4016112  43.4267834   9.9215553  73.3962062
  43.3090012  11.7934997  74.5119988  43.1041182  12.8290140  74.2481162
  42.6606547  11.5617484  75.3548031  44.7660012  11.6634997  74.9649988
  45.3918138  11.8701157  74.0981831  44.9709983  12.4502419  75.6856449
  45.1740012  10.3254997  75.5739988  44.9534175   9.4823680  74.9297536
  46.2421061  10.2809259  75.7825918  44.4260012  10.2244997  76.8739988
  43.3563736  10.1051557  76.7890999  44.9390012  10.2534997  78.1069988
  44.3355707  10.1794457  79.0003059  46.3900012  10.3854997  78.3679988
  46.8830546   9.4234060  78.2395652  46.8893537  11.0745806  77.6960646
  46.5980012  10.8364997  79.7949988  47.3466337  11.6263708  79.7464393
  45.6648393  11.3201089  80.0774703  46.9970012   9.8084997  80.8979988
  47.2501713  10.4060561  81.7737488  46.0856613   9.2728218  81.1490223
  48.1280012   8.7984997  80.6289988  48.2890677   8.2042645  81.5257078
  47.8135566   8.1012511  79.8543672  49.4580012   9.4784997  80.1969988
  50.2471721   8.7338416  80.1116542  49.3623144   9.9238772  79.2105365
  49.9310012  10.5724997  81.2429988  50.9329687  10.9349518  81.0203498
  49.2830611  11.4469833  81.2260824  49.9270012   9.9894997  82.6679988
  48.9268610  10.0396355  83.0912258  50.1665646   8.9306248  82.5993962
  50.9270012  10.6624997  83.6319988  50.9406289  10.1528969  84.5907419
  50.6737590  11.7005507  83.8192405  51.9355602  10.6364256  83.2291716
 135.1230012  96.9134997  79.8229988 135.6340873  96.1425043  80.3911415
 134.0606265  96.8308545  80.0335215 135.4583886  97.8768572  80.1972574
 135.4070012  96.7754997  78.3019988 135.0809311  95.8006124  77.9435630
 136.4764667  96.8268076  78.1164589 134.6650012  97.8964997  77.4939988
 135.3011992  98.7500027  77.2600894 133.8091975  98.2976743  78.0332853
 134.1490012  97.2454997  76.1469988 133.4543557  97.9301978  75.6654324
 133.5798783  96.3434388  76.3662962 135.2860012  96.9054997  75.1449988
 134.9264941  96.2042741  74.3962595 136.0918569  96.4002533  75.6747984
 135.8360012  98.1234997  74.4489988 136.5797653  97.7908727  73.7272016
 136.3717087  98.7188300  75.1853249 134.7810012  99.0244997  73.7259988
 133.9716807  99.3101766  74.3954456 134.3151624  98.5044304  72.8900847
 135.4730012 100.2744997  73.2149988 136.1288852 100.0221983  72.3827661
 136.1130236 100.6898621  73.9912264 134.4310012 101.3834997  72.7449988
 134.9816517 102.3188443  72.6711381 133.7212565 101.5127485  73.5611692
 133.6550012 101.1394997  71.4269988 133.1527983 102.0514574  71.1116825
 132.8722957 100.3964304  71.5774954 134.6270012 100.6434997  70.2979988
 134.0399962 100.4067257  69.4131800 135.0948555  99.7109294  70.6087285
 135.6850012 101.6194997  69.9119988 136.4157287 101.6726000  70.7153894
 135.2293207 102.6059940  69.8499158 136.3800012 101.3204997  68.5899988
 137.1774221 102.0421627  68.4209594 135.6966889 101.4201374  67.7512910
 136.9970012  99.9224997  68.5669988 136.2832963  99.1927552  68.9350251
 137.8467423  99.9005573  69.2441624 137.4780012  99.4984997  67.1599988
 138.1669317 100.2307198  66.7584150 136.6354915  99.4067730  66.4848450
 138.0030012  98.0804997  67.1859988 138.2650012  97.4944997  68.1969988
 138.2570012  97.6874997  65.9429988 138.9530012  96.4684997  65.8259988
 139.2096750  96.2459010  66.8507087 139.8605751  96.6122987  65.2578233
 138.0770012  95.2954997  65.2109988 138.6330869  94.3802915  65.3295598
 137.8130012  95.5394997  63.7819988 137.4572453  94.6579098  63.2662100
 138.7043672  95.8977862  63.2823165 136.7960012  96.5634997  63.7919988
 136.3180012  97.2204997  62.3759988 134.7750012  97.3344997  62.6599988
 134.2060012  97.7714997  63.8789988 133.3660473  98.4295348  63.6982884
 134.9458451  98.3570927  64.4170588 133.8050012  96.5914997  64.8709988
 133.4127176  97.0595367  65.7650368 134.6172709  95.9359544  65.1500244
 132.7130012  95.7004997  64.3649988 133.0450012  94.8734997  63.2029988
 133.4651838  95.5090670  62.4356431 132.1320056  94.4232892  62.8426523
 133.7343091  94.1006153  63.5083202 132.2600012  94.7864997  65.4659988
 132.0611672  95.3807028  66.3446920 133.0252304  94.0541013  65.6514354
 131.3530952  94.3033917  65.1321946 131.4890012  96.5594997  64.0519988
 131.1851774  97.0845246  64.9453755 130.6850444  95.9222003  63.7156165
 131.7357456  97.2698023  63.2760978 136.9970012  98.4974997  62.3109988
 136.5370012  96.2954997  61.2069988 136.8080012  95.1564997  65.9929988
 136.8510012  94.6124997  67.3059988 137.8700012  94.1664997  67.7289988
 135.4030012  94.5044997  67.8679988 134.7942419  95.2913515  67.4346059
 134.9371560  93.5689730  67.5685239 135.4840012  94.6174997  69.4019988
 134.5316939  94.2581791  69.7762455 136.2255921  93.8934779  69.7242849
 135.7900012  96.0064997  70.0369988 136.4293387  96.5614973  69.3551783
 134.8522415  96.5543846  70.0869371 136.4180012  95.9774997  71.4449988
 136.5936664  96.9980739  71.7800747 135.7350060  95.5343327  72.1656393
 137.7260012  95.2314997  71.4919988 137.5748398  94.1539801  71.4936482
 138.3274496  95.4516172  70.6121186 138.4980012  95.6254997  72.7089988
 138.7682466  96.6768347  72.6231911 137.8647195  95.5424908  73.5878513
 139.7960012  94.7734997  72.9429988 140.3607410  94.8020388  72.0184262
 140.3888595  95.3118504  73.6812694 139.6040012  93.3514997  73.4209988
 140.0470318  92.6195649  72.7625541 138.9780012  92.8824997  74.5419988
 138.9547500  91.8172673  74.7218582 138.2810012  93.7124997  75.6209988
 138.7423367  93.3452230  76.5361481 138.6486535  94.7227656  75.4800185
 136.7260012  93.7484997  75.8349988 136.4873603  94.4791616  76.6069370
 136.2585448  94.1095007  74.9208752 136.1100012  92.3724997  76.2149988
 135.0272121  92.4747763  76.2872093 136.2950180  91.6579926  75.4176579
 136.6480012  91.8214997  77.5219988 136.0837815  90.9125628  77.7185566
 137.6723491  91.5078857  77.3284978 136.6230012  92.7174997  78.7389988
 137.3939146  93.4760175  78.6167973 135.6786399  93.2545680  78.7580914
 136.8590012  92.0144997  80.0939988 135.9155358  91.9887447  80.6363020
 137.1226679  90.9768198  79.8976973 137.8870012  92.5994997  80.9709988
 138.0048514  91.9755692  81.8534596 138.8344688  92.5425228  80.4396122
 137.6480012  94.0654997  81.4049988 138.4930826  94.4417890  81.9736046
 136.7662281  94.1650632  82.0289413 137.5160470  94.7117142  80.5417862
  67.8710012   5.4024997  82.3509988  67.5524194   5.4662050  83.3867962
  68.6883808   6.1041902  82.2120351  68.2642880   4.4029567  82.1871349
  66.7000012   5.7064997  81.3819988  66.3200000   6.6997049  81.6151199
  65.8960143   5.0113103  81.6081204  67.0580012   5.6374997  79.8659988
  66.2454681   5.9208502  79.1970956  67.3856233   4.6519355  79.5411941
  68.2220012   6.6184997  79.6909988  69.1298799   6.1515680  80.0664732
  68.0541715   7.4955442  80.3141617  68.4570012   7.0534997  78.2729988
  69.3552418   7.6652665  78.2511351  67.6337464   7.7094691  77.9949328
  68.5880012   5.9534997  77.2429988  67.6511174   5.4080935  77.1450298
  69.3332060   5.2245127  77.5541654  68.9930012   6.5434997  75.8459988
  69.8483487   7.2120671  75.9245371  68.1868726   7.1308995  75.4085652
  69.3480012   5.3634997  74.8889988  68.5903267   4.5810222  74.8994648
  70.2864619   4.8814027  75.1565018  69.4620012   5.9414997  73.4649988
  68.5383196   6.4794483  73.2626015  69.4789559   5.0976759  72.7763400
  70.6740012   6.8694997  73.1689988  71.5455359   6.4936682  73.7004844
  70.4741783   7.8614475  73.5733988  70.9880012   6.9904997  71.6499988
  70.0618217   7.1394201  71.0990402  71.4143903   6.0602780  71.2785046
  71.8910012   8.0924997  71.3369988  72.7564171   8.0614039  71.9944995
  71.3915480   9.0387589  71.5365231  72.3440012   8.0754997  69.8609988
  71.4553772   8.0368199  69.2332222  72.8989512   7.1635804  69.6592374
  73.1920012   9.2924997  69.4139988  73.9750487   9.4150471  70.1550546
  72.5364536  10.1546558  69.5036436  73.8200012   9.2984997  68.0079988
  73.0598602   9.1440046  67.2527783  74.5604983   8.5121531  67.9220218
  72.7790012   9.2974997  66.8509988  71.9020012  10.0714997  66.6239988
  73.0110012   8.1774997  66.0359988  72.1770012   8.1274997  64.8609988
  72.8465155   8.1280364  64.0141149  71.5469406   9.0038413  64.8136603
  71.3250012   6.8304997  64.8719988  71.9537754   5.9931365  65.1256912
  70.6220012   6.5744997  63.4489988  70.1595809   5.5997481  63.3726583
  71.3297093   6.6873018  62.6372046  69.6490012   7.5854997  63.3939988
  68.5760012   7.5094997  62.2629988  67.5040012   8.5924997  62.6599988
  67.0040012   8.6344997  64.0309988  66.8026286   7.6569430  64.4493540
  66.0720812   9.1899744  64.0836286  67.9960012   9.4224997  64.9149988
  68.9317512   8.8780590  64.9006747  67.6378378   9.4707392  65.9332173
  68.3430012  10.8524997  64.5259988  69.0870012  10.8424997  63.2679988
  69.9075029  10.1438844  63.3577069  69.4728732  11.8371728  63.1011811
  68.4156459  10.5749271  62.4658741  67.0530012  11.6664997  64.3169988
  66.4129949  11.5204128  65.1735994  66.5759497  11.3415391  63.4096992
  67.3361754  12.7062132  64.2388641  69.1660012  11.5764997  65.5559988
  68.6288637  11.5933250  66.4926322  69.3427287  12.5878283  65.2218852
  70.1107604  11.0683362  65.6849751  69.1590012   7.9224997  61.0059988
  67.9630012   6.2174997  62.2459988  70.3500012   6.9724997  65.8829988
  69.7400012   5.8964997  66.3139988  69.7570012   4.7474997  65.8739988
  69.0080012   6.2764997  67.5889988  69.7301918   6.4747082  68.3743058
  68.4455380   7.1982239  67.4626392  68.1150012   5.1514997  67.9309988
  67.4853467   4.9859769  67.0637050  68.7388028   4.2679698  68.0219908
  67.2060012   5.2974997  69.2069988  66.6728363   4.3626911  69.3603682
  67.8627803   5.4162176  70.0652600  66.1910012   6.4994997  69.1819988
  65.7869569   6.5529624  68.1727436  65.3535962   6.2583501  69.8322309
  66.7410012   7.9164997  69.5689988  66.4445117   8.1484545  70.5898768
  67.8284112   7.8727764  69.5719369  66.3010012   9.0474997  68.6449988
  66.7374965   8.9006853  67.6582778  65.2232558   9.0328530  68.5087328
  66.7070012  10.4184997  69.1769988  66.2911920  11.1885391  68.5376851
  66.2570406  10.5590557  70.1588977  68.1890012  10.5664997  69.3049988
  68.7593254  10.6876917  68.3963752  68.8650012  10.5744997  70.4499988
  69.9387193  10.6750766  70.3820009  68.3430012  10.4654997  71.8689988
  67.3937226  10.9906675  71.9600480  68.1565178   9.4446792  72.1833720
  69.3480012  11.1194997  72.8289988  70.3418476  10.7236929  72.6233017
  69.3927554  12.1833711  72.6039797  69.0070012  10.9244997  74.3749988
  68.1094333  11.4868498  74.6323725  68.7838260   9.8825596  74.5872669
  70.1810012  11.3954997  75.2749988  71.1295827  11.0777394  74.8479548
  70.2167783  12.4825745  75.3205314  70.0350012  10.8454997  76.6679988
  69.7404902   9.7999071  76.6002534  71.0039032  10.8496224  77.1597678
  69.0350012  11.5474997  77.5099988  69.2841643  12.6067992  77.5361773
  68.0639828  11.4778302  77.0230661  68.8940012  11.0474997  78.9429988
  68.8844930   9.9606064  78.9209180  69.8155164  11.3251371  79.4499900
  67.7480012  11.5334997  79.7409988  67.8109595  11.1748867  80.7639856
  66.7998264  11.1961976  79.3361124  67.7260787  12.6191836  79.7718344
  52.4140012 137.3544997  82.9149988  53.2488781 137.5133664  83.5904030
  51.6713371 136.7608419  83.4401754  51.9707385 138.3237988  82.7038368
  52.8800012 136.6404997  81.5839988  53.3432475 135.6871180  81.8323314
  53.6530753 137.2420952  81.1136232  51.7100012 136.3964997  80.5859988
  51.2882228 137.3622875  80.3079952  50.9236483 135.8670683  81.1203420
  52.0550012 135.5964997  79.2959988  52.6963098 134.7600675  79.5649866
  52.6414710 136.2224819  78.6252490  50.8420012 135.0594997  78.5519988
  49.9594023 135.6702143  78.7241030  50.5899721 134.0559902  78.8908425
  51.1410012 135.0254997  77.0289988  51.4807747 136.0162847  76.7328299
  50.2014562 134.8574887  76.5068833  52.1730012 133.9744997  76.5699988
  53.0914882 134.2247000  77.0977784  52.3568993 134.1929379  75.5189535
  51.8790012 132.4314997  76.7379988  51.1502465 132.1017092  75.9986708
  51.4352258 132.2328018  77.7117886  53.1580012 131.6054997  76.5889988
  52.9559781 130.6128364  76.9856690  53.9116270 132.0453372  77.2410478
  53.7370012 131.4774997  75.1469988  54.3584492 130.5848062  75.1328660
  54.4101021 132.3204565  74.9927656  52.6760012 131.4254997  73.9489988
  52.0473855 132.3133888  73.9429886  51.9998831 130.5771565  74.0401373
  53.4130012 131.3444997  72.6009988  52.8850084 130.7061380  71.8967707
  54.4019197 130.9071579  72.7252659  53.5710012 132.7584997  72.0179988
  54.4696107 133.2236722  72.4197044  52.7422114 133.3995155  72.3051926
  53.6900012 132.7464997  70.4599988  54.0406614 131.7776868  70.1197282
  54.4374142 133.4753445  70.1579210  52.3670012 133.0814997  69.7539988
  51.9806982 134.0305411  70.1034717  51.6293341 132.3123984  69.9499567
  52.5130012 133.1014997  68.2569988  53.5210012 132.8304997  67.5909988
  51.3780012 133.5454997  67.7469988  51.2860012 133.8364997  66.3049988
  50.4572668 133.2508362  65.9366787  52.1993762 133.4807589  65.8507009
  51.0550012 135.3794997  65.9879988  50.1116170 135.6816802  66.4117996
  51.0690012 135.6754997  64.4819988  50.9113363 136.7308507  64.3054286
  50.2632112 135.1216946  64.0166091  52.3200012 135.2654997  63.9539988
  52.6930012 135.1954997  62.4599988  54.1570012 135.7404997  62.3829988
  54.8050012 136.2834997  63.5159988  54.2585452 137.1557179  63.8503792
  55.7792364 136.6365406  63.1903842  55.0960012 135.3174997  64.7019988
  54.2106836 134.8032525  65.0541516  55.5077305 135.8970176  65.5156417
  56.1350012 134.2094997  64.4009988  57.5080012 134.7964997  64.1779988
  57.4306800 135.5862172  63.4433549  58.1487247 134.0123501  63.8029216
  57.8916463 135.1584946  65.1200673  56.2360012 133.2764997  65.5769988
  55.2400056 132.9706775  65.8583876  56.7349856 133.7820244  66.3843582
  56.8115766 132.4187451  65.2603491  55.9310012 133.4194997  63.1269988
  54.9600698 132.9475820  63.1528427  56.6986833 132.6641330  63.0512677
  55.9925952 134.0836856  62.2769998  52.6190012 133.7154997  62.1389988
  51.8350012 136.1414997  61.7449988  52.1270012 136.1404997  66.6079988
  51.7310012 137.3544997  66.9479988  50.6010012 137.7924997  66.9779988
  52.9660012 138.1924997  67.4169988  53.7213930 138.2007579  66.6379815
  52.7038291 139.2336020  67.5881093  53.4760012 137.5334997  68.7029988
  52.6361909 137.2948905  69.3463070  53.9578988 136.5879609  68.4754816
  54.4500012 138.4454997  69.4649988  55.0489303 139.0510133  68.7895055
  53.9055439 139.1437234  70.0959623  55.3730012 137.5814997  70.3649988
  55.7792046 136.7475984  69.7955135  56.2279872 138.1454235  70.7299519
  54.6210012 137.0294997  71.5379988  54.0245367 137.8118406  72.0028362
  53.9157511 136.2768581  71.1908186  55.4990012 136.4204997  72.5479988
  55.8960118 135.4794177  72.1705756  56.3566500 137.0562556  72.7494206
  54.7340012 136.1574997  73.9069988  54.4583958 137.0808795  74.4029740
  53.8065678 135.6125578  73.7359675  55.6510012 135.3004997  74.7989988
  55.6826504 134.2318907  74.6485755  56.4660012 135.8234997  75.7939988
  57.0675405 135.1474870  76.3845640  56.6280012 137.2804997  76.1679988
  57.6555041 137.4666598  76.4759000  56.4325567 137.9531115  75.3403057
  55.7070012 137.6324997  77.3369988  55.8260800 138.7030774  77.4994443
  54.6957456 137.4937256  76.9594238  55.8500012 136.9044997  78.6519988
  54.9215128 137.0658136  79.1997160  55.8885857 135.8424780  78.4258897
  57.0880012 137.2954997  79.5869988  57.9899687 137.2791796  78.9792709
  56.9634922 138.3247137  79.9191146  57.2610012 136.4064997  80.7849988
  58.2075804 136.6563373  81.2605604  56.4908965 136.6446189  81.5136023
  57.2620012 134.7694997  80.4699988  57.6268315 134.5888529  79.4604699
  57.9613415 134.2694372  81.1376024  55.8330012 134.0774997  80.6239988
  55.5821101 134.0864039  81.6817745  55.1310439 134.7584085  80.1476248
  55.6060012 132.6234997  80.0409988  54.5670623 132.3249413  80.1436528
  56.2094120 131.8821862  80.5539225  55.8593108 132.5821092  78.9854127
  31.2290012 127.0934997  80.7419988  31.8959318 126.9586150  81.5878349
  30.3828762 126.4260468  80.8775316  30.8529842 128.1123258  80.7768769
  31.9570012 126.8124997  79.3989988  32.3378111 125.7937246  79.3512059
  32.8151215 127.4656394  79.2653876  30.9490012 127.0274997  78.2639988
  30.4942657 128.0102546  78.3878429  30.1450181 126.3054052  78.3919119
  31.4940012 126.8994997  76.8399988  30.7246161 127.2611939  76.1614165
  31.6198756 125.8412536  76.6164438  32.7950012 127.6374997  76.5399988
  33.6467061 127.0137714  76.7991026  32.8602402 128.5215910  77.1720520
  32.9160012 128.0594997  75.0609988  33.8302435 128.6384795  74.9436944
  32.0959160 128.7356288  74.8288636  32.9170012 126.8704997  74.0279988
  32.0031649 126.2956791  74.1667600  33.7386632 126.2006556  74.2778194
  33.0340012 127.2884997  72.5549988  34.0052783 127.7517579  72.3862873
  32.2905816 128.0522115  72.3341921  32.8600012 126.1324997  71.5969988
  31.8540904 125.7287634  71.6901734  33.5377783 125.3248931  71.8707995
  33.1100012 126.5274997  70.1589988  33.5423324 125.6692076  69.6493681
  33.8739435 127.3045065  70.1499770  31.8970012 127.0164997  69.4079988
  32.2249283 127.5681959  68.5295706  31.3474713 127.7268549  70.0232551
  30.9710012 125.9294997  68.9629988  30.2334219 125.7301518  69.7365984
  31.5316763 125.0057874  68.8323501  30.2700012 126.2694997  67.6389988
  31.0010245 126.4953882  66.8645111  29.6341188 127.1464275  67.7222165
  29.4180012 125.0724997  67.1559988  28.8349216 124.7332174  68.0058522
  30.1223172 124.2789294  66.9208876  28.5060012 125.2674997  65.9769988
  29.0618256 125.6383956  65.1252145  27.7241152 125.9778571  66.2180709
  27.4830012 126.4264997  66.3329988  26.5880012 126.3064997  67.1579988
  27.7700012 127.4884997  65.5439988  26.7940012 128.5084997  65.4239988
  26.1026509 128.4090802  66.2471711  26.2825686 128.2706307  64.5025612
  27.3800012 129.9564997  65.3809988  26.5886869 130.6872501  65.3541748
  28.2740012 130.1054997  64.1319988  28.3691226 131.1615301  63.9185681
  27.7331922 129.6348628  63.3204499  29.5730012 129.5034997  64.2849988
  30.6450012 129.7534997  63.1509988  31.1890012 128.3184997  62.9429988
  31.4900012 127.5584997  64.1019988  31.2565034 126.5173014  63.9215163
  30.8246268 127.8906215  64.8936863  32.8590012 127.7094997  64.6549988
  33.0690620 126.9953976  65.4412440  32.9431188 128.7073824  65.0606232
  34.0370012 127.5634997  63.6169988  33.9590012 126.2144997  62.9679988
  33.8887798 125.4625787  63.7419612  34.8640452 126.0661770  62.3979149
  33.1061483 126.1927033  62.3062707  34.1040012 128.5824997  62.5389988
  34.0393866 129.5615777  62.9883818  33.2991331 128.4139522  61.8460708
  35.0560681 128.4648544  62.0419826  35.3040012 127.6074997  64.3939988
  35.3542001 128.5378274  64.9399405  36.1397586 127.5414961  63.7137025
  35.3331198 126.7763473  65.0837616  29.9840012 130.1834997  61.8599988
  31.7680012 130.6004997  63.6669988  28.2580012 130.1934997  66.5269988
  27.5770012 130.4084997  67.6879988  26.3670012 130.4114997  67.8169988
  28.5610012 130.6114997  68.8609988  29.0538386 129.6525449  68.9837589
  29.3290445 131.2983988  68.5143201  27.9390012 131.0964997  70.1499988
  27.4692051 132.0548216  69.9577186  27.1372222 130.4194271  70.4270479
  28.9470012 131.2484997  71.3469988  29.7746244 131.8618130  70.9998094
  28.4360015 131.8320531  72.1088451  29.5000012 129.9134997  72.0159988
  30.1613985 129.4760648  71.2704048  30.1355249 130.2215535  72.8426876
  28.5300012 128.8114997  72.5139988  27.7016570 129.3231563  72.9997502
  28.1180062 128.3508690  71.6181971  29.0680012 127.6794997  73.4579988
  29.9041125 127.1880777  72.9628996  29.4670428 128.1229649  74.3659758
  28.0300012 126.6394997  73.8409988  27.8459740 125.9936808  72.9903332
  28.4486868 126.0061830  74.6219970  26.7260012 127.2574997  74.3579988
  26.2749075 127.9906551  73.7064225  26.0740012 126.9784997  75.5279988
  25.1446224 127.4740896  75.7693609  26.5390012 125.9894997  76.5799988
  25.6910297 125.4638200  77.0156894  27.2095633 125.2248496  76.2040498
  27.2500012 126.7904997  77.7119988  27.6224985 126.1194924  78.4851094
  28.1209067 127.3079698  77.3142461  26.2820012 127.8324997  78.3499988
  25.9555979 128.5442751  77.5917484  25.3833757 127.3397532  78.7107997
  26.9600012 128.6094997  79.5289988  27.1452076 127.9558024  80.3784241
  27.9278567 129.0167324  79.2417668  26.0490012 129.7364997  79.9369988
  25.8706135 130.4155961  79.1053764  25.0699264 129.3775432  80.2422657
  26.7030012 130.5564997  81.0949988  27.7366408 130.7999720  80.8558475
  26.1906678 131.5082952  81.2231932  26.6760012 129.8074997  82.4289988
  25.6553080 129.6164716  82.7508818  27.1315737 128.8290360  82.2934426
  27.4430012 130.5654997  83.5569988  27.4813847 129.9700838  84.4642339
  26.9685650 131.5084678  83.8069237  28.4653124 130.7794802  83.2582796
 118.4970012  14.3244997  84.3579988 119.1804379  14.0417091  85.1525884
 118.6408075  13.6306687  83.5347683 117.4847648  14.1891774  84.7290477
 118.7270012  15.7454997  83.9189988 119.7560644  15.8527569  83.5802838
 118.6188997  16.4009038  84.7789834 117.7740012  16.1884997  82.7919988
 116.7579391  15.8494837  82.9935307 118.0673390  15.7201678  81.8545612
 117.7700012  17.7274997  82.5929988 117.9934734  18.1947300  83.5495582
 116.7636483  18.0484623  82.3285316 118.7470012  18.2444997  81.5629988
 119.7394574  17.8970143  81.8384213 118.7663830  19.3291118  81.6557661
 118.4680012  17.8554997  80.0579988 117.5390360  18.2951879  79.6995088
 118.3612871  16.7794645  79.9382595 119.6690012  18.3644997  79.1589988
 119.5686746  17.9740416  78.1479364 120.6116409  17.9767009  79.5427598
 119.7370012  19.9204997  79.1049988 119.5358760  20.2655171  80.1183904
 118.8888639  20.2388133  78.5016551 121.0290012  20.6074997  78.5759988
 121.9184033  20.0193065  78.7917153 121.1894470  21.5808989  79.0378732
 120.8910012  20.7854997  77.0449988 121.2963647  21.7545499  76.7622956
 119.8346351  20.8069929  76.7784323 121.5750012  19.6944997  76.2669988
 121.0928936  18.7499453  76.5097544 122.6036435  19.6062827  76.6123112
 121.5660012  19.8604997  74.7719988 122.0922753  18.9877802  74.3930326
 122.2175491  20.7124781  74.5868283 120.2310012  20.0704997  73.9809988
 120.4426000  20.4882872  72.9981806 119.5782083  20.7814561  74.4796734
 119.4320012  18.6774997  73.7699988 119.1279380  18.3163047  74.7469475
 120.1488585  17.9604817  73.3787281 118.1960012  18.7054997  72.8279988
 118.4694460  19.0947770  71.8555112 117.4166349  19.3312441  73.2464498
 118.6140012  18.6714997  71.3849988 119.7580012  18.7624997  70.9309988
 117.5200012  18.6484997  70.6729988 117.6800012  18.5264997  69.1969988
 116.9507814  17.7981916  68.8756455 118.6713587  18.1279488  69.0371260
 117.4850012  19.8624997  68.4229988 116.4430396  20.1367244  68.4197036
 118.0330012  19.8434997  66.9619988 117.7942016  20.8059484  66.5301791
 117.4509420  19.0826673  66.4570965 119.4320012  19.5694997  66.8319988
 119.9140012  19.6264997  65.2839988 119.4190012  18.2164997  64.6999988
 118.2980012  18.2964997  63.7859988 117.4883620  18.9305532  64.1231181
 117.8660373  17.3170362  63.6020000 118.8500012  18.7774997  62.3819988
 119.4657588  19.6555589  62.5306714 117.9916931  19.0521118  61.7859513
 119.6770012  17.8324997  61.5149988 118.8990012  16.5754997  61.4799988
 118.6555222  16.2918190  62.4946796 119.5166101  15.8138650  61.0277026
 118.0139663  16.7276659  60.8806026 119.8120012  18.2114997  60.0669988
 120.1203809  19.2441684  60.0103300 118.8693502  18.0549527  59.5737723
 120.5701408  17.5740283  59.6355461 121.0250012  17.6014997  62.2159988
 121.5209157  18.5506610  62.3547200 121.6383698  16.9589218  61.6023845
 120.8571876  17.1326558  63.1748831 119.2220012  20.7114997  64.6169988
 121.3480012  19.5544997  65.3029988 118.2270012  20.8364997  69.1729988
 117.6000012  21.9484997  69.3439988 116.4390012  22.1894997  68.9639988
 118.6270012  22.9374997  69.9649988 119.4144549  22.3713378  70.4517538
 119.1170871  23.5254310  69.1929498 117.8570012  23.8604997  70.9749988
 118.3469238  24.8273975  71.0088416 116.8536181  24.0452758  70.6047107
 117.7910012  23.2884997  72.3769988 117.1775277  22.3911797  72.3880062
 118.7874703  22.9782039  72.6816803 117.2640012  24.2934997  73.3919988
 117.9424425  25.1442146  73.4185980 116.3016518  24.6822560  73.0680325
 117.1220012  23.7444997  74.8179988 118.0454784  23.2515746  75.1148416
 116.9898717  24.5787700  75.5042318 115.9510012  22.7764997  74.9939988
 114.9955119  23.2937131  74.9216700 115.9371494  21.9993357  74.2349584
 116.0650012  22.1174997  76.3649988 115.6672854  21.1093635  76.3570215
 117.1081458  22.0333117  76.6668391 115.3420012  22.9784997  77.3669988
 114.3438667  23.3108147  77.1244122 115.8530012  23.3664997  78.5829988
 115.2395819  23.9875374  79.2198967 117.2020012  23.0254997  79.1699988
 117.0457840  22.5309028  80.1271775 117.7410972  22.3196647  78.5480233
 118.0810012  24.2754997  79.4089988 118.3794379  24.7004215  78.4513548
 117.4837128  25.0375731  79.9059391 119.3440012  23.9814997  80.2609988
 119.8825886  23.1486149  79.8089661 120.0123547  24.8368133  80.2136063
 119.0520012  23.6624997  81.6749988 118.2690206  24.3486418  81.9901105
 118.6101182  22.6677598  81.6928055 120.2020012  23.7124997  82.6479988
 120.9979472  23.0843089  82.2524786 120.5985925  24.7240705  82.6560487
 119.8980012  23.2394997  84.1229988 120.7218553  23.4678937  84.7967818
 119.0246990  23.7442124  84.5321960 119.6360012  21.6684997  84.1579988
 119.3465407  21.3474193  83.1604843 120.5996198  21.2021318  84.3510095
 118.6270012  21.1444997  85.1719988 118.5987757  20.0590625  85.1620697
 117.6225816  21.4976669  84.9642601 118.8858108  21.4594630  86.1789529
   3.7430012  99.9674997  80.5139988   3.0660636 100.7720354  80.7840111
   4.6741844 100.1237945  81.0508970   3.3097230  99.0372477  80.8710887
   3.9750012  99.9214997  79.0119988   4.3939653 100.8647001  78.6655237
   3.0284034  99.7989439  78.4926273   4.9550012  98.7504997  78.6339988
   4.4011788  97.8161341  78.7243907   5.7242452  98.7202086  79.4031002
   5.6500012  98.8024997  77.2429988   6.2124877  99.7313565  77.1790928
   4.8872265  98.8580620  76.4678900   6.5690012  97.6684997  76.9499988
   6.1408614  96.7229853  77.2729106   7.5010583  97.7856548  77.5003705
   6.8760012  97.5884997  75.4419988   7.5232131  98.4187099  75.1650787
   5.9530835  97.7223408  74.8817430   7.5180012  96.3054997  75.0329988
   6.9346174  95.4689778  75.4133468   8.5007740  96.2263964  75.4957409
   7.6660012  96.1684997  73.4759988   6.6512003  96.2324893  73.0854408
   7.9924047  95.1439130  73.3075742   8.5580012  97.1084997  72.7009988
   9.3878916  97.3873411  73.3468086   7.9966737  98.0235084  72.5159380
   9.1100012  96.5694997  71.3619988   9.4307575  95.5326282  71.4348814
   9.9743013  97.1323789  71.0104577   8.0160012  96.6924997  70.3749988
   7.8017585  97.7430623  70.1907186   7.0965352  96.2607265  70.7665116
   8.3540012  96.0334997  69.0489988   8.2336299  94.9645972  69.2076723
   9.4191964  96.2006529  68.9003752   7.6200012  96.4594997  67.7999988
   7.9476114  95.8258432  66.9775616   7.9035861  97.4739633  67.5340719
   6.0640012  96.3714997  67.8849988   5.6495688  96.8843325  67.0232603
   5.7612264  96.9363121  68.7627268   5.4410012  94.9294997  67.9779988
   5.8655378  94.3863907  68.8127695   5.6351546  94.3750316  67.0675381
   3.8790012  95.0284997  68.1749988   3.2170012  94.0204997  67.9629988
   3.4260012  96.2504997  68.3709988   2.0620012  96.5514997  68.0709988
   1.8158481  97.2028727  68.8959738   1.4338122  95.6736190  68.1145434
   1.8720012  97.3314997  66.6639988   0.8425722  97.6193471  66.5286702
   2.3340012  96.4584997  65.4749988   1.6973892  95.5859392  65.4187454
   3.3442840  96.1372248  65.6956704   2.3000012  97.1724997  64.2609988
   3.3810012  97.3634997  63.2019988   4.4790012  97.9854997  64.1439988
   4.8200012  99.3654997  64.0379988   4.9275352  99.8492065  65.0001074
   4.0412037  99.9053875  63.5071573   6.0630012  99.5404997  63.2019988
   6.3482508 100.5836068  63.2549994   5.8218659  99.2980557  62.1770833
   7.2960012  98.7654997  63.5269988   7.7450012  99.0864997  64.9389988
   7.8016031 100.1609183  65.0474183   8.7239671  98.6543122  65.0837042
   7.0480713  98.6471140  65.6368139   7.0690012  97.2404997  63.4279988
   6.6021953  97.0243576  62.4792686   6.4533749  96.9230717  64.2505641
   8.0379646  96.7655412  63.4811146   8.3640012  99.2104997  62.5089988
   8.0049602  99.0165253  61.5092260   9.2725729  98.6534440  62.6817311
   8.5591869 100.2663660  62.6293474   3.8080012  96.0704997  62.6889988
   3.0350012  98.4824997  62.2429988   2.5620012  98.5414997  66.8689988
   1.9000012  99.5354997  67.4479988   0.7310012  99.4684997  67.7899988
   2.8780012 100.7804997  67.4279988   3.8962536 100.4054603  67.4357714
   2.7674696 101.3215501  66.4915404   2.5930012 101.6904997  68.6279988
   2.5617006 102.7111174  68.2627307   1.5933603 101.4700880  68.9887895
   3.5790012 101.6034997  69.7659988   4.5814897 101.7254888  69.3637684
   3.4062810 102.4590820  70.4142361   3.5020012 100.2984997  70.6299988
   3.6287534  99.4401375  69.9728426   4.3286355 100.2657773  71.3355531
   2.1780012 100.1254997  71.4049988   1.9425954 101.0439305  71.9388246
   1.3701584  99.9742600  70.6916281   2.1870012  98.9274997  72.4119988
   2.9297020  99.1415498  73.1789922   1.2269128  98.8839180  72.9186042
   2.4860012  97.5174997  71.7769988   2.2773198  97.5724511  70.7149195
   3.5551867  97.3318002  71.8702936   1.7430012  96.3784997  72.4169988
   0.7922107  96.0564775  72.0196914   2.2160012  95.7154997  73.4729988
   1.6863192  94.8632200  73.8738309   3.5310012  96.0584997  74.2299988
   4.3678378  95.5813305  73.7228154   3.7413585  97.1221849  74.2278909
   3.4920012  95.5344997  75.7189988   3.2228573  94.4789158  75.7220571
   4.4960320  95.5926346  76.1349331   2.5610012  96.2834997  76.5899988
   2.8782761  97.3238440  76.6616036   1.5658655  96.2988343  76.1541389
   2.4880012  95.6354997  78.0969988   2.1222658  94.6136200  78.0252722
   3.4913447  95.5709513  78.5143957   1.6060012  96.4364997  79.0369988
   1.9009835  97.4829608  78.9870528   0.5780018  96.4009294  78.6868888
   1.6770012  95.9924997  80.5169988   2.7111777  96.0101028  80.8561919
   1.1434468  96.7097047  81.1381032   1.1100012  94.6184997  80.7779988
   0.1581544  94.5838996  80.2538751   1.7729186  93.9508722  80.2319886
   0.9280012  94.0744997  82.2079988   0.5915168  93.0422986  82.1877911
   0.1946722  94.6445020  82.7684155   1.8630665  94.1068439  82.7600383
  30.3100012  19.2024997  84.9479988  30.8241358  19.2256209  85.9038021
  30.1801152  18.1614252  84.6667807  29.3215551  19.6294038  85.0940788
  31.1000012  19.9824997  83.8639988  32.0924866  19.5448432  83.7710875
  31.2471236  21.0014231  84.2117976  30.4150012  19.9874997  82.4779988
  30.9354341  20.6615878  81.7977902  29.4023720  20.3751879  82.5699286
  30.3450012  18.5804997  81.8459988  29.6119949  17.9714179  82.3703758
  31.2963941  18.0604513  81.9465333  29.9610012  18.6464997  80.3799988
  29.8606843  17.6276890  80.0145753  30.8058413  19.0802488  79.8475780
  28.7010012  19.4194997  80.0339988  28.8859010  20.4921724  80.0325085
  27.9186473  19.2467470  80.7699716  28.1870012  18.9814997  78.6219988
  27.2009874  19.3951046  78.4183379  28.0812594  17.8991691  78.5619211
  29.1790012  19.4604997  77.5289988  30.1989343  19.1989607  77.8078979
  29.1546689  20.5456970  77.4487571  28.8450012  18.8264997  76.1199988
  27.7991346  19.0123438  75.8851243  28.9547557  17.7444613  76.1810227
  29.6840012  19.3364997  75.0339988  30.6990912  18.9639414  75.1527066
  29.7482414  20.4225224  75.0961017  29.1220012  18.9304997  73.6159988
  28.7685870  17.9021298  73.6490875  29.9207131  18.9519139  72.8765877
  27.9790012  19.8144997  73.1449988  28.2523734  20.8639388  73.2235101
  27.1128455  19.6769984  73.7896210  27.5700012  19.4764997  71.6859988
  26.5559327  19.8561732  71.5730157  27.4984220  18.3942775  71.6231848
  28.3850012  19.9814997  70.5299988  27.9212864  19.6708384  69.5995133
  29.3612831  19.5056433  70.5690663  28.5880012  21.5354997  70.5109988
  29.0196391  21.8727319  71.4448103  27.6393808  22.0382937  70.3647575
  28.8180012  22.0734997  69.1769988  28.1640012  23.0104997  68.7769988
  29.9490012  21.5964997  68.6359988  30.3350012  21.9374997  67.2649988
  30.8269629  22.8983775  67.2772211  29.4454848  22.0038807  66.6554528
  31.2900012  20.8564997  66.7299988  31.6783532  21.0644166  65.7467149
  30.4850012  19.5434997  66.7079988  29.5593287  19.6571561  66.1602638
  30.2532794  19.2445573  67.7226531  31.3360012  18.5514997  66.0689988
  31.4550012  18.2524997  64.5229988  30.7330012  19.5074997  63.8239988
  30.1810012  19.4044997  62.5609988  30.1260292  18.3846394  62.2031549
  30.7817947  19.9518024  61.8403713  28.7970012  20.0774997  62.5269988
  28.2200851  19.6862098  63.3554365  28.3230880  19.7801757  61.6026710
  28.6460012  21.6814997  62.6059988  28.7510012  22.2104997  63.9449988
  28.0728823  21.6642492  64.5861690  28.4646256  23.2512773  63.9154881
  29.7751643  22.1256297  64.2760638  29.6630012  22.4174997  61.7369988
  29.6417180  21.9887742  60.7468192  30.6370070  22.3273419  62.1837137
  29.3640235  23.4549997  61.6982306  27.2470012  22.0074997  62.0879988
  27.1446384  21.6328277  61.0804151  27.1078769  23.0781439  62.0919228
  26.5088664  21.5449288  62.7272329  32.8660012  18.2264997  64.1279988
  30.7130012  17.0144997  64.1729988  32.3920012  20.7604997  67.6259988
  33.2700012  21.8404997  67.6119988  33.3570012  22.6434997  66.7349988
  33.9460012  21.9274997  68.9729988  34.1031870  20.9206789  69.3460371
  34.9355712  22.3677941  68.8791965  33.0450012  22.7694997  69.9279988
  33.0058854  23.7671329  69.5046090  32.0399780  22.3683205  69.8442334
  33.4580012  22.8694997  71.4509988  33.6405774  21.8768547  71.8547016
  34.4005528  23.4059669  71.5275772  32.4400012  23.5774997  72.2769988
  32.3055039  24.5776879  71.8692734  31.4775880  23.0799571  72.1852696
  32.7980012  23.7084997  73.7929988  33.0403372  22.7382889  74.2217938
  33.6869368  24.3242895  73.9153806  31.6660012  24.3334997  74.5749988
  31.4574047  25.3248071  74.1756267  30.7547541  23.7550661  74.4510577
  31.9790012  24.4464997  76.0869988  32.9318477  24.9456724  76.2192489
  31.2302170  25.0868841  76.5513004  31.9660012  23.1504997  76.7589988
  32.3663468  22.3273784  76.1865052  31.5250012  22.8754997  78.0079988
  31.5920266  21.8490825  78.3390355  30.9250012  23.8444997  79.0649988
  30.1652834  24.4301861  78.5501965  30.4040219  23.2716606  79.8240225
  31.9140012  24.8254997  79.7479988  32.4280556  25.3779812  78.9623670
  31.3168946  25.5555211  80.2911299  32.9560012  24.2044997  80.7089988
  33.5208538  23.4460318  80.1669887  33.6728678  24.9679439  80.9984105
  32.3710012  23.6034997  81.9109988  31.4741384  24.1492061  82.1955805
  32.0538011  22.5824003  81.7064866  33.3860012  23.5984997  83.0899988
  34.0581515  22.7604108  82.9156115  33.9945109  24.4929740  82.9887241
  32.8210012  23.4784997  84.6109988  32.2259927  24.3451313  84.8934833
  32.1714311  22.6136509  84.7331847  34.0140012  23.3474997  85.6119988
  34.6112277  24.2531547  85.5411159  33.5723438  23.3613117  86.6060113
  34.8790012  22.1894997  85.5029988  35.6084301  22.1762060  86.3072535
  35.4270816  22.1794370  84.5669178  34.3067433  21.2678753  85.5601868
  53.8850012   8.1624997  82.5569988  54.3565991   9.1394238  82.5164585
  54.4118555   7.5113367  81.8654777  54.0313374   7.7662276  83.5580813
  52.3860012   8.2494997  82.2089988  52.2300442   8.6472705  81.2076703
  51.8604803   8.9160972  82.8874452  51.7930012   6.8444997  82.2889988
  50.7088348   6.9359569  82.2245943  52.0042956   6.4626798  83.2858635
  52.2850012   5.7934997  81.2409988  51.6677974   4.9041545  81.3476504
  53.2976544   5.4908449  81.5029902  52.2530012   6.2244997  79.8259988
  52.9745214   7.0233383  79.6748749  51.2743985   6.6528897  79.6157993
  52.5460012   5.0724997  78.7979988  52.7370173   5.5656953  77.8466377
  51.6077343   4.5348711  78.6788861  53.7000012   4.0434997  79.0909988
  53.5144740   3.1362796  78.5188962  53.6552052   3.7558513  80.1405138
  55.1060012   4.5664997  78.7689988  55.8251007   3.8057838  79.0700936
  55.2970186   5.4321660  79.4005193  55.3530012   4.9434997  77.3109988
  54.7697260   5.8191664  77.0343421  55.0332477   4.1430047  76.6450089
  56.8210012   5.2264997  77.0819988  57.4061658   4.5069142  77.6503983
  57.0596853   6.2069332  77.4933489  57.2510012   5.1844997  75.5329988
  56.8618724   4.2597107  75.1124216  58.3357096   5.1049470  75.4860209
  56.7910012   6.3474997  74.6489988  57.1062656   7.3071116  75.0514565
  55.7050648   6.3861406  74.5863956  57.3520012   6.1574997  73.2479988
  57.6144847   5.1067776  73.1369246  58.2806041   6.7141900  73.1581859
  56.4460012   6.5304997  72.1119988  55.8930932   7.4042168  72.4410219
  55.7312988   5.7150143  72.0393623  57.0240012   6.7954997  70.7229988
  57.6086874   5.9482215  70.3878827  57.6604306   7.6722762  70.7400137
  56.1690012   7.6144997  69.7779988  54.9640012   7.7864997  69.9199988
  56.8950012   7.9134997  68.7409988  56.2930012   8.5814997  67.6199988
  57.1149357   9.1997572  67.2919085  55.4380955   9.2097031  67.8241773
  55.9420012   7.4734997  66.4959988  56.8542323   6.9022099  66.4474568
  55.6220012   8.0834997  65.0929988  56.3621215   8.8338453  64.8500908
  54.6522069   8.5609003  65.1575958  55.6060012   7.0324997  64.0759988
  55.2320012   7.6384997  62.6249988  53.8880012   8.3204997  62.7979988
  52.7050012   7.5694997  63.0549988  52.8210978   6.8998708  63.8972029
  52.4742627   6.9464969  62.1956826  51.4470012   8.4994997  63.2409988
  50.6176356   7.8114136  63.3455900  51.3350069   9.0397254  62.3120260
  51.2760012   9.5064997  64.3219988  51.0270012   8.8434997  65.6639988
  50.2216612   8.1304988  65.5526827  50.7385226   9.6112034  66.3665022
  51.9395788   8.3721129  65.9967352  52.3940012  10.4984997  64.4829988
  52.6171705  10.9232535  63.5163067  53.2498325   9.9983277  64.8998329
  52.0472831  11.2696416  65.1556232  50.0740012  10.2724997  63.8149988
  50.2980706  10.6818238  62.8411771  49.8490841  11.0746310  64.5017649
  49.2253218   9.6073568  63.7459818  56.2550012   8.6894997  62.3429988
  55.0670012   6.4794997  61.7599988  54.9380012   6.5934997  66.9729988
  54.9690012   5.2904997  66.6129988  55.8590012   4.7584997  66.0229988
  53.8700012   4.5654997  67.3269988  52.9939069   4.6394350  66.6909599
  54.1257765   3.5093559  67.3593447  53.6110012   5.0994997  68.7009988
  54.3947927   4.8159895  69.3947954  53.5683349   6.1838058  68.7231974
  52.2700012   4.5124997  69.1869988  51.5011951   4.9082670  68.5282428
  52.3242815   3.4459429  68.9830986  51.8530012   4.7134997  70.6769988
  51.9962568   3.7912985  71.2371137  52.4594933   5.4675351  71.1727808
  50.3770012   5.1174997  70.7819988  50.2485985   6.0000337  70.1586630
  49.8129731   4.3214348  70.2997809  49.7630012   5.3824997  72.1819988
  48.6799903   5.3640947  72.0704203  50.0182624   4.5512623  72.8333083
  50.1820012   6.6964997  72.8719988  49.6660524   6.6330846  73.8229748
  51.2363186   6.5224378  73.0828618  50.0300012   8.0894997  72.2529988
  49.0408743   8.4778133  72.0622250  51.0900012   8.8964997  71.9319988
  50.8943529   9.8429131  71.4486425  52.5000012   8.6334997  72.1719988
  52.7576133   7.6953158  71.6834622  53.1249374   9.3940603  71.7173745
  52.8690012   8.5034997  73.7489988  52.4998826   7.5279443  74.0632412
  53.9549976   8.4435948  73.7874974  52.3970012   9.5544997  74.7169988
  52.6955116  10.5131712  74.2927966  51.3109781   9.5356721  74.6904768
  52.8700012   9.4764997  76.1609988  52.3543767  10.2667040  76.7021581
  52.5032488   8.5372951  76.5714528  54.3700012   9.5764997  76.3999988
  54.9094398   8.9169830  75.7227737  54.7383902  10.5779594  76.1950771
  54.7260012   9.1684997  77.8419988  54.1966342   9.8368538  78.5187234
  54.3155460   8.1755184  78.0162081  56.2000012   9.1564997  78.2279988
  56.7032187   8.4300305  77.5948087  56.5912345  10.1276404  77.9328120
  56.5690012   8.9024997  79.6819988  57.6391971   9.0082896  79.8321925
  56.2931146   7.9033146  80.0017751  56.0711710   9.6088386  80.3403235
 125.3370012  19.7324997  85.4639988 125.4345814  18.6684052  85.2726610
 124.3570241  20.0435855  85.1137695 125.3630686  19.8784339  86.5403982
 126.4250012  20.5084997  84.7889988 126.3875786  20.3176140  83.7178474
 127.3864183  20.1358693  85.1319821 126.3250012  22.0394997  85.0389988
 126.0966065  22.2368212  86.0862949 125.4939008  22.4478581  84.4674338
 127.5380012  22.7574997  84.6679988 128.2552474  22.5120031  85.4480880
 127.3011854  23.8124329  84.7973824 128.2280012  22.5444997  83.2619988
 128.5359383  21.5083421  83.1474329 129.1375033  23.1408618  83.2117687
 127.2760012  22.9364997  82.0489988 127.1238421  24.0142126  82.0348793
 126.2934553  22.4924886  82.1940324 127.8320012  22.4924997  80.7129988
 127.0278018  22.5607941  79.9826775 128.0798562  21.4350811  80.7946318
 129.0340012  23.2474997  80.2019988 129.5467022  23.5561463  81.1121229
 128.6051026  24.1513857  79.7733730 130.0450012  22.6644997  79.2309988
 130.2599915  21.6568870  79.5803367 130.9635779  23.2345349  79.3646161
 129.6760012  22.6184997  77.6829988 130.4726739  22.1282990  77.1277377
 129.6043600  23.6303345  77.2848947 128.3510012  21.8914997  77.4489988
 127.5413522  22.5722047  77.7032629 128.2776724  21.0601880  78.1480494
 128.1240012  21.3874997  76.0559988 127.1657041  20.8792402  75.9814464
 128.8804499  20.6497645  75.7948434 128.1890012  22.4934997  75.0829988
 129.1969099  22.8978671  75.0064552 127.5447708  23.3291654  75.3416568
 127.7900012  21.9644997  73.7119988 126.8465844  21.4357394  73.7998761
 128.5339499  21.2322436  73.4096193 127.6710012  23.0434997  72.5909988
 128.5916927  23.6069687  72.5081083 126.8620526  23.7296837  72.8119572
 126.7050012  22.7394997  71.4089988 125.5760012  22.2934997  71.6219988
 127.2470012  22.9694997  70.2489988 126.4350012  22.7164997  69.0609988
 126.0058981  21.7547661  69.2984880 127.1150686  22.6040848  68.2290954
 125.2680012  23.7804997  68.7149988 124.5339478  23.6429987  69.4916281
 124.6100012  23.5364997  67.3089988 123.7509266  24.1774827  67.1643179
 124.2885801  22.5047432  67.2400629 125.5950012  23.8084997  66.3429988
 125.1880012  24.2684997  64.8839988 126.6720012  24.4534997  64.2209988
 127.7780012  23.5704997  64.3699988 127.4896938  22.6613789  64.8814353
 128.5302337  24.0480547  64.9911947 128.5160012  23.2444997  62.9959988
 129.1734740  22.4131082  63.2168305 129.1035742  24.0517301  62.5830654
 127.5900012  22.7574997  61.8439988 126.6700012  23.8384997  61.2509988
 126.1419385  24.3242107  62.0600529 125.9630514  23.3516116  60.5958178
 127.2685784  24.5358327  60.6842986 128.5410012  22.2164997  60.8099988
 129.2251571  21.5375677  61.2954841 129.0617414  23.0365386  60.3487660
 127.9521065  21.6868543  60.0751682 126.8020012  21.5814997  62.3339988
 127.4820733  20.8038211  62.6483234 126.1776130  21.2144522  61.5333331
 126.1822649  21.8839407  63.1657988 124.4970012  23.1284997  64.2089988
 124.4850012  25.6234997  64.9209988 125.7540012  25.1234997  68.7629988
 124.8790012  26.1364997  68.7869988 123.6920012  26.0184997  68.7959988
 125.5670012  27.5034997  68.6209988 125.9758501  27.4825338  67.6160331
 124.7739699  28.2469509  68.6040090 126.6450012  27.8604997  69.6789988
 127.4370324  27.1320976  69.5441733 127.0607888  28.8157513  69.3746174
 126.2560012  27.9104997  71.1619988 127.1563041  28.1592340  71.7180922
 125.5882895  28.7617505  71.2696936 125.5810012  26.6784997  71.7779988
 124.7071543  26.4134683  71.1856678 126.2421544  25.8158753  71.7470529
 125.1260012  26.9084997  73.2429988 125.9869780  26.8049492  73.9001876
 124.7962428  27.9414240  73.3363146 123.9720012  25.9654997  73.7429988
 123.9681892  26.0869761  74.8250939 123.0498083  26.4115537  73.3811781
 123.9610012  24.4584997  73.3979988 124.1043407  24.2764196  72.3392823
 124.7604994  23.9263194  73.9117427 122.6160012  23.9024997  73.8769988
 121.6911479  24.3242184  73.5131941 122.5250012  22.8974997  74.7249988
 121.5089649  22.5929729  74.9312604 123.5980012  22.0694997  75.4769988
 123.2148416  21.0576824  75.5979763 124.5042147  21.9825048  74.8880252
 123.9450012  22.6224997  76.8699988 123.0223533  22.6446585  77.4487343
 124.5857182  21.8845644  77.3489480 124.6440012  24.0394997  76.9369988
 125.6009062  24.0044781  76.4162174 124.0432709  24.7818790  76.4188289
 124.8800012  24.5014997  78.4269988 123.9215437  24.6888808  78.9059483
 125.3532649  23.7028563  78.9955718 125.7610012  25.7674997  78.4979988
 126.7342515  25.5329793  78.0709460 125.3328796  26.5339112  77.8577252
 125.9800012  26.3094997  79.8629988 125.0146801  26.4242521  80.3527641
 126.5280464  25.5711267  80.4454812 126.7470012  27.6774997  79.9449988
 127.8065836  27.5084648  79.7699925 126.4040636  28.2908166  79.1146078
 126.5620012  28.4754997  81.2639988 127.0518998  29.4425290  81.2013690
 126.9823656  27.9527959  82.1165335 125.5098615  28.6504506  81.4702397
  12.8240012  37.0084997  81.9439988  13.0013876  37.1897624  82.9995114
  12.5042348  37.9449865  81.4961908  13.7732780  36.7349540  81.4916070
  11.7610012  35.8914997  81.7329988  10.8561087  36.2085650  82.2485977
  12.1207599  35.0123205  82.2606650  11.4180012  35.5344997  80.2949988
  12.3663994  35.3643214  79.7855783  10.9987469  36.4380743  79.8568780
  10.4500012  34.3424997  79.9949988   9.4211944  34.6851286  80.0810915
  10.5719761  33.5631171  80.7455924  10.6470012  33.7504997  78.6249988
  10.1596188  32.7794906  78.5907526  11.7111375  33.5631035  78.4913515
  10.0930012  34.6734997  77.3669988  10.5921190  35.6390263  77.4257917
   9.0367432  34.8659414  77.5426756  10.2800012  34.0754997  75.9119988
  10.1108498  33.0006119  75.9398214  11.3132541  34.2128117  75.5961448
   9.3300012  34.7184997  74.8569988   8.3161636  34.6497318  75.2492428
   9.3558577  34.0888751  73.9695370   9.6190012  36.1674997  74.4559988
   9.8254885  36.7487239  75.3521474   8.7217644  36.5992346  74.0142431
  10.7890012  36.3154997  73.4729988  10.4139143  36.2114211  72.4572348
  11.4918911  35.4966547  73.6242194  11.5550012  37.6954997  73.6299988
  12.3233806  37.5587243  74.3879080  10.8575398  38.4265598  74.0352478
  12.2180012  38.2724997  72.3659988  12.3913453  39.3280755  72.5607563
  11.4668982  38.2278764  71.5795364  13.5050012  37.6114997  71.8529988
  14.1755609  37.4875993  72.7016744  14.0052654  38.2886084  71.1663158
  13.3470012  36.2994997  71.2039988  12.4354275  36.3585313  70.6184274
  13.1553693  35.6015510  72.0147002  14.4780012  35.7314997  70.3249988
  15.4069507  35.6946855  70.8797406  14.6212919  36.3508290  69.4475206
  14.3230012  34.2694997  69.9709988  14.3940012  33.2384997  70.6689988
  14.1830012  34.2364997  68.6049988  14.0970012  32.8844997  68.0379988
  13.8769876  32.2244246  68.8634423  15.0363697  32.5913680  67.5920699
  12.9750012  32.8424997  67.0179988  12.8645912  31.8300816  66.6662697
  13.2440012  33.8144997  65.7899988  12.4238354  33.7307747  65.0899136
  14.1500329  33.4725979  65.3054427  13.3850012  35.0974997  66.2039988
  13.8240012  36.2524997  65.2209988  13.2510012  35.9634997  63.7699988
  12.0060012  36.5634997  63.4109988  11.9921248  37.6313660  63.5860927
  11.2042002  36.1425922  64.0107897  11.6360012  36.2394997  61.9619988
  12.4985956  36.2879581  61.3094410  10.9026566  36.9564495  61.6220492
  11.0120012  34.8544997  61.7279988  11.9990012  33.7944997  62.1349988
  12.9439550  33.9983049  61.6503756  11.6185419  32.8399135  61.8031613
  12.0895194  33.7944361  63.2108814   9.8920012  34.7804997  62.6369988
   9.2956908  35.6723009  62.5194465  10.2615084  34.6841858  63.6422639
   9.3132614  33.9092492  62.3662961  10.7330012  34.6444997  60.2669988
  10.0685907  35.4203662  59.9167535  10.2674014  33.6801061  60.1298423
  11.6605585  34.6797833  59.7139821  13.2830012  37.5104997  65.7469988
  15.3040012  36.1504997  65.0989988  11.7540012  33.2164997  67.7059988
  10.6950012  32.4814997  67.3959988  10.5950012  31.6494997  66.4949988
   9.6080012  32.9014997  68.3899988   9.8642111  33.8583649  68.8330770
   8.6487208  33.0480168  67.8998754   9.5260012  31.7724997  69.4529988
   8.6633595  31.9656049  70.0811871   9.3248228  30.8334276  68.9473271
  10.7400012  31.6344997  70.3169988  11.5606423  31.1678191  69.7781005
  11.0970687  32.6146383  70.6234232  10.4030012  30.8134997  71.5849988
   9.5019338  31.2382185  72.0236301  10.1503329  29.7959141  71.2971093
  11.4760012  30.7674997  72.6519988  12.3145537  30.1535778  72.3297712
  11.8770524  31.7657344  72.8165175  10.9310012  30.2274997  73.9919988
   9.9354810  30.6227885  74.1879258  10.8344216  29.1454372  73.9805472
  11.8670012  30.6234997  75.1369988  12.0254112  31.6933023  75.0662269
  11.3193794  30.4551489  76.0633434  13.1910012  29.8764997  75.2119988
  13.2374566  28.9815928  74.6098879  14.2770012  30.1954997  75.9059988
  15.1854764  29.6107619  75.8869074  14.3510012  31.4434997  76.8099988
  13.3636530  31.6099195  77.2373966  15.0208845  31.2821035  77.6471897
  14.7770012  32.7364997  76.0469988  15.8331057  32.6779468  75.7863844
  14.2346022  32.7881412  75.1048759  14.5170012  34.0234997  76.8519988
  14.5268974  34.8625100  76.1562469  13.5101827  33.9774112  77.2578268
  15.5180012  34.2974997  77.9919988  15.3964720  33.4678633  78.6848762
  16.5074588  34.1843166  77.5523989  15.4530012  35.6054997  78.7389988
  15.4072979  36.4238614  78.0229084  14.5304278  35.6593681  79.3104719
  16.6360012  35.8464997  79.6439988  16.3476967  35.7733701  80.6910974
  17.4028777  35.0898086  79.4885860  17.2690012  37.2474997  79.4019988
  18.3105883  37.2332345  79.7131383  17.2834288  37.4159986  78.3274231
  16.5410012  38.4404997  80.0849988  16.9924776  39.3845325  79.7951023
  16.5861385  38.3773239  81.1669934  15.4932688  38.4735373  79.7998560
   9.7270012 114.7074997  79.8749988  10.3023911 115.5881325  80.1430309
  10.2096587 113.8460406  80.3274588   8.7426710 114.8065652  80.3243229
   9.6270012 114.5534997  78.3809988  10.6318643 114.4895196  77.9670427
   9.1847107 115.4571068  77.9702833   8.8250012 113.3304997  77.9429988
   7.8262981 113.4502523  78.3627374   9.2694549 112.4826541  78.4604828
   8.7080012 112.9804997  76.4349988   7.8364080 112.3340643  76.3595220
   9.5688426 112.3536179  76.2076723   8.5910012 114.0904997  75.3739988
   9.4674031 114.7305835  75.4355242   7.7375420 114.7154429  75.6317163
   8.4380012 113.5964997  73.9339988   8.2482419 114.4211203  73.2493023
   7.5937111 112.9177128  73.8340001   9.7710012 112.8444997  73.4949988
   9.8674449 111.9578013  74.1188855  10.6104116 113.4894921  73.7511332
   9.8760012 112.4394997  72.0209988   9.1940446 111.5962484  71.9194428
  10.8801770 112.0322848  71.9185737   9.6060012 113.4834997  70.8349988
  10.2524993 114.3526380  70.9358931   8.5842291 113.8583927  70.8798761
   9.8460012 112.8254997  69.4629988   9.3929770 111.8365514  69.4559747
  10.9147549 112.6727029  69.3151894   9.2830012 113.6784997  68.2859988
   9.5567446 113.2012212  67.3474835   9.7673112 114.6534631  68.2817492
   7.7540012 113.8704997  68.3049988   7.4793380 114.5929755  69.0697260
   7.2734695 112.9347022  68.5843594   7.2000012 114.3204997  66.9169988
   6.1411515 114.5510843  67.0214982   7.2645071 113.5035767  66.2037317
   7.8830012 115.5294997  66.3409988   7.3677274 115.8292201  65.4343535
   8.8885799 115.2380458  66.0495231   7.9790012 116.7374997  67.2919988
   8.4608824 116.4528712  68.2187232   6.9905615 117.1200283  67.5172276
   8.9640012 117.8934997  66.9049988   9.5970012 118.4584997  67.7459988
   9.1570012 117.9144997  65.6059988  10.2090012 118.5434997  64.9629988
  10.6551597 119.1939415  65.7001080   9.7924087 119.1443935  64.1676565
  11.2680012 117.5474997  64.4119988  12.0819232 118.1083422  63.9831857
  10.6670012 116.6024997  63.3519988  10.1569128 117.2045274  62.6122870
   9.9357871 115.9911018  63.8659089  11.6560012 115.7794997  62.7309988
  11.2870012 114.3314997  62.1709988  10.4610012 113.7184997  63.4249988
  10.9720012 113.3574997  64.6159988  10.2385727 113.5180223  65.3954243
  11.8049996 114.0189606  64.8359534  11.5670012 111.9064997  64.6919988
  12.0030216 111.7025350  65.6618098  12.3394021 111.8282344  63.9405679
  10.5580012 110.7054997  64.4089988   9.5400012 110.7634997  65.5149988
  10.0607809 110.8002134  66.4619806   8.9410174 109.8664441  65.4639131
   8.9108001 111.6283591  65.3672113   9.9250012 110.7954997  63.1079988
  10.6908629 110.9548928  62.3645180   9.2135119 111.6017483  63.1187766
   9.4228324 109.8560822  62.9273935  11.3490012 109.4304997  64.5319988
  12.1669317 109.4500851  63.8272378  10.7050198 108.5913161  64.3158761
  11.7342957 109.3406819  65.5374419  10.4680012 114.3964997  60.9449988
  12.6210012 113.6454997  62.0379988  11.7600012 116.7664997  65.4889988
  12.6180012 117.3544997  66.3249988  13.2040012 118.3954997  66.2029988
  12.6710012 116.5984997  67.6539988  11.6664060 116.2303686  67.8351648
  13.2911752 115.7159761  67.5181926  13.1720012 117.4404997  68.7869988
  13.6767188 116.7368721  69.4398612  13.9513828 118.0567048  68.3500908
  12.1770012 118.3574997  69.6669988  12.8118229 118.9408195  70.3291115
  11.7423032 119.0637350  68.9639096  11.0490012 117.7064997  70.4629988
  10.2215471 117.4307021  69.8118755  11.3600126 116.7924403  70.9629681
  10.5270012 118.6934997  71.5149988  11.2998509 118.9213155  72.2462335
  10.2716626 119.6386490  71.0397347   9.3190012 118.1714997  72.2179988
   8.6546609 119.0241190  72.3498826   8.8160681 117.4939512  71.5336711
   9.5130012 117.4284997  73.6249988   8.6842418 116.7386957  73.7341241
  10.4100472 116.8178420  73.5314485   9.6530012 118.3074997  74.8429988
   8.7264808 118.7608976  75.1616589  10.7960012 118.5924997  75.5999988
  10.7564072 119.2445917  76.4607068  12.1860012 118.0284997  75.3089988
  12.2501421 117.5332170  74.3416301  13.0133206 118.7283341  75.3471468
  12.3710012 116.9284997  76.4449988  11.5354508 116.2295760  76.4531435
  13.2622516 116.3334311  76.2551962  12.4970012 117.6134997  77.8579988
  13.1780480 118.4542251  77.7258514  11.5241658 118.0429129  78.0809330
  12.9610012 116.7744997  79.0349988  12.4111527 115.8360135  79.0424458
  14.0096532 116.5117188  78.9070924  12.7840012 117.4854997  80.3539988
  13.3702707 118.4023793  80.3684820  11.7512021 117.7913769  80.4967929
  13.2230012 116.6494997  81.4839988  12.5342794 115.8139144  81.5950962
  14.1906093 116.2130440  81.2430111  13.3350012 117.3574997  82.8099988
  13.8115364 116.6977478  83.5308016  14.0206421 118.1908549  82.6731466
  12.0210012 117.8914997  83.3969988  12.2066556 118.4600809  84.3032641
  11.3350543 117.0903489  83.6507217  11.5166227 118.5470405  82.6927193
  39.7540012 134.4134997  84.2409988  39.7577977 134.4923843  85.3236768
  39.4086463 135.3624136  83.8408960  40.7814873 134.2741578  83.9162402
  38.8860012 133.2834997  83.7809988  37.8834392 133.4555220  84.1689173
  39.2479476 132.3784576  84.2613191  38.8110012 133.0804997  82.2589988
  38.1999025 133.8543210  81.7945765  38.3228926 132.1347446  82.0321322
  40.2760012 133.0774997  81.5769988  40.9402556 132.4455604  82.1623780
  40.7040086 134.0781650  81.6114155  40.2730012 132.5544997  80.0659988
  39.6567538 133.1583510  79.4048061  39.9025365 131.5341954  79.9817370
  41.7940012 132.6094997  79.5539988  42.2831064 131.6601070  79.7643478
  42.3404039 133.3641550  80.1157072  41.9030012 132.9094997  78.0849988
  42.9561373 132.9775424  77.8184573  41.4770771 133.8938988  77.8958507
  41.2230012 131.8874997  77.1869988  40.2663435 131.6571041  77.6540908
  41.8183589 130.9784603  77.2492926  41.0000012 132.2314997  75.7529988
  41.9003833 132.7113161  75.3753360  40.2120361 132.9819013  75.7021528
  40.6350012 131.0544997  74.8469988  39.7221959 130.6139732  75.2419950
  41.4121753 130.2990637  74.9598962  40.4620012 131.3744997  73.3769988
  39.9157145 130.5850054  72.8653244  41.4180799 131.4619848  72.8637855
  39.6690012 132.7034997  73.2149988  40.3476568 133.5366793  73.3807008
  38.9245177 132.7557038  74.0072671  38.9400012 132.8654997  71.8279988
  38.2196711 132.0624096  71.6816332  39.6333008 132.8081453  70.9935408
  38.1710012 134.2194997  71.7579988  38.7742143 135.0983265  71.9608344
  37.3141153 134.2654472  72.4248777  37.6710012 134.2764997  70.3229988
  37.0932600 133.3917209  70.0875786  38.5055018 134.3401936  69.6347977
  37.5340012 135.7134997  69.9729988  37.7870012 136.6374997  70.6969988
  37.2160012 135.7524997  68.6489988  37.2810012 137.0404997  67.9869988
  37.2555991 137.7399545  68.8089353  36.3887941 137.1640335  67.3904269
  38.5290012 137.2574997  67.1499988  38.5841180 138.2745098  66.7985068
  38.4830012 136.2754997  65.9319988  39.1844812 136.6058490  65.1779457
  37.4834264 136.3160830  65.5175252  38.7790012 135.0064997  66.3359988
  39.9310012 134.0824997  65.7129988  39.4260012 133.9474997  64.2059988
  38.8490012 132.7404997  63.6769988  38.1174110 132.3115451  64.3492805
  39.6259386 131.9922714  63.5492500  38.2660012 132.9444997  62.3009988
  37.3968857 133.5878112  62.3561137  37.9662112 131.9899482  61.8931575
  39.1810012 133.5734997  61.2619988  39.4640012 134.9954997  61.5179988
  38.5261753 135.5126882  61.6674399  39.9663283 135.3967185  60.6503635
  40.1097767 135.0747486  62.3796313  40.4280012 132.7624997  61.1299988
  40.1514487 131.7278544  60.9968000  41.0300332 132.8984078  62.0105988
  40.9553599 133.1205042  60.2576327  38.4730012 133.4924997  59.9089988
  38.2588656 132.4589329  59.6810345  39.1164189 133.9054889  59.1466973
  37.5524168 134.0567099  59.9493246  41.2320012 134.7424997  65.7939988
  39.9300012 132.7394997  66.3339988  39.6330012 137.0454997  67.9609988
  40.7670012 137.5664997  67.5659988  41.0680012 138.2614997  66.6009988
  41.8770012 137.1744997  68.5539988  42.0272698 136.1029319  68.4720547
  42.8150689 137.6306621  68.2476466  41.5090012 137.5824997  69.9429988
  41.5083256 138.6665050  69.9745116  40.4835279 137.2763708  70.1238929
  42.4520012 137.0274997  71.1019988  42.3255370 135.9517061  71.1932624
  43.4877637 137.1875073  70.8127609  42.2100012 137.7114997  72.4779988
  42.9959309 137.3618139  73.1448873  42.3651587 138.7811755  72.3600082
  40.8260012 137.4744997  73.1789988  40.0303054 137.7290901  72.4818955
  40.7261956 136.4089429  73.3765050  40.6180012 138.2294997  74.4769988
  41.4009503 138.0157959  75.2029619  40.6070820 139.3079928  74.3464179
  39.2260012 137.7784997  75.0639988  38.8933620 138.5654782  75.7307791
  38.5257645 137.7669218  74.2298042  39.1840012 136.4014997  75.7629988
  40.0060183 136.1913996  76.4306063  38.2330012 135.4494997  75.6389988
  38.4634677 134.5842736  76.2438781  36.9670012 135.3334997  74.8749988
  37.1718914 135.8513125  73.9395252  36.8471116 134.2859464  74.6221357
  35.6220012 135.8854997  75.4559988  35.7629335 136.9431736  75.6754732
  34.8827713 135.8371307  74.6587167  35.0760012 135.1804997  76.6869988
  34.0654847 134.8623082  76.4306440  35.6589529 134.2716728  76.8082628
  35.0420012 135.9594997  78.0369988  34.3424467 136.7839551  77.9185007
  34.6134242 135.3030034  78.7922600  36.4200012 136.4974997  78.5439988
  37.1813559 135.8072979  78.1854593  36.6097386 137.4388501  78.0355854
  36.6150012 136.6704997  80.0689988  35.7658991 137.2463891  80.4326745
  36.5196879 135.6803902  80.5110763  37.8880012 137.3084997  80.5889988
  38.0479143 138.3031439  80.1803111  37.8258386 137.4380889  81.6672638
  39.0850012 136.4344997  80.2719988  39.9878832 136.8410182  80.7176619
  39.2572634 136.3546020  79.2039711  38.9481968 135.4291692  80.6602465
 113.2560012  13.2974997  80.1589988 113.4070964  13.4312226  81.2256371
 112.2319234  12.9684099  80.0081520 113.3619752  14.2698472  79.6857950
 114.2560012  12.2874997  79.5759988 114.1341926  11.3465516  80.1098362
 115.2566926  12.6423149  79.8073790 114.1270012  12.0434997  78.1289988
 114.9434207  11.4109824  77.7807029 114.2260818  12.9853777  77.5930699
 112.7990012  11.4064997  77.7439988 111.9718832  12.1079343  77.8283512
 112.5385689  10.5563329  78.3725665 112.9050012  10.9434997  76.2769988
 112.9882375   9.8601061  76.2469472 113.8316176  11.3328379  75.8584743
 111.7370012  11.3734997  75.3979988 110.8118286  11.1251337  75.9149002
 111.7508436  10.7705144  74.4925739 111.7210012  12.8554997  75.0169988
 112.6915967  13.1172250  74.5996091 111.6110800  13.4463732  75.9253026
 110.6030012  13.2524997  74.0069988 109.6396683  13.2807196  74.5145857
 110.5163436  12.4925321  73.2326450 110.8670012  14.6004997  73.3579988
 111.8914222  14.5725397  72.9928676 110.8502816  15.3386046  74.1589349
 109.9710012  15.0424997  72.2689988 110.2870273  16.0263736  71.9292657
 108.9621543  15.1648846  72.6622911 109.9360012  14.0634997  71.0849988
 109.1476250  14.3483770  70.3915661 109.6917133  13.0581962  71.4238444
 111.2990012  14.0294997  70.2989988 111.1558362  13.3301351  69.4788695
 112.0177697  13.5656889  70.9719931 111.8950012  15.3434997  69.7749988
 112.1332058  15.9847147  70.6219662 111.1613125  15.8825404  69.1822003
 113.2010012  15.1574997  68.9269988 113.0700723  14.3342103  68.2324505
 114.0091901  14.8777456  69.5975660 113.6400012  16.4604997  68.1189988
 113.7443582  17.3045505  68.7888710 112.9007120  16.7041086  67.3652248
 115.0850012  16.3894997  67.7449988 116.0130012  15.9314997  68.4479988
 115.2430012  16.8594997  66.4809988 116.4990012  16.6074997  65.8809988
 117.2122505  16.5145519  66.6860442 116.8201481  17.3941048  65.2136841
 116.3640012  15.2744997  65.1339988 117.2561469  15.1633375  64.5401866
 115.1180012  15.3064997  64.2119988 114.7942498  16.3118540  63.9790852
 114.2912533  14.7713143  64.6621650 115.5640012  14.6304997  63.0179988
 115.2790012  13.0654997  62.6579988 113.7880012  12.8504997  63.2439988
 112.6410012  13.0834997  62.3639988 112.4014345  12.2336991  61.7381907
 112.8388927  13.9142376  61.6927981 111.3760012  13.5344997  63.2269988
 110.5206612  13.4583119  62.5675764 111.4356728  14.5456695  63.6029667
 111.0580012  12.6794997  64.4029988 111.3560012  11.1754997  64.1129988
 110.8721431  10.9001954  63.1859481 110.9463601  10.5922144  64.9242155
 112.4252057  11.0324710  64.0675948 111.9200012  12.9744997  65.6579988
 111.9008796  14.0372503  65.8448396 112.9217937  12.6233692  65.4862746
 111.4749868  12.4442285  66.4874997 109.6690012  12.8814997  64.7959988
 109.5130912  13.9246305  65.0276280 109.4562131  12.2813921  65.6679175
 109.0182555  12.5852412  63.9859395 115.3160012  12.8824997  61.2249988
 116.1540012  12.2024997  63.4739988 116.2830012  14.1904997  66.0139988
 117.4060012  13.6784997  66.4359988 118.4970012  14.2384997  66.3029988
 117.0220012  12.3504997  67.1749988 116.5243917  11.7447375  66.4246721
 117.9516787  11.8356596  67.4042287 116.0880012  12.5404997  68.5429988
 115.4113189  13.3720648  68.3797154 115.4610507  11.6630845  68.6659163
 116.8990012  12.7934997  69.8389988 117.4695512  11.9107712  70.1163382
 117.6264862  13.5829468  69.6669416 115.9980012  13.2084997  70.9809988
 115.6368163  14.2208759  70.8096921 115.1152507  12.5760822  71.0357875
 116.7520012  13.1734997  72.4039988 117.3257884  12.2521808  72.4804241
 117.4772031  13.9846601  72.4259522 115.8280012  13.3044997  73.6329988
 115.0887999  12.5061859  73.5885291 116.4066360  13.1365134  74.5370344
 115.0920012  14.6874997  73.7569988 114.4382192  14.7862014  72.8982747
 114.4440665  14.6265411  74.6303891 115.9640012  15.8664997  73.8989988
 116.4550549  16.1882054  72.9929493 116.2050012  16.5914997  75.0259988
 116.8956974  17.4213133  74.9817483 115.6140012  16.3774997  76.3459988
 114.8275411  17.1225704  76.4535682 115.1217176  15.4115940  76.3650804
 116.5800012  16.4974997  77.5859988 117.2381104  15.6363511  77.6956361
 117.2290413  17.3685100  77.5185678 115.7180012  16.6214997  78.7949988
 114.7973446  17.1250505  78.5001511 115.4295566  15.6238805  79.1144668
 116.3500012  17.3734997  79.9749988 117.1381303  16.7210565  80.3442079
 116.8490068  18.2404123  79.5454165 115.4620012  17.8264997  81.1339988
 114.6063893  18.3856346  80.7599849 115.0494744  16.9758470  81.6695701
 116.2050012  18.7024997  82.0689988 117.2585238  18.4315666  82.1085999
 116.1723139  19.7398929  81.7410038 115.6050012  18.6194997  83.5429988
 115.9544550  19.4799537  84.1081676 114.5288733  18.7459216  83.4466695
 115.8740012  17.3714997  84.3199988 115.3475521  17.3876496  85.2695563
 116.9298777  17.2478578  84.5358193 115.5437934  16.4925380  83.7736196
 142.9670012  43.5984997  80.4739988 143.6936246  43.3087720  81.2266641
 141.9826420  43.5596068  80.9315077 143.1640572  44.6327028  80.2052894
 143.0430012  42.6964997  79.2599988 142.8864069  41.6793683  79.6151396
 144.0701594  42.7422139  78.9083312 142.0550012  42.9874997  78.0779988
 141.0469207  43.2279240  78.4154879 141.9534077  42.1349537  77.4094068
 142.5920012  44.1194997  77.3109988 143.6693381  44.0361719  77.1858920
 142.4190957  45.0727191  77.8081733 141.9510012  44.1434997  75.9519988
 140.8863505  44.0000590  76.1178803 142.3060340  43.2443693  75.4511183
 142.1610012  45.4064997  74.9839988 143.1892905  45.4625839  74.6314473
 141.9683719  46.3393535  75.5095982 141.2430012  45.3034997  73.8119988
 140.2820423  44.9643070  74.1944598 141.6226823  44.4976183  73.1853988
 141.0280012  46.5804997  72.9359988 141.9881431  47.0601809  72.7502992
 140.4283733  47.3035251  73.4858757 140.3290012  46.2664997  71.5589988
 139.6142482  47.0466819  71.3060463 139.7584038  45.3406926  71.6212633
 141.3550012  46.1474997  70.4509988 142.0079921  47.0108396  70.5584511
 140.8107026  46.2907334  69.5179113 142.1980012  44.8554997  70.3539988
 141.5342491  44.0144109  70.1654676 142.6739730  44.6559103  71.3125095
 143.2770012  44.8834997  69.2439988 142.8857749  45.4632697  68.4115159
 143.3964242  43.8660608  68.8762675 144.6700012  45.4254997  69.6649988
 144.9927243  44.9403455  70.5846330 144.6339198  46.4899904  69.8790821
 145.7490012  45.1634997  68.5819988 146.4516561  45.9900976  68.6008880
 145.2463941  45.1999254  67.6191118 146.5100012  43.8624997  68.6779988
 145.8258531  43.0236254  68.6945043 147.1083961  43.8410171  69.5810663
 145.7690012  42.7874997  67.9189988 145.1810012  41.9334997  68.4929988
 145.8840012  42.9754997  66.5979988 145.5900012  41.8554997  65.8389988
 145.8478473  40.9898426  66.4302815 146.1982919  41.8673301  64.9462309
 144.0790012  41.8324997  65.4819988 143.9526775  41.1305728  64.6743881
 143.4720012  43.2134997  65.0839988 144.1005318  43.6304430  64.3088158
 143.5545290  43.8330933  65.9682374 142.1300012  43.1504997  64.6509988
 141.2160012  44.4234997  64.6459988 139.9130012  44.0304997  63.9229988
 139.0770012  43.0844997  64.5639988 138.4667410  43.4851305  65.3629146
 139.6512774  42.2691315  64.9943226 138.2260012  42.4494997  63.5019988
 137.3521872  43.0828077  63.4147110 137.9181498  41.4819396  63.8713660
 138.7220012  42.2134997  62.0529988 140.0970012  41.6014997  62.1889988
 140.6862111  42.2201391  62.8519097 140.5515437  41.5823449  61.2096499
 139.9965416  40.5931909  62.5617431 137.7950012  41.2194997  61.4279988
 136.7799005  41.5470222  61.5923570 137.9716207  40.2524094  61.8637876
 138.0106865  41.1976814  60.3695561 138.7610012  43.5374997  61.3569988
 137.7748645  43.9772005  61.3737211 139.0749211  43.3915276  60.3343569
 139.4608016  44.1890146  61.8602310 140.8190012  44.7684997  66.0149988
 141.8950012  45.4584997  63.8539988 143.3650012  41.3634997  66.6499988
 142.1870012  40.6914997  66.6089988 141.6340012  40.4694997  65.5379988
 141.7830012  40.2824997  67.9969988 141.0980350  39.4410898  67.9769042
 142.6218287  39.9684942  68.6131773 141.1320012  41.5294997  68.5569988
 141.7582190  42.3800037  68.3109193 140.1883403  41.6939813  68.0466234
 140.8990012  41.4944997  70.1129988 141.8574001  41.5304986  70.6246916
 140.3671472  42.3977638  70.4016341 140.0580012  40.2254997  70.6109988
 139.1581816  40.0973534  70.0121588 140.6142236  39.2950618  70.5267129
 139.6370012  40.4234997  72.0849988 139.0033683  41.3069324  72.1292370
 138.9999750  39.5805143  72.3456794 140.7490012  40.5414997  73.1359988
 141.3800579  41.4055552  72.9338197 140.3476094  40.6822259  74.1356981
 141.6250012  39.2494997  73.1269988 141.0046634  38.3852381  73.3339118
 142.0322124  39.1025523  72.1275331 142.7640012  39.3434997  74.0999988
 143.4769467  40.1228280  73.8765934 142.9970012  38.5854997  75.2199988
 143.8151833  38.8278678  75.8829058 142.1830012  37.3794997  75.6559988
 141.4500580  37.1979270  74.8717497 142.8194817  36.5021771  75.6856421
 141.4140012  37.5164997  77.0289988 140.7380220  38.3704122  77.0046978
 140.7897170  36.6401135  77.1923255 142.4040012  37.6704997  78.2239988
 143.1281428  36.8558240  78.2185619 142.9784028  38.5879767  78.1301764
 141.6400012  37.6714997  79.5889988 140.7390013  38.2589864  79.4271234
 141.3094938  36.6485146  79.7603214 142.3670012  38.1704997  80.8129988
 143.1397735  37.4368341  81.0346915 142.8922859  39.0765378  80.5235238
 141.5600012  38.4174997  82.1089988 140.5173463  38.5815085  81.8428130
 141.5795835  37.5071876  82.7054738 142.0270012  39.5814997  82.9849988
 142.2513016  40.4407949  82.3579294 141.1849661  39.8798544  83.6057035
 143.1960012  39.2924997  83.8689988 143.4069110  40.1374007  84.5176345
 144.0955298  39.0885727  83.2980321 143.0038178  38.4301212  84.5010667
  -2.3239988  60.2744997  79.5609988  -3.4040103  60.3723219  79.5116524
  -1.8904894  61.1136992  79.0247118  -2.0313985  60.3640429  80.6035817
  -1.8609988  58.9464997  78.9739988  -2.2317310  58.9086178  77.9510982
  -2.3891040  58.1687526  79.5190019  -0.3519988  58.6604997  78.9749988
  -0.0111965  58.2902286  79.9417883   0.2167156  59.5680988  78.7826482
  -0.0139988  57.6484997  77.9069988  -0.7028115  56.8169989  78.0388835
   0.9768836  57.2579445  78.1335482  -0.0639988  58.1284997  76.3339988
   0.2609342  59.1621771  76.2473815  -1.0939421  58.1014881  75.9820721
   0.8450012  57.2164997  75.3789988   0.6309534  56.1602373  75.5316759
   1.9010133  57.3485641  75.6047739   0.5950012  57.5744997  73.9209988
   1.0392580  58.5480201  73.7218413  -0.4773503  57.6932096  73.7720014
   1.1510012  56.5274997  72.8839988   0.6657665  55.5787234  73.1094359
   2.2062298  56.3912063  73.1133472   0.9930012  56.8354997  71.3779988
   1.6591519  56.2296789  70.7674536   1.2305068  57.8734331  71.1480811
  -0.4139988  56.5584997  70.9939988  -1.0366076  56.9235463  71.8078773
  -0.5326050  55.4753579  70.9811307  -0.9259988  57.1614997  69.5979988
  -0.4276917  56.6426895  68.7818695  -0.6314557  58.2063556  69.5164615
  -2.3869988  57.0494997  69.3979988  -2.9326648  57.8426588  69.9033364
  -2.7745465  56.1131687  69.7951904  -2.6639988  57.0944997  67.8979988
  -3.5252729  56.4739722  67.6563283  -1.8324398  56.6984533  67.3218644
  -2.9609988  58.5114997  67.4309988  -2.2094202  59.1908846  67.8194711
  -3.9135227  58.8222506  67.8519788  -3.0319988  58.6574997  65.8879988
  -3.7532148  57.9640116  65.4745223  -2.0636145  58.4573845  65.4449923
  -2.7349988  60.1484997  65.6089988  -3.6289988  60.9824997  65.4719988
  -1.4019988  60.3644997  65.2609988  -1.1959988  61.7144997  64.9049988
  -1.7868924  62.2916478  65.6001296  -1.5218807  61.9326957  63.8983293
   0.3170012  62.0384997  65.0839988   0.6075514  62.9139440  64.5271578
   1.1550012  60.7594997  64.5709988   2.1195001  61.0953092  64.2149444
   0.6065239  60.3354292  63.7391803   1.3140012  59.7954997  65.6019988
   1.6300012  58.2894997  65.4369988   2.0390012  58.2494997  63.9199988
   2.6200012  57.0584997  63.3789988   3.3007644  56.5851995  64.0745111
   3.2036561  57.3063181  62.4971088   1.5210012  56.0374997  62.8759988
   0.6845260  55.9071154  63.5509494   1.9912302  55.0779355  62.7163171
   0.9320012  56.4224997  61.5749988  -0.2069988  55.4734997  61.2349988
   0.1501867  54.4573022  61.3303678  -0.5029127  55.6606005  60.2134664
  -1.0378156  55.6723640  61.8952362   0.4800012  57.8504997  61.4989988
   1.2837233  58.4831669  61.8432034  -0.4020241  57.9721154  62.1020004
   0.2574431  58.0642263  60.4635830   2.1360012  56.1454997  60.6229988
   2.9820516  56.7379766  60.9380410   1.8603493  56.4155971  59.6146767
   2.3903508  55.0960079  60.6591688   2.7270012  57.8154997  66.3539988
   0.4020012  57.5214997  65.6809988   0.5330012  62.3634997  66.5239988
   1.7200012  62.8624997  66.7149988   2.4790012  63.1724997  65.8169988
   2.0790012  63.0644997  68.1809988   2.8986863  63.7659151  68.2979846
   1.2607668  63.4611915  68.7768470   2.4580012  61.6684997  68.6349988
   3.1016610  61.2349512  67.8775037   3.0631252  61.7496782  69.5323660
   1.2660012  60.7184997  68.8899988   0.9296163  60.4056424  67.9047985
   1.7089463  59.8397708  69.3522760   0.1080012  61.1504997  69.7089988
  -0.1723255  62.1797396  69.4926929  -0.7841467  60.5513756  69.5436974
   0.5140012  61.0544997  71.2439988   0.6401165  60.0023479  71.4909253
   1.4977809  61.5090423  71.3437456  -0.4319988  61.7054997  72.2599988
  -0.6334367  62.7458534  72.0094235  -1.3974904  61.2099855  72.3110836
   0.2230012  61.6364997  73.6299988  -0.4993760  61.8859364  74.3984599
   0.5386373  60.6127195  73.8264521   1.4230012  62.5304997  73.7059988
   1.2335006  63.5656825  73.4650836   2.6690012  62.2044997  74.0419988
   3.4733174  62.9235366  74.1025891   3.0780012  60.7984997  74.3759988
   2.2832191  60.1121080  74.0889290   3.9632334  60.4804937  73.8366315
   3.3150012  60.6524997  75.8579988   2.4884905  61.0336276  76.4566027
   3.4466833  59.6124333  76.1501987   4.5920012  61.4354997  76.1909988
   5.4006320  61.2043158  75.4976178   4.4434605  62.5104385  76.1367211
   5.0240012  61.0464997  77.6259988   5.2706317  59.9874044  77.6007860
   5.9547327  61.5707139  77.8358160   4.0170012  61.3254997  78.7599988
   3.0563562  60.9022786  78.4725355   4.3281154  60.7801279  79.6467922
   3.7870012  62.8724997  79.1189988   4.5822638  63.2852115  79.7371487
   3.7336618  63.5044143  78.2343108   2.4620012  62.9934997  79.8839988
   2.3759523  62.1299989  80.5388858   2.5763154  63.8529372  80.5409709
   1.1880012  63.1534997  79.0949988   0.3424831  63.3151662  79.7568387
   0.9689200  62.2758700  78.4962412   1.2493225  64.0046435  78.4227377
  88.8080012   2.4944997  82.5959988  88.8338675   1.9687374  83.5453848
  89.7900486   2.9280880  82.4305481  88.6378018   1.7583560  81.8151424
  87.7770012   3.5124997  82.5859988  88.0009649   4.1576357  83.4338447
  86.8603555   2.9857054  82.8371215  87.5590012   4.3944997  81.3119988
  86.7954431   5.1457981  81.5131422  87.1636302   3.7695632  80.5136835
  88.8470012   5.0974997  80.7959988  89.5640810   4.3626420  80.4367903
  89.3484582   5.6430144  81.5939088  88.5110012   6.0824997  79.6259988
  89.4477833   6.4695840  79.2333439  87.9879971   6.9322146  80.0616778
  87.6590012   5.5034997  78.4349988  86.7313394   5.1341539  78.8684088
  88.1923760   4.6292908  78.0677834  87.3450012   6.3984997  77.2959988
  86.6926226   7.1860215  77.6688010  86.7536393   5.8256245  76.5830225
  88.4390012   6.9784997  76.6309988  88.9505542   7.6139994  77.3527359
  88.0350116   7.6453460  75.8715303  89.4680012   6.0184997  75.9739988
  88.9759797   5.0583255  75.8342792  90.2650929   5.8487791  76.6967827
  90.0900012   6.4814997  74.6219988  90.1351123   7.5673367  74.6691365
  89.3598711   6.2395636  73.8501141  91.3870012   5.9454997  74.2379988
  91.9656600   5.7867311  75.1454609  91.9211451   6.7035290  73.6677272
  91.3680012   4.7014997  73.4829988  90.9817103   3.9622901  74.1805427
  92.4182134   4.4581647  73.3329578  90.6410012   4.5874997  72.1359988
  91.1688954   5.0998470  71.3334529  89.6304380   4.9862847  72.1385581
  90.5880012   3.0734997  71.7849988  89.8948125   2.5620946  72.4447709
  91.5680574   2.6374607  71.9595034  90.1820012   2.8034997  70.3079988
  90.8411533   3.3320747  69.6311178  89.1648550   3.1318826  70.1301018
  88.7160012   3.1764997  70.0079988  87.7850012   3.1524997  70.7899988
  88.7470012   3.6334997  68.7869988  87.7080012   4.5174997  68.2559988
  87.1344491   4.7551472  69.1391882  87.0882780   3.9543209  67.5733825
  88.2280012   5.8104997  67.5919988  87.3699701   6.4018618  67.3181968
  89.0230012   5.4544997  66.3549988  88.5815758   4.5985757  65.8627195
  90.0295438   5.1978503  66.6609204  89.0420012   6.6084997  65.4559988
  90.3160012   7.4084997  65.1459988  91.3860012   6.3844997  64.5469988
  90.9020012   5.2984997  63.7829988  90.0133067   5.5647884  63.2257721
  90.6168638   4.4894885  64.4493280  91.9960012   4.6884997  62.8399988
  91.5261735   3.8399512  62.3588787  92.8441398   4.3385045  63.4105610
  92.5390012   5.4894997  61.7769988  93.4640012   6.5724997  62.2249988
  92.9751454   7.1448133  63.0014079  93.6669753   7.2093432  61.3768645
  94.3840662   6.1264265  62.5717205  93.3130012   4.5854997  60.9109988
  92.6980990   3.7319894  60.6698982  94.2108348   4.2909124  61.4243049
  93.5585300   5.1314015  60.0115524  91.3980012   6.1344997  60.9639988
  90.7613899   5.3579548  60.5667758  91.8206780   6.7067341  60.1518768
  90.8228317   6.7871683  61.6048097  89.9100012   8.3404997  64.1069988
  90.8030012   7.9604997  66.4259988  89.0370012   6.5974997  68.5289988
  88.4120012   7.2584997  69.5339988  87.2430012   7.2154997  69.8269988
  89.4440012   7.9024997  70.4019988  89.0089541   8.2258743  71.3420604
  90.2523780   7.2251192  70.6657970  89.9610012   9.0814997  69.5749988
  90.4344517   8.7198301  68.6688527  89.1401914   9.7143059  69.2527245
  90.9140012   9.8604997  70.3269988  91.2138000  10.6850761  69.6852446
  90.3507715  10.3024704  71.1452281  92.1380012   9.1754997  70.8979988
  92.7776847   9.9176495  71.3720500  91.8618816   8.4697551  71.6776683
  92.9560012   8.4434997  69.8379988  92.3058326   7.8397021  69.2082287
  93.4276869   9.1693382  69.1784140  94.0680012   7.5344997  70.4579988
  93.5617410   6.7747621  71.0514636  94.5647275   7.0093489  69.6469515
  95.1300012   8.2234997  71.3179988  95.5868831   9.0159406  70.7367275
  94.6270254   8.7073798  72.1541934  96.1770012   7.2744997  71.8659988
  97.0043826   6.9782890  71.2388998  96.1470012   6.7774997  73.1169988
  96.9451444   6.1085267  73.4051872  95.1190012   7.0344997  74.2209988
  94.2684295   7.5323324  73.7584931  94.7452573   6.0942310  74.6107311
  95.5880012   7.8634997  75.3239988  96.3994706   7.3412319  75.8294280
  96.0249016   8.7666692  74.9022621  94.4920012   8.2614997  76.3689988
  94.8348636   9.1263768  76.9369248  93.5893500   8.5758761  75.8523825
  94.1590012   7.1354997  77.3269988  94.0301451   6.2510027  76.7071550
  95.0560982   6.9638686  77.9193202  92.9270012   7.3004997  78.2889988
  92.0319161   7.2955615  77.6698151  92.8660997   6.4080287  78.9057740
  92.8810012   8.5894997  79.1979988  93.7448740   8.6502067  79.8574845
  92.8911853   9.5007207  78.6026782  91.6090012   8.5844997  80.0589988
  90.7546383   8.7279729  79.4021924  91.5138236   7.5746606  80.4520374
  91.5270012   9.5914997  81.2429988  90.6240565   9.4303615  81.8241996
  91.5134125  10.6205132  80.8999426  92.3755249   9.4778454  81.9117522
 125.6430012 117.6874997  84.1139988 125.3971687 117.6435629  85.1704385
 126.7243165 117.6395152  84.0231986 125.2336542 116.7984091  83.6422307
 125.0780012 118.9834997  83.4539988 125.4861034 119.8497543  83.9719356
 124.0031700 119.0123250  83.6112281 125.4050012 119.0984997  81.9119988
 125.4175274 118.0869120  81.5064590 126.4262489 119.4663695  81.8352141
 124.4860012 119.9984997  81.0239988 124.8020318 119.8371343  79.9957304
 124.7327272 121.0333213  81.2563268 122.9940012 119.8114997  81.1039988
 122.6979886 119.9240364  82.1438473 122.7865904 118.7764258  80.8376009
 122.1470012 120.7224997  80.2539988 122.5097323 120.6556704  79.2299006
 122.3304388 121.7455223  80.5754833 120.6330012 120.4474997  80.2759988
 120.1255372 121.1936266  79.6672748 120.2608222 120.5787225  81.2911310
 120.2590012 119.0504997  79.7779988 119.1816680 118.9489669  79.9024790
 120.7127109 118.3376573  80.4640653 120.6450012 118.6734997  78.3169988
 121.7268921 118.6295131  78.2115563 120.3036203 119.4425079  77.6251444
 120.0190012 117.2774997  77.8979988 118.9985752 117.2686202  78.2747626
 120.5561806 116.5092227  78.4535325 120.0310012 116.9144997  76.3759988
 119.5044010 117.6820866  75.8129325 119.4883127 115.9868094  76.2027704
 121.4650012 116.7834997  75.7999988 121.9453146 115.9023630  76.2184677
 122.0578845 117.6362908  76.1254319 121.4930012 116.7244997  74.3069988
 120.8082388 117.4908883  73.9478318 121.0733650 115.7717899  73.9963163
 122.7960012 116.9224997  73.6299988 123.5623457 116.2438976  73.9899436
 123.1721912 117.9307245  73.7818398 122.5860012 116.6944997  72.0929988
 121.8009613 117.3388583  71.7180917 122.3129459 115.6641938  71.8981152
 123.7640012 117.1434997  71.2409988 124.5990012 117.9684997  71.5239988
 123.5630012 116.5054997  70.0859988 124.2970012 116.9814997  68.9189988
 124.4257516 116.1130955  68.2906998 125.2686034 117.3646851  69.1953137
 123.4790012 118.0414997  68.1929988 122.4979508 117.6050833  68.1036957
 124.0010012 118.5054997  66.7529988 124.2130684 117.6031249  66.1957301
 124.9336236 119.0200239  66.9481021 123.1220012 119.3384997  66.0279988
 123.3070012 119.8324997  64.5059988 123.7920012 118.5234997  63.8069988
 124.2680012 118.7174997  62.4289988 125.0957440 119.4074574  62.3290534
 123.4780367 119.0884363  61.7823465 124.6430012 117.2924997  61.8509988
 124.9723131 117.3433864  60.8208467 123.7554830 116.6784205  61.9019439
 125.7590012 116.5004997  62.6169988 126.9000012 117.4344997  62.5529988
 127.0406317 117.7377782  61.5246121 127.7783865 116.9118405  62.9013760
 126.6999143 118.2769643  63.1979295 125.3890012 116.0504997  63.9799988
 124.4354459 115.5477758  63.9278919 125.3483317 116.9042093  64.6326057
 126.1531607 115.3624584  64.3115956 126.0440012 115.2874997  61.8179988
 125.1364119 114.7128208  61.7079629 126.7885812 114.6942154  62.3271787
 126.4150543 115.5755164  60.8449618 121.9520012 120.2024997  64.0849988
 124.3210012 120.8494997  64.5069988 123.4050012 119.2164997  69.0569988
 122.2060012 119.6534997  69.4519988 121.0930012 119.1264997  69.3839988
 122.3920012 121.0534997  69.8779988 123.2631374 121.4666374  69.3800109
 121.5525733 121.6724764  69.5711833 122.5490012 121.0534997  71.3989988
 123.3794206 120.3967469  71.6338187 122.8597690 122.0492357  71.6989421
 121.3010012 120.6154997  72.2279988 120.4400567 121.1473154  71.8310094
 121.1350930 119.5636172  72.0087210 121.3700012 120.7864997  73.6989988
 120.5362166 120.2438613  74.1406467 122.2738624 120.3172207  74.0798061
 121.3170012 122.2784997  74.2089988 122.0847451 122.8321341  73.6723805
 120.3633201 122.6858896  73.8789882 121.4640012 122.5324997  75.7099988
 121.4259843 123.6058650  75.8892823 120.6203211 122.1026389  76.2426728
 122.8110012 121.9424997  76.3269988 122.8326480 122.1331034  77.3936672
 122.8061774 120.8597321  76.2089433 124.0490012 122.4994997  75.6459988
 124.0773011 123.5787156  75.6527807 125.0990012 121.8534997  75.0589988
 125.9522866 122.3149290  74.5829768 125.1290012 120.3414997  75.0469988
 124.1153337 119.9813966  74.8795918 125.7251296 119.9637925  74.2238043
 125.6430012 119.7384997  76.3709988 126.6832971 120.0281362  76.5145259
 125.0873937 120.1864602  77.1926378 125.5180012 118.1754997  76.4549988
 124.4544786 117.9392175  76.4203954 125.9499704 117.7650467  75.5464643
 126.1560012 117.4824997  77.6899988 127.1825831 117.2180234  77.4464277
 126.2120988 118.1964751  78.5098628 125.3660012 116.1964997  78.1709988
 124.3674758 116.5120422  78.4675961 125.2281050 115.5400325  77.3162119
 125.9800012 115.4154997  79.3389988 126.9675018 115.0655684  79.0435779
 126.1388436 116.1022168  80.1684701 125.1790012 114.2294997  79.8429988
 124.5499631 113.7728880  79.0829120 125.8312925 113.4367434  80.2026744
 124.3150012 114.7074997  80.9919988 123.7851224 113.8763575  81.4475206
 123.5718990 115.4283129  80.6680105 124.9172084 115.1786570  81.7636841
  61.0280012 142.2344997  81.2919988  60.7867125 143.1861832  81.7551480
  61.4612899 141.5948860  82.0555073  60.0959957 141.7777428  80.9705165
  61.9730012 142.4144997  80.1299988  62.8622086 142.9149344  80.5095752
  61.5012600 143.1107570  79.4418855  62.3870012 141.1504997  79.3929988
  63.0391166 140.5660042  80.0418743  62.9952169 141.4428940  78.5393301
  61.2250012 140.2474997  78.8849988  60.3910443 140.8345718  78.5066968
  60.8143927 139.6083964  79.6651614  61.7910012 139.3354997  77.6949988
  61.0718528 138.5340839  77.5462320  62.6944098 138.8673207  78.0823310
  62.0960012 139.9784997  76.3529988  63.0752533 140.4537410  76.3477183
  61.3781968 140.7582149  76.1072791  62.0520012 138.8454997  75.2229988
  61.3654359 138.0640007  75.5434009  63.0348981 138.3803978  75.1611618
  61.6370012 139.3454997  73.8249988  60.6190773 139.7170391  73.9356353
  61.5697613 138.4560977  73.2011984  62.4660012 140.3774997  73.1249988
  63.5137763 140.0936325  73.1966060  62.3709904 141.3239678  73.6557982
  62.0990012 140.5824997  71.6659988  61.0172823 140.6816379  71.6080768
  62.3514382 139.6713019  71.1243133  62.7770012 141.7854997  70.9779988
  63.8535985 141.6317052  70.9492511  62.6168272 142.6938361  71.5562697
  62.2930012 142.0004997  69.5749988  62.8601211 141.3390950  68.9245083
  62.5655247 143.0147916  69.2893192  60.7690012 141.8094997  69.3349988
  60.2123675 142.5729945  69.8758190  60.4245227 140.8530815  69.7182389
  60.3810012 141.9214997  67.7809988  59.4044232 141.4679351  67.6471346
  61.0909913 141.3064690  67.2344246  60.3740012 143.3524997  67.1509988
  61.3298152 143.8378486  67.3023161  59.5997491 143.9604405  67.6037798
  61.7560012 143.9004997  66.7539988  62.2050012 144.9924997  67.1579988
  62.4000012 143.0394997  65.9719988  63.7630012 143.3904997  65.5829988
  64.0376950 144.1217010  66.3282167  63.8201151 143.8448724  64.6044920
  64.7050012 142.1374997  65.6769988  65.6378310 142.4097029  65.2115658
  64.0570012 140.8854997  64.9089988  64.8156294 140.2885995  64.4211520
  63.3623817 141.2438489  64.1595492  63.3810012 140.1244997  65.8799988
  62.4700012 138.8694997  65.5689988  61.9920012 139.1384997  64.0779988
  61.0780012 140.2694997  63.8959988  61.2255992 141.0209310  64.6606914
  60.0558856 139.9178684  64.0029201  61.1450012 140.8814997  62.5119988
  62.2028270 140.9692707  62.2985748  60.6892400 141.8563779  62.4157121
  60.5710012 140.0454997  61.3999988  59.1040012 139.6114997  61.5369988
  58.9674887 139.1579805  62.5091195  58.8978333 138.8853794  60.7647656
  58.4691686 140.4743336  61.4020095  60.6710012 140.8444997  60.1049988
  61.6800788 141.2146524  60.0077193  59.9579964 141.6489967  60.1329046
  60.4431666 140.1710254  59.2914751  61.4660012 138.8294997  61.2039988
  62.4681887 139.1590476  60.9735638  61.0835872 138.2355252  60.3875406
  61.4740314 138.2380949  62.1082172  63.3460012 137.7074997  65.7229988
  61.2400012 138.8904997  66.2759988  64.9920012 141.8714997  67.0429988
  66.1640012 141.1844997  67.2099988  66.8400012 140.7224997  66.3149988
  66.4700012 141.0284997  68.7189988  65.7774035 140.2645115  69.0569094
  67.4594986 140.5829894  68.7847442  66.3780012 142.3284997  69.5879988
  67.0737696 143.0651714  69.2016284  65.3905176 142.7683093  69.4906502
  66.6940012 142.0674997  71.0869988  65.9166918 141.4256213  71.4937374
  67.6152610 141.4916461  71.1286889  66.8580012 143.3204997  71.9669988
  67.2707212 144.0991852  71.3282367  65.8684773 143.6616459  72.2613858
  67.7490012 143.2064997  73.2379988  68.7746551 143.1011842  72.8903730
  67.6935477 144.1763780  73.7285514  67.4520012 142.1294997  74.2599988
  67.4402568 141.1806289  73.7259507  68.2884696 142.0816915  74.9516294
  66.1960012 142.2684997  75.0419988  66.3221765 143.1826429  75.6103313
  65.4288986 142.4741645  74.2966119  65.7200012 141.1384997  75.9259988
  65.0739966 140.4334303  75.4248906  66.0050012 140.8964997  77.2349988
  65.6346754 140.0284674  77.7612960  66.8850012 141.8274997  78.0969988
  67.7965868 141.9683624  77.5187338  66.3996504 142.7961718  78.1393063
  67.2970012 141.3714997  79.5819988  67.7210591 140.3701418  79.5174821
  68.1061515 142.0231501  79.9061691  66.1820012 141.3884997  80.6369988
  65.3191317 140.8711703  80.2175543  66.5082155 140.7952171  81.4867658
  65.7560012 142.7644997  81.1149988  66.6458041 143.3275681  81.3876702
  65.2965539 143.3032453  80.2881092  64.7800012 142.7244997  82.2959988
  63.8452371 142.2235510  82.0513427  65.1713392 142.2119119  83.1704891
  64.4540012 144.1944997  82.6459988  65.3680040 144.7147032  82.9268369
  64.0773095 144.7030089  81.7603602  63.4520012 144.3594997  83.7519988
  62.5714618 143.7663710  83.5179822  63.8875628 143.9052238  84.6392600
  63.0190012 145.8174997  84.0969988  62.3639074 145.8303425  84.9628834
  62.4842081 146.2862574  83.2778507  63.8814610 146.4372502  84.3255011
  73.4750012   0.6584997  82.8029988  73.2447799  -0.0308491  83.6093644
  74.3053782   0.2433429  82.2391647  72.6134045   0.6932699  82.1418979
  73.8090012   2.0374997  83.3359988  74.6563629   1.9608538  84.0151943
  72.9726169   2.3948328  83.9306318  74.1380012   3.0434997  82.2339988
  73.5675757   2.9082685  81.3151646  75.1860432   3.0394610  81.9411464
  73.7850012   4.5054997  82.8779988  74.2008554   4.5521481  83.8820601
  72.7063478   4.5993148  82.9938076  74.3090012   5.6844997  82.0809988
  75.3823342   5.5910478  81.9367909  74.1557777   6.5997580  82.6503754
  73.6470012   5.8194997  80.7379988  72.6729018   6.2933417  80.8448684
  73.4618890   4.8370589  80.3089060  74.4840012   6.6194997  79.7939988
  75.4792985   6.1827116  79.8520454  74.5589853   7.6083707  80.2442670
  74.0900012   6.7594997  78.3599988  74.3601699   7.7544147  78.0084252
  73.0070465   6.6909061  78.2752163  74.7320012   5.7144997  77.4539988
  74.7552015   4.7381463  77.9333075  75.7677292   5.9680177  77.2313487
  73.8940012   5.6124997  76.0639988  73.9974354   6.5305108  75.4896679
  72.8292155   5.4960879  76.2642707  74.3680012   4.4584997  75.2649988
  74.0674151   3.5301587  75.7460103  75.4558653   4.4411618  75.2278632
  73.8040012   4.4634997  73.8119988  74.6032079   4.7593938  73.1367698
  73.0482650   5.2442503  73.7490602  73.1640012   3.1024997  73.3329988
  72.1928570   3.0066565  73.8156426  73.7684721   2.2773980  73.6991902
  72.9630012   2.9434997  71.8509988  72.3651442   3.7766842  71.4964349
  72.3702254   2.0449690  71.7014944  74.2370012   2.8364997  70.9979988
  74.8659176   2.0311063  71.3555553  74.7989593   3.7619224  71.0411824
  73.8790012   2.4204997  69.5859988  72.9080012   2.7344997  68.9479988
  75.0060012   1.8774997  69.1109988  75.0570012   1.4454997  67.7399988
  74.0358871   1.3965222  67.3930272  75.4858747   0.4541802  67.7166470
  75.8620012   2.4084997  66.8769988  75.2534844   3.2093060  66.4905913
  76.5420012   1.6644997  65.7189988  75.8082793   1.4445250  64.9554123
  76.9241147   0.7307287  66.1122495  77.5870012   2.4354997  65.1879988
  77.6490012   3.3234997  63.9109988  76.2600012   4.0974997  64.0739988
  76.1140012   5.4164997  63.4689988  77.0379473   5.6955720  62.9794773
  75.9624336   6.1322032  64.2718641  74.8630012   5.6124997  62.4899988
  75.1074812   5.0712080  61.5847464  74.7010989   6.6512157  62.2405322
  73.5190012   5.0784997  62.9389988  73.2540012   5.6324997  64.3219988
  74.1156987   5.4339246  64.9443967  72.3900118   5.1248447  64.7243778
  73.0490007   6.6895773  64.2427613  72.4340012   5.6304997  61.9869988
  72.7474848   5.4519847  60.9698584  72.2997676   6.6800769  62.1786732
  71.5197274   5.0929006  62.1928815  73.4760012   3.5444997  62.9259988
  73.6907290   3.1911944  61.9284270  72.4916981   3.2147262  63.2227257
  74.2104467   3.1572428  63.6174154  78.7700012   4.2764997  64.1439988
  77.6480012   2.3884997  62.7309988  76.8440012   2.9774997  67.7549988
  77.1140012   4.2554997  67.8389988  76.5940012   5.1144997  67.1139988
  78.2640012   4.5284997  68.8999988  78.9807766   5.1862212  68.4191782
  77.8448291   5.0981784  69.7256306  78.9240012   3.2214997  69.4029988
  78.1466505   2.5260117  69.6997873  79.4576587   2.7447380  68.5869467
  79.8650012   3.4444997  70.5739988  80.6601244   4.1031459  70.2339720
  79.3055735   4.0043712  71.3194178  80.4480012   2.2314997  71.2269988
  80.5727488   1.4471277  70.4827510  81.4406642   2.4390698  71.6190915
  79.5750012   1.6874997  72.3569988  78.5488938   1.5851838  72.0098157
  79.9114660   0.6833479  72.6077008  79.5980012   2.5194997  73.5919988
  80.6287235   2.6701593  73.9091961  79.1901494   3.5071586  73.3957726
  78.7740012   1.8554997  74.7799988  79.1520623   0.8467530  74.8986580
  79.0495603   2.3947935  75.6853027  77.2960012   1.8614997  74.6559988
  76.9330047   2.3938789  73.7897656  76.4150012   1.3174997  75.4219988
  75.3852098   1.4626382  75.1286139  76.5880012   0.4944997  76.6789988
  75.6138355   0.0415595  76.8552584  77.2649637  -0.3209821  76.4501053
  77.0300012   1.1694997  77.9489988  77.0267218   0.4241556  78.7434524
  78.0688525   1.4647032  77.8144559  76.2010012   2.4064997  78.3949988
  76.0755006   3.0266077  77.5074050  75.2104356   2.0428196  78.6538825
  76.7450012   3.2704997  79.5429988  75.9736416   3.9860086  79.8190358
  76.8955206   2.6344083  80.4135255  78.0120012   3.9844997  79.2329988
  78.7276882   3.2645739  78.8404571  77.8348112   4.6947877  78.4300544
  78.6630012   4.6934997  80.4269988  77.8567453   4.7645451  81.1548635
  79.3568872   3.9509245  80.8167913  79.3930012   6.0644997  80.3629988
  80.0138717   6.1487162  81.2514482  80.0832704   5.9904782  79.5255251
  78.5660012   7.3274997  80.2029988  79.2073060   8.1957787  80.0851488
  77.9300689   7.5074794  81.0631955  77.9265886   7.2671816  79.3268399
  19.9210012  24.8544997  80.8519988  19.1452223  25.6029348  80.9802214
  20.7762931  25.1583024  81.4486306  19.5492607  23.9196074  81.2623615
  20.3170012  24.6894997  79.3209988  20.6194985  25.6793528  78.9835241
  19.3887582  24.4613221  78.8041681  21.4090012  23.6634997  78.9319988
  21.1110099  22.6645475  79.2501572  22.3245387  23.8916077  79.4741507
  21.7200012  23.6434997  77.4539988  22.1844248  24.5782369  77.1476868
  20.8146842  23.5467746  76.8567120  22.6850012  22.4764997  77.1169988
  22.1389585  21.5627618  77.3372110  23.4813333  22.5422966  77.8565194
  23.3130012  22.3594997  75.6939988  24.1478987  21.6629971  75.7454491
  23.7381494  23.3247423  75.4272918  22.3520012  21.9134997  74.5979988
  21.5568123  22.6452497  74.4676664  21.8640978  20.9802155  74.8757775
  23.1280012  21.7124997  73.1929988  24.0905092  21.2400480  73.3848806
  23.3485787  22.6892905  72.7664907  22.3500012  20.8774997  72.1679988
  22.0307715  19.9479295  72.6344028  23.0189850  20.5955203  71.3558871
  21.0970012  21.6194997  71.5739988  21.3779292  22.5685254  71.1226356
  20.3678985  21.8541150  72.3491078  20.4310012  20.6964997  70.5059988
  19.9883285  19.8214475  70.9770248  21.1623047  20.3187409  69.7935232
  19.3180012  21.4544997  69.7419988  19.7700706  22.3998533  69.4518976
  18.5740379  21.6932231  70.4997585  18.6050012  20.8164997  68.5369988
  18.3052277  19.8082681  68.8178137  19.3077791  20.7073123  67.7157465
  17.3680012  21.5524997  68.0379988  17.0671743  22.2966591  68.7681186
  16.5513201  20.8396556  67.9606855  17.5590012  22.2444997  66.6459988
  17.8920218  21.5257945  65.9080278  18.2945665  23.0370136  66.7162436
  17.2890012  23.7704997  66.6969988  17.1090012  24.4214997  67.7099988
  17.4950012  24.2434997  65.4609988  17.4860012  25.7084997  65.4459988
  16.7603278  25.9225286  66.2160973  17.1030055  26.0497136  64.4951679
  18.8820012  26.4134997  65.7879988  18.6309102  27.4405730  65.9952854
  19.9300012  26.3414997  64.5609988  20.5435209  27.2299658  64.4975765
  19.4002951  26.2180950  63.6246400  20.7350012  25.1984997  64.8299988
  22.1660012  25.2554997  64.3929988  22.3370012  23.7334997  63.9259988
  21.6880012  22.6074997  64.4939988  20.9630364  22.9367933  65.2269249
  22.4350027  22.0343820  65.0355906  21.0560012  21.6104997  63.4979988
  20.4091975  20.9496963  64.0612331  21.8203672  21.0193340  63.0146307
  20.1560012  22.2024997  62.3269988  19.0740012  22.9284997  63.0249988
  18.6322033  22.2679232  63.7583386  18.3316936  23.2058944  62.2914242
  19.4847967  23.8177362  63.4791160  20.9410012  23.1944997  61.5149988
  21.8823681  22.7439402  61.2401561  21.0871840  24.0870006  62.0967570
  20.3634280  23.4160011  60.6291978  19.6030012  21.1314997  61.4319988
  20.4194136  20.5677020  61.0057536  19.0290352  21.5912350  60.6415201
  18.9655077  20.4750109  62.0065069  22.3600012  26.0634997  63.1559988
  22.9990012  25.6444997  65.5849988  19.4830012  25.8254997  67.0089988
  20.3860012  26.5444997  67.5929988  20.6520012  27.7494997  67.3899988
  20.9860012  25.7314997  68.6899988  21.2022046  24.7513975  68.2774350
  21.9482006  26.1591983  68.9604671  20.0590012  25.6494997  69.9039988
  19.0293165  25.7910550  69.5945274  20.1037794  24.6635963  70.3556872
  20.4230012  26.7204997  70.9489988  21.5000415  26.7104794  71.0957561
  20.1842736  27.6914340  70.5219618  19.7110012  26.5914997  72.2919988
  20.3258641  27.0812108  73.0448816  18.7735728  27.1414429  72.2604967
  19.4260012  25.1444997  72.7619988  18.7246184  24.6339698  72.1052473
  20.3353044  24.5465630  72.7574961  18.8670012  25.1684997  74.1759988
  19.6462785  24.8542573  74.8685879  18.6012094  26.1845466  74.4540661
  17.6610012  24.2904997  74.3539988  17.1221547  24.6156268  75.2363348
  16.9939986  24.4559263  73.5089617  17.9790012  22.8664997  74.4259988
  18.1463490  22.3872540  73.4731754  18.1000012  22.0844997  75.5499988
  18.3060533  21.0294653  75.4402036  17.9780012  22.5454997  76.9939988
  18.2423978  21.7345565  77.6705241  18.6336341  23.3729773  77.2411975
  16.5840012  22.9304997  77.2599988  16.2617350  23.6722445  76.5301603
  15.9417202  22.0638759  77.1154390  16.3720012  23.4914997  78.7009988
  16.8990311  24.4377451  78.8233345  15.3224407  23.7022670  78.8867509
  16.8760012  22.5054997  79.7269988  16.3627221  21.5623673  79.5532433
  17.9298323  22.3197165  79.5269747  16.7010012  22.9464997  81.2419988
  17.3305763  23.8124188  81.4379813  15.6804408  23.2759752  81.4167197
  17.0770012  21.8564997  82.2429988  16.2034075  21.2349524  82.4311370
  17.8188565  21.2040166  81.7861066  17.6230012  22.3464997  83.5849988
  18.3527027  23.1466900  83.4893632  16.8265838  22.7453412  84.2094649
  18.2890012  21.1084997  84.3339988  18.6130621  21.3903052  85.3313147
  19.1578623  20.7334023  83.8037882  17.5842812  20.2879099  84.4347121
  74.0680012 140.6064997  82.6799988  73.9819931 139.5745168  83.0056413
  73.3822041 141.2005704  83.2771189  75.0764300 140.9415809  82.9067229
  73.7730012 140.7414997  81.2269988  72.7702970 140.3546259  81.0534590
  74.4514162 140.0812829  80.6934438  73.8690012 142.1634997  80.6629988
  73.3850018 142.8907060  81.3147998  73.3632198 142.2366649  79.7022683
  75.3230012 142.5524997  80.4719988  75.7371960 141.9893383  79.6386069
  75.9036544 142.2661651  81.3475331  75.5150012 144.0094997  80.2059988
  75.0001214 144.6086438  80.9526567  75.0737933 144.2724003  79.2460072
  77.0390012 144.4004997  80.2009988  77.3749436 144.1920706  81.2151570
  77.0407046 145.4833962  80.0965514  78.0440012 143.7884997  79.1929988
  77.4686731 143.5578514  78.2982536  78.3469416 142.8312612  79.6150789
  79.2860012 144.5814997  78.8019988  79.9990701 144.5633595  79.6251966
  79.0168597 145.6259815  78.6560381  79.9860012 144.0364997  77.4939988
  80.8346432 144.6813240  77.2759408  79.2897948 144.1604793  76.6654441
  80.4700012 142.5354997  77.5469988  79.8532046 141.9547843  78.2293702
  81.4900578 142.4669427  77.9241106  80.4110012 141.9274997  76.1389988
  79.3640009 141.9029705  75.8444996  80.7287419 140.8888439  76.2122306
  81.2190012 142.6324997  75.0149988  82.2543113 142.7009656  75.3400594
  80.8551671 143.6556878  74.9416450  81.1440012 141.9914997  73.6409988
  81.7828070 141.1110651  73.5961209  81.4915562 142.6597631  72.8581172
  79.6960012 141.5474997  73.3199988  78.9715974 142.2813098  73.6577959
  79.4656750 140.6182991  73.8344189  79.5220012 141.3234997  71.7939988
  80.2576797 140.6185357  71.4281521  79.6403690 142.2584977  71.2593617
  78.2850012 140.4764997  71.4589988  77.6320012 139.7304997  72.1939988
  78.0460012 140.6424997  70.1669988  76.9190012 139.9174997  69.5819988
  76.2632299 139.5766584  70.3689253  77.3178187 139.0605979  69.0586864
  76.1600012 140.8444997  68.6209988  75.2653989 140.3624308  68.2629617
  77.1090012 141.1754997  67.4119988  77.2889249 140.2420652  66.8961223
  78.0347505 141.5041549  67.8675850  76.6140012 142.1834997  66.4839988
  75.6440012 141.7504997  65.2829988  76.5110012 140.7874997  64.3719988
  77.6930012 141.4094997  63.7679988  78.6043422 140.9738082  64.1563535
  77.7137337 142.4607581  64.0404376  77.6840012 141.3914997  62.2459988
  78.6085717 141.8224078  61.8830434  76.8568362 141.9732075  61.8654845
  77.5770012 140.0524997  61.5949988  78.8060012 139.1964997  61.8749988
  79.6893426 139.7700998  61.6299991  78.7537055 138.3218632  61.2438283
  78.7951454 138.8962734  62.9120443  76.3580012 139.2544997  62.0219988
  75.4864542 139.8842117  61.9293556  76.4949845 138.9190779  63.0344699
  76.2762960 138.4080720  61.3555294  77.4560012 140.2474997  60.1239988
  76.5881539 140.8555298  59.9160985  77.3466963 139.2853874  59.6464609
  78.3439004 140.7372361  59.7508658  74.4870012 140.9794997  65.8809988
  75.3720012 142.9894997  64.5309988  75.8270012 142.0754997  69.2409988
  74.8270012 142.0044997  70.0899988  74.1150012 141.0614997  70.2919988
  74.8100012 143.2804997  70.9749988  75.0372381 144.1517372  70.3693078
  73.8263826 143.4625788  71.4007319  75.8770012 143.0534997  72.0979988
  76.0275687 141.9885652  72.2369413  76.8355980 143.4535750  71.7832533
  75.4530012 143.6984997  73.4729988  76.3318621 143.8931354  74.0824036
  74.9944537 144.6661152  73.2845327  74.4320012 142.8064997  74.2689988
  73.9020553 143.4186068  74.9964521  73.6728325 142.3911737  73.6106908
  75.0970012 141.6994997  74.9889988  75.7252888 141.1598939  74.2833210
  75.7721725 142.1412631  75.7193204  74.1740012 140.7074997  75.7109988
  73.4101368 141.2582030  76.2577511  73.6480285 140.0853764  74.9922266
  74.9410012 139.7914997  76.6889988  75.4071395 140.3730474  77.4758261
  74.2495108 139.1086734  77.1808680  75.9700012 138.9754997  75.9289988
  75.6250960 138.5345298  75.0058845  77.2630012 138.7544997  76.2739988
  77.8007241 138.1131105  75.5905634  78.0910012 139.2454997  77.4389988
  79.1194836 139.3086628  77.0876368  77.7957026 140.2564365  77.6968485
  78.0680012 138.4024997  78.6529988  77.0374916 138.3384909  79.0003571
  78.3510540 137.3944598  78.3560210  78.9900012 138.8704997  79.8329988
  79.3172501 138.0439629  80.4637540  79.8932352 139.3730985  79.4982351
  78.1570012 139.8274997  80.6579988  77.9094786 140.7318232  80.1065674
  77.2091664 139.3924369  80.9701119  78.9810012 140.1804997  81.8959988
  78.9797088 139.3823598  82.6359725  80.0263104 140.3801533  81.6766996
  78.3500012 141.3834997  82.5169988  78.3450668 142.2101759  81.8088568
  77.3063358 141.1771305  82.7472342  79.0390012 141.8394997  83.7829988
  78.7687462 141.1939060  84.6149158  80.1115964 141.7168538  83.6495429
  78.7520012 143.3034997  84.1569988  79.3384660 143.6028118  85.0204455
  77.7073951 143.4619155  84.4028517  79.0033794 143.9721006  83.3385107
 131.4500012  31.3544997  81.9939988 130.8467281  32.1403472  82.4377716
 132.4840137  31.6870157  82.0004119 131.3812623  30.4818052  82.6376535
 130.9680012  31.0194997  80.5319988 131.0182282  31.9429796  79.9576600
 129.9151636  30.7592451  80.5999294 131.7520012  29.8974997  79.7719988
 131.3109635  29.6885221  78.7974511 131.7197559  28.9604350  80.3243040
 133.2090012  30.2994997  79.5879988 133.7944850  29.7800423  80.3433945
 133.3057372  31.3613183  79.8091081 133.7960012  30.0204997  78.2609988
 133.2264708  30.5744006  77.5191080 133.6269966  28.9656828  78.0508468
 135.3060012  30.3434997  78.0809988 135.8680279  29.6202044  78.6690353
 135.4904354  31.3143772  78.5359248 135.8090012  30.3494997  76.7209988
 135.4521816  29.4770212  76.1767275 136.8964097  30.2884270  76.7144486
 135.3840012  31.5774997  76.0089988 135.8777577  32.4280633  76.4771836
 134.3174152  31.7151723  76.1767028 135.6500012  31.5954997  74.5819988
 134.9921192  30.8951966  74.0717950 136.6660111  31.2540683  74.3877683
 135.4700012  32.9484997  74.0039988 136.1671528  33.6221500  74.4974293
 134.4713839  33.3015058  74.2600833 135.6640012  33.0254997  72.4179988
 136.7099826  32.8250914  72.1959620 135.4760879  34.0468922  72.0915424
 134.7660012  32.0234997  71.5569988 133.7027498  32.2285740  71.6552839
 134.9055954  30.9886425  71.8640072 135.1980012  32.1624997  70.0889988
 135.5356927  33.1721384  69.8613014 134.4049080  31.9399685  69.3806506
 136.3850012  31.1934997  69.8409988 136.0917406  30.1538214  69.9430392
 137.1820491  31.3673651  70.5590359 136.9370012  31.4234997  68.4379988
 137.2056087  32.4634302  68.3022217 136.1975662  31.1551871  67.6928053
 137.8810012  30.3324997  68.0219988 138.4110012  29.5874997  68.8269988
 137.9710012  30.3024997  66.7739988 138.8280012  29.3654997  66.1529988
 139.2709404  28.8849303  67.0122542 139.6121996  29.7852727  65.5397978
 137.9830012  28.3554997  65.3529988 138.6421107  27.5288716  65.1452617
 137.4420012  28.9604997  64.0039988 136.5968708  28.3838634  63.6532192
 138.2329785  28.9003617  63.2668941 137.0670012  30.3104997  64.2169988
 135.6000012  30.8424997  64.0329988 134.6900012  29.6344997  64.1519988
 133.2720012  29.6284997  64.2999988 132.9529541  30.6214831  64.5887580
 133.0468146  28.9764777  65.1390192 132.4100012  29.0844997  63.1149988
 132.6485514  29.6462803  62.2207140 131.3740738  29.2581005  63.3681674
 132.5030012  27.6224997  62.7209988 132.3460012  26.7854997  63.9829988
 133.0382994  27.1518184  64.7285641 132.5856324  25.7619592  63.7359323
 131.3218304  26.8469681  64.3191726 131.4060012  27.3024997  61.6849988
 131.4482731  28.0431625  60.9011967 130.4490151  27.3031332  62.1754550
 131.6186378  26.3231208  61.2813904 133.8480012  27.4464997  62.1689988
 133.9785720  28.1145979  61.3307398 133.9653054  26.4250817  61.8394610
 134.5820877  27.6669814  62.9305365 135.1510012  31.7734997  65.1419988
 135.4030012  31.4194997  62.6649988 136.9710012  27.8394997  66.2349988
 135.8960012  27.0954997  65.8579988 135.7900012  26.5514997  64.7829988
 134.9160012  26.9924997  67.0159988 134.7586821  28.0064654  67.3690953
 133.9587816  26.6639817  66.6188670 135.4040012  26.0494997  68.1529988
 134.5459380  25.5888146  68.6300291 135.9882817  25.2355604  67.7356833
 136.2500012  26.8124997  69.2399988 137.0003493  27.4078661  68.7260236
 135.5823249  27.5198416  69.7257362 136.9240012  25.9334997  70.3349988
 137.5405640  25.1858630  69.8394226 137.6018598  26.5403144  70.9303856
 135.9470012  25.2074997  71.2789988 135.0699217  24.8591162  70.7374625
 136.4199447  24.3191069  71.6930804 135.4900012  26.1414997  72.4739988
 136.3387846  26.4082117  73.1017983 135.0659165  27.0764057  72.1184415
 134.4410012  25.4194997  73.3219988 133.8241507  26.1440965  73.8406844
 133.7733837  24.8612540  72.6670219 135.0790012  24.4604997  74.2879988
 134.9912003  23.4268429  73.9890027 135.7630012  24.7234997  75.4819988
 136.1884271  23.9221109  76.0688538 135.9920012  26.1504997  76.0879988
 137.0192412  26.4815157  75.9450743 135.3617102  26.9285990  75.6720952
 135.7290012  26.0334997  77.6039988 135.5381206  27.0298869  78.0008389
 134.8079220  25.4704912  77.7421787 136.8890012  25.3464997  78.4359988
 136.5711713  25.3260420  79.4784347 136.9551537  24.3095820  78.1183047
 138.2740012  25.9984997  78.3429988 139.0483614  25.3031575  78.6592432
 138.5123190  26.2731651  77.3169147 138.3080012  27.2914997  79.2489988
 137.5039742  27.9720646  78.9752069 138.1471840  27.0480024  80.2956467
 139.6770012  28.0624997  79.0769988 140.4858205  27.4440516  79.4619874
 139.8776033  28.1951486  78.0153976 139.7440012  29.4164997  79.7509988
 140.6583827  29.8716822  79.3786680 138.9289201  29.9664709  79.2857166
 139.6610012  29.6074997  81.2829988 139.6411436  30.6624625  81.5393737
 140.5097335  29.1649002  81.7933908 138.7602242  29.1523853  81.6850096
 102.3320012 134.9754997  81.6079988 103.1532113 135.2922449  82.2433847
 102.3467167 135.5934982  80.7148855 102.5268116 133.9511898  81.3023026
 101.0060012 135.0854997  82.3279988 100.9323070 136.1247293  82.6438690
 101.1268721 134.4988064  83.2346383  99.6840012 134.6754997  81.5929988
  98.9672403 134.2947950  82.3204923  99.8997487 133.8472355  80.9209850
  99.0380012 135.7914997  80.7899988  99.7998243 136.4805506  80.4321102
  98.3682721 136.3805284  81.4146699  98.2420012 135.2354997  79.5529988
  97.5070749 135.9447646  79.1809776  97.6923458 134.3303336  79.8058195
  99.2840012 134.9104997  78.3869988  99.6206177 133.8753648  78.3884694
 100.1823817 135.5225310  78.4306695  98.5530012 135.1934997  77.1029988
  97.5039772 134.9262646  77.2165952  98.9460448 134.5542695  76.3136120
  98.6610012 136.7124997  76.6499988  99.7134891 136.8863037  76.4297437
  98.4329307 137.3073900  77.5324801  97.8100012 137.2064997  75.4739988
  96.7749561 137.2445631  75.8068260  97.8501007 136.4478767  74.6933194
  98.2110012 138.5924997  74.8679988  99.2891877 138.5916392  74.7237348
  98.0034450 139.3594732  75.6137206  97.5130012 138.9574997  73.5689988
  96.4418038 138.9191839  73.7550338  97.7219548 138.1732723  72.8434274
  97.8420012 140.2984997  72.9609988  98.5101761 140.8342077  73.6309078
  96.9278600 140.8869718  72.9088797  98.4660012 140.2174997  71.5299988
  99.2810912 139.4967096  71.5666327  98.9173488 141.1749745  71.2854559
  97.5030012 139.7974997  70.3729988  96.4703513 139.8794520  70.6958968
  97.6748068 138.7520302  70.1309897  97.7010012 140.6294997  69.1049988
  98.7337767 140.5893262  68.7828159  97.4333358 141.6636552  69.2865108
  99.0670012 140.2644997  68.4749988  99.8500012 141.1324997  68.1159988
  99.2950012 138.9914997  68.4439988 100.6160012 138.6844997  68.1629988
 101.1890876 138.6722107  69.0778118 101.0655657 139.3847567  67.4739968
 100.5560012 137.2894997  67.5599988 101.5520375 136.8992614  67.4314698
  99.7770012 137.1874997  66.2309988 100.0958379 138.0312485  65.6341470
  98.7429362 137.3353776  66.5163526  99.9190012 135.9914997  65.5069988
 101.0570012 135.7894997  64.4689988 100.7750012 136.9794997  63.4889988
  99.4750012 137.2054997  62.8459988  98.7333077 136.4359461  63.0159017
  99.5658349 137.3133171  61.7690022  98.9680012 138.5994997  63.3579988
  99.3656594 138.6733946  64.3623177  97.8913673 138.6776399  63.4041576
  99.4600012 139.8824997  62.6099988 100.9710012 139.8614997  62.5409988
 101.3596203 139.6883356  63.5351433 101.3016817 140.8255349  62.1840863
 101.2795652 139.0931285  61.8480984  98.8100012 139.8514997  61.2969988
  97.7540247 139.6817427  61.4412568  99.2557527 139.0738832  60.7028707
  98.9708174 140.8143950  60.8341082  98.8740012 141.0824997  63.3249988
  97.7968857 141.0056615  63.3245241  99.1728536 141.9830798  62.8099332
  99.2385121 141.1099467  64.3417649 102.4480012 135.9984997  65.0089988
 100.8310012 134.5674997  63.7309988  99.8840012 136.4984997  68.6199988
 100.5040012 135.4284997  69.1799988 101.6760012 135.1304997  69.0279988
  99.5710012 134.6804997  70.1059988  98.5668673 134.7035789  69.6952244
  99.8422067 133.6296439  70.1696916  99.6450012 135.3674997  71.5099988
  99.5391335 136.4362762  71.3597662  98.7793777 135.0583824  72.0872124
 100.9540012 135.0914997  72.3249988 100.7440711 134.3098832  73.0507115
 101.6824012 134.6753242  71.6334090 101.5850012 136.3114997  73.0289988
 101.7444064 137.0983597  72.2940517 100.9014718 136.7207119  73.7689549
 102.9370012 136.0044997  73.7139988 102.7177927 135.3937161  74.5873784
 103.4864677 135.3640917  73.0267250 103.8580012 137.1944997  74.1319988
 104.8782697 136.8269274  74.2302008 103.8756164 137.9406653  73.3425404
 103.4330012 137.8794997  75.4499988 103.2141627 137.1069344  76.1778948
 104.2945786 138.4255494  75.8319150 102.2860012 138.8314997  75.3119988
 102.1096960 139.2402448  74.3284349 101.4410012 139.2174997  76.3029988
 100.6659002 139.9283267  76.0548992 101.4310012 138.7694997  77.7629988
 101.3094262 137.6877244  77.7772386 102.3851751 138.9739611  78.2356811
 100.2930012 139.3964997  78.6079988  99.3637054 138.9191795  78.2993245
 100.4650443 139.0879022  79.6373810 100.1270012 140.9124997  78.5599988
 101.1343548 141.3288073  78.5657842  99.7063353 141.1488714  77.5865140
  99.2610012 141.6174997  79.6979988  99.9115143 142.0900070  80.4306067
  98.6448503 142.4121352  79.2808686  98.3060012 140.5274997  80.4269988
  97.7189555 140.0022827  79.6759232  98.9105387 139.7681943  80.9154808
  97.3630012 141.1324997  81.4029988  97.8792167 141.8106420  82.0801453
  96.6069243 141.7295582  80.8963402  96.6300012 140.0184997  82.2659988
  97.3433671 139.2606624  82.5801750  96.2722426 140.4855746  83.1809648
  95.4500012 139.3464997  81.5639988  94.9408493 138.6619984  82.2357811
  95.7653584 138.7763415  80.6966981  94.7243497 140.0823052  81.2290941
 103.0470012 133.1524997  80.8059988 103.0200872 133.4191119  81.8579601
 102.0517104 132.8228893  80.5221974 103.2678890 134.0545917  80.2420391
 104.0720012 132.0824997  80.5389988 103.7847638 131.2721547  81.2068601
 104.9884498 132.5022051  80.9449339 104.3230012 131.5244997  79.1629988
 104.4281101 132.2973484  78.4016934 103.5137730 130.8790934  78.8271840
 105.6100012 130.6974997  79.2239988 105.5569409 130.0266662  80.0786432
 106.4593753 131.3535554  79.4080111 105.8750012 129.8644997  77.9619988
 104.9497197 129.3820267  77.6576191 106.5649124 129.0641725  78.2244183
 106.4360012 130.6434997  76.7819988 105.8411009 131.5483493  76.6717363
 106.2620370 130.0538745  75.8844155 107.9790012 131.0344997  76.8629988
 108.5393398 130.1501618  77.1608866 108.1050431 131.7593499  77.6660775
 108.5950012 131.6174997  75.5349988 108.4249080 130.9426779  74.6970638
 109.6742508 131.7295553  75.6207183 107.9730012 132.9724997  75.2229988
 108.2943638 133.6971125  75.9681184 106.8898372 132.9026346  75.3149324
 108.3230012 133.4804997  73.8499988 109.3981663 133.6434071  73.8220686
 107.8625117 134.4603378  73.7263233 107.8960012 132.5674997  72.6789988
 106.8994229 132.1755135  72.8706225 108.5542901 131.7026160  72.6176806
 107.8790012 133.3154997  71.2729988 108.8870431 133.7010371  71.1409712
 107.2387720 134.1831146  71.4213934 107.4200012 132.5754997  69.9939988
 108.1502405 132.8719438  69.2429173 106.4841458 133.0499756  69.7123584
 107.2490012 131.0214997  69.9139988 106.3976267 130.6889374  70.4987286
 108.1256206 130.5294480  70.3269340 107.0670012 130.5514997  68.4189988
 107.8900469 130.9013777  67.8088987 106.1417187 130.9406699  68.0109941
 105.6280012 130.7454997  67.9459988 104.6880012 131.0434997  68.6329988
 105.6070012 130.6394997  66.6079988 104.3580012 131.1674997  66.0889988
 103.6961686 130.9623999  66.9168718 104.0190980 130.6195488  65.2217695
 104.4030012 132.7174997  65.7959988 103.4979909 133.0102758  65.2899034
 105.6680012 133.0804997  64.8969988 105.4168546 133.8462354  64.1756284
 105.9839771 132.1922578  64.3642976 106.7510012 133.5544997  65.8049988
 108.2040012 133.2604997  65.4649988 108.3900012 134.4114997  64.4029988
 109.3150012 134.3384997  63.3049988 109.5018696 133.2880447  63.1238539
 110.2443042 134.7562188  63.6814340 109.0330012 135.1064997  61.9519988
 109.4708469 134.4530602  61.2079847 109.4700504 136.0894634  61.8512653
 107.6010012 135.2544997  61.5689988 107.0340012 136.2144997  62.4959988
 107.2744332 135.9048074  63.5037771 105.9625486 136.2148093  62.3615023
 107.4278758 137.1941751  62.2705750 107.6050012 135.8924997  60.1759988
 108.2774795 135.3324562  59.5444623 107.9099455 136.9201592  60.2614087
 106.5976175 135.8322506  59.7901942 106.9520012 133.9094997  61.4939988
 107.4779184 133.3005730  60.7737895 105.9241585 134.0283274  61.1856654
 106.9855072 133.4381973  62.4656913 109.0100012 133.5024997  66.6959988
 108.4740012 131.9304997  64.8199988 104.3480012 133.3424997  67.0519988
 104.2240012 134.6734997  67.1579988 104.2170012 135.4404997  66.2199988
 104.3330012 135.0814997  68.6229988 103.3993792 134.8072869  69.1033220
 105.1020739 134.4820535  69.1037257 104.6250012 136.5434997  68.7599988
 103.8662791 137.0493799  68.1730686 104.4218759 136.7970444  69.7956088
 106.0070012 137.0714997  68.3559988 106.0412327 137.0377078  67.2700244
 106.0054456 138.1245093  68.6266153 107.2940012 136.4024997  68.9559988
 107.1330298 136.2081625  70.0147845 107.4767222 135.4354262  68.4938472
 108.5870012 137.2904997  68.8059988 109.0139151 137.0766183  67.8282972
 108.2494860 138.3244880  68.7694920 109.7000012 137.1664997  69.8959988
 110.0431585 136.1346091  69.8399106 110.5287108 137.7838245  69.5606358
 109.3870012 137.5164997  71.3509988 108.7721781 136.7100814  71.7334412
 110.3349233 137.4589447  71.8843627 108.7610012 138.8524997  71.6279988
 109.2942893 139.7270687  71.2869903 107.6160012 139.0504997  72.2369988
 107.4084151 140.0994512  72.3926226 106.5530012 138.1374997  72.7489988
 105.5922718 138.6143953  72.5624762 106.5445888 137.2087784  72.1894570
 106.6480012 137.8414997  74.1839988 106.2116534 138.6821816  74.7221060
 105.9990650 136.9890838  74.3756442 108.0650012 137.5424997  74.7499988
 108.6078281 136.9566106  74.0082577 108.6027250 138.4815124  74.8480407
 108.0840012 136.7994997  76.0939988 107.2174567 136.1469223  76.1739266
 108.9581350 136.1545496  76.1648120 108.0970012 137.8134997  77.2769988
 108.9657724 138.4621431  77.1816661 107.2307975 138.4664065  77.2135250
 108.1550012 137.1344997  78.6889988 107.2544881 136.5301461  78.7823583
 108.9873457 136.4335808  78.6616252 108.2880012 137.9794997  79.9119988
 107.7443108 138.9049824  79.7393791 107.7427330 137.4576646  80.6953785
 109.7070012 138.3054997  80.4279988 109.6602966 138.8492565  81.3667299
 110.2633891 138.9168763  79.7255800 110.2782167 137.3975546  80.5997240
 132.8440012 105.4394997  84.2069988 131.7728808 105.5641517  84.0821309
 133.0589736 105.4677534  85.2713195 133.1058434 104.4490955  83.8448521
 133.5840012 106.4714997  83.4919988 133.2260911 107.4259155  83.8743517
 133.2545865 106.4140693  82.4580734 135.0760012 106.4444997  83.5579988
 135.4117426 106.7960690  84.5335015 135.4798789 107.1452630  82.8299984
 135.6880012 105.0334997  83.2799988 135.3727887 104.3669670  84.0797646
 136.7723161 105.1009679  83.3535858 135.3010012 104.3874997  81.9089988
 135.1959980 105.1558278  81.1472775 134.3269348 103.9091003  81.9967125
 136.3100012 103.3754997  81.4439988 136.3827320 102.5982046  82.2025102
 137.2837036 103.8595880  81.4102489 136.0090012 102.7084997  80.0379988
 134.9747285 102.3707489  80.0692148 136.6211563 101.8093441  79.9830869
 136.2260012 103.5364997  78.7919988 137.1896961 104.0282122  78.9183388
 135.4767110 104.3255876  78.8162573 136.1870012 102.8474997  77.4299988
 135.2984102 102.2206643  77.3979904 137.0383475 102.1703530  77.3729132
 136.1970012 103.7534997  76.2409988 137.1470767 104.2832626  76.2435810
 135.4261215 104.5085095  76.3930964 135.9830012 103.0924997  74.9159988
 134.9692592 102.7157002  74.7981415 136.6427218 102.2435779  74.7450354
 136.2280012 104.1324997  73.8569988 137.2339993 104.5264833  73.9793246
 135.5514086 104.9668126  74.0325393 136.0250012 103.6264997  72.4019988
 134.9752757 103.3872909  72.2404206 136.5772503 102.7080705  72.2237215
 136.4610012 104.7264997  71.2999988 137.5379780 104.6657484  71.1826307
 136.2461875 105.7001962  71.7322744 135.8320012 104.6524997  69.9899988
 134.7538928 104.6777792  70.0853107 136.1151894 103.7357387  69.4865877
 136.6650012 103.7724997  69.1059988 137.7240012 103.2314997  69.3479988
 135.9450012 103.5164997  67.9779988 136.5440012 102.5614997  67.1379988
 136.8595378 101.7151301  67.7292323 137.4054523 102.9896591  66.6462941
 135.4350012 102.1094997  66.0659988 135.8115222 101.3416147  65.4106527
 134.9470012 103.3314997  65.2259988 134.2823615 102.9840747  64.4466715
 135.8203061 103.7755408  64.7647495 134.2630012 104.3164997  66.0869988
 133.7410012 105.6604997  65.4909988 134.0630012 105.5264997  63.8829988
 134.1380012 106.6694997  63.0109988 135.1403720 107.0508787  62.8661137
 133.5469191 107.4953590  63.3961941 133.4880012 106.3004997  61.6669988
 134.1094091 105.5384407  61.2138239 133.4990666 107.1778524  61.0365174
 132.0250012 105.7474997  61.6079988 131.0990012 106.7234997  62.2789988
 131.4965864 106.9606566  63.2562483 130.1344730 106.2494223  62.3840517
 131.0055043 107.6016853  61.6578986 131.6730012 105.6264997  60.1889988
 132.4629653 105.0917417  59.6843162 131.5375438 106.6100043  59.7757918
 130.7508098 105.0665372  60.1315334 131.9200012 104.3884997  62.3389988
 132.6022248 103.6861506  61.8836322 130.9094635 104.0177824  62.2551392
 132.1714259 104.5194334  63.3816286 132.2620012 105.7024997  65.6229988
 134.5720012 106.7204997  66.0039988 134.3040012 101.5564997  66.8389988
 133.4060012 100.7794997  66.1899988 133.3900012 100.5074997  64.9989988
 132.3900012 100.4344997  67.2939988 132.3974019  99.3546819  67.4011990
 132.7538684 100.8297113  68.2391524 130.9290012 100.9924997  66.9609988
 130.6126599 100.5868143  66.0063215 130.2247880 100.6150904  67.6956272
 130.8540012 102.5144997  66.9059988 131.3794897 102.8692459  66.0230090
 129.8132464 102.8002023  66.7745886 131.4120012 103.2304997  68.1889988
 131.1517230 102.6948844  69.1000847 132.4940903 103.3364055  68.1973129
 130.7810012 104.6174997  68.2509988 131.0690681 105.1954514  67.3752761
 129.6982551 104.5177304  68.2053027 131.1570012 105.4164997  69.5489988
 132.2225714 105.6357123  69.5959751 130.6440113 106.3712751  69.6235859
 130.7580012 104.5404997  70.7709988 130.0124864 103.8164442  70.4635392
 131.6287958 103.9682852  71.0882265 130.2650012 105.3694997  71.9489988
 129.2041146 105.5671128  71.9809789 131.0070012 105.8624997  72.9469988
 130.5248493 106.4372747  73.7246704 132.5310012 105.7014997  73.1359988
 132.9239092 104.9115489  72.4981727 133.1099120 106.5900723  72.9102069
 132.7730012 105.2844997  74.6499988 133.8471468 105.2396144  74.8257870
 132.3960348 106.0882433  75.2795633 132.0960012 103.8954997  75.1029988
 131.1067646 103.7761361  74.6611048 132.6790972 103.0381462  74.7782712
 131.9660012 103.8784997  76.7009988 132.9787167 103.8278265  77.0946795
 131.5707019 104.8471377  77.0019371 131.0740012 102.7244997  77.3439988
 130.0801204 102.7876251  76.9049017 131.4761044 101.7646915  77.0314187
 130.9110012 102.7584997  78.9429988 130.0563363 102.1341366  79.1971677
 131.7828382 102.2640144  79.3675203 130.7390012 104.1404997  79.6399988
 131.5113217 104.8685920  79.4048021 129.7952072 104.6171941  79.3844046
 130.7530012 103.8384997  81.2089988 130.5496061 104.7412532  81.7770969
 131.7125818 103.4556413  81.5397033 129.9965145 103.1045922  81.4721503
 139.9030012  81.8134997  83.4369988 139.0623803  82.3518859  83.8635263
 140.7720150  82.0102104  84.0582151 139.6839280  80.7514207  83.5048753
 140.1640012  82.2504997  81.9229988 140.3534188  83.3219217  81.8858665
 139.2596572  82.0802615  81.3450757 141.2890012  81.5424997  81.3159988
 141.3311412  80.5493651  81.7630300 142.1943518  82.0550230  81.6351087
 141.3180012  81.4084997  79.7579988 140.9871826  82.3407830  79.3056086
 140.6130050  80.6467862  79.4286372 142.7410012  81.0664997  79.2129988
 143.0370356  80.0543195  79.4764906 143.4889991  81.7268033  79.6487317
 142.7680012  81.2144997  77.6429988 142.2958808  82.1406370  77.3202154
 142.2229688  80.4091743  77.1551794 144.2240012  81.1974997  77.1699988
 144.6817698  80.2176741  77.2931239 144.8437009  81.8955204  77.7312200
 144.2450012  81.5874997  75.6679988 143.5450387  82.4025794  75.4886986
 143.8987378  80.7510865  75.0636821 145.6150012  81.9994997  75.2049988
 146.3055374  81.1650867  75.3072516 145.9991650  82.7917576  75.8463430
 145.6140012  82.4934997  73.7169988 145.1904090  83.4954316  73.7180645
 144.9109392  81.8654589  73.1704664 146.9550012  82.4944997  72.9899988
 147.5643180  81.6542033  73.3158453 147.5281176  83.3908243  73.2207969
 146.7600012  82.3904997  71.4359988 147.6308640  82.7441923  70.8894475
 145.9218770  82.9968976  71.0976211 146.4750012  80.9154997  71.0839988
 146.0222810  80.4119850  71.9365065 147.3908810  80.3747816  70.8624990
 145.5150012  80.7844997  69.8919988 145.8622845  81.3905471  69.0616700
 144.5402904  81.1711647  70.1775177 145.3430012  79.3064997  69.4129988
 145.0284936  78.6759422  70.2349010 146.2784591  78.9255989  69.0206951
 144.2390012  79.0474997  68.3489988 143.0640012  78.8654997  68.6429988
 144.7090012  79.1964997  67.1169988 143.7470012  79.1664997  66.0399988
 142.8055570  78.9090029  66.5013450 143.9934476  78.4194282  65.2994987
 143.6630012  80.5894997  65.3939988 142.9037171  80.5144745  64.6332406
 144.9660012  81.0024997  64.7749988 145.2834009  80.1838339  64.1434572
 145.6556131  81.0875210  65.6055358 144.9300012  82.1934997  64.0489988
 144.4570012  82.3364997  62.5169988 143.5990012  83.6504997  62.5199988
 144.0990012  84.7684997  63.2529988 144.1512084  85.6739187  62.6625076
 145.1081821  84.5698563  63.6021285 143.2680012  84.9874997  64.5259988
 143.7434950  85.8452063  64.9847950 143.3387865  84.1480184  65.2024879
 141.7310012  85.3444997  64.4369988 141.6210012  86.4074997  63.3879988
 142.3290728  87.1922936  63.6161808 140.6168229  86.8034452  63.4188707
 141.8068363  85.9657310  62.4205161 140.9570012  84.1354997  64.0079988
 141.2464771  83.3039915  64.6321077 141.1605609  83.9381939  62.9706927
 139.9087443  84.3566367  64.1478307 141.1700012  85.7374997  65.7569988
 141.3126218  84.9293177  66.4588416 140.1151827  85.9402664  65.6479407
 141.6734941  86.6246709  66.1131687 145.6010012  82.5794997  61.6139988
 143.5630012  81.2394997  62.1109988 143.2800012  81.5364997  66.3099988
 142.0170012  81.5924997  66.7759988 141.0840012  81.0104997  66.2519988
 141.9020012  82.4854997  68.0099988 142.8224887  83.0588002  68.0497761
 141.1098809  83.2071096  67.8263374 141.6530012  81.7124997  69.3059988
 140.7608599  81.1161594  69.1493998 142.4687235  81.0065467  69.4254160
 141.4890012  82.5254997  70.5689988 140.6071763  83.1497547  70.4492299
 141.2576560  81.8238809  71.3666676 142.6710012  83.3724997  70.9979988
 143.4762738  82.7332737  71.3552551 143.0806584  83.9416696  70.1670785
 142.2840012  84.3584997  72.1409988 143.1247913  85.0056550  72.3821685
 141.4856854  85.0140797  71.7985257 141.8030012  83.6184997  73.4459988
 140.8328850  83.1661653  73.2460757 142.4820929  82.8007695  73.6706535
 141.6970012  84.5164997  74.6749988 142.7025020  84.7922286  74.9708395
 141.2061041  85.4370114  74.3619105 140.9510012  83.9474997  75.8029988
 140.8869113  82.8736571  75.7118472 140.3590012  84.5204997  76.9089988
 139.8823369  83.8112526  77.5703382 140.2580012  85.9474997  77.3659988
 140.7710210  86.5774490  76.6412950 139.2284378  86.2868941  77.3881718
 140.9220012  86.1844997  78.7879988 140.5894328  87.1417193  79.1877910
 140.5563201  85.4248953  79.4762847 142.4160012  86.1464997  78.7629988
 142.7213306  85.1528547  78.4350497 142.7647310  86.8382114  78.0011416
 143.1150012  86.4774997  80.1289988 142.9640974  87.5243406  80.3829615
 142.6700756  85.9009386  80.9381364 144.5700012  86.1774997  80.0559988
 144.6501094  85.1291608  79.7746480 144.9624591  86.7414793  79.2142572
 145.4340012  86.3984997  81.2739988 145.2862309  87.4190990  81.6224580
 145.0736311  85.7519698  82.0721006 146.9700012  86.1524997  81.0909988
 147.3955135  87.0366737  80.6229277 147.3871623  86.1194282  82.0950883
 147.4280012  84.8914997  80.3209988 148.5095477  84.7976392  80.3437206
 147.1260709  84.9203866  79.2794880 147.0085348  83.9913054  80.7612705
 148.9810012  65.2744997  80.3789988 149.7837156  65.2079495  81.1067690
 148.3969247  64.3611446  80.4455359 148.3367235  66.0988731  80.6721313
 149.5380012  65.4834997  78.9399988 150.2077451  64.6508994  78.7316173
 150.1591938  66.3745652  78.9705898 148.5050012  65.5974997  77.8059988
 148.1315988  64.5915718  77.6146643 149.0591240  65.8874599  76.9154697
 147.2980012  66.5704997  77.9759988 147.6583817  67.5823796  78.1476814
 146.7093115  66.3072370  78.8534059 146.3510012  66.5764997  76.6839988
 145.7998872  67.5128183  76.6500316 145.6083661  65.7889282  76.8005722
 147.0600012  66.3914997  75.4009988 147.2737092  65.3408823  75.2129854
 148.0206074  66.9021969  75.3999504 146.1880012  66.9464997  74.2569988
 146.6326393  66.6499605  73.3087733 146.2313037  68.0343850  74.2863297
 144.7650012  66.5104997  74.2899988 144.2258727  66.9865549  75.1080226
 144.6841150  65.4378852  74.4562503 144.0890012  66.8674997  72.9649988
 144.4450375  66.1902872  72.1915892 144.4041713  67.8655562  72.6631246
 142.5810012  66.8164997  73.0189988 142.2699788  67.4024657  73.8810938
 142.2951726  65.7865178  73.2308203 141.8420012  67.2964997  71.7639988
 141.9773748  68.3698312  71.6492192 140.7704972  67.1368117  71.8712701
 142.3430012  66.5904997  70.4499988 142.1300220  65.5262680  70.5153423
 143.4264095  66.6810170  70.3980087 141.7510012  67.1614997  69.1869988
 141.8359989  68.2463204  69.2215150 140.6883455  66.9410159  69.1377662
 142.4450012  66.6594997  67.8549988 141.9257939  65.8218549  67.4009944
 143.4661907  66.3352522  68.0370085 142.4750012  67.8744997  66.8289988
 142.9599333  68.7341876  67.2737666 141.4673469  68.1525738  66.5437329
 143.7620012  68.7934997  66.9799988 143.6490012  69.9684997  67.0149988
 144.8160012  67.9744997  67.1539988 145.9770012  68.7394997  67.5759988
 145.8200994  68.8656266  68.6366287 145.9927947  69.7108601  67.1033450
 147.2490012  68.0034997  67.3259988 147.9309436  68.5266937  67.9757037
 147.7730012  68.0554997  65.8519988 148.4707979  67.2512937  65.6619108
 148.2788733  68.9992109  65.6904826 146.6560012  67.9474997  65.0059988
 146.8960012  67.3794997  63.5399988 146.7730012  65.7384997  63.7349988
 145.8180012  65.3654997  64.6839988 146.0362793  65.7123604  65.6856131
 145.7321151  64.2843971  64.7443134 144.4000012  65.8674997  64.2069988
 144.5589227  66.8956175  63.9070542 143.7485826  65.8539237  65.0688842
 143.6150012  65.2274997  63.0829988 144.3410012  65.3384997  61.7209988
 144.6192278  66.3711660  61.5612356 143.6533104  65.0237242  60.9502214
 145.2010227  64.6857897  61.7280360 143.3670012  63.7254997  63.3399988
 142.9679433  63.6095274  64.3359994 144.2931027  63.1916768  63.2227844
 142.6457114  63.3876363  62.6100081 142.3080012  65.9514997  63.0409988
 141.8187297  65.8579447  63.9990921 141.6861340  65.5166082  62.2730140
 142.4805359  66.9946426  62.8184688 145.8550012  67.9944997  62.6989988
 148.3190012  67.5544997  63.1239988 147.1840012  66.5914997  67.7029988
 146.6820012  66.3264997  68.8869988 146.2980012  67.1624997  69.7369988
 147.0400012  64.9214997  69.1409988 146.3927332  64.2747010  68.5576904
 148.0526478  64.7065497  68.8089593 146.8880012  64.6744997  70.6589988
 147.7030493  65.1165171  71.2214737 145.9769706  65.1056602  71.0616858
 146.8890012  63.1514997  70.8829988 146.0347106  62.7617920  70.3353040
 147.7728784  62.7833467  70.3679363 146.8920012  62.5844997  72.3549988
 147.8580823  62.1220466  72.5487264 146.7936925  63.3951642  73.0728849
 145.7950012  61.5444997  72.6279988 145.7346062  60.8561654  71.7874934
 146.0924056  60.9472835  73.4878036 144.4070012  62.1384997  72.8999988
 144.5421036  63.0690369  73.4491333 143.9431079  62.4050963  71.9544580
 143.4410012  61.2184997  73.6829988 143.3722900  60.2200746  73.2670587
 143.7415510  61.0975338  74.7228944 142.0830012  61.9274997  73.6449988
 141.6154086  62.1606930  72.7002596 141.4150012  62.2734997  74.7619988
 140.4299189  62.7171981  74.7431638 141.9430012  62.0824997  76.0759988
 141.0976702  62.1044698  76.7616765 142.3748690  61.0913352  76.1582434
 143.0020012  63.1604997  76.5589988 144.0229723  62.8874860  76.2948276
 142.8214665  64.1335099  76.1061000 142.8840012  63.2834997  78.0759988
 141.8287413  63.3478950  78.3413040 143.2587326  62.3750353  78.5394346
 143.6320012  64.5064997  78.6599988 144.6586740  64.5528505  78.3037131
 143.1662323  65.4464172  78.3689672 143.6130012  64.3824997  80.2259988
 142.5813573  64.4294625  80.5696488 143.9784294  63.4015457  80.5172315
 144.4130012  65.4884997  80.9649988 144.1647871  65.4600964  82.0244637
 145.4752967  65.2608252  80.8977195 144.1780012  66.9784997  80.4269988
 144.3292433  67.0965382  79.3569017 143.1654737  67.3246147  80.6227166
 145.1330012  67.8534997  81.1619988 144.9702651  68.8974715  80.9115816
 146.1646635  67.6188166  80.9225459 145.0115035  67.7482244  82.2363807
 144.1880012  73.7974997  82.6859988 144.1574320  73.3286089  83.6645875
 143.8068228  74.8091335  82.7913081 145.2298993  73.8682924  82.3859176
 143.3560012  72.9854997  81.6409988 142.3181539  72.9086285  81.9606343
 143.7310788  71.9677897  81.5746881 143.4130012  73.6844997  80.2109988
 144.4490687  73.8621205  79.9229990 142.9447050  74.6649674  80.2706030
 142.7150012  72.8794997  79.1129988 141.7234370  72.6221935  79.4788459
 143.2463749  71.9365678  78.9937193 142.5680012  73.5774997  77.7069988
 142.1913591  74.5879606  77.8436824 141.8114732  73.0444172  77.1335413
 143.8940012  73.6384997  76.8799988 144.3000349  72.6299565  76.8271370
 144.6132736  74.2266684  77.4459331 143.7720012  74.2294997  75.4189988
 143.0996114  75.0852840  75.4361829 143.3041474  73.4879143  74.7729385
 145.0680012  74.6384997  74.8339988 145.4132655  75.5191880  75.3740280
 144.8848993  74.9617538  73.8109326 146.1790012  73.5724997  74.8379988
 146.3247593  73.2506237  75.8669261 147.1062108  74.0591586  74.5379615
 145.9400012  72.3344997  73.9429988 145.5004555  72.6208772  72.9900630
 145.2384257  71.6415969  74.4067946 147.2910012  71.6104997  73.7079988
 147.1323224  70.5412557  73.8307973 147.9915543  71.9035926  74.4880307
 147.9530012  71.8564997  72.2929988 148.9866799  71.5363497  72.3989770
 147.9803418  72.9382664  72.1759382 147.3210012  71.2264997  70.9969988
 148.0432312  71.2868526  70.1845991 146.4550173  71.7993794  70.6773820
 146.9010012  69.7034997  71.1669988 146.1315650  69.5287474  71.9118307
 147.7364205  69.0560659  71.4199730 146.3630012  69.2924997  69.7719988
 147.1033915  69.4896489  69.0071489 145.4629240  69.8476974  69.5360209
 145.1030012  70.1494997  69.4459988 144.0770012  70.2604997  70.1189988
 145.4030012  70.9914997  68.4289988 144.4880012  72.0984997  68.4639988
 144.6527456  72.5986186  69.4064436 143.4920535  71.6799178  68.4556625
 144.6790012  73.0684997  67.3139988 144.1476616  73.9863138  67.5042342
 144.1190012  72.3884997  66.0239988 143.0779874  72.1140031  66.1276473
 144.6910172  71.4987078  65.7923675 144.2750012  73.3454997  65.0139988
 143.0940012  73.7914997  64.0449988 143.9060012  74.9024997  63.1459988
 144.9300012  74.3594997  62.2559988 144.5404839  73.9264665  61.3438872
 145.5027439  73.5784556  62.7476622 145.9060012  75.4284997  61.9609988
 145.3732894  76.2912220  61.5812919 146.6055563  75.0935630  61.2087907
 146.7480012  75.9384997  63.1149988 148.0280012  76.6214997  62.5729988
 148.5116909  75.9474709  61.8794113 148.6828892  76.8137987  63.4098039
 147.7553852  77.5550535  62.1040908 146.1590012  77.0564997  64.0409988
 145.1701291  76.7573503  64.3530174 146.1363242  77.9851646  63.4993004
 146.8091601  77.1403798  64.8998087 147.1420012  74.7494997  63.9959988
 146.2482221  74.2574716  64.3497635 147.7159194  75.1066278  64.8378582
 147.7381116  74.0560735  63.4204577 142.7990012  72.5914997  63.2019988
 142.0060012  74.4114997  64.8329988 146.0540012  73.3624997  67.1149988
 146.6650012  73.9824997  68.0859988 146.1490012  74.3014997  69.1999988
 148.1910012  74.1594997  67.7899988 148.3016095  73.7321237  66.7987023
 148.3326470  75.2306407  67.6695810 149.1910012  73.5844997  68.7689988
 148.8445443  72.6566188  69.2106612 150.1501481  73.3601647  68.3132093
 149.3720012  74.6284997  69.8739988 149.5911531  75.6119439  69.4659988
 148.4557207  74.7362607  70.4492227 150.5150012  74.1824997  70.8379988
 150.3536212  73.1565798  71.1638070 151.4870425  74.1973889  70.3510532
 150.5710012  75.1024997  72.1109988 151.5407004  74.9952380  72.5927448
 150.5045982  76.1407984  71.7917695 149.4410012  74.8274997  73.1539988
 148.4949573  75.1005105  72.6890611 149.3942048  73.7580019  73.3392085
 149.5740012  75.5594997  74.5109988 150.0075937  76.5289713  74.2948918
 148.5571050  75.7476319  74.8528678 150.3220012  74.8664997  75.5989988
 151.1636359  74.2255948  75.3834854 149.9790012  75.0274997  76.9229988
 150.5455847  74.4669852  77.6526676 148.8750012  75.9204997  77.5329988
 149.3718080  76.7331948  78.0601899 148.2881758  76.3825155  76.7469591
 147.8880012  75.1734997  78.5709988 147.0447641  75.8179719  78.8165835
 147.4658852  74.2889153  78.0979368 148.5840012  74.7744997  79.8159988
 148.0343142  73.9310769  80.2338375 149.5615832  74.3913922  79.5365957
 148.7520012  75.8854997  80.9239988 149.3122463  76.6997496  80.4698320
 147.7611788  76.2813191  81.1400615 149.4130012  75.4624997  82.2179988
 148.6722459  74.9839434  82.8558510 150.1650736  74.7046174  82.0164384
 150.0420012  76.6364997  83.0149988 150.6571927  76.3242999  83.8569927
 150.6656723  77.2953052  82.4134644 148.8470012  77.4524997  83.5559988
 148.3783797  77.9449852  82.7076080 148.1270733  76.7154884  83.9050421
 149.0790012  78.4514997  84.6459988 148.1397815  78.8806453  84.9818104
 149.7114371  79.2696598  84.3183102 149.5569250  77.9885545  85.5047255
   2.5570012  47.0854997  82.4119988   2.8443239  46.9552829  83.4507086
   1.7267867  46.4144923  82.2112922   2.1933937  48.1026808  82.2947636
   3.7100012  46.8144997  81.4889988   4.0740247  45.7981566  81.6294857
   4.5407991  47.4722401  81.7297608   3.2970012  47.0024997  80.0319988
   3.0782312  48.0586766  79.8752859   2.3557781  46.4755196  79.8886036
   4.2980012  46.5224997  78.9519988   4.9069764  45.7355066  79.3913632
   4.9801326  47.3404313  78.7253038   3.6690012  45.9844997  77.6169988
   3.0250776  45.1380808  77.8417443   4.4723793  45.5994944  76.9911238
   2.8240012  47.0774997  76.7849988   2.8885643  46.7863830  75.7381465
   3.3633496  48.0182190  76.8729042   1.3100012  47.3074997  77.1699988
   1.2525119  47.6240874  78.2098243   0.7807920  46.3573677  77.1115440
   0.6030012  48.3304997  76.2939988   1.0656998  49.3138682  76.3671240
  -0.4378226  48.4620558  76.5839348   0.6660012  47.8434997  74.8219988
   0.6544652  46.7565496  74.7778686   1.5988549  48.1563728  74.3545897
  -0.5279988  48.4034997  74.0059988  -0.6189582  49.4799912  74.1332438
  -1.4724616  47.9756423  74.3411960  -0.3179988  48.0634997  72.5139988
  -1.2799175  47.9881479  72.0114298   0.1576801  47.0905307  72.4035950
   0.5300012  49.1314997  71.7849988   1.3831423  49.4397260  72.3844699
  -0.0535858  50.0317157  71.6014032   1.0030012  48.5754997  70.4449988
   0.1482120  48.5514521  69.7711967   1.3184590  47.5438357  70.5731775
   2.1410012  49.3704997  69.7469988   2.2956204  48.9676391  68.7514380
   3.0589392  49.1972955  70.3024104   1.9050012  50.9044997  69.6469988
   1.7150377  51.3233691  70.6270515   1.0553525  51.1148092  69.0083000
   3.0930012  51.4114997  68.8689988   4.0890012  51.8174997  69.4399988
   2.9150012  51.4434997  67.5629988   3.7910012  52.1924997  66.6909988
   4.3139777  52.8221069  67.3949535   3.2017577  52.8133757  66.0318349
   4.7960012  51.3344997  65.8909988   5.4216063  51.9900206  65.3080713
   4.1180012  50.2704997  64.9539988   4.8048840  49.9740254  64.1729124
   3.2495034  50.7281148  64.4969592   3.7270012  49.1264997  65.7439988
   2.2540012  48.5034997  65.7769988   2.0570012  48.1254997  64.2449988
   2.8590012  47.4454997  63.3879988   2.2847383  46.6569916  62.9193132
   3.6240474  46.9566435  63.9842545   3.6430012  48.2824997  62.3189988
   4.2524532  47.5781397  61.7670077   4.2872796  49.0328345  62.7540619
   2.7930012  49.0144997  61.2669988   1.7500012  48.0784997  60.7459988
   2.2320618  47.1601484  60.4400863   1.2804605  48.5445457  59.8925161
   1.0137404  47.9096717  61.5174482   2.1460012  50.2804997  61.8589988
   2.9113182  50.8554942  62.3573813   1.3659088  49.9904687  62.5399599
   1.7331137  50.8469332  61.0368224   3.7900012  49.4854997  60.2409988
   4.5199384  50.1209611  60.7200211   3.2732737  50.0423129  59.4737949
   4.2824172  48.6317781  59.7981434   2.3490012  47.2414997  66.4959988
   1.1460012  49.4594997  66.0989988   5.6330012  50.7544997  66.8959988
   6.6580012  50.0104997  66.5079988   7.1060012  49.9274997  65.4059988
   7.1940012  49.2874997  67.7379988   8.2146241  48.9824201  67.5310971
   7.2537098  49.9759796  68.5772468   6.2810012  48.0744997  68.0729988
   5.2832227  48.4036342  68.3416428   6.1599283  47.4157523  67.2189342
   6.9030012  47.2764997  69.2799988   7.5703902  46.4903317  68.9362172
   7.5059476  47.9372490  69.8980043   5.7910012  46.6794997  70.1449988
   4.9415253  47.3566564  70.0775044   5.4703276  45.7437318  69.6936574
   6.1020012  46.4304997  71.6549988   5.1672872  46.1263772  72.1216039
   6.7541334  45.5598447  71.6876246   6.7450012  47.5594997  72.4859988
   7.1525994  47.1827361  73.4228092   7.5670702  48.0444556  71.9670206
   5.6520012  48.6244997  72.7919988   5.4996828  49.2563125  71.9247089
   4.7033287  48.1219036  72.9757477   6.0020012  49.4354997  73.9929988
   6.6398692  48.9880966  74.7403333   5.5890012  50.7064997  74.2149988
   5.9104631  51.2963679  75.0613602   4.6390012  51.4234997  73.2919988
   5.0246964  52.4340041  73.1681401   4.6672932  50.9652804  72.3096975
   3.1790012  51.5204997  73.7689988   2.5857814  52.1069671  73.0683910
   2.7299072  50.5293967  73.7911007   3.0850012  52.1644997  75.2059988
   3.6395129  51.5347279  75.9017079   3.5930034  53.1248693  75.1946901
   1.6500012  52.3504997  75.7249988   0.9992606  52.6046245  74.8912708
   1.2791388  51.4080349  76.1241307   1.5580012  53.4134997  76.7929988
   2.0668923  54.3151736  76.4574336   0.5225828  53.7001227  76.9554211
   2.2000012  52.9744997  78.1259988   1.6581731  52.1497498  78.5854474
   3.2207933  52.6237702  77.9852644   2.2220012  54.1834997  79.1359988
   2.5678947  55.0953128  78.6555101   1.2066997  54.3903441  79.4671955
   3.0870012  53.8944997  80.3589988   3.0171297  54.7031451  81.0803029
   4.1337754  53.7815143  80.0977729   2.7701224  52.9810809  80.8543724
   5.7920012 108.1854997  82.8619988   5.5643778 107.7472841  83.8287375
   5.7417131 109.2653613  82.9676390   6.8180321 107.9266997  82.6152293
   4.8690012 107.7114997  81.8339988   3.8549238 107.9614202  82.1412282
   4.9213752 106.6264176  81.8081537   5.1420012 108.3164997  80.3599988
   5.9995439 107.8470136  79.8781978   5.3677992 109.3799832  80.4067851
   3.9000012 108.1214997  79.4829988   3.0935922 108.7812863  79.7954667
   3.5058424 107.1089535  79.5543793   4.2480012 108.4304997  78.0169988
   5.0518739 107.7683177  77.7057487   4.6522167 109.4407041  77.9787649
   3.0780012 108.3094997  77.0069988   2.1537743 108.5499141  77.5293230
   2.9954804 107.2670209  76.7069897   3.1990012 109.2114997  75.7219988
   4.2497417 109.3696861  75.4860087   2.7818456 110.1962711  75.9280000
   2.4990012 108.6134997  74.5149988   1.7423592 109.3462360  74.2374352
   1.9593222 107.7505799  74.9007449   3.2790012 108.2034997  73.2749988
   3.7532285 109.0722923  72.8235026   2.6044623 107.7997555  72.5209663
   4.3330012 107.1724997  73.6039988   3.8789924 106.4789582  74.3083959
   5.1217256 107.6894533  74.1499856   4.9260012 106.4344997  72.4849988
   4.1523475 105.9037837  71.9342343   5.6175178 105.6739357  72.8434333
   5.6700012 107.3804997  71.4969988   6.5319559 107.7948386  72.0142765
   5.0102493 108.2198597  71.2851682   6.1000012 106.7574997  70.1809988
   6.7691928 107.4160477  69.6298645   5.2666233 106.5457101  69.5169953
   6.8850012 105.3974997  70.4829988   6.2294729 104.6906312  70.9809593
   7.7013641 105.6066016  71.1692348   7.4860012 104.7204997  69.1709988
   8.1181751 105.4201637  68.6391461   6.6877544 104.4020582  68.5111001
   6.4980012 103.6654997  68.7659988   6.2630012 102.7564997  69.5739988
   6.0620012 103.8394997  67.5539988   4.9940012 103.0134997  67.0519988
   4.8270250 102.2407014  67.7870932   5.3118590 102.5571487  66.1257687
   3.6910012 103.8544997  66.8439988   2.9723453 103.1228893  66.5135836
   3.8180012 104.9514997  65.8129988   4.0714278 104.5358753  64.8471663
   4.6092267 105.6241913  66.1196468   2.5230012 105.6734997  65.7439988
   2.2070012 106.3434997  64.2789988   3.4890012 107.0824997  63.8469988
   3.6440012 107.2694997  62.4489988   2.8034657 107.7612810  61.9769391
   3.7683274 106.3171774  61.9416308   4.9540012 108.0404997  62.1889988
   4.8975926 109.0753306  62.5023549   5.0862450 108.0089339  61.1171349
   6.2460012 107.4964997  62.7859988   6.3520012 107.9354997  64.2599988
   6.1978453 109.0044600  64.3137929   7.3446747 107.6931967  64.6092674
   5.6210143 107.3931055  64.8406740   6.1890012 106.0154997  62.6569988
   5.9300540 105.7699029  61.6384986   5.4635167 105.6303143  63.3510265
   7.1715415 105.6326822  62.8922905   7.4060012 108.1664997  62.1049988
   7.3528984 107.9768226  61.0432621   8.3280323 107.7657667  62.4985996
   7.3667873 109.2304532  62.2891186   2.0130012 105.2124997  63.3499988
   1.0600012 107.2724997  64.5139988   3.2280012 104.5394997  68.0529988
   2.6400012 103.9244997  68.9369988   2.4510012 102.7334997  69.0719988
   2.1550012 104.9624997  69.9679988   2.9981552 105.4958749  70.3947952
   1.5173397 105.7219487  69.5224293   1.3800012 104.1384997  71.0439988
   0.7363174 103.4241531  70.5425596   2.0820273 103.5516933  71.6278229
   0.5400012 105.0024997  71.9649988   1.1708445 105.8212703  72.3016074
  -0.2316605 105.4500977  71.3435012  -0.1219988 104.3364997  73.1509988
  -0.5563467 105.1131112  73.7778340  -0.9512203 103.7201532  72.8123089
   0.8190012 103.4714997  74.0279988   0.2172387 102.9524441  74.7712109
   1.2465830 102.6992502  73.3914569   1.9680012 104.2214997  74.7329988
   2.7706671 104.4213139  74.0248303   1.6359947 105.1883272  75.1008768
   2.5080012 103.4324997  75.8819988   1.7358442 103.0904928  76.5612520
   3.0417710 102.5425183  75.5512891   3.5280012 104.3894997  76.6149988
   3.1041482 105.0229303  77.3796348   4.8890012 104.4924997  76.3949988
   5.4175568 105.2031088  77.0140897   5.7360012 103.7834997  75.4519988
   5.1974068 103.6698956  74.5127271   6.6384297 104.3377227  75.2193175
   6.1130012 102.3864997  75.9609988   5.2322303 101.7934859  76.2044784
   6.6554976 101.8261351  75.2019545   7.0310012 102.5354997  77.2599988
   7.7958697 101.7592475  77.2827078   7.5608827 103.4840396  77.2612488
   6.1550012 102.4294997  78.5419988   5.5160301 103.3095896  78.5593967
   5.4927053 101.5751735  78.4132511   6.8840012 102.2984997  79.8509988
   6.2062475 101.9792926  80.6405219   7.6617963 101.5412684  79.8034535
   7.4670012 103.5994997  80.2499988   8.2831387 103.8318222  79.5682153
   6.7144828 104.3702810  80.0936461   7.9890012 103.7124997  81.6949988
   8.6693401 102.8949315  81.9200236   8.5815469 104.6212063  81.7753397
   6.8460012 103.7564997  82.7779988   7.2592917 103.9245073  83.7679651
   6.2848209 102.8288263  82.8132107   6.1437069 104.5593324  82.5721267
 116.0370012 129.9434997  83.8589988 116.1989991 130.3842634  84.8377291
 115.5294610 128.9940673  84.0031210 115.3637996 130.5961920  83.3099957
 117.3480012 129.7584997  83.1129988 118.0012344 129.1285575  83.7143823
 117.8372913 130.7262150  83.0427409 117.1880012 129.1024997  81.6299988
 116.5616212 129.7279286  80.9940618 116.6826336 128.1412042  81.6984505
 118.5330012 128.8924997  80.9569988 118.3110035 128.6062620  79.9313112
 118.9806680 128.0167055  81.4242086 119.5890012 130.0734997  80.9359988
 119.8171935 130.3409086  81.9645870 119.0964014 130.9396389  80.4972353
 120.8650012 129.8134997  80.2099988 120.6591627 129.1556665  79.3675600
 121.5356312 129.2646366  80.8677082 121.5780012 131.0844997  79.7019988
 122.6026962 130.7996474  79.4704187 121.6363304 131.7713365  80.5452561
 120.9520012 131.8354997  78.4599988 121.1579583 132.8940518  78.6132959
 119.8734281 131.7197235  78.5492175 121.3940012 131.4294997  77.0249988
 121.5394617 130.3514754  77.0093200 122.3717943 131.8705079  76.8352375
 120.3940012 131.8444997  75.8549988 120.8968948 131.9154127  74.8930381
 119.9330615 132.8161243  76.0308087 119.3090012 130.7794997  75.7979988
 119.1808394 130.3319423  76.7812627 119.6036466 129.9692944  75.1332585
 117.9570012 131.3404997  75.3429988 117.7668239 132.2030786  75.9770407
 117.2208717 130.5892519  75.6230172 117.7290012 131.7354997  73.7709988
 118.4392961 132.5154817  73.5019984 116.7401525 132.1636194  73.6325582
 117.9000012 130.6454997  72.8529988 117.3655214 129.7833140  73.2381120
 118.9552746 130.3857295  72.8499196 117.4720012 130.9004997  71.4539988
 117.9686749 131.7779390  71.0597191 116.4008609 131.0578790  71.4097349
 118.0370012 129.7934997  70.5529988 118.5360012 128.7984997  71.0949988
 117.8800012 130.0544997  69.2869988 118.3640012 128.9774997  68.4779988
 117.8108103 128.1351989  68.8652601 119.4183012 128.8173700  68.6512094
 118.0790012 129.1584997  67.0049988 118.5068711 128.3217053  66.4781245
 118.7010012 130.4614997  66.5029988 119.7789566 130.3761385  66.4800522
 118.4302962 131.2545281  67.1888629 118.1880012 130.7414997  65.1819988
 117.3560012 132.0784997  64.8739988 116.7150012 131.8874997  63.4769988
 117.3690012 131.0404997  62.5489988 118.4315697 130.9657568  62.7401808
 117.2641441 131.4454300  61.5465850 116.7230012 129.6564997  62.4919988
 116.9156763 129.2019483  63.4555902 117.1573677 129.0354197  61.7219583
 115.2370012 129.5794997  62.2939988 114.8790012 130.1374997  60.9269988
 115.3379900 131.1107922  60.8203931 113.8046538 130.2347055  60.8777159
 115.2157297 129.4477033  60.1677149 114.8320012 128.1564997  62.3039988
 115.2597057 127.6845471  63.1752298 115.1709466 127.6886413  61.3970288
 113.7533586 128.1279954  62.3589046 114.5020012 130.3104997  63.3799988
 114.7679971 129.8866405  64.3369061 113.4391903 130.2066182  63.2209648
 114.7703346 131.3568506  63.3558772 116.2600012 132.1634997  65.8399988
 118.3250012 133.1804997  64.8609988 116.6290012 129.1054997  66.7909988
 116.0860012 127.9844997  66.4759988 116.5670012 126.9484997  66.1629988
 114.5380012 128.1604997  66.5909988 114.2833998 129.1657969  66.2714543
 114.0301885 127.4914534  65.9007738 114.1140012 127.8964997  68.0139988
 113.1452327 127.4135267  67.9485320 114.7969707 127.1477538  68.4025412
 114.0220012 129.0794997  68.9949988 113.6652438 128.6835504  69.9424176
 115.0429232 129.4100176  69.1697586 113.1460012 130.3404997  68.5649988
 113.7005316 130.9601065  67.8626532 112.2330033 130.0445629  68.0540600
 112.7770012 131.2004997  69.7799988 113.6796302 131.5862019  70.2494618
 112.2156880 132.0698419  69.4430231 111.9370012 130.4484997  70.8289988
 111.1243372 129.9470403  70.3057237 112.5461634 129.6652684  71.2714782
 111.3710012 131.2934997  71.9279988 110.6729249 131.9686362  71.4468957
 110.7727676 130.6146256  72.5342929 112.3090012 132.0374997  72.8269988
 112.5849899 133.0498221  72.5728580 112.8330012 131.5224997  73.9639988
 113.5352975 132.0643210  74.5811045 112.4900012 130.1574997  74.4819988
 112.3148531 130.2984477  75.5472113 111.5359302 129.8728676  74.0525640
 113.4740012 129.0264997  74.3109988 112.9969710 128.0581471  74.4574246
 113.8776548 129.0159486  73.3003498 114.6470012 129.1894997  75.3309988
 115.5336663 128.6619978  74.9793261 114.9339112 130.2326793  75.4308130
 114.2340012 128.6264997  76.7309988 113.3375724 129.1265023  77.0909402
 113.9871167 127.5681912  76.6668402 115.3850012 128.8194997  77.7389988
 115.1896955 128.1497954  78.5744280 116.2934835 128.4517037  77.2699455
 115.6230012 130.2494997  78.3159988 116.5712689 130.2621141  78.8503321
 115.7336520 130.9478078  77.4883780 114.5180012 130.7804997  79.2619988
 113.5182189 130.5909418  78.8793524 114.5695225 130.2698650  80.2211186
 114.7000012 132.2984997  79.4969988 113.9844827 132.6639593  80.2274381
 114.5555224 132.8699969  78.5863628 115.6959689 132.5191645  79.8704907
 106.4330012   6.6014997  79.8169988 107.2989705   6.4676396  80.4577855
 106.3578903   5.7286412  79.1749189 105.5515707   6.6193059  80.4521170
 106.5460012   7.9094997  78.9789988 107.4390521   7.8877578  78.3567525
 106.6523741   8.7688087  79.6355707 105.3160012   8.0784997  78.0869988
 104.4300685   8.1635374  78.7161418 105.1865913   7.1673658  77.5062586
 105.3660012   9.2674997  77.1209988 105.7201551  10.1401227  77.6653828
 104.3560475   9.5069702  76.7918277 106.2780012   9.0534997  75.8749988
 107.3027436   8.8460069  76.1723585 106.3120102   9.9606912  75.2739898
 105.7740012   7.9104997  75.0239988 104.6855696   7.9213816  75.0279156
 106.0704201   6.9702749  75.4840968 106.2720012   7.9444997  73.5859988
 106.0693065   8.9244958  73.1578722 105.7047798   7.2295691  72.9915543
 107.8120012   7.6264997  73.4529988 108.3205196   8.3586487  74.0789522
 108.0776291   7.8683099  72.4255487 108.3320012   6.2204997  73.7929988
 107.6109537   5.8170704  74.5007250 109.2493920   6.3873006  74.3561582
 108.6000012   5.1694997  72.6729988 107.6165676   4.8462890  72.3387948
 109.0493715   4.3120969  73.1733544 109.5110012   5.5794997  71.3989988
 110.3402458   6.2026485  71.7269923 108.9365543   6.1844728  70.6996088
 110.0780012   4.3734997  70.6699988 110.7529034   3.8881223  71.3708088
 110.7030480   4.7746964  69.8743684 109.0980012   3.3254997  70.0539988
 108.3159470   3.0962916  70.7758761 109.6099023   2.3887207  69.8523151
 108.4120012   3.8234997  68.7429988 109.1977038   3.9335179  68.0027878
 108.0467754   4.8227423  68.9648464 107.2670012   3.0094997  68.1429988
 106.4846996   2.8584704  68.8759622 107.6248677   2.0418209  67.8119423
 107.0410012   3.4134997  66.7179988 107.9200012   3.4494997  65.8879988
 105.7220012   3.5124997  66.4569988 105.4600012   3.8814997  65.0939988
 105.5737726   2.9695383  64.5275673 106.1602790   4.6164933  64.7244216
 104.0040012   4.4004997  64.9889988 103.3961037   3.5587050  64.7013593
 103.8630012   5.5284997  63.9479988 102.8043122   5.6831417  63.7896813
 104.2957563   5.1327164  63.0376892 104.4920012   6.7424997  64.3049988
 103.9380012   8.1534997  63.7209988 105.3340012   8.9584997  63.7159988
 106.3760012   8.6424997  64.6009988 105.9814300   8.5330502  65.6027589
 107.0542699   9.4904480  64.6280569 107.2530012   7.4354997  64.2169988
 106.5653585   6.5992008  64.2178637 107.9420031   7.3194236  65.0411224
 108.0910012   7.2844997  62.9439988 108.8100012   8.5804997  62.7199988
 108.0901449   9.3863560  62.7616704 109.2610729   8.5461480  61.7394611
 109.5796736   8.6883943  63.4694520 109.1970012   6.1644997  63.1469988
 108.7203815   5.2792989  63.5393853 109.9522919   6.5343401  63.8171658
 109.6267770   5.9555072  62.1780241 107.1860012   7.0024997  61.8309988
 106.6272307   6.1038092  62.0459710 107.7644806   6.8622732  60.9302501
 106.5072171   7.8326953  61.6988531 103.4460012   7.9564997  62.3199988
 102.9640012   8.7544997  64.6579988 103.5710012   4.8394997  66.2629988
 102.3520012   4.7704997  66.6239988 101.4480012   4.4434997  65.9259988
 102.2270012   5.0104997  68.1009988 101.1689031   4.9141251  68.3216648
 102.7132266   4.1803571  68.6073139 102.7950012   6.3614997  68.5789988
 103.8777458   6.3164063  68.5378706 102.5004791   7.1411382  67.8836906
 102.3680012   6.7354997  69.9809988 102.7138494   7.7454240  70.1861712
 101.2816979   6.7797272  69.9883616 102.8320012   5.7744997  71.1089988
 102.4054686   4.7998433  70.8791709 103.9104776   5.6602514  71.0312947
 102.4630012   6.1394997  72.6049988 102.8909979   7.1015746  72.8791002
 101.3843921   6.2501722  72.6984601 102.9160012   5.1124997  73.5609988
 102.5013929   5.4091379  74.5231873 102.4161868   4.1886487  73.2835046
 104.4310012   4.8274997  73.7219988 104.8848166   5.0278177  72.7584095
 104.8102057   5.5877384  74.4036049 104.8410012   3.4474997  74.2499988
 105.2615401   2.7943750  73.5002460 104.7580012   2.9814997  75.4639988
 105.1411081   1.9831114  75.6191113 104.2290012   3.6014997  76.6569988
 104.8891110   4.4065238  76.9754515 103.2541048   4.0508504  76.5042177
 104.1430012   2.5624997  77.8039988 103.6331355   1.6594467  77.4704760
 105.1421178   2.2530835  78.1048086 103.4120012   3.1434997  79.0129988
 103.9532249   4.0552796  79.2656669 102.4394853   3.4595232  78.6457849
 103.2290012   2.2944997  80.2829988 102.6104232   1.4360783  80.0307706
 104.1974827   1.8951430  80.5790440 102.6520012   3.0064997  81.3899988
 103.0802897   4.0067195  81.4168168 101.5892985   3.1434716  81.2096469
 102.8690012   2.3724997  82.7419988 102.4119554   1.3846365  82.7528913
 103.9350773   2.2134668  82.8937362 102.3060012   3.2004997  83.9669988
 102.9089121   3.0174471  84.8529475 102.4243142   4.2581556  83.7418790
 100.8440012   2.9294997  84.2849988 100.4927014   3.5877950  85.0738617
 100.6836554   1.9094409  84.6174297 100.2175968   3.0946305  83.4129378
  86.2270012 141.1174997  79.4069988  85.2881418 140.9383793  78.8923262
  86.5086562 142.1518290  79.2320040  86.0472363 141.0014010  80.4722770
  87.3150012 140.1594997  78.9259988  87.4092133 140.2953736  77.8499572
  86.9345415 139.1524869  79.0742879  88.7120012 140.3034997  79.5819988
  88.6749297 140.0469604  80.6406499  89.0454797 141.3382450  79.5344045
  89.7470012 139.4314997  78.8909988  89.2630956 138.5465359  78.4836603
  90.4796499 139.0700433  79.6109161  90.4650012 140.1564997  77.7619988
  91.0290149 140.9960425  78.1602817  89.7258221 140.5793369  77.0836272
  91.4470012 139.2194997  76.9459988  91.6506470 138.3149722  77.5162404
  92.4051587 139.7172728  76.8128336  90.8610012 138.8224997  75.5239988
  90.4381331 139.6911641  75.0226260  90.0483149 138.1046361  75.6261891
  91.9760012 138.2104997  74.6349988  92.4188116 137.3259742  75.0910522
  92.7940973 138.9091821  74.4699366  91.3740012 137.8374997  73.3189988
  90.6576043 138.5924976  73.0023055  90.8149610 136.9067894  73.4074827
  92.5010012 137.6714997  72.1949988  93.0480201 136.7574808  72.4155409
  93.2114930 138.4889427  72.3150704  92.0080012 137.6474997  70.7649988
  92.8764495 137.5889188  70.1123835  91.5295008 138.6006029  70.5464590
  91.0940012 136.5564997  70.4159988  90.1516630 136.6449658  70.9511543
  91.5162870 135.5946863  70.7010597  90.8450012 136.5524997  68.9119988
  90.5105074 135.5511776  68.6460662  91.7946021 136.7005868  68.4054395
  89.7960012 137.5804997  68.3469988  89.9939495 138.5615830  68.7660895
  88.8101511 137.2831417  68.6945184  89.7630012 137.6854997  66.7759988
  89.5996982 136.7106375  66.3343915  90.7000666 138.0829744  66.4045271
  88.5900012 138.5364997  66.1819988  87.6710012 138.9074997  66.8539988
  88.8070012 138.7304997  64.8739988  87.7150012 139.3064997  64.1139988
  86.9032014 139.4775005  64.8047967  87.3793194 138.6403602  63.3324823
  88.2240012 140.6914997  63.5049988  87.4090997 141.0992588  62.9300534
  89.4800012 140.5254997  62.5989988  89.2069409 139.9430224  61.7295395
  90.2116482 139.9703808  63.1726892  89.9980012 141.7574997  62.2159988
  91.3350012 141.6794997  61.2729988  92.5490012 141.5754997  62.2639988
  92.8410012 142.5584997  63.3089988  92.6781153 143.5766134  62.9802106
  93.8854721 142.4920599  63.5996242  92.0200012 142.2484997  64.6319988
  91.0405516 141.8766374  64.3587846  91.9017395 143.1853982  65.1569866
  92.5690012 141.2584997  65.6589988  92.7190012 139.8704997  64.9139988
  91.7837932 139.6395422  64.4226957  92.9362639 139.1161161  65.6554854
  93.5373559 139.9357515  64.2127466  93.9330012 141.7134997  66.1629988
  93.8606645 142.7483353  66.4606506  94.6589243 141.5790152  65.3811296
  94.1837178 141.0991836  67.0156733  91.5900012 141.0944997  66.7809988
  91.4078261 142.0560727  67.2373665  92.0014977 140.4177601  67.5147182
  90.6646096 140.6908538  66.3960892  91.3160012 140.3994997  60.5549988
  91.4080012 142.8784997  60.4139988  88.5280012 141.5704997  64.5449988
  87.5090012 141.9244997  65.3739988  86.3530012 141.6454997  65.1909988
  88.1000012 142.7424997  66.4919988  89.0615832 142.2964492  66.7242745
  88.3177985 143.7370407  66.1107385  87.1880012 142.8104997  67.7209988
  87.2911129 143.7729123  68.2100703  86.1444387 142.7301529  67.4336754
  87.5350012 141.7174997  68.7029988  87.2677091 140.7330934  68.3272950
  88.6062527 141.6912056  68.8868298  86.8290012 141.9814997  70.0099988
  87.2340582 142.8661327  70.4979118  85.7650627 142.1653965  69.8818624
  87.0170012 140.7704997  70.9609988  86.5173381 140.9945315  71.9012368
  86.4819468 139.9280962  70.5268856  88.4230012 140.3524997  71.2349988
  88.3571582 139.4419711  71.8285503  88.8653567 140.0675356  70.2845068
  89.3680012 141.3554997  71.9399988  90.3642583 140.9308090  71.9811026
  89.4410530 142.2498222  71.3225875  88.8930012 141.7534997  73.3059988
  88.1111738 141.2007259  73.8047383  89.4350012 142.8174997  73.9819988
  89.0693044 143.1203635  74.9526426  90.5900012 143.6704997  73.4569988
  90.9520828 143.2610760  72.5154627  90.3027478 144.6956924  73.2517030
  91.7470012 143.6574997  74.4619988  92.1496279 142.6582634  74.6236269
  92.5818073 144.2703096  74.1273024  91.1940012 144.2334997  75.8329988
  90.4528954 145.0070105  75.6316279  90.6764093 143.4531423  76.3840386
  92.3650012 144.8474997  76.7469988  93.1784443 144.1256195  76.7284411
  92.7341021 145.7349920  76.2359148  92.0190012 145.2054997  78.1899988
  92.7539232 145.9131751  78.5690437  91.0639407 145.7225112  78.2244026
  91.9970012 144.0254997  79.1129988  91.1223131 143.4066356  78.9211368
  92.8619088 143.3890233  78.9350478  91.9900012 144.4364997  80.5989988
  91.9499418 143.5302422  81.1981712  92.9657251 144.8765790  80.7929214
  90.9210012 145.3984997  81.0689988  91.0795421 145.6735295  82.1074074
  89.9277218 144.9688514  80.9945709  90.9306770 146.3111920  80.4798977
  46.4530012 141.4064997  80.8649988  46.6012586 142.3749850  81.3324224
  47.4145662 140.9022069  80.8354795  45.7969920 140.8261943  81.5080460
  45.8480012 141.5544997  79.4319988  46.5133081 142.1605803  78.8194336
  44.9105371 142.1002623  79.4961729  45.6290012 140.2284997  78.7599988
  44.9977858 139.5888749  79.3767453  46.5788171 139.7070967  78.6592040
  44.9760012 140.3734997  77.3129988  45.6545919 140.8974676  76.6435048
  44.0669504 140.9718220  77.3496463  44.6660012 139.0424997  76.7289988
  44.0300733 138.4784200  77.4064815  45.5883288 138.4725231  76.6299862
  43.9810012 139.1324997  75.3669988  44.5253809 139.8019758  74.7034707
  42.9799275 139.5474223  75.4632684  43.8910012 137.7154997  74.7109988
  43.0185283 137.6699259  74.0617806  43.7337587 136.9655947  75.4850448
  45.1530012 137.3504997  73.8959988  46.0025857 137.9058855  74.2912248
  45.0218352 137.6860293  72.8689158  45.4760012 135.8794997  73.8999988
  44.5624214 135.3020026  73.7758613  45.8857342 135.5949574  74.8683641
  46.4660012 135.5004997  72.8039988  46.2618404 136.1385631  71.9469734
  46.2368655 134.4829775  72.4884444  47.9130012 135.5864997  73.1729988
  48.0574548 135.0634951  74.1159412  48.1700731 136.6272843  73.3622321
  48.9340012 134.9764997  72.0949988  48.7783511 133.9043875  72.0024378
  49.9549948 135.1059312  72.4492436  48.8020012 135.6514997  70.7189988
  48.7901514 136.7298692  70.8680986  47.8441111 135.3952098  70.2751113
  49.9260012 135.3224997  69.7149988  50.0866976 134.2496252  69.7364934
  50.8322990 135.7839805  70.0980804  49.7240012 135.7754997  68.2559988
  49.5285116 136.8394495  68.2131550  48.8878986 135.2500778  67.8099793
  48.5420012 134.9744997  67.7089988  48.5480012 133.8284997  67.3639988
  47.4160012 135.7594997  67.5689988  46.2440012 134.9854997  67.0809988
  46.0472264 134.2353599  67.8320195  46.3839883 134.5006633  66.1257348
  45.0630012 136.0164997  67.0199988  44.1240325 135.5500834  66.7716285
  45.4220012 137.0634997  65.9579988  44.5382392 137.6062235  65.6510515
  45.8316414 136.5516973  65.0961182  46.3980012 137.9644997  66.5179988
  47.4750012 138.6644997  65.5889988  46.7050012 138.6834997  64.1849988
  45.8670012 139.8054997  63.8669988  46.0589546 140.6268487  64.5450317
  44.8319654 139.5143689  64.0210793  45.9420012 140.2694997  62.4019988
  46.8831020 140.7673642  62.2052523  45.1363293 140.9673875  62.2253002
  45.8040012 139.1594997  61.2919988  47.0150012 138.2184997  61.2249988
  47.9136729 138.8164408  61.1602729  46.9169774 137.6120184  60.3369268
  47.0148596 137.5843418  62.0988184  44.4950012 138.3704997  61.4809988
  43.6828916 139.0736827  61.5845634  44.5854089 137.7433964  62.3498704
  44.3515774 137.7661399  60.5969875  45.7450012 140.0024997  60.0139988
  44.9097231 140.6840904  60.0758586  45.6170313 139.3493885  59.1638696
  46.6646373 140.5594145  59.9065269  47.6680012 139.9784997  66.1309988
  48.6750012 137.8094997  65.4779988  44.9050012 136.5194997  68.3379988
  44.2090012 137.5674997  68.6729988  43.3760012 138.1164997  67.9529988
  44.6630012 137.9804997  70.1019988  44.0672217 137.3876725  70.7884066
  45.6894808 137.6483595  70.2358998  44.5280012 139.4914997  70.3779988
  43.5620121 139.8018226  69.9950814  44.4828266 139.6293803  71.4536294
  45.6640012 140.4314997  69.7569988  45.9455423 140.0103676  68.7952106
  45.1915382 141.3870175  69.5429205  46.9510012 140.6914997  70.6309988
  47.3725227 141.6682759  70.4009254  46.7269631 140.7001233  71.6949229
  48.0180012 139.6314997  70.3599988  47.7696211 138.7125653  70.8870358
  48.0115733 139.3840476  69.3002313  49.4830012 140.0914997  70.7649988
  50.2408394 139.7461519  70.0634882  49.6005900 141.1691127  70.8373940
  49.7500012 139.4754997  72.1429988  48.8521800 139.4139295  72.7469080
  50.1316815 138.4590536  72.0563765  50.8350012 140.3584997  72.8359988
  51.8035828 140.4495794  72.3679089  50.6420012 141.0374997  73.9889988
  51.4377584 141.6675023  74.3597779  49.4390012 141.0314997  74.8339988
  49.6167003 141.7521788  75.6304067  48.5962825 141.4088902  74.2655952
  49.0640012 139.7004997  75.4709988  48.0429438 139.7471762  75.8477853
  49.0701653 138.9253959  74.7070386  49.9970012 139.3014997  76.5909988
  51.0186128 139.4889312  76.2604143  49.8245481 139.9638615  77.4348238
  49.8750012 137.8454997  77.0519988  49.9550134 137.1492168  76.2201736
  50.6559315 137.5675047  77.7576557  48.5240012 137.6994997  77.7199988
  48.3749916 138.4633244  78.4808917  47.7034494 137.8164763  77.0174062
  48.4380012 136.3254997  78.4059988  48.8799648 135.6010423  77.7243003
  49.0950462 136.3639619  79.2729742  47.1060012 135.8134997  78.8439988
  46.4693987 135.7847209  77.9631900  47.2772648 134.7751659  79.1193980
  46.3720012 136.5004997  79.9729988  45.4660348 135.9595544  80.2292646
  46.0831730 137.5130360  79.7120592  46.9894410 136.5531003  80.8652668
  59.3630012   3.5824997  81.1929988  58.4546541   3.0874086  81.5219660
  59.3178668   4.6146017  81.5284361  60.1995310   3.1085504  81.6991627
  59.5180012   3.5024997  79.7069988  58.6622285   3.9647776  79.2179638
  59.5228675   2.4618653  79.3941564  60.8540012   4.2274997  79.2219988
  61.6853149   3.7316502  79.7229776  60.8188420   5.2376846  79.6250636
  61.1340012   4.3094997  77.7899988  60.2164113   4.6396915  77.3080733
  61.3150881   3.2971888  77.4320319  62.2840012   5.2234997  77.3359988
  63.2490398   4.8462434  77.6645579  62.1810423   6.2172579  77.7686753
  62.2890012   5.3364997  75.7989988  62.7819346   6.2703594  75.5349162
  61.2572323   5.4329310  75.4677421  62.9840012   4.1324997  75.0129988
  62.6445683   3.1501427  75.3363101  64.0693339   4.1244271  75.1036497
  62.6050012   4.3394997  73.5599988  61.5298042   4.5101633  73.5242705
  62.7811411   3.4004520  73.0386081  63.3180012   5.4664997  72.8199988
  64.3123630   5.1104717  72.5591738  63.4635134   6.2831867  73.5259913
  62.6210012   6.0054997  71.5559988  63.0422215   6.9726485  71.2904887
  61.5646715   6.1783347  71.7602651  62.7530012   5.0394997  70.3839988
  62.1354370   5.4507160  69.5883502  62.2715278   4.1129970  70.6920641
  64.1010012   4.7304997  69.8209988  64.6842772   4.1951197  70.5662345
  64.6260240   5.6663892  69.6389776  64.0530012   3.8874997  68.4399988
  65.0743465   3.7104756  68.1071802  63.5769073   4.4763072  67.6609517
  63.3600012   2.5544997  68.5409988  62.3010260   2.7596700  68.6585648
  63.7007064   2.1148377  69.4746525  63.5510012   1.5384997  67.4309988
  64.6040719   1.3430716  67.2732304  63.1229837   1.9054704  66.5056866
  62.5510012   0.3914997  67.5439988  62.5510012  -0.5155003  68.3569988
  61.5780012   0.6224997  66.7209988  60.7490012  -0.5185003  66.5329988
  60.3790381  -0.8227025  67.5004957  61.2740858  -1.3465562  66.0793452
  59.5520012  -0.0345003  65.6149988  58.8025766  -0.8076829  65.6530183
  59.9600012   0.2384997  64.1279988  59.1134303  -0.0224086  63.5074783
  60.7697835  -0.4487201  63.9168908  60.3660012   1.5714997  63.8769988
  61.5810012   1.9704997  62.9659988  61.4150012   3.5224997  62.8409988
  60.0930012   4.1314997  62.7309988  59.3221467   3.3722902  62.7549442
  60.0185701   4.6155387  61.7614818  59.8090012   5.2374997  63.7559988
  59.5357936   4.7466455  64.6815628  58.9648735   5.8142581  63.4064629
  60.8190012   6.1904997  64.1039988  61.9720012   5.5054997  64.8339988
  61.5660310   4.9178214  65.6458833  62.6193568   6.2739678  65.2295835
  62.5199225   4.8967634  64.1304795  61.3780012   6.7574997  62.8269988
  60.5557584   7.0735445  62.2035033  61.9741622   6.0062061  62.3406655
  61.9904441   7.6072871  63.0917099  60.2930012   7.2734997  65.0139988
  59.4730050   7.7799709  64.5269925  61.0837386   7.9793738  65.2192451
  59.9527986   6.8327785  65.9399912  62.9150012   1.6084997  63.5379988
  61.3910012   1.3314997  61.6939988  59.0060012   1.1724997  66.1809988
  57.9240012   1.5744997  65.6019988  57.2950012   1.0924997  64.6739988
  57.3550012   2.8474997  66.2129988  57.8060491   3.6552405  65.6458449
  56.2959339   2.8675040  65.9682879  57.5790012   3.0144997  67.7399988
  56.7568406   3.5841954  68.1589972  57.5489128   2.0436249  68.2242816
  58.8630012   3.7014997  68.0619988  59.6715051   3.3364320  67.4337465
  58.7762960   4.7656183  67.8565752  59.2230012   3.5164997  69.5439988
  60.0626289   4.1540102  69.8147598  58.4051559   3.7942508  70.2044421
  59.6140012   2.0564997  69.8249988  58.6971530   1.4709549  69.8456822
  60.1748545   1.7105256  68.9589004  60.4400012   1.7614997  71.0989988
  60.3701002   0.6965249  71.3149698  61.4894404   1.9672447  70.9075199
  59.9820012   2.5934997  72.3869988  60.7190326   2.4903055  73.1748539
  59.9471583   3.6529108  72.1364392  58.6330012   2.1704997  72.8549988
  57.8171351   2.2267144  72.1501893  58.3480012   1.7084997  74.0879988
  57.3102363   1.4578563  74.2548278  59.2400012   1.4744997  75.2879988
  60.2396755   1.3237463  74.8840858  59.2816870   2.3898970  75.8676460
  58.9140012   0.2934997  76.2199988  57.8692762   0.3684287  76.5193987
  58.9979730  -0.6229901  75.6390907  59.7820012   0.1834997  77.4469988
  60.0277825   1.2040053  77.7407109  59.1559770  -0.2180297  78.2390669
  61.1100012  -0.6625003  77.3469988  60.8926602  -1.6838722  77.0425200
  61.7799590  -0.2558174  76.5914523  61.8000012  -0.6615003  78.6659988
  61.0965240  -0.9493225  79.4450163  62.5843011  -1.4133292  78.6818726
  62.3890012   0.7324997  79.0429988  62.6106837   1.2457643  78.1090292
  61.5853499   1.2959685  79.5136171  63.5570012   0.8014997  79.8939988
  64.2603881   0.0442266  79.5568055  64.0263540   1.7586691  79.6775560
  63.3670012   0.6814997  81.3849988  64.3062821   0.8374102  81.9070259
  62.9959162  -0.2974692  81.6690005  62.6594287   1.4209674  81.7492374
 141.0070012  89.1234997  81.7029988 140.2169632  88.6228213  82.2539889
 141.9501797  88.6653082  81.9863092 140.8495614  88.9254746  80.6463007
 141.0150012  90.6284997  81.9859988 141.1121833  90.7104485  83.0672217
 140.0078117  90.9571113  81.7443423 142.0740012  91.5734997  81.2969988
 143.0835790  91.3563340  81.6455968 141.8828699  92.6128643  81.5565388
 142.0260012  91.4374997  79.7779988 141.0286097  91.6949185  79.4284335
 142.1868345  90.3990844  79.4924599 143.0550012  92.3364997  79.0459988
 144.0639847  91.9748125  79.2268514 143.0124241  93.3427285  79.4595876
 142.8090012  92.4024997  77.5009988 143.6801153  92.8889120  77.0658204
 141.9725568  93.0804876  77.3452103 142.5390012  91.0864997  76.7579988
 141.6944798  90.5649468  77.2046936 143.3931026  90.4169116  76.8496099
 142.2420012  91.3454997  75.2299988 141.7850054  92.3319585  75.1628813
 141.4733975  90.6337580  74.9344381 143.4440012  91.2604997  74.2179988
 143.9075212  90.2807598  74.3118071 144.2012305  91.9843819  74.5166210
 143.0650012  91.5014997  72.7649988 143.0235991  92.5767346  72.6054536
 142.0515044  91.1311372  72.6130616 143.9650012  90.8764997  71.7709988
 143.9971385  89.8088555  71.9775031 144.9745504  91.2474012  71.9394340
 143.5950012  91.0714997  70.3009988 144.5076250  91.1469223  69.7147837
 143.0868872  92.0283884  70.1968154 142.7100012  89.9954997  69.7429988
 141.8326450  89.8555779  70.3722205 143.2098539  89.0319059  69.6993150
 142.2240012  90.3764997  68.3249988 143.0174356  90.2005475  67.6060776
 142.0134662  91.4425300  68.3063903 140.9880012  89.6364997  67.8889988
 140.1917510  89.7708186  68.6100987 141.1960351  88.5773716  67.7939274
 139.7680012  90.4954997  68.1569988 139.5200012  90.8684997  69.2779988
 139.0940012  90.8114997  66.9969988 138.0750012  91.8224997  67.0389988
 137.7875518  91.7933727  68.0791845 137.2267832  91.5446970  66.4302755
 138.5890012  93.2364997  66.6629988 137.7552210  93.9031432  66.8089130
 139.1340012  93.3694997  65.1719988 138.3342524  93.1226601  64.4869636
 139.9250424  92.6386023  65.0596251 139.6470012  94.7304997  64.8999988
 141.1460012  94.9184997  64.7349988 141.4790012  94.1334997  63.3249988
 142.5420012  94.5254997  62.4419988 142.8352136  95.5623989  62.5422755
 142.2556121  94.3854356  61.4036537 143.7400012  93.5904997  62.6589988
 144.1465090  93.6720587  63.6591730 144.5092950  93.8569456  61.9486675
 143.4620012  92.0834997  62.4389988 142.7040012  91.5594997  63.6819988
 143.2516251  91.8498153  64.5680906 142.6619519  90.4824124  63.6170760
 141.7022712  91.9622790  63.6772173 142.7830012  91.7084997  61.1559988
 143.3096127  92.1782986  60.3394920 141.7563687  92.0259454  61.1962975
 142.8385952  90.6335065  61.0632841 144.8380012  91.3904997  62.3759988
 145.4177565  91.8233280  61.5743596 144.6960605  90.3362102  62.1916712
 145.3537890  91.5267467  63.3155916 141.4500012  96.3594997  64.5959988
 141.8150012  94.2414997  65.8699988 139.5940012  93.5834997  67.6549988
 139.1240012  94.2514997  68.7659988 138.0110012  94.6644997  68.8449988
 140.2940012  94.6574997  69.7389988 139.9100503  95.4521788  70.3703622
 140.4958525  93.8210170  70.4034232 141.6320012  95.1074997  68.9449988
 142.1600887  94.2492806  68.5441938 141.4081543  95.7454996  68.0959513
 142.5620012  95.8584997  69.9389988 143.2545639  96.4619187  69.3577103
 141.9381543  96.5585371  70.4892966 143.3270012  95.0024997  70.9369988
 142.5774976  94.4011568  71.4482102 143.9373335  94.3067619  70.3663452
 144.2400012  95.7054997  72.0359988 144.8529975  94.9084658  72.4517794
 144.9151482  96.3409238  71.4660922 143.6330012  96.5364997  73.1849988
 144.4693236  96.9678479  73.7329080 143.0939572  97.3696097  72.7426445
 142.7130012  95.8244997  74.1549988 141.7520099  95.6670728  73.6792966
 143.1223617  94.8350223  74.3542587 142.5550012  96.5684997  75.4899988
 143.2824425  96.5825846  76.2876107 141.4120012  97.2814997  75.6809988
 141.3350503  97.7961436  76.6280099 140.2600012  97.4714997  74.8049988
 140.3021152  98.4828499  74.4042268 140.3008631  96.8046370  73.9510049
 138.9050012  97.2944997  75.5309988 138.7454308  98.1346232  76.2058578
 138.1057917  97.3417150  74.7937783 138.7880012  95.9384997  76.3389988
 139.2418301  95.1476073  75.7418091 139.3875024  96.0195287  77.2415156
 137.3580012  95.5324997  76.7109988 136.9152165  96.2971519  77.3453439
 136.7383317  95.4822165  75.8173733 137.3250012  94.1734997  77.4269988
 136.2927685  93.9688361  77.7048452 137.5983375  93.4023387  76.7120002
 138.1920012  94.0474997  78.6969988 138.0995960  93.0206476  79.0461678
 139.2281407  94.1684639  78.3861668 137.9180012  95.0154997  79.9099988
 136.8503332  95.2097401  79.9753509 138.1757007  94.4709492  80.8157408
 138.7010012  96.3844997  79.9019988 138.5147283  96.9404067  80.8159675
 138.4048781  97.0161591  79.0713011 139.7723504  96.2211447  79.8267199
  14.8940012 129.7224997  82.4979988  14.3635654 130.6000266  82.8543881
  15.9494635 129.9730165  82.4429485  14.7799526 128.9415136  83.2447689
  14.3770012 129.2784997  81.1769988  14.4798843 130.1659415  80.5548532
  13.3129689 129.1561287  81.3605056  14.9330012 128.0444997  80.4049988
  14.7827457 127.1212673  80.9644577  16.0071335 128.1347571  80.2557866
  14.2610012 127.9194997  79.0339988  14.4972810 128.7535740  78.3769281
  13.1742423 127.8750375  79.0858091  14.8070012 126.5934997  78.3809988
  15.8917244 126.5774424  78.4494869  14.5680947 126.6066039  77.3188702
  14.2590012 125.3294997  78.9989988  13.4894288 125.6585420  79.6949201
  15.0681265 124.9302084  79.6068307  13.7010012 124.2244997  78.1199988
  12.8445192 124.6146040  77.5731649  13.3175305 123.4313465  78.7603802
  14.7220012 123.6224997  77.1129988  14.2692804 122.6739795  76.8269841
  15.5798362 123.3744006  77.7352929  15.2050012 124.3514997  75.8549988
  16.0438079 123.7630795  75.4893406  15.6259217 125.2902380  76.2130118
  14.2410012 124.6384997  74.6949988  13.3738790 125.1226058  75.1388900
  13.8981664 123.6689141  74.3347251  14.7470012 125.4544997  73.5229988
  15.8218843 125.5867197  73.6263676  14.3146325 126.4528498  73.5615004
  14.4630012 124.8264997  72.1309988  13.4096506 124.9971404  71.9223044
  14.5786365 123.7509572  72.2514434  15.3260012 125.2854997  70.9289988
  14.9849971 124.7463412  70.0467991  16.3573078 124.9842009  71.0899328
  15.2880012 126.7384997  70.6209988  15.8042061 126.9551453  69.6915139
  15.7991008 127.2954804  71.4017942  13.8030012 127.2594997  70.5229988
  13.2582589 127.0240320  71.4284555  13.2963486 126.7996334  69.6828231
  13.8690012 128.6104997  69.9219988  14.1760012 129.5294997  70.6389988
  13.4810012 128.6854997  68.5769988  13.4100012 130.0124997  67.9429988
  13.4916297 130.7371443  68.7390446  12.4922278 130.1861225  67.4000999
  14.6080012 130.1054997  67.0249988  14.5311260 131.0449971  66.5031474
  14.5800012 128.8954997  65.9749988  13.6031723 128.8278458  65.5156195
  14.7739035 127.9770168  66.5147913  15.5940012 129.1134997  64.9739988
  15.7310012 128.1954997  63.6549988  16.4040012 126.9014997  64.1859988
  17.6500012 126.9194997  64.8099988  17.5562992 126.9683271  65.8870433
  18.1889250 127.8125278  64.5069166  18.5370012 125.7564997  64.3909988
  18.0244087 124.8554364  64.7033814  19.4686295 125.8317139  64.9330213
  18.9160012 125.5334997  62.9419988  17.7060012 125.0554997  62.1439988
  17.2617693 124.2156451  62.6603671  18.0517615 124.7421112  61.1701726
  17.0116154 125.8751313  62.0356035  19.4130012 126.8664997  62.3799988
  20.1504704 127.2701253  63.0567110  18.5769279 127.5331595  62.2663497
  19.8631886 126.6641482  61.4189149  20.0010012 124.4974997  62.8029988
  20.8687521 124.8141378  63.3623114  20.2606562 124.3935289  61.7602048
  19.6461504 123.5503837  63.1831137  14.3310012 127.7904997  63.2289988
  16.5670012 128.8814997  62.6659988  15.8180012 130.1064997  67.7519988
  16.1900012 131.3634997  68.1479988  15.6480012 132.3624997  67.7799988
  17.3560012 131.2534997  69.1869988  17.4920112 132.2101765  69.6807839
  17.1192707 130.5430253  69.9750926  18.5800012 130.8334997  68.4319988
  18.3868796 129.8925411  67.9286479  18.8002600 131.5527270  67.6495468
  19.8140012 130.6694997  69.3599988  20.7208509 130.8004801  68.7750871
  19.8017690 131.4790115  70.0856750  19.8650012 129.3074997  70.1319988
  20.7805918 129.2767194  70.7197507  19.0449758 129.2480886  70.8434977
  19.8290012 128.0744997  69.2349988  18.7898293 127.8404325  69.0131084
  20.2881810 128.3436950  68.2857524  20.5340012 126.8104997  69.7849988
  20.1457684 125.9458126  69.2490019  21.5945582 126.8628223  69.5552183
  20.3640012 126.5804997  71.3419988  21.2297795 126.0011058  71.6408476
  20.4862449 127.5667799  71.7877046  19.0660012 125.9554997  71.8799988
  18.8512604 124.9211232  71.6575001  18.1670012 126.6214997  72.6369988
  17.2918291 126.0817227  72.9691503  18.2190012 128.0864997  73.1109988
  19.1352050 128.5688259  72.7746166  17.4020502 128.7003497  72.7484241
  18.2130012 128.0844997  74.6439988  17.3936740 127.4921273  75.0495885
  19.1276214 127.6508844  75.0438820  18.0850012 129.5564997  75.1389988
  18.2612444 130.1870660  74.2675452  17.0443365 129.7033472  75.4146015
  18.9970012 130.0244997  76.2999988  20.0375315 130.0422030  75.9835683
  18.7535877 131.0415734  76.6023163  18.8310012 129.0844997  77.5049988
  17.8123877 129.1707451  77.8786006  18.9409571 128.0541069  77.1781570
  19.7830012 129.3694997  78.6659988  19.8883146 128.4440941  79.2293961
  20.7609501 129.5722491  78.2331680  19.4440012 130.4884997  79.6349988
  19.3246466 131.4467250  79.1355253  18.4913496 130.2868321  80.1198680
  20.5620012 130.6094997  80.7439988  20.2853864 131.3471378  81.4912894
  21.5163660 130.9120197  80.3263741  20.7104913 129.6617739  81.2538101
  10.7500012  25.7304997  80.7879988  10.9896675  25.1188824  81.6522403
  10.9628857  25.1448310  79.8983570   9.6809506  25.9239118  80.8062918
  11.5440012  27.0344997  80.7939988  12.6033251  26.7842689  80.8145014
  11.3330901  27.5459804  81.7292624  11.2690012  27.9694997  79.6069988
  10.2031517  28.1918472  79.5574468  11.5106157  27.4459647  78.6841203
  12.0460012  29.2624997  79.6409988  11.9262484  29.7613250  80.6002081
  11.6923068  29.9661860  78.8890467  13.6000012  28.9734997  79.4059988
  13.7487308  28.4341817  78.4740177  13.9740603  28.3255751  80.1969719
  14.4190012  30.2434997  79.3729988  13.9886410  30.9272773  80.1024199
  14.2680654  30.7035922  78.3987759  15.9540012  30.0984997  79.6429988
  16.1618191  29.3992278  80.4508357  16.4079646  31.0444492  79.9351061
  16.6460012  29.5734997  78.2989988  16.0837355  28.7131742  77.9382379
  17.6399486  29.2050806  78.5460206  16.7580012  30.6234997  77.1639988
  17.5659487  31.3145127  77.3947859  15.8469137  31.2199565  77.1368718
  16.9960012  30.0104997  75.7959988  17.1850676  30.8237941  75.0987864
  16.0674156  29.5408637  75.4725797  18.0860012  29.0244997  75.7269988
  17.8045024  28.0867291  76.2012200  18.9839465  29.3648603  76.2398115
  18.4170012  28.7434997  74.2679988  19.2810817  28.0889193  74.1836877
  18.6827911  29.6654100  73.7540854  17.2030012  28.1144997  73.5549988
  16.4495160  28.8867125  73.4093986  16.7473975  27.3610262  74.1913768
  17.5170012  27.4864997  72.1729988  18.3021158  26.7433212  72.2658737
  17.8926005  28.2592941  71.5075621  16.3380012  26.8684997  71.5529988
  15.5289487  27.5842015  71.4805694  16.0022615  26.0224511  72.1408336
  16.7650012  26.1194997  70.2559988  17.9220012  26.1924997  69.8029988
  15.7670012  25.4144997  69.8389988  15.9690012  24.4174997  68.8349988
  15.7060006  23.4841420  69.3094838  16.9953435  24.3672087  68.5014059
  15.0150012  24.7044997  67.6509988  15.2222953  24.0047293  66.8583800
  15.1710012  26.1684997  67.1219988  16.1570246  26.2965950  66.6963812
  15.0685754  26.8371406  67.9675833  14.1580012  26.4454997  66.1379988
  13.9010012  27.9704997  65.6689988  13.2670012  27.9364997  64.1829988
  12.2600012  26.9744997  63.8439988  11.3991151  27.0155610  64.4985048
  12.6598933  25.9677699  63.9238640  11.8300012  27.1314997  62.3289988
  11.3106149  28.0814715  62.3226394  11.1523863  26.3629255  61.9862032
  12.9360012  27.2454997  61.2359988  13.7060012  25.8814997  61.2939988
  13.9910088  25.6892692  62.3192558  14.5907126  25.9719976  60.6814665
  13.0702017  25.1030611  60.8996519  12.2240012  27.3834997  59.8999988
  11.4815564  28.1620068  59.9861175  11.7767154  26.4403766  59.6414946
  12.9665457  27.6590652  59.1651599  13.8260012  28.4994997  61.3929988
  13.2057743  29.3826789  61.3556471  14.5445909  28.5275310  60.5877081
  14.3454960  28.4568624  62.3394353  12.7490012  28.4074997  66.5489988
  15.1610012  28.6914997  65.6449988  13.6840012  24.4274997  68.1229988
  12.8510012  23.6444997  67.3719988  13.1980012  23.1164997  66.3519988
  11.3720012  23.6334997  67.9169988  10.8601351  22.7410583  67.5718981
  11.3440634  23.5912258  69.0029727  10.6990012  24.9284997  67.3909988
  11.2288708  25.2597525  66.5046745   9.6873399  24.7028340  67.0690522
  10.6770012  26.0634997  68.4139988  11.6896973  26.2189976  68.7772079
  10.4012997  26.9730755  67.8860542   9.6990012  25.8704997  69.6189988
   8.7702153  25.4496431  69.2382854  10.1053543  25.1352677  70.3092980
   9.3630012  27.1604997  70.4039988   8.5144387  27.6364768  69.9168760
   9.0144936  26.8543596  71.3884792  10.4780012  28.1754997  70.5779988
  11.0165752  28.3089492  69.6410728  10.0869199  29.1522996  70.8486192
  11.5010012  27.7014997  71.7129988  10.8886931  27.3292471  72.5260712
  12.0175070  26.8372679  71.2974616  12.5260012  28.6794997  72.2109988
  12.6203729  29.6879770  71.8373393  13.3920012  28.2974997  73.2059988
  14.1443733  28.9336643  73.6496661  13.3500012  26.9134997  73.7749988
  12.3197357  26.5708678  73.8548575  13.8679208  26.1791840  73.1681868
  13.9470012  26.9324997  75.1529988  14.8554529  27.5288537  75.2290399
  13.2648995  27.3215877  75.9065283  14.2700012  25.4604997  75.4739988
  13.3395724  24.8964351  75.5391181  14.8336422  25.0229662  74.6546227
  15.0460012  25.2944997  76.7659988  16.0689277  25.6438314  76.6446166
  14.6119704  25.8951845  77.5634196  15.0430012  23.8254997  77.1839988
  14.0470679  23.4402869  77.3945176  15.4740400  23.1489894  76.4510837
  15.8440012  23.7754997  78.4709988  16.3207456  22.7993091  78.5391874
  16.6517657  24.5012407  78.3958294  15.0550012  24.0424997  79.8099988
  15.7794565  24.1564398  80.6125554  14.5855422  25.0169711  79.6945572
  13.9920012  23.0334997  80.2259988  13.4635167  23.3734050  81.1115706
  14.4209705  22.0639586  80.4555993  13.2585991  22.8913775  79.4372886
  22.2890012 133.0804997  80.1549988  21.9369525 132.7237486  81.1179211
  21.7422381 133.9886309  79.9180644  23.3368099 133.3465738  80.2641477
  22.0980012 132.0054997  79.0509988  21.0427421 131.7438930  78.9944897
  22.6204642 131.1023885  79.3547036  22.5850012 132.4574997  77.6549988
  22.4615537 131.6781252  76.9031575  23.6454025 132.7017003  77.6642739
  21.7950012 133.7164997  77.2199988  21.9056956 134.5395019  77.9226111
  20.7241447 133.5438863  77.1242020  22.3550012 134.1444997  75.8819988
  23.4123168 134.3572494  76.0176237  21.8826347 135.0922745  75.6291001
  22.1920012 133.1764997  74.7189988  21.7551293 133.7081758  73.8756243
  21.4755041 132.4066060  74.9973381  23.4890012 132.5184997  74.2799988
  23.8646660 131.8892227  75.0847698  24.2447626 133.2852586  74.1152708
  23.3400012 131.6914997  73.0309988  23.1296082 132.3645131  72.2007948
  22.4594181 131.0614994  73.1421616  24.5390012 130.8204997  72.6799988
  24.7451967 130.1020098  73.4704396  25.4413853 131.4211617  72.5728308
  24.2680012 130.0604997  71.3509988  23.2020490 129.9426083  71.1689369
  24.6876904 129.0550235  71.3685383  24.9130012 130.8574997  70.2039988
  25.9878379 130.7373100  70.3215629  24.7033881 131.9080177  70.3979119
  24.5510012 130.5324997  68.7709988  24.8526635 129.5125795  68.5452077
  25.1275035 131.1740077  68.1070843  23.0530012 130.7234997  68.4619988
  22.4637843 130.3966670  69.3171338  22.7469705 130.1009746  67.6258877
  22.6790012 132.1964997  68.1589988  23.4086999 132.6517113  67.4974347
  22.6881365 132.7719822  69.0808601  21.2680012 132.3104997  67.5189988
  20.5271606 131.8325675  68.1473117  21.2559707 131.8361872  66.5448571
  20.8900012 133.8454997  67.2649988  19.9410012 134.4214997  67.7089988
  21.8780012 134.3944997  66.6479988  21.7180012 135.8034997  66.4189988
  21.7207386 136.2695780  67.3927675  20.7647525 135.9840712  65.9437062
  22.8740012 136.3514997  65.5619988  22.8043296 137.4248312  65.6252391
  22.7810012 135.8864997  64.0219988  23.6329995 136.2643831  63.4732693
  21.8794859 136.3118387  63.5989835  22.7360012 134.4324997  63.9549988
  23.0670012 133.8234997  62.5739988  23.6510012 132.4514997  62.9919988
  23.3900012 131.6994997  64.1499988  22.7843866 130.8280085  63.9380480
  22.8247270 132.3036402  64.8537575  24.7030012 131.3014997  64.9109988
  24.4405760 130.6514809  65.7361397  25.1807571 132.1869631  65.3048018
  25.7360012 130.5894997  64.1559988  26.2610012 131.3134997  62.9009988
  25.4159932 131.6128563  62.2962830  26.8758179 130.6188029  62.3482811
  26.8568535 132.1598650  63.2081515  26.8780012 130.2464997  65.0629988
  26.4823809 129.7712916  65.9475189  27.4151996 131.1456553  65.3065292
  27.5197167 129.5605279  64.5292001  25.0690012 129.2994997  63.7349988
  24.7362250 128.7678889  64.6140506  25.7792030 128.6935071  63.1927475
  24.2237586 129.5212028  63.0995086  21.7210012 133.6964997  61.8879988
  24.1560012 134.5164997  61.8559988  24.1760012 135.9084997  66.0739988
  24.4970012 136.2614997  67.3069988  24.0870012 137.1794997  67.9779988
  25.4320012 135.1084997  67.8839988  24.9410832 134.1646353  67.6702873
  26.3621872 135.0940052  67.3214591  25.6900012 135.2864997  69.3469988
  25.9928835 136.3200564  69.4738204  24.7301248 135.1918343  69.8447024
  26.7160012 134.3784997  70.0219988  26.3055827 133.3719247  70.0261860
  27.5816312 134.3501824  69.3647714  27.1800012 134.7574997  71.4179988
  27.9598879 134.0619851  71.7225348  27.6397400 135.7427208  71.4045272
  26.0620012 134.7404997  72.4959988  25.2412297 135.3694377  72.1573661
  25.6655322 133.7284593  72.5504758  26.4950012 135.1814997  73.9209988
  26.7386963 136.2412387  73.8638418  25.6314087 135.1003663  74.5751726
  27.6640012 134.4274997  74.5579988  28.4894319 134.4596435  73.8564213
  27.9771947 135.0050240  75.4267459  27.3710012 132.9774997  75.0079988
  27.0869950 132.2962429  74.2201004  27.4420012 132.4834997  76.2379988
  27.2179506 131.4339861  76.3642229  27.8240012 133.2324997  77.5889988
  27.8191554 132.5032878  78.3973598  28.8302167 133.6344961  77.5488711
  26.8180012 134.3804997  77.9569988  27.1243405 135.3148239  77.4880644
  25.8344933 134.1470069  77.5536969  26.7080012 134.5784997  79.4499988
  26.5475882 133.5921241  79.8852434  27.6808840 134.9109126  79.8014310
  25.5920012 135.5674997  79.9759988  25.0639912 136.0172577  79.1381036
  24.8427382 135.0299966  80.5546010  26.2220012 136.6734997  80.8589988
  26.7301604 136.2242926  81.7102198  26.9864677 137.2158988  80.3094361
  25.2260012 137.5994997  81.3709988  24.4487062 137.0297910  81.8770893
  25.6916463 138.2194500  82.1349819  24.5750012 138.5004997  80.3569988
  25.3090988 139.0323107  79.7568382  23.9962850 137.9031555  79.6558707
  23.6500012 139.4994997  81.0249988  23.1173348 140.0872427  80.2834506
  24.1918316 140.1918416  81.6604697  22.9106266 138.9956703  81.6411337
  10.7080012 120.9064997  84.3719988  10.3692736 121.1608359  85.3715015
  11.6039095 121.4858736  84.1683715  10.9889207 119.8568880  84.3754100
   9.6040012 121.1864997  83.3129988   9.3383252 122.2390924  83.3946555
   8.7247472 120.6253078  83.6176135   9.9560012 120.8654997  81.8489988
  10.3410521 119.8487507  81.7722765  10.7626792 121.5184795  81.5218004
   8.7900012 121.0304997  80.8989988   8.3947604 122.0416988  80.9661636
   7.9700903 120.3676694  81.1712270   9.2170012 120.7494997  79.3889988
   9.7214825 119.7908611  79.2990892   9.9292359 121.5020869  79.0547846
   8.0140012 120.7584997  78.4709988   7.5057037 121.7157866  78.5712609
   7.3091300 120.0027826  78.8110360   8.3470012 120.5114997  76.9849988
   8.7491214 119.5070083  76.8663974   9.1362509 121.1940011  76.6727384
   7.1140012 120.6864997  76.0459988   6.8086572 121.7274056  76.1446444
   6.3151695 120.0924525  76.4860670   7.2430012 120.3374997  74.5639988
   8.1081456 120.8464908  74.1444824   6.3763631 120.7165091  74.0237513
   7.3720012 118.8334997  74.3189988   6.6670693 118.3233063  74.9717413
   8.3654604 118.5177090  74.6364008   7.1460012 118.4004997  72.8579988
   7.1174660 117.3132218  72.8344688   8.0166392 118.6926749  72.2734040
   5.8790012 118.9314997  72.1779988   6.0226794 120.0053124  72.0857936
   5.0801508 118.7929858  72.9041681   5.4290012 118.3424997  70.8369988
   4.4108205 118.6757793  70.6433886   5.3861147 117.2593082  70.9086300
   6.2850012 118.7274997  69.6379988   5.9004381 118.2678042  68.7334899
   7.2930604 118.3470562  69.7800248   6.3590012 120.2244997  69.4419988
   6.7092984 120.7080641  70.3450482   5.3822273 120.6211109  69.1916361
   6.9800012 120.6184997  68.1139988   7.6950012 119.9254997  67.4249988
   6.8400012 121.8914997  67.9689988   7.4230012 122.6544997  66.8759988
   6.6374289 123.3690877  66.6818283   7.5526648 122.0271082  66.0060796
   8.6920012 123.3614997  67.2189988   8.5144851 123.9864759  68.0785258
   9.1730012 124.2184997  66.0419988  10.1207799 124.6876776  66.2686893
   8.4408143 124.9920726  65.8468773   9.2950012 123.3914997  64.9559988
  10.7830012 123.0334997  64.4159988  10.5310012 122.0514997  63.2419988
   9.4050012 122.3394997  62.3039988   9.7309550 122.1521608  61.2891849
   9.1942476 123.4030924  62.3684232   8.0600012 121.6424997  62.5909988
   7.4200491 121.8279547  61.7375840   7.5970433 122.0657512  63.4707175
   8.0480012 120.0854997  62.8039988   8.9570012 119.4934997  61.7219988
   8.6528509 119.8875421  60.7620211   8.8312092 118.4210304  61.7312815
   9.9825829 119.7401495  61.9523526   8.6540012 119.7464997  64.0809988
   8.2028250 120.3577628  64.8474917   9.7150013 119.9108724  64.0207477
   8.4474412 118.7029388  64.2697068   6.6640012 119.5014997  62.7049988
   6.0276300 119.9680101  63.4422109   6.7133327 118.4389260  62.8898056
   6.2679904 119.6780667  61.7153349  11.4750012 124.2284997  63.9119988
  11.4370012 122.2344997  65.4489988   9.6330012 122.3604997  67.6339988
  10.4490012 122.8384997  68.5149988  10.5010012 124.0044997  68.9249988
  11.4220012 121.7694997  69.0339988  11.9576480 121.3830095  68.1730337
  12.1709149 122.2485102  69.6597656  10.6870012 120.6554997  69.8029988
   9.7732514 121.0812167  70.2028580  10.3781065 119.8976865  69.0900217
  11.4700012 120.0124997  70.9309988  10.7974576 119.3087204  71.4147692
  12.2410663 119.4143746  70.4516555  12.1240012 120.9024997  71.9679988
  12.8464100 120.3652870  72.5797455  12.6526461 121.7576668  71.5539628
  11.0070012 121.4064997  72.8759988  10.6485632 122.3461367  72.4606611
  10.1847240 120.6999876  72.7806991  11.3160012 121.5924997  74.3419988
  10.3806061 121.8355412  74.8436639  11.6440490 120.6403348  74.7495335
  12.3460012 122.6394997  74.6749988  12.6308240 122.5887049  75.7194488
  13.2558618 122.4710825  74.1004248  11.8150012 123.9654997  74.3349988
  11.8745695 124.3012847  73.3106678  11.2540012 124.7764997  75.1969988
  10.8843432 125.7296963  74.8471715  11.0480012 124.5424997  76.6549988
  11.0051809 123.4665531  76.8153933  11.8966788 124.9010788  77.2267052
   9.7410012 125.1714997  77.2199988   9.8035344 126.2558464  77.1364121
   8.9106368 124.8659092  76.5863045   9.4300012 124.7814997  78.6939988
   8.4662965 125.2238909  78.9463287   9.2875125 123.7048401  78.7257026
  10.4440012 125.1824997  79.7269988  11.4151544 124.8635835  79.3551133
  10.4702178 126.2705056  79.7523123  10.2230012 124.6394997  81.1739988
  10.5203650 123.5925300  81.1783960  10.9199759 125.1487170  81.8339600
   8.7500012 124.7314997  81.7629988   8.0889875 124.0206766  81.2703787
   8.7399926 124.4705952  82.8197214   8.1600012 126.1354997  81.6039988
   8.8643472 126.9522855  81.7406463   7.7092979 126.2937769  80.6266923
   7.0860012 126.2214997  82.6499988   6.5393635 127.1558830  82.5652403
   7.4932458 126.1731334  83.6542664   6.3718947 125.4097246  82.5441022
  85.4020012   4.2404997  83.4829988  85.6419772   4.9411938  84.2766412
  85.1253434   3.2976573  83.9459230  84.5277290   4.6194413  82.9608269
  86.5750012   4.0624997  82.5289988  87.4286731   3.7229750  83.1130966
  86.8369915   5.0463207  82.1491681  86.3410012   3.0834997  81.3539988
  85.3458342   3.2097966  80.9278288  86.3911054   2.0536373  81.7019126
  87.4080012   3.2794997  80.2349988  88.3924233   3.2558849  80.6971735
  87.2976014   4.2766250  79.8116088  87.3710012   2.2364997  79.1009988
  87.5659541   1.2464192  79.5051113  88.1790365   2.4457085  78.4019454
  85.9830012   2.2084997  78.3089988  85.1495040   2.1187755  79.0032963
  85.9319735   1.3380278  77.6584207  85.8070012   3.4824997  77.4659988
  86.7824361   3.8055059  77.1068837  85.4389286   4.2820115  78.1075075
  84.8550012   3.3134997  76.2679988  83.9312572   2.8526320  76.6154885
  85.2974125   2.6128725  75.5622525  84.5130012   4.6684997  75.5149988
  85.4658601   5.1494909  75.3046462  84.0067256   5.3027147  76.2416578
  83.6330012   4.6044997  74.1569988  84.1450272   3.9748650  73.4326449
  83.5817528   5.5990491  73.7146482  82.1850012   4.0744997  74.3959988
  81.7264512   4.6472894  75.1992328  82.2237619   3.0436818  74.7439069
  81.2660012   4.1594997  73.1489988  81.1344622   5.1984997  72.8567738
  80.2753241   3.7877241  73.4039731  81.7940012   3.3624997  71.9959988
  81.9159565   2.3086440  72.2404720  82.7563015   3.7015645  71.6227869
  80.7430012   3.4714997  70.8589988  80.4242172   4.5064163  70.7906667
  79.8756921   2.8951493  71.1699445  81.1810012   2.9844997  69.4679988
  81.5351710   1.9627047  69.5183961  81.9774427   3.6099847  69.0826180
  82.2200012   3.9344997  68.8139988  82.0210012   4.9044997  68.0929988
  83.3790012   3.4144997  69.1069988  84.5410012   4.0724997  68.7879988
  84.8075594   4.3991089  69.7818474  84.3796128   4.9387968  68.1629587
  85.6580012   3.1634997  68.2019988  86.5397268   3.7787988  68.2717190
  85.3990012   2.8044997  66.7689988  86.3477929   2.8606691  66.2528203
  84.7521389   3.5868637  66.3920893  84.8040012   1.5364997  66.5739988
  83.5150012   1.2314997  65.6629988  84.1450012   1.2054997  64.2169988
  83.4680012   0.4424997  63.2989988  82.4194394   0.7086163  63.2691786
  83.5130476  -0.5980078  63.6074012  84.0940012   0.4734997  61.8719988
  83.2520406   0.2941875  61.2153416  84.7979187  -0.3390238  61.7639127
  84.8110012   1.7394997  61.3069988  86.1480012   1.9574997  62.0329988
  85.9690794   1.9378178  63.0992697  86.5289075   2.9263321  61.7459899
  86.8424791   1.1896960  61.7265761  85.0320012   1.4404997  59.8839988
  84.1013242   1.0998178  59.4568101  85.8010474   0.6938742  59.7974635
  85.3455604   2.3573650  59.4061541  84.0010012   3.0064997  61.3929988
  83.0745350   2.8734945  60.8544340  84.5623729   3.8169373  60.9528822
  83.7929680   3.2319394  62.4290172  83.1070012  -0.1345003  66.1319988
  82.5320012   2.2694997  65.8079988  85.8850012   2.0424997  69.0519988
  86.8810012   1.2124997  68.8089988  87.7650012   1.2754997  67.9689988
  86.6890012   0.1184997  69.9379988  87.3711254   0.3128379  70.7592735
  85.6904079   0.1520800  70.3664738  86.9630012  -1.2515003  69.2689988
  87.8608731  -1.1701851  68.6662760  87.1815657  -1.9886061  70.0351173
  85.8120012  -1.7425003  68.3889988  85.9789071  -1.3177986  67.4023758
  85.9617168  -2.8145155  68.2868531  84.3290012  -1.4845003  68.8429988
  84.2066851  -0.4160370  69.0107214  83.6466768  -1.7458125  68.0377961
  83.9000012  -2.2245003  70.1149988  83.7281125  -3.2795394  69.9119029
  84.6960627  -2.1844808  70.8559883  82.6330012  -1.6105003  70.7229988
  82.9625168  -0.6737080  71.1696984  81.9967610  -1.3429757  69.8839833
  81.8000012  -2.3885003  71.7389988  81.0289390  -1.7261257  72.1149017
  81.2857970  -3.1826262  71.1992727  82.5950012  -3.0115003  72.8819988
  82.8327203  -4.0478701  72.6949658  83.0440012  -2.4715003  74.0549988
  83.5741585  -3.1087795  74.7481210  82.8920012  -1.0355003  74.5259988
  83.6520109  -0.4690101  73.9905597  81.9348147  -0.6600575  74.1817348
  83.0450012  -0.7435003  76.0339988  83.9304451  -1.2436113  76.4246175
  83.2084046   0.3222095  76.1823930  81.7910012  -1.1895003  76.8519988
  80.9448631  -0.5449380  76.6138880  81.4942064  -2.1963006  76.5713387
  82.0560012  -1.1375003  78.3589988  82.4498455  -0.1415934  78.5492642
  81.0788514  -1.1747686  78.8374070  82.9940012  -2.2195003  79.0109988
  82.5403010  -3.2036927  78.9104429  83.9385563  -2.2721544  78.4765194
  83.2520012  -1.9635003  80.5259988  84.0378917  -2.6263666  80.8835842
  83.6240241  -0.9504136  80.6677319  82.0540012  -2.1485003  81.3809988
  81.3070754  -1.3810512  81.1938121  81.5763410  -3.0934419  81.1315210
  82.4260012  -2.1575003  82.9199988  81.5533375  -2.3813090  83.5261645
  82.8132981  -1.1991751  83.2491719  83.1798757  -2.9095250  83.1351103
 140.8650012  34.9224997  84.1159988 141.1423761  34.3461258  84.9930879
 140.3415075  35.8115070  84.4557198 141.7813040  35.2460971  83.6299064
 139.9990012  34.1014997  83.1639988 139.1179418  33.7715171  83.7117660
 140.5530723  33.2026794  82.9072083 139.5570012  34.8294997  81.8909988
 138.9983605  35.7119106  82.2027686 138.8396717  34.1786934  81.3949537
 140.6460012  35.2494997  80.8519988 141.2397386  34.3793773  80.5806817
 141.3391819  35.9595352  81.3003915 140.0460012  35.8634997  79.5589988
 139.4133971  36.7067026  79.8243172 139.3923232  35.1236685  79.0999563
 141.0680012  36.3184997  78.5489988 141.6663914  37.1317478  78.9556604
 140.5758064  36.7161138  77.6639991 141.9980012  35.1584997  78.1359988
 141.3864582  34.3581093  77.7234937 142.4626731  34.7542581  79.0342742
 143.1030012  35.5374997  77.1139988 143.7479962  34.6815039  76.9198247
 143.7454696  36.3158677  77.5215053 142.4830012  36.0344997  75.7629988
 141.8734474  36.9212889  75.9229678 141.8177519  35.2803963  75.3442523
 143.5940012  36.3554997  74.7429988 143.9837195  35.4313111  74.3219356
 144.4315132  36.8392021  75.2450292 143.0810012  37.2724997  73.6169988
 143.8594579  37.3856105  72.8654989 142.8915916  38.2704935  74.0084835
 141.8200012  36.7534997  72.9289988 141.4521302  37.5212003  72.2525923
 141.0492096  36.6205554  73.6858846 141.9950012  35.4744997  72.2019988
 142.3829798  34.7128287  72.8762257 142.7197881  35.5668285  71.3979880
 140.6480012  34.9554997  71.6149988 140.2566604  35.6099621  70.8430685
 139.8866274  34.8902821  72.3877527 140.8670012  33.5574997  71.0269988
 141.2891580  32.8949581  71.7718902 141.5426504  33.6053597  70.1812585
 139.8750012  33.3124997  69.7929988 139.0760012  34.1144997  69.3869988
 140.2660012  32.2044997  69.1829988 139.6820012  31.7884997  67.9829988
 138.8150801  32.4128511  67.8277723 139.3572631  30.7839090  68.2122034
 140.5850012  31.8054997  66.7299988 140.8480232  32.8336401  66.5438789
 140.0110012  31.1864997  65.4749988 138.9460108  31.3751609  65.4731566
 140.1742729  30.1201187  65.5685885 140.6120012  31.6814997  64.2649988
 139.9340012  32.7714997  63.3459988 141.2220012  33.3804997  62.5729988
 142.3550012  33.6174997  63.4649988 143.2909007  33.6010447  62.9218502
 142.4058732  32.8109980  64.1907839 142.2200012  34.9324997  64.3179988
 143.0210578  34.9238204  65.0463407 141.2754607  34.9726369  64.8410756
 142.3470012  36.2724997  63.5719988 143.3860012  36.2984997  62.5359988
 144.3126090  35.9454898  62.9674104 143.5037702  37.3205099  62.2077830
 143.0685838  35.6855004  61.7058210 141.0970012  36.6204997  62.9239988
 140.3000238  36.5308675  63.6461533 140.9426018  35.9662009  62.0846991
 141.1806647  37.6443996  62.5894448 142.6410012  37.3534997  64.5839988
 141.8465347  37.3820023  65.3148152 142.7020833  38.3055204  64.0784541
 143.5810945  37.1433518  65.0733835 139.0460012  32.2204997  62.3049988
 139.3290012  33.7504997  64.2919988 141.7050012  31.0314997  66.9879988
 142.6340012  31.6124997  67.7029988 142.7980012  32.8294997  67.7599988
 143.6600012  30.6464997  68.2309988 143.5160872  29.6726683  67.7743871
 144.6703498  30.9511405  67.9696627 143.4720012  30.5994997  69.7649988
 144.3508946  31.0549092  70.2079542 142.6390350  31.2486511  70.0156035
 143.2580012  29.2164997  70.3849988 142.3583789  28.7365683  70.0081704
 144.0823358  28.5521951  70.1375380 143.1800012  29.3554997  71.9359988
 144.1350604  29.7595428  72.2666300 142.4320583  30.1066006  72.1781371
 142.8980012  28.1334997  72.7149988 141.9280368  27.7483800  72.4071791
 143.6290011  27.3824764  72.4217683 142.9270012  28.2744997  74.2209988
 142.7808205  27.2745467  74.6264939 143.9321459  28.5756159  74.5026563
 141.8910012  29.2704997  74.8949988 140.9457117  29.2382642  74.3658780
 141.6841104  28.9425243  75.9128270 142.4380012  30.6704997  74.9429988
 142.5177931  31.1352855  73.9718338 142.8240012  31.4144997  76.0229988
 143.2214358  32.4056246  75.8576897 142.7570012  31.0024997  77.5109988
 142.8294554  29.9183145  77.5781843 143.5908846  31.3982772  78.0799273
 141.4270012  31.4414997  78.1739988 141.1388955  32.3777244  77.6973611
 140.6852472  30.7055097  77.8697310 141.3770012  31.6084997  79.7139988
 142.0660121  32.4020989  80.0030854 140.3861634  31.9452773  80.0061038
 141.7170012  30.3724997  80.4569988 141.0906387  29.5903149  80.0339124
 142.7411319  30.1222339  80.1856902 141.5880012  30.3784997  81.9639988
 142.2074779  29.5576528  82.3204381 142.0724988  31.2876331  82.3094888
 140.2040012  30.2414997  82.6129988 139.5431953  31.0706772  82.3666591
 139.6855106  29.3381770  82.2967556 140.3800012  30.1934997  84.1429988
 140.7314597  31.1717275  84.4615301 139.3752354  30.0938184  84.5477486
 141.2780012  29.0954997  84.7649988 141.2363793  29.1320852  85.8494332
 142.3172271  29.2094891  84.4755909 140.9558210  28.1054836  84.4548228
   4.6760012  35.9884997  84.1429988   5.3750366  36.4515996  84.8324311
   5.2540761  35.4750492  83.3801174   4.1175369  35.2367098  84.6939450
   3.7480012  37.0144997  83.5289988   4.3227030  37.7696126  82.9954022
   3.2064149  37.5394745  84.3112390   2.7080012  36.3154997  82.5049988
   1.9167598  37.0305004  82.2799650   2.2292499  35.4925283  83.0319583
   3.3030012  35.7684997  81.1689988   3.5439692  34.7128722  81.2730899
   4.2392956  36.2689921  80.9269944   2.3050012  35.9374997  79.9819988
   2.0347052  36.9871247  79.8995339   1.3897275  35.4053479  80.2358758
   2.8220012  35.4394997  78.5999988   1.9781326  35.2949642  77.9278288
   3.2883662  34.4635801  78.7168818   3.8020012  36.3834997  77.9689988
   4.7788525  36.1933414  78.4098744   3.5269411  37.3952872  78.2637157
   3.9140012  36.3144997  76.4439988   4.6712946  37.0085583  76.0817278
   2.9786338  36.6129446  75.9742089   4.2850012  34.8504997  75.9809988
   3.6623084  34.1094560  76.4776365   5.3143185  34.6033518  76.2379047
   4.1030012  34.7354997  74.4829988   3.0751334  34.9831233  74.2271289
   4.2527934  33.7003932  74.1771461   5.1310012  35.6934997  73.6539988
   6.0966042  35.6485280  74.1531273   4.7892825  36.7227251  73.7491377
   5.3370012  35.3664997  72.1799988   4.3720621  35.1809452  71.7145086
   5.8966287  34.4363440  72.1006418   6.0760012  36.4364997  71.4289988
   7.1484667  36.2865859  71.5412289   5.8621143  37.4206656  71.8363609
   5.7550012  36.4344997  69.9409988   4.6879351  36.5009933  69.7558135
   6.0982336  35.5143739  69.4755397   6.4770012  37.6464997  69.2459988
   7.5406861  37.6190596  69.4456543   6.0782766  38.5845596  69.6136009
   6.2910012  37.6364997  67.7099988   6.0100012  38.6444997  67.0609988
   6.4630012  36.4144997  67.2659988   6.6050012  36.3054997  65.8469988
   7.5297396  35.7610961  65.7289072   6.7206863  37.2936917  65.4259461
   5.4530012  35.5504997  65.1689988   5.6590193  34.4973567  65.2656445
   5.3590012  35.9264997  63.6959988   4.6580248  35.2690628  63.1998033
   6.3387376  35.7835933  63.2575021   4.9490012  37.2834997  63.5629988
   5.4850012  38.2004997  62.3699988   4.4220012  39.4314997  62.3219988
   4.4870012  40.4154997  63.3149988   5.0843072  41.2418123  62.9522014
   5.0290507  39.9886048  64.1538909   3.1100012  40.9304997  63.9259988
   2.4422140  41.4302894  63.2356948   3.3509471  41.6107443  64.7301065
   2.2940012  39.8134997  64.5549988   1.9400012  38.6504997  63.6129988
   1.4980687  39.0569369  62.7136443   1.2232828  38.0195588  64.1173086
   2.8353990  38.0852175  63.4022008   2.7830012  39.3674997  65.8599988
   2.9298889  40.2345616  66.4855717   3.6991542  38.8212039  65.7236368
   2.0254045  38.7263880  66.2869884   1.0090012  40.4814997  64.8369988
   1.1825473  41.3265755  65.4864682   0.3447997  39.7823255  65.3224284
   0.5659260  40.8169511  63.9103965   6.8510012  38.6984997  62.6939988
   5.3590012  37.4264997  61.1269988   4.1720012  35.8374997  65.8549988
   3.1290012  35.0134997  65.3469988   3.2970012  33.9934997  64.6679988
   1.7880012  35.6884997  65.7199988   1.8534479  36.7331672  65.4337481
   0.9866927  35.2652057  65.1194707   1.4960012  35.5164997  67.2559988
   0.4257779  35.4573730  67.4208845   1.9076022  34.5796429  67.6178235
   2.0660012  36.6854997  68.0709988   3.1495801  36.7003176  67.9856107
   1.7148674  37.6179896  67.6359900   1.6500012  36.6494997  69.5679988
   0.5926134  36.3917461  69.5821488   2.1717665  35.8180991  70.0356910
   1.8440012  37.8564997  70.3909988   2.9084672  37.9402946  70.6002630
   1.5912368  38.7073273  69.7612500   1.0310012  37.9704997  71.7469988
  -0.0033027  37.7114667  71.5260498   1.3977985  37.2107537  72.4315159
   1.0730012  39.3374997  72.4589988   0.1891828  39.8765578  72.1382786
   0.9370072  39.1287285  73.5193130   2.3170012  40.1794997  72.2879988
   2.5080648  40.6978924  71.3604656   3.2240012  40.3314997  73.2749988
   4.0660034  40.9730383  73.0580419   3.2440012  39.7444997  74.6459988
   2.7724754  38.7670364  74.5596852   4.2733087  39.5606865  74.9330872
   2.5450012  40.5114997  75.7459988   1.5023192  40.6900970  75.4859559
   2.5326787  39.9210838  76.6601739   3.2530012  41.8744997  76.0249988
   4.3258086  41.7454179  76.1682785   3.1385947  42.5704108  75.1984863
   2.6460012  42.4814997  77.2889988   2.4231038  43.5373373  77.1523658
   1.7047312  42.0038145  77.5552932   3.6720012  42.2974997  78.4669988
   4.6672233  42.6087030  78.1551087   3.4158635  42.9278297  79.3141721
   3.7530012  40.8384997  78.9069988   2.7920892  40.5126307  79.3011316
   3.9580614  40.2025714  78.0477086   4.7940012  40.5894997  79.9359988
   5.8031758  40.7869863  79.5831807   4.6501973  41.2364134  80.7986320
   4.6900012  39.1344997  80.3909988   5.3776056  38.9359386  81.2076031
   4.9269310  38.4414771  79.5907957   3.6870843  38.9052102  80.7398900
  72.4880012 143.8974997  80.2219988  72.5320653 143.3404420  81.1526835
  73.0402156 144.8221622  80.3628828  73.0070134 143.3167404  79.4643993
  70.9930012 144.1834997  79.7939988  70.5433383 144.7120621  80.6328242
  70.5147087 143.2085134  79.7558917  70.7090012 144.9704997  78.4819988
  71.2571117 145.9119466  78.5163715  69.6538572 145.2365145  78.4731450
  71.0430012 144.2294997  77.1519988  70.8813564 143.1626116  77.2893699
  72.0999694 144.3465594  76.9178595  70.1810012 144.7154997  75.9279988
  70.2731844 145.7968846  75.8673209  69.1402104 144.5108888  76.1734658
  70.4960012 144.1284997  74.5949988  70.4579383 143.0415000  74.6374235
  71.5090522 144.3858104  74.2931781  69.4530012 144.6574997  73.4719988
  68.4568019 144.3017379  73.7284957  69.7051736 144.1949429  72.5187515
  69.4170012 146.2214997  73.2969988  70.4020649 146.6083552  73.0392332
  69.1308401 146.7128875  74.2250795  68.4060012 146.6074997  72.1799988
  68.5994806 147.6444692  71.9139145  67.4112730 146.5884705  72.6235422
  68.4100012 145.7674997  70.9389988  67.6057378 146.0982337  70.2854895
  68.1832925 144.7350010  71.2035337  69.7420012 145.8134997  70.1929988
  70.4795054 145.3315209  70.8312190  70.0418578 146.8574584  70.1197581
  69.8100012 145.1764997  68.8199988  68.8535356 145.2904672  68.3156140
  69.9701530 144.1055050  68.9295056  70.9210012 145.7464997  67.9649988
  71.8373768 145.9497678  68.5165327  70.6794557 146.6601336  67.4290857
  71.2270012 144.5944997  66.9139988  70.3337042 144.3333157  66.3561919
  71.5439574 143.6969437  67.4384262  72.3350012 145.0034997  65.9309988
  73.2269914 145.3007250  66.4677031  72.0066223 145.8329466  65.3159751
  72.7990012 143.7614997  65.2159988  73.6730012 143.0684997  65.6809988
  72.0210012 143.4244997  64.0939988  72.0770012 142.0984997  63.6039988
  72.9812668 141.7418876  64.0736726  72.2150400 142.1064937  62.5325169
  70.7650012 141.1204997  64.0389988  70.8985211 140.1746736  63.5405217
  69.4040012 141.7094997  63.6779988  68.6526895 140.9314734  63.6806333
  69.4708626 142.1238512  62.6797867  69.0760012 142.7104997  64.6009988
  67.6440012 143.3794997  64.5699988  67.8040012 144.5634997  63.5169988
  68.3610012 145.9104997  64.0159988  68.1860521 146.0737549  65.0714274
  67.8796666 146.7320321  63.4933149  69.8290012 146.0354997  63.6839988
  70.3187516 145.1690945  64.1103032  70.2110582 146.9231742  64.1671586
  70.3080012 146.1104997  62.2219988  71.7640012 146.5084997  62.3549988
  71.8272689 147.3773318  62.9956718  72.1333413 146.7548595  61.3706235
  72.3207792 145.6731909  62.7524589  70.1860012 144.6704997  61.7749988
  69.2020951 144.3125661  62.0367745  70.9554333 144.0889141  62.2505010
  70.3134289 144.6533417  60.7022617  69.5720012 147.1044997  61.3839988
  68.5199379 146.8611008  61.3853582  69.9509887 147.0665404  60.3737624
  69.7188316 148.0958201  61.7879290  66.4880012 142.5664997  64.1469988
  67.4790012 143.9274997  65.9099988  70.9120012 140.8734997  65.4649988
  69.9990012 140.1224997  66.1579988  69.2050012 139.3704997  65.7099988
  70.2370012 140.3624997  67.6579988  71.2993496 140.2688745  67.8585059
  69.9723277 141.3821115  67.9267860  69.4140012 139.3524997  68.4549988
  68.4084276 139.4811955  68.0698751  69.7536248 138.3880365  68.0909938
  69.3670012 139.3434997  69.9909988  68.7872247 138.5028647  70.3636195
  70.3692162 139.2233349  70.3949671  68.7860012 140.6514997  70.5139988
  69.3272626 141.4462185  70.0039361  67.7568860 140.7146301  70.1688344
  68.8210012 140.9334997  72.0179988  69.8436493 140.9619093  72.3885182
  68.3957030 141.9131396  72.2273025  68.0380012 139.8924997  72.7859988
  68.2992484 138.9148097  72.3840369  68.3664465 139.8959415  73.8215806
  66.5090012 140.0634997  72.7539988  66.1979538 139.7644866  71.7598053
  66.1163666 139.3116594  73.4373145  65.9340012 141.3864997  73.1209988
  65.5503017 141.9455741  72.2809009  65.8230012 141.9554997  74.3409988
  65.4269414 142.9582829  74.4129189  66.1860012 141.3534997  75.6469988
  65.3208945 141.3884973  76.3069886  66.4566369 140.3074352  75.5565195
  67.3330012 142.1204997  76.3179988  68.1067211 142.3410355  75.5835422
  66.9618566 143.0826978  76.6656847  67.9600012 141.3494997  77.5179988
  68.3290615 142.0926923  78.2247987  67.1603368 140.8178323  78.0263005
  69.0880012 140.3714997  77.1799988  68.8615164 139.8586774  76.2478706
  70.0175757 140.9124311  77.0115668  69.2930012 139.3594997  78.2909988
  68.3315941 138.8925202  78.4964655  69.9344939 138.5660635  77.9174066
  69.8420012 139.8984997  79.6049988  69.3507105 140.8487660  79.8062710
  69.5262128 139.2218115  80.3969614  71.4370012 140.1114997  79.7199988
  71.7801282 140.8277847  78.9776278  71.6533190 140.5607370  80.6868004
  72.2210012 138.8504997  79.5919988  73.2773161 139.0342720  79.7637412
  72.1238196 138.4110111  78.6050101  71.8918808 138.1108434  80.3163808
  36.6390012   8.9764997  81.1639988  37.7168937   8.9702075  81.2925956
  36.2537409   9.8733468  81.6404751  36.4336285   9.0553771  80.0999441
  35.9890012   7.6934997  81.7669988  36.2642867   7.6479646  82.8193045
  36.4606977   6.8381544  81.2908677  34.4390012   7.5914997  81.6379988
  34.0122986   8.4064405  82.2225715  34.1447224   6.6730947  82.1420854
  33.8160012   7.5964997  80.2289988  34.2166919   8.4279296  79.6533069
  32.7409440   7.7598453  80.2862376  34.0910012   6.2994997  79.4699988
  33.8114359   5.4359653  80.0680997  35.1576579   6.2031613  79.2742251
  33.3490012   6.2534997  78.1799988  32.5626387   7.0052469  78.1435668
  32.8588865   5.2933318  78.0335671  34.3290012   6.4954997  77.0409988
  34.9588472   7.3482868  77.2876121  33.7741534   6.7756107  76.1466209
  35.2460012   5.2444997  76.7169988  34.6319225   4.3457091  76.7561642
  35.9858266   5.1418222  77.5087056  35.9400012   5.3074997  75.4029988
  36.7795612   5.9979204  75.4477116  35.2703135   5.6932850  74.6353627
  36.4480012   3.9104997  74.9809988  35.7856153   3.1596953  75.4062478
  37.4268724   3.7432251  75.4296182  36.5510012   3.7194997  73.4549988
  35.6588311   4.0836764  72.9500741  36.6482303   2.6711433  73.1781893
  37.7670012   4.5024997  72.9179988  38.6786144   3.9617910  73.1605154
  37.8307313   5.4553451  73.4402000  37.7000012   4.7714997  71.4229988
  37.3492606   3.8874908  70.8931295  38.6749667   5.0089012  71.0066376
  36.7090012   5.9484997  71.1099988  37.1151161   6.9340358  71.3128146
  35.7784641   5.8712672  71.6660815  36.3990012   5.8324997  69.6349988
  36.0230162   4.8440522  69.4033783  37.2909973   6.0119445  69.0466014
  35.2660012   6.8244997  69.2869988  34.6740012   7.5034997  70.1309988
  35.1490012   6.9684997  67.9699988  34.3250012   8.0394997  67.4879988
  34.5414765   8.8987796  68.1046335  33.2790426   7.7879470  67.5874165
  34.6920012   8.3384997  65.9889988  33.9656138   9.0712557  65.6786377
  34.6240012   7.0824997  65.0409988  34.9017246   7.4594267  64.0660133
  33.5685655   6.8405210  65.0316781  35.4070012   5.9114997  65.3729988
  36.6650012   5.5714997  64.4549988  37.6420012   6.8284997  64.6569988
  38.9370012   6.6604997  64.1019988  39.2827999   5.6435258  64.2338181
  39.6314727   7.2948207  64.6452695  39.0620012   7.1204997  62.5569988
  38.4086114   6.5455238  61.9130006  40.0811033   6.9914524  62.2221038
  38.7270012   8.5454997  62.3039988  39.6230012   9.3744997  63.1959988
  39.5443526   9.0006224  64.2076134  39.2770674  10.3967518  63.1581776
  40.6350511   9.3203339  62.8237917  39.0790012   8.9404997  60.8789988
  38.6581317   8.2087377  60.2066094  40.1487937   8.9930810  60.7833473
  38.6390204   9.9098523  60.6944199  37.2900012   8.8874997  62.6739988
  36.6180490   8.2591897  62.1085000  37.1002941   9.9240320  62.4389203
  37.1411710   8.7238134  63.7315863  37.3100012   4.3334997  64.9299988
  36.2160012   5.6184997  63.0529988  36.0120012   8.8704997  65.8629988
  36.3660012  10.0064997  66.4839988  35.6170012  10.6644997  67.1819988
  37.8110012  10.3444997  66.2009988  38.3081842   9.4291277  65.8969326
  37.8664551  11.0117214  65.3444668  38.4900012  10.9914997  67.4699988
  39.3878404  11.5070463  67.1472645  37.8311755  11.7567335  67.8679925
  38.8600012   9.9774997  68.5909988  37.9983024   9.3763915  68.8699219
  39.6092280   9.2808828  68.2229647  39.4160012  10.6854997  69.8099988
  40.2273478  11.3440263  69.5054248  38.6634791  11.3224089  70.2685390
  39.9430012   9.7344997  70.8459988  39.2102104   8.9440756  70.9948227
  40.8282037   9.2533066  70.4345979  40.3050012  10.3504997  72.1959988
  41.2413995  10.9028925  72.1349958  39.5541750  11.0568343  72.5390284
  40.4390012   9.2574997  73.2179988  41.1185988   8.5024750  72.8402889
  40.9079710   9.6745407  74.1082179  39.0850012   8.6364997  73.6189988
  38.8013900   7.8284105  72.9616476  38.2430012   8.9294997  74.6309988
  37.3544986   8.3157498  74.6695256  38.3260012   9.9894997  75.7529988
  38.8930586  10.8534611  75.4105992  37.3578768  10.3657661  76.0641898
  39.0560012   9.3844997  76.9699988  38.8427007  10.0237572  77.8258946
  38.5777796   8.4293162  77.1782956  40.5810012   9.1734997  76.8519988
  40.7536352   8.4857005  76.0242085  41.0288500  10.1192063  76.5594678
  41.2980012   8.6314997  78.1289988  40.7407140   7.7942334  78.5431983
  42.2853074   8.2464075  77.8799698  41.4350012   9.7144997  79.1579988
  42.0850763  10.5054052  78.7885929  40.4773206  10.1869783  79.3585901
  42.0610012   9.1584997  80.5089988  42.8312361   8.4168844  80.3049695
  42.5499716   9.9562751  81.0651429  41.0000012   8.5224997  81.4059988
  40.0669939   9.0796462  81.3743718  40.7640886   7.5287472  81.0316802
  41.4740012   8.4014997  82.8619988  40.7426689   7.8688540  83.4624243
  41.6261349   9.3725621  83.3209475  42.4120316   7.8569986  82.9233050
 137.1240012 115.7034997  82.5959988 137.4483413 116.1181202  83.5453787
 136.0975486 116.0178528  82.4305682 137.7342228 116.1490181  81.8151307
 137.2380012 114.2594997  82.5859988 136.6466449 113.9180649  83.4338921
 138.2759538 114.0585067  82.8371363 136.8260012 113.4494997  81.3119988
 136.9118894 112.3817714  81.5132662 137.5338687 113.6633328  80.5136443
 135.3920012 113.7604997  80.7959988 135.3303643 114.7853547  80.4366618
 134.6557416 113.6759918  81.5937997 135.0020012 112.7954997  79.6259988
 134.0400792 113.1151602  79.2334477 134.8421575 111.8106198  80.0616897
 136.0250012 112.6764997  78.4349988 136.9683339 112.3489953  78.8682207
 136.1933278 113.6867204  78.0679875 135.6770012 111.7944997  77.2959988
 135.6553486 110.7720332  77.6686426 136.4990213 111.8411251  76.5830198
 134.4700012 112.0714997  76.6309988 133.6672747 111.9254981  77.3526391
 134.3392311 111.3030400  75.8713588 134.3200012 113.4714997  75.9739988
 135.3201934 113.8758134  75.8336887 133.8284082 114.1216600  76.6966362
 133.5460012 113.5274997  74.6219988 132.8012471 112.7360696  74.6697349
 134.2559741 113.2323494  73.8498241 132.9160012 114.7814997  74.2379988
 132.5822862 115.2804244  75.1453297 132.0161201 114.5580714  73.6675412
 133.7450012 115.7094997  73.4829988 134.5209887 116.0149318  74.1806903
 133.1105016 116.5811188  73.3334647 134.3690012 115.3204997  72.1359988
 133.6343461 115.2788886  71.3336258 134.8719664 114.3575380  72.1382071
 135.4000012 116.4304997  71.7849988 136.2586842 116.3632957  72.4449170
 134.9442811 117.4015120  71.9597734 135.8840012 116.3694997  70.3079988
 135.0398207 116.4014529  69.6309616 136.4382198 115.4556169  70.1298726
 136.7480012 115.1284997  70.0079988 137.4670012 114.5374997  70.7899988
 136.4250012 114.8024997  68.7869988 136.6330012 113.4544997  68.2559988
 136.9117972 112.8992519  69.1388547 137.4699700 113.4757488  67.5731931
 135.3940012 112.8164997  67.5919988 135.6558600 111.8079732  67.3177758
 135.0250012 113.6064997  66.3549988 135.9184330 113.9657520  65.8625373
 134.4310779 114.4586394  66.6611003 134.2560012 112.7454997  65.4559988
 132.7690012 112.9734997  65.1459988 132.6300012 114.4484997  64.5469988
 133.7070012 114.9534997  63.7829988 134.2052716 114.1709787  63.2257048
 134.4517487 115.3791533  64.4493074 133.2780012 116.1304997  62.8399988
 134.1885471 116.4643218  62.3586279 132.8657891 116.9505503  63.4100647
 132.3430012 115.8794997  61.7769988 130.9360012 115.6654997  62.2249988
 130.9316178 114.9129784  63.0015466 130.3657685 115.3163628  61.3770376
 130.5318445 116.6047675  62.5716258 132.3490012 117.0704997  60.9109988
 133.3724319 117.3138773  60.6700198 131.8626312 117.8804600  61.4245926
 131.8062075 116.8185679  60.0114419 132.7850012 114.6464997  60.9639988
 133.7742590 114.8185100  60.5666786 132.0910171 114.4896899  60.1519355
 132.7940624 113.7764384  61.6045815 132.4660012 112.0034997  64.1069988
 132.0400012 112.8754997  66.4259988 134.2680012 112.7504997  68.5289988
 134.3070012 111.8414997  69.5339988 135.2190012 111.1094997  69.8269988
 133.1050012 112.0304997  70.4019988 133.2221222 111.5019774  71.3424773
 132.9366971 113.0718505  70.6649990 131.9430012 111.4764997  69.5749988
 131.8214745 112.0591416  68.6684555 132.1496060 110.4606587  69.2534173
 130.7130012 111.5114997  70.3269988 129.9469045 111.0837418  69.6853032
 130.8500372 110.8088688  71.1452872 130.2350012 112.8304997  70.8979988
 129.2653710 112.6878859  71.3714802 130.9050624 113.1838338  71.6779827
 130.0960012 113.9184997  69.8379988 130.9832040 113.9499823  69.2088875
 129.2649265 113.6780765  69.1777771 129.8490012 115.3334997  70.4579988
 130.7289375 115.5770282  71.0513846 129.8169109 116.0554029  69.6467380
 128.5950012 115.5074997  71.3179988 127.7307884 115.2076541  70.7367855
 128.6583929 114.8124781  72.1542239 128.4250012 116.9104997  71.8659988
 127.9943493 117.6761591  71.2384171 128.7720012 117.2664997  73.1169988
 128.6055752 118.2944779  73.4053965 129.3810012 116.3994997  74.2209988
 129.6990051 115.4668436  73.7581303 130.2786065 116.8663612  74.6109039
 128.4840012 116.0784997  75.3239988 128.2112155 117.0043534  75.8290611
 127.5631528 115.6807541  74.9017479 129.0520012 115.0614997  76.3689988
 128.2264972 114.6324200  76.9369255 129.5283421 114.2327719  75.8524587
 130.0410012 115.6944997  77.3269988 130.7164123 116.2794076  76.7066380
 129.4746025 116.4110103  77.9193585 130.8660012 114.7644997  78.2889988
 131.5464180 114.1822776  77.6704195 131.4957270 115.3994756  78.9061502
 130.0560012 113.7594997  79.1979988 129.3632005 114.2787199  79.8577870
 129.4519021 113.0771312  78.6027916 131.0220012 112.9304997  80.0589988
 131.5738521 112.2630178  79.4018508 131.7549342 113.6319010  80.4516289
 130.4260012 112.1154997  81.2429988 131.2146192 111.6465570  81.8237253
 129.7628056 111.3284319  80.9003080 129.8590628 112.7566103  81.9121019
 124.1790012 130.2814997  80.9439988 123.4924372 131.1213832  80.9846767
 125.1280434 130.6090173  81.3585358 123.7877049 129.5031032  81.5933047
 124.3460012 129.7744997  79.5239988 124.7094555 130.5887468  78.8994144
 123.3678355 129.5047711  79.1350868 125.3070012 128.5824997  79.4089988
 124.9184507 127.7820147  80.0384282 126.2498279 128.8881244  79.8582673
 125.5880012 128.0394997  78.0309988 126.0935016 127.0783515  78.0935565
 126.2540494 128.6945452  77.4715337 124.2690012 127.8544997  77.2419988
 123.9824918 128.8062774  76.8019935 123.4829517 127.5960778  77.9496070
 124.3260012 126.7474997  76.0899988 123.3110529 126.5054014  75.7800224
 124.7461144 125.8308242  76.4983955 125.1310012 127.1694997  74.8799988
 125.2969482 126.2931340  74.2561279 126.1144909 127.4927077  75.2183986
 124.4960012 128.2814997  74.0329988 124.2442118 129.0853895  74.7235161
 123.5495840 127.8865477  73.6683187 125.3020012 128.8654997  72.8379988
 126.1285574 129.4558963  73.2275852 124.6652343 129.5591055  72.2902617
 125.8450012 127.8074997  71.8719988 125.0172197 127.1098504  71.7654040
 126.6084027 127.2890706  72.4515490 126.4180012 128.1644997  70.4819988
 127.4315046 128.5504337  70.5680612 125.8371410 128.9464358  69.9958862
 126.4490012 126.9084997  69.5709988 125.4676224 126.4832079  69.3754440
 127.0547290 126.1008051  69.9776846 127.1000012 127.3974997  68.2349988
 128.1447557 127.6365846  68.4262533 126.6312258 128.3216534  67.9087113
 127.0480012 126.3384997  67.0429988 127.5236087 126.7555441  66.1614000
 126.0076715 126.1598948  66.7843360 127.7160012 124.9704997  67.3879988
 127.2790419 124.5510104  68.2852927 128.7800423 125.0994770  67.5469024
 127.4850012 124.0524997  66.2999988 127.1020012 122.8814997  66.4669988
 127.7460012 124.5694997  65.1329988 127.9650012 123.7084997  63.9999988
 128.1051167 122.7138405  64.3955779 128.8494929 123.9982574  63.4514491
 126.7090012 123.7534997  63.0919988 126.9079873 123.0726630  62.2809748
 126.3890012 125.1394997  62.5389988 125.6395746 125.0153155  61.7691032
 127.3048489 125.4885443  62.0785904 125.9370012 126.0804997  63.5369988
 125.8970012 127.6304997  63.1529988 124.4240012 128.0474997  63.2989988
 123.3560012 127.9374997  62.3529988 123.7122995 127.9682960  61.3315821
 122.6793961 128.7792930  62.4686988 122.4790012 126.6694997  62.6029988
 123.0502471 125.7906751  62.3317158 121.6060086 126.7256347  61.9688774
 121.9650012 126.4104997  63.9899988 123.1040012 126.0974997  64.9529988
 123.7156606 125.3167466  64.5221490 122.6711621 125.7507684  65.8795665
 123.6693137 126.9997166  65.1322843 121.2710012 127.6374997  64.5529988
 120.5589204 127.9931453  63.8241839 122.0094722 128.3858109  64.7789651
 120.7585621 127.3337282  65.4543456 121.0750012 125.2234997  63.8909988
 120.2812504 125.4317588  63.1890943 120.6533224 125.0143183  64.8626366
 121.6469928 124.3709359  63.5542563 126.6330012 128.4744997  64.1079988
 126.2590012 127.8094997  61.7419988 125.5630012 123.2804997  63.8379988
 124.7170012 122.6324997  63.1559988 124.6430012 122.6004997  61.9139988
 123.7010012 121.9684997  64.1429988 122.8654106 122.6590290  64.0928925
 123.3806620 121.0750178  63.6129234 124.0990012 121.6344997  65.6249988
 123.4797240 120.8324182  66.0112916 125.1226867 121.2788565  65.6851559
 123.9270012 122.8624997  66.5029988 124.4896481 123.7105920  66.1211324
 122.8852618 123.1731770  66.5209911 124.3820012 122.5314997  67.9869988
 124.0276108 121.5397070  68.2617000 125.4658830 122.4998992  68.0670208
 123.8200012 123.5734997  69.0449988 124.0995102 124.6037377  68.8343207
 122.7336311 123.5613496  69.1085091 124.3810012 123.1684997  70.3709988
 124.1195050 122.1232458  70.5283679 125.4651523 123.2078868  70.3128356
 123.9440012 123.9574997  71.5289988 124.5188148 123.6870859  72.4070908
 124.1406026 125.0132063  71.3468520 122.4460012 123.7744997  71.7729988
 121.7437689 124.1745217  71.0571732 121.9300012 123.1164997  72.8459988
 120.8732820 122.9514397  72.9999789 122.8240012 122.5334997  73.9539988
 122.5030919 121.5145342  74.1636357 123.8615910 122.4676972  73.6461702
 122.7230012 123.3884997  75.3249988 123.0842494 124.3946450  75.1155320
 121.6657021 123.4892614  75.5625377 123.4430012 122.8374997  76.5129988
 123.0989154 123.3499741  77.4113761 123.1872738 121.7897116  76.6443294
 124.9980012 122.9844997  76.3989988 125.3701328 122.5929630  75.4548790
 125.3167482 124.0244374  76.4438851 125.6150012 122.2234997  77.5529988
 125.2758450 122.7132916  78.4638593 125.1624689 121.2356868  77.5610852
 127.1730012 122.0994997  77.6249988 127.4505616 121.5164777  78.5013141
 127.5295298 121.5377734  76.7634972 127.9400012 123.4774997  77.6759988
 129.0084882 123.2781945  77.6530247 127.7144496 123.9900106  76.7433831
 127.6280012 124.3984997  78.8199988 128.1453566 125.3461128  78.7040601
 127.9299472 123.9778349  79.7732095 126.5632909 124.6073554  78.8739651
 141.1990012 102.7824997  84.2369988 141.3075063 103.3130009  85.1778622
 141.7677625 101.8599657  84.3093290 140.1515565 102.5152456  84.1272397
 141.6870012 103.6564997  83.0309988 142.7338285 103.9304412  83.1506298
 141.1307949 104.5889170  82.9857611 141.5160012 102.8744997  81.7179988
 140.5302982 102.4095442  81.7296246 142.2345533 102.0573896  81.7316019
 141.6910012 103.6514997  80.4149988 142.1315983 102.9825602  79.6790340
 142.4181363 104.4464300  80.5733221 140.4870012 104.2104997  79.8649988
 140.0129072 104.7618198  80.6729926 139.8424603 103.3579209  79.6575342
 140.5540012 105.1124997  78.6169988 140.7629076 106.1333339  78.9317568
 139.5740078 105.1342557  78.1450701 141.5930012 104.6794997  77.5949988
 142.5762172 104.7702781  78.0530549 141.5742442 105.3916548  76.7711582
 141.4160012 103.2094997  77.0209988 140.3678352 102.9327751  77.1269356
 141.9759341 102.5296093  77.6604581 141.8500012 103.0034997  75.5589988
 141.5983483 101.9736853  75.3146749 142.9379203 103.0583522  75.5587783
 141.2820012 103.9574997  74.4439988 140.9497393 104.8987408  74.8763947
 140.4087115 103.5172571  73.9633942 142.3720012 104.2204997  73.3759988
 143.1732210 104.7633225  73.8729204 141.9506723 104.9070817  72.6437317
 142.9940012 102.9954997  72.6349988 143.6314705 102.4485952  73.3254677
 143.6461615 103.3614933  71.8441729 141.9550012 102.0524997  72.0159988
 141.2265173 102.6762781  71.5007671 141.4177318 101.5590374  72.8210519
 142.4800012 100.9414997  70.9769988 142.6526772 101.3474688  69.9856779
 141.7598272 100.1352539  70.8656022 143.7880012 100.3554997  71.5159988
 143.6472029  99.9737714  72.5192437 144.5608608 101.1146244  71.5380598
 144.3830012  99.2724997  70.4479988 144.6500012  98.1014997  70.6509988
 144.4670012  99.8674997  69.2449988 144.7150012  99.1014997  68.0999988
 144.7208599  98.0955871  68.4918758 145.6699350  99.3061198  67.6380204
 143.5680012  99.2734997  67.0919988 143.9104461  98.8178842  66.1776465
 143.2660012 100.7994997  66.8489988 144.0652251 101.2127739  66.2487933
 143.2810855 101.2750657  67.8217240 141.9930012 101.0094997  66.2069988
 141.7330012 102.3774997  65.4719988 142.2730012 101.9444997  64.0379988
 141.9380012 102.7704997  62.8979988 142.7423654 102.8494581  62.1783094
 141.7106711 103.7832187  63.2181834 140.6280012 102.2504997  62.2209988
 140.4524585 102.9047708  61.3763905 139.7538504 102.2609109  62.8559233
 140.7110012 100.8164997  61.6339988 140.7110012  99.7194997  62.7429988
 141.4713533  99.9651528  63.4715955 140.9460168  98.7742884  62.2766906
 139.7281321  99.6701015  63.1871217 139.4530012 100.6224997  60.6479988
 139.4135636 101.4637602  59.9731362 138.5552171 100.5468626  61.2350531
 139.6150590  99.7096030  60.0933331 141.8730012 100.6554997  60.7639988
 141.8186002 101.3755983  59.9611411 141.8739387  99.6564428  60.3546890
 142.7762051 100.8124776  61.3358515 140.3320012 102.7424997  65.5049988
 142.6000012 103.4184997  66.0499988 142.4020012  98.5284997  67.5229988
 141.7660012  97.9034997  66.5749988 141.9140012  97.7464997  65.3869988
 140.4740012  97.3844997  67.2619988 139.8194954  96.9524045  66.5120195
 140.6966775  96.5817475  67.9605052 139.8090012  98.5944997  67.9899988
 140.4642741  98.8951055  68.8001312 139.7771548  99.4338362  67.3025884
 138.3650012  98.3194997  68.5679988 137.7442387  97.9316855  67.7643146
 138.4555864  97.5166058  69.2954744 137.6690012  99.5164997  69.2419988
 137.7754456 100.3724727  68.5781571 136.6026509  99.3152595  69.3098324
 138.1790012  99.9084997  70.6079988 139.2188186  99.6070990  70.7168031
 138.1674648 100.9932928  70.6944386 137.3230012  99.2934997  71.8019988
 136.6618796 100.0739759  72.1754640 136.6810441  98.5095980  71.4099436
 138.1560012  98.7104997  72.9889988 138.9341713  99.4172812  73.2526103
 137.5048839  98.6327003  73.8586767 138.7300012  97.3594997  72.6989988
 138.0256375  96.5723364  72.4758399 140.0560012  97.0324997  72.6769988
 140.3294212  96.0406842  72.3466149 141.2420012  97.9074997  73.0639988
 142.1465271  97.6150113  72.5334289 141.1118268  98.9681385  72.8802028
 141.4660012  97.6764997  74.5479988 140.4820789  97.7398832  75.0112315
 141.7750591  96.6364983  74.6336683 142.4670012  98.5734997  75.3309988
 143.3098070  98.8223796  74.6861391 141.9935906  99.5166537  75.5895464
 143.0030012  97.8784997  76.6409988 142.9964398  98.6768110  77.3797822
 142.2087115  97.1916763  76.9281618 144.3370012  97.1464997  76.6789988
 144.4742101  96.5395840  75.7860166 145.1768624  97.8355241  76.7014345
 144.3890012  96.2344997  77.8689988 143.4427399  95.7112098  77.9940603
 145.1437037  95.4632959  77.7258105 144.7240012  97.0354997  79.2479988
 145.5927734  97.6725620  79.1020490 143.8936025  97.7089030  79.4486951
 144.9450012  96.1434997  80.4799988 145.0752010  96.7461517  81.3738262
 145.8270688  95.5205897  80.3766509 144.0950595  95.4872254  80.6444503
  44.0330012   5.7474997  80.6009988  43.7373310   6.4122191  81.4067011
  43.7471852   4.7381169  80.8825049  43.4570049   6.0188628  79.7205430
  45.4920012   5.8384997  80.3339988  46.0760227   5.5702037  81.2127132
  45.7825725   6.8523629  80.0723432  45.8330012   4.8864997  79.1969988
  45.6204163   3.8669959  79.5184776  46.9073414   4.9317138  79.0299068
  45.1060012   5.1614997  77.8349988  45.5584131   6.0255180  77.3532874
  44.0645709   5.4258483  78.0117719  45.1700012   3.9934997  76.8869988
  44.4453725   4.1445934  76.0909730  44.8510425   3.1025986  77.4254462
  46.4910012   3.7514997  76.2889988  46.9767111   2.9475584  76.8390727
  47.1054793   4.6367550  76.4383862  46.4640012   3.3904997  74.7549988
  46.0593113   4.2354964  74.2009441  45.7712175   2.5646588  74.5992175
  47.7990012   3.0264997  74.1929988  48.2115154   2.2040021  74.7759059
  48.4779999   3.8661660  74.3293993  47.7730012   2.6274997  72.6899988
  47.0389788   1.8421361  72.5227977  48.7354176   2.2112874  72.3948736
  47.4410012   3.8434997  71.7829988  47.8641907   4.7276150  72.2547505
  46.3599552   3.9801429  71.7928641  47.9260012   3.7414997  70.3209988
  48.9556365   3.3909937  70.2978098  47.9301634   4.7228698  69.8498052
  47.0330012   2.7404997  69.4479988  46.6814577   3.2821244  68.5731966
  46.1468404   2.4973118  70.0313072  47.7300012   1.4004997  69.0109988
  48.2192115   1.0041910  69.8991793  48.5237158   1.6518020  68.3130459
  46.8770012   0.2954997  68.4139988  46.1757223  -0.0952223  69.1439914
  47.5082256  -0.5347693  68.1085464  46.1010012   0.7974997  67.1859988
  46.7790827   1.2229577  66.4571422  45.3831655   1.5552010  67.4769793
  45.3830012  -0.4665003  66.5629988  45.3870012  -1.6195003  66.9979988
  44.5910012  -0.0055003  65.6239988  43.8330012  -0.9425003  64.8889988
  43.1132468  -1.2697204  65.6240788  44.4470921  -1.7823025  64.5977659
  43.1100012  -0.3345003  63.6649988  42.5378799  -1.1345701  63.2251584
  44.1110012   0.2764997  62.5809988  43.5362995   0.4190750  61.6759069
  44.8425494  -0.5029834  62.4082902  44.7530012   1.4814997  62.9549988
  45.8800012   1.9974997  61.9079988  46.6060012   3.0834997  62.7869988
  46.6890012   2.9304997  64.2259988  47.6447080   3.3052277  64.5686245
  46.6814970   1.8654196  64.4389429  45.5120012   3.5284997  65.0749988
  45.9243091   3.5691887  66.0752965  44.6187654   2.9208668  65.0920059
  45.0320012   4.9944997  64.7489988  44.2720012   5.1754997  63.4519988
  44.8450502   4.7291953  62.6508987  44.1631393   6.2351258  63.2746813
  43.2969485   4.7225174  63.5509751  44.2670012   5.4544997  65.9269988
  44.8562282   5.2692622  66.8119917  43.3285583   4.9306417  65.9626067
  44.0988536   6.5151986  65.8089258  46.2420012   5.8924997  64.8239988
  46.6776516   5.8205882  65.8094527  45.9395911   6.9116376  64.6354357
  46.9646263   5.5867645  64.0811839  46.7690012   0.8464997  61.5809988
  45.2870012   2.6494997  60.6979988  42.1590012   0.6684997  64.1559988
  41.1860012   1.1214997  63.3339988  40.8910012   0.7364997  62.2219988
  40.3980012   2.3204997  64.0899988  39.8646656   2.8666298  63.3187348
  39.6335137   1.8768327  64.7229486  41.3100012   3.2174997  64.8879988
  42.3326157   2.9600767  64.6349099  41.1659870   4.2395967  64.5524239
  41.1350012   3.1394997  66.4059988  41.2625497   4.1423808  66.8055170
  40.0976304   2.8701071  66.5886308  42.0150012   2.1774997  67.1429988
  42.2757668   1.4045854  66.4223666  42.9395263   2.7001469  67.3760121
  41.4910012   1.4874997  68.4309988  40.7019746   0.8144736  68.1017967
  42.3111673   0.8535400  68.7623650  40.9800012   2.3304997  69.6569988
  40.0889566   2.8700121  69.3397182  40.6631556   1.6506852  70.4429880
  42.0120012   3.3434997  70.2569988  42.3034686   4.0329414  69.4732279
  41.4936457   3.9361104  71.0096382  43.2290012   2.6984997  70.8999988
  44.0190156   2.6270259  70.1676583  43.4860012   2.2554997  72.0909988
  44.4479339   1.8364546  72.3492556  42.4600012   2.2774997  73.2749988
  42.9329403   2.7691396  74.1234324  41.5873836   2.8716628  73.0276332
  42.0170012   0.8854997  73.7159988  41.2630221   0.9325627  74.5008590
  41.5620521   0.3410657  72.8907279  43.2730012   0.0814997  74.2389988
  43.0122138  -0.9765578  74.2142751  44.0740966   0.2137444  73.5170144
  43.7800012   0.4414997  75.6319988  44.0453817   1.4960680  75.6074273
  42.9383251   0.3554556  76.3170263  44.9630012  -0.3865003  76.1739988
  44.6911250  -1.4339045  76.0573028  45.8035638  -0.2218392  75.5054435
  45.4140012  -0.1645003  77.6779988  45.3960261   0.8973210  77.9169453
  44.6991036  -0.6370075  78.3491861  46.9040012  -0.7475003  78.0139988
  46.9306725  -1.8067881  77.7708670  47.5931616  -0.2677187  77.3224928
  47.4230012  -0.5365003  79.4619988  48.4491281  -0.8786158  79.5573376
  46.8299010  -1.0812857  80.1887601  47.3977832   0.5142576  79.7366127
  34.7760012   9.7314997  81.7029988  34.7010867   8.6533554  81.6009121
  34.6166742   9.9771010  82.7489839  35.7930733  10.0175500  81.4493227
  33.7860012  10.4304997  80.8259988  32.8043602  10.0523327  81.1063090
  33.9733511  10.0744902  79.8165577  33.7600012  12.0114997  80.8489988
  34.7819586  12.3659741  80.7152830  33.4644691  12.3156785  81.8511500
  32.8330012  12.7224997  79.8249988  33.1877646  12.5604869  78.8095458
  32.8262538  13.8012127  79.9734527  31.4190012  12.1924997  79.9339988
  31.0168302  12.4497136  80.9105603  31.4583401  11.1051112  79.8965320
  30.4400012  12.7114997  78.8299988  30.3325364  13.7894892  78.9358615
  29.4537233  12.2885219  79.0086683  30.8810012  12.3824997  77.3889988
  31.3387949  11.3954841  77.3574524  31.6488651  13.0844632  77.0667223
  29.7190012  12.4274997  76.4119988  29.1259303  13.3191481  76.6111996
  29.0647716  11.5786463  76.6020398  30.1620012  12.4194997  74.8649988
  30.8319745  11.5774299  74.7050135  30.7498150  13.3160191  74.6718543
  29.0190012  12.3474997  73.8719988  28.4852982  13.2856708  74.0072581
  28.3654434  11.5660352  74.2587862  29.2780012  12.0944997  72.3539988
  28.3688947  11.8732184  71.7989303  29.9621027  11.2716455  72.1538885
  29.8900012  13.4254997  71.7899988  30.9264707  13.5442601  72.0963416
  29.3566850  14.2902779  72.1803865  29.7850012  13.4364997  70.2269988
  30.2739343  14.3370038  69.8591828  28.7427428  13.5133874  69.9302500
  30.4370012  12.1974997  69.4999988  29.6711947  11.5960230  69.0213431
  30.9177977  11.5635511  70.2402933  31.4880012  12.6094997  68.4499988
  32.2455781  13.2392135  68.8989738  31.0184474  13.1543529  67.6396142
  32.2770012  11.3664997  67.9819988  32.3120012  10.3734997  68.6919988
  33.0040012  11.6294997  66.9269988  33.9470012  10.7014997  66.4859988
  34.0451838   9.9543008  67.2589903  34.9081470  11.1659442  66.3196200
  33.4060012  10.0554997  65.1769988  34.1724961   9.3834446  64.8281127
  33.0390012  11.0914997  64.0369988  33.8851591  11.7519360  63.9041773
  32.2040743  11.6688662  64.4140001  32.7120012  10.4994997  62.8649988
  31.5140012  10.8564997  61.9179988  30.2690012  11.0144997  62.8819988
  29.4720012   9.9134997  63.3239988  29.9792272   8.9577025  63.3049581
  28.5802055   9.8011288  62.7141871  28.9340012  10.2514997  64.7989988
  29.7593156  10.5671559  65.4246713  28.5176621   9.3414918  65.2063370
  27.8700012  11.3024997  64.9639988  28.4430012  12.6814997  64.7339988
  29.3269576  12.7946178  65.3465013  27.6990965  13.4053630  65.0318706
  28.6627947  12.7989695  63.6834710  26.7780012  10.9914997  63.9299988
  26.5129968   9.9487397  64.0144868  27.1479982  11.2248779  62.9476512
  25.9246634  11.6110583  64.1650705  27.4020012  11.2144997  66.4269988
  27.0333062  10.2186646  66.6231073  26.6117323  11.9317439  66.5903565
  28.2307434  11.4340323  67.0845904  31.7220012  12.1204997  61.2879988
  31.2400012   9.7004997  61.0499988  32.2430012   9.3074997  65.4989988
  32.3280012   8.1704997  66.2509988  33.3120012   7.6804997  66.7799988
  30.9290012   7.6184997  66.5199988  30.2764107   8.4586267  66.7341605
  30.5358808   7.1593187  65.6163859  30.9690012   6.6104997  67.6809988
  30.0846333   5.9842547  67.6389077  31.8158228   5.9424627  67.5599505
  31.0370012   7.3034997  69.0739988  31.7255237   8.1422192  69.0096535
  30.0575718   7.7301395  69.2758935  31.4220012   6.4004997  70.2369988
  30.5822045   5.7511472  70.4773920  32.2441127   5.7445746  69.9611421
  31.8180012   7.1914997  71.5279988  32.1630767   6.4337178  72.2284204
  32.6998331   7.7590598  71.2370885  30.8680012   8.1084997  72.2199988
  31.4770637   8.7125266  72.8907411  30.4785615   8.7863180  71.4655340
  29.6980012   7.5194997  72.9959988  29.1730251   8.3313587  73.4857589
  29.0015798   7.0953405  72.2738961  30.0730012   6.4704997  73.9609988
  30.9162827   5.8391172  73.7248072  29.4530012   6.2474997  75.1209988
  29.7631915   5.4548612  75.7866685  28.2240012   7.0954997  75.6539988
  27.5885786   7.3380149  74.8039132  27.6123924   6.5126238  76.3336101
  28.6370012   8.4134997  76.3389988  29.3885205   8.8812505  75.7040714
  27.7651477   9.0640999  76.3065968  29.1560012   8.3404997  77.7739988
  30.0707603   7.7477806  77.7766075  29.4403332   9.3391480  78.0939375
  28.1820012   7.7544997  78.7639988  27.3137555   8.4090680  78.7928924
  27.8322906   6.8025136  78.3683853  28.7170012   7.5464997  80.1599988
  28.0729633   6.8496457  80.6931028  29.6949396   7.0747236  80.1189043
  28.7920012   8.8344997  80.9759988  29.3954380   9.5832554  80.4659872
  27.8031985   9.2737474  81.0950143  29.3870012   8.5944997  82.3659988
  28.8702587   7.7847250  82.8750736  30.4168925   8.2632171  82.2524700
  29.3670012   9.8694997  83.2649988  29.8747238   9.6849592  84.2069285
  28.3557776  10.1859830  83.4973909  29.8684705  10.6999333  82.7760719
 100.4990012  -0.9275003  83.6109988 100.4310450  -1.3279779  84.6176907
 101.5228405  -1.0558819  83.2717920  99.8623394  -1.5323174  82.9711002
 100.0830012   0.5414997  83.5689988 100.7202666   1.1198996  84.2357440
  99.0712267   0.6389171  83.9532335 100.1690012   1.1294997  82.1519988
 101.1855866   1.0967589  81.7603215  99.8774719   2.1778991  82.1456445
  99.2310012   0.3544997  81.1999988  98.2277199   0.3336576  81.6198111
  99.5473598  -0.6846115  81.1233752  99.1600012   0.9924997  79.7439988
 100.1643420   1.1109408  79.3454462  98.7405481   1.9944702  79.8180207
  98.3050012   0.1454997  78.7289988  97.2529908   0.2569773  78.9852484
  98.5423695  -0.9068920  78.8693736  98.5150012   0.5274997  77.2169988
  98.2264704   1.5721261  77.1156297  97.7864906  -0.0461703  76.6456800
  99.9170012   0.3244997  76.6039988 100.2221507  -0.7108303  76.7503769
 100.6358637   0.9331999  77.1493470  99.9900012   0.6524997  75.1789988
  99.8662161   1.7296066  75.0892278  99.1197324   0.2059580  74.6996140
 101.2420012   0.2274997  74.4379988 101.2064668  -0.8560107  74.3483239
 102.0921534   0.4528067  75.0813547 101.4730012   0.8664997  73.0479988
 102.4584399   0.5944621  72.6759141 101.4663326   1.9527489  73.1197350
 100.4240012   0.4194997  72.0139988  99.4462353   0.8086494  72.2874130
 100.3359270  -0.6651693  72.0341541 100.7920012   0.8624997  70.5649988
 101.7699683   0.4841088  70.2723341 100.8363285   1.9418209  70.4493490
  99.7610012   0.3004997  69.5939988  98.8472510   0.8841047  69.6365520
  99.5026433  -0.7107904  69.8967124 100.2790012   0.2614997  68.1159988
 101.2094493  -0.2885716  68.0549343 100.4445862   1.2668931  67.7474412
  99.2820012  -0.6925003  67.3329988  99.5580012  -1.6705003  66.6869988
  98.0210012  -0.1165003  67.4669988  96.8410012  -0.7395003  66.9399988
  96.0114732  -0.5608345  67.6073996  96.9990764  -1.8044681  66.8502884
  96.5630012  -0.1005003  65.5539988  95.6233367  -0.5151235  65.2284036
  97.6200012  -0.3765003  64.5349988  97.7429005  -1.4442269  64.4139341
  98.5509796   0.0409669  64.8977457  97.2490012   0.2354997  63.2789988
  98.3600012   0.6424997  62.1969988  98.9870012   1.9404997  62.7099988
  98.1050012   3.0124997  62.9409988  97.0698419   2.7564394  62.7564249
  98.3395556   3.8422002  62.2804095  98.2960012   3.5764997  64.3949988
  98.1457819   2.7397366  65.0654544  97.5761724   4.3461474  64.6334645
  99.6510012   4.1504997  64.7499988 100.1140012   5.1964997  63.7459988
 100.0330496   4.7799796  62.7513672 101.1465328   5.4294810  63.9597700
  99.5106755   6.0844037  63.8615041  99.5510012   4.7824997  66.1479988
  99.0997797   4.0656195  66.8167259  98.9671242   5.6833322  66.0850825
 100.5561400   5.0103014  66.4721890 100.6640012   3.0364997  64.8449988
 100.3414217   2.3251806  65.5906861 101.6201886   3.4498216  65.1287601
 100.7524113   2.5466718  63.8859955  99.4180012  -0.3485003  62.2589988
  97.6130012   0.8174997  60.9119988  96.4880012   1.3474997  65.6359988
  95.8180012   1.8664997  66.5489988  94.7880012   1.4414997  67.0689988
  96.3860012   3.2164997  66.8509988  97.4650231   3.1060479  66.8836336
  96.1800980   3.8799281  66.0147132  95.8340012   3.7824997  68.1459988
  96.2490608   4.7610826  68.3608519  94.7571774   3.9141249  68.1119652
  96.2170012   2.7894997  69.3159988  95.7961671   1.8030492  69.1386062
  97.2958505   2.6580153  69.3453421  95.7460012   3.3294997  70.6949988
  96.2302627   4.2862274  70.8817305  94.6769647   3.5274528  70.6816750
  96.0590012   2.3994997  71.8579988  95.3353336   1.5904805  71.9334589
  97.0297045   1.9260483  71.7239847  96.0770012   3.2104997  73.2049988
  96.8014242   4.0210414  73.1422744  95.1134791   3.6745930  73.3962070
  96.4380012   2.2854997  74.4189988  97.5194238   2.2449250  74.3601871
  96.2008042   2.9221786  75.2703058  95.8500012   0.9044997  74.6659988
  96.2926086   0.0949308  74.1054179  94.8320012   0.5834997  75.5309988
  94.4744821  -0.4307735  75.6360706  94.1380012   1.5564997  76.3899988
  94.6947792   2.4918785  76.3730976  93.1466724   1.7865364  76.0157912
  94.0340012   1.0744997  77.8779988  93.1626054   0.4256664  77.9579343
  94.8998466   0.4448824  78.0738371  93.9540012   2.1924997  78.9689988
  93.1760775   2.9049739  78.6945497  93.6471065   1.7577423  79.9162610
  95.2530012   2.9244997  79.1519988  96.0479744   2.1956400  79.2931590
  95.4937943   3.4641080  78.2377086  95.2290012   3.9524997  80.3809988
  94.8274134   4.9126911  80.0626443  94.5708497   3.6030575  81.1717907
  96.6710012   4.1974997  80.9509988  97.4391774   4.1048728  80.1853562
  96.7818529   5.1957874  81.3704835  96.9530012   3.1854997  82.0399988
  96.7298674   2.2082785  81.6190890  98.0329696   3.2132859  82.1673141
  96.2830012   3.3124997  83.4349988  96.6639529   2.5571695  84.1157492
  95.2067493   3.1880701  83.3807742  96.4808478   4.2853476  83.8760935
  31.6900012 138.0644997  83.5939988  31.7639746 137.3871680  84.4390897
  31.2614633 138.9959606  83.9525038  32.6990547 138.2770997  83.2516186
  30.8390012 137.4584997  82.4649988  29.8343609 137.2365912  82.8208885
  31.2633353 136.5125612  82.1394917  30.7510012 138.4384997  81.2749988
  31.7588844 138.7772118  81.0354689  30.2094983 139.3198297  81.6129380
  30.0900012 137.9224997  80.0239988  29.0239158 137.7990028  80.2013700
  30.4708051 136.9331454  79.7752568  30.2810012 138.8514997  78.8309988
  31.2366946 138.6443428  78.3563313  30.3347158 139.8776060  79.1909787
  29.1650012 138.7414997  77.7749988  29.4203040 139.4693685  77.0069855
  28.2668233 139.1154199  78.2618634  28.8530012 137.3754997  77.1039988
  28.3738885 136.7200049  77.8289454  29.7873664 136.8899701  76.8256957
  27.9340012 137.5024997  75.8309988  26.9588917 137.8518207  76.1680259
  27.7786815 136.4987344  75.4398275  28.4460012 138.4324997  74.6779988
  29.5003589 138.2353235  74.4963606  28.3821430 139.4721899  74.9966574
  27.6700012 138.2564997  73.3819988  26.6120210 138.4077989  73.5846942
  27.7717003 137.2254234  73.0444072  28.1310012 139.2014997  72.2629988
  27.7778928 140.2144162  72.4442599  27.7229650 138.9074588  71.2975069
  29.6470012 139.2314997  72.1779988  30.0346140 138.2213098  72.2851985
  30.0369998 139.7978157  73.0217151  30.1550012 139.8454997  70.9159988
  30.1897328 140.9243823  71.0576251  29.4433360 139.6665823  70.1148775
  31.5290012 139.3884997  70.4679988  31.5865618 138.3085369  70.5558177
  32.2578370 139.7997025  71.1613980  31.9320012 139.8094997  69.0129988
  31.8496328 140.8822065  68.8923481  31.2866966 139.3274832  68.2882153
  33.3180012 139.2644997  68.6559988  34.1440012 138.9904997  69.5579988
  33.4340012 139.0474997  67.3959988  34.7330012 138.5734997  66.9129988
  35.3411278 138.3382694  67.7734118  35.2234899 139.3419768  66.3332956
  34.4930012 137.2914997  66.0529988  35.4510812 136.8203152  65.9082166
  33.8390012 137.5504997  64.7119988  34.3407568 138.3416020  64.1714440
  32.8043945 137.8336806  64.8602638  33.9210012 136.3054997  63.9789988
  32.5370012 135.6284997  63.4279988  31.7470012 137.0144997  62.9519988
  30.3670012 137.0954997  63.3179988  30.1798893 136.8352031  64.3516447
  29.7716493 136.4147996  62.7163340  29.8220012 138.5074997  62.9929988
  28.8071463 138.5024714  63.3702166  29.7929262 138.6272915  61.9196016
  30.4530012 139.7634997  63.5319988  30.6250012 139.5504997  65.0169988
  29.6801247 139.2262098  65.4309777  30.9106491 140.4938891  65.4580447
  31.4066366 138.8234107  65.1785681  31.8980012 139.8674997  62.9129988
  31.8237027 139.7333497  61.8447303  32.5264259 139.1184525  63.3606378
  32.2752237 140.8547698  63.1372707  29.6640012 141.0254997  63.2879988
  29.5177268 141.1536411  62.2258003  30.2119095 141.8681596  63.6821696
  28.7064115 140.9535903  63.7832624  32.8880012 134.9154997  62.2039988
  31.8740012 134.9414997  64.5579988  33.6310012 136.4054997  66.8089988
  34.1020012 136.0084997  68.0059988  35.2790012 135.9844997  68.3739988
  32.8700012 135.5134997  68.8599988  32.0132727 136.1235307  68.5927322
  32.6109251 134.4964178  68.5765712  33.2030012 135.6064997  70.3959988
  33.9059074 134.8237719  70.6592877  33.7038879 136.5448078  70.6121544
  31.9340012 135.4694997  71.2819988  31.2376202 136.2676317  71.0376776
  31.4343991 134.5402941  71.0192447  32.2260012 135.4624997  72.8309988
  31.2959723 135.2526875  73.3560999  32.9052917 134.6508047  73.0798314
  32.7800012 136.7244997  73.3549988  33.8294410 136.8000044  73.0777333
  32.2761287 137.5537726  72.8622515  32.6400012 136.8994997  74.8829988
  31.6099263 137.0985509  75.1745897  32.9520278 136.0206803  75.4403442
  33.5010012 138.0544997  75.2889988  33.0459505 138.9749082  74.9420737
  33.5141358 138.1098237  76.3767086  34.9510012 137.9274997  74.7849988
  35.1995069 138.0743132  73.7446889  35.9960012 137.6344997  75.6489988
  36.9715814 137.5029464  75.2034127  35.9770012 137.4654997  77.2119988
  34.9422730 137.4181459  77.5471351  36.4405448 136.5369292  77.5259496
  36.6610012 138.6454997  77.9259988  37.7347475 138.6099835  77.7456867
  36.3103349 139.5772185  77.4862349  36.3910012 138.6704997  79.4669988
  35.3178489 138.7906154  79.6154019  36.6466166 137.6960070  79.8738512
  37.1480012 139.7814997  80.2629988  38.2084478 139.5399963  80.2464428
  37.0418579 140.7225445  79.7261065  36.6740012 139.9704997  81.7179988
  37.3928853 140.6245056  82.2079700  35.7390907 140.5235867  81.6922670
  36.5170012 138.7184997  82.5769988  36.0417915 139.0000140  83.5149798
  35.8231763 138.0447586  82.0774849  37.8110012 137.9394997  82.8969988
  38.3634446 137.7180309  81.9872335  38.4621952 138.5771759  83.4908239
  37.5650012 136.6784997  83.6459988  38.5024001 136.2078826  83.9268402
  37.0041627 135.9601851  83.0575895  37.0042866 136.8684030  84.5568648
 125.2360012  16.9294997  80.9109988 125.5668984  16.4671192  81.8357367
 124.2188754  16.5991921  80.7208880 125.2084295  18.0039761  81.0702226
 126.1690012  16.5664997  79.7379988 126.2021495  15.4891952  79.5846386
 127.1892989  16.8765363  79.9470056 125.6770012  17.2254997  78.4899988
 125.4497535  18.2630015  78.7346975 124.7257461  16.7596670  78.2404295
 126.5920012  17.1834997  77.2319988 127.5547065  17.6352599  77.4608241
 126.1645437  17.7771274  76.4254058 126.8360012  15.7004997  76.7209988
 125.8831070  15.2984392  76.3864645 127.1319022  15.1068480  77.5843558
 127.8890012  15.5164997  75.5849988 127.5453351  16.0775363  74.7178491
 127.8837248  14.4690218  75.2911634 129.3290012  15.9404997  75.9269988
 129.6796515  15.2670065  76.7068842 129.2676224  16.9278520  76.3826279
 130.3660012  15.9724997  74.7739988 131.3336724  15.9830309  75.2739513
 130.2468067  16.9553950  74.3218998 130.3780012  14.9264997  73.6909988
 130.8580948  15.3666525  72.8196110 129.3430896  14.7410975  73.4061109
 131.0920012  13.5244997  74.0429988 130.6104518  13.0704186  74.9062598
 132.1305634  13.6932153  74.3264641 131.0440012  12.5344997  72.8149988
 131.5674916  11.6390104  73.1430196 131.6664865  12.9825220  72.0423954
 129.7080012  12.1144997  72.2049988 128.9587312  12.8935661  72.3227654
 129.3140053  11.2349301  72.7107602 129.8910012  11.7904997  70.7549988
 130.6386664  11.0087234  70.6322197 130.2487930  12.6453817  70.1880458
 128.5460012  11.2794997  70.1189988 127.9095141  12.1345667  69.9162928
 128.0363274  10.6784484  70.8673717 128.6940012  10.4374997  68.8279988
 129.3530642   9.5956344  68.9981158 129.1025067  11.0427082  68.0274272
 127.3260012   9.9404997  68.3099988 126.5710012   9.2564997  68.9839988
 127.1010012  10.4064997  67.1829988 125.8950012  10.2494997  66.5349988
 125.2909242   9.7058116  67.2456015 126.0448419   9.6373699  65.6574813
 125.1780012  11.6594997  66.1469988 124.1680965  11.4363668  65.8450084
 125.9140012  12.4264997  65.0079988 125.2854093  13.2248206  64.6373817
 126.1004196  11.7286994  64.2012101 127.1400012  12.9484997  65.5049988
 128.4330012  13.1544997  64.6809988 127.8860012  14.2304997  63.5679988
 127.4030012  15.4514997  64.0489988 128.0812330  15.9678555  64.7157575
 126.4739768  15.3197381  64.5961273 127.0480012  16.3094997  62.8719988
 126.3688215  17.0694423  63.2373085 126.5485421  15.7379889  62.1030429
 128.1670012  17.0574997  62.1739988 129.2080012  16.1054997  61.4829988
 129.5341265  15.3688764  62.2043603 130.0498637  16.7043560  61.1687719
 128.7463917  15.6483618  60.6206423 127.4440012  17.9074997  61.1229988
 126.6378188  18.4376405  61.6064599 127.0792892  17.2646311  60.3419257
 128.1627289  18.6090225  60.7247612 128.8690012  17.9264997  63.1849988
 128.1558256  18.6079866  63.6243599 129.6481953  18.4870489  62.6907406
 129.3036493  17.3051819  63.9547262 129.4750012  13.6864997  65.6179988
 128.7090012  11.9334997  63.9219988 125.1230012  12.5094997  67.3989988
 124.2920012  13.5174997  67.3359988 123.5900012  13.8174997  66.4079988
 124.2600012  14.1584997  68.7079988 123.2483494  14.4709964  68.9456111
 124.5455551  13.4570715  69.4879760 125.2220012  15.3374997  68.6519988
 126.1377381  15.0101707  68.1720585 124.8045654  16.1061578  68.0093908
 125.5640012  15.9404997  70.0419988 126.2043064  16.8097910  69.9155242
 124.6457967  16.3039420  70.4968341 126.2320012  14.9214997  71.0159988
 125.9625131  13.9291821  70.6590841 127.3102889  15.0028410  70.9025035
 125.8820012  15.0094997  72.5109988 126.7424803  14.6249458  73.0546853
 125.8278372  16.0716458  72.7418512 124.5570012  14.3024997  73.0489988
 124.4254161  14.5774488  74.0943644 123.6964653  14.6986457  72.5171488
 124.5510012  12.7704997  72.9219988 123.9280296  12.4794365  72.0842824
 125.5593617  12.4329104  72.6862267 124.0990012  12.0914997  74.2019988
 123.0388127  11.9136211  74.3015659 124.8890012  11.6794997  75.2149988
 124.4054121  11.2384751  76.0747946 126.4260012  11.7454997  75.3229988
 126.8497855  11.9523833  74.3417613 126.7664471  12.5423205  75.9748072
 126.9890012  10.4094997  75.8159988 126.5096105  10.1355360  76.7550587
 126.7261115   9.6305973  75.1027953 128.5140012  10.4274997  76.0049988
 128.8941297   9.4063332  76.0337811 128.9935130  10.9061849  75.1556267
 128.9390012  11.1924997  77.3649988 128.6642435  12.2322784  77.2021694
 128.2675524  10.8174473  78.1354385 130.3590012  11.1074997  77.8599988
 130.4144680  10.2223013  78.4908214 130.9844556  10.8964949  76.9969178
 130.9330012  12.2794997  78.6459988 132.0109500  12.1592405  78.7379066
 130.7787673  13.1981273  78.0828210 130.3410012  12.4644997  80.0509988
 130.8204850  13.3350141  80.4916970 129.3030246  12.7477693  79.8907614
 130.3850012  11.3074997  81.0389988 129.8532540  11.5595093  81.9515803
 131.4015277  11.0491730  81.3159141 129.9210780  10.4188022  80.6205096
  51.0950012 146.1904997  80.7179988  51.4588470 146.5855909  81.6613694
  50.0444929 146.4528665  80.6320572  51.6274384 146.6995142  79.9192329
  51.2940012 144.6904997  80.6359988  50.7739155 144.2295419  81.4739915
  52.3507197 144.4829502  80.7811988  50.7950012 144.0394997  79.2979988
  51.4113928 144.4026808  78.4757519  49.7867016 144.3973186  79.0993317
  50.7790012 142.4804997  79.2789988  50.4742877 142.1343025  78.2938352
  50.0321076 142.1028299  79.9755772  52.1700012 141.8534997  79.6209988
  52.0575286 140.8088883  79.8997638  52.5943440 142.3570967  80.4879983
  53.1210012 141.9484997  78.4859988  54.1361203 141.9306512  78.8784673
  52.9974328 142.9170154  78.0061185  52.9580012 140.7994997  77.3979988
  51.9114428 140.6594544  77.1336640  53.3041089 139.8429835  77.7872497
  53.7480012 141.1474997  76.1489988  53.2667236 141.9757313  75.6304862
  53.7322206 140.3063356  75.4584352  55.2210012 141.5254997  76.4609988
  55.5316723 141.0354878  77.3812774  55.2866318 142.5962424  76.6501536
  56.2220012 141.1384997  75.2969988  56.0198868 140.1098441  75.0066257
  57.2350711 141.1489542  75.6982581  56.1560012 142.0744997  74.0389988
  57.0181474 142.7379583  74.0472160  55.2796731 142.7169028  74.1060461
  56.1340012 141.3184997  72.6839988  55.3330341 140.5868017  72.7567230
  57.0615997 140.7506059  72.6424333  55.9920012 142.1454997  71.3559988
  55.3926208 143.0415892  71.5077178  55.5110459 141.5896272  70.5560226
  57.4410012 142.5994997  70.8749988  58.0759077 141.7219336  70.8108383
  57.8593373 143.2342222  71.6516674  57.4930012 143.3484997  69.5609988
  56.8398506 144.2113796  69.5905547  57.1818841 142.7045972  68.7469565
  56.7040012 142.5444997  68.5549988  57.0970012 141.5404997  68.0289988
  55.4590012 143.1004997  68.4039988  54.7520012 142.5224997  67.2599988
  54.6589648 141.4503072  67.3449083  55.2826662 142.7599416  66.3493902
  53.3670012 143.1784997  67.2749988  52.8911809 143.0982925  68.2383553
  52.4900012 142.4514997  66.1809988  51.4594686 142.7014423  66.3939125
  52.6356597 141.3943141  66.3646486  52.8080012 142.7664997  64.8429988
  51.6540012 143.0844997  63.7549988  52.5700012 144.0254997  62.7749988
  53.0340012 145.2414997  63.2889988  52.2714578 145.6785097  63.9204565
  53.1665751 145.9202859  62.4514605  54.4040012 145.2134997  64.0099988
  54.3344344 144.5879491  64.8909619  54.6059893 146.2286342  64.3199659
  55.6650012 144.7414997  63.2589988  55.4850012 143.2714997  63.0769988
  55.2445839 142.8318671  64.0352559  56.4167121 142.8642002  62.7135131
  54.7063587 143.1012573  62.3486784  55.8680012 145.3954997  61.9569988
  55.7848275 146.4628866  62.0929446  55.1338255 145.0292120  61.2618805
  56.8622698 145.1411932  61.6192784  56.9430012 144.9294997  64.0239988
  57.0615344 145.9749864  64.2668759  57.7724002 144.6031656  63.4146932
  56.9093729 144.3444188  64.9317347  51.4420012 141.8294997  62.9779988
  50.3950012 143.7814997  64.2139988  53.4750012 144.5854997  66.9029988
  52.3130012 145.3444997  67.1419988  51.3160012 144.8764997  67.6619988
  52.3920012 146.8474997  66.7059988  53.4093708 147.0450207  66.3842887
  51.7670187 147.0073628  65.8309286  51.9720012 147.7534997  67.8509988
  52.2128599 148.7628825  67.5360475  50.8888730 147.7052485  67.9013788
  52.5840012 147.4994997  69.2749988  52.1618776 148.2440583  69.9451466
  52.1979003 146.5389808  69.6072557  54.1580012 147.4824997  69.4069988
  54.5473761 146.6381025  68.8412369  54.5861706 148.3741677  68.9555554
  54.6520012 147.3704997  70.8259988  54.2381987 148.1473622  71.4656496
  54.3557653 146.4223896  71.2706476  56.1470012 147.4594997  70.8399988
  56.5064306 146.6758476  70.1748665  56.4217710 148.4036305  70.3780068
  56.8930012 147.3424997  72.2429988  57.9677355 147.3908726  72.1119031
  56.6234630 148.1842427  72.8795235  56.4700012 146.0134997  72.9629988
  56.9159657 145.0852276  72.6389917  55.5850012 145.9484997  73.9829988
  55.3542992 144.9926061  74.4309432  54.8470012 147.1154997  74.6039988
  55.5600007 147.9156667  74.7952720  54.1031814 147.5263114  73.9304656
  54.1710012 146.7354997  75.9489988  53.3311536 147.4129188  76.0988799
  53.7414964 145.7437648  75.8207547  55.0870012 146.7414997  77.2319988
  55.8625477 145.9812156  77.1392478  55.6038293 147.6925744  77.3260704
  54.2690012 146.4764997  78.5029988  53.4280772 147.1659680  78.4779922
  53.8464431 145.4777028  78.4084758  55.0230012 146.5944997  79.8889988
  55.4388417 147.5888245  80.0406063  54.3726309 146.4119085  80.7400593
  56.1910012 145.5864997  79.8909988  55.8211102 144.5985205  79.6227437
  56.9071712 145.8606139  79.1184731  56.9310012 145.4824997  81.2219988
  57.4917204 146.3814741  81.4656253  56.2278858 145.3415099  82.0399619
  57.9000012 144.2624997  81.1789988  58.3743510 144.1128349  82.1442250
  58.6887983 144.3967877  80.4465325  57.3676389 143.3496947  80.9269700
 122.5490012   9.3374997  83.3149988 121.5454951   9.5978413  83.6369099
 122.9889697  10.2185556  82.8567870 123.1304292   9.1033976  84.2025514
 122.5320012   8.1724997  82.3539988 121.8884824   8.4696508  81.5276891
 122.0137602   7.3693026  82.8708302 123.8430012   7.6744997  81.8059988
 123.7294807   6.6876153  81.3575554 124.5673541   7.5585096  82.6097587
 124.4280012   8.6484997  80.7549988 125.4846457   8.4474035  80.5927867
 124.3659928   9.6825141  81.0906699 123.6760012   8.5004997  79.3919988
 122.7142189   9.0052453  79.4341868 123.4614577   7.4491429  79.2076482
 124.4610012   9.0504997  78.2479988 125.3424014   8.4271970  78.1085556
 124.8267127  10.0362660  78.5274567 123.6690012   9.1554997  76.8729988
 124.3318649   9.6389790  76.1577160 122.8399263   9.8435106  77.0327040
 123.1350012   7.8514997  76.2669988 122.9448045   7.1449638  77.0738961
 123.9151644   7.4072323  75.6516486 121.8710012   8.0144997  75.4339988
 121.3769602   8.9374989  75.7298651 121.1829540   7.2080867  75.6847303
 122.0990012   8.0264997  73.9579988 122.9864265   8.5877706  73.6738332
 121.2697528   8.4655285  73.4038961 122.2560012   6.5474997  73.5479988
 121.4088487   5.9625817  73.8997724 123.1397756   6.1026612  74.0020796
 122.3440012   6.4014997  72.0099988 122.6597424   5.3824477  71.8000953
 123.1551378   7.0458904  71.6761006 121.1270012   6.7294997  71.2299988
 120.8322669   7.7653424  71.3894151 120.2727931   6.1225663  71.5167644
 121.4010012   6.5354997  69.7009988 122.2956038   5.9425329  69.5415578
 121.5775946   7.5021954  69.2368802 120.2250012   5.8674997  68.9979988
 119.3133676   6.4250257  69.1715786 120.0900281   4.8571485  69.3654791
 120.4690012   5.3834997  67.5519988 121.6080012   5.3614997  67.0929988
 119.3360012   5.1854997  66.9839988 119.3520012   4.9374997  65.5669988
 119.0077709   3.9278012  65.4012383 120.3652161   5.0293613  65.2034758
 118.4340012   5.9264997  64.8729988 117.4083342   5.6407276  65.0380307
 118.7370012   5.9534997  63.3439988 117.9201450   6.4830864  62.8727400
 118.7041900   4.9169847  63.0323175 119.9610012   6.5294997  62.9919988
 120.1540012   7.9524997  62.2699988 121.2620012   8.6554997  63.1819988
 121.6040012   9.9524997  62.7019988 120.9206017  10.3236089  61.9493819
 122.5890580   9.9404573  62.2444892 121.7180012  10.9414997  63.8839988
 120.8976211  10.7363172  64.5601095 121.6816960  11.9833246  63.5999923
 122.9940012  10.7764997  64.7149988 122.8470012   9.4054997  65.3869988
 121.8832993   9.3620615  65.8755945 123.6321106   9.3088362  66.1220902
 122.9544956   8.6349254  64.6384153 124.2700012  10.7544997  63.9179988
 124.2712971  11.6018739  63.2496656 124.3301693   9.8270018  63.3771684
 125.0893860  10.8330841  64.6178059 123.0830012  11.9884997  65.6899988
 123.0923296  12.9046759  65.1184954 123.9919669  11.9129919  66.2676924
 122.2309598  11.9802348  66.3543723 120.6840012   7.8064997  60.8859988
 118.8970012   8.7154997  62.5559988 118.6470012   7.2434997  65.4019988
 117.7850012   7.8314997  66.2239988 116.7520012   7.3144997  66.7349988
 118.1990012   9.3294997  66.5009988 119.2833422   9.3459033  66.5395793
 117.9231469   9.9260922  65.6350376 117.5850012   9.8794997  67.7529988
 117.7515123  10.9498307  67.8052141 116.5082447   9.7435129  67.7413312
 118.1620012   9.2374997  68.9639988 117.9416182   8.1770964  69.0568977
 119.2442207   9.3278811  69.0159322 117.5590012   9.9954997  70.1239988
 117.9863034  10.9956855  70.0822004 116.4967814  10.1101356  69.9221331
 117.7380012   9.4504997  71.5569988 118.7611726   9.1068335  71.6945299
 117.5944528  10.2650834  72.2642669 116.7710012   8.3194997  71.9109988
 115.7469154   8.6460068  71.7368081 116.9321611   7.4592023  71.2673888
 116.9220012   7.8674997  73.3939988 116.6882284   8.7675926  73.9505622
 116.0780188   7.1931396  73.5328449 118.1770012   7.1954997  73.9379988
 119.0883399   7.5485208  73.4793139 118.2920012   6.2894997  74.8619988
 119.3093327   6.0021873  75.0858248 117.2440012   5.5604997  75.6919988
 116.3087333   6.1177187  75.6933986 117.0065008   4.5697564  75.3209161
 117.7340012   5.4584997  77.1129988 117.0534874   4.8126902  77.6666559
 118.6939781   4.9459647  77.0984674 117.8880012   6.8054997  77.8579988
 118.3971458   7.5081285  77.1983084 116.9013465   7.2217906  78.0416244
 118.6490012   6.7094997  79.1699988 118.0702027   6.0269911  79.7883185
 119.5798132   6.1948525  78.9380240 118.9460012   7.9264997  79.9159988
 118.0153228   8.3850485  80.2448770 119.4945795   7.6854610  80.8224132
 119.7400012   8.9934997  79.0729988 120.6581959   8.5341632  78.7113202
 119.1544685   9.2351829  78.1878012 120.1160012  10.3634997  79.8249988
 121.0143540  10.1440984  80.3966108 120.4318980  11.0211204  79.0181176
 119.1160012  11.1184997  80.7139988 119.5371785  12.0595954  81.0546123
 118.8440266  10.5464642  81.5946498 118.2022340  11.3423844  80.1708173
   0.9250012 115.9194997  81.4779988   1.0014889 116.8360636  82.0546175
   1.2453880 115.0998592  82.1146555  -0.1244180 115.7630773  81.2437690
   1.7890012 115.9944997  80.1719988   2.8147314 116.1975174  80.4750901
   1.4543866 116.8698600  79.6219157   1.7670012 114.7564997  79.2599988
   0.8644247 114.7164206  78.6503444   1.7764039 113.8388113  79.8447472
   2.9610012 114.7614997  78.3699988   2.9891875 113.8147427  77.8351094
   3.8598353 114.7876588  78.9840988   3.0120012 115.9314997  77.3229988
   3.0301079 116.8805980  77.8525811   2.0848365 115.9176395  76.7524389
   4.1920012 115.8794997  76.3639988   4.2403134 114.9130774  75.8654900
   5.1309463 115.9914996  76.9019718   4.0770012 116.9944997  75.3039988
   4.3061457 117.9626421  75.7455449   3.0546273 117.0628110  74.9347897
   5.0660012 116.7274997  74.0739988   4.7434476 115.8170905  73.5704461
   6.0571127 116.5193560  74.4728197   5.1610012 117.8514997  73.0619988
   5.5181155 117.4074676  72.1352594   5.9533749 118.5153262  73.4055903
   3.8570012 118.7024997  72.7679988   3.4618230 119.0584714  73.7169020
   3.0986468 118.0406239  72.3505684   4.0760012 119.8874997  71.8109988
   4.7334723 120.6034533  72.2995508   3.1279823 120.4012120  71.6610389
   4.6690012 119.5364997  70.4699988   5.6028059 119.0033643  70.6312264
   4.9313578 120.4617806  69.9603967   3.7780012 118.7484997  69.5899988
   2.8939030 119.3530252  69.3946238   3.4336483 117.8721807  70.1319952
   4.3800012 118.2884997  68.1849988   5.0379410 119.0271716  67.7391021
   3.5990072 118.0831412  67.4576967   5.1820012 116.9724997  68.4379988
   4.5529950 116.2309430  68.9139041   6.0347694 117.1672256  69.0774806
   5.9600012 116.5034997  67.2509988   6.2750012 117.2114997  66.2979988
   6.3300012 115.2454997  67.4229988   7.1310012 114.7744997  66.3079988
   8.0356763 114.3628217  66.7293611   7.3884855 115.5870858  65.6442235
   6.3130012 113.6374997  65.5319988   6.9449611 113.1785326  64.7897926
   5.0460012 114.2234997  64.8559988   4.6651661 113.4832317  64.1655142
   5.3780532 115.0859626  64.2916548   4.0830012 114.5824997  65.7479988
   2.5340012 114.8814997  65.2209988   2.5680012 115.8994997  64.0309988
   3.1120012 117.2384997  64.1869988   4.1272295 117.1834288  64.5577651
   2.5321546 117.7477590  64.9513481   3.0260012 118.1394997  62.9499988
   3.7051549 118.9721070  63.0832811   2.0190298 118.5224355  62.8678662
   3.3600012 117.5464997  61.5879988   4.7220012 116.8764997  61.5649988
   5.4538104 117.5684166  61.9587502   4.9600038 116.6406104  60.5384458
   4.6748633 115.9666758  62.1444085   2.4020012 116.4204997  61.2069988
   1.3903017 116.7692566  61.3468084   2.6096822 115.5608238  61.8187144
   2.5736539 116.1887655  60.1657824   3.3820012 118.6704997  60.5679988
   2.4203037 119.1615623  60.5591972   3.5872652 118.2590474  59.5911550
   4.1530856 119.3804833  60.8302716   1.9740012 113.6314997  64.6669988
   1.9100012 115.4424997  66.4489988   5.9590012 112.6254997  66.5029988
   5.0350012 111.7064997  66.1409988   4.9480012 111.1944997  65.0379988
   4.2690012 111.3714997  67.3769988   3.3487831 110.9042835  67.0416471
   4.8169923 110.5994328  67.9113446   3.9960012 112.6094997  68.2979988
   4.9152709 113.1843816  68.3206918   3.2661469 113.2305724  67.7884750
   3.5380012 112.3404997  69.7329988   3.2337716 113.2859739  70.1747871
   2.6400932 111.7302151  69.6748694   4.5360012 111.6454997  70.6319988
   4.0830336 111.5143207  71.6129771   4.7441415 110.6462674  70.2572795
   5.8970012 112.4134997  70.8139988   6.4124490 112.5304207  69.8629236
   5.7147561 113.4200658  71.1854720   6.7990012 111.6964997  71.7869988
   6.5209046 110.6459144  71.7189269   7.8068847 111.7732608  71.3887569
   6.8200012 112.1164997  73.2459988   7.4614451 111.3741478  73.7064805
   7.3897505 113.0445935  73.2266709   5.5630012 112.3364997  74.0649988
   4.7206748 112.7159245  73.5063602   5.3720012 112.1034997  75.3959988
   4.4401305 112.2741033  75.9157308   6.4940012 111.5604997  76.2869988
   6.1147641 110.7166086  76.8608002   7.3310280 111.1835664  75.7099473
   6.9880012 112.6154997  77.2629988   7.5813568 113.3699040  76.7477239
   6.1432163 113.1423344  77.7025924   7.8460012 111.9664997  78.4099988
   7.2912873 111.0781778  78.7121308   8.7526589 111.6094663  77.9293711
   8.2300012 112.8124997  79.7069988   9.0235435 112.2629646  80.2084434
   8.6765592 113.7425395  79.3595841   7.0860012 113.1374997  80.7179988
   6.4219944 113.8925787  80.3014166   6.4660812 112.2632090  80.8967163
   7.6410012 113.6794997  82.0629988   6.8704466 113.6804698  82.8318470
   8.4402303 113.0424960  82.4375560   8.1810012 115.0964997  81.9169988
   8.6521447 115.4053884  82.8467979   8.9775232 115.0685276  81.1766723
   7.1620012 116.1384997  81.4969988   7.6395780 117.0992952  81.3300819
   6.3955645 116.2831163  82.2509231   6.6667162 115.8505086  80.5740172
 137.3050012  22.1764997  85.0429988 138.3646742  21.9653316  84.9384516
 137.0099333  21.8998207  86.0510532 137.1707031  23.2501826  84.9440997
 136.4960012  21.4334997  84.0159988 136.7199272  20.3758834  84.1444820
 136.8974721  21.7148249  83.0462095 135.0010012  21.6294997  84.0349988
 134.7369063  22.6587356  84.2776020 134.5423402  21.0115761  84.8043956
 134.3980012  21.2624997  82.7059988 134.4247335  20.1797988  82.6045382
 135.0254965  21.6556676  81.9076413 132.9680012  21.7344997  82.5009988
 132.9320079  22.8148630  82.6154219 132.3564266  21.3219234  83.3016999
 132.3210012  21.3384997  81.0809988 131.2361844  21.2974224  81.1603861
 132.6422862  20.3419915  80.7854917 132.7230012  22.3704997  79.9549988
 133.8075231  22.4627952  79.9629812 132.3325818  23.3450273  80.2449963
 132.2570012  22.0424997  78.5429988 131.1870385  22.2465315  78.5415842
 132.3606274  20.9629053  78.4512292 132.8890012  22.7034997  77.3509988
 132.7941464  23.7832378  77.4443213 132.3406625  22.4272706  76.4512214
 134.4170012  22.3244997  77.1689988 134.4571752  21.2438034  77.0516080
 134.9136382  22.5476611  78.1129159 135.1860012  23.0114997  76.0149988
 135.6020314  23.9409076  76.3979619 134.4720149  23.2951743  75.2437139
 136.3400012  22.1864997  75.3689988 135.9966567  21.3774329  74.7288858
 137.0032534  21.7327217  76.1030641 137.1640012  23.2344997  74.5249988
 138.1532080  22.8058794  74.3733197 137.3071693  24.1215364  75.1356891
 136.6120012  23.6554997  73.1479988 136.9654312  24.6476294  72.8870182
 135.5279470  23.7115836  73.2006588 136.9950012  22.6774997  72.0379988
 136.6810750  21.6732283  72.2928130 138.0680459  22.6787585  71.8875247
 136.5060012  23.1544997  70.6959988 135.3570012  23.2794997  70.2949988
 137.5360012  23.1054997  69.8769988 137.4350012  22.9784997  68.4369988
 138.3646165  23.3344190  68.0191485 136.6273964  23.6042873  68.0857776
 137.2000012  21.4894997  68.0409988 137.8748511  20.7884937  68.5036672
 137.3010012  21.3714997  66.4489988 136.9470031  20.3811960  66.1964420
 138.3621832  21.4243805  66.2399982 136.5790012  22.3844997  65.6799988
 135.0570012  22.1914997  65.2219988 135.2890012  21.0304997  64.1279988
 134.6520012  19.7754997  64.1829988 133.5792421  19.7826934  64.0404321
 134.8346745  19.2580731  65.1203873 135.3330012  18.9374997  63.1289988
 135.0007613  17.9293206  63.3421668 136.4127195  18.9613719  63.1608651
 134.9500012  19.2024997  61.6719988 135.2390012  20.5694997  61.1009988
 134.8313264  21.3158620  61.7688899 134.7533507  20.6382331  60.1389596
 136.3059280  20.6791673  60.9770749 135.7530012  18.2714997  60.7979988
 135.6560786  17.2688920  61.1854235 136.7790529  18.5932945  60.7920015
 135.3383422  18.3256461  59.8017944 133.4530012  18.8634997  61.4739988
 133.2843716  17.8302441  61.7386287 133.1877231  19.0200465  60.4392183
 132.8518105  19.5049731  62.1021043 134.1120012  21.6824997  66.2919988
 134.6910012  23.4414997  64.5029988 135.8430012  21.1854997  68.5379988
 135.6830012  19.8384997  68.9439988 136.5100012  19.0074997  69.0789988
 134.2070012  19.6614997  69.2249988 133.7789957  20.6560937  69.2967410
 133.7394549  19.1982155  68.3597385 133.9570012  18.8314997  70.5029988
 132.9815558  18.3607184  70.4488476 134.6769320  18.0226274  70.5768786
 134.0260012  19.7344997  71.8049988 135.0563978  19.8757824  72.1211885
 133.6387915  20.7256220  71.5818167 133.2120012  19.1414997  72.9369988
 132.1776761  18.9728662  72.6429914 133.5887209  18.1832770  73.2864177
 133.2260012  20.1624997  74.1379988 134.2461370  20.3573106  74.4624561
 132.8244477  21.1194400  73.8102780 132.4110012  19.6734997  75.3129988
 132.5738426  20.3400813  76.1584883 131.3510949  19.7266320  75.0804183
 132.7650012  18.1764997  75.7449988 132.6090575  17.5290648  74.8899609
 133.8302243  18.1376437  75.9689092 132.0050012  17.6844997  76.9419988
 131.0189130  17.2513045  76.8676610 132.5450012  17.7574997  78.1559988
 131.8994286  17.4214576  78.9546989 133.9100012  18.2254997  78.6199988
 134.2163321  18.9288312  77.8475305 133.7413554  18.8128474  79.5156897
 135.1040012  17.2134997  78.8709988 135.2103841  17.0296268  79.9394455
 134.8562783  16.2538581  78.4213540 136.5130012  17.7344997  78.2699988
 137.2873618  16.9821908  78.4200121 136.4407806  17.8860732  77.1965400
 136.9380012  19.0264997  78.9339988 136.1540250  19.7658182  78.7858955
 137.0081051  18.8685252  80.0088078 138.3030012  19.5814997  78.4039988
 139.0954880  19.0377842  78.9148100 138.3884490  19.3139470  77.3543611
 138.5570012  21.0264997  78.5799988 139.5341804  21.2603115  78.1612676
 137.8330213  21.5780378  77.9829286 138.5030012  21.5664997  80.0499988
 138.8380965  22.6003014  80.0796653 137.4608995  21.5841468  80.3614881
 139.2990012  20.7474997  81.0539988 139.1488634  21.1218351  82.0621657
 140.3640040  20.7801259  80.8504174 138.9919749  19.7055556  81.0388865
  22.3640012  17.6284997  79.7669988  21.7597776  18.3376556  80.3241709
  23.1289467  18.1891242  79.2375194  22.8654427  16.9856194  80.4852420
  21.4960012  16.7974997  78.7849988  20.9921988  17.5231177  78.1487090
  20.7236574  16.3410680  79.3981620  22.1520012  15.7594997  77.9249988
  21.4429189  15.3614958  77.1992411  22.4608455  14.9153763  78.5383844
  23.3960012  16.3054997  77.1779988  23.8271412  15.4873075  76.6053471
  24.1477489  16.5876038  77.9135248  23.1390012  17.5034997  76.2179988
  24.0525967  17.7170575  75.6690824  22.9341407  18.3840620  76.8246347
  22.0310012  17.3074997  75.2499988  21.1187250  17.7120955  75.6845922
  21.8629759  16.2393572  75.1299315  22.2560012  17.9294997  73.8979988
  23.1010487  17.4012384  73.4602721  22.5977196  18.9461745  74.0872889
  21.1270012  17.9624997  72.9099988  20.3062847  18.4354626  73.4477548
  20.8443762  16.9194072  72.7805183  21.2770012  18.6294997  71.5139988
  22.0681138  18.1472086  70.9438434  21.5713535  19.6730197  71.6188780
  19.9520012  18.5504997  70.7199988  20.0019242  19.3274430  69.9602845
  19.1572876  18.8442662  71.4052437  19.5850012  17.1904997  70.0659988
  19.5753553  16.3942728  70.8072617  20.3154636  16.8951840  69.3147722
  18.1740012  17.2664997  69.4089988  17.4911851  17.8725614  69.9994820
  17.7226101  16.2783875  69.3415420  18.2990012  17.8244997  68.0409988
  18.9324311  18.7093642  68.0731434  17.3323620  18.1555746  67.6718483
  18.9330012  16.8044997  66.9949988  18.6803880  15.7821338  67.2563407
  20.0166839  16.8791702  67.0288822  18.4760012  17.0834997  65.5829988
  18.6881980  18.1098958  65.3118447  17.4099995  16.9126953  65.4906117
  18.8200012  18.4744997  65.0969988  18.0480012  19.3264997  64.7449988
  20.1700012  18.6304997  65.1999988  20.6530012  19.9834997  65.1399988
  20.3097155  20.5257636  66.0080810  20.3475965  20.5130527  64.2492162
  22.2380012  19.8114997  65.1869988  22.6398470  20.8053724  65.2948450
  22.7890012  19.1614997  63.9089988  23.8085595  19.4957099  63.7725975
  22.1880307  19.5381205  63.0907224  22.7320012  17.7254997  63.9529988
  21.9840012  16.8864997  62.8619988  21.4840012  15.4984997  63.5449988
  22.2900012  14.9544997  64.5999988  22.3793606  15.6038020  65.4611668
  23.3012470  14.7606313  64.2541752  21.6980012  13.5004997  65.0239988
  20.8113424  13.7010664  65.6120959  22.3690916  12.8855861  65.6061465
  21.2170012  12.5944997  63.8129988  22.1600012  12.5274997  62.6789988
  22.4283872  13.5352718  62.3931696  21.6588391  12.0377195  61.8573833
  23.0225223  11.9489869  62.9741212  21.1180012  11.1914997  64.3309988
  20.5439640  11.2032537  65.2448134  22.1088313  10.8066903  64.4939326
  20.6079646  10.6052342  63.5803641  19.8250012  12.9544997  63.2069988
  19.0736081  12.8914847  63.9799927  19.5909334  12.2568552  62.4169642
  19.8545960  13.9574773  62.8062556  20.8190012  17.6544997  62.3979988
  22.8910012  16.5364997  61.7689988  22.6490012  19.0044997  66.3029988
  23.9580012  18.9304997  66.6089988  24.8290012  19.6074997  66.1149988
  24.1070012  17.8844997  67.7549988  23.1112731  17.5284141  67.9984772
  24.6492099  17.0193514  67.3815886  24.8270012  18.5074997  68.9989988
  25.6067610  19.2005164  68.7027499  24.1476568  19.0719253  69.6298299
  25.4540012  17.3594997  69.8039988  26.1267712  16.7930717  69.1650983
  26.0711457  17.7875911  70.5900874  24.4130012  16.4104997  70.4539988
  23.8771145  16.9553913  71.2289985  23.6663774  16.1073949  69.7240108
  25.0390012  15.1314997  71.0959988  25.7746011  14.7115404  70.4130434
  25.5882112  15.4287759  71.9872766  24.0060012  14.0244997  71.4909988
  23.1760060  14.0748556  70.7879531  24.4632672  13.0482727  71.3560667
  23.4650012  14.1184997  72.9199988  24.2616802  14.5737544  73.4967358
  22.6635467  14.8543685  72.8698619  22.9310012  12.8584997  73.6129988
  21.8684024  12.7394481  73.4637854  23.5730012  11.8904997  74.3539988
  23.0286904  11.0380513  74.7343506  25.0420012  11.8914997  74.7079988
  25.5380387  11.0267584  74.2705170  25.5777076  12.7628983  74.3483268
  25.1810012  11.8014997  76.2539988  24.8704142  10.8175721  76.6034660
  26.2278752  11.9057337  76.5326546  24.3750012  12.8604997  76.9549988
  24.7494801  13.8331626  76.6359387  23.3488229  12.7998803  76.6031644
  24.3950012  12.7884997  78.5069988  25.3079706  12.3077624  78.8512712
  24.3942718  13.7866535  78.9414793  23.2030012  12.0344997  79.0029988
  22.3204513  12.5053360  78.5740362  23.2411819  11.0344881  78.5797446
  22.9960012  11.9514997  80.5809988  22.2740086  11.1668827  80.8000558
  23.9318839  11.6369169  81.0392510  22.5420012  13.2164997  81.2469988
  23.3789000  13.9079133  81.3058423  21.8181042  13.6839157  80.5830648
  21.9110012  13.0624997  82.6309988  21.5362610  14.0155706  82.9919622
  22.6227140  12.6949767  83.3625265  21.0764611  12.3675299  82.6045248
  39.2580012 144.8344997  81.9359988  40.1394177 144.5668790  82.5103794
  38.4649365 145.0740310  82.6384682  39.4883544 145.7387485  81.3793270
  38.8370012 143.6884997  80.9859988  38.6306715 142.7874331  81.5610728
  39.6610903 143.4442013  80.3211609  37.5560012 144.0724997  80.1449988
  37.6923961 145.0027930  79.5937459  36.6934139 144.2282913  80.7898579
  37.2220012 142.9204997  79.1389988  36.7948308 142.0548340  79.6403952
  38.0988395 142.5573909  78.6051331  36.1980012 143.4574997  78.1289988
  36.4805997 144.4603674  77.8192128  35.2325229 143.5511365  78.6234164
  36.0450012 142.5794997  76.8859988  37.0023677 142.5385094  76.3696790
  35.3508933 143.0628783  76.2017939  35.5580012 141.1404997  77.1739988
  34.6489635 141.1826700  77.7711940  36.2994417 140.6267327  77.7843588
  35.2960012 140.3334997  75.9229988  34.4918034 140.7926176  75.3494765
  34.9478801 139.3377145  76.1911546  36.5440012 140.2114997  75.0369988
  37.3644279 139.8752204  75.6673616  36.8100483 141.2130032  74.7011616
  36.4230012 139.2684997  73.7989988  35.4887239 139.4788487  73.2830742
  36.3581649 138.2351227  74.1386417  37.5840012 139.4044997  72.8419988
  38.5008992 139.5609894  73.4062238  37.4565265 140.2895134  72.2210085
  37.7720012 138.1934997  71.9529988  37.0702948 138.1461579  71.1237908
  37.6720281 137.2520002  72.4898917  39.2270012 138.3074997  71.4169988
  39.9248041 138.4730097  72.2361016  39.3506047 139.1463889  70.7378368
  39.6530012 136.9734997  70.6739988  39.0942651 136.1179718  71.0390071
  40.7039978 136.7620179  70.8522499  39.4290012 137.1144997  69.1379988
  39.9513286 137.9828637  68.7570015  38.3731312 137.2198449  68.9186589
  37.9350012 137.0154997  68.7109988  36.9550012 136.5814997  69.3649988
  37.8690012 137.5784997  67.5239988  36.6190012 137.8114997  66.8449988
  35.9236956 137.5642574  67.6329603  36.4632671 137.1401009  66.0130356
  36.4370012 139.2644997  66.4159988  35.4183764 139.4073185  66.0952179
  37.3920012 139.6354997  65.2879988  36.9550547 140.4388910  64.7105552
  37.4865598 138.7634632  64.6530215  38.6960012 140.0304997  65.8059988
  39.7910012 140.6164997  64.9019988  38.9470012 141.5334997  63.9059988
  39.6170012 142.2084997  62.8689988  40.4063008 141.6424563  62.3917252
  40.0683097 143.1330972  63.2171898  38.5560012 142.6374997  61.8519988
  38.0378417 141.7594365  61.4876296  39.0887578 143.0926160  61.0295533
  37.4680012 143.6274997  62.2439988  36.6490012 143.0244997  63.2859988
  36.3360683 142.0437863  62.9549272  35.7826963 143.6520031  63.4338345
  37.2226613 142.9775282  64.1994673  38.1540012 144.9744997  62.5219988
  38.8024223 145.2068083  61.6911578  38.7046545 144.9045607  63.4430088
  37.3776154 145.7210985  62.6063331  36.6690012 143.7504997  60.8999988
  37.3343524 144.0911383  60.1206689  35.8671138 144.4620222  61.0279142
  36.2581619 142.7869029  60.6351832  40.6010012 141.5654997  65.6929988
  40.4620012 139.5004997  64.2009988  36.5590012 140.0394997  67.6569988
  36.1400012 141.3264997  67.5409988  35.6290012 141.8144997  66.5779988
  36.4780012 142.1304997  68.8539988  35.5415791 142.4631044  69.2899354
  36.9272502 141.4646969  69.5866576  37.4210012 143.3194997  68.5269988
  36.9908060 143.8438924  67.6808278  37.3802446 144.0121775  69.3616061
  38.8640012 142.9734997  68.2149988  38.9235338 142.1276796  67.5347795
  39.3409802 143.8068250  67.7049743  39.6630012 142.6664997  69.5229988
  39.5742359 143.5612616  70.1363728  39.1242308 141.8824404  70.0494773
  41.0980012 142.2934997  69.4459988  41.1405631 141.2836980  69.0430223
  41.5383678 142.9402655  68.6895914  41.9940012 142.3744997  70.7749988
  43.0507898 142.2880166  70.5271691  41.8746791 143.3289278  71.2801197
  41.5920012 141.2064997  71.7879988  40.5550440 141.2483544  72.1003256
  41.7431409 140.2172259  71.3580683  42.5490012 141.3724997  72.9999988
  43.5774549 141.1200805  72.7899475  42.2590012 141.8004997  74.2649988
  42.9901932 141.8622340  75.0581930  40.8520012 142.2424997  74.6769988
  40.9122061 143.1471188  75.2797098  40.2173751 142.4828727  73.8313324
  40.1690012 141.1214997  75.5399988  39.2230856 141.5213614  75.9033984
  39.9142577 140.3116456  74.8590427  40.9240012 140.5894997  76.6479988
  41.9223587 140.4130160  76.2476953  41.0199239 141.4119487  77.3514761
  40.4550012 139.3514997  77.3809988  40.4114619 138.5547214  76.6418143
  41.2441963 139.0765381  78.0786033  39.0920012 139.4414997  78.1519988
  38.9773213 140.4620915  78.5123191  38.2830021 139.2841222  77.4439183
  38.9310012 138.4914997  79.3579988  37.9458655 138.6527139  79.7920503
  38.9335370 137.4681636  78.9870393  40.0050012 138.6104997  80.4989988
  39.7091746 138.0339451  81.3719171  40.9343486 138.1648860  80.1510694
  40.2700012 140.0104997  80.8999988  41.0772776 140.0576415  81.6246721
  39.3998832 140.4744381  81.3521015  40.5583002 140.6139811  80.0439410
   3.0710012  33.3084997  82.2149988   3.3455113  33.8249048  83.1295473
   1.9903971  33.1987878  82.2080593   3.3418528  33.9487713  81.3799517
   3.7670012  31.9474997  82.1139988   3.4904157  31.3777933  82.9995145
   4.8348887  32.1329622  82.1916770   3.4670012  31.1144997  80.8659988
   2.4427437  30.7511876  80.9486428   4.1036259  30.2330485  80.9098592
   3.6580012  31.7864997  79.4949988   4.7160209  31.9901488  79.3454289
   3.1604557  32.7550467  79.4865604   3.1500012  30.9444997  78.3189988
   2.0635554  30.9133442  78.3035767   3.4837371  29.9135934  78.4249123
   3.6300012  31.4804997  77.0349988   3.0011253  31.0299299  76.2692840
   4.6263808  31.0677988  76.8918808   3.6770012  33.0174997  76.8209988
   4.2959097  33.4291432  77.6161540   2.6692840  33.3923621  76.9948215
   4.1670012  33.5174997  75.5089988   4.0892036  34.6036007  75.5369821
   3.4556398  33.1811438  74.7569923   5.6040012  33.1174997  75.0699988
   5.6020904  32.0364007  74.9484985   6.2575438  33.3267089  75.9159837
   6.2130012  33.8014997  73.7469988   7.2486998  33.4696648  73.7243490
   6.2387994  34.8671569  73.9731360   5.5710012  33.5954997  72.3849988
   4.5445260  33.9529922  72.4307039   5.5104817  32.5287742  72.1762832
   6.2820012  34.3054997  71.2099988   7.2829365  33.8896702  71.1237817
   6.4097688  35.3504872  71.4863073   5.5710012  34.2414997  69.8669988
   4.6941186  34.8854366  69.9079141   5.2016779  33.2355967  69.6880192
   6.4260012  34.6814997  68.6699988   6.5984557  35.7441629  68.8054660
   5.7717567  34.5763679  67.8086025   7.7580012  33.9904997  68.3579988
   7.6151439  32.9226489  68.2515676   8.4710337  34.1682907  69.1542675
   8.4260012  34.6004997  67.1379988   8.2520012  35.7284997  66.7749988
   9.1600012  33.6404997  66.5429988   9.6400012  33.9724997  65.2209988
  10.7109160  33.9559519  65.3563851   9.3253619  34.9857973  65.0174748
   9.2370012  33.0384997  64.0879988   9.7854572  33.3075255  63.2004656
   7.6800012  33.2414997  63.8429988   7.4138895  32.6571579  62.9726366
   7.5593495  34.2912490  63.6062404   6.8720012  32.8904997  64.9359988
   5.2620012  32.6834997  64.8419988   5.1580012  31.4904997  63.9469988
   4.5890012  31.4324997  62.6029988   5.3356945  31.6483515  61.8499741
   3.8259957  32.1998235  62.5090101   3.8920012  30.1514997  62.3119988
   3.5632921  30.3075569  61.2922706   3.0243117  29.9947441  62.9364343
   4.6520012  28.8204997  62.3059988   5.0060012  28.3794997  63.7069988
   5.4962505  29.1995034  64.2135396   5.6831476  27.5417205  63.6315092
   4.1047306  28.0723532  64.2160071   3.7700012  27.8024997  61.6749988
   3.4015471  28.1995503  60.7415608   2.9646869  27.5697779  62.3485561
   4.3706837  26.9232077  61.4924527   5.7750012  28.9404997  61.4339988
   5.4303896  29.1999874  60.4440538   6.2993350  27.9973642  61.3990770
   6.4382620  29.7091101  61.8038069   4.7370012  32.3874997  66.1809988
   4.5590012  33.8814997  64.2369988   9.5380012  31.6504997  64.3959988
   9.5010012  30.8084997  63.3939988   9.4090012  31.0794997  62.2019988
   9.2930012  29.4214997  63.9619988   9.1751134  28.7374603  63.1278851
  10.1916273  29.1020817  64.4838706   8.0470012  29.4024997  64.9179988
   7.3606706  30.1849706  64.6134489   7.5099328  28.4674350  64.7945295
   8.4080012  29.5994997  66.3749988   9.1533376  30.3771679  66.5211482
   7.5419082  29.8955872  66.9617527   8.9480012  28.2174997  66.9329988
   8.7142951  27.4924720  66.1555527  10.0319142  28.3000989  66.9556244
   8.4780012  27.6704997  68.2429988   7.4205895  27.9019870  68.3534304
   8.5467571  26.5856111  68.1913218   9.2150012  28.1374997  69.4509988
   9.0892920  27.4383145  70.2762492  10.2840405  28.2117183  69.2722126
   8.7080012  29.4714997  69.8569988   9.4630924  29.9178358  70.4935530
   8.6704704  30.0787192  68.9535488   7.3080012  29.5054997  70.5379988
   6.4613169  29.2624966  69.9137958   7.0560012  29.7944997  71.8259988
   6.0137184  29.7595386  72.1089023   7.9830012  30.1564997  72.9489988
   8.9649510  30.3633146  72.5268339   7.6672479  31.0681138  73.4439134
   8.1390012  28.9954997  74.0279988   7.1501291  28.6012001  74.2590072
   8.6904532  28.1792071  73.5653692   8.8530012  29.4124997  75.3469988
   9.0001939  28.5244398  75.9616458   9.8454189  29.7883796  75.1139207
   8.0900012  30.4584997  76.1509988   7.9759216  31.3632588  75.5580893
   7.0825343  30.1059591  76.3650333   8.8140012  30.7884997  77.4909988
   8.2686636  30.3059407  78.2999078   9.7982536  30.3283182  77.4807468
   8.9370012  32.3024997  77.8329988   9.7796950  32.5288794  78.4837692
   9.0589436  32.9300614  76.9520162   7.6630012  32.7084997  78.5379988
   7.4132866  33.7521609  78.3638472   6.8256696  32.1346481  78.1469958
   7.7720012  32.4554997  80.0419988   6.8283387  32.6636015  80.5372399
   8.5270622  33.0818813  80.5048917   8.0314802  31.4205278  80.2460694
 115.2520012   0.2284997  84.7089988 116.0653802  -0.2709180  85.2261308
 114.4038195  -0.4498124  84.6925487 114.9681946   1.0955725  85.2991263
 115.6670012   0.6424997  83.2739988 115.9855810  -0.2702845  82.7734641
 116.5572304   1.2553542  83.3867606 114.6120012   1.3824997  82.3759988
 114.2404320   2.2306914  82.9508344 113.7699198   0.7023548  82.2643160
 115.0270012   1.8514997  81.0159988 114.1614130   2.2955306  80.5293330
 115.3035801   0.9892902  80.4111807 116.1230012   2.8254997  81.0029988
 116.9960579   2.3497344  81.4423076 115.8409535   3.6306030  81.6794770
 116.5210012   3.4334997  79.6129988 117.1516172   4.3016006  79.7961414
 115.6160135   3.8092594  79.1403690 117.2270012   2.4954997  78.6619988
 117.8470008   1.8618172  79.2935184 117.9125038   3.1249964  78.0962691
 116.4190012   1.6054997  77.6789988 115.8819882   0.8696476  78.2761502
 117.1374465   1.0466775  77.0821419 115.4120012   2.3314997  76.7269988
 114.8731348   3.1307567  77.2313323 114.6539403   1.6539033  76.3361228
 116.2410012   2.9364997  75.5239988 116.9329038   3.6676217  75.9363462
 115.5519940   3.4926344  74.8888513 117.0190012   1.8954997  74.6509988
 116.7506985   0.8741378  74.9124841 118.0974338   1.9674139  74.7811504
 116.6650012   2.1274997  73.1479988 115.5948085   2.2839850  73.0365578
 116.9026863   1.2331355  72.5750340 117.4460012   3.3254997  72.5439988
 118.5012076   3.0619115  72.5920891 117.3144797   4.1763990  73.2065290
 117.1330012   3.7554997  71.1129988 117.7030862   4.6285368  70.8127420
 116.0827560   4.0137030  71.0061901 117.4490012   2.5964997  70.1629988
 116.9157219   1.7036912  70.4639095 118.5116232   2.3846242  70.1664752
 116.8980012   2.7344997  68.7689988 116.0440012   3.5784997  68.4579988
 117.3820012   1.7824997  68.0339988 117.2470012   1.6654997  66.6259988
 118.2600690   1.5239639  66.2808566 116.8492721   2.5713057  66.1918111
 116.3740012   0.4384997  66.2489988 116.9368589  -0.4462961  66.4964289
 115.9510012   0.3994997  64.7119988 115.5585410  -0.5863802  64.5026737
 116.8649631   0.5361265  64.1475595 115.0020012   1.3954997  64.3649988
 115.1310012   2.4574997  63.2149988 114.0340012   3.5544997  63.5559988
 114.0150012   4.3534997  64.7059988 114.5181040   3.9052362  65.5528378
 112.9940091   4.5476445  65.0217200 114.6000012   5.7204997  64.3839988
 115.5771820   5.6258559  63.9274802 114.6986815   6.2804066  65.3027715
 113.7820012   6.6054997  63.4379988 113.7120012   6.1204997  62.0359988
 114.7165525   5.9203708  61.6893592 113.2686712   6.9006840  61.4352734
 113.0902679   5.2384955  62.0008799 112.3260012   6.6504997  63.9329988
 112.3289335   6.8916525  64.9849259 111.8631424   5.6974006  63.7493309
 111.8193818   7.4256385  63.3764076 114.4320012   7.9644997  63.3439988
 114.4888161   8.4004802  64.3302924 113.8385323   8.5978860  62.7019190
 115.4253629   7.8614219  62.9316368 116.4230012   3.1094997  63.2679988
 114.7840012   1.8224997  61.9349988 115.1790012   0.4804997  67.1559988
 114.5060012  -0.7225003  67.3369988 114.7300012  -1.7645003  66.7299988
 113.4080012  -0.6325003  68.3999988 112.5362494  -0.2058220  67.9146665
 113.1224584  -1.6399789  68.6921617 113.8530012   0.2004997  69.6299988
 114.6749795  -0.3317209  70.0959965 114.2687208   1.1341692  69.2646614
 112.7640012   0.4904997  70.6989988 111.8532149   0.7544347  70.1675284
 112.5624183  -0.4560873  71.1943800 113.0760012   1.5544997  71.7769988
 114.1110234   1.4031899  72.0778978 113.0353244   2.5361089  71.3111762
 112.2050012   1.5684997  73.0369988 111.2028353   1.9497473  72.8520262
 112.0776175   0.5701181  73.4509900 112.9280012   2.4854997  74.1279988
 113.9682740   2.2106451  74.2952960 112.9252767   3.5459146  73.8917133
 112.1010012   2.2604997  75.4719988 111.9890496   1.2038329  75.6853112
 112.6364315   2.6891629  76.3181123 110.7780012   2.9274997  75.3599988
 109.9035738   2.3463144  75.1086931 110.5970012   4.2564997  75.5739988
 109.6037131   4.6719021  75.4821852 111.6490012   5.2614997  75.9419988
 112.6365880   4.9149070  75.6423877 111.5160709   6.2341492  75.4816039
 111.6370012   5.4094997  77.4209988 110.6073170   5.7116344  77.6085359
 111.7121017   4.3725016  77.7426414 112.6200012   6.3014997  78.2979988
 113.5870413   5.8110843  78.4095027 112.8171671   7.2560498  77.8179325
 112.0080012   6.5454997  79.6979988 112.3473740   7.5169226  80.0505730
 110.9265318   6.6191061  79.5975443 112.3520012   5.4494997  80.7479988
 112.0294902   4.4929493  80.3410736 113.4337281   5.3876871  80.8296750
 111.7420012   5.6004997  82.1099988 110.8028861   6.1436526  82.0209439
 111.4851720   4.6144146  82.4927639 112.6260012   6.3164997  83.1549988
 112.5274525   7.3897333  83.0122657 112.1855388   6.1055600  84.1270123
 114.1480012   5.9324997  83.1969988 114.6483426   6.4297992  84.0224808
 114.6632706   6.2169528  82.2857772 114.2771228   4.8619138  83.3285836
 104.9620012 141.2994997  81.4779988 105.3151551 140.2734065  81.5070526
 103.8774087 141.2782556  81.5327515 105.3265591 141.7998333  82.3709577
 105.4610012 142.0494997  80.1529988 105.1022145 141.4842406  79.2945366
 106.5454714 141.9848633  80.1293271 105.0110012 143.5294997  80.0139988
 105.5343778 144.1695722  80.7241488 103.9518668 143.6281423  80.2435091
 105.2560012 144.0614997  78.5609988 104.9287814 143.3086796  77.8472486
 106.3231402 144.1949762  78.3903987 104.5520012 145.3264997  78.2689988
 104.6676828 145.9794522  79.1303023 103.4906104 145.0931762  78.2028566
 104.9830012 146.0874997  77.0059988 104.2950070 146.9187322  76.8627036
 104.8455040 145.4281385  76.1516485 106.4040012 146.6094997  77.0099988
 106.6998438 146.8172143  78.0366934 106.4297212 147.5644228  76.4868446
 107.4270012 145.6514997  76.3699988 107.1411436 145.3969534  75.3502230
 107.4789959 144.7106965  76.9148566 108.8240012 146.3104997  76.3579988
 109.4253843 145.9820245  77.2029742 108.7531128 147.3944668  76.4390370
 109.5730012 145.9304997  74.9939988 110.3380655 146.6993927  74.9116638
 108.8317036 146.1541806  74.2272695 110.1580012 144.6084997  74.7289988
 109.3707905 143.9219125  74.4249618 110.5805024 144.1975984  75.6443025
 111.2700012 144.6234997  73.6009988 111.8275937 143.6910738  73.6444910
 111.9819871 145.4143566  73.8296718 110.7110012 144.8544997  72.1439988
 111.5268287 144.9252528  71.4265927 110.1503040 145.7811839  72.0594464
 109.8040012 143.6754997  71.7199988 108.7624968 143.9449026  71.8615462
 110.0028362 142.8325872  72.3765467 110.0210012 143.2134997  70.2329988
 111.0617609 142.9710669  70.0595443 109.7280251 143.9994180  69.5470203
 109.0630012 142.1884997  69.7179988 108.0540012 141.7874997  70.2919988
 109.4050012 141.6874997  68.4439988 108.6390012 140.5114997  68.0139988
 108.2776475 140.1902749  68.9792449 109.3155576 139.7650094  67.6238506
 107.3970012 140.7544997  67.0019988 106.8764125 139.8113255  66.9845629
 107.7240012 141.2074997  65.5429988 106.8298333 141.1765234  64.9352938
 108.4490277 140.5180230  65.1288208 108.2370012 142.4764997  65.5759988
 108.9520012 143.0994997  64.3319988 107.8590012 143.8654997  63.4739988
 106.7270012 144.2344997  64.2209988 106.4885720 145.2857516  64.1250309
 106.9038470 144.0539686  65.2773752 105.5590012 143.3894997  63.8719988
 104.6982697 143.6439116  64.4775275 105.8196644 142.3571134  64.0553301
 105.0920012 143.4484997  62.4589988 106.1320012 142.8044997  61.5089988
 107.1005620 143.2411018  61.7104993 105.8376303 143.0253702  60.4937835
 106.1319218 141.7357156  61.6620269 103.7700012 142.6604997  62.3759988
 103.1147209 143.0068651  63.1604430 103.9803849 141.6105277  62.4743223
 103.3320279 142.8651894  61.4097801 104.9700012 144.8994997  62.0539988
 104.2788243 145.3970811  62.7179033 104.6020456 144.9551399  61.0405083
 105.9393565 145.3731166  62.1129243 109.9540012 144.0714997  64.8469988
 109.4330012 142.0224997  63.4629988 106.5370012 141.7014997  67.7169988
 105.3030012 142.0034997  67.2089988 104.7010012 141.4044997  66.3169988
 104.8140012 143.3294997  67.8659988 105.4292468 143.3984704  68.7572164
 105.1657029 144.1138148  67.2003692 103.3430012 143.4994997  68.1789988
 103.1958021 144.4593226  68.6618377 102.7768554 143.5390100  67.2538226
 102.7820012 142.3824997  69.0909988 101.7445038 142.5641874  69.3597789
 102.7985385 141.4251138  68.5760193 103.6600012 142.2694997  70.3839988
 103.2240715 141.4819786  70.9959481 104.6500108 141.9209375  70.1001199
 103.8140012 143.5864997  71.2899988 104.2857372 144.4055305  70.7509675
 102.8445628 143.9576213  71.6168611 104.6470012 143.2454997  72.5229988
 105.5033567 142.6372447  72.2359760 105.0493498 144.1435043  72.9834565
 103.7680012 142.4464997  73.6259988 102.9358253 143.1040282  73.8489775
 103.3517798 141.5975526  73.0852634 104.4290012 141.9314997  74.9159988
 104.0223709 142.4091530  75.7946643 105.3920012 141.0024997  75.1099988
 105.7079478 140.8123642  76.1256937 106.0890012 140.1854997  74.1009988
 106.3542121 139.2218292  74.5325349 105.4733289 139.9710024  73.2346157
 107.3980012 140.8904997  73.6429988 107.5571347 140.6228221  72.5990973
 107.1935283 141.9593893  73.6541749 108.6770012 140.6134997  74.4429988
 108.9267493 139.5558817  74.3582814 109.5068835 141.1578424  74.0008560
 108.5540012 140.9854997  75.9229988 107.9894126 141.9045893  76.0632094
 108.0378612 140.2203140  76.5002122 109.9500012 141.1534997  76.4589988
 110.5487559 140.3033887  76.1374493 110.4058128 142.0274288  76.0017149
 110.0430012 141.2434997  77.9029988 109.9688881 140.2385478  78.3146563
 111.0389166 141.6013202  78.1578534 108.9810012 142.1614997  78.6259988
 108.9577367 143.1660549  78.2109777 107.9819703 141.7571601  78.4784868
 109.2600012 142.2364997  80.1089988 108.4811525 142.7944947  80.6199834
 110.2036841 142.7282331  80.3197161 109.2993761 141.2442956  80.5495913
 135.2100012 120.3604997  81.4059988 135.0069084 119.3042026  81.2596468
 134.6680075 120.6826366  82.2904538 136.2711833 120.4672856  81.6136072
 134.7900012 121.2084997  80.1359988 133.7311622 121.0376527  79.9492519
 135.3201965 120.8060755  79.2770682 135.0470012 122.7324997  80.2549988
 136.0313126 122.8873982  80.6966621 134.3306350 123.1403557  80.9653817
 134.9470012 123.5294997  78.9539988 135.7962419 123.3272964  78.3050349
 134.9528284 124.6037042  79.1322029 133.7240012 123.1634997  78.2489988
 132.8988453 123.1826531  78.9563346 133.8256318 122.1287282  77.9260682
 133.3530012 124.0624997  77.0059988 134.2167867 124.1116391  76.3454861
 133.1779743 125.0783284  77.3538991 132.1610012 123.5944997  76.2279988
 131.3149489 123.5843317  76.9127339 132.3438384 122.5561374  75.9548608
 131.7810012 124.3994997  74.9559988 131.2207370 125.2850010  75.2533915
 131.1043799 123.8017391  74.3480925 132.9700012 124.8194997  74.1139988
 133.5884642 123.9786573  73.8073581 133.6329303 125.5104159  74.6333606
 132.3880012 125.5174997  72.8529988 133.1421155 126.2218428  72.5087441
 131.5389980 126.1160182  73.1822377 131.9450012 124.6064997  71.6879988
 131.0014575 124.1371891  71.9582099 132.6638392 123.7967813  71.5750564
 131.7670012 125.3014997  70.3629988 132.6195320 125.9506247  70.1784807
 130.8962388 125.9520765  70.4195025 131.5680012 124.2774997  69.1249988
 131.6110131 124.8842240  68.2220660 130.5546450 123.8902233  69.1833105
 132.5200012 123.1324997  68.9579988 132.1165957 122.4203488  68.2456434
 132.6064600 122.6122022  69.9082132 133.9400012 123.5644997  68.4999988
 134.3494220 124.3014160  69.1792409 133.9019305 123.9918849  67.5050307
 134.8490012 122.3694997  68.3509988 135.8420012 122.0744997  69.0739988
 134.4260012 121.5774997  67.3619988 134.9720012 120.2384997  67.2779988
 134.8699647 119.7596645  68.2401669 136.0217380 120.3405042  67.0438201
 134.2360012 119.4144997  66.1859988 134.7071899 118.4455467  66.1837152
 134.3820012 120.0704997  64.8009988 133.7697440 119.5135980  64.1047211
 135.4213222 119.9512426  64.5214016 134.0110012 121.4834997  64.7909988
 133.5860012 122.2904997  63.4979988 132.0700012 122.0054997  63.3019988
 131.2340012 122.3924997  64.3659988 131.6459250 122.1374850  65.3337153
 130.2789016 121.8803721  64.2931481 130.8940012 123.8974997  64.2869988
 131.7792254 124.5162807  64.2112557 130.3920027 124.1218568  65.2170732
 129.9740012 124.3664997  63.1989988 129.9910012 125.8254997  63.3619988
 129.7814518 126.0597533  64.3966718 129.2185476 126.2402266  62.7315885
 130.9538838 126.2017646  63.0505525 130.3900012 123.8384997  61.8359988
 130.5417279 122.7727780  61.9130076 131.2873628 124.3419036  61.5234341
 129.5840201 124.0494263  61.1481023 128.5100012 123.9254997  63.4219988
 128.4683498 122.8481077  63.4817785 127.9069929 124.2656208  62.5935371
 128.1390528 124.3576107  64.3402103 133.7880012 123.7304997  63.8489988
 134.3120012 121.7514997  62.2679988 132.8300012 119.3074997  66.3639988
 132.3290012 118.6634997  67.4199988 132.9380012 118.1524997  68.3579988
 130.7570012 118.9324997  67.5389988 130.5033949 119.7185598  66.8351903
 130.2109148 118.0516820  67.2105831 130.3880012 119.3044997  68.9619988
 131.1569960 119.9276143  69.4052099 129.4735258 119.8882511  68.9936559
 130.2260012 118.0484997  69.7949988 129.5886864 117.3681836  69.2358441
 131.2058319 117.5793329  69.8383501 129.6870012 118.2114997  71.2519988
 128.6200681 118.4208566  71.2017043 129.7875461 117.2738819  71.7932617
 130.3340012 119.2834997  72.0319988 131.4123625 119.1386623  72.0242512
 130.1525396 120.2343579  71.5346846 129.8400012 119.3884997  73.4969988
 128.7519793 119.4303544  73.5095504 130.1191469 118.5009534  74.0579419
 130.4020012 120.6184997  74.2149988 131.4778332 120.5607274  74.3325903
 130.2038819 121.5263688  73.6467837 129.7250012 120.7254997  75.5309988
 128.7689524 121.2185380  75.6228567 130.2810012 120.1844997  76.7019988
 129.6769123 120.3478490  77.5829095 131.5270012 119.4344997  76.9569988
 132.1312943 119.4493681  76.0515543 132.1263076 119.9030600  77.7296332
 131.2660012 117.9864997  77.3299988 130.4792988 117.5914394  76.6883354
 132.1599431 117.4079760  77.1049718 130.8860012 117.7734997  78.7899988
 129.8023447 117.8662707  78.8620350 131.1206309 116.7448676  79.0495541
 131.5520012 118.7324997  79.8189988 132.5882212 118.8100624  79.4974759
 131.1036683 119.7079845  79.6386876 131.4910012 118.4154997  81.3309988
 131.7120562 117.3640843  81.5049253 132.2468670 118.9721244  81.8782288
 130.0820012 118.7114997  81.9189988 129.2742553 118.4547939  81.2359675
 129.8853803 118.1631870  82.8385244 130.0050012 120.2164997  82.2229988
 130.9354930 120.5673597  82.6623131 129.9008051 120.7533203  81.2826373
 128.8280012 120.5964997  83.1429988 128.7612162 121.6741494  83.2582368
 128.9341403 120.1695477  84.1345569 127.8839862 120.2485157  82.7332624
  14.7690012  16.3694997  83.3739988  15.1038149  15.5904383  84.0517835
  13.7680893  16.1109586  83.0406491  14.6981456  17.2932994  83.9416127
  15.7230012  16.5234997  82.1909988  15.7942986  15.5796953  81.6530833
  16.7218565  16.7409198  82.5595506  15.2630012  17.6324997  81.2139988
  14.5078814  18.2720779  81.6707950  14.7946156  17.1941335  80.3350101
  16.4350012  18.4864997  80.7599988  17.1383213  17.8247958  80.2592605
  16.9460509  18.8523377  81.6492101  16.1160012  19.7014997  79.8029988
  17.0686214  20.1524245  79.5370016  15.5904432  20.4348048  80.4124391
  15.2940012  19.4344997  78.4889988  14.2351751  19.4447883  78.7411864
  15.5153274  18.4258443  78.1466451  15.5510012  20.4194997  77.3519988
  16.6292840  20.5326647  77.2557186  15.1703166  21.3896597  77.6683827
  14.9600012  20.0664997  75.9949988  15.1791264  20.8547778  75.2759350
  13.8751487  20.0096640  76.0624436  15.5170012  18.7014997  75.4529988
  15.0184991  18.4726164  74.5135047  15.2340118  17.9111752  76.1471754
  17.0790012  18.6694997  75.2369988  17.5594663  18.2642785  76.1248321
  17.4553465  19.6857899  75.1232121  17.4870012  17.8154997  73.9599988
  17.0013627  16.8420292  73.9671709  18.5572190  17.6190674  73.9257045
  17.0700012  18.5504997  72.6919988  17.6374127  19.4724053  72.5902480
  16.0244713  18.8437493  72.7664432  17.2530012  17.6514997  71.3989988
  18.2688229  17.2599505  71.3921135  17.1562804  18.2621703  70.5056901
  16.2680012  16.4394997  71.2979988  15.2316075  16.6764236  71.5150246
  16.5416219  15.6071539  71.9409795  16.3920012  15.9674997  69.7729988
  17.4244372  15.7573236  69.5241156  16.0242119  16.7397141  69.1078034
  15.3420012  14.9154997  69.4449988  14.6560012  14.3644997  70.3439988
  15.0960012  14.7814997  68.1749988  14.1270012  13.8434997  67.7309988
  13.4242090  13.7947882  68.5490283  14.6142211  12.8849222  67.6264141
  13.3670012  14.2604997  66.3619988  12.7265200  13.4706781  66.0058249
  14.3720012  14.6544997  65.2639988  13.7760174  14.7329390  64.3648594
  15.0025712  13.7775638  65.1868631  15.1640012  15.8194997  65.4379988
  14.7150012  17.3314997  65.3579988  13.7440012  17.4034997  64.0979988
  14.3010012  17.0544997  62.8099988  13.5676030  16.5709382  62.1779509
  15.1052815  16.3384188  62.9519791  14.9570012  18.2674997  62.0799988
  15.3293549  17.9034996  61.1307329  15.7781575  18.7020911  62.6315507
  14.0160012  19.4294997  61.7409988  12.6670012  19.0824997  61.1449988
  12.8210446  18.4195233  60.3047209  12.2069763  19.9986953  60.8057898
  12.0525701  18.6294777  61.9085186  13.7470012  20.1654997  63.0579988
  14.6926009  20.3656165  63.5381117  13.1126489  19.5567208  63.6771558
  13.2514261  21.0939779  62.8138051  14.7130012  20.3824997  60.7699988
  15.6252404  20.7445563  61.2203503  14.0585558  21.2147792  60.5586647
  14.9403840  19.8596038  59.8522232  13.9370012  17.5744997  66.6009988
  15.8210012  18.2044997  65.0829988  12.5060012  15.3684997  66.7519988
  11.1690012  15.1674997  66.7499988  10.5820012  14.1654997  66.4019988
  10.3600012  16.3214997  67.2719988  10.4966352  17.1836631  66.6273606
   9.2951752  16.1029742  67.2546974  10.8540012  16.5964997  68.7279988
  11.9293158  16.7337514  68.6976441  10.4400951  17.5422156  69.0631646
  10.5160012  15.4894997  69.7419988   9.4694698  15.5129719  70.0350434
  10.6877037  14.5069200  69.3094247  11.4140012  15.6434997  70.9809988
  11.0682305  14.9345239  71.7310001  12.4294671  15.3479180  70.7286847
  11.4480012  17.0484997  71.6199988  11.5245549  17.7832997  70.8211812
  10.4818983  17.2145549  72.0927058  12.5350012  17.3014997  72.6399988
  13.4056149  16.7732135  72.2544518  12.7650065  18.3611949  72.5732039
  12.3280012  16.9274997  74.1479988  13.2195690  17.2000905  74.7006117
  11.5215567  17.5434422  74.5437363  11.9700012  15.4484997  74.3679988
  11.3748339  14.9644890  73.6083517  12.3440012  14.7044997  75.4149988
  12.0562701  13.6645809  75.4732202  13.1710012  15.1804997  76.5839988
  14.0138870  14.5089141  76.7380680  13.5931168  16.1679158  76.4339698
  12.2970012  15.1794997  77.8889988  12.8704687  15.5912466  78.7186399
  11.4455065  15.8429305  77.7501627  11.7790012  13.7484997  78.2699988
  10.8195371  13.5823777  77.7801628  12.4589571  13.0032252  77.8666008
  11.6160012  13.5254997  79.8149988  11.3608911  12.4853770  80.0052846
  12.5648085  13.7030366  80.3183180  10.5500012  14.4414997  80.4129988
  10.7028448  15.4591199  80.0584880   9.5628903  14.1508219  80.0640809
  10.5790012  14.4674997  81.9749988  11.5869368  14.5915252  82.3668743
   9.9937702  15.2903103  82.3815962   9.9990012  13.1354997  82.5189988
   8.9690307  13.0354444  82.1857350  10.5464556  12.3301534  82.0342060
  10.0650012  12.9354997  84.0129988   9.7175335  11.9432911  84.2847659
   9.4495987  13.6526165  84.5456941  11.0833723  13.0404011  84.3763950
 142.4350012 111.5404997  81.8479988 142.8384849 111.0216230  82.7119414
 141.4091680 111.2102223  81.7124513 142.4107323 112.6014328  82.0813309
 143.3010012 111.2624997  80.5549988 143.3205614 110.1834538  80.4118887
 144.3192856 111.5571700  80.7939134 142.8630012 111.9144997  79.2939988
 142.9076863 112.9980278  79.4030813 141.8175929 111.6729913  79.1124328
 143.6760012 111.4974997  78.0699988 144.7149587 111.6961019  78.3237200
 143.4202346 112.1980517  77.2765781 143.5660012 110.0494997  77.5309988
 143.3632863 109.3578142  78.3446639 144.5208121 109.7473739  77.1038910
 142.4750012 109.9044997  76.4759988 142.5936592 110.6917750  75.7337490
 141.5063276 110.0700311  76.9427405 142.4710012 108.4994997  75.7509988
 143.3989486 107.9668323  75.9508714 142.4217658 108.6301193  74.6708393
 141.2770012 107.6354997  76.2149988 141.2019907 107.7222288  77.2981896
 141.5162571 106.5937889  76.0093798 139.8600012 107.9914997  75.5569988
 139.7277695 109.0670175  75.4604733 139.0360511 107.6387310  76.1760606
 139.7670012 107.3504997  74.1899988 140.0499488 106.3066049  74.3062890
 140.5330539 107.8063868  73.5632938 138.3740012 107.4534997  73.4619988
 137.6323479 106.8340223  73.9617379 138.4310205 107.0895448  72.4375898
 137.8730012 108.8914997  73.4569988 137.6628285 109.1530647  74.4912280
 136.9126064 108.8810379  72.9449418 138.7490012 109.9484997  72.8199988
 139.7655409 109.8740542  73.2025648 138.4074372 110.9521775  73.0571462
 138.8040012 109.7864997  71.3019988 137.8135933 109.5066489  70.9583116
 139.4578559 108.9428183  71.0976272 139.3110012 111.0284997  70.4689988
 140.2852717 111.3465492  70.8178288 138.6191301 111.8566033  70.5671202
 139.4990012 110.7294997  68.9529988 140.5610012 110.5464997  68.4079988
 138.2670012 110.6134997  68.2819988 138.4260012 110.5634997  66.8499988
 137.5637766 110.0399075  66.4654444 139.3213687 110.0424817  66.5433243
 138.4350012 112.0254997  66.3439988 137.7469663 112.5906553  66.9507121
 138.0130012 112.0784997  64.9179988 137.7134377 113.0812436  64.6449284
 137.1692855 111.4142294  64.7784500 139.1170012 111.6534997  64.1219988
 138.9130012 111.1794997  62.6519988 140.3140012 110.6504997  62.2139988
 141.5040012 111.4004997  62.4509988 141.3837148 112.4238248  62.1200518
 142.3045443 110.9753257  61.8525384 142.0290012 111.3434997  63.9509988
 141.2721346 111.6770189  64.6496882 142.8830384 112.0012738  64.0240097
 142.5030012 109.9784997  64.4689988 143.6920012 109.5284997  63.6119988
 143.4133218 109.6009535  62.5696830 143.9107996 108.5003648  63.8593163
 144.5458464 110.1469115  63.8448766 142.7840012 110.0254997  65.9319988
 141.9361612 110.4706582  66.4297087 143.6812400 110.5942034  66.0990572
 142.9185774 109.0075063  66.2679687 141.3650012 108.9734997  64.2529988
 140.4844463 109.3155506  64.7761682 141.6641403 108.0105859  64.6389558
 141.1536360 108.8895306  63.1967275 137.8770012 110.1254997  62.7479988
 138.5200012 112.2904997  61.7769988 139.7460012 112.5944997  66.5149988
 139.8690012 113.9274997  66.6409988 138.9960012 114.7254997  66.8359988
 141.3540012 114.3234997  66.5479988 141.6788301 113.9723794  65.5739589
 141.3901589 115.4089975  66.5001032 142.2490012 113.7884997  67.6809988
 141.8618217 112.8347630  68.0223775 143.2464856 113.5892708  67.3023623
 142.3240012 114.7214997  68.8309988 143.2869959 114.5990663  69.3201871
 142.3101595 115.7352615  68.4383662 141.1760012 114.5764997  69.8699988
 140.2117029 114.6887553  69.3778266 141.1700002 113.5908922  70.3290673
 141.2830012 115.6604997  70.9989988 141.9500546 115.3982952  71.8176498
 141.6134948 116.6327298  70.6385498 139.8480012 115.7964997  71.5339988
 139.7803278 116.6505009  72.2061619 139.1449925 115.9847745  70.7273703
 139.4000012 114.4954997  72.2989988 139.7029101 113.5960109  71.7757912
 139.8593447 114.4460048  73.2853556 137.8750012 114.5494997  72.4699988
 137.4244036 114.8085568  71.5237402 137.0800012 114.3464997  73.4619988
 136.0156244 114.4255003  73.2932652 137.4620012 113.9874997  74.9129988
 138.5474566 114.0486217  74.9701971 137.0793539 114.7477327  75.5847932
 137.0230012 112.5724997  75.4239988 136.0277585 112.2901891  75.0826810
 137.6947598 111.7872811  75.0824859 137.0440012 112.6234997  77.0039988
 137.9794620 113.0715116  77.3391186 136.2504342 113.2726199  77.3637186
 136.8980012 111.2714997  77.6199988 135.8396831 111.0227790  77.6552956
 137.3623497 110.5336988  76.9679900 137.5100012 111.1614997  79.0259988
 138.5684026 111.3963851  78.9300555 137.0830369 111.9572066  79.6302975
 137.3890012 109.8184997  79.7629988 136.3368869 109.6069717  79.9451926
 137.7476811 109.0249401  79.1099705 138.1370012 109.7294997  81.0869988
 138.0782489 108.7026457  81.4391836 139.1850893 109.9024733  80.8526819
 137.7130012 110.6994997  82.2379988 138.3759563 110.5974334  83.0918968
 136.7042152 110.5014535  82.5842205 137.7522223 111.7346039  81.9106428
 116.2060012 137.8044997  83.6299988 115.8464256 137.3982538  84.5702640
 115.7216022 138.7645844  83.4770775 117.2719528 137.9870595  83.7350270
 115.9190012 136.8364997  82.4509988 114.8429040 136.6742020  82.4806178
 116.3774712 135.8990228  82.7539119 116.3300012 137.1834997  81.0399988
 115.6070623 137.8866651  80.6266627 116.2541118 136.2826661  80.4342672
 117.7350012 137.7554997  80.8819988 118.4473463 137.1543046  81.4426938
 117.7947451 138.7599253  81.2982508 118.1760012 137.7884997  79.3949988
 118.0716645 136.7873365  78.9846828 119.2400701 138.0180064  79.3738100
 117.4130012 138.7954997  78.4739988 116.9030546 139.5515184  79.0683112
 116.6404463 138.2864208  77.9016573 118.4280012 139.5104997  77.4689988
 118.8372730 138.7960686  76.7570613 119.2792048 139.9255764  78.0069520
 117.7330012 140.6054997  76.7249988 117.1048267 141.1575414  77.4229227
 117.0585835 140.1601543  75.9959498 118.6540012 141.5604997  76.0269988
 119.2724627 140.9939573  75.3341235 119.3342003 141.9819939  76.7660852
 117.9480012 142.7164997  75.2609988 118.6920259 143.2233019  74.6503616
 117.5988289 143.4495751  75.9877093 116.7150012 142.2504997  74.3489988
 116.2265739 143.1273067  73.9292498 115.9657898 141.7511345  74.9609177
 117.1240012 141.3254997  73.1939988 116.2536727 141.1791606  72.5589144
 117.3562904 140.3514216  73.6204770 118.3190012 141.7894997  72.3529988
 119.2136009 141.6279274  72.9520295 118.2408560 142.8631240  72.2063762
 118.5340012 141.1064997  70.9799988 119.3311954 141.6020890  70.4357400
 117.6312821 141.2165651  70.3849560 118.8630012 139.5954997  71.1029988
 118.0961132 139.0858093  71.6723313 119.8156608 139.4558950  71.6000090
 119.0540012 139.0024997  69.7339988 120.1740012 138.8244997  69.2409988
 117.9380012 138.6194997  69.1589988 117.9330012 138.4764997  67.7099988
 118.1822053 137.4406396  67.5357772 118.6495763 139.1029385  67.1988368
 116.4850012 138.7724997  67.2209988 115.8511267 138.2305967  67.9032292
 116.2190012 138.3044997  65.7729988 115.2692554 138.6732305  65.4099265
 116.2055989 137.2221566  65.7423587 117.3040012 138.8184997  64.9649988
 117.0230012 140.0304997  63.9249988 115.6350012 140.6884997  64.4839988
 114.9380012 141.5134997  63.6479988 115.5920614 142.2532113  63.2050305
 114.2056361 142.0613285  64.2339356 114.0900012 140.7484997  62.5239988
 114.7781693 140.0412221  62.0785417 113.7546636 141.4349989  61.7600325
 112.8790012 139.9474997  62.9199988 113.1930012 138.6724997  63.6929988
 113.9349868 138.1095434  63.1435703 112.2827609 138.0965703  63.7696018
 113.5383501 138.9376860  64.6809903 111.9560012 140.7584997  63.7949988
 111.7807545 141.7107640  63.3183488 112.4074975 140.8805886  64.7633042
 111.0286467 140.2108901  63.8812228 112.1680012 139.6424997  61.6589988
 111.9125917 140.5666927  61.1622943 111.2671707 139.0915809  61.8840387
 112.8051835 139.0477779  61.0204538 118.1500012 140.9544997  63.9739988
 116.6950012 139.4304997  62.5939988 116.1910012 140.2014997  67.3649988
 114.9000012 140.4524997  67.5829988 113.9920012 139.6664997  67.6349988
 114.7530012 141.8634997  67.5309988 115.4100119 142.2885061  68.2828361
 115.1182997 142.2304545  66.5750656 113.2650012 142.2724997  67.7579988
 112.7551441 142.1001638  66.8165068 112.8460466 141.5595982  68.4610504
 112.9750012 143.7044997  68.2319988 113.8916361 144.2794245  68.3363817
 112.3714887 144.2275101  67.4942333 112.2390012 143.6854997  69.5159988
 111.9281106 144.7011661  69.7536429 111.3260106 143.1030889  69.4187988
 113.0550012 143.1374997  70.7039988 112.9130849 142.0609188  70.7728065
 114.1123329 143.2909937  70.4969477 112.7170012 143.7904997  72.0729988
 113.2774278 143.3026825  72.8690248 113.0058841 144.8376411  72.0919577
 111.1640012 143.6864997  72.3849988 110.8726355 144.3837675  73.1618537
 110.5812039 143.9488659  71.5030366 110.8360012 142.2754997  72.7739988
 110.5574940 141.6072555  71.9731008 110.8680012 141.7634997  74.0139988
 110.5897387 140.7451894  74.2447025 111.3160012 142.5894997  75.2439988
 111.4944793 143.6257884  74.9620906 110.5859522 142.6143371  76.0453056
 112.6710012 141.9844997  75.7869988 113.4192276 141.9122826  74.9985529
 113.0999794 142.6261542  76.5542772 112.4130012 140.5804997  76.3839988
 111.5134644 140.5997334  76.9992797 112.2235964 139.8616404  75.5916155
 113.5930012 140.1044997  77.2319988 113.4666879 139.0550448  77.4885812
 114.5205032 140.1697788  76.6658155 113.7200012 140.9404997  78.5039988
 114.7280684 140.8590124  78.9061807 113.5695580 141.9954643  78.2917691
 112.7510012 140.4834997  79.5779988 112.0444048 139.7752257  79.1491018
 113.2977396 139.9375573  80.3447177 111.9400012 141.6414997  80.2719988
 111.3198647 142.1569939  79.5428819 111.2497793 141.1924609  80.9828229
 112.8380012 142.6904997  81.0319988 112.2233270 143.4118394  81.5620117
 113.4770383 143.2447513  80.3528981 113.4773600 142.2013943  81.7614762
 146.9790012  23.5254997  80.8209988 147.7743884  22.9981406  81.3383774
 146.5845931  22.8624651  80.0563960 146.1838910  23.7100666  81.5381785
 147.4860012  24.8374997  80.2099988 148.2920276  24.6407224  79.5051562
 147.9065388  25.4726494  80.9849484 146.3420012  25.5764997  79.4799988
 145.6626606  25.9820697  80.2296243 145.7704745  24.8348411  78.9254983
 146.7450012  26.6674997  78.5369988 147.3774731  26.2046525  77.7826767
 147.3871283  27.3504285  79.0910628 145.6000012  27.4984997  77.8019988
 146.0259778  28.4361218  77.4541746 144.8532070  27.7608948  78.5495363
 144.9300012  26.8164997  76.6549988 144.6127626  25.8081799  76.9147445
 145.5957097  26.7152633  75.8005046 143.6590012  27.6744997  76.2309988
 143.8365974  28.6956408  76.5634148 142.8156319  27.3070706  76.8140547
 143.2860012  27.6844997  74.7659988 142.4742643  28.3906502  74.5960409
 142.9052076  26.7076503  74.4736880 144.4710012  28.0524997  73.8699988
 145.1908597  27.2390303  73.9301020 144.9574494  28.9215074  74.3113270
 144.1510012  28.3464997  72.3809988 143.5106303  29.2252289  72.4135405
 143.5165189  27.5178846  72.0675369 145.2670012  28.5474997  71.3449988
 145.9760073  29.2796656  71.7255040 144.8508138  28.9747754  70.4343114
 146.0520012  27.2384997  70.9899988 145.3058168  26.4493281  70.9386557
 146.6662214  27.0197934  71.8615325 146.9520012  27.2044997  69.7289988
 147.1007752  26.1654931  69.4398905 147.9364581  27.5984231  69.9655211
 146.3830012  27.9664997  68.5009988 145.9936956  28.9096105  68.8702251
 145.5295916  27.3848684  68.1626364 147.2920012  28.2324997  67.3079988
 147.7189627  27.3069749  66.9431033 148.0977885  28.9002201  67.5889350
 147.5100012  26.9934997  66.3809988 147.6940012  27.1144997  65.1949988
 147.3810012  25.9134997  67.1049988 147.6820012  24.6384997  66.5079988
 148.7178973  24.4446360  66.7420885 147.5822680  24.7855134  65.4423383
 146.7820012  23.4494997  66.9979988 147.2587022  22.5282475  66.7065463
 145.3410012  23.5304997  66.3649988 144.6278821  23.0337094  67.0087857
 145.3642213  23.0172390  65.4117888 144.9890012  24.8694997  66.1879988
 143.6000012  25.1584997  65.4419988 143.9900012  24.5794997  64.0789988
 145.0130012  25.1784997  63.1819988 145.9265934  24.6003879  63.1337805
 145.2923363  26.1670877  63.5347913 144.4170012  25.4054997  61.7559988
 143.9910292  24.4633546  61.4348143 145.2152174  25.6743851  61.0792946
 143.3380012  26.4334997  61.5509988 143.0430012  26.7274997  60.1459988
 143.9708199  26.9524552  59.6381785 142.3933281  27.5895204  60.1152544
 142.5396013  25.8784564  59.7084703 142.0380012  26.0334997  62.1789988
 142.2270335  25.7378025  63.1995594 141.6060279  25.2295892  61.6102308
 141.3894930  26.8973681  62.1574229 143.8470012  27.6934997  62.2319988
 144.0349350  27.4831734  63.2743642 143.1000205  28.4685020  62.1480870
 144.7598442  28.0182750  61.7538005 142.5260012  24.3304997  66.0079988
 143.4130012  26.6464997  65.4179988 146.6100012  23.4844997  68.4289988
 146.1470012  22.3774997  69.0349988 145.8950012  21.2884997  68.4719988
 146.0020012  22.7864997  70.4909988 145.6140288  23.7989471  70.5355021
 145.2678949  22.1641852  70.9966861 147.3680012  22.6704997  71.1529988
 147.7225949  21.6542789  71.0202600 148.0697419  23.3050909  70.6211277
 147.3830012  23.0284997  72.7009988 148.3911159  22.8898199  73.0832638
 147.1649042  24.0891170  72.7989254 146.3690012  22.2314997  73.5699988
 145.3880941  22.2902609  73.1019449 146.6344219  21.1772584  73.5881428
 146.2420012  22.7524997  75.0599988 147.2111780  23.0930562  75.4186329
 145.5891839  23.6230537  75.0786095 145.6820012  21.6974997  76.0279988
 146.4082685  20.8877157  75.9781323 145.7841280  22.1405712  77.0146982
 144.2470012  21.1104997  75.8919988 144.1809044  20.5842707  74.9468563
 144.1180110  20.3598866  76.6706435 143.1340012  22.1464997  76.0239988
 143.3739918  23.1605023  75.7415858 141.8560012  21.9044997  76.4549988
 141.1456149  22.7171193  76.5060930 141.2940012  20.5644997  76.8849988
 140.2091787  20.6548741  76.8996188 141.5251733  19.8018543  76.1497353
 141.7480012  20.1004997  78.2489988 141.6429856  19.0228483  78.3687667
 142.8010067  20.3224559  78.4113990 140.9000012  20.8274997  79.3299988
 140.4885193  21.7355619  78.8893032 140.0493745  20.2023853  79.5872346
 141.6500012  21.1794997  80.5689988 142.5249803  21.7733396  80.3142232
 141.0376432  21.8029805  81.2181323 142.0880012  19.8864997  81.3539988
 141.2413497  19.2027281  81.3389098 142.8708435  19.4022656  80.7766772
 142.5220012  20.0454997  82.7669988 141.8907126  20.7371951  83.3218999
 142.4957662  19.1060683  83.3161931 143.9530012  20.5754997  82.7829988
 144.5580112  19.8377668  82.2618192 143.9261839  21.4480850  82.1340083
 144.6420012  20.9624997  84.1029988 145.6181679  21.3991889  83.9146639
 144.7891450  20.1045701  84.7503368 144.0533025  21.6924707  84.6513756
  17.3490012 136.9014997  80.0169988  16.6670723 137.0156599  80.8538795
  17.7119086 137.8893492  79.7482208  18.2004180 136.3208821  80.3613599
  16.6460012 136.2044997  78.7999988  15.7802654 136.8155976  78.5504714
  16.2563712 135.2617753  79.1745296  17.4950012 135.9604997  77.5049988
  18.3192143 135.2841631  77.7312079  17.9514836 136.9005729  77.2015896
  16.7210012 135.4224997  76.3599988  17.3942343 135.3417210  75.5094214
  15.9637897 136.1520124  76.0768946  16.0490012 134.0504997  76.5899988
  15.1399883 134.0067648  75.9955613  15.7353274 134.0059502  77.6316269
  16.8690012 132.8854997  76.2849988  16.3098111 131.9828551  76.5244905
  17.7423926 132.8833036  76.9336586  17.3480012 132.8224997  74.7499988
  18.0857677 132.0228659  74.7174961  17.8965171 133.7493163  74.5876065
  16.3610012 132.6304997  73.6379988  15.7588999 131.7602058  73.8959011
  16.9301266 132.3546085  72.7521860  15.4510012 133.7824997  73.3039988
  16.0227465 134.6976383  73.4424530  14.6619399 133.8010614  74.0547416
  14.8050012 133.7844997  71.8739988  13.9813254 133.0739674  71.8729807
  15.5381364 133.4029297  71.1638255  14.3160012 135.1514997  71.4039988
  15.1295238 135.8660331  71.2983392  13.5999172 135.6074541  72.0855098
  13.6460012 134.9584997  70.0059988  12.7819994 134.3070886  70.1126929
  14.3433185 134.4343189  69.3551125  13.2300012 136.2924997  69.3179988
  12.4835952 136.7420856  69.9706875  12.7125382 136.0301912  68.3994672
  14.2750012 137.3414997  69.0129988  15.2373834 136.9094052  68.7591094
  14.4386833 137.9944806  69.8661787  13.7910012 138.1674997  67.8689988
  12.8151574 138.5823813  68.0872721  13.7196715 137.5644512  66.9716061
  14.9290012 139.0284997  67.3549988  15.9630012 139.1464997  67.9529988
  14.7040012 139.6044997  66.1139988  15.6790012 140.6414997  65.6299988
  16.1562557 140.9933105  66.5321735  15.1372694 141.4582670  65.1754553
  16.7760012 140.0424997  64.6159988  17.4270347 140.8336077  64.2825362
  16.0180012 139.3974997  63.3629988  15.3305173 140.1438725  62.9887068
  15.4466622 138.5715462  63.7679155  16.8880012 138.9374997  62.3069988
  17.7000012 137.5314997  62.4239988  16.8720012 136.5674997  63.4019988
  15.7220012 136.0384997  62.7849988  15.9895421 135.4291529  61.9315895
  15.1256250 136.8611976  62.4012012  14.7880012 135.2734997  63.7389988
  14.0730016 134.7834072  63.0902816  14.2500792 135.8797229  64.4534988
  15.4470012 134.1594997  64.5469988  16.3350012 133.2184997  63.8089988
  15.8004258 132.8435779  62.9470261  16.5770786 132.4003723  64.4709399
  17.2392865 133.7372857  63.5282035  16.2800012 134.8174997  65.6799988
  15.6557513 135.5328048  66.1931894  17.1463517 135.2882018  65.2507597
  16.5790401 134.0320809  66.3589612  14.3460012 133.3944997  65.2879988
  13.8035671 134.0786542  65.9234355  14.7962317 132.6202324  65.8908690
  13.6719166 132.9481542  64.5711859  17.8690012 137.0444997  61.0459988
  18.8860012 137.9184997  63.1539988  17.5750012 139.0834997  65.2899988
  18.4000012 139.4644997  66.2459988  18.6290012 140.6014997  66.6279988
  19.0380012 138.2404997  66.7409988  18.2806209 137.4780568  66.8913616
  19.7284269 137.8331364  66.0066456  19.7810012 138.6014997  68.0759988
  20.5475781 139.3364899  67.8564305  19.0848519 139.0868963  68.7526075
  20.4190012 137.4084997  68.7619988  21.2215539 137.0757376  68.1086746
  20.8987461 137.8096956  69.6513533  19.5400012 136.2064997  69.1759988
  18.9494342 135.8835294  68.3206469  20.1549399 135.3557670  69.4593826
  18.6010012 136.5244997  70.3059988  17.9561351 137.3616064  70.0465742
  17.9409305 135.6782499  70.4864126  19.3500012 136.8434997  71.5979988
  20.2654250 136.2612613  71.6912653  19.6414874 137.8873220  71.6740817
  18.4590012 136.5244997  72.7119988  18.0689816 135.5217110  72.5820773
  19.0426463 136.5098540  73.6315040  17.3190012 137.5474997  72.8689988
  16.4795940 137.4651006  72.1950848  17.2730012 138.5534997  73.8079988
  16.4295046 139.2264205  73.8654542  18.3380012 138.8224997  74.8229988
  18.4311433 137.9417599  75.4561204  19.3041275 138.9601578  74.3504196
  18.0280012 140.0494997  75.7359988  18.9347017 140.3486128  76.2605275
  17.7495074 140.8927173  75.1068054  16.8650012 139.7784997  76.7949988
  15.9652938 139.5277849  76.2330595  17.1289155 138.8879875  77.3587730
  16.5620012 140.8844997  77.7329988  17.4954990 141.0875558  78.2530901
  16.3621438 141.7577524  77.1144749  15.4370012 140.7144997  78.7359988
  15.4253187 139.7246956  79.1884824  15.4786979 141.4182761  79.5627908
  14.1490012 140.8904997  77.9729988  14.1145848 141.8878259  77.5382127
  14.1252778 140.1953108  77.1357511  12.9190012 140.6874997  78.7909988
  12.0499945 140.9083680  78.1762146  12.8626409 139.6238424  79.0118377
  12.8240012 141.4794997  80.1239988  11.9361828 141.1934105  80.6798769
  12.7718557 142.5500414  79.9567799  13.6864079 141.2858412  80.7555777
   6.7780012 130.3254997  82.6619988   6.2461430 129.6562785  83.3311019
   7.6076083 129.7725804  82.2309277   6.1026285 130.5890492  81.8526623
   7.2630012 131.5614997  83.3909988   7.8983101 131.2337060  84.2120571
   6.3951513 132.0316306  83.8455618   8.0140012 132.5614997  82.5529988
   7.9246335 133.5332919  83.0383464   7.4831345 132.6474323  81.6069717
   9.4730012 132.2814997  82.2609988   9.5503015 131.3139531  81.7699506
  10.0195362 132.1884235  83.1981979  10.1580012 133.3414997  81.3729988
  11.2368214 133.3127319  81.5029693   9.8403469 134.3381000  81.6750726
   9.8290012 133.1334997  79.8819988   8.7554612 133.2349183  79.7335294
  10.0805222 132.1141819  79.5968578  10.5620012 134.1114997  78.9589988
  10.0857988 135.0858016  79.0524710  10.4003707 133.7912671  77.9306230
  12.0980012 134.2604997  79.2179988  12.2869380 134.4712564  80.2698236
  12.4975435 135.1066075  78.6619849  12.8540012 132.9864997  78.8129988
  12.4122139 132.1611836  79.3672717  13.8743830 133.0873612  79.1807280
  12.8870012 132.6314997  77.2999988  12.9665696 133.5431084  76.7118344
  11.9482060 132.1612080  77.0085913  14.0280012 131.7044997  76.9709988
  13.8538785 130.6996098  77.3497053  14.9720105 132.0311723  77.4037335
  14.1730012 131.6264997  75.4159988  15.1563067 131.1894300  75.2601167
  14.2497039 132.6664344  75.1040335  13.1590012 130.9394997  74.5489988
  12.2416293 131.5205404  74.4710722  12.8687789 129.9612870  74.9220203
  13.7380012 130.7854997  73.1479988  13.3842489 129.8689635  72.6873841
  14.8201559 130.7081519  73.2116426  13.3760012 132.0064997  72.2179988
  13.6904831 132.9365944  72.6741413  12.3067446 132.0469676  72.0473478
  13.5530012 131.6094997  70.6789988  14.0580012 130.5344997  70.3179988
  12.8910012 132.4814997  69.8609988  12.6120012 132.0414997  68.5399988
  13.5785834 131.7142082  68.1877758  12.2850456 132.8816085  67.9445920
  11.5970012 130.8844997  68.4659988  11.9615203 130.0426759  69.0311117
  11.2830012 130.4414997  66.9889988  10.8280623 129.4603494  67.0022594
  12.2278288 130.3787521  66.4636907  10.4140012 131.3904997  66.3459988
   9.1650012 130.8934997  65.4979988   9.9890012 129.9994997  64.3909988
  10.8870012 130.6034997  63.4899988  11.6000576 129.8903027  63.0974562
  11.4644601 131.3604163  64.0128901  10.1820012 131.3454997  62.3659988
  10.9713667 131.6655309  61.6976194   9.6876434 132.2201318  62.7634985
   9.1480012 130.6434997  61.4829988   7.7150012 130.6844997  61.9139988
   7.6549506 130.3612945  62.9441766   7.1587039 130.0042269  61.2864143
   7.3384088 131.6879606  61.7837631   9.3090012 131.2224997  60.0989988
  10.3539602 131.1861207  59.8316954   8.9369777 132.2314363  60.0950768
   8.7318188 130.6085460  59.4228195   9.5470012 129.1664997  61.3659988
  10.5397168 129.0984944  60.9465075   8.8456921 128.6597135  60.7202563
   9.5314015 128.7100442  62.3452025   8.3680012 129.9974997  66.3219988
   8.4580012 132.0724997  64.9069988  10.4730012 131.3704997  69.1409988
   9.8100012 130.4904997  69.8669988   9.9470012 129.2724997  70.0209988
   8.7890012 131.3354997  70.5409988   8.2086360 131.8000875  69.7505005
   8.1010114 130.6800448  71.0691617   9.4240012 132.4134997  71.5259988
   9.6717828 131.8432783  72.4145441  10.3705822 132.6780297  71.0655195
   8.6650012 133.6974997  71.9429988   9.1862804 134.1472422  72.7842203
   8.7467530 134.4056101  71.1220474   7.1790012 133.5114997  72.2829988
   6.6864374 134.4515620  72.0414005   6.7679594 132.7694423  71.6028535
   6.7960012 133.1164997  73.7579988   7.5486860 133.4878353  74.4504411
   5.8648909 133.6101934  74.0294416   6.6250012 131.6044997  73.9549988
   6.0309610 131.2211073  73.1268517   7.5961798 131.1226664  73.8845234
   5.9750012 131.1994997  75.2699988   4.9602962 131.5790350  75.2398871
   5.8970610 130.1133669  75.2457731   6.6710012 131.6054997  76.5489988
   6.0492108 132.1880158  77.2120265   7.9100012 131.3364997  76.9589988
   8.3073773 131.6180266  77.9235944   8.9020012 130.5784997  76.0719988
   8.2995339 129.8843328  75.4885721   9.3303883 131.2784094  75.3632733
  10.0460012 129.7724997  76.7599988  10.6814987 129.3316981  75.9928339
  10.6746577 130.4695044  77.3108476   9.5500012 128.6594997  77.7249988
   9.0896256 129.1320874  78.5926520   8.7639565 128.0903055  77.2364746
  10.6630012 127.6974997  78.1999988  10.1689423 126.8979419  78.7475006
  11.0911589 127.2379763  77.3108395  11.8060012 128.3054997  79.0639988
  12.4835130 127.5133946  79.3772673  12.4040818 128.9888427  78.4673693
  11.2990012 129.0134997  80.3189988  10.9892238 130.0354547  80.1079801
  10.4263441 128.5135058  80.7353038  12.4080012 129.0484997  81.4009988
  11.9226024 129.0118026  82.3730874  12.9451421 128.1076821  81.3027396
  13.4170012 130.1934997  81.3799988  14.1838066 130.0453907  82.1344138
  12.9475722 131.1513225  81.5773634  13.9111266 130.2608753  80.4148866
 123.9020012 136.7694997  85.3299988 123.1224304 136.8590191  86.0801219
 123.7800443 137.5877501  84.6261645 124.8577288 136.9046507  85.8289285
 123.8390012 135.4324997  84.6299988 122.8378532 135.3578491  84.2088895
 123.8960623 134.6842620  85.4159367 124.8890012 135.1224997  83.5159988
 124.7265787 134.1071359  83.1546343 125.8765656 135.1251019  83.9730335
 124.9020012 136.0664997  82.3499988 124.9782645 137.0918009  82.7052329
 123.9662396 136.0081481  81.7962377 126.0820012 135.7864997  81.3919988
 126.9689227 135.4483361  81.9217049 126.3735552 136.6848322  80.8503717
 125.6470012 134.6724997  80.3579988 124.8664051 135.1012339  79.7321603
 125.1767853 133.8719017  80.9250234 126.7500012 134.0794997  79.4609988
 127.3670615 133.3827951  80.0254535 127.4194573 134.8639386  79.1106932
 126.1580012 133.3714997  78.2809988 126.9538805 132.9045476  77.7022218
 125.6875828 134.0974276  77.6203784 125.0840012 132.2604997  78.6929988
 124.1265187 132.7370834  78.8920874 125.3882632 131.7889045  79.6265937
 124.8980012 131.1644997  77.5999988 124.1922373 130.4609684  78.0361640
 125.8562625 130.6475949  77.5555719 124.4700012 131.5254997  76.2139988
 125.0987883 132.3128151  75.8037523 123.4515439 131.9093570  76.1910564
 124.5740012 130.2474997  75.2569988 123.7774931 129.5456748  75.4920217
 125.5079289 129.7246391  75.4546497 124.5240012 130.6434997  73.6809988
 124.6765304 129.7254381  73.1160652 125.3747391 131.2818557  73.4595927
 123.2710012 131.3004997  73.1689988 123.0327341 132.1524598  73.7972803
 122.4528450 130.5930438  73.2749172 123.3370012 131.7594997  71.6929988
 123.6065779 130.9311161  71.0502312 124.0734940 132.5454104  71.5747131
 122.1500012 132.5564997  71.2689988 121.1260012 132.6634997  71.9319988
 122.3020012 133.0174997  70.0919988 121.1930012 133.8264997  69.4809988
 120.6105721 134.2152921  70.3026306 120.5944138 133.1168968  68.9284149
 121.6550012 134.9494997  68.5919988 120.7657753 135.5004008  68.3337752
 122.2970012 134.4134997  67.3549988 121.5763076 133.8057483  66.8248666
 123.1164117 133.7813253  67.6736003 122.7810012 135.4744997  66.5089988
 123.7360012 135.1274997  65.3329988 122.6700012 134.7184997  64.2579988
 121.5720012 135.5234997  63.9269988 121.0564101 135.8849499  64.8071740
 120.8499872 134.9369765  63.3662105 121.9660012 136.7114997  62.9759988
 122.8617527 137.1354867  63.4120185 121.1907041 137.4640219  62.9746546
 122.2990012 136.4534997  61.5169988 122.4560012 137.7464997  60.7649988
 121.5879044 138.3631102  60.9535020 122.5155375 137.5144543  59.7120456
 123.3688950 138.2278439  61.0822519 123.6610012 135.7624997  61.5439988
 123.6176042 134.9469054  62.2494324 124.4133798 136.4801450  61.8183738
 123.8506503 135.3833651  60.5502246 121.1940012 135.5844997  60.8709988
 121.1105441 134.6544291  61.4132954 121.4571581 135.3821118  59.8436538
 120.2527105 136.1138698  60.9052645 124.3160012 136.3794997  64.7819988
 124.7220012 134.1144997  65.6999988 122.6690012 135.8254997  69.1729988
 122.3530012 136.4424997  70.2729988 121.2720012 136.5564997  70.7599988
 123.7470012 136.6344997  70.9549988 124.1560120 135.6372925  71.0808601
 124.3986706 137.1356446  70.2436004 123.6860012 137.3904997  72.2639988
 123.3766879 138.4117003  72.0702581 122.9200432 136.9607897  72.9017219
 125.0160012 137.4044997  72.9939988 125.7896552 137.7839409  72.3313240
 124.9486890 138.1113067  73.8173807 125.4310012 136.0284997  73.5589988
 125.7081191 135.4260825  72.6958619 126.3432888 136.1767527  74.1316717
 124.4620012 135.2454997  74.3879988 123.6768155 134.8596121  73.7411021
 124.9827718 134.3758517  74.7840941 123.8250012 136.0154997  75.5619988
 124.5998346 136.3048895  76.2702273 123.3687555 136.9376485  75.2130012
 122.7240012 135.1574997  76.3119988 123.1777520 134.1957297  76.5210172
 122.5725693 135.6411995  77.2760780 121.3720012 134.9904997  75.6339988
 121.2870509 135.4378619  74.6551195 120.3040012 134.3524997  76.1029988
 119.3986633 134.2817928  75.5173590 120.2230012 133.6814997  77.4289988
 119.7577859 132.7037223  77.3160954 121.1962445 133.5051080  77.8732559
 119.3710012 134.5074997  78.3869988 119.8182758 135.4893303  78.5375278
 118.3926667 134.6846127  77.9443345 119.1860012 133.7874997  79.7929988
 118.3870502 134.3025542  80.3263872 118.8285270 132.7775229  79.6122689
 120.4440012 133.7354997  80.6879988 120.1304857 133.2830987  81.6261813
 121.1308602 133.0295532  80.2243726 121.1750012 135.0404997  80.9599988
 121.8793693 134.8619411  81.7702903 121.7790061 135.2803745  80.0892157
 120.3030012 136.2524997  81.3479988 119.6541063 136.6107138  80.5508156
 119.6577368 136.0787794  82.2072363 121.2760012 137.3404997  81.6959988
 121.8626599 137.0641423  82.5685657 121.9881290 137.4385510  80.8795596
 120.5970012 138.7344997  81.9429988 121.3453739 139.5046447  82.1038837
 119.9508442 138.7221227  82.8142444 119.9943747 139.0320138  81.0894955
  24.3770012 139.1504997  82.4989988  23.9725603 138.8303051  83.4541595
  23.5421015 139.3135043  81.8236011  24.8677551 140.1077441  82.6521514
  25.3590012 138.1094997  81.9299988  24.8401546 137.1587951  81.8197170
  26.1484776 137.9436540  82.6580346  25.9810012 138.5254997  80.5399988
  26.5785151 137.6894010  80.1768940  26.6815463 139.3363375  80.7296024
  24.9680012 138.9884997  79.3909988  24.0131574 138.4896612  79.5416096
  25.3338873 138.6528854  78.4218773  24.7290012 140.4994997  79.3469988
  24.5587752 140.8271344  80.3693742  23.7881781 140.6452362  78.8188152
  25.8050012 141.3854997  78.7149988  26.7817260 141.0464681  79.0554148
  25.6878124 142.4002473  79.0893397  25.7820012 141.4064997  77.1749988
  25.7353230 140.4069017  76.7467522  26.6688005 141.8772421  76.7528394
  24.5370012 142.1984997  76.7499988  24.4879119 143.1082420  77.3469997
  23.6537096 141.6173867  77.0084321  24.4800012 142.5814997  75.2009988
  24.3627182 141.6649003  74.6268634  25.4457376 142.9968824  74.9157142
  23.3650012 143.5734997  74.8129988  23.7643172 144.2442432  74.0554047
  23.1436676 144.1921424  75.6823213  22.0940012 142.9404997  74.3209988
  21.6039308 142.5456602  75.2083960  22.3965768 142.0758078  73.7328798
  21.0690012 143.7584997  73.5269988  20.5504786 144.4484805  74.1882701
  20.3072753 143.0941767  73.1231193  21.7520012 144.5674997  72.3019988
  22.3920148 145.3527179  72.7008307  20.9985557 145.0662072  71.6987701
  22.6350012 143.6464997  71.3669988  22.1517039 142.7303174  71.0439216
  23.5830492 143.3608666  71.8150062  22.9140012 144.5104997  70.1639988
  23.3667792 145.4462577  70.4663065  21.9947623 144.7248717  69.6319146
  23.9320012 143.9704997  69.2089988  25.0590012 144.4234997  69.0279988
  23.4770012 142.8304997  68.6169988  24.4930012 142.1694997  67.7859988
  25.2941409 141.9729463  68.4824210  24.8647094 142.7951377  66.9874989
  23.9240012 140.8334997  67.2279988  24.7611951 140.3101198  66.7966359
  22.8550012 141.0624997  66.1679988  23.2758331 141.7187103  65.4182728
  22.0492559 141.5822824  66.6711742  22.3830012 139.8864997  65.5789988
  22.8030012 139.1994997  64.2559988  23.5140012 140.3324997  63.3739988
  22.6650012 141.3254997  62.8379988  21.6486419 141.1908228  63.1845026
  22.6395672 141.2135208  61.7579012  23.1670012 142.8294997  63.0939988
  23.0195310 143.0999247  64.1319640  22.6186659 143.5231925  62.4731158
  24.6650012 143.0884997  62.7999988  25.5580012 142.2764997  63.6909988
  25.2506656 142.4263471  64.7168762  26.5700432 142.6293877  63.5593136
  25.4949970 141.2390225  63.3987854  24.9270012 142.7574997  61.2949988
  24.1849494 143.2653161  60.6981774  24.8810478 141.6920733  61.1567058
  25.9135180 143.1240446  61.0506090  25.0210012 144.5244997  63.0319988
  24.4069770 145.1495265  62.4008111  26.0618851 144.6757119  62.7883894
  24.8527586 144.7746944  64.0695594  23.7820012 138.1444997  64.5849988
  21.5250012 138.7624997  63.6369988  23.4330012 140.0244997  68.3409988
  24.3070012 139.3924997  69.1749988  25.5000012 139.5454997  69.0769988
  23.5070012 138.4014997  70.0129988  22.9481169 137.7642103  69.3354564
  24.1828727 137.7422249  70.5519435  22.5430012 139.1944997  71.0249988
  23.1125505 139.9650760  71.5328242  21.7667743 139.7116524  70.4699692
  21.9160012 138.2814997  72.0559988  21.9349847 137.2783732  71.6376317
  22.6021596 138.2712694  72.8992940  20.5280012 138.6044997  72.5669988
  20.4462866 139.6693529  72.7770375  19.7634413 138.3811671  71.8268821
  20.2120012 137.8344997  73.8519988  19.1350873 137.7161386  73.9527367
  20.6206754 136.8293191  73.7684625  20.7640012 138.4774997  75.1009988
  21.8233391 138.6599797  74.9272026  20.2997870 139.4529461  75.2164434
  20.5930012 137.6974997  76.4039988  19.5572390 137.7638875  76.7160395
  20.7842684 136.6453103  76.1974548  21.5340012 138.1554997  77.5169988
  22.5756035 137.9708637  77.3012951  21.2470012 138.7514997  78.6889988
  22.0647334 138.9666800  79.3617702  19.8850012 139.1814997  79.2109988
  19.2159091 138.3228736  79.1937318  19.9309174 139.5098219  80.2433636
  19.2590012 140.3014997  78.3419988  19.6227777 140.2214358  77.3182989
  18.1815657 140.1558634  78.2931930  19.5580012 141.7264997  78.8889988
  19.0393355 142.4755015  78.2905932  19.1833827 141.8353500  79.9030582
  21.0580012 142.0154997  78.8669988  21.5798024 141.3339405  79.5350898
  21.4677973 141.8410826  77.8736555  21.3340012 143.4674997  79.2799988
  21.8380332 144.0071531  78.4804264  20.4134100 144.0120969  79.4711813
  22.2440012 143.5104997  80.5299988  23.2495063 143.2153340  80.2355168
  22.3184518 144.5438203  80.8639743  21.8230012 142.6694997  81.6859988
  20.7465662 142.7013805  81.8349497  22.0628272 141.6282328  81.4821366
  22.5080012 143.0804997  82.9389988  22.2600896 142.4058585  83.7529202
  22.2230661 144.0806574  83.2476045  23.5873015 143.0680481  82.8161303
   4.7870012 124.5814997  82.4209988   5.7729231 124.2975381  82.7756152
   4.1492713 124.7184256  83.2895274   4.8786851 125.5440793  81.9253714
   4.2360012 123.5704997  81.5119988   4.1841829 122.6145968  82.0304267
   4.9245760 123.4311281  80.6829907   2.8300012 123.9374997  80.9799988
   2.2249176 124.3415308  81.7915170   2.3276867 123.0291472  80.6532771
   2.8420012 124.9754997  79.7639988   3.8079380 125.4757115  79.7619675
   2.1019596 125.7498212  79.9601382   2.5940012 124.3734997  78.3609988
   1.9914306 123.4754205  78.4702492   3.5546570 124.0503651  77.9633942
   1.9150012 125.3084997  77.3479988   2.2333340 125.0202662  76.3477975
   2.2888546 126.3176977  77.5071529   0.4030012 125.3214997  77.4069988
   0.0948488 125.1735459  78.4404018   0.0267462 124.4635387  76.8515123
  -0.2429988 126.5944997  76.8659988   0.2272227 127.4648901  77.3218093
  -1.2907378 126.6267489  77.1590636  -0.1429988 126.7044997  75.3609988
   0.8818732 126.4839014  75.0702846  -0.3210575 127.7422215  75.0817041
  -1.1079988 125.7904997  74.5699988  -2.1006307 126.2320298  74.6250626
  -1.1694184 124.8354460  75.0910833  -0.7269988 125.5434997  73.1149988
  -0.5700098 126.4937216  72.6090603  -1.5400071 125.0498577  72.5854110
   0.5300012 124.7184997  72.9779988   0.3873860 123.7039385  73.3420668
   1.3427635 125.1409442  73.5659000   0.9600012 124.6954997  71.4759988
   0.0967581 124.4319385  70.8672304   1.7003803 123.9187245  71.3064903
   1.4950012 125.9944997  70.9769988   2.3277476 126.3569896  71.5706986
   0.7325161 126.7685929  70.9990935   1.9390012 125.8104997  69.5769988
   1.1319570 125.4170250  68.9721033   2.7741161 125.1214805  69.5333565
   2.3850012 127.1174997  69.0539988   2.9270012 127.9544997  69.7469988
   2.1260012 127.3474997  67.7369988   2.5220012 128.6024997  67.1559988
   2.6107663 129.3372513  67.9419522   1.7511858 128.9144816  66.4662866
   3.8700012 128.4284997  66.4339988   4.1694988 129.3429094  65.9491792
   3.7450012 127.3054997  65.3969988   4.5230061 127.4421190  64.6581859
   2.7835475 127.4399994  64.9173097   3.8350012 125.9694997  65.9959988
   3.8190012 124.7364997  64.9029988   2.7910012 125.3134997  63.8469988
   1.3500012 125.3794997  64.2369988   1.1825287 126.2338928  64.8797696
   1.1255977 124.4983704  64.8311800   0.3460012 125.3534997  63.0869988
  -0.5958543 125.6644441  63.5211310   0.2281522 124.3612900  62.6758922
   0.5770012 126.2724997  61.8989988   0.7980012 127.7424997  62.1909988
   0.0003028 128.0907525  62.8326617   0.7694886 128.2765228  61.2528590
   1.7675411 127.8668548  62.6495236   1.8040012 125.6104997  61.1969988
   1.6003654 124.5581363  61.0713891   2.6813921 125.7723579  61.7972963
   1.9183981 126.0836377  60.2324518  -0.6689988 126.0684997  61.0079988
  -0.7446904 125.0262736  60.7357532  -0.5696841 126.6692029  60.1164035
  -1.5534758 126.3702842  61.5502732   5.1230012 124.6364997  64.2509988
   3.2730012 123.5874997  65.5649988   4.8700012 128.0524997  67.3899988
   6.0780012 127.9844997  67.0649988   6.5440012 128.3604997  65.9969988
   6.8210012 127.1614997  68.1179988   7.7948447 126.9568373  67.6852227
   7.0041494 127.8165546  68.9660947   6.0880012 125.8434997  68.5679988
   5.1603652 126.1360328  69.0475578   5.8044155 125.2953885  67.6751459
   6.8610012 124.9434997  69.4969988   6.3960548 123.9618614  69.5401865
   7.8582969 124.7890247  69.0925192   6.9910012 125.5254997  70.9079988
   7.5634496 124.8155205  71.5020849   7.5864847 126.4341254  70.8632708
   5.6990012 125.8234997  71.6369988   5.1025533 126.5462098  71.0839698
   5.0956285 124.9202055  71.7031952   5.9580012 126.3664997  73.0989988
   6.4361193 125.5919897  73.6966930   6.6452908 127.2076998  73.0807422
   4.5890012 126.8324997  73.8239988   3.8946871 126.0007650  73.7970648
   4.8169521 127.0078503  74.8745398   3.9690012 128.0724997  73.2549988
   4.1238461 128.2866048  72.2082247   3.2350012 128.9184997  73.9349988
   2.8594108 129.8111488  73.4557083   2.8280012 128.7794997  75.3889988
   1.7900549 129.0873538  75.5035170   2.8813121 127.7551156  75.7403907
   3.6860012 129.6624997  76.2769988   4.7491595 129.4538491  76.1635780
   3.5566944 130.7164553  76.0384274   3.2610012 129.4154997  77.7629988
   2.2053063 129.6511704  77.8974411   3.3742584 128.3676939  78.0271578
   4.0800012 130.2594997  78.6999988   5.1063039 130.1976958  78.3449945
   3.7671916 131.2911093  78.5482860   4.0250012 129.9404997  80.1449988
   4.3025296 128.8920493  80.2362115   4.8252946 130.5016807  80.6195842
   2.6780012 130.1544997  80.9299988   2.0983786 130.9246607  80.4242590
   2.0898303 129.2410729  80.8626151   2.8160012 130.5474997  82.4449988
   3.0570476 131.6064643  82.4940451   1.8189225 130.4510130  82.8690712
   3.8150012 129.7474997  83.3299988   3.7473894 130.0610170  84.3674015
   4.8424715 129.8914459  83.0132573   3.6041223 128.6825027  83.2918854
  31.7960012   4.4814997  85.4709988  31.9494366   4.1400036  86.4899526
  30.9436322   5.1547426  85.4720335  32.6700074   5.0580261  85.1805813
  31.5750012   3.3244997  84.5339988  30.7167281   2.7640032  84.9006240
  32.4333457   2.6648995  84.6287943  31.3470012   3.6894997  83.0509988
  32.2595385   4.0355800  82.5657843  30.6253812   4.4972718  82.9464056
  30.8130012   2.4614997  82.3059988  29.9091088   2.1538912  82.8271568
  31.5334587   1.6582178  82.4522360  30.4800012   2.6004997  80.7349988
  31.3552090   2.9663345  80.2041983  29.7055381   3.3542933  80.6032145
  30.0180012   1.2764997  80.0859988  29.0376554   1.0237469  80.4858177
  30.6910072   0.4844821  80.4074768  29.9520012   1.2924997  78.5659988
  29.5269306   0.3744490  78.1644168  30.9375915   1.3946452  78.1138838
  29.0460012   2.5234997  78.1319988  29.6438169   3.4327379  78.1805080
  28.2469304   2.6459368  78.8608191  28.4420012   2.3944997  76.7439988
  27.6939961   3.1774353  76.6389218  27.9000156   1.4502486  76.7090923
  29.4120012   2.4614997  75.5689988  30.2315022   1.7600359  75.7092335
  29.8651738   3.4498748  75.4970399  28.6570012   2.1434997  74.2349988
  27.8688515   2.8795991  74.0917550  28.1585392   1.1792029  74.3174337
  29.5430012   2.1454997  73.0019988  28.9418890   1.9657293  72.1139865
  30.2497451   1.3199821  73.0628574  30.3570012   3.4994997  72.8459988
  31.0926287   3.5525121  73.6468070  29.6933708   4.3482127  72.9858380
  31.1050012   3.6594997  71.4989988  31.7823197   4.5069950  71.4806627
  30.4198691   3.7863699  70.6649783  31.9320012   2.3264997  71.2739988
  31.2800951   1.4634882  71.3216514  32.6987806   2.2254100  72.0328789
  33.1390012   2.3924997  70.2759988  34.0110012   3.2614997  70.2809988
  33.0270012   1.4844997  69.4409988  34.1440012   1.5244997  68.5779988
  35.0766305   1.3737850  69.1004446  34.1025893   2.5413887  68.2154886
  34.0140012   0.5214997  67.4199988  34.9070685   0.3564804  66.8402632
  32.9050012   1.1924997  66.5179988  33.1471836   2.2362046  66.3702535
  31.9662015   1.1266362  67.0536313  32.8120012   0.5344997  65.2909988
  31.3800012   0.2694997  64.6709988  31.1930012   1.5024997  63.6689988
  30.0650012   1.7474997  62.8929988  29.3424654   0.9584245  63.0557605
  30.3667604   1.6788537  61.8518330  29.3790012   3.2004997  63.0399988
  29.2961283   3.3814055  64.1042610  28.4031563   3.3166159  62.5909768
  30.2380012   4.3494997  62.4859988  31.4990012   4.4414997  63.1279988
  31.3414390   4.4576751  64.1976934  31.9656780   5.3636970  62.8151652
  32.1094100   3.6047520  62.8230866  30.4150012   4.2024997  60.9639988
  29.4437441   4.0489493  60.5192562  31.0735933   3.3759584  60.7653636
  30.8486738   5.1222370  60.5988848  29.3580012   5.5504997  62.6269988
  28.4432822   5.3876719  62.0766731  29.8702613   6.4141138  62.2302493
  29.1329717   5.7121146  63.6713538  31.3830012  -0.8795003  63.7419988
  30.3090012   0.3474997  65.6679988  33.4490012  -0.7005003  67.8339988
  34.2190012  -1.5665003  68.5409988  35.3990012  -1.4495003  68.7459988
  33.3640012  -2.8035003  68.9499988  32.6968655  -2.9772165  68.1119620
  34.0341089  -3.6590823  68.9790174  32.6010012  -2.6565003  70.2679988
  31.8760780  -1.8711712  70.0841361  32.0298036  -3.5732503  70.3744686
  33.3700012  -2.3455003  71.6099988  32.7343721  -2.6169681  72.4490071
  34.2334602  -3.0044235  71.6582036  33.8450012  -0.9155003  71.7599988
  34.4427229  -0.6484417  70.8904503  33.0007986  -0.2303632  71.7705417
  34.6960012  -0.6775003  73.0259988  34.3594546  -1.2980284  73.8539978
  35.7337114  -0.9508861  72.8448950  34.6420012   0.8274997  73.4499988
  34.7528555   1.4516752  72.5646643  33.6696753   1.0647875  73.8726037
  35.7490012   1.2074997  74.4939988  35.6482542   0.5932037  75.3811687
  36.7298073   0.9843534  74.0761819  35.6930012   2.7194997  74.8499988
  36.3921622   3.3601514  74.3339627  34.8790012   3.2884997  75.6979988
  34.9316637   4.3519441  75.8821799  33.8180012   2.5854997  76.4829988
  32.9518278   3.2445834  76.4590539  33.5317989   1.6884529  75.9453405
  34.1120012   2.2294997  77.9519988  34.5743262   3.1026334  78.4109084
  33.1487316   2.1033901  78.4425771  34.9830012   0.9864997  78.2189988
  34.6627753   0.1693750  77.5725704  36.0177792   1.1917461  77.9589752
  34.9030012   0.5264997  79.7049988  35.6581835  -0.2522822  79.7846450
  35.2766997   1.3725341  80.2791591  33.5730012   0.0374997  80.3249988
  33.0472219   0.9556454  80.5802528  33.0290996  -0.3932660  79.4887948
  33.4990012  -0.9245003  81.5689988  32.4865856  -1.2676649  81.7742687
  34.1009855  -1.8218273  81.4376474  34.0080012  -0.1795003  82.7799988
  35.0906098  -0.2398767  82.8589179  33.7775946   0.8782595  82.6733685
  33.3700012  -0.6955003  84.0819988  33.6805490  -0.0914081  84.9291715
  33.6526158  -1.7212868  84.2932618  32.2857172  -0.6565112  84.0276923
   6.5410012  21.5254997  84.4259988   6.9687545  20.6916991  84.9739337
   5.6069220  21.7957028  84.9100197   7.2188562  22.3688401  84.5255050
   6.3210012  21.1714997  82.9669988   5.6696186  20.3000861  82.9277272
   7.2768618  20.8567291  82.5570427   5.6910012  22.3434997  82.0639988
   6.4857934  22.9226037  81.5940277   5.1486815  23.0386751  82.7018008
   4.7350012  21.8284997  80.9839988   3.9573385  21.3377451  81.5650760
   5.3020444  21.0315179  80.5054718   4.0710012  22.6934997  79.9099988
   3.8352457  23.6713279  80.3221205   3.1200813  22.2412132  79.6333160
   4.9070012  22.8734997  78.6829988   4.7609049  21.9962786  78.0553396
   5.9502470  22.8566940  78.9911101   4.6360012  24.1784997  77.8289988
   4.9168831  25.0281671  78.4486282   3.5583082  24.2480633  77.6876876
   5.3280012  24.2914997  76.4779988   5.1330908  23.3798624  75.9146352
   6.4034120  24.3227622  76.6429175   4.9030012  25.5254997  75.6229988
   4.8365558  26.4001090  76.2665705   3.9003354  25.3605705  75.2305236
   5.8430012  25.8164997  74.4799988   6.7636495  26.2020107  74.9125342
   5.4116128  26.6335851  73.9023271   6.1560012  24.6404997  73.5369988
   5.1957409  24.2346917  73.2259341   6.6292809  23.8680105  74.1406500
   7.0260012  24.8994997  72.2489988   7.9620703  25.3826481  72.5183707
   6.5066548  25.5904773  71.5875615   7.2980012  23.6284997  71.4969988
   6.3679699  23.3545936  71.0017520   7.4981813  22.8454265  72.2229453
   8.4810012  23.6304997  70.3779988   8.4489468  22.6611316  69.8915391
   9.4115929  23.6707818  70.9378813   8.5060012  24.7174997  69.3219988
   8.5045215  25.6959841  69.7852558   7.6392314  24.6369135  68.6767972
   9.6310012  24.4654997  68.2889988  10.6670012  25.1054997  68.2169988
   9.3500012  23.4424997  67.5159988  10.3100012  23.1194997  66.5099988
  11.2695629  23.3786359  66.9313675  10.1934669  23.6226688  65.5610875
  10.1960012  21.5984997  66.3429988  11.0829763  21.1984091  65.8802930
   8.9100012  21.3094997  65.4069988   8.9650743  20.2901509  65.0496530
   8.9831089  21.9788626  64.5589460   7.6400012  21.5354997  66.1349988
   6.3160012  21.0854997  65.4389988   6.3050012  21.8604997  64.0809988
   5.4860012  23.0554997  63.9509988   5.3896493  23.6743924  64.8335389
   4.4761336  22.8417231  63.6129689   6.1290012  23.8214997  62.8189988
   7.1759794  23.9219028  63.0759125   5.7050963  24.8078664  62.6974984
   6.1000012  23.1584997  61.3879988   6.6970012  21.7314997  61.2889988
   7.6817163  21.7374722  61.7358034   6.7738017  21.4742703  60.2430376
   6.0335859  21.0388563  61.7848237   4.6550012  23.1914997  61.0849988
   4.2892585  24.1903049  61.2675758   4.1504509  22.4691472  61.7014450
   4.5379830  22.9389478  60.0410537   6.8620012  24.1504997  60.5279988
   6.3722756  25.1117593  60.5752296   6.8730114  23.7996702  59.5069956
   7.8759515  24.2381007  60.8908564   6.3720012  19.6354997  65.1949988
   5.1940012  21.5684997  66.2719988  10.1460012  21.0154997  67.6519988
  10.4250012  19.6844997  67.6999988  10.4020012  18.9194997  66.8179988
  10.7380012  19.2124997  69.1229988  11.7630162  18.8632172  69.1929906
  10.6446273  20.0094814  69.8564893   9.7040012  18.0614997  69.4029988
   8.8768871  18.2135320  68.7182875  10.1723810  17.1287126  69.1054057
   9.1570012  17.9374997  70.8319988   8.6348518  16.9916703  70.9520853
   9.9905202  17.9143253  71.5296906   8.2230012  19.1124997  71.2169988
   8.6645414  20.0504147  70.8852404   7.2633379  19.0329936  70.7120956
   7.9750012  19.2034997  72.7679988   7.2011298  19.9466220  72.9490877
   7.5612783  18.2503416  73.0915789   9.2120012  19.5274997  73.6399988
   8.9223413  19.6388714  74.6837394   9.9437328  18.7250551  73.6088597
   9.9010012  20.8584997  73.1449988  10.1735387  20.7527444  72.1013901
   9.1712798  21.6657935  73.1911444  11.0970012  21.2404997  73.9839988
  11.9931626  20.6599613  73.8245502  11.1590012  22.1874997  74.8529988
  12.1179598  22.2635890  75.3451560  10.1330012  23.2284997  75.3179988
  10.5850619  24.2022517  75.4987448   9.2968969  23.4013596  74.6496200
   9.5890012  22.6604997  76.7159988   8.5761469  23.0278266  76.8769403
   9.5100913  21.5778440  76.6379667  10.5050012  23.0344997  77.9879988
  11.5446425  22.7648608  77.8021286  10.4973541  24.1051513  78.1727975
   9.9870012  22.2664997  79.2889988   9.0559763  22.7776859  79.5235756
   9.7081815  21.2828023  78.9152554  10.8420012  22.1014997  80.5789988
  10.7832849  21.0826482  80.9572634  11.8959868  22.2885505  80.3925818
  10.3090012  23.0764997  81.7159988   9.3374569  22.7001239  82.0311592
  10.9708131  22.9576972  82.5719923  10.1740012  24.5904997  81.4049988
  11.1318169  24.9755199  81.0640244   9.4978093  24.6873410  80.5584178
   9.6520012  25.4644997  82.5559988   9.5056990  26.4887404  82.2264604
  10.3420399  25.4876852  83.3926887   8.6987598  25.0962588  82.9246051
 144.2960012 118.8394997  84.6729988 144.5024968 117.9454382  85.2530356
 143.3277465 119.2203854  84.9847662 145.0424402 119.5839003  84.9362639
 144.3180012 118.5444997  83.1669988 143.5815968 117.7697753  82.9603256
 145.2870145 118.1171843  82.9236292 144.0430012 119.7334997  82.2909988
 144.6177196 120.6035044  82.6083622 142.9963152 120.0240483  82.3558141
 144.3770012 119.4114997  80.7959988 145.4624795 119.3560293  80.7522972
 144.0975462 120.2994374  80.2310408 143.8060012 118.1934997  80.1239988
 144.0214506 117.2976593  80.7007349 144.2752145 118.0512331  79.1519062
 142.2700012 118.3144997  79.9379988 142.0558049 119.3019895  79.5332756
 141.8066635 118.2819474  80.9217851 141.6140012 117.2264997  79.0219988
 140.5615862 117.4859806  78.9226887 141.6450811 116.2865784  79.5713731
 142.2330012 117.0124997  77.5919988 141.6766465 116.2050480  77.1177179
 143.2470457 116.6422003  77.7308371 142.2610012 118.1804997  76.6889988
 142.7001594 119.0364851  77.1969062 141.2462071 118.4734292  76.4226111
 143.0760012 117.8784997  75.3759988 143.9961093 117.3551523  75.6266131
 143.3756567 118.8119621  74.9003062 142.2680012 117.0624997  74.3999988
 141.4253970 117.6502842  74.0421322 141.8407633 116.1924387  74.8955688
 143.0760012 116.6084997  73.2019988 143.5798188 115.6886233  73.4887289
 143.8586610 117.3502121  73.0537547 142.3210012 116.4084997  71.8589988
 141.9470664 117.3782202  71.5348587 141.4467826 115.7848702  72.0236264
 143.1440012 115.8194997  70.7229988 142.5433839 115.6010409  69.8461409
 143.6142810 114.8866231  71.0224485 144.3040012 116.8764997  70.3239988
 144.8961796 117.1350470  71.1926293 143.8669159 117.7815688  69.9191836
 143.7690012 118.2294997  69.7139988 143.6350012 119.2744997  70.3399988
 143.5390012 117.9294997  68.5279988 143.2670012 119.0674997  67.7689988
 144.0755261 119.7624361  67.9387421 142.3471153 119.4995810  68.1354790
 143.1560012 118.7204997  66.2269988 144.0154010 118.1324125  65.9504497
 143.0700012 119.9884997  65.3259988 143.9402210 120.5930305  65.5429339
 142.1870490 120.5188627  65.6602076 142.9890012 119.7224997  63.9589988
 141.6220012 119.5984997  63.2289988 140.5680012 120.1354997  64.2939988
 139.8150012 121.3154997  63.9339988 140.4161685 122.1176132  63.5260763
 139.2957564 121.7268652  64.7947893 138.7250012 120.9104997  62.9699988
 139.1676937 120.3543485  62.1533176 138.2269501 121.7808447  62.5677281
 137.5740012 119.9794997  63.5539988 138.1450012 118.6254997  63.8909988
 138.6857463 118.2550710  63.0309341 137.3220902 117.9634588  64.1159862
 138.7819146 118.7195647  64.7577225 136.9340012 120.6684997  64.7479988
 136.6781086 121.6779176  64.4646113 137.6238960 120.6544905  65.5727525
 136.0400773 120.1159975  64.9988742 136.4170012 119.7764997  62.5389988
 136.0039841 120.7382922  62.2735671 135.6504966 119.1660683  62.9923135
 136.7951849 119.2839686  61.6547900 141.7290012 120.4794997  62.0719988
 141.3700012 118.1574997  62.9899988 141.8980012 117.9154997  66.0029988
 141.8490012 116.6854997  66.3149988 142.7430012 116.0204997  66.7789988
 140.4930012 116.2064997  65.8999988 140.0257666 117.0695010  65.4368859
 140.6490463 115.4875011  65.0996251 139.6060012 115.6004997  67.0359988
 138.7025598 115.1913483  66.5973078 140.1223674 114.7634788  67.4951229
 139.2260012 116.6184997  68.0989988 140.1243124 117.1075126  68.4671799
 138.6285700 117.3959029  67.6291209 138.4320012 116.0324997  69.2669988
 137.4634660 115.6452693  68.9560353 138.9337333 115.2174868  69.7829648
 138.1990012 117.1704997  70.2539988 139.1436083 117.5935534  70.5896235
 137.6598979 117.9811453  69.7675809 137.3940012 116.7064997  71.4639988
 136.4873240 116.2303962  71.0939136 137.9558188 115.9346477  71.9825771
 137.0030012 117.8414997  72.5099988 135.9831672 118.1176465  72.2686241
 136.9642917 117.3386184  73.4753785 137.8900012 119.0734997  72.6379988
 137.9441033 119.6102944  71.7028633 138.5680012 119.5794997  73.6689988
 139.1552247 120.4769574  73.5372865 138.6070012 119.0334997  75.0299988
 138.8811081 117.9819396  74.9643652 139.3787693 119.5119391  75.6225783
 137.2640012 119.1344997  75.7649988 136.4535549 119.2782223  75.0513982
 137.0557896 118.1960768  76.2753609 137.2540012 120.2834997  76.7929988
 137.9896886 120.0950779  77.5748991 137.5417796 121.2207594  76.3247769
 135.8680012 120.4354997  77.4299988 135.1661703 120.5530115  76.6073388
 135.6302012 119.4823027  77.8989889 135.6640012 121.6094997  78.4919988
 136.2190280 122.4790104  78.1448876 134.6182105 121.9043504  78.4888642
 136.1160012 121.3024997  79.9169988 137.1950658 121.4052277  80.0167461
 135.6792941 122.0059538  80.6235915 135.7170012 119.8684997  80.3419988
 134.8518830 119.5444854  79.7688492 136.5284678 119.2035914  80.0543674
 135.4260012 119.6774997  81.8919988 135.2401312 118.6330081  82.1234263
 134.5570049 120.2413653  82.2139337 136.2714591 120.0036729  82.4911255
 127.5970012   1.3014997  80.8059988 127.3546022   1.4155231  81.8579828
 127.3672310   0.2785749  80.5220613 126.9373031   1.9553220  80.2421488
 129.0420012   1.6294997  80.5389988 129.5890747   0.9660352  81.2066277
 129.1541377   2.6312206  80.9449478 129.6490012   1.5574997  79.1629988
 129.0403288   2.0453017  78.4017524 129.7861077   0.5315650  78.8270957
 131.0200012   2.2354997  79.2239988 131.5678215   1.8447729  80.0786773
 130.8942520   3.3013171  79.4081900 131.8710012   2.0344997  77.9619988
 131.8091687   0.9927281  77.6579236 132.9120523   2.2147812  78.2248222
 131.4920012   2.9154997  76.7819988 130.4100509   2.8710500  76.6714327
 131.9082924   2.4628103  75.8845853 131.9510012   4.4404997  76.8629988
 132.9978450   4.4657504  77.1600685 131.3949912   4.9212687  77.6667052
 131.7670012   5.2694997  75.5349988 132.2585068   4.7772057  74.6968342
 132.2255520   6.2528480  75.6212610 130.2850012   5.4324997  75.2229988
 129.8284575   6.0809172  75.9677562 129.7878557   4.4676297  75.3149187
 130.0300012   5.9934997  73.8499988 130.4433888   6.9993096  73.8225047
 128.9528600   6.1027198  73.7264398 130.5930012   5.1584997  72.6789988
 130.4167321   4.1022045  72.8705992 131.6732875   5.2783793  72.6178576
 129.9430012   5.5284997  71.2729988 130.1310757   6.5912561  71.1411058
 128.8696582   5.4259334  71.4216089 130.3410012   4.7544997  69.9939988
 130.4622570   5.5331466  69.2428277 129.4527707   4.1958703  69.7124781
 131.5860012   3.8084997  69.9139988 131.4332804   2.9077395  70.4993640
 132.4586726   4.3076338  70.3267962 131.8960012   3.4094997  68.4189988
 132.0193108   4.2948484  67.8082669 131.0865428   2.8157298  68.0112201
 130.9890012   2.2754997  67.9459988 130.2490012   1.6224997  68.6329988
 131.0690012   2.2034997  66.6079988 129.9730012   1.4034997  66.0889988
 129.8082167   0.7308455  66.9171561 130.2681685   0.8305238  65.2219538
 128.6680012   2.2394997  65.7959988 127.9514399   1.6139325  65.2899359
 129.0070012   3.5114997  64.8969988 128.2208042   3.6898660  64.1759712
 129.9310146   3.3255413  64.3638912 129.1580012   4.6844997  65.8049988
 130.1570012   5.7784997  65.4649988 129.2660012   6.5304997  64.4029988
 129.8040012   7.2854997  63.3049988 130.8009784   6.9052862  63.1242694
 129.9237652   8.2973607  63.6812844 129.0010012   7.4384997  61.9519988
 129.7866205   7.4774240  61.2079987 128.3834202   8.3193154  61.8513289
 128.1370012   6.2874997  61.5689988 127.0220012   6.2944997  62.4959988
 127.4112175   6.3406306  63.5038264 126.4705281   5.3759657  62.3608220
 126.3845516   7.1364134  62.2711513 127.5920012   6.6184997  60.1759988
 128.4182473   6.9063987  59.5442192 126.8679221   7.4089748  60.2610197
 127.1250720   5.7235914  59.7907543 128.9560012   5.0384997  61.4939988
 129.7488397   5.1758740  60.7738478 128.3249634   4.2185441  61.1855928
 129.3772234   4.8245354  62.4657117 130.3640012   6.5944997  66.6959988
 131.4370012   5.3264997  64.8199988 128.1040012   2.5134997  67.0519988
 126.8990012   3.0924997  67.1579988 126.2370012   3.4804997  66.2199988
 126.6040012   3.3954997  68.6229988 126.3580528   2.4536450  69.1025530
 127.5135874   3.7458067  69.1045014 125.5010012   4.3984997  68.7599988
 124.6767912   4.0080901  68.1732115 125.1793065   4.3546363  69.7956732
 125.7590012   5.8554997  68.3559988 125.8058253   5.8672906  67.2700326
 124.8549022   6.3954997  68.6263133 126.9940012   6.6154997  68.9559988
 127.0771001   6.3775005  70.0148458 127.9172926   6.2739877  68.4943663
 126.8990012   8.1794997  68.8059988 127.3031003   8.4348235  67.8285456
 125.8388109   8.4223043  68.7682679 127.5770012   9.0704997  69.8959988
 128.6385219   8.8344236  69.8399383 127.4734204  10.0985326  69.5602351
 127.1160012   8.9824997  71.3509988 127.4909445   8.0403700  71.7336070
 127.6532247   9.7656869  71.8842479 125.6480012   9.1334997  71.6279988
 125.1715533  10.0405441  71.2876726 124.8900012   8.2524997  72.2369988
 123.8836590   8.6140675  72.3924149 125.1260012   6.8714997  72.7489988
 124.2230395   6.2926727  72.5623427 125.9184569   6.3864200  72.1900779
 125.4280012   6.8014997  74.1839988 124.4823099   6.8602459  74.7215134
 125.8247794   5.8064872  74.3762909 126.4130012   7.8624997  74.7499988
 127.1946381   8.0267346  74.0082592 125.8842997   8.8066120  74.8481352
 127.0600012   7.4964997  76.0939988 127.1734393   6.4176614  76.1739036
 128.0629354   7.9139265  76.1644460 126.1980012   8.0294997  77.2769988
 126.0898519   9.1083478  77.1822337 125.1920644   7.6237008  77.2134093
 126.8100012   7.7284997  78.6889988 126.8639249   6.6453007  78.7820318
 127.8395949   8.0806967  78.6620177 126.1540012   8.2774997  79.9119988
 125.0806356   8.2866465  79.7396105 126.3216260   7.5417411  80.6955001
 126.6040012   9.6634997  80.4279988 126.1137381   9.9030647  81.3667851
 126.3652942  10.4548289  79.7254619 127.6764665   9.6869777  80.5994857
  21.8490012   8.8004997  81.3679988  21.4994855   9.8028953  81.5948706
  22.2604351   8.3786644  82.2804499  20.9842553   8.2038966  81.0907057
  22.9060012   8.8154997  80.2289988  23.7677147   9.4207562  80.5052546
  22.4945568   9.2633823  79.3284830  23.3830012   7.3364997  79.9319988
  22.5282289   6.6636662  79.8642601  23.9896181   6.9704832  80.7579642
  24.2230012   7.2364997  78.6179988  25.0580589   7.9294390  78.6939169
  23.6179172   7.5840561  77.7820658  24.7730012   5.8374997  78.3009988
  24.1903980   5.0823012  78.8223641  25.7889499   5.7581016  78.6842860
  24.7720012   5.5104997  76.7659988  25.6568545   5.9070189  76.2714039
  23.9167102   5.9551833  76.2617063  24.7300012   3.9844997  76.5849988
  23.8553822   3.6075492  77.1119903  25.5963157   3.5619912  77.0921632
  24.7010012   3.4984997  75.1679988  24.5121124   2.4267881  75.1210273
  25.6568583   3.6605817  74.6732761  23.5800012   4.2544997  74.3829988
  23.8180178   5.3144485  74.3247107  22.6364209   4.1845314  74.9227559
  23.3870012   3.6724997  72.9049988  22.3636677   3.8691898  72.5929079
  23.4912882   2.5885016  72.9437466  24.3740012   4.2394997  71.8649988
  25.3901859   4.1736415  72.2478463  24.1833216   5.2976431  71.6944062
  24.3100012   3.4614997  70.4719988  24.4419147   2.4005745  70.6701288
  25.1696934   3.7692634  69.8796468  23.0530012   3.6874997  69.6549988
  23.3252690   3.4388375  68.6306505  22.8607489   4.7566825  69.6676883
  21.7520012   2.9394997  69.9949988  21.5394485   3.1366578  71.0406063
  21.9891213   1.8818280  69.9162800  20.4570012   3.2294997  69.1379988
  20.6557090   3.0711814  68.0856245  20.1316666   4.2532081  69.2802920
  19.8650012   4.6214997  69.4829988  19.5860012   4.9924997  70.6319988
  19.7190012   5.2634997  68.3649988  19.3200012   6.6224997  68.5369988
  19.1852997   6.7342968  69.6022776  18.3952163   6.8698120  68.0361978
  20.4730012   7.5244997  68.0459988  20.0782664   8.5251291  68.1077982
  21.1000012   7.2724997  66.5829988  21.5682980   8.1691694  66.2002685
  20.3107944   6.9761038  65.9033760  22.0570012   6.2294997  66.7159988
  22.1380012   5.3084997  65.4499988  22.3590012   6.3744997  64.3789988
  23.6570012   6.6784997  63.8059988  24.3808969   5.9191442  64.0715986
  24.0151616   7.6093511  64.2361543  23.6390012   6.9144997  62.3009988
  24.6458501   7.0964835  61.9468997  23.0423760   7.7968914  62.1198905
  23.0810012   5.8524997  61.4109988  21.5380012   5.9404997  61.4179988
  21.1974885   5.9515632  62.4442846  21.1520839   5.0656432  60.9162080
  21.2351441   6.8282045  60.8832328  23.6560012   5.9674997  60.0499988
  24.7298582   6.0319790  60.1359494  23.2470716   6.8377322  59.5684990
  23.3805378   5.0753096  59.5064789  23.4470012   4.4704997  61.9409988
  24.5218584   4.3858552  62.0009918  23.0617506   3.7191223  61.2681957
  23.0138333   4.3338559  62.9213707  23.3480012   4.4184997  65.6179988
  20.8260012   4.6414997  65.0899988  21.4760012   7.3814997  69.0799988
  22.5230012   8.1904997  68.9879988  22.6050012   9.2074997  68.3079988
  23.5670012   7.4634997  69.8729988  23.0319871   6.7620806  70.5049198
  24.2198653   6.8610560  69.2463113  24.3350012   8.4304997  70.6569988
  25.0841604   7.8984194  71.2329432  24.8815665   9.0876629  69.9880924
  23.4880012   9.2414997  71.5859988  23.9898981  10.1793596  71.8099905
  22.5678329   9.5056571  71.0706580  23.1160012   8.4894997  72.9309988
  23.8836157   7.7621824  73.1888427  23.0425081   9.1670796  73.7781624
  21.7940012   7.7544997  72.7739988  21.1473114   8.2830591  72.0766335
  21.9734555   6.7740687  72.3370408  21.0670012   7.5714997  74.0959988
  21.5412121   6.7699741  74.6602521  21.1532938   8.4673929  74.7044779
  19.5100012   7.2324997  73.8989988  19.1584886   7.7374463  73.0067836
  19.4212904   6.1648910  73.7023058  18.6510012   7.5764997  75.0939988
  18.4162973   8.6089418  75.3050232  18.1270012   6.6304997  75.9399988
  17.4958085   6.8654216  76.7849943  18.3950012   5.1104997  75.7519988
  17.4710388   4.5822315  75.9810124  18.6236448   4.8869799  74.7159283
  19.5040012   4.5494997  76.6509988  20.4237273   5.1294010  76.5837438
  19.2139769   4.5615085  77.6999033  19.7760012   3.1154997  76.2239988
  18.8512844   2.5384462  76.2200936  20.1608647   3.0792181  75.2085837
  20.7680012   2.4614997  77.1629988  21.1273046   1.5782465  76.6396347
  21.6157106   3.1411686  77.2302582  20.3100012   2.0814997  78.5799988
  19.6684197   2.8833809  78.9404843  19.6734672   1.2043312  78.5023771
  21.3750012   1.8514997  79.6009988  21.0159581   1.2160126  80.4085427
  22.2280704   1.3338206  79.1661249  21.8620012   3.1684997  80.1999988
  22.2476061   3.8501520  79.4459603  21.0358023   3.6913427  80.6768044
  22.9570012   2.8994997  81.2589988  23.2484765   3.8206356  81.7545992
  23.8506748   2.4706627  80.8183319  22.6023487   2.2116229  82.0213558
 130.1480012 131.7704997  81.8649988 129.6683179 131.5823999  82.8204837
 129.4203819 132.2520682  81.2181201 130.9559375 132.4770350  82.0342873
 130.6710012 130.4764997  81.2419988 129.8692882 129.7608369  81.0679698
 131.3857389 129.9815347  81.8938988 131.3480012 130.8354997  79.8729988
 131.6520659 129.9226397  79.3609828 132.2630061 131.3926952  80.0639700
 130.4680012 131.6574997  78.9499988 130.9544057 131.6741505  77.9771764
 130.4776308 132.6853087  79.3094733 129.0820012 131.2184997  78.7729988
 128.4327870 132.0773270  78.6229668 128.7389064 130.7316682  79.6843967
 128.9150012 130.2644997  77.6019988 128.1155887 129.5673352  77.8463722
 129.8222171 129.6698703  77.5186193 128.6130012 130.9314997  76.2339988
 127.7993284 131.6335614  76.4066720 128.2090642 130.1494043  75.5926004
 129.7450012 131.6434997  75.5059988 130.0873797 132.4657692  76.1329763
 129.3375110 132.0978022  74.6047524 130.9910012 130.7254997  75.1149988
 130.6410492 129.9456749  74.4419846 131.3357714 130.2176113  76.0148653
 132.1510012 131.4524997  74.4779988 132.2982621 132.4144799  74.9640104
 131.9311864 131.6690073  73.4328983 133.4120012 130.6364997  74.5589988
 133.2441274 129.7180711  74.0005650 133.5571775 130.3375927  75.5956793
 134.6910012 131.2884997  74.0389988 135.5191221 130.6090132  74.2253663
 134.8828893 132.1740973  74.6419630 134.6660012 131.7034997  72.5409988
 134.3474195 132.7419277  72.4673441 133.9285893 131.1197443  71.9971904
 136.0110012 131.5754997  71.8449988 136.3857525 130.5615676  71.9390643
 136.7285332 132.2233175  72.3415588 135.9570012 131.9424997  70.4159988
 135.5539350 132.9400764  70.2959184 135.3305482 131.2463982  69.8709588
 135.2370012 130.8534997  69.5789988 135.0000012 129.6964997  69.9969988
 135.0020012 131.3314997  68.3379988 134.2920012 130.6534997  67.3609988
 134.3880072 129.6049444  67.5992775 134.7492041 130.8406431  66.4001997
 132.7440012 131.0834997  67.3549988 132.2150893 130.5546048  68.1305092
 132.0410012 130.8514997  65.9799988 131.0367388 131.2519883  66.0094428
 131.9837947 129.7835862  65.8100775 132.8060012 131.4854997  64.9369988
 132.4770012 131.0794997  63.4569988 130.9240012 131.4134997  63.3589988
 130.4440012 132.2124997  62.2999988 129.4971303 131.8801539  61.8948188
 131.1469104 132.2223097  61.4719774 130.3620012 133.6274997  62.7599988
 130.1922541 134.1661045  61.8362348 131.2552515 134.0146429  63.2286148
 129.2020012 134.0104997  63.6849988 129.1870012 133.1514997  64.9479988
 129.2344946 132.1107627  64.6582663 128.2607749 133.3419116  65.4694854
 130.0200932 133.4340683  65.5739617 129.3640012 135.4764997  63.9919988
 129.5029525 136.0078923  63.0630055 130.2051809 135.6067057  64.6491388
 128.4565791 135.8073624  64.4761600 127.9340012 133.9774997  62.8879988
 128.0187830 134.6611743  62.0564442 127.1104318 134.2757062  63.5192328
 127.7641036 132.9752269  62.5219125 133.2150012 131.8704997  62.4429988
 132.7410012 129.6544997  63.4129988 132.7470012 132.4904997  67.6899988
 131.6060012 133.0384997  67.9769988 130.4960012 132.4974997  68.1759988
 131.8100012 134.5574997  67.9079988 132.5434042 134.8063637  67.1479069
 130.9009324 135.0837830  67.6277723 132.2740012 134.9664997  69.3059988
 131.6181969 134.5264895  70.0492166 133.2636308 134.5678242  69.5053078
 132.2810012 136.4564997  69.4779988 132.6940173 136.9063922  68.5787389
 131.2460103 136.7848240  69.5333351 133.0260012 136.9754997  70.7159988
 133.9460457 136.4041793  70.8247046 133.3264778 138.0088822  70.5609620
 132.2370012 136.8794997  72.0359988 132.1184595 135.8344606  72.3148216
 132.8241934 137.3396472  72.8283689 130.9030012 137.5324997  71.9929988
 130.9902942 138.5543511  71.6270746 130.2277621 137.0201343  71.3134019
 130.2510012 137.5474997  73.4419988 130.9391333 137.9806274  74.1585562
 129.3693945 138.1871094  73.4381180 129.8320012 136.1424997  73.8619988
 129.6530258 135.4194423  73.0805194 129.6830012 135.7344997  75.0979988
 129.3962127 134.7146720  75.3108692 129.8890012 136.6004997  76.3479988
 129.6944674 137.6306514  76.0544598 129.1439184 136.3520212  77.0955221
 131.2530012 136.5384997  76.9649988 131.9577265 136.8869644  76.2109169
 131.2641341 137.2839076  77.7579061 131.7360012 135.1794997  77.5359988
 130.9228533 134.6958223  78.0772509 132.0067332 134.5049511  76.7284144
 132.8870012 135.3494997  78.4399988 133.6650798 135.8842128  77.8997946
 132.5902410 135.9954040  79.2645143 133.4560012 134.0174997  79.0109988
 132.7097204 133.5801124  79.6715647 133.5842707 133.3086066  78.1975847
 134.8020012 134.1564997  79.8239988 135.6078553 134.5362184  79.1984624
 134.6971355 134.8646968  80.6439341 135.2170012 132.8464997  80.3839988
 134.5173805 132.5370588  81.1564573 135.1302244 132.1057056  79.5921610
 136.6820012 132.8044997  80.9569988 136.9458019 131.7979154  81.2672667
 136.7986754 133.4516312  81.8197553 137.4033121 133.1195809  80.2082830
 131.4260012  13.7904997  81.7029988 131.7536256  14.8204181  81.6012186
 131.5224939  13.5139775  82.7489503 130.3702042  13.7529788  81.4490361
 132.2230012  12.8774997  80.8259988 133.2661878  13.0126682  81.1065233
 132.1254212  13.2676887  79.8165213 131.8740012  11.3344997  80.8489988
 130.7972492  11.2317389  80.7149301 132.0889127  10.9689384  81.8511709
 132.6070012  10.4244997  79.8249988 132.3005628  10.6656404  78.8095202
 132.3587597   9.3747286  79.9735348 134.1060012  10.6054997  79.9339988
 134.4362907  10.2607159  80.9105263 134.3249223  11.6713368  79.8961862
 134.9340012   9.8694997  78.8299988 134.7829202   8.7967035  78.9353550
 135.9924893  10.0465518  79.0084150 134.5830012  10.2944997  77.3889988
 134.3722041  11.3619037  77.3576404 133.6707637   9.7946168  77.0662452
 135.7020012   9.9754997  76.4119988 136.0672803   8.9689440  76.6116680
 136.5383844  10.6455894  76.6020694 135.2740012  10.0874997  74.8649988
 134.8217760  11.0639453  74.7050385 134.4910446   9.3551214  74.6721825
 136.4010012   9.8874997  73.8719988 136.6979010   8.8497842  74.0072619
 137.2207467  10.4924000  74.2587051 136.2090012  10.1944997  72.3539988
 137.1446699  10.1946284  71.7989627 135.7388799  11.1558146  72.1540299
 135.3000012   9.0464997  71.7899988 134.2649327   9.1763492  72.0965788
 135.6137516   8.0802373  72.1805980 135.3990012   9.0104997  70.2269988
 134.7104868   8.2514659  69.8594830 136.3932618   8.6887744  69.9299928
 135.0590012  10.3684997  69.4999988 135.9453077  10.7715552  69.0210917
 134.7419508  11.0984420  70.2401037 133.9400012  10.2164997  68.4499988
 133.0550054   9.7840521  68.8992345 134.2671983   9.5757606  67.6397738
 133.4670012  11.6104997  67.9819988 133.6680012  12.5834997  68.6919988
 132.6990012  11.5274997  66.9269988 132.0020012  12.6524997  66.4859988
 132.0844626  13.4014707  67.2591123 130.9579460  12.4300489  66.3196966
 132.6810012  13.1514997  65.1769988 132.0950707  13.9858475  64.8285117
 132.7920012  12.0584997  64.0369988 131.8134447  11.6174100  63.9040774
 133.4663417  11.2996392  64.4138019 133.2500012  12.5564997  62.8649988
 134.3290012  11.9264997  61.9179988 135.5010012  11.4784997  62.8819988
 136.5360012  12.3594997  63.3239988 136.2693311  13.4081642  63.3045379
 137.4289421  12.2573923  62.7140581 136.9790012  11.9044997  64.7989988
 136.1029876  11.7930457  65.4254389 137.5988762  12.6905740  65.2054702
 137.7650012  10.6314997  64.9639988 136.8820012   9.4264997  64.7339988
 135.9964198   9.5254609  65.3466050 137.4338199   8.5473451  65.0317963
 136.6405521   9.3643074  63.6834982 138.8990012  10.6744997  63.9299988
 139.4032767  11.6249805  64.0137034 138.4840477  10.5346298  62.9478480
 139.5815300   9.8707545  64.1654667 138.2400012  10.6054997  66.4269988
 138.8333906  11.4859545  66.6239006 138.8384631   9.7217944  66.5899661
 137.3826321  10.5874640  67.0842872 133.8280012  10.7474997  61.2879988
 134.8690012  12.9844997  61.0499988 133.9870012  13.6034997  65.4989988
 134.1740012  14.7284997  66.2509988 133.3330012  15.4364997  66.7799988
 135.6630012  14.9334997  66.5199988 136.0980078  13.9627151  66.7342403
 136.1536645  15.2863900  65.6163258 135.8630012  15.9224997  67.6809988
 136.8705125  16.3214946  67.6387494 135.1984550  16.7720625  67.5599431
 135.6330012  15.2654997  69.0739988 134.7658321  14.6131667  69.0097060
 136.4838787  14.6196067  69.2762231 135.4720012  16.2344997  70.2369988
 136.4413656  16.6671119  70.4775921 134.8281719  17.0660422  69.9609138
 134.9000012  15.5594997  71.5279988 134.7436950  16.3771993  72.2285961
 133.9090565  15.2162639  71.2371399 135.6070012  14.4434997  72.2199988
 134.8723351  14.0004004  72.8905432 135.8249716  13.6931632  71.4651464
 136.8830012  14.7384997  72.9959988 137.2007773  13.8257376  73.4863699
 137.6604490  14.9856214  72.2742982 136.7660012  15.8474997  73.9609988
 136.0956197  16.6602817  73.7253548 137.4220012  15.9174997  75.1209988
 137.3089674  16.7613843  75.7863499 138.4150012  14.8024997  75.6539988
 138.9748648  14.4169128  74.8036479 139.1472020  15.2244541  76.3333495
 137.7030012  13.6194997  76.3389988 136.8627462  13.3416284  75.7038105
 138.3970627  12.7818023  76.3073647 137.2150012  13.8134997  77.7739988
 136.4665609  14.6059254  77.7763797 136.7023191  12.9106238  78.0941180
 138.3000012  14.1524997  78.7639988 138.9890859  13.3113808  78.7927435
 138.8647297  14.9950931  78.3687737 137.8290012  14.4804997  80.1599988
 138.6192551  15.0056525  80.6931996 136.9900472  15.1697637  80.1188130
 137.4520012  13.2464997  80.9759988 136.6889146  12.6610458  80.4662678
 138.3090444  12.5862234  81.0957740 136.9300012  13.6214997  82.3659988
 137.6232143  14.2862894  82.8753368 136.0075122  14.1866432  82.2522449
 136.6480012  12.3774997  83.2649988 136.1979422  12.6766439  84.2068207
 137.5558102  11.8311351  83.4976132 135.9647443  11.6890267  82.7758096
 120.7840012  -1.1115003  81.8319988 121.1263675  -1.1557421  82.8612008
 120.3943450  -2.0909679  81.5700801 119.9581747  -0.4067101  81.7884858
 121.8620012  -0.7135003  80.9309988 122.6501649  -1.4434012  81.1077635
 122.2189246   0.2267525  81.3425132 121.6350012  -0.5765003  79.4369988
 121.0102152  -1.3986754  79.0882874 122.5899150  -0.6866288  78.9269182
 120.9920012   0.7824997  78.9989988 121.7397379   1.5654257  79.1046710
 120.1892066   1.0372365  79.6891698 120.4340012   0.8094997  77.5079988
 120.0721828   1.7986251  77.2391282 119.5848305   0.1356570  77.4069527
 121.5090012   0.4024997  76.5359988 121.7637817  -0.6429842  76.6999117
 122.4131943   0.9716622  76.7410980 121.1130012   0.5994997  75.0889988
 121.1600000   1.6624697  74.8595303 120.0696109   0.3092016  74.9737005
 121.9780012  -0.1835003  74.0669988 121.5489866  -0.0869878  73.0704634
 121.9597752  -1.2456263  74.3041491 123.4320012   0.3034997  74.0409988
 123.8167521   0.4344280  75.0501397 123.5084190   1.2770353  73.5583335
 124.3210012  -0.7165003  73.2799988 123.8111049  -1.1386148  72.4167930
 124.6098894  -1.5600052  73.9064747 125.5550012   0.0164997  72.8399988
 125.8839494   0.6867626  73.6312520 125.3355060   0.6479848  71.9808269
 126.7050012  -0.9185003  72.4949988 126.5084356  -1.4212863  71.5511835
 126.7779839  -1.7017780  73.2472086 128.0600012  -0.1685003  72.4279988
 128.8764747  -0.8523639  72.2022699 128.3199679   0.3171042  73.3644172
 128.0030012   0.9314997  71.2679988 128.8617968   1.5915474  71.3324357
 127.1200866   1.5496800  71.4073077 127.9480012   0.3104997  69.8659988
 127.1165567  -0.3785785  69.7891060 128.8652113  -0.2263044  69.6547265
 127.9240012   1.3944997  68.7809988 128.4460012   2.5054997  68.8139988
 127.3600012   0.8694997  67.7219988 127.4340012   1.6114997  66.4689988
 128.3287420   1.1597027  66.0680245 127.5808366   2.6791738  66.5445194
 126.2360012   1.2864997  65.5839988 126.1189867   0.2219270  65.7018407
 126.4170012   1.6344997  64.0809988 127.3489661   1.1998937  63.7457973
 126.4977143   2.7129737  64.0265554 125.3710012   1.1914997  63.3019988
 124.0900012   2.1374997  63.0639988 122.9420012   1.2034997  63.5679988
 123.0850012  -0.2145003  63.3449988 123.6061671  -0.7184491  64.1484978
 123.6607054  -0.3971012  62.4422150 121.7120012  -0.8605003  63.0859988
 121.8901286  -1.8868797  63.3810667 121.4399539  -0.8419359  62.0405215
 120.4130012  -0.3995003  63.8839988 120.0530012   0.9954997  63.4999988
 120.9315409   1.6182686  63.5982878 119.2854823   1.3399296  64.1770385
 119.6712162   0.9935776  62.4900713 119.2770012  -1.3365003  63.5459988
 119.6216539  -2.3516739  63.6698980 118.9569116  -1.1503262  62.5364187
 118.4723895  -1.1312349  64.2372029 120.5910012  -0.5745003  65.3449988
 120.8048154  -1.6118441  65.5554351 119.6828154  -0.2823687  65.8504766
 121.4088870   0.0441045  65.6853306 124.1550012   3.3424997  63.9099988
 123.9450012   2.3934997  61.6309988 125.0770012   1.8714997  66.2549988
 124.2220012   1.0564997  66.9039988 124.2950012  -0.1595003  66.8769988
 123.3650012   1.9054997  67.8509988 122.9317145   2.7432446  67.3143433
 122.5257204   1.3456816  68.2561142 124.3320012   2.3764997  68.9909988
 125.0316306   1.5723063  69.1906301 124.9260909   3.2063370  68.6215933
 123.6400012   2.7734997  70.2959988 123.0455432   1.9328747  70.6447443
 124.4124808   2.9299223  71.0449128 122.7900012   4.0084997  70.2199988
 123.3860289   4.8972649  70.0211187 122.0334307   3.9691585  69.4400915
 122.0620012   4.1954997  71.6399988 121.2102856   4.8573196  71.4969043
 121.6500540   3.2281458  71.9209027 122.9220012   4.7164997  72.7969988
 123.8049517   4.0920310  72.9240347 123.2833538   5.7225860  72.6032655
 122.1040012   4.7274997  74.1229988 121.1624455   4.2439312  73.8901587
 122.6355197   4.0559602  74.7959540 121.8840012   6.0204997  74.8189988
 121.2612307   6.7366011  74.3043050 122.3730012   6.3854997  76.0349988
 122.1236592   7.3298467  76.4972186 123.3050012   5.5154997  76.8649988
 123.1743254   5.7996599  77.9077825 123.0139015   4.4733249  76.7956181
 124.7980012   5.6544997  76.5109988 124.8961439   5.5938561  75.4277650
 125.1076668   6.6604893  76.7876774 125.7450012   4.6334997  77.1709988
 126.7390851   5.0731023  77.2525686 125.4152840   4.4375454  78.1875579
 125.8400012   3.3024997  76.3959988 124.8432416   3.0275481  76.0583348
 126.4342576   3.4559814  75.4968950 126.4470012   2.1624997  77.2119988
 126.9053939   1.4260468  76.5546531 127.2437978   2.5199525  77.8585029
 125.3600012   1.4384997  78.0569988 125.0200841   2.0925336  78.8579850
 124.4870390   1.2413706  77.4373931 125.8280012   0.1124997  78.6749988
 125.0395719  -0.6348278  78.7173771 126.6215336  -0.3281796  78.0754815
 126.3590012   0.3674997  80.0759988 126.7771625  -0.5401004  80.5008191
 125.5805274   0.7123154  80.7481756 127.1428830   1.1195384  80.0656068
  10.8290012  10.9614997  80.4419988  10.0018256  11.6334001  80.2352153
  11.3775803  11.3624009  81.2894238  10.4104753  10.0052946  80.7438595
  11.7210012  10.8064997  79.2399988  12.1014824  11.7835941  78.9472129
  11.1272183  10.4471503  78.4038744  12.8860012   9.8734997  79.4899988
  12.4833721   8.8918380  79.7393165  13.3971363  10.2252371  80.3839745
  13.9570012   9.7204997  78.3239988  13.4682986   9.7782035  77.3539008
  14.4405118   8.7455149  78.3604423  15.0410012  10.8374997  78.4029988
  15.6260164  10.6933513  79.3077371  14.5302837  11.7920927  78.5182581
  15.9760012  10.9134997  77.2239988  16.3007498   9.9103742  76.9536387
  16.8742426  11.4579350  77.5074234  15.3700012  11.5564997  76.0569988
  15.1424669  12.5907151  76.3087854  14.4143229  11.0758882  75.8522510
  16.2570012  11.5214997  74.7589988  17.2182958  12.0086105  74.9173865
  15.7818533  12.0480844  73.9333917  16.4920012  10.0514997  74.3559988
  15.5082686   9.5932953  74.2794478  16.9836076   9.5751565  75.2033460
  17.2780012   9.7634997  73.0969988  17.7361690   8.7782969  73.1495039
  18.0955021  10.4744625  72.9801523  16.3020012   9.8544997  71.8009988
  15.9617080  10.8770108  71.6519598  15.4043129   9.2543990  71.9394295
  17.0030012   9.4104997  70.5689988  17.9936894   9.8585111  70.5754484
  16.4767924   9.8486437  69.7229467  17.1130012   7.8494997  70.3419988
  17.4599240   7.4104455  71.2758767  17.8910562   7.6581153  69.6083256
  15.7910012   7.0884997  69.9049988  14.9561806   7.4953334  70.4661636
  15.8972966   6.0501819  70.2078016  15.4630012   7.1284997  68.4219988
  16.2966328   6.7574972  67.8393698  15.2455497   8.1433535  68.1107824
  14.3330012   6.0644997  68.1729988  14.3520012   4.9174997  68.7009988
  13.5550012   6.6004997  67.2459988  12.3860012   5.8264997  66.8529988
  12.1496574   5.3472909  67.7910620  12.5649710   5.0684010  66.1043678
  11.2560012   6.7474997  66.4339988  10.4020826   6.1379375  66.1887417
  11.7030012   7.5394997  65.1989988  10.8735133   7.8124965  64.5608580
  12.4140582   6.9661013  64.6174514  12.3190012   8.6944997  65.7299988
  13.5910012   9.5074997  65.1649988  14.1490012   8.4214997  64.1969988
  13.9090012   8.6474997  62.8509988  12.8541282   8.8606761  62.7370346
  14.0879089   7.7009254  62.3492158  14.7940012   9.7094997  62.0659988
  14.8069758  10.6630278  62.5787021  14.4059931   9.8568316  61.0684417
  16.2730012   9.3074997  61.8899988  16.5260012   7.8484997  61.5119988
  15.9903728   7.2144258  62.2050980  17.5865235   7.6622000  61.5937593
  16.2077555   7.6903297  60.4924798  16.9650012  10.2344997  60.9469988
  16.7623301  11.2492692  61.2533992  16.6122996  10.0473068  59.9485347
  18.0241216  10.0316974  61.0135737  16.9800012   9.5014997  63.1749988
  16.8904183  10.5341585  63.4777738  18.0223899   9.2507575  63.0477035
  16.5434518   8.8603700  63.9272038  13.1170012  10.6474997  64.3359988
  14.4830012   9.7854997  66.3119988  10.8450012   7.5044997  67.5869988
   9.8400012   8.2824997  67.4749988   9.2930012   8.6454997  66.4369988
   9.4200012   8.8834997  68.8359988   9.4047393   9.9586501  68.6898083
   8.3883099   8.5935357  69.0188679  10.3280012   8.4744997  70.0119988
  10.8459745   7.5508708  69.7781735  11.1008698   9.2180639  70.1787899
   9.4950012   8.2764997  71.3129988   8.7632750   9.0625115  71.4815697
   8.9394342   7.3419775  71.3041216  10.4830012   8.2374997  72.4509988
  11.4192127   8.6061509  72.0358961  10.1598951   8.9789621  73.1776610
  10.7620012   6.9334997  73.1729988   9.7945782   6.4826089  73.3844019
  11.2445019   6.2867478  72.4427343  11.6140012   6.9454997  74.4609988
  12.5195143   7.5134694  74.2532553  11.0780901   7.4937147  75.2307894
  12.0030012   5.5424997  75.0259988  12.5437327   5.6233359  75.9617631
  11.1139629   4.9492364  75.2357505  12.8210012   4.8304997  73.9879988
  12.2980705   4.2518978  73.2414618  14.1390012   4.8664997  73.9069988
  14.6109744   4.3120707  73.1085880  15.1130012   5.6064997  74.8069988
  15.8013992   6.1529021  74.1645242  14.5933274   6.3519679  75.3985199
  15.9280012   4.7124997  75.7249988  15.2640747   4.1588666  76.3878691
  16.4508825   3.9675737  75.1282246  16.9320012   5.4834997  76.5469988
  17.8348583   4.8732154  76.5695617  17.1809778   6.3730380  75.9749532
  16.5560012   5.8874997  77.9869988  15.6913786   6.5468704  77.9586620
  16.2483500   5.0062608  78.5472253  17.7230012   6.5794997  78.7269988
  18.6486832   6.0796535  78.4479707  17.8154419   7.5994673  78.3640309
  17.6250012   6.5734997  80.2859988  17.6041370   5.5557501  80.6715290
  18.4987732   7.0466766  80.7303635  16.3400012   7.3254997  80.7909988
  16.2329568   8.2420541  80.2162079  15.4931398   6.7016386  80.5136250
  16.2450012   7.6484997  82.2919988  15.2806441   8.0862079  82.5317822
  17.0084155   8.3530727  82.6042748  16.3592315   6.7505465  82.8926422
 144.8190012  14.9214997  82.5369988 145.4910618  14.6862758  83.3564091
 144.2977236  14.0086432  82.2635893 144.0783616  15.6243998  82.9084775
 145.5840012  15.5064997  81.3369988 146.3324739  14.8009392  80.9803813
 146.1248940  16.4007424  81.6346208 144.6200012  15.8304997  80.2019988
 143.7210700  16.3301888  80.5627792 144.2814979  14.9234503  79.7051608
 145.2880012  16.6904997  79.2029988 146.0280157  17.3269480  79.6831674
 144.5795209  17.3625409  78.7212081 145.9960012  15.8344997  78.1259988
 145.3020972  15.5862443  77.3269746 146.3084072  14.8881347  78.5643603
 147.2060012  16.5334997  77.5279988 147.5869764  15.8361335  76.7841202
 147.9392312  16.5517022  78.3315032 147.1060012  17.8884997  76.9249988
 148.0311087  18.1237052  76.4019076 147.0053387  18.6320931  77.7144073
 145.8780012  18.0254997  75.9119988 145.0145837  17.5264943  76.3501254
 146.1181448  17.4758863  75.0037366 145.4900012  19.4954997  75.5379988
 146.3036533  20.0210476  75.0427103 145.2350159  20.0887274  76.4152903
 144.2630012  19.4334997  74.5869988 144.0972149  20.4586067  74.2630089
 143.4137318  19.1715340  75.2175102 144.2960012  18.5024997  73.3779988
 143.4483512  18.7642746  72.7483128 144.1081637  17.4903806  73.7322023
 145.5520012  18.5084997  72.5179988 146.3282210  17.9497619  73.0352161
 145.9106083  19.5337986  72.4484792 145.3570012  17.9434997  71.0599988
 144.4545096  18.3773961  70.6328047 145.1938873  16.8698120  71.0893710
 146.5220012  18.2464997  70.1109988 147.3365576  17.6846001  70.5560962
 146.7094592  19.2953159  70.3253255 146.5440012  18.0464997  68.5819988
 145.7185037  18.5721947  68.1191384 146.4664313  16.9936579  68.3379166
 146.6200012  16.5144997  68.1929988 146.2430012  15.6254997  68.8969988
 147.2500012  16.4504997  67.0099988 147.2910012  15.1534997  66.3709988
 147.3846571  14.5225581  67.2419771 148.1599922  15.0200329  65.7431188
 145.9760012  14.8094997  65.5899988 146.0988808  13.8076473  65.2130551
 145.6110012  15.7214997  64.4839988 144.7036997  15.3695288  64.0120649
 146.4135940  15.6926321  63.7576404 145.4340012  17.0524997  64.9789988
 145.2100012  18.1684997  63.8129988 143.9000012  17.6864997  63.0219988
 142.6960012  17.6964997  63.7739988 141.9083720  18.2356047  63.2639056
 142.8637502  18.2132260  64.7145577 142.2200012  16.2434997  64.1779988
 141.3275161  16.3914638  64.7728315 142.9364354  15.6823444  64.7604107
 141.8050012  15.3264997  63.0259988 142.9660012  15.0064997  62.1509988
 143.4519520  15.9308636  61.8703974 142.5911348  14.5101769  61.2682536
 143.6337691  14.3452732  62.6825837 141.2250012  14.0564997  63.6799988
 140.4974128  14.3536020  64.4196334 142.0264812  13.4916446  64.1215171
 140.7472660  13.4810094  62.9003341 140.6480012  15.9414997  62.2289988
 139.8113028  16.1111005  62.8902502 140.3565176  15.2601554  61.4438508
 140.9669313  16.8780246  61.7946721 144.9350012  19.4924997  64.4399988
 146.4060012  18.0924997  62.8899988 145.0340012  14.7004997  66.6409988
 143.9120012  14.0174997  66.6219988 143.5230012  13.4124997  65.6579988
 143.1380012  14.3224997  67.9159988 142.2334342  13.7256068  67.9710488
 143.7078294  14.0821141  68.8101003 142.8330012  15.8154997  67.8439988
 143.7174107  16.3971404  68.0797420 142.5380176  16.1105975  66.8420332
 141.7210012  16.1674997  68.8389988 141.4803573  17.2244508  68.7577660
 140.8203324  15.6288402  68.5549094 142.0520012  15.8274997  70.2459988
 141.9686759  14.7481567  70.3590544 143.0917895  16.0746442  70.4459032
 141.2030012  16.4694997  71.2719988 141.7769480  17.1209054  71.9278620
 140.4410964  17.0967621  70.8132789 140.5200012  15.4054997  72.0959988
 139.9042483  15.8620805  72.8693573 139.8519572  14.7998454  71.4900134
 141.5550012  14.4874997  72.7499988 141.9162036  13.8209330  71.9755301
 142.3967994  15.1208795  73.0266784 141.1000012  13.6964997  73.9989988
 140.9653347  12.6340548  73.8625076 140.8720012  14.1854997  75.2169988
 140.5618931  13.5146436  76.0052849 141.0030012  15.6134997  75.6469988
 141.8024605  16.0768727  75.0713502 140.1051274  16.1819506  75.4316681
 141.3590012  15.7514997  77.1969988 142.3218912  15.2685629  77.3592328
 141.5133853  16.8102367  77.3962485 140.3280012  15.1924997  78.1979988
 139.3384514  15.3927683  77.7871572 140.4367947  14.1115790  78.2146885
 140.3970012  15.7174997  79.5839988 141.3569679  15.4276247  80.0054028
 140.3989555  16.8053235  79.5425204 139.2520012  15.2454997  80.5069988
 138.4145531  15.9404623  80.4897470 138.8459677  14.2839789  80.2049396
 139.7880012  15.1644997  81.9979988 140.5443647  15.9370845  82.1241332
 138.9676064  15.4343146  82.6605592 140.3540012  13.8724997  82.4529988
 139.5930618  13.1177602  82.6353575 141.0100194  13.4537301  81.6930086
 141.1620012  14.0974997  83.7279988 141.6607619  13.1830215  84.0346525
 140.5358303  14.4187351  84.5535040 141.9249941  14.8561047  83.5779950
   8.8390012 138.7094997  81.5159988   8.2382537 139.1306242  82.3161148
   9.7882332 139.2372654  81.5014442   9.0433108 137.6722634  81.7670175
   8.1190012 138.8194997  80.1579988   7.9043965 139.8704794  79.9720164
   7.1567125 138.3232247  80.2503338   8.9070012 138.2374997  78.9509988
   9.1430776 137.1906359  79.1414542   9.8625157 138.7526508  78.8749577
   8.2020012 138.3524997  77.6409988   7.8431409 139.3677497  77.4869315
   7.3216902 137.7126850  77.6036372   9.1570012 137.9814997  76.4749988
   8.5716064 137.9520949  75.5595637   9.4978859 136.9628478  76.6525123
  10.3920012 138.9054997  76.2549988  11.0763535 138.4729871  75.5273919
  10.9602244 139.0215665  77.1754485   9.9410012 140.2724997  75.7689988
   9.4846961 140.8519439  76.5694987   9.1889008 140.1912035  74.9854390
  11.1860012 141.0484997  75.2129988  11.6383491 140.4414849  74.4298223
  11.9245791 141.1164279  76.0095993  10.9190012 142.3754997  74.6949988
  11.4845298 143.1110597  75.2630391   9.8680124 142.6217503  74.8411505
  11.2690012 142.5064997  73.1979988  12.3104510 142.2092999  73.0962470
  11.2295082 143.5682032  72.9558111  10.4050012 141.7324997  72.2039988
  10.3120509 140.6830171  72.4750849  10.8054804 141.7488464  71.1918342
   8.9410012 142.3854997  72.2039988   8.6713711 142.6633271  73.2200355
   8.2196643 141.6319378  71.8933742   8.8110012 143.6264997  71.2519988
   9.1598904 143.3104903  70.2703337   9.5055697 144.3902713  71.5903794
   7.4560012 144.2384997  71.0849988   7.0642180 144.5262453  72.0550778
   6.7843935 143.4828988  70.6861223   7.4320012 145.4814997  70.1299988
   7.8501176 145.2258476  69.1646690   8.0087193 146.2947286  70.5544088
   6.5540012 145.2034997  68.9659988   5.3970012 144.8034997  68.9529988
   7.3220012 145.3384997  67.9369988   6.8100012 145.0694997  66.6379988
   7.2255835 145.7927256  65.9526539   5.7389496 145.2028358  66.6855603
   7.1670012 143.6464997  66.1899988   8.1107792 143.3248888  66.5983411
   7.1830012 143.5084997  64.7229988   8.0824858 143.9956558  64.3717051
   6.3254915 144.0718860  64.3767936   7.1240012 142.1984997  64.2549988
   8.4170012 141.2974997  64.3939988   8.4680012 140.6764997  62.9509988
   7.5310012 139.7344997  62.5479988   7.3336431 139.8686054  61.4924162
   6.6047443 139.9652438  63.0662674   7.8220012 138.2404997  62.8769988
   7.3128902 137.6585482  62.1191152   7.4374679 137.9598592  63.8469225
   9.3130012 137.7624997  62.8509988  10.2720012 138.4784997  63.6629988
  10.1830770 139.5351729  63.4511777  11.2595614 138.1352787  63.3927689
  10.0839181 138.2586940  64.7032042   9.3060012 136.3074997  63.1849988
   8.5797504 135.8151085  62.5566479   9.0698728 136.1876824  64.2272354
  10.2948908 135.9240462  62.9791890   9.9610012 137.7624997  61.3849988
   9.3796227 137.1213450  60.7392420  10.9738301 137.3933910  61.4448848
   9.9659921 138.7693061  60.9928879   9.6740012 142.0614997  64.6959988
   8.1480012 140.2144997  65.3759988   6.1500012 142.8404997  66.7019988
   6.5200012 141.8364997  67.5729988   7.6140012 141.6784997  68.0419988
   5.2920012 140.9834997  67.8629988   4.5376588 141.6198984  68.3141276
   4.8598969 140.6237679  66.9325225   5.6770012 139.8264997  68.7709988
   4.8449272 139.1310509  68.7790494   6.5048181 139.2986700  68.3082375
   6.0360012 140.1944997  70.2119988   6.4861729 139.3464562  70.7217258
   6.7879927 140.9797104  70.2077781   4.8190012 140.6894997  70.9929988
   4.3197073 141.4315431  70.3726898   4.1178736 139.8661363  71.1056704
   5.0860012 141.3234997  72.4019988   5.6380320 140.6645555  73.0690486
   5.6664664 142.2415887  72.3345175   3.7210012 141.6504997  73.0239988
   3.2700952 142.4585407  72.4500174   3.0617784 140.7935771  72.9171013
   3.7740012 142.0574997  74.5399988   2.7806556 142.3015061  74.8981964
   4.1143679 141.2098641  75.1333035   4.7170012 143.1964997  74.7499988
   4.4425891 144.1186641  74.2602387   5.8490012 143.2034997  75.4829988
   6.3639370 144.1511674  75.5491573   6.5230012 142.0794997  76.2439988
   6.2227270 141.1671641  75.7314558   7.5936458 142.1708491  76.0988905
   6.2290012 141.9134997  77.7139988   6.9374191 141.2170289  78.1609635
   6.3766536 142.8643181  78.2225280   4.8310012 141.4334997  77.9629988
   4.1515017 142.1443136  77.4927530   4.6998798 140.4930976  77.4348367
   4.4380012 141.2544997  79.4209988   3.3669247 141.0685114  79.3842759
   4.9000859 140.3143193  79.7170115   4.7360012 142.2834997  80.4359988
   5.8081604 142.3338448  80.6163596   4.4471889 143.2709475  80.0864859
   4.0370012 141.9724997  81.7909988   3.0064417 141.6920758  81.5807784
   4.5099642 141.0883015  82.2144766   4.0340012 143.1194997  82.8929988
   3.7529168 142.7478728  83.8752411   5.0352232 143.5292216  83.0069956
   3.0970012 144.2334997  82.4899988   3.1555399 145.0594487  83.1924590
   2.0639036 143.9039238  82.4611873   3.3482006 144.6180899  81.5055547
  12.0070012 143.5774997  80.2419988  11.6029355 143.2352067  81.1896250
  11.2030964 144.0607034  79.6942385  12.7586630 144.3321976  80.4565859
  12.5870012 142.4514997  79.4639988  11.8366098 141.6913694  79.2534808
  13.3740427 141.9559757  80.0259913  13.1390012 142.9864997  78.1509988
  13.9521318 142.3303889  77.8407307  13.5952424 143.9510017  78.3648931
  12.1530012 143.1614997  76.9809988  11.3287914 143.7836433  77.3228549
  11.7187522 142.1931855  76.7370695  12.7540012 143.7954997  75.6939988
  12.9287582 144.8481222  75.9014085  11.9730317 143.7589568  74.9362941
  14.0610012 143.1704997  75.1159988  13.9711599 142.0879538  75.0464286
  14.9044057 143.3639446  75.7754113  14.3730012 143.7614997  73.6839988
  14.4081483 144.8429384  73.8024253  13.4978330 143.5508664  73.0708557
  15.6260012 143.2944997  72.9499988  15.5630756 142.2500080  72.6474620
  16.5216225 143.3800326  73.5625594  15.7810012 144.1744997  71.7019988
  16.5230789 144.9351533  71.9349528  14.8388202 144.7027152  71.5610719
  16.1710012 143.4644997  70.3819988  17.0897337 142.9108705  70.5628973
  16.4160589 144.2307150  69.6469547  15.1020012 142.5314997  69.7999988
  14.1490518 142.9754483  70.0798881  15.1790693 141.6022051  70.3617817
  15.0660012 142.2224997  68.3389988  15.8331522 141.4988479  68.0743738
  15.2773982 143.1166514  67.7554973  13.6520012 141.6824997  67.9329988
  12.9076983 142.4517561  68.1317696  13.3785921 140.8288062  68.5467813
  13.5470012 141.3024997  66.4989988  14.3823280 140.6527642  66.2593785
  13.6788895 142.2114879  65.9181047  12.2230012 140.6184997  66.0539988
  11.3719606 141.2351754  66.3137719  12.1148330 139.6549788  66.5377303
  11.0860012 141.6114997  66.0899988  10.0840012 141.5044997  66.7199988
  11.4820012 142.6564997  65.3529988  10.6390012 143.8444997  65.4099988
  10.3429113 143.9679618  66.4407994   9.7573090 143.6878601  64.8056190
  11.4270012 145.0814997  64.9279988  10.7164712 145.8845777  64.8226096
  12.0970012 144.7844997  63.5549988  12.4423068 145.7372558  63.1770823
  11.2850292 144.4365250  62.9287399  13.1620012 143.8344997  63.5619988
  13.6880012 143.4594997  62.0999988  15.2040012 143.8814997  62.2909988
  16.0590012 143.2424997  63.1929988  17.0706480 143.1940609  62.8116678
  15.7305284 142.2157660  63.3261174  16.0280012 143.8714997  64.6229988
  16.4006653 143.1968123  65.3833720  14.9829687 144.0677167  64.8147879
  16.7550012 145.2014997  64.8529988  16.1290012 146.3044997  64.0319988
  16.0556909 145.9718539  63.0056916  16.7735259 147.1690508  64.0889119
  15.1620896 146.5452506  64.4477366  16.6660012 145.6364997  66.2709988
  16.9551203 144.8099615  66.9018385  15.6602317 145.9559566  66.4777478
  17.3537645 146.4596624  66.4001566  18.1370012 145.0944997  64.3089988
  18.6495707 144.2795617  64.7981108  18.6642531 146.0179248  64.4959252
  18.0926382 144.9128555  63.2448219  13.5080012 141.9694997  61.9579988
  13.1260012 144.2574997  60.9899988  12.4500012 145.4684997  65.8329988
  12.0630012 146.1644997  66.9069988  10.9090012 146.3874997  67.2009988
  13.3520012 146.6754997  67.6589988  13.8976507 145.7900913  67.9686303
  13.9900413 147.1812858  66.9385877  13.0230012 147.5944997  68.8489988
  12.4590819 148.4590131  68.5163240  12.3952163 147.0879916  69.5752004
  14.3250012 148.0704997  69.5239988  15.0191997 147.2340423  69.5330280
  14.7626464 148.8205982  68.8698704  14.1960012 148.6754997  70.9599988
  15.0750874 149.2695454  71.2029456  13.3432061 149.3440253  71.0495310
  14.0610012 147.5424997  72.0219988  13.2805674 146.8410388  71.7342892
  14.9844186 146.9680526  72.0631304  13.7630012 148.0874997  73.4159988
  12.9037040 148.7484224  73.3135752  13.4375585 147.2549851  74.0335136
  14.8570012 148.8084997  74.1259988  14.8930112 149.8311961  73.7691022
  14.6020638 148.8615243  75.1836099  16.2100012 148.1314997  73.9859988
  16.5203538 148.1427232  72.9520214  17.0880012 147.5364997  74.9129988
  18.0073335 147.0936720  74.5575529  16.8970012 147.4414997  76.4019988
  17.8513970 147.1974389  76.8654467  16.5818040 148.3844497  76.8346384
  15.8860012 146.3444997  76.7759988  15.1810755 146.2303819  75.9533434
  16.4265980 145.4024509  76.8449789  15.1150012 146.5804997  78.0819988
  14.5427727 145.6959966  78.3618487  15.7881668 146.7814419  78.9108378
  14.1440012 147.7824997  77.8999988  14.7343489 148.6887154  77.7842075
  13.5933973 147.6570831  76.9693049  13.1430012 147.9504997  79.0649988
  12.3277744 148.5859399  78.7241014  12.6949196 146.9853789  79.2849758
  13.7130012 148.5624997  80.3369988  14.2383285 147.7939084  80.9010747
  14.4620118 149.3057641  80.0698375  12.6880012 149.2174997  81.2509988
  12.0326916 149.8408811  80.6477741  12.0611509 148.4173028  81.6383703
  13.2250012 150.0324997  82.4259988  12.4128269 150.3785558  83.0582069
  13.7747430 150.9071965  82.0951962  13.8926864 149.4365851  83.0418098
   5.7580012 134.9234997  81.9589988   5.9317641 133.8853319  82.2244100
   5.7849138 135.5083198  82.8739037   6.5870570 135.2486162  81.3364414
   4.4520012 135.0914997  81.2469988   3.6740984 134.7065146  81.9041569
   4.4757148 134.4323975  80.3833808   4.0900012 136.5004997  80.8179988
   4.6733783 136.7620478  79.9352798   4.4052895 137.1867143  81.6014997
   2.6350012 136.7354997  80.5369988   2.5132316 137.7655182  80.2091512
   2.0745510 136.6467020  81.4663623   2.0130012 135.8004997  79.4719988
   0.9811641 136.1064687  79.3194597   1.9748409 134.8024225  79.9053009
   2.7080012 135.7354997  78.1309988   3.7063765 135.3236542  78.2668186
   2.8448054 136.7455567  77.7506748   1.9320012 134.8774997  77.0599988
   0.8560163 134.9281444  77.2164011   2.1999539 133.8239741  77.1271945
   2.2680012 135.4014997  75.6389988   3.3447109 135.4179235  75.4750555
   1.9253130 136.4265109  75.5101551   1.6050012 134.5064997  74.5729988
   0.5306846 134.6715647  74.6192435   1.7652301 133.4682048  74.8608310
   2.0960012 134.7154997  73.1119988   1.4469116 134.1463619  72.4501348
   3.0895442 134.2785913  73.0149814   2.1440012 136.1614997  72.6719988
   2.8271241 136.6942006  73.3301126   1.1640551 136.6096604  72.8268717
   2.5880012 136.4004997  71.2149988   2.3787642 137.4346835  70.9525053
   1.9652249 135.7897216  70.5640227   4.1200012 136.0584997  70.9229988
   4.3436843 135.0818170  71.3488026   4.7639273 136.7682165  71.4347948
   4.4970012 136.0234997  69.4319988   4.2486066 136.9671907  68.9575597
   3.9096466 135.2567956  68.9337302   5.9870012 135.7214997  69.2069988
   6.2655261 134.7992531  69.7008876   6.5985179 136.5249450  69.6001804
   6.2040012 134.2044997  69.0509988   6.5400012 133.3824997  69.9149988
   5.8070012 133.9504997  67.8359988   5.8700012 132.5614997  67.4059988
   6.0675453 132.0414550  68.3311971   6.7204554 132.4492910  66.7492425
   4.5570012 131.9994997  66.7319988   4.6466519 130.9290369  66.6485349
   4.3180012 132.5934997  65.3879988   3.6121694 131.9927713  64.8305691
   5.2571194 132.6145868  64.8492992   3.8160012 133.9184997  65.5649988
   3.4630012 134.6164997  64.1729988   2.1190012 133.8264997  63.7319988
   0.9790012 134.1414997  64.5089988   0.8672526 135.2072697  64.6601129
   1.0748201 133.6988102  65.4962382  -0.2809988 133.5404997  63.9249988
  -1.0758796 133.7203505  64.6377871  -0.1922323 132.4756275  63.7651714
  -0.7969988 134.1554997  62.5289988   0.1450012 133.9864997  61.3299988
   1.1284889 134.3369434  61.6115570  -0.2369987 134.5881915  60.5187386
   0.1560163 132.9474876  61.0366565  -2.0439988 133.5024997  62.1659988
  -2.7069568 133.5324502  63.0170591  -1.8360878 132.4913315  61.8648642
  -2.4715836 134.0572005  61.3433353  -1.0439988 135.6264997  62.7859988
  -1.7690786 135.7320432  63.5792212  -1.4235550 136.0850944  61.8852890
  -0.1173687 136.1033328  63.0713438   2.9830012 135.9904997  64.2699988
   4.5640012 134.4034997  63.1969988   3.4530012 132.2814997  67.6449988
   2.2030012 131.9134997  67.3529988   1.7880012 131.1044997  66.4949988
   1.1910012 132.6744997  68.2079988   1.6180761 133.6382989  68.4653915
   0.2964881 132.8905930  67.6291577   0.8520012 131.8354997  69.4669988
   1.6900138 131.1921210  69.7116613   0.7112538 132.4844924  70.3255042
  -0.4029988 130.9694997  69.2549988  -1.2329198 131.6409216  69.0498701
  -0.2384544 130.4030773  68.3416775  -0.8009988 129.9424997  70.4319988
  -1.0111472 128.9707429  69.9890174   0.0409409 129.7945438  71.1038980
  -2.0069988 130.3664997  71.2449988  -2.7532697 130.7876987  70.5744973
  -2.4556076 129.4727544  71.6743595  -1.7189988 131.3624997  72.3759988
  -0.7185915 131.7786177  72.2676846  -2.4056270 132.2040068  72.3490623
  -1.8429988 130.6434997  73.8079988  -1.7487586 131.3845451  74.5932061
  -2.8423271 130.2209081  73.9034213  -0.8319988 129.5354997  73.9809988
  -0.8122218 128.7546773  73.2356939   0.0570012 129.4474997  74.9819988
   0.7917736 128.6552363  74.9758133   0.1610012 130.3904997  76.1939988
   0.5347721 131.3668806  75.8903599  -0.7823145 130.5697998  76.6976733
   1.1910012 129.7624997  77.2159988   0.7544637 128.8365383  77.5884711
   2.0678599 129.4739575  76.6395257   1.6280012 130.6294997  78.3939988
   2.4668170 131.2533564  78.0852955   0.8253674 131.3108986  78.6622868
   2.0330012 129.8124997  79.6199988   1.1375329 129.2455050  79.8645364
   2.7557644 129.0915975  79.2418475   2.5810012 130.4594997  80.8539988
   3.3040504 131.2145700  80.5512471   1.7811044 130.9983713  81.3544062
   3.2700012 129.5174997  81.8359988   2.7000068 128.5952550  81.9332316
   4.2467735 129.2294595  81.4515736   3.4630012 130.1454997  83.2799988
   2.5052333 130.4699711  83.6791404   3.8097664 129.3583612  83.9459416
   4.4500012 131.2994997  83.3329988   4.6048933 131.6275048  84.3564684
   4.1025753 132.1565963  82.7660581   5.4152972 131.0065454  82.9298581
 135.7950012 131.2454997  81.5359988 135.4053511 132.2351629  81.3188159
 136.3521673 131.3056601  82.4664485 134.9476848 130.5859211  81.7022007
 136.6640012 130.7394997  80.4109988 137.4486716 131.4822087  80.2772879
 136.0464144 130.7838827  79.5180090 137.2970012 129.3604997  80.5419988
 138.2883853 129.5215170  80.9652717 137.4572846 129.0149244  79.5226568
 136.6010012 128.2724997  81.3099988 135.7010362 127.9756886  80.7759423
 136.2678747 128.6502433  82.2754222 137.4690012 127.0404997  81.5229988
 136.8705851 126.3131278  82.0655865 138.2703751 127.3400776  82.1963619
 138.1050012 126.3284997  80.2229988 138.6567522 125.4562865  80.5688775
 138.8437841 127.0108882  79.8081220 137.1370012 125.9084997  79.1249988
 137.0032115 126.7654559  78.4673542 136.1708873 125.7328032  79.5961513
 137.5100012 124.7204997  78.3129988 136.7703183 124.5344056  77.5353811
 137.5375431 123.8224757  78.9273915 138.9310012 124.9384997  77.6419988
 139.1291687 124.1006988  76.9768970 139.6904438 124.8933706  78.4216058
 139.0840012 126.2684997  76.8539988 140.0610552 126.2855033  76.3761125
 139.0720340 127.1035178  77.5540206 137.9910012 126.4724997  75.8129988
 137.0332954 126.4311814  76.3274241 138.0046792 125.6239058  75.1312148
 138.0500012 127.8114997  74.9789988 137.9212673 128.6641398  75.6413064
 137.2144101 127.8391008  74.2820800 139.3240012 127.9484997  74.2039988
 139.5534585 127.0160619  73.6910065 140.1706381 128.1551795  74.8526614
 139.2200012 129.0624997  73.1419988 140.1794952 129.1230697  72.6389605
 139.0911734 129.9940040  73.6867878 138.0950012 128.9514997  72.0819988
 137.1295931 128.8562002  72.5625674 138.2558438 128.0860893  71.4501257
 138.2060012 130.0844997  71.0729988 137.3680012 130.9704997  70.9309988
 139.3700012 130.0734997  70.3999988 139.5420012 131.0554997  69.3679988
 140.1392786 131.8258212  69.8320315 138.5917588 131.4756899  69.0719048
 140.2990012 130.4504997  68.1319988 140.5674543 131.2729884  67.4898623
 139.3760012 129.4294997  67.3429988 138.4288985 129.9288809  67.1899760
 139.2270168 128.6061687  68.0303959 139.8760012 128.9714997  66.1489988
 138.9110012 127.9644997  65.3439988 139.4240012 128.0174997  63.8299988
 139.8550012 129.3094997  63.3589988 140.5799018 129.2121487  62.5613580
 140.3573393 129.8287953  64.1700384 138.6790012 130.2484997  62.9369988
 139.1029271 131.2346589  62.7954864 137.9619985 130.2912662  63.7441265
 137.8440012 129.9484997  61.6309988 137.0730012 128.6974997  61.7859988
 137.7442963 127.9169918  62.1169131 136.6610863 128.4383561  60.8220119
 136.2713318 128.8647657  62.4896075 136.9180012 131.1404997  61.3699988
 137.5040395 132.0457001  61.4134175 136.1340939 131.1438514  62.1061021
 136.5015911 131.0155828  60.3809106 138.7950012 129.8194997  60.5129988
 139.3650037 130.7323198  60.4239010 138.2468521 129.6444378  59.5994694
 139.4606240 128.9891233  60.6996975 139.1890012 126.6444997  65.8049988
 137.5150012 128.4104997  65.4579988 141.5140012 129.8104997  68.5669988
 142.4310012 129.5974997  67.5579988 142.4070012 130.1934997  66.4969988
 143.4620012 128.5654997  68.0959988 144.0354552 128.2851139  67.2184526
 144.1434856 129.1278625  68.7294292 142.8960012 127.3184997  68.8469988
 142.1489269 126.8800584  68.1945340 143.7010869 126.5934162  68.9112163
 142.2750012 127.5424997  70.2519988 141.5774788 128.3757911  70.2247605
 141.6909796 126.6671248  70.5253167 143.3740012 127.7884997  71.3729988
 144.2696890 127.2029334  71.1740982 143.6947183 128.8260749  71.4257257
 142.8240012 127.3754997  72.7279988 141.8224805 127.7874696  72.8335360
 142.7072514 126.2935094  72.7211025 143.6730012 127.7724997  73.9549988
 144.7412280 127.7509213  73.7449350 143.4543654 128.7684244  74.3300325
 143.3560012 126.7654997  75.0409988 142.3096179 126.7924848  75.3219504
 143.5561588 125.7503342  74.7008195 144.2350012 127.0584997  76.2109988
 145.1114798 126.4539754  76.3895753 144.0010012 128.0634997  77.0679988
 144.7319909 128.2532764  77.8408175 142.8310012 128.9884997  77.0969988
 142.1435913 128.5991631  76.3479288 142.3361162 128.8691195  78.0543484
 143.0510012 130.4954997  76.8159988 143.2831799 130.6082401  75.7576568
 142.0974797 130.9963309  76.9722805 144.1510012 131.2064997  77.6699988
 145.0971458 130.7009705  77.4767180 144.2663836 132.2201200  77.2961476
 143.8990012 131.2454997  79.1819988 143.9278464 130.2417868  79.6001774
 144.6755529 131.8109259  79.6941956 142.5190012 131.8984997  79.4659988
 142.5388761 132.8979083  79.0354440 141.7681776 131.3486442  78.9051530
 142.0900012 132.0254997  80.9329988 142.3123203 131.0885551  81.4405341
 142.7129101 132.7812364  81.4080571 140.5720012 132.3904997  81.1929988
 139.9404344 131.6689897  80.6806884 140.3873075 132.2440228  82.2549525
 140.1470012 133.7854997  80.8159988 139.1182220 133.9681080  81.1115267
 140.2127892 133.9543368  79.7464629 140.7689557 134.5291016  81.3062739
   9.1540012  13.6984997  82.7469988   9.4552898  12.7837448  83.2478756
   8.7788462  14.3821092  83.5031249  10.0437165  14.1454826  82.3119991
   8.0780012  13.4184997  81.6569988   7.2037619  12.9531959  82.1091062
   8.4652790  12.7040025  80.9356641   7.6620012  14.6754997  80.9629988
   7.5295968  15.4645869  81.7030930   6.6828059  14.5139203  80.5166361
   8.6050012  15.1554997  79.8869988   8.6224457  14.4314673  79.0753813
   9.6222362  15.2002977  80.2729158   8.2180012  16.5254997  79.3139988
   8.6220303  17.2951231  79.9666957   7.1343443  16.6110296  79.3751330
   8.6900012  16.8224997  77.8019988   9.5219755  16.1512093  77.5970477
   9.1025728  17.8291340  77.7950024   7.6690012  16.6974997  76.7049988
   8.1724353  16.9106855  75.7637890   6.9382926  17.4927226  76.8461210
   6.9300012  15.3364997  76.5939988   6.5196134  15.1042989  77.5758927
   7.6765557  14.5716980  76.3880410   5.7760012  15.2454997  75.5099988
   6.1776874  15.3401575  74.5034060   5.0621981  16.0595762  75.6297551
   5.0470012  13.9154997  75.6389988   4.4160406  13.9622548  76.5238726
   5.7855720  13.1377582  75.8315092   4.2340012  13.5344997  74.4539988
   4.8451564  13.5518380  73.5541490   3.4275067  14.2460046  74.2853117
   3.6570012  12.1604997  74.6059988   3.1452814  12.1314612  75.5649141
   4.4967015  11.4729370  74.6886479   2.7020012  11.6514997  73.4679988
   1.7365762  12.1221874  73.6459306   2.5525993  10.5855907  73.6156168
   3.0920012  11.9064997  71.9949988   3.6096851  12.8436693  71.8187567
   2.2438526  11.8831814  71.3158873   4.0040012  10.7694997  71.6569988
   3.5191629   9.8224344  71.8570995   4.9121603  10.8263809  72.2452848
   4.6570012  11.0454997  70.3209988   4.0310012  11.0054997  69.2389988
   5.9400012  11.2484997  70.4309988   6.5940012  11.5724997  69.1589988
   6.1535674  10.8548965  68.4833318   7.6420823  11.3423637  69.2845191
   6.4020012  13.0184997  68.6109988   5.5187200  13.5189617  68.9718950
   6.3050012  12.8194997  67.0609988   6.0491273  13.7707971  66.6144982
   5.4898248  12.1268388  66.8927924   7.4930012  12.3204997  66.5059988
   7.7650012  12.0134997  64.9879988   7.0980012  13.0714997  64.1119988
   7.8250012  14.2664997  63.8559988   8.8656154  14.1738254  64.1383504
   7.4141444  15.0742319  64.4547996   7.6870012  14.7394997  62.3849988
   8.1547006  14.0445262  61.6990555   8.2040562  15.6863844  62.3263447
   6.2980012  14.9894997  61.8349988   6.4720012  15.8894997  60.6579988
   7.0731035  16.7370735  60.9573792   5.4939411  16.2279954  60.3499092
   6.9320631  15.3323366  59.8557337   5.5470012  13.7574997  61.3899988
   5.5900190  13.0252872  62.1816606   5.9905020  13.3840074  60.4843606
   4.5225468  14.0505749  61.2114013   5.3990012  15.7724997  62.8379988
   5.3259425  15.2151107  63.7599868   4.4151944  15.8959783  62.4107666
   5.8337063  16.7427860  63.0303808   9.2190012  11.9624997  64.8359988
   7.0560012  10.6704997  64.7789988   7.4900012  13.7974997  69.0149988
   7.3260012  14.6264997  70.0739988   6.3130012  14.8594997  70.7029988
   8.6260012  15.4304997  70.1059988   9.2446765  14.9763209  69.3388512
   8.3804988  16.4244230  69.7402776   9.3520012  15.5024997  71.4649988
  10.2524184  16.0954086  71.3476581   8.7315584  16.0368221  72.1774476
   9.7330012  14.1044997  72.0389988   9.1512267  13.3332222  71.5406781
  10.7737239  13.9025706  71.7977814   9.5550012  13.9994997  73.5489988
  10.3667954  14.5863206  73.9748359   8.6369528  14.5281133  73.7938595
   9.5370012  12.6564997  74.2249988  10.4456297  12.1098140  73.9812161
   9.5525000  12.8043171  75.3030947   8.2790012  11.7744997  73.8539988
   7.3971872  12.3941779  74.0092533   8.3179972  11.5578329  72.7901130
   8.1060012  10.4074997  74.6449988   8.8302761   9.6795990  74.2983485
   8.3154006  10.5693616  75.7015491   6.7150012   9.8884997  74.5089988
   6.3103420   9.8755285  73.5081807   5.9430012   9.4374997  75.4729988
   4.9569677   9.0425195  75.2746587   6.3410012   9.4134997  76.9579988
   5.8216812   8.6187997  77.4908962   7.3988608   9.2598665  77.1396874
   5.9180012  10.7324997  77.5499988   6.3750822  11.5566520  77.0035970
   4.8422421  10.8554032  77.4400158   6.2810012  10.8334997  79.0069988
   7.2967639  10.4764367  79.1768194   6.2609050  11.8651492  79.3472918
   5.2820012   9.9794997  79.8669988   4.2700017  10.2124813  79.5433915
   5.4383654   8.9259040  79.6421181   5.4080012  10.1924997  81.3419988
   5.8571588  11.1608394  81.5545209   4.4369788  10.2023748  81.8294852
   6.3090012   9.0994997  81.9749988   5.9211024   8.1100816  81.7394794
   7.3070836   9.1430789  81.5428342   6.4320012   9.2234997  83.4869988
   5.4467903   9.3474674  83.9296120   6.8106653   8.2775571  83.8679438
   7.3640012  10.3654997  83.9729988   7.4738954  10.3400498  85.0529731
   6.9779999  11.3441769  83.7085466   8.3548752  10.2729098  83.5374109
 130.1020012 140.0524997  83.0319988 130.2010505 138.9863108  82.8535063
 129.1384730 140.2212570  83.5041476 130.8714896 140.3414480  83.7426382
 130.2310012 140.8674997  81.6989988 129.4648324 140.5114577  81.0123966
 131.1865778 140.6128569  81.2486164 130.1060012 142.3994997  81.8489988
 130.7208668 142.6932558  82.6996318 129.0764843 142.6023949  82.1372686
 130.4580012 143.2854997  80.6369988 131.5285336 143.4762996  80.6653835
 129.9758012 144.2534803  80.7642887 130.0850012 142.6954997  79.2099988
 129.0010959 142.6626500  79.1348777 130.4238939 141.6609741  79.1934550
 130.6310012 143.4114997  78.0189988 131.6650118 143.7002036  78.1986903
 130.0814185 144.3358018  77.8540700 130.5590012 142.5504997  76.7579988
 129.6299945 141.9835693  76.7755100 131.3636054 141.8171459  76.7901595
 130.6470012 143.3514997  75.4259988 131.5479092 143.9627236  75.4609416
 129.8095579 144.0460539  75.3948979 130.6550012 142.5074997  74.1359988
 129.7193567 141.9550276  74.0822858 131.4439316 141.7610104  74.2191828
 130.8480012 143.3034997  72.8449988 131.0900719 142.6072655  72.0450246
 131.7173699 143.9503069  72.9601830 129.6830012 144.1214997  72.4659988
 129.2920122 144.6173623  73.3518819 128.8829853 143.4797046  72.1010306
 129.9920012 145.1824997  71.4199988 130.8196804 145.8124682  71.7367097
 129.1389933 145.8453854  71.2872205 130.3050012 144.5444997  70.1149988
 129.4861877 143.8815718  69.8405481 131.1882292 143.9177284  70.2006724
 130.5060012 145.5264997  68.9879988 131.1916665 146.3055771  69.3046159
 129.5545099 146.0095781  68.7821067 131.0260012 144.8934997  67.6849988
 130.3739664 144.0896332  67.3676812 132.0232419 144.4954945  67.8305043
 132.5500012 144.6104997  67.6859988 133.3700012 144.8314997  68.5459988
 132.7890012 144.2374997  66.4769988 134.1860012 144.3214997  65.9529988
 134.6569616 144.8735742  66.7522934 134.3430863 144.8456069  65.0214260
 134.7410012 142.9274997  65.8859988 135.7476359 143.0715619  65.5298716
 133.9630012 142.0024997  64.9099988 134.5161696 141.0781826  64.8128205
 133.9601670 142.5074772  63.9520976 132.5830012 141.7334997  65.3529988
 131.6880012 140.7314997  64.5519988 131.0860012 141.5714997  63.3549988
 130.5860012 142.8734997  63.5869988 131.3573564 143.6325582  63.5815034
 130.1081692 142.9269915  64.5609660 129.4850012 143.2034997  62.5819988
 129.9015075 143.3692177  61.5964487 128.9896816 144.1073538  62.9061641
 128.3800012 142.1624997  62.3969988 128.8120012 141.0214997  61.5599988
 129.2400436 141.4071658  60.6449166 127.9399849 140.4270365  61.3313043
 129.5202999 140.4266438  62.1169336 127.8970012 141.6214997  63.7069988
 127.6735819 142.4517780  64.3592531 128.6564970 140.9857464  64.1257514
 126.9997600 141.0526060  63.5104912 127.2590012 142.9554997  61.6319988
 126.9614108 143.8092516  62.2224474 126.4089018 142.3080512  61.4777534
 127.6394068 143.2861520  60.6762815 132.6070012 139.7144997  63.8989988
 130.6330012 140.2364997  65.5579988 134.8760012 142.4374997  67.2359988
 135.7230012 141.3934997  67.3919988 136.0820012 140.6464997  66.4709988
 136.0730012 141.1884997  68.9189988 136.8398446 140.4361404  69.0721642
 136.4295984 142.0834862  69.4227293 134.6700012 140.7304997  69.4949988
 133.9334662 141.5137707  69.3533526 134.2944429 139.8648567  68.9586675
 134.7790012 140.4114997  70.9799988 133.9622702 139.7739151  71.3087700
 135.6938885 139.8584616  71.1779761 134.8010012 141.6944997  71.7979988
 135.7259725 142.2168056  71.5606580 133.9927954 142.3412094  71.4651745
 134.7080012 141.5264997  73.4149988 134.4006219 142.4787803  73.8422933
 133.9032111 140.8253673  73.6273839 135.9820012 141.0394997  74.1199988
 136.2209015 140.0456861  73.7445494 136.8147938 141.6800577  73.8434850
 135.8830012 140.9924997  75.6869988 136.8922560 140.9808225  76.0817752
 135.4376328 141.9320637  76.0113635 135.0690012 139.8564997  76.2449988
 135.1078716 138.9027848  75.7405475 134.3320012 139.9334997  77.2969988
 133.8726118 138.9974720  77.5805893 133.9910012 141.0954997  78.2169988
 133.9710606 142.0179457  77.6391434 133.0086449 140.9968225  78.6652398
 135.0620012 141.2474997  79.3429988 135.0831438 140.3423968  79.9488426
 136.0455270 141.3282389  78.8840685 134.8350012 142.4194997  80.2149988
 133.9092660 142.2322663  80.7591174 135.6277711 142.4266760  80.9579445
 134.7560012 143.7764997  79.5489988 135.5851141 143.8451352  78.8482806
 133.8477909 143.8055890  78.9495049 134.7730012 144.9884997  80.5059988
 135.6896183 144.8797381  81.0826909 134.9240284 145.8560893  79.8695209
 133.6190012 145.2534997  81.4949988 133.5885630 146.3140928  81.7381012
 132.6718197 145.0281577  81.0082728 133.6970012 144.4414997  82.8259988
 132.6963636 144.3221287  83.2339082 134.0347955 143.4390125  82.5725673
 134.6270012 145.0174997  83.9099988 134.6878799 144.3467726  84.7617546
 134.2774837 145.9769340  84.2761468 135.6337554 145.1575293  83.5266210
 137.1260012  -1.7285003  83.7149988 137.8750385  -2.3285503  84.2222582
 136.3843870  -2.4052724  83.3005376 136.6305580  -1.1163358  84.4635993
 137.7690012  -0.8415003  82.5989988 138.2844809  -1.5103516  81.9118877
 138.5391407  -0.2417164  83.0764486 136.8080012   0.0664997  81.7989988
 136.2845203   0.7432032  82.4742537 136.0397669  -0.5460194  81.3312301
 137.4990012   0.8714997  80.7239988 138.3140274   1.4290803  81.1801632
 136.8079173   1.6153934  80.3306400 138.0750012   0.0204997  79.5399988
 138.7847865  -0.7072328  79.9249446 138.6384585   0.6765329  78.8785601
 136.9550012  -0.7455003  78.6939988 136.5015752  -0.1022491  77.9420349
 136.1405518  -1.0998672  79.3222292 137.6230012  -1.9515003  77.9979988
 136.8727258  -2.5083759  77.4396562 138.0108785  -2.6352412  78.7518419
 138.7360012  -1.5525003  77.0709988 139.0904962  -2.4686968  76.6005009
 139.5513903  -1.1981677  77.6989103 138.4620012  -0.5775003  76.0589988
 138.2744476   0.3652820  76.5684359 137.5208592  -0.8613984  75.5897114
 139.5520012  -0.3605003  74.9459988 139.6774525  -1.2890601  74.3934251
 140.5106705  -0.1568907  75.4223654 139.2190012   0.7724997  73.9899988
 138.8232423   1.6277721  74.5335288 138.4456004   0.4803218  73.2817535
 140.4490012   1.2184997  73.2299988 141.1043827   1.7235096  73.9354482
 140.1291218   1.9757577  72.5166212 141.2250012   0.1284997  72.4739988
 141.7238198  -0.5347136  73.1786831 142.0062280   0.5499210  71.8476102
 140.3000012  -0.7135003  71.6129988 139.4909045  -1.0022947  72.2757999
 140.8777917  -1.6117680  71.4120875 139.7280012  -0.2195003  70.3269988
 140.5173415   0.1060069  69.6613953 139.0590872   0.6137391  70.5068186
 139.1470012  -1.3895003  69.4799988 138.7100012  -2.4145003  69.9549988
 139.1260012  -1.0775003  68.1849988 138.8420012  -2.2015003  67.3219988
 138.1330751  -2.8488929  67.8157281 139.7783960  -2.7274239  67.2046909
 138.2960012  -1.7525003  65.9729988 138.1994167  -2.6216280  65.3435685
 139.1080012  -0.6805003  65.2549988 140.0049040  -1.1496582  64.8738725
 139.3883600   0.0372051  66.0158422 138.3690012  -0.0105003  64.1609988
 138.9200012   1.2354997  63.5129988 137.8380012   2.3244997  63.9709988
 136.5370012   1.8484997  64.1039988 136.4700352   1.0881464  64.8711803
 136.2350995   1.3752414  63.1741176 135.5050012   2.9664997  64.3419988
 135.8947563   3.5499260  65.1665918 134.5606787   2.5334244  64.6387779
 135.1790012   3.9664997  63.2459988 134.2610012   3.3134997  62.2229988
 134.6994598   2.3740025  61.9156989 134.1855958   3.9749788  61.3727874
 133.2849920   3.1776320  62.6642052 134.4350012   5.1394997  63.9439988
 135.0124501   5.4498313  64.8012974 133.4518590   4.8109426  64.2300963
 134.3661728   5.9482767  63.2309495 136.4070012   4.5174997  62.5099988
 137.0639775   4.9944224  63.2220442 136.0853237   5.2393453  61.7743953
 136.9262925   3.7075347  62.0183400 140.2160012   1.5694997  64.1089988
 138.7660012   1.0564997  62.0589988 137.0290012  -1.1595003  66.2109988
 135.9820012  -1.9905003  66.2289988 136.0200012  -3.1695003  65.9009988
 134.8040012  -1.1695003  66.6999988 135.0484644  -0.1127768  66.6664411
 133.9364675  -1.2946468  66.0568575 134.5010012  -1.6525003  68.1519988
 133.4348911  -1.5212812  68.3011691 134.6773248  -2.7232616  68.1723298
 135.2490012  -0.9845003  69.2939988 135.2316487  -1.6312189  70.1675593
 136.2939599  -0.8861441  69.0103577 134.7110012   0.3964997  69.6549988
 134.9769053   1.0712850  68.8434165 133.6245592   0.3584909  69.6750298
 135.2090012   1.0044997  70.9699988 136.2827763   0.8573511  71.0662030
 135.0515563   2.0811297  70.9485535 134.5300012   0.4514997  72.1599988
 133.4504990   0.5772647  72.0924762 134.7076345  -0.6135282  72.2803316
 135.0490012   1.1804997  73.4089988 136.1308479   1.1370688  73.4569723
 134.7863167   2.2363915  73.3596504 134.4260012   0.5864997  74.6459988
 134.8631819  -0.3439205  74.9757644 133.4080012   1.0844997  75.3839988
 133.0758742   0.5437740  76.2585943 132.6380012   2.3804997  75.1219988
 132.9131146   2.7509667  74.1359523 131.5675236   2.2102018  75.0944762
 132.9560012   3.4814997  76.1579988 132.2992405   4.3356492  75.9973779
 132.7280688   3.1068191  77.1540512 134.4830012   3.9654997  76.1139988
 134.9990937   3.5738003  75.2374561 134.5645591   5.0473993  76.0561579
 135.2030012   3.4574997  77.4049988 134.7513577   3.8637923  78.3072679
 135.1600420   2.3742904  77.5044832 136.6260012   3.8854997  77.3119988
 137.1735371   3.3027314  76.5736388 136.7317965   4.9234780  77.0086290
 137.2960012   3.6654997  78.6799988 136.5359671   3.6504371  79.4591036
 137.7659537   2.6838377  78.6978444 138.3700012   4.7354997  79.0549988
 139.0314164   4.4079336  79.8532127 139.0142145   4.9435390  78.2035166
 137.6650012   6.0454997  79.4759988 138.3906468   6.8327314  79.6570334
 137.0870614   5.9207623  80.3854861 136.9882264   6.3915568  78.6998793
 142.4660012   7.8694997  79.8319988 142.6408602   6.8044226  79.9480342
 141.6661275   8.1498478  80.5112609 143.3655212   8.3887340  80.1511717
 142.1070012   8.2254997  78.3639988 141.2209063   7.6649193  78.0711018
 142.9111819   7.8848459  77.7174214 141.8440012   9.7694997  78.1379988
 141.0872252  10.1403721  78.8291376 141.4485270   9.9399375  77.1386379
 143.1340012  10.6004997  78.3019988 143.3495194  10.6578140  79.3666663
 142.9228064  11.6196354  77.9818971 144.4040012  10.0804997  77.5639988
 144.7058984   9.1221590  77.9787448 145.2283312  10.7670674  77.7496591
 144.2060012   9.9274997  76.0589988 143.7376158  10.8102939  75.6275982
 143.5504268   9.0910097  75.8264396 145.6170012   9.6934997  75.3709988
 146.1387766   8.8811672  75.8736283 146.2377803  10.5791878  75.4991385
 145.4990012   9.3724997  73.8849988 144.7923367  10.0535055  73.4124446
 145.0927317   8.3716965  73.7507526 146.8550012   9.4694997  73.1659988
 147.4997028   8.6464669  73.4668606 147.3718489  10.3825918  73.4587583
 146.6820012   9.4504997  71.6139988 147.6622096   9.5540340  71.1538128
 146.1088928  10.3266890  71.3118928 145.9940012   8.2014997  71.0949988
 144.9472102   8.2299226  71.3898915 146.4203629   7.3240720  71.5781802
 146.0620012   8.0254997  69.5829988 147.1128793   7.9659893  69.3103586
 145.6840740   8.9440550  69.1379178 145.2690012   6.8014997  68.9669988
 145.2624249   6.8481023  67.8793237 144.2279745   6.7774815  69.2767740
 145.9820012   5.4144997  69.4029988 145.6475328   5.0720590  70.3767597
 147.0599152   5.5377995  69.4661693 145.6880012   4.3834997  68.4019988
 145.9834778   4.7178110  67.4156061 144.6277863   4.1601652  68.3903726
 144.2280012   4.0984997  68.3449988 143.4710012   4.1594997  69.3459988
 143.8810012   3.8384997  67.0229988 142.5720012   3.3424997  66.7789988
 142.2532355   3.0510747  67.7684036 142.4727910   2.4977462  66.1128599
 141.7330012   4.5474997  66.2769988 140.7584041   4.1153809  66.1210248
 142.2590012   5.1334997  64.9629988 141.4347118   5.5601586  64.4077419
 142.6782650   4.3167430  64.3887937 143.2620012   6.1314997  65.2209988
 144.5680012   6.3234997  64.3489988 144.0050012   7.1224997  63.0929988
 142.9890012   8.1414997  63.3749988 142.8923576   8.3846280  64.4251119
 142.0081425   7.8133574  63.0432821 143.3120012   9.4604997  62.5019988
 142.5703591  10.2041386  62.7650903 143.2004835   9.2137098  61.4560372
 144.6550012  10.1554997  62.6249988 145.0410012  10.2574997  64.1399988
 144.2096615  10.6898210  64.6797270 145.9027350  10.9031499  64.2215493
 145.2902287   9.2725212  64.5052659 145.7690012   9.5274997  61.9209988
 145.4653922   9.3324456  60.9039002 146.0402320   8.6205975  62.4312264
 146.5939577  10.2250430  61.9343004 144.4290012  11.5104997  62.0089988
 144.1009102  11.3865615  60.9876870 145.3539682  12.0670618  62.0270152
 143.6764009  12.0421875  62.5732114 145.5050012   7.1674997  65.0589988
 145.0130012   4.9604997  63.8879988 141.5870012   5.5364997  67.3309988
 140.8480012   6.6434997  67.1229988 140.0640012   6.8394997  66.2229988
 141.2670012   7.5664997  68.2109988 142.2513762   7.9287800  67.9329490
 140.6121954   8.4339049  68.1837103 141.2660012   6.9414997  69.5489988
 141.7186032   5.9639433  69.4241149 141.9549198   7.5152353  70.1607598
 139.9230012   6.7844997  70.2819988 139.3166302   7.6835901  70.2071348
 139.3368285   5.9854324  69.8348321 140.1760012   6.4384997  71.7659988
 140.8699765   7.1573748  72.1976499 139.2626885   6.5082596  72.3518278
 140.7820012   5.0004997  71.9409988 140.1738333   4.2991622  71.3734086
 141.7644416   4.9973446  71.4728301 140.9230012   4.5044997  73.3669988
 139.9406280   4.3051329  73.7923186 141.4696199   3.5663695  73.4049176
 141.6620012   5.5454997  74.2489988 142.6368911   5.6872149  73.7972396
 141.1237358   6.4832084  74.1173979 141.7870012   5.2524997  75.7759988
 140.9275354   5.4823556  76.3875859 142.8890012   4.7144997  76.4149988
 142.8129267   4.5482435  77.4799784 144.2160012   4.3114997  75.8229988
 144.5874046   3.4978877  76.4437371 144.0483084   3.8898010  74.8382499
 145.3310012   5.4104997  75.7359988 146.2078549   4.9453103  75.2871876
 144.9817729   6.1525566  75.0205618 145.7420012   6.1274997  77.0589988
 146.6814455   6.6343985  76.8385338 145.0050560   6.9097593  77.2186412
 145.9030012   5.2954997  78.3599988 146.0774656   5.9433111  79.2161807
 145.0003359   4.7301783  78.5851479 147.1000012   4.3064997  78.1869988
 146.8177076   3.5233657  77.4858557 147.9423404   4.8215008  77.7332771
 147.5460012   3.6214997  79.5179988 148.4172826   2.9919522  79.3464718
 147.8546973   4.3731950  80.2422189 146.4100012   2.7394997  80.1659988
 146.7956881   2.2255577  81.0429390 145.6370819   3.4113332  80.5328074
 145.7700012   1.7244997  79.2229988 144.9415851   1.2168548  79.7078622
 146.4759907   0.9645038  78.9056251 145.3841490   2.2095635  78.3308260
 138.1540012 136.8904997  79.9439988 138.8271008 137.1909731  80.7409189
 138.6667782 136.1478054  79.3396356 137.2955509 136.4063794  80.4014949
 137.7370012 138.0514997  79.1259988 138.6291816 138.5236583  78.7182203
 137.2790996 138.7831977  79.7861186 136.7870012 137.7074997  77.9859988
 135.9003388 138.3353540  78.0729338 136.4469205 136.6842289  78.1323993
 137.3510012 137.8304997  76.5849988 138.2535733 137.2242180  76.5528127
 137.6751087 138.8610810  76.4487548 136.4130012 137.4094997  75.3739988
 135.4421275 137.8658067  75.5493879 136.2658563 136.3344202  75.4629793
 136.8610012 137.7364997  73.9679988 136.0779424 137.3968428  73.2925217
 137.7334877 137.1223470  73.7554882 137.1990012 139.2454997  73.6569988
 138.0883805 139.4945588  74.2329709 136.3892261 139.8424406  74.0743187
 137.4150012 139.6384997  72.2069988 136.4656534 139.5846673  71.6756872
 138.0710946 138.9118869  71.7313315 138.0030012 141.0264997  72.0409988
 138.9796312 141.0525548  72.5195965 137.3806695 141.7380760  72.5822375
 138.1350012 141.4654997  70.6319988 138.4123163 142.5171391  70.6532068
 137.1417958 141.4206799  70.1859457 139.0860012 140.7064997  69.7819988
 138.7320816 139.6804104  69.7083595 140.0494360 140.6583832  70.2865839
 139.2930012 141.2734997  68.3059988 139.3253174 142.3599870  68.3328285
 138.4300185 141.0100337  67.6972980 140.6170012 140.6974997  67.5969988
 141.4821733 141.2601200  67.9436795 140.5713285 140.8419358  66.5212078
 140.8640012 139.2404997  67.8869988 139.9132691 138.7324663  67.7630810
 141.1122260 139.1898757  68.9438401 141.9210012 138.5064997  67.1119988
 142.8730892 139.0152423  67.1941593 141.6480648 138.4463666  66.0651183
 141.8240012 137.0744997  67.4729988 142.1670012 136.5354997  68.5569988
 141.2240012 136.3584997  66.5319988 141.1900012 134.9314997  66.7659988
 141.2252871 134.7570064  67.8307847 141.9888898 134.3805877  66.2911672
 139.8010012 134.5064997  66.1939988 139.6212906 133.4995093  66.5324785
 139.6670012 134.5744997  64.6889988 138.8234731 134.0040343  64.3245394
 140.5668455 134.2062953  64.2122486 139.4900012 135.9534997  64.4119988
 139.8170012 136.7784997  63.1379988 138.7550012 137.9334997  63.1779988
 138.1250012 138.2664997  64.3569988 137.9109522 139.3268604  64.3887327
 138.8054626 138.0648997  65.1792680 136.8150012 137.4064997  64.6759988
 136.2808177 137.8662581  65.4978985 137.0942276 136.4025806  64.9615791
 135.7670012 137.2494997  63.5209988 134.4940012 136.7114997  64.1579988
 134.7448239 135.8415096  64.7492172 133.8178975 136.4294451  63.3646331
 134.0455643 137.4900790  64.7566936 135.2930012 138.6064997  62.9679988
 136.1609812 139.2082736  62.7462042 134.6611356 139.0813588  63.6971247
 134.7370031 138.4100046  62.0627072 136.2350012 136.2894997  62.4689988
 137.1735089 136.6366078  62.0630416 135.4973099 136.2380214  61.6823530
 136.3653754 135.3102685  62.9066560 141.1330012 137.3934997  63.3589988
 139.5910012 135.9544997  61.9459988 138.7970012 135.4064997  66.8369988
 137.4940012 135.0064997  66.8329988 137.0440012 134.0154997  66.2789988
 136.6970012 135.7734997  67.8939988 137.1469615 136.7500297  68.0405520
 135.6800943 135.9618629  67.5588470 136.7090012 134.9134997  69.2169988
 135.9751630 135.3583397  69.8800673 136.3260785 133.9304898  68.9618620
 138.0820012 134.7714997  69.9859988 138.0290612 133.9818270  70.7311621
 138.8640144 134.4791552  69.2895398 138.4980012 136.1294997  70.6669988
 138.3928716 136.9480932  69.9573803 137.8525005 136.3714036  71.5078396
 139.9260012 136.0964997  71.1439988 140.0258023 135.1855306  71.7305788
 140.5251839 135.9468981  70.2479070 140.5110012 137.2794997  71.9349988
 140.4285326 138.1792694  71.3272864 139.9157654 137.4560820  72.8265318
 141.9570012 137.0844997  72.3479988 142.0890800 136.1191406  72.8225692
 142.5948141 137.0820627  71.4650861 142.3900012 138.1814997  73.2409988
 142.5422939 139.2017172  72.9223812 142.6030012 137.9014997  74.5739988
 142.9413786 138.7280759  75.1821783 142.4320012 136.5994997  75.3379988
 142.8655562 135.8378787  74.6921006 143.0654232 136.6488142  76.2166486
 141.0090012 136.1324997  75.7529988 140.5466263 136.8752498  76.4020262
 140.3777144 136.0673537  74.8688653 141.0250012 134.8014997  76.4469988
 140.0432130 134.3530083  76.2951615 141.7328994 134.1686278  75.9189294
 141.3450012 134.7984997  77.8969988 142.3026206 135.2951148  78.0365817
 140.6085167 135.4048891  78.4213722 141.3840012 133.4364997  78.5059988
 140.5951557 132.8198231  78.0793574 142.3169147 132.9358888  78.2616914
 141.1900012 133.4674997  80.0079988 140.1243263 133.5347828  80.2194061
 141.5193357 132.5143225  80.4176645 141.9230012 134.6174997  80.7759988
 142.9456888 134.7199336  80.4216933 141.4307855 135.5571386  80.5349274
 141.9260012 134.4394997  82.3009988 142.3669940 135.3034594  82.7890232
 142.4951373 133.5679777  82.6064076 140.9154807 134.3239937  82.6826371
   3.9280012 139.4544997  82.0179988   3.7302779 138.6535871  82.7236004
   4.9413386 139.3275088  81.6481198   3.2524982 139.3277103  81.1764334
   3.7420012 140.8434997  82.6769988   4.4106956 140.8642913  83.5358459
   2.7315631 140.8491493  83.0767450   3.9770012 142.0874997  81.8289988
   4.9941907 142.0475062  81.4395697   3.9423584 142.9490878  82.4928035
   3.0140012 142.3234997  80.6859988   1.9972013 142.2635054  81.0677955
   3.1100789 141.5205035  79.9568402   3.2030012 143.7394997  79.9469988
   2.9350070 144.5270292  80.6466768   2.4731009 143.7859548  79.1404924
   4.6160012 144.0334997  79.3759988   5.3720564 143.6862777  80.0778779
   4.7563686 145.1084776  79.2849138   4.8480012 143.3854997  78.0319988
   4.3131268 142.4407443  77.9537892   5.9015727 143.1516957  77.8851900
   4.3770012 144.3294997  76.9129988   5.0854706 145.1559446  76.8741305
   3.4286844 144.7569788  77.2333750   4.2160012 143.7404997  75.5189988
   3.4724601 142.9471890  75.5556847   5.1518616 143.2660634  75.2263343
   3.8060012 144.7834997  74.4329988   4.4567940 145.6523931  74.5022220
   2.7962228 145.1418897  74.6313248   3.8630012 144.1994997  73.0249988
   3.2935345 144.8764704  72.3917852   3.3041774 143.2655279  73.0482514
   5.2440012 143.9534997  72.3599988   5.7971713 143.2110586  72.9300892
   5.8303720 144.8694087  72.4041561   5.1280012 143.5124997  70.8839988
   6.1212762 143.4838915  70.4392085   4.5578554 144.2366625  70.3088501
   4.5070012 142.1564997  70.7169988   3.4355399 142.1713033  70.8875764
   4.9281799 141.4463968  71.4237197   4.7940012 141.6354997  69.2459988
   5.8571220 141.6438963  69.0416841   4.2951297 142.2648899  68.5186308
   4.1080012 140.3134997  69.0059988   3.3780012 139.7074997  69.7739988
   4.3890012 139.8944997  67.8019988   3.7860012 138.6674997  67.3949988
   3.1479803 138.2869224  68.1782946   4.6135799 137.9878729  67.2521255
   2.9460012 138.8504997  66.0289988   2.4719074 137.9212261  65.7595924
   3.9290012 139.3034997  64.8809988   4.6484777 138.5229874  64.6737424
   4.4607717 140.1859299  65.2143484   3.1510012 139.6004997  63.6999988
   3.1390012 140.9424997  62.9829988   1.9860012 141.7104997  63.8749988
   0.6750012 141.7604997  63.2989988   0.1467187 140.8205124  63.3913605
   0.7470803 141.9701177  62.2356729  -0.1539988 142.9214997  63.8849988
  -0.3003707 142.6339633  64.9185108  -1.1155173 143.1508894  63.4488342
   0.6200012 144.2524997  63.9259988   0.9660012 144.6864997  62.4429988
   1.4373880 143.8530849  61.9404569   1.6531715 145.5181246  62.4909242
   0.0578442 144.9948448  61.9471245  -0.3389988 145.2844997  64.4769988
  -0.7806090 144.8938737  65.3809379  -1.0870666 145.5000202  63.7351663
   0.2346726 146.1728153  64.6985692   1.8770012 144.2634997  64.8979988
   1.5523038 144.0332691  65.9018152   2.3306953 145.2430349  64.8800466
   2.5949095 143.5267303  64.5675241   4.4010012 141.6214997  63.1089988
   2.7000012 140.7164997  61.5859988   1.9630012 139.9374997  66.1219988
   1.0520012 139.8234997  67.0399988   0.7860012 138.7954997  67.6569988
   0.3840012 141.2174997  67.2679988   1.1802757 141.9541945  67.2400598
  -0.2565126 141.4394855  66.4180744  -0.4129988 141.2744997  68.5979988
  -1.0517463 142.1506563  68.5776973  -1.0787651 140.4188872  68.6501090
   0.4910012 141.3264997  69.8829988   1.0288697 140.3852776  69.9633255
   1.2444593 142.0933064  69.7206003  -0.2429988 141.6304997  71.2049988
  -0.6235406 142.6499319  71.1794689  -1.1097569 140.9855214  71.3272097
   0.6740012 141.4814997  72.4529988   1.2016671 140.5347246  72.3576751
   1.4314431 142.2593064  72.3776369   0.0410012 141.5614997  73.8009988
  -0.6651482 142.3892613  73.7578165  -0.5507359 140.6604744  73.9363454
   0.9670012 141.7394997  75.0389988   1.6404846 142.5622466  74.8290283
   0.3373601 142.0622225  75.8670979   1.7040012 140.5474997  75.4499988
   2.3852735 140.1207868  74.7293476   1.6200012 139.9354997  76.6599988
   2.2163846 139.0659881  76.8964019   0.7340012 140.3774997  77.7609988
   1.0793803 139.9435900  78.6978321   0.7478950 141.4526093  77.9010960
  -0.7209988 139.9094997  77.5179988  -1.1362248 140.3565441  76.6155334
  -0.7582972 138.8322637  77.3675641  -1.6179988 140.2904997  78.7529988
  -1.7664143 141.3701976  78.7712231  -2.6049871 139.8501558  78.6413948
  -0.9959988 139.8344997  80.1089988  -0.6618825 138.8011960  80.0473973
  -0.1148771 140.4250852  80.3537808  -2.0509988 139.9864997  81.2509988
  -2.4638244 140.9933818  81.2321974  -2.8903970 139.3183589  81.0788832
  -1.4569988 139.7404997  82.6639988  -0.6312308 140.4353376  82.8060920
  -2.2138996 140.0176744  83.3955105  -0.9549988 138.2994997  82.9929988
  -0.2520053 137.9611681  82.2358681  -0.3919165 138.3394955  83.9228652
  -2.0769988 137.2704997  83.1419988  -1.6798025 136.3098828  83.4558765
  -2.6093845 137.1132466  82.2100235  -2.8016832 137.5879963  83.8864243
   6.5510012   0.8274997  82.7949988   6.6437803   0.2098188  83.6828565
   7.3145300   1.5983244  82.8464092   6.7716147   0.2031143  81.9335554
   5.1620012   1.4354997  82.6879988   4.9991090   1.9983162  83.6055535
   4.4646745   0.6024807  82.7130783   4.8670012   2.3264997  81.4979988
   5.0096184   1.7559837  80.5803382   5.6059104   3.1250048  81.4740490
   3.4130012   2.9824997  81.4889988   3.2654524   3.5296290  80.5604899
   3.3215767   3.7157848  82.2887740   2.2980012   1.9404997  81.6259988
   1.3896295   2.4981300  81.8392647   2.5351926   1.3849100  82.5317721
   2.0230012   0.9674997  80.5019988   1.1387970   0.3813880  80.7458699
   2.8468070   0.2603878  80.4319003   1.8230012   1.6414997  79.1499988
   2.7567177   2.1308306  78.8788923   1.0890487   2.4359988  79.2777287
   1.3770012   0.7154997  77.9929988   0.3665339   0.3759061  78.2167915
   2.0083684  -0.1706931  78.0198656   1.4080012   1.3144997  76.5839988
   2.2108408   2.0401222  76.4723678   0.4853224   1.8443908  76.3506400
   1.6070012   0.1784997  75.5759988   0.7987927  -0.5398636  75.6945414
   2.5265195  -0.3539390  75.8177097   1.6730012   0.6724997  74.0859988
   0.7085342   1.1067929  73.8315703   1.7961727  -0.1918967  73.4357868
   2.7670012   1.7044997  73.7699988   3.7115960   1.2262622  74.0174830
   2.6342923   2.5074202  74.4927552   2.8340012   2.2894997  72.4269988
   3.4421680   3.1896887  72.4980255   1.8382270   2.6168445  72.1414237
   3.3920012   1.4464997  71.3489988   3.1273266   0.4018678  71.4756348
   4.4775624   1.4979474  71.3476281   2.8660012   1.9474997  69.9559988
   3.0900053   2.9981577  69.8219061   1.7936964   1.8087899  69.8853514
   3.3840012   1.0064997  68.8459988   4.0080012   0.0064997  68.9869988
   3.1010012   1.5884997  67.6929988   3.6620012   1.1504997  66.4979988
   3.1337758   0.2644724  66.1795719   4.7004627   0.9024030  66.6630373
   3.5210012   2.2704997  65.4359988   2.5239380   2.2589241  65.0278014
   4.5700012   2.1324997  64.2819988   4.3735998   1.2351732  63.7110060
   5.5526401   2.0507928  64.7295808   4.5000012   3.2894997  63.4379988
   5.4680012   3.2444997  62.1699988   6.3230012   4.5704997  62.1729988
   6.4960012   5.4144997  63.2669988   5.5891603   5.9767080  63.4479696
   7.2627822   6.1404202  63.0122770   6.9860012   4.7474997  64.5379988
   6.5881975   3.7549633  64.7079186   6.6222875   5.4050157  65.3143763
   8.4740012   4.6354997  64.7539988   9.1060012   3.9114997  63.5839988
   8.5663420   2.9895724  63.4162127  10.1309180   3.6909909  63.8428837
   9.0815003   4.5561873  62.7182652   9.1980012   5.8634997  65.0919988
   8.6833694   6.3519824  65.9051733   9.2459029   6.4935862  64.2219032
  10.1927497   5.5772266  65.4015468   8.6480012   3.6484997  65.9339988
   8.1264018   4.0320269  66.7982458   9.6988506   3.5481727  66.1604937
   8.2437443   2.6845438  65.6605019   6.3410012   2.0594997  62.2219988
   4.5780012   3.3604997  61.0079988   3.7370012   3.5014997  66.0949988
   3.0060012   4.5364997  65.5389988   2.0170012   4.3974997  64.8309988
   3.6170012   5.9054997  65.9259988   4.6674793   5.7534829  66.1516969
   3.5905053   6.5787442  65.0728008   2.8230012   6.5184997  67.1659988
   3.1720898   7.5353734  67.3080057   1.7753861   6.5962067  66.8930567
   2.9700012   5.7044997  68.5669988   2.4811649   6.2754830  69.3522829
   2.4072403   4.7793470  68.4697471   4.4120012   5.3604997  68.9839988
   4.6233518   4.3112677  68.7861372   5.1477979   5.9300610  68.4214998
   4.6180012   5.6154997  70.4479988   4.2366651   6.5778696  70.7831523
   4.1416019   4.8654560  71.0763771   6.1350012   5.5594997  70.6809988
   6.4273721   4.5109095  70.7070562   6.6381333   5.9968217  69.8231378
   6.6420012   6.2654997  71.9669988   7.6379751   6.6499343  71.7803816
   6.0076964   7.1321739  72.1483250   6.6190012   5.3804997  73.2009988
   5.6071177   5.1725119  73.5146657   7.5680012   4.8534997  73.8939988
   7.2955908   4.2138804  74.7212169   9.0960012   5.0124997  73.6949988
   9.4706644   4.1913138  73.0863098   9.3586534   5.9240255  73.1698175
   9.8460012   4.9754997  75.0959988   9.2683483   4.3615062  75.7859511
  10.7964634   4.4637223  74.9575635  10.1020012   6.3564997  75.7279988
  10.6512552   6.2035246  76.6569905  10.7635796   6.9163901  75.0727579
   8.8290012   7.1974997  76.0189988   9.1526574   8.1989560  76.2937292
   8.2718765   7.3020597  75.0896096   7.8920012   6.6244997  77.1149988
   7.3083102   5.8457229  76.6277600   8.5347332   6.1126568  77.8260103
   6.9260012   7.5414997  77.8519988   7.4723539   8.3124375  78.3924028
   6.2883464   8.0650211  77.1419595   6.0160012   6.7764997  78.8639988
   5.0835983   7.3130385  79.0210529   5.7375239   5.8222681  78.4221781
   6.6850012   6.5164997  80.2099988   6.0487074   5.9079598  80.8455130
   6.8925151   7.4374734  80.7443080   7.6264297   5.9895468  80.0828219
  81.3470012  44.5434997   0.3829988  73.8430012  22.3544997  28.3459988
 127.7050012 135.6934997 108.7829988  89.4670012 141.8984997  13.1899988
  58.0170012 123.6444997 140.8199988  47.1210012  65.8664997  27.3739988
  49.2850012  17.1784997 143.3899988  92.9540012  47.7844997 121.2309988
 134.8210012 142.1224997  41.6249988 114.8910012 128.6964997 133.2869988
  16.6310012  79.9424997 115.6059988 105.1460012  98.1094997 -11.5860012
 121.5230012  95.4104997  39.3369988 111.5930012  11.8744997  50.7139988
  16.0770012 137.3084997  -5.6400012  17.3970012  38.3624997  -7.9410012
  68.3310012  21.4884997 105.9789988  23.2580012  67.8184997  -4.6600012
  90.6370012 126.7244997  49.1889988  13.5660012  69.0364997   5.8669988
 113.7250012  84.9764997  52.2709988  80.8900012  45.6814997  27.4819988
  42.8700012 124.6284997  50.6579988 110.2210012 100.2614997   1.6629988
  36.5950012  93.6004997  15.6379988  66.4870012 109.2634997  38.2249988
 110.9400012  53.2534997  -5.8120012 134.6030012 105.4884997 127.1489988
  25.2030012 100.0434997  39.4729988  78.3870012   9.0024997  29.1409988
  86.6610012 104.2084997  -5.5640012   7.0970012 111.2364997 133.4349988
  28.0480012 125.3554997  22.4579988  79.0800012 115.5084997   4.1679988
 123.6260012  75.9554997   5.3649988  49.6510012  21.8654997  25.9449988
 114.6430012 143.4584997   7.2029988  61.0190012  42.5044997  44.4449988
  92.5500012  35.1324997  -3.4040012  27.4020012  19.9964997 -19.2890012
 131.5890012  45.7554997 -12.7880012  46.6170012 133.0144997  31.1779988
  72.5400012  94.9734997 -12.0940012  33.4140012  88.0154997   1.3479988
  71.4150012   8.8734997 119.8759988  33.4510012  82.9104997  -3.8580012
  57.6470012  16.9354997 122.8939988  72.5070012  87.1764997 -15.9580012
 108.5810012 138.6184997 113.3559988  10.2700012 100.2764997   5.8649988
   9.4500012 125.3984997 143.3639988 136.9680012 107.6194997  46.5129988
  34.9270012  68.2364997  16.0649988  81.6690012 101.5544997 133.0199988
 135.4160012  16.4164997  28.4579988 115.6370012  95.5654997 130.1759988
  22.9140012  43.3104997  24.3809988 123.6820012  44.2854997 -14.4920012
  32.0350012  93.3984997 136.1979988 143.6300012 122.2944997 117.6189988
  58.0280012  97.6284997  37.4319988  33.0270012 138.2944997  44.2429988
  31.2870012  87.1084997 129.8369988  86.1340012  43.7474997 130.9739988
  48.3370012  97.8844997 -11.8420012 137.4500012  90.1554997  -9.5040012
  56.9960012 110.7084997 141.5839988  84.7400012  71.9394997  -1.8390012
 105.3810012  24.2394997 116.7939988 142.0180012  10.2274997   0.3939988
  68.9240012 127.0014997  -5.3190012 103.5610012   8.8744997   9.4889988
  27.6070012 138.2784997 123.8799988  81.2980012  13.5284997  -0.4980012
  76.3780012 141.3924997 -15.4690012  17.2820012  85.6654997  14.2889988
  58.8190012   4.2474997  35.7129988  79.9870012 132.7404997 -15.6200012
  29.2650012  69.3554997  52.5559988  81.7040012  16.5734997  -8.3150012
  75.4900012  34.5634997 122.4679988 144.5170012  18.2574997 127.4629988
  24.5240012 106.9574997 133.8839988 133.3210012  22.4294997   7.9029988
 106.2680012 129.1534997  46.7989988 118.0280012  40.6804997 134.7609988
 113.1110012  41.7554997  30.1609988  61.6820012 129.8214997 132.8879988
  78.1550012  19.3564997 123.2429988  50.4910012 125.7354997  -1.5940012
 138.3250012  65.7304997 142.9239988  55.8460012   9.7284997 -16.2410012
  79.7770012  66.1594997 117.7499988  33.1930012  87.2304997  48.8579988
  90.3650012   5.2154997  11.1759988   4.4470012 144.4744997  55.8499988
 115.7070012  15.2444997 135.4849988  47.1750012  64.0284997   7.0649988
  36.8450012   5.9674997   0.7329988 141.7380012  84.0514997  39.4749988
 111.3180012  88.4584997 118.1259988  79.1950012  95.4664997  24.0019988
  90.5680012  21.6974997 -17.5100012  94.4530012  24.8184997  40.1309988
  15.9300012  91.0274997   2.7829988  14.4850012  99.8314997  51.4719988
 111.2190012  65.9234997  34.8339988 127.8180012 117.3934997   8.9409988
  22.6600012 109.9004997   0.2879988 118.8140012  14.9864997  41.9689988
  55.1070012 101.9444997 -12.4900012   6.5050012 143.2274997 136.3769988
 129.6450012  53.0414997  24.3019988 106.6000012  57.6454997  22.1739988
  73.7920012  24.9674997  11.7539988  92.6770012   5.6634997   0.5309988
 117.9130012 121.5104997 122.7929988  37.9590012 142.3704997  30.5479988
 119.3630012 103.0314997 124.2999988 134.3250012  67.8334997 -15.1330012
  23.3120012  84.6204997  51.0539988  61.2970012 118.9794997  -1.3570012
  43.8710012  20.1864997   5.2699988  70.6830012 112.7814997  30.4889988
 133.8510012   9.7454997   6.0999988  33.5200012 126.9294997 109.2079988
  40.1230012  73.9644997 -18.9850012  25.6680012 114.5084997 113.8689988
  84.0230012 142.3694997  -7.7500012 125.9210012  57.7344997  18.3229988
  82.7990012 139.6374997 138.7319988  33.2760012  29.8044997 122.0449988
  84.1090012 135.6764997   4.7249988 120.9990012  64.0684997  23.5829988
  12.5590012  10.9274997  52.6609988 109.1860012  22.8404997  34.9689988
  28.5060012 110.2744997  41.1109988  38.3340012  42.4584997  38.9919988
  28.2510012 123.5584997 122.5469988  67.7890012  48.6204997 124.1049988
  88.1040012  19.7764997 137.7939988  75.3670012 143.9634997  11.3409988
 103.3830012  68.2424997  -2.2040012  50.2510012  24.0324997 120.4469988
  36.4060012  99.3564997   5.1339988  80.5450012  48.8614997 -10.7060012
   8.1950012 111.9074997   2.4299988  79.5970012 120.0314997 -17.5940012
 133.5290012  59.0074997  30.7819988  75.8910012 127.4254997 118.8619988
  68.0170012 107.8984997  -4.8270012 133.6020012  97.3634997  37.8589988
  34.3470012 113.3264997  -5.4790012  43.1710012  26.3884997  41.4829988
  39.7100012 141.0414997  16.0759988  35.7280012  91.0144997  33.5399988
  73.8400012  40.2314997  49.5699988  26.5170012 144.3714997  44.6529988
  43.9490012  79.2384997  37.3119988 138.1980012 123.2574997  58.8669988
   7.0580012  34.2174997 123.3859988 113.2200012  29.2354997  15.6579988
  36.1220012  52.4684997  28.1029988 122.0190012  36.1384997 113.3449988
   0.8420012  37.8284997  44.6279988 115.9070012  19.2404997  42.5709988
  52.3230012  81.3514997  23.8889988 112.1110012  71.8894997 116.7169988
  94.1620012  64.5964997 -12.6670012 103.4910012  90.6234997 138.9089988
   5.7490012  27.4524997  -1.6750012  21.0460012  73.3104997  32.3229988
   3.4810012 137.7114997  -9.8820012  86.5550012 145.0604997  34.5459988
 122.2760012   2.6684997  14.4379988  78.1930012  18.9364997  57.2169988
   4.1600012  44.3854997  -1.3760012  72.8640012 109.4014997 132.1949988
   2.4260012 133.3034997 127.1219988  62.7240012 126.8024997  46.0269988
  73.9900012  54.8154997  -1.5180012 121.2350012   9.6164997 125.7529988
 112.2880012 103.5384997  15.2809988  66.4600012 141.1244997  15.4879988
  28.7630012  14.2104997  46.7359988  14.6540012  99.3394997 118.1249988
  69.0580012 135.4224997   0.8049988 127.5560012  57.5234997   9.6709988
 109.2370012 144.8464997   3.3709988  26.8990012  69.9504997 112.7319988
 125.0340012 118.9694997  38.7149988  30.4160012  18.8024997  22.5849988
  26.1690012 101.2274997 121.8589988  91.3710012 119.0414997 140.2479988
 144.1720012  35.2654997 106.5479988  17.6130012  37.8484997  21.7679988
  45.8830012 145.0834997  60.0249988  61.1540012 119.7984997 131.3879988
 123.8500012 105.3434997 -16.0030012  15.7390012   6.1034997  -9.6970012
 134.7510012  14.2574997  45.1799988  77.7780012  29.7044997 -12.6180012
  26.6030012 130.2744997  38.9399988  71.1740012 122.1454997  38.9539988
 127.5650012  94.3384997  47.8369988  71.4900012 134.1954997  39.4619988
  68.6810012  66.8104997   5.2919988  46.1960012  85.3924997 119.9449988
 113.5550012  55.8484997 137.5239988 120.9610012 142.7984997  -4.0470012
  45.5030012  25.9804997  20.7869988 106.1580012 141.3174997 125.1369988
  35.5890012 126.9444997  32.9679988  57.4620012  47.0654997  -7.2660012
  25.2510012  95.7914997 119.3899988 106.7090012  72.3704997 143.8179988
  40.0570012 117.1684997  54.1019988  77.4920012  88.7984997  35.8119988
 117.5980012  37.7264997 -14.8520012 115.5400012 104.4884997 129.4799988
  90.7050012  57.1974997 -10.7020012  46.8720012  74.9744997  27.6909988
  68.2820012 124.4894997 108.2629988 124.2040012  33.2594997 -19.3170012
  73.7070012  12.6594997  49.5279988  21.7460012 108.7274997  55.0659988
 113.0520012  59.4504997  -0.8670012  80.4480012  94.5254997  -5.1560012
   5.0480012  12.0094997   6.3379988 132.3670012  76.9034997  20.4229988
 130.8920012 126.9814997  38.3389988  82.1900012 113.3544997  42.3869988
  18.8830012  41.3654997  31.2719988 117.1080012 120.7724997 141.7189988
  20.0790012 111.5404997 142.9709988  19.1730012  45.5774997 134.4869988
 110.4340012  71.3304997  41.6739988 118.0250012  71.5574997 139.7089988
  73.1320012 109.0764997  44.4129988  71.2940012 132.0914997 120.9669988
  55.6440012  70.8484997 137.7689988  55.4520012   4.4584997 -13.2100012
  12.4040012  60.1244997 133.2659988 138.6310012  18.8254997  48.1899988
  51.7740012 117.6544997 134.2939988  93.0320012   7.1254997  20.2869988
 132.3590012   1.4994997  -7.0840012 115.3410012   6.5614997 128.0609988
  52.1340012 133.6594997 117.1019988 130.0420012 111.0604997 109.1749988
  36.8310012  62.4684997  20.9129988 133.9590012  16.5884997   0.7199988
  38.7390012 138.8154997 -10.0030012 139.8280012  22.9004997  37.0469988
  72.6660012 122.6914997  33.5949988  18.2420012  62.3584997 111.6819988
  42.2580012  18.9514997  58.1649988  59.3270012  53.4894997 123.9769988
 110.6310012  76.0984997  56.1809988 119.4550012   2.5444997  50.1309988
  78.4140012  13.8264997  37.7099988 123.7210012  11.2904997 110.2809988
 118.4880012  19.0904997  51.4339988  18.5030012 105.5694997   2.8519988
 138.3750012  99.9714997  40.7199988 108.6110012  86.2694997 111.1329988
 109.3630012  45.8584997   1.0519988   5.9380012 118.4404997 110.6799988
 136.8380012  22.4104997 106.4319988 112.6670012 110.9054997  50.9619988
  48.8860012  57.3414997  38.7139988  26.0310012  56.6454997  15.3439988
  64.0380012  22.5484997 139.3379988  14.8480012  85.9014997  25.6979988
  52.3120012  19.7054997 119.2039988  90.6570012  23.5144997 123.8929988
 128.4470012   3.5824997  55.4699988  26.1830012 106.9914997 117.5009988
  23.2720012  34.0454997  -2.3260012  69.9110012  57.6814997  15.0529988
   5.7100012 136.9344997 110.1329988   8.7140012 130.8424997  -7.4370012
 122.1350012 101.7194997  34.6759988  77.9170012 130.8394997   4.7139988
  14.0770012 106.8314997  56.5689988  12.6710012  89.4624997  18.0359988
 105.6630012 135.6984997  48.6539988  81.9960012 143.3304997 -17.6340012
 104.9070012  25.3604997  15.7089988  74.2080012  31.9734997 -10.7080012
 119.1250012   9.7234997  -0.1340012 139.4040012  12.9904997 -10.3240012
   1.4920012 103.9154997 126.7099988  53.9000012  98.9524997  49.7459988
  87.3570012 137.3184997  39.0169988  60.8230012  52.3414997  25.3489988
 116.8560012  16.1204997  37.1499988  10.6910012  43.3634997  56.0949988
 115.1060012 109.1894997  16.4189988  71.5720012 101.9124997 132.8199988
 139.0240012 117.8434997 -16.1430012   9.5840012   1.3594997   8.1409988
  65.0730012 115.2374997 132.4639988  17.1370012 109.9594997  -9.4740012
   5.5560012 142.8544997 -17.6690012  20.2820012  71.3604997  -3.3840012
  23.6620012  26.9864997 128.4709988  84.5260012  37.5404997  -1.0800012
  40.6090012  90.5764997  56.1309988  68.0530012 127.5934997 126.0719988
  88.4280012 123.9484997 111.2899988  62.9150012 102.9964997  43.6419988
  99.0780012  64.1204997  -7.1620012  45.2720012 119.7934997   9.3779988
 118.2000012  62.1714997  56.3399988 128.8760012 139.2534997 105.6779988
 118.6070012 116.1064997 129.5619988   6.5070012 106.6374997   9.3859988
  15.6370012  66.0334997  56.1149988   2.5690012  21.0424997 109.3329988
 125.5060012 120.6494997 119.9249988 114.3210012  69.7454997 113.2999988
  36.0600012  76.3904997  32.0459988  33.4000012  20.9904997  58.2129988
  85.7690012 123.6354997 137.0679988  51.2690012  81.5774997  13.0969988
  68.1250012 107.4914997  34.2269988  27.5300012  60.8344997  56.0629988
  67.8590012 115.7034997  -0.9830012  29.3640012  91.8764997  35.0919988
  61.4750012  86.2464997  39.9569988  64.0810012 117.4934997 112.3679988
  38.2720012 101.7054997 140.3669988 137.7070012   6.6854997  23.1779988
  27.8980012 127.8064997 115.5119988 125.5940012 108.4324997 122.7519988
 112.8250012  54.6844997 -15.4790012   9.8650012 136.1374997 139.7679988
 109.2390012 127.5344997 126.7729988 133.0210012 137.5414997  59.2159988
  76.5530012  10.2604997  -7.7330012  38.4230012 115.4644997  -7.4090012
 111.5040012 143.8934997  57.1719988  79.3210012 105.9584997 108.0549988
  41.0770012  15.9864997 109.5219988  89.0690012 143.0654997   6.7959988
  59.3350012 116.7854997 140.9329988  21.7030012 119.6404997  26.5969988
 109.2160012  21.9654997  45.7059988  34.5590012  15.5914997  21.1859988
 126.8770012 112.5604997  14.2999988  54.6840012   1.3844997 125.5569988
  65.5650012  14.1444997  56.6589988   2.0240012  20.8344997  -5.7970012
  70.8250012 116.2764997  -5.2090012 105.2920012  45.0314997 -10.6430012
  25.8220012  89.0944997  42.9699988  53.4900012  40.8174997  -3.3050012
  66.5800012  83.5894997 -13.0730012  76.8310012  92.6824997 112.8219988
 130.2780012  78.9504997 138.8039988  50.1210012  14.4754997 -18.0230012
  32.9990012  10.6094997  46.6719988 141.9390012  81.3464997 -13.1880012
  14.1250012 142.2464997 113.7749988  65.1000012  26.8174997 113.2409988
  66.4520012 140.3744997   0.4199988  76.8220012  16.8574997  29.1149988
   5.8940012  47.2554997  -8.5590012 123.5800012  89.5184997  44.3519988
 114.2490012  92.2304997  -5.7630012  84.8670012  97.2954997  15.8829988
 105.9270012  26.7054997 111.2799988  53.5360012  58.5734997 106.8979988
  89.0560012  24.6254997 135.3689988  62.8060012 130.9944997  -0.4360012
  31.0930012  39.1484997  21.4809988 106.2480012  51.9224997  26.0749988
  38.4100012 130.0504997  27.7429988  80.1060012  52.7864997  45.5609988
 122.2520012 129.7824997 134.1369988  26.3840012  85.5864997  21.4129988
 128.8020012  10.7194997 125.9299988  81.7620012  29.2504997 118.0179988
  42.0980012 139.2744997  37.2689988  36.3040012  13.2904997 119.7179988
   2.7250012   1.7184997 107.3029988 107.7850012  41.8464997  29.3119988
 135.5730012  55.1354997  25.0039988   8.9640012  50.2184997 -10.1590012
  50.2550012  93.6414997 -17.0550012  60.3140012  49.2664997  -4.3140012
  46.9660012 125.3084997 109.5549988 121.2940012  52.7014997  11.9149988
  61.5050012  85.2534997  11.3139988 122.7340012  50.7834997 -12.0240012
 135.6180012  83.0084997  39.2149988 100.6400012  12.4514997  14.9369988
 141.2750012  61.9134997 142.4019988 100.2170012  19.1294997  57.9419988
  37.5620012  73.6314997  17.8839988  20.9940012  95.5724997 121.0209988
  22.5960012  87.9224997   2.5579988 114.2260012  26.5014997 111.3299988
  31.0780012 113.4274997 -18.1930012  28.5080012 118.3264997  48.8449988
  13.2050012  10.4414997 124.9089988  90.3810012 106.8584997 138.3219988
  14.0080012  24.0474997 143.6569988  95.3760012  41.4794997  57.6719988
  28.5870012  88.4634997  -7.1080012 130.4080012  72.2234997 114.6009988
  50.1410012  30.5234997 114.4949988  17.5520012  20.6074997  13.5499988
   6.8730012  84.6934997 107.4349988  11.7670012 111.4284997 127.9809988
 111.4520012 134.5134997  40.5029988  79.3220012  56.3294997  -8.3690012
  72.4260012  79.1874997  -1.7660012  78.0890012  87.3814997 -17.8030012
 113.7650012  97.9504997 -16.4560012  75.2320012  33.6874997  44.2019988
 136.0340012  86.0364997  54.4069988 131.4860012 109.0294997  53.2039988
  29.9440012 127.1794997   2.9619988   3.1490012   8.2434997  34.5189988
 102.5860012 133.9514997 114.9129988  12.0730012  40.2104997  -0.5830012
  53.2400012  45.1334997 114.3129988  73.7980012 142.9354997 113.8669988
 112.7890012 142.8804997 128.9619988 143.4190012  82.1894997 139.4409988
 129.5510012  97.2804997 119.0069988 137.8230012 131.7364997 109.7429988
   6.2640012  75.8404997 129.8449988 119.1920012 109.0944997   8.3909988
  98.1810012  55.8664997  44.1249988 123.3510012  53.6974997  24.5159988
  24.4260012  27.4134997 110.1299988  49.3390012  69.8064997   3.3419988
  47.5990520  24.5600375  23.5028517 112.6651372 143.7680803   3.6574344
  12.4390012  10.7114997 109.3889988  12.5280012  11.6554997 109.2569988
  11.8010012  10.4364997 108.7309988  12.3649081  10.8034830 109.2819614
  11.3720012   9.9664997 112.8079988  11.3340012   9.3204997 113.5129988
  11.0500012   9.5004997 112.0369988  11.3232333   9.8149408 112.8002978
   3.7410012   9.5814997 114.4009988   3.7820012   8.9554997 115.1239988
   4.4440012  10.2054997 114.5829988   3.8416363   9.5801196 114.5246044
  15.0780012  12.9054997 111.1089988  14.6380012  12.1854997 111.5599988
  15.0650012  13.6264997 111.7389988  15.0160226  12.9043731 111.2558494
   4.6640012  14.0314997 112.9359988   4.2950012  13.2294997 112.5659988
   5.6050012  13.8624997 112.9819988   4.7407289  13.8990153 112.8916316
   1.2740012   7.6914997 108.3289988   0.8270012   8.5374997 108.3099988
   0.7130012   7.1114997 107.8129988   1.1369900   7.7289916 108.2566801
   1.9850012   9.8534997 110.4539988   2.1980012   9.0834997 110.9819988
   2.7230012   9.9424997 109.8509988   2.1139044   9.7601968 110.4447123
  12.1900012  18.0104997 111.3209988  12.8100012  17.3334997 111.0479988
  11.9820012  17.7924997 112.2299988  12.2466726  17.8884800 111.4064812
   9.7620012  12.3994997 113.2139988  10.0660012  11.7134997 112.6189988
  10.4830012  12.5174997 113.8319988   9.9010671  12.3216304 113.2161816
  18.4250012   4.0004997 114.0749988  18.4740012   4.6104997 114.8099988
  18.8500012   4.4614997 113.3519988  18.4891746   4.1463796 114.0779175
  12.9030012   6.7934997 113.5409988  13.0450012   5.8474997 113.5619988
  12.7960012   7.0004997 112.6129988  12.9079919   6.6918246 113.4183408
   6.0570012   4.8944997 110.8139988   6.1010012   5.7544997 110.3949988
   5.6000012   4.3424997 110.1799988   6.0012240   4.9374422 110.6709864
  13.7800012   5.0254997 109.2149988  14.4260012   4.6964997 109.8389988
  14.2900012   5.5434997 108.5919988  13.9374299   5.0504450 109.2162731
   2.6780012   7.2914997 111.5759988   3.3310012   6.7414997 112.0079988
   2.7020012   7.0174997 110.6589988   2.7706683   7.1791466 111.5112123
   7.8340012   8.8414997 110.7909988   8.4500012   8.3154997 111.3009988
   7.2480012   8.2014997 110.3879988   7.8390810   8.6829208 110.8063173
  18.8160012   5.4784997 116.3099988  18.1280012   6.1364997 116.2149988
  18.8320012   5.2814997 117.2469988  18.7239540   5.5419819 116.4235990
   4.8680012   3.8124997 114.8879988   4.6490012   4.3424997 114.1219988
   4.2000012   4.0394997 115.5349988   4.7477600   3.9156906 114.8706379
  12.2370012  13.3124997 108.4319988  11.9410012  12.9904997 107.5809988
  11.9120012  14.2124997 108.4729988  12.1526371  13.3900215 108.3211801
   7.4370012  11.4884997 115.1749988   6.6970012  12.0864997 115.2789988
   8.1510012  12.0424997 114.8599988   7.4322237  11.6452831 115.1466465
  15.5440012   4.3164997 111.1949988  15.3280012   3.5504997 111.7279988
  16.1990012   4.7884997 111.7079988  15.6030632   4.2755889 111.3372861
   4.4610012   5.7044997 112.8399988   5.0750012   6.3374997 113.2129988
   4.9730012   5.2324997 112.1839988   4.6141981   5.7272267 112.8022908
   5.8440012  13.4524997 115.9619988   5.8390012  14.3324997 115.5839988
   4.9910012  13.3694997 116.3869988   5.7279464  13.5616117 115.9677907
   1.9650012  13.1234997 106.7439988   1.6930012  13.3524997 105.8559988
   2.0110012  13.9614997 107.2049988   1.9339482  13.2681318 106.6846273
  15.5900012  14.7454997 113.4569988  14.6490012  14.8034997 113.6189988
  15.8670012  15.6514997 113.3199988  15.4984679  14.8759443 113.4606815
  15.8910012   3.0314997 114.8749988  15.1550012   3.6424997 114.8369988
  16.5740012   3.4464997 114.3479988  15.8826541   3.1711374 114.7985832
   8.8940012   1.1184997 112.3399988   8.7770012   0.1694997 112.2859988
   8.0390012   1.4504997 112.6139988   8.7624212   1.0335571 112.3696497
  13.8420012  16.5264997 110.0819988  14.2680012  15.8194997 109.5969988
  14.1590012  17.3274997 109.6659988  13.9431683  16.5381017 109.9593680
  15.0020012  14.4274997 108.5909988  14.7440012  13.7374997 107.9799988
  15.0730012  13.9844997 109.4369988  14.9762856  14.2732124 108.6216885
  16.6880012  12.9934997 117.0679988  16.8280012  12.4024997 116.3289988
  16.8550012  13.8664997 116.7119988  16.7297411  13.0305428 116.9186894
  11.1610012   9.9554997 106.8409988  10.4490012  10.4904997 106.4889988
  11.8520012  10.0114997 106.1809988  11.1570132  10.0362543 106.7036289
  18.5300012   9.3334997 115.1339988  17.8770012  10.0284997 115.2239988
  18.9950012   9.5434997 114.3249988  18.5035274   9.4570643 115.0368462
  14.5660012  10.1654997 107.7929988  13.8340012  10.3934997 108.3659988
  15.0140012   9.4514997 108.2469988  14.5262725  10.1002145 107.9328816
  14.4640012   8.3394997 116.8599988  14.5440012   9.1024997 117.4319988
  13.8620012   8.6184997 116.1699988  14.3935756   8.4817134 116.8450589
   6.2120012  10.7954997 109.6749988   5.8810012  10.4254997 108.8569988
   6.8000012  10.1254997 110.0219988   6.2461873  10.6541156 109.6098102
   7.5780012  14.2234997 112.3559988   7.4840012  13.6454997 111.5999988
   8.3080012  13.8524997 112.8529988   7.6637387  14.0941663 112.3195342
   6.5780012   9.5644997 113.3089988   7.1440012   9.6854997 112.5459988
   6.8970012  10.2014997 113.9469988   6.6985474   9.6672219 113.2909862
  12.8870012  15.0674997 114.0429988  12.6470012  15.7294997 114.6909988
  12.6890012  14.2334997 114.4679988  12.8273808  15.0453134 114.1891524
   7.4580012  13.9634997 118.0259988   7.1470012  14.7454997 118.4809988
   6.8080012  13.8104997 117.3399988   7.3275558  14.0499105 117.9955871
  13.4370012   9.3274997 105.4779988  14.0170012   9.4774997 106.2249988
  13.8510012   9.7984997 104.7539988  13.5722997   9.4116578 105.4824058
   4.3780012  10.1614997 117.2539988   4.4490012  10.8124997 117.9529988
   3.4880012  10.2644997 116.9189988   4.2673005  10.2645427 117.3043495
  11.1640012  16.0644997 108.9129988  11.6380012  16.3594997 109.6899988
  10.6010012  16.8024997 108.6799988  11.1528184  16.2047247 108.9879628
   5.6980012  16.0354997 118.7889988   5.7050012  15.8994997 117.8419988
   4.7820012  15.9174997 119.0409988   5.5751714  16.0009430 118.6934666
   5.2020012   9.8654997 107.2639988   4.9100012  10.6334997 106.7739988
   4.5280012   9.2054997 107.1019988   5.0708111   9.8815587 107.1748978
   1.2950012  12.2284997 116.0789988   0.7940012  12.2004997 115.2639988
   1.3000012  11.3224997 116.3889988   1.2270944  12.1022396 116.0093226
   1.0450012  15.0084997 112.9629988   1.9910012  14.8644997 112.9439988
   0.9330012  15.7924997 113.4999988   1.1592727  15.0948046 113.0330072
  19.2430012  15.6744997 118.6459988  19.1940012  14.7194997 118.6089988
  18.4160012  15.9424997 119.0469988  19.1244940  15.5798998 118.6951375
  10.2220012  15.2484997 117.5219988  10.3090012  16.0744997 117.9969988
   9.3580012  14.9184997 117.7709988  10.1171964  15.3169878 117.6206549
  10.6360012  19.0204997 107.3279988  10.5610012  18.8994997 106.3809988
  10.6690012  19.9704997 107.4459988  10.6302068  19.1322646 107.2144967
   4.2890012  17.8094997 109.1089988   4.4420012  17.4614997 109.9869988
   3.4390012  17.4534997 108.8539988   4.1949166  17.7136216 109.1948079
  13.4070012  18.1004997 107.0789988  12.4710012  18.2004997 107.2579988
  13.6870012  17.3914997 107.6579988  13.3169553  18.0183406 107.1817087
  16.3950012   7.1674997 119.1259988  15.9880012   7.6484997 118.4049988
  16.4360012   6.2624997 118.8179988  16.3448437   7.1109374 118.9856683
   3.5440012  13.5514997 117.1229988   3.7600012  13.1904997 117.9819988
   2.6890012  13.1774997 116.9129988   3.4579292  13.4514111 117.2123386
   6.1630012   2.0214997 113.1179988   5.3010012   1.9344997 112.7099988
   6.1400012   2.8774997 113.5459988   6.0420409   2.1252883 113.1200589
  10.8260012   1.7434997 116.4929988  11.2460012   1.3284997 117.2459988
   9.8930012   1.5654997 116.6099988  10.7573644   1.6625900 116.6119539
  14.1520012   5.4994997 117.3459988  13.6380012   5.3734997 118.1439988
  13.9970012   6.4114997 117.1019988  14.0606852   5.6056132 117.4222158
  14.9150012  10.3604997 103.1079988  14.9570012  10.1374997 102.1779988
  15.7640012  10.7594997 103.2969988  15.0355280  10.3839438 103.0063554
   6.2540012   6.9874997 114.2129988   5.6120012   6.9464997 114.9219988
   6.2910012   7.9134997 113.9749988   6.1710664   7.1071430 114.2779219
   6.2510012   7.2084997 109.1249988   5.3580012   6.8674997 109.0659988
   6.7010012   6.8314997 108.3689988   6.1898130   7.1109631 109.0147702
  11.7860012   7.6244997 107.9419988  11.3770012   8.4394997 107.6509988
  12.5070012   7.4844997 107.3279988  11.8274537   7.7172018 107.8191342
  10.8880012   7.7994997 119.4299988  10.3260012   7.0954997 119.7509988
  11.7150012   7.6794997 119.8979988  10.9227095   7.6867883 119.5372330
  12.7910012   7.0704997 110.7559988  12.5960012   7.6754997 110.0409988
  12.9720012   6.2364997 110.3219988  12.7887614   7.0406300 110.5994405
   4.0040012   7.3074997 116.0799988   3.9660012   7.7074997 116.9489988
   3.5130012   6.4904997 116.1709988   3.9324684   7.2518069 116.2111059
   0.6120012   4.4234997 109.9309988   1.2430012   4.3944997 110.6499988
   1.0610012   3.9984997 109.1999988   0.7590918   4.3620836 109.9306441
   1.8860012   5.1694997 105.3549988   2.3600012   5.7604997 104.7699988
   1.1690012   5.7004997 105.7019988   1.8539341   5.3220867 105.3218836
  12.0550012   8.7084997 115.4269988  12.3780012   8.0774997 114.7839988
  11.6150012   8.1734997 116.0879988  12.0397484   8.5498387 115.4283198
   8.8320012   4.6354997 110.2109988   7.9210012   4.6924997 110.4999988
   9.3380012   4.5754997 111.0219988   8.7756899   4.6351941 110.3601184
   3.6610012   6.2644997 109.0379988   2.7710012   6.3644997 108.6979988
   3.9570012   5.4224997 108.6919988   3.5792823   6.1643546 108.9447213
   7.3140012   6.2644997 106.6949988   8.2450012   6.3934997 106.8729988
   7.0990012   6.9344997 106.0449988   7.4124247   6.3726565 106.6315747
  13.2370012   3.8704997 113.4759988  12.5610012   4.0014997 114.1399988
  12.7520012   3.7154997 112.6649988  13.0787146   3.8675157 113.4574469
   5.9880012   7.4594997 104.2609988   5.4450012   7.0794997 103.5699988
   6.8210012   7.6534997 103.8329988   6.0263631   7.4337125 104.1084501
  16.5250012  19.5424997 119.7519988  16.7250012  19.9664997 118.9179988
  17.1800012  19.8854997 120.3589988  16.6410072  19.6469857 119.7198592
   4.1230012  12.0164997 119.3599988   4.8550012  12.2704997 119.9219988
   3.3430012  12.2204997 119.8759988   4.1177073  12.0788160 119.5066151
  10.1520012   7.4234997 112.0979988  10.7170012   6.8764997 111.5509988
  10.0050012   6.9014997 112.8869988  10.2093380   7.2782259 112.1298695
   5.1540012   3.5594997 108.5169988   4.8370012   2.6574997 108.4809988
   5.9360012   3.5614997 107.9639988   5.2162408   3.4362474 108.4373569
   8.7790012   5.8114997 114.5119988   7.9430012   6.2654997 114.6229988
   9.3030012   6.0874997 115.2639988   8.7355416   5.9108660 114.6288119
   9.3230012  12.0244997 106.1969988   8.5780012  11.5174997 105.8749988
   9.1890012  12.0734997 107.1439988   9.2028776  11.9616940 106.2808647
  16.4730012  11.1574997 114.9839988  17.1150012  11.6144997 114.4399988
  15.6430012  11.2704997 114.5209988  16.4485963  11.2352704 114.8470177
  10.8420012  12.2084997 117.4339988  10.4970012  11.8274997 118.2409988
  10.6420012  13.1424997 117.5049988  10.7677527  12.2825135 117.5540689
  13.9390012   6.7054997 106.0569988  14.8310012   6.5684997 106.3759988
  13.9960012   7.4964997 105.5199988  14.0686504   6.7936052 106.0280818
   4.4480012  11.3194997 111.9669988   5.1930012  11.3174997 111.3659988
   4.5260012  10.4964997 112.4479988   4.5604995  11.2078887 111.9498282
   1.4560012   9.7804997 117.2819988   1.6790012   9.3624997 118.1139988
   0.8540012   9.1674997 116.8589988   1.4051759   9.6404668 117.3387022
   8.4720012   9.2974997 119.4949988   8.1760012   9.1314997 118.5999988
   9.4040012   9.0774997 119.4839988   8.5574166   9.2450640 119.3710536
  13.0930012  14.6704997 117.3849988  12.1920012  14.8534997 117.1169988
  13.1270012  14.9294997 118.3049988  12.9743139  14.7305849 117.4728099
  18.8240012   6.9154997 105.7519988  18.2700012   6.5194997 105.0799988
  18.9240012   7.8254997 105.4739988  18.7617059   6.9843586 105.6224401
  18.7870012  12.7154997 118.5889988  17.9360012  12.9534997 118.2219988
  19.3780012  12.6984997 117.8359988  18.7502487  12.7458258 118.4368893
  17.1190012  15.7014997 106.2169988  16.7460012  14.8754997 106.5259988
  17.3970012  15.5184997 105.3189988  17.1055222  15.5637430 106.1379473
  14.2800012  10.5094997 113.2379988  13.3510012  10.2774997 113.2109988
  14.7310012   9.7324997 112.9079988  14.2139216  10.3727238 113.1896917
   6.8230012  14.8374997 109.3709988   7.3500012  15.6104997 109.1709988
   5.9430012  15.0624997 109.0689988   6.7762031  14.9737545 109.3027912
   8.2500012  12.5004997 108.9469988   8.0090012  13.4254997 108.9889988
   7.5090012  12.0414997 109.3439988   8.1169225  12.5650933 109.0063742
   8.7650012  16.6494997 115.2629988   9.1270012  17.5044997 115.0289988
   9.2960012  16.3574997 116.0029988   8.8864473  16.7271060 115.3310855
   6.9330012  17.5224997 108.4929988   5.9830012  17.6274997 108.5439988
   7.2850012  18.3424997 108.8369988   6.8504195  17.6478800 108.5465502
  12.3090012  12.7484997 114.9629988  11.8830012  12.5214997 115.7899988
  12.8890012  12.0104997 114.7809988  12.3291868  12.6175299 115.0515830
  14.9670012  17.3004997 117.4329988  14.3660012  16.7454997 116.9369988
  15.2490012  17.9674997 116.8059988  14.9228804  17.3146625 117.2804849
   3.0900012   4.5334997 116.8399988   2.1970012   4.8724997 116.7719988
   2.9910012   3.6784997 117.2579988   2.9544164   4.4642588 116.8872235
  15.3780012  12.3504997 106.2639988  15.1000012  11.6224997 106.8199988
  16.3050012  12.4694997 106.4689988  15.4653124  12.2668802 106.3678845
   2.7410012  16.3384997 115.2749988   2.9580012  15.4064997 115.2439988
   2.9870012  16.6124997 116.1579988   2.8039549  16.2480636 115.3901763
   7.5400012  14.3594997 104.9399988   7.6860012  13.8394997 105.7299988
   7.5370012  15.2664997 105.2469988   7.5595792  14.4108842 105.0896117
  11.8240012   4.2744997 115.7299988  12.5230012   4.3484997 116.3799988
  11.4430012   3.4104997 115.8839988  11.8681767   4.1677624 115.8398322
  12.6090012   3.9264997 106.8269988  12.8290012   4.3984997 106.0239988
  13.1670012   4.3214997 107.4969988  12.7144968   4.0444285 106.8077331
   9.8090012   5.6544997 107.6619988  10.6210012   6.1594997 107.7079988
   9.5640012   5.5094997 108.5759988   9.8870520   5.7040375 107.7918517
  10.3440012   6.6404997 116.8459988  10.4630012   7.2144997 117.6039988
  11.0000012   5.9524997 116.9609988  10.4489025   6.6259858 116.9651321
  10.6920012   2.7354997 108.5999988  10.3460012   3.3534997 109.2439988
  11.3510012   3.2364997 108.1179988  10.7336968   2.8876278 108.6229383
   7.6160012  17.1014997 105.6709988   7.7760012  17.9004997 105.1709988
   7.4180012  17.4074997 106.5559988   7.6111637  17.2524020 105.7221144
   6.3500012   3.7984997 105.2869988   6.2670012   4.6874997 105.6339988
   7.2400012   3.5334997 105.5189988   6.4589469   3.8841430 105.3657626
  16.5490012   4.5474997 117.6809988  15.6320012   4.8104997 117.5939988
  16.8840012   4.5444997 116.7849988  16.4688613   4.5830761 117.5478837
  15.1510012   8.2984997 111.7769988  14.3530012   7.8834997 111.4489988
  15.5960012   7.6074997 112.2679988  15.1019885   8.1483543 111.7984889
   4.6090012  14.2264997 104.3479988   5.2010012  14.9254997 104.6239988
   5.0680012  13.7934997 103.6279988   4.7521142  14.2637049 104.2884830
  16.2370012  17.5544997 113.3999988  16.0820012  18.2324997 112.7419988
  17.1700012  17.6264997 113.6029988  16.3418657  17.6569546 113.3374360
   3.7330012   1.6724997 112.1369988   3.5040012   1.7314997 111.2089988
   3.2900012   0.8804997 112.4429988   3.6418530   1.5735753 112.0514786
   2.6630012  15.6124997 108.2969988   1.8310012  16.0854997 108.3239988
   3.2090012  16.1224997 107.6989988   2.6230352  15.7461332 108.2198463
   1.9510012  18.2254997 119.6269988   2.4920012  18.0084997 120.3869988
   1.4700012  17.4194997 119.4369988   1.9599951  18.0869270 119.7052576
   6.5490012  17.1444997 121.2469988   7.3160012  16.6854997 121.5879988
   6.5270012  16.9184997 120.3179988   6.6511275  17.0510186 121.1680101
  13.1260012  15.5244997 119.9769988  12.7750012  14.6684997 120.2199988
  13.8520012  15.6674997 120.5839988  13.1760769  15.4265636 120.0923619
   1.8580012  12.0354997 120.5809988   2.0020012  11.1334997 120.2949988
   1.0860012  12.3214997 120.0939988   1.7732753  11.9506816 120.4759505
   8.5140012  12.0054997 120.0139988   8.1850012  12.2764997 119.1569988
   8.6660012  11.0644997 119.9269988   8.4894809  11.9153862 119.8848244
  14.2480012  11.9214997 117.3969988  14.9940012  12.5094997 117.2779988
  13.4910012  12.5034997 117.4609988  14.2477820  12.0807143 117.3893590
   2.6910012   9.2354997 120.0009988   3.0990012   8.3784997 119.8799988
   2.4310012   9.2504997 120.9219988   2.7117568   9.1200807 120.1089588
   7.3490012  10.3514997 105.0199988   6.8890012   9.8674997 105.7059988
   7.6040012   9.6834997 104.3839988   7.3204902  10.1948731 105.0279334
   6.6380012   8.2444997 117.3759988   6.0200012   8.9194997 117.6559988
   6.9820012   8.5654997 116.5419988   6.5999132   8.3802411 117.3016262
   8.4200012   8.5944997 103.2819988   8.2400012   8.4404997 102.3549988
   9.3700012   8.7024997 103.3269988   8.5237776   8.5880175 103.1611843
  11.6580012  10.7164997 120.6529988  12.6110012  10.7994997 120.6259988
  11.4970012  10.0044997 121.2729988  11.7666426  10.6316746 120.7330579
   6.9770012   5.5994997 118.4579988   7.1270012   4.8704997 117.8559988
   6.9800012   6.3764997 117.8989988   6.9979302   5.6047851 118.3000692
   7.3900012   3.9694997 115.9509988   7.9260012   4.4204997 115.2989988
   6.5380012   3.8614997 115.5279988   7.3482178   4.0166390 115.8045756
   8.9720012   9.4084997 116.1899988   9.7220012   9.2524997 115.6169988
   8.6330012  10.2604997 115.9149988   9.0288921   9.5022968 116.0743561
  13.3870012   7.2234997 121.2189988  13.5800012   6.2924997 121.1069988
  14.2450012   7.6484997 121.2079988  13.5292934   7.1536531 121.2022031
  14.7040012  10.0124997 119.2959988  14.4230012  10.7214997 118.7179988
  15.6470012   9.9394997 119.1449988  14.7929291  10.0996711 119.1964967
   5.4560012   6.7974997 120.3699988   4.6890012   6.2654997 120.1589988
   6.1350012   6.4874997 119.7699988   5.4427877   6.6828300 120.2600716
   8.1960012   1.4254997 116.3819988   8.0970012   2.3724997 116.2769988
   7.4530012   1.0534997 115.9059988   8.0821184   1.5045863 116.3033621
   9.4600012   5.7474997 119.9459988   9.2240012   5.5274997 120.8469988
   8.6760012   5.5404997 119.4359988   9.3218504   5.6894586 120.0003431
  12.1750012   4.8744997 119.0209988  11.2280012   4.9064997 119.1539988
  12.4880012   4.2494997 119.6749988  12.0876707   4.7943998 119.1276060
  13.8090012   3.5084997 121.0269988  13.7130012   2.5564997 121.0209988
  13.4880012   3.7774997 121.8869988  13.7524070   3.4144035 121.1425441
   3.6360012   4.7184997 120.0739988   3.8480012   4.0114997 119.4639988
   3.5250012   4.2804997 120.9179988   3.6499721   4.5627084 120.1046843
   8.4170012   0.7194997 119.0529988   9.1290012   0.0794997 119.0389988
   8.3160012   0.9864997 118.1399988   8.5008066   0.6680079 118.9275677
   8.7710012   2.4024997 121.1069988   8.6390012   1.9264997 120.2869988
   8.1720012   3.1464997 121.0519988   8.6719071   2.4379618 120.9872886
   0.5350012  19.3144997 108.8439988  -0.1119988  18.8524997 108.3109988
   0.8890012  18.6424997 109.4259988   0.4943849  19.1604723 108.8497959
   1.4050012  17.3954997 110.6479988   1.0700012  16.5154997 110.8199988
   1.6270012  17.7404997 111.5129988   1.3891783  17.3217501 110.7884208
  18.9530012  18.2044997 113.6289988  18.9320012  18.3894997 114.5679988
  19.6440012  18.7734997 113.2879988  19.0434618  18.3066606 113.7113864
  18.5170012  17.7724997 116.5509988  18.0290012  17.0364997 116.1789988
  19.0660012  17.3784997 117.2289988  18.5244820  17.6185889 116.5917813
  16.9670012  13.5614997 121.1889988  16.1010012  13.4564997 121.5829988
  17.3440012  14.3204997 121.6349988  16.8993308  13.6496900 121.3032393
  18.2680012  11.8184997 106.7029988  19.1180012  12.2394997 106.8299988
  18.2740012  11.0784997 107.3099988  18.3851372  11.7760803 106.8024344
  18.6630012   9.8714997 108.5259988  17.9360012   9.3924997 108.9239988
  19.2440012  10.0774997 109.2589988  18.6420473   9.8338103 108.6794528
  18.4220012  12.6564997 113.4739988  19.2550012  12.2784997 113.1939988
  18.5340012  13.5994997 113.3549988  18.5512647  12.7322218 113.4195487
  16.9080012  15.5344997 115.7809988  16.2610012  15.8594997 116.4069988
  16.3910012  15.0944997 115.1069988  16.7494029  15.5195004 115.7755827
  17.2800012   7.0124997 103.4679988  17.3760012   7.6794997 102.7879988
  17.1400012   6.1964997 102.9869988  17.2742272   6.9935655 103.3098347
  16.4490012   8.3924997 109.0889988  16.2990012   7.4474997 109.0689988
  16.0960012   8.6734997 109.9329988  16.3807448   8.3011481 109.2003705
   1.4850012  10.4704997 113.0999988   1.6690012  10.3884997 112.1639988
   2.3340012  10.3464997 113.5229988   1.6250151  10.4425073 113.0291451
  17.3060012  10.3624997 118.7279988  17.8890012   9.6284997 118.9199988
  17.8700012  11.1344997 118.7749988  17.4619769  10.3664227 118.7606159
  18.8020012   8.2654997 119.4129988  17.9390012   7.8864997 119.2469988
  19.4070012   7.5264997 119.3379988  18.7656119   8.1138268 119.3801528
  16.1600012   5.9754997 107.5519988  16.4400012   5.0684997 107.6759988
  16.9190012   6.4094997 107.1629988  16.3009277   5.9100942 107.5163682
  16.7720012   6.5564997 112.9879988  17.7050012   6.7684997 112.9529988
  16.5370012   6.6584997 113.9099988  16.8679244   6.5993100 113.1078892
  16.8010012   7.2934997 115.7639988  15.9580012   7.5614997 116.1299988
  17.2430012   8.1154997 115.5529988  16.7454158   7.4413291 115.7855491
   1.0820012   5.7414997 119.2409988   2.0020012   5.6194997 119.4769988
   0.6330012   4.9914997 119.6299988   1.1471580   5.6233727 119.3259006
  19.0840012   1.2734997 121.1169988  19.4340012   0.6194997 120.5119988
  19.2310012   2.1104997 120.6769988  19.1517887   1.2971548 120.9746858
  16.7730012   3.2384997 107.5999988  16.9560012   2.7894997 108.4259988
  16.1740012   2.6534997 107.1369988  16.7170202   3.0979975 107.6503275
   2.3030012   4.0534997 112.1319988   2.7490012   3.2614997 112.4339988
   2.7700012   4.7694997 112.5619988   2.4270831   4.0420685 112.2314006
   0.6070012   7.0524997 113.2009988   1.0990012   6.8314997 112.4099988
   0.9700012   7.8934997 113.4819988   0.7233126   7.1358357 113.1307531
  18.6040012   3.3824997 119.4659988  17.6860012   3.6534997 119.4309988
  18.7270012   2.8474997 118.6819988  18.4949729   3.3472508 119.3551923
   0.9210012   3.3104997 107.2549988  -0.0039988   3.5194997 107.1259988
   1.3750012   3.7944997 106.5649988   0.8557292   3.4045343 107.1440720
  15.6920012  18.2944997 109.2009988  16.3440012  17.9474997 108.5929988
  16.2020012  18.7834997 109.8469988  15.8502637  18.3130597 109.2050236
   0.8850012   2.0484997 115.5989988   0.2200012   1.8024997 116.2429988
   0.4420012   2.6704997 115.0219988   0.7341318   2.0989410 115.6090898
   3.0770012  15.2234997 119.7439988   2.2560012  15.3984997 119.2829988
   2.8240012  15.1504997 120.6639988   2.9305585  15.2375544 119.8053561
   6.0310012  16.1984997 116.0019988   5.6060012  17.0074997 115.7199988
   6.9350012  16.2834997 115.6999988   6.0949975  16.3209300 115.9224816
  10.3420012  17.5974997 118.9619988  10.5270012  17.2634997 119.8399988
  11.1880012  17.9064997 118.6399988  10.4817539  17.5936047 119.0385605
  12.6870012  18.8834997 118.2059988  13.3640012  18.2504997 117.9659988
  13.0090012  19.2844997 119.0129988  12.8231637  18.8511154 118.2822793
  17.6040012   1.4724997 117.2849988  16.7920012   1.7974997 116.8979988
  17.8370012   0.7124997 116.7519988  17.5242203   1.4142758 117.1598880
   3.4330012  19.4544997 116.0499988   2.7120012  19.8944997 115.5989988
   3.0670012  19.2034997 116.8979988   3.2849651  19.4807242 116.1029640
   5.9000012  19.0544997 115.0799988   5.0350012  19.1264997 115.4839988
   5.8450012  19.6014997 114.2959988   5.7742085  19.1382685 115.0293362
  10.6100012  18.9424997 114.2549988  10.1540012  19.4714997 113.6009988
  10.7730012  19.5454997 114.9799988  10.5696068  19.0964607 114.2634838
  12.9380012  17.8204997 115.1999988  12.0330012  17.9854997 114.9339988
  13.3670012  18.6734997 115.1349988  12.8721324  17.9584339 115.1547976
  15.5420012  19.3904997 115.4949988  15.3600012  20.3064997 115.2849988
  15.7190012  18.9804997 114.6489988  15.5410210  19.4604822 115.3517885
   2.8470012  18.0774997 112.9599988   2.8290012  17.6524997 113.8169988
   3.6520012  17.7594997 112.5509988   2.9533529  17.9763013 113.0220946
   4.9890012  16.7874997 111.6149988   4.7700012  15.8714997 111.7849988
   5.8130012  16.9274997 112.0809988   5.0704420  16.6810520 111.7012774
   7.5260012  17.2574997 112.4639988   7.7390012  16.3694997 112.1769988
   7.5900012  17.2234997 113.4179988   7.5638232  17.1313102 112.5537397
  11.0340012   2.9214997 111.6079988  10.3600012   2.2924997 111.8639988
  11.5980012   2.4374997 111.0049988  11.0179230   2.7698744 111.5615340
  16.1770012   1.0294997 111.7209988  16.7810012   1.5764997 111.2189988
  15.3070012   1.3484997 111.4799988  16.1421208   1.1475137 111.6196886
  17.9040012   2.1674997 110.0539988  18.5160012   1.6534997 109.5269988
  18.2860012   3.0454997 110.0769988  18.0393371   2.2157866 109.9850041
   3.3610012   1.5554997 109.4299988   2.5840012   1.3214997 108.9229988
   3.8910012   0.7584997 109.4389988   3.3262330   1.4156988 109.3617742
   2.1970012   1.3534997 105.2339988   2.6360012   1.9644997 104.6419988
   1.5640012   1.8914997 105.7079988   2.1714514   1.5099257 105.2170930
   7.9400012   1.4824997 109.2439988   8.8150012   1.8704997 109.2139988
   7.8040012   1.2674997 110.1659988   8.0413695   1.5065184 109.3646440
  13.4970012   1.5124997 110.8929988  13.5730012   1.6074997 109.9429988
  13.2220012   0.6044997 111.0219988  13.4702321   1.4027867 110.7805079
  14.8500012   1.5384997 106.5849988  14.1480012   2.1534997 106.3749988
  14.4060012   0.7004997 106.7159988  14.6936450   1.5095639 106.5739000
   2.0980012  17.3014997 106.1309988   1.4130012  17.2634997 105.4639988
   2.1020012  18.2144997 106.4199988   2.0046998  17.4196733 106.0786771
   4.0580012   3.2694997 103.6759988   4.5500012   2.6394997 103.1489988
   4.6820012   3.5654997 104.3389988   4.2095688   3.2233804 103.6935482
   9.0840012   3.5624997 106.1329988   9.2620012   2.9164997 106.8159988
   9.0310012   4.3964997 106.5999988   9.1011999   3.5868009 106.2895917
  17.6720012  18.0744997 107.2079988  17.4770012  17.3264997 106.6429988
  17.6330012  18.8324997 106.6249988  17.6400380  18.0746099 107.0518384
   3.3190012   2.0694997 118.9479988   2.9530012   1.3044997 119.3899988
   4.2320012   2.0984997 119.2339988   3.3922736   1.9685640 119.0472502
   5.2920012   1.4204997 120.4839988   6.1900012   1.1464997 120.2989988
   4.9050012   0.6774997 120.9479988   5.3626612   1.2825914 120.5213643
  13.7130012   0.7524997 120.6659988  13.7900012   0.3264997 121.5199988
  14.6070012   0.7664997 120.3229988  13.8443428   0.6960879 120.7365310
  16.8890012  16.8254997 119.3579988  16.1070012  16.6394997 118.8379988
  16.8170012  17.7544997 119.5759988  16.7722274  16.9256643 119.3163018
  31.2950012  10.7114997 109.3889988  31.3840012  11.6554997 109.2569988
  30.6570012  10.4364997 108.7309988  31.2209081  10.8034830 109.2819614
  30.2280012   9.9664997 112.8079988  30.1900012   9.3204997 113.5129988
  29.9060012   9.5004997 112.0369988  30.1792333   9.8149408 112.8002978
  22.5970012   9.5814997 114.4009988  22.6380012   8.9554997 115.1239988
  23.3000012  10.2054997 114.5829988  22.6976363   9.5801196 114.5246044
  33.9340012  12.9054997 111.1089988  33.4940012  12.1854997 111.5599988
  33.9210012  13.6264997 111.7389988  33.8720226  12.9043731 111.2558494
  23.5200012  14.0314997 112.9359988  23.1510012  13.2294997 112.5659988
  24.4610012  13.8624997 112.9819988  23.5967289  13.8990153 112.8916316
  20.1300012   7.6914997 108.3289988  19.6830012   8.5374997 108.3099988
  19.5690012   7.1114997 107.8129988  19.9929900   7.7289916 108.2566801
  20.8410012   9.8534997 110.4539988  21.0540012   9.0834997 110.9819988
  21.5790012   9.9424997 109.8509988  20.9699044   9.7601968 110.4447123
  31.0460012  18.0104997 111.3209988  31.6660012  17.3334997 111.0479988
  30.8380012  17.7924997 112.2299988  31.1026726  17.8884800 111.4064812
  28.6180012  12.3994997 113.2139988  28.9220012  11.7134997 112.6189988
  29.3390012  12.5174997 113.8319988  28.7570671  12.3216305 113.2161816
  37.2810012   4.0004997 114.0749988  37.3300012   4.6104997 114.8099988
  37.7060012   4.4614997 113.3519988  37.3451746   4.1463796 114.0779175
  31.7590012   6.7934997 113.5409988  31.9010012   5.8474997 113.5619988
  31.6520012   7.0004997 112.6129988  31.7639919   6.6918246 113.4183408
  24.9130012   4.8944997 110.8139988  24.9570012   5.7544997 110.3949988
  24.4560012   4.3424997 110.1799988  24.8572240   4.9374422 110.6709864
  32.6360012   5.0254997 109.2149988  33.2820012   4.6964997 109.8389988
  33.1460012   5.5434997 108.5919988  32.7934299   5.0504450 109.2162731
  21.5340012   7.2914997 111.5759988  22.1870012   6.7414997 112.0079988
  21.5580012   7.0174997 110.6589988  21.6266683   7.1791466 111.5112123
  26.6900012   8.8414997 110.7909988  27.3060012   8.3154997 111.3009988
  26.1040012   8.2014997 110.3879988  26.6950810   8.6829208 110.8063173
  37.6720012   5.4784997 116.3099988  36.9840012   6.1364997 116.2149988
  37.6880012   5.2814997 117.2469988  37.5799540   5.5419819 116.4235990
  23.7240012   3.8124997 114.8879988  23.5050012   4.3424997 114.1219988
  23.0560012   4.0394997 115.5349988  23.6037600   3.9156906 114.8706379
  31.0930012  13.3124997 108.4319988  30.7970012  12.9904997 107.5809988
  30.7680012  14.2124997 108.4729988  31.0086371  13.3900215 108.3211801
  26.2930012  11.4884997 115.1749988  25.5530012  12.0864997 115.2789988
  27.0070012  12.0424997 114.8599988  26.2882237  11.6452831 115.1466465
  34.4000012   4.3164997 111.1949988  34.1840012   3.5504997 111.7279988
  35.0550012   4.7884997 111.7079988  34.4590632   4.2755889 111.3372861
  23.3170012   5.7044997 112.8399988  23.9310012   6.3374997 113.2129988
  23.8290012   5.2324997 112.1839988  23.4701981   5.7272267 112.8022908
  24.7000012  13.4524997 115.9619988  24.6950012  14.3324997 115.5839988
  23.8470012  13.3694997 116.3869988  24.5839464  13.5616117 115.9677907
  20.8210012  13.1234997 106.7439988  20.5490012  13.3524997 105.8559988
  20.8670012  13.9614997 107.2049988  20.7899482  13.2681318 106.6846273
  34.4460012  14.7454997 113.4569988  33.5050012  14.8034997 113.6189988
  34.7230012  15.6514997 113.3199988  34.3544679  14.8759443 113.4606815
  34.7470012   3.0314997 114.8749988  34.0110012   3.6424997 114.8369988
  35.4300012   3.4464997 114.3479988  34.7386541   3.1711374 114.7985832
  27.7500012   1.1184997 112.3399988  27.6330012   0.1694997 112.2859988
  26.8950012   1.4504997 112.6139988  27.6184212   1.0335571 112.3696497
  32.6980012  16.5264997 110.0819988  33.1240012  15.8194997 109.5969988
  33.0150012  17.3274997 109.6659988  32.7991683  16.5381017 109.9593680
  33.8580012  14.4274997 108.5909988  33.6000012  13.7374997 107.9799988
  33.9290012  13.9844997 109.4369988  33.8322856  14.2732124 108.6216885
  35.5440012  12.9934997 117.0679988  35.6840012  12.4024997 116.3289988
  35.7110012  13.8664997 116.7119988  35.5857411  13.0305428 116.9186894
  30.0170012   9.9554997 106.8409988  29.3050012  10.4904997 106.4889988
  30.7080012  10.0114997 106.1809988  30.0130132  10.0362543 106.7036289
  37.3860012   9.3334997 115.1339988  36.7330012  10.0284997 115.2239988
  37.8510012   9.5434997 114.3249988  37.3595274   9.4570643 115.0368462
  33.4220012  10.1654997 107.7929988  32.6900012  10.3934997 108.3659988
  33.8700012   9.4514997 108.2469988  33.3822725  10.1002145 107.9328816
  33.3200012   8.3394997 116.8599988  33.4000012   9.1024997 117.4319988
  32.7180012   8.6184997 116.1699988  33.2495756   8.4817134 116.8450589
  25.0680012  10.7954997 109.6749988  24.7370012  10.4254997 108.8569988
  25.6560012  10.1254997 110.0219988  25.1021873  10.6541156 109.6098102
  26.4340012  14.2234997 112.3559988  26.3400012  13.6454997 111.5999988
  27.1640012  13.8524997 112.8529988  26.5197387  14.0941663 112.3195342
  25.4340012   9.5644997 113.3089988  26.0000012   9.6854997 112.5459988
  25.7530012  10.2014997 113.9469988  25.5545474   9.6672219 113.2909862
  31.7430012  15.0674997 114.0429988  31.5030012  15.7294997 114.6909988
  31.5450012  14.2334997 114.4679988  31.6833808  15.0453134 114.1891524
  26.3140012  13.9634997 118.0259988  26.0030012  14.7454997 118.4809988
  25.6640012  13.8104997 117.3399988  26.1835558  14.0499105 117.9955871
  32.2930012   9.3274997 105.4779988  32.8730012   9.4774997 106.2249988
  32.7070012   9.7984997 104.7539988  32.4282997   9.4116578 105.4824058
  23.2340012  10.1614997 117.2539988  23.3050012  10.8124997 117.9529988
  22.3440012  10.2644997 116.9189988  23.1233005  10.2645427 117.3043495
  30.0200012  16.0644997 108.9129988  30.4940012  16.3594997 109.6899988
  29.4570012  16.8024997 108.6799988  30.0088184  16.2047247 108.9879628
  24.5540012  16.0354997 118.7889988  24.5610012  15.8994997 117.8419988
  23.6380012  15.9174997 119.0409988  24.4311714  16.0009430 118.6934666
  35.9920012   1.0774997 105.2909988  35.0920012   1.2164997 105.5859988
  36.2440012   1.9084997 104.8889988  35.9028702   1.2089074 105.2770205
  24.0580012   9.8654997 107.2639988  23.7660012  10.6334997 106.7739988
  23.3840012   9.2054997 107.1019988  23.9268111   9.8815587 107.1748978
  37.1810012  15.4434997 103.6669988  37.2550012  16.3824997 103.8379988
  38.0870012  15.1384997 103.6109988  37.3135100  15.5306722 103.6828119
  20.1510012  12.2284997 116.0789988  19.6500012  12.2004997 115.2639988
  20.1560012  11.3224997 116.3889988  20.0830944  12.1022396 116.0093226
  19.9010012  15.0084997 112.9629988  20.8470012  14.8644997 112.9439988
  19.7890012  15.7924997 113.4999988  20.0152727  15.0948046 113.0330072
  38.0990012  15.6744997 118.6459988  38.0500012  14.7194997 118.6089988
  37.2720012  15.9424997 119.0469988  37.9804940  15.5798998 118.6951375
  29.0780012  15.2484997 117.5219988  29.1650012  16.0744997 117.9969988
  28.2140012  14.9184997 117.7709988  28.9731964  15.3169878 117.6206549
  29.4920012  19.0204997 107.3279988  29.4170012  18.8994997 106.3809988
  29.5250012  19.9704997 107.4459988  29.4862068  19.1322646 107.2144967
  23.1450012  17.8094997 109.1089988  23.2980012  17.4614997 109.9869988
  22.2950012  17.4534997 108.8539988  23.0509166  17.7136216 109.1948079
  32.5940012  18.1744997 104.3299988  32.9690012  17.4304997 103.8589988
  32.5980012  17.9044997 105.2489988  32.6459125  18.0360986 104.3896483
  32.2630012  18.1004997 107.0789988  31.3270012  18.2004997 107.2579988
  32.5430012  17.3914997 107.6579988  32.1729553  18.0183406 107.1817087
  35.2510012   7.1674997 119.1259988  34.8440012   7.6484997 118.4049988
  35.2920012   6.2624997 118.8179988  35.2008437   7.1109374 118.9856683
  22.4000012  13.5514997 117.1229988  22.6160012  13.1904997 117.9819988
  21.5450012  13.1774997 116.9129988  22.3139292  13.4514111 117.2123386
  25.0190012   2.0214997 113.1179988  24.1570012   1.9344997 112.7099988
  24.9960012   2.8774997 113.5459988  24.8980409   2.1252883 113.1200589
  29.6820012   1.7434997 116.4929988  30.1020012   1.3284997 117.2459988
  28.7490012   1.5654997 116.6099988  29.6133644   1.6625900 116.6119539
  33.0080012   5.4994997 117.3459988  32.4940012   5.3734997 118.1439988
  32.8530012   6.4114997 117.1019988  32.9166852   5.6056132 117.4222158
  25.1100012   6.9874997 114.2129988  24.4680012   6.9464997 114.9219988
  25.1470012   7.9134997 113.9749988  25.0270664   7.1071430 114.2779219
  25.1070012   7.2084997 109.1249988  24.2140012   6.8674997 109.0659988
  25.5570012   6.8314997 108.3689988  25.0458130   7.1109631 109.0147702
  30.6420012   7.6244997 107.9419988  30.2330012   8.4394997 107.6509988
  31.3630012   7.4844997 107.3279988  30.6834537   7.7172018 107.8191342
  29.7440012   7.7994997 119.4299988  29.1820012   7.0954997 119.7509988
  30.5710012   7.6794997 119.8979988  29.7787095   7.6867883 119.5372330
  31.6470012   7.0704997 110.7559988  31.4520012   7.6754997 110.0409988
  31.8280012   6.2364997 110.3219988  31.6447614   7.0406300 110.5994405
  22.8600012   7.3074997 116.0799988  22.8220012   7.7074997 116.9489988
  22.3690012   6.4904997 116.1709988  22.7884684   7.2518069 116.2111059
  19.4680012   4.4234997 109.9309988  20.0990012   4.3944997 110.6499988
  19.9170012   3.9984997 109.1999988  19.6150918   4.3620836 109.9306441
  20.7420012   5.1694997 105.3549988  21.2160012   5.7604997 104.7699988
  20.0250012   5.7004997 105.7019988  20.7099341   5.3220867 105.3218836
  30.9110012   8.7084997 115.4269988  31.2340012   8.0774997 114.7839988
  30.4710012   8.1734997 116.0879988  30.8957484   8.5498387 115.4283198
  27.6880012   4.6354997 110.2109988  26.7770012   4.6924997 110.4999988
  28.1940012   4.5754997 111.0219988  27.6316899   4.6351941 110.3601184
  22.5170012   6.2644997 109.0379988  21.6270012   6.3644997 108.6979988
  22.8130012   5.4224997 108.6919988  22.4352823   6.1643545 108.9447213
  26.1700012   6.2644997 106.6949988  27.1010012   6.3934997 106.8729988
  25.9550012   6.9344997 106.0449988  26.2684247   6.3726565 106.6315747
  32.0930012   3.8704997 113.4759988  31.4170012   4.0014997 114.1399988
  31.6080012   3.7154997 112.6649988  31.9347146   3.8675157 113.4574469
  35.3810012  19.5424997 119.7519988  35.5810012  19.9664997 118.9179988
  36.0360012  19.8854997 120.3589988  35.4970072  19.6469857 119.7198592
  22.9790012  12.0164997 119.3599988  23.7110012  12.2704997 119.9219988
  22.1990012  12.2204997 119.8759988  22.9737073  12.0788160 119.5066151
  29.0080012   7.4234997 112.0979988  29.5730012   6.8764997 111.5509988
  28.8610012   6.9014997 112.8869988  29.0653380   7.2782259 112.1298695
  24.0100012   3.5594997 108.5169988  23.6930012   2.6574997 108.4809988
  24.7920012   3.5614997 107.9639988  24.0722408   3.4362474 108.4373569
  27.6350012   5.8114997 114.5119988  26.7990012   6.2654997 114.6229988
  28.1590012   6.0874997 115.2639988  27.5915416   5.9108660 114.6288119
  28.1790012  12.0244997 106.1969988  27.4340012  11.5174997 105.8749988
  28.0450012  12.0734997 107.1439988  28.0588776  11.9616940 106.2808647
  35.3290012  11.1574997 114.9839988  35.9710012  11.6144997 114.4399988
  34.4990012  11.2704997 114.5209988  35.3045963  11.2352704 114.8470177
  29.6980012  12.2084997 117.4339988  29.3530012  11.8274997 118.2409988
  29.4980012  13.1424997 117.5049988  29.6237527  12.2825135 117.5540689
  32.7950012   6.7054997 106.0569988  33.6870012   6.5684997 106.3759988
  32.8520012   7.4964997 105.5199988  32.9246504   6.7936052 106.0280818
  23.3040012  11.3194997 111.9669988  24.0490012  11.3174997 111.3659988
  23.3820012  10.4964997 112.4479988  23.4164995  11.2078887 111.9498282
  30.3050012  13.4834997 105.2229988  30.0090012  14.3094997 105.6039988
  29.6020012  12.8634997 105.4189988  30.1694914  13.5128199 105.3016443
  20.3120012   9.7804997 117.2819988  20.5350012   9.3624997 118.1139988
  19.7100012   9.1674997 116.8589988  20.2611759   9.6404668 117.3387022
  27.3280012   9.2974997 119.4949988  27.0320012   9.1314997 118.5999988
  28.2600012   9.0774997 119.4839988  27.4134166   9.2450640 119.3710536
  31.9490012  14.6704997 117.3849988  31.0480012  14.8534997 117.1169988
  31.9830012  14.9294997 118.3049988  31.8303139  14.7305849 117.4728099
  37.6800012   6.9154997 105.7519988  37.1260012   6.5194997 105.0799988
  37.7800012   7.8254997 105.4739988  37.6177059   6.9843586 105.6224401
  37.6430012  12.7154997 118.5889988  36.7920012  12.9534997 118.2219988
  38.2340012  12.6984997 117.8359988  37.6062487  12.7458258 118.4368893
  35.9750012  15.7014997 106.2169988  35.6020012  14.8754997 106.5259988
  36.2530012  15.5184997 105.3189988  35.9615222  15.5637430 106.1379473
  33.1360012  10.5094997 113.2379988  32.2070012  10.2774997 113.2109988
  33.5870012   9.7324997 112.9079988  33.0699216  10.3727238 113.1896917
  25.6790012  14.8374997 109.3709988  26.2060012  15.6104997 109.1709988
  24.7990012  15.0624997 109.0689988  25.6322031  14.9737545 109.3027912
  27.1060012  12.5004997 108.9469988  26.8650012  13.4254997 108.9889988
  26.3650012  12.0414997 109.3439988  26.9729225  12.5650933 109.0063742
  27.6210012  16.6494997 115.2629988  27.9830012  17.5044997 115.0289988
  28.1520012  16.3574997 116.0029988  27.7424473  16.7271060 115.3310855
  25.7890012  17.5224997 108.4929988  24.8390012  17.6274997 108.5439988
  26.1410012  18.3424997 108.8369988  25.7064195  17.6478800 108.5465502
  31.1650012  12.7484997 114.9629988  30.7390012  12.5214997 115.7899988
  31.7450012  12.0104997 114.7809988  31.1851868  12.6175299 115.0515830
  33.8230012  17.3004997 117.4329988  33.2220012  16.7454997 116.9369988
  34.1050012  17.9674997 116.8059988  33.7788804  17.3146625 117.2804849
  37.8710012  18.1574997 104.2379988  38.6150012  18.7434997 104.0979988
  37.1770012  18.7254997 104.5709988  37.8789899  18.3145798 104.2638778
  21.9460012   4.5334997 116.8399988  21.0530012   4.8724997 116.7719988
  21.8470012   3.6784997 117.2579988  21.8104164   4.4642588 116.8872235
  34.2340012  12.3504997 106.2639988  33.9560012  11.6224997 106.8199988
  35.1610012  12.4694997 106.4689988  34.3213124  12.2668802 106.3678845
  21.5970012  16.3384997 115.2749988  21.8140012  15.4064997 115.2439988
  21.8430012  16.6124997 116.1579988  21.6599549  16.2480636 115.3901763
  22.8490012  11.6124997 105.4509988  22.1630012  11.9644997 106.0179988
  23.3710012  12.3754997 105.2039988  22.8256852  11.7638578 105.4952118
  30.6800012   4.2744997 115.7299988  31.3790012   4.3484997 116.3799988
  30.2990012   3.4104997 115.8839988  30.7241767   4.1677624 115.8398322
  31.4650012   3.9264997 106.8269988  31.6850012   4.3984997 106.0239988
  32.0230012   4.3214997 107.4969988  31.5704968   4.0444285 106.8077331
  29.1330012  16.0574997 105.6899988  28.3170012  16.5544997 105.7419988
  29.6630012  16.5324997 105.0499988  29.0929161  16.1897722 105.6105956
  28.6650012   5.6544997 107.6619988  29.4770012   6.1594997 107.7079988
  28.4200012   5.5094997 108.5759988  28.7430520   5.7040375 107.7918517
  29.2000012   6.6404997 116.8459988  29.3190012   7.2144997 117.6039988
  29.8560012   5.9524997 116.9609988  29.3049025   6.6259858 116.9651321
  29.5480012   2.7354997 108.5999988  29.2020012   3.3534997 109.2439988
  30.2070012   3.2364997 108.1179988  29.5896968   2.8876278 108.6229383
  25.2060012   3.7984997 105.2869988  25.1230012   4.6874997 105.6339988
  26.0960012   3.5334997 105.5189988  25.3149469   3.8841430 105.3657626
  35.4050012   4.5474997 117.6809988  34.4880012   4.8104997 117.5939988
  35.7400012   4.5444997 116.7849988  35.3248613   4.5830761 117.5478837
  34.0070012   8.2984997 111.7769988  33.2090012   7.8834997 111.4489988
  34.4520012   7.6074997 112.2679988  33.9579885   8.1483543 111.7984889
  21.7810012   6.8904997 103.4639988  21.7360012   7.8294997 103.6419988
  20.8930012   6.6544997 103.1939988  21.6548574   6.9871892 103.4518912
  35.0930012  17.5544997 113.3999988  34.9380012  18.2324997 112.7419988
  36.0260012  17.6264997 113.6029988  35.1978657  17.6569546 113.3374360
  22.5890012   1.6724997 112.1369988  22.3600012   1.7314997 111.2089988
  22.1460012   0.8804997 112.4429988  22.4978530   1.5735753 112.0514786
  21.5190012  15.6124997 108.2969988  20.6870012  16.0854997 108.3239988
  22.0650012  16.1224997 107.6989988  21.4790352  15.7461332 108.2198463
  20.8070012  18.2254997 119.6269988  21.3480012  18.0084997 120.3869988
  20.3260012  17.4194997 119.4369988  20.8159951  18.0869270 119.7052576
  25.4050012  17.1444997 121.2469988  26.1720012  16.6854997 121.5879988
  25.3830012  16.9184997 120.3179988  25.5071275  17.0510186 121.1680101
  31.9820012  15.5244997 119.9769988  31.6310012  14.6684997 120.2199988
  32.7080012  15.6674997 120.5839988  32.0320769  15.4265636 120.0923619
  34.1010012  16.4694997 102.8559988  34.3840012  15.6754997 103.3089988
  34.8410012  16.7024997 102.2959988  34.2398006  16.3923376 102.8422715
  20.7140012  12.0354997 120.5809988  20.8580012  11.1334997 120.2949988
  19.9420012  12.3214997 120.0939988  20.6292753  11.9506816 120.4759505
  27.3700012  12.0054997 120.0139988  27.0410012  12.2764997 119.1569988
  27.5220012  11.0644997 119.9269988  27.3454809  11.9153862 119.8848244
  33.1040012  11.9214997 117.3969988  33.8500012  12.5094997 117.2779988
  32.3470012  12.5034997 117.4609988  33.1037820  12.0807143 117.3893590
  21.5470012   9.2354997 120.0009988  21.9550012   8.3784997 119.8799988
  21.2870012   9.2504997 120.9219988  21.5677568   9.1200807 120.1089588
  25.4940012   8.2444997 117.3759988  24.8760012   8.9194997 117.6559988
  25.8380012   8.5654997 116.5419988  25.4559132   8.3802411 117.3016262
  30.5140012  10.7164997 120.6529988  31.4670012  10.7994997 120.6259988
  30.3530012  10.0044997 121.2729988  30.6226426  10.6316746 120.7330579
  25.8330012   5.5994997 118.4579988  25.9830012   4.8704997 117.8559988
  25.8360012   6.3764997 117.8989988  25.8539302   5.6047851 118.3000692
  26.2460012   3.9694997 115.9509988  26.7820012   4.4204997 115.2989988
  25.3940012   3.8614997 115.5279988  26.2042178   4.0166390 115.8045756
  27.8280012   9.4084997 116.1899988  28.5780012   9.2524997 115.6169988
  27.4890012  10.2604997 115.9149988  27.8848921   9.5022968 116.0743561
  32.2430012   7.2234997 121.2189988  32.4360012   6.2924997 121.1069988
  33.1010012   7.6484997 121.2079988  32.3852934   7.1536531 121.2022031
  33.5600012  10.0124997 119.2959988  33.2790012  10.7214997 118.7179988
  34.5030012   9.9394997 119.1449988  33.6489291  10.0996711 119.1964967
  24.3120012   6.7974997 120.3699988  23.5450012   6.2654997 120.1589988
  24.9910012   6.4874997 119.7699988  24.2987877   6.6828300 120.2600716
  27.0520012   1.4254997 116.3819988  26.9530012   2.3724997 116.2769988
  26.3090012   1.0534997 115.9059988  26.9381184   1.5045863 116.3033621
  28.3160012   5.7474997 119.9459988  28.0800012   5.5274997 120.8469988
  27.5320012   5.5404997 119.4359988  28.1778504   5.6894586 120.0003431
  31.0310012   4.8744997 119.0209988  30.0840012   4.9064997 119.1539988
  31.3440012   4.2494997 119.6749988  30.9436707   4.7943998 119.1276060
  32.6650012   3.5084997 121.0269988  32.5690012   2.5564997 121.0209988
  32.3440012   3.7774997 121.8869988  32.6084070   3.4144035 121.1425441
  22.4920012   4.7184997 120.0739988  22.7040012   4.0114997 119.4639988
  22.3810012   4.2804997 120.9179988  22.5059721   4.5627084 120.1046843
  27.2730012   0.7194997 119.0529988  27.9850012   0.0794997 119.0389988
  27.1720012   0.9864997 118.1399988  27.3568066   0.6680079 118.9275677
  27.6270012   2.4024997 121.1069988  27.4950012   1.9264997 120.2869988
  27.0280012   3.1464997 121.0519988  27.5279071   2.4379618 120.9872886
  27.1730012  19.2854997 104.2829988  28.1060012  19.4434997 104.4269988
  26.9090012  19.9604997 103.6589988  27.2649888  19.3984510 104.2182842
  19.3910012  19.3144997 108.8439988  18.7440012  18.8524997 108.3109988
  19.7450012  18.6424997 109.4259988  19.3503849  19.1604723 108.8497959
  20.2610012  17.3954997 110.6479988  19.9260012  16.5154997 110.8199988
  20.4830012  17.7404997 111.5129988  20.2451783  17.3217500 110.7884208
  37.8090012  18.2044997 113.6289988  37.7880012  18.3894997 114.5679988
  38.5000012  18.7734997 113.2879988  37.8994618  18.3066606 113.7113864
  37.3730012  17.7724997 116.5509988  36.8850012  17.0364997 116.1789988
  37.9220012  17.3784997 117.2289988  37.3804820  17.6185889 116.5917813
  35.8230012  13.5614997 121.1889988  34.9570012  13.4564997 121.5829988
  36.2000012  14.3204997 121.6349988  35.7553308  13.6496900 121.3032393
  37.1240012  11.8184997 106.7029988  37.9740012  12.2394997 106.8299988
  37.1300012  11.0784997 107.3099988  37.2411372  11.7760803 106.8024344
  37.5190012   9.8714997 108.5259988  36.7920012   9.3924997 108.9239988
  38.1000012  10.0774997 109.2589988  37.4980473   9.8338103 108.6794528
  37.2780012  12.6564997 113.4739988  38.1110012  12.2784997 113.1939988
  37.3900012  13.5994997 113.3549988  37.4072647  12.7322218 113.4195487
  35.7640012  15.5344997 115.7809988  35.1170012  15.8594997 116.4069988
  35.2470012  15.0944997 115.1069988  35.6054029  15.5195004 115.7755827
  37.7870012   9.7724997 104.9179988  37.2650012  10.1294997 104.1989988
  37.7540012  10.4474997 105.5959988  37.7111634   9.9125413 104.9113145
  36.1360012   7.0124997 103.4679988  36.2320012   7.6794997 102.7879988
  35.9960012   6.1964997 102.9869988  36.1302272   6.9935655 103.3098347
  35.3050012   8.3924997 109.0889988  35.1550012   7.4474997 109.0689988
  34.9520012   8.6734997 109.9329988  35.2367448   8.3011481 109.2003705
  20.3410012  10.4704997 113.0999988  20.5250012  10.3884997 112.1639988
  21.1900012  10.3464997 113.5229988  20.4810151  10.4425073 113.0291451
  36.1620012  10.3624997 118.7279988  36.7450012   9.6284997 118.9199988
  36.7260012  11.1344997 118.7749988  36.3179769  10.3664227 118.7606159
  37.6580012   8.2654997 119.4129988  36.7950012   7.8864997 119.2469988
  38.2630012   7.5264997 119.3379988  37.6216119   8.1138268 119.3801528
  35.0160012   5.9754997 107.5519988  35.2960012   5.0684997 107.6759988
  35.7750012   6.4094997 107.1629988  35.1569277   5.9100942 107.5163682
  35.6280012   6.5564997 112.9879988  36.5610012   6.7684997 112.9529988
  35.3930012   6.6584997 113.9099988  35.7239244   6.5993100 113.1078892
  35.6570012   7.2934997 115.7639988  34.8140012   7.5614997 116.1299988
  36.0990012   8.1154997 115.5529988  35.6014158   7.4413291 115.7855491
  19.9380012   5.7414997 119.2409988  20.8580012   5.6194997 119.4769988
  19.4890012   4.9914997 119.6299988  20.0031580   5.6233727 119.3259006
  37.9400012   1.2734997 121.1169988  38.2900012   0.6194997 120.5119988
  38.0870012   2.1104997 120.6769988  38.0077887   1.2971548 120.9746858
  35.6290012   3.2384997 107.5999988  35.8120012   2.7894997 108.4259988
  35.0300012   2.6534997 107.1369988  35.5730202   3.0979975 107.6503275
  21.1590012   4.0534997 112.1319988  21.6050012   3.2614997 112.4339988
  21.6260012   4.7694997 112.5619988  21.2830831   4.0420685 112.2314006
  19.4630012   7.0524997 113.2009988  19.9550012   6.8314997 112.4099988
  19.8260012   7.8934997 113.4819988  19.5793126   7.1358357 113.1307531
  37.4600012   3.3824997 119.4659988  36.5420012   3.6534997 119.4309988
  37.5830012   2.8474997 118.6819988  37.3509729   3.3472508 119.3551923
  37.4960012   3.3054997 104.1279988  37.9080012   2.5844997 103.6529988
  38.1780012   3.9754997 104.1869988  37.6445885   3.2972368 104.0708915
  19.7770012   3.3104997 107.2549988  18.8520012   3.5194997 107.1259988
  20.2310012   3.7944997 106.5649988  19.7117292   3.4045343 107.1440720
  34.5480012  18.2944997 109.2009988  35.2000012  17.9474997 108.5929988
  35.0580012  18.7834997 109.8469988  34.7062637  18.3130597 109.2050236
  19.7410012   2.0484997 115.5989988  19.0760012   1.8024997 116.2429988
  19.2980012   2.6704997 115.0219988  19.5901318   2.0989410 115.6090898
  21.9330012  15.2234997 119.7439988  21.1120012  15.3984997 119.2829988
  21.6800012  15.1504997 120.6639988  21.7865585  15.2375544 119.8053561
  24.8870012  16.1984997 116.0019988  24.4620012  17.0074997 115.7199988
  25.7910012  16.2834997 115.6999988  24.9509975  16.3209300 115.9224816
  29.1980012  17.5974997 118.9619988  29.3830012  17.2634997 119.8399988
  30.0440012  17.9064997 118.6399988  29.3377539  17.5936047 119.0385605
  31.5430012  18.8834997 118.2059988  32.2200012  18.2504997 117.9659988
  31.8650012  19.2844997 119.0129988  31.6791637  18.8511154 118.2822793
  36.4600012   1.4724997 117.2849988  35.6480012   1.7974997 116.8979988
  36.6930012   0.7124997 116.7519988  36.3802203   1.4142758 117.1598880
  22.2890012  19.4544997 116.0499988  21.5680012  19.8944997 115.5989988
  21.9230012  19.2034997 116.8979988  22.1409651  19.4807242 116.1029640
  24.7560012  19.0544997 115.0799988  23.8910012  19.1264997 115.4839988
  24.7010012  19.6014997 114.2959988  24.6302085  19.1382685 115.0293362
  29.4660012  18.9424997 114.2549988  29.0100012  19.4714997 113.6009988
  29.6290012  19.5454997 114.9799988  29.4256068  19.0964607 114.2634838
  31.7940012  17.8204997 115.1999988  30.8890012  17.9854997 114.9339988
  32.2230012  18.6734997 115.1349988  31.7281324  17.9584339 115.1547976
  34.3980012  19.3904997 115.4949988  34.2160012  20.3064997 115.2849988
  34.5750012  18.9804997 114.6489988  34.3970210  19.4604822 115.3517885
  21.7030012  18.0774997 112.9599988  21.6850012  17.6524997 113.8169988
  22.5080012  17.7594997 112.5509988  21.8093529  17.9763013 113.0220946
  23.8450012  16.7874997 111.6149988  23.6260012  15.8714997 111.7849988
  24.6690012  16.9274997 112.0809988  23.9264420  16.6810520 111.7012774
  26.3820012  17.2574997 112.4639988  26.5950012  16.3694997 112.1769988
  26.4460012  17.2234997 113.4179988  26.4198232  17.1313102 112.5537397
  29.8900012   2.9214997 111.6079988  29.2160012   2.2924997 111.8639988
  30.4540012   2.4374997 111.0049988  29.8739230   2.7698744 111.5615340
  35.0330012   1.0294997 111.7209988  35.6370012   1.5764997 111.2189988
  34.1630012   1.3484997 111.4799988  34.9981208   1.1475137 111.6196886
  36.7600012   2.1674997 110.0539988  37.3720012   1.6534997 109.5269988
  37.1420012   3.0454997 110.0769988  36.8953371   2.2157866 109.9850041
  22.2170012   1.5554997 109.4299988  21.4400012   1.3214997 108.9229988
  22.7470012   0.7584997 109.4389988  22.1822330   1.4156988 109.3617742
  21.0530012   1.3534997 105.2339988  21.4920012   1.9644997 104.6419988
  20.4200012   1.8914997 105.7079988  21.0274514   1.5099257 105.2170930
  26.7960012   1.4824997 109.2439988  27.6710012   1.8704997 109.2139988
  26.6600012   1.2674997 110.1659988  26.8973695   1.5065184 109.3646440
  32.3530012   1.5124997 110.8929988  32.4290012   1.6074997 109.9429988
  32.0780012   0.6044997 111.0219988  32.3262321   1.4027867 110.7805079
  33.7060012   1.5384997 106.5849988  33.0040012   2.1534997 106.3749988
  33.2620012   0.7004997 106.7159988  33.5496450   1.5095639 106.5739000
  20.9540012  17.3014997 106.1309988  20.2690012  17.2634997 105.4639988
  20.9580012  18.2144997 106.4199988  20.8606998  17.4196733 106.0786771
  27.9400012   3.5624997 106.1329988  28.1180012   2.9164997 106.8159988
  27.8870012   4.3964997 106.5999988  27.9571999   3.5868009 106.2895917
  29.8190012  18.5114997 104.5289988  30.6850012  18.8774997 104.3509988
  29.5720012  18.0714997 103.7149988  29.9042392  18.5021756 104.3946289
  36.5280012  18.0744997 107.2079988  36.3330012  17.3264997 106.6429988
  36.4890012  18.8324997 106.6249988  36.4960380  18.0746099 107.0518384
  22.1750012   2.0694997 118.9479988  21.8090012   1.3044997 119.3899988
  23.0880012   2.0984997 119.2339988  22.2482736   1.9685640 119.0472502
  24.1480012   1.4204997 120.4839988  25.0460012   1.1464997 120.2989988
  23.7610012   0.6774997 120.9479988  24.2186612   1.2825914 120.5213643
  22.7720012  18.2214997 103.1569988  22.5050012  18.5084997 104.0299988
  23.5440012  17.6754997 103.3089988  22.8397488  18.1870294 103.2971050
  32.5690012   0.7524997 120.6659988  32.6460012   0.3264997 121.5199988
  33.4630012   0.7664997 120.3229988  32.7003428   0.6960879 120.7365310
  35.7450012  16.8254997 119.3579988  34.9630012  16.6394997 118.8379988
  35.6730012  17.7544997 119.5759988  35.6282274  16.9256643 119.3163018
  50.1510012  10.7114997 109.3889988  50.2400012  11.6554997 109.2569988
  49.5130012  10.4364997 108.7309988  50.0769081  10.8034830 109.2819614
  49.0840012   9.9664997 112.8079988  49.0460012   9.3204997 113.5129988
  48.7620012   9.5004997 112.0369988  49.0352333   9.8149408 112.8002978
  41.4530012   9.5814997 114.4009988  41.4940012   8.9554997 115.1239988
  42.1560012  10.2054997 114.5829988  41.5536363   9.5801196 114.5246044
  52.7900012  12.9054997 111.1089988  52.3500012  12.1854997 111.5599988
  52.7770012  13.6264997 111.7389988  52.7280226  12.9043731 111.2558494
  42.3760012  14.0314997 112.9359988  42.0070012  13.2294997 112.5659988
  43.3170012  13.8624997 112.9819988  42.4527289  13.8990153 112.8916316
  38.9860012   7.6914997 108.3289988  38.5390012   8.5374997 108.3099988
  38.4250012   7.1114997 107.8129988  38.8489900   7.7289916 108.2566801
  39.6970012   9.8534997 110.4539988  39.9100012   9.0834997 110.9819988
  40.4350012   9.9424997 109.8509988  39.8259044   9.7601968 110.4447123
  49.9020012  18.0104997 111.3209988  50.5220012  17.3334997 111.0479988
  49.6940012  17.7924997 112.2299988  49.9586726  17.8884800 111.4064812
  47.4740012  12.3994997 113.2139988  47.7780012  11.7134997 112.6189988
  48.1950012  12.5174997 113.8319988  47.6130671  12.3216304 113.2161816
  56.1370012   4.0004997 114.0749988  56.1860012   4.6104997 114.8099988
  56.5620012   4.4614997 113.3519988  56.2011746   4.1463796 114.0779175
  50.6150012   6.7934997 113.5409988  50.7570012   5.8474997 113.5619988
  50.5080012   7.0004997 112.6129988  50.6199919   6.6918246 113.4183408
  43.7690012   4.8944997 110.8139988  43.8130012   5.7544997 110.3949988
  43.3120012   4.3424997 110.1799988  43.7132240   4.9374422 110.6709864
  51.4920012   5.0254997 109.2149988  52.1380012   4.6964997 109.8389988
  52.0020012   5.5434997 108.5919988  51.6494299   5.0504450 109.2162731
  40.3900012   7.2914997 111.5759988  41.0430012   6.7414997 112.0079988
  40.4140012   7.0174997 110.6589988  40.4826683   7.1791466 111.5112123
  45.5460012   8.8414997 110.7909988  46.1620012   8.3154997 111.3009988
  44.9600012   8.2014997 110.3879988  45.5510810   8.6829208 110.8063173
  56.5280012   5.4784997 116.3099988  55.8400012   6.1364997 116.2149988
  56.5440012   5.2814997 117.2469988  56.4359540   5.5419819 116.4235990
  42.5800012   3.8124997 114.8879988  42.3610012   4.3424997 114.1219988
  41.9120012   4.0394997 115.5349988  42.4597600   3.9156906 114.8706379
  49.9490012  13.3124997 108.4319988  49.6530012  12.9904997 107.5809988
  49.6240012  14.2124997 108.4729988  49.8646371  13.3900215 108.3211801
  45.1490012  11.4884997 115.1749988  44.4090012  12.0864997 115.2789988
  45.8630012  12.0424997 114.8599988  45.1442237  11.6452831 115.1466465
  53.2560012   4.3164997 111.1949988  53.0400012   3.5504997 111.7279988
  53.9110012   4.7884997 111.7079988  53.3150632   4.2755889 111.3372861
  42.1730012   5.7044997 112.8399988  42.7870012   6.3374997 113.2129988
  42.6850012   5.2324997 112.1839988  42.3261981   5.7272267 112.8022908
  43.5560012  13.4524997 115.9619988  43.5510012  14.3324997 115.5839988
  42.7030012  13.3694997 116.3869988  43.4399464  13.5616117 115.9677907
  39.6770012  13.1234997 106.7439988  39.4050012  13.3524997 105.8559988
  39.7230012  13.9614997 107.2049988  39.6459482  13.2681318 106.6846273
  53.3020012  14.7454997 113.4569988  52.3610012  14.8034997 113.6189988
  53.5790012  15.6514997 113.3199988  53.2104679  14.8759443 113.4606815
  53.6030012   3.0314997 114.8749988  52.8670012   3.6424997 114.8369988
  54.2860012   3.4464997 114.3479988  53.5946541   3.1711374 114.7985832
  46.6060012   1.1184997 112.3399988  46.4890012   0.1694997 112.2859988
  45.7510012   1.4504997 112.6139988  46.4744212   1.0335571 112.3696497
  51.5540012  16.5264997 110.0819988  51.9800012  15.8194997 109.5969988
  51.8710012  17.3274997 109.6659988  51.6551683  16.5381017 109.9593680
  52.7140012  14.4274997 108.5909988  52.4560012  13.7374997 107.9799988
  52.7850012  13.9844997 109.4369988  52.6882856  14.2732124 108.6216885
  54.4000012  12.9934997 117.0679988  54.5400012  12.4024997 116.3289988
  54.5670012  13.8664997 116.7119988  54.4417411  13.0305428 116.9186894
  48.8730012   9.9554997 106.8409988  48.1610012  10.4904997 106.4889988
  49.5640012  10.0114997 106.1809988  48.8690132  10.0362543 106.7036289
  56.2420012   9.3334997 115.1339988  55.5890012  10.0284997 115.2239988
  56.7070012   9.5434997 114.3249988  56.2155274   9.4570643 115.0368462
  52.2780012  10.1654997 107.7929988  51.5460012  10.3934997 108.3659988
  52.7260012   9.4514997 108.2469988  52.2382725  10.1002145 107.9328816
  52.1760012   8.3394997 116.8599988  52.2560012   9.1024997 117.4319988
  51.5740012   8.6184997 116.1699988  52.1055756   8.4817134 116.8450589
  43.9240012  10.7954997 109.6749988  43.5930012  10.4254997 108.8569988
  44.5120012  10.1254997 110.0219988  43.9581873  10.6541156 109.6098102
  45.2900012  14.2234997 112.3559988  45.1960012  13.6454997 111.5999988
  46.0200012  13.8524997 112.8529988  45.3757387  14.0941663 112.3195342
  44.2900012   9.5644997 113.3089988  44.8560012   9.6854997 112.5459988
  44.6090012  10.2014997 113.9469988  44.4105474   9.6672219 113.2909862
  50.5990012  15.0674997 114.0429988  50.3590012  15.7294997 114.6909988
  50.4010012  14.2334997 114.4679988  50.5393808  15.0453134 114.1891524
  45.1700012  13.9634997 118.0259988  44.8590012  14.7454997 118.4809988
  44.5200012  13.8104997 117.3399988  45.0395558  14.0499105 117.9955871
  51.1490012   9.3274997 105.4779988  51.7290012   9.4774997 106.2249988
  51.5630012   9.7984997 104.7539988  51.2842997   9.4116578 105.4824058
  42.0900012  10.1614997 117.2539988  42.1610012  10.8124997 117.9529988
  41.2000012  10.2644997 116.9189988  41.9793005  10.2645427 117.3043495
  48.8760012  16.0644997 108.9129988  49.3500012  16.3594997 109.6899988
  48.3130012  16.8024997 108.6799988  48.8648184  16.2047247 108.9879628
  43.4100012  16.0354997 118.7889988  43.4170012  15.8994997 117.8419988
  42.4940012  15.9174997 119.0409988  43.2871714  16.0009430 118.6934666
  54.8480012   1.0774997 105.2909988  53.9480012   1.2164997 105.5859988
  55.1000012   1.9084997 104.8889988  54.7588702   1.2089074 105.2770205
  42.9140012   9.8654997 107.2639988  42.6220012  10.6334997 106.7739988
  42.2400012   9.2054997 107.1019988  42.7828111   9.8815587 107.1748978
  39.0070012  12.2284997 116.0789988  38.5060012  12.2004997 115.2639988
  39.0120012  11.3224997 116.3889988  38.9390944  12.1022396 116.0093226
  38.7570012  15.0084997 112.9629988  39.7030012  14.8644997 112.9439988
  38.6450012  15.7924997 113.4999988  38.8712727  15.0948046 113.0330072
  56.9550012  15.6744997 118.6459988  56.9060012  14.7194997 118.6089988
  56.1280012  15.9424997 119.0469988  56.8364940  15.5798998 118.6951375
  47.9340012  15.2484997 117.5219988  48.0210012  16.0744997 117.9969988
  47.0700012  14.9184997 117.7709988  47.8291964  15.3169878 117.6206549
  48.3480012  19.0204997 107.3279988  48.2730012  18.8994997 106.3809988
  48.3810012  19.9704997 107.4459988  48.3422068  19.1322646 107.2144967
  42.0010012  17.8094997 109.1089988  42.1540012  17.4614997 109.9869988
  41.1510012  17.4534997 108.8539988  41.9069166  17.7136216 109.1948079
  51.1190012  18.1004997 107.0789988  50.1830012  18.2004997 107.2579988
  51.3990012  17.3914997 107.6579988  51.0289553  18.0183406 107.1817087
  54.1070012   7.1674997 119.1259988  53.7000012   7.6484997 118.4049988
  54.1480012   6.2624997 118.8179988  54.0568437   7.1109374 118.9856683
  41.2560012  13.5514997 117.1229988  41.4720012  13.1904997 117.9819988
  40.4010012  13.1774997 116.9129988  41.1699292  13.4514111 117.2123386
  43.8750012   2.0214997 113.1179988  43.0130012   1.9344997 112.7099988
  43.8520012   2.8774997 113.5459988  43.7540409   2.1252883 113.1200589
  48.5380012   1.7434997 116.4929988  48.9580012   1.3284997 117.2459988
  47.6050012   1.5654997 116.6099988  48.4693644   1.6625900 116.6119539
  51.8640012   5.4994997 117.3459988  51.3500012   5.3734997 118.1439988
  51.7090012   6.4114997 117.1019988  51.7726852   5.6056132 117.4222158
  43.9660012   6.9874997 114.2129988  43.3240012   6.9464997 114.9219988
  44.0030012   7.9134997 113.9749988  43.8830664   7.1071430 114.2779219
  43.9630012   7.2084997 109.1249988  43.0700012   6.8674997 109.0659988
  44.4130012   6.8314997 108.3689988  43.9018130   7.1109631 109.0147702
  49.4980012   7.6244997 107.9419988  49.0890012   8.4394997 107.6509988
  50.2190012   7.4844997 107.3279988  49.5394537   7.7172018 107.8191342
  48.6000012   7.7994997 119.4299988  48.0380012   7.0954997 119.7509988
  49.4270012   7.6794997 119.8979988  48.6347095   7.6867883 119.5372330
  50.5030012   7.0704997 110.7559988  50.3080012   7.6754997 110.0409988
  50.6840012   6.2364997 110.3219988  50.5007614   7.0406300 110.5994405
  41.7160012   7.3074997 116.0799988  41.6780012   7.7074997 116.9489988
  41.2250012   6.4904997 116.1709988  41.6444684   7.2518069 116.2111059
  38.3240012   4.4234997 109.9309988  38.9550012   4.3944997 110.6499988
  38.7730012   3.9984997 109.1999988  38.4710918   4.3620836 109.9306441
  39.5980012   5.1694997 105.3549988  40.0720012   5.7604997 104.7699988
  38.8810012   5.7004997 105.7019988  39.5659341   5.3220867 105.3218836
  49.7670012   8.7084997 115.4269988  50.0900012   8.0774997 114.7839988
  49.3270012   8.1734997 116.0879988  49.7517484   8.5498387 115.4283198
  46.5440012   4.6354997 110.2109988  45.6330012   4.6924997 110.4999988
  47.0500012   4.5754997 111.0219988  46.4876899   4.6351941 110.3601184
  41.3730012   6.2644997 109.0379988  40.4830012   6.3644997 108.6979988
  41.6690012   5.4224997 108.6919988  41.2912823   6.1643546 108.9447213
  45.0260012   6.2644997 106.6949988  45.9570012   6.3934997 106.8729988
  44.8110012   6.9344997 106.0449988  45.1244247   6.3726565 106.6315747
  50.9490012   3.8704997 113.4759988  50.2730012   4.0014997 114.1399988
  50.4640012   3.7154997 112.6649988  50.7907146   3.8675157 113.4574469
  43.7000012   7.4594997 104.2609988  43.1570012   7.0794997 103.5699988
  44.5330012   7.6534997 103.8329988  43.7383631   7.4337125 104.1084501
  54.2370012  19.5424997 119.7519988  54.4370012  19.9664997 118.9179988
  54.8920012  19.8854997 120.3589988  54.3530072  19.6469857 119.7198592
  41.8350012  12.0164997 119.3599988  42.5670012  12.2704997 119.9219988
  41.0550012  12.2204997 119.8759988  41.8297073  12.0788160 119.5066151
  47.8640012   7.4234997 112.0979988  48.4290012   6.8764997 111.5509988
  47.7170012   6.9014997 112.8869988  47.9213380   7.2782259 112.1298695
  42.8660012   3.5594997 108.5169988  42.5490012   2.6574997 108.4809988
  43.6480012   3.5614997 107.9639988  42.9282408   3.4362474 108.4373569
  46.4910012   5.8114997 114.5119988  45.6550012   6.2654997 114.6229988
  47.0150012   6.0874997 115.2639988  46.4475416   5.9108660 114.6288119
  54.1850012  11.1574997 114.9839988  54.8270012  11.6144997 114.4399988
  53.3550012  11.2704997 114.5209988  54.1605963  11.2352704 114.8470177
  48.5540012  12.2084997 117.4339988  48.2090012  11.8274997 118.2409988
  48.3540012  13.1424997 117.5049988  48.4797527  12.2825135 117.5540689
  51.6510012   6.7054997 106.0569988  52.5430012   6.5684997 106.3759988
  51.7080012   7.4964997 105.5199988  51.7806504   6.7936052 106.0280818
  42.1600012  11.3194997 111.9669988  42.9050012  11.3174997 111.3659988
  42.2380012  10.4964997 112.4479988  42.2724995  11.2078887 111.9498282
  39.1680012   9.7804997 117.2819988  39.3910012   9.3624997 118.1139988
  38.5660012   9.1674997 116.8589988  39.1171759   9.6404668 117.3387022
  46.1840012   9.2974997 119.4949988  45.8880012   9.1314997 118.5999988
  47.1160012   9.0774997 119.4839988  46.2694166   9.2450640 119.3710536
  50.8050012  14.6704997 117.3849988  49.9040012  14.8534997 117.1169988
  50.8390012  14.9294997 118.3049988  50.6863139  14.7305849 117.4728099
  56.5360012   6.9154997 105.7519988  55.9820012   6.5194997 105.0799988
  56.6360012   7.8254997 105.4739988  56.4737059   6.9843586 105.6224401
  56.4990012  12.7154997 118.5889988  55.6480012  12.9534997 118.2219988
  57.0900012  12.6984997 117.8359988  56.4622487  12.7458258 118.4368893
  54.8310012  15.7014997 106.2169988  54.4580012  14.8754997 106.5259988
  55.1090012  15.5184997 105.3189988  54.8175222  15.5637430 106.1379473
  51.9920012  10.5094997 113.2379988  51.0630012  10.2774997 113.2109988
  52.4430012   9.7324997 112.9079988  51.9259216  10.3727238 113.1896917
  44.5350012  14.8374997 109.3709988  45.0620012  15.6104997 109.1709988
  43.6550012  15.0624997 109.0689988  44.4882031  14.9737545 109.3027912
  45.9620012  12.5004997 108.9469988  45.7210012  13.4254997 108.9889988
  45.2210012  12.0414997 109.3439988  45.8289225  12.5650933 109.0063742
  46.4770012  16.6494997 115.2629988  46.8390012  17.5044997 115.0289988
  47.0080012  16.3574997 116.0029988  46.5984473  16.7271060 115.3310855
  44.6450012  17.5224997 108.4929988  43.6950012  17.6274997 108.5439988
  44.9970012  18.3424997 108.8369988  44.5624195  17.6478800 108.5465502
  50.0210012  12.7484997 114.9629988  49.5950012  12.5214997 115.7899988
  50.6010012  12.0104997 114.7809988  50.0411868  12.6175299 115.0515830
  52.2240012  13.6774997 104.0369988  52.5770012  13.2974997 104.8409988
  51.2750012  13.5844997 104.1239988  52.1440918  13.6128956 104.1588532
  52.6790012  17.3004997 117.4329988  52.0780012  16.7454997 116.9369988
  52.9610012  17.9674997 116.8059988  52.6348804  17.3146625 117.2804849
  56.7270012  18.1574997 104.2379988  57.4710012  18.7434997 104.0979988
  56.0330012  18.7254997 104.5709988  56.7349899  18.3145798 104.2638778
  40.8020012   4.5334997 116.8399988  39.9090012   4.8724997 116.7719988
  40.7030012   3.6784997 117.2579988  40.6664164   4.4642588 116.8872235
  53.0900012  12.3504997 106.2639988  52.8120012  11.6224997 106.8199988
  54.0170012  12.4694997 106.4689988  53.1773124  12.2668802 106.3678845
  40.4530012  16.3384997 115.2749988  40.6700012  15.4064997 115.2439988
  40.6990012  16.6124997 116.1579988  40.5159549  16.2480636 115.3901763
  46.3150012  14.7894997 102.4839988  46.5540012  14.0414997 101.9369988
  46.0460012  14.4014997 103.3169988  46.3113675  14.6346638 102.5216865
  45.2520012  14.3594997 104.9399988  45.3980012  13.8394997 105.7299988
  45.2490012  15.2664997 105.2469988  45.2715792  14.4108842 105.0896117
  41.7050012  11.6124997 105.4509988  41.0190012  11.9644997 106.0179988
  42.2270012  12.3754997 105.2039988  41.6816852  11.7638578 105.4952118
  49.5360012   4.2744997 115.7299988  50.2350012   4.3484997 116.3799988
  49.1550012   3.4104997 115.8839988  49.5801767   4.1677624 115.8398322
  50.3210012   3.9264997 106.8269988  50.5410012   4.3984997 106.0239988
  50.8790012   4.3214997 107.4969988  50.4264968   4.0444285 106.8077331
  47.9890012  16.0574997 105.6899988  47.1730012  16.5544997 105.7419988
  48.5190012  16.5324997 105.0499988  47.9489161  16.1897722 105.6105956
  47.5210012   5.6544997 107.6619988  48.3330012   6.1594997 107.7079988
  47.2760012   5.5094997 108.5759988  47.5990520   5.7040375 107.7918517
  48.0560012   6.6404997 116.8459988  48.1750012   7.2144997 117.6039988
  48.7120012   5.9524997 116.9609988  48.1609025   6.6259858 116.9651321
  48.4040012   2.7354997 108.5999988  48.0580012   3.3534997 109.2439988
  49.0630012   3.2364997 108.1179988  48.4456968   2.8876278 108.6229383
  45.3280012  17.1014997 105.6709988  45.4880012  17.9004997 105.1709988
  45.1300012  17.4074997 106.5559988  45.3231637  17.2524020 105.7221144
  44.0620012   3.7984997 105.2869988  43.9790012   4.6874997 105.6339988
  44.9520012   3.5334997 105.5189988  44.1709469   3.8841430 105.3657626
  54.2610012   4.5474997 117.6809988  53.3440012   4.8104997 117.5939988
  54.5960012   4.5444997 116.7849988  54.1808613   4.5830761 117.5478837
  52.8630012   8.2984997 111.7769988  52.0650012   7.8834997 111.4489988
  53.3080012   7.6074997 112.2679988  52.8139885   8.1483543 111.7984889
  53.9490012  17.5544997 113.3999988  53.7940012  18.2324997 112.7419988
  54.8820012  17.6264997 113.6029988  54.0538657  17.6569546 113.3374360
  41.4450012   1.6724997 112.1369988  41.2160012   1.7314997 111.2089988
  41.0020012   0.8804997 112.4429988  41.3538530   1.5735753 112.0514786
  40.3750012  15.6124997 108.2969988  39.5430012  16.0854997 108.3239988
  40.9210012  16.1224997 107.6989988  40.3350352  15.7461332 108.2198463
  39.6630012  18.2254997 119.6269988  40.2040012  18.0084997 120.3869988
  39.1820012  17.4194997 119.4369988  39.6719951  18.0869270 119.7052576
  44.2610012  17.1444997 121.2469988  45.0280012  16.6854997 121.5879988
  44.2390012  16.9184997 120.3179988  44.3631275  17.0510186 121.1680101
  50.8380012  15.5244997 119.9769988  50.4870012  14.6684997 120.2199988
  51.5640012  15.6674997 120.5839988  50.8880769  15.4265636 120.0923619
  39.5700012  12.0354997 120.5809988  39.7140012  11.1334997 120.2949988
  38.7980012  12.3214997 120.0939988  39.4852753  11.9506816 120.4759505
  46.2260012  12.0054997 120.0139988  45.8970012  12.2764997 119.1569988
  46.3780012  11.0644997 119.9269988  46.2014809  11.9153862 119.8848244
  51.9600012  11.9214997 117.3969988  52.7060012  12.5094997 117.2779988
  51.2030012  12.5034997 117.4609988  51.9597820  12.0807143 117.3893590
  40.4030012   9.2354997 120.0009988  40.8110012   8.3784997 119.8799988
  40.1430012   9.2504997 120.9219988  40.4237568   9.1200807 120.1089588
  44.3500012   8.2444997 117.3759988  43.7320012   8.9194997 117.6559988
  44.6940012   8.5654997 116.5419988  44.3119132   8.3802411 117.3016262
  46.1320012   8.5944997 103.2819988  45.9520012   8.4404997 102.3549988
  47.0820012   8.7024997 103.3269988  46.2357776   8.5880175 103.1611843
  49.3700012  10.7164997 120.6529988  50.3230012  10.7994997 120.6259988
  49.2090012  10.0044997 121.2729988  49.4786426  10.6316746 120.7330579
  44.6890012   5.5994997 118.4579988  44.8390012   4.8704997 117.8559988
  44.6920012   6.3764997 117.8989988  44.7099302   5.6047851 118.3000692
  45.1020012   3.9694997 115.9509988  45.6380012   4.4204997 115.2989988
  44.2500012   3.8614997 115.5279988  45.0602178   4.0166390 115.8045756
  46.6840012   9.4084997 116.1899988  47.4340012   9.2524997 115.6169988
  46.3450012  10.2604997 115.9149988  46.7408921   9.5022968 116.0743561
  51.0990012   7.2234997 121.2189988  51.2920012   6.2924997 121.1069988
  51.9570012   7.6484997 121.2079988  51.2412934   7.1536531 121.2022031
  52.4160012  10.0124997 119.2959988  52.1350012  10.7214997 118.7179988
  53.3590012   9.9394997 119.1449988  52.5049291  10.0996711 119.1964967
  43.1680012   6.7974997 120.3699988  42.4010012   6.2654997 120.1589988
  43.8470012   6.4874997 119.7699988  43.1547877   6.6828300 120.2600716
  45.9080012   1.4254997 116.3819988  45.8090012   2.3724997 116.2769988
  45.1650012   1.0534997 115.9059988  45.7941184   1.5045863 116.3033621
  47.1720012   5.7474997 119.9459988  46.9360012   5.5274997 120.8469988
  46.3880012   5.5404997 119.4359988  47.0338504   5.6894586 120.0003431
  49.8870012   4.8744997 119.0209988  48.9400012   4.9064997 119.1539988
  50.2000012   4.2494997 119.6749988  49.7996707   4.7943998 119.1276060
  51.5210012   3.5084997 121.0269988  51.4250012   2.5564997 121.0209988
  51.2000012   3.7774997 121.8869988  51.4644070   3.4144035 121.1425441
  41.3480012   4.7184997 120.0739988  41.5600012   4.0114997 119.4639988
  41.2370012   4.2804997 120.9179988  41.3619721   4.5627084 120.1046843
  46.1290012   0.7194997 119.0529988  46.8410012   0.0794997 119.0389988
  46.0280012   0.9864997 118.1399988  46.2128066   0.6680079 118.9275677
  46.4830012   2.4024997 121.1069988  46.3510012   1.9264997 120.2869988
  45.8840012   3.1464997 121.0519988  46.3839071   2.4379618 120.9872886
  46.0290012  19.2854997 104.2829988  46.9620012  19.4434997 104.4269988
  45.7650012  19.9604997 103.6589988  46.1209888  19.3984510 104.2182842
  39.5980012  13.9214997 103.7659988  40.5120012  14.0004997 104.0399988
  39.6050012  13.2344997 103.0999988  39.7241131  13.8393961 103.7134393
  38.2470012  19.3144997 108.8439988  37.6000012  18.8524997 108.3109988
  38.6010012  18.6424997 109.4259988  38.2063849  19.1604723 108.8497959
  39.1170012  17.3954997 110.6479988  38.7820012  16.5154997 110.8199988
  39.3390012  17.7404997 111.5129988  39.1011783  17.3217500 110.7884208
  56.6650012  18.2044997 113.6289988  56.6440012  18.3894997 114.5679988
  57.3560012  18.7734997 113.2879988  56.7554618  18.3066606 113.7113864
  56.2290012  17.7724997 116.5509988  55.7410012  17.0364997 116.1789988
  56.7780012  17.3784997 117.2289988  56.2364820  17.6185889 116.5917813
  54.6790012  13.5614997 121.1889988  53.8130012  13.4564997 121.5829988
  55.0560012  14.3204997 121.6349988  54.6113308  13.6496900 121.3032393
  55.9800012  11.8184997 106.7029988  56.8300012  12.2394997 106.8299988
  55.9860012  11.0784997 107.3099988  56.0971372  11.7760803 106.8024344
  56.3750012   9.8714997 108.5259988  55.6480012   9.3924997 108.9239988
  56.9560012  10.0774997 109.2589988  56.3540473   9.8338103 108.6794528
  56.1340012  12.6564997 113.4739988  56.9670012  12.2784997 113.1939988
  56.2460012  13.5994997 113.3549988  56.2632647  12.7322218 113.4195487
  54.6200012  15.5344997 115.7809988  53.9730012  15.8594997 116.4069988
  54.1030012  15.0944997 115.1069988  54.4614029  15.5195004 115.7755827
  56.6430012   9.7724997 104.9179988  56.1210012  10.1294997 104.1989988
  56.6100012  10.4474997 105.5959988  56.5671634   9.9125413 104.9113145
  54.1610012   8.3924997 109.0889988  54.0110012   7.4474997 109.0689988
  53.8080012   8.6734997 109.9329988  54.0927448   8.3011481 109.2003705
  39.1970012  10.4704997 113.0999988  39.3810012  10.3884997 112.1639988
  40.0460012  10.3464997 113.5229988  39.3370151  10.4425073 113.0291451
  55.0180012  10.3624997 118.7279988  55.6010012   9.6284997 118.9199988
  55.5820012  11.1344997 118.7749988  55.1739769  10.3664227 118.7606159
  56.5140012   8.2654997 119.4129988  55.6510012   7.8864997 119.2469988
  57.1190012   7.5264997 119.3379988  56.4776119   8.1138268 119.3801528
  54.2390012   4.4204997 102.5859988  54.8500012   4.0494997 103.2229988
  53.4030012   3.9994997 102.7819988  54.2095032   4.3127554 102.6997035
  53.8720012   5.9754997 107.5519988  54.1520012   5.0684997 107.6759988
  54.6310012   6.4094997 107.1629988  54.0129277   5.9100942 107.5163682
  54.4840012   6.5564997 112.9879988  55.4170012   6.7684997 112.9529988
  54.2490012   6.6584997 113.9099988  54.5799244   6.5993100 113.1078892
  54.5130012   7.2934997 115.7639988  53.6700012   7.5614997 116.1299988
  54.9550012   8.1154997 115.5529988  54.4574158   7.4413291 115.7855491
  38.7940012   5.7414997 119.2409988  39.7140012   5.6194997 119.4769988
  38.3450012   4.9914997 119.6299988  38.8591580   5.6233727 119.3259006
  56.7960012   1.2734997 121.1169988  57.1460012   0.6194997 120.5119988
  56.9430012   2.1104997 120.6769988  56.8637887   1.2971548 120.9746858
  54.4850012   3.2384997 107.5999988  54.6680012   2.7894997 108.4259988
  53.8860012   2.6534997 107.1369988  54.4290202   3.0979975 107.6503275
  40.0150012   4.0534997 112.1319988  40.4610012   3.2614997 112.4339988
  40.4820012   4.7694997 112.5619988  40.1390831   4.0420685 112.2314006
  38.3190012   7.0524997 113.2009988  38.8110012   6.8314997 112.4099988
  38.6820012   7.8934997 113.4819988  38.4353126   7.1358357 113.1307531
  56.3160012   3.3824997 119.4659988  55.3980012   3.6534997 119.4309988
  56.4390012   2.8474997 118.6819988  56.2069729   3.3472508 119.3551923
  56.3520012   3.3054997 104.1279988  56.7640012   2.5844997 103.6529988
  57.0340012   3.9754997 104.1869988  56.5005885   3.2972368 104.0708915
  38.6330012   3.3104997 107.2549988  37.7080012   3.5194997 107.1259988
  39.0870012   3.7944997 106.5649988  38.5677292   3.4045343 107.1440720
  53.4040012  18.2944997 109.2009988  54.0560012  17.9474997 108.5929988
  53.9140012  18.7834997 109.8469988  53.5622637  18.3130597 109.2050236
  38.5970012   2.0484997 115.5989988  37.9320012   1.8024997 116.2429988
  38.1540012   2.6704997 115.0219988  38.4461318   2.0989410 115.6090898
  40.7890012  15.2234997 119.7439988  39.9680012  15.3984997 119.2829988
  40.5360012  15.1504997 120.6639988  40.6425585  15.2375544 119.8053561
  43.7430012  16.1984997 116.0019988  43.3180012  17.0074997 115.7199988
  44.6470012  16.2834997 115.6999988  43.8069975  16.3209300 115.9224816
  48.0540012  17.5974997 118.9619988  48.2390012  17.2634997 119.8399988
  48.9000012  17.9064997 118.6399988  48.1937539  17.5936047 119.0385605
  50.3990012  18.8834997 118.2059988  51.0760012  18.2504997 117.9659988
  50.7210012  19.2844997 119.0129988  50.5351637  18.8511154 118.2822793
  55.3160012   1.4724997 117.2849988  54.5040012   1.7974997 116.8979988
  55.5490012   0.7124997 116.7519988  55.2362203   1.4142758 117.1598880
  41.1450012  19.4544997 116.0499988  40.4240012  19.8944997 115.5989988
  40.7790012  19.2034997 116.8979988  40.9969651  19.4807242 116.1029640
  43.6120012  19.0544997 115.0799988  42.7470012  19.1264997 115.4839988
  43.5570012  19.6014997 114.2959988  43.4862085  19.1382685 115.0293362
  48.3220012  18.9424997 114.2549988  47.8660012  19.4714997 113.6009988
  48.4850012  19.5454997 114.9799988  48.2816068  19.0964607 114.2634838
  50.6500012  17.8204997 115.1999988  49.7450012  17.9854997 114.9339988
  51.0790012  18.6734997 115.1349988  50.5841324  17.9584339 115.1547976
  53.2540012  19.3904997 115.4949988  53.0720012  20.3064997 115.2849988
  53.4310012  18.9804997 114.6489988  53.2530210  19.4604822 115.3517885
  40.5590012  18.0774997 112.9599988  40.5410012  17.6524997 113.8169988
  41.3640012  17.7594997 112.5509988  40.6653529  17.9763013 113.0220946
  42.7010012  16.7874997 111.6149988  42.4820012  15.8714997 111.7849988
  43.5250012  16.9274997 112.0809988  42.7824420  16.6810520 111.7012774
  45.2380012  17.2574997 112.4639988  45.4510012  16.3694997 112.1769988
  45.3020012  17.2234997 113.4179988  45.2758232  17.1313102 112.5537397
  48.7460012   2.9214997 111.6079988  48.0720012   2.2924997 111.8639988
  49.3100012   2.4374997 111.0049988  48.7299230   2.7698744 111.5615340
  53.8890012   1.0294997 111.7209988  54.4930012   1.5764997 111.2189988
  53.0190012   1.3484997 111.4799988  53.8541208   1.1475137 111.6196886
  55.6160012   2.1674997 110.0539988  56.2280012   1.6534997 109.5269988
  55.9980012   3.0454997 110.0769988  55.7513371   2.2157866 109.9850041
  41.0730012   1.5554997 109.4299988  40.2960012   1.3214997 108.9229988
  41.6030012   0.7584997 109.4389988  41.0382330   1.4156988 109.3617742
  39.9090012   1.3534997 105.2339988  40.3480012   1.9644997 104.6419988
  39.2760012   1.8914997 105.7079988  39.8834514   1.5099257 105.2170930
  45.6520012   1.4824997 109.2439988  46.5270012   1.8704997 109.2139988
  45.5160012   1.2674997 110.1659988  45.7533695   1.5065184 109.3646440
  51.2090012   1.5124997 110.8929988  51.2850012   1.6074997 109.9429988
  50.9340012   0.6044997 111.0219988  51.1822321   1.4027867 110.7805079
  52.5620012   1.5384997 106.5849988  51.8600012   2.1534997 106.3749988
  52.1180012   0.7004997 106.7159988  52.4056450   1.5095639 106.5739000
  39.8100012  17.3014997 106.1309988  39.1250012  17.2634997 105.4639988
  39.8140012  18.2144997 106.4199988  39.7166998  17.4196733 106.0786771
  46.7960012   3.5624997 106.1329988  46.9740012   2.9164997 106.8159988
  46.7430012   4.3964997 106.5999988  46.8131999   3.5868009 106.2895917
  55.3840012  18.0744997 107.2079988  55.1890012  17.3264997 106.6429988
  55.3450012  18.8324997 106.6249988  55.3520380  18.0746099 107.0518384
  41.0310012   2.0694997 118.9479988  40.6650012   1.3044997 119.3899988
  41.9440012   2.0984997 119.2339988  41.1042736   1.9685640 119.0472502
  43.0040012   1.4204997 120.4839988  43.9020012   1.1464997 120.2989988
  42.6170012   0.6774997 120.9479988  43.0746612   1.2825914 120.5213643
  51.4250012   0.7524997 120.6659988  51.5020012   0.3264997 121.5199988
  52.3190012   0.7664997 120.3229988  51.5563428   0.6960879 120.7365310
  54.6010012  16.8254997 119.3579988  53.8190012  16.6394997 118.8379988
  54.5290012  17.7544997 119.5759988  54.4842274  16.9256643 119.3163018
  69.0070012  10.7114997 109.3889988  69.0960012  11.6554997 109.2569988
  68.3690012  10.4364997 108.7309988  68.9329081  10.8034830 109.2819614
  67.9400012   9.9664997 112.8079988  67.9020012   9.3204997 113.5129988
  67.6180012   9.5004997 112.0369988  67.8912333   9.8149408 112.8002978
  60.3090012   9.5814997 114.4009988  60.3500012   8.9554997 115.1239988
  61.0120012  10.2054997 114.5829988  60.4096363   9.5801196 114.5246044
  71.6460012  12.9054997 111.1089988  71.2060012  12.1854997 111.5599988
  71.6330012  13.6264997 111.7389988  71.5840226  12.9043731 111.2558494
  61.2320012  14.0314997 112.9359988  60.8630012  13.2294997 112.5659988
  62.1730012  13.8624997 112.9819988  61.3087289  13.8990153 112.8916316
  57.8420012   7.6914997 108.3289988  57.3950012   8.5374997 108.3099988
  57.2810012   7.1114997 107.8129988  57.7049900   7.7289916 108.2566801
  58.5530012   9.8534997 110.4539988  58.7660012   9.0834997 110.9819988
  59.2910012   9.9424997 109.8509988  58.6819044   9.7601968 110.4447123
  68.7580012  18.0104997 111.3209988  69.3780012  17.3334997 111.0479988
  68.5500012  17.7924997 112.2299988  68.8146726  17.8884800 111.4064812
  66.3300012  12.3994997 113.2139988  66.6340012  11.7134997 112.6189988
  67.0510012  12.5174997 113.8319988  66.4690671  12.3216305 113.2161816
  74.9930012   4.0004997 114.0749988  75.0420012   4.6104997 114.8099988
  75.4180012   4.4614997 113.3519988  75.0571746   4.1463796 114.0779175
  69.4710012   6.7934997 113.5409988  69.6130012   5.8474997 113.5619988
  69.3640012   7.0004997 112.6129988  69.4759919   6.6918246 113.4183408
  62.6250012   4.8944997 110.8139988  62.6690012   5.7544997 110.3949988
  62.1680012   4.3424997 110.1799988  62.5692240   4.9374422 110.6709864
  70.3480012   5.0254997 109.2149988  70.9940012   4.6964997 109.8389988
  70.8580012   5.5434997 108.5919988  70.5054299   5.0504450 109.2162731
  59.2460012   7.2914997 111.5759988  59.8990012   6.7414997 112.0079988
  59.2700012   7.0174997 110.6589988  59.3386683   7.1791466 111.5112123
  64.4020012   8.8414997 110.7909988  65.0180012   8.3154997 111.3009988
  63.8160012   8.2014997 110.3879988  64.4070810   8.6829208 110.8063173
  75.3840012   5.4784997 116.3099988  74.6960012   6.1364997 116.2149988
  75.4000012   5.2814997 117.2469988  75.2919540   5.5419819 116.4235990
  61.4360012   3.8124997 114.8879988  61.2170012   4.3424997 114.1219988
  60.7680012   4.0394997 115.5349988  61.3157600   3.9156906 114.8706379
  68.8050012  13.3124997 108.4319988  68.5090012  12.9904997 107.5809988
  68.4800012  14.2124997 108.4729988  68.7206371  13.3900215 108.3211801
  64.0050012  11.4884997 115.1749988  63.2650012  12.0864997 115.2789988
  64.7190012  12.0424997 114.8599988  64.0002237  11.6452831 115.1466465
  72.1120012   4.3164997 111.1949988  71.8960012   3.5504997 111.7279988
  72.7670012   4.7884997 111.7079988  72.1710632   4.2755889 111.3372861
  61.0290012   5.7044997 112.8399988  61.6430012   6.3374997 113.2129988
  61.5410012   5.2324997 112.1839988  61.1821981   5.7272267 112.8022908
  62.4120012  13.4524997 115.9619988  62.4070012  14.3324997 115.5839988
  61.5590012  13.3694997 116.3869988  62.2959464  13.5616117 115.9677907
  58.5330012  13.1234997 106.7439988  58.2610012  13.3524997 105.8559988
  58.5790012  13.9614997 107.2049988  58.5019482  13.2681318 106.6846273
  72.1580012  14.7454997 113.4569988  71.2170012  14.8034997 113.6189988
  72.4350012  15.6514997 113.3199988  72.0664679  14.8759443 113.4606815
  72.4590012   3.0314997 114.8749988  71.7230012   3.6424997 114.8369988
  73.1420012   3.4464997 114.3479988  72.4506541   3.1711374 114.7985832
  65.4620012   1.1184997 112.3399988  65.3450012   0.1694997 112.2859988
  64.6070012   1.4504997 112.6139988  65.3304212   1.0335571 112.3696497
  70.4100012  16.5264997 110.0819988  70.8360012  15.8194997 109.5969988
  70.7270012  17.3274997 109.6659988  70.5111683  16.5381017 109.9593680
  71.5700012  14.4274997 108.5909988  71.3120012  13.7374997 107.9799988
  71.6410012  13.9844997 109.4369988  71.5442856  14.2732124 108.6216885
  73.2560012  12.9934997 117.0679988  73.3960012  12.4024997 116.3289988
  73.4230012  13.8664997 116.7119988  73.2977411  13.0305428 116.9186894
  67.7290012   9.9554997 106.8409988  67.0170012  10.4904997 106.4889988
  68.4200012  10.0114997 106.1809988  67.7250132  10.0362543 106.7036289
  75.0980012   9.3334997 115.1339988  74.4450012  10.0284997 115.2239988
  75.5630012   9.5434997 114.3249988  75.0715274   9.4570643 115.0368462
  71.1340012  10.1654997 107.7929988  70.4020012  10.3934997 108.3659988
  71.5820012   9.4514997 108.2469988  71.0942725  10.1002145 107.9328816
  71.0320012   8.3394997 116.8599988  71.1120012   9.1024997 117.4319988
  70.4300012   8.6184997 116.1699988  70.9615756   8.4817134 116.8450589
  62.7800012  10.7954997 109.6749988  62.4490012  10.4254997 108.8569988
  63.3680012  10.1254997 110.0219988  62.8141873  10.6541156 109.6098102
  64.1460012  14.2234997 112.3559988  64.0520012  13.6454997 111.5999988
  64.8760012  13.8524997 112.8529988  64.2317387  14.0941663 112.3195342
  63.1460012   9.5644997 113.3089988  63.7120012   9.6854997 112.5459988
  63.4650012  10.2014997 113.9469988  63.2665474   9.6672219 113.2909862
  69.4550012  15.0674997 114.0429988  69.2150012  15.7294997 114.6909988
  69.2570012  14.2334997 114.4679988  69.3953808  15.0453134 114.1891524
  64.0260012  13.9634997 118.0259988  63.7150012  14.7454997 118.4809988
  63.3760012  13.8104997 117.3399988  63.8955558  14.0499105 117.9955871
  60.9460012  10.1614997 117.2539988  61.0170012  10.8124997 117.9529988
  60.0560012  10.2644997 116.9189988  60.8353005  10.2645427 117.3043495
  67.7320012  16.0644997 108.9129988  68.2060012  16.3594997 109.6899988
  67.1690012  16.8024997 108.6799988  67.7208184  16.2047247 108.9879628
  62.2660012  16.0354997 118.7889988  62.2730012  15.8994997 117.8419988
  61.3500012  15.9174997 119.0409988  62.1431714  16.0009430 118.6934666
  73.7040012   1.0774997 105.2909988  72.8040012   1.2164997 105.5859988
  73.9560012   1.9084997 104.8889988  73.6148702   1.2089074 105.2770205
  61.7700012   9.8654997 107.2639988  61.4780012  10.6334997 106.7739988
  61.0960012   9.2054997 107.1019988  61.6388111   9.8815587 107.1748978
  74.8930012  15.4434997 103.6669988  74.9670012  16.3824997 103.8379988
  75.7990012  15.1384997 103.6109988  75.0255100  15.5306722 103.6828119
  57.8630012  12.2284997 116.0789988  57.3620012  12.2004997 115.2639988
  57.8680012  11.3224997 116.3889988  57.7950944  12.1022396 116.0093226
  57.6130012  15.0084997 112.9629988  58.5590012  14.8644997 112.9439988
  57.5010012  15.7924997 113.4999988  57.7272727  15.0948046 113.0330072
  75.8110012  15.6744997 118.6459988  75.7620012  14.7194997 118.6089988
  74.9840012  15.9424997 119.0469988  75.6924940  15.5798998 118.6951375
  66.7900012  15.2484997 117.5219988  66.8770012  16.0744997 117.9969988
  65.9260012  14.9184997 117.7709988  66.6851964  15.3169878 117.6206549
  67.2040012  19.0204997 107.3279988  67.1290012  18.8994997 106.3809988
  67.2370012  19.9704997 107.4459988  67.1982068  19.1322646 107.2144967
  60.8570012  17.8094997 109.1089988  61.0100012  17.4614997 109.9869988
  60.0070012  17.4534997 108.8539988  60.7629166  17.7136216 109.1948079
  69.9750012  18.1004997 107.0789988  69.0390012  18.2004997 107.2579988
  70.2550012  17.3914997 107.6579988  69.8849553  18.0183406 107.1817087
  72.9630012   7.1674997 119.1259988  72.5560012   7.6484997 118.4049988
  73.0040012   6.2624997 118.8179988  72.9128437   7.1109374 118.9856683
  60.1120012  13.5514997 117.1229988  60.3280012  13.1904997 117.9819988
  59.2570012  13.1774997 116.9129988  60.0259292  13.4514111 117.2123386
  62.7310012   2.0214997 113.1179988  61.8690012   1.9344997 112.7099988
  62.7080012   2.8774997 113.5459988  62.6100409   2.1252883 113.1200589
  67.3940012   1.7434997 116.4929988  67.8140012   1.3284997 117.2459988
  66.4610012   1.5654997 116.6099988  67.3253644   1.6625900 116.6119539
  70.7200012   5.4994997 117.3459988  70.2060012   5.3734997 118.1439988
  70.5650012   6.4114997 117.1019988  70.6286852   5.6056132 117.4222158
  71.4830012  10.3604997 103.1079988  71.5250012  10.1374997 102.1779988
  72.3320012  10.7594997 103.2969988  71.6035280  10.3839438 103.0063554
  62.8220012   6.9874997 114.2129988  62.1800012   6.9464997 114.9219988
  62.8590012   7.9134997 113.9749988  62.7390664   7.1071430 114.2779219
  62.8190012   7.2084997 109.1249988  61.9260012   6.8674997 109.0659988
  63.2690012   6.8314997 108.3689988  62.7578130   7.1109631 109.0147702
  68.3540012   7.6244997 107.9419988  67.9450012   8.4394997 107.6509988
  69.0750012   7.4844997 107.3279988  68.3954537   7.7172018 107.8191342
  67.4560012   7.7994997 119.4299988  66.8940012   7.0954997 119.7509988
  68.2830012   7.6794997 119.8979988  67.4907095   7.6867883 119.5372330
  69.3590012   7.0704997 110.7559988  69.1640012   7.6754997 110.0409988
  69.5400012   6.2364997 110.3219988  69.3567614   7.0406300 110.5994405
  60.5720012   7.3074997 116.0799988  60.5340012   7.7074997 116.9489988
  60.0810012   6.4904997 116.1709988  60.5004684   7.2518069 116.2111059
  57.1800012   4.4234997 109.9309988  57.8110012   4.3944997 110.6499988
  57.6290012   3.9984997 109.1999988  57.3270918   4.3620836 109.9306441
  58.4540012   5.1694997 105.3549988  58.9280012   5.7604997 104.7699988
  57.7370012   5.7004997 105.7019988  58.4219341   5.3220867 105.3218836
  68.6230012   8.7084997 115.4269988  68.9460012   8.0774997 114.7839988
  68.1830012   8.1734997 116.0879988  68.6077484   8.5498387 115.4283198
  65.4000012   4.6354997 110.2109988  64.4890012   4.6924997 110.4999988
  65.9060012   4.5754997 111.0219988  65.3436899   4.6351941 110.3601184
  60.2290012   6.2644997 109.0379988  59.3390012   6.3644997 108.6979988
  60.5250012   5.4224997 108.6919988  60.1472823   6.1643545 108.9447213
  63.8820012   6.2644997 106.6949988  64.8130012   6.3934997 106.8729988
  63.6670012   6.9344997 106.0449988  63.9804247   6.3726565 106.6315747
  69.8050012   3.8704997 113.4759988  69.1290012   4.0014997 114.1399988
  69.3200012   3.7154997 112.6649988  69.6467146   3.8675157 113.4574469
  62.5560012   7.4594997 104.2609988  62.0130012   7.0794997 103.5699988
  63.3890012   7.6534997 103.8329988  62.5943631   7.4337125 104.1084501
  73.0930012  19.5424997 119.7519988  73.2930012  19.9664997 118.9179988
  73.7480012  19.8854997 120.3589988  73.2090072  19.6469857 119.7198592
  60.6910012  12.0164997 119.3599988  61.4230012  12.2704997 119.9219988
  59.9110012  12.2204997 119.8759988  60.6857073  12.0788160 119.5066151
  66.7200012   7.4234997 112.0979988  67.2850012   6.8764997 111.5509988
  66.5730012   6.9014997 112.8869988  66.7773380   7.2782259 112.1298695
  61.7220012   3.5594997 108.5169988  61.4050012   2.6574997 108.4809988
  62.5040012   3.5614997 107.9639988  61.7842408   3.4362474 108.4373569
  65.3470012   5.8114997 114.5119988  64.5110012   6.2654997 114.6229988
  65.8710012   6.0874997 115.2639988  65.3035416   5.9108660 114.6288119
  65.8910012  12.0244997 106.1969988  65.1460012  11.5174997 105.8749988
  65.7570012  12.0734997 107.1439988  65.7708776  11.9616940 106.2808647
  73.0410012  11.1574997 114.9839988  73.6830012  11.6144997 114.4399988
  72.2110012  11.2704997 114.5209988  73.0165963  11.2352704 114.8470177
  69.7890012   4.8384997 104.3959988  68.8500012   4.9504997 104.2449988
  70.0860012   5.6954997 104.7029988  69.7007583   4.9695981 104.4168337
  67.4100012  12.2084997 117.4339988  67.0650012  11.8274997 118.2409988
  67.2100012  13.1424997 117.5049988  67.3357527  12.2825135 117.5540689
  61.0160012  11.3194997 111.9669988  61.7610012  11.3174997 111.3659988
  61.0940012  10.4964997 112.4479988  61.1284995  11.2078887 111.9498282
  68.0170012  13.4834997 105.2229988  67.7210012  14.3094997 105.6039988
  67.3140012  12.8634997 105.4189988  67.8814914  13.5128199 105.3016443
  58.0240012   9.7804997 117.2819988  58.2470012   9.3624997 118.1139988
  57.4220012   9.1674997 116.8589988  57.9731759   9.6404668 117.3387022
  65.0400012   9.2974997 119.4949988  64.7440012   9.1314997 118.5999988
  65.9720012   9.0774997 119.4839988  65.1254166   9.2450640 119.3710536
  69.6610012  14.6704997 117.3849988  68.7600012  14.8534997 117.1169988
  69.6950012  14.9294997 118.3049988  69.5423139  14.7305849 117.4728099
  75.3920012   6.9154997 105.7519988  74.8380012   6.5194997 105.0799988
  75.4920012   7.8254997 105.4739988  75.3297059   6.9843586 105.6224401
  75.3550012  12.7154997 118.5889988  74.5040012  12.9534997 118.2219988
  75.9460012  12.6984997 117.8359988  75.3182487  12.7458258 118.4368893
  73.6870012  15.7014997 106.2169988  73.3140012  14.8754997 106.5259988
  73.9650012  15.5184997 105.3189988  73.6735222  15.5637430 106.1379473
  70.8480012  10.5094997 113.2379988  69.9190012  10.2774997 113.2109988
  71.2990012   9.7324997 112.9079988  70.7819216  10.3727238 113.1896917
  63.3910012  14.8374997 109.3709988  63.9180012  15.6104997 109.1709988
  62.5110012  15.0624997 109.0689988  63.3442031  14.9737545 109.3027912
  64.8180012  12.5004997 108.9469988  64.5770012  13.4254997 108.9889988
  64.0770012  12.0414997 109.3439988  64.6849225  12.5650933 109.0063742
  65.3330012  16.6494997 115.2629988  65.6950012  17.5044997 115.0289988
  65.8640012  16.3574997 116.0029988  65.4544473  16.7271060 115.3310855
  63.5010012  17.5224997 108.4929988  62.5510012  17.6274997 108.5439988
  63.8530012  18.3424997 108.8369988  63.4184195  17.6478800 108.5465502
  68.8770012  12.7484997 114.9629988  68.4510012  12.5214997 115.7899988
  69.4570012  12.0104997 114.7809988  68.8971868  12.6175299 115.0515830
  71.5350012  17.3004997 117.4329988  70.9340012  16.7454997 116.9369988
  71.8170012  17.9674997 116.8059988  71.4908804  17.3146625 117.2804849
  75.5830012  18.1574997 104.2379988  76.3270012  18.7434997 104.0979988
  74.8890012  18.7254997 104.5709988  75.5909899  18.3145798 104.2638778
  59.6580012   4.5334997 116.8399988  58.7650012   4.8724997 116.7719988
  59.5590012   3.6784997 117.2579988  59.5224164   4.4642588 116.8872235
  71.9460012  12.3504997 106.2639988  71.6680012  11.6224997 106.8199988
  72.8730012  12.4694997 106.4689988  72.0333124  12.2668802 106.3678845
  59.3090012  16.3384997 115.2749988  59.5260012  15.4064997 115.2439988
  59.5550012  16.6124997 116.1579988  59.3719549  16.2480636 115.3901763
  64.1080012  14.3594997 104.9399988  64.2540012  13.8394997 105.7299988
  64.1050012  15.2664997 105.2469988  64.1275792  14.4108842 105.0896117
  60.5610012  11.6124997 105.4509988  59.8750012  11.9644997 106.0179988
  61.0830012  12.3754997 105.2039988  60.5376852  11.7638578 105.4952118
  68.3920012   4.2744997 115.7299988  69.0910012   4.3484997 116.3799988
  68.0110012   3.4104997 115.8839988  68.4361767   4.1677624 115.8398322
  69.1770012   3.9264997 106.8269988  69.3970012   4.3984997 106.0239988
  69.7350012   4.3214997 107.4969988  69.2824968   4.0444285 106.8077331
  66.8450012  16.0574997 105.6899988  66.0290012  16.5544997 105.7419988
  67.3750012  16.5324997 105.0499988  66.8049161  16.1897722 105.6105956
  66.3770012   5.6544997 107.6619988  67.1890012   6.1594997 107.7079988
  66.1320012   5.5094997 108.5759988  66.4550520   5.7040375 107.7918517
  66.9120012   6.6404997 116.8459988  67.0310012   7.2144997 117.6039988
  67.5680012   5.9524997 116.9609988  67.0169025   6.6259858 116.9651321
  67.2600012   2.7354997 108.5999988  66.9140012   3.3534997 109.2439988
  67.9190012   3.2364997 108.1179988  67.3016968   2.8876278 108.6229383
  64.1840012  17.1014997 105.6709988  64.3440012  17.9004997 105.1709988
  63.9860012  17.4074997 106.5559988  64.1791637  17.2524020 105.7221144
  62.9180012   3.7984997 105.2869988  62.8350012   4.6874997 105.6339988
  63.8080012   3.5334997 105.5189988  63.0269469   3.8841430 105.3657626
  73.1170012   4.5474997 117.6809988  72.2000012   4.8104997 117.5939988
  73.4520012   4.5444997 116.7849988  73.0368613   4.5830761 117.5478837
  71.7190012   8.2984997 111.7769988  70.9210012   7.8834997 111.4489988
  72.1640012   7.6074997 112.2679988  71.6699885   8.1483543 111.7984889
  61.1770012  14.2264997 104.3479988  61.7690012  14.9254997 104.6239988
  61.6360012  13.7934997 103.6279988  61.3201142  14.2637049 104.2884830
  72.8050012  17.5544997 113.3999988  72.6500012  18.2324997 112.7419988
  73.7380012  17.6264997 113.6029988  72.9098657  17.6569546 113.3374360
  60.3010012   1.6724997 112.1369988  60.0720012   1.7314997 111.2089988
  59.8580012   0.8804997 112.4429988  60.2098530   1.5735753 112.0514786
  59.2310012  15.6124997 108.2969988  58.3990012  16.0854997 108.3239988
  59.7770012  16.1224997 107.6989988  59.1910352  15.7461332 108.2198463
  58.5190012  18.2254997 119.6269988  59.0600012  18.0084997 120.3869988
  58.0380012  17.4194997 119.4369988  58.5279951  18.0869270 119.7052576
  63.1170012  17.1444997 121.2469988  63.8840012  16.6854997 121.5879988
  63.0950012  16.9184997 120.3179988  63.2191275  17.0510186 121.1680101
  69.6940012  15.5244997 119.9769988  69.3430012  14.6684997 120.2199988
  70.4200012  15.6674997 120.5839988  69.7440769  15.4265636 120.0923619
  58.4260012  12.0354997 120.5809988  58.5700012  11.1334997 120.2949988
  57.6540012  12.3214997 120.0939988  58.3412753  11.9506816 120.4759505
  65.0820012  12.0054997 120.0139988  64.7530012  12.2764997 119.1569988
  65.2340012  11.0644997 119.9269988  65.0574809  11.9153862 119.8848244
  70.8160012  11.9214997 117.3969988  71.5620012  12.5094997 117.2779988
  70.0590012  12.5034997 117.4609988  70.8157820  12.0807143 117.3893590
  59.2590012   9.2354997 120.0009988  59.6670012   8.3784997 119.8799988
  58.9990012   9.2504997 120.9219988  59.2797568   9.1200807 120.1089588
  63.2060012   8.2444997 117.3759988  62.5880012   8.9194997 117.6559988
  63.5500012   8.5654997 116.5419988  63.1679132   8.3802411 117.3016262
  68.2260012  10.7164997 120.6529988  69.1790012  10.7994997 120.6259988
  68.0650012  10.0044997 121.2729988  68.3346426  10.6316746 120.7330579
  63.5450012   5.5994997 118.4579988  63.6950012   4.8704997 117.8559988
  63.5480012   6.3764997 117.8989988  63.5659302   5.6047851 118.3000692
  63.9580012   3.9694997 115.9509988  64.4940012   4.4204997 115.2989988
  63.1060012   3.8614997 115.5279988  63.9162178   4.0166390 115.8045756
  65.5400012   9.4084997 116.1899988  66.2900012   9.2524997 115.6169988
  65.2010012  10.2604997 115.9149988  65.5968921   9.5022968 116.0743561
  69.9550012   7.2234997 121.2189988  70.1480012   6.2924997 121.1069988
  70.8130012   7.6484997 121.2079988  70.0972934   7.1536531 121.2022031
  71.2720012  10.0124997 119.2959988  70.9910012  10.7214997 118.7179988
  72.2150012   9.9394997 119.1449988  71.3609291  10.0996711 119.1964967
  62.0240012   6.7974997 120.3699988  61.2570012   6.2654997 120.1589988
  62.7030012   6.4874997 119.7699988  62.0107877   6.6828300 120.2600716
  64.7640012   1.4254997 116.3819988  64.6650012   2.3724997 116.2769988
  64.0210012   1.0534997 115.9059988  64.6501184   1.5045863 116.3033621
  66.0280012   5.7474997 119.9459988  65.7920012   5.5274997 120.8469988
  65.2440012   5.5404997 119.4359988  65.8898504   5.6894586 120.0003431
  68.7430012   4.8744997 119.0209988  67.7960012   4.9064997 119.1539988
  69.0560012   4.2494997 119.6749988  68.6556707   4.7943998 119.1276060
  70.3770012   3.5084997 121.0269988  70.2810012   2.5564997 121.0209988
  70.0560012   3.7774997 121.8869988  70.3204070   3.4144035 121.1425441
  60.2040012   4.7184997 120.0739988  60.4160012   4.0114997 119.4639988
  60.0930012   4.2804997 120.9179988  60.2179721   4.5627084 120.1046843
  64.9850012   0.7194997 119.0529988  65.6970012   0.0794997 119.0389988
  64.8840012   0.9864997 118.1399988  65.0688066   0.6680079 118.9275677
  65.3390012   2.4024997 121.1069988  65.2070012   1.9264997 120.2869988
  64.7400012   3.1464997 121.0519988  65.2399071   2.4379618 120.9872886
  58.4540012  13.9214997 103.7659988  59.3680012  14.0004997 104.0399988
  58.4610012  13.2344997 103.0999988  58.5801131  13.8393961 103.7134393
  57.1030012  19.3144997 108.8439988  56.4560012  18.8524997 108.3109988
  57.4570012  18.6424997 109.4259988  57.0623849  19.1604723 108.8497959
  57.9730012  17.3954997 110.6479988  57.6380012  16.5154997 110.8199988
  58.1950012  17.7404997 111.5129988  57.9571783  17.3217500 110.7884208
  75.5210012  18.2044997 113.6289988  75.5000012  18.3894997 114.5679988
  76.2120012  18.7734997 113.2879988  75.6114618  18.3066606 113.7113864
  75.0850012  17.7724997 116.5509988  74.5970012  17.0364997 116.1789988
  75.6340012  17.3784997 117.2289988  75.0924820  17.6185889 116.5917813
  73.5350012  13.5614997 121.1889988  72.6690012  13.4564997 121.5829988
  73.9120012  14.3204997 121.6349988  73.4673308  13.6496900 121.3032393
  74.8360012  11.8184997 106.7029988  75.6860012  12.2394997 106.8299988
  74.8420012  11.0784997 107.3099988  74.9531372  11.7760803 106.8024344
  75.2310012   9.8714997 108.5259988  74.5040012   9.3924997 108.9239988
  75.8120012  10.0774997 109.2589988  75.2100473   9.8338103 108.6794528
  74.9900012  12.6564997 113.4739988  75.8230012  12.2784997 113.1939988
  75.1020012  13.5994997 113.3549988  75.1192647  12.7322218 113.4195487
  73.4760012  15.5344997 115.7809988  72.8290012  15.8594997 116.4069988
  72.9590012  15.0944997 115.1069988  73.3174029  15.5195004 115.7755827
  75.4990012   9.7724997 104.9179988  74.9770012  10.1294997 104.1989988
  75.4660012  10.4474997 105.5959988  75.4231634   9.9125413 104.9113145
  73.0170012   8.3924997 109.0889988  72.8670012   7.4474997 109.0689988
  72.6640012   8.6734997 109.9329988  72.9487448   8.3011481 109.2003705
  58.0530012  10.4704997 113.0999988  58.2370012  10.3884997 112.1639988
  58.9020012  10.3464997 113.5229988  58.1930151  10.4425073 113.0291451
  73.8740012  10.3624997 118.7279988  74.4570012   9.6284997 118.9199988
  74.4380012  11.1344997 118.7749988  74.0299769  10.3664227 118.7606159
  75.3700012   8.2654997 119.4129988  74.5070012   7.8864997 119.2469988
  75.9750012   7.5264997 119.3379988  75.3336119   8.1138268 119.3801528
  72.7280012   5.9754997 107.5519988  73.0080012   5.0684997 107.6759988
  73.4870012   6.4094997 107.1629988  72.8689277   5.9100942 107.5163682
  73.3400012   6.5564997 112.9879988  74.2730012   6.7684997 112.9529988
  73.1050012   6.6584997 113.9099988  73.4359244   6.5993100 113.1078892
  73.3690012   7.2934997 115.7639988  72.5260012   7.5614997 116.1299988
  73.8110012   8.1154997 115.5529988  73.3134158   7.4413291 115.7855491
  57.6500012   5.7414997 119.2409988  58.5700012   5.6194997 119.4769988
  57.2010012   4.9914997 119.6299988  57.7151580   5.6233727 119.3259006
  75.6520012   1.2734997 121.1169988  76.0020012   0.6194997 120.5119988
  75.7990012   2.1104997 120.6769988  75.7197887   1.2971548 120.9746858
  73.3410012   3.2384997 107.5999988  73.5240012   2.7894997 108.4259988
  72.7420012   2.6534997 107.1369988  73.2850202   3.0979975 107.6503275
  58.8710012   4.0534997 112.1319988  59.3170012   3.2614997 112.4339988
  59.3380012   4.7694997 112.5619988  58.9950831   4.0420685 112.2314006
  57.1750012   7.0524997 113.2009988  57.6670012   6.8314997 112.4099988
  57.5380012   7.8934997 113.4819988  57.2913126   7.1358357 113.1307531
  75.1720012   3.3824997 119.4659988  74.2540012   3.6534997 119.4309988
  75.2950012   2.8474997 118.6819988  75.0629729   3.3472508 119.3551923
  75.2080012   3.3054997 104.1279988  75.6200012   2.5844997 103.6529988
  75.8900012   3.9754997 104.1869988  75.3565885   3.2972368 104.0708915
  57.4890012   3.3104997 107.2549988  56.5640012   3.5194997 107.1259988
  57.9430012   3.7944997 106.5649988  57.4237292   3.4045343 107.1440720
  72.2600012  18.2944997 109.2009988  72.9120012  17.9474997 108.5929988
  72.7700012  18.7834997 109.8469988  72.4182637  18.3130597 109.2050236
  57.4530012   2.0484997 115.5989988  56.7880012   1.8024997 116.2429988
  57.0100012   2.6704997 115.0219988  57.3021318   2.0989410 115.6090898
  59.6450012  15.2234997 119.7439988  58.8240012  15.3984997 119.2829988
  59.3920012  15.1504997 120.6639988  59.4985585  15.2375544 119.8053561
  62.5990012  16.1984997 116.0019988  62.1740012  17.0074997 115.7199988
  63.5030012  16.2834997 115.6999988  62.6629975  16.3209300 115.9224816
  66.9100012  17.5974997 118.9619988  67.0950012  17.2634997 119.8399988
  67.7560012  17.9064997 118.6399988  67.0497539  17.5936047 119.0385605
  69.2550012  18.8834997 118.2059988  69.9320012  18.2504997 117.9659988
  69.5770012  19.2844997 119.0129988  69.3911637  18.8511154 118.2822793
  74.1720012   1.4724997 117.2849988  73.3600012   1.7974997 116.8979988
  74.4050012   0.7124997 116.7519988  74.0922203   1.4142758 117.1598880
  60.0010012  19.4544997 116.0499988  59.2800012  19.8944997 115.5989988
  59.6350012  19.2034997 116.8979988  59.8529651  19.4807242 116.1029640
  62.4680012  19.0544997 115.0799988  61.6030012  19.1264997 115.4839988
  62.4130012  19.6014997 114.2959988  62.3422085  19.1382685 115.0293362
  67.1780012  18.9424997 114.2549988  66.7220012  19.4714997 113.6009988
  67.3410012  19.5454997 114.9799988  67.1376068  19.0964607 114.2634838
  69.5060012  17.8204997 115.1999988  68.6010012  17.9854997 114.9339988
  69.9350012  18.6734997 115.1349988  69.4401324  17.9584339 115.1547976
  72.1100012  19.3904997 115.4949988  71.9280012  20.3064997 115.2849988
  72.2870012  18.9804997 114.6489988  72.1090210  19.4604822 115.3517885
  59.4150012  18.0774997 112.9599988  59.3970012  17.6524997 113.8169988
  60.2200012  17.7594997 112.5509988  59.5213529  17.9763013 113.0220946
  61.5570012  16.7874997 111.6149988  61.3380012  15.8714997 111.7849988
  62.3810012  16.9274997 112.0809988  61.6384420  16.6810520 111.7012774
  64.0940012  17.2574997 112.4639988  64.3070012  16.3694997 112.1769988
  64.1580012  17.2234997 113.4179988  64.1318232  17.1313102 112.5537397
  67.6020012   2.9214997 111.6079988  66.9280012   2.2924997 111.8639988
  68.1660012   2.4374997 111.0049988  67.5859230   2.7698744 111.5615340
  72.7450012   1.0294997 111.7209988  73.3490012   1.5764997 111.2189988
  71.8750012   1.3484997 111.4799988  72.7101208   1.1475137 111.6196886
  74.4720012   2.1674997 110.0539988  75.0840012   1.6534997 109.5269988
  74.8540012   3.0454997 110.0769988  74.6073371   2.2157866 109.9850041
  59.9290012   1.5554997 109.4299988  59.1520012   1.3214997 108.9229988
  60.4590012   0.7584997 109.4389988  59.8942330   1.4156988 109.3617742
  58.7650012   1.3534997 105.2339988  59.2040012   1.9644997 104.6419988
  58.1320012   1.8914997 105.7079988  58.7394514   1.5099257 105.2170930
  64.5080012   1.4824997 109.2439988  65.3830012   1.8704997 109.2139988
  64.3720012   1.2674997 110.1659988  64.6093695   1.5065184 109.3646440
  70.0650012   1.5124997 110.8929988  70.1410012   1.6074997 109.9429988
  69.7900012   0.6044997 111.0219988  70.0382321   1.4027867 110.7805079
  71.4180012   1.5384997 106.5849988  70.7160012   2.1534997 106.3749988
  70.9740012   0.7004997 106.7159988  71.2616450   1.5095639 106.5739000
  58.6660012  17.3014997 106.1309988  57.9810012  17.2634997 105.4639988
  58.6700012  18.2144997 106.4199988  58.5726998  17.4196733 106.0786771
  60.6260012   3.2694997 103.6759988  61.1180012   2.6394997 103.1489988
  61.2500012   3.5654997 104.3389988  60.7775688   3.2233804 103.6935482
  65.6520012   3.5624997 106.1329988  65.8300012   2.9164997 106.8159988
  65.5990012   4.3964997 106.5999988  65.6691999   3.5868009 106.2895917
  67.5310012  18.5114997 104.5289988  68.3970012  18.8774997 104.3509988
  67.2840012  18.0714997 103.7149988  67.6162392  18.5021756 104.3946289
  74.2400012  18.0744997 107.2079988  74.0450012  17.3264997 106.6429988
  74.2010012  18.8324997 106.6249988  74.2080380  18.0746099 107.0518384
  59.8870012   2.0694997 118.9479988  59.5210012   1.3044997 119.3899988
  60.8000012   2.0984997 119.2339988  59.9602736   1.9685640 119.0472502
  61.8600012   1.4204997 120.4839988  62.7580012   1.1464997 120.2989988
  61.4730012   0.6774997 120.9479988  61.9306612   1.2825914 120.5213643
  70.2810012   0.7524997 120.6659988  70.3580012   0.3264997 121.5199988
  71.1750012   0.7664997 120.3229988  70.4123428   0.6960879 120.7365310
  73.4570012  16.8254997 119.3579988  72.6750012  16.6394997 118.8379988
  73.3850012  17.7544997 119.5759988  73.3402274  16.9256643 119.3163018
  87.8630012  10.7114997 109.3889988  87.9520012  11.6554997 109.2569988
  87.2250012  10.4364997 108.7309988  87.7889081  10.8034830 109.2819614
  86.7960012   9.9664997 112.8079988  86.7580012   9.3204997 113.5129988
  86.4740012   9.5004997 112.0369988  86.7472333   9.8149408 112.8002978
  79.1650012   9.5814997 114.4009988  79.2060012   8.9554997 115.1239988
  79.8680012  10.2054997 114.5829988  79.2656363   9.5801196 114.5246044
  90.5020012  12.9054997 111.1089988  90.0620012  12.1854997 111.5599988
  90.4890012  13.6264997 111.7389988  90.4400226  12.9043731 111.2558494
  80.0880012  14.0314997 112.9359988  79.7190012  13.2294997 112.5659988
  81.0290012  13.8624997 112.9819988  80.1647289  13.8990153 112.8916316
  76.6980012   7.6914997 108.3289988  76.2510012   8.5374997 108.3099988
  76.1370012   7.1114997 107.8129988  76.5609900   7.7289916 108.2566801
  77.4090012   9.8534997 110.4539988  77.6220012   9.0834997 110.9819988
  78.1470012   9.9424997 109.8509988  77.5379044   9.7601968 110.4447123
  87.6140012  18.0104997 111.3209988  88.2340012  17.3334997 111.0479988
  87.4060012  17.7924997 112.2299988  87.6706726  17.8884800 111.4064812
  85.1860012  12.3994997 113.2139988  85.4900012  11.7134997 112.6189988
  85.9070012  12.5174997 113.8319988  85.3250671  12.3216305 113.2161816
  93.8490012   4.0004997 114.0749988  93.8980012   4.6104997 114.8099988
  94.2740012   4.4614997 113.3519988  93.9131746   4.1463796 114.0779175
  88.3270012   6.7934997 113.5409988  88.4690012   5.8474997 113.5619988
  88.2200012   7.0004997 112.6129988  88.3319919   6.6918246 113.4183408
  81.4810012   4.8944997 110.8139988  81.5250012   5.7544997 110.3949988
  81.0240012   4.3424997 110.1799988  81.4252240   4.9374422 110.6709864
  89.2040012   5.0254997 109.2149988  89.8500012   4.6964997 109.8389988
  89.7140012   5.5434997 108.5919988  89.3614299   5.0504450 109.2162731
  78.1020012   7.2914997 111.5759988  78.7550012   6.7414997 112.0079988
  78.1260012   7.0174997 110.6589988  78.1946683   7.1791466 111.5112123
  83.2580012   8.8414997 110.7909988  83.8740012   8.3154997 111.3009988
  82.6720012   8.2014997 110.3879988  83.2630810   8.6829208 110.8063173
  94.2400012   5.4784997 116.3099988  93.5520012   6.1364997 116.2149988
  94.2560012   5.2814997 117.2469988  94.1479540   5.5419819 116.4235990
  80.2920012   3.8124997 114.8879988  80.0730012   4.3424997 114.1219988
  79.6240012   4.0394997 115.5349988  80.1717600   3.9156906 114.8706379
  87.6610012  13.3124997 108.4319988  87.3650012  12.9904997 107.5809988
  87.3360012  14.2124997 108.4729988  87.5766371  13.3900215 108.3211801
  82.8610012  11.4884997 115.1749988  82.1210012  12.0864997 115.2789988
  83.5750012  12.0424997 114.8599988  82.8562237  11.6452831 115.1466465
  90.9680012   4.3164997 111.1949988  90.7520012   3.5504997 111.7279988
  91.6230012   4.7884997 111.7079988  91.0270632   4.2755889 111.3372861
  79.8850012   5.7044997 112.8399988  80.4990012   6.3374997 113.2129988
  80.3970012   5.2324997 112.1839988  80.0381981   5.7272267 112.8022908
  81.2680012  13.4524997 115.9619988  81.2630012  14.3324997 115.5839988
  80.4150012  13.3694997 116.3869988  81.1519464  13.5616117 115.9677907
  77.3890012  13.1234997 106.7439988  77.1170012  13.3524997 105.8559988
  77.4350012  13.9614997 107.2049988  77.3579482  13.2681318 106.6846273
  91.0140012  14.7454997 113.4569988  90.0730012  14.8034997 113.6189988
  91.2910012  15.6514997 113.3199988  90.9224679  14.8759443 113.4606815
  91.3150012   3.0314997 114.8749988  90.5790012   3.6424997 114.8369988
  91.9980012   3.4464997 114.3479988  91.3066541   3.1711374 114.7985832
  84.3180012   1.1184997 112.3399988  84.2010012   0.1694997 112.2859988
  83.4630012   1.4504997 112.6139988  84.1864212   1.0335571 112.3696497
  89.2660012  16.5264997 110.0819988  89.6920012  15.8194997 109.5969988
  89.5830012  17.3274997 109.6659988  89.3671683  16.5381017 109.9593680
  90.4260012  14.4274997 108.5909988  90.1680012  13.7374997 107.9799988
  90.4970012  13.9844997 109.4369988  90.4002856  14.2732124 108.6216885
  92.1120012  12.9934997 117.0679988  92.2520012  12.4024997 116.3289988
  92.2790012  13.8664997 116.7119988  92.1537411  13.0305428 116.9186894
  86.5850012   9.9554997 106.8409988  85.8730012  10.4904997 106.4889988
  87.2760012  10.0114997 106.1809988  86.5810132  10.0362543 106.7036289
  93.9540012   9.3334997 115.1339988  93.3010012  10.0284997 115.2239988
  94.4190012   9.5434997 114.3249988  93.9275274   9.4570643 115.0368462
  89.9900012  10.1654997 107.7929988  89.2580012  10.3934997 108.3659988
  90.4380012   9.4514997 108.2469988  89.9502725  10.1002145 107.9328816
  89.8880012   8.3394997 116.8599988  89.9680012   9.1024997 117.4319988
  89.2860012   8.6184997 116.1699988  89.8175756   8.4817134 116.8450589
  81.6360012  10.7954997 109.6749988  81.3050012  10.4254997 108.8569988
  82.2240012  10.1254997 110.0219988  81.6701873  10.6541156 109.6098102
  83.0020012  14.2234997 112.3559988  82.9080012  13.6454997 111.5999988
  83.7320012  13.8524997 112.8529988  83.0877387  14.0941663 112.3195342
  82.0020012   9.5644997 113.3089988  82.5680012   9.6854997 112.5459988
  82.3210012  10.2014997 113.9469988  82.1225474   9.6672219 113.2909862
  88.3110012  15.0674997 114.0429988  88.0710012  15.7294997 114.6909988
  88.1130012  14.2334997 114.4679988  88.2513808  15.0453134 114.1891524
  82.8820012  13.9634997 118.0259988  82.5710012  14.7454997 118.4809988
  82.2320012  13.8104997 117.3399988  82.7515558  14.0499105 117.9955871
  88.8610012   9.3274997 105.4779988  89.4410012   9.4774997 106.2249988
  89.2750012   9.7984997 104.7539988  88.9962997   9.4116578 105.4824058
  79.8020012  10.1614997 117.2539988  79.8730012  10.8124997 117.9529988
  78.9120012  10.2644997 116.9189988  79.6913005  10.2645427 117.3043495
  86.5880012  16.0644997 108.9129988  87.0620012  16.3594997 109.6899988
  86.0250012  16.8024997 108.6799988  86.5768184  16.2047247 108.9879628
  81.1220012  16.0354997 118.7889988  81.1290012  15.8994997 117.8419988
  80.2060012  15.9174997 119.0409988  80.9991714  16.0009430 118.6934666
  92.5600012   1.0774997 105.2909988  91.6600012   1.2164997 105.5859988
  92.8120012   1.9084997 104.8889988  92.4708702   1.2089074 105.2770205
  80.6260012   9.8654997 107.2639988  80.3340012  10.6334997 106.7739988
  79.9520012   9.2054997 107.1019988  80.4948111   9.8815587 107.1748978
  76.7190012  12.2284997 116.0789988  76.2180012  12.2004997 115.2639988
  76.7240012  11.3224997 116.3889988  76.6510944  12.1022396 116.0093226
  76.4690012  15.0084997 112.9629988  77.4150012  14.8644997 112.9439988
  76.3570012  15.7924997 113.4999988  76.5832727  15.0948046 113.0330072
  94.6670012  15.6744997 118.6459988  94.6180012  14.7194997 118.6089988
  93.8400012  15.9424997 119.0469988  94.5484940  15.5798998 118.6951375
  85.6460012  15.2484997 117.5219988  85.7330012  16.0744997 117.9969988
  84.7820012  14.9184997 117.7709988  85.5411964  15.3169878 117.6206549
  86.0600012  19.0204997 107.3279988  85.9850012  18.8994997 106.3809988
  86.0930012  19.9704997 107.4459988  86.0542068  19.1322646 107.2144967
  79.7130012  17.8094997 109.1089988  79.8660012  17.4614997 109.9869988
  78.8630012  17.4534997 108.8539988  79.6189166  17.7136216 109.1948079
  89.1620012  18.1744997 104.3299988  89.5370012  17.4304997 103.8589988
  89.1660012  17.9044997 105.2489988  89.2139125  18.0360986 104.3896483
  88.8310012  18.1004997 107.0789988  87.8950012  18.2004997 107.2579988
  89.1110012  17.3914997 107.6579988  88.7409553  18.0183406 107.1817087
  91.8190012   7.1674997 119.1259988  91.4120012   7.6484997 118.4049988
  91.8600012   6.2624997 118.8179988  91.7688437   7.1109374 118.9856683
  78.9680012  13.5514997 117.1229988  79.1840012  13.1904997 117.9819988
  78.1130012  13.1774997 116.9129988  78.8819292  13.4514111 117.2123386
  81.5870012   2.0214997 113.1179988  80.7250012   1.9344997 112.7099988
  81.5640012   2.8774997 113.5459988  81.4660409   2.1252883 113.1200589
  86.2500012   1.7434997 116.4929988  86.6700012   1.3284997 117.2459988
  85.3170012   1.5654997 116.6099988  86.1813644   1.6625900 116.6119539
  89.5760012   5.4994997 117.3459988  89.0620012   5.3734997 118.1439988
  89.4210012   6.4114997 117.1019988  89.4846852   5.6056132 117.4222158
  85.9110012   4.2364997 103.7779988  85.6580012   4.2554997 104.7009988
  85.6550012   3.3644997 103.4759988  85.8417481   4.1212558 103.8636175
  81.6780012   6.9874997 114.2129988  81.0360012   6.9464997 114.9219988
  81.7150012   7.9134997 113.9749988  81.5950664   7.1071430 114.2779219
  81.6750012   7.2084997 109.1249988  80.7820012   6.8674997 109.0659988
  82.1250012   6.8314997 108.3689988  81.6138130   7.1109631 109.0147702
  87.2100012   7.6244997 107.9419988  86.8010012   8.4394997 107.6509988
  87.9310012   7.4844997 107.3279988  87.2514537   7.7172018 107.8191342
  86.3120012   7.7994997 119.4299988  85.7500012   7.0954997 119.7509988
  87.1390012   7.6794997 119.8979988  86.3467095   7.6867883 119.5372330
  88.2150012   7.0704997 110.7559988  88.0200012   7.6754997 110.0409988
  88.3960012   6.2364997 110.3219988  88.2127614   7.0406300 110.5994405
  79.4280012   7.3074997 116.0799988  79.3900012   7.7074997 116.9489988
  78.9370012   6.4904997 116.1709988  79.3564684   7.2518069 116.2111059
  82.7940012   4.6814997 102.8789988  82.3630012   4.2364997 103.6089988
  82.0760012   5.0534997 102.3669988  82.6379438   4.6708940 102.9096799
  76.0360012   4.4234997 109.9309988  76.6670012   4.3944997 110.6499988
  76.4850012   3.9984997 109.1999988  76.1830918   4.3620836 109.9306441
  77.3100012   5.1694997 105.3549988  77.7840012   5.7604997 104.7699988
  76.5930012   5.7004997 105.7019988  77.2779341   5.3220867 105.3218836
  87.4790012   8.7084997 115.4269988  87.8020012   8.0774997 114.7839988
  87.0390012   8.1734997 116.0879988  87.4637484   8.5498387 115.4283198
  84.2560012   4.6354997 110.2109988  83.3450012   4.6924997 110.4999988
  84.7620012   4.5754997 111.0219988  84.1996899   4.6351941 110.3601184
  79.0850012   6.2644997 109.0379988  78.1950012   6.3644997 108.6979988
  79.3810012   5.4224997 108.6919988  79.0032823   6.1643545 108.9447213
  82.7380012   6.2644997 106.6949988  83.6690012   6.3934997 106.8729988
  82.5230012   6.9344997 106.0449988  82.8364247   6.3726565 106.6315747
  88.6610012   3.8704997 113.4759988  87.9850012   4.0014997 114.1399988
  88.1760012   3.7154997 112.6649988  88.5027146   3.8675157 113.4574469
  81.4120012   7.4594997 104.2609988  80.8690012   7.0794997 103.5699988
  82.2450012   7.6534997 103.8329988  81.4503631   7.4337125 104.1084501
  91.9490012  19.5424997 119.7519988  92.1490012  19.9664997 118.9179988
  92.6040012  19.8854997 120.3589988  92.0650072  19.6469857 119.7198592
  79.5470012  12.0164997 119.3599988  80.2790012  12.2704997 119.9219988
  78.7670012  12.2204997 119.8759988  79.5417073  12.0788160 119.5066151
  85.5760012   7.4234997 112.0979988  86.1410012   6.8764997 111.5509988
  85.4290012   6.9014997 112.8869988  85.6333380   7.2782259 112.1298695
  80.5780012   3.5594997 108.5169988  80.2610012   2.6574997 108.4809988
  81.3600012   3.5614997 107.9639988  80.6402408   3.4362474 108.4373569
  84.2030012   5.8114997 114.5119988  83.3670012   6.2654997 114.6229988
  84.7270012   6.0874997 115.2639988  84.1595416   5.9108660 114.6288119
  84.7470012  12.0244997 106.1969988  84.0020012  11.5174997 105.8749988
  84.6130012  12.0734997 107.1439988  84.6268776  11.9616940 106.2808647
  91.8970012  11.1574997 114.9839988  92.5390012  11.6144997 114.4399988
  91.0670012  11.2704997 114.5209988  91.8725963  11.2352704 114.8470177
  88.6450012   4.8384997 104.3959988  87.7060012   4.9504997 104.2449988
  88.9420012   5.6954997 104.7029988  88.5567583   4.9695981 104.4168337
  86.2660012  12.2084997 117.4339988  85.9210012  11.8274997 118.2409988
  86.0660012  13.1424997 117.5049988  86.1917527  12.2825135 117.5540689
  89.3630012   6.7054997 106.0569988  90.2550012   6.5684997 106.3759988
  89.4200012   7.4964997 105.5199988  89.4926504   6.7936052 106.0280818
  79.8720012  11.3194997 111.9669988  80.6170012  11.3174997 111.3659988
  79.9500012  10.4964997 112.4479988  79.9844995  11.2078887 111.9498282
  86.8730012  13.4834997 105.2229988  86.5770012  14.3094997 105.6039988
  86.1700012  12.8634997 105.4189988  86.7374914  13.5128199 105.3016443
  76.8800012   9.7804997 117.2819988  77.1030012   9.3624997 118.1139988
  76.2780012   9.1674997 116.8589988  76.8291759   9.6404668 117.3387022
  83.8960012   9.2974997 119.4949988  83.6000012   9.1314997 118.5999988
  84.8280012   9.0774997 119.4839988  83.9814166   9.2450640 119.3710536
  88.5170012  14.6704997 117.3849988  87.6160012  14.8534997 117.1169988
  88.5510012  14.9294997 118.3049988  88.3983139  14.7305849 117.4728099
  94.2480012   6.9154997 105.7519988  93.6940012   6.5194997 105.0799988
  94.3480012   7.8254997 105.4739988  94.1857059   6.9843586 105.6224401
  94.2110012  12.7154997 118.5889988  93.3600012  12.9534997 118.2219988
  94.8020012  12.6984997 117.8359988  94.1742487  12.7458258 118.4368893
  92.5430012  15.7014997 106.2169988  92.1700012  14.8754997 106.5259988
  92.8210012  15.5184997 105.3189988  92.5295222  15.5637430 106.1379473
  89.7040012  10.5094997 113.2379988  88.7750012  10.2774997 113.2109988
  90.1550012   9.7324997 112.9079988  89.6379216  10.3727238 113.1896917
  82.2470012  14.8374997 109.3709988  82.7740012  15.6104997 109.1709988
  81.3670012  15.0624997 109.0689988  82.2002031  14.9737545 109.3027912
  78.0020012   9.6994997 103.9579988  78.6180012  10.3264997 104.3379988
  77.1400012  10.0154997 104.2299988  77.9697698   9.8279430 104.0467183
  83.6740012  12.5004997 108.9469988  83.4330012  13.4254997 108.9889988
  82.9330012  12.0414997 109.3439988  83.5409225  12.5650933 109.0063742
  84.1890012  16.6494997 115.2629988  84.5510012  17.5044997 115.0289988
  84.7200012  16.3574997 116.0029988  84.3104473  16.7271060 115.3310855
  82.3570012  17.5224997 108.4929988  81.4070012  17.6274997 108.5439988
  82.7090012  18.3424997 108.8369988  82.2744195  17.6478800 108.5465502
  87.7330012  12.7484997 114.9629988  87.3070012  12.5214997 115.7899988
  88.3130012  12.0104997 114.7809988  87.7531868  12.6175299 115.0515830
  90.3910012  17.3004997 117.4329988  89.7900012  16.7454997 116.9369988
  90.6730012  17.9674997 116.8059988  90.3468804  17.3146625 117.2804849
  78.5140012   4.5334997 116.8399988  77.6210012   4.8724997 116.7719988
  78.4150012   3.6784997 117.2579988  78.3784164   4.4642588 116.8872235
  90.8020012  12.3504997 106.2639988  90.5240012  11.6224997 106.8199988
  91.7290012  12.4694997 106.4689988  90.8893124  12.2668802 106.3678845
  78.1650012  16.3384997 115.2749988  78.3820012  15.4064997 115.2439988
  78.4110012  16.6124997 116.1579988  78.2279549  16.2480636 115.3901763
  79.4170012  11.6124997 105.4509988  78.7310012  11.9644997 106.0179988
  79.9390012  12.3754997 105.2039988  79.3936852  11.7638578 105.4952118
  87.2480012   4.2744997 115.7299988  87.9470012   4.3484997 116.3799988
  86.8670012   3.4104997 115.8839988  87.2921767   4.1677624 115.8398322
  88.0330012   3.9264997 106.8269988  88.2530012   4.3984997 106.0239988
  88.5910012   4.3214997 107.4969988  88.1384968   4.0444285 106.8077331
  85.7010012  16.0574997 105.6899988  84.8850012  16.5544997 105.7419988
  86.2310012  16.5324997 105.0499988  85.6609161  16.1897722 105.6105956
  85.2330012   5.6544997 107.6619988  86.0450012   6.1594997 107.7079988
  84.9880012   5.5094997 108.5759988  85.3110520   5.7040375 107.7918517
  85.7680012   6.6404997 116.8459988  85.8870012   7.2144997 117.6039988
  86.4240012   5.9524997 116.9609988  85.8729025   6.6259858 116.9651321
  86.1160012   2.7354997 108.5999988  85.7700012   3.3534997 109.2439988
  86.7750012   3.2364997 108.1179988  86.1576968   2.8876278 108.6229383
  91.9730012   4.5474997 117.6809988  91.0560012   4.8104997 117.5939988
  92.3080012   4.5444997 116.7849988  91.8928613   4.5830761 117.5478837
  90.5750012   8.2984997 111.7769988  89.7770012   7.8834997 111.4489988
  91.0200012   7.6074997 112.2679988  90.5259885   8.1483543 111.7984889
  91.6610012  17.5544997 113.3999988  91.5060012  18.2324997 112.7419988
  92.5940012  17.6264997 113.6029988  91.7658657  17.6569546 113.3374360
  79.1570012   1.6724997 112.1369988  78.9280012   1.7314997 111.2089988
  78.7140012   0.8804997 112.4429988  79.0658530   1.5735753 112.0514786
  78.0870012  15.6124997 108.2969988  77.2550012  16.0854997 108.3239988
  78.6330012  16.1224997 107.6989988  78.0470352  15.7461332 108.2198463
  77.3750012  18.2254997 119.6269988  77.9160012  18.0084997 120.3869988
  76.8940012  17.4194997 119.4369988  77.3839951  18.0869270 119.7052576
  81.9730012  17.1444997 121.2469988  82.7400012  16.6854997 121.5879988
  81.9510012  16.9184997 120.3179988  82.0751275  17.0510186 121.1680101
  88.5500012  15.5244997 119.9769988  88.1990012  14.6684997 120.2199988
  89.2760012  15.6674997 120.5839988  88.6000769  15.4265636 120.0923619
  77.2820012  12.0354997 120.5809988  77.4260012  11.1334997 120.2949988
  76.5100012  12.3214997 120.0939988  77.1972753  11.9506816 120.4759505
  83.9380012  12.0054997 120.0139988  83.6090012  12.2764997 119.1569988
  84.0900012  11.0644997 119.9269988  83.9134809  11.9153862 119.8848244
  86.9760012  13.4264997 102.4499988  86.7070012  13.6064997 103.3509988
  86.7700012  12.5004997 102.3179988  86.9113427  13.3260261 102.5555073
  89.6720012  11.9214997 117.3969988  90.4180012  12.5094997 117.2779988
  88.9150012  12.5034997 117.4609988  89.6717820  12.0807143 117.3893590
  78.1150012   9.2354997 120.0009988  78.5230012   8.3784997 119.8799988
  77.8550012   9.2504997 120.9219988  78.1357568   9.1200807 120.1089588
  82.0620012   8.2444997 117.3759988  81.4440012   8.9194997 117.6559988
  82.4060012   8.5654997 116.5419988  82.0239132   8.3802411 117.3016262
  87.0820012  10.7164997 120.6529988  88.0350012  10.7994997 120.6259988
  86.9210012  10.0044997 121.2729988  87.1906426  10.6316746 120.7330579
  82.4010012   5.5994997 118.4579988  82.5510012   4.8704997 117.8559988
  82.4040012   6.3764997 117.8989988  82.4219302   5.6047851 118.3000692
  82.8140012   3.9694997 115.9509988  83.3500012   4.4204997 115.2989988
  81.9620012   3.8614997 115.5279988  82.7722178   4.0166390 115.8045756
  84.3960012   9.4084997 116.1899988  85.1460012   9.2524997 115.6169988
  84.0570012  10.2604997 115.9149988  84.4528921   9.5022968 116.0743561
  88.8110012   7.2234997 121.2189988  89.0040012   6.2924997 121.1069988
  89.6690012   7.6484997 121.2079988  88.9532934   7.1536531 121.2022031
  90.1280012  10.0124997 119.2959988  89.8470012  10.7214997 118.7179988
  91.0710012   9.9394997 119.1449988  90.2169291  10.0996711 119.1964967
  80.8800012   6.7974997 120.3699988  80.1130012   6.2654997 120.1589988
  81.5590012   6.4874997 119.7699988  80.8667877   6.6828300 120.2600716
  83.6200012   1.4254997 116.3819988  83.5210012   2.3724997 116.2769988
  82.8770012   1.0534997 115.9059988  83.5061184   1.5045863 116.3033621
  84.8840012   5.7474997 119.9459988  84.6480012   5.5274997 120.8469988
  84.1000012   5.5404997 119.4359988  84.7458504   5.6894586 120.0003431
  87.5990012   4.8744997 119.0209988  86.6520012   4.9064997 119.1539988
  87.9120012   4.2494997 119.6749988  87.5116707   4.7943998 119.1276060
  89.2330012   3.5084997 121.0269988  89.1370012   2.5564997 121.0209988
  88.9120012   3.7774997 121.8869988  89.1764070   3.4144035 121.1425441
  79.0600012   4.7184997 120.0739988  79.2720012   4.0114997 119.4639988
  78.9490012   4.2804997 120.9179988  79.0739721   4.5627084 120.1046843
  83.8410012   0.7194997 119.0529988  84.5530012   0.0794997 119.0389988
  83.7400012   0.9864997 118.1399988  83.9248066   0.6680079 118.9275677
  84.1950012   2.4024997 121.1069988  84.0630012   1.9264997 120.2869988
  83.5960012   3.1464997 121.0519988  84.0959071   2.4379618 120.9872886
  75.9590012  19.3144997 108.8439988  75.3120012  18.8524997 108.3109988
  76.3130012  18.6424997 109.4259988  75.9183849  19.1604723 108.8497959
  76.8290012  17.3954997 110.6479988  76.4940012  16.5154997 110.8199988
  77.0510012  17.7404997 111.5129988  76.8131783  17.3217500 110.7884208
  94.3770012  18.2044997 113.6289988  94.3560012  18.3894997 114.5679988
  95.0680012  18.7734997 113.2879988  94.4674618  18.3066606 113.7113864
  93.9410012  17.7724997 116.5509988  93.4530012  17.0364997 116.1789988
  94.4900012  17.3784997 117.2289988  93.9484820  17.6185889 116.5917813
  92.3910012  13.5614997 121.1889988  91.5250012  13.4564997 121.5829988
  92.7680012  14.3204997 121.6349988  92.3233308  13.6496900 121.3032393
  93.6920012  11.8184997 106.7029988  94.5420012  12.2394997 106.8299988
  93.6980012  11.0784997 107.3099988  93.8091372  11.7760803 106.8024344
  94.0870012   9.8714997 108.5259988  93.3600012   9.3924997 108.9239988
  94.6680012  10.0774997 109.2589988  94.0660473   9.8338103 108.6794528
  93.8460012  12.6564997 113.4739988  94.6790012  12.2784997 113.1939988
  93.9580012  13.5994997 113.3549988  93.9752647  12.7322218 113.4195487
  92.3320012  15.5344997 115.7809988  91.6850012  15.8594997 116.4069988
  91.8150012  15.0944997 115.1069988  92.1734029  15.5195004 115.7755827
  94.3550012   9.7724997 104.9179988  93.8330012  10.1294997 104.1989988
  94.3220012  10.4474997 105.5959988  94.2791634   9.9125413 104.9113145
  91.8730012   8.3924997 109.0889988  91.7230012   7.4474997 109.0689988
  91.5200012   8.6734997 109.9329988  91.8047448   8.3011481 109.2003705
  76.9090012  10.4704997 113.0999988  77.0930012  10.3884997 112.1639988
  77.7580012  10.3464997 113.5229988  77.0490151  10.4425073 113.0291451
  92.7300012  10.3624997 118.7279988  93.3130012   9.6284997 118.9199988
  93.2940012  11.1344997 118.7749988  92.8859769  10.3664227 118.7606159
  94.2260012   8.2654997 119.4129988  93.3630012   7.8864997 119.2469988
  94.8310012   7.5264997 119.3379988  94.1896119   8.1138268 119.3801528
  91.5840012   5.9754997 107.5519988  91.8640012   5.0684997 107.6759988
  92.3430012   6.4094997 107.1629988  91.7249277   5.9100942 107.5163682
  92.1960012   6.5564997 112.9879988  93.1290012   6.7684997 112.9529988
  91.9610012   6.6584997 113.9099988  92.2919244   6.5993100 113.1078892
  92.2250012   7.2934997 115.7639988  91.3820012   7.5614997 116.1299988
  92.6670012   8.1154997 115.5529988  92.1694158   7.4413291 115.7855491
  76.5060012   5.7414997 119.2409988  77.4260012   5.6194997 119.4769988
  76.0570012   4.9914997 119.6299988  76.5711580   5.6233727 119.3259006
  94.5080012   1.2734997 121.1169988  94.8580012   0.6194997 120.5119988
  94.6550012   2.1104997 120.6769988  94.5757887   1.2971548 120.9746858
  92.1970012   3.2384997 107.5999988  92.3800012   2.7894997 108.4259988
  91.5980012   2.6534997 107.1369988  92.1410202   3.0979975 107.6503275
  77.7270012   4.0534997 112.1319988  78.1730012   3.2614997 112.4339988
  78.1940012   4.7694997 112.5619988  77.8510831   4.0420685 112.2314006
  76.0310012   7.0524997 113.2009988  76.5230012   6.8314997 112.4099988
  76.3940012   7.8934997 113.4819988  76.1473126   7.1358357 113.1307531
  94.0280012   3.3824997 119.4659988  93.1100012   3.6534997 119.4309988
  94.1510012   2.8474997 118.6819988  93.9189729   3.3472508 119.3551923
  94.0640012   3.3054997 104.1279988  94.4760012   2.5844997 103.6529988
  94.7460012   3.9754997 104.1869988  94.2125885   3.2972368 104.0708915
  76.3450012   3.3104997 107.2549988  75.4200012   3.5194997 107.1259988
  76.7990012   3.7944997 106.5649988  76.2797292   3.4045343 107.1440720
  91.1160012  18.2944997 109.2009988  91.7680012  17.9474997 108.5929988
  91.6260012  18.7834997 109.8469988  91.2742637  18.3130597 109.2050236
  76.3090012   2.0484997 115.5989988  75.6440012   1.8024997 116.2429988
  75.8660012   2.6704997 115.0219988  76.1581318   2.0989410 115.6090898
  78.5010012  15.2234997 119.7439988  77.6800012  15.3984997 119.2829988
  78.2480012  15.1504997 120.6639988  78.3545585  15.2375544 119.8053561
  81.4550012  16.1984997 116.0019988  81.0300012  17.0074997 115.7199988
  82.3590012  16.2834997 115.6999988  81.5189975  16.3209300 115.9224816
  85.7660012  17.5974997 118.9619988  85.9510012  17.2634997 119.8399988
  86.6120012  17.9064997 118.6399988  85.9057539  17.5936047 119.0385605
  88.1110012  18.8834997 118.2059988  88.7880012  18.2504997 117.9659988
  88.4330012  19.2844997 119.0129988  88.2471637  18.8511154 118.2822793
  93.0280012   1.4724997 117.2849988  92.2160012   1.7974997 116.8979988
  93.2610012   0.7124997 116.7519988  92.9482203   1.4142758 117.1598880
  78.8570012  19.4544997 116.0499988  78.1360012  19.8944997 115.5989988
  78.4910012  19.2034997 116.8979988  78.7089651  19.4807242 116.1029640
  81.3240012  19.0544997 115.0799988  80.4590012  19.1264997 115.4839988
  81.2690012  19.6014997 114.2959988  81.1982085  19.1382685 115.0293362
  86.0340012  18.9424997 114.2549988  85.5780012  19.4714997 113.6009988
  86.1970012  19.5454997 114.9799988  85.9936068  19.0964607 114.2634838
  88.3620012  17.8204997 115.1999988  87.4570012  17.9854997 114.9339988
  88.7910012  18.6734997 115.1349988  88.2961324  17.9584339 115.1547976
  90.9660012  19.3904997 115.4949988  90.7840012  20.3064997 115.2849988
  91.1430012  18.9804997 114.6489988  90.9650210  19.4604822 115.3517885
  78.2710012  18.0774997 112.9599988  78.2530012  17.6524997 113.8169988
  79.0760012  17.7594997 112.5509988  78.3773529  17.9763013 113.0220946
  80.4130012  16.7874997 111.6149988  80.1940012  15.8714997 111.7849988
  81.2370012  16.9274997 112.0809988  80.4944420  16.6810520 111.7012774
  82.9500012  17.2574997 112.4639988  83.1630012  16.3694997 112.1769988
  83.0140012  17.2234997 113.4179988  82.9878232  17.1313102 112.5537397
  86.4580012   2.9214997 111.6079988  85.7840012   2.2924997 111.8639988
  87.0220012   2.4374997 111.0049988  86.4419230   2.7698744 111.5615340
  91.6010012   1.0294997 111.7209988  92.2050012   1.5764997 111.2189988
  90.7310012   1.3484997 111.4799988  91.5661208   1.1475137 111.6196886
  93.3280012   2.1674997 110.0539988  93.9400012   1.6534997 109.5269988
  93.7100012   3.0454997 110.0769988  93.4633371   2.2157866 109.9850041
  78.7850012   1.5554997 109.4299988  78.0080012   1.3214997 108.9229988
  79.3150012   0.7584997 109.4389988  78.7502330   1.4156988 109.3617742
  83.3640012   1.4824997 109.2439988  84.2390012   1.8704997 109.2139988
  83.2280012   1.2674997 110.1659988  83.4653695   1.5065184 109.3646440
  88.9210012   1.5124997 110.8929988  88.9970012   1.6074997 109.9429988
  88.6460012   0.6044997 111.0219988  88.8942321   1.4027867 110.7805079
  90.2740012   1.5384997 106.5849988  89.5720012   2.1534997 106.3749988
  89.8300012   0.7004997 106.7159988  90.1176450   1.5095639 106.5739000
  77.5220012  17.3014997 106.1309988  76.8370012  17.2634997 105.4639988
  77.5260012  18.2144997 106.4199988  77.4286998  17.4196733 106.0786771
  84.5080012   3.5624997 106.1329988  84.6860012   2.9164997 106.8159988
  84.4550012   4.3964997 106.5999988  84.5251999   3.5868009 106.2895917
  93.0960012  18.0744997 107.2079988  92.9010012  17.3264997 106.6429988
  93.0570012  18.8324997 106.6249988  93.0640380  18.0746099 107.0518384
  78.7430012   2.0694997 118.9479988  78.3770012   1.3044997 119.3899988
  79.6560012   2.0984997 119.2339988  78.8162736   1.9685640 119.0472502
  80.7160012   1.4204997 120.4839988  81.6140012   1.1464997 120.2989988
  80.3290012   0.6774997 120.9479988  80.7866612   1.2825914 120.5213643
  79.3400012  18.2214997 103.1569988  79.0730012  18.5084997 104.0299988
  80.1120012  17.6754997 103.3089988  79.4077488  18.1870294 103.2971050
  89.1370012   0.7524997 120.6659988  89.2140012   0.3264997 121.5199988
  90.0310012   0.7664997 120.3229988  89.2683428   0.6960879 120.7365310
  92.3130012  16.8254997 119.3579988  91.5310012  16.6394997 118.8379988
  92.2410012  17.7544997 119.5759988  92.1962274  16.9256643 119.3163018
 106.7190012  10.7114997 109.3889988 106.8080012  11.6554997 109.2569988
 106.0810012  10.4364997 108.7309988 106.6449081  10.8034830 109.2819614
 105.6520012   9.9664997 112.8079988 105.6140012   9.3204997 113.5129988
 105.3300012   9.5004997 112.0369988 105.6032333   9.8149408 112.8002978
  98.0210012   9.5814997 114.4009988  98.0620012   8.9554997 115.1239988
  98.7240012  10.2054997 114.5829988  98.1216363   9.5801196 114.5246044
 109.3580012  12.9054997 111.1089988 108.9180012  12.1854997 111.5599988
 109.3450012  13.6264997 111.7389988 109.2960226  12.9043731 111.2558494
  98.9440012  14.0314997 112.9359988  98.5750012  13.2294997 112.5659988
  99.8850012  13.8624997 112.9819988  99.0207289  13.8990153 112.8916316
  95.5540012   7.6914997 108.3289988  95.1070012   8.5374997 108.3099988
  94.9930012   7.1114997 107.8129988  95.4169900   7.7289916 108.2566801
  96.2650012   9.8534997 110.4539988  96.4780012   9.0834997 110.9819988
  97.0030012   9.9424997 109.8509988  96.3939044   9.7601968 110.4447123
 106.4700012  18.0104997 111.3209988 107.0900012  17.3334997 111.0479988
 106.2620012  17.7924997 112.2299988 106.5266726  17.8884800 111.4064812
 104.0420012  12.3994997 113.2139988 104.3460012  11.7134997 112.6189988
 104.7630012  12.5174997 113.8319988 104.1810671  12.3216305 113.2161816
 112.7050012   4.0004997 114.0749988 112.7540012   4.6104997 114.8099988
 113.1300012   4.4614997 113.3519988 112.7691746   4.1463796 114.0779175
 107.1830012   6.7934997 113.5409988 107.3250012   5.8474997 113.5619988
 107.0760012   7.0004997 112.6129988 107.1879919   6.6918246 113.4183408
 100.3370012   4.8944997 110.8139988 100.3810012   5.7544997 110.3949988
  99.8800012   4.3424997 110.1799988 100.2812240   4.9374422 110.6709864
 108.0600012   5.0254997 109.2149988 108.7060012   4.6964997 109.8389988
 108.5700012   5.5434997 108.5919988 108.2174299   5.0504450 109.2162731
  96.9580012   7.2914997 111.5759988  97.6110012   6.7414997 112.0079988
  96.9820012   7.0174997 110.6589988  97.0506683   7.1791466 111.5112123
 102.1140012   8.8414997 110.7909988 102.7300012   8.3154997 111.3009988
 101.5280012   8.2014997 110.3879988 102.1190810   8.6829208 110.8063173
 113.0960012   5.4784997 116.3099988 112.4080012   6.1364997 116.2149988
 113.1120012   5.2814997 117.2469988 113.0039540   5.5419819 116.4235990
  99.1480012   3.8124997 114.8879988  98.9290012   4.3424997 114.1219988
  98.4800012   4.0394997 115.5349988  99.0277600   3.9156906 114.8706379
 106.5170012  13.3124997 108.4319988 106.2210012  12.9904997 107.5809988
 106.1920012  14.2124997 108.4729988 106.4326371  13.3900215 108.3211801
 101.7170012  11.4884997 115.1749988 100.9770012  12.0864997 115.2789988
 102.4310012  12.0424997 114.8599988 101.7122237  11.6452831 115.1466465
 109.8240012   4.3164997 111.1949988 109.6080012   3.5504997 111.7279988
 110.4790012   4.7884997 111.7079988 109.8830632   4.2755889 111.3372861
  98.7410012   5.7044997 112.8399988  99.3550012   6.3374997 113.2129988
  99.2530012   5.2324997 112.1839988  98.8941981   5.7272267 112.8022908
 100.1240012  13.4524997 115.9619988 100.1190012  14.3324997 115.5839988
  99.2710012  13.3694997 116.3869988 100.0079464  13.5616117 115.9677907
  96.2450012  13.1234997 106.7439988  95.9730012  13.3524997 105.8559988
  96.2910012  13.9614997 107.2049988  96.2139482  13.2681318 106.6846273
 109.8700012  14.7454997 113.4569988 108.9290012  14.8034997 113.6189988
 110.1470012  15.6514997 113.3199988 109.7784679  14.8759443 113.4606815
 110.1710012   3.0314997 114.8749988 109.4350012   3.6424997 114.8369988
 110.8540012   3.4464997 114.3479988 110.1626541   3.1711374 114.7985832
 103.1740012   1.1184997 112.3399988 103.0570012   0.1694997 112.2859988
 102.3190012   1.4504997 112.6139988 103.0424212   1.0335571 112.3696497
 108.1220012  16.5264997 110.0819988 108.5480012  15.8194997 109.5969988
 108.4390012  17.3274997 109.6659988 108.2231683  16.5381017 109.9593680
 109.2820012  14.4274997 108.5909988 109.0240012  13.7374997 107.9799988
 109.3530012  13.9844997 109.4369988 109.2562856  14.2732124 108.6216885
 110.9680012  12.9934997 117.0679988 111.1080012  12.4024997 116.3289988
 111.1350012  13.8664997 116.7119988 111.0097411  13.0305428 116.9186894
 105.4410012   9.9554997 106.8409988 104.7290012  10.4904997 106.4889988
 106.1320012  10.0114997 106.1809988 105.4370132  10.0362543 106.7036289
 105.4940012   8.4134997 103.8799988 106.1950012   8.4354997 104.5309988
 105.7970012   7.7854997 103.2229988 105.6308133   8.3317070 103.8803369
 112.8100012   9.3334997 115.1339988 112.1570012  10.0284997 115.2239988
 113.2750012   9.5434997 114.3249988 112.7835274   9.4570643 115.0368462
 108.8460012  10.1654997 107.7929988 108.1140012  10.3934997 108.3659988
 109.2940012   9.4514997 108.2469988 108.8062725  10.1002145 107.9328816
 108.7440012   8.3394997 116.8599988 108.8240012   9.1024997 117.4319988
 108.1420012   8.6184997 116.1699988 108.6735756   8.4817134 116.8450589
 100.4920012  10.7954997 109.6749988 100.1610012  10.4254997 108.8569988
 101.0800012  10.1254997 110.0219988 100.5261873  10.6541156 109.6098102
 101.8580012  14.2234997 112.3559988 101.7640012  13.6454997 111.5999988
 102.5880012  13.8524997 112.8529988 101.9437387  14.0941663 112.3195342
 100.8580012   9.5644997 113.3089988 101.4240012   9.6854997 112.5459988
 101.1770012  10.2014997 113.9469988 100.9785474   9.6672219 113.2909862
 107.1670012  15.0674997 114.0429988 106.9270012  15.7294997 114.6909988
 106.9690012  14.2334997 114.4679988 107.1073808  15.0453134 114.1891524
 101.7380012  13.9634997 118.0259988 101.4270012  14.7454997 118.4809988
 101.0880012  13.8104997 117.3399988 101.6075558  14.0499105 117.9955871
 107.7170012   9.3274997 105.4779988 108.2970012   9.4774997 106.2249988
 108.1310012   9.7984997 104.7539988 107.8522997   9.4116578 105.4824058
  98.6580012  10.1614997 117.2539988  98.7290012  10.8124997 117.9529988
  97.7680012  10.2644997 116.9189988  98.5473005  10.2645427 117.3043495
 105.4440012  16.0644997 108.9129988 105.9180012  16.3594997 109.6899988
 104.8810012  16.8024997 108.6799988 105.4328184  16.2047247 108.9879628
  99.9780012  16.0354997 118.7889988  99.9850012  15.8994997 117.8419988
  99.0620012  15.9174997 119.0409988  99.8551714  16.0009430 118.6934666
  99.4820012   9.8654997 107.2639988  99.1900012  10.6334997 106.7739988
  98.8080012   9.2054997 107.1019988  99.3508111   9.8815587 107.1748978
  95.5750012  12.2284997 116.0789988  95.0740012  12.2004997 115.2639988
  95.5800012  11.3224997 116.3889988  95.5070944  12.1022396 116.0093226
  95.3250012  15.0084997 112.9629988  96.2710012  14.8644997 112.9439988
  95.2130012  15.7924997 113.4999988  95.4392727  15.0948046 113.0330072
 113.5230012  15.6744997 118.6459988 113.4740012  14.7194997 118.6089988
 112.6960012  15.9424997 119.0469988 113.4044940  15.5798998 118.6951375
 104.5020012  15.2484997 117.5219988 104.5890012  16.0744997 117.9969988
 103.6380012  14.9184997 117.7709988 104.3971964  15.3169878 117.6206549
 104.9160012  19.0204997 107.3279988 104.8410012  18.8994997 106.3809988
 104.9490012  19.9704997 107.4459988 104.9102068  19.1322646 107.2144967
  98.5690012  17.8094997 109.1089988  98.7220012  17.4614997 109.9869988
  97.7190012  17.4534997 108.8539988  98.4749166  17.7136216 109.1948079
 108.0180012  18.1744997 104.3299988 108.3930012  17.4304997 103.8589988
 108.0220012  17.9044997 105.2489988 108.0699125  18.0360986 104.3896483
 107.6870012  18.1004997 107.0789988 106.7510012  18.2004997 107.2579988
 107.9670012  17.3914997 107.6579988 107.5969553  18.0183406 107.1817087
 110.6750012   7.1674997 119.1259988 110.2680012   7.6484997 118.4049988
 110.7160012   6.2624997 118.8179988 110.6248437   7.1109374 118.9856683
  97.8240012  13.5514997 117.1229988  98.0400012  13.1904997 117.9819988
  96.9690012  13.1774997 116.9129988  97.7379292  13.4514111 117.2123386
 100.4430012   2.0214997 113.1179988  99.5810012   1.9344997 112.7099988
 100.4200012   2.8774997 113.5459988 100.3220409   2.1252883 113.1200589
 105.1060012   1.7434997 116.4929988 105.5260012   1.3284997 117.2459988
 104.1730012   1.5654997 116.6099988 105.0373644   1.6625900 116.6119539
 108.4320012   5.4994997 117.3459988 107.9180012   5.3734997 118.1439988
 108.2770012   6.4114997 117.1019988 108.3406852   5.6056132 117.4222158
 104.7670012   4.2364997 103.7779988 104.5140012   4.2554997 104.7009988
 104.5110012   3.3644997 103.4759988 104.6977481   4.1212558 103.8636175
 100.5340012   6.9874997 114.2129988  99.8920012   6.9464997 114.9219988
 100.5710012   7.9134997 113.9749988 100.4510664   7.1071430 114.2779219
 100.5310012   7.2084997 109.1249988  99.6380012   6.8674997 109.0659988
 100.9810012   6.8314997 108.3689988 100.4698130   7.1109631 109.0147702
 106.0660012   7.6244997 107.9419988 105.6570012   8.4394997 107.6509988
 106.7870012   7.4844997 107.3279988 106.1074537   7.7172018 107.8191342
 105.1680012   7.7994997 119.4299988 104.6060012   7.0954997 119.7509988
 105.9950012   7.6794997 119.8979988 105.2027095   7.6867883 119.5372330
 107.0710012   7.0704997 110.7559988 106.8760012   7.6754997 110.0409988
 107.2520012   6.2364997 110.3219988 107.0687614   7.0406300 110.5994405
  98.2840012   7.3074997 116.0799988  98.2460012   7.7074997 116.9489988
  97.7930012   6.4904997 116.1709988  98.2124684   7.2518069 116.2111059
  94.8920012   4.4234997 109.9309988  95.5230012   4.3944997 110.6499988
  95.3410012   3.9984997 109.1999988  95.0390918   4.3620836 109.9306441
  96.1660012   5.1694997 105.3549988  96.6400012   5.7604997 104.7699988
  95.4490012   5.7004997 105.7019988  96.1339341   5.3220867 105.3218836
 106.3350012   8.7084997 115.4269988 106.6580012   8.0774997 114.7839988
 105.8950012   8.1734997 116.0879988 106.3197484   8.5498387 115.4283198
 103.1120012   4.6354997 110.2109988 102.2010012   4.6924997 110.4999988
 103.6180012   4.5754997 111.0219988 103.0556899   4.6351941 110.3601184
  97.9410012   6.2644997 109.0379988  97.0510012   6.3644997 108.6979988
  98.2370012   5.4224997 108.6919988  97.8592823   6.1643545 108.9447213
 101.5940012   6.2644997 106.6949988 102.5250012   6.3934997 106.8729988
 101.3790012   6.9344997 106.0449988 101.6924247   6.3726565 106.6315747
 107.5170012   3.8704997 113.4759988 106.8410012   4.0014997 114.1399988
 107.0320012   3.7154997 112.6649988 107.3587146   3.8675157 113.4574469
 110.8050012  19.5424997 119.7519988 111.0050012  19.9664997 118.9179988
 111.4600012  19.8854997 120.3589988 110.9210072  19.6469857 119.7198592
  98.4030012  12.0164997 119.3599988  99.1350012  12.2704997 119.9219988
  97.6230012  12.2204997 119.8759988  98.3977073  12.0788160 119.5066151
 104.4320012   7.4234997 112.0979988 104.9970012   6.8764997 111.5509988
 104.2850012   6.9014997 112.8869988 104.4893380   7.2782259 112.1298695
  99.4340012   3.5594997 108.5169988  99.1170012   2.6574997 108.4809988
 100.2160012   3.5614997 107.9639988  99.4962408   3.4362474 108.4373569
 103.0590012   5.8114997 114.5119988 102.2230012   6.2654997 114.6229988
 103.5830012   6.0874997 115.2639988 103.0155416   5.9108660 114.6288119
 103.6030012  12.0244997 106.1969988 102.8580012  11.5174997 105.8749988
 103.4690012  12.0734997 107.1439988 103.4828776  11.9616940 106.2808647
 110.7530012  11.1574997 114.9839988 111.3950012  11.6144997 114.4399988
 109.9230012  11.2704997 114.5209988 110.7285963  11.2352704 114.8470177
 105.1220012  12.2084997 117.4339988 104.7770012  11.8274997 118.2409988
 104.9220012  13.1424997 117.5049988 105.0477527  12.2825135 117.5540689
 108.2190012   6.7054997 106.0569988 109.1110012   6.5684997 106.3759988
 108.2760012   7.4964997 105.5199988 108.3486504   6.7936052 106.0280818
  98.7280012  11.3194997 111.9669988  99.4730012  11.3174997 111.3659988
  98.8060012  10.4964997 112.4479988  98.8404995  11.2078887 111.9498282
 105.7290012  13.4834997 105.2229988 105.4330012  14.3094997 105.6039988
 105.0260012  12.8634997 105.4189988 105.5934914  13.5128199 105.3016443
  95.7360012   9.7804997 117.2819988  95.9590012   9.3624997 118.1139988
  95.1340012   9.1674997 116.8589988  95.6851759   9.6404668 117.3387022
 102.7520012   9.2974997 119.4949988 102.4560012   9.1314997 118.5999988
 103.6840012   9.0774997 119.4839988 102.8374166   9.2450640 119.3710536
 107.3730012  14.6704997 117.3849988 106.4720012  14.8534997 117.1169988
 107.4070012  14.9294997 118.3049988 107.2543139  14.7305849 117.4728099
 113.1040012   6.9154997 105.7519988 112.5500012   6.5194997 105.0799988
 113.2040012   7.8254997 105.4739988 113.0417059   6.9843586 105.6224401
 113.0670012  12.7154997 118.5889988 112.2160012  12.9534997 118.2219988
 113.6580012  12.6984997 117.8359988 113.0302487  12.7458258 118.4368893
 111.3990012  15.7014997 106.2169988 111.0260012  14.8754997 106.5259988
 111.6770012  15.5184997 105.3189988 111.3855222  15.5637430 106.1379473
 108.5600012  10.5094997 113.2379988 107.6310012  10.2774997 113.2109988
 109.0110012   9.7324997 112.9079988 108.4939216  10.3727238 113.1896917
 101.1030012  14.8374997 109.3709988 101.6300012  15.6104997 109.1709988
 100.2230012  15.0624997 109.0689988 101.0562031  14.9737545 109.3027912
  96.8580012   9.6994997 103.9579988  97.4740012  10.3264997 104.3379988
  95.9960012  10.0154997 104.2299988  96.8257698   9.8279430 104.0467183
 102.5300012  12.5004997 108.9469988 102.2890012  13.4254997 108.9889988
 101.7890012  12.0414997 109.3439988 102.3969225  12.5650933 109.0063742
 103.0450012  16.6494997 115.2629988 103.4070012  17.5044997 115.0289988
 103.5760012  16.3574997 116.0029988 103.1664473  16.7271060 115.3310855
 101.2130012  17.5224997 108.4929988 100.2630012  17.6274997 108.5439988
 101.5650012  18.3424997 108.8369988 101.1304195  17.6478800 108.5465502
 106.5890012  12.7484997 114.9629988 106.1630012  12.5214997 115.7899988
 107.1690012  12.0104997 114.7809988 106.6091868  12.6175299 115.0515830
 109.2470012  17.3004997 117.4329988 108.6460012  16.7454997 116.9369988
 109.5290012  17.9674997 116.8059988 109.2028804  17.3146625 117.2804849
  97.3700012   4.5334997 116.8399988  96.4770012   4.8724997 116.7719988
  97.2710012   3.6784997 117.2579988  97.2344164   4.4642588 116.8872235
 109.6580012  12.3504997 106.2639988 109.3800012  11.6224997 106.8199988
 110.5850012  12.4694997 106.4689988 109.7453124  12.2668802 106.3678845
  97.0210012  16.3384997 115.2749988  97.2380012  15.4064997 115.2439988
  97.2670012  16.6124997 116.1579988  97.0839549  16.2480636 115.3901763
  98.2730012  11.6124997 105.4509988  97.5870012  11.9644997 106.0179988
  98.7950012  12.3754997 105.2039988  98.2496852  11.7638578 105.4952118
 106.1040012   4.2744997 115.7299988 106.8030012   4.3484997 116.3799988
 105.7230012   3.4104997 115.8839988 106.1481767   4.1677624 115.8398322
 106.8890012   3.9264997 106.8269988 107.1090012   4.3984997 106.0239988
 107.4470012   4.3214997 107.4969988 106.9944968   4.0444285 106.8077331
 104.0890012   5.6544997 107.6619988 104.9010012   6.1594997 107.7079988
 103.8440012   5.5094997 108.5759988 104.1670520   5.7040375 107.7918517
 104.6240012   6.6404997 116.8459988 104.7430012   7.2144997 117.6039988
 105.2800012   5.9524997 116.9609988 104.7289025   6.6259858 116.9651321
 104.9720012   2.7354997 108.5999988 104.6260012   3.3534997 109.2439988
 105.6310012   3.2364997 108.1179988 105.0136968   2.8876278 108.6229383
 100.6300012   3.7984997 105.2869988 100.5470012   4.6874997 105.6339988
 101.5200012   3.5334997 105.5189988 100.7389469   3.8841430 105.3657626
 110.8290012   4.5474997 117.6809988 109.9120012   4.8104997 117.5939988
 111.1640012   4.5444997 116.7849988 110.7488613   4.5830761 117.5478837
 109.4310012   8.2984997 111.7769988 108.6330012   7.8834997 111.4489988
 109.8760012   7.6074997 112.2679988 109.3819885   8.1483543 111.7984889
  97.2050012   6.8904997 103.4639988  97.1600012   7.8294997 103.6419988
  96.3170012   6.6544997 103.1939988  97.0788574   6.9871892 103.4518912
 110.5170012  17.5544997 113.3999988 110.3620012  18.2324997 112.7419988
 111.4500012  17.6264997 113.6029988 110.6218657  17.6569546 113.3374360
  98.0130012   1.6724997 112.1369988  97.7840012   1.7314997 111.2089988
  97.5700012   0.8804997 112.4429988  97.9218530   1.5735753 112.0514786
  96.9430012  15.6124997 108.2969988  96.1110012  16.0854997 108.3239988
  97.4890012  16.1224997 107.6989988  96.9030352  15.7461332 108.2198463
  96.2310012  18.2254997 119.6269988  96.7720012  18.0084997 120.3869988
  95.7500012  17.4194997 119.4369988  96.2399951  18.0869270 119.7052576
 100.8290012  17.1444997 121.2469988 101.5960012  16.6854997 121.5879988
 100.8070012  16.9184997 120.3179988 100.9311275  17.0510186 121.1680101
 107.4060012  15.5244997 119.9769988 107.0550012  14.6684997 120.2199988
 108.1320012  15.6674997 120.5839988 107.4560769  15.4265636 120.0923619
 109.5250012  16.4694997 102.8559988 109.8080012  15.6754997 103.3089988
 110.2650012  16.7024997 102.2959988 109.6638006  16.3923376 102.8422715
  96.1380012  12.0354997 120.5809988  96.2820012  11.1334997 120.2949988
  95.3660012  12.3214997 120.0939988  96.0532753  11.9506816 120.4759505
 102.7940012  12.0054997 120.0139988 102.4650012  12.2764997 119.1569988
 102.9460012  11.0644997 119.9269988 102.7694809  11.9153862 119.8848244
 108.5280012  11.9214997 117.3969988 109.2740012  12.5094997 117.2779988
 107.7710012  12.5034997 117.4609988 108.5277820  12.0807143 117.3893590
  96.9710012   9.2354997 120.0009988  97.3790012   8.3784997 119.8799988
  96.7110012   9.2504997 120.9219988  96.9917568   9.1200807 120.1089588
 100.9180012   8.2444997 117.3759988 100.3000012   8.9194997 117.6559988
 101.2620012   8.5654997 116.5419988 100.8799132   8.3802411 117.3016262
 105.9380012  10.7164997 120.6529988 106.8910012  10.7994997 120.6259988
 105.7770012  10.0044997 121.2729988 106.0466426  10.6316746 120.7330579
 101.2570012   5.5994997 118.4579988 101.4070012   4.8704997 117.8559988
 101.2600012   6.3764997 117.8989988 101.2779302   5.6047851 118.3000692
 101.6700012   3.9694997 115.9509988 102.2060012   4.4204997 115.2989988
 100.8180012   3.8614997 115.5279988 101.6282178   4.0166390 115.8045756
 103.2520012   9.4084997 116.1899988 104.0020012   9.2524997 115.6169988
 102.9130012  10.2604997 115.9149988 103.3088921   9.5022968 116.0743561
 107.6670012   7.2234997 121.2189988 107.8600012   6.2924997 121.1069988
 108.5250012   7.6484997 121.2079988 107.8092934   7.1536531 121.2022031
 108.9840012  10.0124997 119.2959988 108.7030012  10.7214997 118.7179988
 109.9270012   9.9394997 119.1449988 109.0729291  10.0996711 119.1964967
  99.7360012   6.7974997 120.3699988  98.9690012   6.2654997 120.1589988
 100.4150012   6.4874997 119.7699988  99.7227877   6.6828300 120.2600716
 102.4760012   1.4254997 116.3819988 102.3770012   2.3724997 116.2769988
 101.7330012   1.0534997 115.9059988 102.3621184   1.5045863 116.3033621
 103.7400012   5.7474997 119.9459988 103.5040012   5.5274997 120.8469988
 102.9560012   5.5404997 119.4359988 103.6018504   5.6894586 120.0003431
 106.4550012   4.8744997 119.0209988 105.5080012   4.9064997 119.1539988
 106.7680012   4.2494997 119.6749988 106.3676707   4.7943998 119.1276060
 108.0890012   3.5084997 121.0269988 107.9930012   2.5564997 121.0209988
 107.7680012   3.7774997 121.8869988 108.0324070   3.4144035 121.1425441
  97.9160012   4.7184997 120.0739988  98.1280012   4.0114997 119.4639988
  97.8050012   4.2804997 120.9179988  97.9299721   4.5627084 120.1046843
 102.6970012   0.7194997 119.0529988 103.4090012   0.0794997 119.0389988
 102.5960012   0.9864997 118.1399988 102.7808066   0.6680079 118.9275677
 103.0510012   2.4024997 121.1069988 102.9190012   1.9264997 120.2869988
 102.4520012   3.1464997 121.0519988 102.9519071   2.4379618 120.9872886
  94.8150012  19.3144997 108.8439988  94.1680012  18.8524997 108.3109988
  95.1690012  18.6424997 109.4259988  94.7743849  19.1604723 108.8497959
  95.6850012  17.3954997 110.6479988  95.3500012  16.5154997 110.8199988
  95.9070012  17.7404997 111.5129988  95.6691783  17.3217500 110.7884208
 113.2330012  18.2044997 113.6289988 113.2120012  18.3894997 114.5679988
 113.9240012  18.7734997 113.2879988 113.3234618  18.3066606 113.7113864
 112.7970012  17.7724997 116.5509988 112.3090012  17.0364997 116.1789988
 113.3460012  17.3784997 117.2289988 112.8044820  17.6185889 116.5917813
 111.2470012  13.5614997 121.1889988 110.3810012  13.4564997 121.5829988
 111.6240012  14.3204997 121.6349988 111.1793308  13.6496900 121.3032393
 112.5480012  11.8184997 106.7029988 113.3980012  12.2394997 106.8299988
 112.5540012  11.0784997 107.3099988 112.6651372  11.7760803 106.8024344
 112.9430012   9.8714997 108.5259988 112.2160012   9.3924997 108.9239988
 113.5240012  10.0774997 109.2589988 112.9220473   9.8338103 108.6794528
 112.7020012  12.6564997 113.4739988 113.5350012  12.2784997 113.1939988
 112.8140012  13.5994997 113.3549988 112.8312647  12.7322218 113.4195487
 111.1880012  15.5344997 115.7809988 110.5410012  15.8594997 116.4069988
 110.6710012  15.0944997 115.1069988 111.0294029  15.5195004 115.7755827
 110.7290012   8.3924997 109.0889988 110.5790012   7.4474997 109.0689988
 110.3760012   8.6734997 109.9329988 110.6607448   8.3011481 109.2003705
  95.7650012  10.4704997 113.0999988  95.9490012  10.3884997 112.1639988
  96.6140012  10.3464997 113.5229988  95.9050151  10.4425073 113.0291451
 111.5860012  10.3624997 118.7279988 112.1690012   9.6284997 118.9199988
 112.1500012  11.1344997 118.7749988 111.7419769  10.3664227 118.7606159
 113.0820012   8.2654997 119.4129988 112.2190012   7.8864997 119.2469988
 113.6870012   7.5264997 119.3379988 113.0456119   8.1138268 119.3801528
 110.4400012   5.9754997 107.5519988 110.7200012   5.0684997 107.6759988
 111.1990012   6.4094997 107.1629988 110.5809277   5.9100942 107.5163682
 111.0520012   6.5564997 112.9879988 111.9850012   6.7684997 112.9529988
 110.8170012   6.6584997 113.9099988 111.1479244   6.5993100 113.1078892
 111.0810012   7.2934997 115.7639988 110.2380012   7.5614997 116.1299988
 111.5230012   8.1154997 115.5529988 111.0254158   7.4413291 115.7855491
  95.3620012   5.7414997 119.2409988  96.2820012   5.6194997 119.4769988
  94.9130012   4.9914997 119.6299988  95.4271580   5.6233727 119.3259006
 113.3640012   1.2734997 121.1169988 113.7140012   0.6194997 120.5119988
 113.5110012   2.1104997 120.6769988 113.4317887   1.2971548 120.9746858
 111.0530012   3.2384997 107.5999988 111.2360012   2.7894997 108.4259988
 110.4540012   2.6534997 107.1369988 110.9970202   3.0979975 107.6503275
  96.5830012   4.0534997 112.1319988  97.0290012   3.2614997 112.4339988
  97.0500012   4.7694997 112.5619988  96.7070831   4.0420685 112.2314006
  94.8870012   7.0524997 113.2009988  95.3790012   6.8314997 112.4099988
  95.2500012   7.8934997 113.4819988  95.0033126   7.1358357 113.1307531
 112.8840012   3.3824997 119.4659988 111.9660012   3.6534997 119.4309988
 113.0070012   2.8474997 118.6819988 112.7749729   3.3472508 119.3551923
  95.2010012   3.3104997 107.2549988  94.2760012   3.5194997 107.1259988
  95.6550012   3.7944997 106.5649988  95.1357292   3.4045343 107.1440720
 109.9720012  18.2944997 109.2009988 110.6240012  17.9474997 108.5929988
 110.4820012  18.7834997 109.8469988 110.1302637  18.3130597 109.2050236
  95.1650012   2.0484997 115.5989988  94.5000012   1.8024997 116.2429988
  94.7220012   2.6704997 115.0219988  95.0141318   2.0989410 115.6090898
  97.3570012  15.2234997 119.7439988  96.5360012  15.3984997 119.2829988
  97.1040012  15.1504997 120.6639988  97.2105585  15.2375544 119.8053561
 100.3110012  16.1984997 116.0019988  99.8860012  17.0074997 115.7199988
 101.2150012  16.2834997 115.6999988 100.3749975  16.3209300 115.9224816
 104.6220012  17.5974997 118.9619988 104.8070012  17.2634997 119.8399988
 105.4680012  17.9064997 118.6399988 104.7617539  17.5936047 119.0385605
 106.9670012  18.8834997 118.2059988 107.6440012  18.2504997 117.9659988
 107.2890012  19.2844997 119.0129988 107.1031637  18.8511154 118.2822793
 111.8840012   1.4724997 117.2849988 111.0720012   1.7974997 116.8979988
 112.1170012   0.7124997 116.7519988 111.8042203   1.4142758 117.1598880
  97.7130012  19.4544997 116.0499988  96.9920012  19.8944997 115.5989988
  97.3470012  19.2034997 116.8979988  97.5649651  19.4807242 116.1029640
 100.1800012  19.0544997 115.0799988  99.3150012  19.1264997 115.4839988
 100.1250012  19.6014997 114.2959988 100.0542085  19.1382685 115.0293362
 104.8900012  18.9424997 114.2549988 104.4340012  19.4714997 113.6009988
 105.0530012  19.5454997 114.9799988 104.8496068  19.0964607 114.2634838
 107.2180012  17.8204997 115.1999988 106.3130012  17.9854997 114.9339988
 107.6470012  18.6734997 115.1349988 107.1521324  17.9584339 115.1547976
 109.8220012  19.3904997 115.4949988 109.6400012  20.3064997 115.2849988
 109.9990012  18.9804997 114.6489988 109.8210210  19.4604822 115.3517885
  97.1270012  18.0774997 112.9599988  97.1090012  17.6524997 113.8169988
  97.9320012  17.7594997 112.5509988  97.2333529  17.9763013 113.0220946
  99.2690012  16.7874997 111.6149988  99.0500012  15.8714997 111.7849988
 100.0930012  16.9274997 112.0809988  99.3504420  16.6810520 111.7012774
 101.8060012  17.2574997 112.4639988 102.0190012  16.3694997 112.1769988
 101.8700012  17.2234997 113.4179988 101.8438232  17.1313102 112.5537397
 105.3140012   2.9214997 111.6079988 104.6400012   2.2924997 111.8639988
 105.8780012   2.4374997 111.0049988 105.2979230   2.7698744 111.5615340
 110.4570012   1.0294997 111.7209988 111.0610012   1.5764997 111.2189988
 109.5870012   1.3484997 111.4799988 110.4221208   1.1475137 111.6196886
 112.1840012   2.1674997 110.0539988 112.7960012   1.6534997 109.5269988
 112.5660012   3.0454997 110.0769988 112.3193371   2.2157866 109.9850041
  97.6410012   1.5554997 109.4299988  96.8640012   1.3214997 108.9229988
  98.1710012   0.7584997 109.4389988  97.6062330   1.4156988 109.3617742
  96.4770012   1.3534997 105.2339988  96.9160012   1.9644997 104.6419988
  95.8440012   1.8914997 105.7079988  96.4514514   1.5099257 105.2170930
 102.2200012   1.4824997 109.2439988 103.0950012   1.8704997 109.2139988
 102.0840012   1.2674997 110.1659988 102.3213695   1.5065184 109.3646440
 107.7770012   1.5124997 110.8929988 107.8530012   1.6074997 109.9429988
 107.5020012   0.6044997 111.0219988 107.7502321   1.4027867 110.7805079
  96.3780012  17.3014997 106.1309988  95.6930012  17.2634997 105.4639988
  96.3820012  18.2144997 106.4199988  96.2846998  17.4196733 106.0786771
 103.3640012   3.5624997 106.1329988 103.5420012   2.9164997 106.8159988
 103.3110012   4.3964997 106.5999988 103.3811999   3.5868009 106.2895917
 105.2430012  18.5114997 104.5289988 106.1090012  18.8774997 104.3509988
 104.9960012  18.0714997 103.7149988 105.3282392  18.5021756 104.3946289
 111.9520012  18.0744997 107.2079988 111.7570012  17.3264997 106.6429988
 111.9130012  18.8324997 106.6249988 111.9200380  18.0746099 107.0518384
  97.5990012   2.0694997 118.9479988  97.2330012   1.3044997 119.3899988
  98.5120012   2.0984997 119.2339988  97.6722736   1.9685640 119.0472502
  99.5720012   1.4204997 120.4839988 100.4700012   1.1464997 120.2989988
  99.1850012   0.6774997 120.9479988  99.6426612   1.2825914 120.5213643
  98.1960012  18.2214997 103.1569988  97.9290012  18.5084997 104.0299988
  98.9680012  17.6754997 103.3089988  98.2637488  18.1870294 103.2971050
 107.9930012   0.7524997 120.6659988 108.0700012   0.3264997 121.5199988
 108.8870012   0.7664997 120.3229988 108.1243428   0.6960879 120.7365310
 111.1690012  16.8254997 119.3579988 110.3870012  16.6394997 118.8379988
 111.0970012  17.7544997 119.5759988 111.0522274  16.9256643 119.3163018
 125.5750012  10.7114997 109.3889988 125.6640012  11.6554997 109.2569988
 124.9370012  10.4364997 108.7309988 125.5009081  10.8034830 109.2819614
 124.5080012   9.9664997 112.8079988 124.4700012   9.3204997 113.5129988
 124.1860012   9.5004997 112.0369988 124.4592333   9.8149408 112.8002978
 116.8770012   9.5814997 114.4009988 116.9180012   8.9554997 115.1239988
 117.5800012  10.2054997 114.5829988 116.9776363   9.5801196 114.5246044
 128.2140012  12.9054997 111.1089988 127.7740012  12.1854997 111.5599988
 128.2010012  13.6264997 111.7389988 128.1520226  12.9043731 111.2558494
 117.8000012  14.0314997 112.9359988 117.4310012  13.2294997 112.5659988
 118.7410012  13.8624997 112.9819988 117.8767289  13.8990153 112.8916316
 114.4100012   7.6914997 108.3289988 113.9630012   8.5374997 108.3099988
 113.8490012   7.1114997 107.8129988 114.2729900   7.7289916 108.2566801
 115.1210012   9.8534997 110.4539988 115.3340012   9.0834997 110.9819988
 115.8590012   9.9424997 109.8509988 115.2499044   9.7601968 110.4447123
 125.3260012  18.0104997 111.3209988 125.9460012  17.3334997 111.0479988
 125.1180012  17.7924997 112.2299988 125.3826726  17.8884800 111.4064812
 122.8980012  12.3994997 113.2139988 123.2020012  11.7134997 112.6189988
 123.6190012  12.5174997 113.8319988 123.0370671  12.3216305 113.2161816
 131.5610012   4.0004997 114.0749988 131.6100012   4.6104997 114.8099988
 131.9860012   4.4614997 113.3519988 131.6251746   4.1463796 114.0779175
 126.0390012   6.7934997 113.5409988 126.1810012   5.8474997 113.5619988
 125.9320012   7.0004997 112.6129988 126.0439919   6.6918246 113.4183408
 119.1930012   4.8944997 110.8139988 119.2370012   5.7544997 110.3949988
 118.7360012   4.3424997 110.1799988 119.1372240   4.9374422 110.6709864
 126.9160012   5.0254997 109.2149988 127.5620012   4.6964997 109.8389988
 127.4260012   5.5434997 108.5919988 127.0734299   5.0504450 109.2162731
 115.8140012   7.2914997 111.5759988 116.4670012   6.7414997 112.0079988
 115.8380012   7.0174997 110.6589988 115.9066683   7.1791466 111.5112123
 120.9700012   8.8414997 110.7909988 121.5860012   8.3154997 111.3009988
 120.3840012   8.2014997 110.3879988 120.9750810   8.6829208 110.8063173
 131.9520012   5.4784997 116.3099988 131.2640012   6.1364997 116.2149988
 131.9680012   5.2814997 117.2469988 131.8599540   5.5419819 116.4235990
 118.0040012   3.8124997 114.8879988 117.7850012   4.3424997 114.1219988
 117.3360012   4.0394997 115.5349988 117.8837600   3.9156906 114.8706379
 125.3730012  13.3124997 108.4319988 125.0770012  12.9904997 107.5809988
 125.0480012  14.2124997 108.4729988 125.2886371  13.3900215 108.3211801
 120.5730012  11.4884997 115.1749988 119.8330012  12.0864997 115.2789988
 121.2870012  12.0424997 114.8599988 120.5682237  11.6452831 115.1466465
 128.6800012   4.3164997 111.1949988 128.4640012   3.5504997 111.7279988
 129.3350012   4.7884997 111.7079988 128.7390632   4.2755889 111.3372861
 117.5970012   5.7044997 112.8399988 118.2110012   6.3374997 113.2129988
 118.1090012   5.2324997 112.1839988 117.7501981   5.7272267 112.8022908
 118.9800012  13.4524997 115.9619988 118.9750012  14.3324997 115.5839988
 118.1270012  13.3694997 116.3869988 118.8639464  13.5616117 115.9677907
 115.1010012  13.1234997 106.7439988 114.8290012  13.3524997 105.8559988
 115.1470012  13.9614997 107.2049988 115.0699482  13.2681318 106.6846273
 128.7260012  14.7454997 113.4569988 127.7850012  14.8034997 113.6189988
 129.0030012  15.6514997 113.3199988 128.6344679  14.8759443 113.4606815
 129.0270012   3.0314997 114.8749988 128.2910012   3.6424997 114.8369988
 129.7100012   3.4464997 114.3479988 129.0186541   3.1711374 114.7985832
 122.0300012   1.1184997 112.3399988 121.9130012   0.1694997 112.2859988
 121.1750012   1.4504997 112.6139988 121.8984212   1.0335571 112.3696497
 126.9780012  16.5264997 110.0819988 127.4040012  15.8194997 109.5969988
 127.2950012  17.3274997 109.6659988 127.0791683  16.5381017 109.9593680
 128.1380012  14.4274997 108.5909988 127.8800012  13.7374997 107.9799988
 128.2090012  13.9844997 109.4369988 128.1122856  14.2732124 108.6216885
 129.8240012  12.9934997 117.0679988 129.9640012  12.4024997 116.3289988
 129.9910012  13.8664997 116.7119988 129.8657411  13.0305428 116.9186894
 124.2970012   9.9554997 106.8409988 123.5850012  10.4904997 106.4889988
 124.9880012  10.0114997 106.1809988 124.2930132  10.0362543 106.7036289
 124.3500012   8.4134997 103.8799988 125.0510012   8.4354997 104.5309988
 124.6530012   7.7854997 103.2229988 124.4868133   8.3317070 103.8803369
 131.6660012   9.3334997 115.1339988 131.0130012  10.0284997 115.2239988
 132.1310012   9.5434997 114.3249988 131.6395274   9.4570643 115.0368462
 127.7020012  10.1654997 107.7929988 126.9700012  10.3934997 108.3659988
 128.1500012   9.4514997 108.2469988 127.6622725  10.1002145 107.9328816
 127.6000012   8.3394997 116.8599988 127.6800012   9.1024997 117.4319988
 126.9980012   8.6184997 116.1699988 127.5295756   8.4817134 116.8450589
 119.3480012  10.7954997 109.6749988 119.0170012  10.4254997 108.8569988
 119.9360012  10.1254997 110.0219988 119.3821873  10.6541156 109.6098102
 120.7140012  14.2234997 112.3559988 120.6200012  13.6454997 111.5999988
 121.4440012  13.8524997 112.8529988 120.7997387  14.0941663 112.3195342
 119.7140012   9.5644997 113.3089988 120.2800012   9.6854997 112.5459988
 120.0330012  10.2014997 113.9469988 119.8345474   9.6672219 113.2909862
 126.0230012  15.0674997 114.0429988 125.7830012  15.7294997 114.6909988
 125.8250012  14.2334997 114.4679988 125.9633808  15.0453134 114.1891524
 120.5940012  13.9634997 118.0259988 120.2830012  14.7454997 118.4809988
 119.9440012  13.8104997 117.3399988 120.4635558  14.0499105 117.9955871
 126.5730012   9.3274997 105.4779988 127.1530012   9.4774997 106.2249988
 126.9870012   9.7984997 104.7539988 126.7082997   9.4116578 105.4824058
 117.5140012  10.1614997 117.2539988 117.5850012  10.8124997 117.9529988
 116.6240012  10.2644997 116.9189988 117.4033005  10.2645427 117.3043495
 124.3000012  16.0644997 108.9129988 124.7740012  16.3594997 109.6899988
 123.7370012  16.8024997 108.6799988 124.2888184  16.2047247 108.9879628
 118.8340012  16.0354997 118.7889988 118.8410012  15.8994997 117.8419988
 117.9180012  15.9174997 119.0409988 118.7111714  16.0009430 118.6934666
 130.2720012   1.0774997 105.2909988 129.3720012   1.2164997 105.5859988
 130.5240012   1.9084997 104.8889988 130.1828702   1.2089074 105.2770205
 118.3380012   9.8654997 107.2639988 118.0460012  10.6334997 106.7739988
 117.6640012   9.2054997 107.1019988 118.2068111   9.8815587 107.1748978
 114.4310012  12.2284997 116.0789988 113.9300012  12.2004997 115.2639988
 114.4360012  11.3224997 116.3889988 114.3630944  12.1022396 116.0093226
 114.1810012  15.0084997 112.9629988 115.1270012  14.8644997 112.9439988
 114.0690012  15.7924997 113.4999988 114.2952727  15.0948046 113.0330072
 132.3790012  15.6744997 118.6459988 132.3300012  14.7194997 118.6089988
 131.5520012  15.9424997 119.0469988 132.2604940  15.5798998 118.6951375
 123.3580012  15.2484997 117.5219988 123.4450012  16.0744997 117.9969988
 122.4940012  14.9184997 117.7709988 123.2531964  15.3169878 117.6206549
 123.7720012  19.0204997 107.3279988 123.6970012  18.8994997 106.3809988
 123.8050012  19.9704997 107.4459988 123.7662068  19.1322646 107.2144967
 117.4250012  17.8094997 109.1089988 117.5780012  17.4614997 109.9869988
 116.5750012  17.4534997 108.8539988 117.3309166  17.7136216 109.1948079
 126.5430012  18.1004997 107.0789988 125.6070012  18.2004997 107.2579988
 126.8230012  17.3914997 107.6579988 126.4529553  18.0183406 107.1817087
 129.5310012   7.1674997 119.1259988 129.1240012   7.6484997 118.4049988
 129.5720012   6.2624997 118.8179988 129.4808437   7.1109374 118.9856683
 116.6800012  13.5514997 117.1229988 116.8960012  13.1904997 117.9819988
 115.8250012  13.1774997 116.9129988 116.5939292  13.4514111 117.2123386
 119.2990012   2.0214997 113.1179988 118.4370012   1.9344997 112.7099988
 119.2760012   2.8774997 113.5459988 119.1780409   2.1252883 113.1200589
 123.9620012   1.7434997 116.4929988 124.3820012   1.3284997 117.2459988
 123.0290012   1.5654997 116.6099988 123.8933644   1.6625900 116.6119539
 127.2880012   5.4994997 117.3459988 126.7740012   5.3734997 118.1439988
 127.1330012   6.4114997 117.1019988 127.1966852   5.6056132 117.4222158
 119.3900012   6.9874997 114.2129988 118.7480012   6.9464997 114.9219988
 119.4270012   7.9134997 113.9749988 119.3070664   7.1071430 114.2779219
 119.3870012   7.2084997 109.1249988 118.4940012   6.8674997 109.0659988
 119.8370012   6.8314997 108.3689988 119.3258130   7.1109631 109.0147702
 124.9220012   7.6244997 107.9419988 124.5130012   8.4394997 107.6509988
 125.6430012   7.4844997 107.3279988 124.9634537   7.7172018 107.8191342
 124.0240012   7.7994997 119.4299988 123.4620012   7.0954997 119.7509988
 124.8510012   7.6794997 119.8979988 124.0587095   7.6867883 119.5372330
 125.9270012   7.0704997 110.7559988 125.7320012   7.6754997 110.0409988
 126.1080012   6.2364997 110.3219988 125.9247614   7.0406300 110.5994405
 117.1400012   7.3074997 116.0799988 117.1020012   7.7074997 116.9489988
 116.6490012   6.4904997 116.1709988 117.0684684   7.2518069 116.2111059
 120.5060012   4.6814997 102.8789988 120.0750012   4.2364997 103.6089988
 119.7880012   5.0534997 102.3669988 120.3499438   4.6708940 102.9096799
 113.7480012   4.4234997 109.9309988 114.3790012   4.3944997 110.6499988
 114.1970012   3.9984997 109.1999988 113.8950918   4.3620836 109.9306441
 115.0220012   5.1694997 105.3549988 115.4960012   5.7604997 104.7699988
 114.3050012   5.7004997 105.7019988 114.9899341   5.3220867 105.3218836
 125.1910012   8.7084997 115.4269988 125.5140012   8.0774997 114.7839988
 124.7510012   8.1734997 116.0879988 125.1757484   8.5498387 115.4283198
 121.9680012   4.6354997 110.2109988 121.0570012   4.6924997 110.4999988
 122.4740012   4.5754997 111.0219988 121.9116899   4.6351941 110.3601184
 116.7970012   6.2644997 109.0379988 115.9070012   6.3644997 108.6979988
 117.0930012   5.4224997 108.6919988 116.7152823   6.1643545 108.9447213
 120.4500012   6.2644997 106.6949988 121.3810012   6.3934997 106.8729988
 120.2350012   6.9344997 106.0449988 120.5484247   6.3726565 106.6315747
 126.3730012   3.8704997 113.4759988 125.6970012   4.0014997 114.1399988
 125.8880012   3.7154997 112.6649988 126.2147146   3.8675157 113.4574469
 129.6610012  19.5424997 119.7519988 129.8610012  19.9664997 118.9179988
 130.3160012  19.8854997 120.3589988 129.7770072  19.6469857 119.7198592
 117.2590012  12.0164997 119.3599988 117.9910012  12.2704997 119.9219988
 116.4790012  12.2204997 119.8759988 117.2537073  12.0788160 119.5066151
 123.2880012   7.4234997 112.0979988 123.8530012   6.8764997 111.5509988
 123.1410012   6.9014997 112.8869988 123.3453380   7.2782259 112.1298695
 118.2900012   3.5594997 108.5169988 117.9730012   2.6574997 108.4809988
 119.0720012   3.5614997 107.9639988 118.3522408   3.4362474 108.4373569
 121.9150012   5.8114997 114.5119988 121.0790012   6.2654997 114.6229988
 122.4390012   6.0874997 115.2639988 121.8715416   5.9108660 114.6288119
 129.6090012  11.1574997 114.9839988 130.2510012  11.6144997 114.4399988
 128.7790012  11.2704997 114.5209988 129.5845963  11.2352704 114.8470177
 123.9780012  12.2084997 117.4339988 123.6330012  11.8274997 118.2409988
 123.7780012  13.1424997 117.5049988 123.9037527  12.2825135 117.5540689
 127.0750012   6.7054997 106.0569988 127.9670012   6.5684997 106.3759988
 127.1320012   7.4964997 105.5199988 127.2046504   6.7936052 106.0280818
 117.5840012  11.3194997 111.9669988 118.3290012  11.3174997 111.3659988
 117.6620012  10.4964997 112.4479988 117.6964995  11.2078887 111.9498282
 114.5920012   9.7804997 117.2819988 114.8150012   9.3624997 118.1139988
 113.9900012   9.1674997 116.8589988 114.5411759   9.6404668 117.3387022
 121.6080012   9.2974997 119.4949988 121.3120012   9.1314997 118.5999988
 122.5400012   9.0774997 119.4839988 121.6934166   9.2450640 119.3710536
 126.2290012  14.6704997 117.3849988 125.3280012  14.8534997 117.1169988
 126.2630012  14.9294997 118.3049988 126.1103139  14.7305849 117.4728099
 131.9600012   6.9154997 105.7519988 131.4060012   6.5194997 105.0799988
 132.0600012   7.8254997 105.4739988 131.8977059   6.9843586 105.6224401
 131.9230012  12.7154997 118.5889988 131.0720012  12.9534997 118.2219988
 132.5140012  12.6984997 117.8359988 131.8862487  12.7458258 118.4368893
 130.2550012  15.7014997 106.2169988 129.8820012  14.8754997 106.5259988
 130.5330012  15.5184997 105.3189988 130.2415222  15.5637430 106.1379473
 127.4160012  10.5094997 113.2379988 126.4870012  10.2774997 113.2109988
 127.8670012   9.7324997 112.9079988 127.3499216  10.3727238 113.1896917
 119.9590012  14.8374997 109.3709988 120.4860012  15.6104997 109.1709988
 119.0790012  15.0624997 109.0689988 119.9122031  14.9737545 109.3027912
 121.3860012  12.5004997 108.9469988 121.1450012  13.4254997 108.9889988
 120.6450012  12.0414997 109.3439988 121.2529225  12.5650933 109.0063742
 121.9010012  16.6494997 115.2629988 122.2630012  17.5044997 115.0289988
 122.4320012  16.3574997 116.0029988 122.0224473  16.7271060 115.3310855
 120.0690012  17.5224997 108.4929988 119.1190012  17.6274997 108.5439988
 120.4210012  18.3424997 108.8369988 119.9864195  17.6478800 108.5465502
 125.4450012  12.7484997 114.9629988 125.0190012  12.5214997 115.7899988
 126.0250012  12.0104997 114.7809988 125.4651868  12.6175299 115.0515830
 127.6480012  13.6774997 104.0369988 128.0010012  13.2974997 104.8409988
 126.6990012  13.5844997 104.1239988 127.5680918  13.6128956 104.1588532
 128.1030012  17.3004997 117.4329988 127.5020012  16.7454997 116.9369988
 128.3850012  17.9674997 116.8059988 128.0588804  17.3146625 117.2804849
 116.2260012   4.5334997 116.8399988 115.3330012   4.8724997 116.7719988
 116.1270012   3.6784997 117.2579988 116.0904164   4.4642588 116.8872235
 128.5140012  12.3504997 106.2639988 128.2360012  11.6224997 106.8199988
 129.4410012  12.4694997 106.4689988 128.6013124  12.2668802 106.3678845
 115.8770012  16.3384997 115.2749988 116.0940012  15.4064997 115.2439988
 116.1230012  16.6124997 116.1579988 115.9399549  16.2480636 115.3901763
 117.1290012  11.6124997 105.4509988 116.4430012  11.9644997 106.0179988
 117.6510012  12.3754997 105.2039988 117.1056852  11.7638578 105.4952118
 124.9600012   4.2744997 115.7299988 125.6590012   4.3484997 116.3799988
 124.5790012   3.4104997 115.8839988 125.0041767   4.1677624 115.8398322
 123.4130012  16.0574997 105.6899988 122.5970012  16.5544997 105.7419988
 123.9430012  16.5324997 105.0499988 123.3729161  16.1897722 105.6105956
 122.9450012   5.6544997 107.6619988 123.7570012   6.1594997 107.7079988
 122.7000012   5.5094997 108.5759988 123.0230520   5.7040375 107.7918517
 123.4800012   6.6404997 116.8459988 123.5990012   7.2144997 117.6039988
 124.1360012   5.9524997 116.9609988 123.5849025   6.6259858 116.9651321
 123.8280012   2.7354997 108.5999988 123.4820012   3.3534997 109.2439988
 124.4870012   3.2364997 108.1179988 123.8696968   2.8876278 108.6229383
 120.7520012  17.1014997 105.6709988 120.9120012  17.9004997 105.1709988
 120.5540012  17.4074997 106.5559988 120.7471637  17.2524020 105.7221144
 119.4860012   3.7984997 105.2869988 119.4030012   4.6874997 105.6339988
 120.3760012   3.5334997 105.5189988 119.5949469   3.8841430 105.3657626
 129.6850012   4.5474997 117.6809988 128.7680012   4.8104997 117.5939988
 130.0200012   4.5444997 116.7849988 129.6048613   4.5830761 117.5478837
 128.2870012   8.2984997 111.7769988 127.4890012   7.8834997 111.4489988
 128.7320012   7.6074997 112.2679988 128.2379885   8.1483543 111.7984889
 129.3730012  17.5544997 113.3999988 129.2180012  18.2324997 112.7419988
 130.3060012  17.6264997 113.6029988 129.4778657  17.6569546 113.3374360
 116.8690012   1.6724997 112.1369988 116.6400012   1.7314997 111.2089988
 116.4260012   0.8804997 112.4429988 116.7778530   1.5735753 112.0514786
 115.7990012  15.6124997 108.2969988 114.9670012  16.0854997 108.3239988
 116.3450012  16.1224997 107.6989988 115.7590352  15.7461332 108.2198463
 115.0870012  18.2254997 119.6269988 115.6280012  18.0084997 120.3869988
 114.6060012  17.4194997 119.4369988 115.0959951  18.0869270 119.7052576
 119.6850012  17.1444997 121.2469988 120.4520012  16.6854997 121.5879988
 119.6630012  16.9184997 120.3179988 119.7871275  17.0510186 121.1680101
 126.2620012  15.5244997 119.9769988 125.9110012  14.6684997 120.2199988
 126.9880012  15.6674997 120.5839988 126.3120769  15.4265636 120.0923619
 128.3810012  16.4694997 102.8559988 128.6640012  15.6754997 103.3089988
 129.1210012  16.7024997 102.2959988 128.5198006  16.3923376 102.8422715
 114.9940012  12.0354997 120.5809988 115.1380012  11.1334997 120.2949988
 114.2220012  12.3214997 120.0939988 114.9092753  11.9506816 120.4759505
 119.3360012  12.3794997 102.7139988 119.4000012  11.5854997 103.2449988
 119.9890012  12.2604997 102.0239988 119.4330241  12.2547148 102.6934317
 121.6500012  12.0054997 120.0139988 121.3210012  12.2764997 119.1569988
 121.8020012  11.0644997 119.9269988 121.6254809  11.9153862 119.8848244
 127.3840012  11.9214997 117.3969988 128.1300012  12.5094997 117.2779988
 126.6270012  12.5034997 117.4609988 127.3837820  12.0807143 117.3893590
 115.8270012   9.2354997 120.0009988 116.2350012   8.3784997 119.8799988
 115.5670012   9.2504997 120.9219988 115.8477568   9.1200807 120.1089588
 119.7740012   8.2444997 117.3759988 119.1560012   8.9194997 117.6559988
 120.1180012   8.5654997 116.5419988 119.7359132   8.3802411 117.3016262
 124.7940012  10.7164997 120.6529988 125.7470012  10.7994997 120.6259988
 124.6330012  10.0044997 121.2729988 124.9026426  10.6316746 120.7330579
 120.1130012   5.5994997 118.4579988 120.2630012   4.8704997 117.8559988
 120.1160012   6.3764997 117.8989988 120.1339302   5.6047851 118.3000692
 120.5260012   3.9694997 115.9509988 121.0620012   4.4204997 115.2989988
 119.6740012   3.8614997 115.5279988 120.4842178   4.0166390 115.8045756
 122.1080012   9.4084997 116.1899988 122.8580012   9.2524997 115.6169988
 121.7690012  10.2604997 115.9149988 122.1648921   9.5022968 116.0743561
 126.5230012   7.2234997 121.2189988 126.7160012   6.2924997 121.1069988
 127.3810012   7.6484997 121.2079988 126.6652934   7.1536531 121.2022031
 127.8400012  10.0124997 119.2959988 127.5590012  10.7214997 118.7179988
 128.7830012   9.9394997 119.1449988 127.9289291  10.0996711 119.1964967
 118.5920012   6.7974997 120.3699988 117.8250012   6.2654997 120.1589988
 119.2710012   6.4874997 119.7699988 118.5787877   6.6828300 120.2600716
 121.3320012   1.4254997 116.3819988 121.2330012   2.3724997 116.2769988
 120.5890012   1.0534997 115.9059988 121.2181184   1.5045863 116.3033621
 122.5960012   5.7474997 119.9459988 122.3600012   5.5274997 120.8469988
 121.8120012   5.5404997 119.4359988 122.4578504   5.6894586 120.0003431
 125.3110012   4.8744997 119.0209988 124.3640012   4.9064997 119.1539988
 125.6240012   4.2494997 119.6749988 125.2236707   4.7943998 119.1276060
 126.9450012   3.5084997 121.0269988 126.8490012   2.5564997 121.0209988
 126.6240012   3.7774997 121.8869988 126.8884070   3.4144035 121.1425441
 116.7720012   4.7184997 120.0739988 116.9840012   4.0114997 119.4639988
 116.6610012   4.2804997 120.9179988 116.7859721   4.5627084 120.1046843
 121.5530012   0.7194997 119.0529988 122.2650012   0.0794997 119.0389988
 121.4520012   0.9864997 118.1399988 121.6368066   0.6680079 118.9275677
 121.9070012   2.4024997 121.1069988 121.7750012   1.9264997 120.2869988
 121.3080012   3.1464997 121.0519988 121.8079071   2.4379618 120.9872886
 121.4530012  19.2854997 104.2829988 122.3860012  19.4434997 104.4269988
 121.1890012  19.9604997 103.6589988 121.5449888  19.3984510 104.2182842
 113.6710012  19.3144997 108.8439988 113.0240012  18.8524997 108.3109988
 114.0250012  18.6424997 109.4259988 113.6303849  19.1604723 108.8497959
 114.5410012  17.3954997 110.6479988 114.2060012  16.5154997 110.8199988
 114.7630012  17.7404997 111.5129988 114.5251783  17.3217500 110.7884208
 132.0890012  18.2044997 113.6289988 132.0680012  18.3894997 114.5679988
 132.7800012  18.7734997 113.2879988 132.1794618  18.3066606 113.7113864
 131.6530012  17.7724997 116.5509988 131.1650012  17.0364997 116.1789988
 132.2020012  17.3784997 117.2289988 131.6604820  17.6185889 116.5917813
 130.1030012  13.5614997 121.1889988 129.2370012  13.4564997 121.5829988
 130.4800012  14.3204997 121.6349988 130.0353308  13.6496900 121.3032393
 131.4040012  11.8184997 106.7029988 132.2540012  12.2394997 106.8299988
 131.4100012  11.0784997 107.3099988 131.5211372  11.7760803 106.8024344
 131.7990012   9.8714997 108.5259988 131.0720012   9.3924997 108.9239988
 132.3800012  10.0774997 109.2589988 131.7780473   9.8338103 108.6794528
 131.5580012  12.6564997 113.4739988 132.3910012  12.2784997 113.1939988
 131.6700012  13.5994997 113.3549988 131.6872647  12.7322218 113.4195487
 130.0440012  15.5344997 115.7809988 129.3970012  15.8594997 116.4069988
 129.5270012  15.0944997 115.1069988 129.8854029  15.5195004 115.7755827
 132.0670012   9.7724997 104.9179988 131.5450012  10.1294997 104.1989988
 132.0340012  10.4474997 105.5959988 131.9911634   9.9125413 104.9113145
 129.5850012   8.3924997 109.0889988 129.4350012   7.4474997 109.0689988
 129.2320012   8.6734997 109.9329988 129.5167448   8.3011481 109.2003705
 114.6210012  10.4704997 113.0999988 114.8050012  10.3884997 112.1639988
 115.4700012  10.3464997 113.5229988 114.7610151  10.4425073 113.0291451
 130.4420012  10.3624997 118.7279988 131.0250012   9.6284997 118.9199988
 131.0060012  11.1344997 118.7749988 130.5979769  10.3664227 118.7606159
 131.9380012   8.2654997 119.4129988 131.0750012   7.8864997 119.2469988
 132.5430012   7.5264997 119.3379988 131.9016119   8.1138268 119.3801528
 129.6630012   4.4204997 102.5859988 130.2740012   4.0494997 103.2229988
 128.8270012   3.9994997 102.7819988 129.6335032   4.3127554 102.6997035
 129.2960012   5.9754997 107.5519988 129.5760012   5.0684997 107.6759988
 130.0550012   6.4094997 107.1629988 129.4369277   5.9100942 107.5163682
 129.9080012   6.5564997 112.9879988 130.8410012   6.7684997 112.9529988
 129.6730012   6.6584997 113.9099988 130.0039244   6.5993100 113.1078892
 129.9370012   7.2934997 115.7639988 129.0940012   7.5614997 116.1299988
 130.3790012   8.1154997 115.5529988 129.8814158   7.4413291 115.7855491
 114.2180012   5.7414997 119.2409988 115.1380012   5.6194997 119.4769988
 113.7690012   4.9914997 119.6299988 114.2831580   5.6233727 119.3259006
 132.2200012   1.2734997 121.1169988 132.5700012   0.6194997 120.5119988
 132.3670012   2.1104997 120.6769988 132.2877887   1.2971548 120.9746858
 129.9090012   3.2384997 107.5999988 130.0920012   2.7894997 108.4259988
 129.3100012   2.6534997 107.1369988 129.8530202   3.0979975 107.6503275
 115.4390012   4.0534997 112.1319988 115.8850012   3.2614997 112.4339988
 115.9060012   4.7694997 112.5619988 115.5630831   4.0420685 112.2314006
 113.7430012   7.0524997 113.2009988 114.2350012   6.8314997 112.4099988
 114.1060012   7.8934997 113.4819988 113.8593126   7.1358357 113.1307531
 131.7400012   3.3824997 119.4659988 130.8220012   3.6534997 119.4309988
 131.8630012   2.8474997 118.6819988 131.6309729   3.3472508 119.3551923
 131.7760012   3.3054997 104.1279988 132.1880012   2.5844997 103.6529988
 132.4580012   3.9754997 104.1869988 131.9245885   3.2972368 104.0708915
 114.0570012   3.3104997 107.2549988 113.1320012   3.5194997 107.1259988
 114.5110012   3.7944997 106.5649988 113.9917292   3.4045343 107.1440720
 128.8280012  18.2944997 109.2009988 129.4800012  17.9474997 108.5929988
 129.3380012  18.7834997 109.8469988 128.9862637  18.3130597 109.2050236
 114.0210012   2.0484997 115.5989988 113.3560012   1.8024997 116.2429988
 113.5780012   2.6704997 115.0219988 113.8701318   2.0989410 115.6090898
 116.2130012  15.2234997 119.7439988 115.3920012  15.3984997 119.2829988
 115.9600012  15.1504997 120.6639988 116.0665585  15.2375544 119.8053561
 119.1670012  16.1984997 116.0019988 118.7420012  17.0074997 115.7199988
 120.0710012  16.2834997 115.6999988 119.2309975  16.3209300 115.9224816
 123.4780012  17.5974997 118.9619988 123.6630012  17.2634997 119.8399988
 124.3240012  17.9064997 118.6399988 123.6177539  17.5936047 119.0385605
 125.8230012  18.8834997 118.2059988 126.5000012  18.2504997 117.9659988
 126.1450012  19.2844997 119.0129988 125.9591637  18.8511154 118.2822793
 130.7400012   1.4724997 117.2849988 129.9280012   1.7974997 116.8979988
 130.9730012   0.7124997 116.7519988 130.6602203   1.4142758 117.1598880
 116.5690012  19.4544997 116.0499988 115.8480012  19.8944997 115.5989988
 116.2030012  19.2034997 116.8979988 116.4209651  19.4807242 116.1029640
 119.0360012  19.0544997 115.0799988 118.1710012  19.1264997 115.4839988
 118.9810012  19.6014997 114.2959988 118.9102085  19.1382685 115.0293362
 123.7460012  18.9424997 114.2549988 123.2900012  19.4714997 113.6009988
 123.9090012  19.5454997 114.9799988 123.7056068  19.0964607 114.2634838
 126.0740012  17.8204997 115.1999988 125.1690012  17.9854997 114.9339988
 126.5030012  18.6734997 115.1349988 126.0081324  17.9584339 115.1547976
 128.6780012  19.3904997 115.4949988 128.4960012  20.3064997 115.2849988
 128.8550012  18.9804997 114.6489988 128.6770210  19.4604822 115.3517885
 115.9830012  18.0774997 112.9599988 115.9650012  17.6524997 113.8169988
 116.7880012  17.7594997 112.5509988 116.0893529  17.9763013 113.0220946
 118.1250012  16.7874997 111.6149988 117.9060012  15.8714997 111.7849988
 118.9490012  16.9274997 112.0809988 118.2064420  16.6810520 111.7012774
 120.6620012  17.2574997 112.4639988 120.8750012  16.3694997 112.1769988
 120.7260012  17.2234997 113.4179988 120.6998232  17.1313102 112.5537397
 124.1700012   2.9214997 111.6079988 123.4960012   2.2924997 111.8639988
 124.7340012   2.4374997 111.0049988 124.1539230   2.7698744 111.5615340
 129.3130012   1.0294997 111.7209988 129.9170012   1.5764997 111.2189988
 128.4430012   1.3484997 111.4799988 129.2781208   1.1475137 111.6196886
 131.0400012   2.1674997 110.0539988 131.6520012   1.6534997 109.5269988
 131.4220012   3.0454997 110.0769988 131.1753371   2.2157866 109.9850041
 116.4970012   1.5554997 109.4299988 115.7200012   1.3214997 108.9229988
 117.0270012   0.7584997 109.4389988 116.4622330   1.4156988 109.3617742
 115.3330012   1.3534997 105.2339988 115.7720012   1.9644997 104.6419988
 114.7000012   1.8914997 105.7079988 115.3074514   1.5099257 105.2170930
 121.0760012   1.4824997 109.2439988 121.9510012   1.8704997 109.2139988
 120.9400012   1.2674997 110.1659988 121.1773695   1.5065184 109.3646440
 126.6330012   1.5124997 110.8929988 126.7090012   1.6074997 109.9429988
 126.3580012   0.6044997 111.0219988 126.6062321   1.4027867 110.7805079
 127.9860012   1.5384997 106.5849988 127.2840012   2.1534997 106.3749988
 127.5420012   0.7004997 106.7159988 127.8296450   1.5095639 106.5739000
 117.1940012   3.2694997 103.6759988 117.6860012   2.6394997 103.1489988
 117.8180012   3.5654997 104.3389988 117.3455688   3.2233804 103.6935482
 122.2200012   3.5624997 106.1329988 122.3980012   2.9164997 106.8159988
 122.1670012   4.3964997 106.5999988 122.2371999   3.5868009 106.2895917
 130.8080012  18.0744997 107.2079988 130.6130012  17.3264997 106.6429988
 130.7690012  18.8324997 106.6249988 130.7760380  18.0746099 107.0518384
 116.4550012   2.0694997 118.9479988 116.0890012   1.3044997 119.3899988
 117.3680012   2.0984997 119.2339988 116.5282736   1.9685640 119.0472502
 118.4280012   1.4204997 120.4839988 119.3260012   1.1464997 120.2989988
 118.0410012   0.6774997 120.9479988 118.4986612   1.2825914 120.5213643
 126.8490012   0.7524997 120.6659988 126.9260012   0.3264997 121.5199988
 127.7430012   0.7664997 120.3229988 126.9803428   0.6960879 120.7365310
 130.0250012  16.8254997 119.3579988 129.2430012  16.6394997 118.8379988
 129.9530012  17.7544997 119.5759988 129.9082274  16.9256643 119.3163018
 144.4310012  10.7114997 109.3889988 144.5200012  11.6554997 109.2569988
 143.7930012  10.4364997 108.7309988 144.3569081  10.8034830 109.2819614
 143.3640012   9.9664997 112.8079988 143.3260012   9.3204997 113.5129988
 143.0420012   9.5004997 112.0369988 143.3152333   9.8149408 112.8002978
 135.7330012   9.5814997 114.4009988 135.7740012   8.9554997 115.1239988
 136.4360012  10.2054997 114.5829988 135.8336363   9.5801196 114.5246044
 136.6560012  14.0314997 112.9359988 136.2870012  13.2294997 112.5659988
 137.5970012  13.8624997 112.9819988 136.7327289  13.8990153 112.8916316
 133.2660012   7.6914997 108.3289988 132.8190012   8.5374997 108.3099988
 132.7050012   7.1114997 107.8129988 133.1289900   7.7289916 108.2566801
 133.9770012   9.8534997 110.4539988 134.1900012   9.0834997 110.9819988
 134.7150012   9.9424997 109.8509988 134.1059044   9.7601968 110.4447123
 144.1820012  18.0104997 111.3209988 144.8020012  17.3334997 111.0479988
 143.9740012  17.7924997 112.2299988 144.2386726  17.8884800 111.4064812
 141.7540012  12.3994997 113.2139988 142.0580012  11.7134997 112.6189988
 142.4750012  12.5174997 113.8319988 141.8930671  12.3216304 113.2161816
 144.8950012   6.7934997 113.5409988 145.0370012   5.8474997 113.5619988
 144.7880012   7.0004997 112.6129988 144.8999919   6.6918246 113.4183408
 138.0490012   4.8944997 110.8139988 138.0930012   5.7544997 110.3949988
 137.5920012   4.3424997 110.1799988 137.9932240   4.9374422 110.6709864
 134.6700012   7.2914997 111.5759988 135.3230012   6.7414997 112.0079988
 134.6940012   7.0174997 110.6589988 134.7626683   7.1791466 111.5112123
 139.8260012   8.8414997 110.7909988 140.4420012   8.3154997 111.3009988
 139.2400012   8.2014997 110.3879988 139.8310810   8.6829208 110.8063173
 136.8600012   3.8124997 114.8879988 136.6410012   4.3424997 114.1219988
 136.1920012   4.0394997 115.5349988 136.7397600   3.9156906 114.8706379
 144.2290012  13.3124997 108.4319988 143.9330012  12.9904997 107.5809988
 143.9040012  14.2124997 108.4729988 144.1446371  13.3900215 108.3211801
 139.4290012  11.4884997 115.1749988 138.6890012  12.0864997 115.2789988
 140.1430012  12.0424997 114.8599988 139.4242237  11.6452831 115.1466465
 136.4530012   5.7044997 112.8399988 137.0670012   6.3374997 113.2129988
 136.9650012   5.2324997 112.1839988 136.6061981   5.7272267 112.8022908
 137.8360012  13.4524997 115.9619988 137.8310012  14.3324997 115.5839988
 136.9830012  13.3694997 116.3869988 137.7199464  13.5616117 115.9677907
 133.9570012  13.1234997 106.7439988 133.6850012  13.3524997 105.8559988
 134.0030012  13.9614997 107.2049988 133.9259482  13.2681318 106.6846273
 140.8860012   1.1184997 112.3399988 140.7690012   0.1694997 112.2859988
 140.0310012   1.4504997 112.6139988 140.7544212   1.0335571 112.3696497
 143.1530012   9.9554997 106.8409988 142.4410012  10.4904997 106.4889988
 143.8440012  10.0114997 106.1809988 143.1490132  10.0362543 106.7036289
 138.2040012  10.7954997 109.6749988 137.8730012  10.4254997 108.8569988
 138.7920012  10.1254997 110.0219988 138.2381873  10.6541156 109.6098102
 139.5700012  14.2234997 112.3559988 139.4760012  13.6454997 111.5999988
 140.3000012  13.8524997 112.8529988 139.6557387  14.0941663 112.3195342
 138.5700012   9.5644997 113.3089988 139.1360012   9.6854997 112.5459988
 138.8890012  10.2014997 113.9469988 138.6905474   9.6672219 113.2909862
 144.8790012  15.0674997 114.0429988 144.6390012  15.7294997 114.6909988
 144.6810012  14.2334997 114.4679988 144.8193808  15.0453134 114.1891524
 139.4500012  13.9634997 118.0259988 139.1390012  14.7454997 118.4809988
 138.8000012  13.8104997 117.3399988 139.3195558  14.0499105 117.9955871
 136.3700012  10.1614997 117.2539988 136.4410012  10.8124997 117.9529988
 135.4800012  10.2644997 116.9189988 136.2593005  10.2645427 117.3043495
 143.1560012  16.0644997 108.9129988 143.6300012  16.3594997 109.6899988
 142.5930012  16.8024997 108.6799988 143.1448184  16.2047247 108.9879628
 137.6900012  16.0354997 118.7889988 137.6970012  15.8994997 117.8419988
 136.7740012  15.9174997 119.0409988 137.5671714  16.0009430 118.6934666
 137.1940012   9.8654997 107.2639988 136.9020012  10.6334997 106.7739988
 136.5200012   9.2054997 107.1019988 137.0628111   9.8815587 107.1748978
 133.2870012  12.2284997 116.0789988 132.7860012  12.2004997 115.2639988
 133.2920012  11.3224997 116.3889988 133.2190944  12.1022396 116.0093226
 133.0370012  15.0084997 112.9629988 133.9830012  14.8644997 112.9439988
 132.9250012  15.7924997 113.4999988 133.1512727  15.0948046 113.0330072
 142.2140012  15.2484997 117.5219988 142.3010012  16.0744997 117.9969988
 141.3500012  14.9184997 117.7709988 142.1091964  15.3169878 117.6206549
 142.6280012  19.0204997 107.3279988 142.5530012  18.8994997 106.3809988
 142.6610012  19.9704997 107.4459988 142.6222068  19.1322646 107.2144967
 136.2810012  17.8094997 109.1089988 136.4340012  17.4614997 109.9869988
 135.4310012  17.4534997 108.8539988 136.1869166  17.7136216 109.1948079
 135.5360012  13.5514997 117.1229988 135.7520012  13.1904997 117.9819988
 134.6810012  13.1774997 116.9129988 135.4499292  13.4514111 117.2123386
 138.1550012   2.0214997 113.1179988 137.2930012   1.9344997 112.7099988
 138.1320012   2.8774997 113.5459988 138.0340409   2.1252883 113.1200589
 142.8180012   1.7434997 116.4929988 143.2380012   1.3284997 117.2459988
 141.8850012   1.5654997 116.6099988 142.7493644   1.6625900 116.6119539
 138.2460012   6.9874997 114.2129988 137.6040012   6.9464997 114.9219988
 138.2830012   7.9134997 113.9749988 138.1630664   7.1071430 114.2779219
 138.2430012   7.2084997 109.1249988 137.3500012   6.8674997 109.0659988
 138.6930012   6.8314997 108.3689988 138.1818130   7.1109631 109.0147702
 143.7780012   7.6244997 107.9419988 143.3690012   8.4394997 107.6509988
 144.4990012   7.4844997 107.3279988 143.8194537   7.7172018 107.8191342
 142.8800012   7.7994997 119.4299988 142.3180012   7.0954997 119.7509988
 143.7070012   7.6794997 119.8979988 142.9147095   7.6867883 119.5372330
 144.7830012   7.0704997 110.7559988 144.5880012   7.6754997 110.0409988
 144.9640012   6.2364997 110.3219988 144.7807614   7.0406300 110.5994405
 135.9960012   7.3074997 116.0799988 135.9580012   7.7074997 116.9489988
 135.5050012   6.4904997 116.1709988 135.9244684   7.2518069 116.2111059
 132.6040012   4.4234997 109.9309988 133.2350012   4.3944997 110.6499988
 133.0530012   3.9984997 109.1999988 132.7510918   4.3620836 109.9306441
 133.8780012   5.1694997 105.3549988 134.3520012   5.7604997 104.7699988
 133.1610012   5.7004997 105.7019988 133.8459341   5.3220867 105.3218836
 144.0470012   8.7084997 115.4269988 144.3700012   8.0774997 114.7839988
 143.6070012   8.1734997 116.0879988 144.0317484   8.5498387 115.4283198
 140.8240012   4.6354997 110.2109988 139.9130012   4.6924997 110.4999988
 141.3300012   4.5754997 111.0219988 140.7676899   4.6351941 110.3601184
 135.6530012   6.2644997 109.0379988 134.7630012   6.3644997 108.6979988
 135.9490012   5.4224997 108.6919988 135.5712823   6.1643546 108.9447213
 139.3060012   6.2644997 106.6949988 140.2370012   6.3934997 106.8729988
 139.0910012   6.9344997 106.0449988 139.4044247   6.3726565 106.6315747
 136.1150012  12.0164997 119.3599988 136.8470012  12.2704997 119.9219988
 135.3350012  12.2204997 119.8759988 136.1097073  12.0788160 119.5066151
 142.1440012   7.4234997 112.0979988 142.7090012   6.8764997 111.5509988
 141.9970012   6.9014997 112.8869988 142.2013380   7.2782259 112.1298695
 137.1460012   3.5594997 108.5169988 136.8290012   2.6574997 108.4809988
 137.9280012   3.5614997 107.9639988 137.2082408   3.4362474 108.4373569
 140.7710012   5.8114997 114.5119988 139.9350012   6.2654997 114.6229988
 141.2950012   6.0874997 115.2639988 140.7275416   5.9108660 114.6288119
 141.3150012  12.0244997 106.1969988 140.5700012  11.5174997 105.8749988
 141.1810012  12.0734997 107.1439988 141.1948776  11.9616940 106.2808647
 142.8340012  12.2084997 117.4339988 142.4890012  11.8274997 118.2409988
 142.6340012  13.1424997 117.5049988 142.7597527  12.2825135 117.5540689
 136.4400012  11.3194997 111.9669988 137.1850012  11.3174997 111.3659988
 136.5180012  10.4964997 112.4479988 136.5524995  11.2078887 111.9498282
 143.4410012  13.4834997 105.2229988 143.1450012  14.3094997 105.6039988
 142.7380012  12.8634997 105.4189988 143.3054914  13.5128199 105.3016443
 133.4480012   9.7804997 117.2819988 133.6710012   9.3624997 118.1139988
 132.8460012   9.1674997 116.8589988 133.3971759   9.6404668 117.3387022
 140.4640012   9.2974997 119.4949988 140.1680012   9.1314997 118.5999988
 141.3960012   9.0774997 119.4839988 140.5494166   9.2450640 119.3710536
 138.8150012  14.8374997 109.3709988 139.3420012  15.6104997 109.1709988
 137.9350012  15.0624997 109.0689988 138.7682031  14.9737545 109.3027912
 140.2420012  12.5004997 108.9469988 140.0010012  13.4254997 108.9889988
 139.5010012  12.0414997 109.3439988 140.1089225  12.5650933 109.0063742
 140.7570012  16.6494997 115.2629988 141.1190012  17.5044997 115.0289988
 141.2880012  16.3574997 116.0029988 140.8784473  16.7271060 115.3310855
 138.9250012  17.5224997 108.4929988 137.9750012  17.6274997 108.5439988
 139.2770012  18.3424997 108.8369988 138.8424195  17.6478800 108.5465502
 144.3010012  12.7484997 114.9629988 143.8750012  12.5214997 115.7899988
 144.8810012  12.0104997 114.7809988 144.3211868  12.6175299 115.0515830
 135.0820012   4.5334997 116.8399988 134.1890012   4.8724997 116.7719988
 134.9830012   3.6784997 117.2579988 134.9464164   4.4642588 116.8872235
 134.7330012  16.3384997 115.2749988 134.9500012  15.4064997 115.2439988
 134.9790012  16.6124997 116.1579988 134.7959549  16.2480636 115.3901763
 135.9850012  11.6124997 105.4509988 135.2990012  11.9644997 106.0179988
 136.5070012  12.3754997 105.2039988 135.9616852  11.7638578 105.4952118
 143.8160012   4.2744997 115.7299988 144.5150012   4.3484997 116.3799988
 143.4350012   3.4104997 115.8839988 143.8601767   4.1677624 115.8398322
 144.6010012   3.9264997 106.8269988 144.8210012   4.3984997 106.0239988
 145.1590012   4.3214997 107.4969988 144.7064968   4.0444285 106.8077331
 142.2690012  16.0574997 105.6899988 141.4530012  16.5544997 105.7419988
 142.7990012  16.5324997 105.0499988 142.2289161  16.1897722 105.6105956
 141.8010012   5.6544997 107.6619988 142.6130012   6.1594997 107.7079988
 141.5560012   5.5094997 108.5759988 141.8790520   5.7040375 107.7918517
 142.3360012   6.6404997 116.8459988 142.4550012   7.2144997 117.6039988
 142.9920012   5.9524997 116.9609988 142.4409025   6.6259858 116.9651321
 142.6840012   2.7354997 108.5999988 142.3380012   3.3534997 109.2439988
 143.3430012   3.2364997 108.1179988 142.7256968   2.8876278 108.6229383
 139.6080012  17.1014997 105.6709988 139.7680012  17.9004997 105.1709988
 139.4100012  17.4074997 106.5559988 139.6031637  17.2524020 105.7221144
 138.3420012   3.7984997 105.2869988 138.2590012   4.6874997 105.6339988
 139.2320012   3.5334997 105.5189988 138.4509469   3.8841430 105.3657626
 136.6010012  14.2264997 104.3479988 137.1930012  14.9254997 104.6239988
 137.0600012  13.7934997 103.6279988 136.7441142  14.2637049 104.2884830
 135.7250012   1.6724997 112.1369988 135.4960012   1.7314997 111.2089988
 135.2820012   0.8804997 112.4429988 135.6338530   1.5735753 112.0514786
 134.6550012  15.6124997 108.2969988 133.8230012  16.0854997 108.3239988
 135.2010012  16.1224997 107.6989988 134.6150352  15.7461332 108.2198463
 133.9430012  18.2254997 119.6269988 134.4840012  18.0084997 120.3869988
 133.4620012  17.4194997 119.4369988 133.9519951  18.0869270 119.7052576
 138.5410012  17.1444997 121.2469988 139.3080012  16.6854997 121.5879988
 138.5190012  16.9184997 120.3179988 138.6431275  17.0510186 121.1680101
 133.8500012  12.0354997 120.5809988 133.9940012  11.1334997 120.2949988
 133.0780012  12.3214997 120.0939988 133.7652753  11.9506816 120.4759505
 140.5060012  12.0054997 120.0139988 140.1770012  12.2764997 119.1569988
 140.6580012  11.0644997 119.9269988 140.4814809  11.9153862 119.8848244
 134.6830012   9.2354997 120.0009988 135.0910012   8.3784997 119.8799988
 134.4230012   9.2504997 120.9219988 134.7037568   9.1200807 120.1089588
 139.3410012  10.3514997 105.0199988 138.8810012   9.8674997 105.7059988
 139.5960012   9.6834997 104.3839988 139.3124902  10.1948731 105.0279334
 138.6300012   8.2444997 117.3759988 138.0120012   8.9194997 117.6559988
 138.9740012   8.5654997 116.5419988 138.5919132   8.3802411 117.3016262
 143.6500012  10.7164997 120.6529988 144.6030012  10.7994997 120.6259988
 143.4890012  10.0044997 121.2729988 143.7586426  10.6316746 120.7330579
 138.9690012   5.5994997 118.4579988 139.1190012   4.8704997 117.8559988
 138.9720012   6.3764997 117.8989988 138.9899302   5.6047851 118.3000692
 139.3820012   3.9694997 115.9509988 139.9180012   4.4204997 115.2989988
 138.5300012   3.8614997 115.5279988 139.3402178   4.0166390 115.8045756
 140.9640012   9.4084997 116.1899988 141.7140012   9.2524997 115.6169988
 140.6250012  10.2604997 115.9149988 141.0208921   9.5022968 116.0743561
 137.4480012   6.7974997 120.3699988 136.6810012   6.2654997 120.1589988
 138.1270012   6.4874997 119.7699988 137.4347877   6.6828300 120.2600716
 140.1880012   1.4254997 116.3819988 140.0890012   2.3724997 116.2769988
 139.4450012   1.0534997 115.9059988 140.0741184   1.5045863 116.3033621
 141.4520012   5.7474997 119.9459988 141.2160012   5.5274997 120.8469988
 140.6680012   5.5404997 119.4359988 141.3138504   5.6894586 120.0003431
 144.1670012   4.8744997 119.0209988 143.2200012   4.9064997 119.1539988
 144.4800012   4.2494997 119.6749988 144.0796707   4.7943998 119.1276060
 135.6280012   4.7184997 120.0739988 135.8400012   4.0114997 119.4639988
 135.5170012   4.2804997 120.9179988 135.6419721   4.5627084 120.1046843
 140.4090012   0.7194997 119.0529988 141.1210012   0.0794997 119.0389988
 140.3080012   0.9864997 118.1399988 140.4928066   0.6680079 118.9275677
 140.7630012   2.4024997 121.1069988 140.6310012   1.9264997 120.2869988
 140.1640012   3.1464997 121.0519988 140.6639071   2.4379618 120.9872886
 132.5270012  19.3144997 108.8439988 131.8800012  18.8524997 108.3109988
 132.8810012  18.6424997 109.4259988 132.4863849  19.1604723 108.8497959
 133.3970012  17.3954997 110.6479988 133.0620012  16.5154997 110.8199988
 133.6190012  17.7404997 111.5129988 133.3811783  17.3217500 110.7884208
 133.4770012  10.4704997 113.0999988 133.6610012  10.3884997 112.1639988
 134.3260012  10.3464997 113.5229988 133.6170151  10.4425073 113.0291451
 133.0740012   5.7414997 119.2409988 133.9940012   5.6194997 119.4769988
 132.6250012   4.9914997 119.6299988 133.1391580   5.6233727 119.3259006
 134.2950012   4.0534997 112.1319988 134.7410012   3.2614997 112.4339988
 134.7620012   4.7694997 112.5619988 134.4190831   4.0420685 112.2314006
 132.5990012   7.0524997 113.2009988 133.0910012   6.8314997 112.4099988
 132.9620012   7.8934997 113.4819988 132.7153126   7.1358357 113.1307531
 132.9130012   3.3104997 107.2549988 131.9880012   3.5194997 107.1259988
 133.3670012   3.7944997 106.5649988 132.8477292   3.4045343 107.1440720
 132.8770012   2.0484997 115.5989988 132.2120012   1.8024997 116.2429988
 132.4340012   2.6704997 115.0219988 132.7261318   2.0989410 115.6090898
 135.0690012  15.2234997 119.7439988 134.2480012  15.3984997 119.2829988
 134.8160012  15.1504997 120.6639988 134.9225585  15.2375544 119.8053561
 138.0230012  16.1984997 116.0019988 137.5980012  17.0074997 115.7199988
 138.9270012  16.2834997 115.6999988 138.0869975  16.3209300 115.9224816
 142.3340012  17.5974997 118.9619988 142.5190012  17.2634997 119.8399988
 143.1800012  17.9064997 118.6399988 142.4737539  17.5936047 119.0385605
 144.6790012  18.8834997 118.2059988 145.3560012  18.2504997 117.9659988
 145.0010012  19.2844997 119.0129988 144.8151637  18.8511154 118.2822793
 135.4250012  19.4544997 116.0499988 134.7040012  19.8944997 115.5989988
 135.0590012  19.2034997 116.8979988 135.2769651  19.4807242 116.1029640
 137.8920012  19.0544997 115.0799988 137.0270012  19.1264997 115.4839988
 137.8370012  19.6014997 114.2959988 137.7662085  19.1382685 115.0293362
 142.6020012  18.9424997 114.2549988 142.1460012  19.4714997 113.6009988
 142.7650012  19.5454997 114.9799988 142.5616068  19.0964607 114.2634838
 134.8390012  18.0774997 112.9599988 134.8210012  17.6524997 113.8169988
 135.6440012  17.7594997 112.5509988 134.9453529  17.9763013 113.0220946
 136.9810012  16.7874997 111.6149988 136.7620012  15.8714997 111.7849988
 137.8050012  16.9274997 112.0809988 137.0624420  16.6810520 111.7012774
 139.5180012  17.2574997 112.4639988 139.7310012  16.3694997 112.1769988
 139.5820012  17.2234997 113.4179988 139.5558232  17.1313102 112.5537397
 143.0260012   2.9214997 111.6079988 142.3520012   2.2924997 111.8639988
 143.5900012   2.4374997 111.0049988 143.0099230   2.7698744 111.5615340
 135.3530012   1.5554997 109.4299988 134.5760012   1.3214997 108.9229988
 135.8830012   0.7584997 109.4389988 135.3182330   1.4156988 109.3617742
 134.1890012   1.3534997 105.2339988 134.6280012   1.9644997 104.6419988
 133.5560012   1.8914997 105.7079988 134.1634514   1.5099257 105.2170930
 139.9320012   1.4824997 109.2439988 140.8070012   1.8704997 109.2139988
 139.7960012   1.2674997 110.1659988 140.0333695   1.5065184 109.3646440
 134.0900012  17.3014997 106.1309988 133.4050012  17.2634997 105.4639988
 134.0940012  18.2144997 106.4199988 133.9966998  17.4196733 106.0786771
 141.0760012   3.5624997 106.1329988 141.2540012   2.9164997 106.8159988
 141.0230012   4.3964997 106.5999988 141.0931999   3.5868009 106.2895917
 142.9550012  18.5114997 104.5289988 143.8210012  18.8774997 104.3509988
 142.7080012  18.0714997 103.7149988 143.0402392  18.5021756 104.3946289
 135.3110012   2.0694997 118.9479988 134.9450012   1.3044997 119.3899988
 136.2240012   2.0984997 119.2339988 135.3842736   1.9685640 119.0472502
 137.2840012   1.4204997 120.4839988 138.1820012   1.1464997 120.2989988
 136.8970012   0.6774997 120.9479988 137.3546612   1.2825914 120.5213643
  12.4390012  29.5674997 109.3889988  12.5280012  30.5114997 109.2569988
  11.8010012  29.2924997 108.7309988  12.3649081  29.6594830 109.2819614
  11.3720012  28.8224997 112.8079988  11.3340012  28.1764997 113.5129988
  11.0500012  28.3564997 112.0369988  11.3232333  28.6709408 112.8002978
   3.7410012  28.4374997 114.4009988   3.7820012  27.8114997 115.1239988
   4.4440012  29.0614997 114.5829988   3.8416363  28.4361196 114.5246044
  15.0780012  31.7614997 111.1089988  14.6380012  31.0414997 111.5599988
  15.0650012  32.4824997 111.7389988  15.0160226  31.7603731 111.2558494
   4.6640012  32.8874997 112.9359988   4.2950012  32.0854997 112.5659988
   5.6050012  32.7184997 112.9819988   4.7407289  32.7550153 112.8916316
   1.2740012  26.5474997 108.3289988   0.8270012  27.3934997 108.3099988
   0.7130012  25.9674997 107.8129988   1.1369900  26.5849916 108.2566801
   1.9850012  28.7094997 110.4539988   2.1980012  27.9394997 110.9819988
   2.7230012  28.7984997 109.8509988   2.1139044  28.6161968 110.4447123
  12.1900012  36.8664997 111.3209988  12.8100012  36.1894997 111.0479988
  11.9820012  36.6484997 112.2299988  12.2466726  36.7444800 111.4064812
   9.7620012  31.2554997 113.2139988  10.0660012  30.5694997 112.6189988
  10.4830012  31.3734997 113.8319988   9.9010671  31.1776304 113.2161816
  18.4250012  22.8564997 114.0749988  18.4740012  23.4664997 114.8099988
  18.8500012  23.3174997 113.3519988  18.4891746  23.0023796 114.0779175
  12.9030012  25.6494997 113.5409988  13.0450012  24.7034997 113.5619988
  12.7960012  25.8564997 112.6129988  12.9079919  25.5478246 113.4183408
   6.0570012  23.7504997 110.8139988   6.1010012  24.6104997 110.3949988
   5.6000012  23.1984997 110.1799988   6.0012240  23.7934422 110.6709864
  13.7800012  23.8814997 109.2149988  14.4260012  23.5524997 109.8389988
  14.2900012  24.3994997 108.5919988  13.9374299  23.9064450 109.2162731
   2.6780012  26.1474997 111.5759988   3.3310012  25.5974997 112.0079988
   2.7020012  25.8734997 110.6589988   2.7706683  26.0351466 111.5112123
   7.8340012  27.6974997 110.7909988   8.4500012  27.1714997 111.3009988
   7.2480012  27.0574997 110.3879988   7.8390810  27.5389208 110.8063173
  18.8160012  24.3344997 116.3099988  18.1280012  24.9924997 116.2149988
  18.8320012  24.1374997 117.2469988  18.7239540  24.3979819 116.4235990
   4.8680012  22.6684997 114.8879988   4.6490012  23.1984997 114.1219988
   4.2000012  22.8954997 115.5349988   4.7477600  22.7716906 114.8706379
  12.2370012  32.1684997 108.4319988  11.9410012  31.8464997 107.5809988
  11.9120012  33.0684997 108.4729988  12.1526371  32.2460215 108.3211801
   7.4370012  30.3444997 115.1749988   6.6970012  30.9424997 115.2789988
   8.1510012  30.8984997 114.8599988   7.4322237  30.5012831 115.1466465
  15.5440012  23.1724997 111.1949988  15.3280012  22.4064997 111.7279988
  16.1990012  23.6444997 111.7079988  15.6030632  23.1315889 111.3372861
   4.4610012  24.5604997 112.8399988   5.0750012  25.1934997 113.2129988
   4.9730012  24.0884997 112.1839988   4.6141981  24.5832267 112.8022908
   5.8440012  32.3084997 115.9619988   5.8390012  33.1884997 115.5839988
   4.9910012  32.2254997 116.3869988   5.7279464  32.4176117 115.9677907
   1.9650012  31.9794997 106.7439988   1.6930012  32.2084997 105.8559988
   2.0110012  32.8174997 107.2049988   1.9339482  32.1241318 106.6846273
  15.5900012  33.6014997 113.4569988  14.6490012  33.6594997 113.6189988
  15.8670012  34.5074997 113.3199988  15.4984679  33.7319443 113.4606815
  15.8910012  21.8874997 114.8749988  15.1550012  22.4984997 114.8369988
  16.5740012  22.3024997 114.3479988  15.8826541  22.0271374 114.7985832
   8.8940012  19.9744997 112.3399988   8.7770012  19.0254997 112.2859988
   8.0390012  20.3064997 112.6139988   8.7624212  19.8895571 112.3696497
  13.8420012  35.3824997 110.0819988  14.2680012  34.6754997 109.5969988
  14.1590012  36.1834997 109.6659988  13.9431683  35.3941017 109.9593680
  15.0020012  33.2834997 108.5909988  14.7440012  32.5934997 107.9799988
  15.0730012  32.8404997 109.4369988  14.9762856  33.1292124 108.6216885
  16.6880012  31.8494997 117.0679988  16.8280012  31.2584997 116.3289988
  16.8550012  32.7224997 116.7119988  16.7297411  31.8865428 116.9186894
  11.1610012  28.8114997 106.8409988  10.4490012  29.3464997 106.4889988
  11.8520012  28.8674997 106.1809988  11.1570132  28.8922543 106.7036289
  11.2140012  27.2694997 103.8799988  11.9150012  27.2914997 104.5309988
  11.5170012  26.6414997 103.2229988  11.3508133  27.1877070 103.8803369
  18.5300012  28.1894997 115.1339988  17.8770012  28.8844997 115.2239988
  18.9950012  28.3994997 114.3249988  18.5035274  28.3130643 115.0368462
  14.5660012  29.0214997 107.7929988  13.8340012  29.2494997 108.3659988
  15.0140012  28.3074997 108.2469988  14.5262725  28.9562145 107.9328816
  14.4640012  27.1954997 116.8599988  14.5440012  27.9584997 117.4319988
  13.8620012  27.4744997 116.1699988  14.3935756  27.3377134 116.8450589
   6.2120012  29.6514997 109.6749988   5.8810012  29.2814997 108.8569988
   6.8000012  28.9814997 110.0219988   6.2461873  29.5101156 109.6098102
   7.5780012  33.0794997 112.3559988   7.4840012  32.5014997 111.5999988
   8.3080012  32.7084997 112.8529988   7.6637387  32.9501663 112.3195342
   6.5780012  28.4204997 113.3089988   7.1440012  28.5414997 112.5459988
   6.8970012  29.0574997 113.9469988   6.6985474  28.5232219 113.2909862
  12.8870012  33.9234997 114.0429988  12.6470012  34.5854997 114.6909988
  12.6890012  33.0894997 114.4679988  12.8273808  33.9013134 114.1891524
   7.4580012  32.8194997 118.0259988   7.1470012  33.6014997 118.4809988
   6.8080012  32.6664997 117.3399988   7.3275558  32.9059105 117.9955871
  13.4370012  28.1834997 105.4779988  14.0170012  28.3334997 106.2249988
  13.8510012  28.6544997 104.7539988  13.5722997  28.2676578 105.4824058
   4.3780012  29.0174997 117.2539988   4.4490012  29.6684997 117.9529988
   3.4880012  29.1204997 116.9189988   4.2673005  29.1205427 117.3043495
  11.1640012  34.9204997 108.9129988  11.6380012  35.2154997 109.6899988
  10.6010012  35.6584997 108.6799988  11.1528184  35.0607247 108.9879628
   5.6980012  34.8914997 118.7889988   5.7050012  34.7554997 117.8419988
   4.7820012  34.7734997 119.0409988   5.5751714  34.8569430 118.6934666
   5.2020012  28.7214997 107.2639988   4.9100012  29.4894997 106.7739988
   4.5280012  28.0614997 107.1019988   5.0708111  28.7375587 107.1748978
   1.2950012  31.0844997 116.0789988   0.7940012  31.0564997 115.2639988
   1.3000012  30.1784997 116.3889988   1.2270944  30.9582396 116.0093226
   1.0450012  33.8644997 112.9629988   1.9910012  33.7204997 112.9439988
   0.9330012  34.6484997 113.4999988   1.1592727  33.9508046 113.0330072
  19.2430012  34.5304997 118.6459988  19.1940012  33.5754997 118.6089988
  18.4160012  34.7984997 119.0469988  19.1244940  34.4358998 118.6951375
  10.2220012  34.1044997 117.5219988  10.3090012  34.9304997 117.9969988
   9.3580012  33.7744997 117.7709988  10.1171964  34.1729878 117.6206549
  10.6360012  37.8764997 107.3279988  10.5610012  37.7554997 106.3809988
  10.6690012  38.8264997 107.4459988  10.6302068  37.9882646 107.2144967
   4.2890012  36.6654997 109.1089988   4.4420012  36.3174997 109.9869988
   3.4390012  36.3094997 108.8539988   4.1949166  36.5696216 109.1948079
  13.4070012  36.9564997 107.0789988  12.4710012  37.0564997 107.2579988
  13.6870012  36.2474997 107.6579988  13.3169553  36.8743406 107.1817087
  16.3950012  26.0234997 119.1259988  15.9880012  26.5044997 118.4049988
  16.4360012  25.1184997 118.8179988  16.3448437  25.9669374 118.9856683
   3.5440012  32.4074997 117.1229988   3.7600012  32.0464997 117.9819988
   2.6890012  32.0334997 116.9129988   3.4579292  32.3074111 117.2123386
   6.1630012  20.8774997 113.1179988   5.3010012  20.7904997 112.7099988
   6.1400012  21.7334997 113.5459988   6.0420409  20.9812883 113.1200589
  10.8260012  20.5994997 116.4929988  11.2460012  20.1844997 117.2459988
   9.8930012  20.4214997 116.6099988  10.7573644  20.5185900 116.6119539
  14.1520012  24.3554997 117.3459988  13.6380012  24.2294997 118.1439988
  13.9970012  25.2674997 117.1019988  14.0606852  24.4616132 117.4222158
   6.2540012  25.8434997 114.2129988   5.6120012  25.8024997 114.9219988
   6.2910012  26.7694997 113.9749988   6.1710664  25.9631430 114.2779219
   6.2510012  26.0644997 109.1249988   5.3580012  25.7234997 109.0659988
   6.7010012  25.6874997 108.3689988   6.1898130  25.9669631 109.0147702
  11.7860012  26.4804997 107.9419988  11.3770012  27.2954997 107.6509988
  12.5070012  26.3404997 107.3279988  11.8274537  26.5732018 107.8191342
  10.8880012  26.6554997 119.4299988  10.3260012  25.9514997 119.7509988
  11.7150012  26.5354997 119.8979988  10.9227095  26.5427883 119.5372330
  12.7910012  25.9264997 110.7559988  12.5960012  26.5314997 110.0409988
  12.9720012  25.0924997 110.3219988  12.7887614  25.8966300 110.5994405
   4.0040012  26.1634997 116.0799988   3.9660012  26.5634997 116.9489988
   3.5130012  25.3464997 116.1709988   3.9324684  26.1078069 116.2111059
   0.6120012  23.2794997 109.9309988   1.2430012  23.2504997 110.6499988
   1.0610012  22.8544997 109.1999988   0.7590918  23.2180836 109.9306441
   1.8860012  24.0254997 105.3549988   2.3600012  24.6164997 104.7699988
   1.1690012  24.5564997 105.7019988   1.8539341  24.1780867 105.3218836
  12.0550012  27.5644997 115.4269988  12.3780012  26.9334997 114.7839988
  11.6150012  27.0294997 116.0879988  12.0397484  27.4058387 115.4283198
   8.8320012  23.4914997 110.2109988   7.9210012  23.5484997 110.4999988
   9.3380012  23.4314997 111.0219988   8.7756899  23.4911941 110.3601184
   3.6610012  25.1204997 109.0379988   2.7710012  25.2204997 108.6979988
   3.9570012  24.2784997 108.6919988   3.5792823  25.0203545 108.9447213
   7.3140012  25.1204997 106.6949988   8.2450012  25.2494997 106.8729988
   7.0990012  25.7904997 106.0449988   7.4124247  25.2286565 106.6315747
  13.2370012  22.7264997 113.4759988  12.5610012  22.8574997 114.1399988
  12.7520012  22.5714997 112.6649988  13.0787146  22.7235157 113.4574469
  16.5250012  38.3984997 119.7519988  16.7250012  38.8224997 118.9179988
  17.1800012  38.7414997 120.3589988  16.6410072  38.5029857 119.7198592
   4.1230012  30.8724997 119.3599988   4.8550012  31.1264997 119.9219988
   3.3430012  31.0764997 119.8759988   4.1177073  30.9348160 119.5066151
  10.1520012  26.2794997 112.0979988  10.7170012  25.7324997 111.5509988
  10.0050012  25.7574997 112.8869988  10.2093380  26.1342259 112.1298695
   5.1540012  22.4154997 108.5169988   4.8370012  21.5134997 108.4809988
   5.9360012  22.4174997 107.9639988   5.2162408  22.2922474 108.4373569
   8.7790012  24.6674997 114.5119988   7.9430012  25.1214997 114.6229988
   9.3030012  24.9434997 115.2639988   8.7355416  24.7668660 114.6288119
   9.3230012  30.8804997 106.1969988   8.5780012  30.3734997 105.8749988
   9.1890012  30.9294997 107.1439988   9.2028776  30.8176940 106.2808647
  16.4730012  30.0134997 114.9839988  17.1150012  30.4704997 114.4399988
  15.6430012  30.1264997 114.5209988  16.4485963  30.0912704 114.8470177
  13.2210012  23.6944997 104.3959988  12.2820012  23.8064997 104.2449988
  13.5180012  24.5514997 104.7029988  13.1327583  23.8255981 104.4168337
  10.8420012  31.0644997 117.4339988  10.4970012  30.6834997 118.2409988
  10.6420012  31.9984997 117.5049988  10.7677527  31.1385135 117.5540689
  13.9390012  25.5614997 106.0569988  14.8310012  25.4244997 106.3759988
  13.9960012  26.3524997 105.5199988  14.0686504  25.6496052 106.0280818
   4.4480012  30.1754997 111.9669988   5.1930012  30.1734997 111.3659988
   4.5260012  29.3524997 112.4479988   4.5604995  30.0638887 111.9498282
   1.4560012  28.6364997 117.2819988   1.6790012  28.2184997 118.1139988
   0.8540012  28.0234997 116.8589988   1.4051759  28.4964668 117.3387022
   8.4720012  28.1534997 119.4949988   8.1760012  27.9874997 118.5999988
   9.4040012  27.9334997 119.4839988   8.5574166  28.1010640 119.3710536
  13.0930012  33.5264997 117.3849988  12.1920012  33.7094997 117.1169988
  13.1270012  33.7854997 118.3049988  12.9743139  33.5865849 117.4728099
  18.8240012  25.7714997 105.7519988  18.2700012  25.3754997 105.0799988
  18.9240012  26.6814997 105.4739988  18.7617059  25.8403586 105.6224401
  18.7870012  31.5714997 118.5889988  17.9360012  31.8094997 118.2219988
  19.3780012  31.5544997 117.8359988  18.7502487  31.6018258 118.4368893
  17.1190012  34.5574997 106.2169988  16.7460012  33.7314997 106.5259988
  17.3970012  34.3744997 105.3189988  17.1055222  34.4197430 106.1379473
  14.2800012  29.3654997 113.2379988  13.3510012  29.1334997 113.2109988
  14.7310012  28.5884997 112.9079988  14.2139216  29.2287238 113.1896917
   6.8230012  33.6934997 109.3709988   7.3500012  34.4664997 109.1709988
   5.9430012  33.9184997 109.0689988   6.7762031  33.8297545 109.3027912
   8.2500012  31.3564997 108.9469988   8.0090012  32.2814997 108.9889988
   7.5090012  30.8974997 109.3439988   8.1169225  31.4210933 109.0063742
   8.7650012  35.5054997 115.2629988   9.1270012  36.3604997 115.0289988
   9.2960012  35.2134997 116.0029988   8.8864473  35.5831060 115.3310855
   6.9330012  36.3784997 108.4929988   5.9830012  36.4834997 108.5439988
   7.2850012  37.1984997 108.8369988   6.8504195  36.5038800 108.5465502
  12.3090012  31.6044997 114.9629988  11.8830012  31.3774997 115.7899988
  12.8890012  30.8664997 114.7809988  12.3291868  31.4735299 115.0515830
  14.9670012  36.1564997 117.4329988  14.3660012  35.6014997 116.9369988
  15.2490012  36.8234997 116.8059988  14.9228804  36.1706625 117.2804849
   3.0900012  23.3894997 116.8399988   2.1970012  23.7284997 116.7719988
   2.9910012  22.5344997 117.2579988   2.9544164  23.3202588 116.8872235
  15.3780012  31.2064997 106.2639988  15.1000012  30.4784997 106.8199988
  16.3050012  31.3254997 106.4689988  15.4653124  31.1228802 106.3678845
   2.7410012  35.1944997 115.2749988   2.9580012  34.2624997 115.2439988
   2.9870012  35.4684997 116.1579988   2.8039549  35.1040636 115.3901763
   7.5400012  33.2154997 104.9399988   7.6860012  32.6954997 105.7299988
   7.5370012  34.1224997 105.2469988   7.5595792  33.2668842 105.0896117
   3.9930012  30.4684997 105.4509988   3.3070012  30.8204997 106.0179988
   4.5150012  31.2314997 105.2039988   3.9696852  30.6198578 105.4952118
  11.8240012  23.1304997 115.7299988  12.5230012  23.2044997 116.3799988
  11.4430012  22.2664997 115.8839988  11.8681767  23.0237624 115.8398322
  12.6090012  22.7824997 106.8269988  12.8290012  23.2544997 106.0239988
  13.1670012  23.1774997 107.4969988  12.7144968  22.9004285 106.8077331
   9.8090012  24.5104997 107.6619988  10.6210012  25.0154997 107.7079988
   9.5640012  24.3654997 108.5759988   9.8870520  24.5600375 107.7918517
  10.3440012  25.4964997 116.8459988  10.4630012  26.0704997 117.6039988
  11.0000012  24.8084997 116.9609988  10.4489025  25.4819858 116.9651321
  10.6920012  21.5914997 108.5999988  10.3460012  22.2094997 109.2439988
  11.3510012  22.0924997 108.1179988  10.7336968  21.7436278 108.6229383
   7.6160012  35.9574997 105.6709988   7.7760012  36.7564997 105.1709988
   7.4180012  36.2634997 106.5559988   7.6111637  36.1084020 105.7221144
   6.3500012  22.6544997 105.2869988   6.2670012  23.5434997 105.6339988
   7.2400012  22.3894997 105.5189988   6.4589469  22.7401430 105.3657626
  16.5490012  23.4034997 117.6809988  15.6320012  23.6664997 117.5939988
  16.8840012  23.4004997 116.7849988  16.4688613  23.4390761 117.5478837
  15.1510012  27.1544997 111.7769988  14.3530012  26.7394997 111.4489988
  15.5960012  26.4634997 112.2679988  15.1019885  27.0043543 111.7984889
   4.6090012  33.0824997 104.3479988   5.2010012  33.7814997 104.6239988
   5.0680012  32.6494997 103.6279988   4.7521142  33.1197049 104.2884830
  16.2370012  36.4104997 113.3999988  16.0820012  37.0884997 112.7419988
  17.1700012  36.4824997 113.6029988  16.3418657  36.5129546 113.3374360
   3.7330012  20.5284997 112.1369988   3.5040012  20.5874997 111.2089988
   3.2900012  19.7364997 112.4429988   3.6418530  20.4295753 112.0514786
   2.6630012  34.4684997 108.2969988   1.8310012  34.9414997 108.3239988
   3.2090012  34.9784997 107.6989988   2.6230352  34.6021332 108.2198463
   1.9510012  37.0814997 119.6269988   2.4920012  36.8644997 120.3869988
   1.4700012  36.2754997 119.4369988   1.9599951  36.9429270 119.7052576
   6.5490012  36.0004997 121.2469988   7.3160012  35.5414997 121.5879988
   6.5270012  35.7744997 120.3179988   6.6511275  35.9070186 121.1680101
  13.1260012  34.3804997 119.9769988  12.7750012  33.5244997 120.2199988
  13.8520012  34.5234997 120.5839988  13.1760769  34.2825636 120.0923619
   1.8580012  30.8914997 120.5809988   2.0020012  29.9894997 120.2949988
   1.0860012  31.1774997 120.0939988   1.7732753  30.8066816 120.4759505
   6.2000012  31.2354997 102.7139988   6.2640012  30.4414997 103.2449988
   6.8530012  31.1164997 102.0239988   6.2970241  31.1107148 102.6934317
   8.5140012  30.8614997 120.0139988   8.1850012  31.1324997 119.1569988
   8.6660012  29.9204997 119.9269988   8.4894809  30.7713862 119.8848244
  14.2480012  30.7774997 117.3969988  14.9940012  31.3654997 117.2779988
  13.4910012  31.3594997 117.4609988  14.2477820  30.9367143 117.3893590
   2.6910012  28.0914997 120.0009988   3.0990012  27.2344997 119.8799988
   2.4310012  28.1064997 120.9219988   2.7117568  27.9760807 120.1089588
   7.3490012  29.2074997 105.0199988   6.8890012  28.7234997 105.7059988
   7.6040012  28.5394997 104.3839988   7.3204902  29.0508731 105.0279334
   6.6380012  27.1004997 117.3759988   6.0200012  27.7754997 117.6559988
   6.9820012  27.4214997 116.5419988   6.5999132  27.2362411 117.3016262
   8.4200012  27.4504997 103.2819988   8.2400012  27.2964997 102.3549988
   9.3700012  27.5584997 103.3269988   8.5237776  27.4440175 103.1611843
  11.6580012  29.5724997 120.6529988  12.6110012  29.6554997 120.6259988
  11.4970012  28.8604997 121.2729988  11.7666426  29.4876746 120.7330579
   6.9770012  24.4554997 118.4579988   7.1270012  23.7264997 117.8559988
   6.9800012  25.2324997 117.8989988   6.9979302  24.4607851 118.3000692
   7.3900012  22.8254997 115.9509988   7.9260012  23.2764997 115.2989988
   6.5380012  22.7174997 115.5279988   7.3482178  22.8726390 115.8045756
   8.9720012  28.2644997 116.1899988   9.7220012  28.1084997 115.6169988
   8.6330012  29.1164997 115.9149988   9.0288921  28.3582968 116.0743561
  13.3870012  26.0794997 121.2189988  13.5800012  25.1484997 121.1069988
  14.2450012  26.5044997 121.2079988  13.5292934  26.0096531 121.2022031
  14.7040012  28.8684997 119.2959988  14.4230012  29.5774997 118.7179988
  15.6470012  28.7954997 119.1449988  14.7929291  28.9556711 119.1964967
   5.4560012  25.6534997 120.3699988   4.6890012  25.1214997 120.1589988
   6.1350012  25.3434997 119.7699988   5.4427877  25.5388300 120.2600716
   8.1960012  20.2814997 116.3819988   8.0970012  21.2284997 116.2769988
   7.4530012  19.9094997 115.9059988   8.0821184  20.3605863 116.3033621
   9.4600012  24.6034997 119.9459988   9.2240012  24.3834997 120.8469988
   8.6760012  24.3964997 119.4359988   9.3218504  24.5454586 120.0003431
  12.1750012  23.7304997 119.0209988  11.2280012  23.7624997 119.1539988
  12.4880012  23.1054997 119.6749988  12.0876707  23.6503998 119.1276060
  13.8090012  22.3644997 121.0269988  13.7130012  21.4124997 121.0209988
  13.4880012  22.6334997 121.8869988  13.7524070  22.2704035 121.1425441
   3.6360012  23.5744997 120.0739988   3.8480012  22.8674997 119.4639988
   3.5250012  23.1364997 120.9179988   3.6499721  23.4187084 120.1046843
   8.4170012  19.5754997 119.0529988   9.1290012  18.9354997 119.0389988
   8.3160012  19.8424997 118.1399988   8.5008066  19.5240079 118.9275677
   8.7710012  21.2584997 121.1069988   8.6390012  20.7824997 120.2869988
   8.1720012  22.0024997 121.0519988   8.6719071  21.2939618 120.9872886
   8.3170012  38.1414997 104.2829988   9.2500012  38.2994997 104.4269988
   8.0530012  38.8164997 103.6589988   8.4089888  38.2544510 104.2182842
   0.5350012  38.1704997 108.8439988  -0.1119988  37.7084997 108.3109988
   0.8890012  37.4984997 109.4259988   0.4943849  38.0164723 108.8497959
   1.4050012  36.2514997 110.6479988   1.0700012  35.3714997 110.8199988
   1.6270012  36.5964997 111.5129988   1.3891783  36.1777501 110.7884208
  18.9530012  37.0604997 113.6289988  18.9320012  37.2454997 114.5679988
  19.6440012  37.6294997 113.2879988  19.0434618  37.1626606 113.7113864
  18.5170012  36.6284997 116.5509988  18.0290012  35.8924997 116.1789988
  19.0660012  36.2344997 117.2289988  18.5244820  36.4745889 116.5917813
  16.9670012  32.4174997 121.1889988  16.1010012  32.3124997 121.5829988
  17.3440012  33.1764997 121.6349988  16.8993308  32.5056900 121.3032393
  18.2680012  30.6744997 106.7029988  19.1180012  31.0954997 106.8299988
  18.2740012  29.9344997 107.3099988  18.3851372  30.6320803 106.8024344
  18.6630012  28.7274997 108.5259988  17.9360012  28.2484997 108.9239988
  19.2440012  28.9334997 109.2589988  18.6420473  28.6898103 108.6794528
  18.4220012  31.5124997 113.4739988  19.2550012  31.1344997 113.1939988
  18.5340012  32.4554997 113.3549988  18.5512647  31.5882218 113.4195487
  16.9080012  34.3904997 115.7809988  16.2610012  34.7154997 116.4069988
  16.3910012  33.9504997 115.1069988  16.7494029  34.3755004 115.7755827
  18.9310012  28.6284997 104.9179988  18.4090012  28.9854997 104.1989988
  18.8980012  29.3034997 105.5959988  18.8551634  28.7685413 104.9113145
  16.4490012  27.2484997 109.0889988  16.2990012  26.3034997 109.0689988
  16.0960012  27.5294997 109.9329988  16.3807448  27.1571481 109.2003705
   1.4850012  29.3264997 113.0999988   1.6690012  29.2444997 112.1639988
   2.3340012  29.2024997 113.5229988   1.6250151  29.2985073 113.0291451
  17.3060012  29.2184997 118.7279988  17.8890012  28.4844997 118.9199988
  17.8700012  29.9904997 118.7749988  17.4619769  29.2224227 118.7606159
  18.8020012  27.1214997 119.4129988  17.9390012  26.7424997 119.2469988
  19.4070012  26.3824997 119.3379988  18.7656119  26.9698268 119.3801528
  16.1600012  24.8314997 107.5519988  16.4400012  23.9244997 107.6759988
  16.9190012  25.2654997 107.1629988  16.3009277  24.7660942 107.5163682
  16.7720012  25.4124997 112.9879988  17.7050012  25.6244997 112.9529988
  16.5370012  25.5144997 113.9099988  16.8679244  25.4553100 113.1078892
  16.8010012  26.1494997 115.7639988  15.9580012  26.4174997 116.1299988
  17.2430012  26.9714997 115.5529988  16.7454158  26.2973291 115.7855491
   1.0820012  24.5974997 119.2409988   2.0020012  24.4754997 119.4769988
   0.6330012  23.8474997 119.6299988   1.1471580  24.4793727 119.3259006
  19.0840012  20.1294997 121.1169988  19.4340012  19.4754997 120.5119988
  19.2310012  20.9664997 120.6769988  19.1517887  20.1531548 120.9746858
  16.7730012  22.0944997 107.5999988  16.9560012  21.6454997 108.4259988
  16.1740012  21.5094997 107.1369988  16.7170202  21.9539975 107.6503275
   2.3030012  22.9094997 112.1319988   2.7490012  22.1174997 112.4339988
   2.7700012  23.6254997 112.5619988   2.4270831  22.8980685 112.2314006
   0.6070012  25.9084997 113.2009988   1.0990012  25.6874997 112.4099988
   0.9700012  26.7494997 113.4819988   0.7233126  25.9918357 113.1307531
  18.6040012  22.2384997 119.4659988  17.6860012  22.5094997 119.4309988
  18.7270012  21.7034997 118.6819988  18.4949729  22.2032508 119.3551923
   0.9210012  22.1664997 107.2549988  -0.0039988  22.3754997 107.1259988
   1.3750012  22.6504997 106.5649988   0.8557292  22.2605343 107.1440720
  15.6920012  37.1504997 109.2009988  16.3440012  36.8034997 108.5929988
  16.2020012  37.6394997 109.8469988  15.8502637  37.1690597 109.2050236
   0.8850012  20.9044997 115.5989988   0.2200012  20.6584997 116.2429988
   0.4420012  21.5264997 115.0219988   0.7341318  20.9549410 115.6090898
   3.0770012  34.0794997 119.7439988   2.2560012  34.2544997 119.2829988
   2.8240012  34.0064997 120.6639988   2.9305585  34.0935544 119.8053561
   6.0310012  35.0544997 116.0019988   5.6060012  35.8634997 115.7199988
   6.9350012  35.1394997 115.6999988   6.0949975  35.1769300 115.9224816
  10.3420012  36.4534997 118.9619988  10.5270012  36.1194997 119.8399988
  11.1880012  36.7624997 118.6399988  10.4817539  36.4496047 119.0385605
  12.6870012  37.7394997 118.2059988  13.3640012  37.1064997 117.9659988
  13.0090012  38.1404997 119.0129988  12.8231637  37.7071154 118.2822793
  17.6040012  20.3284997 117.2849988  16.7920012  20.6534997 116.8979988
  17.8370012  19.5684997 116.7519988  17.5242203  20.2702758 117.1598880
   3.4330012  38.3104997 116.0499988   2.7120012  38.7504997 115.5989988
   3.0670012  38.0594997 116.8979988   3.2849651  38.3367242 116.1029640
   5.9000012  37.9104997 115.0799988   5.0350012  37.9824997 115.4839988
   5.8450012  38.4574997 114.2959988   5.7742085  37.9942685 115.0293362
  10.6100012  37.7984997 114.2549988  10.1540012  38.3274997 113.6009988
  10.7730012  38.4014997 114.9799988  10.5696068  37.9524607 114.2634838
  12.9380012  36.6764997 115.1999988  12.0330012  36.8414997 114.9339988
  13.3670012  37.5294997 115.1349988  12.8721324  36.8144339 115.1547976
  15.5420012  38.2464997 115.4949988  15.3600012  39.1624997 115.2849988
  15.7190012  37.8364997 114.6489988  15.5410210  38.3164822 115.3517885
   2.8470012  36.9334997 112.9599988   2.8290012  36.5084997 113.8169988
   3.6520012  36.6154997 112.5509988   2.9533529  36.8323013 113.0220946
   4.9890012  35.6434997 111.6149988   4.7700012  34.7274997 111.7849988
   5.8130012  35.7834997 112.0809988   5.0704420  35.5370520 111.7012774
   7.5260012  36.1134997 112.4639988   7.7390012  35.2254997 112.1769988
   7.5900012  36.0794997 113.4179988   7.5638231  35.9873102 112.5537397
  11.0340012  21.7774997 111.6079988  10.3600012  21.1484997 111.8639988
  11.5980012  21.2934997 111.0049988  11.0179230  21.6258744 111.5615340
  16.1770012  19.8854997 111.7209988  16.7810012  20.4324997 111.2189988
  15.3070012  20.2044997 111.4799988  16.1421208  20.0035137 111.6196886
  17.9040012  21.0234997 110.0539988  18.5160012  20.5094997 109.5269988
  18.2860012  21.9014997 110.0769988  18.0393371  21.0717866 109.9850041
   3.3610012  20.4114997 109.4299988   2.5840012  20.1774997 108.9229988
   3.8910012  19.6144997 109.4389988   3.3262330  20.2716988 109.3617742
   7.9400012  20.3384997 109.2439988   8.8150012  20.7264997 109.2139988
   7.8040012  20.1234997 110.1659988   8.0413695  20.3625184 109.3646440
  13.4970012  20.3684997 110.8929988  13.5730012  20.4634997 109.9429988
  13.2220012  19.4604997 111.0219988  13.4702321  20.2587867 110.7805079
  14.8500012  20.3944997 106.5849988  14.1480012  21.0094997 106.3749988
  14.4060012  19.5564997 106.7159988  14.6936450  20.3655639 106.5739000
   2.0980012  36.1574997 106.1309988   1.4130012  36.1194997 105.4639988
   2.1020012  37.0704997 106.4199988   2.0046998  36.2756733 106.0786771
  10.9630012  37.3674997 104.5289988  11.8290012  37.7334997 104.3509988
  10.7160012  36.9274997 103.7149988  11.0482392  37.3581756 104.3946289
  17.6720012  36.9304997 107.2079988  17.4770012  36.1824997 106.6429988
  17.6330012  37.6884997 106.6249988  17.6400380  36.9306099 107.0518384
   3.3190012  20.9254997 118.9479988   2.9530012  20.1604997 119.3899988
   4.2320012  20.9544997 119.2339988   3.3922736  20.8245640 119.0472502
   5.2920012  20.2764997 120.4839988   6.1900012  20.0024997 120.2989988
   4.9050012  19.5334997 120.9479988   5.3626612  20.1385914 120.5213643
  13.7130012  19.6084997 120.6659988  13.7900012  19.1824997 121.5199988
  14.6070012  19.6224997 120.3229988  13.8443428  19.5520879 120.7365310
  16.8890012  35.6814997 119.3579988  16.1070012  35.4954997 118.8379988
  16.8170012  36.6104997 119.5759988  16.7722274  35.7816643 119.3163018
  31.2950012  29.5674997 109.3889988  31.3840012  30.5114997 109.2569988
  30.6570012  29.2924997 108.7309988  31.2209081  29.6594830 109.2819614
  30.2280012  28.8224997 112.8079988  30.1900012  28.1764997 113.5129988
  29.9060012  28.3564997 112.0369988  30.1792333  28.6709408 112.8002978
  22.5970012  28.4374997 114.4009988  22.6380012  27.8114997 115.1239988
  23.3000012  29.0614997 114.5829988  22.6976363  28.4361196 114.5246044
  33.9340012  31.7614997 111.1089988  33.4940012  31.0414997 111.5599988
  33.9210012  32.4824997 111.7389988  33.8720226  31.7603731 111.2558494
  23.5200012  32.8874997 112.9359988  23.1510012  32.0854997 112.5659988
  24.4610012  32.7184997 112.9819988  23.5967289  32.7550153 112.8916316
  20.1300012  26.5474997 108.3289988  19.6830012  27.3934997 108.3099988
  19.5690012  25.9674997 107.8129988  19.9929900  26.5849916 108.2566801
  20.8410012  28.7094997 110.4539988  21.0540012  27.9394997 110.9819988
  21.5790012  28.7984997 109.8509988  20.9699044  28.6161968 110.4447123
  31.0460012  36.8664997 111.3209988  31.6660012  36.1894997 111.0479988
  30.8380012  36.6484997 112.2299988  31.1026726  36.7444800 111.4064812
  28.6180012  31.2554997 113.2139988  28.9220012  30.5694997 112.6189988
  29.3390012  31.3734997 113.8319988  28.7570671  31.1776305 113.2161816
  37.2810012  22.8564997 114.0749988  37.3300012  23.4664997 114.8099988
  37.7060012  23.3174997 113.3519988  37.3451746  23.0023796 114.0779175
  31.7590012  25.6494997 113.5409988  31.9010012  24.7034997 113.5619988
  31.6520012  25.8564997 112.6129988  31.7639919  25.5478246 113.4183408
  24.9130012  23.7504997 110.8139988  24.9570012  24.6104997 110.3949988
  24.4560012  23.1984997 110.1799988  24.8572240  23.7934422 110.6709864
  32.6360012  23.8814997 109.2149988  33.2820012  23.5524997 109.8389988
  33.1460012  24.3994997 108.5919988  32.7934299  23.9064450 109.2162731
  21.5340012  26.1474997 111.5759988  22.1870012  25.5974997 112.0079988
  21.5580012  25.8734997 110.6589988  21.6266683  26.0351466 111.5112123
  26.6900012  27.6974997 110.7909988  27.3060012  27.1714997 111.3009988
  26.1040012  27.0574997 110.3879988  26.6950810  27.5389208 110.8063173
  37.6720012  24.3344997 116.3099988  36.9840012  24.9924997 116.2149988
  37.6880012  24.1374997 117.2469988  37.5799540  24.3979819 116.4235990
  23.7240012  22.6684997 114.8879988  23.5050012  23.1984997 114.1219988
  23.0560012  22.8954997 115.5349988  23.6037600  22.7716906 114.8706379
  31.0930012  32.1684997 108.4319988  30.7970012  31.8464997 107.5809988
  30.7680012  33.0684997 108.4729988  31.0086371  32.2460215 108.3211801
  26.2930012  30.3444997 115.1749988  25.5530012  30.9424997 115.2789988
  27.0070012  30.8984997 114.8599988  26.2882237  30.5012831 115.1466465
  34.4000012  23.1724997 111.1949988  34.1840012  22.4064997 111.7279988
  35.0550012  23.6444997 111.7079988  34.4590632  23.1315889 111.3372861
  23.3170012  24.5604997 112.8399988  23.9310012  25.1934997 113.2129988
  23.8290012  24.0884997 112.1839988  23.4701981  24.5832267 112.8022908
  24.7000012  32.3084997 115.9619988  24.6950012  33.1884997 115.5839988
  23.8470012  32.2254997 116.3869988  24.5839464  32.4176117 115.9677907
  20.8210012  31.9794997 106.7439988  20.5490012  32.2084997 105.8559988
  20.8670012  32.8174997 107.2049988  20.7899482  32.1241318 106.6846273
  34.4460012  33.6014997 113.4569988  33.5050012  33.6594997 113.6189988
  34.7230012  34.5074997 113.3199988  34.3544679  33.7319443 113.4606815
  34.7470012  21.8874997 114.8749988  34.0110012  22.4984997 114.8369988
  35.4300012  22.3024997 114.3479988  34.7386541  22.0271374 114.7985832
  27.7500012  19.9744997 112.3399988  27.6330012  19.0254997 112.2859988
  26.8950012  20.3064997 112.6139988  27.6184212  19.8895571 112.3696497
  32.6980012  35.3824997 110.0819988  33.1240012  34.6754997 109.5969988
  33.0150012  36.1834997 109.6659988  32.7991683  35.3941017 109.9593680
  33.8580012  33.2834997 108.5909988  33.6000012  32.5934997 107.9799988
  33.9290012  32.8404997 109.4369988  33.8322856  33.1292124 108.6216885
  35.5440012  31.8494997 117.0679988  35.6840012  31.2584997 116.3289988
  35.7110012  32.7224997 116.7119988  35.5857411  31.8865428 116.9186894
  30.0170012  28.8114997 106.8409988  29.3050012  29.3464997 106.4889988
  30.7080012  28.8674997 106.1809988  30.0130132  28.8922543 106.7036289
  30.0700012  27.2694997 103.8799988  30.7710012  27.2914997 104.5309988
  30.3730012  26.6414997 103.2229988  30.2068133  27.1877070 103.8803369
  37.3860012  28.1894997 115.1339988  36.7330012  28.8844997 115.2239988
  37.8510012  28.3994997 114.3249988  37.3595274  28.3130643 115.0368462
  33.4220012  29.0214997 107.7929988  32.6900012  29.2494997 108.3659988
  33.8700012  28.3074997 108.2469988  33.3822725  28.9562145 107.9328816
  33.3200012  27.1954997 116.8599988  33.4000012  27.9584997 117.4319988
  32.7180012  27.4744997 116.1699988  33.2495756  27.3377134 116.8450589
  25.0680012  29.6514997 109.6749988  24.7370012  29.2814997 108.8569988
  25.6560012  28.9814997 110.0219988  25.1021873  29.5101156 109.6098102
  26.4340012  33.0794997 112.3559988  26.3400012  32.5014997 111.5999988
  27.1640012  32.7084997 112.8529988  26.5197387  32.9501663 112.3195342
  25.4340012  28.4204997 113.3089988  26.0000012  28.5414997 112.5459988
  25.7530012  29.0574997 113.9469988  25.5545474  28.5232219 113.2909862
  31.7430012  33.9234997 114.0429988  31.5030012  34.5854997 114.6909988
  31.5450012  33.0894997 114.4679988  31.6833808  33.9013134 114.1891524
  26.3140012  32.8194997 118.0259988  26.0030012  33.6014997 118.4809988
  25.6640012  32.6664997 117.3399988  26.1835558  32.9059105 117.9955871
  32.2930012  28.1834997 105.4779988  32.8730012  28.3334997 106.2249988
  32.7070012  28.6544997 104.7539988  32.4282997  28.2676578 105.4824058
  23.2340012  29.0174997 117.2539988  23.3050012  29.6684997 117.9529988
  22.3440012  29.1204997 116.9189988  23.1233005  29.1205427 117.3043495
  30.0200012  34.9204997 108.9129988  30.4940012  35.2154997 109.6899988
  29.4570012  35.6584997 108.6799988  30.0088184  35.0607247 108.9879628
  24.5540012  34.8914997 118.7889988  24.5610012  34.7554997 117.8419988
  23.6380012  34.7734997 119.0409988  24.4311714  34.8569430 118.6934666
  24.0580012  28.7214997 107.2639988  23.7660012  29.4894997 106.7739988
  23.3840012  28.0614997 107.1019988  23.9268111  28.7375587 107.1748978
  20.1510012  31.0844997 116.0789988  19.6500012  31.0564997 115.2639988
  20.1560012  30.1784997 116.3889988  20.0830944  30.9582396 116.0093226
  19.9010012  33.8644997 112.9629988  20.8470012  33.7204997 112.9439988
  19.7890012  34.6484997 113.4999988  20.0152727  33.9508046 113.0330072
  38.0990012  34.5304997 118.6459988  38.0500012  33.5754997 118.6089988
  37.2720012  34.7984997 119.0469988  37.9804940  34.4358998 118.6951375
  29.0780012  34.1044997 117.5219988  29.1650012  34.9304997 117.9969988
  28.2140012  33.7744997 117.7709988  28.9731964  34.1729878 117.6206549
  29.4920012  37.8764997 107.3279988  29.4170012  37.7554997 106.3809988
  29.5250012  38.8264997 107.4459988  29.4862068  37.9882646 107.2144967
  23.1450012  36.6654997 109.1089988  23.2980012  36.3174997 109.9869988
  22.2950012  36.3094997 108.8539988  23.0509166  36.5696217 109.1948079
  32.2630012  36.9564997 107.0789988  31.3270012  37.0564997 107.2579988
  32.5430012  36.2474997 107.6579988  32.1729553  36.8743406 107.1817087
  35.2510012  26.0234997 119.1259988  34.8440012  26.5044997 118.4049988
  35.2920012  25.1184997 118.8179988  35.2008437  25.9669374 118.9856683
  22.4000012  32.4074997 117.1229988  22.6160012  32.0464997 117.9819988
  21.5450012  32.0334997 116.9129988  22.3139292  32.3074111 117.2123386
  25.0190012  20.8774997 113.1179988  24.1570012  20.7904997 112.7099988
  24.9960012  21.7334997 113.5459988  24.8980409  20.9812883 113.1200589
  29.6820012  20.5994997 116.4929988  30.1020012  20.1844997 117.2459988
  28.7490012  20.4214997 116.6099988  29.6133644  20.5185900 116.6119539
  33.0080012  24.3554997 117.3459988  32.4940012  24.2294997 118.1439988
  32.8530012  25.2674997 117.1019988  32.9166852  24.4616132 117.4222158
  25.1100012  25.8434997 114.2129988  24.4680012  25.8024997 114.9219988
  25.1470012  26.7694997 113.9749988  25.0270664  25.9631430 114.2779219
  25.1070012  26.0644997 109.1249988  24.2140012  25.7234997 109.0659988
  25.5570012  25.6874997 108.3689988  25.0458130  25.9669631 109.0147702
  30.6420012  26.4804997 107.9419988  30.2330012  27.2954997 107.6509988
  31.3630012  26.3404997 107.3279988  30.6834537  26.5732018 107.8191342
  29.7440012  26.6554997 119.4299988  29.1820012  25.9514997 119.7509988
  30.5710012  26.5354997 119.8979988  29.7787095  26.5427883 119.5372330
  31.6470012  25.9264997 110.7559988  31.4520012  26.5314997 110.0409988
  31.8280012  25.0924997 110.3219988  31.6447614  25.8966300 110.5994405
  22.8600012  26.1634997 116.0799988  22.8220012  26.5634997 116.9489988
  22.3690012  25.3464997 116.1709988  22.7884684  26.1078069 116.2111059
  19.4680012  23.2794997 109.9309988  20.0990012  23.2504997 110.6499988
  19.9170012  22.8544997 109.1999988  19.6150918  23.2180836 109.9306441
  20.7420012  24.0254997 105.3549988  21.2160012  24.6164997 104.7699988
  20.0250012  24.5564997 105.7019988  20.7099341  24.1780867 105.3218836
  30.9110012  27.5644997 115.4269988  31.2340012  26.9334997 114.7839988
  30.4710012  27.0294997 116.0879988  30.8957484  27.4058387 115.4283198
  27.6880012  23.4914997 110.2109988  26.7770012  23.5484997 110.4999988
  28.1940012  23.4314997 111.0219988  27.6316899  23.4911941 110.3601184
  22.5170012  25.1204997 109.0379988  21.6270012  25.2204997 108.6979988
  22.8130012  24.2784997 108.6919988  22.4352823  25.0203545 108.9447213
  26.1700012  25.1204997 106.6949988  27.1010012  25.2494997 106.8729988
  25.9550012  25.7904997 106.0449988  26.2684247  25.2286565 106.6315747
  32.0930012  22.7264997 113.4759988  31.4170012  22.8574997 114.1399988
  31.6080012  22.5714997 112.6649988  31.9347146  22.7235157 113.4574469
  24.8440012  26.3154997 104.2609988  24.3010012  25.9354997 103.5699988
  25.6770012  26.5094997 103.8329988  24.8823631  26.2897125 104.1084501
  35.3810012  38.3984997 119.7519988  35.5810012  38.8224997 118.9179988
  36.0360012  38.7414997 120.3589988  35.4970072  38.5029857 119.7198592
  22.9790012  30.8724997 119.3599988  23.7110012  31.1264997 119.9219988
  22.1990012  31.0764997 119.8759988  22.9737073  30.9348160 119.5066151
  29.0080012  26.2794997 112.0979988  29.5730012  25.7324997 111.5509988
  28.8610012  25.7574997 112.8869988  29.0653380  26.1342259 112.1298695
  24.0100012  22.4154997 108.5169988  23.6930012  21.5134997 108.4809988
  24.7920012  22.4174997 107.9639988  24.0722408  22.2922474 108.4373569
  27.6350012  24.6674997 114.5119988  26.7990012  25.1214997 114.6229988
  28.1590012  24.9434997 115.2639988  27.5915416  24.7668660 114.6288119
  28.1790012  30.8804997 106.1969988  27.4340012  30.3734997 105.8749988
  28.0450012  30.9294997 107.1439988  28.0588776  30.8176940 106.2808647
  35.3290012  30.0134997 114.9839988  35.9710012  30.4704997 114.4399988
  34.4990012  30.1264997 114.5209988  35.3045963  30.0912704 114.8470177
  32.0770012  23.6944997 104.3959988  31.1380012  23.8064997 104.2449988
  32.3740012  24.5514997 104.7029988  31.9887583  23.8255981 104.4168337
  29.6980012  31.0644997 117.4339988  29.3530012  30.6834997 118.2409988
  29.4980012  31.9984997 117.5049988  29.6237527  31.1385135 117.5540689
  32.7950012  25.5614997 106.0569988  33.6870012  25.4244997 106.3759988
  32.8520012  26.3524997 105.5199988  32.9246504  25.6496052 106.0280818
  23.3040012  30.1754997 111.9669988  24.0490012  30.1734997 111.3659988
  23.3820012  29.3524997 112.4479988  23.4164995  30.0638887 111.9498282
  30.3050012  32.3394997 105.2229988  30.0090012  33.1654997 105.6039988
  29.6020012  31.7194997 105.4189988  30.1694914  32.3688199 105.3016443
  20.3120012  28.6364997 117.2819988  20.5350012  28.2184997 118.1139988
  19.7100012  28.0234997 116.8589988  20.2611759  28.4964668 117.3387022
  27.3280012  28.1534997 119.4949988  27.0320012  27.9874997 118.5999988
  28.2600012  27.9334997 119.4839988  27.4134166  28.1010640 119.3710536
  31.9490012  33.5264997 117.3849988  31.0480012  33.7094997 117.1169988
  31.9830012  33.7854997 118.3049988  31.8303139  33.5865849 117.4728099
  37.6430012  31.5714997 118.5889988  36.7920012  31.8094997 118.2219988
  38.2340012  31.5544997 117.8359988  37.6062487  31.6018258 118.4368893
  35.9750012  34.5574997 106.2169988  35.6020012  33.7314997 106.5259988
  36.2530012  34.3744997 105.3189988  35.9615222  34.4197430 106.1379473
  33.1360012  29.3654997 113.2379988  32.2070012  29.1334997 113.2109988
  33.5870012  28.5884997 112.9079988  33.0699216  29.2287238 113.1896917
  25.6790012  33.6934997 109.3709988  26.2060012  34.4664997 109.1709988
  24.7990012  33.9184997 109.0689988  25.6322031  33.8297545 109.3027912
  27.1060012  31.3564997 108.9469988  26.8650012  32.2814997 108.9889988
  26.3650012  30.8974997 109.3439988  26.9729225  31.4210933 109.0063742
  27.6210012  35.5054997 115.2629988  27.9830012  36.3604997 115.0289988
  28.1520012  35.2134997 116.0029988  27.7424473  35.5831060 115.3310855
  25.7890012  36.3784997 108.4929988  24.8390012  36.4834997 108.5439988
  26.1410012  37.1984997 108.8369988  25.7064195  36.5038800 108.5465502
  31.1650012  31.6044997 114.9629988  30.7390012  31.3774997 115.7899988
  31.7450012  30.8664997 114.7809988  31.1851868  31.4735299 115.0515830
  33.8230012  36.1564997 117.4329988  33.2220012  35.6014997 116.9369988
  34.1050012  36.8234997 116.8059988  33.7788804  36.1706625 117.2804849
  21.9460012  23.3894997 116.8399988  21.0530012  23.7284997 116.7719988
  21.8470012  22.5344997 117.2579988  21.8104164  23.3202588 116.8872235
  34.2340012  31.2064997 106.2639988  33.9560012  30.4784997 106.8199988
  35.1610012  31.3254997 106.4689988  34.3213124  31.1228802 106.3678845
  21.5970012  35.1944997 115.2749988  21.8140012  34.2624997 115.2439988
  21.8430012  35.4684997 116.1579988  21.6599549  35.1040636 115.3901763
  22.8490012  30.4684997 105.4509988  22.1630012  30.8204997 106.0179988
  23.3710012  31.2314997 105.2039988  22.8256852  30.6198578 105.4952118
  30.6800012  23.1304997 115.7299988  31.3790012  23.2044997 116.3799988
  30.2990012  22.2664997 115.8839988  30.7241767  23.0237624 115.8398322
  31.4650012  22.7824997 106.8269988  31.6850012  23.2544997 106.0239988
  32.0230012  23.1774997 107.4969988  31.5704968  22.9004285 106.8077331
  29.1330012  34.9134997 105.6899988  28.3170012  35.4104997 105.7419988
  29.6630012  35.3884997 105.0499988  29.0929161  35.0457722 105.6105956
  28.6650012  24.5104997 107.6619988  29.4770012  25.0154997 107.7079988
  28.4200012  24.3654997 108.5759988  28.7430520  24.5600375 107.7918517
  29.2000012  25.4964997 116.8459988  29.3190012  26.0704997 117.6039988
  29.8560012  24.8084997 116.9609988  29.3049025  25.4819858 116.9651321
  29.5480012  21.5914997 108.5999988  29.2020012  22.2094997 109.2439988
  30.2070012  22.0924997 108.1179988  29.5896968  21.7436278 108.6229383
  25.2060012  22.6544997 105.2869988  25.1230012  23.5434997 105.6339988
  26.0960012  22.3894997 105.5189988  25.3149469  22.7401430 105.3657626
  35.4050012  23.4034997 117.6809988  34.4880012  23.6664997 117.5939988
  35.7400012  23.4004997 116.7849988  35.3248613  23.4390761 117.5478837
  34.0070012  27.1544997 111.7769988  33.2090012  26.7394997 111.4489988
  34.4520012  26.4634997 112.2679988  33.9579885  27.0043543 111.7984889
  35.0930012  36.4104997 113.3999988  34.9380012  37.0884997 112.7419988
  36.0260012  36.4824997 113.6029988  35.1978657  36.5129546 113.3374360
  22.5890012  20.5284997 112.1369988  22.3600012  20.5874997 111.2089988
  22.1460012  19.7364997 112.4429988  22.4978530  20.4295753 112.0514786
  21.5190012  34.4684997 108.2969988  20.6870012  34.9414997 108.3239988
  22.0650012  34.9784997 107.6989988  21.4790352  34.6021332 108.2198463
  20.8070012  37.0814997 119.6269988  21.3480012  36.8644997 120.3869988
  20.3260012  36.2754997 119.4369988  20.8159951  36.9429270 119.7052576
  25.4050012  36.0004997 121.2469988  26.1720012  35.5414997 121.5879988
  25.3830012  35.7744997 120.3179988  25.5071275  35.9070186 121.1680101
  29.4970012  35.5084997 102.6229988  28.8530012  34.8774997 102.9439988
  30.2590012  34.9774997 102.3909988  29.5118077  35.3502920 102.6356011
  31.9820012  34.3804997 119.9769988  31.6310012  33.5244997 120.2199988
  32.7080012  34.5234997 120.5839988  32.0320769  34.2825636 120.0923619
  20.7140012  30.8914997 120.5809988  20.8580012  29.9894997 120.2949988
  19.9420012  31.1774997 120.0939988  20.6292753  30.8066816 120.4759505
  27.3700012  30.8614997 120.0139988  27.0410012  31.1324997 119.1569988
  27.5220012  29.9204997 119.9269988  27.3454809  30.7713862 119.8848244
  30.4080012  32.2824997 102.4499988  30.1390012  32.4624997 103.3509988
  30.2020012  31.3564997 102.3179988  30.3433427  32.1820261 102.5555073
  33.1040012  30.7774997 117.3969988  33.8500012  31.3654997 117.2779988
  32.3470012  31.3594997 117.4609988  33.1037820  30.9367143 117.3893590
  21.5470012  28.0914997 120.0009988  21.9550012  27.2344997 119.8799988
  21.2870012  28.1064997 120.9219988  21.5677568  27.9760807 120.1089588
  26.2050012  29.2074997 105.0199988  25.7450012  28.7234997 105.7059988
  26.4600012  28.5394997 104.3839988  26.1764902  29.0508731 105.0279334
  25.4940012  27.1004997 117.3759988  24.8760012  27.7754997 117.6559988
  25.8380012  27.4214997 116.5419988  25.4559132  27.2362411 117.3016262
  27.2760012  27.4504997 103.2819988  27.0960012  27.2964997 102.3549988
  28.2260012  27.5584997 103.3269988  27.3797776  27.4440175 103.1611843
  30.5140012  29.5724997 120.6529988  31.4670012  29.6554997 120.6259988
  30.3530012  28.8604997 121.2729988  30.6226426  29.4876746 120.7330579
  25.8330012  24.4554997 118.4579988  25.9830012  23.7264997 117.8559988
  25.8360012  25.2324997 117.8989988  25.8539302  24.4607851 118.3000692
  26.2460012  22.8254997 115.9509988  26.7820012  23.2764997 115.2989988
  25.3940012  22.7174997 115.5279988  26.2042178  22.8726390 115.8045756
  27.8280012  28.2644997 116.1899988  28.5780012  28.1084997 115.6169988
  27.4890012  29.1164997 115.9149988  27.8848921  28.3582968 116.0743561
  32.2430012  26.0794997 121.2189988  32.4360012  25.1484997 121.1069988
  33.1010012  26.5044997 121.2079988  32.3852934  26.0096531 121.2022031
  33.5600012  28.8684997 119.2959988  33.2790012  29.5774997 118.7179988
  34.5030012  28.7954997 119.1449988  33.6489291  28.9556711 119.1964967
  24.3120012  25.6534997 120.3699988  23.5450012  25.1214997 120.1589988
  24.9910012  25.3434997 119.7699988  24.2987877  25.5388300 120.2600716
  27.0520012  20.2814997 116.3819988  26.9530012  21.2284997 116.2769988
  26.3090012  19.9094997 115.9059988  26.9381184  20.3605863 116.3033621
  28.3160012  24.6034997 119.9459988  28.0800012  24.3834997 120.8469988
  27.5320012  24.3964997 119.4359988  28.1778504  24.5454586 120.0003431
  31.0310012  23.7304997 119.0209988  30.0840012  23.7624997 119.1539988
  31.3440012  23.1054997 119.6749988  30.9436707  23.6503998 119.1276060
  32.6650012  22.3644997 121.0269988  32.5690012  21.4124997 121.0209988
  32.3440012  22.6334997 121.8869988  32.6084070  22.2704035 121.1425441
  22.4920012  23.5744997 120.0739988  22.7040012  22.8674997 119.4639988
  22.3810012  23.1364997 120.9179988  22.5059721  23.4187084 120.1046843
  27.2730012  19.5754997 119.0529988  27.9850012  18.9354997 119.0389988
  27.1720012  19.8424997 118.1399988  27.3568066  19.5240079 118.9275677
  27.6270012  21.2584997 121.1069988  27.4950012  20.7824997 120.2869988
  27.0280012  22.0024997 121.0519988  27.5279071  21.2939618 120.9872886
  27.1730012  38.1414997 104.2829988  28.1060012  38.2994997 104.4269988
  26.9090012  38.8164997 103.6589988  27.2649888  38.2544510 104.2182842
  20.7420012  32.7774997 103.7659988  21.6560012  32.8564997 104.0399988
  20.7490012  32.0904997 103.0999988  20.8681131  32.6953961 103.7134393
  19.3910012  38.1704997 108.8439988  18.7440012  37.7084997 108.3109988
  19.7450012  37.4984997 109.4259988  19.3503849  38.0164723 108.8497959
  20.2610012  36.2514997 110.6479988  19.9260012  35.3714997 110.8199988
  20.4830012  36.5964997 111.5129988  20.2451783  36.1777500 110.7884208
  37.8090012  37.0604997 113.6289988  37.7880012  37.2454997 114.5679988
  38.5000012  37.6294997 113.2879988  37.8994618  37.1626606 113.7113864
  37.3730012  36.6284997 116.5509988  36.8850012  35.8924997 116.1789988
  37.9220012  36.2344997 117.2289988  37.3804820  36.4745889 116.5917813
  35.8230012  32.4174997 121.1889988  34.9570012  32.3124997 121.5829988
  36.2000012  33.1764997 121.6349988  35.7553308  32.5056900 121.3032393
  37.1240012  30.6744997 106.7029988  37.9740012  31.0954997 106.8299988
  37.1300012  29.9344997 107.3099988  37.2411372  30.6320803 106.8024344
  37.5190012  28.7274997 108.5259988  36.7920012  28.2484997 108.9239988
  38.1000012  28.9334997 109.2589988  37.4980473  28.6898103 108.6794528
  37.2780012  31.5124997 113.4739988  38.1110012  31.1344997 113.1939988
  37.3900012  32.4554997 113.3549988  37.4072647  31.5882218 113.4195487
  35.7640012  34.3904997 115.7809988  35.1170012  34.7154997 116.4069988
  35.2470012  33.9504997 115.1069988  35.6054029  34.3755004 115.7755827
  37.7870012  28.6284997 104.9179988  37.2650012  28.9854997 104.1989988
  37.7540012  29.3034997 105.5959988  37.7111634  28.7685413 104.9113145
  35.3050012  27.2484997 109.0889988  35.1550012  26.3034997 109.0689988
  34.9520012  27.5294997 109.9329988  35.2367448  27.1571481 109.2003705
  20.3410012  29.3264997 113.0999988  20.5250012  29.2444997 112.1639988
  21.1900012  29.2024997 113.5229988  20.4810151  29.2985073 113.0291451
  36.1620012  29.2184997 118.7279988  36.7450012  28.4844997 118.9199988
  36.7260012  29.9904997 118.7749988  36.3179769  29.2224227 118.7606159
  37.6580012  27.1214997 119.4129988  36.7950012  26.7424997 119.2469988
  38.2630012  26.3824997 119.3379988  37.6216119  26.9698268 119.3801528
  35.0160012  24.8314997 107.5519988  35.2960012  23.9244997 107.6759988
  35.7750012  25.2654997 107.1629988  35.1569277  24.7660942 107.5163682
  35.6280012  25.4124997 112.9879988  36.5610012  25.6244997 112.9529988
  35.3930012  25.5144997 113.9099988  35.7239244  25.4553100 113.1078892
  35.6570012  26.1494997 115.7639988  34.8140012  26.4174997 116.1299988
  36.0990012  26.9714997 115.5529988  35.6014158  26.2973291 115.7855491
  19.9380012  24.5974997 119.2409988  20.8580012  24.4754997 119.4769988
  19.4890012  23.8474997 119.6299988  20.0031580  24.4793727 119.3259006
  37.9400012  20.1294997 121.1169988  38.2900012  19.4754997 120.5119988
  38.0870012  20.9664997 120.6769988  38.0077887  20.1531548 120.9746858
  35.6290012  22.0944997 107.5999988  35.8120012  21.6454997 108.4259988
  35.0300012  21.5094997 107.1369988  35.5730202  21.9539975 107.6503275
  21.1590012  22.9094997 112.1319988  21.6050012  22.1174997 112.4339988
  21.6260012  23.6254997 112.5619988  21.2830831  22.8980685 112.2314006
  19.4630012  25.9084997 113.2009988  19.9550012  25.6874997 112.4099988
  19.8260012  26.7494997 113.4819988  19.5793126  25.9918357 113.1307531
  37.4600012  22.2384997 119.4659988  36.5420012  22.5094997 119.4309988
  37.5830012  21.7034997 118.6819988  37.3509729  22.2032508 119.3551923
  19.7770012  22.1664997 107.2549988  18.8520012  22.3754997 107.1259988
  20.2310012  22.6504997 106.5649988  19.7117292  22.2605343 107.1440720
  34.5480012  37.1504997 109.2009988  35.2000012  36.8034997 108.5929988
  35.0580012  37.6394997 109.8469988  34.7062637  37.1690597 109.2050236
  19.7410012  20.9044997 115.5989988  19.0760012  20.6584997 116.2429988
  19.2980012  21.5264997 115.0219988  19.5901318  20.9549410 115.6090898
  21.9330012  34.0794997 119.7439988  21.1120012  34.2544997 119.2829988
  21.6800012  34.0064997 120.6639988  21.7865585  34.0935544 119.8053561
  24.8870012  35.0544997 116.0019988  24.4620012  35.8634997 115.7199988
  25.7910012  35.1394997 115.6999988  24.9509975  35.1769300 115.9224816
  29.1980012  36.4534997 118.9619988  29.3830012  36.1194997 119.8399988
  30.0440012  36.7624997 118.6399988  29.3377539  36.4496047 119.0385605
  31.5430012  37.7394997 118.2059988  32.2200012  37.1064997 117.9659988
  31.8650012  38.1404997 119.0129988  31.6791637  37.7071154 118.2822793
  36.4600012  20.3284997 117.2849988  35.6480012  20.6534997 116.8979988
  36.6930012  19.5684997 116.7519988  36.3802203  20.2702758 117.1598880
  22.2890012  38.3104997 116.0499988  21.5680012  38.7504997 115.5989988
  21.9230012  38.0594997 116.8979988  22.1409651  38.3367242 116.1029640
  24.7560012  37.9104997 115.0799988  23.8910012  37.9824997 115.4839988
  24.7010012  38.4574997 114.2959988  24.6302085  37.9942685 115.0293362
  29.4660012  37.7984997 114.2549988  29.0100012  38.3274997 113.6009988
  29.6290012  38.4014997 114.9799988  29.4256068  37.9524607 114.2634838
  31.7940012  36.6764997 115.1999988  30.8890012  36.8414997 114.9339988
  32.2230012  37.5294997 115.1349988  31.7281324  36.8144339 115.1547976
  34.3980012  38.2464997 115.4949988  34.2160012  39.1624997 115.2849988
  34.5750012  37.8364997 114.6489988  34.3970210  38.3164822 115.3517885
  21.7030012  36.9334997 112.9599988  21.6850012  36.5084997 113.8169988
  22.5080012  36.6154997 112.5509988  21.8093529  36.8323013 113.0220946
  23.8450012  35.6434997 111.6149988  23.6260012  34.7274997 111.7849988
  24.6690012  35.7834997 112.0809988  23.9264420  35.5370520 111.7012773
  26.3820012  36.1134997 112.4639988  26.5950012  35.2254997 112.1769988
  26.4460012  36.0794997 113.4179988  26.4198231  35.9873102 112.5537397
  29.8900012  21.7774997 111.6079988  29.2160012  21.1484997 111.8639988
  30.4540012  21.2934997 111.0049988  29.8739230  21.6258744 111.5615340
  35.0330012  19.8854997 111.7209988  35.6370012  20.4324997 111.2189988
  34.1630012  20.2044997 111.4799988  34.9981208  20.0035137 111.6196886
  36.7600012  21.0234997 110.0539988  37.3720012  20.5094997 109.5269988
  37.1420012  21.9014997 110.0769988  36.8953371  21.0717866 109.9850041
  22.2170012  20.4114997 109.4299988  21.4400012  20.1774997 108.9229988
  22.7470012  19.6144997 109.4389988  22.1822330  20.2716988 109.3617742
  21.0530012  20.2094997 105.2339988  21.4920012  20.8204997 104.6419988
  20.4200012  20.7474997 105.7079988  21.0274514  20.3659257 105.2170930
  26.7960012  20.3384997 109.2439988  27.6710012  20.7264997 109.2139988
  26.6600012  20.1234997 110.1659988  26.8973695  20.3625184 109.3646440
  32.3530012  20.3684997 110.8929988  32.4290012  20.4634997 109.9429988
  32.0780012  19.4604997 111.0219988  32.3262321  20.2587867 110.7805079
  33.7060012  20.3944997 106.5849988  33.0040012  21.0094997 106.3749988
  33.2620012  19.5564997 106.7159988  33.5496450  20.3655639 106.5739000
  20.9540012  36.1574997 106.1309988  20.2690012  36.1194997 105.4639988
  20.9580012  37.0704997 106.4199988  20.8606998  36.2756733 106.0786771
  22.9140012  22.1254997 103.6759988  23.4060012  21.4954997 103.1489988
  23.5380012  22.4214997 104.3389988  23.0655688  22.0793804 103.6935482
  27.9400012  22.4184997 106.1329988  28.1180012  21.7724997 106.8159988
  27.8870012  23.2524997 106.5999988  27.9571999  22.4428009 106.2895917
  29.8190012  37.3674997 104.5289988  30.6850012  37.7334997 104.3509988
  29.5720012  36.9274997 103.7149988  29.9042392  37.3581756 104.3946289
  36.5280012  36.9304997 107.2079988  36.3330012  36.1824997 106.6429988
  36.4890012  37.6884997 106.6249988  36.4960380  36.9306099 107.0518384
  22.1750012  20.9254997 118.9479988  21.8090012  20.1604997 119.3899988
  23.0880012  20.9544997 119.2339988  22.2482736  20.8245640 119.0472502
  24.1480012  20.2764997 120.4839988  25.0460012  20.0024997 120.2989988
  23.7610012  19.5334997 120.9479988  24.2186612  20.1385914 120.5213643
  22.7720012  37.0774997 103.1569988  22.5050012  37.3644997 104.0299988
  23.5440012  36.5314997 103.3089988  22.8397488  37.0430294 103.2971050
  32.5690012  19.6084997 120.6659988  32.6460012  19.1824997 121.5199988
  33.4630012  19.6224997 120.3229988  32.7003428  19.5520879 120.7365310
  35.7450012  35.6814997 119.3579988  34.9630012  35.4954997 118.8379988
  35.6730012  36.6104997 119.5759988  35.6282274  35.7816643 119.3163018
  50.1510012  29.5674997 109.3889988  50.2400012  30.5114997 109.2569988
  49.5130012  29.2924997 108.7309988  50.0769081  29.6594830 109.2819614
  49.0840012  28.8224997 112.8079988  49.0460012  28.1764997 113.5129988
  48.7620012  28.3564997 112.0369988  49.0352333  28.6709408 112.8002978
  41.4530012  28.4374997 114.4009988  41.4940012  27.8114997 115.1239988
  42.1560012  29.0614997 114.5829988  41.5536363  28.4361196 114.5246044
  52.7900012  31.7614997 111.1089988  52.3500012  31.0414997 111.5599988
  52.7770012  32.4824997 111.7389988  52.7280226  31.7603731 111.2558494
  42.3760012  32.8874997 112.9359988  42.0070012  32.0854997 112.5659988
  43.3170012  32.7184997 112.9819988  42.4527289  32.7550153 112.8916316
  38.9860012  26.5474997 108.3289988  38.5390012  27.3934997 108.3099988
  38.4250012  25.9674997 107.8129988  38.8489900  26.5849916 108.2566801
  39.6970012  28.7094997 110.4539988  39.9100012  27.9394997 110.9819988
  40.4350012  28.7984997 109.8509988  39.8259044  28.6161968 110.4447123
  49.9020012  36.8664997 111.3209988  50.5220012  36.1894997 111.0479988
  49.6940012  36.6484997 112.2299988  49.9586726  36.7444800 111.4064812
  47.4740012  31.2554997 113.2139988  47.7780012  30.5694997 112.6189988
  48.1950012  31.3734997 113.8319988  47.6130671  31.1776304 113.2161816
  56.1370012  22.8564997 114.0749988  56.1860012  23.4664997 114.8099988
  56.5620012  23.3174997 113.3519988  56.2011746  23.0023796 114.0779175
  50.6150012  25.6494997 113.5409988  50.7570012  24.7034997 113.5619988
  50.5080012  25.8564997 112.6129988  50.6199919  25.5478246 113.4183408
  43.7690012  23.7504997 110.8139988  43.8130012  24.6104997 110.3949988
  43.3120012  23.1984997 110.1799988  43.7132240  23.7934422 110.6709864
  51.4920012  23.8814997 109.2149988  52.1380012  23.5524997 109.8389988
  52.0020012  24.3994997 108.5919988  51.6494299  23.9064450 109.2162731
  40.3900012  26.1474997 111.5759988  41.0430012  25.5974997 112.0079988
  40.4140012  25.8734997 110.6589988  40.4826683  26.0351466 111.5112123
  45.5460012  27.6974997 110.7909988  46.1620012  27.1714997 111.3009988
  44.9600012  27.0574997 110.3879988  45.5510810  27.5389208 110.8063173
  56.5280012  24.3344997 116.3099988  55.8400012  24.9924997 116.2149988
  56.5440012  24.1374997 117.2469988  56.4359540  24.3979819 116.4235990
  42.5800012  22.6684997 114.8879988  42.3610012  23.1984997 114.1219988
  41.9120012  22.8954997 115.5349988  42.4597600  22.7716906 114.8706379
  49.9490012  32.1684997 108.4319988  49.6530012  31.8464997 107.5809988
  49.6240012  33.0684997 108.4729988  49.8646371  32.2460215 108.3211801
  45.1490012  30.3444997 115.1749988  44.4090012  30.9424997 115.2789988
  45.8630012  30.8984997 114.8599988  45.1442237  30.5012831 115.1466465
  53.2560012  23.1724997 111.1949988  53.0400012  22.4064997 111.7279988
  53.9110012  23.6444997 111.7079988  53.3150632  23.1315889 111.3372861
  42.1730012  24.5604997 112.8399988  42.7870012  25.1934997 113.2129988
  42.6850012  24.0884997 112.1839988  42.3261981  24.5832267 112.8022908
  43.5560012  32.3084997 115.9619988  43.5510012  33.1884997 115.5839988
  42.7030012  32.2254997 116.3869988  43.4399464  32.4176117 115.9677907
  39.6770012  31.9794997 106.7439988  39.4050012  32.2084997 105.8559988
  39.7230012  32.8174997 107.2049988  39.6459482  32.1241318 106.6846273
  53.3020012  33.6014997 113.4569988  52.3610012  33.6594997 113.6189988
  53.5790012  34.5074997 113.3199988  53.2104679  33.7319443 113.4606815
  53.6030012  21.8874997 114.8749988  52.8670012  22.4984997 114.8369988
  54.2860012  22.3024997 114.3479988  53.5946541  22.0271374 114.7985832
  46.6060012  19.9744997 112.3399988  46.4890012  19.0254997 112.2859988
  45.7510012  20.3064997 112.6139988  46.4744212  19.8895571 112.3696497
  51.5540012  35.3824997 110.0819988  51.9800012  34.6754997 109.5969988
  51.8710012  36.1834997 109.6659988  51.6551683  35.3941017 109.9593680
  52.7140012  33.2834997 108.5909988  52.4560012  32.5934997 107.9799988
  52.7850012  32.8404997 109.4369988  52.6882856  33.1292124 108.6216885
  54.4000012  31.8494997 117.0679988  54.5400012  31.2584997 116.3289988
  54.5670012  32.7224997 116.7119988  54.4417411  31.8865428 116.9186894
  48.8730012  28.8114997 106.8409988  48.1610012  29.3464997 106.4889988
  49.5640012  28.8674997 106.1809988  48.8690132  28.8922543 106.7036289
  56.2420012  28.1894997 115.1339988  55.5890012  28.8844997 115.2239988
  56.7070012  28.3994997 114.3249988  56.2155274  28.3130643 115.0368462
  52.2780012  29.0214997 107.7929988  51.5460012  29.2494997 108.3659988
  52.7260012  28.3074997 108.2469988  52.2382725  28.9562145 107.9328816
  52.1760012  27.1954997 116.8599988  52.2560012  27.9584997 117.4319988
  51.5740012  27.4744997 116.1699988  52.1055756  27.3377134 116.8450589
  43.9240012  29.6514997 109.6749988  43.5930012  29.2814997 108.8569988
  44.5120012  28.9814997 110.0219988  43.9581873  29.5101156 109.6098102
  45.2900012  33.0794997 112.3559988  45.1960012  32.5014997 111.5999988
  46.0200012  32.7084997 112.8529988  45.3757387  32.9501663 112.3195342
  44.2900012  28.4204997 113.3089988  44.8560012  28.5414997 112.5459988
  44.6090012  29.0574997 113.9469988  44.4105474  28.5232219 113.2909862
  50.5990012  33.9234997 114.0429988  50.3590012  34.5854997 114.6909988
  50.4010012  33.0894997 114.4679988  50.5393808  33.9013134 114.1891524
  45.1700012  32.8194997 118.0259988  44.8590012  33.6014997 118.4809988
  44.5200012  32.6664997 117.3399988  45.0395558  32.9059105 117.9955871
  51.1490012  28.1834997 105.4779988  51.7290012  28.3334997 106.2249988
  51.5630012  28.6544997 104.7539988  51.2842997  28.2676578 105.4824058
  42.0900012  29.0174997 117.2539988  42.1610012  29.6684997 117.9529988
  41.2000012  29.1204997 116.9189988  41.9793005  29.1205427 117.3043495
  48.8760012  34.9204997 108.9129988  49.3500012  35.2154997 109.6899988
  48.3130012  35.6584997 108.6799988  48.8648184  35.0607247 108.9879628
  43.4100012  34.8914997 118.7889988  43.4170012  34.7554997 117.8419988
  42.4940012  34.7734997 119.0409988  43.2871714  34.8569430 118.6934666
  54.8480012  19.9334997 105.2909988  53.9480012  20.0724997 105.5859988
  55.1000012  20.7644997 104.8889988  54.7588702  20.0649074 105.2770205
  42.9140012  28.7214997 107.2639988  42.6220012  29.4894997 106.7739988
  42.2400012  28.0614997 107.1019988  42.7828111  28.7375587 107.1748978
  39.0070012  31.0844997 116.0789988  38.5060012  31.0564997 115.2639988
  39.0120012  30.1784997 116.3889988  38.9390944  30.9582396 116.0093226
  38.7570012  33.8644997 112.9629988  39.7030012  33.7204997 112.9439988
  38.6450012  34.6484997 113.4999988  38.8712727  33.9508046 113.0330072
  56.9550012  34.5304997 118.6459988  56.9060012  33.5754997 118.6089988
  56.1280012  34.7984997 119.0469988  56.8364940  34.4358998 118.6951375
  47.9340012  34.1044997 117.5219988  48.0210012  34.9304997 117.9969988
  47.0700012  33.7744997 117.7709988  47.8291964  34.1729878 117.6206549
  48.3480012  37.8764997 107.3279988  48.2730012  37.7554997 106.3809988
  48.3810012  38.8264997 107.4459988  48.3422068  37.9882646 107.2144967
  42.0010012  36.6654997 109.1089988  42.1540012  36.3174997 109.9869988
  41.1510012  36.3094997 108.8539988  41.9069166  36.5696216 109.1948079
  51.4500012  37.0304997 104.3299988  51.8250012  36.2864997 103.8589988
  51.4540012  36.7604997 105.2489988  51.5019125  36.8920986 104.3896483
  51.1190012  36.9564997 107.0789988  50.1830012  37.0564997 107.2579988
  51.3990012  36.2474997 107.6579988  51.0289553  36.8743406 107.1817087
  54.1070012  26.0234997 119.1259988  53.7000012  26.5044997 118.4049988
  54.1480012  25.1184997 118.8179988  54.0568437  25.9669374 118.9856683
  41.2560012  32.4074997 117.1229988  41.4720012  32.0464997 117.9819988
  40.4010012  32.0334997 116.9129988  41.1699292  32.3074111 117.2123386
  43.8750012  20.8774997 113.1179988  43.0130012  20.7904997 112.7099988
  43.8520012  21.7334997 113.5459988  43.7540409  20.9812883 113.1200589
  48.5380012  20.5994997 116.4929988  48.9580012  20.1844997 117.2459988
  47.6050012  20.4214997 116.6099988  48.4693644  20.5185900 116.6119539
  51.8640012  24.3554997 117.3459988  51.3500012  24.2294997 118.1439988
  51.7090012  25.2674997 117.1019988  51.7726852  24.4616132 117.4222158
  52.6270012  29.2164997 103.1079988  52.6690012  28.9934997 102.1779988
  53.4760012  29.6154997 103.2969988  52.7475280  29.2399438 103.0063554
  43.9660012  25.8434997 114.2129988  43.3240012  25.8024997 114.9219988
  44.0030012  26.7694997 113.9749988  43.8830664  25.9631430 114.2779219
  43.9630012  26.0644997 109.1249988  43.0700012  25.7234997 109.0659988
  44.4130012  25.6874997 108.3689988  43.9018130  25.9669631 109.0147702
  49.4980012  26.4804997 107.9419988  49.0890012  27.2954997 107.6509988
  50.2190012  26.3404997 107.3279988  49.5394537  26.5732018 107.8191342
  48.6000012  26.6554997 119.4299988  48.0380012  25.9514997 119.7509988
  49.4270012  26.5354997 119.8979988  48.6347095  26.5427883 119.5372330
  50.5030012  25.9264997 110.7559988  50.3080012  26.5314997 110.0409988
  50.6840012  25.0924997 110.3219988  50.5007614  25.8966300 110.5994405
  41.7160012  26.1634997 116.0799988  41.6780012  26.5634997 116.9489988
  41.2250012  25.3464997 116.1709988  41.6444684  26.1078069 116.2111059
  38.3240012  23.2794997 109.9309988  38.9550012  23.2504997 110.6499988
  38.7730012  22.8544997 109.1999988  38.4710918  23.2180836 109.9306441
  49.7670012  27.5644997 115.4269988  50.0900012  26.9334997 114.7839988
  49.3270012  27.0294997 116.0879988  49.7517484  27.4058387 115.4283198
  46.5440012  23.4914997 110.2109988  45.6330012  23.5484997 110.4999988
  47.0500012  23.4314997 111.0219988  46.4876899  23.4911941 110.3601184
  41.3730012  25.1204997 109.0379988  40.4830012  25.2204997 108.6979988
  41.6690012  24.2784997 108.6919988  41.2912823  25.0203545 108.9447213
  45.0260012  25.1204997 106.6949988  45.9570012  25.2494997 106.8729988
  44.8110012  25.7904997 106.0449988  45.1244247  25.2286565 106.6315747
  50.9490012  22.7264997 113.4759988  50.2730012  22.8574997 114.1399988
  50.4640012  22.5714997 112.6649988  50.7907146  22.7235157 113.4574469
  43.7000012  26.3154997 104.2609988  43.1570012  25.9354997 103.5699988
  44.5330012  26.5094997 103.8329988  43.7383631  26.2897125 104.1084501
  54.2370012  38.3984997 119.7519988  54.4370012  38.8224997 118.9179988
  54.8920012  38.7414997 120.3589988  54.3530072  38.5029857 119.7198592
  41.8350012  30.8724997 119.3599988  42.5670012  31.1264997 119.9219988
  41.0550012  31.0764997 119.8759988  41.8297073  30.9348160 119.5066151
  47.8640012  26.2794997 112.0979988  48.4290012  25.7324997 111.5509988
  47.7170012  25.7574997 112.8869988  47.9213380  26.1342259 112.1298695
  42.8660012  22.4154997 108.5169988  42.5490012  21.5134997 108.4809988
  43.6480012  22.4174997 107.9639988  42.9282408  22.2922474 108.4373569
  46.4910012  24.6674997 114.5119988  45.6550012  25.1214997 114.6229988
  47.0150012  24.9434997 115.2639988  46.4475416  24.7668660 114.6288119
  47.0350012  30.8804997 106.1969988  46.2900012  30.3734997 105.8749988
  46.9010012  30.9294997 107.1439988  46.9148776  30.8176940 106.2808647
  54.1850012  30.0134997 114.9839988  54.8270012  30.4704997 114.4399988
  53.3550012  30.1264997 114.5209988  54.1605963  30.0912704 114.8470177
  50.9330012  23.6944997 104.3959988  49.9940012  23.8064997 104.2449988
  51.2300012  24.5514997 104.7029988  50.8447583  23.8255981 104.4168337
  48.5540012  31.0644997 117.4339988  48.2090012  30.6834997 118.2409988
  48.3540012  31.9984997 117.5049988  48.4797527  31.1385135 117.5540689
  51.6510012  25.5614997 106.0569988  52.5430012  25.4244997 106.3759988
  51.7080012  26.3524997 105.5199988  51.7806504  25.6496052 106.0280818
  42.1600012  30.1754997 111.9669988  42.9050012  30.1734997 111.3659988
  42.2380012  29.3524997 112.4479988  42.2724995  30.0638887 111.9498282
  49.1610012  32.3394997 105.2229988  48.8650012  33.1654997 105.6039988
  48.4580012  31.7194997 105.4189988  49.0254914  32.3688199 105.3016443
  39.1680012  28.6364997 117.2819988  39.3910012  28.2184997 118.1139988
  38.5660012  28.0234997 116.8589988  39.1171759  28.4964668 117.3387022
  46.1840012  28.1534997 119.4949988  45.8880012  27.9874997 118.5999988
  47.1160012  27.9334997 119.4839988  46.2694166  28.1010640 119.3710536
  50.8050012  33.5264997 117.3849988  49.9040012  33.7094997 117.1169988
  50.8390012  33.7854997 118.3049988  50.6863139  33.5865849 117.4728099
  56.4990012  31.5714997 118.5889988  55.6480012  31.8094997 118.2219988
  57.0900012  31.5544997 117.8359988  56.4622487  31.6018258 118.4368893
  54.8310012  34.5574997 106.2169988  54.4580012  33.7314997 106.5259988
  55.1090012  34.3744997 105.3189988  54.8175222  34.4197430 106.1379473
  51.9920012  29.3654997 113.2379988  51.0630012  29.1334997 113.2109988
  52.4430012  28.5884997 112.9079988  51.9259216  29.2287238 113.1896917
  44.5350012  33.6934997 109.3709988  45.0620012  34.4664997 109.1709988
  43.6550012  33.9184997 109.0689988  44.4882031  33.8297545 109.3027912
  45.9620012  31.3564997 108.9469988  45.7210012  32.2814997 108.9889988
  45.2210012  30.8974997 109.3439988  45.8289225  31.4210933 109.0063742
  46.4770012  35.5054997 115.2629988  46.8390012  36.3604997 115.0289988
  47.0080012  35.2134997 116.0029988  46.5984473  35.5831060 115.3310855
  44.6450012  36.3784997 108.4929988  43.6950012  36.4834997 108.5439988
  44.9970012  37.1984997 108.8369988  44.5624195  36.5038800 108.5465502
  50.0210012  31.6044997 114.9629988  49.5950012  31.3774997 115.7899988
  50.6010012  30.8664997 114.7809988  50.0411868  31.4735299 115.0515830
  52.2240012  32.5334997 104.0369988  52.5770012  32.1534997 104.8409988
  51.2750012  32.4404997 104.1239988  52.1440918  32.4688956 104.1588532
  52.6790012  36.1564997 117.4329988  52.0780012  35.6014997 116.9369988
  52.9610012  36.8234997 116.8059988  52.6348804  36.1706625 117.2804849
  40.8020012  23.3894997 116.8399988  39.9090012  23.7284997 116.7719988
  40.7030012  22.5344997 117.2579988  40.6664164  23.3202588 116.8872235
  53.0900012  31.2064997 106.2639988  52.8120012  30.4784997 106.8199988
  54.0170012  31.3254997 106.4689988  53.1773124  31.1228802 106.3678845
  40.4530012  35.1944997 115.2749988  40.6700012  34.2624997 115.2439988
  40.6990012  35.4684997 116.1579988  40.5159549  35.1040636 115.3901763
  45.2520012  33.2154997 104.9399988  45.3980012  32.6954997 105.7299988
  45.2490012  34.1224997 105.2469988  45.2715792  33.2668842 105.0896117
  41.7050012  30.4684997 105.4509988  41.0190012  30.8204997 106.0179988
  42.2270012  31.2314997 105.2039988  41.6816852  30.6198578 105.4952118
  49.5360012  23.1304997 115.7299988  50.2350012  23.2044997 116.3799988
  49.1550012  22.2664997 115.8839988  49.5801767  23.0237624 115.8398322
  50.3210012  22.7824997 106.8269988  50.5410012  23.2544997 106.0239988
  50.8790012  23.1774997 107.4969988  50.4264968  22.9004285 106.8077331
  47.9890012  34.9134997 105.6899988  47.1730012  35.4104997 105.7419988
  48.5190012  35.3884997 105.0499988  47.9489161  35.0457722 105.6105956
  47.5210012  24.5104997 107.6619988  48.3330012  25.0154997 107.7079988
  47.2760012  24.3654997 108.5759988  47.5990520  24.5600375 107.7918517
  48.0560012  25.4964997 116.8459988  48.1750012  26.0704997 117.6039988
  48.7120012  24.8084997 116.9609988  48.1609025  25.4819858 116.9651321
  48.4040012  21.5914997 108.5999988  48.0580012  22.2094997 109.2439988
  49.0630012  22.0924997 108.1179988  48.4456968  21.7436278 108.6229383
  45.3280012  35.9574997 105.6709988  45.4880012  36.7564997 105.1709988
  45.1300012  36.2634997 106.5559988  45.3231637  36.1084020 105.7221144
  44.0620012  22.6544997 105.2869988  43.9790012  23.5434997 105.6339988
  44.9520012  22.3894997 105.5189988  44.1709469  22.7401430 105.3657626
  54.2610012  23.4034997 117.6809988  53.3440012  23.6664997 117.5939988
  54.5960012  23.4004997 116.7849988  54.1808613  23.4390761 117.5478837
  52.8630012  27.1544997 111.7769988  52.0650012  26.7394997 111.4489988
  53.3080012  26.4634997 112.2679988  52.8139885  27.0043543 111.7984889
  53.9490012  36.4104997 113.3999988  53.7940012  37.0884997 112.7419988
  54.8820012  36.4824997 113.6029988  54.0538657  36.5129546 113.3374360
  41.4450012  20.5284997 112.1369988  41.2160012  20.5874997 111.2089988
  41.0020012  19.7364997 112.4429988  41.3538530  20.4295753 112.0514786
  40.3750012  34.4684997 108.2969988  39.5430012  34.9414997 108.3239988
  40.9210012  34.9784997 107.6989988  40.3350352  34.6021332 108.2198463
  39.6630012  37.0814997 119.6269988  40.2040012  36.8644997 120.3869988
  39.1820012  36.2754997 119.4369988  39.6719951  36.9429270 119.7052576
  44.2610012  36.0004997 121.2469988  45.0280012  35.5414997 121.5879988
  44.2390012  35.7744997 120.3179988  44.3631275  35.9070186 121.1680101
  50.8380012  34.3804997 119.9769988  50.4870012  33.5244997 120.2199988
  51.5640012  34.5234997 120.5839988  50.8880769  34.2825636 120.0923619
  39.5700012  30.8914997 120.5809988  39.7140012  29.9894997 120.2949988
  38.7980012  31.1774997 120.0939988  39.4852753  30.8066816 120.4759505
  46.2260012  30.8614997 120.0139988  45.8970012  31.1324997 119.1569988
  46.3780012  29.9204997 119.9269988  46.2014809  30.7713862 119.8848244
  51.9600012  30.7774997 117.3969988  52.7060012  31.3654997 117.2779988
  51.2030012  31.3594997 117.4609988  51.9597820  30.9367143 117.3893590
  40.4030012  28.0914997 120.0009988  40.8110012  27.2344997 119.8799988
  40.1430012  28.1064997 120.9219988  40.4237568  27.9760807 120.1089588
  44.3500012  27.1004997 117.3759988  43.7320012  27.7754997 117.6559988
  44.6940012  27.4214997 116.5419988  44.3119132  27.2362411 117.3016262
  49.3700012  29.5724997 120.6529988  50.3230012  29.6554997 120.6259988
  49.2090012  28.8604997 121.2729988  49.4786426  29.4876746 120.7330579
  55.5220012  29.8054997 102.7279988  55.2480012  29.3804997 101.9149988
  55.5610012  30.7364997 102.5109988  55.4897699  29.8732484 102.5873610
  44.6890012  24.4554997 118.4579988  44.8390012  23.7264997 117.8559988
  44.6920012  25.2324997 117.8989988  44.7099302  24.4607851 118.3000692
  45.1020012  22.8254997 115.9509988  45.6380012  23.2764997 115.2989988
  44.2500012  22.7174997 115.5279988  45.0602178  22.8726390 115.8045756
  46.6840012  28.2644997 116.1899988  47.4340012  28.1084997 115.6169988
  46.3450012  29.1164997 115.9149988  46.7408921  28.3582968 116.0743561
  51.0990012  26.0794997 121.2189988  51.2920012  25.1484997 121.1069988
  51.9570012  26.5044997 121.2079988  51.2412934  26.0096531 121.2022031
  52.4160012  28.8684997 119.2959988  52.1350012  29.5774997 118.7179988
  53.3590012  28.7954997 119.1449988  52.5049291  28.9556711 119.1964967
  43.1680012  25.6534997 120.3699988  42.4010012  25.1214997 120.1589988
  43.8470012  25.3434997 119.7699988  43.1547877  25.5388300 120.2600716
  45.9080012  20.2814997 116.3819988  45.8090012  21.2284997 116.2769988
  45.1650012  19.9094997 115.9059988  45.7941184  20.3605863 116.3033621
  47.1720012  24.6034997 119.9459988  46.9360012  24.3834997 120.8469988
  46.3880012  24.3964997 119.4359988  47.0338504  24.5454586 120.0003431
  49.8870012  23.7304997 119.0209988  48.9400012  23.7624997 119.1539988
  50.2000012  23.1054997 119.6749988  49.7996707  23.6503998 119.1276060
  51.5210012  22.3644997 121.0269988  51.4250012  21.4124997 121.0209988
  51.2000012  22.6334997 121.8869988  51.4644070  22.2704035 121.1425441
  41.3480012  23.5744997 120.0739988  41.5600012  22.8674997 119.4639988
  41.2370012  23.1364997 120.9179988  41.3619721  23.4187084 120.1046843
  46.1290012  19.5754997 119.0529988  46.8410012  18.9354997 119.0389988
  46.0280012  19.8424997 118.1399988  46.2128066  19.5240079 118.9275677
  46.4830012  21.2584997 121.1069988  46.3510012  20.7824997 120.2869988
  45.8840012  22.0024997 121.0519988  46.3839071  21.2939618 120.9872886
  38.2470012  38.1704997 108.8439988  37.6000012  37.7084997 108.3109988
  38.6010012  37.4984997 109.4259988  38.2063849  38.0164723 108.8497959
  39.1170012  36.2514997 110.6479988  38.7820012  35.3714997 110.8199988
  39.3390012  36.5964997 111.5129988  39.1011783  36.1777500 110.7884208
  56.6650012  37.0604997 113.6289988  56.6440012  37.2454997 114.5679988
  57.3560012  37.6294997 113.2879988  56.7554618  37.1626606 113.7113864
  56.2290012  36.6284997 116.5509988  55.7410012  35.8924997 116.1789988
  56.7780012  36.2344997 117.2289988  56.2364820  36.4745889 116.5917813
  54.6790012  32.4174997 121.1889988  53.8130012  32.3124997 121.5829988
  55.0560012  33.1764997 121.6349988  54.6113308  32.5056900 121.3032393
  55.9800012  30.6744997 106.7029988  56.8300012  31.0954997 106.8299988
  55.9860012  29.9344997 107.3099988  56.0971372  30.6320803 106.8024344
  56.3750012  28.7274997 108.5259988  55.6480012  28.2484997 108.9239988
  56.9560012  28.9334997 109.2589988  56.3540473  28.6898103 108.6794528
  56.1340012  31.5124997 113.4739988  56.9670012  31.1344997 113.1939988
  56.2460012  32.4554997 113.3549988  56.2632647  31.5882218 113.4195487
  54.6200012  34.3904997 115.7809988  53.9730012  34.7154997 116.4069988
  54.1030012  33.9504997 115.1069988  54.4614029  34.3755004 115.7755827
  54.1610012  27.2484997 109.0889988  54.0110012  26.3034997 109.0689988
  53.8080012  27.5294997 109.9329988  54.0927448  27.1571481 109.2003705
  39.1970012  29.3264997 113.0999988  39.3810012  29.2444997 112.1639988
  40.0460012  29.2024997 113.5229988  39.3370151  29.2985073 113.0291451
  55.0180012  29.2184997 118.7279988  55.6010012  28.4844997 118.9199988
  55.5820012  29.9904997 118.7749988  55.1739769  29.2224227 118.7606159
  56.5140012  27.1214997 119.4129988  55.6510012  26.7424997 119.2469988
  57.1190012  26.3824997 119.3379988  56.4776119  26.9698268 119.3801528
  53.8720012  24.8314997 107.5519988  54.1520012  23.9244997 107.6759988
  54.6310012  25.2654997 107.1629988  54.0129277  24.7660942 107.5163682
  54.4840012  25.4124997 112.9879988  55.4170012  25.6244997 112.9529988
  54.2490012  25.5144997 113.9099988  54.5799244  25.4553100 113.1078892
  54.5130012  26.1494997 115.7639988  53.6700012  26.4174997 116.1299988
  54.9550012  26.9714997 115.5529988  54.4574158  26.2973291 115.7855491
  38.7940012  24.5974997 119.2409988  39.7140012  24.4754997 119.4769988
  38.3450012  23.8474997 119.6299988  38.8591580  24.4793727 119.3259006
  56.7960012  20.1294997 121.1169988  57.1460012  19.4754997 120.5119988
  56.9430012  20.9664997 120.6769988  56.8637887  20.1531548 120.9746858
  54.4850012  22.0944997 107.5999988  54.6680012  21.6454997 108.4259988
  53.8860012  21.5094997 107.1369988  54.4290202  21.9539975 107.6503275
  40.0150012  22.9094997 112.1319988  40.4610012  22.1174997 112.4339988
  40.4820012  23.6254997 112.5619988  40.1390831  22.8980685 112.2314006
  38.3190012  25.9084997 113.2009988  38.8110012  25.6874997 112.4099988
  38.6820012  26.7494997 113.4819988  38.4353126  25.9918357 113.1307531
  56.3160012  22.2384997 119.4659988  55.3980012  22.5094997 119.4309988
  56.4390012  21.7034997 118.6819988  56.2069729  22.2032508 119.3551923
  38.6330012  22.1664997 107.2549988  37.7080012  22.3754997 107.1259988
  39.0870012  22.6504997 106.5649988  38.5677292  22.2605343 107.1440720
  53.4040012  37.1504997 109.2009988  54.0560012  36.8034997 108.5929988
  53.9140012  37.6394997 109.8469988  53.5622637  37.1690597 109.2050236
  38.5970012  20.9044997 115.5989988  37.9320012  20.6584997 116.2429988
  38.1540012  21.5264997 115.0219988  38.4461318  20.9549410 115.6090898
  40.7890012  34.0794997 119.7439988  39.9680012  34.2544997 119.2829988
  40.5360012  34.0064997 120.6639988  40.6425585  34.0935544 119.8053561
  43.7430012  35.0544997 116.0019988  43.3180012  35.8634997 115.7199988
  44.6470012  35.1394997 115.6999988  43.8069975  35.1769300 115.9224816
  48.0540012  36.4534997 118.9619988  48.2390012  36.1194997 119.8399988
  48.9000012  36.7624997 118.6399988  48.1937539  36.4496047 119.0385605
  50.3990012  37.7394997 118.2059988  51.0760012  37.1064997 117.9659988
  50.7210012  38.1404997 119.0129988  50.5351637  37.7071154 118.2822793
  55.3160012  20.3284997 117.2849988  54.5040012  20.6534997 116.8979988
  55.5490012  19.5684997 116.7519988  55.2362203  20.2702758 117.1598880
  41.1450012  38.3104997 116.0499988  40.4240012  38.7504997 115.5989988
  40.7790012  38.0594997 116.8979988  40.9969651  38.3367242 116.1029640
  43.6120012  37.9104997 115.0799988  42.7470012  37.9824997 115.4839988
  43.5570012  38.4574997 114.2959988  43.4862085  37.9942685 115.0293362
  48.3220012  37.7984997 114.2549988  47.8660012  38.3274997 113.6009988
  48.4850012  38.4014997 114.9799988  48.2816068  37.9524607 114.2634838
  50.6500012  36.6764997 115.1999988  49.7450012  36.8414997 114.9339988
  51.0790012  37.5294997 115.1349988  50.5841324  36.8144339 115.1547976
  53.2540012  38.2464997 115.4949988  53.0720012  39.1624997 115.2849988
  53.4310012  37.8364997 114.6489988  53.2530210  38.3164822 115.3517885
  40.5590012  36.9334997 112.9599988  40.5410012  36.5084997 113.8169988
  41.3640012  36.6154997 112.5509988  40.6653529  36.8323013 113.0220946
  42.7010012  35.6434997 111.6149988  42.4820012  34.7274997 111.7849988
  43.5250012  35.7834997 112.0809988  42.7824420  35.5370520 111.7012774
  45.2380012  36.1134997 112.4639988  45.4510012  35.2254997 112.1769988
  45.3020012  36.0794997 113.4179988  45.2758232  35.9873102 112.5537397
  48.7460012  21.7774997 111.6079988  48.0720012  21.1484997 111.8639988
  49.3100012  21.2934997 111.0049988  48.7299230  21.6258744 111.5615340
  53.8890012  19.8854997 111.7209988  54.4930012  20.4324997 111.2189988
  53.0190012  20.2044997 111.4799988  53.8541208  20.0035137 111.6196886
  55.6160012  21.0234997 110.0539988  56.2280012  20.5094997 109.5269988
  55.9980012  21.9014997 110.0769988  55.7513371  21.0717866 109.9850041
  41.0730012  20.4114997 109.4299988  40.2960012  20.1774997 108.9229988
  41.6030012  19.6144997 109.4389988  41.0382330  20.2716988 109.3617742
  45.6520012  20.3384997 109.2439988  46.5270012  20.7264997 109.2139988
  45.5160012  20.1234997 110.1659988  45.7533695  20.3625184 109.3646440
  51.2090012  20.3684997 110.8929988  51.2850012  20.4634997 109.9429988
  50.9340012  19.4604997 111.0219988  51.1822321  20.2587867 110.7805079
  52.5620012  20.3944997 106.5849988  51.8600012  21.0094997 106.3749988
  52.1180012  19.5564997 106.7159988  52.4056450  20.3655639 106.5739000
  39.8100012  36.1574997 106.1309988  39.1250012  36.1194997 105.4639988
  39.8140012  37.0704997 106.4199988  39.7166998  36.2756733 106.0786771
  41.7700012  22.1254997 103.6759988  42.2620012  21.4954997 103.1489988
  42.3940012  22.4214997 104.3389988  41.9215688  22.0793804 103.6935482
  46.7960012  22.4184997 106.1329988  46.9740012  21.7724997 106.8159988
  46.7430012  23.2524997 106.5999988  46.8131999  22.4428009 106.2895917
  48.6750012  37.3674997 104.5289988  49.5410012  37.7334997 104.3509988
  48.4280012  36.9274997 103.7149988  48.7602392  37.3581756 104.3946289
  55.3840012  36.9304997 107.2079988  55.1890012  36.1824997 106.6429988
  55.3450012  37.6884997 106.6249988  55.3520380  36.9306099 107.0518384
  41.0310012  20.9254997 118.9479988  40.6650012  20.1604997 119.3899988
  41.9440012  20.9544997 119.2339988  41.1042736  20.8245640 119.0472502
  43.0040012  20.2764997 120.4839988  43.9020012  20.0024997 120.2989988
  42.6170012  19.5334997 120.9479988  43.0746612  20.1385914 120.5213643
  51.4250012  19.6084997 120.6659988  51.5020012  19.1824997 121.5199988
  52.3190012  19.6224997 120.3229988  51.5563428  19.5520879 120.7365310
  54.6010012  35.6814997 119.3579988  53.8190012  35.4954997 118.8379988
  54.5290012  36.6104997 119.5759988  54.4842274  35.7816643 119.3163018
  69.0070012  29.5674997 109.3889988  69.0960012  30.5114997 109.2569988
  68.3690012  29.2924997 108.7309988  68.9329081  29.6594830 109.2819614
  67.9400012  28.8224997 112.8079988  67.9020012  28.1764997 113.5129988
  67.6180012  28.3564997 112.0369988  67.8912333  28.6709408 112.8002978
  60.3090012  28.4374997 114.4009988  60.3500012  27.8114997 115.1239988
  61.0120012  29.0614997 114.5829988  60.4096363  28.4361196 114.5246044
  71.6460012  31.7614997 111.1089988  71.2060012  31.0414997 111.5599988
  71.6330012  32.4824997 111.7389988  71.5840226  31.7603731 111.2558494
  61.2320012  32.8874997 112.9359988  60.8630012  32.0854997 112.5659988
  62.1730012  32.7184997 112.9819988  61.3087289  32.7550153 112.8916316
  57.8420012  26.5474997 108.3289988  57.3950012  27.3934997 108.3099988
  57.2810012  25.9674997 107.8129988  57.7049900  26.5849916 108.2566801
  58.5530012  28.7094997 110.4539988  58.7660012  27.9394997 110.9819988
  59.2910012  28.7984997 109.8509988  58.6819044  28.6161968 110.4447123
  68.7580012  36.8664997 111.3209988  69.3780012  36.1894997 111.0479988
  68.5500012  36.6484997 112.2299988  68.8146726  36.7444800 111.4064812
  66.3300012  31.2554997 113.2139988  66.6340012  30.5694997 112.6189988
  67.0510012  31.3734997 113.8319988  66.4690671  31.1776305 113.2161816
  74.9930012  22.8564997 114.0749988  75.0420012  23.4664997 114.8099988
  75.4180012  23.3174997 113.3519988  75.0571746  23.0023796 114.0779175
  69.4710012  25.6494997 113.5409988  69.6130012  24.7034997 113.5619988
  69.3640012  25.8564997 112.6129988  69.4759919  25.5478246 113.4183408
  62.6250012  23.7504997 110.8139988  62.6690012  24.6104997 110.3949988
  62.1680012  23.1984997 110.1799988  62.5692240  23.7934422 110.6709864
  70.3480012  23.8814997 109.2149988  70.9940012  23.5524997 109.8389988
  70.8580012  24.3994997 108.5919988  70.5054299  23.9064450 109.2162731
  59.2460012  26.1474997 111.5759988  59.8990012  25.5974997 112.0079988
  59.2700012  25.8734997 110.6589988  59.3386683  26.0351466 111.5112123
  64.4020012  27.6974997 110.7909988  65.0180012  27.1714997 111.3009988
  63.8160012  27.0574997 110.3879988  64.4070810  27.5389208 110.8063173
  75.3840012  24.3344997 116.3099988  74.6960012  24.9924997 116.2149988
  75.4000012  24.1374997 117.2469988  75.2919540  24.3979819 116.4235990
  61.4360012  22.6684997 114.8879988  61.2170012  23.1984997 114.1219988
  60.7680012  22.8954997 115.5349988  61.3157600  22.7716906 114.8706379
  68.8050012  32.1684997 108.4319988  68.5090012  31.8464997 107.5809988
  68.4800012  33.0684997 108.4729988  68.7206371  32.2460215 108.3211801
  64.0050012  30.3444997 115.1749988  63.2650012  30.9424997 115.2789988
  64.7190012  30.8984997 114.8599988  64.0002237  30.5012831 115.1466465
  72.1120012  23.1724997 111.1949988  71.8960012  22.4064997 111.7279988
  72.7670012  23.6444997 111.7079988  72.1710632  23.1315889 111.3372861
  61.0290012  24.5604997 112.8399988  61.6430012  25.1934997 113.2129988
  61.5410012  24.0884997 112.1839988  61.1821981  24.5832267 112.8022908
  62.4120012  32.3084997 115.9619988  62.4070012  33.1884997 115.5839988
  61.5590012  32.2254997 116.3869988  62.2959464  32.4176117 115.9677907
  58.5330012  31.9794997 106.7439988  58.2610012  32.2084997 105.8559988
  58.5790012  32.8174997 107.2049988  58.5019482  32.1241318 106.6846273
  72.1580012  33.6014997 113.4569988  71.2170012  33.6594997 113.6189988
  72.4350012  34.5074997 113.3199988  72.0664679  33.7319443 113.4606815
  72.4590012  21.8874997 114.8749988  71.7230012  22.4984997 114.8369988
  73.1420012  22.3024997 114.3479988  72.4506541  22.0271374 114.7985832
  65.4620012  19.9744997 112.3399988  65.3450012  19.0254997 112.2859988
  64.6070012  20.3064997 112.6139988  65.3304212  19.8895571 112.3696497
  70.4100012  35.3824997 110.0819988  70.8360012  34.6754997 109.5969988
  70.7270012  36.1834997 109.6659988  70.5111683  35.3941017 109.9593680
  71.5700012  33.2834997 108.5909988  71.3120012  32.5934997 107.9799988
  71.6410012  32.8404997 109.4369988  71.5442856  33.1292124 108.6216885
  73.2560012  31.8494997 117.0679988  73.3960012  31.2584997 116.3289988
  73.4230012  32.7224997 116.7119988  73.2977411  31.8865428 116.9186894
  67.7290012  28.8114997 106.8409988  67.0170012  29.3464997 106.4889988
  68.4200012  28.8674997 106.1809988  67.7250132  28.8922543 106.7036289
  75.0980012  28.1894997 115.1339988  74.4450012  28.8844997 115.2239988
  75.5630012  28.3994997 114.3249988  75.0715274  28.3130643 115.0368462
  71.1340012  29.0214997 107.7929988  70.4020012  29.2494997 108.3659988
  71.5820012  28.3074997 108.2469988  71.0942725  28.9562145 107.9328816
  71.0320012  27.1954997 116.8599988  71.1120012  27.9584997 117.4319988
  70.4300012  27.4744997 116.1699988  70.9615756  27.3377134 116.8450589
  62.7800012  29.6514997 109.6749988  62.4490012  29.2814997 108.8569988
  63.3680012  28.9814997 110.0219988  62.8141873  29.5101156 109.6098102
  64.1460012  33.0794997 112.3559988  64.0520012  32.5014997 111.5999988
  64.8760012  32.7084997 112.8529988  64.2317387  32.9501663 112.3195342
  63.1460012  28.4204997 113.3089988  63.7120012  28.5414997 112.5459988
  63.4650012  29.0574997 113.9469988  63.2665474  28.5232219 113.2909862
  69.4550012  33.9234997 114.0429988  69.2150012  34.5854997 114.6909988
  69.2570012  33.0894997 114.4679988  69.3953808  33.9013134 114.1891524
  64.0260012  32.8194997 118.0259988  63.7150012  33.6014997 118.4809988
  63.3760012  32.6664997 117.3399988  63.8955558  32.9059105 117.9955871
  60.9460012  29.0174997 117.2539988  61.0170012  29.6684997 117.9529988
  60.0560012  29.1204997 116.9189988  60.8353005  29.1205427 117.3043495
  67.7320012  34.9204997 108.9129988  68.2060012  35.2154997 109.6899988
  67.1690012  35.6584997 108.6799988  67.7208184  35.0607247 108.9879628
  62.2660012  34.8914997 118.7889988  62.2730012  34.7554997 117.8419988
  61.3500012  34.7734997 119.0409988  62.1431714  34.8569430 118.6934666
  73.7040012  19.9334997 105.2909988  72.8040012  20.0724997 105.5859988
  73.9560012  20.7644997 104.8889988  73.6148702  20.0649074 105.2770205
  61.7700012  28.7214997 107.2639988  61.4780012  29.4894997 106.7739988
  61.0960012  28.0614997 107.1019988  61.6388111  28.7375587 107.1748978
  74.8930012  34.2994997 103.6669988  74.9670012  35.2384997 103.8379988
  75.7990012  33.9944997 103.6109988  75.0255100  34.3866722 103.6828119
  57.8630012  31.0844997 116.0789988  57.3620012  31.0564997 115.2639988
  57.8680012  30.1784997 116.3889988  57.7950944  30.9582396 116.0093226
  57.6130012  33.8644997 112.9629988  58.5590012  33.7204997 112.9439988
  57.5010012  34.6484997 113.4999988  57.7272727  33.9508046 113.0330072
  75.8110012  34.5304997 118.6459988  75.7620012  33.5754997 118.6089988
  74.9840012  34.7984997 119.0469988  75.6924940  34.4358998 118.6951375
  66.7900012  34.1044997 117.5219988  66.8770012  34.9304997 117.9969988
  65.9260012  33.7744997 117.7709988  66.6851964  34.1729878 117.6206549
  67.2040012  37.8764997 107.3279988  67.1290012  37.7554997 106.3809988
  67.2370012  38.8264997 107.4459988  67.1982068  37.9882646 107.2144967
  60.8570012  36.6654997 109.1089988  61.0100012  36.3174997 109.9869988
  60.0070012  36.3094997 108.8539988  60.7629166  36.5696216 109.1948079
  69.9750012  36.9564997 107.0789988  69.0390012  37.0564997 107.2579988
  70.2550012  36.2474997 107.6579988  69.8849553  36.8743406 107.1817087
  72.9630012  26.0234997 119.1259988  72.5560012  26.5044997 118.4049988
  73.0040012  25.1184997 118.8179988  72.9128437  25.9669374 118.9856683
  60.1120012  32.4074997 117.1229988  60.3280012  32.0464997 117.9819988
  59.2570012  32.0334997 116.9129988  60.0259292  32.3074111 117.2123386
  62.7310012  20.8774997 113.1179988  61.8690012  20.7904997 112.7099988
  62.7080012  21.7334997 113.5459988  62.6100409  20.9812883 113.1200589
  67.3940012  20.5994997 116.4929988  67.8140012  20.1844997 117.2459988
  66.4610012  20.4214997 116.6099988  67.3253644  20.5185900 116.6119539
  70.7200012  24.3554997 117.3459988  70.2060012  24.2294997 118.1439988
  70.5650012  25.2674997 117.1019988  70.6286852  24.4616132 117.4222158
  62.8220012  25.8434997 114.2129988  62.1800012  25.8024997 114.9219988
  62.8590012  26.7694997 113.9749988  62.7390664  25.9631430 114.2779219
  62.8190012  26.0644997 109.1249988  61.9260012  25.7234997 109.0659988
  63.2690012  25.6874997 108.3689988  62.7578130  25.9669631 109.0147702
  68.3540012  26.4804997 107.9419988  67.9450012  27.2954997 107.6509988
  69.0750012  26.3404997 107.3279988  68.3954537  26.5732018 107.8191342
  67.4560012  26.6554997 119.4299988  66.8940012  25.9514997 119.7509988
  68.2830012  26.5354997 119.8979988  67.4907095  26.5427883 119.5372330
  69.3590012  25.9264997 110.7559988  69.1640012  26.5314997 110.0409988
  69.5400012  25.0924997 110.3219988  69.3567614  25.8966300 110.5994405
  60.5720012  26.1634997 116.0799988  60.5340012  26.5634997 116.9489988
  60.0810012  25.3464997 116.1709988  60.5004684  26.1078069 116.2111059
  57.1800012  23.2794997 109.9309988  57.8110012  23.2504997 110.6499988
  57.6290012  22.8544997 109.1999988  57.3270918  23.2180836 109.9306441
  58.4540012  24.0254997 105.3549988  58.9280012  24.6164997 104.7699988
  57.7370012  24.5564997 105.7019988  58.4219341  24.1780867 105.3218836
  68.6230012  27.5644997 115.4269988  68.9460012  26.9334997 114.7839988
  68.1830012  27.0294997 116.0879988  68.6077484  27.4058387 115.4283198
  65.4000012  23.4914997 110.2109988  64.4890012  23.5484997 110.4999988
  65.9060012  23.4314997 111.0219988  65.3436899  23.4911941 110.3601184
  60.2290012  25.1204997 109.0379988  59.3390012  25.2204997 108.6979988
  60.5250012  24.2784997 108.6919988  60.1472823  25.0203545 108.9447213
  63.8820012  25.1204997 106.6949988  64.8130012  25.2494997 106.8729988
  63.6670012  25.7904997 106.0449988  63.9804247  25.2286565 106.6315747
  69.8050012  22.7264997 113.4759988  69.1290012  22.8574997 114.1399988
  69.3200012  22.5714997 112.6649988  69.6467146  22.7235157 113.4574469
  73.0930012  38.3984997 119.7519988  73.2930012  38.8224997 118.9179988
  73.7480012  38.7414997 120.3589988  73.2090073  38.5029857 119.7198592
  60.6910012  30.8724997 119.3599988  61.4230012  31.1264997 119.9219988
  59.9110012  31.0764997 119.8759988  60.6857073  30.9348160 119.5066151
  66.7200012  26.2794997 112.0979988  67.2850012  25.7324997 111.5509988
  66.5730012  25.7574997 112.8869988  66.7773380  26.1342259 112.1298695
  61.7220012  22.4154997 108.5169988  61.4050012  21.5134997 108.4809988
  62.5040012  22.4174997 107.9639988  61.7842408  22.2922474 108.4373569
  65.3470012  24.6674997 114.5119988  64.5110012  25.1214997 114.6229988
  65.8710012  24.9434997 115.2639988  65.3035416  24.7668660 114.6288119
  65.8910012  30.8804997 106.1969988  65.1460012  30.3734997 105.8749988
  65.7570012  30.9294997 107.1439988  65.7708776  30.8176940 106.2808647
  73.0410012  30.0134997 114.9839988  73.6830012  30.4704997 114.4399988
  72.2110012  30.1264997 114.5209988  73.0165963  30.0912704 114.8470177
  69.7890012  23.6944997 104.3959988  68.8500012  23.8064997 104.2449988
  70.0860012  24.5514997 104.7029988  69.7007583  23.8255981 104.4168337
  67.4100012  31.0644997 117.4339988  67.0650012  30.6834997 118.2409988
  67.2100012  31.9984997 117.5049988  67.3357527  31.1385135 117.5540689
  61.0160012  30.1754997 111.9669988  61.7610012  30.1734997 111.3659988
  61.0940012  29.3524997 112.4479988  61.1284995  30.0638887 111.9498282
  68.0170012  32.3394997 105.2229988  67.7210012  33.1654997 105.6039988
  67.3140012  31.7194997 105.4189988  67.8814914  32.3688199 105.3016443
  58.0240012  28.6364997 117.2819988  58.2470012  28.2184997 118.1139988
  57.4220012  28.0234997 116.8589988  57.9731759  28.4964668 117.3387022
  65.0400012  28.1534997 119.4949988  64.7440012  27.9874997 118.5999988
  65.9720012  27.9334997 119.4839988  65.1254166  28.1010640 119.3710536
  69.6610012  33.5264997 117.3849988  68.7600012  33.7094997 117.1169988
  69.6950012  33.7854997 118.3049988  69.5423139  33.5865849 117.4728099
  75.3920012  25.7714997 105.7519988  74.8380012  25.3754997 105.0799988
  75.4920012  26.6814997 105.4739988  75.3297059  25.8403586 105.6224401
  75.3550012  31.5714997 118.5889988  74.5040012  31.8094997 118.2219988
  75.9460012  31.5544997 117.8359988  75.3182487  31.6018258 118.4368893
  73.6870012  34.5574997 106.2169988  73.3140012  33.7314997 106.5259988
  73.9650012  34.3744997 105.3189988  73.6735222  34.4197430 106.1379473
  70.8480012  29.3654997 113.2379988  69.9190012  29.1334997 113.2109988
  71.2990012  28.5884997 112.9079988  70.7819216  29.2287238 113.1896917
  63.3910012  33.6934997 109.3709988  63.9180012  34.4664997 109.1709988
  62.5110012  33.9184997 109.0689988  63.3442031  33.8297545 109.3027912
  59.1460012  28.5554997 103.9579988  59.7620012  29.1824997 104.3379988
  58.2840012  28.8714997 104.2299988  59.1137698  28.6839430 104.0467183
  64.8180012  31.3564997 108.9469988  64.5770012  32.2814997 108.9889988
  64.0770012  30.8974997 109.3439988  64.6849225  31.4210933 109.0063742
  65.3330012  35.5054997 115.2629988  65.6950012  36.3604997 115.0289988
  65.8640012  35.2134997 116.0029988  65.4544473  35.5831060 115.3310855
  63.5010012  36.3784997 108.4929988  62.5510012  36.4834997 108.5439988
  63.8530012  37.1984997 108.8369988  63.4184195  36.5038800 108.5465502
  68.8770012  31.6044997 114.9629988  68.4510012  31.3774997 115.7899988
  69.4570012  30.8664997 114.7809988  68.8971868  31.4735299 115.0515830
  71.5350012  36.1564997 117.4329988  70.9340012  35.6014997 116.9369988
  71.8170012  36.8234997 116.8059988  71.4908804  36.1706625 117.2804849
  75.5830012  37.0134997 104.2379988  76.3270012  37.5994997 104.0979988
  74.8890012  37.5814997 104.5709988  75.5909899  37.1705798 104.2638778
  59.6580012  23.3894997 116.8399988  58.7650012  23.7284997 116.7719988
  59.5590012  22.5344997 117.2579988  59.5224164  23.3202588 116.8872235
  71.9460012  31.2064997 106.2639988  71.6680012  30.4784997 106.8199988
  72.8730012  31.3254997 106.4689988  72.0333124  31.1228802 106.3678845
  59.3090012  35.1944997 115.2749988  59.5260012  34.2624997 115.2439988
  59.5550012  35.4684997 116.1579988  59.3719549  35.1040636 115.3901763
  64.1080012  33.2154997 104.9399988  64.2540012  32.6954997 105.7299988
  64.1050012  34.1224997 105.2469988  64.1275792  33.2668842 105.0896117
  68.3920012  23.1304997 115.7299988  69.0910012  23.2044997 116.3799988
  68.0110012  22.2664997 115.8839988  68.4361767  23.0237624 115.8398322
  69.1770012  22.7824997 106.8269988  69.3970012  23.2544997 106.0239988
  69.7350012  23.1774997 107.4969988  69.2824968  22.9004285 106.8077331
  66.8450012  34.9134997 105.6899988  66.0290012  35.4104997 105.7419988
  67.3750012  35.3884997 105.0499988  66.8049161  35.0457722 105.6105956
  66.3770012  24.5104997 107.6619988  67.1890012  25.0154997 107.7079988
  66.1320012  24.3654997 108.5759988  66.4550520  24.5600375 107.7918517
  66.9120012  25.4964997 116.8459988  67.0310012  26.0704997 117.6039988
  67.5680012  24.8084997 116.9609988  67.0169025  25.4819858 116.9651321
  67.2600012  21.5914997 108.5999988  66.9140012  22.2094997 109.2439988
  67.9190012  22.0924997 108.1179988  67.3016968  21.7436278 108.6229383
  64.1840012  35.9574997 105.6709988  64.3440012  36.7564997 105.1709988
  63.9860012  36.2634997 106.5559988  64.1791637  36.1084020 105.7221144
  73.1170012  23.4034997 117.6809988  72.2000012  23.6664997 117.5939988
  73.4520012  23.4004997 116.7849988  73.0368613  23.4390761 117.5478837
  71.7190012  27.1544997 111.7769988  70.9210012  26.7394997 111.4489988
  72.1640012  26.4634997 112.2679988  71.6699885  27.0043543 111.7984889
  61.1770012  33.0824997 104.3479988  61.7690012  33.7814997 104.6239988
  61.6360012  32.6494997 103.6279988  61.3201142  33.1197049 104.2884830
  59.4930012  25.7464997 103.4639988  59.4480012  26.6854997 103.6419988
  58.6050012  25.5104997 103.1939988  59.3668574  25.8431892 103.4518912
  72.8050012  36.4104997 113.3999988  72.6500012  37.0884997 112.7419988
  73.7380012  36.4824997 113.6029988  72.9098657  36.5129546 113.3374360
  60.3010012  20.5284997 112.1369988  60.0720012  20.5874997 111.2089988
  59.8580012  19.7364997 112.4429988  60.2098530  20.4295753 112.0514786
  59.2310012  34.4684997 108.2969988  58.3990012  34.9414997 108.3239988
  59.7770012  34.9784997 107.6989988  59.1910352  34.6021332 108.2198463
  58.5190012  37.0814997 119.6269988  59.0600012  36.8644997 120.3869988
  58.0380012  36.2754997 119.4369988  58.5279951  36.9429270 119.7052576
  63.1170012  36.0004997 121.2469988  63.8840012  35.5414997 121.5879988
  63.0950012  35.7744997 120.3179988  63.2191275  35.9070186 121.1680101
  69.6940012  34.3804997 119.9769988  69.3430012  33.5244997 120.2199988
  70.4200012  34.5234997 120.5839988  69.7440769  34.2825636 120.0923619
  58.4260012  30.8914997 120.5809988  58.5700012  29.9894997 120.2949988
  57.6540012  31.1774997 120.0939988  58.3412753  30.8066816 120.4759505
  65.0820012  30.8614997 120.0139988  64.7530012  31.1324997 119.1569988
  65.2340012  29.9204997 119.9269988  65.0574809  30.7713862 119.8848244
  70.8160012  30.7774997 117.3969988  71.5620012  31.3654997 117.2779988
  70.0590012  31.3594997 117.4609988  70.8157820  30.9367143 117.3893590
  59.2590012  28.0914997 120.0009988  59.6670012  27.2344997 119.8799988
  58.9990012  28.1064997 120.9219988  59.2797568  27.9760807 120.1089588
  63.2060012  27.1004997 117.3759988  62.5880012  27.7754997 117.6559988
  63.5500012  27.4214997 116.5419988  63.1679132  27.2362411 117.3016262
  68.2260012  29.5724997 120.6529988  69.1790012  29.6554997 120.6259988
  68.0650012  28.8604997 121.2729988  68.3346426  29.4876746 120.7330579
  63.5450012  24.4554997 118.4579988  63.6950012  23.7264997 117.8559988
  63.5480012  25.2324997 117.8989988  63.5659302  24.4607851 118.3000692
  63.9580012  22.8254997 115.9509988  64.4940012  23.2764997 115.2989988
  63.1060012  22.7174997 115.5279988  63.9162178  22.8726390 115.8045756
  65.5400012  28.2644997 116.1899988  66.2900012  28.1084997 115.6169988
  65.2010012  29.1164997 115.9149988  65.5968921  28.3582968 116.0743561
  69.9550012  26.0794997 121.2189988  70.1480012  25.1484997 121.1069988
  70.8130012  26.5044997 121.2079988  70.0972934  26.0096531 121.2022031
  71.2720012  28.8684997 119.2959988  70.9910012  29.5774997 118.7179988
  72.2150012  28.7954997 119.1449988  71.3609291  28.9556711 119.1964967
  62.0240012  25.6534997 120.3699988  61.2570012  25.1214997 120.1589988
  62.7030012  25.3434997 119.7699988  62.0107877  25.5388300 120.2600716
  64.7640012  20.2814997 116.3819988  64.6650012  21.2284997 116.2769988
  64.0210012  19.9094997 115.9059988  64.6501184  20.3605863 116.3033621
  66.0280012  24.6034997 119.9459988  65.7920012  24.3834997 120.8469988
  65.2440012  24.3964997 119.4359988  65.8898504  24.5454586 120.0003431
  68.7430012  23.7304997 119.0209988  67.7960012  23.7624997 119.1539988
  69.0560012  23.1054997 119.6749988  68.6556707  23.6503998 119.1276060
  70.3770012  22.3644997 121.0269988  70.2810012  21.4124997 121.0209988
  70.0560012  22.6334997 121.8869988  70.3204070  22.2704035 121.1425441
  60.2040012  23.5744997 120.0739988  60.4160012  22.8674997 119.4639988
  60.0930012  23.1364997 120.9179988  60.2179721  23.4187084 120.1046843
  64.9850012  19.5754997 119.0529988  65.6970012  18.9354997 119.0389988
  64.8840012  19.8424997 118.1399988  65.0688066  19.5240079 118.9275677
  65.3390012  21.2584997 121.1069988  65.2070012  20.7824997 120.2869988
  64.7400012  22.0024997 121.0519988  65.2399071  21.2939618 120.9872886
  57.1030012  38.1704997 108.8439988  56.4560012  37.7084997 108.3109988
  57.4570012  37.4984997 109.4259988  57.0623849  38.0164723 108.8497959
  57.9730012  36.2514997 110.6479988  57.6380012  35.3714997 110.8199988
  58.1950012  36.5964997 111.5129988  57.9571783  36.1777500 110.7884208
  75.5210012  37.0604997 113.6289988  75.5000012  37.2454997 114.5679988
  76.2120012  37.6294997 113.2879988  75.6114618  37.1626606 113.7113864
  75.0850012  36.6284997 116.5509988  74.5970012  35.8924997 116.1789988
  75.6340012  36.2344997 117.2289988  75.0924820  36.4745889 116.5917813
  73.5350012  32.4174997 121.1889988  72.6690012  32.3124997 121.5829988
  73.9120012  33.1764997 121.6349988  73.4673308  32.5056900 121.3032393
  74.8360012  30.6744997 106.7029988  75.6860012  31.0954997 106.8299988
  74.8420012  29.9344997 107.3099988  74.9531372  30.6320803 106.8024344
  75.2310012  28.7274997 108.5259988  74.5040012  28.2484997 108.9239988
  75.8120012  28.9334997 109.2589988  75.2100473  28.6898103 108.6794528
  74.9900012  31.5124997 113.4739988  75.8230012  31.1344997 113.1939988
  75.1020012  32.4554997 113.3549988  75.1192647  31.5882218 113.4195487
  73.4760012  34.3904997 115.7809988  72.8290012  34.7154997 116.4069988
  72.9590012  33.9504997 115.1069988  73.3174029  34.3755004 115.7755827
  75.4990012  28.6284997 104.9179988  74.9770012  28.9854997 104.1989988
  75.4660012  29.3034997 105.5959988  75.4231634  28.7685413 104.9113145
  73.8480012  25.8684997 103.4679988  73.9440012  26.5354997 102.7879988
  73.7080012  25.0524997 102.9869988  73.8422272  25.8495655 103.3098347
  73.0170012  27.2484997 109.0889988  72.8670012  26.3034997 109.0689988
  72.6640012  27.5294997 109.9329988  72.9487448  27.1571481 109.2003705
  58.0530012  29.3264997 113.0999988  58.2370012  29.2444997 112.1639988
  58.9020012  29.2024997 113.5229988  58.1930151  29.2985073 113.0291451
  73.8740012  29.2184997 118.7279988  74.4570012  28.4844997 118.9199988
  74.4380012  29.9904997 118.7749988  74.0299769  29.2224227 118.7606159
  75.3700012  27.1214997 119.4129988  74.5070012  26.7424997 119.2469988
  75.9750012  26.3824997 119.3379988  75.3336119  26.9698268 119.3801528
  73.0950012  23.2764997 102.5859988  73.7060012  22.9054997 103.2229988
  72.2590012  22.8554997 102.7819988  73.0655032  23.1687554 102.6997035
  72.7280012  24.8314997 107.5519988  73.0080012  23.9244997 107.6759988
  73.4870012  25.2654997 107.1629988  72.8689277  24.7660942 107.5163682
  73.3400012  25.4124997 112.9879988  74.2730012  25.6244997 112.9529988
  73.1050012  25.5144997 113.9099988  73.4359244  25.4553100 113.1078892
  73.3690012  26.1494997 115.7639988  72.5260012  26.4174997 116.1299988
  73.8110012  26.9714997 115.5529988  73.3134158  26.2973291 115.7855491
  57.6500012  24.5974997 119.2409988  58.5700012  24.4754997 119.4769988
  57.2010012  23.8474997 119.6299988  57.7151580  24.4793727 119.3259006
  75.6520012  20.1294997 121.1169988  76.0020012  19.4754997 120.5119988
  75.7990012  20.9664997 120.6769988  75.7197887  20.1531548 120.9746858
  73.3410012  22.0944997 107.5999988  73.5240012  21.6454997 108.4259988
  72.7420012  21.5094997 107.1369988  73.2850202  21.9539975 107.6503275
  58.8710012  22.9094997 112.1319988  59.3170012  22.1174997 112.4339988
  59.3380012  23.6254997 112.5619988  58.9950831  22.8980685 112.2314006
  57.1750012  25.9084997 113.2009988  57.6670012  25.6874997 112.4099988
  57.5380012  26.7494997 113.4819988  57.2913126  25.9918357 113.1307531
  75.1720012  22.2384997 119.4659988  74.2540012  22.5094997 119.4309988
  75.2950012  21.7034997 118.6819988  75.0629729  22.2032508 119.3551923
  75.2080012  22.1614997 104.1279988  75.6200012  21.4404997 103.6529988
  75.8900012  22.8314997 104.1869988  75.3565885  22.1532368 104.0708915
  57.4890012  22.1664997 107.2549988  56.5640012  22.3754997 107.1259988
  57.9430012  22.6504997 106.5649988  57.4237292  22.2605343 107.1440720
  72.2600012  37.1504997 109.2009988  72.9120012  36.8034997 108.5929988
  72.7700012  37.6394997 109.8469988  72.4182637  37.1690597 109.2050236
  57.4530012  20.9044997 115.5989988  56.7880012  20.6584997 116.2429988
  57.0100012  21.5264997 115.0219988  57.3021318  20.9549410 115.6090898
  59.6450012  34.0794997 119.7439988  58.8240012  34.2544997 119.2829988
  59.3920012  34.0064997 120.6639988  59.4985585  34.0935544 119.8053561
  62.5990012  35.0544997 116.0019988  62.1740012  35.8634997 115.7199988
  63.5030012  35.1394997 115.6999988  62.6629975  35.1769300 115.9224816
  66.9100012  36.4534997 118.9619988  67.0950012  36.1194997 119.8399988
  67.7560012  36.7624997 118.6399988  67.0497539  36.4496047 119.0385605
  69.2550012  37.7394997 118.2059988  69.9320012  37.1064997 117.9659988
  69.5770012  38.1404997 119.0129988  69.3911637  37.7071154 118.2822793
  74.1720012  20.3284997 117.2849988  73.3600012  20.6534997 116.8979988
  74.4050012  19.5684997 116.7519988  74.0922203  20.2702758 117.1598880
  60.0010012  38.3104997 116.0499988  59.2800012  38.7504997 115.5989988
  59.6350012  38.0594997 116.8979988  59.8529651  38.3367242 116.1029640
  62.4680012  37.9104997 115.0799988  61.6030012  37.9824997 115.4839988
  62.4130012  38.4574997 114.2959988  62.3422085  37.9942685 115.0293362
  67.1780012  37.7984997 114.2549988  66.7220012  38.3274997 113.6009988
  67.3410012  38.4014997 114.9799988  67.1376068  37.9524607 114.2634838
  69.5060012  36.6764997 115.1999988  68.6010012  36.8414997 114.9339988
  69.9350012  37.5294997 115.1349988  69.4401324  36.8144339 115.1547976
  72.1100012  38.2464997 115.4949988  71.9280012  39.1624997 115.2849988
  72.2870012  37.8364997 114.6489988  72.1090210  38.3164822 115.3517885
  59.4150012  36.9334997 112.9599988  59.3970012  36.5084997 113.8169988
  60.2200012  36.6154997 112.5509988  59.5213529  36.8323013 113.0220946
  61.5570012  35.6434997 111.6149988  61.3380012  34.7274997 111.7849988
  62.3810012  35.7834997 112.0809988  61.6384420  35.5370520 111.7012774
  64.0940012  36.1134997 112.4639988  64.3070012  35.2254997 112.1769988
  64.1580012  36.0794997 113.4179988  64.1318232  35.9873102 112.5537397
  67.6020012  21.7774997 111.6079988  66.9280012  21.1484997 111.8639988
  68.1660012  21.2934997 111.0049988  67.5859230  21.6258744 111.5615340
  72.7450012  19.8854997 111.7209988  73.3490012  20.4324997 111.2189988
  71.8750012  20.2044997 111.4799988  72.7101208  20.0035137 111.6196886
  74.4720012  21.0234997 110.0539988  75.0840012  20.5094997 109.5269988
  74.8540012  21.9014997 110.0769988  74.6073371  21.0717866 109.9850041
  59.9290012  20.4114997 109.4299988  59.1520012  20.1774997 108.9229988
  60.4590012  19.6144997 109.4389988  59.8942330  20.2716988 109.3617742
  58.7650012  20.2094997 105.2339988  59.2040012  20.8204997 104.6419988
  58.1320012  20.7474997 105.7079988  58.7394514  20.3659257 105.2170930
  64.5080012  20.3384997 109.2439988  65.3830012  20.7264997 109.2139988
  64.3720012  20.1234997 110.1659988  64.6093695  20.3625184 109.3646440
  70.0650012  20.3684997 110.8929988  70.1410012  20.4634997 109.9429988
  69.7900012  19.4604997 111.0219988  70.0382321  20.2587867 110.7805079
  71.4180012  20.3944997 106.5849988  70.7160012  21.0094997 106.3749988
  70.9740012  19.5564997 106.7159988  71.2616450  20.3655639 106.5739000
  58.6660012  36.1574997 106.1309988  57.9810012  36.1194997 105.4639988
  58.6700012  37.0704997 106.4199988  58.5726998  36.2756733 106.0786771
  65.6520012  22.4184997 106.1329988  65.8300012  21.7724997 106.8159988
  65.5990012  23.2524997 106.5999988  65.6691999  22.4428009 106.2895917
  67.5310012  37.3674997 104.5289988  68.3970012  37.7334997 104.3509988
  67.2840012  36.9274997 103.7149988  67.6162392  37.3581756 104.3946289
  74.2400012  36.9304997 107.2079988  74.0450012  36.1824997 106.6429988
  74.2010012  37.6884997 106.6249988  74.2080380  36.9306099 107.0518384
  59.8870012  20.9254997 118.9479988  59.5210012  20.1604997 119.3899988
  60.8000012  20.9544997 119.2339988  59.9602736  20.8245640 119.0472502
  61.8600012  20.2764997 120.4839988  62.7580012  20.0024997 120.2989988
  61.4730012  19.5334997 120.9479988  61.9306612  20.1385914 120.5213643
  60.4840012  37.0774997 103.1569988  60.2170012  37.3644997 104.0299988
  61.2560012  36.5314997 103.3089988  60.5517488  37.0430294 103.2971050
  70.2810012  19.6084997 120.6659988  70.3580012  19.1824997 121.5199988
  71.1750012  19.6224997 120.3229988  70.4123428  19.5520879 120.7365310
  73.4570012  35.6814997 119.3579988  72.6750012  35.4954997 118.8379988
  73.3850012  36.6104997 119.5759988  73.3402274  35.7816643 119.3163018
  87.8630012  29.5674997 109.3889988  87.9520012  30.5114997 109.2569988
  87.2250012  29.2924997 108.7309988  87.7889081  29.6594830 109.2819614
  86.7960012  28.8224997 112.8079988  86.7580012  28.1764997 113.5129988
  86.4740012  28.3564997 112.0369988  86.7472333  28.6709408 112.8002978
  79.1650012  28.4374997 114.4009988  79.2060012  27.8114997 115.1239988
  79.8680012  29.0614997 114.5829988  79.2656363  28.4361196 114.5246044
  90.5020012  31.7614997 111.1089988  90.0620012  31.0414997 111.5599988
  90.4890012  32.4824997 111.7389988  90.4400226  31.7603731 111.2558494
  80.0880012  32.8874997 112.9359988  79.7190012  32.0854997 112.5659988
  81.0290012  32.7184997 112.9819988  80.1647289  32.7550153 112.8916316
  76.6980012  26.5474997 108.3289988  76.2510012  27.3934997 108.3099988
  76.1370012  25.9674997 107.8129988  76.5609900  26.5849916 108.2566801
  77.4090012  28.7094997 110.4539988  77.6220012  27.9394997 110.9819988
  78.1470012  28.7984997 109.8509988  77.5379044  28.6161968 110.4447123
  87.6140012  36.8664997 111.3209988  88.2340012  36.1894997 111.0479988
  87.4060012  36.6484997 112.2299988  87.6706726  36.7444800 111.4064812
  85.1860012  31.2554997 113.2139988  85.4900012  30.5694997 112.6189988
  85.9070012  31.3734997 113.8319988  85.3250671  31.1776305 113.2161816
  93.8490012  22.8564997 114.0749988  93.8980012  23.4664997 114.8099988
  94.2740012  23.3174997 113.3519988  93.9131746  23.0023796 114.0779175
  88.3270012  25.6494997 113.5409988  88.4690012  24.7034997 113.5619988
  88.2200012  25.8564997 112.6129988  88.3319919  25.5478246 113.4183408
  81.4810012  23.7504997 110.8139988  81.5250012  24.6104997 110.3949988
  81.0240012  23.1984997 110.1799988  81.4252240  23.7934422 110.6709864
  89.2040012  23.8814997 109.2149988  89.8500012  23.5524997 109.8389988
  89.7140012  24.3994997 108.5919988  89.3614299  23.9064450 109.2162731
  78.1020012  26.1474997 111.5759988  78.7550012  25.5974997 112.0079988
  78.1260012  25.8734997 110.6589988  78.1946683  26.0351466 111.5112123
  83.2580012  27.6974997 110.7909988  83.8740012  27.1714997 111.3009988
  82.6720012  27.0574997 110.3879988  83.2630810  27.5389208 110.8063173
  94.2400012  24.3344997 116.3099988  93.5520012  24.9924997 116.2149988
  94.2560012  24.1374997 117.2469988  94.1479540  24.3979819 116.4235990
  80.2920012  22.6684997 114.8879988  80.0730012  23.1984997 114.1219988
  79.6240012  22.8954997 115.5349988  80.1717600  22.7716906 114.8706379
  87.6610012  32.1684997 108.4319988  87.3650012  31.8464997 107.5809988
  87.3360012  33.0684997 108.4729988  87.5766371  32.2460215 108.3211801
  82.8610012  30.3444997 115.1749988  82.1210012  30.9424997 115.2789988
  83.5750012  30.8984997 114.8599988  82.8562237  30.5012831 115.1466465
  90.9680012  23.1724997 111.1949988  90.7520012  22.4064997 111.7279988
  91.6230012  23.6444997 111.7079988  91.0270633  23.1315889 111.3372861
  79.8850012  24.5604997 112.8399988  80.4990012  25.1934997 113.2129988
  80.3970012  24.0884997 112.1839988  80.0381981  24.5832267 112.8022908
  81.2680012  32.3084997 115.9619988  81.2630012  33.1884997 115.5839988
  80.4150012  32.2254997 116.3869988  81.1519464  32.4176117 115.9677907
  77.3890012  31.9794997 106.7439988  77.1170012  32.2084997 105.8559988
  77.4350012  32.8174997 107.2049988  77.3579482  32.1241318 106.6846273
  91.0140012  33.6014997 113.4569988  90.0730012  33.6594997 113.6189988
  91.2910012  34.5074997 113.3199988  90.9224679  33.7319443 113.4606815
  91.3150012  21.8874997 114.8749988  90.5790012  22.4984997 114.8369988
  91.9980012  22.3024997 114.3479988  91.3066541  22.0271374 114.7985832
  84.3180012  19.9744997 112.3399988  84.2010012  19.0254997 112.2859988
  83.4630012  20.3064997 112.6139988  84.1864212  19.8895571 112.3696497
  89.2660012  35.3824997 110.0819988  89.6920012  34.6754997 109.5969988
  89.5830012  36.1834997 109.6659988  89.3671683  35.3941017 109.9593680
  90.4260012  33.2834997 108.5909988  90.1680012  32.5934997 107.9799988
  90.4970012  32.8404997 109.4369988  90.4002856  33.1292124 108.6216885
  92.1120012  31.8494997 117.0679988  92.2520012  31.2584997 116.3289988
  92.2790012  32.7224997 116.7119988  92.1537411  31.8865428 116.9186894
  93.9540012  28.1894997 115.1339988  93.3010012  28.8844997 115.2239988
  94.4190012  28.3994997 114.3249988  93.9275274  28.3130643 115.0368462
  89.9900012  29.0214997 107.7929988  89.2580012  29.2494997 108.3659988
  90.4380012  28.3074997 108.2469988  89.9502725  28.9562145 107.9328816
  89.8880012  27.1954997 116.8599988  89.9680012  27.9584997 117.4319988
  89.2860012  27.4744997 116.1699988  89.8175756  27.3377134 116.8450589
  81.6360012  29.6514997 109.6749988  81.3050012  29.2814997 108.8569988
  82.2240012  28.9814997 110.0219988  81.6701873  29.5101156 109.6098102
  83.0020012  33.0794997 112.3559988  82.9080012  32.5014997 111.5999988
  83.7320012  32.7084997 112.8529988  83.0877387  32.9501663 112.3195342
  82.0020012  28.4204997 113.3089988  82.5680012  28.5414997 112.5459988
  82.3210012  29.0574997 113.9469988  82.1225474  28.5232219 113.2909862
  88.3110012  33.9234997 114.0429988  88.0710012  34.5854997 114.6909988
  88.1130012  33.0894997 114.4679988  88.2513808  33.9013134 114.1891524
  82.8820012  32.8194997 118.0259988  82.5710012  33.6014997 118.4809988
  82.2320012  32.6664997 117.3399988  82.7515558  32.9059105 117.9955871
  79.8020012  29.0174997 117.2539988  79.8730012  29.6684997 117.9529988
  78.9120012  29.1204997 116.9189988  79.6913005  29.1205427 117.3043495
  86.5880012  34.9204997 108.9129988  87.0620012  35.2154997 109.6899988
  86.0250012  35.6584997 108.6799988  86.5768184  35.0607247 108.9879628
  81.1220012  34.8914997 118.7889988  81.1290012  34.7554997 117.8419988
  80.2060012  34.7734997 119.0409988  80.9991714  34.8569430 118.6934666
  80.6260012  28.7214997 107.2639988  80.3340012  29.4894997 106.7739988
  79.9520012  28.0614997 107.1019988  80.4948111  28.7375587 107.1748978
  93.7490012  34.2994997 103.6669988  93.8230012  35.2384997 103.8379988
  94.6550012  33.9944997 103.6109988  93.8815100  34.3866722 103.6828119
  76.7190012  31.0844997 116.0789988  76.2180012  31.0564997 115.2639988
  76.7240012  30.1784997 116.3889988  76.6510944  30.9582396 116.0093226
  76.4690012  33.8644997 112.9629988  77.4150012  33.7204997 112.9439988
  76.3570012  34.6484997 113.4999988  76.5832727  33.9508046 113.0330072
  94.6670012  34.5304997 118.6459988  94.6180012  33.5754997 118.6089988
  93.8400012  34.7984997 119.0469988  94.5484940  34.4358998 118.6951375
  85.6460012  34.1044997 117.5219988  85.7330012  34.9304997 117.9969988
  84.7820012  33.7744997 117.7709988  85.5411964  34.1729878 117.6206549
  86.0600012  37.8764997 107.3279988  85.9850012  37.7554997 106.3809988
  86.0930012  38.8264997 107.4459988  86.0542068  37.9882646 107.2144967
  79.7130012  36.6654997 109.1089988  79.8660012  36.3174997 109.9869988
  78.8630012  36.3094997 108.8539988  79.6189166  36.5696217 109.1948079
  88.8310012  36.9564997 107.0789988  87.8950012  37.0564997 107.2579988
  89.1110012  36.2474997 107.6579988  88.7409553  36.8743406 107.1817087
  91.8190012  26.0234997 119.1259988  91.4120012  26.5044997 118.4049988
  91.8600012  25.1184997 118.8179988  91.7688437  25.9669374 118.9856683
  78.9680012  32.4074997 117.1229988  79.1840012  32.0464997 117.9819988
  78.1130012  32.0334997 116.9129988  78.8819292  32.3074111 117.2123386
  81.5870012  20.8774997 113.1179988  80.7250012  20.7904997 112.7099988
  81.5640012  21.7334997 113.5459988  81.4660409  20.9812883 113.1200589
  86.2500012  20.5994997 116.4929988  86.6700012  20.1844997 117.2459988
  85.3170012  20.4214997 116.6099988  86.1813644  20.5185900 116.6119539
  89.5760012  24.3554997 117.3459988  89.0620012  24.2294997 118.1439988
  89.4210012  25.2674997 117.1019988  89.4846852  24.4616132 117.4222158
  85.9110012  23.0924997 103.7779988  85.6580012  23.1114997 104.7009988
  85.6550012  22.2204997 103.4759988  85.8417481  22.9772558 103.8636175
  81.6780012  25.8434997 114.2129988  81.0360012  25.8024997 114.9219988
  81.7150012  26.7694997 113.9749988  81.5950664  25.9631430 114.2779219
  81.6750012  26.0644997 109.1249988  80.7820012  25.7234997 109.0659988
  82.1250012  25.6874997 108.3689988  81.6138130  25.9669631 109.0147702
  87.2100012  26.4804997 107.9419988  86.8010012  27.2954997 107.6509988
  87.9310012  26.3404997 107.3279988  87.2514537  26.5732018 107.8191342
  86.3120012  26.6554997 119.4299988  85.7500012  25.9514997 119.7509988
  87.1390012  26.5354997 119.8979988  86.3467095  26.5427883 119.5372330
  88.2150012  25.9264997 110.7559988  88.0200012  26.5314997 110.0409988
  88.3960012  25.0924997 110.3219988  88.2127614  25.8966300 110.5994405
  79.4280012  26.1634997 116.0799988  79.3900012  26.5634997 116.9489988
  78.9370012  25.3464997 116.1709988  79.3564684  26.1078069 116.2111059
  82.7940012  23.5374997 102.8789988  82.3630012  23.0924997 103.6089988
  82.0760012  23.9094997 102.3669988  82.6379438  23.5268940 102.9096799
  76.0360012  23.2794997 109.9309988  76.6670012  23.2504997 110.6499988
  76.4850012  22.8544997 109.1999988  76.1830918  23.2180836 109.9306441
  87.4790012  27.5644997 115.4269988  87.8020012  26.9334997 114.7839988
  87.0390012  27.0294997 116.0879988  87.4637484  27.4058387 115.4283198
  84.2560012  23.4914997 110.2109988  83.3450012  23.5484997 110.4999988
  84.7620012  23.4314997 111.0219988  84.1996899  23.4911941 110.3601184
  79.0850012  25.1204997 109.0379988  78.1950012  25.2204997 108.6979988
  79.3810012  24.2784997 108.6919988  79.0032823  25.0203545 108.9447213
  82.7380012  25.1204997 106.6949988  83.6690012  25.2494997 106.8729988
  82.5230012  25.7904997 106.0449988  82.8364247  25.2286565 106.6315747
  88.6610012  22.7264997 113.4759988  87.9850012  22.8574997 114.1399988
  88.1760012  22.5714997 112.6649988  88.5027146  22.7235157 113.4574469
  81.4120012  26.3154997 104.2609988  80.8690012  25.9354997 103.5699988
  82.2450012  26.5094997 103.8329988  81.4503631  26.2897125 104.1084501
  91.9490012  38.3984997 119.7519988  92.1490012  38.8224997 118.9179988
  92.6040012  38.7414997 120.3589988  92.0650072  38.5029857 119.7198592
  79.5470012  30.8724997 119.3599988  80.2790012  31.1264997 119.9219988
  78.7670012  31.0764997 119.8759988  79.5417073  30.9348160 119.5066151
  85.5760012  26.2794997 112.0979988  86.1410012  25.7324997 111.5509988
  85.4290012  25.7574997 112.8869988  85.6333380  26.1342259 112.1298695
  80.5780012  22.4154997 108.5169988  80.2610012  21.5134997 108.4809988
  81.3600012  22.4174997 107.9639988  80.6402408  22.2922474 108.4373569
  84.2030012  24.6674997 114.5119988  83.3670012  25.1214997 114.6229988
  84.7270012  24.9434997 115.2639988  84.1595416  24.7668660 114.6288119
  84.7470012  30.8804997 106.1969988  84.0020012  30.3734997 105.8749988
  84.6130012  30.9294997 107.1439988  84.6268776  30.8176940 106.2808647
  91.8970012  30.0134997 114.9839988  92.5390012  30.4704997 114.4399988
  91.0670012  30.1264997 114.5209988  91.8725963  30.0912704 114.8470177
  88.6450012  23.6944997 104.3959988  87.7060012  23.8064997 104.2449988
  88.9420012  24.5514997 104.7029988  88.5567583  23.8255981 104.4168337
  86.2660012  31.0644997 117.4339988  85.9210012  30.6834997 118.2409988
  86.0660012  31.9984997 117.5049988  86.1917527  31.1385135 117.5540689
  89.3630012  25.5614997 106.0569988  90.2550012  25.4244997 106.3759988
  89.4200012  26.3524997 105.5199988  89.4926504  25.6496052 106.0280818
  79.8720012  30.1754997 111.9669988  80.6170012  30.1734997 111.3659988
  79.9500012  29.3524997 112.4479988  79.9844995  30.0638887 111.9498282
  86.8730012  32.3394997 105.2229988  86.5770012  33.1654997 105.6039988
  86.1700012  31.7194997 105.4189988  86.7374914  32.3688199 105.3016443
  76.8800012  28.6364997 117.2819988  77.1030012  28.2184997 118.1139988
  76.2780012  28.0234997 116.8589988  76.8291759  28.4964668 117.3387022
  83.8960012  28.1534997 119.4949988  83.6000012  27.9874997 118.5999988
  84.8280012  27.9334997 119.4839988  83.9814166  28.1010640 119.3710536
  88.5170012  33.5264997 117.3849988  87.6160012  33.7094997 117.1169988
  88.5510012  33.7854997 118.3049988  88.3983139  33.5865849 117.4728099
  94.2480012  25.7714997 105.7519988  93.6940012  25.3754997 105.0799988
  94.3480012  26.6814997 105.4739988  94.1857059  25.8403586 105.6224401
  94.2110012  31.5714997 118.5889988  93.3600012  31.8094997 118.2219988
  94.8020012  31.5544997 117.8359988  94.1742487  31.6018258 118.4368893
  92.5430012  34.5574997 106.2169988  92.1700012  33.7314997 106.5259988
  92.8210012  34.3744997 105.3189988  92.5295222  34.4197430 106.1379473
  89.7040012  29.3654997 113.2379988  88.7750012  29.1334997 113.2109988
  90.1550012  28.5884997 112.9079988  89.6379216  29.2287238 113.1896917
  82.2470012  33.6934997 109.3709988  82.7740012  34.4664997 109.1709988
  81.3670012  33.9184997 109.0689988  82.2002031  33.8297545 109.3027912
  78.0020012  28.5554997 103.9579988  78.6180012  29.1824997 104.3379988
  77.1400012  28.8714997 104.2299988  77.9697698  28.6839430 104.0467183
  83.6740012  31.3564997 108.9469988  83.4330012  32.2814997 108.9889988
  82.9330012  30.8974997 109.3439988  83.5409225  31.4210933 109.0063742
  84.1890012  35.5054997 115.2629988  84.5510012  36.3604997 115.0289988
  84.7200012  35.2134997 116.0029988  84.3104473  35.5831060 115.3310855
  82.3570012  36.3784997 108.4929988  81.4070012  36.4834997 108.5439988
  82.7090012  37.1984997 108.8369988  82.2744195  36.5038800 108.5465502
  87.7330012  31.6044997 114.9629988  87.3070012  31.3774997 115.7899988
  88.3130012  30.8664997 114.7809988  87.7531868  31.4735299 115.0515830
  89.9360012  32.5334997 104.0369988  90.2890012  32.1534997 104.8409988
  88.9870012  32.4404997 104.1239988  89.8560918  32.4688956 104.1588532
  90.3910012  36.1564997 117.4329988  89.7900012  35.6014997 116.9369988
  90.6730012  36.8234997 116.8059988  90.3468804  36.1706625 117.2804849
  94.4390012  37.0134997 104.2379988  95.1830012  37.5994997 104.0979988
  93.7450012  37.5814997 104.5709988  94.4469899  37.1705798 104.2638778
  78.5140012  23.3894997 116.8399988  77.6210012  23.7284997 116.7719988
  78.4150012  22.5344997 117.2579988  78.3784164  23.3202588 116.8872235
  90.8020012  31.2064997 106.2639988  90.5240012  30.4784997 106.8199988
  91.7290012  31.3254997 106.4689988  90.8893124  31.1228802 106.3678845
  78.1650012  35.1944997 115.2749988  78.3820012  34.2624997 115.2439988
  78.4110012  35.4684997 116.1579988  78.2279549  35.1040636 115.3901763
  79.4170012  30.4684997 105.4509988  78.7310012  30.8204997 106.0179988
  79.9390012  31.2314997 105.2039988  79.3936852  30.6198578 105.4952118
  87.2480012  23.1304997 115.7299988  87.9470012  23.2044997 116.3799988
  86.8670012  22.2664997 115.8839988  87.2921767  23.0237624 115.8398322
  88.0330012  22.7824997 106.8269988  88.2530012  23.2544997 106.0239988
  88.5910012  23.1774997 107.4969988  88.1384968  22.9004285 106.8077331
  85.7010012  34.9134997 105.6899988  84.8850012  35.4104997 105.7419988
  86.2310012  35.3884997 105.0499988  85.6609161  35.0457722 105.6105956
  85.2330012  24.5104997 107.6619988  86.0450012  25.0154997 107.7079988
  84.9880012  24.3654997 108.5759988  85.3110520  24.5600375 107.7918517
  85.7680012  25.4964997 116.8459988  85.8870012  26.0704997 117.6039988
  86.4240012  24.8084997 116.9609988  85.8729025  25.4819858 116.9651321
  86.1160012  21.5914997 108.5999988  85.7700012  22.2094997 109.2439988
  86.7750012  22.0924997 108.1179988  86.1576968  21.7436278 108.6229383
  83.0400012  35.9574997 105.6709988  83.2000012  36.7564997 105.1709988
  82.8420012  36.2634997 106.5559988  83.0351637  36.1084020 105.7221144
  91.9730012  23.4034997 117.6809988  91.0560012  23.6664997 117.5939988
  92.3080012  23.4004997 116.7849988  91.8928613  23.4390761 117.5478837
  90.5750012  27.1544997 111.7769988  89.7770012  26.7394997 111.4489988
  91.0200012  26.4634997 112.2679988  90.5259885  27.0043543 111.7984889
  78.3490012  25.7464997 103.4639988  78.3040012  26.6854997 103.6419988
  77.4610012  25.5104997 103.1939988  78.2228574  25.8431892 103.4518912
  91.6610012  36.4104997 113.3999988  91.5060012  37.0884997 112.7419988
  92.5940012  36.4824997 113.6029988  91.7658657  36.5129546 113.3374360
  79.1570012  20.5284997 112.1369988  78.9280012  20.5874997 111.2089988
  78.7140012  19.7364997 112.4429988  79.0658530  20.4295753 112.0514786
  78.0870012  34.4684997 108.2969988  77.2550012  34.9414997 108.3239988
  78.6330012  34.9784997 107.6989988  78.0470352  34.6021332 108.2198463
  77.3750012  37.0814997 119.6269988  77.9160012  36.8644997 120.3869988
  76.8940012  36.2754997 119.4369988  77.3839951  36.9429270 119.7052576
  81.9730012  36.0004997 121.2469988  82.7400012  35.5414997 121.5879988
  81.9510012  35.7744997 120.3179988  82.0751275  35.9070186 121.1680101
  88.5500012  34.3804997 119.9769988  88.1990012  33.5244997 120.2199988
  89.2760012  34.5234997 120.5839988  88.6000769  34.2825636 120.0923619
  90.6690012  35.3254997 102.8559988  90.9520012  34.5314997 103.3089988
  91.4090012  35.5584997 102.2959988  90.8078006  35.2483376 102.8422715
  77.2820012  30.8914997 120.5809988  77.4260012  29.9894997 120.2949988
  76.5100012  31.1774997 120.0939988  77.1972753  30.8066816 120.4759505
  83.9380012  30.8614997 120.0139988  83.6090012  31.1324997 119.1569988
  84.0900012  29.9204997 119.9269988  83.9134809  30.7713862 119.8848244
  89.6720012  30.7774997 117.3969988  90.4180012  31.3654997 117.2779988
  88.9150012  31.3594997 117.4609988  89.6717820  30.9367143 117.3893590
  78.1150012  28.0914997 120.0009988  78.5230012  27.2344997 119.8799988
  77.8550012  28.1064997 120.9219988  78.1357568  27.9760807 120.1089588
  82.7730012  29.2074997 105.0199988  82.3130012  28.7234997 105.7059988
  83.0280012  28.5394997 104.3839988  82.7444902  29.0508731 105.0279334
  82.0620012  27.1004997 117.3759988  81.4440012  27.7754997 117.6559988
  82.4060012  27.4214997 116.5419988  82.0239132  27.2362411 117.3016262
  87.0820012  29.5724997 120.6529988  88.0350012  29.6554997 120.6259988
  86.9210012  28.8604997 121.2729988  87.1906426  29.4876746 120.7330579
  82.4010012  24.4554997 118.4579988  82.5510012  23.7264997 117.8559988
  82.4040012  25.2324997 117.8989988  82.4219302  24.4607851 118.3000692
  82.8140012  22.8254997 115.9509988  83.3500012  23.2764997 115.2989988
  81.9620012  22.7174997 115.5279988  82.7722178  22.8726390 115.8045756
  84.3960012  28.2644997 116.1899988  85.1460012  28.1084997 115.6169988
  84.0570012  29.1164997 115.9149988  84.4528921  28.3582968 116.0743561
  88.8110012  26.0794997 121.2189988  89.0040012  25.1484997 121.1069988
  89.6690012  26.5044997 121.2079988  88.9532934  26.0096531 121.2022031
  90.1280012  28.8684997 119.2959988  89.8470012  29.5774997 118.7179988
  91.0710012  28.7954997 119.1449988  90.2169291  28.9556711 119.1964967
  80.8800012  25.6534997 120.3699988  80.1130012  25.1214997 120.1589988
  81.5590012  25.3434997 119.7699988  80.8667877  25.5388300 120.2600716
  83.6200012  20.2814997 116.3819988  83.5210012  21.2284997 116.2769988
  82.8770012  19.9094997 115.9059988  83.5061184  20.3605863 116.3033621
  84.8840012  24.6034997 119.9459988  84.6480012  24.3834997 120.8469988
  84.1000012  24.3964997 119.4359988  84.7458504  24.5454586 120.0003431
  87.5990012  23.7304997 119.0209988  86.6520012  23.7624997 119.1539988
  87.9120012  23.1054997 119.6749988  87.5116707  23.6503998 119.1276060
  89.2330012  22.3644997 121.0269988  89.1370012  21.4124997 121.0209988
  88.9120012  22.6334997 121.8869988  89.1764070  22.2704035 121.1425441
  79.0600012  23.5744997 120.0739988  79.2720012  22.8674997 119.4639988
  78.9490012  23.1364997 120.9179988  79.0739721  23.4187084 120.1046843
  83.8410012  19.5754997 119.0529988  84.5530012  18.9354997 119.0389988
  83.7400012  19.8424997 118.1399988  83.9248066  19.5240079 118.9275677
  84.1950012  21.2584997 121.1069988  84.0630012  20.7824997 120.2869988
  83.5960012  22.0024997 121.0519988  84.0959071  21.2939618 120.9872886
  83.7410012  38.1414997 104.2829988  84.6740012  38.2994997 104.4269988
  83.4770012  38.8164997 103.6589988  83.8329888  38.2544510 104.2182842
  75.9590012  38.1704997 108.8439988  75.3120012  37.7084997 108.3109988
  76.3130012  37.4984997 109.4259988  75.9183849  38.0164723 108.8497959
  76.8290012  36.2514997 110.6479988  76.4940012  35.3714997 110.8199988
  77.0510012  36.5964997 111.5129988  76.8131783  36.1777500 110.7884208
  94.3770012  37.0604997 113.6289988  94.3560012  37.2454997 114.5679988
  95.0680012  37.6294997 113.2879988  94.4674618  37.1626606 113.7113864
  93.9410012  36.6284997 116.5509988  93.4530012  35.8924997 116.1789988
  94.4900012  36.2344997 117.2289988  93.9484820  36.4745889 116.5917813
  92.3910012  32.4174997 121.1889988  91.5250012  32.3124997 121.5829988
  92.7680012  33.1764997 121.6349988  92.3233308  32.5056900 121.3032393
  94.0870012  28.7274997 108.5259988  93.3600012  28.2484997 108.9239988
  94.6680012  28.9334997 109.2589988  94.0660473  28.6898103 108.6794528
  93.8460012  31.5124997 113.4739988  94.6790012  31.1344997 113.1939988
  93.9580012  32.4554997 113.3549988  93.9752647  31.5882218 113.4195487
  92.3320012  34.3904997 115.7809988  91.6850012  34.7154997 116.4069988
  91.8150012  33.9504997 115.1069988  92.1734029  34.3755004 115.7755827
  92.7040012  25.8684997 103.4679988  92.8000012  26.5354997 102.7879988
  92.5640012  25.0524997 102.9869988  92.6982272  25.8495655 103.3098347
  91.8730012  27.2484997 109.0889988  91.7230012  26.3034997 109.0689988
  91.5200012  27.5294997 109.9329988  91.8047448  27.1571481 109.2003705
  76.9090012  29.3264997 113.0999988  77.0930012  29.2444997 112.1639988
  77.7580012  29.2024997 113.5229988  77.0490151  29.2985073 113.0291451
  92.7300012  29.2184997 118.7279988  93.3130012  28.4844997 118.9199988
  93.2940012  29.9904997 118.7749988  92.8859769  29.2224227 118.7606159
  94.2260012  27.1214997 119.4129988  93.3630012  26.7424997 119.2469988
  94.8310012  26.3824997 119.3379988  94.1896119  26.9698268 119.3801528
  91.5840012  24.8314997 107.5519988  91.8640012  23.9244997 107.6759988
  92.3430012  25.2654997 107.1629988  91.7249277  24.7660942 107.5163682
  92.1960012  25.4124997 112.9879988  93.1290012  25.6244997 112.9529988
  91.9610012  25.5144997 113.9099988  92.2919244  25.4553100 113.1078892
  92.2250012  26.1494997 115.7639988  91.3820012  26.4174997 116.1299988
  92.6670012  26.9714997 115.5529988  92.1694158  26.2973291 115.7855491
  76.5060012  24.5974997 119.2409988  77.4260012  24.4754997 119.4769988
  76.0570012  23.8474997 119.6299988  76.5711580  24.4793727 119.3259006
  94.5080012  20.1294997 121.1169988  94.8580012  19.4754997 120.5119988
  94.6550012  20.9664997 120.6769988  94.5757887  20.1531548 120.9746858
  92.1970012  22.0944997 107.5999988  92.3800012  21.6454997 108.4259988
  91.5980012  21.5094997 107.1369988  92.1410202  21.9539975 107.6503275
  77.7270012  22.9094997 112.1319988  78.1730012  22.1174997 112.4339988
  78.1940012  23.6254997 112.5619988  77.8510831  22.8980685 112.2314006
  76.0310012  25.9084997 113.2009988  76.5230012  25.6874997 112.4099988
  76.3940012  26.7494997 113.4819988  76.1473126  25.9918357 113.1307531
  94.0280012  22.2384997 119.4659988  93.1100012  22.5094997 119.4309988
  94.1510012  21.7034997 118.6819988  93.9189729  22.2032508 119.3551923
  76.3450012  22.1664997 107.2549988  75.4200012  22.3754997 107.1259988
  76.7990012  22.6504997 106.5649988  76.2797292  22.2605343 107.1440720
  91.1160012  37.1504997 109.2009988  91.7680012  36.8034997 108.5929988
  91.6260012  37.6394997 109.8469988  91.2742637  37.1690597 109.2050236
  76.3090012  20.9044997 115.5989988  75.6440012  20.6584997 116.2429988
  75.8660012  21.5264997 115.0219988  76.1581318  20.9549410 115.6090898
  78.5010012  34.0794997 119.7439988  77.6800012  34.2544997 119.2829988
  78.2480012  34.0064997 120.6639988  78.3545585  34.0935544 119.8053561
  81.4550012  35.0544997 116.0019988  81.0300012  35.8634997 115.7199988
  82.3590012  35.1394997 115.6999988  81.5189975  35.1769300 115.9224816
  85.7660012  36.4534997 118.9619988  85.9510012  36.1194997 119.8399988
  86.6120012  36.7624997 118.6399988  85.9057539  36.4496047 119.0385605
  88.1110012  37.7394997 118.2059988  88.7880012  37.1064997 117.9659988
  88.4330012  38.1404997 119.0129988  88.2471637  37.7071154 118.2822793
  93.0280012  20.3284997 117.2849988  92.2160012  20.6534997 116.8979988
  93.2610012  19.5684997 116.7519988  92.9482203  20.2702758 117.1598880
  78.8570012  38.3104997 116.0499988  78.1360012  38.7504997 115.5989988
  78.4910012  38.0594997 116.8979988  78.7089651  38.3367242 116.1029640
  81.3240012  37.9104997 115.0799988  80.4590012  37.9824997 115.4839988
  81.2690012  38.4574997 114.2959988  81.1982085  37.9942685 115.0293362
  86.0340012  37.7984997 114.2549988  85.5780012  38.3274997 113.6009988
  86.1970012  38.4014997 114.9799988  85.9936068  37.9524607 114.2634838
  88.3620012  36.6764997 115.1999988  87.4570012  36.8414997 114.9339988
  88.7910012  37.5294997 115.1349988  88.2961324  36.8144339 115.1547976
  90.9660012  38.2464997 115.4949988  90.7840012  39.1624997 115.2849988
  91.1430012  37.8364997 114.6489988  90.9650210  38.3164822 115.3517885
  78.2710012  36.9334997 112.9599988  78.2530012  36.5084997 113.8169988
  79.0760012  36.6154997 112.5509988  78.3773529  36.8323013 113.0220946
  80.4130012  35.6434997 111.6149988  80.1940012  34.7274997 111.7849988
  81.2370012  35.7834997 112.0809988  80.4944420  35.5370520 111.7012774
  82.9500012  36.1134997 112.4639988  83.1630012  35.2254997 112.1769988
  83.0140012  36.0794997 113.4179988  82.9878232  35.9873102 112.5537397
  86.4580012  21.7774997 111.6079988  85.7840012  21.1484997 111.8639988
  87.0220012  21.2934997 111.0049988  86.4419230  21.6258744 111.5615340
  91.6010012  19.8854997 111.7209988  92.2050012  20.4324997 111.2189988
  90.7310012  20.2044997 111.4799988  91.5661208  20.0035137 111.6196886
  93.3280012  21.0234997 110.0539988  93.9400012  20.5094997 109.5269988
  93.7100012  21.9014997 110.0769988  93.4633371  21.0717866 109.9850041
  78.7850012  20.4114997 109.4299988  78.0080012  20.1774997 108.9229988
  79.3150012  19.6144997 109.4389988  78.7502330  20.2716988 109.3617742
  83.3640012  20.3384997 109.2439988  84.2390012  20.7264997 109.2139988
  83.2280012  20.1234997 110.1659988  83.4653695  20.3625184 109.3646440
  88.9210012  20.3684997 110.8929988  88.9970012  20.4634997 109.9429988
  88.6460012  19.4604997 111.0219988  88.8942321  20.2587867 110.7805079
  90.2740012  20.3944997 106.5849988  89.5720012  21.0094997 106.3749988
  89.8300012  19.5564997 106.7159988  90.1176450  20.3655639 106.5739000
  77.5220012  36.1574997 106.1309988  76.8370012  36.1194997 105.4639988
  77.5260012  37.0704997 106.4199988  77.4286998  36.2756733 106.0786771
  84.5080012  22.4184997 106.1329988  84.6860012  21.7724997 106.8159988
  84.4550012  23.2524997 106.5999988  84.5251999  22.4428009 106.2895917
  93.0960012  36.9304997 107.2079988  92.9010012  36.1824997 106.6429988
  93.0570012  37.6884997 106.6249988  93.0640380  36.9306099 107.0518384
  78.7430012  20.9254997 118.9479988  78.3770012  20.1604997 119.3899988
  79.6560012  20.9544997 119.2339988  78.8162736  20.8245640 119.0472502
  80.7160012  20.2764997 120.4839988  81.6140012  20.0024997 120.2989988
  80.3290012  19.5334997 120.9479988  80.7866612  20.1385914 120.5213643
  79.3400012  37.0774997 103.1569988  79.0730012  37.3644997 104.0299988
  80.1120012  36.5314997 103.3089988  79.4077488  37.0430294 103.2971050
  89.1370012  19.6084997 120.6659988  89.2140012  19.1824997 121.5199988
  90.0310012  19.6224997 120.3229988  89.2683428  19.5520879 120.7365310
  92.3130012  35.6814997 119.3579988  91.5310012  35.4954997 118.8379988
  92.2410012  36.6104997 119.5759988  92.1962274  35.7816643 119.3163018
 106.7190012  29.5674997 109.3889988 106.8080012  30.5114997 109.2569988
 106.0810012  29.2924997 108.7309988 106.6449081  29.6594830 109.2819614
 105.6520012  28.8224997 112.8079988 105.6140012  28.1764997 113.5129988
 105.3300012  28.3564997 112.0369988 105.6032333  28.6709408 112.8002978
  98.0210012  28.4374997 114.4009988  98.0620012  27.8114997 115.1239988
  98.7240012  29.0614997 114.5829988  98.1216363  28.4361196 114.5246044
 109.3580012  31.7614997 111.1089988 108.9180012  31.0414997 111.5599988
 109.3450012  32.4824997 111.7389988 109.2960226  31.7603731 111.2558494
  98.9440012  32.8874997 112.9359988  98.5750012  32.0854997 112.5659988
  99.8850012  32.7184997 112.9819988  99.0207289  32.7550153 112.8916316
  95.5540012  26.5474997 108.3289988  95.1070012  27.3934997 108.3099988
  94.9930012  25.9674997 107.8129988  95.4169900  26.5849916 108.2566801
  96.2650012  28.7094997 110.4539988  96.4780012  27.9394997 110.9819988
  97.0030012  28.7984997 109.8509988  96.3939044  28.6161968 110.4447123
 106.4700012  36.8664997 111.3209988 107.0900012  36.1894997 111.0479988
 106.2620012  36.6484997 112.2299988 106.5266726  36.7444800 111.4064812
 104.0420012  31.2554997 113.2139988 104.3460012  30.5694997 112.6189988
 104.7630012  31.3734997 113.8319988 104.1810671  31.1776305 113.2161816
 112.7050012  22.8564997 114.0749988 112.7540012  23.4664997 114.8099988
 113.1300012  23.3174997 113.3519988 112.7691746  23.0023796 114.0779175
 107.1830012  25.6494997 113.5409988 107.3250012  24.7034997 113.5619988
 107.0760012  25.8564997 112.6129988 107.1879919  25.5478246 113.4183408
 100.3370012  23.7504997 110.8139988 100.3810012  24.6104997 110.3949988
  99.8800012  23.1984997 110.1799988 100.2812240  23.7934422 110.6709864
 108.0600012  23.8814997 109.2149988 108.7060012  23.5524997 109.8389988
 108.5700012  24.3994997 108.5919988 108.2174299  23.9064450 109.2162731
  96.9580012  26.1474997 111.5759988  97.6110012  25.5974997 112.0079988
  96.9820012  25.8734997 110.6589988  97.0506683  26.0351466 111.5112123
 102.1140012  27.6974997 110.7909988 102.7300012  27.1714997 111.3009988
 101.5280012  27.0574997 110.3879988 102.1190810  27.5389208 110.8063173
 113.0960012  24.3344997 116.3099988 112.4080012  24.9924997 116.2149988
 113.1120012  24.1374997 117.2469988 113.0039540  24.3979819 116.4235990
  99.1480012  22.6684997 114.8879988  98.9290012  23.1984997 114.1219988
  98.4800012  22.8954997 115.5349988  99.0277600  22.7716906 114.8706379
 106.5170012  32.1684997 108.4319988 106.2210012  31.8464997 107.5809988
 106.1920012  33.0684997 108.4729988 106.4326371  32.2460215 108.3211801
 101.7170012  30.3444997 115.1749988 100.9770012  30.9424997 115.2789988
 102.4310012  30.8984997 114.8599988 101.7122237  30.5012831 115.1466465
 109.8240012  23.1724997 111.1949988 109.6080012  22.4064997 111.7279988
 110.4790012  23.6444997 111.7079988 109.8830632  23.1315889 111.3372861
  98.7410012  24.5604997 112.8399988  99.3550012  25.1934997 113.2129988
  99.2530012  24.0884997 112.1839988  98.8941981  24.5832267 112.8022908
 100.1240012  32.3084997 115.9619988 100.1190012  33.1884997 115.5839988
  99.2710012  32.2254997 116.3869988 100.0079464  32.4176117 115.9677907
  96.2450012  31.9794997 106.7439988  95.9730012  32.2084997 105.8559988
  96.2910012  32.8174997 107.2049988  96.2139482  32.1241318 106.6846273
 109.8700012  33.6014997 113.4569988 108.9290012  33.6594997 113.6189988
 110.1470012  34.5074997 113.3199988 109.7784679  33.7319443 113.4606815
 110.1710012  21.8874997 114.8749988 109.4350012  22.4984997 114.8369988
 110.8540012  22.3024997 114.3479988 110.1626541  22.0271374 114.7985832
 103.1740012  19.9744997 112.3399988 103.0570012  19.0254997 112.2859988
 102.3190012  20.3064997 112.6139988 103.0424212  19.8895571 112.3696497
 108.1220012  35.3824997 110.0819988 108.5480012  34.6754997 109.5969988
 108.4390012  36.1834997 109.6659988 108.2231683  35.3941017 109.9593680
 109.2820012  33.2834997 108.5909988 109.0240012  32.5934997 107.9799988
 109.3530012  32.8404997 109.4369988 109.2562856  33.1292124 108.6216885
 110.9680012  31.8494997 117.0679988 111.1080012  31.2584997 116.3289988
 111.1350012  32.7224997 116.7119988 111.0097411  31.8865428 116.9186894
 105.4410012  28.8114997 106.8409988 104.7290012  29.3464997 106.4889988
 106.1320012  28.8674997 106.1809988 105.4370132  28.8922543 106.7036289
 112.8100012  28.1894997 115.1339988 112.1570012  28.8844997 115.2239988
 113.2750012  28.3994997 114.3249988 112.7835274  28.3130643 115.0368462
 108.8460012  29.0214997 107.7929988 108.1140012  29.2494997 108.3659988
 109.2940012  28.3074997 108.2469988 108.8062725  28.9562145 107.9328816
 108.7440012  27.1954997 116.8599988 108.8240012  27.9584997 117.4319988
 108.1420012  27.4744997 116.1699988 108.6735756  27.3377134 116.8450589
 100.4920012  29.6514997 109.6749988 100.1610012  29.2814997 108.8569988
 101.0800012  28.9814997 110.0219988 100.5261873  29.5101156 109.6098102
 101.8580012  33.0794997 112.3559988 101.7640012  32.5014997 111.5999988
 102.5880012  32.7084997 112.8529988 101.9437387  32.9501663 112.3195342
 100.8580012  28.4204997 113.3089988 101.4240012  28.5414997 112.5459988
 101.1770012  29.0574997 113.9469988 100.9785474  28.5232219 113.2909862
 107.1670012  33.9234997 114.0429988 106.9270012  34.5854997 114.6909988
 106.9690012  33.0894997 114.4679988 107.1073808  33.9013134 114.1891524
 101.7380012  32.8194997 118.0259988 101.4270012  33.6014997 118.4809988
 101.0880012  32.6664997 117.3399988 101.6075558  32.9059105 117.9955871
 107.7170012  28.1834997 105.4779988 108.2970012  28.3334997 106.2249988
 108.1310012  28.6544997 104.7539988 107.8522997  28.2676578 105.4824058
  98.6580012  29.0174997 117.2539988  98.7290012  29.6684997 117.9529988
  97.7680012  29.1204997 116.9189988  98.5473005  29.1205427 117.3043495
 105.4440012  34.9204997 108.9129988 105.9180012  35.2154997 109.6899988
 104.8810012  35.6584997 108.6799988 105.4328184  35.0607247 108.9879628
  99.9780012  34.8914997 118.7889988  99.9850012  34.7554997 117.8419988
  99.0620012  34.7734997 119.0409988  99.8551714  34.8569430 118.6934666
 111.4160012  19.9334997 105.2909988 110.5160012  20.0724997 105.5859988
 111.6680012  20.7644997 104.8889988 111.3268702  20.0649074 105.2770205
  99.4820012  28.7214997 107.2639988  99.1900012  29.4894997 106.7739988
  98.8080012  28.0614997 107.1019988  99.3508111  28.7375587 107.1748978
 112.6050012  34.2994997 103.6669988 112.6790012  35.2384997 103.8379988
 113.5110012  33.9944997 103.6109988 112.7375100  34.3866722 103.6828119
  95.5750012  31.0844997 116.0789988  95.0740012  31.0564997 115.2639988
  95.5800012  30.1784997 116.3889988  95.5070944  30.9582396 116.0093226
  95.3250012  33.8644997 112.9629988  96.2710012  33.7204997 112.9439988
  95.2130012  34.6484997 113.4999988  95.4392727  33.9508046 113.0330072
 113.5230012  34.5304997 118.6459988 113.4740012  33.5754997 118.6089988
 112.6960012  34.7984997 119.0469988 113.4044940  34.4358998 118.6951375
 104.5020012  34.1044997 117.5219988 104.5890012  34.9304997 117.9969988
 103.6380012  33.7744997 117.7709988 104.3971964  34.1729878 117.6206549
 104.9160012  37.8764997 107.3279988 104.8410012  37.7554997 106.3809988
 104.9490012  38.8264997 107.4459988 104.9102068  37.9882646 107.2144967
  98.5690012  36.6654997 109.1089988  98.7220012  36.3174997 109.9869988
  97.7190012  36.3094997 108.8539988  98.4749166  36.5696217 109.1948079
 107.6870012  36.9564997 107.0789988 106.7510012  37.0564997 107.2579988
 107.9670012  36.2474997 107.6579988 107.5969553  36.8743406 107.1817087
 110.6750012  26.0234997 119.1259988 110.2680012  26.5044997 118.4049988
 110.7160012  25.1184997 118.8179988 110.6248437  25.9669374 118.9856683
  97.8240012  32.4074997 117.1229988  98.0400012  32.0464997 117.9819988
  96.9690012  32.0334997 116.9129988  97.7379292  32.3074111 117.2123386
 100.4430012  20.8774997 113.1179988  99.5810012  20.7904997 112.7099988
 100.4200012  21.7334997 113.5459988 100.3220409  20.9812883 113.1200589
 105.1060012  20.5994997 116.4929988 105.5260012  20.1844997 117.2459988
 104.1730012  20.4214997 116.6099988 105.0373644  20.5185900 116.6119539
 108.4320012  24.3554997 117.3459988 107.9180012  24.2294997 118.1439988
 108.2770012  25.2674997 117.1019988 108.3406852  24.4616132 117.4222158
 100.5340012  25.8434997 114.2129988  99.8920012  25.8024997 114.9219988
 100.5710012  26.7694997 113.9749988 100.4510664  25.9631430 114.2779219
 100.5310012  26.0644997 109.1249988  99.6380012  25.7234997 109.0659988
 100.9810012  25.6874997 108.3689988 100.4698130  25.9669631 109.0147702
 106.0660012  26.4804997 107.9419988 105.6570012  27.2954997 107.6509988
 106.7870012  26.3404997 107.3279988 106.1074537  26.5732018 107.8191342
 105.1680012  26.6554997 119.4299988 104.6060012  25.9514997 119.7509988
 105.9950012  26.5354997 119.8979988 105.2027095  26.5427883 119.5372330
 107.0710012  25.9264997 110.7559988 106.8760012  26.5314997 110.0409988
 107.2520012  25.0924997 110.3219988 107.0687614  25.8966300 110.5994405
  98.2840012  26.1634997 116.0799988  98.2460012  26.5634997 116.9489988
  97.7930012  25.3464997 116.1709988  98.2124684  26.1078069 116.2111059
  94.8920012  23.2794997 109.9309988  95.5230012  23.2504997 110.6499988
  95.3410012  22.8544997 109.1999988  95.0390918  23.2180836 109.9306441
  96.1660012  24.0254997 105.3549988  96.6400012  24.6164997 104.7699988
  95.4490012  24.5564997 105.7019988  96.1339341  24.1780867 105.3218836
 106.3350012  27.5644997 115.4269988 106.6580012  26.9334997 114.7839988
 105.8950012  27.0294997 116.0879988 106.3197484  27.4058387 115.4283198
 103.1120012  23.4914997 110.2109988 102.2010012  23.5484997 110.4999988
 103.6180012  23.4314997 111.0219988 103.0556899  23.4911941 110.3601184
  97.9410012  25.1204997 109.0379988  97.0510012  25.2204997 108.6979988
  98.2370012  24.2784997 108.6919988  97.8592823  25.0203545 108.9447213
 101.5940012  25.1204997 106.6949988 102.5250012  25.2494997 106.8729988
 101.3790012  25.7904997 106.0449988 101.6924247  25.2286565 106.6315747
 107.5170012  22.7264997 113.4759988 106.8410012  22.8574997 114.1399988
 107.0320012  22.5714997 112.6649988 107.3587146  22.7235157 113.4574469
 110.8050012  38.3984997 119.7519988 111.0050012  38.8224997 118.9179988
 111.4600012  38.7414997 120.3589988 110.9210072  38.5029857 119.7198592
  98.4030012  30.8724997 119.3599988  99.1350012  31.1264997 119.9219988
  97.6230012  31.0764997 119.8759988  98.3977073  30.9348160 119.5066151
 104.4320012  26.2794997 112.0979988 104.9970012  25.7324997 111.5509988
 104.2850012  25.7574997 112.8869988 104.4893380  26.1342259 112.1298695
  99.4340012  22.4154997 108.5169988  99.1170012  21.5134997 108.4809988
 100.2160012  22.4174997 107.9639988  99.4962408  22.2922474 108.4373569
 103.0590012  24.6674997 114.5119988 102.2230012  25.1214997 114.6229988
 103.5830012  24.9434997 115.2639988 103.0155416  24.7668660 114.6288119
 103.6030012  30.8804997 106.1969988 102.8580012  30.3734997 105.8749988
 103.4690012  30.9294997 107.1439988 103.4828776  30.8176940 106.2808647
 110.7530012  30.0134997 114.9839988 111.3950012  30.4704997 114.4399988
 109.9230012  30.1264997 114.5209988 110.7285963  30.0912704 114.8470177
 105.1220012  31.0644997 117.4339988 104.7770012  30.6834997 118.2409988
 104.9220012  31.9984997 117.5049988 105.0477527  31.1385135 117.5540689
 108.2190012  25.5614997 106.0569988 109.1110012  25.4244997 106.3759988
 108.2760012  26.3524997 105.5199988 108.3486504  25.6496052 106.0280818
  98.7280012  30.1754997 111.9669988  99.4730012  30.1734997 111.3659988
  98.8060012  29.3524997 112.4479988  98.8404995  30.0638887 111.9498282
  95.7360012  28.6364997 117.2819988  95.9590012  28.2184997 118.1139988
  95.1340012  28.0234997 116.8589988  95.6851759  28.4964668 117.3387022
 102.7520012  28.1534997 119.4949988 102.4560012  27.9874997 118.5999988
 103.6840012  27.9334997 119.4839988 102.8374166  28.1010640 119.3710536
 107.3730012  33.5264997 117.3849988 106.4720012  33.7094997 117.1169988
 107.4070012  33.7854997 118.3049988 107.2543139  33.5865849 117.4728099
 113.0670012  31.5714997 118.5889988 112.2160012  31.8094997 118.2219988
 113.6580012  31.5544997 117.8359988 113.0302487  31.6018258 118.4368893
 111.3990012  34.5574997 106.2169988 111.0260012  33.7314997 106.5259988
 111.6770012  34.3744997 105.3189988 111.3855222  34.4197430 106.1379473
 108.5600012  29.3654997 113.2379988 107.6310012  29.1334997 113.2109988
 109.0110012  28.5884997 112.9079988 108.4939216  29.2287238 113.1896917
 101.1030012  33.6934997 109.3709988 101.6300012  34.4664997 109.1709988
 100.2230012  33.9184997 109.0689988 101.0562031  33.8297545 109.3027912
 102.5300012  31.3564997 108.9469988 102.2890012  32.2814997 108.9889988
 101.7890012  30.8974997 109.3439988 102.3969225  31.4210933 109.0063742
 103.0450012  35.5054997 115.2629988 103.4070012  36.3604997 115.0289988
 103.5760012  35.2134997 116.0029988 103.1664473  35.5831060 115.3310855
 101.2130012  36.3784997 108.4929988 100.2630012  36.4834997 108.5439988
 101.5650012  37.1984997 108.8369988 101.1304195  36.5038800 108.5465502
 106.5890012  31.6044997 114.9629988 106.1630012  31.3774997 115.7899988
 107.1690012  30.8664997 114.7809988 106.6091868  31.4735299 115.0515830
 109.2470012  36.1564997 117.4329988 108.6460012  35.6014997 116.9369988
 109.5290012  36.8234997 116.8059988 109.2028804  36.1706625 117.2804849
 113.2950012  37.0134997 104.2379988 114.0390012  37.5994997 104.0979988
 112.6010012  37.5814997 104.5709988 113.3029899  37.1705798 104.2638778
  97.3700012  23.3894997 116.8399988  96.4770012  23.7284997 116.7719988
  97.2710012  22.5344997 117.2579988  97.2344164  23.3202588 116.8872235
 109.6580012  31.2064997 106.2639988 109.3800012  30.4784997 106.8199988
 110.5850012  31.3254997 106.4689988 109.7453124  31.1228802 106.3678845
  97.0210012  35.1944997 115.2749988  97.2380012  34.2624997 115.2439988
  97.2670012  35.4684997 116.1579988  97.0839549  35.1040636 115.3901763
  98.2730012  30.4684997 105.4509988  97.5870012  30.8204997 106.0179988
  98.7950012  31.2314997 105.2039988  98.2496852  30.6198578 105.4952118
 106.1040012  23.1304997 115.7299988 106.8030012  23.2044997 116.3799988
 105.7230012  22.2664997 115.8839988 106.1481767  23.0237624 115.8398322
 106.8890012  22.7824997 106.8269988 107.1090012  23.2544997 106.0239988
 107.4470012  23.1774997 107.4969988 106.9944968  22.9004285 106.8077331
 104.5570012  34.9134997 105.6899988 103.7410012  35.4104997 105.7419988
 105.0870012  35.3884997 105.0499988 104.5169161  35.0457722 105.6105956
 104.0890012  24.5104997 107.6619988 104.9010012  25.0154997 107.7079988
 103.8440012  24.3654997 108.5759988 104.1670520  24.5600375 107.7918517
 104.6240012  25.4964997 116.8459988 104.7430012  26.0704997 117.6039988
 105.2800012  24.8084997 116.9609988 104.7289025  25.4819858 116.9651321
 104.9720012  21.5914997 108.5999988 104.6260012  22.2094997 109.2439988
 105.6310012  22.0924997 108.1179988 105.0136968  21.7436278 108.6229383
 101.8960012  35.9574997 105.6709988 102.0560012  36.7564997 105.1709988
 101.6980012  36.2634997 106.5559988 101.8911637  36.1084020 105.7221144
 100.6300012  22.6544997 105.2869988 100.5470012  23.5434997 105.6339988
 101.5200012  22.3894997 105.5189988 100.7389469  22.7401430 105.3657626
 110.8290012  23.4034997 117.6809988 109.9120012  23.6664997 117.5939988
 111.1640012  23.4004997 116.7849988 110.7488613  23.4390761 117.5478837
 109.4310012  27.1544997 111.7769988 108.6330012  26.7394997 111.4489988
 109.8760012  26.4634997 112.2679988 109.3819885  27.0043543 111.7984889
  97.2050012  25.7464997 103.4639988  97.1600012  26.6854997 103.6419988
  96.3170012  25.5104997 103.1939988  97.0788574  25.8431892 103.4518912
 110.5170012  36.4104997 113.3999988 110.3620012  37.0884997 112.7419988
 111.4500012  36.4824997 113.6029988 110.6218657  36.5129546 113.3374360
  98.0130012  20.5284997 112.1369988  97.7840012  20.5874997 111.2089988
  97.5700012  19.7364997 112.4429988  97.9218530  20.4295753 112.0514786
  96.9430012  34.4684997 108.2969988  96.1110012  34.9414997 108.3239988
  97.4890012  34.9784997 107.6989988  96.9030352  34.6021332 108.2198463
  96.2310012  37.0814997 119.6269988  96.7720012  36.8644997 120.3869988
  95.7500012  36.2754997 119.4369988  96.2399951  36.9429270 119.7052576
 100.8290012  36.0004997 121.2469988 101.5960012  35.5414997 121.5879988
 100.8070012  35.7744997 120.3179988 100.9311275  35.9070186 121.1680101
 104.9210012  35.5084997 102.6229988 104.2770012  34.8774997 102.9439988
 105.6830012  34.9774997 102.3909988 104.9358077  35.3502920 102.6356011
 107.4060012  34.3804997 119.9769988 107.0550012  33.5244997 120.2199988
 108.1320012  34.5234997 120.5839988 107.4560769  34.2825636 120.0923619
 109.5250012  35.3254997 102.8559988 109.8080012  34.5314997 103.3089988
 110.2650012  35.5584997 102.2959988 109.6638006  35.2483376 102.8422715
  96.1380012  30.8914997 120.5809988  96.2820012  29.9894997 120.2949988
  95.3660012  31.1774997 120.0939988  96.0532753  30.8066816 120.4759505
 102.7940012  30.8614997 120.0139988 102.4650012  31.1324997 119.1569988
 102.9460012  29.9204997 119.9269988 102.7694809  30.7713862 119.8848244
 108.5280012  30.7774997 117.3969988 109.2740012  31.3654997 117.2779988
 107.7710012  31.3594997 117.4609988 108.5277820  30.9367143 117.3893590
  96.9710012  28.0914997 120.0009988  97.3790012  27.2344997 119.8799988
  96.7110012  28.1064997 120.9219988  96.9917568  27.9760807 120.1089588
 101.6290012  29.2074997 105.0199988 101.1690012  28.7234997 105.7059988
 101.8840012  28.5394997 104.3839988 101.6004902  29.0508731 105.0279334
 100.9180012  27.1004997 117.3759988 100.3000012  27.7754997 117.6559988
 101.2620012  27.4214997 116.5419988 100.8799132  27.2362411 117.3016262
 105.9380012  29.5724997 120.6529988 106.8910012  29.6554997 120.6259988
 105.7770012  28.8604997 121.2729988 106.0466426  29.4876746 120.7330579
 101.2570012  24.4554997 118.4579988 101.4070012  23.7264997 117.8559988
 101.2600012  25.2324997 117.8989988 101.2779302  24.4607851 118.3000692
 101.6700012  22.8254997 115.9509988 102.2060012  23.2764997 115.2989988
 100.8180012  22.7174997 115.5279988 101.6282178  22.8726390 115.8045756
 103.2520012  28.2644997 116.1899988 104.0020012  28.1084997 115.6169988
 102.9130012  29.1164997 115.9149988 103.3088921  28.3582968 116.0743561
 107.6670012  26.0794997 121.2189988 107.8600012  25.1484997 121.1069988
 108.5250012  26.5044997 121.2079988 107.8092934  26.0096531 121.2022031
 108.9840012  28.8684997 119.2959988 108.7030012  29.5774997 118.7179988
 109.9270012  28.7954997 119.1449988 109.0729291  28.9556711 119.1964967
  99.7360012  25.6534997 120.3699988  98.9690012  25.1214997 120.1589988
 100.4150012  25.3434997 119.7699988  99.7227877  25.5388300 120.2600716
 102.4760012  20.2814997 116.3819988 102.3770012  21.2284997 116.2769988
 101.7330012  19.9094997 115.9059988 102.3621184  20.3605863 116.3033621
 103.7400012  24.6034997 119.9459988 103.5040012  24.3834997 120.8469988
 102.9560012  24.3964997 119.4359988 103.6018504  24.5454586 120.0003431
 106.4550012  23.7304997 119.0209988 105.5080012  23.7624997 119.1539988
 106.7680012  23.1054997 119.6749988 106.3676707  23.6503998 119.1276060
 108.0890012  22.3644997 121.0269988 107.9930012  21.4124997 121.0209988
 107.7680012  22.6334997 121.8869988 108.0324070  22.2704035 121.1425441
  97.9160012  23.5744997 120.0739988  98.1280012  22.8674997 119.4639988
  97.8050012  23.1364997 120.9179988  97.9299721  23.4187084 120.1046843
 102.6970012  19.5754997 119.0529988 103.4090012  18.9354997 119.0389988
 102.5960012  19.8424997 118.1399988 102.7808066  19.5240079 118.9275677
 103.0510012  21.2584997 121.1069988 102.9190012  20.7824997 120.2869988
 102.4520012  22.0024997 121.0519988 102.9519071  21.2939618 120.9872886
 102.5970012  38.1414997 104.2829988 103.5300012  38.2994997 104.4269988
 102.3330012  38.8164997 103.6589988 102.6889888  38.2544510 104.2182842
  96.1660012  32.7774997 103.7659988  97.0800012  32.8564997 104.0399988
  96.1730012  32.0904997 103.0999988  96.2921131  32.6953961 103.7134393
  94.8150012  38.1704997 108.8439988  94.1680012  37.7084997 108.3109988
  95.1690012  37.4984997 109.4259988  94.7743849  38.0164723 108.8497959
  95.6850012  36.2514997 110.6479988  95.3500012  35.3714997 110.8199988
  95.9070012  36.5964997 111.5129988  95.6691783  36.1777500 110.7884208
 113.2330012  37.0604997 113.6289988 113.2120012  37.2454997 114.5679988
 113.9240012  37.6294997 113.2879988 113.3234618  37.1626606 113.7113864
 112.7970012  36.6284997 116.5509988 112.3090012  35.8924997 116.1789988
 113.3460012  36.2344997 117.2289988 112.8044820  36.4745889 116.5917813
 111.2470012  32.4174997 121.1889988 110.3810012  32.3124997 121.5829988
 111.6240012  33.1764997 121.6349988 111.1793308  32.5056900 121.3032393
 112.5480012  30.6744997 106.7029988 113.3980012  31.0954997 106.8299988
 112.5540012  29.9344997 107.3099988 112.6651372  30.6320803 106.8024344
 112.9430012  28.7274997 108.5259988 112.2160012  28.2484997 108.9239988
 113.5240012  28.9334997 109.2589988 112.9220473  28.6898103 108.6794528
 112.7020012  31.5124997 113.4739988 113.5350012  31.1344997 113.1939988
 112.8140012  32.4554997 113.3549988 112.8312647  31.5882218 113.4195487
 111.1880012  34.3904997 115.7809988 110.5410012  34.7154997 116.4069988
 110.6710012  33.9504997 115.1069988 111.0294029  34.3755004 115.7755827
 113.2110012  28.6284997 104.9179988 112.6890012  28.9854997 104.1989988
 113.1780012  29.3034997 105.5959988 113.1351634  28.7685413 104.9113145
 110.7290012  27.2484997 109.0889988 110.5790012  26.3034997 109.0689988
 110.3760012  27.5294997 109.9329988 110.6607448  27.1571481 109.2003705
  95.7650012  29.3264997 113.0999988  95.9490012  29.2444997 112.1639988
  96.6140012  29.2024997 113.5229988  95.9050151  29.2985073 113.0291451
 111.5860012  29.2184997 118.7279988 112.1690012  28.4844997 118.9199988
 112.1500012  29.9904997 118.7749988 111.7419769  29.2224227 118.7606159
 113.0820012  27.1214997 119.4129988 112.2190012  26.7424997 119.2469988
 113.6870012  26.3824997 119.3379988 113.0456119  26.9698268 119.3801528
 110.4400012  24.8314997 107.5519988 110.7200012  23.9244997 107.6759988
 111.1990012  25.2654997 107.1629988 110.5809277  24.7660942 107.5163682
 111.0520012  25.4124997 112.9879988 111.9850012  25.6244997 112.9529988
 110.8170012  25.5144997 113.9099988 111.1479244  25.4553100 113.1078892
 111.0810012  26.1494997 115.7639988 110.2380012  26.4174997 116.1299988
 111.5230012  26.9714997 115.5529988 111.0254158  26.2973291 115.7855491
  95.3620012  24.5974997 119.2409988  96.2820012  24.4754997 119.4769988
  94.9130012  23.8474997 119.6299988  95.4271580  24.4793727 119.3259006
 113.3640012  20.1294997 121.1169988 113.7140012  19.4754997 120.5119988
 113.5110012  20.9664997 120.6769988 113.4317887  20.1531548 120.9746858
 111.0530012  22.0944997 107.5999988 111.2360012  21.6454997 108.4259988
 110.4540012  21.5094997 107.1369988 110.9970202  21.9539975 107.6503275
  96.5830012  22.9094997 112.1319988  97.0290012  22.1174997 112.4339988
  97.0500012  23.6254997 112.5619988  96.7070831  22.8980685 112.2314006
  94.8870012  25.9084997 113.2009988  95.3790012  25.6874997 112.4099988
  95.2500012  26.7494997 113.4819988  95.0033126  25.9918357 113.1307531
 112.8840012  22.2384997 119.4659988 111.9660012  22.5094997 119.4309988
 113.0070012  21.7034997 118.6819988 112.7749729  22.2032508 119.3551923
 112.9200012  22.1614997 104.1279988 113.3320012  21.4404997 103.6529988
 113.6020012  22.8314997 104.1869988 113.0685885  22.1532368 104.0708915
  95.2010012  22.1664997 107.2549988  94.2760012  22.3754997 107.1259988
  95.6550012  22.6504997 106.5649988  95.1357292  22.2605343 107.1440720
 109.9720012  37.1504997 109.2009988 110.6240012  36.8034997 108.5929988
 110.4820012  37.6394997 109.8469988 110.1302637  37.1690597 109.2050236
  95.1650012  20.9044997 115.5989988  94.5000012  20.6584997 116.2429988
  94.7220012  21.5264997 115.0219988  95.0141318  20.9549410 115.6090898
  97.3570012  34.0794997 119.7439988  96.5360012  34.2544997 119.2829988
  97.1040012  34.0064997 120.6639988  97.2105585  34.0935544 119.8053561
 100.3110012  35.0544997 116.0019988  99.8860012  35.8634997 115.7199988
 101.2150012  35.1394997 115.6999988 100.3749975  35.1769300 115.9224816
 104.6220012  36.4534997 118.9619988 104.8070012  36.1194997 119.8399988
 105.4680012  36.7624997 118.6399988 104.7617539  36.4496047 119.0385605
 106.9670012  37.7394997 118.2059988 107.6440012  37.1064997 117.9659988
 107.2890012  38.1404997 119.0129988 107.1031637  37.7071154 118.2822793
 111.8840012  20.3284997 117.2849988 111.0720012  20.6534997 116.8979988
 112.1170012  19.5684997 116.7519988 111.8042203  20.2702758 117.1598880
  97.7130012  38.3104997 116.0499988  96.9920012  38.7504997 115.5989988
  97.3470012  38.0594997 116.8979988  97.5649651  38.3367242 116.1029640
 100.1800012  37.9104997 115.0799988  99.3150012  37.9824997 115.4839988
 100.1250012  38.4574997 114.2959988 100.0542085  37.9942685 115.0293362
 104.8900012  37.7984997 114.2549988 104.4340012  38.3274997 113.6009988
 105.0530012  38.4014997 114.9799988 104.8496068  37.9524607 114.2634838
 107.2180012  36.6764997 115.1999988 106.3130012  36.8414997 114.9339988
 107.6470012  37.5294997 115.1349988 107.1521324  36.8144339 115.1547976
 109.8220012  38.2464997 115.4949988 109.6400012  39.1624997 115.2849988
 109.9990012  37.8364997 114.6489988 109.8210210  38.3164822 115.3517885
  97.1270012  36.9334997 112.9599988  97.1090012  36.5084997 113.8169988
  97.9320012  36.6154997 112.5509988  97.2333529  36.8323013 113.0220946
  99.2690012  35.6434997 111.6149988  99.0500012  34.7274997 111.7849988
 100.0930012  35.7834997 112.0809988  99.3504420  35.5370520 111.7012774
 101.8060012  36.1134997 112.4639988 102.0190012  35.2254997 112.1769988
 101.8700012  36.0794997 113.4179988 101.8438232  35.9873102 112.5537397
 105.3140012  21.7774997 111.6079988 104.6400012  21.1484997 111.8639988
 105.8780012  21.2934997 111.0049988 105.2979230  21.6258744 111.5615340
 110.4570012  19.8854997 111.7209988 111.0610012  20.4324997 111.2189988
 109.5870012  20.2044997 111.4799988 110.4221208  20.0035137 111.6196886
 112.1840012  21.0234997 110.0539988 112.7960012  20.5094997 109.5269988
 112.5660012  21.9014997 110.0769988 112.3193371  21.0717866 109.9850041
  97.6410012  20.4114997 109.4299988  96.8640012  20.1774997 108.9229988
  98.1710012  19.6144997 109.4389988  97.6062330  20.2716988 109.3617742
 102.2200012  20.3384997 109.2439988 103.0950012  20.7264997 109.2139988
 102.0840012  20.1234997 110.1659988 102.3213695  20.3625184 109.3646440
 107.7770012  20.3684997 110.8929988 107.8530012  20.4634997 109.9429988
 107.5020012  19.4604997 111.0219988 107.7502321  20.2587867 110.7805079
 109.1300012  20.3944997 106.5849988 108.4280012  21.0094997 106.3749988
 108.6860012  19.5564997 106.7159988 108.9736450  20.3655639 106.5739000
  96.3780012  36.1574997 106.1309988  95.6930012  36.1194997 105.4639988
  96.3820012  37.0704997 106.4199988  96.2846998  36.2756733 106.0786771
  98.3380012  22.1254997 103.6759988  98.8300012  21.4954997 103.1489988
  98.9620012  22.4214997 104.3389988  98.4895688  22.0793804 103.6935482
 103.3640012  22.4184997 106.1329988 103.5420012  21.7724997 106.8159988
 103.3110012  23.2524997 106.5999988 103.3811999  22.4428009 106.2895917
 105.2430012  37.3674997 104.5289988 106.1090012  37.7334997 104.3509988
 104.9960012  36.9274997 103.7149988 105.3282392  37.3581756 104.3946289
 111.9520012  36.9304997 107.2079988 111.7570012  36.1824997 106.6429988
 111.9130012  37.6884997 106.6249988 111.9200380  36.9306099 107.0518384
  97.5990012  20.9254997 118.9479988  97.2330012  20.1604997 119.3899988
  98.5120012  20.9544997 119.2339988  97.6722736  20.8245640 119.0472502
  99.5720012  20.2764997 120.4839988 100.4700012  20.0024997 120.2989988
  99.1850012  19.5334997 120.9479988  99.6426612  20.1385914 120.5213643
  98.1960012  37.0774997 103.1569988  97.9290012  37.3644997 104.0299988
  98.9680012  36.5314997 103.3089988  98.2637488  37.0430294 103.2971050
 107.9930012  19.6084997 120.6659988 108.0700012  19.1824997 121.5199988
 108.8870012  19.6224997 120.3229988 108.1243428  19.5520879 120.7365310
 111.1690012  35.6814997 119.3579988 110.3870012  35.4954997 118.8379988
 111.0970012  36.6104997 119.5759988 111.0522274  35.7816643 119.3163018
 125.5750012  29.5674997 109.3889988 125.6640012  30.5114997 109.2569988
 124.9370012  29.2924997 108.7309988 125.5009081  29.6594830 109.2819614
 124.5080012  28.8224997 112.8079988 124.4700012  28.1764997 113.5129988
 124.1860012  28.3564997 112.0369988 124.4592333  28.6709408 112.8002978
 116.8770012  28.4374997 114.4009988 116.9180012  27.8114997 115.1239988
 117.5800012  29.0614997 114.5829988 116.9776363  28.4361196 114.5246044
 128.2140012  31.7614997 111.1089988 127.7740012  31.0414997 111.5599988
 128.2010012  32.4824997 111.7389988 128.1520226  31.7603731 111.2558494
 117.8000012  32.8874997 112.9359988 117.4310012  32.0854997 112.5659988
 118.7410012  32.7184997 112.9819988 117.8767289  32.7550153 112.8916316
 114.4100012  26.5474997 108.3289988 113.9630012  27.3934997 108.3099988
 113.8490012  25.9674997 107.8129988 114.2729900  26.5849916 108.2566801
 115.1210012  28.7094997 110.4539988 115.3340012  27.9394997 110.9819988
 115.8590012  28.7984997 109.8509988 115.2499044  28.6161968 110.4447123
 125.3260012  36.8664997 111.3209988 125.9460012  36.1894997 111.0479988
 125.1180012  36.6484997 112.2299988 125.3826726  36.7444800 111.4064812
 122.8980012  31.2554997 113.2139988 123.2020012  30.5694997 112.6189988
 123.6190012  31.3734997 113.8319988 123.0370671  31.1776305 113.2161816
 131.5610012  22.8564997 114.0749988 131.6100012  23.4664997 114.8099988
 131.9860012  23.3174997 113.3519988 131.6251746  23.0023796 114.0779175
 126.0390012  25.6494997 113.5409988 126.1810012  24.7034997 113.5619988
 125.9320012  25.8564997 112.6129988 126.0439919  25.5478246 113.4183408
 119.1930012  23.7504997 110.8139988 119.2370012  24.6104997 110.3949988
 118.7360012  23.1984997 110.1799988 119.1372240  23.7934422 110.6709864
 126.9160012  23.8814997 109.2149988 127.5620012  23.5524997 109.8389988
 127.4260012  24.3994997 108.5919988 127.0734299  23.9064450 109.2162731
 115.8140012  26.1474997 111.5759988 116.4670012  25.5974997 112.0079988
 115.8380012  25.8734997 110.6589988 115.9066683  26.0351466 111.5112123
 120.9700012  27.6974997 110.7909988 121.5860012  27.1714997 111.3009988
 120.3840012  27.0574997 110.3879988 120.9750810  27.5389208 110.8063173
 131.9520012  24.3344997 116.3099988 131.2640012  24.9924997 116.2149988
 131.9680012  24.1374997 117.2469988 131.8599540  24.3979819 116.4235990
 118.0040012  22.6684997 114.8879988 117.7850012  23.1984997 114.1219988
 117.3360012  22.8954997 115.5349988 117.8837600  22.7716906 114.8706379
 125.3730012  32.1684997 108.4319988 125.0770012  31.8464997 107.5809988
 125.0480012  33.0684997 108.4729988 125.2886371  32.2460215 108.3211801
 120.5730012  30.3444997 115.1749988 119.8330012  30.9424997 115.2789988
 121.2870012  30.8984997 114.8599988 120.5682237  30.5012831 115.1466465
 128.6800012  23.1724997 111.1949988 128.4640012  22.4064997 111.7279988
 129.3350012  23.6444997 111.7079988 128.7390632  23.1315889 111.3372861
 117.5970012  24.5604997 112.8399988 118.2110012  25.1934997 113.2129988
 118.1090012  24.0884997 112.1839988 117.7501981  24.5832267 112.8022908
 118.9800012  32.3084997 115.9619988 118.9750012  33.1884997 115.5839988
 118.1270012  32.2254997 116.3869988 118.8639464  32.4176117 115.9677907
 115.1010012  31.9794997 106.7439988 114.8290012  32.2084997 105.8559988
 115.1470012  32.8174997 107.2049988 115.0699482  32.1241318 106.6846273
 128.7260012  33.6014997 113.4569988 127.7850012  33.6594997 113.6189988
 129.0030012  34.5074997 113.3199988 128.6344679  33.7319443 113.4606815
 129.0270012  21.8874997 114.8749988 128.2910012  22.4984997 114.8369988
 129.7100012  22.3024997 114.3479988 129.0186541  22.0271374 114.7985832
 122.0300012  19.9744997 112.3399988 121.9130012  19.0254997 112.2859988
 121.1750012  20.3064997 112.6139988 121.8984212  19.8895571 112.3696497
 126.9780012  35.3824997 110.0819988 127.4040012  34.6754997 109.5969988
 127.2950012  36.1834997 109.6659988 127.0791683  35.3941017 109.9593680
 128.1380012  33.2834997 108.5909988 127.8800012  32.5934997 107.9799988
 128.2090012  32.8404997 109.4369988 128.1122856  33.1292124 108.6216885
 129.8240012  31.8494997 117.0679988 129.9640012  31.2584997 116.3289988
 129.9910012  32.7224997 116.7119988 129.8657411  31.8865428 116.9186894
 124.2970012  28.8114997 106.8409988 123.5850012  29.3464997 106.4889988
 124.9880012  28.8674997 106.1809988 124.2930132  28.8922543 106.7036289
 131.6660012  28.1894997 115.1339988 131.0130012  28.8844997 115.2239988
 132.1310012  28.3994997 114.3249988 131.6395274  28.3130643 115.0368462
 127.7020012  29.0214997 107.7929988 126.9700012  29.2494997 108.3659988
 128.1500012  28.3074997 108.2469988 127.6622725  28.9562145 107.9328816
 127.6000012  27.1954997 116.8599988 127.6800012  27.9584997 117.4319988
 126.9980012  27.4744997 116.1699988 127.5295756  27.3377134 116.8450589
 119.3480012  29.6514997 109.6749988 119.0170012  29.2814997 108.8569988
 119.9360012  28.9814997 110.0219988 119.3821873  29.5101156 109.6098102
 120.7140012  33.0794997 112.3559988 120.6200012  32.5014997 111.5999988
 121.4440012  32.7084997 112.8529988 120.7997387  32.9501663 112.3195342
 119.7140012  28.4204997 113.3089988 120.2800012  28.5414997 112.5459988
 120.0330012  29.0574997 113.9469988 119.8345474  28.5232219 113.2909862
 126.0230012  33.9234997 114.0429988 125.7830012  34.5854997 114.6909988
 125.8250012  33.0894997 114.4679988 125.9633808  33.9013134 114.1891524
 120.5940012  32.8194997 118.0259988 120.2830012  33.6014997 118.4809988
 119.9440012  32.6664997 117.3399988 120.4635558  32.9059105 117.9955871
 126.5730012  28.1834997 105.4779988 127.1530012  28.3334997 106.2249988
 126.9870012  28.6544997 104.7539988 126.7082997  28.2676578 105.4824058
 117.5140012  29.0174997 117.2539988 117.5850012  29.6684997 117.9529988
 116.6240012  29.1204997 116.9189988 117.4033005  29.1205427 117.3043495
 124.3000012  34.9204997 108.9129988 124.7740012  35.2154997 109.6899988
 123.7370012  35.6584997 108.6799988 124.2888184  35.0607247 108.9879628
 118.8340012  34.8914997 118.7889988 118.8410012  34.7554997 117.8419988
 117.9180012  34.7734997 119.0409988 118.7111714  34.8569430 118.6934666
 118.3380012  28.7214997 107.2639988 118.0460012  29.4894997 106.7739988
 117.6640012  28.0614997 107.1019988 118.2068111  28.7375587 107.1748978
 114.4310012  31.0844997 116.0789988 113.9300012  31.0564997 115.2639988
 114.4360012  30.1784997 116.3889988 114.3630944  30.9582396 116.0093226
 114.1810012  33.8644997 112.9629988 115.1270012  33.7204997 112.9439988
 114.0690012  34.6484997 113.4999988 114.2952727  33.9508046 113.0330072
 132.3790012  34.5304997 118.6459988 132.3300012  33.5754997 118.6089988
 131.5520012  34.7984997 119.0469988 132.2604940  34.4358998 118.6951375
 123.3580012  34.1044997 117.5219988 123.4450012  34.9304997 117.9969988
 122.4940012  33.7744997 117.7709988 123.2531964  34.1729878 117.6206549
 123.7720012  37.8764997 107.3279988 123.6970012  37.7554997 106.3809988
 123.8050012  38.8264997 107.4459988 123.7662068  37.9882646 107.2144967
 117.4250012  36.6654997 109.1089988 117.5780012  36.3174997 109.9869988
 116.5750012  36.3094997 108.8539988 117.3309166  36.5696217 109.1948079
 126.8740012  37.0304997 104.3299988 127.2490012  36.2864997 103.8589988
 126.8780012  36.7604997 105.2489988 126.9259125  36.8920986 104.3896483
 126.5430012  36.9564997 107.0789988 125.6070012  37.0564997 107.2579988
 126.8230012  36.2474997 107.6579988 126.4529553  36.8743406 107.1817087
 129.5310012  26.0234997 119.1259988 129.1240012  26.5044997 118.4049988
 129.5720012  25.1184997 118.8179988 129.4808437  25.9669374 118.9856683
 116.6800012  32.4074997 117.1229988 116.8960012  32.0464997 117.9819988
 115.8250012  32.0334997 116.9129988 116.5939292  32.3074111 117.2123386
 119.2990012  20.8774997 113.1179988 118.4370012  20.7904997 112.7099988
 119.2760012  21.7334997 113.5459988 119.1780409  20.9812883 113.1200589
 123.9620012  20.5994997 116.4929988 124.3820012  20.1844997 117.2459988
 123.0290012  20.4214997 116.6099988 123.8933644  20.5185900 116.6119539
 127.2880012  24.3554997 117.3459988 126.7740012  24.2294997 118.1439988
 127.1330012  25.2674997 117.1019988 127.1966852  24.4616132 117.4222158
 119.3900012  25.8434997 114.2129988 118.7480012  25.8024997 114.9219988
 119.4270012  26.7694997 113.9749988 119.3070664  25.9631430 114.2779219
 119.3870012  26.0644997 109.1249988 118.4940012  25.7234997 109.0659988
 119.8370012  25.6874997 108.3689988 119.3258130  25.9669631 109.0147702
 124.9220012  26.4804997 107.9419988 124.5130012  27.2954997 107.6509988
 125.6430012  26.3404997 107.3279988 124.9634537  26.5732018 107.8191342
 124.0240012  26.6554997 119.4299988 123.4620012  25.9514997 119.7509988
 124.8510012  26.5354997 119.8979988 124.0587095  26.5427883 119.5372330
 125.9270012  25.9264997 110.7559988 125.7320012  26.5314997 110.0409988
 126.1080012  25.0924997 110.3219988 125.9247614  25.8966300 110.5994405
 117.1400012  26.1634997 116.0799988 117.1020012  26.5634997 116.9489988
 116.6490012  25.3464997 116.1709988 117.0684684  26.1078069 116.2111059
 120.5060012  23.5374997 102.8789988 120.0750012  23.0924997 103.6089988
 119.7880012  23.9094997 102.3669988 120.3499438  23.5268940 102.9096799
 113.7480012  23.2794997 109.9309988 114.3790012  23.2504997 110.6499988
 114.1970012  22.8544997 109.1999988 113.8950918  23.2180836 109.9306441
 125.1910012  27.5644997 115.4269988 125.5140012  26.9334997 114.7839988
 124.7510012  27.0294997 116.0879988 125.1757484  27.4058387 115.4283198
 121.9680012  23.4914997 110.2109988 121.0570012  23.5484997 110.4999988
 122.4740012  23.4314997 111.0219988 121.9116899  23.4911941 110.3601184
 116.7970012  25.1204997 109.0379988 115.9070012  25.2204997 108.6979988
 117.0930012  24.2784997 108.6919988 116.7152823  25.0203545 108.9447213
 120.4500012  25.1204997 106.6949988 121.3810012  25.2494997 106.8729988
 120.2350012  25.7904997 106.0449988 120.5484247  25.2286565 106.6315747
 126.3730012  22.7264997 113.4759988 125.6970012  22.8574997 114.1399988
 125.8880012  22.5714997 112.6649988 126.2147146  22.7235157 113.4574469
 119.1240012  26.3154997 104.2609988 118.5810012  25.9354997 103.5699988
 119.9570012  26.5094997 103.8329988 119.1623631  26.2897125 104.1084501
 129.6610012  38.3984997 119.7519988 129.8610012  38.8224997 118.9179988
 130.3160012  38.7414997 120.3589988 129.7770072  38.5029857 119.7198592
 117.2590012  30.8724997 119.3599988 117.9910012  31.1264997 119.9219988
 116.4790012  31.0764997 119.8759988 117.2537073  30.9348160 119.5066151
 123.2880012  26.2794997 112.0979988 123.8530012  25.7324997 111.5509988
 123.1410012  25.7574997 112.8869988 123.3453380  26.1342259 112.1298695
 118.2900012  22.4154997 108.5169988 117.9730012  21.5134997 108.4809988
 119.0720012  22.4174997 107.9639988 118.3522408  22.2922474 108.4373569
 121.9150012  24.6674997 114.5119988 121.0790012  25.1214997 114.6229988
 122.4390012  24.9434997 115.2639988 121.8715416  24.7668660 114.6288119
 122.4590012  30.8804997 106.1969988 121.7140012  30.3734997 105.8749988
 122.3250012  30.9294997 107.1439988 122.3388776  30.8176940 106.2808647
 129.6090012  30.0134997 114.9839988 130.2510012  30.4704997 114.4399988
 128.7790012  30.1264997 114.5209988 129.5845963  30.0912704 114.8470177
 126.3570012  23.6944997 104.3959988 125.4180012  23.8064997 104.2449988
 126.6540012  24.5514997 104.7029988 126.2687583  23.8255981 104.4168337
 123.9780012  31.0644997 117.4339988 123.6330012  30.6834997 118.2409988
 123.7780012  31.9984997 117.5049988 123.9037527  31.1385135 117.5540689
 127.0750012  25.5614997 106.0569988 127.9670012  25.4244997 106.3759988
 127.1320012  26.3524997 105.5199988 127.2046504  25.6496052 106.0280818
 117.5840012  30.1754997 111.9669988 118.3290012  30.1734997 111.3659988
 117.6620012  29.3524997 112.4479988 117.6964995  30.0638887 111.9498282
 124.5850012  32.3394997 105.2229988 124.2890012  33.1654997 105.6039988
 123.8820012  31.7194997 105.4189988 124.4494914  32.3688199 105.3016443
 114.5920012  28.6364997 117.2819988 114.8150012  28.2184997 118.1139988
 113.9900012  28.0234997 116.8589988 114.5411759  28.4964668 117.3387022
 121.6080012  28.1534997 119.4949988 121.3120012  27.9874997 118.5999988
 122.5400012  27.9334997 119.4839988 121.6934166  28.1010640 119.3710536
 126.2290012  33.5264997 117.3849988 125.3280012  33.7094997 117.1169988
 126.2630012  33.7854997 118.3049988 126.1103139  33.5865849 117.4728099
 131.9230012  31.5714997 118.5889988 131.0720012  31.8094997 118.2219988
 132.5140012  31.5544997 117.8359988 131.8862487  31.6018258 118.4368893
 130.2550012  34.5574997 106.2169988 129.8820012  33.7314997 106.5259988
 130.5330012  34.3744997 105.3189988 130.2415222  34.4197430 106.1379473
 127.4160012  29.3654997 113.2379988 126.4870012  29.1334997 113.2109988
 127.8670012  28.5884997 112.9079988 127.3499216  29.2287238 113.1896917
 119.9590012  33.6934997 109.3709988 120.4860012  34.4664997 109.1709988
 119.0790012  33.9184997 109.0689988 119.9122031  33.8297545 109.3027912
 121.3860012  31.3564997 108.9469988 121.1450012  32.2814997 108.9889988
 120.6450012  30.8974997 109.3439988 121.2529225  31.4210933 109.0063742
 121.9010012  35.5054997 115.2629988 122.2630012  36.3604997 115.0289988
 122.4320012  35.2134997 116.0029988 122.0224473  35.5831060 115.3310855
 120.0690012  36.3784997 108.4929988 119.1190012  36.4834997 108.5439988
 120.4210012  37.1984997 108.8369988 119.9864195  36.5038800 108.5465502
 125.4450012  31.6044997 114.9629988 125.0190012  31.3774997 115.7899988
 126.0250012  30.8664997 114.7809988 125.4651868  31.4735299 115.0515830
 128.1030012  36.1564997 117.4329988 127.5020012  35.6014997 116.9369988
 128.3850012  36.8234997 116.8059988 128.0588804  36.1706625 117.2804849
 116.2260012  23.3894997 116.8399988 115.3330012  23.7284997 116.7719988
 116.1270012  22.5344997 117.2579988 116.0904164  23.3202588 116.8872235
 128.5140012  31.2064997 106.2639988 128.2360012  30.4784997 106.8199988
 129.4410012  31.3254997 106.4689988 128.6013124  31.1228802 106.3678845
 115.8770012  35.1944997 115.2749988 116.0940012  34.2624997 115.2439988
 116.1230012  35.4684997 116.1579988 115.9399549  35.1040636 115.3901763
 120.6760012  33.2154997 104.9399988 120.8220012  32.6954997 105.7299988
 120.6730012  34.1224997 105.2469988 120.6955792  33.2668842 105.0896117
 117.1290012  30.4684997 105.4509988 116.4430012  30.8204997 106.0179988
 117.6510012  31.2314997 105.2039988 117.1056852  30.6198578 105.4952118
 124.9600012  23.1304997 115.7299988 125.6590012  23.2044997 116.3799988
 124.5790012  22.2664997 115.8839988 125.0041767  23.0237624 115.8398322
 125.7450012  22.7824997 106.8269988 125.9650012  23.2544997 106.0239988
 126.3030012  23.1774997 107.4969988 125.8504968  22.9004285 106.8077331
 123.4130012  34.9134997 105.6899988 122.5970012  35.4104997 105.7419988
 123.9430012  35.3884997 105.0499988 123.3729161  35.0457722 105.6105956
 122.9450012  24.5104997 107.6619988 123.7570012  25.0154997 107.7079988
 122.7000012  24.3654997 108.5759988 123.0230520  24.5600375 107.7918517
 123.4800012  25.4964997 116.8459988 123.5990012  26.0704997 117.6039988
 124.1360012  24.8084997 116.9609988 123.5849025  25.4819858 116.9651321
 123.8280012  21.5914997 108.5999988 123.4820012  22.2094997 109.2439988
 124.4870012  22.0924997 108.1179988 123.8696968  21.7436278 108.6229383
 120.7520012  35.9574997 105.6709988 120.9120012  36.7564997 105.1709988
 120.5540012  36.2634997 106.5559988 120.7471637  36.1084020 105.7221144
 119.4860012  22.6544997 105.2869988 119.4030012  23.5434997 105.6339988
 120.3760012  22.3894997 105.5189988 119.5949469  22.7401430 105.3657626
 129.6850012  23.4034997 117.6809988 128.7680012  23.6664997 117.5939988
 130.0200012  23.4004997 116.7849988 129.6048613  23.4390761 117.5478837
 128.2870012  27.1544997 111.7769988 127.4890012  26.7394997 111.4489988
 128.7320012  26.4634997 112.2679988 128.2379885  27.0043543 111.7984889
 117.7450012  33.0824997 104.3479988 118.3370012  33.7814997 104.6239988
 118.2040012  32.6494997 103.6279988 117.8881142  33.1197049 104.2884830
 129.3730012  36.4104997 113.3999988 129.2180012  37.0884997 112.7419988
 130.3060012  36.4824997 113.6029988 129.4778657  36.5129546 113.3374360
 116.8690012  20.5284997 112.1369988 116.6400012  20.5874997 111.2089988
 116.4260012  19.7364997 112.4429988 116.7778530  20.4295753 112.0514786
 115.7990012  34.4684997 108.2969988 114.9670012  34.9414997 108.3239988
 116.3450012  34.9784997 107.6989988 115.7590352  34.6021332 108.2198463
 115.0870012  37.0814997 119.6269988 115.6280012  36.8644997 120.3869988
 114.6060012  36.2754997 119.4369988 115.0959951  36.9429270 119.7052576
 119.6850012  36.0004997 121.2469988 120.4520012  35.5414997 121.5879988
 119.6630012  35.7744997 120.3179988 119.7871275  35.9070186 121.1680101
 126.2620012  34.3804997 119.9769988 125.9110012  33.5244997 120.2199988
 126.9880012  34.5234997 120.5839988 126.3120769  34.2825636 120.0923619
 114.9940012  30.8914997 120.5809988 115.1380012  29.9894997 120.2949988
 114.2220012  31.1774997 120.0939988 114.9092753  30.8066816 120.4759505
 121.6500012  30.8614997 120.0139988 121.3210012  31.1324997 119.1569988
 121.8020012  29.9204997 119.9269988 121.6254809  30.7713862 119.8848244
 127.3840012  30.7774997 117.3969988 128.1300012  31.3654997 117.2779988
 126.6270012  31.3594997 117.4609988 127.3837820  30.9367143 117.3893590
 115.8270012  28.0914997 120.0009988 116.2350012  27.2344997 119.8799988
 115.5670012  28.1064997 120.9219988 115.8477568  27.9760807 120.1089588
 120.4850012  29.2074997 105.0199988 120.0250012  28.7234997 105.7059988
 120.7400012  28.5394997 104.3839988 120.4564902  29.0508731 105.0279334
 119.7740012  27.1004997 117.3759988 119.1560012  27.7754997 117.6559988
 120.1180012  27.4214997 116.5419988 119.7359132  27.2362411 117.3016262
 121.5560012  27.4504997 103.2819988 121.3760012  27.2964997 102.3549988
 122.5060012  27.5584997 103.3269988 121.6597776  27.4440175 103.1611843
 124.7940012  29.5724997 120.6529988 125.7470012  29.6554997 120.6259988
 124.6330012  28.8604997 121.2729988 124.9026426  29.4876746 120.7330579
 120.1130012  24.4554997 118.4579988 120.2630012  23.7264997 117.8559988
 120.1160012  25.2324997 117.8989988 120.1339302  24.4607851 118.3000692
 120.5260012  22.8254997 115.9509988 121.0620012  23.2764997 115.2989988
 119.6740012  22.7174997 115.5279988 120.4842178  22.8726390 115.8045756
 122.1080012  28.2644997 116.1899988 122.8580012  28.1084997 115.6169988
 121.7690012  29.1164997 115.9149988 122.1648921  28.3582968 116.0743561
 126.5230012  26.0794997 121.2189988 126.7160012  25.1484997 121.1069988
 127.3810012  26.5044997 121.2079988 126.6652934  26.0096531 121.2022031
 127.8400012  28.8684997 119.2959988 127.5590012  29.5774997 118.7179988
 128.7830012  28.7954997 119.1449988 127.9289291  28.9556711 119.1964967
 118.5920012  25.6534997 120.3699988 117.8250012  25.1214997 120.1589988
 119.2710012  25.3434997 119.7699988 118.5787877  25.5388300 120.2600716
 121.3320012  20.2814997 116.3819988 121.2330012  21.2284997 116.2769988
 120.5890012  19.9094997 115.9059988 121.2181184  20.3605863 116.3033621
 122.5960012  24.6034997 119.9459988 122.3600012  24.3834997 120.8469988
 121.8120012  24.3964997 119.4359988 122.4578504  24.5454586 120.0003431
 125.3110012  23.7304997 119.0209988 124.3640012  23.7624997 119.1539988
 125.6240012  23.1054997 119.6749988 125.2236707  23.6503998 119.1276060
 126.9450012  22.3644997 121.0269988 126.8490012  21.4124997 121.0209988
 126.6240012  22.6334997 121.8869988 126.8884070  22.2704035 121.1425441
 116.7720012  23.5744997 120.0739988 116.9840012  22.8674997 119.4639988
 116.6610012  23.1364997 120.9179988 116.7859721  23.4187084 120.1046843
 121.5530012  19.5754997 119.0529988 122.2650012  18.9354997 119.0389988
 121.4520012  19.8424997 118.1399988 121.6368066  19.5240079 118.9275677
 121.9070012  21.2584997 121.1069988 121.7750012  20.7824997 120.2869988
 121.3080012  22.0024997 121.0519988 121.8079071  21.2939618 120.9872886
 113.6710012  38.1704997 108.8439988 113.0240012  37.7084997 108.3109988
 114.0250012  37.4984997 109.4259988 113.6303849  38.0164723 108.8497959
 114.5410012  36.2514997 110.6479988 114.2060012  35.3714997 110.8199988
 114.7630012  36.5964997 111.5129988 114.5251783  36.1777500 110.7884208
 132.0890012  37.0604997 113.6289988 132.0680012  37.2454997 114.5679988
 132.7800012  37.6294997 113.2879988 132.1794618  37.1626606 113.7113864
 131.6530012  36.6284997 116.5509988 131.1650012  35.8924997 116.1789988
 132.2020012  36.2344997 117.2289988 131.6604820  36.4745889 116.5917813
 130.1030012  32.4174997 121.1889988 129.2370012  32.3124997 121.5829988
 130.4800012  33.1764997 121.6349988 130.0353308  32.5056900 121.3032393
 131.4040012  30.6744997 106.7029988 132.2540012  31.0954997 106.8299988
 131.4100012  29.9344997 107.3099988 131.5211372  30.6320803 106.8024344
 131.7990012  28.7274997 108.5259988 131.0720012  28.2484997 108.9239988
 132.3800012  28.9334997 109.2589988 131.7780473  28.6898103 108.6794528
 131.5580012  31.5124997 113.4739988 132.3910012  31.1344997 113.1939988
 131.6700012  32.4554997 113.3549988 131.6872647  31.5882218 113.4195487
 130.0440012  34.3904997 115.7809988 129.3970012  34.7154997 116.4069988
 129.5270012  33.9504997 115.1069988 129.8854029  34.3755004 115.7755827
 129.5850012  27.2484997 109.0889988 129.4350012  26.3034997 109.0689988
 129.2320012  27.5294997 109.9329988 129.5167448  27.1571481 109.2003705
 114.6210012  29.3264997 113.0999988 114.8050012  29.2444997 112.1639988
 115.4700012  29.2024997 113.5229988 114.7610151  29.2985073 113.0291451
 130.4420012  29.2184997 118.7279988 131.0250012  28.4844997 118.9199988
 131.0060012  29.9904997 118.7749988 130.5979769  29.2224227 118.7606159
 131.9380012  27.1214997 119.4129988 131.0750012  26.7424997 119.2469988
 132.5430012  26.3824997 119.3379988 131.9016119  26.9698268 119.3801528
 129.2960012  24.8314997 107.5519988 129.5760012  23.9244997 107.6759988
 130.0550012  25.2654997 107.1629988 129.4369277  24.7660942 107.5163682
 129.9080012  25.4124997 112.9879988 130.8410012  25.6244997 112.9529988
 129.6730012  25.5144997 113.9099988 130.0039244  25.4553100 113.1078892
 129.9370012  26.1494997 115.7639988 129.0940012  26.4174997 116.1299988
 130.3790012  26.9714997 115.5529988 129.8814158  26.2973291 115.7855491
 114.2180012  24.5974997 119.2409988 115.1380012  24.4754997 119.4769988
 113.7690012  23.8474997 119.6299988 114.2831580  24.4793727 119.3259006
 132.2200012  20.1294997 121.1169988 132.5700012  19.4754997 120.5119988
 132.3670012  20.9664997 120.6769988 132.2877887  20.1531548 120.9746858
 129.9090012  22.0944997 107.5999988 130.0920012  21.6454997 108.4259988
 129.3100012  21.5094997 107.1369988 129.8530202  21.9539975 107.6503275
 115.4390012  22.9094997 112.1319988 115.8850012  22.1174997 112.4339988
 115.9060012  23.6254997 112.5619988 115.5630831  22.8980685 112.2314006
 113.7430012  25.9084997 113.2009988 114.2350012  25.6874997 112.4099988
 114.1060012  26.7494997 113.4819988 113.8593126  25.9918357 113.1307531
 131.7400012  22.2384997 119.4659988 130.8220012  22.5094997 119.4309988
 131.8630012  21.7034997 118.6819988 131.6309729  22.2032508 119.3551923
 114.0570012  22.1664997 107.2549988 113.1320012  22.3754997 107.1259988
 114.5110012  22.6504997 106.5649988 113.9917292  22.2605343 107.1440720
 128.8280012  37.1504997 109.2009988 129.4800012  36.8034997 108.5929988
 129.3380012  37.6394997 109.8469988 128.9862637  37.1690597 109.2050236
 114.0210012  20.9044997 115.5989988 113.3560012  20.6584997 116.2429988
 113.5780012  21.5264997 115.0219988 113.8701318  20.9549410 115.6090898
 116.2130012  34.0794997 119.7439988 115.3920012  34.2544997 119.2829988
 115.9600012  34.0064997 120.6639988 116.0665585  34.0935544 119.8053561
 119.1670012  35.0544997 116.0019988 118.7420012  35.8634997 115.7199988
 120.0710012  35.1394997 115.6999988 119.2309975  35.1769300 115.9224816
 123.4780012  36.4534997 118.9619988 123.6630012  36.1194997 119.8399988
 124.3240012  36.7624997 118.6399988 123.6177539  36.4496047 119.0385605
 125.8230012  37.7394997 118.2059988 126.5000012  37.1064997 117.9659988
 126.1450012  38.1404997 119.0129988 125.9591637  37.7071154 118.2822793
 130.7400012  20.3284997 117.2849988 129.9280012  20.6534997 116.8979988
 130.9730012  19.5684997 116.7519988 130.6602203  20.2702758 117.1598880
 116.5690012  38.3104997 116.0499988 115.8480012  38.7504997 115.5989988
 116.2030012  38.0594997 116.8979988 116.4209651  38.3367242 116.1029640
 119.0360012  37.9104997 115.0799988 118.1710012  37.9824997 115.4839988
 118.9810012  38.4574997 114.2959988 118.9102085  37.9942685 115.0293362
 123.7460012  37.7984997 114.2549988 123.2900012  38.3274997 113.6009988
 123.9090012  38.4014997 114.9799988 123.7056068  37.9524607 114.2634838
 126.0740012  36.6764997 115.1999988 125.1690012  36.8414997 114.9339988
 126.5030012  37.5294997 115.1349988 126.0081324  36.8144339 115.1547976
 128.6780012  38.2464997 115.4949988 128.4960012  39.1624997 115.2849988
 128.8550012  37.8364997 114.6489988 128.6770210  38.3164822 115.3517885
 115.9830012  36.9334997 112.9599988 115.9650012  36.5084997 113.8169988
 116.7880012  36.6154997 112.5509988 116.0893529  36.8323013 113.0220946
 118.1250012  35.6434997 111.6149988 117.9060012  34.7274997 111.7849988
 118.9490012  35.7834997 112.0809988 118.2064420  35.5370520 111.7012774
 120.6620012  36.1134997 112.4639988 120.8750012  35.2254997 112.1769988
 120.7260012  36.0794997 113.4179988 120.6998232  35.9873102 112.5537397
 124.1700012  21.7774997 111.6079988 123.4960012  21.1484997 111.8639988
 124.7340012  21.2934997 111.0049988 124.1539230  21.6258744 111.5615340
 129.3130012  19.8854997 111.7209988 129.9170012  20.4324997 111.2189988
 128.4430012  20.2044997 111.4799988 129.2781208  20.0035137 111.6196886
 131.0400012  21.0234997 110.0539988 131.6520012  20.5094997 109.5269988
 131.4220012  21.9014997 110.0769988 131.1753371  21.0717866 109.9850041
 116.4970012  20.4114997 109.4299988 115.7200012  20.1774997 108.9229988
 117.0270012  19.6144997 109.4389988 116.4622330  20.2716988 109.3617742
 115.3330012  20.2094997 105.2339988 115.7720012  20.8204997 104.6419988
 114.7000012  20.7474997 105.7079988 115.3074514  20.3659257 105.2170930
 121.0760012  20.3384997 109.2439988 121.9510012  20.7264997 109.2139988
 120.9400012  20.1234997 110.1659988 121.1773695  20.3625184 109.3646440
 126.6330012  20.3684997 110.8929988 126.7090012  20.4634997 109.9429988
 126.3580012  19.4604997 111.0219988 126.6062321  20.2587867 110.7805079
 127.9860012  20.3944997 106.5849988 127.2840012  21.0094997 106.3749988
 127.5420012  19.5564997 106.7159988 127.8296450  20.3655639 106.5739000
 115.2340012  36.1574997 106.1309988 114.5490012  36.1194997 105.4639988
 115.2380012  37.0704997 106.4199988 115.1406998  36.2756733 106.0786771
 117.1940012  22.1254997 103.6759988 117.6860012  21.4954997 103.1489988
 117.8180012  22.4214997 104.3389988 117.3455688  22.0793804 103.6935482
 122.2200012  22.4184997 106.1329988 122.3980012  21.7724997 106.8159988
 122.1670012  23.2524997 106.5999988 122.2371999  22.4428009 106.2895917
 124.0990012  37.3674997 104.5289988 124.9650012  37.7334997 104.3509988
 123.8520012  36.9274997 103.7149988 124.1842392  37.3581756 104.3946289
 130.8080012  36.9304997 107.2079988 130.6130012  36.1824997 106.6429988
 130.7690012  37.6884997 106.6249988 130.7760380  36.9306099 107.0518384
 116.4550012  20.9254997 118.9479988 116.0890012  20.1604997 119.3899988
 117.3680012  20.9544997 119.2339988 116.5282736  20.8245640 119.0472502
 118.4280012  20.2764997 120.4839988 119.3260012  20.0024997 120.2989988
 118.0410012  19.5334997 120.9479988 118.4986612  20.1385914 120.5213643
 126.8490012  19.6084997 120.6659988 126.9260012  19.1824997 121.5199988
 127.7430012  19.6224997 120.3229988 126.9803428  19.5520879 120.7365310
 130.0250012  35.6814997 119.3579988 129.2430012  35.4954997 118.8379988
 129.9530012  36.6104997 119.5759988 129.9082274  35.7816643 119.3163018
 144.4310012  29.5674997 109.3889988 144.5200012  30.5114997 109.2569988
 143.7930012  29.2924997 108.7309988 144.3569081  29.6594830 109.2819614
 143.3640012  28.8224997 112.8079988 143.3260012  28.1764997 113.5129988
 143.0420012  28.3564997 112.0369988 143.3152333  28.6709408 112.8002978
 135.7330012  28.4374997 114.4009988 135.7740012  27.8114997 115.1239988
 136.4360012  29.0614997 114.5829988 135.8336363  28.4361196 114.5246044
 136.6560012  32.8874997 112.9359988 136.2870012  32.0854997 112.5659988
 137.5970012  32.7184997 112.9819988 136.7327289  32.7550153 112.8916316
 133.2660012  26.5474997 108.3289988 132.8190012  27.3934997 108.3099988
 132.7050012  25.9674997 107.8129988 133.1289900  26.5849916 108.2566801
 133.9770012  28.7094997 110.4539988 134.1900012  27.9394997 110.9819988
 134.7150012  28.7984997 109.8509988 134.1059044  28.6161968 110.4447123
 144.1820012  36.8664997 111.3209988 144.8020012  36.1894997 111.0479988
 143.9740012  36.6484997 112.2299988 144.2386726  36.7444800 111.4064812
 141.7540012  31.2554997 113.2139988 142.0580012  30.5694997 112.6189988
 142.4750012  31.3734997 113.8319988 141.8930671  31.1776304 113.2161816
 144.8950012  25.6494997 113.5409988 145.0370012  24.7034997 113.5619988
 144.7880012  25.8564997 112.6129988 144.8999919  25.5478246 113.4183408
 138.0490012  23.7504997 110.8139988 138.0930012  24.6104997 110.3949988
 137.5920012  23.1984997 110.1799988 137.9932240  23.7934422 110.6709864
 134.6700012  26.1474997 111.5759988 135.3230012  25.5974997 112.0079988
 134.6940012  25.8734997 110.6589988 134.7626683  26.0351466 111.5112123
 139.8260012  27.6974997 110.7909988 140.4420012  27.1714997 111.3009988
 139.2400012  27.0574997 110.3879988 139.8310810  27.5389208 110.8063173
 136.8600012  22.6684997 114.8879988 136.6410012  23.1984997 114.1219988
 136.1920012  22.8954997 115.5349988 136.7397600  22.7716906 114.8706379
 144.2290012  32.1684997 108.4319988 143.9330012  31.8464997 107.5809988
 143.9040012  33.0684997 108.4729988 144.1446371  32.2460215 108.3211801
 139.4290012  30.3444997 115.1749988 138.6890012  30.9424997 115.2789988
 140.1430012  30.8984997 114.8599988 139.4242237  30.5012831 115.1466465
 136.4530012  24.5604997 112.8399988 137.0670012  25.1934997 113.2129988
 136.9650012  24.0884997 112.1839988 136.6061981  24.5832267 112.8022908
 137.8360012  32.3084997 115.9619988 137.8310012  33.1884997 115.5839988
 136.9830012  32.2254997 116.3869988 137.7199464  32.4176117 115.9677907
 133.9570012  31.9794997 106.7439988 133.6850012  32.2084997 105.8559988
 134.0030012  32.8174997 107.2049988 133.9259482  32.1241318 106.6846273
 140.8860012  19.9744997 112.3399988 140.7690012  19.0254997 112.2859988
 140.0310012  20.3064997 112.6139988 140.7544212  19.8895571 112.3696497
 143.1530012  28.8114997 106.8409988 142.4410012  29.3464997 106.4889988
 143.8440012  28.8674997 106.1809988 143.1490132  28.8922543 106.7036289
 143.2060012  27.2694997 103.8799988 143.9070012  27.2914997 104.5309988
 143.5090012  26.6414997 103.2229988 143.3428133  27.1877070 103.8803369
 138.2040012  29.6514997 109.6749988 137.8730012  29.2814997 108.8569988
 138.7920012  28.9814997 110.0219988 138.2381873  29.5101156 109.6098102
 139.5700012  33.0794997 112.3559988 139.4760012  32.5014997 111.5999988
 140.3000012  32.7084997 112.8529988 139.6557387  32.9501663 112.3195342
 138.5700012  28.4204997 113.3089988 139.1360012  28.5414997 112.5459988
 138.8890012  29.0574997 113.9469988 138.6905474  28.5232219 113.2909862
 144.8790012  33.9234997 114.0429988 144.6390012  34.5854997 114.6909988
 144.6810012  33.0894997 114.4679988 144.8193808  33.9013134 114.1891524
 139.4500012  32.8194997 118.0259988 139.1390012  33.6014997 118.4809988
 138.8000012  32.6664997 117.3399988 139.3195558  32.9059105 117.9955871
 136.3700012  29.0174997 117.2539988 136.4410012  29.6684997 117.9529988
 135.4800012  29.1204997 116.9189988 136.2593005  29.1205427 117.3043495
 143.1560012  34.9204997 108.9129988 143.6300012  35.2154997 109.6899988
 142.5930012  35.6584997 108.6799988 143.1448184  35.0607247 108.9879628
 137.6900012  34.8914997 118.7889988 137.6970012  34.7554997 117.8419988
 136.7740012  34.7734997 119.0409988 137.5671714  34.8569430 118.6934666
 137.1940012  28.7214997 107.2639988 136.9020012  29.4894997 106.7739988
 136.5200012  28.0614997 107.1019988 137.0628111  28.7375587 107.1748978
 133.2870012  31.0844997 116.0789988 132.7860012  31.0564997 115.2639988
 133.2920012  30.1784997 116.3889988 133.2190944  30.9582396 116.0093226
 133.0370012  33.8644997 112.9629988 133.9830012  33.7204997 112.9439988
 132.9250012  34.6484997 113.4999988 133.1512727  33.9508046 113.0330072
 142.2140012  34.1044997 117.5219988 142.3010012  34.9304997 117.9969988
 141.3500012  33.7744997 117.7709988 142.1091964  34.1729878 117.6206549
 142.6280012  37.8764997 107.3279988 142.5530012  37.7554997 106.3809988
 142.6610012  38.8264997 107.4459988 142.6222068  37.9882646 107.2144967
 136.2810012  36.6654997 109.1089988 136.4340012  36.3174997 109.9869988
 135.4310012  36.3094997 108.8539988 136.1869166  36.5696216 109.1948079
 135.5360012  32.4074997 117.1229988 135.7520012  32.0464997 117.9819988
 134.6810012  32.0334997 116.9129988 135.4499292  32.3074111 117.2123386
 138.1550012  20.8774997 113.1179988 137.2930012  20.7904997 112.7099988
 138.1320012  21.7334997 113.5459988 138.0340409  20.9812883 113.1200589
 142.8180012  20.5994997 116.4929988 143.2380012  20.1844997 117.2459988
 141.8850012  20.4214997 116.6099988 142.7493644  20.5185900 116.6119539
 142.4790012  23.0924997 103.7779988 142.2260012  23.1114997 104.7009988
 142.2230012  22.2204997 103.4759988 142.4097481  22.9772558 103.8636175
 138.2460012  25.8434997 114.2129988 137.6040012  25.8024997 114.9219988
 138.2830012  26.7694997 113.9749988 138.1630664  25.9631430 114.2779219
 138.2430012  26.0644997 109.1249988 137.3500012  25.7234997 109.0659988
 138.6930012  25.6874997 108.3689988 138.1818130  25.9669631 109.0147702
 143.7780012  26.4804997 107.9419988 143.3690012  27.2954997 107.6509988
 144.4990012  26.3404997 107.3279988 143.8194537  26.5732018 107.8191342
 142.8800012  26.6554997 119.4299988 142.3180012  25.9514997 119.7509988
 143.7070012  26.5354997 119.8979988 142.9147095  26.5427883 119.5372330
 144.7830012  25.9264997 110.7559988 144.5880012  26.5314997 110.0409988
 144.9640012  25.0924997 110.3219988 144.7807614  25.8966300 110.5994405
 135.9960012  26.1634997 116.0799988 135.9580012  26.5634997 116.9489988
 135.5050012  25.3464997 116.1709988 135.9244684  26.1078069 116.2111059
 132.6040012  23.2794997 109.9309988 133.2350012  23.2504997 110.6499988
 133.0530012  22.8544997 109.1999988 132.7510918  23.2180836 109.9306441
 133.8780012  24.0254997 105.3549988 134.3520012  24.6164997 104.7699988
 133.1610012  24.5564997 105.7019988 133.8459341  24.1780867 105.3218836
 144.0470012  27.5644997 115.4269988 144.3700012  26.9334997 114.7839988
 143.6070012  27.0294997 116.0879988 144.0317484  27.4058387 115.4283198
 140.8240012  23.4914997 110.2109988 139.9130012  23.5484997 110.4999988
 141.3300012  23.4314997 111.0219988 140.7676899  23.4911941 110.3601184
 135.6530012  25.1204997 109.0379988 134.7630012  25.2204997 108.6979988
 135.9490012  24.2784997 108.6919988 135.5712823  25.0203545 108.9447213
 139.3060012  25.1204997 106.6949988 140.2370012  25.2494997 106.8729988
 139.0910012  25.7904997 106.0449988 139.4044247  25.2286565 106.6315747
 136.1150012  30.8724997 119.3599988 136.8470012  31.1264997 119.9219988
 135.3350012  31.0764997 119.8759988 136.1097073  30.9348160 119.5066151
 142.1440012  26.2794997 112.0979988 142.7090012  25.7324997 111.5509988
 141.9970012  25.7574997 112.8869988 142.2013380  26.1342259 112.1298695
 137.1460012  22.4154997 108.5169988 136.8290012  21.5134997 108.4809988
 137.9280012  22.4174997 107.9639988 137.2082408  22.2922474 108.4373569
 140.7710012  24.6674997 114.5119988 139.9350012  25.1214997 114.6229988
 141.2950012  24.9434997 115.2639988 140.7275416  24.7668660 114.6288119
 141.3150012  30.8804997 106.1969988 140.5700012  30.3734997 105.8749988
 141.1810012  30.9294997 107.1439988 141.1948776  30.8176940 106.2808647
 142.8340012  31.0644997 117.4339988 142.4890012  30.6834997 118.2409988
 142.6340012  31.9984997 117.5049988 142.7597527  31.1385135 117.5540689
 136.4400012  30.1754997 111.9669988 137.1850012  30.1734997 111.3659988
 136.5180012  29.3524997 112.4479988 136.5524995  30.0638887 111.9498282
 143.4410012  32.3394997 105.2229988 143.1450012  33.1654997 105.6039988
 142.7380012  31.7194997 105.4189988 143.3054914  32.3688199 105.3016443
 133.4480012  28.6364997 117.2819988 133.6710012  28.2184997 118.1139988
 132.8460012  28.0234997 116.8589988 133.3971759  28.4964668 117.3387022
 140.4640012  28.1534997 119.4949988 140.1680012  27.9874997 118.5999988
 141.3960012  27.9334997 119.4839988 140.5494166  28.1010640 119.3710536
 138.8150012  33.6934997 109.3709988 139.3420012  34.4664997 109.1709988
 137.9350012  33.9184997 109.0689988 138.7682031  33.8297545 109.3027912
 140.2420012  31.3564997 108.9469988 140.0010012  32.2814997 108.9889988
 139.5010012  30.8974997 109.3439988 140.1089225  31.4210933 109.0063742
 140.7570012  35.5054997 115.2629988 141.1190012  36.3604997 115.0289988
 141.2880012  35.2134997 116.0029988 140.8784473  35.5831060 115.3310855
 138.9250012  36.3784997 108.4929988 137.9750012  36.4834997 108.5439988
 139.2770012  37.1984997 108.8369988 138.8424195  36.5038800 108.5465502
 144.3010012  31.6044997 114.9629988 143.8750012  31.3774997 115.7899988
 144.8810012  30.8664997 114.7809988 144.3211868  31.4735299 115.0515830
 135.0820012  23.3894997 116.8399988 134.1890012  23.7284997 116.7719988
 134.9830012  22.5344997 117.2579988 134.9464164  23.3202588 116.8872235
 134.7330012  35.1944997 115.2749988 134.9500012  34.2624997 115.2439988
 134.9790012  35.4684997 116.1579988 134.7959549  35.1040636 115.3901763
 135.9850012  30.4684997 105.4509988 135.2990012  30.8204997 106.0179988
 136.5070012  31.2314997 105.2039988 135.9616852  30.6198578 105.4952118
 143.8160012  23.1304997 115.7299988 144.5150012  23.2044997 116.3799988
 143.4350012  22.2664997 115.8839988 143.8601767  23.0237624 115.8398322
 144.6010012  22.7824997 106.8269988 144.8210012  23.2544997 106.0239988
 145.1590012  23.1774997 107.4969988 144.7064968  22.9004285 106.8077331
 142.2690012  34.9134997 105.6899988 141.4530012  35.4104997 105.7419988
 142.7990012  35.3884997 105.0499988 142.2289161  35.0457722 105.6105956
 141.8010012  24.5104997 107.6619988 142.6130012  25.0154997 107.7079988
 141.5560012  24.3654997 108.5759988 141.8790520  24.5600375 107.7918517
 142.3360012  25.4964997 116.8459988 142.4550012  26.0704997 117.6039988
 142.9920012  24.8084997 116.9609988 142.4409025  25.4819858 116.9651321
 142.6840012  21.5914997 108.5999988 142.3380012  22.2094997 109.2439988
 143.3430012  22.0924997 108.1179988 142.7256968  21.7436278 108.6229383
 139.6080012  35.9574997 105.6709988 139.7680012  36.7564997 105.1709988
 139.4100012  36.2634997 106.5559988 139.6031637  36.1084020 105.7221144
 138.3420012  22.6544997 105.2869988 138.2590012  23.5434997 105.6339988
 139.2320012  22.3894997 105.5189988 138.4509469  22.7401430 105.3657626
 136.6010012  33.0824997 104.3479988 137.1930012  33.7814997 104.6239988
 137.0600012  32.6494997 103.6279988 136.7441142  33.1197049 104.2884830
 134.9170012  25.7464997 103.4639988 134.8720012  26.6854997 103.6419988
 134.0290012  25.5104997 103.1939988 134.7908574  25.8431892 103.4518912
 135.7250012  20.5284997 112.1369988 135.4960012  20.5874997 111.2089988
 135.2820012  19.7364997 112.4429988 135.6338530  20.4295753 112.0514786
 134.6550012  34.4684997 108.2969988 133.8230012  34.9414997 108.3239988
 135.2010012  34.9784997 107.6989988 134.6150352  34.6021332 108.2198463
 133.9430012  37.0814997 119.6269988 134.4840012  36.8644997 120.3869988
 133.4620012  36.2754997 119.4369988 133.9519951  36.9429270 119.7052576
 138.5410012  36.0004997 121.2469988 139.3080012  35.5414997 121.5879988
 138.5190012  35.7744997 120.3179988 138.6431275  35.9070186 121.1680101
 142.6330012  35.5084997 102.6229988 141.9890012  34.8774997 102.9439988
 143.3950012  34.9774997 102.3909988 142.6478077  35.3502920 102.6356011
 133.8500012  30.8914997 120.5809988 133.9940012  29.9894997 120.2949988
 133.0780012  31.1774997 120.0939988 133.7652753  30.8066816 120.4759505
 140.5060012  30.8614997 120.0139988 140.1770012  31.1324997 119.1569988
 140.6580012  29.9204997 119.9269988 140.4814809  30.7713862 119.8848244
 134.6830012  28.0914997 120.0009988 135.0910012  27.2344997 119.8799988
 134.4230012  28.1064997 120.9219988 134.7037568  27.9760807 120.1089588
 138.6300012  27.1004997 117.3759988 138.0120012  27.7754997 117.6559988
 138.9740012  27.4214997 116.5419988 138.5919132  27.2362411 117.3016262
 143.6500012  29.5724997 120.6529988 144.6030012  29.6554997 120.6259988
 143.4890012  28.8604997 121.2729988 143.7586426  29.4876746 120.7330579
 138.9690012  24.4554997 118.4579988 139.1190012  23.7264997 117.8559988
 138.9720012  25.2324997 117.8989988 138.9899302  24.4607851 118.3000692
 139.3820012  22.8254997 115.9509988 139.9180012  23.2764997 115.2989988
 138.5300012  22.7174997 115.5279988 139.3402178  22.8726390 115.8045756
 140.9640012  28.2644997 116.1899988 141.7140012  28.1084997 115.6169988
 140.6250012  29.1164997 115.9149988 141.0208921  28.3582968 116.0743561
 137.4480012  25.6534997 120.3699988 136.6810012  25.1214997 120.1589988
 138.1270012  25.3434997 119.7699988 137.4347877  25.5388300 120.2600716
 140.1880012  20.2814997 116.3819988 140.0890012  21.2284997 116.2769988
 139.4450012  19.9094997 115.9059988 140.0741184  20.3605863 116.3033621
 141.4520012  24.6034997 119.9459988 141.2160012  24.3834997 120.8469988
 140.6680012  24.3964997 119.4359988 141.3138504  24.5454586 120.0003431
 144.1670012  23.7304997 119.0209988 143.2200012  23.7624997 119.1539988
 144.4800012  23.1054997 119.6749988 144.0796707  23.6503998 119.1276060
 135.6280012  23.5744997 120.0739988 135.8400012  22.8674997 119.4639988
 135.5170012  23.1364997 120.9179988 135.6419721  23.4187084 120.1046843
 140.4090012  19.5754997 119.0529988 141.1210012  18.9354997 119.0389988
 140.3080012  19.8424997 118.1399988 140.4928066  19.5240079 118.9275677
 140.7630012  21.2584997 121.1069988 140.6310012  20.7824997 120.2869988
 140.1640012  22.0024997 121.0519988 140.6639071  21.2939618 120.9872886
 132.5270012  38.1704997 108.8439988 131.8800012  37.7084997 108.3109988
 132.8810012  37.4984997 109.4259988 132.4863849  38.0164723 108.8497959
 133.3970012  36.2514997 110.6479988 133.0620012  35.3714997 110.8199988
 133.6190012  36.5964997 111.5129988 133.3811783  36.1777500 110.7884208
 133.4770012  29.3264997 113.0999988 133.6610012  29.2444997 112.1639988
 134.3260012  29.2024997 113.5229988 133.6170151  29.2985073 113.0291451
 133.0740012  24.5974997 119.2409988 133.9940012  24.4754997 119.4769988
 132.6250012  23.8474997 119.6299988 133.1391580  24.4793727 119.3259006
 134.2950012  22.9094997 112.1319988 134.7410012  22.1174997 112.4339988
 134.7620012  23.6254997 112.5619988 134.4190831  22.8980685 112.2314006
 132.5990012  25.9084997 113.2009988 133.0910012  25.6874997 112.4099988
 132.9620012  26.7494997 113.4819988 132.7153126  25.9918357 113.1307531
 132.9130012  22.1664997 107.2549988 131.9880012  22.3754997 107.1259988
 133.3670012  22.6504997 106.5649988 132.8477292  22.2605343 107.1440720
 132.8770012  20.9044997 115.5989988 132.2120012  20.6584997 116.2429988
 132.4340012  21.5264997 115.0219988 132.7261318  20.9549410 115.6090898
 135.0690012  34.0794997 119.7439988 134.2480012  34.2544997 119.2829988
 134.8160012  34.0064997 120.6639988 134.9225585  34.0935544 119.8053561
 138.0230012  35.0544997 116.0019988 137.5980012  35.8634997 115.7199988
 138.9270012  35.1394997 115.6999988 138.0869975  35.1769300 115.9224816
 142.3340012  36.4534997 118.9619988 142.5190012  36.1194997 119.8399988
 143.1800012  36.7624997 118.6399988 142.4737539  36.4496047 119.0385605
 144.6790012  37.7394997 118.2059988 145.3560012  37.1064997 117.9659988
 145.0010012  38.1404997 119.0129988 144.8151637  37.7071154 118.2822793
 135.4250012  38.3104997 116.0499988 134.7040012  38.7504997 115.5989988
 135.0590012  38.0594997 116.8979988 135.2769651  38.3367242 116.1029640
 137.8920012  37.9104997 115.0799988 137.0270012  37.9824997 115.4839988
 137.8370012  38.4574997 114.2959988 137.7662085  37.9942685 115.0293362
 142.6020012  37.7984997 114.2549988 142.1460012  38.3274997 113.6009988
 142.7650012  38.4014997 114.9799988 142.5616068  37.9524607 114.2634838
 134.8390012  36.9334997 112.9599988 134.8210012  36.5084997 113.8169988
 135.6440012  36.6154997 112.5509988 134.9453529  36.8323013 113.0220946
 136.9810012  35.6434997 111.6149988 136.7620012  34.7274997 111.7849988
 137.8050012  35.7834997 112.0809988 137.0624420  35.5370520 111.7012774
 139.5180012  36.1134997 112.4639988 139.7310012  35.2254997 112.1769988
 139.5820012  36.0794997 113.4179988 139.5558231  35.9873102 112.5537397
 143.0260012  21.7774997 111.6079988 142.3520012  21.1484997 111.8639988
 143.5900012  21.2934997 111.0049988 143.0099230  21.6258744 111.5615340
 135.3530012  20.4114997 109.4299988 134.5760012  20.1774997 108.9229988
 135.8830012  19.6144997 109.4389988 135.3182330  20.2716988 109.3617742
 134.1890012  20.2094997 105.2339988 134.6280012  20.8204997 104.6419988
 133.5560012  20.7474997 105.7079988 134.1634514  20.3659257 105.2170930
 139.9320012  20.3384997 109.2439988 140.8070012  20.7264997 109.2139988
 139.7960012  20.1234997 110.1659988 140.0333695  20.3625184 109.3646440
 134.0900012  36.1574997 106.1309988 133.4050012  36.1194997 105.4639988
 134.0940012  37.0704997 106.4199988 133.9966998  36.2756733 106.0786771
 136.0500012  22.1254997 103.6759988 136.5420012  21.4954997 103.1489988
 136.6740012  22.4214997 104.3389988 136.2015688  22.0793804 103.6935482
 141.0760012  22.4184997 106.1329988 141.2540012  21.7724997 106.8159988
 141.0230012  23.2524997 106.5999988 141.0931999  22.4428009 106.2895917
 142.9550012  37.3674997 104.5289988 143.8210012  37.7334997 104.3509988
 142.7080012  36.9274997 103.7149988 143.0402392  37.3581756 104.3946289
 135.3110012  20.9254997 118.9479988 134.9450012  20.1604997 119.3899988
 136.2240012  20.9544997 119.2339988 135.3842736  20.8245640 119.0472502
 137.2840012  20.2764997 120.4839988 138.1820012  20.0024997 120.2989988
 136.8970012  19.5334997 120.9479988 137.3546612  20.1385914 120.5213643
 135.9080012  37.0774997 103.1569988 135.6410012  37.3644997 104.0299988
 136.6800012  36.5314997 103.3089988 135.9757488  37.0430294 103.2971050
  12.4390012  48.4234997 109.3889988  12.5280012  49.3674997 109.2569988
  11.8010012  48.1484997 108.7309988  12.3649081  48.5154830 109.2819614
  11.3720012  47.6784997 112.8079988  11.3340012  47.0324997 113.5129988
  11.0500012  47.2124997 112.0369988  11.3232333  47.5269408 112.8002978
   3.7410012  47.2934997 114.4009988   3.7820012  46.6674997 115.1239988
   4.4440012  47.9174997 114.5829988   3.8416363  47.2921196 114.5246044
  15.0780012  50.6174997 111.1089988  14.6380012  49.8974997 111.5599988
  15.0650012  51.3384997 111.7389988  15.0160226  50.6163731 111.2558494
   4.6640012  51.7434997 112.9359988   4.2950012  50.9414997 112.5659988
   5.6050012  51.5744997 112.9819988   4.7407289  51.6110153 112.8916316
   1.2740012  45.4034997 108.3289988   0.8270012  46.2494997 108.3099988
   0.7130012  44.8234997 107.8129988   1.1369900  45.4409916 108.2566801
   1.9850012  47.5654997 110.4539988   2.1980012  46.7954997 110.9819988
   2.7230012  47.6544997 109.8509988   2.1139044  47.4721968 110.4447123
  12.1900012  55.7224997 111.3209988  12.8100012  55.0454997 111.0479988
  11.9820012  55.5044997 112.2299988  12.2466726  55.6004800 111.4064812
   9.7620012  50.1114997 113.2139988  10.0660012  49.4254997 112.6189988
  10.4830012  50.2294997 113.8319988   9.9010671  50.0336305 113.2161816
  18.4250012  41.7124997 114.0749988  18.4740012  42.3224997 114.8099988
  18.8500012  42.1734997 113.3519988  18.4891746  41.8583796 114.0779175
  12.9030012  44.5054997 113.5409988  13.0450012  43.5594997 113.5619988
  12.7960012  44.7124997 112.6129988  12.9079919  44.4038246 113.4183408
   6.0570012  42.6064997 110.8139988   6.1010012  43.4664997 110.3949988
   5.6000012  42.0544997 110.1799988   6.0012240  42.6494422 110.6709864
  13.7800012  42.7374997 109.2149988  14.4260012  42.4084997 109.8389988
  14.2900012  43.2554997 108.5919988  13.9374299  42.7624450 109.2162731
   2.6780012  45.0034997 111.5759988   3.3310012  44.4534997 112.0079988
   2.7020012  44.7294997 110.6589988   2.7706683  44.8911466 111.5112123
   7.8340012  46.5534997 110.7909988   8.4500012  46.0274997 111.3009988
   7.2480012  45.9134997 110.3879988   7.8390810  46.3949208 110.8063173
  18.8160012  43.1904997 116.3099988  18.1280012  43.8484997 116.2149988
  18.8320012  42.9934997 117.2469988  18.7239540  43.2539819 116.4235990
   4.8680012  41.5244997 114.8879988   4.6490012  42.0544997 114.1219988
   4.2000012  41.7514997 115.5349988   4.7477600  41.6276906 114.8706379
  12.2370012  51.0244997 108.4319988  11.9410012  50.7024997 107.5809988
  11.9120012  51.9244997 108.4729988  12.1526371  51.1020215 108.3211801
   7.4370012  49.2004997 115.1749988   6.6970012  49.7984997 115.2789988
   8.1510012  49.7544997 114.8599988   7.4322237  49.3572831 115.1466465
  15.5440012  42.0284997 111.1949988  15.3280012  41.2624997 111.7279988
  16.1990012  42.5004997 111.7079988  15.6030632  41.9875889 111.3372861
   4.4610012  43.4164997 112.8399988   5.0750012  44.0494997 113.2129988
   4.9730012  42.9444997 112.1839988   4.6141981  43.4392267 112.8022908
   5.8440012  51.1644997 115.9619988   5.8390012  52.0444997 115.5839988
   4.9910012  51.0814997 116.3869988   5.7279464  51.2736117 115.9677907
   1.9650012  50.8354997 106.7439988   1.6930012  51.0644997 105.8559988
   2.0110012  51.6734997 107.2049988   1.9339482  50.9801318 106.6846273
  15.5900012  52.4574997 113.4569988  14.6490012  52.5154997 113.6189988
  15.8670012  53.3634997 113.3199988  15.4984679  52.5879443 113.4606815
  15.8910012  40.7434997 114.8749988  15.1550012  41.3544997 114.8369988
  16.5740012  41.1584997 114.3479988  15.8826541  40.8831374 114.7985832
   8.8940012  38.8304997 112.3399988   8.7770012  37.8814997 112.2859988
   8.0390012  39.1624997 112.6139988   8.7624212  38.7455571 112.3696497
  13.8420012  54.2384997 110.0819988  14.2680012  53.5314997 109.5969988
  14.1590012  55.0394997 109.6659988  13.9431683  54.2501017 109.9593680
  15.0020012  52.1394997 108.5909988  14.7440012  51.4494997 107.9799988
  15.0730012  51.6964997 109.4369988  14.9762856  51.9852124 108.6216885
  16.6880012  50.7054997 117.0679988  16.8280012  50.1144997 116.3289988
  16.8550012  51.5784997 116.7119988  16.7297411  50.7425428 116.9186894
  11.1610012  47.6674997 106.8409988  10.4490012  48.2024997 106.4889988
  11.8520012  47.7234997 106.1809988  11.1570132  47.7482543 106.7036289
  11.2140012  46.1254997 103.8799988  11.9150012  46.1474997 104.5309988
  11.5170012  45.4974997 103.2229988  11.3508133  46.0437070 103.8803369
  18.5300012  47.0454997 115.1339988  17.8770012  47.7404997 115.2239988
  18.9950012  47.2554997 114.3249988  18.5035274  47.1690643 115.0368462
  14.5660012  47.8774997 107.7929988  13.8340012  48.1054997 108.3659988
  15.0140012  47.1634997 108.2469988  14.5262725  47.8122145 107.9328816
  14.4640012  46.0514997 116.8599988  14.5440012  46.8144997 117.4319988
  13.8620012  46.3304997 116.1699988  14.3935756  46.1937134 116.8450589
   6.2120012  48.5074997 109.6749988   5.8810012  48.1374997 108.8569988
   6.8000012  47.8374997 110.0219988   6.2461873  48.3661156 109.6098102
   7.5780012  51.9354997 112.3559988   7.4840012  51.3574997 111.5999988
   8.3080012  51.5644997 112.8529988   7.6637387  51.8061663 112.3195342
   6.5780012  47.2764997 113.3089988   7.1440012  47.3974997 112.5459988
   6.8970012  47.9134997 113.9469988   6.6985474  47.3792219 113.2909862
  12.8870012  52.7794997 114.0429988  12.6470012  53.4414997 114.6909988
  12.6890012  51.9454997 114.4679988  12.8273808  52.7573134 114.1891524
   7.4580012  51.6754997 118.0259988   7.1470012  52.4574997 118.4809988
   6.8080012  51.5224997 117.3399988   7.3275558  51.7619105 117.9955871
  13.4370012  47.0394997 105.4779988  14.0170012  47.1894997 106.2249988
  13.8510012  47.5104997 104.7539988  13.5722997  47.1236578 105.4824058
   4.3780012  47.8734997 117.2539988   4.4490012  48.5244997 117.9529988
   3.4880012  47.9764997 116.9189988   4.2673005  47.9765427 117.3043495
  11.1640012  53.7764997 108.9129988  11.6380012  54.0714997 109.6899988
  10.6010012  54.5144997 108.6799988  11.1528184  53.9167247 108.9879628
   5.6980012  53.7474997 118.7889988   5.7050012  53.6114997 117.8419988
   4.7820012  53.6294997 119.0409988   5.5751714  53.7129430 118.6934666
   5.2020012  47.5774997 107.2639988   4.9100012  48.3454997 106.7739988
   4.5280012  46.9174997 107.1019988   5.0708111  47.5935587 107.1748978
   1.2950012  49.9404997 116.0789988   0.7940012  49.9124997 115.2639988
   1.3000012  49.0344997 116.3889988   1.2270944  49.8142396 116.0093226
   1.0450012  52.7204997 112.9629988   1.9910012  52.5764997 112.9439988
   0.9330012  53.5044997 113.4999988   1.1592727  52.8068046 113.0330072
  19.2430012  53.3864997 118.6459988  19.1940012  52.4314997 118.6089988
  18.4160012  53.6544997 119.0469988  19.1244940  53.2918998 118.6951375
  10.2220012  52.9604997 117.5219988  10.3090012  53.7864997 117.9969988
   9.3580012  52.6304997 117.7709988  10.1171964  53.0289878 117.6206549
  10.6360012  56.7324997 107.3279988  10.5610012  56.6114997 106.3809988
  10.6690012  57.6824997 107.4459988  10.6302068  56.8442646 107.2144967
   4.2890012  55.5214997 109.1089988   4.4420012  55.1734997 109.9869988
   3.4390012  55.1654997 108.8539988   4.1949166  55.4256216 109.1948079
  13.4070012  55.8124997 107.0789988  12.4710012  55.9124997 107.2579988
  13.6870012  55.1034997 107.6579988  13.3169553  55.7303406 107.1817087
  16.3950012  44.8794997 119.1259988  15.9880012  45.3604997 118.4049988
  16.4360012  43.9744997 118.8179988  16.3448437  44.8229374 118.9856683
   3.5440012  51.2634997 117.1229988   3.7600012  50.9024997 117.9819988
   2.6890012  50.8894997 116.9129988   3.4579292  51.1634111 117.2123386
   6.1630012  39.7334997 113.1179988   5.3010012  39.6464997 112.7099988
   6.1400012  40.5894997 113.5459988   6.0420409  39.8372883 113.1200589
  10.8260012  39.4554997 116.4929988  11.2460012  39.0404997 117.2459988
   9.8930012  39.2774997 116.6099988  10.7573644  39.3745900 116.6119539
  14.1520012  43.2114997 117.3459988  13.6380012  43.0854997 118.1439988
  13.9970012  44.1234997 117.1019988  14.0606852  43.3176132 117.4222158
   6.2540012  44.6994997 114.2129988   5.6120012  44.6584997 114.9219988
   6.2910012  45.6254997 113.9749988   6.1710664  44.8191430 114.2779219
   6.2510012  44.9204997 109.1249988   5.3580012  44.5794997 109.0659988
   6.7010012  44.5434997 108.3689988   6.1898130  44.8229631 109.0147702
  11.7860012  45.3364997 107.9419988  11.3770012  46.1514997 107.6509988
  12.5070012  45.1964997 107.3279988  11.8274537  45.4292018 107.8191342
  10.8880012  45.5114997 119.4299988  10.3260012  44.8074997 119.7509988
  11.7150012  45.3914997 119.8979988  10.9227095  45.3987883 119.5372330
  12.7910012  44.7824997 110.7559988  12.5960012  45.3874997 110.0409988
  12.9720012  43.9484997 110.3219988  12.7887614  44.7526300 110.5994405
   4.0040012  45.0194997 116.0799988   3.9660012  45.4194997 116.9489988
   3.5130012  44.2024997 116.1709988   3.9324684  44.9638069 116.2111059
   0.6120012  42.1354997 109.9309988   1.2430012  42.1064997 110.6499988
   1.0610012  41.7104997 109.1999988   0.7590918  42.0740836 109.9306441
  12.0550012  46.4204997 115.4269988  12.3780012  45.7894997 114.7839988
  11.6150012  45.8854997 116.0879988  12.0397484  46.2618387 115.4283198
   8.8320012  42.3474997 110.2109988   7.9210012  42.4044997 110.4999988
   9.3380012  42.2874997 111.0219988   8.7756899  42.3471941 110.3601184
   3.6610012  43.9764997 109.0379988   2.7710012  44.0764997 108.6979988
   3.9570012  43.1344997 108.6919988   3.5792823  43.8763545 108.9447213
   7.3140012  43.9764997 106.6949988   8.2450012  44.1054997 106.8729988
   7.0990012  44.6464997 106.0449988   7.4124247  44.0846565 106.6315747
  13.2370012  41.5824997 113.4759988  12.5610012  41.7134997 114.1399988
  12.7520012  41.4274997 112.6649988  13.0787146  41.5795157 113.4574469
   5.9880012  45.1714997 104.2609988   5.4450012  44.7914997 103.5699988
   6.8210012  45.3654997 103.8329988   6.0263631  45.1457125 104.1084501
  16.5250012  57.2544997 119.7519988  16.7250012  57.6784997 118.9179988
  17.1800012  57.5974997 120.3589988  16.6410072  57.3589857 119.7198592
   4.1230012  49.7284997 119.3599988   4.8550012  49.9824997 119.9219988
   3.3430012  49.9324997 119.8759988   4.1177073  49.7908160 119.5066151
  10.1520012  45.1354997 112.0979988  10.7170012  44.5884997 111.5509988
  10.0050012  44.6134997 112.8869988  10.2093380  44.9902259 112.1298695
   5.1540012  41.2714997 108.5169988   4.8370012  40.3694997 108.4809988
   5.9360012  41.2734997 107.9639988   5.2162408  41.1482474 108.4373569
   8.7790012  43.5234997 114.5119988   7.9430012  43.9774997 114.6229988
   9.3030012  43.7994997 115.2639988   8.7355416  43.6228660 114.6288119
   9.3230012  49.7364997 106.1969988   8.5780012  49.2294997 105.8749988
   9.1890012  49.7854997 107.1439988   9.2028776  49.6736940 106.2808647
  16.4730012  48.8694997 114.9839988  17.1150012  49.3264997 114.4399988
  15.6430012  48.9824997 114.5209988  16.4485963  48.9472704 114.8470177
  10.8420012  49.9204997 117.4339988  10.4970012  49.5394997 118.2409988
  10.6420012  50.8544997 117.5049988  10.7677527  49.9945135 117.5540689
  13.9390012  44.4174997 106.0569988  14.8310012  44.2804997 106.3759988
  13.9960012  45.2084997 105.5199988  14.0686504  44.5056052 106.0280818
   4.4480012  49.0314997 111.9669988   5.1930012  49.0294997 111.3659988
   4.5260012  48.2084997 112.4479988   4.5604995  48.9198887 111.9498282
   1.4560012  47.4924997 117.2819988   1.6790012  47.0744997 118.1139988
   0.8540012  46.8794997 116.8589988   1.4051759  47.3524668 117.3387022
   8.4720012  47.0094997 119.4949988   8.1760012  46.8434997 118.5999988
   9.4040012  46.7894997 119.4839988   8.5574166  46.9570640 119.3710536
  13.0930012  52.3824997 117.3849988  12.1920012  52.5654997 117.1169988
  13.1270012  52.6414997 118.3049988  12.9743139  52.4425849 117.4728099
  18.8240012  44.6274997 105.7519988  18.2700012  44.2314997 105.0799988
  18.9240012  45.5374997 105.4739988  18.7617059  44.6963586 105.6224401
  18.7870012  50.4274997 118.5889988  17.9360012  50.6654997 118.2219988
  19.3780012  50.4104997 117.8359988  18.7502487  50.4578258 118.4368893
  17.1190012  53.4134997 106.2169988  16.7460012  52.5874997 106.5259988
  17.3970012  53.2304997 105.3189988  17.1055222  53.2757430 106.1379473
  14.2800012  48.2214997 113.2379988  13.3510012  47.9894997 113.2109988
  14.7310012  47.4444997 112.9079988  14.2139216  48.0847238 113.1896917
   6.8230012  52.5494997 109.3709988   7.3500012  53.3224997 109.1709988
   5.9430012  52.7744997 109.0689988   6.7762031  52.6857545 109.3027912
   8.2500012  50.2124997 108.9469988   8.0090012  51.1374997 108.9889988
   7.5090012  49.7534997 109.3439988   8.1169225  50.2770933 109.0063742
   8.7650012  54.3614997 115.2629988   9.1270012  55.2164997 115.0289988
   9.2960012  54.0694997 116.0029988   8.8864473  54.4391060 115.3310855
   6.9330012  55.2344997 108.4929988   5.9830012  55.3394997 108.5439988
   7.2850012  56.0544997 108.8369988   6.8504195  55.3598800 108.5465502
  12.3090012  50.4604997 114.9629988  11.8830012  50.2334997 115.7899988
  12.8890012  49.7224997 114.7809988  12.3291868  50.3295299 115.0515830
  14.5120012  51.3894997 104.0369988  14.8650012  51.0094997 104.8409988
  13.5630012  51.2964997 104.1239988  14.4320918  51.3248956 104.1588532
  14.9670012  55.0124997 117.4329988  14.3660012  54.4574997 116.9369988
  15.2490012  55.6794997 116.8059988  14.9228804  55.0266625 117.2804849
   3.0900012  42.2454997 116.8399988   2.1970012  42.5844997 116.7719988
   2.9910012  41.3904997 117.2579988   2.9544164  42.1762588 116.8872235
  15.3780012  50.0624997 106.2639988  15.1000012  49.3344997 106.8199988
  16.3050012  50.1814997 106.4689988  15.4653124  49.9788802 106.3678845
   2.7410012  54.0504997 115.2749988   2.9580012  53.1184997 115.2439988
   2.9870012  54.3244997 116.1579988   2.8039549  53.9600636 115.3901763
   3.9930012  49.3244997 105.4509988   3.3070012  49.6764997 106.0179988
   4.5150012  50.0874997 105.2039988   3.9696852  49.4758578 105.4952118
  11.8240012  41.9864997 115.7299988  12.5230012  42.0604997 116.3799988
  11.4430012  41.1224997 115.8839988  11.8681767  41.8797624 115.8398322
  12.6090012  41.6384997 106.8269988  12.8290012  42.1104997 106.0239988
  13.1670012  42.0334997 107.4969988  12.7144968  41.7564285 106.8077331
   9.8090012  43.3664997 107.6619988  10.6210012  43.8714997 107.7079988
   9.5640012  43.2214997 108.5759988   9.8870520  43.4160375 107.7918517
  10.3440012  44.3524997 116.8459988  10.4630012  44.9264997 117.6039988
  11.0000012  43.6644997 116.9609988  10.4489025  44.3379858 116.9651321
  10.6920012  40.4474997 108.5999988  10.3460012  41.0654997 109.2439988
  11.3510012  40.9484997 108.1179988  10.7336968  40.5996278 108.6229383
   7.6160012  54.8134997 105.6709988   7.7760012  55.6124997 105.1709988
   7.4180012  55.1194997 106.5559988   7.6111637  54.9644020 105.7221144
   6.3500012  41.5104997 105.2869988   6.2670012  42.3994997 105.6339988
   7.2400012  41.2454997 105.5189988   6.4589469  41.5961430 105.3657626
  16.5490012  42.2594997 117.6809988  15.6320012  42.5224997 117.5939988
  16.8840012  42.2564997 116.7849988  16.4688613  42.2950761 117.5478837
  15.1510012  46.0104997 111.7769988  14.3530012  45.5954997 111.4489988
  15.5960012  45.3194997 112.2679988  15.1019885  45.8603543 111.7984889
  16.2370012  55.2664997 113.3999988  16.0820012  55.9444997 112.7419988
  17.1700012  55.3384997 113.6029988  16.3418657  55.3689546 113.3374360
   3.7330012  39.3844997 112.1369988   3.5040012  39.4434997 111.2089988
   3.2900012  38.5924997 112.4429988   3.6418530  39.2855753 112.0514786
   2.6630012  53.3244997 108.2969988   1.8310012  53.7974997 108.3239988
   3.2090012  53.8344997 107.6989988   2.6230352  53.4581332 108.2198463
   1.9510012  55.9374997 119.6269988   2.4920012  55.7204997 120.3869988
   1.4700012  55.1314997 119.4369988   1.9599951  55.7989270 119.7052576
   6.5490012  54.8564997 121.2469988   7.3160012  54.3974997 121.5879988
   6.5270012  54.6304997 120.3179988   6.6511275  54.7630186 121.1680101
  13.1260012  53.2364997 119.9769988  12.7750012  52.3804997 120.2199988
  13.8520012  53.3794997 120.5839988  13.1760769  53.1385636 120.0923619
   1.8580012  49.7474997 120.5809988   2.0020012  48.8454997 120.2949988
   1.0860012  50.0334997 120.0939988   1.7732753  49.6626816 120.4759505
   8.5140012  49.7174997 120.0139988   8.1850012  49.9884997 119.1569988
   8.6660012  48.7764997 119.9269988   8.4894809  49.6273862 119.8848244
  14.2480012  49.6334997 117.3969988  14.9940012  50.2214997 117.2779988
  13.4910012  50.2154997 117.4609988  14.2477820  49.7927143 117.3893590
   2.6910012  46.9474997 120.0009988   3.0990012  46.0904997 119.8799988
   2.4310012  46.9624997 120.9219988   2.7117568  46.8320807 120.1089588
   7.3490012  48.0634997 105.0199988   6.8890012  47.5794997 105.7059988
   7.6040012  47.3954997 104.3839988   7.3204902  47.9068731 105.0279334
   6.6380012  45.9564997 117.3759988   6.0200012  46.6314997 117.6559988
   6.9820012  46.2774997 116.5419988   6.5999132  46.0922411 117.3016262
  11.6580012  48.4284997 120.6529988  12.6110012  48.5114997 120.6259988
  11.4970012  47.7164997 121.2729988  11.7666426  48.3436746 120.7330579
   6.9770012  43.3114997 118.4579988   7.1270012  42.5824997 117.8559988
   6.9800012  44.0884997 117.8989988   6.9979302  43.3167851 118.3000692
   7.3900012  41.6814997 115.9509988   7.9260012  42.1324997 115.2989988
   6.5380012  41.5734997 115.5279988   7.3482178  41.7286390 115.8045756
   8.9720012  47.1204997 116.1899988   9.7220012  46.9644997 115.6169988
   8.6330012  47.9724997 115.9149988   9.0288921  47.2142968 116.0743561
  13.3870012  44.9354997 121.2189988  13.5800012  44.0044997 121.1069988
  14.2450012  45.3604997 121.2079988  13.5292934  44.8656531 121.2022031
  14.7040012  47.7244997 119.2959988  14.4230012  48.4334997 118.7179988
  15.6470012  47.6514997 119.1449988  14.7929291  47.8116711 119.1964967
   5.4560012  44.5094997 120.3699988   4.6890012  43.9774997 120.1589988
   6.1350012  44.1994997 119.7699988   5.4427877  44.3948300 120.2600716
   8.1960012  39.1374997 116.3819988   8.0970012  40.0844997 116.2769988
   7.4530012  38.7654997 115.9059988   8.0821184  39.2165863 116.3033621
   9.4600012  43.4594997 119.9459988   9.2240012  43.2394997 120.8469988
   8.6760012  43.2524997 119.4359988   9.3218504  43.4014586 120.0003431
  12.1750012  42.5864997 119.0209988  11.2280012  42.6184997 119.1539988
  12.4880012  41.9614997 119.6749988  12.0876707  42.5063998 119.1276060
  13.8090012  41.2204997 121.0269988  13.7130012  40.2684997 121.0209988
  13.4880012  41.4894997 121.8869988  13.7524070  41.1264035 121.1425441
   3.6360012  42.4304997 120.0739988   3.8480012  41.7234997 119.4639988
   3.5250012  41.9924997 120.9179988   3.6499721  42.2747084 120.1046843
   8.4170012  38.4314997 119.0529988   9.1290012  37.7914997 119.0389988
   8.3160012  38.6984997 118.1399988   8.5008066  38.3800079 118.9275677
   8.7710012  40.1144997 121.1069988   8.6390012  39.6384997 120.2869988
   8.1720012  40.8584997 121.0519988   8.6719071  40.1499618 120.9872886
   0.5350012  57.0264997 108.8439988  -0.1119988  56.5644997 108.3109988
   0.8890012  56.3544997 109.4259988   0.4943849  56.8724723 108.8497959
   1.4050012  55.1074997 110.6479988   1.0700012  54.2274997 110.8199988
   1.6270012  55.4524997 111.5129988   1.3891783  55.0337501 110.7884208
  18.9530012  55.9164997 113.6289988  18.9320012  56.1014997 114.5679988
  19.6440012  56.4854997 113.2879988  19.0434618  56.0186606 113.7113864
  18.5170012  55.4844997 116.5509988  18.0290012  54.7484997 116.1789988
  19.0660012  55.0904997 117.2289988  18.5244820  55.3305889 116.5917813
  16.9670012  51.2734997 121.1889988  16.1010012  51.1684997 121.5829988
  17.3440012  52.0324997 121.6349988  16.8993308  51.3616900 121.3032393
  18.2680012  49.5304997 106.7029988  19.1180012  49.9514997 106.8299988
  18.2740012  48.7904997 107.3099988  18.3851372  49.4880803 106.8024344
  18.6630012  47.5834997 108.5259988  17.9360012  47.1044997 108.9239988
  19.2440012  47.7894997 109.2589988  18.6420473  47.5458103 108.6794528
  18.4220012  50.3684997 113.4739988  19.2550012  49.9904997 113.1939988
  18.5340012  51.3114997 113.3549988  18.5512647  50.4442218 113.4195487
  16.9080012  53.2464997 115.7809988  16.2610012  53.5714997 116.4069988
  16.3910012  52.8064997 115.1069988  16.7494029  53.2315004 115.7755827
  16.4490012  46.1044997 109.0889988  16.2990012  45.1594997 109.0689988
  16.0960012  46.3854997 109.9329988  16.3807448  46.0131481 109.2003705
   1.4850012  48.1824997 113.0999988   1.6690012  48.1004997 112.1639988
   2.3340012  48.0584997 113.5229988   1.6250151  48.1545073 113.0291451
  17.3060012  48.0744997 118.7279988  17.8890012  47.3404997 118.9199988
  17.8700012  48.8464997 118.7749988  17.4619769  48.0784227 118.7606159
  18.8020012  45.9774997 119.4129988  17.9390012  45.5984997 119.2469988
  19.4070012  45.2384997 119.3379988  18.7656119  45.8258268 119.3801528
  16.1600012  43.6874997 107.5519988  16.4400012  42.7804997 107.6759988
  16.9190012  44.1214997 107.1629988  16.3009277  43.6220942 107.5163682
  16.7720012  44.2684997 112.9879988  17.7050012  44.4804997 112.9529988
  16.5370012  44.3704997 113.9099988  16.8679244  44.3113100 113.1078892
  16.8010012  45.0054997 115.7639988  15.9580012  45.2734997 116.1299988
  17.2430012  45.8274997 115.5529988  16.7454158  45.1533291 115.7855491
   1.0820012  43.4534997 119.2409988   2.0020012  43.3314997 119.4769988
   0.6330012  42.7034997 119.6299988   1.1471580  43.3353727 119.3259006
  19.0840012  38.9854997 121.1169988  19.4340012  38.3314997 120.5119988
  19.2310012  39.8224997 120.6769988  19.1517887  39.0091548 120.9746858
  16.7730012  40.9504997 107.5999988  16.9560012  40.5014997 108.4259988
  16.1740012  40.3654997 107.1369988  16.7170202  40.8099975 107.6503275
   2.3030012  41.7654997 112.1319988   2.7490012  40.9734997 112.4339988
   2.7700012  42.4814997 112.5619988   2.4270831  41.7540685 112.2314006
   0.6070012  44.7644997 113.2009988   1.0990012  44.5434997 112.4099988
   0.9700012  45.6054997 113.4819988   0.7233126  44.8478357 113.1307531
  18.6040012  41.0944997 119.4659988  17.6860012  41.3654997 119.4309988
  18.7270012  40.5594997 118.6819988  18.4949729  41.0592508 119.3551923
  18.6400012  41.0174997 104.1279988  19.0520012  40.2964997 103.6529988
  19.3220012  41.6874997 104.1869988  18.7885885  41.0092368 104.0708915
   0.9210012  41.0224997 107.2549988  -0.0039988  41.2314997 107.1259988
   1.3750012  41.5064997 106.5649988   0.8557292  41.1165343 107.1440720
  15.6920012  56.0064997 109.2009988  16.3440012  55.6594997 108.5929988
  16.2020012  56.4954997 109.8469988  15.8502637  56.0250597 109.2050236
   0.8850012  39.7604997 115.5989988   0.2200012  39.5144997 116.2429988
   0.4420012  40.3824997 115.0219988   0.7341318  39.8109410 115.6090898
   3.0770012  52.9354997 119.7439988   2.2560012  53.1104997 119.2829988
   2.8240012  52.8624997 120.6639988   2.9305585  52.9495544 119.8053561
   6.0310012  53.9104997 116.0019988   5.6060012  54.7194997 115.7199988
   6.9350012  53.9954997 115.6999988   6.0949975  54.0329300 115.9224816
  10.3420012  55.3094997 118.9619988  10.5270012  54.9754997 119.8399988
  11.1880012  55.6184997 118.6399988  10.4817539  55.3056047 119.0385605
  12.6870012  56.5954997 118.2059988  13.3640012  55.9624997 117.9659988
  13.0090012  56.9964997 119.0129988  12.8231637  56.5631154 118.2822793
  17.6040012  39.1844997 117.2849988  16.7920012  39.5094997 116.8979988
  17.8370012  38.4244997 116.7519988  17.5242203  39.1262758 117.1598880
   3.4330012  57.1664997 116.0499988   2.7120012  57.6064997 115.5989988
   3.0670012  56.9154997 116.8979988   3.2849651  57.1927242 116.1029640
   5.9000012  56.7664997 115.0799988   5.0350012  56.8384997 115.4839988
   5.8450012  57.3134997 114.2959988   5.7742085  56.8502685 115.0293362
  10.6100012  56.6544997 114.2549988  10.1540012  57.1834997 113.6009988
  10.7730012  57.2574997 114.9799988  10.5696068  56.8084607 114.2634838
  12.9380012  55.5324997 115.1999988  12.0330012  55.6974997 114.9339988
  13.3670012  56.3854997 115.1349988  12.8721324  55.6704339 115.1547976
  15.5420012  57.1024997 115.4949988  15.3600012  58.0184997 115.2849988
  15.7190012  56.6924997 114.6489988  15.5410210  57.1724822 115.3517885
   2.8470012  55.7894997 112.9599988   2.8290012  55.3644997 113.8169988
   3.6520012  55.4714997 112.5509988   2.9533529  55.6883013 113.0220946
   4.9890012  54.4994997 111.6149988   4.7700012  53.5834997 111.7849988
   5.8130012  54.6394997 112.0809988   5.0704420  54.3930520 111.7012774
   7.5260012  54.9694997 112.4639988   7.7390012  54.0814997 112.1769988
   7.5900012  54.9354997 113.4179988   7.5638231  54.8433102 112.5537397
  11.0340012  40.6334997 111.6079988  10.3600012  40.0044997 111.8639988
  11.5980012  40.1494997 111.0049988  11.0179230  40.4818744 111.5615340
  16.1770012  38.7414997 111.7209988  16.7810012  39.2884997 111.2189988
  15.3070012  39.0604997 111.4799988  16.1421208  38.8595137 111.6196886
  17.9040012  39.8794997 110.0539988  18.5160012  39.3654997 109.5269988
  18.2860012  40.7574997 110.0769988  18.0393371  39.9277866 109.9850041
   3.3610012  39.2674997 109.4299988   2.5840012  39.0334997 108.9229988
   3.8910012  38.4704997 109.4389988   3.3262330  39.1276988 109.3617742
   7.9400012  39.1944997 109.2439988   8.8150012  39.5824997 109.2139988
   7.8040012  38.9794997 110.1659988   8.0413695  39.2185184 109.3646440
  13.4970012  39.2244997 110.8929988  13.5730012  39.3194997 109.9429988
  13.2220012  38.3164997 111.0219988  13.4702321  39.1147867 110.7805079
  14.8500012  39.2504997 106.5849988  14.1480012  39.8654997 106.3749988
  14.4060012  38.4124997 106.7159988  14.6936450  39.2215639 106.5739000
   2.0980012  55.0134997 106.1309988   1.4130012  54.9754997 105.4639988
   2.1020012  55.9264997 106.4199988   2.0046998  55.1316733 106.0786771
   4.0580012  40.9814997 103.6759988   4.5500012  40.3514997 103.1489988
   4.6820012  41.2774997 104.3389988   4.2095688  40.9353804 103.6935482
   9.0840012  41.2744997 106.1329988   9.2620012  40.6284997 106.8159988
   9.0310012  42.1084997 106.5999988   9.1011999  41.2988009 106.2895917
  10.9630012  56.2234997 104.5289988  11.8290012  56.5894997 104.3509988
  10.7160012  55.7834997 103.7149988  11.0482392  56.2141756 104.3946289
  17.6720012  55.7864997 107.2079988  17.4770012  55.0384997 106.6429988
  17.6330012  56.5444997 106.6249988  17.6400380  55.7866099 107.0518384
   3.3190012  39.7814997 118.9479988   2.9530012  39.0164997 119.3899988
   4.2320012  39.8104997 119.2339988   3.3922736  39.6805640 119.0472502
   5.2920012  39.1324997 120.4839988   6.1900012  38.8584997 120.2989988
   4.9050012  38.3894997 120.9479988   5.3626612  38.9945914 120.5213643
  13.7130012  38.4644997 120.6659988  13.7900012  38.0384997 121.5199988
  14.6070012  38.4784997 120.3229988  13.8443428  38.4080879 120.7365310
  16.8890012  54.5374997 119.3579988  16.1070012  54.3514997 118.8379988
  16.8170012  55.4664997 119.5759988  16.7722274  54.6376643 119.3163018
  31.2950012  48.4234997 109.3889988  31.3840012  49.3674997 109.2569988
  30.6570012  48.1484997 108.7309988  31.2209081  48.5154830 109.2819614
  30.2280012  47.6784997 112.8079988  30.1900012  47.0324997 113.5129988
  29.9060012  47.2124997 112.0369988  30.1792333  47.5269408 112.8002978
  22.5970012  47.2934997 114.4009988  22.6380012  46.6674997 115.1239988
  23.3000012  47.9174997 114.5829988  22.6976363  47.2921196 114.5246044
  33.9340012  50.6174997 111.1089988  33.4940012  49.8974997 111.5599988
  33.9210012  51.3384997 111.7389988  33.8720226  50.6163731 111.2558494
  23.5200012  51.7434997 112.9359988  23.1510012  50.9414997 112.5659988
  24.4610012  51.5744997 112.9819988  23.5967289  51.6110153 112.8916316
  20.1300012  45.4034997 108.3289988  19.6830012  46.2494997 108.3099988
  19.5690012  44.8234997 107.8129988  19.9929900  45.4409916 108.2566801
  20.8410012  47.5654997 110.4539988  21.0540012  46.7954997 110.9819988
  21.5790012  47.6544997 109.8509988  20.9699044  47.4721968 110.4447123
  31.0460012  55.7224997 111.3209988  31.6660012  55.0454997 111.0479988
  30.8380012  55.5044997 112.2299988  31.1026726  55.6004800 111.4064812
  28.6180012  50.1114997 113.2139988  28.9220012  49.4254997 112.6189988
  29.3390012  50.2294997 113.8319988  28.7570671  50.0336305 113.2161816
  37.2810012  41.7124997 114.0749988  37.3300012  42.3224997 114.8099988
  37.7060012  42.1734997 113.3519988  37.3451746  41.8583796 114.0779175
  31.7590012  44.5054997 113.5409988  31.9010012  43.5594997 113.5619988
  31.6520012  44.7124997 112.6129988  31.7639919  44.4038246 113.4183408
  24.9130012  42.6064997 110.8139988  24.9570012  43.4664997 110.3949988
  24.4560012  42.0544997 110.1799988  24.8572240  42.6494422 110.6709864
  32.6360012  42.7374997 109.2149988  33.2820012  42.4084997 109.8389988
  33.1460012  43.2554997 108.5919988  32.7934299  42.7624450 109.2162731
  21.5340012  45.0034997 111.5759988  22.1870012  44.4534997 112.0079988
  21.5580012  44.7294997 110.6589988  21.6266683  44.8911466 111.5112123
  26.6900012  46.5534997 110.7909988  27.3060012  46.0274997 111.3009988
  26.1040012  45.9134997 110.3879988  26.6950810  46.3949208 110.8063173
  37.6720012  43.1904997 116.3099988  36.9840012  43.8484997 116.2149988
  37.6880012  42.9934997 117.2469988  37.5799540  43.2539819 116.4235990
  23.7240012  41.5244997 114.8879988  23.5050012  42.0544997 114.1219988
  23.0560012  41.7514997 115.5349988  23.6037600  41.6276906 114.8706379
  31.0930012  51.0244997 108.4319988  30.7970012  50.7024997 107.5809988
  30.7680012  51.9244997 108.4729988  31.0086371  51.1020215 108.3211801
  26.2930012  49.2004997 115.1749988  25.5530012  49.7984997 115.2789988
  27.0070012  49.7544997 114.8599988  26.2882237  49.3572831 115.1466465
  34.4000012  42.0284997 111.1949988  34.1840012  41.2624997 111.7279988
  35.0550012  42.5004997 111.7079988  34.4590632  41.9875889 111.3372861
  23.3170012  43.4164997 112.8399988  23.9310012  44.0494997 113.2129988
  23.8290012  42.9444997 112.1839988  23.4701981  43.4392267 112.8022908
  24.7000012  51.1644997 115.9619988  24.6950012  52.0444997 115.5839988
  23.8470012  51.0814997 116.3869988  24.5839464  51.2736117 115.9677907
  20.8210012  50.8354997 106.7439988  20.5490012  51.0644997 105.8559988
  20.8670012  51.6734997 107.2049988  20.7899482  50.9801318 106.6846273
  34.4460012  52.4574997 113.4569988  33.5050012  52.5154997 113.6189988
  34.7230012  53.3634997 113.3199988  34.3544679  52.5879443 113.4606815
  34.7470012  40.7434997 114.8749988  34.0110012  41.3544997 114.8369988
  35.4300012  41.1584997 114.3479988  34.7386541  40.8831374 114.7985832
  27.7500012  38.8304997 112.3399988  27.6330012  37.8814997 112.2859988
  26.8950012  39.1624997 112.6139988  27.6184212  38.7455571 112.3696497
  32.6980012  54.2384997 110.0819988  33.1240012  53.5314997 109.5969988
  33.0150012  55.0394997 109.6659988  32.7991683  54.2501017 109.9593680
  33.8580012  52.1394997 108.5909988  33.6000012  51.4494997 107.9799988
  33.9290012  51.6964997 109.4369988  33.8322856  51.9852124 108.6216885
  35.5440012  50.7054997 117.0679988  35.6840012  50.1144997 116.3289988
  35.7110012  51.5784997 116.7119988  35.5857411  50.7425428 116.9186894
  37.3860012  47.0454997 115.1339988  36.7330012  47.7404997 115.2239988
  37.8510012  47.2554997 114.3249988  37.3595274  47.1690643 115.0368462
  33.4220012  47.8774997 107.7929988  32.6900012  48.1054997 108.3659988
  33.8700012  47.1634997 108.2469988  33.3822725  47.8122145 107.9328816
  33.3200012  46.0514997 116.8599988  33.4000012  46.8144997 117.4319988
  32.7180012  46.3304997 116.1699988  33.2495756  46.1937134 116.8450589
  25.0680012  48.5074997 109.6749988  24.7370012  48.1374997 108.8569988
  25.6560012  47.8374997 110.0219988  25.1021873  48.3661156 109.6098102
  26.4340012  51.9354997 112.3559988  26.3400012  51.3574997 111.5999988
  27.1640012  51.5644997 112.8529988  26.5197386  51.8061663 112.3195342
  25.4340012  47.2764997 113.3089988  26.0000012  47.3974997 112.5459988
  25.7530012  47.9134997 113.9469988  25.5545474  47.3792219 113.2909862
  31.7430012  52.7794997 114.0429988  31.5030012  53.4414997 114.6909988
  31.5450012  51.9454997 114.4679988  31.6833808  52.7573134 114.1891524
  26.3140012  51.6754997 118.0259988  26.0030012  52.4574997 118.4809988
  25.6640012  51.5224997 117.3399988  26.1835558  51.7619105 117.9955871
  23.2340012  47.8734997 117.2539988  23.3050012  48.5244997 117.9529988
  22.3440012  47.9764997 116.9189988  23.1233005  47.9765427 117.3043495
  30.0200012  53.7764997 108.9129988  30.4940012  54.0714997 109.6899988
  29.4570012  54.5144997 108.6799988  30.0088184  53.9167247 108.9879628
  24.5540012  53.7474997 118.7889988  24.5610012  53.6114997 117.8419988
  23.6380012  53.6294997 119.0409988  24.4311714  53.7129430 118.6934666
  35.9920012  38.7894997 105.2909988  35.0920012  38.9284997 105.5859988
  36.2440012  39.6204997 104.8889988  35.9028702  38.9209074 105.2770205
  24.0580012  47.5774997 107.2639988  23.7660012  48.3454997 106.7739988
  23.3840012  46.9174997 107.1019988  23.9268111  47.5935587 107.1748978
  20.1510012  49.9404997 116.0789988  19.6500012  49.9124997 115.2639988
  20.1560012  49.0344997 116.3889988  20.0830944  49.8142396 116.0093226
  19.9010012  52.7204997 112.9629988  20.8470012  52.5764997 112.9439988
  19.7890012  53.5044997 113.4999988  20.0152727  52.8068046 113.0330072
  38.0990012  53.3864997 118.6459988  38.0500012  52.4314997 118.6089988
  37.2720012  53.6544997 119.0469988  37.9804940  53.2918998 118.6951375
  29.0780012  52.9604997 117.5219988  29.1650012  53.7864997 117.9969988
  28.2140012  52.6304997 117.7709988  28.9731964  53.0289878 117.6206549
  29.4920012  56.7324997 107.3279988  29.4170012  56.6114997 106.3809988
  29.5250012  57.6824997 107.4459988  29.4862068  56.8442646 107.2144967
  23.1450012  55.5214997 109.1089988  23.2980012  55.1734997 109.9869988
  22.2950012  55.1654997 108.8539988  23.0509166  55.4256216 109.1948079
  32.2630012  55.8124997 107.0789988  31.3270012  55.9124997 107.2579988
  32.5430012  55.1034997 107.6579988  32.1729553  55.7303406 107.1817087
  35.2510012  44.8794997 119.1259988  34.8440012  45.3604997 118.4049988
  35.2920012  43.9744997 118.8179988  35.2008437  44.8229374 118.9856683
  22.4000012  51.2634997 117.1229988  22.6160012  50.9024997 117.9819988
  21.5450012  50.8894997 116.9129988  22.3139292  51.1634111 117.2123386
  25.0190012  39.7334997 113.1179988  24.1570012  39.6464997 112.7099988
  24.9960012  40.5894997 113.5459988  24.8980409  39.8372883 113.1200589
  29.6820012  39.4554997 116.4929988  30.1020012  39.0404997 117.2459988
  28.7490012  39.2774997 116.6099988  29.6133644  39.3745900 116.6119539
  33.0080012  43.2114997 117.3459988  32.4940012  43.0854997 118.1439988
  32.8530012  44.1234997 117.1019988  32.9166852  43.3176132 117.4222158
  25.1100012  44.6994997 114.2129988  24.4680012  44.6584997 114.9219988
  25.1470012  45.6254997 113.9749988  25.0270664  44.8191430 114.2779219
  25.1070012  44.9204997 109.1249988  24.2140012  44.5794997 109.0659988
  25.5570012  44.5434997 108.3689988  25.0458130  44.8229631 109.0147702
  30.6420012  45.3364997 107.9419988  30.2330012  46.1514997 107.6509988
  31.3630012  45.1964997 107.3279988  30.6834537  45.4292018 107.8191342
  29.7440012  45.5114997 119.4299988  29.1820012  44.8074997 119.7509988
  30.5710012  45.3914997 119.8979988  29.7787095  45.3987883 119.5372330
  31.6470012  44.7824997 110.7559988  31.4520012  45.3874997 110.0409988
  31.8280012  43.9484997 110.3219988  31.6447614  44.7526300 110.5994405
  22.8600012  45.0194997 116.0799988  22.8220012  45.4194997 116.9489988
  22.3690012  44.2024997 116.1709988  22.7884684  44.9638069 116.2111059
  19.4680012  42.1354997 109.9309988  20.0990012  42.1064997 110.6499988
  19.9170012  41.7104997 109.1999988  19.6150918  42.0740836 109.9306441
  20.7420012  42.8814997 105.3549988  21.2160012  43.4724997 104.7699988
  20.0250012  43.4124997 105.7019988  20.7099341  43.0340867 105.3218836
  30.9110012  46.4204997 115.4269988  31.2340012  45.7894997 114.7839988
  30.4710012  45.8854997 116.0879988  30.8957484  46.2618387 115.4283198
  27.6880012  42.3474997 110.2109988  26.7770012  42.4044997 110.4999988
  28.1940012  42.2874997 111.0219988  27.6316899  42.3471941 110.3601184
  22.5170012  43.9764997 109.0379988  21.6270012  44.0764997 108.6979988
  22.8130012  43.1344997 108.6919988  22.4352823  43.8763545 108.9447213
  26.1700012  43.9764997 106.6949988  27.1010012  44.1054997 106.8729988
  25.9550012  44.6464997 106.0449988  26.2684247  44.0846565 106.6315747
  32.0930012  41.5824997 113.4759988  31.4170012  41.7134997 114.1399988
  31.6080012  41.4274997 112.6649988  31.9347146  41.5795157 113.4574469
  35.3810012  57.2544997 119.7519988  35.5810012  57.6784997 118.9179988
  36.0360012  57.5974997 120.3589988  35.4970072  57.3589857 119.7198592
  22.9790012  49.7284997 119.3599988  23.7110012  49.9824997 119.9219988
  22.1990012  49.9324997 119.8759988  22.9737073  49.7908160 119.5066151
  29.0080012  45.1354997 112.0979988  29.5730012  44.5884997 111.5509988
  28.8610012  44.6134997 112.8869988  29.0653380  44.9902259 112.1298695
  24.0100012  41.2714997 108.5169988  23.6930012  40.3694997 108.4809988
  24.7920012  41.2734997 107.9639988  24.0722408  41.1482474 108.4373569
  27.6350012  43.5234997 114.5119988  26.7990012  43.9774997 114.6229988
  28.1590012  43.7994997 115.2639988  27.5915416  43.6228660 114.6288119
  28.1790012  49.7364997 106.1969988  27.4340012  49.2294997 105.8749988
  28.0450012  49.7854997 107.1439988  28.0588776  49.6736940 106.2808647
  35.3290012  48.8694997 114.9839988  35.9710012  49.3264997 114.4399988
  34.4990012  48.9824997 114.5209988  35.3045963  48.9472704 114.8470177
  32.0770012  42.5504997 104.3959988  31.1380012  42.6624997 104.2449988
  32.3740012  43.4074997 104.7029988  31.9887583  42.6815981 104.4168337
  29.6980012  49.9204997 117.4339988  29.3530012  49.5394997 118.2409988
  29.4980012  50.8544997 117.5049988  29.6237527  49.9945135 117.5540689
  32.7950012  44.4174997 106.0569988  33.6870012  44.2804997 106.3759988
  32.8520012  45.2084997 105.5199988  32.9246504  44.5056052 106.0280818
  23.3040012  49.0314997 111.9669988  24.0490012  49.0294997 111.3659988
  23.3820012  48.2084997 112.4479988  23.4164995  48.9198887 111.9498282
  30.3050012  51.1954997 105.2229988  30.0090012  52.0214997 105.6039988
  29.6020012  50.5754997 105.4189988  30.1694914  51.2248199 105.3016443
  20.3120012  47.4924997 117.2819988  20.5350012  47.0744997 118.1139988
  19.7100012  46.8794997 116.8589988  20.2611759  47.3524668 117.3387022
  27.3280012  47.0094997 119.4949988  27.0320012  46.8434997 118.5999988
  28.2600012  46.7894997 119.4839988  27.4134166  46.9570640 119.3710536
  31.9490012  52.3824997 117.3849988  31.0480012  52.5654997 117.1169988
  31.9830012  52.6414997 118.3049988  31.8303139  52.4425849 117.4728099
  37.6800012  44.6274997 105.7519988  37.1260012  44.2314997 105.0799988
  37.7800012  45.5374997 105.4739988  37.6177059  44.6963586 105.6224401
  37.6430012  50.4274997 118.5889988  36.7920012  50.6654997 118.2219988
  38.2340012  50.4104997 117.8359988  37.6062487  50.4578258 118.4368893
  35.9750012  53.4134997 106.2169988  35.6020012  52.5874997 106.5259988
  36.2530012  53.2304997 105.3189988  35.9615222  53.2757430 106.1379473
  33.1360012  48.2214997 113.2379988  32.2070012  47.9894997 113.2109988
  33.5870012  47.4444997 112.9079988  33.0699216  48.0847238 113.1896917
  25.6790012  52.5494997 109.3709988  26.2060012  53.3224997 109.1709988
  24.7990012  52.7744997 109.0689988  25.6322031  52.6857545 109.3027912
  21.4340012  47.4114997 103.9579988  22.0500012  48.0384997 104.3379988
  20.5720012  47.7274997 104.2299988  21.4017698  47.5399430 104.0467183
  27.1060012  50.2124997 108.9469988  26.8650012  51.1374997 108.9889988
  26.3650012  49.7534997 109.3439988  26.9729225  50.2770933 109.0063742
  27.6210012  54.3614997 115.2629988  27.9830012  55.2164997 115.0289988
  28.1520012  54.0694997 116.0029988  27.7424473  54.4391060 115.3310855
  25.7890012  55.2344997 108.4929988  24.8390012  55.3394997 108.5439988
  26.1410012  56.0544997 108.8369988  25.7064195  55.3598800 108.5465502
  31.1650012  50.4604997 114.9629988  30.7390012  50.2334997 115.7899988
  31.7450012  49.7224997 114.7809988  31.1851868  50.3295299 115.0515830
  33.3680012  51.3894997 104.0369988  33.7210012  51.0094997 104.8409988
  32.4190012  51.2964997 104.1239988  33.2880918  51.3248956 104.1588532
  33.8230012  55.0124997 117.4329988  33.2220012  54.4574997 116.9369988
  34.1050012  55.6794997 116.8059988  33.7788804  55.0266625 117.2804849
  21.9460012  42.2454997 116.8399988  21.0530012  42.5844997 116.7719988
  21.8470012  41.3904997 117.2579988  21.8104164  42.1762588 116.8872235
  34.2340012  50.0624997 106.2639988  33.9560012  49.3344997 106.8199988
  35.1610012  50.1814997 106.4689988  34.3213124  49.9788802 106.3678845
  21.5970012  54.0504997 115.2749988  21.8140012  53.1184997 115.2439988
  21.8430012  54.3244997 116.1579988  21.6599549  53.9600636 115.3901763
  22.8490012  49.3244997 105.4509988  22.1630012  49.6764997 106.0179988
  23.3710012  50.0874997 105.2039988  22.8256852  49.4758578 105.4952118
  30.6800012  41.9864997 115.7299988  31.3790012  42.0604997 116.3799988
  30.2990012  41.1224997 115.8839988  30.7241767  41.8797624 115.8398322
  31.4650012  41.6384997 106.8269988  31.6850012  42.1104997 106.0239988
  32.0230012  42.0334997 107.4969988  31.5704968  41.7564285 106.8077331
  29.1330012  53.7694997 105.6899988  28.3170012  54.2664997 105.7419988
  29.6630012  54.2444997 105.0499988  29.0929161  53.9017722 105.6105956
  28.6650012  43.3664997 107.6619988  29.4770012  43.8714997 107.7079988
  28.4200012  43.2214997 108.5759988  28.7430520  43.4160375 107.7918517
  29.2000012  44.3524997 116.8459988  29.3190012  44.9264997 117.6039988
  29.8560012  43.6644997 116.9609988  29.3049025  44.3379858 116.9651321
  29.5480012  40.4474997 108.5999988  29.2020012  41.0654997 109.2439988
  30.2070012  40.9484997 108.1179988  29.5896968  40.5996278 108.6229383
  26.4720012  54.8134997 105.6709988  26.6320012  55.6124997 105.1709988
  26.2740012  55.1194997 106.5559988  26.4671637  54.9644020 105.7221144
  35.4050012  42.2594997 117.6809988  34.4880012  42.5224997 117.5939988
  35.7400012  42.2564997 116.7849988  35.3248613  42.2950761 117.5478837
  34.0070012  46.0104997 111.7769988  33.2090012  45.5954997 111.4489988
  34.4520012  45.3194997 112.2679988  33.9579885  45.8603543 111.7984889
  21.7810012  44.6024997 103.4639988  21.7360012  45.5414997 103.6419988
  20.8930012  44.3664997 103.1939988  21.6548574  44.6991892 103.4518912
  35.0930012  55.2664997 113.3999988  34.9380012  55.9444997 112.7419988
  36.0260012  55.3384997 113.6029988  35.1978657  55.3689546 113.3374360
  22.5890012  39.3844997 112.1369988  22.3600012  39.4434997 111.2089988
  22.1460012  38.5924997 112.4429988  22.4978530  39.2855753 112.0514786
  21.5190012  53.3244997 108.2969988  20.6870012  53.7974997 108.3239988
  22.0650012  53.8344997 107.6989988  21.4790352  53.4581332 108.2198463
  20.8070012  55.9374997 119.6269988  21.3480012  55.7204997 120.3869988
  20.3260012  55.1314997 119.4369988  20.8159951  55.7989270 119.7052576
  25.4050012  54.8564997 121.2469988  26.1720012  54.3974997 121.5879988
  25.3830012  54.6304997 120.3179988  25.5071275  54.7630186 121.1680101
  31.9820012  53.2364997 119.9769988  31.6310012  52.3804997 120.2199988
  32.7080012  53.3794997 120.5839988  32.0320769  53.1385636 120.0923619
  20.7140012  49.7474997 120.5809988  20.8580012  48.8454997 120.2949988
  19.9420012  50.0334997 120.0939988  20.6292753  49.6626816 120.4759505
  27.3700012  49.7174997 120.0139988  27.0410012  49.9884997 119.1569988
  27.5220012  48.7764997 119.9269988  27.3454809  49.6273862 119.8848244
  30.4080012  51.1384997 102.4499988  30.1390012  51.3184997 103.3509988
  30.2020012  50.2124997 102.3179988  30.3433427  51.0380261 102.5555073
  33.1040012  49.6334997 117.3969988  33.8500012  50.2214997 117.2779988
  32.3470012  50.2154997 117.4609988  33.1037820  49.7927143 117.3893590
  21.5470012  46.9474997 120.0009988  21.9550012  46.0904997 119.8799988
  21.2870012  46.9624997 120.9219988  21.5677568  46.8320807 120.1089588
  26.2050012  48.0634997 105.0199988  25.7450012  47.5794997 105.7059988
  26.4600012  47.3954997 104.3839988  26.1764902  47.9068731 105.0279334
  25.4940012  45.9564997 117.3759988  24.8760012  46.6314997 117.6559988
  25.8380012  46.2774997 116.5419988  25.4559132  46.0922411 117.3016262
  27.2760012  46.3064997 103.2819988  27.0960012  46.1524997 102.3549988
  28.2260012  46.4144997 103.3269988  27.3797776  46.3000175 103.1611843
  30.5140012  48.4284997 120.6529988  31.4670012  48.5114997 120.6259988
  30.3530012  47.7164997 121.2729988  30.6226426  48.3436746 120.7330579
  36.6660012  48.6614997 102.7279988  36.3920012  48.2364997 101.9149988
  36.7050012  49.5924997 102.5109988  36.6337699  48.7292484 102.5873610
  25.8330012  43.3114997 118.4579988  25.9830012  42.5824997 117.8559988
  25.8360012  44.0884997 117.8989988  25.8539302  43.3167851 118.3000692
  26.2460012  41.6814997 115.9509988  26.7820012  42.1324997 115.2989988
  25.3940012  41.5734997 115.5279988  26.2042178  41.7286390 115.8045756
  27.8280012  47.1204997 116.1899988  28.5780012  46.9644997 115.6169988
  27.4890012  47.9724997 115.9149988  27.8848921  47.2142968 116.0743561
  32.2430012  44.9354997 121.2189988  32.4360012  44.0044997 121.1069988
  33.1010012  45.3604997 121.2079988  32.3852934  44.8656531 121.2022031
  33.5600012  47.7244997 119.2959988  33.2790012  48.4334997 118.7179988
  34.5030012  47.6514997 119.1449988  33.6489291  47.8116711 119.1964967
  24.3120012  44.5094997 120.3699988  23.5450012  43.9774997 120.1589988
  24.9910012  44.1994997 119.7699988  24.2987877  44.3948300 120.2600716
  27.0520012  39.1374997 116.3819988  26.9530012  40.0844997 116.2769988
  26.3090012  38.7654997 115.9059988  26.9381184  39.2165863 116.3033621
  28.3160012  43.4594997 119.9459988  28.0800012  43.2394997 120.8469988
  27.5320012  43.2524997 119.4359988  28.1778504  43.4014586 120.0003431
  31.0310012  42.5864997 119.0209988  30.0840012  42.6184997 119.1539988
  31.3440012  41.9614997 119.6749988  30.9436707  42.5063998 119.1276060
  32.6650012  41.2204997 121.0269988  32.5690012  40.2684997 121.0209988
  32.3440012  41.4894997 121.8869988  32.6084070  41.1264035 121.1425441
  22.4920012  42.4304997 120.0739988  22.7040012  41.7234997 119.4639988
  22.3810012  41.9924997 120.9179988  22.5059721  42.2747084 120.1046843
  27.2730012  38.4314997 119.0529988  27.9850012  37.7914997 119.0389988
  27.1720012  38.6984997 118.1399988  27.3568066  38.3800079 118.9275677
  27.6270012  40.1144997 121.1069988  27.4950012  39.6384997 120.2869988
  27.0280012  40.8584997 121.0519988  27.5279071  40.1499618 120.9872886
  20.7420012  51.6334997 103.7659988  21.6560012  51.7124997 104.0399988
  20.7490012  50.9464997 103.0999988  20.8681131  51.5513961 103.7134393
  19.3910012  57.0264997 108.8439988  18.7440012  56.5644997 108.3109988
  19.7450012  56.3544997 109.4259988  19.3503849  56.8724723 108.8497959
  20.2610012  55.1074997 110.6479988  19.9260012  54.2274997 110.8199988
  20.4830012  55.4524997 111.5129988  20.2451783  55.0337500 110.7884208
  37.8090012  55.9164997 113.6289988  37.7880012  56.1014997 114.5679988
  38.5000012  56.4854997 113.2879988  37.8994618  56.0186606 113.7113864
  37.3730012  55.4844997 116.5509988  36.8850012  54.7484997 116.1789988
  37.9220012  55.0904997 117.2289988  37.3804820  55.3305889 116.5917813
  35.8230012  51.2734997 121.1889988  34.9570012  51.1684997 121.5829988
  36.2000012  52.0324997 121.6349988  35.7553308  51.3616900 121.3032393
  37.1240012  49.5304997 106.7029988  37.9740012  49.9514997 106.8299988
  37.1300012  48.7904997 107.3099988  37.2411372  49.4880803 106.8024344
  37.5190012  47.5834997 108.5259988  36.7920012  47.1044997 108.9239988
  38.1000012  47.7894997 109.2589988  37.4980473  47.5458103 108.6794528
  37.2780012  50.3684997 113.4739988  38.1110012  49.9904997 113.1939988
  37.3900012  51.3114997 113.3549988  37.4072647  50.4442218 113.4195487
  35.7640012  53.2464997 115.7809988  35.1170012  53.5714997 116.4069988
  35.2470012  52.8064997 115.1069988  35.6054029  53.2315004 115.7755827
  37.7870012  47.4844997 104.9179988  37.2650012  47.8414997 104.1989988
  37.7540012  48.1594997 105.5959988  37.7111634  47.6245413 104.9113145
  36.1360012  44.7244997 103.4679988  36.2320012  45.3914997 102.7879988
  35.9960012  43.9084997 102.9869988  36.1302272  44.7055655 103.3098347
  35.3050012  46.1044997 109.0889988  35.1550012  45.1594997 109.0689988
  34.9520012  46.3854997 109.9329988  35.2367448  46.0131481 109.2003705
  20.3410012  48.1824997 113.0999988  20.5250012  48.1004997 112.1639988
  21.1900012  48.0584997 113.5229988  20.4810151  48.1545073 113.0291451
  36.1620012  48.0744997 118.7279988  36.7450012  47.3404997 118.9199988
  36.7260012  48.8464997 118.7749988  36.3179769  48.0784227 118.7606159
  37.6580012  45.9774997 119.4129988  36.7950012  45.5984997 119.2469988
  38.2630012  45.2384997 119.3379988  37.6216119  45.8258268 119.3801528
  35.3830012  42.1324997 102.5859988  35.9940012  41.7614997 103.2229988
  34.5470012  41.7114997 102.7819988  35.3535032  42.0247554 102.6997035
  35.0160012  43.6874997 107.5519988  35.2960012  42.7804997 107.6759988
  35.7750012  44.1214997 107.1629988  35.1569277  43.6220942 107.5163682
  35.6280012  44.2684997 112.9879988  36.5610012  44.4804997 112.9529988
  35.3930012  44.3704997 113.9099988  35.7239244  44.3113100 113.1078892
  35.6570012  45.0054997 115.7639988  34.8140012  45.2734997 116.1299988
  36.0990012  45.8274997 115.5529988  35.6014158  45.1533291 115.7855491
  19.9380012  43.4534997 119.2409988  20.8580012  43.3314997 119.4769988
  19.4890012  42.7034997 119.6299988  20.0031580  43.3353727 119.3259006
  37.9400012  38.9854997 121.1169988  38.2900012  38.3314997 120.5119988
  38.0870012  39.8224997 120.6769988  38.0077887  39.0091548 120.9746858
  35.6290012  40.9504997 107.5999988  35.8120012  40.5014997 108.4259988
  35.0300012  40.3654997 107.1369988  35.5730202  40.8099975 107.6503275
  21.1590012  41.7654997 112.1319988  21.6050012  40.9734997 112.4339988
  21.6260012  42.4814997 112.5619988  21.2830831  41.7540685 112.2314006
  19.4630012  44.7644997 113.2009988  19.9550012  44.5434997 112.4099988
  19.8260012  45.6054997 113.4819988  19.5793126  44.8478357 113.1307531
  37.4600012  41.0944997 119.4659988  36.5420012  41.3654997 119.4309988
  37.5830012  40.5594997 118.6819988  37.3509729  41.0592508 119.3551923
  37.4960012  41.0174997 104.1279988  37.9080012  40.2964997 103.6529988
  38.1780012  41.6874997 104.1869988  37.6445885  41.0092368 104.0708915
  19.7770012  41.0224997 107.2549988  18.8520012  41.2314997 107.1259988
  20.2310012  41.5064997 106.5649988  19.7117292  41.1165343 107.1440720
  34.5480012  56.0064997 109.2009988  35.2000012  55.6594997 108.5929988
  35.0580012  56.4954997 109.8469988  34.7062637  56.0250597 109.2050236
  19.7410012  39.7604997 115.5989988  19.0760012  39.5144997 116.2429988
  19.2980012  40.3824997 115.0219988  19.5901318  39.8109410 115.6090898
  21.9330012  52.9354997 119.7439988  21.1120012  53.1104997 119.2829988
  21.6800012  52.8624997 120.6639988  21.7865585  52.9495544 119.8053561
  24.8870012  53.9104997 116.0019988  24.4620012  54.7194997 115.7199988
  25.7910012  53.9954997 115.6999988  24.9509975  54.0329300 115.9224816
  29.1980012  55.3094997 118.9619988  29.3830012  54.9754997 119.8399988
  30.0440012  55.6184997 118.6399988  29.3377539  55.3056047 119.0385605
  31.5430012  56.5954997 118.2059988  32.2200012  55.9624997 117.9659988
  31.8650012  56.9964997 119.0129988  31.6791637  56.5631154 118.2822793
  36.4600012  39.1844997 117.2849988  35.6480012  39.5094997 116.8979988
  36.6930012  38.4244997 116.7519988  36.3802203  39.1262758 117.1598880
  22.2890012  57.1664997 116.0499988  21.5680012  57.6064997 115.5989988
  21.9230012  56.9154997 116.8979988  22.1409651  57.1927242 116.1029640
  24.7560012  56.7664997 115.0799988  23.8910012  56.8384997 115.4839988
  24.7010012  57.3134997 114.2959988  24.6302085  56.8502685 115.0293362
  29.4660012  56.6544997 114.2549988  29.0100012  57.1834997 113.6009988
  29.6290012  57.2574997 114.9799988  29.4256068  56.8084607 114.2634838
  31.7940012  55.5324997 115.1999988  30.8890012  55.6974997 114.9339988
  32.2230012  56.3854997 115.1349988  31.7281324  55.6704339 115.1547976
  34.3980012  57.1024997 115.4949988  34.2160012  58.0184997 115.2849988
  34.5750012  56.6924997 114.6489988  34.3970210  57.1724822 115.3517885
  21.7030012  55.7894997 112.9599988  21.6850012  55.3644997 113.8169988
  22.5080012  55.4714997 112.5509988  21.8093529  55.6883013 113.0220946
  23.8450012  54.4994997 111.6149988  23.6260012  53.5834997 111.7849988
  24.6690012  54.6394997 112.0809988  23.9264420  54.3930520 111.7012774
  26.3820012  54.9694997 112.4639988  26.5950012  54.0814997 112.1769988
  26.4460012  54.9354997 113.4179988  26.4198231  54.8433102 112.5537397
  29.8900012  40.6334997 111.6079988  29.2160012  40.0044997 111.8639988
  30.4540012  40.1494997 111.0049988  29.8739230  40.4818744 111.5615340
  35.0330012  38.7414997 111.7209988  35.6370012  39.2884997 111.2189988
  34.1630012  39.0604997 111.4799988  34.9981208  38.8595137 111.6196886
  36.7600012  39.8794997 110.0539988  37.3720012  39.3654997 109.5269988
  37.1420012  40.7574997 110.0769988  36.8953371  39.9277866 109.9850041
  22.2170012  39.2674997 109.4299988  21.4400012  39.0334997 108.9229988
  22.7470012  38.4704997 109.4389988  22.1822330  39.1276988 109.3617742
  21.0530012  39.0654997 105.2339988  21.4920012  39.6764997 104.6419988
  20.4200012  39.6034997 105.7079988  21.0274514  39.2219257 105.2170930
  26.7960012  39.1944997 109.2439988  27.6710012  39.5824997 109.2139988
  26.6600012  38.9794997 110.1659988  26.8973695  39.2185184 109.3646440
  32.3530012  39.2244997 110.8929988  32.4290012  39.3194997 109.9429988
  32.0780012  38.3164997 111.0219988  32.3262321  39.1147867 110.7805079
  33.7060012  39.2504997 106.5849988  33.0040012  39.8654997 106.3749988
  33.2620012  38.4124997 106.7159988  33.5496450  39.2215639 106.5739000
  20.9540012  55.0134997 106.1309988  20.2690012  54.9754997 105.4639988
  20.9580012  55.9264997 106.4199988  20.8606998  55.1316733 106.0786771
  22.9140012  40.9814997 103.6759988  23.4060012  40.3514997 103.1489988
  23.5380012  41.2774997 104.3389988  23.0655688  40.9353804 103.6935482
  36.5280012  55.7864997 107.2079988  36.3330012  55.0384997 106.6429988
  36.4890012  56.5444997 106.6249988  36.4960380  55.7866099 107.0518384
  22.1750012  39.7814997 118.9479988  21.8090012  39.0164997 119.3899988
  23.0880012  39.8104997 119.2339988  22.2482736  39.6805640 119.0472502
  24.1480012  39.1324997 120.4839988  25.0460012  38.8584997 120.2989988
  23.7610012  38.3894997 120.9479988  24.2186612  38.9945914 120.5213643
  32.5690012  38.4644997 120.6659988  32.6460012  38.0384997 121.5199988
  33.4630012  38.4784997 120.3229988  32.7003428  38.4080879 120.7365310
  35.7450012  54.5374997 119.3579988  34.9630012  54.3514997 118.8379988
  35.6730012  55.4664997 119.5759988  35.6282274  54.6376643 119.3163018
  50.1510012  48.4234997 109.3889988  50.2400012  49.3674997 109.2569988
  49.5130012  48.1484997 108.7309988  50.0769081  48.5154830 109.2819614
  49.0840012  47.6784997 112.8079988  49.0460012  47.0324997 113.5129988
  48.7620012  47.2124997 112.0369988  49.0352333  47.5269408 112.8002978
  41.4530012  47.2934997 114.4009988  41.4940012  46.6674997 115.1239988
  42.1560012  47.9174997 114.5829988  41.5536363  47.2921196 114.5246044
  52.7900012  50.6174997 111.1089988  52.3500012  49.8974997 111.5599988
  52.7770012  51.3384997 111.7389988  52.7280226  50.6163731 111.2558494
  42.3760012  51.7434997 112.9359988  42.0070012  50.9414997 112.5659988
  43.3170012  51.5744997 112.9819988  42.4527289  51.6110153 112.8916316
  38.9860012  45.4034997 108.3289988  38.5390012  46.2494997 108.3099988
  38.4250012  44.8234997 107.8129988  38.8489900  45.4409916 108.2566801
  39.6970012  47.5654997 110.4539988  39.9100012  46.7954997 110.9819988
  40.4350012  47.6544997 109.8509988  39.8259044  47.4721968 110.4447123
  49.9020012  55.7224997 111.3209988  50.5220012  55.0454997 111.0479988
  49.6940012  55.5044997 112.2299988  49.9586726  55.6004800 111.4064812
  47.4740012  50.1114997 113.2139988  47.7780012  49.4254997 112.6189988
  48.1950012  50.2294997 113.8319988  47.6130671  50.0336304 113.2161816
  56.1370012  41.7124997 114.0749988  56.1860012  42.3224997 114.8099988
  56.5620012  42.1734997 113.3519988  56.2011746  41.8583796 114.0779175
  50.6150012  44.5054997 113.5409988  50.7570012  43.5594997 113.5619988
  50.5080012  44.7124997 112.6129988  50.6199919  44.4038246 113.4183408
  43.7690012  42.6064997 110.8139988  43.8130012  43.4664997 110.3949988
  43.3120012  42.0544997 110.1799988  43.7132240  42.6494422 110.6709864
  51.4920012  42.7374997 109.2149988  52.1380012  42.4084997 109.8389988
  52.0020012  43.2554997 108.5919988  51.6494299  42.7624450 109.2162731
  40.3900012  45.0034997 111.5759988  41.0430012  44.4534997 112.0079988
  40.4140012  44.7294997 110.6589988  40.4826683  44.8911466 111.5112123
  45.5460012  46.5534997 110.7909988  46.1620012  46.0274997 111.3009988
  44.9600012  45.9134997 110.3879988  45.5510810  46.3949208 110.8063173
  56.5280012  43.1904997 116.3099988  55.8400012  43.8484997 116.2149988
  56.5440012  42.9934997 117.2469988  56.4359540  43.2539819 116.4235990
  42.5800012  41.5244997 114.8879988  42.3610012  42.0544997 114.1219988
  41.9120012  41.7514997 115.5349988  42.4597600  41.6276906 114.8706379
  49.9490012  51.0244997 108.4319988  49.6530012  50.7024997 107.5809988
  49.6240012  51.9244997 108.4729988  49.8646371  51.1020215 108.3211801
  45.1490012  49.2004997 115.1749988  44.4090012  49.7984997 115.2789988
  45.8630012  49.7544997 114.8599988  45.1442237  49.3572831 115.1466465
  53.2560012  42.0284997 111.1949988  53.0400012  41.2624997 111.7279988
  53.9110012  42.5004997 111.7079988  53.3150632  41.9875889 111.3372861
  42.1730012  43.4164997 112.8399988  42.7870012  44.0494997 113.2129988
  42.6850012  42.9444997 112.1839988  42.3261981  43.4392267 112.8022908
  43.5560012  51.1644997 115.9619988  43.5510012  52.0444997 115.5839988
  42.7030012  51.0814997 116.3869988  43.4399464  51.2736117 115.9677907
  39.6770012  50.8354997 106.7439988  39.4050012  51.0644997 105.8559988
  39.7230012  51.6734997 107.2049988  39.6459482  50.9801318 106.6846273
  53.3020012  52.4574997 113.4569988  52.3610012  52.5154997 113.6189988
  53.5790012  53.3634997 113.3199988  53.2104679  52.5879443 113.4606815
  53.6030012  40.7434997 114.8749988  52.8670012  41.3544997 114.8369988
  54.2860012  41.1584997 114.3479988  53.5946541  40.8831374 114.7985832
  46.6060012  38.8304997 112.3399988  46.4890012  37.8814997 112.2859988
  45.7510012  39.1624997 112.6139988  46.4744212  38.7455571 112.3696497
  51.5540012  54.2384997 110.0819988  51.9800012  53.5314997 109.5969988
  51.8710012  55.0394997 109.6659988  51.6551683  54.2501017 109.9593680
  52.7140012  52.1394997 108.5909988  52.4560012  51.4494997 107.9799988
  52.7850012  51.6964997 109.4369988  52.6882856  51.9852124 108.6216885
  54.4000012  50.7054997 117.0679988  54.5400012  50.1144997 116.3289988
  54.5670012  51.5784997 116.7119988  54.4417411  50.7425428 116.9186894
  48.8730012  47.6674997 106.8409988  48.1610012  48.2024997 106.4889988
  49.5640012  47.7234997 106.1809988  48.8690132  47.7482543 106.7036289
  56.2420012  47.0454997 115.1339988  55.5890012  47.7404997 115.2239988
  56.7070012  47.2554997 114.3249988  56.2155274  47.1690643 115.0368462
  52.2780012  47.8774997 107.7929988  51.5460012  48.1054997 108.3659988
  52.7260012  47.1634997 108.2469988  52.2382725  47.8122145 107.9328816
  52.1760012  46.0514997 116.8599988  52.2560012  46.8144997 117.4319988
  51.5740012  46.3304997 116.1699988  52.1055756  46.1937134 116.8450589
  43.9240012  48.5074997 109.6749988  43.5930012  48.1374997 108.8569988
  44.5120012  47.8374997 110.0219988  43.9581873  48.3661156 109.6098102
  45.2900012  51.9354997 112.3559988  45.1960012  51.3574997 111.5999988
  46.0200012  51.5644997 112.8529988  45.3757387  51.8061663 112.3195342
  44.2900012  47.2764997 113.3089988  44.8560012  47.3974997 112.5459988
  44.6090012  47.9134997 113.9469988  44.4105474  47.3792219 113.2909862
  50.5990012  52.7794997 114.0429988  50.3590012  53.4414997 114.6909988
  50.4010012  51.9454997 114.4679988  50.5393808  52.7573134 114.1891524
  45.1700012  51.6754997 118.0259988  44.8590012  52.4574997 118.4809988
  44.5200012  51.5224997 117.3399988  45.0395558  51.7619105 117.9955871
  51.1490012  47.0394997 105.4779988  51.7290012  47.1894997 106.2249988
  51.5630012  47.5104997 104.7539988  51.2842997  47.1236578 105.4824058
  42.0900012  47.8734997 117.2539988  42.1610012  48.5244997 117.9529988
  41.2000012  47.9764997 116.9189988  41.9793005  47.9765427 117.3043495
  48.8760012  53.7764997 108.9129988  49.3500012  54.0714997 109.6899988
  48.3130012  54.5144997 108.6799988  48.8648184  53.9167247 108.9879628
  43.4100012  53.7474997 118.7889988  43.4170012  53.6114997 117.8419988
  42.4940012  53.6294997 119.0409988  43.2871714  53.7129430 118.6934666
  42.9140012  47.5774997 107.2639988  42.6220012  48.3454997 106.7739988
  42.2400012  46.9174997 107.1019988  42.7828111  47.5935587 107.1748978
  39.0070012  49.9404997 116.0789988  38.5060012  49.9124997 115.2639988
  39.0120012  49.0344997 116.3889988  38.9390944  49.8142396 116.0093226
  38.7570012  52.7204997 112.9629988  39.7030012  52.5764997 112.9439988
  38.6450012  53.5044997 113.4999988  38.8712727  52.8068046 113.0330072
  56.9550012  53.3864997 118.6459988  56.9060012  52.4314997 118.6089988
  56.1280012  53.6544997 119.0469988  56.8364940  53.2918998 118.6951375
  47.9340012  52.9604997 117.5219988  48.0210012  53.7864997 117.9969988
  47.0700012  52.6304997 117.7709988  47.8291964  53.0289878 117.6206549
  48.3480012  56.7324997 107.3279988  48.2730012  56.6114997 106.3809988
  48.3810012  57.6824997 107.4459988  48.3422068  56.8442646 107.2144967
  42.0010012  55.5214997 109.1089988  42.1540012  55.1734997 109.9869988
  41.1510012  55.1654997 108.8539988  41.9069166  55.4256216 109.1948079
  51.1190012  55.8124997 107.0789988  50.1830012  55.9124997 107.2579988
  51.3990012  55.1034997 107.6579988  51.0289553  55.7303406 107.1817087
  54.1070012  44.8794997 119.1259988  53.7000012  45.3604997 118.4049988
  54.1480012  43.9744997 118.8179988  54.0568437  44.8229374 118.9856683
  41.2560012  51.2634997 117.1229988  41.4720012  50.9024997 117.9819988
  40.4010012  50.8894997 116.9129988  41.1699292  51.1634111 117.2123386
  43.8750012  39.7334997 113.1179988  43.0130012  39.6464997 112.7099988
  43.8520012  40.5894997 113.5459988  43.7540409  39.8372883 113.1200589
  48.5380012  39.4554997 116.4929988  48.9580012  39.0404997 117.2459988
  47.6050012  39.2774997 116.6099988  48.4693644  39.3745900 116.6119539
  51.8640012  43.2114997 117.3459988  51.3500012  43.0854997 118.1439988
  51.7090012  44.1234997 117.1019988  51.7726852  43.3176132 117.4222158
  52.6270012  48.0724997 103.1079988  52.6690012  47.8494997 102.1779988
  53.4760012  48.4714997 103.2969988  52.7475280  48.0959438 103.0063554
  43.9660012  44.6994997 114.2129988  43.3240012  44.6584997 114.9219988
  44.0030012  45.6254997 113.9749988  43.8830664  44.8191430 114.2779219
  43.9630012  44.9204997 109.1249988  43.0700012  44.5794997 109.0659988
  44.4130012  44.5434997 108.3689988  43.9018130  44.8229631 109.0147702
  49.4980012  45.3364997 107.9419988  49.0890012  46.1514997 107.6509988
  50.2190012  45.1964997 107.3279988  49.5394537  45.4292018 107.8191342
  48.6000012  45.5114997 119.4299988  48.0380012  44.8074997 119.7509988
  49.4270012  45.3914997 119.8979988  48.6347095  45.3987883 119.5372330
  50.5030012  44.7824997 110.7559988  50.3080012  45.3874997 110.0409988
  50.6840012  43.9484997 110.3219988  50.5007614  44.7526300 110.5994405
  41.7160012  45.0194997 116.0799988  41.6780012  45.4194997 116.9489988
  41.2250012  44.2024997 116.1709988  41.6444684  44.9638069 116.2111059
  45.0820012  42.3934997 102.8789988  44.6510012  41.9484997 103.6089988
  44.3640012  42.7654997 102.3669988  44.9259438  42.3828940 102.9096799
  38.3240012  42.1354997 109.9309988  38.9550012  42.1064997 110.6499988
  38.7730012  41.7104997 109.1999988  38.4710918  42.0740836 109.9306441
  39.5980012  42.8814997 105.3549988  40.0720012  43.4724997 104.7699988
  38.8810012  43.4124997 105.7019988  39.5659341  43.0340867 105.3218836
  49.7670012  46.4204997 115.4269988  50.0900012  45.7894997 114.7839988
  49.3270012  45.8854997 116.0879988  49.7517484  46.2618387 115.4283198
  46.5440012  42.3474997 110.2109988  45.6330012  42.4044997 110.4999988
  47.0500012  42.2874997 111.0219988  46.4876899  42.3471941 110.3601184
  41.3730012  43.9764997 109.0379988  40.4830012  44.0764997 108.6979988
  41.6690012  43.1344997 108.6919988  41.2912823  43.8763545 108.9447213
  45.0260012  43.9764997 106.6949988  45.9570012  44.1054997 106.8729988
  44.8110012  44.6464997 106.0449988  45.1244247  44.0846565 106.6315747
  50.9490012  41.5824997 113.4759988  50.2730012  41.7134997 114.1399988
  50.4640012  41.4274997 112.6649988  50.7907146  41.5795157 113.4574469
  54.2370012  57.2544997 119.7519988  54.4370012  57.6784997 118.9179988
  54.8920012  57.5974997 120.3589988  54.3530072  57.3589857 119.7198592
  41.8350012  49.7284997 119.3599988  42.5670012  49.9824997 119.9219988
  41.0550012  49.9324997 119.8759988  41.8297073  49.7908160 119.5066151
  47.8640012  45.1354997 112.0979988  48.4290012  44.5884997 111.5509988
  47.7170012  44.6134997 112.8869988  47.9213380  44.9902259 112.1298695
  42.8660012  41.2714997 108.5169988  42.5490012  40.3694997 108.4809988
  43.6480012  41.2734997 107.9639988  42.9282408  41.1482474 108.4373569
  46.4910012  43.5234997 114.5119988  45.6550012  43.9774997 114.6229988
  47.0150012  43.7994997 115.2639988  46.4475416  43.6228660 114.6288119
  47.0350012  49.7364997 106.1969988  46.2900012  49.2294997 105.8749988
  46.9010012  49.7854997 107.1439988  46.9148776  49.6736940 106.2808647
  54.1850012  48.8694997 114.9839988  54.8270012  49.3264997 114.4399988
  53.3550012  48.9824997 114.5209988  54.1605963  48.9472704 114.8470177
  48.5540012  49.9204997 117.4339988  48.2090012  49.5394997 118.2409988
  48.3540012  50.8544997 117.5049988  48.4797527  49.9945135 117.5540689
  51.6510012  44.4174997 106.0569988  52.5430012  44.2804997 106.3759988
  51.7080012  45.2084997 105.5199988  51.7806504  44.5056052 106.0280818
  42.1600012  49.0314997 111.9669988  42.9050012  49.0294997 111.3659988
  42.2380012  48.2084997 112.4479988  42.2724995  48.9198887 111.9498282
  49.1610012  51.1954997 105.2229988  48.8650012  52.0214997 105.6039988
  48.4580012  50.5754997 105.4189988  49.0254914  51.2248199 105.3016443
  39.1680012  47.4924997 117.2819988  39.3910012  47.0744997 118.1139988
  38.5660012  46.8794997 116.8589988  39.1171759  47.3524668 117.3387022
  46.1840012  47.0094997 119.4949988  45.8880012  46.8434997 118.5999988
  47.1160012  46.7894997 119.4839988  46.2694166  46.9570640 119.3710536
  50.8050012  52.3824997 117.3849988  49.9040012  52.5654997 117.1169988
  50.8390012  52.6414997 118.3049988  50.6863139  52.4425849 117.4728099
  56.5360012  44.6274997 105.7519988  55.9820012  44.2314997 105.0799988
  56.6360012  45.5374997 105.4739988  56.4737059  44.6963586 105.6224401
  56.4990012  50.4274997 118.5889988  55.6480012  50.6654997 118.2219988
  57.0900012  50.4104997 117.8359988  56.4622487  50.4578258 118.4368893
  51.9920012  48.2214997 113.2379988  51.0630012  47.9894997 113.2109988
  52.4430012  47.4444997 112.9079988  51.9259216  48.0847238 113.1896917
  44.5350012  52.5494997 109.3709988  45.0620012  53.3224997 109.1709988
  43.6550012  52.7744997 109.0689988  44.4882031  52.6857545 109.3027912
  45.9620012  50.2124997 108.9469988  45.7210012  51.1374997 108.9889988
  45.2210012  49.7534997 109.3439988  45.8289225  50.2770933 109.0063742
  46.4770012  54.3614997 115.2629988  46.8390012  55.2164997 115.0289988
  47.0080012  54.0694997 116.0029988  46.5984473  54.4391060 115.3310855
  44.6450012  55.2344997 108.4929988  43.6950012  55.3394997 108.5439988
  44.9970012  56.0544997 108.8369988  44.5624195  55.3598800 108.5465502
  50.0210012  50.4604997 114.9629988  49.5950012  50.2334997 115.7899988
  50.6010012  49.7224997 114.7809988  50.0411868  50.3295299 115.0515830
  52.6790012  55.0124997 117.4329988  52.0780012  54.4574997 116.9369988
  52.9610012  55.6794997 116.8059988  52.6348804  55.0266625 117.2804849
  56.7270012  55.8694997 104.2379988  57.4710012  56.4554997 104.0979988
  56.0330012  56.4374997 104.5709988  56.7349899  56.0265798 104.2638778
  40.8020012  42.2454997 116.8399988  39.9090012  42.5844997 116.7719988
  40.7030012  41.3904997 117.2579988  40.6664164  42.1762588 116.8872235
  53.0900012  50.0624997 106.2639988  52.8120012  49.3344997 106.8199988
  54.0170012  50.1814997 106.4689988  53.1773124  49.9788802 106.3678845
  40.4530012  54.0504997 115.2749988  40.6700012  53.1184997 115.2439988
  40.6990012  54.3244997 116.1579988  40.5159549  53.9600636 115.3901763
  46.3150012  52.5014997 102.4839988  46.5540012  51.7534997 101.9369988
  46.0460012  52.1134997 103.3169988  46.3113675  52.3466638 102.5216865
  45.2520012  52.0714997 104.9399988  45.3980012  51.5514997 105.7299988
  45.2490012  52.9784997 105.2469988  45.2715792  52.1228842 105.0896117
  41.7050012  49.3244997 105.4509988  41.0190012  49.6764997 106.0179988
  42.2270012  50.0874997 105.2039988  41.6816852  49.4758578 105.4952118
  49.5360012  41.9864997 115.7299988  50.2350012  42.0604997 116.3799988
  49.1550012  41.1224997 115.8839988  49.5801767  41.8797624 115.8398322
  50.3210012  41.6384997 106.8269988  50.5410012  42.1104997 106.0239988
  50.8790012  42.0334997 107.4969988  50.4264968  41.7564285 106.8077331
  47.9890012  53.7694997 105.6899988  47.1730012  54.2664997 105.7419988
  48.5190012  54.2444997 105.0499988  47.9489161  53.9017722 105.6105956
  47.5210012  43.3664997 107.6619988  48.3330012  43.8714997 107.7079988
  47.2760012  43.2214997 108.5759988  47.5990520  43.4160375 107.7918517
  48.0560012  44.3524997 116.8459988  48.1750012  44.9264997 117.6039988
  48.7120012  43.6644997 116.9609988  48.1609025  44.3379858 116.9651321
  48.4040012  40.4474997 108.5999988  48.0580012  41.0654997 109.2439988
  49.0630012  40.9484997 108.1179988  48.4456968  40.5996278 108.6229383
  45.3280012  54.8134997 105.6709988  45.4880012  55.6124997 105.1709988
  45.1300012  55.1194997 106.5559988  45.3231637  54.9644020 105.7221144
  44.0620012  41.5104997 105.2869988  43.9790012  42.3994997 105.6339988
  44.9520012  41.2454997 105.5189988  44.1709469  41.5961430 105.3657626
  54.2610012  42.2594997 117.6809988  53.3440012  42.5224997 117.5939988
  54.5960012  42.2564997 116.7849988  54.1808613  42.2950761 117.5478837
  52.8630012  46.0104997 111.7769988  52.0650012  45.5954997 111.4489988
  53.3080012  45.3194997 112.2679988  52.8139885  45.8603543 111.7984889
  53.9490012  55.2664997 113.3999988  53.7940012  55.9444997 112.7419988
  54.8820012  55.3384997 113.6029988  54.0538657  55.3689546 113.3374360
  41.4450012  39.3844997 112.1369988  41.2160012  39.4434997 111.2089988
  41.0020012  38.5924997 112.4429988  41.3538530  39.2855753 112.0514786
  40.3750012  53.3244997 108.2969988  39.5430012  53.7974997 108.3239988
  40.9210012  53.8344997 107.6989988  40.3350352  53.4581332 108.2198463
  39.6630012  55.9374997 119.6269988  40.2040012  55.7204997 120.3869988
  39.1820012  55.1314997 119.4369988  39.6719951  55.7989270 119.7052576
  44.2610012  54.8564997 121.2469988  45.0280012  54.3974997 121.5879988
  44.2390012  54.6304997 120.3179988  44.3631275  54.7630186 121.1680101
  48.3530012  54.3644997 102.6229988  47.7090012  53.7334997 102.9439988
  49.1150012  53.8334997 102.3909988  48.3678077  54.2062920 102.6356011
  50.8380012  53.2364997 119.9769988  50.4870012  52.3804997 120.2199988
  51.5640012  53.3794997 120.5839988  50.8880769  53.1385636 120.0923619
  39.5700012  49.7474997 120.5809988  39.7140012  48.8454997 120.2949988
  38.7980012  50.0334997 120.0939988  39.4852753  49.6626816 120.4759505
  43.9120012  50.0914997 102.7139988  43.9760012  49.2974997 103.2449988
  44.5650012  49.9724997 102.0239988  44.0090241  49.9667148 102.6934317
  46.2260012  49.7174997 120.0139988  45.8970012  49.9884997 119.1569988
  46.3780012  48.7764997 119.9269988  46.2014809  49.6273862 119.8848244
  51.9600012  49.6334997 117.3969988  52.7060012  50.2214997 117.2779988
  51.2030012  50.2154997 117.4609988  51.9597820  49.7927143 117.3893590
  40.4030012  46.9474997 120.0009988  40.8110012  46.0904997 119.8799988
  40.1430012  46.9624997 120.9219988  40.4237568  46.8320807 120.1089588
  45.0610012  48.0634997 105.0199988  44.6010012  47.5794997 105.7059988
  45.3160012  47.3954997 104.3839988  45.0324902  47.9068731 105.0279334
  44.3500012  45.9564997 117.3759988  43.7320012  46.6314997 117.6559988
  44.6940012  46.2774997 116.5419988  44.3119132  46.0922411 117.3016262
  49.3700012  48.4284997 120.6529988  50.3230012  48.5114997 120.6259988
  49.2090012  47.7164997 121.2729988  49.4786426  48.3436746 120.7330579
  44.6890012  43.3114997 118.4579988  44.8390012  42.5824997 117.8559988
  44.6920012  44.0884997 117.8989988  44.7099302  43.3167851 118.3000692
  45.1020012  41.6814997 115.9509988  45.6380012  42.1324997 115.2989988
  44.2500012  41.5734997 115.5279988  45.0602178  41.7286390 115.8045756
  46.6840012  47.1204997 116.1899988  47.4340012  46.9644997 115.6169988
  46.3450012  47.9724997 115.9149988  46.7408921  47.2142968 116.0743561
  51.0990012  44.9354997 121.2189988  51.2920012  44.0044997 121.1069988
  51.9570012  45.3604997 121.2079988  51.2412934  44.8656531 121.2022031
  52.4160012  47.7244997 119.2959988  52.1350012  48.4334997 118.7179988
  53.3590012  47.6514997 119.1449988  52.5049291  47.8116711 119.1964967
  43.1680012  44.5094997 120.3699988  42.4010012  43.9774997 120.1589988
  43.8470012  44.1994997 119.7699988  43.1547877  44.3948300 120.2600716
  45.9080012  39.1374997 116.3819988  45.8090012  40.0844997 116.2769988
  45.1650012  38.7654997 115.9059988  45.7941184  39.2165863 116.3033621
  47.1720012  43.4594997 119.9459988  46.9360012  43.2394997 120.8469988
  46.3880012  43.2524997 119.4359988  47.0338504  43.4014586 120.0003431
  49.8870012  42.5864997 119.0209988  48.9400012  42.6184997 119.1539988
  50.2000012  41.9614997 119.6749988  49.7996707  42.5063998 119.1276060
  51.5210012  41.2204997 121.0269988  51.4250012  40.2684997 121.0209988
  51.2000012  41.4894997 121.8869988  51.4644070  41.1264035 121.1425441
  41.3480012  42.4304997 120.0739988  41.5600012  41.7234997 119.4639988
  41.2370012  41.9924997 120.9179988  41.3619721  42.2747084 120.1046843
  46.1290012  38.4314997 119.0529988  46.8410012  37.7914997 119.0389988
  46.0280012  38.6984997 118.1399988  46.2128066  38.3800079 118.9275677
  46.4830012  40.1144997 121.1069988  46.3510012  39.6384997 120.2869988
  45.8840012  40.8584997 121.0519988  46.3839071  40.1499618 120.9872886
  38.2470012  57.0264997 108.8439988  37.6000012  56.5644997 108.3109988
  38.6010012  56.3544997 109.4259988  38.2063849  56.8724723 108.8497959
  39.1170012  55.1074997 110.6479988  38.7820012  54.2274997 110.8199988
  39.3390012  55.4524997 111.5129988  39.1011783  55.0337500 110.7884208
  56.6650012  55.9164997 113.6289988  56.6440012  56.1014997 114.5679988
  57.3560012  56.4854997 113.2879988  56.7554618  56.0186606 113.7113864
  56.2290012  55.4844997 116.5509988  55.7410012  54.7484997 116.1789988
  56.7780012  55.0904997 117.2289988  56.2364820  55.3305889 116.5917813
  54.6790012  51.2734997 121.1889988  53.8130012  51.1684997 121.5829988
  55.0560012  52.0324997 121.6349988  54.6113308  51.3616900 121.3032393
  55.9800012  49.5304997 106.7029988  56.8300012  49.9514997 106.8299988
  55.9860012  48.7904997 107.3099988  56.0971372  49.4880803 106.8024344
  56.3750012  47.5834997 108.5259988  55.6480012  47.1044997 108.9239988
  56.9560012  47.7894997 109.2589988  56.3540473  47.5458103 108.6794528
  56.1340012  50.3684997 113.4739988  56.9670012  49.9904997 113.1939988
  56.2460012  51.3114997 113.3549988  56.2632647  50.4442218 113.4195487
  54.6200012  53.2464997 115.7809988  53.9730012  53.5714997 116.4069988
  54.1030012  52.8064997 115.1069988  54.4614029  53.2315004 115.7755827
  54.1610012  46.1044997 109.0889988  54.0110012  45.1594997 109.0689988
  53.8080012  46.3854997 109.9329988  54.0927448  46.0131481 109.2003705
  39.1970012  48.1824997 113.0999988  39.3810012  48.1004997 112.1639988
  40.0460012  48.0584997 113.5229988  39.3370151  48.1545073 113.0291451
  55.0180012  48.0744997 118.7279988  55.6010012  47.3404997 118.9199988
  55.5820012  48.8464997 118.7749988  55.1739769  48.0784227 118.7606159
  56.5140012  45.9774997 119.4129988  55.6510012  45.5984997 119.2469988
  57.1190012  45.2384997 119.3379988  56.4776119  45.8258268 119.3801528
  53.8720012  43.6874997 107.5519988  54.1520012  42.7804997 107.6759988
  54.6310012  44.1214997 107.1629988  54.0129277  43.6220942 107.5163682
  54.4840012  44.2684997 112.9879988  55.4170012  44.4804997 112.9529988
  54.2490012  44.3704997 113.9099988  54.5799244  44.3113100 113.1078892
  54.5130012  45.0054997 115.7639988  53.6700012  45.2734997 116.1299988
  54.9550012  45.8274997 115.5529988  54.4574158  45.1533291 115.7855491
  38.7940012  43.4534997 119.2409988  39.7140012  43.3314997 119.4769988
  38.3450012  42.7034997 119.6299988  38.8591580  43.3353727 119.3259006
  56.7960012  38.9854997 121.1169988  57.1460012  38.3314997 120.5119988
  56.9430012  39.8224997 120.6769988  56.8637887  39.0091548 120.9746858
  54.4850012  40.9504997 107.5999988  54.6680012  40.5014997 108.4259988
  53.8860012  40.3654997 107.1369988  54.4290202  40.8099975 107.6503275
  40.0150012  41.7654997 112.1319988  40.4610012  40.9734997 112.4339988
  40.4820012  42.4814997 112.5619988  40.1390831  41.7540685 112.2314006
  38.3190012  44.7644997 113.2009988  38.8110012  44.5434997 112.4099988
  38.6820012  45.6054997 113.4819988  38.4353126  44.8478357 113.1307531
  56.3160012  41.0944997 119.4659988  55.3980012  41.3654997 119.4309988
  56.4390012  40.5594997 118.6819988  56.2069729  41.0592508 119.3551923
  56.3520012  41.0174997 104.1279988  56.7640012  40.2964997 103.6529988
  57.0340012  41.6874997 104.1869988  56.5005885  41.0092368 104.0708915
  38.6330012  41.0224997 107.2549988  37.7080012  41.2314997 107.1259988
  39.0870012  41.5064997 106.5649988  38.5677292  41.1165343 107.1440720
  53.4040012  56.0064997 109.2009988  54.0560012  55.6594997 108.5929988
  53.9140012  56.4954997 109.8469988  53.5622637  56.0250597 109.2050236
  38.5970012  39.7604997 115.5989988  37.9320012  39.5144997 116.2429988
  38.1540012  40.3824997 115.0219988  38.4461318  39.8109410 115.6090898
  40.7890012  52.9354997 119.7439988  39.9680012  53.1104997 119.2829988
  40.5360012  52.8624997 120.6639988  40.6425585  52.9495544 119.8053561
  43.7430012  53.9104997 116.0019988  43.3180012  54.7194997 115.7199988
  44.6470012  53.9954997 115.6999988  43.8069975  54.0329300 115.9224816
  48.0540012  55.3094997 118.9619988  48.2390012  54.9754997 119.8399988
  48.9000012  55.6184997 118.6399988  48.1937539  55.3056047 119.0385605
  50.3990012  56.5954997 118.2059988  51.0760012  55.9624997 117.9659988
  50.7210012  56.9964997 119.0129988  50.5351637  56.5631154 118.2822793
  55.3160012  39.1844997 117.2849988  54.5040012  39.5094997 116.8979988
  55.5490012  38.4244997 116.7519988  55.2362203  39.1262758 117.1598880
  41.1450012  57.1664997 116.0499988  40.4240012  57.6064997 115.5989988
  40.7790012  56.9154997 116.8979988  40.9969651  57.1927242 116.1029640
  43.6120012  56.7664997 115.0799988  42.7470012  56.8384997 115.4839988
  43.5570012  57.3134997 114.2959988  43.4862085  56.8502685 115.0293362
  48.3220012  56.6544997 114.2549988  47.8660012  57.1834997 113.6009988
  48.4850012  57.2574997 114.9799988  48.2816068  56.8084607 114.2634838
  50.6500012  55.5324997 115.1999988  49.7450012  55.6974997 114.9339988
  51.0790012  56.3854997 115.1349988  50.5841324  55.6704339 115.1547976
  53.2540012  57.1024997 115.4949988  53.0720012  58.0184997 115.2849988
  53.4310012  56.6924997 114.6489988  53.2530210  57.1724822 115.3517885
  40.5590012  55.7894997 112.9599988  40.5410012  55.3644997 113.8169988
  41.3640012  55.4714997 112.5509988  40.6653529  55.6883013 113.0220946
  42.7010012  54.4994997 111.6149988  42.4820012  53.5834997 111.7849988
  43.5250012  54.6394997 112.0809988  42.7824420  54.3930520 111.7012774
  45.2380012  54.9694997 112.4639988  45.4510012  54.0814997 112.1769988
  45.3020012  54.9354997 113.4179988  45.2758232  54.8433102 112.5537397
  48.7460012  40.6334997 111.6079988  48.0720012  40.0044997 111.8639988
  49.3100012  40.1494997 111.0049988  48.7299230  40.4818744 111.5615340
  53.8890012  38.7414997 111.7209988  54.4930012  39.2884997 111.2189988
  53.0190012  39.0604997 111.4799988  53.8541208  38.8595137 111.6196886
  55.6160012  39.8794997 110.0539988  56.2280012  39.3654997 109.5269988
  55.9980012  40.7574997 110.0769988  55.7513371  39.9277866 109.9850041
  41.0730012  39.2674997 109.4299988  40.2960012  39.0334997 108.9229988
  41.6030012  38.4704997 109.4389988  41.0382330  39.1276988 109.3617742
  39.9090012  39.0654997 105.2339988  40.3480012  39.6764997 104.6419988
  39.2760012  39.6034997 105.7079988  39.8834514  39.2219257 105.2170930
  45.6520012  39.1944997 109.2439988  46.5270012  39.5824997 109.2139988
  45.5160012  38.9794997 110.1659988  45.7533695  39.2185184 109.3646440
  51.2090012  39.2244997 110.8929988  51.2850012  39.3194997 109.9429988
  50.9340012  38.3164997 111.0219988  51.1822321  39.1147867 110.7805079
  52.5620012  39.2504997 106.5849988  51.8600012  39.8654997 106.3749988
  52.1180012  38.4124997 106.7159988  52.4056450  39.2215639 106.5739000
  46.7960012  41.2744997 106.1329988  46.9740012  40.6284997 106.8159988
  46.7430012  42.1084997 106.5999988  46.8131999  41.2988009 106.2895917
  48.6750012  56.2234997 104.5289988  49.5410012  56.5894997 104.3509988
  48.4280012  55.7834997 103.7149988  48.7602392  56.2141756 104.3946289
  55.3840012  55.7864997 107.2079988  55.1890012  55.0384997 106.6429988
  55.3450012  56.5444997 106.6249988  55.3520380  55.7866099 107.0518384
  41.0310012  39.7814997 118.9479988  40.6650012  39.0164997 119.3899988
  41.9440012  39.8104997 119.2339988  41.1042736  39.6805640 119.0472502
  43.0040012  39.1324997 120.4839988  43.9020012  38.8584997 120.2989988
  42.6170012  38.3894997 120.9479988  43.0746612  38.9945914 120.5213643
  51.4250012  38.4644997 120.6659988  51.5020012  38.0384997 121.5199988
  52.3190012  38.4784997 120.3229988  51.5563428  38.4080879 120.7365310
  54.6010012  54.5374997 119.3579988  53.8190012  54.3514997 118.8379988
  54.5290012  55.4664997 119.5759988  54.4842274  54.6376643 119.3163018
  69.0070012  48.4234997 109.3889988  69.0960012  49.3674997 109.2569988
  68.3690012  48.1484997 108.7309988  68.9329081  48.5154830 109.2819614
  67.9400012  47.6784997 112.8079988  67.9020012  47.0324997 113.5129988
  67.6180012  47.2124997 112.0369988  67.8912333  47.5269408 112.8002978
  60.3090012  47.2934997 114.4009988  60.3500012  46.6674997 115.1239988
  61.0120012  47.9174997 114.5829988  60.4096363  47.2921196 114.5246044
  71.6460012  50.6174997 111.1089988  71.2060012  49.8974997 111.5599988
  71.6330012  51.3384997 111.7389988  71.5840226  50.6163731 111.2558494
  61.2320012  51.7434997 112.9359988  60.8630012  50.9414997 112.5659988
  62.1730012  51.5744997 112.9819988  61.3087289  51.6110153 112.8916316
  57.8420012  45.4034997 108.3289988  57.3950012  46.2494997 108.3099988
  57.2810012  44.8234997 107.8129988  57.7049900  45.4409916 108.2566801
  58.5530012  47.5654997 110.4539988  58.7660012  46.7954997 110.9819988
  59.2910012  47.6544997 109.8509988  58.6819044  47.4721968 110.4447123
  66.3300012  50.1114997 113.2139988  66.6340012  49.4254997 112.6189988
  67.0510012  50.2294997 113.8319988  66.4690671  50.0336304 113.2161816
  74.9930012  41.7124997 114.0749988  75.0420012  42.3224997 114.8099988
  75.4180012  42.1734997 113.3519988  75.0571746  41.8583796 114.0779175
  69.4710012  44.5054997 113.5409988  69.6130012  43.5594997 113.5619988
  69.3640012  44.7124997 112.6129988  69.4759919  44.4038246 113.4183408
  62.6250012  42.6064997 110.8139988  62.6690012  43.4664997 110.3949988
  62.1680012  42.0544997 110.1799988  62.5692240  42.6494422 110.6709864
  70.3480012  42.7374997 109.2149988  70.9940012  42.4084997 109.8389988
  70.8580012  43.2554997 108.5919988  70.5054299  42.7624450 109.2162731
  59.2460012  45.0034997 111.5759988  59.8990012  44.4534997 112.0079988
  59.2700012  44.7294997 110.6589988  59.3386683  44.8911466 111.5112123
  64.4020012  46.5534997 110.7909988  65.0180012  46.0274997 111.3009988
  63.8160012  45.9134997 110.3879988  64.4070810  46.3949208 110.8063173
  75.3840012  43.1904997 116.3099988  74.6960012  43.8484997 116.2149988
  75.4000012  42.9934997 117.2469988  75.2919540  43.2539819 116.4235990
  61.4360012  41.5244997 114.8879988  61.2170012  42.0544997 114.1219988
  60.7680012  41.7514997 115.5349988  61.3157600  41.6276906 114.8706379
  64.0050012  49.2004997 115.1749988  63.2650012  49.7984997 115.2789988
  64.7190012  49.7544997 114.8599988  64.0002237  49.3572831 115.1466465
  72.1120012  42.0284997 111.1949988  71.8960012  41.2624997 111.7279988
  72.7670012  42.5004997 111.7079988  72.1710632  41.9875889 111.3372861
  61.0290012  43.4164997 112.8399988  61.6430012  44.0494997 113.2129988
  61.5410012  42.9444997 112.1839988  61.1821981  43.4392267 112.8022908
  62.4120012  51.1644997 115.9619988  62.4070012  52.0444997 115.5839988
  61.5590012  51.0814997 116.3869988  62.2959464  51.2736117 115.9677907
  58.5330012  50.8354997 106.7439988  58.2610012  51.0644997 105.8559988
  58.5790012  51.6734997 107.2049988  58.5019482  50.9801318 106.6846273
  72.1580012  52.4574997 113.4569988  71.2170012  52.5154997 113.6189988
  72.4350012  53.3634997 113.3199988  72.0664679  52.5879443 113.4606815
  72.4590012  40.7434997 114.8749988  71.7230012  41.3544997 114.8369988
  73.1420012  41.1584997 114.3479988  72.4506541  40.8831374 114.7985832
  65.4620012  38.8304997 112.3399988  65.3450012  37.8814997 112.2859988
  64.6070012  39.1624997 112.6139988  65.3304212  38.7455571 112.3696497
  73.2560012  50.7054997 117.0679988  73.3960012  50.1144997 116.3289988
  73.4230012  51.5784997 116.7119988  73.2977411  50.7425428 116.9186894
  67.7290012  47.6674997 106.8409988  67.0170012  48.2024997 106.4889988
  68.4200012  47.7234997 106.1809988  67.7250132  47.7482543 106.7036289
  75.0980012  47.0454997 115.1339988  74.4450012  47.7404997 115.2239988
  75.5630012  47.2554997 114.3249988  75.0715274  47.1690643 115.0368462
  71.1340012  47.8774997 107.7929988  70.4020012  48.1054997 108.3659988
  71.5820012  47.1634997 108.2469988  71.0942725  47.8122145 107.9328816
  71.0320012  46.0514997 116.8599988  71.1120012  46.8144997 117.4319988
  70.4300012  46.3304997 116.1699988  70.9615756  46.1937134 116.8450589
  62.7800012  48.5074997 109.6749988  62.4490012  48.1374997 108.8569988
  63.3680012  47.8374997 110.0219988  62.8141873  48.3661156 109.6098102
  64.1460012  51.9354997 112.3559988  64.0520012  51.3574997 111.5999988
  64.8760012  51.5644997 112.8529988  64.2317387  51.8061663 112.3195342
  63.1460012  47.2764997 113.3089988  63.7120012  47.3974997 112.5459988
  63.4650012  47.9134997 113.9469988  63.2665474  47.3792219 113.2909862
  69.4550012  52.7794997 114.0429988  69.2150012  53.4414997 114.6909988
  69.2570012  51.9454997 114.4679988  69.3953808  52.7573134 114.1891524
  64.0260012  51.6754997 118.0259988  63.7150012  52.4574997 118.4809988
  63.3760012  51.5224997 117.3399988  63.8955558  51.7619105 117.9955871
  60.9460012  47.8734997 117.2539988  61.0170012  48.5244997 117.9529988
  60.0560012  47.9764997 116.9189988  60.8353005  47.9765427 117.3043495
  62.2660012  53.7474997 118.7889988  62.2730012  53.6114997 117.8419988
  61.3500012  53.6294997 119.0409988  62.1431714  53.7129430 118.6934666
  73.7040012  38.7894997 105.2909988  72.8040012  38.9284997 105.5859988
  73.9560012  39.6204997 104.8889988  73.6148702  38.9209074 105.2770205
  61.7700012  47.5774997 107.2639988  61.4780012  48.3454997 106.7739988
  61.0960012  46.9174997 107.1019988  61.6388111  47.5935587 107.1748978
  74.8930012  53.1554997 103.6669988  74.9670012  54.0944997 103.8379988
  75.7990012  52.8504997 103.6109988  75.0255100  53.2426722 103.6828119
  57.8630012  49.9404997 116.0789988  57.3620012  49.9124997 115.2639988
  57.8680012  49.0344997 116.3889988  57.7950944  49.8142396 116.0093226
  57.6130012  52.7204997 112.9629988  58.5590012  52.5764997 112.9439988
  57.5010012  53.5044997 113.4999988  57.7272727  52.8068046 113.0330072
  75.8110012  53.3864997 118.6459988  75.7620012  52.4314997 118.6089988
  74.9840012  53.6544997 119.0469988  75.6924940  53.2918998 118.6951375
  66.7900012  52.9604997 117.5219988  66.8770012  53.7864997 117.9969988
  65.9260012  52.6304997 117.7709988  66.6851964  53.0289878 117.6206549
  60.8570012  55.5214997 109.1089988  61.0100012  55.1734997 109.9869988
  60.0070012  55.1654997 108.8539988  60.7629166  55.4256216 109.1948079
  72.9630012  44.8794997 119.1259988  72.5560012  45.3604997 118.4049988
  73.0040012  43.9744997 118.8179988  72.9128437  44.8229374 118.9856683
  60.1120012  51.2634997 117.1229988  60.3280012  50.9024997 117.9819988
  59.2570012  50.8894997 116.9129988  60.0259292  51.1634111 117.2123386
  62.7310012  39.7334997 113.1179988  61.8690012  39.6464997 112.7099988
  62.7080012  40.5894997 113.5459988  62.6100409  39.8372883 113.1200589
  67.3940012  39.4554997 116.4929988  67.8140012  39.0404997 117.2459988
  66.4610012  39.2774997 116.6099988  67.3253644  39.3745900 116.6119539
  70.7200012  43.2114997 117.3459988  70.2060012  43.0854997 118.1439988
  70.5650012  44.1234997 117.1019988  70.6286852  43.3176132 117.4222158
  67.0550012  41.9484997 103.7779988  66.8020012  41.9674997 104.7009988
  66.7990012  41.0764997 103.4759988  66.9857481  41.8332558 103.8636175
  62.8220012  44.6994997 114.2129988  62.1800012  44.6584997 114.9219988
  62.8590012  45.6254997 113.9749988  62.7390664  44.8191430 114.2779219
  62.8190012  44.9204997 109.1249988  61.9260012  44.5794997 109.0659988
  63.2690012  44.5434997 108.3689988  62.7578130  44.8229631 109.0147702
  68.3540012  45.3364997 107.9419988  67.9450012  46.1514997 107.6509988
  69.0750012  45.1964997 107.3279988  68.3954537  45.4292018 107.8191342
  67.4560012  45.5114997 119.4299988  66.8940012  44.8074997 119.7509988
  68.2830012  45.3914997 119.8979988  67.4907095  45.3987883 119.5372330
  69.3590012  44.7824997 110.7559988  69.1640012  45.3874997 110.0409988
  69.5400012  43.9484997 110.3219988  69.3567614  44.7526300 110.5994405
  60.5720012  45.0194997 116.0799988  60.5340012  45.4194997 116.9489988
  60.0810012  44.2024997 116.1709988  60.5004684  44.9638069 116.2111059
  57.1800012  42.1354997 109.9309988  57.8110012  42.1064997 110.6499988
  57.6290012  41.7104997 109.1999988  57.3270918  42.0740836 109.9306441
  58.4540012  42.8814997 105.3549988  58.9280012  43.4724997 104.7699988
  57.7370012  43.4124997 105.7019988  58.4219341  43.0340867 105.3218836
  68.6230012  46.4204997 115.4269988  68.9460012  45.7894997 114.7839988
  68.1830012  45.8854997 116.0879988  68.6077484  46.2618387 115.4283198
  65.4000012  42.3474997 110.2109988  64.4890012  42.4044997 110.4999988
  65.9060012  42.2874997 111.0219988  65.3436899  42.3471941 110.3601184
  60.2290012  43.9764997 109.0379988  59.3390012  44.0764997 108.6979988
  60.5250012  43.1344997 108.6919988  60.1472823  43.8763545 108.9447213
  63.8820012  43.9764997 106.6949988  64.8130012  44.1054997 106.8729988
  63.6670012  44.6464997 106.0449988  63.9804247  44.0846565 106.6315747
  69.8050012  41.5824997 113.4759988  69.1290012  41.7134997 114.1399988
  69.3200012  41.4274997 112.6649988  69.6467146  41.5795157 113.4574469
  62.5560012  45.1714997 104.2609988  62.0130012  44.7914997 103.5699988
  63.3890012  45.3654997 103.8329988  62.5943631  45.1457125 104.1084501
  73.0930012  57.2544997 119.7519988  73.2930012  57.6784997 118.9179988
  73.7480012  57.5974997 120.3589988  73.2090072  57.3589857 119.7198592
  60.6910012  49.7284997 119.3599988  61.4230012  49.9824997 119.9219988
  59.9110012  49.9324997 119.8759988  60.6857073  49.7908160 119.5066151
  66.7200012  45.1354997 112.0979988  67.2850012  44.5884997 111.5509988
  66.5730012  44.6134997 112.8869988  66.7773380  44.9902259 112.1298695
  61.7220012  41.2714997 108.5169988  61.4050012  40.3694997 108.4809988
  62.5040012  41.2734997 107.9639988  61.7842408  41.1482474 108.4373569
  65.3470012  43.5234997 114.5119988  64.5110012  43.9774997 114.6229988
  65.8710012  43.7994997 115.2639988  65.3035416  43.6228660 114.6288119
  73.0410012  48.8694997 114.9839988  73.6830012  49.3264997 114.4399988
  72.2110012  48.9824997 114.5209988  73.0165963  48.9472704 114.8470177
  67.4100012  49.9204997 117.4339988  67.0650012  49.5394997 118.2409988
  67.2100012  50.8544997 117.5049988  67.3357527  49.9945135 117.5540689
  61.0160012  49.0314997 111.9669988  61.7610012  49.0294997 111.3659988
  61.0940012  48.2084997 112.4479988  61.1284995  48.9198887 111.9498282
  58.0240012  47.4924997 117.2819988  58.2470012  47.0744997 118.1139988
  57.4220012  46.8794997 116.8589988  57.9731759  47.3524668 117.3387022
  65.0400012  47.0094997 119.4949988  64.7440012  46.8434997 118.5999988
  65.9720012  46.7894997 119.4839988  65.1254166  46.9570640 119.3710536
  69.6610012  52.3824997 117.3849988  68.7600012  52.5654997 117.1169988
  69.6950012  52.6414997 118.3049988  69.5423139  52.4425849 117.4728099
  75.3920012  44.6274997 105.7519988  74.8380012  44.2314997 105.0799988
  75.4920012  45.5374997 105.4739988  75.3297059  44.6963586 105.6224401
  75.3550012  50.4274997 118.5889988  74.5040012  50.6654997 118.2219988
  75.9460012  50.4104997 117.8359988  75.3182487  50.4578258 118.4368893
  70.8480012  48.2214997 113.2379988  69.9190012  47.9894997 113.2109988
  71.2990012  47.4444997 112.9079988  70.7819216  48.0847238 113.1896917
  63.3910012  52.5494997 109.3709988  63.9180012  53.3224997 109.1709988
  62.5110012  52.7744997 109.0689988  63.3442031  52.6857545 109.3027912
  64.8180012  50.2124997 108.9469988  64.5770012  51.1374997 108.9889988
  64.0770012  49.7534997 109.3439988  64.6849225  50.2770933 109.0063742
  65.3330012  54.3614997 115.2629988  65.6950012  55.2164997 115.0289988
  65.8640012  54.0694997 116.0029988  65.4544473  54.4391060 115.3310855
  63.5010012  55.2344997 108.4929988  62.5510012  55.3394997 108.5439988
  63.8530012  56.0544997 108.8369988  63.4184195  55.3598800 108.5465502
  68.8770012  50.4604997 114.9629988  68.4510012  50.2334997 115.7899988
  69.4570012  49.7224997 114.7809988  68.8971868  50.3295299 115.0515830
  71.5350012  55.0124997 117.4329988  70.9340012  54.4574997 116.9369988
  71.8170012  55.6794997 116.8059988  71.4908804  55.0266625 117.2804849
  59.6580012  42.2454997 116.8399988  58.7650012  42.5844997 116.7719988
  59.5590012  41.3904997 117.2579988  59.5224164  42.1762588 116.8872235
  59.3090012  54.0504997 115.2749988  59.5260012  53.1184997 115.2439988
  59.5550012  54.3244997 116.1579988  59.3719549  53.9600636 115.3901763
  64.1080012  52.0714997 104.9399988  64.2540012  51.5514997 105.7299988
  64.1050012  52.9784997 105.2469988  64.1275792  52.1228842 105.0896117
  60.5610012  49.3244997 105.4509988  59.8750012  49.6764997 106.0179988
  61.0830012  50.0874997 105.2039988  60.5376852  49.4758578 105.4952118
  68.3920012  41.9864997 115.7299988  69.0910012  42.0604997 116.3799988
  68.0110012  41.1224997 115.8839988  68.4361767  41.8797624 115.8398322
  69.1770012  41.6384997 106.8269988  69.3970012  42.1104997 106.0239988
  69.7350012  42.0334997 107.4969988  69.2824968  41.7564285 106.8077331
  66.3770012  43.3664997 107.6619988  67.1890012  43.8714997 107.7079988
  66.1320012  43.2214997 108.5759988  66.4550520  43.4160375 107.7918517
  66.9120012  44.3524997 116.8459988  67.0310012  44.9264997 117.6039988
  67.5680012  43.6644997 116.9609988  67.0169025  44.3379858 116.9651321
  67.2600012  40.4474997 108.5999988  66.9140012  41.0654997 109.2439988
  67.9190012  40.9484997 108.1179988  67.3016968  40.5996278 108.6229383
  64.1840012  54.8134997 105.6709988  64.3440012  55.6124997 105.1709988
  63.9860012  55.1194997 106.5559988  64.1791637  54.9644020 105.7221144
  73.1170012  42.2594997 117.6809988  72.2000012  42.5224997 117.5939988
  73.4520012  42.2564997 116.7849988  73.0368613  42.2950761 117.5478837
  71.7190012  46.0104997 111.7769988  70.9210012  45.5954997 111.4489988
  72.1640012  45.3194997 112.2679988  71.6699885  45.8603543 111.7984889
  61.1770012  51.9384997 104.3479988  61.7690012  52.6374997 104.6239988
  61.6360012  51.5054997 103.6279988  61.3201142  51.9757049 104.2884830
  59.4930012  44.6024997 103.4639988  59.4480012  45.5414997 103.6419988
  58.6050012  44.3664997 103.1939988  59.3668574  44.6991892 103.4518912
  72.8050012  55.2664997 113.3999988  72.6500012  55.9444997 112.7419988
  73.7380012  55.3384997 113.6029988  72.9098657  55.3689546 113.3374360
  60.3010012  39.3844997 112.1369988  60.0720012  39.4434997 111.2089988
  59.8580012  38.5924997 112.4429988  60.2098530  39.2855753 112.0514786
  59.2310012  53.3244997 108.2969988  58.3990012  53.7974997 108.3239988
  59.7770012  53.8344997 107.6989988  59.1910352  53.4581332 108.2198463
  58.5190012  55.9374997 119.6269988  59.0600012  55.7204997 120.3869988
  58.0380012  55.1314997 119.4369988  58.5279951  55.7989270 119.7052576
  63.1170012  54.8564997 121.2469988  63.8840012  54.3974997 121.5879988
  63.0950012  54.6304997 120.3179988  63.2191275  54.7630186 121.1680101
  69.6940012  53.2364997 119.9769988  69.3430012  52.3804997 120.2199988
  70.4200012  53.3794997 120.5839988  69.7440769  53.1385636 120.0923619
  58.4260012  49.7474997 120.5809988  58.5700012  48.8454997 120.2949988
  57.6540012  50.0334997 120.0939988  58.3412753  49.6626816 120.4759505
  65.0820012  49.7174997 120.0139988  64.7530012  49.9884997 119.1569988
  65.2340012  48.7764997 119.9269988  65.0574809  49.6273862 119.8848244
  70.8160012  49.6334997 117.3969988  71.5620012  50.2214997 117.2779988
  70.0590012  50.2154997 117.4609988  70.8157820  49.7927143 117.3893590
  59.2590012  46.9474997 120.0009988  59.6670012  46.0904997 119.8799988
  58.9990012  46.9624997 120.9219988  59.2797568  46.8320807 120.1089588
  63.2060012  45.9564997 117.3759988  62.5880012  46.6314997 117.6559988
  63.5500012  46.2774997 116.5419988  63.1679132  46.0922411 117.3016262
  68.2260012  48.4284997 120.6529988  69.1790012  48.5114997 120.6259988
  68.0650012  47.7164997 121.2729988  68.3346426  48.3436746 120.7330579
  63.5450012  43.3114997 118.4579988  63.6950012  42.5824997 117.8559988
  63.5480012  44.0884997 117.8989988  63.5659302  43.3167851 118.3000692
  63.9580012  41.6814997 115.9509988  64.4940012  42.1324997 115.2989988
  63.1060012  41.5734997 115.5279988  63.9162178  41.7286390 115.8045756
  65.5400012  47.1204997 116.1899988  66.2900012  46.9644997 115.6169988
  65.2010012  47.9724997 115.9149988  65.5968921  47.2142968 116.0743561
  69.9550012  44.9354997 121.2189988  70.1480012  44.0044997 121.1069988
  70.8130012  45.3604997 121.2079988  70.0972934  44.8656531 121.2022031
  71.2720012  47.7244997 119.2959988  70.9910012  48.4334997 118.7179988
  72.2150012  47.6514997 119.1449988  71.3609291  47.8116711 119.1964967
  62.0240012  44.5094997 120.3699988  61.2570012  43.9774997 120.1589988
  62.7030012  44.1994997 119.7699988  62.0107877  44.3948300 120.2600716
  64.7640012  39.1374997 116.3819988  64.6650012  40.0844997 116.2769988
  64.0210012  38.7654997 115.9059988  64.6501184  39.2165863 116.3033621
  66.0280012  43.4594997 119.9459988  65.7920012  43.2394997 120.8469988
  65.2440012  43.2524997 119.4359988  65.8898504  43.4014586 120.0003431
  68.7430012  42.5864997 119.0209988  67.7960012  42.6184997 119.1539988
  69.0560012  41.9614997 119.6749988  68.6556707  42.5063998 119.1276060
  70.3770012  41.2204997 121.0269988  70.2810012  40.2684997 121.0209988
  70.0560012  41.4894997 121.8869988  70.3204070  41.1264035 121.1425441
  60.2040012  42.4304997 120.0739988  60.4160012  41.7234997 119.4639988
  60.0930012  41.9924997 120.9179988  60.2179721  42.2747084 120.1046843
  64.9850012  38.4314997 119.0529988  65.6970012  37.7914997 119.0389988
  64.8840012  38.6984997 118.1399988  65.0688066  38.3800079 118.9275677
  65.3390012  40.1144997 121.1069988  65.2070012  39.6384997 120.2869988
  64.7400012  40.8584997 121.0519988  65.2399071  40.1499618 120.9872886
  58.4540012  51.6334997 103.7659988  59.3680012  51.7124997 104.0399988
  58.4610012  50.9464997 103.0999988  58.5801131  51.5513961 103.7134393
  57.1030012  57.0264997 108.8439988  56.4560012  56.5644997 108.3109988
  57.4570012  56.3544997 109.4259988  57.0623849  56.8724723 108.8497959
  57.9730012  55.1074997 110.6479988  57.6380012  54.2274997 110.8199988
  58.1950012  55.4524997 111.5129988  57.9571783  55.0337500 110.7884208
  75.5210012  55.9164997 113.6289988  75.5000012  56.1014997 114.5679988
  76.2120012  56.4854997 113.2879988  75.6114618  56.0186606 113.7113864
  75.0850012  55.4844997 116.5509988  74.5970012  54.7484997 116.1789988
  75.6340012  55.0904997 117.2289988  75.0924820  55.3305889 116.5917813
  73.5350012  51.2734997 121.1889988  72.6690012  51.1684997 121.5829988
  73.9120012  52.0324997 121.6349988  73.4673308  51.3616900 121.3032393
  74.8360012  49.5304997 106.7029988  75.6860012  49.9514997 106.8299988
  74.8420012  48.7904997 107.3099988  74.9531372  49.4880803 106.8024344
  75.2310012  47.5834997 108.5259988  74.5040012  47.1044997 108.9239988
  75.8120012  47.7894997 109.2589988  75.2100473  47.5458103 108.6794528
  74.9900012  50.3684997 113.4739988  75.8230012  49.9904997 113.1939988
  75.1020012  51.3114997 113.3549988  75.1192647  50.4442218 113.4195487
  73.4760012  53.2464997 115.7809988  72.8290012  53.5714997 116.4069988
  72.9590012  52.8064997 115.1069988  73.3174029  53.2315004 115.7755827
  73.0170012  46.1044997 109.0889988  72.8670012  45.1594997 109.0689988
  72.6640012  46.3854997 109.9329988  72.9487448  46.0131481 109.2003705
  58.0530012  48.1824997 113.0999988  58.2370012  48.1004997 112.1639988
  58.9020012  48.0584997 113.5229988  58.1930151  48.1545073 113.0291451
  73.8740012  48.0744997 118.7279988  74.4570012  47.3404997 118.9199988
  74.4380012  48.8464997 118.7749988  74.0299769  48.0784227 118.7606159
  75.3700012  45.9774997 119.4129988  74.5070012  45.5984997 119.2469988
  75.9750012  45.2384997 119.3379988  75.3336119  45.8258268 119.3801528
  72.7280012  43.6874997 107.5519988  73.0080012  42.7804997 107.6759988
  73.4870012  44.1214997 107.1629988  72.8689277  43.6220942 107.5163682
  73.3400012  44.2684997 112.9879988  74.2730012  44.4804997 112.9529988
  73.1050012  44.3704997 113.9099988  73.4359244  44.3113100 113.1078892
  73.3690012  45.0054997 115.7639988  72.5260012  45.2734997 116.1299988
  73.8110012  45.8274997 115.5529988  73.3134158  45.1533291 115.7855491
  57.6500012  43.4534997 119.2409988  58.5700012  43.3314997 119.4769988
  57.2010012  42.7034997 119.6299988  57.7151580  43.3353727 119.3259006
  75.6520012  38.9854997 121.1169988  76.0020012  38.3314997 120.5119988
  75.7990012  39.8224997 120.6769988  75.7197887  39.0091548 120.9746858
  73.3410012  40.9504997 107.5999988  73.5240012  40.5014997 108.4259988
  72.7420012  40.3654997 107.1369988  73.2850202  40.8099975 107.6503275
  58.8710012  41.7654997 112.1319988  59.3170012  40.9734997 112.4339988
  59.3380012  42.4814997 112.5619988  58.9950831  41.7540685 112.2314006
  57.1750012  44.7644997 113.2009988  57.6670012  44.5434997 112.4099988
  57.5380012  45.6054997 113.4819988  57.2913126  44.8478357 113.1307531
  75.1720012  41.0944997 119.4659988  74.2540012  41.3654997 119.4309988
  75.2950012  40.5594997 118.6819988  75.0629729  41.0592508 119.3551923
  75.2080012  41.0174997 104.1279988  75.6200012  40.2964997 103.6529988
  75.8900012  41.6874997 104.1869988  75.3565885  41.0092368 104.0708915
  57.4890012  41.0224997 107.2549988  56.5640012  41.2314997 107.1259988
  57.9430012  41.5064997 106.5649988  57.4237292  41.1165343 107.1440720
  57.4530012  39.7604997 115.5989988  56.7880012  39.5144997 116.2429988
  57.0100012  40.3824997 115.0219988  57.3021318  39.8109410 115.6090898
  59.6450012  52.9354997 119.7439988  58.8240012  53.1104997 119.2829988
  59.3920012  52.8624997 120.6639988  59.4985585  52.9495544 119.8053561
  62.5990012  53.9104997 116.0019988  62.1740012  54.7194997 115.7199988
  63.5030012  53.9954997 115.6999988  62.6629975  54.0329300 115.9224816
  66.9100012  55.3094997 118.9619988  67.0950012  54.9754997 119.8399988
  67.7560012  55.6184997 118.6399988  67.0497539  55.3056047 119.0385605
  69.2550012  56.5954997 118.2059988  69.9320012  55.9624997 117.9659988
  69.5770012  56.9964997 119.0129988  69.3911637  56.5631154 118.2822793
  74.1720012  39.1844997 117.2849988  73.3600012  39.5094997 116.8979988
  74.4050012  38.4244997 116.7519988  74.0922203  39.1262758 117.1598880
  60.0010012  57.1664997 116.0499988  59.2800012  57.6064997 115.5989988
  59.6350012  56.9154997 116.8979988  59.8529651  57.1927242 116.1029640
  62.4680012  56.7664997 115.0799988  61.6030012  56.8384997 115.4839988
  62.4130012  57.3134997 114.2959988  62.3422085  56.8502685 115.0293362
  67.1780012  56.6544997 114.2549988  66.7220012  57.1834997 113.6009988
  67.3410012  57.2574997 114.9799988  67.1376068  56.8084607 114.2634838
  69.5060012  55.5324997 115.1999988  68.6010012  55.6974997 114.9339988
  69.9350012  56.3854997 115.1349988  69.4401324  55.6704339 115.1547976
  72.1100012  57.1024997 115.4949988  71.9280012  58.0184997 115.2849988
  72.2870012  56.6924997 114.6489988  72.1090210  57.1724822 115.3517885
  59.4150012  55.7894997 112.9599988  59.3970012  55.3644997 113.8169988
  60.2200012  55.4714997 112.5509988  59.5213529  55.6883013 113.0220946
  61.5570012  54.4994997 111.6149988  61.3380012  53.5834997 111.7849988
  62.3810012  54.6394997 112.0809988  61.6384420  54.3930520 111.7012774
  64.0940012  54.9694997 112.4639988  64.3070012  54.0814997 112.1769988
  64.1580012  54.9354997 113.4179988  64.1318232  54.8433102 112.5537397
  67.6020012  40.6334997 111.6079988  66.9280012  40.0044997 111.8639988
  68.1660012  40.1494997 111.0049988  67.5859230  40.4818744 111.5615340
  72.7450012  38.7414997 111.7209988  73.3490012  39.2884997 111.2189988
  71.8750012  39.0604997 111.4799988  72.7101208  38.8595137 111.6196886
  74.4720012  39.8794997 110.0539988  75.0840012  39.3654997 109.5269988
  74.8540012  40.7574997 110.0769988  74.6073371  39.9277866 109.9850041
  59.9290012  39.2674997 109.4299988  59.1520012  39.0334997 108.9229988
  60.4590012  38.4704997 109.4389988  59.8942330  39.1276988 109.3617742
  58.7650012  39.0654997 105.2339988  59.2040012  39.6764997 104.6419988
  58.1320012  39.6034997 105.7079988  58.7394514  39.2219257 105.2170930
  64.5080012  39.1944997 109.2439988  65.3830012  39.5824997 109.2139988
  64.3720012  38.9794997 110.1659988  64.6093695  39.2185184 109.3646440
  70.0650012  39.2244997 110.8929988  70.1410012  39.3194997 109.9429988
  69.7900012  38.3164997 111.0219988  70.0382321  39.1147867 110.7805079
  71.4180012  39.2504997 106.5849988  70.7160012  39.8654997 106.3749988
  70.9740012  38.4124997 106.7159988  71.2616450  39.2215639 106.5739000
  58.6660012  55.0134997 106.1309988  57.9810012  54.9754997 105.4639988
  58.6700012  55.9264997 106.4199988  58.5726998  55.1316733 106.0786771
  65.6520012  41.2744997 106.1329988  65.8300012  40.6284997 106.8159988
  65.5990012  42.1084997 106.5999988  65.6691999  41.2988009 106.2895917
  59.8870012  39.7814997 118.9479988  59.5210012  39.0164997 119.3899988
  60.8000012  39.8104997 119.2339988  59.9602736  39.6805640 119.0472502
  61.8600012  39.1324997 120.4839988  62.7580012  38.8584997 120.2989988
  61.4730012  38.3894997 120.9479988  61.9306612  38.9945914 120.5213643
  70.2810012  38.4644997 120.6659988  70.3580012  38.0384997 121.5199988
  71.1750012  38.4784997 120.3229988  70.4123428  38.4080879 120.7365310
  73.4570012  54.5374997 119.3579988  72.6750012  54.3514997 118.8379988
  73.3850012  55.4664997 119.5759988  73.3402274  54.6376643 119.3163018
  87.8630012  48.4234997 109.3889988  87.9520012  49.3674997 109.2569988
  87.2250012  48.1484997 108.7309988  87.7889081  48.5154830 109.2819614
  86.7960012  47.6784997 112.8079988  86.7580012  47.0324997 113.5129988
  86.4740012  47.2124997 112.0369988  86.7472333  47.5269408 112.8002978
  79.1650012  47.2934997 114.4009988  79.2060012  46.6674997 115.1239988
  79.8680012  47.9174997 114.5829988  79.2656363  47.2921196 114.5246044
  90.5020012  50.6174997 111.1089988  90.0620012  49.8974997 111.5599988
  90.4890012  51.3384997 111.7389988  90.4400226  50.6163731 111.2558494
  80.0880012  51.7434997 112.9359988  79.7190012  50.9414997 112.5659988
  81.0290012  51.5744997 112.9819988  80.1647289  51.6110153 112.8916316
  76.6980012  45.4034997 108.3289988  76.2510012  46.2494997 108.3099988
  76.1370012  44.8234997 107.8129988  76.5609900  45.4409916 108.2566801
  77.4090012  47.5654997 110.4539988  77.6220012  46.7954997 110.9819988
  78.1470012  47.6544997 109.8509988  77.5379044  47.4721968 110.4447123
  87.6140012  55.7224997 111.3209988  88.2340012  55.0454997 111.0479988
  87.4060012  55.5044997 112.2299988  87.6706726  55.6004800 111.4064812
  85.1860012  50.1114997 113.2139988  85.4900012  49.4254997 112.6189988
  85.9070012  50.2294997 113.8319988  85.3250671  50.0336304 113.2161816
  93.8490012  41.7124997 114.0749988  93.8980012  42.3224997 114.8099988
  94.2740012  42.1734997 113.3519988  93.9131746  41.8583796 114.0779175
  88.3270012  44.5054997 113.5409988  88.4690012  43.5594997 113.5619988
  88.2200012  44.7124997 112.6129988  88.3319919  44.4038246 113.4183408
  81.4810012  42.6064997 110.8139988  81.5250012  43.4664997 110.3949988
  81.0240012  42.0544997 110.1799988  81.4252240  42.6494422 110.6709864
  89.2040012  42.7374997 109.2149988  89.8500012  42.4084997 109.8389988
  89.7140012  43.2554997 108.5919988  89.3614299  42.7624450 109.2162731
  78.1020012  45.0034997 111.5759988  78.7550012  44.4534997 112.0079988
  78.1260012  44.7294997 110.6589988  78.1946683  44.8911466 111.5112123
  83.2580012  46.5534997 110.7909988  83.8740012  46.0274997 111.3009988
  82.6720012  45.9134997 110.3879988  83.2630810  46.3949208 110.8063173
  94.2400012  43.1904997 116.3099988  93.5520012  43.8484997 116.2149988
  94.2560012  42.9934997 117.2469988  94.1479540  43.2539819 116.4235990
  80.2920012  41.5244997 114.8879988  80.0730012  42.0544997 114.1219988
  79.6240012  41.7514997 115.5349988  80.1717600  41.6276906 114.8706379
  87.6610012  51.0244997 108.4319988  87.3650012  50.7024997 107.5809988
  87.3360012  51.9244997 108.4729988  87.5766371  51.1020215 108.3211801
  82.8610012  49.2004997 115.1749988  82.1210012  49.7984997 115.2789988
  83.5750012  49.7544997 114.8599988  82.8562237  49.3572831 115.1466465
  90.9680012  42.0284997 111.1949988  90.7520012  41.2624997 111.7279988
  91.6230012  42.5004997 111.7079988  91.0270633  41.9875889 111.3372861
  79.8850012  43.4164997 112.8399988  80.4990012  44.0494997 113.2129988
  80.3970012  42.9444997 112.1839988  80.0381981  43.4392267 112.8022908
  81.2680012  51.1644997 115.9619988  81.2630012  52.0444997 115.5839988
  80.4150012  51.0814997 116.3869988  81.1519464  51.2736117 115.9677907
  77.3890012  50.8354997 106.7439988  77.1170012  51.0644997 105.8559988
  77.4350012  51.6734997 107.2049988  77.3579482  50.9801318 106.6846273
  91.0140012  52.4574997 113.4569988  90.0730012  52.5154997 113.6189988
  91.2910012  53.3634997 113.3199988  90.9224679  52.5879443 113.4606815
  91.3150012  40.7434997 114.8749988  90.5790012  41.3544997 114.8369988
  91.9980012  41.1584997 114.3479988  91.3066541  40.8831374 114.7985832
  84.3180012  38.8304997 112.3399988  84.2010012  37.8814997 112.2859988
  83.4630012  39.1624997 112.6139988  84.1864212  38.7455571 112.3696497
  89.2660012  54.2384997 110.0819988  89.6920012  53.5314997 109.5969988
  89.5830012  55.0394997 109.6659988  89.3671683  54.2501017 109.9593680
  90.4260012  52.1394997 108.5909988  90.1680012  51.4494997 107.9799988
  90.4970012  51.6964997 109.4369988  90.4002856  51.9852124 108.6216885
  92.1120012  50.7054997 117.0679988  92.2520012  50.1144997 116.3289988
  92.2790012  51.5784997 116.7119988  92.1537411  50.7425428 116.9186894
  86.5850012  47.6674997 106.8409988  85.8730012  48.2024997 106.4889988
  87.2760012  47.7234997 106.1809988  86.5810132  47.7482543 106.7036289
  93.9540012  47.0454997 115.1339988  93.3010012  47.7404997 115.2239988
  94.4190012  47.2554997 114.3249988  93.9275274  47.1690643 115.0368462
  89.9900012  47.8774997 107.7929988  89.2580012  48.1054997 108.3659988
  90.4380012  47.1634997 108.2469988  89.9502725  47.8122145 107.9328816
  89.8880012  46.0514997 116.8599988  89.9680012  46.8144997 117.4319988
  89.2860012  46.3304997 116.1699988  89.8175756  46.1937134 116.8450589
  81.6360012  48.5074997 109.6749988  81.3050012  48.1374997 108.8569988
  82.2240012  47.8374997 110.0219988  81.6701873  48.3661156 109.6098102
  83.0020012  51.9354997 112.3559988  82.9080012  51.3574997 111.5999988
  83.7320012  51.5644997 112.8529988  83.0877387  51.8061663 112.3195342
  82.0020012  47.2764997 113.3089988  82.5680012  47.3974997 112.5459988
  82.3210012  47.9134997 113.9469988  82.1225474  47.3792219 113.2909862
  88.3110012  52.7794997 114.0429988  88.0710012  53.4414997 114.6909988
  88.1130012  51.9454997 114.4679988  88.2513808  52.7573134 114.1891524
  82.8820012  51.6754997 118.0259988  82.5710012  52.4574997 118.4809988
  82.2320012  51.5224997 117.3399988  82.7515558  51.7619105 117.9955871
  79.8020012  47.8734997 117.2539988  79.8730012  48.5244997 117.9529988
  78.9120012  47.9764997 116.9189988  79.6913005  47.9765427 117.3043495
  86.5880012  53.7764997 108.9129988  87.0620012  54.0714997 109.6899988
  86.0250012  54.5144997 108.6799988  86.5768184  53.9167247 108.9879628
  81.1220012  53.7474997 118.7889988  81.1290012  53.6114997 117.8419988
  80.2060012  53.6294997 119.0409988  80.9991714  53.7129430 118.6934666
  92.5600012  38.7894997 105.2909988  91.6600012  38.9284997 105.5859988
  92.8120012  39.6204997 104.8889988  92.4708702  38.9209074 105.2770205
  80.6260012  47.5774997 107.2639988  80.3340012  48.3454997 106.7739988
  79.9520012  46.9174997 107.1019988  80.4948111  47.5935587 107.1748978
  76.7190012  49.9404997 116.0789988  76.2180012  49.9124997 115.2639988
  76.7240012  49.0344997 116.3889988  76.6510944  49.8142396 116.0093226
  76.4690012  52.7204997 112.9629988  77.4150012  52.5764997 112.9439988
  76.3570012  53.5044997 113.4999988  76.5832727  52.8068046 113.0330072
  94.6670012  53.3864997 118.6459988  94.6180012  52.4314997 118.6089988
  93.8400012  53.6544997 119.0469988  94.5484940  53.2918998 118.6951375
  85.6460012  52.9604997 117.5219988  85.7330012  53.7864997 117.9969988
  84.7820012  52.6304997 117.7709988  85.5411964  53.0289878 117.6206549
  86.0600012  56.7324997 107.3279988  85.9850012  56.6114997 106.3809988
  86.0930012  57.6824997 107.4459988  86.0542068  56.8442646 107.2144967
  79.7130012  55.5214997 109.1089988  79.8660012  55.1734997 109.9869988
  78.8630012  55.1654997 108.8539988  79.6189166  55.4256216 109.1948079
  88.8310012  55.8124997 107.0789988  87.8950012  55.9124997 107.2579988
  89.1110012  55.1034997 107.6579988  88.7409553  55.7303406 107.1817087
  91.8190012  44.8794997 119.1259988  91.4120012  45.3604997 118.4049988
  91.8600012  43.9744997 118.8179988  91.7688437  44.8229374 118.9856683
  78.9680012  51.2634997 117.1229988  79.1840012  50.9024997 117.9819988
  78.1130012  50.8894997 116.9129988  78.8819292  51.1634111 117.2123386
  81.5870012  39.7334997 113.1179988  80.7250012  39.6464997 112.7099988
  81.5640012  40.5894997 113.5459988  81.4660409  39.8372883 113.1200589
  86.2500012  39.4554997 116.4929988  86.6700012  39.0404997 117.2459988
  85.3170012  39.2774997 116.6099988  86.1813644  39.3745900 116.6119539
  89.5760012  43.2114997 117.3459988  89.0620012  43.0854997 118.1439988
  89.4210012  44.1234997 117.1019988  89.4846852  43.3176132 117.4222158
  85.9110012  41.9484997 103.7779988  85.6580012  41.9674997 104.7009988
  85.6550012  41.0764997 103.4759988  85.8417481  41.8332558 103.8636175
  81.6780012  44.6994997 114.2129988  81.0360012  44.6584997 114.9219988
  81.7150012  45.6254997 113.9749988  81.5950664  44.8191430 114.2779219
  81.6750012  44.9204997 109.1249988  80.7820012  44.5794997 109.0659988
  82.1250012  44.5434997 108.3689988  81.6138130  44.8229631 109.0147702
  87.2100012  45.3364997 107.9419988  86.8010012  46.1514997 107.6509988
  87.9310012  45.1964997 107.3279988  87.2514537  45.4292018 107.8191342
  86.3120012  45.5114997 119.4299988  85.7500012  44.8074997 119.7509988
  87.1390012  45.3914997 119.8979988  86.3467095  45.3987883 119.5372330
  88.2150012  44.7824997 110.7559988  88.0200012  45.3874997 110.0409988
  88.3960012  43.9484997 110.3219988  88.2127614  44.7526300 110.5994405
  79.4280012  45.0194997 116.0799988  79.3900012  45.4194997 116.9489988
  78.9370012  44.2024997 116.1709988  79.3564684  44.9638069 116.2111059
  76.0360012  42.1354997 109.9309988  76.6670012  42.1064997 110.6499988
  76.4850012  41.7104997 109.1999988  76.1830918  42.0740836 109.9306441
  87.4790012  46.4204997 115.4269988  87.8020012  45.7894997 114.7839988
  87.0390012  45.8854997 116.0879988  87.4637484  46.2618387 115.4283198
  84.2560012  42.3474997 110.2109988  83.3450012  42.4044997 110.4999988
  84.7620012  42.2874997 111.0219988  84.1996899  42.3471941 110.3601184
  79.0850012  43.9764997 109.0379988  78.1950012  44.0764997 108.6979988
  79.3810012  43.1344997 108.6919988  79.0032823  43.8763545 108.9447213
  82.7380012  43.9764997 106.6949988  83.6690012  44.1054997 106.8729988
  82.5230012  44.6464997 106.0449988  82.8364247  44.0846565 106.6315747
  88.6610012  41.5824997 113.4759988  87.9850012  41.7134997 114.1399988
  88.1760012  41.4274997 112.6649988  88.5027146  41.5795157 113.4574469
  81.4120012  45.1714997 104.2609988  80.8690012  44.7914997 103.5699988
  82.2450012  45.3654997 103.8329988  81.4503631  45.1457125 104.1084501
  91.9490012  57.2544997 119.7519988  92.1490012  57.6784997 118.9179988
  92.6040012  57.5974997 120.3589988  92.0650072  57.3589857 119.7198592
  79.5470012  49.7284997 119.3599988  80.2790012  49.9824997 119.9219988
  78.7670012  49.9324997 119.8759988  79.5417073  49.7908160 119.5066151
  85.5760012  45.1354997 112.0979988  86.1410012  44.5884997 111.5509988
  85.4290012  44.6134997 112.8869988  85.6333380  44.9902259 112.1298695
  80.5780012  41.2714997 108.5169988  80.2610012  40.3694997 108.4809988
  81.3600012  41.2734997 107.9639988  80.6402408  41.1482474 108.4373569
  84.2030012  43.5234997 114.5119988  83.3670012  43.9774997 114.6229988
  84.7270012  43.7994997 115.2639988  84.1595416  43.6228660 114.6288119
  84.7470012  49.7364997 106.1969988  84.0020012  49.2294997 105.8749988
  84.6130012  49.7854997 107.1439988  84.6268776  49.6736940 106.2808647
  91.8970012  48.8694997 114.9839988  92.5390012  49.3264997 114.4399988
  91.0670012  48.9824997 114.5209988  91.8725963  48.9472704 114.8470177
  88.6450012  42.5504997 104.3959988  87.7060012  42.6624997 104.2449988
  88.9420012  43.4074997 104.7029988  88.5567583  42.6815981 104.4168337
  86.2660012  49.9204997 117.4339988  85.9210012  49.5394997 118.2409988
  86.0660012  50.8544997 117.5049988  86.1917527  49.9945135 117.5540689
  89.3630012  44.4174997 106.0569988  90.2550012  44.2804997 106.3759988
  89.4200012  45.2084997 105.5199988  89.4926504  44.5056052 106.0280818
  79.8720012  49.0314997 111.9669988  80.6170012  49.0294997 111.3659988
  79.9500012  48.2084997 112.4479988  79.9844995  48.9198887 111.9498282
  86.8730012  51.1954997 105.2229988  86.5770012  52.0214997 105.6039988
  86.1700012  50.5754997 105.4189988  86.7374914  51.2248199 105.3016443
  76.8800012  47.4924997 117.2819988  77.1030012  47.0744997 118.1139988
  76.2780012  46.8794997 116.8589988  76.8291759  47.3524668 117.3387022
  83.8960012  47.0094997 119.4949988  83.6000012  46.8434997 118.5999988
  84.8280012  46.7894997 119.4839988  83.9814166  46.9570640 119.3710536
  88.5170012  52.3824997 117.3849988  87.6160012  52.5654997 117.1169988
  88.5510012  52.6414997 118.3049988  88.3983139  52.4425849 117.4728099
  94.2480012  44.6274997 105.7519988  93.6940012  44.2314997 105.0799988
  94.3480012  45.5374997 105.4739988  94.1857059  44.6963586 105.6224401
  94.2110012  50.4274997 118.5889988  93.3600012  50.6654997 118.2219988
  94.8020012  50.4104997 117.8359988  94.1742487  50.4578258 118.4368893
  92.5430012  53.4134997 106.2169988  92.1700012  52.5874997 106.5259988
  92.8210012  53.2304997 105.3189988  92.5295222  53.2757430 106.1379473
  89.7040012  48.2214997 113.2379988  88.7750012  47.9894997 113.2109988
  90.1550012  47.4444997 112.9079988  89.6379216  48.0847238 113.1896917
  82.2470012  52.5494997 109.3709988  82.7740012  53.3224997 109.1709988
  81.3670012  52.7744997 109.0689988  82.2002031  52.6857545 109.3027912
  83.6740012  50.2124997 108.9469988  83.4330012  51.1374997 108.9889988
  82.9330012  49.7534997 109.3439988  83.5409225  50.2770933 109.0063742
  84.1890012  54.3614997 115.2629988  84.5510012  55.2164997 115.0289988
  84.7200012  54.0694997 116.0029988  84.3104473  54.4391060 115.3310855
  82.3570012  55.2344997 108.4929988  81.4070012  55.3394997 108.5439988
  82.7090012  56.0544997 108.8369988  82.2744195  55.3598800 108.5465502
  87.7330012  50.4604997 114.9629988  87.3070012  50.2334997 115.7899988
  88.3130012  49.7224997 114.7809988  87.7531868  50.3295299 115.0515830
  89.9360012  51.3894997 104.0369988  90.2890012  51.0094997 104.8409988
  88.9870012  51.2964997 104.1239988  89.8560918  51.3248956 104.1588532
  90.3910012  55.0124997 117.4329988  89.7900012  54.4574997 116.9369988
  90.6730012  55.6794997 116.8059988  90.3468804  55.0266625 117.2804849
  78.5140012  42.2454997 116.8399988  77.6210012  42.5844997 116.7719988
  78.4150012  41.3904997 117.2579988  78.3784164  42.1762588 116.8872235
  90.8020012  50.0624997 106.2639988  90.5240012  49.3344997 106.8199988
  91.7290012  50.1814997 106.4689988  90.8893124  49.9788802 106.3678845
  78.1650012  54.0504997 115.2749988  78.3820012  53.1184997 115.2439988
  78.4110012  54.3244997 116.1579988  78.2279549  53.9600636 115.3901763
  82.9640012  52.0714997 104.9399988  83.1100012  51.5514997 105.7299988
  82.9610012  52.9784997 105.2469988  82.9835792  52.1228842 105.0896117
  79.4170012  49.3244997 105.4509988  78.7310012  49.6764997 106.0179988
  79.9390012  50.0874997 105.2039988  79.3936852  49.4758578 105.4952118
  87.2480012  41.9864997 115.7299988  87.9470012  42.0604997 116.3799988
  86.8670012  41.1224997 115.8839988  87.2921767  41.8797624 115.8398322
  88.0330012  41.6384997 106.8269988  88.2530012  42.1104997 106.0239988
  88.5910012  42.0334997 107.4969988  88.1384968  41.7564285 106.8077331
  85.7010012  53.7694997 105.6899988  84.8850012  54.2664997 105.7419988
  86.2310012  54.2444997 105.0499988  85.6609161  53.9017722 105.6105956
  85.2330012  43.3664997 107.6619988  86.0450012  43.8714997 107.7079988
  84.9880012  43.2214997 108.5759988  85.3110520  43.4160375 107.7918517
  85.7680012  44.3524997 116.8459988  85.8870012  44.9264997 117.6039988
  86.4240012  43.6644997 116.9609988  85.8729025  44.3379858 116.9651321
  86.1160012  40.4474997 108.5999988  85.7700012  41.0654997 109.2439988
  86.7750012  40.9484997 108.1179988  86.1576968  40.5996278 108.6229383
  83.0400012  54.8134997 105.6709988  83.2000012  55.6124997 105.1709988
  82.8420012  55.1194997 106.5559988  83.0351637  54.9644020 105.7221144
  91.9730012  42.2594997 117.6809988  91.0560012  42.5224997 117.5939988
  92.3080012  42.2564997 116.7849988  91.8928613  42.2950761 117.5478837
  90.5750012  46.0104997 111.7769988  89.7770012  45.5954997 111.4489988
  91.0200012  45.3194997 112.2679988  90.5259885  45.8603543 111.7984889
  80.0330012  51.9384997 104.3479988  80.6250012  52.6374997 104.6239988
  80.4920012  51.5054997 103.6279988  80.1761142  51.9757049 104.2884830
  78.3490012  44.6024997 103.4639988  78.3040012  45.5414997 103.6419988
  77.4610012  44.3664997 103.1939988  78.2228574  44.6991892 103.4518912
  91.6610012  55.2664997 113.3999988  91.5060012  55.9444997 112.7419988
  92.5940012  55.3384997 113.6029988  91.7658657  55.3689546 113.3374360
  79.1570012  39.3844997 112.1369988  78.9280012  39.4434997 111.2089988
  78.7140012  38.5924997 112.4429988  79.0658530  39.2855753 112.0514786
  78.0870012  53.3244997 108.2969988  77.2550012  53.7974997 108.3239988
  78.6330012  53.8344997 107.6989988  78.0470352  53.4581332 108.2198463
  77.3750012  55.9374997 119.6269988  77.9160012  55.7204997 120.3869988
  76.8940012  55.1314997 119.4369988  77.3839951  55.7989270 119.7052576
  81.9730012  54.8564997 121.2469988  82.7400012  54.3974997 121.5879988
  81.9510012  54.6304997 120.3179988  82.0751275  54.7630186 121.1680101
  88.5500012  53.2364997 119.9769988  88.1990012  52.3804997 120.2199988
  89.2760012  53.3794997 120.5839988  88.6000769  53.1385636 120.0923619
  77.2820012  49.7474997 120.5809988  77.4260012  48.8454997 120.2949988
  76.5100012  50.0334997 120.0939988  77.1972753  49.6626816 120.4759505
  83.9380012  49.7174997 120.0139988  83.6090012  49.9884997 119.1569988
  84.0900012  48.7764997 119.9269988  83.9134809  49.6273862 119.8848244
  86.9760012  51.1384997 102.4499988  86.7070012  51.3184997 103.3509988
  86.7700012  50.2124997 102.3179988  86.9113427  51.0380261 102.5555073
  89.6720012  49.6334997 117.3969988  90.4180012  50.2214997 117.2779988
  88.9150012  50.2154997 117.4609988  89.6717820  49.7927143 117.3893590
  78.1150012  46.9474997 120.0009988  78.5230012  46.0904997 119.8799988
  77.8550012  46.9624997 120.9219988  78.1357568  46.8320807 120.1089588
  82.7730012  48.0634997 105.0199988  82.3130012  47.5794997 105.7059988
  83.0280012  47.3954997 104.3839988  82.7444902  47.9068731 105.0279334
  82.0620012  45.9564997 117.3759988  81.4440012  46.6314997 117.6559988
  82.4060012  46.2774997 116.5419988  82.0239132  46.0922411 117.3016262
  87.0820012  48.4284997 120.6529988  88.0350012  48.5114997 120.6259988
  86.9210012  47.7164997 121.2729988  87.1906426  48.3436746 120.7330579
  82.4010012  43.3114997 118.4579988  82.5510012  42.5824997 117.8559988
  82.4040012  44.0884997 117.8989988  82.4219302  43.3167851 118.3000692
  82.8140012  41.6814997 115.9509988  83.3500012  42.1324997 115.2989988
  81.9620012  41.5734997 115.5279988  82.7722178  41.7286390 115.8045756
  84.3960012  47.1204997 116.1899988  85.1460012  46.9644997 115.6169988
  84.0570012  47.9724997 115.9149988  84.4528921  47.2142968 116.0743561
  88.8110012  44.9354997 121.2189988  89.0040012  44.0044997 121.1069988
  89.6690012  45.3604997 121.2079988  88.9532934  44.8656531 121.2022031
  90.1280012  47.7244997 119.2959988  89.8470012  48.4334997 118.7179988
  91.0710012  47.6514997 119.1449988  90.2169291  47.8116711 119.1964967
  80.8800012  44.5094997 120.3699988  80.1130012  43.9774997 120.1589988
  81.5590012  44.1994997 119.7699988  80.8667877  44.3948300 120.2600716
  83.6200012  39.1374997 116.3819988  83.5210012  40.0844997 116.2769988
  82.8770012  38.7654997 115.9059988  83.5061184  39.2165863 116.3033621
  84.8840012  43.4594997 119.9459988  84.6480012  43.2394997 120.8469988
  84.1000012  43.2524997 119.4359988  84.7458504  43.4014586 120.0003431
  87.5990012  42.5864997 119.0209988  86.6520012  42.6184997 119.1539988
  87.9120012  41.9614997 119.6749988  87.5116707  42.5063998 119.1276060
  89.2330012  41.2204997 121.0269988  89.1370012  40.2684997 121.0209988
  88.9120012  41.4894997 121.8869988  89.1764070  41.1264035 121.1425441
  79.0600012  42.4304997 120.0739988  79.2720012  41.7234997 119.4639988
  78.9490012  41.9924997 120.9179988  79.0739721  42.2747084 120.1046843
  83.8410012  38.4314997 119.0529988  84.5530012  37.7914997 119.0389988
  83.7400012  38.6984997 118.1399988  83.9248066  38.3800079 118.9275677
  84.1950012  40.1144997 121.1069988  84.0630012  39.6384997 120.2869988
  83.5960012  40.8584997 121.0519988  84.0959071  40.1499618 120.9872886
  75.9590012  57.0264997 108.8439988  75.3120012  56.5644997 108.3109988
  76.3130012  56.3544997 109.4259988  75.9183849  56.8724723 108.8497959
  76.8290012  55.1074997 110.6479988  76.4940012  54.2274997 110.8199988
  77.0510012  55.4524997 111.5129988  76.8131783  55.0337500 110.7884208
  94.3770012  55.9164997 113.6289988  94.3560012  56.1014997 114.5679988
  95.0680012  56.4854997 113.2879988  94.4674618  56.0186606 113.7113864
  93.9410012  55.4844997 116.5509988  93.4530012  54.7484997 116.1789988
  94.4900012  55.0904997 117.2289988  93.9484820  55.3305889 116.5917813
  92.3910012  51.2734997 121.1889988  91.5250012  51.1684997 121.5829988
  92.7680012  52.0324997 121.6349988  92.3233308  51.3616900 121.3032393
  93.6920012  49.5304997 106.7029988  94.5420012  49.9514997 106.8299988
  93.6980012  48.7904997 107.3099988  93.8091372  49.4880803 106.8024344
  94.0870012  47.5834997 108.5259988  93.3600012  47.1044997 108.9239988
  94.6680012  47.7894997 109.2589988  94.0660473  47.5458103 108.6794528
  93.8460012  50.3684997 113.4739988  94.6790012  49.9904997 113.1939988
  93.9580012  51.3114997 113.3549988  93.9752647  50.4442218 113.4195487
  92.3320012  53.2464997 115.7809988  91.6850012  53.5714997 116.4069988
  91.8150012  52.8064997 115.1069988  92.1734029  53.2315004 115.7755827
  94.3550012  47.4844997 104.9179988  93.8330012  47.8414997 104.1989988
  94.3220012  48.1594997 105.5959988  94.2791634  47.6245413 104.9113145
  91.8730012  46.1044997 109.0889988  91.7230012  45.1594997 109.0689988
  91.5200012  46.3854997 109.9329988  91.8047448  46.0131481 109.2003705
  76.9090012  48.1824997 113.0999988  77.0930012  48.1004997 112.1639988
  77.7580012  48.0584997 113.5229988  77.0490151  48.1545073 113.0291451
  92.7300012  48.0744997 118.7279988  93.3130012  47.3404997 118.9199988
  93.2940012  48.8464997 118.7749988  92.8859769  48.0784227 118.7606159
  94.2260012  45.9774997 119.4129988  93.3630012  45.5984997 119.2469988
  94.8310012  45.2384997 119.3379988  94.1896119  45.8258268 119.3801528
  91.5840012  43.6874997 107.5519988  91.8640012  42.7804997 107.6759988
  92.3430012  44.1214997 107.1629988  91.7249277  43.6220942 107.5163682
  92.1960012  44.2684997 112.9879988  93.1290012  44.4804997 112.9529988
  91.9610012  44.3704997 113.9099988  92.2919244  44.3113100 113.1078892
  92.2250012  45.0054997 115.7639988  91.3820012  45.2734997 116.1299988
  92.6670012  45.8274997 115.5529988  92.1694158  45.1533291 115.7855491
  76.5060012  43.4534997 119.2409988  77.4260012  43.3314997 119.4769988
  76.0570012  42.7034997 119.6299988  76.5711580  43.3353727 119.3259006
  94.5080012  38.9854997 121.1169988  94.8580012  38.3314997 120.5119988
  94.6550012  39.8224997 120.6769988  94.5757887  39.0091548 120.9746858
  92.1970012  40.9504997 107.5999988  92.3800012  40.5014997 108.4259988
  91.5980012  40.3654997 107.1369988  92.1410202  40.8099975 107.6503275
  77.7270012  41.7654997 112.1319988  78.1730012  40.9734997 112.4339988
  78.1940012  42.4814997 112.5619988  77.8510831  41.7540685 112.2314006
  76.0310012  44.7644997 113.2009988  76.5230012  44.5434997 112.4099988
  76.3940012  45.6054997 113.4819988  76.1473126  44.8478357 113.1307531
  94.0280012  41.0944997 119.4659988  93.1100012  41.3654997 119.4309988
  94.1510012  40.5594997 118.6819988  93.9189729  41.0592508 119.3551923
  76.3450012  41.0224997 107.2549988  75.4200012  41.2314997 107.1259988
  76.7990012  41.5064997 106.5649988  76.2797292  41.1165343 107.1440720
  91.1160012  56.0064997 109.2009988  91.7680012  55.6594997 108.5929988
  91.6260012  56.4954997 109.8469988  91.2742637  56.0250597 109.2050236
  76.3090012  39.7604997 115.5989988  75.6440012  39.5144997 116.2429988
  75.8660012  40.3824997 115.0219988  76.1581318  39.8109410 115.6090898
  78.5010012  52.9354997 119.7439988  77.6800012  53.1104997 119.2829988
  78.2480012  52.8624997 120.6639988  78.3545585  52.9495544 119.8053561
  81.4550012  53.9104997 116.0019988  81.0300012  54.7194997 115.7199988
  82.3590012  53.9954997 115.6999988  81.5189975  54.0329300 115.9224816
  85.7660012  55.3094997 118.9619988  85.9510012  54.9754997 119.8399988
  86.6120012  55.6184997 118.6399988  85.9057539  55.3056047 119.0385605
  88.1110012  56.5954997 118.2059988  88.7880012  55.9624997 117.9659988
  88.4330012  56.9964997 119.0129988  88.2471637  56.5631154 118.2822793
  93.0280012  39.1844997 117.2849988  92.2160012  39.5094997 116.8979988
  93.2610012  38.4244997 116.7519988  92.9482203  39.1262758 117.1598880
  78.8570012  57.1664997 116.0499988  78.1360012  57.6064997 115.5989988
  78.4910012  56.9154997 116.8979988  78.7089651  57.1927242 116.1029640
  81.3240012  56.7664997 115.0799988  80.4590012  56.8384997 115.4839988
  81.2690012  57.3134997 114.2959988  81.1982085  56.8502685 115.0293362
  86.0340012  56.6544997 114.2549988  85.5780012  57.1834997 113.6009988
  86.1970012  57.2574997 114.9799988  85.9936068  56.8084607 114.2634838
  88.3620012  55.5324997 115.1999988  87.4570012  55.6974997 114.9339988
  88.7910012  56.3854997 115.1349988  88.2961324  55.6704339 115.1547976
  90.9660012  57.1024997 115.4949988  90.7840012  58.0184997 115.2849988
  91.1430012  56.6924997 114.6489988  90.9650210  57.1724822 115.3517885
  78.2710012  55.7894997 112.9599988  78.2530012  55.3644997 113.8169988
  79.0760012  55.4714997 112.5509988  78.3773529  55.6883013 113.0220946
  80.4130012  54.4994997 111.6149988  80.1940012  53.5834997 111.7849988
  81.2370012  54.6394997 112.0809988  80.4944420  54.3930520 111.7012774
  82.9500012  54.9694997 112.4639988  83.1630012  54.0814997 112.1769988
  83.0140012  54.9354997 113.4179988  82.9878232  54.8433102 112.5537397
  86.4580012  40.6334997 111.6079988  85.7840012  40.0044997 111.8639988
  87.0220012  40.1494997 111.0049988  86.4419230  40.4818744 111.5615340
  91.6010012  38.7414997 111.7209988  92.2050012  39.2884997 111.2189988
  90.7310012  39.0604997 111.4799988  91.5661208  38.8595137 111.6196886
  93.3280012  39.8794997 110.0539988  93.9400012  39.3654997 109.5269988
  93.7100012  40.7574997 110.0769988  93.4633371  39.9277866 109.9850041
  78.7850012  39.2674997 109.4299988  78.0080012  39.0334997 108.9229988
  79.3150012  38.4704997 109.4389988  78.7502330  39.1276988 109.3617742
  77.6210012  39.0654997 105.2339988  78.0600012  39.6764997 104.6419988
  76.9880012  39.6034997 105.7079988  77.5954514  39.2219257 105.2170930
  83.3640012  39.1944997 109.2439988  84.2390012  39.5824997 109.2139988
  83.2280012  38.9794997 110.1659988  83.4653695  39.2185184 109.3646440
  88.9210012  39.2244997 110.8929988  88.9970012  39.3194997 109.9429988
  88.6460012  38.3164997 111.0219988  88.8942321  39.1147867 110.7805079
  90.2740012  39.2504997 106.5849988  89.5720012  39.8654997 106.3749988
  89.8300012  38.4124997 106.7159988  90.1176450  39.2215639 106.5739000
  77.5220012  55.0134997 106.1309988  76.8370012  54.9754997 105.4639988
  77.5260012  55.9264997 106.4199988  77.4286998  55.1316733 106.0786771
  84.5080012  41.2744997 106.1329988  84.6860012  40.6284997 106.8159988
  84.4550012  42.1084997 106.5999988  84.5251999  41.2988009 106.2895917
  93.0960012  55.7864997 107.2079988  92.9010012  55.0384997 106.6429988
  93.0570012  56.5444997 106.6249988  93.0640380  55.7866099 107.0518384
  78.7430012  39.7814997 118.9479988  78.3770012  39.0164997 119.3899988
  79.6560012  39.8104997 119.2339988  78.8162736  39.6805640 119.0472502
  80.7160012  39.1324997 120.4839988  81.6140012  38.8584997 120.2989988
  80.3290012  38.3894997 120.9479988  80.7866612  38.9945914 120.5213643
  79.3400012  55.9334997 103.1569988  79.0730012  56.2204997 104.0299988
  80.1120012  55.3874997 103.3089988  79.4077488  55.8990294 103.2971050
  89.1370012  38.4644997 120.6659988  89.2140012  38.0384997 121.5199988
  90.0310012  38.4784997 120.3229988  89.2683428  38.4080879 120.7365310
  92.3130012  54.5374997 119.3579988  91.5310012  54.3514997 118.8379988
  92.2410012  55.4664997 119.5759988  92.1962274  54.6376643 119.3163018
 106.7190012  48.4234997 109.3889988 106.8080012  49.3674997 109.2569988
 106.0810012  48.1484997 108.7309988 106.6449081  48.5154830 109.2819614
 105.6520012  47.6784997 112.8079988 105.6140012  47.0324997 113.5129988
 105.3300012  47.2124997 112.0369988 105.6032333  47.5269408 112.8002978
  98.0210012  47.2934997 114.4009988  98.0620012  46.6674997 115.1239988
  98.7240012  47.9174997 114.5829988  98.1216363  47.2921196 114.5246044
 109.3580012  50.6174997 111.1089988 108.9180012  49.8974997 111.5599988
 109.3450012  51.3384997 111.7389988 109.2960226  50.6163731 111.2558494
  98.9440012  51.7434997 112.9359988  98.5750012  50.9414997 112.5659988
  99.8850012  51.5744997 112.9819988  99.0207289  51.6110153 112.8916316
  95.5540012  45.4034997 108.3289988  95.1070012  46.2494997 108.3099988
  94.9930012  44.8234997 107.8129988  95.4169900  45.4409916 108.2566801
  96.2650012  47.5654997 110.4539988  96.4780012  46.7954997 110.9819988
  97.0030012  47.6544997 109.8509988  96.3939044  47.4721968 110.4447123
 106.4700012  55.7224997 111.3209988 107.0900012  55.0454997 111.0479988
 106.2620012  55.5044997 112.2299988 106.5266726  55.6004800 111.4064812
 104.0420012  50.1114997 113.2139988 104.3460012  49.4254997 112.6189988
 104.7630012  50.2294997 113.8319988 104.1810671  50.0336305 113.2161816
 112.7050012  41.7124997 114.0749988 112.7540012  42.3224997 114.8099988
 113.1300012  42.1734997 113.3519988 112.7691746  41.8583796 114.0779175
 107.1830012  44.5054997 113.5409988 107.3250012  43.5594997 113.5619988
 107.0760012  44.7124997 112.6129988 107.1879919  44.4038246 113.4183408
 100.3370012  42.6064997 110.8139988 100.3810012  43.4664997 110.3949988
  99.8800012  42.0544997 110.1799988 100.2812240  42.6494422 110.6709864
 108.0600012  42.7374997 109.2149988 108.7060012  42.4084997 109.8389988
 108.5700012  43.2554997 108.5919988 108.2174299  42.7624450 109.2162731
  96.9580012  45.0034997 111.5759988  97.6110012  44.4534997 112.0079988
  96.9820012  44.7294997 110.6589988  97.0506683  44.8911466 111.5112123
 102.1140012  46.5534997 110.7909988 102.7300012  46.0274997 111.3009988
 101.5280012  45.9134997 110.3879988 102.1190810  46.3949208 110.8063173
 113.0960012  43.1904997 116.3099988 112.4080012  43.8484997 116.2149988
 113.1120012  42.9934997 117.2469988 113.0039540  43.2539819 116.4235990
  99.1480012  41.5244997 114.8879988  98.9290012  42.0544997 114.1219988
  98.4800012  41.7514997 115.5349988  99.0277600  41.6276906 114.8706379
 106.5170012  51.0244997 108.4319988 106.2210012  50.7024997 107.5809988
 106.1920012  51.9244997 108.4729988 106.4326371  51.1020215 108.3211801
 101.7170012  49.2004997 115.1749988 100.9770012  49.7984997 115.2789988
 102.4310012  49.7544997 114.8599988 101.7122237  49.3572831 115.1466465
 109.8240012  42.0284997 111.1949988 109.6080012  41.2624997 111.7279988
 110.4790012  42.5004997 111.7079988 109.8830632  41.9875889 111.3372861
  98.7410012  43.4164997 112.8399988  99.3550012  44.0494997 113.2129988
  99.2530012  42.9444997 112.1839988  98.8941981  43.4392267 112.8022908
 100.1240012  51.1644997 115.9619988 100.1190012  52.0444997 115.5839988
  99.2710012  51.0814997 116.3869988 100.0079464  51.2736117 115.9677907
  96.2450012  50.8354997 106.7439988  95.9730012  51.0644997 105.8559988
  96.2910012  51.6734997 107.2049988  96.2139482  50.9801318 106.6846273
 109.8700012  52.4574997 113.4569988 108.9290012  52.5154997 113.6189988
 110.1470012  53.3634997 113.3199988 109.7784679  52.5879443 113.4606815
 110.1710012  40.7434997 114.8749988 109.4350012  41.3544997 114.8369988
 110.8540012  41.1584997 114.3479988 110.1626541  40.8831374 114.7985832
 103.1740012  38.8304997 112.3399988 103.0570012  37.8814997 112.2859988
 102.3190012  39.1624997 112.6139988 103.0424212  38.7455571 112.3696497
 108.1220012  54.2384997 110.0819988 108.5480012  53.5314997 109.5969988
 108.4390012  55.0394997 109.6659988 108.2231683  54.2501017 109.9593680
 109.2820012  52.1394997 108.5909988 109.0240012  51.4494997 107.9799988
 109.3530012  51.6964997 109.4369988 109.2562856  51.9852124 108.6216885
 110.9680012  50.7054997 117.0679988 111.1080012  50.1144997 116.3289988
 111.1350012  51.5784997 116.7119988 111.0097411  50.7425428 116.9186894
 105.4410012  47.6674997 106.8409988 104.7290012  48.2024997 106.4889988
 106.1320012  47.7234997 106.1809988 105.4370132  47.7482543 106.7036289
 112.8100012  47.0454997 115.1339988 112.1570012  47.7404997 115.2239988
 113.2750012  47.2554997 114.3249988 112.7835274  47.1690643 115.0368462
 108.8460012  47.8774997 107.7929988 108.1140012  48.1054997 108.3659988
 109.2940012  47.1634997 108.2469988 108.8062725  47.8122145 107.9328816
 108.7440012  46.0514997 116.8599988 108.8240012  46.8144997 117.4319988
 108.1420012  46.3304997 116.1699988 108.6735756  46.1937134 116.8450589
 100.4920012  48.5074997 109.6749988 100.1610012  48.1374997 108.8569988
 101.0800012  47.8374997 110.0219988 100.5261873  48.3661156 109.6098102
 101.8580012  51.9354997 112.3559988 101.7640012  51.3574997 111.5999988
 102.5880012  51.5644997 112.8529988 101.9437387  51.8061663 112.3195342
 100.8580012  47.2764997 113.3089988 101.4240012  47.3974997 112.5459988
 101.1770012  47.9134997 113.9469988 100.9785474  47.3792219 113.2909862
 107.1670012  52.7794997 114.0429988 106.9270012  53.4414997 114.6909988
 106.9690012  51.9454997 114.4679988 107.1073808  52.7573134 114.1891524
 101.7380012  51.6754997 118.0259988 101.4270012  52.4574997 118.4809988
 101.0880012  51.5224997 117.3399988 101.6075558  51.7619105 117.9955871
  98.6580012  47.8734997 117.2539988  98.7290012  48.5244997 117.9529988
  97.7680012  47.9764997 116.9189988  98.5473005  47.9765427 117.3043495
 105.4440012  53.7764997 108.9129988 105.9180012  54.0714997 109.6899988
 104.8810012  54.5144997 108.6799988 105.4328184  53.9167247 108.9879628
  99.9780012  53.7474997 118.7889988  99.9850012  53.6114997 117.8419988
  99.0620012  53.6294997 119.0409988  99.8551714  53.7129430 118.6934666
  99.4820012  47.5774997 107.2639988  99.1900012  48.3454997 106.7739988
  98.8080012  46.9174997 107.1019988  99.3508111  47.5935587 107.1748978
 112.6050012  53.1554997 103.6669988 112.6790012  54.0944997 103.8379988
 113.5110012  52.8504997 103.6109988 112.7375100  53.2426722 103.6828119
  95.5750012  49.9404997 116.0789988  95.0740012  49.9124997 115.2639988
  95.5800012  49.0344997 116.3889988  95.5070944  49.8142396 116.0093226
  95.3250012  52.7204997 112.9629988  96.2710012  52.5764997 112.9439988
  95.2130012  53.5044997 113.4999988  95.4392727  52.8068046 113.0330072
 113.5230012  53.3864997 118.6459988 113.4740012  52.4314997 118.6089988
 112.6960012  53.6544997 119.0469988 113.4044940  53.2918998 118.6951375
 104.5020012  52.9604997 117.5219988 104.5890012  53.7864997 117.9969988
 103.6380012  52.6304997 117.7709988 104.3971964  53.0289878 117.6206549
 104.9160012  56.7324997 107.3279988 104.8410012  56.6114997 106.3809988
 104.9490012  57.6824997 107.4459988 104.9102068  56.8442646 107.2144967
  98.5690012  55.5214997 109.1089988  98.7220012  55.1734997 109.9869988
  97.7190012  55.1654997 108.8539988  98.4749166  55.4256216 109.1948079
 108.0180012  55.8864997 104.3299988 108.3930012  55.1424997 103.8589988
 108.0220012  55.6164997 105.2489988 108.0699125  55.7480986 104.3896483
 107.6870012  55.8124997 107.0789988 106.7510012  55.9124997 107.2579988
 107.9670012  55.1034997 107.6579988 107.5969553  55.7303406 107.1817087
 110.6750012  44.8794997 119.1259988 110.2680012  45.3604997 118.4049988
 110.7160012  43.9744997 118.8179988 110.6248437  44.8229374 118.9856683
  97.8240012  51.2634997 117.1229988  98.0400012  50.9024997 117.9819988
  96.9690012  50.8894997 116.9129988  97.7379292  51.1634111 117.2123386
 100.4430012  39.7334997 113.1179988  99.5810012  39.6464997 112.7099988
 100.4200012  40.5894997 113.5459988 100.3220409  39.8372883 113.1200589
 105.1060012  39.4554997 116.4929988 105.5260012  39.0404997 117.2459988
 104.1730012  39.2774997 116.6099988 105.0373644  39.3745900 116.6119539
 108.4320012  43.2114997 117.3459988 107.9180012  43.0854997 118.1439988
 108.2770012  44.1234997 117.1019988 108.3406852  43.3176132 117.4222158
 100.5340012  44.6994997 114.2129988  99.8920012  44.6584997 114.9219988
 100.5710012  45.6254997 113.9749988 100.4510664  44.8191430 114.2779219
 100.5310012  44.9204997 109.1249988  99.6380012  44.5794997 109.0659988
 100.9810012  44.5434997 108.3689988 100.4698130  44.8229631 109.0147702
 106.0660012  45.3364997 107.9419988 105.6570012  46.1514997 107.6509988
 106.7870012  45.1964997 107.3279988 106.1074537  45.4292018 107.8191342
 105.1680012  45.5114997 119.4299988 104.6060012  44.8074997 119.7509988
 105.9950012  45.3914997 119.8979988 105.2027095  45.3987883 119.5372330
 107.0710012  44.7824997 110.7559988 106.8760012  45.3874997 110.0409988
 107.2520012  43.9484997 110.3219988 107.0687614  44.7526300 110.5994405
  98.2840012  45.0194997 116.0799988  98.2460012  45.4194997 116.9489988
  97.7930012  44.2024997 116.1709988  98.2124684  44.9638069 116.2111059
  94.8920012  42.1354997 109.9309988  95.5230012  42.1064997 110.6499988
  95.3410012  41.7104997 109.1999988  95.0390918  42.0740836 109.9306441
 106.3350012  46.4204997 115.4269988 106.6580012  45.7894997 114.7839988
 105.8950012  45.8854997 116.0879988 106.3197484  46.2618387 115.4283198
 103.1120012  42.3474997 110.2109988 102.2010012  42.4044997 110.4999988
 103.6180012  42.2874997 111.0219988 103.0556899  42.3471941 110.3601184
  97.9410012  43.9764997 109.0379988  97.0510012  44.0764997 108.6979988
  98.2370012  43.1344997 108.6919988  97.8592823  43.8763545 108.9447213
 101.5940012  43.9764997 106.6949988 102.5250012  44.1054997 106.8729988
 101.3790012  44.6464997 106.0449988 101.6924247  44.0846565 106.6315747
 107.5170012  41.5824997 113.4759988 106.8410012  41.7134997 114.1399988
 107.0320012  41.4274997 112.6649988 107.3587146  41.5795157 113.4574469
 110.8050012  57.2544997 119.7519988 111.0050012  57.6784997 118.9179988
 111.4600012  57.5974997 120.3589988 110.9210072  57.3589857 119.7198592
  98.4030012  49.7284997 119.3599988  99.1350012  49.9824997 119.9219988
  97.6230012  49.9324997 119.8759988  98.3977073  49.7908160 119.5066151
 104.4320012  45.1354997 112.0979988 104.9970012  44.5884997 111.5509988
 104.2850012  44.6134997 112.8869988 104.4893380  44.9902259 112.1298695
  99.4340012  41.2714997 108.5169988  99.1170012  40.3694997 108.4809988
 100.2160012  41.2734997 107.9639988  99.4962408  41.1482474 108.4373569
 103.0590012  43.5234997 114.5119988 102.2230012  43.9774997 114.6229988
 103.5830012  43.7994997 115.2639988 103.0155416  43.6228660 114.6288119
 103.6030012  49.7364997 106.1969988 102.8580012  49.2294997 105.8749988
 103.4690012  49.7854997 107.1439988 103.4828776  49.6736940 106.2808647
 110.7530012  48.8694997 114.9839988 111.3950012  49.3264997 114.4399988
 109.9230012  48.9824997 114.5209988 110.7285963  48.9472704 114.8470177
 107.5010012  42.5504997 104.3959988 106.5620012  42.6624997 104.2449988
 107.7980012  43.4074997 104.7029988 107.4127583  42.6815981 104.4168337
 105.1220012  49.9204997 117.4339988 104.7770012  49.5394997 118.2409988
 104.9220012  50.8544997 117.5049988 105.0477527  49.9945135 117.5540689
 108.2190012  44.4174997 106.0569988 109.1110012  44.2804997 106.3759988
 108.2760012  45.2084997 105.5199988 108.3486504  44.5056052 106.0280818
  98.7280012  49.0314997 111.9669988  99.4730012  49.0294997 111.3659988
  98.8060012  48.2084997 112.4479988  98.8404995  48.9198887 111.9498282
 105.7290012  51.1954997 105.2229988 105.4330012  52.0214997 105.6039988
 105.0260012  50.5754997 105.4189988 105.5934914  51.2248199 105.3016443
  95.7360012  47.4924997 117.2819988  95.9590012  47.0744997 118.1139988
  95.1340012  46.8794997 116.8589988  95.6851759  47.3524668 117.3387022
 102.7520012  47.0094997 119.4949988 102.4560012  46.8434997 118.5999988
 103.6840012  46.7894997 119.4839988 102.8374166  46.9570640 119.3710536
 107.3730012  52.3824997 117.3849988 106.4720012  52.5654997 117.1169988
 107.4070012  52.6414997 118.3049988 107.2543139  52.4425849 117.4728099
 113.1040012  44.6274997 105.7519988 112.5500012  44.2314997 105.0799988
 113.2040012  45.5374997 105.4739988 113.0417059  44.6963586 105.6224401
 113.0670012  50.4274997 118.5889988 112.2160012  50.6654997 118.2219988
 113.6580012  50.4104997 117.8359988 113.0302487  50.4578258 118.4368893
 111.3990012  53.4134997 106.2169988 111.0260012  52.5874997 106.5259988
 111.6770012  53.2304997 105.3189988 111.3855222  53.2757430 106.1379473
 108.5600012  48.2214997 113.2379988 107.6310012  47.9894997 113.2109988
 109.0110012  47.4444997 112.9079988 108.4939216  48.0847238 113.1896917
 101.1030012  52.5494997 109.3709988 101.6300012  53.3224997 109.1709988
 100.2230012  52.7744997 109.0689988 101.0562031  52.6857545 109.3027912
  96.8580012  47.4114997 103.9579988  97.4740012  48.0384997 104.3379988
  95.9960012  47.7274997 104.2299988  96.8257698  47.5399430 104.0467183
 102.5300012  50.2124997 108.9469988 102.2890012  51.1374997 108.9889988
 101.7890012  49.7534997 109.3439988 102.3969225  50.2770933 109.0063742
 103.0450012  54.3614997 115.2629988 103.4070012  55.2164997 115.0289988
 103.5760012  54.0694997 116.0029988 103.1664473  54.4391060 115.3310855
 101.2130012  55.2344997 108.4929988 100.2630012  55.3394997 108.5439988
 101.5650012  56.0544997 108.8369988 101.1304195  55.3598800 108.5465502
 106.5890012  50.4604997 114.9629988 106.1630012  50.2334997 115.7899988
 107.1690012  49.7224997 114.7809988 106.6091868  50.3295299 115.0515830
 108.7920012  51.3894997 104.0369988 109.1450012  51.0094997 104.8409988
 107.8430012  51.2964997 104.1239988 108.7120918  51.3248956 104.1588532
 109.2470012  55.0124997 117.4329988 108.6460012  54.4574997 116.9369988
 109.5290012  55.6794997 116.8059988 109.2028804  55.0266625 117.2804849
  97.3700012  42.2454997 116.8399988  96.4770012  42.5844997 116.7719988
  97.2710012  41.3904997 117.2579988  97.2344164  42.1762588 116.8872235
  97.0210012  54.0504997 115.2749988  97.2380012  53.1184997 115.2439988
  97.2670012  54.3244997 116.1579988  97.0839549  53.9600636 115.3901763
  98.2730012  49.3244997 105.4509988  97.5870012  49.6764997 106.0179988
  98.7950012  50.0874997 105.2039988  98.2496852  49.4758578 105.4952118
 106.1040012  41.9864997 115.7299988 106.8030012  42.0604997 116.3799988
 105.7230012  41.1224997 115.8839988 106.1481767  41.8797624 115.8398322
 106.8890012  41.6384997 106.8269988 107.1090012  42.1104997 106.0239988
 107.4470012  42.0334997 107.4969988 106.9944968  41.7564285 106.8077331
 104.5570012  53.7694997 105.6899988 103.7410012  54.2664997 105.7419988
 105.0870012  54.2444997 105.0499988 104.5169161  53.9017722 105.6105956
 104.0890012  43.3664997 107.6619988 104.9010012  43.8714997 107.7079988
 103.8440012  43.2214997 108.5759988 104.1670520  43.4160375 107.7918517
 104.6240012  44.3524997 116.8459988 104.7430012  44.9264997 117.6039988
 105.2800012  43.6644997 116.9609988 104.7289025  44.3379858 116.9651321
 104.9720012  40.4474997 108.5999988 104.6260012  41.0654997 109.2439988
 105.6310012  40.9484997 108.1179988 105.0136968  40.5996278 108.6229383
 101.8960012  54.8134997 105.6709988 102.0560012  55.6124997 105.1709988
 101.6980012  55.1194997 106.5559988 101.8911637  54.9644020 105.7221144
 100.6300012  41.5104997 105.2869988 100.5470012  42.3994997 105.6339988
 101.5200012  41.2454997 105.5189988 100.7389469  41.5961430 105.3657626
 110.8290012  42.2594997 117.6809988 109.9120012  42.5224997 117.5939988
 111.1640012  42.2564997 116.7849988 110.7488613  42.2950761 117.5478837
 109.4310012  46.0104997 111.7769988 108.6330012  45.5954997 111.4489988
 109.8760012  45.3194997 112.2679988 109.3819885  45.8603543 111.7984889
  98.8890012  51.9384997 104.3479988  99.4810012  52.6374997 104.6239988
  99.3480012  51.5054997 103.6279988  99.0321142  51.9757049 104.2884830
  97.2050012  44.6024997 103.4639988  97.1600012  45.5414997 103.6419988
  96.3170012  44.3664997 103.1939988  97.0788574  44.6991892 103.4518912
 110.5170012  55.2664997 113.3999988 110.3620012  55.9444997 112.7419988
 111.4500012  55.3384997 113.6029988 110.6218657  55.3689546 113.3374360
  98.0130012  39.3844997 112.1369988  97.7840012  39.4434997 111.2089988
  97.5700012  38.5924997 112.4429988  97.9218530  39.2855753 112.0514786
  96.9430012  53.3244997 108.2969988  96.1110012  53.7974997 108.3239988
  97.4890012  53.8344997 107.6989988  96.9030352  53.4581332 108.2198463
  96.2310012  55.9374997 119.6269988  96.7720012  55.7204997 120.3869988
  95.7500012  55.1314997 119.4369988  96.2399951  55.7989270 119.7052576
 100.8290012  54.8564997 121.2469988 101.5960012  54.3974997 121.5879988
 100.8070012  54.6304997 120.3179988 100.9311275  54.7630186 121.1680101
 107.4060012  53.2364997 119.9769988 107.0550012  52.3804997 120.2199988
 108.1320012  53.3794997 120.5839988 107.4560769  53.1385636 120.0923619
 109.5250012  54.1814997 102.8559988 109.8080012  53.3874997 103.3089988
 110.2650012  54.4144997 102.2959988 109.6638006  54.1043376 102.8422715
  96.1380012  49.7474997 120.5809988  96.2820012  48.8454997 120.2949988
  95.3660012  50.0334997 120.0939988  96.0532753  49.6626816 120.4759505
 102.7940012  49.7174997 120.0139988 102.4650012  49.9884997 119.1569988
 102.9460012  48.7764997 119.9269988 102.7694809  49.6273862 119.8848244
 105.8320012  51.1384997 102.4499988 105.5630012  51.3184997 103.3509988
 105.6260012  50.2124997 102.3179988 105.7673427  51.0380261 102.5555073
 108.5280012  49.6334997 117.3969988 109.2740012  50.2214997 117.2779988
 107.7710012  50.2154997 117.4609988 108.5277820  49.7927143 117.3893590
  96.9710012  46.9474997 120.0009988  97.3790012  46.0904997 119.8799988
  96.7110012  46.9624997 120.9219988  96.9917568  46.8320807 120.1089588
 100.9180012  45.9564997 117.3759988 100.3000012  46.6314997 117.6559988
 101.2620012  46.2774997 116.5419988 100.8799132  46.0922411 117.3016262
 105.9380012  48.4284997 120.6529988 106.8910012  48.5114997 120.6259988
 105.7770012  47.7164997 121.2729988 106.0466426  48.3436746 120.7330579
 101.2570012  43.3114997 118.4579988 101.4070012  42.5824997 117.8559988
 101.2600012  44.0884997 117.8989988 101.2779302  43.3167851 118.3000692
 101.6700012  41.6814997 115.9509988 102.2060012  42.1324997 115.2989988
 100.8180012  41.5734997 115.5279988 101.6282178  41.7286390 115.8045756
 103.2520012  47.1204997 116.1899988 104.0020012  46.9644997 115.6169988
 102.9130012  47.9724997 115.9149988 103.3088921  47.2142968 116.0743561
 107.6670012  44.9354997 121.2189988 107.8600012  44.0044997 121.1069988
 108.5250012  45.3604997 121.2079988 107.8092934  44.8656531 121.2022031
 108.9840012  47.7244997 119.2959988 108.7030012  48.4334997 118.7179988
 109.9270012  47.6514997 119.1449988 109.0729291  47.8116711 119.1964967
  99.7360012  44.5094997 120.3699988  98.9690012  43.9774997 120.1589988
 100.4150012  44.1994997 119.7699988  99.7227877  44.3948300 120.2600716
 102.4760012  39.1374997 116.3819988 102.3770012  40.0844997 116.2769988
 101.7330012  38.7654997 115.9059988 102.3621184  39.2165863 116.3033621
 103.7400012  43.4594997 119.9459988 103.5040012  43.2394997 120.8469988
 102.9560012  43.2524997 119.4359988 103.6018504  43.4014586 120.0003431
 106.4550012  42.5864997 119.0209988 105.5080012  42.6184997 119.1539988
 106.7680012  41.9614997 119.6749988 106.3676707  42.5063998 119.1276060
 108.0890012  41.2204997 121.0269988 107.9930012  40.2684997 121.0209988
 107.7680012  41.4894997 121.8869988 108.0324070  41.1264035 121.1425441
  97.9160012  42.4304997 120.0739988  98.1280012  41.7234997 119.4639988
  97.8050012  41.9924997 120.9179988  97.9299721  42.2747084 120.1046843
 102.6970012  38.4314997 119.0529988 103.4090012  37.7914997 119.0389988
 102.5960012  38.6984997 118.1399988 102.7808066  38.3800079 118.9275677
 103.0510012  40.1144997 121.1069988 102.9190012  39.6384997 120.2869988
 102.4520012  40.8584997 121.0519988 102.9519071  40.1499618 120.9872886
  94.8150012  57.0264997 108.8439988  94.1680012  56.5644997 108.3109988
  95.1690012  56.3544997 109.4259988  94.7743849  56.8724723 108.8497959
  95.6850012  55.1074997 110.6479988  95.3500012  54.2274997 110.8199988
  95.9070012  55.4524997 111.5129988  95.6691783  55.0337501 110.7884208
 113.2330012  55.9164997 113.6289988 113.2120012  56.1014997 114.5679988
 113.9240012  56.4854997 113.2879988 113.3234618  56.0186606 113.7113864
 112.7970012  55.4844997 116.5509988 112.3090012  54.7484997 116.1789988
 113.3460012  55.0904997 117.2289988 112.8044820  55.3305889 116.5917813
 111.2470012  51.2734997 121.1889988 110.3810012  51.1684997 121.5829988
 111.6240012  52.0324997 121.6349988 111.1793308  51.3616900 121.3032393
 112.5480012  49.5304997 106.7029988 113.3980012  49.9514997 106.8299988
 112.5540012  48.7904997 107.3099988 112.6651372  49.4880803 106.8024344
 112.9430012  47.5834997 108.5259988 112.2160012  47.1044997 108.9239988
 113.5240012  47.7894997 109.2589988 112.9220473  47.5458103 108.6794528
 112.7020012  50.3684997 113.4739988 113.5350012  49.9904997 113.1939988
 112.8140012  51.3114997 113.3549988 112.8312647  50.4442218 113.4195487
 111.1880012  53.2464997 115.7809988 110.5410012  53.5714997 116.4069988
 110.6710012  52.8064997 115.1069988 111.0294029  53.2315004 115.7755827
 113.2110012  47.4844997 104.9179988 112.6890012  47.8414997 104.1989988
 113.1780012  48.1594997 105.5959988 113.1351634  47.6245413 104.9113145
 110.7290012  46.1044997 109.0889988 110.5790012  45.1594997 109.0689988
 110.3760012  46.3854997 109.9329988 110.6607448  46.0131481 109.2003705
  95.7650012  48.1824997 113.0999988  95.9490012  48.1004997 112.1639988
  96.6140012  48.0584997 113.5229988  95.9050151  48.1545073 113.0291451
 111.5860012  48.0744997 118.7279988 112.1690012  47.3404997 118.9199988
 112.1500012  48.8464997 118.7749988 111.7419769  48.0784227 118.7606159
 113.0820012  45.9774997 119.4129988 112.2190012  45.5984997 119.2469988
 113.6870012  45.2384997 119.3379988 113.0456119  45.8258268 119.3801528
 110.4400012  43.6874997 107.5519988 110.7200012  42.7804997 107.6759988
 111.1990012  44.1214997 107.1629988 110.5809277  43.6220942 107.5163682
 111.0520012  44.2684997 112.9879988 111.9850012  44.4804997 112.9529988
 110.8170012  44.3704997 113.9099988 111.1479244  44.3113100 113.1078892
 111.0810012  45.0054997 115.7639988 110.2380012  45.2734997 116.1299988
 111.5230012  45.8274997 115.5529988 111.0254158  45.1533291 115.7855491
  95.3620012  43.4534997 119.2409988  96.2820012  43.3314997 119.4769988
  94.9130012  42.7034997 119.6299988  95.4271580  43.3353727 119.3259006
 113.3640012  38.9854997 121.1169988 113.7140012  38.3314997 120.5119988
 113.5110012  39.8224997 120.6769988 113.4317887  39.0091548 120.9746858
 111.0530012  40.9504997 107.5999988 111.2360012  40.5014997 108.4259988
 110.4540012  40.3654997 107.1369988 110.9970202  40.8099975 107.6503275
  96.5830012  41.7654997 112.1319988  97.0290012  40.9734997 112.4339988
  97.0500012  42.4814997 112.5619988  96.7070831  41.7540685 112.2314006
  94.8870012  44.7644997 113.2009988  95.3790012  44.5434997 112.4099988
  95.2500012  45.6054997 113.4819988  95.0033126  44.8478357 113.1307531
 112.8840012  41.0944997 119.4659988 111.9660012  41.3654997 119.4309988
 113.0070012  40.5594997 118.6819988 112.7749729  41.0592508 119.3551923
  95.2010012  41.0224997 107.2549988  94.2760012  41.2314997 107.1259988
  95.6550012  41.5064997 106.5649988  95.1357292  41.1165343 107.1440720
 109.9720012  56.0064997 109.2009988 110.6240012  55.6594997 108.5929988
 110.4820012  56.4954997 109.8469988 110.1302637  56.0250597 109.2050236
  95.1650012  39.7604997 115.5989988  94.5000012  39.5144997 116.2429988
  94.7220012  40.3824997 115.0219988  95.0141318  39.8109410 115.6090898
  97.3570012  52.9354997 119.7439988  96.5360012  53.1104997 119.2829988
  97.1040012  52.8624997 120.6639988  97.2105585  52.9495544 119.8053561
 100.3110012  53.9104997 116.0019988  99.8860012  54.7194997 115.7199988
 101.2150012  53.9954997 115.6999988 100.3749975  54.0329300 115.9224816
 104.6220012  55.3094997 118.9619988 104.8070012  54.9754997 119.8399988
 105.4680012  55.6184997 118.6399988 104.7617539  55.3056047 119.0385605
 106.9670012  56.5954997 118.2059988 107.6440012  55.9624997 117.9659988
 107.2890012  56.9964997 119.0129988 107.1031637  56.5631154 118.2822793
 111.8840012  39.1844997 117.2849988 111.0720012  39.5094997 116.8979988
 112.1170012  38.4244997 116.7519988 111.8042203  39.1262758 117.1598880
  97.7130012  57.1664997 116.0499988  96.9920012  57.6064997 115.5989988
  97.3470012  56.9154997 116.8979988  97.5649651  57.1927242 116.1029640
 100.1800012  56.7664997 115.0799988  99.3150012  56.8384997 115.4839988
 100.1250012  57.3134997 114.2959988 100.0542085  56.8502685 115.0293362
 104.8900012  56.6544997 114.2549988 104.4340012  57.1834997 113.6009988
 105.0530012  57.2574997 114.9799988 104.8496068  56.8084607 114.2634838
 107.2180012  55.5324997 115.1999988 106.3130012  55.6974997 114.9339988
 107.6470012  56.3854997 115.1349988 107.1521324  55.6704339 115.1547976
 109.8220012  57.1024997 115.4949988 109.6400012  58.0184997 115.2849988
 109.9990012  56.6924997 114.6489988 109.8210210  57.1724822 115.3517885
  97.1270012  55.7894997 112.9599988  97.1090012  55.3644997 113.8169988
  97.9320012  55.4714997 112.5509988  97.2333529  55.6883013 113.0220946
  99.2690012  54.4994997 111.6149988  99.0500012  53.5834997 111.7849988
 100.0930012  54.6394997 112.0809988  99.3504420  54.3930520 111.7012774
 101.8060012  54.9694997 112.4639988 102.0190012  54.0814997 112.1769988
 101.8700012  54.9354997 113.4179988 101.8438232  54.8433102 112.5537397
 105.3140012  40.6334997 111.6079988 104.6400012  40.0044997 111.8639988
 105.8780012  40.1494997 111.0049988 105.2979230  40.4818744 111.5615340
 110.4570012  38.7414997 111.7209988 111.0610012  39.2884997 111.2189988
 109.5870012  39.0604997 111.4799988 110.4221208  38.8595137 111.6196886
 112.1840012  39.8794997 110.0539988 112.7960012  39.3654997 109.5269988
 112.5660012  40.7574997 110.0769988 112.3193371  39.9277866 109.9850041
  97.6410012  39.2674997 109.4299988  96.8640012  39.0334997 108.9229988
  98.1710012  38.4704997 109.4389988  97.6062330  39.1276988 109.3617742
  96.4770012  39.0654997 105.2339988  96.9160012  39.6764997 104.6419988
  95.8440012  39.6034997 105.7079988  96.4514514  39.2219257 105.2170930
 102.2200012  39.1944997 109.2439988 103.0950012  39.5824997 109.2139988
 102.0840012  38.9794997 110.1659988 102.3213695  39.2185184 109.3646440
 107.7770012  39.2244997 110.8929988 107.8530012  39.3194997 109.9429988
 107.5020012  38.3164997 111.0219988 107.7502321  39.1147867 110.7805079
 109.1300012  39.2504997 106.5849988 108.4280012  39.8654997 106.3749988
 108.6860012  38.4124997 106.7159988 108.9736450  39.2215639 106.5739000
  96.3780012  55.0134997 106.1309988  95.6930012  54.9754997 105.4639988
  96.3820012  55.9264997 106.4199988  96.2846998  55.1316733 106.0786771
  98.3380012  40.9814997 103.6759988  98.8300012  40.3514997 103.1489988
  98.9620012  41.2774997 104.3389988  98.4895688  40.9353804 103.6935482
 103.3640012  41.2744997 106.1329988 103.5420012  40.6284997 106.8159988
 103.3110012  42.1084997 106.5999988 103.3811999  41.2988009 106.2895917
 105.2430012  56.2234997 104.5289988 106.1090012  56.5894997 104.3509988
 104.9960012  55.7834997 103.7149988 105.3282392  56.2141756 104.3946289
 111.9520012  55.7864997 107.2079988 111.7570012  55.0384997 106.6429988
 111.9130012  56.5444997 106.6249988 111.9200380  55.7866099 107.0518384
  97.5990012  39.7814997 118.9479988  97.2330012  39.0164997 119.3899988
  98.5120012  39.8104997 119.2339988  97.6722736  39.6805640 119.0472502
  99.5720012  39.1324997 120.4839988 100.4700012  38.8584997 120.2989988
  99.1850012  38.3894997 120.9479988  99.6426612  38.9945914 120.5213643
 107.9930012  38.4644997 120.6659988 108.0700012  38.0384997 121.5199988
 108.8870012  38.4784997 120.3229988 108.1243428  38.4080879 120.7365310
 111.1690012  54.5374997 119.3579988 110.3870012  54.3514997 118.8379988
 111.0970012  55.4664997 119.5759988 111.0522274  54.6376643 119.3163018
 125.5750012  48.4234997 109.3889988 125.6640012  49.3674997 109.2569988
 124.9370012  48.1484997 108.7309988 125.5009081  48.5154830 109.2819614
 124.5080012  47.6784997 112.8079988 124.4700012  47.0324997 113.5129988
 124.1860012  47.2124997 112.0369988 124.4592333  47.5269408 112.8002978
 116.8770012  47.2934997 114.4009988 116.9180012  46.6674997 115.1239988
 117.5800012  47.9174997 114.5829988 116.9776363  47.2921196 114.5246044
 128.2140012  50.6174997 111.1089988 127.7740012  49.8974997 111.5599988
 128.2010012  51.3384997 111.7389988 128.1520226  50.6163731 111.2558494
 117.8000012  51.7434997 112.9359988 117.4310012  50.9414997 112.5659988
 118.7410012  51.5744997 112.9819988 117.8767289  51.6110153 112.8916316
 114.4100012  45.4034997 108.3289988 113.9630012  46.2494997 108.3099988
 113.8490012  44.8234997 107.8129988 114.2729900  45.4409916 108.2566801
 115.1210012  47.5654997 110.4539988 115.3340012  46.7954997 110.9819988
 115.8590012  47.6544997 109.8509988 115.2499044  47.4721968 110.4447123
 125.3260012  55.7224997 111.3209988 125.9460012  55.0454997 111.0479988
 125.1180012  55.5044997 112.2299988 125.3826726  55.6004800 111.4064812
 122.8980012  50.1114997 113.2139988 123.2020012  49.4254997 112.6189988
 123.6190012  50.2294997 113.8319988 123.0370671  50.0336305 113.2161816
 131.5610012  41.7124997 114.0749988 131.6100012  42.3224997 114.8099988
 131.9860012  42.1734997 113.3519988 131.6251746  41.8583796 114.0779175
 126.0390012  44.5054997 113.5409988 126.1810012  43.5594997 113.5619988
 125.9320012  44.7124997 112.6129988 126.0439919  44.4038246 113.4183408
 119.1930012  42.6064997 110.8139988 119.2370012  43.4664997 110.3949988
 118.7360012  42.0544997 110.1799988 119.1372240  42.6494422 110.6709864
 126.9160012  42.7374997 109.2149988 127.5620012  42.4084997 109.8389988
 127.4260012  43.2554997 108.5919988 127.0734299  42.7624450 109.2162731
 115.8140012  45.0034997 111.5759988 116.4670012  44.4534997 112.0079988
 115.8380012  44.7294997 110.6589988 115.9066683  44.8911466 111.5112123
 120.9700012  46.5534997 110.7909988 121.5860012  46.0274997 111.3009988
 120.3840012  45.9134997 110.3879988 120.9750810  46.3949208 110.8063173
 131.9520012  43.1904997 116.3099988 131.2640012  43.8484997 116.2149988
 131.9680012  42.9934997 117.2469988 131.8599540  43.2539819 116.4235990
 118.0040012  41.5244997 114.8879988 117.7850012  42.0544997 114.1219988
 117.3360012  41.7514997 115.5349988 117.8837600  41.6276906 114.8706379
 125.3730012  51.0244997 108.4319988 125.0770012  50.7024997 107.5809988
 125.0480012  51.9244997 108.4729988 125.2886371  51.1020215 108.3211801
 120.5730012  49.2004997 115.1749988 119.8330012  49.7984997 115.2789988
 121.2870012  49.7544997 114.8599988 120.5682237  49.3572831 115.1466465
 128.6800012  42.0284997 111.1949988 128.4640012  41.2624997 111.7279988
 129.3350012  42.5004997 111.7079988 128.7390632  41.9875889 111.3372861
 117.5970012  43.4164997 112.8399988 118.2110012  44.0494997 113.2129988
 118.1090012  42.9444997 112.1839988 117.7501981  43.4392267 112.8022908
 118.9800012  51.1644997 115.9619988 118.9750012  52.0444997 115.5839988
 118.1270012  51.0814997 116.3869988 118.8639464  51.2736117 115.9677907
 115.1010012  50.8354997 106.7439988 114.8290012  51.0644997 105.8559988
 115.1470012  51.6734997 107.2049988 115.0699482  50.9801318 106.6846273
 128.7260012  52.4574997 113.4569988 127.7850012  52.5154997 113.6189988
 129.0030012  53.3634997 113.3199988 128.6344679  52.5879443 113.4606815
 129.0270012  40.7434997 114.8749988 128.2910012  41.3544997 114.8369988
 129.7100012  41.1584997 114.3479988 129.0186541  40.8831374 114.7985832
 122.0300012  38.8304997 112.3399988 121.9130012  37.8814997 112.2859988
 121.1750012  39.1624997 112.6139988 121.8984212  38.7455571 112.3696497
 126.9780012  54.2384997 110.0819988 127.4040012  53.5314997 109.5969988
 127.2950012  55.0394997 109.6659988 127.0791683  54.2501017 109.9593680
 128.1380012  52.1394997 108.5909988 127.8800012  51.4494997 107.9799988
 128.2090012  51.6964997 109.4369988 128.1122856  51.9852124 108.6216885
 129.8240012  50.7054997 117.0679988 129.9640012  50.1144997 116.3289988
 129.9910012  51.5784997 116.7119988 129.8657411  50.7425428 116.9186894
 124.2970012  47.6674997 106.8409988 123.5850012  48.2024997 106.4889988
 124.9880012  47.7234997 106.1809988 124.2930132  47.7482543 106.7036289
 131.6660012  47.0454997 115.1339988 131.0130012  47.7404997 115.2239988
 132.1310012  47.2554997 114.3249988 131.6395274  47.1690643 115.0368462
 127.7020012  47.8774997 107.7929988 126.9700012  48.1054997 108.3659988
 128.1500012  47.1634997 108.2469988 127.6622725  47.8122145 107.9328816
 127.6000012  46.0514997 116.8599988 127.6800012  46.8144997 117.4319988
 126.9980012  46.3304997 116.1699988 127.5295756  46.1937134 116.8450589
 119.3480012  48.5074997 109.6749988 119.0170012  48.1374997 108.8569988
 119.9360012  47.8374997 110.0219988 119.3821873  48.3661156 109.6098102
 120.7140012  51.9354997 112.3559988 120.6200012  51.3574997 111.5999988
 121.4440012  51.5644997 112.8529988 120.7997387  51.8061663 112.3195342
 119.7140012  47.2764997 113.3089988 120.2800012  47.3974997 112.5459988
 120.0330012  47.9134997 113.9469988 119.8345474  47.3792219 113.2909862
 126.0230012  52.7794997 114.0429988 125.7830012  53.4414997 114.6909988
 125.8250012  51.9454997 114.4679988 125.9633808  52.7573134 114.1891524
 120.5940012  51.6754997 118.0259988 120.2830012  52.4574997 118.4809988
 119.9440012  51.5224997 117.3399988 120.4635558  51.7619105 117.9955871
 126.5730012  47.0394997 105.4779988 127.1530012  47.1894997 106.2249988
 126.9870012  47.5104997 104.7539988 126.7082997  47.1236578 105.4824058
 117.5140012  47.8734997 117.2539988 117.5850012  48.5244997 117.9529988
 116.6240012  47.9764997 116.9189988 117.4033005  47.9765427 117.3043495
 124.3000012  53.7764997 108.9129988 124.7740012  54.0714997 109.6899988
 123.7370012  54.5144997 108.6799988 124.2888184  53.9167247 108.9879628
 118.8340012  53.7474997 118.7889988 118.8410012  53.6114997 117.8419988
 117.9180012  53.6294997 119.0409988 118.7111714  53.7129430 118.6934666
 130.2720012  38.7894997 105.2909988 129.3720012  38.9284997 105.5859988
 130.5240012  39.6204997 104.8889988 130.1828702  38.9209074 105.2770205
 118.3380012  47.5774997 107.2639988 118.0460012  48.3454997 106.7739988
 117.6640012  46.9174997 107.1019988 118.2068111  47.5935587 107.1748978
 114.4310012  49.9404997 116.0789988 113.9300012  49.9124997 115.2639988
 114.4360012  49.0344997 116.3889988 114.3630944  49.8142396 116.0093226
 114.1810012  52.7204997 112.9629988 115.1270012  52.5764997 112.9439988
 114.0690012  53.5044997 113.4999988 114.2952727  52.8068046 113.0330072
 132.3790012  53.3864997 118.6459988 132.3300012  52.4314997 118.6089988
 131.5520012  53.6544997 119.0469988 132.2604940  53.2918998 118.6951375
 123.3580012  52.9604997 117.5219988 123.4450012  53.7864997 117.9969988
 122.4940012  52.6304997 117.7709988 123.2531964  53.0289878 117.6206549
 123.7720012  56.7324997 107.3279988 123.6970012  56.6114997 106.3809988
 123.8050012  57.6824997 107.4459988 123.7662068  56.8442646 107.2144967
 117.4250012  55.5214997 109.1089988 117.5780012  55.1734997 109.9869988
 116.5750012  55.1654997 108.8539988 117.3309166  55.4256216 109.1948079
 126.8740012  55.8864997 104.3299988 127.2490012  55.1424997 103.8589988
 126.8780012  55.6164997 105.2489988 126.9259125  55.7480986 104.3896483
 126.5430012  55.8124997 107.0789988 125.6070012  55.9124997 107.2579988
 126.8230012  55.1034997 107.6579988 126.4529553  55.7303406 107.1817087
 129.5310012  44.8794997 119.1259988 129.1240012  45.3604997 118.4049988
 129.5720012  43.9744997 118.8179988 129.4808437  44.8229374 118.9856683
 116.6800012  51.2634997 117.1229988 116.8960012  50.9024997 117.9819988
 115.8250012  50.8894997 116.9129988 116.5939292  51.1634111 117.2123386
 119.2990012  39.7334997 113.1179988 118.4370012  39.6464997 112.7099988
 119.2760012  40.5894997 113.5459988 119.1780409  39.8372883 113.1200589
 123.9620012  39.4554997 116.4929988 124.3820012  39.0404997 117.2459988
 123.0290012  39.2774997 116.6099988 123.8933644  39.3745900 116.6119539
 127.2880012  43.2114997 117.3459988 126.7740012  43.0854997 118.1439988
 127.1330012  44.1234997 117.1019988 127.1966852  43.3176132 117.4222158
 123.6230012  41.9484997 103.7779988 123.3700012  41.9674997 104.7009988
 123.3670012  41.0764997 103.4759988 123.5537481  41.8332558 103.8636175
 119.3900012  44.6994997 114.2129988 118.7480012  44.6584997 114.9219988
 119.4270012  45.6254997 113.9749988 119.3070664  44.8191430 114.2779219
 119.3870012  44.9204997 109.1249988 118.4940012  44.5794997 109.0659988
 119.8370012  44.5434997 108.3689988 119.3258130  44.8229631 109.0147702
 124.9220012  45.3364997 107.9419988 124.5130012  46.1514997 107.6509988
 125.6430012  45.1964997 107.3279988 124.9634537  45.4292018 107.8191342
 124.0240012  45.5114997 119.4299988 123.4620012  44.8074997 119.7509988
 124.8510012  45.3914997 119.8979988 124.0587095  45.3987883 119.5372330
 125.9270012  44.7824997 110.7559988 125.7320012  45.3874997 110.0409988
 126.1080012  43.9484997 110.3219988 125.9247614  44.7526300 110.5994405
 117.1400012  45.0194997 116.0799988 117.1020012  45.4194997 116.9489988
 116.6490012  44.2024997 116.1709988 117.0684684  44.9638069 116.2111059
 120.5060012  42.3934997 102.8789988 120.0750012  41.9484997 103.6089988
 119.7880012  42.7654997 102.3669988 120.3499438  42.3828940 102.9096799
 113.7480012  42.1354997 109.9309988 114.3790012  42.1064997 110.6499988
 114.1970012  41.7104997 109.1999988 113.8950918  42.0740836 109.9306441
 125.1910012  46.4204997 115.4269988 125.5140012  45.7894997 114.7839988
 124.7510012  45.8854997 116.0879988 125.1757484  46.2618387 115.4283198
 121.9680012  42.3474997 110.2109988 121.0570012  42.4044997 110.4999988
 122.4740012  42.2874997 111.0219988 121.9116899  42.3471941 110.3601184
 116.7970012  43.9764997 109.0379988 115.9070012  44.0764997 108.6979988
 117.0930012  43.1344997 108.6919988 116.7152823  43.8763545 108.9447213
 120.4500012  43.9764997 106.6949988 121.3810012  44.1054997 106.8729988
 120.2350012  44.6464997 106.0449988 120.5484247  44.0846565 106.6315747
 126.3730012  41.5824997 113.4759988 125.6970012  41.7134997 114.1399988
 125.8880012  41.4274997 112.6649988 126.2147146  41.5795157 113.4574469
 119.1240012  45.1714997 104.2609988 118.5810012  44.7914997 103.5699988
 119.9570012  45.3654997 103.8329988 119.1623631  45.1457125 104.1084501
 129.6610012  57.2544997 119.7519988 129.8610012  57.6784997 118.9179988
 130.3160012  57.5974997 120.3589988 129.7770072  57.3589857 119.7198592
 117.2590012  49.7284997 119.3599988 117.9910012  49.9824997 119.9219988
 116.4790012  49.9324997 119.8759988 117.2537073  49.7908160 119.5066151
 123.2880012  45.1354997 112.0979988 123.8530012  44.5884997 111.5509988
 123.1410012  44.6134997 112.8869988 123.3453380  44.9902259 112.1298695
 118.2900012  41.2714997 108.5169988 117.9730012  40.3694997 108.4809988
 119.0720012  41.2734997 107.9639988 118.3522408  41.1482474 108.4373569
 121.9150012  43.5234997 114.5119988 121.0790012  43.9774997 114.6229988
 122.4390012  43.7994997 115.2639988 121.8715416  43.6228660 114.6288119
 122.4590012  49.7364997 106.1969988 121.7140012  49.2294997 105.8749988
 122.3250012  49.7854997 107.1439988 122.3388776  49.6736940 106.2808647
 129.6090012  48.8694997 114.9839988 130.2510012  49.3264997 114.4399988
 128.7790012  48.9824997 114.5209988 129.5845963  48.9472704 114.8470177
 123.9780012  49.9204997 117.4339988 123.6330012  49.5394997 118.2409988
 123.7780012  50.8544997 117.5049988 123.9037527  49.9945135 117.5540689
 127.0750012  44.4174997 106.0569988 127.9670012  44.2804997 106.3759988
 127.1320012  45.2084997 105.5199988 127.2046504  44.5056052 106.0280818
 117.5840012  49.0314997 111.9669988 118.3290012  49.0294997 111.3659988
 117.6620012  48.2084997 112.4479988 117.6964995  48.9198887 111.9498282
 124.5850012  51.1954997 105.2229988 124.2890012  52.0214997 105.6039988
 123.8820012  50.5754997 105.4189988 124.4494914  51.2248199 105.3016443
 114.5920012  47.4924997 117.2819988 114.8150012  47.0744997 118.1139988
 113.9900012  46.8794997 116.8589988 114.5411759  47.3524668 117.3387022
 121.6080012  47.0094997 119.4949988 121.3120012  46.8434997 118.5999988
 122.5400012  46.7894997 119.4839988 121.6934166  46.9570640 119.3710536
 126.2290012  52.3824997 117.3849988 125.3280012  52.5654997 117.1169988
 126.2630012  52.6414997 118.3049988 126.1103139  52.4425849 117.4728099
 131.9230012  50.4274997 118.5889988 131.0720012  50.6654997 118.2219988
 132.5140012  50.4104997 117.8359988 131.8862487  50.4578258 118.4368893
 130.2550012  53.4134997 106.2169988 129.8820012  52.5874997 106.5259988
 130.5330012  53.2304997 105.3189988 130.2415222  53.2757430 106.1379473
 127.4160012  48.2214997 113.2379988 126.4870012  47.9894997 113.2109988
 127.8670012  47.4444997 112.9079988 127.3499216  48.0847238 113.1896917
 119.9590012  52.5494997 109.3709988 120.4860012  53.3224997 109.1709988
 119.0790012  52.7744997 109.0689988 119.9122031  52.6857545 109.3027912
 115.7140012  47.4114997 103.9579988 116.3300012  48.0384997 104.3379988
 114.8520012  47.7274997 104.2299988 115.6817698  47.5399430 104.0467183
 121.3860012  50.2124997 108.9469988 121.1450012  51.1374997 108.9889988
 120.6450012  49.7534997 109.3439988 121.2529225  50.2770933 109.0063742
 121.9010012  54.3614997 115.2629988 122.2630012  55.2164997 115.0289988
 122.4320012  54.0694997 116.0029988 122.0224473  54.4391060 115.3310855
 120.0690012  55.2344997 108.4929988 119.1190012  55.3394997 108.5439988
 120.4210012  56.0544997 108.8369988 119.9864195  55.3598800 108.5465502
 125.4450012  50.4604997 114.9629988 125.0190012  50.2334997 115.7899988
 126.0250012  49.7224997 114.7809988 125.4651868  50.3295299 115.0515830
 128.1030012  55.0124997 117.4329988 127.5020012  54.4574997 116.9369988
 128.3850012  55.6794997 116.8059988 128.0588804  55.0266625 117.2804849
 116.2260012  42.2454997 116.8399988 115.3330012  42.5844997 116.7719988
 116.1270012  41.3904997 117.2579988 116.0904164  42.1762588 116.8872235
 128.5140012  50.0624997 106.2639988 128.2360012  49.3344997 106.8199988
 129.4410012  50.1814997 106.4689988 128.6013124  49.9788802 106.3678845
 115.8770012  54.0504997 115.2749988 116.0940012  53.1184997 115.2439988
 116.1230012  54.3244997 116.1579988 115.9399549  53.9600636 115.3901763
 120.6760012  52.0714997 104.9399988 120.8220012  51.5514997 105.7299988
 120.6730012  52.9784997 105.2469988 120.6955792  52.1228842 105.0896117
 117.1290012  49.3244997 105.4509988 116.4430012  49.6764997 106.0179988
 117.6510012  50.0874997 105.2039988 117.1056852  49.4758578 105.4952118
 124.9600012  41.9864997 115.7299988 125.6590012  42.0604997 116.3799988
 124.5790012  41.1224997 115.8839988 125.0041767  41.8797624 115.8398322
 125.7450012  41.6384997 106.8269988 125.9650012  42.1104997 106.0239988
 126.3030012  42.0334997 107.4969988 125.8504968  41.7564285 106.8077331
 123.4130012  53.7694997 105.6899988 122.5970012  54.2664997 105.7419988
 123.9430012  54.2444997 105.0499988 123.3729161  53.9017722 105.6105956
 122.9450012  43.3664997 107.6619988 123.7570012  43.8714997 107.7079988
 122.7000012  43.2214997 108.5759988 123.0230520  43.4160375 107.7918517
 123.4800012  44.3524997 116.8459988 123.5990012  44.9264997 117.6039988
 124.1360012  43.6644997 116.9609988 123.5849025  44.3379858 116.9651321
 123.8280012  40.4474997 108.5999988 123.4820012  41.0654997 109.2439988
 124.4870012  40.9484997 108.1179988 123.8696968  40.5996278 108.6229383
 120.7520012  54.8134997 105.6709988 120.9120012  55.6124997 105.1709988
 120.5540012  55.1194997 106.5559988 120.7471637  54.9644020 105.7221144
 129.6850012  42.2594997 117.6809988 128.7680012  42.5224997 117.5939988
 130.0200012  42.2564997 116.7849988 129.6048613  42.2950761 117.5478837
 128.2870012  46.0104997 111.7769988 127.4890012  45.5954997 111.4489988
 128.7320012  45.3194997 112.2679988 128.2379885  45.8603543 111.7984889
 117.7450012  51.9384997 104.3479988 118.3370012  52.6374997 104.6239988
 118.2040012  51.5054997 103.6279988 117.8881142  51.9757049 104.2884830
 129.3730012  55.2664997 113.3999988 129.2180012  55.9444997 112.7419988
 130.3060012  55.3384997 113.6029988 129.4778657  55.3689546 113.3374360
 116.8690012  39.3844997 112.1369988 116.6400012  39.4434997 111.2089988
 116.4260012  38.5924997 112.4429988 116.7778530  39.2855753 112.0514786
 115.7990012  53.3244997 108.2969988 114.9670012  53.7974997 108.3239988
 116.3450012  53.8344997 107.6989988 115.7590352  53.4581332 108.2198463
 115.0870012  55.9374997 119.6269988 115.6280012  55.7204997 120.3869988
 114.6060012  55.1314997 119.4369988 115.0959951  55.7989270 119.7052576
 119.6850012  54.8564997 121.2469988 120.4520012  54.3974997 121.5879988
 119.6630012  54.6304997 120.3179988 119.7871275  54.7630186 121.1680101
 126.2620012  53.2364997 119.9769988 125.9110012  52.3804997 120.2199988
 126.9880012  53.3794997 120.5839988 126.3120769  53.1385636 120.0923619
 114.9940012  49.7474997 120.5809988 115.1380012  48.8454997 120.2949988
 114.2220012  50.0334997 120.0939988 114.9092753  49.6626816 120.4759505
 119.3360012  50.0914997 102.7139988 119.4000012  49.2974997 103.2449988
 119.9890012  49.9724997 102.0239988 119.4330241  49.9667148 102.6934317
 121.6500012  49.7174997 120.0139988 121.3210012  49.9884997 119.1569988
 121.8020012  48.7764997 119.9269988 121.6254809  49.6273862 119.8848244
 127.3840012  49.6334997 117.3969988 128.1300012  50.2214997 117.2779988
 126.6270012  50.2154997 117.4609988 127.3837820  49.7927143 117.3893590
 115.8270012  46.9474997 120.0009988 116.2350012  46.0904997 119.8799988
 115.5670012  46.9624997 120.9219988 115.8477568  46.8320807 120.1089588
 120.4850012  48.0634997 105.0199988 120.0250012  47.5794997 105.7059988
 120.7400012  47.3954997 104.3839988 120.4564902  47.9068731 105.0279334
 119.7740012  45.9564997 117.3759988 119.1560012  46.6314997 117.6559988
 120.1180012  46.2774997 116.5419988 119.7359132  46.0922411 117.3016262
 124.7940012  48.4284997 120.6529988 125.7470012  48.5114997 120.6259988
 124.6330012  47.7164997 121.2729988 124.9026426  48.3436746 120.7330579
 120.1130012  43.3114997 118.4579988 120.2630012  42.5824997 117.8559988
 120.1160012  44.0884997 117.8989988 120.1339302  43.3167851 118.3000692
 120.5260012  41.6814997 115.9509988 121.0620012  42.1324997 115.2989988
 119.6740012  41.5734997 115.5279988 120.4842178  41.7286390 115.8045756
 122.1080012  47.1204997 116.1899988 122.8580012  46.9644997 115.6169988
 121.7690012  47.9724997 115.9149988 122.1648921  47.2142968 116.0743561
 126.5230012  44.9354997 121.2189988 126.7160012  44.0044997 121.1069988
 127.3810012  45.3604997 121.2079988 126.6652934  44.8656531 121.2022031
 127.8400012  47.7244997 119.2959988 127.5590012  48.4334997 118.7179988
 128.7830012  47.6514997 119.1449988 127.9289291  47.8116711 119.1964967
 118.5920012  44.5094997 120.3699988 117.8250012  43.9774997 120.1589988
 119.2710012  44.1994997 119.7699988 118.5787877  44.3948300 120.2600716
 121.3320012  39.1374997 116.3819988 121.2330012  40.0844997 116.2769988
 120.5890012  38.7654997 115.9059988 121.2181184  39.2165863 116.3033621
 122.5960012  43.4594997 119.9459988 122.3600012  43.2394997 120.8469988
 121.8120012  43.2524997 119.4359988 122.4578504  43.4014586 120.0003431
 125.3110012  42.5864997 119.0209988 124.3640012  42.6184997 119.1539988
 125.6240012  41.9614997 119.6749988 125.2236707  42.5063998 119.1276060
 126.9450012  41.2204997 121.0269988 126.8490012  40.2684997 121.0209988
 126.6240012  41.4894997 121.8869988 126.8884070  41.1264035 121.1425441
 116.7720012  42.4304997 120.0739988 116.9840012  41.7234997 119.4639988
 116.6610012  41.9924997 120.9179988 116.7859721  42.2747084 120.1046843
 121.5530012  38.4314997 119.0529988 122.2650012  37.7914997 119.0389988
 121.4520012  38.6984997 118.1399988 121.6368066  38.3800079 118.9275677
 121.9070012  40.1144997 121.1069988 121.7750012  39.6384997 120.2869988
 121.3080012  40.8584997 121.0519988 121.8079071  40.1499618 120.9872886
 115.0220012  51.6334997 103.7659988 115.9360012  51.7124997 104.0399988
 115.0290012  50.9464997 103.0999988 115.1481131  51.5513961 103.7134393
 113.6710012  57.0264997 108.8439988 113.0240012  56.5644997 108.3109988
 114.0250012  56.3544997 109.4259988 113.6303849  56.8724723 108.8497959
 114.5410012  55.1074997 110.6479988 114.2060012  54.2274997 110.8199988
 114.7630012  55.4524997 111.5129988 114.5251783  55.0337500 110.7884208
 132.0890012  55.9164997 113.6289988 132.0680012  56.1014997 114.5679988
 132.7800012  56.4854997 113.2879988 132.1794618  56.0186606 113.7113864
 131.6530012  55.4844997 116.5509988 131.1650012  54.7484997 116.1789988
 132.2020012  55.0904997 117.2289988 131.6604820  55.3305889 116.5917813
 130.1030012  51.2734997 121.1889988 129.2370012  51.1684997 121.5829988
 130.4800012  52.0324997 121.6349988 130.0353308  51.3616900 121.3032393
 131.4040012  49.5304997 106.7029988 132.2540012  49.9514997 106.8299988
 131.4100012  48.7904997 107.3099988 131.5211372  49.4880803 106.8024344
 131.7990012  47.5834997 108.5259988 131.0720012  47.1044997 108.9239988
 132.3800012  47.7894997 109.2589988 131.7780473  47.5458103 108.6794528
 131.5580012  50.3684997 113.4739988 132.3910012  49.9904997 113.1939988
 131.6700012  51.3114997 113.3549988 131.6872647  50.4442218 113.4195487
 130.0440012  53.2464997 115.7809988 129.3970012  53.5714997 116.4069988
 129.5270012  52.8064997 115.1069988 129.8854029  53.2315004 115.7755827
 132.0670012  47.4844997 104.9179988 131.5450012  47.8414997 104.1989988
 132.0340012  48.1594997 105.5959988 131.9911634  47.6245413 104.9113145
 129.5850012  46.1044997 109.0889988 129.4350012  45.1594997 109.0689988
 129.2320012  46.3854997 109.9329988 129.5167448  46.0131481 109.2003705
 114.6210012  48.1824997 113.0999988 114.8050012  48.1004997 112.1639988
 115.4700012  48.0584997 113.5229988 114.7610151  48.1545073 113.0291451
 130.4420012  48.0744997 118.7279988 131.0250012  47.3404997 118.9199988
 131.0060012  48.8464997 118.7749988 130.5979769  48.0784227 118.7606159
 131.9380012  45.9774997 119.4129988 131.0750012  45.5984997 119.2469988
 132.5430012  45.2384997 119.3379988 131.9016119  45.8258268 119.3801528
 129.2960012  43.6874997 107.5519988 129.5760012  42.7804997 107.6759988
 130.0550012  44.1214997 107.1629988 129.4369277  43.6220942 107.5163682
 129.9080012  44.2684997 112.9879988 130.8410012  44.4804997 112.9529988
 129.6730012  44.3704997 113.9099988 130.0039244  44.3113100 113.1078892
 129.9370012  45.0054997 115.7639988 129.0940012  45.2734997 116.1299988
 130.3790012  45.8274997 115.5529988 129.8814158  45.1533291 115.7855491
 114.2180012  43.4534997 119.2409988 115.1380012  43.3314997 119.4769988
 113.7690012  42.7034997 119.6299988 114.2831580  43.3353727 119.3259006
 132.2200012  38.9854997 121.1169988 132.5700012  38.3314997 120.5119988
 132.3670012  39.8224997 120.6769988 132.2877887  39.0091548 120.9746858
 129.9090012  40.9504997 107.5999988 130.0920012  40.5014997 108.4259988
 129.3100012  40.3654997 107.1369988 129.8530202  40.8099975 107.6503275
 115.4390012  41.7654997 112.1319988 115.8850012  40.9734997 112.4339988
 115.9060012  42.4814997 112.5619988 115.5630831  41.7540685 112.2314006
 113.7430012  44.7644997 113.2009988 114.2350012  44.5434997 112.4099988
 114.1060012  45.6054997 113.4819988 113.8593126  44.8478357 113.1307531
 131.7400012  41.0944997 119.4659988 130.8220012  41.3654997 119.4309988
 131.8630012  40.5594997 118.6819988 131.6309729  41.0592508 119.3551923
 114.0570012  41.0224997 107.2549988 113.1320012  41.2314997 107.1259988
 114.5110012  41.5064997 106.5649988 113.9917292  41.1165343 107.1440720
 128.8280012  56.0064997 109.2009988 129.4800012  55.6594997 108.5929988
 129.3380012  56.4954997 109.8469988 128.9862637  56.0250597 109.2050236
 114.0210012  39.7604997 115.5989988 113.3560012  39.5144997 116.2429988
 113.5780012  40.3824997 115.0219988 113.8701318  39.8109410 115.6090898
 116.2130012  52.9354997 119.7439988 115.3920012  53.1104997 119.2829988
 115.9600012  52.8624997 120.6639988 116.0665585  52.9495544 119.8053561
 119.1670012  53.9104997 116.0019988 118.7420012  54.7194997 115.7199988
 120.0710012  53.9954997 115.6999988 119.2309975  54.0329300 115.9224816
 123.4780012  55.3094997 118.9619988 123.6630012  54.9754997 119.8399988
 124.3240012  55.6184997 118.6399988 123.6177539  55.3056047 119.0385605
 125.8230012  56.5954997 118.2059988 126.5000012  55.9624997 117.9659988
 126.1450012  56.9964997 119.0129988 125.9591637  56.5631154 118.2822793
 130.7400012  39.1844997 117.2849988 129.9280012  39.5094997 116.8979988
 130.9730012  38.4244997 116.7519988 130.6602203  39.1262758 117.1598880
 116.5690012  57.1664997 116.0499988 115.8480012  57.6064997 115.5989988
 116.2030012  56.9154997 116.8979988 116.4209651  57.1927242 116.1029640
 119.0360012  56.7664997 115.0799988 118.1710012  56.8384997 115.4839988
 118.9810012  57.3134997 114.2959988 118.9102085  56.8502685 115.0293362
 123.7460012  56.6544997 114.2549988 123.2900012  57.1834997 113.6009988
 123.9090012  57.2574997 114.9799988 123.7056068  56.8084607 114.2634838
 126.0740012  55.5324997 115.1999988 125.1690012  55.6974997 114.9339988
 126.5030012  56.3854997 115.1349988 126.0081324  55.6704339 115.1547976
 128.6780012  57.1024997 115.4949988 128.4960012  58.0184997 115.2849988
 128.8550012  56.6924997 114.6489988 128.6770210  57.1724822 115.3517885
 115.9830012  55.7894997 112.9599988 115.9650012  55.3644997 113.8169988
 116.7880012  55.4714997 112.5509988 116.0893529  55.6883013 113.0220946
 118.1250012  54.4994997 111.6149988 117.9060012  53.5834997 111.7849988
 118.9490012  54.6394997 112.0809988 118.2064420  54.3930520 111.7012774
 120.6620012  54.9694997 112.4639988 120.8750012  54.0814997 112.1769988
 120.7260012  54.9354997 113.4179988 120.6998232  54.8433102 112.5537397
 124.1700012  40.6334997 111.6079988 123.4960012  40.0044997 111.8639988
 124.7340012  40.1494997 111.0049988 124.1539230  40.4818744 111.5615340
 129.3130012  38.7414997 111.7209988 129.9170012  39.2884997 111.2189988
 128.4430012  39.0604997 111.4799988 129.2781208  38.8595137 111.6196886
 131.0400012  39.8794997 110.0539988 131.6520012  39.3654997 109.5269988
 131.4220012  40.7574997 110.0769988 131.1753371  39.9277866 109.9850041
 116.4970012  39.2674997 109.4299988 115.7200012  39.0334997 108.9229988
 117.0270012  38.4704997 109.4389988 116.4622330  39.1276988 109.3617742
 115.3330012  39.0654997 105.2339988 115.7720012  39.6764997 104.6419988
 114.7000012  39.6034997 105.7079988 115.3074514  39.2219257 105.2170930
 121.0760012  39.1944997 109.2439988 121.9510012  39.5824997 109.2139988
 120.9400012  38.9794997 110.1659988 121.1773695  39.2185184 109.3646440
 126.6330012  39.2244997 110.8929988 126.7090012  39.3194997 109.9429988
 126.3580012  38.3164997 111.0219988 126.6062321  39.1147867 110.7805079
 127.9860012  39.2504997 106.5849988 127.2840012  39.8654997 106.3749988
 127.5420012  38.4124997 106.7159988 127.8296450  39.2215639 106.5739000
 122.2200012  41.2744997 106.1329988 122.3980012  40.6284997 106.8159988
 122.1670012  42.1084997 106.5999988 122.2371999  41.2988009 106.2895917
 124.0990012  56.2234997 104.5289988 124.9650012  56.5894997 104.3509988
 123.8520012  55.7834997 103.7149988 124.1842392  56.2141756 104.3946289
 130.8080012  55.7864997 107.2079988 130.6130012  55.0384997 106.6429988
 130.7690012  56.5444997 106.6249988 130.7760380  55.7866099 107.0518384
 116.4550012  39.7814997 118.9479988 116.0890012  39.0164997 119.3899988
 117.3680012  39.8104997 119.2339988 116.5282736  39.6805640 119.0472502
 118.4280012  39.1324997 120.4839988 119.3260012  38.8584997 120.2989988
 118.0410012  38.3894997 120.9479988 118.4986612  38.9945914 120.5213643
 126.8490012  38.4644997 120.6659988 126.9260012  38.0384997 121.5199988
 127.7430012  38.4784997 120.3229988 126.9803428  38.4080879 120.7365310
 130.0250012  54.5374997 119.3579988 129.2430012  54.3514997 118.8379988
 129.9530012  55.4664997 119.5759988 129.9082274  54.6376643 119.3163018
 144.4310012  48.4234997 109.3889988 144.5200012  49.3674997 109.2569988
 143.7930012  48.1484997 108.7309988 144.3569081  48.5154830 109.2819614
 143.3640012  47.6784997 112.8079988 143.3260012  47.0324997 113.5129988
 143.0420012  47.2124997 112.0369988 143.3152333  47.5269408 112.8002978
 135.7330012  47.2934997 114.4009988 135.7740012  46.6674997 115.1239988
 136.4360012  47.9174997 114.5829988 135.8336363  47.2921196 114.5246044
 136.6560012  51.7434997 112.9359988 136.2870012  50.9414997 112.5659988
 137.5970012  51.5744997 112.9819988 136.7327289  51.6110153 112.8916316
 133.2660012  45.4034997 108.3289988 132.8190012  46.2494997 108.3099988
 132.7050012  44.8234997 107.8129988 133.1289900  45.4409916 108.2566801
 133.9770012  47.5654997 110.4539988 134.1900012  46.7954997 110.9819988
 134.7150012  47.6544997 109.8509988 134.1059044  47.4721968 110.4447123
 144.1820012  55.7224997 111.3209988 144.8020012  55.0454997 111.0479988
 143.9740012  55.5044997 112.2299988 144.2386726  55.6004800 111.4064812
 141.7540012  50.1114997 113.2139988 142.0580012  49.4254997 112.6189988
 142.4750012  50.2294997 113.8319988 141.8930671  50.0336305 113.2161816
 144.8950012  44.5054997 113.5409988 145.0370012  43.5594997 113.5619988
 144.7880012  44.7124997 112.6129988 144.8999919  44.4038246 113.4183408
 138.0490012  42.6064997 110.8139988 138.0930012  43.4664997 110.3949988
 137.5920012  42.0544997 110.1799988 137.9932240  42.6494422 110.6709864
 134.6700012  45.0034997 111.5759988 135.3230012  44.4534997 112.0079988
 134.6940012  44.7294997 110.6589988 134.7626683  44.8911466 111.5112123
 139.8260012  46.5534997 110.7909988 140.4420012  46.0274997 111.3009988
 139.2400012  45.9134997 110.3879988 139.8310810  46.3949208 110.8063173
 136.8600012  41.5244997 114.8879988 136.6410012  42.0544997 114.1219988
 136.1920012  41.7514997 115.5349988 136.7397600  41.6276906 114.8706379
 144.2290012  51.0244997 108.4319988 143.9330012  50.7024997 107.5809988
 143.9040012  51.9244997 108.4729988 144.1446371  51.1020215 108.3211801
 139.4290012  49.2004997 115.1749988 138.6890012  49.7984997 115.2789988
 140.1430012  49.7544997 114.8599988 139.4242237  49.3572831 115.1466465
 136.4530012  43.4164997 112.8399988 137.0670012  44.0494997 113.2129988
 136.9650012  42.9444997 112.1839988 136.6061981  43.4392267 112.8022908
 137.8360012  51.1644997 115.9619988 137.8310012  52.0444997 115.5839988
 136.9830012  51.0814997 116.3869988 137.7199464  51.2736117 115.9677907
 133.9570012  50.8354997 106.7439988 133.6850012  51.0644997 105.8559988
 134.0030012  51.6734997 107.2049988 133.9259482  50.9801318 106.6846273
 140.8860012  38.8304997 112.3399988 140.7690012  37.8814997 112.2859988
 140.0310012  39.1624997 112.6139988 140.7544212  38.7455571 112.3696497
 143.1530012  47.6674997 106.8409988 142.4410012  48.2024997 106.4889988
 143.8440012  47.7234997 106.1809988 143.1490132  47.7482543 106.7036289
 143.2060012  46.1254997 103.8799988 143.9070012  46.1474997 104.5309988
 143.5090012  45.4974997 103.2229988 143.3428133  46.0437070 103.8803369
 138.2040012  48.5074997 109.6749988 137.8730012  48.1374997 108.8569988
 138.7920012  47.8374997 110.0219988 138.2381873  48.3661156 109.6098102
 139.5700012  51.9354997 112.3559988 139.4760012  51.3574997 111.5999988
 140.3000012  51.5644997 112.8529988 139.6557387  51.8061663 112.3195342
 138.5700012  47.2764997 113.3089988 139.1360012  47.3974997 112.5459988
 138.8890012  47.9134997 113.9469988 138.6905474  47.3792219 113.2909862
 144.8790012  52.7794997 114.0429988 144.6390012  53.4414997 114.6909988
 144.6810012  51.9454997 114.4679988 144.8193808  52.7573134 114.1891524
 139.4500012  51.6754997 118.0259988 139.1390012  52.4574997 118.4809988
 138.8000012  51.5224997 117.3399988 139.3195558  51.7619105 117.9955871
 136.3700012  47.8734997 117.2539988 136.4410012  48.5244997 117.9529988
 135.4800012  47.9764997 116.9189988 136.2593005  47.9765427 117.3043495
 143.1560012  53.7764997 108.9129988 143.6300012  54.0714997 109.6899988
 142.5930012  54.5144997 108.6799988 143.1448184  53.9167247 108.9879628
 137.6900012  53.7474997 118.7889988 137.6970012  53.6114997 117.8419988
 136.7740012  53.6294997 119.0409988 137.5671714  53.7129430 118.6934666
 133.2870012  49.9404997 116.0789988 132.7860012  49.9124997 115.2639988
 133.2920012  49.0344997 116.3889988 133.2190944  49.8142396 116.0093226
 133.0370012  52.7204997 112.9629988 133.9830012  52.5764997 112.9439988
 132.9250012  53.5044997 113.4999988 133.1512727  52.8068046 113.0330072
 142.2140012  52.9604997 117.5219988 142.3010012  53.7864997 117.9969988
 141.3500012  52.6304997 117.7709988 142.1091964  53.0289878 117.6206549
 142.6280012  56.7324997 107.3279988 142.5530012  56.6114997 106.3809988
 142.6610012  57.6824997 107.4459988 142.6222068  56.8442646 107.2144967
 136.2810012  55.5214997 109.1089988 136.4340012  55.1734997 109.9869988
 135.4310012  55.1654997 108.8539988 136.1869166  55.4256216 109.1948079
 135.5360012  51.2634997 117.1229988 135.7520012  50.9024997 117.9819988
 134.6810012  50.8894997 116.9129988 135.4499292  51.1634111 117.2123386
 138.1550012  39.7334997 113.1179988 137.2930012  39.6464997 112.7099988
 138.1320012  40.5894997 113.5459988 138.0340409  39.8372883 113.1200589
 142.8180012  39.4554997 116.4929988 143.2380012  39.0404997 117.2459988
 141.8850012  39.2774997 116.6099988 142.7493644  39.3745900 116.6119539
 142.4790012  41.9484997 103.7779988 142.2260012  41.9674997 104.7009988
 142.2230012  41.0764997 103.4759988 142.4097481  41.8332558 103.8636175
 138.2460012  44.6994997 114.2129988 137.6040012  44.6584997 114.9219988
 138.2830012  45.6254997 113.9749988 138.1630664  44.8191430 114.2779219
 138.2430012  44.9204997 109.1249988 137.3500012  44.5794997 109.0659988
 138.6930012  44.5434997 108.3689988 138.1818130  44.8229631 109.0147702
 143.7780012  45.3364997 107.9419988 143.3690012  46.1514997 107.6509988
 144.4990012  45.1964997 107.3279988 143.8194537  45.4292018 107.8191342
 142.8800012  45.5114997 119.4299988 142.3180012  44.8074997 119.7509988
 143.7070012  45.3914997 119.8979988 142.9147095  45.3987883 119.5372330
 144.7830012  44.7824997 110.7559988 144.5880012  45.3874997 110.0409988
 144.9640012  43.9484997 110.3219988 144.7807614  44.7526300 110.5994405
 135.9960012  45.0194997 116.0799988 135.9580012  45.4194997 116.9489988
 135.5050012  44.2024997 116.1709988 135.9244684  44.9638069 116.2111059
 132.6040012  42.1354997 109.9309988 133.2350012  42.1064997 110.6499988
 133.0530012  41.7104997 109.1999988 132.7510918  42.0740836 109.9306441
 144.0470012  46.4204997 115.4269988 144.3700012  45.7894997 114.7839988
 143.6070012  45.8854997 116.0879988 144.0317484  46.2618387 115.4283198
 140.8240012  42.3474997 110.2109988 139.9130012  42.4044997 110.4999988
 141.3300012  42.2874997 111.0219988 140.7676899  42.3471941 110.3601184
 135.6530012  43.9764997 109.0379988 134.7630012  44.0764997 108.6979988
 135.9490012  43.1344997 108.6919988 135.5712823  43.8763545 108.9447213
 139.3060012  43.9764997 106.6949988 140.2370012  44.1054997 106.8729988
 139.0910012  44.6464997 106.0449988 139.4044247  44.0846565 106.6315747
 136.1150012  49.7284997 119.3599988 136.8470012  49.9824997 119.9219988
 135.3350012  49.9324997 119.8759988 136.1097073  49.7908160 119.5066151
 142.1440012  45.1354997 112.0979988 142.7090012  44.5884997 111.5509988
 141.9970012  44.6134997 112.8869988 142.2013380  44.9902259 112.1298695
 137.1460012  41.2714997 108.5169988 136.8290012  40.3694997 108.4809988
 137.9280012  41.2734997 107.9639988 137.2082408  41.1482474 108.4373569
 140.7710012  43.5234997 114.5119988 139.9350012  43.9774997 114.6229988
 141.2950012  43.7994997 115.2639988 140.7275416  43.6228660 114.6288119
 141.3150012  49.7364997 106.1969988 140.5700012  49.2294997 105.8749988
 141.1810012  49.7854997 107.1439988 141.1948776  49.6736940 106.2808647
 142.8340012  49.9204997 117.4339988 142.4890012  49.5394997 118.2409988
 142.6340012  50.8544997 117.5049988 142.7597527  49.9945135 117.5540689
 136.4400012  49.0314997 111.9669988 137.1850012  49.0294997 111.3659988
 136.5180012  48.2084997 112.4479988 136.5524995  48.9198887 111.9498282
 143.4410012  51.1954997 105.2229988 143.1450012  52.0214997 105.6039988
 142.7380012  50.5754997 105.4189988 143.3054914  51.2248199 105.3016443
 133.4480012  47.4924997 117.2819988 133.6710012  47.0744997 118.1139988
 132.8460012  46.8794997 116.8589988 133.3971759  47.3524668 117.3387022
 140.4640012  47.0094997 119.4949988 140.1680012  46.8434997 118.5999988
 141.3960012  46.7894997 119.4839988 140.5494166  46.9570640 119.3710536
 138.8150012  52.5494997 109.3709988 139.3420012  53.3224997 109.1709988
 137.9350012  52.7744997 109.0689988 138.7682031  52.6857545 109.3027912
 140.2420012  50.2124997 108.9469988 140.0010012  51.1374997 108.9889988
 139.5010012  49.7534997 109.3439988 140.1089225  50.2770933 109.0063742
 140.7570012  54.3614997 115.2629988 141.1190012  55.2164997 115.0289988
 141.2880012  54.0694997 116.0029988 140.8784473  54.4391060 115.3310855
 138.9250012  55.2344997 108.4929988 137.9750012  55.3394997 108.5439988
 139.2770012  56.0544997 108.8369988 138.8424195  55.3598800 108.5465502
 144.3010012  50.4604997 114.9629988 143.8750012  50.2334997 115.7899988
 144.8810012  49.7224997 114.7809988 144.3211868  50.3295299 115.0515830
 135.0820012  42.2454997 116.8399988 134.1890012  42.5844997 116.7719988
 134.9830012  41.3904997 117.2579988 134.9464164  42.1762588 116.8872235
 134.7330012  54.0504997 115.2749988 134.9500012  53.1184997 115.2439988
 134.9790012  54.3244997 116.1579988 134.7959549  53.9600636 115.3901763
 140.5950012  52.5014997 102.4839988 140.8340012  51.7534997 101.9369988
 140.3260012  52.1134997 103.3169988 140.5913675  52.3466638 102.5216865
 139.5320012  52.0714997 104.9399988 139.6780012  51.5514997 105.7299988
 139.5290012  52.9784997 105.2469988 139.5515792  52.1228842 105.0896117
 143.8160012  41.9864997 115.7299988 144.5150012  42.0604997 116.3799988
 143.4350012  41.1224997 115.8839988 143.8601767  41.8797624 115.8398322
 144.6010012  41.6384997 106.8269988 144.8210012  42.1104997 106.0239988
 145.1590012  42.0334997 107.4969988 144.7064968  41.7564285 106.8077331
 142.2690012  53.7694997 105.6899988 141.4530012  54.2664997 105.7419988
 142.7990012  54.2444997 105.0499988 142.2289161  53.9017722 105.6105956
 141.8010012  43.3664997 107.6619988 142.6130012  43.8714997 107.7079988
 141.5560012  43.2214997 108.5759988 141.8790520  43.4160375 107.7918517
 142.3360012  44.3524997 116.8459988 142.4550012  44.9264997 117.6039988
 142.9920012  43.6644997 116.9609988 142.4409025  44.3379858 116.9651321
 142.6840012  40.4474997 108.5999988 142.3380012  41.0654997 109.2439988
 143.3430012  40.9484997 108.1179988 142.7256968  40.5996278 108.6229383
 139.6080012  54.8134997 105.6709988 139.7680012  55.6124997 105.1709988
 139.4100012  55.1194997 106.5559988 139.6031637  54.9644020 105.7221144
 136.6010012  51.9384997 104.3479988 137.1930012  52.6374997 104.6239988
 137.0600012  51.5054997 103.6279988 136.7441142  51.9757049 104.2884830
 135.7250012  39.3844997 112.1369988 135.4960012  39.4434997 111.2089988
 135.2820012  38.5924997 112.4429988 135.6338530  39.2855753 112.0514786
 134.6550012  53.3244997 108.2969988 133.8230012  53.7974997 108.3239988
 135.2010012  53.8344997 107.6989988 134.6150352  53.4581332 108.2198463
 133.9430012  55.9374997 119.6269988 134.4840012  55.7204997 120.3869988
 133.4620012  55.1314997 119.4369988 133.9519951  55.7989270 119.7052576
 138.5410012  54.8564997 121.2469988 139.3080012  54.3974997 121.5879988
 138.5190012  54.6304997 120.3179988 138.6431275  54.7630186 121.1680101
 142.6330012  54.3644997 102.6229988 141.9890012  53.7334997 102.9439988
 143.3950012  53.8334997 102.3909988 142.6478077  54.2062920 102.6356011
 133.8500012  49.7474997 120.5809988 133.9940012  48.8454997 120.2949988
 133.0780012  50.0334997 120.0939988 133.7652753  49.6626816 120.4759505
 140.5060012  49.7174997 120.0139988 140.1770012  49.9884997 119.1569988
 140.6580012  48.7764997 119.9269988 140.4814809  49.6273862 119.8848244
 143.5440012  51.1384997 102.4499988 143.2750012  51.3184997 103.3509988
 143.3380012  50.2124997 102.3179988 143.4793427  51.0380261 102.5555073
 134.6830012  46.9474997 120.0009988 135.0910012  46.0904997 119.8799988
 134.4230012  46.9624997 120.9219988 134.7037568  46.8320807 120.1089588
 138.6300012  45.9564997 117.3759988 138.0120012  46.6314997 117.6559988
 138.9740012  46.2774997 116.5419988 138.5919132  46.0922411 117.3016262
 143.6500012  48.4284997 120.6529988 144.6030012  48.5114997 120.6259988
 143.4890012  47.7164997 121.2729988 143.7586426  48.3436746 120.7330579
 138.9690012  43.3114997 118.4579988 139.1190012  42.5824997 117.8559988
 138.9720012  44.0884997 117.8989988 138.9899302  43.3167851 118.3000692
 139.3820012  41.6814997 115.9509988 139.9180012  42.1324997 115.2989988
 138.5300012  41.5734997 115.5279988 139.3402178  41.7286390 115.8045756
 140.9640012  47.1204997 116.1899988 141.7140012  46.9644997 115.6169988
 140.6250012  47.9724997 115.9149988 141.0208921  47.2142968 116.0743561
 137.4480012  44.5094997 120.3699988 136.6810012  43.9774997 120.1589988
 138.1270012  44.1994997 119.7699988 137.4347877  44.3948300 120.2600716
 140.1880012  39.1374997 116.3819988 140.0890012  40.0844997 116.2769988
 139.4450012  38.7654997 115.9059988 140.0741184  39.2165863 116.3033621
 141.4520012  43.4594997 119.9459988 141.2160012  43.2394997 120.8469988
 140.6680012  43.2524997 119.4359988 141.3138504  43.4014586 120.0003431
 144.1670012  42.5864997 119.0209988 143.2200012  42.6184997 119.1539988
 144.4800012  41.9614997 119.6749988 144.0796707  42.5063998 119.1276060
 135.6280012  42.4304997 120.0739988 135.8400012  41.7234997 119.4639988
 135.5170012  41.9924997 120.9179988 135.6419721  42.2747084 120.1046843
 140.4090012  38.4314997 119.0529988 141.1210012  37.7914997 119.0389988
 140.3080012  38.6984997 118.1399988 140.4928066  38.3800079 118.9275677
 140.7630012  40.1144997 121.1069988 140.6310012  39.6384997 120.2869988
 140.1640012  40.8584997 121.0519988 140.6639071  40.1499618 120.9872886
 140.3090012  56.9974997 104.2829988 141.2420012  57.1554997 104.4269988
 140.0450012  57.6724997 103.6589988 140.4009888  57.1104510 104.2182842
 133.8780012  51.6334997 103.7659988 134.7920012  51.7124997 104.0399988
 133.8850012  50.9464997 103.0999988 134.0041131  51.5513961 103.7134393
 132.5270012  57.0264997 108.8439988 131.8800012  56.5644997 108.3109988
 132.8810012  56.3544997 109.4259988 132.4863849  56.8724723 108.8497959
 133.3970012  55.1074997 110.6479988 133.0620012  54.2274997 110.8199988
 133.6190012  55.4524997 111.5129988 133.3811783  55.0337500 110.7884208
 133.4770012  48.1824997 113.0999988 133.6610012  48.1004997 112.1639988
 134.3260012  48.0584997 113.5229988 133.6170151  48.1545073 113.0291451
 133.0740012  43.4534997 119.2409988 133.9940012  43.3314997 119.4769988
 132.6250012  42.7034997 119.6299988 133.1391580  43.3353727 119.3259006
 134.2950012  41.7654997 112.1319988 134.7410012  40.9734997 112.4339988
 134.7620012  42.4814997 112.5619988 134.4190831  41.7540685 112.2314006
 132.5990012  44.7644997 113.2009988 133.0910012  44.5434997 112.4099988
 132.9620012  45.6054997 113.4819988 132.7153126  44.8478357 113.1307531
 132.9130012  41.0224997 107.2549988 131.9880012  41.2314997 107.1259988
 133.3670012  41.5064997 106.5649988 132.8477292  41.1165343 107.1440720
 132.8770012  39.7604997 115.5989988 132.2120012  39.5144997 116.2429988
 132.4340012  40.3824997 115.0219988 132.7261318  39.8109410 115.6090898
 135.0690012  52.9354997 119.7439988 134.2480012  53.1104997 119.2829988
 134.8160012  52.8624997 120.6639988 134.9225585  52.9495544 119.8053561
 138.0230012  53.9104997 116.0019988 137.5980012  54.7194997 115.7199988
 138.9270012  53.9954997 115.6999988 138.0869975  54.0329300 115.9224816
 142.3340012  55.3094997 118.9619988 142.5190012  54.9754997 119.8399988
 143.1800012  55.6184997 118.6399988 142.4737539  55.3056047 119.0385605
 144.6790012  56.5954997 118.2059988 145.3560012  55.9624997 117.9659988
 145.0010012  56.9964997 119.0129988 144.8151637  56.5631154 118.2822793
 135.4250012  57.1664997 116.0499988 134.7040012  57.6064997 115.5989988
 135.0590012  56.9154997 116.8979988 135.2769651  57.1927242 116.1029640
 137.8920012  56.7664997 115.0799988 137.0270012  56.8384997 115.4839988
 137.8370012  57.3134997 114.2959988 137.7662085  56.8502685 115.0293362
 142.6020012  56.6544997 114.2549988 142.1460012  57.1834997 113.6009988
 142.7650012  57.2574997 114.9799988 142.5616068  56.8084607 114.2634838
 134.8390012  55.7894997 112.9599988 134.8210012  55.3644997 113.8169988
 135.6440012  55.4714997 112.5509988 134.9453529  55.6883013 113.0220946
 136.9810012  54.4994997 111.6149988 136.7620012  53.5834997 111.7849988
 137.8050012  54.6394997 112.0809988 137.0624420  54.3930520 111.7012774
 139.5180012  54.9694997 112.4639988 139.7310012  54.0814997 112.1769988
 139.5820012  54.9354997 113.4179988 139.5558231  54.8433102 112.5537397
 143.0260012  40.6334997 111.6079988 142.3520012  40.0044997 111.8639988
 143.5900012  40.1494997 111.0049988 143.0099230  40.4818744 111.5615340
 135.3530012  39.2674997 109.4299988 134.5760012  39.0334997 108.9229988
 135.8830012  38.4704997 109.4389988 135.3182330  39.1276988 109.3617742
 134.1890012  39.0654997 105.2339988 134.6280012  39.6764997 104.6419988
 133.5560012  39.6034997 105.7079988 134.1634514  39.2219257 105.2170930
 139.9320012  39.1944997 109.2439988 140.8070012  39.5824997 109.2139988
 139.7960012  38.9794997 110.1659988 140.0333695  39.2185184 109.3646440
 134.0900012  55.0134997 106.1309988 133.4050012  54.9754997 105.4639988
 134.0940012  55.9264997 106.4199988 133.9966998  55.1316733 106.0786771
 141.0760012  41.2744997 106.1329988 141.2540012  40.6284997 106.8159988
 141.0230012  42.1084997 106.5999988 141.0931999  41.2988009 106.2895917
 142.9550012  56.2234997 104.5289988 143.8210012  56.5894997 104.3509988
 142.7080012  55.7834997 103.7149988 143.0402392  56.2141756 104.3946289
 135.3110012  39.7814997 118.9479988 134.9450012  39.0164997 119.3899988
 136.2240012  39.8104997 119.2339988 135.3842736  39.6805640 119.0472502
 137.2840012  39.1324997 120.4839988 138.1820012  38.8584997 120.2989988
 136.8970012  38.3894997 120.9479988 137.3546612  38.9945914 120.5213643
  12.4390012  67.2794997 109.3889988  12.5280012  68.2234997 109.2569988
  11.8010012  67.0044997 108.7309988  12.3649081  67.3714830 109.2819614
  11.3720012  66.5344997 112.8079988  11.3340012  65.8884997 113.5129988
  11.0500012  66.0684997 112.0369988  11.3232333  66.3829408 112.8002978
   3.7410012  66.1494997 114.4009988   3.7820012  65.5234997 115.1239988
   4.4440012  66.7734997 114.5829988   3.8416363  66.1481196 114.5246044
  15.0780012  69.4734997 111.1089988  14.6380012  68.7534997 111.5599988
  15.0650012  70.1944997 111.7389988  15.0160226  69.4723731 111.2558494
   4.6640012  70.5994997 112.9359988   4.2950012  69.7974997 112.5659988
   5.6050012  70.4304997 112.9819988   4.7407289  70.4670153 112.8916316
   1.2740012  64.2594997 108.3289988   0.8270012  65.1054997 108.3099988
   0.7130012  63.6794997 107.8129988   1.1369900  64.2969916 108.2566801
   1.9850012  66.4214997 110.4539988   2.1980012  65.6514997 110.9819988
   2.7230012  66.5104997 109.8509988   2.1139044  66.3281968 110.4447123
  12.1900012  74.5784997 111.3209988  12.8100012  73.9014997 111.0479988
  11.9820012  74.3604997 112.2299988  12.2466726  74.4564800 111.4064812
   9.7620012  68.9674997 113.2139988  10.0660012  68.2814997 112.6189988
  10.4830012  69.0854997 113.8319988   9.9010671  68.8896305 113.2161816
  18.4250012  60.5684997 114.0749988  18.4740012  61.1784997 114.8099988
  18.8500012  61.0294997 113.3519988  18.4891746  60.7143796 114.0779175
  12.9030012  63.3614997 113.5409988  13.0450012  62.4154997 113.5619988
  12.7960012  63.5684997 112.6129988  12.9079919  63.2598246 113.4183408
   6.0570012  61.4624997 110.8139988   6.1010012  62.3224997 110.3949988
   5.6000012  60.9104997 110.1799988   6.0012240  61.5054422 110.6709864
  13.7800012  61.5934997 109.2149988  14.4260012  61.2644997 109.8389988
  14.2900012  62.1114997 108.5919988  13.9374299  61.6184450 109.2162731
   2.6780012  63.8594997 111.5759988   3.3310012  63.3094997 112.0079988
   2.7020012  63.5854997 110.6589988   2.7706683  63.7471466 111.5112123
   7.8340012  65.4094997 110.7909988   8.4500012  64.8834997 111.3009988
   7.2480012  64.7694997 110.3879988   7.8390810  65.2509208 110.8063173
  18.8160012  62.0464997 116.3099988  18.1280012  62.7044997 116.2149988
  18.8320012  61.8494997 117.2469988  18.7239540  62.1099819 116.4235990
   4.8680012  60.3804997 114.8879988   4.6490012  60.9104997 114.1219988
   4.2000012  60.6074997 115.5349988   4.7477600  60.4836906 114.8706379
  12.2370012  69.8804997 108.4319988  11.9410012  69.5584997 107.5809988
  11.9120012  70.7804997 108.4729988  12.1526371  69.9580215 108.3211801
   7.4370012  68.0564997 115.1749988   6.6970012  68.6544997 115.2789988
   8.1510012  68.6104997 114.8599988   7.4322237  68.2132831 115.1466465
  15.5440012  60.8844997 111.1949988  15.3280012  60.1184997 111.7279988
  16.1990012  61.3564997 111.7079988  15.6030632  60.8435889 111.3372861
   4.4610012  62.2724997 112.8399988   5.0750012  62.9054997 113.2129988
   4.9730012  61.8004997 112.1839988   4.6141981  62.2952267 112.8022908
   5.8440012  70.0204997 115.9619988   5.8390012  70.9004997 115.5839988
   4.9910012  69.9374997 116.3869988   5.7279464  70.1296117 115.9677907
   1.9650012  69.6914997 106.7439988   1.6930012  69.9204997 105.8559988
   2.0110012  70.5294997 107.2049988   1.9339482  69.8361318 106.6846273
  15.5900012  71.3134997 113.4569988  14.6490012  71.3714997 113.6189988
  15.8670012  72.2194997 113.3199988  15.4984679  71.4439443 113.4606815
  15.8910012  59.5994997 114.8749988  15.1550012  60.2104997 114.8369988
  16.5740012  60.0144997 114.3479988  15.8826541  59.7391374 114.7985832
   8.8940012  57.6864997 112.3399988   8.7770012  56.7374997 112.2859988
   8.0390012  58.0184997 112.6139988   8.7624212  57.6015571 112.3696497
  13.8420012  73.0944997 110.0819988  14.2680012  72.3874997 109.5969988
  14.1590012  73.8954997 109.6659988  13.9431683  73.1061017 109.9593680
  15.0020012  70.9954997 108.5909988  14.7440012  70.3054997 107.9799988
  15.0730012  70.5524997 109.4369988  14.9762856  70.8412124 108.6216885
  16.6880012  69.5614997 117.0679988  16.8280012  68.9704997 116.3289988
  16.8550012  70.4344997 116.7119988  16.7297411  69.5985428 116.9186894
  11.1610012  66.5234997 106.8409988  10.4490012  67.0584997 106.4889988
  11.8520012  66.5794997 106.1809988  11.1570132  66.6042543 106.7036289
  11.2140012  64.9814997 103.8799988  11.9150012  65.0034997 104.5309988
  11.5170012  64.3534997 103.2229988  11.3508133  64.8997070 103.8803369
  18.5300012  65.9014997 115.1339988  17.8770012  66.5964997 115.2239988
  18.9950012  66.1114997 114.3249988  18.5035274  66.0250643 115.0368462
  14.5660012  66.7334997 107.7929988  13.8340012  66.9614997 108.3659988
  15.0140012  66.0194997 108.2469988  14.5262725  66.6682145 107.9328816
  14.4640012  64.9074997 116.8599988  14.5440012  65.6704997 117.4319988
  13.8620012  65.1864997 116.1699988  14.3935756  65.0497134 116.8450589
   6.2120012  67.3634997 109.6749988   5.8810012  66.9934997 108.8569988
   6.8000012  66.6934997 110.0219988   6.2461873  67.2221156 109.6098102
   7.5780012  70.7914997 112.3559988   7.4840012  70.2134997 111.5999988
   8.3080012  70.4204997 112.8529988   7.6637386  70.6621663 112.3195342
   6.5780012  66.1324997 113.3089988   7.1440012  66.2534997 112.5459988
   6.8970012  66.7694997 113.9469988   6.6985474  66.2352219 113.2909862
  12.8870012  71.6354997 114.0429988  12.6470012  72.2974997 114.6909988
  12.6890012  70.8014997 114.4679988  12.8273808  71.6133134 114.1891524
   7.4580012  70.5314997 118.0259988   7.1470012  71.3134997 118.4809988
   6.8080012  70.3784997 117.3399988   7.3275558  70.6179105 117.9955871
  13.4370012  65.8954997 105.4779988  14.0170012  66.0454997 106.2249988
  13.8510012  66.3664997 104.7539988  13.5722997  65.9796578 105.4824058
   4.3780012  66.7294997 117.2539988   4.4490012  67.3804997 117.9529988
   3.4880012  66.8324997 116.9189988   4.2673005  66.8325427 117.3043495
  11.1640012  72.6324997 108.9129988  11.6380012  72.9274997 109.6899988
  10.6010012  73.3704997 108.6799988  11.1528184  72.7727247 108.9879628
   5.6980012  72.6034997 118.7889988   5.7050012  72.4674997 117.8419988
   4.7820012  72.4854997 119.0409988   5.5751714  72.5689430 118.6934666
  17.1360012  57.6454997 105.2909988  16.2360012  57.7844997 105.5859988
  17.3880012  58.4764997 104.8889988  17.0468702  57.7769074 105.2770205
   5.2020012  66.4334997 107.2639988   4.9100012  67.2014997 106.7739988
   4.5280012  65.7734997 107.1019988   5.0708111  66.4495587 107.1748978
  18.3250012  72.0114997 103.6669988  18.3990012  72.9504997 103.8379988
  19.2310012  71.7064997 103.6109988  18.4575100  72.0986722 103.6828119
   1.2950012  68.7964997 116.0789988   0.7940012  68.7684997 115.2639988
   1.3000012  67.8904997 116.3889988   1.2270944  68.6702396 116.0093226
   1.0450012  71.5764997 112.9629988   1.9910012  71.4324997 112.9439988
   0.9330012  72.3604997 113.4999988   1.1592727  71.6628046 113.0330072
  19.2430012  72.2424997 118.6459988  19.1940012  71.2874997 118.6089988
  18.4160012  72.5104997 119.0469988  19.1244940  72.1478998 118.6951375
  10.2220012  71.8164997 117.5219988  10.3090012  72.6424997 117.9969988
   9.3580012  71.4864997 117.7709988  10.1171964  71.8849878 117.6206549
  10.6360012  75.5884997 107.3279988  10.5610012  75.4674997 106.3809988
  10.6690012  76.5384997 107.4459988  10.6302068  75.7002646 107.2144967
   4.2890012  74.3774997 109.1089988   4.4420012  74.0294997 109.9869988
   3.4390012  74.0214997 108.8539988   4.1949166  74.2816216 109.1948079
  13.4070012  74.6684997 107.0789988  12.4710012  74.7684997 107.2579988
  13.6870012  73.9594997 107.6579988  13.3169553  74.5863406 107.1817087
  16.3950012  63.7354997 119.1259988  15.9880012  64.2164997 118.4049988
  16.4360012  62.8304997 118.8179988  16.3448437  63.6789374 118.9856683
   3.5440012  70.1194997 117.1229988   3.7600012  69.7584997 117.9819988
   2.6890012  69.7454997 116.9129988   3.4579292  70.0194111 117.2123386
   6.1630012  58.5894997 113.1179988   5.3010012  58.5024997 112.7099988
   6.1400012  59.4454997 113.5459988   6.0420409  58.6932883 113.1200589
  10.8260012  58.3114997 116.4929988  11.2460012  57.8964997 117.2459988
   9.8930012  58.1334997 116.6099988  10.7573644  58.2305900 116.6119539
  14.1520012  62.0674997 117.3459988  13.6380012  61.9414997 118.1439988
  13.9970012  62.9794997 117.1019988  14.0606852  62.1736132 117.4222158
   6.2540012  63.5554997 114.2129988   5.6120012  63.5144997 114.9219988
   6.2910012  64.4814997 113.9749988   6.1710664  63.6751430 114.2779219
   6.2510012  63.7764997 109.1249988   5.3580012  63.4354997 109.0659988
   6.7010012  63.3994997 108.3689988   6.1898130  63.6789631 109.0147702
  11.7860012  64.1924997 107.9419988  11.3770012  65.0074997 107.6509988
  12.5070012  64.0524997 107.3279988  11.8274537  64.2852018 107.8191342
  10.8880012  64.3674997 119.4299988  10.3260012  63.6634997 119.7509988
  11.7150012  64.2474997 119.8979988  10.9227095  64.2547883 119.5372330
  12.7910012  63.6384997 110.7559988  12.5960012  64.2434997 110.0409988
  12.9720012  62.8044997 110.3219988  12.7887614  63.6086300 110.5994405
   4.0040012  63.8754997 116.0799988   3.9660012  64.2754997 116.9489988
   3.5130012  63.0584997 116.1709988   3.9324684  63.8198069 116.2111059
   0.6120012  60.9914997 109.9309988   1.2430012  60.9624997 110.6499988
   1.0610012  60.5664997 109.1999988   0.7590918  60.9300836 109.9306441
   1.8860012  61.7374997 105.3549988   2.3600012  62.3284997 104.7699988
   1.1690012  62.2684997 105.7019988   1.8539341  61.8900867 105.3218836
  12.0550012  65.2764997 115.4269988  12.3780012  64.6454997 114.7839988
  11.6150012  64.7414997 116.0879988  12.0397484  65.1178387 115.4283198
   8.8320012  61.2034997 110.2109988   7.9210012  61.2604997 110.4999988
   9.3380012  61.1434997 111.0219988   8.7756899  61.2031941 110.3601184
   3.6610012  62.8324997 109.0379988   2.7710012  62.9324997 108.6979988
   3.9570012  61.9904997 108.6919988   3.5792823  62.7323545 108.9447213
   7.3140012  62.8324997 106.6949988   8.2450012  62.9614997 106.8729988
   7.0990012  63.5024997 106.0449988   7.4124247  62.9406565 106.6315747
  13.2370012  60.4384997 113.4759988  12.5610012  60.5694997 114.1399988
  12.7520012  60.2834997 112.6649988  13.0787146  60.4355157 113.4574469
   5.9880012  64.0274997 104.2609988   5.4450012  63.6474997 103.5699988
   6.8210012  64.2214997 103.8329988   6.0263631  64.0017125 104.1084501
  16.5250012  76.1104997 119.7519988  16.7250012  76.5344997 118.9179988
  17.1800012  76.4534997 120.3589988  16.6410072  76.2149857 119.7198592
   4.1230012  68.5844997 119.3599988   4.8550012  68.8384997 119.9219988
   3.3430012  68.7884997 119.8759988   4.1177073  68.6468160 119.5066151
  10.1520012  63.9914997 112.0979988  10.7170012  63.4444997 111.5509988
  10.0050012  63.4694997 112.8869988  10.2093380  63.8462259 112.1298695
   5.1540012  60.1274997 108.5169988   4.8370012  59.2254997 108.4809988
   5.9360012  60.1294997 107.9639988   5.2162408  60.0042474 108.4373569
   8.7790012  62.3794997 114.5119988   7.9430012  62.8334997 114.6229988
   9.3030012  62.6554997 115.2639988   8.7355416  62.4788660 114.6288119
   9.3230012  68.5924997 106.1969988   8.5780012  68.0854997 105.8749988
   9.1890012  68.6414997 107.1439988   9.2028776  68.5296940 106.2808647
  16.4730012  67.7254997 114.9839988  17.1150012  68.1824997 114.4399988
  15.6430012  67.8384997 114.5209988  16.4485963  67.8032704 114.8470177
  13.2210012  61.4064997 104.3959988  12.2820012  61.5184997 104.2449988
  13.5180012  62.2634997 104.7029988  13.1327583  61.5375981 104.4168337
  10.8420012  68.7764997 117.4339988  10.4970012  68.3954997 118.2409988
  10.6420012  69.7104997 117.5049988  10.7677527  68.8505135 117.5540689
  13.9390012  63.2734997 106.0569988  14.8310012  63.1364997 106.3759988
  13.9960012  64.0644997 105.5199988  14.0686504  63.3616052 106.0280818
   4.4480012  67.8874997 111.9669988   5.1930012  67.8854997 111.3659988
   4.5260012  67.0644997 112.4479988   4.5604995  67.7758887 111.9498282
  11.4490012  70.0514997 105.2229988  11.1530012  70.8774997 105.6039988
  10.7460012  69.4314997 105.4189988  11.3134914  70.0808199 105.3016443
   1.4560012  66.3484997 117.2819988   1.6790012  65.9304997 118.1139988
   0.8540012  65.7354997 116.8589988   1.4051759  66.2084668 117.3387022
   8.4720012  65.8654997 119.4949988   8.1760012  65.6994997 118.5999988
   9.4040012  65.6454997 119.4839988   8.5574166  65.8130640 119.3710536
  13.0930012  71.2384997 117.3849988  12.1920012  71.4214997 117.1169988
  13.1270012  71.4974997 118.3049988  12.9743139  71.2985849 117.4728099
  18.7870012  69.2834997 118.5889988  17.9360012  69.5214997 118.2219988
  19.3780012  69.2664997 117.8359988  18.7502487  69.3138258 118.4368893
  17.1190012  72.2694997 106.2169988  16.7460012  71.4434997 106.5259988
  17.3970012  72.0864997 105.3189988  17.1055222  72.1317430 106.1379473
  14.2800012  67.0774997 113.2379988  13.3510012  66.8454997 113.2109988
  14.7310012  66.3004997 112.9079988  14.2139216  66.9407238 113.1896917
   6.8230012  71.4054997 109.3709988   7.3500012  72.1784997 109.1709988
   5.9430012  71.6304997 109.0689988   6.7762031  71.5417545 109.3027912
   2.5780012  66.2674997 103.9579988   3.1940012  66.8944997 104.3379988
   1.7160012  66.5834997 104.2299988   2.5457698  66.3959430 104.0467183
   8.2500012  69.0684997 108.9469988   8.0090012  69.9934997 108.9889988
   7.5090012  68.6094997 109.3439988   8.1169225  69.1330933 109.0063742
   8.7650012  73.2174997 115.2629988   9.1270012  74.0724997 115.0289988
   9.2960012  72.9254997 116.0029988   8.8864473  73.2951060 115.3310855
   6.9330012  74.0904997 108.4929988   5.9830012  74.1954997 108.5439988
   7.2850012  74.9104997 108.8369988   6.8504195  74.2158800 108.5465502
  12.3090012  69.3164997 114.9629988  11.8830012  69.0894997 115.7899988
  12.8890012  68.5784997 114.7809988  12.3291868  69.1855299 115.0515830
  14.9670012  73.8684997 117.4329988  14.3660012  73.3134997 116.9369988
  15.2490012  74.5354997 116.8059988  14.9228804  73.8826625 117.2804849
   3.0900012  61.1014997 116.8399988   2.1970012  61.4404997 116.7719988
   2.9910012  60.2464997 117.2579988   2.9544164  61.0322588 116.8872235
  15.3780012  68.9184997 106.2639988  15.1000012  68.1904997 106.8199988
  16.3050012  69.0374997 106.4689988  15.4653124  68.8348802 106.3678845
   2.7410012  72.9064997 115.2749988   2.9580012  71.9744997 115.2439988
   2.9870012  73.1804997 116.1579988   2.8039549  72.8160636 115.3901763
   7.5400012  70.9274997 104.9399988   7.6860012  70.4074997 105.7299988
   7.5370012  71.8344997 105.2469988   7.5595792  70.9788842 105.0896117
   3.9930012  68.1804997 105.4509988   3.3070012  68.5324997 106.0179988
   4.5150012  68.9434997 105.2039988   3.9696852  68.3318578 105.4952118
  11.8240012  60.8424997 115.7299988  12.5230012  60.9164997 116.3799988
  11.4430012  59.9784997 115.8839988  11.8681767  60.7357624 115.8398322
  12.6090012  60.4944997 106.8269988  12.8290012  60.9664997 106.0239988
  13.1670012  60.8894997 107.4969988  12.7144968  60.6124285 106.8077331
  10.2770012  72.6254997 105.6899988   9.4610012  73.1224997 105.7419988
  10.8070012  73.1004997 105.0499988  10.2369161  72.7577722 105.6105956
   9.8090012  62.2224997 107.6619988  10.6210012  62.7274997 107.7079988
   9.5640012  62.0774997 108.5759988   9.8870520  62.2720375 107.7918517
  10.3440012  63.2084997 116.8459988  10.4630012  63.7824997 117.6039988
  11.0000012  62.5204997 116.9609988  10.4489025  63.1939858 116.9651321
  10.6920012  59.3034997 108.5999988  10.3460012  59.9214997 109.2439988
  11.3510012  59.8044997 108.1179988  10.7336968  59.4556278 108.6229383
   7.6160012  73.6694997 105.6709988   7.7760012  74.4684997 105.1709988
   7.4180012  73.9754997 106.5559988   7.6111637  73.8204020 105.7221144
  16.5490012  61.1154997 117.6809988  15.6320012  61.3784997 117.5939988
  16.8840012  61.1124997 116.7849988  16.4688613  61.1510761 117.5478837
  15.1510012  64.8664997 111.7769988  14.3530012  64.4514997 111.4489988
  15.5960012  64.1754997 112.2679988  15.1019885  64.7163543 111.7984889
   2.9250012  63.4584997 103.4639988   2.8800012  64.3974997 103.6419988
   2.0370012  63.2224997 103.1939988   2.7988574  63.5551892 103.4518912
  16.2370012  74.1224997 113.3999988  16.0820012  74.8004997 112.7419988
  17.1700012  74.1944997 113.6029988  16.3418657  74.2249546 113.3374360
   3.7330012  58.2404997 112.1369988   3.5040012  58.2994997 111.2089988
   3.2900012  57.4484997 112.4429988   3.6418530  58.1415753 112.0514786
   2.6630012  72.1804997 108.2969988   1.8310012  72.6534997 108.3239988
   3.2090012  72.6904997 107.6989988   2.6230352  72.3141332 108.2198463
   1.9510012  74.7934997 119.6269988   2.4920012  74.5764997 120.3869988
   1.4700012  73.9874997 119.4369988   1.9599951  74.6549270 119.7052576
   6.5490012  73.7124997 121.2469988   7.3160012  73.2534997 121.5879988
   6.5270012  73.4864997 120.3179988   6.6511275  73.6190186 121.1680101
  13.1260012  72.0924997 119.9769988  12.7750012  71.2364997 120.2199988
  13.8520012  72.2354997 120.5839988  13.1760769  71.9945636 120.0923619
   1.8580012  68.6034997 120.5809988   2.0020012  67.7014997 120.2949988
   1.0860012  68.8894997 120.0939988   1.7732753  68.5186816 120.4759505
   8.5140012  68.5734997 120.0139988   8.1850012  68.8444997 119.1569988
   8.6660012  67.6324997 119.9269988   8.4894809  68.4833862 119.8848244
  14.2480012  68.4894997 117.3969988  14.9940012  69.0774997 117.2779988
  13.4910012  69.0714997 117.4609988  14.2477820  68.6487143 117.3893590
   2.6910012  65.8034997 120.0009988   3.0990012  64.9464997 119.8799988
   2.4310012  65.8184997 120.9219988   2.7117568  65.6880807 120.1089588
   6.6380012  64.8124997 117.3759988   6.0200012  65.4874997 117.6559988
   6.9820012  65.1334997 116.5419988   6.5999132  64.9482411 117.3016262
  11.6580012  67.2844997 120.6529988  12.6110012  67.3674997 120.6259988
  11.4970012  66.5724997 121.2729988  11.7666426  67.1996746 120.7330579
   6.9770012  62.1674997 118.4579988   7.1270012  61.4384997 117.8559988
   6.9800012  62.9444997 117.8989988   6.9979302  62.1727851 118.3000692
   7.3900012  60.5374997 115.9509988   7.9260012  60.9884997 115.2989988
   6.5380012  60.4294997 115.5279988   7.3482178  60.5846390 115.8045756
   8.9720012  65.9764997 116.1899988   9.7220012  65.8204997 115.6169988
   8.6330012  66.8284997 115.9149988   9.0288921  66.0702968 116.0743561
  13.3870012  63.7914997 121.2189988  13.5800012  62.8604997 121.1069988
  14.2450012  64.2164997 121.2079988  13.5292934  63.7216531 121.2022031
  14.7040012  66.5804997 119.2959988  14.4230012  67.2894997 118.7179988
  15.6470012  66.5074997 119.1449988  14.7929291  66.6676711 119.1964967
   5.4560012  63.3654997 120.3699988   4.6890012  62.8334997 120.1589988
   6.1350012  63.0554997 119.7699988   5.4427877  63.2508300 120.2600716
   8.1960012  57.9934997 116.3819988   8.0970012  58.9404997 116.2769988
   7.4530012  57.6214997 115.9059988   8.0821184  58.0725863 116.3033621
   9.4600012  62.3154997 119.9459988   9.2240012  62.0954997 120.8469988
   8.6760012  62.1084997 119.4359988   9.3218504  62.2574586 120.0003431
  12.1750012  61.4424997 119.0209988  11.2280012  61.4744997 119.1539988
  12.4880012  60.8174997 119.6749988  12.0876707  61.3623998 119.1276060
  13.8090012  60.0764997 121.0269988  13.7130012  59.1244997 121.0209988
  13.4880012  60.3454997 121.8869988  13.7524070  59.9824035 121.1425441
   3.6360012  61.2864997 120.0739988   3.8480012  60.5794997 119.4639988
   3.5250012  60.8484997 120.9179988   3.6499721  61.1307084 120.1046843
   8.4170012  57.2874997 119.0529988   9.1290012  56.6474997 119.0389988
   8.3160012  57.5544997 118.1399988   8.5008066  57.2360079 118.9275677
   8.7710012  58.9704997 121.1069988   8.6390012  58.4944997 120.2869988
   8.1720012  59.7144997 121.0519988   8.6719071  59.0059618 120.9872886
   1.8860012  70.4894997 103.7659988   2.8000012  70.5684997 104.0399988
   1.8930012  69.8024997 103.0999988   2.0121131  70.4073961 103.7134393
   0.5350012  75.8824997 108.8439988  -0.1119988  75.4204997 108.3109988
   0.8890012  75.2104997 109.4259988   0.4943849  75.7284723 108.8497959
   1.4050012  73.9634997 110.6479988   1.0700012  73.0834997 110.8199988
   1.6270012  74.3084997 111.5129988   1.3891783  73.8897501 110.7884208
  18.9530012  74.7724997 113.6289988  18.9320012  74.9574997 114.5679988
  19.6440012  75.3414997 113.2879988  19.0434618  74.8746606 113.7113864
  18.5170012  74.3404997 116.5509988  18.0290012  73.6044997 116.1789988
  19.0660012  73.9464997 117.2289988  18.5244820  74.1865889 116.5917813
  16.9670012  70.1294997 121.1889988  16.1010012  70.0244997 121.5829988
  17.3440012  70.8884997 121.6349988  16.8993308  70.2176900 121.3032393
  18.2680012  68.3864997 106.7029988  19.1180012  68.8074997 106.8299988
  18.2740012  67.6464997 107.3099988  18.3851372  68.3440803 106.8024344
  18.6630012  66.4394997 108.5259988  17.9360012  65.9604997 108.9239988
  19.2440012  66.6454997 109.2589988  18.6420473  66.4018103 108.6794528
  18.4220012  69.2244997 113.4739988  19.2550012  68.8464997 113.1939988
  18.5340012  70.1674997 113.3549988  18.5512647  69.3002218 113.4195487
  16.9080012  72.1024997 115.7809988  16.2610012  72.4274997 116.4069988
  16.3910012  71.6624997 115.1069988  16.7494029  72.0875004 115.7755827
  16.4490012  64.9604997 109.0889988  16.2990012  64.0154997 109.0689988
  16.0960012  65.2414997 109.9329988  16.3807448  64.8691481 109.2003705
   1.4850012  67.0384997 113.0999988   1.6690012  66.9564997 112.1639988
   2.3340012  66.9144997 113.5229988   1.6250151  67.0105073 113.0291451
  17.3060012  66.9304997 118.7279988  17.8890012  66.1964997 118.9199988
  17.8700012  67.7024997 118.7749988  17.4619769  66.9344227 118.7606159
  18.8020012  64.8334997 119.4129988  17.9390012  64.4544997 119.2469988
  19.4070012  64.0944997 119.3379988  18.7656119  64.6818268 119.3801528
  16.1600012  62.5434997 107.5519988  16.4400012  61.6364997 107.6759988
  16.9190012  62.9774997 107.1629988  16.3009277  62.4780942 107.5163682
  16.7720012  63.1244997 112.9879988  17.7050012  63.3364997 112.9529988
  16.5370012  63.2264997 113.9099988  16.8679244  63.1673100 113.1078892
  16.8010012  63.8614997 115.7639988  15.9580012  64.1294997 116.1299988
  17.2430012  64.6834997 115.5529988  16.7454158  64.0093291 115.7855491
   1.0820012  62.3094997 119.2409988   2.0020012  62.1874997 119.4769988
   0.6330012  61.5594997 119.6299988   1.1471580  62.1913727 119.3259006
  19.0840012  57.8414997 121.1169988  19.4340012  57.1874997 120.5119988
  19.2310012  58.6784997 120.6769988  19.1517887  57.8651548 120.9746858
  16.7730012  59.8064997 107.5999988  16.9560012  59.3574997 108.4259988
  16.1740012  59.2214997 107.1369988  16.7170202  59.6659975 107.6503275
   2.3030012  60.6214997 112.1319988   2.7490012  59.8294997 112.4339988
   2.7700012  61.3374997 112.5619988   2.4270831  60.6100685 112.2314006
   0.6070012  63.6204997 113.2009988   1.0990012  63.3994997 112.4099988
   0.9700012  64.4614997 113.4819988   0.7233126  63.7038357 113.1307531
  18.6040012  59.9504997 119.4659988  17.6860012  60.2214997 119.4309988
  18.7270012  59.4154997 118.6819988  18.4949729  59.9152508 119.3551923
  18.6400012  59.8734997 104.1279988  19.0520012  59.1524997 103.6529988
  19.3220012  60.5434997 104.1869988  18.7885885  59.8652368 104.0708915
   0.9210012  59.8784997 107.2549988  -0.0039988  60.0874997 107.1259988
   1.3750012  60.3624997 106.5649988   0.8557292  59.9725343 107.1440720
  15.6920012  74.8624997 109.2009988  16.3440012  74.5154997 108.5929988
  16.2020012  75.3514997 109.8469988  15.8502637  74.8810597 109.2050236
   0.8850012  58.6164997 115.5989988   0.2200012  58.3704997 116.2429988
   0.4420012  59.2384997 115.0219988   0.7341318  58.6669410 115.6090898
   3.0770012  71.7914997 119.7439988   2.2560012  71.9664997 119.2829988
   2.8240012  71.7184997 120.6639988   2.9305585  71.8055544 119.8053561
   6.0310012  72.7664997 116.0019988   5.6060012  73.5754997 115.7199988
   6.9350012  72.8514997 115.6999988   6.0949975  72.8889300 115.9224816
  10.3420012  74.1654997 118.9619988  10.5270012  73.8314997 119.8399988
  11.1880012  74.4744997 118.6399988  10.4817539  74.1616047 119.0385605
  12.6870012  75.4514997 118.2059988  13.3640012  74.8184997 117.9659988
  13.0090012  75.8524997 119.0129988  12.8231637  75.4191154 118.2822793
  17.6040012  58.0404997 117.2849988  16.7920012  58.3654997 116.8979988
  17.8370012  57.2804997 116.7519988  17.5242203  57.9822758 117.1598880
   3.4330012  76.0224997 116.0499988   2.7120012  76.4624997 115.5989988
   3.0670012  75.7714997 116.8979988   3.2849651  76.0487242 116.1029640
   5.9000012  75.6224997 115.0799988   5.0350012  75.6944997 115.4839988
   5.8450012  76.1694997 114.2959988   5.7742085  75.7062685 115.0293362
  10.6100012  75.5104997 114.2549988  10.1540012  76.0394997 113.6009988
  10.7730012  76.1134997 114.9799988  10.5696068  75.6644607 114.2634838
  12.9380012  74.3884997 115.1999988  12.0330012  74.5534997 114.9339988
  13.3670012  75.2414997 115.1349988  12.8721324  74.5264339 115.1547976
  15.5420012  75.9584997 115.4949988  15.3600012  76.8744997 115.2849988
  15.7190012  75.5484997 114.6489988  15.5410210  76.0284822 115.3517885
   2.8470012  74.6454997 112.9599988   2.8290012  74.2204997 113.8169988
   3.6520012  74.3274997 112.5509988   2.9533529  74.5443013 113.0220946
   4.9890012  73.3554997 111.6149988   4.7700012  72.4394997 111.7849988
   5.8130012  73.4954997 112.0809988   5.0704420  73.2490520 111.7012774
   7.5260012  73.8254997 112.4639988   7.7390012  72.9374997 112.1769988
   7.5900012  73.7914997 113.4179988   7.5638232  73.6993102 112.5537397
  11.0340012  59.4894997 111.6079988  10.3600012  58.8604997 111.8639988
  11.5980012  59.0054997 111.0049988  11.0179230  59.3378744 111.5615340
  16.1770012  57.5974997 111.7209988  16.7810012  58.1444997 111.2189988
  15.3070012  57.9164997 111.4799988  16.1421208  57.7155137 111.6196886
  17.9040012  58.7354997 110.0539988  18.5160012  58.2214997 109.5269988
  18.2860012  59.6134997 110.0769988  18.0393371  58.7837866 109.9850041
   3.3610012  58.1234997 109.4299988   2.5840012  57.8894997 108.9229988
   3.8910012  57.3264997 109.4389988   3.3262330  57.9836988 109.3617742
   2.1970012  57.9214997 105.2339988   2.6360012  58.5324997 104.6419988
   1.5640012  58.4594997 105.7079988   2.1714514  58.0779257 105.2170930
   7.9400012  58.0504997 109.2439988   8.8150012  58.4384997 109.2139988
   7.8040012  57.8354997 110.1659988   8.0413695  58.0745184 109.3646440
  13.4970012  58.0804997 110.8929988  13.5730012  58.1754997 109.9429988
  13.2220012  57.1724997 111.0219988  13.4702321  57.9707867 110.7805079
  14.8500012  58.1064997 106.5849988  14.1480012  58.7214997 106.3749988
  14.4060012  57.2684997 106.7159988  14.6936450  58.0775639 106.5739000
   2.0980012  73.8694997 106.1309988   1.4130012  73.8314997 105.4639988
   2.1020012  74.7824997 106.4199988   2.0046998  73.9876733 106.0786771
   9.0840012  60.1304997 106.1329988   9.2620012  59.4844997 106.8159988
   9.0310012  60.9644997 106.5999988   9.1011999  60.1548009 106.2895917
  10.9630012  75.0794997 104.5289988  11.8290012  75.4454997 104.3509988
  10.7160012  74.6394997 103.7149988  11.0482392  75.0701756 104.3946289
  17.6720012  74.6424997 107.2079988  17.4770012  73.8944997 106.6429988
  17.6330012  75.4004997 106.6249988  17.6400380  74.6426099 107.0518384
   3.3190012  58.6374997 118.9479988   2.9530012  57.8724997 119.3899988
   4.2320012  58.6664997 119.2339988   3.3922736  58.5365640 119.0472502
   5.2920012  57.9884997 120.4839988   6.1900012  57.7144997 120.2989988
   4.9050012  57.2454997 120.9479988   5.3626612  57.8505914 120.5213643
  13.7130012  57.3204997 120.6659988  13.7900012  56.8944997 121.5199988
  14.6070012  57.3344997 120.3229988  13.8443428  57.2640879 120.7365310
  16.8890012  73.3934997 119.3579988  16.1070012  73.2074997 118.8379988
  16.8170012  74.3224997 119.5759988  16.7722274  73.4936643 119.3163018
  31.2950012  67.2794997 109.3889988  31.3840012  68.2234997 109.2569988
  30.6570012  67.0044997 108.7309988  31.2209081  67.3714830 109.2819614
  30.2280012  66.5344997 112.8079988  30.1900012  65.8884997 113.5129988
  29.9060012  66.0684997 112.0369988  30.1792333  66.3829408 112.8002978
  22.5970012  66.1494997 114.4009988  22.6380012  65.5234997 115.1239988
  23.3000012  66.7734997 114.5829988  22.6976363  66.1481196 114.5246044
  33.9340012  69.4734997 111.1089988  33.4940012  68.7534997 111.5599988
  33.9210012  70.1944997 111.7389988  33.8720226  69.4723731 111.2558494
  23.5200012  70.5994997 112.9359988  23.1510012  69.7974997 112.5659988
  24.4610012  70.4304997 112.9819988  23.5967289  70.4670153 112.8916316
  20.1300012  64.2594997 108.3289988  19.6830012  65.1054997 108.3099988
  19.5690012  63.6794997 107.8129988  19.9929900  64.2969916 108.2566801
  20.8410012  66.4214997 110.4539988  21.0540012  65.6514997 110.9819988
  21.5790012  66.5104997 109.8509988  20.9699044  66.3281968 110.4447123
  31.0460012  74.5784997 111.3209988  31.6660012  73.9014997 111.0479988
  30.8380012  74.3604997 112.2299988  31.1026726  74.4564800 111.4064812
  28.6180012  68.9674997 113.2139988  28.9220012  68.2814997 112.6189988
  29.3390012  69.0854997 113.8319988  28.7570671  68.8896304 113.2161816
  37.2810012  60.5684997 114.0749988  37.3300012  61.1784997 114.8099988
  37.7060012  61.0294997 113.3519988  37.3451746  60.7143796 114.0779175
  31.7590012  63.3614997 113.5409988  31.9010012  62.4154997 113.5619988
  31.6520012  63.5684997 112.6129988  31.7639919  63.2598246 113.4183408
  24.9130012  61.4624997 110.8139988  24.9570012  62.3224997 110.3949988
  24.4560012  60.9104997 110.1799988  24.8572240  61.5054422 110.6709864
  32.6360012  61.5934997 109.2149988  33.2820012  61.2644997 109.8389988
  33.1460012  62.1114997 108.5919988  32.7934299  61.6184450 109.2162731
  21.5340012  63.8594997 111.5759988  22.1870012  63.3094997 112.0079988
  21.5580012  63.5854997 110.6589988  21.6266683  63.7471466 111.5112123
  26.6900012  65.4094997 110.7909988  27.3060012  64.8834997 111.3009988
  26.1040012  64.7694997 110.3879988  26.6950810  65.2509208 110.8063173
  37.6720012  62.0464997 116.3099988  36.9840012  62.7044997 116.2149988
  37.6880012  61.8494997 117.2469988  37.5799540  62.1099819 116.4235990
  23.7240012  60.3804997 114.8879988  23.5050012  60.9104997 114.1219988
  23.0560012  60.6074997 115.5349988  23.6037600  60.4836906 114.8706379
  31.0930012  69.8804997 108.4319988  30.7970012  69.5584997 107.5809988
  30.7680012  70.7804997 108.4729988  31.0086371  69.9580215 108.3211801
  26.2930012  68.0564997 115.1749988  25.5530012  68.6544997 115.2789988
  27.0070012  68.6104997 114.8599988  26.2882237  68.2132831 115.1466465
  34.4000012  60.8844997 111.1949988  34.1840012  60.1184997 111.7279988
  35.0550012  61.3564997 111.7079988  34.4590632  60.8435889 111.3372861
  23.3170012  62.2724997 112.8399988  23.9310012  62.9054997 113.2129988
  23.8290012  61.8004997 112.1839988  23.4701981  62.2952267 112.8022908
  24.7000012  70.0204997 115.9619988  24.6950012  70.9004997 115.5839988
  23.8470012  69.9374997 116.3869988  24.5839464  70.1296117 115.9677907
  20.8210012  69.6914997 106.7439988  20.5490012  69.9204997 105.8559988
  20.8670012  70.5294997 107.2049988  20.7899482  69.8361318 106.6846273
  34.4460012  71.3134997 113.4569988  33.5050012  71.3714997 113.6189988
  34.7230012  72.2194997 113.3199988  34.3544679  71.4439443 113.4606815
  34.7470012  59.5994997 114.8749988  34.0110012  60.2104997 114.8369988
  35.4300012  60.0144997 114.3479988  34.7386541  59.7391374 114.7985832
  27.7500012  57.6864997 112.3399988  27.6330012  56.7374997 112.2859988
  26.8950012  58.0184997 112.6139988  27.6184212  57.6015571 112.3696497
  32.6980012  73.0944997 110.0819988  33.1240012  72.3874997 109.5969988
  33.0150012  73.8954997 109.6659988  32.7991683  73.1061017 109.9593680
  33.8580012  70.9954997 108.5909988  33.6000012  70.3054997 107.9799988
  33.9290012  70.5524997 109.4369988  33.8322856  70.8412124 108.6216885
  35.5440012  69.5614997 117.0679988  35.6840012  68.9704997 116.3289988
  35.7110012  70.4344997 116.7119988  35.5857411  69.5985428 116.9186894
  30.0170012  66.5234997 106.8409988  29.3050012  67.0584997 106.4889988
  30.7080012  66.5794997 106.1809988  30.0130132  66.6042543 106.7036289
  37.3860012  65.9014997 115.1339988  36.7330012  66.5964997 115.2239988
  37.8510012  66.1114997 114.3249988  37.3595274  66.0250643 115.0368462
  33.4220012  66.7334997 107.7929988  32.6900012  66.9614997 108.3659988
  33.8700012  66.0194997 108.2469988  33.3822725  66.6682145 107.9328816
  33.3200012  64.9074997 116.8599988  33.4000012  65.6704997 117.4319988
  32.7180012  65.1864997 116.1699988  33.2495756  65.0497134 116.8450589
  25.0680012  67.3634997 109.6749988  24.7370012  66.9934997 108.8569988
  25.6560012  66.6934997 110.0219988  25.1021873  67.2221156 109.6098102
  26.4340012  70.7914997 112.3559988  26.3400012  70.2134997 111.5999988
  27.1640012  70.4204997 112.8529988  26.5197387  70.6621663 112.3195342
  25.4340012  66.1324997 113.3089988  26.0000012  66.2534997 112.5459988
  25.7530012  66.7694997 113.9469988  25.5545474  66.2352219 113.2909862
  31.7430012  71.6354997 114.0429988  31.5030012  72.2974997 114.6909988
  31.5450012  70.8014997 114.4679988  31.6833808  71.6133134 114.1891524
  26.3140012  70.5314997 118.0259988  26.0030012  71.3134997 118.4809988
  25.6640012  70.3784997 117.3399988  26.1835558  70.6179105 117.9955871
  23.2340012  66.7294997 117.2539988  23.3050012  67.3804997 117.9529988
  22.3440012  66.8324997 116.9189988  23.1233005  66.8325427 117.3043495
  30.0200012  72.6324997 108.9129988  30.4940012  72.9274997 109.6899988
  29.4570012  73.3704997 108.6799988  30.0088184  72.7727247 108.9879628
  24.5540012  72.6034997 118.7889988  24.5610012  72.4674997 117.8419988
  23.6380012  72.4854997 119.0409988  24.4311714  72.5689430 118.6934666
  35.9920012  57.6454997 105.2909988  35.0920012  57.7844997 105.5859988
  36.2440012  58.4764997 104.8889988  35.9028702  57.7769074 105.2770205
  24.0580012  66.4334997 107.2639988  23.7660012  67.2014997 106.7739988
  23.3840012  65.7734997 107.1019988  23.9268111  66.4495587 107.1748978
  20.1510012  68.7964997 116.0789988  19.6500012  68.7684997 115.2639988
  20.1560012  67.8904997 116.3889988  20.0830944  68.6702396 116.0093226
  19.9010012  71.5764997 112.9629988  20.8470012  71.4324997 112.9439988
  19.7890012  72.3604997 113.4999988  20.0152727  71.6628046 113.0330072
  38.0990012  72.2424997 118.6459988  38.0500012  71.2874997 118.6089988
  37.2720012  72.5104997 119.0469988  37.9804940  72.1478998 118.6951375
  29.0780012  71.8164997 117.5219988  29.1650012  72.6424997 117.9969988
  28.2140012  71.4864997 117.7709988  28.9731964  71.8849878 117.6206549
  29.4920012  75.5884997 107.3279988  29.4170012  75.4674997 106.3809988
  29.5250012  76.5384997 107.4459988  29.4862068  75.7002646 107.2144967
  23.1450012  74.3774997 109.1089988  23.2980012  74.0294997 109.9869988
  22.2950012  74.0214997 108.8539988  23.0509166  74.2816217 109.1948079
  32.5940012  74.7424997 104.3299988  32.9690012  73.9984997 103.8589988
  32.5980012  74.4724997 105.2489988  32.6459125  74.6040986 104.3896483
  32.2630012  74.6684997 107.0789988  31.3270012  74.7684997 107.2579988
  32.5430012  73.9594997 107.6579988  32.1729553  74.5863406 107.1817087
  35.2510012  63.7354997 119.1259988  34.8440012  64.2164997 118.4049988
  35.2920012  62.8304997 118.8179988  35.2008437  63.6789374 118.9856683
  22.4000012  70.1194997 117.1229988  22.6160012  69.7584997 117.9819988
  21.5450012  69.7454997 116.9129988  22.3139292  70.0194111 117.2123386
  25.0190012  58.5894997 113.1179988  24.1570012  58.5024997 112.7099988
  24.9960012  59.4454997 113.5459988  24.8980409  58.6932883 113.1200589
  29.6820012  58.3114997 116.4929988  30.1020012  57.8964997 117.2459988
  28.7490012  58.1334997 116.6099988  29.6133644  58.2305900 116.6119539
  33.0080012  62.0674997 117.3459988  32.4940012  61.9414997 118.1439988
  32.8530012  62.9794997 117.1019988  32.9166852  62.1736132 117.4222158
  29.3430012  60.8044997 103.7779988  29.0900012  60.8234997 104.7009988
  29.0870012  59.9324997 103.4759988  29.2737481  60.6892558 103.8636175
  25.1100012  63.5554997 114.2129988  24.4680012  63.5144997 114.9219988
  25.1470012  64.4814997 113.9749988  25.0270664  63.6751430 114.2779219
  25.1070012  63.7764997 109.1249988  24.2140012  63.4354997 109.0659988
  25.5570012  63.3994997 108.3689988  25.0458130  63.6789631 109.0147702
  30.6420012  64.1924997 107.9419988  30.2330012  65.0074997 107.6509988
  31.3630012  64.0524997 107.3279988  30.6834537  64.2852018 107.8191342
  29.7440012  64.3674997 119.4299988  29.1820012  63.6634997 119.7509988
  30.5710012  64.2474997 119.8979988  29.7787095  64.2547883 119.5372330
  31.6470012  63.6384997 110.7559988  31.4520012  64.2434997 110.0409988
  31.8280012  62.8044997 110.3219988  31.6447614  63.6086300 110.5994405
  22.8600012  63.8754997 116.0799988  22.8220012  64.2754997 116.9489988
  22.3690012  63.0584997 116.1709988  22.7884684  63.8198069 116.2111059
  19.4680012  60.9914997 109.9309988  20.0990012  60.9624997 110.6499988
  19.9170012  60.5664997 109.1999988  19.6150918  60.9300836 109.9306441
  30.9110012  65.2764997 115.4269988  31.2340012  64.6454997 114.7839988
  30.4710012  64.7414997 116.0879988  30.8957484  65.1178387 115.4283198
  27.6880012  61.2034997 110.2109988  26.7770012  61.2604997 110.4999988
  28.1940012  61.1434997 111.0219988  27.6316899  61.2031941 110.3601184
  22.5170012  62.8324997 109.0379988  21.6270012  62.9324997 108.6979988
  22.8130012  61.9904997 108.6919988  22.4352823  62.7323545 108.9447213
  26.1700012  62.8324997 106.6949988  27.1010012  62.9614997 106.8729988
  25.9550012  63.5024997 106.0449988  26.2684247  62.9406565 106.6315747
  32.0930012  60.4384997 113.4759988  31.4170012  60.5694997 114.1399988
  31.6080012  60.2834997 112.6649988  31.9347146  60.4355157 113.4574469
  35.3810012  76.1104997 119.7519988  35.5810012  76.5344997 118.9179988
  36.0360012  76.4534997 120.3589988  35.4970072  76.2149857 119.7198592
  22.9790012  68.5844997 119.3599988  23.7110012  68.8384997 119.9219988
  22.1990012  68.7884997 119.8759988  22.9737073  68.6468160 119.5066151
  29.0080012  63.9914997 112.0979988  29.5730012  63.4444997 111.5509988
  28.8610012  63.4694997 112.8869988  29.0653380  63.8462259 112.1298695
  24.0100012  60.1274997 108.5169988  23.6930012  59.2254997 108.4809988
  24.7920012  60.1294997 107.9639988  24.0722408  60.0042474 108.4373569
  27.6350012  62.3794997 114.5119988  26.7990012  62.8334997 114.6229988
  28.1590012  62.6554997 115.2639988  27.5915416  62.4788660 114.6288119
  28.1790012  68.5924997 106.1969988  27.4340012  68.0854997 105.8749988
  28.0450012  68.6414997 107.1439988  28.0588776  68.5296940 106.2808647
  35.3290012  67.7254997 114.9839988  35.9710012  68.1824997 114.4399988
  34.4990012  67.8384997 114.5209988  35.3045963  67.8032704 114.8470177
  32.0770012  61.4064997 104.3959988  31.1380012  61.5184997 104.2449988
  32.3740012  62.2634997 104.7029988  31.9887583  61.5375981 104.4168337
  29.6980012  68.7764997 117.4339988  29.3530012  68.3954997 118.2409988
  29.4980012  69.7104997 117.5049988  29.6237527  68.8505135 117.5540689
  32.7950012  63.2734997 106.0569988  33.6870012  63.1364997 106.3759988
  32.8520012  64.0644997 105.5199988  32.9246504  63.3616052 106.0280818
  23.3040012  67.8874997 111.9669988  24.0490012  67.8854997 111.3659988
  23.3820012  67.0644997 112.4479988  23.4164995  67.7758887 111.9498282
  30.3050012  70.0514997 105.2229988  30.0090012  70.8774997 105.6039988
  29.6020012  69.4314997 105.4189988  30.1694914  70.0808199 105.3016443
  20.3120012  66.3484997 117.2819988  20.5350012  65.9304997 118.1139988
  19.7100012  65.7354997 116.8589988  20.2611759  66.2084668 117.3387022
  27.3280012  65.8654997 119.4949988  27.0320012  65.6994997 118.5999988
  28.2600012  65.6454997 119.4839988  27.4134166  65.8130640 119.3710536
  31.9490012  71.2384997 117.3849988  31.0480012  71.4214997 117.1169988
  31.9830012  71.4974997 118.3049988  31.8303139  71.2985849 117.4728099
  37.6430012  69.2834997 118.5889988  36.7920012  69.5214997 118.2219988
  38.2340012  69.2664997 117.8359988  37.6062487  69.3138258 118.4368893
  35.9750012  72.2694997 106.2169988  35.6020012  71.4434997 106.5259988
  36.2530012  72.0864997 105.3189988  35.9615222  72.1317430 106.1379473
  33.1360012  67.0774997 113.2379988  32.2070012  66.8454997 113.2109988
  33.5870012  66.3004997 112.9079988  33.0699216  66.9407238 113.1896917
  25.6790012  71.4054997 109.3709988  26.2060012  72.1784997 109.1709988
  24.7990012  71.6304997 109.0689988  25.6322031  71.5417545 109.3027912
  27.1060012  69.0684997 108.9469988  26.8650012  69.9934997 108.9889988
  26.3650012  68.6094997 109.3439988  26.9729225  69.1330933 109.0063742
  27.6210012  73.2174997 115.2629988  27.9830012  74.0724997 115.0289988
  28.1520012  72.9254997 116.0029988  27.7424473  73.2951060 115.3310855
  25.7890012  74.0904997 108.4929988  24.8390012  74.1954997 108.5439988
  26.1410012  74.9104997 108.8369988  25.7064195  74.2158800 108.5465502
  31.1650012  69.3164997 114.9629988  30.7390012  69.0894997 115.7899988
  31.7450012  68.5784997 114.7809988  31.1851868  69.1855299 115.0515830
  33.3680012  70.2454997 104.0369988  33.7210012  69.8654997 104.8409988
  32.4190012  70.1524997 104.1239988  33.2880918  70.1808956 104.1588532
  33.8230012  73.8684997 117.4329988  33.2220012  73.3134997 116.9369988
  34.1050012  74.5354997 116.8059988  33.7788804  73.8826625 117.2804849
  21.9460012  61.1014997 116.8399988  21.0530012  61.4404997 116.7719988
  21.8470012  60.2464997 117.2579988  21.8104164  61.0322588 116.8872235
  34.2340012  68.9184997 106.2639988  33.9560012  68.1904997 106.8199988
  35.1610012  69.0374997 106.4689988  34.3213124  68.8348802 106.3678845
  21.5970012  72.9064997 115.2749988  21.8140012  71.9744997 115.2439988
  21.8430012  73.1804997 116.1579988  21.6599549  72.8160636 115.3901763
  26.3960012  70.9274997 104.9399988  26.5420012  70.4074997 105.7299988
  26.3930012  71.8344997 105.2469988  26.4155792  70.9788842 105.0896117
  30.6800012  60.8424997 115.7299988  31.3790012  60.9164997 116.3799988
  30.2990012  59.9784997 115.8839988  30.7241767  60.7357624 115.8398322
  31.4650012  60.4944997 106.8269988  31.6850012  60.9664997 106.0239988
  32.0230012  60.8894997 107.4969988  31.5704968  60.6124285 106.8077331
  29.1330012  72.6254997 105.6899988  28.3170012  73.1224997 105.7419988
  29.6630012  73.1004997 105.0499988  29.0929161  72.7577722 105.6105956
  28.6650012  62.2224997 107.6619988  29.4770012  62.7274997 107.7079988
  28.4200012  62.0774997 108.5759988  28.7430520  62.2720375 107.7918517
  29.2000012  63.2084997 116.8459988  29.3190012  63.7824997 117.6039988
  29.8560012  62.5204997 116.9609988  29.3049025  63.1939858 116.9651321
  29.5480012  59.3034997 108.5999988  29.2020012  59.9214997 109.2439988
  30.2070012  59.8044997 108.1179988  29.5896968  59.4556278 108.6229383
  26.4720012  73.6694997 105.6709988  26.6320012  74.4684997 105.1709988
  26.2740012  73.9754997 106.5559988  26.4671637  73.8204020 105.7221144
  35.4050012  61.1154997 117.6809988  34.4880012  61.3784997 117.5939988
  35.7400012  61.1124997 116.7849988  35.3248613  61.1510761 117.5478837
  34.0070012  64.8664997 111.7769988  33.2090012  64.4514997 111.4489988
  34.4520012  64.1754997 112.2679988  33.9579885  64.7163543 111.7984889
  35.0930012  74.1224997 113.3999988  34.9380012  74.8004997 112.7419988
  36.0260012  74.1944997 113.6029988  35.1978657  74.2249546 113.3374360
  22.5890012  58.2404997 112.1369988  22.3600012  58.2994997 111.2089988
  22.1460012  57.4484997 112.4429988  22.4978530  58.1415753 112.0514786
  21.5190012  72.1804997 108.2969988  20.6870012  72.6534997 108.3239988
  22.0650012  72.6904997 107.6989988  21.4790352  72.3141332 108.2198463
  20.8070012  74.7934997 119.6269988  21.3480012  74.5764997 120.3869988
  20.3260012  73.9874997 119.4369988  20.8159951  74.6549270 119.7052576
  25.4050012  73.7124997 121.2469988  26.1720012  73.2534997 121.5879988
  25.3830012  73.4864997 120.3179988  25.5071275  73.6190186 121.1680101
  31.9820012  72.0924997 119.9769988  31.6310012  71.2364997 120.2199988
  32.7080012  72.2354997 120.5839988  32.0320769  71.9945636 120.0923619
  20.7140012  68.6034997 120.5809988  20.8580012  67.7014997 120.2949988
  19.9420012  68.8894997 120.0939988  20.6292753  68.5186816 120.4759505
  27.3700012  68.5734997 120.0139988  27.0410012  68.8444997 119.1569988
  27.5220012  67.6324997 119.9269988  27.3454809  68.4833862 119.8848244
  33.1040012  68.4894997 117.3969988  33.8500012  69.0774997 117.2779988
  32.3470012  69.0714997 117.4609988  33.1037820  68.6487143 117.3893590
  21.5470012  65.8034997 120.0009988  21.9550012  64.9464997 119.8799988
  21.2870012  65.8184997 120.9219988  21.5677568  65.6880807 120.1089588
  26.2050012  66.9194997 105.0199988  25.7450012  66.4354997 105.7059988
  26.4600012  66.2514997 104.3839988  26.1764902  66.7628731 105.0279334
  25.4940012  64.8124997 117.3759988  24.8760012  65.4874997 117.6559988
  25.8380012  65.1334997 116.5419988  25.4559132  64.9482411 117.3016262
  30.5140012  67.2844997 120.6529988  31.4670012  67.3674997 120.6259988
  30.3530012  66.5724997 121.2729988  30.6226426  67.1996746 120.7330579
  25.8330012  62.1674997 118.4579988  25.9830012  61.4384997 117.8559988
  25.8360012  62.9444997 117.8989988  25.8539302  62.1727851 118.3000692
  26.2460012  60.5374997 115.9509988  26.7820012  60.9884997 115.2989988
  25.3940012  60.4294997 115.5279988  26.2042178  60.5846390 115.8045756
  27.8280012  65.9764997 116.1899988  28.5780012  65.8204997 115.6169988
  27.4890012  66.8284997 115.9149988  27.8848921  66.0702968 116.0743561
  32.2430012  63.7914997 121.2189988  32.4360012  62.8604997 121.1069988
  33.1010012  64.2164997 121.2079988  32.3852934  63.7216531 121.2022031
  33.5600012  66.5804997 119.2959988  33.2790012  67.2894997 118.7179988
  34.5030012  66.5074997 119.1449988  33.6489291  66.6676711 119.1964967
  24.3120012  63.3654997 120.3699988  23.5450012  62.8334997 120.1589988
  24.9910012  63.0554997 119.7699988  24.2987877  63.2508300 120.2600716
  27.0520012  57.9934997 116.3819988  26.9530012  58.9404997 116.2769988
  26.3090012  57.6214997 115.9059988  26.9381184  58.0725863 116.3033621
  28.3160012  62.3154997 119.9459988  28.0800012  62.0954997 120.8469988
  27.5320012  62.1084997 119.4359988  28.1778504  62.2574586 120.0003431
  31.0310012  61.4424997 119.0209988  30.0840012  61.4744997 119.1539988
  31.3440012  60.8174997 119.6749988  30.9436707  61.3623998 119.1276060
  32.6650012  60.0764997 121.0269988  32.5690012  59.1244997 121.0209988
  32.3440012  60.3454997 121.8869988  32.6084070  59.9824035 121.1425441
  22.4920012  61.2864997 120.0739988  22.7040012  60.5794997 119.4639988
  22.3810012  60.8484997 120.9179988  22.5059721  61.1307084 120.1046843
  27.2730012  57.2874997 119.0529988  27.9850012  56.6474997 119.0389988
  27.1720012  57.5544997 118.1399988  27.3568066  57.2360079 118.9275677
  27.6270012  58.9704997 121.1069988  27.4950012  58.4944997 120.2869988
  27.0280012  59.7144997 121.0519988  27.5279071  59.0059618 120.9872886
  20.7420012  70.4894997 103.7659988  21.6560012  70.5684997 104.0399988
  20.7490012  69.8024997 103.0999988  20.8681131  70.4073961 103.7134393
  19.3910012  75.8824997 108.8439988  18.7440012  75.4204997 108.3109988
  19.7450012  75.2104997 109.4259988  19.3503849  75.7284723 108.8497959
  20.2610012  73.9634997 110.6479988  19.9260012  73.0834997 110.8199988
  20.4830012  74.3084997 111.5129988  20.2451783  73.8897500 110.7884208
  37.8090012  74.7724997 113.6289988  37.7880012  74.9574997 114.5679988
  38.5000012  75.3414997 113.2879988  37.8994618  74.8746606 113.7113864
  37.3730012  74.3404997 116.5509988  36.8850012  73.6044997 116.1789988
  37.9220012  73.9464997 117.2289988  37.3804820  74.1865889 116.5917813
  35.8230012  70.1294997 121.1889988  34.9570012  70.0244997 121.5829988
  36.2000012  70.8884997 121.6349988  35.7553308  70.2176900 121.3032393
  37.1240012  68.3864997 106.7029988  37.9740012  68.8074997 106.8299988
  37.1300012  67.6464997 107.3099988  37.2411372  68.3440803 106.8024344
  37.5190012  66.4394997 108.5259988  36.7920012  65.9604997 108.9239988
  38.1000012  66.6454997 109.2589988  37.4980473  66.4018103 108.6794528
  37.2780012  69.2244997 113.4739988  38.1110012  68.8464997 113.1939988
  37.3900012  70.1674997 113.3549988  37.4072647  69.3002218 113.4195487
  35.7640012  72.1024997 115.7809988  35.1170012  72.4274997 116.4069988
  35.2470012  71.6624997 115.1069988  35.6054029  72.0875004 115.7755827
  35.3050012  64.9604997 109.0889988  35.1550012  64.0154997 109.0689988
  34.9520012  65.2414997 109.9329988  35.2367448  64.8691481 109.2003705
  20.3410012  67.0384997 113.0999988  20.5250012  66.9564997 112.1639988
  21.1900012  66.9144997 113.5229988  20.4810151  67.0105073 113.0291451
  36.1620012  66.9304997 118.7279988  36.7450012  66.1964997 118.9199988
  36.7260012  67.7024997 118.7749988  36.3179769  66.9344227 118.7606159
  37.6580012  64.8334997 119.4129988  36.7950012  64.4544997 119.2469988
  38.2630012  64.0944997 119.3379988  37.6216119  64.6818268 119.3801528
  35.3830012  60.9884997 102.5859988  35.9940012  60.6174997 103.2229988
  34.5470012  60.5674997 102.7819988  35.3535032  60.8807554 102.6997035
  35.0160012  62.5434997 107.5519988  35.2960012  61.6364997 107.6759988
  35.7750012  62.9774997 107.1629988  35.1569277  62.4780942 107.5163682
  35.6280012  63.1244997 112.9879988  36.5610012  63.3364997 112.9529988
  35.3930012  63.2264997 113.9099988  35.7239244  63.1673100 113.1078892
  35.6570012  63.8614997 115.7639988  34.8140012  64.1294997 116.1299988
  36.0990012  64.6834997 115.5529988  35.6014158  64.0093291 115.7855491
  19.9380012  62.3094997 119.2409988  20.8580012  62.1874997 119.4769988
  19.4890012  61.5594997 119.6299988  20.0031580  62.1913727 119.3259006
  37.9400012  57.8414997 121.1169988  38.2900012  57.1874997 120.5119988
  38.0870012  58.6784997 120.6769988  38.0077887  57.8651548 120.9746858
  35.6290012  59.8064997 107.5999988  35.8120012  59.3574997 108.4259988
  35.0300012  59.2214997 107.1369988  35.5730202  59.6659975 107.6503275
  21.1590012  60.6214997 112.1319988  21.6050012  59.8294997 112.4339988
  21.6260012  61.3374997 112.5619988  21.2830831  60.6100685 112.2314006
  19.4630012  63.6204997 113.2009988  19.9550012  63.3994997 112.4099988
  19.8260012  64.4614997 113.4819988  19.5793126  63.7038357 113.1307531
  37.4600012  59.9504997 119.4659988  36.5420012  60.2214997 119.4309988
  37.5830012  59.4154997 118.6819988  37.3509729  59.9152508 119.3551923
  37.4960012  59.8734997 104.1279988  37.9080012  59.1524997 103.6529988
  38.1780012  60.5434997 104.1869988  37.6445885  59.8652368 104.0708915
  19.7770012  59.8784997 107.2549988  18.8520012  60.0874997 107.1259988
  20.2310012  60.3624997 106.5649988  19.7117292  59.9725343 107.1440720
  34.5480012  74.8624997 109.2009988  35.2000012  74.5154997 108.5929988
  35.0580012  75.3514997 109.8469988  34.7062637  74.8810597 109.2050236
  19.7410012  58.6164997 115.5989988  19.0760012  58.3704997 116.2429988
  19.2980012  59.2384997 115.0219988  19.5901318  58.6669410 115.6090898
  21.9330012  71.7914997 119.7439988  21.1120012  71.9664997 119.2829988
  21.6800012  71.7184997 120.6639988  21.7865585  71.8055544 119.8053561
  24.8870012  72.7664997 116.0019988  24.4620012  73.5754997 115.7199988
  25.7910012  72.8514997 115.6999988  24.9509975  72.8889300 115.9224816
  29.1980012  74.1654997 118.9619988  29.3830012  73.8314997 119.8399988
  30.0440012  74.4744997 118.6399988  29.3377539  74.1616047 119.0385605
  31.5430012  75.4514997 118.2059988  32.2200012  74.8184997 117.9659988
  31.8650012  75.8524997 119.0129988  31.6791637  75.4191154 118.2822793
  36.4600012  58.0404997 117.2849988  35.6480012  58.3654997 116.8979988
  36.6930012  57.2804997 116.7519988  36.3802203  57.9822758 117.1598880
  22.2890012  76.0224997 116.0499988  21.5680012  76.4624997 115.5989988
  21.9230012  75.7714997 116.8979988  22.1409651  76.0487242 116.1029640
  24.7560012  75.6224997 115.0799988  23.8910012  75.6944997 115.4839988
  24.7010012  76.1694997 114.2959988  24.6302085  75.7062685 115.0293362
  29.4660012  75.5104997 114.2549988  29.0100012  76.0394997 113.6009988
  29.6290012  76.1134997 114.9799988  29.4256068  75.6644607 114.2634838
  31.7940012  74.3884997 115.1999988  30.8890012  74.5534997 114.9339988
  32.2230012  75.2414997 115.1349988  31.7281324  74.5264339 115.1547976
  34.3980012  75.9584997 115.4949988  34.2160012  76.8744997 115.2849988
  34.5750012  75.5484997 114.6489988  34.3970210  76.0284822 115.3517885
  21.7030012  74.6454997 112.9599988  21.6850012  74.2204997 113.8169988
  22.5080012  74.3274997 112.5509988  21.8093529  74.5443013 113.0220946
  23.8450012  73.3554997 111.6149988  23.6260012  72.4394997 111.7849988
  24.6690012  73.4954997 112.0809988  23.9264420  73.2490520 111.7012774
  26.3820012  73.8254997 112.4639988  26.5950012  72.9374997 112.1769988
  26.4460012  73.7914997 113.4179988  26.4198231  73.6993102 112.5537397
  29.8900012  59.4894997 111.6079988  29.2160012  58.8604997 111.8639988
  30.4540012  59.0054997 111.0049988  29.8739230  59.3378744 111.5615340
  35.0330012  57.5974997 111.7209988  35.6370012  58.1444997 111.2189988
  34.1630012  57.9164997 111.4799988  34.9981208  57.7155137 111.6196886
  36.7600012  58.7354997 110.0539988  37.3720012  58.2214997 109.5269988
  37.1420012  59.6134997 110.0769988  36.8953371  58.7837866 109.9850041
  22.2170012  58.1234997 109.4299988  21.4400012  57.8894997 108.9229988
  22.7470012  57.3264997 109.4389988  22.1822330  57.9836988 109.3617742
  21.0530012  57.9214997 105.2339988  21.4920012  58.5324997 104.6419988
  20.4200012  58.4594997 105.7079988  21.0274514  58.0779257 105.2170930
  26.7960012  58.0504997 109.2439988  27.6710012  58.4384997 109.2139988
  26.6600012  57.8354997 110.1659988  26.8973695  58.0745184 109.3646440
  32.3530012  58.0804997 110.8929988  32.4290012  58.1754997 109.9429988
  32.0780012  57.1724997 111.0219988  32.3262321  57.9707867 110.7805079
  33.7060012  58.1064997 106.5849988  33.0040012  58.7214997 106.3749988
  33.2620012  57.2684997 106.7159988  33.5496450  58.0775639 106.5739000
  20.9540012  73.8694997 106.1309988  20.2690012  73.8314997 105.4639988
  20.9580012  74.7824997 106.4199988  20.8606998  73.9876733 106.0786771
  27.9400012  60.1304997 106.1329988  28.1180012  59.4844997 106.8159988
  27.8870012  60.9644997 106.5999988  27.9571999  60.1548009 106.2895917
  36.5280012  74.6424997 107.2079988  36.3330012  73.8944997 106.6429988
  36.4890012  75.4004997 106.6249988  36.4960380  74.6426099 107.0518384
  22.1750012  58.6374997 118.9479988  21.8090012  57.8724997 119.3899988
  23.0880012  58.6664997 119.2339988  22.2482736  58.5365640 119.0472502
  24.1480012  57.9884997 120.4839988  25.0460012  57.7144997 120.2989988
  23.7610012  57.2454997 120.9479988  24.2186612  57.8505914 120.5213643
  32.5690012  57.3204997 120.6659988  32.6460012  56.8944997 121.5199988
  33.4630012  57.3344997 120.3229988  32.7003428  57.2640879 120.7365310
  35.7450012  73.3934997 119.3579988  34.9630012  73.2074997 118.8379988
  35.6730012  74.3224997 119.5759988  35.6282274  73.4936643 119.3163018
  50.1510012  67.2794997 109.3889988  50.2400012  68.2234997 109.2569988
  49.5130012  67.0044997 108.7309988  50.0769081  67.3714830 109.2819614
  49.0840012  66.5344997 112.8079988  49.0460012  65.8884997 113.5129988
  48.7620012  66.0684997 112.0369988  49.0352333  66.3829408 112.8002978
  41.4530012  66.1494997 114.4009988  41.4940012  65.5234997 115.1239988
  42.1560012  66.7734997 114.5829988  41.5536363  66.1481196 114.5246044
  52.7900012  69.4734997 111.1089988  52.3500012  68.7534997 111.5599988
  52.7770012  70.1944997 111.7389988  52.7280226  69.4723731 111.2558494
  42.3760012  70.5994997 112.9359988  42.0070012  69.7974997 112.5659988
  43.3170012  70.4304997 112.9819988  42.4527289  70.4670153 112.8916316
  38.9860012  64.2594997 108.3289988  38.5390012  65.1054997 108.3099988
  38.4250012  63.6794997 107.8129988  38.8489900  64.2969916 108.2566801
  39.6970012  66.4214997 110.4539988  39.9100012  65.6514997 110.9819988
  40.4350012  66.5104997 109.8509988  39.8259044  66.3281968 110.4447123
  49.9020012  74.5784997 111.3209988  50.5220012  73.9014997 111.0479988
  49.6940012  74.3604997 112.2299988  49.9586726  74.4564800 111.4064812
  47.4740012  68.9674997 113.2139988  47.7780012  68.2814997 112.6189988
  48.1950012  69.0854997 113.8319988  47.6130671  68.8896305 113.2161816
  56.1370012  60.5684997 114.0749988  56.1860012  61.1784997 114.8099988
  56.5620012  61.0294997 113.3519988  56.2011746  60.7143796 114.0779175
  50.6150012  63.3614997 113.5409988  50.7570012  62.4154997 113.5619988
  50.5080012  63.5684997 112.6129988  50.6199919  63.2598246 113.4183408
  43.7690012  61.4624997 110.8139988  43.8130012  62.3224997 110.3949988
  43.3120012  60.9104997 110.1799988  43.7132240  61.5054422 110.6709864
  51.4920012  61.5934997 109.2149988  52.1380012  61.2644997 109.8389988
  52.0020012  62.1114997 108.5919988  51.6494299  61.6184450 109.2162731
  40.3900012  63.8594997 111.5759988  41.0430012  63.3094997 112.0079988
  40.4140012  63.5854997 110.6589988  40.4826683  63.7471466 111.5112123
  45.5460012  65.4094997 110.7909988  46.1620012  64.8834997 111.3009988
  44.9600012  64.7694997 110.3879988  45.5510810  65.2509208 110.8063173
  56.5280012  62.0464997 116.3099988  55.8400012  62.7044997 116.2149988
  56.5440012  61.8494997 117.2469988  56.4359540  62.1099819 116.4235990
  42.5800012  60.3804997 114.8879988  42.3610012  60.9104997 114.1219988
  41.9120012  60.6074997 115.5349988  42.4597600  60.4836906 114.8706379
  49.9490012  69.8804997 108.4319988  49.6530012  69.5584997 107.5809988
  49.6240012  70.7804997 108.4729988  49.8646371  69.9580215 108.3211801
  45.1490012  68.0564997 115.1749988  44.4090012  68.6544997 115.2789988
  45.8630012  68.6104997 114.8599988  45.1442237  68.2132831 115.1466465
  53.2560012  60.8844997 111.1949988  53.0400012  60.1184997 111.7279988
  53.9110012  61.3564997 111.7079988  53.3150632  60.8435889 111.3372861
  42.1730012  62.2724997 112.8399988  42.7870012  62.9054997 113.2129988
  42.6850012  61.8004997 112.1839988  42.3261981  62.2952267 112.8022908
  43.5560012  70.0204997 115.9619988  43.5510012  70.9004997 115.5839988
  42.7030012  69.9374997 116.3869988  43.4399464  70.1296117 115.9677907
  39.6770012  69.6914997 106.7439988  39.4050012  69.9204997 105.8559988
  39.7230012  70.5294997 107.2049988  39.6459482  69.8361318 106.6846273
  53.3020012  71.3134997 113.4569988  52.3610012  71.3714997 113.6189988
  53.5790012  72.2194997 113.3199988  53.2104679  71.4439443 113.4606815
  53.6030012  59.5994997 114.8749988  52.8670012  60.2104997 114.8369988
  54.2860012  60.0144997 114.3479988  53.5946541  59.7391374 114.7985832
  46.6060012  57.6864997 112.3399988  46.4890012  56.7374997 112.2859988
  45.7510012  58.0184997 112.6139988  46.4744212  57.6015571 112.3696497
  51.5540012  73.0944997 110.0819988  51.9800012  72.3874997 109.5969988
  51.8710012  73.8954997 109.6659988  51.6551683  73.1061017 109.9593680
  52.7140012  70.9954997 108.5909988  52.4560012  70.3054997 107.9799988
  52.7850012  70.5524997 109.4369988  52.6882856  70.8412124 108.6216885
  54.4000012  69.5614997 117.0679988  54.5400012  68.9704997 116.3289988
  54.5670012  70.4344997 116.7119988  54.4417411  69.5985428 116.9186894
  48.8730012  66.5234997 106.8409988  48.1610012  67.0584997 106.4889988
  49.5640012  66.5794997 106.1809988  48.8690132  66.6042543 106.7036289
  48.9260012  64.9814997 103.8799988  49.6270012  65.0034997 104.5309988
  49.2290012  64.3534997 103.2229988  49.0628133  64.8997070 103.8803369
  56.2420012  65.9014997 115.1339988  55.5890012  66.5964997 115.2239988
  56.7070012  66.1114997 114.3249988  56.2155274  66.0250643 115.0368462
  52.2780012  66.7334997 107.7929988  51.5460012  66.9614997 108.3659988
  52.7260012  66.0194997 108.2469988  52.2382725  66.6682145 107.9328816
  52.1760012  64.9074997 116.8599988  52.2560012  65.6704997 117.4319988
  51.5740012  65.1864997 116.1699988  52.1055756  65.0497134 116.8450589
  43.9240012  67.3634997 109.6749988  43.5930012  66.9934997 108.8569988
  44.5120012  66.6934997 110.0219988  43.9581873  67.2221156 109.6098102
  45.2900012  70.7914997 112.3559988  45.1960012  70.2134997 111.5999988
  46.0200012  70.4204997 112.8529988  45.3757387  70.6621663 112.3195342
  44.2900012  66.1324997 113.3089988  44.8560012  66.2534997 112.5459988
  44.6090012  66.7694997 113.9469988  44.4105474  66.2352219 113.2909862
  50.5990012  71.6354997 114.0429988  50.3590012  72.2974997 114.6909988
  50.4010012  70.8014997 114.4679988  50.5393808  71.6133134 114.1891524
  45.1700012  70.5314997 118.0259988  44.8590012  71.3134997 118.4809988
  44.5200012  70.3784997 117.3399988  45.0395558  70.6179105 117.9955871
  51.1490012  65.8954997 105.4779988  51.7290012  66.0454997 106.2249988
  51.5630012  66.3664997 104.7539988  51.2842997  65.9796578 105.4824058
  42.0900012  66.7294997 117.2539988  42.1610012  67.3804997 117.9529988
  41.2000012  66.8324997 116.9189988  41.9793005  66.8325427 117.3043495
  48.8760012  72.6324997 108.9129988  49.3500012  72.9274997 109.6899988
  48.3130012  73.3704997 108.6799988  48.8648184  72.7727247 108.9879628
  43.4100012  72.6034997 118.7889988  43.4170012  72.4674997 117.8419988
  42.4940012  72.4854997 119.0409988  43.2871714  72.5689430 118.6934666
  54.8480012  57.6454997 105.2909988  53.9480012  57.7844997 105.5859988
  55.1000012  58.4764997 104.8889988  54.7588702  57.7769074 105.2770205
  42.9140012  66.4334997 107.2639988  42.6220012  67.2014997 106.7739988
  42.2400012  65.7734997 107.1019988  42.7828111  66.4495587 107.1748978
  56.0370012  72.0114997 103.6669988  56.1110012  72.9504997 103.8379988
  56.9430012  71.7064997 103.6109988  56.1695100  72.0986722 103.6828119
  39.0070012  68.7964997 116.0789988  38.5060012  68.7684997 115.2639988
  39.0120012  67.8904997 116.3889988  38.9390944  68.6702396 116.0093226
  38.7570012  71.5764997 112.9629988  39.7030012  71.4324997 112.9439988
  38.6450012  72.3604997 113.4999988  38.8712727  71.6628046 113.0330072
  56.9550012  72.2424997 118.6459988  56.9060012  71.2874997 118.6089988
  56.1280012  72.5104997 119.0469988  56.8364940  72.1478998 118.6951375
  47.9340012  71.8164997 117.5219988  48.0210012  72.6424997 117.9969988
  47.0700012  71.4864997 117.7709988  47.8291964  71.8849878 117.6206549
  48.3480012  75.5884997 107.3279988  48.2730012  75.4674997 106.3809988
  48.3810012  76.5384997 107.4459988  48.3422068  75.7002646 107.2144967
  42.0010012  74.3774997 109.1089988  42.1540012  74.0294997 109.9869988
  41.1510012  74.0214997 108.8539988  41.9069166  74.2816216 109.1948079
  51.1190012  74.6684997 107.0789988  50.1830012  74.7684997 107.2579988
  51.3990012  73.9594997 107.6579988  51.0289553  74.5863406 107.1817087
  54.1070012  63.7354997 119.1259988  53.7000012  64.2164997 118.4049988
  54.1480012  62.8304997 118.8179988  54.0568437  63.6789374 118.9856683
  41.2560012  70.1194997 117.1229988  41.4720012  69.7584997 117.9819988
  40.4010012  69.7454997 116.9129988  41.1699292  70.0194111 117.2123386
  43.8750012  58.5894997 113.1179988  43.0130012  58.5024997 112.7099988
  43.8520012  59.4454997 113.5459988  43.7540409  58.6932883 113.1200589
  48.5380012  58.3114997 116.4929988  48.9580012  57.8964997 117.2459988
  47.6050012  58.1334997 116.6099988  48.4693644  58.2305900 116.6119539
  51.8640012  62.0674997 117.3459988  51.3500012  61.9414997 118.1439988
  51.7090012  62.9794997 117.1019988  51.7726852  62.1736132 117.4222158
  43.9660012  63.5554997 114.2129988  43.3240012  63.5144997 114.9219988
  44.0030012  64.4814997 113.9749988  43.8830664  63.6751430 114.2779219
  43.9630012  63.7764997 109.1249988  43.0700012  63.4354997 109.0659988
  44.4130012  63.3994997 108.3689988  43.9018130  63.6789631 109.0147702
  49.4980012  64.1924997 107.9419988  49.0890012  65.0074997 107.6509988
  50.2190012  64.0524997 107.3279988  49.5394537  64.2852018 107.8191342
  48.6000012  64.3674997 119.4299988  48.0380012  63.6634997 119.7509988
  49.4270012  64.2474997 119.8979988  48.6347095  64.2547883 119.5372330
  50.5030012  63.6384997 110.7559988  50.3080012  64.2434997 110.0409988
  50.6840012  62.8044997 110.3219988  50.5007614  63.6086300 110.5994405
  41.7160012  63.8754997 116.0799988  41.6780012  64.2754997 116.9489988
  41.2250012  63.0584997 116.1709988  41.6444684  63.8198069 116.2111059
  38.3240012  60.9914997 109.9309988  38.9550012  60.9624997 110.6499988
  38.7730012  60.5664997 109.1999988  38.4710918  60.9300836 109.9306441
  49.7670012  65.2764997 115.4269988  50.0900012  64.6454997 114.7839988
  49.3270012  64.7414997 116.0879988  49.7517484  65.1178387 115.4283198
  46.5440012  61.2034997 110.2109988  45.6330012  61.2604997 110.4999988
  47.0500012  61.1434997 111.0219988  46.4876899  61.2031941 110.3601184
  41.3730012  62.8324997 109.0379988  40.4830012  62.9324997 108.6979988
  41.6690012  61.9904997 108.6919988  41.2912823  62.7323545 108.9447213
  45.0260012  62.8324997 106.6949988  45.9570012  62.9614997 106.8729988
  44.8110012  63.5024997 106.0449988  45.1244247  62.9406565 106.6315747
  50.9490012  60.4384997 113.4759988  50.2730012  60.5694997 114.1399988
  50.4640012  60.2834997 112.6649988  50.7907146  60.4355157 113.4574469
  43.7000012  64.0274997 104.2609988  43.1570012  63.6474997 103.5699988
  44.5330012  64.2214997 103.8329988  43.7383631  64.0017125 104.1084501
  54.2370012  76.1104997 119.7519988  54.4370012  76.5344997 118.9179988
  54.8920012  76.4534997 120.3589988  54.3530072  76.2149857 119.7198592
  41.8350012  68.5844997 119.3599988  42.5670012  68.8384997 119.9219988
  41.0550012  68.7884997 119.8759988  41.8297073  68.6468160 119.5066151
  47.8640012  63.9914997 112.0979988  48.4290012  63.4444997 111.5509988
  47.7170012  63.4694997 112.8869988  47.9213380  63.8462259 112.1298695
  42.8660012  60.1274997 108.5169988  42.5490012  59.2254997 108.4809988
  43.6480012  60.1294997 107.9639988  42.9282408  60.0042474 108.4373569
  46.4910012  62.3794997 114.5119988  45.6550012  62.8334997 114.6229988
  47.0150012  62.6554997 115.2639988  46.4475416  62.4788660 114.6288119
  47.0350012  68.5924997 106.1969988  46.2900012  68.0854997 105.8749988
  46.9010012  68.6414997 107.1439988  46.9148776  68.5296940 106.2808647
  54.1850012  67.7254997 114.9839988  54.8270012  68.1824997 114.4399988
  53.3550012  67.8384997 114.5209988  54.1605963  67.8032704 114.8470177
  50.9330012  61.4064997 104.3959988  49.9940012  61.5184997 104.2449988
  51.2300012  62.2634997 104.7029988  50.8447583  61.5375981 104.4168337
  48.5540012  68.7764997 117.4339988  48.2090012  68.3954997 118.2409988
  48.3540012  69.7104997 117.5049988  48.4797527  68.8505135 117.5540689
  51.6510012  63.2734997 106.0569988  52.5430012  63.1364997 106.3759988
  51.7080012  64.0644997 105.5199988  51.7806504  63.3616052 106.0280818
  42.1600012  67.8874997 111.9669988  42.9050012  67.8854997 111.3659988
  42.2380012  67.0644997 112.4479988  42.2724995  67.7758887 111.9498282
  49.1610012  70.0514997 105.2229988  48.8650012  70.8774997 105.6039988
  48.4580012  69.4314997 105.4189988  49.0254914  70.0808199 105.3016443
  39.1680012  66.3484997 117.2819988  39.3910012  65.9304997 118.1139988
  38.5660012  65.7354997 116.8589988  39.1171759  66.2084668 117.3387022
  46.1840012  65.8654997 119.4949988  45.8880012  65.6994997 118.5999988
  47.1160012  65.6454997 119.4839988  46.2694166  65.8130640 119.3710536
  50.8050012  71.2384997 117.3849988  49.9040012  71.4214997 117.1169988
  50.8390012  71.4974997 118.3049988  50.6863139  71.2985849 117.4728099
  56.5360012  63.4834997 105.7519988  55.9820012  63.0874997 105.0799988
  56.6360012  64.3934997 105.4739988  56.4737059  63.5523586 105.6224401
  56.4990012  69.2834997 118.5889988  55.6480012  69.5214997 118.2219988
  57.0900012  69.2664997 117.8359988  56.4622487  69.3138258 118.4368893
  54.8310012  72.2694997 106.2169988  54.4580012  71.4434997 106.5259988
  55.1090012  72.0864997 105.3189988  54.8175222  72.1317430 106.1379473
  51.9920012  67.0774997 113.2379988  51.0630012  66.8454997 113.2109988
  52.4430012  66.3004997 112.9079988  51.9259216  66.9407238 113.1896917
  44.5350012  71.4054997 109.3709988  45.0620012  72.1784997 109.1709988
  43.6550012  71.6304997 109.0689988  44.4882031  71.5417545 109.3027912
  45.9620012  69.0684997 108.9469988  45.7210012  69.9934997 108.9889988
  45.2210012  68.6094997 109.3439988  45.8289225  69.1330933 109.0063742
  46.4770012  73.2174997 115.2629988  46.8390012  74.0724997 115.0289988
  47.0080012  72.9254997 116.0029988  46.5984473  73.2951060 115.3310855
  44.6450012  74.0904997 108.4929988  43.6950012  74.1954997 108.5439988
  44.9970012  74.9104997 108.8369988  44.5624195  74.2158800 108.5465502
  50.0210012  69.3164997 114.9629988  49.5950012  69.0894997 115.7899988
  50.6010012  68.5784997 114.7809988  50.0411868  69.1855299 115.0515830
  52.2240012  70.2454997 104.0369988  52.5770012  69.8654997 104.8409988
  51.2750012  70.1524997 104.1239988  52.1440918  70.1808956 104.1588532
  52.6790012  73.8684997 117.4329988  52.0780012  73.3134997 116.9369988
  52.9610012  74.5354997 116.8059988  52.6348804  73.8826625 117.2804849
  40.8020012  61.1014997 116.8399988  39.9090012  61.4404997 116.7719988
  40.7030012  60.2464997 117.2579988  40.6664164  61.0322588 116.8872235
  53.0900012  68.9184997 106.2639988  52.8120012  68.1904997 106.8199988
  54.0170012  69.0374997 106.4689988  53.1773124  68.8348802 106.3678845
  40.4530012  72.9064997 115.2749988  40.6700012  71.9744997 115.2439988
  40.6990012  73.1804997 116.1579988  40.5159549  72.8160636 115.3901763
  45.2520012  70.9274997 104.9399988  45.3980012  70.4074997 105.7299988
  45.2490012  71.8344997 105.2469988  45.2715792  70.9788842 105.0896117
  41.7050012  68.1804997 105.4509988  41.0190012  68.5324997 106.0179988
  42.2270012  68.9434997 105.2039988  41.6816852  68.3318578 105.4952118
  49.5360012  60.8424997 115.7299988  50.2350012  60.9164997 116.3799988
  49.1550012  59.9784997 115.8839988  49.5801767  60.7357624 115.8398322
  50.3210012  60.4944997 106.8269988  50.5410012  60.9664997 106.0239988
  50.8790012  60.8894997 107.4969988  50.4264968  60.6124285 106.8077331
  47.9890012  72.6254997 105.6899988  47.1730012  73.1224997 105.7419988
  48.5190012  73.1004997 105.0499988  47.9489161  72.7577722 105.6105956
  47.5210012  62.2224997 107.6619988  48.3330012  62.7274997 107.7079988
  47.2760012  62.0774997 108.5759988  47.5990520  62.2720375 107.7918517
  48.0560012  63.2084997 116.8459988  48.1750012  63.7824997 117.6039988
  48.7120012  62.5204997 116.9609988  48.1609025  63.1939858 116.9651321
  48.4040012  59.3034997 108.5999988  48.0580012  59.9214997 109.2439988
  49.0630012  59.8044997 108.1179988  48.4456968  59.4556278 108.6229383
  45.3280012  73.6694997 105.6709988  45.4880012  74.4684997 105.1709988
  45.1300012  73.9754997 106.5559988  45.3231637  73.8204020 105.7221144
  54.2610012  61.1154997 117.6809988  53.3440012  61.3784997 117.5939988
  54.5960012  61.1124997 116.7849988  54.1808613  61.1510761 117.5478837
  52.8630012  64.8664997 111.7769988  52.0650012  64.4514997 111.4489988
  53.3080012  64.1754997 112.2679988  52.8139885  64.7163543 111.7984889
  42.3210012  70.7944997 104.3479988  42.9130012  71.4934997 104.6239988
  42.7800012  70.3614997 103.6279988  42.4641142  70.8317049 104.2884830
  53.9490012  74.1224997 113.3999988  53.7940012  74.8004997 112.7419988
  54.8820012  74.1944997 113.6029988  54.0538657  74.2249546 113.3374360
  41.4450012  58.2404997 112.1369988  41.2160012  58.2994997 111.2089988
  41.0020012  57.4484997 112.4429988  41.3538530  58.1415753 112.0514786
  40.3750012  72.1804997 108.2969988  39.5430012  72.6534997 108.3239988
  40.9210012  72.6904997 107.6989988  40.3350352  72.3141332 108.2198463
  39.6630012  74.7934997 119.6269988  40.2040012  74.5764997 120.3869988
  39.1820012  73.9874997 119.4369988  39.6719951  74.6549270 119.7052576
  44.2610012  73.7124997 121.2469988  45.0280012  73.2534997 121.5879988
  44.2390012  73.4864997 120.3179988  44.3631275  73.6190186 121.1680101
  50.8380012  72.0924997 119.9769988  50.4870012  71.2364997 120.2199988
  51.5640012  72.2354997 120.5839988  50.8880769  71.9945636 120.0923619
  39.5700012  68.6034997 120.5809988  39.7140012  67.7014997 120.2949988
  38.7980012  68.8894997 120.0939988  39.4852753  68.5186816 120.4759505
  46.2260012  68.5734997 120.0139988  45.8970012  68.8444997 119.1569988
  46.3780012  67.6324997 119.9269988  46.2014809  68.4833862 119.8848244
  51.9600012  68.4894997 117.3969988  52.7060012  69.0774997 117.2779988
  51.2030012  69.0714997 117.4609988  51.9597820  68.6487143 117.3893590
  40.4030012  65.8034997 120.0009988  40.8110012  64.9464997 119.8799988
  40.1430012  65.8184997 120.9219988  40.4237568  65.6880807 120.1089588
  45.0610012  66.9194997 105.0199988  44.6010012  66.4354997 105.7059988
  45.3160012  66.2514997 104.3839988  45.0324902  66.7628731 105.0279334
  44.3500012  64.8124997 117.3759988  43.7320012  65.4874997 117.6559988
  44.6940012  65.1334997 116.5419988  44.3119132  64.9482411 117.3016262
  49.3700012  67.2844997 120.6529988  50.3230012  67.3674997 120.6259988
  49.2090012  66.5724997 121.2729988  49.4786426  67.1996746 120.7330579
  44.6890012  62.1674997 118.4579988  44.8390012  61.4384997 117.8559988
  44.6920012  62.9444997 117.8989988  44.7099302  62.1727851 118.3000692
  45.1020012  60.5374997 115.9509988  45.6380012  60.9884997 115.2989988
  44.2500012  60.4294997 115.5279988  45.0602178  60.5846390 115.8045756
  46.6840012  65.9764997 116.1899988  47.4340012  65.8204997 115.6169988
  46.3450012  66.8284997 115.9149988  46.7408921  66.0702968 116.0743561
  51.0990012  63.7914997 121.2189988  51.2920012  62.8604997 121.1069988
  51.9570012  64.2164997 121.2079988  51.2412934  63.7216531 121.2022031
  52.4160012  66.5804997 119.2959988  52.1350012  67.2894997 118.7179988
  53.3590012  66.5074997 119.1449988  52.5049291  66.6676711 119.1964967
  43.1680012  63.3654997 120.3699988  42.4010012  62.8334997 120.1589988
  43.8470012  63.0554997 119.7699988  43.1547877  63.2508300 120.2600716
  45.9080012  57.9934997 116.3819988  45.8090012  58.9404997 116.2769988
  45.1650012  57.6214997 115.9059988  45.7941184  58.0725863 116.3033621
  47.1720012  62.3154997 119.9459988  46.9360012  62.0954997 120.8469988
  46.3880012  62.1084997 119.4359988  47.0338504  62.2574586 120.0003431
  49.8870012  61.4424997 119.0209988  48.9400012  61.4744997 119.1539988
  50.2000012  60.8174997 119.6749988  49.7996707  61.3623998 119.1276060
  51.5210012  60.0764997 121.0269988  51.4250012  59.1244997 121.0209988
  51.2000012  60.3454997 121.8869988  51.4644070  59.9824035 121.1425441
  41.3480012  61.2864997 120.0739988  41.5600012  60.5794997 119.4639988
  41.2370012  60.8484997 120.9179988  41.3619721  61.1307084 120.1046843
  46.1290012  57.2874997 119.0529988  46.8410012  56.6474997 119.0389988
  46.0280012  57.5544997 118.1399988  46.2128066  57.2360079 118.9275677
  46.4830012  58.9704997 121.1069988  46.3510012  58.4944997 120.2869988
  45.8840012  59.7144997 121.0519988  46.3839071  59.0059618 120.9872886
  46.0290012  75.8534997 104.2829988  46.9620012  76.0114997 104.4269988
  45.7650012  76.5284997 103.6589988  46.1209888  75.9664510 104.2182842
  38.2470012  75.8824997 108.8439988  37.6000012  75.4204997 108.3109988
  38.6010012  75.2104997 109.4259988  38.2063849  75.7284723 108.8497959
  39.1170012  73.9634997 110.6479988  38.7820012  73.0834997 110.8199988
  39.3390012  74.3084997 111.5129988  39.1011783  73.8897500 110.7884208
  56.6650012  74.7724997 113.6289988  56.6440012  74.9574997 114.5679988
  57.3560012  75.3414997 113.2879988  56.7554618  74.8746606 113.7113864
  56.2290012  74.3404997 116.5509988  55.7410012  73.6044997 116.1789988
  56.7780012  73.9464997 117.2289988  56.2364820  74.1865889 116.5917813
  54.6790012  70.1294997 121.1889988  53.8130012  70.0244997 121.5829988
  55.0560012  70.8884997 121.6349988  54.6113308  70.2176900 121.3032393
  55.9800012  68.3864997 106.7029988  56.8300012  68.8074997 106.8299988
  55.9860012  67.6464997 107.3099988  56.0971372  68.3440803 106.8024344
  56.3750012  66.4394997 108.5259988  55.6480012  65.9604997 108.9239988
  56.9560012  66.6454997 109.2589988  56.3540473  66.4018103 108.6794528
  56.1340012  69.2244997 113.4739988  56.9670012  68.8464997 113.1939988
  56.2460012  70.1674997 113.3549988  56.2632647  69.3002218 113.4195487
  54.6200012  72.1024997 115.7809988  53.9730012  72.4274997 116.4069988
  54.1030012  71.6624997 115.1069988  54.4614029  72.0875004 115.7755827
  54.1610012  64.9604997 109.0889988  54.0110012  64.0154997 109.0689988
  53.8080012  65.2414997 109.9329988  54.0927448  64.8691481 109.2003705
  39.1970012  67.0384997 113.0999988  39.3810012  66.9564997 112.1639988
  40.0460012  66.9144997 113.5229988  39.3370151  67.0105073 113.0291451
  55.0180012  66.9304997 118.7279988  55.6010012  66.1964997 118.9199988
  55.5820012  67.7024997 118.7749988  55.1739769  66.9344227 118.7606159
  56.5140012  64.8334997 119.4129988  55.6510012  64.4544997 119.2469988
  57.1190012  64.0944997 119.3379988  56.4776119  64.6818268 119.3801528
  53.8720012  62.5434997 107.5519988  54.1520012  61.6364997 107.6759988
  54.6310012  62.9774997 107.1629988  54.0129277  62.4780942 107.5163682
  54.4840012  63.1244997 112.9879988  55.4170012  63.3364997 112.9529988
  54.2490012  63.2264997 113.9099988  54.5799244  63.1673100 113.1078892
  54.5130012  63.8614997 115.7639988  53.6700012  64.1294997 116.1299988
  54.9550012  64.6834997 115.5529988  54.4574158  64.0093291 115.7855491
  38.7940012  62.3094997 119.2409988  39.7140012  62.1874997 119.4769988
  38.3450012  61.5594997 119.6299988  38.8591580  62.1913727 119.3259006
  56.7960012  57.8414997 121.1169988  57.1460012  57.1874997 120.5119988
  56.9430012  58.6784997 120.6769988  56.8637887  57.8651548 120.9746858
  54.4850012  59.8064997 107.5999988  54.6680012  59.3574997 108.4259988
  53.8860012  59.2214997 107.1369988  54.4290202  59.6659975 107.6503275
  40.0150012  60.6214997 112.1319988  40.4610012  59.8294997 112.4339988
  40.4820012  61.3374997 112.5619988  40.1390831  60.6100685 112.2314006
  38.3190012  63.6204997 113.2009988  38.8110012  63.3994997 112.4099988
  38.6820012  64.4614997 113.4819988  38.4353126  63.7038357 113.1307531
  56.3160012  59.9504997 119.4659988  55.3980012  60.2214997 119.4309988
  56.4390012  59.4154997 118.6819988  56.2069729  59.9152508 119.3551923
  56.3520012  59.8734997 104.1279988  56.7640012  59.1524997 103.6529988
  57.0340012  60.5434997 104.1869988  56.5005885  59.8652368 104.0708915
  38.6330012  59.8784997 107.2549988  37.7080012  60.0874997 107.1259988
  39.0870012  60.3624997 106.5649988  38.5677292  59.9725343 107.1440720
  53.4040012  74.8624997 109.2009988  54.0560012  74.5154997 108.5929988
  53.9140012  75.3514997 109.8469988  53.5622637  74.8810597 109.2050236
  38.5970012  58.6164997 115.5989988  37.9320012  58.3704997 116.2429988
  38.1540012  59.2384997 115.0219988  38.4461318  58.6669410 115.6090898
  40.7890012  71.7914997 119.7439988  39.9680012  71.9664997 119.2829988
  40.5360012  71.7184997 120.6639988  40.6425585  71.8055544 119.8053561
  43.7430012  72.7664997 116.0019988  43.3180012  73.5754997 115.7199988
  44.6470012  72.8514997 115.6999988  43.8069975  72.8889300 115.9224816
  48.0540012  74.1654997 118.9619988  48.2390012  73.8314997 119.8399988
  48.9000012  74.4744997 118.6399988  48.1937539  74.1616047 119.0385605
  50.3990012  75.4514997 118.2059988  51.0760012  74.8184997 117.9659988
  50.7210012  75.8524997 119.0129988  50.5351637  75.4191154 118.2822793
  55.3160012  58.0404997 117.2849988  54.5040012  58.3654997 116.8979988
  55.5490012  57.2804997 116.7519988  55.2362203  57.9822758 117.1598880
  41.1450012  76.0224997 116.0499988  40.4240012  76.4624997 115.5989988
  40.7790012  75.7714997 116.8979988  40.9969651  76.0487242 116.1029640
  43.6120012  75.6224997 115.0799988  42.7470012  75.6944997 115.4839988
  43.5570012  76.1694997 114.2959988  43.4862085  75.7062685 115.0293362
  48.3220012  75.5104997 114.2549988  47.8660012  76.0394997 113.6009988
  48.4850012  76.1134997 114.9799988  48.2816068  75.6644607 114.2634838
  50.6500012  74.3884997 115.1999988  49.7450012  74.5534997 114.9339988
  51.0790012  75.2414997 115.1349988  50.5841324  74.5264339 115.1547976
  53.2540012  75.9584997 115.4949988  53.0720012  76.8744997 115.2849988
  53.4310012  75.5484997 114.6489988  53.2530210  76.0284822 115.3517885
  40.5590012  74.6454997 112.9599988  40.5410012  74.2204997 113.8169988
  41.3640012  74.3274997 112.5509988  40.6653529  74.5443013 113.0220946
  42.7010012  73.3554997 111.6149988  42.4820012  72.4394997 111.7849988
  43.5250012  73.4954997 112.0809988  42.7824420  73.2490520 111.7012774
  45.2380012  73.8254997 112.4639988  45.4510012  72.9374997 112.1769988
  45.3020012  73.7914997 113.4179988  45.2758232  73.6993102 112.5537397
  48.7460012  59.4894997 111.6079988  48.0720012  58.8604997 111.8639988
  49.3100012  59.0054997 111.0049988  48.7299230  59.3378744 111.5615340
  53.8890012  57.5974997 111.7209988  54.4930012  58.1444997 111.2189988
  53.0190012  57.9164997 111.4799988  53.8541208  57.7155137 111.6196886
  55.6160012  58.7354997 110.0539988  56.2280012  58.2214997 109.5269988
  55.9980012  59.6134997 110.0769988  55.7513371  58.7837866 109.9850041
  41.0730012  58.1234997 109.4299988  40.2960012  57.8894997 108.9229988
  41.6030012  57.3264997 109.4389988  41.0382330  57.9836988 109.3617742
  39.9090012  57.9214997 105.2339988  40.3480012  58.5324997 104.6419988
  39.2760012  58.4594997 105.7079988  39.8834514  58.0779257 105.2170930
  45.6520012  58.0504997 109.2439988  46.5270012  58.4384997 109.2139988
  45.5160012  57.8354997 110.1659988  45.7533695  58.0745184 109.3646440
  51.2090012  58.0804997 110.8929988  51.2850012  58.1754997 109.9429988
  50.9340012  57.1724997 111.0219988  51.1822321  57.9707867 110.7805079
  52.5620012  58.1064997 106.5849988  51.8600012  58.7214997 106.3749988
  52.1180012  57.2684997 106.7159988  52.4056450  58.0775639 106.5739000
  39.8100012  73.8694997 106.1309988  39.1250012  73.8314997 105.4639988
  39.8140012  74.7824997 106.4199988  39.7166998  73.9876733 106.0786771
  41.7700012  59.8374997 103.6759988  42.2620012  59.2074997 103.1489988
  42.3940012  60.1334997 104.3389988  41.9215688  59.7913804 103.6935482
  55.3840012  74.6424997 107.2079988  55.1890012  73.8944997 106.6429988
  55.3450012  75.4004997 106.6249988  55.3520380  74.6426099 107.0518384
  41.0310012  58.6374997 118.9479988  40.6650012  57.8724997 119.3899988
  41.9440012  58.6664997 119.2339988  41.1042736  58.5365640 119.0472502
  43.0040012  57.9884997 120.4839988  43.9020012  57.7144997 120.2989988
  42.6170012  57.2454997 120.9479988  43.0746612  57.8505914 120.5213643
  51.4250012  57.3204997 120.6659988  51.5020012  56.8944997 121.5199988
  52.3190012  57.3344997 120.3229988  51.5563428  57.2640879 120.7365310
  54.6010012  73.3934997 119.3579988  53.8190012  73.2074997 118.8379988
  54.5290012  74.3224997 119.5759988  54.4842274  73.4936643 119.3163018
  60.3090012  66.1494997 114.4009988  60.3500012  65.5234997 115.1239988
  61.0120012  66.7734997 114.5829988  60.4096363  66.1481196 114.5246044
  71.6460012  69.4734997 111.1089988  71.2060012  68.7534997 111.5599988
  71.6330012  70.1944997 111.7389988  71.5840226  69.4723731 111.2558494
  61.2320012  70.5994997 112.9359988  60.8630012  69.7974997 112.5659988
  62.1730012  70.4304997 112.9819988  61.3087289  70.4670153 112.8916316
  57.8420012  64.2594997 108.3289988  57.3950012  65.1054997 108.3099988
  57.2810012  63.6794997 107.8129988  57.7049900  64.2969916 108.2566801
  58.5530012  66.4214997 110.4539988  58.7660012  65.6514997 110.9819988
  59.2910012  66.5104997 109.8509988  58.6819044  66.3281968 110.4447123
  68.7580012  74.5784997 111.3209988  69.3780012  73.9014997 111.0479988
  68.5500012  74.3604997 112.2299988  68.8146726  74.4564800 111.4064812
  66.3300012  68.9674997 113.2139988  66.6340012  68.2814997 112.6189988
  67.0510012  69.0854997 113.8319988  66.4690671  68.8896305 113.2161816
  74.9930012  60.5684997 114.0749988  75.0420012  61.1784997 114.8099988
  75.4180012  61.0294997 113.3519988  75.0571746  60.7143796 114.0779175
  69.4710012  63.3614997 113.5409988  69.6130012  62.4154997 113.5619988
  69.3640012  63.5684997 112.6129988  69.4759919  63.2598246 113.4183408
  62.6250012  61.4624997 110.8139988  62.6690012  62.3224997 110.3949988
  62.1680012  60.9104997 110.1799988  62.5692240  61.5054422 110.6709864
  70.3480012  61.5934997 109.2149988  70.9940012  61.2644997 109.8389988
  70.8580012  62.1114997 108.5919988  70.5054299  61.6184450 109.2162731
  59.2460012  63.8594997 111.5759988  59.8990012  63.3094997 112.0079988
  59.2700012  63.5854997 110.6589988  59.3386683  63.7471466 111.5112123
  75.3840012  62.0464997 116.3099988  74.6960012  62.7044997 116.2149988
  75.4000012  61.8494997 117.2469988  75.2919540  62.1099819 116.4235990
  61.4360012  60.3804997 114.8879988  61.2170012  60.9104997 114.1219988
  60.7680012  60.6074997 115.5349988  61.3157600  60.4836906 114.8706379
  64.0050012  68.0564997 115.1749988  63.2650012  68.6544997 115.2789988
  64.7190012  68.6104997 114.8599988  64.0002237  68.2132831 115.1466465
  72.1120012  60.8844997 111.1949988  71.8960012  60.1184997 111.7279988
  72.7670012  61.3564997 111.7079988  72.1710632  60.8435889 111.3372861
  61.0290012  62.2724997 112.8399988  61.6430012  62.9054997 113.2129988
  61.5410012  61.8004997 112.1839988  61.1821981  62.2952267 112.8022908
  62.4120012  70.0204997 115.9619988  62.4070012  70.9004997 115.5839988
  61.5590012  69.9374997 116.3869988  62.2959464  70.1296117 115.9677907
  58.5330012  69.6914997 106.7439988  58.2610012  69.9204997 105.8559988
  58.5790012  70.5294997 107.2049988  58.5019482  69.8361318 106.6846273
  72.1580012  71.3134997 113.4569988  71.2170012  71.3714997 113.6189988
  72.4350012  72.2194997 113.3199988  72.0664679  71.4439443 113.4606815
  72.4590012  59.5994997 114.8749988  71.7230012  60.2104997 114.8369988
  73.1420012  60.0144997 114.3479988  72.4506541  59.7391374 114.7985832
  65.4620012  57.6864997 112.3399988  65.3450012  56.7374997 112.2859988
  64.6070012  58.0184997 112.6139988  65.3304212  57.6015571 112.3696497
  70.4100012  73.0944997 110.0819988  70.8360012  72.3874997 109.5969988
  70.7270012  73.8954997 109.6659988  70.5111683  73.1061017 109.9593680
  71.5700012  70.9954997 108.5909988  71.3120012  70.3054997 107.9799988
  71.6410012  70.5524997 109.4369988  71.5442856  70.8412124 108.6216885
  73.2560012  69.5614997 117.0679988  73.3960012  68.9704997 116.3289988
  73.4230012  70.4344997 116.7119988  73.2977411  69.5985428 116.9186894
  75.0980012  65.9014997 115.1339988  74.4450012  66.5964997 115.2239988
  75.5630012  66.1114997 114.3249988  75.0715274  66.0250643 115.0368462
  71.0320012  64.9074997 116.8599988  71.1120012  65.6704997 117.4319988
  70.4300012  65.1864997 116.1699988  70.9615756  65.0497134 116.8450589
  64.1460012  70.7914997 112.3559988  64.0520012  70.2134997 111.5999988
  64.8760012  70.4204997 112.8529988  64.2317387  70.6621663 112.3195342
  63.1460012  66.1324997 113.3089988  63.7120012  66.2534997 112.5459988
  63.4650012  66.7694997 113.9469988  63.2665474  66.2352219 113.2909862
  69.4550012  71.6354997 114.0429988  69.2150012  72.2974997 114.6909988
  69.2570012  70.8014997 114.4679988  69.3953808  71.6133134 114.1891524
  64.0260012  70.5314997 118.0259988  63.7150012  71.3134997 118.4809988
  63.3760012  70.3784997 117.3399988  63.8955558  70.6179105 117.9955871
  60.9460012  66.7294997 117.2539988  61.0170012  67.3804997 117.9529988
  60.0560012  66.8324997 116.9189988  60.8353005  66.8325427 117.3043495
  67.7320012  72.6324997 108.9129988  68.2060012  72.9274997 109.6899988
  67.1690012  73.3704997 108.6799988  67.7208184  72.7727247 108.9879628
  62.2660012  72.6034997 118.7889988  62.2730012  72.4674997 117.8419988
  61.3500012  72.4854997 119.0409988  62.1431714  72.5689430 118.6934666
  57.8630012  68.7964997 116.0789988  57.3620012  68.7684997 115.2639988
  57.8680012  67.8904997 116.3889988  57.7950944  68.6702396 116.0093226
  57.6130012  71.5764997 112.9629988  58.5590012  71.4324997 112.9439988
  57.5010012  72.3604997 113.4999988  57.7272727  71.6628046 113.0330072
  75.8110012  72.2424997 118.6459988  75.7620012  71.2874997 118.6089988
  74.9840012  72.5104997 119.0469988  75.6924940  72.1478998 118.6951375
  66.7900012  71.8164997 117.5219988  66.8770012  72.6424997 117.9969988
  65.9260012  71.4864997 117.7709988  66.6851964  71.8849878 117.6206549
  67.2040012  75.5884997 107.3279988  67.1290012  75.4674997 106.3809988
  67.2370012  76.5384997 107.4459988  67.1982068  75.7002646 107.2144967
  60.8570012  74.3774997 109.1089988  61.0100012  74.0294997 109.9869988
  60.0070012  74.0214997 108.8539988  60.7629166  74.2816216 109.1948079
  72.9630012  63.7354997 119.1259988  72.5560012  64.2164997 118.4049988
  73.0040012  62.8304997 118.8179988  72.9128437  63.6789374 118.9856683
  60.1120012  70.1194997 117.1229988  60.3280012  69.7584997 117.9819988
  59.2570012  69.7454997 116.9129988  60.0259292  70.0194111 117.2123386
  62.7310012  58.5894997 113.1179988  61.8690012  58.5024997 112.7099988
  62.7080012  59.4454997 113.5459988  62.6100409  58.6932883 113.1200589
  67.3940012  58.3114997 116.4929988  67.8140012  57.8964997 117.2459988
  66.4610012  58.1334997 116.6099988  67.3253644  58.2305900 116.6119539
  70.7200012  62.0674997 117.3459988  70.2060012  61.9414997 118.1439988
  70.5650012  62.9794997 117.1019988  70.6286852  62.1736132 117.4222158
  71.4830012  66.9284997 103.1079988  71.5250012  66.7054997 102.1779988
  72.3320012  67.3274997 103.2969988  71.6035280  66.9519438 103.0063554
  62.8220012  63.5554997 114.2129988  62.1800012  63.5144997 114.9219988
  62.8590012  64.4814997 113.9749988  62.7390664  63.6751430 114.2779219
  67.4560012  64.3674997 119.4299988  66.8940012  63.6634997 119.7509988
  68.2830012  64.2474997 119.8979988  67.4907095  64.2547883 119.5372330
  60.5720012  63.8754997 116.0799988  60.5340012  64.2754997 116.9489988
  60.0810012  63.0584997 116.1709988  60.5004684  63.8198069 116.2111059
  57.1800012  60.9914997 109.9309988  57.8110012  60.9624997 110.6499988
  57.6290012  60.5664997 109.1999988  57.3270918  60.9300836 109.9306441
  58.4540012  61.7374997 105.3549988  58.9280012  62.3284997 104.7699988
  57.7370012  62.2684997 105.7019988  58.4219341  61.8900867 105.3218836
  68.6230012  65.2764997 115.4269988  68.9460012  64.6454997 114.7839988
  68.1830012  64.7414997 116.0879988  68.6077484  65.1178387 115.4283198
  60.2290012  62.8324997 109.0379988  59.3390012  62.9324997 108.6979988
  60.5250012  61.9904997 108.6919988  60.1472823  62.7323546 108.9447213
  69.8050012  60.4384997 113.4759988  69.1290012  60.5694997 114.1399988
  69.3200012  60.2834997 112.6649988  69.6467146  60.4355157 113.4574469
  73.0930012  76.1104997 119.7519988  73.2930012  76.5344997 118.9179988
  73.7480012  76.4534997 120.3589988  73.2090072  76.2149857 119.7198592
  60.6910012  68.5844997 119.3599988  61.4230012  68.8384997 119.9219988
  59.9110012  68.7884997 119.8759988  60.6857073  68.6468160 119.5066151
  66.7200012  63.9914997 112.0979988  67.2850012  63.4444997 111.5509988
  66.5730012  63.4694997 112.8869988  66.7773380  63.8462259 112.1298695
  61.7220012  60.1274997 108.5169988  61.4050012  59.2254997 108.4809988
  62.5040012  60.1294997 107.9639988  61.7842408  60.0042474 108.4373569
  65.3470012  62.3794997 114.5119988  64.5110012  62.8334997 114.6229988
  65.8710012  62.6554997 115.2639988  65.3035416  62.4788660 114.6288119
  73.0410012  67.7254997 114.9839988  73.6830012  68.1824997 114.4399988
  72.2110012  67.8384997 114.5209988  73.0165963  67.8032704 114.8470177
  67.4100012  68.7764997 117.4339988  67.0650012  68.3954997 118.2409988
  67.2100012  69.7104997 117.5049988  67.3357527  68.8505135 117.5540689
  61.0160012  67.8874997 111.9669988  61.7610012  67.8854997 111.3659988
  61.0940012  67.0644997 112.4479988  61.1284995  67.7758887 111.9498282
  68.0170012  70.0514997 105.2229988  67.7210012  70.8774997 105.6039988
  67.3140012  69.4314997 105.4189988  67.8814914  70.0808199 105.3016443
  58.0240012  66.3484997 117.2819988  58.2470012  65.9304997 118.1139988
  57.4220012  65.7354997 116.8589988  57.9731759  66.2084668 117.3387022
  65.0400012  65.8654997 119.4949988  64.7440012  65.6994997 118.5999988
  65.9720012  65.6454997 119.4839988  65.1254166  65.8130640 119.3710536
  69.6610012  71.2384997 117.3849988  68.7600012  71.4214997 117.1169988
  69.6950012  71.4974997 118.3049988  69.5423139  71.2985849 117.4728099
  75.3550012  69.2834997 118.5889988  74.5040012  69.5214997 118.2219988
  75.9460012  69.2664997 117.8359988  75.3182487  69.3138258 118.4368893
  70.8480012  67.0774997 113.2379988  69.9190012  66.8454997 113.2109988
  71.2990012  66.3004997 112.9079988  70.7819216  66.9407238 113.1896917
  65.3330012  73.2174997 115.2629988  65.6950012  74.0724997 115.0289988
  65.8640012  72.9254997 116.0029988  65.4544473  73.2951060 115.3310855
  68.8770012  69.3164997 114.9629988  68.4510012  69.0894997 115.7899988
  69.4570012  68.5784997 114.7809988  68.8971868  69.1855299 115.0515830
  71.0800012  70.2454997 104.0369988  71.4330012  69.8654997 104.8409988
  70.1310012  70.1524997 104.1239988  71.0000918  70.1808956 104.1588532
  71.5350012  73.8684997 117.4329988  70.9340012  73.3134997 116.9369988
  71.8170012  74.5354997 116.8059988  71.4908804  73.8826625 117.2804849
  59.6580012  61.1014997 116.8399988  58.7650012  61.4404997 116.7719988
  59.5590012  60.2464997 117.2579988  59.5224164  61.0322588 116.8872235
  71.9460012  68.9184997 106.2639988  71.6680012  68.1904997 106.8199988
  72.8730012  69.0374997 106.4689988  72.0333124  68.8348802 106.3678845
  59.3090012  72.9064997 115.2749988  59.5260012  71.9744997 115.2439988
  59.5550012  73.1804997 116.1579988  59.3719549  72.8160636 115.3901763
  65.1710012  71.3574997 102.4839988  65.4100012  70.6094997 101.9369988
  64.9020012  70.9694997 103.3169988  65.1673675  71.2026638 102.5216865
  68.3920012  60.8424997 115.7299988  69.0910012  60.9164997 116.3799988
  68.0110012  59.9784997 115.8839988  68.4361767  60.7357624 115.8398322
  66.8450012  72.6254997 105.6899988  66.0290012  73.1224997 105.7419988
  67.3750012  73.1004997 105.0499988  66.8049161  72.7577722 105.6105956
  66.9120012  63.2084997 116.8459988  67.0310012  63.7824997 117.6039988
  67.5680012  62.5204997 116.9609988  67.0169025  63.1939858 116.9651321
  67.2600012  59.3034997 108.5999988  66.9140012  59.9214997 109.2439988
  67.9190012  59.8044997 108.1179988  67.3016968  59.4556278 108.6229383
  73.1170012  61.1154997 117.6809988  72.2000012  61.3784997 117.5939988
  73.4520012  61.1124997 116.7849988  73.0368613  61.1510761 117.5478837
  72.8050012  74.1224997 113.3999988  72.6500012  74.8004997 112.7419988
  73.7380012  74.1944997 113.6029988  72.9098657  74.2249546 113.3374360
  60.3010012  58.2404997 112.1369988  60.0720012  58.2994997 111.2089988
  59.8580012  57.4484997 112.4429988  60.2098530  58.1415753 112.0514786
  59.2310012  72.1804997 108.2969988  58.3990012  72.6534997 108.3239988
  59.7770012  72.6904997 107.6989988  59.1910352  72.3141332 108.2198463
  58.5190012  74.7934997 119.6269988  59.0600012  74.5764997 120.3869988
  58.0380012  73.9874997 119.4369988  58.5279951  74.6549270 119.7052576
  63.1170012  73.7124997 121.2469988  63.8840012  73.2534997 121.5879988
  63.0950012  73.4864997 120.3179988  63.2191275  73.6190186 121.1680101
  67.2090012  73.2204997 102.6229988  66.5650012  72.5894997 102.9439988
  67.9710012  72.6894997 102.3909988  67.2238077  73.0622920 102.6356011
  69.6940012  72.0924997 119.9769988  69.3430012  71.2364997 120.2199988
  70.4200012  72.2354997 120.5839988  69.7440769  71.9945636 120.0923619
  58.4260012  68.6034997 120.5809988  58.5700012  67.7014997 120.2949988
  57.6540012  68.8894997 120.0939988  58.3412753  68.5186816 120.4759505
  65.0820012  68.5734997 120.0139988  64.7530012  68.8444997 119.1569988
  65.2340012  67.6324997 119.9269988  65.0574809  68.4833862 119.8848244
  70.8160012  68.4894997 117.3969988  71.5620012  69.0774997 117.2779988
  70.0590012  69.0714997 117.4609988  70.8157820  68.6487143 117.3893590
  59.2590012  65.8034997 120.0009988  59.6670012  64.9464997 119.8799988
  58.9990012  65.8184997 120.9219988  59.2797568  65.6880807 120.1089588
  63.2060012  64.8124997 117.3759988  62.5880012  65.4874997 117.6559988
  63.5500012  65.1334997 116.5419988  63.1679132  64.9482411 117.3016262
  68.2260012  67.2844997 120.6529988  69.1790012  67.3674997 120.6259988
  68.0650012  66.5724997 121.2729988  68.3346426  67.1996746 120.7330579
  63.5450012  62.1674997 118.4579988  63.6950012  61.4384997 117.8559988
  63.5480012  62.9444997 117.8989988  63.5659302  62.1727851 118.3000692
  63.9580012  60.5374997 115.9509988  64.4940012  60.9884997 115.2989988
  63.1060012  60.4294997 115.5279988  63.9162178  60.5846390 115.8045756
  65.5400012  65.9764997 116.1899988  66.2900012  65.8204997 115.6169988
  65.2010012  66.8284997 115.9149988  65.5968921  66.0702968 116.0743561
  69.9550012  63.7914997 121.2189988  70.1480012  62.8604997 121.1069988
  70.8130012  64.2164997 121.2079988  70.0972934  63.7216531 121.2022031
  71.2720012  66.5804997 119.2959988  70.9910012  67.2894997 118.7179988
  72.2150012  66.5074997 119.1449988  71.3609291  66.6676711 119.1964967
  62.0240012  63.3654997 120.3699988  61.2570012  62.8334997 120.1589988
  62.7030012  63.0554997 119.7699988  62.0107877  63.2508300 120.2600716
  64.7640012  57.9934997 116.3819988  64.6650012  58.9404997 116.2769988
  64.0210012  57.6214997 115.9059988  64.6501184  58.0725863 116.3033621
  66.0280012  62.3154997 119.9459988  65.7920012  62.0954997 120.8469988
  65.2440012  62.1084997 119.4359988  65.8898504  62.2574586 120.0003431
  68.7430012  61.4424997 119.0209988  67.7960012  61.4744997 119.1539988
  69.0560012  60.8174997 119.6749988  68.6556707  61.3623998 119.1276060
  70.3770012  60.0764997 121.0269988  70.2810012  59.1244997 121.0209988
  70.0560012  60.3454997 121.8869988  70.3204070  59.9824035 121.1425441
  60.2040012  61.2864997 120.0739988  60.4160012  60.5794997 119.4639988
  60.0930012  60.8484997 120.9179988  60.2179721  61.1307084 120.1046843
  64.9850012  57.2874997 119.0529988  65.6970012  56.6474997 119.0389988
  64.8840012  57.5544997 118.1399988  65.0688066  57.2360079 118.9275677
  65.3390012  58.9704997 121.1069988  65.2070012  58.4944997 120.2869988
  64.7400012  59.7144997 121.0519988  65.2399071  59.0059618 120.9872886
  57.9730012  73.9634997 110.6479988  57.6380012  73.0834997 110.8199988
  58.1950012  74.3084997 111.5129988  57.9571783  73.8897500 110.7884208
  75.5210012  74.7724997 113.6289988  75.5000012  74.9574997 114.5679988
  76.2120012  75.3414997 113.2879988  75.6114618  74.8746606 113.7113864
  75.0850012  74.3404997 116.5509988  74.5970012  73.6044997 116.1789988
  75.6340012  73.9464997 117.2289988  75.0924820  74.1865889 116.5917813
  73.5350012  70.1294997 121.1889988  72.6690012  70.0244997 121.5829988
  73.9120012  70.8884997 121.6349988  73.4673308  70.2176900 121.3032393
  74.9900012  69.2244997 113.4739988  75.8230012  68.8464997 113.1939988
  75.1020012  70.1674997 113.3549988  75.1192647  69.3002218 113.4195487
  73.4760012  72.1024997 115.7809988  72.8290012  72.4274997 116.4069988
  72.9590012  71.6624997 115.1069988  73.3174029  72.0875004 115.7755827
  58.0530012  67.0384997 113.0999988  58.2370012  66.9564997 112.1639988
  58.9020012  66.9144997 113.5229988  58.1930151  67.0105073 113.0291451
  73.8740012  66.9304997 118.7279988  74.4570012  66.1964997 118.9199988
  74.4380012  67.7024997 118.7749988  74.0299769  66.9344227 118.7606159
  75.3700012  64.8334997 119.4129988  74.5070012  64.4544997 119.2469988
  75.9750012  64.0944997 119.3379988  75.3336119  64.6818268 119.3801528
  73.3690012  63.8614997 115.7639988  72.5260012  64.1294997 116.1299988
  73.8110012  64.6834997 115.5529988  73.3134158  64.0093291 115.7855491
  57.6500012  62.3094997 119.2409988  58.5700012  62.1874997 119.4769988
  57.2010012  61.5594997 119.6299988  57.7151580  62.1913727 119.3259006
  75.6520012  57.8414997 121.1169988  76.0020012  57.1874997 120.5119988
  75.7990012  58.6784997 120.6769988  75.7197887  57.8651548 120.9746858
  58.8710012  60.6214997 112.1319988  59.3170012  59.8294997 112.4339988
  59.3380012  61.3374997 112.5619988  58.9950831  60.6100685 112.2314006
  57.1750012  63.6204997 113.2009988  57.6670012  63.3994997 112.4099988
  57.5380012  64.4614997 113.4819988  57.2913126  63.7038357 113.1307531
  75.1720012  59.9504997 119.4659988  74.2540012  60.2214997 119.4309988
  75.2950012  59.4154997 118.6819988  75.0629729  59.9152508 119.3551923
  57.4890012  59.8784997 107.2549988  56.5640012  60.0874997 107.1259988
  57.9430012  60.3624997 106.5649988  57.4237292  59.9725343 107.1440720
  72.2600012  74.8624997 109.2009988  72.9120012  74.5154997 108.5929988
  72.7700012  75.3514997 109.8469988  72.4182637  74.8810597 109.2050236
  57.4530012  58.6164997 115.5989988  56.7880012  58.3704997 116.2429988
  57.0100012  59.2384997 115.0219988  57.3021318  58.6669410 115.6090898
  59.6450012  71.7914997 119.7439988  58.8240012  71.9664997 119.2829988
  59.3920012  71.7184997 120.6639988  59.4985585  71.8055544 119.8053561
  62.5990012  72.7664997 116.0019988  62.1740012  73.5754997 115.7199988
  63.5030012  72.8514997 115.6999988  62.6629975  72.8889300 115.9224816
  66.9100012  74.1654997 118.9619988  67.0950012  73.8314997 119.8399988
  67.7560012  74.4744997 118.6399988  67.0497539  74.1616047 119.0385605
  69.2550012  75.4514997 118.2059988  69.9320012  74.8184997 117.9659988
  69.5770012  75.8524997 119.0129988  69.3911637  75.4191154 118.2822793
  74.1720012  58.0404997 117.2849988  73.3600012  58.3654997 116.8979988
  74.4050012  57.2804997 116.7519988  74.0922203  57.9822758 117.1598880
  60.0010012  76.0224997 116.0499988  59.2800012  76.4624997 115.5989988
  59.6350012  75.7714997 116.8979988  59.8529651  76.0487242 116.1029640
  62.4680012  75.6224997 115.0799988  61.6030012  75.6944997 115.4839988
  62.4130012  76.1694997 114.2959988  62.3422085  75.7062685 115.0293362
  67.1780012  75.5104997 114.2549988  66.7220012  76.0394997 113.6009988
  67.3410012  76.1134997 114.9799988  67.1376068  75.6644607 114.2634838
  69.5060012  74.3884997 115.1999988  68.6010012  74.5534997 114.9339988
  69.9350012  75.2414997 115.1349988  69.4401324  74.5264339 115.1547976
  72.1100012  75.9584997 115.4949988  71.9280012  76.8744997 115.2849988
  72.2870012  75.5484997 114.6489988  72.1090210  76.0284822 115.3517885
  59.4150012  74.6454997 112.9599988  59.3970012  74.2204997 113.8169988
  60.2200012  74.3274997 112.5509988  59.5213529  74.5443013 113.0220946
  61.5570012  73.3554997 111.6149988  61.3380012  72.4394997 111.7849988
  62.3810012  73.4954997 112.0809988  61.6384420  73.2490520 111.7012774
  64.0940012  73.8254997 112.4639988  64.3070012  72.9374997 112.1769988
  64.1580012  73.7914997 113.4179988  64.1318232  73.6993102 112.5537397
  67.6020012  59.4894997 111.6079988  66.9280012  58.8604997 111.8639988
  68.1660012  59.0054997 111.0049988  67.5859230  59.3378744 111.5615340
  72.7450012  57.5974997 111.7209988  73.3490012  58.1444997 111.2189988
  71.8750012  57.9164997 111.4799988  72.7101208  57.7155137 111.6196886
  59.9290012  58.1234997 109.4299988  59.1520012  57.8894997 108.9229988
  60.4590012  57.3264997 109.4389988  59.8942330  57.9836988 109.3617742
  64.5080012  58.0504997 109.2439988  65.3830012  58.4384997 109.2139988
  64.3720012  57.8354997 110.1659988  64.6093695  58.0745184 109.3646440
  65.6520012  60.1304997 106.1329988  65.8300012  59.4844997 106.8159988
  65.5990012  60.9644997 106.5999988  65.6691999  60.1548009 106.2895917
  67.5310012  75.0794997 104.5289988  68.3970012  75.4454997 104.3509988
  67.2840012  74.6394997 103.7149988  67.6162392  75.0701756 104.3946289
  59.8870012  58.6374997 118.9479988  59.5210012  57.8724997 119.3899988
  60.8000012  58.6664997 119.2339988  59.9602736  58.5365640 119.0472502
  61.8600012  57.9884997 120.4839988  62.7580012  57.7144997 120.2989988
  61.4730012  57.2454997 120.9479988  61.9306612  57.8505914 120.5213643
  70.2810012  57.3204997 120.6659988  70.3580012  56.8944997 121.5199988
  71.1750012  57.3344997 120.3229988  70.4123428  57.2640879 120.7365310
  73.4570012  73.3934997 119.3579988  72.6750012  73.2074997 118.8379988
  73.3850012  74.3224997 119.5759988  73.3402274  73.4936643 119.3163018
  87.8630012  67.2794997 109.3889988  87.9520012  68.2234997 109.2569988
  87.2250012  67.0044997 108.7309988  87.7889081  67.3714830 109.2819614
  86.7960012  66.5344997 112.8079988  86.7580012  65.8884997 113.5129988
  86.4740012  66.0684997 112.0369988  86.7472333  66.3829408 112.8002978
  79.1650012  66.1494997 114.4009988  79.2060012  65.5234997 115.1239988
  79.8680012  66.7734997 114.5829988  79.2656363  66.1481196 114.5246044
  90.5020012  69.4734997 111.1089988  90.0620012  68.7534997 111.5599988
  90.4890012  70.1944997 111.7389988  90.4400226  69.4723731 111.2558494
  80.0880012  70.5994997 112.9359988  79.7190012  69.7974997 112.5659988
  81.0290012  70.4304997 112.9819988  80.1647289  70.4670153 112.8916316
  87.6140012  74.5784997 111.3209988  88.2340012  73.9014997 111.0479988
  87.4060012  74.3604997 112.2299988  87.6706726  74.4564800 111.4064812
  85.1860012  68.9674997 113.2139988  85.4900012  68.2814997 112.6189988
  85.9070012  69.0854997 113.8319988  85.3250671  68.8896305 113.2161816
  93.8490012  60.5684997 114.0749988  93.8980012  61.1784997 114.8099988
  94.2740012  61.0294997 113.3519988  93.9131746  60.7143796 114.0779175
  88.3270012  63.3614997 113.5409988  88.4690012  62.4154997 113.5619988
  88.2200012  63.5684997 112.6129988  88.3319919  63.2598246 113.4183408
  81.4810012  61.4624997 110.8139988  81.5250012  62.3224997 110.3949988
  81.0240012  60.9104997 110.1799988  81.4252240  61.5054422 110.6709864
  89.2040012  61.5934997 109.2149988  89.8500012  61.2644997 109.8389988
  89.7140012  62.1114997 108.5919988  89.3614299  61.6184450 109.2162731
  83.2580012  65.4094997 110.7909988  83.8740012  64.8834997 111.3009988
  82.6720012  64.7694997 110.3879988  83.2630810  65.2509208 110.8063173
  94.2400012  62.0464997 116.3099988  93.5520012  62.7044997 116.2149988
  94.2560012  61.8494997 117.2469988  94.1479540  62.1099819 116.4235990
  80.2920012  60.3804997 114.8879988  80.0730012  60.9104997 114.1219988
  79.6240012  60.6074997 115.5349988  80.1717600  60.4836906 114.8706379
  87.6610012  69.8804997 108.4319988  87.3650012  69.5584997 107.5809988
  87.3360012  70.7804997 108.4729988  87.5766371  69.9580215 108.3211801
  82.8610012  68.0564997 115.1749988  82.1210012  68.6544997 115.2789988
  83.5750012  68.6104997 114.8599988  82.8562237  68.2132831 115.1466465
  90.9680012  60.8844997 111.1949988  90.7520012  60.1184997 111.7279988
  91.6230012  61.3564997 111.7079988  91.0270632  60.8435889 111.3372861
  79.8850012  62.2724997 112.8399988  80.4990012  62.9054997 113.2129988
  80.3970012  61.8004997 112.1839988  80.0381981  62.2952267 112.8022908
  81.2680012  70.0204997 115.9619988  81.2630012  70.9004997 115.5839988
  80.4150012  69.9374997 116.3869988  81.1519464  70.1296117 115.9677907
  91.0140012  71.3134997 113.4569988  90.0730012  71.3714997 113.6189988
  91.2910012  72.2194997 113.3199988  90.9224679  71.4439443 113.4606815
  91.3150012  59.5994997 114.8749988  90.5790012  60.2104997 114.8369988
  91.9980012  60.0144997 114.3479988  91.3066541  59.7391374 114.7985832
  84.3180012  57.6864997 112.3399988  84.2010012  56.7374997 112.2859988
  83.4630012  58.0184997 112.6139988  84.1864212  57.6015571 112.3696497
  89.2660012  73.0944997 110.0819988  89.6920012  72.3874997 109.5969988
  89.5830012  73.8954997 109.6659988  89.3671683  73.1061017 109.9593680
  90.4260012  70.9954997 108.5909988  90.1680012  70.3054997 107.9799988
  90.4970012  70.5524997 109.4369988  90.4002856  70.8412124 108.6216885
  92.1120012  69.5614997 117.0679988  92.2520012  68.9704997 116.3289988
  92.2790012  70.4344997 116.7119988  92.1537411  69.5985428 116.9186894
  86.5850012  66.5234997 106.8409988  85.8730012  67.0584997 106.4889988
  87.2760012  66.5794997 106.1809988  86.5810132  66.6042543 106.7036289
  93.9540012  65.9014997 115.1339988  93.3010012  66.5964997 115.2239988
  94.4190012  66.1114997 114.3249988  93.9275274  66.0250643 115.0368462
  89.9900012  66.7334997 107.7929988  89.2580012  66.9614997 108.3659988
  90.4380012  66.0194997 108.2469988  89.9502725  66.6682145 107.9328816
  89.8880012  64.9074997 116.8599988  89.9680012  65.6704997 117.4319988
  89.2860012  65.1864997 116.1699988  89.8175756  65.0497134 116.8450589
  83.0020012  70.7914997 112.3559988  82.9080012  70.2134997 111.5999988
  83.7320012  70.4204997 112.8529988  83.0877386  70.6621663 112.3195342
  82.0020012  66.1324997 113.3089988  82.5680012  66.2534997 112.5459988
  82.3210012  66.7694997 113.9469988  82.1225474  66.2352219 113.2909862
  88.3110012  71.6354997 114.0429988  88.0710012  72.2974997 114.6909988
  88.1130012  70.8014997 114.4679988  88.2513808  71.6133134 114.1891524
  82.8820012  70.5314997 118.0259988  82.5710012  71.3134997 118.4809988
  82.2320012  70.3784997 117.3399988  82.7515558  70.6179105 117.9955871
  79.8020012  66.7294997 117.2539988  79.8730012  67.3804997 117.9529988
  78.9120012  66.8324997 116.9189988  79.6913005  66.8325427 117.3043495
  86.5880012  72.6324997 108.9129988  87.0620012  72.9274997 109.6899988
  86.0250012  73.3704997 108.6799988  86.5768184  72.7727247 108.9879628
  81.1220012  72.6034997 118.7889988  81.1290012  72.4674997 117.8419988
  80.2060012  72.4854997 119.0409988  80.9991714  72.5689430 118.6934666
  76.7190012  68.7964997 116.0789988  76.2180012  68.7684997 115.2639988
  76.7240012  67.8904997 116.3889988  76.6510944  68.6702396 116.0093226
  76.4690012  71.5764997 112.9629988  77.4150012  71.4324997 112.9439988
  76.3570012  72.3604997 113.4999988  76.5832727  71.6628046 113.0330072
  94.6670012  72.2424997 118.6459988  94.6180012  71.2874997 118.6089988
  93.8400012  72.5104997 119.0469988  94.5484940  72.1478998 118.6951375
  85.6460012  71.8164997 117.5219988  85.7330012  72.6424997 117.9969988
  84.7820012  71.4864997 117.7709988  85.5411964  71.8849878 117.6206549
  86.0600012  75.5884997 107.3279988  85.9850012  75.4674997 106.3809988
  86.0930012  76.5384997 107.4459988  86.0542068  75.7002646 107.2144967
  89.1620012  74.7424997 104.3299988  89.5370012  73.9984997 103.8589988
  89.1660012  74.4724997 105.2489988  89.2139125  74.6040986 104.3896483
  88.8310012  74.6684997 107.0789988  87.8950012  74.7684997 107.2579988
  89.1110012  73.9594997 107.6579988  88.7409553  74.5863406 107.1817087
  91.8190012  63.7354997 119.1259988  91.4120012  64.2164997 118.4049988
  91.8600012  62.8304997 118.8179988  91.7688437  63.6789374 118.9856683
  78.9680012  70.1194997 117.1229988  79.1840012  69.7584997 117.9819988
  78.1130012  69.7454997 116.9129988  78.8819292  70.0194111 117.2123386
  81.5870012  58.5894997 113.1179988  80.7250012  58.5024997 112.7099988
  81.5640012  59.4454997 113.5459988  81.4660409  58.6932883 113.1200589
  86.2500012  58.3114997 116.4929988  86.6700012  57.8964997 117.2459988
  85.3170012  58.1334997 116.6099988  86.1813644  58.2305900 116.6119539
  89.5760012  62.0674997 117.3459988  89.0620012  61.9414997 118.1439988
  89.4210012  62.9794997 117.1019988  89.4846852  62.1736132 117.4222158
  85.9110012  60.8044997 103.7779988  85.6580012  60.8234997 104.7009988
  85.6550012  59.9324997 103.4759988  85.8417481  60.6892558 103.8636175
  81.6780012  63.5554997 114.2129988  81.0360012  63.5144997 114.9219988
  81.7150012  64.4814997 113.9749988  81.5950664  63.6751430 114.2779219
  87.2100012  64.1924997 107.9419988  86.8010012  65.0074997 107.6509988
  87.9310012  64.0524997 107.3279988  87.2514537  64.2852018 107.8191342
  86.3120012  64.3674997 119.4299988  85.7500012  63.6634997 119.7509988
  87.1390012  64.2474997 119.8979988  86.3467095  64.2547883 119.5372330
  88.2150012  63.6384997 110.7559988  88.0200012  64.2434997 110.0409988
  88.3960012  62.8044997 110.3219988  88.2127614  63.6086300 110.5994405
  79.4280012  63.8754997 116.0799988  79.3900012  64.2754997 116.9489988
  78.9370012  63.0584997 116.1709988  79.3564684  63.8198069 116.2111059
  87.4790012  65.2764997 115.4269988  87.8020012  64.6454997 114.7839988
  87.0390012  64.7414997 116.0879988  87.4637484  65.1178387 115.4283198
  84.2560012  61.2034997 110.2109988  83.3450012  61.2604997 110.4999988
  84.7620012  61.1434997 111.0219988  84.1996899  61.2031941 110.3601184
  88.6610012  60.4384997 113.4759988  87.9850012  60.5694997 114.1399988
  88.1760012  60.2834997 112.6649988  88.5027146  60.4355157 113.4574469
  91.9490012  76.1104997 119.7519988  92.1490012  76.5344997 118.9179988
  92.6040012  76.4534997 120.3589988  92.0650072  76.2149857 119.7198592
  79.5470012  68.5844997 119.3599988  80.2790012  68.8384997 119.9219988
  78.7670012  68.7884997 119.8759988  79.5417073  68.6468160 119.5066151
  85.5760012  63.9914997 112.0979988  86.1410012  63.4444997 111.5509988
  85.4290012  63.4694997 112.8869988  85.6333380  63.8462259 112.1298695
  84.2030012  62.3794997 114.5119988  83.3670012  62.8334997 114.6229988
  84.7270012  62.6554997 115.2639988  84.1595416  62.4788660 114.6288119
  84.7470012  68.5924997 106.1969988  84.0020012  68.0854997 105.8749988
  84.6130012  68.6414997 107.1439988  84.6268776  68.5296940 106.2808647
  91.8970012  67.7254997 114.9839988  92.5390012  68.1824997 114.4399988
  91.0670012  67.8384997 114.5209988  91.8725963  67.8032704 114.8470177
  88.6450012  61.4064997 104.3959988  87.7060012  61.5184997 104.2449988
  88.9420012  62.2634997 104.7029988  88.5567583  61.5375981 104.4168337
  86.2660012  68.7764997 117.4339988  85.9210012  68.3954997 118.2409988
  86.0660012  69.7104997 117.5049988  86.1917527  68.8505135 117.5540689
  89.3630012  63.2734997 106.0569988  90.2550012  63.1364997 106.3759988
  89.4200012  64.0644997 105.5199988  89.4926504  63.3616052 106.0280818
  79.8720012  67.8874997 111.9669988  80.6170012  67.8854997 111.3659988
  79.9500012  67.0644997 112.4479988  79.9844995  67.7758887 111.9498282
  76.8800012  66.3484997 117.2819988  77.1030012  65.9304997 118.1139988
  76.2780012  65.7354997 116.8589988  76.8291759  66.2084668 117.3387022
  83.8960012  65.8654997 119.4949988  83.6000012  65.6994997 118.5999988
  84.8280012  65.6454997 119.4839988  83.9814166  65.8130640 119.3710536
  88.5170012  71.2384997 117.3849988  87.6160012  71.4214997 117.1169988
  88.5510012  71.4974997 118.3049988  88.3983139  71.2985849 117.4728099
  94.2480012  63.4834997 105.7519988  93.6940012  63.0874997 105.0799988
  94.3480012  64.3934997 105.4739988  94.1857059  63.5523586 105.6224401
  94.2110012  69.2834997 118.5889988  93.3600012  69.5214997 118.2219988
  94.8020012  69.2664997 117.8359988  94.1742487  69.3138258 118.4368893
  92.5430012  72.2694997 106.2169988  92.1700012  71.4434997 106.5259988
  92.8210012  72.0864997 105.3189988  92.5295222  72.1317430 106.1379473
  89.7040012  67.0774997 113.2379988  88.7750012  66.8454997 113.2109988
  90.1550012  66.3004997 112.9079988  89.6379216  66.9407238 113.1896917
  84.1890012  73.2174997 115.2629988  84.5510012  74.0724997 115.0289988
  84.7200012  72.9254997 116.0029988  84.3104473  73.2951060 115.3310855
  87.7330012  69.3164997 114.9629988  87.3070012  69.0894997 115.7899988
  88.3130012  68.5784997 114.7809988  87.7531868  69.1855299 115.0515830
  90.3910012  73.8684997 117.4329988  89.7900012  73.3134997 116.9369988
  90.6730012  74.5354997 116.8059988  90.3468804  73.8826625 117.2804849
  78.5140012  61.1014997 116.8399988  77.6210012  61.4404997 116.7719988
  78.4150012  60.2464997 117.2579988  78.3784164  61.0322588 116.8872235
  78.1650012  72.9064997 115.2749988  78.3820012  71.9744997 115.2439988
  78.4110012  73.1804997 116.1579988  78.2279549  72.8160636 115.3901763
  87.2480012  60.8424997 115.7299988  87.9470012  60.9164997 116.3799988
  86.8670012  59.9784997 115.8839988  87.2921767  60.7357624 115.8398322
  88.0330012  60.4944997 106.8269988  88.2530012  60.9664997 106.0239988
  88.5910012  60.8894997 107.4969988  88.1384968  60.6124285 106.8077331
  85.7680012  63.2084997 116.8459988  85.8870012  63.7824997 117.6039988
  86.4240012  62.5204997 116.9609988  85.8729025  63.1939858 116.9651321
  86.1160012  59.3034997 108.5999988  85.7700012  59.9214997 109.2439988
  86.7750012  59.8044997 108.1179988  86.1576968  59.4556278 108.6229383
  91.9730012  61.1154997 117.6809988  91.0560012  61.3784997 117.5939988
  92.3080012  61.1124997 116.7849988  91.8928613  61.1510761 117.5478837
  90.5750012  64.8664997 111.7769988  89.7770012  64.4514997 111.4489988
  91.0200012  64.1754997 112.2679988  90.5259885  64.7163543 111.7984889
  91.6610012  74.1224997 113.3999988  91.5060012  74.8004997 112.7419988
  92.5940012  74.1944997 113.6029988  91.7658657  74.2249546 113.3374360
  79.1570012  58.2404997 112.1369988  78.9280012  58.2994997 111.2089988
  78.7140012  57.4484997 112.4429988  79.0658530  58.1415753 112.0514786
  77.3750012  74.7934997 119.6269988  77.9160012  74.5764997 120.3869988
  76.8940012  73.9874997 119.4369988  77.3839951  74.6549270 119.7052576
  81.9730012  73.7124997 121.2469988  82.7400012  73.2534997 121.5879988
  81.9510012  73.4864997 120.3179988  82.0751275  73.6190186 121.1680101
  88.5500012  72.0924997 119.9769988  88.1990012  71.2364997 120.2199988
  89.2760012  72.2354997 120.5839988  88.6000769  71.9945636 120.0923619
  90.6690012  73.0374997 102.8559988  90.9520012  72.2434997 103.3089988
  91.4090012  73.2704997 102.2959988  90.8078006  72.9603376 102.8422715
  77.2820012  68.6034997 120.5809988  77.4260012  67.7014997 120.2949988
  76.5100012  68.8894997 120.0939988  77.1972753  68.5186816 120.4759505
  83.9380012  68.5734997 120.0139988  83.6090012  68.8444997 119.1569988
  84.0900012  67.6324997 119.9269988  83.9134809  68.4833862 119.8848244
  89.6720012  68.4894997 117.3969988  90.4180012  69.0774997 117.2779988
  88.9150012  69.0714997 117.4609988  89.6717820  68.6487143 117.3893590
  78.1150012  65.8034997 120.0009988  78.5230012  64.9464997 119.8799988
  77.8550012  65.8184997 120.9219988  78.1357568  65.6880807 120.1089588
  82.0620012  64.8124997 117.3759988  81.4440012  65.4874997 117.6559988
  82.4060012  65.1334997 116.5419988  82.0239132  64.9482411 117.3016262
  87.0820012  67.2844997 120.6529988  88.0350012  67.3674997 120.6259988
  86.9210012  66.5724997 121.2729988  87.1906426  67.1996746 120.7330579
  82.4010012  62.1674997 118.4579988  82.5510012  61.4384997 117.8559988
  82.4040012  62.9444997 117.8989988  82.4219302  62.1727851 118.3000692
  82.8140012  60.5374997 115.9509988  83.3500012  60.9884997 115.2989988
  81.9620012  60.4294997 115.5279988  82.7722178  60.5846390 115.8045756
  84.3960012  65.9764997 116.1899988  85.1460012  65.8204997 115.6169988
  84.0570012  66.8284997 115.9149988  84.4528921  66.0702968 116.0743561
  88.8110012  63.7914997 121.2189988  89.0040012  62.8604997 121.1069988
  89.6690012  64.2164997 121.2079988  88.9532934  63.7216531 121.2022031
  90.1280012  66.5804997 119.2959988  89.8470012  67.2894997 118.7179988
  91.0710012  66.5074997 119.1449988  90.2169291  66.6676711 119.1964967
  80.8800012  63.3654997 120.3699988  80.1130012  62.8334997 120.1589988
  81.5590012  63.0554997 119.7699988  80.8667877  63.2508300 120.2600716
  83.6200012  57.9934997 116.3819988  83.5210012  58.9404997 116.2769988
  82.8770012  57.6214997 115.9059988  83.5061184  58.0725863 116.3033621
  84.8840012  62.3154997 119.9459988  84.6480012  62.0954997 120.8469988
  84.1000012  62.1084997 119.4359988  84.7458504  62.2574586 120.0003431
  87.5990012  61.4424997 119.0209988  86.6520012  61.4744997 119.1539988
  87.9120012  60.8174997 119.6749988  87.5116707  61.3623998 119.1276060
  89.2330012  60.0764997 121.0269988  89.1370012  59.1244997 121.0209988
  88.9120012  60.3454997 121.8869988  89.1764070  59.9824035 121.1425441
  79.0600012  61.2864997 120.0739988  79.2720012  60.5794997 119.4639988
  78.9490012  60.8484997 120.9179988  79.0739721  61.1307084 120.1046843
  83.8410012  57.2874997 119.0529988  84.5530012  56.6474997 119.0389988
  83.7400012  57.5544997 118.1399988  83.9248066  57.2360079 118.9275677
  84.1950012  58.9704997 121.1069988  84.0630012  58.4944997 120.2869988
  83.5960012  59.7144997 121.0519988  84.0959071  59.0059618 120.9872886
  94.3770012  74.7724997 113.6289988  94.3560012  74.9574997 114.5679988
  95.0680012  75.3414997 113.2879988  94.4674618  74.8746606 113.7113864
  93.9410012  74.3404997 116.5509988  93.4530012  73.6044997 116.1789988
  94.4900012  73.9464997 117.2289988  93.9484820  74.1865889 116.5917813
  92.3910012  70.1294997 121.1889988  91.5250012  70.0244997 121.5829988
  92.7680012  70.8884997 121.6349988  92.3233308  70.2176900 121.3032393
  93.6920012  68.3864997 106.7029988  94.5420012  68.8074997 106.8299988
  93.6980012  67.6464997 107.3099988  93.8091372  68.3440803 106.8024344
  94.0870012  66.4394997 108.5259988  93.3600012  65.9604997 108.9239988
  94.6680012  66.6454997 109.2589988  94.0660473  66.4018103 108.6794528
  93.8460012  69.2244997 113.4739988  94.6790012  68.8464997 113.1939988
  93.9580012  70.1674997 113.3549988  93.9752647  69.3002218 113.4195487
  92.3320012  72.1024997 115.7809988  91.6850012  72.4274997 116.4069988
  91.8150012  71.6624997 115.1069988  92.1734029  72.0875004 115.7755827
  94.3550012  66.3404997 104.9179988  93.8330012  66.6974997 104.1989988
  94.3220012  67.0154997 105.5959988  94.2791634  66.4805413 104.9113145
  91.8730012  64.9604997 109.0889988  91.7230012  64.0154997 109.0689988
  91.5200012  65.2414997 109.9329988  91.8047448  64.8691481 109.2003705
  76.9090012  67.0384997 113.0999988  77.0930012  66.9564997 112.1639988
  77.7580012  66.9144997 113.5229988  77.0490151  67.0105073 113.0291451
  92.7300012  66.9304997 118.7279988  93.3130012  66.1964997 118.9199988
  93.2940012  67.7024997 118.7749988  92.8859769  66.9344227 118.7606159
  94.2260012  64.8334997 119.4129988  93.3630012  64.4544997 119.2469988
  94.8310012  64.0944997 119.3379988  94.1896119  64.6818268 119.3801528
  91.5840012  62.5434997 107.5519988  91.8640012  61.6364997 107.6759988
  92.3430012  62.9774997 107.1629988  91.7249277  62.4780942 107.5163682
  92.1960012  63.1244997 112.9879988  93.1290012  63.3364997 112.9529988
  91.9610012  63.2264997 113.9099988  92.2919244  63.1673100 113.1078892
  92.2250012  63.8614997 115.7639988  91.3820012  64.1294997 116.1299988
  92.6670012  64.6834997 115.5529988  92.1694158  64.0093291 115.7855491
  76.5060012  62.3094997 119.2409988  77.4260012  62.1874997 119.4769988
  76.0570012  61.5594997 119.6299988  76.5711580  62.1913727 119.3259006
  94.5080012  57.8414997 121.1169988  94.8580012  57.1874997 120.5119988
  94.6550012  58.6784997 120.6769988  94.5757887  57.8651548 120.9746858
  92.1970012  59.8064997 107.5999988  92.3800012  59.3574997 108.4259988
  91.5980012  59.2214997 107.1369988  92.1410202  59.6659975 107.6503275
  77.7270012  60.6214997 112.1319988  78.1730012  59.8294997 112.4339988
  78.1940012  61.3374997 112.5619988  77.8510831  60.6100685 112.2314006
  76.0310012  63.6204997 113.2009988  76.5230012  63.3994997 112.4099988
  76.3940012  64.4614997 113.4819988  76.1473126  63.7038357 113.1307531
  94.0280012  59.9504997 119.4659988  93.1100012  60.2214997 119.4309988
  94.1510012  59.4154997 118.6819988  93.9189729  59.9152508 119.3551923
  91.1160012  74.8624997 109.2009988  91.7680012  74.5154997 108.5929988
  91.6260012  75.3514997 109.8469988  91.2742637  74.8810597 109.2050236
  76.3090012  58.6164997 115.5989988  75.6440012  58.3704997 116.2429988
  75.8660012  59.2384997 115.0219988  76.1581318  58.6669410 115.6090898
  78.5010012  71.7914997 119.7439988  77.6800012  71.9664997 119.2829988
  78.2480012  71.7184997 120.6639988  78.3545585  71.8055544 119.8053561
  81.4550012  72.7664997 116.0019988  81.0300012  73.5754997 115.7199988
  82.3590012  72.8514997 115.6999988  81.5189975  72.8889300 115.9224816
  85.7660012  74.1654997 118.9619988  85.9510012  73.8314997 119.8399988
  86.6120012  74.4744997 118.6399988  85.9057539  74.1616047 119.0385605
  88.1110012  75.4514997 118.2059988  88.7880012  74.8184997 117.9659988
  88.4330012  75.8524997 119.0129988  88.2471637  75.4191154 118.2822793
  93.0280012  58.0404997 117.2849988  92.2160012  58.3654997 116.8979988
  93.2610012  57.2804997 116.7519988  92.9482203  57.9822758 117.1598880
  78.8570012  76.0224997 116.0499988  78.1360012  76.4624997 115.5989988
  78.4910012  75.7714997 116.8979988  78.7089651  76.0487242 116.1029640
  81.3240012  75.6224997 115.0799988  80.4590012  75.6944997 115.4839988
  81.2690012  76.1694997 114.2959988  81.1982085  75.7062685 115.0293362
  86.0340012  75.5104997 114.2549988  85.5780012  76.0394997 113.6009988
  86.1970012  76.1134997 114.9799988  85.9936068  75.6644607 114.2634838
  88.3620012  74.3884997 115.1999988  87.4570012  74.5534997 114.9339988
  88.7910012  75.2414997 115.1349988  88.2961324  74.5264339 115.1547976
  90.9660012  75.9584997 115.4949988  90.7840012  76.8744997 115.2849988
  91.1430012  75.5484997 114.6489988  90.9650210  76.0284822 115.3517885
  78.2710012  74.6454997 112.9599988  78.2530012  74.2204997 113.8169988
  79.0760012  74.3274997 112.5509988  78.3773529  74.5443013 113.0220946
  80.4130012  73.3554997 111.6149988  80.1940012  72.4394997 111.7849988
  81.2370012  73.4954997 112.0809988  80.4944420  73.2490520 111.7012774
  82.9500012  73.8254997 112.4639988  83.1630012  72.9374997 112.1769988
  83.0140012  73.7914997 113.4179988  82.9878232  73.6993102 112.5537397
  86.4580012  59.4894997 111.6079988  85.7840012  58.8604997 111.8639988
  87.0220012  59.0054997 111.0049988  86.4419230  59.3378744 111.5615340
  91.6010012  57.5974997 111.7209988  92.2050012  58.1444997 111.2189988
  90.7310012  57.9164997 111.4799988  91.5661208  57.7155137 111.6196886
  93.3280012  58.7354997 110.0539988  93.9400012  58.2214997 109.5269988
  93.7100012  59.6134997 110.0769988  93.4633371  58.7837866 109.9850041
  78.7850012  58.1234997 109.4299988  78.0080012  57.8894997 108.9229988
  79.3150012  57.3264997 109.4389988  78.7502330  57.9836988 109.3617742
  77.6210012  57.9214997 105.2339988  78.0600012  58.5324997 104.6419988
  76.9880012  58.4594997 105.7079988  77.5954514  58.0779257 105.2170930
  83.3640012  58.0504997 109.2439988  84.2390012  58.4384997 109.2139988
  83.2280012  57.8354997 110.1659988  83.4653695  58.0745184 109.3646440
  88.9210012  58.0804997 110.8929988  88.9970012  58.1754997 109.9429988
  88.6460012  57.1724997 111.0219988  88.8942321  57.9707867 110.7805079
  90.2740012  58.1064997 106.5849988  89.5720012  58.7214997 106.3749988
  89.8300012  57.2684997 106.7159988  90.1176450  58.0775639 106.5739000
  93.0960012  74.6424997 107.2079988  92.9010012  73.8944997 106.6429988
  93.0570012  75.4004997 106.6249988  93.0640380  74.6426099 107.0518384
  78.7430012  58.6374997 118.9479988  78.3770012  57.8724997 119.3899988
  79.6560012  58.6664997 119.2339988  78.8162736  58.5365640 119.0472502
  80.7160012  57.9884997 120.4839988  81.6140012  57.7144997 120.2989988
  80.3290012  57.2454997 120.9479988  80.7866612  57.8505914 120.5213643
  89.1370012  57.3204997 120.6659988  89.2140012  56.8944997 121.5199988
  90.0310012  57.3344997 120.3229988  89.2683428  57.2640879 120.7365310
  92.3130012  73.3934997 119.3579988  91.5310012  73.2074997 118.8379988
  92.2410012  74.3224997 119.5759988  92.1962274  73.4936643 119.3163018
 106.7190012  67.2794997 109.3889988 106.8080012  68.2234997 109.2569988
 106.0810012  67.0044997 108.7309988 106.6449081  67.3714830 109.2819614
 105.6520012  66.5344997 112.8079988 105.6140012  65.8884997 113.5129988
 105.3300012  66.0684997 112.0369988 105.6032333  66.3829408 112.8002978
  98.0210012  66.1494997 114.4009988  98.0620012  65.5234997 115.1239988
  98.7240012  66.7734997 114.5829988  98.1216363  66.1481196 114.5246044
 109.3580012  69.4734997 111.1089988 108.9180012  68.7534997 111.5599988
 109.3450012  70.1944997 111.7389988 109.2960226  69.4723731 111.2558494
  98.9440012  70.5994997 112.9359988  98.5750012  69.7974997 112.5659988
  99.8850012  70.4304997 112.9819988  99.0207289  70.4670153 112.8916316
  95.5540012  64.2594997 108.3289988  95.1070012  65.1054997 108.3099988
  94.9930012  63.6794997 107.8129988  95.4169900  64.2969916 108.2566801
  96.2650012  66.4214997 110.4539988  96.4780012  65.6514997 110.9819988
  97.0030012  66.5104997 109.8509988  96.3939044  66.3281968 110.4447123
 106.4700012  74.5784997 111.3209988 107.0900012  73.9014997 111.0479988
 106.2620012  74.3604997 112.2299988 106.5266726  74.4564800 111.4064812
 104.0420012  68.9674997 113.2139988 104.3460012  68.2814997 112.6189988
 104.7630012  69.0854997 113.8319988 104.1810671  68.8896305 113.2161816
 112.7050012  60.5684997 114.0749988 112.7540012  61.1784997 114.8099988
 113.1300012  61.0294997 113.3519988 112.7691746  60.7143796 114.0779175
 107.1830012  63.3614997 113.5409988 107.3250012  62.4154997 113.5619988
 107.0760012  63.5684997 112.6129988 107.1879919  63.2598246 113.4183408
 100.3370012  61.4624997 110.8139988 100.3810012  62.3224997 110.3949988
  99.8800012  60.9104997 110.1799988 100.2812240  61.5054422 110.6709864
 108.0600012  61.5934997 109.2149988 108.7060012  61.2644997 109.8389988
 108.5700012  62.1114997 108.5919988 108.2174299  61.6184450 109.2162731
  96.9580012  63.8594997 111.5759988  97.6110012  63.3094997 112.0079988
  96.9820012  63.5854997 110.6589988  97.0506683  63.7471466 111.5112123
 102.1140012  65.4094997 110.7909988 102.7300012  64.8834997 111.3009988
 101.5280012  64.7694997 110.3879988 102.1190810  65.2509208 110.8063173
 113.0960012  62.0464997 116.3099988 112.4080012  62.7044997 116.2149988
 113.1120012  61.8494997 117.2469988 113.0039540  62.1099819 116.4235990
  99.1480012  60.3804997 114.8879988  98.9290012  60.9104997 114.1219988
  98.4800012  60.6074997 115.5349988  99.0277600  60.4836906 114.8706379
 106.5170012  69.8804997 108.4319988 106.2210012  69.5584997 107.5809988
 106.1920012  70.7804997 108.4729988 106.4326371  69.9580215 108.3211801
 101.7170012  68.0564997 115.1749988 100.9770012  68.6544997 115.2789988
 102.4310012  68.6104997 114.8599988 101.7122237  68.2132831 115.1466465
 109.8240012  60.8844997 111.1949988 109.6080012  60.1184997 111.7279988
 110.4790012  61.3564997 111.7079988 109.8830632  60.8435889 111.3372861
  98.7410012  62.2724997 112.8399988  99.3550012  62.9054997 113.2129988
  99.2530012  61.8004997 112.1839988  98.8941981  62.2952267 112.8022908
 100.1240012  70.0204997 115.9619988 100.1190012  70.9004997 115.5839988
  99.2710012  69.9374997 116.3869988 100.0079464  70.1296117 115.9677907
  96.2450012  69.6914997 106.7439988  95.9730012  69.9204997 105.8559988
  96.2910012  70.5294997 107.2049988  96.2139482  69.8361318 106.6846273
 109.8700012  71.3134997 113.4569988 108.9290012  71.3714997 113.6189988
 110.1470012  72.2194997 113.3199988 109.7784679  71.4439443 113.4606815
 110.1710012  59.5994997 114.8749988 109.4350012  60.2104997 114.8369988
 110.8540012  60.0144997 114.3479988 110.1626541  59.7391374 114.7985832
 103.1740012  57.6864997 112.3399988 103.0570012  56.7374997 112.2859988
 102.3190012  58.0184997 112.6139988 103.0424212  57.6015571 112.3696497
 108.1220012  73.0944997 110.0819988 108.5480012  72.3874997 109.5969988
 108.4390012  73.8954997 109.6659988 108.2231683  73.1061017 109.9593680
 109.2820012  70.9954997 108.5909988 109.0240012  70.3054997 107.9799988
 109.3530012  70.5524997 109.4369988 109.2562856  70.8412124 108.6216885
 110.9680012  69.5614997 117.0679988 111.1080012  68.9704997 116.3289988
 111.1350012  70.4344997 116.7119988 111.0097411  69.5985428 116.9186894
 105.4410012  66.5234997 106.8409988 104.7290012  67.0584997 106.4889988
 106.1320012  66.5794997 106.1809988 105.4370132  66.6042543 106.7036289
 112.8100012  65.9014997 115.1339988 112.1570012  66.5964997 115.2239988
 113.2750012  66.1114997 114.3249988 112.7835274  66.0250643 115.0368462
 108.8460012  66.7334997 107.7929988 108.1140012  66.9614997 108.3659988
 109.2940012  66.0194997 108.2469988 108.8062725  66.6682145 107.9328816
 108.7440012  64.9074997 116.8599988 108.8240012  65.6704997 117.4319988
 108.1420012  65.1864997 116.1699988 108.6735756  65.0497134 116.8450589
 100.4920012  67.3634997 109.6749988 100.1610012  66.9934997 108.8569988
 101.0800012  66.6934997 110.0219988 100.5261873  67.2221156 109.6098102
 101.8580012  70.7914997 112.3559988 101.7640012  70.2134997 111.5999988
 102.5880012  70.4204997 112.8529988 101.9437387  70.6621663 112.3195342
 100.8580012  66.1324997 113.3089988 101.4240012  66.2534997 112.5459988
 101.1770012  66.7694997 113.9469988 100.9785474  66.2352219 113.2909862
 107.1670012  71.6354997 114.0429988 106.9270012  72.2974997 114.6909988
 106.9690012  70.8014997 114.4679988 107.1073808  71.6133134 114.1891524
 101.7380012  70.5314997 118.0259988 101.4270012  71.3134997 118.4809988
 101.0880012  70.3784997 117.3399988 101.6075558  70.6179105 117.9955871
 107.7170012  65.8954997 105.4779988 108.2970012  66.0454997 106.2249988
 108.1310012  66.3664997 104.7539988 107.8522997  65.9796578 105.4824058
  98.6580012  66.7294997 117.2539988  98.7290012  67.3804997 117.9529988
  97.7680012  66.8324997 116.9189988  98.5473005  66.8325427 117.3043495
 105.4440012  72.6324997 108.9129988 105.9180012  72.9274997 109.6899988
 104.8810012  73.3704997 108.6799988 105.4328184  72.7727247 108.9879628
  99.9780012  72.6034997 118.7889988  99.9850012  72.4674997 117.8419988
  99.0620012  72.4854997 119.0409988  99.8551714  72.5689430 118.6934666
 111.4160012  57.6454997 105.2909988 110.5160012  57.7844997 105.5859988
 111.6680012  58.4764997 104.8889988 111.3268702  57.7769074 105.2770205
  99.4820012  66.4334997 107.2639988  99.1900012  67.2014997 106.7739988
  98.8080012  65.7734997 107.1019988  99.3508111  66.4495587 107.1748978
  95.5750012  68.7964997 116.0789988  95.0740012  68.7684997 115.2639988
  95.5800012  67.8904997 116.3889988  95.5070944  68.6702396 116.0093226
  95.3250012  71.5764997 112.9629988  96.2710012  71.4324997 112.9439988
  95.2130012  72.3604997 113.4999988  95.4392727  71.6628046 113.0330072
 113.5230012  72.2424997 118.6459988 113.4740012  71.2874997 118.6089988
 112.6960012  72.5104997 119.0469988 113.4044940  72.1478998 118.6951375
 104.5020012  71.8164997 117.5219988 104.5890012  72.6424997 117.9969988
 103.6380012  71.4864997 117.7709988 104.3971964  71.8849878 117.6206549
 104.9160012  75.5884997 107.3279988 104.8410012  75.4674997 106.3809988
 104.9490012  76.5384997 107.4459988 104.9102068  75.7002646 107.2144967
  98.5690012  74.3774997 109.1089988  98.7220012  74.0294997 109.9869988
  97.7190012  74.0214997 108.8539988  98.4749166  74.2816217 109.1948079
 108.0180012  74.7424997 104.3299988 108.3930012  73.9984997 103.8589988
 108.0220012  74.4724997 105.2489988 108.0699125  74.6040986 104.3896483
 107.6870012  74.6684997 107.0789988 106.7510012  74.7684997 107.2579988
 107.9670012  73.9594997 107.6579988 107.5969553  74.5863406 107.1817087
 110.6750012  63.7354997 119.1259988 110.2680012  64.2164997 118.4049988
 110.7160012  62.8304997 118.8179988 110.6248437  63.6789374 118.9856683
  97.8240012  70.1194997 117.1229988  98.0400012  69.7584997 117.9819988
  96.9690012  69.7454997 116.9129988  97.7379292  70.0194111 117.2123386
 100.4430012  58.5894997 113.1179988  99.5810012  58.5024997 112.7099988
 100.4200012  59.4454997 113.5459988 100.3220409  58.6932883 113.1200589
 105.1060012  58.3114997 116.4929988 105.5260012  57.8964997 117.2459988
 104.1730012  58.1334997 116.6099988 105.0373644  58.2305900 116.6119539
 108.4320012  62.0674997 117.3459988 107.9180012  61.9414997 118.1439988
 108.2770012  62.9794997 117.1019988 108.3406852  62.1736132 117.4222158
 100.5340012  63.5554997 114.2129988  99.8920012  63.5144997 114.9219988
 100.5710012  64.4814997 113.9749988 100.4510664  63.6751430 114.2779219
 100.5310012  63.7764997 109.1249988  99.6380012  63.4354997 109.0659988
 100.9810012  63.3994997 108.3689988 100.4698130  63.6789631 109.0147702
 106.0660012  64.1924997 107.9419988 105.6570012  65.0074997 107.6509988
 106.7870012  64.0524997 107.3279988 106.1074537  64.2852018 107.8191342
 105.1680012  64.3674997 119.4299988 104.6060012  63.6634997 119.7509988
 105.9950012  64.2474997 119.8979988 105.2027095  64.2547883 119.5372330
 107.0710012  63.6384997 110.7559988 106.8760012  64.2434997 110.0409988
 107.2520012  62.8044997 110.3219988 107.0687614  63.6086300 110.5994405
  98.2840012  63.8754997 116.0799988  98.2460012  64.2754997 116.9489988
  97.7930012  63.0584997 116.1709988  98.2124684  63.8198069 116.2111059
 101.6500012  61.2494997 102.8789988 101.2190012  60.8044997 103.6089988
 100.9320012  61.6214997 102.3669988 101.4939438  61.2388940 102.9096799
  94.8920012  60.9914997 109.9309988  95.5230012  60.9624997 110.6499988
  95.3410012  60.5664997 109.1999988  95.0390918  60.9300836 109.9306441
 106.3350012  65.2764997 115.4269988 106.6580012  64.6454997 114.7839988
 105.8950012  64.7414997 116.0879988 106.3197484  65.1178387 115.4283198
 103.1120012  61.2034997 110.2109988 102.2010012  61.2604997 110.4999988
 103.6180012  61.1434997 111.0219988 103.0556899  61.2031941 110.3601184
  97.9410012  62.8324997 109.0379988  97.0510012  62.9324997 108.6979988
  98.2370012  61.9904997 108.6919988  97.8592823  62.7323545 108.9447213
 101.5940012  62.8324997 106.6949988 102.5250012  62.9614997 106.8729988
 101.3790012  63.5024997 106.0449988 101.6924247  62.9406565 106.6315747
 107.5170012  60.4384997 113.4759988 106.8410012  60.5694997 114.1399988
 107.0320012  60.2834997 112.6649988 107.3587146  60.4355157 113.4574469
 110.8050012  76.1104997 119.7519988 111.0050012  76.5344997 118.9179988
 111.4600012  76.4534997 120.3589988 110.9210072  76.2149857 119.7198592
  98.4030012  68.5844997 119.3599988  99.1350012  68.8384997 119.9219988
  97.6230012  68.7884997 119.8759988  98.3977073  68.6468160 119.5066151
 104.4320012  63.9914997 112.0979988 104.9970012  63.4444997 111.5509988
 104.2850012  63.4694997 112.8869988 104.4893380  63.8462259 112.1298695
  99.4340012  60.1274997 108.5169988  99.1170012  59.2254997 108.4809988
 100.2160012  60.1294997 107.9639988  99.4962408  60.0042474 108.4373569
 103.0590012  62.3794997 114.5119988 102.2230012  62.8334997 114.6229988
 103.5830012  62.6554997 115.2639988 103.0155416  62.4788660 114.6288119
 103.6030012  68.5924997 106.1969988 102.8580012  68.0854997 105.8749988
 103.4690012  68.6414997 107.1439988 103.4828776  68.5296940 106.2808647
 110.7530012  67.7254997 114.9839988 111.3950012  68.1824997 114.4399988
 109.9230012  67.8384997 114.5209988 110.7285963  67.8032704 114.8470177
 107.5010012  61.4064997 104.3959988 106.5620012  61.5184997 104.2449988
 107.7980012  62.2634997 104.7029988 107.4127583  61.5375981 104.4168337
 105.1220012  68.7764997 117.4339988 104.7770012  68.3954997 118.2409988
 104.9220012  69.7104997 117.5049988 105.0477527  68.8505135 117.5540689
 108.2190012  63.2734997 106.0569988 109.1110012  63.1364997 106.3759988
 108.2760012  64.0644997 105.5199988 108.3486504  63.3616052 106.0280818
  98.7280012  67.8874997 111.9669988  99.4730012  67.8854997 111.3659988
  98.8060012  67.0644997 112.4479988  98.8404995  67.7758887 111.9498282
 105.7290012  70.0514997 105.2229988 105.4330012  70.8774997 105.6039988
 105.0260012  69.4314997 105.4189988 105.5934914  70.0808199 105.3016443
  95.7360012  66.3484997 117.2819988  95.9590012  65.9304997 118.1139988
  95.1340012  65.7354997 116.8589988  95.6851759  66.2084668 117.3387022
 102.7520012  65.8654997 119.4949988 102.4560012  65.6994997 118.5999988
 103.6840012  65.6454997 119.4839988 102.8374166  65.8130640 119.3710536
 107.3730012  71.2384997 117.3849988 106.4720012  71.4214997 117.1169988
 107.4070012  71.4974997 118.3049988 107.2543139  71.2985849 117.4728099
 113.1040012  63.4834997 105.7519988 112.5500012  63.0874997 105.0799988
 113.2040012  64.3934997 105.4739988 113.0417059  63.5523586 105.6224401
 113.0670012  69.2834997 118.5889988 112.2160012  69.5214997 118.2219988
 113.6580012  69.2664997 117.8359988 113.0302487  69.3138258 118.4368893
 111.3990012  72.2694997 106.2169988 111.0260012  71.4434997 106.5259988
 111.6770012  72.0864997 105.3189988 111.3855222  72.1317430 106.1379473
 108.5600012  67.0774997 113.2379988 107.6310012  66.8454997 113.2109988
 109.0110012  66.3004997 112.9079988 108.4939216  66.9407238 113.1896917
 101.1030012  71.4054997 109.3709988 101.6300012  72.1784997 109.1709988
 100.2230012  71.6304997 109.0689988 101.0562031  71.5417545 109.3027912
 102.5300012  69.0684997 108.9469988 102.2890012  69.9934997 108.9889988
 101.7890012  68.6094997 109.3439988 102.3969225  69.1330933 109.0063742
 103.0450012  73.2174997 115.2629988 103.4070012  74.0724997 115.0289988
 103.5760012  72.9254997 116.0029988 103.1664473  73.2951060 115.3310855
 101.2130012  74.0904997 108.4929988 100.2630012  74.1954997 108.5439988
 101.5650012  74.9104997 108.8369988 101.1304195  74.2158800 108.5465502
 106.5890012  69.3164997 114.9629988 106.1630012  69.0894997 115.7899988
 107.1690012  68.5784997 114.7809988 106.6091868  69.1855299 115.0515830
 109.2470012  73.8684997 117.4329988 108.6460012  73.3134997 116.9369988
 109.5290012  74.5354997 116.8059988 109.2028804  73.8826625 117.2804849
  97.3700012  61.1014997 116.8399988  96.4770012  61.4404997 116.7719988
  97.2710012  60.2464997 117.2579988  97.2344164  61.0322588 116.8872235
 109.6580012  68.9184997 106.2639988 109.3800012  68.1904997 106.8199988
 110.5850012  69.0374997 106.4689988 109.7453124  68.8348802 106.3678845
  97.0210012  72.9064997 115.2749988  97.2380012  71.9744997 115.2439988
  97.2670012  73.1804997 116.1579988  97.0839549  72.8160636 115.3901763
 101.8200012  70.9274997 104.9399988 101.9660012  70.4074997 105.7299988
 101.8170012  71.8344997 105.2469988 101.8395792  70.9788842 105.0896117
  98.2730012  68.1804997 105.4509988  97.5870012  68.5324997 106.0179988
  98.7950012  68.9434997 105.2039988  98.2496852  68.3318578 105.4952118
 106.1040012  60.8424997 115.7299988 106.8030012  60.9164997 116.3799988
 105.7230012  59.9784997 115.8839988 106.1481767  60.7357624 115.8398322
 106.8890012  60.4944997 106.8269988 107.1090012  60.9664997 106.0239988
 107.4470012  60.8894997 107.4969988 106.9944968  60.6124285 106.8077331
 104.5570012  72.6254997 105.6899988 103.7410012  73.1224997 105.7419988
 105.0870012  73.1004997 105.0499988 104.5169161  72.7577722 105.6105956
 104.0890012  62.2224997 107.6619988 104.9010012  62.7274997 107.7079988
 103.8440012  62.0774997 108.5759988 104.1670520  62.2720375 107.7918517
 104.6240012  63.2084997 116.8459988 104.7430012  63.7824997 117.6039988
 105.2800012  62.5204997 116.9609988 104.7289025  63.1939858 116.9651321
 104.9720012  59.3034997 108.5999988 104.6260012  59.9214997 109.2439988
 105.6310012  59.8044997 108.1179988 105.0136968  59.4556278 108.6229383
 101.8960012  73.6694997 105.6709988 102.0560012  74.4684997 105.1709988
 101.6980012  73.9754997 106.5559988 101.8911637  73.8204020 105.7221144
 100.6300012  60.3664997 105.2869988 100.5470012  61.2554997 105.6339988
 101.5200012  60.1014997 105.5189988 100.7389469  60.4521430 105.3657626
 110.8290012  61.1154997 117.6809988 109.9120012  61.3784997 117.5939988
 111.1640012  61.1124997 116.7849988 110.7488613  61.1510761 117.5478837
 109.4310012  64.8664997 111.7769988 108.6330012  64.4514997 111.4489988
 109.8760012  64.1754997 112.2679988 109.3819885  64.7163543 111.7984889
  98.8890012  70.7944997 104.3479988  99.4810012  71.4934997 104.6239988
  99.3480012  70.3614997 103.6279988  99.0321142  70.8317049 104.2884830
 110.5170012  74.1224997 113.3999988 110.3620012  74.8004997 112.7419988
 111.4500012  74.1944997 113.6029988 110.6218657  74.2249546 113.3374360
  98.0130012  58.2404997 112.1369988  97.7840012  58.2994997 111.2089988
  97.5700012  57.4484997 112.4429988  97.9218530  58.1415753 112.0514786
  96.9430012  72.1804997 108.2969988  96.1110012  72.6534997 108.3239988
  97.4890012  72.6904997 107.6989988  96.9030352  72.3141332 108.2198463
  96.2310012  74.7934997 119.6269988  96.7720012  74.5764997 120.3869988
  95.7500012  73.9874997 119.4369988  96.2399951  74.6549270 119.7052576
 100.8290012  73.7124997 121.2469988 101.5960012  73.2534997 121.5879988
 100.8070012  73.4864997 120.3179988 100.9311275  73.6190186 121.1680101
 107.4060012  72.0924997 119.9769988 107.0550012  71.2364997 120.2199988
 108.1320012  72.2354997 120.5839988 107.4560769  71.9945636 120.0923619
  96.1380012  68.6034997 120.5809988  96.2820012  67.7014997 120.2949988
  95.3660012  68.8894997 120.0939988  96.0532753  68.5186816 120.4759505
 102.7940012  68.5734997 120.0139988 102.4650012  68.8444997 119.1569988
 102.9460012  67.6324997 119.9269988 102.7694809  68.4833862 119.8848244
 108.5280012  68.4894997 117.3969988 109.2740012  69.0774997 117.2779988
 107.7710012  69.0714997 117.4609988 108.5277820  68.6487143 117.3893590
  96.9710012  65.8034997 120.0009988  97.3790012  64.9464997 119.8799988
  96.7110012  65.8184997 120.9219988  96.9917568  65.6880807 120.1089588
 100.9180012  64.8124997 117.3759988 100.3000012  65.4874997 117.6559988
 101.2620012  65.1334997 116.5419988 100.8799132  64.9482411 117.3016262
 105.9380012  67.2844997 120.6529988 106.8910012  67.3674997 120.6259988
 105.7770012  66.5724997 121.2729988 106.0466426  67.1996746 120.7330579
 101.2570012  62.1674997 118.4579988 101.4070012  61.4384997 117.8559988
 101.2600012  62.9444997 117.8989988 101.2779302  62.1727851 118.3000692
 101.6700012  60.5374997 115.9509988 102.2060012  60.9884997 115.2989988
 100.8180012  60.4294997 115.5279988 101.6282178  60.5846390 115.8045756
 103.2520012  65.9764997 116.1899988 104.0020012  65.8204997 115.6169988
 102.9130012  66.8284997 115.9149988 103.3088921  66.0702968 116.0743561
 107.6670012  63.7914997 121.2189988 107.8600012  62.8604997 121.1069988
 108.5250012  64.2164997 121.2079988 107.8092934  63.7216531 121.2022031
 108.9840012  66.5804997 119.2959988 108.7030012  67.2894997 118.7179988
 109.9270012  66.5074997 119.1449988 109.0729291  66.6676711 119.1964967
  99.7360012  63.3654997 120.3699988  98.9690012  62.8334997 120.1589988
 100.4150012  63.0554997 119.7699988  99.7227877  63.2508300 120.2600716
 102.4760012  57.9934997 116.3819988 102.3770012  58.9404997 116.2769988
 101.7330012  57.6214997 115.9059988 102.3621184  58.0725863 116.3033621
 103.7400012  62.3154997 119.9459988 103.5040012  62.0954997 120.8469988
 102.9560012  62.1084997 119.4359988 103.6018504  62.2574586 120.0003431
 106.4550012  61.4424997 119.0209988 105.5080012  61.4744997 119.1539988
 106.7680012  60.8174997 119.6749988 106.3676707  61.3623998 119.1276060
 108.0890012  60.0764997 121.0269988 107.9930012  59.1244997 121.0209988
 107.7680012  60.3454997 121.8869988 108.0324070  59.9824035 121.1425441
  97.9160012  61.2864997 120.0739988  98.1280012  60.5794997 119.4639988
  97.8050012  60.8484997 120.9179988  97.9299721  61.1307084 120.1046843
 102.6970012  57.2874997 119.0529988 103.4090012  56.6474997 119.0389988
 102.5960012  57.5544997 118.1399988 102.7808066  57.2360079 118.9275677
 103.0510012  58.9704997 121.1069988 102.9190012  58.4944997 120.2869988
 102.4520012  59.7144997 121.0519988 102.9519071  59.0059618 120.9872886
 102.5970012  75.8534997 104.2829988 103.5300012  76.0114997 104.4269988
 102.3330012  76.5284997 103.6589988 102.6889888  75.9664510 104.2182842
  94.8150012  75.8824997 108.8439988  94.1680012  75.4204997 108.3109988
  95.1690012  75.2104997 109.4259988  94.7743849  75.7284723 108.8497959
  95.6850012  73.9634997 110.6479988  95.3500012  73.0834997 110.8199988
  95.9070012  74.3084997 111.5129988  95.6691783  73.8897500 110.7884208
 113.2330012  74.7724997 113.6289988 113.2120012  74.9574997 114.5679988
 113.9240012  75.3414997 113.2879988 113.3234618  74.8746606 113.7113864
 112.7970012  74.3404997 116.5509988 112.3090012  73.6044997 116.1789988
 113.3460012  73.9464997 117.2289988 112.8044820  74.1865889 116.5917813
 111.2470012  70.1294997 121.1889988 110.3810012  70.0244997 121.5829988
 111.6240012  70.8884997 121.6349988 111.1793308  70.2176900 121.3032393
 112.5480012  68.3864997 106.7029988 113.3980012  68.8074997 106.8299988
 112.5540012  67.6464997 107.3099988 112.6651372  68.3440803 106.8024344
 112.9430012  66.4394997 108.5259988 112.2160012  65.9604997 108.9239988
 113.5240012  66.6454997 109.2589988 112.9220473  66.4018103 108.6794528
 112.7020012  69.2244997 113.4739988 113.5350012  68.8464997 113.1939988
 112.8140012  70.1674997 113.3549988 112.8312647  69.3002218 113.4195487
 111.1880012  72.1024997 115.7809988 110.5410012  72.4274997 116.4069988
 110.6710012  71.6624997 115.1069988 111.0294029  72.0875004 115.7755827
 113.2110012  66.3404997 104.9179988 112.6890012  66.6974997 104.1989988
 113.1780012  67.0154997 105.5959988 113.1351634  66.4805413 104.9113145
 110.7290012  64.9604997 109.0889988 110.5790012  64.0154997 109.0689988
 110.3760012  65.2414997 109.9329988 110.6607448  64.8691481 109.2003705
  95.7650012  67.0384997 113.0999988  95.9490012  66.9564997 112.1639988
  96.6140012  66.9144997 113.5229988  95.9050151  67.0105073 113.0291451
 111.5860012  66.9304997 118.7279988 112.1690012  66.1964997 118.9199988
 112.1500012  67.7024997 118.7749988 111.7419769  66.9344227 118.7606159
 113.0820012  64.8334997 119.4129988 112.2190012  64.4544997 119.2469988
 113.6870012  64.0944997 119.3379988 113.0456119  64.6818268 119.3801528
 110.8070012  60.9884997 102.5859988 111.4180012  60.6174997 103.2229988
 109.9710012  60.5674997 102.7819988 110.7775032  60.8807554 102.6997035
 110.4400012  62.5434997 107.5519988 110.7200012  61.6364997 107.6759988
 111.1990012  62.9774997 107.1629988 110.5809277  62.4780942 107.5163682
 111.0520012  63.1244997 112.9879988 111.9850012  63.3364997 112.9529988
 110.8170012  63.2264997 113.9099988 111.1479244  63.1673100 113.1078892
 111.0810012  63.8614997 115.7639988 110.2380012  64.1294997 116.1299988
 111.5230012  64.6834997 115.5529988 111.0254158  64.0093291 115.7855491
  95.3620012  62.3094997 119.2409988  96.2820012  62.1874997 119.4769988
  94.9130012  61.5594997 119.6299988  95.4271580  62.1913727 119.3259006
 113.3640012  57.8414997 121.1169988 113.7140012  57.1874997 120.5119988
 113.5110012  58.6784997 120.6769988 113.4317887  57.8651548 120.9746858
 111.0530012  59.8064997 107.5999988 111.2360012  59.3574997 108.4259988
 110.4540012  59.2214997 107.1369988 110.9970202  59.6659975 107.6503275
  96.5830012  60.6214997 112.1319988  97.0290012  59.8294997 112.4339988
  97.0500012  61.3374997 112.5619988  96.7070831  60.6100685 112.2314006
  94.8870012  63.6204997 113.2009988  95.3790012  63.3994997 112.4099988
  95.2500012  64.4614997 113.4819988  95.0033126  63.7038357 113.1307531
 112.8840012  59.9504997 119.4659988 111.9660012  60.2214997 119.4309988
 113.0070012  59.4154997 118.6819988 112.7749729  59.9152508 119.3551923
  95.2010012  59.8784997 107.2549988  94.2760012  60.0874997 107.1259988
  95.6550012  60.3624997 106.5649988  95.1357292  59.9725343 107.1440720
 109.9720012  74.8624997 109.2009988 110.6240012  74.5154997 108.5929988
 110.4820012  75.3514997 109.8469988 110.1302637  74.8810597 109.2050236
  95.1650012  58.6164997 115.5989988  94.5000012  58.3704997 116.2429988
  94.7220012  59.2384997 115.0219988  95.0141318  58.6669410 115.6090898
  97.3570012  71.7914997 119.7439988  96.5360012  71.9664997 119.2829988
  97.1040012  71.7184997 120.6639988  97.2105585  71.8055544 119.8053561
 100.3110012  72.7664997 116.0019988  99.8860012  73.5754997 115.7199988
 101.2150012  72.8514997 115.6999988 100.3749975  72.8889300 115.9224816
 104.6220012  74.1654997 118.9619988 104.8070012  73.8314997 119.8399988
 105.4680012  74.4744997 118.6399988 104.7617539  74.1616047 119.0385605
 106.9670012  75.4514997 118.2059988 107.6440012  74.8184997 117.9659988
 107.2890012  75.8524997 119.0129988 107.1031637  75.4191154 118.2822793
 111.8840012  58.0404997 117.2849988 111.0720012  58.3654997 116.8979988
 112.1170012  57.2804997 116.7519988 111.8042203  57.9822758 117.1598880
  97.7130012  76.0224997 116.0499988  96.9920012  76.4624997 115.5989988
  97.3470012  75.7714997 116.8979988  97.5649651  76.0487242 116.1029640
 100.1800012  75.6224997 115.0799988  99.3150012  75.6944997 115.4839988
 100.1250012  76.1694997 114.2959988 100.0542085  75.7062685 115.0293362
 104.8900012  75.5104997 114.2549988 104.4340012  76.0394997 113.6009988
 105.0530012  76.1134997 114.9799988 104.8496068  75.6644607 114.2634838
 107.2180012  74.3884997 115.1999988 106.3130012  74.5534997 114.9339988
 107.6470012  75.2414997 115.1349988 107.1521324  74.5264339 115.1547976
 109.8220012  75.9584997 115.4949988 109.6400012  76.8744997 115.2849988
 109.9990012  75.5484997 114.6489988 109.8210210  76.0284822 115.3517885
  97.1270012  74.6454997 112.9599988  97.1090012  74.2204997 113.8169988
  97.9320012  74.3274997 112.5509988  97.2333529  74.5443013 113.0220946
  99.2690012  73.3554997 111.6149988  99.0500012  72.4394997 111.7849988
 100.0930012  73.4954997 112.0809988  99.3504420  73.2490520 111.7012774
 101.8060012  73.8254997 112.4639988 102.0190012  72.9374997 112.1769988
 101.8700012  73.7914997 113.4179988 101.8438232  73.6993102 112.5537397
 105.3140012  59.4894997 111.6079988 104.6400012  58.8604997 111.8639988
 105.8780012  59.0054997 111.0049988 105.2979230  59.3378744 111.5615340
 110.4570012  57.5974997 111.7209988 111.0610012  58.1444997 111.2189988
 109.5870012  57.9164997 111.4799988 110.4221208  57.7155137 111.6196886
 112.1840012  58.7354997 110.0539988 112.7960012  58.2214997 109.5269988
 112.5660012  59.6134997 110.0769988 112.3193371  58.7837866 109.9850041
  97.6410012  58.1234997 109.4299988  96.8640012  57.8894997 108.9229988
  98.1710012  57.3264997 109.4389988  97.6062330  57.9836988 109.3617742
  96.4770012  57.9214997 105.2339988  96.9160012  58.5324997 104.6419988
  95.8440012  58.4594997 105.7079988  96.4514514  58.0779257 105.2170930
 102.2200012  58.0504997 109.2439988 103.0950012  58.4384997 109.2139988
 102.0840012  57.8354997 110.1659988 102.3213695  58.0745184 109.3646440
 107.7770012  58.0804997 110.8929988 107.8530012  58.1754997 109.9429988
 107.5020012  57.1724997 111.0219988 107.7502321  57.9707867 110.7805079
 109.1300012  58.1064997 106.5849988 108.4280012  58.7214997 106.3749988
 108.6860012  57.2684997 106.7159988 108.9736450  58.0775639 106.5739000
  98.3380012  59.8374997 103.6759988  98.8300012  59.2074997 103.1489988
  98.9620012  60.1334997 104.3389988  98.4895688  59.7913804 103.6935482
 103.3640012  60.1304997 106.1329988 103.5420012  59.4844997 106.8159988
 103.3110012  60.9644997 106.5999988 103.3811999  60.1548009 106.2895917
 111.9520012  74.6424997 107.2079988 111.7570012  73.8944997 106.6429988
 111.9130012  75.4004997 106.6249988 111.9200380  74.6426099 107.0518384
  97.5990012  58.6374997 118.9479988  97.2330012  57.8724997 119.3899988
  98.5120012  58.6664997 119.2339988  97.6722736  58.5365640 119.0472502
  99.5720012  57.9884997 120.4839988 100.4700012  57.7144997 120.2989988
  99.1850012  57.2454997 120.9479988  99.6426612  57.8505914 120.5213643
 107.9930012  57.3204997 120.6659988 108.0700012  56.8944997 121.5199988
 108.8870012  57.3344997 120.3229988 108.1243428  57.2640879 120.7365310
 111.1690012  73.3934997 119.3579988 110.3870012  73.2074997 118.8379988
 111.0970012  74.3224997 119.5759988 111.0522274  73.4936643 119.3163018
 125.5750012  67.2794997 109.3889988 125.6640012  68.2234997 109.2569988
 124.9370012  67.0044997 108.7309988 125.5009081  67.3714830 109.2819614
 124.5080012  66.5344997 112.8079988 124.4700012  65.8884997 113.5129988
 124.1860012  66.0684997 112.0369988 124.4592333  66.3829408 112.8002978
 116.8770012  66.1494997 114.4009988 116.9180012  65.5234997 115.1239988
 117.5800012  66.7734997 114.5829988 116.9776363  66.1481196 114.5246044
 128.2140012  69.4734997 111.1089988 127.7740012  68.7534997 111.5599988
 128.2010012  70.1944997 111.7389988 128.1520226  69.4723731 111.2558494
 117.8000012  70.5994997 112.9359988 117.4310012  69.7974997 112.5659988
 118.7410012  70.4304997 112.9819988 117.8767289  70.4670153 112.8916316
 114.4100012  64.2594997 108.3289988 113.9630012  65.1054997 108.3099988
 113.8490012  63.6794997 107.8129988 114.2729900  64.2969916 108.2566801
 115.1210012  66.4214997 110.4539988 115.3340012  65.6514997 110.9819988
 115.8590012  66.5104997 109.8509988 115.2499044  66.3281968 110.4447123
 125.3260012  74.5784997 111.3209988 125.9460012  73.9014997 111.0479988
 125.1180012  74.3604997 112.2299988 125.3826726  74.4564800 111.4064812
 122.8980012  68.9674997 113.2139988 123.2020012  68.2814997 112.6189988
 123.6190012  69.0854997 113.8319988 123.0370671  68.8896304 113.2161816
 131.5610012  60.5684997 114.0749988 131.6100012  61.1784997 114.8099988
 131.9860012  61.0294997 113.3519988 131.6251746  60.7143796 114.0779175
 126.0390012  63.3614997 113.5409988 126.1810012  62.4154997 113.5619988
 125.9320012  63.5684997 112.6129988 126.0439919  63.2598246 113.4183408
 119.1930012  61.4624997 110.8139988 119.2370012  62.3224997 110.3949988
 118.7360012  60.9104997 110.1799988 119.1372240  61.5054422 110.6709864
 126.9160012  61.5934997 109.2149988 127.5620012  61.2644997 109.8389988
 127.4260012  62.1114997 108.5919988 127.0734299  61.6184450 109.2162731
 115.8140012  63.8594997 111.5759988 116.4670012  63.3094997 112.0079988
 115.8380012  63.5854997 110.6589988 115.9066683  63.7471466 111.5112123
 120.9700012  65.4094997 110.7909988 121.5860012  64.8834997 111.3009988
 120.3840012  64.7694997 110.3879988 120.9750810  65.2509208 110.8063173
 131.9520012  62.0464997 116.3099988 131.2640012  62.7044997 116.2149988
 131.9680012  61.8494997 117.2469988 131.8599540  62.1099819 116.4235990
 118.0040012  60.3804997 114.8879988 117.7850012  60.9104997 114.1219988
 117.3360012  60.6074997 115.5349988 117.8837600  60.4836906 114.8706379
 125.3730012  69.8804997 108.4319988 125.0770012  69.5584997 107.5809988
 125.0480012  70.7804997 108.4729988 125.2886371  69.9580215 108.3211801
 120.5730012  68.0564997 115.1749988 119.8330012  68.6544997 115.2789988
 121.2870012  68.6104997 114.8599988 120.5682237  68.2132831 115.1466465
 128.6800012  60.8844997 111.1949988 128.4640012  60.1184997 111.7279988
 129.3350012  61.3564997 111.7079988 128.7390632  60.8435889 111.3372861
 117.5970012  62.2724997 112.8399988 118.2110012  62.9054997 113.2129988
 118.1090012  61.8004997 112.1839988 117.7501981  62.2952267 112.8022908
 118.9800012  70.0204997 115.9619988 118.9750012  70.9004997 115.5839988
 118.1270012  69.9374997 116.3869988 118.8639464  70.1296117 115.9677907
 115.1010012  69.6914997 106.7439988 114.8290012  69.9204997 105.8559988
 115.1470012  70.5294997 107.2049988 115.0699482  69.8361318 106.6846273
 128.7260012  71.3134997 113.4569988 127.7850012  71.3714997 113.6189988
 129.0030012  72.2194997 113.3199988 128.6344679  71.4439443 113.4606815
 129.0270012  59.5994997 114.8749988 128.2910012  60.2104997 114.8369988
 129.7100012  60.0144997 114.3479988 129.0186541  59.7391374 114.7985832
 122.0300012  57.6864997 112.3399988 121.9130012  56.7374997 112.2859988
 121.1750012  58.0184997 112.6139988 121.8984212  57.6015571 112.3696497
 126.9780012  73.0944997 110.0819988 127.4040012  72.3874997 109.5969988
 127.2950012  73.8954997 109.6659988 127.0791683  73.1061017 109.9593680
 128.1380012  70.9954997 108.5909988 127.8800012  70.3054997 107.9799988
 128.2090012  70.5524997 109.4369988 128.1122856  70.8412124 108.6216885
 129.8240012  69.5614997 117.0679988 129.9640012  68.9704997 116.3289988
 129.9910012  70.4344997 116.7119988 129.8657411  69.5985428 116.9186894
 124.2970012  66.5234997 106.8409988 123.5850012  67.0584997 106.4889988
 124.9880012  66.5794997 106.1809988 124.2930132  66.6042543 106.7036289
 124.3500012  64.9814997 103.8799988 125.0510012  65.0034997 104.5309988
 124.6530012  64.3534997 103.2229988 124.4868133  64.8997070 103.8803369
 131.6660012  65.9014997 115.1339988 131.0130012  66.5964997 115.2239988
 132.1310012  66.1114997 114.3249988 131.6395274  66.0250643 115.0368462
 127.7020012  66.7334997 107.7929988 126.9700012  66.9614997 108.3659988
 128.1500012  66.0194997 108.2469988 127.6622725  66.6682145 107.9328816
 127.6000012  64.9074997 116.8599988 127.6800012  65.6704997 117.4319988
 126.9980012  65.1864997 116.1699988 127.5295756  65.0497134 116.8450589
 119.3480012  67.3634997 109.6749988 119.0170012  66.9934997 108.8569988
 119.9360012  66.6934997 110.0219988 119.3821873  67.2221156 109.6098102
 120.7140012  70.7914997 112.3559988 120.6200012  70.2134997 111.5999988
 121.4440012  70.4204997 112.8529988 120.7997386  70.6621663 112.3195342
 119.7140012  66.1324997 113.3089988 120.2800012  66.2534997 112.5459988
 120.0330012  66.7694997 113.9469988 119.8345474  66.2352219 113.2909862
 126.0230012  71.6354997 114.0429988 125.7830012  72.2974997 114.6909988
 125.8250012  70.8014997 114.4679988 125.9633808  71.6133134 114.1891524
 120.5940012  70.5314997 118.0259988 120.2830012  71.3134997 118.4809988
 119.9440012  70.3784997 117.3399988 120.4635558  70.6179105 117.9955871
 126.5730012  65.8954997 105.4779988 127.1530012  66.0454997 106.2249988
 126.9870012  66.3664997 104.7539988 126.7082997  65.9796578 105.4824058
 117.5140012  66.7294997 117.2539988 117.5850012  67.3804997 117.9529988
 116.6240012  66.8324997 116.9189988 117.4033005  66.8325427 117.3043495
 124.3000012  72.6324997 108.9129988 124.7740012  72.9274997 109.6899988
 123.7370012  73.3704997 108.6799988 124.2888184  72.7727247 108.9879628
 118.8340012  72.6034997 118.7889988 118.8410012  72.4674997 117.8419988
 117.9180012  72.4854997 119.0409988 118.7111714  72.5689430 118.6934666
 130.2720012  57.6454997 105.2909988 129.3720012  57.7844997 105.5859988
 130.5240012  58.4764997 104.8889988 130.1828702  57.7769074 105.2770205
 118.3380012  66.4334997 107.2639988 118.0460012  67.2014997 106.7739988
 117.6640012  65.7734997 107.1019988 118.2068111  66.4495587 107.1748978
 114.4310012  68.7964997 116.0789988 113.9300012  68.7684997 115.2639988
 114.4360012  67.8904997 116.3889988 114.3630944  68.6702396 116.0093226
 114.1810012  71.5764997 112.9629988 115.1270012  71.4324997 112.9439988
 114.0690012  72.3604997 113.4999988 114.2952727  71.6628046 113.0330072
 132.3790012  72.2424997 118.6459988 132.3300012  71.2874997 118.6089988
 131.5520012  72.5104997 119.0469988 132.2604940  72.1478998 118.6951375
 123.3580012  71.8164997 117.5219988 123.4450012  72.6424997 117.9969988
 122.4940012  71.4864997 117.7709988 123.2531964  71.8849878 117.6206549
 123.7720012  75.5884997 107.3279988 123.6970012  75.4674997 106.3809988
 123.8050012  76.5384997 107.4459988 123.7662068  75.7002646 107.2144967
 117.4250012  74.3774997 109.1089988 117.5780012  74.0294997 109.9869988
 116.5750012  74.0214997 108.8539988 117.3309166  74.2816217 109.1948079
 126.5430012  74.6684997 107.0789988 125.6070012  74.7684997 107.2579988
 126.8230012  73.9594997 107.6579988 126.4529553  74.5863406 107.1817087
 129.5310012  63.7354997 119.1259988 129.1240012  64.2164997 118.4049988
 129.5720012  62.8304997 118.8179988 129.4808437  63.6789374 118.9856683
 116.6800012  70.1194997 117.1229988 116.8960012  69.7584997 117.9819988
 115.8250012  69.7454997 116.9129988 116.5939292  70.0194111 117.2123386
 119.2990012  58.5894997 113.1179988 118.4370012  58.5024997 112.7099988
 119.2760012  59.4454997 113.5459988 119.1780409  58.6932883 113.1200589
 123.9620012  58.3114997 116.4929988 124.3820012  57.8964997 117.2459988
 123.0290012  58.1334997 116.6099988 123.8933644  58.2305900 116.6119539
 127.2880012  62.0674997 117.3459988 126.7740012  61.9414997 118.1439988
 127.1330012  62.9794997 117.1019988 127.1966852  62.1736132 117.4222158
 123.6230012  60.8044997 103.7779988 123.3700012  60.8234997 104.7009988
 123.3670012  59.9324997 103.4759988 123.5537481  60.6892558 103.8636175
 119.3900012  63.5554997 114.2129988 118.7480012  63.5144997 114.9219988
 119.4270012  64.4814997 113.9749988 119.3070664  63.6751430 114.2779219
 119.3870012  63.7764997 109.1249988 118.4940012  63.4354997 109.0659988
 119.8370012  63.3994997 108.3689988 119.3258130  63.6789631 109.0147702
 124.9220012  64.1924997 107.9419988 124.5130012  65.0074997 107.6509988
 125.6430012  64.0524997 107.3279988 124.9634537  64.2852018 107.8191342
 124.0240012  64.3674997 119.4299988 123.4620012  63.6634997 119.7509988
 124.8510012  64.2474997 119.8979988 124.0587095  64.2547883 119.5372330
 125.9270012  63.6384997 110.7559988 125.7320012  64.2434997 110.0409988
 126.1080012  62.8044997 110.3219988 125.9247614  63.6086300 110.5994405
 117.1400012  63.8754997 116.0799988 117.1020012  64.2754997 116.9489988
 116.6490012  63.0584997 116.1709988 117.0684684  63.8198069 116.2111059
 113.7480012  60.9914997 109.9309988 114.3790012  60.9624997 110.6499988
 114.1970012  60.5664997 109.1999988 113.8950918  60.9300836 109.9306441
 115.0220012  61.7374997 105.3549988 115.4960012  62.3284997 104.7699988
 114.3050012  62.2684997 105.7019988 114.9899341  61.8900867 105.3218836
 125.1910012  65.2764997 115.4269988 125.5140012  64.6454997 114.7839988
 124.7510012  64.7414997 116.0879988 125.1757484  65.1178387 115.4283198
 121.9680012  61.2034997 110.2109988 121.0570012  61.2604997 110.4999988
 122.4740012  61.1434997 111.0219988 121.9116899  61.2031941 110.3601184
 116.7970012  62.8324997 109.0379988 115.9070012  62.9324997 108.6979988
 117.0930012  61.9904997 108.6919988 116.7152823  62.7323545 108.9447213
 126.3730012  60.4384997 113.4759988 125.6970012  60.5694997 114.1399988
 125.8880012  60.2834997 112.6649988 126.2147146  60.4355157 113.4574469
 129.6610012  76.1104997 119.7519988 129.8610012  76.5344997 118.9179988
 130.3160012  76.4534997 120.3589988 129.7770072  76.2149857 119.7198592
 117.2590012  68.5844997 119.3599988 117.9910012  68.8384997 119.9219988
 116.4790012  68.7884997 119.8759988 117.2537073  68.6468160 119.5066151
 123.2880012  63.9914997 112.0979988 123.8530012  63.4444997 111.5509988
 123.1410012  63.4694997 112.8869988 123.3453380  63.8462259 112.1298695
 118.2900012  60.1274997 108.5169988 117.9730012  59.2254997 108.4809988
 119.0720012  60.1294997 107.9639988 118.3522408  60.0042474 108.4373569
 121.9150012  62.3794997 114.5119988 121.0790012  62.8334997 114.6229988
 122.4390012  62.6554997 115.2639988 121.8715416  62.4788660 114.6288119
 122.4590012  68.5924997 106.1969988 121.7140012  68.0854997 105.8749988
 122.3250012  68.6414997 107.1439988 122.3388776  68.5296940 106.2808647
 129.6090012  67.7254997 114.9839988 130.2510012  68.1824997 114.4399988
 128.7790012  67.8384997 114.5209988 129.5845963  67.8032704 114.8470177
 123.9780012  68.7764997 117.4339988 123.6330012  68.3954997 118.2409988
 123.7780012  69.7104997 117.5049988 123.9037527  68.8505135 117.5540689
 127.0750012  63.2734997 106.0569988 127.9670012  63.1364997 106.3759988
 127.1320012  64.0644997 105.5199988 127.2046504  63.3616052 106.0280818
 117.5840012  67.8874997 111.9669988 118.3290012  67.8854997 111.3659988
 117.6620012  67.0644997 112.4479988 117.6964995  67.7758887 111.9498282
 124.5850012  70.0514997 105.2229988 124.2890012  70.8774997 105.6039988
 123.8820012  69.4314997 105.4189988 124.4494914  70.0808199 105.3016443
 114.5920012  66.3484997 117.2819988 114.8150012  65.9304997 118.1139988
 113.9900012  65.7354997 116.8589988 114.5411759  66.2084668 117.3387022
 121.6080012  65.8654997 119.4949988 121.3120012  65.6994997 118.5999988
 122.5400012  65.6454997 119.4839988 121.6934166  65.8130640 119.3710536
 126.2290012  71.2384997 117.3849988 125.3280012  71.4214997 117.1169988
 126.2630012  71.4974997 118.3049988 126.1103139  71.2985849 117.4728099
 131.9600012  63.4834997 105.7519988 131.4060012  63.0874997 105.0799988
 132.0600012  64.3934997 105.4739988 131.8977059  63.5523586 105.6224401
 131.9230012  69.2834997 118.5889988 131.0720012  69.5214997 118.2219988
 132.5140012  69.2664997 117.8359988 131.8862487  69.3138258 118.4368893
 130.2550012  72.2694997 106.2169988 129.8820012  71.4434997 106.5259988
 130.5330012  72.0864997 105.3189988 130.2415222  72.1317430 106.1379473
 127.4160012  67.0774997 113.2379988 126.4870012  66.8454997 113.2109988
 127.8670012  66.3004997 112.9079988 127.3499216  66.9407238 113.1896917
 119.9590012  71.4054997 109.3709988 120.4860012  72.1784997 109.1709988
 119.0790012  71.6304997 109.0689988 119.9122031  71.5417545 109.3027912
 115.7140012  66.2674997 103.9579988 116.3300012  66.8944997 104.3379988
 114.8520012  66.5834997 104.2299988 115.6817698  66.3959430 104.0467183
 121.3860012  69.0684997 108.9469988 121.1450012  69.9934997 108.9889988
 120.6450012  68.6094997 109.3439988 121.2529225  69.1330933 109.0063742
 121.9010012  73.2174997 115.2629988 122.2630012  74.0724997 115.0289988
 122.4320012  72.9254997 116.0029988 122.0224473  73.2951060 115.3310855
 120.0690012  74.0904997 108.4929988 119.1190012  74.1954997 108.5439988
 120.4210012  74.9104997 108.8369988 119.9864195  74.2158800 108.5465502
 125.4450012  69.3164997 114.9629988 125.0190012  69.0894997 115.7899988
 126.0250012  68.5784997 114.7809988 125.4651868  69.1855299 115.0515830
 128.1030012  73.8684997 117.4329988 127.5020012  73.3134997 116.9369988
 128.3850012  74.5354997 116.8059988 128.0588804  73.8826625 117.2804849
 116.2260012  61.1014997 116.8399988 115.3330012  61.4404997 116.7719988
 116.1270012  60.2464997 117.2579988 116.0904164  61.0322588 116.8872235
 115.8770012  72.9064997 115.2749988 116.0940012  71.9744997 115.2439988
 116.1230012  73.1804997 116.1579988 115.9399549  72.8160636 115.3901763
 121.7390012  71.3574997 102.4839988 121.9780012  70.6094997 101.9369988
 121.4700012  70.9694997 103.3169988 121.7353675  71.2026638 102.5216865
 120.6760012  70.9274997 104.9399988 120.8220012  70.4074997 105.7299988
 120.6730012  71.8344997 105.2469988 120.6955792  70.9788842 105.0896117
 117.1290012  68.1804997 105.4509988 116.4430012  68.5324997 106.0179988
 117.6510012  68.9434997 105.2039988 117.1056852  68.3318578 105.4952118
 124.9600012  60.8424997 115.7299988 125.6590012  60.9164997 116.3799988
 124.5790012  59.9784997 115.8839988 125.0041767  60.7357624 115.8398322
 125.7450012  60.4944997 106.8269988 125.9650012  60.9664997 106.0239988
 126.3030012  60.8894997 107.4969988 125.8504968  60.6124285 106.8077331
 123.4130012  72.6254997 105.6899988 122.5970012  73.1224997 105.7419988
 123.9430012  73.1004997 105.0499988 123.3729161  72.7577722 105.6105956
 122.9450012  62.2224997 107.6619988 123.7570012  62.7274997 107.7079988
 122.7000012  62.0774997 108.5759988 123.0230520  62.2720375 107.7918517
 123.4800012  63.2084997 116.8459988 123.5990012  63.7824997 117.6039988
 124.1360012  62.5204997 116.9609988 123.5849025  63.1939858 116.9651321
 123.8280012  59.3034997 108.5999988 123.4820012  59.9214997 109.2439988
 124.4870012  59.8044997 108.1179988 123.8696968  59.4556278 108.6229383
 120.7520012  73.6694997 105.6709988 120.9120012  74.4684997 105.1709988
 120.5540012  73.9754997 106.5559988 120.7471637  73.8204020 105.7221144
 129.6850012  61.1154997 117.6809988 128.7680012  61.3784997 117.5939988
 130.0200012  61.1124997 116.7849988 129.6048613  61.1510761 117.5478837
 128.2870012  64.8664997 111.7769988 127.4890012  64.4514997 111.4489988
 128.7320012  64.1754997 112.2679988 128.2379885  64.7163543 111.7984889
 116.0610012  63.4584997 103.4639988 116.0160012  64.3974997 103.6419988
 115.1730012  63.2224997 103.1939988 115.9348574  63.5551892 103.4518912
 129.3730012  74.1224997 113.3999988 129.2180012  74.8004997 112.7419988
 130.3060012  74.1944997 113.6029988 129.4778657  74.2249546 113.3374360
 116.8690012  58.2404997 112.1369988 116.6400012  58.2994997 111.2089988
 116.4260012  57.4484997 112.4429988 116.7778530  58.1415753 112.0514786
 115.7990012  72.1804997 108.2969988 114.9670012  72.6534997 108.3239988
 116.3450012  72.6904997 107.6989988 115.7590352  72.3141332 108.2198463
 115.0870012  74.7934997 119.6269988 115.6280012  74.5764997 120.3869988
 114.6060012  73.9874997 119.4369988 115.0959951  74.6549270 119.7052576
 119.6850012  73.7124997 121.2469988 120.4520012  73.2534997 121.5879988
 119.6630012  73.4864997 120.3179988 119.7871275  73.6190186 121.1680101
 126.2620012  72.0924997 119.9769988 125.9110012  71.2364997 120.2199988
 126.9880012  72.2354997 120.5839988 126.3120769  71.9945636 120.0923619
 114.9940012  68.6034997 120.5809988 115.1380012  67.7014997 120.2949988
 114.2220012  68.8894997 120.0939988 114.9092753  68.5186816 120.4759505
 121.6500012  68.5734997 120.0139988 121.3210012  68.8444997 119.1569988
 121.8020012  67.6324997 119.9269988 121.6254809  68.4833862 119.8848244
 124.6880012  69.9944997 102.4499988 124.4190012  70.1744997 103.3509988
 124.4820012  69.0684997 102.3179988 124.6233427  69.8940261 102.5555073
 127.3840012  68.4894997 117.3969988 128.1300012  69.0774997 117.2779988
 126.6270012  69.0714997 117.4609988 127.3837820  68.6487143 117.3893590
 115.8270012  65.8034997 120.0009988 116.2350012  64.9464997 119.8799988
 115.5670012  65.8184997 120.9219988 115.8477568  65.6880807 120.1089588
 120.4850012  66.9194997 105.0199988 120.0250012  66.4354997 105.7059988
 120.7400012  66.2514997 104.3839988 120.4564902  66.7628731 105.0279334
 119.7740012  64.8124997 117.3759988 119.1560012  65.4874997 117.6559988
 120.1180012  65.1334997 116.5419988 119.7359132  64.9482411 117.3016262
 124.7940012  67.2844997 120.6529988 125.7470012  67.3674997 120.6259988
 124.6330012  66.5724997 121.2729988 124.9026426  67.1996746 120.7330579
 120.1130012  62.1674997 118.4579988 120.2630012  61.4384997 117.8559988
 120.1160012  62.9444997 117.8989988 120.1339302  62.1727851 118.3000692
 120.5260012  60.5374997 115.9509988 121.0620012  60.9884997 115.2989988
 119.6740012  60.4294997 115.5279988 120.4842178  60.5846390 115.8045756
 122.1080012  65.9764997 116.1899988 122.8580012  65.8204997 115.6169988
 121.7690012  66.8284997 115.9149988 122.1648921  66.0702968 116.0743561
 126.5230012  63.7914997 121.2189988 126.7160012  62.8604997 121.1069988
 127.3810012  64.2164997 121.2079988 126.6652934  63.7216531 121.2022031
 127.8400012  66.5804997 119.2959988 127.5590012  67.2894997 118.7179988
 128.7830012  66.5074997 119.1449988 127.9289291  66.6676711 119.1964967
 118.5920012  63.3654997 120.3699988 117.8250012  62.8334997 120.1589988
 119.2710012  63.0554997 119.7699988 118.5787877  63.2508300 120.2600716
 121.3320012  57.9934997 116.3819988 121.2330012  58.9404997 116.2769988
 120.5890012  57.6214997 115.9059988 121.2181184  58.0725863 116.3033621
 122.5960012  62.3154997 119.9459988 122.3600012  62.0954997 120.8469988
 121.8120012  62.1084997 119.4359988 122.4578504  62.2574586 120.0003431
 125.3110012  61.4424997 119.0209988 124.3640012  61.4744997 119.1539988
 125.6240012  60.8174997 119.6749988 125.2236707  61.3623998 119.1276060
 126.9450012  60.0764997 121.0269988 126.8490012  59.1244997 121.0209988
 126.6240012  60.3454997 121.8869988 126.8884070  59.9824035 121.1425441
 116.7720012  61.2864997 120.0739988 116.9840012  60.5794997 119.4639988
 116.6610012  60.8484997 120.9179988 116.7859721  61.1307084 120.1046843
 121.5530012  57.2874997 119.0529988 122.2650012  56.6474997 119.0389988
 121.4520012  57.5544997 118.1399988 121.6368066  57.2360079 118.9275677
 121.9070012  58.9704997 121.1069988 121.7750012  58.4944997 120.2869988
 121.3080012  59.7144997 121.0519988 121.8079071  59.0059618 120.9872886
 121.4530012  75.8534997 104.2829988 122.3860012  76.0114997 104.4269988
 121.1890012  76.5284997 103.6589988 121.5449888  75.9664510 104.2182842
 113.6710012  75.8824997 108.8439988 113.0240012  75.4204997 108.3109988
 114.0250012  75.2104997 109.4259988 113.6303849  75.7284723 108.8497959
 114.5410012  73.9634997 110.6479988 114.2060012  73.0834997 110.8199988
 114.7630012  74.3084997 111.5129988 114.5251783  73.8897500 110.7884208
 132.0890012  74.7724997 113.6289988 132.0680012  74.9574997 114.5679988
 132.7800012  75.3414997 113.2879988 132.1794618  74.8746606 113.7113864
 131.6530012  74.3404997 116.5509988 131.1650012  73.6044997 116.1789988
 132.2020012  73.9464997 117.2289988 131.6604820  74.1865889 116.5917813
 130.1030012  70.1294997 121.1889988 129.2370012  70.0244997 121.5829988
 130.4800012  70.8884997 121.6349988 130.0353308  70.2176900 121.3032393
 131.4040012  68.3864997 106.7029988 132.2540012  68.8074997 106.8299988
 131.4100012  67.6464997 107.3099988 131.5211372  68.3440803 106.8024344
 131.7990012  66.4394997 108.5259988 131.0720012  65.9604997 108.9239988
 132.3800012  66.6454997 109.2589988 131.7780473  66.4018103 108.6794528
 131.5580012  69.2244997 113.4739988 132.3910012  68.8464997 113.1939988
 131.6700012  70.1674997 113.3549988 131.6872647  69.3002218 113.4195487
 130.0440012  72.1024997 115.7809988 129.3970012  72.4274997 116.4069988
 129.5270012  71.6624997 115.1069988 129.8854029  72.0875004 115.7755827
 129.5850012  64.9604997 109.0889988 129.4350012  64.0154997 109.0689988
 129.2320012  65.2414997 109.9329988 129.5167448  64.8691481 109.2003705
 114.6210012  67.0384997 113.0999988 114.8050012  66.9564997 112.1639988
 115.4700012  66.9144997 113.5229988 114.7610151  67.0105073 113.0291451
 130.4420012  66.9304997 118.7279988 131.0250012  66.1964997 118.9199988
 131.0060012  67.7024997 118.7749988 130.5979769  66.9344227 118.7606159
 131.9380012  64.8334997 119.4129988 131.0750012  64.4544997 119.2469988
 132.5430012  64.0944997 119.3379988 131.9016119  64.6818268 119.3801528
 129.2960012  62.5434997 107.5519988 129.5760012  61.6364997 107.6759988
 130.0550012  62.9774997 107.1629988 129.4369277  62.4780942 107.5163682
 129.9080012  63.1244997 112.9879988 130.8410012  63.3364997 112.9529988
 129.6730012  63.2264997 113.9099988 130.0039244  63.1673100 113.1078892
 129.9370012  63.8614997 115.7639988 129.0940012  64.1294997 116.1299988
 130.3790012  64.6834997 115.5529988 129.8814158  64.0093291 115.7855491
 114.2180012  62.3094997 119.2409988 115.1380012  62.1874997 119.4769988
 113.7690012  61.5594997 119.6299988 114.2831580  62.1913727 119.3259006
 132.2200012  57.8414997 121.1169988 132.5700012  57.1874997 120.5119988
 132.3670012  58.6784997 120.6769988 132.2877887  57.8651548 120.9746858
 129.9090012  59.8064997 107.5999988 130.0920012  59.3574997 108.4259988
 129.3100012  59.2214997 107.1369988 129.8530202  59.6659975 107.6503275
 115.4390012  60.6214997 112.1319988 115.8850012  59.8294997 112.4339988
 115.9060012  61.3374997 112.5619988 115.5630831  60.6100685 112.2314006
 113.7430012  63.6204997 113.2009988 114.2350012  63.3994997 112.4099988
 114.1060012  64.4614997 113.4819988 113.8593126  63.7038357 113.1307531
 131.7400012  59.9504997 119.4659988 130.8220012  60.2214997 119.4309988
 131.8630012  59.4154997 118.6819988 131.6309729  59.9152508 119.3551923
 114.0570012  59.8784997 107.2549988 113.1320012  60.0874997 107.1259988
 114.5110012  60.3624997 106.5649988 113.9917292  59.9725343 107.1440720
 128.8280012  74.8624997 109.2009988 129.4800012  74.5154997 108.5929988
 129.3380012  75.3514997 109.8469988 128.9862637  74.8810597 109.2050236
 114.0210012  58.6164997 115.5989988 113.3560012  58.3704997 116.2429988
 113.5780012  59.2384997 115.0219988 113.8701318  58.6669410 115.6090898
 116.2130012  71.7914997 119.7439988 115.3920012  71.9664997 119.2829988
 115.9600012  71.7184997 120.6639988 116.0665585  71.8055544 119.8053561
 119.1670012  72.7664997 116.0019988 118.7420012  73.5754997 115.7199988
 120.0710012  72.8514997 115.6999988 119.2309975  72.8889300 115.9224816
 123.4780012  74.1654997 118.9619988 123.6630012  73.8314997 119.8399988
 124.3240012  74.4744997 118.6399988 123.6177539  74.1616047 119.0385605
 125.8230012  75.4514997 118.2059988 126.5000012  74.8184997 117.9659988
 126.1450012  75.8524997 119.0129988 125.9591637  75.4191154 118.2822793
 130.7400012  58.0404997 117.2849988 129.9280012  58.3654997 116.8979988
 130.9730012  57.2804997 116.7519988 130.6602203  57.9822758 117.1598880
 116.5690012  76.0224997 116.0499988 115.8480012  76.4624997 115.5989988
 116.2030012  75.7714997 116.8979988 116.4209651  76.0487242 116.1029640
 119.0360012  75.6224997 115.0799988 118.1710012  75.6944997 115.4839988
 118.9810012  76.1694997 114.2959988 118.9102085  75.7062685 115.0293362
 123.7460012  75.5104997 114.2549988 123.2900012  76.0394997 113.6009988
 123.9090012  76.1134997 114.9799988 123.7056068  75.6644607 114.2634838
 126.0740012  74.3884997 115.1999988 125.1690012  74.5534997 114.9339988
 126.5030012  75.2414997 115.1349988 126.0081324  74.5264339 115.1547976
 128.6780012  75.9584997 115.4949988 128.4960012  76.8744997 115.2849988
 128.8550012  75.5484997 114.6489988 128.6770210  76.0284822 115.3517885
 115.9830012  74.6454997 112.9599988 115.9650012  74.2204997 113.8169988
 116.7880012  74.3274997 112.5509988 116.0893529  74.5443013 113.0220946
 118.1250012  73.3554997 111.6149988 117.9060012  72.4394997 111.7849988
 118.9490012  73.4954997 112.0809988 118.2064420  73.2490520 111.7012774
 120.6620012  73.8254997 112.4639988 120.8750012  72.9374997 112.1769988
 120.7260012  73.7914997 113.4179988 120.6998232  73.6993102 112.5537397
 124.1700012  59.4894997 111.6079988 123.4960012  58.8604997 111.8639988
 124.7340012  59.0054997 111.0049988 124.1539230  59.3378744 111.5615340
 129.3130012  57.5974997 111.7209988 129.9170012  58.1444997 111.2189988
 128.4430012  57.9164997 111.4799988 129.2781208  57.7155137 111.6196886
 131.0400012  58.7354997 110.0539988 131.6520012  58.2214997 109.5269988
 131.4220012  59.6134997 110.0769988 131.1753371  58.7837866 109.9850041
 116.4970012  58.1234997 109.4299988 115.7200012  57.8894997 108.9229988
 117.0270012  57.3264997 109.4389988 116.4622330  57.9836988 109.3617742
 121.0760012  58.0504997 109.2439988 121.9510012  58.4384997 109.2139988
 120.9400012  57.8354997 110.1659988 121.1773695  58.0745184 109.3646440
 126.6330012  58.0804997 110.8929988 126.7090012  58.1754997 109.9429988
 126.3580012  57.1724997 111.0219988 126.6062321  57.9707867 110.7805079
 127.9860012  58.1064997 106.5849988 127.2840012  58.7214997 106.3749988
 127.5420012  57.2684997 106.7159988 127.8296450  58.0775639 106.5739000
 115.2340012  73.8694997 106.1309988 114.5490012  73.8314997 105.4639988
 115.2380012  74.7824997 106.4199988 115.1406998  73.9876733 106.0786771
 117.1940012  59.8374997 103.6759988 117.6860012  59.2074997 103.1489988
 117.8180012  60.1334997 104.3389988 117.3455688  59.7913804 103.6935482
 122.2200012  60.1304997 106.1329988 122.3980012  59.4844997 106.8159988
 122.1670012  60.9644997 106.5999988 122.2371999  60.1548009 106.2895917
 130.8080012  74.6424997 107.2079988 130.6130012  73.8944997 106.6429988
 130.7690012  75.4004997 106.6249988 130.7760380  74.6426099 107.0518384
 116.4550012  58.6374997 118.9479988 116.0890012  57.8724997 119.3899988
 117.3680012  58.6664997 119.2339988 116.5282736  58.5365640 119.0472502
 118.4280012  57.9884997 120.4839988 119.3260012  57.7144997 120.2989988
 118.0410012  57.2454997 120.9479988 118.4986612  57.8505914 120.5213643
 126.8490012  57.3204997 120.6659988 126.9260012  56.8944997 121.5199988
 127.7430012  57.3344997 120.3229988 126.9803428  57.2640879 120.7365310
 130.0250012  73.3934997 119.3579988 129.2430012  73.2074997 118.8379988
 129.9530012  74.3224997 119.5759988 129.9082274  73.4936643 119.3163018
 144.4310012  67.2794997 109.3889988 144.5200012  68.2234997 109.2569988
 143.7930012  67.0044997 108.7309988 144.3569081  67.3714830 109.2819614
 143.3640012  66.5344997 112.8079988 143.3260012  65.8884997 113.5129988
 143.0420012  66.0684997 112.0369988 143.3152333  66.3829408 112.8002978
 135.7330012  66.1494997 114.4009988 135.7740012  65.5234997 115.1239988
 136.4360012  66.7734997 114.5829988 135.8336363  66.1481196 114.5246044
 136.6560012  70.5994997 112.9359988 136.2870012  69.7974997 112.5659988
 137.5970012  70.4304997 112.9819988 136.7327289  70.4670153 112.8916316
 133.2660012  64.2594997 108.3289988 132.8190012  65.1054997 108.3099988
 132.7050012  63.6794997 107.8129988 133.1289900  64.2969916 108.2566801
 133.9770012  66.4214997 110.4539988 134.1900012  65.6514997 110.9819988
 134.7150012  66.5104997 109.8509988 134.1059044  66.3281968 110.4447123
 144.1820012  74.5784997 111.3209988 144.8020012  73.9014997 111.0479988
 143.9740012  74.3604997 112.2299988 144.2386726  74.4564800 111.4064812
 141.7540012  68.9674997 113.2139988 142.0580012  68.2814997 112.6189988
 142.4750012  69.0854997 113.8319988 141.8930671  68.8896305 113.2161816
 144.8950012  63.3614997 113.5409988 145.0370012  62.4154997 113.5619988
 144.7880012  63.5684997 112.6129988 144.8999919  63.2598246 113.4183408
 138.0490012  61.4624997 110.8139988 138.0930012  62.3224997 110.3949988
 137.5920012  60.9104997 110.1799988 137.9932240  61.5054422 110.6709864
 134.6700012  63.8594997 111.5759988 135.3230012  63.3094997 112.0079988
 134.6940012  63.5854997 110.6589988 134.7626683  63.7471466 111.5112123
 139.8260012  65.4094997 110.7909988 140.4420012  64.8834997 111.3009988
 139.2400012  64.7694997 110.3879988 139.8310810  65.2509208 110.8063173
 136.8600012  60.3804997 114.8879988 136.6410012  60.9104997 114.1219988
 136.1920012  60.6074997 115.5349988 136.7397600  60.4836906 114.8706379
 144.2290012  69.8804997 108.4319988 143.9330012  69.5584997 107.5809988
 143.9040012  70.7804997 108.4729988 144.1446371  69.9580215 108.3211801
 139.4290012  68.0564997 115.1749988 138.6890012  68.6544997 115.2789988
 140.1430012  68.6104997 114.8599988 139.4242237  68.2132831 115.1466465
 136.4530012  62.2724997 112.8399988 137.0670012  62.9054997 113.2129988
 136.9650012  61.8004997 112.1839988 136.6061981  62.2952267 112.8022908
 137.8360012  70.0204997 115.9619988 137.8310012  70.9004997 115.5839988
 136.9830012  69.9374997 116.3869988 137.7199464  70.1296117 115.9677907
 133.9570012  69.6914997 106.7439988 133.6850012  69.9204997 105.8559988
 134.0030012  70.5294997 107.2049988 133.9259482  69.8361318 106.6846273
 140.8860012  57.6864997 112.3399988 140.7690012  56.7374997 112.2859988
 140.0310012  58.0184997 112.6139988 140.7544212  57.6015571 112.3696497
 143.1530012  66.5234997 106.8409988 142.4410012  67.0584997 106.4889988
 143.8440012  66.5794997 106.1809988 143.1490132  66.6042543 106.7036289
 138.2040012  67.3634997 109.6749988 137.8730012  66.9934997 108.8569988
 138.7920012  66.6934997 110.0219988 138.2381873  67.2221156 109.6098102
 139.5700012  70.7914997 112.3559988 139.4760012  70.2134997 111.5999988
 140.3000012  70.4204997 112.8529988 139.6557386  70.6621663 112.3195342
 138.5700012  66.1324997 113.3089988 139.1360012  66.2534997 112.5459988
 138.8890012  66.7694997 113.9469988 138.6905474  66.2352219 113.2909862
 144.8790012  71.6354997 114.0429988 144.6390012  72.2974997 114.6909988
 144.6810012  70.8014997 114.4679988 144.8193808  71.6133134 114.1891524
 139.4500012  70.5314997 118.0259988 139.1390012  71.3134997 118.4809988
 138.8000012  70.3784997 117.3399988 139.3195558  70.6179105 117.9955871
 136.3700012  66.7294997 117.2539988 136.4410012  67.3804997 117.9529988
 135.4800012  66.8324997 116.9189988 136.2593005  66.8325427 117.3043495
 143.1560012  72.6324997 108.9129988 143.6300012  72.9274997 109.6899988
 142.5930012  73.3704997 108.6799988 143.1448184  72.7727247 108.9879628
 137.6900012  72.6034997 118.7889988 137.6970012  72.4674997 117.8419988
 136.7740012  72.4854997 119.0409988 137.5671714  72.5689430 118.6934666
 137.1940012  66.4334997 107.2639988 136.9020012  67.2014997 106.7739988
 136.5200012  65.7734997 107.1019988 137.0628111  66.4495587 107.1748978
 133.2870012  68.7964997 116.0789988 132.7860012  68.7684997 115.2639988
 133.2920012  67.8904997 116.3889988 133.2190944  68.6702396 116.0093226
 133.0370012  71.5764997 112.9629988 133.9830012  71.4324997 112.9439988
 132.9250012  72.3604997 113.4999988 133.1512727  71.6628046 113.0330072
 142.2140012  71.8164997 117.5219988 142.3010012  72.6424997 117.9969988
 141.3500012  71.4864997 117.7709988 142.1091964  71.8849878 117.6206549
 142.6280012  75.5884997 107.3279988 142.5530012  75.4674997 106.3809988
 142.6610012  76.5384997 107.4459988 142.6222068  75.7002646 107.2144967
 136.2810012  74.3774997 109.1089988 136.4340012  74.0294997 109.9869988
 135.4310012  74.0214997 108.8539988 136.1869166  74.2816216 109.1948079
 135.5360012  70.1194997 117.1229988 135.7520012  69.7584997 117.9819988
 134.6810012  69.7454997 116.9129988 135.4499292  70.0194111 117.2123386
 138.1550012  58.5894997 113.1179988 137.2930012  58.5024997 112.7099988
 138.1320012  59.4454997 113.5459988 138.0340409  58.6932883 113.1200589
 142.8180012  58.3114997 116.4929988 143.2380012  57.8964997 117.2459988
 141.8850012  58.1334997 116.6099988 142.7493644  58.2305900 116.6119539
 138.2460012  63.5554997 114.2129988 137.6040012  63.5144997 114.9219988
 138.2830012  64.4814997 113.9749988 138.1630664  63.6751430 114.2779219
 138.2430012  63.7764997 109.1249988 137.3500012  63.4354997 109.0659988
 138.6930012  63.3994997 108.3689988 138.1818130  63.6789631 109.0147702
 143.7780012  64.1924997 107.9419988 143.3690012  65.0074997 107.6509988
 144.4990012  64.0524997 107.3279988 143.8194537  64.2852018 107.8191342
 142.8800012  64.3674997 119.4299988 142.3180012  63.6634997 119.7509988
 143.7070012  64.2474997 119.8979988 142.9147095  64.2547883 119.5372330
 144.7830012  63.6384997 110.7559988 144.5880012  64.2434997 110.0409988
 144.9640012  62.8044997 110.3219988 144.7807614  63.6086300 110.5994405
 135.9960012  63.8754997 116.0799988 135.9580012  64.2754997 116.9489988
 135.5050012  63.0584997 116.1709988 135.9244684  63.8198069 116.2111059
 139.3620012  61.2494997 102.8789988 138.9310012  60.8044997 103.6089988
 138.6440012  61.6214997 102.3669988 139.2059438  61.2388940 102.9096799
 132.6040012  60.9914997 109.9309988 133.2350012  60.9624997 110.6499988
 133.0530012  60.5664997 109.1999988 132.7510918  60.9300836 109.9306441
 133.8780012  61.7374997 105.3549988 134.3520012  62.3284997 104.7699988
 133.1610012  62.2684997 105.7019988 133.8459341  61.8900867 105.3218836
 144.0470012  65.2764997 115.4269988 144.3700012  64.6454997 114.7839988
 143.6070012  64.7414997 116.0879988 144.0317484  65.1178387 115.4283198
 140.8240012  61.2034997 110.2109988 139.9130012  61.2604997 110.4999988
 141.3300012  61.1434997 111.0219988 140.7676899  61.2031941 110.3601184
 135.6530012  62.8324997 109.0379988 134.7630012  62.9324997 108.6979988
 135.9490012  61.9904997 108.6919988 135.5712823  62.7323545 108.9447213
 139.3060012  62.8324997 106.6949988 140.2370012  62.9614997 106.8729988
 139.0910012  63.5024997 106.0449988 139.4044247  62.9406565 106.6315747
 137.9800012  64.0274997 104.2609988 137.4370012  63.6474997 103.5699988
 138.8130012  64.2214997 103.8329988 138.0183631  64.0017125 104.1084501
 136.1150012  68.5844997 119.3599988 136.8470012  68.8384997 119.9219988
 135.3350012  68.7884997 119.8759988 136.1097073  68.6468160 119.5066151
 142.1440012  63.9914997 112.0979988 142.7090012  63.4444997 111.5509988
 141.9970012  63.4694997 112.8869988 142.2013380  63.8462259 112.1298695
 137.1460012  60.1274997 108.5169988 136.8290012  59.2254997 108.4809988
 137.9280012  60.1294997 107.9639988 137.2082408  60.0042474 108.4373569
 140.7710012  62.3794997 114.5119988 139.9350012  62.8334997 114.6229988
 141.2950012  62.6554997 115.2639988 140.7275416  62.4788660 114.6288119
 141.3150012  68.5924997 106.1969988 140.5700012  68.0854997 105.8749988
 141.1810012  68.6414997 107.1439988 141.1948776  68.5296940 106.2808647
 142.8340012  68.7764997 117.4339988 142.4890012  68.3954997 118.2409988
 142.6340012  69.7104997 117.5049988 142.7597527  68.8505135 117.5540689
 136.4400012  67.8874997 111.9669988 137.1850012  67.8854997 111.3659988
 136.5180012  67.0644997 112.4479988 136.5524995  67.7758887 111.9498282
 133.4480012  66.3484997 117.2819988 133.6710012  65.9304997 118.1139988
 132.8460012  65.7354997 116.8589988 133.3971759  66.2084668 117.3387022
 140.4640012  65.8654997 119.4949988 140.1680012  65.6994997 118.5999988
 141.3960012  65.6454997 119.4839988 140.5494166  65.8130640 119.3710536
 138.8150012  71.4054997 109.3709988 139.3420012  72.1784997 109.1709988
 137.9350012  71.6304997 109.0689988 138.7682031  71.5417545 109.3027912
 140.2420012  69.0684997 108.9469988 140.0010012  69.9934997 108.9889988
 139.5010012  68.6094997 109.3439988 140.1089225  69.1330933 109.0063742
 140.7570012  73.2174997 115.2629988 141.1190012  74.0724997 115.0289988
 141.2880012  72.9254997 116.0029988 140.8784473  73.2951060 115.3310855
 138.9250012  74.0904997 108.4929988 137.9750012  74.1954997 108.5439988
 139.2770012  74.9104997 108.8369988 138.8424195  74.2158800 108.5465502
 144.3010012  69.3164997 114.9629988 143.8750012  69.0894997 115.7899988
 144.8810012  68.5784997 114.7809988 144.3211868  69.1855299 115.0515830
 135.0820012  61.1014997 116.8399988 134.1890012  61.4404997 116.7719988
 134.9830012  60.2464997 117.2579988 134.9464164  61.0322588 116.8872235
 134.7330012  72.9064997 115.2749988 134.9500012  71.9744997 115.2439988
 134.9790012  73.1804997 116.1579988 134.7959549  72.8160636 115.3901763
 135.9850012  68.1804997 105.4509988 135.2990012  68.5324997 106.0179988
 136.5070012  68.9434997 105.2039988 135.9616852  68.3318578 105.4952118
 143.8160012  60.8424997 115.7299988 144.5150012  60.9164997 116.3799988
 143.4350012  59.9784997 115.8839988 143.8601767  60.7357624 115.8398322
 144.6010012  60.4944997 106.8269988 144.8210012  60.9664997 106.0239988
 145.1590012  60.8894997 107.4969988 144.7064968  60.6124285 106.8077331
 141.8010012  62.2224997 107.6619988 142.6130012  62.7274997 107.7079988
 141.5560012  62.0774997 108.5759988 141.8790520  62.2720375 107.7918517
 142.3360012  63.2084997 116.8459988 142.4550012  63.7824997 117.6039988
 142.9920012  62.5204997 116.9609988 142.4409025  63.1939858 116.9651321
 142.6840012  59.3034997 108.5999988 142.3380012  59.9214997 109.2439988
 143.3430012  59.8044997 108.1179988 142.7256968  59.4556278 108.6229383
 139.6080012  73.6694997 105.6709988 139.7680012  74.4684997 105.1709988
 139.4100012  73.9754997 106.5559988 139.6031637  73.8204020 105.7221144
 136.6010012  70.7944997 104.3479988 137.1930012  71.4934997 104.6239988
 137.0600012  70.3614997 103.6279988 136.7441142  70.8317049 104.2884830
 135.7250012  58.2404997 112.1369988 135.4960012  58.2994997 111.2089988
 135.2820012  57.4484997 112.4429988 135.6338530  58.1415753 112.0514786
 134.6550012  72.1804997 108.2969988 133.8230012  72.6534997 108.3239988
 135.2010012  72.6904997 107.6989988 134.6150352  72.3141332 108.2198463
 133.9430012  74.7934997 119.6269988 134.4840012  74.5764997 120.3869988
 133.4620012  73.9874997 119.4369988 133.9519951  74.6549270 119.7052576
 138.5410012  73.7124997 121.2469988 139.3080012  73.2534997 121.5879988
 138.5190012  73.4864997 120.3179988 138.6431275  73.6190186 121.1680101
 133.8500012  68.6034997 120.5809988 133.9940012  67.7014997 120.2949988
 133.0780012  68.8894997 120.0939988 133.7652753  68.5186816 120.4759505
 138.1920012  68.9474997 102.7139988 138.2560012  68.1534997 103.2449988
 138.8450012  68.8284997 102.0239988 138.2890241  68.8227148 102.6934317
 140.5060012  68.5734997 120.0139988 140.1770012  68.8444997 119.1569988
 140.6580012  67.6324997 119.9269988 140.4814809  68.4833862 119.8848244
 134.6830012  65.8034997 120.0009988 135.0910012  64.9464997 119.8799988
 134.4230012  65.8184997 120.9219988 134.7037568  65.6880807 120.1089588
 139.3410012  66.9194997 105.0199988 138.8810012  66.4354997 105.7059988
 139.5960012  66.2514997 104.3839988 139.3124902  66.7628731 105.0279334
 138.6300012  64.8124997 117.3759988 138.0120012  65.4874997 117.6559988
 138.9740012  65.1334997 116.5419988 138.5919132  64.9482411 117.3016262
 140.4120012  65.1624997 103.2819988 140.2320012  65.0084997 102.3549988
 141.3620012  65.2704997 103.3269988 140.5157776  65.1560175 103.1611843
 143.6500012  67.2844997 120.6529988 144.6030012  67.3674997 120.6259988
 143.4890012  66.5724997 121.2729988 143.7586426  67.1996746 120.7330579
 138.9690012  62.1674997 118.4579988 139.1190012  61.4384997 117.8559988
 138.9720012  62.9444997 117.8989988 138.9899302  62.1727851 118.3000692
 139.3820012  60.5374997 115.9509988 139.9180012  60.9884997 115.2989988
 138.5300012  60.4294997 115.5279988 139.3402178  60.5846390 115.8045756
 140.9640012  65.9764997 116.1899988 141.7140012  65.8204997 115.6169988
 140.6250012  66.8284997 115.9149988 141.0208921  66.0702968 116.0743561
 137.4480012  63.3654997 120.3699988 136.6810012  62.8334997 120.1589988
 138.1270012  63.0554997 119.7699988 137.4347877  63.2508300 120.2600716
 140.1880012  57.9934997 116.3819988 140.0890012  58.9404997 116.2769988
 139.4450012  57.6214997 115.9059988 140.0741184  58.0725863 116.3033621
 141.4520012  62.3154997 119.9459988 141.2160012  62.0954997 120.8469988
 140.6680012  62.1084997 119.4359988 141.3138504  62.2574586 120.0003431
 144.1670012  61.4424997 119.0209988 143.2200012  61.4744997 119.1539988
 144.4800012  60.8174997 119.6749988 144.0796707  61.3623998 119.1276060
 135.6280012  61.2864997 120.0739988 135.8400012  60.5794997 119.4639988
 135.5170012  60.8484997 120.9179988 135.6419721  61.1307084 120.1046843
 140.4090012  57.2874997 119.0529988 141.1210012  56.6474997 119.0389988
 140.3080012  57.5544997 118.1399988 140.4928066  57.2360079 118.9275677
 140.7630012  58.9704997 121.1069988 140.6310012  58.4944997 120.2869988
 140.1640012  59.7144997 121.0519988 140.6639071  59.0059618 120.9872886
 132.5270012  75.8824997 108.8439988 131.8800012  75.4204997 108.3109988
 132.8810012  75.2104997 109.4259988 132.4863849  75.7284723 108.8497959
 133.3970012  73.9634997 110.6479988 133.0620012  73.0834997 110.8199988
 133.6190012  74.3084997 111.5129988 133.3811783  73.8897500 110.7884208
 133.4770012  67.0384997 113.0999988 133.6610012  66.9564997 112.1639988
 134.3260012  66.9144997 113.5229988 133.6170151  67.0105073 113.0291451
 133.0740012  62.3094997 119.2409988 133.9940012  62.1874997 119.4769988
 132.6250012  61.5594997 119.6299988 133.1391580  62.1913727 119.3259006
 134.2950012  60.6214997 112.1319988 134.7410012  59.8294997 112.4339988
 134.7620012  61.3374997 112.5619988 134.4190831  60.6100685 112.2314006
 132.5990012  63.6204997 113.2009988 133.0910012  63.3994997 112.4099988
 132.9620012  64.4614997 113.4819988 132.7153126  63.7038357 113.1307531
 132.9130012  59.8784997 107.2549988 131.9880012  60.0874997 107.1259988
 133.3670012  60.3624997 106.5649988 132.8477292  59.9725343 107.1440720
 132.8770012  58.6164997 115.5989988 132.2120012  58.3704997 116.2429988
 132.4340012  59.2384997 115.0219988 132.7261318  58.6669410 115.6090898
 135.0690012  71.7914997 119.7439988 134.2480012  71.9664997 119.2829988
 134.8160012  71.7184997 120.6639988 134.9225585  71.8055544 119.8053561
 138.0230012  72.7664997 116.0019988 137.5980012  73.5754997 115.7199988
 138.9270012  72.8514997 115.6999988 138.0869975  72.8889300 115.9224816
 142.3340012  74.1654997 118.9619988 142.5190012  73.8314997 119.8399988
 143.1800012  74.4744997 118.6399988 142.4737539  74.1616047 119.0385605
 144.6790012  75.4514997 118.2059988 145.3560012  74.8184997 117.9659988
 145.0010012  75.8524997 119.0129988 144.8151637  75.4191154 118.2822793
 135.4250012  76.0224997 116.0499988 134.7040012  76.4624997 115.5989988
 135.0590012  75.7714997 116.8979988 135.2769651  76.0487242 116.1029640
 137.8920012  75.6224997 115.0799988 137.0270012  75.6944997 115.4839988
 137.8370012  76.1694997 114.2959988 137.7662085  75.7062685 115.0293362
 142.6020012  75.5104997 114.2549988 142.1460012  76.0394997 113.6009988
 142.7650012  76.1134997 114.9799988 142.5616068  75.6644607 114.2634838
 134.8390012  74.6454997 112.9599988 134.8210012  74.2204997 113.8169988
 135.6440012  74.3274997 112.5509988 134.9453529  74.5443013 113.0220946
 136.9810012  73.3554997 111.6149988 136.7620012  72.4394997 111.7849988
 137.8050012  73.4954997 112.0809988 137.0624420  73.2490520 111.7012774
 139.5180012  73.8254997 112.4639988 139.7310012  72.9374997 112.1769988
 139.5820012  73.7914997 113.4179988 139.5558232  73.6993102 112.5537397
 143.0260012  59.4894997 111.6079988 142.3520012  58.8604997 111.8639988
 143.5900012  59.0054997 111.0049988 143.0099230  59.3378744 111.5615340
 135.3530012  58.1234997 109.4299988 134.5760012  57.8894997 108.9229988
 135.8830012  57.3264997 109.4389988 135.3182330  57.9836988 109.3617742
 139.9320012  58.0504997 109.2439988 140.8070012  58.4384997 109.2139988
 139.7960012  57.8354997 110.1659988 140.0333695  58.0745184 109.3646440
 141.0760012  60.1304997 106.1329988 141.2540012  59.4844997 106.8159988
 141.0230012  60.9644997 106.5999988 141.0931999  60.1548009 106.2895917
 142.9550012  75.0794997 104.5289988 143.8210012  75.4454997 104.3509988
 142.7080012  74.6394997 103.7149988 143.0402392  75.0701756 104.3946289
 135.3110012  58.6374997 118.9479988 134.9450012  57.8724997 119.3899988
 136.2240012  58.6664997 119.2339988 135.3842736  58.5365640 119.0472502
 137.2840012  57.9884997 120.4839988 138.1820012  57.7144997 120.2989988
 136.8970012  57.2454997 120.9479988 137.3546612  57.8505914 120.5213643
  12.4390012  86.1354997 109.3889988  12.5280012  87.0794997 109.2569988
  11.8010012  85.8604997 108.7309988  12.3649081  86.2274830 109.2819614
  11.3720012  85.3904997 112.8079988  11.3340012  84.7444997 113.5129988
  11.0500012  84.9244997 112.0369988  11.3232333  85.2389408 112.8002978
   3.7410012  85.0054997 114.4009988   3.7820012  84.3794997 115.1239988
   4.4440012  85.6294997 114.5829988   3.8416363  85.0041196 114.5246044
  15.0780012  88.3294997 111.1089988  14.6380012  87.6094997 111.5599988
  15.0650012  89.0504997 111.7389988  15.0160226  88.3283731 111.2558494
   4.6640012  89.4554997 112.9359988   4.2950012  88.6534997 112.5659988
   5.6050012  89.2864997 112.9819988   4.7407289  89.3230153 112.8916316
   1.2740012  83.1154997 108.3289988   0.8270012  83.9614997 108.3099988
   0.7130012  82.5354997 107.8129988   1.1369900  83.1529916 108.2566801
   1.9850012  85.2774997 110.4539988   2.1980012  84.5074997 110.9819988
   2.7230012  85.3664997 109.8509988   2.1139044  85.1841968 110.4447123
  12.1900012  93.4344997 111.3209988  12.8100012  92.7574997 111.0479988
  11.9820012  93.2164997 112.2299988  12.2466726  93.3124800 111.4064812
   9.7620012  87.8234997 113.2139988  10.0660012  87.1374997 112.6189988
  10.4830012  87.9414997 113.8319988   9.9010671  87.7456305 113.2161816
  18.4250012  79.4244997 114.0749988  18.4740012  80.0344997 114.8099988
  18.8500012  79.8854997 113.3519988  18.4891746  79.5703796 114.0779175
  12.9030012  82.2174997 113.5409988  13.0450012  81.2714997 113.5619988
  12.7960012  82.4244997 112.6129988  12.9079919  82.1158246 113.4183408
   6.0570012  80.3184997 110.8139988   6.1010012  81.1784997 110.3949988
   5.6000012  79.7664997 110.1799988   6.0012240  80.3614422 110.6709864
  13.7800012  80.4494997 109.2149988  14.4260012  80.1204997 109.8389988
  14.2900012  80.9674997 108.5919988  13.9374299  80.4744450 109.2162731
   2.6780012  82.7154997 111.5759988   3.3310012  82.1654997 112.0079988
   2.7020012  82.4414997 110.6589988   2.7706683  82.6031466 111.5112123
   7.8340012  84.2654997 110.7909988   8.4500012  83.7394997 111.3009988
   7.2480012  83.6254997 110.3879988   7.8390810  84.1069208 110.8063173
  18.8160012  80.9024997 116.3099988  18.1280012  81.5604997 116.2149988
  18.8320012  80.7054997 117.2469988  18.7239540  80.9659819 116.4235990
   4.8680012  79.2364997 114.8879988   4.6490012  79.7664997 114.1219988
   4.2000012  79.4634997 115.5349988   4.7477600  79.3396906 114.8706379
  12.2370012  88.7364997 108.4319988  11.9410012  88.4144997 107.5809988
  11.9120012  89.6364997 108.4729988  12.1526371  88.8140215 108.3211801
   7.4370012  86.9124997 115.1749988   6.6970012  87.5104997 115.2789988
   8.1510012  87.4664997 114.8599988   7.4322237  87.0692831 115.1466465
  15.5440012  79.7404997 111.1949988  15.3280012  78.9744997 111.7279988
  16.1990012  80.2124997 111.7079988  15.6030632  79.6995889 111.3372861
   4.4610012  81.1284997 112.8399988   5.0750012  81.7614997 113.2129988
   4.9730012  80.6564997 112.1839988   4.6141981  81.1512267 112.8022908
   5.8440012  88.8764997 115.9619988   5.8390012  89.7564997 115.5839988
   4.9910012  88.7934997 116.3869988   5.7279464  88.9856117 115.9677907
   1.9650012  88.5474997 106.7439988   1.6930012  88.7764997 105.8559988
   2.0110012  89.3854997 107.2049988   1.9339482  88.6921318 106.6846273
  15.5900012  90.1694997 113.4569988  14.6490012  90.2274997 113.6189988
  15.8670012  91.0754997 113.3199988  15.4984679  90.2999443 113.4606815
  15.8910012  78.4554997 114.8749988  15.1550012  79.0664997 114.8369988
  16.5740012  78.8704997 114.3479988  15.8826541  78.5951374 114.7985832
   8.8940012  76.5424997 112.3399988   8.7770012  75.5934997 112.2859988
   8.0390012  76.8744997 112.6139988   8.7624212  76.4575571 112.3696497
  13.8420012  91.9504997 110.0819988  14.2680012  91.2434997 109.5969988
  14.1590012  92.7514997 109.6659988  13.9431683  91.9621017 109.9593680
  15.0020012  89.8514997 108.5909988  14.7440012  89.1614997 107.9799988
  15.0730012  89.4084997 109.4369988  14.9762856  89.6972124 108.6216885
  16.6880012  88.4174997 117.0679988  16.8280012  87.8264997 116.3289988
  16.8550012  89.2904997 116.7119988  16.7297411  88.4545428 116.9186894
  11.1610012  85.3794997 106.8409988  10.4490012  85.9144997 106.4889988
  11.8520012  85.4354997 106.1809988  11.1570132  85.4602543 106.7036289
  18.5300012  84.7574997 115.1339988  17.8770012  85.4524997 115.2239988
  18.9950012  84.9674997 114.3249988  18.5035274  84.8810643 115.0368462
  14.5660012  85.5894997 107.7929988  13.8340012  85.8174997 108.3659988
  15.0140012  84.8754997 108.2469988  14.5262725  85.5242145 107.9328816
  14.4640012  83.7634997 116.8599988  14.5440012  84.5264997 117.4319988
  13.8620012  84.0424997 116.1699988  14.3935756  83.9057134 116.8450589
   6.2120012  86.2194997 109.6749988   5.8810012  85.8494997 108.8569988
   6.8000012  85.5494997 110.0219988   6.2461873  86.0781156 109.6098102
   7.5780012  89.6474997 112.3559988   7.4840012  89.0694997 111.5999988
   8.3080012  89.2764997 112.8529988   7.6637387  89.5181663 112.3195342
   6.5780012  84.9884997 113.3089988   7.1440012  85.1094997 112.5459988
   6.8970012  85.6254997 113.9469988   6.6985474  85.0912219 113.2909862
  12.8870012  90.4914997 114.0429988  12.6470012  91.1534997 114.6909988
  12.6890012  89.6574997 114.4679988  12.8273808  90.4693134 114.1891524
   7.4580012  89.3874997 118.0259988   7.1470012  90.1694997 118.4809988
   6.8080012  89.2344997 117.3399988   7.3275558  89.4739105 117.9955871
  13.4370012  84.7514997 105.4779988  14.0170012  84.9014997 106.2249988
  13.8510012  85.2224997 104.7539988  13.5722997  84.8356578 105.4824058
   4.3780012  85.5854997 117.2539988   4.4490012  86.2364997 117.9529988
   3.4880012  85.6884997 116.9189988   4.2673005  85.6885427 117.3043495
  11.1640012  91.4884997 108.9129988  11.6380012  91.7834997 109.6899988
  10.6010012  92.2264997 108.6799988  11.1528184  91.6287247 108.9879628
   5.6980012  91.4594997 118.7889988   5.7050012  91.3234997 117.8419988
   4.7820012  91.3414997 119.0409988   5.5751714  91.4249430 118.6934666
   5.2020012  85.2894997 107.2639988   4.9100012  86.0574997 106.7739988
   4.5280012  84.6294997 107.1019988   5.0708111  85.3055587 107.1748978
  18.3250012  90.8674997 103.6669988  18.3990012  91.8064997 103.8379988
  19.2310012  90.5624997 103.6109988  18.4575100  90.9546722 103.6828119
   1.2950012  87.6524997 116.0789988   0.7940012  87.6244997 115.2639988
   1.3000012  86.7464997 116.3889988   1.2270944  87.5262396 116.0093226
   1.0450012  90.4324997 112.9629988   1.9910012  90.2884997 112.9439988
   0.9330012  91.2164997 113.4999988   1.1592727  90.5188046 113.0330072
  19.2430012  91.0984997 118.6459988  19.1940012  90.1434997 118.6089988
  18.4160012  91.3664997 119.0469988  19.1244940  91.0038998 118.6951375
  10.2220012  90.6724997 117.5219988  10.3090012  91.4984997 117.9969988
   9.3580012  90.3424997 117.7709988  10.1171964  90.7409878 117.6206549
  10.6360012  94.4444997 107.3279988  10.5610012  94.3234997 106.3809988
  10.6690012  95.3944997 107.4459988  10.6302068  94.5562646 107.2144967
   4.2890012  93.2334997 109.1089988   4.4420012  92.8854997 109.9869988
   3.4390012  92.8774997 108.8539988   4.1949166  93.1376216 109.1948079
  13.7380012  93.5984997 104.3299988  14.1130012  92.8544997 103.8589988
  13.7420012  93.3284997 105.2489988  13.7899125  93.4600986 104.3896483
  13.4070012  93.5244997 107.0789988  12.4710012  93.6244997 107.2579988
  13.6870012  92.8154997 107.6579988  13.3169553  93.4423406 107.1817087
  16.3950012  82.5914997 119.1259988  15.9880012  83.0724997 118.4049988
  16.4360012  81.6864997 118.8179988  16.3448437  82.5349374 118.9856683
   3.5440012  88.9754997 117.1229988   3.7600012  88.6144997 117.9819988
   2.6890012  88.6014997 116.9129988   3.4579292  88.8754111 117.2123386
   6.1630012  77.4454997 113.1179988   5.3010012  77.3584997 112.7099988
   6.1400012  78.3014997 113.5459988   6.0420409  77.5492883 113.1200589
  10.8260012  77.1674997 116.4929988  11.2460012  76.7524997 117.2459988
   9.8930012  76.9894997 116.6099988  10.7573644  77.0865900 116.6119539
  14.1520012  80.9234997 117.3459988  13.6380012  80.7974997 118.1439988
  13.9970012  81.8354997 117.1019988  14.0606852  81.0296132 117.4222158
   6.2540012  82.4114997 114.2129988   5.6120012  82.3704997 114.9219988
   6.2910012  83.3374997 113.9749988   6.1710664  82.5311430 114.2779219
   6.2510012  82.6324997 109.1249988   5.3580012  82.2914997 109.0659988
   6.7010012  82.2554997 108.3689988   6.1898130  82.5349631 109.0147702
  11.7860012  83.0484997 107.9419988  11.3770012  83.8634997 107.6509988
  12.5070012  82.9084997 107.3279988  11.8274537  83.1412018 107.8191342
  10.8880012  83.2234997 119.4299988  10.3260012  82.5194997 119.7509988
  11.7150012  83.1034997 119.8979988  10.9227095  83.1107883 119.5372330
  12.7910012  82.4944997 110.7559988  12.5960012  83.0994997 110.0409988
  12.9720012  81.6604997 110.3219988  12.7887614  82.4646300 110.5994405
   4.0040012  82.7314997 116.0799988   3.9660012  83.1314997 116.9489988
   3.5130012  81.9144997 116.1709988   3.9324684  82.6758069 116.2111059
   0.6120012  79.8474997 109.9309988   1.2430012  79.8184997 110.6499988
   1.0610012  79.4224997 109.1999988   0.7590918  79.7860836 109.9306441
   1.8860012  80.5934997 105.3549988   2.3600012  81.1844997 104.7699988
   1.1690012  81.1244997 105.7019988   1.8539341  80.7460867 105.3218836
  12.0550012  84.1324997 115.4269988  12.3780012  83.5014997 114.7839988
  11.6150012  83.5974997 116.0879988  12.0397484  83.9738387 115.4283198
   8.8320012  80.0594997 110.2109988   7.9210012  80.1164997 110.4999988
   9.3380012  79.9994997 111.0219988   8.7756899  80.0591941 110.3601184
   3.6610012  81.6884997 109.0379988   2.7710012  81.7884997 108.6979988
   3.9570012  80.8464997 108.6919988   3.5792823  81.5883545 108.9447213
   7.3140012  81.6884997 106.6949988   8.2450012  81.8174997 106.8729988
   7.0990012  82.3584997 106.0449988   7.4124247  81.7966565 106.6315747
  13.2370012  79.2944997 113.4759988  12.5610012  79.4254997 114.1399988
  12.7520012  79.1394997 112.6649988  13.0787146  79.2915157 113.4574469
  16.5250012  94.9664997 119.7519988  16.7250012  95.3904997 118.9179988
  17.1800012  95.3094997 120.3589988  16.6410072  95.0709857 119.7198592
   4.1230012  87.4404997 119.3599988   4.8550012  87.6944997 119.9219988
   3.3430012  87.6444997 119.8759988   4.1177073  87.5028160 119.5066151
  10.1520012  82.8474997 112.0979988  10.7170012  82.3004997 111.5509988
  10.0050012  82.3254997 112.8869988  10.2093380  82.7022259 112.1298695
   5.1540012  78.9834997 108.5169988   4.8370012  78.0814997 108.4809988
   5.9360012  78.9854997 107.9639988   5.2162408  78.8602474 108.4373569
   8.7790012  81.2354997 114.5119988   7.9430012  81.6894997 114.6229988
   9.3030012  81.5114997 115.2639988   8.7355416  81.3348660 114.6288119
   9.3230012  87.4484997 106.1969988   8.5780012  86.9414997 105.8749988
   9.1890012  87.4974997 107.1439988   9.2028776  87.3856940 106.2808647
  16.4730012  86.5814997 114.9839988  17.1150012  87.0384997 114.4399988
  15.6430012  86.6944997 114.5209988  16.4485963  86.6592704 114.8470177
  10.8420012  87.6324997 117.4339988  10.4970012  87.2514997 118.2409988
  10.6420012  88.5664997 117.5049988  10.7677527  87.7065135 117.5540689
  13.9390012  82.1294997 106.0569988  14.8310012  81.9924997 106.3759988
  13.9960012  82.9204997 105.5199988  14.0686504  82.2176052 106.0280818
   4.4480012  86.7434997 111.9669988   5.1930012  86.7414997 111.3659988
   4.5260012  85.9204997 112.4479988   4.5604995  86.6318887 111.9498282
  11.4490012  88.9074997 105.2229988  11.1530012  89.7334997 105.6039988
  10.7460012  88.2874997 105.4189988  11.3134914  88.9368199 105.3016443
   1.4560012  85.2044997 117.2819988   1.6790012  84.7864997 118.1139988
   0.8540012  84.5914997 116.8589988   1.4051759  85.0644668 117.3387022
   8.4720012  84.7214997 119.4949988   8.1760012  84.5554997 118.5999988
   9.4040012  84.5014997 119.4839988   8.5574166  84.6690640 119.3710536
  13.0930012  90.0944997 117.3849988  12.1920012  90.2774997 117.1169988
  13.1270012  90.3534997 118.3049988  12.9743139  90.1545849 117.4728099
  18.8240012  82.3394997 105.7519988  18.2700012  81.9434997 105.0799988
  18.9240012  83.2494997 105.4739988  18.7617059  82.4083586 105.6224401
  18.7870012  88.1394997 118.5889988  17.9360012  88.3774997 118.2219988
  19.3780012  88.1224997 117.8359988  18.7502487  88.1698258 118.4368893
  17.1190012  91.1254997 106.2169988  16.7460012  90.2994997 106.5259988
  17.3970012  90.9424997 105.3189988  17.1055222  90.9877430 106.1379473
  14.2800012  85.9334997 113.2379988  13.3510012  85.7014997 113.2109988
  14.7310012  85.1564997 112.9079988  14.2139216  85.7967238 113.1896917
   6.8230012  90.2614997 109.3709988   7.3500012  91.0344997 109.1709988
   5.9430012  90.4864997 109.0689988   6.7762031  90.3977545 109.3027912
   8.2500012  87.9244997 108.9469988   8.0090012  88.8494997 108.9889988
   7.5090012  87.4654997 109.3439988   8.1169225  87.9890933 109.0063742
   8.7650012  92.0734997 115.2629988   9.1270012  92.9284997 115.0289988
   9.2960012  91.7814997 116.0029988   8.8864473  92.1511060 115.3310855
   6.9330012  92.9464997 108.4929988   5.9830012  93.0514997 108.5439988
   7.2850012  93.7664997 108.8369988   6.8504195  93.0718800 108.5465502
  12.3090012  88.1724997 114.9629988  11.8830012  87.9454997 115.7899988
  12.8890012  87.4344997 114.7809988  12.3291868  88.0415299 115.0515830
  14.9670012  92.7244997 117.4329988  14.3660012  92.1694997 116.9369988
  15.2490012  93.3914997 116.8059988  14.9228804  92.7386625 117.2804849
   3.0900012  79.9574997 116.8399988   2.1970012  80.2964997 116.7719988
   2.9910012  79.1024997 117.2579988   2.9544164  79.8882588 116.8872235
  15.3780012  87.7744997 106.2639988  15.1000012  87.0464997 106.8199988
  16.3050012  87.8934997 106.4689988  15.4653124  87.6908802 106.3678845
   2.7410012  91.7624997 115.2749988   2.9580012  90.8304997 115.2439988
   2.9870012  92.0364997 116.1579988   2.8039549  91.6720636 115.3901763
   7.5400012  89.7834997 104.9399988   7.6860012  89.2634997 105.7299988
   7.5370012  90.6904997 105.2469988   7.5595792  89.8348842 105.0896117
   3.9930012  87.0364997 105.4509988   3.3070012  87.3884997 106.0179988
   4.5150012  87.7994997 105.2039988   3.9696852  87.1878578 105.4952118
  11.8240012  79.6984997 115.7299988  12.5230012  79.7724997 116.3799988
  11.4430012  78.8344997 115.8839988  11.8681767  79.5917624 115.8398322
  12.6090012  79.3504997 106.8269988  12.8290012  79.8224997 106.0239988
  13.1670012  79.7454997 107.4969988  12.7144968  79.4684285 106.8077331
  10.2770012  91.4814997 105.6899988   9.4610012  91.9784997 105.7419988
  10.8070012  91.9564997 105.0499988  10.2369161  91.6137722 105.6105956
   9.8090012  81.0784997 107.6619988  10.6210012  81.5834997 107.7079988
   9.5640012  80.9334997 108.5759988   9.8870520  81.1280375 107.7918517
  10.3440012  82.0644997 116.8459988  10.4630012  82.6384997 117.6039988
  11.0000012  81.3764997 116.9609988  10.4489025  82.0499858 116.9651321
  10.6920012  78.1594997 108.5999988  10.3460012  78.7774997 109.2439988
  11.3510012  78.6604997 108.1179988  10.7336968  78.3116278 108.6229383
   7.6160012  92.5254997 105.6709988   7.7760012  93.3244997 105.1709988
   7.4180012  92.8314997 106.5559988   7.6111637  92.6764020 105.7221144
   6.3500012  79.2224997 105.2869988   6.2670012  80.1114997 105.6339988
   7.2400012  78.9574997 105.5189988   6.4589469  79.3081430 105.3657626
  16.5490012  79.9714997 117.6809988  15.6320012  80.2344997 117.5939988
  16.8840012  79.9684997 116.7849988  16.4688613  80.0070761 117.5478837
  15.1510012  83.7224997 111.7769988  14.3530012  83.3074997 111.4489988
  15.5960012  83.0314997 112.2679988  15.1019885  83.5723543 111.7984889
   4.6090012  89.6504997 104.3479988   5.2010012  90.3494997 104.6239988
   5.0680012  89.2174997 103.6279988   4.7521142  89.6877049 104.2884830
   2.9250012  82.3144997 103.4639988   2.8800012  83.2534997 103.6419988
   2.0370012  82.0784997 103.1939988   2.7988574  82.4111892 103.4518912
  16.2370012  92.9784997 113.3999988  16.0820012  93.6564997 112.7419988
  17.1700012  93.0504997 113.6029988  16.3418657  93.0809546 113.3374360
   3.7330012  77.0964997 112.1369988   3.5040012  77.1554997 111.2089988
   3.2900012  76.3044997 112.4429988   3.6418530  76.9975753 112.0514786
   2.6630012  91.0364997 108.2969988   1.8310012  91.5094997 108.3239988
   3.2090012  91.5464997 107.6989988   2.6230352  91.1701332 108.2198463
   1.9510012  93.6494997 119.6269988   2.4920012  93.4324997 120.3869988
   1.4700012  92.8434997 119.4369988   1.9599951  93.5109270 119.7052576
   6.5490012  92.5684997 121.2469988   7.3160012  92.1094997 121.5879988
   6.5270012  92.3424997 120.3179988   6.6511275  92.4750186 121.1680101
  13.1260012  90.9484997 119.9769988  12.7750012  90.0924997 120.2199988
  13.8520012  91.0914997 120.5839988  13.1760769  90.8505636 120.0923619
  15.2450012  91.8934997 102.8559988  15.5280012  91.0994997 103.3089988
  15.9850012  92.1264997 102.2959988  15.3838006  91.8163376 102.8422715
   1.8580012  87.4594997 120.5809988   2.0020012  86.5574997 120.2949988
   1.0860012  87.7454997 120.0939988   1.7732753  87.3746816 120.4759505
   8.5140012  87.4294997 120.0139988   8.1850012  87.7004997 119.1569988
   8.6660012  86.4884997 119.9269988   8.4894809  87.3393862 119.8848244
  14.2480012  87.3454997 117.3969988  14.9940012  87.9334997 117.2779988
  13.4910012  87.9274997 117.4609988  14.2477820  87.5047143 117.3893590
   2.6910012  84.6594997 120.0009988   3.0990012  83.8024997 119.8799988
   2.4310012  84.6744997 120.9219988   2.7117568  84.5440807 120.1089588
   7.3490012  85.7754997 105.0199988   6.8890012  85.2914997 105.7059988
   7.6040012  85.1074997 104.3839988   7.3204902  85.6188731 105.0279334
   6.6380012  83.6684997 117.3759988   6.0200012  84.3434997 117.6559988
   6.9820012  83.9894997 116.5419988   6.5999132  83.8042411 117.3016262
  11.6580012  86.1404997 120.6529988  12.6110012  86.2234997 120.6259988
  11.4970012  85.4284997 121.2729988  11.7666426  86.0556746 120.7330579
   6.9770012  81.0234997 118.4579988   7.1270012  80.2944997 117.8559988
   6.9800012  81.8004997 117.8989988   6.9979302  81.0287851 118.3000692
   7.3900012  79.3934997 115.9509988   7.9260012  79.8444997 115.2989988
   6.5380012  79.2854997 115.5279988   7.3482178  79.4406390 115.8045756
   8.9720012  84.8324997 116.1899988   9.7220012  84.6764997 115.6169988
   8.6330012  85.6844997 115.9149988   9.0288921  84.9262968 116.0743561
  13.3870012  82.6474997 121.2189988  13.5800012  81.7164997 121.1069988
  14.2450012  83.0724997 121.2079988  13.5292934  82.5776531 121.2022031
  14.7040012  85.4364997 119.2959988  14.4230012  86.1454997 118.7179988
  15.6470012  85.3634997 119.1449988  14.7929291  85.5236711 119.1964967
   5.4560012  82.2214997 120.3699988   4.6890012  81.6894997 120.1589988
   6.1350012  81.9114997 119.7699988   5.4427877  82.1068300 120.2600716
   8.1960012  76.8494997 116.3819988   8.0970012  77.7964997 116.2769988
   7.4530012  76.4774997 115.9059988   8.0821184  76.9285863 116.3033621
   9.4600012  81.1714997 119.9459988   9.2240012  80.9514997 120.8469988
   8.6760012  80.9644997 119.4359988   9.3218504  81.1134586 120.0003431
  12.1750012  80.2984997 119.0209988  11.2280012  80.3304997 119.1539988
  12.4880012  79.6734997 119.6749988  12.0876707  80.2183998 119.1276060
  13.8090012  78.9324997 121.0269988  13.7130012  77.9804997 121.0209988
  13.4880012  79.2014997 121.8869988  13.7524070  78.8384035 121.1425441
   3.6360012  80.1424997 120.0739988   3.8480012  79.4354997 119.4639988
   3.5250012  79.7044997 120.9179988   3.6499721  79.9867084 120.1046843
   8.4170012  76.1434997 119.0529988   9.1290012  75.5034997 119.0389988
   8.3160012  76.4104997 118.1399988   8.5008066  76.0920079 118.9275677
   8.7710012  77.8264997 121.1069988   8.6390012  77.3504997 120.2869988
   8.1720012  78.5704997 121.0519988   8.6719071  77.8619618 120.9872886
   8.3170012  94.7094997 104.2829988   9.2500012  94.8674997 104.4269988
   8.0530012  95.3844997 103.6589988   8.4089888  94.8224510 104.2182842
   0.5350012  94.7384997 108.8439988  -0.1119988  94.2764997 108.3109988
   0.8890012  94.0664997 109.4259988   0.4943849  94.5844723 108.8497959
   1.4050012  92.8194997 110.6479988   1.0700012  91.9394997 110.8199988
   1.6270012  93.1644997 111.5129988   1.3891783  92.7457501 110.7884208
  18.9530012  93.6284997 113.6289988  18.9320012  93.8134997 114.5679988
  19.6440012  94.1974997 113.2879988  19.0434618  93.7306606 113.7113864
  18.5170012  93.1964997 116.5509988  18.0290012  92.4604997 116.1789988
  19.0660012  92.8024997 117.2289988  18.5244820  93.0425889 116.5917813
  16.9670012  88.9854997 121.1889988  16.1010012  88.8804997 121.5829988
  17.3440012  89.7444997 121.6349988  16.8993308  89.0736900 121.3032393
  18.2680012  87.2424997 106.7029988  19.1180012  87.6634997 106.8299988
  18.2740012  86.5024997 107.3099988  18.3851372  87.2000803 106.8024344
  18.6630012  85.2954997 108.5259988  17.9360012  84.8164997 108.9239988
  19.2440012  85.5014997 109.2589988  18.6420473  85.2578103 108.6794528
  18.4220012  88.0804997 113.4739988  19.2550012  87.7024997 113.1939988
  18.5340012  89.0234997 113.3549988  18.5512647  88.1562218 113.4195487
  16.9080012  90.9584997 115.7809988  16.2610012  91.2834997 116.4069988
  16.3910012  90.5184997 115.1069988  16.7494029  90.9435004 115.7755827
  16.4490012  83.8164997 109.0889988  16.2990012  82.8714997 109.0689988
  16.0960012  84.0974997 109.9329988  16.3807448  83.7251481 109.2003705
   1.4850012  85.8944997 113.0999988   1.6690012  85.8124997 112.1639988
   2.3340012  85.7704997 113.5229988   1.6250151  85.8665073 113.0291451
  17.3060012  85.7864997 118.7279988  17.8890012  85.0524997 118.9199988
  17.8700012  86.5584997 118.7749988  17.4619769  85.7904227 118.7606159
  18.8020012  83.6894997 119.4129988  17.9390012  83.3104997 119.2469988
  19.4070012  82.9504997 119.3379988  18.7656119  83.5378268 119.3801528
  16.1600012  81.3994997 107.5519988  16.4400012  80.4924997 107.6759988
  16.9190012  81.8334997 107.1629988  16.3009277  81.3340942 107.5163682
  16.7720012  81.9804997 112.9879988  17.7050012  82.1924997 112.9529988
  16.5370012  82.0824997 113.9099988  16.8679244  82.0233100 113.1078892
  16.8010012  82.7174997 115.7639988  15.9580012  82.9854997 116.1299988
  17.2430012  83.5394997 115.5529988  16.7454158  82.8653291 115.7855491
   1.0820012  81.1654997 119.2409988   2.0020012  81.0434997 119.4769988
   0.6330012  80.4154997 119.6299988   1.1471580  81.0473727 119.3259006
  19.0840012  76.6974997 121.1169988  19.4340012  76.0434997 120.5119988
  19.2310012  77.5344997 120.6769988  19.1517887  76.7211548 120.9746858
  16.7730012  78.6624997 107.5999988  16.9560012  78.2134997 108.4259988
  16.1740012  78.0774997 107.1369988  16.7170202  78.5219975 107.6503275
   2.3030012  79.4774997 112.1319988   2.7490012  78.6854997 112.4339988
   2.7700012  80.1934997 112.5619988   2.4270831  79.4660685 112.2314006
   0.6070012  82.4764997 113.2009988   1.0990012  82.2554997 112.4099988
   0.9700012  83.3174997 113.4819988   0.7233126  82.5598357 113.1307531
  18.6040012  78.8064997 119.4659988  17.6860012  79.0774997 119.4309988
  18.7270012  78.2714997 118.6819988  18.4949730  78.7712508 119.3551923
   0.9210012  78.7344997 107.2549988  -0.0039988  78.9434997 107.1259988
   1.3750012  79.2184997 106.5649988   0.8557292  78.8285343 107.1440720
  15.6920012  93.7184997 109.2009988  16.3440012  93.3714997 108.5929988
  16.2020012  94.2074997 109.8469988  15.8502637  93.7370597 109.2050236
   0.8850012  77.4724997 115.5989988   0.2200012  77.2264997 116.2429988
   0.4420012  78.0944997 115.0219988   0.7341318  77.5229410 115.6090898
   3.0770012  90.6474997 119.7439988   2.2560012  90.8224997 119.2829988
   2.8240012  90.5744997 120.6639988   2.9305585  90.6615544 119.8053561
   6.0310012  91.6224997 116.0019988   5.6060012  92.4314997 115.7199988
   6.9350012  91.7074997 115.6999988   6.0949975  91.7449300 115.9224816
  10.3420012  93.0214997 118.9619988  10.5270012  92.6874997 119.8399988
  11.1880012  93.3304997 118.6399988  10.4817539  93.0176047 119.0385605
  12.6870012  94.3074997 118.2059988  13.3640012  93.6744997 117.9659988
  13.0090012  94.7084997 119.0129988  12.8231637  94.2751154 118.2822793
  17.6040012  76.8964997 117.2849988  16.7920012  77.2214997 116.8979988
  17.8370012  76.1364997 116.7519988  17.5242203  76.8382758 117.1598880
   3.4330012  94.8784997 116.0499988   2.7120012  95.3184997 115.5989988
   3.0670012  94.6274997 116.8979988   3.2849651  94.9047242 116.1029640
   5.9000012  94.4784997 115.0799988   5.0350012  94.5504997 115.4839988
   5.8450012  95.0254997 114.2959988   5.7742085  94.5622685 115.0293362
  10.6100012  94.3664997 114.2549988  10.1540012  94.8954997 113.6009988
  10.7730012  94.9694997 114.9799988  10.5696068  94.5204607 114.2634838
  12.9380012  93.2444997 115.1999988  12.0330012  93.4094997 114.9339988
  13.3670012  94.0974997 115.1349988  12.8721324  93.3824339 115.1547976
  15.5420012  94.8144997 115.4949988  15.3600012  95.7304997 115.2849988
  15.7190012  94.4044997 114.6489988  15.5410210  94.8844822 115.3517885
   2.8470012  93.5014997 112.9599988   2.8290012  93.0764997 113.8169988
   3.6520012  93.1834997 112.5509988   2.9533529  93.4003013 113.0220946
   4.9890012  92.2114997 111.6149988   4.7700012  91.2954997 111.7849988
   5.8130012  92.3514997 112.0809988   5.0704420  92.1050520 111.7012774
   7.5260012  92.6814997 112.4639988   7.7390012  91.7934997 112.1769988
   7.5900012  92.6474997 113.4179988   7.5638232  92.5553102 112.5537397
  11.0340012  78.3454997 111.6079988  10.3600012  77.7164997 111.8639988
  11.5980012  77.8614997 111.0049988  11.0179230  78.1938744 111.5615340
  16.1770012  76.4534997 111.7209988  16.7810012  77.0004997 111.2189988
  15.3070012  76.7724997 111.4799988  16.1421208  76.5715137 111.6196886
  17.9040012  77.5914997 110.0539988  18.5160012  77.0774997 109.5269988
  18.2860012  78.4694997 110.0769988  18.0393371  77.6397866 109.9850041
   3.3610012  76.9794997 109.4299988   2.5840012  76.7454997 108.9229988
   3.8910012  76.1824997 109.4389988   3.3262330  76.8396988 109.3617742
   2.1970012  76.7774997 105.2339988   2.6360012  77.3884997 104.6419988
   1.5640012  77.3154997 105.7079988   2.1714514  76.9339257 105.2170930
   7.9400012  76.9064997 109.2439988   8.8150012  77.2944997 109.2139988
   7.8040012  76.6914997 110.1659988   8.0413695  76.9305184 109.3646440
  13.4970012  76.9364997 110.8929988  13.5730012  77.0314997 109.9429988
  13.2220012  76.0284997 111.0219988  13.4702321  76.8267867 110.7805079
  14.8500012  76.9624997 106.5849988  14.1480012  77.5774997 106.3749988
  14.4060012  76.1244997 106.7159988  14.6936450  76.9335639 106.5739000
   2.0980012  92.7254997 106.1309988   1.4130012  92.6874997 105.4639988
   2.1020012  93.6384997 106.4199988   2.0046998  92.8436733 106.0786771
   9.0840012  78.9864997 106.1329988   9.2620012  78.3404997 106.8159988
   9.0310012  79.8204997 106.5999988   9.1011999  79.0108009 106.2895917
  10.9630012  93.9354997 104.5289988  11.8290012  94.3014997 104.3509988
  10.7160012  93.4954997 103.7149988  11.0482392  93.9261756 104.3946289
  17.6720012  93.4984997 107.2079988  17.4770012  92.7504997 106.6429988
  17.6330012  94.2564997 106.6249988  17.6400380  93.4986099 107.0518384
   3.3190012  77.4934997 118.9479988   2.9530012  76.7284997 119.3899988
   4.2320012  77.5224997 119.2339988   3.3922736  77.3925640 119.0472502
   5.2920012  76.8444997 120.4839988   6.1900012  76.5704997 120.2989988
   4.9050012  76.1014997 120.9479988   5.3626612  76.7065914 120.5213643
  13.7130012  76.1764997 120.6659988  13.7900012  75.7504997 121.5199988
  14.6070012  76.1904997 120.3229988  13.8443428  76.1200879 120.7365310
  16.8890012  92.2494997 119.3579988  16.1070012  92.0634997 118.8379988
  16.8170012  93.1784997 119.5759988  16.7722274  92.3496643 119.3163018
  31.2950012  86.1354997 109.3889988  31.3840012  87.0794997 109.2569988
  30.6570012  85.8604997 108.7309988  31.2209081  86.2274830 109.2819614
  30.2280012  85.3904997 112.8079988  30.1900012  84.7444997 113.5129988
  29.9060012  84.9244997 112.0369988  30.1792333  85.2389408 112.8002978
  22.5970012  85.0054997 114.4009988  22.6380012  84.3794997 115.1239988
  23.3000012  85.6294997 114.5829988  22.6976363  85.0041196 114.5246044
  33.9340012  88.3294997 111.1089988  33.4940012  87.6094997 111.5599988
  33.9210012  89.0504997 111.7389988  33.8720226  88.3283731 111.2558494
  23.5200012  89.4554997 112.9359988  23.1510012  88.6534997 112.5659988
  24.4610012  89.2864997 112.9819988  23.5967289  89.3230153 112.8916316
  20.1300012  83.1154997 108.3289988  19.6830012  83.9614997 108.3099988
  19.5690012  82.5354997 107.8129988  19.9929900  83.1529916 108.2566801
  20.8410012  85.2774997 110.4539988  21.0540012  84.5074997 110.9819988
  21.5790012  85.3664997 109.8509988  20.9699044  85.1841968 110.4447123
  31.0460012  93.4344997 111.3209988  31.6660012  92.7574997 111.0479988
  30.8380012  93.2164997 112.2299988  31.1026726  93.3124800 111.4064812
  28.6180012  87.8234997 113.2139988  28.9220012  87.1374997 112.6189988
  29.3390012  87.9414997 113.8319988  28.7570671  87.7456304 113.2161816
  37.2810012  79.4244997 114.0749988  37.3300012  80.0344997 114.8099988
  37.7060012  79.8854997 113.3519988  37.3451746  79.5703796 114.0779175
  31.7590012  82.2174997 113.5409988  31.9010012  81.2714997 113.5619988
  31.6520012  82.4244997 112.6129988  31.7639919  82.1158246 113.4183408
  24.9130012  80.3184997 110.8139988  24.9570012  81.1784997 110.3949988
  24.4560012  79.7664997 110.1799988  24.8572240  80.3614422 110.6709864
  32.6360012  80.4494997 109.2149988  33.2820012  80.1204997 109.8389988
  33.1460012  80.9674997 108.5919988  32.7934299  80.4744450 109.2162731
  21.5340012  82.7154997 111.5759988  22.1870012  82.1654997 112.0079988
  21.5580012  82.4414997 110.6589988  21.6266683  82.6031466 111.5112123
  26.6900012  84.2654997 110.7909988  27.3060012  83.7394997 111.3009988
  26.1040012  83.6254997 110.3879988  26.6950810  84.1069208 110.8063173
  37.6720012  80.9024997 116.3099988  36.9840012  81.5604997 116.2149988
  37.6880012  80.7054997 117.2469988  37.5799540  80.9659819 116.4235990
  23.7240012  79.2364997 114.8879988  23.5050012  79.7664997 114.1219988
  23.0560012  79.4634997 115.5349988  23.6037600  79.3396906 114.8706379
  31.0930012  88.7364997 108.4319988  30.7970012  88.4144997 107.5809988
  30.7680012  89.6364997 108.4729988  31.0086371  88.8140215 108.3211801
  26.2930012  86.9124997 115.1749988  25.5530012  87.5104997 115.2789988
  27.0070012  87.4664997 114.8599988  26.2882237  87.0692831 115.1466465
  34.4000012  79.7404997 111.1949988  34.1840012  78.9744997 111.7279988
  35.0550012  80.2124997 111.7079988  34.4590632  79.6995889 111.3372861
  23.3170012  81.1284997 112.8399988  23.9310012  81.7614997 113.2129988
  23.8290012  80.6564997 112.1839988  23.4701981  81.1512267 112.8022908
  24.7000012  88.8764997 115.9619988  24.6950012  89.7564997 115.5839988
  23.8470012  88.7934997 116.3869988  24.5839464  88.9856117 115.9677907
  20.8210012  88.5474997 106.7439988  20.5490012  88.7764997 105.8559988
  20.8670012  89.3854997 107.2049988  20.7899482  88.6921318 106.6846273
  34.4460012  90.1694997 113.4569988  33.5050012  90.2274997 113.6189988
  34.7230012  91.0754997 113.3199988  34.3544679  90.2999443 113.4606815
  34.7470012  78.4554997 114.8749988  34.0110012  79.0664997 114.8369988
  35.4300012  78.8704997 114.3479988  34.7386541  78.5951374 114.7985832
  27.7500012  76.5424997 112.3399988  27.6330012  75.5934997 112.2859988
  26.8950012  76.8744997 112.6139988  27.6184212  76.4575571 112.3696497
  32.6980012  91.9504997 110.0819988  33.1240012  91.2434997 109.5969988
  33.0150012  92.7514997 109.6659988  32.7991683  91.9621017 109.9593680
  33.8580012  89.8514997 108.5909988  33.6000012  89.1614997 107.9799988
  33.9290012  89.4084997 109.4369988  33.8322856  89.6972124 108.6216885
  35.5440012  88.4174997 117.0679988  35.6840012  87.8264997 116.3289988
  35.7110012  89.2904997 116.7119988  35.5857411  88.4545428 116.9186894
  30.0170012  85.3794997 106.8409988  29.3050012  85.9144997 106.4889988
  30.7080012  85.4354997 106.1809988  30.0130132  85.4602543 106.7036289
  30.0700012  83.8374997 103.8799988  30.7710012  83.8594997 104.5309988
  30.3730012  83.2094997 103.2229988  30.2068133  83.7557070 103.8803369
  37.3860012  84.7574997 115.1339988  36.7330012  85.4524997 115.2239988
  37.8510012  84.9674997 114.3249988  37.3595274  84.8810643 115.0368462
  33.4220012  85.5894997 107.7929988  32.6900012  85.8174997 108.3659988
  33.8700012  84.8754997 108.2469988  33.3822725  85.5242145 107.9328816
  33.3200012  83.7634997 116.8599988  33.4000012  84.5264997 117.4319988
  32.7180012  84.0424997 116.1699988  33.2495756  83.9057134 116.8450589
  25.0680012  86.2194997 109.6749988  24.7370012  85.8494997 108.8569988
  25.6560012  85.5494997 110.0219988  25.1021873  86.0781156 109.6098102
  26.4340012  89.6474997 112.3559988  26.3400012  89.0694997 111.5999988
  27.1640012  89.2764997 112.8529988  26.5197386  89.5181663 112.3195342
  25.4340012  84.9884997 113.3089988  26.0000012  85.1094997 112.5459988
  25.7530012  85.6254997 113.9469988  25.5545474  85.0912219 113.2909862
  31.7430012  90.4914997 114.0429988  31.5030012  91.1534997 114.6909988
  31.5450012  89.6574997 114.4679988  31.6833808  90.4693134 114.1891524
  26.3140012  89.3874997 118.0259988  26.0030012  90.1694997 118.4809988
  25.6640012  89.2344997 117.3399988  26.1835558  89.4739105 117.9955871
  32.2930012  84.7514997 105.4779988  32.8730012  84.9014997 106.2249988
  32.7070012  85.2224997 104.7539988  32.4282997  84.8356578 105.4824058
  23.2340012  85.5854997 117.2539988  23.3050012  86.2364997 117.9529988
  22.3440012  85.6884997 116.9189988  23.1233005  85.6885427 117.3043495
  30.0200012  91.4884997 108.9129988  30.4940012  91.7834997 109.6899988
  29.4570012  92.2264997 108.6799988  30.0088184  91.6287247 108.9879628
  24.5540012  91.4594997 118.7889988  24.5610012  91.3234997 117.8419988
  23.6380012  91.3414997 119.0409988  24.4311714  91.4249430 118.6934666
  35.9920012  76.5014997 105.2909988  35.0920012  76.6404997 105.5859988
  36.2440012  77.3324997 104.8889988  35.9028702  76.6329074 105.2770205
  24.0580012  85.2894997 107.2639988  23.7660012  86.0574997 106.7739988
  23.3840012  84.6294997 107.1019988  23.9268111  85.3055587 107.1748978
  20.1510012  87.6524997 116.0789988  19.6500012  87.6244997 115.2639988
  20.1560012  86.7464997 116.3889988  20.0830944  87.5262396 116.0093226
  19.9010012  90.4324997 112.9629988  20.8470012  90.2884997 112.9439988
  19.7890012  91.2164997 113.4999988  20.0152727  90.5188046 113.0330072
  38.0990012  91.0984997 118.6459988  38.0500012  90.1434997 118.6089988
  37.2720012  91.3664997 119.0469988  37.9804940  91.0038998 118.6951375
  29.0780012  90.6724997 117.5219988  29.1650012  91.4984997 117.9969988
  28.2140012  90.3424997 117.7709988  28.9731964  90.7409878 117.6206549
  29.4920012  94.4444997 107.3279988  29.4170012  94.3234997 106.3809988
  29.5250012  95.3944997 107.4459988  29.4862068  94.5562646 107.2144967
  23.1450012  93.2334997 109.1089988  23.2980012  92.8854997 109.9869988
  22.2950012  92.8774997 108.8539988  23.0509166  93.1376216 109.1948079
  32.5940012  93.5984997 104.3299988  32.9690012  92.8544997 103.8589988
  32.5980012  93.3284997 105.2489988  32.6459125  93.4600986 104.3896483
  32.2630012  93.5244997 107.0789988  31.3270012  93.6244997 107.2579988
  32.5430012  92.8154997 107.6579988  32.1729553  93.4423406 107.1817087
  35.2510012  82.5914997 119.1259988  34.8440012  83.0724997 118.4049988
  35.2920012  81.6864997 118.8179988  35.2008437  82.5349374 118.9856683
  22.4000012  88.9754997 117.1229988  22.6160012  88.6144997 117.9819988
  21.5450012  88.6014997 116.9129988  22.3139292  88.8754111 117.2123386
  25.0190012  77.4454997 113.1179988  24.1570012  77.3584997 112.7099988
  24.9960012  78.3014997 113.5459988  24.8980409  77.5492883 113.1200589
  29.6820012  77.1674997 116.4929988  30.1020012  76.7524997 117.2459988
  28.7490012  76.9894997 116.6099988  29.6133644  77.0865900 116.6119539
  33.0080012  80.9234997 117.3459988  32.4940012  80.7974997 118.1439988
  32.8530012  81.8354997 117.1019988  32.9166852  81.0296132 117.4222158
  25.1100012  82.4114997 114.2129988  24.4680012  82.3704997 114.9219988
  25.1470012  83.3374997 113.9749988  25.0270664  82.5311430 114.2779219
  25.1070012  82.6324997 109.1249988  24.2140012  82.2914997 109.0659988
  25.5570012  82.2554997 108.3689988  25.0458130  82.5349631 109.0147702
  30.6420012  83.0484997 107.9419988  30.2330012  83.8634997 107.6509988
  31.3630012  82.9084997 107.3279988  30.6834537  83.1412018 107.8191342
  29.7440012  83.2234997 119.4299988  29.1820012  82.5194997 119.7509988
  30.5710012  83.1034997 119.8979988  29.7787095  83.1107883 119.5372330
  31.6470012  82.4944997 110.7559988  31.4520012  83.0994997 110.0409988
  31.8280012  81.6604997 110.3219988  31.6447614  82.4646300 110.5994405
  22.8600012  82.7314997 116.0799988  22.8220012  83.1314997 116.9489988
  22.3690012  81.9144997 116.1709988  22.7884684  82.6758069 116.2111059
  19.4680012  79.8474997 109.9309988  20.0990012  79.8184997 110.6499988
  19.9170012  79.4224997 109.1999988  19.6150918  79.7860836 109.9306441
  20.7420012  80.5934997 105.3549988  21.2160012  81.1844997 104.7699988
  20.0250012  81.1244997 105.7019988  20.7099341  80.7460867 105.3218836
  30.9110012  84.1324997 115.4269988  31.2340012  83.5014997 114.7839988
  30.4710012  83.5974997 116.0879988  30.8957484  83.9738387 115.4283198
  27.6880012  80.0594997 110.2109988  26.7770012  80.1164997 110.4999988
  28.1940012  79.9994997 111.0219988  27.6316899  80.0591941 110.3601184
  22.5170012  81.6884997 109.0379988  21.6270012  81.7884997 108.6979988
  22.8130012  80.8464997 108.6919988  22.4352823  81.5883545 108.9447213
  26.1700012  81.6884997 106.6949988  27.1010012  81.8174997 106.8729988
  25.9550012  82.3584997 106.0449988  26.2684247  81.7966565 106.6315747
  32.0930012  79.2944997 113.4759988  31.4170012  79.4254997 114.1399988
  31.6080012  79.1394997 112.6649988  31.9347146  79.2915157 113.4574469
  24.8440012  82.8834997 104.2609988  24.3010012  82.5034997 103.5699988
  25.6770012  83.0774997 103.8329988  24.8823631  82.8577125 104.1084501
  35.3810012  94.9664997 119.7519988  35.5810012  95.3904997 118.9179988
  36.0360012  95.3094997 120.3589988  35.4970072  95.0709857 119.7198592
  22.9790012  87.4404997 119.3599988  23.7110012  87.6944997 119.9219988
  22.1990012  87.6444997 119.8759988  22.9737073  87.5028160 119.5066151
  29.0080012  82.8474997 112.0979988  29.5730012  82.3004997 111.5509988
  28.8610012  82.3254997 112.8869988  29.0653380  82.7022259 112.1298695
  24.0100012  78.9834997 108.5169988  23.6930012  78.0814997 108.4809988
  24.7920012  78.9854997 107.9639988  24.0722408  78.8602474 108.4373569
  27.6350012  81.2354997 114.5119988  26.7990012  81.6894997 114.6229988
  28.1590012  81.5114997 115.2639988  27.5915416  81.3348660 114.6288119
  28.1790012  87.4484997 106.1969988  27.4340012  86.9414997 105.8749988
  28.0450012  87.4974997 107.1439988  28.0588776  87.3856940 106.2808647
  35.3290012  86.5814997 114.9839988  35.9710012  87.0384997 114.4399988
  34.4990012  86.6944997 114.5209988  35.3045963  86.6592704 114.8470177
  32.0770012  80.2624997 104.3959988  31.1380012  80.3744997 104.2449988
  32.3740012  81.1194997 104.7029988  31.9887583  80.3935981 104.4168337
  29.6980012  87.6324997 117.4339988  29.3530012  87.2514997 118.2409988
  29.4980012  88.5664997 117.5049988  29.6237527  87.7065135 117.5540689
  32.7950012  82.1294997 106.0569988  33.6870012  81.9924997 106.3759988
  32.8520012  82.9204997 105.5199988  32.9246504  82.2176052 106.0280818
  23.3040012  86.7434997 111.9669988  24.0490012  86.7414997 111.3659988
  23.3820012  85.9204997 112.4479988  23.4164995  86.6318887 111.9498282
  30.3050012  88.9074997 105.2229988  30.0090012  89.7334997 105.6039988
  29.6020012  88.2874997 105.4189988  30.1694914  88.9368199 105.3016443
  20.3120012  85.2044997 117.2819988  20.5350012  84.7864997 118.1139988
  19.7100012  84.5914997 116.8589988  20.2611759  85.0644668 117.3387022
  27.3280012  84.7214997 119.4949988  27.0320012  84.5554997 118.5999988
  28.2600012  84.5014997 119.4839988  27.4134166  84.6690640 119.3710536
  31.9490012  90.0944997 117.3849988  31.0480012  90.2774997 117.1169988
  31.9830012  90.3534997 118.3049988  31.8303139  90.1545849 117.4728099
  37.6800012  82.3394997 105.7519988  37.1260012  81.9434997 105.0799988
  37.7800012  83.2494997 105.4739988  37.6177059  82.4083586 105.6224401
  37.6430012  88.1394997 118.5889988  36.7920012  88.3774997 118.2219988
  38.2340012  88.1224997 117.8359988  37.6062487  88.1698258 118.4368893
  35.9750012  91.1254997 106.2169988  35.6020012  90.2994997 106.5259988
  36.2530012  90.9424997 105.3189988  35.9615222  90.9877430 106.1379473
  33.1360012  85.9334997 113.2379988  32.2070012  85.7014997 113.2109988
  33.5870012  85.1564997 112.9079988  33.0699216  85.7967238 113.1896917
  25.6790012  90.2614997 109.3709988  26.2060012  91.0344997 109.1709988
  24.7990012  90.4864997 109.0689988  25.6322031  90.3977545 109.3027912
  27.1060012  87.9244997 108.9469988  26.8650012  88.8494997 108.9889988
  26.3650012  87.4654997 109.3439988  26.9729225  87.9890933 109.0063742
  27.6210012  92.0734997 115.2629988  27.9830012  92.9284997 115.0289988
  28.1520012  91.7814997 116.0029988  27.7424473  92.1511060 115.3310855
  25.7890012  92.9464997 108.4929988  24.8390012  93.0514997 108.5439988
  26.1410012  93.7664997 108.8369988  25.7064195  93.0718800 108.5465502
  31.1650012  88.1724997 114.9629988  30.7390012  87.9454997 115.7899988
  31.7450012  87.4344997 114.7809988  31.1851868  88.0415299 115.0515830
  33.3680012  89.1014997 104.0369988  33.7210012  88.7214997 104.8409988
  32.4190012  89.0084997 104.1239988  33.2880918  89.0368956 104.1588532
  33.8230012  92.7244997 117.4329988  33.2220012  92.1694997 116.9369988
  34.1050012  93.3914997 116.8059988  33.7788804  92.7386625 117.2804849
  21.9460012  79.9574997 116.8399988  21.0530012  80.2964997 116.7719988
  21.8470012  79.1024997 117.2579988  21.8104164  79.8882588 116.8872235
  21.5970012  91.7624997 115.2749988  21.8140012  90.8304997 115.2439988
  21.8430012  92.0364997 116.1579988  21.6599549  91.6720636 115.3901763
  30.6800012  79.6984997 115.7299988  31.3790012  79.7724997 116.3799988
  30.2990012  78.8344997 115.8839988  30.7241767  79.5917624 115.8398322
  31.4650012  79.3504997 106.8269988  31.6850012  79.8224997 106.0239988
  32.0230012  79.7454997 107.4969988  31.5704968  79.4684285 106.8077331
  29.1330012  91.4814997 105.6899988  28.3170012  91.9784997 105.7419988
  29.6630012  91.9564997 105.0499988  29.0929161  91.6137722 105.6105956
  28.6650012  81.0784997 107.6619988  29.4770012  81.5834997 107.7079988
  28.4200012  80.9334997 108.5759988  28.7430520  81.1280375 107.7918517
  29.2000012  82.0644997 116.8459988  29.3190012  82.6384997 117.6039988
  29.8560012  81.3764997 116.9609988  29.3049025  82.0499858 116.9651321
  29.5480012  78.1594997 108.5999988  29.2020012  78.7774997 109.2439988
  30.2070012  78.6604997 108.1179988  29.5896968  78.3116278 108.6229383
  26.4720012  92.5254997 105.6709988  26.6320012  93.3244997 105.1709988
  26.2740012  92.8314997 106.5559988  26.4671637  92.6764020 105.7221144
  25.2060012  79.2224997 105.2869988  25.1230012  80.1114997 105.6339988
  26.0960012  78.9574997 105.5189988  25.3149469  79.3081430 105.3657626
  35.4050012  79.9714997 117.6809988  34.4880012  80.2344997 117.5939988
  35.7400012  79.9684997 116.7849988  35.3248613  80.0070761 117.5478837
  34.0070012  83.7224997 111.7769988  33.2090012  83.3074997 111.4489988
  34.4520012  83.0314997 112.2679988  33.9579885  83.5723543 111.7984889
  23.4650012  89.6504997 104.3479988  24.0570012  90.3494997 104.6239988
  23.9240012  89.2174997 103.6279988  23.6081142  89.6877049 104.2884830
  21.7810012  82.3144997 103.4639988  21.7360012  83.2534997 103.6419988
  20.8930012  82.0784997 103.1939988  21.6548574  82.4111892 103.4518912
  35.0930012  92.9784997 113.3999988  34.9380012  93.6564997 112.7419988
  36.0260012  93.0504997 113.6029988  35.1978657  93.0809546 113.3374360
  22.5890012  77.0964997 112.1369988  22.3600012  77.1554997 111.2089988
  22.1460012  76.3044997 112.4429988  22.4978530  76.9975753 112.0514786
  21.5190012  91.0364997 108.2969988  20.6870012  91.5094997 108.3239988
  22.0650012  91.5464997 107.6989988  21.4790352  91.1701332 108.2198463
  20.8070012  93.6494997 119.6269988  21.3480012  93.4324997 120.3869988
  20.3260012  92.8434997 119.4369988  20.8159951  93.5109270 119.7052576
  25.4050012  92.5684997 121.2469988  26.1720012  92.1094997 121.5879988
  25.3830012  92.3424997 120.3179988  25.5071275  92.4750186 121.1680101
  31.9820012  90.9484997 119.9769988  31.6310012  90.0924997 120.2199988
  32.7080012  91.0914997 120.5839988  32.0320769  90.8505636 120.0923619
  20.7140012  87.4594997 120.5809988  20.8580012  86.5574997 120.2949988
  19.9420012  87.7454997 120.0939988  20.6292753  87.3746816 120.4759505
  27.3700012  87.4294997 120.0139988  27.0410012  87.7004997 119.1569988
  27.5220012  86.4884997 119.9269988  27.3454809  87.3393862 119.8848244
  33.1040012  87.3454997 117.3969988  33.8500012  87.9334997 117.2779988
  32.3470012  87.9274997 117.4609988  33.1037820  87.5047143 117.3893590
  21.5470012  84.6594997 120.0009988  21.9550012  83.8024997 119.8799988
  21.2870012  84.6744997 120.9219988  21.5677568  84.5440807 120.1089588
  25.4940012  83.6684997 117.3759988  24.8760012  84.3434997 117.6559988
  25.8380012  83.9894997 116.5419988  25.4559132  83.8042411 117.3016262
  30.5140012  86.1404997 120.6529988  31.4670012  86.2234997 120.6259988
  30.3530012  85.4284997 121.2729988  30.6226426  86.0556746 120.7330579
  25.8330012  81.0234997 118.4579988  25.9830012  80.2944997 117.8559988
  25.8360012  81.8004997 117.8989988  25.8539302  81.0287851 118.3000692
  26.2460012  79.3934997 115.9509988  26.7820012  79.8444997 115.2989988
  25.3940012  79.2854997 115.5279988  26.2042178  79.4406390 115.8045756
  27.8280012  84.8324997 116.1899988  28.5780012  84.6764997 115.6169988
  27.4890012  85.6844997 115.9149988  27.8848921  84.9262968 116.0743561
  32.2430012  82.6474997 121.2189988  32.4360012  81.7164997 121.1069988
  33.1010012  83.0724997 121.2079988  32.3852934  82.5776531 121.2022031
  33.5600012  85.4364997 119.2959988  33.2790012  86.1454997 118.7179988
  34.5030012  85.3634997 119.1449988  33.6489291  85.5236711 119.1964967
  24.3120012  82.2214997 120.3699988  23.5450012  81.6894997 120.1589988
  24.9910012  81.9114997 119.7699988  24.2987877  82.1068300 120.2600716
  27.0520012  76.8494997 116.3819988  26.9530012  77.7964997 116.2769988
  26.3090012  76.4774997 115.9059988  26.9381184  76.9285863 116.3033621
  28.3160012  81.1714997 119.9459988  28.0800012  80.9514997 120.8469988
  27.5320012  80.9644997 119.4359988  28.1778504  81.1134586 120.0003431
  31.0310012  80.2984997 119.0209988  30.0840012  80.3304997 119.1539988
  31.3440012  79.6734997 119.6749988  30.9436707  80.2183998 119.1276060
  32.6650012  78.9324997 121.0269988  32.5690012  77.9804997 121.0209988
  32.3440012  79.2014997 121.8869988  32.6084070  78.8384035 121.1425441
  22.4920012  80.1424997 120.0739988  22.7040012  79.4354997 119.4639988
  22.3810012  79.7044997 120.9179988  22.5059721  79.9867084 120.1046843
  27.2730012  76.1434997 119.0529988  27.9850012  75.5034997 119.0389988
  27.1720012  76.4104997 118.1399988  27.3568066  76.0920079 118.9275677
  27.6270012  77.8264997 121.1069988  27.4950012  77.3504997 120.2869988
  27.0280012  78.5704997 121.0519988  27.5279071  77.8619618 120.9872886
  19.3910012  94.7384997 108.8439988  18.7440012  94.2764997 108.3109988
  19.7450012  94.0664997 109.4259988  19.3503849  94.5844723 108.8497959
  20.2610012  92.8194997 110.6479988  19.9260012  91.9394997 110.8199988
  20.4830012  93.1644997 111.5129988  20.2451783  92.7457500 110.7884208
  37.8090012  93.6284997 113.6289988  37.7880012  93.8134997 114.5679988
  38.5000012  94.1974997 113.2879988  37.8994618  93.7306606 113.7113864
  37.3730012  93.1964997 116.5509988  36.8850012  92.4604997 116.1789988
  37.9220012  92.8024997 117.2289988  37.3804820  93.0425889 116.5917813
  35.8230012  88.9854997 121.1889988  34.9570012  88.8804997 121.5829988
  36.2000012  89.7444997 121.6349988  35.7553308  89.0736900 121.3032393
  37.1240012  87.2424997 106.7029988  37.9740012  87.6634997 106.8299988
  37.1300012  86.5024997 107.3099988  37.2411372  87.2000803 106.8024344
  37.5190012  85.2954997 108.5259988  36.7920012  84.8164997 108.9239988
  38.1000012  85.5014997 109.2589988  37.4980473  85.2578103 108.6794528
  37.2780012  88.0804997 113.4739988  38.1110012  87.7024997 113.1939988
  37.3900012  89.0234997 113.3549988  37.4072647  88.1562218 113.4195487
  35.7640012  90.9584997 115.7809988  35.1170012  91.2834997 116.4069988
  35.2470012  90.5184997 115.1069988  35.6054029  90.9435004 115.7755827
  35.3050012  83.8164997 109.0889988  35.1550012  82.8714997 109.0689988
  34.9520012  84.0974997 109.9329988  35.2367448  83.7251481 109.2003705
  20.3410012  85.8944997 113.0999988  20.5250012  85.8124997 112.1639988
  21.1900012  85.7704997 113.5229988  20.4810151  85.8665073 113.0291451
  36.1620012  85.7864997 118.7279988  36.7450012  85.0524997 118.9199988
  36.7260012  86.5584997 118.7749988  36.3179769  85.7904227 118.7606159
  37.6580012  83.6894997 119.4129988  36.7950012  83.3104997 119.2469988
  38.2630012  82.9504997 119.3379988  37.6216119  83.5378268 119.3801528
  35.3830012  79.8444997 102.5859988  35.9940012  79.4734997 103.2229988
  34.5470012  79.4234997 102.7819988  35.3535032  79.7367554 102.6997035
  35.0160012  81.3994997 107.5519988  35.2960012  80.4924997 107.6759988
  35.7750012  81.8334997 107.1629988  35.1569277  81.3340942 107.5163682
  35.6280012  81.9804997 112.9879988  36.5610012  82.1924997 112.9529988
  35.3930012  82.0824997 113.9099988  35.7239244  82.0233100 113.1078892
  35.6570012  82.7174997 115.7639988  34.8140012  82.9854997 116.1299988
  36.0990012  83.5394997 115.5529988  35.6014158  82.8653291 115.7855491
  19.9380012  81.1654997 119.2409988  20.8580012  81.0434997 119.4769988
  19.4890012  80.4154997 119.6299988  20.0031580  81.0473727 119.3259006
  37.9400012  76.6974997 121.1169988  38.2900012  76.0434997 120.5119988
  38.0870012  77.5344997 120.6769988  38.0077887  76.7211548 120.9746858
  35.6290012  78.6624997 107.5999988  35.8120012  78.2134997 108.4259988
  35.0300012  78.0774997 107.1369988  35.5730202  78.5219975 107.6503275
  21.1590012  79.4774997 112.1319988  21.6050012  78.6854997 112.4339988
  21.6260012  80.1934997 112.5619988  21.2830831  79.4660685 112.2314006
  19.4630012  82.4764997 113.2009988  19.9550012  82.2554997 112.4099988
  19.8260012  83.3174997 113.4819988  19.5793126  82.5598357 113.1307531
  37.4600012  78.8064997 119.4659988  36.5420012  79.0774997 119.4309988
  37.5830012  78.2714997 118.6819988  37.3509729  78.7712508 119.3551923
  37.4960012  78.7294997 104.1279988  37.9080012  78.0084997 103.6529988
  38.1780012  79.3994997 104.1869988  37.6445885  78.7212368 104.0708915
  19.7770012  78.7344997 107.2549988  18.8520012  78.9434997 107.1259988
  20.2310012  79.2184997 106.5649988  19.7117292  78.8285343 107.1440720
  34.5480012  93.7184997 109.2009988  35.2000012  93.3714997 108.5929988
  35.0580012  94.2074997 109.8469988  34.7062637  93.7370597 109.2050236
  19.7410012  77.4724997 115.5989988  19.0760012  77.2264997 116.2429988
  19.2980012  78.0944997 115.0219988  19.5901318  77.5229410 115.6090898
  21.9330012  90.6474997 119.7439988  21.1120012  90.8224997 119.2829988
  21.6800012  90.5744997 120.6639988  21.7865585  90.6615544 119.8053561
  24.8870012  91.6224997 116.0019988  24.4620012  92.4314997 115.7199988
  25.7910012  91.7074997 115.6999988  24.9509975  91.7449300 115.9224816
  29.1980012  93.0214997 118.9619988  29.3830012  92.6874997 119.8399988
  30.0440012  93.3304997 118.6399988  29.3377539  93.0176047 119.0385605
  31.5430012  94.3074997 118.2059988  32.2200012  93.6744997 117.9659988
  31.8650012  94.7084997 119.0129988  31.6791637  94.2751154 118.2822793
  36.4600012  76.8964997 117.2849988  35.6480012  77.2214997 116.8979988
  36.6930012  76.1364997 116.7519988  36.3802203  76.8382758 117.1598880
  22.2890012  94.8784997 116.0499988  21.5680012  95.3184997 115.5989988
  21.9230012  94.6274997 116.8979988  22.1409651  94.9047242 116.1029640
  24.7560012  94.4784997 115.0799988  23.8910012  94.5504997 115.4839988
  24.7010012  95.0254997 114.2959988  24.6302085  94.5622685 115.0293362
  29.4660012  94.3664997 114.2549988  29.0100012  94.8954997 113.6009988
  29.6290012  94.9694997 114.9799988  29.4256068  94.5204607 114.2634838
  31.7940012  93.2444997 115.1999988  30.8890012  93.4094997 114.9339988
  32.2230012  94.0974997 115.1349988  31.7281324  93.3824339 115.1547976
  34.3980012  94.8144997 115.4949988  34.2160012  95.7304997 115.2849988
  34.5750012  94.4044997 114.6489988  34.3970210  94.8844822 115.3517885
  21.7030012  93.5014997 112.9599988  21.6850012  93.0764997 113.8169988
  22.5080012  93.1834997 112.5509988  21.8093529  93.4003013 113.0220946
  23.8450012  92.2114997 111.6149988  23.6260012  91.2954997 111.7849988
  24.6690012  92.3514997 112.0809988  23.9264420  92.1050520 111.7012774
  26.3820012  92.6814997 112.4639988  26.5950012  91.7934997 112.1769988
  26.4460012  92.6474997 113.4179988  26.4198231  92.5553102 112.5537397
  29.8900012  78.3454997 111.6079988  29.2160012  77.7164997 111.8639988
  30.4540012  77.8614997 111.0049988  29.8739230  78.1938744 111.5615340
  35.0330012  76.4534997 111.7209988  35.6370012  77.0004997 111.2189988
  34.1630012  76.7724997 111.4799988  34.9981208  76.5715137 111.6196886
  36.7600012  77.5914997 110.0539988  37.3720012  77.0774997 109.5269988
  37.1420012  78.4694997 110.0769988  36.8953371  77.6397866 109.9850041
  22.2170012  76.9794997 109.4299988  21.4400012  76.7454997 108.9229988
  22.7470012  76.1824997 109.4389988  22.1822330  76.8396988 109.3617742
  26.7960012  76.9064997 109.2439988  27.6710012  77.2944997 109.2139988
  26.6600012  76.6914997 110.1659988  26.8973695  76.9305184 109.3646440
  32.3530012  76.9364997 110.8929988  32.4290012  77.0314997 109.9429988
  32.0780012  76.0284997 111.0219988  32.3262321  76.8267867 110.7805079
  33.7060012  76.9624997 106.5849988  33.0040012  77.5774997 106.3749988
  33.2620012  76.1244997 106.7159988  33.5496450  76.9335639 106.5739000
  20.9540012  92.7254997 106.1309988  20.2690012  92.6874997 105.4639988
  20.9580012  93.6384997 106.4199988  20.8606998  92.8436733 106.0786771
  22.9140012  78.6934997 103.6759988  23.4060012  78.0634997 103.1489988
  23.5380012  78.9894997 104.3389988  23.0655688  78.6473804 103.6935482
  27.9400012  78.9864997 106.1329988  28.1180012  78.3404997 106.8159988
  27.8870012  79.8204997 106.5999988  27.9571999  79.0108009 106.2895917
  36.5280012  93.4984997 107.2079988  36.3330012  92.7504997 106.6429988
  36.4890012  94.2564997 106.6249988  36.4960380  93.4986099 107.0518384
  22.1750012  77.4934997 118.9479988  21.8090012  76.7284997 119.3899988
  23.0880012  77.5224997 119.2339988  22.2482736  77.3925640 119.0472502
  24.1480012  76.8444997 120.4839988  25.0460012  76.5704997 120.2989988
  23.7610012  76.1014997 120.9479988  24.2186612  76.7065914 120.5213643
  32.5690012  76.1764997 120.6659988  32.6460012  75.7504997 121.5199988
  33.4630012  76.1904997 120.3229988  32.7003428  76.1200879 120.7365310
  35.7450012  92.2494997 119.3579988  34.9630012  92.0634997 118.8379988
  35.6730012  93.1784997 119.5759988  35.6282274  92.3496643 119.3163018
  49.0840012  85.3904997 112.8079988  49.0460012  84.7444997 113.5129988
  48.7620012  84.9244997 112.0369988  49.0352333  85.2389408 112.8002978
  41.4530012  85.0054997 114.4009988  41.4940012  84.3794997 115.1239988
  42.1560012  85.6294997 114.5829988  41.5536363  85.0041196 114.5246044
  52.7900012  88.3294997 111.1089988  52.3500012  87.6094997 111.5599988
  52.7770012  89.0504997 111.7389988  52.7280226  88.3283731 111.2558494
  42.3760012  89.4554997 112.9359988  42.0070012  88.6534997 112.5659988
  43.3170012  89.2864997 112.9819988  42.4527289  89.3230153 112.8916316
  38.9860012  83.1154997 108.3289988  38.5390012  83.9614997 108.3099988
  38.4250012  82.5354997 107.8129988  38.8489900  83.1529916 108.2566801
  39.6970012  85.2774997 110.4539988  39.9100012  84.5074997 110.9819988
  40.4350012  85.3664997 109.8509988  39.8259044  85.1841968 110.4447123
  49.9020012  93.4344997 111.3209988  50.5220012  92.7574997 111.0479988
  49.6940012  93.2164997 112.2299988  49.9586726  93.3124800 111.4064812
  47.4740012  87.8234997 113.2139988  47.7780012  87.1374997 112.6189988
  48.1950012  87.9414997 113.8319988  47.6130671  87.7456305 113.2161816
  56.1370012  79.4244997 114.0749988  56.1860012  80.0344997 114.8099988
  56.5620012  79.8854997 113.3519988  56.2011746  79.5703796 114.0779175
  50.6150012  82.2174997 113.5409988  50.7570012  81.2714997 113.5619988
  50.5080012  82.4244997 112.6129988  50.6199919  82.1158246 113.4183408
  43.7690012  80.3184997 110.8139988  43.8130012  81.1784997 110.3949988
  43.3120012  79.7664997 110.1799988  43.7132240  80.3614422 110.6709864
  40.3900012  82.7154997 111.5759988  41.0430012  82.1654997 112.0079988
  40.4140012  82.4414997 110.6589988  40.4826683  82.6031466 111.5112123
  45.5460012  84.2654997 110.7909988  46.1620012  83.7394997 111.3009988
  44.9600012  83.6254997 110.3879988  45.5510810  84.1069208 110.8063173
  56.5280012  80.9024997 116.3099988  55.8400012  81.5604997 116.2149988
  56.5440012  80.7054997 117.2469988  56.4359540  80.9659819 116.4235990
  42.5800012  79.2364997 114.8879988  42.3610012  79.7664997 114.1219988
  41.9120012  79.4634997 115.5349988  42.4597600  79.3396906 114.8706379
  45.1490012  86.9124997 115.1749988  44.4090012  87.5104997 115.2789988
  45.8630012  87.4664997 114.8599988  45.1442237  87.0692831 115.1466465
  42.1730012  81.1284997 112.8399988  42.7870012  81.7614997 113.2129988
  42.6850012  80.6564997 112.1839988  42.3261981  81.1512267 112.8022908
  43.5560012  88.8764997 115.9619988  43.5510012  89.7564997 115.5839988
  42.7030012  88.7934997 116.3869988  43.4399464  88.9856117 115.9677907
  39.6770012  88.5474997 106.7439988  39.4050012  88.7764997 105.8559988
  39.7230012  89.3854997 107.2049988  39.6459482  88.6921318 106.6846273
  53.3020012  90.1694997 113.4569988  52.3610012  90.2274997 113.6189988
  53.5790012  91.0754997 113.3199988  53.2104679  90.2999443 113.4606815
  53.6030012  78.4554997 114.8749988  52.8670012  79.0664997 114.8369988
  54.2860012  78.8704997 114.3479988  53.5946541  78.5951374 114.7985832
  46.6060012  76.5424997 112.3399988  46.4890012  75.5934997 112.2859988
  45.7510012  76.8744997 112.6139988  46.4744212  76.4575571 112.3696497
  51.5540012  91.9504997 110.0819988  51.9800012  91.2434997 109.5969988
  51.8710012  92.7514997 109.6659988  51.6551683  91.9621017 109.9593680
  54.4000012  88.4174997 117.0679988  54.5400012  87.8264997 116.3289988
  54.5670012  89.2904997 116.7119988  54.4417411  88.4545428 116.9186894
  56.2420012  84.7574997 115.1339988  55.5890012  85.4524997 115.2239988
  56.7070012  84.9674997 114.3249988  56.2155274  84.8810643 115.0368462
  52.1760012  83.7634997 116.8599988  52.2560012  84.5264997 117.4319988
  51.5740012  84.0424997 116.1699988  52.1055756  83.9057134 116.8450589
  43.9240012  86.2194997 109.6749988  43.5930012  85.8494997 108.8569988
  44.5120012  85.5494997 110.0219988  43.9581873  86.0781156 109.6098102
  45.2900012  89.6474997 112.3559988  45.1960012  89.0694997 111.5999988
  46.0200012  89.2764997 112.8529988  45.3757387  89.5181663 112.3195342
  44.2900012  84.9884997 113.3089988  44.8560012  85.1094997 112.5459988
  44.6090012  85.6254997 113.9469988  44.4105474  85.0912219 113.2909862
  50.5990012  90.4914997 114.0429988  50.3590012  91.1534997 114.6909988
  50.4010012  89.6574997 114.4679988  50.5393808  90.4693134 114.1891524
  45.1700012  89.3874997 118.0259988  44.8590012  90.1694997 118.4809988
  44.5200012  89.2344997 117.3399988  45.0395558  89.4739105 117.9955871
  42.0900012  85.5854997 117.2539988  42.1610012  86.2364997 117.9529988
  41.2000012  85.6884997 116.9189988  41.9793005  85.6885427 117.3043495
  43.4100012  91.4594997 118.7889988  43.4170012  91.3234997 117.8419988
  42.4940012  91.3414997 119.0409988  43.2871714  91.4249430 118.6934666
  42.9140012  85.2894997 107.2639988  42.6220012  86.0574997 106.7739988
  42.2400012  84.6294997 107.1019988  42.7828111  85.3055587 107.1748978
  39.0070012  87.6524997 116.0789988  38.5060012  87.6244997 115.2639988
  39.0120012  86.7464997 116.3889988  38.9390944  87.5262396 116.0093226
  38.7570012  90.4324997 112.9629988  39.7030012  90.2884997 112.9439988
  38.6450012  91.2164997 113.4999988  38.8712727  90.5188046 113.0330072
  56.9550012  91.0984997 118.6459988  56.9060012  90.1434997 118.6089988
  56.1280012  91.3664997 119.0469988  56.8364940  91.0038998 118.6951375
  47.9340012  90.6724997 117.5219988  48.0210012  91.4984997 117.9969988
  47.0700012  90.3424997 117.7709988  47.8291964  90.7409878 117.6206549
  48.3480012  94.4444997 107.3279988  48.2730012  94.3234997 106.3809988
  48.3810012  95.3944997 107.4459988  48.3422068  94.5562646 107.2144967
  42.0010012  93.2334997 109.1089988  42.1540012  92.8854997 109.9869988
  41.1510012  92.8774997 108.8539988  41.9069166  93.1376216 109.1948079
  54.1070012  82.5914997 119.1259988  53.7000012  83.0724997 118.4049988
  54.1480012  81.6864997 118.8179988  54.0568437  82.5349374 118.9856683
  41.2560012  88.9754997 117.1229988  41.4720012  88.6144997 117.9819988
  40.4010012  88.6014997 116.9129988  41.1699292  88.8754111 117.2123386
  43.8750012  77.4454997 113.1179988  43.0130012  77.3584997 112.7099988
  43.8520012  78.3014997 113.5459988  43.7540409  77.5492883 113.1200589
  48.5380012  77.1674997 116.4929988  48.9580012  76.7524997 117.2459988
  47.6050012  76.9894997 116.6099988  48.4693644  77.0865900 116.6119539
  51.8640012  80.9234997 117.3459988  51.3500012  80.7974997 118.1439988
  51.7090012  81.8354997 117.1019988  51.7726852  81.0296132 117.4222158
  43.9660012  82.4114997 114.2129988  43.3240012  82.3704997 114.9219988
  44.0030012  83.3374997 113.9749988  43.8830664  82.5311430 114.2779219
  43.9630012  82.6324997 109.1249988  43.0700012  82.2914997 109.0659988
  44.4130012  82.2554997 108.3689988  43.9018130  82.5349631 109.0147702
  48.6000012  83.2234997 119.4299988  48.0380012  82.5194997 119.7509988
  49.4270012  83.1034997 119.8979988  48.6347095  83.1107883 119.5372330
  50.5030012  82.4944997 110.7559988  50.3080012  83.0994997 110.0409988
  50.6840012  81.6604997 110.3219988  50.5007614  82.4646300 110.5994405
  41.7160012  82.7314997 116.0799988  41.6780012  83.1314997 116.9489988
  41.2250012  81.9144997 116.1709988  41.6444684  82.6758069 116.2111059
  38.3240012  79.8474997 109.9309988  38.9550012  79.8184997 110.6499988
  38.7730012  79.4224997 109.1999988  38.4710918  79.7860836 109.9306441
  39.5980012  80.5934997 105.3549988  40.0720012  81.1844997 104.7699988
  38.8810012  81.1244997 105.7019988  39.5659341  80.7460867 105.3218836
  49.7670012  84.1324997 115.4269988  50.0900012  83.5014997 114.7839988
  49.3270012  83.5974997 116.0879988  49.7517484  83.9738387 115.4283198
  46.5440012  80.0594997 110.2109988  45.6330012  80.1164997 110.4999988
  47.0500012  79.9994997 111.0219988  46.4876899  80.0591941 110.3601184
  41.3730012  81.6884997 109.0379988  40.4830012  81.7884997 108.6979988
  41.6690012  80.8464997 108.6919988  41.2912823  81.5883545 108.9447213
  50.9490012  79.2944997 113.4759988  50.2730012  79.4254997 114.1399988
  50.4640012  79.1394997 112.6649988  50.7907146  79.2915157 113.4574469
  54.2370012  94.9664997 119.7519988  54.4370012  95.3904997 118.9179988
  54.8920012  95.3094997 120.3589988  54.3530072  95.0709857 119.7198592
  41.8350012  87.4404997 119.3599988  42.5670012  87.6944997 119.9219988
  41.0550012  87.6444997 119.8759988  41.8297073  87.5028160 119.5066151
  47.8640012  82.8474997 112.0979988  48.4290012  82.3004997 111.5509988
  47.7170012  82.3254997 112.8869988  47.9213380  82.7022259 112.1298695
  42.8660012  78.9834997 108.5169988  42.5490012  78.0814997 108.4809988
  43.6480012  78.9854997 107.9639988  42.9282408  78.8602474 108.4373569
  46.4910012  81.2354997 114.5119988  45.6550012  81.6894997 114.6229988
  47.0150012  81.5114997 115.2639988  46.4475416  81.3348660 114.6288119
  54.1850012  86.5814997 114.9839988  54.8270012  87.0384997 114.4399988
  53.3550012  86.6944997 114.5209988  54.1605963  86.6592704 114.8470177
  48.5540012  87.6324997 117.4339988  48.2090012  87.2514997 118.2409988
  48.3540012  88.5664997 117.5049988  48.4797527  87.7065135 117.5540689
  42.1600012  86.7434997 111.9669988  42.9050012  86.7414997 111.3659988
  42.2380012  85.9204997 112.4479988  42.2724995  86.6318887 111.9498282
  39.1680012  85.2044997 117.2819988  39.3910012  84.7864997 118.1139988
  38.5660012  84.5914997 116.8589988  39.1171759  85.0644668 117.3387022
  46.1840012  84.7214997 119.4949988  45.8880012  84.5554997 118.5999988
  47.1160012  84.5014997 119.4839988  46.2694166  84.6690640 119.3710536
  50.8050012  90.0944997 117.3849988  49.9040012  90.2774997 117.1169988
  50.8390012  90.3534997 118.3049988  50.6863139  90.1545849 117.4728099
  56.4990012  88.1394997 118.5889988  55.6480012  88.3774997 118.2219988
  57.0900012  88.1224997 117.8359988  56.4622487  88.1698258 118.4368893
  54.8310012  91.1254997 106.2169988  54.4580012  90.2994997 106.5259988
  55.1090012  90.9424997 105.3189988  54.8175222  90.9877430 106.1379473
  51.9920012  85.9334997 113.2379988  51.0630012  85.7014997 113.2109988
  52.4430012  85.1564997 112.9079988  51.9259216  85.7967238 113.1896917
  44.5350012  90.2614997 109.3709988  45.0620012  91.0344997 109.1709988
  43.6550012  90.4864997 109.0689988  44.4882031  90.3977545 109.3027912
  40.2900012  85.1234997 103.9579988  40.9060012  85.7504997 104.3379988
  39.4280012  85.4394997 104.2299988  40.2577698  85.2519430 104.0467183
  46.4770012  92.0734997 115.2629988  46.8390012  92.9284997 115.0289988
  47.0080012  91.7814997 116.0029988  46.5984473  92.1511060 115.3310855
  44.6450012  92.9464997 108.4929988  43.6950012  93.0514997 108.5439988
  44.9970012  93.7664997 108.8369988  44.5624195  93.0718800 108.5465502
  50.0210012  88.1724997 114.9629988  49.5950012  87.9454997 115.7899988
  50.6010012  87.4344997 114.7809988  50.0411868  88.0415299 115.0515830
  52.6790012  92.7244997 117.4329988  52.0780012  92.1694997 116.9369988
  52.9610012  93.3914997 116.8059988  52.6348804  92.7386625 117.2804849
  40.8020012  79.9574997 116.8399988  39.9090012  80.2964997 116.7719988
  40.7030012  79.1024997 117.2579988  40.6664164  79.8882588 116.8872235
  40.4530012  91.7624997 115.2749988  40.6700012  90.8304997 115.2439988
  40.6990012  92.0364997 116.1579988  40.5159549  91.6720636 115.3901763
  41.7050012  87.0364997 105.4509988  41.0190012  87.3884997 106.0179988
  42.2270012  87.7994997 105.2039988  41.6816852  87.1878578 105.4952118
  49.5360012  79.6984997 115.7299988  50.2350012  79.7724997 116.3799988
  49.1550012  78.8344997 115.8839988  49.5801767  79.5917624 115.8398322
  48.0560012  82.0644997 116.8459988  48.1750012  82.6384997 117.6039988
  48.7120012  81.3764997 116.9609988  48.1609025  82.0499858 116.9651321
  48.4040012  78.1594997 108.5999988  48.0580012  78.7774997 109.2439988
  49.0630012  78.6604997 108.1179988  48.4456968  78.3116278 108.6229383
  45.3280012  92.5254997 105.6709988  45.4880012  93.3244997 105.1709988
  45.1300012  92.8314997 106.5559988  45.3231637  92.6764020 105.7221144
  54.2610012  79.9714997 117.6809988  53.3440012  80.2344997 117.5939988
  54.5960012  79.9684997 116.7849988  54.1808613  80.0070761 117.5478837
  52.8630012  83.7224997 111.7769988  52.0650012  83.3074997 111.4489988
  53.3080012  83.0314997 112.2679988  52.8139885  83.5723543 111.7984889
  40.6370012  82.3144997 103.4639988  40.5920012  83.2534997 103.6419988
  39.7490012  82.0784997 103.1939988  40.5108574  82.4111892 103.4518912
  53.9490012  92.9784997 113.3999988  53.7940012  93.6564997 112.7419988
  54.8820012  93.0504997 113.6029988  54.0538657  93.0809546 113.3374360
  41.4450012  77.0964997 112.1369988  41.2160012  77.1554997 111.2089988
  41.0020012  76.3044997 112.4429988  41.3538530  76.9975753 112.0514786
  40.3750012  91.0364997 108.2969988  39.5430012  91.5094997 108.3239988
  40.9210012  91.5464997 107.6989988  40.3350352  91.1701332 108.2198463
  39.6630012  93.6494997 119.6269988  40.2040012  93.4324997 120.3869988
  39.1820012  92.8434997 119.4369988  39.6719951  93.5109270 119.7052576
  44.2610012  92.5684997 121.2469988  45.0280012  92.1094997 121.5879988
  44.2390012  92.3424997 120.3179988  44.3631275  92.4750186 121.1680101
  50.8380012  90.9484997 119.9769988  50.4870012  90.0924997 120.2199988
  51.5640012  91.0914997 120.5839988  50.8880769  90.8505636 120.0923619
  39.5700012  87.4594997 120.5809988  39.7140012  86.5574997 120.2949988
  38.7980012  87.7454997 120.0939988  39.4852753  87.3746816 120.4759505
  46.2260012  87.4294997 120.0139988  45.8970012  87.7004997 119.1569988
  46.3780012  86.4884997 119.9269988  46.2014809  87.3393862 119.8848244
  51.9600012  87.3454997 117.3969988  52.7060012  87.9334997 117.2779988
  51.2030012  87.9274997 117.4609988  51.9597820  87.5047143 117.3893590
  40.4030012  84.6594997 120.0009988  40.8110012  83.8024997 119.8799988
  40.1430012  84.6744997 120.9219988  40.4237568  84.5440807 120.1089588
  44.3500012  83.6684997 117.3759988  43.7320012  84.3434997 117.6559988
  44.6940012  83.9894997 116.5419988  44.3119132  83.8042411 117.3016262
  49.3700012  86.1404997 120.6529988  50.3230012  86.2234997 120.6259988
  49.2090012  85.4284997 121.2729988  49.4786426  86.0556746 120.7330579
  44.6890012  81.0234997 118.4579988  44.8390012  80.2944997 117.8559988
  44.6920012  81.8004997 117.8989988  44.7099302  81.0287851 118.3000692
  45.1020012  79.3934997 115.9509988  45.6380012  79.8444997 115.2989988
  44.2500012  79.2854997 115.5279988  45.0602178  79.4406390 115.8045756
  46.6840012  84.8324997 116.1899988  47.4340012  84.6764997 115.6169988
  46.3450012  85.6844997 115.9149988  46.7408921  84.9262968 116.0743561
  51.0990012  82.6474997 121.2189988  51.2920012  81.7164997 121.1069988
  51.9570012  83.0724997 121.2079988  51.2412934  82.5776531 121.2022031
  52.4160012  85.4364997 119.2959988  52.1350012  86.1454997 118.7179988
  53.3590012  85.3634997 119.1449988  52.5049291  85.5236711 119.1964967
  43.1680012  82.2214997 120.3699988  42.4010012  81.6894997 120.1589988
  43.8470012  81.9114997 119.7699988  43.1547877  82.1068300 120.2600716
  45.9080012  76.8494997 116.3819988  45.8090012  77.7964997 116.2769988
  45.1650012  76.4774997 115.9059988  45.7941184  76.9285863 116.3033621
  47.1720012  81.1714997 119.9459988  46.9360012  80.9514997 120.8469988
  46.3880012  80.9644997 119.4359988  47.0338504  81.1134586 120.0003431
  49.8870012  80.2984997 119.0209988  48.9400012  80.3304997 119.1539988
  50.2000012  79.6734997 119.6749988  49.7996707  80.2183998 119.1276060
  51.5210012  78.9324997 121.0269988  51.4250012  77.9804997 121.0209988
  51.2000012  79.2014997 121.8869988  51.4644070  78.8384035 121.1425441
  41.3480012  80.1424997 120.0739988  41.5600012  79.4354997 119.4639988
  41.2370012  79.7044997 120.9179988  41.3619721  79.9867084 120.1046843
  46.1290012  76.1434997 119.0529988  46.8410012  75.5034997 119.0389988
  46.0280012  76.4104997 118.1399988  46.2128066  76.0920079 118.9275677
  46.4830012  77.8264997 121.1069988  46.3510012  77.3504997 120.2869988
  45.8840012  78.5704997 121.0519988  46.3839071  77.8619618 120.9872886
  46.0290012  94.7094997 104.2829988  46.9620012  94.8674997 104.4269988
  45.7650012  95.3844997 103.6589988  46.1209888  94.8224510 104.2182842
  38.2470012  94.7384997 108.8439988  37.6000012  94.2764997 108.3109988
  38.6010012  94.0664997 109.4259988  38.2063849  94.5844723 108.8497959
  39.1170012  92.8194997 110.6479988  38.7820012  91.9394997 110.8199988
  39.3390012  93.1644997 111.5129988  39.1011783  92.7457500 110.7884208
  56.6650012  93.6284997 113.6289988  56.6440012  93.8134997 114.5679988
  57.3560012  94.1974997 113.2879988  56.7554618  93.7306606 113.7113864
  56.2290012  93.1964997 116.5509988  55.7410012  92.4604997 116.1789988
  56.7780012  92.8024997 117.2289988  56.2364820  93.0425889 116.5917813
  54.6790012  88.9854997 121.1889988  53.8130012  88.8804997 121.5829988
  55.0560012  89.7444997 121.6349988  54.6113308  89.0736900 121.3032393
  56.3750012  85.2954997 108.5259988  55.6480012  84.8164997 108.9239988
  56.9560012  85.5014997 109.2589988  56.3540473  85.2578103 108.6794528
  56.1340012  88.0804997 113.4739988  56.9670012  87.7024997 113.1939988
  56.2460012  89.0234997 113.3549988  56.2632647  88.1562218 113.4195487
  54.6200012  90.9584997 115.7809988  53.9730012  91.2834997 116.4069988
  54.1030012  90.5184997 115.1069988  54.4614029  90.9435004 115.7755827
  39.1970012  85.8944997 113.0999988  39.3810012  85.8124997 112.1639988
  40.0460012  85.7704997 113.5229988  39.3370151  85.8665073 113.0291451
  55.0180012  85.7864997 118.7279988  55.6010012  85.0524997 118.9199988
  55.5820012  86.5584997 118.7749988  55.1739769  85.7904227 118.7606159
  56.5140012  83.6894997 119.4129988  55.6510012  83.3104997 119.2469988
  57.1190012  82.9504997 119.3379988  56.4776119  83.5378268 119.3801528
  54.4840012  81.9804997 112.9879988  55.4170012  82.1924997 112.9529988
  54.2490012  82.0824997 113.9099988  54.5799244  82.0233100 113.1078892
  54.5130012  82.7174997 115.7639988  53.6700012  82.9854997 116.1299988
  54.9550012  83.5394997 115.5529988  54.4574158  82.8653291 115.7855491
  38.7940012  81.1654997 119.2409988  39.7140012  81.0434997 119.4769988
  38.3450012  80.4154997 119.6299988  38.8591580  81.0473727 119.3259006
  56.7960012  76.6974997 121.1169988  57.1460012  76.0434997 120.5119988
  56.9430012  77.5344997 120.6769988  56.8637887  76.7211548 120.9746858
  40.0150012  79.4774997 112.1319988  40.4610012  78.6854997 112.4339988
  40.4820012  80.1934997 112.5619988  40.1390831  79.4660685 112.2314006
  38.3190012  82.4764997 113.2009988  38.8110012  82.2554997 112.4099988
  38.6820012  83.3174997 113.4819988  38.4353126  82.5598357 113.1307531
  56.3160012  78.8064997 119.4659988  55.3980012  79.0774997 119.4309988
  56.4390012  78.2714997 118.6819988  56.2069729  78.7712508 119.3551923
  38.6330012  78.7344997 107.2549988  37.7080012  78.9434997 107.1259988
  39.0870012  79.2184997 106.5649988  38.5677292  78.8285343 107.1440720
  53.4040012  93.7184997 109.2009988  54.0560012  93.3714997 108.5929988
  53.9140012  94.2074997 109.8469988  53.5622637  93.7370597 109.2050236
  38.5970012  77.4724997 115.5989988  37.9320012  77.2264997 116.2429988
  38.1540012  78.0944997 115.0219988  38.4461318  77.5229410 115.6090898
  40.7890012  90.6474997 119.7439988  39.9680012  90.8224997 119.2829988
  40.5360012  90.5744997 120.6639988  40.6425585  90.6615544 119.8053561
  43.7430012  91.6224997 116.0019988  43.3180012  92.4314997 115.7199988
  44.6470012  91.7074997 115.6999988  43.8069975  91.7449300 115.9224816
  48.0540012  93.0214997 118.9619988  48.2390012  92.6874997 119.8399988
  48.9000012  93.3304997 118.6399988  48.1937539  93.0176047 119.0385605
  50.3990012  94.3074997 118.2059988  51.0760012  93.6744997 117.9659988
  50.7210012  94.7084997 119.0129988  50.5351637  94.2751154 118.2822793
  55.3160012  76.8964997 117.2849988  54.5040012  77.2214997 116.8979988
  55.5490012  76.1364997 116.7519988  55.2362203  76.8382758 117.1598880
  41.1450012  94.8784997 116.0499988  40.4240012  95.3184997 115.5989988
  40.7790012  94.6274997 116.8979988  40.9969651  94.9047242 116.1029640
  43.6120012  94.4784997 115.0799988  42.7470012  94.5504997 115.4839988
  43.5570012  95.0254997 114.2959988  43.4862085  94.5622685 115.0293362
  48.3220012  94.3664997 114.2549988  47.8660012  94.8954997 113.6009988
  48.4850012  94.9694997 114.9799988  48.2816068  94.5204607 114.2634838
  50.6500012  93.2444997 115.1999988  49.7450012  93.4094997 114.9339988
  51.0790012  94.0974997 115.1349988  50.5841324  93.3824339 115.1547976
  53.2540012  94.8144997 115.4949988  53.0720012  95.7304997 115.2849988
  53.4310012  94.4044997 114.6489988  53.2530210  94.8844822 115.3517885
  40.5590012  93.5014997 112.9599988  40.5410012  93.0764997 113.8169988
  41.3640012  93.1834997 112.5509988  40.6653529  93.4003013 113.0220946
  42.7010012  92.2114997 111.6149988  42.4820012  91.2954997 111.7849988
  43.5250012  92.3514997 112.0809988  42.7824420  92.1050520 111.7012774
  45.2380012  92.6814997 112.4639988  45.4510012  91.7934997 112.1769988
  45.3020012  92.6474997 113.4179988  45.2758232  92.5553102 112.5537397
  48.7460012  78.3454997 111.6079988  48.0720012  77.7164997 111.8639988
  49.3100012  77.8614997 111.0049988  48.7299230  78.1938744 111.5615340
  53.8890012  76.4534997 111.7209988  54.4930012  77.0004997 111.2189988
  53.0190012  76.7724997 111.4799988  53.8541208  76.5715137 111.6196886
  41.0730012  76.9794997 109.4299988  40.2960012  76.7454997 108.9229988
  41.6030012  76.1824997 109.4389988  41.0382330  76.8396988 109.3617742
  39.9090012  76.7774997 105.2339988  40.3480012  77.3884997 104.6419988
  39.2760012  77.3154997 105.7079988  39.8834514  76.9339257 105.2170930
  45.6520012  76.9064997 109.2439988  46.5270012  77.2944997 109.2139988
  45.5160012  76.6914997 110.1659988  45.7533695  76.9305184 109.3646440
  39.8100012  92.7254997 106.1309988  39.1250012  92.6874997 105.4639988
  39.8140012  93.6384997 106.4199988  39.7166998  92.8436733 106.0786771
  55.3840012  93.4984997 107.2079988  55.1890012  92.7504997 106.6429988
  55.3450012  94.2564997 106.6249988  55.3520380  93.4986099 107.0518384
  41.0310012  77.4934997 118.9479988  40.6650012  76.7284997 119.3899988
  41.9440012  77.5224997 119.2339988  41.1042736  77.3925640 119.0472502
  43.0040012  76.8444997 120.4839988  43.9020012  76.5704997 120.2989988
  42.6170012  76.1014997 120.9479988  43.0746612  76.7065914 120.5213643
  51.4250012  76.1764997 120.6659988  51.5020012  75.7504997 121.5199988
  52.3190012  76.1904997 120.3229988  51.5563428  76.1200879 120.7365310
  54.6010012  92.2494997 119.3579988  53.8190012  92.0634997 118.8379988
  54.5290012  93.1784997 119.5759988  54.4842274  92.3496643 119.3163018
  67.9400012  85.3904997 112.8079988  67.9020012  84.7444997 113.5129988
  67.6180012  84.9244997 112.0369988  67.8912333  85.2389408 112.8002978
  60.3090012  85.0054997 114.4009988  60.3500012  84.3794997 115.1239988
  61.0120012  85.6294997 114.5829988  60.4096363  85.0041196 114.5246044
  71.6460012  88.3294997 111.1089988  71.2060012  87.6094997 111.5599988
  71.6330012  89.0504997 111.7389988  71.5840226  88.3283731 111.2558494
  61.2320012  89.4554997 112.9359988  60.8630012  88.6534997 112.5659988
  62.1730012  89.2864997 112.9819988  61.3087289  89.3230153 112.8916316
  57.8420012  83.1154997 108.3289988  57.3950012  83.9614997 108.3099988
  57.2810012  82.5354997 107.8129988  57.7049900  83.1529916 108.2566801
  58.5530012  85.2774997 110.4539988  58.7660012  84.5074997 110.9819988
  59.2910012  85.3664997 109.8509988  58.6819044  85.1841968 110.4447123
  68.7580012  93.4344997 111.3209988  69.3780012  92.7574997 111.0479988
  68.5500012  93.2164997 112.2299988  68.8146726  93.3124800 111.4064812
  66.3300012  87.8234997 113.2139988  66.6340012  87.1374997 112.6189988
  67.0510012  87.9414997 113.8319988  66.4690671  87.7456305 113.2161816
  74.9930012  79.4244997 114.0749988  75.0420012  80.0344997 114.8099988
  75.4180012  79.8854997 113.3519988  75.0571746  79.5703796 114.0779175
  69.4710012  82.2174997 113.5409988  69.6130012  81.2714997 113.5619988
  69.3640012  82.4244997 112.6129988  69.4759919  82.1158246 113.4183408
  62.6250012  80.3184997 110.8139988  62.6690012  81.1784997 110.3949988
  62.1680012  79.7664997 110.1799988  62.5692240  80.3614422 110.6709864
  70.3480012  80.4494997 109.2149988  70.9940012  80.1204997 109.8389988
  70.8580012  80.9674997 108.5919988  70.5054299  80.4744450 109.2162731
  59.2460012  82.7154997 111.5759988  59.8990012  82.1654997 112.0079988
  59.2700012  82.4414997 110.6589988  59.3386683  82.6031466 111.5112123
  75.3840012  80.9024997 116.3099988  74.6960012  81.5604997 116.2149988
  75.4000012  80.7054997 117.2469988  75.2919540  80.9659819 116.4235990
  61.4360012  79.2364997 114.8879988  61.2170012  79.7664997 114.1219988
  60.7680012  79.4634997 115.5349988  61.3157600  79.3396906 114.8706379
  68.8050012  88.7364997 108.4319988  68.5090012  88.4144997 107.5809988
  68.4800012  89.6364997 108.4729988  68.7206371  88.8140215 108.3211801
  64.0050012  86.9124997 115.1749988  63.2650012  87.5104997 115.2789988
  64.7190012  87.4664997 114.8599988  64.0002237  87.0692831 115.1466465
  72.1120012  79.7404997 111.1949988  71.8960012  78.9744997 111.7279988
  72.7670012  80.2124997 111.7079988  72.1710632  79.6995889 111.3372861
  61.0290012  81.1284997 112.8399988  61.6430012  81.7614997 113.2129988
  61.5410012  80.6564997 112.1839988  61.1821981  81.1512267 112.8022908
  62.4120012  88.8764997 115.9619988  62.4070012  89.7564997 115.5839988
  61.5590012  88.7934997 116.3869988  62.2959464  88.9856117 115.9677907
  58.5330012  88.5474997 106.7439988  58.2610012  88.7764997 105.8559988
  58.5790012  89.3854997 107.2049988  58.5019482  88.6921318 106.6846273
  72.1580012  90.1694997 113.4569988  71.2170012  90.2274997 113.6189988
  72.4350012  91.0754997 113.3199988  72.0664679  90.2999443 113.4606815
  72.4590012  78.4554997 114.8749988  71.7230012  79.0664997 114.8369988
  73.1420012  78.8704997 114.3479988  72.4506541  78.5951374 114.7985832
  65.4620012  76.5424997 112.3399988  65.3450012  75.5934997 112.2859988
  64.6070012  76.8744997 112.6139988  65.3304212  76.4575571 112.3696497
  70.4100012  91.9504997 110.0819988  70.8360012  91.2434997 109.5969988
  70.7270012  92.7514997 109.6659988  70.5111683  91.9621017 109.9593680
  71.5700012  89.8514997 108.5909988  71.3120012  89.1614997 107.9799988
  71.6410012  89.4084997 109.4369988  71.5442856  89.6972124 108.6216885
  73.2560012  88.4174997 117.0679988  73.3960012  87.8264997 116.3289988
  73.4230012  89.2904997 116.7119988  73.2977411  88.4545428 116.9186894
  75.0980012  84.7574997 115.1339988  74.4450012  85.4524997 115.2239988
  75.5630012  84.9674997 114.3249988  75.0715274  84.8810643 115.0368462
  71.0320012  83.7634997 116.8599988  71.1120012  84.5264997 117.4319988
  70.4300012  84.0424997 116.1699988  70.9615756  83.9057134 116.8450589
  62.7800012  86.2194997 109.6749988  62.4490012  85.8494997 108.8569988
  63.3680012  85.5494997 110.0219988  62.8141873  86.0781156 109.6098102
  64.1460012  89.6474997 112.3559988  64.0520012  89.0694997 111.5999988
  64.8760012  89.2764997 112.8529988  64.2317387  89.5181663 112.3195342
  63.1460012  84.9884997 113.3089988  63.7120012  85.1094997 112.5459988
  63.4650012  85.6254997 113.9469988  63.2665474  85.0912219 113.2909862
  69.4550012  90.4914997 114.0429988  69.2150012  91.1534997 114.6909988
  69.2570012  89.6574997 114.4679988  69.3953808  90.4693134 114.1891524
  64.0260012  89.3874997 118.0259988  63.7150012  90.1694997 118.4809988
  63.3760012  89.2344997 117.3399988  63.8955558  89.4739105 117.9955871
  60.9460012  85.5854997 117.2539988  61.0170012  86.2364997 117.9529988
  60.0560012  85.6884997 116.9189988  60.8353005  85.6885427 117.3043495
  67.7320012  91.4884997 108.9129988  68.2060012  91.7834997 109.6899988
  67.1690012  92.2264997 108.6799988  67.7208184  91.6287247 108.9879628
  62.2660012  91.4594997 118.7889988  62.2730012  91.3234997 117.8419988
  61.3500012  91.3414997 119.0409988  62.1431714  91.4249430 118.6934666
  61.7700012  85.2894997 107.2639988  61.4780012  86.0574997 106.7739988
  61.0960012  84.6294997 107.1019988  61.6388111  85.3055587 107.1748978
  74.8930012  90.8674997 103.6669988  74.9670012  91.8064997 103.8379988
  75.7990012  90.5624997 103.6109988  75.0255100  90.9546722 103.6828119
  57.8630012  87.6524997 116.0789988  57.3620012  87.6244997 115.2639988
  57.8680012  86.7464997 116.3889988  57.7950944  87.5262396 116.0093226
  57.6130012  90.4324997 112.9629988  58.5590012  90.2884997 112.9439988
  57.5010012  91.2164997 113.4999988  57.7272727  90.5188046 113.0330072
  75.8110012  91.0984997 118.6459988  75.7620012  90.1434997 118.6089988
  74.9840012  91.3664997 119.0469988  75.6924940  91.0038998 118.6951375
  66.7900012  90.6724997 117.5219988  66.8770012  91.4984997 117.9969988
  65.9260012  90.3424997 117.7709988  66.6851964  90.7409878 117.6206549
  67.2040012  94.4444997 107.3279988  67.1290012  94.3234997 106.3809988
  67.2370012  95.3944997 107.4459988  67.1982068  94.5562646 107.2144967
  60.8570012  93.2334997 109.1089988  61.0100012  92.8854997 109.9869988
  60.0070012  92.8774997 108.8539988  60.7629166  93.1376216 109.1948079
  70.3060012  93.5984997 104.3299988  70.6810012  92.8544997 103.8589988
  70.3100012  93.3284997 105.2489988  70.3579125  93.4600986 104.3896483
  69.9750012  93.5244997 107.0789988  69.0390012  93.6244997 107.2579988
  70.2550012  92.8154997 107.6579988  69.8849553  93.4423406 107.1817087
  72.9630012  82.5914997 119.1259988  72.5560012  83.0724997 118.4049988
  73.0040012  81.6864997 118.8179988  72.9128437  82.5349374 118.9856683
  60.1120012  88.9754997 117.1229988  60.3280012  88.6144997 117.9819988
  59.2570012  88.6014997 116.9129988  60.0259292  88.8754111 117.2123386
  62.7310012  77.4454997 113.1179988  61.8690012  77.3584997 112.7099988
  62.7080012  78.3014997 113.5459988  62.6100409  77.5492883 113.1200589
  67.3940012  77.1674997 116.4929988  67.8140012  76.7524997 117.2459988
  66.4610012  76.9894997 116.6099988  67.3253644  77.0865900 116.6119539
  70.7200012  80.9234997 117.3459988  70.2060012  80.7974997 118.1439988
  70.5650012  81.8354997 117.1019988  70.6286852  81.0296132 117.4222158
  62.8220012  82.4114997 114.2129988  62.1800012  82.3704997 114.9219988
  62.8590012  83.3374997 113.9749988  62.7390664  82.5311430 114.2779219
  67.4560012  83.2234997 119.4299988  66.8940012  82.5194997 119.7509988
  68.2830012  83.1034997 119.8979988  67.4907095  83.1107883 119.5372330
  69.3590012  82.4944997 110.7559988  69.1640012  83.0994997 110.0409988
  69.5400012  81.6604997 110.3219988  69.3567614  82.4646300 110.5994405
  60.5720012  82.7314997 116.0799988  60.5340012  83.1314997 116.9489988
  60.0810012  81.9144997 116.1709988  60.5004684  82.6758069 116.2111059
  68.6230012  84.1324997 115.4269988  68.9460012  83.5014997 114.7839988
  68.1830012  83.5974997 116.0879988  68.6077484  83.9738387 115.4283198
  65.4000012  80.0594997 110.2109988  64.4890012  80.1164997 110.4999988
  65.9060012  79.9994997 111.0219988  65.3436899  80.0591941 110.3601184
  60.2290012  81.6884997 109.0379988  59.3390012  81.7884997 108.6979988
  60.5250012  80.8464997 108.6919988  60.1472823  81.5883545 108.9447213
  69.8050012  79.2944997 113.4759988  69.1290012  79.4254997 114.1399988
  69.3200012  79.1394997 112.6649988  69.6467146  79.2915157 113.4574469
  73.0930012  94.9664997 119.7519988  73.2930012  95.3904997 118.9179988
  73.7480012  95.3094997 120.3589988  73.2090072  95.0709857 119.7198592
  60.6910012  87.4404997 119.3599988  61.4230012  87.6944997 119.9219988
  59.9110012  87.6444997 119.8759988  60.6857073  87.5028160 119.5066151
  66.7200012  82.8474997 112.0979988  67.2850012  82.3004997 111.5509988
  66.5730012  82.3254997 112.8869988  66.7773380  82.7022259 112.1298695
  61.7220012  78.9834997 108.5169988  61.4050012  78.0814997 108.4809988
  62.5040012  78.9854997 107.9639988  61.7842408  78.8602474 108.4373569
  65.3470012  81.2354997 114.5119988  64.5110012  81.6894997 114.6229988
  65.8710012  81.5114997 115.2639988  65.3035416  81.3348660 114.6288119
  73.0410012  86.5814997 114.9839988  73.6830012  87.0384997 114.4399988
  72.2110012  86.6944997 114.5209988  73.0165963  86.6592704 114.8470177
  67.4100012  87.6324997 117.4339988  67.0650012  87.2514997 118.2409988
  67.2100012  88.5664997 117.5049988  67.3357527  87.7065135 117.5540689
  61.0160012  86.7434997 111.9669988  61.7610012  86.7414997 111.3659988
  61.0940012  85.9204997 112.4479988  61.1284995  86.6318887 111.9498282
  58.0240012  85.2044997 117.2819988  58.2470012  84.7864997 118.1139988
  57.4220012  84.5914997 116.8589988  57.9731759  85.0644668 117.3387022
  65.0400012  84.7214997 119.4949988  64.7440012  84.5554997 118.5999988
  65.9720012  84.5014997 119.4839988  65.1254166  84.6690640 119.3710536
  69.6610012  90.0944997 117.3849988  68.7600012  90.2774997 117.1169988
  69.6950012  90.3534997 118.3049988  69.5423139  90.1545849 117.4728099
  75.3550012  88.1394997 118.5889988  74.5040012  88.3774997 118.2219988
  75.9460012  88.1224997 117.8359988  75.3182487  88.1698258 118.4368893
  73.6870012  91.1254997 106.2169988  73.3140012  90.2994997 106.5259988
  73.9650012  90.9424997 105.3189988  73.6735222  90.9877430 106.1379473
  70.8480012  85.9334997 113.2379988  69.9190012  85.7014997 113.2109988
  71.2990012  85.1564997 112.9079988  70.7819216  85.7967238 113.1896917
  63.3910012  90.2614997 109.3709988  63.9180012  91.0344997 109.1709988
  62.5110012  90.4864997 109.0689988  63.3442031  90.3977545 109.3027912
  64.8180012  87.9244997 108.9469988  64.5770012  88.8494997 108.9889988
  64.0770012  87.4654997 109.3439988  64.6849225  87.9890933 109.0063742
  65.3330012  92.0734997 115.2629988  65.6950012  92.9284997 115.0289988
  65.8640012  91.7814997 116.0029988  65.4544473  92.1511060 115.3310855
  63.5010012  92.9464997 108.4929988  62.5510012  93.0514997 108.5439988
  63.8530012  93.7664997 108.8369988  63.4184195  93.0718800 108.5465502
  68.8770012  88.1724997 114.9629988  68.4510012  87.9454997 115.7899988
  69.4570012  87.4344997 114.7809988  68.8971868  88.0415299 115.0515830
  71.5350012  92.7244997 117.4329988  70.9340012  92.1694997 116.9369988
  71.8170012  93.3914997 116.8059988  71.4908804  92.7386625 117.2804849
  59.6580012  79.9574997 116.8399988  58.7650012  80.2964997 116.7719988
  59.5590012  79.1024997 117.2579988  59.5224164  79.8882588 116.8872235
  59.3090012  91.7624997 115.2749988  59.5260012  90.8304997 115.2439988
  59.5550012  92.0364997 116.1579988  59.3719549  91.6720636 115.3901763
  64.1080012  89.7834997 104.9399988  64.2540012  89.2634997 105.7299988
  64.1050012  90.6904997 105.2469988  64.1275792  89.8348842 105.0896117
  60.5610012  87.0364997 105.4509988  59.8750012  87.3884997 106.0179988
  61.0830012  87.7994997 105.2039988  60.5376852  87.1878578 105.4952118
  68.3920012  79.6984997 115.7299988  69.0910012  79.7724997 116.3799988
  68.0110012  78.8344997 115.8839988  68.4361767  79.5917624 115.8398322
  66.8450012  91.4814997 105.6899988  66.0290012  91.9784997 105.7419988
  67.3750012  91.9564997 105.0499988  66.8049161  91.6137722 105.6105956
  66.9120012  82.0644997 116.8459988  67.0310012  82.6384997 117.6039988
  67.5680012  81.3764997 116.9609988  67.0169025  82.0499858 116.9651321
  67.2600012  78.1594997 108.5999988  66.9140012  78.7774997 109.2439988
  67.9190012  78.6604997 108.1179988  67.3016968  78.3116278 108.6229383
  64.1840012  92.5254997 105.6709988  64.3440012  93.3244997 105.1709988
  63.9860012  92.8314997 106.5559988  64.1791637  92.6764020 105.7221144
  73.1170012  79.9714997 117.6809988  72.2000012  80.2344997 117.5939988
  73.4520012  79.9684997 116.7849988  73.0368613  80.0070761 117.5478837
  71.7190012  83.7224997 111.7769988  70.9210012  83.3074997 111.4489988
  72.1640012  83.0314997 112.2679988  71.6699885  83.5723543 111.7984889
  61.1770012  89.6504997 104.3479988  61.7690012  90.3494997 104.6239988
  61.6360012  89.2174997 103.6279988  61.3201142  89.6877049 104.2884830
  72.8050012  92.9784997 113.3999988  72.6500012  93.6564997 112.7419988
  73.7380012  93.0504997 113.6029988  72.9098657  93.0809546 113.3374360
  60.3010012  77.0964997 112.1369988  60.0720012  77.1554997 111.2089988
  59.8580012  76.3044997 112.4429988  60.2098530  76.9975753 112.0514786
  59.2310012  91.0364997 108.2969988  58.3990012  91.5094997 108.3239988
  59.7770012  91.5464997 107.6989988  59.1910352  91.1701332 108.2198463
  58.5190012  93.6494997 119.6269988  59.0600012  93.4324997 120.3869988
  58.0380012  92.8434997 119.4369988  58.5279951  93.5109270 119.7052576
  63.1170012  92.5684997 121.2469988  63.8840012  92.1094997 121.5879988
  63.0950012  92.3424997 120.3179988  63.2191275  92.4750186 121.1680101
  69.6940012  90.9484997 119.9769988  69.3430012  90.0924997 120.2199988
  70.4200012  91.0914997 120.5839988  69.7440769  90.8505636 120.0923619
  71.8130012  91.8934997 102.8559988  72.0960012  91.0994997 103.3089988
  72.5530012  92.1264997 102.2959988  71.9518006  91.8163376 102.8422715
  58.4260012  87.4594997 120.5809988  58.5700012  86.5574997 120.2949988
  57.6540012  87.7454997 120.0939988  58.3412753  87.3746816 120.4759505
  65.0820012  87.4294997 120.0139988  64.7530012  87.7004997 119.1569988
  65.2340012  86.4884997 119.9269988  65.0574809  87.3393862 119.8848244
  70.8160012  87.3454997 117.3969988  71.5620012  87.9334997 117.2779988
  70.0590012  87.9274997 117.4609988  70.8157820  87.5047143 117.3893590
  59.2590012  84.6594997 120.0009988  59.6670012  83.8024997 119.8799988
  58.9990012  84.6744997 120.9219988  59.2797568  84.5440807 120.1089588
  63.2060012  83.6684997 117.3759988  62.5880012  84.3434997 117.6559988
  63.5500012  83.9894997 116.5419988  63.1679132  83.8042411 117.3016262
  68.2260012  86.1404997 120.6529988  69.1790012  86.2234997 120.6259988
  68.0650012  85.4284997 121.2729988  68.3346426  86.0556746 120.7330579
  63.5450012  81.0234997 118.4579988  63.6950012  80.2944997 117.8559988
  63.5480012  81.8004997 117.8989988  63.5659302  81.0287851 118.3000692
  63.9580012  79.3934997 115.9509988  64.4940012  79.8444997 115.2989988
  63.1060012  79.2854997 115.5279988  63.9162178  79.4406390 115.8045756
  65.5400012  84.8324997 116.1899988  66.2900012  84.6764997 115.6169988
  65.2010012  85.6844997 115.9149988  65.5968921  84.9262968 116.0743561
  69.9550012  82.6474997 121.2189988  70.1480012  81.7164997 121.1069988
  70.8130012  83.0724997 121.2079988  70.0972934  82.5776531 121.2022031
  71.2720012  85.4364997 119.2959988  70.9910012  86.1454997 118.7179988
  72.2150012  85.3634997 119.1449988  71.3609291  85.5236711 119.1964967
  62.0240012  82.2214997 120.3699988  61.2570012  81.6894997 120.1589988
  62.7030012  81.9114997 119.7699988  62.0107877  82.1068300 120.2600716
  64.7640012  76.8494997 116.3819988  64.6650012  77.7964997 116.2769988
  64.0210012  76.4774997 115.9059988  64.6501184  76.9285863 116.3033621
  66.0280012  81.1714997 119.9459988  65.7920012  80.9514997 120.8469988
  65.2440012  80.9644997 119.4359988  65.8898504  81.1134586 120.0003431
  68.7430012  80.2984997 119.0209988  67.7960012  80.3304997 119.1539988
  69.0560012  79.6734997 119.6749988  68.6556707  80.2183998 119.1276060
  70.3770012  78.9324997 121.0269988  70.2810012  77.9804997 121.0209988
  70.0560012  79.2014997 121.8869988  70.3204070  78.8384035 121.1425441
  60.2040012  80.1424997 120.0739988  60.4160012  79.4354997 119.4639988
  60.0930012  79.7044997 120.9179988  60.2179721  79.9867084 120.1046843
  64.9850012  76.1434997 119.0529988  65.6970012  75.5034997 119.0389988
  64.8840012  76.4104997 118.1399988  65.0688066  76.0920079 118.9275677
  65.3390012  77.8264997 121.1069988  65.2070012  77.3504997 120.2869988
  64.7400012  78.5704997 121.0519988  65.2399071  77.8619618 120.9872886
  64.8850012  94.7094997 104.2829988  65.8180012  94.8674997 104.4269988
  64.6210012  95.3844997 103.6589988  64.9769888  94.8224510 104.2182842
  57.1030012  94.7384997 108.8439988  56.4560012  94.2764997 108.3109988
  57.4570012  94.0664997 109.4259988  57.0623849  94.5844723 108.8497959
  57.9730012  92.8194997 110.6479988  57.6380012  91.9394997 110.8199988
  58.1950012  93.1644997 111.5129988  57.9571783  92.7457500 110.7884208
  75.5210012  93.6284997 113.6289988  75.5000012  93.8134997 114.5679988
  76.2120012  94.1974997 113.2879988  75.6114618  93.7306606 113.7113864
  75.0850012  93.1964997 116.5509988  74.5970012  92.4604997 116.1789988
  75.6340012  92.8024997 117.2289988  75.0924820  93.0425889 116.5917813
  73.5350012  88.9854997 121.1889988  72.6690012  88.8804997 121.5829988
  73.9120012  89.7444997 121.6349988  73.4673308  89.0736900 121.3032393
  74.8360012  87.2424997 106.7029988  75.6860012  87.6634997 106.8299988
  74.8420012  86.5024997 107.3099988  74.9531372  87.2000803 106.8024344
  75.2310012  85.2954997 108.5259988  74.5040012  84.8164997 108.9239988
  75.8120012  85.5014997 109.2589988  75.2100473  85.2578103 108.6794528
  74.9900012  88.0804997 113.4739988  75.8230012  87.7024997 113.1939988
  75.1020012  89.0234997 113.3549988  75.1192647  88.1562218 113.4195487
  73.4760012  90.9584997 115.7809988  72.8290012  91.2834997 116.4069988
  72.9590012  90.5184997 115.1069988  73.3174029  90.9435004 115.7755827
  75.4990012  85.1964997 104.9179988  74.9770012  85.5534997 104.1989988
  75.4660012  85.8714997 105.5959988  75.4231634  85.3365413 104.9113145
  73.0170012  83.8164997 109.0889988  72.8670012  82.8714997 109.0689988
  72.6640012  84.0974997 109.9329988  72.9487448  83.7251481 109.2003705
  58.0530012  85.8944997 113.0999988  58.2370012  85.8124997 112.1639988
  58.9020012  85.7704997 113.5229988  58.1930151  85.8665073 113.0291451
  73.8740012  85.7864997 118.7279988  74.4570012  85.0524997 118.9199988
  74.4380012  86.5584997 118.7749988  74.0299769  85.7904227 118.7606159
  75.3700012  83.6894997 119.4129988  74.5070012  83.3104997 119.2469988
  75.9750012  82.9504997 119.3379988  75.3336119  83.5378268 119.3801528
  73.3400012  81.9804997 112.9879988  74.2730012  82.1924997 112.9529988
  73.1050012  82.0824997 113.9099988  73.4359244  82.0233100 113.1078892
  73.3690012  82.7174997 115.7639988  72.5260012  82.9854997 116.1299988
  73.8110012  83.5394997 115.5529988  73.3134158  82.8653291 115.7855491
  57.6500012  81.1654997 119.2409988  58.5700012  81.0434997 119.4769988
  57.2010012  80.4154997 119.6299988  57.7151580  81.0473727 119.3259006
  75.6520012  76.6974997 121.1169988  76.0020012  76.0434997 120.5119988
  75.7990012  77.5344997 120.6769988  75.7197887  76.7211548 120.9746858
  58.8710012  79.4774997 112.1319988  59.3170012  78.6854997 112.4339988
  59.3380012  80.1934997 112.5619988  58.9950831  79.4660685 112.2314006
  57.1750012  82.4764997 113.2009988  57.6670012  82.2554997 112.4099988
  57.5380012  83.3174997 113.4819988  57.2913126  82.5598357 113.1307531
  75.1720012  78.8064997 119.4659988  74.2540012  79.0774997 119.4309988
  75.2950012  78.2714997 118.6819988  75.0629729  78.7712508 119.3551923
  72.2600012  93.7184997 109.2009988  72.9120012  93.3714997 108.5929988
  72.7700012  94.2074997 109.8469988  72.4182637  93.7370597 109.2050236
  57.4530012  77.4724997 115.5989988  56.7880012  77.2264997 116.2429988
  57.0100012  78.0944997 115.0219988  57.3021318  77.5229410 115.6090898
  59.6450012  90.6474997 119.7439988  58.8240012  90.8224997 119.2829988
  59.3920012  90.5744997 120.6639988  59.4985585  90.6615544 119.8053561
  62.5990012  91.6224997 116.0019988  62.1740012  92.4314997 115.7199988
  63.5030012  91.7074997 115.6999988  62.6629975  91.7449300 115.9224816
  66.9100012  93.0214997 118.9619988  67.0950012  92.6874997 119.8399988
  67.7560012  93.3304997 118.6399988  67.0497539  93.0176047 119.0385605
  69.2550012  94.3074997 118.2059988  69.9320012  93.6744997 117.9659988
  69.5770012  94.7084997 119.0129988  69.3911637  94.2751154 118.2822793
  74.1720012  76.8964997 117.2849988  73.3600012  77.2214997 116.8979988
  74.4050012  76.1364997 116.7519988  74.0922203  76.8382758 117.1598880
  60.0010012  94.8784997 116.0499988  59.2800012  95.3184997 115.5989988
  59.6350012  94.6274997 116.8979988  59.8529651  94.9047242 116.1029640
  62.4680012  94.4784997 115.0799988  61.6030012  94.5504997 115.4839988
  62.4130012  95.0254997 114.2959988  62.3422085  94.5622685 115.0293362
  67.1780012  94.3664997 114.2549988  66.7220012  94.8954997 113.6009988
  67.3410012  94.9694997 114.9799988  67.1376068  94.5204607 114.2634838
  69.5060012  93.2444997 115.1999988  68.6010012  93.4094997 114.9339988
  69.9350012  94.0974997 115.1349988  69.4401324  93.3824339 115.1547976
  72.1100012  94.8144997 115.4949988  71.9280012  95.7304997 115.2849988
  72.2870012  94.4044997 114.6489988  72.1090210  94.8844822 115.3517885
  59.4150012  93.5014997 112.9599988  59.3970012  93.0764997 113.8169988
  60.2200012  93.1834997 112.5509988  59.5213529  93.4003013 113.0220946
  61.5570012  92.2114997 111.6149988  61.3380012  91.2954997 111.7849988
  62.3810012  92.3514997 112.0809988  61.6384420  92.1050520 111.7012774
  64.0940012  92.6814997 112.4639988  64.3070012  91.7934997 112.1769988
  64.1580012  92.6474997 113.4179988  64.1318232  92.5553102 112.5537397
  67.6020012  78.3454997 111.6079988  66.9280012  77.7164997 111.8639988
  68.1660012  77.8614997 111.0049988  67.5859230  78.1938744 111.5615340
  72.7450012  76.4534997 111.7209988  73.3490012  77.0004997 111.2189988
  71.8750012  76.7724997 111.4799988  72.7101208  76.5715137 111.6196886
  74.4720012  77.5914997 110.0539988  75.0840012  77.0774997 109.5269988
  74.8540012  78.4694997 110.0769988  74.6073371  77.6397866 109.9850041
  59.9290012  76.9794997 109.4299988  59.1520012  76.7454997 108.9229988
  60.4590012  76.1824997 109.4389988  59.8942330  76.8396988 109.3617742
  64.5080012  76.9064997 109.2439988  65.3830012  77.2944997 109.2139988
  64.3720012  76.6914997 110.1659988  64.6093695  76.9305184 109.3646440
  70.0650012  76.9364997 110.8929988  70.1410012  77.0314997 109.9429988
  69.7900012  76.0284997 111.0219988  70.0382321  76.8267867 110.7805079
  74.2400012  93.4984997 107.2079988  74.0450012  92.7504997 106.6429988
  74.2010012  94.2564997 106.6249988  74.2080380  93.4986099 107.0518384
  59.8870012  77.4934997 118.9479988  59.5210012  76.7284997 119.3899988
  60.8000012  77.5224997 119.2339988  59.9602736  77.3925640 119.0472502
  61.8600012  76.8444997 120.4839988  62.7580012  76.5704997 120.2989988
  61.4730012  76.1014997 120.9479988  61.9306612  76.7065914 120.5213643
  70.2810012  76.1764997 120.6659988  70.3580012  75.7504997 121.5199988
  71.1750012  76.1904997 120.3229988  70.4123428  76.1200879 120.7365310
  73.4570012  92.2494997 119.3579988  72.6750012  92.0634997 118.8379988
  73.3850012  93.1784997 119.5759988  73.3402274  92.3496643 119.3163018
  87.8630012  86.1354997 109.3889988  87.9520012  87.0794997 109.2569988
  87.2250012  85.8604997 108.7309988  87.7889081  86.2274830 109.2819614
  86.7960012  85.3904997 112.8079988  86.7580012  84.7444997 113.5129988
  86.4740012  84.9244997 112.0369988  86.7472333  85.2389408 112.8002978
  79.1650012  85.0054997 114.4009988  79.2060012  84.3794997 115.1239988
  79.8680012  85.6294997 114.5829988  79.2656363  85.0041196 114.5246044
  90.5020012  88.3294997 111.1089988  90.0620012  87.6094997 111.5599988
  90.4890012  89.0504997 111.7389988  90.4400226  88.3283731 111.2558494
  80.0880012  89.4554997 112.9359988  79.7190012  88.6534997 112.5659988
  81.0290012  89.2864997 112.9819988  80.1647289  89.3230153 112.8916316
  76.6980012  83.1154997 108.3289988  76.2510012  83.9614997 108.3099988
  76.1370012  82.5354997 107.8129988  76.5609900  83.1529916 108.2566801
  77.4090012  85.2774997 110.4539988  77.6220012  84.5074997 110.9819988
  78.1470012  85.3664997 109.8509988  77.5379044  85.1841968 110.4447123
  87.6140012  93.4344997 111.3209988  88.2340012  92.7574997 111.0479988
  87.4060012  93.2164997 112.2299988  87.6706726  93.3124800 111.4064812
  85.1860012  87.8234997 113.2139988  85.4900012  87.1374997 112.6189988
  85.9070012  87.9414997 113.8319988  85.3250671  87.7456305 113.2161816
  93.8490012  79.4244997 114.0749988  93.8980012  80.0344997 114.8099988
  94.2740012  79.8854997 113.3519988  93.9131746  79.5703796 114.0779175
  88.3270012  82.2174997 113.5409988  88.4690012  81.2714997 113.5619988
  88.2200012  82.4244997 112.6129988  88.3319919  82.1158246 113.4183408
  81.4810012  80.3184997 110.8139988  81.5250012  81.1784997 110.3949988
  81.0240012  79.7664997 110.1799988  81.4252240  80.3614422 110.6709864
  89.2040012  80.4494997 109.2149988  89.8500012  80.1204997 109.8389988
  89.7140012  80.9674997 108.5919988  89.3614299  80.4744450 109.2162731
  78.1020012  82.7154997 111.5759988  78.7550012  82.1654997 112.0079988
  78.1260012  82.4414997 110.6589988  78.1946683  82.6031466 111.5112123
  83.2580012  84.2654997 110.7909988  83.8740012  83.7394997 111.3009988
  82.6720012  83.6254997 110.3879988  83.2630810  84.1069208 110.8063173
  94.2400012  80.9024997 116.3099988  93.5520012  81.5604997 116.2149988
  94.2560012  80.7054997 117.2469988  94.1479540  80.9659819 116.4235990
  80.2920012  79.2364997 114.8879988  80.0730012  79.7664997 114.1219988
  79.6240012  79.4634997 115.5349988  80.1717600  79.3396906 114.8706379
  87.6610012  88.7364997 108.4319988  87.3650012  88.4144997 107.5809988
  87.3360012  89.6364997 108.4729988  87.5766371  88.8140215 108.3211801
  82.8610012  86.9124997 115.1749988  82.1210012  87.5104997 115.2789988
  83.5750012  87.4664997 114.8599988  82.8562237  87.0692831 115.1466465
  90.9680012  79.7404997 111.1949988  90.7520012  78.9744997 111.7279988
  91.6230012  80.2124997 111.7079988  91.0270632  79.6995889 111.3372861
  79.8850012  81.1284997 112.8399988  80.4990012  81.7614997 113.2129988
  80.3970012  80.6564997 112.1839988  80.0381981  81.1512267 112.8022908
  81.2680012  88.8764997 115.9619988  81.2630012  89.7564997 115.5839988
  80.4150012  88.7934997 116.3869988  81.1519464  88.9856117 115.9677907
  77.3890012  88.5474997 106.7439988  77.1170012  88.7764997 105.8559988
  77.4350012  89.3854997 107.2049988  77.3579482  88.6921318 106.6846273
  91.0140012  90.1694997 113.4569988  90.0730012  90.2274997 113.6189988
  91.2910012  91.0754997 113.3199988  90.9224679  90.2999443 113.4606815
  91.3150012  78.4554997 114.8749988  90.5790012  79.0664997 114.8369988
  91.9980012  78.8704997 114.3479988  91.3066541  78.5951374 114.7985832
  84.3180012  76.5424997 112.3399988  84.2010012  75.5934997 112.2859988
  83.4630012  76.8744997 112.6139988  84.1864212  76.4575571 112.3696497
  89.2660012  91.9504997 110.0819988  89.6920012  91.2434997 109.5969988
  89.5830012  92.7514997 109.6659988  89.3671683  91.9621017 109.9593680
  90.4260012  89.8514997 108.5909988  90.1680012  89.1614997 107.9799988
  90.4970012  89.4084997 109.4369988  90.4002856  89.6972124 108.6216885
  92.1120012  88.4174997 117.0679988  92.2520012  87.8264997 116.3289988
  92.2790012  89.2904997 116.7119988  92.1537411  88.4545428 116.9186894
  86.5850012  85.3794997 106.8409988  85.8730012  85.9144997 106.4889988
  87.2760012  85.4354997 106.1809988  86.5810132  85.4602543 106.7036289
  93.9540012  84.7574997 115.1339988  93.3010012  85.4524997 115.2239988
  94.4190012  84.9674997 114.3249988  93.9275274  84.8810643 115.0368462
  89.9900012  85.5894997 107.7929988  89.2580012  85.8174997 108.3659988
  90.4380012  84.8754997 108.2469988  89.9502725  85.5242145 107.9328816
  89.8880012  83.7634997 116.8599988  89.9680012  84.5264997 117.4319988
  89.2860012  84.0424997 116.1699988  89.8175756  83.9057134 116.8450589
  81.6360012  86.2194997 109.6749988  81.3050012  85.8494997 108.8569988
  82.2240012  85.5494997 110.0219988  81.6701873  86.0781156 109.6098102
  83.0020012  89.6474997 112.3559988  82.9080012  89.0694997 111.5999988
  83.7320012  89.2764997 112.8529988  83.0877387  89.5181663 112.3195342
  82.0020012  84.9884997 113.3089988  82.5680012  85.1094997 112.5459988
  82.3210012  85.6254997 113.9469988  82.1225474  85.0912219 113.2909862
  88.3110012  90.4914997 114.0429988  88.0710012  91.1534997 114.6909988
  88.1130012  89.6574997 114.4679988  88.2513808  90.4693134 114.1891524
  82.8820012  89.3874997 118.0259988  82.5710012  90.1694997 118.4809988
  82.2320012  89.2344997 117.3399988  82.7515558  89.4739105 117.9955871
  88.8610012  84.7514997 105.4779988  89.4410012  84.9014997 106.2249988
  89.2750012  85.2224997 104.7539988  88.9962997  84.8356578 105.4824058
  79.8020012  85.5854997 117.2539988  79.8730012  86.2364997 117.9529988
  78.9120012  85.6884997 116.9189988  79.6913005  85.6885427 117.3043495
  86.5880012  91.4884997 108.9129988  87.0620012  91.7834997 109.6899988
  86.0250012  92.2264997 108.6799988  86.5768184  91.6287247 108.9879628
  81.1220012  91.4594997 118.7889988  81.1290012  91.3234997 117.8419988
  80.2060012  91.3414997 119.0409988  80.9991714  91.4249430 118.6934666
  92.5600012  76.5014997 105.2909988  91.6600012  76.6404997 105.5859988
  92.8120012  77.3324997 104.8889988  92.4708702  76.6329074 105.2770205
  80.6260012  85.2894997 107.2639988  80.3340012  86.0574997 106.7739988
  79.9520012  84.6294997 107.1019988  80.4948111  85.3055587 107.1748978
  76.7190012  87.6524997 116.0789988  76.2180012  87.6244997 115.2639988
  76.7240012  86.7464997 116.3889988  76.6510944  87.5262396 116.0093226
  76.4690012  90.4324997 112.9629988  77.4150012  90.2884997 112.9439988
  76.3570012  91.2164997 113.4999988  76.5832727  90.5188046 113.0330072
  94.6670012  91.0984997 118.6459988  94.6180012  90.1434997 118.6089988
  93.8400012  91.3664997 119.0469988  94.5484940  91.0038998 118.6951375
  85.6460012  90.6724997 117.5219988  85.7330012  91.4984997 117.9969988
  84.7820012  90.3424997 117.7709988  85.5411964  90.7409878 117.6206549
  86.0600012  94.4444997 107.3279988  85.9850012  94.3234997 106.3809988
  86.0930012  95.3944997 107.4459988  86.0542068  94.5562646 107.2144967
  79.7130012  93.2334997 109.1089988  79.8660012  92.8854997 109.9869988
  78.8630012  92.8774997 108.8539988  79.6189166  93.1376216 109.1948079
  89.1620012  93.5984997 104.3299988  89.5370012  92.8544997 103.8589988
  89.1660012  93.3284997 105.2489988  89.2139125  93.4600986 104.3896483
  88.8310012  93.5244997 107.0789988  87.8950012  93.6244997 107.2579988
  89.1110012  92.8154997 107.6579988  88.7409553  93.4423406 107.1817087
  91.8190012  82.5914997 119.1259988  91.4120012  83.0724997 118.4049988
  91.8600012  81.6864997 118.8179988  91.7688437  82.5349374 118.9856683
  78.9680012  88.9754997 117.1229988  79.1840012  88.6144997 117.9819988
  78.1130012  88.6014997 116.9129988  78.8819292  88.8754111 117.2123386
  81.5870012  77.4454997 113.1179988  80.7250012  77.3584997 112.7099988
  81.5640012  78.3014997 113.5459988  81.4660409  77.5492883 113.1200589
  86.2500012  77.1674997 116.4929988  86.6700012  76.7524997 117.2459988
  85.3170012  76.9894997 116.6099988  86.1813644  77.0865900 116.6119539
  89.5760012  80.9234997 117.3459988  89.0620012  80.7974997 118.1439988
  89.4210012  81.8354997 117.1019988  89.4846852  81.0296132 117.4222158
  85.9110012  79.6604997 103.7779988  85.6580012  79.6794997 104.7009988
  85.6550012  78.7884997 103.4759988  85.8417481  79.5452558 103.8636175
  81.6780012  82.4114997 114.2129988  81.0360012  82.3704997 114.9219988
  81.7150012  83.3374997 113.9749988  81.5950664  82.5311430 114.2779219
  81.6750012  82.6324997 109.1249988  80.7820012  82.2914997 109.0659988
  82.1250012  82.2554997 108.3689988  81.6138130  82.5349631 109.0147702
  87.2100012  83.0484997 107.9419988  86.8010012  83.8634997 107.6509988
  87.9310012  82.9084997 107.3279988  87.2514537  83.1412018 107.8191342
  86.3120012  83.2234997 119.4299988  85.7500012  82.5194997 119.7509988
  87.1390012  83.1034997 119.8979988  86.3467095  83.1107883 119.5372330
  88.2150012  82.4944997 110.7559988  88.0200012  83.0994997 110.0409988
  88.3960012  81.6604997 110.3219988  88.2127614  82.4646300 110.5994405
  79.4280012  82.7314997 116.0799988  79.3900012  83.1314997 116.9489988
  78.9370012  81.9144997 116.1709988  79.3564684  82.6758069 116.2111059
  82.7940012  80.1054997 102.8789988  82.3630012  79.6604997 103.6089988
  82.0760012  80.4774997 102.3669988  82.6379438  80.0948940 102.9096799
  76.0360012  79.8474997 109.9309988  76.6670012  79.8184997 110.6499988
  76.4850012  79.4224997 109.1999988  76.1830918  79.7860836 109.9306441
  77.3100012  80.5934997 105.3549988  77.7840012  81.1844997 104.7699988
  76.5930012  81.1244997 105.7019988  77.2779341  80.7460867 105.3218836
  87.4790012  84.1324997 115.4269988  87.8020012  83.5014997 114.7839988
  87.0390012  83.5974997 116.0879988  87.4637484  83.9738387 115.4283198
  84.2560012  80.0594997 110.2109988  83.3450012  80.1164997 110.4999988
  84.7620012  79.9994997 111.0219988  84.1996899  80.0591941 110.3601184
  79.0850012  81.6884997 109.0379988  78.1950012  81.7884997 108.6979988
  79.3810012  80.8464997 108.6919988  79.0032823  81.5883546 108.9447213
  82.7380012  81.6884997 106.6949988  83.6690012  81.8174997 106.8729988
  82.5230012  82.3584997 106.0449988  82.8364247  81.7966565 106.6315747
  88.6610012  79.2944997 113.4759988  87.9850012  79.4254997 114.1399988
  88.1760012  79.1394997 112.6649988  88.5027146  79.2915157 113.4574469
  81.4120012  82.8834997 104.2609988  80.8690012  82.5034997 103.5699988
  82.2450012  83.0774997 103.8329988  81.4503631  82.8577125 104.1084501
  91.9490012  94.9664997 119.7519988  92.1490012  95.3904997 118.9179988
  92.6040012  95.3094997 120.3589988  92.0650072  95.0709857 119.7198592
  79.5470012  87.4404997 119.3599988  80.2790012  87.6944997 119.9219988
  78.7670012  87.6444997 119.8759988  79.5417073  87.5028160 119.5066151
  85.5760012  82.8474997 112.0979988  86.1410012  82.3004997 111.5509988
  85.4290012  82.3254997 112.8869988  85.6333380  82.7022259 112.1298695
  80.5780012  78.9834997 108.5169988  80.2610012  78.0814997 108.4809988
  81.3600012  78.9854997 107.9639988  80.6402408  78.8602474 108.4373569
  84.2030012  81.2354997 114.5119988  83.3670012  81.6894997 114.6229988
  84.7270012  81.5114997 115.2639988  84.1595416  81.3348660 114.6288119
  84.7470012  87.4484997 106.1969988  84.0020012  86.9414997 105.8749988
  84.6130012  87.4974997 107.1439988  84.6268776  87.3856940 106.2808647
  91.8970012  86.5814997 114.9839988  92.5390012  87.0384997 114.4399988
  91.0670012  86.6944997 114.5209988  91.8725963  86.6592704 114.8470177
  88.6450012  80.2624997 104.3959988  87.7060012  80.3744997 104.2449988
  88.9420012  81.1194997 104.7029988  88.5567583  80.3935981 104.4168337
  86.2660012  87.6324997 117.4339988  85.9210012  87.2514997 118.2409988
  86.0660012  88.5664997 117.5049988  86.1917527  87.7065135 117.5540689
  89.3630012  82.1294997 106.0569988  90.2550012  81.9924997 106.3759988
  89.4200012  82.9204997 105.5199988  89.4926504  82.2176052 106.0280818
  79.8720012  86.7434997 111.9669988  80.6170012  86.7414997 111.3659988
  79.9500012  85.9204997 112.4479988  79.9844995  86.6318887 111.9498282
  76.8800012  85.2044997 117.2819988  77.1030012  84.7864997 118.1139988
  76.2780012  84.5914997 116.8589988  76.8291759  85.0644668 117.3387022
  83.8960012  84.7214997 119.4949988  83.6000012  84.5554997 118.5999988
  84.8280012  84.5014997 119.4839988  83.9814166  84.6690640 119.3710536
  88.5170012  90.0944997 117.3849988  87.6160012  90.2774997 117.1169988
  88.5510012  90.3534997 118.3049988  88.3983139  90.1545849 117.4728099
  94.2480012  82.3394997 105.7519988  93.6940012  81.9434997 105.0799988
  94.3480012  83.2494997 105.4739988  94.1857059  82.4083586 105.6224401
  94.2110012  88.1394997 118.5889988  93.3600012  88.3774997 118.2219988
  94.8020012  88.1224997 117.8359988  94.1742487  88.1698258 118.4368893
  92.5430012  91.1254997 106.2169988  92.1700012  90.2994997 106.5259988
  92.8210012  90.9424997 105.3189988  92.5295222  90.9877430 106.1379473
  89.7040012  85.9334997 113.2379988  88.7750012  85.7014997 113.2109988
  90.1550012  85.1564997 112.9079988  89.6379216  85.7967238 113.1896917
  82.2470012  90.2614997 109.3709988  82.7740012  91.0344997 109.1709988
  81.3670012  90.4864997 109.0689988  82.2002031  90.3977545 109.3027912
  83.6740012  87.9244997 108.9469988  83.4330012  88.8494997 108.9889988
  82.9330012  87.4654997 109.3439988  83.5409225  87.9890933 109.0063742
  84.1890012  92.0734997 115.2629988  84.5510012  92.9284997 115.0289988
  84.7200012  91.7814997 116.0029988  84.3104473  92.1511060 115.3310855
  82.3570012  92.9464997 108.4929988  81.4070012  93.0514997 108.5439988
  82.7090012  93.7664997 108.8369988  82.2744195  93.0718800 108.5465502
  87.7330012  88.1724997 114.9629988  87.3070012  87.9454997 115.7899988
  88.3130012  87.4344997 114.7809988  87.7531868  88.0415299 115.0515830
  90.3910012  92.7244997 117.4329988  89.7900012  92.1694997 116.9369988
  90.6730012  93.3914997 116.8059988  90.3468804  92.7386625 117.2804849
  78.5140012  79.9574997 116.8399988  77.6210012  80.2964997 116.7719988
  78.4150012  79.1024997 117.2579988  78.3784164  79.8882588 116.8872235
  90.8020012  87.7744997 106.2639988  90.5240012  87.0464997 106.8199988
  91.7290012  87.8934997 106.4689988  90.8893124  87.6908802 106.3678845
  78.1650012  91.7624997 115.2749988  78.3820012  90.8304997 115.2439988
  78.4110012  92.0364997 116.1579988  78.2279549  91.6720636 115.3901763
  84.0270012  90.2134997 102.4839988  84.2660012  89.4654997 101.9369988
  83.7580012  89.8254997 103.3169988  84.0233675  90.0586638 102.5216865
  82.9640012  89.7834997 104.9399988  83.1100012  89.2634997 105.7299988
  82.9610012  90.6904997 105.2469988  82.9835792  89.8348842 105.0896117
  87.2480012  79.6984997 115.7299988  87.9470012  79.7724997 116.3799988
  86.8670012  78.8344997 115.8839988  87.2921767  79.5917624 115.8398322
  88.0330012  79.3504997 106.8269988  88.2530012  79.8224997 106.0239988
  88.5910012  79.7454997 107.4969988  88.1384968  79.4684285 106.8077331
  85.7010012  91.4814997 105.6899988  84.8850012  91.9784997 105.7419988
  86.2310012  91.9564997 105.0499988  85.6609161  91.6137722 105.6105956
  85.2330012  81.0784997 107.6619988  86.0450012  81.5834997 107.7079988
  84.9880012  80.9334997 108.5759988  85.3110520  81.1280375 107.7918517
  85.7680012  82.0644997 116.8459988  85.8870012  82.6384997 117.6039988
  86.4240012  81.3764997 116.9609988  85.8729025  82.0499858 116.9651321
  86.1160012  78.1594997 108.5999988  85.7700012  78.7774997 109.2439988
  86.7750012  78.6604997 108.1179988  86.1576968  78.3116278 108.6229383
  91.9730012  79.9714997 117.6809988  91.0560012  80.2344997 117.5939988
  92.3080012  79.9684997 116.7849988  91.8928613  80.0070761 117.5478837
  90.5750012  83.7224997 111.7769988  89.7770012  83.3074997 111.4489988
  91.0200012  83.0314997 112.2679988  90.5259885  83.5723543 111.7984889
  80.0330012  89.6504997 104.3479988  80.6250012  90.3494997 104.6239988
  80.4920012  89.2174997 103.6279988  80.1761142  89.6877049 104.2884830
  78.3490012  82.3144997 103.4639988  78.3040012  83.2534997 103.6419988
  77.4610012  82.0784997 103.1939988  78.2228574  82.4111892 103.4518912
  91.6610012  92.9784997 113.3999988  91.5060012  93.6564997 112.7419988
  92.5940012  93.0504997 113.6029988  91.7658657  93.0809546 113.3374360
  79.1570012  77.0964997 112.1369988  78.9280012  77.1554997 111.2089988
  78.7140012  76.3044997 112.4429988  79.0658530  76.9975753 112.0514786
  78.0870012  91.0364997 108.2969988  77.2550012  91.5094997 108.3239988
  78.6330012  91.5464997 107.6989988  78.0470352  91.1701332 108.2198463
  77.3750012  93.6494997 119.6269988  77.9160012  93.4324997 120.3869988
  76.8940012  92.8434997 119.4369988  77.3839951  93.5109270 119.7052576
  81.9730012  92.5684997 121.2469988  82.7400012  92.1094997 121.5879988
  81.9510012  92.3424997 120.3179988  82.0751275  92.4750186 121.1680101
  88.5500012  90.9484997 119.9769988  88.1990012  90.0924997 120.2199988
  89.2760012  91.0914997 120.5839988  88.6000769  90.8505636 120.0923619
  77.2820012  87.4594997 120.5809988  77.4260012  86.5574997 120.2949988
  76.5100012  87.7454997 120.0939988  77.1972753  87.3746816 120.4759505
  83.9380012  87.4294997 120.0139988  83.6090012  87.7004997 119.1569988
  84.0900012  86.4884997 119.9269988  83.9134809  87.3393862 119.8848244
  89.6720012  87.3454997 117.3969988  90.4180012  87.9334997 117.2779988
  88.9150012  87.9274997 117.4609988  89.6717820  87.5047143 117.3893590
  78.1150012  84.6594997 120.0009988  78.5230012  83.8024997 119.8799988
  77.8550012  84.6744997 120.9219988  78.1357568  84.5440807 120.1089588
  82.7730012  85.7754997 105.0199988  82.3130012  85.2914997 105.7059988
  83.0280012  85.1074997 104.3839988  82.7444902  85.6188731 105.0279334
  82.0620012  83.6684997 117.3759988  81.4440012  84.3434997 117.6559988
  82.4060012  83.9894997 116.5419988  82.0239132  83.8042411 117.3016262
  83.8440012  84.0184997 103.2819988  83.6640012  83.8644997 102.3549988
  84.7940012  84.1264997 103.3269988  83.9477776  84.0120175 103.1611843
  87.0820012  86.1404997 120.6529988  88.0350012  86.2234997 120.6259988
  86.9210012  85.4284997 121.2729988  87.1906426  86.0556746 120.7330579
  82.4010012  81.0234997 118.4579988  82.5510012  80.2944997 117.8559988
  82.4040012  81.8004997 117.8989988  82.4219302  81.0287851 118.3000692
  82.8140012  79.3934997 115.9509988  83.3500012  79.8444997 115.2989988
  81.9620012  79.2854997 115.5279988  82.7722178  79.4406390 115.8045756
  84.3960012  84.8324997 116.1899988  85.1460012  84.6764997 115.6169988
  84.0570012  85.6844997 115.9149988  84.4528921  84.9262968 116.0743561
  88.8110012  82.6474997 121.2189988  89.0040012  81.7164997 121.1069988
  89.6690012  83.0724997 121.2079988  88.9532934  82.5776531 121.2022031
  90.1280012  85.4364997 119.2959988  89.8470012  86.1454997 118.7179988
  91.0710012  85.3634997 119.1449988  90.2169291  85.5236711 119.1964967
  80.8800012  82.2214997 120.3699988  80.1130012  81.6894997 120.1589988
  81.5590012  81.9114997 119.7699988  80.8667877  82.1068300 120.2600716
  83.6200012  76.8494997 116.3819988  83.5210012  77.7964997 116.2769988
  82.8770012  76.4774997 115.9059988  83.5061184  76.9285863 116.3033621
  84.8840012  81.1714997 119.9459988  84.6480012  80.9514997 120.8469988
  84.1000012  80.9644997 119.4359988  84.7458504  81.1134586 120.0003431
  87.5990012  80.2984997 119.0209988  86.6520012  80.3304997 119.1539988
  87.9120012  79.6734997 119.6749988  87.5116707  80.2183998 119.1276060
  89.2330012  78.9324997 121.0269988  89.1370012  77.9804997 121.0209988
  88.9120012  79.2014997 121.8869988  89.1764070  78.8384035 121.1425441
  79.0600012  80.1424997 120.0739988  79.2720012  79.4354997 119.4639988
  78.9490012  79.7044997 120.9179988  79.0739721  79.9867084 120.1046843
  83.8410012  76.1434997 119.0529988  84.5530012  75.5034997 119.0389988
  83.7400012  76.4104997 118.1399988  83.9248066  76.0920079 118.9275677
  84.1950012  77.8264997 121.1069988  84.0630012  77.3504997 120.2869988
  83.5960012  78.5704997 121.0519988  84.0959071  77.8619618 120.9872886
  75.9590012  94.7384997 108.8439988  75.3120012  94.2764997 108.3109988
  76.3130012  94.0664997 109.4259988  75.9183849  94.5844723 108.8497959
  76.8290012  92.8194997 110.6479988  76.4940012  91.9394997 110.8199988
  77.0510012  93.1644997 111.5129988  76.8131783  92.7457500 110.7884208
  94.3770012  93.6284997 113.6289988  94.3560012  93.8134997 114.5679988
  95.0680012  94.1974997 113.2879988  94.4674618  93.7306606 113.7113864
  93.9410012  93.1964997 116.5509988  93.4530012  92.4604997 116.1789988
  94.4900012  92.8024997 117.2289988  93.9484820  93.0425889 116.5917813
  92.3910012  88.9854997 121.1889988  91.5250012  88.8804997 121.5829988
  92.7680012  89.7444997 121.6349988  92.3233308  89.0736900 121.3032393
  93.6920012  87.2424997 106.7029988  94.5420012  87.6634997 106.8299988
  93.6980012  86.5024997 107.3099988  93.8091372  87.2000803 106.8024344
  94.0870012  85.2954997 108.5259988  93.3600012  84.8164997 108.9239988
  94.6680012  85.5014997 109.2589988  94.0660473  85.2578103 108.6794528
  93.8460012  88.0804997 113.4739988  94.6790012  87.7024997 113.1939988
  93.9580012  89.0234997 113.3549988  93.9752647  88.1562218 113.4195487
  92.3320012  90.9584997 115.7809988  91.6850012  91.2834997 116.4069988
  91.8150012  90.5184997 115.1069988  92.1734029  90.9435004 115.7755827
  94.3550012  85.1964997 104.9179988  93.8330012  85.5534997 104.1989988
  94.3220012  85.8714997 105.5959988  94.2791634  85.3365413 104.9113145
  91.8730012  83.8164997 109.0889988  91.7230012  82.8714997 109.0689988
  91.5200012  84.0974997 109.9329988  91.8047448  83.7251481 109.2003705
  76.9090012  85.8944997 113.0999988  77.0930012  85.8124997 112.1639988
  77.7580012  85.7704997 113.5229988  77.0490151  85.8665073 113.0291451
  92.7300012  85.7864997 118.7279988  93.3130012  85.0524997 118.9199988
  93.2940012  86.5584997 118.7749988  92.8859769  85.7904227 118.7606159
  94.2260012  83.6894997 119.4129988  93.3630012  83.3104997 119.2469988
  94.8310012  82.9504997 119.3379988  94.1896119  83.5378268 119.3801528
  91.9510012  79.8444997 102.5859988  92.5620012  79.4734997 103.2229988
  91.1150012  79.4234997 102.7819988  91.9215032  79.7367554 102.6997035
  91.5840012  81.3994997 107.5519988  91.8640012  80.4924997 107.6759988
  92.3430012  81.8334997 107.1629988  91.7249277  81.3340942 107.5163682
  92.1960012  81.9804997 112.9879988  93.1290012  82.1924997 112.9529988
  91.9610012  82.0824997 113.9099988  92.2919244  82.0233100 113.1078892
  92.2250012  82.7174997 115.7639988  91.3820012  82.9854997 116.1299988
  92.6670012  83.5394997 115.5529988  92.1694158  82.8653291 115.7855491
  76.5060012  81.1654997 119.2409988  77.4260012  81.0434997 119.4769988
  76.0570012  80.4154997 119.6299988  76.5711580  81.0473727 119.3259006
  94.5080012  76.6974997 121.1169988  94.8580012  76.0434997 120.5119988
  94.6550012  77.5344997 120.6769988  94.5757887  76.7211548 120.9746858
  92.1970012  78.6624997 107.5999988  92.3800012  78.2134997 108.4259988
  91.5980012  78.0774997 107.1369988  92.1410202  78.5219975 107.6503275
  77.7270012  79.4774997 112.1319988  78.1730012  78.6854997 112.4339988
  78.1940012  80.1934997 112.5619988  77.8510831  79.4660685 112.2314006
  76.0310012  82.4764997 113.2009988  76.5230012  82.2554997 112.4099988
  76.3940012  83.3174997 113.4819988  76.1473126  82.5598357 113.1307531
  94.0280012  78.8064997 119.4659988  93.1100012  79.0774997 119.4309988
  94.1510012  78.2714997 118.6819988  93.9189730  78.7712508 119.3551923
  94.0640012  78.7294997 104.1279988  94.4760012  78.0084997 103.6529988
  94.7460012  79.3994997 104.1869988  94.2125885  78.7212368 104.0708915
  76.3450012  78.7344997 107.2549988  75.4200012  78.9434997 107.1259988
  76.7990012  79.2184997 106.5649988  76.2797292  78.8285343 107.1440720
  91.1160012  93.7184997 109.2009988  91.7680012  93.3714997 108.5929988
  91.6260012  94.2074997 109.8469988  91.2742637  93.7370597 109.2050236
  76.3090012  77.4724997 115.5989988  75.6440012  77.2264997 116.2429988
  75.8660012  78.0944997 115.0219988  76.1581318  77.5229410 115.6090898
  78.5010012  90.6474997 119.7439988  77.6800012  90.8224997 119.2829988
  78.2480012  90.5744997 120.6639988  78.3545585  90.6615544 119.8053561
  81.4550012  91.6224997 116.0019988  81.0300012  92.4314997 115.7199988
  82.3590012  91.7074997 115.6999988  81.5189975  91.7449300 115.9224816
  85.7660012  93.0214997 118.9619988  85.9510012  92.6874997 119.8399988
  86.6120012  93.3304997 118.6399988  85.9057539  93.0176047 119.0385605
  88.1110012  94.3074997 118.2059988  88.7880012  93.6744997 117.9659988
  88.4330012  94.7084997 119.0129988  88.2471637  94.2751154 118.2822793
  93.0280012  76.8964997 117.2849988  92.2160012  77.2214997 116.8979988
  93.2610012  76.1364997 116.7519988  92.9482203  76.8382758 117.1598880
  78.8570012  94.8784997 116.0499988  78.1360012  95.3184997 115.5989988
  78.4910012  94.6274997 116.8979988  78.7089651  94.9047242 116.1029640
  81.3240012  94.4784997 115.0799988  80.4590012  94.5504997 115.4839988
  81.2690012  95.0254997 114.2959988  81.1982085  94.5622685 115.0293362
  86.0340012  94.3664997 114.2549988  85.5780012  94.8954997 113.6009988
  86.1970012  94.9694997 114.9799988  85.9936068  94.5204607 114.2634838
  88.3620012  93.2444997 115.1999988  87.4570012  93.4094997 114.9339988
  88.7910012  94.0974997 115.1349988  88.2961324  93.3824339 115.1547976
  90.9660012  94.8144997 115.4949988  90.7840012  95.7304997 115.2849988
  91.1430012  94.4044997 114.6489988  90.9650210  94.8844822 115.3517885
  78.2710012  93.5014997 112.9599988  78.2530012  93.0764997 113.8169988
  79.0760012  93.1834997 112.5509988  78.3773529  93.4003013 113.0220946
  80.4130012  92.2114997 111.6149988  80.1940012  91.2954997 111.7849988
  81.2370012  92.3514997 112.0809988  80.4944420  92.1050520 111.7012774
  82.9500012  92.6814997 112.4639988  83.1630012  91.7934997 112.1769988
  83.0140012  92.6474997 113.4179988  82.9878232  92.5553102 112.5537397
  86.4580012  78.3454997 111.6079988  85.7840012  77.7164997 111.8639988
  87.0220012  77.8614997 111.0049988  86.4419230  78.1938744 111.5615340
  91.6010012  76.4534997 111.7209988  92.2050012  77.0004997 111.2189988
  90.7310012  76.7724997 111.4799988  91.5661208  76.5715137 111.6196886
  93.3280012  77.5914997 110.0539988  93.9400012  77.0774997 109.5269988
  93.7100012  78.4694997 110.0769988  93.4633371  77.6397866 109.9850041
  78.7850012  76.9794997 109.4299988  78.0080012  76.7454997 108.9229988
  79.3150012  76.1824997 109.4389988  78.7502330  76.8396988 109.3617742
  88.9210012  76.9364997 110.8929988  88.9970012  77.0314997 109.9429988
  88.6460012  76.0284997 111.0219988  88.8942321  76.8267867 110.7805079
  90.2740012  76.9624997 106.5849988  89.5720012  77.5774997 106.3749988
  89.8300012  76.1244997 106.7159988  90.1176450  76.9335639 106.5739000
  77.5220012  92.7254997 106.1309988  76.8370012  92.6874997 105.4639988
  77.5260012  93.6384997 106.4199988  77.4286998  92.8436733 106.0786771
  79.4820012  78.6934997 103.6759988  79.9740012  78.0634997 103.1489988
  80.1060012  78.9894997 104.3389988  79.6335688  78.6473804 103.6935482
  93.0960012  93.4984997 107.2079988  92.9010012  92.7504997 106.6429988
  93.0570012  94.2564997 106.6249988  93.0640380  93.4986099 107.0518384
  78.7430012  77.4934997 118.9479988  78.3770012  76.7284997 119.3899988
  79.6560012  77.5224997 119.2339988  78.8162736  77.3925640 119.0472502
  80.7160012  76.8444997 120.4839988  81.6140012  76.5704997 120.2989988
  80.3290012  76.1014997 120.9479988  80.7866612  76.7065914 120.5213643
  79.3400012  93.6454997 103.1569988  79.0730012  93.9324997 104.0299988
  80.1120012  93.0994997 103.3089988  79.4077488  93.6110294 103.2971050
  89.1370012  76.1764997 120.6659988  89.2140012  75.7504997 121.5199988
  90.0310012  76.1904997 120.3229988  89.2683428  76.1200879 120.7365310
  92.3130012  92.2494997 119.3579988  91.5310012  92.0634997 118.8379988
  92.2410012  93.1784997 119.5759988  92.1962274  92.3496643 119.3163018
 106.7190012  86.1354997 109.3889988 106.8080012  87.0794997 109.2569988
 106.0810012  85.8604997 108.7309988 106.6449081  86.2274830 109.2819614
 105.6520012  85.3904997 112.8079988 105.6140012  84.7444997 113.5129988
 105.3300012  84.9244997 112.0369988 105.6032333  85.2389408 112.8002978
  98.0210012  85.0054997 114.4009988  98.0620012  84.3794997 115.1239988
  98.7240012  85.6294997 114.5829988  98.1216363  85.0041196 114.5246044
 109.3580012  88.3294997 111.1089988 108.9180012  87.6094997 111.5599988
 109.3450012  89.0504997 111.7389988 109.2960226  88.3283731 111.2558494
  98.9440012  89.4554997 112.9359988  98.5750012  88.6534997 112.5659988
  99.8850012  89.2864997 112.9819988  99.0207289  89.3230153 112.8916316
  95.5540012  83.1154997 108.3289988  95.1070012  83.9614997 108.3099988
  94.9930012  82.5354997 107.8129988  95.4169900  83.1529916 108.2566801
  96.2650012  85.2774997 110.4539988  96.4780012  84.5074997 110.9819988
  97.0030012  85.3664997 109.8509988  96.3939044  85.1841968 110.4447123
 106.4700012  93.4344997 111.3209988 107.0900012  92.7574997 111.0479988
 106.2620012  93.2164997 112.2299988 106.5266726  93.3124800 111.4064812
 104.0420012  87.8234997 113.2139988 104.3460012  87.1374997 112.6189988
 104.7630012  87.9414997 113.8319988 104.1810671  87.7456305 113.2161816
 112.7050012  79.4244997 114.0749988 112.7540012  80.0344997 114.8099988
 113.1300012  79.8854997 113.3519988 112.7691746  79.5703796 114.0779175
 107.1830012  82.2174997 113.5409988 107.3250012  81.2714997 113.5619988
 107.0760012  82.4244997 112.6129988 107.1879919  82.1158246 113.4183408
 100.3370012  80.3184997 110.8139988 100.3810012  81.1784997 110.3949988
  99.8800012  79.7664997 110.1799988 100.2812240  80.3614422 110.6709864
 108.0600012  80.4494997 109.2149988 108.7060012  80.1204997 109.8389988
 108.5700012  80.9674997 108.5919988 108.2174299  80.4744450 109.2162731
  96.9580012  82.7154997 111.5759988  97.6110012  82.1654997 112.0079988
  96.9820012  82.4414997 110.6589988  97.0506683  82.6031466 111.5112123
 102.1140012  84.2654997 110.7909988 102.7300012  83.7394997 111.3009988
 101.5280012  83.6254997 110.3879988 102.1190810  84.1069208 110.8063173
 113.0960012  80.9024997 116.3099988 112.4080012  81.5604997 116.2149988
 113.1120012  80.7054997 117.2469988 113.0039540  80.9659819 116.4235990
  99.1480012  79.2364997 114.8879988  98.9290012  79.7664997 114.1219988
  98.4800012  79.4634997 115.5349988  99.0277600  79.3396906 114.8706379
 106.5170012  88.7364997 108.4319988 106.2210012  88.4144997 107.5809988
 106.1920012  89.6364997 108.4729988 106.4326371  88.8140215 108.3211801
 101.7170012  86.9124997 115.1749988 100.9770012  87.5104997 115.2789988
 102.4310012  87.4664997 114.8599988 101.7122237  87.0692831 115.1466465
 109.8240012  79.7404997 111.1949988 109.6080012  78.9744997 111.7279988
 110.4790012  80.2124997 111.7079988 109.8830632  79.6995889 111.3372861
  98.7410012  81.1284997 112.8399988  99.3550012  81.7614997 113.2129988
  99.2530012  80.6564997 112.1839988  98.8941981  81.1512267 112.8022908
 100.1240012  88.8764997 115.9619988 100.1190012  89.7564997 115.5839988
  99.2710012  88.7934997 116.3869988 100.0079464  88.9856117 115.9677907
  96.2450012  88.5474997 106.7439988  95.9730012  88.7764997 105.8559988
  96.2910012  89.3854997 107.2049988  96.2139482  88.6921318 106.6846273
 109.8700012  90.1694997 113.4569988 108.9290012  90.2274997 113.6189988
 110.1470012  91.0754997 113.3199988 109.7784679  90.2999443 113.4606815
 110.1710012  78.4554997 114.8749988 109.4350012  79.0664997 114.8369988
 110.8540012  78.8704997 114.3479988 110.1626541  78.5951374 114.7985832
 103.1740012  76.5424997 112.3399988 103.0570012  75.5934997 112.2859988
 102.3190012  76.8744997 112.6139988 103.0424212  76.4575571 112.3696497
 108.1220012  91.9504997 110.0819988 108.5480012  91.2434997 109.5969988
 108.4390012  92.7514997 109.6659988 108.2231683  91.9621017 109.9593680
 109.2820012  89.8514997 108.5909988 109.0240012  89.1614997 107.9799988
 109.3530012  89.4084997 109.4369988 109.2562856  89.6972124 108.6216885
 110.9680012  88.4174997 117.0679988 111.1080012  87.8264997 116.3289988
 111.1350012  89.2904997 116.7119988 111.0097411  88.4545428 116.9186894
 105.4410012  85.3794997 106.8409988 104.7290012  85.9144997 106.4889988
 106.1320012  85.4354997 106.1809988 105.4370132  85.4602543 106.7036289
 105.4940012  83.8374997 103.8799988 106.1950012  83.8594997 104.5309988
 105.7970012  83.2094997 103.2229988 105.6308133  83.7557070 103.8803369
 112.8100012  84.7574997 115.1339988 112.1570012  85.4524997 115.2239988
 113.2750012  84.9674997 114.3249988 112.7835274  84.8810643 115.0368462
 108.8460012  85.5894997 107.7929988 108.1140012  85.8174997 108.3659988
 109.2940012  84.8754997 108.2469988 108.8062725  85.5242145 107.9328816
 108.7440012  83.7634997 116.8599988 108.8240012  84.5264997 117.4319988
 108.1420012  84.0424997 116.1699988 108.6735756  83.9057134 116.8450589
 100.4920012  86.2194997 109.6749988 100.1610012  85.8494997 108.8569988
 101.0800012  85.5494997 110.0219988 100.5261873  86.0781156 109.6098102
 101.8580012  89.6474997 112.3559988 101.7640012  89.0694997 111.5999988
 102.5880012  89.2764997 112.8529988 101.9437387  89.5181663 112.3195342
 100.8580012  84.9884997 113.3089988 101.4240012  85.1094997 112.5459988
 101.1770012  85.6254997 113.9469988 100.9785474  85.0912219 113.2909862
 107.1670012  90.4914997 114.0429988 106.9270012  91.1534997 114.6909988
 106.9690012  89.6574997 114.4679988 107.1073808  90.4693134 114.1891524
 101.7380012  89.3874997 118.0259988 101.4270012  90.1694997 118.4809988
 101.0880012  89.2344997 117.3399988 101.6075558  89.4739105 117.9955871
 107.7170012  84.7514997 105.4779988 108.2970012  84.9014997 106.2249988
 108.1310012  85.2224997 104.7539988 107.8522997  84.8356578 105.4824058
  98.6580012  85.5854997 117.2539988  98.7290012  86.2364997 117.9529988
  97.7680012  85.6884997 116.9189988  98.5473005  85.6885427 117.3043495
 105.4440012  91.4884997 108.9129988 105.9180012  91.7834997 109.6899988
 104.8810012  92.2264997 108.6799988 105.4328184  91.6287247 108.9879628
  99.9780012  91.4594997 118.7889988  99.9850012  91.3234997 117.8419988
  99.0620012  91.3414997 119.0409988  99.8551714  91.4249430 118.6934666
  99.4820012  85.2894997 107.2639988  99.1900012  86.0574997 106.7739988
  98.8080012  84.6294997 107.1019988  99.3508111  85.3055587 107.1748978
  95.5750012  87.6524997 116.0789988  95.0740012  87.6244997 115.2639988
  95.5800012  86.7464997 116.3889988  95.5070944  87.5262396 116.0093226
  95.3250012  90.4324997 112.9629988  96.2710012  90.2884997 112.9439988
  95.2130012  91.2164997 113.4999988  95.4392727  90.5188046 113.0330072
 113.5230012  91.0984997 118.6459988 113.4740012  90.1434997 118.6089988
 112.6960012  91.3664997 119.0469988 113.4044940  91.0038998 118.6951375
 104.5020012  90.6724997 117.5219988 104.5890012  91.4984997 117.9969988
 103.6380012  90.3424997 117.7709988 104.3971964  90.7409878 117.6206549
 104.9160012  94.4444997 107.3279988 104.8410012  94.3234997 106.3809988
 104.9490012  95.3944997 107.4459988 104.9102068  94.5562646 107.2144967
  98.5690012  93.2334997 109.1089988  98.7220012  92.8854997 109.9869988
  97.7190012  92.8774997 108.8539988  98.4749166  93.1376216 109.1948079
 107.6870012  93.5244997 107.0789988 106.7510012  93.6244997 107.2579988
 107.9670012  92.8154997 107.6579988 107.5969553  93.4423406 107.1817087
 110.6750012  82.5914997 119.1259988 110.2680012  83.0724997 118.4049988
 110.7160012  81.6864997 118.8179988 110.6248437  82.5349374 118.9856683
  97.8240012  88.9754997 117.1229988  98.0400012  88.6144997 117.9819988
  96.9690012  88.6014997 116.9129988  97.7379292  88.8754111 117.2123386
 100.4430012  77.4454997 113.1179988  99.5810012  77.3584997 112.7099988
 100.4200012  78.3014997 113.5459988 100.3220409  77.5492883 113.1200589
 105.1060012  77.1674997 116.4929988 105.5260012  76.7524997 117.2459988
 104.1730012  76.9894997 116.6099988 105.0373644  77.0865900 116.6119539
 108.4320012  80.9234997 117.3459988 107.9180012  80.7974997 118.1439988
 108.2770012  81.8354997 117.1019988 108.3406852  81.0296132 117.4222158
 100.5340012  82.4114997 114.2129988  99.8920012  82.3704997 114.9219988
 100.5710012  83.3374997 113.9749988 100.4510664  82.5311430 114.2779219
 100.5310012  82.6324997 109.1249988  99.6380012  82.2914997 109.0659988
 100.9810012  82.2554997 108.3689988 100.4698130  82.5349631 109.0147702
 106.0660012  83.0484997 107.9419988 105.6570012  83.8634997 107.6509988
 106.7870012  82.9084997 107.3279988 106.1074537  83.1412018 107.8191342
 105.1680012  83.2234997 119.4299988 104.6060012  82.5194997 119.7509988
 105.9950012  83.1034997 119.8979988 105.2027095  83.1107883 119.5372330
 107.0710012  82.4944997 110.7559988 106.8760012  83.0994997 110.0409988
 107.2520012  81.6604997 110.3219988 107.0687614  82.4646300 110.5994405
  98.2840012  82.7314997 116.0799988  98.2460012  83.1314997 116.9489988
  97.7930012  81.9144997 116.1709988  98.2124684  82.6758069 116.2111059
  94.8920012  79.8474997 109.9309988  95.5230012  79.8184997 110.6499988
  95.3410012  79.4224997 109.1999988  95.0390918  79.7860836 109.9306441
 106.3350012  84.1324997 115.4269988 106.6580012  83.5014997 114.7839988
 105.8950012  83.5974997 116.0879988 106.3197484  83.9738387 115.4283198
 103.1120012  80.0594997 110.2109988 102.2010012  80.1164997 110.4999988
 103.6180012  79.9994997 111.0219988 103.0556899  80.0591941 110.3601184
  97.9410012  81.6884997 109.0379988  97.0510012  81.7884997 108.6979988
  98.2370012  80.8464997 108.6919988  97.8592823  81.5883545 108.9447213
 101.5940012  81.6884997 106.6949988 102.5250012  81.8174997 106.8729988
 101.3790012  82.3584997 106.0449988 101.6924247  81.7966565 106.6315747
 107.5170012  79.2944997 113.4759988 106.8410012  79.4254997 114.1399988
 107.0320012  79.1394997 112.6649988 107.3587146  79.2915157 113.4574469
 110.8050012  94.9664997 119.7519988 111.0050012  95.3904997 118.9179988
 111.4600012  95.3094997 120.3589988 110.9210072  95.0709857 119.7198592
  98.4030012  87.4404997 119.3599988  99.1350012  87.6944997 119.9219988
  97.6230012  87.6444997 119.8759988  98.3977073  87.5028160 119.5066151
 104.4320012  82.8474997 112.0979988 104.9970012  82.3004997 111.5509988
 104.2850012  82.3254997 112.8869988 104.4893380  82.7022259 112.1298695
  99.4340012  78.9834997 108.5169988  99.1170012  78.0814997 108.4809988
 100.2160012  78.9854997 107.9639988  99.4962408  78.8602474 108.4373569
 103.0590012  81.2354997 114.5119988 102.2230012  81.6894997 114.6229988
 103.5830012  81.5114997 115.2639988 103.0155416  81.3348660 114.6288119
 110.7530012  86.5814997 114.9839988 111.3950012  87.0384997 114.4399988
 109.9230012  86.6944997 114.5209988 110.7285963  86.6592704 114.8470177
 107.5010012  80.2624997 104.3959988 106.5620012  80.3744997 104.2449988
 107.7980012  81.1194997 104.7029988 107.4127583  80.3935981 104.4168337
 105.1220012  87.6324997 117.4339988 104.7770012  87.2514997 118.2409988
 104.9220012  88.5664997 117.5049988 105.0477527  87.7065135 117.5540689
 108.2190012  82.1294997 106.0569988 109.1110012  81.9924997 106.3759988
 108.2760012  82.9204997 105.5199988 108.3486504  82.2176052 106.0280818
  98.7280012  86.7434997 111.9669988  99.4730012  86.7414997 111.3659988
  98.8060012  85.9204997 112.4479988  98.8404995  86.6318887 111.9498282
 105.7290012  88.9074997 105.2229988 105.4330012  89.7334997 105.6039988
 105.0260012  88.2874997 105.4189988 105.5934914  88.9368199 105.3016443
  95.7360012  85.2044997 117.2819988  95.9590012  84.7864997 118.1139988
  95.1340012  84.5914997 116.8589988  95.6851759  85.0644668 117.3387022
 102.7520012  84.7214997 119.4949988 102.4560012  84.5554997 118.5999988
 103.6840012  84.5014997 119.4839988 102.8374166  84.6690640 119.3710536
 107.3730012  90.0944997 117.3849988 106.4720012  90.2774997 117.1169988
 107.4070012  90.3534997 118.3049988 107.2543139  90.1545849 117.4728099
 113.1040012  82.3394997 105.7519988 112.5500012  81.9434997 105.0799988
 113.2040012  83.2494997 105.4739988 113.0417059  82.4083586 105.6224401
 113.0670012  88.1394997 118.5889988 112.2160012  88.3774997 118.2219988
 113.6580012  88.1224997 117.8359988 113.0302487  88.1698258 118.4368893
 111.3990012  91.1254997 106.2169988 111.0260012  90.2994997 106.5259988
 111.6770012  90.9424997 105.3189988 111.3855222  90.9877430 106.1379473
 108.5600012  85.9334997 113.2379988 107.6310012  85.7014997 113.2109988
 109.0110012  85.1564997 112.9079988 108.4939216  85.7967238 113.1896917
 101.1030012  90.2614997 109.3709988 101.6300012  91.0344997 109.1709988
 100.2230012  90.4864997 109.0689988 101.0562031  90.3977545 109.3027912
  96.8580012  85.1234997 103.9579988  97.4740012  85.7504997 104.3379988
  95.9960012  85.4394997 104.2299988  96.8257698  85.2519430 104.0467183
 102.5300012  87.9244997 108.9469988 102.2890012  88.8494997 108.9889988
 101.7890012  87.4654997 109.3439988 102.3969225  87.9890933 109.0063742
 103.0450012  92.0734997 115.2629988 103.4070012  92.9284997 115.0289988
 103.5760012  91.7814997 116.0029988 103.1664473  92.1511060 115.3310855
 101.2130012  92.9464997 108.4929988 100.2630012  93.0514997 108.5439988
 101.5650012  93.7664997 108.8369988 101.1304195  93.0718800 108.5465502
 106.5890012  88.1724997 114.9629988 106.1630012  87.9454997 115.7899988
 107.1690012  87.4344997 114.7809988 106.6091868  88.0415299 115.0515830
 108.7920012  89.1014997 104.0369988 109.1450012  88.7214997 104.8409988
 107.8430012  89.0084997 104.1239988 108.7120918  89.0368956 104.1588532
 109.2470012  92.7244997 117.4329988 108.6460012  92.1694997 116.9369988
 109.5290012  93.3914997 116.8059988 109.2028804  92.7386625 117.2804849
  97.3700012  79.9574997 116.8399988  96.4770012  80.2964997 116.7719988
  97.2710012  79.1024997 117.2579988  97.2344164  79.8882588 116.8872235
 109.6580012  87.7744997 106.2639988 109.3800012  87.0464997 106.8199988
 110.5850012  87.8934997 106.4689988 109.7453124  87.6908802 106.3678845
  97.0210012  91.7624997 115.2749988  97.2380012  90.8304997 115.2439988
  97.2670012  92.0364997 116.1579988  97.0839549  91.6720636 115.3901763
  98.2730012  87.0364997 105.4509988  97.5870012  87.3884997 106.0179988
  98.7950012  87.7994997 105.2039988  98.2496852  87.1878578 105.4952118
 106.1040012  79.6984997 115.7299988 106.8030012  79.7724997 116.3799988
 105.7230012  78.8344997 115.8839988 106.1481767  79.5917624 115.8398322
 106.8890012  79.3504997 106.8269988 107.1090012  79.8224997 106.0239988
 107.4470012  79.7454997 107.4969988 106.9944968  79.4684285 106.8077331
 104.5570012  91.4814997 105.6899988 103.7410012  91.9784997 105.7419988
 105.0870012  91.9564997 105.0499988 104.5169161  91.6137722 105.6105956
 104.0890012  81.0784997 107.6619988 104.9010012  81.5834997 107.7079988
 103.8440012  80.9334997 108.5759988 104.1670520  81.1280375 107.7918517
 104.6240012  82.0644997 116.8459988 104.7430012  82.6384997 117.6039988
 105.2800012  81.3764997 116.9609988 104.7289025  82.0499858 116.9651321
 104.9720012  78.1594997 108.5999988 104.6260012  78.7774997 109.2439988
 105.6310012  78.6604997 108.1179988 105.0136968  78.3116278 108.6229383
 101.8960012  92.5254997 105.6709988 102.0560012  93.3244997 105.1709988
 101.6980012  92.8314997 106.5559988 101.8911637  92.6764020 105.7221144
 100.6300012  79.2224997 105.2869988 100.5470012  80.1114997 105.6339988
 101.5200012  78.9574997 105.5189988 100.7389469  79.3081430 105.3657626
 110.8290012  79.9714997 117.6809988 109.9120012  80.2344997 117.5939988
 111.1640012  79.9684997 116.7849988 110.7488613  80.0070761 117.5478837
 109.4310012  83.7224997 111.7769988 108.6330012  83.3074997 111.4489988
 109.8760012  83.0314997 112.2679988 109.3819885  83.5723543 111.7984889
 110.5170012  92.9784997 113.3999988 110.3620012  93.6564997 112.7419988
 111.4500012  93.0504997 113.6029988 110.6218657  93.0809546 113.3374360
  98.0130012  77.0964997 112.1369988  97.7840012  77.1554997 111.2089988
  97.5700012  76.3044997 112.4429988  97.9218530  76.9975753 112.0514786
  96.9430012  91.0364997 108.2969988  96.1110012  91.5094997 108.3239988
  97.4890012  91.5464997 107.6989988  96.9030352  91.1701332 108.2198463
  96.2310012  93.6494997 119.6269988  96.7720012  93.4324997 120.3869988
  95.7500012  92.8434997 119.4369988  96.2399951  93.5109270 119.7052576
 100.8290012  92.5684997 121.2469988 101.5960012  92.1094997 121.5879988
 100.8070012  92.3424997 120.3179988 100.9311275  92.4750186 121.1680101
 104.9210012  92.0764997 102.6229988 104.2770012  91.4454997 102.9439988
 105.6830012  91.5454997 102.3909988 104.9358077  91.9182920 102.6356011
 107.4060012  90.9484997 119.9769988 107.0550012  90.0924997 120.2199988
 108.1320012  91.0914997 120.5839988 107.4560769  90.8505636 120.0923619
  96.1380012  87.4594997 120.5809988  96.2820012  86.5574997 120.2949988
  95.3660012  87.7454997 120.0939988  96.0532753  87.3746816 120.4759505
 102.7940012  87.4294997 120.0139988 102.4650012  87.7004997 119.1569988
 102.9460012  86.4884997 119.9269988 102.7694809  87.3393862 119.8848244
 105.8320012  88.8504997 102.4499988 105.5630012  89.0304997 103.3509988
 105.6260012  87.9244997 102.3179988 105.7673427  88.7500261 102.5555073
 108.5280012  87.3454997 117.3969988 109.2740012  87.9334997 117.2779988
 107.7710012  87.9274997 117.4609988 108.5277820  87.5047143 117.3893590
  96.9710012  84.6594997 120.0009988  97.3790012  83.8024997 119.8799988
  96.7110012  84.6744997 120.9219988  96.9917568  84.5440807 120.1089588
 100.9180012  83.6684997 117.3759988 100.3000012  84.3434997 117.6559988
 101.2620012  83.9894997 116.5419988 100.8799132  83.8042411 117.3016262
 105.9380012  86.1404997 120.6529988 106.8910012  86.2234997 120.6259988
 105.7770012  85.4284997 121.2729988 106.0466426  86.0556746 120.7330579
 101.2570012  81.0234997 118.4579988 101.4070012  80.2944997 117.8559988
 101.2600012  81.8004997 117.8989988 101.2779302  81.0287851 118.3000692
 101.6700012  79.3934997 115.9509988 102.2060012  79.8444997 115.2989988
 100.8180012  79.2854997 115.5279988 101.6282178  79.4406390 115.8045756
 103.2520012  84.8324997 116.1899988 104.0020012  84.6764997 115.6169988
 102.9130012  85.6844997 115.9149988 103.3088921  84.9262968 116.0743561
 107.6670012  82.6474997 121.2189988 107.8600012  81.7164997 121.1069988
 108.5250012  83.0724997 121.2079988 107.8092934  82.5776531 121.2022031
 108.9840012  85.4364997 119.2959988 108.7030012  86.1454997 118.7179988
 109.9270012  85.3634997 119.1449988 109.0729291  85.5236711 119.1964967
  99.7360012  82.2214997 120.3699988  98.9690012  81.6894997 120.1589988
 100.4150012  81.9114997 119.7699988  99.7227877  82.1068300 120.2600716
 102.4760012  76.8494997 116.3819988 102.3770012  77.7964997 116.2769988
 101.7330012  76.4774997 115.9059988 102.3621184  76.9285863 116.3033621
 103.7400012  81.1714997 119.9459988 103.5040012  80.9514997 120.8469988
 102.9560012  80.9644997 119.4359988 103.6018504  81.1134586 120.0003431
 106.4550012  80.2984997 119.0209988 105.5080012  80.3304997 119.1539988
 106.7680012  79.6734997 119.6749988 106.3676707  80.2183998 119.1276060
 108.0890012  78.9324997 121.0269988 107.9930012  77.9804997 121.0209988
 107.7680012  79.2014997 121.8869988 108.0324070  78.8384035 121.1425441
  97.9160012  80.1424997 120.0739988  98.1280012  79.4354997 119.4639988
  97.8050012  79.7044997 120.9179988  97.9299721  79.9867084 120.1046843
 102.6970012  76.1434997 119.0529988 103.4090012  75.5034997 119.0389988
 102.5960012  76.4104997 118.1399988 102.7808066  76.0920079 118.9275677
 103.0510012  77.8264997 121.1069988 102.9190012  77.3504997 120.2869988
 102.4520012  78.5704997 121.0519988 102.9519071  77.8619618 120.9872886
  94.8150012  94.7384997 108.8439988  94.1680012  94.2764997 108.3109988
  95.1690012  94.0664997 109.4259988  94.7743849  94.5844723 108.8497959
  95.6850012  92.8194997 110.6479988  95.3500012  91.9394997 110.8199988
  95.9070012  93.1644997 111.5129988  95.6691783  92.7457501 110.7884208
 113.2330012  93.6284997 113.6289988 113.2120012  93.8134997 114.5679988
 113.9240012  94.1974997 113.2879988 113.3234618  93.7306606 113.7113864
 112.7970012  93.1964997 116.5509988 112.3090012  92.4604997 116.1789988
 113.3460012  92.8024997 117.2289988 112.8044820  93.0425889 116.5917813
 111.2470012  88.9854997 121.1889988 110.3810012  88.8804997 121.5829988
 111.6240012  89.7444997 121.6349988 111.1793308  89.0736900 121.3032393
 112.5480012  87.2424997 106.7029988 113.3980012  87.6634997 106.8299988
 112.5540012  86.5024997 107.3099988 112.6651372  87.2000803 106.8024344
 112.9430012  85.2954997 108.5259988 112.2160012  84.8164997 108.9239988
 113.5240012  85.5014997 109.2589988 112.9220473  85.2578103 108.6794528
 112.7020012  88.0804997 113.4739988 113.5350012  87.7024997 113.1939988
 112.8140012  89.0234997 113.3549988 112.8312647  88.1562218 113.4195487
 111.1880012  90.9584997 115.7809988 110.5410012  91.2834997 116.4069988
 110.6710012  90.5184997 115.1069988 111.0294029  90.9435004 115.7755827
 113.2110012  85.1964997 104.9179988 112.6890012  85.5534997 104.1989988
 113.1780012  85.8714997 105.5959988 113.1351634  85.3365413 104.9113145
 111.5600012  82.4364997 103.4679988 111.6560012  83.1034997 102.7879988
 111.4200012  81.6204997 102.9869988 111.5542272  82.4175655 103.3098347
 110.7290012  83.8164997 109.0889988 110.5790012  82.8714997 109.0689988
 110.3760012  84.0974997 109.9329988 110.6607448  83.7251481 109.2003705
  95.7650012  85.8944997 113.0999988  95.9490012  85.8124997 112.1639988
  96.6140012  85.7704997 113.5229988  95.9050151  85.8665073 113.0291451
 111.5860012  85.7864997 118.7279988 112.1690012  85.0524997 118.9199988
 112.1500012  86.5584997 118.7749988 111.7419769  85.7904227 118.7606159
 113.0820012  83.6894997 119.4129988 112.2190012  83.3104997 119.2469988
 113.6870012  82.9504997 119.3379988 113.0456119  83.5378268 119.3801528
 110.4400012  81.3994997 107.5519988 110.7200012  80.4924997 107.6759988
 111.1990012  81.8334997 107.1629988 110.5809277  81.3340942 107.5163682
 111.0520012  81.9804997 112.9879988 111.9850012  82.1924997 112.9529988
 110.8170012  82.0824997 113.9099988 111.1479244  82.0233100 113.1078892
 111.0810012  82.7174997 115.7639988 110.2380012  82.9854997 116.1299988
 111.5230012  83.5394997 115.5529988 111.0254158  82.8653291 115.7855491
  95.3620012  81.1654997 119.2409988  96.2820012  81.0434997 119.4769988
  94.9130012  80.4154997 119.6299988  95.4271580  81.0473727 119.3259006
 113.3640012  76.6974997 121.1169988 113.7140012  76.0434997 120.5119988
 113.5110012  77.5344997 120.6769988 113.4317887  76.7211548 120.9746858
 111.0530012  78.6624997 107.5999988 111.2360012  78.2134997 108.4259988
 110.4540012  78.0774997 107.1369988 110.9970202  78.5219975 107.6503275
  96.5830012  79.4774997 112.1319988  97.0290012  78.6854997 112.4339988
  97.0500012  80.1934997 112.5619988  96.7070831  79.4660685 112.2314006
  94.8870012  82.4764997 113.2009988  95.3790012  82.2554997 112.4099988
  95.2500012  83.3174997 113.4819988  95.0033126  82.5598357 113.1307531
 112.8840012  78.8064997 119.4659988 111.9660012  79.0774997 119.4309988
 113.0070012  78.2714997 118.6819988 112.7749730  78.7712508 119.3551923
 112.9200012  78.7294997 104.1279988 113.3320012  78.0084997 103.6529988
 113.6020012  79.3994997 104.1869988 113.0685885  78.7212368 104.0708915
  95.2010012  78.7344997 107.2549988  94.2760012  78.9434997 107.1259988
  95.6550012  79.2184997 106.5649988  95.1357292  78.8285343 107.1440720
 109.9720012  93.7184997 109.2009988 110.6240012  93.3714997 108.5929988
 110.4820012  94.2074997 109.8469988 110.1302637  93.7370597 109.2050236
  95.1650012  77.4724997 115.5989988  94.5000012  77.2264997 116.2429988
  94.7220012  78.0944997 115.0219988  95.0141318  77.5229410 115.6090898
  97.3570012  90.6474997 119.7439988  96.5360012  90.8224997 119.2829988
  97.1040012  90.5744997 120.6639988  97.2105585  90.6615544 119.8053561
 100.3110012  91.6224997 116.0019988  99.8860012  92.4314997 115.7199988
 101.2150012  91.7074997 115.6999988 100.3749975  91.7449300 115.9224816
 104.6220012  93.0214997 118.9619988 104.8070012  92.6874997 119.8399988
 105.4680012  93.3304997 118.6399988 104.7617539  93.0176047 119.0385605
 106.9670012  94.3074997 118.2059988 107.6440012  93.6744997 117.9659988
 107.2890012  94.7084997 119.0129988 107.1031637  94.2751154 118.2822793
 111.8840012  76.8964997 117.2849988 111.0720012  77.2214997 116.8979988
 112.1170012  76.1364997 116.7519988 111.8042203  76.8382758 117.1598880
  97.7130012  94.8784997 116.0499988  96.9920012  95.3184997 115.5989988
  97.3470012  94.6274997 116.8979988  97.5649651  94.9047242 116.1029640
 100.1800012  94.4784997 115.0799988  99.3150012  94.5504997 115.4839988
 100.1250012  95.0254997 114.2959988 100.0542085  94.5622685 115.0293362
 104.8900012  94.3664997 114.2549988 104.4340012  94.8954997 113.6009988
 105.0530012  94.9694997 114.9799988 104.8496068  94.5204607 114.2634838
 107.2180012  93.2444997 115.1999988 106.3130012  93.4094997 114.9339988
 107.6470012  94.0974997 115.1349988 107.1521324  93.3824339 115.1547976
 109.8220012  94.8144997 115.4949988 109.6400012  95.7304997 115.2849988
 109.9990012  94.4044997 114.6489988 109.8210210  94.8844822 115.3517885
  97.1270012  93.5014997 112.9599988  97.1090012  93.0764997 113.8169988
  97.9320012  93.1834997 112.5509988  97.2333529  93.4003013 113.0220946
  99.2690012  92.2114997 111.6149988  99.0500012  91.2954997 111.7849988
 100.0930012  92.3514997 112.0809988  99.3504420  92.1050520 111.7012774
 101.8060012  92.6814997 112.4639988 102.0190012  91.7934997 112.1769988
 101.8700012  92.6474997 113.4179988 101.8438232  92.5553102 112.5537397
 105.3140012  78.3454997 111.6079988 104.6400012  77.7164997 111.8639988
 105.8780012  77.8614997 111.0049988 105.2979230  78.1938744 111.5615340
 110.4570012  76.4534997 111.7209988 111.0610012  77.0004997 111.2189988
 109.5870012  76.7724997 111.4799988 110.4221208  76.5715137 111.6196886
 112.1840012  77.5914997 110.0539988 112.7960012  77.0774997 109.5269988
 112.5660012  78.4694997 110.0769988 112.3193371  77.6397866 109.9850041
  97.6410012  76.9794997 109.4299988  96.8640012  76.7454997 108.9229988
  98.1710012  76.1824997 109.4389988  97.6062330  76.8396988 109.3617742
 102.2200012  76.9064997 109.2439988 103.0950012  77.2944997 109.2139988
 102.0840012  76.6914997 110.1659988 102.3213695  76.9305184 109.3646440
 107.7770012  76.9364997 110.8929988 107.8530012  77.0314997 109.9429988
 107.5020012  76.0284997 111.0219988 107.7502321  76.8267867 110.7805079
 109.1300012  76.9624997 106.5849988 108.4280012  77.5774997 106.3749988
 108.6860012  76.1244997 106.7159988 108.9736450  76.9335639 106.5739000
  96.3780012  92.7254997 106.1309988  95.6930012  92.6874997 105.4639988
  96.3820012  93.6384997 106.4199988  96.2846998  92.8436733 106.0786771
 103.3640012  78.9864997 106.1329988 103.5420012  78.3404997 106.8159988
 103.3110012  79.8204997 106.5999988 103.3811999  79.0108009 106.2895917
 105.2430012  93.9354997 104.5289988 106.1090012  94.3014997 104.3509988
 104.9960012  93.4954997 103.7149988 105.3282392  93.9261756 104.3946289
 111.9520012  93.4984997 107.2079988 111.7570012  92.7504997 106.6429988
 111.9130012  94.2564997 106.6249988 111.9200380  93.4986099 107.0518384
  97.5990012  77.4934997 118.9479988  97.2330012  76.7284997 119.3899988
  98.5120012  77.5224997 119.2339988  97.6722736  77.3925640 119.0472502
  99.5720012  76.8444997 120.4839988 100.4700012  76.5704997 120.2989988
  99.1850012  76.1014997 120.9479988  99.6426612  76.7065914 120.5213643
  98.1960012  93.6454997 103.1569988  97.9290012  93.9324997 104.0299988
  98.9680012  93.0994997 103.3089988  98.2637488  93.6110294 103.2971050
 107.9930012  76.1764997 120.6659988 108.0700012  75.7504997 121.5199988
 108.8870012  76.1904997 120.3229988 108.1243428  76.1200879 120.7365310
 111.1690012  92.2494997 119.3579988 110.3870012  92.0634997 118.8379988
 111.0970012  93.1784997 119.5759988 111.0522274  92.3496643 119.3163018
 125.5750012  86.1354997 109.3889988 125.6640012  87.0794997 109.2569988
 124.9370012  85.8604997 108.7309988 125.5009081  86.2274830 109.2819614
 124.5080012  85.3904997 112.8079988 124.4700012  84.7444997 113.5129988
 124.1860012  84.9244997 112.0369988 124.4592333  85.2389408 112.8002978
 116.8770012  85.0054997 114.4009988 116.9180012  84.3794997 115.1239988
 117.5800012  85.6294997 114.5829988 116.9776363  85.0041196 114.5246044
 128.2140012  88.3294997 111.1089988 127.7740012  87.6094997 111.5599988
 128.2010012  89.0504997 111.7389988 128.1520226  88.3283731 111.2558494
 117.8000012  89.4554997 112.9359988 117.4310012  88.6534997 112.5659988
 118.7410012  89.2864997 112.9819988 117.8767289  89.3230153 112.8916316
 114.4100012  83.1154997 108.3289988 113.9630012  83.9614997 108.3099988
 113.8490012  82.5354997 107.8129988 114.2729900  83.1529916 108.2566801
 115.1210012  85.2774997 110.4539988 115.3340012  84.5074997 110.9819988
 115.8590012  85.3664997 109.8509988 115.2499044  85.1841968 110.4447123
 125.3260012  93.4344997 111.3209988 125.9460012  92.7574997 111.0479988
 125.1180012  93.2164997 112.2299988 125.3826726  93.3124800 111.4064812
 122.8980012  87.8234997 113.2139988 123.2020012  87.1374997 112.6189988
 123.6190012  87.9414997 113.8319988 123.0370671  87.7456304 113.2161816
 131.5610012  79.4244997 114.0749988 131.6100012  80.0344997 114.8099988
 131.9860012  79.8854997 113.3519988 131.6251746  79.5703796 114.0779175
 126.0390012  82.2174997 113.5409988 126.1810012  81.2714997 113.5619988
 125.9320012  82.4244997 112.6129988 126.0439919  82.1158246 113.4183408
 119.1930012  80.3184997 110.8139988 119.2370012  81.1784997 110.3949988
 118.7360012  79.7664997 110.1799988 119.1372240  80.3614422 110.6709864
 126.9160012  80.4494997 109.2149988 127.5620012  80.1204997 109.8389988
 127.4260012  80.9674997 108.5919988 127.0734299  80.4744450 109.2162731
 115.8140012  82.7154997 111.5759988 116.4670012  82.1654997 112.0079988
 115.8380012  82.4414997 110.6589988 115.9066683  82.6031466 111.5112123
 120.9700012  84.2654997 110.7909988 121.5860012  83.7394997 111.3009988
 120.3840012  83.6254997 110.3879988 120.9750810  84.1069208 110.8063173
 131.9520012  80.9024997 116.3099988 131.2640012  81.5604997 116.2149988
 131.9680012  80.7054997 117.2469988 131.8599540  80.9659819 116.4235990
 118.0040012  79.2364997 114.8879988 117.7850012  79.7664997 114.1219988
 117.3360012  79.4634997 115.5349988 117.8837600  79.3396906 114.8706379
 125.3730012  88.7364997 108.4319988 125.0770012  88.4144997 107.5809988
 125.0480012  89.6364997 108.4729988 125.2886371  88.8140215 108.3211801
 120.5730012  86.9124997 115.1749988 119.8330012  87.5104997 115.2789988
 121.2870012  87.4664997 114.8599988 120.5682237  87.0692831 115.1466465
 128.6800012  79.7404997 111.1949988 128.4640012  78.9744997 111.7279988
 129.3350012  80.2124997 111.7079988 128.7390632  79.6995889 111.3372861
 117.5970012  81.1284997 112.8399988 118.2110012  81.7614997 113.2129988
 118.1090012  80.6564997 112.1839988 117.7501981  81.1512267 112.8022908
 118.9800012  88.8764997 115.9619988 118.9750012  89.7564997 115.5839988
 118.1270012  88.7934997 116.3869988 118.8639464  88.9856117 115.9677907
 115.1010012  88.5474997 106.7439988 114.8290012  88.7764997 105.8559988
 115.1470012  89.3854997 107.2049988 115.0699482  88.6921318 106.6846273
 128.7260012  90.1694997 113.4569988 127.7850012  90.2274997 113.6189988
 129.0030012  91.0754997 113.3199988 128.6344679  90.2999443 113.4606815
 129.0270012  78.4554997 114.8749988 128.2910012  79.0664997 114.8369988
 129.7100012  78.8704997 114.3479988 129.0186541  78.5951374 114.7985832
 122.0300012  76.5424997 112.3399988 121.9130012  75.5934997 112.2859988
 121.1750012  76.8744997 112.6139988 121.8984212  76.4575571 112.3696497
 126.9780012  91.9504997 110.0819988 127.4040012  91.2434997 109.5969988
 127.2950012  92.7514997 109.6659988 127.0791683  91.9621017 109.9593680
 128.1380012  89.8514997 108.5909988 127.8800012  89.1614997 107.9799988
 128.2090012  89.4084997 109.4369988 128.1122856  89.6972124 108.6216885
 129.8240012  88.4174997 117.0679988 129.9640012  87.8264997 116.3289988
 129.9910012  89.2904997 116.7119988 129.8657411  88.4545428 116.9186894
 124.2970012  85.3794997 106.8409988 123.5850012  85.9144997 106.4889988
 124.9880012  85.4354997 106.1809988 124.2930132  85.4602543 106.7036289
 131.6660012  84.7574997 115.1339988 131.0130012  85.4524997 115.2239988
 132.1310012  84.9674997 114.3249988 131.6395274  84.8810643 115.0368462
 127.7020012  85.5894997 107.7929988 126.9700012  85.8174997 108.3659988
 128.1500012  84.8754997 108.2469988 127.6622725  85.5242145 107.9328816
 127.6000012  83.7634997 116.8599988 127.6800012  84.5264997 117.4319988
 126.9980012  84.0424997 116.1699988 127.5295756  83.9057134 116.8450589
 119.3480012  86.2194997 109.6749988 119.0170012  85.8494997 108.8569988
 119.9360012  85.5494997 110.0219988 119.3821873  86.0781156 109.6098102
 120.7140012  89.6474997 112.3559988 120.6200012  89.0694997 111.5999988
 121.4440012  89.2764997 112.8529988 120.7997387  89.5181663 112.3195342
 119.7140012  84.9884997 113.3089988 120.2800012  85.1094997 112.5459988
 120.0330012  85.6254997 113.9469988 119.8345474  85.0912219 113.2909862
 126.0230012  90.4914997 114.0429988 125.7830012  91.1534997 114.6909988
 125.8250012  89.6574997 114.4679988 125.9633808  90.4693134 114.1891524
 120.5940012  89.3874997 118.0259988 120.2830012  90.1694997 118.4809988
 119.9440012  89.2344997 117.3399988 120.4635558  89.4739105 117.9955871
 126.5730012  84.7514997 105.4779988 127.1530012  84.9014997 106.2249988
 126.9870012  85.2224997 104.7539988 126.7082997  84.8356578 105.4824058
 117.5140012  85.5854997 117.2539988 117.5850012  86.2364997 117.9529988
 116.6240012  85.6884997 116.9189988 117.4033005  85.6885427 117.3043495
 124.3000012  91.4884997 108.9129988 124.7740012  91.7834997 109.6899988
 123.7370012  92.2264997 108.6799988 124.2888184  91.6287247 108.9879628
 118.8340012  91.4594997 118.7889988 118.8410012  91.3234997 117.8419988
 117.9180012  91.3414997 119.0409988 118.7111714  91.4249430 118.6934666
 130.2720012  76.5014997 105.2909988 129.3720012  76.6404997 105.5859988
 130.5240012  77.3324997 104.8889988 130.1828702  76.6329074 105.2770205
 118.3380012  85.2894997 107.2639988 118.0460012  86.0574997 106.7739988
 117.6640012  84.6294997 107.1019988 118.2068111  85.3055587 107.1748978
 114.4310012  87.6524997 116.0789988 113.9300012  87.6244997 115.2639988
 114.4360012  86.7464997 116.3889988 114.3630944  87.5262396 116.0093226
 114.1810012  90.4324997 112.9629988 115.1270012  90.2884997 112.9439988
 114.0690012  91.2164997 113.4999988 114.2952727  90.5188046 113.0330072
 132.3790012  91.0984997 118.6459988 132.3300012  90.1434997 118.6089988
 131.5520012  91.3664997 119.0469988 132.2604940  91.0038998 118.6951375
 123.3580012  90.6724997 117.5219988 123.4450012  91.4984997 117.9969988
 122.4940012  90.3424997 117.7709988 123.2531964  90.7409878 117.6206549
 123.7720012  94.4444997 107.3279988 123.6970012  94.3234997 106.3809988
 123.8050012  95.3944997 107.4459988 123.7662068  94.5562646 107.2144967
 117.4250012  93.2334997 109.1089988 117.5780012  92.8854997 109.9869988
 116.5750012  92.8774997 108.8539988 117.3309166  93.1376216 109.1948079
 126.5430012  93.5244997 107.0789988 125.6070012  93.6244997 107.2579988
 126.8230012  92.8154997 107.6579988 126.4529553  93.4423406 107.1817087
 129.5310012  82.5914997 119.1259988 129.1240012  83.0724997 118.4049988
 129.5720012  81.6864997 118.8179988 129.4808437  82.5349374 118.9856683
 116.6800012  88.9754997 117.1229988 116.8960012  88.6144997 117.9819988
 115.8250012  88.6014997 116.9129988 116.5939292  88.8754111 117.2123386
 119.2990012  77.4454997 113.1179988 118.4370012  77.3584997 112.7099988
 119.2760012  78.3014997 113.5459988 119.1780409  77.5492883 113.1200589
 123.9620012  77.1674997 116.4929988 124.3820012  76.7524997 117.2459988
 123.0290012  76.9894997 116.6099988 123.8933644  77.0865900 116.6119539
 127.2880012  80.9234997 117.3459988 126.7740012  80.7974997 118.1439988
 127.1330012  81.8354997 117.1019988 127.1966852  81.0296132 117.4222158
 119.3900012  82.4114997 114.2129988 118.7480012  82.3704997 114.9219988
 119.4270012  83.3374997 113.9749988 119.3070664  82.5311430 114.2779219
 119.3870012  82.6324997 109.1249988 118.4940012  82.2914997 109.0659988
 119.8370012  82.2554997 108.3689988 119.3258130  82.5349631 109.0147702
 124.9220012  83.0484997 107.9419988 124.5130012  83.8634997 107.6509988
 125.6430012  82.9084997 107.3279988 124.9634537  83.1412018 107.8191342
 124.0240012  83.2234997 119.4299988 123.4620012  82.5194997 119.7509988
 124.8510012  83.1034997 119.8979988 124.0587095  83.1107883 119.5372330
 125.9270012  82.4944997 110.7559988 125.7320012  83.0994997 110.0409988
 126.1080012  81.6604997 110.3219988 125.9247614  82.4646300 110.5994405
 117.1400012  82.7314997 116.0799988 117.1020012  83.1314997 116.9489988
 116.6490012  81.9144997 116.1709988 117.0684684  82.6758069 116.2111059
 113.7480012  79.8474997 109.9309988 114.3790012  79.8184997 110.6499988
 114.1970012  79.4224997 109.1999988 113.8950918  79.7860836 109.9306441
 125.1910012  84.1324997 115.4269988 125.5140012  83.5014997 114.7839988
 124.7510012  83.5974997 116.0879988 125.1757484  83.9738387 115.4283198
 121.9680012  80.0594997 110.2109988 121.0570012  80.1164997 110.4999988
 122.4740012  79.9994997 111.0219988 121.9116899  80.0591941 110.3601184
 116.7970012  81.6884997 109.0379988 115.9070012  81.7884997 108.6979988
 117.0930012  80.8464997 108.6919988 116.7152823  81.5883545 108.9447213
 120.4500012  81.6884997 106.6949988 121.3810012  81.8174997 106.8729988
 120.2350012  82.3584997 106.0449988 120.5484247  81.7966565 106.6315747
 126.3730012  79.2944997 113.4759988 125.6970012  79.4254997 114.1399988
 125.8880012  79.1394997 112.6649988 126.2147146  79.2915157 113.4574469
 129.6610012  94.9664997 119.7519988 129.8610012  95.3904997 118.9179988
 130.3160012  95.3094997 120.3589988 129.7770072  95.0709857 119.7198592
 117.2590012  87.4404997 119.3599988 117.9910012  87.6944997 119.9219988
 116.4790012  87.6444997 119.8759988 117.2537073  87.5028160 119.5066151
 123.2880012  82.8474997 112.0979988 123.8530012  82.3004997 111.5509988
 123.1410012  82.3254997 112.8869988 123.3453380  82.7022259 112.1298695
 118.2900012  78.9834997 108.5169988 117.9730012  78.0814997 108.4809988
 119.0720012  78.9854997 107.9639988 118.3522408  78.8602474 108.4373569
 121.9150012  81.2354997 114.5119988 121.0790012  81.6894997 114.6229988
 122.4390012  81.5114997 115.2639988 121.8715416  81.3348660 114.6288119
 122.4590012  87.4484997 106.1969988 121.7140012  86.9414997 105.8749988
 122.3250012  87.4974997 107.1439988 122.3388776  87.3856940 106.2808647
 129.6090012  86.5814997 114.9839988 130.2510012  87.0384997 114.4399988
 128.7790012  86.6944997 114.5209988 129.5845963  86.6592704 114.8470177
 123.9780012  87.6324997 117.4339988 123.6330012  87.2514997 118.2409988
 123.7780012  88.5664997 117.5049988 123.9037527  87.7065135 117.5540689
 127.0750012  82.1294997 106.0569988 127.9670012  81.9924997 106.3759988
 127.1320012  82.9204997 105.5199988 127.2046504  82.2176052 106.0280818
 117.5840012  86.7434997 111.9669988 118.3290012  86.7414997 111.3659988
 117.6620012  85.9204997 112.4479988 117.6964995  86.6318887 111.9498282
 124.5850012  88.9074997 105.2229988 124.2890012  89.7334997 105.6039988
 123.8820012  88.2874997 105.4189988 124.4494914  88.9368199 105.3016443
 114.5920012  85.2044997 117.2819988 114.8150012  84.7864997 118.1139988
 113.9900012  84.5914997 116.8589988 114.5411759  85.0644668 117.3387022
 121.6080012  84.7214997 119.4949988 121.3120012  84.5554997 118.5999988
 122.5400012  84.5014997 119.4839988 121.6934166  84.6690640 119.3710536
 126.2290012  90.0944997 117.3849988 125.3280012  90.2774997 117.1169988
 126.2630012  90.3534997 118.3049988 126.1103139  90.1545849 117.4728099
 131.9230012  88.1394997 118.5889988 131.0720012  88.3774997 118.2219988
 132.5140012  88.1224997 117.8359988 131.8862487  88.1698258 118.4368893
 127.4160012  85.9334997 113.2379988 126.4870012  85.7014997 113.2109988
 127.8670012  85.1564997 112.9079988 127.3499216  85.7967238 113.1896917
 119.9590012  90.2614997 109.3709988 120.4860012  91.0344997 109.1709988
 119.0790012  90.4864997 109.0689988 119.9122031  90.3977545 109.3027912
 115.7140012  85.1234997 103.9579988 116.3300012  85.7504997 104.3379988
 114.8520012  85.4394997 104.2299988 115.6817698  85.2519430 104.0467183
 121.3860012  87.9244997 108.9469988 121.1450012  88.8494997 108.9889988
 120.6450012  87.4654997 109.3439988 121.2529225  87.9890933 109.0063742
 121.9010012  92.0734997 115.2629988 122.2630012  92.9284997 115.0289988
 122.4320012  91.7814997 116.0029988 122.0224473  92.1511060 115.3310855
 120.0690012  92.9464997 108.4929988 119.1190012  93.0514997 108.5439988
 120.4210012  93.7664997 108.8369988 119.9864195  93.0718800 108.5465502
 125.4450012  88.1724997 114.9629988 125.0190012  87.9454997 115.7899988
 126.0250012  87.4344997 114.7809988 125.4651868  88.0415299 115.0515830
 128.1030012  92.7244997 117.4329988 127.5020012  92.1694997 116.9369988
 128.3850012  93.3914997 116.8059988 128.0588804  92.7386625 117.2804849
 116.2260012  79.9574997 116.8399988 115.3330012  80.2964997 116.7719988
 116.1270012  79.1024997 117.2579988 116.0904164  79.8882588 116.8872235
 128.5140012  87.7744997 106.2639988 128.2360012  87.0464997 106.8199988
 129.4410012  87.8934997 106.4689988 128.6013124  87.6908802 106.3678845
 115.8770012  91.7624997 115.2749988 116.0940012  90.8304997 115.2439988
 116.1230012  92.0364997 116.1579988 115.9399549  91.6720636 115.3901763
 120.6760012  89.7834997 104.9399988 120.8220012  89.2634997 105.7299988
 120.6730012  90.6904997 105.2469988 120.6955792  89.8348842 105.0896117
 117.1290012  87.0364997 105.4509988 116.4430012  87.3884997 106.0179988
 117.6510012  87.7994997 105.2039988 117.1056852  87.1878578 105.4952118
 124.9600012  79.6984997 115.7299988 125.6590012  79.7724997 116.3799988
 124.5790012  78.8344997 115.8839988 125.0041767  79.5917624 115.8398322
 125.7450012  79.3504997 106.8269988 125.9650012  79.8224997 106.0239988
 126.3030012  79.7454997 107.4969988 125.8504968  79.4684285 106.8077331
 123.4130012  91.4814997 105.6899988 122.5970012  91.9784997 105.7419988
 123.9430012  91.9564997 105.0499988 123.3729161  91.6137722 105.6105956
 122.9450012  81.0784997 107.6619988 123.7570012  81.5834997 107.7079988
 122.7000012  80.9334997 108.5759988 123.0230520  81.1280375 107.7918517
 123.4800012  82.0644997 116.8459988 123.5990012  82.6384997 117.6039988
 124.1360012  81.3764997 116.9609988 123.5849025  82.0499858 116.9651321
 123.8280012  78.1594997 108.5999988 123.4820012  78.7774997 109.2439988
 124.4870012  78.6604997 108.1179988 123.8696968  78.3116278 108.6229383
 120.7520012  92.5254997 105.6709988 120.9120012  93.3244997 105.1709988
 120.5540012  92.8314997 106.5559988 120.7471637  92.6764020 105.7221144
 119.4860012  79.2224997 105.2869988 119.4030012  80.1114997 105.6339988
 120.3760012  78.9574997 105.5189988 119.5949469  79.3081430 105.3657626
 129.6850012  79.9714997 117.6809988 128.7680012  80.2344997 117.5939988
 130.0200012  79.9684997 116.7849988 129.6048613  80.0070761 117.5478837
 128.2870012  83.7224997 111.7769988 127.4890012  83.3074997 111.4489988
 128.7320012  83.0314997 112.2679988 128.2379885  83.5723543 111.7984889
 129.3730012  92.9784997 113.3999988 129.2180012  93.6564997 112.7419988
 130.3060012  93.0504997 113.6029988 129.4778657  93.0809546 113.3374360
 116.8690012  77.0964997 112.1369988 116.6400012  77.1554997 111.2089988
 116.4260012  76.3044997 112.4429988 116.7778530  76.9975753 112.0514786
 115.7990012  91.0364997 108.2969988 114.9670012  91.5094997 108.3239988
 116.3450012  91.5464997 107.6989988 115.7590352  91.1701332 108.2198463
 115.0870012  93.6494997 119.6269988 115.6280012  93.4324997 120.3869988
 114.6060012  92.8434997 119.4369988 115.0959951  93.5109270 119.7052576
 119.6850012  92.5684997 121.2469988 120.4520012  92.1094997 121.5879988
 119.6630012  92.3424997 120.3179988 119.7871275  92.4750186 121.1680101
 126.2620012  90.9484997 119.9769988 125.9110012  90.0924997 120.2199988
 126.9880012  91.0914997 120.5839988 126.3120769  90.8505636 120.0923619
 114.9940012  87.4594997 120.5809988 115.1380012  86.5574997 120.2949988
 114.2220012  87.7454997 120.0939988 114.9092753  87.3746816 120.4759505
 121.6500012  87.4294997 120.0139988 121.3210012  87.7004997 119.1569988
 121.8020012  86.4884997 119.9269988 121.6254809  87.3393862 119.8848244
 127.3840012  87.3454997 117.3969988 128.1300012  87.9334997 117.2779988
 126.6270012  87.9274997 117.4609988 127.3837820  87.5047143 117.3893590
 115.8270012  84.6594997 120.0009988 116.2350012  83.8024997 119.8799988
 115.5670012  84.6744997 120.9219988 115.8477568  84.5440807 120.1089588
 120.4850012  85.7754997 105.0199988 120.0250012  85.2914997 105.7059988
 120.7400012  85.1074997 104.3839988 120.4564902  85.6188731 105.0279334
 119.7740012  83.6684997 117.3759988 119.1560012  84.3434997 117.6559988
 120.1180012  83.9894997 116.5419988 119.7359132  83.8042411 117.3016262
 124.7940012  86.1404997 120.6529988 125.7470012  86.2234997 120.6259988
 124.6330012  85.4284997 121.2729988 124.9026426  86.0556746 120.7330579
 120.1130012  81.0234997 118.4579988 120.2630012  80.2944997 117.8559988
 120.1160012  81.8004997 117.8989988 120.1339302  81.0287851 118.3000692
 120.5260012  79.3934997 115.9509988 121.0620012  79.8444997 115.2989988
 119.6740012  79.2854997 115.5279988 120.4842178  79.4406390 115.8045756
 122.1080012  84.8324997 116.1899988 122.8580012  84.6764997 115.6169988
 121.7690012  85.6844997 115.9149988 122.1648921  84.9262968 116.0743561
 126.5230012  82.6474997 121.2189988 126.7160012  81.7164997 121.1069988
 127.3810012  83.0724997 121.2079988 126.6652934  82.5776531 121.2022031
 127.8400012  85.4364997 119.2959988 127.5590012  86.1454997 118.7179988
 128.7830012  85.3634997 119.1449988 127.9289291  85.5236711 119.1964967
 118.5920012  82.2214997 120.3699988 117.8250012  81.6894997 120.1589988
 119.2710012  81.9114997 119.7699988 118.5787877  82.1068300 120.2600716
 121.3320012  76.8494997 116.3819988 121.2330012  77.7964997 116.2769988
 120.5890012  76.4774997 115.9059988 121.2181184  76.9285863 116.3033621
 122.5960012  81.1714997 119.9459988 122.3600012  80.9514997 120.8469988
 121.8120012  80.9644997 119.4359988 122.4578504  81.1134586 120.0003431
 125.3110012  80.2984997 119.0209988 124.3640012  80.3304997 119.1539988
 125.6240012  79.6734997 119.6749988 125.2236707  80.2183998 119.1276060
 126.9450012  78.9324997 121.0269988 126.8490012  77.9804997 121.0209988
 126.6240012  79.2014997 121.8869988 126.8884070  78.8384035 121.1425441
 116.7720012  80.1424997 120.0739988 116.9840012  79.4354997 119.4639988
 116.6610012  79.7044997 120.9179988 116.7859721  79.9867084 120.1046843
 121.5530012  76.1434997 119.0529988 122.2650012  75.5034997 119.0389988
 121.4520012  76.4104997 118.1399988 121.6368066  76.0920079 118.9275677
 121.9070012  77.8264997 121.1069988 121.7750012  77.3504997 120.2869988
 121.3080012  78.5704997 121.0519988 121.8079071  77.8619618 120.9872886
 113.6710012  94.7384997 108.8439988 113.0240012  94.2764997 108.3109988
 114.0250012  94.0664997 109.4259988 113.6303849  94.5844723 108.8497959
 114.5410012  92.8194997 110.6479988 114.2060012  91.9394997 110.8199988
 114.7630012  93.1644997 111.5129988 114.5251783  92.7457500 110.7884208
 132.0890012  93.6284997 113.6289988 132.0680012  93.8134997 114.5679988
 132.7800012  94.1974997 113.2879988 132.1794618  93.7306606 113.7113864
 131.6530012  93.1964997 116.5509988 131.1650012  92.4604997 116.1789988
 132.2020012  92.8024997 117.2289988 131.6604820  93.0425889 116.5917813
 130.1030012  88.9854997 121.1889988 129.2370012  88.8804997 121.5829988
 130.4800012  89.7444997 121.6349988 130.0353308  89.0736900 121.3032393
 131.4040012  87.2424997 106.7029988 132.2540012  87.6634997 106.8299988
 131.4100012  86.5024997 107.3099988 131.5211372  87.2000803 106.8024344
 131.7990012  85.2954997 108.5259988 131.0720012  84.8164997 108.9239988
 132.3800012  85.5014997 109.2589988 131.7780473  85.2578103 108.6794528
 131.5580012  88.0804997 113.4739988 132.3910012  87.7024997 113.1939988
 131.6700012  89.0234997 113.3549988 131.6872647  88.1562218 113.4195487
 130.0440012  90.9584997 115.7809988 129.3970012  91.2834997 116.4069988
 129.5270012  90.5184997 115.1069988 129.8854029  90.9435004 115.7755827
 132.0670012  85.1964997 104.9179988 131.5450012  85.5534997 104.1989988
 132.0340012  85.8714997 105.5959988 131.9911634  85.3365413 104.9113145
 129.5850012  83.8164997 109.0889988 129.4350012  82.8714997 109.0689988
 129.2320012  84.0974997 109.9329988 129.5167448  83.7251481 109.2003705
 114.6210012  85.8944997 113.0999988 114.8050012  85.8124997 112.1639988
 115.4700012  85.7704997 113.5229988 114.7610151  85.8665073 113.0291451
 130.4420012  85.7864997 118.7279988 131.0250012  85.0524997 118.9199988
 131.0060012  86.5584997 118.7749988 130.5979769  85.7904227 118.7606159
 131.9380012  83.6894997 119.4129988 131.0750012  83.3104997 119.2469988
 132.5430012  82.9504997 119.3379988 131.9016119  83.5378268 119.3801528
 129.2960012  81.3994997 107.5519988 129.5760012  80.4924997 107.6759988
 130.0550012  81.8334997 107.1629988 129.4369277  81.3340942 107.5163682
 129.9080012  81.9804997 112.9879988 130.8410012  82.1924997 112.9529988
 129.6730012  82.0824997 113.9099988 130.0039244  82.0233100 113.1078892
 129.9370012  82.7174997 115.7639988 129.0940012  82.9854997 116.1299988
 130.3790012  83.5394997 115.5529988 129.8814158  82.8653291 115.7855491
 114.2180012  81.1654997 119.2409988 115.1380012  81.0434997 119.4769988
 113.7690012  80.4154997 119.6299988 114.2831580  81.0473727 119.3259006
 132.2200012  76.6974997 121.1169988 132.5700012  76.0434997 120.5119988
 132.3670012  77.5344997 120.6769988 132.2877887  76.7211548 120.9746858
 129.9090012  78.6624997 107.5999988 130.0920012  78.2134997 108.4259988
 129.3100012  78.0774997 107.1369988 129.8530202  78.5219975 107.6503275
 115.4390012  79.4774997 112.1319988 115.8850012  78.6854997 112.4339988
 115.9060012  80.1934997 112.5619988 115.5630831  79.4660685 112.2314006
 113.7430012  82.4764997 113.2009988 114.2350012  82.2554997 112.4099988
 114.1060012  83.3174997 113.4819988 113.8593126  82.5598357 113.1307531
 131.7400012  78.8064997 119.4659988 130.8220012  79.0774997 119.4309988
 131.8630012  78.2714997 118.6819988 131.6309729  78.7712508 119.3551923
 114.0570012  78.7344997 107.2549988 113.1320012  78.9434997 107.1259988
 114.5110012  79.2184997 106.5649988 113.9917292  78.8285343 107.1440720
 128.8280012  93.7184997 109.2009988 129.4800012  93.3714997 108.5929988
 129.3380012  94.2074997 109.8469988 128.9862637  93.7370597 109.2050236
 114.0210012  77.4724997 115.5989988 113.3560012  77.2264997 116.2429988
 113.5780012  78.0944997 115.0219988 113.8701318  77.5229410 115.6090898
 116.2130012  90.6474997 119.7439988 115.3920012  90.8224997 119.2829988
 115.9600012  90.5744997 120.6639988 116.0665585  90.6615544 119.8053561
 119.1670012  91.6224997 116.0019988 118.7420012  92.4314997 115.7199988
 120.0710012  91.7074997 115.6999988 119.2309975  91.7449300 115.9224816
 123.4780012  93.0214997 118.9619988 123.6630012  92.6874997 119.8399988
 124.3240012  93.3304997 118.6399988 123.6177539  93.0176047 119.0385605
 125.8230012  94.3074997 118.2059988 126.5000012  93.6744997 117.9659988
 126.1450012  94.7084997 119.0129988 125.9591637  94.2751154 118.2822793
 130.7400012  76.8964997 117.2849988 129.9280012  77.2214997 116.8979988
 130.9730012  76.1364997 116.7519988 130.6602203  76.8382758 117.1598880
 116.5690012  94.8784997 116.0499988 115.8480012  95.3184997 115.5989988
 116.2030012  94.6274997 116.8979988 116.4209651  94.9047242 116.1029640
 119.0360012  94.4784997 115.0799988 118.1710012  94.5504997 115.4839988
 118.9810012  95.0254997 114.2959988 118.9102085  94.5622685 115.0293362
 123.7460012  94.3664997 114.2549988 123.2900012  94.8954997 113.6009988
 123.9090012  94.9694997 114.9799988 123.7056068  94.5204607 114.2634838
 126.0740012  93.2444997 115.1999988 125.1690012  93.4094997 114.9339988
 126.5030012  94.0974997 115.1349988 126.0081324  93.3824339 115.1547976
 128.6780012  94.8144997 115.4949988 128.4960012  95.7304997 115.2849988
 128.8550012  94.4044997 114.6489988 128.6770210  94.8844822 115.3517885
 115.9830012  93.5014997 112.9599988 115.9650012  93.0764997 113.8169988
 116.7880012  93.1834997 112.5509988 116.0893529  93.4003013 113.0220946
 118.1250012  92.2114997 111.6149988 117.9060012  91.2954997 111.7849988
 118.9490012  92.3514997 112.0809988 118.2064420  92.1050520 111.7012774
 120.6620012  92.6814997 112.4639988 120.8750012  91.7934997 112.1769988
 120.7260012  92.6474997 113.4179988 120.6998232  92.5553102 112.5537397
 124.1700012  78.3454997 111.6079988 123.4960012  77.7164997 111.8639988
 124.7340012  77.8614997 111.0049988 124.1539230  78.1938744 111.5615340
 129.3130012  76.4534997 111.7209988 129.9170012  77.0004997 111.2189988
 128.4430012  76.7724997 111.4799988 129.2781208  76.5715137 111.6196886
 131.0400012  77.5914997 110.0539988 131.6520012  77.0774997 109.5269988
 131.4220012  78.4694997 110.0769988 131.1753371  77.6397866 109.9850041
 116.4970012  76.9794997 109.4299988 115.7200012  76.7454997 108.9229988
 117.0270012  76.1824997 109.4389988 116.4622330  76.8396988 109.3617742
 115.3330012  76.7774997 105.2339988 115.7720012  77.3884997 104.6419988
 114.7000012  77.3154997 105.7079988 115.3074514  76.9339257 105.2170930
 121.0760012  76.9064997 109.2439988 121.9510012  77.2944997 109.2139988
 120.9400012  76.6914997 110.1659988 121.1773695  76.9305184 109.3646440
 126.6330012  76.9364997 110.8929988 126.7090012  77.0314997 109.9429988
 126.3580012  76.0284997 111.0219988 126.6062321  76.8267867 110.7805079
 127.9860012  76.9624997 106.5849988 127.2840012  77.5774997 106.3749988
 127.5420012  76.1244997 106.7159988 127.8296450  76.9335639 106.5739000
 115.2340012  92.7254997 106.1309988 114.5490012  92.6874997 105.4639988
 115.2380012  93.6384997 106.4199988 115.1406998  92.8436733 106.0786771
 122.2200012  78.9864997 106.1329988 122.3980012  78.3404997 106.8159988
 122.1670012  79.8204997 106.5999988 122.2371999  79.0108009 106.2895917
 130.8080012  93.4984997 107.2079988 130.6130012  92.7504997 106.6429988
 130.7690012  94.2564997 106.6249988 130.7760380  93.4986099 107.0518384
 116.4550012  77.4934997 118.9479988 116.0890012  76.7284997 119.3899988
 117.3680012  77.5224997 119.2339988 116.5282736  77.3925640 119.0472502
 118.4280012  76.8444997 120.4839988 119.3260012  76.5704997 120.2989988
 118.0410012  76.1014997 120.9479988 118.4986612  76.7065914 120.5213643
 126.8490012  76.1764997 120.6659988 126.9260012  75.7504997 121.5199988
 127.7430012  76.1904997 120.3229988 126.9803428  76.1200879 120.7365310
 130.0250012  92.2494997 119.3579988 129.2430012  92.0634997 118.8379988
 129.9530012  93.1784997 119.5759988 129.9082274  92.3496643 119.3163018
 144.4310012  86.1354997 109.3889988 144.5200012  87.0794997 109.2569988
 143.7930012  85.8604997 108.7309988 144.3569081  86.2274830 109.2819614
 143.3640012  85.3904997 112.8079988 143.3260012  84.7444997 113.5129988
 143.0420012  84.9244997 112.0369988 143.3152333  85.2389408 112.8002978
 135.7330012  85.0054997 114.4009988 135.7740012  84.3794997 115.1239988
 136.4360012  85.6294997 114.5829988 135.8336363  85.0041196 114.5246044
 136.6560012  89.4554997 112.9359988 136.2870012  88.6534997 112.5659988
 137.5970012  89.2864997 112.9819988 136.7327289  89.3230153 112.8916316
 133.2660012  83.1154997 108.3289988 132.8190012  83.9614997 108.3099988
 132.7050012  82.5354997 107.8129988 133.1289900  83.1529916 108.2566801
 133.9770012  85.2774997 110.4539988 134.1900012  84.5074997 110.9819988
 134.7150012  85.3664997 109.8509988 134.1059044  85.1841968 110.4447123
 144.1820012  93.4344997 111.3209988 144.8020012  92.7574997 111.0479988
 143.9740012  93.2164997 112.2299988 144.2386726  93.3124800 111.4064812
 141.7540012  87.8234997 113.2139988 142.0580012  87.1374997 112.6189988
 142.4750012  87.9414997 113.8319988 141.8930671  87.7456305 113.2161816
 144.8950012  82.2174997 113.5409988 145.0370012  81.2714997 113.5619988
 144.7880012  82.4244997 112.6129988 144.8999919  82.1158246 113.4183408
 138.0490012  80.3184997 110.8139988 138.0930012  81.1784997 110.3949988
 137.5920012  79.7664997 110.1799988 137.9932240  80.3614422 110.6709864
 134.6700012  82.7154997 111.5759988 135.3230012  82.1654997 112.0079988
 134.6940012  82.4414997 110.6589988 134.7626683  82.6031466 111.5112123
 139.8260012  84.2654997 110.7909988 140.4420012  83.7394997 111.3009988
 139.2400012  83.6254997 110.3879988 139.8310810  84.1069208 110.8063173
 136.8600012  79.2364997 114.8879988 136.6410012  79.7664997 114.1219988
 136.1920012  79.4634997 115.5349988 136.7397600  79.3396906 114.8706379
 144.2290012  88.7364997 108.4319988 143.9330012  88.4144997 107.5809988
 143.9040012  89.6364997 108.4729988 144.1446371  88.8140215 108.3211801
 139.4290012  86.9124997 115.1749988 138.6890012  87.5104997 115.2789988
 140.1430012  87.4664997 114.8599988 139.4242237  87.0692831 115.1466465
 136.4530012  81.1284997 112.8399988 137.0670012  81.7614997 113.2129988
 136.9650012  80.6564997 112.1839988 136.6061981  81.1512267 112.8022908
 137.8360012  88.8764997 115.9619988 137.8310012  89.7564997 115.5839988
 136.9830012  88.7934997 116.3869988 137.7199464  88.9856117 115.9677907
 133.9570012  88.5474997 106.7439988 133.6850012  88.7764997 105.8559988
 134.0030012  89.3854997 107.2049988 133.9259482  88.6921318 106.6846273
 140.8860012  76.5424997 112.3399988 140.7690012  75.5934997 112.2859988
 140.0310012  76.8744997 112.6139988 140.7544212  76.4575571 112.3696497
 143.1530012  85.3794997 106.8409988 142.4410012  85.9144997 106.4889988
 143.8440012  85.4354997 106.1809988 143.1490132  85.4602543 106.7036289
 143.2060012  83.8374997 103.8799988 143.9070012  83.8594997 104.5309988
 143.5090012  83.2094997 103.2229988 143.3428133  83.7557070 103.8803369
 138.2040012  86.2194997 109.6749988 137.8730012  85.8494997 108.8569988
 138.7920012  85.5494997 110.0219988 138.2381873  86.0781156 109.6098102
 139.5700012  89.6474997 112.3559988 139.4760012  89.0694997 111.5999988
 140.3000012  89.2764997 112.8529988 139.6557387  89.5181663 112.3195342
 138.5700012  84.9884997 113.3089988 139.1360012  85.1094997 112.5459988
 138.8890012  85.6254997 113.9469988 138.6905474  85.0912219 113.2909862
 144.8790012  90.4914997 114.0429988 144.6390012  91.1534997 114.6909988
 144.6810012  89.6574997 114.4679988 144.8193808  90.4693134 114.1891524
 139.4500012  89.3874997 118.0259988 139.1390012  90.1694997 118.4809988
 138.8000012  89.2344997 117.3399988 139.3195558  89.4739105 117.9955871
 136.3700012  85.5854997 117.2539988 136.4410012  86.2364997 117.9529988
 135.4800012  85.6884997 116.9189988 136.2593005  85.6885427 117.3043495
 143.1560012  91.4884997 108.9129988 143.6300012  91.7834997 109.6899988
 142.5930012  92.2264997 108.6799988 143.1448184  91.6287247 108.9879628
 137.6900012  91.4594997 118.7889988 137.6970012  91.3234997 117.8419988
 136.7740012  91.3414997 119.0409988 137.5671714  91.4249430 118.6934666
 137.1940012  85.2894997 107.2639988 136.9020012  86.0574997 106.7739988
 136.5200012  84.6294997 107.1019988 137.0628111  85.3055587 107.1748978
 133.2870012  87.6524997 116.0789988 132.7860012  87.6244997 115.2639988
 133.2920012  86.7464997 116.3889988 133.2190944  87.5262396 116.0093226
 133.0370012  90.4324997 112.9629988 133.9830012  90.2884997 112.9439988
 132.9250012  91.2164997 113.4999988 133.1512727  90.5188046 113.0330072
 142.2140012  90.6724997 117.5219988 142.3010012  91.4984997 117.9969988
 141.3500012  90.3424997 117.7709988 142.1091964  90.7409878 117.6206549
 142.6280012  94.4444997 107.3279988 142.5530012  94.3234997 106.3809988
 142.6610012  95.3944997 107.4459988 142.6222068  94.5562646 107.2144967
 136.2810012  93.2334997 109.1089988 136.4340012  92.8854997 109.9869988
 135.4310012  92.8774997 108.8539988 136.1869166  93.1376216 109.1948079
 135.5360012  88.9754997 117.1229988 135.7520012  88.6144997 117.9819988
 134.6810012  88.6014997 116.9129988 135.4499292  88.8754111 117.2123386
 138.1550012  77.4454997 113.1179988 137.2930012  77.3584997 112.7099988
 138.1320012  78.3014997 113.5459988 138.0340409  77.5492883 113.1200589
 142.8180012  77.1674997 116.4929988 143.2380012  76.7524997 117.2459988
 141.8850012  76.9894997 116.6099988 142.7493644  77.0865900 116.6119539
 138.2460012  82.4114997 114.2129988 137.6040012  82.3704997 114.9219988
 138.2830012  83.3374997 113.9749988 138.1630664  82.5311430 114.2779219
 138.2430012  82.6324997 109.1249988 137.3500012  82.2914997 109.0659988
 138.6930012  82.2554997 108.3689988 138.1818130  82.5349631 109.0147702
 143.7780012  83.0484997 107.9419988 143.3690012  83.8634997 107.6509988
 144.4990012  82.9084997 107.3279988 143.8194537  83.1412018 107.8191342
 142.8800012  83.2234997 119.4299988 142.3180012  82.5194997 119.7509988
 143.7070012  83.1034997 119.8979988 142.9147095  83.1107883 119.5372330
 144.7830012  82.4944997 110.7559988 144.5880012  83.0994997 110.0409988
 144.9640012  81.6604997 110.3219988 144.7807614  82.4646300 110.5994405
 135.9960012  82.7314997 116.0799988 135.9580012  83.1314997 116.9489988
 135.5050012  81.9144997 116.1709988 135.9244684  82.6758069 116.2111059
 132.6040012  79.8474997 109.9309988 133.2350012  79.8184997 110.6499988
 133.0530012  79.4224997 109.1999988 132.7510918  79.7860836 109.9306441
 144.0470012  84.1324997 115.4269988 144.3700012  83.5014997 114.7839988
 143.6070012  83.5974997 116.0879988 144.0317484  83.9738387 115.4283198
 140.8240012  80.0594997 110.2109988 139.9130012  80.1164997 110.4999988
 141.3300012  79.9994997 111.0219988 140.7676899  80.0591941 110.3601184
 135.6530012  81.6884997 109.0379988 134.7630012  81.7884997 108.6979988
 135.9490012  80.8464997 108.6919988 135.5712823  81.5883545 108.9447213
 139.3060012  81.6884997 106.6949988 140.2370012  81.8174997 106.8729988
 139.0910012  82.3584997 106.0449988 139.4044247  81.7966565 106.6315747
 137.9800012  82.8834997 104.2609988 137.4370012  82.5034997 103.5699988
 138.8130012  83.0774997 103.8329988 138.0183631  82.8577125 104.1084501
 136.1150012  87.4404997 119.3599988 136.8470012  87.6944997 119.9219988
 135.3350012  87.6444997 119.8759988 136.1097073  87.5028160 119.5066151
 142.1440012  82.8474997 112.0979988 142.7090012  82.3004997 111.5509988
 141.9970012  82.3254997 112.8869988 142.2013380  82.7022259 112.1298695
 137.1460012  78.9834997 108.5169988 136.8290012  78.0814997 108.4809988
 137.9280012  78.9854997 107.9639988 137.2082408  78.8602474 108.4373569
 140.7710012  81.2354997 114.5119988 139.9350012  81.6894997 114.6229988
 141.2950012  81.5114997 115.2639988 140.7275416  81.3348660 114.6288119
 142.8340012  87.6324997 117.4339988 142.4890012  87.2514997 118.2409988
 142.6340012  88.5664997 117.5049988 142.7597527  87.7065135 117.5540689
 136.4400012  86.7434997 111.9669988 137.1850012  86.7414997 111.3659988
 136.5180012  85.9204997 112.4479988 136.5524995  86.6318887 111.9498282
 133.4480012  85.2044997 117.2819988 133.6710012  84.7864997 118.1139988
 132.8460012  84.5914997 116.8589988 133.3971759  85.0644668 117.3387022
 140.4640012  84.7214997 119.4949988 140.1680012  84.5554997 118.5999988
 141.3960012  84.5014997 119.4839988 140.5494166  84.6690640 119.3710536
 138.8150012  90.2614997 109.3709988 139.3420012  91.0344997 109.1709988
 137.9350012  90.4864997 109.0689988 138.7682031  90.3977545 109.3027912
 134.5700012  85.1234997 103.9579988 135.1860012  85.7504997 104.3379988
 133.7080012  85.4394997 104.2299988 134.5377698  85.2519430 104.0467183
 140.2420012  87.9244997 108.9469988 140.0010012  88.8494997 108.9889988
 139.5010012  87.4654997 109.3439988 140.1089225  87.9890933 109.0063742
 140.7570012  92.0734997 115.2629988 141.1190012  92.9284997 115.0289988
 141.2880012  91.7814997 116.0029988 140.8784473  92.1511060 115.3310855
 138.9250012  92.9464997 108.4929988 137.9750012  93.0514997 108.5439988
 139.2770012  93.7664997 108.8369988 138.8424195  93.0718800 108.5465502
 144.3010012  88.1724997 114.9629988 143.8750012  87.9454997 115.7899988
 144.8810012  87.4344997 114.7809988 144.3211868  88.0415299 115.0515830
 135.0820012  79.9574997 116.8399988 134.1890012  80.2964997 116.7719988
 134.9830012  79.1024997 117.2579988 134.9464164  79.8882588 116.8872235
 134.7330012  91.7624997 115.2749988 134.9500012  90.8304997 115.2439988
 134.9790012  92.0364997 116.1579988 134.7959549  91.6720636 115.3901763
 135.9850012  87.0364997 105.4509988 135.2990012  87.3884997 106.0179988
 136.5070012  87.7994997 105.2039988 135.9616852  87.1878578 105.4952118
 143.8160012  79.6984997 115.7299988 144.5150012  79.7724997 116.3799988
 143.4350012  78.8344997 115.8839988 143.8601767  79.5917624 115.8398322
 144.6010012  79.3504997 106.8269988 144.8210012  79.8224997 106.0239988
 145.1590012  79.7454997 107.4969988 144.7064968  79.4684285 106.8077331
 141.8010012  81.0784997 107.6619988 142.6130012  81.5834997 107.7079988
 141.5560012  80.9334997 108.5759988 141.8790520  81.1280375 107.7918517
 142.3360012  82.0644997 116.8459988 142.4550012  82.6384997 117.6039988
 142.9920012  81.3764997 116.9609988 142.4409025  82.0499858 116.9651321
 142.6840012  78.1594997 108.5999988 142.3380012  78.7774997 109.2439988
 143.3430012  78.6604997 108.1179988 142.7256968  78.3116278 108.6229383
 139.6080012  92.5254997 105.6709988 139.7680012  93.3244997 105.1709988
 139.4100012  92.8314997 106.5559988 139.6031637  92.6764020 105.7221144
 136.6010012  89.6504997 104.3479988 137.1930012  90.3494997 104.6239988
 137.0600012  89.2174997 103.6279988 136.7441142  89.6877049 104.2884830
 135.7250012  77.0964997 112.1369988 135.4960012  77.1554997 111.2089988
 135.2820012  76.3044997 112.4429988 135.6338530  76.9975753 112.0514786
 134.6550012  91.0364997 108.2969988 133.8230012  91.5094997 108.3239988
 135.2010012  91.5464997 107.6989988 134.6150352  91.1701332 108.2198463
 133.9430012  93.6494997 119.6269988 134.4840012  93.4324997 120.3869988
 133.4620012  92.8434997 119.4369988 133.9519951  93.5109270 119.7052576
 138.5410012  92.5684997 121.2469988 139.3080012  92.1094997 121.5879988
 138.5190012  92.3424997 120.3179988 138.6431275  92.4750186 121.1680101
 133.8500012  87.4594997 120.5809988 133.9940012  86.5574997 120.2949988
 133.0780012  87.7454997 120.0939988 133.7652753  87.3746816 120.4759505
 140.5060012  87.4294997 120.0139988 140.1770012  87.7004997 119.1569988
 140.6580012  86.4884997 119.9269988 140.4814809  87.3393862 119.8848244
 134.6830012  84.6594997 120.0009988 135.0910012  83.8024997 119.8799988
 134.4230012  84.6744997 120.9219988 134.7037568  84.5440807 120.1089588
 139.3410012  85.7754997 105.0199988 138.8810012  85.2914997 105.7059988
 139.5960012  85.1074997 104.3839988 139.3124902  85.6188731 105.0279334
 138.6300012  83.6684997 117.3759988 138.0120012  84.3434997 117.6559988
 138.9740012  83.9894997 116.5419988 138.5919132  83.8042411 117.3016262
 140.4120012  84.0184997 103.2819988 140.2320012  83.8644997 102.3549988
 141.3620012  84.1264997 103.3269988 140.5157776  84.0120175 103.1611843
 143.6500012  86.1404997 120.6529988 144.6030012  86.2234997 120.6259988
 143.4890012  85.4284997 121.2729988 143.7586426  86.0556746 120.7330579
 138.9690012  81.0234997 118.4579988 139.1190012  80.2944997 117.8559988
 138.9720012  81.8004997 117.8989988 138.9899302  81.0287851 118.3000692
 139.3820012  79.3934997 115.9509988 139.9180012  79.8444997 115.2989988
 138.5300012  79.2854997 115.5279988 139.3402178  79.4406390 115.8045756
 140.9640012  84.8324997 116.1899988 141.7140012  84.6764997 115.6169988
 140.6250012  85.6844997 115.9149988 141.0208921  84.9262968 116.0743561
 137.4480012  82.2214997 120.3699988 136.6810012  81.6894997 120.1589988
 138.1270012  81.9114997 119.7699988 137.4347877  82.1068300 120.2600716
 140.1880012  76.8494997 116.3819988 140.0890012  77.7964997 116.2769988
 139.4450012  76.4774997 115.9059988 140.0741184  76.9285863 116.3033621
 141.4520012  81.1714997 119.9459988 141.2160012  80.9514997 120.8469988
 140.6680012  80.9644997 119.4359988 141.3138504  81.1134586 120.0003431
 144.1670012  80.2984997 119.0209988 143.2200012  80.3304997 119.1539988
 144.4800012  79.6734997 119.6749988 144.0796707  80.2183998 119.1276060
 135.6280012  80.1424997 120.0739988 135.8400012  79.4354997 119.4639988
 135.5170012  79.7044997 120.9179988 135.6419721  79.9867084 120.1046843
 140.4090012  76.1434997 119.0529988 141.1210012  75.5034997 119.0389988
 140.3080012  76.4104997 118.1399988 140.4928066  76.0920079 118.9275677
 140.7630012  77.8264997 121.1069988 140.6310012  77.3504997 120.2869988
 140.1640012  78.5704997 121.0519988 140.6639071  77.8619618 120.9872886
 132.5270012  94.7384997 108.8439988 131.8800012  94.2764997 108.3109988
 132.8810012  94.0664997 109.4259988 132.4863849  94.5844723 108.8497959
 133.3970012  92.8194997 110.6479988 133.0620012  91.9394997 110.8199988
 133.6190012  93.1644997 111.5129988 133.3811783  92.7457500 110.7884208
 133.4770012  85.8944997 113.0999988 133.6610012  85.8124997 112.1639988
 134.3260012  85.7704997 113.5229988 133.6170151  85.8665073 113.0291451
 133.0740012  81.1654997 119.2409988 133.9940012  81.0434997 119.4769988
 132.6250012  80.4154997 119.6299988 133.1391580  81.0473727 119.3259006
 134.2950012  79.4774997 112.1319988 134.7410012  78.6854997 112.4339988
 134.7620012  80.1934997 112.5619988 134.4190831  79.4660685 112.2314006
 132.5990012  82.4764997 113.2009988 133.0910012  82.2554997 112.4099988
 132.9620012  83.3174997 113.4819988 132.7153126  82.5598357 113.1307531
 132.9130012  78.7344997 107.2549988 131.9880012  78.9434997 107.1259988
 133.3670012  79.2184997 106.5649988 132.8477292  78.8285343 107.1440720
 132.8770012  77.4724997 115.5989988 132.2120012  77.2264997 116.2429988
 132.4340012  78.0944997 115.0219988 132.7261318  77.5229410 115.6090898
 135.0690012  90.6474997 119.7439988 134.2480012  90.8224997 119.2829988
 134.8160012  90.5744997 120.6639988 134.9225585  90.6615544 119.8053561
 138.0230012  91.6224997 116.0019988 137.5980012  92.4314997 115.7199988
 138.9270012  91.7074997 115.6999988 138.0869975  91.7449300 115.9224816
 142.3340012  93.0214997 118.9619988 142.5190012  92.6874997 119.8399988
 143.1800012  93.3304997 118.6399988 142.4737539  93.0176047 119.0385605
 144.6790012  94.3074997 118.2059988 145.3560012  93.6744997 117.9659988
 145.0010012  94.7084997 119.0129988 144.8151637  94.2751154 118.2822793
 135.4250012  94.8784997 116.0499988 134.7040012  95.3184997 115.5989988
 135.0590012  94.6274997 116.8979988 135.2769651  94.9047242 116.1029640
 137.8920012  94.4784997 115.0799988 137.0270012  94.5504997 115.4839988
 137.8370012  95.0254997 114.2959988 137.7662085  94.5622685 115.0293362
 142.6020012  94.3664997 114.2549988 142.1460012  94.8954997 113.6009988
 142.7650012  94.9694997 114.9799988 142.5616068  94.5204607 114.2634838
 134.8390012  93.5014997 112.9599988 134.8210012  93.0764997 113.8169988
 135.6440012  93.1834997 112.5509988 134.9453529  93.4003013 113.0220946
 136.9810012  92.2114997 111.6149988 136.7620012  91.2954997 111.7849988
 137.8050012  92.3514997 112.0809988 137.0624420  92.1050520 111.7012774
 139.5180012  92.6814997 112.4639988 139.7310012  91.7934997 112.1769988
 139.5820012  92.6474997 113.4179988 139.5558232  92.5553102 112.5537397
 143.0260012  78.3454997 111.6079988 142.3520012  77.7164997 111.8639988
 143.5900012  77.8614997 111.0049988 143.0099230  78.1938744 111.5615340
 135.3530012  76.9794997 109.4299988 134.5760012  76.7454997 108.9229988
 135.8830012  76.1824997 109.4389988 135.3182330  76.8396988 109.3617742
 139.9320012  76.9064997 109.2439988 140.8070012  77.2944997 109.2139988
 139.7960012  76.6914997 110.1659988 140.0333695  76.9305184 109.3646440
 135.3110012  77.4934997 118.9479988 134.9450012  76.7284997 119.3899988
 136.2240012  77.5224997 119.2339988 135.3842736  77.3925640 119.0472502
 137.2840012  76.8444997 120.4839988 138.1820012  76.5704997 120.2989988
 136.8970012  76.1014997 120.9479988 137.3546612  76.7065914 120.5213643
  12.4390012 104.9914997 109.3889988  12.5280012 105.9354997 109.2569988
  11.8010012 104.7164997 108.7309988  12.3649081 105.0834830 109.2819614
  11.3720012 104.2464997 112.8079988  11.3340012 103.6004997 113.5129988
  11.0500012 103.7804997 112.0369988  11.3232333 104.0949408 112.8002978
   3.7410012 103.8614997 114.4009988   3.7820012 103.2354997 115.1239988
   4.4440012 104.4854997 114.5829988   3.8416363 103.8601196 114.5246044
  15.0780012 107.1854997 111.1089988  14.6380012 106.4654997 111.5599988
  15.0650012 107.9064997 111.7389988  15.0160226 107.1843731 111.2558494
   4.6640012 108.3114997 112.9359988   4.2950012 107.5094997 112.5659988
   5.6050012 108.1424997 112.9819988   4.7407289 108.1790153 112.8916316
   1.2740012 101.9714997 108.3289988   0.8270012 102.8174997 108.3099988
   0.7130012 101.3914997 107.8129988   1.1369900 102.0089916 108.2566801
   1.9850012 104.1334997 110.4539988   2.1980012 103.3634997 110.9819988
   2.7230012 104.2224997 109.8509988   2.1139044 104.0401968 110.4447123
  12.1900012 112.2904997 111.3209988  12.8100012 111.6134997 111.0479988
  11.9820012 112.0724997 112.2299988  12.2466726 112.1684800 111.4064812
   9.7620012 106.6794997 113.2139988  10.0660012 105.9934997 112.6189988
  10.4830012 106.7974997 113.8319988   9.9010671 106.6016304 113.2161816
  18.4250012  98.2804997 114.0749988  18.4740012  98.8904997 114.8099988
  18.8500012  98.7414997 113.3519988  18.4891746  98.4263796 114.0779175
  12.9030012 101.0734997 113.5409988  13.0450012 100.1274997 113.5619988
  12.7960012 101.2804997 112.6129988  12.9079919 100.9718246 113.4183408
   6.0570012  99.1744997 110.8139988   6.1010012 100.0344997 110.3949988
   5.6000012  98.6224997 110.1799988   6.0012240  99.2174422 110.6709864
  13.7800012  99.3054997 109.2149988  14.4260012  98.9764997 109.8389988
  14.2900012  99.8234997 108.5919988  13.9374299  99.3304450 109.2162731
   2.6780012 101.5714997 111.5759988   3.3310012 101.0214997 112.0079988
   2.7020012 101.2974997 110.6589988   2.7706683 101.4591466 111.5112123
   7.8340012 103.1214997 110.7909988   8.4500012 102.5954997 111.3009988
   7.2480012 102.4814997 110.3879988   7.8390810 102.9629208 110.8063173
  18.8160012  99.7584997 116.3099988  18.1280012 100.4164997 116.2149988
  18.8320012  99.5614997 117.2469988  18.7239540  99.8219819 116.4235990
   4.8680012  98.0924997 114.8879988   4.6490012  98.6224997 114.1219988
   4.2000012  98.3194997 115.5349988   4.7477600  98.1956906 114.8706379
  12.2370012 107.5924997 108.4319988  11.9410012 107.2704997 107.5809988
  11.9120012 108.4924997 108.4729988  12.1526371 107.6700215 108.3211801
   7.4370012 105.7684997 115.1749988   6.6970012 106.3664997 115.2789988
   8.1510012 106.3224997 114.8599988   7.4322237 105.9252831 115.1466465
  15.5440012  98.5964997 111.1949988  15.3280012  97.8304997 111.7279988
  16.1990012  99.0684997 111.7079988  15.6030632  98.5555889 111.3372861
   4.4610012  99.9844997 112.8399988   5.0750012 100.6174997 113.2129988
   4.9730012  99.5124997 112.1839988   4.6141981 100.0072267 112.8022908
   5.8440012 107.7324997 115.9619988   5.8390012 108.6124997 115.5839988
   4.9910012 107.6494997 116.3869988   5.7279464 107.8416117 115.9677907
   1.9650012 107.4034997 106.7439988   1.6930012 107.6324997 105.8559988
   2.0110012 108.2414997 107.2049988   1.9339482 107.5481318 106.6846273
  15.5900012 109.0254997 113.4569988  14.6490012 109.0834997 113.6189988
  15.8670012 109.9314997 113.3199988  15.4984679 109.1559443 113.4606815
  15.8910012  97.3114997 114.8749988  15.1550012  97.9224997 114.8369988
  16.5740012  97.7264997 114.3479988  15.8826541  97.4511374 114.7985832
   8.8940012  95.3984997 112.3399988   8.7770012  94.4494997 112.2859988
   8.0390012  95.7304997 112.6139988   8.7624212  95.3135571 112.3696497
  13.8420012 110.8064997 110.0819988  14.2680012 110.0994997 109.5969988
  14.1590012 111.6074997 109.6659988  13.9431683 110.8181017 109.9593680
  15.0020012 108.7074997 108.5909988  14.7440012 108.0174997 107.9799988
  15.0730012 108.2644997 109.4369988  14.9762856 108.5532124 108.6216885
  16.6880012 107.2734997 117.0679988  16.8280012 106.6824997 116.3289988
  16.8550012 108.1464997 116.7119988  16.7297411 107.3105428 116.9186894
  11.1610012 104.2354997 106.8409988  10.4490012 104.7704997 106.4889988
  11.8520012 104.2914997 106.1809988  11.1570132 104.3162543 106.7036289
  11.2140012 102.6934997 103.8799988  11.9150012 102.7154997 104.5309988
  11.5170012 102.0654997 103.2229988  11.3508133 102.6117070 103.8803369
  18.5300012 103.6134997 115.1339988  17.8770012 104.3084997 115.2239988
  18.9950012 103.8234997 114.3249988  18.5035274 103.7370643 115.0368462
  14.5660012 104.4454997 107.7929988  13.8340012 104.6734997 108.3659988
  15.0140012 103.7314997 108.2469988  14.5262725 104.3802145 107.9328816
  14.4640012 102.6194997 116.8599988  14.5440012 103.3824997 117.4319988
  13.8620012 102.8984997 116.1699988  14.3935756 102.7617134 116.8450589
   6.2120012 105.0754997 109.6749988   5.8810012 104.7054997 108.8569988
   6.8000012 104.4054997 110.0219988   6.2461873 104.9341156 109.6098102
   7.5780012 108.5034997 112.3559988   7.4840012 107.9254997 111.5999988
   8.3080012 108.1324997 112.8529988   7.6637387 108.3741663 112.3195342
   6.5780012 103.8444997 113.3089988   7.1440012 103.9654997 112.5459988
   6.8970012 104.4814997 113.9469988   6.6985474 103.9472219 113.2909862
  12.8870012 109.3474997 114.0429988  12.6470012 110.0094997 114.6909988
  12.6890012 108.5134997 114.4679988  12.8273808 109.3253134 114.1891524
   7.4580012 108.2434997 118.0259988   7.1470012 109.0254997 118.4809988
   6.8080012 108.0904997 117.3399988   7.3275558 108.3299105 117.9955871
  13.4370012 103.6074997 105.4779988  14.0170012 103.7574997 106.2249988
  13.8510012 104.0784997 104.7539988  13.5722997 103.6916578 105.4824058
   4.3780012 104.4414997 117.2539988   4.4490012 105.0924997 117.9529988
   3.4880012 104.5444997 116.9189988   4.2673005 104.5445427 117.3043495
  11.1640012 110.3444997 108.9129988  11.6380012 110.6394997 109.6899988
  10.6010012 111.0824997 108.6799988  11.1528184 110.4847247 108.9879628
   5.6980012 110.3154997 118.7889988   5.7050012 110.1794997 117.8419988
   4.7820012 110.1974997 119.0409988   5.5751714 110.2809430 118.6934666
  17.1360012  95.3574997 105.2909988  16.2360012  95.4964997 105.5859988
  17.3880012  96.1884997 104.8889988  17.0468702  95.4889074 105.2770205
   5.2020012 104.1454997 107.2639988   4.9100012 104.9134997 106.7739988
   4.5280012 103.4854997 107.1019988   5.0708111 104.1615587 107.1748978
   1.2950012 106.5084997 116.0789988   0.7940012 106.4804997 115.2639988
   1.3000012 105.6024997 116.3889988   1.2270944 106.3822396 116.0093226
   1.0450012 109.2884997 112.9629988   1.9910012 109.1444997 112.9439988
   0.9330012 110.0724997 113.4999988   1.1592727 109.3748046 113.0330072
  19.2430012 109.9544997 118.6459988  19.1940012 108.9994997 118.6089988
  18.4160012 110.2224997 119.0469988  19.1244940 109.8598998 118.6951375
  10.2220012 109.5284997 117.5219988  10.3090012 110.3544997 117.9969988
   9.3580012 109.1984997 117.7709988  10.1171964 109.5969878 117.6206549
  10.6360012 113.3004997 107.3279988  10.5610012 113.1794997 106.3809988
  10.6690012 114.2504997 107.4459988  10.6302068 113.4122646 107.2144967
   4.2890012 112.0894997 109.1089988   4.4420012 111.7414997 109.9869988
   3.4390012 111.7334997 108.8539988   4.1949166 111.9936216 109.1948079
  13.4070012 112.3804997 107.0789988  12.4710012 112.4804997 107.2579988
  13.6870012 111.6714997 107.6579988  13.3169553 112.2983406 107.1817087
  16.3950012 101.4474997 119.1259988  15.9880012 101.9284997 118.4049988
  16.4360012 100.5424997 118.8179988  16.3448437 101.3909374 118.9856683
   3.5440012 107.8314997 117.1229988   3.7600012 107.4704997 117.9819988
   2.6890012 107.4574997 116.9129988   3.4579292 107.7314111 117.2123386
   6.1630012  96.3014997 113.1179988   5.3010012  96.2144997 112.7099988
   6.1400012  97.1574997 113.5459988   6.0420409  96.4052883 113.1200589
  10.8260012  96.0234997 116.4929988  11.2460012  95.6084997 117.2459988
   9.8930012  95.8454997 116.6099988  10.7573644  95.9425900 116.6119539
  14.1520012  99.7794997 117.3459988  13.6380012  99.6534997 118.1439988
  13.9970012 100.6914997 117.1019988  14.0606852  99.8856132 117.4222158
   6.2540012 101.2674997 114.2129988   5.6120012 101.2264997 114.9219988
   6.2910012 102.1934997 113.9749988   6.1710664 101.3871430 114.2779219
   6.2510012 101.4884997 109.1249988   5.3580012 101.1474997 109.0659988
   6.7010012 101.1114997 108.3689988   6.1898130 101.3909631 109.0147702
  11.7860012 101.9044997 107.9419988  11.3770012 102.7194997 107.6509988
  12.5070012 101.7644997 107.3279988  11.8274537 101.9972018 107.8191342
  10.8880012 102.0794997 119.4299988  10.3260012 101.3754997 119.7509988
  11.7150012 101.9594997 119.8979988  10.9227095 101.9667883 119.5372330
  12.7910012 101.3504997 110.7559988  12.5960012 101.9554997 110.0409988
  12.9720012 100.5164997 110.3219988  12.7887614 101.3206300 110.5994405
   4.0040012 101.5874997 116.0799988   3.9660012 101.9874997 116.9489988
   3.5130012 100.7704997 116.1709988   3.9324684 101.5318069 116.2111059
   0.6120012  98.7034997 109.9309988   1.2430012  98.6744997 110.6499988
   1.0610012  98.2784997 109.1999988   0.7590918  98.6420836 109.9306441
  12.0550012 102.9884997 115.4269988  12.3780012 102.3574997 114.7839988
  11.6150012 102.4534997 116.0879988  12.0397484 102.8298387 115.4283198
   8.8320012  98.9154997 110.2109988   7.9210012  98.9724997 110.4999988
   9.3380012  98.8554997 111.0219988   8.7756899  98.9151941 110.3601184
   3.6610012 100.5444997 109.0379988   2.7710012 100.6444997 108.6979988
   3.9570012  99.7024997 108.6919988   3.5792823 100.4443545 108.9447213
   7.3140012 100.5444997 106.6949988   8.2450012 100.6734997 106.8729988
   7.0990012 101.2144997 106.0449988   7.4124247 100.6526565 106.6315747
  13.2370012  98.1504997 113.4759988  12.5610012  98.2814997 114.1399988
  12.7520012  97.9954997 112.6649988  13.0787146  98.1475157 113.4574469
  16.5250012 113.8224997 119.7519988  16.7250012 114.2464997 118.9179988
  17.1800012 114.1654997 120.3589988  16.6410072 113.9269857 119.7198592
   4.1230012 106.2964997 119.3599988   4.8550012 106.5504997 119.9219988
   3.3430012 106.5004997 119.8759988   4.1177073 106.3588160 119.5066151
  10.1520012 101.7034997 112.0979988  10.7170012 101.1564997 111.5509988
  10.0050012 101.1814997 112.8869988  10.2093380 101.5582259 112.1298695
   5.1540012  97.8394997 108.5169988   4.8370012  96.9374997 108.4809988
   5.9360012  97.8414997 107.9639988   5.2162408  97.7162474 108.4373569
   8.7790012 100.0914997 114.5119988   7.9430012 100.5454997 114.6229988
   9.3030012 100.3674997 115.2639988   8.7355416 100.1908660 114.6288119
   9.3230012 106.3044997 106.1969988   8.5780012 105.7974997 105.8749988
   9.1890012 106.3534997 107.1439988   9.2028776 106.2416940 106.2808647
  16.4730012 105.4374997 114.9839988  17.1150012 105.8944997 114.4399988
  15.6430012 105.5504997 114.5209988  16.4485963 105.5152704 114.8470177
  10.8420012 106.4884997 117.4339988  10.4970012 106.1074997 118.2409988
  10.6420012 107.4224997 117.5049988  10.7677527 106.5625135 117.5540689
  13.9390012 100.9854997 106.0569988  14.8310012 100.8484997 106.3759988
  13.9960012 101.7764997 105.5199988  14.0686504 101.0736052 106.0280818
   4.4480012 105.5994997 111.9669988   5.1930012 105.5974997 111.3659988
   4.5260012 104.7764997 112.4479988   4.5604995 105.4878887 111.9498282
   1.4560012 104.0604997 117.2819988   1.6790012 103.6424997 118.1139988
   0.8540012 103.4474997 116.8589988   1.4051759 103.9204668 117.3387022
   8.4720012 103.5774997 119.4949988   8.1760012 103.4114997 118.5999988
   9.4040012 103.3574997 119.4839988   8.5574166 103.5250640 119.3710536
  13.0930012 108.9504997 117.3849988  12.1920012 109.1334997 117.1169988
  13.1270012 109.2094997 118.3049988  12.9743139 109.0105849 117.4728099
  18.8240012 101.1954997 105.7519988  18.2700012 100.7994997 105.0799988
  18.9240012 102.1054997 105.4739988  18.7617059 101.2643586 105.6224401
  18.7870012 106.9954997 118.5889988  17.9360012 107.2334997 118.2219988
  19.3780012 106.9784997 117.8359988  18.7502487 107.0258258 118.4368893
  17.1190012 109.9814997 106.2169988  16.7460012 109.1554997 106.5259988
  17.3970012 109.7984997 105.3189988  17.1055222 109.8437430 106.1379473
  14.2800012 104.7894997 113.2379988  13.3510012 104.5574997 113.2109988
  14.7310012 104.0124997 112.9079988  14.2139216 104.6527238 113.1896917
   6.8230012 109.1174997 109.3709988   7.3500012 109.8904997 109.1709988
   5.9430012 109.3424997 109.0689988   6.7762031 109.2537545 109.3027912
   8.2500012 106.7804997 108.9469988   8.0090012 107.7054997 108.9889988
   7.5090012 106.3214997 109.3439988   8.1169225 106.8450933 109.0063742
   8.7650012 110.9294997 115.2629988   9.1270012 111.7844997 115.0289988
   9.2960012 110.6374997 116.0029988   8.8864473 111.0071060 115.3310855
   6.9330012 111.8024997 108.4929988   5.9830012 111.9074997 108.5439988
   7.2850012 112.6224997 108.8369988   6.8504195 111.9278800 108.5465502
  12.3090012 107.0284997 114.9629988  11.8830012 106.8014997 115.7899988
  12.8890012 106.2904997 114.7809988  12.3291868 106.8975299 115.0515830
  14.9670012 111.5804997 117.4329988  14.3660012 111.0254997 116.9369988
  15.2490012 112.2474997 116.8059988  14.9228804 111.5946625 117.2804849
   3.0900012  98.8134997 116.8399988   2.1970012  99.1524997 116.7719988
   2.9910012  97.9584997 117.2579988   2.9544164  98.7442588 116.8872235
  15.3780012 106.6304997 106.2639988  15.1000012 105.9024997 106.8199988
  16.3050012 106.7494997 106.4689988  15.4653124 106.5468802 106.3678845
   2.7410012 110.6184997 115.2749988   2.9580012 109.6864997 115.2439988
   2.9870012 110.8924997 116.1579988   2.8039549 110.5280636 115.3901763
   8.6030012 109.0694997 102.4839988   8.8420012 108.3214997 101.9369988
   8.3340012 108.6814997 103.3169988   8.5993675 108.9146638 102.5216865
   7.5400012 108.6394997 104.9399988   7.6860012 108.1194997 105.7299988
   7.5370012 109.5464997 105.2469988   7.5595792 108.6908842 105.0896117
   3.9930012 105.8924997 105.4509988   3.3070012 106.2444997 106.0179988
   4.5150012 106.6554997 105.2039988   3.9696852 106.0438578 105.4952118
  11.8240012  98.5544997 115.7299988  12.5230012  98.6284997 116.3799988
  11.4430012  97.6904997 115.8839988  11.8681767  98.4477624 115.8398322
  12.6090012  98.2064997 106.8269988  12.8290012  98.6784997 106.0239988
  13.1670012  98.6014997 107.4969988  12.7144968  98.3244285 106.8077331
  10.2770012 110.3374997 105.6899988   9.4610012 110.8344997 105.7419988
  10.8070012 110.8124997 105.0499988  10.2369161 110.4697722 105.6105956
   9.8090012  99.9344997 107.6619988  10.6210012 100.4394997 107.7079988
   9.5640012  99.7894997 108.5759988   9.8870520  99.9840375 107.7918517
  10.3440012 100.9204997 116.8459988  10.4630012 101.4944997 117.6039988
  11.0000012 100.2324997 116.9609988  10.4489025 100.9059858 116.9651321
  10.6920012  97.0154997 108.5999988  10.3460012  97.6334997 109.2439988
  11.3510012  97.5164997 108.1179988  10.7336968  97.1676278 108.6229383
   7.6160012 111.3814997 105.6709988   7.7760012 112.1804997 105.1709988
   7.4180012 111.6874997 106.5559988   7.6111637 111.5324020 105.7221144
   6.3500012  98.0784997 105.2869988   6.2670012  98.9674997 105.6339988
   7.2400012  97.8134997 105.5189988   6.4589469  98.1641430 105.3657626
  16.5490012  98.8274997 117.6809988  15.6320012  99.0904997 117.5939988
  16.8840012  98.8244997 116.7849988  16.4688613  98.8630761 117.5478837
  15.1510012 102.5784997 111.7769988  14.3530012 102.1634997 111.4489988
  15.5960012 101.8874997 112.2679988  15.1019885 102.4283543 111.7984889
   4.6090012 108.5064997 104.3479988   5.2010012 109.2054997 104.6239988
   5.0680012 108.0734997 103.6279988   4.7521142 108.5437049 104.2884830
  16.2370012 111.8344997 113.3999988  16.0820012 112.5124997 112.7419988
  17.1700012 111.9064997 113.6029988  16.3418657 111.9369546 113.3374360
   3.7330012  95.9524997 112.1369988   3.5040012  96.0114997 111.2089988
   3.2900012  95.1604997 112.4429988   3.6418530  95.8535753 112.0514786
   2.6630012 109.8924997 108.2969988   1.8310012 110.3654997 108.3239988
   3.2090012 110.4024997 107.6989988   2.6230352 110.0261332 108.2198463
   1.9510012 112.5054997 119.6269988   2.4920012 112.2884997 120.3869988
   1.4700012 111.6994997 119.4369988   1.9599951 112.3669270 119.7052576
   6.5490012 111.4244997 121.2469988   7.3160012 110.9654997 121.5879988
   6.5270012 111.1984997 120.3179988   6.6511275 111.3310186 121.1680101
  10.6410012 110.9324997 102.6229988   9.9970012 110.3014997 102.9439988
  11.4030012 110.4014997 102.3909988  10.6558077 110.7742920 102.6356011
  13.1260012 109.8044997 119.9769988  12.7750012 108.9484997 120.2199988
  13.8520012 109.9474997 120.5839988  13.1760769 109.7065636 120.0923619
  15.2450012 110.7494997 102.8559988  15.5280012 109.9554997 103.3089988
  15.9850012 110.9824997 102.2959988  15.3838006 110.6723376 102.8422715
   1.8580012 106.3154997 120.5809988   2.0020012 105.4134997 120.2949988
   1.0860012 106.6014997 120.0939988   1.7732753 106.2306816 120.4759505
   8.5140012 106.2854997 120.0139988   8.1850012 106.5564997 119.1569988
   8.6660012 105.3444997 119.9269988   8.4894809 106.1953862 119.8848244
  14.2480012 106.2014997 117.3969988  14.9940012 106.7894997 117.2779988
  13.4910012 106.7834997 117.4609988  14.2477820 106.3607143 117.3893590
   2.6910012 103.5154997 120.0009988   3.0990012 102.6584997 119.8799988
   2.4310012 103.5304997 120.9219988   2.7117568 103.4000807 120.1089588
   7.3490012 104.6314997 105.0199988   6.8890012 104.1474997 105.7059988
   7.6040012 103.9634997 104.3839988   7.3204902 104.4748731 105.0279334
   6.6380012 102.5244997 117.3759988   6.0200012 103.1994997 117.6559988
   6.9820012 102.8454997 116.5419988   6.5999132 102.6602411 117.3016262
   8.4200012 102.8744997 103.2819988   8.2400012 102.7204997 102.3549988
   9.3700012 102.9824997 103.3269988   8.5237776 102.8680175 103.1611843
  11.6580012 104.9964997 120.6529988  12.6110012 105.0794997 120.6259988
  11.4970012 104.2844997 121.2729988  11.7666426 104.9116746 120.7330579
   6.9770012  99.8794997 118.4579988   7.1270012  99.1504997 117.8559988
   6.9800012 100.6564997 117.8989988   6.9979302  99.8847851 118.3000692
   7.3900012  98.2494997 115.9509988   7.9260012  98.7004997 115.2989988
   6.5380012  98.1414997 115.5279988   7.3482178  98.2966390 115.8045756
   8.9720012 103.6884997 116.1899988   9.7220012 103.5324997 115.6169988
   8.6330012 104.5404997 115.9149988   9.0288921 103.7822968 116.0743561
  13.3870012 101.5034997 121.2189988  13.5800012 100.5724997 121.1069988
  14.2450012 101.9284997 121.2079988  13.5292934 101.4336531 121.2022031
  14.7040012 104.2924997 119.2959988  14.4230012 105.0014997 118.7179988
  15.6470012 104.2194997 119.1449988  14.7929291 104.3796711 119.1964967
   5.4560012 101.0774997 120.3699988   4.6890012 100.5454997 120.1589988
   6.1350012 100.7674997 119.7699988   5.4427877 100.9628300 120.2600716
   8.1960012  95.7054997 116.3819988   8.0970012  96.6524997 116.2769988
   7.4530012  95.3334997 115.9059988   8.0821184  95.7845863 116.3033621
   9.4600012 100.0274997 119.9459988   9.2240012  99.8074997 120.8469988
   8.6760012  99.8204997 119.4359988   9.3218504  99.9694586 120.0003431
  12.1750012  99.1544997 119.0209988  11.2280012  99.1864997 119.1539988
  12.4880012  98.5294997 119.6749988  12.0876707  99.0743998 119.1276060
  13.8090012  97.7884997 121.0269988  13.7130012  96.8364997 121.0209988
  13.4880012  98.0574997 121.8869988  13.7524070  97.6944035 121.1425441
   3.6360012  98.9984997 120.0739988   3.8480012  98.2914997 119.4639988
   3.5250012  98.5604997 120.9179988   3.6499721  98.8427084 120.1046843
   8.4170012  94.9994997 119.0529988   9.1290012  94.3594997 119.0389988
   8.3160012  95.2664997 118.1399988   8.5008066  94.9480079 118.9275677
   8.7710012  96.6824997 121.1069988   8.6390012  96.2064997 120.2869988
   8.1720012  97.4264997 121.0519988   8.6719071  96.7179618 120.9872886
   1.8860012 108.2014997 103.7659988   2.8000012 108.2804997 104.0399988
   1.8930012 107.5144997 103.0999988   2.0121131 108.1193961 103.7134393
   0.5350012 113.5944997 108.8439988  -0.1119988 113.1324997 108.3109988
   0.8890012 112.9224997 109.4259988   0.4943849 113.4404723 108.8497959
   1.4050012 111.6754997 110.6479988   1.0700012 110.7954997 110.8199988
   1.6270012 112.0204997 111.5129988   1.3891783 111.6017501 110.7884208
  18.9530012 112.4844997 113.6289988  18.9320012 112.6694997 114.5679988
  19.6440012 113.0534997 113.2879988  19.0434618 112.5866606 113.7113864
  18.5170012 112.0524997 116.5509988  18.0290012 111.3164997 116.1789988
  19.0660012 111.6584997 117.2289988  18.5244820 111.8985889 116.5917813
  16.9670012 107.8414997 121.1889988  16.1010012 107.7364997 121.5829988
  17.3440012 108.6004997 121.6349988  16.8993308 107.9296900 121.3032393
  18.2680012 106.0984997 106.7029988  19.1180012 106.5194997 106.8299988
  18.2740012 105.3584997 107.3099988  18.3851372 106.0560803 106.8024344
  18.6630012 104.1514997 108.5259988  17.9360012 103.6724997 108.9239988
  19.2440012 104.3574997 109.2589988  18.6420473 104.1138103 108.6794528
  18.4220012 106.9364997 113.4739988  19.2550012 106.5584997 113.1939988
  18.5340012 107.8794997 113.3549988  18.5512647 107.0122218 113.4195487
  16.9080012 109.8144997 115.7809988  16.2610012 110.1394997 116.4069988
  16.3910012 109.3744997 115.1069988  16.7494029 109.7995004 115.7755827
  16.4490012 102.6724997 109.0889988  16.2990012 101.7274997 109.0689988
  16.0960012 102.9534997 109.9329988  16.3807448 102.5811481 109.2003705
   1.4850012 104.7504997 113.0999988   1.6690012 104.6684997 112.1639988
   2.3340012 104.6264997 113.5229988   1.6250151 104.7225073 113.0291451
  17.3060012 104.6424997 118.7279988  17.8890012 103.9084997 118.9199988
  17.8700012 105.4144997 118.7749988  17.4619769 104.6464227 118.7606159
  18.8020012 102.5454997 119.4129988  17.9390012 102.1664997 119.2469988
  19.4070012 101.8064997 119.3379988  18.7656119 102.3938268 119.3801528
  16.1600012 100.2554997 107.5519988  16.4400012  99.3484997 107.6759988
  16.9190012 100.6894997 107.1629988  16.3009277 100.1900942 107.5163682
  16.7720012 100.8364997 112.9879988  17.7050012 101.0484997 112.9529988
  16.5370012 100.9384997 113.9099988  16.8679244 100.8793100 113.1078892
  16.8010012 101.5734997 115.7639988  15.9580012 101.8414997 116.1299988
  17.2430012 102.3954997 115.5529988  16.7454158 101.7213291 115.7855491
   1.0820012 100.0214997 119.2409988   2.0020012  99.8994997 119.4769988
   0.6330012  99.2714997 119.6299988   1.1471580  99.9033727 119.3259006
  19.0840012  95.5534997 121.1169988  19.4340012  94.8994997 120.5119988
  19.2310012  96.3904997 120.6769988  19.1517887  95.5771548 120.9746858
  16.7730012  97.5184997 107.5999988  16.9560012  97.0694997 108.4259988
  16.1740012  96.9334997 107.1369988  16.7170202  97.3779975 107.6503275
   2.3030012  98.3334997 112.1319988   2.7490012  97.5414997 112.4339988
   2.7700012  99.0494997 112.5619988   2.4270831  98.3220685 112.2314006
   0.6070012 101.3324997 113.2009988   1.0990012 101.1114997 112.4099988
   0.9700012 102.1734997 113.4819988   0.7233126 101.4158357 113.1307531
  18.6040012  97.6624997 119.4659988  17.6860012  97.9334997 119.4309988
  18.7270012  97.1274997 118.6819988  18.4949729  97.6272508 119.3551923
   0.9210012  97.5904997 107.2549988  -0.0039988  97.7994997 107.1259988
   1.3750012  98.0744997 106.5649988   0.8557292  97.6845343 107.1440720
  15.6920012 112.5744997 109.2009988  16.3440012 112.2274997 108.5929988
  16.2020012 113.0634997 109.8469988  15.8502637 112.5930597 109.2050236
   0.8850012  96.3284997 115.5989988   0.2200012  96.0824997 116.2429988
   0.4420012  96.9504997 115.0219988   0.7341318  96.3789410 115.6090898
   3.0770012 109.5034997 119.7439988   2.2560012 109.6784997 119.2829988
   2.8240012 109.4304997 120.6639988   2.9305585 109.5175544 119.8053561
   6.0310012 110.4784997 116.0019988   5.6060012 111.2874997 115.7199988
   6.9350012 110.5634997 115.6999988   6.0949975 110.6009300 115.9224816
  10.3420012 111.8774997 118.9619988  10.5270012 111.5434997 119.8399988
  11.1880012 112.1864997 118.6399988  10.4817539 111.8736047 119.0385605
  12.6870012 113.1634997 118.2059988  13.3640012 112.5304997 117.9659988
  13.0090012 113.5644997 119.0129988  12.8231637 113.1311154 118.2822793
  17.6040012  95.7524997 117.2849988  16.7920012  96.0774997 116.8979988
  17.8370012  94.9924997 116.7519988  17.5242203  95.6942758 117.1598880
   3.4330012 113.7344997 116.0499988   2.7120012 114.1744997 115.5989988
   3.0670012 113.4834997 116.8979988   3.2849651 113.7607242 116.1029640
   5.9000012 113.3344997 115.0799988   5.0350012 113.4064997 115.4839988
   5.8450012 113.8814997 114.2959988   5.7742085 113.4182685 115.0293362
  10.6100012 113.2224997 114.2549988  10.1540012 113.7514997 113.6009988
  10.7730012 113.8254997 114.9799988  10.5696068 113.3764607 114.2634838
  12.9380012 112.1004997 115.1999988  12.0330012 112.2654997 114.9339988
  13.3670012 112.9534997 115.1349988  12.8721324 112.2384339 115.1547976
  15.5420012 113.6704997 115.4949988  15.3600012 114.5864997 115.2849988
  15.7190012 113.2604997 114.6489988  15.5410210 113.7404822 115.3517885
   2.8470012 112.3574997 112.9599988   2.8290012 111.9324997 113.8169988
   3.6520012 112.0394997 112.5509988   2.9533529 112.2563013 113.0220946
   4.9890012 111.0674997 111.6149988   4.7700012 110.1514997 111.7849988
   5.8130012 111.2074997 112.0809988   5.0704420 110.9610520 111.7012774
   7.5260012 111.5374997 112.4639988   7.7390012 110.6494997 112.1769988
   7.5900012 111.5034997 113.4179988   7.5638232 111.4113102 112.5537397
  11.0340012  97.2014997 111.6079988  10.3600012  96.5724997 111.8639988
  11.5980012  96.7174997 111.0049988  11.0179230  97.0498744 111.5615340
  16.1770012  95.3094997 111.7209988  16.7810012  95.8564997 111.2189988
  15.3070012  95.6284997 111.4799988  16.1421208  95.4275137 111.6196886
  17.9040012  96.4474997 110.0539988  18.5160012  95.9334997 109.5269988
  18.2860012  97.3254997 110.0769988  18.0393371  96.4957866 109.9850041
   3.3610012  95.8354997 109.4299988   2.5840012  95.6014997 108.9229988
   3.8910012  95.0384997 109.4389988   3.3262330  95.6956988 109.3617742
   2.1970012  95.6334997 105.2339988   2.6360012  96.2444997 104.6419988
   1.5640012  96.1714997 105.7079988   2.1714514  95.7899257 105.2170930
   7.9400012  95.7624997 109.2439988   8.8150012  96.1504997 109.2139988
   7.8040012  95.5474997 110.1659988   8.0413695  95.7865184 109.3646440
  13.4970012  95.7924997 110.8929988  13.5730012  95.8874997 109.9429988
  13.2220012  94.8844997 111.0219988  13.4702321  95.6827867 110.7805079
  14.8500012  95.8184997 106.5849988  14.1480012  96.4334997 106.3749988
  14.4060012  94.9804997 106.7159988  14.6936450  95.7895639 106.5739000
   2.0980012 111.5814997 106.1309988   1.4130012 111.5434997 105.4639988
   2.1020012 112.4944997 106.4199988   2.0046998 111.6996733 106.0786771
   9.0840012  97.8424997 106.1329988   9.2620012  97.1964997 106.8159988
   9.0310012  98.6764997 106.5999988   9.1011999  97.8668009 106.2895917
  17.6720012 112.3544997 107.2079988  17.4770012 111.6064997 106.6429988
  17.6330012 113.1124997 106.6249988  17.6400380 112.3546099 107.0518384
   3.3190012  96.3494997 118.9479988   2.9530012  95.5844997 119.3899988
   4.2320012  96.3784997 119.2339988   3.3922736  96.2485640 119.0472502
   5.2920012  95.7004997 120.4839988   6.1900012  95.4264997 120.2989988
   4.9050012  94.9574997 120.9479988   5.3626612  95.5625914 120.5213643
  13.7130012  95.0324997 120.6659988  13.7900012  94.6064997 121.5199988
  14.6070012  95.0464997 120.3229988  13.8443428  94.9760879 120.7365310
  16.8890012 111.1054997 119.3579988  16.1070012 110.9194997 118.8379988
  16.8170012 112.0344997 119.5759988  16.7722274 111.2056643 119.3163018
  31.2950012 104.9914997 109.3889988  31.3840012 105.9354997 109.2569988
  30.6570012 104.7164997 108.7309988  31.2209081 105.0834830 109.2819614
  30.2280012 104.2464997 112.8079988  30.1900012 103.6004997 113.5129988
  29.9060012 103.7804997 112.0369988  30.1792333 104.0949408 112.8002978
  22.5970012 103.8614997 114.4009988  22.6380012 103.2354997 115.1239988
  23.3000012 104.4854997 114.5829988  22.6976363 103.8601196 114.5246044
  33.9340012 107.1854997 111.1089988  33.4940012 106.4654997 111.5599988
  33.9210012 107.9064997 111.7389988  33.8720226 107.1843731 111.2558494
  23.5200012 108.3114997 112.9359988  23.1510012 107.5094997 112.5659988
  24.4610012 108.1424997 112.9819988  23.5967289 108.1790153 112.8916316
  20.1300012 101.9714997 108.3289988  19.6830012 102.8174997 108.3099988
  19.5690012 101.3914997 107.8129988  19.9929900 102.0089916 108.2566801
  20.8410012 104.1334997 110.4539988  21.0540012 103.3634997 110.9819988
  21.5790012 104.2224997 109.8509988  20.9699044 104.0401968 110.4447123
  31.0460012 112.2904997 111.3209988  31.6660012 111.6134997 111.0479988
  30.8380012 112.0724997 112.2299988  31.1026726 112.1684800 111.4064812
  28.6180012 106.6794997 113.2139988  28.9220012 105.9934997 112.6189988
  29.3390012 106.7974997 113.8319988  28.7570671 106.6016305 113.2161816
  37.2810012  98.2804997 114.0749988  37.3300012  98.8904997 114.8099988
  37.7060012  98.7414997 113.3519988  37.3451746  98.4263796 114.0779175
  31.7590012 101.0734997 113.5409988  31.9010012 100.1274997 113.5619988
  31.6520012 101.2804997 112.6129988  31.7639919 100.9718246 113.4183408
  24.9130012  99.1744997 110.8139988  24.9570012 100.0344997 110.3949988
  24.4560012  98.6224997 110.1799988  24.8572240  99.2174422 110.6709864
  32.6360012  99.3054997 109.2149988  33.2820012  98.9764997 109.8389988
  33.1460012  99.8234997 108.5919988  32.7934299  99.3304450 109.2162731
  21.5340012 101.5714997 111.5759988  22.1870012 101.0214997 112.0079988
  21.5580012 101.2974997 110.6589988  21.6266683 101.4591466 111.5112123
  26.6900012 103.1214997 110.7909988  27.3060012 102.5954997 111.3009988
  26.1040012 102.4814997 110.3879988  26.6950810 102.9629208 110.8063173
  37.6720012  99.7584997 116.3099988  36.9840012 100.4164997 116.2149988
  37.6880012  99.5614997 117.2469988  37.5799540  99.8219819 116.4235990
  23.7240012  98.0924997 114.8879988  23.5050012  98.6224997 114.1219988
  23.0560012  98.3194997 115.5349988  23.6037600  98.1956906 114.8706379
  31.0930012 107.5924997 108.4319988  30.7970012 107.2704997 107.5809988
  30.7680012 108.4924997 108.4729988  31.0086371 107.6700215 108.3211801
  26.2930012 105.7684997 115.1749988  25.5530012 106.3664997 115.2789988
  27.0070012 106.3224997 114.8599988  26.2882237 105.9252831 115.1466465
  34.4000012  98.5964997 111.1949988  34.1840012  97.8304997 111.7279988
  35.0550012  99.0684997 111.7079988  34.4590632  98.5555889 111.3372861
  23.3170012  99.9844997 112.8399988  23.9310012 100.6174997 113.2129988
  23.8290012  99.5124997 112.1839988  23.4701981 100.0072267 112.8022908
  24.7000012 107.7324997 115.9619988  24.6950012 108.6124997 115.5839988
  23.8470012 107.6494997 116.3869988  24.5839464 107.8416117 115.9677907
  20.8210012 107.4034997 106.7439988  20.5490012 107.6324997 105.8559988
  20.8670012 108.2414997 107.2049988  20.7899482 107.5481318 106.6846273
  34.4460012 109.0254997 113.4569988  33.5050012 109.0834997 113.6189988
  34.7230012 109.9314997 113.3199988  34.3544679 109.1559443 113.4606815
  34.7470012  97.3114997 114.8749988  34.0110012  97.9224997 114.8369988
  35.4300012  97.7264997 114.3479988  34.7386541  97.4511374 114.7985832
  27.7500012  95.3984997 112.3399988  27.6330012  94.4494997 112.2859988
  26.8950012  95.7304997 112.6139988  27.6184212  95.3135571 112.3696497
  32.6980012 110.8064997 110.0819988  33.1240012 110.0994997 109.5969988
  33.0150012 111.6074997 109.6659988  32.7991683 110.8181017 109.9593680
  33.8580012 108.7074997 108.5909988  33.6000012 108.0174997 107.9799988
  33.9290012 108.2644997 109.4369988  33.8322856 108.5532124 108.6216885
  35.5440012 107.2734997 117.0679988  35.6840012 106.6824997 116.3289988
  35.7110012 108.1464997 116.7119988  35.5857411 107.3105428 116.9186894
  30.0170012 104.2354997 106.8409988  29.3050012 104.7704997 106.4889988
  30.7080012 104.2914997 106.1809988  30.0130132 104.3162543 106.7036289
  37.3860012 103.6134997 115.1339988  36.7330012 104.3084997 115.2239988
  37.8510012 103.8234997 114.3249988  37.3595274 103.7370643 115.0368462
  33.4220012 104.4454997 107.7929988  32.6900012 104.6734997 108.3659988
  33.8700012 103.7314997 108.2469988  33.3822725 104.3802145 107.9328816
  33.3200012 102.6194997 116.8599988  33.4000012 103.3824997 117.4319988
  32.7180012 102.8984997 116.1699988  33.2495756 102.7617134 116.8450589
  25.0680012 105.0754997 109.6749988  24.7370012 104.7054997 108.8569988
  25.6560012 104.4054997 110.0219988  25.1021873 104.9341156 109.6098102
  26.4340012 108.5034997 112.3559988  26.3400012 107.9254997 111.5999988
  27.1640012 108.1324997 112.8529988  26.5197387 108.3741663 112.3195342
  25.4340012 103.8444997 113.3089988  26.0000012 103.9654997 112.5459988
  25.7530012 104.4814997 113.9469988  25.5545474 103.9472219 113.2909862
  31.7430012 109.3474997 114.0429988  31.5030012 110.0094997 114.6909988
  31.5450012 108.5134997 114.4679988  31.6833808 109.3253134 114.1891524
  26.3140012 108.2434997 118.0259988  26.0030012 109.0254997 118.4809988
  25.6640012 108.0904997 117.3399988  26.1835558 108.3299105 117.9955871
  32.2930012 103.6074997 105.4779988  32.8730012 103.7574997 106.2249988
  32.7070012 104.0784997 104.7539988  32.4282997 103.6916578 105.4824058
  23.2340012 104.4414997 117.2539988  23.3050012 105.0924997 117.9529988
  22.3440012 104.5444997 116.9189988  23.1233005 104.5445427 117.3043495
  30.0200012 110.3444997 108.9129988  30.4940012 110.6394997 109.6899988
  29.4570012 111.0824997 108.6799988  30.0088184 110.4847247 108.9879628
  24.5540012 110.3154997 118.7889988  24.5610012 110.1794997 117.8419988
  23.6380012 110.1974997 119.0409988  24.4311714 110.2809430 118.6934666
  35.9920012  95.3574997 105.2909988  35.0920012  95.4964997 105.5859988
  36.2440012  96.1884997 104.8889988  35.9028702  95.4889074 105.2770205
  24.0580012 104.1454997 107.2639988  23.7660012 104.9134997 106.7739988
  23.3840012 103.4854997 107.1019988  23.9268111 104.1615587 107.1748978
  20.1510012 106.5084997 116.0789988  19.6500012 106.4804997 115.2639988
  20.1560012 105.6024997 116.3889988  20.0830944 106.3822396 116.0093226
  19.9010012 109.2884997 112.9629988  20.8470012 109.1444997 112.9439988
  19.7890012 110.0724997 113.4999988  20.0152727 109.3748046 113.0330072
  38.0990012 109.9544997 118.6459988  38.0500012 108.9994997 118.6089988
  37.2720012 110.2224997 119.0469988  37.9804940 109.8598998 118.6951375
  29.0780012 109.5284997 117.5219988  29.1650012 110.3544997 117.9969988
  28.2140012 109.1984997 117.7709988  28.9731964 109.5969878 117.6206549
  29.4920012 113.3004997 107.3279988  29.4170012 113.1794997 106.3809988
  29.5250012 114.2504997 107.4459988  29.4862068 113.4122646 107.2144967
  23.1450012 112.0894997 109.1089988  23.2980012 111.7414997 109.9869988
  22.2950012 111.7334997 108.8539988  23.0509166 111.9936217 109.1948079
  32.2630012 112.3804997 107.0789988  31.3270012 112.4804997 107.2579988
  32.5430012 111.6714997 107.6579988  32.1729553 112.2983406 107.1817087
  35.2510012 101.4474997 119.1259988  34.8440012 101.9284997 118.4049988
  35.2920012 100.5424997 118.8179988  35.2008437 101.3909374 118.9856683
  22.4000012 107.8314997 117.1229988  22.6160012 107.4704997 117.9819988
  21.5450012 107.4574997 116.9129988  22.3139292 107.7314111 117.2123386
  25.0190012  96.3014997 113.1179988  24.1570012  96.2144997 112.7099988
  24.9960012  97.1574997 113.5459988  24.8980409  96.4052883 113.1200589
  29.6820012  96.0234997 116.4929988  30.1020012  95.6084997 117.2459988
  28.7490012  95.8454997 116.6099988  29.6133644  95.9425900 116.6119539
  33.0080012  99.7794997 117.3459988  32.4940012  99.6534997 118.1439988
  32.8530012 100.6914997 117.1019988  32.9166852  99.8856132 117.4222158
  33.7710012 104.6404997 103.1079988  33.8130012 104.4174997 102.1779988
  34.6200012 105.0394997 103.2969988  33.8915280 104.6639438 103.0063554
  25.1100012 101.2674997 114.2129988  24.4680012 101.2264997 114.9219988
  25.1470012 102.1934997 113.9749988  25.0270664 101.3871430 114.2779219
  25.1070012 101.4884997 109.1249988  24.2140012 101.1474997 109.0659988
  25.5570012 101.1114997 108.3689988  25.0458130 101.3909631 109.0147702
  30.6420012 101.9044997 107.9419988  30.2330012 102.7194997 107.6509988
  31.3630012 101.7644997 107.3279988  30.6834537 101.9972018 107.8191342
  29.7440012 102.0794997 119.4299988  29.1820012 101.3754997 119.7509988
  30.5710012 101.9594997 119.8979988  29.7787095 101.9667883 119.5372330
  31.6470012 101.3504997 110.7559988  31.4520012 101.9554997 110.0409988
  31.8280012 100.5164997 110.3219988  31.6447614 101.3206300 110.5994405
  22.8600012 101.5874997 116.0799988  22.8220012 101.9874997 116.9489988
  22.3690012 100.7704997 116.1709988  22.7884684 101.5318069 116.2111059
  19.4680012  98.7034997 109.9309988  20.0990012  98.6744997 110.6499988
  19.9170012  98.2784997 109.1999988  19.6150918  98.6420836 109.9306441
  20.7420012  99.4494997 105.3549988  21.2160012 100.0404997 104.7699988
  20.0250012  99.9804997 105.7019988  20.7099341  99.6020867 105.3218836
  30.9110012 102.9884997 115.4269988  31.2340012 102.3574997 114.7839988
  30.4710012 102.4534997 116.0879988  30.8957484 102.8298387 115.4283198
  27.6880012  98.9154997 110.2109988  26.7770012  98.9724997 110.4999988
  28.1940012  98.8554997 111.0219988  27.6316899  98.9151941 110.3601184
  22.5170012 100.5444997 109.0379988  21.6270012 100.6444997 108.6979988
  22.8130012  99.7024997 108.6919988  22.4352823 100.4443545 108.9447213
  26.1700012 100.5444997 106.6949988  27.1010012 100.6734997 106.8729988
  25.9550012 101.2144997 106.0449988  26.2684247 100.6526565 106.6315747
  32.0930012  98.1504997 113.4759988  31.4170012  98.2814997 114.1399988
  31.6080012  97.9954997 112.6649988  31.9347146  98.1475157 113.4574469
  24.8440012 101.7394997 104.2609988  24.3010012 101.3594997 103.5699988
  25.6770012 101.9334997 103.8329988  24.8823631 101.7137125 104.1084501
  35.3810012 113.8224997 119.7519988  35.5810012 114.2464997 118.9179988
  36.0360012 114.1654997 120.3589988  35.4970072 113.9269857 119.7198592
  22.9790012 106.2964997 119.3599988  23.7110012 106.5504997 119.9219988
  22.1990012 106.5004997 119.8759988  22.9737073 106.3588160 119.5066151
  29.0080012 101.7034997 112.0979988  29.5730012 101.1564997 111.5509988
  28.8610012 101.1814997 112.8869988  29.0653380 101.5582259 112.1298695
  24.0100012  97.8394997 108.5169988  23.6930012  96.9374997 108.4809988
  24.7920012  97.8414997 107.9639988  24.0722408  97.7162474 108.4373569
  27.6350012 100.0914997 114.5119988  26.7990012 100.5454997 114.6229988
  28.1590012 100.3674997 115.2639988  27.5915416 100.1908660 114.6288119
  28.1790012 106.3044997 106.1969988  27.4340012 105.7974997 105.8749988
  28.0450012 106.3534997 107.1439988  28.0588776 106.2416940 106.2808647
  35.3290012 105.4374997 114.9839988  35.9710012 105.8944997 114.4399988
  34.4990012 105.5504997 114.5209988  35.3045963 105.5152704 114.8470177
  32.0770012  99.1184997 104.3959988  31.1380012  99.2304997 104.2449988
  32.3740012  99.9754997 104.7029988  31.9887583  99.2495981 104.4168337
  29.6980012 106.4884997 117.4339988  29.3530012 106.1074997 118.2409988
  29.4980012 107.4224997 117.5049988  29.6237527 106.5625135 117.5540689
  32.7950012 100.9854997 106.0569988  33.6870012 100.8484997 106.3759988
  32.8520012 101.7764997 105.5199988  32.9246504 101.0736052 106.0280818
  23.3040012 105.5994997 111.9669988  24.0490012 105.5974997 111.3659988
  23.3820012 104.7764997 112.4479988  23.4164995 105.4878887 111.9498282
  30.3050012 107.7634997 105.2229988  30.0090012 108.5894997 105.6039988
  29.6020012 107.1434997 105.4189988  30.1694914 107.7928199 105.3016443
  20.3120012 104.0604997 117.2819988  20.5350012 103.6424997 118.1139988
  19.7100012 103.4474997 116.8589988  20.2611759 103.9204668 117.3387022
  27.3280012 103.5774997 119.4949988  27.0320012 103.4114997 118.5999988
  28.2600012 103.3574997 119.4839988  27.4134166 103.5250640 119.3710536
  31.9490012 108.9504997 117.3849988  31.0480012 109.1334997 117.1169988
  31.9830012 109.2094997 118.3049988  31.8303139 109.0105849 117.4728099
  37.6430012 106.9954997 118.5889988  36.7920012 107.2334997 118.2219988
  38.2340012 106.9784997 117.8359988  37.6062487 107.0258258 118.4368893
  35.9750012 109.9814997 106.2169988  35.6020012 109.1554997 106.5259988
  36.2530012 109.7984997 105.3189988  35.9615222 109.8437430 106.1379473
  33.1360012 104.7894997 113.2379988  32.2070012 104.5574997 113.2109988
  33.5870012 104.0124997 112.9079988  33.0699216 104.6527238 113.1896917
  25.6790012 109.1174997 109.3709988  26.2060012 109.8904997 109.1709988
  24.7990012 109.3424997 109.0689988  25.6322031 109.2537545 109.3027912
  27.1060012 106.7804997 108.9469988  26.8650012 107.7054997 108.9889988
  26.3650012 106.3214997 109.3439988  26.9729225 106.8450933 109.0063742
  27.6210012 110.9294997 115.2629988  27.9830012 111.7844997 115.0289988
  28.1520012 110.6374997 116.0029988  27.7424473 111.0071060 115.3310855
  25.7890012 111.8024997 108.4929988  24.8390012 111.9074997 108.5439988
  26.1410012 112.6224997 108.8369988  25.7064195 111.9278800 108.5465502
  31.1650012 107.0284997 114.9629988  30.7390012 106.8014997 115.7899988
  31.7450012 106.2904997 114.7809988  31.1851868 106.8975299 115.0515830
  33.8230012 111.5804997 117.4329988  33.2220012 111.0254997 116.9369988
  34.1050012 112.2474997 116.8059988  33.7788804 111.5946625 117.2804849
  37.8710012 112.4374997 104.2379988  38.6150012 113.0234997 104.0979988
  37.1770012 113.0054997 104.5709988  37.8789899 112.5945798 104.2638778
  21.9460012  98.8134997 116.8399988  21.0530012  99.1524997 116.7719988
  21.8470012  97.9584997 117.2579988  21.8104164  98.7442588 116.8872235
  34.2340012 106.6304997 106.2639988  33.9560012 105.9024997 106.8199988
  35.1610012 106.7494997 106.4689988  34.3213124 106.5468802 106.3678845
  21.5970012 110.6184997 115.2749988  21.8140012 109.6864997 115.2439988
  21.8430012 110.8924997 116.1579988  21.6599549 110.5280636 115.3901763
  22.8490012 105.8924997 105.4509988  22.1630012 106.2444997 106.0179988
  23.3710012 106.6554997 105.2039988  22.8256852 106.0438578 105.4952118
  30.6800012  98.5544997 115.7299988  31.3790012  98.6284997 116.3799988
  30.2990012  97.6904997 115.8839988  30.7241767  98.4477624 115.8398322
  31.4650012  98.2064997 106.8269988  31.6850012  98.6784997 106.0239988
  32.0230012  98.6014997 107.4969988  31.5704968  98.3244285 106.8077331
  29.1330012 110.3374997 105.6899988  28.3170012 110.8344997 105.7419988
  29.6630012 110.8124997 105.0499988  29.0929161 110.4697722 105.6105956
  28.6650012  99.9344997 107.6619988  29.4770012 100.4394997 107.7079988
  28.4200012  99.7894997 108.5759988  28.7430520  99.9840375 107.7918517
  29.2000012 100.9204997 116.8459988  29.3190012 101.4944997 117.6039988
  29.8560012 100.2324997 116.9609988  29.3049025 100.9059858 116.9651321
  29.5480012  97.0154997 108.5999988  29.2020012  97.6334997 109.2439988
  30.2070012  97.5164997 108.1179988  29.5896968  97.1676278 108.6229383
  26.4720012 111.3814997 105.6709988  26.6320012 112.1804997 105.1709988
  26.2740012 111.6874997 106.5559988  26.4671637 111.5324020 105.7221144
  25.2060012  98.0784997 105.2869988  25.1230012  98.9674997 105.6339988
  26.0960012  97.8134997 105.5189988  25.3149469  98.1641430 105.3657626
  35.4050012  98.8274997 117.6809988  34.4880012  99.0904997 117.5939988
  35.7400012  98.8244997 116.7849988  35.3248613  98.8630761 117.5478837
  34.0070012 102.5784997 111.7769988  33.2090012 102.1634997 111.4489988
  34.4520012 101.8874997 112.2679988  33.9579885 102.4283543 111.7984889
  23.4650012 108.5064997 104.3479988  24.0570012 109.2054997 104.6239988
  23.9240012 108.0734997 103.6279988  23.6081142 108.5437049 104.2884830
  35.0930012 111.8344997 113.3999988  34.9380012 112.5124997 112.7419988
  36.0260012 111.9064997 113.6029988  35.1978657 111.9369546 113.3374360
  22.5890012  95.9524997 112.1369988  22.3600012  96.0114997 111.2089988
  22.1460012  95.1604997 112.4429988  22.4978530  95.8535753 112.0514786
  21.5190012 109.8924997 108.2969988  20.6870012 110.3654997 108.3239988
  22.0650012 110.4024997 107.6989988  21.4790352 110.0261332 108.2198463
  20.8070012 112.5054997 119.6269988  21.3480012 112.2884997 120.3869988
  20.3260012 111.6994997 119.4369988  20.8159951 112.3669270 119.7052576
  25.4050012 111.4244997 121.2469988  26.1720012 110.9654997 121.5879988
  25.3830012 111.1984997 120.3179988  25.5071275 111.3310186 121.1680101
  29.4970012 110.9324997 102.6229988  28.8530012 110.3014997 102.9439988
  30.2590012 110.4014997 102.3909988  29.5118077 110.7742920 102.6356011
  31.9820012 109.8044997 119.9769988  31.6310012 108.9484997 120.2199988
  32.7080012 109.9474997 120.5839988  32.0320769 109.7065636 120.0923619
  20.7140012 106.3154997 120.5809988  20.8580012 105.4134997 120.2949988
  19.9420012 106.6014997 120.0939988  20.6292753 106.2306816 120.4759505
  27.3700012 106.2854997 120.0139988  27.0410012 106.5564997 119.1569988
  27.5220012 105.3444997 119.9269988  27.3454809 106.1953862 119.8848244
  33.1040012 106.2014997 117.3969988  33.8500012 106.7894997 117.2779988
  32.3470012 106.7834997 117.4609988  33.1037820 106.3607143 117.3893590
  21.5470012 103.5154997 120.0009988  21.9550012 102.6584997 119.8799988
  21.2870012 103.5304997 120.9219988  21.5677568 103.4000807 120.1089588
  25.4940012 102.5244997 117.3759988  24.8760012 103.1994997 117.6559988
  25.8380012 102.8454997 116.5419988  25.4559132 102.6602411 117.3016262
  30.5140012 104.9964997 120.6529988  31.4670012 105.0794997 120.6259988
  30.3530012 104.2844997 121.2729988  30.6226426 104.9116746 120.7330579
  36.6660012 105.2294997 102.7279988  36.3920012 104.8044997 101.9149988
  36.7050012 106.1604997 102.5109988  36.6337699 105.2972484 102.5873610
  25.8330012  99.8794997 118.4579988  25.9830012  99.1504997 117.8559988
  25.8360012 100.6564997 117.8989988  25.8539302  99.8847851 118.3000692
  26.2460012  98.2494997 115.9509988  26.7820012  98.7004997 115.2989988
  25.3940012  98.1414997 115.5279988  26.2042178  98.2966390 115.8045756
  27.8280012 103.6884997 116.1899988  28.5780012 103.5324997 115.6169988
  27.4890012 104.5404997 115.9149988  27.8848921 103.7822968 116.0743561
  32.2430012 101.5034997 121.2189988  32.4360012 100.5724997 121.1069988
  33.1010012 101.9284997 121.2079988  32.3852934 101.4336531 121.2022031
  33.5600012 104.2924997 119.2959988  33.2790012 105.0014997 118.7179988
  34.5030012 104.2194997 119.1449988  33.6489291 104.3796711 119.1964967
  24.3120012 101.0774997 120.3699988  23.5450012 100.5454997 120.1589988
  24.9910012 100.7674997 119.7699988  24.2987877 100.9628300 120.2600716
  27.0520012  95.7054997 116.3819988  26.9530012  96.6524997 116.2769988
  26.3090012  95.3334997 115.9059988  26.9381184  95.7845863 116.3033621
  28.3160012 100.0274997 119.9459988  28.0800012  99.8074997 120.8469988
  27.5320012  99.8204997 119.4359988  28.1778504  99.9694586 120.0003431
  31.0310012  99.1544997 119.0209988  30.0840012  99.1864997 119.1539988
  31.3440012  98.5294997 119.6749988  30.9436707  99.0743998 119.1276060
  32.6650012  97.7884997 121.0269988  32.5690012  96.8364997 121.0209988
  32.3440012  98.0574997 121.8869988  32.6084070  97.6944035 121.1425441
  22.4920012  98.9984997 120.0739988  22.7040012  98.2914997 119.4639988
  22.3810012  98.5604997 120.9179988  22.5059721  98.8427084 120.1046843
  27.2730012  94.9994997 119.0529988  27.9850012  94.3594997 119.0389988
  27.1720012  95.2664997 118.1399988  27.3568066  94.9480079 118.9275677
  27.6270012  96.6824997 121.1069988  27.4950012  96.2064997 120.2869988
  27.0280012  97.4264997 121.0519988  27.5279071  96.7179618 120.9872886
  20.7420012 108.2014997 103.7659988  21.6560012 108.2804997 104.0399988
  20.7490012 107.5144997 103.0999988  20.8681131 108.1193961 103.7134393
  19.3910012 113.5944997 108.8439988  18.7440012 113.1324997 108.3109988
  19.7450012 112.9224997 109.4259988  19.3503849 113.4404723 108.8497959
  20.2610012 111.6754997 110.6479988  19.9260012 110.7954997 110.8199988
  20.4830012 112.0204997 111.5129988  20.2451783 111.6017500 110.7884208
  37.8090012 112.4844997 113.6289988  37.7880012 112.6694997 114.5679988
  38.5000012 113.0534997 113.2879988  37.8994618 112.5866606 113.7113864
  37.3730012 112.0524997 116.5509988  36.8850012 111.3164997 116.1789988
  37.9220012 111.6584997 117.2289988  37.3804820 111.8985889 116.5917813
  35.8230012 107.8414997 121.1889988  34.9570012 107.7364997 121.5829988
  36.2000012 108.6004997 121.6349988  35.7553308 107.9296900 121.3032393
  37.1240012 106.0984997 106.7029988  37.9740012 106.5194997 106.8299988
  37.1300012 105.3584997 107.3099988  37.2411372 106.0560803 106.8024344
  37.5190012 104.1514997 108.5259988  36.7920012 103.6724997 108.9239988
  38.1000012 104.3574997 109.2589988  37.4980473 104.1138103 108.6794528
  37.2780012 106.9364997 113.4739988  38.1110012 106.5584997 113.1939988
  37.3900012 107.8794997 113.3549988  37.4072647 107.0122218 113.4195487
  35.7640012 109.8144997 115.7809988  35.1170012 110.1394997 116.4069988
  35.2470012 109.3744997 115.1069988  35.6054029 109.7995004 115.7755827
  37.7870012 104.0524997 104.9179988  37.2650012 104.4094997 104.1989988
  37.7540012 104.7274997 105.5959988  37.7111634 104.1925413 104.9113145
  35.3050012 102.6724997 109.0889988  35.1550012 101.7274997 109.0689988
  34.9520012 102.9534997 109.9329988  35.2367448 102.5811481 109.2003705
  20.3410012 104.7504997 113.0999988  20.5250012 104.6684997 112.1639988
  21.1900012 104.6264997 113.5229988  20.4810151 104.7225073 113.0291451
  36.1620012 104.6424997 118.7279988  36.7450012 103.9084997 118.9199988
  36.7260012 105.4144997 118.7749988  36.3179769 104.6464227 118.7606159
  37.6580012 102.5454997 119.4129988  36.7950012 102.1664997 119.2469988
  38.2630012 101.8064997 119.3379988  37.6216119 102.3938268 119.3801528
  35.0160012 100.2554997 107.5519988  35.2960012  99.3484997 107.6759988
  35.7750012 100.6894997 107.1629988  35.1569277 100.1900942 107.5163682
  35.6280012 100.8364997 112.9879988  36.5610012 101.0484997 112.9529988
  35.3930012 100.9384997 113.9099988  35.7239244 100.8793100 113.1078892
  35.6570012 101.5734997 115.7639988  34.8140012 101.8414997 116.1299988
  36.0990012 102.3954997 115.5529988  35.6014158 101.7213291 115.7855491
  19.9380012 100.0214997 119.2409988  20.8580012  99.8994997 119.4769988
  19.4890012  99.2714997 119.6299988  20.0031580  99.9033727 119.3259006
  37.9400012  95.5534997 121.1169988  38.2900012  94.8994997 120.5119988
  38.0870012  96.3904997 120.6769988  38.0077887  95.5771548 120.9746858
  35.6290012  97.5184997 107.5999988  35.8120012  97.0694997 108.4259988
  35.0300012  96.9334997 107.1369988  35.5730202  97.3779975 107.6503275
  21.1590012  98.3334997 112.1319988  21.6050012  97.5414997 112.4339988
  21.6260012  99.0494997 112.5619988  21.2830831  98.3220685 112.2314006
  19.4630012 101.3324997 113.2009988  19.9550012 101.1114997 112.4099988
  19.8260012 102.1734997 113.4819988  19.5793126 101.4158357 113.1307531
  37.4600012  97.6624997 119.4659988  36.5420012  97.9334997 119.4309988
  37.5830012  97.1274997 118.6819988  37.3509729  97.6272508 119.3551923
  37.4960012  97.5854997 104.1279988  37.9080012  96.8644997 103.6529988
  38.1780012  98.2554997 104.1869988  37.6445885  97.5772368 104.0708915
  19.7770012  97.5904997 107.2549988  18.8520012  97.7994997 107.1259988
  20.2310012  98.0744997 106.5649988  19.7117292  97.6845343 107.1440720
  34.5480012 112.5744997 109.2009988  35.2000012 112.2274997 108.5929988
  35.0580012 113.0634997 109.8469988  34.7062637 112.5930597 109.2050236
  19.7410012  96.3284997 115.5989988  19.0760012  96.0824997 116.2429988
  19.2980012  96.9504997 115.0219988  19.5901318  96.3789410 115.6090898
  21.9330012 109.5034997 119.7439988  21.1120012 109.6784997 119.2829988
  21.6800012 109.4304997 120.6639988  21.7865585 109.5175544 119.8053561
  24.8870012 110.4784997 116.0019988  24.4620012 111.2874997 115.7199988
  25.7910012 110.5634997 115.6999988  24.9509975 110.6009300 115.9224816
  29.1980012 111.8774997 118.9619988  29.3830012 111.5434997 119.8399988
  30.0440012 112.1864997 118.6399988  29.3377539 111.8736047 119.0385605
  31.5430012 113.1634997 118.2059988  32.2200012 112.5304997 117.9659988
  31.8650012 113.5644997 119.0129988  31.6791637 113.1311154 118.2822793
  36.4600012  95.7524997 117.2849988  35.6480012  96.0774997 116.8979988
  36.6930012  94.9924997 116.7519988  36.3802203  95.6942758 117.1598880
  22.2890012 113.7344997 116.0499988  21.5680012 114.1744997 115.5989988
  21.9230012 113.4834997 116.8979988  22.1409651 113.7607242 116.1029640
  24.7560012 113.3344997 115.0799988  23.8910012 113.4064997 115.4839988
  24.7010012 113.8814997 114.2959988  24.6302085 113.4182685 115.0293362
  29.4660012 113.2224997 114.2549988  29.0100012 113.7514997 113.6009988
  29.6290012 113.8254997 114.9799988  29.4256068 113.3764607 114.2634838
  31.7940012 112.1004997 115.1999988  30.8890012 112.2654997 114.9339988
  32.2230012 112.9534997 115.1349988  31.7281324 112.2384339 115.1547976
  34.3980012 113.6704997 115.4949988  34.2160012 114.5864997 115.2849988
  34.5750012 113.2604997 114.6489988  34.3970210 113.7404822 115.3517885
  21.7030012 112.3574997 112.9599988  21.6850012 111.9324997 113.8169988
  22.5080012 112.0394997 112.5509988  21.8093529 112.2563013 113.0220946
  23.8450012 111.0674997 111.6149988  23.6260012 110.1514997 111.7849988
  24.6690012 111.2074997 112.0809988  23.9264420 110.9610520 111.7012773
  26.3820012 111.5374997 112.4639988  26.5950012 110.6494997 112.1769988
  26.4460012 111.5034997 113.4179988  26.4198231 111.4113102 112.5537397
  29.8900012  97.2014997 111.6079988  29.2160012  96.5724997 111.8639988
  30.4540012  96.7174997 111.0049988  29.8739230  97.0498744 111.5615340
  35.0330012  95.3094997 111.7209988  35.6370012  95.8564997 111.2189988
  34.1630012  95.6284997 111.4799988  34.9981208  95.4275137 111.6196886
  36.7600012  96.4474997 110.0539988  37.3720012  95.9334997 109.5269988
  37.1420012  97.3254997 110.0769988  36.8953371  96.4957866 109.9850041
  22.2170012  95.8354997 109.4299988  21.4400012  95.6014997 108.9229988
  22.7470012  95.0384997 109.4389988  22.1822330  95.6956988 109.3617742
  21.0530012  95.6334997 105.2339988  21.4920012  96.2444997 104.6419988
  20.4200012  96.1714997 105.7079988  21.0274514  95.7899257 105.2170930
  26.7960012  95.7624997 109.2439988  27.6710012  96.1504997 109.2139988
  26.6600012  95.5474997 110.1659988  26.8973695  95.7865184 109.3646440
  32.3530012  95.7924997 110.8929988  32.4290012  95.8874997 109.9429988
  32.0780012  94.8844997 111.0219988  32.3262321  95.6827867 110.7805079
  33.7060012  95.8184997 106.5849988  33.0040012  96.4334997 106.3749988
  33.2620012  94.9804997 106.7159988  33.5496450  95.7895639 106.5739000
  22.9140012  97.5494997 103.6759988  23.4060012  96.9194997 103.1489988
  23.5380012  97.8454997 104.3389988  23.0655688  97.5033804 103.6935482
  27.9400012  97.8424997 106.1329988  28.1180012  97.1964997 106.8159988
  27.8870012  98.6764997 106.5999988  27.9571999  97.8668009 106.2895917
  36.5280012 112.3544997 107.2079988  36.3330012 111.6064997 106.6429988
  36.4890012 113.1124997 106.6249988  36.4960380 112.3546099 107.0518384
  22.1750012  96.3494997 118.9479988  21.8090012  95.5844997 119.3899988
  23.0880012  96.3784997 119.2339988  22.2482736  96.2485640 119.0472502
  24.1480012  95.7004997 120.4839988  25.0460012  95.4264997 120.2989988
  23.7610012  94.9574997 120.9479988  24.2186612  95.5625914 120.5213643
  32.5690012  95.0324997 120.6659988  32.6460012  94.6064997 121.5199988
  33.4630012  95.0464997 120.3229988  32.7003428  94.9760879 120.7365310
  35.7450012 111.1054997 119.3579988  34.9630012 110.9194997 118.8379988
  35.6730012 112.0344997 119.5759988  35.6282274 111.2056643 119.3163018
  50.1510012 104.9914997 109.3889988  50.2400012 105.9354997 109.2569988
  49.5130012 104.7164997 108.7309988  50.0769081 105.0834830 109.2819614
  49.0840012 104.2464997 112.8079988  49.0460012 103.6004997 113.5129988
  48.7620012 103.7804997 112.0369988  49.0352333 104.0949408 112.8002978
  41.4530012 103.8614997 114.4009988  41.4940012 103.2354997 115.1239988
  42.1560012 104.4854997 114.5829988  41.5536363 103.8601196 114.5246044
  52.7900012 107.1854997 111.1089988  52.3500012 106.4654997 111.5599988
  52.7770012 107.9064997 111.7389988  52.7280226 107.1843731 111.2558494
  42.3760012 108.3114997 112.9359988  42.0070012 107.5094997 112.5659988
  43.3170012 108.1424997 112.9819988  42.4527289 108.1790153 112.8916316
  38.9860012 101.9714997 108.3289988  38.5390012 102.8174997 108.3099988
  38.4250012 101.3914997 107.8129988  38.8489900 102.0089916 108.2566801
  39.6970012 104.1334997 110.4539988  39.9100012 103.3634997 110.9819988
  40.4350012 104.2224997 109.8509988  39.8259044 104.0401968 110.4447123
  49.9020012 112.2904997 111.3209988  50.5220012 111.6134997 111.0479988
  49.6940012 112.0724997 112.2299988  49.9586726 112.1684800 111.4064812
  47.4740012 106.6794997 113.2139988  47.7780012 105.9934997 112.6189988
  48.1950012 106.7974997 113.8319988  47.6130671 106.6016304 113.2161816
  56.1370012  98.2804997 114.0749988  56.1860012  98.8904997 114.8099988
  56.5620012  98.7414997 113.3519988  56.2011746  98.4263796 114.0779175
  50.6150012 101.0734997 113.5409988  50.7570012 100.1274997 113.5619988
  50.5080012 101.2804997 112.6129988  50.6199919 100.9718246 113.4183408
  43.7690012  99.1744997 110.8139988  43.8130012 100.0344997 110.3949988
  43.3120012  98.6224997 110.1799988  43.7132240  99.2174422 110.6709864
  51.4920012  99.3054997 109.2149988  52.1380012  98.9764997 109.8389988
  52.0020012  99.8234997 108.5919988  51.6494299  99.3304450 109.2162731
  40.3900012 101.5714997 111.5759988  41.0430012 101.0214997 112.0079988
  40.4140012 101.2974997 110.6589988  40.4826683 101.4591466 111.5112123
  45.5460012 103.1214997 110.7909988  46.1620012 102.5954997 111.3009988
  44.9600012 102.4814997 110.3879988  45.5510810 102.9629208 110.8063173
  56.5280012  99.7584997 116.3099988  55.8400012 100.4164997 116.2149988
  56.5440012  99.5614997 117.2469988  56.4359540  99.8219819 116.4235990
  42.5800012  98.0924997 114.8879988  42.3610012  98.6224997 114.1219988
  41.9120012  98.3194997 115.5349988  42.4597600  98.1956906 114.8706379
  49.9490012 107.5924997 108.4319988  49.6530012 107.2704997 107.5809988
  49.6240012 108.4924997 108.4729988  49.8646371 107.6700215 108.3211801
  45.1490012 105.7684997 115.1749988  44.4090012 106.3664997 115.2789988
  45.8630012 106.3224997 114.8599988  45.1442237 105.9252831 115.1466465
  53.2560012  98.5964997 111.1949988  53.0400012  97.8304997 111.7279988
  53.9110012  99.0684997 111.7079988  53.3150632  98.5555889 111.3372861
  42.1730012  99.9844997 112.8399988  42.7870012 100.6174997 113.2129988
  42.6850012  99.5124997 112.1839988  42.3261981 100.0072267 112.8022908
  43.5560012 107.7324997 115.9619988  43.5510012 108.6124997 115.5839988
  42.7030012 107.6494997 116.3869988  43.4399464 107.8416117 115.9677907
  39.6770012 107.4034997 106.7439988  39.4050012 107.6324997 105.8559988
  39.7230012 108.2414997 107.2049988  39.6459482 107.5481318 106.6846273
  53.3020012 109.0254997 113.4569988  52.3610012 109.0834997 113.6189988
  53.5790012 109.9314997 113.3199988  53.2104679 109.1559443 113.4606815
  53.6030012  97.3114997 114.8749988  52.8670012  97.9224997 114.8369988
  54.2860012  97.7264997 114.3479988  53.5946541  97.4511374 114.7985832
  46.6060012  95.3984997 112.3399988  46.4890012  94.4494997 112.2859988
  45.7510012  95.7304997 112.6139988  46.4744212  95.3135571 112.3696497
  51.5540012 110.8064997 110.0819988  51.9800012 110.0994997 109.5969988
  51.8710012 111.6074997 109.6659988  51.6551683 110.8181017 109.9593680
  52.7140012 108.7074997 108.5909988  52.4560012 108.0174997 107.9799988
  52.7850012 108.2644997 109.4369988  52.6882856 108.5532124 108.6216885
  54.4000012 107.2734997 117.0679988  54.5400012 106.6824997 116.3289988
  54.5670012 108.1464997 116.7119988  54.4417411 107.3105428 116.9186894
  48.8730012 104.2354997 106.8409988  48.1610012 104.7704997 106.4889988
  49.5640012 104.2914997 106.1809988  48.8690132 104.3162543 106.7036289
  48.9260012 102.6934997 103.8799988  49.6270012 102.7154997 104.5309988
  49.2290012 102.0654997 103.2229988  49.0628133 102.6117070 103.8803369
  56.2420012 103.6134997 115.1339988  55.5890012 104.3084997 115.2239988
  56.7070012 103.8234997 114.3249988  56.2155274 103.7370643 115.0368462
  52.2780012 104.4454997 107.7929988  51.5460012 104.6734997 108.3659988
  52.7260012 103.7314997 108.2469988  52.2382725 104.3802145 107.9328816
  52.1760012 102.6194997 116.8599988  52.2560012 103.3824997 117.4319988
  51.5740012 102.8984997 116.1699988  52.1055756 102.7617134 116.8450589
  43.9240012 105.0754997 109.6749988  43.5930012 104.7054997 108.8569988
  44.5120012 104.4054997 110.0219988  43.9581873 104.9341156 109.6098102
  45.2900012 108.5034997 112.3559988  45.1960012 107.9254997 111.5999988
  46.0200012 108.1324997 112.8529988  45.3757387 108.3741663 112.3195342
  44.2900012 103.8444997 113.3089988  44.8560012 103.9654997 112.5459988
  44.6090012 104.4814997 113.9469988  44.4105474 103.9472219 113.2909862
  50.5990012 109.3474997 114.0429988  50.3590012 110.0094997 114.6909988
  50.4010012 108.5134997 114.4679988  50.5393808 109.3253134 114.1891524
  45.1700012 108.2434997 118.0259988  44.8590012 109.0254997 118.4809988
  44.5200012 108.0904997 117.3399988  45.0395558 108.3299105 117.9955871
  51.1490012 103.6074997 105.4779988  51.7290012 103.7574997 106.2249988
  51.5630012 104.0784997 104.7539988  51.2842997 103.6916578 105.4824058
  42.0900012 104.4414997 117.2539988  42.1610012 105.0924997 117.9529988
  41.2000012 104.5444997 116.9189988  41.9793005 104.5445427 117.3043495
  48.8760012 110.3444997 108.9129988  49.3500012 110.6394997 109.6899988
  48.3130012 111.0824997 108.6799988  48.8648184 110.4847247 108.9879628
  43.4100012 110.3154997 118.7889988  43.4170012 110.1794997 117.8419988
  42.4940012 110.1974997 119.0409988  43.2871714 110.2809430 118.6934666
  54.8480012  95.3574997 105.2909988  53.9480012  95.4964997 105.5859988
  55.1000012  96.1884997 104.8889988  54.7588702  95.4889074 105.2770205
  42.9140012 104.1454997 107.2639988  42.6220012 104.9134997 106.7739988
  42.2400012 103.4854997 107.1019988  42.7828111 104.1615587 107.1748978
  39.0070012 106.5084997 116.0789988  38.5060012 106.4804997 115.2639988
  39.0120012 105.6024997 116.3889988  38.9390944 106.3822396 116.0093226
  38.7570012 109.2884997 112.9629988  39.7030012 109.1444997 112.9439988
  38.6450012 110.0724997 113.4999988  38.8712727 109.3748046 113.0330072
  56.9550012 109.9544997 118.6459988  56.9060012 108.9994997 118.6089988
  56.1280012 110.2224997 119.0469988  56.8364940 109.8598998 118.6951375
  47.9340012 109.5284997 117.5219988  48.0210012 110.3544997 117.9969988
  47.0700012 109.1984997 117.7709988  47.8291964 109.5969878 117.6206549
  48.3480012 113.3004997 107.3279988  48.2730012 113.1794997 106.3809988
  48.3810012 114.2504997 107.4459988  48.3422068 113.4122646 107.2144967
  42.0010012 112.0894997 109.1089988  42.1540012 111.7414997 109.9869988
  41.1510012 111.7334997 108.8539988  41.9069166 111.9936216 109.1948079
  51.1190012 112.3804997 107.0789988  50.1830012 112.4804997 107.2579988
  51.3990012 111.6714997 107.6579988  51.0289553 112.2983406 107.1817087
  54.1070012 101.4474997 119.1259988  53.7000012 101.9284997 118.4049988
  54.1480012 100.5424997 118.8179988  54.0568437 101.3909374 118.9856683
  41.2560012 107.8314997 117.1229988  41.4720012 107.4704997 117.9819988
  40.4010012 107.4574997 116.9129988  41.1699292 107.7314111 117.2123386
  43.8750012  96.3014997 113.1179988  43.0130012  96.2144997 112.7099988
  43.8520012  97.1574997 113.5459988  43.7540409  96.4052883 113.1200589
  48.5380012  96.0234997 116.4929988  48.9580012  95.6084997 117.2459988
  47.6050012  95.8454997 116.6099988  48.4693644  95.9425900 116.6119539
  51.8640012  99.7794997 117.3459988  51.3500012  99.6534997 118.1439988
  51.7090012 100.6914997 117.1019988  51.7726852  99.8856132 117.4222158
  43.9660012 101.2674997 114.2129988  43.3240012 101.2264997 114.9219988
  44.0030012 102.1934997 113.9749988  43.8830664 101.3871430 114.2779219
  43.9630012 101.4884997 109.1249988  43.0700012 101.1474997 109.0659988
  44.4130012 101.1114997 108.3689988  43.9018130 101.3909631 109.0147702
  49.4980012 101.9044997 107.9419988  49.0890012 102.7194997 107.6509988
  50.2190012 101.7644997 107.3279988  49.5394537 101.9972018 107.8191342
  48.6000012 102.0794997 119.4299988  48.0380012 101.3754997 119.7509988
  49.4270012 101.9594997 119.8979988  48.6347095 101.9667883 119.5372330
  50.5030012 101.3504997 110.7559988  50.3080012 101.9554997 110.0409988
  50.6840012 100.5164997 110.3219988  50.5007614 101.3206300 110.5994405
  41.7160012 101.5874997 116.0799988  41.6780012 101.9874997 116.9489988
  41.2250012 100.7704997 116.1709988  41.6444684 101.5318069 116.2111059
  38.3240012  98.7034997 109.9309988  38.9550012  98.6744997 110.6499988
  38.7730012  98.2784997 109.1999988  38.4710918  98.6420836 109.9306441
  39.5980012  99.4494997 105.3549988  40.0720012 100.0404997 104.7699988
  38.8810012  99.9804997 105.7019988  39.5659341  99.6020867 105.3218836
  49.7670012 102.9884997 115.4269988  50.0900012 102.3574997 114.7839988
  49.3270012 102.4534997 116.0879988  49.7517484 102.8298387 115.4283198
  46.5440012  98.9154997 110.2109988  45.6330012  98.9724997 110.4999988
  47.0500012  98.8554997 111.0219988  46.4876899  98.9151941 110.3601184
  41.3730012 100.5444997 109.0379988  40.4830012 100.6444997 108.6979988
  41.6690012  99.7024997 108.6919988  41.2912823 100.4443545 108.9447213
  45.0260012 100.5444997 106.6949988  45.9570012 100.6734997 106.8729988
  44.8110012 101.2144997 106.0449988  45.1244247 100.6526565 106.6315747
  50.9490012  98.1504997 113.4759988  50.2730012  98.2814997 114.1399988
  50.4640012  97.9954997 112.6649988  50.7907146  98.1475157 113.4574469
  43.7000012 101.7394997 104.2609988  43.1570012 101.3594997 103.5699988
  44.5330012 101.9334997 103.8329988  43.7383631 101.7137125 104.1084501
  54.2370012 113.8224997 119.7519988  54.4370012 114.2464997 118.9179988
  54.8920012 114.1654997 120.3589988  54.3530072 113.9269857 119.7198592
  41.8350012 106.2964997 119.3599988  42.5670012 106.5504997 119.9219988
  41.0550012 106.5004997 119.8759988  41.8297073 106.3588160 119.5066151
  47.8640012 101.7034997 112.0979988  48.4290012 101.1564997 111.5509988
  47.7170012 101.1814997 112.8869988  47.9213380 101.5582259 112.1298695
  42.8660012  97.8394997 108.5169988  42.5490012  96.9374997 108.4809988
  43.6480012  97.8414997 107.9639988  42.9282408  97.7162474 108.4373569
  46.4910012 100.0914997 114.5119988  45.6550012 100.5454997 114.6229988
  47.0150012 100.3674997 115.2639988  46.4475416 100.1908660 114.6288119
  47.0350012 106.3044997 106.1969988  46.2900012 105.7974997 105.8749988
  46.9010012 106.3534997 107.1439988  46.9148776 106.2416940 106.2808647
  54.1850012 105.4374997 114.9839988  54.8270012 105.8944997 114.4399988
  53.3550012 105.5504997 114.5209988  54.1605963 105.5152704 114.8470177
  48.5540012 106.4884997 117.4339988  48.2090012 106.1074997 118.2409988
  48.3540012 107.4224997 117.5049988  48.4797527 106.5625135 117.5540689
  51.6510012 100.9854997 106.0569988  52.5430012 100.8484997 106.3759988
  51.7080012 101.7764997 105.5199988  51.7806504 101.0736052 106.0280818
  42.1600012 105.5994997 111.9669988  42.9050012 105.5974997 111.3659988
  42.2380012 104.7764997 112.4479988  42.2724995 105.4878887 111.9498282
  49.1610012 107.7634997 105.2229988  48.8650012 108.5894997 105.6039988
  48.4580012 107.1434997 105.4189988  49.0254914 107.7928199 105.3016443
  39.1680012 104.0604997 117.2819988  39.3910012 103.6424997 118.1139988
  38.5660012 103.4474997 116.8589988  39.1171759 103.9204668 117.3387022
  46.1840012 103.5774997 119.4949988  45.8880012 103.4114997 118.5999988
  47.1160012 103.3574997 119.4839988  46.2694166 103.5250640 119.3710536
  50.8050012 108.9504997 117.3849988  49.9040012 109.1334997 117.1169988
  50.8390012 109.2094997 118.3049988  50.6863139 109.0105849 117.4728099
  56.5360012 101.1954997 105.7519988  55.9820012 100.7994997 105.0799988
  56.6360012 102.1054997 105.4739988  56.4737059 101.2643586 105.6224401
  56.4990012 106.9954997 118.5889988  55.6480012 107.2334997 118.2219988
  57.0900012 106.9784997 117.8359988  56.4622487 107.0258258 118.4368893
  54.8310012 109.9814997 106.2169988  54.4580012 109.1554997 106.5259988
  55.1090012 109.7984997 105.3189988  54.8175222 109.8437430 106.1379473
  51.9920012 104.7894997 113.2379988  51.0630012 104.5574997 113.2109988
  52.4430012 104.0124997 112.9079988  51.9259216 104.6527238 113.1896917
  44.5350012 109.1174997 109.3709988  45.0620012 109.8904997 109.1709988
  43.6550012 109.3424997 109.0689988  44.4882031 109.2537545 109.3027912
  45.9620012 106.7804997 108.9469988  45.7210012 107.7054997 108.9889988
  45.2210012 106.3214997 109.3439988  45.8289225 106.8450933 109.0063742
  46.4770012 110.9294997 115.2629988  46.8390012 111.7844997 115.0289988
  47.0080012 110.6374997 116.0029988  46.5984473 111.0071060 115.3310855
  44.6450012 111.8024997 108.4929988  43.6950012 111.9074997 108.5439988
  44.9970012 112.6224997 108.8369988  44.5624195 111.9278800 108.5465502
  50.0210012 107.0284997 114.9629988  49.5950012 106.8014997 115.7899988
  50.6010012 106.2904997 114.7809988  50.0411868 106.8975299 115.0515830
  52.2240012 107.9574997 104.0369988  52.5770012 107.5774997 104.8409988
  51.2750012 107.8644997 104.1239988  52.1440918 107.8928956 104.1588532
  52.6790012 111.5804997 117.4329988  52.0780012 111.0254997 116.9369988
  52.9610012 112.2474997 116.8059988  52.6348804 111.5946625 117.2804849
  56.7270012 112.4374997 104.2379988  57.4710012 113.0234997 104.0979988
  56.0330012 113.0054997 104.5709988  56.7349899 112.5945798 104.2638778
  40.8020012  98.8134997 116.8399988  39.9090012  99.1524997 116.7719988
  40.7030012  97.9584997 117.2579988  40.6664164  98.7442588 116.8872235
  53.0900012 106.6304997 106.2639988  52.8120012 105.9024997 106.8199988
  54.0170012 106.7494997 106.4689988  53.1773124 106.5468802 106.3678845
  40.4530012 110.6184997 115.2749988  40.6700012 109.6864997 115.2439988
  40.6990012 110.8924997 116.1579988  40.5159549 110.5280636 115.3901763
  46.3150012 109.0694997 102.4839988  46.5540012 108.3214997 101.9369988
  46.0460012 108.6814997 103.3169988  46.3113675 108.9146638 102.5216865
  49.5360012  98.5544997 115.7299988  50.2350012  98.6284997 116.3799988
  49.1550012  97.6904997 115.8839988  49.5801767  98.4477624 115.8398322
  50.3210012  98.2064997 106.8269988  50.5410012  98.6784997 106.0239988
  50.8790012  98.6014997 107.4969988  50.4264968  98.3244285 106.8077331
  47.9890012 110.3374997 105.6899988  47.1730012 110.8344997 105.7419988
  48.5190012 110.8124997 105.0499988  47.9489161 110.4697722 105.6105956
  47.5210012  99.9344997 107.6619988  48.3330012 100.4394997 107.7079988
  47.2760012  99.7894997 108.5759988  47.5990520  99.9840375 107.7918517
  48.0560012 100.9204997 116.8459988  48.1750012 101.4944997 117.6039988
  48.7120012 100.2324997 116.9609988  48.1609025 100.9059858 116.9651321
  48.4040012  97.0154997 108.5999988  48.0580012  97.6334997 109.2439988
  49.0630012  97.5164997 108.1179988  48.4456968  97.1676278 108.6229383
  45.3280012 111.3814997 105.6709988  45.4880012 112.1804997 105.1709988
  45.1300012 111.6874997 106.5559988  45.3231637 111.5324020 105.7221144
  44.0620012  98.0784997 105.2869988  43.9790012  98.9674997 105.6339988
  44.9520012  97.8134997 105.5189988  44.1709469  98.1641430 105.3657626
  54.2610012  98.8274997 117.6809988  53.3440012  99.0904997 117.5939988
  54.5960012  98.8244997 116.7849988  54.1808613  98.8630761 117.5478837
  52.8630012 102.5784997 111.7769988  52.0650012 102.1634997 111.4489988
  53.3080012 101.8874997 112.2679988  52.8139885 102.4283543 111.7984889
  40.6370012 101.1704997 103.4639988  40.5920012 102.1094997 103.6419988
  39.7490012 100.9344997 103.1939988  40.5108574 101.2671892 103.4518912
  53.9490012 111.8344997 113.3999988  53.7940012 112.5124997 112.7419988
  54.8820012 111.9064997 113.6029988  54.0538657 111.9369546 113.3374360
  41.4450012  95.9524997 112.1369988  41.2160012  96.0114997 111.2089988
  41.0020012  95.1604997 112.4429988  41.3538530  95.8535753 112.0514786
  40.3750012 109.8924997 108.2969988  39.5430012 110.3654997 108.3239988
  40.9210012 110.4024997 107.6989988  40.3350352 110.0261332 108.2198463
  39.6630012 112.5054997 119.6269988  40.2040012 112.2884997 120.3869988
  39.1820012 111.6994997 119.4369988  39.6719951 112.3669270 119.7052576
  44.2610012 111.4244997 121.2469988  45.0280012 110.9654997 121.5879988
  44.2390012 111.1984997 120.3179988  44.3631275 111.3310186 121.1680101
  50.8380012 109.8044997 119.9769988  50.4870012 108.9484997 120.2199988
  51.5640012 109.9474997 120.5839988  50.8880769 109.7065636 120.0923619
  39.5700012 106.3154997 120.5809988  39.7140012 105.4134997 120.2949988
  38.7980012 106.6014997 120.0939988  39.4852753 106.2306816 120.4759505
  46.2260012 106.2854997 120.0139988  45.8970012 106.5564997 119.1569988
  46.3780012 105.3444997 119.9269988  46.2014809 106.1953862 119.8848244
  49.2640012 107.7064997 102.4499988  48.9950012 107.8864997 103.3509988
  49.0580012 106.7804997 102.3179988  49.1993427 107.6060261 102.5555073
  51.9600012 106.2014997 117.3969988  52.7060012 106.7894997 117.2779988
  51.2030012 106.7834997 117.4609988  51.9597820 106.3607143 117.3893590
  40.4030012 103.5154997 120.0009988  40.8110012 102.6584997 119.8799988
  40.1430012 103.5304997 120.9219988  40.4237568 103.4000807 120.1089588
  45.0610012 104.6314997 105.0199988  44.6010012 104.1474997 105.7059988
  45.3160012 103.9634997 104.3839988  45.0324902 104.4748731 105.0279334
  44.3500012 102.5244997 117.3759988  43.7320012 103.1994997 117.6559988
  44.6940012 102.8454997 116.5419988  44.3119132 102.6602411 117.3016262
  46.1320012 102.8744997 103.2819988  45.9520012 102.7204997 102.3549988
  47.0820012 102.9824997 103.3269988  46.2357776 102.8680175 103.1611843
  49.3700012 104.9964997 120.6529988  50.3230012 105.0794997 120.6259988
  49.2090012 104.2844997 121.2729988  49.4786426 104.9116746 120.7330579
  44.6890012  99.8794997 118.4579988  44.8390012  99.1504997 117.8559988
  44.6920012 100.6564997 117.8989988  44.7099302  99.8847851 118.3000692
  45.1020012  98.2494997 115.9509988  45.6380012  98.7004997 115.2989988
  44.2500012  98.1414997 115.5279988  45.0602178  98.2966390 115.8045756
  46.6840012 103.6884997 116.1899988  47.4340012 103.5324997 115.6169988
  46.3450012 104.5404997 115.9149988  46.7408921 103.7822968 116.0743561
  51.0990012 101.5034997 121.2189988  51.2920012 100.5724997 121.1069988
  51.9570012 101.9284997 121.2079988  51.2412934 101.4336531 121.2022031
  52.4160012 104.2924997 119.2959988  52.1350012 105.0014997 118.7179988
  53.3590012 104.2194997 119.1449988  52.5049291 104.3796711 119.1964967
  43.1680012 101.0774997 120.3699988  42.4010012 100.5454997 120.1589988
  43.8470012 100.7674997 119.7699988  43.1547877 100.9628300 120.2600716
  45.9080012  95.7054997 116.3819988  45.8090012  96.6524997 116.2769988
  45.1650012  95.3334997 115.9059988  45.7941184  95.7845863 116.3033621
  47.1720012 100.0274997 119.9459988  46.9360012  99.8074997 120.8469988
  46.3880012  99.8204997 119.4359988  47.0338504  99.9694586 120.0003431
  49.8870012  99.1544997 119.0209988  48.9400012  99.1864997 119.1539988
  50.2000012  98.5294997 119.6749988  49.7996707  99.0743998 119.1276060
  51.5210012  97.7884997 121.0269988  51.4250012  96.8364997 121.0209988
  51.2000012  98.0574997 121.8869988  51.4644070  97.6944035 121.1425441
  41.3480012  98.9984997 120.0739988  41.5600012  98.2914997 119.4639988
  41.2370012  98.5604997 120.9179988  41.3619721  98.8427084 120.1046843
  46.1290012  94.9994997 119.0529988  46.8410012  94.3594997 119.0389988
  46.0280012  95.2664997 118.1399988  46.2128066  94.9480079 118.9275677
  46.4830012  96.6824997 121.1069988  46.3510012  96.2064997 120.2869988
  45.8840012  97.4264997 121.0519988  46.3839071  96.7179618 120.9872886
  46.0290012 113.5654997 104.2829988  46.9620012 113.7234997 104.4269988
  45.7650012 114.2404997 103.6589988  46.1209888 113.6784510 104.2182842
  38.2470012 113.5944997 108.8439988  37.6000012 113.1324997 108.3109988
  38.6010012 112.9224997 109.4259988  38.2063849 113.4404723 108.8497959
  39.1170012 111.6754997 110.6479988  38.7820012 110.7954997 110.8199988
  39.3390012 112.0204997 111.5129988  39.1011783 111.6017500 110.7884208
  56.6650012 112.4844997 113.6289988  56.6440012 112.6694997 114.5679988
  57.3560012 113.0534997 113.2879988  56.7554618 112.5866606 113.7113864
  56.2290012 112.0524997 116.5509988  55.7410012 111.3164997 116.1789988
  56.7780012 111.6584997 117.2289988  56.2364820 111.8985889 116.5917813
  54.6790012 107.8414997 121.1889988  53.8130012 107.7364997 121.5829988
  55.0560012 108.6004997 121.6349988  54.6113308 107.9296900 121.3032393
  55.9800012 106.0984997 106.7029988  56.8300012 106.5194997 106.8299988
  55.9860012 105.3584997 107.3099988  56.0971372 106.0560803 106.8024344
  56.3750012 104.1514997 108.5259988  55.6480012 103.6724997 108.9239988
  56.9560012 104.3574997 109.2589988  56.3540473 104.1138103 108.6794528
  56.1340012 106.9364997 113.4739988  56.9670012 106.5584997 113.1939988
  56.2460012 107.8794997 113.3549988  56.2632647 107.0122218 113.4195487
  54.6200012 109.8144997 115.7809988  53.9730012 110.1394997 116.4069988
  54.1030012 109.3744997 115.1069988  54.4614029 109.7995004 115.7755827
  56.6430012 104.0524997 104.9179988  56.1210012 104.4094997 104.1989988
  56.6100012 104.7274997 105.5959988  56.5671634 104.1925413 104.9113145
  54.9920012 101.2924997 103.4679988  55.0880012 101.9594997 102.7879988
  54.8520012 100.4764997 102.9869988  54.9862272 101.2735655 103.3098347
  54.1610012 102.6724997 109.0889988  54.0110012 101.7274997 109.0689988
  53.8080012 102.9534997 109.9329988  54.0927448 102.5811481 109.2003705
  39.1970012 104.7504997 113.0999988  39.3810012 104.6684997 112.1639988
  40.0460012 104.6264997 113.5229988  39.3370151 104.7225073 113.0291451
  55.0180012 104.6424997 118.7279988  55.6010012 103.9084997 118.9199988
  55.5820012 105.4144997 118.7749988  55.1739769 104.6464227 118.7606159
  56.5140012 102.5454997 119.4129988  55.6510012 102.1664997 119.2469988
  57.1190012 101.8064997 119.3379988  56.4776119 102.3938268 119.3801528
  53.8720012 100.2554997 107.5519988  54.1520012  99.3484997 107.6759988
  54.6310012 100.6894997 107.1629988  54.0129277 100.1900942 107.5163682
  54.4840012 100.8364997 112.9879988  55.4170012 101.0484997 112.9529988
  54.2490012 100.9384997 113.9099988  54.5799244 100.8793100 113.1078892
  54.5130012 101.5734997 115.7639988  53.6700012 101.8414997 116.1299988
  54.9550012 102.3954997 115.5529988  54.4574158 101.7213291 115.7855491
  38.7940012 100.0214997 119.2409988  39.7140012  99.8994997 119.4769988
  38.3450012  99.2714997 119.6299988  38.8591580  99.9033727 119.3259006
  56.7960012  95.5534997 121.1169988  57.1460012  94.8994997 120.5119988
  56.9430012  96.3904997 120.6769988  56.8637887  95.5771548 120.9746858
  54.4850012  97.5184997 107.5999988  54.6680012  97.0694997 108.4259988
  53.8860012  96.9334997 107.1369988  54.4290202  97.3779975 107.6503275
  40.0150012  98.3334997 112.1319988  40.4610012  97.5414997 112.4339988
  40.4820012  99.0494997 112.5619988  40.1390831  98.3220685 112.2314006
  38.3190012 101.3324997 113.2009988  38.8110012 101.1114997 112.4099988
  38.6820012 102.1734997 113.4819988  38.4353126 101.4158357 113.1307531
  56.3160012  97.6624997 119.4659988  55.3980012  97.9334997 119.4309988
  56.4390012  97.1274997 118.6819988  56.2069729  97.6272508 119.3551923
  56.3520012  97.5854997 104.1279988  56.7640012  96.8644997 103.6529988
  57.0340012  98.2554997 104.1869988  56.5005885  97.5772368 104.0708915
  38.6330012  97.5904997 107.2549988  37.7080012  97.7994997 107.1259988
  39.0870012  98.0744997 106.5649988  38.5677292  97.6845343 107.1440720
  53.4040012 112.5744997 109.2009988  54.0560012 112.2274997 108.5929988
  53.9140012 113.0634997 109.8469988  53.5622637 112.5930597 109.2050236
  38.5970012  96.3284997 115.5989988  37.9320012  96.0824997 116.2429988
  38.1540012  96.9504997 115.0219988  38.4461318  96.3789410 115.6090898
  40.7890012 109.5034997 119.7439988  39.9680012 109.6784997 119.2829988
  40.5360012 109.4304997 120.6639988  40.6425585 109.5175544 119.8053561
  43.7430012 110.4784997 116.0019988  43.3180012 111.2874997 115.7199988
  44.6470012 110.5634997 115.6999988  43.8069975 110.6009300 115.9224816
  48.0540012 111.8774997 118.9619988  48.2390012 111.5434997 119.8399988
  48.9000012 112.1864997 118.6399988  48.1937539 111.8736047 119.0385605
  50.3990012 113.1634997 118.2059988  51.0760012 112.5304997 117.9659988
  50.7210012 113.5644997 119.0129988  50.5351637 113.1311154 118.2822793
  55.3160012  95.7524997 117.2849988  54.5040012  96.0774997 116.8979988
  55.5490012  94.9924997 116.7519988  55.2362203  95.6942758 117.1598880
  41.1450012 113.7344997 116.0499988  40.4240012 114.1744997 115.5989988
  40.7790012 113.4834997 116.8979988  40.9969651 113.7607242 116.1029640
  43.6120012 113.3344997 115.0799988  42.7470012 113.4064997 115.4839988
  43.5570012 113.8814997 114.2959988  43.4862085 113.4182685 115.0293362
  48.3220012 113.2224997 114.2549988  47.8660012 113.7514997 113.6009988
  48.4850012 113.8254997 114.9799988  48.2816068 113.3764607 114.2634838
  50.6500012 112.1004997 115.1999988  49.7450012 112.2654997 114.9339988
  51.0790012 112.9534997 115.1349988  50.5841324 112.2384339 115.1547976
  53.2540012 113.6704997 115.4949988  53.0720012 114.5864997 115.2849988
  53.4310012 113.2604997 114.6489988  53.2530210 113.7404822 115.3517885
  40.5590012 112.3574997 112.9599988  40.5410012 111.9324997 113.8169988
  41.3640012 112.0394997 112.5509988  40.6653529 112.2563013 113.0220946
  42.7010012 111.0674997 111.6149988  42.4820012 110.1514997 111.7849988
  43.5250012 111.2074997 112.0809988  42.7824420 110.9610520 111.7012774
  45.2380012 111.5374997 112.4639988  45.4510012 110.6494997 112.1769988
  45.3020012 111.5034997 113.4179988  45.2758231 111.4113102 112.5537397
  48.7460012  97.2014997 111.6079988  48.0720012  96.5724997 111.8639988
  49.3100012  96.7174997 111.0049988  48.7299230  97.0498744 111.5615340
  53.8890012  95.3094997 111.7209988  54.4930012  95.8564997 111.2189988
  53.0190012  95.6284997 111.4799988  53.8541208  95.4275137 111.6196886
  55.6160012  96.4474997 110.0539988  56.2280012  95.9334997 109.5269988
  55.9980012  97.3254997 110.0769988  55.7513371  96.4957866 109.9850041
  41.0730012  95.8354997 109.4299988  40.2960012  95.6014997 108.9229988
  41.6030012  95.0384997 109.4389988  41.0382330  95.6956988 109.3617742
  39.9090012  95.6334997 105.2339988  40.3480012  96.2444997 104.6419988
  39.2760012  96.1714997 105.7079988  39.8834514  95.7899257 105.2170930
  45.6520012  95.7624997 109.2439988  46.5270012  96.1504997 109.2139988
  45.5160012  95.5474997 110.1659988  45.7533695  95.7865184 109.3646440
  51.2090012  95.7924997 110.8929988  51.2850012  95.8874997 109.9429988
  50.9340012  94.8844997 111.0219988  51.1822321  95.6827867 110.7805079
  52.5620012  95.8184997 106.5849988  51.8600012  96.4334997 106.3749988
  52.1180012  94.9804997 106.7159988  52.4056450  95.7895639 106.5739000
  39.8100012 111.5814997 106.1309988  39.1250012 111.5434997 105.4639988
  39.8140012 112.4944997 106.4199988  39.7166998 111.6996733 106.0786771
  46.7960012  97.8424997 106.1329988  46.9740012  97.1964997 106.8159988
  46.7430012  98.6764997 106.5999988  46.8131999  97.8668009 106.2895917
  55.3840012 112.3544997 107.2079988  55.1890012 111.6064997 106.6429988
  55.3450012 113.1124997 106.6249988  55.3520380 112.3546099 107.0518384
  41.0310012  96.3494997 118.9479988  40.6650012  95.5844997 119.3899988
  41.9440012  96.3784997 119.2339988  41.1042736  96.2485640 119.0472502
  43.0040012  95.7004997 120.4839988  43.9020012  95.4264997 120.2989988
  42.6170012  94.9574997 120.9479988  43.0746612  95.5625914 120.5213643
  51.4250012  95.0324997 120.6659988  51.5020012  94.6064997 121.5199988
  52.3190012  95.0464997 120.3229988  51.5563428  94.9760879 120.7365310
  54.6010012 111.1054997 119.3579988  53.8190012 110.9194997 118.8379988
  54.5290012 112.0344997 119.5759988  54.4842274 111.2056643 119.3163018
  69.0070012 104.9914997 109.3889988  69.0960012 105.9354997 109.2569988
  68.3690012 104.7164997 108.7309988  68.9329081 105.0834830 109.2819614
  67.9400012 104.2464997 112.8079988  67.9020012 103.6004997 113.5129988
  67.6180012 103.7804997 112.0369988  67.8912333 104.0949408 112.8002978
  60.3090012 103.8614997 114.4009988  60.3500012 103.2354997 115.1239988
  61.0120012 104.4854997 114.5829988  60.4096363 103.8601196 114.5246044
  71.6460012 107.1854997 111.1089988  71.2060012 106.4654997 111.5599988
  71.6330012 107.9064997 111.7389988  71.5840226 107.1843731 111.2558494
  61.2320012 108.3114997 112.9359988  60.8630012 107.5094997 112.5659988
  62.1730012 108.1424997 112.9819988  61.3087289 108.1790153 112.8916316
  57.8420012 101.9714997 108.3289988  57.3950012 102.8174997 108.3099988
  57.2810012 101.3914997 107.8129988  57.7049900 102.0089916 108.2566801
  58.5530012 104.1334997 110.4539988  58.7660012 103.3634997 110.9819988
  59.2910012 104.2224997 109.8509988  58.6819044 104.0401968 110.4447123
  68.7580012 112.2904997 111.3209988  69.3780012 111.6134997 111.0479988
  68.5500012 112.0724997 112.2299988  68.8146726 112.1684800 111.4064812
  66.3300012 106.6794997 113.2139988  66.6340012 105.9934997 112.6189988
  67.0510012 106.7974997 113.8319988  66.4690671 106.6016305 113.2161816
  74.9930012  98.2804997 114.0749988  75.0420012  98.8904997 114.8099988
  75.4180012  98.7414997 113.3519988  75.0571746  98.4263796 114.0779175
  69.4710012 101.0734997 113.5409988  69.6130012 100.1274997 113.5619988
  69.3640012 101.2804997 112.6129988  69.4759919 100.9718246 113.4183408
  62.6250012  99.1744997 110.8139988  62.6690012 100.0344997 110.3949988
  62.1680012  98.6224997 110.1799988  62.5692240  99.2174422 110.6709864
  70.3480012  99.3054997 109.2149988  70.9940012  98.9764997 109.8389988
  70.8580012  99.8234997 108.5919988  70.5054299  99.3304450 109.2162731
  59.2460012 101.5714997 111.5759988  59.8990012 101.0214997 112.0079988
  59.2700012 101.2974997 110.6589988  59.3386683 101.4591466 111.5112123
  64.4020012 103.1214997 110.7909988  65.0180012 102.5954997 111.3009988
  63.8160012 102.4814997 110.3879988  64.4070810 102.9629208 110.8063173
  75.3840012  99.7584997 116.3099988  74.6960012 100.4164997 116.2149988
  75.4000012  99.5614997 117.2469988  75.2919540  99.8219819 116.4235990
  61.4360012  98.0924997 114.8879988  61.2170012  98.6224997 114.1219988
  60.7680012  98.3194997 115.5349988  61.3157600  98.1956906 114.8706379
  68.8050012 107.5924997 108.4319988  68.5090012 107.2704997 107.5809988
  68.4800012 108.4924997 108.4729988  68.7206371 107.6700215 108.3211801
  64.0050012 105.7684997 115.1749988  63.2650012 106.3664997 115.2789988
  64.7190012 106.3224997 114.8599988  64.0002237 105.9252831 115.1466465
  72.1120012  98.5964997 111.1949988  71.8960012  97.8304997 111.7279988
  72.7670012  99.0684997 111.7079988  72.1710632  98.5555889 111.3372861
  61.0290012  99.9844997 112.8399988  61.6430012 100.6174997 113.2129988
  61.5410012  99.5124997 112.1839988  61.1821981 100.0072267 112.8022908
  62.4120012 107.7324997 115.9619988  62.4070012 108.6124997 115.5839988
  61.5590012 107.6494997 116.3869988  62.2959464 107.8416117 115.9677907
  58.5330012 107.4034997 106.7439988  58.2610012 107.6324997 105.8559988
  58.5790012 108.2414997 107.2049988  58.5019482 107.5481318 106.6846273
  72.1580012 109.0254997 113.4569988  71.2170012 109.0834997 113.6189988
  72.4350012 109.9314997 113.3199988  72.0664679 109.1559443 113.4606815
  72.4590012  97.3114997 114.8749988  71.7230012  97.9224997 114.8369988
  73.1420012  97.7264997 114.3479988  72.4506541  97.4511374 114.7985832
  65.4620012  95.3984997 112.3399988  65.3450012  94.4494997 112.2859988
  64.6070012  95.7304997 112.6139988  65.3304212  95.3135571 112.3696497
  70.4100012 110.8064997 110.0819988  70.8360012 110.0994997 109.5969988
  70.7270012 111.6074997 109.6659988  70.5111683 110.8181017 109.9593680
  71.5700012 108.7074997 108.5909988  71.3120012 108.0174997 107.9799988
  71.6410012 108.2644997 109.4369988  71.5442856 108.5532124 108.6216885
  73.2560012 107.2734997 117.0679988  73.3960012 106.6824997 116.3289988
  73.4230012 108.1464997 116.7119988  73.2977411 107.3105428 116.9186894
  67.7290012 104.2354997 106.8409988  67.0170012 104.7704997 106.4889988
  68.4200012 104.2914997 106.1809988  67.7250132 104.3162543 106.7036289
  75.0980012 103.6134997 115.1339988  74.4450012 104.3084997 115.2239988
  75.5630012 103.8234997 114.3249988  75.0715274 103.7370643 115.0368462
  71.1340012 104.4454997 107.7929988  70.4020012 104.6734997 108.3659988
  71.5820012 103.7314997 108.2469988  71.0942725 104.3802145 107.9328816
  71.0320012 102.6194997 116.8599988  71.1120012 103.3824997 117.4319988
  70.4300012 102.8984997 116.1699988  70.9615756 102.7617134 116.8450589
  62.7800012 105.0754997 109.6749988  62.4490012 104.7054997 108.8569988
  63.3680012 104.4054997 110.0219988  62.8141873 104.9341156 109.6098102
  64.1460012 108.5034997 112.3559988  64.0520012 107.9254997 111.5999988
  64.8760012 108.1324997 112.8529988  64.2317387 108.3741663 112.3195342
  63.1460012 103.8444997 113.3089988  63.7120012 103.9654997 112.5459988
  63.4650012 104.4814997 113.9469988  63.2665474 103.9472219 113.2909862
  69.4550012 109.3474997 114.0429988  69.2150012 110.0094997 114.6909988
  69.2570012 108.5134997 114.4679988  69.3953808 109.3253134 114.1891524
  64.0260012 108.2434997 118.0259988  63.7150012 109.0254997 118.4809988
  63.3760012 108.0904997 117.3399988  63.8955558 108.3299105 117.9955871
  70.0050012 103.6074997 105.4779988  70.5850012 103.7574997 106.2249988
  70.4190012 104.0784997 104.7539988  70.1402997 103.6916578 105.4824058
  60.9460012 104.4414997 117.2539988  61.0170012 105.0924997 117.9529988
  60.0560012 104.5444997 116.9189988  60.8353005 104.5445427 117.3043495
  67.7320012 110.3444997 108.9129988  68.2060012 110.6394997 109.6899988
  67.1690012 111.0824997 108.6799988  67.7208184 110.4847247 108.9879628
  62.2660012 110.3154997 118.7889988  62.2730012 110.1794997 117.8419988
  61.3500012 110.1974997 119.0409988  62.1431714 110.2809430 118.6934666
  73.7040012  95.3574997 105.2909988  72.8040012  95.4964997 105.5859988
  73.9560012  96.1884997 104.8889988  73.6148702  95.4889074 105.2770205
  61.7700012 104.1454997 107.2639988  61.4780012 104.9134997 106.7739988
  61.0960012 103.4854997 107.1019988  61.6388111 104.1615587 107.1748978
  57.8630012 106.5084997 116.0789988  57.3620012 106.4804997 115.2639988
  57.8680012 105.6024997 116.3889988  57.7950944 106.3822396 116.0093226
  57.6130012 109.2884997 112.9629988  58.5590012 109.1444997 112.9439988
  57.5010012 110.0724997 113.4999988  57.7272727 109.3748046 113.0330072
  75.8110012 109.9544997 118.6459988  75.7620012 108.9994997 118.6089988
  74.9840012 110.2224997 119.0469988  75.6924940 109.8598998 118.6951375
  66.7900012 109.5284997 117.5219988  66.8770012 110.3544997 117.9969988
  65.9260012 109.1984997 117.7709988  66.6851964 109.5969878 117.6206549
  67.2040012 113.3004997 107.3279988  67.1290012 113.1794997 106.3809988
  67.2370012 114.2504997 107.4459988  67.1982068 113.4122646 107.2144967
  60.8570012 112.0894997 109.1089988  61.0100012 111.7414997 109.9869988
  60.0070012 111.7334997 108.8539988  60.7629166 111.9936216 109.1948079
  69.9750012 112.3804997 107.0789988  69.0390012 112.4804997 107.2579988
  70.2550012 111.6714997 107.6579988  69.8849553 112.2983406 107.1817087
  72.9630012 101.4474997 119.1259988  72.5560012 101.9284997 118.4049988
  73.0040012 100.5424997 118.8179988  72.9128437 101.3909374 118.9856683
  60.1120012 107.8314997 117.1229988  60.3280012 107.4704997 117.9819988
  59.2570012 107.4574997 116.9129988  60.0259292 107.7314111 117.2123386
  62.7310012  96.3014997 113.1179988  61.8690012  96.2144997 112.7099988
  62.7080012  97.1574997 113.5459988  62.6100409  96.4052883 113.1200589
  67.3940012  96.0234997 116.4929988  67.8140012  95.6084997 117.2459988
  66.4610012  95.8454997 116.6099988  67.3253644  95.9425900 116.6119539
  70.7200012  99.7794997 117.3459988  70.2060012  99.6534997 118.1439988
  70.5650012 100.6914997 117.1019988  70.6286852  99.8856132 117.4222158
  62.8220012 101.2674997 114.2129988  62.1800012 101.2264997 114.9219988
  62.8590012 102.1934997 113.9749988  62.7390664 101.3871430 114.2779219
  62.8190012 101.4884997 109.1249988  61.9260012 101.1474997 109.0659988
  63.2690012 101.1114997 108.3689988  62.7578130 101.3909631 109.0147702
  68.3540012 101.9044997 107.9419988  67.9450012 102.7194997 107.6509988
  69.0750012 101.7644997 107.3279988  68.3954537 101.9972018 107.8191342
  67.4560012 102.0794997 119.4299988  66.8940012 101.3754997 119.7509988
  68.2830012 101.9594997 119.8979988  67.4907095 101.9667883 119.5372330
  69.3590012 101.3504997 110.7559988  69.1640012 101.9554997 110.0409988
  69.5400012 100.5164997 110.3219988  69.3567614 101.3206300 110.5994405
  60.5720012 101.5874997 116.0799988  60.5340012 101.9874997 116.9489988
  60.0810012 100.7704997 116.1709988  60.5004684 101.5318069 116.2111059
  57.1800012  98.7034997 109.9309988  57.8110012  98.6744997 110.6499988
  57.6290012  98.2784997 109.1999988  57.3270918  98.6420836 109.9306441
  58.4540012  99.4494997 105.3549988  58.9280012 100.0404997 104.7699988
  57.7370012  99.9804997 105.7019988  58.4219341  99.6020867 105.3218836
  68.6230012 102.9884997 115.4269988  68.9460012 102.3574997 114.7839988
  68.1830012 102.4534997 116.0879988  68.6077484 102.8298387 115.4283198
  65.4000012  98.9154997 110.2109988  64.4890012  98.9724997 110.4999988
  65.9060012  98.8554997 111.0219988  65.3436899  98.9151941 110.3601184
  60.2290012 100.5444997 109.0379988  59.3390012 100.6444997 108.6979988
  60.5250012  99.7024997 108.6919988  60.1472823 100.4443545 108.9447213
  63.8820012 100.5444997 106.6949988  64.8130012 100.6734997 106.8729988
  63.6670012 101.2144997 106.0449988  63.9804247 100.6526565 106.6315747
  69.8050012  98.1504997 113.4759988  69.1290012  98.2814997 114.1399988
  69.3200012  97.9954997 112.6649988  69.6467146  98.1475157 113.4574469
  62.5560012 101.7394997 104.2609988  62.0130012 101.3594997 103.5699988
  63.3890012 101.9334997 103.8329988  62.5943631 101.7137125 104.1084501
  73.0930012 113.8224997 119.7519988  73.2930012 114.2464997 118.9179988
  73.7480012 114.1654997 120.3589988  73.2090072 113.9269857 119.7198592
  60.6910012 106.2964997 119.3599988  61.4230012 106.5504997 119.9219988
  59.9110012 106.5004997 119.8759988  60.6857073 106.3588160 119.5066151
  66.7200012 101.7034997 112.0979988  67.2850012 101.1564997 111.5509988
  66.5730012 101.1814997 112.8869988  66.7773380 101.5582259 112.1298695
  61.7220012  97.8394997 108.5169988  61.4050012  96.9374997 108.4809988
  62.5040012  97.8414997 107.9639988  61.7842408  97.7162474 108.4373569
  65.3470012 100.0914997 114.5119988  64.5110012 100.5454997 114.6229988
  65.8710012 100.3674997 115.2639988  65.3035416 100.1908660 114.6288119
  65.8910012 106.3044997 106.1969988  65.1460012 105.7974997 105.8749988
  65.7570012 106.3534997 107.1439988  65.7708776 106.2416940 106.2808647
  73.0410012 105.4374997 114.9839988  73.6830012 105.8944997 114.4399988
  72.2110012 105.5504997 114.5209988  73.0165963 105.5152704 114.8470177
  69.7890012  99.1184997 104.3959988  68.8500012  99.2304997 104.2449988
  70.0860012  99.9754997 104.7029988  69.7007583  99.2495981 104.4168337
  67.4100012 106.4884997 117.4339988  67.0650012 106.1074997 118.2409988
  67.2100012 107.4224997 117.5049988  67.3357527 106.5625135 117.5540689
  70.5070012 100.9854997 106.0569988  71.3990012 100.8484997 106.3759988
  70.5640012 101.7764997 105.5199988  70.6366504 101.0736052 106.0280818
  61.0160012 105.5994997 111.9669988  61.7610012 105.5974997 111.3659988
  61.0940012 104.7764997 112.4479988  61.1284995 105.4878887 111.9498282
  68.0170012 107.7634997 105.2229988  67.7210012 108.5894997 105.6039988
  67.3140012 107.1434997 105.4189988  67.8814914 107.7928199 105.3016443
  58.0240012 104.0604997 117.2819988  58.2470012 103.6424997 118.1139988
  57.4220012 103.4474997 116.8589988  57.9731759 103.9204668 117.3387022
  65.0400012 103.5774997 119.4949988  64.7440012 103.4114997 118.5999988
  65.9720012 103.3574997 119.4839988  65.1254166 103.5250640 119.3710536
  69.6610012 108.9504997 117.3849988  68.7600012 109.1334997 117.1169988
  69.6950012 109.2094997 118.3049988  69.5423139 109.0105849 117.4728099
  75.3920012 101.1954997 105.7519988  74.8380012 100.7994997 105.0799988
  75.4920012 102.1054997 105.4739988  75.3297059 101.2643586 105.6224401
  75.3550012 106.9954997 118.5889988  74.5040012 107.2334997 118.2219988
  75.9460012 106.9784997 117.8359988  75.3182487 107.0258258 118.4368893
  73.6870012 109.9814997 106.2169988  73.3140012 109.1554997 106.5259988
  73.9650012 109.7984997 105.3189988  73.6735222 109.8437430 106.1379473
  70.8480012 104.7894997 113.2379988  69.9190012 104.5574997 113.2109988
  71.2990012 104.0124997 112.9079988  70.7819216 104.6527238 113.1896917
  63.3910012 109.1174997 109.3709988  63.9180012 109.8904997 109.1709988
  62.5110012 109.3424997 109.0689988  63.3442031 109.2537545 109.3027912
  59.1460012 103.9794997 103.9579988  59.7620012 104.6064997 104.3379988
  58.2840012 104.2954997 104.2299988  59.1137698 104.1079430 104.0467183
  64.8180012 106.7804997 108.9469988  64.5770012 107.7054997 108.9889988
  64.0770012 106.3214997 109.3439988  64.6849225 106.8450933 109.0063742
  65.3330012 110.9294997 115.2629988  65.6950012 111.7844997 115.0289988
  65.8640012 110.6374997 116.0029988  65.4544473 111.0071060 115.3310855
  63.5010012 111.8024997 108.4929988  62.5510012 111.9074997 108.5439988
  63.8530012 112.6224997 108.8369988  63.4184195 111.9278800 108.5465502
  68.8770012 107.0284997 114.9629988  68.4510012 106.8014997 115.7899988
  69.4570012 106.2904997 114.7809988  68.8971868 106.8975299 115.0515830
  71.5350012 111.5804997 117.4329988  70.9340012 111.0254997 116.9369988
  71.8170012 112.2474997 116.8059988  71.4908804 111.5946625 117.2804849
  59.6580012  98.8134997 116.8399988  58.7650012  99.1524997 116.7719988
  59.5590012  97.9584997 117.2579988  59.5224164  98.7442588 116.8872235
  71.9460012 106.6304997 106.2639988  71.6680012 105.9024997 106.8199988
  72.8730012 106.7494997 106.4689988  72.0333124 106.5468802 106.3678845
  59.3090012 110.6184997 115.2749988  59.5260012 109.6864997 115.2439988
  59.5550012 110.8924997 116.1579988  59.3719549 110.5280636 115.3901763
  64.1080012 108.6394997 104.9399988  64.2540012 108.1194997 105.7299988
  64.1050012 109.5464997 105.2469988  64.1275792 108.6908842 105.0896117
  60.5610012 105.8924997 105.4509988  59.8750012 106.2444997 106.0179988
  61.0830012 106.6554997 105.2039988  60.5376852 106.0438578 105.4952118
  68.3920012  98.5544997 115.7299988  69.0910012  98.6284997 116.3799988
  68.0110012  97.6904997 115.8839988  68.4361767  98.4477624 115.8398322
  69.1770012  98.2064997 106.8269988  69.3970012  98.6784997 106.0239988
  69.7350012  98.6014997 107.4969988  69.2824968  98.3244285 106.8077331
  66.3770012  99.9344997 107.6619988  67.1890012 100.4394997 107.7079988
  66.1320012  99.7894997 108.5759988  66.4550520  99.9840375 107.7918517
  66.9120012 100.9204997 116.8459988  67.0310012 101.4944997 117.6039988
  67.5680012 100.2324997 116.9609988  67.0169025 100.9059858 116.9651321
  67.2600012  97.0154997 108.5999988  66.9140012  97.6334997 109.2439988
  67.9190012  97.5164997 108.1179988  67.3016968  97.1676278 108.6229383
  73.1170012  98.8274997 117.6809988  72.2000012  99.0904997 117.5939988
  73.4520012  98.8244997 116.7849988  73.0368613  98.8630761 117.5478837
  71.7190012 102.5784997 111.7769988  70.9210012 102.1634997 111.4489988
  72.1640012 101.8874997 112.2679988  71.6699885 102.4283543 111.7984889
  72.8050012 111.8344997 113.3999988  72.6500012 112.5124997 112.7419988
  73.7380012 111.9064997 113.6029988  72.9098657 111.9369546 113.3374360
  60.3010012  95.9524997 112.1369988  60.0720012  96.0114997 111.2089988
  59.8580012  95.1604997 112.4429988  60.2098530  95.8535753 112.0514786
  59.2310012 109.8924997 108.2969988  58.3990012 110.3654997 108.3239988
  59.7770012 110.4024997 107.6989988  59.1910352 110.0261332 108.2198463
  58.5190012 112.5054997 119.6269988  59.0600012 112.2884997 120.3869988
  58.0380012 111.6994997 119.4369988  58.5279951 112.3669270 119.7052576
  63.1170012 111.4244997 121.2469988  63.8840012 110.9654997 121.5879988
  63.0950012 111.1984997 120.3179988  63.2191275 111.3310186 121.1680101
  69.6940012 109.8044997 119.9769988  69.3430012 108.9484997 120.2199988
  70.4200012 109.9474997 120.5839988  69.7440769 109.7065636 120.0923619
  58.4260012 106.3154997 120.5809988  58.5700012 105.4134997 120.2949988
  57.6540012 106.6014997 120.0939988  58.3412753 106.2306816 120.4759505
  65.0820012 106.2854997 120.0139988  64.7530012 106.5564997 119.1569988
  65.2340012 105.3444997 119.9269988  65.0574809 106.1953862 119.8848244
  70.8160012 106.2014997 117.3969988  71.5620012 106.7894997 117.2779988
  70.0590012 106.7834997 117.4609988  70.8157820 106.3607143 117.3893590
  59.2590012 103.5154997 120.0009988  59.6670012 102.6584997 119.8799988
  58.9990012 103.5304997 120.9219988  59.2797568 103.4000807 120.1089588
  63.9170012 104.6314997 105.0199988  63.4570012 104.1474997 105.7059988
  64.1720012 103.9634997 104.3839988  63.8884902 104.4748731 105.0279334
  63.2060012 102.5244997 117.3759988  62.5880012 103.1994997 117.6559988
  63.5500012 102.8454997 116.5419988  63.1679132 102.6602411 117.3016262
  68.2260012 104.9964997 120.6529988  69.1790012 105.0794997 120.6259988
  68.0650012 104.2844997 121.2729988  68.3346426 104.9116746 120.7330579
  63.5450012  99.8794997 118.4579988  63.6950012  99.1504997 117.8559988
  63.5480012 100.6564997 117.8989988  63.5659302  99.8847851 118.3000692
  63.9580012  98.2494997 115.9509988  64.4940012  98.7004997 115.2989988
  63.1060012  98.1414997 115.5279988  63.9162178  98.2966390 115.8045756
  65.5400012 103.6884997 116.1899988  66.2900012 103.5324997 115.6169988
  65.2010012 104.5404997 115.9149988  65.5968921 103.7822968 116.0743561
  69.9550012 101.5034997 121.2189988  70.1480012 100.5724997 121.1069988
  70.8130012 101.9284997 121.2079988  70.0972934 101.4336531 121.2022031
  71.2720012 104.2924997 119.2959988  70.9910012 105.0014997 118.7179988
  72.2150012 104.2194997 119.1449988  71.3609291 104.3796711 119.1964967
  62.0240012 101.0774997 120.3699988  61.2570012 100.5454997 120.1589988
  62.7030012 100.7674997 119.7699988  62.0107877 100.9628300 120.2600716
  64.7640012  95.7054997 116.3819988  64.6650012  96.6524997 116.2769988
  64.0210012  95.3334997 115.9059988  64.6501184  95.7845863 116.3033621
  66.0280012 100.0274997 119.9459988  65.7920012  99.8074997 120.8469988
  65.2440012  99.8204997 119.4359988  65.8898504  99.9694586 120.0003431
  68.7430012  99.1544997 119.0209988  67.7960012  99.1864997 119.1539988
  69.0560012  98.5294997 119.6749988  68.6556707  99.0743998 119.1276060
  70.3770012  97.7884997 121.0269988  70.2810012  96.8364997 121.0209988
  70.0560012  98.0574997 121.8869988  70.3204070  97.6944035 121.1425441
  60.2040012  98.9984997 120.0739988  60.4160012  98.2914997 119.4639988
  60.0930012  98.5604997 120.9179988  60.2179721  98.8427084 120.1046843
  64.9850012  94.9994997 119.0529988  65.6970012  94.3594997 119.0389988
  64.8840012  95.2664997 118.1399988  65.0688066  94.9480079 118.9275677
  65.3390012  96.6824997 121.1069988  65.2070012  96.2064997 120.2869988
  64.7400012  97.4264997 121.0519988  65.2399071  96.7179618 120.9872886
  57.1030012 113.5944997 108.8439988  56.4560012 113.1324997 108.3109988
  57.4570012 112.9224997 109.4259988  57.0623849 113.4404723 108.8497959
  57.9730012 111.6754997 110.6479988  57.6380012 110.7954997 110.8199988
  58.1950012 112.0204997 111.5129988  57.9571783 111.6017500 110.7884208
  75.5210012 112.4844997 113.6289988  75.5000012 112.6694997 114.5679988
  76.2120012 113.0534997 113.2879988  75.6114618 112.5866606 113.7113864
  75.0850012 112.0524997 116.5509988  74.5970012 111.3164997 116.1789988
  75.6340012 111.6584997 117.2289988  75.0924820 111.8985889 116.5917813
  73.5350012 107.8414997 121.1889988  72.6690012 107.7364997 121.5829988
  73.9120012 108.6004997 121.6349988  73.4673308 107.9296900 121.3032393
  74.8360012 106.0984997 106.7029988  75.6860012 106.5194997 106.8299988
  74.8420012 105.3584997 107.3099988  74.9531372 106.0560803 106.8024344
  75.2310012 104.1514997 108.5259988  74.5040012 103.6724997 108.9239988
  75.8120012 104.3574997 109.2589988  75.2100473 104.1138103 108.6794528
  74.9900012 106.9364997 113.4739988  75.8230012 106.5584997 113.1939988
  75.1020012 107.8794997 113.3549988  75.1192647 107.0122218 113.4195487
  73.4760012 109.8144997 115.7809988  72.8290012 110.1394997 116.4069988
  72.9590012 109.3744997 115.1069988  73.3174029 109.7995004 115.7755827
  75.4990012 104.0524997 104.9179988  74.9770012 104.4094997 104.1989988
  75.4660012 104.7274997 105.5959988  75.4231634 104.1925413 104.9113145
  73.8480012 101.2924997 103.4679988  73.9440012 101.9594997 102.7879988
  73.7080012 100.4764997 102.9869988  73.8422272 101.2735655 103.3098347
  73.0170012 102.6724997 109.0889988  72.8670012 101.7274997 109.0689988
  72.6640012 102.9534997 109.9329988  72.9487448 102.5811481 109.2003705
  58.0530012 104.7504997 113.0999988  58.2370012 104.6684997 112.1639988
  58.9020012 104.6264997 113.5229988  58.1930151 104.7225073 113.0291451
  73.8740012 104.6424997 118.7279988  74.4570012 103.9084997 118.9199988
  74.4380012 105.4144997 118.7749988  74.0299769 104.6464227 118.7606159
  75.3700012 102.5454997 119.4129988  74.5070012 102.1664997 119.2469988
  75.9750012 101.8064997 119.3379988  75.3336119 102.3938268 119.3801528
  72.7280012 100.2554997 107.5519988  73.0080012  99.3484997 107.6759988
  73.4870012 100.6894997 107.1629988  72.8689277 100.1900942 107.5163682
  73.3400012 100.8364997 112.9879988  74.2730012 101.0484997 112.9529988
  73.1050012 100.9384997 113.9099988  73.4359244 100.8793100 113.1078892
  73.3690012 101.5734997 115.7639988  72.5260012 101.8414997 116.1299988
  73.8110012 102.3954997 115.5529988  73.3134158 101.7213291 115.7855491
  57.6500012 100.0214997 119.2409988  58.5700012  99.8994997 119.4769988
  57.2010012  99.2714997 119.6299988  57.7151580  99.9033727 119.3259006
  75.6520012  95.5534997 121.1169988  76.0020012  94.8994997 120.5119988
  75.7990012  96.3904997 120.6769988  75.7197887  95.5771548 120.9746858
  73.3410012  97.5184997 107.5999988  73.5240012  97.0694997 108.4259988
  72.7420012  96.9334997 107.1369988  73.2850202  97.3779975 107.6503275
  58.8710012  98.3334997 112.1319988  59.3170012  97.5414997 112.4339988
  59.3380012  99.0494997 112.5619988  58.9950831  98.3220685 112.2314006
  57.1750012 101.3324997 113.2009988  57.6670012 101.1114997 112.4099988
  57.5380012 102.1734997 113.4819988  57.2913126 101.4158357 113.1307531
  75.1720012  97.6624997 119.4659988  74.2540012  97.9334997 119.4309988
  75.2950012  97.1274997 118.6819988  75.0629729  97.6272508 119.3551923
  57.4890012  97.5904997 107.2549988  56.5640012  97.7994997 107.1259988
  57.9430012  98.0744997 106.5649988  57.4237292  97.6845343 107.1440720
  72.2600012 112.5744997 109.2009988  72.9120012 112.2274997 108.5929988
  72.7700012 113.0634997 109.8469988  72.4182637 112.5930597 109.2050236
  57.4530012  96.3284997 115.5989988  56.7880012  96.0824997 116.2429988
  57.0100012  96.9504997 115.0219988  57.3021318  96.3789410 115.6090898
  59.6450012 109.5034997 119.7439988  58.8240012 109.6784997 119.2829988
  59.3920012 109.4304997 120.6639988  59.4985585 109.5175544 119.8053561
  62.5990012 110.4784997 116.0019988  62.1740012 111.2874997 115.7199988
  63.5030012 110.5634997 115.6999988  62.6629975 110.6009300 115.9224816
  66.9100012 111.8774997 118.9619988  67.0950012 111.5434997 119.8399988
  67.7560012 112.1864997 118.6399988  67.0497539 111.8736047 119.0385605
  69.2550012 113.1634997 118.2059988  69.9320012 112.5304997 117.9659988
  69.5770012 113.5644997 119.0129988  69.3911637 113.1311154 118.2822793
  74.1720012  95.7524997 117.2849988  73.3600012  96.0774997 116.8979988
  74.4050012  94.9924997 116.7519988  74.0922203  95.6942758 117.1598880
  60.0010012 113.7344997 116.0499988  59.2800012 114.1744997 115.5989988
  59.6350012 113.4834997 116.8979988  59.8529651 113.7607242 116.1029640
  62.4680012 113.3344997 115.0799988  61.6030012 113.4064997 115.4839988
  62.4130012 113.8814997 114.2959988  62.3422085 113.4182685 115.0293362
  67.1780012 113.2224997 114.2549988  66.7220012 113.7514997 113.6009988
  67.3410012 113.8254997 114.9799988  67.1376068 113.3764607 114.2634838
  69.5060012 112.1004997 115.1999988  68.6010012 112.2654997 114.9339988
  69.9350012 112.9534997 115.1349988  69.4401324 112.2384339 115.1547976
  72.1100012 113.6704997 115.4949988  71.9280012 114.5864997 115.2849988
  72.2870012 113.2604997 114.6489988  72.1090210 113.7404822 115.3517885
  59.4150012 112.3574997 112.9599988  59.3970012 111.9324997 113.8169988
  60.2200012 112.0394997 112.5509988  59.5213529 112.2563013 113.0220946
  61.5570012 111.0674997 111.6149988  61.3380012 110.1514997 111.7849988
  62.3810012 111.2074997 112.0809988  61.6384420 110.9610520 111.7012774
  64.0940012 111.5374997 112.4639988  64.3070012 110.6494997 112.1769988
  64.1580012 111.5034997 113.4179988  64.1318231 111.4113102 112.5537397
  67.6020012  97.2014997 111.6079988  66.9280012  96.5724997 111.8639988
  68.1660012  96.7174997 111.0049988  67.5859230  97.0498744 111.5615340
  72.7450012  95.3094997 111.7209988  73.3490012  95.8564997 111.2189988
  71.8750012  95.6284997 111.4799988  72.7101208  95.4275137 111.6196886
  74.4720012  96.4474997 110.0539988  75.0840012  95.9334997 109.5269988
  74.8540012  97.3254997 110.0769988  74.6073371  96.4957866 109.9850041
  59.9290012  95.8354997 109.4299988  59.1520012  95.6014997 108.9229988
  60.4590012  95.0384997 109.4389988  59.8942330  95.6956988 109.3617742
  58.7650012  95.6334997 105.2339988  59.2040012  96.2444997 104.6419988
  58.1320012  96.1714997 105.7079988  58.7394514  95.7899257 105.2170930
  64.5080012  95.7624997 109.2439988  65.3830012  96.1504997 109.2139988
  64.3720012  95.5474997 110.1659988  64.6093695  95.7865184 109.3646440
  70.0650012  95.7924997 110.8929988  70.1410012  95.8874997 109.9429988
  69.7900012  94.8844997 111.0219988  70.0382321  95.6827867 110.7805079
  71.4180012  95.8184997 106.5849988  70.7160012  96.4334997 106.3749988
  70.9740012  94.9804997 106.7159988  71.2616450  95.7895639 106.5739000
  58.6660012 111.5814997 106.1309988  57.9810012 111.5434997 105.4639988
  58.6700012 112.4944997 106.4199988  58.5726998 111.6996733 106.0786771
  65.6520012  97.8424997 106.1329988  65.8300012  97.1964997 106.8159988
  65.5990012  98.6764997 106.5999988  65.6691999  97.8668009 106.2895917
  74.2400012 112.3544997 107.2079988  74.0450012 111.6064997 106.6429988
  74.2010012 113.1124997 106.6249988  74.2080380 112.3546099 107.0518384
  59.8870012  96.3494997 118.9479988  59.5210012  95.5844997 119.3899988
  60.8000012  96.3784997 119.2339988  59.9602736  96.2485640 119.0472502
  61.8600012  95.7004997 120.4839988  62.7580012  95.4264997 120.2989988
  61.4730012  94.9574997 120.9479988  61.9306612  95.5625914 120.5213643
  60.4840012 112.5014997 103.1569988  60.2170012 112.7884997 104.0299988
  61.2560012 111.9554997 103.3089988  60.5517488 112.4670294 103.2971050
  70.2810012  95.0324997 120.6659988  70.3580012  94.6064997 121.5199988
  71.1750012  95.0464997 120.3229988  70.4123428  94.9760879 120.7365310
  73.4570012 111.1054997 119.3579988  72.6750012 110.9194997 118.8379988
  73.3850012 112.0344997 119.5759988  73.3402274 111.2056643 119.3163018
  87.8630012 104.9914997 109.3889988  87.9520012 105.9354997 109.2569988
  87.2250012 104.7164997 108.7309988  87.7889081 105.0834830 109.2819614
  86.7960012 104.2464997 112.8079988  86.7580012 103.6004997 113.5129988
  86.4740012 103.7804997 112.0369988  86.7472333 104.0949408 112.8002978
  79.1650012 103.8614997 114.4009988  79.2060012 103.2354997 115.1239988
  79.8680012 104.4854997 114.5829988  79.2656363 103.8601196 114.5246044
  90.5020012 107.1854997 111.1089988  90.0620012 106.4654997 111.5599988
  90.4890012 107.9064997 111.7389988  90.4400226 107.1843731 111.2558494
  80.0880012 108.3114997 112.9359988  79.7190012 107.5094997 112.5659988
  81.0290012 108.1424997 112.9819988  80.1647289 108.1790153 112.8916316
  76.6980012 101.9714997 108.3289988  76.2510012 102.8174997 108.3099988
  76.1370012 101.3914997 107.8129988  76.5609900 102.0089916 108.2566801
  77.4090012 104.1334997 110.4539988  77.6220012 103.3634997 110.9819988
  78.1470012 104.2224997 109.8509988  77.5379044 104.0401968 110.4447123
  87.6140012 112.2904997 111.3209988  88.2340012 111.6134997 111.0479988
  87.4060012 112.0724997 112.2299988  87.6706726 112.1684800 111.4064812
  85.1860012 106.6794997 113.2139988  85.4900012 105.9934997 112.6189988
  85.9070012 106.7974997 113.8319988  85.3250671 106.6016305 113.2161816
  93.8490012  98.2804997 114.0749988  93.8980012  98.8904997 114.8099988
  94.2740012  98.7414997 113.3519988  93.9131746  98.4263796 114.0779175
  88.3270012 101.0734997 113.5409988  88.4690012 100.1274997 113.5619988
  88.2200012 101.2804997 112.6129988  88.3319919 100.9718246 113.4183408
  81.4810012  99.1744997 110.8139988  81.5250012 100.0344997 110.3949988
  81.0240012  98.6224997 110.1799988  81.4252240  99.2174422 110.6709864
  89.2040012  99.3054997 109.2149988  89.8500012  98.9764997 109.8389988
  89.7140012  99.8234997 108.5919988  89.3614299  99.3304450 109.2162731
  78.1020012 101.5714997 111.5759988  78.7550012 101.0214997 112.0079988
  78.1260012 101.2974997 110.6589988  78.1946683 101.4591466 111.5112123
  83.2580012 103.1214997 110.7909988  83.8740012 102.5954997 111.3009988
  82.6720012 102.4814997 110.3879988  83.2630810 102.9629208 110.8063173
  94.2400012  99.7584997 116.3099988  93.5520012 100.4164997 116.2149988
  94.2560012  99.5614997 117.2469988  94.1479540  99.8219819 116.4235990
  80.2920012  98.0924997 114.8879988  80.0730012  98.6224997 114.1219988
  79.6240012  98.3194997 115.5349988  80.1717600  98.1956906 114.8706379
  87.6610012 107.5924997 108.4319988  87.3650012 107.2704997 107.5809988
  87.3360012 108.4924997 108.4729988  87.5766371 107.6700215 108.3211801
  82.8610012 105.7684997 115.1749988  82.1210012 106.3664997 115.2789988
  83.5750012 106.3224997 114.8599988  82.8562237 105.9252831 115.1466465
  90.9680012  98.5964997 111.1949988  90.7520012  97.8304997 111.7279988
  91.6230012  99.0684997 111.7079988  91.0270632  98.5555889 111.3372861
  79.8850012  99.9844997 112.8399988  80.4990012 100.6174997 113.2129988
  80.3970012  99.5124997 112.1839988  80.0381981 100.0072267 112.8022908
  81.2680012 107.7324997 115.9619988  81.2630012 108.6124997 115.5839988
  80.4150012 107.6494997 116.3869988  81.1519464 107.8416117 115.9677907
  77.3890012 107.4034997 106.7439988  77.1170012 107.6324997 105.8559988
  77.4350012 108.2414997 107.2049988  77.3579482 107.5481318 106.6846273
  91.0140012 109.0254997 113.4569988  90.0730012 109.0834997 113.6189988
  91.2910012 109.9314997 113.3199988  90.9224679 109.1559443 113.4606815
  91.3150012  97.3114997 114.8749988  90.5790012  97.9224997 114.8369988
  91.9980012  97.7264997 114.3479988  91.3066541  97.4511374 114.7985832
  84.3180012  95.3984997 112.3399988  84.2010012  94.4494997 112.2859988
  83.4630012  95.7304997 112.6139988  84.1864212  95.3135571 112.3696497
  89.2660012 110.8064997 110.0819988  89.6920012 110.0994997 109.5969988
  89.5830012 111.6074997 109.6659988  89.3671683 110.8181017 109.9593680
  90.4260012 108.7074997 108.5909988  90.1680012 108.0174997 107.9799988
  90.4970012 108.2644997 109.4369988  90.4002856 108.5532124 108.6216885
  92.1120012 107.2734997 117.0679988  92.2520012 106.6824997 116.3289988
  92.2790012 108.1464997 116.7119988  92.1537411 107.3105428 116.9186894
  86.5850012 104.2354997 106.8409988  85.8730012 104.7704997 106.4889988
  87.2760012 104.2914997 106.1809988  86.5810132 104.3162543 106.7036289
  86.6380012 102.6934997 103.8799988  87.3390012 102.7154997 104.5309988
  86.9410012 102.0654997 103.2229988  86.7748133 102.6117070 103.8803369
  93.9540012 103.6134997 115.1339988  93.3010012 104.3084997 115.2239988
  94.4190012 103.8234997 114.3249988  93.9275274 103.7370643 115.0368462
  89.9900012 104.4454997 107.7929988  89.2580012 104.6734997 108.3659988
  90.4380012 103.7314997 108.2469988  89.9502725 104.3802145 107.9328816
  89.8880012 102.6194997 116.8599988  89.9680012 103.3824997 117.4319988
  89.2860012 102.8984997 116.1699988  89.8175756 102.7617134 116.8450589
  81.6360012 105.0754997 109.6749988  81.3050012 104.7054997 108.8569988
  82.2240012 104.4054997 110.0219988  81.6701873 104.9341156 109.6098102
  83.0020012 108.5034997 112.3559988  82.9080012 107.9254997 111.5999988
  83.7320012 108.1324997 112.8529988  83.0877387 108.3741663 112.3195342
  82.0020012 103.8444997 113.3089988  82.5680012 103.9654997 112.5459988
  82.3210012 104.4814997 113.9469988  82.1225474 103.9472219 113.2909862
  88.3110012 109.3474997 114.0429988  88.0710012 110.0094997 114.6909988
  88.1130012 108.5134997 114.4679988  88.2513808 109.3253134 114.1891524
  82.8820012 108.2434997 118.0259988  82.5710012 109.0254997 118.4809988
  82.2320012 108.0904997 117.3399988  82.7515558 108.3299105 117.9955871
  88.8610012 103.6074997 105.4779988  89.4410012 103.7574997 106.2249988
  89.2750012 104.0784997 104.7539988  88.9962997 103.6916578 105.4824058
  79.8020012 104.4414997 117.2539988  79.8730012 105.0924997 117.9529988
  78.9120012 104.5444997 116.9189988  79.6913005 104.5445427 117.3043495
  86.5880012 110.3444997 108.9129988  87.0620012 110.6394997 109.6899988
  86.0250012 111.0824997 108.6799988  86.5768184 110.4847247 108.9879628
  81.1220012 110.3154997 118.7889988  81.1290012 110.1794997 117.8419988
  80.2060012 110.1974997 119.0409988  80.9991714 110.2809430 118.6934666
  80.6260012 104.1454997 107.2639988  80.3340012 104.9134997 106.7739988
  79.9520012 103.4854997 107.1019988  80.4948111 104.1615587 107.1748978
  76.7190012 106.5084997 116.0789988  76.2180012 106.4804997 115.2639988
  76.7240012 105.6024997 116.3889988  76.6510944 106.3822396 116.0093226
  76.4690012 109.2884997 112.9629988  77.4150012 109.1444997 112.9439988
  76.3570012 110.0724997 113.4999988  76.5832727 109.3748046 113.0330072
  94.6670012 109.9544997 118.6459988  94.6180012 108.9994997 118.6089988
  93.8400012 110.2224997 119.0469988  94.5484940 109.8598998 118.6951375
  85.6460012 109.5284997 117.5219988  85.7330012 110.3544997 117.9969988
  84.7820012 109.1984997 117.7709988  85.5411964 109.5969878 117.6206549
  86.0600012 113.3004997 107.3279988  85.9850012 113.1794997 106.3809988
  86.0930012 114.2504997 107.4459988  86.0542068 113.4122646 107.2144967
  79.7130012 112.0894997 109.1089988  79.8660012 111.7414997 109.9869988
  78.8630012 111.7334997 108.8539988  79.6189166 111.9936217 109.1948079
  88.8310012 112.3804997 107.0789988  87.8950012 112.4804997 107.2579988
  89.1110012 111.6714997 107.6579988  88.7409553 112.2983406 107.1817087
  91.8190012 101.4474997 119.1259988  91.4120012 101.9284997 118.4049988
  91.8600012 100.5424997 118.8179988  91.7688437 101.3909374 118.9856683
  78.9680012 107.8314997 117.1229988  79.1840012 107.4704997 117.9819988
  78.1130012 107.4574997 116.9129988  78.8819292 107.7314111 117.2123386
  81.5870012  96.3014997 113.1179988  80.7250012  96.2144997 112.7099988
  81.5640012  97.1574997 113.5459988  81.4660409  96.4052883 113.1200589
  86.2500012  96.0234997 116.4929988  86.6700012  95.6084997 117.2459988
  85.3170012  95.8454997 116.6099988  86.1813644  95.9425900 116.6119539
  89.5760012  99.7794997 117.3459988  89.0620012  99.6534997 118.1439988
  89.4210012 100.6914997 117.1019988  89.4846852  99.8856132 117.4222158
  90.3390012 104.6404997 103.1079988  90.3810012 104.4174997 102.1779988
  91.1880012 105.0394997 103.2969988  90.4595280 104.6639438 103.0063554
  85.9110012  98.5164997 103.7779988  85.6580012  98.5354997 104.7009988
  85.6550012  97.6444997 103.4759988  85.8417481  98.4012558 103.8636175
  81.6780012 101.2674997 114.2129988  81.0360012 101.2264997 114.9219988
  81.7150012 102.1934997 113.9749988  81.5950664 101.3871430 114.2779219
  81.6750012 101.4884997 109.1249988  80.7820012 101.1474997 109.0659988
  82.1250012 101.1114997 108.3689988  81.6138130 101.3909631 109.0147702
  87.2100012 101.9044997 107.9419988  86.8010012 102.7194997 107.6509988
  87.9310012 101.7644997 107.3279988  87.2514537 101.9972018 107.8191342
  86.3120012 102.0794997 119.4299988  85.7500012 101.3754997 119.7509988
  87.1390012 101.9594997 119.8979988  86.3467095 101.9667883 119.5372330
  88.2150012 101.3504997 110.7559988  88.0200012 101.9554997 110.0409988
  88.3960012 100.5164997 110.3219988  88.2127614 101.3206300 110.5994405
  79.4280012 101.5874997 116.0799988  79.3900012 101.9874997 116.9489988
  78.9370012 100.7704997 116.1709988  79.3564684 101.5318069 116.2111059
  76.0360012  98.7034997 109.9309988  76.6670012  98.6744997 110.6499988
  76.4850012  98.2784997 109.1999988  76.1830918  98.6420836 109.9306441
  87.4790012 102.9884997 115.4269988  87.8020012 102.3574997 114.7839988
  87.0390012 102.4534997 116.0879988  87.4637484 102.8298387 115.4283198
  84.2560012  98.9154997 110.2109988  83.3450012  98.9724997 110.4999988
  84.7620012  98.8554997 111.0219988  84.1996899  98.9151941 110.3601184
  79.0850012 100.5444997 109.0379988  78.1950012 100.6444997 108.6979988
  79.3810012  99.7024997 108.6919988  79.0032823 100.4443545 108.9447213
  82.7380012 100.5444997 106.6949988  83.6690012 100.6734997 106.8729988
  82.5230012 101.2144997 106.0449988  82.8364247 100.6526565 106.6315747
  88.6610012  98.1504997 113.4759988  87.9850012  98.2814997 114.1399988
  88.1760012  97.9954997 112.6649988  88.5027146  98.1475157 113.4574469
  91.9490012 113.8224997 119.7519988  92.1490012 114.2464997 118.9179988
  92.6040012 114.1654997 120.3589988  92.0650072 113.9269857 119.7198592
  79.5470012 106.2964997 119.3599988  80.2790012 106.5504997 119.9219988
  78.7670012 106.5004997 119.8759988  79.5417073 106.3588160 119.5066151
  85.5760012 101.7034997 112.0979988  86.1410012 101.1564997 111.5509988
  85.4290012 101.1814997 112.8869988  85.6333380 101.5582259 112.1298695
  80.5780012  97.8394997 108.5169988  80.2610012  96.9374997 108.4809988
  81.3600012  97.8414997 107.9639988  80.6402408  97.7162474 108.4373569
  84.2030012 100.0914997 114.5119988  83.3670012 100.5454997 114.6229988
  84.7270012 100.3674997 115.2639988  84.1595416 100.1908660 114.6288119
  84.7470012 106.3044997 106.1969988  84.0020012 105.7974997 105.8749988
  84.6130012 106.3534997 107.1439988  84.6268776 106.2416940 106.2808647
  91.8970012 105.4374997 114.9839988  92.5390012 105.8944997 114.4399988
  91.0670012 105.5504997 114.5209988  91.8725963 105.5152704 114.8470177
  86.2660012 106.4884997 117.4339988  85.9210012 106.1074997 118.2409988
  86.0660012 107.4224997 117.5049988  86.1917527 106.5625135 117.5540689
  79.8720012 105.5994997 111.9669988  80.6170012 105.5974997 111.3659988
  79.9500012 104.7764997 112.4479988  79.9844995 105.4878887 111.9498282
  86.8730012 107.7634997 105.2229988  86.5770012 108.5894997 105.6039988
  86.1700012 107.1434997 105.4189988  86.7374914 107.7928199 105.3016443
  76.8800012 104.0604997 117.2819988  77.1030012 103.6424997 118.1139988
  76.2780012 103.4474997 116.8589988  76.8291759 103.9204668 117.3387022
  83.8960012 103.5774997 119.4949988  83.6000012 103.4114997 118.5999988
  84.8280012 103.3574997 119.4839988  83.9814166 103.5250640 119.3710536
  88.5170012 108.9504997 117.3849988  87.6160012 109.1334997 117.1169988
  88.5510012 109.2094997 118.3049988  88.3983139 109.0105849 117.4728099
  94.2480012 101.1954997 105.7519988  93.6940012 100.7994997 105.0799988
  94.3480012 102.1054997 105.4739988  94.1857059 101.2643586 105.6224401
  94.2110012 106.9954997 118.5889988  93.3600012 107.2334997 118.2219988
  94.8020012 106.9784997 117.8359988  94.1742487 107.0258258 118.4368893
  92.5430012 109.9814997 106.2169988  92.1700012 109.1554997 106.5259988
  92.8210012 109.7984997 105.3189988  92.5295222 109.8437430 106.1379473
  89.7040012 104.7894997 113.2379988  88.7750012 104.5574997 113.2109988
  90.1550012 104.0124997 112.9079988  89.6379216 104.6527238 113.1896917
  82.2470012 109.1174997 109.3709988  82.7740012 109.8904997 109.1709988
  81.3670012 109.3424997 109.0689988  82.2002031 109.2537545 109.3027912
  78.0020012 103.9794997 103.9579988  78.6180012 104.6064997 104.3379988
  77.1400012 104.2954997 104.2299988  77.9697698 104.1079430 104.0467183
  83.6740012 106.7804997 108.9469988  83.4330012 107.7054997 108.9889988
  82.9330012 106.3214997 109.3439988  83.5409225 106.8450933 109.0063742
  84.1890012 110.9294997 115.2629988  84.5510012 111.7844997 115.0289988
  84.7200012 110.6374997 116.0029988  84.3104473 111.0071060 115.3310855
  82.3570012 111.8024997 108.4929988  81.4070012 111.9074997 108.5439988
  82.7090012 112.6224997 108.8369988  82.2744195 111.9278800 108.5465502
  87.7330012 107.0284997 114.9629988  87.3070012 106.8014997 115.7899988
  88.3130012 106.2904997 114.7809988  87.7531868 106.8975299 115.0515830
  90.3910012 111.5804997 117.4329988  89.7900012 111.0254997 116.9369988
  90.6730012 112.2474997 116.8059988  90.3468804 111.5946625 117.2804849
  94.4390012 112.4374997 104.2379988  95.1830012 113.0234997 104.0979988
  93.7450012 113.0054997 104.5709988  94.4469899 112.5945798 104.2638778
  78.5140012  98.8134997 116.8399988  77.6210012  99.1524997 116.7719988
  78.4150012  97.9584997 117.2579988  78.3784164  98.7442588 116.8872235
  90.8020012 106.6304997 106.2639988  90.5240012 105.9024997 106.8199988
  91.7290012 106.7494997 106.4689988  90.8893124 106.5468802 106.3678845
  78.1650012 110.6184997 115.2749988  78.3820012 109.6864997 115.2439988
  78.4110012 110.8924997 116.1579988  78.2279549 110.5280636 115.3901763
  82.9640012 108.6394997 104.9399988  83.1100012 108.1194997 105.7299988
  82.9610012 109.5464997 105.2469988  82.9835792 108.6908842 105.0896117
  79.4170012 105.8924997 105.4509988  78.7310012 106.2444997 106.0179988
  79.9390012 106.6554997 105.2039988  79.3936852 106.0438578 105.4952118
  87.2480012  98.5544997 115.7299988  87.9470012  98.6284997 116.3799988
  86.8670012  97.6904997 115.8839988  87.2921767  98.4477624 115.8398322
  88.0330012  98.2064997 106.8269988  88.2530012  98.6784997 106.0239988
  88.5910012  98.6014997 107.4969988  88.1384968  98.3244285 106.8077331
  85.7010012 110.3374997 105.6899988  84.8850012 110.8344997 105.7419988
  86.2310012 110.8124997 105.0499988  85.6609161 110.4697722 105.6105956
  85.2330012  99.9344997 107.6619988  86.0450012 100.4394997 107.7079988
  84.9880012  99.7894997 108.5759988  85.3110520  99.9840375 107.7918517
  85.7680012 100.9204997 116.8459988  85.8870012 101.4944997 117.6039988
  86.4240012 100.2324997 116.9609988  85.8729025 100.9059858 116.9651321
  86.1160012  97.0154997 108.5999988  85.7700012  97.6334997 109.2439988
  86.7750012  97.5164997 108.1179988  86.1576968  97.1676278 108.6229383
  83.0400012 111.3814997 105.6709988  83.2000012 112.1804997 105.1709988
  82.8420012 111.6874997 106.5559988  83.0351637 111.5324020 105.7221144
  91.9730012  98.8274997 117.6809988  91.0560012  99.0904997 117.5939988
  92.3080012  98.8244997 116.7849988  91.8928613  98.8630761 117.5478837
  90.5750012 102.5784997 111.7769988  89.7770012 102.1634997 111.4489988
  91.0200012 101.8874997 112.2679988  90.5259885 102.4283543 111.7984889
  80.0330012 108.5064997 104.3479988  80.6250012 109.2054997 104.6239988
  80.4920012 108.0734997 103.6279988  80.1761142 108.5437049 104.2884830
  78.3490012 101.1704997 103.4639988  78.3040012 102.1094997 103.6419988
  77.4610012 100.9344997 103.1939988  78.2228574 101.2671892 103.4518912
  91.6610012 111.8344997 113.3999988  91.5060012 112.5124997 112.7419988
  92.5940012 111.9064997 113.6029988  91.7658657 111.9369546 113.3374360
  79.1570012  95.9524997 112.1369988  78.9280012  96.0114997 111.2089988
  78.7140012  95.1604997 112.4429988  79.0658530  95.8535753 112.0514786
  78.0870012 109.8924997 108.2969988  77.2550012 110.3654997 108.3239988
  78.6330012 110.4024997 107.6989988  78.0470352 110.0261332 108.2198463
  77.3750012 112.5054997 119.6269988  77.9160012 112.2884997 120.3869988
  76.8940012 111.6994997 119.4369988  77.3839951 112.3669270 119.7052576
  81.9730012 111.4244997 121.2469988  82.7400012 110.9654997 121.5879988
  81.9510012 111.1984997 120.3179988  82.0751275 111.3310186 121.1680101
  88.5500012 109.8044997 119.9769988  88.1990012 108.9484997 120.2199988
  89.2760012 109.9474997 120.5839988  88.6000769 109.7065636 120.0923619
  77.2820012 106.3154997 120.5809988  77.4260012 105.4134997 120.2949988
  76.5100012 106.6014997 120.0939988  77.1972753 106.2306816 120.4759505
  83.9380012 106.2854997 120.0139988  83.6090012 106.5564997 119.1569988
  84.0900012 105.3444997 119.9269988  83.9134809 106.1953862 119.8848244
  89.6720012 106.2014997 117.3969988  90.4180012 106.7894997 117.2779988
  88.9150012 106.7834997 117.4609988  89.6717820 106.3607143 117.3893590
  78.1150012 103.5154997 120.0009988  78.5230012 102.6584997 119.8799988
  77.8550012 103.5304997 120.9219988  78.1357568 103.4000807 120.1089588
  82.0620012 102.5244997 117.3759988  81.4440012 103.1994997 117.6559988
  82.4060012 102.8454997 116.5419988  82.0239132 102.6602411 117.3016262
  87.0820012 104.9964997 120.6529988  88.0350012 105.0794997 120.6259988
  86.9210012 104.2844997 121.2729988  87.1906426 104.9116746 120.7330579
  82.4010012  99.8794997 118.4579988  82.5510012  99.1504997 117.8559988
  82.4040012 100.6564997 117.8989988  82.4219302  99.8847851 118.3000692
  82.8140012  98.2494997 115.9509988  83.3500012  98.7004997 115.2989988
  81.9620012  98.1414997 115.5279988  82.7722178  98.2966390 115.8045756
  84.3960012 103.6884997 116.1899988  85.1460012 103.5324997 115.6169988
  84.0570012 104.5404997 115.9149988  84.4528921 103.7822968 116.0743561
  88.8110012 101.5034997 121.2189988  89.0040012 100.5724997 121.1069988
  89.6690012 101.9284997 121.2079988  88.9532934 101.4336531 121.2022031
  90.1280012 104.2924997 119.2959988  89.8470012 105.0014997 118.7179988
  91.0710012 104.2194997 119.1449988  90.2169291 104.3796711 119.1964967
  80.8800012 101.0774997 120.3699988  80.1130012 100.5454997 120.1589988
  81.5590012 100.7674997 119.7699988  80.8667877 100.9628300 120.2600716
  83.6200012  95.7054997 116.3819988  83.5210012  96.6524997 116.2769988
  82.8770012  95.3334997 115.9059988  83.5061184  95.7845863 116.3033621
  84.8840012 100.0274997 119.9459988  84.6480012  99.8074997 120.8469988
  84.1000012  99.8204997 119.4359988  84.7458504  99.9694586 120.0003431
  87.5990012  99.1544997 119.0209988  86.6520012  99.1864997 119.1539988
  87.9120012  98.5294997 119.6749988  87.5116707  99.0743998 119.1276060
  89.2330012  97.7884997 121.0269988  89.1370012  96.8364997 121.0209988
  88.9120012  98.0574997 121.8869988  89.1764070  97.6944035 121.1425441
  79.0600012  98.9984997 120.0739988  79.2720012  98.2914997 119.4639988
  78.9490012  98.5604997 120.9179988  79.0739721  98.8427084 120.1046843
  83.8410012  94.9994997 119.0529988  84.5530012  94.3594997 119.0389988
  83.7400012  95.2664997 118.1399988  83.9248066  94.9480079 118.9275677
  84.1950012  96.6824997 121.1069988  84.0630012  96.2064997 120.2869988
  83.5960012  97.4264997 121.0519988  84.0959071  96.7179618 120.9872886
  75.9590012 113.5944997 108.8439988  75.3120012 113.1324997 108.3109988
  76.3130012 112.9224997 109.4259988  75.9183849 113.4404723 108.8497959
  76.8290012 111.6754997 110.6479988  76.4940012 110.7954997 110.8199988
  77.0510012 112.0204997 111.5129988  76.8131783 111.6017500 110.7884208
  94.3770012 112.4844997 113.6289988  94.3560012 112.6694997 114.5679988
  95.0680012 113.0534997 113.2879988  94.4674618 112.5866606 113.7113864
  93.9410012 112.0524997 116.5509988  93.4530012 111.3164997 116.1789988
  94.4900012 111.6584997 117.2289988  93.9484820 111.8985889 116.5917813
  92.3910012 107.8414997 121.1889988  91.5250012 107.7364997 121.5829988
  92.7680012 108.6004997 121.6349988  92.3233308 107.9296900 121.3032393
  93.6920012 106.0984997 106.7029988  94.5420012 106.5194997 106.8299988
  93.6980012 105.3584997 107.3099988  93.8091372 106.0560803 106.8024344
  94.0870012 104.1514997 108.5259988  93.3600012 103.6724997 108.9239988
  94.6680012 104.3574997 109.2589988  94.0660473 104.1138103 108.6794528
  93.8460012 106.9364997 113.4739988  94.6790012 106.5584997 113.1939988
  93.9580012 107.8794997 113.3549988  93.9752647 107.0122218 113.4195487
  92.3320012 109.8144997 115.7809988  91.6850012 110.1394997 116.4069988
  91.8150012 109.3744997 115.1069988  92.1734029 109.7995004 115.7755827
  94.3550012 104.0524997 104.9179988  93.8330012 104.4094997 104.1989988
  94.3220012 104.7274997 105.5959988  94.2791634 104.1925413 104.9113145
  91.8730012 102.6724997 109.0889988  91.7230012 101.7274997 109.0689988
  91.5200012 102.9534997 109.9329988  91.8047448 102.5811481 109.2003705
  76.9090012 104.7504997 113.0999988  77.0930012 104.6684997 112.1639988
  77.7580012 104.6264997 113.5229988  77.0490151 104.7225073 113.0291451
  92.7300012 104.6424997 118.7279988  93.3130012 103.9084997 118.9199988
  93.2940012 105.4144997 118.7749988  92.8859769 104.6464227 118.7606159
  94.2260012 102.5454997 119.4129988  93.3630012 102.1664997 119.2469988
  94.8310012 101.8064997 119.3379988  94.1896119 102.3938268 119.3801528
  91.5840012 100.2554997 107.5519988  91.8640012  99.3484997 107.6759988
  92.3430012 100.6894997 107.1629988  91.7249277 100.1900942 107.5163682
  92.1960012 100.8364997 112.9879988  93.1290012 101.0484997 112.9529988
  91.9610012 100.9384997 113.9099988  92.2919244 100.8793100 113.1078892
  92.2250012 101.5734997 115.7639988  91.3820012 101.8414997 116.1299988
  92.6670012 102.3954997 115.5529988  92.1694158 101.7213291 115.7855491
  76.5060012 100.0214997 119.2409988  77.4260012  99.8994997 119.4769988
  76.0570012  99.2714997 119.6299988  76.5711580  99.9033727 119.3259006
  94.5080012  95.5534997 121.1169988  94.8580012  94.8994997 120.5119988
  94.6550012  96.3904997 120.6769988  94.5757887  95.5771548 120.9746858
  92.1970012  97.5184997 107.5999988  92.3800012  97.0694997 108.4259988
  91.5980012  96.9334997 107.1369988  92.1410202  97.3779975 107.6503275
  77.7270012  98.3334997 112.1319988  78.1730012  97.5414997 112.4339988
  78.1940012  99.0494997 112.5619988  77.8510831  98.3220685 112.2314006
  76.0310012 101.3324997 113.2009988  76.5230012 101.1114997 112.4099988
  76.3940012 102.1734997 113.4819988  76.1473126 101.4158357 113.1307531
  94.0280012  97.6624997 119.4659988  93.1100012  97.9334997 119.4309988
  94.1510012  97.1274997 118.6819988  93.9189729  97.6272508 119.3551923
  94.0640012  97.5854997 104.1279988  94.4760012  96.8644997 103.6529988
  94.7460012  98.2554997 104.1869988  94.2125885  97.5772368 104.0708915
  76.3450012  97.5904997 107.2549988  75.4200012  97.7994997 107.1259988
  76.7990012  98.0744997 106.5649988  76.2797292  97.6845343 107.1440720
  91.1160012 112.5744997 109.2009988  91.7680012 112.2274997 108.5929988
  91.6260012 113.0634997 109.8469988  91.2742637 112.5930597 109.2050236
  76.3090012  96.3284997 115.5989988  75.6440012  96.0824997 116.2429988
  75.8660012  96.9504997 115.0219988  76.1581318  96.3789410 115.6090898
  78.5010012 109.5034997 119.7439988  77.6800012 109.6784997 119.2829988
  78.2480012 109.4304997 120.6639988  78.3545585 109.5175544 119.8053561
  81.4550012 110.4784997 116.0019988  81.0300012 111.2874997 115.7199988
  82.3590012 110.5634997 115.6999988  81.5189975 110.6009300 115.9224816
  85.7660012 111.8774997 118.9619988  85.9510012 111.5434997 119.8399988
  86.6120012 112.1864997 118.6399988  85.9057539 111.8736047 119.0385605
  88.1110012 113.1634997 118.2059988  88.7880012 112.5304997 117.9659988
  88.4330012 113.5644997 119.0129988  88.2471637 113.1311154 118.2822793
  93.0280012  95.7524997 117.2849988  92.2160012  96.0774997 116.8979988
  93.2610012  94.9924997 116.7519988  92.9482203  95.6942758 117.1598880
  78.8570012 113.7344997 116.0499988  78.1360012 114.1744997 115.5989988
  78.4910012 113.4834997 116.8979988  78.7089651 113.7607242 116.1029640
  81.3240012 113.3344997 115.0799988  80.4590012 113.4064997 115.4839988
  81.2690012 113.8814997 114.2959988  81.1982085 113.4182685 115.0293362
  86.0340012 113.2224997 114.2549988  85.5780012 113.7514997 113.6009988
  86.1970012 113.8254997 114.9799988  85.9936068 113.3764607 114.2634838
  88.3620012 112.1004997 115.1999988  87.4570012 112.2654997 114.9339988
  88.7910012 112.9534997 115.1349988  88.2961324 112.2384339 115.1547976
  90.9660012 113.6704997 115.4949988  90.7840012 114.5864997 115.2849988
  91.1430012 113.2604997 114.6489988  90.9650210 113.7404822 115.3517885
  78.2710012 112.3574997 112.9599988  78.2530012 111.9324997 113.8169988
  79.0760012 112.0394997 112.5509988  78.3773529 112.2563013 113.0220946
  80.4130012 111.0674997 111.6149988  80.1940012 110.1514997 111.7849988
  81.2370012 111.2074997 112.0809988  80.4944420 110.9610520 111.7012774
  82.9500012 111.5374997 112.4639988  83.1630012 110.6494997 112.1769988
  83.0140012 111.5034997 113.4179988  82.9878231 111.4113102 112.5537397
  86.4580012  97.2014997 111.6079988  85.7840012  96.5724997 111.8639988
  87.0220012  96.7174997 111.0049988  86.4419230  97.0498744 111.5615340
  91.6010012  95.3094997 111.7209988  92.2050012  95.8564997 111.2189988
  90.7310012  95.6284997 111.4799988  91.5661208  95.4275137 111.6196886
  93.3280012  96.4474997 110.0539988  93.9400012  95.9334997 109.5269988
  93.7100012  97.3254997 110.0769988  93.4633371  96.4957866 109.9850041
  78.7850012  95.8354997 109.4299988  78.0080012  95.6014997 108.9229988
  79.3150012  95.0384997 109.4389988  78.7502330  95.6956988 109.3617742
  83.3640012  95.7624997 109.2439988  84.2390012  96.1504997 109.2139988
  83.2280012  95.5474997 110.1659988  83.4653695  95.7865184 109.3646440
  88.9210012  95.7924997 110.8929988  88.9970012  95.8874997 109.9429988
  88.6460012  94.8844997 111.0219988  88.8942321  95.6827867 110.7805079
  90.2740012  95.8184997 106.5849988  89.5720012  96.4334997 106.3749988
  89.8300012  94.9804997 106.7159988  90.1176450  95.7895639 106.5739000
  77.5220012 111.5814997 106.1309988  76.8370012 111.5434997 105.4639988
  77.5260012 112.4944997 106.4199988  77.4286998 111.6996733 106.0786771
  84.5080012  97.8424997 106.1329988  84.6860012  97.1964997 106.8159988
  84.4550012  98.6764997 106.5999988  84.5251999  97.8668009 106.2895917
  86.3870012 112.7914997 104.5289988  87.2530012 113.1574997 104.3509988
  86.1400012 112.3514997 103.7149988  86.4722392 112.7821756 104.3946289
  93.0960012 112.3544997 107.2079988  92.9010012 111.6064997 106.6429988
  93.0570012 113.1124997 106.6249988  93.0640380 112.3546099 107.0518384
  78.7430012  96.3494997 118.9479988  78.3770012  95.5844997 119.3899988
  79.6560012  96.3784997 119.2339988  78.8162736  96.2485640 119.0472502
  80.7160012  95.7004997 120.4839988  81.6140012  95.4264997 120.2989988
  80.3290012  94.9574997 120.9479988  80.7866612  95.5625914 120.5213643
  79.3400012 112.5014997 103.1569988  79.0730012 112.7884997 104.0299988
  80.1120012 111.9554997 103.3089988  79.4077488 112.4670294 103.2971050
  89.1370012  95.0324997 120.6659988  89.2140012  94.6064997 121.5199988
  90.0310012  95.0464997 120.3229988  89.2683428  94.9760879 120.7365310
  92.3130012 111.1054997 119.3579988  91.5310012 110.9194997 118.8379988
  92.2410012 112.0344997 119.5759988  92.1962274 111.2056643 119.3163018
 106.7190012 104.9914997 109.3889988 106.8080012 105.9354997 109.2569988
 106.0810012 104.7164997 108.7309988 106.6449081 105.0834830 109.2819614
 105.6520012 104.2464997 112.8079988 105.6140012 103.6004997 113.5129988
 105.3300012 103.7804997 112.0369988 105.6032333 104.0949408 112.8002978
  98.0210012 103.8614997 114.4009988  98.0620012 103.2354997 115.1239988
  98.7240012 104.4854997 114.5829988  98.1216363 103.8601196 114.5246044
 109.3580012 107.1854997 111.1089988 108.9180012 106.4654997 111.5599988
 109.3450012 107.9064997 111.7389988 109.2960226 107.1843731 111.2558494
  98.9440012 108.3114997 112.9359988  98.5750012 107.5094997 112.5659988
  99.8850012 108.1424997 112.9819988  99.0207289 108.1790153 112.8916316
  95.5540012 101.9714997 108.3289988  95.1070012 102.8174997 108.3099988
  94.9930012 101.3914997 107.8129988  95.4169900 102.0089916 108.2566801
  96.2650012 104.1334997 110.4539988  96.4780012 103.3634997 110.9819988
  97.0030012 104.2224997 109.8509988  96.3939044 104.0401968 110.4447123
 106.4700012 112.2904997 111.3209988 107.0900012 111.6134997 111.0479988
 106.2620012 112.0724997 112.2299988 106.5266726 112.1684800 111.4064812
 104.0420012 106.6794997 113.2139988 104.3460012 105.9934997 112.6189988
 104.7630012 106.7974997 113.8319988 104.1810671 106.6016305 113.2161816
 112.7050012  98.2804997 114.0749988 112.7540012  98.8904997 114.8099988
 113.1300012  98.7414997 113.3519988 112.7691746  98.4263796 114.0779175
 107.1830012 101.0734997 113.5409988 107.3250012 100.1274997 113.5619988
 107.0760012 101.2804997 112.6129988 107.1879919 100.9718246 113.4183408
 100.3370012  99.1744997 110.8139988 100.3810012 100.0344997 110.3949988
  99.8800012  98.6224997 110.1799988 100.2812240  99.2174422 110.6709864
 108.0600012  99.3054997 109.2149988 108.7060012  98.9764997 109.8389988
 108.5700012  99.8234997 108.5919988 108.2174299  99.3304450 109.2162731
  96.9580012 101.5714997 111.5759988  97.6110012 101.0214997 112.0079988
  96.9820012 101.2974997 110.6589988  97.0506683 101.4591466 111.5112123
 102.1140012 103.1214997 110.7909988 102.7300012 102.5954997 111.3009988
 101.5280012 102.4814997 110.3879988 102.1190810 102.9629208 110.8063173
 113.0960012  99.7584997 116.3099988 112.4080012 100.4164997 116.2149988
 113.1120012  99.5614997 117.2469988 113.0039540  99.8219819 116.4235990
  99.1480012  98.0924997 114.8879988  98.9290012  98.6224997 114.1219988
  98.4800012  98.3194997 115.5349988  99.0277600  98.1956906 114.8706379
 106.5170012 107.5924997 108.4319988 106.2210012 107.2704997 107.5809988
 106.1920012 108.4924997 108.4729988 106.4326371 107.6700215 108.3211801
 101.7170012 105.7684997 115.1749988 100.9770012 106.3664997 115.2789988
 102.4310012 106.3224997 114.8599988 101.7122237 105.9252831 115.1466465
 109.8240012  98.5964997 111.1949988 109.6080012  97.8304997 111.7279988
 110.4790012  99.0684997 111.7079988 109.8830632  98.5555889 111.3372861
  98.7410012  99.9844997 112.8399988  99.3550012 100.6174997 113.2129988
  99.2530012  99.5124997 112.1839988  98.8941981 100.0072267 112.8022908
 100.1240012 107.7324997 115.9619988 100.1190012 108.6124997 115.5839988
  99.2710012 107.6494997 116.3869988 100.0079464 107.8416117 115.9677907
  96.2450012 107.4034997 106.7439988  95.9730012 107.6324997 105.8559988
  96.2910012 108.2414997 107.2049988  96.2139482 107.5481318 106.6846273
 109.8700012 109.0254997 113.4569988 108.9290012 109.0834997 113.6189988
 110.1470012 109.9314997 113.3199988 109.7784679 109.1559443 113.4606815
 110.1710012  97.3114997 114.8749988 109.4350012  97.9224997 114.8369988
 110.8540012  97.7264997 114.3479988 110.1626541  97.4511374 114.7985832
 103.1740012  95.3984997 112.3399988 103.0570012  94.4494997 112.2859988
 102.3190012  95.7304997 112.6139988 103.0424212  95.3135571 112.3696497
 108.1220012 110.8064997 110.0819988 108.5480012 110.0994997 109.5969988
 108.4390012 111.6074997 109.6659988 108.2231683 110.8181017 109.9593680
 109.2820012 108.7074997 108.5909988 109.0240012 108.0174997 107.9799988
 109.3530012 108.2644997 109.4369988 109.2562856 108.5532124 108.6216885
 110.9680012 107.2734997 117.0679988 111.1080012 106.6824997 116.3289988
 111.1350012 108.1464997 116.7119988 111.0097411 107.3105428 116.9186894
 105.4410012 104.2354997 106.8409988 104.7290012 104.7704997 106.4889988
 106.1320012 104.2914997 106.1809988 105.4370132 104.3162543 106.7036289
 112.8100012 103.6134997 115.1339988 112.1570012 104.3084997 115.2239988
 113.2750012 103.8234997 114.3249988 112.7835274 103.7370643 115.0368462
 108.8460012 104.4454997 107.7929988 108.1140012 104.6734997 108.3659988
 109.2940012 103.7314997 108.2469988 108.8062725 104.3802145 107.9328816
 108.7440012 102.6194997 116.8599988 108.8240012 103.3824997 117.4319988
 108.1420012 102.8984997 116.1699988 108.6735756 102.7617134 116.8450589
 100.4920012 105.0754997 109.6749988 100.1610012 104.7054997 108.8569988
 101.0800012 104.4054997 110.0219988 100.5261873 104.9341156 109.6098102
 101.8580012 108.5034997 112.3559988 101.7640012 107.9254997 111.5999988
 102.5880012 108.1324997 112.8529988 101.9437387 108.3741663 112.3195342
 100.8580012 103.8444997 113.3089988 101.4240012 103.9654997 112.5459988
 101.1770012 104.4814997 113.9469988 100.9785474 103.9472219 113.2909862
 107.1670012 109.3474997 114.0429988 106.9270012 110.0094997 114.6909988
 106.9690012 108.5134997 114.4679988 107.1073808 109.3253134 114.1891524
 101.7380012 108.2434997 118.0259988 101.4270012 109.0254997 118.4809988
 101.0880012 108.0904997 117.3399988 101.6075558 108.3299105 117.9955871
  98.6580012 104.4414997 117.2539988  98.7290012 105.0924997 117.9529988
  97.7680012 104.5444997 116.9189988  98.5473005 104.5445427 117.3043495
 105.4440012 110.3444997 108.9129988 105.9180012 110.6394997 109.6899988
 104.8810012 111.0824997 108.6799988 105.4328184 110.4847247 108.9879628
  99.9780012 110.3154997 118.7889988  99.9850012 110.1794997 117.8419988
  99.0620012 110.1974997 119.0409988  99.8551714 110.2809430 118.6934666
  99.4820012 104.1454997 107.2639988  99.1900012 104.9134997 106.7739988
  98.8080012 103.4854997 107.1019988  99.3508111 104.1615587 107.1748978
 112.6050012 109.7234997 103.6669988 112.6790012 110.6624997 103.8379988
 113.5110012 109.4184997 103.6109988 112.7375100 109.8106722 103.6828119
  95.5750012 106.5084997 116.0789988  95.0740012 106.4804997 115.2639988
  95.5800012 105.6024997 116.3889988  95.5070944 106.3822396 116.0093226
  95.3250012 109.2884997 112.9629988  96.2710012 109.1444997 112.9439988
  95.2130012 110.0724997 113.4999988  95.4392727 109.3748046 113.0330072
 113.5230012 109.9544997 118.6459988 113.4740012 108.9994997 118.6089988
 112.6960012 110.2224997 119.0469988 113.4044940 109.8598998 118.6951375
 104.5020012 109.5284997 117.5219988 104.5890012 110.3544997 117.9969988
 103.6380012 109.1984997 117.7709988 104.3971964 109.5969878 117.6206549
 104.9160012 113.3004997 107.3279988 104.8410012 113.1794997 106.3809988
 104.9490012 114.2504997 107.4459988 104.9102068 113.4122646 107.2144967
  98.5690012 112.0894997 109.1089988  98.7220012 111.7414997 109.9869988
  97.7190012 111.7334997 108.8539988  98.4749166 111.9936217 109.1948079
 107.6870012 112.3804997 107.0789988 106.7510012 112.4804997 107.2579988
 107.9670012 111.6714997 107.6579988 107.5969553 112.2983406 107.1817087
 110.6750012 101.4474997 119.1259988 110.2680012 101.9284997 118.4049988
 110.7160012 100.5424997 118.8179988 110.6248437 101.3909374 118.9856683
  97.8240012 107.8314997 117.1229988  98.0400012 107.4704997 117.9819988
  96.9690012 107.4574997 116.9129988  97.7379292 107.7314111 117.2123386
 100.4430012  96.3014997 113.1179988  99.5810012  96.2144997 112.7099988
 100.4200012  97.1574997 113.5459988 100.3220409  96.4052883 113.1200589
 105.1060012  96.0234997 116.4929988 105.5260012  95.6084997 117.2459988
 104.1730012  95.8454997 116.6099988 105.0373644  95.9425900 116.6119539
 108.4320012  99.7794997 117.3459988 107.9180012  99.6534997 118.1439988
 108.2770012 100.6914997 117.1019988 108.3406852  99.8856132 117.4222158
 100.5340012 101.2674997 114.2129988  99.8920012 101.2264997 114.9219988
 100.5710012 102.1934997 113.9749988 100.4510664 101.3871430 114.2779219
 100.5310012 101.4884997 109.1249988  99.6380012 101.1474997 109.0659988
 100.9810012 101.1114997 108.3689988 100.4698130 101.3909631 109.0147702
 106.0660012 101.9044997 107.9419988 105.6570012 102.7194997 107.6509988
 106.7870012 101.7644997 107.3279988 106.1074537 101.9972018 107.8191342
 105.1680012 102.0794997 119.4299988 104.6060012 101.3754997 119.7509988
 105.9950012 101.9594997 119.8979988 105.2027095 101.9667883 119.5372330
 107.0710012 101.3504997 110.7559988 106.8760012 101.9554997 110.0409988
 107.2520012 100.5164997 110.3219988 107.0687614 101.3206300 110.5994405
  98.2840012 101.5874997 116.0799988  98.2460012 101.9874997 116.9489988
  97.7930012 100.7704997 116.1709988  98.2124684 101.5318069 116.2111059
  94.8920012  98.7034997 109.9309988  95.5230012  98.6744997 110.6499988
  95.3410012  98.2784997 109.1999988  95.0390918  98.6420836 109.9306441
  96.1660012  99.4494997 105.3549988  96.6400012 100.0404997 104.7699988
  95.4490012  99.9804997 105.7019988  96.1339341  99.6020867 105.3218836
 106.3350012 102.9884997 115.4269988 106.6580012 102.3574997 114.7839988
 105.8950012 102.4534997 116.0879988 106.3197484 102.8298387 115.4283198
 103.1120012  98.9154997 110.2109988 102.2010012  98.9724997 110.4999988
 103.6180012  98.8554997 111.0219988 103.0556899  98.9151941 110.3601184
  97.9410012 100.5444997 109.0379988  97.0510012 100.6444997 108.6979988
  98.2370012  99.7024997 108.6919988  97.8592823 100.4443545 108.9447213
 101.5940012 100.5444997 106.6949988 102.5250012 100.6734997 106.8729988
 101.3790012 101.2144997 106.0449988 101.6924247 100.6526565 106.6315747
 107.5170012  98.1504997 113.4759988 106.8410012  98.2814997 114.1399988
 107.0320012  97.9954997 112.6649988 107.3587146  98.1475157 113.4574469
 110.8050012 113.8224997 119.7519988 111.0050012 114.2464997 118.9179988
 111.4600012 114.1654997 120.3589988 110.9210072 113.9269857 119.7198592
  98.4030012 106.2964997 119.3599988  99.1350012 106.5504997 119.9219988
  97.6230012 106.5004997 119.8759988  98.3977073 106.3588160 119.5066151
 104.4320012 101.7034997 112.0979988 104.9970012 101.1564997 111.5509988
 104.2850012 101.1814997 112.8869988 104.4893380 101.5582259 112.1298695
  99.4340012  97.8394997 108.5169988  99.1170012  96.9374997 108.4809988
 100.2160012  97.8414997 107.9639988  99.4962408  97.7162474 108.4373569
 103.0590012 100.0914997 114.5119988 102.2230012 100.5454997 114.6229988
 103.5830012 100.3674997 115.2639988 103.0155416 100.1908660 114.6288119
 103.6030012 106.3044997 106.1969988 102.8580012 105.7974997 105.8749988
 103.4690012 106.3534997 107.1439988 103.4828776 106.2416940 106.2808647
 110.7530012 105.4374997 114.9839988 111.3950012 105.8944997 114.4399988
 109.9230012 105.5504997 114.5209988 110.7285963 105.5152704 114.8470177
 107.5010012  99.1184997 104.3959988 106.5620012  99.2304997 104.2449988
 107.7980012  99.9754997 104.7029988 107.4127583  99.2495981 104.4168337
 105.1220012 106.4884997 117.4339988 104.7770012 106.1074997 118.2409988
 104.9220012 107.4224997 117.5049988 105.0477527 106.5625135 117.5540689
 108.2190012 100.9854997 106.0569988 109.1110012 100.8484997 106.3759988
 108.2760012 101.7764997 105.5199988 108.3486504 101.0736052 106.0280818
  98.7280012 105.5994997 111.9669988  99.4730012 105.5974997 111.3659988
  98.8060012 104.7764997 112.4479988  98.8404995 105.4878887 111.9498282
 105.7290012 107.7634997 105.2229988 105.4330012 108.5894997 105.6039988
 105.0260012 107.1434997 105.4189988 105.5934914 107.7928199 105.3016443
  95.7360012 104.0604997 117.2819988  95.9590012 103.6424997 118.1139988
  95.1340012 103.4474997 116.8589988  95.6851759 103.9204668 117.3387022
 102.7520012 103.5774997 119.4949988 102.4560012 103.4114997 118.5999988
 103.6840012 103.3574997 119.4839988 102.8374166 103.5250640 119.3710536
 107.3730012 108.9504997 117.3849988 106.4720012 109.1334997 117.1169988
 107.4070012 109.2094997 118.3049988 107.2543139 109.0105849 117.4728099
 113.1040012 101.1954997 105.7519988 112.5500012 100.7994997 105.0799988
 113.2040012 102.1054997 105.4739988 113.0417059 101.2643586 105.6224401
 113.0670012 106.9954997 118.5889988 112.2160012 107.2334997 118.2219988
 113.6580012 106.9784997 117.8359988 113.0302487 107.0258258 118.4368893
 111.3990012 109.9814997 106.2169988 111.0260012 109.1554997 106.5259988
 111.6770012 109.7984997 105.3189988 111.3855222 109.8437430 106.1379473
 108.5600012 104.7894997 113.2379988 107.6310012 104.5574997 113.2109988
 109.0110012 104.0124997 112.9079988 108.4939216 104.6527238 113.1896917
 101.1030012 109.1174997 109.3709988 101.6300012 109.8904997 109.1709988
 100.2230012 109.3424997 109.0689988 101.0562031 109.2537545 109.3027912
  96.8580012 103.9794997 103.9579988  97.4740012 104.6064997 104.3379988
  95.9960012 104.2954997 104.2299988  96.8257698 104.1079430 104.0467183
 102.5300012 106.7804997 108.9469988 102.2890012 107.7054997 108.9889988
 101.7890012 106.3214997 109.3439988 102.3969225 106.8450933 109.0063742
 103.0450012 110.9294997 115.2629988 103.4070012 111.7844997 115.0289988
 103.5760012 110.6374997 116.0029988 103.1664473 111.0071060 115.3310855
 101.2130012 111.8024997 108.4929988 100.2630012 111.9074997 108.5439988
 101.5650012 112.6224997 108.8369988 101.1304195 111.9278800 108.5465502
 106.5890012 107.0284997 114.9629988 106.1630012 106.8014997 115.7899988
 107.1690012 106.2904997 114.7809988 106.6091868 106.8975299 115.0515830
 108.7920012 107.9574997 104.0369988 109.1450012 107.5774997 104.8409988
 107.8430012 107.8644997 104.1239988 108.7120918 107.8928956 104.1588532
 109.2470012 111.5804997 117.4329988 108.6460012 111.0254997 116.9369988
 109.5290012 112.2474997 116.8059988 109.2028804 111.5946625 117.2804849
 113.2950012 112.4374997 104.2379988 114.0390012 113.0234997 104.0979988
 112.6010012 113.0054997 104.5709988 113.3029899 112.5945798 104.2638778
  97.3700012  98.8134997 116.8399988  96.4770012  99.1524997 116.7719988
  97.2710012  97.9584997 117.2579988  97.2344164  98.7442588 116.8872235
 109.6580012 106.6304997 106.2639988 109.3800012 105.9024997 106.8199988
 110.5850012 106.7494997 106.4689988 109.7453124 106.5468802 106.3678845
  97.0210012 110.6184997 115.2749988  97.2380012 109.6864997 115.2439988
  97.2670012 110.8924997 116.1579988  97.0839549 110.5280636 115.3901763
 102.8830012 109.0694997 102.4839988 103.1220012 108.3214997 101.9369988
 102.6140012 108.6814997 103.3169988 102.8793675 108.9146638 102.5216865
 101.8200012 108.6394997 104.9399988 101.9660012 108.1194997 105.7299988
 101.8170012 109.5464997 105.2469988 101.8395792 108.6908842 105.0896117
  98.2730012 105.8924997 105.4509988  97.5870012 106.2444997 106.0179988
  98.7950012 106.6554997 105.2039988  98.2496852 106.0438578 105.4952118
 106.1040012  98.5544997 115.7299988 106.8030012  98.6284997 116.3799988
 105.7230012  97.6904997 115.8839988 106.1481767  98.4477624 115.8398322
 106.8890012  98.2064997 106.8269988 107.1090012  98.6784997 106.0239988
 107.4470012  98.6014997 107.4969988 106.9944968  98.3244285 106.8077331
 104.5570012 110.3374997 105.6899988 103.7410012 110.8344997 105.7419988
 105.0870012 110.8124997 105.0499988 104.5169161 110.4697722 105.6105956
 104.0890012  99.9344997 107.6619988 104.9010012 100.4394997 107.7079988
 103.8440012  99.7894997 108.5759988 104.1670520  99.9840375 107.7918517
 104.6240012 100.9204997 116.8459988 104.7430012 101.4944997 117.6039988
 105.2800012 100.2324997 116.9609988 104.7289025 100.9059858 116.9651321
 104.9720012  97.0154997 108.5999988 104.6260012  97.6334997 109.2439988
 105.6310012  97.5164997 108.1179988 105.0136968  97.1676278 108.6229383
 101.8960012 111.3814997 105.6709988 102.0560012 112.1804997 105.1709988
 101.6980012 111.6874997 106.5559988 101.8911637 111.5324020 105.7221144
 110.8290012  98.8274997 117.6809988 109.9120012  99.0904997 117.5939988
 111.1640012  98.8244997 116.7849988 110.7488613  98.8630761 117.5478837
 109.4310012 102.5784997 111.7769988 108.6330012 102.1634997 111.4489988
 109.8760012 101.8874997 112.2679988 109.3819885 102.4283543 111.7984889
  97.2050012 101.1704997 103.4639988  97.1600012 102.1094997 103.6419988
  96.3170012 100.9344997 103.1939988  97.0788574 101.2671892 103.4518912
 110.5170012 111.8344997 113.3999988 110.3620012 112.5124997 112.7419988
 111.4500012 111.9064997 113.6029988 110.6218657 111.9369546 113.3374360
  98.0130012  95.9524997 112.1369988  97.7840012  96.0114997 111.2089988
  97.5700012  95.1604997 112.4429988  97.9218530  95.8535753 112.0514786
  96.9430012 109.8924997 108.2969988  96.1110012 110.3654997 108.3239988
  97.4890012 110.4024997 107.6989988  96.9030352 110.0261332 108.2198463
  96.2310012 112.5054997 119.6269988  96.7720012 112.2884997 120.3869988
  95.7500012 111.6994997 119.4369988  96.2399951 112.3669270 119.7052576
 100.8290012 111.4244997 121.2469988 101.5960012 110.9654997 121.5879988
 100.8070012 111.1984997 120.3179988 100.9311275 111.3310186 121.1680101
 107.4060012 109.8044997 119.9769988 107.0550012 108.9484997 120.2199988
 108.1320012 109.9474997 120.5839988 107.4560769 109.7065636 120.0923619
  96.1380012 106.3154997 120.5809988  96.2820012 105.4134997 120.2949988
  95.3660012 106.6014997 120.0939988  96.0532753 106.2306816 120.4759505
 102.7940012 106.2854997 120.0139988 102.4650012 106.5564997 119.1569988
 102.9460012 105.3444997 119.9269988 102.7694809 106.1953862 119.8848244
 108.5280012 106.2014997 117.3969988 109.2740012 106.7894997 117.2779988
 107.7710012 106.7834997 117.4609988 108.5277820 106.3607143 117.3893590
  96.9710012 103.5154997 120.0009988  97.3790012 102.6584997 119.8799988
  96.7110012 103.5304997 120.9219988  96.9917568 103.4000807 120.1089588
 101.6290012 104.6314997 105.0199988 101.1690012 104.1474997 105.7059988
 101.8840012 103.9634997 104.3839988 101.6004902 104.4748731 105.0279334
 100.9180012 102.5244997 117.3759988 100.3000012 103.1994997 117.6559988
 101.2620012 102.8454997 116.5419988 100.8799132 102.6602411 117.3016262
 105.9380012 104.9964997 120.6529988 106.8910012 105.0794997 120.6259988
 105.7770012 104.2844997 121.2729988 106.0466426 104.9116746 120.7330579
 112.0900012 105.2294997 102.7279988 111.8160012 104.8044997 101.9149988
 112.1290012 106.1604997 102.5109988 112.0577699 105.2972484 102.5873610
 101.2570012  99.8794997 118.4579988 101.4070012  99.1504997 117.8559988
 101.2600012 100.6564997 117.8989988 101.2779302  99.8847851 118.3000692
 101.6700012  98.2494997 115.9509988 102.2060012  98.7004997 115.2989988
 100.8180012  98.1414997 115.5279988 101.6282178  98.2966390 115.8045756
 103.2520012 103.6884997 116.1899988 104.0020012 103.5324997 115.6169988
 102.9130012 104.5404997 115.9149988 103.3088921 103.7822968 116.0743561
 107.6670012 101.5034997 121.2189988 107.8600012 100.5724997 121.1069988
 108.5250012 101.9284997 121.2079988 107.8092934 101.4336531 121.2022031
 108.9840012 104.2924997 119.2959988 108.7030012 105.0014997 118.7179988
 109.9270012 104.2194997 119.1449988 109.0729291 104.3796711 119.1964967
  99.7360012 101.0774997 120.3699988  98.9690012 100.5454997 120.1589988
 100.4150012 100.7674997 119.7699988  99.7227877 100.9628300 120.2600716
 102.4760012  95.7054997 116.3819988 102.3770012  96.6524997 116.2769988
 101.7330012  95.3334997 115.9059988 102.3621184  95.7845863 116.3033621
 103.7400012 100.0274997 119.9459988 103.5040012  99.8074997 120.8469988
 102.9560012  99.8204997 119.4359988 103.6018504  99.9694586 120.0003431
 106.4550012  99.1544997 119.0209988 105.5080012  99.1864997 119.1539988
 106.7680012  98.5294997 119.6749988 106.3676707  99.0743998 119.1276060
 108.0890012  97.7884997 121.0269988 107.9930012  96.8364997 121.0209988
 107.7680012  98.0574997 121.8869988 108.0324070  97.6944035 121.1425441
  97.9160012  98.9984997 120.0739988  98.1280012  98.2914997 119.4639988
  97.8050012  98.5604997 120.9179988  97.9299721  98.8427084 120.1046843
 102.6970012  94.9994997 119.0529988 103.4090012  94.3594997 119.0389988
 102.5960012  95.2664997 118.1399988 102.7808066  94.9480079 118.9275677
 103.0510012  96.6824997 121.1069988 102.9190012  96.2064997 120.2869988
 102.4520012  97.4264997 121.0519988 102.9519071  96.7179618 120.9872886
  94.8150012 113.5944997 108.8439988  94.1680012 113.1324997 108.3109988
  95.1690012 112.9224997 109.4259988  94.7743849 113.4404723 108.8497959
  95.6850012 111.6754997 110.6479988  95.3500012 110.7954997 110.8199988
  95.9070012 112.0204997 111.5129988  95.6691783 111.6017500 110.7884208
 113.2330012 112.4844997 113.6289988 113.2120012 112.6694997 114.5679988
 113.9240012 113.0534997 113.2879988 113.3234618 112.5866606 113.7113864
 112.7970012 112.0524997 116.5509988 112.3090012 111.3164997 116.1789988
 113.3460012 111.6584997 117.2289988 112.8044820 111.8985889 116.5917813
 111.2470012 107.8414997 121.1889988 110.3810012 107.7364997 121.5829988
 111.6240012 108.6004997 121.6349988 111.1793308 107.9296900 121.3032393
 112.5480012 106.0984997 106.7029988 113.3980012 106.5194997 106.8299988
 112.5540012 105.3584997 107.3099988 112.6651372 106.0560803 106.8024344
 112.9430012 104.1514997 108.5259988 112.2160012 103.6724997 108.9239988
 113.5240012 104.3574997 109.2589988 112.9220473 104.1138103 108.6794528
 112.7020012 106.9364997 113.4739988 113.5350012 106.5584997 113.1939988
 112.8140012 107.8794997 113.3549988 112.8312647 107.0122218 113.4195487
 111.1880012 109.8144997 115.7809988 110.5410012 110.1394997 116.4069988
 110.6710012 109.3744997 115.1069988 111.0294029 109.7995004 115.7755827
 113.2110012 104.0524997 104.9179988 112.6890012 104.4094997 104.1989988
 113.1780012 104.7274997 105.5959988 113.1351634 104.1925413 104.9113145
 111.5600012 101.2924997 103.4679988 111.6560012 101.9594997 102.7879988
 111.4200012 100.4764997 102.9869988 111.5542272 101.2735655 103.3098347
 110.7290012 102.6724997 109.0889988 110.5790012 101.7274997 109.0689988
 110.3760012 102.9534997 109.9329988 110.6607448 102.5811481 109.2003705
  95.7650012 104.7504997 113.0999988  95.9490012 104.6684997 112.1639988
  96.6140012 104.6264997 113.5229988  95.9050151 104.7225073 113.0291451
 111.5860012 104.6424997 118.7279988 112.1690012 103.9084997 118.9199988
 112.1500012 105.4144997 118.7749988 111.7419769 104.6464227 118.7606159
 113.0820012 102.5454997 119.4129988 112.2190012 102.1664997 119.2469988
 113.6870012 101.8064997 119.3379988 113.0456119 102.3938268 119.3801528
 110.8070012  98.7004997 102.5859988 111.4180012  98.3294997 103.2229988
 109.9710012  98.2794997 102.7819988 110.7775032  98.5927554 102.6997035
 110.4400012 100.2554997 107.5519988 110.7200012  99.3484997 107.6759988
 111.1990012 100.6894997 107.1629988 110.5809277 100.1900942 107.5163682
 111.0520012 100.8364997 112.9879988 111.9850012 101.0484997 112.9529988
 110.8170012 100.9384997 113.9099988 111.1479244 100.8793100 113.1078892
 111.0810012 101.5734997 115.7639988 110.2380012 101.8414997 116.1299988
 111.5230012 102.3954997 115.5529988 111.0254158 101.7213291 115.7855491
  95.3620012 100.0214997 119.2409988  96.2820012  99.8994997 119.4769988
  94.9130012  99.2714997 119.6299988  95.4271580  99.9033727 119.3259006
 113.3640012  95.5534997 121.1169988 113.7140012  94.8994997 120.5119988
 113.5110012  96.3904997 120.6769988 113.4317887  95.5771548 120.9746858
 111.0530012  97.5184997 107.5999988 111.2360012  97.0694997 108.4259988
 110.4540012  96.9334997 107.1369988 110.9970202  97.3779975 107.6503275
  96.5830012  98.3334997 112.1319988  97.0290012  97.5414997 112.4339988
  97.0500012  99.0494997 112.5619988  96.7070831  98.3220685 112.2314006
  94.8870012 101.3324997 113.2009988  95.3790012 101.1114997 112.4099988
  95.2500012 102.1734997 113.4819988  95.0033126 101.4158357 113.1307531
 112.8840012  97.6624997 119.4659988 111.9660012  97.9334997 119.4309988
 113.0070012  97.1274997 118.6819988 112.7749729  97.6272508 119.3551923
  95.2010012  97.5904997 107.2549988  94.2760012  97.7994997 107.1259988
  95.6550012  98.0744997 106.5649988  95.1357292  97.6845343 107.1440720
 109.9720012 112.5744997 109.2009988 110.6240012 112.2274997 108.5929988
 110.4820012 113.0634997 109.8469988 110.1302637 112.5930597 109.2050236
  95.1650012  96.3284997 115.5989988  94.5000012  96.0824997 116.2429988
  94.7220012  96.9504997 115.0219988  95.0141318  96.3789410 115.6090898
  97.3570012 109.5034997 119.7439988  96.5360012 109.6784997 119.2829988
  97.1040012 109.4304997 120.6639988  97.2105585 109.5175544 119.8053561
 100.3110012 110.4784997 116.0019988  99.8860012 111.2874997 115.7199988
 101.2150012 110.5634997 115.6999988 100.3749975 110.6009300 115.9224816
 104.6220012 111.8774997 118.9619988 104.8070012 111.5434997 119.8399988
 105.4680012 112.1864997 118.6399988 104.7617539 111.8736047 119.0385605
 106.9670012 113.1634997 118.2059988 107.6440012 112.5304997 117.9659988
 107.2890012 113.5644997 119.0129988 107.1031637 113.1311154 118.2822793
 111.8840012  95.7524997 117.2849988 111.0720012  96.0774997 116.8979988
 112.1170012  94.9924997 116.7519988 111.8042203  95.6942758 117.1598880
  97.7130012 113.7344997 116.0499988  96.9920012 114.1744997 115.5989988
  97.3470012 113.4834997 116.8979988  97.5649651 113.7607242 116.1029640
 100.1800012 113.3344997 115.0799988  99.3150012 113.4064997 115.4839988
 100.1250012 113.8814997 114.2959988 100.0542085 113.4182685 115.0293362
 104.8900012 113.2224997 114.2549988 104.4340012 113.7514997 113.6009988
 105.0530012 113.8254997 114.9799988 104.8496068 113.3764607 114.2634838
 107.2180012 112.1004997 115.1999988 106.3130012 112.2654997 114.9339988
 107.6470012 112.9534997 115.1349988 107.1521324 112.2384339 115.1547976
 109.8220012 113.6704997 115.4949988 109.6400012 114.5864997 115.2849988
 109.9990012 113.2604997 114.6489988 109.8210210 113.7404822 115.3517885
  97.1270012 112.3574997 112.9599988  97.1090012 111.9324997 113.8169988
  97.9320012 112.0394997 112.5509988  97.2333529 112.2563013 113.0220946
  99.2690012 111.0674997 111.6149988  99.0500012 110.1514997 111.7849988
 100.0930012 111.2074997 112.0809988  99.3504420 110.9610520 111.7012774
 101.8060012 111.5374997 112.4639988 102.0190012 110.6494997 112.1769988
 101.8700012 111.5034997 113.4179988 101.8438231 111.4113102 112.5537397
 105.3140012  97.2014997 111.6079988 104.6400012  96.5724997 111.8639988
 105.8780012  96.7174997 111.0049988 105.2979230  97.0498744 111.5615340
 110.4570012  95.3094997 111.7209988 111.0610012  95.8564997 111.2189988
 109.5870012  95.6284997 111.4799988 110.4221208  95.4275137 111.6196886
 112.1840012  96.4474997 110.0539988 112.7960012  95.9334997 109.5269988
 112.5660012  97.3254997 110.0769988 112.3193371  96.4957866 109.9850041
  97.6410012  95.8354997 109.4299988  96.8640012  95.6014997 108.9229988
  98.1710012  95.0384997 109.4389988  97.6062330  95.6956988 109.3617742
  96.4770012  95.6334997 105.2339988  96.9160012  96.2444997 104.6419988
  95.8440012  96.1714997 105.7079988  96.4514514  95.7899257 105.2170930
 102.2200012  95.7624997 109.2439988 103.0950012  96.1504997 109.2139988
 102.0840012  95.5474997 110.1659988 102.3213695  95.7865184 109.3646440
 107.7770012  95.7924997 110.8929988 107.8530012  95.8874997 109.9429988
 107.5020012  94.8844997 111.0219988 107.7502321  95.6827867 110.7805079
 109.1300012  95.8184997 106.5849988 108.4280012  96.4334997 106.3749988
 108.6860012  94.9804997 106.7159988 108.9736450  95.7895639 106.5739000
  96.3780012 111.5814997 106.1309988  95.6930012 111.5434997 105.4639988
  96.3820012 112.4944997 106.4199988  96.2846998 111.6996733 106.0786771
  98.3380012  97.5494997 103.6759988  98.8300012  96.9194997 103.1489988
  98.9620012  97.8454997 104.3389988  98.4895688  97.5033804 103.6935482
 111.9520012 112.3544997 107.2079988 111.7570012 111.6064997 106.6429988
 111.9130012 113.1124997 106.6249988 111.9200380 112.3546099 107.0518384
  97.5990012  96.3494997 118.9479988  97.2330012  95.5844997 119.3899988
  98.5120012  96.3784997 119.2339988  97.6722736  96.2485640 119.0472502
  99.5720012  95.7004997 120.4839988 100.4700012  95.4264997 120.2989988
  99.1850012  94.9574997 120.9479988  99.6426612  95.5625914 120.5213643
 107.9930012  95.0324997 120.6659988 108.0700012  94.6064997 121.5199988
 108.8870012  95.0464997 120.3229988 108.1243428  94.9760879 120.7365310
 111.1690012 111.1054997 119.3579988 110.3870012 110.9194997 118.8379988
 111.0970012 112.0344997 119.5759988 111.0522274 111.2056643 119.3163018
 125.5750012 104.9914997 109.3889988 125.6640012 105.9354997 109.2569988
 124.9370012 104.7164997 108.7309988 125.5009081 105.0834830 109.2819614
 124.5080012 104.2464997 112.8079988 124.4700012 103.6004997 113.5129988
 124.1860012 103.7804997 112.0369988 124.4592333 104.0949408 112.8002978
 116.8770012 103.8614997 114.4009988 116.9180012 103.2354997 115.1239988
 117.5800012 104.4854997 114.5829988 116.9776363 103.8601196 114.5246044
 128.2140012 107.1854997 111.1089988 127.7740012 106.4654997 111.5599988
 128.2010012 107.9064997 111.7389988 128.1520226 107.1843731 111.2558494
 117.8000012 108.3114997 112.9359988 117.4310012 107.5094997 112.5659988
 118.7410012 108.1424997 112.9819988 117.8767289 108.1790153 112.8916316
 114.4100012 101.9714997 108.3289988 113.9630012 102.8174997 108.3099988
 113.8490012 101.3914997 107.8129988 114.2729900 102.0089916 108.2566801
 115.1210012 104.1334997 110.4539988 115.3340012 103.3634997 110.9819988
 115.8590012 104.2224997 109.8509988 115.2499044 104.0401968 110.4447123
 125.3260012 112.2904997 111.3209988 125.9460012 111.6134997 111.0479988
 125.1180012 112.0724997 112.2299988 125.3826726 112.1684800 111.4064812
 122.8980012 106.6794997 113.2139988 123.2020012 105.9934997 112.6189988
 123.6190012 106.7974997 113.8319988 123.0370671 106.6016305 113.2161816
 131.5610012  98.2804997 114.0749988 131.6100012  98.8904997 114.8099988
 131.9860012  98.7414997 113.3519988 131.6251746  98.4263796 114.0779175
 126.0390012 101.0734997 113.5409988 126.1810012 100.1274997 113.5619988
 125.9320012 101.2804997 112.6129988 126.0439919 100.9718246 113.4183408
 119.1930012  99.1744997 110.8139988 119.2370012 100.0344997 110.3949988
 118.7360012  98.6224997 110.1799988 119.1372240  99.2174422 110.6709864
 126.9160012  99.3054997 109.2149988 127.5620012  98.9764997 109.8389988
 127.4260012  99.8234997 108.5919988 127.0734299  99.3304450 109.2162731
 115.8140012 101.5714997 111.5759988 116.4670012 101.0214997 112.0079988
 115.8380012 101.2974997 110.6589988 115.9066683 101.4591466 111.5112123
 120.9700012 103.1214997 110.7909988 121.5860012 102.5954997 111.3009988
 120.3840012 102.4814997 110.3879988 120.9750810 102.9629208 110.8063173
 131.9520012  99.7584997 116.3099988 131.2640012 100.4164997 116.2149988
 131.9680012  99.5614997 117.2469988 131.8599540  99.8219819 116.4235990
 118.0040012  98.0924997 114.8879988 117.7850012  98.6224997 114.1219988
 117.3360012  98.3194997 115.5349988 117.8837600  98.1956906 114.8706379
 125.3730012 107.5924997 108.4319988 125.0770012 107.2704997 107.5809988
 125.0480012 108.4924997 108.4729988 125.2886371 107.6700215 108.3211801
 120.5730012 105.7684997 115.1749988 119.8330012 106.3664997 115.2789988
 121.2870012 106.3224997 114.8599988 120.5682237 105.9252831 115.1466465
 128.6800012  98.5964997 111.1949988 128.4640012  97.8304997 111.7279988
 129.3350012  99.0684997 111.7079988 128.7390632  98.5555889 111.3372861
 117.5970012  99.9844997 112.8399988 118.2110012 100.6174997 113.2129988
 118.1090012  99.5124997 112.1839988 117.7501981 100.0072267 112.8022908
 118.9800012 107.7324997 115.9619988 118.9750012 108.6124997 115.5839988
 118.1270012 107.6494997 116.3869988 118.8639464 107.8416117 115.9677907
 115.1010012 107.4034997 106.7439988 114.8290012 107.6324997 105.8559988
 115.1470012 108.2414997 107.2049988 115.0699482 107.5481318 106.6846273
 128.7260012 109.0254997 113.4569988 127.7850012 109.0834997 113.6189988
 129.0030012 109.9314997 113.3199988 128.6344679 109.1559443 113.4606815
 129.0270012  97.3114997 114.8749988 128.2910012  97.9224997 114.8369988
 129.7100012  97.7264997 114.3479988 129.0186541  97.4511374 114.7985832
 122.0300012  95.3984997 112.3399988 121.9130012  94.4494997 112.2859988
 121.1750012  95.7304997 112.6139988 121.8984212  95.3135571 112.3696497
 126.9780012 110.8064997 110.0819988 127.4040012 110.0994997 109.5969988
 127.2950012 111.6074997 109.6659988 127.0791683 110.8181017 109.9593680
 128.1380012 108.7074997 108.5909988 127.8800012 108.0174997 107.9799988
 128.2090012 108.2644997 109.4369988 128.1122856 108.5532124 108.6216885
 129.8240012 107.2734997 117.0679988 129.9640012 106.6824997 116.3289988
 129.9910012 108.1464997 116.7119988 129.8657411 107.3105428 116.9186894
 124.2970012 104.2354997 106.8409988 123.5850012 104.7704997 106.4889988
 124.9880012 104.2914997 106.1809988 124.2930132 104.3162543 106.7036289
 131.6660012 103.6134997 115.1339988 131.0130012 104.3084997 115.2239988
 132.1310012 103.8234997 114.3249988 131.6395274 103.7370643 115.0368462
 127.7020012 104.4454997 107.7929988 126.9700012 104.6734997 108.3659988
 128.1500012 103.7314997 108.2469988 127.6622725 104.3802145 107.9328816
 127.6000012 102.6194997 116.8599988 127.6800012 103.3824997 117.4319988
 126.9980012 102.8984997 116.1699988 127.5295756 102.7617134 116.8450589
 119.3480012 105.0754997 109.6749988 119.0170012 104.7054997 108.8569988
 119.9360012 104.4054997 110.0219988 119.3821873 104.9341156 109.6098102
 120.7140012 108.5034997 112.3559988 120.6200012 107.9254997 111.5999988
 121.4440012 108.1324997 112.8529988 120.7997387 108.3741663 112.3195342
 119.7140012 103.8444997 113.3089988 120.2800012 103.9654997 112.5459988
 120.0330012 104.4814997 113.9469988 119.8345474 103.9472219 113.2909862
 126.0230012 109.3474997 114.0429988 125.7830012 110.0094997 114.6909988
 125.8250012 108.5134997 114.4679988 125.9633808 109.3253134 114.1891524
 120.5940012 108.2434997 118.0259988 120.2830012 109.0254997 118.4809988
 119.9440012 108.0904997 117.3399988 120.4635558 108.3299105 117.9955871
 126.5730012 103.6074997 105.4779988 127.1530012 103.7574997 106.2249988
 126.9870012 104.0784997 104.7539988 126.7082997 103.6916578 105.4824058
 117.5140012 104.4414997 117.2539988 117.5850012 105.0924997 117.9529988
 116.6240012 104.5444997 116.9189988 117.4033005 104.5445427 117.3043495
 124.3000012 110.3444997 108.9129988 124.7740012 110.6394997 109.6899988
 123.7370012 111.0824997 108.6799988 124.2888184 110.4847247 108.9879628
 118.8340012 110.3154997 118.7889988 118.8410012 110.1794997 117.8419988
 117.9180012 110.1974997 119.0409988 118.7111714 110.2809430 118.6934666
 130.2720012  95.3574997 105.2909988 129.3720012  95.4964997 105.5859988
 130.5240012  96.1884997 104.8889988 130.1828702  95.4889074 105.2770205
 118.3380012 104.1454997 107.2639988 118.0460012 104.9134997 106.7739988
 117.6640012 103.4854997 107.1019988 118.2068111 104.1615587 107.1748978
 114.4310012 106.5084997 116.0789988 113.9300012 106.4804997 115.2639988
 114.4360012 105.6024997 116.3889988 114.3630944 106.3822396 116.0093226
 114.1810012 109.2884997 112.9629988 115.1270012 109.1444997 112.9439988
 114.0690012 110.0724997 113.4999988 114.2952727 109.3748046 113.0330072
 132.3790012 109.9544997 118.6459988 132.3300012 108.9994997 118.6089988
 131.5520012 110.2224997 119.0469988 132.2604940 109.8598998 118.6951375
 123.3580012 109.5284997 117.5219988 123.4450012 110.3544997 117.9969988
 122.4940012 109.1984997 117.7709988 123.2531964 109.5969878 117.6206549
 123.7720012 113.3004997 107.3279988 123.6970012 113.1794997 106.3809988
 123.8050012 114.2504997 107.4459988 123.7662068 113.4122646 107.2144967
 117.4250012 112.0894997 109.1089988 117.5780012 111.7414997 109.9869988
 116.5750012 111.7334997 108.8539988 117.3309166 111.9936217 109.1948079
 126.5430012 112.3804997 107.0789988 125.6070012 112.4804997 107.2579988
 126.8230012 111.6714997 107.6579988 126.4529553 112.2983406 107.1817087
 129.5310012 101.4474997 119.1259988 129.1240012 101.9284997 118.4049988
 129.5720012 100.5424997 118.8179988 129.4808437 101.3909374 118.9856683
 116.6800012 107.8314997 117.1229988 116.8960012 107.4704997 117.9819988
 115.8250012 107.4574997 116.9129988 116.5939292 107.7314111 117.2123386
 119.2990012  96.3014997 113.1179988 118.4370012  96.2144997 112.7099988
 119.2760012  97.1574997 113.5459988 119.1780409  96.4052883 113.1200589
 123.9620012  96.0234997 116.4929988 124.3820012  95.6084997 117.2459988
 123.0290012  95.8454997 116.6099988 123.8933644  95.9425900 116.6119539
 127.2880012  99.7794997 117.3459988 126.7740012  99.6534997 118.1439988
 127.1330012 100.6914997 117.1019988 127.1966852  99.8856132 117.4222158
 119.3900012 101.2674997 114.2129988 118.7480012 101.2264997 114.9219988
 119.4270012 102.1934997 113.9749988 119.3070664 101.3871430 114.2779219
 119.3870012 101.4884997 109.1249988 118.4940012 101.1474997 109.0659988
 119.8370012 101.1114997 108.3689988 119.3258130 101.3909631 109.0147702
 124.9220012 101.9044997 107.9419988 124.5130012 102.7194997 107.6509988
 125.6430012 101.7644997 107.3279988 124.9634537 101.9972018 107.8191342
 124.0240012 102.0794997 119.4299988 123.4620012 101.3754997 119.7509988
 124.8510012 101.9594997 119.8979988 124.0587095 101.9667883 119.5372330
 125.9270012 101.3504997 110.7559988 125.7320012 101.9554997 110.0409988
 126.1080012 100.5164997 110.3219988 125.9247614 101.3206300 110.5994405
 117.1400012 101.5874997 116.0799988 117.1020012 101.9874997 116.9489988
 116.6490012 100.7704997 116.1709988 117.0684684 101.5318069 116.2111059
 113.7480012  98.7034997 109.9309988 114.3790012  98.6744997 110.6499988
 114.1970012  98.2784997 109.1999988 113.8950918  98.6420836 109.9306441
 125.1910012 102.9884997 115.4269988 125.5140012 102.3574997 114.7839988
 124.7510012 102.4534997 116.0879988 125.1757484 102.8298387 115.4283198
 121.9680012  98.9154997 110.2109988 121.0570012  98.9724997 110.4999988
 122.4740012  98.8554997 111.0219988 121.9116899  98.9151941 110.3601184
 116.7970012 100.5444997 109.0379988 115.9070012 100.6444997 108.6979988
 117.0930012  99.7024997 108.6919988 116.7152823 100.4443545 108.9447213
 120.4500012 100.5444997 106.6949988 121.3810012 100.6734997 106.8729988
 120.2350012 101.2144997 106.0449988 120.5484247 100.6526565 106.6315747
 126.3730012  98.1504997 113.4759988 125.6970012  98.2814997 114.1399988
 125.8880012  97.9954997 112.6649988 126.2147146  98.1475157 113.4574469
 119.1240012 101.7394997 104.2609988 118.5810012 101.3594997 103.5699988
 119.9570012 101.9334997 103.8329988 119.1623631 101.7137125 104.1084501
 129.6610012 113.8224997 119.7519988 129.8610012 114.2464997 118.9179988
 130.3160012 114.1654997 120.3589988 129.7770072 113.9269857 119.7198592
 117.2590012 106.2964997 119.3599988 117.9910012 106.5504997 119.9219988
 116.4790012 106.5004997 119.8759988 117.2537073 106.3588160 119.5066151
 123.2880012 101.7034997 112.0979988 123.8530012 101.1564997 111.5509988
 123.1410012 101.1814997 112.8869988 123.3453380 101.5582259 112.1298695
 118.2900012  97.8394997 108.5169988 117.9730012  96.9374997 108.4809988
 119.0720012  97.8414997 107.9639988 118.3522408  97.7162474 108.4373569
 121.9150012 100.0914997 114.5119988 121.0790012 100.5454997 114.6229988
 122.4390012 100.3674997 115.2639988 121.8715416 100.1908660 114.6288119
 122.4590012 106.3044997 106.1969988 121.7140012 105.7974997 105.8749988
 122.3250012 106.3534997 107.1439988 122.3388776 106.2416940 106.2808647
 129.6090012 105.4374997 114.9839988 130.2510012 105.8944997 114.4399988
 128.7790012 105.5504997 114.5209988 129.5845963 105.5152704 114.8470177
 126.3570012  99.1184997 104.3959988 125.4180012  99.2304997 104.2449988
 126.6540012  99.9754997 104.7029988 126.2687583  99.2495981 104.4168337
 123.9780012 106.4884997 117.4339988 123.6330012 106.1074997 118.2409988
 123.7780012 107.4224997 117.5049988 123.9037527 106.5625135 117.5540689
 127.0750012 100.9854997 106.0569988 127.9670012 100.8484997 106.3759988
 127.1320012 101.7764997 105.5199988 127.2046504 101.0736052 106.0280818
 117.5840012 105.5994997 111.9669988 118.3290012 105.5974997 111.3659988
 117.6620012 104.7764997 112.4479988 117.6964995 105.4878887 111.9498282
 124.5850012 107.7634997 105.2229988 124.2890012 108.5894997 105.6039988
 123.8820012 107.1434997 105.4189988 124.4494914 107.7928199 105.3016443
 114.5920012 104.0604997 117.2819988 114.8150012 103.6424997 118.1139988
 113.9900012 103.4474997 116.8589988 114.5411759 103.9204668 117.3387022
 121.6080012 103.5774997 119.4949988 121.3120012 103.4114997 118.5999988
 122.5400012 103.3574997 119.4839988 121.6934166 103.5250640 119.3710536
 126.2290012 108.9504997 117.3849988 125.3280012 109.1334997 117.1169988
 126.2630012 109.2094997 118.3049988 126.1103139 109.0105849 117.4728099
 131.9600012 101.1954997 105.7519988 131.4060012 100.7994997 105.0799988
 132.0600012 102.1054997 105.4739988 131.8977059 101.2643586 105.6224401
 131.9230012 106.9954997 118.5889988 131.0720012 107.2334997 118.2219988
 132.5140012 106.9784997 117.8359988 131.8862487 107.0258258 118.4368893
 130.2550012 109.9814997 106.2169988 129.8820012 109.1554997 106.5259988
 130.5330012 109.7984997 105.3189988 130.2415222 109.8437430 106.1379473
 127.4160012 104.7894997 113.2379988 126.4870012 104.5574997 113.2109988
 127.8670012 104.0124997 112.9079988 127.3499216 104.6527238 113.1896917
 119.9590012 109.1174997 109.3709988 120.4860012 109.8904997 109.1709988
 119.0790012 109.3424997 109.0689988 119.9122031 109.2537545 109.3027912
 121.3860012 106.7804997 108.9469988 121.1450012 107.7054997 108.9889988
 120.6450012 106.3214997 109.3439988 121.2529225 106.8450933 109.0063742
 121.9010012 110.9294997 115.2629988 122.2630012 111.7844997 115.0289988
 122.4320012 110.6374997 116.0029988 122.0224473 111.0071060 115.3310855
 120.0690012 111.8024997 108.4929988 119.1190012 111.9074997 108.5439988
 120.4210012 112.6224997 108.8369988 119.9864195 111.9278800 108.5465502
 125.4450012 107.0284997 114.9629988 125.0190012 106.8014997 115.7899988
 126.0250012 106.2904997 114.7809988 125.4651868 106.8975299 115.0515830
 127.6480012 107.9574997 104.0369988 128.0010012 107.5774997 104.8409988
 126.6990012 107.8644997 104.1239988 127.5680918 107.8928956 104.1588532
 128.1030012 111.5804997 117.4329988 127.5020012 111.0254997 116.9369988
 128.3850012 112.2474997 116.8059988 128.0588804 111.5946625 117.2804849
 116.2260012  98.8134997 116.8399988 115.3330012  99.1524997 116.7719988
 116.1270012  97.9584997 117.2579988 116.0904164  98.7442588 116.8872235
 128.5140012 106.6304997 106.2639988 128.2360012 105.9024997 106.8199988
 129.4410012 106.7494997 106.4689988 128.6013124 106.5468802 106.3678845
 115.8770012 110.6184997 115.2749988 116.0940012 109.6864997 115.2439988
 116.1230012 110.8924997 116.1579988 115.9399549 110.5280636 115.3901763
 121.7390012 109.0694997 102.4839988 121.9780012 108.3214997 101.9369988
 121.4700012 108.6814997 103.3169988 121.7353675 108.9146638 102.5216865
 120.6760012 108.6394997 104.9399988 120.8220012 108.1194997 105.7299988
 120.6730012 109.5464997 105.2469988 120.6955792 108.6908842 105.0896117
 117.1290012 105.8924997 105.4509988 116.4430012 106.2444997 106.0179988
 117.6510012 106.6554997 105.2039988 117.1056852 106.0438578 105.4952118
 124.9600012  98.5544997 115.7299988 125.6590012  98.6284997 116.3799988
 124.5790012  97.6904997 115.8839988 125.0041767  98.4477624 115.8398322
 125.7450012  98.2064997 106.8269988 125.9650012  98.6784997 106.0239988
 126.3030012  98.6014997 107.4969988 125.8504968  98.3244285 106.8077331
 123.4130012 110.3374997 105.6899988 122.5970012 110.8344997 105.7419988
 123.9430012 110.8124997 105.0499988 123.3729161 110.4697722 105.6105956
 122.9450012  99.9344997 107.6619988 123.7570012 100.4394997 107.7079988
 122.7000012  99.7894997 108.5759988 123.0230520  99.9840375 107.7918517
 123.4800012 100.9204997 116.8459988 123.5990012 101.4944997 117.6039988
 124.1360012 100.2324997 116.9609988 123.5849025 100.9059858 116.9651321
 123.8280012  97.0154997 108.5999988 123.4820012  97.6334997 109.2439988
 124.4870012  97.5164997 108.1179988 123.8696968  97.1676278 108.6229383
 120.7520012 111.3814997 105.6709988 120.9120012 112.1804997 105.1709988
 120.5540012 111.6874997 106.5559988 120.7471637 111.5324020 105.7221144
 119.4860012  98.0784997 105.2869988 119.4030012  98.9674997 105.6339988
 120.3760012  97.8134997 105.5189988 119.5949469  98.1641430 105.3657626
 129.6850012  98.8274997 117.6809988 128.7680012  99.0904997 117.5939988
 130.0200012  98.8244997 116.7849988 129.6048613  98.8630761 117.5478837
 128.2870012 102.5784997 111.7769988 127.4890012 102.1634997 111.4489988
 128.7320012 101.8874997 112.2679988 128.2379885 102.4283543 111.7984889
 117.7450012 108.5064997 104.3479988 118.3370012 109.2054997 104.6239988
 118.2040012 108.0734997 103.6279988 117.8881142 108.5437049 104.2884830
 129.3730012 111.8344997 113.3999988 129.2180012 112.5124997 112.7419988
 130.3060012 111.9064997 113.6029988 129.4778657 111.9369546 113.3374360
 116.8690012  95.9524997 112.1369988 116.6400012  96.0114997 111.2089988
 116.4260012  95.1604997 112.4429988 116.7778530  95.8535753 112.0514786
 115.7990012 109.8924997 108.2969988 114.9670012 110.3654997 108.3239988
 116.3450012 110.4024997 107.6989988 115.7590352 110.0261332 108.2198463
 115.0870012 112.5054997 119.6269988 115.6280012 112.2884997 120.3869988
 114.6060012 111.6994997 119.4369988 115.0959951 112.3669270 119.7052576
 119.6850012 111.4244997 121.2469988 120.4520012 110.9654997 121.5879988
 119.6630012 111.1984997 120.3179988 119.7871275 111.3310186 121.1680101
 126.2620012 109.8044997 119.9769988 125.9110012 108.9484997 120.2199988
 126.9880012 109.9474997 120.5839988 126.3120769 109.7065636 120.0923619
 128.3810012 110.7494997 102.8559988 128.6640012 109.9554997 103.3089988
 129.1210012 110.9824997 102.2959988 128.5198006 110.6723376 102.8422715
 114.9940012 106.3154997 120.5809988 115.1380012 105.4134997 120.2949988
 114.2220012 106.6014997 120.0939988 114.9092753 106.2306816 120.4759505
 121.6500012 106.2854997 120.0139988 121.3210012 106.5564997 119.1569988
 121.8020012 105.3444997 119.9269988 121.6254809 106.1953862 119.8848244
 127.3840012 106.2014997 117.3969988 128.1300012 106.7894997 117.2779988
 126.6270012 106.7834997 117.4609988 127.3837820 106.3607143 117.3893590
 115.8270012 103.5154997 120.0009988 116.2350012 102.6584997 119.8799988
 115.5670012 103.5304997 120.9219988 115.8477568 103.4000807 120.1089588
 120.4850012 104.6314997 105.0199988 120.0250012 104.1474997 105.7059988
 120.7400012 103.9634997 104.3839988 120.4564902 104.4748731 105.0279334
 119.7740012 102.5244997 117.3759988 119.1560012 103.1994997 117.6559988
 120.1180012 102.8454997 116.5419988 119.7359132 102.6602411 117.3016262
 124.7940012 104.9964997 120.6529988 125.7470012 105.0794997 120.6259988
 124.6330012 104.2844997 121.2729988 124.9026426 104.9116746 120.7330579
 120.1130012  99.8794997 118.4579988 120.2630012  99.1504997 117.8559988
 120.1160012 100.6564997 117.8989988 120.1339302  99.8847851 118.3000692
 120.5260012  98.2494997 115.9509988 121.0620012  98.7004997 115.2989988
 119.6740012  98.1414997 115.5279988 120.4842178  98.2966390 115.8045756
 122.1080012 103.6884997 116.1899988 122.8580012 103.5324997 115.6169988
 121.7690012 104.5404997 115.9149988 122.1648921 103.7822968 116.0743561
 126.5230012 101.5034997 121.2189988 126.7160012 100.5724997 121.1069988
 127.3810012 101.9284997 121.2079988 126.6652934 101.4336531 121.2022031
 127.8400012 104.2924997 119.2959988 127.5590012 105.0014997 118.7179988
 128.7830012 104.2194997 119.1449988 127.9289291 104.3796711 119.1964967
 118.5920012 101.0774997 120.3699988 117.8250012 100.5454997 120.1589988
 119.2710012 100.7674997 119.7699988 118.5787877 100.9628300 120.2600716
 121.3320012  95.7054997 116.3819988 121.2330012  96.6524997 116.2769988
 120.5890012  95.3334997 115.9059988 121.2181184  95.7845863 116.3033621
 122.5960012 100.0274997 119.9459988 122.3600012  99.8074997 120.8469988
 121.8120012  99.8204997 119.4359988 122.4578504  99.9694586 120.0003431
 125.3110012  99.1544997 119.0209988 124.3640012  99.1864997 119.1539988
 125.6240012  98.5294997 119.6749988 125.2236707  99.0743998 119.1276060
 126.9450012  97.7884997 121.0269988 126.8490012  96.8364997 121.0209988
 126.6240012  98.0574997 121.8869988 126.8884070  97.6944035 121.1425441
 116.7720012  98.9984997 120.0739988 116.9840012  98.2914997 119.4639988
 116.6610012  98.5604997 120.9179988 116.7859721  98.8427084 120.1046843
 121.5530012  94.9994997 119.0529988 122.2650012  94.3594997 119.0389988
 121.4520012  95.2664997 118.1399988 121.6368066  94.9480079 118.9275677
 121.9070012  96.6824997 121.1069988 121.7750012  96.2064997 120.2869988
 121.3080012  97.4264997 121.0519988 121.8079071  96.7179618 120.9872886
 113.6710012 113.5944997 108.8439988 113.0240012 113.1324997 108.3109988
 114.0250012 112.9224997 109.4259988 113.6303849 113.4404723 108.8497959
 114.5410012 111.6754997 110.6479988 114.2060012 110.7954997 110.8199988
 114.7630012 112.0204997 111.5129988 114.5251783 111.6017500 110.7884208
 132.0890012 112.4844997 113.6289988 132.0680012 112.6694997 114.5679988
 132.7800012 113.0534997 113.2879988 132.1794618 112.5866606 113.7113864
 131.6530012 112.0524997 116.5509988 131.1650012 111.3164997 116.1789988
 132.2020012 111.6584997 117.2289988 131.6604820 111.8985889 116.5917813
 130.1030012 107.8414997 121.1889988 129.2370012 107.7364997 121.5829988
 130.4800012 108.6004997 121.6349988 130.0353308 107.9296900 121.3032393
 131.4040012 106.0984997 106.7029988 132.2540012 106.5194997 106.8299988
 131.4100012 105.3584997 107.3099988 131.5211372 106.0560803 106.8024344
 131.7990012 104.1514997 108.5259988 131.0720012 103.6724997 108.9239988
 132.3800012 104.3574997 109.2589988 131.7780473 104.1138103 108.6794528
 131.5580012 106.9364997 113.4739988 132.3910012 106.5584997 113.1939988
 131.6700012 107.8794997 113.3549988 131.6872647 107.0122218 113.4195487
 130.0440012 109.8144997 115.7809988 129.3970012 110.1394997 116.4069988
 129.5270012 109.3744997 115.1069988 129.8854029 109.7995004 115.7755827
 132.0670012 104.0524997 104.9179988 131.5450012 104.4094997 104.1989988
 132.0340012 104.7274997 105.5959988 131.9911634 104.1925413 104.9113145
 129.5850012 102.6724997 109.0889988 129.4350012 101.7274997 109.0689988
 129.2320012 102.9534997 109.9329988 129.5167448 102.5811481 109.2003705
 114.6210012 104.7504997 113.0999988 114.8050012 104.6684997 112.1639988
 115.4700012 104.6264997 113.5229988 114.7610151 104.7225073 113.0291451
 130.4420012 104.6424997 118.7279988 131.0250012 103.9084997 118.9199988
 131.0060012 105.4144997 118.7749988 130.5979769 104.6464227 118.7606159
 131.9380012 102.5454997 119.4129988 131.0750012 102.1664997 119.2469988
 132.5430012 101.8064997 119.3379988 131.9016119 102.3938268 119.3801528
 129.2960012 100.2554997 107.5519988 129.5760012  99.3484997 107.6759988
 130.0550012 100.6894997 107.1629988 129.4369277 100.1900942 107.5163682
 129.9080012 100.8364997 112.9879988 130.8410012 101.0484997 112.9529988
 129.6730012 100.9384997 113.9099988 130.0039244 100.8793100 113.1078892
 129.9370012 101.5734997 115.7639988 129.0940012 101.8414997 116.1299988
 130.3790012 102.3954997 115.5529988 129.8814158 101.7213291 115.7855491
 114.2180012 100.0214997 119.2409988 115.1380012  99.8994997 119.4769988
 113.7690012  99.2714997 119.6299988 114.2831580  99.9033727 119.3259006
 132.2200012  95.5534997 121.1169988 132.5700012  94.8994997 120.5119988
 132.3670012  96.3904997 120.6769988 132.2877887  95.5771548 120.9746858
 129.9090012  97.5184997 107.5999988 130.0920012  97.0694997 108.4259988
 129.3100012  96.9334997 107.1369988 129.8530202  97.3779975 107.6503275
 115.4390012  98.3334997 112.1319988 115.8850012  97.5414997 112.4339988
 115.9060012  99.0494997 112.5619988 115.5630831  98.3220685 112.2314006
 113.7430012 101.3324997 113.2009988 114.2350012 101.1114997 112.4099988
 114.1060012 102.1734997 113.4819988 113.8593126 101.4158357 113.1307531
 131.7400012  97.6624997 119.4659988 130.8220012  97.9334997 119.4309988
 131.8630012  97.1274997 118.6819988 131.6309729  97.6272508 119.3551923
 131.7760012  97.5854997 104.1279988 132.1880012  96.8644997 103.6529988
 132.4580012  98.2554997 104.1869988 131.9245885  97.5772368 104.0708915
 114.0570012  97.5904997 107.2549988 113.1320012  97.7994997 107.1259988
 114.5110012  98.0744997 106.5649988 113.9917292  97.6845343 107.1440720
 128.8280012 112.5744997 109.2009988 129.4800012 112.2274997 108.5929988
 129.3380012 113.0634997 109.8469988 128.9862637 112.5930597 109.2050236
 114.0210012  96.3284997 115.5989988 113.3560012  96.0824997 116.2429988
 113.5780012  96.9504997 115.0219988 113.8701318  96.3789410 115.6090898
 116.2130012 109.5034997 119.7439988 115.3920012 109.6784997 119.2829988
 115.9600012 109.4304997 120.6639988 116.0665585 109.5175544 119.8053561
 119.1670012 110.4784997 116.0019988 118.7420012 111.2874997 115.7199988
 120.0710012 110.5634997 115.6999988 119.2309975 110.6009300 115.9224816
 123.4780012 111.8774997 118.9619988 123.6630012 111.5434997 119.8399988
 124.3240012 112.1864997 118.6399988 123.6177539 111.8736047 119.0385605
 125.8230012 113.1634997 118.2059988 126.5000012 112.5304997 117.9659988
 126.1450012 113.5644997 119.0129988 125.9591637 113.1311154 118.2822793
 130.7400012  95.7524997 117.2849988 129.9280012  96.0774997 116.8979988
 130.9730012  94.9924997 116.7519988 130.6602203  95.6942758 117.1598880
 116.5690012 113.7344997 116.0499988 115.8480012 114.1744997 115.5989988
 116.2030012 113.4834997 116.8979988 116.4209651 113.7607242 116.1029640
 119.0360012 113.3344997 115.0799988 118.1710012 113.4064997 115.4839988
 118.9810012 113.8814997 114.2959988 118.9102085 113.4182685 115.0293362
 123.7460012 113.2224997 114.2549988 123.2900012 113.7514997 113.6009988
 123.9090012 113.8254997 114.9799988 123.7056068 113.3764607 114.2634838
 126.0740012 112.1004997 115.1999988 125.1690012 112.2654997 114.9339988
 126.5030012 112.9534997 115.1349988 126.0081324 112.2384339 115.1547976
 128.6780012 113.6704997 115.4949988 128.4960012 114.5864997 115.2849988
 128.8550012 113.2604997 114.6489988 128.6770210 113.7404822 115.3517885
 115.9830012 112.3574997 112.9599988 115.9650012 111.9324997 113.8169988
 116.7880012 112.0394997 112.5509988 116.0893529 112.2563013 113.0220946
 118.1250012 111.0674997 111.6149988 117.9060012 110.1514997 111.7849988
 118.9490012 111.2074997 112.0809988 118.2064420 110.9610520 111.7012774
 120.6620012 111.5374997 112.4639988 120.8750012 110.6494997 112.1769988
 120.7260012 111.5034997 113.4179988 120.6998231 111.4113102 112.5537397
 124.1700012  97.2014997 111.6079988 123.4960012  96.5724997 111.8639988
 124.7340012  96.7174997 111.0049988 124.1539230  97.0498744 111.5615340
 129.3130012  95.3094997 111.7209988 129.9170012  95.8564997 111.2189988
 128.4430012  95.6284997 111.4799988 129.2781208  95.4275137 111.6196886
 131.0400012  96.4474997 110.0539988 131.6520012  95.9334997 109.5269988
 131.4220012  97.3254997 110.0769988 131.1753371  96.4957866 109.9850041
 116.4970012  95.8354997 109.4299988 115.7200012  95.6014997 108.9229988
 117.0270012  95.0384997 109.4389988 116.4622330  95.6956988 109.3617742
 115.3330012  95.6334997 105.2339988 115.7720012  96.2444997 104.6419988
 114.7000012  96.1714997 105.7079988 115.3074514  95.7899257 105.2170930
 121.0760012  95.7624997 109.2439988 121.9510012  96.1504997 109.2139988
 120.9400012  95.5474997 110.1659988 121.1773695  95.7865184 109.3646440
 126.6330012  95.7924997 110.8929988 126.7090012  95.8874997 109.9429988
 126.3580012  94.8844997 111.0219988 126.6062321  95.6827867 110.7805079
 127.9860012  95.8184997 106.5849988 127.2840012  96.4334997 106.3749988
 127.5420012  94.9804997 106.7159988 127.8296450  95.7895639 106.5739000
 115.2340012 111.5814997 106.1309988 114.5490012 111.5434997 105.4639988
 115.2380012 112.4944997 106.4199988 115.1406998 111.6996733 106.0786771
 122.2200012  97.8424997 106.1329988 122.3980012  97.1964997 106.8159988
 122.1670012  98.6764997 106.5999988 122.2371999  97.8668009 106.2895917
 130.8080012 112.3544997 107.2079988 130.6130012 111.6064997 106.6429988
 130.7690012 113.1124997 106.6249988 130.7760380 112.3546099 107.0518384
 116.4550012  96.3494997 118.9479988 116.0890012  95.5844997 119.3899988
 117.3680012  96.3784997 119.2339988 116.5282736  96.2485640 119.0472502
 118.4280012  95.7004997 120.4839988 119.3260012  95.4264997 120.2989988
 118.0410012  94.9574997 120.9479988 118.4986612  95.5625914 120.5213643
 126.8490012  95.0324997 120.6659988 126.9260012  94.6064997 121.5199988
 127.7430012  95.0464997 120.3229988 126.9803428  94.9760879 120.7365310
 130.0250012 111.1054997 119.3579988 129.2430012 110.9194997 118.8379988
 129.9530012 112.0344997 119.5759988 129.9082274 111.2056643 119.3163018
 144.4310012 104.9914997 109.3889988 144.5200012 105.9354997 109.2569988
 143.7930012 104.7164997 108.7309988 144.3569081 105.0834830 109.2819614
 143.3640012 104.2464997 112.8079988 143.3260012 103.6004997 113.5129988
 143.0420012 103.7804997 112.0369988 143.3152333 104.0949408 112.8002978
 135.7330012 103.8614997 114.4009988 135.7740012 103.2354997 115.1239988
 136.4360012 104.4854997 114.5829988 135.8336363 103.8601196 114.5246044
 136.6560012 108.3114997 112.9359988 136.2870012 107.5094997 112.5659988
 137.5970012 108.1424997 112.9819988 136.7327289 108.1790153 112.8916316
 133.2660012 101.9714997 108.3289988 132.8190012 102.8174997 108.3099988
 132.7050012 101.3914997 107.8129988 133.1289900 102.0089916 108.2566801
 133.9770012 104.1334997 110.4539988 134.1900012 103.3634997 110.9819988
 134.7150012 104.2224997 109.8509988 134.1059044 104.0401968 110.4447123
 144.1820012 112.2904997 111.3209988 144.8020012 111.6134997 111.0479988
 143.9740012 112.0724997 112.2299988 144.2386726 112.1684800 111.4064812
 141.7540012 106.6794997 113.2139988 142.0580012 105.9934997 112.6189988
 142.4750012 106.7974997 113.8319988 141.8930671 106.6016304 113.2161816
 144.8950012 101.0734997 113.5409988 145.0370012 100.1274997 113.5619988
 144.7880012 101.2804997 112.6129988 144.8999919 100.9718246 113.4183408
 138.0490012  99.1744997 110.8139988 138.0930012 100.0344997 110.3949988
 137.5920012  98.6224997 110.1799988 137.9932240  99.2174422 110.6709864
 134.6700012 101.5714997 111.5759988 135.3230012 101.0214997 112.0079988
 134.6940012 101.2974997 110.6589988 134.7626683 101.4591466 111.5112123
 139.8260012 103.1214997 110.7909988 140.4420012 102.5954997 111.3009988
 139.2400012 102.4814997 110.3879988 139.8310810 102.9629208 110.8063173
 136.8600012  98.0924997 114.8879988 136.6410012  98.6224997 114.1219988
 136.1920012  98.3194997 115.5349988 136.7397600  98.1956906 114.8706379
 144.2290012 107.5924997 108.4319988 143.9330012 107.2704997 107.5809988
 143.9040012 108.4924997 108.4729988 144.1446371 107.6700215 108.3211801
 139.4290012 105.7684997 115.1749988 138.6890012 106.3664997 115.2789988
 140.1430012 106.3224997 114.8599988 139.4242237 105.9252831 115.1466465
 136.4530012  99.9844997 112.8399988 137.0670012 100.6174997 113.2129988
 136.9650012  99.5124997 112.1839988 136.6061981 100.0072267 112.8022908
 137.8360012 107.7324997 115.9619988 137.8310012 108.6124997 115.5839988
 136.9830012 107.6494997 116.3869988 137.7199464 107.8416117 115.9677907
 133.9570012 107.4034997 106.7439988 133.6850012 107.6324997 105.8559988
 134.0030012 108.2414997 107.2049988 133.9259482 107.5481318 106.6846273
 140.8860012  95.3984997 112.3399988 140.7690012  94.4494997 112.2859988
 140.0310012  95.7304997 112.6139988 140.7544212  95.3135571 112.3696497
 143.1530012 104.2354997 106.8409988 142.4410012 104.7704997 106.4889988
 143.8440012 104.2914997 106.1809988 143.1490132 104.3162543 106.7036289
 143.2060012 102.6934997 103.8799988 143.9070012 102.7154997 104.5309988
 143.5090012 102.0654997 103.2229988 143.3428133 102.6117070 103.8803369
 138.2040012 105.0754997 109.6749988 137.8730012 104.7054997 108.8569988
 138.7920012 104.4054997 110.0219988 138.2381873 104.9341156 109.6098102
 139.5700012 108.5034997 112.3559988 139.4760012 107.9254997 111.5999988
 140.3000012 108.1324997 112.8529988 139.6557387 108.3741663 112.3195342
 138.5700012 103.8444997 113.3089988 139.1360012 103.9654997 112.5459988
 138.8890012 104.4814997 113.9469988 138.6905474 103.9472219 113.2909862
 144.8790012 109.3474997 114.0429988 144.6390012 110.0094997 114.6909988
 144.6810012 108.5134997 114.4679988 144.8193808 109.3253134 114.1891524
 139.4500012 108.2434997 118.0259988 139.1390012 109.0254997 118.4809988
 138.8000012 108.0904997 117.3399988 139.3195558 108.3299105 117.9955871
 136.3700012 104.4414997 117.2539988 136.4410012 105.0924997 117.9529988
 135.4800012 104.5444997 116.9189988 136.2593005 104.5445427 117.3043495
 143.1560012 110.3444997 108.9129988 143.6300012 110.6394997 109.6899988
 142.5930012 111.0824997 108.6799988 143.1448184 110.4847247 108.9879628
 137.6900012 110.3154997 118.7889988 137.6970012 110.1794997 117.8419988
 136.7740012 110.1974997 119.0409988 137.5671714 110.2809430 118.6934666
 137.1940012 104.1454997 107.2639988 136.9020012 104.9134997 106.7739988
 136.5200012 103.4854997 107.1019988 137.0628111 104.1615587 107.1748978
 133.2870012 106.5084997 116.0789988 132.7860012 106.4804997 115.2639988
 133.2920012 105.6024997 116.3889988 133.2190944 106.3822396 116.0093226
 133.0370012 109.2884997 112.9629988 133.9830012 109.1444997 112.9439988
 132.9250012 110.0724997 113.4999988 133.1512727 109.3748046 113.0330072
 142.2140012 109.5284997 117.5219988 142.3010012 110.3544997 117.9969988
 141.3500012 109.1984997 117.7709988 142.1091964 109.5969878 117.6206549
 142.6280012 113.3004997 107.3279988 142.5530012 113.1794997 106.3809988
 142.6610012 114.2504997 107.4459988 142.6222068 113.4122646 107.2144967
 136.2810012 112.0894997 109.1089988 136.4340012 111.7414997 109.9869988
 135.4310012 111.7334997 108.8539988 136.1869166 111.9936216 109.1948079
 135.5360012 107.8314997 117.1229988 135.7520012 107.4704997 117.9819988
 134.6810012 107.4574997 116.9129988 135.4499292 107.7314111 117.2123386
 138.1550012  96.3014997 113.1179988 137.2930012  96.2144997 112.7099988
 138.1320012  97.1574997 113.5459988 138.0340409  96.4052883 113.1200589
 142.8180012  96.0234997 116.4929988 143.2380012  95.6084997 117.2459988
 141.8850012  95.8454997 116.6099988 142.7493644  95.9425900 116.6119539
 138.2460012 101.2674997 114.2129988 137.6040012 101.2264997 114.9219988
 138.2830012 102.1934997 113.9749988 138.1630664 101.3871430 114.2779219
 138.2430012 101.4884997 109.1249988 137.3500012 101.1474997 109.0659988
 138.6930012 101.1114997 108.3689988 138.1818130 101.3909631 109.0147702
 143.7780012 101.9044997 107.9419988 143.3690012 102.7194997 107.6509988
 144.4990012 101.7644997 107.3279988 143.8194537 101.9972018 107.8191342
 142.8800012 102.0794997 119.4299988 142.3180012 101.3754997 119.7509988
 143.7070012 101.9594997 119.8979988 142.9147095 101.9667883 119.5372330
 144.7830012 101.3504997 110.7559988 144.5880012 101.9554997 110.0409988
 144.9640012 100.5164997 110.3219988 144.7807614 101.3206300 110.5994405
 135.9960012 101.5874997 116.0799988 135.9580012 101.9874997 116.9489988
 135.5050012 100.7704997 116.1709988 135.9244684 101.5318069 116.2111059
 132.6040012  98.7034997 109.9309988 133.2350012  98.6744997 110.6499988
 133.0530012  98.2784997 109.1999988 132.7510918  98.6420836 109.9306441
 144.0470012 102.9884997 115.4269988 144.3700012 102.3574997 114.7839988
 143.6070012 102.4534997 116.0879988 144.0317484 102.8298387 115.4283198
 140.8240012  98.9154997 110.2109988 139.9130012  98.9724997 110.4999988
 141.3300012  98.8554997 111.0219988 140.7676899  98.9151941 110.3601184
 135.6530012 100.5444997 109.0379988 134.7630012 100.6444997 108.6979988
 135.9490012  99.7024997 108.6919988 135.5712823 100.4443545 108.9447213
 139.3060012 100.5444997 106.6949988 140.2370012 100.6734997 106.8729988
 139.0910012 101.2144997 106.0449988 139.4044247 100.6526565 106.6315747
 137.9800012 101.7394997 104.2609988 137.4370012 101.3594997 103.5699988
 138.8130012 101.9334997 103.8329988 138.0183631 101.7137125 104.1084501
 136.1150012 106.2964997 119.3599988 136.8470012 106.5504997 119.9219988
 135.3350012 106.5004997 119.8759988 136.1097073 106.3588160 119.5066151
 142.1440012 101.7034997 112.0979988 142.7090012 101.1564997 111.5509988
 141.9970012 101.1814997 112.8869988 142.2013380 101.5582259 112.1298695
 137.1460012  97.8394997 108.5169988 136.8290012  96.9374997 108.4809988
 137.9280012  97.8414997 107.9639988 137.2082408  97.7162474 108.4373569
 140.7710012 100.0914997 114.5119988 139.9350012 100.5454997 114.6229988
 141.2950012 100.3674997 115.2639988 140.7275416 100.1908660 114.6288119
 142.8340012 106.4884997 117.4339988 142.4890012 106.1074997 118.2409988
 142.6340012 107.4224997 117.5049988 142.7597527 106.5625135 117.5540689
 136.4400012 105.5994997 111.9669988 137.1850012 105.5974997 111.3659988
 136.5180012 104.7764997 112.4479988 136.5524995 105.4878887 111.9498282
 143.4410012 107.7634997 105.2229988 143.1450012 108.5894997 105.6039988
 142.7380012 107.1434997 105.4189988 143.3054914 107.7928199 105.3016443
 133.4480012 104.0604997 117.2819988 133.6710012 103.6424997 118.1139988
 132.8460012 103.4474997 116.8589988 133.3971759 103.9204668 117.3387022
 140.4640012 103.5774997 119.4949988 140.1680012 103.4114997 118.5999988
 141.3960012 103.3574997 119.4839988 140.5494166 103.5250640 119.3710536
 138.8150012 109.1174997 109.3709988 139.3420012 109.8904997 109.1709988
 137.9350012 109.3424997 109.0689988 138.7682031 109.2537545 109.3027912
 134.5700012 103.9794997 103.9579988 135.1860012 104.6064997 104.3379988
 133.7080012 104.2954997 104.2299988 134.5377698 104.1079430 104.0467183
 140.2420012 106.7804997 108.9469988 140.0010012 107.7054997 108.9889988
 139.5010012 106.3214997 109.3439988 140.1089225 106.8450933 109.0063742
 140.7570012 110.9294997 115.2629988 141.1190012 111.7844997 115.0289988
 141.2880012 110.6374997 116.0029988 140.8784473 111.0071060 115.3310855
 138.9250012 111.8024997 108.4929988 137.9750012 111.9074997 108.5439988
 139.2770012 112.6224997 108.8369988 138.8424195 111.9278800 108.5465502
 144.3010012 107.0284997 114.9629988 143.8750012 106.8014997 115.7899988
 144.8810012 106.2904997 114.7809988 144.3211868 106.8975299 115.0515830
 135.0820012  98.8134997 116.8399988 134.1890012  99.1524997 116.7719988
 134.9830012  97.9584997 117.2579988 134.9464164  98.7442588 116.8872235
 134.7330012 110.6184997 115.2749988 134.9500012 109.6864997 115.2439988
 134.9790012 110.8924997 116.1579988 134.7959549 110.5280636 115.3901763
 135.9850012 105.8924997 105.4509988 135.2990012 106.2444997 106.0179988
 136.5070012 106.6554997 105.2039988 135.9616852 106.0438578 105.4952118
 143.8160012  98.5544997 115.7299988 144.5150012  98.6284997 116.3799988
 143.4350012  97.6904997 115.8839988 143.8601767  98.4477624 115.8398322
 144.6010012  98.2064997 106.8269988 144.8210012  98.6784997 106.0239988
 145.1590012  98.6014997 107.4969988 144.7064968  98.3244285 106.8077331
 142.2690012 110.3374997 105.6899988 141.4530012 110.8344997 105.7419988
 142.7990012 110.8124997 105.0499988 142.2289161 110.4697722 105.6105956
 141.8010012  99.9344997 107.6619988 142.6130012 100.4394997 107.7079988
 141.5560012  99.7894997 108.5759988 141.8790520  99.9840375 107.7918517
 142.3360012 100.9204997 116.8459988 142.4550012 101.4944997 117.6039988
 142.9920012 100.2324997 116.9609988 142.4409025 100.9059858 116.9651321
 142.6840012  97.0154997 108.5999988 142.3380012  97.6334997 109.2439988
 143.3430012  97.5164997 108.1179988 142.7256968  97.1676278 108.6229383
 138.3420012  98.0784997 105.2869988 138.2590012  98.9674997 105.6339988
 139.2320012  97.8134997 105.5189988 138.4509469  98.1641430 105.3657626
 136.6010012 108.5064997 104.3479988 137.1930012 109.2054997 104.6239988
 137.0600012 108.0734997 103.6279988 136.7441142 108.5437049 104.2884830
 135.7250012  95.9524997 112.1369988 135.4960012  96.0114997 111.2089988
 135.2820012  95.1604997 112.4429988 135.6338530  95.8535753 112.0514786
 134.6550012 109.8924997 108.2969988 133.8230012 110.3654997 108.3239988
 135.2010012 110.4024997 107.6989988 134.6150352 110.0261332 108.2198463
 133.9430012 112.5054997 119.6269988 134.4840012 112.2884997 120.3869988
 133.4620012 111.6994997 119.4369988 133.9519951 112.3669270 119.7052576
 138.5410012 111.4244997 121.2469988 139.3080012 110.9654997 121.5879988
 138.5190012 111.1984997 120.3179988 138.6431275 111.3310186 121.1680101
 133.8500012 106.3154997 120.5809988 133.9940012 105.4134997 120.2949988
 133.0780012 106.6014997 120.0939988 133.7652753 106.2306816 120.4759505
 140.5060012 106.2854997 120.0139988 140.1770012 106.5564997 119.1569988
 140.6580012 105.3444997 119.9269988 140.4814809 106.1953862 119.8848244
 143.5440012 107.7064997 102.4499988 143.2750012 107.8864997 103.3509988
 143.3380012 106.7804997 102.3179988 143.4793427 107.6060261 102.5555073
 134.6830012 103.5154997 120.0009988 135.0910012 102.6584997 119.8799988
 134.4230012 103.5304997 120.9219988 134.7037568 103.4000807 120.1089588
 138.6300012 102.5244997 117.3759988 138.0120012 103.1994997 117.6559988
 138.9740012 102.8454997 116.5419988 138.5919132 102.6602411 117.3016262
 140.4120012 102.8744997 103.2819988 140.2320012 102.7204997 102.3549988
 141.3620012 102.9824997 103.3269988 140.5157776 102.8680175 103.1611843
 143.6500012 104.9964997 120.6529988 144.6030012 105.0794997 120.6259988
 143.4890012 104.2844997 121.2729988 143.7586426 104.9116746 120.7330579
 138.9690012  99.8794997 118.4579988 139.1190012  99.1504997 117.8559988
 138.9720012 100.6564997 117.8989988 138.9899302  99.8847851 118.3000692
 139.3820012  98.2494997 115.9509988 139.9180012  98.7004997 115.2989988
 138.5300012  98.1414997 115.5279988 139.3402178  98.2966390 115.8045756
 140.9640012 103.6884997 116.1899988 141.7140012 103.5324997 115.6169988
 140.6250012 104.5404997 115.9149988 141.0208921 103.7822968 116.0743561
 137.4480012 101.0774997 120.3699988 136.6810012 100.5454997 120.1589988
 138.1270012 100.7674997 119.7699988 137.4347877 100.9628300 120.2600716
 140.1880012  95.7054997 116.3819988 140.0890012  96.6524997 116.2769988
 139.4450012  95.3334997 115.9059988 140.0741184  95.7845863 116.3033621
 141.4520012 100.0274997 119.9459988 141.2160012  99.8074997 120.8469988
 140.6680012  99.8204997 119.4359988 141.3138504  99.9694586 120.0003431
 144.1670012  99.1544997 119.0209988 143.2200012  99.1864997 119.1539988
 144.4800012  98.5294997 119.6749988 144.0796707  99.0743998 119.1276060
 135.6280012  98.9984997 120.0739988 135.8400012  98.2914997 119.4639988
 135.5170012  98.5604997 120.9179988 135.6419721  98.8427084 120.1046843
 140.4090012  94.9994997 119.0529988 141.1210012  94.3594997 119.0389988
 140.3080012  95.2664997 118.1399988 140.4928066  94.9480079 118.9275677
 140.7630012  96.6824997 121.1069988 140.6310012  96.2064997 120.2869988
 140.1640012  97.4264997 121.0519988 140.6639071  96.7179618 120.9872886
 132.5270012 113.5944997 108.8439988 131.8800012 113.1324997 108.3109988
 132.8810012 112.9224997 109.4259988 132.4863849 113.4404723 108.8497959
 133.3970012 111.6754997 110.6479988 133.0620012 110.7954997 110.8199988
 133.6190012 112.0204997 111.5129988 133.3811783 111.6017500 110.7884208
 133.4770012 104.7504997 113.0999988 133.6610012 104.6684997 112.1639988
 134.3260012 104.6264997 113.5229988 133.6170151 104.7225073 113.0291451
 133.0740012 100.0214997 119.2409988 133.9940012  99.8994997 119.4769988
 132.6250012  99.2714997 119.6299988 133.1391580  99.9033727 119.3259006
 134.2950012  98.3334997 112.1319988 134.7410012  97.5414997 112.4339988
 134.7620012  99.0494997 112.5619988 134.4190831  98.3220685 112.2314006
 132.5990012 101.3324997 113.2009988 133.0910012 101.1114997 112.4099988
 132.9620012 102.1734997 113.4819988 132.7153126 101.4158357 113.1307531
 132.9130012  97.5904997 107.2549988 131.9880012  97.7994997 107.1259988
 133.3670012  98.0744997 106.5649988 132.8477292  97.6845343 107.1440720
 132.8770012  96.3284997 115.5989988 132.2120012  96.0824997 116.2429988
 132.4340012  96.9504997 115.0219988 132.7261318  96.3789410 115.6090898
 135.0690012 109.5034997 119.7439988 134.2480012 109.6784997 119.2829988
 134.8160012 109.4304997 120.6639988 134.9225585 109.5175544 119.8053561
 138.0230012 110.4784997 116.0019988 137.5980012 111.2874997 115.7199988
 138.9270012 110.5634997 115.6999988 138.0869975 110.6009300 115.9224816
 142.3340012 111.8774997 118.9619988 142.5190012 111.5434997 119.8399988
 143.1800012 112.1864997 118.6399988 142.4737539 111.8736047 119.0385605
 144.6790012 113.1634997 118.2059988 145.3560012 112.5304997 117.9659988
 145.0010012 113.5644997 119.0129988 144.8151637 113.1311154 118.2822793
 135.4250012 113.7344997 116.0499988 134.7040012 114.1744997 115.5989988
 135.0590012 113.4834997 116.8979988 135.2769651 113.7607242 116.1029640
 137.8920012 113.3344997 115.0799988 137.0270012 113.4064997 115.4839988
 137.8370012 113.8814997 114.2959988 137.7662085 113.4182685 115.0293362
 142.6020012 113.2224997 114.2549988 142.1460012 113.7514997 113.6009988
 142.7650012 113.8254997 114.9799988 142.5616068 113.3764607 114.2634838
 134.8390012 112.3574997 112.9599988 134.8210012 111.9324997 113.8169988
 135.6440012 112.0394997 112.5509988 134.9453529 112.2563013 113.0220946
 136.9810012 111.0674997 111.6149988 136.7620012 110.1514997 111.7849988
 137.8050012 111.2074997 112.0809988 137.0624420 110.9610520 111.7012774
 139.5180012 111.5374997 112.4639988 139.7310012 110.6494997 112.1769988
 139.5820012 111.5034997 113.4179988 139.5558232 111.4113102 112.5537397
 143.0260012  97.2014997 111.6079988 142.3520012  96.5724997 111.8639988
 143.5900012  96.7174997 111.0049988 143.0099230  97.0498744 111.5615340
 135.3530012  95.8354997 109.4299988 134.5760012  95.6014997 108.9229988
 135.8830012  95.0384997 109.4389988 135.3182330  95.6956988 109.3617742
 134.1890012  95.6334997 105.2339988 134.6280012  96.2444997 104.6419988
 133.5560012  96.1714997 105.7079988 134.1634514  95.7899257 105.2170930
 139.9320012  95.7624997 109.2439988 140.8070012  96.1504997 109.2139988
 139.7960012  95.5474997 110.1659988 140.0333695  95.7865184 109.3646440
 134.0900012 111.5814997 106.1309988 133.4050012 111.5434997 105.4639988
 134.0940012 112.4944997 106.4199988 133.9966998 111.6996733 106.0786771
 141.0760012  97.8424997 106.1329988 141.2540012  97.1964997 106.8159988
 141.0230012  98.6764997 106.5999988 141.0931999  97.8668009 106.2895917
 142.9550012 112.7914997 104.5289988 143.8210012 113.1574997 104.3509988
 142.7080012 112.3514997 103.7149988 143.0402392 112.7821756 104.3946289
 135.3110012  96.3494997 118.9479988 134.9450012  95.5844997 119.3899988
 136.2240012  96.3784997 119.2339988 135.3842736  96.2485640 119.0472502
 137.2840012  95.7004997 120.4839988 138.1820012  95.4264997 120.2989988
 136.8970012  94.9574997 120.9479988 137.3546612  95.5625914 120.5213643
  12.4390012 123.8474997 109.3889988  12.5280012 124.7914997 109.2569988
  11.8010012 123.5724997 108.7309988  12.3649081 123.9394830 109.2819614
  11.3720012 123.1024997 112.8079988  11.3340012 122.4564997 113.5129988
  11.0500012 122.6364997 112.0369988  11.3232333 122.9509408 112.8002978
   3.7410012 122.7174997 114.4009988   3.7820012 122.0914997 115.1239988
   4.4440012 123.3414997 114.5829988   3.8416363 122.7161196 114.5246044
  15.0780012 126.0414997 111.1089988  14.6380012 125.3214997 111.5599988
  15.0650012 126.7624997 111.7389988  15.0160226 126.0403731 111.2558494
   4.6640012 127.1674997 112.9359988   4.2950012 126.3654997 112.5659988
   5.6050012 126.9984997 112.9819988   4.7407289 127.0350153 112.8916316
   1.2740012 120.8274997 108.3289988   0.8270012 121.6734997 108.3099988
   0.7130012 120.2474997 107.8129988   1.1369900 120.8649916 108.2566801
   1.9850012 122.9894997 110.4539988   2.1980012 122.2194997 110.9819988
   2.7230012 123.0784997 109.8509988   2.1139044 122.8961968 110.4447123
  12.1900012 131.1464997 111.3209988  12.8100012 130.4694997 111.0479988
  11.9820012 130.9284997 112.2299988  12.2466726 131.0244800 111.4064812
   9.7620012 125.5354997 113.2139988  10.0660012 124.8494997 112.6189988
  10.4830012 125.6534997 113.8319988   9.9010671 125.4576304 113.2161816
  18.4250012 117.1364997 114.0749988  18.4740012 117.7464997 114.8099988
  18.8500012 117.5974997 113.3519988  18.4891746 117.2823796 114.0779175
  12.9030012 119.9294997 113.5409988  13.0450012 118.9834997 113.5619988
  12.7960012 120.1364997 112.6129988  12.9079919 119.8278246 113.4183408
   6.0570012 118.0304997 110.8139988   6.1010012 118.8904997 110.3949988
   5.6000012 117.4784997 110.1799988   6.0012240 118.0734422 110.6709864
  13.7800012 118.1614997 109.2149988  14.4260012 117.8324997 109.8389988
  14.2900012 118.6794997 108.5919988  13.9374299 118.1864450 109.2162731
   2.6780012 120.4274997 111.5759988   3.3310012 119.8774997 112.0079988
   2.7020012 120.1534997 110.6589988   2.7706683 120.3151466 111.5112123
   7.8340012 121.9774997 110.7909988   8.4500012 121.4514997 111.3009988
   7.2480012 121.3374997 110.3879988   7.8390810 121.8189208 110.8063173
  18.8160012 118.6144997 116.3099988  18.1280012 119.2724997 116.2149988
  18.8320012 118.4174997 117.2469988  18.7239540 118.6779819 116.4235990
   4.8680012 116.9484997 114.8879988   4.6490012 117.4784997 114.1219988
   4.2000012 117.1754997 115.5349988   4.7477600 117.0516906 114.8706379
  12.2370012 126.4484997 108.4319988  11.9410012 126.1264997 107.5809988
  11.9120012 127.3484997 108.4729988  12.1526371 126.5260215 108.3211801
   7.4370012 124.6244997 115.1749988   6.6970012 125.2224997 115.2789988
   8.1510012 125.1784997 114.8599988   7.4322237 124.7812831 115.1466465
  15.5440012 117.4524997 111.1949988  15.3280012 116.6864997 111.7279988
  16.1990012 117.9244997 111.7079988  15.6030632 117.4115889 111.3372861
   4.4610012 118.8404997 112.8399988   5.0750012 119.4734997 113.2129988
   4.9730012 118.3684997 112.1839988   4.6141981 118.8632267 112.8022908
   5.8440012 126.5884997 115.9619988   5.8390012 127.4684997 115.5839988
   4.9910012 126.5054997 116.3869988   5.7279464 126.6976117 115.9677907
   1.9650012 126.2594997 106.7439988   1.6930012 126.4884997 105.8559988
   2.0110012 127.0974997 107.2049988   1.9339482 126.4041318 106.6846273
  15.5900012 127.8814997 113.4569988  14.6490012 127.9394997 113.6189988
  15.8670012 128.7874997 113.3199988  15.4984679 128.0119443 113.4606815
  15.8910012 116.1674997 114.8749988  15.1550012 116.7784997 114.8369988
  16.5740012 116.5824997 114.3479988  15.8826541 116.3071374 114.7985832
   8.8940012 114.2544997 112.3399988   8.7770012 113.3054997 112.2859988
   8.0390012 114.5864997 112.6139988   8.7624212 114.1695571 112.3696497
  13.8420012 129.6624997 110.0819988  14.2680012 128.9554997 109.5969988
  14.1590012 130.4634997 109.6659988  13.9431683 129.6741017 109.9593680
  15.0020012 127.5634997 108.5909988  14.7440012 126.8734997 107.9799988
  15.0730012 127.1204997 109.4369988  14.9762856 127.4092124 108.6216885
  16.6880012 126.1294997 117.0679988  16.8280012 125.5384997 116.3289988
  16.8550012 127.0024997 116.7119988  16.7297411 126.1665428 116.9186894
  18.5300012 122.4694997 115.1339988  17.8770012 123.1644997 115.2239988
  18.9950012 122.6794997 114.3249988  18.5035274 122.5930643 115.0368462
  14.5660012 123.3014997 107.7929988  13.8340012 123.5294997 108.3659988
  15.0140012 122.5874997 108.2469988  14.5262725 123.2362145 107.9328816
  14.4640012 121.4754997 116.8599988  14.5440012 122.2384997 117.4319988
  13.8620012 121.7544997 116.1699988  14.3935756 121.6177134 116.8450589
   6.2120012 123.9314997 109.6749988   5.8810012 123.5614997 108.8569988
   6.8000012 123.2614997 110.0219988   6.2461873 123.7901156 109.6098102
   7.5780012 127.3594997 112.3559988   7.4840012 126.7814997 111.5999988
   8.3080012 126.9884997 112.8529988   7.6637387 127.2301663 112.3195342
   6.5780012 122.7004997 113.3089988   7.1440012 122.8214997 112.5459988
   6.8970012 123.3374997 113.9469988   6.6985474 122.8032219 113.2909862
  12.8870012 128.2034997 114.0429988  12.6470012 128.8654997 114.6909988
  12.6890012 127.3694997 114.4679988  12.8273808 128.1813134 114.1891524
   7.4580012 127.0994997 118.0259988   7.1470012 127.8814997 118.4809988
   6.8080012 126.9464997 117.3399988   7.3275558 127.1859105 117.9955871
   4.3780012 123.2974997 117.2539988   4.4490012 123.9484997 117.9529988
   3.4880012 123.4004997 116.9189988   4.2673005 123.4005427 117.3043495
  11.1640012 129.2004997 108.9129988  11.6380012 129.4954997 109.6899988
  10.6010012 129.9384997 108.6799988  11.1528184 129.3407247 108.9879628
   5.6980012 129.1714997 118.7889988   5.7050012 129.0354997 117.8419988
   4.7820012 129.0534997 119.0409988   5.5751714 129.1369430 118.6934666
  17.1360012 114.2134997 105.2909988  16.2360012 114.3524997 105.5859988
  17.3880012 115.0444997 104.8889988  17.0468702 114.3449074 105.2770205
   5.2020012 123.0014997 107.2639988   4.9100012 123.7694997 106.7739988
   4.5280012 122.3414997 107.1019988   5.0708111 123.0175587 107.1748978
   1.2950012 125.3644997 116.0789988   0.7940012 125.3364997 115.2639988
   1.3000012 124.4584997 116.3889988   1.2270944 125.2382396 116.0093226
   1.0450012 128.1444997 112.9629988   1.9910012 128.0004997 112.9439988
   0.9330012 128.9284997 113.4999988   1.1592727 128.2308046 113.0330072
  19.2430012 128.8104997 118.6459988  19.1940012 127.8554997 118.6089988
  18.4160012 129.0784997 119.0469988  19.1244940 128.7158998 118.6951375
  10.2220012 128.3844997 117.5219988  10.3090012 129.2104997 117.9969988
   9.3580012 128.0544997 117.7709988  10.1171964 128.4529878 117.6206549
  10.6360012 132.1564997 107.3279988  10.5610012 132.0354997 106.3809988
  10.6690012 133.1064997 107.4459988  10.6302068 132.2682646 107.2144967
   4.2890012 130.9454997 109.1089988   4.4420012 130.5974997 109.9869988
   3.4390012 130.5894997 108.8539988   4.1949166 130.8496216 109.1948079
  13.7380012 131.3104997 104.3299988  14.1130012 130.5664997 103.8589988
  13.7420012 131.0404997 105.2489988  13.7899125 131.1720986 104.3896483
  13.4070012 131.2364997 107.0789988  12.4710012 131.3364997 107.2579988
  13.6870012 130.5274997 107.6579988  13.3169553 131.1543406 107.1817087
  16.3950012 120.3034997 119.1259988  15.9880012 120.7844997 118.4049988
  16.4360012 119.3984997 118.8179988  16.3448437 120.2469374 118.9856683
   3.5440012 126.6874997 117.1229988   3.7600012 126.3264997 117.9819988
   2.6890012 126.3134997 116.9129988   3.4579292 126.5874111 117.2123386
   6.1630012 115.1574997 113.1179988   5.3010012 115.0704997 112.7099988
   6.1400012 116.0134997 113.5459988   6.0420409 115.2612883 113.1200589
  10.8260012 114.8794997 116.4929988  11.2460012 114.4644997 117.2459988
   9.8930012 114.7014997 116.6099988  10.7573644 114.7985900 116.6119539
  14.1520012 118.6354997 117.3459988  13.6380012 118.5094997 118.1439988
  13.9970012 119.5474997 117.1019988  14.0606852 118.7416132 117.4222158
  10.4870012 117.3724997 103.7779988  10.2340012 117.3914997 104.7009988
  10.2310012 116.5004997 103.4759988  10.4177481 117.2572558 103.8636175
   6.2540012 120.1234997 114.2129988   5.6120012 120.0824997 114.9219988
   6.2910012 121.0494997 113.9749988   6.1710664 120.2431430 114.2779219
   6.2510012 120.3444997 109.1249988   5.3580012 120.0034997 109.0659988
   6.7010012 119.9674997 108.3689988   6.1898130 120.2469631 109.0147702
  11.7860012 120.7604997 107.9419988  11.3770012 121.5754997 107.6509988
  12.5070012 120.6204997 107.3279988  11.8274537 120.8532018 107.8191342
  10.8880012 120.9354997 119.4299988  10.3260012 120.2314997 119.7509988
  11.7150012 120.8154997 119.8979988  10.9227095 120.8227883 119.5372330
  12.7910012 120.2064997 110.7559988  12.5960012 120.8114997 110.0409988
  12.9720012 119.3724997 110.3219988  12.7887614 120.1766300 110.5994405
   4.0040012 120.4434997 116.0799988   3.9660012 120.8434997 116.9489988
   3.5130012 119.6264997 116.1709988   3.9324684 120.3878069 116.2111059
   0.6120012 117.5594997 109.9309988   1.2430012 117.5304997 110.6499988
   1.0610012 117.1344997 109.1999988   0.7590918 117.4980836 109.9306441
  12.0550012 121.8444997 115.4269988  12.3780012 121.2134997 114.7839988
  11.6150012 121.3094997 116.0879988  12.0397484 121.6858387 115.4283198
   8.8320012 117.7714997 110.2109988   7.9210012 117.8284997 110.4999988
   9.3380012 117.7114997 111.0219988   8.7756899 117.7711941 110.3601184
   3.6610012 119.4004997 109.0379988   2.7710012 119.5004997 108.6979988
   3.9570012 118.5584997 108.6919988   3.5792823 119.3003545 108.9447213
   7.3140012 119.4004997 106.6949988   8.2450012 119.5294997 106.8729988
   7.0990012 120.0704997 106.0449988   7.4124247 119.5086565 106.6315747
  13.2370012 117.0064997 113.4759988  12.5610012 117.1374997 114.1399988
  12.7520012 116.8514997 112.6649988  13.0787146 117.0035157 113.4574469
  16.5250012 132.6784997 119.7519988  16.7250012 133.1024997 118.9179988
  17.1800012 133.0214997 120.3589988  16.6410072 132.7829857 119.7198592
   4.1230012 125.1524997 119.3599988   4.8550012 125.4064997 119.9219988
   3.3430012 125.3564997 119.8759988   4.1177073 125.2148160 119.5066151
  10.1520012 120.5594997 112.0979988  10.7170012 120.0124997 111.5509988
  10.0050012 120.0374997 112.8869988  10.2093380 120.4142259 112.1298695
   5.1540012 116.6954997 108.5169988   4.8370012 115.7934997 108.4809988
   5.9360012 116.6974997 107.9639988   5.2162408 116.5722474 108.4373569
   8.7790012 118.9474997 114.5119988   7.9430012 119.4014997 114.6229988
   9.3030012 119.2234997 115.2639988   8.7355416 119.0468660 114.6288119
   9.3230012 125.1604997 106.1969988   8.5780012 124.6534997 105.8749988
   9.1890012 125.2094997 107.1439988   9.2028776 125.0976940 106.2808647
  16.4730012 124.2934997 114.9839988  17.1150012 124.7504997 114.4399988
  15.6430012 124.4064997 114.5209988  16.4485963 124.3712704 114.8470177
  13.2210012 117.9744997 104.3959988  12.2820012 118.0864997 104.2449988
  13.5180012 118.8314997 104.7029988  13.1327583 118.1055981 104.4168337
  10.8420012 125.3444997 117.4339988  10.4970012 124.9634997 118.2409988
  10.6420012 126.2784997 117.5049988  10.7677527 125.4185135 117.5540689
  13.9390012 119.8414997 106.0569988  14.8310012 119.7044997 106.3759988
  13.9960012 120.6324997 105.5199988  14.0686504 119.9296052 106.0280818
   4.4480012 124.4554997 111.9669988   5.1930012 124.4534997 111.3659988
   4.5260012 123.6324997 112.4479988   4.5604995 124.3438887 111.9498282
   1.4560012 122.9164997 117.2819988   1.6790012 122.4984997 118.1139988
   0.8540012 122.3034997 116.8589988   1.4051759 122.7764668 117.3387022
   8.4720012 122.4334997 119.4949988   8.1760012 122.2674997 118.5999988
   9.4040012 122.2134997 119.4839988   8.5574166 122.3810640 119.3710536
  13.0930012 127.8064997 117.3849988  12.1920012 127.9894997 117.1169988
  13.1270012 128.0654997 118.3049988  12.9743139 127.8665849 117.4728099
  18.7870012 125.8514997 118.5889988  17.9360012 126.0894997 118.2219988
  19.3780012 125.8344997 117.8359988  18.7502487 125.8818258 118.4368893
  14.2800012 123.6454997 113.2379988  13.3510012 123.4134997 113.2109988
  14.7310012 122.8684997 112.9079988  14.2139216 123.5087238 113.1896917
   6.8230012 127.9734997 109.3709988   7.3500012 128.7464997 109.1709988
   5.9430012 128.1984997 109.0689988   6.7762031 128.1097545 109.3027912
   2.5780012 122.8354997 103.9579988   3.1940012 123.4624997 104.3379988
   1.7160012 123.1514997 104.2299988   2.5457698 122.9639430 104.0467183
   8.2500012 125.6364997 108.9469988   8.0090012 126.5614997 108.9889988
   7.5090012 125.1774997 109.3439988   8.1169225 125.7010933 109.0063742
   8.7650012 129.7854997 115.2629988   9.1270012 130.6404997 115.0289988
   9.2960012 129.4934997 116.0029988   8.8864473 129.8631060 115.3310855
   6.9330012 130.6584997 108.4929988   5.9830012 130.7634997 108.5439988
   7.2850012 131.4784997 108.8369988   6.8504195 130.7838800 108.5465502
  12.3090012 125.8844997 114.9629988  11.8830012 125.6574997 115.7899988
  12.8890012 125.1464997 114.7809988  12.3291868 125.7535299 115.0515830
  14.5120012 126.8134997 104.0369988  14.8650012 126.4334997 104.8409988
  13.5630012 126.7204997 104.1239988  14.4320918 126.7488956 104.1588532
  14.9670012 130.4364997 117.4329988  14.3660012 129.8814997 116.9369988
  15.2490012 131.1034997 116.8059988  14.9228804 130.4506625 117.2804849
   3.0900012 117.6694997 116.8399988   2.1970012 118.0084997 116.7719988
   2.9910012 116.8144997 117.2579988   2.9544164 117.6002588 116.8872235
  15.3780012 125.4864997 106.2639988  15.1000012 124.7584997 106.8199988
  16.3050012 125.6054997 106.4689988  15.4653124 125.4028802 106.3678845
   2.7410012 129.4744997 115.2749988   2.9580012 128.5424997 115.2439988
   2.9870012 129.7484997 116.1579988   2.8039549 129.3840636 115.3901763
   8.6030012 127.9254997 102.4839988   8.8420012 127.1774997 101.9369988
   8.3340012 127.5374997 103.3169988   8.5993675 127.7706638 102.5216865
   3.9930012 124.7484997 105.4509988   3.3070012 125.1004997 106.0179988
   4.5150012 125.5114997 105.2039988   3.9696852 124.8998578 105.4952118
  11.8240012 117.4104997 115.7299988  12.5230012 117.4844997 116.3799988
  11.4430012 116.5464997 115.8839988  11.8681767 117.3037624 115.8398322
  12.6090012 117.0624997 106.8269988  12.8290012 117.5344997 106.0239988
  13.1670012 117.4574997 107.4969988  12.7144968 117.1804285 106.8077331
  10.2770012 129.1934997 105.6899988   9.4610012 129.6904997 105.7419988
  10.8070012 129.6684997 105.0499988  10.2369161 129.3257722 105.6105956
   9.8090012 118.7904997 107.6619988  10.6210012 119.2954997 107.7079988
   9.5640012 118.6454997 108.5759988   9.8870520 118.8400375 107.7918517
  10.3440012 119.7764997 116.8459988  10.4630012 120.3504997 117.6039988
  11.0000012 119.0884997 116.9609988  10.4489025 119.7619858 116.9651321
  10.6920012 115.8714997 108.5999988  10.3460012 116.4894997 109.2439988
  11.3510012 116.3724997 108.1179988  10.7336968 116.0236278 108.6229383
   7.6160012 130.2374997 105.6709988   7.7760012 131.0364997 105.1709988
   7.4180012 130.5434997 106.5559988   7.6111637 130.3884020 105.7221144
  16.5490012 117.6834997 117.6809988  15.6320012 117.9464997 117.5939988
  16.8840012 117.6804997 116.7849988  16.4688613 117.7190761 117.5478837
  15.1510012 121.4344997 111.7769988  14.3530012 121.0194997 111.4489988
  15.5960012 120.7434997 112.2679988  15.1019885 121.2843543 111.7984889
  16.2370012 130.6904997 113.3999988  16.0820012 131.3684997 112.7419988
  17.1700012 130.7624997 113.6029988  16.3418657 130.7929546 113.3374360
   3.7330012 114.8084997 112.1369988   3.5040012 114.8674997 111.2089988
   3.2900012 114.0164997 112.4429988   3.6418530 114.7095753 112.0514786
   2.6630012 128.7484997 108.2969988   1.8310012 129.2214997 108.3239988
   3.2090012 129.2584997 107.6989988   2.6230352 128.8821332 108.2198463
   1.9510012 131.3614997 119.6269988   2.4920012 131.1444997 120.3869988
   1.4700012 130.5554997 119.4369988   1.9599951 131.2229270 119.7052576
   6.5490012 130.2804997 121.2469988   7.3160012 129.8214997 121.5879988
   6.5270012 130.0544997 120.3179988   6.6511275 130.1870186 121.1680101
  13.1260012 128.6604997 119.9769988  12.7750012 127.8044997 120.2199988
  13.8520012 128.8034997 120.5839988  13.1760769 128.5625636 120.0923619
  15.2450012 129.6054997 102.8559988  15.5280012 128.8114997 103.3089988
  15.9850012 129.8384997 102.2959988  15.3838006 129.5283376 102.8422715
   1.8580012 125.1714997 120.5809988   2.0020012 124.2694997 120.2949988
   1.0860012 125.4574997 120.0939988   1.7732753 125.0866816 120.4759505
   8.5140012 125.1414997 120.0139988   8.1850012 125.4124997 119.1569988
   8.6660012 124.2004997 119.9269988   8.4894809 125.0513862 119.8848244
  14.2480012 125.0574997 117.3969988  14.9940012 125.6454997 117.2779988
  13.4910012 125.6394997 117.4609988  14.2477820 125.2167143 117.3893590
   2.6910012 122.3714997 120.0009988   3.0990012 121.5144997 119.8799988
   2.4310012 122.3864997 120.9219988   2.7117568 122.2560807 120.1089588
   7.3490012 123.4874997 105.0199988   6.8890012 123.0034997 105.7059988
   7.6040012 122.8194997 104.3839988   7.3204902 123.3308731 105.0279334
   6.6380012 121.3804997 117.3759988   6.0200012 122.0554997 117.6559988
   6.9820012 121.7014997 116.5419988   6.5999132 121.5162411 117.3016262
  11.6580012 123.8524997 120.6529988  12.6110012 123.9354997 120.6259988
  11.4970012 123.1404997 121.2729988  11.7666426 123.7676746 120.7330579
  17.8100012 124.0854997 102.7279988  17.5360012 123.6604997 101.9149988
  17.8490012 125.0164997 102.5109988  17.7777699 124.1532484 102.5873610
   6.9770012 118.7354997 118.4579988   7.1270012 118.0064997 117.8559988
   6.9800012 119.5124997 117.8989988   6.9979302 118.7407851 118.3000692
   7.3900012 117.1054997 115.9509988   7.9260012 117.5564997 115.2989988
   6.5380012 116.9974997 115.5279988   7.3482178 117.1526390 115.8045756
   8.9720012 122.5444997 116.1899988   9.7220012 122.3884997 115.6169988
   8.6330012 123.3964997 115.9149988   9.0288921 122.6382968 116.0743561
  13.3870012 120.3594997 121.2189988  13.5800012 119.4284997 121.1069988
  14.2450012 120.7844997 121.2079988  13.5292934 120.2896531 121.2022031
  14.7040012 123.1484997 119.2959988  14.4230012 123.8574997 118.7179988
  15.6470012 123.0754997 119.1449988  14.7929291 123.2356711 119.1964967
   5.4560012 119.9334997 120.3699988   4.6890012 119.4014997 120.1589988
   6.1350012 119.6234997 119.7699988   5.4427877 119.8188300 120.2600716
   8.1960012 114.5614997 116.3819988   8.0970012 115.5084997 116.2769988
   7.4530012 114.1894997 115.9059988   8.0821184 114.6405863 116.3033621
   9.4600012 118.8834997 119.9459988   9.2240012 118.6634997 120.8469988
   8.6760012 118.6764997 119.4359988   9.3218504 118.8254586 120.0003431
  12.1750012 118.0104997 119.0209988  11.2280012 118.0424997 119.1539988
  12.4880012 117.3854997 119.6749988  12.0876707 117.9303998 119.1276060
  13.8090012 116.6444997 121.0269988  13.7130012 115.6924997 121.0209988
  13.4880012 116.9134997 121.8869988  13.7524070 116.5504035 121.1425441
   3.6360012 117.8544997 120.0739988   3.8480012 117.1474997 119.4639988
   3.5250012 117.4164997 120.9179988   3.6499721 117.6987084 120.1046843
   8.4170012 113.8554997 119.0529988   9.1290012 113.2154997 119.0389988
   8.3160012 114.1224997 118.1399988   8.5008066 113.8040079 118.9275677
   8.7710012 115.5384997 121.1069988   8.6390012 115.0624997 120.2869988
   8.1720012 116.2824997 121.0519988   8.6719071 115.5739618 120.9872886
   0.5350012 132.4504997 108.8439988  -0.1119988 131.9884997 108.3109988
   0.8890012 131.7784997 109.4259988   0.4943849 132.2964723 108.8497959
   1.4050012 130.5314997 110.6479988   1.0700012 129.6514997 110.8199988
   1.6270012 130.8764997 111.5129988   1.3891783 130.4577501 110.7884208
  18.9530012 131.3404997 113.6289988  18.9320012 131.5254997 114.5679988
  19.6440012 131.9094997 113.2879988  19.0434618 131.4426606 113.7113864
  18.5170012 130.9084997 116.5509988  18.0290012 130.1724997 116.1789988
  19.0660012 130.5144997 117.2289988  18.5244820 130.7545889 116.5917813
  16.9670012 126.6974997 121.1889988  16.1010012 126.5924997 121.5829988
  17.3440012 127.4564997 121.6349988  16.8993308 126.7856900 121.3032393
  18.2680012 124.9544997 106.7029988  19.1180012 125.3754997 106.8299988
  18.2740012 124.2144997 107.3099988  18.3851372 124.9120803 106.8024344
  18.6630012 123.0074997 108.5259988  17.9360012 122.5284997 108.9239988
  19.2440012 123.2134997 109.2589988  18.6420473 122.9698103 108.6794528
  18.4220012 125.7924997 113.4739988  19.2550012 125.4144997 113.1939988
  18.5340012 126.7354997 113.3549988  18.5512647 125.8682218 113.4195487
  16.9080012 128.6704997 115.7809988  16.2610012 128.9954997 116.4069988
  16.3910012 128.2304997 115.1069988  16.7494029 128.6555004 115.7755827
  16.4490012 121.5284997 109.0889988  16.2990012 120.5834997 109.0689988
  16.0960012 121.8094997 109.9329988  16.3807448 121.4371481 109.2003705
   1.4850012 123.6064997 113.0999988   1.6690012 123.5244997 112.1639988
   2.3340012 123.4824997 113.5229988   1.6250151 123.5785073 113.0291451
  17.3060012 123.4984997 118.7279988  17.8890012 122.7644997 118.9199988
  17.8700012 124.2704997 118.7749988  17.4619769 123.5024227 118.7606159
  18.8020012 121.4014997 119.4129988  17.9390012 121.0224997 119.2469988
  19.4070012 120.6624997 119.3379988  18.7656119 121.2498268 119.3801528
  16.5270012 117.5564997 102.5859988  17.1380012 117.1854997 103.2229988
  15.6910012 117.1354997 102.7819988  16.4975032 117.4487554 102.6997035
  16.1600012 119.1114997 107.5519988  16.4400012 118.2044997 107.6759988
  16.9190012 119.5454997 107.1629988  16.3009277 119.0460942 107.5163682
  16.7720012 119.6924997 112.9879988  17.7050012 119.9044997 112.9529988
  16.5370012 119.7944997 113.9099988  16.8679244 119.7353100 113.1078892
  16.8010012 120.4294997 115.7639988  15.9580012 120.6974997 116.1299988
  17.2430012 121.2514997 115.5529988  16.7454158 120.5773291 115.7855491
   1.0820012 118.8774997 119.2409988   2.0020012 118.7554997 119.4769988
   0.6330012 118.1274997 119.6299988   1.1471580 118.7593727 119.3259006
  19.0840012 114.4094997 121.1169988  19.4340012 113.7554997 120.5119988
  19.2310012 115.2464997 120.6769988  19.1517887 114.4331548 120.9746858
  16.7730012 116.3744997 107.5999988  16.9560012 115.9254997 108.4259988
  16.1740012 115.7894997 107.1369988  16.7170202 116.2339975 107.6503275
   2.3030012 117.1894997 112.1319988   2.7490012 116.3974997 112.4339988
   2.7700012 117.9054997 112.5619988   2.4270831 117.1780685 112.2314006
   0.6070012 120.1884997 113.2009988   1.0990012 119.9674997 112.4099988
   0.9700012 121.0294997 113.4819988   0.7233126 120.2718357 113.1307531
  18.6040012 116.5184997 119.4659988  17.6860012 116.7894997 119.4309988
  18.7270012 115.9834997 118.6819988  18.4949729 116.4832508 119.3551923
   0.9210012 116.4464997 107.2549988  -0.0039988 116.6554997 107.1259988
   1.3750012 116.9304997 106.5649988   0.8557292 116.5405343 107.1440720
  15.6920012 131.4304997 109.2009988  16.3440012 131.0834997 108.5929988
  16.2020012 131.9194997 109.8469988  15.8502637 131.4490597 109.2050236
   0.8850012 115.1844997 115.5989988   0.2200012 114.9384997 116.2429988
   0.4420012 115.8064997 115.0219988   0.7341318 115.2349410 115.6090898
   3.0770012 128.3594997 119.7439988   2.2560012 128.5344997 119.2829988
   2.8240012 128.2864997 120.6639988   2.9305585 128.3735544 119.8053561
   6.0310012 129.3344997 116.0019988   5.6060012 130.1434997 115.7199988
   6.9350012 129.4194997 115.6999988   6.0949975 129.4569300 115.9224816
  10.3420012 130.7334997 118.9619988  10.5270012 130.3994997 119.8399988
  11.1880012 131.0424997 118.6399988  10.4817539 130.7296047 119.0385605
  12.6870012 132.0194997 118.2059988  13.3640012 131.3864997 117.9659988
  13.0090012 132.4204997 119.0129988  12.8231637 131.9871154 118.2822793
  17.6040012 114.6084997 117.2849988  16.7920012 114.9334997 116.8979988
  17.8370012 113.8484997 116.7519988  17.5242203 114.5502758 117.1598880
   3.4330012 132.5904997 116.0499988   2.7120012 133.0304997 115.5989988
   3.0670012 132.3394997 116.8979988   3.2849651 132.6167242 116.1029640
   5.9000012 132.1904997 115.0799988   5.0350012 132.2624997 115.4839988
   5.8450012 132.7374997 114.2959988   5.7742085 132.2742685 115.0293362
  10.6100012 132.0784997 114.2549988  10.1540012 132.6074997 113.6009988
  10.7730012 132.6814997 114.9799988  10.5696068 132.2324607 114.2634838
  12.9380012 130.9564997 115.1999988  12.0330012 131.1214997 114.9339988
  13.3670012 131.8094997 115.1349988  12.8721324 131.0944339 115.1547976
  15.5420012 132.5264997 115.4949988  15.3600012 133.4424997 115.2849988
  15.7190012 132.1164997 114.6489988  15.5410210 132.5964822 115.3517885
   2.8470012 131.2134997 112.9599988   2.8290012 130.7884997 113.8169988
   3.6520012 130.8954997 112.5509988   2.9533529 131.1123013 113.0220946
   4.9890012 129.9234997 111.6149988   4.7700012 129.0074997 111.7849988
   5.8130012 130.0634997 112.0809988   5.0704420 129.8170520 111.7012774
   7.5260012 130.3934997 112.4639988   7.7390012 129.5054997 112.1769988
   7.5900012 130.3594997 113.4179988   7.5638231 130.2673102 112.5537397
  11.0340012 116.0574997 111.6079988  10.3600012 115.4284997 111.8639988
  11.5980012 115.5734997 111.0049988  11.0179230 115.9058744 111.5615340
  16.1770012 114.1654997 111.7209988  16.7810012 114.7124997 111.2189988
  15.3070012 114.4844997 111.4799988  16.1421208 114.2835137 111.6196886
  17.9040012 115.3034997 110.0539988  18.5160012 114.7894997 109.5269988
  18.2860012 116.1814997 110.0769988  18.0393371 115.3517866 109.9850041
   3.3610012 114.6914997 109.4299988   2.5840012 114.4574997 108.9229988
   3.8910012 113.8944997 109.4389988   3.3262330 114.5516988 109.3617742
   7.9400012 114.6184997 109.2439988   8.8150012 115.0064997 109.2139988
   7.8040012 114.4034997 110.1659988   8.0413695 114.6425184 109.3646440
  13.4970012 114.6484997 110.8929988  13.5730012 114.7434997 109.9429988
  13.2220012 113.7404997 111.0219988  13.4702321 114.5387867 110.7805079
  14.8500012 114.6744997 106.5849988  14.1480012 115.2894997 106.3749988
  14.4060012 113.8364997 106.7159988  14.6936450 114.6455639 106.5739000
   2.0980012 130.4374997 106.1309988   1.4130012 130.3994997 105.4639988
   2.1020012 131.3504997 106.4199988   2.0046998 130.5556733 106.0786771
   9.0840012 116.6984997 106.1329988   9.2620012 116.0524997 106.8159988
   9.0310012 117.5324997 106.5999988   9.1011999 116.7228009 106.2895917
  17.6720012 131.2104997 107.2079988  17.4770012 130.4624997 106.6429988
  17.6330012 131.9684997 106.6249988  17.6400380 131.2106099 107.0518384
   3.3190012 115.2054997 118.9479988   2.9530012 114.4404997 119.3899988
   4.2320012 115.2344997 119.2339988   3.3922736 115.1045640 119.0472502
   5.2920012 114.5564997 120.4839988   6.1900012 114.2824997 120.2989988
   4.9050012 113.8134997 120.9479988   5.3626612 114.4185914 120.5213643
   3.9160012 131.3574997 103.1569988   3.6490012 131.6444997 104.0299988
   4.6880012 130.8114997 103.3089988   3.9837488 131.3230294 103.2971050
  13.7130012 113.8884997 120.6659988  13.7900012 113.4624997 121.5199988
  14.6070012 113.9024997 120.3229988  13.8443428 113.8320879 120.7365310
  16.8890012 129.9614997 119.3579988  16.1070012 129.7754997 118.8379988
  16.8170012 130.8904997 119.5759988  16.7722274 130.0616643 119.3163018
  31.2950012 123.8474997 109.3889988  31.3840012 124.7914997 109.2569988
  30.6570012 123.5724997 108.7309988  31.2209081 123.9394830 109.2819614
  30.2280012 123.1024997 112.8079988  30.1900012 122.4564997 113.5129988
  29.9060012 122.6364997 112.0369988  30.1792333 122.9509408 112.8002978
  22.5970012 122.7174997 114.4009988  22.6380012 122.0914997 115.1239988
  23.3000012 123.3414997 114.5829988  22.6976363 122.7161196 114.5246044
  33.9340012 126.0414997 111.1089988  33.4940012 125.3214997 111.5599988
  33.9210012 126.7624997 111.7389988  33.8720226 126.0403731 111.2558494
  23.5200012 127.1674997 112.9359988  23.1510012 126.3654997 112.5659988
  24.4610012 126.9984997 112.9819988  23.5967289 127.0350153 112.8916316
  20.1300012 120.8274997 108.3289988  19.6830012 121.6734997 108.3099988
  19.5690012 120.2474997 107.8129988  19.9929900 120.8649916 108.2566801
  20.8410012 122.9894997 110.4539988  21.0540012 122.2194997 110.9819988
  21.5790012 123.0784997 109.8509988  20.9699044 122.8961968 110.4447123
  31.0460012 131.1464997 111.3209988  31.6660012 130.4694997 111.0479988
  30.8380012 130.9284997 112.2299988  31.1026726 131.0244800 111.4064812
  28.6180012 125.5354997 113.2139988  28.9220012 124.8494997 112.6189988
  29.3390012 125.6534997 113.8319988  28.7570671 125.4576305 113.2161816
  37.2810012 117.1364997 114.0749988  37.3300012 117.7464997 114.8099988
  37.7060012 117.5974997 113.3519988  37.3451746 117.2823796 114.0779175
  31.7590012 119.9294997 113.5409988  31.9010012 118.9834997 113.5619988
  31.6520012 120.1364997 112.6129988  31.7639919 119.8278246 113.4183408
  24.9130012 118.0304997 110.8139988  24.9570012 118.8904997 110.3949988
  24.4560012 117.4784997 110.1799988  24.8572240 118.0734422 110.6709864
  32.6360012 118.1614997 109.2149988  33.2820012 117.8324997 109.8389988
  33.1460012 118.6794997 108.5919988  32.7934299 118.1864450 109.2162731
  21.5340012 120.4274997 111.5759988  22.1870012 119.8774997 112.0079988
  21.5580012 120.1534997 110.6589988  21.6266683 120.3151466 111.5112123
  26.6900012 121.9774997 110.7909988  27.3060012 121.4514997 111.3009988
  26.1040012 121.3374997 110.3879988  26.6950810 121.8189208 110.8063173
  37.6720012 118.6144997 116.3099988  36.9840012 119.2724997 116.2149988
  37.6880012 118.4174997 117.2469988  37.5799540 118.6779819 116.4235990
  23.7240012 116.9484997 114.8879988  23.5050012 117.4784997 114.1219988
  23.0560012 117.1754997 115.5349988  23.6037600 117.0516906 114.8706379
  31.0930012 126.4484997 108.4319988  30.7970012 126.1264997 107.5809988
  30.7680012 127.3484997 108.4729988  31.0086371 126.5260215 108.3211801
  26.2930012 124.6244997 115.1749988  25.5530012 125.2224997 115.2789988
  27.0070012 125.1784997 114.8599988  26.2882237 124.7812831 115.1466465
  34.4000012 117.4524997 111.1949988  34.1840012 116.6864997 111.7279988
  35.0550012 117.9244997 111.7079988  34.4590632 117.4115889 111.3372861
  23.3170012 118.8404997 112.8399988  23.9310012 119.4734997 113.2129988
  23.8290012 118.3684997 112.1839988  23.4701981 118.8632267 112.8022908
  24.7000012 126.5884997 115.9619988  24.6950012 127.4684997 115.5839988
  23.8470012 126.5054997 116.3869988  24.5839464 126.6976117 115.9677907
  20.8210012 126.2594997 106.7439988  20.5490012 126.4884997 105.8559988
  20.8670012 127.0974997 107.2049988  20.7899482 126.4041318 106.6846273
  34.4460012 127.8814997 113.4569988  33.5050012 127.9394997 113.6189988
  34.7230012 128.7874997 113.3199988  34.3544679 128.0119443 113.4606815
  34.7470012 116.1674997 114.8749988  34.0110012 116.7784997 114.8369988
  35.4300012 116.5824997 114.3479988  34.7386541 116.3071374 114.7985832
  27.7500012 114.2544997 112.3399988  27.6330012 113.3054997 112.2859988
  26.8950012 114.5864997 112.6139988  27.6184212 114.1695571 112.3696497
  32.6980012 129.6624997 110.0819988  33.1240012 128.9554997 109.5969988
  33.0150012 130.4634997 109.6659988  32.7991683 129.6741017 109.9593680
  33.8580012 127.5634997 108.5909988  33.6000012 126.8734997 107.9799988
  33.9290012 127.1204997 109.4369988  33.8322856 127.4092124 108.6216885
  35.5440012 126.1294997 117.0679988  35.6840012 125.5384997 116.3289988
  35.7110012 127.0024997 116.7119988  35.5857411 126.1665428 116.9186894
  30.0170012 123.0914997 106.8409988  29.3050012 123.6264997 106.4889988
  30.7080012 123.1474997 106.1809988  30.0130132 123.1722543 106.7036289
  30.0700012 121.5494997 103.8799988  30.7710012 121.5714997 104.5309988
  30.3730012 120.9214997 103.2229988  30.2068133 121.4677070 103.8803369
  37.3860012 122.4694997 115.1339988  36.7330012 123.1644997 115.2239988
  37.8510012 122.6794997 114.3249988  37.3595274 122.5930643 115.0368462
  33.4220012 123.3014997 107.7929988  32.6900012 123.5294997 108.3659988
  33.8700012 122.5874997 108.2469988  33.3822725 123.2362145 107.9328816
  33.3200012 121.4754997 116.8599988  33.4000012 122.2384997 117.4319988
  32.7180012 121.7544997 116.1699988  33.2495756 121.6177134 116.8450589
  25.0680012 123.9314997 109.6749988  24.7370012 123.5614997 108.8569988
  25.6560012 123.2614997 110.0219988  25.1021873 123.7901156 109.6098102
  26.4340012 127.3594997 112.3559988  26.3400012 126.7814997 111.5999988
  27.1640012 126.9884997 112.8529988  26.5197387 127.2301663 112.3195342
  25.4340012 122.7004997 113.3089988  26.0000012 122.8214997 112.5459988
  25.7530012 123.3374997 113.9469988  25.5545474 122.8032219 113.2909862
  31.7430012 128.2034997 114.0429988  31.5030012 128.8654997 114.6909988
  31.5450012 127.3694997 114.4679988  31.6833808 128.1813134 114.1891524
  26.3140012 127.0994997 118.0259988  26.0030012 127.8814997 118.4809988
  25.6640012 126.9464997 117.3399988  26.1835558 127.1859105 117.9955871
  32.2930012 122.4634997 105.4779988  32.8730012 122.6134997 106.2249988
  32.7070012 122.9344997 104.7539988  32.4282997 122.5476578 105.4824058
  23.2340012 123.2974997 117.2539988  23.3050012 123.9484997 117.9529988
  22.3440012 123.4004997 116.9189988  23.1233005 123.4005427 117.3043495
  30.0200012 129.2004997 108.9129988  30.4940012 129.4954997 109.6899988
  29.4570012 129.9384997 108.6799988  30.0088184 129.3407247 108.9879628
  24.5540012 129.1714997 118.7889988  24.5610012 129.0354997 117.8419988
  23.6380012 129.0534997 119.0409988  24.4311714 129.1369430 118.6934666
  35.9920012 114.2134997 105.2909988  35.0920012 114.3524997 105.5859988
  36.2440012 115.0444997 104.8889988  35.9028702 114.3449074 105.2770205
  24.0580012 123.0014997 107.2639988  23.7660012 123.7694997 106.7739988
  23.3840012 122.3414997 107.1019988  23.9268111 123.0175587 107.1748978
  20.1510012 125.3644997 116.0789988  19.6500012 125.3364997 115.2639988
  20.1560012 124.4584997 116.3889988  20.0830944 125.2382396 116.0093226
  19.9010012 128.1444997 112.9629988  20.8470012 128.0004997 112.9439988
  19.7890012 128.9284997 113.4999988  20.0152727 128.2308046 113.0330072
  38.0990012 128.8104997 118.6459988  38.0500012 127.8554997 118.6089988
  37.2720012 129.0784997 119.0469988  37.9804940 128.7158998 118.6951375
  29.0780012 128.3844997 117.5219988  29.1650012 129.2104997 117.9969988
  28.2140012 128.0544997 117.7709988  28.9731964 128.4529878 117.6206549
  29.4920012 132.1564997 107.3279988  29.4170012 132.0354997 106.3809988
  29.5250012 133.1064997 107.4459988  29.4862068 132.2682646 107.2144967
  23.1450012 130.9454997 109.1089988  23.2980012 130.5974997 109.9869988
  22.2950012 130.5894997 108.8539988  23.0509166 130.8496216 109.1948079
  32.2630012 131.2364997 107.0789988  31.3270012 131.3364997 107.2579988
  32.5430012 130.5274997 107.6579988  32.1729553 131.1543406 107.1817087
  35.2510012 120.3034997 119.1259988  34.8440012 120.7844997 118.4049988
  35.2920012 119.3984997 118.8179988  35.2008437 120.2469374 118.9856683
  22.4000012 126.6874997 117.1229988  22.6160012 126.3264997 117.9819988
  21.5450012 126.3134997 116.9129988  22.3139292 126.5874111 117.2123386
  25.0190012 115.1574997 113.1179988  24.1570012 115.0704997 112.7099988
  24.9960012 116.0134997 113.5459988  24.8980409 115.2612883 113.1200589
  29.6820012 114.8794997 116.4929988  30.1020012 114.4644997 117.2459988
  28.7490012 114.7014997 116.6099988  29.6133644 114.7985900 116.6119539
  33.0080012 118.6354997 117.3459988  32.4940012 118.5094997 118.1439988
  32.8530012 119.5474997 117.1019988  32.9166852 118.7416132 117.4222158
  25.1100012 120.1234997 114.2129988  24.4680012 120.0824997 114.9219988
  25.1470012 121.0494997 113.9749988  25.0270664 120.2431430 114.2779219
  25.1070012 120.3444997 109.1249988  24.2140012 120.0034997 109.0659988
  25.5570012 119.9674997 108.3689988  25.0458130 120.2469631 109.0147702
  30.6420012 120.7604997 107.9419988  30.2330012 121.5754997 107.6509988
  31.3630012 120.6204997 107.3279988  30.6834537 120.8532018 107.8191342
  29.7440012 120.9354997 119.4299988  29.1820012 120.2314997 119.7509988
  30.5710012 120.8154997 119.8979988  29.7787095 120.8227883 119.5372330
  31.6470012 120.2064997 110.7559988  31.4520012 120.8114997 110.0409988
  31.8280012 119.3724997 110.3219988  31.6447614 120.1766300 110.5994405
  22.8600012 120.4434997 116.0799988  22.8220012 120.8434997 116.9489988
  22.3690012 119.6264997 116.1709988  22.7884684 120.3878069 116.2111059
  19.4680012 117.5594997 109.9309988  20.0990012 117.5304997 110.6499988
  19.9170012 117.1344997 109.1999988  19.6150918 117.4980836 109.9306441
  30.9110012 121.8444997 115.4269988  31.2340012 121.2134997 114.7839988
  30.4710012 121.3094997 116.0879988  30.8957484 121.6858387 115.4283198
  27.6880012 117.7714997 110.2109988  26.7770012 117.8284997 110.4999988
  28.1940012 117.7114997 111.0219988  27.6316899 117.7711941 110.3601184
  22.5170012 119.4004997 109.0379988  21.6270012 119.5004997 108.6979988
  22.8130012 118.5584997 108.6919988  22.4352823 119.3003545 108.9447213
  26.1700012 119.4004997 106.6949988  27.1010012 119.5294997 106.8729988
  25.9550012 120.0704997 106.0449988  26.2684247 119.5086565 106.6315747
  32.0930012 117.0064997 113.4759988  31.4170012 117.1374997 114.1399988
  31.6080012 116.8514997 112.6649988  31.9347146 117.0035157 113.4574469
  35.3810012 132.6784997 119.7519988  35.5810012 133.1024997 118.9179988
  36.0360012 133.0214997 120.3589988  35.4970072 132.7829857 119.7198592
  22.9790012 125.1524997 119.3599988  23.7110012 125.4064997 119.9219988
  22.1990012 125.3564997 119.8759988  22.9737073 125.2148160 119.5066151
  29.0080012 120.5594997 112.0979988  29.5730012 120.0124997 111.5509988
  28.8610012 120.0374997 112.8869988  29.0653380 120.4142259 112.1298695
  24.0100012 116.6954997 108.5169988  23.6930012 115.7934997 108.4809988
  24.7920012 116.6974997 107.9639988  24.0722408 116.5722474 108.4373569
  27.6350012 118.9474997 114.5119988  26.7990012 119.4014997 114.6229988
  28.1590012 119.2234997 115.2639988  27.5915416 119.0468660 114.6288119
  28.1790012 125.1604997 106.1969988  27.4340012 124.6534997 105.8749988
  28.0450012 125.2094997 107.1439988  28.0588776 125.0976940 106.2808647
  35.3290012 124.2934997 114.9839988  35.9710012 124.7504997 114.4399988
  34.4990012 124.4064997 114.5209988  35.3045963 124.3712704 114.8470177
  32.0770012 117.9744997 104.3959988  31.1380012 118.0864997 104.2449988
  32.3740012 118.8314997 104.7029988  31.9887583 118.1055981 104.4168337
  29.6980012 125.3444997 117.4339988  29.3530012 124.9634997 118.2409988
  29.4980012 126.2784997 117.5049988  29.6237527 125.4185135 117.5540689
  32.7950012 119.8414997 106.0569988  33.6870012 119.7044997 106.3759988
  32.8520012 120.6324997 105.5199988  32.9246504 119.9296052 106.0280818
  23.3040012 124.4554997 111.9669988  24.0490012 124.4534997 111.3659988
  23.3820012 123.6324997 112.4479988  23.4164995 124.3438887 111.9498282
  30.3050012 126.6194997 105.2229988  30.0090012 127.4454997 105.6039988
  29.6020012 125.9994997 105.4189988  30.1694914 126.6488199 105.3016443
  20.3120012 122.9164997 117.2819988  20.5350012 122.4984997 118.1139988
  19.7100012 122.3034997 116.8589988  20.2611759 122.7764668 117.3387022
  27.3280012 122.4334997 119.4949988  27.0320012 122.2674997 118.5999988
  28.2600012 122.2134997 119.4839988  27.4134166 122.3810640 119.3710536
  31.9490012 127.8064997 117.3849988  31.0480012 127.9894997 117.1169988
  31.9830012 128.0654997 118.3049988  31.8303139 127.8665849 117.4728099
  37.6800012 120.0514997 105.7519988  37.1260012 119.6554997 105.0799988
  37.7800012 120.9614997 105.4739988  37.6177059 120.1203586 105.6224401
  37.6430012 125.8514997 118.5889988  36.7920012 126.0894997 118.2219988
  38.2340012 125.8344997 117.8359988  37.6062487 125.8818258 118.4368893
  35.9750012 128.8374997 106.2169988  35.6020012 128.0114997 106.5259988
  36.2530012 128.6544997 105.3189988  35.9615222 128.6997430 106.1379473
  33.1360012 123.6454997 113.2379988  32.2070012 123.4134997 113.2109988
  33.5870012 122.8684997 112.9079988  33.0699216 123.5087238 113.1896917
  25.6790012 127.9734997 109.3709988  26.2060012 128.7464997 109.1709988
  24.7990012 128.1984997 109.0689988  25.6322031 128.1097545 109.3027912
  27.1060012 125.6364997 108.9469988  26.8650012 126.5614997 108.9889988
  26.3650012 125.1774997 109.3439988  26.9729225 125.7010933 109.0063742
  27.6210012 129.7854997 115.2629988  27.9830012 130.6404997 115.0289988
  28.1520012 129.4934997 116.0029988  27.7424473 129.8631060 115.3310855
  25.7890012 130.6584997 108.4929988  24.8390012 130.7634997 108.5439988
  26.1410012 131.4784997 108.8369988  25.7064195 130.7838800 108.5465502
  31.1650012 125.8844997 114.9629988  30.7390012 125.6574997 115.7899988
  31.7450012 125.1464997 114.7809988  31.1851868 125.7535299 115.0515830
  33.8230012 130.4364997 117.4329988  33.2220012 129.8814997 116.9369988
  34.1050012 131.1034997 116.8059988  33.7788804 130.4506625 117.2804849
  21.9460012 117.6694997 116.8399988  21.0530012 118.0084997 116.7719988
  21.8470012 116.8144997 117.2579988  21.8104164 117.6002588 116.8872235
  34.2340012 125.4864997 106.2639988  33.9560012 124.7584997 106.8199988
  35.1610012 125.6054997 106.4689988  34.3213124 125.4028802 106.3678845
  21.5970012 129.4744997 115.2749988  21.8140012 128.5424997 115.2439988
  21.8430012 129.7484997 116.1579988  21.6599549 129.3840636 115.3901763
  26.3960012 127.4954997 104.9399988  26.5420012 126.9754997 105.7299988
  26.3930012 128.4024997 105.2469988  26.4155792 127.5468842 105.0896117
  22.8490012 124.7484997 105.4509988  22.1630012 125.1004997 106.0179988
  23.3710012 125.5114997 105.2039988  22.8256852 124.8998578 105.4952118
  30.6800012 117.4104997 115.7299988  31.3790012 117.4844997 116.3799988
  30.2990012 116.5464997 115.8839988  30.7241767 117.3037624 115.8398322
  31.4650012 117.0624997 106.8269988  31.6850012 117.5344997 106.0239988
  32.0230012 117.4574997 107.4969988  31.5704968 117.1804285 106.8077331
  29.1330012 129.1934997 105.6899988  28.3170012 129.6904997 105.7419988
  29.6630012 129.6684997 105.0499988  29.0929161 129.3257722 105.6105956
  28.6650012 118.7904997 107.6619988  29.4770012 119.2954997 107.7079988
  28.4200012 118.6454997 108.5759988  28.7430520 118.8400375 107.7918517
  29.2000012 119.7764997 116.8459988  29.3190012 120.3504997 117.6039988
  29.8560012 119.0884997 116.9609988  29.3049025 119.7619858 116.9651321
  29.5480012 115.8714997 108.5999988  29.2020012 116.4894997 109.2439988
  30.2070012 116.3724997 108.1179988  29.5896968 116.0236278 108.6229383
  26.4720012 130.2374997 105.6709988  26.6320012 131.0364997 105.1709988
  26.2740012 130.5434997 106.5559988  26.4671637 130.3884020 105.7221144
  25.2060012 116.9344997 105.2869988  25.1230012 117.8234997 105.6339988
  26.0960012 116.6694997 105.5189988  25.3149469 117.0201430 105.3657626
  35.4050012 117.6834997 117.6809988  34.4880012 117.9464997 117.5939988
  35.7400012 117.6804997 116.7849988  35.3248613 117.7190761 117.5478837
  34.0070012 121.4344997 111.7769988  33.2090012 121.0194997 111.4489988
  34.4520012 120.7434997 112.2679988  33.9579885 121.2843543 111.7984889
  23.4650012 127.3624997 104.3479988  24.0570012 128.0614997 104.6239988
  23.9240012 126.9294997 103.6279988  23.6081142 127.3997049 104.2884830
  35.0930012 130.6904997 113.3999988  34.9380012 131.3684997 112.7419988
  36.0260012 130.7624997 113.6029988  35.1978657 130.7929546 113.3374360
  22.5890012 114.8084997 112.1369988  22.3600012 114.8674997 111.2089988
  22.1460012 114.0164997 112.4429988  22.4978530 114.7095753 112.0514786
  21.5190012 128.7484997 108.2969988  20.6870012 129.2214997 108.3239988
  22.0650012 129.2584997 107.6989988  21.4790352 128.8821332 108.2198463
  20.8070012 131.3614997 119.6269988  21.3480012 131.1444997 120.3869988
  20.3260012 130.5554997 119.4369988  20.8159951 131.2229270 119.7052576
  25.4050012 130.2804997 121.2469988  26.1720012 129.8214997 121.5879988
  25.3830012 130.0544997 120.3179988  25.5071275 130.1870186 121.1680101
  31.9820012 128.6604997 119.9769988  31.6310012 127.8044997 120.2199988
  32.7080012 128.8034997 120.5839988  32.0320769 128.5625636 120.0923619
  20.7140012 125.1714997 120.5809988  20.8580012 124.2694997 120.2949988
  19.9420012 125.4574997 120.0939988  20.6292753 125.0866816 120.4759505
  27.3700012 125.1414997 120.0139988  27.0410012 125.4124997 119.1569988
  27.5220012 124.2004997 119.9269988  27.3454809 125.0513862 119.8848244
  33.1040012 125.0574997 117.3969988  33.8500012 125.6454997 117.2779988
  32.3470012 125.6394997 117.4609988  33.1037820 125.2167143 117.3893590
  21.5470012 122.3714997 120.0009988  21.9550012 121.5144997 119.8799988
  21.2870012 122.3864997 120.9219988  21.5677568 122.2560807 120.1089588
  25.4940012 121.3804997 117.3759988  24.8760012 122.0554997 117.6559988
  25.8380012 121.7014997 116.5419988  25.4559132 121.5162411 117.3016262
  30.5140012 123.8524997 120.6529988  31.4670012 123.9354997 120.6259988
  30.3530012 123.1404997 121.2729988  30.6226426 123.7676746 120.7330579
  25.8330012 118.7354997 118.4579988  25.9830012 118.0064997 117.8559988
  25.8360012 119.5124997 117.8989988  25.8539302 118.7407851 118.3000692
  26.2460012 117.1054997 115.9509988  26.7820012 117.5564997 115.2989988
  25.3940012 116.9974997 115.5279988  26.2042178 117.1526390 115.8045756
  27.8280012 122.5444997 116.1899988  28.5780012 122.3884997 115.6169988
  27.4890012 123.3964997 115.9149988  27.8848921 122.6382968 116.0743561
  32.2430012 120.3594997 121.2189988  32.4360012 119.4284997 121.1069988
  33.1010012 120.7844997 121.2079988  32.3852934 120.2896531 121.2022031
  33.5600012 123.1484997 119.2959988  33.2790012 123.8574997 118.7179988
  34.5030012 123.0754997 119.1449988  33.6489291 123.2356711 119.1964967
  24.3120012 119.9334997 120.3699988  23.5450012 119.4014997 120.1589988
  24.9910012 119.6234997 119.7699988  24.2987877 119.8188300 120.2600716
  27.0520012 114.5614997 116.3819988  26.9530012 115.5084997 116.2769988
  26.3090012 114.1894997 115.9059988  26.9381184 114.6405863 116.3033621
  28.3160012 118.8834997 119.9459988  28.0800012 118.6634997 120.8469988
  27.5320012 118.6764997 119.4359988  28.1778504 118.8254586 120.0003431
  31.0310012 118.0104997 119.0209988  30.0840012 118.0424997 119.1539988
  31.3440012 117.3854997 119.6749988  30.9436707 117.9303998 119.1276060
  32.6650012 116.6444997 121.0269988  32.5690012 115.6924997 121.0209988
  32.3440012 116.9134997 121.8869988  32.6084070 116.5504035 121.1425441
  22.4920012 117.8544997 120.0739988  22.7040012 117.1474997 119.4639988
  22.3810012 117.4164997 120.9179988  22.5059721 117.6987084 120.1046843
  27.2730012 113.8554997 119.0529988  27.9850012 113.2154997 119.0389988
  27.1720012 114.1224997 118.1399988  27.3568066 113.8040079 118.9275677
  27.6270012 115.5384997 121.1069988  27.4950012 115.0624997 120.2869988
  27.0280012 116.2824997 121.0519988  27.5279071 115.5739618 120.9872886
  19.3910012 132.4504997 108.8439988  18.7440012 131.9884997 108.3109988
  19.7450012 131.7784997 109.4259988  19.3503849 132.2964723 108.8497959
  20.2610012 130.5314997 110.6479988  19.9260012 129.6514997 110.8199988
  20.4830012 130.8764997 111.5129988  20.2451783 130.4577500 110.7884208
  37.8090012 131.3404997 113.6289988  37.7880012 131.5254997 114.5679988
  38.5000012 131.9094997 113.2879988  37.8994618 131.4426606 113.7113864
  37.3730012 130.9084997 116.5509988  36.8850012 130.1724997 116.1789988
  37.9220012 130.5144997 117.2289988  37.3804820 130.7545889 116.5917813
  35.8230012 126.6974997 121.1889988  34.9570012 126.5924997 121.5829988
  36.2000012 127.4564997 121.6349988  35.7553308 126.7856900 121.3032393
  37.1240012 124.9544997 106.7029988  37.9740012 125.3754997 106.8299988
  37.1300012 124.2144997 107.3099988  37.2411372 124.9120803 106.8024344
  37.5190012 123.0074997 108.5259988  36.7920012 122.5284997 108.9239988
  38.1000012 123.2134997 109.2589988  37.4980473 122.9698103 108.6794528
  37.2780012 125.7924997 113.4739988  38.1110012 125.4144997 113.1939988
  37.3900012 126.7354997 113.3549988  37.4072647 125.8682218 113.4195487
  35.7640012 128.6704997 115.7809988  35.1170012 128.9954997 116.4069988
  35.2470012 128.2304997 115.1069988  35.6054029 128.6555004 115.7755827
  37.7870012 122.9084997 104.9179988  37.2650012 123.2654997 104.1989988
  37.7540012 123.5834997 105.5959988  37.7111634 123.0485413 104.9113145
  35.3050012 121.5284997 109.0889988  35.1550012 120.5834997 109.0689988
  34.9520012 121.8094997 109.9329988  35.2367448 121.4371481 109.2003705
  20.3410012 123.6064997 113.0999988  20.5250012 123.5244997 112.1639988
  21.1900012 123.4824997 113.5229988  20.4810151 123.5785073 113.0291451
  36.1620012 123.4984997 118.7279988  36.7450012 122.7644997 118.9199988
  36.7260012 124.2704997 118.7749988  36.3179769 123.5024227 118.7606159
  37.6580012 121.4014997 119.4129988  36.7950012 121.0224997 119.2469988
  38.2630012 120.6624997 119.3379988  37.6216119 121.2498268 119.3801528
  35.0160012 119.1114997 107.5519988  35.2960012 118.2044997 107.6759988
  35.7750012 119.5454997 107.1629988  35.1569277 119.0460942 107.5163682
  35.6280012 119.6924997 112.9879988  36.5610012 119.9044997 112.9529988
  35.3930012 119.7944997 113.9099988  35.7239244 119.7353100 113.1078892
  35.6570012 120.4294997 115.7639988  34.8140012 120.6974997 116.1299988
  36.0990012 121.2514997 115.5529988  35.6014158 120.5773291 115.7855491
  19.9380012 118.8774997 119.2409988  20.8580012 118.7554997 119.4769988
  19.4890012 118.1274997 119.6299988  20.0031580 118.7593727 119.3259006
  37.9400012 114.4094997 121.1169988  38.2900012 113.7554997 120.5119988
  38.0870012 115.2464997 120.6769988  38.0077887 114.4331548 120.9746858
  35.6290012 116.3744997 107.5999988  35.8120012 115.9254997 108.4259988
  35.0300012 115.7894997 107.1369988  35.5730202 116.2339975 107.6503275
  21.1590012 117.1894997 112.1319988  21.6050012 116.3974997 112.4339988
  21.6260012 117.9054997 112.5619988  21.2830831 117.1780685 112.2314006
  19.4630012 120.1884997 113.2009988  19.9550012 119.9674997 112.4099988
  19.8260012 121.0294997 113.4819988  19.5793126 120.2718357 113.1307531
  37.4600012 116.5184997 119.4659988  36.5420012 116.7894997 119.4309988
  37.5830012 115.9834997 118.6819988  37.3509729 116.4832508 119.3551923
  19.7770012 116.4464997 107.2549988  18.8520012 116.6554997 107.1259988
  20.2310012 116.9304997 106.5649988  19.7117292 116.5405343 107.1440720
  34.5480012 131.4304997 109.2009988  35.2000012 131.0834997 108.5929988
  35.0580012 131.9194997 109.8469988  34.7062637 131.4490597 109.2050236
  19.7410012 115.1844997 115.5989988  19.0760012 114.9384997 116.2429988
  19.2980012 115.8064997 115.0219988  19.5901318 115.2349410 115.6090898
  21.9330012 128.3594997 119.7439988  21.1120012 128.5344997 119.2829988
  21.6800012 128.2864997 120.6639988  21.7865585 128.3735544 119.8053561
  24.8870012 129.3344997 116.0019988  24.4620012 130.1434997 115.7199988
  25.7910012 129.4194997 115.6999988  24.9509975 129.4569300 115.9224816
  29.1980012 130.7334997 118.9619988  29.3830012 130.3994997 119.8399988
  30.0440012 131.0424997 118.6399988  29.3377539 130.7296047 119.0385605
  31.5430012 132.0194997 118.2059988  32.2200012 131.3864997 117.9659988
  31.8650012 132.4204997 119.0129988  31.6791637 131.9871154 118.2822793
  36.4600012 114.6084997 117.2849988  35.6480012 114.9334997 116.8979988
  36.6930012 113.8484997 116.7519988  36.3802203 114.5502758 117.1598880
  22.2890012 132.5904997 116.0499988  21.5680012 133.0304997 115.5989988
  21.9230012 132.3394997 116.8979988  22.1409651 132.6167242 116.1029640
  24.7560012 132.1904997 115.0799988  23.8910012 132.2624997 115.4839988
  24.7010012 132.7374997 114.2959988  24.6302085 132.2742685 115.0293362
  29.4660012 132.0784997 114.2549988  29.0100012 132.6074997 113.6009988
  29.6290012 132.6814997 114.9799988  29.4256068 132.2324607 114.2634838
  31.7940012 130.9564997 115.1999988  30.8890012 131.1214997 114.9339988
  32.2230012 131.8094997 115.1349988  31.7281324 131.0944339 115.1547976
  34.3980012 132.5264997 115.4949988  34.2160012 133.4424997 115.2849988
  34.5750012 132.1164997 114.6489988  34.3970210 132.5964822 115.3517885
  21.7030012 131.2134997 112.9599988  21.6850012 130.7884997 113.8169988
  22.5080012 130.8954997 112.5509988  21.8093529 131.1123013 113.0220946
  23.8450012 129.9234997 111.6149988  23.6260012 129.0074997 111.7849988
  24.6690012 130.0634997 112.0809988  23.9264420 129.8170520 111.7012773
  26.3820012 130.3934997 112.4639988  26.5950012 129.5054997 112.1769988
  26.4460012 130.3594997 113.4179988  26.4198231 130.2673102 112.5537397
  29.8900012 116.0574997 111.6079988  29.2160012 115.4284997 111.8639988
  30.4540012 115.5734997 111.0049988  29.8739230 115.9058744 111.5615340
  35.0330012 114.1654997 111.7209988  35.6370012 114.7124997 111.2189988
  34.1630012 114.4844997 111.4799988  34.9981208 114.2835137 111.6196886
  36.7600012 115.3034997 110.0539988  37.3720012 114.7894997 109.5269988
  37.1420012 116.1814997 110.0769988  36.8953371 115.3517866 109.9850041
  22.2170012 114.6914997 109.4299988  21.4400012 114.4574997 108.9229988
  22.7470012 113.8944997 109.4389988  22.1822330 114.5516988 109.3617742
  26.7960012 114.6184997 109.2439988  27.6710012 115.0064997 109.2139988
  26.6600012 114.4034997 110.1659988  26.8973695 114.6425184 109.3646440
  32.3530012 114.6484997 110.8929988  32.4290012 114.7434997 109.9429988
  32.0780012 113.7404997 111.0219988  32.3262321 114.5387867 110.7805079
  33.7060012 114.6744997 106.5849988  33.0040012 115.2894997 106.3749988
  33.2620012 113.8364997 106.7159988  33.5496450 114.6455639 106.5739000
  20.9540012 130.4374997 106.1309988  20.2690012 130.3994997 105.4639988
  20.9580012 131.3504997 106.4199988  20.8606998 130.5556733 106.0786771
  27.9400012 116.6984997 106.1329988  28.1180012 116.0524997 106.8159988
  27.8870012 117.5324997 106.5999988  27.9571999 116.7228009 106.2895917
  36.5280012 131.2104997 107.2079988  36.3330012 130.4624997 106.6429988
  36.4890012 131.9684997 106.6249988  36.4960380 131.2106099 107.0518384
  22.1750012 115.2054997 118.9479988  21.8090012 114.4404997 119.3899988
  23.0880012 115.2344997 119.2339988  22.2482736 115.1045640 119.0472502
  24.1480012 114.5564997 120.4839988  25.0460012 114.2824997 120.2989988
  23.7610012 113.8134997 120.9479988  24.2186612 114.4185914 120.5213643
  22.7720012 131.3574997 103.1569988  22.5050012 131.6444997 104.0299988
  23.5440012 130.8114997 103.3089988  22.8397488 131.3230294 103.2971050
  32.5690012 113.8884997 120.6659988  32.6460012 113.4624997 121.5199988
  33.4630012 113.9024997 120.3229988  32.7003428 113.8320879 120.7365310
  35.7450012 129.9614997 119.3579988  34.9630012 129.7754997 118.8379988
  35.6730012 130.8904997 119.5759988  35.6282274 130.0616643 119.3163018
  50.1510012 123.8474997 109.3889988  50.2400012 124.7914997 109.2569988
  49.5130012 123.5724997 108.7309988  50.0769081 123.9394830 109.2819614
  49.0840012 123.1024997 112.8079988  49.0460012 122.4564997 113.5129988
  48.7620012 122.6364997 112.0369988  49.0352333 122.9509408 112.8002978
  41.4530012 122.7174997 114.4009988  41.4940012 122.0914997 115.1239988
  42.1560012 123.3414997 114.5829988  41.5536363 122.7161196 114.5246044
  52.7900012 126.0414997 111.1089988  52.3500012 125.3214997 111.5599988
  52.7770012 126.7624997 111.7389988  52.7280226 126.0403731 111.2558494
  42.3760012 127.1674997 112.9359988  42.0070012 126.3654997 112.5659988
  43.3170012 126.9984997 112.9819988  42.4527289 127.0350153 112.8916316
  38.9860012 120.8274997 108.3289988  38.5390012 121.6734997 108.3099988
  38.4250012 120.2474997 107.8129988  38.8489900 120.8649916 108.2566801
  39.6970012 122.9894997 110.4539988  39.9100012 122.2194997 110.9819988
  40.4350012 123.0784997 109.8509988  39.8259044 122.8961968 110.4447123
  49.9020012 131.1464997 111.3209988  50.5220012 130.4694997 111.0479988
  49.6940012 130.9284997 112.2299988  49.9586726 131.0244800 111.4064812
  47.4740012 125.5354997 113.2139988  47.7780012 124.8494997 112.6189988
  48.1950012 125.6534997 113.8319988  47.6130671 125.4576304 113.2161816
  56.1370012 117.1364997 114.0749988  56.1860012 117.7464997 114.8099988
  56.5620012 117.5974997 113.3519988  56.2011746 117.2823796 114.0779175
  50.6150012 119.9294997 113.5409988  50.7570012 118.9834997 113.5619988
  50.5080012 120.1364997 112.6129988  50.6199919 119.8278246 113.4183408
  43.7690012 118.0304997 110.8139988  43.8130012 118.8904997 110.3949988
  43.3120012 117.4784997 110.1799988  43.7132240 118.0734422 110.6709864
  51.4920012 118.1614997 109.2149988  52.1380012 117.8324997 109.8389988
  52.0020012 118.6794997 108.5919988  51.6494299 118.1864450 109.2162731
  40.3900012 120.4274997 111.5759988  41.0430012 119.8774997 112.0079988
  40.4140012 120.1534997 110.6589988  40.4826683 120.3151466 111.5112123
  45.5460012 121.9774997 110.7909988  46.1620012 121.4514997 111.3009988
  44.9600012 121.3374997 110.3879988  45.5510810 121.8189208 110.8063173
  56.5280012 118.6144997 116.3099988  55.8400012 119.2724997 116.2149988
  56.5440012 118.4174997 117.2469988  56.4359540 118.6779819 116.4235990
  42.5800012 116.9484997 114.8879988  42.3610012 117.4784997 114.1219988
  41.9120012 117.1754997 115.5349988  42.4597600 117.0516906 114.8706379
  49.9490012 126.4484997 108.4319988  49.6530012 126.1264997 107.5809988
  49.6240012 127.3484997 108.4729988  49.8646371 126.5260215 108.3211801
  45.1490012 124.6244997 115.1749988  44.4090012 125.2224997 115.2789988
  45.8630012 125.1784997 114.8599988  45.1442237 124.7812831 115.1466465
  53.2560012 117.4524997 111.1949988  53.0400012 116.6864997 111.7279988
  53.9110012 117.9244997 111.7079988  53.3150632 117.4115889 111.3372861
  42.1730012 118.8404997 112.8399988  42.7870012 119.4734997 113.2129988
  42.6850012 118.3684997 112.1839988  42.3261981 118.8632267 112.8022908
  43.5560012 126.5884997 115.9619988  43.5510012 127.4684997 115.5839988
  42.7030012 126.5054997 116.3869988  43.4399464 126.6976117 115.9677907
  39.6770012 126.2594997 106.7439988  39.4050012 126.4884997 105.8559988
  39.7230012 127.0974997 107.2049988  39.6459482 126.4041318 106.6846273
  53.3020012 127.8814997 113.4569988  52.3610012 127.9394997 113.6189988
  53.5790012 128.7874997 113.3199988  53.2104679 128.0119443 113.4606815
  53.6030012 116.1674997 114.8749988  52.8670012 116.7784997 114.8369988
  54.2860012 116.5824997 114.3479988  53.5946541 116.3071374 114.7985832
  46.6060012 114.2544997 112.3399988  46.4890012 113.3054997 112.2859988
  45.7510012 114.5864997 112.6139988  46.4744212 114.1695571 112.3696497
  51.5540012 129.6624997 110.0819988  51.9800012 128.9554997 109.5969988
  51.8710012 130.4634997 109.6659988  51.6551683 129.6741017 109.9593680
  52.7140012 127.5634997 108.5909988  52.4560012 126.8734997 107.9799988
  52.7850012 127.1204997 109.4369988  52.6882856 127.4092124 108.6216885
  54.4000012 126.1294997 117.0679988  54.5400012 125.5384997 116.3289988
  54.5670012 127.0024997 116.7119988  54.4417411 126.1665428 116.9186894
  48.8730012 123.0914997 106.8409988  48.1610012 123.6264997 106.4889988
  49.5640012 123.1474997 106.1809988  48.8690132 123.1722543 106.7036289
  56.2420012 122.4694997 115.1339988  55.5890012 123.1644997 115.2239988
  56.7070012 122.6794997 114.3249988  56.2155274 122.5930643 115.0368462
  52.2780012 123.3014997 107.7929988  51.5460012 123.5294997 108.3659988
  52.7260012 122.5874997 108.2469988  52.2382725 123.2362145 107.9328816
  52.1760012 121.4754997 116.8599988  52.2560012 122.2384997 117.4319988
  51.5740012 121.7544997 116.1699988  52.1055756 121.6177134 116.8450589
  43.9240012 123.9314997 109.6749988  43.5930012 123.5614997 108.8569988
  44.5120012 123.2614997 110.0219988  43.9581873 123.7901156 109.6098102
  45.2900012 127.3594997 112.3559988  45.1960012 126.7814997 111.5999988
  46.0200012 126.9884997 112.8529988  45.3757387 127.2301663 112.3195342
  44.2900012 122.7004997 113.3089988  44.8560012 122.8214997 112.5459988
  44.6090012 123.3374997 113.9469988  44.4105474 122.8032219 113.2909862
  50.5990012 128.2034997 114.0429988  50.3590012 128.8654997 114.6909988
  50.4010012 127.3694997 114.4679988  50.5393808 128.1813134 114.1891524
  45.1700012 127.0994997 118.0259988  44.8590012 127.8814997 118.4809988
  44.5200012 126.9464997 117.3399988  45.0395558 127.1859105 117.9955871
  42.0900012 123.2974997 117.2539988  42.1610012 123.9484997 117.9529988
  41.2000012 123.4004997 116.9189988  41.9793005 123.4005427 117.3043495
  48.8760012 129.2004997 108.9129988  49.3500012 129.4954997 109.6899988
  48.3130012 129.9384997 108.6799988  48.8648184 129.3407247 108.9879628
  43.4100012 129.1714997 118.7889988  43.4170012 129.0354997 117.8419988
  42.4940012 129.0534997 119.0409988  43.2871714 129.1369430 118.6934666
  54.8480012 114.2134997 105.2909988  53.9480012 114.3524997 105.5859988
  55.1000012 115.0444997 104.8889988  54.7588702 114.3449074 105.2770205
  42.9140012 123.0014997 107.2639988  42.6220012 123.7694997 106.7739988
  42.2400012 122.3414997 107.1019988  42.7828111 123.0175587 107.1748978
  56.0370012 128.5794997 103.6669988  56.1110012 129.5184997 103.8379988
  56.9430012 128.2744997 103.6109988  56.1695100 128.6666722 103.6828119
  39.0070012 125.3644997 116.0789988  38.5060012 125.3364997 115.2639988
  39.0120012 124.4584997 116.3889988  38.9390944 125.2382396 116.0093226
  38.7570012 128.1444997 112.9629988  39.7030012 128.0004997 112.9439988
  38.6450012 128.9284997 113.4999988  38.8712727 128.2308046 113.0330072
  56.9550012 128.8104997 118.6459988  56.9060012 127.8554997 118.6089988
  56.1280012 129.0784997 119.0469988  56.8364940 128.7158998 118.6951375
  47.9340012 128.3844997 117.5219988  48.0210012 129.2104997 117.9969988
  47.0700012 128.0544997 117.7709988  47.8291964 128.4529878 117.6206549
  48.3480012 132.1564997 107.3279988  48.2730012 132.0354997 106.3809988
  48.3810012 133.1064997 107.4459988  48.3422068 132.2682646 107.2144967
  42.0010012 130.9454997 109.1089988  42.1540012 130.5974997 109.9869988
  41.1510012 130.5894997 108.8539988  41.9069166 130.8496216 109.1948079
  51.1190012 131.2364997 107.0789988  50.1830012 131.3364997 107.2579988
  51.3990012 130.5274997 107.6579988  51.0289553 131.1543406 107.1817087
  54.1070012 120.3034997 119.1259988  53.7000012 120.7844997 118.4049988
  54.1480012 119.3984997 118.8179988  54.0568437 120.2469374 118.9856683
  41.2560012 126.6874997 117.1229988  41.4720012 126.3264997 117.9819988
  40.4010012 126.3134997 116.9129988  41.1699292 126.5874111 117.2123386
  43.8750012 115.1574997 113.1179988  43.0130012 115.0704997 112.7099988
  43.8520012 116.0134997 113.5459988  43.7540409 115.2612883 113.1200589
  48.5380012 114.8794997 116.4929988  48.9580012 114.4644997 117.2459988
  47.6050012 114.7014997 116.6099988  48.4693644 114.7985900 116.6119539
  51.8640012 118.6354997 117.3459988  51.3500012 118.5094997 118.1439988
  51.7090012 119.5474997 117.1019988  51.7726852 118.7416132 117.4222158
  48.1990012 117.3724997 103.7779988  47.9460012 117.3914997 104.7009988
  47.9430012 116.5004997 103.4759988  48.1297481 117.2572558 103.8636175
  43.9660012 120.1234997 114.2129988  43.3240012 120.0824997 114.9219988
  44.0030012 121.0494997 113.9749988  43.8830664 120.2431430 114.2779219
  43.9630012 120.3444997 109.1249988  43.0700012 120.0034997 109.0659988
  44.4130012 119.9674997 108.3689988  43.9018130 120.2469631 109.0147702
  49.4980012 120.7604997 107.9419988  49.0890012 121.5754997 107.6509988
  50.2190012 120.6204997 107.3279988  49.5394537 120.8532018 107.8191342
  48.6000012 120.9354997 119.4299988  48.0380012 120.2314997 119.7509988
  49.4270012 120.8154997 119.8979988  48.6347095 120.8227883 119.5372330
  50.5030012 120.2064997 110.7559988  50.3080012 120.8114997 110.0409988
  50.6840012 119.3724997 110.3219988  50.5007614 120.1766300 110.5994405
  41.7160012 120.4434997 116.0799988  41.6780012 120.8434997 116.9489988
  41.2250012 119.6264997 116.1709988  41.6444684 120.3878069 116.2111059
  38.3240012 117.5594997 109.9309988  38.9550012 117.5304997 110.6499988
  38.7730012 117.1344997 109.1999988  38.4710918 117.4980836 109.9306441
  39.5980012 118.3054997 105.3549988  40.0720012 118.8964997 104.7699988
  38.8810012 118.8364997 105.7019988  39.5659341 118.4580867 105.3218836
  49.7670012 121.8444997 115.4269988  50.0900012 121.2134997 114.7839988
  49.3270012 121.3094997 116.0879988  49.7517484 121.6858387 115.4283198
  46.5440012 117.7714997 110.2109988  45.6330012 117.8284997 110.4999988
  47.0500012 117.7114997 111.0219988  46.4876899 117.7711941 110.3601184
  41.3730012 119.4004997 109.0379988  40.4830012 119.5004997 108.6979988
  41.6690012 118.5584997 108.6919988  41.2912823 119.3003546 108.9447213
  45.0260012 119.4004997 106.6949988  45.9570012 119.5294997 106.8729988
  44.8110012 120.0704997 106.0449988  45.1244247 119.5086565 106.6315747
  50.9490012 117.0064997 113.4759988  50.2730012 117.1374997 114.1399988
  50.4640012 116.8514997 112.6649988  50.7907146 117.0035157 113.4574469
  54.2370012 132.6784997 119.7519988  54.4370012 133.1024997 118.9179988
  54.8920012 133.0214997 120.3589988  54.3530072 132.7829857 119.7198592
  41.8350012 125.1524997 119.3599988  42.5670012 125.4064997 119.9219988
  41.0550012 125.3564997 119.8759988  41.8297073 125.2148160 119.5066151
  47.8640012 120.5594997 112.0979988  48.4290012 120.0124997 111.5509988
  47.7170012 120.0374997 112.8869988  47.9213380 120.4142259 112.1298695
  42.8660012 116.6954997 108.5169988  42.5490012 115.7934997 108.4809988
  43.6480012 116.6974997 107.9639988  42.9282408 116.5722474 108.4373569
  46.4910012 118.9474997 114.5119988  45.6550012 119.4014997 114.6229988
  47.0150012 119.2234997 115.2639988  46.4475416 119.0468660 114.6288119
  47.0350012 125.1604997 106.1969988  46.2900012 124.6534997 105.8749988
  46.9010012 125.2094997 107.1439988  46.9148776 125.0976940 106.2808647
  54.1850012 124.2934997 114.9839988  54.8270012 124.7504997 114.4399988
  53.3550012 124.4064997 114.5209988  54.1605963 124.3712704 114.8470177
  48.5540012 125.3444997 117.4339988  48.2090012 124.9634997 118.2409988
  48.3540012 126.2784997 117.5049988  48.4797527 125.4185135 117.5540689
  42.1600012 124.4554997 111.9669988  42.9050012 124.4534997 111.3659988
  42.2380012 123.6324997 112.4479988  42.2724995 124.3438887 111.9498282
  49.1610012 126.6194997 105.2229988  48.8650012 127.4454997 105.6039988
  48.4580012 125.9994997 105.4189988  49.0254914 126.6488199 105.3016443
  39.1680012 122.9164997 117.2819988  39.3910012 122.4984997 118.1139988
  38.5660012 122.3034997 116.8589988  39.1171759 122.7764668 117.3387022
  46.1840012 122.4334997 119.4949988  45.8880012 122.2674997 118.5999988
  47.1160012 122.2134997 119.4839988  46.2694166 122.3810640 119.3710536
  50.8050012 127.8064997 117.3849988  49.9040012 127.9894997 117.1169988
  50.8390012 128.0654997 118.3049988  50.6863139 127.8665849 117.4728099
  56.5360012 120.0514997 105.7519988  55.9820012 119.6554997 105.0799988
  56.6360012 120.9614997 105.4739988  56.4737059 120.1203586 105.6224401
  56.4990012 125.8514997 118.5889988  55.6480012 126.0894997 118.2219988
  57.0900012 125.8344997 117.8359988  56.4622487 125.8818258 118.4368893
  54.8310012 128.8374997 106.2169988  54.4580012 128.0114997 106.5259988
  55.1090012 128.6544997 105.3189988  54.8175222 128.6997430 106.1379473
  51.9920012 123.6454997 113.2379988  51.0630012 123.4134997 113.2109988
  52.4430012 122.8684997 112.9079988  51.9259216 123.5087238 113.1896917
  44.5350012 127.9734997 109.3709988  45.0620012 128.7464997 109.1709988
  43.6550012 128.1984997 109.0689988  44.4882031 128.1097545 109.3027912
  40.2900012 122.8354997 103.9579988  40.9060012 123.4624997 104.3379988
  39.4280012 123.1514997 104.2299988  40.2577698 122.9639430 104.0467183
  45.9620012 125.6364997 108.9469988  45.7210012 126.5614997 108.9889988
  45.2210012 125.1774997 109.3439988  45.8289225 125.7010933 109.0063742
  46.4770012 129.7854997 115.2629988  46.8390012 130.6404997 115.0289988
  47.0080012 129.4934997 116.0029988  46.5984473 129.8631060 115.3310855
  44.6450012 130.6584997 108.4929988  43.6950012 130.7634997 108.5439988
  44.9970012 131.4784997 108.8369988  44.5624195 130.7838800 108.5465502
  50.0210012 125.8844997 114.9629988  49.5950012 125.6574997 115.7899988
  50.6010012 125.1464997 114.7809988  50.0411868 125.7535299 115.0515830
  52.2240012 126.8134997 104.0369988  52.5770012 126.4334997 104.8409988
  51.2750012 126.7204997 104.1239988  52.1440918 126.7488956 104.1588532
  52.6790012 130.4364997 117.4329988  52.0780012 129.8814997 116.9369988
  52.9610012 131.1034997 116.8059988  52.6348804 130.4506625 117.2804849
  40.8020012 117.6694997 116.8399988  39.9090012 118.0084997 116.7719988
  40.7030012 116.8144997 117.2579988  40.6664164 117.6002588 116.8872235
  53.0900012 125.4864997 106.2639988  52.8120012 124.7584997 106.8199988
  54.0170012 125.6054997 106.4689988  53.1773124 125.4028802 106.3678845
  40.4530012 129.4744997 115.2749988  40.6700012 128.5424997 115.2439988
  40.6990012 129.7484997 116.1579988  40.5159549 129.3840636 115.3901763
  46.3150012 127.9254997 102.4839988  46.5540012 127.1774997 101.9369988
  46.0460012 127.5374997 103.3169988  46.3113675 127.7706638 102.5216865
  45.2520012 127.4954997 104.9399988  45.3980012 126.9754997 105.7299988
  45.2490012 128.4024997 105.2469988  45.2715792 127.5468842 105.0896117
  49.5360012 117.4104997 115.7299988  50.2350012 117.4844997 116.3799988
  49.1550012 116.5464997 115.8839988  49.5801767 117.3037624 115.8398322
  50.3210012 117.0624997 106.8269988  50.5410012 117.5344997 106.0239988
  50.8790012 117.4574997 107.4969988  50.4264968 117.1804285 106.8077331
  47.5210012 118.7904997 107.6619988  48.3330012 119.2954997 107.7079988
  47.2760012 118.6454997 108.5759988  47.5990520 118.8400375 107.7918517
  48.0560012 119.7764997 116.8459988  48.1750012 120.3504997 117.6039988
  48.7120012 119.0884997 116.9609988  48.1609025 119.7619858 116.9651321
  48.4040012 115.8714997 108.5999988  48.0580012 116.4894997 109.2439988
  49.0630012 116.3724997 108.1179988  48.4456968 116.0236278 108.6229383
  45.3280012 130.2374997 105.6709988  45.4880012 131.0364997 105.1709988
  45.1300012 130.5434997 106.5559988  45.3231637 130.3884020 105.7221144
  54.2610012 117.6834997 117.6809988  53.3440012 117.9464997 117.5939988
  54.5960012 117.6804997 116.7849988  54.1808613 117.7190761 117.5478837
  52.8630012 121.4344997 111.7769988  52.0650012 121.0194997 111.4489988
  53.3080012 120.7434997 112.2679988  52.8139885 121.2843543 111.7984889
  42.3210012 127.3624997 104.3479988  42.9130012 128.0614997 104.6239988
  42.7800012 126.9294997 103.6279988  42.4641142 127.3997049 104.2884830
  40.6370012 120.0264997 103.4639988  40.5920012 120.9654997 103.6419988
  39.7490012 119.7904997 103.1939988  40.5108574 120.1231892 103.4518912
  53.9490012 130.6904997 113.3999988  53.7940012 131.3684997 112.7419988
  54.8820012 130.7624997 113.6029988  54.0538657 130.7929546 113.3374360
  41.4450012 114.8084997 112.1369988  41.2160012 114.8674997 111.2089988
  41.0020012 114.0164997 112.4429988  41.3538530 114.7095753 112.0514786
  40.3750012 128.7484997 108.2969988  39.5430012 129.2214997 108.3239988
  40.9210012 129.2584997 107.6989988  40.3350352 128.8821332 108.2198463
  39.6630012 131.3614997 119.6269988  40.2040012 131.1444997 120.3869988
  39.1820012 130.5554997 119.4369988  39.6719951 131.2229270 119.7052576
  44.2610012 130.2804997 121.2469988  45.0280012 129.8214997 121.5879988
  44.2390012 130.0544997 120.3179988  44.3631275 130.1870186 121.1680101
  50.8380012 128.6604997 119.9769988  50.4870012 127.8044997 120.2199988
  51.5640012 128.8034997 120.5839988  50.8880769 128.5625636 120.0923619
  39.5700012 125.1714997 120.5809988  39.7140012 124.2694997 120.2949988
  38.7980012 125.4574997 120.0939988  39.4852753 125.0866816 120.4759505
  46.2260012 125.1414997 120.0139988  45.8970012 125.4124997 119.1569988
  46.3780012 124.2004997 119.9269988  46.2014809 125.0513862 119.8848244
  51.9600012 125.0574997 117.3969988  52.7060012 125.6454997 117.2779988
  51.2030012 125.6394997 117.4609988  51.9597820 125.2167143 117.3893590
  40.4030012 122.3714997 120.0009988  40.8110012 121.5144997 119.8799988
  40.1430012 122.3864997 120.9219988  40.4237568 122.2560807 120.1089588
  44.3500012 121.3804997 117.3759988  43.7320012 122.0554997 117.6559988
  44.6940012 121.7014997 116.5419988  44.3119132 121.5162411 117.3016262
  49.3700012 123.8524997 120.6529988  50.3230012 123.9354997 120.6259988
  49.2090012 123.1404997 121.2729988  49.4786426 123.7676746 120.7330579
  44.6890012 118.7354997 118.4579988  44.8390012 118.0064997 117.8559988
  44.6920012 119.5124997 117.8989988  44.7099302 118.7407851 118.3000692
  45.1020012 117.1054997 115.9509988  45.6380012 117.5564997 115.2989988
  44.2500012 116.9974997 115.5279988  45.0602178 117.1526390 115.8045756
  46.6840012 122.5444997 116.1899988  47.4340012 122.3884997 115.6169988
  46.3450012 123.3964997 115.9149988  46.7408921 122.6382968 116.0743561
  51.0990012 120.3594997 121.2189988  51.2920012 119.4284997 121.1069988
  51.9570012 120.7844997 121.2079988  51.2412934 120.2896531 121.2022031
  52.4160012 123.1484997 119.2959988  52.1350012 123.8574997 118.7179988
  53.3590012 123.0754997 119.1449988  52.5049291 123.2356711 119.1964967
  43.1680012 119.9334997 120.3699988  42.4010012 119.4014997 120.1589988
  43.8470012 119.6234997 119.7699988  43.1547877 119.8188300 120.2600716
  45.9080012 114.5614997 116.3819988  45.8090012 115.5084997 116.2769988
  45.1650012 114.1894997 115.9059988  45.7941184 114.6405863 116.3033621
  47.1720012 118.8834997 119.9459988  46.9360012 118.6634997 120.8469988
  46.3880012 118.6764997 119.4359988  47.0338504 118.8254586 120.0003431
  49.8870012 118.0104997 119.0209988  48.9400012 118.0424997 119.1539988
  50.2000012 117.3854997 119.6749988  49.7996707 117.9303998 119.1276060
  51.5210012 116.6444997 121.0269988  51.4250012 115.6924997 121.0209988
  51.2000012 116.9134997 121.8869988  51.4644070 116.5504035 121.1425441
  41.3480012 117.8544997 120.0739988  41.5600012 117.1474997 119.4639988
  41.2370012 117.4164997 120.9179988  41.3619721 117.6987084 120.1046843
  46.1290012 113.8554997 119.0529988  46.8410012 113.2154997 119.0389988
  46.0280012 114.1224997 118.1399988  46.2128066 113.8040079 118.9275677
  46.4830012 115.5384997 121.1069988  46.3510012 115.0624997 120.2869988
  45.8840012 116.2824997 121.0519988  46.3839071 115.5739618 120.9872886
  38.2470012 132.4504997 108.8439988  37.6000012 131.9884997 108.3109988
  38.6010012 131.7784997 109.4259988  38.2063849 132.2964723 108.8497959
  39.1170012 130.5314997 110.6479988  38.7820012 129.6514997 110.8199988
  39.3390012 130.8764997 111.5129988  39.1011783 130.4577500 110.7884208
  56.6650012 131.3404997 113.6289988  56.6440012 131.5254997 114.5679988
  57.3560012 131.9094997 113.2879988  56.7554618 131.4426606 113.7113864
  56.2290012 130.9084997 116.5509988  55.7410012 130.1724997 116.1789988
  56.7780012 130.5144997 117.2289988  56.2364820 130.7545889 116.5917813
  54.6790012 126.6974997 121.1889988  53.8130012 126.5924997 121.5829988
  55.0560012 127.4564997 121.6349988  54.6113308 126.7856900 121.3032393
  55.9800012 124.9544997 106.7029988  56.8300012 125.3754997 106.8299988
  55.9860012 124.2144997 107.3099988  56.0971372 124.9120803 106.8024344
  56.3750012 123.0074997 108.5259988  55.6480012 122.5284997 108.9239988
  56.9560012 123.2134997 109.2589988  56.3540473 122.9698103 108.6794528
  56.1340012 125.7924997 113.4739988  56.9670012 125.4144997 113.1939988
  56.2460012 126.7354997 113.3549988  56.2632647 125.8682218 113.4195487
  54.6200012 128.6704997 115.7809988  53.9730012 128.9954997 116.4069988
  54.1030012 128.2304997 115.1069988  54.4614029 128.6555004 115.7755827
  54.1610012 121.5284997 109.0889988  54.0110012 120.5834997 109.0689988
  53.8080012 121.8094997 109.9329988  54.0927448 121.4371481 109.2003705
  39.1970012 123.6064997 113.0999988  39.3810012 123.5244997 112.1639988
  40.0460012 123.4824997 113.5229988  39.3370151 123.5785073 113.0291451
  55.0180012 123.4984997 118.7279988  55.6010012 122.7644997 118.9199988
  55.5820012 124.2704997 118.7749988  55.1739769 123.5024227 118.7606159
  56.5140012 121.4014997 119.4129988  55.6510012 121.0224997 119.2469988
  57.1190012 120.6624997 119.3379988  56.4776119 121.2498268 119.3801528
  53.8720012 119.1114997 107.5519988  54.1520012 118.2044997 107.6759988
  54.6310012 119.5454997 107.1629988  54.0129277 119.0460942 107.5163682
  54.4840012 119.6924997 112.9879988  55.4170012 119.9044997 112.9529988
  54.2490012 119.7944997 113.9099988  54.5799244 119.7353100 113.1078892
  54.5130012 120.4294997 115.7639988  53.6700012 120.6974997 116.1299988
  54.9550012 121.2514997 115.5529988  54.4574158 120.5773291 115.7855491
  38.7940012 118.8774997 119.2409988  39.7140012 118.7554997 119.4769988
  38.3450012 118.1274997 119.6299988  38.8591580 118.7593727 119.3259006
  56.7960012 114.4094997 121.1169988  57.1460012 113.7554997 120.5119988
  56.9430012 115.2464997 120.6769988  56.8637887 114.4331548 120.9746858
  54.4850012 116.3744997 107.5999988  54.6680012 115.9254997 108.4259988
  53.8860012 115.7894997 107.1369988  54.4290202 116.2339975 107.6503275
  40.0150012 117.1894997 112.1319988  40.4610012 116.3974997 112.4339988
  40.4820012 117.9054997 112.5619988  40.1390831 117.1780685 112.2314006
  38.3190012 120.1884997 113.2009988  38.8110012 119.9674997 112.4099988
  38.6820012 121.0294997 113.4819988  38.4353126 120.2718357 113.1307531
  56.3160012 116.5184997 119.4659988  55.3980012 116.7894997 119.4309988
  56.4390012 115.9834997 118.6819988  56.2069729 116.4832508 119.3551923
  38.6330012 116.4464997 107.2549988  37.7080012 116.6554997 107.1259988
  39.0870012 116.9304997 106.5649988  38.5677292 116.5405343 107.1440720
  53.4040012 131.4304997 109.2009988  54.0560012 131.0834997 108.5929988
  53.9140012 131.9194997 109.8469988  53.5622637 131.4490597 109.2050236
  38.5970012 115.1844997 115.5989988  37.9320012 114.9384997 116.2429988
  38.1540012 115.8064997 115.0219988  38.4461318 115.2349410 115.6090898
  40.7890012 128.3594997 119.7439988  39.9680012 128.5344997 119.2829988
  40.5360012 128.2864997 120.6639988  40.6425585 128.3735544 119.8053561
  43.7430012 129.3344997 116.0019988  43.3180012 130.1434997 115.7199988
  44.6470012 129.4194997 115.6999988  43.8069975 129.4569300 115.9224816
  48.0540012 130.7334997 118.9619988  48.2390012 130.3994997 119.8399988
  48.9000012 131.0424997 118.6399988  48.1937539 130.7296047 119.0385605
  50.3990012 132.0194997 118.2059988  51.0760012 131.3864997 117.9659988
  50.7210012 132.4204997 119.0129988  50.5351637 131.9871154 118.2822793
  55.3160012 114.6084997 117.2849988  54.5040012 114.9334997 116.8979988
  55.5490012 113.8484997 116.7519988  55.2362203 114.5502758 117.1598880
  41.1450012 132.5904997 116.0499988  40.4240012 133.0304997 115.5989988
  40.7790012 132.3394997 116.8979988  40.9969651 132.6167242 116.1029640
  43.6120012 132.1904997 115.0799988  42.7470012 132.2624997 115.4839988
  43.5570012 132.7374997 114.2959988  43.4862085 132.2742685 115.0293362
  48.3220012 132.0784997 114.2549988  47.8660012 132.6074997 113.6009988
  48.4850012 132.6814997 114.9799988  48.2816068 132.2324607 114.2634838
  50.6500012 130.9564997 115.1999988  49.7450012 131.1214997 114.9339988
  51.0790012 131.8094997 115.1349988  50.5841324 131.0944339 115.1547976
  53.2540012 132.5264997 115.4949988  53.0720012 133.4424997 115.2849988
  53.4310012 132.1164997 114.6489988  53.2530210 132.5964822 115.3517885
  40.5590012 131.2134997 112.9599988  40.5410012 130.7884997 113.8169988
  41.3640012 130.8954997 112.5509988  40.6653529 131.1123013 113.0220946
  42.7010012 129.9234997 111.6149988  42.4820012 129.0074997 111.7849988
  43.5250012 130.0634997 112.0809988  42.7824420 129.8170520 111.7012774
  45.2380012 130.3934997 112.4639988  45.4510012 129.5054997 112.1769988
  45.3020012 130.3594997 113.4179988  45.2758232 130.2673102 112.5537397
  48.7460012 116.0574997 111.6079988  48.0720012 115.4284997 111.8639988
  49.3100012 115.5734997 111.0049988  48.7299230 115.9058744 111.5615340
  53.8890012 114.1654997 111.7209988  54.4930012 114.7124997 111.2189988
  53.0190012 114.4844997 111.4799988  53.8541208 114.2835137 111.6196886
  55.6160012 115.3034997 110.0539988  56.2280012 114.7894997 109.5269988
  55.9980012 116.1814997 110.0769988  55.7513371 115.3517866 109.9850041
  41.0730012 114.6914997 109.4299988  40.2960012 114.4574997 108.9229988
  41.6030012 113.8944997 109.4389988  41.0382330 114.5516988 109.3617742
  39.9090012 114.4894997 105.2339988  40.3480012 115.1004997 104.6419988
  39.2760012 115.0274997 105.7079988  39.8834514 114.6459257 105.2170930
  45.6520012 114.6184997 109.2439988  46.5270012 115.0064997 109.2139988
  45.5160012 114.4034997 110.1659988  45.7533695 114.6425184 109.3646440
  51.2090012 114.6484997 110.8929988  51.2850012 114.7434997 109.9429988
  50.9340012 113.7404997 111.0219988  51.1822321 114.5387867 110.7805079
  52.5620012 114.6744997 106.5849988  51.8600012 115.2894997 106.3749988
  52.1180012 113.8364997 106.7159988  52.4056450 114.6455639 106.5739000
  39.8100012 130.4374997 106.1309988  39.1250012 130.3994997 105.4639988
  39.8140012 131.3504997 106.4199988  39.7166998 130.5556733 106.0786771
  46.7960012 116.6984997 106.1329988  46.9740012 116.0524997 106.8159988
  46.7430012 117.5324997 106.5999988  46.8131999 116.7228009 106.2895917
  55.3840012 131.2104997 107.2079988  55.1890012 130.4624997 106.6429988
  55.3450012 131.9684997 106.6249988  55.3520380 131.2106099 107.0518384
  41.0310012 115.2054997 118.9479988  40.6650012 114.4404997 119.3899988
  41.9440012 115.2344997 119.2339988  41.1042736 115.1045640 119.0472502
  43.0040012 114.5564997 120.4839988  43.9020012 114.2824997 120.2989988
  42.6170012 113.8134997 120.9479988  43.0746612 114.4185914 120.5213643
  51.4250012 113.8884997 120.6659988  51.5020012 113.4624997 121.5199988
  52.3190012 113.9024997 120.3229988  51.5563428 113.8320879 120.7365310
  54.6010012 129.9614997 119.3579988  53.8190012 129.7754997 118.8379988
  54.5290012 130.8904997 119.5759988  54.4842274 130.0616643 119.3163018
  69.0070012 123.8474997 109.3889988  69.0960012 124.7914997 109.2569988
  68.3690012 123.5724997 108.7309988  68.9329081 123.9394830 109.2819614
  67.9400012 123.1024997 112.8079988  67.9020012 122.4564997 113.5129988
  67.6180012 122.6364997 112.0369988  67.8912333 122.9509408 112.8002978
  60.3090012 122.7174997 114.4009988  60.3500012 122.0914997 115.1239988
  61.0120012 123.3414997 114.5829988  60.4096363 122.7161196 114.5246044
  71.6460012 126.0414997 111.1089988  71.2060012 125.3214997 111.5599988
  71.6330012 126.7624997 111.7389988  71.5840226 126.0403731 111.2558494
  61.2320012 127.1674997 112.9359988  60.8630012 126.3654997 112.5659988
  62.1730012 126.9984997 112.9819988  61.3087289 127.0350153 112.8916316
  57.8420012 120.8274997 108.3289988  57.3950012 121.6734997 108.3099988
  57.2810012 120.2474997 107.8129988  57.7049900 120.8649916 108.2566801
  58.5530012 122.9894997 110.4539988  58.7660012 122.2194997 110.9819988
  59.2910012 123.0784997 109.8509988  58.6819044 122.8961968 110.4447123
  68.7580012 131.1464997 111.3209988  69.3780012 130.4694997 111.0479988
  68.5500012 130.9284997 112.2299988  68.8146726 131.0244800 111.4064812
  66.3300012 125.5354997 113.2139988  66.6340012 124.8494997 112.6189988
  67.0510012 125.6534997 113.8319988  66.4690671 125.4576305 113.2161816
  74.9930012 117.1364997 114.0749988  75.0420012 117.7464997 114.8099988
  75.4180012 117.5974997 113.3519988  75.0571746 117.2823796 114.0779175
  69.4710012 119.9294997 113.5409988  69.6130012 118.9834997 113.5619988
  69.3640012 120.1364997 112.6129988  69.4759919 119.8278246 113.4183408
  62.6250012 118.0304997 110.8139988  62.6690012 118.8904997 110.3949988
  62.1680012 117.4784997 110.1799988  62.5692240 118.0734422 110.6709864
  70.3480012 118.1614997 109.2149988  70.9940012 117.8324997 109.8389988
  70.8580012 118.6794997 108.5919988  70.5054299 118.1864450 109.2162731
  59.2460012 120.4274997 111.5759988  59.8990012 119.8774997 112.0079988
  59.2700012 120.1534997 110.6589988  59.3386683 120.3151466 111.5112123
  64.4020012 121.9774997 110.7909988  65.0180012 121.4514997 111.3009988
  63.8160012 121.3374997 110.3879988  64.4070810 121.8189208 110.8063173
  75.3840012 118.6144997 116.3099988  74.6960012 119.2724997 116.2149988
  75.4000012 118.4174997 117.2469988  75.2919540 118.6779819 116.4235990
  61.4360012 116.9484997 114.8879988  61.2170012 117.4784997 114.1219988
  60.7680012 117.1754997 115.5349988  61.3157600 117.0516906 114.8706379
  68.8050012 126.4484997 108.4319988  68.5090012 126.1264997 107.5809988
  68.4800012 127.3484997 108.4729988  68.7206371 126.5260215 108.3211801
  64.0050012 124.6244997 115.1749988  63.2650012 125.2224997 115.2789988
  64.7190012 125.1784997 114.8599988  64.0002237 124.7812831 115.1466465
  72.1120012 117.4524997 111.1949988  71.8960012 116.6864997 111.7279988
  72.7670012 117.9244997 111.7079988  72.1710632 117.4115889 111.3372861
  61.0290012 118.8404997 112.8399988  61.6430012 119.4734997 113.2129988
  61.5410012 118.3684997 112.1839988  61.1821981 118.8632267 112.8022908
  62.4120012 126.5884997 115.9619988  62.4070012 127.4684997 115.5839988
  61.5590012 126.5054997 116.3869988  62.2959464 126.6976117 115.9677907
  58.5330012 126.2594997 106.7439988  58.2610012 126.4884997 105.8559988
  58.5790012 127.0974997 107.2049988  58.5019482 126.4041318 106.6846273
  72.1580012 127.8814997 113.4569988  71.2170012 127.9394997 113.6189988
  72.4350012 128.7874997 113.3199988  72.0664679 128.0119443 113.4606815
  72.4590012 116.1674997 114.8749988  71.7230012 116.7784997 114.8369988
  73.1420012 116.5824997 114.3479988  72.4506541 116.3071374 114.7985832
  65.4620012 114.2544997 112.3399988  65.3450012 113.3054997 112.2859988
  64.6070012 114.5864997 112.6139988  65.3304212 114.1695571 112.3696497
  70.4100012 129.6624997 110.0819988  70.8360012 128.9554997 109.5969988
  70.7270012 130.4634997 109.6659988  70.5111683 129.6741017 109.9593680
  71.5700012 127.5634997 108.5909988  71.3120012 126.8734997 107.9799988
  71.6410012 127.1204997 109.4369988  71.5442856 127.4092124 108.6216885
  73.2560012 126.1294997 117.0679988  73.3960012 125.5384997 116.3289988
  73.4230012 127.0024997 116.7119988  73.2977411 126.1665428 116.9186894
  67.7290012 123.0914997 106.8409988  67.0170012 123.6264997 106.4889988
  68.4200012 123.1474997 106.1809988  67.7250132 123.1722543 106.7036289
  75.0980012 122.4694997 115.1339988  74.4450012 123.1644997 115.2239988
  75.5630012 122.6794997 114.3249988  75.0715274 122.5930643 115.0368462
  71.1340012 123.3014997 107.7929988  70.4020012 123.5294997 108.3659988
  71.5820012 122.5874997 108.2469988  71.0942725 123.2362145 107.9328816
  71.0320012 121.4754997 116.8599988  71.1120012 122.2384997 117.4319988
  70.4300012 121.7544997 116.1699988  70.9615756 121.6177134 116.8450589
  62.7800012 123.9314997 109.6749988  62.4490012 123.5614997 108.8569988
  63.3680012 123.2614997 110.0219988  62.8141873 123.7901156 109.6098102
  64.1460012 127.3594997 112.3559988  64.0520012 126.7814997 111.5999988
  64.8760012 126.9884997 112.8529988  64.2317386 127.2301663 112.3195342
  63.1460012 122.7004997 113.3089988  63.7120012 122.8214997 112.5459988
  63.4650012 123.3374997 113.9469988  63.2665474 122.8032219 113.2909862
  69.4550012 128.2034997 114.0429988  69.2150012 128.8654997 114.6909988
  69.2570012 127.3694997 114.4679988  69.3953808 128.1813134 114.1891524
  64.0260012 127.0994997 118.0259988  63.7150012 127.8814997 118.4809988
  63.3760012 126.9464997 117.3399988  63.8955558 127.1859105 117.9955871
  70.0050012 122.4634997 105.4779988  70.5850012 122.6134997 106.2249988
  70.4190012 122.9344997 104.7539988  70.1402997 122.5476578 105.4824058
  60.9460012 123.2974997 117.2539988  61.0170012 123.9484997 117.9529988
  60.0560012 123.4004997 116.9189988  60.8353005 123.4005427 117.3043495
  67.7320012 129.2004997 108.9129988  68.2060012 129.4954997 109.6899988
  67.1690012 129.9384997 108.6799988  67.7208184 129.3407247 108.9879628
  62.2660012 129.1714997 118.7889988  62.2730012 129.0354997 117.8419988
  61.3500012 129.0534997 119.0409988  62.1431714 129.1369430 118.6934666
  61.7700012 123.0014997 107.2639988  61.4780012 123.7694997 106.7739988
  61.0960012 122.3414997 107.1019988  61.6388111 123.0175587 107.1748978
  74.8930012 128.5794997 103.6669988  74.9670012 129.5184997 103.8379988
  75.7990012 128.2744997 103.6109988  75.0255100 128.6666722 103.6828119
  57.8630012 125.3644997 116.0789988  57.3620012 125.3364997 115.2639988
  57.8680012 124.4584997 116.3889988  57.7950944 125.2382396 116.0093226
  57.6130012 128.1444997 112.9629988  58.5590012 128.0004997 112.9439988
  57.5010012 128.9284997 113.4999988  57.7272727 128.2308046 113.0330072
  75.8110012 128.8104997 118.6459988  75.7620012 127.8554997 118.6089988
  74.9840012 129.0784997 119.0469988  75.6924940 128.7158998 118.6951375
  66.7900012 128.3844997 117.5219988  66.8770012 129.2104997 117.9969988
  65.9260012 128.0544997 117.7709988  66.6851964 128.4529878 117.6206549
  67.2040012 132.1564997 107.3279988  67.1290012 132.0354997 106.3809988
  67.2370012 133.1064997 107.4459988  67.1982068 132.2682646 107.2144967
  60.8570012 130.9454997 109.1089988  61.0100012 130.5974997 109.9869988
  60.0070012 130.5894997 108.8539988  60.7629166 130.8496216 109.1948079
  70.3060012 131.3104997 104.3299988  70.6810012 130.5664997 103.8589988
  70.3100012 131.0404997 105.2489988  70.3579125 131.1720986 104.3896483
  69.9750012 131.2364997 107.0789988  69.0390012 131.3364997 107.2579988
  70.2550012 130.5274997 107.6579988  69.8849553 131.1543406 107.1817087
  72.9630012 120.3034997 119.1259988  72.5560012 120.7844997 118.4049988
  73.0040012 119.3984997 118.8179988  72.9128437 120.2469374 118.9856683
  60.1120012 126.6874997 117.1229988  60.3280012 126.3264997 117.9819988
  59.2570012 126.3134997 116.9129988  60.0259292 126.5874111 117.2123386
  62.7310012 115.1574997 113.1179988  61.8690012 115.0704997 112.7099988
  62.7080012 116.0134997 113.5459988  62.6100409 115.2612883 113.1200589
  67.3940012 114.8794997 116.4929988  67.8140012 114.4644997 117.2459988
  66.4610012 114.7014997 116.6099988  67.3253644 114.7985900 116.6119539
  70.7200012 118.6354997 117.3459988  70.2060012 118.5094997 118.1439988
  70.5650012 119.5474997 117.1019988  70.6286852 118.7416132 117.4222158
  62.8220012 120.1234997 114.2129988  62.1800012 120.0824997 114.9219988
  62.8590012 121.0494997 113.9749988  62.7390664 120.2431430 114.2779219
  62.8190012 120.3444997 109.1249988  61.9260012 120.0034997 109.0659988
  63.2690012 119.9674997 108.3689988  62.7578130 120.2469631 109.0147702
  68.3540012 120.7604997 107.9419988  67.9450012 121.5754997 107.6509988
  69.0750012 120.6204997 107.3279988  68.3954537 120.8532018 107.8191342
  67.4560012 120.9354997 119.4299988  66.8940012 120.2314997 119.7509988
  68.2830012 120.8154997 119.8979988  67.4907095 120.8227883 119.5372330
  69.3590012 120.2064997 110.7559988  69.1640012 120.8114997 110.0409988
  69.5400012 119.3724997 110.3219988  69.3567614 120.1766300 110.5994405
  60.5720012 120.4434997 116.0799988  60.5340012 120.8434997 116.9489988
  60.0810012 119.6264997 116.1709988  60.5004684 120.3878069 116.2111059
  63.9380012 117.8174997 102.8789988  63.5070012 117.3724997 103.6089988
  63.2200012 118.1894997 102.3669988  63.7819438 117.8068940 102.9096799
  57.1800012 117.5594997 109.9309988  57.8110012 117.5304997 110.6499988
  57.6290012 117.1344997 109.1999988  57.3270918 117.4980836 109.9306441
  68.6230012 121.8444997 115.4269988  68.9460012 121.2134997 114.7839988
  68.1830012 121.3094997 116.0879988  68.6077484 121.6858387 115.4283198
  65.4000012 117.7714997 110.2109988  64.4890012 117.8284997 110.4999988
  65.9060012 117.7114997 111.0219988  65.3436899 117.7711941 110.3601184
  60.2290012 119.4004997 109.0379988  59.3390012 119.5004997 108.6979988
  60.5250012 118.5584997 108.6919988  60.1472823 119.3003545 108.9447213
  63.8820012 119.4004997 106.6949988  64.8130012 119.5294997 106.8729988
  63.6670012 120.0704997 106.0449988  63.9804247 119.5086565 106.6315747
  69.8050012 117.0064997 113.4759988  69.1290012 117.1374997 114.1399988
  69.3200012 116.8514997 112.6649988  69.6467146 117.0035157 113.4574469
  73.0930012 132.6784997 119.7519988  73.2930012 133.1024997 118.9179988
  73.7480012 133.0214997 120.3589988  73.2090073 132.7829857 119.7198592
  60.6910012 125.1524997 119.3599988  61.4230012 125.4064997 119.9219988
  59.9110012 125.3564997 119.8759988  60.6857073 125.2148160 119.5066151
  66.7200012 120.5594997 112.0979988  67.2850012 120.0124997 111.5509988
  66.5730012 120.0374997 112.8869988  66.7773380 120.4142259 112.1298695
  61.7220012 116.6954997 108.5169988  61.4050012 115.7934997 108.4809988
  62.5040012 116.6974997 107.9639988  61.7842408 116.5722474 108.4373569
  65.3470012 118.9474997 114.5119988  64.5110012 119.4014997 114.6229988
  65.8710012 119.2234997 115.2639988  65.3035416 119.0468660 114.6288119
  65.8910012 125.1604997 106.1969988  65.1460012 124.6534997 105.8749988
  65.7570012 125.2094997 107.1439988  65.7708776 125.0976940 106.2808647
  73.0410012 124.2934997 114.9839988  73.6830012 124.7504997 114.4399988
  72.2110012 124.4064997 114.5209988  73.0165963 124.3712704 114.8470177
  69.7890012 117.9744997 104.3959988  68.8500012 118.0864997 104.2449988
  70.0860012 118.8314997 104.7029988  69.7007583 118.1055981 104.4168337
  67.4100012 125.3444997 117.4339988  67.0650012 124.9634997 118.2409988
  67.2100012 126.2784997 117.5049988  67.3357527 125.4185135 117.5540689
  70.5070012 119.8414997 106.0569988  71.3990012 119.7044997 106.3759988
  70.5640012 120.6324997 105.5199988  70.6366504 119.9296052 106.0280818
  61.0160012 124.4554997 111.9669988  61.7610012 124.4534997 111.3659988
  61.0940012 123.6324997 112.4479988  61.1284995 124.3438887 111.9498282
  68.0170012 126.6194997 105.2229988  67.7210012 127.4454997 105.6039988
  67.3140012 125.9994997 105.4189988  67.8814914 126.6488199 105.3016443
  58.0240012 122.9164997 117.2819988  58.2470012 122.4984997 118.1139988
  57.4220012 122.3034997 116.8589988  57.9731759 122.7764668 117.3387022
  65.0400012 122.4334997 119.4949988  64.7440012 122.2674997 118.5999988
  65.9720012 122.2134997 119.4839988  65.1254166 122.3810640 119.3710536
  69.6610012 127.8064997 117.3849988  68.7600012 127.9894997 117.1169988
  69.6950012 128.0654997 118.3049988  69.5423139 127.8665849 117.4728099
  75.3920012 120.0514997 105.7519988  74.8380012 119.6554997 105.0799988
  75.4920012 120.9614997 105.4739988  75.3297059 120.1203586 105.6224401
  75.3550012 125.8514997 118.5889988  74.5040012 126.0894997 118.2219988
  75.9460012 125.8344997 117.8359988  75.3182487 125.8818258 118.4368893
  73.6870012 128.8374997 106.2169988  73.3140012 128.0114997 106.5259988
  73.9650012 128.6544997 105.3189988  73.6735222 128.6997430 106.1379473
  70.8480012 123.6454997 113.2379988  69.9190012 123.4134997 113.2109988
  71.2990012 122.8684997 112.9079988  70.7819216 123.5087238 113.1896917
  63.3910012 127.9734997 109.3709988  63.9180012 128.7464997 109.1709988
  62.5110012 128.1984997 109.0689988  63.3442031 128.1097545 109.3027912
  64.8180012 125.6364997 108.9469988  64.5770012 126.5614997 108.9889988
  64.0770012 125.1774997 109.3439988  64.6849225 125.7010933 109.0063742
  65.3330012 129.7854997 115.2629988  65.6950012 130.6404997 115.0289988
  65.8640012 129.4934997 116.0029988  65.4544473 129.8631060 115.3310855
  63.5010012 130.6584997 108.4929988  62.5510012 130.7634997 108.5439988
  63.8530012 131.4784997 108.8369988  63.4184195 130.7838800 108.5465502
  68.8770012 125.8844997 114.9629988  68.4510012 125.6574997 115.7899988
  69.4570012 125.1464997 114.7809988  68.8971868 125.7535299 115.0515830
  71.5350012 130.4364997 117.4329988  70.9340012 129.8814997 116.9369988
  71.8170012 131.1034997 116.8059988  71.4908804 130.4506625 117.2804849
  75.5830012 131.2934997 104.2379988  76.3270012 131.8794997 104.0979988
  74.8890012 131.8614997 104.5709988  75.5909899 131.4505798 104.2638778
  59.6580012 117.6694997 116.8399988  58.7650012 118.0084997 116.7719988
  59.5590012 116.8144997 117.2579988  59.5224164 117.6002588 116.8872235
  71.9460012 125.4864997 106.2639988  71.6680012 124.7584997 106.8199988
  72.8730012 125.6054997 106.4689988  72.0333124 125.4028802 106.3678845
  59.3090012 129.4744997 115.2749988  59.5260012 128.5424997 115.2439988
  59.5550012 129.7484997 116.1579988  59.3719549 129.3840636 115.3901763
  68.3920012 117.4104997 115.7299988  69.0910012 117.4844997 116.3799988
  68.0110012 116.5464997 115.8839988  68.4361767 117.3037624 115.8398322
  69.1770012 117.0624997 106.8269988  69.3970012 117.5344997 106.0239988
  69.7350012 117.4574997 107.4969988  69.2824968 117.1804285 106.8077331
  66.8450012 129.1934997 105.6899988  66.0290012 129.6904997 105.7419988
  67.3750012 129.6684997 105.0499988  66.8049161 129.3257722 105.6105956
  66.3770012 118.7904997 107.6619988  67.1890012 119.2954997 107.7079988
  66.1320012 118.6454997 108.5759988  66.4550520 118.8400375 107.7918517
  66.9120012 119.7764997 116.8459988  67.0310012 120.3504997 117.6039988
  67.5680012 119.0884997 116.9609988  67.0169025 119.7619858 116.9651321
  67.2600012 115.8714997 108.5999988  66.9140012 116.4894997 109.2439988
  67.9190012 116.3724997 108.1179988  67.3016968 116.0236278 108.6229383
  62.9180012 116.9344997 105.2869988  62.8350012 117.8234997 105.6339988
  63.8080012 116.6694997 105.5189988  63.0269469 117.0201430 105.3657626
  73.1170012 117.6834997 117.6809988  72.2000012 117.9464997 117.5939988
  73.4520012 117.6804997 116.7849988  73.0368613 117.7190761 117.5478837
  71.7190012 121.4344997 111.7769988  70.9210012 121.0194997 111.4489988
  72.1640012 120.7434997 112.2679988  71.6699885 121.2843543 111.7984889
  59.4930012 120.0264997 103.4639988  59.4480012 120.9654997 103.6419988
  58.6050012 119.7904997 103.1939988  59.3668574 120.1231892 103.4518912
  72.8050012 130.6904997 113.3999988  72.6500012 131.3684997 112.7419988
  73.7380012 130.7624997 113.6029988  72.9098657 130.7929546 113.3374360
  60.3010012 114.8084997 112.1369988  60.0720012 114.8674997 111.2089988
  59.8580012 114.0164997 112.4429988  60.2098530 114.7095753 112.0514786
  59.2310012 128.7484997 108.2969988  58.3990012 129.2214997 108.3239988
  59.7770012 129.2584997 107.6989988  59.1910352 128.8821332 108.2198463
  58.5190012 131.3614997 119.6269988  59.0600012 131.1444997 120.3869988
  58.0380012 130.5554997 119.4369988  58.5279951 131.2229270 119.7052576
  63.1170012 130.2804997 121.2469988  63.8840012 129.8214997 121.5879988
  63.0950012 130.0544997 120.3179988  63.2191275 130.1870186 121.1680101
  69.6940012 128.6604997 119.9769988  69.3430012 127.8044997 120.2199988
  70.4200012 128.8034997 120.5839988  69.7440769 128.5625636 120.0923619
  58.4260012 125.1714997 120.5809988  58.5700012 124.2694997 120.2949988
  57.6540012 125.4574997 120.0939988  58.3412753 125.0866816 120.4759505
  65.0820012 125.1414997 120.0139988  64.7530012 125.4124997 119.1569988
  65.2340012 124.2004997 119.9269988  65.0574809 125.0513862 119.8848244
  70.8160012 125.0574997 117.3969988  71.5620012 125.6454997 117.2779988
  70.0590012 125.6394997 117.4609988  70.8157820 125.2167143 117.3893590
  59.2590012 122.3714997 120.0009988  59.6670012 121.5144997 119.8799988
  58.9990012 122.3864997 120.9219988  59.2797568 122.2560807 120.1089588
  63.9170012 123.4874997 105.0199988  63.4570012 123.0034997 105.7059988
  64.1720012 122.8194997 104.3839988  63.8884902 123.3308731 105.0279334
  63.2060012 121.3804997 117.3759988  62.5880012 122.0554997 117.6559988
  63.5500012 121.7014997 116.5419988  63.1679132 121.5162411 117.3016262
  68.2260012 123.8524997 120.6529988  69.1790012 123.9354997 120.6259988
  68.0650012 123.1404997 121.2729988  68.3346426 123.7676746 120.7330579
  63.5450012 118.7354997 118.4579988  63.6950012 118.0064997 117.8559988
  63.5480012 119.5124997 117.8989988  63.5659302 118.7407851 118.3000692
  63.9580012 117.1054997 115.9509988  64.4940012 117.5564997 115.2989988
  63.1060012 116.9974997 115.5279988  63.9162178 117.1526390 115.8045756
  65.5400012 122.5444997 116.1899988  66.2900012 122.3884997 115.6169988
  65.2010012 123.3964997 115.9149988  65.5968921 122.6382968 116.0743561
  69.9550012 120.3594997 121.2189988  70.1480012 119.4284997 121.1069988
  70.8130012 120.7844997 121.2079988  70.0972934 120.2896531 121.2022031
  71.2720012 123.1484997 119.2959988  70.9910012 123.8574997 118.7179988
  72.2150012 123.0754997 119.1449988  71.3609291 123.2356711 119.1964967
  62.0240012 119.9334997 120.3699988  61.2570012 119.4014997 120.1589988
  62.7030012 119.6234997 119.7699988  62.0107877 119.8188300 120.2600716
  64.7640012 114.5614997 116.3819988  64.6650012 115.5084997 116.2769988
  64.0210012 114.1894997 115.9059988  64.6501184 114.6405863 116.3033621
  66.0280012 118.8834997 119.9459988  65.7920012 118.6634997 120.8469988
  65.2440012 118.6764997 119.4359988  65.8898504 118.8254586 120.0003431
  68.7430012 118.0104997 119.0209988  67.7960012 118.0424997 119.1539988
  69.0560012 117.3854997 119.6749988  68.6556707 117.9303998 119.1276060
  70.3770012 116.6444997 121.0269988  70.2810012 115.6924997 121.0209988
  70.0560012 116.9134997 121.8869988  70.3204070 116.5504035 121.1425441
  60.2040012 117.8544997 120.0739988  60.4160012 117.1474997 119.4639988
  60.0930012 117.4164997 120.9179988  60.2179721 117.6987084 120.1046843
  64.9850012 113.8554997 119.0529988  65.6970012 113.2154997 119.0389988
  64.8840012 114.1224997 118.1399988  65.0688066 113.8040079 118.9275677
  65.3390012 115.5384997 121.1069988  65.2070012 115.0624997 120.2869988
  64.7400012 116.2824997 121.0519988  65.2399071 115.5739618 120.9872886
  64.8850012 132.4214997 104.2829988  65.8180012 132.5794997 104.4269988
  64.6210012 133.0964997 103.6589988  64.9769888 132.5344510 104.2182842
  57.1030012 132.4504997 108.8439988  56.4560012 131.9884997 108.3109988
  57.4570012 131.7784997 109.4259988  57.0623849 132.2964723 108.8497959
  57.9730012 130.5314997 110.6479988  57.6380012 129.6514997 110.8199988
  58.1950012 130.8764997 111.5129988  57.9571783 130.4577500 110.7884208
  75.5210012 131.3404997 113.6289988  75.5000012 131.5254997 114.5679988
  76.2120012 131.9094997 113.2879988  75.6114618 131.4426606 113.7113864
  75.0850012 130.9084997 116.5509988  74.5970012 130.1724997 116.1789988
  75.6340012 130.5144997 117.2289988  75.0924820 130.7545889 116.5917813
  73.5350012 126.6974997 121.1889988  72.6690012 126.5924997 121.5829988
  73.9120012 127.4564997 121.6349988  73.4673308 126.7856900 121.3032393
  74.8360012 124.9544997 106.7029988  75.6860012 125.3754997 106.8299988
  74.8420012 124.2144997 107.3099988  74.9531372 124.9120803 106.8024344
  75.2310012 123.0074997 108.5259988  74.5040012 122.5284997 108.9239988
  75.8120012 123.2134997 109.2589988  75.2100473 122.9698103 108.6794528
  74.9900012 125.7924997 113.4739988  75.8230012 125.4144997 113.1939988
  75.1020012 126.7354997 113.3549988  75.1192647 125.8682218 113.4195487
  73.4760012 128.6704997 115.7809988  72.8290012 128.9954997 116.4069988
  72.9590012 128.2304997 115.1069988  73.3174029 128.6555004 115.7755827
  73.8480012 120.1484997 103.4679988  73.9440012 120.8154997 102.7879988
  73.7080012 119.3324997 102.9869988  73.8422272 120.1295655 103.3098347
  73.0170012 121.5284997 109.0889988  72.8670012 120.5834997 109.0689988
  72.6640012 121.8094997 109.9329988  72.9487448 121.4371481 109.2003705
  58.0530012 123.6064997 113.0999988  58.2370012 123.5244997 112.1639988
  58.9020012 123.4824997 113.5229988  58.1930151 123.5785073 113.0291451
  73.8740012 123.4984997 118.7279988  74.4570012 122.7644997 118.9199988
  74.4380012 124.2704997 118.7749988  74.0299769 123.5024227 118.7606159
  75.3700012 121.4014997 119.4129988  74.5070012 121.0224997 119.2469988
  75.9750012 120.6624997 119.3379988  75.3336119 121.2498268 119.3801528
  72.7280012 119.1114997 107.5519988  73.0080012 118.2044997 107.6759988
  73.4870012 119.5454997 107.1629988  72.8689277 119.0460942 107.5163682
  73.3400012 119.6924997 112.9879988  74.2730012 119.9044997 112.9529988
  73.1050012 119.7944997 113.9099988  73.4359244 119.7353100 113.1078892
  73.3690012 120.4294997 115.7639988  72.5260012 120.6974997 116.1299988
  73.8110012 121.2514997 115.5529988  73.3134158 120.5773291 115.7855491
  57.6500012 118.8774997 119.2409988  58.5700012 118.7554997 119.4769988
  57.2010012 118.1274997 119.6299988  57.7151580 118.7593727 119.3259006
  75.6520012 114.4094997 121.1169988  76.0020012 113.7554997 120.5119988
  75.7990012 115.2464997 120.6769988  75.7197887 114.4331548 120.9746858
  73.3410012 116.3744997 107.5999988  73.5240012 115.9254997 108.4259988
  72.7420012 115.7894997 107.1369988  73.2850202 116.2339975 107.6503275
  58.8710012 117.1894997 112.1319988  59.3170012 116.3974997 112.4339988
  59.3380012 117.9054997 112.5619988  58.9950831 117.1780685 112.2314006
  57.1750012 120.1884997 113.2009988  57.6670012 119.9674997 112.4099988
  57.5380012 121.0294997 113.4819988  57.2913126 120.2718357 113.1307531
  75.1720012 116.5184997 119.4659988  74.2540012 116.7894997 119.4309988
  75.2950012 115.9834997 118.6819988  75.0629729 116.4832508 119.3551923
  57.4890012 116.4464997 107.2549988  56.5640012 116.6554997 107.1259988
  57.9430012 116.9304997 106.5649988  57.4237292 116.5405343 107.1440720
  72.2600012 131.4304997 109.2009988  72.9120012 131.0834997 108.5929988
  72.7700012 131.9194997 109.8469988  72.4182637 131.4490597 109.2050236
  57.4530012 115.1844997 115.5989988  56.7880012 114.9384997 116.2429988
  57.0100012 115.8064997 115.0219988  57.3021318 115.2349410 115.6090898
  59.6450012 128.3594997 119.7439988  58.8240012 128.5344997 119.2829988
  59.3920012 128.2864997 120.6639988  59.4985585 128.3735544 119.8053561
  62.5990012 129.3344997 116.0019988  62.1740012 130.1434997 115.7199988
  63.5030012 129.4194997 115.6999988  62.6629975 129.4569300 115.9224816
  66.9100012 130.7334997 118.9619988  67.0950012 130.3994997 119.8399988
  67.7560012 131.0424997 118.6399988  67.0497539 130.7296047 119.0385605
  69.2550012 132.0194997 118.2059988  69.9320012 131.3864997 117.9659988
  69.5770012 132.4204997 119.0129988  69.3911637 131.9871154 118.2822793
  74.1720012 114.6084997 117.2849988  73.3600012 114.9334997 116.8979988
  74.4050012 113.8484997 116.7519988  74.0922203 114.5502758 117.1598880
  60.0010012 132.5904997 116.0499988  59.2800012 133.0304997 115.5989988
  59.6350012 132.3394997 116.8979988  59.8529651 132.6167242 116.1029640
  62.4680012 132.1904997 115.0799988  61.6030012 132.2624997 115.4839988
  62.4130012 132.7374997 114.2959988  62.3422085 132.2742685 115.0293362
  67.1780012 132.0784997 114.2549988  66.7220012 132.6074997 113.6009988
  67.3410012 132.6814997 114.9799988  67.1376068 132.2324607 114.2634838
  69.5060012 130.9564997 115.1999988  68.6010012 131.1214997 114.9339988
  69.9350012 131.8094997 115.1349988  69.4401324 131.0944339 115.1547976
  72.1100012 132.5264997 115.4949988  71.9280012 133.4424997 115.2849988
  72.2870012 132.1164997 114.6489988  72.1090210 132.5964822 115.3517885
  59.4150012 131.2134997 112.9599988  59.3970012 130.7884997 113.8169988
  60.2200012 130.8954997 112.5509988  59.5213529 131.1123013 113.0220946
  61.5570012 129.9234997 111.6149988  61.3380012 129.0074997 111.7849988
  62.3810012 130.0634997 112.0809988  61.6384420 129.8170520 111.7012774
  64.0940012 130.3934997 112.4639988  64.3070012 129.5054997 112.1769988
  64.1580012 130.3594997 113.4179988  64.1318232 130.2673102 112.5537397
  67.6020012 116.0574997 111.6079988  66.9280012 115.4284997 111.8639988
  68.1660012 115.5734997 111.0049988  67.5859230 115.9058744 111.5615340
  72.7450012 114.1654997 111.7209988  73.3490012 114.7124997 111.2189988
  71.8750012 114.4844997 111.4799988  72.7101208 114.2835137 111.6196886
  74.4720012 115.3034997 110.0539988  75.0840012 114.7894997 109.5269988
  74.8540012 116.1814997 110.0769988  74.6073371 115.3517866 109.9850041
  59.9290012 114.6914997 109.4299988  59.1520012 114.4574997 108.9229988
  60.4590012 113.8944997 109.4389988  59.8942330 114.5516988 109.3617742
  58.7650012 114.4894997 105.2339988  59.2040012 115.1004997 104.6419988
  58.1320012 115.0274997 105.7079988  58.7394514 114.6459257 105.2170930
  64.5080012 114.6184997 109.2439988  65.3830012 115.0064997 109.2139988
  64.3720012 114.4034997 110.1659988  64.6093695 114.6425184 109.3646440
  70.0650012 114.6484997 110.8929988  70.1410012 114.7434997 109.9429988
  69.7900012 113.7404997 111.0219988  70.0382321 114.5387867 110.7805079
  71.4180012 114.6744997 106.5849988  70.7160012 115.2894997 106.3749988
  70.9740012 113.8364997 106.7159988  71.2616450 114.6455639 106.5739000
  58.6660012 130.4374997 106.1309988  57.9810012 130.3994997 105.4639988
  58.6700012 131.3504997 106.4199988  58.5726998 130.5556733 106.0786771
  65.6520012 116.6984997 106.1329988  65.8300012 116.0524997 106.8159988
  65.5990012 117.5324997 106.5999988  65.6691999 116.7228009 106.2895917
  67.5310012 131.6474997 104.5289988  68.3970012 132.0134997 104.3509988
  67.2840012 131.2074997 103.7149988  67.6162392 131.6381756 104.3946289
  74.2400012 131.2104997 107.2079988  74.0450012 130.4624997 106.6429988
  74.2010012 131.9684997 106.6249988  74.2080380 131.2106099 107.0518384
  59.8870012 115.2054997 118.9479988  59.5210012 114.4404997 119.3899988
  60.8000012 115.2344997 119.2339988  59.9602736 115.1045640 119.0472502
  61.8600012 114.5564997 120.4839988  62.7580012 114.2824997 120.2989988
  61.4730012 113.8134997 120.9479988  61.9306612 114.4185914 120.5213643
  60.4840012 131.3574997 103.1569988  60.2170012 131.6444997 104.0299988
  61.2560012 130.8114997 103.3089988  60.5517488 131.3230294 103.2971050
  70.2810012 113.8884997 120.6659988  70.3580012 113.4624997 121.5199988
  71.1750012 113.9024997 120.3229988  70.4123428 113.8320879 120.7365310
  73.4570012 129.9614997 119.3579988  72.6750012 129.7754997 118.8379988
  73.3850012 130.8904997 119.5759988  73.3402274 130.0616643 119.3163018
  87.8630012 123.8474997 109.3889988  87.9520012 124.7914997 109.2569988
  87.2250012 123.5724997 108.7309988  87.7889081 123.9394830 109.2819614
  86.7960012 123.1024997 112.8079988  86.7580012 122.4564997 113.5129988
  86.4740012 122.6364997 112.0369988  86.7472333 122.9509408 112.8002978
  79.1650012 122.7174997 114.4009988  79.2060012 122.0914997 115.1239988
  79.8680012 123.3414997 114.5829988  79.2656363 122.7161196 114.5246044
  90.5020012 126.0414997 111.1089988  90.0620012 125.3214997 111.5599988
  90.4890012 126.7624997 111.7389988  90.4400226 126.0403731 111.2558494
  80.0880012 127.1674997 112.9359988  79.7190012 126.3654997 112.5659988
  81.0290012 126.9984997 112.9819988  80.1647289 127.0350153 112.8916316
  76.6980012 120.8274997 108.3289988  76.2510012 121.6734997 108.3099988
  76.1370012 120.2474997 107.8129988  76.5609900 120.8649916 108.2566801
  77.4090012 122.9894997 110.4539988  77.6220012 122.2194997 110.9819988
  78.1470012 123.0784997 109.8509988  77.5379044 122.8961968 110.4447123
  87.6140012 131.1464997 111.3209988  88.2340012 130.4694997 111.0479988
  87.4060012 130.9284997 112.2299988  87.6706726 131.0244800 111.4064812
  85.1860012 125.5354997 113.2139988  85.4900012 124.8494997 112.6189988
  85.9070012 125.6534997 113.8319988  85.3250671 125.4576305 113.2161816
  93.8490012 117.1364997 114.0749988  93.8980012 117.7464997 114.8099988
  94.2740012 117.5974997 113.3519988  93.9131746 117.2823796 114.0779175
  88.3270012 119.9294997 113.5409988  88.4690012 118.9834997 113.5619988
  88.2200012 120.1364997 112.6129988  88.3319919 119.8278246 113.4183408
  81.4810012 118.0304997 110.8139988  81.5250012 118.8904997 110.3949988
  81.0240012 117.4784997 110.1799988  81.4252240 118.0734422 110.6709864
  89.2040012 118.1614997 109.2149988  89.8500012 117.8324997 109.8389988
  89.7140012 118.6794997 108.5919988  89.3614299 118.1864450 109.2162731
  78.1020012 120.4274997 111.5759988  78.7550012 119.8774997 112.0079988
  78.1260012 120.1534997 110.6589988  78.1946683 120.3151466 111.5112123
  83.2580012 121.9774997 110.7909988  83.8740012 121.4514997 111.3009988
  82.6720012 121.3374997 110.3879988  83.2630810 121.8189208 110.8063173
  94.2400012 118.6144997 116.3099988  93.5520012 119.2724997 116.2149988
  94.2560012 118.4174997 117.2469988  94.1479540 118.6779819 116.4235990
  80.2920012 116.9484997 114.8879988  80.0730012 117.4784997 114.1219988
  79.6240012 117.1754997 115.5349988  80.1717600 117.0516906 114.8706379
  87.6610012 126.4484997 108.4319988  87.3650012 126.1264997 107.5809988
  87.3360012 127.3484997 108.4729988  87.5766371 126.5260215 108.3211801
  82.8610012 124.6244997 115.1749988  82.1210012 125.2224997 115.2789988
  83.5750012 125.1784997 114.8599988  82.8562237 124.7812831 115.1466465
  90.9680012 117.4524997 111.1949988  90.7520012 116.6864997 111.7279988
  91.6230012 117.9244997 111.7079988  91.0270632 117.4115889 111.3372861
  79.8850012 118.8404997 112.8399988  80.4990012 119.4734997 113.2129988
  80.3970012 118.3684997 112.1839988  80.0381981 118.8632267 112.8022908
  81.2680012 126.5884997 115.9619988  81.2630012 127.4684997 115.5839988
  80.4150012 126.5054997 116.3869988  81.1519464 126.6976117 115.9677907
  77.3890012 126.2594997 106.7439988  77.1170012 126.4884997 105.8559988
  77.4350012 127.0974997 107.2049988  77.3579482 126.4041318 106.6846273
  91.0140012 127.8814997 113.4569988  90.0730012 127.9394997 113.6189988
  91.2910012 128.7874997 113.3199988  90.9224679 128.0119443 113.4606815
  91.3150012 116.1674997 114.8749988  90.5790012 116.7784997 114.8369988
  91.9980012 116.5824997 114.3479988  91.3066541 116.3071374 114.7985832
  84.3180012 114.2544997 112.3399988  84.2010012 113.3054997 112.2859988
  83.4630012 114.5864997 112.6139988  84.1864212 114.1695571 112.3696497
  89.2660012 129.6624997 110.0819988  89.6920012 128.9554997 109.5969988
  89.5830012 130.4634997 109.6659988  89.3671683 129.6741017 109.9593680
  90.4260012 127.5634997 108.5909988  90.1680012 126.8734997 107.9799988
  90.4970012 127.1204997 109.4369988  90.4002856 127.4092124 108.6216885
  92.1120012 126.1294997 117.0679988  92.2520012 125.5384997 116.3289988
  92.2790012 127.0024997 116.7119988  92.1537411 126.1665428 116.9186894
  86.5850012 123.0914997 106.8409988  85.8730012 123.6264997 106.4889988
  87.2760012 123.1474997 106.1809988  86.5810132 123.1722543 106.7036289
  86.6380012 121.5494997 103.8799988  87.3390012 121.5714997 104.5309988
  86.9410012 120.9214997 103.2229988  86.7748133 121.4677070 103.8803369
  93.9540012 122.4694997 115.1339988  93.3010012 123.1644997 115.2239988
  94.4190012 122.6794997 114.3249988  93.9275274 122.5930643 115.0368462
  89.9900012 123.3014997 107.7929988  89.2580012 123.5294997 108.3659988
  90.4380012 122.5874997 108.2469988  89.9502725 123.2362145 107.9328816
  89.8880012 121.4754997 116.8599988  89.9680012 122.2384997 117.4319988
  89.2860012 121.7544997 116.1699988  89.8175756 121.6177134 116.8450589
  81.6360012 123.9314997 109.6749988  81.3050012 123.5614997 108.8569988
  82.2240012 123.2614997 110.0219988  81.6701873 123.7901156 109.6098102
  83.0020012 127.3594997 112.3559988  82.9080012 126.7814997 111.5999988
  83.7320012 126.9884997 112.8529988  83.0877387 127.2301663 112.3195342
  82.0020012 122.7004997 113.3089988  82.5680012 122.8214997 112.5459988
  82.3210012 123.3374997 113.9469988  82.1225474 122.8032219 113.2909862
  88.3110012 128.2034997 114.0429988  88.0710012 128.8654997 114.6909988
  88.1130012 127.3694997 114.4679988  88.2513808 128.1813134 114.1891524
  82.8820012 127.0994997 118.0259988  82.5710012 127.8814997 118.4809988
  82.2320012 126.9464997 117.3399988  82.7515558 127.1859105 117.9955871
  88.8610012 122.4634997 105.4779988  89.4410012 122.6134997 106.2249988
  89.2750012 122.9344997 104.7539988  88.9962997 122.5476578 105.4824058
  79.8020012 123.2974997 117.2539988  79.8730012 123.9484997 117.9529988
  78.9120012 123.4004997 116.9189988  79.6913005 123.4005427 117.3043495
  86.5880012 129.2004997 108.9129988  87.0620012 129.4954997 109.6899988
  86.0250012 129.9384997 108.6799988  86.5768184 129.3407247 108.9879628
  81.1220012 129.1714997 118.7889988  81.1290012 129.0354997 117.8419988
  80.2060012 129.0534997 119.0409988  80.9991714 129.1369430 118.6934666
  92.5600012 114.2134997 105.2909988  91.6600012 114.3524997 105.5859988
  92.8120012 115.0444997 104.8889988  92.4708702 114.3449074 105.2770205
  80.6260012 123.0014997 107.2639988  80.3340012 123.7694997 106.7739988
  79.9520012 122.3414997 107.1019988  80.4948111 123.0175587 107.1748978
  76.7190012 125.3644997 116.0789988  76.2180012 125.3364997 115.2639988
  76.7240012 124.4584997 116.3889988  76.6510944 125.2382396 116.0093226
  76.4690012 128.1444997 112.9629988  77.4150012 128.0004997 112.9439988
  76.3570012 128.9284997 113.4999988  76.5832727 128.2308046 113.0330072
  94.6670012 128.8104997 118.6459988  94.6180012 127.8554997 118.6089988
  93.8400012 129.0784997 119.0469988  94.5484940 128.7158998 118.6951375
  85.6460012 128.3844997 117.5219988  85.7330012 129.2104997 117.9969988
  84.7820012 128.0544997 117.7709988  85.5411964 128.4529878 117.6206549
  86.0600012 132.1564997 107.3279988  85.9850012 132.0354997 106.3809988
  86.0930012 133.1064997 107.4459988  86.0542068 132.2682646 107.2144967
  79.7130012 130.9454997 109.1089988  79.8660012 130.5974997 109.9869988
  78.8630012 130.5894997 108.8539988  79.6189166 130.8496216 109.1948079
  89.1620012 131.3104997 104.3299988  89.5370012 130.5664997 103.8589988
  89.1660012 131.0404997 105.2489988  89.2139125 131.1720986 104.3896483
  88.8310012 131.2364997 107.0789988  87.8950012 131.3364997 107.2579988
  89.1110012 130.5274997 107.6579988  88.7409553 131.1543406 107.1817087
  91.8190012 120.3034997 119.1259988  91.4120012 120.7844997 118.4049988
  91.8600012 119.3984997 118.8179988  91.7688437 120.2469374 118.9856683
  78.9680012 126.6874997 117.1229988  79.1840012 126.3264997 117.9819988
  78.1130012 126.3134997 116.9129988  78.8819292 126.5874111 117.2123386
  81.5870012 115.1574997 113.1179988  80.7250012 115.0704997 112.7099988
  81.5640012 116.0134997 113.5459988  81.4660409 115.2612883 113.1200589
  86.2500012 114.8794997 116.4929988  86.6700012 114.4644997 117.2459988
  85.3170012 114.7014997 116.6099988  86.1813644 114.7985900 116.6119539
  89.5760012 118.6354997 117.3459988  89.0620012 118.5094997 118.1439988
  89.4210012 119.5474997 117.1019988  89.4846852 118.7416132 117.4222158
  85.9110012 117.3724997 103.7779988  85.6580012 117.3914997 104.7009988
  85.6550012 116.5004997 103.4759988  85.8417481 117.2572558 103.8636175
  81.6780012 120.1234997 114.2129988  81.0360012 120.0824997 114.9219988
  81.7150012 121.0494997 113.9749988  81.5950664 120.2431430 114.2779219
  81.6750012 120.3444997 109.1249988  80.7820012 120.0034997 109.0659988
  82.1250012 119.9674997 108.3689988  81.6138130 120.2469631 109.0147702
  87.2100012 120.7604997 107.9419988  86.8010012 121.5754997 107.6509988
  87.9310012 120.6204997 107.3279988  87.2514537 120.8532018 107.8191342
  86.3120012 120.9354997 119.4299988  85.7500012 120.2314997 119.7509988
  87.1390012 120.8154997 119.8979988  86.3467095 120.8227883 119.5372330
  88.2150012 120.2064997 110.7559988  88.0200012 120.8114997 110.0409988
  88.3960012 119.3724997 110.3219988  88.2127614 120.1766300 110.5994405
  79.4280012 120.4434997 116.0799988  79.3900012 120.8434997 116.9489988
  78.9370012 119.6264997 116.1709988  79.3564684 120.3878069 116.2111059
  76.0360012 117.5594997 109.9309988  76.6670012 117.5304997 110.6499988
  76.4850012 117.1344997 109.1999988  76.1830918 117.4980836 109.9306441
  77.3100012 118.3054997 105.3549988  77.7840012 118.8964997 104.7699988
  76.5930012 118.8364997 105.7019988  77.2779341 118.4580867 105.3218836
  87.4790012 121.8444997 115.4269988  87.8020012 121.2134997 114.7839988
  87.0390012 121.3094997 116.0879988  87.4637484 121.6858387 115.4283198
  84.2560012 117.7714997 110.2109988  83.3450012 117.8284997 110.4999988
  84.7620012 117.7114997 111.0219988  84.1996899 117.7711941 110.3601184
  79.0850012 119.4004997 109.0379988  78.1950012 119.5004997 108.6979988
  79.3810012 118.5584997 108.6919988  79.0032823 119.3003545 108.9447213
  82.7380012 119.4004997 106.6949988  83.6690012 119.5294997 106.8729988
  82.5230012 120.0704997 106.0449988  82.8364247 119.5086565 106.6315747
  88.6610012 117.0064997 113.4759988  87.9850012 117.1374997 114.1399988
  88.1760012 116.8514997 112.6649988  88.5027146 117.0035157 113.4574469
  91.9490012 132.6784997 119.7519988  92.1490012 133.1024997 118.9179988
  92.6040012 133.0214997 120.3589988  92.0650072 132.7829857 119.7198592
  79.5470012 125.1524997 119.3599988  80.2790012 125.4064997 119.9219988
  78.7670012 125.3564997 119.8759988  79.5417073 125.2148160 119.5066151
  85.5760012 120.5594997 112.0979988  86.1410012 120.0124997 111.5509988
  85.4290012 120.0374997 112.8869988  85.6333380 120.4142259 112.1298695
  80.5780012 116.6954997 108.5169988  80.2610012 115.7934997 108.4809988
  81.3600012 116.6974997 107.9639988  80.6402408 116.5722474 108.4373569
  84.2030012 118.9474997 114.5119988  83.3670012 119.4014997 114.6229988
  84.7270012 119.2234997 115.2639988  84.1595416 119.0468660 114.6288119
  84.7470012 125.1604997 106.1969988  84.0020012 124.6534997 105.8749988
  84.6130012 125.2094997 107.1439988  84.6268776 125.0976940 106.2808647
  91.8970012 124.2934997 114.9839988  92.5390012 124.7504997 114.4399988
  91.0670012 124.4064997 114.5209988  91.8725963 124.3712704 114.8470177
  86.2660012 125.3444997 117.4339988  85.9210012 124.9634997 118.2409988
  86.0660012 126.2784997 117.5049988  86.1917527 125.4185135 117.5540689
  89.3630012 119.8414997 106.0569988  90.2550012 119.7044997 106.3759988
  89.4200012 120.6324997 105.5199988  89.4926504 119.9296052 106.0280818
  79.8720012 124.4554997 111.9669988  80.6170012 124.4534997 111.3659988
  79.9500012 123.6324997 112.4479988  79.9844995 124.3438887 111.9498282
  76.8800012 122.9164997 117.2819988  77.1030012 122.4984997 118.1139988
  76.2780012 122.3034997 116.8589988  76.8291759 122.7764668 117.3387022
  83.8960012 122.4334997 119.4949988  83.6000012 122.2674997 118.5999988
  84.8280012 122.2134997 119.4839988  83.9814166 122.3810640 119.3710536
  88.5170012 127.8064997 117.3849988  87.6160012 127.9894997 117.1169988
  88.5510012 128.0654997 118.3049988  88.3983139 127.8665849 117.4728099
  94.2480012 120.0514997 105.7519988  93.6940012 119.6554997 105.0799988
  94.3480012 120.9614997 105.4739988  94.1857059 120.1203586 105.6224401
  94.2110012 125.8514997 118.5889988  93.3600012 126.0894997 118.2219988
  94.8020012 125.8344997 117.8359988  94.1742487 125.8818258 118.4368893
  92.5430012 128.8374997 106.2169988  92.1700012 128.0114997 106.5259988
  92.8210012 128.6544997 105.3189988  92.5295222 128.6997430 106.1379473
  89.7040012 123.6454997 113.2379988  88.7750012 123.4134997 113.2109988
  90.1550012 122.8684997 112.9079988  89.6379216 123.5087238 113.1896917
  82.2470012 127.9734997 109.3709988  82.7740012 128.7464997 109.1709988
  81.3670012 128.1984997 109.0689988  82.2002031 128.1097545 109.3027912
  83.6740012 125.6364997 108.9469988  83.4330012 126.5614997 108.9889988
  82.9330012 125.1774997 109.3439988  83.5409225 125.7010933 109.0063742
  84.1890012 129.7854997 115.2629988  84.5510012 130.6404997 115.0289988
  84.7200012 129.4934997 116.0029988  84.3104473 129.8631060 115.3310855
  82.3570012 130.6584997 108.4929988  81.4070012 130.7634997 108.5439988
  82.7090012 131.4784997 108.8369988  82.2744195 130.7838800 108.5465502
  87.7330012 125.8844997 114.9629988  87.3070012 125.6574997 115.7899988
  88.3130012 125.1464997 114.7809988  87.7531868 125.7535299 115.0515830
  90.3910012 130.4364997 117.4329988  89.7900012 129.8814997 116.9369988
  90.6730012 131.1034997 116.8059988  90.3468804 130.4506625 117.2804849
  78.5140012 117.6694997 116.8399988  77.6210012 118.0084997 116.7719988
  78.4150012 116.8144997 117.2579988  78.3784164 117.6002588 116.8872235
  90.8020012 125.4864997 106.2639988  90.5240012 124.7584997 106.8199988
  91.7290012 125.6054997 106.4689988  90.8893124 125.4028802 106.3678845
  78.1650012 129.4744997 115.2749988  78.3820012 128.5424997 115.2439988
  78.4110012 129.7484997 116.1579988  78.2279549 129.3840636 115.3901763
  79.4170012 124.7484997 105.4509988  78.7310012 125.1004997 106.0179988
  79.9390012 125.5114997 105.2039988  79.3936852 124.8998578 105.4952118
  87.2480012 117.4104997 115.7299988  87.9470012 117.4844997 116.3799988
  86.8670012 116.5464997 115.8839988  87.2921767 117.3037624 115.8398322
  88.0330012 117.0624997 106.8269988  88.2530012 117.5344997 106.0239988
  88.5910012 117.4574997 107.4969988  88.1384968 117.1804285 106.8077331
  85.2330012 118.7904997 107.6619988  86.0450012 119.2954997 107.7079988
  84.9880012 118.6454997 108.5759988  85.3110520 118.8400375 107.7918517
  85.7680012 119.7764997 116.8459988  85.8870012 120.3504997 117.6039988
  86.4240012 119.0884997 116.9609988  85.8729025 119.7619858 116.9651321
  86.1160012 115.8714997 108.5999988  85.7700012 116.4894997 109.2439988
  86.7750012 116.3724997 108.1179988  86.1576968 116.0236278 108.6229383
  81.7740012 116.9344997 105.2869988  81.6910012 117.8234997 105.6339988
  82.6640012 116.6694997 105.5189988  81.8829469 117.0201430 105.3657626
  91.9730012 117.6834997 117.6809988  91.0560012 117.9464997 117.5939988
  92.3080012 117.6804997 116.7849988  91.8928613 117.7190761 117.5478837
  90.5750012 121.4344997 111.7769988  89.7770012 121.0194997 111.4489988
  91.0200012 120.7434997 112.2679988  90.5259885 121.2843543 111.7984889
  80.0330012 127.3624997 104.3479988  80.6250012 128.0614997 104.6239988
  80.4920012 126.9294997 103.6279988  80.1761142 127.3997049 104.2884830
  91.6610012 130.6904997 113.3999988  91.5060012 131.3684997 112.7419988
  92.5940012 130.7624997 113.6029988  91.7658657 130.7929546 113.3374360
  79.1570012 114.8084997 112.1369988  78.9280012 114.8674997 111.2089988
  78.7140012 114.0164997 112.4429988  79.0658530 114.7095753 112.0514786
  78.0870012 128.7484997 108.2969988  77.2550012 129.2214997 108.3239988
  78.6330012 129.2584997 107.6989988  78.0470352 128.8821332 108.2198463
  77.3750012 131.3614997 119.6269988  77.9160012 131.1444997 120.3869988
  76.8940012 130.5554997 119.4369988  77.3839951 131.2229270 119.7052576
  81.9730012 130.2804997 121.2469988  82.7400012 129.8214997 121.5879988
  81.9510012 130.0544997 120.3179988  82.0751275 130.1870186 121.1680101
  88.5500012 128.6604997 119.9769988  88.1990012 127.8044997 120.2199988
  89.2760012 128.8034997 120.5839988  88.6000769 128.5625636 120.0923619
  77.2820012 125.1714997 120.5809988  77.4260012 124.2694997 120.2949988
  76.5100012 125.4574997 120.0939988  77.1972753 125.0866816 120.4759505
  81.6240012 125.5154997 102.7139988  81.6880012 124.7214997 103.2449988
  82.2770012 125.3964997 102.0239988  81.7210241 125.3907148 102.6934317
  83.9380012 125.1414997 120.0139988  83.6090012 125.4124997 119.1569988
  84.0900012 124.2004997 119.9269988  83.9134809 125.0513862 119.8848244
  89.6720012 125.0574997 117.3969988  90.4180012 125.6454997 117.2779988
  88.9150012 125.6394997 117.4609988  89.6717820 125.2167143 117.3893590
  78.1150012 122.3714997 120.0009988  78.5230012 121.5144997 119.8799988
  77.8550012 122.3864997 120.9219988  78.1357568 122.2560807 120.1089588
  82.7730012 123.4874997 105.0199988  82.3130012 123.0034997 105.7059988
  83.0280012 122.8194997 104.3839988  82.7444902 123.3308731 105.0279334
  82.0620012 121.3804997 117.3759988  81.4440012 122.0554997 117.6559988
  82.4060012 121.7014997 116.5419988  82.0239132 121.5162411 117.3016262
  87.0820012 123.8524997 120.6529988  88.0350012 123.9354997 120.6259988
  86.9210012 123.1404997 121.2729988  87.1906426 123.7676746 120.7330579
  82.4010012 118.7354997 118.4579988  82.5510012 118.0064997 117.8559988
  82.4040012 119.5124997 117.8989988  82.4219302 118.7407851 118.3000692
  82.8140012 117.1054997 115.9509988  83.3500012 117.5564997 115.2989988
  81.9620012 116.9974997 115.5279988  82.7722178 117.1526390 115.8045756
  84.3960012 122.5444997 116.1899988  85.1460012 122.3884997 115.6169988
  84.0570012 123.3964997 115.9149988  84.4528921 122.6382968 116.0743561
  88.8110012 120.3594997 121.2189988  89.0040012 119.4284997 121.1069988
  89.6690012 120.7844997 121.2079988  88.9532934 120.2896531 121.2022031
  90.1280012 123.1484997 119.2959988  89.8470012 123.8574997 118.7179988
  91.0710012 123.0754997 119.1449988  90.2169291 123.2356711 119.1964967
  80.8800012 119.9334997 120.3699988  80.1130012 119.4014997 120.1589988
  81.5590012 119.6234997 119.7699988  80.8667877 119.8188300 120.2600716
  83.6200012 114.5614997 116.3819988  83.5210012 115.5084997 116.2769988
  82.8770012 114.1894997 115.9059988  83.5061184 114.6405863 116.3033621
  84.8840012 118.8834997 119.9459988  84.6480012 118.6634997 120.8469988
  84.1000012 118.6764997 119.4359988  84.7458504 118.8254586 120.0003431
  87.5990012 118.0104997 119.0209988  86.6520012 118.0424997 119.1539988
  87.9120012 117.3854997 119.6749988  87.5116707 117.9303998 119.1276060
  89.2330012 116.6444997 121.0269988  89.1370012 115.6924997 121.0209988
  88.9120012 116.9134997 121.8869988  89.1764070 116.5504035 121.1425441
  79.0600012 117.8544997 120.0739988  79.2720012 117.1474997 119.4639988
  78.9490012 117.4164997 120.9179988  79.0739721 117.6987084 120.1046843
  83.8410012 113.8554997 119.0529988  84.5530012 113.2154997 119.0389988
  83.7400012 114.1224997 118.1399988  83.9248066 113.8040079 118.9275677
  84.1950012 115.5384997 121.1069988  84.0630012 115.0624997 120.2869988
  83.5960012 116.2824997 121.0519988  84.0959071 115.5739618 120.9872886
  77.3100012 127.0574997 103.7659988  78.2240012 127.1364997 104.0399988
  77.3170012 126.3704997 103.0999988  77.4361131 126.9753961 103.7134393
  75.9590012 132.4504997 108.8439988  75.3120012 131.9884997 108.3109988
  76.3130012 131.7784997 109.4259988  75.9183849 132.2964723 108.8497959
  76.8290012 130.5314997 110.6479988  76.4940012 129.6514997 110.8199988
  77.0510012 130.8764997 111.5129988  76.8131783 130.4577500 110.7884208
  94.3770012 131.3404997 113.6289988  94.3560012 131.5254997 114.5679988
  95.0680012 131.9094997 113.2879988  94.4674618 131.4426606 113.7113864
  93.9410012 130.9084997 116.5509988  93.4530012 130.1724997 116.1789988
  94.4900012 130.5144997 117.2289988  93.9484820 130.7545889 116.5917813
  92.3910012 126.6974997 121.1889988  91.5250012 126.5924997 121.5829988
  92.7680012 127.4564997 121.6349988  92.3233308 126.7856900 121.3032393
  93.6920012 124.9544997 106.7029988  94.5420012 125.3754997 106.8299988
  93.6980012 124.2144997 107.3099988  93.8091372 124.9120803 106.8024344
  94.0870012 123.0074997 108.5259988  93.3600012 122.5284997 108.9239988
  94.6680012 123.2134997 109.2589988  94.0660473 122.9698103 108.6794528
  93.8460012 125.7924997 113.4739988  94.6790012 125.4144997 113.1939988
  93.9580012 126.7354997 113.3549988  93.9752647 125.8682218 113.4195487
  92.3320012 128.6704997 115.7809988  91.6850012 128.9954997 116.4069988
  91.8150012 128.2304997 115.1069988  92.1734029 128.6555004 115.7755827
  91.8730012 121.5284997 109.0889988  91.7230012 120.5834997 109.0689988
  91.5200012 121.8094997 109.9329988  91.8047448 121.4371481 109.2003705
  76.9090012 123.6064997 113.0999988  77.0930012 123.5244997 112.1639988
  77.7580012 123.4824997 113.5229988  77.0490151 123.5785073 113.0291451
  92.7300012 123.4984997 118.7279988  93.3130012 122.7644997 118.9199988
  93.2940012 124.2704997 118.7749988  92.8859769 123.5024227 118.7606159
  94.2260012 121.4014997 119.4129988  93.3630012 121.0224997 119.2469988
  94.8310012 120.6624997 119.3379988  94.1896119 121.2498268 119.3801528
  91.5840012 119.1114997 107.5519988  91.8640012 118.2044997 107.6759988
  92.3430012 119.5454997 107.1629988  91.7249277 119.0460942 107.5163682
  92.1960012 119.6924997 112.9879988  93.1290012 119.9044997 112.9529988
  91.9610012 119.7944997 113.9099988  92.2919244 119.7353100 113.1078892
  92.2250012 120.4294997 115.7639988  91.3820012 120.6974997 116.1299988
  92.6670012 121.2514997 115.5529988  92.1694158 120.5773291 115.7855491
  76.5060012 118.8774997 119.2409988  77.4260012 118.7554997 119.4769988
  76.0570012 118.1274997 119.6299988  76.5711580 118.7593727 119.3259006
  94.5080012 114.4094997 121.1169988  94.8580012 113.7554997 120.5119988
  94.6550012 115.2464997 120.6769988  94.5757887 114.4331548 120.9746858
  92.1970012 116.3744997 107.5999988  92.3800012 115.9254997 108.4259988
  91.5980012 115.7894997 107.1369988  92.1410202 116.2339975 107.6503275
  77.7270012 117.1894997 112.1319988  78.1730012 116.3974997 112.4339988
  78.1940012 117.9054997 112.5619988  77.8510831 117.1780685 112.2314006
  76.0310012 120.1884997 113.2009988  76.5230012 119.9674997 112.4099988
  76.3940012 121.0294997 113.4819988  76.1473126 120.2718357 113.1307531
  94.0280012 116.5184997 119.4659988  93.1100012 116.7894997 119.4309988
  94.1510012 115.9834997 118.6819988  93.9189729 116.4832508 119.3551923
  76.3450012 116.4464997 107.2549988  75.4200012 116.6554997 107.1259988
  76.7990012 116.9304997 106.5649988  76.2797292 116.5405343 107.1440720
  91.1160012 131.4304997 109.2009988  91.7680012 131.0834997 108.5929988
  91.6260012 131.9194997 109.8469988  91.2742637 131.4490597 109.2050236
  76.3090012 115.1844997 115.5989988  75.6440012 114.9384997 116.2429988
  75.8660012 115.8064997 115.0219988  76.1581318 115.2349410 115.6090898
  78.5010012 128.3594997 119.7439988  77.6800012 128.5344997 119.2829988
  78.2480012 128.2864997 120.6639988  78.3545585 128.3735544 119.8053561
  81.4550012 129.3344997 116.0019988  81.0300012 130.1434997 115.7199988
  82.3590012 129.4194997 115.6999988  81.5189975 129.4569300 115.9224816
  85.7660012 130.7334997 118.9619988  85.9510012 130.3994997 119.8399988
  86.6120012 131.0424997 118.6399988  85.9057539 130.7296047 119.0385605
  88.1110012 132.0194997 118.2059988  88.7880012 131.3864997 117.9659988
  88.4330012 132.4204997 119.0129988  88.2471637 131.9871154 118.2822793
  93.0280012 114.6084997 117.2849988  92.2160012 114.9334997 116.8979988
  93.2610012 113.8484997 116.7519988  92.9482203 114.5502758 117.1598880
  78.8570012 132.5904997 116.0499988  78.1360012 133.0304997 115.5989988
  78.4910012 132.3394997 116.8979988  78.7089651 132.6167242 116.1029640
  81.3240012 132.1904997 115.0799988  80.4590012 132.2624997 115.4839988
  81.2690012 132.7374997 114.2959988  81.1982085 132.2742685 115.0293362
  86.0340012 132.0784997 114.2549988  85.5780012 132.6074997 113.6009988
  86.1970012 132.6814997 114.9799988  85.9936068 132.2324607 114.2634838
  88.3620012 130.9564997 115.1999988  87.4570012 131.1214997 114.9339988
  88.7910012 131.8094997 115.1349988  88.2961324 131.0944339 115.1547976
  90.9660012 132.5264997 115.4949988  90.7840012 133.4424997 115.2849988
  91.1430012 132.1164997 114.6489988  90.9650210 132.5964822 115.3517885
  78.2710012 131.2134997 112.9599988  78.2530012 130.7884997 113.8169988
  79.0760012 130.8954997 112.5509988  78.3773529 131.1123013 113.0220946
  80.4130012 129.9234997 111.6149988  80.1940012 129.0074997 111.7849988
  81.2370012 130.0634997 112.0809988  80.4944420 129.8170520 111.7012774
  82.9500012 130.3934997 112.4639988  83.1630012 129.5054997 112.1769988
  83.0140012 130.3594997 113.4179988  82.9878232 130.2673102 112.5537397
  86.4580012 116.0574997 111.6079988  85.7840012 115.4284997 111.8639988
  87.0220012 115.5734997 111.0049988  86.4419230 115.9058744 111.5615340
  91.6010012 114.1654997 111.7209988  92.2050012 114.7124997 111.2189988
  90.7310012 114.4844997 111.4799988  91.5661208 114.2835137 111.6196886
  93.3280012 115.3034997 110.0539988  93.9400012 114.7894997 109.5269988
  93.7100012 116.1814997 110.0769988  93.4633371 115.3517866 109.9850041
  78.7850012 114.6914997 109.4299988  78.0080012 114.4574997 108.9229988
  79.3150012 113.8944997 109.4389988  78.7502330 114.5516988 109.3617742
  83.3640012 114.6184997 109.2439988  84.2390012 115.0064997 109.2139988
  83.2280012 114.4034997 110.1659988  83.4653695 114.6425184 109.3646440
  88.9210012 114.6484997 110.8929988  88.9970012 114.7434997 109.9429988
  88.6460012 113.7404997 111.0219988  88.8942321 114.5387867 110.7805079
  90.2740012 114.6744997 106.5849988  89.5720012 115.2894997 106.3749988
  89.8300012 113.8364997 106.7159988  90.1176450 114.6455639 106.5739000
  77.5220012 130.4374997 106.1309988  76.8370012 130.3994997 105.4639988
  77.5260012 131.3504997 106.4199988  77.4286998 130.5556733 106.0786771
  79.4820012 116.4054997 103.6759988  79.9740012 115.7754997 103.1489988
  80.1060012 116.7014997 104.3389988  79.6335688 116.3593804 103.6935482
  84.5080012 116.6984997 106.1329988  84.6860012 116.0524997 106.8159988
  84.4550012 117.5324997 106.5999988  84.5251999 116.7228009 106.2895917
  93.0960012 131.2104997 107.2079988  92.9010012 130.4624997 106.6429988
  93.0570012 131.9684997 106.6249988  93.0640380 131.2106099 107.0518384
  78.7430012 115.2054997 118.9479988  78.3770012 114.4404997 119.3899988
  79.6560012 115.2344997 119.2339988  78.8162736 115.1045640 119.0472502
  80.7160012 114.5564997 120.4839988  81.6140012 114.2824997 120.2989988
  80.3290012 113.8134997 120.9479988  80.7866612 114.4185914 120.5213643
  89.1370012 113.8884997 120.6659988  89.2140012 113.4624997 121.5199988
  90.0310012 113.9024997 120.3229988  89.2683428 113.8320879 120.7365310
  92.3130012 129.9614997 119.3579988  91.5310012 129.7754997 118.8379988
  92.2410012 130.8904997 119.5759988  92.1962274 130.0616643 119.3163018
 106.7190012 123.8474997 109.3889988 106.8080012 124.7914997 109.2569988
 106.0810012 123.5724997 108.7309988 106.6449081 123.9394830 109.2819614
 105.6520012 123.1024997 112.8079988 105.6140012 122.4564997 113.5129988
 105.3300012 122.6364997 112.0369988 105.6032333 122.9509408 112.8002978
  98.0210012 122.7174997 114.4009988  98.0620012 122.0914997 115.1239988
  98.7240012 123.3414997 114.5829988  98.1216363 122.7161196 114.5246044
 109.3580012 126.0414997 111.1089988 108.9180012 125.3214997 111.5599988
 109.3450012 126.7624997 111.7389988 109.2960226 126.0403731 111.2558494
  98.9440012 127.1674997 112.9359988  98.5750012 126.3654997 112.5659988
  99.8850012 126.9984997 112.9819988  99.0207289 127.0350153 112.8916316
  95.5540012 120.8274997 108.3289988  95.1070012 121.6734997 108.3099988
  94.9930012 120.2474997 107.8129988  95.4169900 120.8649916 108.2566801
  96.2650012 122.9894997 110.4539988  96.4780012 122.2194997 110.9819988
  97.0030012 123.0784997 109.8509988  96.3939044 122.8961968 110.4447123
 106.4700012 131.1464997 111.3209988 107.0900012 130.4694997 111.0479988
 106.2620012 130.9284997 112.2299988 106.5266726 131.0244800 111.4064812
 104.0420012 125.5354997 113.2139988 104.3460012 124.8494997 112.6189988
 104.7630012 125.6534997 113.8319988 104.1810671 125.4576305 113.2161816
 112.7050012 117.1364997 114.0749988 112.7540012 117.7464997 114.8099988
 113.1300012 117.5974997 113.3519988 112.7691746 117.2823796 114.0779175
 107.1830012 119.9294997 113.5409988 107.3250012 118.9834997 113.5619988
 107.0760012 120.1364997 112.6129988 107.1879919 119.8278246 113.4183408
 100.3370012 118.0304997 110.8139988 100.3810012 118.8904997 110.3949988
  99.8800012 117.4784997 110.1799988 100.2812240 118.0734422 110.6709864
 108.0600012 118.1614997 109.2149988 108.7060012 117.8324997 109.8389988
 108.5700012 118.6794997 108.5919988 108.2174299 118.1864450 109.2162731
  96.9580012 120.4274997 111.5759988  97.6110012 119.8774997 112.0079988
  96.9820012 120.1534997 110.6589988  97.0506683 120.3151466 111.5112123
 102.1140012 121.9774997 110.7909988 102.7300012 121.4514997 111.3009988
 101.5280012 121.3374997 110.3879988 102.1190810 121.8189208 110.8063173
 113.0960012 118.6144997 116.3099988 112.4080012 119.2724997 116.2149988
 113.1120012 118.4174997 117.2469988 113.0039540 118.6779819 116.4235990
  99.1480012 116.9484997 114.8879988  98.9290012 117.4784997 114.1219988
  98.4800012 117.1754997 115.5349988  99.0277600 117.0516906 114.8706379
 106.5170012 126.4484997 108.4319988 106.2210012 126.1264997 107.5809988
 106.1920012 127.3484997 108.4729988 106.4326371 126.5260215 108.3211801
 101.7170012 124.6244997 115.1749988 100.9770012 125.2224997 115.2789988
 102.4310012 125.1784997 114.8599988 101.7122237 124.7812831 115.1466465
 109.8240012 117.4524997 111.1949988 109.6080012 116.6864997 111.7279988
 110.4790012 117.9244997 111.7079988 109.8830632 117.4115889 111.3372861
  98.7410012 118.8404997 112.8399988  99.3550012 119.4734997 113.2129988
  99.2530012 118.3684997 112.1839988  98.8941981 118.8632267 112.8022908
 100.1240012 126.5884997 115.9619988 100.1190012 127.4684997 115.5839988
  99.2710012 126.5054997 116.3869988 100.0079464 126.6976117 115.9677907
  96.2450012 126.2594997 106.7439988  95.9730012 126.4884997 105.8559988
  96.2910012 127.0974997 107.2049988  96.2139482 126.4041318 106.6846273
 109.8700012 127.8814997 113.4569988 108.9290012 127.9394997 113.6189988
 110.1470012 128.7874997 113.3199988 109.7784679 128.0119443 113.4606815
 110.1710012 116.1674997 114.8749988 109.4350012 116.7784997 114.8369988
 110.8540012 116.5824997 114.3479988 110.1626541 116.3071374 114.7985832
 103.1740012 114.2544997 112.3399988 103.0570012 113.3054997 112.2859988
 102.3190012 114.5864997 112.6139988 103.0424212 114.1695571 112.3696497
 108.1220012 129.6624997 110.0819988 108.5480012 128.9554997 109.5969988
 108.4390012 130.4634997 109.6659988 108.2231683 129.6741017 109.9593680
 109.2820012 127.5634997 108.5909988 109.0240012 126.8734997 107.9799988
 109.3530012 127.1204997 109.4369988 109.2562856 127.4092124 108.6216885
 110.9680012 126.1294997 117.0679988 111.1080012 125.5384997 116.3289988
 111.1350012 127.0024997 116.7119988 111.0097411 126.1665428 116.9186894
 105.4410012 123.0914997 106.8409988 104.7290012 123.6264997 106.4889988
 106.1320012 123.1474997 106.1809988 105.4370132 123.1722543 106.7036289
 112.8100012 122.4694997 115.1339988 112.1570012 123.1644997 115.2239988
 113.2750012 122.6794997 114.3249988 112.7835274 122.5930643 115.0368462
 108.8460012 123.3014997 107.7929988 108.1140012 123.5294997 108.3659988
 109.2940012 122.5874997 108.2469988 108.8062725 123.2362145 107.9328816
 108.7440012 121.4754997 116.8599988 108.8240012 122.2384997 117.4319988
 108.1420012 121.7544997 116.1699988 108.6735756 121.6177134 116.8450589
 100.4920012 123.9314997 109.6749988 100.1610012 123.5614997 108.8569988
 101.0800012 123.2614997 110.0219988 100.5261873 123.7901156 109.6098102
 101.8580012 127.3594997 112.3559988 101.7640012 126.7814997 111.5999988
 102.5880012 126.9884997 112.8529988 101.9437386 127.2301663 112.3195342
 100.8580012 122.7004997 113.3089988 101.4240012 122.8214997 112.5459988
 101.1770012 123.3374997 113.9469988 100.9785474 122.8032219 113.2909862
 107.1670012 128.2034997 114.0429988 106.9270012 128.8654997 114.6909988
 106.9690012 127.3694997 114.4679988 107.1073808 128.1813134 114.1891524
 101.7380012 127.0994997 118.0259988 101.4270012 127.8814997 118.4809988
 101.0880012 126.9464997 117.3399988 101.6075558 127.1859105 117.9955871
  98.6580012 123.2974997 117.2539988  98.7290012 123.9484997 117.9529988
  97.7680012 123.4004997 116.9189988  98.5473005 123.4005427 117.3043495
 105.4440012 129.2004997 108.9129988 105.9180012 129.4954997 109.6899988
 104.8810012 129.9384997 108.6799988 105.4328184 129.3407247 108.9879628
  99.9780012 129.1714997 118.7889988  99.9850012 129.0354997 117.8419988
  99.0620012 129.0534997 119.0409988  99.8551714 129.1369430 118.6934666
 111.4160012 114.2134997 105.2909988 110.5160012 114.3524997 105.5859988
 111.6680012 115.0444997 104.8889988 111.3268702 114.3449074 105.2770205
  99.4820012 123.0014997 107.2639988  99.1900012 123.7694997 106.7739988
  98.8080012 122.3414997 107.1019988  99.3508111 123.0175587 107.1748978
 112.6050012 128.5794997 103.6669988 112.6790012 129.5184997 103.8379988
 113.5110012 128.2744997 103.6109988 112.7375100 128.6666722 103.6828119
  95.5750012 125.3644997 116.0789988  95.0740012 125.3364997 115.2639988
  95.5800012 124.4584997 116.3889988  95.5070944 125.2382396 116.0093226
  95.3250012 128.1444997 112.9629988  96.2710012 128.0004997 112.9439988
  95.2130012 128.9284997 113.4999988  95.4392727 128.2308046 113.0330072
 113.5230012 128.8104997 118.6459988 113.4740012 127.8554997 118.6089988
 112.6960012 129.0784997 119.0469988 113.4044940 128.7158998 118.6951375
 104.5020012 128.3844997 117.5219988 104.5890012 129.2104997 117.9969988
 103.6380012 128.0544997 117.7709988 104.3971964 128.4529878 117.6206549
 104.9160012 132.1564997 107.3279988 104.8410012 132.0354997 106.3809988
 104.9490012 133.1064997 107.4459988 104.9102068 132.2682646 107.2144967
  98.5690012 130.9454997 109.1089988  98.7220012 130.5974997 109.9869988
  97.7190012 130.5894997 108.8539988  98.4749166 130.8496216 109.1948079
 107.6870012 131.2364997 107.0789988 106.7510012 131.3364997 107.2579988
 107.9670012 130.5274997 107.6579988 107.5969553 131.1543406 107.1817087
 110.6750012 120.3034997 119.1259988 110.2680012 120.7844997 118.4049988
 110.7160012 119.3984997 118.8179988 110.6248437 120.2469374 118.9856683
  97.8240012 126.6874997 117.1229988  98.0400012 126.3264997 117.9819988
  96.9690012 126.3134997 116.9129988  97.7379292 126.5874111 117.2123386
 100.4430012 115.1574997 113.1179988  99.5810012 115.0704997 112.7099988
 100.4200012 116.0134997 113.5459988 100.3220409 115.2612883 113.1200589
 105.1060012 114.8794997 116.4929988 105.5260012 114.4644997 117.2459988
 104.1730012 114.7014997 116.6099988 105.0373644 114.7985900 116.6119539
 108.4320012 118.6354997 117.3459988 107.9180012 118.5094997 118.1439988
 108.2770012 119.5474997 117.1019988 108.3406852 118.7416132 117.4222158
 104.7670012 117.3724997 103.7779988 104.5140012 117.3914997 104.7009988
 104.5110012 116.5004997 103.4759988 104.6977481 117.2572558 103.8636175
 100.5340012 120.1234997 114.2129988  99.8920012 120.0824997 114.9219988
 100.5710012 121.0494997 113.9749988 100.4510664 120.2431430 114.2779219
 100.5310012 120.3444997 109.1249988  99.6380012 120.0034997 109.0659988
 100.9810012 119.9674997 108.3689988 100.4698130 120.2469631 109.0147702
 106.0660012 120.7604997 107.9419988 105.6570012 121.5754997 107.6509988
 106.7870012 120.6204997 107.3279988 106.1074537 120.8532018 107.8191342
 105.1680012 120.9354997 119.4299988 104.6060012 120.2314997 119.7509988
 105.9950012 120.8154997 119.8979988 105.2027095 120.8227883 119.5372330
 107.0710012 120.2064997 110.7559988 106.8760012 120.8114997 110.0409988
 107.2520012 119.3724997 110.3219988 107.0687614 120.1766300 110.5994405
  98.2840012 120.4434997 116.0799988  98.2460012 120.8434997 116.9489988
  97.7930012 119.6264997 116.1709988  98.2124684 120.3878069 116.2111059
 101.6500012 117.8174997 102.8789988 101.2190012 117.3724997 103.6089988
 100.9320012 118.1894997 102.3669988 101.4939438 117.8068940 102.9096799
  94.8920012 117.5594997 109.9309988  95.5230012 117.5304997 110.6499988
  95.3410012 117.1344997 109.1999988  95.0390918 117.4980836 109.9306441
  96.1660012 118.3054997 105.3549988  96.6400012 118.8964997 104.7699988
  95.4490012 118.8364997 105.7019988  96.1339341 118.4580867 105.3218836
 106.3350012 121.8444997 115.4269988 106.6580012 121.2134997 114.7839988
 105.8950012 121.3094997 116.0879988 106.3197484 121.6858387 115.4283198
 103.1120012 117.7714997 110.2109988 102.2010012 117.8284997 110.4999988
 103.6180012 117.7114997 111.0219988 103.0556899 117.7711941 110.3601184
  97.9410012 119.4004997 109.0379988  97.0510012 119.5004997 108.6979988
  98.2370012 118.5584997 108.6919988  97.8592823 119.3003545 108.9447213
 101.5940012 119.4004997 106.6949988 102.5250012 119.5294997 106.8729988
 101.3790012 120.0704997 106.0449988 101.6924247 119.5086565 106.6315747
 107.5170012 117.0064997 113.4759988 106.8410012 117.1374997 114.1399988
 107.0320012 116.8514997 112.6649988 107.3587146 117.0035157 113.4574469
 100.2680012 120.5954997 104.2609988  99.7250012 120.2154997 103.5699988
 101.1010012 120.7894997 103.8329988 100.3063631 120.5697125 104.1084501
 110.8050012 132.6784997 119.7519988 111.0050012 133.1024997 118.9179988
 111.4600012 133.0214997 120.3589988 110.9210072 132.7829857 119.7198592
  98.4030012 125.1524997 119.3599988  99.1350012 125.4064997 119.9219988
  97.6230012 125.3564997 119.8759988  98.3977073 125.2148160 119.5066151
 104.4320012 120.5594997 112.0979988 104.9970012 120.0124997 111.5509988
 104.2850012 120.0374997 112.8869988 104.4893380 120.4142259 112.1298695
  99.4340012 116.6954997 108.5169988  99.1170012 115.7934997 108.4809988
 100.2160012 116.6974997 107.9639988  99.4962408 116.5722474 108.4373569
 103.0590012 118.9474997 114.5119988 102.2230012 119.4014997 114.6229988
 103.5830012 119.2234997 115.2639988 103.0155416 119.0468660 114.6288119
 103.6030012 125.1604997 106.1969988 102.8580012 124.6534997 105.8749988
 103.4690012 125.2094997 107.1439988 103.4828776 125.0976940 106.2808647
 110.7530012 124.2934997 114.9839988 111.3950012 124.7504997 114.4399988
 109.9230012 124.4064997 114.5209988 110.7285963 124.3712704 114.8470177
 107.5010012 117.9744997 104.3959988 106.5620012 118.0864997 104.2449988
 107.7980012 118.8314997 104.7029988 107.4127583 118.1055981 104.4168337
 105.1220012 125.3444997 117.4339988 104.7770012 124.9634997 118.2409988
 104.9220012 126.2784997 117.5049988 105.0477527 125.4185135 117.5540689
 108.2190012 119.8414997 106.0569988 109.1110012 119.7044997 106.3759988
 108.2760012 120.6324997 105.5199988 108.3486504 119.9296052 106.0280818
  98.7280012 124.4554997 111.9669988  99.4730012 124.4534997 111.3659988
  98.8060012 123.6324997 112.4479988  98.8404995 124.3438887 111.9498282
 105.7290012 126.6194997 105.2229988 105.4330012 127.4454997 105.6039988
 105.0260012 125.9994997 105.4189988 105.5934914 126.6488199 105.3016443
  95.7360012 122.9164997 117.2819988  95.9590012 122.4984997 118.1139988
  95.1340012 122.3034997 116.8589988  95.6851759 122.7764668 117.3387022
 102.7520012 122.4334997 119.4949988 102.4560012 122.2674997 118.5999988
 103.6840012 122.2134997 119.4839988 102.8374166 122.3810640 119.3710536
 107.3730012 127.8064997 117.3849988 106.4720012 127.9894997 117.1169988
 107.4070012 128.0654997 118.3049988 107.2543139 127.8665849 117.4728099
 113.1040012 120.0514997 105.7519988 112.5500012 119.6554997 105.0799988
 113.2040012 120.9614997 105.4739988 113.0417059 120.1203586 105.6224401
 113.0670012 125.8514997 118.5889988 112.2160012 126.0894997 118.2219988
 113.6580012 125.8344997 117.8359988 113.0302487 125.8818258 118.4368893
 111.3990012 128.8374997 106.2169988 111.0260012 128.0114997 106.5259988
 111.6770012 128.6544997 105.3189988 111.3855222 128.6997430 106.1379473
 108.5600012 123.6454997 113.2379988 107.6310012 123.4134997 113.2109988
 109.0110012 122.8684997 112.9079988 108.4939216 123.5087238 113.1896917
 101.1030012 127.9734997 109.3709988 101.6300012 128.7464997 109.1709988
 100.2230012 128.1984997 109.0689988 101.0562031 128.1097545 109.3027912
 102.5300012 125.6364997 108.9469988 102.2890012 126.5614997 108.9889988
 101.7890012 125.1774997 109.3439988 102.3969225 125.7010933 109.0063742
 103.0450012 129.7854997 115.2629988 103.4070012 130.6404997 115.0289988
 103.5760012 129.4934997 116.0029988 103.1664473 129.8631060 115.3310855
 101.2130012 130.6584997 108.4929988 100.2630012 130.7634997 108.5439988
 101.5650012 131.4784997 108.8369988 101.1304195 130.7838800 108.5465502
 106.5890012 125.8844997 114.9629988 106.1630012 125.6574997 115.7899988
 107.1690012 125.1464997 114.7809988 106.6091868 125.7535299 115.0515830
 108.7920012 126.8134997 104.0369988 109.1450012 126.4334997 104.8409988
 107.8430012 126.7204997 104.1239988 108.7120918 126.7488956 104.1588532
 109.2470012 130.4364997 117.4329988 108.6460012 129.8814997 116.9369988
 109.5290012 131.1034997 116.8059988 109.2028804 130.4506625 117.2804849
 113.2950012 131.2934997 104.2379988 114.0390012 131.8794997 104.0979988
 112.6010012 131.8614997 104.5709988 113.3029899 131.4505798 104.2638778
  97.3700012 117.6694997 116.8399988  96.4770012 118.0084997 116.7719988
  97.2710012 116.8144997 117.2579988  97.2344164 117.6002588 116.8872235
 109.6580012 125.4864997 106.2639988 109.3800012 124.7584997 106.8199988
 110.5850012 125.6054997 106.4689988 109.7453124 125.4028802 106.3678845
  97.0210012 129.4744997 115.2749988  97.2380012 128.5424997 115.2439988
  97.2670012 129.7484997 116.1579988  97.0839549 129.3840636 115.3901763
 102.8830012 127.9254997 102.4839988 103.1220012 127.1774997 101.9369988
 102.6140012 127.5374997 103.3169988 102.8793675 127.7706638 102.5216865
 101.8200012 127.4954997 104.9399988 101.9660012 126.9754997 105.7299988
 101.8170012 128.4024997 105.2469988 101.8395792 127.5468842 105.0896117
 106.1040012 117.4104997 115.7299988 106.8030012 117.4844997 116.3799988
 105.7230012 116.5464997 115.8839988 106.1481767 117.3037624 115.8398322
 106.8890012 117.0624997 106.8269988 107.1090012 117.5344997 106.0239988
 107.4470012 117.4574997 107.4969988 106.9944968 117.1804285 106.8077331
 104.5570012 129.1934997 105.6899988 103.7410012 129.6904997 105.7419988
 105.0870012 129.6684997 105.0499988 104.5169161 129.3257722 105.6105956
 104.0890012 118.7904997 107.6619988 104.9010012 119.2954997 107.7079988
 103.8440012 118.6454997 108.5759988 104.1670520 118.8400375 107.7918517
 104.6240012 119.7764997 116.8459988 104.7430012 120.3504997 117.6039988
 105.2800012 119.0884997 116.9609988 104.7289025 119.7619858 116.9651321
 104.9720012 115.8714997 108.5999988 104.6260012 116.4894997 109.2439988
 105.6310012 116.3724997 108.1179988 105.0136968 116.0236278 108.6229383
 101.8960012 130.2374997 105.6709988 102.0560012 131.0364997 105.1709988
 101.6980012 130.5434997 106.5559988 101.8911637 130.3884020 105.7221144
 100.6300012 116.9344997 105.2869988 100.5470012 117.8234997 105.6339988
 101.5200012 116.6694997 105.5189988 100.7389469 117.0201430 105.3657626
 110.8290012 117.6834997 117.6809988 109.9120012 117.9464997 117.5939988
 111.1640012 117.6804997 116.7849988 110.7488613 117.7190761 117.5478837
 109.4310012 121.4344997 111.7769988 108.6330012 121.0194997 111.4489988
 109.8760012 120.7434997 112.2679988 109.3819885 121.2843543 111.7984889
  98.8890012 127.3624997 104.3479988  99.4810012 128.0614997 104.6239988
  99.3480012 126.9294997 103.6279988  99.0321142 127.3997049 104.2884830
 110.5170012 130.6904997 113.3999988 110.3620012 131.3684997 112.7419988
 111.4500012 130.7624997 113.6029988 110.6218657 130.7929546 113.3374360
  98.0130012 114.8084997 112.1369988  97.7840012 114.8674997 111.2089988
  97.5700012 114.0164997 112.4429988  97.9218530 114.7095753 112.0514786
  96.9430012 128.7484997 108.2969988  96.1110012 129.2214997 108.3239988
  97.4890012 129.2584997 107.6989988  96.9030352 128.8821332 108.2198463
  96.2310012 131.3614997 119.6269988  96.7720012 131.1444997 120.3869988
  95.7500012 130.5554997 119.4369988  96.2399951 131.2229270 119.7052576
 100.8290012 130.2804997 121.2469988 101.5960012 129.8214997 121.5879988
 100.8070012 130.0544997 120.3179988 100.9311275 130.1870186 121.1680101
 104.9210012 129.7884997 102.6229988 104.2770012 129.1574997 102.9439988
 105.6830012 129.2574997 102.3909988 104.9358077 129.6302920 102.6356011
 107.4060012 128.6604997 119.9769988 107.0550012 127.8044997 120.2199988
 108.1320012 128.8034997 120.5839988 107.4560769 128.5625636 120.0923619
  96.1380012 125.1714997 120.5809988  96.2820012 124.2694997 120.2949988
  95.3660012 125.4574997 120.0939988  96.0532753 125.0866816 120.4759505
 102.7940012 125.1414997 120.0139988 102.4650012 125.4124997 119.1569988
 102.9460012 124.2004997 119.9269988 102.7694809 125.0513862 119.8848244
 105.8320012 126.5624997 102.4499988 105.5630012 126.7424997 103.3509988
 105.6260012 125.6364997 102.3179988 105.7673427 126.4620261 102.5555073
 108.5280012 125.0574997 117.3969988 109.2740012 125.6454997 117.2779988
 107.7710012 125.6394997 117.4609988 108.5277820 125.2167143 117.3893590
  96.9710012 122.3714997 120.0009988  97.3790012 121.5144997 119.8799988
  96.7110012 122.3864997 120.9219988  96.9917568 122.2560807 120.1089588
 101.6290012 123.4874997 105.0199988 101.1690012 123.0034997 105.7059988
 101.8840012 122.8194997 104.3839988 101.6004902 123.3308731 105.0279334
 100.9180012 121.3804997 117.3759988 100.3000012 122.0554997 117.6559988
 101.2620012 121.7014997 116.5419988 100.8799132 121.5162411 117.3016262
 102.7000012 121.7304997 103.2819988 102.5200012 121.5764997 102.3549988
 103.6500012 121.8384997 103.3269988 102.8037776 121.7240175 103.1611843
 105.9380012 123.8524997 120.6529988 106.8910012 123.9354997 120.6259988
 105.7770012 123.1404997 121.2729988 106.0466426 123.7676746 120.7330579
 112.0900012 124.0854997 102.7279988 111.8160012 123.6604997 101.9149988
 112.1290012 125.0164997 102.5109988 112.0577699 124.1532484 102.5873610
 101.2570012 118.7354997 118.4579988 101.4070012 118.0064997 117.8559988
 101.2600012 119.5124997 117.8989988 101.2779302 118.7407851 118.3000692
 101.6700012 117.1054997 115.9509988 102.2060012 117.5564997 115.2989988
 100.8180012 116.9974997 115.5279988 101.6282178 117.1526390 115.8045756
 103.2520012 122.5444997 116.1899988 104.0020012 122.3884997 115.6169988
 102.9130012 123.3964997 115.9149988 103.3088921 122.6382968 116.0743561
 107.6670012 120.3594997 121.2189988 107.8600012 119.4284997 121.1069988
 108.5250012 120.7844997 121.2079988 107.8092934 120.2896531 121.2022031
 108.9840012 123.1484997 119.2959988 108.7030012 123.8574997 118.7179988
 109.9270012 123.0754997 119.1449988 109.0729291 123.2356711 119.1964967
  99.7360012 119.9334997 120.3699988  98.9690012 119.4014997 120.1589988
 100.4150012 119.6234997 119.7699988  99.7227877 119.8188300 120.2600716
 102.4760012 114.5614997 116.3819988 102.3770012 115.5084997 116.2769988
 101.7330012 114.1894997 115.9059988 102.3621184 114.6405863 116.3033621
 103.7400012 118.8834997 119.9459988 103.5040012 118.6634997 120.8469988
 102.9560012 118.6764997 119.4359988 103.6018504 118.8254586 120.0003431
 106.4550012 118.0104997 119.0209988 105.5080012 118.0424997 119.1539988
 106.7680012 117.3854997 119.6749988 106.3676707 117.9303998 119.1276060
 108.0890012 116.6444997 121.0269988 107.9930012 115.6924997 121.0209988
 107.7680012 116.9134997 121.8869988 108.0324070 116.5504035 121.1425441
  97.9160012 117.8544997 120.0739988  98.1280012 117.1474997 119.4639988
  97.8050012 117.4164997 120.9179988  97.9299721 117.6987084 120.1046843
 102.6970012 113.8554997 119.0529988 103.4090012 113.2154997 119.0389988
 102.5960012 114.1224997 118.1399988 102.7808066 113.8040079 118.9275677
 103.0510012 115.5384997 121.1069988 102.9190012 115.0624997 120.2869988
 102.4520012 116.2824997 121.0519988 102.9519071 115.5739618 120.9872886
 102.5970012 132.4214997 104.2829988 103.5300012 132.5794997 104.4269988
 102.3330012 133.0964997 103.6589988 102.6889888 132.5344510 104.2182842
  96.1660012 127.0574997 103.7659988  97.0800012 127.1364997 104.0399988
  96.1730012 126.3704997 103.0999988  96.2921131 126.9753961 103.7134393
  94.8150012 132.4504997 108.8439988  94.1680012 131.9884997 108.3109988
  95.1690012 131.7784997 109.4259988  94.7743849 132.2964723 108.8497959
  95.6850012 130.5314997 110.6479988  95.3500012 129.6514997 110.8199988
  95.9070012 130.8764997 111.5129988  95.6691783 130.4577500 110.7884208
 113.2330012 131.3404997 113.6289988 113.2120012 131.5254997 114.5679988
 113.9240012 131.9094997 113.2879988 113.3234618 131.4426606 113.7113864
 112.7970012 130.9084997 116.5509988 112.3090012 130.1724997 116.1789988
 113.3460012 130.5144997 117.2289988 112.8044820 130.7545889 116.5917813
 111.2470012 126.6974997 121.1889988 110.3810012 126.5924997 121.5829988
 111.6240012 127.4564997 121.6349988 111.1793308 126.7856900 121.3032393
 112.5480012 124.9544997 106.7029988 113.3980012 125.3754997 106.8299988
 112.5540012 124.2144997 107.3099988 112.6651372 124.9120803 106.8024344
 112.9430012 123.0074997 108.5259988 112.2160012 122.5284997 108.9239988
 113.5240012 123.2134997 109.2589988 112.9220473 122.9698103 108.6794528
 112.7020012 125.7924997 113.4739988 113.5350012 125.4144997 113.1939988
 112.8140012 126.7354997 113.3549988 112.8312647 125.8682218 113.4195487
 111.1880012 128.6704997 115.7809988 110.5410012 128.9954997 116.4069988
 110.6710012 128.2304997 115.1069988 111.0294029 128.6555004 115.7755827
 113.2110012 122.9084997 104.9179988 112.6890012 123.2654997 104.1989988
 113.1780012 123.5834997 105.5959988 113.1351634 123.0485413 104.9113145
 110.7290012 121.5284997 109.0889988 110.5790012 120.5834997 109.0689988
 110.3760012 121.8094997 109.9329988 110.6607448 121.4371481 109.2003705
  95.7650012 123.6064997 113.0999988  95.9490012 123.5244997 112.1639988
  96.6140012 123.4824997 113.5229988  95.9050151 123.5785073 113.0291451
 111.5860012 123.4984997 118.7279988 112.1690012 122.7644997 118.9199988
 112.1500012 124.2704997 118.7749988 111.7419769 123.5024227 118.7606159
 113.0820012 121.4014997 119.4129988 112.2190012 121.0224997 119.2469988
 113.6870012 120.6624997 119.3379988 113.0456119 121.2498268 119.3801528
 110.4400012 119.1114997 107.5519988 110.7200012 118.2044997 107.6759988
 111.1990012 119.5454997 107.1629988 110.5809277 119.0460942 107.5163682
 111.0520012 119.6924997 112.9879988 111.9850012 119.9044997 112.9529988
 110.8170012 119.7944997 113.9099988 111.1479244 119.7353100 113.1078892
 111.0810012 120.4294997 115.7639988 110.2380012 120.6974997 116.1299988
 111.5230012 121.2514997 115.5529988 111.0254158 120.5773291 115.7855491
  95.3620012 118.8774997 119.2409988  96.2820012 118.7554997 119.4769988
  94.9130012 118.1274997 119.6299988  95.4271580 118.7593727 119.3259006
 113.3640012 114.4094997 121.1169988 113.7140012 113.7554997 120.5119988
 113.5110012 115.2464997 120.6769988 113.4317887 114.4331548 120.9746858
 111.0530012 116.3744997 107.5999988 111.2360012 115.9254997 108.4259988
 110.4540012 115.7894997 107.1369988 110.9970202 116.2339975 107.6503275
  96.5830012 117.1894997 112.1319988  97.0290012 116.3974997 112.4339988
  97.0500012 117.9054997 112.5619988  96.7070831 117.1780685 112.2314006
  94.8870012 120.1884997 113.2009988  95.3790012 119.9674997 112.4099988
  95.2500012 121.0294997 113.4819988  95.0033126 120.2718357 113.1307531
 112.8840012 116.5184997 119.4659988 111.9660012 116.7894997 119.4309988
 113.0070012 115.9834997 118.6819988 112.7749729 116.4832508 119.3551923
  95.2010012 116.4464997 107.2549988  94.2760012 116.6554997 107.1259988
  95.6550012 116.9304997 106.5649988  95.1357292 116.5405343 107.1440720
 109.9720012 131.4304997 109.2009988 110.6240012 131.0834997 108.5929988
 110.4820012 131.9194997 109.8469988 110.1302637 131.4490597 109.2050236
  95.1650012 115.1844997 115.5989988  94.5000012 114.9384997 116.2429988
  94.7220012 115.8064997 115.0219988  95.0141318 115.2349410 115.6090898
  97.3570012 128.3594997 119.7439988  96.5360012 128.5344997 119.2829988
  97.1040012 128.2864997 120.6639988  97.2105585 128.3735544 119.8053561
 100.3110012 129.3344997 116.0019988  99.8860012 130.1434997 115.7199988
 101.2150012 129.4194997 115.6999988 100.3749975 129.4569300 115.9224816
 104.6220012 130.7334997 118.9619988 104.8070012 130.3994997 119.8399988
 105.4680012 131.0424997 118.6399988 104.7617539 130.7296047 119.0385605
 106.9670012 132.0194997 118.2059988 107.6440012 131.3864997 117.9659988
 107.2890012 132.4204997 119.0129988 107.1031637 131.9871154 118.2822793
 111.8840012 114.6084997 117.2849988 111.0720012 114.9334997 116.8979988
 112.1170012 113.8484997 116.7519988 111.8042203 114.5502758 117.1598880
  97.7130012 132.5904997 116.0499988  96.9920012 133.0304997 115.5989988
  97.3470012 132.3394997 116.8979988  97.5649651 132.6167242 116.1029640
 100.1800012 132.1904997 115.0799988  99.3150012 132.2624997 115.4839988
 100.1250012 132.7374997 114.2959988 100.0542085 132.2742685 115.0293362
 104.8900012 132.0784997 114.2549988 104.4340012 132.6074997 113.6009988
 105.0530012 132.6814997 114.9799988 104.8496068 132.2324607 114.2634838
 107.2180012 130.9564997 115.1999988 106.3130012 131.1214997 114.9339988
 107.6470012 131.8094997 115.1349988 107.1521324 131.0944339 115.1547976
 109.8220012 132.5264997 115.4949988 109.6400012 133.4424997 115.2849988
 109.9990012 132.1164997 114.6489988 109.8210210 132.5964822 115.3517885
  97.1270012 131.2134997 112.9599988  97.1090012 130.7884997 113.8169988
  97.9320012 130.8954997 112.5509988  97.2333529 131.1123013 113.0220946
  99.2690012 129.9234997 111.6149988  99.0500012 129.0074997 111.7849988
 100.0930012 130.0634997 112.0809988  99.3504420 129.8170520 111.7012774
 101.8060012 130.3934997 112.4639988 102.0190012 129.5054997 112.1769988
 101.8700012 130.3594997 113.4179988 101.8438232 130.2673102 112.5537397
 105.3140012 116.0574997 111.6079988 104.6400012 115.4284997 111.8639988
 105.8780012 115.5734997 111.0049988 105.2979230 115.9058744 111.5615340
 110.4570012 114.1654997 111.7209988 111.0610012 114.7124997 111.2189988
 109.5870012 114.4844997 111.4799988 110.4221208 114.2835137 111.6196886
 112.1840012 115.3034997 110.0539988 112.7960012 114.7894997 109.5269988
 112.5660012 116.1814997 110.0769988 112.3193371 115.3517866 109.9850041
  97.6410012 114.6914997 109.4299988  96.8640012 114.4574997 108.9229988
  98.1710012 113.8944997 109.4389988  97.6062330 114.5516988 109.3617742
  96.4770012 114.4894997 105.2339988  96.9160012 115.1004997 104.6419988
  95.8440012 115.0274997 105.7079988  96.4514514 114.6459257 105.2170930
 102.2200012 114.6184997 109.2439988 103.0950012 115.0064997 109.2139988
 102.0840012 114.4034997 110.1659988 102.3213695 114.6425184 109.3646440
 107.7770012 114.6484997 110.8929988 107.8530012 114.7434997 109.9429988
 107.5020012 113.7404997 111.0219988 107.7502321 114.5387867 110.7805079
 109.1300012 114.6744997 106.5849988 108.4280012 115.2894997 106.3749988
 108.6860012 113.8364997 106.7159988 108.9736450 114.6455639 106.5739000
  96.3780012 130.4374997 106.1309988  95.6930012 130.3994997 105.4639988
  96.3820012 131.3504997 106.4199988  96.2846998 130.5556733 106.0786771
 103.3640012 116.6984997 106.1329988 103.5420012 116.0524997 106.8159988
 103.3110012 117.5324997 106.5999988 103.3811999 116.7228009 106.2895917
 111.9520012 131.2104997 107.2079988 111.7570012 130.4624997 106.6429988
 111.9130012 131.9684997 106.6249988 111.9200380 131.2106099 107.0518384
  97.5990012 115.2054997 118.9479988  97.2330012 114.4404997 119.3899988
  98.5120012 115.2344997 119.2339988  97.6722736 115.1045640 119.0472502
  99.5720012 114.5564997 120.4839988 100.4700012 114.2824997 120.2989988
  99.1850012 113.8134997 120.9479988  99.6426612 114.4185914 120.5213643
 107.9930012 113.8884997 120.6659988 108.0700012 113.4624997 121.5199988
 108.8870012 113.9024997 120.3229988 108.1243428 113.8320879 120.7365310
 111.1690012 129.9614997 119.3579988 110.3870012 129.7754997 118.8379988
 111.0970012 130.8904997 119.5759988 111.0522274 130.0616643 119.3163018
 125.5750012 123.8474997 109.3889988 125.6640012 124.7914997 109.2569988
 124.9370012 123.5724997 108.7309988 125.5009081 123.9394830 109.2819614
 124.5080012 123.1024997 112.8079988 124.4700012 122.4564997 113.5129988
 124.1860012 122.6364997 112.0369988 124.4592333 122.9509408 112.8002978
 116.8770012 122.7174997 114.4009988 116.9180012 122.0914997 115.1239988
 117.5800012 123.3414997 114.5829988 116.9776363 122.7161196 114.5246044
 128.2140012 126.0414997 111.1089988 127.7740012 125.3214997 111.5599988
 128.2010012 126.7624997 111.7389988 128.1520226 126.0403731 111.2558494
 117.8000012 127.1674997 112.9359988 117.4310012 126.3654997 112.5659988
 118.7410012 126.9984997 112.9819988 117.8767289 127.0350153 112.8916316
 114.4100012 120.8274997 108.3289988 113.9630012 121.6734997 108.3099988
 113.8490012 120.2474997 107.8129988 114.2729900 120.8649916 108.2566801
 115.1210012 122.9894997 110.4539988 115.3340012 122.2194997 110.9819988
 115.8590012 123.0784997 109.8509988 115.2499044 122.8961968 110.4447123
 125.3260012 131.1464997 111.3209988 125.9460012 130.4694997 111.0479988
 125.1180012 130.9284997 112.2299988 125.3826726 131.0244800 111.4064812
 122.8980012 125.5354997 113.2139988 123.2020012 124.8494997 112.6189988
 123.6190012 125.6534997 113.8319988 123.0370671 125.4576305 113.2161816
 131.5610012 117.1364997 114.0749988 131.6100012 117.7464997 114.8099988
 131.9860012 117.5974997 113.3519988 131.6251746 117.2823796 114.0779175
 126.0390012 119.9294997 113.5409988 126.1810012 118.9834997 113.5619988
 125.9320012 120.1364997 112.6129988 126.0439919 119.8278246 113.4183408
 119.1930012 118.0304997 110.8139988 119.2370012 118.8904997 110.3949988
 118.7360012 117.4784997 110.1799988 119.1372240 118.0734422 110.6709864
 126.9160012 118.1614997 109.2149988 127.5620012 117.8324997 109.8389988
 127.4260012 118.6794997 108.5919988 127.0734299 118.1864450 109.2162731
 115.8140012 120.4274997 111.5759988 116.4670012 119.8774997 112.0079988
 115.8380012 120.1534997 110.6589988 115.9066683 120.3151466 111.5112123
 120.9700012 121.9774997 110.7909988 121.5860012 121.4514997 111.3009988
 120.3840012 121.3374997 110.3879988 120.9750810 121.8189208 110.8063173
 131.9520012 118.6144997 116.3099988 131.2640012 119.2724997 116.2149988
 131.9680012 118.4174997 117.2469988 131.8599540 118.6779819 116.4235990
 118.0040012 116.9484997 114.8879988 117.7850012 117.4784997 114.1219988
 117.3360012 117.1754997 115.5349988 117.8837600 117.0516906 114.8706379
 125.3730012 126.4484997 108.4319988 125.0770012 126.1264997 107.5809988
 125.0480012 127.3484997 108.4729988 125.2886371 126.5260215 108.3211801
 120.5730012 124.6244997 115.1749988 119.8330012 125.2224997 115.2789988
 121.2870012 125.1784997 114.8599988 120.5682237 124.7812831 115.1466465
 128.6800012 117.4524997 111.1949988 128.4640012 116.6864997 111.7279988
 129.3350012 117.9244997 111.7079988 128.7390632 117.4115889 111.3372861
 117.5970012 118.8404997 112.8399988 118.2110012 119.4734997 113.2129988
 118.1090012 118.3684997 112.1839988 117.7501981 118.8632267 112.8022908
 118.9800012 126.5884997 115.9619988 118.9750012 127.4684997 115.5839988
 118.1270012 126.5054997 116.3869988 118.8639464 126.6976117 115.9677907
 115.1010012 126.2594997 106.7439988 114.8290012 126.4884997 105.8559988
 115.1470012 127.0974997 107.2049988 115.0699482 126.4041318 106.6846273
 128.7260012 127.8814997 113.4569988 127.7850012 127.9394997 113.6189988
 129.0030012 128.7874997 113.3199988 128.6344679 128.0119443 113.4606815
 129.0270012 116.1674997 114.8749988 128.2910012 116.7784997 114.8369988
 129.7100012 116.5824997 114.3479988 129.0186541 116.3071374 114.7985832
 122.0300012 114.2544997 112.3399988 121.9130012 113.3054997 112.2859988
 121.1750012 114.5864997 112.6139988 121.8984212 114.1695571 112.3696497
 126.9780012 129.6624997 110.0819988 127.4040012 128.9554997 109.5969988
 127.2950012 130.4634997 109.6659988 127.0791683 129.6741017 109.9593680
 128.1380012 127.5634997 108.5909988 127.8800012 126.8734997 107.9799988
 128.2090012 127.1204997 109.4369988 128.1122856 127.4092124 108.6216885
 129.8240012 126.1294997 117.0679988 129.9640012 125.5384997 116.3289988
 129.9910012 127.0024997 116.7119988 129.8657411 126.1665428 116.9186894
 124.2970012 123.0914997 106.8409988 123.5850012 123.6264997 106.4889988
 124.9880012 123.1474997 106.1809988 124.2930132 123.1722543 106.7036289
 131.6660012 122.4694997 115.1339988 131.0130012 123.1644997 115.2239988
 132.1310012 122.6794997 114.3249988 131.6395274 122.5930643 115.0368462
 127.7020012 123.3014997 107.7929988 126.9700012 123.5294997 108.3659988
 128.1500012 122.5874997 108.2469988 127.6622725 123.2362145 107.9328816
 127.6000012 121.4754997 116.8599988 127.6800012 122.2384997 117.4319988
 126.9980012 121.7544997 116.1699988 127.5295756 121.6177134 116.8450589
 119.3480012 123.9314997 109.6749988 119.0170012 123.5614997 108.8569988
 119.9360012 123.2614997 110.0219988 119.3821873 123.7901156 109.6098102
 120.7140012 127.3594997 112.3559988 120.6200012 126.7814997 111.5999988
 121.4440012 126.9884997 112.8529988 120.7997387 127.2301663 112.3195342
 119.7140012 122.7004997 113.3089988 120.2800012 122.8214997 112.5459988
 120.0330012 123.3374997 113.9469988 119.8345474 122.8032219 113.2909862
 126.0230012 128.2034997 114.0429988 125.7830012 128.8654997 114.6909988
 125.8250012 127.3694997 114.4679988 125.9633808 128.1813134 114.1891524
 120.5940012 127.0994997 118.0259988 120.2830012 127.8814997 118.4809988
 119.9440012 126.9464997 117.3399988 120.4635558 127.1859105 117.9955871
 126.5730012 122.4634997 105.4779988 127.1530012 122.6134997 106.2249988
 126.9870012 122.9344997 104.7539988 126.7082997 122.5476578 105.4824058
 117.5140012 123.2974997 117.2539988 117.5850012 123.9484997 117.9529988
 116.6240012 123.4004997 116.9189988 117.4033005 123.4005427 117.3043495
 124.3000012 129.2004997 108.9129988 124.7740012 129.4954997 109.6899988
 123.7370012 129.9384997 108.6799988 124.2888184 129.3407247 108.9879628
 118.8340012 129.1714997 118.7889988 118.8410012 129.0354997 117.8419988
 117.9180012 129.0534997 119.0409988 118.7111714 129.1369430 118.6934666
 130.2720012 114.2134997 105.2909988 129.3720012 114.3524997 105.5859988
 130.5240012 115.0444997 104.8889988 130.1828702 114.3449074 105.2770205
 118.3380012 123.0014997 107.2639988 118.0460012 123.7694997 106.7739988
 117.6640012 122.3414997 107.1019988 118.2068111 123.0175587 107.1748978
 114.4310012 125.3644997 116.0789988 113.9300012 125.3364997 115.2639988
 114.4360012 124.4584997 116.3889988 114.3630944 125.2382396 116.0093226
 114.1810012 128.1444997 112.9629988 115.1270012 128.0004997 112.9439988
 114.0690012 128.9284997 113.4999988 114.2952727 128.2308046 113.0330072
 132.3790012 128.8104997 118.6459988 132.3300012 127.8554997 118.6089988
 131.5520012 129.0784997 119.0469988 132.2604940 128.7158998 118.6951375
 123.3580012 128.3844997 117.5219988 123.4450012 129.2104997 117.9969988
 122.4940012 128.0544997 117.7709988 123.2531964 128.4529878 117.6206549
 123.7720012 132.1564997 107.3279988 123.6970012 132.0354997 106.3809988
 123.8050012 133.1064997 107.4459988 123.7662068 132.2682646 107.2144967
 117.4250012 130.9454997 109.1089988 117.5780012 130.5974997 109.9869988
 116.5750012 130.5894997 108.8539988 117.3309166 130.8496216 109.1948079
 126.8740012 131.3104997 104.3299988 127.2490012 130.5664997 103.8589988
 126.8780012 131.0404997 105.2489988 126.9259125 131.1720986 104.3896483
 126.5430012 131.2364997 107.0789988 125.6070012 131.3364997 107.2579988
 126.8230012 130.5274997 107.6579988 126.4529553 131.1543406 107.1817087
 129.5310012 120.3034997 119.1259988 129.1240012 120.7844997 118.4049988
 129.5720012 119.3984997 118.8179988 129.4808437 120.2469374 118.9856683
 116.6800012 126.6874997 117.1229988 116.8960012 126.3264997 117.9819988
 115.8250012 126.3134997 116.9129988 116.5939292 126.5874111 117.2123386
 119.2990012 115.1574997 113.1179988 118.4370012 115.0704997 112.7099988
 119.2760012 116.0134997 113.5459988 119.1780409 115.2612883 113.1200589
 123.9620012 114.8794997 116.4929988 124.3820012 114.4644997 117.2459988
 123.0290012 114.7014997 116.6099988 123.8933644 114.7985900 116.6119539
 127.2880012 118.6354997 117.3459988 126.7740012 118.5094997 118.1439988
 127.1330012 119.5474997 117.1019988 127.1966852 118.7416132 117.4222158
 119.3900012 120.1234997 114.2129988 118.7480012 120.0824997 114.9219988
 119.4270012 121.0494997 113.9749988 119.3070664 120.2431430 114.2779219
 119.3870012 120.3444997 109.1249988 118.4940012 120.0034997 109.0659988
 119.8370012 119.9674997 108.3689988 119.3258130 120.2469631 109.0147702
 124.9220012 120.7604997 107.9419988 124.5130012 121.5754997 107.6509988
 125.6430012 120.6204997 107.3279988 124.9634537 120.8532018 107.8191342
 124.0240012 120.9354997 119.4299988 123.4620012 120.2314997 119.7509988
 124.8510012 120.8154997 119.8979988 124.0587095 120.8227883 119.5372330
 125.9270012 120.2064997 110.7559988 125.7320012 120.8114997 110.0409988
 126.1080012 119.3724997 110.3219988 125.9247614 120.1766300 110.5994405
 117.1400012 120.4434997 116.0799988 117.1020012 120.8434997 116.9489988
 116.6490012 119.6264997 116.1709988 117.0684684 120.3878069 116.2111059
 113.7480012 117.5594997 109.9309988 114.3790012 117.5304997 110.6499988
 114.1970012 117.1344997 109.1999988 113.8950918 117.4980836 109.9306441
 115.0220012 118.3054997 105.3549988 115.4960012 118.8964997 104.7699988
 114.3050012 118.8364997 105.7019988 114.9899341 118.4580867 105.3218836
 125.1910012 121.8444997 115.4269988 125.5140012 121.2134997 114.7839988
 124.7510012 121.3094997 116.0879988 125.1757484 121.6858387 115.4283198
 121.9680012 117.7714997 110.2109988 121.0570012 117.8284997 110.4999988
 122.4740012 117.7114997 111.0219988 121.9116899 117.7711941 110.3601184
 116.7970012 119.4004997 109.0379988 115.9070012 119.5004997 108.6979988
 117.0930012 118.5584997 108.6919988 116.7152823 119.3003545 108.9447213
 120.4500012 119.4004997 106.6949988 121.3810012 119.5294997 106.8729988
 120.2350012 120.0704997 106.0449988 120.5484247 119.5086565 106.6315747
 126.3730012 117.0064997 113.4759988 125.6970012 117.1374997 114.1399988
 125.8880012 116.8514997 112.6649988 126.2147146 117.0035157 113.4574469
 119.1240012 120.5954997 104.2609988 118.5810012 120.2154997 103.5699988
 119.9570012 120.7894997 103.8329988 119.1623631 120.5697125 104.1084501
 129.6610012 132.6784997 119.7519988 129.8610012 133.1024997 118.9179988
 130.3160012 133.0214997 120.3589988 129.7770072 132.7829857 119.7198592
 117.2590012 125.1524997 119.3599988 117.9910012 125.4064997 119.9219988
 116.4790012 125.3564997 119.8759988 117.2537073 125.2148160 119.5066151
 123.2880012 120.5594997 112.0979988 123.8530012 120.0124997 111.5509988
 123.1410012 120.0374997 112.8869988 123.3453380 120.4142259 112.1298695
 118.2900012 116.6954997 108.5169988 117.9730012 115.7934997 108.4809988
 119.0720012 116.6974997 107.9639988 118.3522408 116.5722474 108.4373569
 121.9150012 118.9474997 114.5119988 121.0790012 119.4014997 114.6229988
 122.4390012 119.2234997 115.2639988 121.8715416 119.0468660 114.6288119
 122.4590012 125.1604997 106.1969988 121.7140012 124.6534997 105.8749988
 122.3250012 125.2094997 107.1439988 122.3388776 125.0976940 106.2808647
 129.6090012 124.2934997 114.9839988 130.2510012 124.7504997 114.4399988
 128.7790012 124.4064997 114.5209988 129.5845963 124.3712704 114.8470177
 123.9780012 125.3444997 117.4339988 123.6330012 124.9634997 118.2409988
 123.7780012 126.2784997 117.5049988 123.9037527 125.4185135 117.5540689
 127.0750012 119.8414997 106.0569988 127.9670012 119.7044997 106.3759988
 127.1320012 120.6324997 105.5199988 127.2046504 119.9296052 106.0280818
 117.5840012 124.4554997 111.9669988 118.3290012 124.4534997 111.3659988
 117.6620012 123.6324997 112.4479988 117.6964995 124.3438887 111.9498282
 124.5850012 126.6194997 105.2229988 124.2890012 127.4454997 105.6039988
 123.8820012 125.9994997 105.4189988 124.4494914 126.6488199 105.3016443
 114.5920012 122.9164997 117.2819988 114.8150012 122.4984997 118.1139988
 113.9900012 122.3034997 116.8589988 114.5411759 122.7764668 117.3387022
 121.6080012 122.4334997 119.4949988 121.3120012 122.2674997 118.5999988
 122.5400012 122.2134997 119.4839988 121.6934166 122.3810640 119.3710536
 126.2290012 127.8064997 117.3849988 125.3280012 127.9894997 117.1169988
 126.2630012 128.0654997 118.3049988 126.1103139 127.8665849 117.4728099
 131.9230012 125.8514997 118.5889988 131.0720012 126.0894997 118.2219988
 132.5140012 125.8344997 117.8359988 131.8862487 125.8818258 118.4368893
 130.2550012 128.8374997 106.2169988 129.8820012 128.0114997 106.5259988
 130.5330012 128.6544997 105.3189988 130.2415222 128.6997430 106.1379473
 127.4160012 123.6454997 113.2379988 126.4870012 123.4134997 113.2109988
 127.8670012 122.8684997 112.9079988 127.3499216 123.5087238 113.1896917
 119.9590012 127.9734997 109.3709988 120.4860012 128.7464997 109.1709988
 119.0790012 128.1984997 109.0689988 119.9122031 128.1097545 109.3027912
 115.7140012 122.8354997 103.9579988 116.3300012 123.4624997 104.3379988
 114.8520012 123.1514997 104.2299988 115.6817698 122.9639430 104.0467183
 121.3860012 125.6364997 108.9469988 121.1450012 126.5614997 108.9889988
 120.6450012 125.1774997 109.3439988 121.2529225 125.7010933 109.0063742
 121.9010012 129.7854997 115.2629988 122.2630012 130.6404997 115.0289988
 122.4320012 129.4934997 116.0029988 122.0224473 129.8631060 115.3310855
 120.0690012 130.6584997 108.4929988 119.1190012 130.7634997 108.5439988
 120.4210012 131.4784997 108.8369988 119.9864195 130.7838800 108.5465502
 125.4450012 125.8844997 114.9629988 125.0190012 125.6574997 115.7899988
 126.0250012 125.1464997 114.7809988 125.4651868 125.7535299 115.0515830
 128.1030012 130.4364997 117.4329988 127.5020012 129.8814997 116.9369988
 128.3850012 131.1034997 116.8059988 128.0588804 130.4506625 117.2804849
 116.2260012 117.6694997 116.8399988 115.3330012 118.0084997 116.7719988
 116.1270012 116.8144997 117.2579988 116.0904164 117.6002588 116.8872235
 128.5140012 125.4864997 106.2639988 128.2360012 124.7584997 106.8199988
 129.4410012 125.6054997 106.4689988 128.6013124 125.4028802 106.3678845
 115.8770012 129.4744997 115.2749988 116.0940012 128.5424997 115.2439988
 116.1230012 129.7484997 116.1579988 115.9399549 129.3840636 115.3901763
 121.7390012 127.9254997 102.4839988 121.9780012 127.1774997 101.9369988
 121.4700012 127.5374997 103.3169988 121.7353675 127.7706638 102.5216865
 120.6760012 127.4954997 104.9399988 120.8220012 126.9754997 105.7299988
 120.6730012 128.4024997 105.2469988 120.6955792 127.5468842 105.0896117
 124.9600012 117.4104997 115.7299988 125.6590012 117.4844997 116.3799988
 124.5790012 116.5464997 115.8839988 125.0041767 117.3037624 115.8398322
 125.7450012 117.0624997 106.8269988 125.9650012 117.5344997 106.0239988
 126.3030012 117.4574997 107.4969988 125.8504968 117.1804285 106.8077331
 123.4130012 129.1934997 105.6899988 122.5970012 129.6904997 105.7419988
 123.9430012 129.6684997 105.0499988 123.3729161 129.3257722 105.6105956
 122.9450012 118.7904997 107.6619988 123.7570012 119.2954997 107.7079988
 122.7000012 118.6454997 108.5759988 123.0230520 118.8400375 107.7918517
 123.4800012 119.7764997 116.8459988 123.5990012 120.3504997 117.6039988
 124.1360012 119.0884997 116.9609988 123.5849025 119.7619858 116.9651321
 123.8280012 115.8714997 108.5999988 123.4820012 116.4894997 109.2439988
 124.4870012 116.3724997 108.1179988 123.8696968 116.0236278 108.6229383
 120.7520012 130.2374997 105.6709988 120.9120012 131.0364997 105.1709988
 120.5540012 130.5434997 106.5559988 120.7471637 130.3884020 105.7221144
 129.6850012 117.6834997 117.6809988 128.7680012 117.9464997 117.5939988
 130.0200012 117.6804997 116.7849988 129.6048613 117.7190761 117.5478837
 128.2870012 121.4344997 111.7769988 127.4890012 121.0194997 111.4489988
 128.7320012 120.7434997 112.2679988 128.2379885 121.2843543 111.7984889
 129.3730012 130.6904997 113.3999988 129.2180012 131.3684997 112.7419988
 130.3060012 130.7624997 113.6029988 129.4778657 130.7929546 113.3374360
 116.8690012 114.8084997 112.1369988 116.6400012 114.8674997 111.2089988
 116.4260012 114.0164997 112.4429988 116.7778530 114.7095753 112.0514786
 115.7990012 128.7484997 108.2969988 114.9670012 129.2214997 108.3239988
 116.3450012 129.2584997 107.6989988 115.7590352 128.8821332 108.2198463
 115.0870012 131.3614997 119.6269988 115.6280012 131.1444997 120.3869988
 114.6060012 130.5554997 119.4369988 115.0959951 131.2229270 119.7052576
 119.6850012 130.2804997 121.2469988 120.4520012 129.8214997 121.5879988
 119.6630012 130.0544997 120.3179988 119.7871275 130.1870186 121.1680101
 126.2620012 128.6604997 119.9769988 125.9110012 127.8044997 120.2199988
 126.9880012 128.8034997 120.5839988 126.3120769 128.5625636 120.0923619
 114.9940012 125.1714997 120.5809988 115.1380012 124.2694997 120.2949988
 114.2220012 125.4574997 120.0939988 114.9092753 125.0866816 120.4759505
 121.6500012 125.1414997 120.0139988 121.3210012 125.4124997 119.1569988
 121.8020012 124.2004997 119.9269988 121.6254809 125.0513862 119.8848244
 127.3840012 125.0574997 117.3969988 128.1300012 125.6454997 117.2779988
 126.6270012 125.6394997 117.4609988 127.3837820 125.2167143 117.3893590
 115.8270012 122.3714997 120.0009988 116.2350012 121.5144997 119.8799988
 115.5670012 122.3864997 120.9219988 115.8477568 122.2560807 120.1089588
 120.4850012 123.4874997 105.0199988 120.0250012 123.0034997 105.7059988
 120.7400012 122.8194997 104.3839988 120.4564902 123.3308731 105.0279334
 119.7740012 121.3804997 117.3759988 119.1560012 122.0554997 117.6559988
 120.1180012 121.7014997 116.5419988 119.7359132 121.5162411 117.3016262
 124.7940012 123.8524997 120.6529988 125.7470012 123.9354997 120.6259988
 124.6330012 123.1404997 121.2729988 124.9026426 123.7676746 120.7330579
 120.1130012 118.7354997 118.4579988 120.2630012 118.0064997 117.8559988
 120.1160012 119.5124997 117.8989988 120.1339302 118.7407851 118.3000692
 120.5260012 117.1054997 115.9509988 121.0620012 117.5564997 115.2989988
 119.6740012 116.9974997 115.5279988 120.4842178 117.1526390 115.8045756
 122.1080012 122.5444997 116.1899988 122.8580012 122.3884997 115.6169988
 121.7690012 123.3964997 115.9149988 122.1648921 122.6382968 116.0743561
 126.5230012 120.3594997 121.2189988 126.7160012 119.4284997 121.1069988
 127.3810012 120.7844997 121.2079988 126.6652934 120.2896531 121.2022031
 127.8400012 123.1484997 119.2959988 127.5590012 123.8574997 118.7179988
 128.7830012 123.0754997 119.1449988 127.9289291 123.2356711 119.1964967
 118.5920012 119.9334997 120.3699988 117.8250012 119.4014997 120.1589988
 119.2710012 119.6234997 119.7699988 118.5787877 119.8188300 120.2600716
 121.3320012 114.5614997 116.3819988 121.2330012 115.5084997 116.2769988
 120.5890012 114.1894997 115.9059988 121.2181184 114.6405863 116.3033621
 122.5960012 118.8834997 119.9459988 122.3600012 118.6634997 120.8469988
 121.8120012 118.6764997 119.4359988 122.4578504 118.8254586 120.0003431
 125.3110012 118.0104997 119.0209988 124.3640012 118.0424997 119.1539988
 125.6240012 117.3854997 119.6749988 125.2236707 117.9303998 119.1276060
 126.9450012 116.6444997 121.0269988 126.8490012 115.6924997 121.0209988
 126.6240012 116.9134997 121.8869988 126.8884070 116.5504035 121.1425441
 116.7720012 117.8544997 120.0739988 116.9840012 117.1474997 119.4639988
 116.6610012 117.4164997 120.9179988 116.7859721 117.6987084 120.1046843
 121.5530012 113.8554997 119.0529988 122.2650012 113.2154997 119.0389988
 121.4520012 114.1224997 118.1399988 121.6368066 113.8040079 118.9275677
 121.9070012 115.5384997 121.1069988 121.7750012 115.0624997 120.2869988
 121.3080012 116.2824997 121.0519988 121.8079071 115.5739618 120.9872886
 121.4530012 132.4214997 104.2829988 122.3860012 132.5794997 104.4269988
 121.1890012 133.0964997 103.6589988 121.5449888 132.5344510 104.2182842
 113.6710012 132.4504997 108.8439988 113.0240012 131.9884997 108.3109988
 114.0250012 131.7784997 109.4259988 113.6303849 132.2964723 108.8497959
 114.5410012 130.5314997 110.6479988 114.2060012 129.6514997 110.8199988
 114.7630012 130.8764997 111.5129988 114.5251783 130.4577500 110.7884208
 132.0890012 131.3404997 113.6289988 132.0680012 131.5254997 114.5679988
 132.7800012 131.9094997 113.2879988 132.1794618 131.4426606 113.7113864
 131.6530012 130.9084997 116.5509988 131.1650012 130.1724997 116.1789988
 132.2020012 130.5144997 117.2289988 131.6604820 130.7545889 116.5917813
 130.1030012 126.6974997 121.1889988 129.2370012 126.5924997 121.5829988
 130.4800012 127.4564997 121.6349988 130.0353308 126.7856900 121.3032393
 131.4040012 124.9544997 106.7029988 132.2540012 125.3754997 106.8299988
 131.4100012 124.2144997 107.3099988 131.5211372 124.9120803 106.8024344
 131.7990012 123.0074997 108.5259988 131.0720012 122.5284997 108.9239988
 132.3800012 123.2134997 109.2589988 131.7780473 122.9698103 108.6794528
 131.5580012 125.7924997 113.4739988 132.3910012 125.4144997 113.1939988
 131.6700012 126.7354997 113.3549988 131.6872647 125.8682218 113.4195487
 130.0440012 128.6704997 115.7809988 129.3970012 128.9954997 116.4069988
 129.5270012 128.2304997 115.1069988 129.8854029 128.6555004 115.7755827
 132.0670012 122.9084997 104.9179988 131.5450012 123.2654997 104.1989988
 132.0340012 123.5834997 105.5959988 131.9911634 123.0485413 104.9113145
 129.5850012 121.5284997 109.0889988 129.4350012 120.5834997 109.0689988
 129.2320012 121.8094997 109.9329988 129.5167448 121.4371481 109.2003705
 114.6210012 123.6064997 113.0999988 114.8050012 123.5244997 112.1639988
 115.4700012 123.4824997 113.5229988 114.7610151 123.5785073 113.0291451
 130.4420012 123.4984997 118.7279988 131.0250012 122.7644997 118.9199988
 131.0060012 124.2704997 118.7749988 130.5979769 123.5024227 118.7606159
 131.9380012 121.4014997 119.4129988 131.0750012 121.0224997 119.2469988
 132.5430012 120.6624997 119.3379988 131.9016119 121.2498268 119.3801528
 129.2960012 119.1114997 107.5519988 129.5760012 118.2044997 107.6759988
 130.0550012 119.5454997 107.1629988 129.4369277 119.0460942 107.5163682
 129.9080012 119.6924997 112.9879988 130.8410012 119.9044997 112.9529988
 129.6730012 119.7944997 113.9099988 130.0039244 119.7353100 113.1078892
 129.9370012 120.4294997 115.7639988 129.0940012 120.6974997 116.1299988
 130.3790012 121.2514997 115.5529988 129.8814158 120.5773291 115.7855491
 114.2180012 118.8774997 119.2409988 115.1380012 118.7554997 119.4769988
 113.7690012 118.1274997 119.6299988 114.2831580 118.7593727 119.3259006
 132.2200012 114.4094997 121.1169988 132.5700012 113.7554997 120.5119988
 132.3670012 115.2464997 120.6769988 132.2877887 114.4331548 120.9746858
 129.9090012 116.3744997 107.5999988 130.0920012 115.9254997 108.4259988
 129.3100012 115.7894997 107.1369988 129.8530202 116.2339975 107.6503275
 115.4390012 117.1894997 112.1319988 115.8850012 116.3974997 112.4339988
 115.9060012 117.9054997 112.5619988 115.5630831 117.1780685 112.2314006
 113.7430012 120.1884997 113.2009988 114.2350012 119.9674997 112.4099988
 114.1060012 121.0294997 113.4819988 113.8593126 120.2718357 113.1307531
 131.7400012 116.5184997 119.4659988 130.8220012 116.7894997 119.4309988
 131.8630012 115.9834997 118.6819988 131.6309729 116.4832508 119.3551923
 114.0570012 116.4464997 107.2549988 113.1320012 116.6554997 107.1259988
 114.5110012 116.9304997 106.5649988 113.9917292 116.5405343 107.1440720
 128.8280012 131.4304997 109.2009988 129.4800012 131.0834997 108.5929988
 129.3380012 131.9194997 109.8469988 128.9862637 131.4490597 109.2050236
 114.0210012 115.1844997 115.5989988 113.3560012 114.9384997 116.2429988
 113.5780012 115.8064997 115.0219988 113.8701318 115.2349410 115.6090898
 116.2130012 128.3594997 119.7439988 115.3920012 128.5344997 119.2829988
 115.9600012 128.2864997 120.6639988 116.0665585 128.3735544 119.8053561
 119.1670012 129.3344997 116.0019988 118.7420012 130.1434997 115.7199988
 120.0710012 129.4194997 115.6999988 119.2309975 129.4569300 115.9224816
 123.4780012 130.7334997 118.9619988 123.6630012 130.3994997 119.8399988
 124.3240012 131.0424997 118.6399988 123.6177539 130.7296047 119.0385605
 125.8230012 132.0194997 118.2059988 126.5000012 131.3864997 117.9659988
 126.1450012 132.4204997 119.0129988 125.9591637 131.9871154 118.2822793
 130.7400012 114.6084997 117.2849988 129.9280012 114.9334997 116.8979988
 130.9730012 113.8484997 116.7519988 130.6602203 114.5502758 117.1598880
 116.5690012 132.5904997 116.0499988 115.8480012 133.0304997 115.5989988
 116.2030012 132.3394997 116.8979988 116.4209651 132.6167242 116.1029640
 119.0360012 132.1904997 115.0799988 118.1710012 132.2624997 115.4839988
 118.9810012 132.7374997 114.2959988 118.9102085 132.2742685 115.0293362
 123.7460012 132.0784997 114.2549988 123.2900012 132.6074997 113.6009988
 123.9090012 132.6814997 114.9799988 123.7056068 132.2324607 114.2634838
 126.0740012 130.9564997 115.1999988 125.1690012 131.1214997 114.9339988
 126.5030012 131.8094997 115.1349988 126.0081324 131.0944339 115.1547976
 128.6780012 132.5264997 115.4949988 128.4960012 133.4424997 115.2849988
 128.8550012 132.1164997 114.6489988 128.6770210 132.5964822 115.3517885
 115.9830012 131.2134997 112.9599988 115.9650012 130.7884997 113.8169988
 116.7880012 130.8954997 112.5509988 116.0893529 131.1123013 113.0220946
 118.1250012 129.9234997 111.6149988 117.9060012 129.0074997 111.7849988
 118.9490012 130.0634997 112.0809988 118.2064420 129.8170520 111.7012774
 120.6620012 130.3934997 112.4639988 120.8750012 129.5054997 112.1769988
 120.7260012 130.3594997 113.4179988 120.6998232 130.2673102 112.5537397
 124.1700012 116.0574997 111.6079988 123.4960012 115.4284997 111.8639988
 124.7340012 115.5734997 111.0049988 124.1539230 115.9058744 111.5615340
 129.3130012 114.1654997 111.7209988 129.9170012 114.7124997 111.2189988
 128.4430012 114.4844997 111.4799988 129.2781208 114.2835137 111.6196886
 131.0400012 115.3034997 110.0539988 131.6520012 114.7894997 109.5269988
 131.4220012 116.1814997 110.0769988 131.1753371 115.3517866 109.9850041
 116.4970012 114.6914997 109.4299988 115.7200012 114.4574997 108.9229988
 117.0270012 113.8944997 109.4389988 116.4622330 114.5516988 109.3617742
 115.3330012 114.4894997 105.2339988 115.7720012 115.1004997 104.6419988
 114.7000012 115.0274997 105.7079988 115.3074514 114.6459257 105.2170930
 121.0760012 114.6184997 109.2439988 121.9510012 115.0064997 109.2139988
 120.9400012 114.4034997 110.1659988 121.1773695 114.6425184 109.3646440
 126.6330012 114.6484997 110.8929988 126.7090012 114.7434997 109.9429988
 126.3580012 113.7404997 111.0219988 126.6062321 114.5387867 110.7805079
 127.9860012 114.6744997 106.5849988 127.2840012 115.2894997 106.3749988
 127.5420012 113.8364997 106.7159988 127.8296450 114.6455639 106.5739000
 115.2340012 130.4374997 106.1309988 114.5490012 130.3994997 105.4639988
 115.2380012 131.3504997 106.4199988 115.1406998 130.5556733 106.0786771
 122.2200012 116.6984997 106.1329988 122.3980012 116.0524997 106.8159988
 122.1670012 117.5324997 106.5999988 122.2371999 116.7228009 106.2895917
 124.0990012 131.6474997 104.5289988 124.9650012 132.0134997 104.3509988
 123.8520012 131.2074997 103.7149988 124.1842392 131.6381756 104.3946289
 130.8080012 131.2104997 107.2079988 130.6130012 130.4624997 106.6429988
 130.7690012 131.9684997 106.6249988 130.7760380 131.2106099 107.0518384
 116.4550012 115.2054997 118.9479988 116.0890012 114.4404997 119.3899988
 117.3680012 115.2344997 119.2339988 116.5282736 115.1045640 119.0472502
 118.4280012 114.5564997 120.4839988 119.3260012 114.2824997 120.2989988
 118.0410012 113.8134997 120.9479988 118.4986612 114.4185914 120.5213643
 126.8490012 113.8884997 120.6659988 126.9260012 113.4624997 121.5199988
 127.7430012 113.9024997 120.3229988 126.9803428 113.8320879 120.7365310
 130.0250012 129.9614997 119.3579988 129.2430012 129.7754997 118.8379988
 129.9530012 130.8904997 119.5759988 129.9082274 130.0616643 119.3163018
 144.4310012 123.8474997 109.3889988 144.5200012 124.7914997 109.2569988
 143.7930012 123.5724997 108.7309988 144.3569081 123.9394830 109.2819614
 143.3640012 123.1024997 112.8079988 143.3260012 122.4564997 113.5129988
 143.0420012 122.6364997 112.0369988 143.3152333 122.9509408 112.8002978
 135.7330012 122.7174997 114.4009988 135.7740012 122.0914997 115.1239988
 136.4360012 123.3414997 114.5829988 135.8336363 122.7161196 114.5246044
 136.6560012 127.1674997 112.9359988 136.2870012 126.3654997 112.5659988
 137.5970012 126.9984997 112.9819988 136.7327289 127.0350153 112.8916316
 133.2660012 120.8274997 108.3289988 132.8190012 121.6734997 108.3099988
 132.7050012 120.2474997 107.8129988 133.1289900 120.8649916 108.2566801
 133.9770012 122.9894997 110.4539988 134.1900012 122.2194997 110.9819988
 134.7150012 123.0784997 109.8509988 134.1059044 122.8961968 110.4447123
 144.1820012 131.1464997 111.3209988 144.8020012 130.4694997 111.0479988
 143.9740012 130.9284997 112.2299988 144.2386726 131.0244800 111.4064812
 141.7540012 125.5354997 113.2139988 142.0580012 124.8494997 112.6189988
 142.4750012 125.6534997 113.8319988 141.8930671 125.4576304 113.2161816
 144.8950012 119.9294997 113.5409988 145.0370012 118.9834997 113.5619988
 144.7880012 120.1364997 112.6129988 144.8999919 119.8278246 113.4183408
 138.0490012 118.0304997 110.8139988 138.0930012 118.8904997 110.3949988
 137.5920012 117.4784997 110.1799988 137.9932240 118.0734422 110.6709864
 134.6700012 120.4274997 111.5759988 135.3230012 119.8774997 112.0079988
 134.6940012 120.1534997 110.6589988 134.7626683 120.3151466 111.5112123
 139.8260012 121.9774997 110.7909988 140.4420012 121.4514997 111.3009988
 139.2400012 121.3374997 110.3879988 139.8310810 121.8189208 110.8063173
 136.8600012 116.9484997 114.8879988 136.6410012 117.4784997 114.1219988
 136.1920012 117.1754997 115.5349988 136.7397600 117.0516906 114.8706379
 144.2290012 126.4484997 108.4319988 143.9330012 126.1264997 107.5809988
 143.9040012 127.3484997 108.4729988 144.1446371 126.5260215 108.3211801
 139.4290012 124.6244997 115.1749988 138.6890012 125.2224997 115.2789988
 140.1430012 125.1784997 114.8599988 139.4242237 124.7812831 115.1466465
 136.4530012 118.8404997 112.8399988 137.0670012 119.4734997 113.2129988
 136.9650012 118.3684997 112.1839988 136.6061981 118.8632267 112.8022908
 137.8360012 126.5884997 115.9619988 137.8310012 127.4684997 115.5839988
 136.9830012 126.5054997 116.3869988 137.7199464 126.6976117 115.9677907
 133.9570012 126.2594997 106.7439988 133.6850012 126.4884997 105.8559988
 134.0030012 127.0974997 107.2049988 133.9259482 126.4041318 106.6846273
 140.8860012 114.2544997 112.3399988 140.7690012 113.3054997 112.2859988
 140.0310012 114.5864997 112.6139988 140.7544212 114.1695571 112.3696497
 143.1530012 123.0914997 106.8409988 142.4410012 123.6264997 106.4889988
 143.8440012 123.1474997 106.1809988 143.1490132 123.1722543 106.7036289
 138.2040012 123.9314997 109.6749988 137.8730012 123.5614997 108.8569988
 138.7920012 123.2614997 110.0219988 138.2381873 123.7901156 109.6098102
 139.5700012 127.3594997 112.3559988 139.4760012 126.7814997 111.5999988
 140.3000012 126.9884997 112.8529988 139.6557387 127.2301663 112.3195342
 138.5700012 122.7004997 113.3089988 139.1360012 122.8214997 112.5459988
 138.8890012 123.3374997 113.9469988 138.6905474 122.8032219 113.2909862
 144.8790012 128.2034997 114.0429988 144.6390012 128.8654997 114.6909988
 144.6810012 127.3694997 114.4679988 144.8193808 128.1813134 114.1891524
 139.4500012 127.0994997 118.0259988 139.1390012 127.8814997 118.4809988
 138.8000012 126.9464997 117.3399988 139.3195558 127.1859105 117.9955871
 136.3700012 123.2974997 117.2539988 136.4410012 123.9484997 117.9529988
 135.4800012 123.4004997 116.9189988 136.2593005 123.4005427 117.3043495
 143.1560012 129.2004997 108.9129988 143.6300012 129.4954997 109.6899988
 142.5930012 129.9384997 108.6799988 143.1448184 129.3407247 108.9879628
 137.6900012 129.1714997 118.7889988 137.6970012 129.0354997 117.8419988
 136.7740012 129.0534997 119.0409988 137.5671714 129.1369430 118.6934666
 137.1940012 123.0014997 107.2639988 136.9020012 123.7694997 106.7739988
 136.5200012 122.3414997 107.1019988 137.0628111 123.0175587 107.1748978
 133.2870012 125.3644997 116.0789988 132.7860012 125.3364997 115.2639988
 133.2920012 124.4584997 116.3889988 133.2190944 125.2382396 116.0093226
 133.0370012 128.1444997 112.9629988 133.9830012 128.0004997 112.9439988
 132.9250012 128.9284997 113.4999988 133.1512727 128.2308046 113.0330072
 142.2140012 128.3844997 117.5219988 142.3010012 129.2104997 117.9969988
 141.3500012 128.0544997 117.7709988 142.1091964 128.4529878 117.6206549
 142.6280012 132.1564997 107.3279988 142.5530012 132.0354997 106.3809988
 142.6610012 133.1064997 107.4459988 142.6222068 132.2682646 107.2144967
 136.2810012 130.9454997 109.1089988 136.4340012 130.5974997 109.9869988
 135.4310012 130.5894997 108.8539988 136.1869166 130.8496216 109.1948079
 135.5360012 126.6874997 117.1229988 135.7520012 126.3264997 117.9819988
 134.6810012 126.3134997 116.9129988 135.4499292 126.5874111 117.2123386
 138.1550012 115.1574997 113.1179988 137.2930012 115.0704997 112.7099988
 138.1320012 116.0134997 113.5459988 138.0340409 115.2612883 113.1200589
 142.8180012 114.8794997 116.4929988 143.2380012 114.4644997 117.2459988
 141.8850012 114.7014997 116.6099988 142.7493644 114.7985900 116.6119539
 142.4790012 117.3724997 103.7779988 142.2260012 117.3914997 104.7009988
 142.2230012 116.5004997 103.4759988 142.4097481 117.2572558 103.8636175
 138.2460012 120.1234997 114.2129988 137.6040012 120.0824997 114.9219988
 138.2830012 121.0494997 113.9749988 138.1630664 120.2431430 114.2779219
 138.2430012 120.3444997 109.1249988 137.3500012 120.0034997 109.0659988
 138.6930012 119.9674997 108.3689988 138.1818130 120.2469631 109.0147702
 143.7780012 120.7604997 107.9419988 143.3690012 121.5754997 107.6509988
 144.4990012 120.6204997 107.3279988 143.8194537 120.8532018 107.8191342
 142.8800012 120.9354997 119.4299988 142.3180012 120.2314997 119.7509988
 143.7070012 120.8154997 119.8979988 142.9147095 120.8227883 119.5372330
 144.7830012 120.2064997 110.7559988 144.5880012 120.8114997 110.0409988
 144.9640012 119.3724997 110.3219988 144.7807614 120.1766300 110.5994405
 135.9960012 120.4434997 116.0799988 135.9580012 120.8434997 116.9489988
 135.5050012 119.6264997 116.1709988 135.9244684 120.3878069 116.2111059
 132.6040012 117.5594997 109.9309988 133.2350012 117.5304997 110.6499988
 133.0530012 117.1344997 109.1999988 132.7510918 117.4980836 109.9306441
 133.8780012 118.3054997 105.3549988 134.3520012 118.8964997 104.7699988
 133.1610012 118.8364997 105.7019988 133.8459341 118.4580867 105.3218836
 144.0470012 121.8444997 115.4269988 144.3700012 121.2134997 114.7839988
 143.6070012 121.3094997 116.0879988 144.0317484 121.6858387 115.4283198
 140.8240012 117.7714997 110.2109988 139.9130012 117.8284997 110.4999988
 141.3300012 117.7114997 111.0219988 140.7676899 117.7711941 110.3601184
 135.6530012 119.4004997 109.0379988 134.7630012 119.5004997 108.6979988
 135.9490012 118.5584997 108.6919988 135.5712823 119.3003546 108.9447213
 139.3060012 119.4004997 106.6949988 140.2370012 119.5294997 106.8729988
 139.0910012 120.0704997 106.0449988 139.4044247 119.5086565 106.6315747
 136.1150012 125.1524997 119.3599988 136.8470012 125.4064997 119.9219988
 135.3350012 125.3564997 119.8759988 136.1097073 125.2148160 119.5066151
 142.1440012 120.5594997 112.0979988 142.7090012 120.0124997 111.5509988
 141.9970012 120.0374997 112.8869988 142.2013380 120.4142259 112.1298695
 137.1460012 116.6954997 108.5169988 136.8290012 115.7934997 108.4809988
 137.9280012 116.6974997 107.9639988 137.2082408 116.5722474 108.4373569
 140.7710012 118.9474997 114.5119988 139.9350012 119.4014997 114.6229988
 141.2950012 119.2234997 115.2639988 140.7275416 119.0468660 114.6288119
 141.3150012 125.1604997 106.1969988 140.5700012 124.6534997 105.8749988
 141.1810012 125.2094997 107.1439988 141.1948776 125.0976940 106.2808647
 142.8340012 125.3444997 117.4339988 142.4890012 124.9634997 118.2409988
 142.6340012 126.2784997 117.5049988 142.7597527 125.4185135 117.5540689
 136.4400012 124.4554997 111.9669988 137.1850012 124.4534997 111.3659988
 136.5180012 123.6324997 112.4479988 136.5524995 124.3438887 111.9498282
 143.4410012 126.6194997 105.2229988 143.1450012 127.4454997 105.6039988
 142.7380012 125.9994997 105.4189988 143.3054914 126.6488199 105.3016443
 133.4480012 122.9164997 117.2819988 133.6710012 122.4984997 118.1139988
 132.8460012 122.3034997 116.8589988 133.3971759 122.7764668 117.3387022
 140.4640012 122.4334997 119.4949988 140.1680012 122.2674997 118.5999988
 141.3960012 122.2134997 119.4839988 140.5494166 122.3810640 119.3710536
 138.8150012 127.9734997 109.3709988 139.3420012 128.7464997 109.1709988
 137.9350012 128.1984997 109.0689988 138.7682031 128.1097545 109.3027912
 134.5700012 122.8354997 103.9579988 135.1860012 123.4624997 104.3379988
 133.7080012 123.1514997 104.2299988 134.5377698 122.9639430 104.0467183
 140.2420012 125.6364997 108.9469988 140.0010012 126.5614997 108.9889988
 139.5010012 125.1774997 109.3439988 140.1089225 125.7010933 109.0063742
 140.7570012 129.7854997 115.2629988 141.1190012 130.6404997 115.0289988
 141.2880012 129.4934997 116.0029988 140.8784473 129.8631060 115.3310855
 138.9250012 130.6584997 108.4929988 137.9750012 130.7634997 108.5439988
 139.2770012 131.4784997 108.8369988 138.8424195 130.7838800 108.5465502
 144.3010012 125.8844997 114.9629988 143.8750012 125.6574997 115.7899988
 144.8810012 125.1464997 114.7809988 144.3211868 125.7535299 115.0515830
 135.0820012 117.6694997 116.8399988 134.1890012 118.0084997 116.7719988
 134.9830012 116.8144997 117.2579988 134.9464164 117.6002588 116.8872235
 134.7330012 129.4744997 115.2749988 134.9500012 128.5424997 115.2439988
 134.9790012 129.7484997 116.1579988 134.7959549 129.3840636 115.3901763
 140.5950012 127.9254997 102.4839988 140.8340012 127.1774997 101.9369988
 140.3260012 127.5374997 103.3169988 140.5913675 127.7706638 102.5216865
 139.5320012 127.4954997 104.9399988 139.6780012 126.9754997 105.7299988
 139.5290012 128.4024997 105.2469988 139.5515792 127.5468842 105.0896117
 135.9850012 124.7484997 105.4509988 135.2990012 125.1004997 106.0179988
 136.5070012 125.5114997 105.2039988 135.9616852 124.8998578 105.4952118
 143.8160012 117.4104997 115.7299988 144.5150012 117.4844997 116.3799988
 143.4350012 116.5464997 115.8839988 143.8601767 117.3037624 115.8398322
 144.6010012 117.0624997 106.8269988 144.8210012 117.5344997 106.0239988
 145.1590012 117.4574997 107.4969988 144.7064968 117.1804285 106.8077331
 142.2690012 129.1934997 105.6899988 141.4530012 129.6904997 105.7419988
 142.7990012 129.6684997 105.0499988 142.2289161 129.3257722 105.6105956
 141.8010012 118.7904997 107.6619988 142.6130012 119.2954997 107.7079988
 141.5560012 118.6454997 108.5759988 141.8790520 118.8400375 107.7918517
 142.3360012 119.7764997 116.8459988 142.4550012 120.3504997 117.6039988
 142.9920012 119.0884997 116.9609988 142.4409025 119.7619858 116.9651321
 142.6840012 115.8714997 108.5999988 142.3380012 116.4894997 109.2439988
 143.3430012 116.3724997 108.1179988 142.7256968 116.0236278 108.6229383
 138.3420012 116.9344997 105.2869988 138.2590012 117.8234997 105.6339988
 139.2320012 116.6694997 105.5189988 138.4509469 117.0201430 105.3657626
 136.6010012 127.3624997 104.3479988 137.1930012 128.0614997 104.6239988
 137.0600012 126.9294997 103.6279988 136.7441142 127.3997049 104.2884830
 134.9170012 120.0264997 103.4639988 134.8720012 120.9654997 103.6419988
 134.0290012 119.7904997 103.1939988 134.7908574 120.1231892 103.4518912
 135.7250012 114.8084997 112.1369988 135.4960012 114.8674997 111.2089988
 135.2820012 114.0164997 112.4429988 135.6338530 114.7095753 112.0514786
 134.6550012 128.7484997 108.2969988 133.8230012 129.2214997 108.3239988
 135.2010012 129.2584997 107.6989988 134.6150352 128.8821332 108.2198463
 133.9430012 131.3614997 119.6269988 134.4840012 131.1444997 120.3869988
 133.4620012 130.5554997 119.4369988 133.9519951 131.2229270 119.7052576
 138.5410012 130.2804997 121.2469988 139.3080012 129.8214997 121.5879988
 138.5190012 130.0544997 120.3179988 138.6431275 130.1870186 121.1680101
 133.8500012 125.1714997 120.5809988 133.9940012 124.2694997 120.2949988
 133.0780012 125.4574997 120.0939988 133.7652753 125.0866816 120.4759505
 140.5060012 125.1414997 120.0139988 140.1770012 125.4124997 119.1569988
 140.6580012 124.2004997 119.9269988 140.4814809 125.0513862 119.8848244
 143.5440012 126.5624997 102.4499988 143.2750012 126.7424997 103.3509988
 143.3380012 125.6364997 102.3179988 143.4793427 126.4620261 102.5555073
 134.6830012 122.3714997 120.0009988 135.0910012 121.5144997 119.8799988
 134.4230012 122.3864997 120.9219988 134.7037568 122.2560807 120.1089588
 138.6300012 121.3804997 117.3759988 138.0120012 122.0554997 117.6559988
 138.9740012 121.7014997 116.5419988 138.5919132 121.5162411 117.3016262
 143.6500012 123.8524997 120.6529988 144.6030012 123.9354997 120.6259988
 143.4890012 123.1404997 121.2729988 143.7586426 123.7676746 120.7330579
 138.9690012 118.7354997 118.4579988 139.1190012 118.0064997 117.8559988
 138.9720012 119.5124997 117.8989988 138.9899302 118.7407851 118.3000692
 139.3820012 117.1054997 115.9509988 139.9180012 117.5564997 115.2989988
 138.5300012 116.9974997 115.5279988 139.3402178 117.1526390 115.8045756
 140.9640012 122.5444997 116.1899988 141.7140012 122.3884997 115.6169988
 140.6250012 123.3964997 115.9149988 141.0208921 122.6382968 116.0743561
 137.4480012 119.9334997 120.3699988 136.6810012 119.4014997 120.1589988
 138.1270012 119.6234997 119.7699988 137.4347877 119.8188300 120.2600716
 140.1880012 114.5614997 116.3819988 140.0890012 115.5084997 116.2769988
 139.4450012 114.1894997 115.9059988 140.0741184 114.6405863 116.3033621
 141.4520012 118.8834997 119.9459988 141.2160012 118.6634997 120.8469988
 140.6680012 118.6764997 119.4359988 141.3138504 118.8254586 120.0003431
 144.1670012 118.0104997 119.0209988 143.2200012 118.0424997 119.1539988
 144.4800012 117.3854997 119.6749988 144.0796707 117.9303998 119.1276060
 135.6280012 117.8544997 120.0739988 135.8400012 117.1474997 119.4639988
 135.5170012 117.4164997 120.9179988 135.6419721 117.6987084 120.1046843
 140.4090012 113.8554997 119.0529988 141.1210012 113.2154997 119.0389988
 140.3080012 114.1224997 118.1399988 140.4928066 113.8040079 118.9275677
 140.7630012 115.5384997 121.1069988 140.6310012 115.0624997 120.2869988
 140.1640012 116.2824997 121.0519988 140.6639071 115.5739618 120.9872886
 132.5270012 132.4504997 108.8439988 131.8800012 131.9884997 108.3109988
 132.8810012 131.7784997 109.4259988 132.4863849 132.2964723 108.8497959
 133.3970012 130.5314997 110.6479988 133.0620012 129.6514997 110.8199988
 133.6190012 130.8764997 111.5129988 133.3811783 130.4577500 110.7884208
 133.4770012 123.6064997 113.0999988 133.6610012 123.5244997 112.1639988
 134.3260012 123.4824997 113.5229988 133.6170151 123.5785073 113.0291451
 133.0740012 118.8774997 119.2409988 133.9940012 118.7554997 119.4769988
 132.6250012 118.1274997 119.6299988 133.1391580 118.7593727 119.3259006
 134.2950012 117.1894997 112.1319988 134.7410012 116.3974997 112.4339988
 134.7620012 117.9054997 112.5619988 134.4190831 117.1780685 112.2314006
 132.5990012 120.1884997 113.2009988 133.0910012 119.9674997 112.4099988
 132.9620012 121.0294997 113.4819988 132.7153126 120.2718357 113.1307531
 132.9130012 116.4464997 107.2549988 131.9880012 116.6554997 107.1259988
 133.3670012 116.9304997 106.5649988 132.8477292 116.5405343 107.1440720
 132.8770012 115.1844997 115.5989988 132.2120012 114.9384997 116.2429988
 132.4340012 115.8064997 115.0219988 132.7261318 115.2349410 115.6090898
 135.0690012 128.3594997 119.7439988 134.2480012 128.5344997 119.2829988
 134.8160012 128.2864997 120.6639988 134.9225585 128.3735544 119.8053561
 138.0230012 129.3344997 116.0019988 137.5980012 130.1434997 115.7199988
 138.9270012 129.4194997 115.6999988 138.0869975 129.4569300 115.9224816
 142.3340012 130.7334997 118.9619988 142.5190012 130.3994997 119.8399988
 143.1800012 131.0424997 118.6399988 142.4737539 130.7296047 119.0385605
 144.6790012 132.0194997 118.2059988 145.3560012 131.3864997 117.9659988
 145.0010012 132.4204997 119.0129988 144.8151637 131.9871154 118.2822793
 135.4250012 132.5904997 116.0499988 134.7040012 133.0304997 115.5989988
 135.0590012 132.3394997 116.8979988 135.2769651 132.6167242 116.1029640
 137.8920012 132.1904997 115.0799988 137.0270012 132.2624997 115.4839988
 137.8370012 132.7374997 114.2959988 137.7662085 132.2742685 115.0293362
 142.6020012 132.0784997 114.2549988 142.1460012 132.6074997 113.6009988
 142.7650012 132.6814997 114.9799988 142.5616068 132.2324607 114.2634838
 134.8390012 131.2134997 112.9599988 134.8210012 130.7884997 113.8169988
 135.6440012 130.8954997 112.5509988 134.9453529 131.1123013 113.0220946
 136.9810012 129.9234997 111.6149988 136.7620012 129.0074997 111.7849988
 137.8050012 130.0634997 112.0809988 137.0624420 129.8170520 111.7012774
 139.5180012 130.3934997 112.4639988 139.7310012 129.5054997 112.1769988
 139.5820012 130.3594997 113.4179988 139.5558231 130.2673102 112.5537397
 143.0260012 116.0574997 111.6079988 142.3520012 115.4284997 111.8639988
 143.5900012 115.5734997 111.0049988 143.0099230 115.9058744 111.5615340
 135.3530012 114.6914997 109.4299988 134.5760012 114.4574997 108.9229988
 135.8830012 113.8944997 109.4389988 135.3182330 114.5516988 109.3617742
 134.1890012 114.4894997 105.2339988 134.6280012 115.1004997 104.6419988
 133.5560012 115.0274997 105.7079988 134.1634514 114.6459257 105.2170930
 139.9320012 114.6184997 109.2439988 140.8070012 115.0064997 109.2139988
 139.7960012 114.4034997 110.1659988 140.0333695 114.6425184 109.3646440
 136.0500012 116.4054997 103.6759988 136.5420012 115.7754997 103.1489988
 136.6740012 116.7014997 104.3389988 136.2015688 116.3593804 103.6935482
 141.0760012 116.6984997 106.1329988 141.2540012 116.0524997 106.8159988
 141.0230012 117.5324997 106.5999988 141.0931999 116.7228009 106.2895917
 135.3110012 115.2054997 118.9479988 134.9450012 114.4404997 119.3899988
 136.2240012 115.2344997 119.2339988 135.3842736 115.1045640 119.0472502
 137.2840012 114.5564997 120.4839988 138.1820012 114.2824997 120.2989988
 136.8970012 113.8134997 120.9479988 137.3546612 114.4185914 120.5213643
 135.9080012 131.3574997 103.1569988 135.6410012 131.6444997 104.0299988
 136.6800012 130.8114997 103.3089988 135.9757488 131.3230294 103.2971050
  12.4390012 142.7034997 109.3889988  12.5280012 143.6474997 109.2569988
  11.8010012 142.4284997 108.7309988  12.3649081 142.7954830 109.2819614
  11.3720012 141.9584997 112.8079988  11.3340012 141.3124997 113.5129988
  11.0500012 141.4924997 112.0369988  11.3232333 141.8069408 112.8002978
   3.7410012 141.5734997 114.4009988   3.7820012 140.9474997 115.1239988
   4.4440012 142.1974997 114.5829988   3.8416363 141.5721196 114.5246044
  15.0780012 144.8974997 111.1089988  14.6380012 144.1774997 111.5599988
  15.0650012 145.6184997 111.7389988  15.0160226 144.8963731 111.2558494
   1.2740012 139.6834997 108.3289988   0.8270012 140.5294997 108.3099988
   0.7130012 139.1034997 107.8129988   1.1369900 139.7209916 108.2566801
   1.9850012 141.8454997 110.4539988   2.1980012 141.0754997 110.9819988
   2.7230012 141.9344997 109.8509988   2.1139044 141.7521968 110.4447123
   9.7620012 144.3914997 113.2139988  10.0660012 143.7054997 112.6189988
  10.4830012 144.5094997 113.8319988   9.9010671 144.3136305 113.2161816
  18.4250012 135.9924997 114.0749988  18.4740012 136.6024997 114.8099988
  18.8500012 136.4534997 113.3519988  18.4891746 136.1383796 114.0779175
  12.9030012 138.7854997 113.5409988  13.0450012 137.8394997 113.5619988
  12.7960012 138.9924997 112.6129988  12.9079919 138.6838246 113.4183408
   6.0570012 136.8864997 110.8139988   6.1010012 137.7464997 110.3949988
   5.6000012 136.3344997 110.1799988   6.0012240 136.9294422 110.6709864
  13.7800012 137.0174997 109.2149988  14.4260012 136.6884997 109.8389988
  14.2900012 137.5354997 108.5919988  13.9374299 137.0424450 109.2162731
   2.6780012 139.2834997 111.5759988   3.3310012 138.7334997 112.0079988
   2.7020012 139.0094997 110.6589988   2.7706683 139.1711466 111.5112123
   7.8340012 140.8334997 110.7909988   8.4500012 140.3074997 111.3009988
   7.2480012 140.1934997 110.3879988   7.8390810 140.6749208 110.8063173
  18.8160012 137.4704997 116.3099988  18.1280012 138.1284997 116.2149988
  18.8320012 137.2734997 117.2469988  18.7239540 137.5339819 116.4235990
   4.8680012 135.8044997 114.8879988   4.6490012 136.3344997 114.1219988
   4.2000012 136.0314997 115.5349988   4.7477600 135.9076906 114.8706379
   7.4370012 143.4804997 115.1749988   6.6970012 144.0784997 115.2789988
   8.1510012 144.0344997 114.8599988   7.4322237 143.6372831 115.1466465
  15.5440012 136.3084997 111.1949988  15.3280012 135.5424997 111.7279988
  16.1990012 136.7804997 111.7079988  15.6030632 136.2675889 111.3372861
   4.4610012 137.6964997 112.8399988   5.0750012 138.3294997 113.2129988
   4.9730012 137.2244997 112.1839988   4.6141981 137.7192267 112.8022908
  15.8910012 135.0234997 114.8749988  15.1550012 135.6344997 114.8369988
  16.5740012 135.4384997 114.3479988  15.8826541 135.1631374 114.7985832
   8.8940012 133.1104997 112.3399988   8.7770012 132.1614997 112.2859988
   8.0390012 133.4424997 112.6139988   8.7624212 133.0255571 112.3696497
  16.6880012 144.9854997 117.0679988  16.8280012 144.3944997 116.3289988
  16.8550012 145.8584997 116.7119988  16.7297411 145.0225428 116.9186894
  18.5300012 141.3254997 115.1339988  17.8770012 142.0204997 115.2239988
  18.9950012 141.5354997 114.3249988  18.5035274 141.4490643 115.0368462
  14.5660012 142.1574997 107.7929988  13.8340012 142.3854997 108.3659988
  15.0140012 141.4434997 108.2469988  14.5262725 142.0922145 107.9328816
  14.4640012 140.3314997 116.8599988  14.5440012 141.0944997 117.4319988
  13.8620012 140.6104997 116.1699988  14.3935756 140.4737134 116.8450589
   6.2120012 142.7874997 109.6749988   5.8810012 142.4174997 108.8569988
   6.8000012 142.1174997 110.0219988   6.2461873 142.6461156 109.6098102
   6.5780012 141.5564997 113.3089988   7.1440012 141.6774997 112.5459988
   6.8970012 142.1934997 113.9469988   6.6985474 141.6592219 113.2909862
  13.4370012 141.3194997 105.4779988  14.0170012 141.4694997 106.2249988
  13.8510012 141.7904997 104.7539988  13.5722997 141.4036578 105.4824058
   4.3780012 142.1534997 117.2539988   4.4490012 142.8044997 117.9529988
   3.4880012 142.2564997 116.9189988   4.2673005 142.2565427 117.3043495
  17.1360012 133.0694997 105.2909988  16.2360012 133.2084997 105.5859988
  17.3880012 133.9004997 104.8889988  17.0468702 133.2009074 105.2770205
   5.2020012 141.8574997 107.2639988   4.9100012 142.6254997 106.7739988
   4.5280012 141.1974997 107.1019988   5.0708111 141.8735587 107.1748978
   1.2950012 144.2204997 116.0789988   0.7940012 144.1924997 115.2639988
   1.3000012 143.3144997 116.3889988   1.2270944 144.0942396 116.0093226
  16.3950012 139.1594997 119.1259988  15.9880012 139.6404997 118.4049988
  16.4360012 138.2544997 118.8179988  16.3448437 139.1029374 118.9856683
   6.1630012 134.0134997 113.1179988   5.3010012 133.9264997 112.7099988
   6.1400012 134.8694997 113.5459988   6.0420409 134.1172883 113.1200589
  10.8260012 133.7354997 116.4929988  11.2460012 133.3204997 117.2459988
   9.8930012 133.5574997 116.6099988  10.7573644 133.6545900 116.6119539
  14.1520012 137.4914997 117.3459988  13.6380012 137.3654997 118.1439988
  13.9970012 138.4034997 117.1019988  14.0606852 137.5976132 117.4222158
  14.9150012 142.3524997 103.1079988  14.9570012 142.1294997 102.1779988
  15.7640012 142.7514997 103.2969988  15.0355280 142.3759438 103.0063554
   6.2540012 138.9794997 114.2129988   5.6120012 138.9384997 114.9219988
   6.2910012 139.9054997 113.9749988   6.1710664 139.0991430 114.2779219
   6.2510012 139.2004997 109.1249988   5.3580012 138.8594997 109.0659988
   6.7010012 138.8234997 108.3689988   6.1898130 139.1029631 109.0147702
  11.7860012 139.6164997 107.9419988  11.3770012 140.4314997 107.6509988
  12.5070012 139.4764997 107.3279988  11.8274537 139.7092018 107.8191342
  10.8880012 139.7914997 119.4299988  10.3260012 139.0874997 119.7509988
  11.7150012 139.6714997 119.8979988  10.9227095 139.6787883 119.5372330
  12.7910012 139.0624997 110.7559988  12.5960012 139.6674997 110.0409988
  12.9720012 138.2284997 110.3219988  12.7887614 139.0326300 110.5994405
   4.0040012 139.2994997 116.0799988   3.9660012 139.6994997 116.9489988
   3.5130012 138.4824997 116.1709988   3.9324684 139.2438069 116.2111059
   0.6120012 136.4154997 109.9309988   1.2430012 136.3864997 110.6499988
   1.0610012 135.9904997 109.1999988   0.7590918 136.3540836 109.9306441
  12.0550012 140.7004997 115.4269988  12.3780012 140.0694997 114.7839988
  11.6150012 140.1654997 116.0879988  12.0397484 140.5418387 115.4283198
   8.8320012 136.6274997 110.2109988   7.9210012 136.6844997 110.4999988
   9.3380012 136.5674997 111.0219988   8.7756899 136.6271941 110.3601184
   3.6610012 138.2564997 109.0379988   2.7710012 138.3564997 108.6979988
   3.9570012 137.4144997 108.6919988   3.5792823 138.1563546 108.9447213
   7.3140012 138.2564997 106.6949988   8.2450012 138.3854997 106.8729988
   7.0990012 138.9264997 106.0449988   7.4124247 138.3646565 106.6315747
  13.2370012 135.8624997 113.4759988  12.5610012 135.9934997 114.1399988
  12.7520012 135.7074997 112.6649988  13.0787146 135.8595157 113.4574469
   5.9880012 139.4514997 104.2609988   5.4450012 139.0714997 103.5699988
   6.8210012 139.6454997 103.8329988   6.0263631 139.4257125 104.1084501
   4.1230012 144.0084997 119.3599988   4.8550012 144.2624997 119.9219988
   3.3430012 144.2124997 119.8759988   4.1177073 144.0708160 119.5066151
  10.1520012 139.4154997 112.0979988  10.7170012 138.8684997 111.5509988
  10.0050012 138.8934997 112.8869988  10.2093380 139.2702259 112.1298695
   5.1540012 135.5514997 108.5169988   4.8370012 134.6494997 108.4809988
   5.9360012 135.5534997 107.9639988   5.2162408 135.4282474 108.4373569
   8.7790012 137.8034997 114.5119988   7.9430012 138.2574997 114.6229988
   9.3030012 138.0794997 115.2639988   8.7355416 137.9028660 114.6288119
  16.4730012 143.1494997 114.9839988  17.1150012 143.6064997 114.4399988
  15.6430012 143.2624997 114.5209988  16.4485963 143.2272704 114.8470177
  13.2210012 136.8304997 104.3959988  12.2820012 136.9424997 104.2449988
  13.5180012 137.6874997 104.7029988  13.1327583 136.9615981 104.4168337
  10.8420012 144.2004997 117.4339988  10.4970012 143.8194997 118.2409988
  10.6420012 145.1344997 117.5049988  10.7677527 144.2745135 117.5540689
  13.9390012 138.6974997 106.0569988  14.8310012 138.5604997 106.3759988
  13.9960012 139.4884997 105.5199988  14.0686504 138.7856052 106.0280818
   4.4480012 143.3114997 111.9669988   5.1930012 143.3094997 111.3659988
   4.5260012 142.4884997 112.4479988   4.5604995 143.1998887 111.9498282
   1.4560012 141.7724997 117.2819988   1.6790012 141.3544997 118.1139988
   0.8540012 141.1594997 116.8589988   1.4051759 141.6324668 117.3387022
   8.4720012 141.2894997 119.4949988   8.1760012 141.1234997 118.5999988
   9.4040012 141.0694997 119.4839988   8.5574166 141.2370640 119.3710536
  18.8240012 138.9074997 105.7519988  18.2700012 138.5114997 105.0799988
  18.9240012 139.8174997 105.4739988  18.7617059 138.9763586 105.6224401
  18.7870012 144.7074997 118.5889988  17.9360012 144.9454997 118.2219988
  19.3780012 144.6904997 117.8359988  18.7502487 144.7378258 118.4368893
  14.2800012 142.5014997 113.2379988  13.3510012 142.2694997 113.2109988
  14.7310012 141.7244997 112.9079988  14.2139216 142.3647238 113.1896917
   2.5780012 141.6914997 103.9579988   3.1940012 142.3184997 104.3379988
   1.7160012 142.0074997 104.2299988   2.5457698 141.8199430 104.0467183
   8.2500012 144.4924997 108.9469988   8.0090012 145.4174997 108.9889988
   7.5090012 144.0334997 109.3439988   8.1169225 144.5570933 109.0063742
  12.3090012 144.7404997 114.9629988  11.8830012 144.5134997 115.7899988
  12.8890012 144.0024997 114.7809988  12.3291868 144.6095299 115.0515830
   3.0900012 136.5254997 116.8399988   2.1970012 136.8644997 116.7719988
   2.9910012 135.6704997 117.2579988   2.9544164 136.4562588 116.8872235
  15.3780012 144.3424997 106.2639988  15.1000012 143.6144997 106.8199988
  16.3050012 144.4614997 106.4689988  15.4653124 144.2588802 106.3678845
  11.8240012 136.2664997 115.7299988  12.5230012 136.3404997 116.3799988
  11.4430012 135.4024997 115.8839988  11.8681767 136.1597624 115.8398322
  12.6090012 135.9184997 106.8269988  12.8290012 136.3904997 106.0239988
  13.1670012 136.3134997 107.4969988  12.7144968 136.0364285 106.8077331
   9.8090012 137.6464997 107.6619988  10.6210012 138.1514997 107.7079988
   9.5640012 137.5014997 108.5759988   9.8870520 137.6960375 107.7918517
  10.3440012 138.6324997 116.8459988  10.4630012 139.2064997 117.6039988
  11.0000012 137.9444997 116.9609988  10.4489025 138.6179858 116.9651321
  10.6920012 134.7274997 108.5999988  10.3460012 135.3454997 109.2439988
  11.3510012 135.2284997 108.1179988  10.7336968 134.8796278 108.6229383
   6.3500012 135.7904997 105.2869988   6.2670012 136.6794997 105.6339988
   7.2400012 135.5254997 105.5189988   6.4589469 135.8761430 105.3657626
  16.5490012 136.5394997 117.6809988  15.6320012 136.8024997 117.5939988
  16.8840012 136.5364997 116.7849988  16.4688613 136.5750761 117.5478837
  15.1510012 140.2904997 111.7769988  14.3530012 139.8754997 111.4489988
  15.5960012 139.5994997 112.2679988  15.1019885 140.1403543 111.7984889
   3.7330012 133.6644997 112.1369988   3.5040012 133.7234997 111.2089988
   3.2900012 132.8724997 112.4429988   3.6418530 133.5655753 112.0514786
   1.8580012 144.0274997 120.5809988   2.0020012 143.1254997 120.2949988
   1.0860012 144.3134997 120.0939988   1.7732753 143.9426816 120.4759505
   8.5140012 143.9974997 120.0139988   8.1850012 144.2684997 119.1569988
   8.6660012 143.0564997 119.9269988   8.4894809 143.9073862 119.8848244
  14.2480012 143.9134997 117.3969988  14.9940012 144.5014997 117.2779988
  13.4910012 144.4954997 117.4609988  14.2477820 144.0727143 117.3893590
   2.6910012 141.2274997 120.0009988   3.0990012 140.3704997 119.8799988
   2.4310012 141.2424997 120.9219988   2.7117568 141.1120807 120.1089588
   6.6380012 140.2364997 117.3759988   6.0200012 140.9114997 117.6559988
   6.9820012 140.5574997 116.5419988   6.5999132 140.3722411 117.3016262
  11.6580012 142.7084997 120.6529988  12.6110012 142.7914997 120.6259988
  11.4970012 141.9964997 121.2729988  11.7666426 142.6236746 120.7330579
  17.8100012 142.9414997 102.7279988  17.5360012 142.5164997 101.9149988
  17.8490012 143.8724997 102.5109988  17.7777699 143.0092484 102.5873610
   6.9770012 137.5914997 118.4579988   7.1270012 136.8624997 117.8559988
   6.9800012 138.3684997 117.8989988   6.9979302 137.5967851 118.3000692
   7.3900012 135.9614997 115.9509988   7.9260012 136.4124997 115.2989988
   6.5380012 135.8534997 115.5279988   7.3482178 136.0086390 115.8045756
   8.9720012 141.4004997 116.1899988   9.7220012 141.2444997 115.6169988
   8.6330012 142.2524997 115.9149988   9.0288921 141.4942968 116.0743561
  13.3870012 139.2154997 121.2189988  13.5800012 138.2844997 121.1069988
  14.2450012 139.6404997 121.2079988  13.5292934 139.1456531 121.2022031
  14.7040012 142.0044997 119.2959988  14.4230012 142.7134997 118.7179988
  15.6470012 141.9314997 119.1449988  14.7929291 142.0916711 119.1964967
   5.4560012 138.7894997 120.3699988   4.6890012 138.2574997 120.1589988
   6.1350012 138.4794997 119.7699988   5.4427877 138.6748300 120.2600716
   8.1960012 133.4174997 116.3819988   8.0970012 134.3644997 116.2769988
   7.4530012 133.0454997 115.9059988   8.0821184 133.4965863 116.3033621
   9.4600012 137.7394997 119.9459988   9.2240012 137.5194997 120.8469988
   8.6760012 137.5324997 119.4359988   9.3218504 137.6814586 120.0003431
  12.1750012 136.8664997 119.0209988  11.2280012 136.8984997 119.1539988
  12.4880012 136.2414997 119.6749988  12.0876707 136.7863998 119.1276060
  13.8090012 135.5004997 121.0269988  13.7130012 134.5484997 121.0209988
  13.4880012 135.7694997 121.8869988  13.7524070 135.4064035 121.1425441
   3.6360012 136.7104997 120.0739988   3.8480012 136.0034997 119.4639988
   3.5250012 136.2724997 120.9179988   3.6499721 136.5547084 120.1046843
   8.4170012 132.7114997 119.0529988   9.1290012 132.0714997 119.0389988
   8.3160012 132.9784997 118.1399988   8.5008066 132.6600079 118.9275677
   8.7710012 134.3944997 121.1069988   8.6390012 133.9184997 120.2869988
   8.1720012 135.1384997 121.0519988   8.6719071 134.4299618 120.9872886
  18.2680012 143.8104997 106.7029988  19.1180012 144.2314997 106.8299988
  18.2740012 143.0704997 107.3099988  18.3851372 143.7680803 106.8024344
  18.6630012 141.8634997 108.5259988  17.9360012 141.3844997 108.9239988
  19.2440012 142.0694997 109.2589988  18.6420473 141.8258103 108.6794528
  18.4220012 144.6484997 113.4739988  19.2550012 144.2704997 113.1939988
  18.5340012 145.5914997 113.3549988  18.5512647 144.7242218 113.4195487
  18.9310012 141.7644997 104.9179988  18.4090012 142.1214997 104.1989988
  18.8980012 142.4394997 105.5959988  18.8551634 141.9045413 104.9113145
  16.4490012 140.3844997 109.0889988  16.2990012 139.4394997 109.0689988
  16.0960012 140.6654997 109.9329988  16.3807448 140.2931481 109.2003705
   1.4850012 142.4624997 113.0999988   1.6690012 142.3804997 112.1639988
   2.3340012 142.3384997 113.5229988   1.6250151 142.4345073 113.0291451
  17.3060012 142.3544997 118.7279988  17.8890012 141.6204997 118.9199988
  17.8700012 143.1264997 118.7749988  17.4619769 142.3584227 118.7606159
  18.8020012 140.2574997 119.4129988  17.9390012 139.8784997 119.2469988
  19.4070012 139.5184997 119.3379988  18.7656119 140.1058268 119.3801528
  16.1600012 137.9674997 107.5519988  16.4400012 137.0604997 107.6759988
  16.9190012 138.4014997 107.1629988  16.3009277 137.9020942 107.5163682
  16.7720012 138.5484997 112.9879988  17.7050012 138.7604997 112.9529988
  16.5370012 138.6504997 113.9099988  16.8679244 138.5913100 113.1078892
  16.8010012 139.2854997 115.7639988  15.9580012 139.5534997 116.1299988
  17.2430012 140.1074997 115.5529988  16.7454158 139.4333291 115.7855491
   1.0820012 137.7334997 119.2409988   2.0020012 137.6114997 119.4769988
   0.6330012 136.9834997 119.6299988   1.1471580 137.6153727 119.3259006
  19.0840012 133.2654997 121.1169988  19.4340012 132.6114997 120.5119988
  19.2310012 134.1024997 120.6769988  19.1517887 133.2891548 120.9746858
  16.7730012 135.2304997 107.5999988  16.9560012 134.7814997 108.4259988
  16.1740012 134.6454997 107.1369988  16.7170202 135.0899975 107.6503275
   2.3030012 136.0454997 112.1319988   2.7490012 135.2534997 112.4339988
   2.7700012 136.7614997 112.5619988   2.4270831 136.0340685 112.2314006
   0.6070012 139.0444997 113.2009988   1.0990012 138.8234997 112.4099988
   0.9700012 139.8854997 113.4819988   0.7233126 139.1278357 113.1307531
  18.6040012 135.3744997 119.4659988  17.6860012 135.6454997 119.4309988
  18.7270012 134.8394997 118.6819988  18.4949729 135.3392508 119.3551923
   0.9210012 135.3024997 107.2549988  -0.0039988 135.5114997 107.1259988
   1.3750012 135.7864997 106.5649988   0.8557292 135.3965343 107.1440720
   0.8850012 134.0404997 115.5989988   0.2200012 133.7944997 116.2429988
   0.4420012 134.6624997 115.0219988   0.7341318 134.0909410 115.6090898
  17.6040012 133.4644997 117.2849988  16.7920012 133.7894997 116.8979988
  17.8370012 132.7044997 116.7519988  17.5242203 133.4062758 117.1598880
  11.0340012 134.9134997 111.6079988  10.3600012 134.2844997 111.8639988
  11.5980012 134.4294997 111.0049988  11.0179230 134.7618744 111.5615340
  16.1770012 133.0214997 111.7209988  16.7810012 133.5684997 111.2189988
  15.3070012 133.3404997 111.4799988  16.1421208 133.1395137 111.6196886
  17.9040012 134.1594997 110.0539988  18.5160012 133.6454997 109.5269988
  18.2860012 135.0374997 110.0769988  18.0393371 134.2077866 109.9850041
   3.3610012 133.5474997 109.4299988   2.5840012 133.3134997 108.9229988
   3.8910012 132.7504997 109.4389988   3.3262330 133.4076988 109.3617742
   2.1970012 133.3454997 105.2339988   2.6360012 133.9564997 104.6419988
   1.5640012 133.8834997 105.7079988   2.1714514 133.5019257 105.2170930
   7.9400012 133.4744997 109.2439988   8.8150012 133.8624997 109.2139988
   7.8040012 133.2594997 110.1659988   8.0413695 133.4985184 109.3646440
  13.4970012 133.5044997 110.8929988  13.5730012 133.5994997 109.9429988
  13.2220012 132.5964997 111.0219988  13.4702321 133.3947867 110.7805079
  14.8500012 133.5304997 106.5849988  14.1480012 134.1454997 106.3749988
  14.4060012 132.6924997 106.7159988  14.6936450 133.5015639 106.5739000
   9.0840012 135.5544997 106.1329988   9.2620012 134.9084997 106.8159988
   9.0310012 136.3884997 106.5999988   9.1011999 135.5788009 106.2895917
   3.3190012 134.0614997 118.9479988   2.9530012 133.2964997 119.3899988
   4.2320012 134.0904997 119.2339988   3.3922736 133.9605640 119.0472502
   5.2920012 133.4124997 120.4839988   6.1900012 133.1384997 120.2989988
   4.9050012 132.6694997 120.9479988   5.3626612 133.2745914 120.5213643
  13.7130012 132.7444997 120.6659988  13.7900012 132.3184997 121.5199988
  14.6070012 132.7584997 120.3229988  13.8443428 132.6880880 120.7365310
  31.2950012 142.7034997 109.3889988  31.3840012 143.6474997 109.2569988
  30.6570012 142.4284997 108.7309988  31.2209081 142.7954830 109.2819614
  30.2280012 141.9584997 112.8079988  30.1900012 141.3124997 113.5129988
  29.9060012 141.4924997 112.0369988  30.1792333 141.8069408 112.8002978
  22.5970012 141.5734997 114.4009988  22.6380012 140.9474997 115.1239988
  23.3000012 142.1974997 114.5829988  22.6976363 141.5721196 114.5246044
  33.9340012 144.8974997 111.1089988  33.4940012 144.1774997 111.5599988
  33.9210012 145.6184997 111.7389988  33.8720226 144.8963731 111.2558494
  20.1300012 139.6834997 108.3289988  19.6830012 140.5294997 108.3099988
  19.5690012 139.1034997 107.8129988  19.9929900 139.7209916 108.2566801
  20.8410012 141.8454997 110.4539988  21.0540012 141.0754997 110.9819988
  21.5790012 141.9344997 109.8509988  20.9699044 141.7521968 110.4447123
  28.6180012 144.3914997 113.2139988  28.9220012 143.7054997 112.6189988
  29.3390012 144.5094997 113.8319988  28.7570671 144.3136305 113.2161816
  37.2810012 135.9924997 114.0749988  37.3300012 136.6024997 114.8099988
  37.7060012 136.4534997 113.3519988  37.3451746 136.1383796 114.0779175
  31.7590012 138.7854997 113.5409988  31.9010012 137.8394997 113.5619988
  31.6520012 138.9924997 112.6129988  31.7639919 138.6838246 113.4183408
  24.9130012 136.8864997 110.8139988  24.9570012 137.7464997 110.3949988
  24.4560012 136.3344997 110.1799988  24.8572240 136.9294422 110.6709864
  32.6360012 137.0174997 109.2149988  33.2820012 136.6884997 109.8389988
  33.1460012 137.5354997 108.5919988  32.7934299 137.0424450 109.2162731
  21.5340012 139.2834997 111.5759988  22.1870012 138.7334997 112.0079988
  21.5580012 139.0094997 110.6589988  21.6266683 139.1711466 111.5112123
  26.6900012 140.8334997 110.7909988  27.3060012 140.3074997 111.3009988
  26.1040012 140.1934997 110.3879988  26.6950810 140.6749208 110.8063173
  37.6720012 137.4704997 116.3099988  36.9840012 138.1284997 116.2149988
  37.6880012 137.2734997 117.2469988  37.5799540 137.5339819 116.4235990
  23.7240012 135.8044997 114.8879988  23.5050012 136.3344997 114.1219988
  23.0560012 136.0314997 115.5349988  23.6037600 135.9076906 114.8706379
  26.2930012 143.4804997 115.1749988  25.5530012 144.0784997 115.2789988
  27.0070012 144.0344997 114.8599988  26.2882237 143.6372831 115.1466465
  34.4000012 136.3084997 111.1949988  34.1840012 135.5424997 111.7279988
  35.0550012 136.7804997 111.7079988  34.4590632 136.2675889 111.3372861
  23.3170012 137.6964997 112.8399988  23.9310012 138.3294997 113.2129988
  23.8290012 137.2244997 112.1839988  23.4701981 137.7192267 112.8022908
  34.7470012 135.0234997 114.8749988  34.0110012 135.6344997 114.8369988
  35.4300012 135.4384997 114.3479988  34.7386541 135.1631374 114.7985832
  27.7500012 133.1104997 112.3399988  27.6330012 132.1614997 112.2859988
  26.8950012 133.4424997 112.6139988  27.6184212 133.0255571 112.3696497
  35.5440012 144.9854997 117.0679988  35.6840012 144.3944997 116.3289988
  35.7110012 145.8584997 116.7119988  35.5857411 145.0225428 116.9186894
  30.0170012 141.9474997 106.8409988  29.3050012 142.4824997 106.4889988
  30.7080012 142.0034997 106.1809988  30.0130132 142.0282543 106.7036289
  37.3860012 141.3254997 115.1339988  36.7330012 142.0204997 115.2239988
  37.8510012 141.5354997 114.3249988  37.3595274 141.4490643 115.0368462
  33.4220012 142.1574997 107.7929988  32.6900012 142.3854997 108.3659988
  33.8700012 141.4434997 108.2469988  33.3822725 142.0922145 107.9328816
  33.3200012 140.3314997 116.8599988  33.4000012 141.0944997 117.4319988
  32.7180012 140.6104997 116.1699988  33.2495756 140.4737134 116.8450589
  25.0680012 142.7874997 109.6749988  24.7370012 142.4174997 108.8569988
  25.6560012 142.1174997 110.0219988  25.1021873 142.6461156 109.6098102
  25.4340012 141.5564997 113.3089988  26.0000012 141.6774997 112.5459988
  25.7530012 142.1934997 113.9469988  25.5545474 141.6592219 113.2909862
  32.2930012 141.3194997 105.4779988  32.8730012 141.4694997 106.2249988
  32.7070012 141.7904997 104.7539988  32.4282997 141.4036578 105.4824058
  23.2340012 142.1534997 117.2539988  23.3050012 142.8044997 117.9529988
  22.3440012 142.2564997 116.9189988  23.1233005 142.2565427 117.3043495
  35.9920012 133.0694997 105.2909988  35.0920012 133.2084997 105.5859988
  36.2440012 133.9004997 104.8889988  35.9028702 133.2009074 105.2770205
  24.0580012 141.8574997 107.2639988  23.7660012 142.6254997 106.7739988
  23.3840012 141.1974997 107.1019988  23.9268111 141.8735587 107.1748978
  20.1510012 144.2204997 116.0789988  19.6500012 144.1924997 115.2639988
  20.1560012 143.3144997 116.3889988  20.0830944 144.0942396 116.0093226
  35.2510012 139.1594997 119.1259988  34.8440012 139.6404997 118.4049988
  35.2920012 138.2544997 118.8179988  35.2008437 139.1029374 118.9856683
  25.0190012 134.0134997 113.1179988  24.1570012 133.9264997 112.7099988
  24.9960012 134.8694997 113.5459988  24.8980409 134.1172883 113.1200589
  29.6820012 133.7354997 116.4929988  30.1020012 133.3204997 117.2459988
  28.7490012 133.5574997 116.6099988  29.6133644 133.6545900 116.6119539
  33.0080012 137.4914997 117.3459988  32.4940012 137.3654997 118.1439988
  32.8530012 138.4034997 117.1019988  32.9166852 137.5976132 117.4222158
  33.7710012 142.3524997 103.1079988  33.8130012 142.1294997 102.1779988
  34.6200012 142.7514997 103.2969988  33.8915280 142.3759438 103.0063554
  29.3430012 136.2284997 103.7779988  29.0900012 136.2474997 104.7009988
  29.0870012 135.3564997 103.4759988  29.2737481 136.1132558 103.8636175
  25.1100012 138.9794997 114.2129988  24.4680012 138.9384997 114.9219988
  25.1470012 139.9054997 113.9749988  25.0270664 139.0991430 114.2779219
  25.1070012 139.2004997 109.1249988  24.2140012 138.8594997 109.0659988
  25.5570012 138.8234997 108.3689988  25.0458130 139.1029631 109.0147702
  30.6420012 139.6164997 107.9419988  30.2330012 140.4314997 107.6509988
  31.3630012 139.4764997 107.3279988  30.6834537 139.7092018 107.8191342
  29.7440012 139.7914997 119.4299988  29.1820012 139.0874997 119.7509988
  30.5710012 139.6714997 119.8979988  29.7787095 139.6787883 119.5372330
  31.6470012 139.0624997 110.7559988  31.4520012 139.6674997 110.0409988
  31.8280012 138.2284997 110.3219988  31.6447614 139.0326300 110.5994405
  22.8600012 139.2994997 116.0799988  22.8220012 139.6994997 116.9489988
  22.3690012 138.4824997 116.1709988  22.7884684 139.2438069 116.2111059
  26.2260012 136.6734997 102.8789988  25.7950012 136.2284997 103.6089988
  25.5080012 137.0454997 102.3669988  26.0699438 136.6628940 102.9096799
  19.4680012 136.4154997 109.9309988  20.0990012 136.3864997 110.6499988
  19.9170012 135.9904997 109.1999988  19.6150918 136.3540836 109.9306441
  20.7420012 137.1614997 105.3549988  21.2160012 137.7524997 104.7699988
  20.0250012 137.6924997 105.7019988  20.7099341 137.3140867 105.3218836
  30.9110012 140.7004997 115.4269988  31.2340012 140.0694997 114.7839988
  30.4710012 140.1654997 116.0879988  30.8957484 140.5418387 115.4283198
  27.6880012 136.6274997 110.2109988  26.7770012 136.6844997 110.4999988
  28.1940012 136.5674997 111.0219988  27.6316899 136.6271941 110.3601184
  22.5170012 138.2564997 109.0379988  21.6270012 138.3564997 108.6979988
  22.8130012 137.4144997 108.6919988  22.4352823 138.1563545 108.9447213
  26.1700012 138.2564997 106.6949988  27.1010012 138.3854997 106.8729988
  25.9550012 138.9264997 106.0449988  26.2684247 138.3646565 106.6315747
  32.0930012 135.8624997 113.4759988  31.4170012 135.9934997 114.1399988
  31.6080012 135.7074997 112.6649988  31.9347146 135.8595157 113.4574469
  24.8440012 139.4514997 104.2609988  24.3010012 139.0714997 103.5699988
  25.6770012 139.6454997 103.8329988  24.8823631 139.4257125 104.1084501
  22.9790012 144.0084997 119.3599988  23.7110012 144.2624997 119.9219988
  22.1990012 144.2124997 119.8759988  22.9737073 144.0708160 119.5066151
  29.0080012 139.4154997 112.0979988  29.5730012 138.8684997 111.5509988
  28.8610012 138.8934997 112.8869988  29.0653380 139.2702259 112.1298695
  24.0100012 135.5514997 108.5169988  23.6930012 134.6494997 108.4809988
  24.7920012 135.5534997 107.9639988  24.0722408 135.4282474 108.4373569
  27.6350012 137.8034997 114.5119988  26.7990012 138.2574997 114.6229988
  28.1590012 138.0794997 115.2639988  27.5915416 137.9028660 114.6288119
  28.1790012 144.0164997 106.1969988  27.4340012 143.5094997 105.8749988
  28.0450012 144.0654997 107.1439988  28.0588776 143.9536940 106.2808647
  35.3290012 143.1494997 114.9839988  35.9710012 143.6064997 114.4399988
  34.4990012 143.2624997 114.5209988  35.3045963 143.2272704 114.8470177
  29.6980012 144.2004997 117.4339988  29.3530012 143.8194997 118.2409988
  29.4980012 145.1344997 117.5049988  29.6237527 144.2745135 117.5540689
  23.3040012 143.3114997 111.9669988  24.0490012 143.3094997 111.3659988
  23.3820012 142.4884997 112.4479988  23.4164995 143.1998887 111.9498282
  20.3120012 141.7724997 117.2819988  20.5350012 141.3544997 118.1139988
  19.7100012 141.1594997 116.8589988  20.2611759 141.6324668 117.3387022
  27.3280012 141.2894997 119.4949988  27.0320012 141.1234997 118.5999988
  28.2600012 141.0694997 119.4839988  27.4134166 141.2370640 119.3710536
  37.6800012 138.9074997 105.7519988  37.1260012 138.5114997 105.0799988
  37.7800012 139.8174997 105.4739988  37.6177059 138.9763586 105.6224401
  37.6430012 144.7074997 118.5889988  36.7920012 144.9454997 118.2219988
  38.2340012 144.6904997 117.8359988  37.6062487 144.7378258 118.4368893
  33.1360012 142.5014997 113.2379988  32.2070012 142.2694997 113.2109988
  33.5870012 141.7244997 112.9079988  33.0699216 142.3647238 113.1896917
  21.4340012 141.6914997 103.9579988  22.0500012 142.3184997 104.3379988
  20.5720012 142.0074997 104.2299988  21.4017698 141.8199430 104.0467183
  27.1060012 144.4924997 108.9469988  26.8650012 145.4174997 108.9889988
  26.3650012 144.0334997 109.3439988  26.9729225 144.5570933 109.0063742
  31.1650012 144.7404997 114.9629988  30.7390012 144.5134997 115.7899988
  31.7450012 144.0024997 114.7809988  31.1851868 144.6095299 115.0515830
  21.9460012 136.5254997 116.8399988  21.0530012 136.8644997 116.7719988
  21.8470012 135.6704997 117.2579988  21.8104164 136.4562588 116.8872235
  34.2340012 144.3424997 106.2639988  33.9560012 143.6144997 106.8199988
  35.1610012 144.4614997 106.4689988  34.3213124 144.2588802 106.3678845
  22.8490012 143.6044997 105.4509988  22.1630012 143.9564997 106.0179988
  23.3710012 144.3674997 105.2039988  22.8256852 143.7558578 105.4952118
  30.6800012 136.2664997 115.7299988  31.3790012 136.3404997 116.3799988
  30.2990012 135.4024997 115.8839988  30.7241767 136.1597624 115.8398322
  31.4650012 135.9184997 106.8269988  31.6850012 136.3904997 106.0239988
  32.0230012 136.3134997 107.4969988  31.5704968 136.0364285 106.8077331
  28.6650012 137.6464997 107.6619988  29.4770012 138.1514997 107.7079988
  28.4200012 137.5014997 108.5759988  28.7430520 137.6960375 107.7918517
  29.2000012 138.6324997 116.8459988  29.3190012 139.2064997 117.6039988
  29.8560012 137.9444997 116.9609988  29.3049025 138.6179858 116.9651321
  29.5480012 134.7274997 108.5999988  29.2020012 135.3454997 109.2439988
  30.2070012 135.2284997 108.1179988  29.5896968 134.8796278 108.6229383
  25.2060012 135.7904997 105.2869988  25.1230012 136.6794997 105.6339988
  26.0960012 135.5254997 105.5189988  25.3149469 135.8761430 105.3657626
  35.4050012 136.5394997 117.6809988  34.4880012 136.8024997 117.5939988
  35.7400012 136.5364997 116.7849988  35.3248613 136.5750761 117.5478837
  34.0070012 140.2904997 111.7769988  33.2090012 139.8754997 111.4489988
  34.4520012 139.5994997 112.2679988  33.9579885 140.1403543 111.7984889
  22.5890012 133.6644997 112.1369988  22.3600012 133.7234997 111.2089988
  22.1460012 132.8724997 112.4429988  22.4978530 133.5655753 112.0514786
  20.7140012 144.0274997 120.5809988  20.8580012 143.1254997 120.2949988
  19.9420012 144.3134997 120.0939988  20.6292753 143.9426816 120.4759505
  27.3700012 143.9974997 120.0139988  27.0410012 144.2684997 119.1569988
  27.5220012 143.0564997 119.9269988  27.3454809 143.9073862 119.8848244
  33.1040012 143.9134997 117.3969988  33.8500012 144.5014997 117.2779988
  32.3470012 144.4954997 117.4609988  33.1037820 144.0727143 117.3893590
  21.5470012 141.2274997 120.0009988  21.9550012 140.3704997 119.8799988
  21.2870012 141.2424997 120.9219988  21.5677568 141.1120807 120.1089588
  25.4940012 140.2364997 117.3759988  24.8760012 140.9114997 117.6559988
  25.8380012 140.5574997 116.5419988  25.4559132 140.3722411 117.3016262
  30.5140012 142.7084997 120.6529988  31.4670012 142.7914997 120.6259988
  30.3530012 141.9964997 121.2729988  30.6226426 142.6236746 120.7330579
  36.6660012 142.9414997 102.7279988  36.3920012 142.5164997 101.9149988
  36.7050012 143.8724997 102.5109988  36.6337699 143.0092484 102.5873610
  25.8330012 137.5914997 118.4579988  25.9830012 136.8624997 117.8559988
  25.8360012 138.3684997 117.8989988  25.8539302 137.5967851 118.3000692
  26.2460012 135.9614997 115.9509988  26.7820012 136.4124997 115.2989988
  25.3940012 135.8534997 115.5279988  26.2042178 136.0086390 115.8045756
  27.8280012 141.4004997 116.1899988  28.5780012 141.2444997 115.6169988
  27.4890012 142.2524997 115.9149988  27.8848921 141.4942968 116.0743561
  32.2430012 139.2154997 121.2189988  32.4360012 138.2844997 121.1069988
  33.1010012 139.6404997 121.2079988  32.3852934 139.1456531 121.2022031
  33.5600012 142.0044997 119.2959988  33.2790012 142.7134997 118.7179988
  34.5030012 141.9314997 119.1449988  33.6489291 142.0916711 119.1964967
  24.3120012 138.7894997 120.3699988  23.5450012 138.2574997 120.1589988
  24.9910012 138.4794997 119.7699988  24.2987877 138.6748300 120.2600716
  27.0520012 133.4174997 116.3819988  26.9530012 134.3644997 116.2769988
  26.3090012 133.0454997 115.9059988  26.9381184 133.4965863 116.3033621
  28.3160012 137.7394997 119.9459988  28.0800012 137.5194997 120.8469988
  27.5320012 137.5324997 119.4359988  28.1778504 137.6814586 120.0003431
  31.0310012 136.8664997 119.0209988  30.0840012 136.8984997 119.1539988
  31.3440012 136.2414997 119.6749988  30.9436707 136.7863998 119.1276060
  32.6650012 135.5004997 121.0269988  32.5690012 134.5484997 121.0209988
  32.3440012 135.7694997 121.8869988  32.6084070 135.4064035 121.1425441
  22.4920012 136.7104997 120.0739988  22.7040012 136.0034997 119.4639988
  22.3810012 136.2724997 120.9179988  22.5059721 136.5547084 120.1046843
  27.2730012 132.7114997 119.0529988  27.9850012 132.0714997 119.0389988
  27.1720012 132.9784997 118.1399988  27.3568066 132.6600079 118.9275677
  27.6270012 134.3944997 121.1069988  27.4950012 133.9184997 120.2869988
  27.0280012 135.1384997 121.0519988  27.5279071 134.4299618 120.9872886
  37.1240012 143.8104997 106.7029988  37.9740012 144.2314997 106.8299988
  37.1300012 143.0704997 107.3099988  37.2411372 143.7680803 106.8024344
  37.5190012 141.8634997 108.5259988  36.7920012 141.3844997 108.9239988
  38.1000012 142.0694997 109.2589988  37.4980473 141.8258103 108.6794528
  37.2780012 144.6484997 113.4739988  38.1110012 144.2704997 113.1939988
  37.3900012 145.5914997 113.3549988  37.4072647 144.7242218 113.4195487
  37.7870012 141.7644997 104.9179988  37.2650012 142.1214997 104.1989988
  37.7540012 142.4394997 105.5959988  37.7111634 141.9045413 104.9113145
  35.3050012 140.3844997 109.0889988  35.1550012 139.4394997 109.0689988
  34.9520012 140.6654997 109.9329988  35.2367448 140.2931481 109.2003705
  20.3410012 142.4624997 113.0999988  20.5250012 142.3804997 112.1639988
  21.1900012 142.3384997 113.5229988  20.4810151 142.4345073 113.0291451
  36.1620012 142.3544997 118.7279988  36.7450012 141.6204997 118.9199988
  36.7260012 143.1264997 118.7749988  36.3179769 142.3584227 118.7606159
  37.6580012 140.2574997 119.4129988  36.7950012 139.8784997 119.2469988
  38.2630012 139.5184997 119.3379988  37.6216119 140.1058268 119.3801528
  35.6280012 138.5484997 112.9879988  36.5610012 138.7604997 112.9529988
  35.3930012 138.6504997 113.9099988  35.7239244 138.5913100 113.1078892
  35.6570012 139.2854997 115.7639988  34.8140012 139.5534997 116.1299988
  36.0990012 140.1074997 115.5529988  35.6014158 139.4333291 115.7855491
  19.9380012 137.7334997 119.2409988  20.8580012 137.6114997 119.4769988
  19.4890012 136.9834997 119.6299988  20.0031580 137.6153727 119.3259006
  37.9400012 133.2654997 121.1169988  38.2900012 132.6114997 120.5119988
  38.0870012 134.1024997 120.6769988  38.0077887 133.2891548 120.9746858
  35.6290012 135.2304997 107.5999988  35.8120012 134.7814997 108.4259988
  35.0300012 134.6454997 107.1369988  35.5730202 135.0899975 107.6503275
  21.1590012 136.0454997 112.1319988  21.6050012 135.2534997 112.4339988
  21.6260012 136.7614997 112.5619988  21.2830831 136.0340685 112.2314006
  19.4630012 139.0444997 113.2009988  19.9550012 138.8234997 112.4099988
  19.8260012 139.8854997 113.4819988  19.5793126 139.1278357 113.1307531
  37.4600012 135.3744997 119.4659988  36.5420012 135.6454997 119.4309988
  37.5830012 134.8394997 118.6819988  37.3509729 135.3392508 119.3551923
  19.7770012 135.3024997 107.2549988  18.8520012 135.5114997 107.1259988
  20.2310012 135.7864997 106.5649988  19.7117292 135.3965343 107.1440720
  19.7410012 134.0404997 115.5989988  19.0760012 133.7944997 116.2429988
  19.2980012 134.6624997 115.0219988  19.5901318 134.0909410 115.6090898
  36.4600012 133.4644997 117.2849988  35.6480012 133.7894997 116.8979988
  36.6930012 132.7044997 116.7519988  36.3802203 133.4062758 117.1598880
  29.8900012 134.9134997 111.6079988  29.2160012 134.2844997 111.8639988
  30.4540012 134.4294997 111.0049988  29.8739230 134.7618744 111.5615340
  35.0330012 133.0214997 111.7209988  35.6370012 133.5684997 111.2189988
  34.1630012 133.3404997 111.4799988  34.9981208 133.1395137 111.6196886
  36.7600012 134.1594997 110.0539988  37.3720012 133.6454997 109.5269988
  37.1420012 135.0374997 110.0769988  36.8953371 134.2077866 109.9850041
  22.2170012 133.5474997 109.4299988  21.4400012 133.3134997 108.9229988
  22.7470012 132.7504997 109.4389988  22.1822330 133.4076988 109.3617742
  21.0530012 133.3454997 105.2339988  21.4920012 133.9564997 104.6419988
  20.4200012 133.8834997 105.7079988  21.0274514 133.5019257 105.2170930
  26.7960012 133.4744997 109.2439988  27.6710012 133.8624997 109.2139988
  26.6600012 133.2594997 110.1659988  26.8973695 133.4985184 109.3646440
  32.3530012 133.5044997 110.8929988  32.4290012 133.5994997 109.9429988
  32.0780012 132.5964997 111.0219988  32.3262321 133.3947867 110.7805079
  33.7060012 133.5304997 106.5849988  33.0040012 134.1454997 106.3749988
  33.2620012 132.6924997 106.7159988  33.5496450 133.5015639 106.5739000
  22.9140012 135.2614997 103.6759988  23.4060012 134.6314997 103.1489988
  23.5380012 135.5574997 104.3389988  23.0655688 135.2153804 103.6935482
  27.9400012 135.5544997 106.1329988  28.1180012 134.9084997 106.8159988
  27.8870012 136.3884997 106.5999988  27.9571999 135.5788009 106.2895917
  22.1750012 134.0614997 118.9479988  21.8090012 133.2964997 119.3899988
  23.0880012 134.0904997 119.2339988  22.2482736 133.9605640 119.0472502
  24.1480012 133.4124997 120.4839988  25.0460012 133.1384997 120.2989988
  23.7610012 132.6694997 120.9479988  24.2186612 133.2745914 120.5213643
  32.5690012 132.7444997 120.6659988  32.6460012 132.3184997 121.5199988
  33.4630012 132.7584997 120.3229988  32.7003428 132.6880880 120.7365310
  50.1510012 142.7034997 109.3889988  50.2400012 143.6474997 109.2569988
  49.5130012 142.4284997 108.7309988  50.0769081 142.7954830 109.2819614
  49.0840012 141.9584997 112.8079988  49.0460012 141.3124997 113.5129988
  48.7620012 141.4924997 112.0369988  49.0352333 141.8069408 112.8002978
  41.4530012 141.5734997 114.4009988  41.4940012 140.9474997 115.1239988
  42.1560012 142.1974997 114.5829988  41.5536363 141.5721196 114.5246044
  52.7900012 144.8974997 111.1089988  52.3500012 144.1774997 111.5599988
  52.7770012 145.6184997 111.7389988  52.7280226 144.8963731 111.2558494
  38.9860012 139.6834997 108.3289988  38.5390012 140.5294997 108.3099988
  38.4250012 139.1034997 107.8129988  38.8489900 139.7209916 108.2566801
  39.6970012 141.8454997 110.4539988  39.9100012 141.0754997 110.9819988
  40.4350012 141.9344997 109.8509988  39.8259044 141.7521968 110.4447123
  47.4740012 144.3914997 113.2139988  47.7780012 143.7054997 112.6189988
  48.1950012 144.5094997 113.8319988  47.6130671 144.3136305 113.2161816
  56.1370012 135.9924997 114.0749988  56.1860012 136.6024997 114.8099988
  56.5620012 136.4534997 113.3519988  56.2011746 136.1383796 114.0779175
  50.6150012 138.7854997 113.5409988  50.7570012 137.8394997 113.5619988
  50.5080012 138.9924997 112.6129988  50.6199919 138.6838246 113.4183408
  43.7690012 136.8864997 110.8139988  43.8130012 137.7464997 110.3949988
  43.3120012 136.3344997 110.1799988  43.7132240 136.9294422 110.6709864
  51.4920012 137.0174997 109.2149988  52.1380012 136.6884997 109.8389988
  52.0020012 137.5354997 108.5919988  51.6494299 137.0424450 109.2162731
  40.3900012 139.2834997 111.5759988  41.0430012 138.7334997 112.0079988
  40.4140012 139.0094997 110.6589988  40.4826683 139.1711466 111.5112123
  45.5460012 140.8334997 110.7909988  46.1620012 140.3074997 111.3009988
  44.9600012 140.1934997 110.3879988  45.5510810 140.6749208 110.8063173
  56.5280012 137.4704997 116.3099988  55.8400012 138.1284997 116.2149988
  56.5440012 137.2734997 117.2469988  56.4359540 137.5339819 116.4235990
  42.5800012 135.8044997 114.8879988  42.3610012 136.3344997 114.1219988
  41.9120012 136.0314997 115.5349988  42.4597600 135.9076906 114.8706379
  45.1490012 143.4804997 115.1749988  44.4090012 144.0784997 115.2789988
  45.8630012 144.0344997 114.8599988  45.1442237 143.6372831 115.1466465
  53.2560012 136.3084997 111.1949988  53.0400012 135.5424997 111.7279988
  53.9110012 136.7804997 111.7079988  53.3150632 136.2675889 111.3372861
  42.1730012 137.6964997 112.8399988  42.7870012 138.3294997 113.2129988
  42.6850012 137.2244997 112.1839988  42.3261981 137.7192267 112.8022908
  53.6030012 135.0234997 114.8749988  52.8670012 135.6344997 114.8369988
  54.2860012 135.4384997 114.3479988  53.5946541 135.1631374 114.7985832
  46.6060012 133.1104997 112.3399988  46.4890012 132.1614997 112.2859988
  45.7510012 133.4424997 112.6139988  46.4744212 133.0255571 112.3696497
  54.4000012 144.9854997 117.0679988  54.5400012 144.3944997 116.3289988
  54.5670012 145.8584997 116.7119988  54.4417411 145.0225428 116.9186894
  48.8730012 141.9474997 106.8409988  48.1610012 142.4824997 106.4889988
  49.5640012 142.0034997 106.1809988  48.8690132 142.0282543 106.7036289
  56.2420012 141.3254997 115.1339988  55.5890012 142.0204997 115.2239988
  56.7070012 141.5354997 114.3249988  56.2155274 141.4490643 115.0368462
  52.2780012 142.1574997 107.7929988  51.5460012 142.3854997 108.3659988
  52.7260012 141.4434997 108.2469988  52.2382725 142.0922145 107.9328816
  52.1760012 140.3314997 116.8599988  52.2560012 141.0944997 117.4319988
  51.5740012 140.6104997 116.1699988  52.1055756 140.4737134 116.8450589
  43.9240012 142.7874997 109.6749988  43.5930012 142.4174997 108.8569988
  44.5120012 142.1174997 110.0219988  43.9581873 142.6461156 109.6098102
  44.2900012 141.5564997 113.3089988  44.8560012 141.6774997 112.5459988
  44.6090012 142.1934997 113.9469988  44.4105474 141.6592219 113.2909862
  42.0900012 142.1534997 117.2539988  42.1610012 142.8044997 117.9529988
  41.2000012 142.2564997 116.9189988  41.9793005 142.2565427 117.3043495
  54.8480012 133.0694997 105.2909988  53.9480012 133.2084997 105.5859988
  55.1000012 133.9004997 104.8889988  54.7588702 133.2009074 105.2770205
  42.9140012 141.8574997 107.2639988  42.6220012 142.6254997 106.7739988
  42.2400012 141.1974997 107.1019988  42.7828111 141.8735587 107.1748978
  39.0070012 144.2204997 116.0789988  38.5060012 144.1924997 115.2639988
  39.0120012 143.3144997 116.3889988  38.9390944 144.0942396 116.0093226
  54.1070012 139.1594997 119.1259988  53.7000012 139.6404997 118.4049988
  54.1480012 138.2544997 118.8179988  54.0568437 139.1029374 118.9856683
  43.8750012 134.0134997 113.1179988  43.0130012 133.9264997 112.7099988
  43.8520012 134.8694997 113.5459988  43.7540409 134.1172883 113.1200589
  48.5380012 133.7354997 116.4929988  48.9580012 133.3204997 117.2459988
  47.6050012 133.5574997 116.6099988  48.4693644 133.6545900 116.6119539
  51.8640012 137.4914997 117.3459988  51.3500012 137.3654997 118.1439988
  51.7090012 138.4034997 117.1019988  51.7726852 137.5976132 117.4222158
  52.6270012 142.3524997 103.1079988  52.6690012 142.1294997 102.1779988
  53.4760012 142.7514997 103.2969988  52.7475280 142.3759438 103.0063554
  43.9660012 138.9794997 114.2129988  43.3240012 138.9384997 114.9219988
  44.0030012 139.9054997 113.9749988  43.8830664 139.0991430 114.2779219
  43.9630012 139.2004997 109.1249988  43.0700012 138.8594997 109.0659988
  44.4130012 138.8234997 108.3689988  43.9018130 139.1029631 109.0147702
  49.4980012 139.6164997 107.9419988  49.0890012 140.4314997 107.6509988
  50.2190012 139.4764997 107.3279988  49.5394537 139.7092018 107.8191342
  48.6000012 139.7914997 119.4299988  48.0380012 139.0874997 119.7509988
  49.4270012 139.6714997 119.8979988  48.6347095 139.6787883 119.5372330
  50.5030012 139.0624997 110.7559988  50.3080012 139.6674997 110.0409988
  50.6840012 138.2284997 110.3219988  50.5007614 139.0326300 110.5994405
  41.7160012 139.2994997 116.0799988  41.6780012 139.6994997 116.9489988
  41.2250012 138.4824997 116.1709988  41.6444684 139.2438069 116.2111059
  38.3240012 136.4154997 109.9309988  38.9550012 136.3864997 110.6499988
  38.7730012 135.9904997 109.1999988  38.4710918 136.3540836 109.9306441
  39.5980012 137.1614997 105.3549988  40.0720012 137.7524997 104.7699988
  38.8810012 137.6924997 105.7019988  39.5659341 137.3140867 105.3218836
  49.7670012 140.7004997 115.4269988  50.0900012 140.0694997 114.7839988
  49.3270012 140.1654997 116.0879988  49.7517484 140.5418387 115.4283198
  46.5440012 136.6274997 110.2109988  45.6330012 136.6844997 110.4999988
  47.0500012 136.5674997 111.0219988  46.4876899 136.6271941 110.3601184
  41.3730012 138.2564997 109.0379988  40.4830012 138.3564997 108.6979988
  41.6690012 137.4144997 108.6919988  41.2912823 138.1563546 108.9447213
  45.0260012 138.2564997 106.6949988  45.9570012 138.3854997 106.8729988
  44.8110012 138.9264997 106.0449988  45.1244247 138.3646565 106.6315747
  50.9490012 135.8624997 113.4759988  50.2730012 135.9934997 114.1399988
  50.4640012 135.7074997 112.6649988  50.7907146 135.8595157 113.4574469
  43.7000012 139.4514997 104.2609988  43.1570012 139.0714997 103.5699988
  44.5330012 139.6454997 103.8329988  43.7383631 139.4257125 104.1084501
  41.8350012 144.0084997 119.3599988  42.5670012 144.2624997 119.9219988
  41.0550012 144.2124997 119.8759988  41.8297073 144.0708160 119.5066151
  47.8640012 139.4154997 112.0979988  48.4290012 138.8684997 111.5509988
  47.7170012 138.8934997 112.8869988  47.9213380 139.2702259 112.1298695
  42.8660012 135.5514997 108.5169988  42.5490012 134.6494997 108.4809988
  43.6480012 135.5534997 107.9639988  42.9282408 135.4282474 108.4373569
  46.4910012 137.8034997 114.5119988  45.6550012 138.2574997 114.6229988
  47.0150012 138.0794997 115.2639988  46.4475416 137.9028660 114.6288119
  47.0350012 144.0164997 106.1969988  46.2900012 143.5094997 105.8749988
  46.9010012 144.0654997 107.1439988  46.9148776 143.9536940 106.2808647
  54.1850012 143.1494997 114.9839988  54.8270012 143.6064997 114.4399988
  53.3550012 143.2624997 114.5209988  54.1605963 143.2272704 114.8470177
  48.5540012 144.2004997 117.4339988  48.2090012 143.8194997 118.2409988
  48.3540012 145.1344997 117.5049988  48.4797527 144.2745135 117.5540689
  51.6510012 138.6974997 106.0569988  52.5430012 138.5604997 106.3759988
  51.7080012 139.4884997 105.5199988  51.7806504 138.7856052 106.0280818
  42.1600012 143.3114997 111.9669988  42.9050012 143.3094997 111.3659988
  42.2380012 142.4884997 112.4479988  42.2724995 143.1998887 111.9498282
  39.1680012 141.7724997 117.2819988  39.3910012 141.3544997 118.1139988
  38.5660012 141.1594997 116.8589988  39.1171759 141.6324668 117.3387022
  46.1840012 141.2894997 119.4949988  45.8880012 141.1234997 118.5999988
  47.1160012 141.0694997 119.4839988  46.2694166 141.2370640 119.3710536
  56.5360012 138.9074997 105.7519988  55.9820012 138.5114997 105.0799988
  56.6360012 139.8174997 105.4739988  56.4737059 138.9763586 105.6224401
  56.4990012 144.7074997 118.5889988  55.6480012 144.9454997 118.2219988
  57.0900012 144.6904997 117.8359988  56.4622487 144.7378258 118.4368893
  51.9920012 142.5014997 113.2379988  51.0630012 142.2694997 113.2109988
  52.4430012 141.7244997 112.9079988  51.9259216 142.3647238 113.1896917
  45.9620012 144.4924997 108.9469988  45.7210012 145.4174997 108.9889988
  45.2210012 144.0334997 109.3439988  45.8289225 144.5570933 109.0063742
  50.0210012 144.7404997 114.9629988  49.5950012 144.5134997 115.7899988
  50.6010012 144.0024997 114.7809988  50.0411868 144.6095299 115.0515830
  40.8020012 136.5254997 116.8399988  39.9090012 136.8644997 116.7719988
  40.7030012 135.6704997 117.2579988  40.6664164 136.4562588 116.8872235
  53.0900012 144.3424997 106.2639988  52.8120012 143.6144997 106.8199988
  54.0170012 144.4614997 106.4689988  53.1773124 144.2588802 106.3678845
  49.5360012 136.2664997 115.7299988  50.2350012 136.3404997 116.3799988
  49.1550012 135.4024997 115.8839988  49.5801767 136.1597624 115.8398322
  50.3210012 135.9184997 106.8269988  50.5410012 136.3904997 106.0239988
  50.8790012 136.3134997 107.4969988  50.4264968 136.0364285 106.8077331
  47.5210012 137.6464997 107.6619988  48.3330012 138.1514997 107.7079988
  47.2760012 137.5014997 108.5759988  47.5990520 137.6960375 107.7918517
  48.0560012 138.6324997 116.8459988  48.1750012 139.2064997 117.6039988
  48.7120012 137.9444997 116.9609988  48.1609025 138.6179858 116.9651321
  48.4040012 134.7274997 108.5999988  48.0580012 135.3454997 109.2439988
  49.0630012 135.2284997 108.1179988  48.4456968 134.8796278 108.6229383
  44.0620012 135.7904997 105.2869988  43.9790012 136.6794997 105.6339988
  44.9520012 135.5254997 105.5189988  44.1709469 135.8761430 105.3657626
  54.2610012 136.5394997 117.6809988  53.3440012 136.8024997 117.5939988
  54.5960012 136.5364997 116.7849988  54.1808613 136.5750761 117.5478837
  52.8630012 140.2904997 111.7769988  52.0650012 139.8754997 111.4489988
  53.3080012 139.5994997 112.2679988  52.8139885 140.1403543 111.7984889
  40.6370012 138.8824997 103.4639988  40.5920012 139.8214997 103.6419988
  39.7490012 138.6464997 103.1939988  40.5108574 138.9791892 103.4518912
  41.4450012 133.6644997 112.1369988  41.2160012 133.7234997 111.2089988
  41.0020012 132.8724997 112.4429988  41.3538530 133.5655753 112.0514786
  39.5700012 144.0274997 120.5809988  39.7140012 143.1254997 120.2949988
  38.7980012 144.3134997 120.0939988  39.4852753 143.9426816 120.4759505
  46.2260012 143.9974997 120.0139988  45.8970012 144.2684997 119.1569988
  46.3780012 143.0564997 119.9269988  46.2014809 143.9073862 119.8848244
  51.9600012 143.9134997 117.3969988  52.7060012 144.5014997 117.2779988
  51.2030012 144.4954997 117.4609988  51.9597820 144.0727143 117.3893590
  40.4030012 141.2274997 120.0009988  40.8110012 140.3704997 119.8799988
  40.1430012 141.2424997 120.9219988  40.4237568 141.1120807 120.1089588
  45.0610012 142.3434997 105.0199988  44.6010012 141.8594997 105.7059988
  45.3160012 141.6754997 104.3839988  45.0324902 142.1868731 105.0279334
  44.3500012 140.2364997 117.3759988  43.7320012 140.9114997 117.6559988
  44.6940012 140.5574997 116.5419988  44.3119132 140.3722411 117.3016262
  46.1320012 140.5864997 103.2819988  45.9520012 140.4324997 102.3549988
  47.0820012 140.6944997 103.3269988  46.2357776 140.5800175 103.1611843
  49.3700012 142.7084997 120.6529988  50.3230012 142.7914997 120.6259988
  49.2090012 141.9964997 121.2729988  49.4786426 142.6236746 120.7330579
  44.6890012 137.5914997 118.4579988  44.8390012 136.8624997 117.8559988
  44.6920012 138.3684997 117.8989988  44.7099302 137.5967851 118.3000692
  45.1020012 135.9614997 115.9509988  45.6380012 136.4124997 115.2989988
  44.2500012 135.8534997 115.5279988  45.0602178 136.0086390 115.8045756
  46.6840012 141.4004997 116.1899988  47.4340012 141.2444997 115.6169988
  46.3450012 142.2524997 115.9149988  46.7408921 141.4942968 116.0743561
  51.0990012 139.2154997 121.2189988  51.2920012 138.2844997 121.1069988
  51.9570012 139.6404997 121.2079988  51.2412934 139.1456531 121.2022031
  52.4160012 142.0044997 119.2959988  52.1350012 142.7134997 118.7179988
  53.3590012 141.9314997 119.1449988  52.5049291 142.0916711 119.1964967
  43.1680012 138.7894997 120.3699988  42.4010012 138.2574997 120.1589988
  43.8470012 138.4794997 119.7699988  43.1547877 138.6748300 120.2600716
  45.9080012 133.4174997 116.3819988  45.8090012 134.3644997 116.2769988
  45.1650012 133.0454997 115.9059988  45.7941184 133.4965863 116.3033621
  47.1720012 137.7394997 119.9459988  46.9360012 137.5194997 120.8469988
  46.3880012 137.5324997 119.4359988  47.0338504 137.6814586 120.0003431
  49.8870012 136.8664997 119.0209988  48.9400012 136.8984997 119.1539988
  50.2000012 136.2414997 119.6749988  49.7996707 136.7863998 119.1276060
  51.5210012 135.5004997 121.0269988  51.4250012 134.5484997 121.0209988
  51.2000012 135.7694997 121.8869988  51.4644070 135.4064035 121.1425441
  41.3480012 136.7104997 120.0739988  41.5600012 136.0034997 119.4639988
  41.2370012 136.2724997 120.9179988  41.3619721 136.5547084 120.1046843
  46.1290012 132.7114997 119.0529988  46.8410012 132.0714997 119.0389988
  46.0280012 132.9784997 118.1399988  46.2128066 132.6600079 118.9275677
  46.4830012 134.3944997 121.1069988  46.3510012 133.9184997 120.2869988
  45.8840012 135.1384997 121.0519988  46.3839071 134.4299618 120.9872886
  55.9800012 143.8104997 106.7029988  56.8300012 144.2314997 106.8299988
  55.9860012 143.0704997 107.3099988  56.0971372 143.7680803 106.8024344
  56.3750012 141.8634997 108.5259988  55.6480012 141.3844997 108.9239988
  56.9560012 142.0694997 109.2589988  56.3540473 141.8258103 108.6794528
  56.1340012 144.6484997 113.4739988  56.9670012 144.2704997 113.1939988
  56.2460012 145.5914997 113.3549988  56.2632647 144.7242218 113.4195487
  54.9920012 139.0044997 103.4679988  55.0880012 139.6714997 102.7879988
  54.8520012 138.1884997 102.9869988  54.9862272 138.9855655 103.3098347
  54.1610012 140.3844997 109.0889988  54.0110012 139.4394997 109.0689988
  53.8080012 140.6654997 109.9329988  54.0927448 140.2931481 109.2003705
  39.1970012 142.4624997 113.0999988  39.3810012 142.3804997 112.1639988
  40.0460012 142.3384997 113.5229988  39.3370151 142.4345073 113.0291451
  55.0180012 142.3544997 118.7279988  55.6010012 141.6204997 118.9199988
  55.5820012 143.1264997 118.7749988  55.1739769 142.3584227 118.7606159
  56.5140012 140.2574997 119.4129988  55.6510012 139.8784997 119.2469988
  57.1190012 139.5184997 119.3379988  56.4776119 140.1058268 119.3801528
  54.2390012 136.4124997 102.5859988  54.8500012 136.0414997 103.2229988
  53.4030012 135.9914997 102.7819988  54.2095032 136.3047554 102.6997035
  53.8720012 137.9674997 107.5519988  54.1520012 137.0604997 107.6759988
  54.6310012 138.4014997 107.1629988  54.0129277 137.9020942 107.5163682
  54.4840012 138.5484997 112.9879988  55.4170012 138.7604997 112.9529988
  54.2490012 138.6504997 113.9099988  54.5799244 138.5913100 113.1078892
  54.5130012 139.2854997 115.7639988  53.6700012 139.5534997 116.1299988
  54.9550012 140.1074997 115.5529988  54.4574158 139.4333291 115.7855491
  38.7940012 137.7334997 119.2409988  39.7140012 137.6114997 119.4769988
  38.3450012 136.9834997 119.6299988  38.8591580 137.6153727 119.3259006
  56.7960012 133.2654997 121.1169988  57.1460012 132.6114997 120.5119988
  56.9430012 134.1024997 120.6769988  56.8637887 133.2891548 120.9746858
  54.4850012 135.2304997 107.5999988  54.6680012 134.7814997 108.4259988
  53.8860012 134.6454997 107.1369988  54.4290202 135.0899975 107.6503275
  40.0150012 136.0454997 112.1319988  40.4610012 135.2534997 112.4339988
  40.4820012 136.7614997 112.5619988  40.1390831 136.0340685 112.2314006
  38.3190012 139.0444997 113.2009988  38.8110012 138.8234997 112.4099988
  38.6820012 139.8854997 113.4819988  38.4353126 139.1278357 113.1307531
  56.3160012 135.3744997 119.4659988  55.3980012 135.6454997 119.4309988
  56.4390012 134.8394997 118.6819988  56.2069729 135.3392508 119.3551923
  38.6330012 135.3024997 107.2549988  37.7080012 135.5114997 107.1259988
  39.0870012 135.7864997 106.5649988  38.5677292 135.3965343 107.1440720
  38.5970012 134.0404997 115.5989988  37.9320012 133.7944997 116.2429988
  38.1540012 134.6624997 115.0219988  38.4461318 134.0909410 115.6090898
  55.3160012 133.4644997 117.2849988  54.5040012 133.7894997 116.8979988
  55.5490012 132.7044997 116.7519988  55.2362203 133.4062758 117.1598880
  48.7460012 134.9134997 111.6079988  48.0720012 134.2844997 111.8639988
  49.3100012 134.4294997 111.0049988  48.7299230 134.7618744 111.5615340
  53.8890012 133.0214997 111.7209988  54.4930012 133.5684997 111.2189988
  53.0190012 133.3404997 111.4799988  53.8541208 133.1395137 111.6196886
  55.6160012 134.1594997 110.0539988  56.2280012 133.6454997 109.5269988
  55.9980012 135.0374997 110.0769988  55.7513371 134.2077866 109.9850041
  41.0730012 133.5474997 109.4299988  40.2960012 133.3134997 108.9229988
  41.6030012 132.7504997 109.4389988  41.0382330 133.4076988 109.3617742
  39.9090012 133.3454997 105.2339988  40.3480012 133.9564997 104.6419988
  39.2760012 133.8834997 105.7079988  39.8834514 133.5019257 105.2170930
  45.6520012 133.4744997 109.2439988  46.5270012 133.8624997 109.2139988
  45.5160012 133.2594997 110.1659988  45.7533695 133.4985184 109.3646440
  51.2090012 133.5044997 110.8929988  51.2850012 133.5994997 109.9429988
  50.9340012 132.5964997 111.0219988  51.1822321 133.3947867 110.7805079
  52.5620012 133.5304997 106.5849988  51.8600012 134.1454997 106.3749988
  52.1180012 132.6924997 106.7159988  52.4056450 133.5015639 106.5739000
  46.7960012 135.5544997 106.1329988  46.9740012 134.9084997 106.8159988
  46.7430012 136.3884997 106.5999988  46.8131999 135.5788009 106.2895917
  41.0310012 134.0614997 118.9479988  40.6650012 133.2964997 119.3899988
  41.9440012 134.0904997 119.2339988  41.1042736 133.9605640 119.0472502
  43.0040012 133.4124997 120.4839988  43.9020012 133.1384997 120.2989988
  42.6170012 132.6694997 120.9479988  43.0746612 133.2745914 120.5213643
  51.4250012 132.7444997 120.6659988  51.5020012 132.3184997 121.5199988
  52.3190012 132.7584997 120.3229988  51.5563428 132.6880880 120.7365310
  69.0070012 142.7034997 109.3889988  69.0960012 143.6474997 109.2569988
  68.3690012 142.4284997 108.7309988  68.9329081 142.7954830 109.2819614
  67.9400012 141.9584997 112.8079988  67.9020012 141.3124997 113.5129988
  67.6180012 141.4924997 112.0369988  67.8912333 141.8069408 112.8002978
  60.3090012 141.5734997 114.4009988  60.3500012 140.9474997 115.1239988
  61.0120012 142.1974997 114.5829988  60.4096363 141.5721196 114.5246044
  71.6460012 144.8974997 111.1089988  71.2060012 144.1774997 111.5599988
  71.6330012 145.6184997 111.7389988  71.5840226 144.8963731 111.2558494
  57.8420012 139.6834997 108.3289988  57.3950012 140.5294997 108.3099988
  57.2810012 139.1034997 107.8129988  57.7049900 139.7209916 108.2566801
  58.5530012 141.8454997 110.4539988  58.7660012 141.0754997 110.9819988
  59.2910012 141.9344997 109.8509988  58.6819044 141.7521968 110.4447123
  66.3300012 144.3914997 113.2139988  66.6340012 143.7054997 112.6189988
  67.0510012 144.5094997 113.8319988  66.4690671 144.3136305 113.2161816
  74.9930012 135.9924997 114.0749988  75.0420012 136.6024997 114.8099988
  75.4180012 136.4534997 113.3519988  75.0571746 136.1383796 114.0779175
  69.4710012 138.7854997 113.5409988  69.6130012 137.8394997 113.5619988
  69.3640012 138.9924997 112.6129988  69.4759919 138.6838246 113.4183408
  62.6250012 136.8864997 110.8139988  62.6690012 137.7464997 110.3949988
  62.1680012 136.3344997 110.1799988  62.5692240 136.9294422 110.6709864
  70.3480012 137.0174997 109.2149988  70.9940012 136.6884997 109.8389988
  70.8580012 137.5354997 108.5919988  70.5054299 137.0424450 109.2162731
  59.2460012 139.2834997 111.5759988  59.8990012 138.7334997 112.0079988
  59.2700012 139.0094997 110.6589988  59.3386683 139.1711466 111.5112123
  64.4020012 140.8334997 110.7909988  65.0180012 140.3074997 111.3009988
  63.8160012 140.1934997 110.3879988  64.4070810 140.6749208 110.8063173
  75.3840012 137.4704997 116.3099988  74.6960012 138.1284997 116.2149988
  75.4000012 137.2734997 117.2469988  75.2919540 137.5339819 116.4235990
  61.4360012 135.8044997 114.8879988  61.2170012 136.3344997 114.1219988
  60.7680012 136.0314997 115.5349988  61.3157600 135.9076906 114.8706379
  64.0050012 143.4804997 115.1749988  63.2650012 144.0784997 115.2789988
  64.7190012 144.0344997 114.8599988  64.0002237 143.6372831 115.1466465
  72.1120012 136.3084997 111.1949988  71.8960012 135.5424997 111.7279988
  72.7670012 136.7804997 111.7079988  72.1710632 136.2675889 111.3372861
  61.0290012 137.6964997 112.8399988  61.6430012 138.3294997 113.2129988
  61.5410012 137.2244997 112.1839988  61.1821981 137.7192267 112.8022908
  72.4590012 135.0234997 114.8749988  71.7230012 135.6344997 114.8369988
  73.1420012 135.4384997 114.3479988  72.4506541 135.1631374 114.7985832
  65.4620012 133.1104997 112.3399988  65.3450012 132.1614997 112.2859988
  64.6070012 133.4424997 112.6139988  65.3304212 133.0255571 112.3696497
  73.2560012 144.9854997 117.0679988  73.3960012 144.3944997 116.3289988
  73.4230012 145.8584997 116.7119988  73.2977411 145.0225428 116.9186894
  67.7290012 141.9474997 106.8409988  67.0170012 142.4824997 106.4889988
  68.4200012 142.0034997 106.1809988  67.7250132 142.0282543 106.7036289
  67.7820012 140.4054997 103.8799988  68.4830012 140.4274997 104.5309988
  68.0850012 139.7774997 103.2229988  67.9188133 140.3237070 103.8803369
  75.0980012 141.3254997 115.1339988  74.4450012 142.0204997 115.2239988
  75.5630012 141.5354997 114.3249988  75.0715274 141.4490643 115.0368462
  71.1340012 142.1574997 107.7929988  70.4020012 142.3854997 108.3659988
  71.5820012 141.4434997 108.2469988  71.0942725 142.0922145 107.9328816
  71.0320012 140.3314997 116.8599988  71.1120012 141.0944997 117.4319988
  70.4300012 140.6104997 116.1699988  70.9615756 140.4737134 116.8450589
  62.7800012 142.7874997 109.6749988  62.4490012 142.4174997 108.8569988
  63.3680012 142.1174997 110.0219988  62.8141873 142.6461156 109.6098102
  63.1460012 141.5564997 113.3089988  63.7120012 141.6774997 112.5459988
  63.4650012 142.1934997 113.9469988  63.2665474 141.6592219 113.2909862
  70.0050012 141.3194997 105.4779988  70.5850012 141.4694997 106.2249988
  70.4190012 141.7904997 104.7539988  70.1402997 141.4036578 105.4824058
  60.9460012 142.1534997 117.2539988  61.0170012 142.8044997 117.9529988
  60.0560012 142.2564997 116.9189988  60.8353005 142.2565427 117.3043495
  61.7700012 141.8574997 107.2639988  61.4780012 142.6254997 106.7739988
  61.0960012 141.1974997 107.1019988  61.6388111 141.8735587 107.1748978
  57.8630012 144.2204997 116.0789988  57.3620012 144.1924997 115.2639988
  57.8680012 143.3144997 116.3889988  57.7950944 144.0942396 116.0093226
  72.9630012 139.1594997 119.1259988  72.5560012 139.6404997 118.4049988
  73.0040012 138.2544997 118.8179988  72.9128437 139.1029374 118.9856683
  62.7310012 134.0134997 113.1179988  61.8690012 133.9264997 112.7099988
  62.7080012 134.8694997 113.5459988  62.6100409 134.1172883 113.1200589
  67.3940012 133.7354997 116.4929988  67.8140012 133.3204997 117.2459988
  66.4610012 133.5574997 116.6099988  67.3253644 133.6545900 116.6119539
  70.7200012 137.4914997 117.3459988  70.2060012 137.3654997 118.1439988
  70.5650012 138.4034997 117.1019988  70.6286852 137.5976132 117.4222158
  62.8220012 138.9794997 114.2129988  62.1800012 138.9384997 114.9219988
  62.8590012 139.9054997 113.9749988  62.7390664 139.0991430 114.2779219
  62.8190012 139.2004997 109.1249988  61.9260012 138.8594997 109.0659988
  63.2690012 138.8234997 108.3689988  62.7578130 139.1029631 109.0147702
  68.3540012 139.6164997 107.9419988  67.9450012 140.4314997 107.6509988
  69.0750012 139.4764997 107.3279988  68.3954537 139.7092018 107.8191342
  67.4560012 139.7914997 119.4299988  66.8940012 139.0874997 119.7509988
  68.2830012 139.6714997 119.8979988  67.4907095 139.6787883 119.5372330
  69.3590012 139.0624997 110.7559988  69.1640012 139.6674997 110.0409988
  69.5400012 138.2284997 110.3219988  69.3567614 139.0326300 110.5994405
  60.5720012 139.2994997 116.0799988  60.5340012 139.6994997 116.9489988
  60.0810012 138.4824997 116.1709988  60.5004684 139.2438069 116.2111059
  57.1800012 136.4154997 109.9309988  57.8110012 136.3864997 110.6499988
  57.6290012 135.9904997 109.1999988  57.3270918 136.3540836 109.9306441
  68.6230012 140.7004997 115.4269988  68.9460012 140.0694997 114.7839988
  68.1830012 140.1654997 116.0879988  68.6077484 140.5418387 115.4283198
  65.4000012 136.6274997 110.2109988  64.4890012 136.6844997 110.4999988
  65.9060012 136.5674997 111.0219988  65.3436899 136.6271941 110.3601184
  60.2290012 138.2564997 109.0379988  59.3390012 138.3564997 108.6979988
  60.5250012 137.4144997 108.6919988  60.1472823 138.1563545 108.9447213
  69.8050012 135.8624997 113.4759988  69.1290012 135.9934997 114.1399988
  69.3200012 135.7074997 112.6649988  69.6467146 135.8595157 113.4574469
  60.6910012 144.0084997 119.3599988  61.4230012 144.2624997 119.9219988
  59.9110012 144.2124997 119.8759988  60.6857073 144.0708160 119.5066151
  66.7200012 139.4154997 112.0979988  67.2850012 138.8684997 111.5509988
  66.5730012 138.8934997 112.8869988  66.7773380 139.2702259 112.1298695
  61.7220012 135.5514997 108.5169988  61.4050012 134.6494997 108.4809988
  62.5040012 135.5534997 107.9639988  61.7842408 135.4282474 108.4373569
  65.3470012 137.8034997 114.5119988  64.5110012 138.2574997 114.6229988
  65.8710012 138.0794997 115.2639988  65.3035416 137.9028660 114.6288119
  65.8910012 144.0164997 106.1969988  65.1460012 143.5094997 105.8749988
  65.7570012 144.0654997 107.1439988  65.7708776 143.9536940 106.2808647
  73.0410012 143.1494997 114.9839988  73.6830012 143.6064997 114.4399988
  72.2110012 143.2624997 114.5209988  73.0165963 143.2272704 114.8470177
  67.4100012 144.2004997 117.4339988  67.0650012 143.8194997 118.2409988
  67.2100012 145.1344997 117.5049988  67.3357527 144.2745135 117.5540689
  70.5070012 138.6974997 106.0569988  71.3990012 138.5604997 106.3759988
  70.5640012 139.4884997 105.5199988  70.6366504 138.7856052 106.0280818
  61.0160012 143.3114997 111.9669988  61.7610012 143.3094997 111.3659988
  61.0940012 142.4884997 112.4479988  61.1284995 143.1998887 111.9498282
  58.0240012 141.7724997 117.2819988  58.2470012 141.3544997 118.1139988
  57.4220012 141.1594997 116.8589988  57.9731759 141.6324668 117.3387022
  65.0400012 141.2894997 119.4949988  64.7440012 141.1234997 118.5999988
  65.9720012 141.0694997 119.4839988  65.1254166 141.2370640 119.3710536
  75.3920012 138.9074997 105.7519988  74.8380012 138.5114997 105.0799988
  75.4920012 139.8174997 105.4739988  75.3297059 138.9763586 105.6224401
  75.3550012 144.7074997 118.5889988  74.5040012 144.9454997 118.2219988
  75.9460012 144.6904997 117.8359988  75.3182487 144.7378258 118.4368893
  70.8480012 142.5014997 113.2379988  69.9190012 142.2694997 113.2109988
  71.2990012 141.7244997 112.9079988  70.7819216 142.3647238 113.1896917
  64.8180012 144.4924997 108.9469988  64.5770012 145.4174997 108.9889988
  64.0770012 144.0334997 109.3439988  64.6849225 144.5570933 109.0063742
  68.8770012 144.7404997 114.9629988  68.4510012 144.5134997 115.7899988
  69.4570012 144.0024997 114.7809988  68.8971868 144.6095299 115.0515830
  59.6580012 136.5254997 116.8399988  58.7650012 136.8644997 116.7719988
  59.5590012 135.6704997 117.2579988  59.5224164 136.4562588 116.8872235
  71.9460012 144.3424997 106.2639988  71.6680012 143.6144997 106.8199988
  72.8730012 144.4614997 106.4689988  72.0333124 144.2588802 106.3678845
  60.5610012 143.6044997 105.4509988  59.8750012 143.9564997 106.0179988
  61.0830012 144.3674997 105.2039988  60.5376852 143.7558578 105.4952118
  68.3920012 136.2664997 115.7299988  69.0910012 136.3404997 116.3799988
  68.0110012 135.4024997 115.8839988  68.4361767 136.1597624 115.8398322
  69.1770012 135.9184997 106.8269988  69.3970012 136.3904997 106.0239988
  69.7350012 136.3134997 107.4969988  69.2824968 136.0364285 106.8077331
  66.3770012 137.6464997 107.6619988  67.1890012 138.1514997 107.7079988
  66.1320012 137.5014997 108.5759988  66.4550520 137.6960375 107.7918517
  66.9120012 138.6324997 116.8459988  67.0310012 139.2064997 117.6039988
  67.5680012 137.9444997 116.9609988  67.0169025 138.6179858 116.9651321
  67.2600012 134.7274997 108.5999988  66.9140012 135.3454997 109.2439988
  67.9190012 135.2284997 108.1179988  67.3016968 134.8796278 108.6229383
  73.1170012 136.5394997 117.6809988  72.2000012 136.8024997 117.5939988
  73.4520012 136.5364997 116.7849988  73.0368613 136.5750761 117.5478837
  71.7190012 140.2904997 111.7769988  70.9210012 139.8754997 111.4489988
  72.1640012 139.5994997 112.2679988  71.6699885 140.1403543 111.7984889
  60.3010012 133.6644997 112.1369988  60.0720012 133.7234997 111.2089988
  59.8580012 132.8724997 112.4429988  60.2098530 133.5655753 112.0514786
  58.4260012 144.0274997 120.5809988  58.5700012 143.1254997 120.2949988
  57.6540012 144.3134997 120.0939988  58.3412753 143.9426816 120.4759505
  62.7680012 144.3714997 102.7139988  62.8320012 143.5774997 103.2449988
  63.4210012 144.2524997 102.0239988  62.8650241 144.2467148 102.6934317
  65.0820012 143.9974997 120.0139988  64.7530012 144.2684997 119.1569988
  65.2340012 143.0564997 119.9269988  65.0574809 143.9073862 119.8848244
  70.8160012 143.9134997 117.3969988  71.5620012 144.5014997 117.2779988
  70.0590012 144.4954997 117.4609988  70.8157820 144.0727143 117.3893590
  59.2590012 141.2274997 120.0009988  59.6670012 140.3704997 119.8799988
  58.9990012 141.2424997 120.9219988  59.2797568 141.1120807 120.1089588
  63.9170012 142.3434997 105.0199988  63.4570012 141.8594997 105.7059988
  64.1720012 141.6754997 104.3839988  63.8884902 142.1868731 105.0279334
  63.2060012 140.2364997 117.3759988  62.5880012 140.9114997 117.6559988
  63.5500012 140.5574997 116.5419988  63.1679132 140.3722411 117.3016262
  68.2260012 142.7084997 120.6529988  69.1790012 142.7914997 120.6259988
  68.0650012 141.9964997 121.2729988  68.3346426 142.6236746 120.7330579
  63.5450012 137.5914997 118.4579988  63.6950012 136.8624997 117.8559988
  63.5480012 138.3684997 117.8989988  63.5659302 137.5967851 118.3000692
  63.9580012 135.9614997 115.9509988  64.4940012 136.4124997 115.2989988
  63.1060012 135.8534997 115.5279988  63.9162178 136.0086390 115.8045756
  65.5400012 141.4004997 116.1899988  66.2900012 141.2444997 115.6169988
  65.2010012 142.2524997 115.9149988  65.5968921 141.4942968 116.0743561
  69.9550012 139.2154997 121.2189988  70.1480012 138.2844997 121.1069988
  70.8130012 139.6404997 121.2079988  70.0972934 139.1456531 121.2022031
  71.2720012 142.0044997 119.2959988  70.9910012 142.7134997 118.7179988
  72.2150012 141.9314997 119.1449988  71.3609291 142.0916711 119.1964967
  62.0240012 138.7894997 120.3699988  61.2570012 138.2574997 120.1589988
  62.7030012 138.4794997 119.7699988  62.0107877 138.6748300 120.2600716
  64.7640012 133.4174997 116.3819988  64.6650012 134.3644997 116.2769988
  64.0210012 133.0454997 115.9059988  64.6501184 133.4965863 116.3033621
  66.0280012 137.7394997 119.9459988  65.7920012 137.5194997 120.8469988
  65.2440012 137.5324997 119.4359988  65.8898504 137.6814586 120.0003431
  68.7430012 136.8664997 119.0209988  67.7960012 136.8984997 119.1539988
  69.0560012 136.2414997 119.6749988  68.6556707 136.7863998 119.1276060
  70.3770012 135.5004997 121.0269988  70.2810012 134.5484997 121.0209988
  70.0560012 135.7694997 121.8869988  70.3204070 135.4064035 121.1425441
  60.2040012 136.7104997 120.0739988  60.4160012 136.0034997 119.4639988
  60.0930012 136.2724997 120.9179988  60.2179721 136.5547084 120.1046843
  64.9850012 132.7114997 119.0529988  65.6970012 132.0714997 119.0389988
  64.8840012 132.9784997 118.1399988  65.0688066 132.6600079 118.9275677
  65.3390012 134.3944997 121.1069988  65.2070012 133.9184997 120.2869988
  64.7400012 135.1384997 121.0519988  65.2399071 134.4299618 120.9872886
  74.8360012 143.8104997 106.7029988  75.6860012 144.2314997 106.8299988
  74.8420012 143.0704997 107.3099988  74.9531372 143.7680803 106.8024344
  75.2310012 141.8634997 108.5259988  74.5040012 141.3844997 108.9239988
  75.8120012 142.0694997 109.2589988  75.2100473 141.8258103 108.6794528
  74.9900012 144.6484997 113.4739988  75.8230012 144.2704997 113.1939988
  75.1020012 145.5914997 113.3549988  75.1192647 144.7242218 113.4195487
  75.4990012 141.7644997 104.9179988  74.9770012 142.1214997 104.1989988
  75.4660012 142.4394997 105.5959988  75.4231634 141.9045413 104.9113145
  73.0170012 140.3844997 109.0889988  72.8670012 139.4394997 109.0689988
  72.6640012 140.6654997 109.9329988  72.9487448 140.2931481 109.2003705
  58.0530012 142.4624997 113.0999988  58.2370012 142.3804997 112.1639988
  58.9020012 142.3384997 113.5229988  58.1930151 142.4345073 113.0291451
  73.8740012 142.3544997 118.7279988  74.4570012 141.6204997 118.9199988
  74.4380012 143.1264997 118.7749988  74.0299769 142.3584227 118.7606159
  75.3700012 140.2574997 119.4129988  74.5070012 139.8784997 119.2469988
  75.9750012 139.5184997 119.3379988  75.3336119 140.1058268 119.3801528
  72.7280012 137.9674997 107.5519988  73.0080012 137.0604997 107.6759988
  73.4870012 138.4014997 107.1629988  72.8689277 137.9020942 107.5163682
  73.3400012 138.5484997 112.9879988  74.2730012 138.7604997 112.9529988
  73.1050012 138.6504997 113.9099988  73.4359244 138.5913100 113.1078892
  73.3690012 139.2854997 115.7639988  72.5260012 139.5534997 116.1299988
  73.8110012 140.1074997 115.5529988  73.3134158 139.4333291 115.7855491
  57.6500012 137.7334997 119.2409988  58.5700012 137.6114997 119.4769988
  57.2010012 136.9834997 119.6299988  57.7151580 137.6153727 119.3259006
  75.6520012 133.2654997 121.1169988  76.0020012 132.6114997 120.5119988
  75.7990012 134.1024997 120.6769988  75.7197887 133.2891548 120.9746858
  73.3410012 135.2304997 107.5999988  73.5240012 134.7814997 108.4259988
  72.7420012 134.6454997 107.1369988  73.2850202 135.0899975 107.6503275
  58.8710012 136.0454997 112.1319988  59.3170012 135.2534997 112.4339988
  59.3380012 136.7614997 112.5619988  58.9950831 136.0340685 112.2314006
  57.1750012 139.0444997 113.2009988  57.6670012 138.8234997 112.4099988
  57.5380012 139.8854997 113.4819988  57.2913126 139.1278357 113.1307531
  75.1720012 135.3744997 119.4659988  74.2540012 135.6454997 119.4309988
  75.2950012 134.8394997 118.6819988  75.0629729 135.3392508 119.3551923
  75.2080012 135.2974997 104.1279988  75.6200012 134.5764997 103.6529988
  75.8900012 135.9674997 104.1869988  75.3565885 135.2892368 104.0708915
  57.4890012 135.3024997 107.2549988  56.5640012 135.5114997 107.1259988
  57.9430012 135.7864997 106.5649988  57.4237292 135.3965343 107.1440720
  57.4530012 134.0404997 115.5989988  56.7880012 133.7944997 116.2429988
  57.0100012 134.6624997 115.0219988  57.3021318 134.0909410 115.6090898
  74.1720012 133.4644997 117.2849988  73.3600012 133.7894997 116.8979988
  74.4050012 132.7044997 116.7519988  74.0922203 133.4062758 117.1598880
  67.6020012 134.9134997 111.6079988  66.9280012 134.2844997 111.8639988
  68.1660012 134.4294997 111.0049988  67.5859230 134.7618744 111.5615340
  72.7450012 133.0214997 111.7209988  73.3490012 133.5684997 111.2189988
  71.8750012 133.3404997 111.4799988  72.7101208 133.1395137 111.6196886
  74.4720012 134.1594997 110.0539988  75.0840012 133.6454997 109.5269988
  74.8540012 135.0374997 110.0769988  74.6073371 134.2077866 109.9850041
  59.9290012 133.5474997 109.4299988  59.1520012 133.3134997 108.9229988
  60.4590012 132.7504997 109.4389988  59.8942330 133.4076988 109.3617742
  58.7650012 133.3454997 105.2339988  59.2040012 133.9564997 104.6419988
  58.1320012 133.8834997 105.7079988  58.7394514 133.5019257 105.2170930
  64.5080012 133.4744997 109.2439988  65.3830012 133.8624997 109.2139988
  64.3720012 133.2594997 110.1659988  64.6093695 133.4985184 109.3646440
  70.0650012 133.5044997 110.8929988  70.1410012 133.5994997 109.9429988
  69.7900012 132.5964997 111.0219988  70.0382321 133.3947867 110.7805079
  59.8870012 134.0614997 118.9479988  59.5210012 133.2964997 119.3899988
  60.8000012 134.0904997 119.2339988  59.9602736 133.9605640 119.0472502
  61.8600012 133.4124997 120.4839988  62.7580012 133.1384997 120.2989988
  61.4730012 132.6694997 120.9479988  61.9306612 133.2745914 120.5213643
  70.2810012 132.7444997 120.6659988  70.3580012 132.3184997 121.5199988
  71.1750012 132.7584997 120.3229988  70.4123428 132.6880879 120.7365310
  87.8630012 142.7034997 109.3889988  87.9520012 143.6474997 109.2569988
  87.2250012 142.4284997 108.7309988  87.7889081 142.7954830 109.2819614
  86.7960012 141.9584997 112.8079988  86.7580012 141.3124997 113.5129988
  86.4740012 141.4924997 112.0369988  86.7472333 141.8069408 112.8002978
  79.1650012 141.5734997 114.4009988  79.2060012 140.9474997 115.1239988
  79.8680012 142.1974997 114.5829988  79.2656363 141.5721196 114.5246044
  90.5020012 144.8974997 111.1089988  90.0620012 144.1774997 111.5599988
  90.4890012 145.6184997 111.7389988  90.4400226 144.8963731 111.2558494
  76.6980012 139.6834997 108.3289988  76.2510012 140.5294997 108.3099988
  76.1370012 139.1034997 107.8129988  76.5609900 139.7209916 108.2566801
  77.4090012 141.8454997 110.4539988  77.6220012 141.0754997 110.9819988
  78.1470012 141.9344997 109.8509988  77.5379044 141.7521968 110.4447123
  85.1860012 144.3914997 113.2139988  85.4900012 143.7054997 112.6189988
  85.9070012 144.5094997 113.8319988  85.3250671 144.3136305 113.2161816
  93.8490012 135.9924997 114.0749988  93.8980012 136.6024997 114.8099988
  94.2740012 136.4534997 113.3519988  93.9131746 136.1383796 114.0779175
  88.3270012 138.7854997 113.5409988  88.4690012 137.8394997 113.5619988
  88.2200012 138.9924997 112.6129988  88.3319919 138.6838246 113.4183408
  81.4810012 136.8864997 110.8139988  81.5250012 137.7464997 110.3949988
  81.0240012 136.3344997 110.1799988  81.4252240 136.9294422 110.6709864
  89.2040012 137.0174997 109.2149988  89.8500012 136.6884997 109.8389988
  89.7140012 137.5354997 108.5919988  89.3614299 137.0424450 109.2162731
  78.1020012 139.2834997 111.5759988  78.7550012 138.7334997 112.0079988
  78.1260012 139.0094997 110.6589988  78.1946683 139.1711466 111.5112123
  83.2580012 140.8334997 110.7909988  83.8740012 140.3074997 111.3009988
  82.6720012 140.1934997 110.3879988  83.2630810 140.6749208 110.8063173
  94.2400012 137.4704997 116.3099988  93.5520012 138.1284997 116.2149988
  94.2560012 137.2734997 117.2469988  94.1479540 137.5339819 116.4235990
  80.2920012 135.8044997 114.8879988  80.0730012 136.3344997 114.1219988
  79.6240012 136.0314997 115.5349988  80.1717600 135.9076906 114.8706379
  82.8610012 143.4804997 115.1749988  82.1210012 144.0784997 115.2789988
  83.5750012 144.0344997 114.8599988  82.8562237 143.6372831 115.1466465
  90.9680012 136.3084997 111.1949988  90.7520012 135.5424997 111.7279988
  91.6230012 136.7804997 111.7079988  91.0270633 136.2675889 111.3372861
  79.8850012 137.6964997 112.8399988  80.4990012 138.3294997 113.2129988
  80.3970012 137.2244997 112.1839988  80.0381981 137.7192267 112.8022908
  91.3150012 135.0234997 114.8749988  90.5790012 135.6344997 114.8369988
  91.9980012 135.4384997 114.3479988  91.3066541 135.1631374 114.7985832
  84.3180012 133.1104997 112.3399988  84.2010012 132.1614997 112.2859988
  83.4630012 133.4424997 112.6139988  84.1864212 133.0255571 112.3696497
  92.1120012 144.9854997 117.0679988  92.2520012 144.3944997 116.3289988
  92.2790012 145.8584997 116.7119988  92.1537411 145.0225428 116.9186894
  86.5850012 141.9474997 106.8409988  85.8730012 142.4824997 106.4889988
  87.2760012 142.0034997 106.1809988  86.5810132 142.0282543 106.7036289
  86.6380012 140.4054997 103.8799988  87.3390012 140.4274997 104.5309988
  86.9410012 139.7774997 103.2229988  86.7748133 140.3237070 103.8803369
  93.9540012 141.3254997 115.1339988  93.3010012 142.0204997 115.2239988
  94.4190012 141.5354997 114.3249988  93.9275274 141.4490643 115.0368462
  89.9900012 142.1574997 107.7929988  89.2580012 142.3854997 108.3659988
  90.4380012 141.4434997 108.2469988  89.9502725 142.0922145 107.9328816
  89.8880012 140.3314997 116.8599988  89.9680012 141.0944997 117.4319988
  89.2860012 140.6104997 116.1699988  89.8175756 140.4737134 116.8450589
  81.6360012 142.7874997 109.6749988  81.3050012 142.4174997 108.8569988
  82.2240012 142.1174997 110.0219988  81.6701873 142.6461156 109.6098102
  82.0020012 141.5564997 113.3089988  82.5680012 141.6774997 112.5459988
  82.3210012 142.1934997 113.9469988  82.1225474 141.6592219 113.2909862
  88.8610012 141.3194997 105.4779988  89.4410012 141.4694997 106.2249988
  89.2750012 141.7904997 104.7539988  88.9962997 141.4036578 105.4824058
  79.8020012 142.1534997 117.2539988  79.8730012 142.8044997 117.9529988
  78.9120012 142.2564997 116.9189988  79.6913005 142.2565427 117.3043495
  80.6260012 141.8574997 107.2639988  80.3340012 142.6254997 106.7739988
  79.9520012 141.1974997 107.1019988  80.4948111 141.8735587 107.1748978
  76.7190012 144.2204997 116.0789988  76.2180012 144.1924997 115.2639988
  76.7240012 143.3144997 116.3889988  76.6510944 144.0942396 116.0093226
  91.8190012 139.1594997 119.1259988  91.4120012 139.6404997 118.4049988
  91.8600012 138.2544997 118.8179988  91.7688437 139.1029374 118.9856683
  81.5870012 134.0134997 113.1179988  80.7250012 133.9264997 112.7099988
  81.5640012 134.8694997 113.5459988  81.4660409 134.1172883 113.1200589
  86.2500012 133.7354997 116.4929988  86.6700012 133.3204997 117.2459988
  85.3170012 133.5574997 116.6099988  86.1813644 133.6545900 116.6119539
  89.5760012 137.4914997 117.3459988  89.0620012 137.3654997 118.1439988
  89.4210012 138.4034997 117.1019988  89.4846852 137.5976132 117.4222158
  81.6780012 138.9794997 114.2129988  81.0360012 138.9384997 114.9219988
  81.7150012 139.9054997 113.9749988  81.5950664 139.0991430 114.2779219
  81.6750012 139.2004997 109.1249988  80.7820012 138.8594997 109.0659988
  82.1250012 138.8234997 108.3689988  81.6138130 139.1029631 109.0147702
  87.2100012 139.6164997 107.9419988  86.8010012 140.4314997 107.6509988
  87.9310012 139.4764997 107.3279988  87.2514537 139.7092018 107.8191342
  86.3120012 139.7914997 119.4299988  85.7500012 139.0874997 119.7509988
  87.1390012 139.6714997 119.8979988  86.3467095 139.6787883 119.5372330
  88.2150012 139.0624997 110.7559988  88.0200012 139.6674997 110.0409988
  88.3960012 138.2284997 110.3219988  88.2127614 139.0326300 110.5994405
  79.4280012 139.2994997 116.0799988  79.3900012 139.6994997 116.9489988
  78.9370012 138.4824997 116.1709988  79.3564684 139.2438069 116.2111059
  76.0360012 136.4154997 109.9309988  76.6670012 136.3864997 110.6499988
  76.4850012 135.9904997 109.1999988  76.1830918 136.3540836 109.9306441
  87.4790012 140.7004997 115.4269988  87.8020012 140.0694997 114.7839988
  87.0390012 140.1654997 116.0879988  87.4637484 140.5418387 115.4283198
  84.2560012 136.6274997 110.2109988  83.3450012 136.6844997 110.4999988
  84.7620012 136.5674997 111.0219988  84.1996899 136.6271941 110.3601184
  79.0850012 138.2564997 109.0379988  78.1950012 138.3564997 108.6979988
  79.3810012 137.4144997 108.6919988  79.0032823 138.1563545 108.9447213
  82.7380012 138.2564997 106.6949988  83.6690012 138.3854997 106.8729988
  82.5230012 138.9264997 106.0449988  82.8364247 138.3646565 106.6315747
  88.6610012 135.8624997 113.4759988  87.9850012 135.9934997 114.1399988
  88.1760012 135.7074997 112.6649988  88.5027146 135.8595157 113.4574469
  79.5470012 144.0084997 119.3599988  80.2790012 144.2624997 119.9219988
  78.7670012 144.2124997 119.8759988  79.5417073 144.0708160 119.5066151
  85.5760012 139.4154997 112.0979988  86.1410012 138.8684997 111.5509988
  85.4290012 138.8934997 112.8869988  85.6333380 139.2702259 112.1298695
  80.5780012 135.5514997 108.5169988  80.2610012 134.6494997 108.4809988
  81.3600012 135.5534997 107.9639988  80.6402408 135.4282474 108.4373569
  84.2030012 137.8034997 114.5119988  83.3670012 138.2574997 114.6229988
  84.7270012 138.0794997 115.2639988  84.1595416 137.9028660 114.6288119
  84.7470012 144.0164997 106.1969988  84.0020012 143.5094997 105.8749988
  84.6130012 144.0654997 107.1439988  84.6268776 143.9536940 106.2808647
  91.8970012 143.1494997 114.9839988  92.5390012 143.6064997 114.4399988
  91.0670012 143.2624997 114.5209988  91.8725963 143.2272704 114.8470177
  86.2660012 144.2004997 117.4339988  85.9210012 143.8194997 118.2409988
  86.0660012 145.1344997 117.5049988  86.1917527 144.2745135 117.5540689
  89.3630012 138.6974997 106.0569988  90.2550012 138.5604997 106.3759988
  89.4200012 139.4884997 105.5199988  89.4926504 138.7856052 106.0280818
  79.8720012 143.3114997 111.9669988  80.6170012 143.3094997 111.3659988
  79.9500012 142.4884997 112.4479988  79.9844995 143.1998887 111.9498282
  76.8800012 141.7724997 117.2819988  77.1030012 141.3544997 118.1139988
  76.2780012 141.1594997 116.8589988  76.8291759 141.6324668 117.3387022
  83.8960012 141.2894997 119.4949988  83.6000012 141.1234997 118.5999988
  84.8280012 141.0694997 119.4839988  83.9814166 141.2370640 119.3710536
  94.2110012 144.7074997 118.5889988  93.3600012 144.9454997 118.2219988
  94.8020012 144.6904997 117.8359988  94.1742487 144.7378258 118.4368893
  89.7040012 142.5014997 113.2379988  88.7750012 142.2694997 113.2109988
  90.1550012 141.7244997 112.9079988  89.6379216 142.3647238 113.1896917
  83.6740012 144.4924997 108.9469988  83.4330012 145.4174997 108.9889988
  82.9330012 144.0334997 109.3439988  83.5409225 144.5570933 109.0063742
  87.7330012 144.7404997 114.9629988  87.3070012 144.5134997 115.7899988
  88.3130012 144.0024997 114.7809988  87.7531868 144.6095299 115.0515830
  78.5140012 136.5254997 116.8399988  77.6210012 136.8644997 116.7719988
  78.4150012 135.6704997 117.2579988  78.3784164 136.4562588 116.8872235
  79.4170012 143.6044997 105.4509988  78.7310012 143.9564997 106.0179988
  79.9390012 144.3674997 105.2039988  79.3936852 143.7558578 105.4952118
  87.2480012 136.2664997 115.7299988  87.9470012 136.3404997 116.3799988
  86.8670012 135.4024997 115.8839988  87.2921767 136.1597624 115.8398322
  85.2330012 137.6464997 107.6619988  86.0450012 138.1514997 107.7079988
  84.9880012 137.5014997 108.5759988  85.3110520 137.6960375 107.7918517
  85.7680012 138.6324997 116.8459988  85.8870012 139.2064997 117.6039988
  86.4240012 137.9444997 116.9609988  85.8729025 138.6179858 116.9651321
  86.1160012 134.7274997 108.5999988  85.7700012 135.3454997 109.2439988
  86.7750012 135.2284997 108.1179988  86.1576968 134.8796278 108.6229383
  81.7740012 135.7904997 105.2869988  81.6910012 136.6794997 105.6339988
  82.6640012 135.5254997 105.5189988  81.8829469 135.8761430 105.3657626
  91.9730012 136.5394997 117.6809988  91.0560012 136.8024997 117.5939988
  92.3080012 136.5364997 116.7849988  91.8928613 136.5750761 117.5478837
  90.5750012 140.2904997 111.7769988  89.7770012 139.8754997 111.4489988
  91.0200012 139.5994997 112.2679988  90.5259885 140.1403543 111.7984889
  79.1570012 133.6644997 112.1369988  78.9280012 133.7234997 111.2089988
  78.7140012 132.8724997 112.4429988  79.0658530 133.5655753 112.0514786
  77.2820012 144.0274997 120.5809988  77.4260012 143.1254997 120.2949988
  76.5100012 144.3134997 120.0939988  77.1972753 143.9426816 120.4759505
  81.6240012 144.3714997 102.7139988  81.6880012 143.5774997 103.2449988
  82.2770012 144.2524997 102.0239988  81.7210241 144.2467148 102.6934317
  83.9380012 143.9974997 120.0139988  83.6090012 144.2684997 119.1569988
  84.0900012 143.0564997 119.9269988  83.9134809 143.9073862 119.8848244
  89.6720012 143.9134997 117.3969988  90.4180012 144.5014997 117.2779988
  88.9150012 144.4954997 117.4609988  89.6717820 144.0727143 117.3893590
  78.1150012 141.2274997 120.0009988  78.5230012 140.3704997 119.8799988
  77.8550012 141.2424997 120.9219988  78.1357568 141.1120807 120.1089588
  82.7730012 142.3434997 105.0199988  82.3130012 141.8594997 105.7059988
  83.0280012 141.6754997 104.3839988  82.7444902 142.1868731 105.0279334
  82.0620012 140.2364997 117.3759988  81.4440012 140.9114997 117.6559988
  82.4060012 140.5574997 116.5419988  82.0239132 140.3722411 117.3016262
  83.8440012 140.5864997 103.2819988  83.6640012 140.4324997 102.3549988
  84.7940012 140.6944997 103.3269988  83.9477776 140.5800175 103.1611843
  87.0820012 142.7084997 120.6529988  88.0350012 142.7914997 120.6259988
  86.9210012 141.9964997 121.2729988  87.1906426 142.6236746 120.7330579
  93.2340012 142.9414997 102.7279988  92.9600012 142.5164997 101.9149988
  93.2730012 143.8724997 102.5109988  93.2017699 143.0092484 102.5873610
  82.4010012 137.5914997 118.4579988  82.5510012 136.8624997 117.8559988
  82.4040012 138.3684997 117.8989988  82.4219302 137.5967851 118.3000692
  82.8140012 135.9614997 115.9509988  83.3500012 136.4124997 115.2989988
  81.9620012 135.8534997 115.5279988  82.7722178 136.0086390 115.8045756
  84.3960012 141.4004997 116.1899988  85.1460012 141.2444997 115.6169988
  84.0570012 142.2524997 115.9149988  84.4528921 141.4942968 116.0743561
  88.8110012 139.2154997 121.2189988  89.0040012 138.2844997 121.1069988
  89.6690012 139.6404997 121.2079988  88.9532934 139.1456531 121.2022031
  90.1280012 142.0044997 119.2959988  89.8470012 142.7134997 118.7179988
  91.0710012 141.9314997 119.1449988  90.2169291 142.0916711 119.1964967
  80.8800012 138.7894997 120.3699988  80.1130012 138.2574997 120.1589988
  81.5590012 138.4794997 119.7699988  80.8667877 138.6748300 120.2600716
  83.6200012 133.4174997 116.3819988  83.5210012 134.3644997 116.2769988
  82.8770012 133.0454997 115.9059988  83.5061184 133.4965863 116.3033621
  84.8840012 137.7394997 119.9459988  84.6480012 137.5194997 120.8469988
  84.1000012 137.5324997 119.4359988  84.7458504 137.6814586 120.0003431
  87.5990012 136.8664997 119.0209988  86.6520012 136.8984997 119.1539988
  87.9120012 136.2414997 119.6749988  87.5116707 136.7863998 119.1276060
  89.2330012 135.5004997 121.0269988  89.1370012 134.5484997 121.0209988
  88.9120012 135.7694997 121.8869988  89.1764070 135.4064035 121.1425441
  79.0600012 136.7104997 120.0739988  79.2720012 136.0034997 119.4639988
  78.9490012 136.2724997 120.9179988  79.0739721 136.5547084 120.1046843
  83.8410012 132.7114997 119.0529988  84.5530012 132.0714997 119.0389988
  83.7400012 132.9784997 118.1399988  83.9248066 132.6600079 118.9275677
  84.1950012 134.3944997 121.1069988  84.0630012 133.9184997 120.2869988
  83.5960012 135.1384997 121.0519988  84.0959071 134.4299618 120.9872886
  93.6920012 143.8104997 106.7029988  94.5420012 144.2314997 106.8299988
  93.6980012 143.0704997 107.3099988  93.8091372 143.7680803 106.8024344
  94.0870012 141.8634997 108.5259988  93.3600012 141.3844997 108.9239988
  94.6680012 142.0694997 109.2589988  94.0660473 141.8258103 108.6794528
  93.8460012 144.6484997 113.4739988  94.6790012 144.2704997 113.1939988
  93.9580012 145.5914997 113.3549988  93.9752647 144.7242218 113.4195487
  91.8730012 140.3844997 109.0889988  91.7230012 139.4394997 109.0689988
  91.5200012 140.6654997 109.9329988  91.8047448 140.2931481 109.2003705
  76.9090012 142.4624997 113.0999988  77.0930012 142.3804997 112.1639988
  77.7580012 142.3384997 113.5229988  77.0490151 142.4345073 113.0291451
  92.7300012 142.3544997 118.7279988  93.3130012 141.6204997 118.9199988
  93.2940012 143.1264997 118.7749988  92.8859769 142.3584227 118.7606159
  94.2260012 140.2574997 119.4129988  93.3630012 139.8784997 119.2469988
  94.8310012 139.5184997 119.3379988  94.1896119 140.1058268 119.3801528
  91.9510012 136.4124997 102.5859988  92.5620012 136.0414997 103.2229988
  91.1150012 135.9914997 102.7819988  91.9215032 136.3047554 102.6997035
  91.5840012 137.9674997 107.5519988  91.8640012 137.0604997 107.6759988
  92.3430012 138.4014997 107.1629988  91.7249277 137.9020942 107.5163682
  92.1960012 138.5484997 112.9879988  93.1290012 138.7604997 112.9529988
  91.9610012 138.6504997 113.9099988  92.2919244 138.5913100 113.1078892
  92.2250012 139.2854997 115.7639988  91.3820012 139.5534997 116.1299988
  92.6670012 140.1074997 115.5529988  92.1694158 139.4333291 115.7855491
  76.5060012 137.7334997 119.2409988  77.4260012 137.6114997 119.4769988
  76.0570012 136.9834997 119.6299988  76.5711580 137.6153727 119.3259006
  94.5080012 133.2654997 121.1169988  94.8580012 132.6114997 120.5119988
  94.6550012 134.1024997 120.6769988  94.5757887 133.2891548 120.9746858
  92.1970012 135.2304997 107.5999988  92.3800012 134.7814997 108.4259988
  91.5980012 134.6454997 107.1369988  92.1410202 135.0899975 107.6503275
  77.7270012 136.0454997 112.1319988  78.1730012 135.2534997 112.4339988
  78.1940012 136.7614997 112.5619988  77.8510831 136.0340685 112.2314006
  76.0310012 139.0444997 113.2009988  76.5230012 138.8234997 112.4099988
  76.3940012 139.8854997 113.4819988  76.1473126 139.1278357 113.1307531
  94.0280012 135.3744997 119.4659988  93.1100012 135.6454997 119.4309988
  94.1510012 134.8394997 118.6819988  93.9189729 135.3392508 119.3551923
  94.0640012 135.2974997 104.1279988  94.4760012 134.5764997 103.6529988
  94.7460012 135.9674997 104.1869988  94.2125885 135.2892368 104.0708915
  76.3450012 135.3024997 107.2549988  75.4200012 135.5114997 107.1259988
  76.7990012 135.7864997 106.5649988  76.2797292 135.3965343 107.1440720
  76.3090012 134.0404997 115.5989988  75.6440012 133.7944997 116.2429988
  75.8660012 134.6624997 115.0219988  76.1581318 134.0909410 115.6090898
  93.0280012 133.4644997 117.2849988  92.2160012 133.7894997 116.8979988
  93.2610012 132.7044997 116.7519988  92.9482203 133.4062758 117.1598880
  86.4580012 134.9134997 111.6079988  85.7840012 134.2844997 111.8639988
  87.0220012 134.4294997 111.0049988  86.4419230 134.7618744 111.5615340
  91.6010012 133.0214997 111.7209988  92.2050012 133.5684997 111.2189988
  90.7310012 133.3404997 111.4799988  91.5661208 133.1395137 111.6196886
  93.3280012 134.1594997 110.0539988  93.9400012 133.6454997 109.5269988
  93.7100012 135.0374997 110.0769988  93.4633371 134.2077866 109.9850041
  78.7850012 133.5474997 109.4299988  78.0080012 133.3134997 108.9229988
  79.3150012 132.7504997 109.4389988  78.7502330 133.4076988 109.3617742
  77.6210012 133.3454997 105.2339988  78.0600012 133.9564997 104.6419988
  76.9880012 133.8834997 105.7079988  77.5954514 133.5019257 105.2170930
  83.3640012 133.4744997 109.2439988  84.2390012 133.8624997 109.2139988
  83.2280012 133.2594997 110.1659988  83.4653695 133.4985184 109.3646440
  88.9210012 133.5044997 110.8929988  88.9970012 133.5994997 109.9429988
  88.6460012 132.5964997 111.0219988  88.8942321 133.3947867 110.7805079
  90.2740012 133.5304997 106.5849988  89.5720012 134.1454997 106.3749988
  89.8300012 132.6924997 106.7159988  90.1176450 133.5015639 106.5739000
  78.7430012 134.0614997 118.9479988  78.3770012 133.2964997 119.3899988
  79.6560012 134.0904997 119.2339988  78.8162736 133.9605640 119.0472502
  80.7160012 133.4124997 120.4839988  81.6140012 133.1384997 120.2989988
  80.3290012 132.6694997 120.9479988  80.7866612 133.2745914 120.5213643
  89.1370012 132.7444997 120.6659988  89.2140012 132.3184997 121.5199988
  90.0310012 132.7584997 120.3229988  89.2683428 132.6880880 120.7365310
 106.7190012 142.7034997 109.3889988 106.8080012 143.6474997 109.2569988
 106.0810012 142.4284997 108.7309988 106.6449081 142.7954830 109.2819614
 105.6520012 141.9584997 112.8079988 105.6140012 141.3124997 113.5129988
 105.3300012 141.4924997 112.0369988 105.6032333 141.8069408 112.8002978
  98.0210012 141.5734997 114.4009988  98.0620012 140.9474997 115.1239988
  98.7240012 142.1974997 114.5829988  98.1216363 141.5721196 114.5246044
 109.3580012 144.8974997 111.1089988 108.9180012 144.1774997 111.5599988
 109.3450012 145.6184997 111.7389988 109.2960226 144.8963731 111.2558494
  95.5540012 139.6834997 108.3289988  95.1070012 140.5294997 108.3099988
  94.9930012 139.1034997 107.8129988  95.4169900 139.7209916 108.2566801
  96.2650012 141.8454997 110.4539988  96.4780012 141.0754997 110.9819988
  97.0030012 141.9344997 109.8509988  96.3939044 141.7521968 110.4447123
 104.0420012 144.3914997 113.2139988 104.3460012 143.7054997 112.6189988
 104.7630012 144.5094997 113.8319988 104.1810671 144.3136305 113.2161816
 112.7050012 135.9924997 114.0749988 112.7540012 136.6024997 114.8099988
 113.1300012 136.4534997 113.3519988 112.7691746 136.1383796 114.0779175
 107.1830012 138.7854997 113.5409988 107.3250012 137.8394997 113.5619988
 107.0760012 138.9924997 112.6129988 107.1879919 138.6838246 113.4183408
 100.3370012 136.8864997 110.8139988 100.3810012 137.7464997 110.3949988
  99.8800012 136.3344997 110.1799988 100.2812240 136.9294422 110.6709864
 108.0600012 137.0174997 109.2149988 108.7060012 136.6884997 109.8389988
 108.5700012 137.5354997 108.5919988 108.2174299 137.0424450 109.2162731
  96.9580012 139.2834997 111.5759988  97.6110012 138.7334997 112.0079988
  96.9820012 139.0094997 110.6589988  97.0506683 139.1711466 111.5112123
 102.1140012 140.8334997 110.7909988 102.7300012 140.3074997 111.3009988
 101.5280012 140.1934997 110.3879988 102.1190810 140.6749208 110.8063173
 113.0960012 137.4704997 116.3099988 112.4080012 138.1284997 116.2149988
 113.1120012 137.2734997 117.2469988 113.0039540 137.5339819 116.4235990
  99.1480012 135.8044997 114.8879988  98.9290012 136.3344997 114.1219988
  98.4800012 136.0314997 115.5349988  99.0277600 135.9076906 114.8706379
 101.7170012 143.4804997 115.1749988 100.9770012 144.0784997 115.2789988
 102.4310012 144.0344997 114.8599988 101.7122237 143.6372831 115.1466465
 109.8240012 136.3084997 111.1949988 109.6080012 135.5424997 111.7279988
 110.4790012 136.7804997 111.7079988 109.8830632 136.2675889 111.3372861
  98.7410012 137.6964997 112.8399988  99.3550012 138.3294997 113.2129988
  99.2530012 137.2244997 112.1839988  98.8941981 137.7192267 112.8022908
 110.1710012 135.0234997 114.8749988 109.4350012 135.6344997 114.8369988
 110.8540012 135.4384997 114.3479988 110.1626541 135.1631374 114.7985832
 103.1740012 133.1104997 112.3399988 103.0570012 132.1614997 112.2859988
 102.3190012 133.4424997 112.6139988 103.0424212 133.0255571 112.3696497
 110.9680012 144.9854997 117.0679988 111.1080012 144.3944997 116.3289988
 111.1350012 145.8584997 116.7119988 111.0097411 145.0225428 116.9186894
 105.4410012 141.9474997 106.8409988 104.7290012 142.4824997 106.4889988
 106.1320012 142.0034997 106.1809988 105.4370132 142.0282543 106.7036289
 112.8100012 141.3254997 115.1339988 112.1570012 142.0204997 115.2239988
 113.2750012 141.5354997 114.3249988 112.7835274 141.4490643 115.0368462
 108.8460012 142.1574997 107.7929988 108.1140012 142.3854997 108.3659988
 109.2940012 141.4434997 108.2469988 108.8062725 142.0922145 107.9328816
 108.7440012 140.3314997 116.8599988 108.8240012 141.0944997 117.4319988
 108.1420012 140.6104997 116.1699988 108.6735756 140.4737134 116.8450589
 100.4920012 142.7874997 109.6749988 100.1610012 142.4174997 108.8569988
 101.0800012 142.1174997 110.0219988 100.5261873 142.6461156 109.6098102
 100.8580012 141.5564997 113.3089988 101.4240012 141.6774997 112.5459988
 101.1770012 142.1934997 113.9469988 100.9785474 141.6592219 113.2909862
  98.6580012 142.1534997 117.2539988  98.7290012 142.8044997 117.9529988
  97.7680012 142.2564997 116.9189988  98.5473005 142.2565427 117.3043495
  99.4820012 141.8574997 107.2639988  99.1900012 142.6254997 106.7739988
  98.8080012 141.1974997 107.1019988  99.3508111 141.8735587 107.1748978
  95.5750012 144.2204997 116.0789988  95.0740012 144.1924997 115.2639988
  95.5800012 143.3144997 116.3889988  95.5070944 144.0942396 116.0093226
 110.6750012 139.1594997 119.1259988 110.2680012 139.6404997 118.4049988
 110.7160012 138.2544997 118.8179988 110.6248437 139.1029374 118.9856683
 100.4430012 134.0134997 113.1179988  99.5810012 133.9264997 112.7099988
 100.4200012 134.8694997 113.5459988 100.3220409 134.1172883 113.1200589
 105.1060012 133.7354997 116.4929988 105.5260012 133.3204997 117.2459988
 104.1730012 133.5574997 116.6099988 105.0373644 133.6545900 116.6119539
 108.4320012 137.4914997 117.3459988 107.9180012 137.3654997 118.1439988
 108.2770012 138.4034997 117.1019988 108.3406852 137.5976132 117.4222158
 100.5340012 138.9794997 114.2129988  99.8920012 138.9384997 114.9219988
 100.5710012 139.9054997 113.9749988 100.4510664 139.0991430 114.2779219
 100.5310012 139.2004997 109.1249988  99.6380012 138.8594997 109.0659988
 100.9810012 138.8234997 108.3689988 100.4698130 139.1029631 109.0147702
 106.0660012 139.6164997 107.9419988 105.6570012 140.4314997 107.6509988
 106.7870012 139.4764997 107.3279988 106.1074537 139.7092018 107.8191342
 105.1680012 139.7914997 119.4299988 104.6060012 139.0874997 119.7509988
 105.9950012 139.6714997 119.8979988 105.2027095 139.6787883 119.5372330
 107.0710012 139.0624997 110.7559988 106.8760012 139.6674997 110.0409988
 107.2520012 138.2284997 110.3219988 107.0687614 139.0326300 110.5994405
  98.2840012 139.2994997 116.0799988  98.2460012 139.6994997 116.9489988
  97.7930012 138.4824997 116.1709988  98.2124684 139.2438069 116.2111059
  94.8920012 136.4154997 109.9309988  95.5230012 136.3864997 110.6499988
  95.3410012 135.9904997 109.1999988  95.0390918 136.3540836 109.9306441
 106.3350012 140.7004997 115.4269988 106.6580012 140.0694997 114.7839988
 105.8950012 140.1654997 116.0879988 106.3197484 140.5418387 115.4283198
 103.1120012 136.6274997 110.2109988 102.2010012 136.6844997 110.4999988
 103.6180012 136.5674997 111.0219988 103.0556899 136.6271941 110.3601184
  97.9410012 138.2564997 109.0379988  97.0510012 138.3564997 108.6979988
  98.2370012 137.4144997 108.6919988  97.8592823 138.1563545 108.9447213
 101.5940012 138.2564997 106.6949988 102.5250012 138.3854997 106.8729988
 101.3790012 138.9264997 106.0449988 101.6924247 138.3646565 106.6315747
 107.5170012 135.8624997 113.4759988 106.8410012 135.9934997 114.1399988
 107.0320012 135.7074997 112.6649988 107.3587146 135.8595157 113.4574469
 100.2680012 139.4514997 104.2609988  99.7250012 139.0714997 103.5699988
 101.1010012 139.6454997 103.8329988 100.3063631 139.4257125 104.1084501
  98.4030012 144.0084997 119.3599988  99.1350012 144.2624997 119.9219988
  97.6230012 144.2124997 119.8759988  98.3977073 144.0708160 119.5066151
 104.4320012 139.4154997 112.0979988 104.9970012 138.8684997 111.5509988
 104.2850012 138.8934997 112.8869988 104.4893380 139.2702259 112.1298695
  99.4340012 135.5514997 108.5169988  99.1170012 134.6494997 108.4809988
 100.2160012 135.5534997 107.9639988  99.4962408 135.4282474 108.4373569
 103.0590012 137.8034997 114.5119988 102.2230012 138.2574997 114.6229988
 103.5830012 138.0794997 115.2639988 103.0155416 137.9028660 114.6288119
 103.6030012 144.0164997 106.1969988 102.8580012 143.5094997 105.8749988
 103.4690012 144.0654997 107.1439988 103.4828776 143.9536940 106.2808647
 110.7530012 143.1494997 114.9839988 111.3950012 143.6064997 114.4399988
 109.9230012 143.2624997 114.5209988 110.7285963 143.2272704 114.8470177
 105.1220012 144.2004997 117.4339988 104.7770012 143.8194997 118.2409988
 104.9220012 145.1344997 117.5049988 105.0477527 144.2745135 117.5540689
  98.7280012 143.3114997 111.9669988  99.4730012 143.3094997 111.3659988
  98.8060012 142.4884997 112.4479988  98.8404995 143.1998887 111.9498282
  95.7360012 141.7724997 117.2819988  95.9590012 141.3544997 118.1139988
  95.1340012 141.1594997 116.8589988  95.6851759 141.6324668 117.3387022
 102.7520012 141.2894997 119.4949988 102.4560012 141.1234997 118.5999988
 103.6840012 141.0694997 119.4839988 102.8374166 141.2370640 119.3710536
 113.1040012 138.9074997 105.7519988 112.5500012 138.5114997 105.0799988
 113.2040012 139.8174997 105.4739988 113.0417059 138.9763586 105.6224401
 113.0670012 144.7074997 118.5889988 112.2160012 144.9454997 118.2219988
 113.6580012 144.6904997 117.8359988 113.0302487 144.7378258 118.4368893
 108.5600012 142.5014997 113.2379988 107.6310012 142.2694997 113.2109988
 109.0110012 141.7244997 112.9079988 108.4939216 142.3647238 113.1896917
 102.5300012 144.4924997 108.9469988 102.2890012 145.4174997 108.9889988
 101.7890012 144.0334997 109.3439988 102.3969225 144.5570933 109.0063742
 106.5890012 144.7404997 114.9629988 106.1630012 144.5134997 115.7899988
 107.1690012 144.0024997 114.7809988 106.6091868 144.6095299 115.0515830
  97.3700012 136.5254997 116.8399988  96.4770012 136.8644997 116.7719988
  97.2710012 135.6704997 117.2579988  97.2344164 136.4562588 116.8872235
 109.6580012 144.3424997 106.2639988 109.3800012 143.6144997 106.8199988
 110.5850012 144.4614997 106.4689988 109.7453124 144.2588802 106.3678845
  98.2730012 143.6044997 105.4509988  97.5870012 143.9564997 106.0179988
  98.7950012 144.3674997 105.2039988  98.2496852 143.7558578 105.4952118
 106.1040012 136.2664997 115.7299988 106.8030012 136.3404997 116.3799988
 105.7230012 135.4024997 115.8839988 106.1481767 136.1597624 115.8398322
 106.8890012 135.9184997 106.8269988 107.1090012 136.3904997 106.0239988
 107.4470012 136.3134997 107.4969988 106.9944968 136.0364285 106.8077331
 104.0890012 137.6464997 107.6619988 104.9010012 138.1514997 107.7079988
 103.8440012 137.5014997 108.5759988 104.1670520 137.6960375 107.7918517
 104.6240012 138.6324997 116.8459988 104.7430012 139.2064997 117.6039988
 105.2800012 137.9444997 116.9609988 104.7289025 138.6179858 116.9651321
 104.9720012 134.7274997 108.5999988 104.6260012 135.3454997 109.2439988
 105.6310012 135.2284997 108.1179988 105.0136968 134.8796278 108.6229383
 110.8290012 136.5394997 117.6809988 109.9120012 136.8024997 117.5939988
 111.1640012 136.5364997 116.7849988 110.7488613 136.5750761 117.5478837
 109.4310012 140.2904997 111.7769988 108.6330012 139.8754997 111.4489988
 109.8760012 139.5994997 112.2679988 109.3819885 140.1403543 111.7984889
  98.0130012 133.6644997 112.1369988  97.7840012 133.7234997 111.2089988
  97.5700012 132.8724997 112.4429988  97.9218530 133.5655753 112.0514786
  96.1380012 144.0274997 120.5809988  96.2820012 143.1254997 120.2949988
  95.3660012 144.3134997 120.0939988  96.0532753 143.9426816 120.4759505
 102.7940012 143.9974997 120.0139988 102.4650012 144.2684997 119.1569988
 102.9460012 143.0564997 119.9269988 102.7694809 143.9073862 119.8848244
 108.5280012 143.9134997 117.3969988 109.2740012 144.5014997 117.2779988
 107.7710012 144.4954997 117.4609988 108.5277820 144.0727143 117.3893590
  96.9710012 141.2274997 120.0009988  97.3790012 140.3704997 119.8799988
  96.7110012 141.2424997 120.9219988  96.9917568 141.1120807 120.1089588
 101.6290012 142.3434997 105.0199988 101.1690012 141.8594997 105.7059988
 101.8840012 141.6754997 104.3839988 101.6004902 142.1868731 105.0279334
 100.9180012 140.2364997 117.3759988 100.3000012 140.9114997 117.6559988
 101.2620012 140.5574997 116.5419988 100.8799132 140.3722411 117.3016262
 102.7000012 140.5864997 103.2819988 102.5200012 140.4324997 102.3549988
 103.6500012 140.6944997 103.3269988 102.8037776 140.5800175 103.1611843
 105.9380012 142.7084997 120.6529988 106.8910012 142.7914997 120.6259988
 105.7770012 141.9964997 121.2729988 106.0466426 142.6236746 120.7330579
 112.0900012 142.9414997 102.7279988 111.8160012 142.5164997 101.9149988
 112.1290012 143.8724997 102.5109988 112.0577699 143.0092484 102.5873610
 101.2570012 137.5914997 118.4579988 101.4070012 136.8624997 117.8559988
 101.2600012 138.3684997 117.8989988 101.2779302 137.5967851 118.3000692
 101.6700012 135.9614997 115.9509988 102.2060012 136.4124997 115.2989988
 100.8180012 135.8534997 115.5279988 101.6282178 136.0086390 115.8045756
 103.2520012 141.4004997 116.1899988 104.0020012 141.2444997 115.6169988
 102.9130012 142.2524997 115.9149988 103.3088921 141.4942968 116.0743561
 107.6670012 139.2154997 121.2189988 107.8600012 138.2844997 121.1069988
 108.5250012 139.6404997 121.2079988 107.8092934 139.1456531 121.2022031
 108.9840012 142.0044997 119.2959988 108.7030012 142.7134997 118.7179988
 109.9270012 141.9314997 119.1449988 109.0729291 142.0916711 119.1964967
  99.7360012 138.7894997 120.3699988  98.9690012 138.2574997 120.1589988
 100.4150012 138.4794997 119.7699988  99.7227877 138.6748300 120.2600716
 102.4760012 133.4174997 116.3819988 102.3770012 134.3644997 116.2769988
 101.7330012 133.0454997 115.9059988 102.3621184 133.4965863 116.3033621
 103.7400012 137.7394997 119.9459988 103.5040012 137.5194997 120.8469988
 102.9560012 137.5324997 119.4359988 103.6018504 137.6814586 120.0003431
 106.4550012 136.8664997 119.0209988 105.5080012 136.8984997 119.1539988
 106.7680012 136.2414997 119.6749988 106.3676707 136.7863998 119.1276060
 108.0890012 135.5004997 121.0269988 107.9930012 134.5484997 121.0209988
 107.7680012 135.7694997 121.8869988 108.0324070 135.4064035 121.1425441
  97.9160012 136.7104997 120.0739988  98.1280012 136.0034997 119.4639988
  97.8050012 136.2724997 120.9179988  97.9299721 136.5547084 120.1046843
 102.6970012 132.7114997 119.0529988 103.4090012 132.0714997 119.0389988
 102.5960012 132.9784997 118.1399988 102.7808066 132.6600079 118.9275677
 103.0510012 134.3944997 121.1069988 102.9190012 133.9184997 120.2869988
 102.4520012 135.1384997 121.0519988 102.9519071 134.4299618 120.9872886
 112.5480012 143.8104997 106.7029988 113.3980012 144.2314997 106.8299988
 112.5540012 143.0704997 107.3099988 112.6651372 143.7680803 106.8024344
 112.9430012 141.8634997 108.5259988 112.2160012 141.3844997 108.9239988
 113.5240012 142.0694997 109.2589988 112.9220473 141.8258103 108.6794528
 112.7020012 144.6484997 113.4739988 113.5350012 144.2704997 113.1939988
 112.8140012 145.5914997 113.3549988 112.8312647 144.7242218 113.4195487
 113.2110012 141.7644997 104.9179988 112.6890012 142.1214997 104.1989988
 113.1780012 142.4394997 105.5959988 113.1351634 141.9045413 104.9113145
 110.7290012 140.3844997 109.0889988 110.5790012 139.4394997 109.0689988
 110.3760012 140.6654997 109.9329988 110.6607448 140.2931481 109.2003705
  95.7650012 142.4624997 113.0999988  95.9490012 142.3804997 112.1639988
  96.6140012 142.3384997 113.5229988  95.9050151 142.4345073 113.0291451
 111.5860012 142.3544997 118.7279988 112.1690012 141.6204997 118.9199988
 112.1500012 143.1264997 118.7749988 111.7419769 142.3584227 118.7606159
 113.0820012 140.2574997 119.4129988 112.2190012 139.8784997 119.2469988
 113.6870012 139.5184997 119.3379988 113.0456119 140.1058268 119.3801528
 110.4400012 137.9674997 107.5519988 110.7200012 137.0604997 107.6759988
 111.1990012 138.4014997 107.1629988 110.5809277 137.9020942 107.5163682
 111.0520012 138.5484997 112.9879988 111.9850012 138.7604997 112.9529988
 110.8170012 138.6504997 113.9099988 111.1479244 138.5913100 113.1078892
 111.0810012 139.2854997 115.7639988 110.2380012 139.5534997 116.1299988
 111.5230012 140.1074997 115.5529988 111.0254158 139.4333291 115.7855491
  95.3620012 137.7334997 119.2409988  96.2820012 137.6114997 119.4769988
  94.9130012 136.9834997 119.6299988  95.4271580 137.6153727 119.3259006
 113.3640012 133.2654997 121.1169988 113.7140012 132.6114997 120.5119988
 113.5110012 134.1024997 120.6769988 113.4317887 133.2891548 120.9746858
 111.0530012 135.2304997 107.5999988 111.2360012 134.7814997 108.4259988
 110.4540012 134.6454997 107.1369988 110.9970202 135.0899975 107.6503275
  96.5830012 136.0454997 112.1319988  97.0290012 135.2534997 112.4339988
  97.0500012 136.7614997 112.5619988  96.7070831 136.0340685 112.2314006
  94.8870012 139.0444997 113.2009988  95.3790012 138.8234997 112.4099988
  95.2500012 139.8854997 113.4819988  95.0033126 139.1278357 113.1307531
 112.8840012 135.3744997 119.4659988 111.9660012 135.6454997 119.4309988
 113.0070012 134.8394997 118.6819988 112.7749729 135.3392508 119.3551923
  95.2010012 135.3024997 107.2549988  94.2760012 135.5114997 107.1259988
  95.6550012 135.7864997 106.5649988  95.1357292 135.3965343 107.1440720
  95.1650012 134.0404997 115.5989988  94.5000012 133.7944997 116.2429988
  94.7220012 134.6624997 115.0219988  95.0141318 134.0909410 115.6090898
 111.8840012 133.4644997 117.2849988 111.0720012 133.7894997 116.8979988
 112.1170012 132.7044997 116.7519988 111.8042203 133.4062758 117.1598880
 105.3140012 134.9134997 111.6079988 104.6400012 134.2844997 111.8639988
 105.8780012 134.4294997 111.0049988 105.2979230 134.7618744 111.5615340
 110.4570012 133.0214997 111.7209988 111.0610012 133.5684997 111.2189988
 109.5870012 133.3404997 111.4799988 110.4221208 133.1395137 111.6196886
 112.1840012 134.1594997 110.0539988 112.7960012 133.6454997 109.5269988
 112.5660012 135.0374997 110.0769988 112.3193371 134.2077866 109.9850041
  97.6410012 133.5474997 109.4299988  96.8640012 133.3134997 108.9229988
  98.1710012 132.7504997 109.4389988  97.6062330 133.4076988 109.3617742
  96.4770012 133.3454997 105.2339988  96.9160012 133.9564997 104.6419988
  95.8440012 133.8834997 105.7079988  96.4514514 133.5019257 105.2170930
 102.2200012 133.4744997 109.2439988 103.0950012 133.8624997 109.2139988
 102.0840012 133.2594997 110.1659988 102.3213695 133.4985184 109.3646440
 107.7770012 133.5044997 110.8929988 107.8530012 133.5994997 109.9429988
 107.5020012 132.5964997 111.0219988 107.7502321 133.3947867 110.7805079
 109.1300012 133.5304997 106.5849988 108.4280012 134.1454997 106.3749988
 108.6860012 132.6924997 106.7159988 108.9736450 133.5015639 106.5739000
  98.3380012 135.2614997 103.6759988  98.8300012 134.6314997 103.1489988
  98.9620012 135.5574997 104.3389988  98.4895688 135.2153804 103.6935482
  97.5990012 134.0614997 118.9479988  97.2330012 133.2964997 119.3899988
  98.5120012 134.0904997 119.2339988  97.6722736 133.9605640 119.0472502
  99.5720012 133.4124997 120.4839988 100.4700012 133.1384997 120.2989988
  99.1850012 132.6694997 120.9479988  99.6426612 133.2745914 120.5213643
 107.9930012 132.7444997 120.6659988 108.0700012 132.3184997 121.5199988
 108.8870012 132.7584997 120.3229988 108.1243428 132.6880880 120.7365310
 125.5750012 142.7034997 109.3889988 125.6640012 143.6474997 109.2569988
 124.9370012 142.4284997 108.7309988 125.5009081 142.7954830 109.2819614
 124.5080012 141.9584997 112.8079988 124.4700012 141.3124997 113.5129988
 124.1860012 141.4924997 112.0369988 124.4592333 141.8069408 112.8002978
 116.8770012 141.5734997 114.4009988 116.9180012 140.9474997 115.1239988
 117.5800012 142.1974997 114.5829988 116.9776363 141.5721196 114.5246044
 128.2140012 144.8974997 111.1089988 127.7740012 144.1774997 111.5599988
 128.2010012 145.6184997 111.7389988 128.1520226 144.8963731 111.2558494
 114.4100012 139.6834997 108.3289988 113.9630012 140.5294997 108.3099988
 113.8490012 139.1034997 107.8129988 114.2729900 139.7209916 108.2566801
 115.1210012 141.8454997 110.4539988 115.3340012 141.0754997 110.9819988
 115.8590012 141.9344997 109.8509988 115.2499044 141.7521968 110.4447123
 122.8980012 144.3914997 113.2139988 123.2020012 143.7054997 112.6189988
 123.6190012 144.5094997 113.8319988 123.0370671 144.3136305 113.2161816
 131.5610012 135.9924997 114.0749988 131.6100012 136.6024997 114.8099988
 131.9860012 136.4534997 113.3519988 131.6251746 136.1383796 114.0779175
 126.0390012 138.7854997 113.5409988 126.1810012 137.8394997 113.5619988
 125.9320012 138.9924997 112.6129988 126.0439919 138.6838246 113.4183408
 119.1930012 136.8864997 110.8139988 119.2370012 137.7464997 110.3949988
 118.7360012 136.3344997 110.1799988 119.1372240 136.9294422 110.6709864
 126.9160012 137.0174997 109.2149988 127.5620012 136.6884997 109.8389988
 127.4260012 137.5354997 108.5919988 127.0734299 137.0424450 109.2162731
 115.8140012 139.2834997 111.5759988 116.4670012 138.7334997 112.0079988
 115.8380012 139.0094997 110.6589988 115.9066683 139.1711466 111.5112123
 120.9700012 140.8334997 110.7909988 121.5860012 140.3074997 111.3009988
 120.3840012 140.1934997 110.3879988 120.9750810 140.6749208 110.8063173
 131.9520012 137.4704997 116.3099988 131.2640012 138.1284997 116.2149988
 131.9680012 137.2734997 117.2469988 131.8599540 137.5339819 116.4235990
 118.0040012 135.8044997 114.8879988 117.7850012 136.3344997 114.1219988
 117.3360012 136.0314997 115.5349988 117.8837600 135.9076906 114.8706379
 120.5730012 143.4804997 115.1749988 119.8330012 144.0784997 115.2789988
 121.2870012 144.0344997 114.8599988 120.5682237 143.6372831 115.1466465
 128.6800012 136.3084997 111.1949988 128.4640012 135.5424997 111.7279988
 129.3350012 136.7804997 111.7079988 128.7390632 136.2675889 111.3372861
 117.5970012 137.6964997 112.8399988 118.2110012 138.3294997 113.2129988
 118.1090012 137.2244997 112.1839988 117.7501981 137.7192267 112.8022908
 129.0270012 135.0234997 114.8749988 128.2910012 135.6344997 114.8369988
 129.7100012 135.4384997 114.3479988 129.0186541 135.1631374 114.7985832
 122.0300012 133.1104997 112.3399988 121.9130012 132.1614997 112.2859988
 121.1750012 133.4424997 112.6139988 121.8984212 133.0255571 112.3696497
 129.8240012 144.9854997 117.0679988 129.9640012 144.3944997 116.3289988
 129.9910012 145.8584997 116.7119988 129.8657411 145.0225428 116.9186894
 124.2970012 141.9474997 106.8409988 123.5850012 142.4824997 106.4889988
 124.9880012 142.0034997 106.1809988 124.2930132 142.0282543 106.7036289
 131.6660012 141.3254997 115.1339988 131.0130012 142.0204997 115.2239988
 132.1310012 141.5354997 114.3249988 131.6395274 141.4490643 115.0368462
 127.7020012 142.1574997 107.7929988 126.9700012 142.3854997 108.3659988
 128.1500012 141.4434997 108.2469988 127.6622725 142.0922145 107.9328816
 127.6000012 140.3314997 116.8599988 127.6800012 141.0944997 117.4319988
 126.9980012 140.6104997 116.1699988 127.5295756 140.4737134 116.8450589
 119.3480012 142.7874997 109.6749988 119.0170012 142.4174997 108.8569988
 119.9360012 142.1174997 110.0219988 119.3821873 142.6461156 109.6098102
 119.7140012 141.5564997 113.3089988 120.2800012 141.6774997 112.5459988
 120.0330012 142.1934997 113.9469988 119.8345474 141.6592219 113.2909862
 126.5730012 141.3194997 105.4779988 127.1530012 141.4694997 106.2249988
 126.9870012 141.7904997 104.7539988 126.7082997 141.4036578 105.4824058
 117.5140012 142.1534997 117.2539988 117.5850012 142.8044997 117.9529988
 116.6240012 142.2564997 116.9189988 117.4033005 142.2565427 117.3043495
 118.3380012 141.8574997 107.2639988 118.0460012 142.6254997 106.7739988
 117.6640012 141.1974997 107.1019988 118.2068111 141.8735587 107.1748978
 114.4310012 144.2204997 116.0789988 113.9300012 144.1924997 115.2639988
 114.4360012 143.3144997 116.3889988 114.3630944 144.0942396 116.0093226
 129.5310012 139.1594997 119.1259988 129.1240012 139.6404997 118.4049988
 129.5720012 138.2544997 118.8179988 129.4808437 139.1029374 118.9856683
 119.2990012 134.0134997 113.1179988 118.4370012 133.9264997 112.7099988
 119.2760012 134.8694997 113.5459988 119.1780409 134.1172883 113.1200589
 123.9620012 133.7354997 116.4929988 124.3820012 133.3204997 117.2459988
 123.0290012 133.5574997 116.6099988 123.8933644 133.6545900 116.6119539
 127.2880012 137.4914997 117.3459988 126.7740012 137.3654997 118.1439988
 127.1330012 138.4034997 117.1019988 127.1966852 137.5976132 117.4222158
 119.3900012 138.9794997 114.2129988 118.7480012 138.9384997 114.9219988
 119.4270012 139.9054997 113.9749988 119.3070664 139.0991430 114.2779219
 119.3870012 139.2004997 109.1249988 118.4940012 138.8594997 109.0659988
 119.8370012 138.8234997 108.3689988 119.3258130 139.1029631 109.0147702
 124.9220012 139.6164997 107.9419988 124.5130012 140.4314997 107.6509988
 125.6430012 139.4764997 107.3279988 124.9634537 139.7092018 107.8191342
 124.0240012 139.7914997 119.4299988 123.4620012 139.0874997 119.7509988
 124.8510012 139.6714997 119.8979988 124.0587095 139.6787883 119.5372330
 125.9270012 139.0624997 110.7559988 125.7320012 139.6674997 110.0409988
 126.1080012 138.2284997 110.3219988 125.9247614 139.0326300 110.5994405
 117.1400012 139.2994997 116.0799988 117.1020012 139.6994997 116.9489988
 116.6490012 138.4824997 116.1709988 117.0684684 139.2438069 116.2111059
 120.5060012 136.6734997 102.8789988 120.0750012 136.2284997 103.6089988
 119.7880012 137.0454997 102.3669988 120.3499438 136.6628940 102.9096799
 113.7480012 136.4154997 109.9309988 114.3790012 136.3864997 110.6499988
 114.1970012 135.9904997 109.1999988 113.8950918 136.3540836 109.9306441
 125.1910012 140.7004997 115.4269988 125.5140012 140.0694997 114.7839988
 124.7510012 140.1654997 116.0879988 125.1757484 140.5418387 115.4283198
 121.9680012 136.6274997 110.2109988 121.0570012 136.6844997 110.4999988
 122.4740012 136.5674997 111.0219988 121.9116899 136.6271941 110.3601184
 116.7970012 138.2564997 109.0379988 115.9070012 138.3564997 108.6979988
 117.0930012 137.4144997 108.6919988 116.7152823 138.1563545 108.9447213
 120.4500012 138.2564997 106.6949988 121.3810012 138.3854997 106.8729988
 120.2350012 138.9264997 106.0449988 120.5484247 138.3646565 106.6315747
 126.3730012 135.8624997 113.4759988 125.6970012 135.9934997 114.1399988
 125.8880012 135.7074997 112.6649988 126.2147146 135.8595157 113.4574469
 119.1240012 139.4514997 104.2609988 118.5810012 139.0714997 103.5699988
 119.9570012 139.6454997 103.8329988 119.1623631 139.4257125 104.1084501
 117.2590012 144.0084997 119.3599988 117.9910012 144.2624997 119.9219988
 116.4790012 144.2124997 119.8759988 117.2537073 144.0708160 119.5066151
 123.2880012 139.4154997 112.0979988 123.8530012 138.8684997 111.5509988
 123.1410012 138.8934997 112.8869988 123.3453380 139.2702259 112.1298695
 118.2900012 135.5514997 108.5169988 117.9730012 134.6494997 108.4809988
 119.0720012 135.5534997 107.9639988 118.3522408 135.4282474 108.4373569
 121.9150012 137.8034997 114.5119988 121.0790012 138.2574997 114.6229988
 122.4390012 138.0794997 115.2639988 121.8715416 137.9028660 114.6288119
 122.4590012 144.0164997 106.1969988 121.7140012 143.5094997 105.8749988
 122.3250012 144.0654997 107.1439988 122.3388776 143.9536940 106.2808647
 129.6090012 143.1494997 114.9839988 130.2510012 143.6064997 114.4399988
 128.7790012 143.2624997 114.5209988 129.5845963 143.2272704 114.8470177
 126.3570012 136.8304997 104.3959988 125.4180012 136.9424997 104.2449988
 126.6540012 137.6874997 104.7029988 126.2687583 136.9615981 104.4168337
 123.9780012 144.2004997 117.4339988 123.6330012 143.8194997 118.2409988
 123.7780012 145.1344997 117.5049988 123.9037527 144.2745135 117.5540689
 127.0750012 138.6974997 106.0569988 127.9670012 138.5604997 106.3759988
 127.1320012 139.4884997 105.5199988 127.2046504 138.7856052 106.0280818
 117.5840012 143.3114997 111.9669988 118.3290012 143.3094997 111.3659988
 117.6620012 142.4884997 112.4479988 117.6964995 143.1998887 111.9498282
 114.5920012 141.7724997 117.2819988 114.8150012 141.3544997 118.1139988
 113.9900012 141.1594997 116.8589988 114.5411759 141.6324668 117.3387022
 121.6080012 141.2894997 119.4949988 121.3120012 141.1234997 118.5999988
 122.5400012 141.0694997 119.4839988 121.6934166 141.2370640 119.3710536
 131.9600012 138.9074997 105.7519988 131.4060012 138.5114997 105.0799988
 132.0600012 139.8174997 105.4739988 131.8977059 138.9763586 105.6224401
 131.9230012 144.7074997 118.5889988 131.0720012 144.9454997 118.2219988
 132.5140012 144.6904997 117.8359988 131.8862487 144.7378258 118.4368893
 127.4160012 142.5014997 113.2379988 126.4870012 142.2694997 113.2109988
 127.8670012 141.7244997 112.9079988 127.3499216 142.3647238 113.1896917
 121.3860012 144.4924997 108.9469988 121.1450012 145.4174997 108.9889988
 120.6450012 144.0334997 109.3439988 121.2529225 144.5570933 109.0063742
 125.4450012 144.7404997 114.9629988 125.0190012 144.5134997 115.7899988
 126.0250012 144.0024997 114.7809988 125.4651868 144.6095299 115.0515830
 116.2260012 136.5254997 116.8399988 115.3330012 136.8644997 116.7719988
 116.1270012 135.6704997 117.2579988 116.0904164 136.4562588 116.8872235
 128.5140012 144.3424997 106.2639988 128.2360012 143.6144997 106.8199988
 129.4410012 144.4614997 106.4689988 128.6013124 144.2588802 106.3678845
 124.9600012 136.2664997 115.7299988 125.6590012 136.3404997 116.3799988
 124.5790012 135.4024997 115.8839988 125.0041767 136.1597624 115.8398322
 125.7450012 135.9184997 106.8269988 125.9650012 136.3904997 106.0239988
 126.3030012 136.3134997 107.4969988 125.8504968 136.0364285 106.8077331
 122.9450012 137.6464997 107.6619988 123.7570012 138.1514997 107.7079988
 122.7000012 137.5014997 108.5759988 123.0230520 137.6960375 107.7918517
 123.4800012 138.6324997 116.8459988 123.5990012 139.2064997 117.6039988
 124.1360012 137.9444997 116.9609988 123.5849025 138.6179858 116.9651321
 123.8280012 134.7274997 108.5999988 123.4820012 135.3454997 109.2439988
 124.4870012 135.2284997 108.1179988 123.8696968 134.8796278 108.6229383
 119.4860012 135.7904997 105.2869988 119.4030012 136.6794997 105.6339988
 120.3760012 135.5254997 105.5189988 119.5949469 135.8761430 105.3657626
 129.6850012 136.5394997 117.6809988 128.7680012 136.8024997 117.5939988
 130.0200012 136.5364997 116.7849988 129.6048613 136.5750761 117.5478837
 128.2870012 140.2904997 111.7769988 127.4890012 139.8754997 111.4489988
 128.7320012 139.5994997 112.2679988 128.2379885 140.1403543 111.7984889
 116.8690012 133.6644997 112.1369988 116.6400012 133.7234997 111.2089988
 116.4260012 132.8724997 112.4429988 116.7778530 133.5655753 112.0514786
 114.9940012 144.0274997 120.5809988 115.1380012 143.1254997 120.2949988
 114.2220012 144.3134997 120.0939988 114.9092753 143.9426816 120.4759505
 121.6500012 143.9974997 120.0139988 121.3210012 144.2684997 119.1569988
 121.8020012 143.0564997 119.9269988 121.6254809 143.9073862 119.8848244
 127.3840012 143.9134997 117.3969988 128.1300012 144.5014997 117.2779988
 126.6270012 144.4954997 117.4609988 127.3837820 144.0727143 117.3893590
 115.8270012 141.2274997 120.0009988 116.2350012 140.3704997 119.8799988
 115.5670012 141.2424997 120.9219988 115.8477568 141.1120807 120.1089588
 120.4850012 142.3434997 105.0199988 120.0250012 141.8594997 105.7059988
 120.7400012 141.6754997 104.3839988 120.4564902 142.1868731 105.0279334
 119.7740012 140.2364997 117.3759988 119.1560012 140.9114997 117.6559988
 120.1180012 140.5574997 116.5419988 119.7359132 140.3722411 117.3016262
 124.7940012 142.7084997 120.6529988 125.7470012 142.7914997 120.6259988
 124.6330012 141.9964997 121.2729988 124.9026426 142.6236746 120.7330579
 120.1130012 137.5914997 118.4579988 120.2630012 136.8624997 117.8559988
 120.1160012 138.3684997 117.8989988 120.1339302 137.5967851 118.3000692
 120.5260012 135.9614997 115.9509988 121.0620012 136.4124997 115.2989988
 119.6740012 135.8534997 115.5279988 120.4842178 136.0086390 115.8045756
 122.1080012 141.4004997 116.1899988 122.8580012 141.2444997 115.6169988
 121.7690012 142.2524997 115.9149988 122.1648921 141.4942968 116.0743561
 126.5230012 139.2154997 121.2189988 126.7160012 138.2844997 121.1069988
 127.3810012 139.6404997 121.2079988 126.6652934 139.1456531 121.2022031
 127.8400012 142.0044997 119.2959988 127.5590012 142.7134997 118.7179988
 128.7830012 141.9314997 119.1449988 127.9289291 142.0916711 119.1964967
 118.5920012 138.7894997 120.3699988 117.8250012 138.2574997 120.1589988
 119.2710012 138.4794997 119.7699988 118.5787877 138.6748300 120.2600716
 121.3320012 133.4174997 116.3819988 121.2330012 134.3644997 116.2769988
 120.5890012 133.0454997 115.9059988 121.2181184 133.4965863 116.3033621
 122.5960012 137.7394997 119.9459988 122.3600012 137.5194997 120.8469988
 121.8120012 137.5324997 119.4359988 122.4578504 137.6814586 120.0003431
 125.3110012 136.8664997 119.0209988 124.3640012 136.8984997 119.1539988
 125.6240012 136.2414997 119.6749988 125.2236707 136.7863998 119.1276060
 126.9450012 135.5004997 121.0269988 126.8490012 134.5484997 121.0209988
 126.6240012 135.7694997 121.8869988 126.8884070 135.4064035 121.1425441
 116.7720012 136.7104997 120.0739988 116.9840012 136.0034997 119.4639988
 116.6610012 136.2724997 120.9179988 116.7859721 136.5547084 120.1046843
 121.5530012 132.7114997 119.0529988 122.2650012 132.0714997 119.0389988
 121.4520012 132.9784997 118.1399988 121.6368066 132.6600079 118.9275677
 121.9070012 134.3944997 121.1069988 121.7750012 133.9184997 120.2869988
 121.3080012 135.1384997 121.0519988 121.8079071 134.4299618 120.9872886
 131.4040012 143.8104997 106.7029988 132.2540012 144.2314997 106.8299988
 131.4100012 143.0704997 107.3099988 131.5211372 143.7680803 106.8024344
 131.7990012 141.8634997 108.5259988 131.0720012 141.3844997 108.9239988
 132.3800012 142.0694997 109.2589988 131.7780473 141.8258103 108.6794528
 131.5580012 144.6484997 113.4739988 132.3910012 144.2704997 113.1939988
 131.6700012 145.5914997 113.3549988 131.6872647 144.7242218 113.4195487
 132.0670012 141.7644997 104.9179988 131.5450012 142.1214997 104.1989988
 132.0340012 142.4394997 105.5959988 131.9911634 141.9045413 104.9113145
 130.4160012 139.0044997 103.4679988 130.5120012 139.6714997 102.7879988
 130.2760012 138.1884997 102.9869988 130.4102272 138.9855655 103.3098347
 129.5850012 140.3844997 109.0889988 129.4350012 139.4394997 109.0689988
 129.2320012 140.6654997 109.9329988 129.5167448 140.2931481 109.2003705
 114.6210012 142.4624997 113.0999988 114.8050012 142.3804997 112.1639988
 115.4700012 142.3384997 113.5229988 114.7610151 142.4345073 113.0291451
 130.4420012 142.3544997 118.7279988 131.0250012 141.6204997 118.9199988
 131.0060012 143.1264997 118.7749988 130.5979769 142.3584227 118.7606159
 131.9380012 140.2574997 119.4129988 131.0750012 139.8784997 119.2469988
 132.5430012 139.5184997 119.3379988 131.9016119 140.1058268 119.3801528
 129.2960012 137.9674997 107.5519988 129.5760012 137.0604997 107.6759988
 130.0550012 138.4014997 107.1629988 129.4369277 137.9020942 107.5163682
 129.9080012 138.5484997 112.9879988 130.8410012 138.7604997 112.9529988
 129.6730012 138.6504997 113.9099988 130.0039244 138.5913100 113.1078892
 129.9370012 139.2854997 115.7639988 129.0940012 139.5534997 116.1299988
 130.3790012 140.1074997 115.5529988 129.8814158 139.4333291 115.7855491
 114.2180012 137.7334997 119.2409988 115.1380012 137.6114997 119.4769988
 113.7690012 136.9834997 119.6299988 114.2831580 137.6153727 119.3259006
 132.2200012 133.2654997 121.1169988 132.5700012 132.6114997 120.5119988
 132.3670012 134.1024997 120.6769988 132.2877887 133.2891548 120.9746858
 129.9090012 135.2304997 107.5999988 130.0920012 134.7814997 108.4259988
 129.3100012 134.6454997 107.1369988 129.8530202 135.0899975 107.6503275
 115.4390012 136.0454997 112.1319988 115.8850012 135.2534997 112.4339988
 115.9060012 136.7614997 112.5619988 115.5630831 136.0340685 112.2314006
 113.7430012 139.0444997 113.2009988 114.2350012 138.8234997 112.4099988
 114.1060012 139.8854997 113.4819988 113.8593126 139.1278357 113.1307531
 131.7400012 135.3744997 119.4659988 130.8220012 135.6454997 119.4309988
 131.8630012 134.8394997 118.6819988 131.6309729 135.3392508 119.3551923
 114.0570012 135.3024997 107.2549988 113.1320012 135.5114997 107.1259988
 114.5110012 135.7864997 106.5649988 113.9917292 135.3965343 107.1440720
 114.0210012 134.0404997 115.5989988 113.3560012 133.7944997 116.2429988
 113.5780012 134.6624997 115.0219988 113.8701318 134.0909410 115.6090898
 130.7400012 133.4644997 117.2849988 129.9280012 133.7894997 116.8979988
 130.9730012 132.7044997 116.7519988 130.6602203 133.4062758 117.1598880
 124.1700012 134.9134997 111.6079988 123.4960012 134.2844997 111.8639988
 124.7340012 134.4294997 111.0049988 124.1539230 134.7618744 111.5615340
 129.3130012 133.0214997 111.7209988 129.9170012 133.5684997 111.2189988
 128.4430012 133.3404997 111.4799988 129.2781208 133.1395137 111.6196886
 131.0400012 134.1594997 110.0539988 131.6520012 133.6454997 109.5269988
 131.4220012 135.0374997 110.0769988 131.1753371 134.2077866 109.9850041
 116.4970012 133.5474997 109.4299988 115.7200012 133.3134997 108.9229988
 117.0270012 132.7504997 109.4389988 116.4622330 133.4076988 109.3617742
 115.3330012 133.3454997 105.2339988 115.7720012 133.9564997 104.6419988
 114.7000012 133.8834997 105.7079988 115.3074514 133.5019257 105.2170930
 121.0760012 133.4744997 109.2439988 121.9510012 133.8624997 109.2139988
 120.9400012 133.2594997 110.1659988 121.1773695 133.4985184 109.3646440
 126.6330012 133.5044997 110.8929988 126.7090012 133.5994997 109.9429988
 126.3580012 132.5964997 111.0219988 126.6062321 133.3947867 110.7805079
 127.9860012 133.5304997 106.5849988 127.2840012 134.1454997 106.3749988
 127.5420012 132.6924997 106.7159988 127.8296450 133.5015639 106.5739000
 122.2200012 135.5544997 106.1329988 122.3980012 134.9084997 106.8159988
 122.1670012 136.3884997 106.5999988 122.2371999 135.5788009 106.2895917
 116.4550012 134.0614997 118.9479988 116.0890012 133.2964997 119.3899988
 117.3680012 134.0904997 119.2339988 116.5282736 133.9605640 119.0472502
 118.4280012 133.4124997 120.4839988 119.3260012 133.1384997 120.2989988
 118.0410012 132.6694997 120.9479988 118.4986612 133.2745914 120.5213643
 126.8490012 132.7444997 120.6659988 126.9260012 132.3184997 121.5199988
 127.7430012 132.7584997 120.3229988 126.9803428 132.6880880 120.7365310
 144.4310012 142.7034997 109.3889988 144.5200012 143.6474997 109.2569988
 143.7930012 142.4284997 108.7309988 144.3569081 142.7954830 109.2819614
 143.3640012 141.9584997 112.8079988 143.3260012 141.3124997 113.5129988
 143.0420012 141.4924997 112.0369988 143.3152333 141.8069408 112.8002978
 135.7330012 141.5734997 114.4009988 135.7740012 140.9474997 115.1239988
 136.4360012 142.1974997 114.5829988 135.8336363 141.5721196 114.5246044
 133.2660012 139.6834997 108.3289988 132.8190012 140.5294997 108.3099988
 132.7050012 139.1034997 107.8129988 133.1289900 139.7209916 108.2566801
 133.9770012 141.8454997 110.4539988 134.1900012 141.0754997 110.9819988
 134.7150012 141.9344997 109.8509988 134.1059044 141.7521968 110.4447123
 141.7540012 144.3914997 113.2139988 142.0580012 143.7054997 112.6189988
 142.4750012 144.5094997 113.8319988 141.8930671 144.3136305 113.2161816
 144.8950012 138.7854997 113.5409988 145.0370012 137.8394997 113.5619988
 144.7880012 138.9924997 112.6129988 144.8999919 138.6838246 113.4183408
 138.0490012 136.8864997 110.8139988 138.0930012 137.7464997 110.3949988
 137.5920012 136.3344997 110.1799988 137.9932240 136.9294422 110.6709864
 134.6700012 139.2834997 111.5759988 135.3230012 138.7334997 112.0079988
 134.6940012 139.0094997 110.6589988 134.7626683 139.1711466 111.5112123
 139.8260012 140.8334997 110.7909988 140.4420012 140.3074997 111.3009988
 139.2400012 140.1934997 110.3879988 139.8310810 140.6749208 110.8063173
 136.8600012 135.8044997 114.8879988 136.6410012 136.3344997 114.1219988
 136.1920012 136.0314997 115.5349988 136.7397600 135.9076906 114.8706379
 139.4290012 143.4804997 115.1749988 138.6890012 144.0784997 115.2789988
 140.1430012 144.0344997 114.8599988 139.4242237 143.6372831 115.1466465
 136.4530012 137.6964997 112.8399988 137.0670012 138.3294997 113.2129988
 136.9650012 137.2244997 112.1839988 136.6061981 137.7192267 112.8022908
 140.8860012 133.1104997 112.3399988 140.7690012 132.1614997 112.2859988
 140.0310012 133.4424997 112.6139988 140.7544212 133.0255571 112.3696497
 143.1530012 141.9474997 106.8409988 142.4410012 142.4824997 106.4889988
 143.8440012 142.0034997 106.1809988 143.1490132 142.0282543 106.7036289
 138.2040012 142.7874997 109.6749988 137.8730012 142.4174997 108.8569988
 138.7920012 142.1174997 110.0219988 138.2381873 142.6461156 109.6098102
 138.5700012 141.5564997 113.3089988 139.1360012 141.6774997 112.5459988
 138.8890012 142.1934997 113.9469988 138.6905474 141.6592219 113.2909862
 136.3700012 142.1534997 117.2539988 136.4410012 142.8044997 117.9529988
 135.4800012 142.2564997 116.9189988 136.2593005 142.2565427 117.3043495
 137.1940012 141.8574997 107.2639988 136.9020012 142.6254997 106.7739988
 136.5200012 141.1974997 107.1019988 137.0628111 141.8735587 107.1748978
 133.2870012 144.2204997 116.0789988 132.7860012 144.1924997 115.2639988
 133.2920012 143.3144997 116.3889988 133.2190944 144.0942396 116.0093226
 138.1550012 134.0134997 113.1179988 137.2930012 133.9264997 112.7099988
 138.1320012 134.8694997 113.5459988 138.0340409 134.1172883 113.1200589
 142.8180012 133.7354997 116.4929988 143.2380012 133.3204997 117.2459988
 141.8850012 133.5574997 116.6099988 142.7493644 133.6545900 116.6119539
 142.4790012 136.2284997 103.7779988 142.2260012 136.2474997 104.7009988
 142.2230012 135.3564997 103.4759988 142.4097481 136.1132558 103.8636175
 138.2460012 138.9794997 114.2129988 137.6040012 138.9384997 114.9219988
 138.2830012 139.9054997 113.9749988 138.1630664 139.0991430 114.2779219
 138.2430012 139.2004997 109.1249988 137.3500012 138.8594997 109.0659988
 138.6930012 138.8234997 108.3689988 138.1818130 139.1029631 109.0147702
 143.7780012 139.6164997 107.9419988 143.3690012 140.4314997 107.6509988
 144.4990012 139.4764997 107.3279988 143.8194537 139.7092018 107.8191342
 142.8800012 139.7914997 119.4299988 142.3180012 139.0874997 119.7509988
 143.7070012 139.6714997 119.8979988 142.9147095 139.6787883 119.5372330
 144.7830012 139.0624997 110.7559988 144.5880012 139.6674997 110.0409988
 144.9640012 138.2284997 110.3219988 144.7807614 139.0326300 110.5994405
 135.9960012 139.2994997 116.0799988 135.9580012 139.6994997 116.9489988
 135.5050012 138.4824997 116.1709988 135.9244684 139.2438069 116.2111059
 132.6040012 136.4154997 109.9309988 133.2350012 136.3864997 110.6499988
 133.0530012 135.9904997 109.1999988 132.7510918 136.3540836 109.9306441
 133.8780012 137.1614997 105.3549988 134.3520012 137.7524997 104.7699988
 133.1610012 137.6924997 105.7019988 133.8459341 137.3140867 105.3218836
 144.0470012 140.7004997 115.4269988 144.3700012 140.0694997 114.7839988
 143.6070012 140.1654997 116.0879988 144.0317484 140.5418387 115.4283198
 140.8240012 136.6274997 110.2109988 139.9130012 136.6844997 110.4999988
 141.3300012 136.5674997 111.0219988 140.7676899 136.6271941 110.3601184
 135.6530012 138.2564997 109.0379988 134.7630012 138.3564997 108.6979988
 135.9490012 137.4144997 108.6919988 135.5712823 138.1563546 108.9447213
 139.3060012 138.2564997 106.6949988 140.2370012 138.3854997 106.8729988
 139.0910012 138.9264997 106.0449988 139.4044247 138.3646565 106.6315747
 136.1150012 144.0084997 119.3599988 136.8470012 144.2624997 119.9219988
 135.3350012 144.2124997 119.8759988 136.1097073 144.0708160 119.5066151
 142.1440012 139.4154997 112.0979988 142.7090012 138.8684997 111.5509988
 141.9970012 138.8934997 112.8869988 142.2013380 139.2702259 112.1298695
 137.1460012 135.5514997 108.5169988 136.8290012 134.6494997 108.4809988
 137.9280012 135.5534997 107.9639988 137.2082408 135.4282474 108.4373569
 140.7710012 137.8034997 114.5119988 139.9350012 138.2574997 114.6229988
 141.2950012 138.0794997 115.2639988 140.7275416 137.9028660 114.6288119
 141.3150012 144.0164997 106.1969988 140.5700012 143.5094997 105.8749988
 141.1810012 144.0654997 107.1439988 141.1948776 143.9536940 106.2808647
 142.8340012 144.2004997 117.4339988 142.4890012 143.8194997 118.2409988
 142.6340012 145.1344997 117.5049988 142.7597527 144.2745135 117.5540689
 136.4400012 143.3114997 111.9669988 137.1850012 143.3094997 111.3659988
 136.5180012 142.4884997 112.4479988 136.5524995 143.1998887 111.9498282
 133.4480012 141.7724997 117.2819988 133.6710012 141.3544997 118.1139988
 132.8460012 141.1594997 116.8589988 133.3971759 141.6324668 117.3387022
 140.4640012 141.2894997 119.4949988 140.1680012 141.1234997 118.5999988
 141.3960012 141.0694997 119.4839988 140.5494166 141.2370640 119.3710536
 134.5700012 141.6914997 103.9579988 135.1860012 142.3184997 104.3379988
 133.7080012 142.0074997 104.2299988 134.5377698 141.8199430 104.0467183
 140.2420012 144.4924997 108.9469988 140.0010012 145.4174997 108.9889988
 139.5010012 144.0334997 109.3439988 140.1089225 144.5570933 109.0063742
 144.3010012 144.7404997 114.9629988 143.8750012 144.5134997 115.7899988
 144.8810012 144.0024997 114.7809988 144.3211868 144.6095299 115.0515830
 135.0820012 136.5254997 116.8399988 134.1890012 136.8644997 116.7719988
 134.9830012 135.6704997 117.2579988 134.9464164 136.4562588 116.8872235
 135.9850012 143.6044997 105.4509988 135.2990012 143.9564997 106.0179988
 136.5070012 144.3674997 105.2039988 135.9616852 143.7558578 105.4952118
 143.8160012 136.2664997 115.7299988 144.5150012 136.3404997 116.3799988
 143.4350012 135.4024997 115.8839988 143.8601767 136.1597624 115.8398322
 144.6010012 135.9184997 106.8269988 144.8210012 136.3904997 106.0239988
 145.1590012 136.3134997 107.4969988 144.7064968 136.0364285 106.8077331
 141.8010012 137.6464997 107.6619988 142.6130012 138.1514997 107.7079988
 141.5560012 137.5014997 108.5759988 141.8790520 137.6960375 107.7918517
 142.3360012 138.6324997 116.8459988 142.4550012 139.2064997 117.6039988
 142.9920012 137.9444997 116.9609988 142.4409025 138.6179858 116.9651321
 142.6840012 134.7274997 108.5999988 142.3380012 135.3454997 109.2439988
 143.3430012 135.2284997 108.1179988 142.7256968 134.8796278 108.6229383
 138.3420012 135.7904997 105.2869988 138.2590012 136.6794997 105.6339988
 139.2320012 135.5254997 105.5189988 138.4509469 135.8761430 105.3657626
 134.9170012 138.8824997 103.4639988 134.8720012 139.8214997 103.6419988
 134.0290012 138.6464997 103.1939988 134.7908574 138.9791892 103.4518912
 135.7250012 133.6644997 112.1369988 135.4960012 133.7234997 111.2089988
 135.2820012 132.8724997 112.4429988 135.6338530 133.5655753 112.0514786
 133.8500012 144.0274997 120.5809988 133.9940012 143.1254997 120.2949988
 133.0780012 144.3134997 120.0939988 133.7652753 143.9426816 120.4759505
 138.1920012 144.3714997 102.7139988 138.2560012 143.5774997 103.2449988
 138.8450012 144.2524997 102.0239988 138.2890241 144.2467148 102.6934317
 140.5060012 143.9974997 120.0139988 140.1770012 144.2684997 119.1569988
 140.6580012 143.0564997 119.9269988 140.4814809 143.9073862 119.8848244
 134.6830012 141.2274997 120.0009988 135.0910012 140.3704997 119.8799988
 134.4230012 141.2424997 120.9219988 134.7037568 141.1120807 120.1089588
 139.3410012 142.3434997 105.0199988 138.8810012 141.8594997 105.7059988
 139.5960012 141.6754997 104.3839988 139.3124902 142.1868731 105.0279334
 138.6300012 140.2364997 117.3759988 138.0120012 140.9114997 117.6559988
 138.9740012 140.5574997 116.5419988 138.5919132 140.3722411 117.3016262
 143.6500012 142.7084997 120.6529988 144.6030012 142.7914997 120.6259988
 143.4890012 141.9964997 121.2729988 143.7586426 142.6236746 120.7330579
 138.9690012 137.5914997 118.4579988 139.1190012 136.8624997 117.8559988
 138.9720012 138.3684997 117.8989988 138.9899302 137.5967851 118.3000692
 139.3820012 135.9614997 115.9509988 139.9180012 136.4124997 115.2989988
 138.5300012 135.8534997 115.5279988 139.3402178 136.0086390 115.8045756
 140.9640012 141.4004997 116.1899988 141.7140012 141.2444997 115.6169988
 140.6250012 142.2524997 115.9149988 141.0208921 141.4942968 116.0743561
 137.4480012 138.7894997 120.3699988 136.6810012 138.2574997 120.1589988
 138.1270012 138.4794997 119.7699988 137.4347877 138.6748300 120.2600716
 140.1880012 133.4174997 116.3819988 140.0890012 134.3644997 116.2769988
 139.4450012 133.0454997 115.9059988 140.0741184 133.4965863 116.3033621
 141.4520012 137.7394997 119.9459988 141.2160012 137.5194997 120.8469988
 140.6680012 137.5324997 119.4359988 141.3138504 137.6814586 120.0003431
 144.1670012 136.8664997 119.0209988 143.2200012 136.8984997 119.1539988
 144.4800012 136.2414997 119.6749988 144.0796707 136.7863998 119.1276060
 135.6280012 136.7104997 120.0739988 135.8400012 136.0034997 119.4639988
 135.5170012 136.2724997 120.9179988 135.6419721 136.5547084 120.1046843
 140.4090012 132.7114997 119.0529988 141.1210012 132.0714997 119.0389988
 140.3080012 132.9784997 118.1399988 140.4928066 132.6600079 118.9275677
 140.7630012 134.3944997 121.1069988 140.6310012 133.9184997 120.2869988
 140.1640012 135.1384997 121.0519988 140.6639071 134.4299618 120.9872886
 133.4770012 142.4624997 113.0999988 133.6610012 142.3804997 112.1639988
 134.3260012 142.3384997 113.5229988 133.6170151 142.4345073 113.0291451
 133.0740012 137.7334997 119.2409988 133.9940012 137.6114997 119.4769988
 132.6250012 136.9834997 119.6299988 133.1391580 137.6153727 119.3259006
 134.2950012 136.0454997 112.1319988 134.7410012 135.2534997 112.4339988
 134.7620012 136.7614997 112.5619988 134.4190831 136.0340685 112.2314006
 132.5990012 139.0444997 113.2009988 133.0910012 138.8234997 112.4099988
 132.9620012 139.8854997 113.4819988 132.7153126 139.1278357 113.1307531
 132.9130012 135.3024997 107.2549988 131.9880012 135.5114997 107.1259988
 133.3670012 135.7864997 106.5649988 132.8477292 135.3965343 107.1440720
 132.8770012 134.0404997 115.5989988 132.2120012 133.7944997 116.2429988
 132.4340012 134.6624997 115.0219988 132.7261318 134.0909410 115.6090898
 143.0260012 134.9134997 111.6079988 142.3520012 134.2844997 111.8639988
 143.5900012 134.4294997 111.0049988 143.0099230 134.7618744 111.5615340
 135.3530012 133.5474997 109.4299988 134.5760012 133.3134997 108.9229988
 135.8830012 132.7504997 109.4389988 135.3182330 133.4076988 109.3617742
 134.1890012 133.3454997 105.2339988 134.6280012 133.9564997 104.6419988
 133.5560012 133.8834997 105.7079988 134.1634514 133.5019257 105.2170930
 139.9320012 133.4744997 109.2439988 140.8070012 133.8624997 109.2139988
 139.7960012 133.2594997 110.1659988 140.0333695 133.4985184 109.3646440
 136.0500012 135.2614997 103.6759988 136.5420012 134.6314997 103.1489988
 136.6740012 135.5574997 104.3389988 136.2015688 135.2153804 103.6935482
 141.0760012 135.5544997 106.1329988 141.2540012 134.9084997 106.8159988
 141.0230012 136.3884997 106.5999988 141.0931999 135.5788009 106.2895917
 135.3110012 134.0614997 118.9479988 134.9450012 133.2964997 119.3899988
 136.2240012 134.0904997 119.2339988 135.3842736 133.9605640 119.0472502
 137.2840012 133.4124997 120.4839988 138.1820012 133.1384997 120.2989988
 136.8970012 132.6694997 120.9479988 137.3546612 133.2745914 120.5213643
  12.4390012  10.7114997 128.2449988  12.5280012  11.6554997 128.1129988
  11.8010012  10.4364997 127.5869988  12.3649081  10.8034830 128.1379614
  11.3720012   9.9664997 131.6639988  11.3340012   9.3204997 132.3689988
  11.0500012   9.5004997 130.8929988  11.3232333   9.8149408 131.6562978
   3.7410012   9.5814997 133.2569988   3.7820012   8.9554997 133.9799988
   4.4440012  10.2054997 133.4389988   3.8416363   9.5801196 133.3806044
  15.0780012  12.9054997 129.9649988  14.6380012  12.1854997 130.4159988
  15.0650012  13.6264997 130.5949988  15.0160226  12.9043731 130.1118494
   4.6640012  14.0314997 131.7919988   4.2950012  13.2294997 131.4219988
   5.6050012  13.8624997 131.8379988   4.7407289  13.8990153 131.7476316
   1.2740012   7.6914997 127.1849988   0.8270012   8.5374997 127.1659988
   0.7130012   7.1114997 126.6689988   1.1369900   7.7289916 127.1126801
   1.9850012   9.8534997 129.3099988   2.1980012   9.0834997 129.8379988
   2.7230012   9.9424997 128.7069988   2.1139044   9.7601968 129.3007123
  12.1900012  18.0104997 130.1769988  12.8100012  17.3334997 129.9039988
  11.9820012  17.7924997 131.0859988  12.2466726  17.8884800 130.2624812
   9.7620012  12.3994997 132.0699988  10.0660012  11.7134997 131.4749988
  10.4830012  12.5174997 132.6879988   9.9010671  12.3216304 132.0721816
  18.4250012   4.0004997 132.9309988  18.4740012   4.6104997 133.6659988
  18.8500012   4.4614997 132.2079988  18.4891746   4.1463796 132.9339175
  12.9030012   6.7934997 132.3969988  13.0450012   5.8474997 132.4179988
  12.7960012   7.0004997 131.4689988  12.9079919   6.6918246 132.2743408
   6.0570012   4.8944997 129.6699988   6.1010012   5.7544997 129.2509988
   5.6000012   4.3424997 129.0359988   6.0012240   4.9374422 129.5269864
  13.7800012   5.0254997 128.0709988  14.4260012   4.6964997 128.6949988
  14.2900012   5.5434997 127.4479988  13.9374299   5.0504450 128.0722731
   2.6780012   7.2914997 130.4319988   3.3310012   6.7414997 130.8639988
   2.7020012   7.0174997 129.5149988   2.7706683   7.1791466 130.3672123
   7.8340012   8.8414997 129.6469988   8.4500012   8.3154997 130.1569988
   7.2480012   8.2014997 129.2439988   7.8390810   8.6829208 129.6623173
  18.8160012   5.4784997 135.1659988  18.1280012   6.1364997 135.0709988
  18.8320012   5.2814997 136.1029988  18.7239540   5.5419819 135.2795990
   4.8680012   3.8124997 133.7439988   4.6490012   4.3424997 132.9779988
   4.2000012   4.0394997 134.3909988   4.7477600   3.9156906 133.7266379
  12.2370012  13.3124997 127.2879988  11.9410012  12.9904997 126.4369988
  11.9120012  14.2124997 127.3289988  12.1526371  13.3900215 127.1771801
   7.4370012  11.4884997 134.0309988   6.6970012  12.0864997 134.1349988
   8.1510012  12.0424997 133.7159988   7.4322237  11.6452831 134.0026465
  15.5440012   4.3164997 130.0509988  15.3280012   3.5504997 130.5839988
  16.1990012   4.7884997 130.5639988  15.6030632   4.2755889 130.1932861
   4.4610012   5.7044997 131.6959988   5.0750012   6.3374997 132.0689988
   4.9730012   5.2324997 131.0399988   4.6141981   5.7272267 131.6582908
   5.8440012  13.4524997 134.8179988   5.8390012  14.3324997 134.4399988
   4.9910012  13.3694997 135.2429988   5.7279464  13.5616117 134.8237907
   1.9650012  13.1234997 125.5999988   1.6930012  13.3524997 124.7119988
   2.0110012  13.9614997 126.0609988   1.9339482  13.2681318 125.5406273
  15.5900012  14.7454997 132.3129988  14.6490012  14.8034997 132.4749988
  15.8670012  15.6514997 132.1759988  15.4984679  14.8759443 132.3166815
  15.8910012   3.0314997 133.7309988  15.1550012   3.6424997 133.6929988
  16.5740012   3.4464997 133.2039988  15.8826541   3.1711374 133.6545832
   8.8940012   1.1184997 131.1959988   8.7770012   0.1694997 131.1419988
   8.0390012   1.4504997 131.4699988   8.7624212   1.0335571 131.2256497
  13.8420012  16.5264997 128.9379988  14.2680012  15.8194997 128.4529988
  14.1590012  17.3274997 128.5219988  13.9431683  16.5381017 128.8153680
  15.0020012  14.4274997 127.4469988  14.7440012  13.7374997 126.8359988
  15.0730012  13.9844997 128.2929988  14.9762856  14.2732124 127.4776885
  16.6880012  12.9934997 135.9239988  16.8280012  12.4024997 135.1849988
  16.8550012  13.8664997 135.5679988  16.7297411  13.0305428 135.7746894
  11.1610012   9.9554997 125.6969988  10.4490012  10.4904997 125.3449988
  11.8520012  10.0114997 125.0369988  11.1570132  10.0362543 125.5596289
  11.2140012   8.4134997 122.7359988  11.9150012   8.4354997 123.3869988
  11.5170012   7.7854997 122.0789988  11.3508133   8.3317070 122.7363369
  18.5300012   9.3334997 133.9899988  17.8770012  10.0284997 134.0799988
  18.9950012   9.5434997 133.1809988  18.5035274   9.4570643 133.8928462
  14.5660012  10.1654997 126.6489988  13.8340012  10.3934997 127.2219988
  15.0140012   9.4514997 127.1029988  14.5262725  10.1002145 126.7888816
  14.4640012   8.3394997 135.7159988  14.5440012   9.1024997 136.2879988
  13.8620012   8.6184997 135.0259988  14.3935756   8.4817134 135.7010589
   6.2120012  10.7954997 128.5309988   5.8810012  10.4254997 127.7129988
   6.8000012  10.1254997 128.8779988   6.2461873  10.6541156 128.4658102
   7.5780012  14.2234997 131.2119988   7.4840012  13.6454997 130.4559988
   8.3080012  13.8524997 131.7089988   7.6637387  14.0941663 131.1755342
   6.5780012   9.5644997 132.1649988   7.1440012   9.6854997 131.4019988
   6.8970012  10.2014997 132.8029988   6.6985474   9.6672219 132.1469862
  12.8870012  15.0674997 132.8989988  12.6470012  15.7294997 133.5469988
  12.6890012  14.2334997 133.3239988  12.8273808  15.0453134 133.0451524
   7.4580012  13.9634997 136.8819988   7.1470012  14.7454997 137.3369988
   6.8080012  13.8104997 136.1959988   7.3275558  14.0499105 136.8515871
  13.4370012   9.3274997 124.3339988  14.0170012   9.4774997 125.0809988
  13.8510012   9.7984997 123.6099988  13.5722997   9.4116578 124.3384058
   4.3780012  10.1614997 136.1099988   4.4490012  10.8124997 136.8089988
   3.4880012  10.2644997 135.7749988   4.2673005  10.2645427 136.1603495
  11.1640012  16.0644997 127.7689988  11.6380012  16.3594997 128.5459988
  10.6010012  16.8024997 127.5359988  11.1528184  16.2047247 127.8439628
   5.6980012  16.0354997 137.6449988   5.7050012  15.8994997 136.6979988
   4.7820012  15.9174997 137.8969988   5.5751714  16.0009430 137.5494666
  17.1360012   1.0774997 124.1469988  16.2360012   1.2164997 124.4419988
  17.3880012   1.9084997 123.7449988  17.0468702   1.2089074 124.1330205
   5.2020012   9.8654997 126.1199988   4.9100012  10.6334997 125.6299988
   4.5280012   9.2054997 125.9579988   5.0708111   9.8815587 126.0308978
  18.3250012  15.4434997 122.5229988  18.3990012  16.3824997 122.6939988
  19.2310012  15.1384997 122.4669988  18.4575100  15.5306722 122.5388119
   1.2950012  12.2284997 134.9349988   0.7940012  12.2004997 134.1199988
   1.3000012  11.3224997 135.2449988   1.2270944  12.1022396 134.8653226
   1.0450012  15.0084997 131.8189988   1.9910012  14.8644997 131.7999988
   0.9330012  15.7924997 132.3559988   1.1592727  15.0948046 131.8890072
  19.2430012  15.6744997 137.5019988  19.1940012  14.7194997 137.4649988
  18.4160012  15.9424997 137.9029988  19.1244940  15.5798998 137.5511375
  10.2220012  15.2484997 136.3779988  10.3090012  16.0744997 136.8529988
   9.3580012  14.9184997 136.6269988  10.1171964  15.3169878 136.4766549
  10.6360012  19.0204997 126.1839988  10.5610012  18.8994997 125.2369988
  10.6690012  19.9704997 126.3019988  10.6302068  19.1322646 126.0704967
   4.2890012  17.8094997 127.9649988   4.4420012  17.4614997 128.8429988
   3.4390012  17.4534997 127.7099988   4.1949166  17.7136216 128.0508079
  13.7380012  18.1744997 123.1859988  14.1130012  17.4304997 122.7149988
  13.7420012  17.9044997 124.1049988  13.7899125  18.0360986 123.2456483
  13.4070012  18.1004997 125.9349988  12.4710012  18.2004997 126.1139988
  13.6870012  17.3914997 126.5139988  13.3169553  18.0183406 126.0377087
  16.3950012   7.1674997 137.9819988  15.9880012   7.6484997 137.2609988
  16.4360012   6.2624997 137.6739988  16.3448437   7.1109374 137.8416683
   3.5440012  13.5514997 135.9789988   3.7600012  13.1904997 136.8379988
   2.6890012  13.1774997 135.7689988   3.4579292  13.4514111 136.0683386
   6.1630012   2.0214997 131.9739988   5.3010012   1.9344997 131.5659988
   6.1400012   2.8774997 132.4019988   6.0420409   2.1252883 131.9760589
  10.8260012   1.7434997 135.3489988  11.2460012   1.3284997 136.1019988
   9.8930012   1.5654997 135.4659988  10.7573644   1.6625900 135.4679539
  14.1520012   5.4994997 136.2019988  13.6380012   5.3734997 136.9999988
  13.9970012   6.4114997 135.9579988  14.0606852   5.6056132 136.2782158
  14.9150012  10.3604997 121.9639988  14.9570012  10.1374997 121.0339988
  15.7640012  10.7594997 122.1529988  15.0355280  10.3839438 121.8623554
  10.4870012   4.2364997 122.6339988  10.2340012   4.2554997 123.5569988
  10.2310012   3.3644997 122.3319988  10.4177481   4.1212558 122.7196175
   6.2540012   6.9874997 133.0689988   5.6120012   6.9464997 133.7779988
   6.2910012   7.9134997 132.8309988   6.1710664   7.1071430 133.1339219
   6.2510012   7.2084997 127.9809988   5.3580012   6.8674997 127.9219988
   6.7010012   6.8314997 127.2249988   6.1898130   7.1109631 127.8707702
  11.7860012   7.6244997 126.7979988  11.3770012   8.4394997 126.5069988
  12.5070012   7.4844997 126.1839988  11.8274537   7.7172018 126.6751342
  10.8880012   7.7994997 138.2859988  10.3260012   7.0954997 138.6069988
  11.7150012   7.6794997 138.7539988  10.9227095   7.6867883 138.3932330
  12.7910012   7.0704997 129.6119988  12.5960012   7.6754997 128.8969988
  12.9720012   6.2364997 129.1779988  12.7887614   7.0406300 129.4554405
   4.0040012   7.3074997 134.9359988   3.9660012   7.7074997 135.8049988
   3.5130012   6.4904997 135.0269988   3.9324684   7.2518069 135.0671059
   7.3700012   4.6814997 121.7349988   6.9390012   4.2364997 122.4649988
   6.6520012   5.0534997 121.2229988   7.2139438   4.6708940 121.7656799
   0.6120012   4.4234997 128.7869988   1.2430012   4.3944997 129.5059988
   1.0610012   3.9984997 128.0559988   0.7590918   4.3620836 128.7866441
   1.8860012   5.1694997 124.2109988   2.3600012   5.7604997 123.6259988
   1.1690012   5.7004997 124.5579988   1.8539341   5.3220867 124.1778836
  12.0550012   8.7084997 134.2829988  12.3780012   8.0774997 133.6399988
  11.6150012   8.1734997 134.9439988  12.0397484   8.5498387 134.2843198
   8.8320012   4.6354997 129.0669988   7.9210012   4.6924997 129.3559988
   9.3380012   4.5754997 129.8779988   8.7756899   4.6351941 129.2161184
   3.6610012   6.2644997 127.8939988   2.7710012   6.3644997 127.5539988
   3.9570012   5.4224997 127.5479988   3.5792823   6.1643545 127.8007213
   7.3140012   6.2644997 125.5509988   8.2450012   6.3934997 125.7289988
   7.0990012   6.9344997 124.9009988   7.4124247   6.3726565 125.4875747
  13.2370012   3.8704997 132.3319988  12.5610012   4.0014997 132.9959988
  12.7520012   3.7154997 131.5209988  13.0787146   3.8675157 132.3134469
   5.9880012   7.4594997 123.1169988   5.4450012   7.0794997 122.4259988
   6.8210012   7.6534997 122.6889988   6.0263631   7.4337125 122.9644501
  16.5250012  19.5424997 138.6079988  16.7250012  19.9664997 137.7739988
  17.1800012  19.8854997 139.2149988  16.6410072  19.6469857 138.5758592
   4.1230012  12.0164997 138.2159988   4.8550012  12.2704997 138.7779988
   3.3430012  12.2204997 138.7319988   4.1177073  12.0788160 138.3626151
  10.1520012   7.4234997 130.9539988  10.7170012   6.8764997 130.4069988
  10.0050012   6.9014997 131.7429988  10.2093380   7.2782259 130.9858695
   5.1540012   3.5594997 127.3729988   4.8370012   2.6574997 127.3369988
   5.9360012   3.5614997 126.8199988   5.2162408   3.4362474 127.2933569
   8.7790012   5.8114997 133.3679988   7.9430012   6.2654997 133.4789988
   9.3030012   6.0874997 134.1199988   8.7355416   5.9108660 133.4848119
   9.3230012  12.0244997 125.0529988   8.5780012  11.5174997 124.7309988
   9.1890012  12.0734997 125.9999988   9.2028776  11.9616940 125.1368647
  16.4730012  11.1574997 133.8399988  17.1150012  11.6144997 133.2959988
  15.6430012  11.2704997 133.3769988  16.4485963  11.2352704 133.7030177
  13.2210012   4.8384997 123.2519988  12.2820012   4.9504997 123.1009988
  13.5180012   5.6954997 123.5589988  13.1327583   4.9695981 123.2728337
  10.8420012  12.2084997 136.2899988  10.4970012  11.8274997 137.0969988
  10.6420012  13.1424997 136.3609988  10.7677527  12.2825135 136.4100689
  13.9390012   6.7054997 124.9129988  14.8310012   6.5684997 125.2319988
  13.9960012   7.4964997 124.3759988  14.0686504   6.7936052 124.8840818
   4.4480012  11.3194997 130.8229988   5.1930012  11.3174997 130.2219988
   4.5260012  10.4964997 131.3039988   4.5604995  11.2078887 130.8058282
  11.4490012  13.4834997 124.0789988  11.1530012  14.3094997 124.4599988
  10.7460012  12.8634997 124.2749988  11.3134914  13.5128199 124.1576443
   1.4560012   9.7804997 136.1379988   1.6790012   9.3624997 136.9699988
   0.8540012   9.1674997 135.7149988   1.4051759   9.6404668 136.1947022
   8.4720012   9.2974997 138.3509988   8.1760012   9.1314997 137.4559988
   9.4040012   9.0774997 138.3399988   8.5574166   9.2450640 138.2270536
  13.0930012  14.6704997 136.2409988  12.1920012  14.8534997 135.9729988
  13.1270012  14.9294997 137.1609988  12.9743139  14.7305849 136.3288099
  18.8240012   6.9154997 124.6079988  18.2700012   6.5194997 123.9359988
  18.9240012   7.8254997 124.3299988  18.7617059   6.9843586 124.4784401
  18.7870012  12.7154997 137.4449988  17.9360012  12.9534997 137.0779988
  19.3780012  12.6984997 136.6919988  18.7502487  12.7458258 137.2928893
  17.1190012  15.7014997 125.0729988  16.7460012  14.8754997 125.3819988
  17.3970012  15.5184997 124.1749988  17.1055222  15.5637430 124.9939473
  14.2800012  10.5094997 132.0939988  13.3510012  10.2774997 132.0669988
  14.7310012   9.7324997 131.7639988  14.2139216  10.3727238 132.0456917
   6.8230012  14.8374997 128.2269988   7.3500012  15.6104997 128.0269988
   5.9430012  15.0624997 127.9249988   6.7762031  14.9737545 128.1587912
   2.5780012   9.6994997 122.8139988   3.1940012  10.3264997 123.1939988
   1.7160012  10.0154997 123.0859988   2.5457698   9.8279430 122.9027183
   8.2500012  12.5004997 127.8029988   8.0090012  13.4254997 127.8449988
   7.5090012  12.0414997 128.1999988   8.1169225  12.5650933 127.8623742
   8.7650012  16.6494997 134.1189988   9.1270012  17.5044997 133.8849988
   9.2960012  16.3574997 134.8589988   8.8864473  16.7271060 134.1870855
   6.9330012  17.5224997 127.3489988   5.9830012  17.6274997 127.3999988
   7.2850012  18.3424997 127.6929988   6.8504195  17.6478800 127.4025502
  12.3090012  12.7484997 133.8189988  11.8830012  12.5214997 134.6459988
  12.8890012  12.0104997 133.6369988  12.3291868  12.6175299 133.9075830
  14.5120012  13.6774997 122.8929988  14.8650012  13.2974997 123.6969988
  13.5630012  13.5844997 122.9799988  14.4320918  13.6128956 123.0148532
  14.9670012  17.3004997 136.2889988  14.3660012  16.7454997 135.7929988
  15.2490012  17.9674997 135.6619988  14.9228804  17.3146625 136.1364849
  19.0150012  18.1574997 123.0939988  19.7590012  18.7434997 122.9539988
  18.3210012  18.7254997 123.4269988  19.0229899  18.3145798 123.1198778
   3.0900012   4.5334997 135.6959988   2.1970012   4.8724997 135.6279988
   2.9910012   3.6784997 136.1139988   2.9544164   4.4642588 135.7432235
  15.3780012  12.3504997 125.1199988  15.1000012  11.6224997 125.6759988
  16.3050012  12.4694997 125.3249988  15.4653124  12.2668802 125.2238845
   2.7410012  16.3384997 134.1309988   2.9580012  15.4064997 134.0999988
   2.9870012  16.6124997 135.0139988   2.8039549  16.2480636 134.2461763
   8.6030012  14.7894997 121.3399988   8.8420012  14.0414997 120.7929988
   8.3340012  14.4014997 122.1729988   8.5993675  14.6346638 121.3776865
   7.5400012  14.3594997 123.7959988   7.6860012  13.8394997 124.5859988
   7.5370012  15.2664997 124.1029988   7.5595792  14.4108842 123.9456117
   3.9930012  11.6124997 124.3069988   3.3070012  11.9644997 124.8739988
   4.5150012  12.3754997 124.0599988   3.9696852  11.7638578 124.3512118
  11.8240012   4.2744997 134.5859988  12.5230012   4.3484997 135.2359988
  11.4430012   3.4104997 134.7399988  11.8681767   4.1677624 134.6958322
  12.6090012   3.9264997 125.6829988  12.8290012   4.3984997 124.8799988
  13.1670012   4.3214997 126.3529988  12.7144968   4.0444285 125.6637331
  10.2770012  16.0574997 124.5459988   9.4610012  16.5544997 124.5979988
  10.8070012  16.5324997 123.9059988  10.2369161  16.1897722 124.4665956
   9.8090012   5.6544997 126.5179988  10.6210012   6.1594997 126.5639988
   9.5640012   5.5094997 127.4319988   9.8870520   5.7040375 126.6478517
  10.3440012   6.6404997 135.7019988  10.4630012   7.2144997 136.4599988
  11.0000012   5.9524997 135.8169988  10.4489025   6.6259858 135.8211321
  10.6920012   2.7354997 127.4559988  10.3460012   3.3534997 128.0999988
  11.3510012   3.2364997 126.9739988  10.7336968   2.8876278 127.4789383
   7.6160012  17.1014997 124.5269988   7.7760012  17.9004997 124.0269988
   7.4180012  17.4074997 125.4119988   7.6111637  17.2524020 124.5781144
   6.3500012   3.7984997 124.1429988   6.2670012   4.6874997 124.4899988
   7.2400012   3.5334997 124.3749988   6.4589469   3.8841430 124.2217626
  16.5490012   4.5474997 136.5369988  15.6320012   4.8104997 136.4499988
  16.8840012   4.5444997 135.6409988  16.4688613   4.5830761 136.4038837
  15.1510012   8.2984997 130.6329988  14.3530012   7.8834997 130.3049988
  15.5960012   7.6074997 131.1239988  15.1019885   8.1483543 130.6544889
   4.6090012  14.2264997 123.2039988   5.2010012  14.9254997 123.4799988
   5.0680012  13.7934997 122.4839988   4.7521142  14.2637049 123.1444830
   2.9250012   6.8904997 122.3199988   2.8800012   7.8294997 122.4979988
   2.0370012   6.6544997 122.0499988   2.7988574   6.9871892 122.3078912
  16.2370012  17.5544997 132.2559988  16.0820012  18.2324997 131.5979988
  17.1700012  17.6264997 132.4589988  16.3418657  17.6569546 132.1934360
   3.7330012   1.6724997 130.9929988   3.5040012   1.7314997 130.0649988
   3.2900012   0.8804997 131.2989988   3.6418530   1.5735753 130.9074786
   2.6630012  15.6124997 127.1529988   1.8310012  16.0854997 127.1799988
   3.2090012  16.1224997 126.5549988   2.6230352  15.7461332 127.0758463
   1.9510012  18.2254997 138.4829988   2.4920012  18.0084997 139.2429988
   1.4700012  17.4194997 138.2929988   1.9599951  18.0869270 138.5612576
   6.5490012  17.1444997 140.1029988   7.3160012  16.6854997 140.4439988
   6.5270012  16.9184997 139.1739988   6.6511275  17.0510186 140.0240101
  10.6410012  16.6524997 121.4789988   9.9970012  16.0214997 121.7999988
  11.4030012  16.1214997 121.2469988  10.6558077  16.4942920 121.4916011
  13.1260012  15.5244997 138.8329988  12.7750012  14.6684997 139.0759988
  13.8520012  15.6674997 139.4399988  13.1760769  15.4265636 138.9483619
  15.2450012  16.4694997 121.7119988  15.5280012  15.6754997 122.1649988
  15.9850012  16.7024997 121.1519988  15.3838006  16.3923376 121.6982715
   1.8580012  12.0354997 139.4369988   2.0020012  11.1334997 139.1509988
   1.0860012  12.3214997 138.9499988   1.7732753  11.9506816 139.3319505
   6.2000012  12.3794997 121.5699988   6.2640012  11.5854997 122.1009988
   6.8530012  12.2604997 120.8799988   6.2970241  12.2547148 121.5494317
   8.5140012  12.0054997 138.8699988   8.1850012  12.2764997 138.0129988
   8.6660012  11.0644997 138.7829988   8.4894809  11.9153862 138.7408244
  11.5520012  13.4264997 121.3059988  11.2830012  13.6064997 122.2069988
  11.3460012  12.5004997 121.1739988  11.4873427  13.3260261 121.4115073
  14.2480012  11.9214997 136.2529988  14.9940012  12.5094997 136.1339988
  13.4910012  12.5034997 136.3169988  14.2477820  12.0807143 136.2453590
   2.6910012   9.2354997 138.8569988   3.0990012   8.3784997 138.7359988
   2.4310012   9.2504997 139.7779988   2.7117568   9.1200807 138.9649588
   7.3490012  10.3514997 123.8759988   6.8890012   9.8674997 124.5619988
   7.6040012   9.6834997 123.2399988   7.3204902  10.1948731 123.8839334
   6.6380012   8.2444997 136.2319988   6.0200012   8.9194997 136.5119988
   6.9820012   8.5654997 135.3979988   6.5999132   8.3802411 136.1576262
   8.4200012   8.5944997 122.1379988   8.2400012   8.4404997 121.2109988
   9.3700012   8.7024997 122.1829988   8.5237776   8.5880175 122.0171843
  11.6580012  10.7164997 139.5089988  12.6110012  10.7994997 139.4819988
  11.4970012  10.0044997 140.1289988  11.7666426  10.6316746 139.5890579
  17.8100012  10.9494997 121.5839988  17.5360012  10.5244997 120.7709988
  17.8490012  11.8804997 121.3669988  17.7777699  11.0172484 121.4433610
   6.9770012   5.5994997 137.3139988   7.1270012   4.8704997 136.7119988
   6.9800012   6.3764997 136.7549988   6.9979302   5.6047851 137.1560692
   7.3900012   3.9694997 134.8069988   7.9260012   4.4204997 134.1549988
   6.5380012   3.8614997 134.3839988   7.3482178   4.0166390 134.6605756
   8.9720012   9.4084997 135.0459988   9.7220012   9.2524997 134.4729988
   8.6330012  10.2604997 134.7709988   9.0288921   9.5022968 134.9303561
  13.3870012   7.2234997 140.0749988  13.5800012   6.2924997 139.9629988
  14.2450012   7.6484997 140.0639988  13.5292934   7.1536531 140.0582031
  14.7040012  10.0124997 138.1519988  14.4230012  10.7214997 137.5739988
  15.6470012   9.9394997 138.0009988  14.7929291  10.0996711 138.0524967
   5.4560012   6.7974997 139.2259988   4.6890012   6.2654997 139.0149988
   6.1350012   6.4874997 138.6259988   5.4427877   6.6828300 139.1160716
   8.1960012   1.4254997 135.2379988   8.0970012   2.3724997 135.1329988
   7.4530012   1.0534997 134.7619988   8.0821184   1.5045863 135.1593621
   9.4600012   5.7474997 138.8019988   9.2240012   5.5274997 139.7029988
   8.6760012   5.5404997 138.2919988   9.3218504   5.6894586 138.8563431
  12.1750012   4.8744997 137.8769988  11.2280012   4.9064997 138.0099988
  12.4880012   4.2494997 138.5309988  12.0876707   4.7943998 137.9836060
  13.8090012   3.5084997 139.8829988  13.7130012   2.5564997 139.8769988
  13.4880012   3.7774997 140.7429988  13.7524070   3.4144035 139.9985441
   3.6360012   4.7184997 138.9299988   3.8480012   4.0114997 138.3199988
   3.5250012   4.2804997 139.7739988   3.6499721   4.5627084 138.9606843
   8.4170012   0.7194997 137.9089988   9.1290012   0.0794997 137.8949988
   8.3160012   0.9864997 136.9959988   8.5008066   0.6680079 137.7835677
   8.7710012   2.4024997 139.9629988   8.6390012   1.9264997 139.1429988
   8.1720012   3.1464997 139.9079988   8.6719071   2.4379618 139.8432886
   8.3170012  19.2854997 123.1389988   9.2500012  19.4434997 123.2829988
   8.0530012  19.9604997 122.5149988   8.4089888  19.3984510 123.0742842
   1.8860012  13.9214997 122.6219988   2.8000012  14.0004997 122.8959988
   1.8930012  13.2344997 121.9559988   2.0121131  13.8393961 122.5694393
   0.5350012  19.3144997 127.6999988  -0.1119988  18.8524997 127.1669988
   0.8890012  18.6424997 128.2819988   0.4943849  19.1604723 127.7057959
   1.4050012  17.3954997 129.5039988   1.0700012  16.5154997 129.6759988
   1.6270012  17.7404997 130.3689988   1.3891783  17.3217501 129.6444208
  18.9530012  18.2044997 132.4849988  18.9320012  18.3894997 133.4239988
  19.6440012  18.7734997 132.1439988  19.0434618  18.3066606 132.5673864
  18.5170012  17.7724997 135.4069988  18.0290012  17.0364997 135.0349988
  19.0660012  17.3784997 136.0849988  18.5244820  17.6185889 135.4477813
  16.9670012  13.5614997 140.0449988  16.1010012  13.4564997 140.4389988
  17.3440012  14.3204997 140.4909988  16.8993308  13.6496900 140.1592393
  18.2680012  11.8184997 125.5589988  19.1180012  12.2394997 125.6859988
  18.2740012  11.0784997 126.1659988  18.3851372  11.7760803 125.6584344
  18.6630012   9.8714997 127.3819988  17.9360012   9.3924997 127.7799988
  19.2440012  10.0774997 128.1149988  18.6420473   9.8338103 127.5354528
  18.4220012  12.6564997 132.3299988  19.2550012  12.2784997 132.0499988
  18.5340012  13.5994997 132.2109988  18.5512647  12.7322218 132.2755487
  16.9080012  15.5344997 134.6369988  16.2610012  15.8594997 135.2629988
  16.3910012  15.0944997 133.9629988  16.7494029  15.5195004 134.6315827
  18.9310012   9.7724997 123.7739988  18.4090012  10.1294997 123.0549988
  18.8980012  10.4474997 124.4519988  18.8551634   9.9125413 123.7673145
  17.2800012   7.0124997 122.3239988  17.3760012   7.6794997 121.6439988
  17.1400012   6.1964997 121.8429988  17.2742272   6.9935655 122.1658347
  16.4490012   8.3924997 127.9449988  16.2990012   7.4474997 127.9249988
  16.0960012   8.6734997 128.7889988  16.3807448   8.3011481 128.0563705
   1.4850012  10.4704997 131.9559988   1.6690012  10.3884997 131.0199988
   2.3340012  10.3464997 132.3789988   1.6250151  10.4425073 131.8851451
  17.3060012  10.3624997 137.5839988  17.8890012   9.6284997 137.7759988
  17.8700012  11.1344997 137.6309988  17.4619769  10.3664227 137.6166159
  18.8020012   8.2654997 138.2689988  17.9390012   7.8864997 138.1029988
  19.4070012   7.5264997 138.1939988  18.7656119   8.1138268 138.2361528
  16.5270012   4.4204997 121.4419988  17.1380012   4.0494997 122.0789988
  15.6910012   3.9994997 121.6379988  16.4975032   4.3127554 121.5557035
  16.1600012   5.9754997 126.4079988  16.4400012   5.0684997 126.5319988
  16.9190012   6.4094997 126.0189988  16.3009277   5.9100942 126.3723682
  16.7720012   6.5564997 131.8439988  17.7050012   6.7684997 131.8089988
  16.5370012   6.6584997 132.7659988  16.8679244   6.5993100 131.9638892
  16.8010012   7.2934997 134.6199988  15.9580012   7.5614997 134.9859988
  17.2430012   8.1154997 134.4089988  16.7454158   7.4413291 134.6415491
   1.0820012   5.7414997 138.0969988   2.0020012   5.6194997 138.3329988
   0.6330012   4.9914997 138.4859988   1.1471580   5.6233727 138.1819006
  19.0840012   1.2734997 139.9729988  19.4340012   0.6194997 139.3679988
  19.2310012   2.1104997 139.5329988  19.1517887   1.2971548 139.8306858
  16.7730012   3.2384997 126.4559988  16.9560012   2.7894997 127.2819988
  16.1740012   2.6534997 125.9929988  16.7170202   3.0979975 126.5063275
   2.3030012   4.0534997 130.9879988   2.7490012   3.2614997 131.2899988
   2.7700012   4.7694997 131.4179988   2.4270831   4.0420685 131.0874006
   0.6070012   7.0524997 132.0569988   1.0990012   6.8314997 131.2659988
   0.9700012   7.8934997 132.3379988   0.7233126   7.1358357 131.9867531
  18.6040012   3.3824997 138.3219988  17.6860012   3.6534997 138.2869988
  18.7270012   2.8474997 137.5379988  18.4949729   3.3472508 138.2111923
  18.6400012   3.3054997 122.9839988  19.0520012   2.5844997 122.5089988
  19.3220012   3.9754997 123.0429988  18.7885885   3.2972368 122.9268915
   0.9210012   3.3104997 126.1109988  -0.0039988   3.5194997 125.9819988
   1.3750012   3.7944997 125.4209988   0.8557292   3.4045343 126.0000720
  15.6920012  18.2944997 128.0569988  16.3440012  17.9474997 127.4489988
  16.2020012  18.7834997 128.7029988  15.8502637  18.3130597 128.0610236
   0.8850012   2.0484997 134.4549988   0.2200012   1.8024997 135.0989988
   0.4420012   2.6704997 133.8779988   0.7341318   2.0989410 134.4650898
   3.0770012  15.2234997 138.5999988   2.2560012  15.3984997 138.1389988
   2.8240012  15.1504997 139.5199988   2.9305585  15.2375544 138.6613561
   6.0310012  16.1984997 134.8579988   5.6060012  17.0074997 134.5759988
   6.9350012  16.2834997 134.5559988   6.0949975  16.3209300 134.7784816
  10.3420012  17.5974997 137.8179988  10.5270012  17.2634997 138.6959988
  11.1880012  17.9064997 137.4959988  10.4817539  17.5936047 137.8945605
  12.6870012  18.8834997 137.0619988  13.3640012  18.2504997 136.8219988
  13.0090012  19.2844997 137.8689988  12.8231637  18.8511154 137.1382793
  17.6040012   1.4724997 136.1409988  16.7920012   1.7974997 135.7539988
  17.8370012   0.7124997 135.6079988  17.5242203   1.4142758 136.0158880
   3.4330012  19.4544997 134.9059988   2.7120012  19.8944997 134.4549988
   3.0670012  19.2034997 135.7539988   3.2849651  19.4807242 134.9589640
   5.9000012  19.0544997 133.9359988   5.0350012  19.1264997 134.3399988
   5.8450012  19.6014997 133.1519988   5.7742085  19.1382685 133.8853362
  10.6100012  18.9424997 133.1109988  10.1540012  19.4714997 132.4569988
  10.7730012  19.5454997 133.8359988  10.5696068  19.0964607 133.1194838
  12.9380012  17.8204997 134.0559988  12.0330012  17.9854997 133.7899988
  13.3670012  18.6734997 133.9909988  12.8721324  17.9584339 134.0107976
  15.5420012  19.3904997 134.3509988  15.3600012  20.3064997 134.1409988
  15.7190012  18.9804997 133.5049988  15.5410210  19.4604822 134.2077885
   2.8470012  18.0774997 131.8159988   2.8290012  17.6524997 132.6729988
   3.6520012  17.7594997 131.4069988   2.9533529  17.9763013 131.8780946
   4.9890012  16.7874997 130.4709988   4.7700012  15.8714997 130.6409988
   5.8130012  16.9274997 130.9369988   5.0704420  16.6810520 130.5572774
   7.5260012  17.2574997 131.3199988   7.7390012  16.3694997 131.0329988
   7.5900012  17.2234997 132.2739988   7.5638232  17.1313102 131.4097397
  11.0340012   2.9214997 130.4639988  10.3600012   2.2924997 130.7199988
  11.5980012   2.4374997 129.8609988  11.0179230   2.7698744 130.4175340
  16.1770012   1.0294997 130.5769988  16.7810012   1.5764997 130.0749988
  15.3070012   1.3484997 130.3359988  16.1421208   1.1475137 130.4756886
  17.9040012   2.1674997 128.9099988  18.5160012   1.6534997 128.3829988
  18.2860012   3.0454997 128.9329988  18.0393371   2.2157866 128.8410041
   3.3610012   1.5554997 128.2859988   2.5840012   1.3214997 127.7789988
   3.8910012   0.7584997 128.2949988   3.3262330   1.4156988 128.2177742
   2.1970012   1.3534997 124.0899988   2.6360012   1.9644997 123.4979988
   1.5640012   1.8914997 124.5639988   2.1714514   1.5099257 124.0730930
   7.9400012   1.4824997 128.0999988   8.8150012   1.8704997 128.0699988
   7.8040012   1.2674997 129.0219988   8.0413695   1.5065184 128.2206440
  13.4970012   1.5124997 129.7489988  13.5730012   1.6074997 128.7989988
  13.2220012   0.6044997 129.8779988  13.4702321   1.4027867 129.6365079
  14.8500012   1.5384997 125.4409988  14.1480012   2.1534997 125.2309988
  14.4060012   0.7004997 125.5719988  14.6936450   1.5095639 125.4299000
   2.0980012  17.3014997 124.9869988   1.4130012  17.2634997 124.3199988
   2.1020012  18.2144997 125.2759988   2.0046998  17.4196733 124.9346771
   4.0580012   3.2694997 122.5319988   4.5500012   2.6394997 122.0049988
   4.6820012   3.5654997 123.1949988   4.2095688   3.2233804 122.5495482
   9.0840012   3.5624997 124.9889988   9.2620012   2.9164997 125.6719988
   9.0310012   4.3964997 125.4559988   9.1011999   3.5868009 125.1455917
  10.9630012  18.5114997 123.3849988  11.8290012  18.8774997 123.2069988
  10.7160012  18.0714997 122.5709988  11.0482392  18.5021756 123.2506289
  17.6720012  18.0744997 126.0639988  17.4770012  17.3264997 125.4989988
  17.6330012  18.8324997 125.4809988  17.6400380  18.0746099 125.9078384
   3.3190012   2.0694997 137.8039988   2.9530012   1.3044997 138.2459988
   4.2320012   2.0984997 138.0899988   3.3922736   1.9685640 137.9032502
   5.2920012   1.4204997 139.3399988   6.1900012   1.1464997 139.1549988
   4.9050012   0.6774997 139.8039988   5.3626612   1.2825914 139.3773643
   3.9160012  18.2214997 122.0129988   3.6490012  18.5084997 122.8859988
   4.6880012  17.6754997 122.1649988   3.9837488  18.1870294 122.1531050
  13.7130012   0.7524997 139.5219988  13.7900012   0.3264997 140.3759988
  14.6070012   0.7664997 139.1789988  13.8443428   0.6960879 139.5925310
  16.8890012  16.8254997 138.2139988  16.1070012  16.6394997 137.6939988
  16.8170012  17.7544997 138.4319988  16.7722274  16.9256643 138.1723018
  31.2950012  10.7114997 128.2449988  31.3840012  11.6554997 128.1129988
  30.6570012  10.4364997 127.5869988  31.2209081  10.8034830 128.1379614
  30.2280012   9.9664997 131.6639988  30.1900012   9.3204997 132.3689988
  29.9060012   9.5004997 130.8929988  30.1792333   9.8149408 131.6562978
  22.5970012   9.5814997 133.2569988  22.6380012   8.9554997 133.9799988
  23.3000012  10.2054997 133.4389988  22.6976363   9.5801196 133.3806044
  33.9340012  12.9054997 129.9649988  33.4940012  12.1854997 130.4159988
  33.9210012  13.6264997 130.5949988  33.8720226  12.9043731 130.1118494
  23.5200012  14.0314997 131.7919988  23.1510012  13.2294997 131.4219988
  24.4610012  13.8624997 131.8379988  23.5967289  13.8990153 131.7476316
  20.1300012   7.6914997 127.1849988  19.6830012   8.5374997 127.1659988
  19.5690012   7.1114997 126.6689988  19.9929900   7.7289916 127.1126801
  20.8410012   9.8534997 129.3099988  21.0540012   9.0834997 129.8379988
  21.5790012   9.9424997 128.7069988  20.9699044   9.7601968 129.3007123
  31.0460012  18.0104997 130.1769988  31.6660012  17.3334997 129.9039988
  30.8380012  17.7924997 131.0859988  31.1026726  17.8884800 130.2624812
  28.6180012  12.3994997 132.0699988  28.9220012  11.7134997 131.4749988
  29.3390012  12.5174997 132.6879988  28.7570671  12.3216305 132.0721816
  37.2810012   4.0004997 132.9309988  37.3300012   4.6104997 133.6659988
  37.7060012   4.4614997 132.2079988  37.3451746   4.1463796 132.9339175
  31.7590012   6.7934997 132.3969988  31.9010012   5.8474997 132.4179988
  31.6520012   7.0004997 131.4689988  31.7639919   6.6918246 132.2743408
  24.9130012   4.8944997 129.6699988  24.9570012   5.7544997 129.2509988
  24.4560012   4.3424997 129.0359988  24.8572240   4.9374422 129.5269864
  32.6360012   5.0254997 128.0709988  33.2820012   4.6964997 128.6949988
  33.1460012   5.5434997 127.4479988  32.7934299   5.0504450 128.0722731
  21.5340012   7.2914997 130.4319988  22.1870012   6.7414997 130.8639988
  21.5580012   7.0174997 129.5149988  21.6266683   7.1791466 130.3672123
  26.6900012   8.8414997 129.6469988  27.3060012   8.3154997 130.1569988
  26.1040012   8.2014997 129.2439988  26.6950810   8.6829208 129.6623173
  37.6720012   5.4784997 135.1659988  36.9840012   6.1364997 135.0709988
  37.6880012   5.2814997 136.1029988  37.5799540   5.5419819 135.2795990
  23.7240012   3.8124997 133.7439988  23.5050012   4.3424997 132.9779988
  23.0560012   4.0394997 134.3909988  23.6037600   3.9156906 133.7266379
  31.0930012  13.3124997 127.2879988  30.7970012  12.9904997 126.4369988
  30.7680012  14.2124997 127.3289988  31.0086371  13.3900215 127.1771801
  26.2930012  11.4884997 134.0309988  25.5530012  12.0864997 134.1349988
  27.0070012  12.0424997 133.7159988  26.2882237  11.6452831 134.0026465
  34.4000012   4.3164997 130.0509988  34.1840012   3.5504997 130.5839988
  35.0550012   4.7884997 130.5639988  34.4590632   4.2755889 130.1932861
  23.3170012   5.7044997 131.6959988  23.9310012   6.3374997 132.0689988
  23.8290012   5.2324997 131.0399988  23.4701981   5.7272267 131.6582908
  24.7000012  13.4524997 134.8179988  24.6950012  14.3324997 134.4399988
  23.8470012  13.3694997 135.2429988  24.5839464  13.5616117 134.8237907
  20.8210012  13.1234997 125.5999988  20.5490012  13.3524997 124.7119988
  20.8670012  13.9614997 126.0609988  20.7899482  13.2681318 125.5406273
  34.4460012  14.7454997 132.3129988  33.5050012  14.8034997 132.4749988
  34.7230012  15.6514997 132.1759988  34.3544679  14.8759443 132.3166815
  34.7470012   3.0314997 133.7309988  34.0110012   3.6424997 133.6929988
  35.4300012   3.4464997 133.2039988  34.7386541   3.1711374 133.6545832
  27.7500012   1.1184997 131.1959988  27.6330012   0.1694997 131.1419988
  26.8950012   1.4504997 131.4699988  27.6184212   1.0335571 131.2256497
  32.6980012  16.5264997 128.9379988  33.1240012  15.8194997 128.4529988
  33.0150012  17.3274997 128.5219988  32.7991683  16.5381017 128.8153680
  33.8580012  14.4274997 127.4469988  33.6000012  13.7374997 126.8359988
  33.9290012  13.9844997 128.2929988  33.8322856  14.2732124 127.4776885
  35.5440012  12.9934997 135.9239988  35.6840012  12.4024997 135.1849988
  35.7110012  13.8664997 135.5679988  35.5857411  13.0305428 135.7746894
  30.0170012   9.9554997 125.6969988  29.3050012  10.4904997 125.3449988
  30.7080012  10.0114997 125.0369988  30.0130132  10.0362543 125.5596289
  30.0700012   8.4134997 122.7359988  30.7710012   8.4354997 123.3869988
  30.3730012   7.7854997 122.0789988  30.2068133   8.3317070 122.7363369
  37.3860012   9.3334997 133.9899988  36.7330012  10.0284997 134.0799988
  37.8510012   9.5434997 133.1809988  37.3595274   9.4570643 133.8928462
  33.4220012  10.1654997 126.6489988  32.6900012  10.3934997 127.2219988
  33.8700012   9.4514997 127.1029988  33.3822725  10.1002145 126.7888816
  33.3200012   8.3394997 135.7159988  33.4000012   9.1024997 136.2879988
  32.7180012   8.6184997 135.0259988  33.2495756   8.4817134 135.7010589
  25.0680012  10.7954997 128.5309988  24.7370012  10.4254997 127.7129988
  25.6560012  10.1254997 128.8779988  25.1021873  10.6541156 128.4658102
  26.4340012  14.2234997 131.2119988  26.3400012  13.6454997 130.4559988
  27.1640012  13.8524997 131.7089988  26.5197387  14.0941663 131.1755342
  25.4340012   9.5644997 132.1649988  26.0000012   9.6854997 131.4019988
  25.7530012  10.2014997 132.8029988  25.5545474   9.6672219 132.1469862
  31.7430012  15.0674997 132.8989988  31.5030012  15.7294997 133.5469988
  31.5450012  14.2334997 133.3239988  31.6833808  15.0453134 133.0451524
  26.3140012  13.9634997 136.8819988  26.0030012  14.7454997 137.3369988
  25.6640012  13.8104997 136.1959988  26.1835558  14.0499105 136.8515871
  32.2930012   9.3274997 124.3339988  32.8730012   9.4774997 125.0809988
  32.7070012   9.7984997 123.6099988  32.4282997   9.4116578 124.3384058
  23.2340012  10.1614997 136.1099988  23.3050012  10.8124997 136.8089988
  22.3440012  10.2644997 135.7749988  23.1233005  10.2645427 136.1603495
  30.0200012  16.0644997 127.7689988  30.4940012  16.3594997 128.5459988
  29.4570012  16.8024997 127.5359988  30.0088184  16.2047247 127.8439628
  24.5540012  16.0354997 137.6449988  24.5610012  15.8994997 136.6979988
  23.6380012  15.9174997 137.8969988  24.4311714  16.0009430 137.5494666
  35.9920012   1.0774997 124.1469988  35.0920012   1.2164997 124.4419988
  36.2440012   1.9084997 123.7449988  35.9028702   1.2089074 124.1330205
  24.0580012   9.8654997 126.1199988  23.7660012  10.6334997 125.6299988
  23.3840012   9.2054997 125.9579988  23.9268111   9.8815587 126.0308978
  37.1810012  15.4434997 122.5229988  37.2550012  16.3824997 122.6939988
  38.0870012  15.1384997 122.4669988  37.3135100  15.5306722 122.5388119
  20.1510012  12.2284997 134.9349988  19.6500012  12.2004997 134.1199988
  20.1560012  11.3224997 135.2449988  20.0830944  12.1022396 134.8653226
  19.9010012  15.0084997 131.8189988  20.8470012  14.8644997 131.7999988
  19.7890012  15.7924997 132.3559988  20.0152727  15.0948046 131.8890072
  38.0990012  15.6744997 137.5019988  38.0500012  14.7194997 137.4649988
  37.2720012  15.9424997 137.9029988  37.9804940  15.5798998 137.5511375
  29.0780012  15.2484997 136.3779988  29.1650012  16.0744997 136.8529988
  28.2140012  14.9184997 136.6269988  28.9731964  15.3169878 136.4766549
  29.4920012  19.0204997 126.1839988  29.4170012  18.8994997 125.2369988
  29.5250012  19.9704997 126.3019988  29.4862068  19.1322646 126.0704967
  23.1450012  17.8094997 127.9649988  23.2980012  17.4614997 128.8429988
  22.2950012  17.4534997 127.7099988  23.0509166  17.7136217 128.0508079
  32.5940012  18.1744997 123.1859988  32.9690012  17.4304997 122.7149988
  32.5980012  17.9044997 124.1049988  32.6459125  18.0360986 123.2456483
  32.2630012  18.1004997 125.9349988  31.3270012  18.2004997 126.1139988
  32.5430012  17.3914997 126.5139988  32.1729553  18.0183406 126.0377087
  35.2510012   7.1674997 137.9819988  34.8440012   7.6484997 137.2609988
  35.2920012   6.2624997 137.6739988  35.2008437   7.1109374 137.8416683
  22.4000012  13.5514997 135.9789988  22.6160012  13.1904997 136.8379988
  21.5450012  13.1774997 135.7689988  22.3139292  13.4514111 136.0683386
  25.0190012   2.0214997 131.9739988  24.1570012   1.9344997 131.5659988
  24.9960012   2.8774997 132.4019988  24.8980409   2.1252883 131.9760589
  29.6820012   1.7434997 135.3489988  30.1020012   1.3284997 136.1019988
  28.7490012   1.5654997 135.4659988  29.6133644   1.6625900 135.4679539
  33.0080012   5.4994997 136.2019988  32.4940012   5.3734997 136.9999988
  32.8530012   6.4114997 135.9579988  32.9166852   5.6056132 136.2782158
  33.7710012  10.3604997 121.9639988  33.8130012  10.1374997 121.0339988
  34.6200012  10.7594997 122.1529988  33.8915280  10.3839438 121.8623554
  29.3430012   4.2364997 122.6339988  29.0900012   4.2554997 123.5569988
  29.0870012   3.3644997 122.3319988  29.2737481   4.1212558 122.7196175
  25.1100012   6.9874997 133.0689988  24.4680012   6.9464997 133.7779988
  25.1470012   7.9134997 132.8309988  25.0270664   7.1071430 133.1339219
  25.1070012   7.2084997 127.9809988  24.2140012   6.8674997 127.9219988
  25.5570012   6.8314997 127.2249988  25.0458130   7.1109631 127.8707702
  30.6420012   7.6244997 126.7979988  30.2330012   8.4394997 126.5069988
  31.3630012   7.4844997 126.1839988  30.6834537   7.7172018 126.6751342
  29.7440012   7.7994997 138.2859988  29.1820012   7.0954997 138.6069988
  30.5710012   7.6794997 138.7539988  29.7787095   7.6867883 138.3932330
  31.6470012   7.0704997 129.6119988  31.4520012   7.6754997 128.8969988
  31.8280012   6.2364997 129.1779988  31.6447614   7.0406300 129.4554405
  22.8600012   7.3074997 134.9359988  22.8220012   7.7074997 135.8049988
  22.3690012   6.4904997 135.0269988  22.7884684   7.2518069 135.0671059
  26.2260012   4.6814997 121.7349988  25.7950012   4.2364997 122.4649988
  25.5080012   5.0534997 121.2229988  26.0699438   4.6708940 121.7656799
  19.4680012   4.4234997 128.7869988  20.0990012   4.3944997 129.5059988
  19.9170012   3.9984997 128.0559988  19.6150918   4.3620836 128.7866441
  20.7420012   5.1694997 124.2109988  21.2160012   5.7604997 123.6259988
  20.0250012   5.7004997 124.5579988  20.7099341   5.3220867 124.1778836
  30.9110012   8.7084997 134.2829988  31.2340012   8.0774997 133.6399988
  30.4710012   8.1734997 134.9439988  30.8957484   8.5498387 134.2843198
  27.6880012   4.6354997 129.0669988  26.7770012   4.6924997 129.3559988
  28.1940012   4.5754997 129.8779988  27.6316899   4.6351941 129.2161184
  22.5170012   6.2644997 127.8939988  21.6270012   6.3644997 127.5539988
  22.8130012   5.4224997 127.5479988  22.4352823   6.1643545 127.8007213
  26.1700012   6.2644997 125.5509988  27.1010012   6.3934997 125.7289988
  25.9550012   6.9344997 124.9009988  26.2684247   6.3726565 125.4875747
  32.0930012   3.8704997 132.3319988  31.4170012   4.0014997 132.9959988
  31.6080012   3.7154997 131.5209988  31.9347146   3.8675157 132.3134469
  24.8440012   7.4594997 123.1169988  24.3010012   7.0794997 122.4259988
  25.6770012   7.6534997 122.6889988  24.8823631   7.4337125 122.9644501
  35.3810012  19.5424997 138.6079988  35.5810012  19.9664997 137.7739988
  36.0360012  19.8854997 139.2149988  35.4970072  19.6469857 138.5758592
  22.9790012  12.0164997 138.2159988  23.7110012  12.2704997 138.7779988
  22.1990012  12.2204997 138.7319988  22.9737073  12.0788160 138.3626151
  29.0080012   7.4234997 130.9539988  29.5730012   6.8764997 130.4069988
  28.8610012   6.9014997 131.7429988  29.0653380   7.2782259 130.9858695
  24.0100012   3.5594997 127.3729988  23.6930012   2.6574997 127.3369988
  24.7920012   3.5614997 126.8199988  24.0722408   3.4362474 127.2933569
  27.6350012   5.8114997 133.3679988  26.7990012   6.2654997 133.4789988
  28.1590012   6.0874997 134.1199988  27.5915416   5.9108660 133.4848119
  28.1790012  12.0244997 125.0529988  27.4340012  11.5174997 124.7309988
  28.0450012  12.0734997 125.9999988  28.0588776  11.9616940 125.1368647
  35.3290012  11.1574997 133.8399988  35.9710012  11.6144997 133.2959988
  34.4990012  11.2704997 133.3769988  35.3045963  11.2352704 133.7030177
  32.0770012   4.8384997 123.2519988  31.1380012   4.9504997 123.1009988
  32.3740012   5.6954997 123.5589988  31.9887583   4.9695981 123.2728337
  29.6980012  12.2084997 136.2899988  29.3530012  11.8274997 137.0969988
  29.4980012  13.1424997 136.3609988  29.6237527  12.2825135 136.4100689
  32.7950012   6.7054997 124.9129988  33.6870012   6.5684997 125.2319988
  32.8520012   7.4964997 124.3759988  32.9246504   6.7936052 124.8840818
  23.3040012  11.3194997 130.8229988  24.0490012  11.3174997 130.2219988
  23.3820012  10.4964997 131.3039988  23.4164995  11.2078887 130.8058282
  30.3050012  13.4834997 124.0789988  30.0090012  14.3094997 124.4599988
  29.6020012  12.8634997 124.2749988  30.1694914  13.5128199 124.1576443
  20.3120012   9.7804997 136.1379988  20.5350012   9.3624997 136.9699988
  19.7100012   9.1674997 135.7149988  20.2611759   9.6404668 136.1947022
  27.3280012   9.2974997 138.3509988  27.0320012   9.1314997 137.4559988
  28.2600012   9.0774997 138.3399988  27.4134166   9.2450640 138.2270536
  31.9490012  14.6704997 136.2409988  31.0480012  14.8534997 135.9729988
  31.9830012  14.9294997 137.1609988  31.8303139  14.7305849 136.3288099
  37.6800012   6.9154997 124.6079988  37.1260012   6.5194997 123.9359988
  37.7800012   7.8254997 124.3299988  37.6177059   6.9843586 124.4784401
  37.6430012  12.7154997 137.4449988  36.7920012  12.9534997 137.0779988
  38.2340012  12.6984997 136.6919988  37.6062487  12.7458258 137.2928893
  35.9750012  15.7014997 125.0729988  35.6020012  14.8754997 125.3819988
  36.2530012  15.5184997 124.1749988  35.9615222  15.5637430 124.9939473
  33.1360012  10.5094997 132.0939988  32.2070012  10.2774997 132.0669988
  33.5870012   9.7324997 131.7639988  33.0699216  10.3727238 132.0456917
  25.6790012  14.8374997 128.2269988  26.2060012  15.6104997 128.0269988
  24.7990012  15.0624997 127.9249988  25.6322031  14.9737545 128.1587912
  21.4340012   9.6994997 122.8139988  22.0500012  10.3264997 123.1939988
  20.5720012  10.0154997 123.0859988  21.4017698   9.8279430 122.9027183
  27.1060012  12.5004997 127.8029988  26.8650012  13.4254997 127.8449988
  26.3650012  12.0414997 128.1999988  26.9729225  12.5650933 127.8623742
  27.6210012  16.6494997 134.1189988  27.9830012  17.5044997 133.8849988
  28.1520012  16.3574997 134.8589988  27.7424473  16.7271060 134.1870855
  25.7890012  17.5224997 127.3489988  24.8390012  17.6274997 127.3999988
  26.1410012  18.3424997 127.6929988  25.7064195  17.6478800 127.4025502
  31.1650012  12.7484997 133.8189988  30.7390012  12.5214997 134.6459988
  31.7450012  12.0104997 133.6369988  31.1851868  12.6175299 133.9075830
  33.3680012  13.6774997 122.8929988  33.7210012  13.2974997 123.6969988
  32.4190012  13.5844997 122.9799988  33.2880918  13.6128956 123.0148532
  33.8230012  17.3004997 136.2889988  33.2220012  16.7454997 135.7929988
  34.1050012  17.9674997 135.6619988  33.7788804  17.3146625 136.1364849
  37.8710012  18.1574997 123.0939988  38.6150012  18.7434997 122.9539988
  37.1770012  18.7254997 123.4269988  37.8789899  18.3145798 123.1198778
  21.9460012   4.5334997 135.6959988  21.0530012   4.8724997 135.6279988
  21.8470012   3.6784997 136.1139988  21.8104164   4.4642588 135.7432235
  34.2340012  12.3504997 125.1199988  33.9560012  11.6224997 125.6759988
  35.1610012  12.4694997 125.3249988  34.3213124  12.2668802 125.2238845
  21.5970012  16.3384997 134.1309988  21.8140012  15.4064997 134.0999988
  21.8430012  16.6124997 135.0139988  21.6599549  16.2480636 134.2461763
  27.4590012  14.7894997 121.3399988  27.6980012  14.0414997 120.7929988
  27.1900012  14.4014997 122.1729988  27.4553675  14.6346638 121.3776865
  26.3960012  14.3594997 123.7959988  26.5420012  13.8394997 124.5859988
  26.3930012  15.2664997 124.1029988  26.4155792  14.4108842 123.9456117
  22.8490012  11.6124997 124.3069988  22.1630012  11.9644997 124.8739988
  23.3710012  12.3754997 124.0599988  22.8256852  11.7638578 124.3512118
  30.6800012   4.2744997 134.5859988  31.3790012   4.3484997 135.2359988
  30.2990012   3.4104997 134.7399988  30.7241767   4.1677624 134.6958322
  31.4650012   3.9264997 125.6829988  31.6850012   4.3984997 124.8799988
  32.0230012   4.3214997 126.3529988  31.5704968   4.0444285 125.6637331
  29.1330012  16.0574997 124.5459988  28.3170012  16.5544997 124.5979988
  29.6630012  16.5324997 123.9059988  29.0929161  16.1897722 124.4665956
  28.6650012   5.6544997 126.5179988  29.4770012   6.1594997 126.5639988
  28.4200012   5.5094997 127.4319988  28.7430520   5.7040375 126.6478517
  29.2000012   6.6404997 135.7019988  29.3190012   7.2144997 136.4599988
  29.8560012   5.9524997 135.8169988  29.3049025   6.6259858 135.8211321
  29.5480012   2.7354997 127.4559988  29.2020012   3.3534997 128.0999988
  30.2070012   3.2364997 126.9739988  29.5896968   2.8876278 127.4789383
  26.4720012  17.1014997 124.5269988  26.6320012  17.9004997 124.0269988
  26.2740012  17.4074997 125.4119988  26.4671637  17.2524020 124.5781144
  25.2060012   3.7984997 124.1429988  25.1230012   4.6874997 124.4899988
  26.0960012   3.5334997 124.3749988  25.3149469   3.8841430 124.2217626
  35.4050012   4.5474997 136.5369988  34.4880012   4.8104997 136.4499988
  35.7400012   4.5444997 135.6409988  35.3248613   4.5830761 136.4038837
  34.0070012   8.2984997 130.6329988  33.2090012   7.8834997 130.3049988
  34.4520012   7.6074997 131.1239988  33.9579885   8.1483543 130.6544889
  23.4650012  14.2264997 123.2039988  24.0570012  14.9254997 123.4799988
  23.9240012  13.7934997 122.4839988  23.6081142  14.2637049 123.1444830
  21.7810012   6.8904997 122.3199988  21.7360012   7.8294997 122.4979988
  20.8930012   6.6544997 122.0499988  21.6548574   6.9871892 122.3078912
  35.0930012  17.5544997 132.2559988  34.9380012  18.2324997 131.5979988
  36.0260012  17.6264997 132.4589988  35.1978657  17.6569546 132.1934360
  22.5890012   1.6724997 130.9929988  22.3600012   1.7314997 130.0649988
  22.1460012   0.8804997 131.2989988  22.4978530   1.5735753 130.9074786
  21.5190012  15.6124997 127.1529988  20.6870012  16.0854997 127.1799988
  22.0650012  16.1224997 126.5549988  21.4790352  15.7461332 127.0758463
  20.8070012  18.2254997 138.4829988  21.3480012  18.0084997 139.2429988
  20.3260012  17.4194997 138.2929988  20.8159951  18.0869270 138.5612576
  25.4050012  17.1444997 140.1029988  26.1720012  16.6854997 140.4439988
  25.3830012  16.9184997 139.1739988  25.5071275  17.0510186 140.0240101
  29.4970012  16.6524997 121.4789988  28.8530012  16.0214997 121.7999988
  30.2590012  16.1214997 121.2469988  29.5118077  16.4942920 121.4916011
  31.9820012  15.5244997 138.8329988  31.6310012  14.6684997 139.0759988
  32.7080012  15.6674997 139.4399988  32.0320769  15.4265636 138.9483619
  34.1010012  16.4694997 121.7119988  34.3840012  15.6754997 122.1649988
  34.8410012  16.7024997 121.1519988  34.2398006  16.3923376 121.6982715
  20.7140012  12.0354997 139.4369988  20.8580012  11.1334997 139.1509988
  19.9420012  12.3214997 138.9499988  20.6292753  11.9506816 139.3319505
  25.0560012  12.3794997 121.5699988  25.1200012  11.5854997 122.1009988
  25.7090012  12.2604997 120.8799988  25.1530241  12.2547148 121.5494317
  27.3700012  12.0054997 138.8699988  27.0410012  12.2764997 138.0129988
  27.5220012  11.0644997 138.7829988  27.3454809  11.9153862 138.7408244
  30.4080012  13.4264997 121.3059988  30.1390012  13.6064997 122.2069988
  30.2020012  12.5004997 121.1739988  30.3433427  13.3260261 121.4115073
  33.1040012  11.9214997 136.2529988  33.8500012  12.5094997 136.1339988
  32.3470012  12.5034997 136.3169988  33.1037820  12.0807143 136.2453590
  21.5470012   9.2354997 138.8569988  21.9550012   8.3784997 138.7359988
  21.2870012   9.2504997 139.7779988  21.5677568   9.1200807 138.9649588
  26.2050012  10.3514997 123.8759988  25.7450012   9.8674997 124.5619988
  26.4600012   9.6834997 123.2399988  26.1764902  10.1948731 123.8839334
  25.4940012   8.2444997 136.2319988  24.8760012   8.9194997 136.5119988
  25.8380012   8.5654997 135.3979988  25.4559132   8.3802411 136.1576262
  27.2760012   8.5944997 122.1379988  27.0960012   8.4404997 121.2109988
  28.2260012   8.7024997 122.1829988  27.3797776   8.5880175 122.0171843
  30.5140012  10.7164997 139.5089988  31.4670012  10.7994997 139.4819988
  30.3530012  10.0044997 140.1289988  30.6226426  10.6316746 139.5890579
  36.6660012  10.9494997 121.5839988  36.3920012  10.5244997 120.7709988
  36.7050012  11.8804997 121.3669988  36.6337699  11.0172484 121.4433610
  25.8330012   5.5994997 137.3139988  25.9830012   4.8704997 136.7119988
  25.8360012   6.3764997 136.7549988  25.8539302   5.6047851 137.1560692
  26.2460012   3.9694997 134.8069988  26.7820012   4.4204997 134.1549988
  25.3940012   3.8614997 134.3839988  26.2042178   4.0166390 134.6605756
  27.8280012   9.4084997 135.0459988  28.5780012   9.2524997 134.4729988
  27.4890012  10.2604997 134.7709988  27.8848921   9.5022968 134.9303561
  32.2430012   7.2234997 140.0749988  32.4360012   6.2924997 139.9629988
  33.1010012   7.6484997 140.0639988  32.3852934   7.1536531 140.0582031
  33.5600012  10.0124997 138.1519988  33.2790012  10.7214997 137.5739988
  34.5030012   9.9394997 138.0009988  33.6489291  10.0996711 138.0524967
  24.3120012   6.7974997 139.2259988  23.5450012   6.2654997 139.0149988
  24.9910012   6.4874997 138.6259988  24.2987877   6.6828300 139.1160716
  27.0520012   1.4254997 135.2379988  26.9530012   2.3724997 135.1329988
  26.3090012   1.0534997 134.7619988  26.9381184   1.5045863 135.1593621
  28.3160012   5.7474997 138.8019988  28.0800012   5.5274997 139.7029988
  27.5320012   5.5404997 138.2919988  28.1778504   5.6894586 138.8563431
  31.0310012   4.8744997 137.8769988  30.0840012   4.9064997 138.0099988
  31.3440012   4.2494997 138.5309988  30.9436707   4.7943998 137.9836060
  32.6650012   3.5084997 139.8829988  32.5690012   2.5564997 139.8769988
  32.3440012   3.7774997 140.7429988  32.6084070   3.4144035 139.9985441
  22.4920012   4.7184997 138.9299988  22.7040012   4.0114997 138.3199988
  22.3810012   4.2804997 139.7739988  22.5059721   4.5627084 138.9606843
  27.2730012   0.7194997 137.9089988  27.9850012   0.0794997 137.8949988
  27.1720012   0.9864997 136.9959988  27.3568066   0.6680079 137.7835677
  27.6270012   2.4024997 139.9629988  27.4950012   1.9264997 139.1429988
  27.0280012   3.1464997 139.9079988  27.5279071   2.4379618 139.8432886
  27.1730012  19.2854997 123.1389988  28.1060012  19.4434997 123.2829988
  26.9090012  19.9604997 122.5149988  27.2649888  19.3984510 123.0742842
  20.7420012  13.9214997 122.6219988  21.6560012  14.0004997 122.8959988
  20.7490012  13.2344997 121.9559988  20.8681131  13.8393961 122.5694393
  19.3910012  19.3144997 127.6999988  18.7440012  18.8524997 127.1669988
  19.7450012  18.6424997 128.2819988  19.3503849  19.1604723 127.7057959
  20.2610012  17.3954997 129.5039988  19.9260012  16.5154997 129.6759988
  20.4830012  17.7404997 130.3689988  20.2451783  17.3217500 129.6444208
  37.8090012  18.2044997 132.4849988  37.7880012  18.3894997 133.4239988
  38.5000012  18.7734997 132.1439988  37.8994618  18.3066606 132.5673864
  37.3730012  17.7724997 135.4069988  36.8850012  17.0364997 135.0349988
  37.9220012  17.3784997 136.0849988  37.3804820  17.6185889 135.4477813
  35.8230012  13.5614997 140.0449988  34.9570012  13.4564997 140.4389988
  36.2000012  14.3204997 140.4909988  35.7553308  13.6496900 140.1592393
  37.1240012  11.8184997 125.5589988  37.9740012  12.2394997 125.6859988
  37.1300012  11.0784997 126.1659988  37.2411372  11.7760803 125.6584344
  37.5190012   9.8714997 127.3819988  36.7920012   9.3924997 127.7799988
  38.1000012  10.0774997 128.1149988  37.4980473   9.8338103 127.5354528
  37.2780012  12.6564997 132.3299988  38.1110012  12.2784997 132.0499988
  37.3900012  13.5994997 132.2109988  37.4072647  12.7322218 132.2755487
  35.7640012  15.5344997 134.6369988  35.1170012  15.8594997 135.2629988
  35.2470012  15.0944997 133.9629988  35.6054029  15.5195004 134.6315827
  37.7870012   9.7724997 123.7739988  37.2650012  10.1294997 123.0549988
  37.7540012  10.4474997 124.4519988  37.7111634   9.9125413 123.7673145
  36.1360012   7.0124997 122.3239988  36.2320012   7.6794997 121.6439988
  35.9960012   6.1964997 121.8429988  36.1302272   6.9935655 122.1658347
  35.3050012   8.3924997 127.9449988  35.1550012   7.4474997 127.9249988
  34.9520012   8.6734997 128.7889988  35.2367448   8.3011481 128.0563705
  20.3410012  10.4704997 131.9559988  20.5250012  10.3884997 131.0199988
  21.1900012  10.3464997 132.3789988  20.4810151  10.4425073 131.8851451
  36.1620012  10.3624997 137.5839988  36.7450012   9.6284997 137.7759988
  36.7260012  11.1344997 137.6309988  36.3179769  10.3664227 137.6166159
  37.6580012   8.2654997 138.2689988  36.7950012   7.8864997 138.1029988
  38.2630012   7.5264997 138.1939988  37.6216119   8.1138268 138.2361528
  35.3830012   4.4204997 121.4419988  35.9940012   4.0494997 122.0789988
  34.5470012   3.9994997 121.6379988  35.3535032   4.3127554 121.5557035
  35.0160012   5.9754997 126.4079988  35.2960012   5.0684997 126.5319988
  35.7750012   6.4094997 126.0189988  35.1569277   5.9100942 126.3723682
  35.6280012   6.5564997 131.8439988  36.5610012   6.7684997 131.8089988
  35.3930012   6.6584997 132.7659988  35.7239244   6.5993100 131.9638892
  35.6570012   7.2934997 134.6199988  34.8140012   7.5614997 134.9859988
  36.0990012   8.1154997 134.4089988  35.6014158   7.4413291 134.6415491
  19.9380012   5.7414997 138.0969988  20.8580012   5.6194997 138.3329988
  19.4890012   4.9914997 138.4859988  20.0031580   5.6233727 138.1819006
  37.9400012   1.2734997 139.9729988  38.2900012   0.6194997 139.3679988
  38.0870012   2.1104997 139.5329988  38.0077887   1.2971548 139.8306858
  35.6290012   3.2384997 126.4559988  35.8120012   2.7894997 127.2819988
  35.0300012   2.6534997 125.9929988  35.5730202   3.0979975 126.5063275
  21.1590012   4.0534997 130.9879988  21.6050012   3.2614997 131.2899988
  21.6260012   4.7694997 131.4179988  21.2830831   4.0420685 131.0874006
  19.4630012   7.0524997 132.0569988  19.9550012   6.8314997 131.2659988
  19.8260012   7.8934997 132.3379988  19.5793126   7.1358357 131.9867531
  37.4600012   3.3824997 138.3219988  36.5420012   3.6534997 138.2869988
  37.5830012   2.8474997 137.5379988  37.3509729   3.3472508 138.2111923
  37.4960012   3.3054997 122.9839988  37.9080012   2.5844997 122.5089988
  38.1780012   3.9754997 123.0429988  37.6445885   3.2972368 122.9268915
  19.7770012   3.3104997 126.1109988  18.8520012   3.5194997 125.9819988
  20.2310012   3.7944997 125.4209988  19.7117292   3.4045343 126.0000720
  34.5480012  18.2944997 128.0569988  35.2000012  17.9474997 127.4489988
  35.0580012  18.7834997 128.7029988  34.7062637  18.3130597 128.0610236
  19.7410012   2.0484997 134.4549988  19.0760012   1.8024997 135.0989988
  19.2980012   2.6704997 133.8779988  19.5901318   2.0989410 134.4650898
  21.9330012  15.2234997 138.5999988  21.1120012  15.3984997 138.1389988
  21.6800012  15.1504997 139.5199988  21.7865585  15.2375544 138.6613561
  24.8870012  16.1984997 134.8579988  24.4620012  17.0074997 134.5759988
  25.7910012  16.2834997 134.5559988  24.9509975  16.3209300 134.7784816
  29.1980012  17.5974997 137.8179988  29.3830012  17.2634997 138.6959988
  30.0440012  17.9064997 137.4959988  29.3377539  17.5936047 137.8945605
  31.5430012  18.8834997 137.0619988  32.2200012  18.2504997 136.8219988
  31.8650012  19.2844997 137.8689988  31.6791637  18.8511154 137.1382793
  36.4600012   1.4724997 136.1409988  35.6480012   1.7974997 135.7539988
  36.6930012   0.7124997 135.6079988  36.3802203   1.4142758 136.0158880
  22.2890012  19.4544997 134.9059988  21.5680012  19.8944997 134.4549988
  21.9230012  19.2034997 135.7539988  22.1409651  19.4807242 134.9589640
  24.7560012  19.0544997 133.9359988  23.8910012  19.1264997 134.3399988
  24.7010012  19.6014997 133.1519988  24.6302085  19.1382685 133.8853362
  29.4660012  18.9424997 133.1109988  29.0100012  19.4714997 132.4569988
  29.6290012  19.5454997 133.8359988  29.4256068  19.0964607 133.1194838
  31.7940012  17.8204997 134.0559988  30.8890012  17.9854997 133.7899988
  32.2230012  18.6734997 133.9909988  31.7281324  17.9584339 134.0107976
  34.3980012  19.3904997 134.3509988  34.2160012  20.3064997 134.1409988
  34.5750012  18.9804997 133.5049988  34.3970210  19.4604822 134.2077885
  21.7030012  18.0774997 131.8159988  21.6850012  17.6524997 132.6729988
  22.5080012  17.7594997 131.4069988  21.8093529  17.9763013 131.8780946
  23.8450012  16.7874997 130.4709988  23.6260012  15.8714997 130.6409988
  24.6690012  16.9274997 130.9369988  23.9264420  16.6810520 130.5572774
  26.3820012  17.2574997 131.3199988  26.5950012  16.3694997 131.0329988
  26.4460012  17.2234997 132.2739988  26.4198232  17.1313102 131.4097397
  29.8900012   2.9214997 130.4639988  29.2160012   2.2924997 130.7199988
  30.4540012   2.4374997 129.8609988  29.8739230   2.7698744 130.4175340
  35.0330012   1.0294997 130.5769988  35.6370012   1.5764997 130.0749988
  34.1630012   1.3484997 130.3359988  34.9981208   1.1475137 130.4756886
  36.7600012   2.1674997 128.9099988  37.3720012   1.6534997 128.3829988
  37.1420012   3.0454997 128.9329988  36.8953371   2.2157866 128.8410041
  22.2170012   1.5554997 128.2859988  21.4400012   1.3214997 127.7789988
  22.7470012   0.7584997 128.2949988  22.1822330   1.4156988 128.2177742
  21.0530012   1.3534997 124.0899988  21.4920012   1.9644997 123.4979988
  20.4200012   1.8914997 124.5639988  21.0274514   1.5099257 124.0730930
  26.7960012   1.4824997 128.0999988  27.6710012   1.8704997 128.0699988
  26.6600012   1.2674997 129.0219988  26.8973695   1.5065184 128.2206440
  32.3530012   1.5124997 129.7489988  32.4290012   1.6074997 128.7989988
  32.0780012   0.6044997 129.8779988  32.3262321   1.4027867 129.6365079
  33.7060012   1.5384997 125.4409988  33.0040012   2.1534997 125.2309988
  33.2620012   0.7004997 125.5719988  33.5496450   1.5095639 125.4299000
  20.9540012  17.3014997 124.9869988  20.2690012  17.2634997 124.3199988
  20.9580012  18.2144997 125.2759988  20.8606998  17.4196733 124.9346771
  22.9140012   3.2694997 122.5319988  23.4060012   2.6394997 122.0049988
  23.5380012   3.5654997 123.1949988  23.0655688   3.2233804 122.5495482
  27.9400012   3.5624997 124.9889988  28.1180012   2.9164997 125.6719988
  27.8870012   4.3964997 125.4559988  27.9571999   3.5868009 125.1455917
  29.8190012  18.5114997 123.3849988  30.6850012  18.8774997 123.2069988
  29.5720012  18.0714997 122.5709988  29.9042392  18.5021756 123.2506289
  36.5280012  18.0744997 126.0639988  36.3330012  17.3264997 125.4989988
  36.4890012  18.8324997 125.4809988  36.4960380  18.0746099 125.9078384
  22.1750012   2.0694997 137.8039988  21.8090012   1.3044997 138.2459988
  23.0880012   2.0984997 138.0899988  22.2482736   1.9685640 137.9032502
  24.1480012   1.4204997 139.3399988  25.0460012   1.1464997 139.1549988
  23.7610012   0.6774997 139.8039988  24.2186612   1.2825914 139.3773643
  22.7720012  18.2214997 122.0129988  22.5050012  18.5084997 122.8859988
  23.5440012  17.6754997 122.1649988  22.8397488  18.1870294 122.1531050
  32.5690012   0.7524997 139.5219988  32.6460012   0.3264997 140.3759988
  33.4630012   0.7664997 139.1789988  32.7003428   0.6960879 139.5925310
  35.7450012  16.8254997 138.2139988  34.9630012  16.6394997 137.6939988
  35.6730012  17.7544997 138.4319988  35.6282274  16.9256643 138.1723018
  50.1510012  10.7114997 128.2449988  50.2400012  11.6554997 128.1129988
  49.5130012  10.4364997 127.5869988  50.0769081  10.8034830 128.1379614
  49.0840012   9.9664997 131.6639988  49.0460012   9.3204997 132.3689988
  48.7620012   9.5004997 130.8929988  49.0352333   9.8149408 131.6562978
  41.4530012   9.5814997 133.2569988  41.4940012   8.9554997 133.9799988
  42.1560012  10.2054997 133.4389988  41.5536363   9.5801196 133.3806044
  52.7900012  12.9054997 129.9649988  52.3500012  12.1854997 130.4159988
  52.7770012  13.6264997 130.5949988  52.7280226  12.9043731 130.1118494
  42.3760012  14.0314997 131.7919988  42.0070012  13.2294997 131.4219988
  43.3170012  13.8624997 131.8379988  42.4527289  13.8990153 131.7476316
  38.9860012   7.6914997 127.1849988  38.5390012   8.5374997 127.1659988
  38.4250012   7.1114997 126.6689988  38.8489900   7.7289916 127.1126801
  39.6970012   9.8534997 129.3099988  39.9100012   9.0834997 129.8379988
  40.4350012   9.9424997 128.7069988  39.8259044   9.7601968 129.3007123
  49.9020012  18.0104997 130.1769988  50.5220012  17.3334997 129.9039988
  49.6940012  17.7924997 131.0859988  49.9586726  17.8884800 130.2624812
  47.4740012  12.3994997 132.0699988  47.7780012  11.7134997 131.4749988
  48.1950012  12.5174997 132.6879988  47.6130671  12.3216304 132.0721816
  56.1370012   4.0004997 132.9309988  56.1860012   4.6104997 133.6659988
  56.5620012   4.4614997 132.2079988  56.2011746   4.1463796 132.9339175
  50.6150012   6.7934997 132.3969988  50.7570012   5.8474997 132.4179988
  50.5080012   7.0004997 131.4689988  50.6199919   6.6918246 132.2743408
  43.7690012   4.8944997 129.6699988  43.8130012   5.7544997 129.2509988
  43.3120012   4.3424997 129.0359988  43.7132240   4.9374422 129.5269864
  51.4920012   5.0254997 128.0709988  52.1380012   4.6964997 128.6949988
  52.0020012   5.5434997 127.4479988  51.6494299   5.0504450 128.0722731
  40.3900012   7.2914997 130.4319988  41.0430012   6.7414997 130.8639988
  40.4140012   7.0174997 129.5149988  40.4826683   7.1791466 130.3672123
  45.5460012   8.8414997 129.6469988  46.1620012   8.3154997 130.1569988
  44.9600012   8.2014997 129.2439988  45.5510810   8.6829208 129.6623173
  56.5280012   5.4784997 135.1659988  55.8400012   6.1364997 135.0709988
  56.5440012   5.2814997 136.1029988  56.4359540   5.5419819 135.2795990
  42.5800012   3.8124997 133.7439988  42.3610012   4.3424997 132.9779988
  41.9120012   4.0394997 134.3909988  42.4597600   3.9156906 133.7266379
  49.9490012  13.3124997 127.2879988  49.6530012  12.9904997 126.4369988
  49.6240012  14.2124997 127.3289988  49.8646371  13.3900215 127.1771801
  45.1490012  11.4884997 134.0309988  44.4090012  12.0864997 134.1349988
  45.8630012  12.0424997 133.7159988  45.1442237  11.6452831 134.0026465
  53.2560012   4.3164997 130.0509988  53.0400012   3.5504997 130.5839988
  53.9110012   4.7884997 130.5639988  53.3150632   4.2755889 130.1932861
  42.1730012   5.7044997 131.6959988  42.7870012   6.3374997 132.0689988
  42.6850012   5.2324997 131.0399988  42.3261981   5.7272267 131.6582908
  43.5560012  13.4524997 134.8179988  43.5510012  14.3324997 134.4399988
  42.7030012  13.3694997 135.2429988  43.4399464  13.5616117 134.8237907
  39.6770012  13.1234997 125.5999988  39.4050012  13.3524997 124.7119988
  39.7230012  13.9614997 126.0609988  39.6459482  13.2681318 125.5406273
  53.3020012  14.7454997 132.3129988  52.3610012  14.8034997 132.4749988
  53.5790012  15.6514997 132.1759988  53.2104679  14.8759443 132.3166815
  53.6030012   3.0314997 133.7309988  52.8670012   3.6424997 133.6929988
  54.2860012   3.4464997 133.2039988  53.5946541   3.1711374 133.6545832
  46.6060012   1.1184997 131.1959988  46.4890012   0.1694997 131.1419988
  45.7510012   1.4504997 131.4699988  46.4744212   1.0335571 131.2256497
  51.5540012  16.5264997 128.9379988  51.9800012  15.8194997 128.4529988
  51.8710012  17.3274997 128.5219988  51.6551683  16.5381017 128.8153680
  52.7140012  14.4274997 127.4469988  52.4560012  13.7374997 126.8359988
  52.7850012  13.9844997 128.2929988  52.6882856  14.2732124 127.4776885
  54.4000012  12.9934997 135.9239988  54.5400012  12.4024997 135.1849988
  54.5670012  13.8664997 135.5679988  54.4417411  13.0305428 135.7746894
  48.8730012   9.9554997 125.6969988  48.1610012  10.4904997 125.3449988
  49.5640012  10.0114997 125.0369988  48.8690132  10.0362543 125.5596289
  48.9260012   8.4134997 122.7359988  49.6270012   8.4354997 123.3869988
  49.2290012   7.7854997 122.0789988  49.0628133   8.3317070 122.7363369
  56.2420012   9.3334997 133.9899988  55.5890012  10.0284997 134.0799988
  56.7070012   9.5434997 133.1809988  56.2155274   9.4570643 133.8928462
  52.2780012  10.1654997 126.6489988  51.5460012  10.3934997 127.2219988
  52.7260012   9.4514997 127.1029988  52.2382725  10.1002145 126.7888816
  52.1760012   8.3394997 135.7159988  52.2560012   9.1024997 136.2879988
  51.5740012   8.6184997 135.0259988  52.1055756   8.4817134 135.7010589
  43.9240012  10.7954997 128.5309988  43.5930012  10.4254997 127.7129988
  44.5120012  10.1254997 128.8779988  43.9581873  10.6541156 128.4658102
  45.2900012  14.2234997 131.2119988  45.1960012  13.6454997 130.4559988
  46.0200012  13.8524997 131.7089988  45.3757387  14.0941663 131.1755342
  44.2900012   9.5644997 132.1649988  44.8560012   9.6854997 131.4019988
  44.6090012  10.2014997 132.8029988  44.4105474   9.6672219 132.1469862
  50.5990012  15.0674997 132.8989988  50.3590012  15.7294997 133.5469988
  50.4010012  14.2334997 133.3239988  50.5393808  15.0453134 133.0451524
  45.1700012  13.9634997 136.8819988  44.8590012  14.7454997 137.3369988
  44.5200012  13.8104997 136.1959988  45.0395558  14.0499105 136.8515871
  51.1490012   9.3274997 124.3339988  51.7290012   9.4774997 125.0809988
  51.5630012   9.7984997 123.6099988  51.2842997   9.4116578 124.3384058
  42.0900012  10.1614997 136.1099988  42.1610012  10.8124997 136.8089988
  41.2000012  10.2644997 135.7749988  41.9793005  10.2645427 136.1603495
  48.8760012  16.0644997 127.7689988  49.3500012  16.3594997 128.5459988
  48.3130012  16.8024997 127.5359988  48.8648184  16.2047247 127.8439628
  43.4100012  16.0354997 137.6449988  43.4170012  15.8994997 136.6979988
  42.4940012  15.9174997 137.8969988  43.2871714  16.0009430 137.5494666
  54.8480012   1.0774997 124.1469988  53.9480012   1.2164997 124.4419988
  55.1000012   1.9084997 123.7449988  54.7588702   1.2089074 124.1330205
  42.9140012   9.8654997 126.1199988  42.6220012  10.6334997 125.6299988
  42.2400012   9.2054997 125.9579988  42.7828111   9.8815587 126.0308978
  56.0370012  15.4434997 122.5229988  56.1110012  16.3824997 122.6939988
  56.9430012  15.1384997 122.4669988  56.1695100  15.5306722 122.5388119
  39.0070012  12.2284997 134.9349988  38.5060012  12.2004997 134.1199988
  39.0120012  11.3224997 135.2449988  38.9390944  12.1022396 134.8653226
  38.7570012  15.0084997 131.8189988  39.7030012  14.8644997 131.7999988
  38.6450012  15.7924997 132.3559988  38.8712727  15.0948046 131.8890072
  56.9550012  15.6744997 137.5019988  56.9060012  14.7194997 137.4649988
  56.1280012  15.9424997 137.9029988  56.8364940  15.5798998 137.5511375
  47.9340012  15.2484997 136.3779988  48.0210012  16.0744997 136.8529988
  47.0700012  14.9184997 136.6269988  47.8291964  15.3169878 136.4766549
  48.3480012  19.0204997 126.1839988  48.2730012  18.8994997 125.2369988
  48.3810012  19.9704997 126.3019988  48.3422068  19.1322646 126.0704967
  42.0010012  17.8094997 127.9649988  42.1540012  17.4614997 128.8429988
  41.1510012  17.4534997 127.7099988  41.9069166  17.7136217 128.0508079
  51.4500012  18.1744997 123.1859988  51.8250012  17.4304997 122.7149988
  51.4540012  17.9044997 124.1049988  51.5019125  18.0360986 123.2456483
  51.1190012  18.1004997 125.9349988  50.1830012  18.2004997 126.1139988
  51.3990012  17.3914997 126.5139988  51.0289553  18.0183406 126.0377087
  54.1070012   7.1674997 137.9819988  53.7000012   7.6484997 137.2609988
  54.1480012   6.2624997 137.6739988  54.0568437   7.1109374 137.8416683
  41.2560012  13.5514997 135.9789988  41.4720012  13.1904997 136.8379988
  40.4010012  13.1774997 135.7689988  41.1699292  13.4514111 136.0683386
  43.8750012   2.0214997 131.9739988  43.0130012   1.9344997 131.5659988
  43.8520012   2.8774997 132.4019988  43.7540409   2.1252883 131.9760589
  48.5380012   1.7434997 135.3489988  48.9580012   1.3284997 136.1019988
  47.6050012   1.5654997 135.4659988  48.4693644   1.6625900 135.4679539
  51.8640012   5.4994997 136.2019988  51.3500012   5.3734997 136.9999988
  51.7090012   6.4114997 135.9579988  51.7726852   5.6056132 136.2782158
  52.6270012  10.3604997 121.9639988  52.6690012  10.1374997 121.0339988
  53.4760012  10.7594997 122.1529988  52.7475280  10.3839438 121.8623554
  48.1990012   4.2364997 122.6339988  47.9460012   4.2554997 123.5569988
  47.9430012   3.3644997 122.3319988  48.1297481   4.1212558 122.7196175
  43.9660012   6.9874997 133.0689988  43.3240012   6.9464997 133.7779988
  44.0030012   7.9134997 132.8309988  43.8830664   7.1071430 133.1339219
  43.9630012   7.2084997 127.9809988  43.0700012   6.8674997 127.9219988
  44.4130012   6.8314997 127.2249988  43.9018130   7.1109631 127.8707702
  49.4980012   7.6244997 126.7979988  49.0890012   8.4394997 126.5069988
  50.2190012   7.4844997 126.1839988  49.5394537   7.7172018 126.6751342
  48.6000012   7.7994997 138.2859988  48.0380012   7.0954997 138.6069988
  49.4270012   7.6794997 138.7539988  48.6347095   7.6867883 138.3932330
  50.5030012   7.0704997 129.6119988  50.3080012   7.6754997 128.8969988
  50.6840012   6.2364997 129.1779988  50.5007614   7.0406300 129.4554405
  41.7160012   7.3074997 134.9359988  41.6780012   7.7074997 135.8049988
  41.2250012   6.4904997 135.0269988  41.6444684   7.2518069 135.0671059
  45.0820012   4.6814997 121.7349988  44.6510012   4.2364997 122.4649988
  44.3640012   5.0534997 121.2229988  44.9259438   4.6708940 121.7656799
  38.3240012   4.4234997 128.7869988  38.9550012   4.3944997 129.5059988
  38.7730012   3.9984997 128.0559988  38.4710918   4.3620836 128.7866441
  39.5980012   5.1694997 124.2109988  40.0720012   5.7604997 123.6259988
  38.8810012   5.7004997 124.5579988  39.5659341   5.3220867 124.1778836
  49.7670012   8.7084997 134.2829988  50.0900012   8.0774997 133.6399988
  49.3270012   8.1734997 134.9439988  49.7517484   8.5498387 134.2843198
  46.5440012   4.6354997 129.0669988  45.6330012   4.6924997 129.3559988
  47.0500012   4.5754997 129.8779988  46.4876899   4.6351941 129.2161184
  41.3730012   6.2644997 127.8939988  40.4830012   6.3644997 127.5539988
  41.6690012   5.4224997 127.5479988  41.2912823   6.1643545 127.8007213
  45.0260012   6.2644997 125.5509988  45.9570012   6.3934997 125.7289988
  44.8110012   6.9344997 124.9009988  45.1244247   6.3726565 125.4875747
  50.9490012   3.8704997 132.3319988  50.2730012   4.0014997 132.9959988
  50.4640012   3.7154997 131.5209988  50.7907146   3.8675157 132.3134469
  43.7000012   7.4594997 123.1169988  43.1570012   7.0794997 122.4259988
  44.5330012   7.6534997 122.6889988  43.7383631   7.4337125 122.9644501
  54.2370012  19.5424997 138.6079988  54.4370012  19.9664997 137.7739988
  54.8920012  19.8854997 139.2149988  54.3530072  19.6469857 138.5758592
  41.8350012  12.0164997 138.2159988  42.5670012  12.2704997 138.7779988
  41.0550012  12.2204997 138.7319988  41.8297073  12.0788160 138.3626151
  47.8640012   7.4234997 130.9539988  48.4290012   6.8764997 130.4069988
  47.7170012   6.9014997 131.7429988  47.9213380   7.2782259 130.9858695
  42.8660012   3.5594997 127.3729988  42.5490012   2.6574997 127.3369988
  43.6480012   3.5614997 126.8199988  42.9282408   3.4362474 127.2933569
  46.4910012   5.8114997 133.3679988  45.6550012   6.2654997 133.4789988
  47.0150012   6.0874997 134.1199988  46.4475416   5.9108660 133.4848119
  47.0350012  12.0244997 125.0529988  46.2900012  11.5174997 124.7309988
  46.9010012  12.0734997 125.9999988  46.9148776  11.9616940 125.1368647
  54.1850012  11.1574997 133.8399988  54.8270012  11.6144997 133.2959988
  53.3550012  11.2704997 133.3769988  54.1605963  11.2352704 133.7030177
  50.9330012   4.8384997 123.2519988  49.9940012   4.9504997 123.1009988
  51.2300012   5.6954997 123.5589988  50.8447583   4.9695981 123.2728337
  48.5540012  12.2084997 136.2899988  48.2090012  11.8274997 137.0969988
  48.3540012  13.1424997 136.3609988  48.4797527  12.2825135 136.4100689
  51.6510012   6.7054997 124.9129988  52.5430012   6.5684997 125.2319988
  51.7080012   7.4964997 124.3759988  51.7806504   6.7936052 124.8840818
  42.1600012  11.3194997 130.8229988  42.9050012  11.3174997 130.2219988
  42.2380012  10.4964997 131.3039988  42.2724995  11.2078887 130.8058282
  49.1610012  13.4834997 124.0789988  48.8650012  14.3094997 124.4599988
  48.4580012  12.8634997 124.2749988  49.0254914  13.5128199 124.1576443
  39.1680012   9.7804997 136.1379988  39.3910012   9.3624997 136.9699988
  38.5660012   9.1674997 135.7149988  39.1171759   9.6404668 136.1947022
  46.1840012   9.2974997 138.3509988  45.8880012   9.1314997 137.4559988
  47.1160012   9.0774997 138.3399988  46.2694166   9.2450640 138.2270536
  50.8050012  14.6704997 136.2409988  49.9040012  14.8534997 135.9729988
  50.8390012  14.9294997 137.1609988  50.6863139  14.7305849 136.3288099
  56.5360012   6.9154997 124.6079988  55.9820012   6.5194997 123.9359988
  56.6360012   7.8254997 124.3299988  56.4737059   6.9843586 124.4784401
  56.4990012  12.7154997 137.4449988  55.6480012  12.9534997 137.0779988
  57.0900012  12.6984997 136.6919988  56.4622487  12.7458258 137.2928893
  54.8310012  15.7014997 125.0729988  54.4580012  14.8754997 125.3819988
  55.1090012  15.5184997 124.1749988  54.8175222  15.5637430 124.9939473
  51.9920012  10.5094997 132.0939988  51.0630012  10.2774997 132.0669988
  52.4430012   9.7324997 131.7639988  51.9259216  10.3727238 132.0456917
  44.5350012  14.8374997 128.2269988  45.0620012  15.6104997 128.0269988
  43.6550012  15.0624997 127.9249988  44.4882031  14.9737545 128.1587912
  40.2900012   9.6994997 122.8139988  40.9060012  10.3264997 123.1939988
  39.4280012  10.0154997 123.0859988  40.2577698   9.8279430 122.9027183
  45.9620012  12.5004997 127.8029988  45.7210012  13.4254997 127.8449988
  45.2210012  12.0414997 128.1999988  45.8289225  12.5650933 127.8623742
  46.4770012  16.6494997 134.1189988  46.8390012  17.5044997 133.8849988
  47.0080012  16.3574997 134.8589988  46.5984473  16.7271060 134.1870855
  44.6450012  17.5224997 127.3489988  43.6950012  17.6274997 127.3999988
  44.9970012  18.3424997 127.6929988  44.5624195  17.6478800 127.4025502
  50.0210012  12.7484997 133.8189988  49.5950012  12.5214997 134.6459988
  50.6010012  12.0104997 133.6369988  50.0411868  12.6175299 133.9075830
  52.2240012  13.6774997 122.8929988  52.5770012  13.2974997 123.6969988
  51.2750012  13.5844997 122.9799988  52.1440918  13.6128956 123.0148532
  52.6790012  17.3004997 136.2889988  52.0780012  16.7454997 135.7929988
  52.9610012  17.9674997 135.6619988  52.6348804  17.3146625 136.1364849
  56.7270012  18.1574997 123.0939988  57.4710012  18.7434997 122.9539988
  56.0330012  18.7254997 123.4269988  56.7349899  18.3145798 123.1198778
  40.8020012   4.5334997 135.6959988  39.9090012   4.8724997 135.6279988
  40.7030012   3.6784997 136.1139988  40.6664164   4.4642588 135.7432235
  53.0900012  12.3504997 125.1199988  52.8120012  11.6224997 125.6759988
  54.0170012  12.4694997 125.3249988  53.1773124  12.2668802 125.2238845
  40.4530012  16.3384997 134.1309988  40.6700012  15.4064997 134.0999988
  40.6990012  16.6124997 135.0139988  40.5159549  16.2480636 134.2461763
  46.3150012  14.7894997 121.3399988  46.5540012  14.0414997 120.7929988
  46.0460012  14.4014997 122.1729988  46.3113675  14.6346638 121.3776865
  45.2520012  14.3594997 123.7959988  45.3980012  13.8394997 124.5859988
  45.2490012  15.2664997 124.1029988  45.2715792  14.4108842 123.9456117
  41.7050012  11.6124997 124.3069988  41.0190012  11.9644997 124.8739988
  42.2270012  12.3754997 124.0599988  41.6816852  11.7638578 124.3512118
  49.5360012   4.2744997 134.5859988  50.2350012   4.3484997 135.2359988
  49.1550012   3.4104997 134.7399988  49.5801767   4.1677624 134.6958322
  50.3210012   3.9264997 125.6829988  50.5410012   4.3984997 124.8799988
  50.8790012   4.3214997 126.3529988  50.4264968   4.0444285 125.6637331
  47.9890012  16.0574997 124.5459988  47.1730012  16.5544997 124.5979988
  48.5190012  16.5324997 123.9059988  47.9489161  16.1897722 124.4665956
  47.5210012   5.6544997 126.5179988  48.3330012   6.1594997 126.5639988
  47.2760012   5.5094997 127.4319988  47.5990520   5.7040375 126.6478517
  48.0560012   6.6404997 135.7019988  48.1750012   7.2144997 136.4599988
  48.7120012   5.9524997 135.8169988  48.1609025   6.6259858 135.8211321
  48.4040012   2.7354997 127.4559988  48.0580012   3.3534997 128.0999988
  49.0630012   3.2364997 126.9739988  48.4456968   2.8876278 127.4789383
  45.3280012  17.1014997 124.5269988  45.4880012  17.9004997 124.0269988
  45.1300012  17.4074997 125.4119988  45.3231637  17.2524020 124.5781144
  44.0620012   3.7984997 124.1429988  43.9790012   4.6874997 124.4899988
  44.9520012   3.5334997 124.3749988  44.1709469   3.8841430 124.2217626
  54.2610012   4.5474997 136.5369988  53.3440012   4.8104997 136.4499988
  54.5960012   4.5444997 135.6409988  54.1808613   4.5830761 136.4038837
  52.8630012   8.2984997 130.6329988  52.0650012   7.8834997 130.3049988
  53.3080012   7.6074997 131.1239988  52.8139885   8.1483543 130.6544889
  42.3210012  14.2264997 123.2039988  42.9130012  14.9254997 123.4799988
  42.7800012  13.7934997 122.4839988  42.4641142  14.2637049 123.1444830
  40.6370012   6.8904997 122.3199988  40.5920012   7.8294997 122.4979988
  39.7490012   6.6544997 122.0499988  40.5108574   6.9871892 122.3078912
  53.9490012  17.5544997 132.2559988  53.7940012  18.2324997 131.5979988
  54.8820012  17.6264997 132.4589988  54.0538657  17.6569546 132.1934360
  41.4450012   1.6724997 130.9929988  41.2160012   1.7314997 130.0649988
  41.0020012   0.8804997 131.2989988  41.3538530   1.5735753 130.9074786
  40.3750012  15.6124997 127.1529988  39.5430012  16.0854997 127.1799988
  40.9210012  16.1224997 126.5549988  40.3350352  15.7461332 127.0758463
  39.6630012  18.2254997 138.4829988  40.2040012  18.0084997 139.2429988
  39.1820012  17.4194997 138.2929988  39.6719951  18.0869270 138.5612576
  44.2610012  17.1444997 140.1029988  45.0280012  16.6854997 140.4439988
  44.2390012  16.9184997 139.1739988  44.3631275  17.0510186 140.0240101
  48.3530012  16.6524997 121.4789988  47.7090012  16.0214997 121.7999988
  49.1150012  16.1214997 121.2469988  48.3678077  16.4942920 121.4916011
  50.8380012  15.5244997 138.8329988  50.4870012  14.6684997 139.0759988
  51.5640012  15.6674997 139.4399988  50.8880769  15.4265636 138.9483619
  52.9570012  16.4694997 121.7119988  53.2400012  15.6754997 122.1649988
  53.6970012  16.7024997 121.1519988  53.0958006  16.3923376 121.6982715
  39.5700012  12.0354997 139.4369988  39.7140012  11.1334997 139.1509988
  38.7980012  12.3214997 138.9499988  39.4852753  11.9506816 139.3319505
  43.9120012  12.3794997 121.5699988  43.9760012  11.5854997 122.1009988
  44.5650012  12.2604997 120.8799988  44.0090241  12.2547148 121.5494317
  46.2260012  12.0054997 138.8699988  45.8970012  12.2764997 138.0129988
  46.3780012  11.0644997 138.7829988  46.2014809  11.9153862 138.7408244
  49.2640012  13.4264997 121.3059988  48.9950012  13.6064997 122.2069988
  49.0580012  12.5004997 121.1739988  49.1993427  13.3260261 121.4115073
  51.9600012  11.9214997 136.2529988  52.7060012  12.5094997 136.1339988
  51.2030012  12.5034997 136.3169988  51.9597820  12.0807143 136.2453590
  40.4030012   9.2354997 138.8569988  40.8110012   8.3784997 138.7359988
  40.1430012   9.2504997 139.7779988  40.4237568   9.1200807 138.9649588
  45.0610012  10.3514997 123.8759988  44.6010012   9.8674997 124.5619988
  45.3160012   9.6834997 123.2399988  45.0324902  10.1948731 123.8839334
  44.3500012   8.2444997 136.2319988  43.7320012   8.9194997 136.5119988
  44.6940012   8.5654997 135.3979988  44.3119132   8.3802411 136.1576262
  46.1320012   8.5944997 122.1379988  45.9520012   8.4404997 121.2109988
  47.0820012   8.7024997 122.1829988  46.2357776   8.5880175 122.0171843
  49.3700012  10.7164997 139.5089988  50.3230012  10.7994997 139.4819988
  49.2090012  10.0044997 140.1289988  49.4786426  10.6316746 139.5890579
  55.5220012  10.9494997 121.5839988  55.2480012  10.5244997 120.7709988
  55.5610012  11.8804997 121.3669988  55.4897699  11.0172484 121.4433610
  44.6890012   5.5994997 137.3139988  44.8390012   4.8704997 136.7119988
  44.6920012   6.3764997 136.7549988  44.7099302   5.6047851 137.1560692
  45.1020012   3.9694997 134.8069988  45.6380012   4.4204997 134.1549988
  44.2500012   3.8614997 134.3839988  45.0602178   4.0166390 134.6605756
  46.6840012   9.4084997 135.0459988  47.4340012   9.2524997 134.4729988
  46.3450012  10.2604997 134.7709988  46.7408921   9.5022968 134.9303561
  51.0990012   7.2234997 140.0749988  51.2920012   6.2924997 139.9629988
  51.9570012   7.6484997 140.0639988  51.2412934   7.1536531 140.0582031
  52.4160012  10.0124997 138.1519988  52.1350012  10.7214997 137.5739988
  53.3590012   9.9394997 138.0009988  52.5049291  10.0996711 138.0524967
  43.1680012   6.7974997 139.2259988  42.4010012   6.2654997 139.0149988
  43.8470012   6.4874997 138.6259988  43.1547877   6.6828300 139.1160716
  45.9080012   1.4254997 135.2379988  45.8090012   2.3724997 135.1329988
  45.1650012   1.0534997 134.7619988  45.7941184   1.5045863 135.1593621
  47.1720012   5.7474997 138.8019988  46.9360012   5.5274997 139.7029988
  46.3880012   5.5404997 138.2919988  47.0338504   5.6894586 138.8563431
  49.8870012   4.8744997 137.8769988  48.9400012   4.9064997 138.0099988
  50.2000012   4.2494997 138.5309988  49.7996707   4.7943998 137.9836060
  51.5210012   3.5084997 139.8829988  51.4250012   2.5564997 139.8769988
  51.2000012   3.7774997 140.7429988  51.4644070   3.4144035 139.9985441
  41.3480012   4.7184997 138.9299988  41.5600012   4.0114997 138.3199988
  41.2370012   4.2804997 139.7739988  41.3619721   4.5627084 138.9606843
  46.1290012   0.7194997 137.9089988  46.8410012   0.0794997 137.8949988
  46.0280012   0.9864997 136.9959988  46.2128066   0.6680079 137.7835677
  46.4830012   2.4024997 139.9629988  46.3510012   1.9264997 139.1429988
  45.8840012   3.1464997 139.9079988  46.3839071   2.4379618 139.8432886
  46.0290012  19.2854997 123.1389988  46.9620012  19.4434997 123.2829988
  45.7650012  19.9604997 122.5149988  46.1209888  19.3984510 123.0742842
  39.5980012  13.9214997 122.6219988  40.5120012  14.0004997 122.8959988
  39.6050012  13.2344997 121.9559988  39.7241131  13.8393961 122.5694393
  38.2470012  19.3144997 127.6999988  37.6000012  18.8524997 127.1669988
  38.6010012  18.6424997 128.2819988  38.2063849  19.1604723 127.7057959
  39.1170012  17.3954997 129.5039988  38.7820012  16.5154997 129.6759988
  39.3390012  17.7404997 130.3689988  39.1011783  17.3217500 129.6444208
  56.6650012  18.2044997 132.4849988  56.6440012  18.3894997 133.4239988
  57.3560012  18.7734997 132.1439988  56.7554618  18.3066606 132.5673864
  56.2290012  17.7724997 135.4069988  55.7410012  17.0364997 135.0349988
  56.7780012  17.3784997 136.0849988  56.2364820  17.6185889 135.4477813
  54.6790012  13.5614997 140.0449988  53.8130012  13.4564997 140.4389988
  55.0560012  14.3204997 140.4909988  54.6113308  13.6496900 140.1592393
  55.9800012  11.8184997 125.5589988  56.8300012  12.2394997 125.6859988
  55.9860012  11.0784997 126.1659988  56.0971372  11.7760803 125.6584344
  56.3750012   9.8714997 127.3819988  55.6480012   9.3924997 127.7799988
  56.9560012  10.0774997 128.1149988  56.3540473   9.8338103 127.5354528
  56.1340012  12.6564997 132.3299988  56.9670012  12.2784997 132.0499988
  56.2460012  13.5994997 132.2109988  56.2632647  12.7322218 132.2755487
  54.6200012  15.5344997 134.6369988  53.9730012  15.8594997 135.2629988
  54.1030012  15.0944997 133.9629988  54.4614029  15.5195004 134.6315827
  56.6430012   9.7724997 123.7739988  56.1210012  10.1294997 123.0549988
  56.6100012  10.4474997 124.4519988  56.5671634   9.9125413 123.7673145
  54.9920012   7.0124997 122.3239988  55.0880012   7.6794997 121.6439988
  54.8520012   6.1964997 121.8429988  54.9862272   6.9935655 122.1658347
  54.1610012   8.3924997 127.9449988  54.0110012   7.4474997 127.9249988
  53.8080012   8.6734997 128.7889988  54.0927448   8.3011481 128.0563705
  39.1970012  10.4704997 131.9559988  39.3810012  10.3884997 131.0199988
  40.0460012  10.3464997 132.3789988  39.3370151  10.4425073 131.8851451
  55.0180012  10.3624997 137.5839988  55.6010012   9.6284997 137.7759988
  55.5820012  11.1344997 137.6309988  55.1739769  10.3664227 137.6166159
  56.5140012   8.2654997 138.2689988  55.6510012   7.8864997 138.1029988
  57.1190012   7.5264997 138.1939988  56.4776119   8.1138268 138.2361528
  54.2390012   4.4204997 121.4419988  54.8500012   4.0494997 122.0789988
  53.4030012   3.9994997 121.6379988  54.2095032   4.3127554 121.5557035
  53.8720012   5.9754997 126.4079988  54.1520012   5.0684997 126.5319988
  54.6310012   6.4094997 126.0189988  54.0129277   5.9100942 126.3723682
  54.4840012   6.5564997 131.8439988  55.4170012   6.7684997 131.8089988
  54.2490012   6.6584997 132.7659988  54.5799244   6.5993100 131.9638892
  54.5130012   7.2934997 134.6199988  53.6700012   7.5614997 134.9859988
  54.9550012   8.1154997 134.4089988  54.4574158   7.4413291 134.6415491
  38.7940012   5.7414997 138.0969988  39.7140012   5.6194997 138.3329988
  38.3450012   4.9914997 138.4859988  38.8591580   5.6233727 138.1819006
  56.7960012   1.2734997 139.9729988  57.1460012   0.6194997 139.3679988
  56.9430012   2.1104997 139.5329988  56.8637887   1.2971548 139.8306858
  54.4850012   3.2384997 126.4559988  54.6680012   2.7894997 127.2819988
  53.8860012   2.6534997 125.9929988  54.4290202   3.0979975 126.5063275
  40.0150012   4.0534997 130.9879988  40.4610012   3.2614997 131.2899988
  40.4820012   4.7694997 131.4179988  40.1390831   4.0420685 131.0874006
  38.3190012   7.0524997 132.0569988  38.8110012   6.8314997 131.2659988
  38.6820012   7.8934997 132.3379988  38.4353126   7.1358357 131.9867531
  56.3160012   3.3824997 138.3219988  55.3980012   3.6534997 138.2869988
  56.4390012   2.8474997 137.5379988  56.2069729   3.3472508 138.2111923
  56.3520012   3.3054997 122.9839988  56.7640012   2.5844997 122.5089988
  57.0340012   3.9754997 123.0429988  56.5005885   3.2972368 122.9268915
  38.6330012   3.3104997 126.1109988  37.7080012   3.5194997 125.9819988
  39.0870012   3.7944997 125.4209988  38.5677292   3.4045343 126.0000720
  53.4040012  18.2944997 128.0569988  54.0560012  17.9474997 127.4489988
  53.9140012  18.7834997 128.7029988  53.5622637  18.3130597 128.0610236
  38.5970012   2.0484997 134.4549988  37.9320012   1.8024997 135.0989988
  38.1540012   2.6704997 133.8779988  38.4461318   2.0989410 134.4650898
  40.7890012  15.2234997 138.5999988  39.9680012  15.3984997 138.1389988
  40.5360012  15.1504997 139.5199988  40.6425585  15.2375544 138.6613561
  43.7430012  16.1984997 134.8579988  43.3180012  17.0074997 134.5759988
  44.6470012  16.2834997 134.5559988  43.8069975  16.3209300 134.7784816
  48.0540012  17.5974997 137.8179988  48.2390012  17.2634997 138.6959988
  48.9000012  17.9064997 137.4959988  48.1937539  17.5936047 137.8945605
  50.3990012  18.8834997 137.0619988  51.0760012  18.2504997 136.8219988
  50.7210012  19.2844997 137.8689988  50.5351637  18.8511154 137.1382793
  55.3160012   1.4724997 136.1409988  54.5040012   1.7974997 135.7539988
  55.5490012   0.7124997 135.6079988  55.2362203   1.4142758 136.0158880
  41.1450012  19.4544997 134.9059988  40.4240012  19.8944997 134.4549988
  40.7790012  19.2034997 135.7539988  40.9969651  19.4807242 134.9589640
  43.6120012  19.0544997 133.9359988  42.7470012  19.1264997 134.3399988
  43.5570012  19.6014997 133.1519988  43.4862085  19.1382685 133.8853362
  48.3220012  18.9424997 133.1109988  47.8660012  19.4714997 132.4569988
  48.4850012  19.5454997 133.8359988  48.2816068  19.0964607 133.1194838
  50.6500012  17.8204997 134.0559988  49.7450012  17.9854997 133.7899988
  51.0790012  18.6734997 133.9909988  50.5841324  17.9584339 134.0107976
  53.2540012  19.3904997 134.3509988  53.0720012  20.3064997 134.1409988
  53.4310012  18.9804997 133.5049988  53.2530210  19.4604822 134.2077885
  40.5590012  18.0774997 131.8159988  40.5410012  17.6524997 132.6729988
  41.3640012  17.7594997 131.4069988  40.6653529  17.9763013 131.8780946
  42.7010012  16.7874997 130.4709988  42.4820012  15.8714997 130.6409988
  43.5250012  16.9274997 130.9369988  42.7824420  16.6810520 130.5572774
  45.2380012  17.2574997 131.3199988  45.4510012  16.3694997 131.0329988
  45.3020012  17.2234997 132.2739988  45.2758232  17.1313102 131.4097397
  48.7460012   2.9214997 130.4639988  48.0720012   2.2924997 130.7199988
  49.3100012   2.4374997 129.8609988  48.7299230   2.7698744 130.4175340
  53.8890012   1.0294997 130.5769988  54.4930012   1.5764997 130.0749988
  53.0190012   1.3484997 130.3359988  53.8541208   1.1475137 130.4756886
  55.6160012   2.1674997 128.9099988  56.2280012   1.6534997 128.3829988
  55.9980012   3.0454997 128.9329988  55.7513371   2.2157866 128.8410041
  41.0730012   1.5554997 128.2859988  40.2960012   1.3214997 127.7789988
  41.6030012   0.7584997 128.2949988  41.0382330   1.4156988 128.2177742
  39.9090012   1.3534997 124.0899988  40.3480012   1.9644997 123.4979988
  39.2760012   1.8914997 124.5639988  39.8834514   1.5099257 124.0730930
  45.6520012   1.4824997 128.0999988  46.5270012   1.8704997 128.0699988
  45.5160012   1.2674997 129.0219988  45.7533695   1.5065184 128.2206440
  51.2090012   1.5124997 129.7489988  51.2850012   1.6074997 128.7989988
  50.9340012   0.6044997 129.8779988  51.1822321   1.4027867 129.6365079
  52.5620012   1.5384997 125.4409988  51.8600012   2.1534997 125.2309988
  52.1180012   0.7004997 125.5719988  52.4056450   1.5095639 125.4299000
  39.8100012  17.3014997 124.9869988  39.1250012  17.2634997 124.3199988
  39.8140012  18.2144997 125.2759988  39.7166998  17.4196733 124.9346771
  41.7700012   3.2694997 122.5319988  42.2620012   2.6394997 122.0049988
  42.3940012   3.5654997 123.1949988  41.9215688   3.2233804 122.5495482
  46.7960012   3.5624997 124.9889988  46.9740012   2.9164997 125.6719988
  46.7430012   4.3964997 125.4559988  46.8131999   3.5868009 125.1455917
  48.6750012  18.5114997 123.3849988  49.5410012  18.8774997 123.2069988
  48.4280012  18.0714997 122.5709988  48.7602392  18.5021756 123.2506289
  55.3840012  18.0744997 126.0639988  55.1890012  17.3264997 125.4989988
  55.3450012  18.8324997 125.4809988  55.3520380  18.0746099 125.9078384
  41.0310012   2.0694997 137.8039988  40.6650012   1.3044997 138.2459988
  41.9440012   2.0984997 138.0899988  41.1042736   1.9685640 137.9032502
  43.0040012   1.4204997 139.3399988  43.9020012   1.1464997 139.1549988
  42.6170012   0.6774997 139.8039988  43.0746612   1.2825914 139.3773643
  41.6280012  18.2214997 122.0129988  41.3610012  18.5084997 122.8859988
  42.4000012  17.6754997 122.1649988  41.6957488  18.1870294 122.1531050
  51.4250012   0.7524997 139.5219988  51.5020012   0.3264997 140.3759988
  52.3190012   0.7664997 139.1789988  51.5563428   0.6960879 139.5925310
  54.6010012  16.8254997 138.2139988  53.8190012  16.6394997 137.6939988
  54.5290012  17.7544997 138.4319988  54.4842274  16.9256643 138.1723018
  69.0070012  10.7114997 128.2449988  69.0960012  11.6554997 128.1129988
  68.3690012  10.4364997 127.5869988  68.9329081  10.8034830 128.1379614
  67.9400012   9.9664997 131.6639988  67.9020012   9.3204997 132.3689988
  67.6180012   9.5004997 130.8929988  67.8912333   9.8149408 131.6562978
  60.3090012   9.5814997 133.2569988  60.3500012   8.9554997 133.9799988
  61.0120012  10.2054997 133.4389988  60.4096363   9.5801196 133.3806044
  71.6460012  12.9054997 129.9649988  71.2060012  12.1854997 130.4159988
  71.6330012  13.6264997 130.5949988  71.5840226  12.9043731 130.1118494
  61.2320012  14.0314997 131.7919988  60.8630012  13.2294997 131.4219988
  62.1730012  13.8624997 131.8379988  61.3087289  13.8990153 131.7476316
  57.8420012   7.6914997 127.1849988  57.3950012   8.5374997 127.1659988
  57.2810012   7.1114997 126.6689988  57.7049900   7.7289916 127.1126801
  58.5530012   9.8534997 129.3099988  58.7660012   9.0834997 129.8379988
  59.2910012   9.9424997 128.7069988  58.6819044   9.7601968 129.3007123
  68.7580012  18.0104997 130.1769988  69.3780012  17.3334997 129.9039988
  68.5500012  17.7924997 131.0859988  68.8146726  17.8884800 130.2624812
  66.3300012  12.3994997 132.0699988  66.6340012  11.7134997 131.4749988
  67.0510012  12.5174997 132.6879988  66.4690671  12.3216305 132.0721816
  74.9930012   4.0004997 132.9309988  75.0420012   4.6104997 133.6659988
  75.4180012   4.4614997 132.2079988  75.0571746   4.1463796 132.9339175
  69.4710012   6.7934997 132.3969988  69.6130012   5.8474997 132.4179988
  69.3640012   7.0004997 131.4689988  69.4759919   6.6918246 132.2743408
  62.6250012   4.8944997 129.6699988  62.6690012   5.7544997 129.2509988
  62.1680012   4.3424997 129.0359988  62.5692240   4.9374422 129.5269864
  70.3480012   5.0254997 128.0709988  70.9940012   4.6964997 128.6949988
  70.8580012   5.5434997 127.4479988  70.5054299   5.0504450 128.0722731
  59.2460012   7.2914997 130.4319988  59.8990012   6.7414997 130.8639988
  59.2700012   7.0174997 129.5149988  59.3386683   7.1791466 130.3672123
  64.4020012   8.8414997 129.6469988  65.0180012   8.3154997 130.1569988
  63.8160012   8.2014997 129.2439988  64.4070810   8.6829208 129.6623173
  75.3840012   5.4784997 135.1659988  74.6960012   6.1364997 135.0709988
  75.4000012   5.2814997 136.1029988  75.2919540   5.5419819 135.2795990
  61.4360012   3.8124997 133.7439988  61.2170012   4.3424997 132.9779988
  60.7680012   4.0394997 134.3909988  61.3157600   3.9156906 133.7266379
  68.8050012  13.3124997 127.2879988  68.5090012  12.9904997 126.4369988
  68.4800012  14.2124997 127.3289988  68.7206371  13.3900215 127.1771801
  64.0050012  11.4884997 134.0309988  63.2650012  12.0864997 134.1349988
  64.7190012  12.0424997 133.7159988  64.0002237  11.6452831 134.0026465
  72.1120012   4.3164997 130.0509988  71.8960012   3.5504997 130.5839988
  72.7670012   4.7884997 130.5639988  72.1710632   4.2755889 130.1932861
  61.0290012   5.7044997 131.6959988  61.6430012   6.3374997 132.0689988
  61.5410012   5.2324997 131.0399988  61.1821981   5.7272267 131.6582908
  62.4120012  13.4524997 134.8179988  62.4070012  14.3324997 134.4399988
  61.5590012  13.3694997 135.2429988  62.2959464  13.5616117 134.8237907
  58.5330012  13.1234997 125.5999988  58.2610012  13.3524997 124.7119988
  58.5790012  13.9614997 126.0609988  58.5019482  13.2681318 125.5406273
  72.1580012  14.7454997 132.3129988  71.2170012  14.8034997 132.4749988
  72.4350012  15.6514997 132.1759988  72.0664679  14.8759443 132.3166815
  72.4590012   3.0314997 133.7309988  71.7230012   3.6424997 133.6929988
  73.1420012   3.4464997 133.2039988  72.4506541   3.1711374 133.6545832
  65.4620012   1.1184997 131.1959988  65.3450012   0.1694997 131.1419988
  64.6070012   1.4504997 131.4699988  65.3304212   1.0335571 131.2256497
  70.4100012  16.5264997 128.9379988  70.8360012  15.8194997 128.4529988
  70.7270012  17.3274997 128.5219988  70.5111683  16.5381017 128.8153680
  71.5700012  14.4274997 127.4469988  71.3120012  13.7374997 126.8359988
  71.6410012  13.9844997 128.2929988  71.5442856  14.2732124 127.4776885
  73.2560012  12.9934997 135.9239988  73.3960012  12.4024997 135.1849988
  73.4230012  13.8664997 135.5679988  73.2977411  13.0305428 135.7746894
  67.7290012   9.9554997 125.6969988  67.0170012  10.4904997 125.3449988
  68.4200012  10.0114997 125.0369988  67.7250132  10.0362543 125.5596289
  67.7820012   8.4134997 122.7359988  68.4830012   8.4354997 123.3869988
  68.0850012   7.7854997 122.0789988  67.9188133   8.3317070 122.7363369
  75.0980012   9.3334997 133.9899988  74.4450012  10.0284997 134.0799988
  75.5630012   9.5434997 133.1809988  75.0715274   9.4570643 133.8928462
  71.1340012  10.1654997 126.6489988  70.4020012  10.3934997 127.2219988
  71.5820012   9.4514997 127.1029988  71.0942725  10.1002145 126.7888816
  71.0320012   8.3394997 135.7159988  71.1120012   9.1024997 136.2879988
  70.4300012   8.6184997 135.0259988  70.9615756   8.4817134 135.7010589
  62.7800012  10.7954997 128.5309988  62.4490012  10.4254997 127.7129988
  63.3680012  10.1254997 128.8779988  62.8141873  10.6541156 128.4658102
  64.1460012  14.2234997 131.2119988  64.0520012  13.6454997 130.4559988
  64.8760012  13.8524997 131.7089988  64.2317387  14.0941663 131.1755342
  63.1460012   9.5644997 132.1649988  63.7120012   9.6854997 131.4019988
  63.4650012  10.2014997 132.8029988  63.2665474   9.6672219 132.1469862
  69.4550012  15.0674997 132.8989988  69.2150012  15.7294997 133.5469988
  69.2570012  14.2334997 133.3239988  69.3953808  15.0453134 133.0451524
  64.0260012  13.9634997 136.8819988  63.7150012  14.7454997 137.3369988
  63.3760012  13.8104997 136.1959988  63.8955558  14.0499105 136.8515871
  70.0050012   9.3274997 124.3339988  70.5850012   9.4774997 125.0809988
  70.4190012   9.7984997 123.6099988  70.1402997   9.4116578 124.3384058
  60.9460012  10.1614997 136.1099988  61.0170012  10.8124997 136.8089988
  60.0560012  10.2644997 135.7749988  60.8353005  10.2645427 136.1603495
  67.7320012  16.0644997 127.7689988  68.2060012  16.3594997 128.5459988
  67.1690012  16.8024997 127.5359988  67.7208184  16.2047247 127.8439628
  62.2660012  16.0354997 137.6449988  62.2730012  15.8994997 136.6979988
  61.3500012  15.9174997 137.8969988  62.1431714  16.0009430 137.5494666
  73.7040012   1.0774997 124.1469988  72.8040012   1.2164997 124.4419988
  73.9560012   1.9084997 123.7449988  73.6148702   1.2089074 124.1330205
  61.7700012   9.8654997 126.1199988  61.4780012  10.6334997 125.6299988
  61.0960012   9.2054997 125.9579988  61.6388111   9.8815587 126.0308978
  74.8930012  15.4434997 122.5229988  74.9670012  16.3824997 122.6939988
  75.7990012  15.1384997 122.4669988  75.0255100  15.5306722 122.5388119
  57.8630012  12.2284997 134.9349988  57.3620012  12.2004997 134.1199988
  57.8680012  11.3224997 135.2449988  57.7950944  12.1022396 134.8653226
  57.6130012  15.0084997 131.8189988  58.5590012  14.8644997 131.7999988
  57.5010012  15.7924997 132.3559988  57.7272727  15.0948046 131.8890072
  75.8110012  15.6744997 137.5019988  75.7620012  14.7194997 137.4649988
  74.9840012  15.9424997 137.9029988  75.6924940  15.5798998 137.5511375
  66.7900012  15.2484997 136.3779988  66.8770012  16.0744997 136.8529988
  65.9260012  14.9184997 136.6269988  66.6851964  15.3169878 136.4766549
  67.2040012  19.0204997 126.1839988  67.1290012  18.8994997 125.2369988
  67.2370012  19.9704997 126.3019988  67.1982068  19.1322646 126.0704967
  60.8570012  17.8094997 127.9649988  61.0100012  17.4614997 128.8429988
  60.0070012  17.4534997 127.7099988  60.7629166  17.7136217 128.0508079
  70.3060012  18.1744997 123.1859988  70.6810012  17.4304997 122.7149988
  70.3100012  17.9044997 124.1049988  70.3579125  18.0360986 123.2456483
  69.9750012  18.1004997 125.9349988  69.0390012  18.2004997 126.1139988
  70.2550012  17.3914997 126.5139988  69.8849553  18.0183406 126.0377087
  72.9630012   7.1674997 137.9819988  72.5560012   7.6484997 137.2609988
  73.0040012   6.2624997 137.6739988  72.9128437   7.1109374 137.8416683
  60.1120012  13.5514997 135.9789988  60.3280012  13.1904997 136.8379988
  59.2570012  13.1774997 135.7689988  60.0259292  13.4514111 136.0683386
  62.7310012   2.0214997 131.9739988  61.8690012   1.9344997 131.5659988
  62.7080012   2.8774997 132.4019988  62.6100409   2.1252883 131.9760589
  67.3940012   1.7434997 135.3489988  67.8140012   1.3284997 136.1019988
  66.4610012   1.5654997 135.4659988  67.3253644   1.6625900 135.4679539
  70.7200012   5.4994997 136.2019988  70.2060012   5.3734997 136.9999988
  70.5650012   6.4114997 135.9579988  70.6286852   5.6056132 136.2782158
  71.4830012  10.3604997 121.9639988  71.5250012  10.1374997 121.0339988
  72.3320012  10.7594997 122.1529988  71.6035280  10.3839438 121.8623554
  67.0550012   4.2364997 122.6339988  66.8020012   4.2554997 123.5569988
  66.7990012   3.3644997 122.3319988  66.9857481   4.1212558 122.7196175
  62.8220012   6.9874997 133.0689988  62.1800012   6.9464997 133.7779988
  62.8590012   7.9134997 132.8309988  62.7390664   7.1071430 133.1339219
  62.8190012   7.2084997 127.9809988  61.9260012   6.8674997 127.9219988
  63.2690012   6.8314997 127.2249988  62.7578130   7.1109631 127.8707702
  68.3540012   7.6244997 126.7979988  67.9450012   8.4394997 126.5069988
  69.0750012   7.4844997 126.1839988  68.3954537   7.7172018 126.6751342
  67.4560012   7.7994997 138.2859988  66.8940012   7.0954997 138.6069988
  68.2830012   7.6794997 138.7539988  67.4907095   7.6867883 138.3932330
  69.3590012   7.0704997 129.6119988  69.1640012   7.6754997 128.8969988
  69.5400012   6.2364997 129.1779988  69.3567614   7.0406300 129.4554405
  60.5720012   7.3074997 134.9359988  60.5340012   7.7074997 135.8049988
  60.0810012   6.4904997 135.0269988  60.5004684   7.2518069 135.0671059
  63.9380012   4.6814997 121.7349988  63.5070012   4.2364997 122.4649988
  63.2200012   5.0534997 121.2229988  63.7819438   4.6708940 121.7656799
  57.1800012   4.4234997 128.7869988  57.8110012   4.3944997 129.5059988
  57.6290012   3.9984997 128.0559988  57.3270918   4.3620836 128.7866441
  58.4540012   5.1694997 124.2109988  58.9280012   5.7604997 123.6259988
  57.7370012   5.7004997 124.5579988  58.4219341   5.3220867 124.1778836
  68.6230012   8.7084997 134.2829988  68.9460012   8.0774997 133.6399988
  68.1830012   8.1734997 134.9439988  68.6077484   8.5498387 134.2843198
  65.4000012   4.6354997 129.0669988  64.4890012   4.6924997 129.3559988
  65.9060012   4.5754997 129.8779988  65.3436899   4.6351941 129.2161184
  60.2290012   6.2644997 127.8939988  59.3390012   6.3644997 127.5539988
  60.5250012   5.4224997 127.5479988  60.1472823   6.1643545 127.8007213
  63.8820012   6.2644997 125.5509988  64.8130012   6.3934997 125.7289988
  63.6670012   6.9344997 124.9009988  63.9804247   6.3726565 125.4875747
  69.8050012   3.8704997 132.3319988  69.1290012   4.0014997 132.9959988
  69.3200012   3.7154997 131.5209988  69.6467146   3.8675157 132.3134469
  62.5560012   7.4594997 123.1169988  62.0130012   7.0794997 122.4259988
  63.3890012   7.6534997 122.6889988  62.5943631   7.4337125 122.9644501
  73.0930012  19.5424997 138.6079988  73.2930012  19.9664997 137.7739988
  73.7480012  19.8854997 139.2149988  73.2090072  19.6469857 138.5758592
  60.6910012  12.0164997 138.2159988  61.4230012  12.2704997 138.7779988
  59.9110012  12.2204997 138.7319988  60.6857073  12.0788160 138.3626151
  66.7200012   7.4234997 130.9539988  67.2850012   6.8764997 130.4069988
  66.5730012   6.9014997 131.7429988  66.7773380   7.2782259 130.9858695
  61.7220012   3.5594997 127.3729988  61.4050012   2.6574997 127.3369988
  62.5040012   3.5614997 126.8199988  61.7842408   3.4362474 127.2933569
  65.3470012   5.8114997 133.3679988  64.5110012   6.2654997 133.4789988
  65.8710012   6.0874997 134.1199988  65.3035416   5.9108660 133.4848119
  65.8910012  12.0244997 125.0529988  65.1460012  11.5174997 124.7309988
  65.7570012  12.0734997 125.9999988  65.7708776  11.9616940 125.1368647
  73.0410012  11.1574997 133.8399988  73.6830012  11.6144997 133.2959988
  72.2110012  11.2704997 133.3769988  73.0165963  11.2352704 133.7030177
  69.7890012   4.8384997 123.2519988  68.8500012   4.9504997 123.1009988
  70.0860012   5.6954997 123.5589988  69.7007583   4.9695981 123.2728337
  67.4100012  12.2084997 136.2899988  67.0650012  11.8274997 137.0969988
  67.2100012  13.1424997 136.3609988  67.3357527  12.2825135 136.4100689
  70.5070012   6.7054997 124.9129988  71.3990012   6.5684997 125.2319988
  70.5640012   7.4964997 124.3759988  70.6366504   6.7936052 124.8840818
  61.0160012  11.3194997 130.8229988  61.7610012  11.3174997 130.2219988
  61.0940012  10.4964997 131.3039988  61.1284995  11.2078887 130.8058282
  68.0170012  13.4834997 124.0789988  67.7210012  14.3094997 124.4599988
  67.3140012  12.8634997 124.2749988  67.8814914  13.5128199 124.1576443
  58.0240012   9.7804997 136.1379988  58.2470012   9.3624997 136.9699988
  57.4220012   9.1674997 135.7149988  57.9731759   9.6404668 136.1947022
  65.0400012   9.2974997 138.3509988  64.7440012   9.1314997 137.4559988
  65.9720012   9.0774997 138.3399988  65.1254166   9.2450640 138.2270536
  69.6610012  14.6704997 136.2409988  68.7600012  14.8534997 135.9729988
  69.6950012  14.9294997 137.1609988  69.5423139  14.7305849 136.3288099
  75.3920012   6.9154997 124.6079988  74.8380012   6.5194997 123.9359988
  75.4920012   7.8254997 124.3299988  75.3297059   6.9843586 124.4784401
  75.3550012  12.7154997 137.4449988  74.5040012  12.9534997 137.0779988
  75.9460012  12.6984997 136.6919988  75.3182487  12.7458258 137.2928893
  73.6870012  15.7014997 125.0729988  73.3140012  14.8754997 125.3819988
  73.9650012  15.5184997 124.1749988  73.6735222  15.5637430 124.9939473
  70.8480012  10.5094997 132.0939988  69.9190012  10.2774997 132.0669988
  71.2990012   9.7324997 131.7639988  70.7819216  10.3727238 132.0456917
  63.3910012  14.8374997 128.2269988  63.9180012  15.6104997 128.0269988
  62.5110012  15.0624997 127.9249988  63.3442031  14.9737545 128.1587912
  59.1460012   9.6994997 122.8139988  59.7620012  10.3264997 123.1939988
  58.2840012  10.0154997 123.0859988  59.1137698   9.8279430 122.9027183
  64.8180012  12.5004997 127.8029988  64.5770012  13.4254997 127.8449988
  64.0770012  12.0414997 128.1999988  64.6849225  12.5650933 127.8623742
  65.3330012  16.6494997 134.1189988  65.6950012  17.5044997 133.8849988
  65.8640012  16.3574997 134.8589988  65.4544473  16.7271060 134.1870855
  63.5010012  17.5224997 127.3489988  62.5510012  17.6274997 127.3999988
  63.8530012  18.3424997 127.6929988  63.4184195  17.6478800 127.4025502
  68.8770012  12.7484997 133.8189988  68.4510012  12.5214997 134.6459988
  69.4570012  12.0104997 133.6369988  68.8971868  12.6175299 133.9075830
  71.0800012  13.6774997 122.8929988  71.4330012  13.2974997 123.6969988
  70.1310012  13.5844997 122.9799988  71.0000918  13.6128956 123.0148532
  71.5350012  17.3004997 136.2889988  70.9340012  16.7454997 135.7929988
  71.8170012  17.9674997 135.6619988  71.4908804  17.3146625 136.1364849
  75.5830012  18.1574997 123.0939988  76.3270012  18.7434997 122.9539988
  74.8890012  18.7254997 123.4269988  75.5909899  18.3145798 123.1198778
  59.6580012   4.5334997 135.6959988  58.7650012   4.8724997 135.6279988
  59.5590012   3.6784997 136.1139988  59.5224164   4.4642588 135.7432235
  71.9460012  12.3504997 125.1199988  71.6680012  11.6224997 125.6759988
  72.8730012  12.4694997 125.3249988  72.0333124  12.2668802 125.2238845
  59.3090012  16.3384997 134.1309988  59.5260012  15.4064997 134.0999988
  59.5550012  16.6124997 135.0139988  59.3719549  16.2480636 134.2461763
  65.1710012  14.7894997 121.3399988  65.4100012  14.0414997 120.7929988
  64.9020012  14.4014997 122.1729988  65.1673675  14.6346638 121.3776865
  64.1080012  14.3594997 123.7959988  64.2540012  13.8394997 124.5859988
  64.1050012  15.2664997 124.1029988  64.1275792  14.4108842 123.9456117
  60.5610012  11.6124997 124.3069988  59.8750012  11.9644997 124.8739988
  61.0830012  12.3754997 124.0599988  60.5376852  11.7638578 124.3512118
  68.3920012   4.2744997 134.5859988  69.0910012   4.3484997 135.2359988
  68.0110012   3.4104997 134.7399988  68.4361767   4.1677624 134.6958322
  69.1770012   3.9264997 125.6829988  69.3970012   4.3984997 124.8799988
  69.7350012   4.3214997 126.3529988  69.2824968   4.0444285 125.6637331
  66.8450012  16.0574997 124.5459988  66.0290012  16.5544997 124.5979988
  67.3750012  16.5324997 123.9059988  66.8049161  16.1897722 124.4665956
  66.3770012   5.6544997 126.5179988  67.1890012   6.1594997 126.5639988
  66.1320012   5.5094997 127.4319988  66.4550520   5.7040375 126.6478517
  66.9120012   6.6404997 135.7019988  67.0310012   7.2144997 136.4599988
  67.5680012   5.9524997 135.8169988  67.0169025   6.6259858 135.8211321
  67.2600012   2.7354997 127.4559988  66.9140012   3.3534997 128.0999988
  67.9190012   3.2364997 126.9739988  67.3016968   2.8876278 127.4789383
  64.1840012  17.1014997 124.5269988  64.3440012  17.9004997 124.0269988
  63.9860012  17.4074997 125.4119988  64.1791637  17.2524020 124.5781144
  62.9180012   3.7984997 124.1429988  62.8350012   4.6874997 124.4899988
  63.8080012   3.5334997 124.3749988  63.0269469   3.8841430 124.2217626
  73.1170012   4.5474997 136.5369988  72.2000012   4.8104997 136.4499988
  73.4520012   4.5444997 135.6409988  73.0368613   4.5830761 136.4038837
  71.7190012   8.2984997 130.6329988  70.9210012   7.8834997 130.3049988
  72.1640012   7.6074997 131.1239988  71.6699885   8.1483543 130.6544889
  61.1770012  14.2264997 123.2039988  61.7690012  14.9254997 123.4799988
  61.6360012  13.7934997 122.4839988  61.3201142  14.2637049 123.1444830
  59.4930012   6.8904997 122.3199988  59.4480012   7.8294997 122.4979988
  58.6050012   6.6544997 122.0499988  59.3668574   6.9871892 122.3078912
  72.8050012  17.5544997 132.2559988  72.6500012  18.2324997 131.5979988
  73.7380012  17.6264997 132.4589988  72.9098657  17.6569546 132.1934360
  60.3010012   1.6724997 130.9929988  60.0720012   1.7314997 130.0649988
  59.8580012   0.8804997 131.2989988  60.2098530   1.5735753 130.9074786
  59.2310012  15.6124997 127.1529988  58.3990012  16.0854997 127.1799988
  59.7770012  16.1224997 126.5549988  59.1910352  15.7461332 127.0758463
  58.5190012  18.2254997 138.4829988  59.0600012  18.0084997 139.2429988
  58.0380012  17.4194997 138.2929988  58.5279951  18.0869270 138.5612576
  63.1170012  17.1444997 140.1029988  63.8840012  16.6854997 140.4439988
  63.0950012  16.9184997 139.1739988  63.2191275  17.0510186 140.0240101
  67.2090012  16.6524997 121.4789988  66.5650012  16.0214997 121.7999988
  67.9710012  16.1214997 121.2469988  67.2238077  16.4942920 121.4916011
  69.6940012  15.5244997 138.8329988  69.3430012  14.6684997 139.0759988
  70.4200012  15.6674997 139.4399988  69.7440769  15.4265636 138.9483619
  71.8130012  16.4694997 121.7119988  72.0960012  15.6754997 122.1649988
  72.5530012  16.7024997 121.1519988  71.9518006  16.3923376 121.6982715
  58.4260012  12.0354997 139.4369988  58.5700012  11.1334997 139.1509988
  57.6540012  12.3214997 138.9499988  58.3412753  11.9506816 139.3319505
  62.7680012  12.3794997 121.5699988  62.8320012  11.5854997 122.1009988
  63.4210012  12.2604997 120.8799988  62.8650241  12.2547148 121.5494317
  65.0820012  12.0054997 138.8699988  64.7530012  12.2764997 138.0129988
  65.2340012  11.0644997 138.7829988  65.0574809  11.9153862 138.7408244
  68.1200012  13.4264997 121.3059988  67.8510012  13.6064997 122.2069988
  67.9140012  12.5004997 121.1739988  68.0553427  13.3260261 121.4115073
  70.8160012  11.9214997 136.2529988  71.5620012  12.5094997 136.1339988
  70.0590012  12.5034997 136.3169988  70.8157820  12.0807143 136.2453590
  59.2590012   9.2354997 138.8569988  59.6670012   8.3784997 138.7359988
  58.9990012   9.2504997 139.7779988  59.2797568   9.1200807 138.9649588
  63.9170012  10.3514997 123.8759988  63.4570012   9.8674997 124.5619988
  64.1720012   9.6834997 123.2399988  63.8884902  10.1948731 123.8839334
  63.2060012   8.2444997 136.2319988  62.5880012   8.9194997 136.5119988
  63.5500012   8.5654997 135.3979988  63.1679132   8.3802411 136.1576262
  64.9880012   8.5944997 122.1379988  64.8080012   8.4404997 121.2109988
  65.9380012   8.7024997 122.1829988  65.0917776   8.5880175 122.0171843
  68.2260012  10.7164997 139.5089988  69.1790012  10.7994997 139.4819988
  68.0650012  10.0044997 140.1289988  68.3346426  10.6316746 139.5890579
  74.3780012  10.9494997 121.5839988  74.1040012  10.5244997 120.7709988
  74.4170012  11.8804997 121.3669988  74.3457699  11.0172484 121.4433610
  63.5450012   5.5994997 137.3139988  63.6950012   4.8704997 136.7119988
  63.5480012   6.3764997 136.7549988  63.5659302   5.6047851 137.1560692
  63.9580012   3.9694997 134.8069988  64.4940012   4.4204997 134.1549988
  63.1060012   3.8614997 134.3839988  63.9162178   4.0166390 134.6605756
  65.5400012   9.4084997 135.0459988  66.2900012   9.2524997 134.4729988
  65.2010012  10.2604997 134.7709988  65.5968921   9.5022968 134.9303561
  69.9550012   7.2234997 140.0749988  70.1480012   6.2924997 139.9629988
  70.8130012   7.6484997 140.0639988  70.0972934   7.1536531 140.0582031
  71.2720012  10.0124997 138.1519988  70.9910012  10.7214997 137.5739988
  72.2150012   9.9394997 138.0009988  71.3609291  10.0996711 138.0524967
  62.0240012   6.7974997 139.2259988  61.2570012   6.2654997 139.0149988
  62.7030012   6.4874997 138.6259988  62.0107877   6.6828300 139.1160716
  64.7640012   1.4254997 135.2379988  64.6650012   2.3724997 135.1329988
  64.0210012   1.0534997 134.7619988  64.6501184   1.5045863 135.1593621
  66.0280012   5.7474997 138.8019988  65.7920012   5.5274997 139.7029988
  65.2440012   5.5404997 138.2919988  65.8898504   5.6894586 138.8563431
  68.7430012   4.8744997 137.8769988  67.7960012   4.9064997 138.0099988
  69.0560012   4.2494997 138.5309988  68.6556707   4.7943998 137.9836060
  70.3770012   3.5084997 139.8829988  70.2810012   2.5564997 139.8769988
  70.0560012   3.7774997 140.7429988  70.3204070   3.4144035 139.9985441
  60.2040012   4.7184997 138.9299988  60.4160012   4.0114997 138.3199988
  60.0930012   4.2804997 139.7739988  60.2179721   4.5627084 138.9606843
  64.9850012   0.7194997 137.9089988  65.6970012   0.0794997 137.8949988
  64.8840012   0.9864997 136.9959988  65.0688066   0.6680079 137.7835677
  65.3390012   2.4024997 139.9629988  65.2070012   1.9264997 139.1429988
  64.7400012   3.1464997 139.9079988  65.2399071   2.4379618 139.8432886
  64.8850012  19.2854997 123.1389988  65.8180012  19.4434997 123.2829988
  64.6210012  19.9604997 122.5149988  64.9769888  19.3984510 123.0742842
  58.4540012  13.9214997 122.6219988  59.3680012  14.0004997 122.8959988
  58.4610012  13.2344997 121.9559988  58.5801131  13.8393961 122.5694393
  57.1030012  19.3144997 127.6999988  56.4560012  18.8524997 127.1669988
  57.4570012  18.6424997 128.2819988  57.0623849  19.1604723 127.7057959
  57.9730012  17.3954997 129.5039988  57.6380012  16.5154997 129.6759988
  58.1950012  17.7404997 130.3689988  57.9571783  17.3217500 129.6444208
  75.5210012  18.2044997 132.4849988  75.5000012  18.3894997 133.4239988
  76.2120012  18.7734997 132.1439988  75.6114618  18.3066606 132.5673864
  75.0850012  17.7724997 135.4069988  74.5970012  17.0364997 135.0349988
  75.6340012  17.3784997 136.0849988  75.0924820  17.6185889 135.4477813
  73.5350012  13.5614997 140.0449988  72.6690012  13.4564997 140.4389988
  73.9120012  14.3204997 140.4909988  73.4673308  13.6496900 140.1592393
  74.8360012  11.8184997 125.5589988  75.6860012  12.2394997 125.6859988
  74.8420012  11.0784997 126.1659988  74.9531372  11.7760803 125.6584344
  75.2310012   9.8714997 127.3819988  74.5040012   9.3924997 127.7799988
  75.8120012  10.0774997 128.1149988  75.2100473   9.8338103 127.5354528
  74.9900012  12.6564997 132.3299988  75.8230012  12.2784997 132.0499988
  75.1020012  13.5994997 132.2109988  75.1192647  12.7322218 132.2755487
  73.4760012  15.5344997 134.6369988  72.8290012  15.8594997 135.2629988
  72.9590012  15.0944997 133.9629988  73.3174029  15.5195004 134.6315827
  75.4990012   9.7724997 123.7739988  74.9770012  10.1294997 123.0549988
  75.4660012  10.4474997 124.4519988  75.4231634   9.9125413 123.7673145
  73.8480012   7.0124997 122.3239988  73.9440012   7.6794997 121.6439988
  73.7080012   6.1964997 121.8429988  73.8422272   6.9935655 122.1658347
  73.0170012   8.3924997 127.9449988  72.8670012   7.4474997 127.9249988
  72.6640012   8.6734997 128.7889988  72.9487448   8.3011481 128.0563705
  58.0530012  10.4704997 131.9559988  58.2370012  10.3884997 131.0199988
  58.9020012  10.3464997 132.3789988  58.1930151  10.4425073 131.8851451
  73.8740012  10.3624997 137.5839988  74.4570012   9.6284997 137.7759988
  74.4380012  11.1344997 137.6309988  74.0299769  10.3664227 137.6166159
  75.3700012   8.2654997 138.2689988  74.5070012   7.8864997 138.1029988
  75.9750012   7.5264997 138.1939988  75.3336119   8.1138268 138.2361528
  73.0950012   4.4204997 121.4419988  73.7060012   4.0494997 122.0789988
  72.2590012   3.9994997 121.6379988  73.0655032   4.3127554 121.5557035
  72.7280012   5.9754997 126.4079988  73.0080012   5.0684997 126.5319988
  73.4870012   6.4094997 126.0189988  72.8689277   5.9100942 126.3723682
  73.3400012   6.5564997 131.8439988  74.2730012   6.7684997 131.8089988
  73.1050012   6.6584997 132.7659988  73.4359244   6.5993100 131.9638892
  73.3690012   7.2934997 134.6199988  72.5260012   7.5614997 134.9859988
  73.8110012   8.1154997 134.4089988  73.3134158   7.4413291 134.6415491
  57.6500012   5.7414997 138.0969988  58.5700012   5.6194997 138.3329988
  57.2010012   4.9914997 138.4859988  57.7151580   5.6233727 138.1819006
  75.6520012   1.2734997 139.9729988  76.0020012   0.6194997 139.3679988
  75.7990012   2.1104997 139.5329988  75.7197887   1.2971548 139.8306858
  73.3410012   3.2384997 126.4559988  73.5240012   2.7894997 127.2819988
  72.7420012   2.6534997 125.9929988  73.2850202   3.0979975 126.5063275
  58.8710012   4.0534997 130.9879988  59.3170012   3.2614997 131.2899988
  59.3380012   4.7694997 131.4179988  58.9950831   4.0420685 131.0874006
  57.1750012   7.0524997 132.0569988  57.6670012   6.8314997 131.2659988
  57.5380012   7.8934997 132.3379988  57.2913126   7.1358357 131.9867531
  75.1720012   3.3824997 138.3219988  74.2540012   3.6534997 138.2869988
  75.2950012   2.8474997 137.5379988  75.0629729   3.3472508 138.2111923
  75.2080012   3.3054997 122.9839988  75.6200012   2.5844997 122.5089988
  75.8900012   3.9754997 123.0429988  75.3565885   3.2972368 122.9268915
  57.4890012   3.3104997 126.1109988  56.5640012   3.5194997 125.9819988
  57.9430012   3.7944997 125.4209988  57.4237292   3.4045343 126.0000720
  72.2600012  18.2944997 128.0569988  72.9120012  17.9474997 127.4489988
  72.7700012  18.7834997 128.7029988  72.4182637  18.3130597 128.0610236
  57.4530012   2.0484997 134.4549988  56.7880012   1.8024997 135.0989988
  57.0100012   2.6704997 133.8779988  57.3021318   2.0989410 134.4650898
  59.6450012  15.2234997 138.5999988  58.8240012  15.3984997 138.1389988
  59.3920012  15.1504997 139.5199988  59.4985585  15.2375544 138.6613561
  62.5990012  16.1984997 134.8579988  62.1740012  17.0074997 134.5759988
  63.5030012  16.2834997 134.5559988  62.6629975  16.3209300 134.7784816
  66.9100012  17.5974997 137.8179988  67.0950012  17.2634997 138.6959988
  67.7560012  17.9064997 137.4959988  67.0497539  17.5936047 137.8945605
  69.2550012  18.8834997 137.0619988  69.9320012  18.2504997 136.8219988
  69.5770012  19.2844997 137.8689988  69.3911637  18.8511154 137.1382793
  74.1720012   1.4724997 136.1409988  73.3600012   1.7974997 135.7539988
  74.4050012   0.7124997 135.6079988  74.0922203   1.4142758 136.0158880
  60.0010012  19.4544997 134.9059988  59.2800012  19.8944997 134.4549988
  59.6350012  19.2034997 135.7539988  59.8529651  19.4807242 134.9589640
  62.4680012  19.0544997 133.9359988  61.6030012  19.1264997 134.3399988
  62.4130012  19.6014997 133.1519988  62.3422085  19.1382685 133.8853362
  67.1780012  18.9424997 133.1109988  66.7220012  19.4714997 132.4569988
  67.3410012  19.5454997 133.8359988  67.1376068  19.0964607 133.1194838
  69.5060012  17.8204997 134.0559988  68.6010012  17.9854997 133.7899988
  69.9350012  18.6734997 133.9909988  69.4401324  17.9584339 134.0107976
  72.1100012  19.3904997 134.3509988  71.9280012  20.3064997 134.1409988
  72.2870012  18.9804997 133.5049988  72.1090210  19.4604822 134.2077885
  59.4150012  18.0774997 131.8159988  59.3970012  17.6524997 132.6729988
  60.2200012  17.7594997 131.4069988  59.5213529  17.9763013 131.8780946
  61.5570012  16.7874997 130.4709988  61.3380012  15.8714997 130.6409988
  62.3810012  16.9274997 130.9369988  61.6384420  16.6810520 130.5572774
  64.0940012  17.2574997 131.3199988  64.3070012  16.3694997 131.0329988
  64.1580012  17.2234997 132.2739988  64.1318232  17.1313102 131.4097397
  67.6020012   2.9214997 130.4639988  66.9280012   2.2924997 130.7199988
  68.1660012   2.4374997 129.8609988  67.5859230   2.7698744 130.4175340
  72.7450012   1.0294997 130.5769988  73.3490012   1.5764997 130.0749988
  71.8750012   1.3484997 130.3359988  72.7101208   1.1475137 130.4756886
  74.4720012   2.1674997 128.9099988  75.0840012   1.6534997 128.3829988
  74.8540012   3.0454997 128.9329988  74.6073371   2.2157866 128.8410041
  59.9290012   1.5554997 128.2859988  59.1520012   1.3214997 127.7789988
  60.4590012   0.7584997 128.2949988  59.8942330   1.4156988 128.2177742
  58.7650012   1.3534997 124.0899988  59.2040012   1.9644997 123.4979988
  58.1320012   1.8914997 124.5639988  58.7394514   1.5099257 124.0730930
  64.5080012   1.4824997 128.0999988  65.3830012   1.8704997 128.0699988
  64.3720012   1.2674997 129.0219988  64.6093695   1.5065184 128.2206440
  70.0650012   1.5124997 129.7489988  70.1410012   1.6074997 128.7989988
  69.7900012   0.6044997 129.8779988  70.0382321   1.4027867 129.6365079
  71.4180012   1.5384997 125.4409988  70.7160012   2.1534997 125.2309988
  70.9740012   0.7004997 125.5719988  71.2616450   1.5095639 125.4299000
  58.6660012  17.3014997 124.9869988  57.9810012  17.2634997 124.3199988
  58.6700012  18.2144997 125.2759988  58.5726998  17.4196733 124.9346771
  60.6260012   3.2694997 122.5319988  61.1180012   2.6394997 122.0049988
  61.2500012   3.5654997 123.1949988  60.7775688   3.2233804 122.5495482
  65.6520012   3.5624997 124.9889988  65.8300012   2.9164997 125.6719988
  65.5990012   4.3964997 125.4559988  65.6691999   3.5868009 125.1455917
  67.5310012  18.5114997 123.3849988  68.3970012  18.8774997 123.2069988
  67.2840012  18.0714997 122.5709988  67.6162392  18.5021756 123.2506289
  74.2400012  18.0744997 126.0639988  74.0450012  17.3264997 125.4989988
  74.2010012  18.8324997 125.4809988  74.2080380  18.0746099 125.9078384
  59.8870012   2.0694997 137.8039988  59.5210012   1.3044997 138.2459988
  60.8000012   2.0984997 138.0899988  59.9602736   1.9685640 137.9032502
  61.8600012   1.4204997 139.3399988  62.7580012   1.1464997 139.1549988
  61.4730012   0.6774997 139.8039988  61.9306612   1.2825914 139.3773643
  60.4840012  18.2214997 122.0129988  60.2170012  18.5084997 122.8859988
  61.2560012  17.6754997 122.1649988  60.5517488  18.1870294 122.1531050
  70.2810012   0.7524997 139.5219988  70.3580012   0.3264997 140.3759988
  71.1750012   0.7664997 139.1789988  70.4123428   0.6960879 139.5925310
  73.4570012  16.8254997 138.2139988  72.6750012  16.6394997 137.6939988
  73.3850012  17.7544997 138.4319988  73.3402274  16.9256643 138.1723018
  87.8630012  10.7114997 128.2449988  87.9520012  11.6554997 128.1129988
  87.2250012  10.4364997 127.5869988  87.7889081  10.8034830 128.1379614
  86.7960012   9.9664997 131.6639988  86.7580012   9.3204997 132.3689988
  86.4740012   9.5004997 130.8929988  86.7472333   9.8149408 131.6562978
  79.1650012   9.5814997 133.2569988  79.2060012   8.9554997 133.9799988
  79.8680012  10.2054997 133.4389988  79.2656363   9.5801196 133.3806044
  90.5020012  12.9054997 129.9649988  90.0620012  12.1854997 130.4159988
  90.4890012  13.6264997 130.5949988  90.4400226  12.9043731 130.1118494
  80.0880012  14.0314997 131.7919988  79.7190012  13.2294997 131.4219988
  81.0290012  13.8624997 131.8379988  80.1647289  13.8990153 131.7476316
  76.6980012   7.6914997 127.1849988  76.2510012   8.5374997 127.1659988
  76.1370012   7.1114997 126.6689988  76.5609900   7.7289916 127.1126801
  77.4090012   9.8534997 129.3099988  77.6220012   9.0834997 129.8379988
  78.1470012   9.9424997 128.7069988  77.5379044   9.7601968 129.3007123
  87.6140012  18.0104997 130.1769988  88.2340012  17.3334997 129.9039988
  87.4060012  17.7924997 131.0859988  87.6706726  17.8884800 130.2624812
  85.1860012  12.3994997 132.0699988  85.4900012  11.7134997 131.4749988
  85.9070012  12.5174997 132.6879988  85.3250671  12.3216305 132.0721816
  93.8490012   4.0004997 132.9309988  93.8980012   4.6104997 133.6659988
  94.2740012   4.4614997 132.2079988  93.9131746   4.1463796 132.9339175
  88.3270012   6.7934997 132.3969988  88.4690012   5.8474997 132.4179988
  88.2200012   7.0004997 131.4689988  88.3319919   6.6918246 132.2743408
  81.4810012   4.8944997 129.6699988  81.5250012   5.7544997 129.2509988
  81.0240012   4.3424997 129.0359988  81.4252240   4.9374422 129.5269864
  89.2040012   5.0254997 128.0709988  89.8500012   4.6964997 128.6949988
  89.7140012   5.5434997 127.4479988  89.3614299   5.0504450 128.0722731
  78.1020012   7.2914997 130.4319988  78.7550012   6.7414997 130.8639988
  78.1260012   7.0174997 129.5149988  78.1946683   7.1791466 130.3672123
  83.2580012   8.8414997 129.6469988  83.8740012   8.3154997 130.1569988
  82.6720012   8.2014997 129.2439988  83.2630810   8.6829208 129.6623173
  94.2400012   5.4784997 135.1659988  93.5520012   6.1364997 135.0709988
  94.2560012   5.2814997 136.1029988  94.1479540   5.5419819 135.2795990
  80.2920012   3.8124997 133.7439988  80.0730012   4.3424997 132.9779988
  79.6240012   4.0394997 134.3909988  80.1717600   3.9156906 133.7266379
  87.6610012  13.3124997 127.2879988  87.3650012  12.9904997 126.4369988
  87.3360012  14.2124997 127.3289988  87.5766371  13.3900215 127.1771801
  82.8610012  11.4884997 134.0309988  82.1210012  12.0864997 134.1349988
  83.5750012  12.0424997 133.7159988  82.8562237  11.6452831 134.0026465
  90.9680012   4.3164997 130.0509988  90.7520012   3.5504997 130.5839988
  91.6230012   4.7884997 130.5639988  91.0270632   4.2755889 130.1932861
  79.8850012   5.7044997 131.6959988  80.4990012   6.3374997 132.0689988
  80.3970012   5.2324997 131.0399988  80.0381981   5.7272267 131.6582908
  81.2680012  13.4524997 134.8179988  81.2630012  14.3324997 134.4399988
  80.4150012  13.3694997 135.2429988  81.1519464  13.5616117 134.8237907
  77.3890012  13.1234997 125.5999988  77.1170012  13.3524997 124.7119988
  77.4350012  13.9614997 126.0609988  77.3579482  13.2681318 125.5406273
  91.0140012  14.7454997 132.3129988  90.0730012  14.8034997 132.4749988
  91.2910012  15.6514997 132.1759988  90.9224679  14.8759443 132.3166815
  91.3150012   3.0314997 133.7309988  90.5790012   3.6424997 133.6929988
  91.9980012   3.4464997 133.2039988  91.3066541   3.1711374 133.6545832
  84.3180012   1.1184997 131.1959988  84.2010012   0.1694997 131.1419988
  83.4630012   1.4504997 131.4699988  84.1864212   1.0335571 131.2256497
  89.2660012  16.5264997 128.9379988  89.6920012  15.8194997 128.4529988
  89.5830012  17.3274997 128.5219988  89.3671683  16.5381017 128.8153680
  90.4260012  14.4274997 127.4469988  90.1680012  13.7374997 126.8359988
  90.4970012  13.9844997 128.2929988  90.4002856  14.2732124 127.4776885
  92.1120012  12.9934997 135.9239988  92.2520012  12.4024997 135.1849988
  92.2790012  13.8664997 135.5679988  92.1537411  13.0305428 135.7746894
  86.5850012   9.9554997 125.6969988  85.8730012  10.4904997 125.3449988
  87.2760012  10.0114997 125.0369988  86.5810132  10.0362543 125.5596289
  86.6380012   8.4134997 122.7359988  87.3390012   8.4354997 123.3869988
  86.9410012   7.7854997 122.0789988  86.7748133   8.3317070 122.7363369
  93.9540012   9.3334997 133.9899988  93.3010012  10.0284997 134.0799988
  94.4190012   9.5434997 133.1809988  93.9275274   9.4570643 133.8928462
  89.9900012  10.1654997 126.6489988  89.2580012  10.3934997 127.2219988
  90.4380012   9.4514997 127.1029988  89.9502725  10.1002145 126.7888816
  89.8880012   8.3394997 135.7159988  89.9680012   9.1024997 136.2879988
  89.2860012   8.6184997 135.0259988  89.8175756   8.4817134 135.7010589
  81.6360012  10.7954997 128.5309988  81.3050012  10.4254997 127.7129988
  82.2240012  10.1254997 128.8779988  81.6701873  10.6541156 128.4658102
  83.0020012  14.2234997 131.2119988  82.9080012  13.6454997 130.4559988
  83.7320012  13.8524997 131.7089988  83.0877387  14.0941663 131.1755342
  82.0020012   9.5644997 132.1649988  82.5680012   9.6854997 131.4019988
  82.3210012  10.2014997 132.8029988  82.1225474   9.6672219 132.1469862
  88.3110012  15.0674997 132.8989988  88.0710012  15.7294997 133.5469988
  88.1130012  14.2334997 133.3239988  88.2513808  15.0453134 133.0451524
  82.8820012  13.9634997 136.8819988  82.5710012  14.7454997 137.3369988
  82.2320012  13.8104997 136.1959988  82.7515558  14.0499105 136.8515871
  88.8610012   9.3274997 124.3339988  89.4410012   9.4774997 125.0809988
  89.2750012   9.7984997 123.6099988  88.9962997   9.4116578 124.3384058
  79.8020012  10.1614997 136.1099988  79.8730012  10.8124997 136.8089988
  78.9120012  10.2644997 135.7749988  79.6913005  10.2645427 136.1603495
  86.5880012  16.0644997 127.7689988  87.0620012  16.3594997 128.5459988
  86.0250012  16.8024997 127.5359988  86.5768184  16.2047247 127.8439628
  81.1220012  16.0354997 137.6449988  81.1290012  15.8994997 136.6979988
  80.2060012  15.9174997 137.8969988  80.9991714  16.0009430 137.5494666
  92.5600012   1.0774997 124.1469988  91.6600012   1.2164997 124.4419988
  92.8120012   1.9084997 123.7449988  92.4708702   1.2089074 124.1330205
  80.6260012   9.8654997 126.1199988  80.3340012  10.6334997 125.6299988
  79.9520012   9.2054997 125.9579988  80.4948111   9.8815587 126.0308978
  93.7490012  15.4434997 122.5229988  93.8230012  16.3824997 122.6939988
  94.6550012  15.1384997 122.4669988  93.8815100  15.5306722 122.5388119
  76.7190012  12.2284997 134.9349988  76.2180012  12.2004997 134.1199988
  76.7240012  11.3224997 135.2449988  76.6510944  12.1022396 134.8653226
  76.4690012  15.0084997 131.8189988  77.4150012  14.8644997 131.7999988
  76.3570012  15.7924997 132.3559988  76.5832727  15.0948046 131.8890072
  94.6670012  15.6744997 137.5019988  94.6180012  14.7194997 137.4649988
  93.8400012  15.9424997 137.9029988  94.5484940  15.5798998 137.5511375
  85.6460012  15.2484997 136.3779988  85.7330012  16.0744997 136.8529988
  84.7820012  14.9184997 136.6269988  85.5411964  15.3169878 136.4766549
  86.0600012  19.0204997 126.1839988  85.9850012  18.8994997 125.2369988
  86.0930012  19.9704997 126.3019988  86.0542068  19.1322646 126.0704967
  79.7130012  17.8094997 127.9649988  79.8660012  17.4614997 128.8429988
  78.8630012  17.4534997 127.7099988  79.6189166  17.7136216 128.0508079
  89.1620012  18.1744997 123.1859988  89.5370012  17.4304997 122.7149988
  89.1660012  17.9044997 124.1049988  89.2139125  18.0360986 123.2456483
  88.8310012  18.1004997 125.9349988  87.8950012  18.2004997 126.1139988
  89.1110012  17.3914997 126.5139988  88.7409553  18.0183406 126.0377087
  91.8190012   7.1674997 137.9819988  91.4120012   7.6484997 137.2609988
  91.8600012   6.2624997 137.6739988  91.7688437   7.1109374 137.8416683
  78.9680012  13.5514997 135.9789988  79.1840012  13.1904997 136.8379988
  78.1130012  13.1774997 135.7689988  78.8819292  13.4514111 136.0683386
  81.5870012   2.0214997 131.9739988  80.7250012   1.9344997 131.5659988
  81.5640012   2.8774997 132.4019988  81.4660409   2.1252883 131.9760589
  86.2500012   1.7434997 135.3489988  86.6700012   1.3284997 136.1019988
  85.3170012   1.5654997 135.4659988  86.1813644   1.6625900 135.4679539
  89.5760012   5.4994997 136.2019988  89.0620012   5.3734997 136.9999988
  89.4210012   6.4114997 135.9579988  89.4846852   5.6056132 136.2782158
  90.3390012  10.3604997 121.9639988  90.3810012  10.1374997 121.0339988
  91.1880012  10.7594997 122.1529988  90.4595280  10.3839438 121.8623554
  85.9110012   4.2364997 122.6339988  85.6580012   4.2554997 123.5569988
  85.6550012   3.3644997 122.3319988  85.8417481   4.1212558 122.7196175
  81.6780012   6.9874997 133.0689988  81.0360012   6.9464997 133.7779988
  81.7150012   7.9134997 132.8309988  81.5950664   7.1071430 133.1339219
  81.6750012   7.2084997 127.9809988  80.7820012   6.8674997 127.9219988
  82.1250012   6.8314997 127.2249988  81.6138130   7.1109631 127.8707702
  87.2100012   7.6244997 126.7979988  86.8010012   8.4394997 126.5069988
  87.9310012   7.4844997 126.1839988  87.2514537   7.7172018 126.6751342
  86.3120012   7.7994997 138.2859988  85.7500012   7.0954997 138.6069988
  87.1390012   7.6794997 138.7539988  86.3467095   7.6867883 138.3932330
  88.2150012   7.0704997 129.6119988  88.0200012   7.6754997 128.8969988
  88.3960012   6.2364997 129.1779988  88.2127614   7.0406300 129.4554405
  79.4280012   7.3074997 134.9359988  79.3900012   7.7074997 135.8049988
  78.9370012   6.4904997 135.0269988  79.3564684   7.2518069 135.0671059
  82.7940012   4.6814997 121.7349988  82.3630012   4.2364997 122.4649988
  82.0760012   5.0534997 121.2229988  82.6379438   4.6708940 121.7656799
  76.0360012   4.4234997 128.7869988  76.6670012   4.3944997 129.5059988
  76.4850012   3.9984997 128.0559988  76.1830918   4.3620836 128.7866441
  77.3100012   5.1694997 124.2109988  77.7840012   5.7604997 123.6259988
  76.5930012   5.7004997 124.5579988  77.2779341   5.3220867 124.1778836
  87.4790012   8.7084997 134.2829988  87.8020012   8.0774997 133.6399988
  87.0390012   8.1734997 134.9439988  87.4637484   8.5498387 134.2843198
  84.2560012   4.6354997 129.0669988  83.3450012   4.6924997 129.3559988
  84.7620012   4.5754997 129.8779988  84.1996899   4.6351941 129.2161184
  79.0850012   6.2644997 127.8939988  78.1950012   6.3644997 127.5539988
  79.3810012   5.4224997 127.5479988  79.0032823   6.1643545 127.8007213
  82.7380012   6.2644997 125.5509988  83.6690012   6.3934997 125.7289988
  82.5230012   6.9344997 124.9009988  82.8364247   6.3726565 125.4875747
  88.6610012   3.8704997 132.3319988  87.9850012   4.0014997 132.9959988
  88.1760012   3.7154997 131.5209988  88.5027146   3.8675157 132.3134469
  81.4120012   7.4594997 123.1169988  80.8690012   7.0794997 122.4259988
  82.2450012   7.6534997 122.6889988  81.4503631   7.4337125 122.9644501
  91.9490012  19.5424997 138.6079988  92.1490012  19.9664997 137.7739988
  92.6040012  19.8854997 139.2149988  92.0650072  19.6469857 138.5758592
  79.5470012  12.0164997 138.2159988  80.2790012  12.2704997 138.7779988
  78.7670012  12.2204997 138.7319988  79.5417073  12.0788160 138.3626151
  85.5760012   7.4234997 130.9539988  86.1410012   6.8764997 130.4069988
  85.4290012   6.9014997 131.7429988  85.6333380   7.2782259 130.9858695
  80.5780012   3.5594997 127.3729988  80.2610012   2.6574997 127.3369988
  81.3600012   3.5614997 126.8199988  80.6402408   3.4362474 127.2933569
  84.2030012   5.8114997 133.3679988  83.3670012   6.2654997 133.4789988
  84.7270012   6.0874997 134.1199988  84.1595416   5.9108660 133.4848119
  84.7470012  12.0244997 125.0529988  84.0020012  11.5174997 124.7309988
  84.6130012  12.0734997 125.9999988  84.6268776  11.9616940 125.1368647
  91.8970012  11.1574997 133.8399988  92.5390012  11.6144997 133.2959988
  91.0670012  11.2704997 133.3769988  91.8725963  11.2352704 133.7030177
  88.6450012   4.8384997 123.2519988  87.7060012   4.9504997 123.1009988
  88.9420012   5.6954997 123.5589988  88.5567583   4.9695981 123.2728337
  86.2660012  12.2084997 136.2899988  85.9210012  11.8274997 137.0969988
  86.0660012  13.1424997 136.3609988  86.1917527  12.2825135 136.4100689
  89.3630012   6.7054997 124.9129988  90.2550012   6.5684997 125.2319988
  89.4200012   7.4964997 124.3759988  89.4926504   6.7936052 124.8840818
  79.8720012  11.3194997 130.8229988  80.6170012  11.3174997 130.2219988
  79.9500012  10.4964997 131.3039988  79.9844995  11.2078887 130.8058282
  86.8730012  13.4834997 124.0789988  86.5770012  14.3094997 124.4599988
  86.1700012  12.8634997 124.2749988  86.7374914  13.5128199 124.1576443
  76.8800012   9.7804997 136.1379988  77.1030012   9.3624997 136.9699988
  76.2780012   9.1674997 135.7149988  76.8291759   9.6404668 136.1947022
  83.8960012   9.2974997 138.3509988  83.6000012   9.1314997 137.4559988
  84.8280012   9.0774997 138.3399988  83.9814166   9.2450640 138.2270536
  88.5170012  14.6704997 136.2409988  87.6160012  14.8534997 135.9729988
  88.5510012  14.9294997 137.1609988  88.3983139  14.7305849 136.3288099
  94.2480012   6.9154997 124.6079988  93.6940012   6.5194997 123.9359988
  94.3480012   7.8254997 124.3299988  94.1857059   6.9843586 124.4784401
  94.2110012  12.7154997 137.4449988  93.3600012  12.9534997 137.0779988
  94.8020012  12.6984997 136.6919988  94.1742487  12.7458258 137.2928893
  92.5430012  15.7014997 125.0729988  92.1700012  14.8754997 125.3819988
  92.8210012  15.5184997 124.1749988  92.5295222  15.5637430 124.9939473
  89.7040012  10.5094997 132.0939988  88.7750012  10.2774997 132.0669988
  90.1550012   9.7324997 131.7639988  89.6379216  10.3727238 132.0456917
  82.2470012  14.8374997 128.2269988  82.7740012  15.6104997 128.0269988
  81.3670012  15.0624997 127.9249988  82.2002031  14.9737545 128.1587912
  78.0020012   9.6994997 122.8139988  78.6180012  10.3264997 123.1939988
  77.1400012  10.0154997 123.0859988  77.9697698   9.8279430 122.9027183
  83.6740012  12.5004997 127.8029988  83.4330012  13.4254997 127.8449988
  82.9330012  12.0414997 128.1999988  83.5409225  12.5650933 127.8623742
  84.1890012  16.6494997 134.1189988  84.5510012  17.5044997 133.8849988
  84.7200012  16.3574997 134.8589988  84.3104473  16.7271060 134.1870855
  82.3570012  17.5224997 127.3489988  81.4070012  17.6274997 127.3999988
  82.7090012  18.3424997 127.6929988  82.2744195  17.6478800 127.4025502
  87.7330012  12.7484997 133.8189988  87.3070012  12.5214997 134.6459988
  88.3130012  12.0104997 133.6369988  87.7531868  12.6175299 133.9075830
  89.9360012  13.6774997 122.8929988  90.2890012  13.2974997 123.6969988
  88.9870012  13.5844997 122.9799988  89.8560918  13.6128956 123.0148532
  90.3910012  17.3004997 136.2889988  89.7900012  16.7454997 135.7929988
  90.6730012  17.9674997 135.6619988  90.3468804  17.3146625 136.1364849
  94.4390012  18.1574997 123.0939988  95.1830012  18.7434997 122.9539988
  93.7450012  18.7254997 123.4269988  94.4469899  18.3145798 123.1198778
  78.5140012   4.5334997 135.6959988  77.6210012   4.8724997 135.6279988
  78.4150012   3.6784997 136.1139988  78.3784164   4.4642588 135.7432235
  90.8020012  12.3504997 125.1199988  90.5240012  11.6224997 125.6759988
  91.7290012  12.4694997 125.3249988  90.8893124  12.2668802 125.2238845
  78.1650012  16.3384997 134.1309988  78.3820012  15.4064997 134.0999988
  78.4110012  16.6124997 135.0139988  78.2279549  16.2480636 134.2461763
  84.0270012  14.7894997 121.3399988  84.2660012  14.0414997 120.7929988
  83.7580012  14.4014997 122.1729988  84.0233675  14.6346638 121.3776865
  82.9640012  14.3594997 123.7959988  83.1100012  13.8394997 124.5859988
  82.9610012  15.2664997 124.1029988  82.9835792  14.4108842 123.9456117
  79.4170012  11.6124997 124.3069988  78.7310012  11.9644997 124.8739988
  79.9390012  12.3754997 124.0599988  79.3936852  11.7638578 124.3512118
  87.2480012   4.2744997 134.5859988  87.9470012   4.3484997 135.2359988
  86.8670012   3.4104997 134.7399988  87.2921767   4.1677624 134.6958322
  88.0330012   3.9264997 125.6829988  88.2530012   4.3984997 124.8799988
  88.5910012   4.3214997 126.3529988  88.1384968   4.0444285 125.6637331
  85.7010012  16.0574997 124.5459988  84.8850012  16.5544997 124.5979988
  86.2310012  16.5324997 123.9059988  85.6609161  16.1897722 124.4665956
  85.2330012   5.6544997 126.5179988  86.0450012   6.1594997 126.5639988
  84.9880012   5.5094997 127.4319988  85.3110520   5.7040375 126.6478517
  85.7680012   6.6404997 135.7019988  85.8870012   7.2144997 136.4599988
  86.4240012   5.9524997 135.8169988  85.8729025   6.6259858 135.8211321
  86.1160012   2.7354997 127.4559988  85.7700012   3.3534997 128.0999988
  86.7750012   3.2364997 126.9739988  86.1576968   2.8876278 127.4789383
  83.0400012  17.1014997 124.5269988  83.2000012  17.9004997 124.0269988
  82.8420012  17.4074997 125.4119988  83.0351637  17.2524020 124.5781144
  81.7740012   3.7984997 124.1429988  81.6910012   4.6874997 124.4899988
  82.6640012   3.5334997 124.3749988  81.8829469   3.8841430 124.2217626
  91.9730012   4.5474997 136.5369988  91.0560012   4.8104997 136.4499988
  92.3080012   4.5444997 135.6409988  91.8928613   4.5830761 136.4038837
  90.5750012   8.2984997 130.6329988  89.7770012   7.8834997 130.3049988
  91.0200012   7.6074997 131.1239988  90.5259885   8.1483543 130.6544889
  80.0330012  14.2264997 123.2039988  80.6250012  14.9254997 123.4799988
  80.4920012  13.7934997 122.4839988  80.1761142  14.2637049 123.1444830
  78.3490012   6.8904997 122.3199988  78.3040012   7.8294997 122.4979988
  77.4610012   6.6544997 122.0499988  78.2228574   6.9871892 122.3078912
  91.6610012  17.5544997 132.2559988  91.5060012  18.2324997 131.5979988
  92.5940012  17.6264997 132.4589988  91.7658657  17.6569546 132.1934360
  79.1570012   1.6724997 130.9929988  78.9280012   1.7314997 130.0649988
  78.7140012   0.8804997 131.2989988  79.0658530   1.5735753 130.9074786
  78.0870012  15.6124997 127.1529988  77.2550012  16.0854997 127.1799988
  78.6330012  16.1224997 126.5549988  78.0470352  15.7461332 127.0758463
  77.3750012  18.2254997 138.4829988  77.9160012  18.0084997 139.2429988
  76.8940012  17.4194997 138.2929988  77.3839951  18.0869270 138.5612576
  81.9730012  17.1444997 140.1029988  82.7400012  16.6854997 140.4439988
  81.9510012  16.9184997 139.1739988  82.0751275  17.0510186 140.0240101
  86.0650012  16.6524997 121.4789988  85.4210012  16.0214997 121.7999988
  86.8270012  16.1214997 121.2469988  86.0798077  16.4942920 121.4916011
  88.5500012  15.5244997 138.8329988  88.1990012  14.6684997 139.0759988
  89.2760012  15.6674997 139.4399988  88.6000769  15.4265636 138.9483619
  90.6690012  16.4694997 121.7119988  90.9520012  15.6754997 122.1649988
  91.4090012  16.7024997 121.1519988  90.8078006  16.3923376 121.6982715
  77.2820012  12.0354997 139.4369988  77.4260012  11.1334997 139.1509988
  76.5100012  12.3214997 138.9499988  77.1972753  11.9506816 139.3319505
  81.6240012  12.3794997 121.5699988  81.6880012  11.5854997 122.1009988
  82.2770012  12.2604997 120.8799988  81.7210241  12.2547148 121.5494317
  83.9380012  12.0054997 138.8699988  83.6090012  12.2764997 138.0129988
  84.0900012  11.0644997 138.7829988  83.9134809  11.9153862 138.7408244
  86.9760012  13.4264997 121.3059988  86.7070012  13.6064997 122.2069988
  86.7700012  12.5004997 121.1739988  86.9113427  13.3260261 121.4115073
  89.6720012  11.9214997 136.2529988  90.4180012  12.5094997 136.1339988
  88.9150012  12.5034997 136.3169988  89.6717820  12.0807143 136.2453590
  78.1150012   9.2354997 138.8569988  78.5230012   8.3784997 138.7359988
  77.8550012   9.2504997 139.7779988  78.1357568   9.1200807 138.9649588
  82.7730012  10.3514997 123.8759988  82.3130012   9.8674997 124.5619988
  83.0280012   9.6834997 123.2399988  82.7444902  10.1948731 123.8839334
  82.0620012   8.2444997 136.2319988  81.4440012   8.9194997 136.5119988
  82.4060012   8.5654997 135.3979988  82.0239132   8.3802411 136.1576262
  83.8440012   8.5944997 122.1379988  83.6640012   8.4404997 121.2109988
  84.7940012   8.7024997 122.1829988  83.9477776   8.5880175 122.0171843
  87.0820012  10.7164997 139.5089988  88.0350012  10.7994997 139.4819988
  86.9210012  10.0044997 140.1289988  87.1906426  10.6316746 139.5890579
  93.2340012  10.9494997 121.5839988  92.9600012  10.5244997 120.7709988
  93.2730012  11.8804997 121.3669988  93.2017699  11.0172484 121.4433610
  82.4010012   5.5994997 137.3139988  82.5510012   4.8704997 136.7119988
  82.4040012   6.3764997 136.7549988  82.4219302   5.6047851 137.1560692
  82.8140012   3.9694997 134.8069988  83.3500012   4.4204997 134.1549988
  81.9620012   3.8614997 134.3839988  82.7722178   4.0166390 134.6605756
  84.3960012   9.4084997 135.0459988  85.1460012   9.2524997 134.4729988
  84.0570012  10.2604997 134.7709988  84.4528921   9.5022968 134.9303561
  88.8110012   7.2234997 140.0749988  89.0040012   6.2924997 139.9629988
  89.6690012   7.6484997 140.0639988  88.9532934   7.1536531 140.0582031
  90.1280012  10.0124997 138.1519988  89.8470012  10.7214997 137.5739988
  91.0710012   9.9394997 138.0009988  90.2169291  10.0996711 138.0524967
  80.8800012   6.7974997 139.2259988  80.1130012   6.2654997 139.0149988
  81.5590012   6.4874997 138.6259988  80.8667877   6.6828300 139.1160716
  83.6200012   1.4254997 135.2379988  83.5210012   2.3724997 135.1329988
  82.8770012   1.0534997 134.7619988  83.5061184   1.5045863 135.1593621
  84.8840012   5.7474997 138.8019988  84.6480012   5.5274997 139.7029988
  84.1000012   5.5404997 138.2919988  84.7458504   5.6894586 138.8563431
  87.5990012   4.8744997 137.8769988  86.6520012   4.9064997 138.0099988
  87.9120012   4.2494997 138.5309988  87.5116707   4.7943998 137.9836060
  89.2330012   3.5084997 139.8829988  89.1370012   2.5564997 139.8769988
  88.9120012   3.7774997 140.7429988  89.1764070   3.4144035 139.9985441
  79.0600012   4.7184997 138.9299988  79.2720012   4.0114997 138.3199988
  78.9490012   4.2804997 139.7739988  79.0739721   4.5627084 138.9606843
  83.8410012   0.7194997 137.9089988  84.5530012   0.0794997 137.8949988
  83.7400012   0.9864997 136.9959988  83.9248066   0.6680079 137.7835677
  84.1950012   2.4024997 139.9629988  84.0630012   1.9264997 139.1429988
  83.5960012   3.1464997 139.9079988  84.0959071   2.4379618 139.8432886
  83.7410012  19.2854997 123.1389988  84.6740012  19.4434997 123.2829988
  83.4770012  19.9604997 122.5149988  83.8329888  19.3984510 123.0742842
  77.3100012  13.9214997 122.6219988  78.2240012  14.0004997 122.8959988
  77.3170012  13.2344997 121.9559988  77.4361131  13.8393961 122.5694393
  75.9590012  19.3144997 127.6999988  75.3120012  18.8524997 127.1669988
  76.3130012  18.6424997 128.2819988  75.9183849  19.1604723 127.7057959
  76.8290012  17.3954997 129.5039988  76.4940012  16.5154997 129.6759988
  77.0510012  17.7404997 130.3689988  76.8131783  17.3217500 129.6444208
  94.3770012  18.2044997 132.4849988  94.3560012  18.3894997 133.4239988
  95.0680012  18.7734997 132.1439988  94.4674618  18.3066606 132.5673864
  93.9410012  17.7724997 135.4069988  93.4530012  17.0364997 135.0349988
  94.4900012  17.3784997 136.0849988  93.9484820  17.6185889 135.4477813
  92.3910012  13.5614997 140.0449988  91.5250012  13.4564997 140.4389988
  92.7680012  14.3204997 140.4909988  92.3233308  13.6496900 140.1592393
  93.6920012  11.8184997 125.5589988  94.5420012  12.2394997 125.6859988
  93.6980012  11.0784997 126.1659988  93.8091372  11.7760803 125.6584344
  94.0870012   9.8714997 127.3819988  93.3600012   9.3924997 127.7799988
  94.6680012  10.0774997 128.1149988  94.0660473   9.8338103 127.5354528
  93.8460012  12.6564997 132.3299988  94.6790012  12.2784997 132.0499988
  93.9580012  13.5994997 132.2109988  93.9752647  12.7322218 132.2755487
  92.3320012  15.5344997 134.6369988  91.6850012  15.8594997 135.2629988
  91.8150012  15.0944997 133.9629988  92.1734029  15.5195004 134.6315827
  94.3550012   9.7724997 123.7739988  93.8330012  10.1294997 123.0549988
  94.3220012  10.4474997 124.4519988  94.2791634   9.9125413 123.7673145
  92.7040012   7.0124997 122.3239988  92.8000012   7.6794997 121.6439988
  92.5640012   6.1964997 121.8429988  92.6982272   6.9935655 122.1658347
  91.8730012   8.3924997 127.9449988  91.7230012   7.4474997 127.9249988
  91.5200012   8.6734997 128.7889988  91.8047448   8.3011481 128.0563705
  76.9090012  10.4704997 131.9559988  77.0930012  10.3884997 131.0199988
  77.7580012  10.3464997 132.3789988  77.0490151  10.4425073 131.8851451
  92.7300012  10.3624997 137.5839988  93.3130012   9.6284997 137.7759988
  93.2940012  11.1344997 137.6309988  92.8859769  10.3664227 137.6166159
  94.2260012   8.2654997 138.2689988  93.3630012   7.8864997 138.1029988
  94.8310012   7.5264997 138.1939988  94.1896119   8.1138268 138.2361528
  91.9510012   4.4204997 121.4419988  92.5620012   4.0494997 122.0789988
  91.1150012   3.9994997 121.6379988  91.9215032   4.3127554 121.5557035
  91.5840012   5.9754997 126.4079988  91.8640012   5.0684997 126.5319988
  92.3430012   6.4094997 126.0189988  91.7249277   5.9100942 126.3723682
  92.1960012   6.5564997 131.8439988  93.1290012   6.7684997 131.8089988
  91.9610012   6.6584997 132.7659988  92.2919244   6.5993100 131.9638892
  92.2250012   7.2934997 134.6199988  91.3820012   7.5614997 134.9859988
  92.6670012   8.1154997 134.4089988  92.1694158   7.4413291 134.6415491
  76.5060012   5.7414997 138.0969988  77.4260012   5.6194997 138.3329988
  76.0570012   4.9914997 138.4859988  76.5711580   5.6233727 138.1819006
  94.5080012   1.2734997 139.9729988  94.8580012   0.6194997 139.3679988
  94.6550012   2.1104997 139.5329988  94.5757887   1.2971548 139.8306858
  92.1970012   3.2384997 126.4559988  92.3800012   2.7894997 127.2819988
  91.5980012   2.6534997 125.9929988  92.1410202   3.0979975 126.5063275
  77.7270012   4.0534997 130.9879988  78.1730012   3.2614997 131.2899988
  78.1940012   4.7694997 131.4179988  77.8510831   4.0420685 131.0874006
  76.0310012   7.0524997 132.0569988  76.5230012   6.8314997 131.2659988
  76.3940012   7.8934997 132.3379988  76.1473126   7.1358357 131.9867531
  94.0280012   3.3824997 138.3219988  93.1100012   3.6534997 138.2869988
  94.1510012   2.8474997 137.5379988  93.9189729   3.3472508 138.2111923
  94.0640012   3.3054997 122.9839988  94.4760012   2.5844997 122.5089988
  94.7460012   3.9754997 123.0429988  94.2125885   3.2972368 122.9268915
  76.3450012   3.3104997 126.1109988  75.4200012   3.5194997 125.9819988
  76.7990012   3.7944997 125.4209988  76.2797292   3.4045343 126.0000720
  91.1160012  18.2944997 128.0569988  91.7680012  17.9474997 127.4489988
  91.6260012  18.7834997 128.7029988  91.2742637  18.3130597 128.0610236
  76.3090012   2.0484997 134.4549988  75.6440012   1.8024997 135.0989988
  75.8660012   2.6704997 133.8779988  76.1581318   2.0989410 134.4650898
  78.5010012  15.2234997 138.5999988  77.6800012  15.3984997 138.1389988
  78.2480012  15.1504997 139.5199988  78.3545585  15.2375544 138.6613561
  81.4550012  16.1984997 134.8579988  81.0300012  17.0074997 134.5759988
  82.3590012  16.2834997 134.5559988  81.5189975  16.3209300 134.7784816
  85.7660012  17.5974997 137.8179988  85.9510012  17.2634997 138.6959988
  86.6120012  17.9064997 137.4959988  85.9057539  17.5936047 137.8945605
  88.1110012  18.8834997 137.0619988  88.7880012  18.2504997 136.8219988
  88.4330012  19.2844997 137.8689988  88.2471637  18.8511154 137.1382793
  93.0280012   1.4724997 136.1409988  92.2160012   1.7974997 135.7539988
  93.2610012   0.7124997 135.6079988  92.9482203   1.4142758 136.0158880
  78.8570012  19.4544997 134.9059988  78.1360012  19.8944997 134.4549988
  78.4910012  19.2034997 135.7539988  78.7089651  19.4807242 134.9589640
  81.3240012  19.0544997 133.9359988  80.4590012  19.1264997 134.3399988
  81.2690012  19.6014997 133.1519988  81.1982085  19.1382685 133.8853362
  86.0340012  18.9424997 133.1109988  85.5780012  19.4714997 132.4569988
  86.1970012  19.5454997 133.8359988  85.9936068  19.0964607 133.1194838
  88.3620012  17.8204997 134.0559988  87.4570012  17.9854997 133.7899988
  88.7910012  18.6734997 133.9909988  88.2961324  17.9584339 134.0107976
  90.9660012  19.3904997 134.3509988  90.7840012  20.3064997 134.1409988
  91.1430012  18.9804997 133.5049988  90.9650210  19.4604822 134.2077885
  78.2710012  18.0774997 131.8159988  78.2530012  17.6524997 132.6729988
  79.0760012  17.7594997 131.4069988  78.3773529  17.9763013 131.8780946
  80.4130012  16.7874997 130.4709988  80.1940012  15.8714997 130.6409988
  81.2370012  16.9274997 130.9369988  80.4944420  16.6810520 130.5572774
  82.9500012  17.2574997 131.3199988  83.1630012  16.3694997 131.0329988
  83.0140012  17.2234997 132.2739988  82.9878232  17.1313102 131.4097397
  86.4580012   2.9214997 130.4639988  85.7840012   2.2924997 130.7199988
  87.0220012   2.4374997 129.8609988  86.4419230   2.7698744 130.4175340
  91.6010012   1.0294997 130.5769988  92.2050012   1.5764997 130.0749988
  90.7310012   1.3484997 130.3359988  91.5661208   1.1475137 130.4756886
  93.3280012   2.1674997 128.9099988  93.9400012   1.6534997 128.3829988
  93.7100012   3.0454997 128.9329988  93.4633371   2.2157866 128.8410041
  78.7850012   1.5554997 128.2859988  78.0080012   1.3214997 127.7789988
  79.3150012   0.7584997 128.2949988  78.7502330   1.4156988 128.2177742
  77.6210012   1.3534997 124.0899988  78.0600012   1.9644997 123.4979988
  76.9880012   1.8914997 124.5639988  77.5954514   1.5099257 124.0730930
  83.3640012   1.4824997 128.0999988  84.2390012   1.8704997 128.0699988
  83.2280012   1.2674997 129.0219988  83.4653695   1.5065184 128.2206440
  88.9210012   1.5124997 129.7489988  88.9970012   1.6074997 128.7989988
  88.6460012   0.6044997 129.8779988  88.8942321   1.4027867 129.6365079
  90.2740012   1.5384997 125.4409988  89.5720012   2.1534997 125.2309988
  89.8300012   0.7004997 125.5719988  90.1176450   1.5095639 125.4299000
  77.5220012  17.3014997 124.9869988  76.8370012  17.2634997 124.3199988
  77.5260012  18.2144997 125.2759988  77.4286998  17.4196733 124.9346771
  79.4820012   3.2694997 122.5319988  79.9740012   2.6394997 122.0049988
  80.1060012   3.5654997 123.1949988  79.6335688   3.2233804 122.5495482
  84.5080012   3.5624997 124.9889988  84.6860012   2.9164997 125.6719988
  84.4550012   4.3964997 125.4559988  84.5251999   3.5868009 125.1455917
  86.3870012  18.5114997 123.3849988  87.2530012  18.8774997 123.2069988
  86.1400012  18.0714997 122.5709988  86.4722392  18.5021756 123.2506289
  93.0960012  18.0744997 126.0639988  92.9010012  17.3264997 125.4989988
  93.0570012  18.8324997 125.4809988  93.0640380  18.0746099 125.9078384
  78.7430012   2.0694997 137.8039988  78.3770012   1.3044997 138.2459988
  79.6560012   2.0984997 138.0899988  78.8162736   1.9685640 137.9032502
  80.7160012   1.4204997 139.3399988  81.6140012   1.1464997 139.1549988
  80.3290012   0.6774997 139.8039988  80.7866612   1.2825914 139.3773643
  79.3400012  18.2214997 122.0129988  79.0730012  18.5084997 122.8859988
  80.1120012  17.6754997 122.1649988  79.4077488  18.1870294 122.1531050
  89.1370012   0.7524997 139.5219988  89.2140012   0.3264997 140.3759988
  90.0310012   0.7664997 139.1789988  89.2683428   0.6960879 139.5925310
  92.3130012  16.8254997 138.2139988  91.5310012  16.6394997 137.6939988
  92.2410012  17.7544997 138.4319988  92.1962274  16.9256643 138.1723018
 106.7190012  10.7114997 128.2449988 106.8080012  11.6554997 128.1129988
 106.0810012  10.4364997 127.5869988 106.6449081  10.8034830 128.1379614
 105.6520012   9.9664997 131.6639988 105.6140012   9.3204997 132.3689988
 105.3300012   9.5004997 130.8929988 105.6032333   9.8149408 131.6562978
  98.0210012   9.5814997 133.2569988  98.0620012   8.9554997 133.9799988
  98.7240012  10.2054997 133.4389988  98.1216363   9.5801196 133.3806044
 109.3580012  12.9054997 129.9649988 108.9180012  12.1854997 130.4159988
 109.3450012  13.6264997 130.5949988 109.2960226  12.9043731 130.1118494
  98.9440012  14.0314997 131.7919988  98.5750012  13.2294997 131.4219988
  99.8850012  13.8624997 131.8379988  99.0207289  13.8990153 131.7476316
  95.5540012   7.6914997 127.1849988  95.1070012   8.5374997 127.1659988
  94.9930012   7.1114997 126.6689988  95.4169900   7.7289916 127.1126801
  96.2650012   9.8534997 129.3099988  96.4780012   9.0834997 129.8379988
  97.0030012   9.9424997 128.7069988  96.3939044   9.7601968 129.3007123
 106.4700012  18.0104997 130.1769988 107.0900012  17.3334997 129.9039988
 106.2620012  17.7924997 131.0859988 106.5266726  17.8884800 130.2624812
 104.0420012  12.3994997 132.0699988 104.3460012  11.7134997 131.4749988
 104.7630012  12.5174997 132.6879988 104.1810671  12.3216305 132.0721816
 112.7050012   4.0004997 132.9309988 112.7540012   4.6104997 133.6659988
 113.1300012   4.4614997 132.2079988 112.7691746   4.1463796 132.9339175
 107.1830012   6.7934997 132.3969988 107.3250012   5.8474997 132.4179988
 107.0760012   7.0004997 131.4689988 107.1879919   6.6918246 132.2743408
 100.3370012   4.8944997 129.6699988 100.3810012   5.7544997 129.2509988
  99.8800012   4.3424997 129.0359988 100.2812240   4.9374422 129.5269864
 108.0600012   5.0254997 128.0709988 108.7060012   4.6964997 128.6949988
 108.5700012   5.5434997 127.4479988 108.2174299   5.0504450 128.0722731
  96.9580012   7.2914997 130.4319988  97.6110012   6.7414997 130.8639988
  96.9820012   7.0174997 129.5149988  97.0506683   7.1791466 130.3672123
 102.1140012   8.8414997 129.6469988 102.7300012   8.3154997 130.1569988
 101.5280012   8.2014997 129.2439988 102.1190810   8.6829208 129.6623173
 113.0960012   5.4784997 135.1659988 112.4080012   6.1364997 135.0709988
 113.1120012   5.2814997 136.1029988 113.0039540   5.5419819 135.2795990
  99.1480012   3.8124997 133.7439988  98.9290012   4.3424997 132.9779988
  98.4800012   4.0394997 134.3909988  99.0277600   3.9156906 133.7266379
 106.5170012  13.3124997 127.2879988 106.2210012  12.9904997 126.4369988
 106.1920012  14.2124997 127.3289988 106.4326371  13.3900215 127.1771801
 101.7170012  11.4884997 134.0309988 100.9770012  12.0864997 134.1349988
 102.4310012  12.0424997 133.7159988 101.7122237  11.6452831 134.0026465
 109.8240012   4.3164997 130.0509988 109.6080012   3.5504997 130.5839988
 110.4790012   4.7884997 130.5639988 109.8830632   4.2755889 130.1932861
  98.7410012   5.7044997 131.6959988  99.3550012   6.3374997 132.0689988
  99.2530012   5.2324997 131.0399988  98.8941981   5.7272267 131.6582908
 100.1240012  13.4524997 134.8179988 100.1190012  14.3324997 134.4399988
  99.2710012  13.3694997 135.2429988 100.0079464  13.5616117 134.8237907
  96.2450012  13.1234997 125.5999988  95.9730012  13.3524997 124.7119988
  96.2910012  13.9614997 126.0609988  96.2139482  13.2681318 125.5406273
 109.8700012  14.7454997 132.3129988 108.9290012  14.8034997 132.4749988
 110.1470012  15.6514997 132.1759988 109.7784679  14.8759443 132.3166815
 110.1710012   3.0314997 133.7309988 109.4350012   3.6424997 133.6929988
 110.8540012   3.4464997 133.2039988 110.1626541   3.1711374 133.6545832
 103.1740012   1.1184997 131.1959988 103.0570012   0.1694997 131.1419988
 102.3190012   1.4504997 131.4699988 103.0424212   1.0335571 131.2256497
 108.1220012  16.5264997 128.9379988 108.5480012  15.8194997 128.4529988
 108.4390012  17.3274997 128.5219988 108.2231683  16.5381017 128.8153680
 109.2820012  14.4274997 127.4469988 109.0240012  13.7374997 126.8359988
 109.3530012  13.9844997 128.2929988 109.2562856  14.2732124 127.4776885
 110.9680012  12.9934997 135.9239988 111.1080012  12.4024997 135.1849988
 111.1350012  13.8664997 135.5679988 111.0097411  13.0305428 135.7746894
 105.4410012   9.9554997 125.6969988 104.7290012  10.4904997 125.3449988
 106.1320012  10.0114997 125.0369988 105.4370132  10.0362543 125.5596289
 105.4940012   8.4134997 122.7359988 106.1950012   8.4354997 123.3869988
 105.7970012   7.7854997 122.0789988 105.6308133   8.3317070 122.7363369
 112.8100012   9.3334997 133.9899988 112.1570012  10.0284997 134.0799988
 113.2750012   9.5434997 133.1809988 112.7835274   9.4570643 133.8928462
 108.8460012  10.1654997 126.6489988 108.1140012  10.3934997 127.2219988
 109.2940012   9.4514997 127.1029988 108.8062725  10.1002145 126.7888816
 108.7440012   8.3394997 135.7159988 108.8240012   9.1024997 136.2879988
 108.1420012   8.6184997 135.0259988 108.6735756   8.4817134 135.7010589
 100.4920012  10.7954997 128.5309988 100.1610012  10.4254997 127.7129988
 101.0800012  10.1254997 128.8779988 100.5261873  10.6541156 128.4658102
 101.8580012  14.2234997 131.2119988 101.7640012  13.6454997 130.4559988
 102.5880012  13.8524997 131.7089988 101.9437387  14.0941663 131.1755342
 100.8580012   9.5644997 132.1649988 101.4240012   9.6854997 131.4019988
 101.1770012  10.2014997 132.8029988 100.9785474   9.6672219 132.1469862
 107.1670012  15.0674997 132.8989988 106.9270012  15.7294997 133.5469988
 106.9690012  14.2334997 133.3239988 107.1073808  15.0453134 133.0451524
 101.7380012  13.9634997 136.8819988 101.4270012  14.7454997 137.3369988
 101.0880012  13.8104997 136.1959988 101.6075558  14.0499105 136.8515871
 107.7170012   9.3274997 124.3339988 108.2970012   9.4774997 125.0809988
 108.1310012   9.7984997 123.6099988 107.8522997   9.4116578 124.3384058
  98.6580012  10.1614997 136.1099988  98.7290012  10.8124997 136.8089988
  97.7680012  10.2644997 135.7749988  98.5473005  10.2645427 136.1603495
 105.4440012  16.0644997 127.7689988 105.9180012  16.3594997 128.5459988
 104.8810012  16.8024997 127.5359988 105.4328184  16.2047247 127.8439628
  99.9780012  16.0354997 137.6449988  99.9850012  15.8994997 136.6979988
  99.0620012  15.9174997 137.8969988  99.8551714  16.0009430 137.5494666
 111.4160012   1.0774997 124.1469988 110.5160012   1.2164997 124.4419988
 111.6680012   1.9084997 123.7449988 111.3268702   1.2089074 124.1330205
  99.4820012   9.8654997 126.1199988  99.1900012  10.6334997 125.6299988
  98.8080012   9.2054997 125.9579988  99.3508111   9.8815587 126.0308978
 112.6050012  15.4434997 122.5229988 112.6790012  16.3824997 122.6939988
 113.5110012  15.1384997 122.4669988 112.7375100  15.5306722 122.5388119
  95.5750012  12.2284997 134.9349988  95.0740012  12.2004997 134.1199988
  95.5800012  11.3224997 135.2449988  95.5070944  12.1022396 134.8653226
  95.3250012  15.0084997 131.8189988  96.2710012  14.8644997 131.7999988
  95.2130012  15.7924997 132.3559988  95.4392727  15.0948046 131.8890072
 113.5230012  15.6744997 137.5019988 113.4740012  14.7194997 137.4649988
 112.6960012  15.9424997 137.9029988 113.4044940  15.5798998 137.5511375
 104.5020012  15.2484997 136.3779988 104.5890012  16.0744997 136.8529988
 103.6380012  14.9184997 136.6269988 104.3971964  15.3169878 136.4766549
 104.9160012  19.0204997 126.1839988 104.8410012  18.8994997 125.2369988
 104.9490012  19.9704997 126.3019988 104.9102068  19.1322646 126.0704967
  98.5690012  17.8094997 127.9649988  98.7220012  17.4614997 128.8429988
  97.7190012  17.4534997 127.7099988  98.4749166  17.7136217 128.0508079
 108.0180012  18.1744997 123.1859988 108.3930012  17.4304997 122.7149988
 108.0220012  17.9044997 124.1049988 108.0699125  18.0360986 123.2456483
 107.6870012  18.1004997 125.9349988 106.7510012  18.2004997 126.1139988
 107.9670012  17.3914997 126.5139988 107.5969553  18.0183406 126.0377087
 110.6750012   7.1674997 137.9819988 110.2680012   7.6484997 137.2609988
 110.7160012   6.2624997 137.6739988 110.6248437   7.1109374 137.8416683
  97.8240012  13.5514997 135.9789988  98.0400012  13.1904997 136.8379988
  96.9690012  13.1774997 135.7689988  97.7379292  13.4514111 136.0683386
 100.4430012   2.0214997 131.9739988  99.5810012   1.9344997 131.5659988
 100.4200012   2.8774997 132.4019988 100.3220409   2.1252883 131.9760589
 105.1060012   1.7434997 135.3489988 105.5260012   1.3284997 136.1019988
 104.1730012   1.5654997 135.4659988 105.0373644   1.6625900 135.4679539
 108.4320012   5.4994997 136.2019988 107.9180012   5.3734997 136.9999988
 108.2770012   6.4114997 135.9579988 108.3406852   5.6056132 136.2782158
 109.1950012  10.3604997 121.9639988 109.2370012  10.1374997 121.0339988
 110.0440012  10.7594997 122.1529988 109.3155280  10.3839438 121.8623554
 104.7670012   4.2364997 122.6339988 104.5140012   4.2554997 123.5569988
 104.5110012   3.3644997 122.3319988 104.6977481   4.1212558 122.7196175
 100.5340012   6.9874997 133.0689988  99.8920012   6.9464997 133.7779988
 100.5710012   7.9134997 132.8309988 100.4510664   7.1071430 133.1339219
 100.5310012   7.2084997 127.9809988  99.6380012   6.8674997 127.9219988
 100.9810012   6.8314997 127.2249988 100.4698130   7.1109631 127.8707702
 106.0660012   7.6244997 126.7979988 105.6570012   8.4394997 126.5069988
 106.7870012   7.4844997 126.1839988 106.1074537   7.7172018 126.6751342
 105.1680012   7.7994997 138.2859988 104.6060012   7.0954997 138.6069988
 105.9950012   7.6794997 138.7539988 105.2027095   7.6867883 138.3932330
 107.0710012   7.0704997 129.6119988 106.8760012   7.6754997 128.8969988
 107.2520012   6.2364997 129.1779988 107.0687614   7.0406300 129.4554405
  98.2840012   7.3074997 134.9359988  98.2460012   7.7074997 135.8049988
  97.7930012   6.4904997 135.0269988  98.2124684   7.2518069 135.0671059
 101.6500012   4.6814997 121.7349988 101.2190012   4.2364997 122.4649988
 100.9320012   5.0534997 121.2229988 101.4939438   4.6708940 121.7656799
  94.8920012   4.4234997 128.7869988  95.5230012   4.3944997 129.5059988
  95.3410012   3.9984997 128.0559988  95.0390918   4.3620836 128.7866441
  96.1660012   5.1694997 124.2109988  96.6400012   5.7604997 123.6259988
  95.4490012   5.7004997 124.5579988  96.1339341   5.3220867 124.1778836
 106.3350012   8.7084997 134.2829988 106.6580012   8.0774997 133.6399988
 105.8950012   8.1734997 134.9439988 106.3197484   8.5498387 134.2843198
 103.1120012   4.6354997 129.0669988 102.2010012   4.6924997 129.3559988
 103.6180012   4.5754997 129.8779988 103.0556899   4.6351941 129.2161184
  97.9410012   6.2644997 127.8939988  97.0510012   6.3644997 127.5539988
  98.2370012   5.4224997 127.5479988  97.8592823   6.1643545 127.8007213
 101.5940012   6.2644997 125.5509988 102.5250012   6.3934997 125.7289988
 101.3790012   6.9344997 124.9009988 101.6924247   6.3726565 125.4875747
 107.5170012   3.8704997 132.3319988 106.8410012   4.0014997 132.9959988
 107.0320012   3.7154997 131.5209988 107.3587146   3.8675157 132.3134469
 100.2680012   7.4594997 123.1169988  99.7250012   7.0794997 122.4259988
 101.1010012   7.6534997 122.6889988 100.3063631   7.4337125 122.9644501
 110.8050012  19.5424997 138.6079988 111.0050012  19.9664997 137.7739988
 111.4600012  19.8854997 139.2149988 110.9210072  19.6469857 138.5758592
  98.4030012  12.0164997 138.2159988  99.1350012  12.2704997 138.7779988
  97.6230012  12.2204997 138.7319988  98.3977073  12.0788160 138.3626151
 104.4320012   7.4234997 130.9539988 104.9970012   6.8764997 130.4069988
 104.2850012   6.9014997 131.7429988 104.4893380   7.2782259 130.9858695
  99.4340012   3.5594997 127.3729988  99.1170012   2.6574997 127.3369988
 100.2160012   3.5614997 126.8199988  99.4962408   3.4362474 127.2933569
 103.0590012   5.8114997 133.3679988 102.2230012   6.2654997 133.4789988
 103.5830012   6.0874997 134.1199988 103.0155416   5.9108660 133.4848119
 103.6030012  12.0244997 125.0529988 102.8580012  11.5174997 124.7309988
 103.4690012  12.0734997 125.9999988 103.4828776  11.9616940 125.1368647
 110.7530012  11.1574997 133.8399988 111.3950012  11.6144997 133.2959988
 109.9230012  11.2704997 133.3769988 110.7285963  11.2352704 133.7030177
 107.5010012   4.8384997 123.2519988 106.5620012   4.9504997 123.1009988
 107.7980012   5.6954997 123.5589988 107.4127583   4.9695981 123.2728337
 105.1220012  12.2084997 136.2899988 104.7770012  11.8274997 137.0969988
 104.9220012  13.1424997 136.3609988 105.0477527  12.2825135 136.4100689
 108.2190012   6.7054997 124.9129988 109.1110012   6.5684997 125.2319988
 108.2760012   7.4964997 124.3759988 108.3486504   6.7936052 124.8840818
  98.7280012  11.3194997 130.8229988  99.4730012  11.3174997 130.2219988
  98.8060012  10.4964997 131.3039988  98.8404995  11.2078887 130.8058282
 105.7290012  13.4834997 124.0789988 105.4330012  14.3094997 124.4599988
 105.0260012  12.8634997 124.2749988 105.5934914  13.5128199 124.1576443
  95.7360012   9.7804997 136.1379988  95.9590012   9.3624997 136.9699988
  95.1340012   9.1674997 135.7149988  95.6851759   9.6404668 136.1947022
 102.7520012   9.2974997 138.3509988 102.4560012   9.1314997 137.4559988
 103.6840012   9.0774997 138.3399988 102.8374166   9.2450640 138.2270536
 107.3730012  14.6704997 136.2409988 106.4720012  14.8534997 135.9729988
 107.4070012  14.9294997 137.1609988 107.2543139  14.7305849 136.3288099
 113.1040012   6.9154997 124.6079988 112.5500012   6.5194997 123.9359988
 113.2040012   7.8254997 124.3299988 113.0417059   6.9843586 124.4784401
 113.0670012  12.7154997 137.4449988 112.2160012  12.9534997 137.0779988
 113.6580012  12.6984997 136.6919988 113.0302487  12.7458258 137.2928893
 111.3990012  15.7014997 125.0729988 111.0260012  14.8754997 125.3819988
 111.6770012  15.5184997 124.1749988 111.3855222  15.5637430 124.9939473
 108.5600012  10.5094997 132.0939988 107.6310012  10.2774997 132.0669988
 109.0110012   9.7324997 131.7639988 108.4939216  10.3727238 132.0456917
 101.1030012  14.8374997 128.2269988 101.6300012  15.6104997 128.0269988
 100.2230012  15.0624997 127.9249988 101.0562031  14.9737545 128.1587912
  96.8580012   9.6994997 122.8139988  97.4740012  10.3264997 123.1939988
  95.9960012  10.0154997 123.0859988  96.8257698   9.8279430 122.9027183
 102.5300012  12.5004997 127.8029988 102.2890012  13.4254997 127.8449988
 101.7890012  12.0414997 128.1999988 102.3969225  12.5650933 127.8623742
 103.0450012  16.6494997 134.1189988 103.4070012  17.5044997 133.8849988
 103.5760012  16.3574997 134.8589988 103.1664473  16.7271060 134.1870855
 101.2130012  17.5224997 127.3489988 100.2630012  17.6274997 127.3999988
 101.5650012  18.3424997 127.6929988 101.1304195  17.6478800 127.4025502
 106.5890012  12.7484997 133.8189988 106.1630012  12.5214997 134.6459988
 107.1690012  12.0104997 133.6369988 106.6091868  12.6175299 133.9075830
 108.7920012  13.6774997 122.8929988 109.1450012  13.2974997 123.6969988
 107.8430012  13.5844997 122.9799988 108.7120918  13.6128956 123.0148532
 109.2470012  17.3004997 136.2889988 108.6460012  16.7454997 135.7929988
 109.5290012  17.9674997 135.6619988 109.2028804  17.3146625 136.1364849
 113.2950012  18.1574997 123.0939988 114.0390012  18.7434997 122.9539988
 112.6010012  18.7254997 123.4269988 113.3029899  18.3145798 123.1198778
  97.3700012   4.5334997 135.6959988  96.4770012   4.8724997 135.6279988
  97.2710012   3.6784997 136.1139988  97.2344164   4.4642588 135.7432235
 109.6580012  12.3504997 125.1199988 109.3800012  11.6224997 125.6759988
 110.5850012  12.4694997 125.3249988 109.7453124  12.2668802 125.2238845
  97.0210012  16.3384997 134.1309988  97.2380012  15.4064997 134.0999988
  97.2670012  16.6124997 135.0139988  97.0839549  16.2480636 134.2461763
 102.8830012  14.7894997 121.3399988 103.1220012  14.0414997 120.7929988
 102.6140012  14.4014997 122.1729988 102.8793675  14.6346638 121.3776865
 101.8200012  14.3594997 123.7959988 101.9660012  13.8394997 124.5859988
 101.8170012  15.2664997 124.1029988 101.8395792  14.4108842 123.9456117
  98.2730012  11.6124997 124.3069988  97.5870012  11.9644997 124.8739988
  98.7950012  12.3754997 124.0599988  98.2496852  11.7638578 124.3512118
 106.1040012   4.2744997 134.5859988 106.8030012   4.3484997 135.2359988
 105.7230012   3.4104997 134.7399988 106.1481767   4.1677624 134.6958322
 106.8890012   3.9264997 125.6829988 107.1090012   4.3984997 124.8799988
 107.4470012   4.3214997 126.3529988 106.9944968   4.0444285 125.6637331
 104.5570012  16.0574997 124.5459988 103.7410012  16.5544997 124.5979988
 105.0870012  16.5324997 123.9059988 104.5169161  16.1897722 124.4665956
 104.0890012   5.6544997 126.5179988 104.9010012   6.1594997 126.5639988
 103.8440012   5.5094997 127.4319988 104.1670520   5.7040375 126.6478517
 104.6240012   6.6404997 135.7019988 104.7430012   7.2144997 136.4599988
 105.2800012   5.9524997 135.8169988 104.7289025   6.6259858 135.8211321
 104.9720012   2.7354997 127.4559988 104.6260012   3.3534997 128.0999988
 105.6310012   3.2364997 126.9739988 105.0136968   2.8876278 127.4789383
 101.8960012  17.1014997 124.5269988 102.0560012  17.9004997 124.0269988
 101.6980012  17.4074997 125.4119988 101.8911637  17.2524020 124.5781144
 100.6300012   3.7984997 124.1429988 100.5470012   4.6874997 124.4899988
 101.5200012   3.5334997 124.3749988 100.7389469   3.8841430 124.2217626
 110.8290012   4.5474997 136.5369988 109.9120012   4.8104997 136.4499988
 111.1640012   4.5444997 135.6409988 110.7488613   4.5830761 136.4038837
 109.4310012   8.2984997 130.6329988 108.6330012   7.8834997 130.3049988
 109.8760012   7.6074997 131.1239988 109.3819885   8.1483543 130.6544889
  98.8890012  14.2264997 123.2039988  99.4810012  14.9254997 123.4799988
  99.3480012  13.7934997 122.4839988  99.0321142  14.2637049 123.1444830
  97.2050012   6.8904997 122.3199988  97.1600012   7.8294997 122.4979988
  96.3170012   6.6544997 122.0499988  97.0788574   6.9871892 122.3078912
 110.5170012  17.5544997 132.2559988 110.3620012  18.2324997 131.5979988
 111.4500012  17.6264997 132.4589988 110.6218657  17.6569546 132.1934360
  98.0130012   1.6724997 130.9929988  97.7840012   1.7314997 130.0649988
  97.5700012   0.8804997 131.2989988  97.9218530   1.5735753 130.9074786
  96.9430012  15.6124997 127.1529988  96.1110012  16.0854997 127.1799988
  97.4890012  16.1224997 126.5549988  96.9030352  15.7461332 127.0758463
  96.2310012  18.2254997 138.4829988  96.7720012  18.0084997 139.2429988
  95.7500012  17.4194997 138.2929988  96.2399951  18.0869270 138.5612576
 100.8290012  17.1444997 140.1029988 101.5960012  16.6854997 140.4439988
 100.8070012  16.9184997 139.1739988 100.9311275  17.0510186 140.0240101
 104.9210012  16.6524997 121.4789988 104.2770012  16.0214997 121.7999988
 105.6830012  16.1214997 121.2469988 104.9358077  16.4942920 121.4916011
 107.4060012  15.5244997 138.8329988 107.0550012  14.6684997 139.0759988
 108.1320012  15.6674997 139.4399988 107.4560769  15.4265636 138.9483619
 109.5250012  16.4694997 121.7119988 109.8080012  15.6754997 122.1649988
 110.2650012  16.7024997 121.1519988 109.6638006  16.3923376 121.6982715
  96.1380012  12.0354997 139.4369988  96.2820012  11.1334997 139.1509988
  95.3660012  12.3214997 138.9499988  96.0532753  11.9506816 139.3319505
 100.4800012  12.3794997 121.5699988 100.5440012  11.5854997 122.1009988
 101.1330012  12.2604997 120.8799988 100.5770241  12.2547148 121.5494317
 102.7940012  12.0054997 138.8699988 102.4650012  12.2764997 138.0129988
 102.9460012  11.0644997 138.7829988 102.7694809  11.9153862 138.7408244
 105.8320012  13.4264997 121.3059988 105.5630012  13.6064997 122.2069988
 105.6260012  12.5004997 121.1739988 105.7673427  13.3260261 121.4115073
 108.5280012  11.9214997 136.2529988 109.2740012  12.5094997 136.1339988
 107.7710012  12.5034997 136.3169988 108.5277820  12.0807143 136.2453590
  96.9710012   9.2354997 138.8569988  97.3790012   8.3784997 138.7359988
  96.7110012   9.2504997 139.7779988  96.9917568   9.1200807 138.9649588
 101.6290012  10.3514997 123.8759988 101.1690012   9.8674997 124.5619988
 101.8840012   9.6834997 123.2399988 101.6004902  10.1948731 123.8839334
 100.9180012   8.2444997 136.2319988 100.3000012   8.9194997 136.5119988
 101.2620012   8.5654997 135.3979988 100.8799132   8.3802411 136.1576262
 102.7000012   8.5944997 122.1379988 102.5200012   8.4404997 121.2109988
 103.6500012   8.7024997 122.1829988 102.8037776   8.5880175 122.0171843
 105.9380012  10.7164997 139.5089988 106.8910012  10.7994997 139.4819988
 105.7770012  10.0044997 140.1289988 106.0466426  10.6316746 139.5890579
 112.0900012  10.9494997 121.5839988 111.8160012  10.5244997 120.7709988
 112.1290012  11.8804997 121.3669988 112.0577699  11.0172484 121.4433610
 101.2570012   5.5994997 137.3139988 101.4070012   4.8704997 136.7119988
 101.2600012   6.3764997 136.7549988 101.2779302   5.6047851 137.1560692
 101.6700012   3.9694997 134.8069988 102.2060012   4.4204997 134.1549988
 100.8180012   3.8614997 134.3839988 101.6282178   4.0166390 134.6605756
 103.2520012   9.4084997 135.0459988 104.0020012   9.2524997 134.4729988
 102.9130012  10.2604997 134.7709988 103.3088921   9.5022968 134.9303561
 107.6670012   7.2234997 140.0749988 107.8600012   6.2924997 139.9629988
 108.5250012   7.6484997 140.0639988 107.8092934   7.1536531 140.0582031
 108.9840012  10.0124997 138.1519988 108.7030012  10.7214997 137.5739988
 109.9270012   9.9394997 138.0009988 109.0729291  10.0996711 138.0524967
  99.7360012   6.7974997 139.2259988  98.9690012   6.2654997 139.0149988
 100.4150012   6.4874997 138.6259988  99.7227877   6.6828300 139.1160716
 102.4760012   1.4254997 135.2379988 102.3770012   2.3724997 135.1329988
 101.7330012   1.0534997 134.7619988 102.3621184   1.5045863 135.1593621
 103.7400012   5.7474997 138.8019988 103.5040012   5.5274997 139.7029988
 102.9560012   5.5404997 138.2919988 103.6018504   5.6894586 138.8563431
 106.4550012   4.8744997 137.8769988 105.5080012   4.9064997 138.0099988
 106.7680012   4.2494997 138.5309988 106.3676707   4.7943998 137.9836060
 108.0890012   3.5084997 139.8829988 107.9930012   2.5564997 139.8769988
 107.7680012   3.7774997 140.7429988 108.0324070   3.4144035 139.9985441
  97.9160012   4.7184997 138.9299988  98.1280012   4.0114997 138.3199988
  97.8050012   4.2804997 139.7739988  97.9299721   4.5627084 138.9606843
 102.6970012   0.7194997 137.9089988 103.4090012   0.0794997 137.8949988
 102.5960012   0.9864997 136.9959988 102.7808066   0.6680079 137.7835677
 103.0510012   2.4024997 139.9629988 102.9190012   1.9264997 139.1429988
 102.4520012   3.1464997 139.9079988 102.9519071   2.4379618 139.8432886
 102.5970012  19.2854997 123.1389988 103.5300012  19.4434997 123.2829988
 102.3330012  19.9604997 122.5149988 102.6889888  19.3984510 123.0742842
  96.1660012  13.9214997 122.6219988  97.0800012  14.0004997 122.8959988
  96.1730012  13.2344997 121.9559988  96.2921131  13.8393961 122.5694393
  94.8150012  19.3144997 127.6999988  94.1680012  18.8524997 127.1669988
  95.1690012  18.6424997 128.2819988  94.7743849  19.1604723 127.7057959
  95.6850012  17.3954997 129.5039988  95.3500012  16.5154997 129.6759988
  95.9070012  17.7404997 130.3689988  95.6691783  17.3217500 129.6444208
 113.2330012  18.2044997 132.4849988 113.2120012  18.3894997 133.4239988
 113.9240012  18.7734997 132.1439988 113.3234618  18.3066606 132.5673864
 112.7970012  17.7724997 135.4069988 112.3090012  17.0364997 135.0349988
 113.3460012  17.3784997 136.0849988 112.8044820  17.6185889 135.4477813
 111.2470012  13.5614997 140.0449988 110.3810012  13.4564997 140.4389988
 111.6240012  14.3204997 140.4909988 111.1793308  13.6496900 140.1592393
 112.5480012  11.8184997 125.5589988 113.3980012  12.2394997 125.6859988
 112.5540012  11.0784997 126.1659988 112.6651372  11.7760803 125.6584344
 112.9430012   9.8714997 127.3819988 112.2160012   9.3924997 127.7799988
 113.5240012  10.0774997 128.1149988 112.9220473   9.8338103 127.5354528
 112.7020012  12.6564997 132.3299988 113.5350012  12.2784997 132.0499988
 112.8140012  13.5994997 132.2109988 112.8312647  12.7322218 132.2755487
 111.1880012  15.5344997 134.6369988 110.5410012  15.8594997 135.2629988
 110.6710012  15.0944997 133.9629988 111.0294029  15.5195004 134.6315827
 113.2110012   9.7724997 123.7739988 112.6890012  10.1294997 123.0549988
 113.1780012  10.4474997 124.4519988 113.1351634   9.9125413 123.7673145
 111.5600012   7.0124997 122.3239988 111.6560012   7.6794997 121.6439988
 111.4200012   6.1964997 121.8429988 111.5542272   6.9935655 122.1658347
 110.7290012   8.3924997 127.9449988 110.5790012   7.4474997 127.9249988
 110.3760012   8.6734997 128.7889988 110.6607448   8.3011481 128.0563705
  95.7650012  10.4704997 131.9559988  95.9490012  10.3884997 131.0199988
  96.6140012  10.3464997 132.3789988  95.9050151  10.4425073 131.8851451
 111.5860012  10.3624997 137.5839988 112.1690012   9.6284997 137.7759988
 112.1500012  11.1344997 137.6309988 111.7419769  10.3664227 137.6166159
 113.0820012   8.2654997 138.2689988 112.2190012   7.8864997 138.1029988
 113.6870012   7.5264997 138.1939988 113.0456119   8.1138268 138.2361528
 110.8070012   4.4204997 121.4419988 111.4180012   4.0494997 122.0789988
 109.9710012   3.9994997 121.6379988 110.7775032   4.3127554 121.5557035
 110.4400012   5.9754997 126.4079988 110.7200012   5.0684997 126.5319988
 111.1990012   6.4094997 126.0189988 110.5809277   5.9100942 126.3723682
 111.0520012   6.5564997 131.8439988 111.9850012   6.7684997 131.8089988
 110.8170012   6.6584997 132.7659988 111.1479244   6.5993100 131.9638892
 111.0810012   7.2934997 134.6199988 110.2380012   7.5614997 134.9859988
 111.5230012   8.1154997 134.4089988 111.0254158   7.4413291 134.6415491
  95.3620012   5.7414997 138.0969988  96.2820012   5.6194997 138.3329988
  94.9130012   4.9914997 138.4859988  95.4271580   5.6233727 138.1819006
 113.3640012   1.2734997 139.9729988 113.7140012   0.6194997 139.3679988
 113.5110012   2.1104997 139.5329988 113.4317887   1.2971548 139.8306858
 111.0530012   3.2384997 126.4559988 111.2360012   2.7894997 127.2819988
 110.4540012   2.6534997 125.9929988 110.9970202   3.0979975 126.5063275
  96.5830012   4.0534997 130.9879988  97.0290012   3.2614997 131.2899988
  97.0500012   4.7694997 131.4179988  96.7070831   4.0420685 131.0874006
  94.8870012   7.0524997 132.0569988  95.3790012   6.8314997 131.2659988
  95.2500012   7.8934997 132.3379988  95.0033126   7.1358357 131.9867531
 112.8840012   3.3824997 138.3219988 111.9660012   3.6534997 138.2869988
 113.0070012   2.8474997 137.5379988 112.7749729   3.3472508 138.2111923
 112.9200012   3.3054997 122.9839988 113.3320012   2.5844997 122.5089988
 113.6020012   3.9754997 123.0429988 113.0685885   3.2972368 122.9268915
  95.2010012   3.3104997 126.1109988  94.2760012   3.5194997 125.9819988
  95.6550012   3.7944997 125.4209988  95.1357292   3.4045343 126.0000720
 109.9720012  18.2944997 128.0569988 110.6240012  17.9474997 127.4489988
 110.4820012  18.7834997 128.7029988 110.1302637  18.3130597 128.0610236
  95.1650012   2.0484997 134.4549988  94.5000012   1.8024997 135.0989988
  94.7220012   2.6704997 133.8779988  95.0141318   2.0989410 134.4650898
  97.3570012  15.2234997 138.5999988  96.5360012  15.3984997 138.1389988
  97.1040012  15.1504997 139.5199988  97.2105585  15.2375544 138.6613561
 100.3110012  16.1984997 134.8579988  99.8860012  17.0074997 134.5759988
 101.2150012  16.2834997 134.5559988 100.3749975  16.3209300 134.7784816
 104.6220012  17.5974997 137.8179988 104.8070012  17.2634997 138.6959988
 105.4680012  17.9064997 137.4959988 104.7617539  17.5936047 137.8945605
 106.9670012  18.8834997 137.0619988 107.6440012  18.2504997 136.8219988
 107.2890012  19.2844997 137.8689988 107.1031637  18.8511154 137.1382793
 111.8840012   1.4724997 136.1409988 111.0720012   1.7974997 135.7539988
 112.1170012   0.7124997 135.6079988 111.8042203   1.4142758 136.0158880
  97.7130012  19.4544997 134.9059988  96.9920012  19.8944997 134.4549988
  97.3470012  19.2034997 135.7539988  97.5649651  19.4807242 134.9589640
 100.1800012  19.0544997 133.9359988  99.3150012  19.1264997 134.3399988
 100.1250012  19.6014997 133.1519988 100.0542085  19.1382685 133.8853362
 104.8900012  18.9424997 133.1109988 104.4340012  19.4714997 132.4569988
 105.0530012  19.5454997 133.8359988 104.8496068  19.0964607 133.1194838
 107.2180012  17.8204997 134.0559988 106.3130012  17.9854997 133.7899988
 107.6470012  18.6734997 133.9909988 107.1521324  17.9584339 134.0107976
 109.8220012  19.3904997 134.3509988 109.6400012  20.3064997 134.1409988
 109.9990012  18.9804997 133.5049988 109.8210210  19.4604822 134.2077885
  97.1270012  18.0774997 131.8159988  97.1090012  17.6524997 132.6729988
  97.9320012  17.7594997 131.4069988  97.2333529  17.9763013 131.8780946
  99.2690012  16.7874997 130.4709988  99.0500012  15.8714997 130.6409988
 100.0930012  16.9274997 130.9369988  99.3504420  16.6810520 130.5572774
 101.8060012  17.2574997 131.3199988 102.0190012  16.3694997 131.0329988
 101.8700012  17.2234997 132.2739988 101.8438232  17.1313102 131.4097397
 105.3140012   2.9214997 130.4639988 104.6400012   2.2924997 130.7199988
 105.8780012   2.4374997 129.8609988 105.2979230   2.7698744 130.4175340
 110.4570012   1.0294997 130.5769988 111.0610012   1.5764997 130.0749988
 109.5870012   1.3484997 130.3359988 110.4221208   1.1475137 130.4756886
 112.1840012   2.1674997 128.9099988 112.7960012   1.6534997 128.3829988
 112.5660012   3.0454997 128.9329988 112.3193371   2.2157866 128.8410041
  97.6410012   1.5554997 128.2859988  96.8640012   1.3214997 127.7789988
  98.1710012   0.7584997 128.2949988  97.6062330   1.4156988 128.2177742
  96.4770012   1.3534997 124.0899988  96.9160012   1.9644997 123.4979988
  95.8440012   1.8914997 124.5639988  96.4514514   1.5099257 124.0730930
 102.2200012   1.4824997 128.0999988 103.0950012   1.8704997 128.0699988
 102.0840012   1.2674997 129.0219988 102.3213695   1.5065184 128.2206440
 107.7770012   1.5124997 129.7489988 107.8530012   1.6074997 128.7989988
 107.5020012   0.6044997 129.8779988 107.7502321   1.4027867 129.6365079
 109.1300012   1.5384997 125.4409988 108.4280012   2.1534997 125.2309988
 108.6860012   0.7004997 125.5719988 108.9736450   1.5095639 125.4299000
  96.3780012  17.3014997 124.9869988  95.6930012  17.2634997 124.3199988
  96.3820012  18.2144997 125.2759988  96.2846998  17.4196733 124.9346771
  98.3380012   3.2694997 122.5319988  98.8300012   2.6394997 122.0049988
  98.9620012   3.5654997 123.1949988  98.4895688   3.2233804 122.5495482
 103.3640012   3.5624997 124.9889988 103.5420012   2.9164997 125.6719988
 103.3110012   4.3964997 125.4559988 103.3811999   3.5868009 125.1455917
 105.2430012  18.5114997 123.3849988 106.1090012  18.8774997 123.2069988
 104.9960012  18.0714997 122.5709988 105.3282392  18.5021756 123.2506289
 111.9520012  18.0744997 126.0639988 111.7570012  17.3264997 125.4989988
 111.9130012  18.8324997 125.4809988 111.9200380  18.0746099 125.9078384
  97.5990012   2.0694997 137.8039988  97.2330012   1.3044997 138.2459988
  98.5120012   2.0984997 138.0899988  97.6722736   1.9685640 137.9032502
  99.5720012   1.4204997 139.3399988 100.4700012   1.1464997 139.1549988
  99.1850012   0.6774997 139.8039988  99.6426612   1.2825914 139.3773643
  98.1960012  18.2214997 122.0129988  97.9290012  18.5084997 122.8859988
  98.9680012  17.6754997 122.1649988  98.2637488  18.1870294 122.1531050
 107.9930012   0.7524997 139.5219988 108.0700012   0.3264997 140.3759988
 108.8870012   0.7664997 139.1789988 108.1243428   0.6960879 139.5925310
 111.1690012  16.8254997 138.2139988 110.3870012  16.6394997 137.6939988
 111.0970012  17.7544997 138.4319988 111.0522274  16.9256643 138.1723018
 125.5750012  10.7114997 128.2449988 125.6640012  11.6554997 128.1129988
 124.9370012  10.4364997 127.5869988 125.5009081  10.8034830 128.1379614
 124.5080012   9.9664997 131.6639988 124.4700012   9.3204997 132.3689988
 124.1860012   9.5004997 130.8929988 124.4592333   9.8149408 131.6562978
 116.8770012   9.5814997 133.2569988 116.9180012   8.9554997 133.9799988
 117.5800012  10.2054997 133.4389988 116.9776363   9.5801196 133.3806044
 128.2140012  12.9054997 129.9649988 127.7740012  12.1854997 130.4159988
 128.2010012  13.6264997 130.5949988 128.1520226  12.9043731 130.1118494
 117.8000012  14.0314997 131.7919988 117.4310012  13.2294997 131.4219988
 118.7410012  13.8624997 131.8379988 117.8767289  13.8990153 131.7476316
 114.4100012   7.6914997 127.1849988 113.9630012   8.5374997 127.1659988
 113.8490012   7.1114997 126.6689988 114.2729900   7.7289916 127.1126801
 115.1210012   9.8534997 129.3099988 115.3340012   9.0834997 129.8379988
 115.8590012   9.9424997 128.7069988 115.2499044   9.7601968 129.3007123
 125.3260012  18.0104997 130.1769988 125.9460012  17.3334997 129.9039988
 125.1180012  17.7924997 131.0859988 125.3826726  17.8884800 130.2624812
 122.8980012  12.3994997 132.0699988 123.2020012  11.7134997 131.4749988
 123.6190012  12.5174997 132.6879988 123.0370671  12.3216305 132.0721816
 131.5610012   4.0004997 132.9309988 131.6100012   4.6104997 133.6659988
 131.9860012   4.4614997 132.2079988 131.6251746   4.1463796 132.9339175
 126.0390012   6.7934997 132.3969988 126.1810012   5.8474997 132.4179988
 125.9320012   7.0004997 131.4689988 126.0439919   6.6918246 132.2743408
 119.1930012   4.8944997 129.6699988 119.2370012   5.7544997 129.2509988
 118.7360012   4.3424997 129.0359988 119.1372240   4.9374422 129.5269864
 126.9160012   5.0254997 128.0709988 127.5620012   4.6964997 128.6949988
 127.4260012   5.5434997 127.4479988 127.0734299   5.0504450 128.0722731
 115.8140012   7.2914997 130.4319988 116.4670012   6.7414997 130.8639988
 115.8380012   7.0174997 129.5149988 115.9066683   7.1791466 130.3672123
 120.9700012   8.8414997 129.6469988 121.5860012   8.3154997 130.1569988
 120.3840012   8.2014997 129.2439988 120.9750810   8.6829208 129.6623173
 131.9520012   5.4784997 135.1659988 131.2640012   6.1364997 135.0709988
 131.9680012   5.2814997 136.1029988 131.8599540   5.5419819 135.2795990
 118.0040012   3.8124997 133.7439988 117.7850012   4.3424997 132.9779988
 117.3360012   4.0394997 134.3909988 117.8837600   3.9156906 133.7266379
 125.3730012  13.3124997 127.2879988 125.0770012  12.9904997 126.4369988
 125.0480012  14.2124997 127.3289988 125.2886371  13.3900215 127.1771801
 120.5730012  11.4884997 134.0309988 119.8330012  12.0864997 134.1349988
 121.2870012  12.0424997 133.7159988 120.5682237  11.6452831 134.0026465
 128.6800012   4.3164997 130.0509988 128.4640012   3.5504997 130.5839988
 129.3350012   4.7884997 130.5639988 128.7390632   4.2755889 130.1932861
 117.5970012   5.7044997 131.6959988 118.2110012   6.3374997 132.0689988
 118.1090012   5.2324997 131.0399988 117.7501981   5.7272267 131.6582908
 118.9800012  13.4524997 134.8179988 118.9750012  14.3324997 134.4399988
 118.1270012  13.3694997 135.2429988 118.8639464  13.5616117 134.8237907
 115.1010012  13.1234997 125.5999988 114.8290012  13.3524997 124.7119988
 115.1470012  13.9614997 126.0609988 115.0699482  13.2681318 125.5406273
 128.7260012  14.7454997 132.3129988 127.7850012  14.8034997 132.4749988
 129.0030012  15.6514997 132.1759988 128.6344679  14.8759443 132.3166815
 129.0270012   3.0314997 133.7309988 128.2910012   3.6424997 133.6929988
 129.7100012   3.4464997 133.2039988 129.0186541   3.1711374 133.6545832
 122.0300012   1.1184997 131.1959988 121.9130012   0.1694997 131.1419988
 121.1750012   1.4504997 131.4699988 121.8984212   1.0335571 131.2256497
 126.9780012  16.5264997 128.9379988 127.4040012  15.8194997 128.4529988
 127.2950012  17.3274997 128.5219988 127.0791683  16.5381017 128.8153680
 128.1380012  14.4274997 127.4469988 127.8800012  13.7374997 126.8359988
 128.2090012  13.9844997 128.2929988 128.1122856  14.2732124 127.4776885
 129.8240012  12.9934997 135.9239988 129.9640012  12.4024997 135.1849988
 129.9910012  13.8664997 135.5679988 129.8657411  13.0305428 135.7746894
 124.2970012   9.9554997 125.6969988 123.5850012  10.4904997 125.3449988
 124.9880012  10.0114997 125.0369988 124.2930132  10.0362543 125.5596289
 124.3500012   8.4134997 122.7359988 125.0510012   8.4354997 123.3869988
 124.6530012   7.7854997 122.0789988 124.4868133   8.3317070 122.7363369
 131.6660012   9.3334997 133.9899988 131.0130012  10.0284997 134.0799988
 132.1310012   9.5434997 133.1809988 131.6395274   9.4570643 133.8928462
 127.7020012  10.1654997 126.6489988 126.9700012  10.3934997 127.2219988
 128.1500012   9.4514997 127.1029988 127.6622725  10.1002145 126.7888816
 127.6000012   8.3394997 135.7159988 127.6800012   9.1024997 136.2879988
 126.9980012   8.6184997 135.0259988 127.5295756   8.4817134 135.7010589
 119.3480012  10.7954997 128.5309988 119.0170012  10.4254997 127.7129988
 119.9360012  10.1254997 128.8779988 119.3821873  10.6541156 128.4658102
 120.7140012  14.2234997 131.2119988 120.6200012  13.6454997 130.4559988
 121.4440012  13.8524997 131.7089988 120.7997387  14.0941663 131.1755342
 119.7140012   9.5644997 132.1649988 120.2800012   9.6854997 131.4019988
 120.0330012  10.2014997 132.8029988 119.8345474   9.6672219 132.1469862
 126.0230012  15.0674997 132.8989988 125.7830012  15.7294997 133.5469988
 125.8250012  14.2334997 133.3239988 125.9633808  15.0453134 133.0451524
 120.5940012  13.9634997 136.8819988 120.2830012  14.7454997 137.3369988
 119.9440012  13.8104997 136.1959988 120.4635558  14.0499105 136.8515871
 126.5730012   9.3274997 124.3339988 127.1530012   9.4774997 125.0809988
 126.9870012   9.7984997 123.6099988 126.7082997   9.4116578 124.3384058
 117.5140012  10.1614997 136.1099988 117.5850012  10.8124997 136.8089988
 116.6240012  10.2644997 135.7749988 117.4033005  10.2645427 136.1603495
 124.3000012  16.0644997 127.7689988 124.7740012  16.3594997 128.5459988
 123.7370012  16.8024997 127.5359988 124.2888184  16.2047247 127.8439628
 118.8340012  16.0354997 137.6449988 118.8410012  15.8994997 136.6979988
 117.9180012  15.9174997 137.8969988 118.7111714  16.0009430 137.5494666
 130.2720012   1.0774997 124.1469988 129.3720012   1.2164997 124.4419988
 130.5240012   1.9084997 123.7449988 130.1828702   1.2089074 124.1330205
 118.3380012   9.8654997 126.1199988 118.0460012  10.6334997 125.6299988
 117.6640012   9.2054997 125.9579988 118.2068111   9.8815587 126.0308978
 131.4610012  15.4434997 122.5229988 131.5350012  16.3824997 122.6939988
 132.3670012  15.1384997 122.4669988 131.5935100  15.5306722 122.5388119
 114.4310012  12.2284997 134.9349988 113.9300012  12.2004997 134.1199988
 114.4360012  11.3224997 135.2449988 114.3630944  12.1022396 134.8653226
 114.1810012  15.0084997 131.8189988 115.1270012  14.8644997 131.7999988
 114.0690012  15.7924997 132.3559988 114.2952727  15.0948046 131.8890072
 132.3790012  15.6744997 137.5019988 132.3300012  14.7194997 137.4649988
 131.5520012  15.9424997 137.9029988 132.2604940  15.5798998 137.5511375
 123.3580012  15.2484997 136.3779988 123.4450012  16.0744997 136.8529988
 122.4940012  14.9184997 136.6269988 123.2531964  15.3169878 136.4766549
 123.7720012  19.0204997 126.1839988 123.6970012  18.8994997 125.2369988
 123.8050012  19.9704997 126.3019988 123.7662068  19.1322646 126.0704967
 117.4250012  17.8094997 127.9649988 117.5780012  17.4614997 128.8429988
 116.5750012  17.4534997 127.7099988 117.3309166  17.7136217 128.0508079
 126.8740012  18.1744997 123.1859988 127.2490012  17.4304997 122.7149988
 126.8780012  17.9044997 124.1049988 126.9259125  18.0360986 123.2456483
 126.5430012  18.1004997 125.9349988 125.6070012  18.2004997 126.1139988
 126.8230012  17.3914997 126.5139988 126.4529553  18.0183406 126.0377087
 129.5310012   7.1674997 137.9819988 129.1240012   7.6484997 137.2609988
 129.5720012   6.2624997 137.6739988 129.4808437   7.1109374 137.8416683
 116.6800012  13.5514997 135.9789988 116.8960012  13.1904997 136.8379988
 115.8250012  13.1774997 135.7689988 116.5939292  13.4514111 136.0683386
 119.2990012   2.0214997 131.9739988 118.4370012   1.9344997 131.5659988
 119.2760012   2.8774997 132.4019988 119.1780409   2.1252883 131.9760589
 123.9620012   1.7434997 135.3489988 124.3820012   1.3284997 136.1019988
 123.0290012   1.5654997 135.4659988 123.8933644   1.6625900 135.4679539
 127.2880012   5.4994997 136.2019988 126.7740012   5.3734997 136.9999988
 127.1330012   6.4114997 135.9579988 127.1966852   5.6056132 136.2782158
 128.0510012  10.3604997 121.9639988 128.0930012  10.1374997 121.0339988
 128.9000012  10.7594997 122.1529988 128.1715280  10.3839438 121.8623554
 123.6230012   4.2364997 122.6339988 123.3700012   4.2554997 123.5569988
 123.3670012   3.3644997 122.3319988 123.5537481   4.1212558 122.7196175
 119.3900012   6.9874997 133.0689988 118.7480012   6.9464997 133.7779988
 119.4270012   7.9134997 132.8309988 119.3070664   7.1071430 133.1339219
 119.3870012   7.2084997 127.9809988 118.4940012   6.8674997 127.9219988
 119.8370012   6.8314997 127.2249988 119.3258130   7.1109631 127.8707702
 124.9220012   7.6244997 126.7979988 124.5130012   8.4394997 126.5069988
 125.6430012   7.4844997 126.1839988 124.9634537   7.7172018 126.6751342
 124.0240012   7.7994997 138.2859988 123.4620012   7.0954997 138.6069988
 124.8510012   7.6794997 138.7539988 124.0587095   7.6867883 138.3932330
 125.9270012   7.0704997 129.6119988 125.7320012   7.6754997 128.8969988
 126.1080012   6.2364997 129.1779988 125.9247614   7.0406300 129.4554405
 117.1400012   7.3074997 134.9359988 117.1020012   7.7074997 135.8049988
 116.6490012   6.4904997 135.0269988 117.0684684   7.2518069 135.0671059
 120.5060012   4.6814997 121.7349988 120.0750012   4.2364997 122.4649988
 119.7880012   5.0534997 121.2229988 120.3499438   4.6708940 121.7656799
 113.7480012   4.4234997 128.7869988 114.3790012   4.3944997 129.5059988
 114.1970012   3.9984997 128.0559988 113.8950918   4.3620836 128.7866441
 115.0220012   5.1694997 124.2109988 115.4960012   5.7604997 123.6259988
 114.3050012   5.7004997 124.5579988 114.9899341   5.3220867 124.1778836
 125.1910012   8.7084997 134.2829988 125.5140012   8.0774997 133.6399988
 124.7510012   8.1734997 134.9439988 125.1757484   8.5498387 134.2843198
 121.9680012   4.6354997 129.0669988 121.0570012   4.6924997 129.3559988
 122.4740012   4.5754997 129.8779988 121.9116899   4.6351941 129.2161184
 116.7970012   6.2644997 127.8939988 115.9070012   6.3644997 127.5539988
 117.0930012   5.4224997 127.5479988 116.7152823   6.1643545 127.8007213
 120.4500012   6.2644997 125.5509988 121.3810012   6.3934997 125.7289988
 120.2350012   6.9344997 124.9009988 120.5484247   6.3726565 125.4875747
 126.3730012   3.8704997 132.3319988 125.6970012   4.0014997 132.9959988
 125.8880012   3.7154997 131.5209988 126.2147146   3.8675157 132.3134469
 119.1240012   7.4594997 123.1169988 118.5810012   7.0794997 122.4259988
 119.9570012   7.6534997 122.6889988 119.1623631   7.4337125 122.9644501
 129.6610012  19.5424997 138.6079988 129.8610012  19.9664997 137.7739988
 130.3160012  19.8854997 139.2149988 129.7770072  19.6469857 138.5758592
 117.2590012  12.0164997 138.2159988 117.9910012  12.2704997 138.7779988
 116.4790012  12.2204997 138.7319988 117.2537073  12.0788160 138.3626151
 123.2880012   7.4234997 130.9539988 123.8530012   6.8764997 130.4069988
 123.1410012   6.9014997 131.7429988 123.3453380   7.2782259 130.9858695
 118.2900012   3.5594997 127.3729988 117.9730012   2.6574997 127.3369988
 119.0720012   3.5614997 126.8199988 118.3522408   3.4362474 127.2933569
 121.9150012   5.8114997 133.3679988 121.0790012   6.2654997 133.4789988
 122.4390012   6.0874997 134.1199988 121.8715416   5.9108660 133.4848119
 122.4590012  12.0244997 125.0529988 121.7140012  11.5174997 124.7309988
 122.3250012  12.0734997 125.9999988 122.3388776  11.9616940 125.1368647
 129.6090012  11.1574997 133.8399988 130.2510012  11.6144997 133.2959988
 128.7790012  11.2704997 133.3769988 129.5845963  11.2352704 133.7030177
 126.3570012   4.8384997 123.2519988 125.4180012   4.9504997 123.1009988
 126.6540012   5.6954997 123.5589988 126.2687583   4.9695981 123.2728337
 123.9780012  12.2084997 136.2899988 123.6330012  11.8274997 137.0969988
 123.7780012  13.1424997 136.3609988 123.9037527  12.2825135 136.4100689
 127.0750012   6.7054997 124.9129988 127.9670012   6.5684997 125.2319988
 127.1320012   7.4964997 124.3759988 127.2046504   6.7936052 124.8840818
 117.5840012  11.3194997 130.8229988 118.3290012  11.3174997 130.2219988
 117.6620012  10.4964997 131.3039988 117.6964995  11.2078887 130.8058282
 124.5850012  13.4834997 124.0789988 124.2890012  14.3094997 124.4599988
 123.8820012  12.8634997 124.2749988 124.4494914  13.5128199 124.1576443
 114.5920012   9.7804997 136.1379988 114.8150012   9.3624997 136.9699988
 113.9900012   9.1674997 135.7149988 114.5411759   9.6404668 136.1947022
 121.6080012   9.2974997 138.3509988 121.3120012   9.1314997 137.4559988
 122.5400012   9.0774997 138.3399988 121.6934166   9.2450640 138.2270536
 126.2290012  14.6704997 136.2409988 125.3280012  14.8534997 135.9729988
 126.2630012  14.9294997 137.1609988 126.1103139  14.7305849 136.3288099
 131.9600012   6.9154997 124.6079988 131.4060012   6.5194997 123.9359988
 132.0600012   7.8254997 124.3299988 131.8977059   6.9843586 124.4784401
 131.9230012  12.7154997 137.4449988 131.0720012  12.9534997 137.0779988
 132.5140012  12.6984997 136.6919988 131.8862487  12.7458258 137.2928893
 130.2550012  15.7014997 125.0729988 129.8820012  14.8754997 125.3819988
 130.5330012  15.5184997 124.1749988 130.2415222  15.5637430 124.9939473
 127.4160012  10.5094997 132.0939988 126.4870012  10.2774997 132.0669988
 127.8670012   9.7324997 131.7639988 127.3499216  10.3727238 132.0456917
 119.9590012  14.8374997 128.2269988 120.4860012  15.6104997 128.0269988
 119.0790012  15.0624997 127.9249988 119.9122031  14.9737545 128.1587912
 115.7140012   9.6994997 122.8139988 116.3300012  10.3264997 123.1939988
 114.8520012  10.0154997 123.0859988 115.6817698   9.8279430 122.9027183
 121.3860012  12.5004997 127.8029988 121.1450012  13.4254997 127.8449988
 120.6450012  12.0414997 128.1999988 121.2529225  12.5650933 127.8623742
 121.9010012  16.6494997 134.1189988 122.2630012  17.5044997 133.8849988
 122.4320012  16.3574997 134.8589988 122.0224473  16.7271060 134.1870855
 120.0690012  17.5224997 127.3489988 119.1190012  17.6274997 127.3999988
 120.4210012  18.3424997 127.6929988 119.9864195  17.6478800 127.4025502
 125.4450012  12.7484997 133.8189988 125.0190012  12.5214997 134.6459988
 126.0250012  12.0104997 133.6369988 125.4651868  12.6175299 133.9075830
 127.6480012  13.6774997 122.8929988 128.0010012  13.2974997 123.6969988
 126.6990012  13.5844997 122.9799988 127.5680918  13.6128956 123.0148532
 128.1030012  17.3004997 136.2889988 127.5020012  16.7454997 135.7929988
 128.3850012  17.9674997 135.6619988 128.0588804  17.3146625 136.1364849
 132.1510012  18.1574997 123.0939988 132.8950012  18.7434997 122.9539988
 131.4570012  18.7254997 123.4269988 132.1589899  18.3145798 123.1198778
 116.2260012   4.5334997 135.6959988 115.3330012   4.8724997 135.6279988
 116.1270012   3.6784997 136.1139988 116.0904164   4.4642588 135.7432235
 128.5140012  12.3504997 125.1199988 128.2360012  11.6224997 125.6759988
 129.4410012  12.4694997 125.3249988 128.6013124  12.2668802 125.2238845
 115.8770012  16.3384997 134.1309988 116.0940012  15.4064997 134.0999988
 116.1230012  16.6124997 135.0139988 115.9399549  16.2480636 134.2461763
 121.7390012  14.7894997 121.3399988 121.9780012  14.0414997 120.7929988
 121.4700012  14.4014997 122.1729988 121.7353675  14.6346638 121.3776865
 120.6760012  14.3594997 123.7959988 120.8220012  13.8394997 124.5859988
 120.6730012  15.2664997 124.1029988 120.6955792  14.4108842 123.9456117
 117.1290012  11.6124997 124.3069988 116.4430012  11.9644997 124.8739988
 117.6510012  12.3754997 124.0599988 117.1056852  11.7638578 124.3512118
 124.9600012   4.2744997 134.5859988 125.6590012   4.3484997 135.2359988
 124.5790012   3.4104997 134.7399988 125.0041767   4.1677624 134.6958322
 125.7450012   3.9264997 125.6829988 125.9650012   4.3984997 124.8799988
 126.3030012   4.3214997 126.3529988 125.8504968   4.0444285 125.6637331
 123.4130012  16.0574997 124.5459988 122.5970012  16.5544997 124.5979988
 123.9430012  16.5324997 123.9059988 123.3729161  16.1897722 124.4665956
 122.9450012   5.6544997 126.5179988 123.7570012   6.1594997 126.5639988
 122.7000012   5.5094997 127.4319988 123.0230520   5.7040375 126.6478517
 123.4800012   6.6404997 135.7019988 123.5990012   7.2144997 136.4599988
 124.1360012   5.9524997 135.8169988 123.5849025   6.6259858 135.8211321
 123.8280012   2.7354997 127.4559988 123.4820012   3.3534997 128.0999988
 124.4870012   3.2364997 126.9739988 123.8696968   2.8876278 127.4789383
 120.7520012  17.1014997 124.5269988 120.9120012  17.9004997 124.0269988
 120.5540012  17.4074997 125.4119988 120.7471637  17.2524020 124.5781144
 119.4860012   3.7984997 124.1429988 119.4030012   4.6874997 124.4899988
 120.3760012   3.5334997 124.3749988 119.5949469   3.8841430 124.2217626
 129.6850012   4.5474997 136.5369988 128.7680012   4.8104997 136.4499988
 130.0200012   4.5444997 135.6409988 129.6048613   4.5830761 136.4038837
 128.2870012   8.2984997 130.6329988 127.4890012   7.8834997 130.3049988
 128.7320012   7.6074997 131.1239988 128.2379885   8.1483543 130.6544889
 117.7450012  14.2264997 123.2039988 118.3370012  14.9254997 123.4799988
 118.2040012  13.7934997 122.4839988 117.8881142  14.2637049 123.1444830
 116.0610012   6.8904997 122.3199988 116.0160012   7.8294997 122.4979988
 115.1730012   6.6544997 122.0499988 115.9348574   6.9871892 122.3078912
 129.3730012  17.5544997 132.2559988 129.2180012  18.2324997 131.5979988
 130.3060012  17.6264997 132.4589988 129.4778657  17.6569546 132.1934360
 116.8690012   1.6724997 130.9929988 116.6400012   1.7314997 130.0649988
 116.4260012   0.8804997 131.2989988 116.7778530   1.5735753 130.9074786
 115.7990012  15.6124997 127.1529988 114.9670012  16.0854997 127.1799988
 116.3450012  16.1224997 126.5549988 115.7590352  15.7461332 127.0758463
 115.0870012  18.2254997 138.4829988 115.6280012  18.0084997 139.2429988
 114.6060012  17.4194997 138.2929988 115.0959951  18.0869270 138.5612576
 119.6850012  17.1444997 140.1029988 120.4520012  16.6854997 140.4439988
 119.6630012  16.9184997 139.1739988 119.7871275  17.0510186 140.0240101
 123.7770012  16.6524997 121.4789988 123.1330012  16.0214997 121.7999988
 124.5390012  16.1214997 121.2469988 123.7918077  16.4942920 121.4916011
 126.2620012  15.5244997 138.8329988 125.9110012  14.6684997 139.0759988
 126.9880012  15.6674997 139.4399988 126.3120769  15.4265636 138.9483619
 128.3810012  16.4694997 121.7119988 128.6640012  15.6754997 122.1649988
 129.1210012  16.7024997 121.1519988 128.5198006  16.3923376 121.6982715
 114.9940012  12.0354997 139.4369988 115.1380012  11.1334997 139.1509988
 114.2220012  12.3214997 138.9499988 114.9092753  11.9506816 139.3319505
 119.3360012  12.3794997 121.5699988 119.4000012  11.5854997 122.1009988
 119.9890012  12.2604997 120.8799988 119.4330241  12.2547148 121.5494317
 121.6500012  12.0054997 138.8699988 121.3210012  12.2764997 138.0129988
 121.8020012  11.0644997 138.7829988 121.6254809  11.9153862 138.7408244
 124.6880012  13.4264997 121.3059988 124.4190012  13.6064997 122.2069988
 124.4820012  12.5004997 121.1739988 124.6233427  13.3260261 121.4115073
 127.3840012  11.9214997 136.2529988 128.1300012  12.5094997 136.1339988
 126.6270012  12.5034997 136.3169988 127.3837820  12.0807143 136.2453590
 115.8270012   9.2354997 138.8569988 116.2350012   8.3784997 138.7359988
 115.5670012   9.2504997 139.7779988 115.8477568   9.1200807 138.9649588
 120.4850012  10.3514997 123.8759988 120.0250012   9.8674997 124.5619988
 120.7400012   9.6834997 123.2399988 120.4564902  10.1948731 123.8839334
 119.7740012   8.2444997 136.2319988 119.1560012   8.9194997 136.5119988
 120.1180012   8.5654997 135.3979988 119.7359132   8.3802411 136.1576262
 121.5560012   8.5944997 122.1379988 121.3760012   8.4404997 121.2109988
 122.5060012   8.7024997 122.1829988 121.6597776   8.5880175 122.0171843
 124.7940012  10.7164997 139.5089988 125.7470012  10.7994997 139.4819988
 124.6330012  10.0044997 140.1289988 124.9026426  10.6316746 139.5890579
 130.9460012  10.9494997 121.5839988 130.6720012  10.5244997 120.7709988
 130.9850012  11.8804997 121.3669988 130.9137699  11.0172484 121.4433610
 120.1130012   5.5994997 137.3139988 120.2630012   4.8704997 136.7119988
 120.1160012   6.3764997 136.7549988 120.1339302   5.6047851 137.1560692
 120.5260012   3.9694997 134.8069988 121.0620012   4.4204997 134.1549988
 119.6740012   3.8614997 134.3839988 120.4842178   4.0166390 134.6605756
 122.1080012   9.4084997 135.0459988 122.8580012   9.2524997 134.4729988
 121.7690012  10.2604997 134.7709988 122.1648921   9.5022968 134.9303561
 126.5230012   7.2234997 140.0749988 126.7160012   6.2924997 139.9629988
 127.3810012   7.6484997 140.0639988 126.6652934   7.1536531 140.0582031
 127.8400012  10.0124997 138.1519988 127.5590012  10.7214997 137.5739988
 128.7830012   9.9394997 138.0009988 127.9289291  10.0996711 138.0524967
 118.5920012   6.7974997 139.2259988 117.8250012   6.2654997 139.0149988
 119.2710012   6.4874997 138.6259988 118.5787877   6.6828300 139.1160716
 121.3320012   1.4254997 135.2379988 121.2330012   2.3724997 135.1329988
 120.5890012   1.0534997 134.7619988 121.2181184   1.5045863 135.1593621
 122.5960012   5.7474997 138.8019988 122.3600012   5.5274997 139.7029988
 121.8120012   5.5404997 138.2919988 122.4578504   5.6894586 138.8563431
 125.3110012   4.8744997 137.8769988 124.3640012   4.9064997 138.0099988
 125.6240012   4.2494997 138.5309988 125.2236707   4.7943998 137.9836060
 126.9450012   3.5084997 139.8829988 126.8490012   2.5564997 139.8769988
 126.6240012   3.7774997 140.7429988 126.8884070   3.4144035 139.9985441
 116.7720012   4.7184997 138.9299988 116.9840012   4.0114997 138.3199988
 116.6610012   4.2804997 139.7739988 116.7859721   4.5627084 138.9606843
 121.5530012   0.7194997 137.9089988 122.2650012   0.0794997 137.8949988
 121.4520012   0.9864997 136.9959988 121.6368066   0.6680079 137.7835677
 121.9070012   2.4024997 139.9629988 121.7750012   1.9264997 139.1429988
 121.3080012   3.1464997 139.9079988 121.8079071   2.4379618 139.8432886
 121.4530012  19.2854997 123.1389988 122.3860012  19.4434997 123.2829988
 121.1890012  19.9604997 122.5149988 121.5449888  19.3984510 123.0742842
 115.0220012  13.9214997 122.6219988 115.9360012  14.0004997 122.8959988
 115.0290012  13.2344997 121.9559988 115.1481131  13.8393961 122.5694393
 113.6710012  19.3144997 127.6999988 113.0240012  18.8524997 127.1669988
 114.0250012  18.6424997 128.2819988 113.6303849  19.1604723 127.7057959
 114.5410012  17.3954997 129.5039988 114.2060012  16.5154997 129.6759988
 114.7630012  17.7404997 130.3689988 114.5251783  17.3217500 129.6444208
 132.0890012  18.2044997 132.4849988 132.0680012  18.3894997 133.4239988
 132.7800012  18.7734997 132.1439988 132.1794618  18.3066606 132.5673864
 131.6530012  17.7724997 135.4069988 131.1650012  17.0364997 135.0349988
 132.2020012  17.3784997 136.0849988 131.6604820  17.6185889 135.4477813
 130.1030012  13.5614997 140.0449988 129.2370012  13.4564997 140.4389988
 130.4800012  14.3204997 140.4909988 130.0353308  13.6496900 140.1592393
 131.4040012  11.8184997 125.5589988 132.2540012  12.2394997 125.6859988
 131.4100012  11.0784997 126.1659988 131.5211372  11.7760803 125.6584344
 131.7990012   9.8714997 127.3819988 131.0720012   9.3924997 127.7799988
 132.3800012  10.0774997 128.1149988 131.7780473   9.8338103 127.5354528
 131.5580012  12.6564997 132.3299988 132.3910012  12.2784997 132.0499988
 131.6700012  13.5994997 132.2109988 131.6872647  12.7322218 132.2755487
 130.0440012  15.5344997 134.6369988 129.3970012  15.8594997 135.2629988
 129.5270012  15.0944997 133.9629988 129.8854029  15.5195004 134.6315827
 132.0670012   9.7724997 123.7739988 131.5450012  10.1294997 123.0549988
 132.0340012  10.4474997 124.4519988 131.9911634   9.9125413 123.7673145
 130.4160012   7.0124997 122.3239988 130.5120012   7.6794997 121.6439988
 130.2760012   6.1964997 121.8429988 130.4102272   6.9935655 122.1658347
 129.5850012   8.3924997 127.9449988 129.4350012   7.4474997 127.9249988
 129.2320012   8.6734997 128.7889988 129.5167448   8.3011481 128.0563705
 114.6210012  10.4704997 131.9559988 114.8050012  10.3884997 131.0199988
 115.4700012  10.3464997 132.3789988 114.7610151  10.4425073 131.8851451
 130.4420012  10.3624997 137.5839988 131.0250012   9.6284997 137.7759988
 131.0060012  11.1344997 137.6309988 130.5979769  10.3664227 137.6166159
 131.9380012   8.2654997 138.2689988 131.0750012   7.8864997 138.1029988
 132.5430012   7.5264997 138.1939988 131.9016119   8.1138268 138.2361528
 129.6630012   4.4204997 121.4419988 130.2740012   4.0494997 122.0789988
 128.8270012   3.9994997 121.6379988 129.6335032   4.3127554 121.5557035
 129.2960012   5.9754997 126.4079988 129.5760012   5.0684997 126.5319988
 130.0550012   6.4094997 126.0189988 129.4369277   5.9100942 126.3723682
 129.9080012   6.5564997 131.8439988 130.8410012   6.7684997 131.8089988
 129.6730012   6.6584997 132.7659988 130.0039244   6.5993100 131.9638892
 129.9370012   7.2934997 134.6199988 129.0940012   7.5614997 134.9859988
 130.3790012   8.1154997 134.4089988 129.8814158   7.4413291 134.6415491
 114.2180012   5.7414997 138.0969988 115.1380012   5.6194997 138.3329988
 113.7690012   4.9914997 138.4859988 114.2831580   5.6233727 138.1819006
 132.2200012   1.2734997 139.9729988 132.5700012   0.6194997 139.3679988
 132.3670012   2.1104997 139.5329988 132.2877887   1.2971548 139.8306858
 129.9090012   3.2384997 126.4559988 130.0920012   2.7894997 127.2819988
 129.3100012   2.6534997 125.9929988 129.8530202   3.0979975 126.5063275
 115.4390012   4.0534997 130.9879988 115.8850012   3.2614997 131.2899988
 115.9060012   4.7694997 131.4179988 115.5630831   4.0420685 131.0874006
 113.7430012   7.0524997 132.0569988 114.2350012   6.8314997 131.2659988
 114.1060012   7.8934997 132.3379988 113.8593126   7.1358357 131.9867531
 131.7400012   3.3824997 138.3219988 130.8220012   3.6534997 138.2869988
 131.8630012   2.8474997 137.5379988 131.6309729   3.3472508 138.2111923
 131.7760012   3.3054997 122.9839988 132.1880012   2.5844997 122.5089988
 132.4580012   3.9754997 123.0429988 131.9245885   3.2972368 122.9268915
 114.0570012   3.3104997 126.1109988 113.1320012   3.5194997 125.9819988
 114.5110012   3.7944997 125.4209988 113.9917292   3.4045343 126.0000720
 128.8280012  18.2944997 128.0569988 129.4800012  17.9474997 127.4489988
 129.3380012  18.7834997 128.7029988 128.9862637  18.3130597 128.0610236
 114.0210012   2.0484997 134.4549988 113.3560012   1.8024997 135.0989988
 113.5780012   2.6704997 133.8779988 113.8701318   2.0989410 134.4650898
 116.2130012  15.2234997 138.5999988 115.3920012  15.3984997 138.1389988
 115.9600012  15.1504997 139.5199988 116.0665585  15.2375544 138.6613561
 119.1670012  16.1984997 134.8579988 118.7420012  17.0074997 134.5759988
 120.0710012  16.2834997 134.5559988 119.2309975  16.3209300 134.7784816
 123.4780012  17.5974997 137.8179988 123.6630012  17.2634997 138.6959988
 124.3240012  17.9064997 137.4959988 123.6177539  17.5936047 137.8945605
 125.8230012  18.8834997 137.0619988 126.5000012  18.2504997 136.8219988
 126.1450012  19.2844997 137.8689988 125.9591637  18.8511154 137.1382793
 130.7400012   1.4724997 136.1409988 129.9280012   1.7974997 135.7539988
 130.9730012   0.7124997 135.6079988 130.6602203   1.4142758 136.0158880
 116.5690012  19.4544997 134.9059988 115.8480012  19.8944997 134.4549988
 116.2030012  19.2034997 135.7539988 116.4209651  19.4807242 134.9589640
 119.0360012  19.0544997 133.9359988 118.1710012  19.1264997 134.3399988
 118.9810012  19.6014997 133.1519988 118.9102085  19.1382685 133.8853362
 123.7460012  18.9424997 133.1109988 123.2900012  19.4714997 132.4569988
 123.9090012  19.5454997 133.8359988 123.7056068  19.0964607 133.1194838
 126.0740012  17.8204997 134.0559988 125.1690012  17.9854997 133.7899988
 126.5030012  18.6734997 133.9909988 126.0081324  17.9584339 134.0107976
 128.6780012  19.3904997 134.3509988 128.4960012  20.3064997 134.1409988
 128.8550012  18.9804997 133.5049988 128.6770210  19.4604822 134.2077885
 115.9830012  18.0774997 131.8159988 115.9650012  17.6524997 132.6729988
 116.7880012  17.7594997 131.4069988 116.0893529  17.9763013 131.8780946
 118.1250012  16.7874997 130.4709988 117.9060012  15.8714997 130.6409988
 118.9490012  16.9274997 130.9369988 118.2064420  16.6810520 130.5572774
 120.6620012  17.2574997 131.3199988 120.8750012  16.3694997 131.0329988
 120.7260012  17.2234997 132.2739988 120.6998232  17.1313102 131.4097397
 124.1700012   2.9214997 130.4639988 123.4960012   2.2924997 130.7199988
 124.7340012   2.4374997 129.8609988 124.1539230   2.7698744 130.4175340
 129.3130012   1.0294997 130.5769988 129.9170012   1.5764997 130.0749988
 128.4430012   1.3484997 130.3359988 129.2781208   1.1475137 130.4756886
 131.0400012   2.1674997 128.9099988 131.6520012   1.6534997 128.3829988
 131.4220012   3.0454997 128.9329988 131.1753371   2.2157866 128.8410041
 116.4970012   1.5554997 128.2859988 115.7200012   1.3214997 127.7789988
 117.0270012   0.7584997 128.2949988 116.4622330   1.4156988 128.2177742
 115.3330012   1.3534997 124.0899988 115.7720012   1.9644997 123.4979988
 114.7000012   1.8914997 124.5639988 115.3074514   1.5099257 124.0730930
 121.0760012   1.4824997 128.0999988 121.9510012   1.8704997 128.0699988
 120.9400012   1.2674997 129.0219988 121.1773695   1.5065184 128.2206440
 126.6330012   1.5124997 129.7489988 126.7090012   1.6074997 128.7989988
 126.3580012   0.6044997 129.8779988 126.6062321   1.4027867 129.6365079
 127.9860012   1.5384997 125.4409988 127.2840012   2.1534997 125.2309988
 127.5420012   0.7004997 125.5719988 127.8296450   1.5095639 125.4299000
 115.2340012  17.3014997 124.9869988 114.5490012  17.2634997 124.3199988
 115.2380012  18.2144997 125.2759988 115.1406998  17.4196733 124.9346771
 117.1940012   3.2694997 122.5319988 117.6860012   2.6394997 122.0049988
 117.8180012   3.5654997 123.1949988 117.3455688   3.2233804 122.5495482
 122.2200012   3.5624997 124.9889988 122.3980012   2.9164997 125.6719988
 122.1670012   4.3964997 125.4559988 122.2371999   3.5868009 125.1455917
 124.0990012  18.5114997 123.3849988 124.9650012  18.8774997 123.2069988
 123.8520012  18.0714997 122.5709988 124.1842392  18.5021756 123.2506289
 130.8080012  18.0744997 126.0639988 130.6130012  17.3264997 125.4989988
 130.7690012  18.8324997 125.4809988 130.7760380  18.0746099 125.9078384
 116.4550012   2.0694997 137.8039988 116.0890012   1.3044997 138.2459988
 117.3680012   2.0984997 138.0899988 116.5282736   1.9685640 137.9032502
 118.4280012   1.4204997 139.3399988 119.3260012   1.1464997 139.1549988
 118.0410012   0.6774997 139.8039988 118.4986612   1.2825914 139.3773643
 117.0520012  18.2214997 122.0129988 116.7850012  18.5084997 122.8859988
 117.8240012  17.6754997 122.1649988 117.1197488  18.1870294 122.1531050
 126.8490012   0.7524997 139.5219988 126.9260012   0.3264997 140.3759988
 127.7430012   0.7664997 139.1789988 126.9803428   0.6960879 139.5925310
 130.0250012  16.8254997 138.2139988 129.2430012  16.6394997 137.6939988
 129.9530012  17.7544997 138.4319988 129.9082274  16.9256643 138.1723018
 144.4310012  10.7114997 128.2449988 144.5200012  11.6554997 128.1129988
 143.7930012  10.4364997 127.5869988 144.3569081  10.8034830 128.1379614
 143.3640012   9.9664997 131.6639988 143.3260012   9.3204997 132.3689988
 143.0420012   9.5004997 130.8929988 143.3152333   9.8149408 131.6562978
 135.7330012   9.5814997 133.2569988 135.7740012   8.9554997 133.9799988
 136.4360012  10.2054997 133.4389988 135.8336363   9.5801196 133.3806044
 136.6560012  14.0314997 131.7919988 136.2870012  13.2294997 131.4219988
 137.5970012  13.8624997 131.8379988 136.7327289  13.8990153 131.7476316
 133.2660012   7.6914997 127.1849988 132.8190012   8.5374997 127.1659988
 132.7050012   7.1114997 126.6689988 133.1289900   7.7289916 127.1126801
 133.9770012   9.8534997 129.3099988 134.1900012   9.0834997 129.8379988
 134.7150012   9.9424997 128.7069988 134.1059044   9.7601968 129.3007123
 144.1820012  18.0104997 130.1769988 144.8020012  17.3334997 129.9039988
 143.9740012  17.7924997 131.0859988 144.2386726  17.8884800 130.2624812
 141.7540012  12.3994997 132.0699988 142.0580012  11.7134997 131.4749988
 142.4750012  12.5174997 132.6879988 141.8930671  12.3216304 132.0721816
 144.8950012   6.7934997 132.3969988 145.0370012   5.8474997 132.4179988
 144.7880012   7.0004997 131.4689988 144.8999919   6.6918246 132.2743408
 138.0490012   4.8944997 129.6699988 138.0930012   5.7544997 129.2509988
 137.5920012   4.3424997 129.0359988 137.9932240   4.9374422 129.5269864
 134.6700012   7.2914997 130.4319988 135.3230012   6.7414997 130.8639988
 134.6940012   7.0174997 129.5149988 134.7626683   7.1791466 130.3672123
 139.8260012   8.8414997 129.6469988 140.4420012   8.3154997 130.1569988
 139.2400012   8.2014997 129.2439988 139.8310810   8.6829208 129.6623173
 136.8600012   3.8124997 133.7439988 136.6410012   4.3424997 132.9779988
 136.1920012   4.0394997 134.3909988 136.7397600   3.9156906 133.7266379
 144.2290012  13.3124997 127.2879988 143.9330012  12.9904997 126.4369988
 143.9040012  14.2124997 127.3289988 144.1446371  13.3900215 127.1771801
 139.4290012  11.4884997 134.0309988 138.6890012  12.0864997 134.1349988
 140.1430012  12.0424997 133.7159988 139.4242237  11.6452831 134.0026465
 136.4530012   5.7044997 131.6959988 137.0670012   6.3374997 132.0689988
 136.9650012   5.2324997 131.0399988 136.6061981   5.7272267 131.6582908
 137.8360012  13.4524997 134.8179988 137.8310012  14.3324997 134.4399988
 136.9830012  13.3694997 135.2429988 137.7199464  13.5616117 134.8237907
 133.9570012  13.1234997 125.5999988 133.6850012  13.3524997 124.7119988
 134.0030012  13.9614997 126.0609988 133.9259482  13.2681318 125.5406273
 140.8860012   1.1184997 131.1959988 140.7690012   0.1694997 131.1419988
 140.0310012   1.4504997 131.4699988 140.7544212   1.0335571 131.2256497
 143.1530012   9.9554997 125.6969988 142.4410012  10.4904997 125.3449988
 143.8440012  10.0114997 125.0369988 143.1490132  10.0362543 125.5596289
 143.2060012   8.4134997 122.7359988 143.9070012   8.4354997 123.3869988
 143.5090012   7.7854997 122.0789988 143.3428133   8.3317070 122.7363369
 138.2040012  10.7954997 128.5309988 137.8730012  10.4254997 127.7129988
 138.7920012  10.1254997 128.8779988 138.2381873  10.6541156 128.4658102
 139.5700012  14.2234997 131.2119988 139.4760012  13.6454997 130.4559988
 140.3000012  13.8524997 131.7089988 139.6557387  14.0941663 131.1755342
 138.5700012   9.5644997 132.1649988 139.1360012   9.6854997 131.4019988
 138.8890012  10.2014997 132.8029988 138.6905474   9.6672219 132.1469862
 144.8790012  15.0674997 132.8989988 144.6390012  15.7294997 133.5469988
 144.6810012  14.2334997 133.3239988 144.8193808  15.0453134 133.0451524
 139.4500012  13.9634997 136.8819988 139.1390012  14.7454997 137.3369988
 138.8000012  13.8104997 136.1959988 139.3195558  14.0499105 136.8515871
 136.3700012  10.1614997 136.1099988 136.4410012  10.8124997 136.8089988
 135.4800012  10.2644997 135.7749988 136.2593005  10.2645427 136.1603495
 143.1560012  16.0644997 127.7689988 143.6300012  16.3594997 128.5459988
 142.5930012  16.8024997 127.5359988 143.1448184  16.2047247 127.8439628
 137.6900012  16.0354997 137.6449988 137.6970012  15.8994997 136.6979988
 136.7740012  15.9174997 137.8969988 137.5671714  16.0009430 137.5494666
 137.1940012   9.8654997 126.1199988 136.9020012  10.6334997 125.6299988
 136.5200012   9.2054997 125.9579988 137.0628111   9.8815587 126.0308978
 133.2870012  12.2284997 134.9349988 132.7860012  12.2004997 134.1199988
 133.2920012  11.3224997 135.2449988 133.2190944  12.1022396 134.8653226
 133.0370012  15.0084997 131.8189988 133.9830012  14.8644997 131.7999988
 132.9250012  15.7924997 132.3559988 133.1512727  15.0948046 131.8890072
 142.2140012  15.2484997 136.3779988 142.3010012  16.0744997 136.8529988
 141.3500012  14.9184997 136.6269988 142.1091964  15.3169878 136.4766549
 142.6280012  19.0204997 126.1839988 142.5530012  18.8994997 125.2369988
 142.6610012  19.9704997 126.3019988 142.6222068  19.1322646 126.0704967
 136.2810012  17.8094997 127.9649988 136.4340012  17.4614997 128.8429988
 135.4310012  17.4534997 127.7099988 136.1869166  17.7136216 128.0508079
 135.5360012  13.5514997 135.9789988 135.7520012  13.1904997 136.8379988
 134.6810012  13.1774997 135.7689988 135.4499292  13.4514111 136.0683386
 138.1550012   2.0214997 131.9739988 137.2930012   1.9344997 131.5659988
 138.1320012   2.8774997 132.4019988 138.0340409   2.1252883 131.9760589
 142.8180012   1.7434997 135.3489988 143.2380012   1.3284997 136.1019988
 141.8850012   1.5654997 135.4659988 142.7493644   1.6625900 135.4679539
 142.4790012   4.2364997 122.6339988 142.2260012   4.2554997 123.5569988
 142.2230012   3.3644997 122.3319988 142.4097481   4.1212558 122.7196175
 138.2460012   6.9874997 133.0689988 137.6040012   6.9464997 133.7779988
 138.2830012   7.9134997 132.8309988 138.1630664   7.1071430 133.1339219
 138.2430012   7.2084997 127.9809988 137.3500012   6.8674997 127.9219988
 138.6930012   6.8314997 127.2249988 138.1818130   7.1109631 127.8707702
 143.7780012   7.6244997 126.7979988 143.3690012   8.4394997 126.5069988
 144.4990012   7.4844997 126.1839988 143.8194537   7.7172018 126.6751342
 142.8800012   7.7994997 138.2859988 142.3180012   7.0954997 138.6069988
 143.7070012   7.6794997 138.7539988 142.9147095   7.6867883 138.3932330
 144.7830012   7.0704997 129.6119988 144.5880012   7.6754997 128.8969988
 144.9640012   6.2364997 129.1779988 144.7807614   7.0406300 129.4554405
 135.9960012   7.3074997 134.9359988 135.9580012   7.7074997 135.8049988
 135.5050012   6.4904997 135.0269988 135.9244684   7.2518069 135.0671059
 139.3620012   4.6814997 121.7349988 138.9310012   4.2364997 122.4649988
 138.6440012   5.0534997 121.2229988 139.2059438   4.6708940 121.7656799
 132.6040012   4.4234997 128.7869988 133.2350012   4.3944997 129.5059988
 133.0530012   3.9984997 128.0559988 132.7510918   4.3620836 128.7866441
 133.8780012   5.1694997 124.2109988 134.3520012   5.7604997 123.6259988
 133.1610012   5.7004997 124.5579988 133.8459341   5.3220867 124.1778836
 144.0470012   8.7084997 134.2829988 144.3700012   8.0774997 133.6399988
 143.6070012   8.1734997 134.9439988 144.0317484   8.5498387 134.2843198
 140.8240012   4.6354997 129.0669988 139.9130012   4.6924997 129.3559988
 141.3300012   4.5754997 129.8779988 140.7676899   4.6351941 129.2161184
 135.6530012   6.2644997 127.8939988 134.7630012   6.3644997 127.5539988
 135.9490012   5.4224997 127.5479988 135.5712823   6.1643545 127.8007213
 139.3060012   6.2644997 125.5509988 140.2370012   6.3934997 125.7289988
 139.0910012   6.9344997 124.9009988 139.4044247   6.3726565 125.4875747
 137.9800012   7.4594997 123.1169988 137.4370012   7.0794997 122.4259988
 138.8130012   7.6534997 122.6889988 138.0183631   7.4337125 122.9644501
 136.1150012  12.0164997 138.2159988 136.8470012  12.2704997 138.7779988
 135.3350012  12.2204997 138.7319988 136.1097073  12.0788160 138.3626151
 142.1440012   7.4234997 130.9539988 142.7090012   6.8764997 130.4069988
 141.9970012   6.9014997 131.7429988 142.2013380   7.2782259 130.9858695
 137.1460012   3.5594997 127.3729988 136.8290012   2.6574997 127.3369988
 137.9280012   3.5614997 126.8199988 137.2082408   3.4362474 127.2933569
 140.7710012   5.8114997 133.3679988 139.9350012   6.2654997 133.4789988
 141.2950012   6.0874997 134.1199988 140.7275416   5.9108660 133.4848119
 141.3150012  12.0244997 125.0529988 140.5700012  11.5174997 124.7309988
 141.1810012  12.0734997 125.9999988 141.1948776  11.9616940 125.1368647
 142.8340012  12.2084997 136.2899988 142.4890012  11.8274997 137.0969988
 142.6340012  13.1424997 136.3609988 142.7597527  12.2825135 136.4100689
 136.4400012  11.3194997 130.8229988 137.1850012  11.3174997 130.2219988
 136.5180012  10.4964997 131.3039988 136.5524995  11.2078887 130.8058282
 143.4410012  13.4834997 124.0789988 143.1450012  14.3094997 124.4599988
 142.7380012  12.8634997 124.2749988 143.3054914  13.5128199 124.1576443
 133.4480012   9.7804997 136.1379988 133.6710012   9.3624997 136.9699988
 132.8460012   9.1674997 135.7149988 133.3971759   9.6404668 136.1947022
 140.4640012   9.2974997 138.3509988 140.1680012   9.1314997 137.4559988
 141.3960012   9.0774997 138.3399988 140.5494166   9.2450640 138.2270536
 138.8150012  14.8374997 128.2269988 139.3420012  15.6104997 128.0269988
 137.9350012  15.0624997 127.9249988 138.7682031  14.9737545 128.1587912
 134.5700012   9.6994997 122.8139988 135.1860012  10.3264997 123.1939988
 133.7080012  10.0154997 123.0859988 134.5377698   9.8279430 122.9027183
 140.2420012  12.5004997 127.8029988 140.0010012  13.4254997 127.8449988
 139.5010012  12.0414997 128.1999988 140.1089225  12.5650933 127.8623742
 140.7570012  16.6494997 134.1189988 141.1190012  17.5044997 133.8849988
 141.2880012  16.3574997 134.8589988 140.8784473  16.7271060 134.1870855
 138.9250012  17.5224997 127.3489988 137.9750012  17.6274997 127.3999988
 139.2770012  18.3424997 127.6929988 138.8424195  17.6478800 127.4025502
 144.3010012  12.7484997 133.8189988 143.8750012  12.5214997 134.6459988
 144.8810012  12.0104997 133.6369988 144.3211868  12.6175299 133.9075830
 135.0820012   4.5334997 135.6959988 134.1890012   4.8724997 135.6279988
 134.9830012   3.6784997 136.1139988 134.9464164   4.4642588 135.7432235
 134.7330012  16.3384997 134.1309988 134.9500012  15.4064997 134.0999988
 134.9790012  16.6124997 135.0139988 134.7959549  16.2480636 134.2461763
 140.5950012  14.7894997 121.3399988 140.8340012  14.0414997 120.7929988
 140.3260012  14.4014997 122.1729988 140.5913675  14.6346638 121.3776865
 139.5320012  14.3594997 123.7959988 139.6780012  13.8394997 124.5859988
 139.5290012  15.2664997 124.1029988 139.5515792  14.4108842 123.9456117
 135.9850012  11.6124997 124.3069988 135.2990012  11.9644997 124.8739988
 136.5070012  12.3754997 124.0599988 135.9616852  11.7638578 124.3512118
 143.8160012   4.2744997 134.5859988 144.5150012   4.3484997 135.2359988
 143.4350012   3.4104997 134.7399988 143.8601767   4.1677624 134.6958322
 144.6010012   3.9264997 125.6829988 144.8210012   4.3984997 124.8799988
 145.1590012   4.3214997 126.3529988 144.7064968   4.0444285 125.6637331
 142.2690012  16.0574997 124.5459988 141.4530012  16.5544997 124.5979988
 142.7990012  16.5324997 123.9059988 142.2289161  16.1897722 124.4665956
 141.8010012   5.6544997 126.5179988 142.6130012   6.1594997 126.5639988
 141.5560012   5.5094997 127.4319988 141.8790520   5.7040375 126.6478517
 142.3360012   6.6404997 135.7019988 142.4550012   7.2144997 136.4599988
 142.9920012   5.9524997 135.8169988 142.4409025   6.6259858 135.8211321
 142.6840012   2.7354997 127.4559988 142.3380012   3.3534997 128.0999988
 143.3430012   3.2364997 126.9739988 142.7256968   2.8876278 127.4789383
 139.6080012  17.1014997 124.5269988 139.7680012  17.9004997 124.0269988
 139.4100012  17.4074997 125.4119988 139.6031637  17.2524020 124.5781144
 138.3420012   3.7984997 124.1429988 138.2590012   4.6874997 124.4899988
 139.2320012   3.5334997 124.3749988 138.4509469   3.8841430 124.2217626
 136.6010012  14.2264997 123.2039988 137.1930012  14.9254997 123.4799988
 137.0600012  13.7934997 122.4839988 136.7441142  14.2637049 123.1444830
 134.9170012   6.8904997 122.3199988 134.8720012   7.8294997 122.4979988
 134.0290012   6.6544997 122.0499988 134.7908574   6.9871892 122.3078912
 135.7250012   1.6724997 130.9929988 135.4960012   1.7314997 130.0649988
 135.2820012   0.8804997 131.2989988 135.6338530   1.5735753 130.9074786
 134.6550012  15.6124997 127.1529988 133.8230012  16.0854997 127.1799988
 135.2010012  16.1224997 126.5549988 134.6150352  15.7461332 127.0758463
 133.9430012  18.2254997 138.4829988 134.4840012  18.0084997 139.2429988
 133.4620012  17.4194997 138.2929988 133.9519951  18.0869270 138.5612576
 138.5410012  17.1444997 140.1029988 139.3080012  16.6854997 140.4439988
 138.5190012  16.9184997 139.1739988 138.6431275  17.0510186 140.0240101
 142.6330012  16.6524997 121.4789988 141.9890012  16.0214997 121.7999988
 143.3950012  16.1214997 121.2469988 142.6478077  16.4942920 121.4916011
 133.8500012  12.0354997 139.4369988 133.9940012  11.1334997 139.1509988
 133.0780012  12.3214997 138.9499988 133.7652753  11.9506816 139.3319505
 138.1920012  12.3794997 121.5699988 138.2560012  11.5854997 122.1009988
 138.8450012  12.2604997 120.8799988 138.2890241  12.2547148 121.5494317
 140.5060012  12.0054997 138.8699988 140.1770012  12.2764997 138.0129988
 140.6580012  11.0644997 138.7829988 140.4814809  11.9153862 138.7408244
 143.5440012  13.4264997 121.3059988 143.2750012  13.6064997 122.2069988
 143.3380012  12.5004997 121.1739988 143.4793427  13.3260261 121.4115073
 134.6830012   9.2354997 138.8569988 135.0910012   8.3784997 138.7359988
 134.4230012   9.2504997 139.7779988 134.7037568   9.1200807 138.9649588
 139.3410012  10.3514997 123.8759988 138.8810012   9.8674997 124.5619988
 139.5960012   9.6834997 123.2399988 139.3124902  10.1948731 123.8839334
 138.6300012   8.2444997 136.2319988 138.0120012   8.9194997 136.5119988
 138.9740012   8.5654997 135.3979988 138.5919132   8.3802411 136.1576262
 140.4120012   8.5944997 122.1379988 140.2320012   8.4404997 121.2109988
 141.3620012   8.7024997 122.1829988 140.5157776   8.5880175 122.0171843
 143.6500012  10.7164997 139.5089988 144.6030012  10.7994997 139.4819988
 143.4890012  10.0044997 140.1289988 143.7586426  10.6316746 139.5890579
 138.9690012   5.5994997 137.3139988 139.1190012   4.8704997 136.7119988
 138.9720012   6.3764997 136.7549988 138.9899302   5.6047851 137.1560692
 139.3820012   3.9694997 134.8069988 139.9180012   4.4204997 134.1549988
 138.5300012   3.8614997 134.3839988 139.3402178   4.0166390 134.6605756
 140.9640012   9.4084997 135.0459988 141.7140012   9.2524997 134.4729988
 140.6250012  10.2604997 134.7709988 141.0208921   9.5022968 134.9303561
 137.4480012   6.7974997 139.2259988 136.6810012   6.2654997 139.0149988
 138.1270012   6.4874997 138.6259988 137.4347877   6.6828300 139.1160716
 140.1880012   1.4254997 135.2379988 140.0890012   2.3724997 135.1329988
 139.4450012   1.0534997 134.7619988 140.0741184   1.5045863 135.1593621
 141.4520012   5.7474997 138.8019988 141.2160012   5.5274997 139.7029988
 140.6680012   5.5404997 138.2919988 141.3138504   5.6894586 138.8563431
 144.1670012   4.8744997 137.8769988 143.2200012   4.9064997 138.0099988
 144.4800012   4.2494997 138.5309988 144.0796707   4.7943998 137.9836060
 135.6280012   4.7184997 138.9299988 135.8400012   4.0114997 138.3199988
 135.5170012   4.2804997 139.7739988 135.6419721   4.5627084 138.9606843
 140.4090012   0.7194997 137.9089988 141.1210012   0.0794997 137.8949988
 140.3080012   0.9864997 136.9959988 140.4928066   0.6680079 137.7835677
 140.7630012   2.4024997 139.9629988 140.6310012   1.9264997 139.1429988
 140.1640012   3.1464997 139.9079988 140.6639071   2.4379618 139.8432886
 140.3090012  19.2854997 123.1389988 141.2420012  19.4434997 123.2829988
 140.0450012  19.9604997 122.5149988 140.4009888  19.3984510 123.0742842
 133.8780012  13.9214997 122.6219988 134.7920012  14.0004997 122.8959988
 133.8850012  13.2344997 121.9559988 134.0041131  13.8393961 122.5694393
 132.5270012  19.3144997 127.6999988 131.8800012  18.8524997 127.1669988
 132.8810012  18.6424997 128.2819988 132.4863849  19.1604723 127.7057959
 133.3970012  17.3954997 129.5039988 133.0620012  16.5154997 129.6759988
 133.6190012  17.7404997 130.3689988 133.3811783  17.3217500 129.6444208
 133.4770012  10.4704997 131.9559988 133.6610012  10.3884997 131.0199988
 134.3260012  10.3464997 132.3789988 133.6170151  10.4425073 131.8851451
 133.0740012   5.7414997 138.0969988 133.9940012   5.6194997 138.3329988
 132.6250012   4.9914997 138.4859988 133.1391580   5.6233727 138.1819006
 134.2950012   4.0534997 130.9879988 134.7410012   3.2614997 131.2899988
 134.7620012   4.7694997 131.4179988 134.4190831   4.0420685 131.0874006
 132.5990012   7.0524997 132.0569988 133.0910012   6.8314997 131.2659988
 132.9620012   7.8934997 132.3379988 132.7153126   7.1358357 131.9867531
 132.9130012   3.3104997 126.1109988 131.9880012   3.5194997 125.9819988
 133.3670012   3.7944997 125.4209988 132.8477292   3.4045343 126.0000720
 132.8770012   2.0484997 134.4549988 132.2120012   1.8024997 135.0989988
 132.4340012   2.6704997 133.8779988 132.7261318   2.0989410 134.4650898
 135.0690012  15.2234997 138.5999988 134.2480012  15.3984997 138.1389988
 134.8160012  15.1504997 139.5199988 134.9225585  15.2375544 138.6613561
 138.0230012  16.1984997 134.8579988 137.5980012  17.0074997 134.5759988
 138.9270012  16.2834997 134.5559988 138.0869975  16.3209300 134.7784816
 142.3340012  17.5974997 137.8179988 142.5190012  17.2634997 138.6959988
 143.1800012  17.9064997 137.4959988 142.4737539  17.5936047 137.8945605
 144.6790012  18.8834997 137.0619988 145.3560012  18.2504997 136.8219988
 145.0010012  19.2844997 137.8689988 144.8151637  18.8511154 137.1382793
 135.4250012  19.4544997 134.9059988 134.7040012  19.8944997 134.4549988
 135.0590012  19.2034997 135.7539988 135.2769651  19.4807242 134.9589640
 137.8920012  19.0544997 133.9359988 137.0270012  19.1264997 134.3399988
 137.8370012  19.6014997 133.1519988 137.7662085  19.1382685 133.8853362
 142.6020012  18.9424997 133.1109988 142.1460012  19.4714997 132.4569988
 142.7650012  19.5454997 133.8359988 142.5616068  19.0964607 133.1194838
 134.8390012  18.0774997 131.8159988 134.8210012  17.6524997 132.6729988
 135.6440012  17.7594997 131.4069988 134.9453529  17.9763013 131.8780946
 136.9810012  16.7874997 130.4709988 136.7620012  15.8714997 130.6409988
 137.8050012  16.9274997 130.9369988 137.0624420  16.6810520 130.5572774
 139.5180012  17.2574997 131.3199988 139.7310012  16.3694997 131.0329988
 139.5820012  17.2234997 132.2739988 139.5558232  17.1313102 131.4097397
 143.0260012   2.9214997 130.4639988 142.3520012   2.2924997 130.7199988
 143.5900012   2.4374997 129.8609988 143.0099230   2.7698744 130.4175340
 135.3530012   1.5554997 128.2859988 134.5760012   1.3214997 127.7789988
 135.8830012   0.7584997 128.2949988 135.3182330   1.4156988 128.2177742
 134.1890012   1.3534997 124.0899988 134.6280012   1.9644997 123.4979988
 133.5560012   1.8914997 124.5639988 134.1634514   1.5099257 124.0730930
 139.9320012   1.4824997 128.0999988 140.8070012   1.8704997 128.0699988
 139.7960012   1.2674997 129.0219988 140.0333695   1.5065184 128.2206440
 134.0900012  17.3014997 124.9869988 133.4050012  17.2634997 124.3199988
 134.0940012  18.2144997 125.2759988 133.9966998  17.4196733 124.9346771
 136.0500012   3.2694997 122.5319988 136.5420012   2.6394997 122.0049988
 136.6740012   3.5654997 123.1949988 136.2015688   3.2233804 122.5495482
 141.0760012   3.5624997 124.9889988 141.2540012   2.9164997 125.6719988
 141.0230012   4.3964997 125.4559988 141.0931999   3.5868009 125.1455917
 142.9550012  18.5114997 123.3849988 143.8210012  18.8774997 123.2069988
 142.7080012  18.0714997 122.5709988 143.0402392  18.5021756 123.2506289
 135.3110012   2.0694997 137.8039988 134.9450012   1.3044997 138.2459988
 136.2240012   2.0984997 138.0899988 135.3842736   1.9685640 137.9032502
 137.2840012   1.4204997 139.3399988 138.1820012   1.1464997 139.1549988
 136.8970012   0.6774997 139.8039988 137.3546612   1.2825914 139.3773643
 135.9080012  18.2214997 122.0129988 135.6410012  18.5084997 122.8859988
 136.6800012  17.6754997 122.1649988 135.9757488  18.1870294 122.1531050
  12.4390012  29.5674997 128.2449988  12.5280012  30.5114997 128.1129988
  11.8010012  29.2924997 127.5869988  12.3649081  29.6594830 128.1379614
  11.3720012  28.8224997 131.6639988  11.3340012  28.1764997 132.3689988
  11.0500012  28.3564997 130.8929988  11.3232333  28.6709408 131.6562978
   3.7410012  28.4374997 133.2569988   3.7820012  27.8114997 133.9799988
   4.4440012  29.0614997 133.4389988   3.8416363  28.4361196 133.3806044
  15.0780012  31.7614997 129.9649988  14.6380012  31.0414997 130.4159988
  15.0650012  32.4824997 130.5949988  15.0160226  31.7603731 130.1118494
   4.6640012  32.8874997 131.7919988   4.2950012  32.0854997 131.4219988
   5.6050012  32.7184997 131.8379988   4.7407289  32.7550153 131.7476316
   1.2740012  26.5474997 127.1849988   0.8270012  27.3934997 127.1659988
   0.7130012  25.9674997 126.6689988   1.1369900  26.5849916 127.1126801
   1.9850012  28.7094997 129.3099988   2.1980012  27.9394997 129.8379988
   2.7230012  28.7984997 128.7069988   2.1139044  28.6161968 129.3007123
  12.1900012  36.8664997 130.1769988  12.8100012  36.1894997 129.9039988
  11.9820012  36.6484997 131.0859988  12.2466726  36.7444800 130.2624812
   9.7620012  31.2554997 132.0699988  10.0660012  30.5694997 131.4749988
  10.4830012  31.3734997 132.6879988   9.9010671  31.1776304 132.0721816
  18.4250012  22.8564997 132.9309988  18.4740012  23.4664997 133.6659988
  18.8500012  23.3174997 132.2079988  18.4891746  23.0023796 132.9339175
  12.9030012  25.6494997 132.3969988  13.0450012  24.7034997 132.4179988
  12.7960012  25.8564997 131.4689988  12.9079919  25.5478246 132.2743408
   6.0570012  23.7504997 129.6699988   6.1010012  24.6104997 129.2509988
   5.6000012  23.1984997 129.0359988   6.0012240  23.7934422 129.5269864
  13.7800012  23.8814997 128.0709988  14.4260012  23.5524997 128.6949988
  14.2900012  24.3994997 127.4479988  13.9374299  23.9064450 128.0722731
   2.6780012  26.1474997 130.4319988   3.3310012  25.5974997 130.8639988
   2.7020012  25.8734997 129.5149988   2.7706683  26.0351466 130.3672123
   7.8340012  27.6974997 129.6469988   8.4500012  27.1714997 130.1569988
   7.2480012  27.0574997 129.2439988   7.8390810  27.5389208 129.6623173
  18.8160012  24.3344997 135.1659988  18.1280012  24.9924997 135.0709988
  18.8320012  24.1374997 136.1029988  18.7239540  24.3979819 135.2795990
   4.8680012  22.6684997 133.7439988   4.6490012  23.1984997 132.9779988
   4.2000012  22.8954997 134.3909988   4.7477600  22.7716906 133.7266379
  12.2370012  32.1684997 127.2879988  11.9410012  31.8464997 126.4369988
  11.9120012  33.0684997 127.3289988  12.1526371  32.2460215 127.1771801
   7.4370012  30.3444997 134.0309988   6.6970012  30.9424997 134.1349988
   8.1510012  30.8984997 133.7159988   7.4322237  30.5012831 134.0026465
  15.5440012  23.1724997 130.0509988  15.3280012  22.4064997 130.5839988
  16.1990012  23.6444997 130.5639988  15.6030632  23.1315889 130.1932861
   4.4610012  24.5604997 131.6959988   5.0750012  25.1934997 132.0689988
   4.9730012  24.0884997 131.0399988   4.6141981  24.5832267 131.6582908
   5.8440012  32.3084997 134.8179988   5.8390012  33.1884997 134.4399988
   4.9910012  32.2254997 135.2429988   5.7279464  32.4176117 134.8237907
   1.9650012  31.9794997 125.5999988   1.6930012  32.2084997 124.7119988
   2.0110012  32.8174997 126.0609988   1.9339482  32.1241318 125.5406273
  15.5900012  33.6014997 132.3129988  14.6490012  33.6594997 132.4749988
  15.8670012  34.5074997 132.1759988  15.4984679  33.7319443 132.3166815
  15.8910012  21.8874997 133.7309988  15.1550012  22.4984997 133.6929988
  16.5740012  22.3024997 133.2039988  15.8826541  22.0271374 133.6545832
   8.8940012  19.9744997 131.1959988   8.7770012  19.0254997 131.1419988
   8.0390012  20.3064997 131.4699988   8.7624212  19.8895571 131.2256497
  13.8420012  35.3824997 128.9379988  14.2680012  34.6754997 128.4529988
  14.1590012  36.1834997 128.5219988  13.9431683  35.3941017 128.8153680
  15.0020012  33.2834997 127.4469988  14.7440012  32.5934997 126.8359988
  15.0730012  32.8404997 128.2929988  14.9762856  33.1292124 127.4776885
  16.6880012  31.8494997 135.9239988  16.8280012  31.2584997 135.1849988
  16.8550012  32.7224997 135.5679988  16.7297411  31.8865428 135.7746894
  11.1610012  28.8114997 125.6969988  10.4490012  29.3464997 125.3449988
  11.8520012  28.8674997 125.0369988  11.1570132  28.8922543 125.5596289
  11.2140012  27.2694997 122.7359988  11.9150012  27.2914997 123.3869988
  11.5170012  26.6414997 122.0789988  11.3508133  27.1877070 122.7363369
  18.5300012  28.1894997 133.9899988  17.8770012  28.8844997 134.0799988
  18.9950012  28.3994997 133.1809988  18.5035274  28.3130643 133.8928462
  14.5660012  29.0214997 126.6489988  13.8340012  29.2494997 127.2219988
  15.0140012  28.3074997 127.1029988  14.5262725  28.9562145 126.7888816
  14.4640012  27.1954997 135.7159988  14.5440012  27.9584997 136.2879988
  13.8620012  27.4744997 135.0259988  14.3935756  27.3377134 135.7010589
   6.2120012  29.6514997 128.5309988   5.8810012  29.2814997 127.7129988
   6.8000012  28.9814997 128.8779988   6.2461873  29.5101156 128.4658102
   7.5780012  33.0794997 131.2119988   7.4840012  32.5014997 130.4559988
   8.3080012  32.7084997 131.7089988   7.6637387  32.9501663 131.1755342
   6.5780012  28.4204997 132.1649988   7.1440012  28.5414997 131.4019988
   6.8970012  29.0574997 132.8029988   6.6985474  28.5232219 132.1469862
  12.8870012  33.9234997 132.8989988  12.6470012  34.5854997 133.5469988
  12.6890012  33.0894997 133.3239988  12.8273808  33.9013134 133.0451524
   7.4580012  32.8194997 136.8819988   7.1470012  33.6014997 137.3369988
   6.8080012  32.6664997 136.1959988   7.3275558  32.9059105 136.8515871
  13.4370012  28.1834997 124.3339988  14.0170012  28.3334997 125.0809988
  13.8510012  28.6544997 123.6099988  13.5722997  28.2676578 124.3384058
   4.3780012  29.0174997 136.1099988   4.4490012  29.6684997 136.8089988
   3.4880012  29.1204997 135.7749988   4.2673005  29.1205427 136.1603495
  11.1640012  34.9204997 127.7689988  11.6380012  35.2154997 128.5459988
  10.6010012  35.6584997 127.5359988  11.1528184  35.0607247 127.8439628
   5.6980012  34.8914997 137.6449988   5.7050012  34.7554997 136.6979988
   4.7820012  34.7734997 137.8969988   5.5751714  34.8569430 137.5494666
  17.1360012  19.9334997 124.1469988  16.2360012  20.0724997 124.4419988
  17.3880012  20.7644997 123.7449988  17.0468702  20.0649074 124.1330205
   5.2020012  28.7214997 126.1199988   4.9100012  29.4894997 125.6299988
   4.5280012  28.0614997 125.9579988   5.0708111  28.7375587 126.0308978
  18.3250012  34.2994997 122.5229988  18.3990012  35.2384997 122.6939988
  19.2310012  33.9944997 122.4669988  18.4575100  34.3866722 122.5388119
   1.2950012  31.0844997 134.9349988   0.7940012  31.0564997 134.1199988
   1.3000012  30.1784997 135.2449988   1.2270944  30.9582396 134.8653226
   1.0450012  33.8644997 131.8189988   1.9910012  33.7204997 131.7999988
   0.9330012  34.6484997 132.3559988   1.1592727  33.9508046 131.8890072
  19.2430012  34.5304997 137.5019988  19.1940012  33.5754997 137.4649988
  18.4160012  34.7984997 137.9029988  19.1244940  34.4358998 137.5511375
  10.2220012  34.1044997 136.3779988  10.3090012  34.9304997 136.8529988
   9.3580012  33.7744997 136.6269988  10.1171964  34.1729878 136.4766549
  10.6360012  37.8764997 126.1839988  10.5610012  37.7554997 125.2369988
  10.6690012  38.8264997 126.3019988  10.6302068  37.9882646 126.0704967
   4.2890012  36.6654997 127.9649988   4.4420012  36.3174997 128.8429988
   3.4390012  36.3094997 127.7099988   4.1949166  36.5696216 128.0508079
  13.7380012  37.0304997 123.1859988  14.1130012  36.2864997 122.7149988
  13.7420012  36.7604997 124.1049988  13.7899125  36.8920986 123.2456483
  13.4070012  36.9564997 125.9349988  12.4710012  37.0564997 126.1139988
  13.6870012  36.2474997 126.5139988  13.3169553  36.8743406 126.0377087
  16.3950012  26.0234997 137.9819988  15.9880012  26.5044997 137.2609988
  16.4360012  25.1184997 137.6739988  16.3448437  25.9669374 137.8416683
   3.5440012  32.4074997 135.9789988   3.7600012  32.0464997 136.8379988
   2.6890012  32.0334997 135.7689988   3.4579292  32.3074111 136.0683386
   6.1630012  20.8774997 131.9739988   5.3010012  20.7904997 131.5659988
   6.1400012  21.7334997 132.4019988   6.0420409  20.9812883 131.9760589
  10.8260012  20.5994997 135.3489988  11.2460012  20.1844997 136.1019988
   9.8930012  20.4214997 135.4659988  10.7573644  20.5185900 135.4679539
  14.1520012  24.3554997 136.2019988  13.6380012  24.2294997 136.9999988
  13.9970012  25.2674997 135.9579988  14.0606852  24.4616132 136.2782158
  14.9150012  29.2164997 121.9639988  14.9570012  28.9934997 121.0339988
  15.7640012  29.6154997 122.1529988  15.0355280  29.2399438 121.8623554
  10.4870012  23.0924997 122.6339988  10.2340012  23.1114997 123.5569988
  10.2310012  22.2204997 122.3319988  10.4177481  22.9772558 122.7196175
   6.2540012  25.8434997 133.0689988   5.6120012  25.8024997 133.7779988
   6.2910012  26.7694997 132.8309988   6.1710664  25.9631430 133.1339219
   6.2510012  26.0644997 127.9809988   5.3580012  25.7234997 127.9219988
   6.7010012  25.6874997 127.2249988   6.1898130  25.9669631 127.8707702
  11.7860012  26.4804997 126.7979988  11.3770012  27.2954997 126.5069988
  12.5070012  26.3404997 126.1839988  11.8274537  26.5732018 126.6751342
  10.8880012  26.6554997 138.2859988  10.3260012  25.9514997 138.6069988
  11.7150012  26.5354997 138.7539988  10.9227095  26.5427883 138.3932330
  12.7910012  25.9264997 129.6119988  12.5960012  26.5314997 128.8969988
  12.9720012  25.0924997 129.1779988  12.7887614  25.8966300 129.4554405
   4.0040012  26.1634997 134.9359988   3.9660012  26.5634997 135.8049988
   3.5130012  25.3464997 135.0269988   3.9324684  26.1078069 135.0671059
   7.3700012  23.5374997 121.7349988   6.9390012  23.0924997 122.4649988
   6.6520012  23.9094997 121.2229988   7.2139438  23.5268940 121.7656799
   0.6120012  23.2794997 128.7869988   1.2430012  23.2504997 129.5059988
   1.0610012  22.8544997 128.0559988   0.7590918  23.2180836 128.7866441
   1.8860012  24.0254997 124.2109988   2.3600012  24.6164997 123.6259988
   1.1690012  24.5564997 124.5579988   1.8539341  24.1780867 124.1778836
  12.0550012  27.5644997 134.2829988  12.3780012  26.9334997 133.6399988
  11.6150012  27.0294997 134.9439988  12.0397484  27.4058387 134.2843198
   8.8320012  23.4914997 129.0669988   7.9210012  23.5484997 129.3559988
   9.3380012  23.4314997 129.8779988   8.7756899  23.4911941 129.2161184
   3.6610012  25.1204997 127.8939988   2.7710012  25.2204997 127.5539988
   3.9570012  24.2784997 127.5479988   3.5792823  25.0203545 127.8007213
   7.3140012  25.1204997 125.5509988   8.2450012  25.2494997 125.7289988
   7.0990012  25.7904997 124.9009988   7.4124247  25.2286565 125.4875747
  13.2370012  22.7264997 132.3319988  12.5610012  22.8574997 132.9959988
  12.7520012  22.5714997 131.5209988  13.0787146  22.7235157 132.3134469
   5.9880012  26.3154997 123.1169988   5.4450012  25.9354997 122.4259988
   6.8210012  26.5094997 122.6889988   6.0263631  26.2897125 122.9644501
  16.5250012  38.3984997 138.6079988  16.7250012  38.8224997 137.7739988
  17.1800012  38.7414997 139.2149988  16.6410073  38.5029857 138.5758592
   4.1230012  30.8724997 138.2159988   4.8550012  31.1264997 138.7779988
   3.3430012  31.0764997 138.7319988   4.1177073  30.9348160 138.3626151
  10.1520012  26.2794997 130.9539988  10.7170012  25.7324997 130.4069988
  10.0050012  25.7574997 131.7429988  10.2093380  26.1342259 130.9858695
   5.1540012  22.4154997 127.3729988   4.8370012  21.5134997 127.3369988
   5.9360012  22.4174997 126.8199988   5.2162408  22.2922474 127.2933569
   8.7790012  24.6674997 133.3679988   7.9430012  25.1214997 133.4789988
   9.3030012  24.9434997 134.1199988   8.7355416  24.7668660 133.4848119
   9.3230012  30.8804997 125.0529988   8.5780012  30.3734997 124.7309988
   9.1890012  30.9294997 125.9999988   9.2028776  30.8176940 125.1368647
  16.4730012  30.0134997 133.8399988  17.1150012  30.4704997 133.2959988
  15.6430012  30.1264997 133.3769988  16.4485963  30.0912704 133.7030177
  13.2210012  23.6944997 123.2519988  12.2820012  23.8064997 123.1009988
  13.5180012  24.5514997 123.5589988  13.1327583  23.8255981 123.2728337
  10.8420012  31.0644997 136.2899988  10.4970012  30.6834997 137.0969988
  10.6420012  31.9984997 136.3609988  10.7677527  31.1385135 136.4100689
  13.9390012  25.5614997 124.9129988  14.8310012  25.4244997 125.2319988
  13.9960012  26.3524997 124.3759988  14.0686504  25.6496052 124.8840818
   4.4480012  30.1754997 130.8229988   5.1930012  30.1734997 130.2219988
   4.5260012  29.3524997 131.3039988   4.5604995  30.0638887 130.8058282
  11.4490012  32.3394997 124.0789988  11.1530012  33.1654997 124.4599988
  10.7460012  31.7194997 124.2749988  11.3134914  32.3688199 124.1576443
   1.4560012  28.6364997 136.1379988   1.6790012  28.2184997 136.9699988
   0.8540012  28.0234997 135.7149988   1.4051759  28.4964668 136.1947022
   8.4720012  28.1534997 138.3509988   8.1760012  27.9874997 137.4559988
   9.4040012  27.9334997 138.3399988   8.5574166  28.1010640 138.2270536
  13.0930012  33.5264997 136.2409988  12.1920012  33.7094997 135.9729988
  13.1270012  33.7854997 137.1609988  12.9743139  33.5865849 136.3288099
  18.8240012  25.7714997 124.6079988  18.2700012  25.3754997 123.9359988
  18.9240012  26.6814997 124.3299988  18.7617059  25.8403586 124.4784401
  18.7870012  31.5714997 137.4449988  17.9360012  31.8094997 137.0779988
  19.3780012  31.5544997 136.6919988  18.7502487  31.6018258 137.2928893
  17.1190012  34.5574997 125.0729988  16.7460012  33.7314997 125.3819988
  17.3970012  34.3744997 124.1749988  17.1055222  34.4197430 124.9939473
  14.2800012  29.3654997 132.0939988  13.3510012  29.1334997 132.0669988
  14.7310012  28.5884997 131.7639988  14.2139216  29.2287238 132.0456917
   6.8230012  33.6934997 128.2269988   7.3500012  34.4664997 128.0269988
   5.9430012  33.9184997 127.9249988   6.7762031  33.8297545 128.1587912
   2.5780012  28.5554997 122.8139988   3.1940012  29.1824997 123.1939988
   1.7160012  28.8714997 123.0859988   2.5457698  28.6839430 122.9027183
   8.2500012  31.3564997 127.8029988   8.0090012  32.2814997 127.8449988
   7.5090012  30.8974997 128.1999988   8.1169225  31.4210933 127.8623742
   8.7650012  35.5054997 134.1189988   9.1270012  36.3604997 133.8849988
   9.2960012  35.2134997 134.8589988   8.8864473  35.5831060 134.1870855
   6.9330012  36.3784997 127.3489988   5.9830012  36.4834997 127.3999988
   7.2850012  37.1984997 127.6929988   6.8504195  36.5038800 127.4025502
  12.3090012  31.6044997 133.8189988  11.8830012  31.3774997 134.6459988
  12.8890012  30.8664997 133.6369988  12.3291868  31.4735299 133.9075830
  14.5120012  32.5334997 122.8929988  14.8650012  32.1534997 123.6969988
  13.5630012  32.4404997 122.9799988  14.4320918  32.4688956 123.0148532
  14.9670012  36.1564997 136.2889988  14.3660012  35.6014997 135.7929988
  15.2490012  36.8234997 135.6619988  14.9228804  36.1706625 136.1364849
  19.0150012  37.0134997 123.0939988  19.7590012  37.5994997 122.9539988
  18.3210012  37.5814997 123.4269988  19.0229899  37.1705798 123.1198778
   3.0900012  23.3894997 135.6959988   2.1970012  23.7284997 135.6279988
   2.9910012  22.5344997 136.1139988   2.9544164  23.3202588 135.7432235
  15.3780012  31.2064997 125.1199988  15.1000012  30.4784997 125.6759988
  16.3050012  31.3254997 125.3249988  15.4653124  31.1228802 125.2238845
   2.7410012  35.1944997 134.1309988   2.9580012  34.2624997 134.0999988
   2.9870012  35.4684997 135.0139988   2.8039549  35.1040636 134.2461763
   8.6030012  33.6454997 121.3399988   8.8420012  32.8974997 120.7929988
   8.3340012  33.2574997 122.1729988   8.5993675  33.4906638 121.3776865
   7.5400012  33.2154997 123.7959988   7.6860012  32.6954997 124.5859988
   7.5370012  34.1224997 124.1029988   7.5595792  33.2668842 123.9456117
   3.9930012  30.4684997 124.3069988   3.3070012  30.8204997 124.8739988
   4.5150012  31.2314997 124.0599988   3.9696852  30.6198578 124.3512118
  11.8240012  23.1304997 134.5859988  12.5230012  23.2044997 135.2359988
  11.4430012  22.2664997 134.7399988  11.8681767  23.0237624 134.6958322
  12.6090012  22.7824997 125.6829988  12.8290012  23.2544997 124.8799988
  13.1670012  23.1774997 126.3529988  12.7144968  22.9004285 125.6637331
  10.2770012  34.9134997 124.5459988   9.4610012  35.4104997 124.5979988
  10.8070012  35.3884997 123.9059988  10.2369161  35.0457722 124.4665956
   9.8090012  24.5104997 126.5179988  10.6210012  25.0154997 126.5639988
   9.5640012  24.3654997 127.4319988   9.8870520  24.5600375 126.6478517
  10.3440012  25.4964997 135.7019988  10.4630012  26.0704997 136.4599988
  11.0000012  24.8084997 135.8169988  10.4489025  25.4819858 135.8211321
  10.6920012  21.5914997 127.4559988  10.3460012  22.2094997 128.0999988
  11.3510012  22.0924997 126.9739988  10.7336968  21.7436278 127.4789383
   7.6160012  35.9574997 124.5269988   7.7760012  36.7564997 124.0269988
   7.4180012  36.2634997 125.4119988   7.6111637  36.1084020 124.5781144
   6.3500012  22.6544997 124.1429988   6.2670012  23.5434997 124.4899988
   7.2400012  22.3894997 124.3749988   6.4589469  22.7401430 124.2217626
  16.5490012  23.4034997 136.5369988  15.6320012  23.6664997 136.4499988
  16.8840012  23.4004997 135.6409988  16.4688613  23.4390761 136.4038837
  15.1510012  27.1544997 130.6329988  14.3530012  26.7394997 130.3049988
  15.5960012  26.4634997 131.1239988  15.1019885  27.0043543 130.6544889
   4.6090012  33.0824997 123.2039988   5.2010012  33.7814997 123.4799988
   5.0680012  32.6494997 122.4839988   4.7521142  33.1197049 123.1444830
   2.9250012  25.7464997 122.3199988   2.8800012  26.6854997 122.4979988
   2.0370012  25.5104997 122.0499988   2.7988574  25.8431892 122.3078912
  16.2370012  36.4104997 132.2559988  16.0820012  37.0884997 131.5979988
  17.1700012  36.4824997 132.4589988  16.3418657  36.5129546 132.1934360
   3.7330012  20.5284997 130.9929988   3.5040012  20.5874997 130.0649988
   3.2900012  19.7364997 131.2989988   3.6418530  20.4295753 130.9074786
   2.6630012  34.4684997 127.1529988   1.8310012  34.9414997 127.1799988
   3.2090012  34.9784997 126.5549988   2.6230352  34.6021332 127.0758463
   1.9510012  37.0814997 138.4829988   2.4920012  36.8644997 139.2429988
   1.4700012  36.2754997 138.2929988   1.9599951  36.9429270 138.5612576
   6.5490012  36.0004997 140.1029988   7.3160012  35.5414997 140.4439988
   6.5270012  35.7744997 139.1739988   6.6511275  35.9070186 140.0240101
  10.6410012  35.5084997 121.4789988   9.9970012  34.8774997 121.7999988
  11.4030012  34.9774997 121.2469988  10.6558077  35.3502920 121.4916011
  13.1260012  34.3804997 138.8329988  12.7750012  33.5244997 139.0759988
  13.8520012  34.5234997 139.4399988  13.1760769  34.2825636 138.9483619
  15.2450012  35.3254997 121.7119988  15.5280012  34.5314997 122.1649988
  15.9850012  35.5584997 121.1519988  15.3838006  35.2483376 121.6982715
   1.8580012  30.8914997 139.4369988   2.0020012  29.9894997 139.1509988
   1.0860012  31.1774997 138.9499988   1.7732753  30.8066816 139.3319505
   6.2000012  31.2354997 121.5699988   6.2640012  30.4414997 122.1009988
   6.8530012  31.1164997 120.8799988   6.2970241  31.1107148 121.5494317
   8.5140012  30.8614997 138.8699988   8.1850012  31.1324997 138.0129988
   8.6660012  29.9204997 138.7829988   8.4894809  30.7713862 138.7408244
  11.5520012  32.2824997 121.3059988  11.2830012  32.4624997 122.2069988
  11.3460012  31.3564997 121.1739988  11.4873427  32.1820261 121.4115073
  14.2480012  30.7774997 136.2529988  14.9940012  31.3654997 136.1339988
  13.4910012  31.3594997 136.3169988  14.2477820  30.9367143 136.2453590
   2.6910012  28.0914997 138.8569988   3.0990012  27.2344997 138.7359988
   2.4310012  28.1064997 139.7779988   2.7117568  27.9760807 138.9649588
   7.3490012  29.2074997 123.8759988   6.8890012  28.7234997 124.5619988
   7.6040012  28.5394997 123.2399988   7.3204902  29.0508731 123.8839334
   6.6380012  27.1004997 136.2319988   6.0200012  27.7754997 136.5119988
   6.9820012  27.4214997 135.3979988   6.5999132  27.2362411 136.1576262
   8.4200012  27.4504997 122.1379988   8.2400012  27.2964997 121.2109988
   9.3700012  27.5584997 122.1829988   8.5237776  27.4440175 122.0171843
  11.6580012  29.5724997 139.5089988  12.6110012  29.6554997 139.4819988
  11.4970012  28.8604997 140.1289988  11.7666426  29.4876746 139.5890579
  17.8100012  29.8054997 121.5839988  17.5360012  29.3804997 120.7709988
  17.8490012  30.7364997 121.3669988  17.7777699  29.8732484 121.4433610
   6.9770012  24.4554997 137.3139988   7.1270012  23.7264997 136.7119988
   6.9800012  25.2324997 136.7549988   6.9979302  24.4607851 137.1560692
   7.3900012  22.8254997 134.8069988   7.9260012  23.2764997 134.1549988
   6.5380012  22.7174997 134.3839988   7.3482178  22.8726390 134.6605756
   8.9720012  28.2644997 135.0459988   9.7220012  28.1084997 134.4729988
   8.6330012  29.1164997 134.7709988   9.0288921  28.3582968 134.9303561
  13.3870012  26.0794997 140.0749988  13.5800012  25.1484997 139.9629988
  14.2450012  26.5044997 140.0639988  13.5292934  26.0096531 140.0582031
  14.7040012  28.8684997 138.1519988  14.4230012  29.5774997 137.5739988
  15.6470012  28.7954997 138.0009988  14.7929291  28.9556711 138.0524967
   5.4560012  25.6534997 139.2259988   4.6890012  25.1214997 139.0149988
   6.1350012  25.3434997 138.6259988   5.4427877  25.5388300 139.1160716
   8.1960012  20.2814997 135.2379988   8.0970012  21.2284997 135.1329988
   7.4530012  19.9094997 134.7619988   8.0821184  20.3605863 135.1593621
   9.4600012  24.6034997 138.8019988   9.2240012  24.3834997 139.7029988
   8.6760012  24.3964997 138.2919988   9.3218504  24.5454586 138.8563431
  12.1750012  23.7304997 137.8769988  11.2280012  23.7624997 138.0099988
  12.4880012  23.1054997 138.5309988  12.0876707  23.6503998 137.9836060
  13.8090012  22.3644997 139.8829988  13.7130012  21.4124997 139.8769988
  13.4880012  22.6334997 140.7429988  13.7524070  22.2704035 139.9985441
   3.6360012  23.5744997 138.9299988   3.8480012  22.8674997 138.3199988
   3.5250012  23.1364997 139.7739988   3.6499721  23.4187084 138.9606843
   8.4170012  19.5754997 137.9089988   9.1290012  18.9354997 137.8949988
   8.3160012  19.8424997 136.9959988   8.5008066  19.5240079 137.7835677
   8.7710012  21.2584997 139.9629988   8.6390012  20.7824997 139.1429988
   8.1720012  22.0024997 139.9079988   8.6719071  21.2939618 139.8432886
   8.3170012  38.1414997 123.1389988   9.2500012  38.2994997 123.2829988
   8.0530012  38.8164997 122.5149988   8.4089888  38.2544510 123.0742842
   1.8860012  32.7774997 122.6219988   2.8000012  32.8564997 122.8959988
   1.8930012  32.0904997 121.9559988   2.0121131  32.6953961 122.5694393
   0.5350012  38.1704997 127.6999988  -0.1119988  37.7084997 127.1669988
   0.8890012  37.4984997 128.2819988   0.4943849  38.0164723 127.7057959
   1.4050012  36.2514997 129.5039988   1.0700012  35.3714997 129.6759988
   1.6270012  36.5964997 130.3689988   1.3891783  36.1777501 129.6444208
  18.9530012  37.0604997 132.4849988  18.9320012  37.2454997 133.4239988
  19.6440012  37.6294997 132.1439988  19.0434618  37.1626606 132.5673864
  18.5170012  36.6284997 135.4069988  18.0290012  35.8924997 135.0349988
  19.0660012  36.2344997 136.0849988  18.5244820  36.4745889 135.4477813
  16.9670012  32.4174997 140.0449988  16.1010012  32.3124997 140.4389988
  17.3440012  33.1764997 140.4909988  16.8993308  32.5056900 140.1592393
  18.2680012  30.6744997 125.5589988  19.1180012  31.0954997 125.6859988
  18.2740012  29.9344997 126.1659988  18.3851372  30.6320803 125.6584344
  18.6630012  28.7274997 127.3819988  17.9360012  28.2484997 127.7799988
  19.2440012  28.9334997 128.1149988  18.6420473  28.6898103 127.5354528
  18.4220012  31.5124997 132.3299988  19.2550012  31.1344997 132.0499988
  18.5340012  32.4554997 132.2109988  18.5512647  31.5882218 132.2755487
  16.9080012  34.3904997 134.6369988  16.2610012  34.7154997 135.2629988
  16.3910012  33.9504997 133.9629988  16.7494029  34.3755004 134.6315827
  18.9310012  28.6284997 123.7739988  18.4090012  28.9854997 123.0549988
  18.8980012  29.3034997 124.4519988  18.8551634  28.7685413 123.7673145
  17.2800012  25.8684997 122.3239988  17.3760012  26.5354997 121.6439988
  17.1400012  25.0524997 121.8429988  17.2742272  25.8495655 122.1658347
  16.4490012  27.2484997 127.9449988  16.2990012  26.3034997 127.9249988
  16.0960012  27.5294997 128.7889988  16.3807448  27.1571481 128.0563705
   1.4850012  29.3264997 131.9559988   1.6690012  29.2444997 131.0199988
   2.3340012  29.2024997 132.3789988   1.6250151  29.2985073 131.8851451
  17.3060012  29.2184997 137.5839988  17.8890012  28.4844997 137.7759988
  17.8700012  29.9904997 137.6309988  17.4619769  29.2224227 137.6166159
  18.8020012  27.1214997 138.2689988  17.9390012  26.7424997 138.1029988
  19.4070012  26.3824997 138.1939988  18.7656119  26.9698268 138.2361528
  16.5270012  23.2764997 121.4419988  17.1380012  22.9054997 122.0789988
  15.6910012  22.8554997 121.6379988  16.4975032  23.1687554 121.5557035
  16.1600012  24.8314997 126.4079988  16.4400012  23.9244997 126.5319988
  16.9190012  25.2654997 126.0189988  16.3009277  24.7660942 126.3723682
  16.7720012  25.4124997 131.8439988  17.7050012  25.6244997 131.8089988
  16.5370012  25.5144997 132.7659988  16.8679244  25.4553100 131.9638892
  16.8010012  26.1494997 134.6199988  15.9580012  26.4174997 134.9859988
  17.2430012  26.9714997 134.4089988  16.7454158  26.2973291 134.6415491
   1.0820012  24.5974997 138.0969988   2.0020012  24.4754997 138.3329988
   0.6330012  23.8474997 138.4859988   1.1471580  24.4793727 138.1819006
  19.0840012  20.1294997 139.9729988  19.4340012  19.4754997 139.3679988
  19.2310012  20.9664997 139.5329988  19.1517887  20.1531548 139.8306858
  16.7730012  22.0944997 126.4559988  16.9560012  21.6454997 127.2819988
  16.1740012  21.5094997 125.9929988  16.7170202  21.9539975 126.5063275
   2.3030012  22.9094997 130.9879988   2.7490012  22.1174997 131.2899988
   2.7700012  23.6254997 131.4179988   2.4270831  22.8980685 131.0874006
   0.6070012  25.9084997 132.0569988   1.0990012  25.6874997 131.2659988
   0.9700012  26.7494997 132.3379988   0.7233126  25.9918357 131.9867531
  18.6040012  22.2384997 138.3219988  17.6860012  22.5094997 138.2869988
  18.7270012  21.7034997 137.5379988  18.4949729  22.2032508 138.2111923
  18.6400012  22.1614997 122.9839988  19.0520012  21.4404997 122.5089988
  19.3220012  22.8314997 123.0429988  18.7885885  22.1532368 122.9268915
   0.9210012  22.1664997 126.1109988  -0.0039988  22.3754997 125.9819988
   1.3750012  22.6504997 125.4209988   0.8557292  22.2605343 126.0000720
  15.6920012  37.1504997 128.0569988  16.3440012  36.8034997 127.4489988
  16.2020012  37.6394997 128.7029988  15.8502637  37.1690597 128.0610236
   0.8850012  20.9044997 134.4549988   0.2200012  20.6584997 135.0989988
   0.4420012  21.5264997 133.8779988   0.7341318  20.9549410 134.4650898
   3.0770012  34.0794997 138.5999988   2.2560012  34.2544997 138.1389988
   2.8240012  34.0064997 139.5199988   2.9305585  34.0935544 138.6613561
   6.0310012  35.0544997 134.8579988   5.6060012  35.8634997 134.5759988
   6.9350012  35.1394997 134.5559988   6.0949975  35.1769300 134.7784816
  10.3420012  36.4534997 137.8179988  10.5270012  36.1194997 138.6959988
  11.1880012  36.7624997 137.4959988  10.4817539  36.4496047 137.8945605
  12.6870012  37.7394997 137.0619988  13.3640012  37.1064997 136.8219988
  13.0090012  38.1404997 137.8689988  12.8231637  37.7071154 137.1382793
  17.6040012  20.3284997 136.1409988  16.7920012  20.6534997 135.7539988
  17.8370012  19.5684997 135.6079988  17.5242203  20.2702758 136.0158880
   3.4330012  38.3104997 134.9059988   2.7120012  38.7504997 134.4549988
   3.0670012  38.0594997 135.7539988   3.2849651  38.3367242 134.9589640
   5.9000012  37.9104997 133.9359988   5.0350012  37.9824997 134.3399988
   5.8450012  38.4574997 133.1519988   5.7742085  37.9942685 133.8853362
  10.6100012  37.7984997 133.1109988  10.1540012  38.3274997 132.4569988
  10.7730012  38.4014997 133.8359988  10.5696068  37.9524607 133.1194838
  12.9380012  36.6764997 134.0559988  12.0330012  36.8414997 133.7899988
  13.3670012  37.5294997 133.9909988  12.8721324  36.8144339 134.0107976
  15.5420012  38.2464997 134.3509988  15.3600012  39.1624997 134.1409988
  15.7190012  37.8364997 133.5049988  15.5410210  38.3164822 134.2077885
   2.8470012  36.9334997 131.8159988   2.8290012  36.5084997 132.6729988
   3.6520012  36.6154997 131.4069988   2.9533529  36.8323013 131.8780946
   4.9890012  35.6434997 130.4709988   4.7700012  34.7274997 130.6409988
   5.8130012  35.7834997 130.9369988   5.0704420  35.5370520 130.5572774
   7.5260012  36.1134997 131.3199988   7.7390012  35.2254997 131.0329988
   7.5900012  36.0794997 132.2739988   7.5638231  35.9873102 131.4097397
  11.0340012  21.7774997 130.4639988  10.3600012  21.1484997 130.7199988
  11.5980012  21.2934997 129.8609988  11.0179230  21.6258744 130.4175340
  16.1770012  19.8854997 130.5769988  16.7810012  20.4324997 130.0749988
  15.3070012  20.2044997 130.3359988  16.1421208  20.0035137 130.4756886
  17.9040012  21.0234997 128.9099988  18.5160012  20.5094997 128.3829988
  18.2860012  21.9014997 128.9329988  18.0393371  21.0717866 128.8410041
   3.3610012  20.4114997 128.2859988   2.5840012  20.1774997 127.7789988
   3.8910012  19.6144997 128.2949988   3.3262330  20.2716988 128.2177742
   2.1970012  20.2094997 124.0899988   2.6360012  20.8204997 123.4979988
   1.5640012  20.7474997 124.5639988   2.1714514  20.3659257 124.0730930
   7.9400012  20.3384997 128.0999988   8.8150012  20.7264997 128.0699988
   7.8040012  20.1234997 129.0219988   8.0413695  20.3625184 128.2206440
  13.4970012  20.3684997 129.7489988  13.5730012  20.4634997 128.7989988
  13.2220012  19.4604997 129.8779988  13.4702321  20.2587867 129.6365079
  14.8500012  20.3944997 125.4409988  14.1480012  21.0094997 125.2309988
  14.4060012  19.5564997 125.5719988  14.6936450  20.3655639 125.4299000
   2.0980012  36.1574997 124.9869988   1.4130012  36.1194997 124.3199988
   2.1020012  37.0704997 125.2759988   2.0046998  36.2756733 124.9346771
   4.0580012  22.1254997 122.5319988   4.5500012  21.4954997 122.0049988
   4.6820012  22.4214997 123.1949988   4.2095688  22.0793804 122.5495482
   9.0840012  22.4184997 124.9889988   9.2620012  21.7724997 125.6719988
   9.0310012  23.2524997 125.4559988   9.1011999  22.4428009 125.1455917
  10.9630012  37.3674997 123.3849988  11.8290012  37.7334997 123.2069988
  10.7160012  36.9274997 122.5709988  11.0482392  37.3581756 123.2506289
  17.6720012  36.9304997 126.0639988  17.4770012  36.1824997 125.4989988
  17.6330012  37.6884997 125.4809988  17.6400380  36.9306099 125.9078384
   3.3190012  20.9254997 137.8039988   2.9530012  20.1604997 138.2459988
   4.2320012  20.9544997 138.0899988   3.3922736  20.8245640 137.9032502
   5.2920012  20.2764997 139.3399988   6.1900012  20.0024997 139.1549988
   4.9050012  19.5334997 139.8039988   5.3626612  20.1385914 139.3773643
   3.9160012  37.0774997 122.0129988   3.6490012  37.3644997 122.8859988
   4.6880012  36.5314997 122.1649988   3.9837488  37.0430294 122.1531050
  13.7130012  19.6084997 139.5219988  13.7900012  19.1824997 140.3759988
  14.6070012  19.6224997 139.1789988  13.8443428  19.5520879 139.5925310
  16.8890012  35.6814997 138.2139988  16.1070012  35.4954997 137.6939988
  16.8170012  36.6104997 138.4319988  16.7722274  35.7816643 138.1723018
  31.2950012  29.5674997 128.2449988  31.3840012  30.5114997 128.1129988
  30.6570012  29.2924997 127.5869988  31.2209081  29.6594830 128.1379614
  30.2280012  28.8224997 131.6639988  30.1900012  28.1764997 132.3689988
  29.9060012  28.3564997 130.8929988  30.1792333  28.6709408 131.6562978
  22.5970012  28.4374997 133.2569988  22.6380012  27.8114997 133.9799988
  23.3000012  29.0614997 133.4389988  22.6976363  28.4361196 133.3806044
  33.9340012  31.7614997 129.9649988  33.4940012  31.0414997 130.4159988
  33.9210012  32.4824997 130.5949988  33.8720226  31.7603731 130.1118494
  23.5200012  32.8874997 131.7919988  23.1510012  32.0854997 131.4219988
  24.4610012  32.7184997 131.8379988  23.5967289  32.7550153 131.7476316
  20.1300012  26.5474997 127.1849988  19.6830012  27.3934997 127.1659988
  19.5690012  25.9674997 126.6689988  19.9929900  26.5849916 127.1126801
  20.8410012  28.7094997 129.3099988  21.0540012  27.9394997 129.8379988
  21.5790012  28.7984997 128.7069988  20.9699044  28.6161968 129.3007123
  31.0460012  36.8664997 130.1769988  31.6660012  36.1894997 129.9039988
  30.8380012  36.6484997 131.0859988  31.1026726  36.7444800 130.2624812
  28.6180012  31.2554997 132.0699988  28.9220012  30.5694997 131.4749988
  29.3390012  31.3734997 132.6879988  28.7570671  31.1776305 132.0721816
  37.2810012  22.8564997 132.9309988  37.3300012  23.4664997 133.6659988
  37.7060012  23.3174997 132.2079988  37.3451746  23.0023796 132.9339175
  31.7590012  25.6494997 132.3969988  31.9010012  24.7034997 132.4179988
  31.6520012  25.8564997 131.4689988  31.7639919  25.5478246 132.2743408
  24.9130012  23.7504997 129.6699988  24.9570012  24.6104997 129.2509988
  24.4560012  23.1984997 129.0359988  24.8572240  23.7934422 129.5269864
  32.6360012  23.8814997 128.0709988  33.2820012  23.5524997 128.6949988
  33.1460012  24.3994997 127.4479988  32.7934299  23.9064450 128.0722731
  21.5340012  26.1474997 130.4319988  22.1870012  25.5974997 130.8639988
  21.5580012  25.8734997 129.5149988  21.6266683  26.0351466 130.3672123
  26.6900012  27.6974997 129.6469988  27.3060012  27.1714997 130.1569988
  26.1040012  27.0574997 129.2439988  26.6950810  27.5389208 129.6623173
  37.6720012  24.3344997 135.1659988  36.9840012  24.9924997 135.0709988
  37.6880012  24.1374997 136.1029988  37.5799540  24.3979819 135.2795990
  23.7240012  22.6684997 133.7439988  23.5050012  23.1984997 132.9779988
  23.0560012  22.8954997 134.3909988  23.6037600  22.7716906 133.7266379
  31.0930012  32.1684997 127.2879988  30.7970012  31.8464997 126.4369988
  30.7680012  33.0684997 127.3289988  31.0086371  32.2460215 127.1771801
  26.2930012  30.3444997 134.0309988  25.5530012  30.9424997 134.1349988
  27.0070012  30.8984997 133.7159988  26.2882237  30.5012831 134.0026465
  34.4000012  23.1724997 130.0509988  34.1840012  22.4064997 130.5839988
  35.0550012  23.6444997 130.5639988  34.4590632  23.1315889 130.1932861
  23.3170012  24.5604997 131.6959988  23.9310012  25.1934997 132.0689988
  23.8290012  24.0884997 131.0399988  23.4701981  24.5832267 131.6582908
  24.7000012  32.3084997 134.8179988  24.6950012  33.1884997 134.4399988
  23.8470012  32.2254997 135.2429988  24.5839464  32.4176117 134.8237907
  20.8210012  31.9794997 125.5999988  20.5490012  32.2084997 124.7119988
  20.8670012  32.8174997 126.0609988  20.7899482  32.1241318 125.5406273
  34.4460012  33.6014997 132.3129988  33.5050012  33.6594997 132.4749988
  34.7230012  34.5074997 132.1759988  34.3544679  33.7319443 132.3166815
  34.7470012  21.8874997 133.7309988  34.0110012  22.4984997 133.6929988
  35.4300012  22.3024997 133.2039988  34.7386541  22.0271374 133.6545832
  27.7500012  19.9744997 131.1959988  27.6330012  19.0254997 131.1419988
  26.8950012  20.3064997 131.4699988  27.6184212  19.8895571 131.2256497
  32.6980012  35.3824997 128.9379988  33.1240012  34.6754997 128.4529988
  33.0150012  36.1834997 128.5219988  32.7991683  35.3941017 128.8153680
  33.8580012  33.2834997 127.4469988  33.6000012  32.5934997 126.8359988
  33.9290012  32.8404997 128.2929988  33.8322856  33.1292124 127.4776885
  35.5440012  31.8494997 135.9239988  35.6840012  31.2584997 135.1849988
  35.7110012  32.7224997 135.5679988  35.5857411  31.8865428 135.7746894
  30.0170012  28.8114997 125.6969988  29.3050012  29.3464997 125.3449988
  30.7080012  28.8674997 125.0369988  30.0130132  28.8922543 125.5596289
  30.0700012  27.2694997 122.7359988  30.7710012  27.2914997 123.3869988
  30.3730012  26.6414997 122.0789988  30.2068133  27.1877070 122.7363369
  37.3860012  28.1894997 133.9899988  36.7330012  28.8844997 134.0799988
  37.8510012  28.3994997 133.1809988  37.3595274  28.3130643 133.8928462
  33.4220012  29.0214997 126.6489988  32.6900012  29.2494997 127.2219988
  33.8700012  28.3074997 127.1029988  33.3822725  28.9562145 126.7888816
  33.3200012  27.1954997 135.7159988  33.4000012  27.9584997 136.2879988
  32.7180012  27.4744997 135.0259988  33.2495756  27.3377134 135.7010589
  25.0680012  29.6514997 128.5309988  24.7370012  29.2814997 127.7129988
  25.6560012  28.9814997 128.8779988  25.1021873  29.5101156 128.4658102
  26.4340012  33.0794997 131.2119988  26.3400012  32.5014997 130.4559988
  27.1640012  32.7084997 131.7089988  26.5197387  32.9501663 131.1755342
  25.4340012  28.4204997 132.1649988  26.0000012  28.5414997 131.4019988
  25.7530012  29.0574997 132.8029988  25.5545474  28.5232219 132.1469862
  31.7430012  33.9234997 132.8989988  31.5030012  34.5854997 133.5469988
  31.5450012  33.0894997 133.3239988  31.6833808  33.9013134 133.0451524
  26.3140012  32.8194997 136.8819988  26.0030012  33.6014997 137.3369988
  25.6640012  32.6664997 136.1959988  26.1835558  32.9059105 136.8515871
  32.2930012  28.1834997 124.3339988  32.8730012  28.3334997 125.0809988
  32.7070012  28.6544997 123.6099988  32.4282997  28.2676578 124.3384058
  23.2340012  29.0174997 136.1099988  23.3050012  29.6684997 136.8089988
  22.3440012  29.1204997 135.7749988  23.1233005  29.1205427 136.1603495
  30.0200012  34.9204997 127.7689988  30.4940012  35.2154997 128.5459988
  29.4570012  35.6584997 127.5359988  30.0088184  35.0607247 127.8439628
  24.5540012  34.8914997 137.6449988  24.5610012  34.7554997 136.6979988
  23.6380012  34.7734997 137.8969988  24.4311714  34.8569430 137.5494666
  35.9920012  19.9334997 124.1469988  35.0920012  20.0724997 124.4419988
  36.2440012  20.7644997 123.7449988  35.9028702  20.0649074 124.1330205
  24.0580012  28.7214997 126.1199988  23.7660012  29.4894997 125.6299988
  23.3840012  28.0614997 125.9579988  23.9268111  28.7375587 126.0308978
  37.1810012  34.2994997 122.5229988  37.2550012  35.2384997 122.6939988
  38.0870012  33.9944997 122.4669988  37.3135100  34.3866722 122.5388119
  20.1510012  31.0844997 134.9349988  19.6500012  31.0564997 134.1199988
  20.1560012  30.1784997 135.2449988  20.0830944  30.9582396 134.8653226
  19.9010012  33.8644997 131.8189988  20.8470012  33.7204997 131.7999988
  19.7890012  34.6484997 132.3559988  20.0152727  33.9508046 131.8890072
  38.0990012  34.5304997 137.5019988  38.0500012  33.5754997 137.4649988
  37.2720012  34.7984997 137.9029988  37.9804940  34.4358998 137.5511375
  29.0780012  34.1044997 136.3779988  29.1650012  34.9304997 136.8529988
  28.2140012  33.7744997 136.6269988  28.9731964  34.1729878 136.4766549
  29.4920012  37.8764997 126.1839988  29.4170012  37.7554997 125.2369988
  29.5250012  38.8264997 126.3019988  29.4862068  37.9882646 126.0704967
  23.1450012  36.6654997 127.9649988  23.2980012  36.3174997 128.8429988
  22.2950012  36.3094997 127.7099988  23.0509166  36.5696216 128.0508079
  32.5940012  37.0304997 123.1859988  32.9690012  36.2864997 122.7149988
  32.5980012  36.7604997 124.1049988  32.6459125  36.8920986 123.2456483
  32.2630012  36.9564997 125.9349988  31.3270012  37.0564997 126.1139988
  32.5430012  36.2474997 126.5139988  32.1729553  36.8743406 126.0377087
  35.2510012  26.0234997 137.9819988  34.8440012  26.5044997 137.2609988
  35.2920012  25.1184997 137.6739988  35.2008437  25.9669374 137.8416683
  22.4000012  32.4074997 135.9789988  22.6160012  32.0464997 136.8379988
  21.5450012  32.0334997 135.7689988  22.3139292  32.3074111 136.0683386
  25.0190012  20.8774997 131.9739988  24.1570012  20.7904997 131.5659988
  24.9960012  21.7334997 132.4019988  24.8980409  20.9812883 131.9760589
  29.6820012  20.5994997 135.3489988  30.1020012  20.1844997 136.1019988
  28.7490012  20.4214997 135.4659988  29.6133644  20.5185900 135.4679539
  33.0080012  24.3554997 136.2019988  32.4940012  24.2294997 136.9999988
  32.8530012  25.2674997 135.9579988  32.9166852  24.4616132 136.2782158
  33.7710012  29.2164997 121.9639988  33.8130012  28.9934997 121.0339988
  34.6200012  29.6154997 122.1529988  33.8915280  29.2399438 121.8623554
  29.3430012  23.0924997 122.6339988  29.0900012  23.1114997 123.5569988
  29.0870012  22.2204997 122.3319988  29.2737481  22.9772558 122.7196175
  25.1100012  25.8434997 133.0689988  24.4680012  25.8024997 133.7779988
  25.1470012  26.7694997 132.8309988  25.0270664  25.9631430 133.1339219
  25.1070012  26.0644997 127.9809988  24.2140012  25.7234997 127.9219988
  25.5570012  25.6874997 127.2249988  25.0458130  25.9669631 127.8707702
  30.6420012  26.4804997 126.7979988  30.2330012  27.2954997 126.5069988
  31.3630012  26.3404997 126.1839988  30.6834537  26.5732018 126.6751342
  29.7440012  26.6554997 138.2859988  29.1820012  25.9514997 138.6069988
  30.5710012  26.5354997 138.7539988  29.7787095  26.5427883 138.3932330
  31.6470012  25.9264997 129.6119988  31.4520012  26.5314997 128.8969988
  31.8280012  25.0924997 129.1779988  31.6447614  25.8966300 129.4554405
  22.8600012  26.1634997 134.9359988  22.8220012  26.5634997 135.8049988
  22.3690012  25.3464997 135.0269988  22.7884684  26.1078069 135.0671059
  26.2260012  23.5374997 121.7349988  25.7950012  23.0924997 122.4649988
  25.5080012  23.9094997 121.2229988  26.0699438  23.5268940 121.7656799
  19.4680012  23.2794997 128.7869988  20.0990012  23.2504997 129.5059988
  19.9170012  22.8544997 128.0559988  19.6150918  23.2180836 128.7866441
  20.7420012  24.0254997 124.2109988  21.2160012  24.6164997 123.6259988
  20.0250012  24.5564997 124.5579988  20.7099341  24.1780867 124.1778836
  30.9110012  27.5644997 134.2829988  31.2340012  26.9334997 133.6399988
  30.4710012  27.0294997 134.9439988  30.8957484  27.4058387 134.2843198
  27.6880012  23.4914997 129.0669988  26.7770012  23.5484997 129.3559988
  28.1940012  23.4314997 129.8779988  27.6316899  23.4911941 129.2161184
  22.5170012  25.1204997 127.8939988  21.6270012  25.2204997 127.5539988
  22.8130012  24.2784997 127.5479988  22.4352823  25.0203545 127.8007213
  26.1700012  25.1204997 125.5509988  27.1010012  25.2494997 125.7289988
  25.9550012  25.7904997 124.9009988  26.2684247  25.2286565 125.4875747
  32.0930012  22.7264997 132.3319988  31.4170012  22.8574997 132.9959988
  31.6080012  22.5714997 131.5209988  31.9347146  22.7235157 132.3134469
  24.8440012  26.3154997 123.1169988  24.3010012  25.9354997 122.4259988
  25.6770012  26.5094997 122.6889988  24.8823631  26.2897125 122.9644501
  35.3810012  38.3984997 138.6079988  35.5810012  38.8224997 137.7739988
  36.0360012  38.7414997 139.2149988  35.4970073  38.5029857 138.5758592
  22.9790012  30.8724997 138.2159988  23.7110012  31.1264997 138.7779988
  22.1990012  31.0764997 138.7319988  22.9737073  30.9348160 138.3626151
  29.0080012  26.2794997 130.9539988  29.5730012  25.7324997 130.4069988
  28.8610012  25.7574997 131.7429988  29.0653380  26.1342259 130.9858695
  24.0100012  22.4154997 127.3729988  23.6930012  21.5134997 127.3369988
  24.7920012  22.4174997 126.8199988  24.0722408  22.2922474 127.2933569
  27.6350012  24.6674997 133.3679988  26.7990012  25.1214997 133.4789988
  28.1590012  24.9434997 134.1199988  27.5915416  24.7668660 133.4848119
  28.1790012  30.8804997 125.0529988  27.4340012  30.3734997 124.7309988
  28.0450012  30.9294997 125.9999988  28.0588776  30.8176940 125.1368647
  35.3290012  30.0134997 133.8399988  35.9710012  30.4704997 133.2959988
  34.4990012  30.1264997 133.3769988  35.3045963  30.0912704 133.7030177
  32.0770012  23.6944997 123.2519988  31.1380012  23.8064997 123.1009988
  32.3740012  24.5514997 123.5589988  31.9887583  23.8255981 123.2728337
  29.6980012  31.0644997 136.2899988  29.3530012  30.6834997 137.0969988
  29.4980012  31.9984997 136.3609988  29.6237527  31.1385135 136.4100689
  32.7950012  25.5614997 124.9129988  33.6870012  25.4244997 125.2319988
  32.8520012  26.3524997 124.3759988  32.9246504  25.6496052 124.8840818
  23.3040012  30.1754997 130.8229988  24.0490012  30.1734997 130.2219988
  23.3820012  29.3524997 131.3039988  23.4164995  30.0638887 130.8058282
  30.3050012  32.3394997 124.0789988  30.0090012  33.1654997 124.4599988
  29.6020012  31.7194997 124.2749988  30.1694914  32.3688199 124.1576443
  20.3120012  28.6364997 136.1379988  20.5350012  28.2184997 136.9699988
  19.7100012  28.0234997 135.7149988  20.2611759  28.4964668 136.1947022
  27.3280012  28.1534997 138.3509988  27.0320012  27.9874997 137.4559988
  28.2600012  27.9334997 138.3399988  27.4134166  28.1010640 138.2270536
  31.9490012  33.5264997 136.2409988  31.0480012  33.7094997 135.9729988
  31.9830012  33.7854997 137.1609988  31.8303139  33.5865849 136.3288099
  37.6800012  25.7714997 124.6079988  37.1260012  25.3754997 123.9359988
  37.7800012  26.6814997 124.3299988  37.6177059  25.8403586 124.4784401
  37.6430012  31.5714997 137.4449988  36.7920012  31.8094997 137.0779988
  38.2340012  31.5544997 136.6919988  37.6062487  31.6018258 137.2928893
  35.9750012  34.5574997 125.0729988  35.6020012  33.7314997 125.3819988
  36.2530012  34.3744997 124.1749988  35.9615222  34.4197430 124.9939473
  33.1360012  29.3654997 132.0939988  32.2070012  29.1334997 132.0669988
  33.5870012  28.5884997 131.7639988  33.0699216  29.2287238 132.0456917
  25.6790012  33.6934997 128.2269988  26.2060012  34.4664997 128.0269988
  24.7990012  33.9184997 127.9249988  25.6322031  33.8297545 128.1587912
  21.4340012  28.5554997 122.8139988  22.0500012  29.1824997 123.1939988
  20.5720012  28.8714997 123.0859988  21.4017698  28.6839430 122.9027183
  27.1060012  31.3564997 127.8029988  26.8650012  32.2814997 127.8449988
  26.3650012  30.8974997 128.1999988  26.9729225  31.4210933 127.8623742
  27.6210012  35.5054997 134.1189988  27.9830012  36.3604997 133.8849988
  28.1520012  35.2134997 134.8589988  27.7424473  35.5831060 134.1870855
  25.7890012  36.3784997 127.3489988  24.8390012  36.4834997 127.3999988
  26.1410012  37.1984997 127.6929988  25.7064195  36.5038800 127.4025502
  31.1650012  31.6044997 133.8189988  30.7390012  31.3774997 134.6459988
  31.7450012  30.8664997 133.6369988  31.1851868  31.4735299 133.9075830
  33.3680012  32.5334997 122.8929988  33.7210012  32.1534997 123.6969988
  32.4190012  32.4404997 122.9799988  33.2880918  32.4688956 123.0148532
  33.8230012  36.1564997 136.2889988  33.2220012  35.6014997 135.7929988
  34.1050012  36.8234997 135.6619988  33.7788804  36.1706625 136.1364849
  37.8710012  37.0134997 123.0939988  38.6150012  37.5994997 122.9539988
  37.1770012  37.5814997 123.4269988  37.8789899  37.1705798 123.1198778
  21.9460012  23.3894997 135.6959988  21.0530012  23.7284997 135.6279988
  21.8470012  22.5344997 136.1139988  21.8104164  23.3202588 135.7432235
  34.2340012  31.2064997 125.1199988  33.9560012  30.4784997 125.6759988
  35.1610012  31.3254997 125.3249988  34.3213124  31.1228802 125.2238845
  21.5970012  35.1944997 134.1309988  21.8140012  34.2624997 134.0999988
  21.8430012  35.4684997 135.0139988  21.6599549  35.1040636 134.2461763
  27.4590012  33.6454997 121.3399988  27.6980012  32.8974997 120.7929988
  27.1900012  33.2574997 122.1729988  27.4553675  33.4906638 121.3776865
  26.3960012  33.2154997 123.7959988  26.5420012  32.6954997 124.5859988
  26.3930012  34.1224997 124.1029988  26.4155792  33.2668842 123.9456117
  22.8490012  30.4684997 124.3069988  22.1630012  30.8204997 124.8739988
  23.3710012  31.2314997 124.0599988  22.8256852  30.6198578 124.3512118
  30.6800012  23.1304997 134.5859988  31.3790012  23.2044997 135.2359988
  30.2990012  22.2664997 134.7399988  30.7241767  23.0237624 134.6958322
  31.4650012  22.7824997 125.6829988  31.6850012  23.2544997 124.8799988
  32.0230012  23.1774997 126.3529988  31.5704968  22.9004285 125.6637331
  29.1330012  34.9134997 124.5459988  28.3170012  35.4104997 124.5979988
  29.6630012  35.3884997 123.9059988  29.0929161  35.0457722 124.4665956
  28.6650012  24.5104997 126.5179988  29.4770012  25.0154997 126.5639988
  28.4200012  24.3654997 127.4319988  28.7430520  24.5600375 126.6478517
  29.2000012  25.4964997 135.7019988  29.3190012  26.0704997 136.4599988
  29.8560012  24.8084997 135.8169988  29.3049025  25.4819858 135.8211321
  29.5480012  21.5914997 127.4559988  29.2020012  22.2094997 128.0999988
  30.2070012  22.0924997 126.9739988  29.5896968  21.7436278 127.4789383
  26.4720012  35.9574997 124.5269988  26.6320012  36.7564997 124.0269988
  26.2740012  36.2634997 125.4119988  26.4671637  36.1084020 124.5781144
  25.2060012  22.6544997 124.1429988  25.1230012  23.5434997 124.4899988
  26.0960012  22.3894997 124.3749988  25.3149469  22.7401430 124.2217626
  35.4050012  23.4034997 136.5369988  34.4880012  23.6664997 136.4499988
  35.7400012  23.4004997 135.6409988  35.3248613  23.4390761 136.4038837
  34.0070012  27.1544997 130.6329988  33.2090012  26.7394997 130.3049988
  34.4520012  26.4634997 131.1239988  33.9579885  27.0043543 130.6544889
  23.4650012  33.0824997 123.2039988  24.0570012  33.7814997 123.4799988
  23.9240012  32.6494997 122.4839988  23.6081142  33.1197049 123.1444830
  21.7810012  25.7464997 122.3199988  21.7360012  26.6854997 122.4979988
  20.8930012  25.5104997 122.0499988  21.6548574  25.8431892 122.3078912
  35.0930012  36.4104997 132.2559988  34.9380012  37.0884997 131.5979988
  36.0260012  36.4824997 132.4589988  35.1978657  36.5129546 132.1934360
  22.5890012  20.5284997 130.9929988  22.3600012  20.5874997 130.0649988
  22.1460012  19.7364997 131.2989988  22.4978530  20.4295753 130.9074786
  21.5190012  34.4684997 127.1529988  20.6870012  34.9414997 127.1799988
  22.0650012  34.9784997 126.5549988  21.4790352  34.6021332 127.0758463
  20.8070012  37.0814997 138.4829988  21.3480012  36.8644997 139.2429988
  20.3260012  36.2754997 138.2929988  20.8159951  36.9429270 138.5612576
  25.4050012  36.0004997 140.1029988  26.1720012  35.5414997 140.4439988
  25.3830012  35.7744997 139.1739988  25.5071275  35.9070186 140.0240101
  29.4970012  35.5084997 121.4789988  28.8530012  34.8774997 121.7999988
  30.2590012  34.9774997 121.2469988  29.5118077  35.3502920 121.4916011
  31.9820012  34.3804997 138.8329988  31.6310012  33.5244997 139.0759988
  32.7080012  34.5234997 139.4399988  32.0320769  34.2825636 138.9483619
  34.1010012  35.3254997 121.7119988  34.3840012  34.5314997 122.1649988
  34.8410012  35.5584997 121.1519988  34.2398006  35.2483376 121.6982715
  20.7140012  30.8914997 139.4369988  20.8580012  29.9894997 139.1509988
  19.9420012  31.1774997 138.9499988  20.6292753  30.8066816 139.3319505
  25.0560012  31.2354997 121.5699988  25.1200012  30.4414997 122.1009988
  25.7090012  31.1164997 120.8799988  25.1530241  31.1107148 121.5494317
  27.3700012  30.8614997 138.8699988  27.0410012  31.1324997 138.0129988
  27.5220012  29.9204997 138.7829988  27.3454809  30.7713862 138.7408244
  30.4080012  32.2824997 121.3059988  30.1390012  32.4624997 122.2069988
  30.2020012  31.3564997 121.1739988  30.3433427  32.1820261 121.4115073
  33.1040012  30.7774997 136.2529988  33.8500012  31.3654997 136.1339988
  32.3470012  31.3594997 136.3169988  33.1037820  30.9367143 136.2453590
  21.5470012  28.0914997 138.8569988  21.9550012  27.2344997 138.7359988
  21.2870012  28.1064997 139.7779988  21.5677568  27.9760807 138.9649588
  26.2050012  29.2074997 123.8759988  25.7450012  28.7234997 124.5619988
  26.4600012  28.5394997 123.2399988  26.1764902  29.0508731 123.8839334
  25.4940012  27.1004997 136.2319988  24.8760012  27.7754997 136.5119988
  25.8380012  27.4214997 135.3979988  25.4559132  27.2362411 136.1576262
  27.2760012  27.4504997 122.1379988  27.0960012  27.2964997 121.2109988
  28.2260012  27.5584997 122.1829988  27.3797776  27.4440175 122.0171843
  30.5140012  29.5724997 139.5089988  31.4670012  29.6554997 139.4819988
  30.3530012  28.8604997 140.1289988  30.6226426  29.4876746 139.5890578
  36.6660012  29.8054997 121.5839988  36.3920012  29.3804997 120.7709988
  36.7050012  30.7364997 121.3669988  36.6337699  29.8732484 121.4433610
  25.8330012  24.4554997 137.3139988  25.9830012  23.7264997 136.7119988
  25.8360012  25.2324997 136.7549988  25.8539302  24.4607851 137.1560692
  26.2460012  22.8254997 134.8069988  26.7820012  23.2764997 134.1549988
  25.3940012  22.7174997 134.3839988  26.2042178  22.8726390 134.6605756
  27.8280012  28.2644997 135.0459988  28.5780012  28.1084997 134.4729988
  27.4890012  29.1164997 134.7709988  27.8848921  28.3582968 134.9303561
  32.2430012  26.0794997 140.0749988  32.4360012  25.1484997 139.9629988
  33.1010012  26.5044997 140.0639988  32.3852934  26.0096531 140.0582031
  33.5600012  28.8684997 138.1519988  33.2790012  29.5774997 137.5739988
  34.5030012  28.7954997 138.0009988  33.6489291  28.9556711 138.0524967
  24.3120012  25.6534997 139.2259988  23.5450012  25.1214997 139.0149988
  24.9910012  25.3434997 138.6259988  24.2987877  25.5388300 139.1160716
  27.0520012  20.2814997 135.2379988  26.9530012  21.2284997 135.1329988
  26.3090012  19.9094997 134.7619988  26.9381184  20.3605863 135.1593621
  28.3160012  24.6034997 138.8019988  28.0800012  24.3834997 139.7029988
  27.5320012  24.3964997 138.2919988  28.1778504  24.5454586 138.8563431
  31.0310012  23.7304997 137.8769988  30.0840012  23.7624997 138.0099988
  31.3440012  23.1054997 138.5309988  30.9436707  23.6503998 137.9836060
  32.6650012  22.3644997 139.8829988  32.5690012  21.4124997 139.8769988
  32.3440012  22.6334997 140.7429988  32.6084070  22.2704035 139.9985441
  22.4920012  23.5744997 138.9299988  22.7040012  22.8674997 138.3199988
  22.3810012  23.1364997 139.7739988  22.5059721  23.4187084 138.9606843
  27.2730012  19.5754997 137.9089988  27.9850012  18.9354997 137.8949988
  27.1720012  19.8424997 136.9959988  27.3568066  19.5240079 137.7835677
  27.6270012  21.2584997 139.9629988  27.4950012  20.7824997 139.1429988
  27.0280012  22.0024997 139.9079988  27.5279071  21.2939618 139.8432886
  27.1730012  38.1414997 123.1389988  28.1060012  38.2994997 123.2829988
  26.9090012  38.8164997 122.5149988  27.2649888  38.2544510 123.0742842
  20.7420012  32.7774997 122.6219988  21.6560012  32.8564997 122.8959988
  20.7490012  32.0904997 121.9559988  20.8681131  32.6953961 122.5694393
  19.3910012  38.1704997 127.6999988  18.7440012  37.7084997 127.1669988
  19.7450012  37.4984997 128.2819988  19.3503849  38.0164723 127.7057959
  20.2610012  36.2514997 129.5039988  19.9260012  35.3714997 129.6759988
  20.4830012  36.5964997 130.3689988  20.2451783  36.1777500 129.6444208
  37.8090012  37.0604997 132.4849988  37.7880012  37.2454997 133.4239988
  38.5000012  37.6294997 132.1439988  37.8994618  37.1626606 132.5673864
  37.3730012  36.6284997 135.4069988  36.8850012  35.8924997 135.0349988
  37.9220012  36.2344997 136.0849988  37.3804820  36.4745889 135.4477813
  35.8230012  32.4174997 140.0449988  34.9570012  32.3124997 140.4389988
  36.2000012  33.1764997 140.4909988  35.7553308  32.5056900 140.1592393
  37.1240012  30.6744997 125.5589988  37.9740012  31.0954997 125.6859988
  37.1300012  29.9344997 126.1659988  37.2411372  30.6320803 125.6584344
  37.5190012  28.7274997 127.3819988  36.7920012  28.2484997 127.7799988
  38.1000012  28.9334997 128.1149988  37.4980473  28.6898103 127.5354528
  37.2780012  31.5124997 132.3299988  38.1110012  31.1344997 132.0499988
  37.3900012  32.4554997 132.2109988  37.4072647  31.5882218 132.2755487
  35.7640012  34.3904997 134.6369988  35.1170012  34.7154997 135.2629988
  35.2470012  33.9504997 133.9629988  35.6054029  34.3755004 134.6315827
  37.7870012  28.6284997 123.7739988  37.2650012  28.9854997 123.0549988
  37.7540012  29.3034997 124.4519988  37.7111634  28.7685413 123.7673145
  36.1360012  25.8684997 122.3239988  36.2320012  26.5354997 121.6439988
  35.9960012  25.0524997 121.8429988  36.1302272  25.8495655 122.1658347
  35.3050012  27.2484997 127.9449988  35.1550012  26.3034997 127.9249988
  34.9520012  27.5294997 128.7889988  35.2367448  27.1571481 128.0563705
  20.3410012  29.3264997 131.9559988  20.5250012  29.2444997 131.0199988
  21.1900012  29.2024997 132.3789988  20.4810151  29.2985073 131.8851451
  36.1620012  29.2184997 137.5839988  36.7450012  28.4844997 137.7759988
  36.7260012  29.9904997 137.6309988  36.3179769  29.2224227 137.6166159
  37.6580012  27.1214997 138.2689988  36.7950012  26.7424997 138.1029988
  38.2630012  26.3824997 138.1939988  37.6216119  26.9698268 138.2361528
  35.3830012  23.2764997 121.4419988  35.9940012  22.9054997 122.0789988
  34.5470012  22.8554997 121.6379988  35.3535032  23.1687554 121.5557035
  35.0160012  24.8314997 126.4079988  35.2960012  23.9244997 126.5319988
  35.7750012  25.2654997 126.0189988  35.1569277  24.7660942 126.3723682
  35.6280012  25.4124997 131.8439988  36.5610012  25.6244997 131.8089988
  35.3930012  25.5144997 132.7659988  35.7239244  25.4553100 131.9638892
  35.6570012  26.1494997 134.6199988  34.8140012  26.4174997 134.9859988
  36.0990012  26.9714997 134.4089988  35.6014158  26.2973291 134.6415491
  19.9380012  24.5974997 138.0969988  20.8580012  24.4754997 138.3329988
  19.4890012  23.8474997 138.4859988  20.0031580  24.4793727 138.1819006
  37.9400012  20.1294997 139.9729988  38.2900012  19.4754997 139.3679988
  38.0870012  20.9664997 139.5329988  38.0077887  20.1531548 139.8306858
  35.6290012  22.0944997 126.4559988  35.8120012  21.6454997 127.2819988
  35.0300012  21.5094997 125.9929988  35.5730202  21.9539975 126.5063275
  21.1590012  22.9094997 130.9879988  21.6050012  22.1174997 131.2899988
  21.6260012  23.6254997 131.4179988  21.2830831  22.8980685 131.0874006
  19.4630012  25.9084997 132.0569988  19.9550012  25.6874997 131.2659988
  19.8260012  26.7494997 132.3379988  19.5793126  25.9918357 131.9867531
  37.4600012  22.2384997 138.3219988  36.5420012  22.5094997 138.2869988
  37.5830012  21.7034997 137.5379988  37.3509729  22.2032508 138.2111923
  37.4960012  22.1614997 122.9839988  37.9080012  21.4404997 122.5089988
  38.1780012  22.8314997 123.0429988  37.6445885  22.1532368 122.9268915
  19.7770012  22.1664997 126.1109988  18.8520012  22.3754997 125.9819988
  20.2310012  22.6504997 125.4209988  19.7117292  22.2605343 126.0000720
  34.5480012  37.1504997 128.0569988  35.2000012  36.8034997 127.4489988
  35.0580012  37.6394997 128.7029988  34.7062637  37.1690597 128.0610236
  19.7410012  20.9044997 134.4549988  19.0760012  20.6584997 135.0989988
  19.2980012  21.5264997 133.8779988  19.5901318  20.9549410 134.4650898
  21.9330012  34.0794997 138.5999988  21.1120012  34.2544997 138.1389988
  21.6800012  34.0064997 139.5199988  21.7865585  34.0935544 138.6613561
  24.8870012  35.0544997 134.8579988  24.4620012  35.8634997 134.5759988
  25.7910012  35.1394997 134.5559988  24.9509975  35.1769300 134.7784816
  29.1980012  36.4534997 137.8179988  29.3830012  36.1194997 138.6959988
  30.0440012  36.7624997 137.4959988  29.3377539  36.4496047 137.8945605
  31.5430012  37.7394997 137.0619988  32.2200012  37.1064997 136.8219988
  31.8650012  38.1404997 137.8689988  31.6791637  37.7071154 137.1382793
  36.4600012  20.3284997 136.1409988  35.6480012  20.6534997 135.7539988
  36.6930012  19.5684997 135.6079988  36.3802203  20.2702758 136.0158880
  22.2890012  38.3104997 134.9059988  21.5680012  38.7504997 134.4549988
  21.9230012  38.0594997 135.7539988  22.1409651  38.3367242 134.9589640
  24.7560012  37.9104997 133.9359988  23.8910012  37.9824997 134.3399988
  24.7010012  38.4574997 133.1519988  24.6302085  37.9942685 133.8853362
  29.4660012  37.7984997 133.1109988  29.0100012  38.3274997 132.4569988
  29.6290012  38.4014997 133.8359988  29.4256068  37.9524607 133.1194838
  31.7940012  36.6764997 134.0559988  30.8890012  36.8414997 133.7899988
  32.2230012  37.5294997 133.9909988  31.7281324  36.8144339 134.0107976
  34.3980012  38.2464997 134.3509988  34.2160012  39.1624997 134.1409988
  34.5750012  37.8364997 133.5049988  34.3970210  38.3164822 134.2077885
  21.7030012  36.9334997 131.8159988  21.6850012  36.5084997 132.6729988
  22.5080012  36.6154997 131.4069988  21.8093529  36.8323013 131.8780946
  23.8450012  35.6434997 130.4709988  23.6260012  34.7274997 130.6409988
  24.6690012  35.7834997 130.9369988  23.9264420  35.5370520 130.5572773
  26.3820012  36.1134997 131.3199988  26.5950012  35.2254997 131.0329988
  26.4460012  36.0794997 132.2739988  26.4198231  35.9873102 131.4097397
  29.8900012  21.7774997 130.4639988  29.2160012  21.1484997 130.7199988
  30.4540012  21.2934997 129.8609988  29.8739230  21.6258744 130.4175340
  35.0330012  19.8854997 130.5769988  35.6370012  20.4324997 130.0749988
  34.1630012  20.2044997 130.3359988  34.9981208  20.0035137 130.4756886
  36.7600012  21.0234997 128.9099988  37.3720012  20.5094997 128.3829988
  37.1420012  21.9014997 128.9329988  36.8953371  21.0717866 128.8410041
  22.2170012  20.4114997 128.2859988  21.4400012  20.1774997 127.7789988
  22.7470012  19.6144997 128.2949988  22.1822330  20.2716988 128.2177742
  21.0530012  20.2094997 124.0899988  21.4920012  20.8204997 123.4979988
  20.4200012  20.7474997 124.5639988  21.0274514  20.3659257 124.0730930
  26.7960012  20.3384997 128.0999988  27.6710012  20.7264997 128.0699988
  26.6600012  20.1234997 129.0219988  26.8973695  20.3625184 128.2206440
  32.3530012  20.3684997 129.7489988  32.4290012  20.4634997 128.7989988
  32.0780012  19.4604997 129.8779988  32.3262321  20.2587867 129.6365079
  33.7060012  20.3944997 125.4409988  33.0040012  21.0094997 125.2309988
  33.2620012  19.5564997 125.5719988  33.5496450  20.3655639 125.4299000
  20.9540012  36.1574997 124.9869988  20.2690012  36.1194997 124.3199988
  20.9580012  37.0704997 125.2759988  20.8606998  36.2756733 124.9346771
  22.9140012  22.1254997 122.5319988  23.4060012  21.4954997 122.0049988
  23.5380012  22.4214997 123.1949988  23.0655688  22.0793804 122.5495482
  27.9400012  22.4184997 124.9889988  28.1180012  21.7724997 125.6719988
  27.8870012  23.2524997 125.4559988  27.9571999  22.4428009 125.1455917
  29.8190012  37.3674997 123.3849988  30.6850012  37.7334997 123.2069988
  29.5720012  36.9274997 122.5709988  29.9042392  37.3581756 123.2506289
  36.5280012  36.9304997 126.0639988  36.3330012  36.1824997 125.4989988
  36.4890012  37.6884997 125.4809988  36.4960380  36.9306099 125.9078384
  22.1750012  20.9254997 137.8039988  21.8090012  20.1604997 138.2459988
  23.0880012  20.9544997 138.0899988  22.2482736  20.8245640 137.9032502
  24.1480012  20.2764997 139.3399988  25.0460012  20.0024997 139.1549988
  23.7610012  19.5334997 139.8039988  24.2186612  20.1385914 139.3773643
  22.7720012  37.0774997 122.0129988  22.5050012  37.3644997 122.8859988
  23.5440012  36.5314997 122.1649988  22.8397488  37.0430294 122.1531050
  32.5690012  19.6084997 139.5219988  32.6460012  19.1824997 140.3759988
  33.4630012  19.6224997 139.1789988  32.7003428  19.5520879 139.5925310
  35.7450012  35.6814997 138.2139988  34.9630012  35.4954997 137.6939988
  35.6730012  36.6104997 138.4319988  35.6282274  35.7816643 138.1723018
  50.1510012  29.5674997 128.2449988  50.2400012  30.5114997 128.1129988
  49.5130012  29.2924997 127.5869988  50.0769081  29.6594830 128.1379614
  49.0840012  28.8224997 131.6639988  49.0460012  28.1764997 132.3689988
  48.7620012  28.3564997 130.8929988  49.0352333  28.6709408 131.6562978
  41.4530012  28.4374997 133.2569988  41.4940012  27.8114997 133.9799988
  42.1560012  29.0614997 133.4389988  41.5536363  28.4361196 133.3806044
  52.7900012  31.7614997 129.9649988  52.3500012  31.0414997 130.4159988
  52.7770012  32.4824997 130.5949988  52.7280226  31.7603731 130.1118494
  42.3760012  32.8874997 131.7919988  42.0070012  32.0854997 131.4219988
  43.3170012  32.7184997 131.8379988  42.4527289  32.7550153 131.7476316
  38.9860012  26.5474997 127.1849988  38.5390012  27.3934997 127.1659988
  38.4250012  25.9674997 126.6689988  38.8489900  26.5849916 127.1126801
  39.6970012  28.7094997 129.3099988  39.9100012  27.9394997 129.8379988
  40.4350012  28.7984997 128.7069988  39.8259044  28.6161968 129.3007123
  49.9020012  36.8664997 130.1769988  50.5220012  36.1894997 129.9039988
  49.6940012  36.6484997 131.0859988  49.9586726  36.7444800 130.2624812
  47.4740012  31.2554997 132.0699988  47.7780012  30.5694997 131.4749988
  48.1950012  31.3734997 132.6879988  47.6130671  31.1776304 132.0721816
  56.1370012  22.8564997 132.9309988  56.1860012  23.4664997 133.6659988
  56.5620012  23.3174997 132.2079988  56.2011746  23.0023796 132.9339175
  50.6150012  25.6494997 132.3969988  50.7570012  24.7034997 132.4179988
  50.5080012  25.8564997 131.4689988  50.6199919  25.5478246 132.2743408
  43.7690012  23.7504997 129.6699988  43.8130012  24.6104997 129.2509988
  43.3120012  23.1984997 129.0359988  43.7132240  23.7934422 129.5269864
  51.4920012  23.8814997 128.0709988  52.1380012  23.5524997 128.6949988
  52.0020012  24.3994997 127.4479988  51.6494299  23.9064450 128.0722731
  40.3900012  26.1474997 130.4319988  41.0430012  25.5974997 130.8639988
  40.4140012  25.8734997 129.5149988  40.4826683  26.0351466 130.3672123
  45.5460012  27.6974997 129.6469988  46.1620012  27.1714997 130.1569988
  44.9600012  27.0574997 129.2439988  45.5510810  27.5389208 129.6623173
  56.5280012  24.3344997 135.1659988  55.8400012  24.9924997 135.0709988
  56.5440012  24.1374997 136.1029988  56.4359540  24.3979819 135.2795990
  42.5800012  22.6684997 133.7439988  42.3610012  23.1984997 132.9779988
  41.9120012  22.8954997 134.3909988  42.4597600  22.7716906 133.7266379
  49.9490012  32.1684997 127.2879988  49.6530012  31.8464997 126.4369988
  49.6240012  33.0684997 127.3289988  49.8646371  32.2460215 127.1771801
  45.1490012  30.3444997 134.0309988  44.4090012  30.9424997 134.1349988
  45.8630012  30.8984997 133.7159988  45.1442237  30.5012831 134.0026465
  53.2560012  23.1724997 130.0509988  53.0400012  22.4064997 130.5839988
  53.9110012  23.6444997 130.5639988  53.3150632  23.1315889 130.1932861
  42.1730012  24.5604997 131.6959988  42.7870012  25.1934997 132.0689988
  42.6850012  24.0884997 131.0399988  42.3261981  24.5832267 131.6582908
  43.5560012  32.3084997 134.8179988  43.5510012  33.1884997 134.4399988
  42.7030012  32.2254997 135.2429988  43.4399464  32.4176117 134.8237907
  39.6770012  31.9794997 125.5999988  39.4050012  32.2084997 124.7119988
  39.7230012  32.8174997 126.0609988  39.6459482  32.1241318 125.5406273
  53.3020012  33.6014997 132.3129988  52.3610012  33.6594997 132.4749988
  53.5790012  34.5074997 132.1759988  53.2104679  33.7319443 132.3166815
  53.6030012  21.8874997 133.7309988  52.8670012  22.4984997 133.6929988
  54.2860012  22.3024997 133.2039988  53.5946541  22.0271374 133.6545832
  46.6060012  19.9744997 131.1959988  46.4890012  19.0254997 131.1419988
  45.7510012  20.3064997 131.4699988  46.4744212  19.8895571 131.2256497
  51.5540012  35.3824997 128.9379988  51.9800012  34.6754997 128.4529988
  51.8710012  36.1834997 128.5219988  51.6551683  35.3941017 128.8153680
  52.7140012  33.2834997 127.4469988  52.4560012  32.5934997 126.8359988
  52.7850012  32.8404997 128.2929988  52.6882856  33.1292124 127.4776885
  54.4000012  31.8494997 135.9239988  54.5400012  31.2584997 135.1849988
  54.5670012  32.7224997 135.5679988  54.4417411  31.8865428 135.7746894
  48.8730012  28.8114997 125.6969988  48.1610012  29.3464997 125.3449988
  49.5640012  28.8674997 125.0369988  48.8690132  28.8922543 125.5596289
  48.9260012  27.2694997 122.7359988  49.6270012  27.2914997 123.3869988
  49.2290012  26.6414997 122.0789988  49.0628133  27.1877070 122.7363369
  56.2420012  28.1894997 133.9899988  55.5890012  28.8844997 134.0799988
  56.7070012  28.3994997 133.1809988  56.2155274  28.3130643 133.8928462
  52.2780012  29.0214997 126.6489988  51.5460012  29.2494997 127.2219988
  52.7260012  28.3074997 127.1029988  52.2382725  28.9562145 126.7888816
  52.1760012  27.1954997 135.7159988  52.2560012  27.9584997 136.2879988
  51.5740012  27.4744997 135.0259988  52.1055756  27.3377134 135.7010589
  43.9240012  29.6514997 128.5309988  43.5930012  29.2814997 127.7129988
  44.5120012  28.9814997 128.8779988  43.9581873  29.5101156 128.4658102
  45.2900012  33.0794997 131.2119988  45.1960012  32.5014997 130.4559988
  46.0200012  32.7084997 131.7089988  45.3757387  32.9501663 131.1755342
  44.2900012  28.4204997 132.1649988  44.8560012  28.5414997 131.4019988
  44.6090012  29.0574997 132.8029988  44.4105474  28.5232219 132.1469862
  50.5990012  33.9234997 132.8989988  50.3590012  34.5854997 133.5469988
  50.4010012  33.0894997 133.3239988  50.5393808  33.9013134 133.0451524
  45.1700012  32.8194997 136.8819988  44.8590012  33.6014997 137.3369988
  44.5200012  32.6664997 136.1959988  45.0395558  32.9059105 136.8515871
  51.1490012  28.1834997 124.3339988  51.7290012  28.3334997 125.0809988
  51.5630012  28.6544997 123.6099988  51.2842997  28.2676578 124.3384058
  42.0900012  29.0174997 136.1099988  42.1610012  29.6684997 136.8089988
  41.2000012  29.1204997 135.7749988  41.9793005  29.1205427 136.1603495
  48.8760012  34.9204997 127.7689988  49.3500012  35.2154997 128.5459988
  48.3130012  35.6584997 127.5359988  48.8648184  35.0607247 127.8439628
  43.4100012  34.8914997 137.6449988  43.4170012  34.7554997 136.6979988
  42.4940012  34.7734997 137.8969988  43.2871714  34.8569430 137.5494666
  54.8480012  19.9334997 124.1469988  53.9480012  20.0724997 124.4419988
  55.1000012  20.7644997 123.7449988  54.7588702  20.0649074 124.1330205
  42.9140012  28.7214997 126.1199988  42.6220012  29.4894997 125.6299988
  42.2400012  28.0614997 125.9579988  42.7828111  28.7375587 126.0308978
  56.0370012  34.2994997 122.5229988  56.1110012  35.2384997 122.6939988
  56.9430012  33.9944997 122.4669988  56.1695100  34.3866722 122.5388119
  39.0070012  31.0844997 134.9349988  38.5060012  31.0564997 134.1199988
  39.0120012  30.1784997 135.2449988  38.9390944  30.9582396 134.8653226
  38.7570012  33.8644997 131.8189988  39.7030012  33.7204997 131.7999988
  38.6450012  34.6484997 132.3559988  38.8712727  33.9508046 131.8890072
  56.9550012  34.5304997 137.5019988  56.9060012  33.5754997 137.4649988
  56.1280012  34.7984997 137.9029988  56.8364940  34.4358998 137.5511375
  47.9340012  34.1044997 136.3779988  48.0210012  34.9304997 136.8529988
  47.0700012  33.7744997 136.6269988  47.8291964  34.1729878 136.4766549
  48.3480012  37.8764997 126.1839988  48.2730012  37.7554997 125.2369988
  48.3810012  38.8264997 126.3019988  48.3422068  37.9882646 126.0704967
  42.0010012  36.6654997 127.9649988  42.1540012  36.3174997 128.8429988
  41.1510012  36.3094997 127.7099988  41.9069166  36.5696216 128.0508079
  51.4500012  37.0304997 123.1859988  51.8250012  36.2864997 122.7149988
  51.4540012  36.7604997 124.1049988  51.5019125  36.8920986 123.2456483
  51.1190012  36.9564997 125.9349988  50.1830012  37.0564997 126.1139988
  51.3990012  36.2474997 126.5139988  51.0289553  36.8743406 126.0377087
  54.1070012  26.0234997 137.9819988  53.7000012  26.5044997 137.2609988
  54.1480012  25.1184997 137.6739988  54.0568437  25.9669374 137.8416683
  41.2560012  32.4074997 135.9789988  41.4720012  32.0464997 136.8379988
  40.4010012  32.0334997 135.7689988  41.1699292  32.3074111 136.0683386
  43.8750012  20.8774997 131.9739988  43.0130012  20.7904997 131.5659988
  43.8520012  21.7334997 132.4019988  43.7540409  20.9812883 131.9760589
  48.5380012  20.5994997 135.3489988  48.9580012  20.1844997 136.1019988
  47.6050012  20.4214997 135.4659988  48.4693644  20.5185900 135.4679539
  51.8640012  24.3554997 136.2019988  51.3500012  24.2294997 136.9999988
  51.7090012  25.2674997 135.9579988  51.7726852  24.4616132 136.2782158
  52.6270012  29.2164997 121.9639988  52.6690012  28.9934997 121.0339988
  53.4760012  29.6154997 122.1529988  52.7475280  29.2399438 121.8623554
  48.1990012  23.0924997 122.6339988  47.9460012  23.1114997 123.5569988
  47.9430012  22.2204997 122.3319988  48.1297481  22.9772558 122.7196175
  43.9660012  25.8434997 133.0689988  43.3240012  25.8024997 133.7779988
  44.0030012  26.7694997 132.8309988  43.8830664  25.9631430 133.1339219
  43.9630012  26.0644997 127.9809988  43.0700012  25.7234997 127.9219988
  44.4130012  25.6874997 127.2249988  43.9018130  25.9669631 127.8707702
  49.4980012  26.4804997 126.7979988  49.0890012  27.2954997 126.5069988
  50.2190012  26.3404997 126.1839988  49.5394537  26.5732018 126.6751342
  48.6000012  26.6554997 138.2859988  48.0380012  25.9514997 138.6069988
  49.4270012  26.5354997 138.7539988  48.6347095  26.5427883 138.3932330
  50.5030012  25.9264997 129.6119988  50.3080012  26.5314997 128.8969988
  50.6840012  25.0924997 129.1779988  50.5007614  25.8966300 129.4554405
  41.7160012  26.1634997 134.9359988  41.6780012  26.5634997 135.8049988
  41.2250012  25.3464997 135.0269988  41.6444684  26.1078069 135.0671059
  45.0820012  23.5374997 121.7349988  44.6510012  23.0924997 122.4649988
  44.3640012  23.9094997 121.2229988  44.9259438  23.5268940 121.7656799
  38.3240012  23.2794997 128.7869988  38.9550012  23.2504997 129.5059988
  38.7730012  22.8544997 128.0559988  38.4710918  23.2180836 128.7866441
  39.5980012  24.0254997 124.2109988  40.0720012  24.6164997 123.6259988
  38.8810012  24.5564997 124.5579988  39.5659341  24.1780867 124.1778836
  49.7670012  27.5644997 134.2829988  50.0900012  26.9334997 133.6399988
  49.3270012  27.0294997 134.9439988  49.7517484  27.4058387 134.2843198
  46.5440012  23.4914997 129.0669988  45.6330012  23.5484997 129.3559988
  47.0500012  23.4314997 129.8779988  46.4876899  23.4911941 129.2161184
  41.3730012  25.1204997 127.8939988  40.4830012  25.2204997 127.5539988
  41.6690012  24.2784997 127.5479988  41.2912823  25.0203545 127.8007213
  45.0260012  25.1204997 125.5509988  45.9570012  25.2494997 125.7289988
  44.8110012  25.7904997 124.9009988  45.1244247  25.2286565 125.4875747
  50.9490012  22.7264997 132.3319988  50.2730012  22.8574997 132.9959988
  50.4640012  22.5714997 131.5209988  50.7907146  22.7235157 132.3134469
  43.7000012  26.3154997 123.1169988  43.1570012  25.9354997 122.4259988
  44.5330012  26.5094997 122.6889988  43.7383631  26.2897125 122.9644501
  54.2370012  38.3984997 138.6079988  54.4370012  38.8224997 137.7739988
  54.8920012  38.7414997 139.2149988  54.3530072  38.5029857 138.5758592
  41.8350012  30.8724997 138.2159988  42.5670012  31.1264997 138.7779988
  41.0550012  31.0764997 138.7319988  41.8297073  30.9348160 138.3626151
  47.8640012  26.2794997 130.9539988  48.4290012  25.7324997 130.4069988
  47.7170012  25.7574997 131.7429988  47.9213380  26.1342259 130.9858695
  42.8660012  22.4154997 127.3729988  42.5490012  21.5134997 127.3369988
  43.6480012  22.4174997 126.8199988  42.9282408  22.2922474 127.2933569
  46.4910012  24.6674997 133.3679988  45.6550012  25.1214997 133.4789988
  47.0150012  24.9434997 134.1199988  46.4475416  24.7668660 133.4848119
  47.0350012  30.8804997 125.0529988  46.2900012  30.3734997 124.7309988
  46.9010012  30.9294997 125.9999988  46.9148776  30.8176940 125.1368647
  54.1850012  30.0134997 133.8399988  54.8270012  30.4704997 133.2959988
  53.3550012  30.1264997 133.3769988  54.1605963  30.0912704 133.7030177
  50.9330012  23.6944997 123.2519988  49.9940012  23.8064997 123.1009988
  51.2300012  24.5514997 123.5589988  50.8447583  23.8255981 123.2728337
  48.5540012  31.0644997 136.2899988  48.2090012  30.6834997 137.0969988
  48.3540012  31.9984997 136.3609988  48.4797527  31.1385135 136.4100689
  51.6510012  25.5614997 124.9129988  52.5430012  25.4244997 125.2319988
  51.7080012  26.3524997 124.3759988  51.7806504  25.6496052 124.8840818
  42.1600012  30.1754997 130.8229988  42.9050012  30.1734997 130.2219988
  42.2380012  29.3524997 131.3039988  42.2724995  30.0638887 130.8058282
  49.1610012  32.3394997 124.0789988  48.8650012  33.1654997 124.4599988
  48.4580012  31.7194997 124.2749988  49.0254914  32.3688199 124.1576443
  39.1680012  28.6364997 136.1379988  39.3910012  28.2184997 136.9699988
  38.5660012  28.0234997 135.7149988  39.1171759  28.4964668 136.1947022
  46.1840012  28.1534997 138.3509988  45.8880012  27.9874997 137.4559988
  47.1160012  27.9334997 138.3399988  46.2694166  28.1010640 138.2270536
  50.8050012  33.5264997 136.2409988  49.9040012  33.7094997 135.9729988
  50.8390012  33.7854997 137.1609988  50.6863139  33.5865849 136.3288099
  56.5360012  25.7714997 124.6079988  55.9820012  25.3754997 123.9359988
  56.6360012  26.6814997 124.3299988  56.4737059  25.8403586 124.4784401
  56.4990012  31.5714997 137.4449988  55.6480012  31.8094997 137.0779988
  57.0900012  31.5544997 136.6919988  56.4622487  31.6018258 137.2928893
  54.8310012  34.5574997 125.0729988  54.4580012  33.7314997 125.3819988
  55.1090012  34.3744997 124.1749988  54.8175222  34.4197430 124.9939473
  51.9920012  29.3654997 132.0939988  51.0630012  29.1334997 132.0669988
  52.4430012  28.5884997 131.7639988  51.9259216  29.2287238 132.0456917
  44.5350012  33.6934997 128.2269988  45.0620012  34.4664997 128.0269988
  43.6550012  33.9184997 127.9249988  44.4882031  33.8297545 128.1587912
  40.2900012  28.5554997 122.8139988  40.9060012  29.1824997 123.1939988
  39.4280012  28.8714997 123.0859988  40.2577698  28.6839430 122.9027183
  45.9620012  31.3564997 127.8029988  45.7210012  32.2814997 127.8449988
  45.2210012  30.8974997 128.1999988  45.8289225  31.4210933 127.8623742
  46.4770012  35.5054997 134.1189988  46.8390012  36.3604997 133.8849988
  47.0080012  35.2134997 134.8589988  46.5984473  35.5831060 134.1870855
  44.6450012  36.3784997 127.3489988  43.6950012  36.4834997 127.3999988
  44.9970012  37.1984997 127.6929988  44.5624195  36.5038800 127.4025502
  50.0210012  31.6044997 133.8189988  49.5950012  31.3774997 134.6459988
  50.6010012  30.8664997 133.6369988  50.0411868  31.4735299 133.9075830
  52.2240012  32.5334997 122.8929988  52.5770012  32.1534997 123.6969988
  51.2750012  32.4404997 122.9799988  52.1440918  32.4688956 123.0148532
  52.6790012  36.1564997 136.2889988  52.0780012  35.6014997 135.7929988
  52.9610012  36.8234997 135.6619988  52.6348804  36.1706625 136.1364849
  56.7270012  37.0134997 123.0939988  57.4710012  37.5994997 122.9539988
  56.0330012  37.5814997 123.4269988  56.7349899  37.1705798 123.1198778
  40.8020012  23.3894997 135.6959988  39.9090012  23.7284997 135.6279988
  40.7030012  22.5344997 136.1139988  40.6664164  23.3202588 135.7432235
  53.0900012  31.2064997 125.1199988  52.8120012  30.4784997 125.6759988
  54.0170012  31.3254997 125.3249988  53.1773124  31.1228802 125.2238845
  40.4530012  35.1944997 134.1309988  40.6700012  34.2624997 134.0999988
  40.6990012  35.4684997 135.0139988  40.5159549  35.1040636 134.2461763
  46.3150012  33.6454997 121.3399988  46.5540012  32.8974997 120.7929988
  46.0460012  33.2574997 122.1729988  46.3113675  33.4906638 121.3776865
  45.2520012  33.2154997 123.7959988  45.3980012  32.6954997 124.5859988
  45.2490012  34.1224997 124.1029988  45.2715792  33.2668842 123.9456117
  41.7050012  30.4684997 124.3069988  41.0190012  30.8204997 124.8739988
  42.2270012  31.2314997 124.0599988  41.6816852  30.6198578 124.3512118
  49.5360012  23.1304997 134.5859988  50.2350012  23.2044997 135.2359988
  49.1550012  22.2664997 134.7399988  49.5801767  23.0237624 134.6958322
  50.3210012  22.7824997 125.6829988  50.5410012  23.2544997 124.8799988
  50.8790012  23.1774997 126.3529988  50.4264968  22.9004285 125.6637331
  47.9890012  34.9134997 124.5459988  47.1730012  35.4104997 124.5979988
  48.5190012  35.3884997 123.9059988  47.9489161  35.0457722 124.4665956
  47.5210012  24.5104997 126.5179988  48.3330012  25.0154997 126.5639988
  47.2760012  24.3654997 127.4319988  47.5990520  24.5600375 126.6478517
  48.0560012  25.4964997 135.7019988  48.1750012  26.0704997 136.4599988
  48.7120012  24.8084997 135.8169988  48.1609025  25.4819858 135.8211321
  48.4040012  21.5914997 127.4559988  48.0580012  22.2094997 128.0999988
  49.0630012  22.0924997 126.9739988  48.4456968  21.7436278 127.4789383
  45.3280012  35.9574997 124.5269988  45.4880012  36.7564997 124.0269988
  45.1300012  36.2634997 125.4119988  45.3231637  36.1084020 124.5781144
  44.0620012  22.6544997 124.1429988  43.9790012  23.5434997 124.4899988
  44.9520012  22.3894997 124.3749988  44.1709469  22.7401430 124.2217626
  54.2610012  23.4034997 136.5369988  53.3440012  23.6664997 136.4499988
  54.5960012  23.4004997 135.6409988  54.1808613  23.4390761 136.4038837
  52.8630012  27.1544997 130.6329988  52.0650012  26.7394997 130.3049988
  53.3080012  26.4634997 131.1239988  52.8139885  27.0043543 130.6544889
  42.3210012  33.0824997 123.2039988  42.9130012  33.7814997 123.4799988
  42.7800012  32.6494997 122.4839988  42.4641142  33.1197049 123.1444830
  40.6370012  25.7464997 122.3199988  40.5920012  26.6854997 122.4979988
  39.7490012  25.5104997 122.0499988  40.5108574  25.8431892 122.3078912
  53.9490012  36.4104997 132.2559988  53.7940012  37.0884997 131.5979988
  54.8820012  36.4824997 132.4589988  54.0538657  36.5129546 132.1934360
  41.4450012  20.5284997 130.9929988  41.2160012  20.5874997 130.0649988
  41.0020012  19.7364997 131.2989988  41.3538530  20.4295753 130.9074786
  40.3750012  34.4684997 127.1529988  39.5430012  34.9414997 127.1799988
  40.9210012  34.9784997 126.5549988  40.3350352  34.6021332 127.0758463
  39.6630012  37.0814997 138.4829988  40.2040012  36.8644997 139.2429988
  39.1820012  36.2754997 138.2929988  39.6719951  36.9429270 138.5612576
  44.2610012  36.0004997 140.1029988  45.0280012  35.5414997 140.4439988
  44.2390012  35.7744997 139.1739988  44.3631275  35.9070186 140.0240101
  48.3530012  35.5084997 121.4789988  47.7090012  34.8774997 121.7999988
  49.1150012  34.9774997 121.2469988  48.3678077  35.3502920 121.4916011
  50.8380012  34.3804997 138.8329988  50.4870012  33.5244997 139.0759988
  51.5640012  34.5234997 139.4399988  50.8880769  34.2825636 138.9483619
  52.9570012  35.3254997 121.7119988  53.2400012  34.5314997 122.1649988
  53.6970012  35.5584997 121.1519988  53.0958006  35.2483376 121.6982715
  39.5700012  30.8914997 139.4369988  39.7140012  29.9894997 139.1509988
  38.7980012  31.1774997 138.9499988  39.4852753  30.8066816 139.3319505
  43.9120012  31.2354997 121.5699988  43.9760012  30.4414997 122.1009988
  44.5650012  31.1164997 120.8799988  44.0090241  31.1107148 121.5494317
  46.2260012  30.8614997 138.8699988  45.8970012  31.1324997 138.0129988
  46.3780012  29.9204997 138.7829988  46.2014809  30.7713862 138.7408244
  49.2640012  32.2824997 121.3059988  48.9950012  32.4624997 122.2069988
  49.0580012  31.3564997 121.1739988  49.1993427  32.1820261 121.4115073
  51.9600012  30.7774997 136.2529988  52.7060012  31.3654997 136.1339988
  51.2030012  31.3594997 136.3169988  51.9597820  30.9367143 136.2453590
  40.4030012  28.0914997 138.8569988  40.8110012  27.2344997 138.7359988
  40.1430012  28.1064997 139.7779988  40.4237568  27.9760807 138.9649588
  45.0610012  29.2074997 123.8759988  44.6010012  28.7234997 124.5619988
  45.3160012  28.5394997 123.2399988  45.0324902  29.0508731 123.8839334
  44.3500012  27.1004997 136.2319988  43.7320012  27.7754997 136.5119988
  44.6940012  27.4214997 135.3979988  44.3119132  27.2362411 136.1576262
  46.1320012  27.4504997 122.1379988  45.9520012  27.2964997 121.2109988
  47.0820012  27.5584997 122.1829988  46.2357776  27.4440175 122.0171843
  49.3700012  29.5724997 139.5089988  50.3230012  29.6554997 139.4819988
  49.2090012  28.8604997 140.1289988  49.4786426  29.4876746 139.5890579
  55.5220012  29.8054997 121.5839988  55.2480012  29.3804997 120.7709988
  55.5610012  30.7364997 121.3669988  55.4897699  29.8732484 121.4433610
  44.6890012  24.4554997 137.3139988  44.8390012  23.7264997 136.7119988
  44.6920012  25.2324997 136.7549988  44.7099302  24.4607851 137.1560692
  45.1020012  22.8254997 134.8069988  45.6380012  23.2764997 134.1549988
  44.2500012  22.7174997 134.3839988  45.0602178  22.8726390 134.6605756
  46.6840012  28.2644997 135.0459988  47.4340012  28.1084997 134.4729988
  46.3450012  29.1164997 134.7709988  46.7408921  28.3582968 134.9303561
  51.0990012  26.0794997 140.0749988  51.2920012  25.1484997 139.9629988
  51.9570012  26.5044997 140.0639988  51.2412934  26.0096531 140.0582031
  52.4160012  28.8684997 138.1519988  52.1350012  29.5774997 137.5739988
  53.3590012  28.7954997 138.0009988  52.5049291  28.9556711 138.0524967
  43.1680012  25.6534997 139.2259988  42.4010012  25.1214997 139.0149988
  43.8470012  25.3434997 138.6259988  43.1547877  25.5388300 139.1160716
  45.9080012  20.2814997 135.2379988  45.8090012  21.2284997 135.1329988
  45.1650012  19.9094997 134.7619988  45.7941184  20.3605863 135.1593621
  47.1720012  24.6034997 138.8019988  46.9360012  24.3834997 139.7029988
  46.3880012  24.3964997 138.2919988  47.0338504  24.5454586 138.8563431
  49.8870012  23.7304997 137.8769988  48.9400012  23.7624997 138.0099988
  50.2000012  23.1054997 138.5309988  49.7996707  23.6503998 137.9836060
  51.5210012  22.3644997 139.8829988  51.4250012  21.4124997 139.8769988
  51.2000012  22.6334997 140.7429988  51.4644070  22.2704035 139.9985441
  41.3480012  23.5744997 138.9299988  41.5600012  22.8674997 138.3199988
  41.2370012  23.1364997 139.7739988  41.3619721  23.4187084 138.9606843
  46.1290012  19.5754997 137.9089988  46.8410012  18.9354997 137.8949988
  46.0280012  19.8424997 136.9959988  46.2128066  19.5240079 137.7835677
  46.4830012  21.2584997 139.9629988  46.3510012  20.7824997 139.1429988
  45.8840012  22.0024997 139.9079988  46.3839071  21.2939618 139.8432886
  46.0290012  38.1414997 123.1389988  46.9620012  38.2994997 123.2829988
  45.7650012  38.8164997 122.5149988  46.1209888  38.2544510 123.0742842
  39.5980012  32.7774997 122.6219988  40.5120012  32.8564997 122.8959988
  39.6050012  32.0904997 121.9559988  39.7241131  32.6953961 122.5694393
  38.2470012  38.1704997 127.6999988  37.6000012  37.7084997 127.1669988
  38.6010012  37.4984997 128.2819988  38.2063849  38.0164723 127.7057959
  39.1170012  36.2514997 129.5039988  38.7820012  35.3714997 129.6759988
  39.3390012  36.5964997 130.3689988  39.1011783  36.1777500 129.6444208
  56.6650012  37.0604997 132.4849988  56.6440012  37.2454997 133.4239988
  57.3560012  37.6294997 132.1439988  56.7554618  37.1626606 132.5673864
  56.2290012  36.6284997 135.4069988  55.7410012  35.8924997 135.0349988
  56.7780012  36.2344997 136.0849988  56.2364820  36.4745889 135.4477813
  54.6790012  32.4174997 140.0449988  53.8130012  32.3124997 140.4389988
  55.0560012  33.1764997 140.4909988  54.6113308  32.5056900 140.1592393
  55.9800012  30.6744997 125.5589988  56.8300012  31.0954997 125.6859988
  55.9860012  29.9344997 126.1659988  56.0971372  30.6320803 125.6584344
  56.3750012  28.7274997 127.3819988  55.6480012  28.2484997 127.7799988
  56.9560012  28.9334997 128.1149988  56.3540473  28.6898103 127.5354528
  56.1340012  31.5124997 132.3299988  56.9670012  31.1344997 132.0499988
  56.2460012  32.4554997 132.2109988  56.2632647  31.5882218 132.2755487
  54.6200012  34.3904997 134.6369988  53.9730012  34.7154997 135.2629988
  54.1030012  33.9504997 133.9629988  54.4614029  34.3755004 134.6315827
  56.6430012  28.6284997 123.7739988  56.1210012  28.9854997 123.0549988
  56.6100012  29.3034997 124.4519988  56.5671634  28.7685413 123.7673145
  54.9920012  25.8684997 122.3239988  55.0880012  26.5354997 121.6439988
  54.8520012  25.0524997 121.8429988  54.9862272  25.8495655 122.1658347
  54.1610012  27.2484997 127.9449988  54.0110012  26.3034997 127.9249988
  53.8080012  27.5294997 128.7889988  54.0927448  27.1571481 128.0563705
  39.1970012  29.3264997 131.9559988  39.3810012  29.2444997 131.0199988
  40.0460012  29.2024997 132.3789988  39.3370151  29.2985073 131.8851451
  55.0180012  29.2184997 137.5839988  55.6010012  28.4844997 137.7759988
  55.5820012  29.9904997 137.6309988  55.1739769  29.2224227 137.6166159
  56.5140012  27.1214997 138.2689988  55.6510012  26.7424997 138.1029988
  57.1190012  26.3824997 138.1939988  56.4776119  26.9698268 138.2361528
  54.2390012  23.2764997 121.4419988  54.8500012  22.9054997 122.0789988
  53.4030012  22.8554997 121.6379988  54.2095032  23.1687554 121.5557035
  53.8720012  24.8314997 126.4079988  54.1520012  23.9244997 126.5319988
  54.6310012  25.2654997 126.0189988  54.0129277  24.7660942 126.3723682
  54.4840012  25.4124997 131.8439988  55.4170012  25.6244997 131.8089988
  54.2490012  25.5144997 132.7659988  54.5799244  25.4553100 131.9638892
  54.5130012  26.1494997 134.6199988  53.6700012  26.4174997 134.9859988
  54.9550012  26.9714997 134.4089988  54.4574158  26.2973291 134.6415491
  38.7940012  24.5974997 138.0969988  39.7140012  24.4754997 138.3329988
  38.3450012  23.8474997 138.4859988  38.8591580  24.4793727 138.1819006
  56.7960012  20.1294997 139.9729988  57.1460012  19.4754997 139.3679988
  56.9430012  20.9664997 139.5329988  56.8637887  20.1531548 139.8306858
  54.4850012  22.0944997 126.4559988  54.6680012  21.6454997 127.2819988
  53.8860012  21.5094997 125.9929988  54.4290202  21.9539975 126.5063275
  40.0150012  22.9094997 130.9879988  40.4610012  22.1174997 131.2899988
  40.4820012  23.6254997 131.4179988  40.1390831  22.8980685 131.0874006
  38.3190012  25.9084997 132.0569988  38.8110012  25.6874997 131.2659988
  38.6820012  26.7494997 132.3379988  38.4353126  25.9918357 131.9867531
  56.3160012  22.2384997 138.3219988  55.3980012  22.5094997 138.2869988
  56.4390012  21.7034997 137.5379988  56.2069729  22.2032508 138.2111923
  56.3520012  22.1614997 122.9839988  56.7640012  21.4404997 122.5089988
  57.0340012  22.8314997 123.0429988  56.5005885  22.1532368 122.9268915
  38.6330012  22.1664997 126.1109988  37.7080012  22.3754997 125.9819988
  39.0870012  22.6504997 125.4209988  38.5677292  22.2605343 126.0000720
  53.4040012  37.1504997 128.0569988  54.0560012  36.8034997 127.4489988
  53.9140012  37.6394997 128.7029988  53.5622637  37.1690597 128.0610236
  38.5970012  20.9044997 134.4549988  37.9320012  20.6584997 135.0989988
  38.1540012  21.5264997 133.8779988  38.4461318  20.9549410 134.4650898
  40.7890012  34.0794997 138.5999988  39.9680012  34.2544997 138.1389988
  40.5360012  34.0064997 139.5199988  40.6425585  34.0935544 138.6613561
  43.7430012  35.0544997 134.8579988  43.3180012  35.8634997 134.5759988
  44.6470012  35.1394997 134.5559988  43.8069975  35.1769300 134.7784816
  48.0540012  36.4534997 137.8179988  48.2390012  36.1194997 138.6959988
  48.9000012  36.7624997 137.4959988  48.1937539  36.4496047 137.8945605
  50.3990012  37.7394997 137.0619988  51.0760012  37.1064997 136.8219988
  50.7210012  38.1404997 137.8689988  50.5351637  37.7071154 137.1382793
  55.3160012  20.3284997 136.1409988  54.5040012  20.6534997 135.7539988
  55.5490012  19.5684997 135.6079988  55.2362203  20.2702758 136.0158880
  41.1450012  38.3104997 134.9059988  40.4240012  38.7504997 134.4549988
  40.7790012  38.0594997 135.7539988  40.9969651  38.3367242 134.9589640
  43.6120012  37.9104997 133.9359988  42.7470012  37.9824997 134.3399988
  43.5570012  38.4574997 133.1519988  43.4862085  37.9942685 133.8853362
  48.3220012  37.7984997 133.1109988  47.8660012  38.3274997 132.4569988
  48.4850012  38.4014997 133.8359988  48.2816068  37.9524607 133.1194838
  50.6500012  36.6764997 134.0559988  49.7450012  36.8414997 133.7899988
  51.0790012  37.5294997 133.9909988  50.5841324  36.8144339 134.0107976
  53.2540012  38.2464997 134.3509988  53.0720012  39.1624997 134.1409988
  53.4310012  37.8364997 133.5049988  53.2530210  38.3164822 134.2077885
  40.5590012  36.9334997 131.8159988  40.5410012  36.5084997 132.6729988
  41.3640012  36.6154997 131.4069988  40.6653529  36.8323013 131.8780946
  42.7010012  35.6434997 130.4709988  42.4820012  34.7274997 130.6409988
  43.5250012  35.7834997 130.9369988  42.7824420  35.5370520 130.5572774
  45.2380012  36.1134997 131.3199988  45.4510012  35.2254997 131.0329988
  45.3020012  36.0794997 132.2739988  45.2758232  35.9873102 131.4097397
  48.7460012  21.7774997 130.4639988  48.0720012  21.1484997 130.7199988
  49.3100012  21.2934997 129.8609988  48.7299230  21.6258744 130.4175340
  53.8890012  19.8854997 130.5769988  54.4930012  20.4324997 130.0749988
  53.0190012  20.2044997 130.3359988  53.8541208  20.0035137 130.4756886
  55.6160012  21.0234997 128.9099988  56.2280012  20.5094997 128.3829988
  55.9980012  21.9014997 128.9329988  55.7513371  21.0717866 128.8410041
  41.0730012  20.4114997 128.2859988  40.2960012  20.1774997 127.7789988
  41.6030012  19.6144997 128.2949988  41.0382330  20.2716988 128.2177742
  39.9090012  20.2094997 124.0899988  40.3480012  20.8204997 123.4979988
  39.2760012  20.7474997 124.5639988  39.8834514  20.3659257 124.0730930
  45.6520012  20.3384997 128.0999988  46.5270012  20.7264997 128.0699988
  45.5160012  20.1234997 129.0219988  45.7533695  20.3625184 128.2206440
  51.2090012  20.3684997 129.7489988  51.2850012  20.4634997 128.7989988
  50.9340012  19.4604997 129.8779988  51.1822321  20.2587867 129.6365079
  52.5620012  20.3944997 125.4409988  51.8600012  21.0094997 125.2309988
  52.1180012  19.5564997 125.5719988  52.4056450  20.3655639 125.4299000
  39.8100012  36.1574997 124.9869988  39.1250012  36.1194997 124.3199988
  39.8140012  37.0704997 125.2759988  39.7166998  36.2756733 124.9346771
  41.7700012  22.1254997 122.5319988  42.2620012  21.4954997 122.0049988
  42.3940012  22.4214997 123.1949988  41.9215688  22.0793804 122.5495482
  46.7960012  22.4184997 124.9889988  46.9740012  21.7724997 125.6719988
  46.7430012  23.2524997 125.4559988  46.8131999  22.4428009 125.1455917
  48.6750012  37.3674997 123.3849988  49.5410012  37.7334997 123.2069988
  48.4280012  36.9274997 122.5709988  48.7602392  37.3581756 123.2506289
  55.3840012  36.9304997 126.0639988  55.1890012  36.1824997 125.4989988
  55.3450012  37.6884997 125.4809988  55.3520380  36.9306099 125.9078384
  41.0310012  20.9254997 137.8039988  40.6650012  20.1604997 138.2459988
  41.9440012  20.9544997 138.0899988  41.1042736  20.8245640 137.9032502
  43.0040012  20.2764997 139.3399988  43.9020012  20.0024997 139.1549988
  42.6170012  19.5334997 139.8039988  43.0746612  20.1385914 139.3773643
  41.6280012  37.0774997 122.0129988  41.3610012  37.3644997 122.8859988
  42.4000012  36.5314997 122.1649988  41.6957488  37.0430294 122.1531050
  51.4250012  19.6084997 139.5219988  51.5020012  19.1824997 140.3759988
  52.3190012  19.6224997 139.1789988  51.5563428  19.5520879 139.5925310
  54.6010012  35.6814997 138.2139988  53.8190012  35.4954997 137.6939988
  54.5290012  36.6104997 138.4319988  54.4842274  35.7816643 138.1723018
  69.0070012  29.5674997 128.2449988  69.0960012  30.5114997 128.1129988
  68.3690012  29.2924997 127.5869988  68.9329081  29.6594830 128.1379614
  67.9400012  28.8224997 131.6639988  67.9020012  28.1764997 132.3689988
  67.6180012  28.3564997 130.8929988  67.8912333  28.6709408 131.6562978
  60.3090012  28.4374997 133.2569988  60.3500012  27.8114997 133.9799988
  61.0120012  29.0614997 133.4389988  60.4096363  28.4361196 133.3806044
  71.6460012  31.7614997 129.9649988  71.2060012  31.0414997 130.4159988
  71.6330012  32.4824997 130.5949988  71.5840226  31.7603731 130.1118494
  61.2320012  32.8874997 131.7919988  60.8630012  32.0854997 131.4219988
  62.1730012  32.7184997 131.8379988  61.3087289  32.7550153 131.7476316
  57.8420012  26.5474997 127.1849988  57.3950012  27.3934997 127.1659988
  57.2810012  25.9674997 126.6689988  57.7049900  26.5849916 127.1126801
  58.5530012  28.7094997 129.3099988  58.7660012  27.9394997 129.8379988
  59.2910012  28.7984997 128.7069988  58.6819044  28.6161968 129.3007123
  68.7580012  36.8664997 130.1769988  69.3780012  36.1894997 129.9039988
  68.5500012  36.6484997 131.0859988  68.8146726  36.7444800 130.2624812
  66.3300012  31.2554997 132.0699988  66.6340012  30.5694997 131.4749988
  67.0510012  31.3734997 132.6879988  66.4690671  31.1776305 132.0721816
  74.9930012  22.8564997 132.9309988  75.0420012  23.4664997 133.6659988
  75.4180012  23.3174997 132.2079988  75.0571746  23.0023796 132.9339175
  69.4710012  25.6494997 132.3969988  69.6130012  24.7034997 132.4179988
  69.3640012  25.8564997 131.4689988  69.4759919  25.5478246 132.2743408
  62.6250012  23.7504997 129.6699988  62.6690012  24.6104997 129.2509988
  62.1680012  23.1984997 129.0359988  62.5692240  23.7934422 129.5269864
  70.3480012  23.8814997 128.0709988  70.9940012  23.5524997 128.6949988
  70.8580012  24.3994997 127.4479988  70.5054299  23.9064450 128.0722731
  59.2460012  26.1474997 130.4319988  59.8990012  25.5974997 130.8639988
  59.2700012  25.8734997 129.5149988  59.3386683  26.0351466 130.3672123
  64.4020012  27.6974997 129.6469988  65.0180012  27.1714997 130.1569988
  63.8160012  27.0574997 129.2439988  64.4070810  27.5389208 129.6623173
  75.3840012  24.3344997 135.1659988  74.6960012  24.9924997 135.0709988
  75.4000012  24.1374997 136.1029988  75.2919540  24.3979819 135.2795990
  61.4360012  22.6684997 133.7439988  61.2170012  23.1984997 132.9779988
  60.7680012  22.8954997 134.3909988  61.3157600  22.7716906 133.7266379
  68.8050012  32.1684997 127.2879988  68.5090012  31.8464997 126.4369988
  68.4800012  33.0684997 127.3289988  68.7206371  32.2460215 127.1771801
  64.0050012  30.3444997 134.0309988  63.2650012  30.9424997 134.1349988
  64.7190012  30.8984997 133.7159988  64.0002237  30.5012831 134.0026465
  72.1120012  23.1724997 130.0509988  71.8960012  22.4064997 130.5839988
  72.7670012  23.6444997 130.5639988  72.1710632  23.1315889 130.1932861
  61.0290012  24.5604997 131.6959988  61.6430012  25.1934997 132.0689988
  61.5410012  24.0884997 131.0399988  61.1821981  24.5832267 131.6582908
  62.4120012  32.3084997 134.8179988  62.4070012  33.1884997 134.4399988
  61.5590012  32.2254997 135.2429988  62.2959464  32.4176117 134.8237907
  58.5330012  31.9794997 125.5999988  58.2610012  32.2084997 124.7119988
  58.5790012  32.8174997 126.0609988  58.5019482  32.1241318 125.5406273
  72.1580012  33.6014997 132.3129988  71.2170012  33.6594997 132.4749988
  72.4350012  34.5074997 132.1759988  72.0664679  33.7319443 132.3166815
  72.4590012  21.8874997 133.7309988  71.7230012  22.4984997 133.6929988
  73.1420012  22.3024997 133.2039988  72.4506541  22.0271374 133.6545832
  65.4620012  19.9744997 131.1959988  65.3450012  19.0254997 131.1419988
  64.6070012  20.3064997 131.4699988  65.3304212  19.8895571 131.2256497
  70.4100012  35.3824997 128.9379988  70.8360012  34.6754997 128.4529988
  70.7270012  36.1834997 128.5219988  70.5111683  35.3941017 128.8153680
  71.5700012  33.2834997 127.4469988  71.3120012  32.5934997 126.8359988
  71.6410012  32.8404997 128.2929988  71.5442856  33.1292124 127.4776885
  73.2560012  31.8494997 135.9239988  73.3960012  31.2584997 135.1849988
  73.4230012  32.7224997 135.5679988  73.2977411  31.8865428 135.7746894
  67.7290012  28.8114997 125.6969988  67.0170012  29.3464997 125.3449988
  68.4200012  28.8674997 125.0369988  67.7250132  28.8922543 125.5596289
  67.7820012  27.2694997 122.7359988  68.4830012  27.2914997 123.3869988
  68.0850012  26.6414997 122.0789988  67.9188133  27.1877070 122.7363369
  75.0980012  28.1894997 133.9899988  74.4450012  28.8844997 134.0799988
  75.5630012  28.3994997 133.1809988  75.0715274  28.3130643 133.8928462
  71.1340012  29.0214997 126.6489988  70.4020012  29.2494997 127.2219988
  71.5820012  28.3074997 127.1029988  71.0942725  28.9562145 126.7888816
  71.0320012  27.1954997 135.7159988  71.1120012  27.9584997 136.2879988
  70.4300012  27.4744997 135.0259988  70.9615756  27.3377134 135.7010589
  62.7800012  29.6514997 128.5309988  62.4490012  29.2814997 127.7129988
  63.3680012  28.9814997 128.8779988  62.8141873  29.5101156 128.4658102
  64.1460012  33.0794997 131.2119988  64.0520012  32.5014997 130.4559988
  64.8760012  32.7084997 131.7089988  64.2317387  32.9501663 131.1755342
  63.1460012  28.4204997 132.1649988  63.7120012  28.5414997 131.4019988
  63.4650012  29.0574997 132.8029988  63.2665474  28.5232219 132.1469862
  69.4550012  33.9234997 132.8989988  69.2150012  34.5854997 133.5469988
  69.2570012  33.0894997 133.3239988  69.3953808  33.9013134 133.0451524
  64.0260012  32.8194997 136.8819988  63.7150012  33.6014997 137.3369988
  63.3760012  32.6664997 136.1959988  63.8955558  32.9059105 136.8515871
  70.0050012  28.1834997 124.3339988  70.5850012  28.3334997 125.0809988
  70.4190012  28.6544997 123.6099988  70.1402997  28.2676578 124.3384058
  60.9460012  29.0174997 136.1099988  61.0170012  29.6684997 136.8089988
  60.0560012  29.1204997 135.7749988  60.8353005  29.1205427 136.1603495
  67.7320012  34.9204997 127.7689988  68.2060012  35.2154997 128.5459988
  67.1690012  35.6584997 127.5359988  67.7208184  35.0607247 127.8439628
  62.2660012  34.8914997 137.6449988  62.2730012  34.7554997 136.6979988
  61.3500012  34.7734997 137.8969988  62.1431714  34.8569430 137.5494666
  73.7040012  19.9334997 124.1469988  72.8040012  20.0724997 124.4419988
  73.9560012  20.7644997 123.7449988  73.6148702  20.0649074 124.1330205
  61.7700012  28.7214997 126.1199988  61.4780012  29.4894997 125.6299988
  61.0960012  28.0614997 125.9579988  61.6388111  28.7375587 126.0308978
  74.8930012  34.2994997 122.5229988  74.9670012  35.2384997 122.6939988
  75.7990012  33.9944997 122.4669988  75.0255100  34.3866722 122.5388119
  57.8630012  31.0844997 134.9349988  57.3620012  31.0564997 134.1199988
  57.8680012  30.1784997 135.2449988  57.7950944  30.9582396 134.8653226
  57.6130012  33.8644997 131.8189988  58.5590012  33.7204997 131.7999988
  57.5010012  34.6484997 132.3559988  57.7272727  33.9508046 131.8890072
  75.8110012  34.5304997 137.5019988  75.7620012  33.5754997 137.4649988
  74.9840012  34.7984997 137.9029988  75.6924940  34.4358998 137.5511375
  66.7900012  34.1044997 136.3779988  66.8770012  34.9304997 136.8529988
  65.9260012  33.7744997 136.6269988  66.6851964  34.1729878 136.4766549
  67.2040012  37.8764997 126.1839988  67.1290012  37.7554997 125.2369988
  67.2370012  38.8264997 126.3019988  67.1982068  37.9882646 126.0704967
  60.8570012  36.6654997 127.9649988  61.0100012  36.3174997 128.8429988
  60.0070012  36.3094997 127.7099988  60.7629166  36.5696216 128.0508079
  70.3060012  37.0304997 123.1859988  70.6810012  36.2864997 122.7149988
  70.3100012  36.7604997 124.1049988  70.3579125  36.8920986 123.2456483
  69.9750012  36.9564997 125.9349988  69.0390012  37.0564997 126.1139988
  70.2550012  36.2474997 126.5139988  69.8849553  36.8743406 126.0377087
  72.9630012  26.0234997 137.9819988  72.5560012  26.5044997 137.2609988
  73.0040012  25.1184997 137.6739988  72.9128437  25.9669374 137.8416683
  60.1120012  32.4074997 135.9789988  60.3280012  32.0464997 136.8379988
  59.2570012  32.0334997 135.7689988  60.0259292  32.3074111 136.0683386
  62.7310012  20.8774997 131.9739988  61.8690012  20.7904997 131.5659988
  62.7080012  21.7334997 132.4019988  62.6100409  20.9812883 131.9760589
  67.3940012  20.5994997 135.3489988  67.8140012  20.1844997 136.1019988
  66.4610012  20.4214997 135.4659988  67.3253644  20.5185900 135.4679539
  70.7200012  24.3554997 136.2019988  70.2060012  24.2294997 136.9999988
  70.5650012  25.2674997 135.9579988  70.6286852  24.4616132 136.2782158
  71.4830012  29.2164997 121.9639988  71.5250012  28.9934997 121.0339988
  72.3320012  29.6154997 122.1529988  71.6035280  29.2399438 121.8623554
  67.0550012  23.0924997 122.6339988  66.8020012  23.1114997 123.5569988
  66.7990012  22.2204997 122.3319988  66.9857481  22.9772558 122.7196175
  62.8220012  25.8434997 133.0689988  62.1800012  25.8024997 133.7779988
  62.8590012  26.7694997 132.8309988  62.7390664  25.9631430 133.1339219
  62.8190012  26.0644997 127.9809988  61.9260012  25.7234997 127.9219988
  63.2690012  25.6874997 127.2249988  62.7578130  25.9669631 127.8707702
  68.3540012  26.4804997 126.7979988  67.9450012  27.2954997 126.5069988
  69.0750012  26.3404997 126.1839988  68.3954537  26.5732018 126.6751342
  67.4560012  26.6554997 138.2859988  66.8940012  25.9514997 138.6069988
  68.2830012  26.5354997 138.7539988  67.4907095  26.5427883 138.3932330
  69.3590012  25.9264997 129.6119988  69.1640012  26.5314997 128.8969988
  69.5400012  25.0924997 129.1779988  69.3567614  25.8966300 129.4554405
  60.5720012  26.1634997 134.9359988  60.5340012  26.5634997 135.8049988
  60.0810012  25.3464997 135.0269988  60.5004684  26.1078069 135.0671059
  63.9380012  23.5374997 121.7349988  63.5070012  23.0924997 122.4649988
  63.2200012  23.9094997 121.2229988  63.7819438  23.5268940 121.7656799
  57.1800012  23.2794997 128.7869988  57.8110012  23.2504997 129.5059988
  57.6290012  22.8544997 128.0559988  57.3270918  23.2180836 128.7866441
  58.4540012  24.0254997 124.2109988  58.9280012  24.6164997 123.6259988
  57.7370012  24.5564997 124.5579988  58.4219341  24.1780867 124.1778836
  68.6230012  27.5644997 134.2829988  68.9460012  26.9334997 133.6399988
  68.1830012  27.0294997 134.9439988  68.6077484  27.4058387 134.2843198
  65.4000012  23.4914997 129.0669988  64.4890012  23.5484997 129.3559988
  65.9060012  23.4314997 129.8779988  65.3436899  23.4911941 129.2161184
  60.2290012  25.1204997 127.8939988  59.3390012  25.2204997 127.5539988
  60.5250012  24.2784997 127.5479988  60.1472823  25.0203545 127.8007213
  63.8820012  25.1204997 125.5509988  64.8130012  25.2494997 125.7289988
  63.6670012  25.7904997 124.9009988  63.9804247  25.2286565 125.4875747
  69.8050012  22.7264997 132.3319988  69.1290012  22.8574997 132.9959988
  69.3200012  22.5714997 131.5209988  69.6467146  22.7235157 132.3134469
  62.5560012  26.3154997 123.1169988  62.0130012  25.9354997 122.4259988
  63.3890012  26.5094997 122.6889988  62.5943631  26.2897125 122.9644501
  73.0930012  38.3984997 138.6079988  73.2930012  38.8224997 137.7739988
  73.7480012  38.7414997 139.2149988  73.2090072  38.5029857 138.5758592
  60.6910012  30.8724997 138.2159988  61.4230012  31.1264997 138.7779988
  59.9110012  31.0764997 138.7319988  60.6857073  30.9348160 138.3626151
  66.7200012  26.2794997 130.9539988  67.2850012  25.7324997 130.4069988
  66.5730012  25.7574997 131.7429988  66.7773380  26.1342259 130.9858695
  61.7220012  22.4154997 127.3729988  61.4050012  21.5134997 127.3369988
  62.5040012  22.4174997 126.8199988  61.7842408  22.2922474 127.2933569
  65.3470012  24.6674997 133.3679988  64.5110012  25.1214997 133.4789988
  65.8710012  24.9434997 134.1199988  65.3035416  24.7668660 133.4848119
  65.8910012  30.8804997 125.0529988  65.1460012  30.3734997 124.7309988
  65.7570012  30.9294997 125.9999988  65.7708776  30.8176940 125.1368647
  73.0410012  30.0134997 133.8399988  73.6830012  30.4704997 133.2959988
  72.2110012  30.1264997 133.3769988  73.0165963  30.0912704 133.7030177
  69.7890012  23.6944997 123.2519988  68.8500012  23.8064997 123.1009988
  70.0860012  24.5514997 123.5589988  69.7007583  23.8255981 123.2728337
  67.4100012  31.0644997 136.2899988  67.0650012  30.6834997 137.0969988
  67.2100012  31.9984997 136.3609988  67.3357527  31.1385135 136.4100689
  70.5070012  25.5614997 124.9129988  71.3990012  25.4244997 125.2319988
  70.5640012  26.3524997 124.3759988  70.6366504  25.6496052 124.8840818
  61.0160012  30.1754997 130.8229988  61.7610012  30.1734997 130.2219988
  61.0940012  29.3524997 131.3039988  61.1284995  30.0638887 130.8058282
  68.0170012  32.3394997 124.0789988  67.7210012  33.1654997 124.4599988
  67.3140012  31.7194997 124.2749988  67.8814914  32.3688199 124.1576443
  58.0240012  28.6364997 136.1379988  58.2470012  28.2184997 136.9699988
  57.4220012  28.0234997 135.7149988  57.9731759  28.4964668 136.1947022
  65.0400012  28.1534997 138.3509988  64.7440012  27.9874997 137.4559988
  65.9720012  27.9334997 138.3399988  65.1254166  28.1010640 138.2270536
  69.6610012  33.5264997 136.2409988  68.7600012  33.7094997 135.9729988
  69.6950012  33.7854997 137.1609988  69.5423139  33.5865849 136.3288099
  75.3920012  25.7714997 124.6079988  74.8380012  25.3754997 123.9359988
  75.4920012  26.6814997 124.3299988  75.3297059  25.8403586 124.4784401
  75.3550012  31.5714997 137.4449988  74.5040012  31.8094997 137.0779988
  75.9460012  31.5544997 136.6919988  75.3182487  31.6018258 137.2928893
  73.6870012  34.5574997 125.0729988  73.3140012  33.7314997 125.3819988
  73.9650012  34.3744997 124.1749988  73.6735222  34.4197430 124.9939473
  70.8480012  29.3654997 132.0939988  69.9190012  29.1334997 132.0669988
  71.2990012  28.5884997 131.7639988  70.7819216  29.2287238 132.0456917
  63.3910012  33.6934997 128.2269988  63.9180012  34.4664997 128.0269988
  62.5110012  33.9184997 127.9249988  63.3442031  33.8297545 128.1587912
  59.1460012  28.5554997 122.8139988  59.7620012  29.1824997 123.1939988
  58.2840012  28.8714997 123.0859988  59.1137698  28.6839430 122.9027183
  64.8180012  31.3564997 127.8029988  64.5770012  32.2814997 127.8449988
  64.0770012  30.8974997 128.1999988  64.6849225  31.4210933 127.8623742
  65.3330012  35.5054997 134.1189988  65.6950012  36.3604997 133.8849988
  65.8640012  35.2134997 134.8589988  65.4544473  35.5831060 134.1870855
  63.5010012  36.3784997 127.3489988  62.5510012  36.4834997 127.3999988
  63.8530012  37.1984997 127.6929988  63.4184195  36.5038800 127.4025502
  68.8770012  31.6044997 133.8189988  68.4510012  31.3774997 134.6459988
  69.4570012  30.8664997 133.6369988  68.8971868  31.4735299 133.9075830
  71.0800012  32.5334997 122.8929988  71.4330012  32.1534997 123.6969988
  70.1310012  32.4404997 122.9799988  71.0000918  32.4688956 123.0148532
  71.5350012  36.1564997 136.2889988  70.9340012  35.6014997 135.7929988
  71.8170012  36.8234997 135.6619988  71.4908804  36.1706625 136.1364849
  75.5830012  37.0134997 123.0939988  76.3270012  37.5994997 122.9539988
  74.8890012  37.5814997 123.4269988  75.5909899  37.1705798 123.1198778
  59.6580012  23.3894997 135.6959988  58.7650012  23.7284997 135.6279988
  59.5590012  22.5344997 136.1139988  59.5224164  23.3202588 135.7432235
  71.9460012  31.2064997 125.1199988  71.6680012  30.4784997 125.6759988
  72.8730012  31.3254997 125.3249988  72.0333124  31.1228802 125.2238845
  59.3090012  35.1944997 134.1309988  59.5260012  34.2624997 134.0999988
  59.5550012  35.4684997 135.0139988  59.3719549  35.1040636 134.2461763
  65.1710012  33.6454997 121.3399988  65.4100012  32.8974997 120.7929988
  64.9020012  33.2574997 122.1729988  65.1673675  33.4906638 121.3776865
  64.1080012  33.2154997 123.7959988  64.2540012  32.6954997 124.5859988
  64.1050012  34.1224997 124.1029988  64.1275792  33.2668842 123.9456117
  60.5610012  30.4684997 124.3069988  59.8750012  30.8204997 124.8739988
  61.0830012  31.2314997 124.0599988  60.5376852  30.6198578 124.3512118
  68.3920012  23.1304997 134.5859988  69.0910012  23.2044997 135.2359988
  68.0110012  22.2664997 134.7399988  68.4361767  23.0237624 134.6958322
  69.1770012  22.7824997 125.6829988  69.3970012  23.2544997 124.8799988
  69.7350012  23.1774997 126.3529988  69.2824968  22.9004285 125.6637331
  66.8450012  34.9134997 124.5459988  66.0290012  35.4104997 124.5979988
  67.3750012  35.3884997 123.9059988  66.8049161  35.0457722 124.4665956
  66.3770012  24.5104997 126.5179988  67.1890012  25.0154997 126.5639988
  66.1320012  24.3654997 127.4319988  66.4550520  24.5600375 126.6478517
  66.9120012  25.4964997 135.7019988  67.0310012  26.0704997 136.4599988
  67.5680012  24.8084997 135.8169988  67.0169025  25.4819858 135.8211321
  67.2600012  21.5914997 127.4559988  66.9140012  22.2094997 128.0999988
  67.9190012  22.0924997 126.9739988  67.3016968  21.7436278 127.4789383
  64.1840012  35.9574997 124.5269988  64.3440012  36.7564997 124.0269988
  63.9860012  36.2634997 125.4119988  64.1791637  36.1084020 124.5781144
  62.9180012  22.6544997 124.1429988  62.8350012  23.5434997 124.4899988
  63.8080012  22.3894997 124.3749988  63.0269469  22.7401430 124.2217626
  73.1170012  23.4034997 136.5369988  72.2000012  23.6664997 136.4499988
  73.4520012  23.4004997 135.6409988  73.0368613  23.4390761 136.4038837
  71.7190012  27.1544997 130.6329988  70.9210012  26.7394997 130.3049988
  72.1640012  26.4634997 131.1239988  71.6699885  27.0043543 130.6544889
  61.1770012  33.0824997 123.2039988  61.7690012  33.7814997 123.4799988
  61.6360012  32.6494997 122.4839988  61.3201142  33.1197049 123.1444830
  59.4930012  25.7464997 122.3199988  59.4480012  26.6854997 122.4979988
  58.6050012  25.5104997 122.0499988  59.3668574  25.8431892 122.3078912
  72.8050012  36.4104997 132.2559988  72.6500012  37.0884997 131.5979988
  73.7380012  36.4824997 132.4589988  72.9098657  36.5129546 132.1934360
  60.3010012  20.5284997 130.9929988  60.0720012  20.5874997 130.0649988
  59.8580012  19.7364997 131.2989988  60.2098530  20.4295753 130.9074786
  59.2310012  34.4684997 127.1529988  58.3990012  34.9414997 127.1799988
  59.7770012  34.9784997 126.5549988  59.1910352  34.6021332 127.0758463
  58.5190012  37.0814997 138.4829988  59.0600012  36.8644997 139.2429988
  58.0380012  36.2754997 138.2929988  58.5279951  36.9429270 138.5612576
  63.1170012  36.0004997 140.1029988  63.8840012  35.5414997 140.4439988
  63.0950012  35.7744997 139.1739988  63.2191275  35.9070186 140.0240101
  67.2090012  35.5084997 121.4789988  66.5650012  34.8774997 121.7999988
  67.9710012  34.9774997 121.2469988  67.2238077  35.3502920 121.4916011
  69.6940012  34.3804997 138.8329988  69.3430012  33.5244997 139.0759988
  70.4200012  34.5234997 139.4399988  69.7440769  34.2825636 138.9483619
  71.8130012  35.3254997 121.7119988  72.0960012  34.5314997 122.1649988
  72.5530012  35.5584997 121.1519988  71.9518006  35.2483376 121.6982715
  58.4260012  30.8914997 139.4369988  58.5700012  29.9894997 139.1509988
  57.6540012  31.1774997 138.9499988  58.3412753  30.8066816 139.3319505
  62.7680012  31.2354997 121.5699988  62.8320012  30.4414997 122.1009988
  63.4210012  31.1164997 120.8799988  62.8650241  31.1107148 121.5494317
  65.0820012  30.8614997 138.8699988  64.7530012  31.1324997 138.0129988
  65.2340012  29.9204997 138.7829988  65.0574809  30.7713862 138.7408244
  68.1200012  32.2824997 121.3059988  67.8510012  32.4624997 122.2069988
  67.9140012  31.3564997 121.1739988  68.0553427  32.1820261 121.4115073
  70.8160012  30.7774997 136.2529988  71.5620012  31.3654997 136.1339988
  70.0590012  31.3594997 136.3169988  70.8157820  30.9367143 136.2453590
  59.2590012  28.0914997 138.8569988  59.6670012  27.2344997 138.7359988
  58.9990012  28.1064997 139.7779988  59.2797568  27.9760807 138.9649588
  63.9170012  29.2074997 123.8759988  63.4570012  28.7234997 124.5619988
  64.1720012  28.5394997 123.2399988  63.8884902  29.0508731 123.8839334
  63.2060012  27.1004997 136.2319988  62.5880012  27.7754997 136.5119988
  63.5500012  27.4214997 135.3979988  63.1679132  27.2362411 136.1576262
  64.9880012  27.4504997 122.1379988  64.8080012  27.2964997 121.2109988
  65.9380012  27.5584997 122.1829988  65.0917776  27.4440175 122.0171843
  68.2260012  29.5724997 139.5089988  69.1790012  29.6554997 139.4819988
  68.0650012  28.8604997 140.1289988  68.3346426  29.4876746 139.5890579
  74.3780012  29.8054997 121.5839988  74.1040012  29.3804997 120.7709988
  74.4170012  30.7364997 121.3669988  74.3457699  29.8732484 121.4433610
  63.5450012  24.4554997 137.3139988  63.6950012  23.7264997 136.7119988
  63.5480012  25.2324997 136.7549988  63.5659302  24.4607851 137.1560692
  63.9580012  22.8254997 134.8069988  64.4940012  23.2764997 134.1549988
  63.1060012  22.7174997 134.3839988  63.9162178  22.8726390 134.6605756
  65.5400012  28.2644997 135.0459988  66.2900012  28.1084997 134.4729988
  65.2010012  29.1164997 134.7709988  65.5968921  28.3582968 134.9303561
  69.9550012  26.0794997 140.0749988  70.1480012  25.1484997 139.9629988
  70.8130012  26.5044997 140.0639988  70.0972934  26.0096531 140.0582031
  71.2720012  28.8684997 138.1519988  70.9910012  29.5774997 137.5739988
  72.2150012  28.7954997 138.0009988  71.3609291  28.9556711 138.0524967
  62.0240012  25.6534997 139.2259988  61.2570012  25.1214997 139.0149988
  62.7030012  25.3434997 138.6259988  62.0107877  25.5388300 139.1160716
  64.7640012  20.2814997 135.2379988  64.6650012  21.2284997 135.1329988
  64.0210012  19.9094997 134.7619988  64.6501184  20.3605863 135.1593621
  66.0280012  24.6034997 138.8019988  65.7920012  24.3834997 139.7029988
  65.2440012  24.3964997 138.2919988  65.8898504  24.5454586 138.8563431
  68.7430012  23.7304997 137.8769988  67.7960012  23.7624997 138.0099988
  69.0560012  23.1054997 138.5309988  68.6556707  23.6503998 137.9836060
  70.3770012  22.3644997 139.8829988  70.2810012  21.4124997 139.8769988
  70.0560012  22.6334997 140.7429988  70.3204070  22.2704035 139.9985441
  60.2040012  23.5744997 138.9299988  60.4160012  22.8674997 138.3199988
  60.0930012  23.1364997 139.7739988  60.2179721  23.4187084 138.9606843
  64.9850012  19.5754997 137.9089988  65.6970012  18.9354997 137.8949988
  64.8840012  19.8424997 136.9959988  65.0688066  19.5240079 137.7835677
  65.3390012  21.2584997 139.9629988  65.2070012  20.7824997 139.1429988
  64.7400012  22.0024997 139.9079988  65.2399071  21.2939618 139.8432886
  64.8850012  38.1414997 123.1389988  65.8180012  38.2994997 123.2829988
  64.6210012  38.8164997 122.5149988  64.9769888  38.2544510 123.0742842
  58.4540012  32.7774997 122.6219988  59.3680012  32.8564997 122.8959988
  58.4610012  32.0904997 121.9559988  58.5801131  32.6953961 122.5694393
  57.1030012  38.1704997 127.6999988  56.4560012  37.7084997 127.1669988
  57.4570012  37.4984997 128.2819988  57.0623849  38.0164723 127.7057959
  57.9730012  36.2514997 129.5039988  57.6380012  35.3714997 129.6759988
  58.1950012  36.5964997 130.3689988  57.9571783  36.1777500 129.6444208
  75.5210012  37.0604997 132.4849988  75.5000012  37.2454997 133.4239988
  76.2120012  37.6294997 132.1439988  75.6114618  37.1626606 132.5673864
  75.0850012  36.6284997 135.4069988  74.5970012  35.8924997 135.0349988
  75.6340012  36.2344997 136.0849988  75.0924820  36.4745889 135.4477813
  73.5350012  32.4174997 140.0449988  72.6690012  32.3124997 140.4389988
  73.9120012  33.1764997 140.4909988  73.4673308  32.5056900 140.1592393
  74.8360012  30.6744997 125.5589988  75.6860012  31.0954997 125.6859988
  74.8420012  29.9344997 126.1659988  74.9531372  30.6320803 125.6584344
  75.2310012  28.7274997 127.3819988  74.5040012  28.2484997 127.7799988
  75.8120012  28.9334997 128.1149988  75.2100473  28.6898103 127.5354528
  74.9900012  31.5124997 132.3299988  75.8230012  31.1344997 132.0499988
  75.1020012  32.4554997 132.2109988  75.1192647  31.5882218 132.2755487
  73.4760012  34.3904997 134.6369988  72.8290012  34.7154997 135.2629988
  72.9590012  33.9504997 133.9629988  73.3174029  34.3755004 134.6315827
  75.4990012  28.6284997 123.7739988  74.9770012  28.9854997 123.0549988
  75.4660012  29.3034997 124.4519988  75.4231634  28.7685413 123.7673145
  73.8480012  25.8684997 122.3239988  73.9440012  26.5354997 121.6439988
  73.7080012  25.0524997 121.8429988  73.8422272  25.8495655 122.1658347
  73.0170012  27.2484997 127.9449988  72.8670012  26.3034997 127.9249988
  72.6640012  27.5294997 128.7889988  72.9487448  27.1571481 128.0563705
  58.0530012  29.3264997 131.9559988  58.2370012  29.2444997 131.0199988
  58.9020012  29.2024997 132.3789988  58.1930151  29.2985073 131.8851451
  73.8740012  29.2184997 137.5839988  74.4570012  28.4844997 137.7759988
  74.4380012  29.9904997 137.6309988  74.0299769  29.2224227 137.6166159
  75.3700012  27.1214997 138.2689988  74.5070012  26.7424997 138.1029988
  75.9750012  26.3824997 138.1939988  75.3336119  26.9698268 138.2361528
  73.0950012  23.2764997 121.4419988  73.7060012  22.9054997 122.0789988
  72.2590012  22.8554997 121.6379988  73.0655032  23.1687554 121.5557035
  72.7280012  24.8314997 126.4079988  73.0080012  23.9244997 126.5319988
  73.4870012  25.2654997 126.0189988  72.8689277  24.7660942 126.3723682
  73.3400012  25.4124997 131.8439988  74.2730012  25.6244997 131.8089988
  73.1050012  25.5144997 132.7659988  73.4359244  25.4553100 131.9638892
  73.3690012  26.1494997 134.6199988  72.5260012  26.4174997 134.9859988
  73.8110012  26.9714997 134.4089988  73.3134158  26.2973291 134.6415491
  57.6500012  24.5974997 138.0969988  58.5700012  24.4754997 138.3329988
  57.2010012  23.8474997 138.4859988  57.7151580  24.4793727 138.1819006
  75.6520012  20.1294997 139.9729988  76.0020012  19.4754997 139.3679988
  75.7990012  20.9664997 139.5329988  75.7197887  20.1531548 139.8306858
  73.3410012  22.0944997 126.4559988  73.5240012  21.6454997 127.2819988
  72.7420012  21.5094997 125.9929988  73.2850202  21.9539975 126.5063275
  58.8710012  22.9094997 130.9879988  59.3170012  22.1174997 131.2899988
  59.3380012  23.6254997 131.4179988  58.9950831  22.8980685 131.0874006
  57.1750012  25.9084997 132.0569988  57.6670012  25.6874997 131.2659988
  57.5380012  26.7494997 132.3379988  57.2913126  25.9918357 131.9867531
  75.1720012  22.2384997 138.3219988  74.2540012  22.5094997 138.2869988
  75.2950012  21.7034997 137.5379988  75.0629729  22.2032508 138.2111923
  75.2080012  22.1614997 122.9839988  75.6200012  21.4404997 122.5089988
  75.8900012  22.8314997 123.0429988  75.3565885  22.1532368 122.9268915
  57.4890012  22.1664997 126.1109988  56.5640012  22.3754997 125.9819988
  57.9430012  22.6504997 125.4209988  57.4237292  22.2605343 126.0000720
  72.2600012  37.1504997 128.0569988  72.9120012  36.8034997 127.4489988
  72.7700012  37.6394997 128.7029988  72.4182637  37.1690597 128.0610236
  57.4530012  20.9044997 134.4549988  56.7880012  20.6584997 135.0989988
  57.0100012  21.5264997 133.8779988  57.3021318  20.9549410 134.4650898
  59.6450012  34.0794997 138.5999988  58.8240012  34.2544997 138.1389988
  59.3920012  34.0064997 139.5199988  59.4985585  34.0935544 138.6613561
  62.5990012  35.0544997 134.8579988  62.1740012  35.8634997 134.5759988
  63.5030012  35.1394997 134.5559988  62.6629975  35.1769300 134.7784816
  66.9100012  36.4534997 137.8179988  67.0950012  36.1194997 138.6959988
  67.7560012  36.7624997 137.4959988  67.0497539  36.4496047 137.8945605
  69.2550012  37.7394997 137.0619988  69.9320012  37.1064997 136.8219988
  69.5770012  38.1404997 137.8689988  69.3911637  37.7071154 137.1382793
  74.1720012  20.3284997 136.1409988  73.3600012  20.6534997 135.7539988
  74.4050012  19.5684997 135.6079988  74.0922203  20.2702758 136.0158880
  60.0010012  38.3104997 134.9059988  59.2800012  38.7504997 134.4549988
  59.6350012  38.0594997 135.7539988  59.8529651  38.3367242 134.9589640
  62.4680012  37.9104997 133.9359988  61.6030012  37.9824997 134.3399988
  62.4130012  38.4574997 133.1519988  62.3422085  37.9942685 133.8853362
  67.1780012  37.7984997 133.1109988  66.7220012  38.3274997 132.4569988
  67.3410012  38.4014997 133.8359988  67.1376068  37.9524607 133.1194838
  69.5060012  36.6764997 134.0559988  68.6010012  36.8414997 133.7899988
  69.9350012  37.5294997 133.9909988  69.4401324  36.8144339 134.0107976
  72.1100012  38.2464997 134.3509988  71.9280012  39.1624997 134.1409988
  72.2870012  37.8364997 133.5049988  72.1090210  38.3164822 134.2077885
  59.4150012  36.9334997 131.8159988  59.3970012  36.5084997 132.6729988
  60.2200012  36.6154997 131.4069988  59.5213529  36.8323013 131.8780946
  61.5570012  35.6434997 130.4709988  61.3380012  34.7274997 130.6409988
  62.3810012  35.7834997 130.9369988  61.6384420  35.5370520 130.5572774
  64.0940012  36.1134997 131.3199988  64.3070012  35.2254997 131.0329988
  64.1580012  36.0794997 132.2739988  64.1318232  35.9873102 131.4097397
  67.6020012  21.7774997 130.4639988  66.9280012  21.1484997 130.7199988
  68.1660012  21.2934997 129.8609988  67.5859230  21.6258744 130.4175340
  72.7450012  19.8854997 130.5769988  73.3490012  20.4324997 130.0749988
  71.8750012  20.2044997 130.3359988  72.7101208  20.0035137 130.4756886
  74.4720012  21.0234997 128.9099988  75.0840012  20.5094997 128.3829988
  74.8540012  21.9014997 128.9329988  74.6073371  21.0717866 128.8410041
  59.9290012  20.4114997 128.2859988  59.1520012  20.1774997 127.7789988
  60.4590012  19.6144997 128.2949988  59.8942330  20.2716988 128.2177742
  58.7650012  20.2094997 124.0899988  59.2040012  20.8204997 123.4979988
  58.1320012  20.7474997 124.5639988  58.7394514  20.3659257 124.0730930
  64.5080012  20.3384997 128.0999988  65.3830012  20.7264997 128.0699988
  64.3720012  20.1234997 129.0219988  64.6093695  20.3625184 128.2206440
  70.0650012  20.3684997 129.7489988  70.1410012  20.4634997 128.7989988
  69.7900012  19.4604997 129.8779988  70.0382321  20.2587867 129.6365079
  71.4180012  20.3944997 125.4409988  70.7160012  21.0094997 125.2309988
  70.9740012  19.5564997 125.5719988  71.2616450  20.3655639 125.4299000
  58.6660012  36.1574997 124.9869988  57.9810012  36.1194997 124.3199988
  58.6700012  37.0704997 125.2759988  58.5726998  36.2756733 124.9346771
  60.6260012  22.1254997 122.5319988  61.1180012  21.4954997 122.0049988
  61.2500012  22.4214997 123.1949988  60.7775688  22.0793804 122.5495482
  65.6520012  22.4184997 124.9889988  65.8300012  21.7724997 125.6719988
  65.5990012  23.2524997 125.4559988  65.6691999  22.4428009 125.1455917
  67.5310012  37.3674997 123.3849988  68.3970012  37.7334997 123.2069988
  67.2840012  36.9274997 122.5709988  67.6162392  37.3581756 123.2506289
  74.2400012  36.9304997 126.0639988  74.0450012  36.1824997 125.4989988
  74.2010012  37.6884997 125.4809988  74.2080380  36.9306099 125.9078384
  59.8870012  20.9254997 137.8039988  59.5210012  20.1604997 138.2459988
  60.8000012  20.9544997 138.0899988  59.9602736  20.8245640 137.9032502
  61.8600012  20.2764997 139.3399988  62.7580012  20.0024997 139.1549988
  61.4730012  19.5334997 139.8039988  61.9306612  20.1385914 139.3773643
  60.4840012  37.0774997 122.0129988  60.2170012  37.3644997 122.8859988
  61.2560012  36.5314997 122.1649988  60.5517488  37.0430294 122.1531050
  70.2810012  19.6084997 139.5219988  70.3580012  19.1824997 140.3759988
  71.1750012  19.6224997 139.1789988  70.4123428  19.5520879 139.5925310
  73.4570012  35.6814997 138.2139988  72.6750012  35.4954997 137.6939988
  73.3850012  36.6104997 138.4319988  73.3402274  35.7816643 138.1723018
  87.8630012  29.5674997 128.2449988  87.9520012  30.5114997 128.1129988
  87.2250012  29.2924997 127.5869988  87.7889081  29.6594830 128.1379614
  86.7960012  28.8224997 131.6639988  86.7580012  28.1764997 132.3689988
  86.4740012  28.3564997 130.8929988  86.7472333  28.6709408 131.6562978
  79.1650012  28.4374997 133.2569988  79.2060012  27.8114997 133.9799988
  79.8680012  29.0614997 133.4389988  79.2656363  28.4361196 133.3806044
  90.5020012  31.7614997 129.9649988  90.0620012  31.0414997 130.4159988
  90.4890012  32.4824997 130.5949988  90.4400226  31.7603731 130.1118494
  80.0880012  32.8874997 131.7919988  79.7190012  32.0854997 131.4219988
  81.0290012  32.7184997 131.8379988  80.1647289  32.7550153 131.7476316
  76.6980012  26.5474997 127.1849988  76.2510012  27.3934997 127.1659988
  76.1370012  25.9674997 126.6689988  76.5609900  26.5849916 127.1126801
  77.4090012  28.7094997 129.3099988  77.6220012  27.9394997 129.8379988
  78.1470012  28.7984997 128.7069988  77.5379044  28.6161968 129.3007123
  87.6140012  36.8664997 130.1769988  88.2340012  36.1894997 129.9039988
  87.4060012  36.6484997 131.0859988  87.6706726  36.7444800 130.2624812
  85.1860012  31.2554997 132.0699988  85.4900012  30.5694997 131.4749988
  85.9070012  31.3734997 132.6879988  85.3250671  31.1776305 132.0721816
  93.8490012  22.8564997 132.9309988  93.8980012  23.4664997 133.6659988
  94.2740012  23.3174997 132.2079988  93.9131746  23.0023796 132.9339175
  88.3270012  25.6494997 132.3969988  88.4690012  24.7034997 132.4179988
  88.2200012  25.8564997 131.4689988  88.3319919  25.5478246 132.2743408
  81.4810012  23.7504997 129.6699988  81.5250012  24.6104997 129.2509988
  81.0240012  23.1984997 129.0359988  81.4252240  23.7934422 129.5269864
  89.2040012  23.8814997 128.0709988  89.8500012  23.5524997 128.6949988
  89.7140012  24.3994997 127.4479988  89.3614299  23.9064450 128.0722731
  78.1020012  26.1474997 130.4319988  78.7550012  25.5974997 130.8639988
  78.1260012  25.8734997 129.5149988  78.1946683  26.0351466 130.3672123
  83.2580012  27.6974997 129.6469988  83.8740012  27.1714997 130.1569988
  82.6720012  27.0574997 129.2439988  83.2630810  27.5389208 129.6623173
  94.2400012  24.3344997 135.1659988  93.5520012  24.9924997 135.0709988
  94.2560012  24.1374997 136.1029988  94.1479540  24.3979819 135.2795990
  80.2920012  22.6684997 133.7439988  80.0730012  23.1984997 132.9779988
  79.6240012  22.8954997 134.3909988  80.1717600  22.7716906 133.7266379
  87.6610012  32.1684997 127.2879988  87.3650012  31.8464997 126.4369988
  87.3360012  33.0684997 127.3289988  87.5766371  32.2460215 127.1771801
  82.8610012  30.3444997 134.0309988  82.1210012  30.9424997 134.1349988
  83.5750012  30.8984997 133.7159988  82.8562237  30.5012831 134.0026465
  90.9680012  23.1724997 130.0509988  90.7520012  22.4064997 130.5839988
  91.6230012  23.6444997 130.5639988  91.0270632  23.1315889 130.1932861
  79.8850012  24.5604997 131.6959988  80.4990012  25.1934997 132.0689988
  80.3970012  24.0884997 131.0399988  80.0381981  24.5832267 131.6582908
  81.2680012  32.3084997 134.8179988  81.2630012  33.1884997 134.4399988
  80.4150012  32.2254997 135.2429988  81.1519464  32.4176117 134.8237907
  77.3890012  31.9794997 125.5999988  77.1170012  32.2084997 124.7119988
  77.4350012  32.8174997 126.0609988  77.3579482  32.1241318 125.5406273
  91.0140012  33.6014997 132.3129988  90.0730012  33.6594997 132.4749988
  91.2910012  34.5074997 132.1759988  90.9224679  33.7319443 132.3166815
  91.3150012  21.8874997 133.7309988  90.5790012  22.4984997 133.6929988
  91.9980012  22.3024997 133.2039988  91.3066541  22.0271374 133.6545832
  84.3180012  19.9744997 131.1959988  84.2010012  19.0254997 131.1419988
  83.4630012  20.3064997 131.4699988  84.1864212  19.8895571 131.2256497
  89.2660012  35.3824997 128.9379988  89.6920012  34.6754997 128.4529988
  89.5830012  36.1834997 128.5219988  89.3671683  35.3941017 128.8153680
  90.4260012  33.2834997 127.4469988  90.1680012  32.5934997 126.8359988
  90.4970012  32.8404997 128.2929988  90.4002856  33.1292124 127.4776885
  92.1120012  31.8494997 135.9239988  92.2520012  31.2584997 135.1849988
  92.2790012  32.7224997 135.5679988  92.1537411  31.8865428 135.7746894
  86.5850012  28.8114997 125.6969988  85.8730012  29.3464997 125.3449988
  87.2760012  28.8674997 125.0369988  86.5810132  28.8922543 125.5596289
  86.6380012  27.2694997 122.7359988  87.3390012  27.2914997 123.3869988
  86.9410012  26.6414997 122.0789988  86.7748133  27.1877070 122.7363369
  93.9540012  28.1894997 133.9899988  93.3010012  28.8844997 134.0799988
  94.4190012  28.3994997 133.1809988  93.9275274  28.3130643 133.8928462
  89.9900012  29.0214997 126.6489988  89.2580012  29.2494997 127.2219988
  90.4380012  28.3074997 127.1029988  89.9502725  28.9562145 126.7888816
  89.8880012  27.1954997 135.7159988  89.9680012  27.9584997 136.2879988
  89.2860012  27.4744997 135.0259988  89.8175756  27.3377134 135.7010589
  81.6360012  29.6514997 128.5309988  81.3050012  29.2814997 127.7129988
  82.2240012  28.9814997 128.8779988  81.6701873  29.5101156 128.4658102
  83.0020012  33.0794997 131.2119988  82.9080012  32.5014997 130.4559988
  83.7320012  32.7084997 131.7089988  83.0877387  32.9501663 131.1755342
  82.0020012  28.4204997 132.1649988  82.5680012  28.5414997 131.4019988
  82.3210012  29.0574997 132.8029988  82.1225474  28.5232219 132.1469862
  88.3110012  33.9234997 132.8989988  88.0710012  34.5854997 133.5469988
  88.1130012  33.0894997 133.3239988  88.2513808  33.9013134 133.0451524
  82.8820012  32.8194997 136.8819988  82.5710012  33.6014997 137.3369988
  82.2320012  32.6664997 136.1959988  82.7515558  32.9059105 136.8515871
  88.8610012  28.1834997 124.3339988  89.4410012  28.3334997 125.0809988
  89.2750012  28.6544997 123.6099988  88.9962997  28.2676578 124.3384058
  79.8020012  29.0174997 136.1099988  79.8730012  29.6684997 136.8089988
  78.9120012  29.1204997 135.7749988  79.6913005  29.1205427 136.1603495
  86.5880012  34.9204997 127.7689988  87.0620012  35.2154997 128.5459988
  86.0250012  35.6584997 127.5359988  86.5768184  35.0607247 127.8439628
  81.1220012  34.8914997 137.6449988  81.1290012  34.7554997 136.6979988
  80.2060012  34.7734997 137.8969988  80.9991714  34.8569430 137.5494666
  92.5600012  19.9334997 124.1469988  91.6600012  20.0724997 124.4419988
  92.8120012  20.7644997 123.7449988  92.4708702  20.0649074 124.1330205
  80.6260012  28.7214997 126.1199988  80.3340012  29.4894997 125.6299988
  79.9520012  28.0614997 125.9579988  80.4948111  28.7375587 126.0308978
  93.7490012  34.2994997 122.5229988  93.8230012  35.2384997 122.6939988
  94.6550012  33.9944997 122.4669988  93.8815100  34.3866722 122.5388119
  76.7190012  31.0844997 134.9349988  76.2180012  31.0564997 134.1199988
  76.7240012  30.1784997 135.2449988  76.6510944  30.9582396 134.8653226
  76.4690012  33.8644997 131.8189988  77.4150012  33.7204997 131.7999988
  76.3570012  34.6484997 132.3559988  76.5832727  33.9508046 131.8890072
  94.6670012  34.5304997 137.5019988  94.6180012  33.5754997 137.4649988
  93.8400012  34.7984997 137.9029988  94.5484940  34.4358998 137.5511375
  85.6460012  34.1044997 136.3779988  85.7330012  34.9304997 136.8529988
  84.7820012  33.7744997 136.6269988  85.5411964  34.1729878 136.4766549
  86.0600012  37.8764997 126.1839988  85.9850012  37.7554997 125.2369988
  86.0930012  38.8264997 126.3019988  86.0542068  37.9882646 126.0704967
  79.7130012  36.6654997 127.9649988  79.8660012  36.3174997 128.8429988
  78.8630012  36.3094997 127.7099988  79.6189166  36.5696216 128.0508079
  89.1620012  37.0304997 123.1859988  89.5370012  36.2864997 122.7149988
  89.1660012  36.7604997 124.1049988  89.2139125  36.8920986 123.2456483
  88.8310012  36.9564997 125.9349988  87.8950012  37.0564997 126.1139988
  89.1110012  36.2474997 126.5139988  88.7409553  36.8743406 126.0377087
  91.8190012  26.0234997 137.9819988  91.4120012  26.5044997 137.2609988
  91.8600012  25.1184997 137.6739988  91.7688437  25.9669374 137.8416683
  78.9680012  32.4074997 135.9789988  79.1840012  32.0464997 136.8379988
  78.1130012  32.0334997 135.7689988  78.8819292  32.3074111 136.0683386
  81.5870012  20.8774997 131.9739988  80.7250012  20.7904997 131.5659988
  81.5640012  21.7334997 132.4019988  81.4660409  20.9812883 131.9760589
  86.2500012  20.5994997 135.3489988  86.6700012  20.1844997 136.1019988
  85.3170012  20.4214997 135.4659988  86.1813644  20.5185900 135.4679539
  89.5760012  24.3554997 136.2019988  89.0620012  24.2294997 136.9999988
  89.4210012  25.2674997 135.9579988  89.4846852  24.4616132 136.2782158
  90.3390012  29.2164997 121.9639988  90.3810012  28.9934997 121.0339988
  91.1880012  29.6154997 122.1529988  90.4595280  29.2399438 121.8623554
  85.9110012  23.0924997 122.6339988  85.6580012  23.1114997 123.5569988
  85.6550012  22.2204997 122.3319988  85.8417481  22.9772558 122.7196175
  81.6780012  25.8434997 133.0689988  81.0360012  25.8024997 133.7779988
  81.7150012  26.7694997 132.8309988  81.5950664  25.9631430 133.1339219
  81.6750012  26.0644997 127.9809988  80.7820012  25.7234997 127.9219988
  82.1250012  25.6874997 127.2249988  81.6138130  25.9669631 127.8707702
  87.2100012  26.4804997 126.7979988  86.8010012  27.2954997 126.5069988
  87.9310012  26.3404997 126.1839988  87.2514537  26.5732018 126.6751342
  86.3120012  26.6554997 138.2859988  85.7500012  25.9514997 138.6069988
  87.1390012  26.5354997 138.7539988  86.3467095  26.5427883 138.3932330
  88.2150012  25.9264997 129.6119988  88.0200012  26.5314997 128.8969988
  88.3960012  25.0924997 129.1779988  88.2127614  25.8966300 129.4554405
  79.4280012  26.1634997 134.9359988  79.3900012  26.5634997 135.8049988
  78.9370012  25.3464997 135.0269988  79.3564684  26.1078069 135.0671059
  82.7940012  23.5374997 121.7349988  82.3630012  23.0924997 122.4649988
  82.0760012  23.9094997 121.2229988  82.6379438  23.5268940 121.7656799
  76.0360012  23.2794997 128.7869988  76.6670012  23.2504997 129.5059988
  76.4850012  22.8544997 128.0559988  76.1830918  23.2180836 128.7866441
  77.3100012  24.0254997 124.2109988  77.7840012  24.6164997 123.6259988
  76.5930012  24.5564997 124.5579988  77.2779341  24.1780867 124.1778836
  87.4790012  27.5644997 134.2829988  87.8020012  26.9334997 133.6399988
  87.0390012  27.0294997 134.9439988  87.4637484  27.4058387 134.2843198
  84.2560012  23.4914997 129.0669988  83.3450012  23.5484997 129.3559988
  84.7620012  23.4314997 129.8779988  84.1996899  23.4911941 129.2161184
  79.0850012  25.1204997 127.8939988  78.1950012  25.2204997 127.5539988
  79.3810012  24.2784997 127.5479988  79.0032823  25.0203545 127.8007213
  82.7380012  25.1204997 125.5509988  83.6690012  25.2494997 125.7289988
  82.5230012  25.7904997 124.9009988  82.8364247  25.2286565 125.4875747
  88.6610012  22.7264997 132.3319988  87.9850012  22.8574997 132.9959988
  88.1760012  22.5714997 131.5209988  88.5027146  22.7235157 132.3134469
  81.4120012  26.3154997 123.1169988  80.8690012  25.9354997 122.4259988
  82.2450012  26.5094997 122.6889988  81.4503631  26.2897125 122.9644501
  91.9490012  38.3984997 138.6079988  92.1490012  38.8224997 137.7739988
  92.6040012  38.7414997 139.2149988  92.0650072  38.5029857 138.5758592
  79.5470012  30.8724997 138.2159988  80.2790012  31.1264997 138.7779988
  78.7670012  31.0764997 138.7319988  79.5417073  30.9348160 138.3626151
  85.5760012  26.2794997 130.9539988  86.1410012  25.7324997 130.4069988
  85.4290012  25.7574997 131.7429988  85.6333380  26.1342259 130.9858695
  80.5780012  22.4154997 127.3729988  80.2610012  21.5134997 127.3369988
  81.3600012  22.4174997 126.8199988  80.6402408  22.2922474 127.2933569
  84.2030012  24.6674997 133.3679988  83.3670012  25.1214997 133.4789988
  84.7270012  24.9434997 134.1199988  84.1595416  24.7668660 133.4848119
  84.7470012  30.8804997 125.0529988  84.0020012  30.3734997 124.7309988
  84.6130012  30.9294997 125.9999988  84.6268776  30.8176940 125.1368647
  91.8970012  30.0134997 133.8399988  92.5390012  30.4704997 133.2959988
  91.0670012  30.1264997 133.3769988  91.8725963  30.0912704 133.7030177
  88.6450012  23.6944997 123.2519988  87.7060012  23.8064997 123.1009988
  88.9420012  24.5514997 123.5589988  88.5567583  23.8255981 123.2728337
  86.2660012  31.0644997 136.2899988  85.9210012  30.6834997 137.0969988
  86.0660012  31.9984997 136.3609988  86.1917527  31.1385135 136.4100689
  89.3630012  25.5614997 124.9129988  90.2550012  25.4244997 125.2319988
  89.4200012  26.3524997 124.3759988  89.4926504  25.6496052 124.8840818
  79.8720012  30.1754997 130.8229988  80.6170012  30.1734997 130.2219988
  79.9500012  29.3524997 131.3039988  79.9844995  30.0638887 130.8058282
  86.8730012  32.3394997 124.0789988  86.5770012  33.1654997 124.4599988
  86.1700012  31.7194997 124.2749988  86.7374914  32.3688199 124.1576443
  76.8800012  28.6364997 136.1379988  77.1030012  28.2184997 136.9699988
  76.2780012  28.0234997 135.7149988  76.8291759  28.4964668 136.1947022
  83.8960012  28.1534997 138.3509988  83.6000012  27.9874997 137.4559988
  84.8280012  27.9334997 138.3399988  83.9814166  28.1010640 138.2270536
  88.5170012  33.5264997 136.2409988  87.6160012  33.7094997 135.9729988
  88.5510012  33.7854997 137.1609988  88.3983139  33.5865849 136.3288099
  94.2480012  25.7714997 124.6079988  93.6940012  25.3754997 123.9359988
  94.3480012  26.6814997 124.3299988  94.1857059  25.8403586 124.4784401
  94.2110012  31.5714997 137.4449988  93.3600012  31.8094997 137.0779988
  94.8020012  31.5544997 136.6919988  94.1742487  31.6018258 137.2928893
  92.5430012  34.5574997 125.0729988  92.1700012  33.7314997 125.3819988
  92.8210012  34.3744997 124.1749988  92.5295222  34.4197430 124.9939473
  89.7040012  29.3654997 132.0939988  88.7750012  29.1334997 132.0669988
  90.1550012  28.5884997 131.7639988  89.6379216  29.2287238 132.0456917
  82.2470012  33.6934997 128.2269988  82.7740012  34.4664997 128.0269988
  81.3670012  33.9184997 127.9249988  82.2002031  33.8297545 128.1587912
  78.0020012  28.5554997 122.8139988  78.6180012  29.1824997 123.1939988
  77.1400012  28.8714997 123.0859988  77.9697698  28.6839430 122.9027183
  83.6740012  31.3564997 127.8029988  83.4330012  32.2814997 127.8449988
  82.9330012  30.8974997 128.1999988  83.5409225  31.4210933 127.8623742
  84.1890012  35.5054997 134.1189988  84.5510012  36.3604997 133.8849988
  84.7200012  35.2134997 134.8589988  84.3104473  35.5831060 134.1870855
  82.3570012  36.3784997 127.3489988  81.4070012  36.4834997 127.3999988
  82.7090012  37.1984997 127.6929988  82.2744195  36.5038800 127.4025502
  87.7330012  31.6044997 133.8189988  87.3070012  31.3774997 134.6459988
  88.3130012  30.8664997 133.6369988  87.7531868  31.4735299 133.9075830
  89.9360012  32.5334997 122.8929988  90.2890012  32.1534997 123.6969988
  88.9870012  32.4404997 122.9799988  89.8560918  32.4688956 123.0148532
  90.3910012  36.1564997 136.2889988  89.7900012  35.6014997 135.7929988
  90.6730012  36.8234997 135.6619988  90.3468804  36.1706625 136.1364849
  94.4390012  37.0134997 123.0939988  95.1830012  37.5994997 122.9539988
  93.7450012  37.5814997 123.4269988  94.4469899  37.1705798 123.1198778
  78.5140012  23.3894997 135.6959988  77.6210012  23.7284997 135.6279988
  78.4150012  22.5344997 136.1139988  78.3784164  23.3202588 135.7432235
  90.8020012  31.2064997 125.1199988  90.5240012  30.4784997 125.6759988
  91.7290012  31.3254997 125.3249988  90.8893124  31.1228802 125.2238845
  78.1650012  35.1944997 134.1309988  78.3820012  34.2624997 134.0999988
  78.4110012  35.4684997 135.0139988  78.2279549  35.1040636 134.2461763
  84.0270012  33.6454997 121.3399988  84.2660012  32.8974997 120.7929988
  83.7580012  33.2574997 122.1729988  84.0233675  33.4906638 121.3776865
  82.9640012  33.2154997 123.7959988  83.1100012  32.6954997 124.5859988
  82.9610012  34.1224997 124.1029988  82.9835792  33.2668842 123.9456117
  79.4170012  30.4684997 124.3069988  78.7310012  30.8204997 124.8739988
  79.9390012  31.2314997 124.0599988  79.3936852  30.6198578 124.3512118
  87.2480012  23.1304997 134.5859988  87.9470012  23.2044997 135.2359988
  86.8670012  22.2664997 134.7399988  87.2921767  23.0237624 134.6958322
  88.0330012  22.7824997 125.6829988  88.2530012  23.2544997 124.8799988
  88.5910012  23.1774997 126.3529988  88.1384968  22.9004285 125.6637331
  85.7010012  34.9134997 124.5459988  84.8850012  35.4104997 124.5979988
  86.2310012  35.3884997 123.9059988  85.6609161  35.0457722 124.4665956
  85.2330012  24.5104997 126.5179988  86.0450012  25.0154997 126.5639988
  84.9880012  24.3654997 127.4319988  85.3110520  24.5600375 126.6478517
  85.7680012  25.4964997 135.7019988  85.8870012  26.0704997 136.4599988
  86.4240012  24.8084997 135.8169988  85.8729025  25.4819858 135.8211321
  86.1160012  21.5914997 127.4559988  85.7700012  22.2094997 128.0999988
  86.7750012  22.0924997 126.9739988  86.1576968  21.7436278 127.4789383
  83.0400012  35.9574997 124.5269988  83.2000012  36.7564997 124.0269988
  82.8420012  36.2634997 125.4119988  83.0351637  36.1084020 124.5781144
  81.7740012  22.6544997 124.1429988  81.6910012  23.5434997 124.4899988
  82.6640012  22.3894997 124.3749988  81.8829469  22.7401430 124.2217626
  91.9730012  23.4034997 136.5369988  91.0560012  23.6664997 136.4499988
  92.3080012  23.4004997 135.6409988  91.8928613  23.4390761 136.4038837
  90.5750012  27.1544997 130.6329988  89.7770012  26.7394997 130.3049988
  91.0200012  26.4634997 131.1239988  90.5259885  27.0043543 130.6544889
  80.0330012  33.0824997 123.2039988  80.6250012  33.7814997 123.4799988
  80.4920012  32.6494997 122.4839988  80.1761142  33.1197049 123.1444830
  78.3490012  25.7464997 122.3199988  78.3040012  26.6854997 122.4979988
  77.4610012  25.5104997 122.0499988  78.2228574  25.8431892 122.3078912
  91.6610012  36.4104997 132.2559988  91.5060012  37.0884997 131.5979988
  92.5940012  36.4824997 132.4589988  91.7658657  36.5129546 132.1934360
  79.1570012  20.5284997 130.9929988  78.9280012  20.5874997 130.0649988
  78.7140012  19.7364997 131.2989988  79.0658530  20.4295753 130.9074786
  78.0870012  34.4684997 127.1529988  77.2550012  34.9414997 127.1799988
  78.6330012  34.9784997 126.5549988  78.0470352  34.6021332 127.0758463
  77.3750012  37.0814997 138.4829988  77.9160012  36.8644997 139.2429988
  76.8940012  36.2754997 138.2929988  77.3839951  36.9429270 138.5612576
  81.9730012  36.0004997 140.1029988  82.7400012  35.5414997 140.4439988
  81.9510012  35.7744997 139.1739988  82.0751275  35.9070186 140.0240101
  86.0650012  35.5084997 121.4789988  85.4210012  34.8774997 121.7999988
  86.8270012  34.9774997 121.2469988  86.0798077  35.3502920 121.4916011
  88.5500012  34.3804997 138.8329988  88.1990012  33.5244997 139.0759988
  89.2760012  34.5234997 139.4399988  88.6000769  34.2825636 138.9483619
  90.6690012  35.3254997 121.7119988  90.9520012  34.5314997 122.1649988
  91.4090012  35.5584997 121.1519988  90.8078006  35.2483376 121.6982715
  77.2820012  30.8914997 139.4369988  77.4260012  29.9894997 139.1509988
  76.5100012  31.1774997 138.9499988  77.1972753  30.8066816 139.3319505
  81.6240012  31.2354997 121.5699988  81.6880012  30.4414997 122.1009988
  82.2770012  31.1164997 120.8799988  81.7210241  31.1107148 121.5494317
  83.9380012  30.8614997 138.8699988  83.6090012  31.1324997 138.0129988
  84.0900012  29.9204997 138.7829988  83.9134809  30.7713862 138.7408244
  86.9760012  32.2824997 121.3059988  86.7070012  32.4624997 122.2069988
  86.7700012  31.3564997 121.1739988  86.9113427  32.1820261 121.4115073
  89.6720012  30.7774997 136.2529988  90.4180012  31.3654997 136.1339988
  88.9150012  31.3594997 136.3169988  89.6717820  30.9367143 136.2453590
  78.1150012  28.0914997 138.8569988  78.5230012  27.2344997 138.7359988
  77.8550012  28.1064997 139.7779988  78.1357568  27.9760807 138.9649588
  82.7730012  29.2074997 123.8759988  82.3130012  28.7234997 124.5619988
  83.0280012  28.5394997 123.2399988  82.7444902  29.0508731 123.8839334
  82.0620012  27.1004997 136.2319988  81.4440012  27.7754997 136.5119988
  82.4060012  27.4214997 135.3979988  82.0239132  27.2362411 136.1576262
  83.8440012  27.4504997 122.1379988  83.6640012  27.2964997 121.2109988
  84.7940012  27.5584997 122.1829988  83.9477776  27.4440175 122.0171843
  87.0820012  29.5724997 139.5089988  88.0350012  29.6554997 139.4819988
  86.9210012  28.8604997 140.1289988  87.1906426  29.4876746 139.5890579
  93.2340012  29.8054997 121.5839988  92.9600012  29.3804997 120.7709988
  93.2730012  30.7364997 121.3669988  93.2017699  29.8732484 121.4433610
  82.4010012  24.4554997 137.3139988  82.5510012  23.7264997 136.7119988
  82.4040012  25.2324997 136.7549988  82.4219302  24.4607851 137.1560692
  82.8140012  22.8254997 134.8069988  83.3500012  23.2764997 134.1549988
  81.9620012  22.7174997 134.3839988  82.7722178  22.8726390 134.6605756
  84.3960012  28.2644997 135.0459988  85.1460012  28.1084997 134.4729988
  84.0570012  29.1164997 134.7709988  84.4528921  28.3582968 134.9303561
  88.8110012  26.0794997 140.0749988  89.0040012  25.1484997 139.9629988
  89.6690012  26.5044997 140.0639988  88.9532934  26.0096531 140.0582031
  90.1280012  28.8684997 138.1519988  89.8470012  29.5774997 137.5739988
  91.0710012  28.7954997 138.0009988  90.2169291  28.9556711 138.0524967
  80.8800012  25.6534997 139.2259988  80.1130012  25.1214997 139.0149988
  81.5590012  25.3434997 138.6259988  80.8667877  25.5388300 139.1160716
  83.6200012  20.2814997 135.2379988  83.5210012  21.2284997 135.1329988
  82.8770012  19.9094997 134.7619988  83.5061184  20.3605863 135.1593621
  84.8840012  24.6034997 138.8019988  84.6480012  24.3834997 139.7029988
  84.1000012  24.3964997 138.2919988  84.7458504  24.5454586 138.8563431
  87.5990012  23.7304997 137.8769988  86.6520012  23.7624997 138.0099988
  87.9120012  23.1054997 138.5309988  87.5116707  23.6503998 137.9836060
  89.2330012  22.3644997 139.8829988  89.1370012  21.4124997 139.8769988
  88.9120012  22.6334997 140.7429988  89.1764070  22.2704035 139.9985441
  79.0600012  23.5744997 138.9299988  79.2720012  22.8674997 138.3199988
  78.9490012  23.1364997 139.7739988  79.0739721  23.4187084 138.9606843
  83.8410012  19.5754997 137.9089988  84.5530012  18.9354997 137.8949988
  83.7400012  19.8424997 136.9959988  83.9248066  19.5240079 137.7835677
  84.1950012  21.2584997 139.9629988  84.0630012  20.7824997 139.1429988
  83.5960012  22.0024997 139.9079988  84.0959071  21.2939618 139.8432886
  83.7410012  38.1414997 123.1389988  84.6740012  38.2994997 123.2829988
  83.4770012  38.8164997 122.5149988  83.8329888  38.2544510 123.0742842
  77.3100012  32.7774997 122.6219988  78.2240012  32.8564997 122.8959988
  77.3170012  32.0904997 121.9559988  77.4361131  32.6953961 122.5694393
  75.9590012  38.1704997 127.6999988  75.3120012  37.7084997 127.1669988
  76.3130012  37.4984997 128.2819988  75.9183849  38.0164723 127.7057959
  76.8290012  36.2514997 129.5039988  76.4940012  35.3714997 129.6759988
  77.0510012  36.5964997 130.3689988  76.8131783  36.1777500 129.6444208
  94.3770012  37.0604997 132.4849988  94.3560012  37.2454997 133.4239988
  95.0680012  37.6294997 132.1439988  94.4674618  37.1626606 132.5673864
  93.9410012  36.6284997 135.4069988  93.4530012  35.8924997 135.0349988
  94.4900012  36.2344997 136.0849988  93.9484820  36.4745889 135.4477813
  92.3910012  32.4174997 140.0449988  91.5250012  32.3124997 140.4389988
  92.7680012  33.1764997 140.4909988  92.3233308  32.5056900 140.1592393
  93.6920012  30.6744997 125.5589988  94.5420012  31.0954997 125.6859988
  93.6980012  29.9344997 126.1659988  93.8091372  30.6320803 125.6584344
  94.0870012  28.7274997 127.3819988  93.3600012  28.2484997 127.7799988
  94.6680012  28.9334997 128.1149988  94.0660473  28.6898103 127.5354528
  93.8460012  31.5124997 132.3299988  94.6790012  31.1344997 132.0499988
  93.9580012  32.4554997 132.2109988  93.9752647  31.5882218 132.2755487
  92.3320012  34.3904997 134.6369988  91.6850012  34.7154997 135.2629988
  91.8150012  33.9504997 133.9629988  92.1734029  34.3755004 134.6315827
  94.3550012  28.6284997 123.7739988  93.8330012  28.9854997 123.0549988
  94.3220012  29.3034997 124.4519988  94.2791634  28.7685413 123.7673145
  92.7040012  25.8684997 122.3239988  92.8000012  26.5354997 121.6439988
  92.5640012  25.0524997 121.8429988  92.6982272  25.8495655 122.1658347
  91.8730012  27.2484997 127.9449988  91.7230012  26.3034997 127.9249988
  91.5200012  27.5294997 128.7889988  91.8047448  27.1571481 128.0563705
  76.9090012  29.3264997 131.9559988  77.0930012  29.2444997 131.0199988
  77.7580012  29.2024997 132.3789988  77.0490151  29.2985073 131.8851451
  92.7300012  29.2184997 137.5839988  93.3130012  28.4844997 137.7759988
  93.2940012  29.9904997 137.6309988  92.8859769  29.2224227 137.6166159
  94.2260012  27.1214997 138.2689988  93.3630012  26.7424997 138.1029988
  94.8310012  26.3824997 138.1939988  94.1896119  26.9698268 138.2361528
  91.9510012  23.2764997 121.4419988  92.5620012  22.9054997 122.0789988
  91.1150012  22.8554997 121.6379988  91.9215032  23.1687554 121.5557035
  91.5840012  24.8314997 126.4079988  91.8640012  23.9244997 126.5319988
  92.3430012  25.2654997 126.0189988  91.7249277  24.7660942 126.3723682
  92.1960012  25.4124997 131.8439988  93.1290012  25.6244997 131.8089988
  91.9610012  25.5144997 132.7659988  92.2919244  25.4553100 131.9638892
  92.2250012  26.1494997 134.6199988  91.3820012  26.4174997 134.9859988
  92.6670012  26.9714997 134.4089988  92.1694158  26.2973291 134.6415491
  76.5060012  24.5974997 138.0969988  77.4260012  24.4754997 138.3329988
  76.0570012  23.8474997 138.4859988  76.5711580  24.4793727 138.1819006
  94.5080012  20.1294997 139.9729988  94.8580012  19.4754997 139.3679988
  94.6550012  20.9664997 139.5329988  94.5757887  20.1531548 139.8306858
  92.1970012  22.0944997 126.4559988  92.3800012  21.6454997 127.2819988
  91.5980012  21.5094997 125.9929988  92.1410202  21.9539975 126.5063275
  77.7270012  22.9094997 130.9879988  78.1730012  22.1174997 131.2899988
  78.1940012  23.6254997 131.4179988  77.8510831  22.8980685 131.0874006
  76.0310012  25.9084997 132.0569988  76.5230012  25.6874997 131.2659988
  76.3940012  26.7494997 132.3379988  76.1473126  25.9918357 131.9867531
  94.0280012  22.2384997 138.3219988  93.1100012  22.5094997 138.2869988
  94.1510012  21.7034997 137.5379988  93.9189729  22.2032508 138.2111923
  94.0640012  22.1614997 122.9839988  94.4760012  21.4404997 122.5089988
  94.7460012  22.8314997 123.0429988  94.2125885  22.1532368 122.9268915
  76.3450012  22.1664997 126.1109988  75.4200012  22.3754997 125.9819988
  76.7990012  22.6504997 125.4209988  76.2797292  22.2605343 126.0000720
  91.1160012  37.1504997 128.0569988  91.7680012  36.8034997 127.4489988
  91.6260012  37.6394997 128.7029988  91.2742637  37.1690597 128.0610236
  76.3090012  20.9044997 134.4549988  75.6440012  20.6584997 135.0989988
  75.8660012  21.5264997 133.8779988  76.1581318  20.9549410 134.4650898
  78.5010012  34.0794997 138.5999988  77.6800012  34.2544997 138.1389988
  78.2480012  34.0064997 139.5199988  78.3545585  34.0935544 138.6613561
  81.4550012  35.0544997 134.8579988  81.0300012  35.8634997 134.5759988
  82.3590012  35.1394997 134.5559988  81.5189975  35.1769300 134.7784816
  85.7660012  36.4534997 137.8179988  85.9510012  36.1194997 138.6959988
  86.6120012  36.7624997 137.4959988  85.9057539  36.4496047 137.8945605
  88.1110012  37.7394997 137.0619988  88.7880012  37.1064997 136.8219988
  88.4330012  38.1404997 137.8689988  88.2471637  37.7071154 137.1382793
  93.0280012  20.3284997 136.1409988  92.2160012  20.6534997 135.7539988
  93.2610012  19.5684997 135.6079988  92.9482203  20.2702758 136.0158880
  78.8570012  38.3104997 134.9059988  78.1360012  38.7504997 134.4549988
  78.4910012  38.0594997 135.7539988  78.7089651  38.3367242 134.9589640
  81.3240012  37.9104997 133.9359988  80.4590012  37.9824997 134.3399988
  81.2690012  38.4574997 133.1519988  81.1982085  37.9942685 133.8853362
  86.0340012  37.7984997 133.1109988  85.5780012  38.3274997 132.4569988
  86.1970012  38.4014997 133.8359988  85.9936068  37.9524607 133.1194838
  88.3620012  36.6764997 134.0559988  87.4570012  36.8414997 133.7899988
  88.7910012  37.5294997 133.9909988  88.2961324  36.8144339 134.0107976
  90.9660012  38.2464997 134.3509988  90.7840012  39.1624997 134.1409988
  91.1430012  37.8364997 133.5049988  90.9650210  38.3164822 134.2077885
  78.2710012  36.9334997 131.8159988  78.2530012  36.5084997 132.6729988
  79.0760012  36.6154997 131.4069988  78.3773529  36.8323013 131.8780946
  80.4130012  35.6434997 130.4709988  80.1940012  34.7274997 130.6409988
  81.2370012  35.7834997 130.9369988  80.4944420  35.5370520 130.5572774
  82.9500012  36.1134997 131.3199988  83.1630012  35.2254997 131.0329988
  83.0140012  36.0794997 132.2739988  82.9878232  35.9873102 131.4097397
  86.4580012  21.7774997 130.4639988  85.7840012  21.1484997 130.7199988
  87.0220012  21.2934997 129.8609988  86.4419230  21.6258744 130.4175340
  91.6010012  19.8854997 130.5769988  92.2050012  20.4324997 130.0749988
  90.7310012  20.2044997 130.3359988  91.5661208  20.0035137 130.4756886
  93.3280012  21.0234997 128.9099988  93.9400012  20.5094997 128.3829988
  93.7100012  21.9014997 128.9329988  93.4633371  21.0717866 128.8410041
  78.7850012  20.4114997 128.2859988  78.0080012  20.1774997 127.7789988
  79.3150012  19.6144997 128.2949988  78.7502330  20.2716988 128.2177742
  77.6210012  20.2094997 124.0899988  78.0600012  20.8204997 123.4979988
  76.9880012  20.7474997 124.5639988  77.5954514  20.3659257 124.0730930
  83.3640012  20.3384997 128.0999988  84.2390012  20.7264997 128.0699988
  83.2280012  20.1234997 129.0219988  83.4653695  20.3625184 128.2206440
  88.9210012  20.3684997 129.7489988  88.9970012  20.4634997 128.7989988
  88.6460012  19.4604997 129.8779988  88.8942321  20.2587867 129.6365079
  90.2740012  20.3944997 125.4409988  89.5720012  21.0094997 125.2309988
  89.8300012  19.5564997 125.5719988  90.1176450  20.3655639 125.4299000
  77.5220012  36.1574997 124.9869988  76.8370012  36.1194997 124.3199988
  77.5260012  37.0704997 125.2759988  77.4286998  36.2756733 124.9346771
  79.4820012  22.1254997 122.5319988  79.9740012  21.4954997 122.0049988
  80.1060012  22.4214997 123.1949988  79.6335688  22.0793804 122.5495482
  84.5080012  22.4184997 124.9889988  84.6860012  21.7724997 125.6719988
  84.4550012  23.2524997 125.4559988  84.5251999  22.4428009 125.1455917
  86.3870012  37.3674997 123.3849988  87.2530012  37.7334997 123.2069988
  86.1400012  36.9274997 122.5709988  86.4722392  37.3581756 123.2506289
  93.0960012  36.9304997 126.0639988  92.9010012  36.1824997 125.4989988
  93.0570012  37.6884997 125.4809988  93.0640380  36.9306099 125.9078384
  78.7430012  20.9254997 137.8039988  78.3770012  20.1604997 138.2459988
  79.6560012  20.9544997 138.0899988  78.8162736  20.8245640 137.9032502
  80.7160012  20.2764997 139.3399988  81.6140012  20.0024997 139.1549988
  80.3290012  19.5334997 139.8039988  80.7866612  20.1385914 139.3773643
  79.3400012  37.0774997 122.0129988  79.0730012  37.3644997 122.8859988
  80.1120012  36.5314997 122.1649988  79.4077488  37.0430294 122.1531050
  89.1370012  19.6084997 139.5219988  89.2140012  19.1824997 140.3759988
  90.0310012  19.6224997 139.1789988  89.2683428  19.5520879 139.5925310
  92.3130012  35.6814997 138.2139988  91.5310012  35.4954997 137.6939988
  92.2410012  36.6104997 138.4319988  92.1962274  35.7816643 138.1723018
 106.7190012  29.5674997 128.2449988 106.8080012  30.5114997 128.1129988
 106.0810012  29.2924997 127.5869988 106.6449081  29.6594830 128.1379614
 105.6520012  28.8224997 131.6639988 105.6140012  28.1764997 132.3689988
 105.3300012  28.3564997 130.8929988 105.6032333  28.6709408 131.6562978
  98.0210012  28.4374997 133.2569988  98.0620012  27.8114997 133.9799988
  98.7240012  29.0614997 133.4389988  98.1216363  28.4361196 133.3806044
 109.3580012  31.7614997 129.9649988 108.9180012  31.0414997 130.4159988
 109.3450012  32.4824997 130.5949988 109.2960226  31.7603731 130.1118494
  98.9440012  32.8874997 131.7919988  98.5750012  32.0854997 131.4219988
  99.8850012  32.7184997 131.8379988  99.0207289  32.7550153 131.7476316
  95.5540012  26.5474997 127.1849988  95.1070012  27.3934997 127.1659988
  94.9930012  25.9674997 126.6689988  95.4169900  26.5849916 127.1126801
  96.2650012  28.7094997 129.3099988  96.4780012  27.9394997 129.8379988
  97.0030012  28.7984997 128.7069988  96.3939044  28.6161968 129.3007123
 106.4700012  36.8664997 130.1769988 107.0900012  36.1894997 129.9039988
 106.2620012  36.6484997 131.0859988 106.5266726  36.7444800 130.2624812
 104.0420012  31.2554997 132.0699988 104.3460012  30.5694997 131.4749988
 104.7630012  31.3734997 132.6879988 104.1810671  31.1776305 132.0721816
 112.7050012  22.8564997 132.9309988 112.7540012  23.4664997 133.6659988
 113.1300012  23.3174997 132.2079988 112.7691746  23.0023796 132.9339175
 107.1830012  25.6494997 132.3969988 107.3250012  24.7034997 132.4179988
 107.0760012  25.8564997 131.4689988 107.1879919  25.5478246 132.2743408
 100.3370012  23.7504997 129.6699988 100.3810012  24.6104997 129.2509988
  99.8800012  23.1984997 129.0359988 100.2812240  23.7934422 129.5269864
 108.0600012  23.8814997 128.0709988 108.7060012  23.5524997 128.6949988
 108.5700012  24.3994997 127.4479988 108.2174299  23.9064450 128.0722731
  96.9580012  26.1474997 130.4319988  97.6110012  25.5974997 130.8639988
  96.9820012  25.8734997 129.5149988  97.0506683  26.0351466 130.3672123
 102.1140012  27.6974997 129.6469988 102.7300012  27.1714997 130.1569988
 101.5280012  27.0574997 129.2439988 102.1190810  27.5389208 129.6623173
 113.0960012  24.3344997 135.1659988 112.4080012  24.9924997 135.0709988
 113.1120012  24.1374997 136.1029988 113.0039540  24.3979819 135.2795990
  99.1480012  22.6684997 133.7439988  98.9290012  23.1984997 132.9779988
  98.4800012  22.8954997 134.3909988  99.0277600  22.7716906 133.7266379
 106.5170012  32.1684997 127.2879988 106.2210012  31.8464997 126.4369988
 106.1920012  33.0684997 127.3289988 106.4326371  32.2460215 127.1771801
 101.7170012  30.3444997 134.0309988 100.9770012  30.9424997 134.1349988
 102.4310012  30.8984997 133.7159988 101.7122237  30.5012831 134.0026465
 109.8240012  23.1724997 130.0509988 109.6080012  22.4064997 130.5839988
 110.4790012  23.6444997 130.5639988 109.8830632  23.1315889 130.1932861
  98.7410012  24.5604997 131.6959988  99.3550012  25.1934997 132.0689988
  99.2530012  24.0884997 131.0399988  98.8941981  24.5832267 131.6582908
 100.1240012  32.3084997 134.8179988 100.1190012  33.1884997 134.4399988
  99.2710012  32.2254997 135.2429988 100.0079464  32.4176117 134.8237907
  96.2450012  31.9794997 125.5999988  95.9730012  32.2084997 124.7119988
  96.2910012  32.8174997 126.0609988  96.2139482  32.1241318 125.5406273
 109.8700012  33.6014997 132.3129988 108.9290012  33.6594997 132.4749988
 110.1470012  34.5074997 132.1759988 109.7784679  33.7319443 132.3166815
 110.1710012  21.8874997 133.7309988 109.4350012  22.4984997 133.6929988
 110.8540012  22.3024997 133.2039988 110.1626541  22.0271374 133.6545832
 103.1740012  19.9744997 131.1959988 103.0570012  19.0254997 131.1419988
 102.3190012  20.3064997 131.4699988 103.0424212  19.8895571 131.2256497
 108.1220012  35.3824997 128.9379988 108.5480012  34.6754997 128.4529988
 108.4390012  36.1834997 128.5219988 108.2231683  35.3941017 128.8153680
 109.2820012  33.2834997 127.4469988 109.0240012  32.5934997 126.8359988
 109.3530012  32.8404997 128.2929988 109.2562856  33.1292124 127.4776885
 110.9680012  31.8494997 135.9239988 111.1080012  31.2584997 135.1849988
 111.1350012  32.7224997 135.5679988 111.0097411  31.8865428 135.7746894
 105.4410012  28.8114997 125.6969988 104.7290012  29.3464997 125.3449988
 106.1320012  28.8674997 125.0369988 105.4370132  28.8922543 125.5596289
 105.4940012  27.2694997 122.7359988 106.1950012  27.2914997 123.3869988
 105.7970012  26.6414997 122.0789988 105.6308133  27.1877070 122.7363369
 112.8100012  28.1894997 133.9899988 112.1570012  28.8844997 134.0799988
 113.2750012  28.3994997 133.1809988 112.7835274  28.3130643 133.8928462
 108.8460012  29.0214997 126.6489988 108.1140012  29.2494997 127.2219988
 109.2940012  28.3074997 127.1029988 108.8062725  28.9562145 126.7888816
 108.7440012  27.1954997 135.7159988 108.8240012  27.9584997 136.2879988
 108.1420012  27.4744997 135.0259988 108.6735756  27.3377134 135.7010589
 100.4920012  29.6514997 128.5309988 100.1610012  29.2814997 127.7129988
 101.0800012  28.9814997 128.8779988 100.5261873  29.5101156 128.4658102
 101.8580012  33.0794997 131.2119988 101.7640012  32.5014997 130.4559988
 102.5880012  32.7084997 131.7089988 101.9437387  32.9501663 131.1755342
 100.8580012  28.4204997 132.1649988 101.4240012  28.5414997 131.4019988
 101.1770012  29.0574997 132.8029988 100.9785474  28.5232219 132.1469862
 107.1670012  33.9234997 132.8989988 106.9270012  34.5854997 133.5469988
 106.9690012  33.0894997 133.3239988 107.1073808  33.9013134 133.0451524
 101.7380012  32.8194997 136.8819988 101.4270012  33.6014997 137.3369988
 101.0880012  32.6664997 136.1959988 101.6075558  32.9059105 136.8515871
 107.7170012  28.1834997 124.3339988 108.2970012  28.3334997 125.0809988
 108.1310012  28.6544997 123.6099988 107.8522997  28.2676578 124.3384058
  98.6580012  29.0174997 136.1099988  98.7290012  29.6684997 136.8089988
  97.7680012  29.1204997 135.7749988  98.5473005  29.1205427 136.1603495
 105.4440012  34.9204997 127.7689988 105.9180012  35.2154997 128.5459988
 104.8810012  35.6584997 127.5359988 105.4328184  35.0607247 127.8439628
  99.9780012  34.8914997 137.6449988  99.9850012  34.7554997 136.6979988
  99.0620012  34.7734997 137.8969988  99.8551714  34.8569430 137.5494666
 111.4160012  19.9334997 124.1469988 110.5160012  20.0724997 124.4419988
 111.6680012  20.7644997 123.7449988 111.3268702  20.0649074 124.1330205
  99.4820012  28.7214997 126.1199988  99.1900012  29.4894997 125.6299988
  98.8080012  28.0614997 125.9579988  99.3508111  28.7375587 126.0308978
 112.6050012  34.2994997 122.5229988 112.6790012  35.2384997 122.6939988
 113.5110012  33.9944997 122.4669988 112.7375100  34.3866722 122.5388119
  95.5750012  31.0844997 134.9349988  95.0740012  31.0564997 134.1199988
  95.5800012  30.1784997 135.2449988  95.5070944  30.9582396 134.8653226
  95.3250012  33.8644997 131.8189988  96.2710012  33.7204997 131.7999988
  95.2130012  34.6484997 132.3559988  95.4392727  33.9508046 131.8890072
 113.5230012  34.5304997 137.5019988 113.4740012  33.5754997 137.4649988
 112.6960012  34.7984997 137.9029988 113.4044940  34.4358998 137.5511375
 104.5020012  34.1044997 136.3779988 104.5890012  34.9304997 136.8529988
 103.6380012  33.7744997 136.6269988 104.3971964  34.1729878 136.4766549
 104.9160012  37.8764997 126.1839988 104.8410012  37.7554997 125.2369988
 104.9490012  38.8264997 126.3019988 104.9102068  37.9882646 126.0704967
  98.5690012  36.6654997 127.9649988  98.7220012  36.3174997 128.8429988
  97.7190012  36.3094997 127.7099988  98.4749166  36.5696216 128.0508079
 108.0180012  37.0304997 123.1859988 108.3930012  36.2864997 122.7149988
 108.0220012  36.7604997 124.1049988 108.0699125  36.8920986 123.2456483
 107.6870012  36.9564997 125.9349988 106.7510012  37.0564997 126.1139988
 107.9670012  36.2474997 126.5139988 107.5969553  36.8743406 126.0377087
 110.6750012  26.0234997 137.9819988 110.2680012  26.5044997 137.2609988
 110.7160012  25.1184997 137.6739988 110.6248437  25.9669374 137.8416683
  97.8240012  32.4074997 135.9789988  98.0400012  32.0464997 136.8379988
  96.9690012  32.0334997 135.7689988  97.7379292  32.3074111 136.0683386
 100.4430012  20.8774997 131.9739988  99.5810012  20.7904997 131.5659988
 100.4200012  21.7334997 132.4019988 100.3220409  20.9812883 131.9760589
 105.1060012  20.5994997 135.3489988 105.5260012  20.1844997 136.1019988
 104.1730012  20.4214997 135.4659988 105.0373644  20.5185900 135.4679539
 108.4320012  24.3554997 136.2019988 107.9180012  24.2294997 136.9999988
 108.2770012  25.2674997 135.9579988 108.3406852  24.4616132 136.2782158
 109.1950012  29.2164997 121.9639988 109.2370012  28.9934997 121.0339988
 110.0440012  29.6154997 122.1529988 109.3155280  29.2399438 121.8623554
 104.7670012  23.0924997 122.6339988 104.5140012  23.1114997 123.5569988
 104.5110012  22.2204997 122.3319988 104.6977481  22.9772558 122.7196175
 100.5340012  25.8434997 133.0689988  99.8920012  25.8024997 133.7779988
 100.5710012  26.7694997 132.8309988 100.4510664  25.9631430 133.1339219
 100.5310012  26.0644997 127.9809988  99.6380012  25.7234997 127.9219988
 100.9810012  25.6874997 127.2249988 100.4698130  25.9669631 127.8707702
 106.0660012  26.4804997 126.7979988 105.6570012  27.2954997 126.5069988
 106.7870012  26.3404997 126.1839988 106.1074537  26.5732018 126.6751342
 105.1680012  26.6554997 138.2859988 104.6060012  25.9514997 138.6069988
 105.9950012  26.5354997 138.7539988 105.2027095  26.5427883 138.3932330
 107.0710012  25.9264997 129.6119988 106.8760012  26.5314997 128.8969988
 107.2520012  25.0924997 129.1779988 107.0687614  25.8966300 129.4554405
  98.2840012  26.1634997 134.9359988  98.2460012  26.5634997 135.8049988
  97.7930012  25.3464997 135.0269988  98.2124684  26.1078069 135.0671059
 101.6500012  23.5374997 121.7349988 101.2190012  23.0924997 122.4649988
 100.9320012  23.9094997 121.2229988 101.4939438  23.5268940 121.7656799
  94.8920012  23.2794997 128.7869988  95.5230012  23.2504997 129.5059988
  95.3410012  22.8544997 128.0559988  95.0390918  23.2180836 128.7866441
  96.1660012  24.0254997 124.2109988  96.6400012  24.6164997 123.6259988
  95.4490012  24.5564997 124.5579988  96.1339341  24.1780867 124.1778836
 106.3350012  27.5644997 134.2829988 106.6580012  26.9334997 133.6399988
 105.8950012  27.0294997 134.9439988 106.3197484  27.4058387 134.2843198
 103.1120012  23.4914997 129.0669988 102.2010012  23.5484997 129.3559988
 103.6180012  23.4314997 129.8779988 103.0556899  23.4911941 129.2161184
  97.9410012  25.1204997 127.8939988  97.0510012  25.2204997 127.5539988
  98.2370012  24.2784997 127.5479988  97.8592823  25.0203545 127.8007213
 101.5940012  25.1204997 125.5509988 102.5250012  25.2494997 125.7289988
 101.3790012  25.7904997 124.9009988 101.6924247  25.2286565 125.4875747
 107.5170012  22.7264997 132.3319988 106.8410012  22.8574997 132.9959988
 107.0320012  22.5714997 131.5209988 107.3587146  22.7235157 132.3134469
 100.2680012  26.3154997 123.1169988  99.7250012  25.9354997 122.4259988
 101.1010012  26.5094997 122.6889988 100.3063631  26.2897125 122.9644501
 110.8050012  38.3984997 138.6079988 111.0050012  38.8224997 137.7739988
 111.4600012  38.7414997 139.2149988 110.9210073  38.5029857 138.5758592
  98.4030012  30.8724997 138.2159988  99.1350012  31.1264997 138.7779988
  97.6230012  31.0764997 138.7319988  98.3977073  30.9348160 138.3626151
 104.4320012  26.2794997 130.9539988 104.9970012  25.7324997 130.4069988
 104.2850012  25.7574997 131.7429988 104.4893380  26.1342259 130.9858695
  99.4340012  22.4154997 127.3729988  99.1170012  21.5134997 127.3369988
 100.2160012  22.4174997 126.8199988  99.4962408  22.2922474 127.2933569
 103.0590012  24.6674997 133.3679988 102.2230012  25.1214997 133.4789988
 103.5830012  24.9434997 134.1199988 103.0155416  24.7668660 133.4848119
 103.6030012  30.8804997 125.0529988 102.8580012  30.3734997 124.7309988
 103.4690012  30.9294997 125.9999988 103.4828776  30.8176940 125.1368647
 110.7530012  30.0134997 133.8399988 111.3950012  30.4704997 133.2959988
 109.9230012  30.1264997 133.3769988 110.7285963  30.0912704 133.7030177
 107.5010012  23.6944997 123.2519988 106.5620012  23.8064997 123.1009988
 107.7980012  24.5514997 123.5589988 107.4127583  23.8255981 123.2728337
 105.1220012  31.0644997 136.2899988 104.7770012  30.6834997 137.0969988
 104.9220012  31.9984997 136.3609988 105.0477527  31.1385135 136.4100689
 108.2190012  25.5614997 124.9129988 109.1110012  25.4244997 125.2319988
 108.2760012  26.3524997 124.3759988 108.3486504  25.6496052 124.8840818
  98.7280012  30.1754997 130.8229988  99.4730012  30.1734997 130.2219988
  98.8060012  29.3524997 131.3039988  98.8404995  30.0638887 130.8058282
 105.7290012  32.3394997 124.0789988 105.4330012  33.1654997 124.4599988
 105.0260012  31.7194997 124.2749988 105.5934914  32.3688199 124.1576443
  95.7360012  28.6364997 136.1379988  95.9590012  28.2184997 136.9699988
  95.1340012  28.0234997 135.7149988  95.6851759  28.4964668 136.1947022
 102.7520012  28.1534997 138.3509988 102.4560012  27.9874997 137.4559988
 103.6840012  27.9334997 138.3399988 102.8374166  28.1010640 138.2270536
 107.3730012  33.5264997 136.2409988 106.4720012  33.7094997 135.9729988
 107.4070012  33.7854997 137.1609988 107.2543139  33.5865849 136.3288099
 113.1040012  25.7714997 124.6079988 112.5500012  25.3754997 123.9359988
 113.2040012  26.6814997 124.3299988 113.0417059  25.8403586 124.4784401
 113.0670012  31.5714997 137.4449988 112.2160012  31.8094997 137.0779988
 113.6580012  31.5544997 136.6919988 113.0302487  31.6018258 137.2928893
 111.3990012  34.5574997 125.0729988 111.0260012  33.7314997 125.3819988
 111.6770012  34.3744997 124.1749988 111.3855222  34.4197430 124.9939473
 108.5600012  29.3654997 132.0939988 107.6310012  29.1334997 132.0669988
 109.0110012  28.5884997 131.7639988 108.4939216  29.2287238 132.0456917
 101.1030012  33.6934997 128.2269988 101.6300012  34.4664997 128.0269988
 100.2230012  33.9184997 127.9249988 101.0562031  33.8297545 128.1587912
  96.8580012  28.5554997 122.8139988  97.4740012  29.1824997 123.1939988
  95.9960012  28.8714997 123.0859988  96.8257698  28.6839430 122.9027183
 102.5300012  31.3564997 127.8029988 102.2890012  32.2814997 127.8449988
 101.7890012  30.8974997 128.1999988 102.3969225  31.4210933 127.8623742
 103.0450012  35.5054997 134.1189988 103.4070012  36.3604997 133.8849988
 103.5760012  35.2134997 134.8589988 103.1664473  35.5831060 134.1870855
 101.2130012  36.3784997 127.3489988 100.2630012  36.4834997 127.3999988
 101.5650012  37.1984997 127.6929988 101.1304195  36.5038800 127.4025502
 106.5890012  31.6044997 133.8189988 106.1630012  31.3774997 134.6459988
 107.1690012  30.8664997 133.6369988 106.6091868  31.4735299 133.9075830
 108.7920012  32.5334997 122.8929988 109.1450012  32.1534997 123.6969988
 107.8430012  32.4404997 122.9799988 108.7120918  32.4688956 123.0148532
 109.2470012  36.1564997 136.2889988 108.6460012  35.6014997 135.7929988
 109.5290012  36.8234997 135.6619988 109.2028804  36.1706625 136.1364849
 113.2950012  37.0134997 123.0939988 114.0390012  37.5994997 122.9539988
 112.6010012  37.5814997 123.4269988 113.3029899  37.1705798 123.1198778
  97.3700012  23.3894997 135.6959988  96.4770012  23.7284997 135.6279988
  97.2710012  22.5344997 136.1139988  97.2344164  23.3202588 135.7432235
 109.6580012  31.2064997 125.1199988 109.3800012  30.4784997 125.6759988
 110.5850012  31.3254997 125.3249988 109.7453124  31.1228802 125.2238845
  97.0210012  35.1944997 134.1309988  97.2380012  34.2624997 134.0999988
  97.2670012  35.4684997 135.0139988  97.0839549  35.1040636 134.2461763
 102.8830012  33.6454997 121.3399988 103.1220012  32.8974997 120.7929988
 102.6140012  33.2574997 122.1729988 102.8793675  33.4906638 121.3776865
 101.8200012  33.2154997 123.7959988 101.9660012  32.6954997 124.5859988
 101.8170012  34.1224997 124.1029988 101.8395792  33.2668842 123.9456117
  98.2730012  30.4684997 124.3069988  97.5870012  30.8204997 124.8739988
  98.7950012  31.2314997 124.0599988  98.2496852  30.6198578 124.3512118
 106.1040012  23.1304997 134.5859988 106.8030012  23.2044997 135.2359988
 105.7230012  22.2664997 134.7399988 106.1481767  23.0237624 134.6958322
 106.8890012  22.7824997 125.6829988 107.1090012  23.2544997 124.8799988
 107.4470012  23.1774997 126.3529988 106.9944968  22.9004285 125.6637331
 104.5570012  34.9134997 124.5459988 103.7410012  35.4104997 124.5979988
 105.0870012  35.3884997 123.9059988 104.5169161  35.0457722 124.4665956
 104.0890012  24.5104997 126.5179988 104.9010012  25.0154997 126.5639988
 103.8440012  24.3654997 127.4319988 104.1670520  24.5600375 126.6478517
 104.6240012  25.4964997 135.7019988 104.7430012  26.0704997 136.4599988
 105.2800012  24.8084997 135.8169988 104.7289025  25.4819858 135.8211321
 104.9720012  21.5914997 127.4559988 104.6260012  22.2094997 128.0999988
 105.6310012  22.0924997 126.9739988 105.0136968  21.7436278 127.4789383
 101.8960012  35.9574997 124.5269988 102.0560012  36.7564997 124.0269988
 101.6980012  36.2634997 125.4119988 101.8911637  36.1084020 124.5781144
 100.6300012  22.6544997 124.1429988 100.5470012  23.5434997 124.4899988
 101.5200012  22.3894997 124.3749988 100.7389469  22.7401430 124.2217626
 110.8290012  23.4034997 136.5369988 109.9120012  23.6664997 136.4499988
 111.1640012  23.4004997 135.6409988 110.7488613  23.4390761 136.4038837
 109.4310012  27.1544997 130.6329988 108.6330012  26.7394997 130.3049988
 109.8760012  26.4634997 131.1239988 109.3819885  27.0043543 130.6544889
  98.8890012  33.0824997 123.2039988  99.4810012  33.7814997 123.4799988
  99.3480012  32.6494997 122.4839988  99.0321142  33.1197049 123.1444830
  97.2050012  25.7464997 122.3199988  97.1600012  26.6854997 122.4979988
  96.3170012  25.5104997 122.0499988  97.0788574  25.8431892 122.3078912
 110.5170012  36.4104997 132.2559988 110.3620012  37.0884997 131.5979988
 111.4500012  36.4824997 132.4589988 110.6218657  36.5129546 132.1934360
  98.0130012  20.5284997 130.9929988  97.7840012  20.5874997 130.0649988
  97.5700012  19.7364997 131.2989988  97.9218530  20.4295753 130.9074786
  96.9430012  34.4684997 127.1529988  96.1110012  34.9414997 127.1799988
  97.4890012  34.9784997 126.5549988  96.9030352  34.6021332 127.0758463
  96.2310012  37.0814997 138.4829988  96.7720012  36.8644997 139.2429988
  95.7500012  36.2754997 138.2929988  96.2399951  36.9429270 138.5612576
 100.8290012  36.0004997 140.1029988 101.5960012  35.5414997 140.4439988
 100.8070012  35.7744997 139.1739988 100.9311275  35.9070186 140.0240101
 104.9210012  35.5084997 121.4789988 104.2770012  34.8774997 121.7999988
 105.6830012  34.9774997 121.2469988 104.9358077  35.3502920 121.4916011
 107.4060012  34.3804997 138.8329988 107.0550012  33.5244997 139.0759988
 108.1320012  34.5234997 139.4399988 107.4560769  34.2825636 138.9483619
 109.5250012  35.3254997 121.7119988 109.8080012  34.5314997 122.1649988
 110.2650012  35.5584997 121.1519988 109.6638006  35.2483376 121.6982715
  96.1380012  30.8914997 139.4369988  96.2820012  29.9894997 139.1509988
  95.3660012  31.1774997 138.9499988  96.0532753  30.8066816 139.3319505
 100.4800012  31.2354997 121.5699988 100.5440012  30.4414997 122.1009988
 101.1330012  31.1164997 120.8799988 100.5770241  31.1107148 121.5494317
 102.7940012  30.8614997 138.8699988 102.4650012  31.1324997 138.0129988
 102.9460012  29.9204997 138.7829988 102.7694809  30.7713862 138.7408244
 105.8320012  32.2824997 121.3059988 105.5630012  32.4624997 122.2069988
 105.6260012  31.3564997 121.1739988 105.7673427  32.1820261 121.4115073
 108.5280012  30.7774997 136.2529988 109.2740012  31.3654997 136.1339988
 107.7710012  31.3594997 136.3169988 108.5277820  30.9367143 136.2453590
  96.9710012  28.0914997 138.8569988  97.3790012  27.2344997 138.7359988
  96.7110012  28.1064997 139.7779988  96.9917568  27.9760807 138.9649588
 101.6290012  29.2074997 123.8759988 101.1690012  28.7234997 124.5619988
 101.8840012  28.5394997 123.2399988 101.6004902  29.0508731 123.8839334
 100.9180012  27.1004997 136.2319988 100.3000012  27.7754997 136.5119988
 101.2620012  27.4214997 135.3979988 100.8799132  27.2362411 136.1576262
 102.7000012  27.4504997 122.1379988 102.5200012  27.2964997 121.2109988
 103.6500012  27.5584997 122.1829988 102.8037776  27.4440175 122.0171843
 105.9380012  29.5724997 139.5089988 106.8910012  29.6554997 139.4819988
 105.7770012  28.8604997 140.1289988 106.0466426  29.4876746 139.5890578
 112.0900012  29.8054997 121.5839988 111.8160012  29.3804997 120.7709988
 112.1290012  30.7364997 121.3669988 112.0577699  29.8732484 121.4433610
 101.2570012  24.4554997 137.3139988 101.4070012  23.7264997 136.7119988
 101.2600012  25.2324997 136.7549988 101.2779302  24.4607851 137.1560692
 101.6700012  22.8254997 134.8069988 102.2060012  23.2764997 134.1549988
 100.8180012  22.7174997 134.3839988 101.6282178  22.8726390 134.6605756
 103.2520012  28.2644997 135.0459988 104.0020012  28.1084997 134.4729988
 102.9130012  29.1164997 134.7709988 103.3088921  28.3582968 134.9303561
 107.6670012  26.0794997 140.0749988 107.8600012  25.1484997 139.9629988
 108.5250012  26.5044997 140.0639988 107.8092934  26.0096531 140.0582031
 108.9840012  28.8684997 138.1519988 108.7030012  29.5774997 137.5739988
 109.9270012  28.7954997 138.0009988 109.0729291  28.9556711 138.0524967
  99.7360012  25.6534997 139.2259988  98.9690012  25.1214997 139.0149988
 100.4150012  25.3434997 138.6259988  99.7227877  25.5388300 139.1160716
 102.4760012  20.2814997 135.2379988 102.3770012  21.2284997 135.1329988
 101.7330012  19.9094997 134.7619988 102.3621184  20.3605863 135.1593621
 103.7400012  24.6034997 138.8019988 103.5040012  24.3834997 139.7029988
 102.9560012  24.3964997 138.2919988 103.6018504  24.5454586 138.8563431
 106.4550012  23.7304997 137.8769988 105.5080012  23.7624997 138.0099988
 106.7680012  23.1054997 138.5309988 106.3676707  23.6503998 137.9836060
 108.0890012  22.3644997 139.8829988 107.9930012  21.4124997 139.8769988
 107.7680012  22.6334997 140.7429988 108.0324070  22.2704035 139.9985441
  97.9160012  23.5744997 138.9299988  98.1280012  22.8674997 138.3199988
  97.8050012  23.1364997 139.7739988  97.9299721  23.4187084 138.9606843
 102.6970012  19.5754997 137.9089988 103.4090012  18.9354997 137.8949988
 102.5960012  19.8424997 136.9959988 102.7808066  19.5240079 137.7835677
 103.0510012  21.2584997 139.9629988 102.9190012  20.7824997 139.1429988
 102.4520012  22.0024997 139.9079988 102.9519071  21.2939618 139.8432886
 102.5970012  38.1414997 123.1389988 103.5300012  38.2994997 123.2829988
 102.3330012  38.8164997 122.5149988 102.6889888  38.2544510 123.0742842
  96.1660012  32.7774997 122.6219988  97.0800012  32.8564997 122.8959988
  96.1730012  32.0904997 121.9559988  96.2921131  32.6953961 122.5694393
  94.8150012  38.1704997 127.6999988  94.1680012  37.7084997 127.1669988
  95.1690012  37.4984997 128.2819988  94.7743849  38.0164723 127.7057959
  95.6850012  36.2514997 129.5039988  95.3500012  35.3714997 129.6759988
  95.9070012  36.5964997 130.3689988  95.6691783  36.1777500 129.6444208
 113.2330012  37.0604997 132.4849988 113.2120012  37.2454997 133.4239988
 113.9240012  37.6294997 132.1439988 113.3234618  37.1626606 132.5673864
 112.7970012  36.6284997 135.4069988 112.3090012  35.8924997 135.0349988
 113.3460012  36.2344997 136.0849988 112.8044820  36.4745889 135.4477813
 111.2470012  32.4174997 140.0449988 110.3810012  32.3124997 140.4389988
 111.6240012  33.1764997 140.4909988 111.1793308  32.5056900 140.1592393
 112.5480012  30.6744997 125.5589988 113.3980012  31.0954997 125.6859988
 112.5540012  29.9344997 126.1659988 112.6651372  30.6320803 125.6584344
 112.9430012  28.7274997 127.3819988 112.2160012  28.2484997 127.7799988
 113.5240012  28.9334997 128.1149988 112.9220473  28.6898103 127.5354528
 112.7020012  31.5124997 132.3299988 113.5350012  31.1344997 132.0499988
 112.8140012  32.4554997 132.2109988 112.8312647  31.5882218 132.2755487
 111.1880012  34.3904997 134.6369988 110.5410012  34.7154997 135.2629988
 110.6710012  33.9504997 133.9629988 111.0294029  34.3755004 134.6315827
 113.2110012  28.6284997 123.7739988 112.6890012  28.9854997 123.0549988
 113.1780012  29.3034997 124.4519988 113.1351634  28.7685413 123.7673145
 111.5600012  25.8684997 122.3239988 111.6560012  26.5354997 121.6439988
 111.4200012  25.0524997 121.8429988 111.5542272  25.8495655 122.1658347
 110.7290012  27.2484997 127.9449988 110.5790012  26.3034997 127.9249988
 110.3760012  27.5294997 128.7889988 110.6607448  27.1571481 128.0563705
  95.7650012  29.3264997 131.9559988  95.9490012  29.2444997 131.0199988
  96.6140012  29.2024997 132.3789988  95.9050151  29.2985073 131.8851451
 111.5860012  29.2184997 137.5839988 112.1690012  28.4844997 137.7759988
 112.1500012  29.9904997 137.6309988 111.7419769  29.2224227 137.6166159
 113.0820012  27.1214997 138.2689988 112.2190012  26.7424997 138.1029988
 113.6870012  26.3824997 138.1939988 113.0456119  26.9698268 138.2361528
 110.8070012  23.2764997 121.4419988 111.4180012  22.9054997 122.0789988
 109.9710012  22.8554997 121.6379988 110.7775032  23.1687554 121.5557035
 110.4400012  24.8314997 126.4079988 110.7200012  23.9244997 126.5319988
 111.1990012  25.2654997 126.0189988 110.5809277  24.7660942 126.3723682
 111.0520012  25.4124997 131.8439988 111.9850012  25.6244997 131.8089988
 110.8170012  25.5144997 132.7659988 111.1479244  25.4553100 131.9638892
 111.0810012  26.1494997 134.6199988 110.2380012  26.4174997 134.9859988
 111.5230012  26.9714997 134.4089988 111.0254158  26.2973291 134.6415491
  95.3620012  24.5974997 138.0969988  96.2820012  24.4754997 138.3329988
  94.9130012  23.8474997 138.4859988  95.4271580  24.4793727 138.1819006
 113.3640012  20.1294997 139.9729988 113.7140012  19.4754997 139.3679988
 113.5110012  20.9664997 139.5329988 113.4317887  20.1531548 139.8306858
 111.0530012  22.0944997 126.4559988 111.2360012  21.6454997 127.2819988
 110.4540012  21.5094997 125.9929988 110.9970202  21.9539975 126.5063275
  96.5830012  22.9094997 130.9879988  97.0290012  22.1174997 131.2899988
  97.0500012  23.6254997 131.4179988  96.7070831  22.8980685 131.0874006
  94.8870012  25.9084997 132.0569988  95.3790012  25.6874997 131.2659988
  95.2500012  26.7494997 132.3379988  95.0033126  25.9918357 131.9867531
 112.8840012  22.2384997 138.3219988 111.9660012  22.5094997 138.2869988
 113.0070012  21.7034997 137.5379988 112.7749729  22.2032508 138.2111923
 112.9200012  22.1614997 122.9839988 113.3320012  21.4404997 122.5089988
 113.6020012  22.8314997 123.0429988 113.0685885  22.1532368 122.9268915
  95.2010012  22.1664997 126.1109988  94.2760012  22.3754997 125.9819988
  95.6550012  22.6504997 125.4209988  95.1357292  22.2605343 126.0000720
 109.9720012  37.1504997 128.0569988 110.6240012  36.8034997 127.4489988
 110.4820012  37.6394997 128.7029988 110.1302637  37.1690597 128.0610236
  95.1650012  20.9044997 134.4549988  94.5000012  20.6584997 135.0989988
  94.7220012  21.5264997 133.8779988  95.0141318  20.9549410 134.4650898
  97.3570012  34.0794997 138.5999988  96.5360012  34.2544997 138.1389988
  97.1040012  34.0064997 139.5199988  97.2105585  34.0935544 138.6613561
 100.3110012  35.0544997 134.8579988  99.8860012  35.8634997 134.5759988
 101.2150012  35.1394997 134.5559988 100.3749975  35.1769300 134.7784816
 104.6220012  36.4534997 137.8179988 104.8070012  36.1194997 138.6959988
 105.4680012  36.7624997 137.4959988 104.7617539  36.4496047 137.8945605
 106.9670012  37.7394997 137.0619988 107.6440012  37.1064997 136.8219988
 107.2890012  38.1404997 137.8689988 107.1031637  37.7071154 137.1382793
 111.8840012  20.3284997 136.1409988 111.0720012  20.6534997 135.7539988
 112.1170012  19.5684997 135.6079988 111.8042203  20.2702758 136.0158880
  97.7130012  38.3104997 134.9059988  96.9920012  38.7504997 134.4549988
  97.3470012  38.0594997 135.7539988  97.5649651  38.3367242 134.9589640
 100.1800012  37.9104997 133.9359988  99.3150012  37.9824997 134.3399988
 100.1250012  38.4574997 133.1519988 100.0542085  37.9942685 133.8853362
 104.8900012  37.7984997 133.1109988 104.4340012  38.3274997 132.4569988
 105.0530012  38.4014997 133.8359988 104.8496068  37.9524607 133.1194838
 107.2180012  36.6764997 134.0559988 106.3130012  36.8414997 133.7899988
 107.6470012  37.5294997 133.9909988 107.1521324  36.8144339 134.0107976
 109.8220012  38.2464997 134.3509988 109.6400012  39.1624997 134.1409988
 109.9990012  37.8364997 133.5049988 109.8210210  38.3164822 134.2077885
  97.1270012  36.9334997 131.8159988  97.1090012  36.5084997 132.6729988
  97.9320012  36.6154997 131.4069988  97.2333529  36.8323013 131.8780946
  99.2690012  35.6434997 130.4709988  99.0500012  34.7274997 130.6409988
 100.0930012  35.7834997 130.9369988  99.3504420  35.5370520 130.5572774
 101.8060012  36.1134997 131.3199988 102.0190012  35.2254997 131.0329988
 101.8700012  36.0794997 132.2739988 101.8438232  35.9873102 131.4097397
 105.3140012  21.7774997 130.4639988 104.6400012  21.1484997 130.7199988
 105.8780012  21.2934997 129.8609988 105.2979230  21.6258744 130.4175340
 110.4570012  19.8854997 130.5769988 111.0610012  20.4324997 130.0749988
 109.5870012  20.2044997 130.3359988 110.4221208  20.0035137 130.4756886
 112.1840012  21.0234997 128.9099988 112.7960012  20.5094997 128.3829988
 112.5660012  21.9014997 128.9329988 112.3193371  21.0717866 128.8410041
  97.6410012  20.4114997 128.2859988  96.8640012  20.1774997 127.7789988
  98.1710012  19.6144997 128.2949988  97.6062330  20.2716988 128.2177742
  96.4770012  20.2094997 124.0899988  96.9160012  20.8204997 123.4979988
  95.8440012  20.7474997 124.5639988  96.4514514  20.3659257 124.0730930
 102.2200012  20.3384997 128.0999988 103.0950012  20.7264997 128.0699988
 102.0840012  20.1234997 129.0219988 102.3213695  20.3625184 128.2206440
 107.7770012  20.3684997 129.7489988 107.8530012  20.4634997 128.7989988
 107.5020012  19.4604997 129.8779988 107.7502321  20.2587867 129.6365079
 109.1300012  20.3944997 125.4409988 108.4280012  21.0094997 125.2309988
 108.6860012  19.5564997 125.5719988 108.9736450  20.3655639 125.4299000
  96.3780012  36.1574997 124.9869988  95.6930012  36.1194997 124.3199988
  96.3820012  37.0704997 125.2759988  96.2846998  36.2756733 124.9346771
  98.3380012  22.1254997 122.5319988  98.8300012  21.4954997 122.0049988
  98.9620012  22.4214997 123.1949988  98.4895688  22.0793804 122.5495482
 103.3640012  22.4184997 124.9889988 103.5420012  21.7724997 125.6719988
 103.3110012  23.2524997 125.4559988 103.3811999  22.4428009 125.1455917
 105.2430012  37.3674997 123.3849988 106.1090012  37.7334997 123.2069988
 104.9960012  36.9274997 122.5709988 105.3282392  37.3581756 123.2506289
 111.9520012  36.9304997 126.0639988 111.7570012  36.1824997 125.4989988
 111.9130012  37.6884997 125.4809988 111.9200380  36.9306099 125.9078384
  97.5990012  20.9254997 137.8039988  97.2330012  20.1604997 138.2459988
  98.5120012  20.9544997 138.0899988  97.6722736  20.8245640 137.9032502
  99.5720012  20.2764997 139.3399988 100.4700012  20.0024997 139.1549988
  99.1850012  19.5334997 139.8039988  99.6426612  20.1385914 139.3773643
  98.1960012  37.0774997 122.0129988  97.9290012  37.3644997 122.8859988
  98.9680012  36.5314997 122.1649988  98.2637488  37.0430294 122.1531050
 107.9930012  19.6084997 139.5219988 108.0700012  19.1824997 140.3759988
 108.8870012  19.6224997 139.1789988 108.1243428  19.5520879 139.5925310
 111.1690012  35.6814997 138.2139988 110.3870012  35.4954997 137.6939988
 111.0970012  36.6104997 138.4319988 111.0522274  35.7816643 138.1723018
 125.5750012  29.5674997 128.2449988 125.6640012  30.5114997 128.1129988
 124.9370012  29.2924997 127.5869988 125.5009081  29.6594830 128.1379614
 124.5080012  28.8224997 131.6639988 124.4700012  28.1764997 132.3689988
 124.1860012  28.3564997 130.8929988 124.4592333  28.6709408 131.6562978
 116.8770012  28.4374997 133.2569988 116.9180012  27.8114997 133.9799988
 117.5800012  29.0614997 133.4389988 116.9776363  28.4361196 133.3806044
 128.2140012  31.7614997 129.9649988 127.7740012  31.0414997 130.4159988
 128.2010012  32.4824997 130.5949988 128.1520226  31.7603731 130.1118494
 117.8000012  32.8874997 131.7919988 117.4310012  32.0854997 131.4219988
 118.7410012  32.7184997 131.8379988 117.8767289  32.7550153 131.7476316
 114.4100012  26.5474997 127.1849988 113.9630012  27.3934997 127.1659988
 113.8490012  25.9674997 126.6689988 114.2729900  26.5849916 127.1126801
 115.1210012  28.7094997 129.3099988 115.3340012  27.9394997 129.8379988
 115.8590012  28.7984997 128.7069988 115.2499044  28.6161968 129.3007123
 125.3260012  36.8664997 130.1769988 125.9460012  36.1894997 129.9039988
 125.1180012  36.6484997 131.0859988 125.3826726  36.7444800 130.2624812
 122.8980012  31.2554997 132.0699988 123.2020012  30.5694997 131.4749988
 123.6190012  31.3734997 132.6879988 123.0370671  31.1776305 132.0721816
 131.5610012  22.8564997 132.9309988 131.6100012  23.4664997 133.6659988
 131.9860012  23.3174997 132.2079988 131.6251746  23.0023796 132.9339175
 126.0390012  25.6494997 132.3969988 126.1810012  24.7034997 132.4179988
 125.9320012  25.8564997 131.4689988 126.0439919  25.5478246 132.2743408
 119.1930012  23.7504997 129.6699988 119.2370012  24.6104997 129.2509988
 118.7360012  23.1984997 129.0359988 119.1372240  23.7934422 129.5269864
 126.9160012  23.8814997 128.0709988 127.5620012  23.5524997 128.6949988
 127.4260012  24.3994997 127.4479988 127.0734299  23.9064450 128.0722731
 115.8140012  26.1474997 130.4319988 116.4670012  25.5974997 130.8639988
 115.8380012  25.8734997 129.5149988 115.9066683  26.0351466 130.3672123
 120.9700012  27.6974997 129.6469988 121.5860012  27.1714997 130.1569988
 120.3840012  27.0574997 129.2439988 120.9750810  27.5389208 129.6623173
 131.9520012  24.3344997 135.1659988 131.2640012  24.9924997 135.0709988
 131.9680012  24.1374997 136.1029988 131.8599540  24.3979819 135.2795990
 118.0040012  22.6684997 133.7439988 117.7850012  23.1984997 132.9779988
 117.3360012  22.8954997 134.3909988 117.8837600  22.7716906 133.7266379
 125.3730012  32.1684997 127.2879988 125.0770012  31.8464997 126.4369988
 125.0480012  33.0684997 127.3289988 125.2886371  32.2460215 127.1771801
 120.5730012  30.3444997 134.0309988 119.8330012  30.9424997 134.1349988
 121.2870012  30.8984997 133.7159988 120.5682237  30.5012831 134.0026465
 128.6800012  23.1724997 130.0509988 128.4640012  22.4064997 130.5839988
 129.3350012  23.6444997 130.5639988 128.7390632  23.1315889 130.1932861
 117.5970012  24.5604997 131.6959988 118.2110012  25.1934997 132.0689988
 118.1090012  24.0884997 131.0399988 117.7501981  24.5832267 131.6582908
 118.9800012  32.3084997 134.8179988 118.9750012  33.1884997 134.4399988
 118.1270012  32.2254997 135.2429988 118.8639464  32.4176117 134.8237907
 115.1010012  31.9794997 125.5999988 114.8290012  32.2084997 124.7119988
 115.1470012  32.8174997 126.0609988 115.0699482  32.1241318 125.5406273
 128.7260012  33.6014997 132.3129988 127.7850012  33.6594997 132.4749988
 129.0030012  34.5074997 132.1759988 128.6344679  33.7319443 132.3166815
 129.0270012  21.8874997 133.7309988 128.2910012  22.4984997 133.6929988
 129.7100012  22.3024997 133.2039988 129.0186541  22.0271374 133.6545832
 122.0300012  19.9744997 131.1959988 121.9130012  19.0254997 131.1419988
 121.1750012  20.3064997 131.4699988 121.8984212  19.8895571 131.2256497
 126.9780012  35.3824997 128.9379988 127.4040012  34.6754997 128.4529988
 127.2950012  36.1834997 128.5219988 127.0791683  35.3941017 128.8153680
 128.1380012  33.2834997 127.4469988 127.8800012  32.5934997 126.8359988
 128.2090012  32.8404997 128.2929988 128.1122856  33.1292124 127.4776885
 129.8240012  31.8494997 135.9239988 129.9640012  31.2584997 135.1849988
 129.9910012  32.7224997 135.5679988 129.8657411  31.8865428 135.7746894
 124.2970012  28.8114997 125.6969988 123.5850012  29.3464997 125.3449988
 124.9880012  28.8674997 125.0369988 124.2930132  28.8922543 125.5596289
 124.3500012  27.2694997 122.7359988 125.0510012  27.2914997 123.3869988
 124.6530012  26.6414997 122.0789988 124.4868133  27.1877070 122.7363369
 131.6660012  28.1894997 133.9899988 131.0130012  28.8844997 134.0799988
 132.1310012  28.3994997 133.1809988 131.6395274  28.3130643 133.8928462
 127.7020012  29.0214997 126.6489988 126.9700012  29.2494997 127.2219988
 128.1500012  28.3074997 127.1029988 127.6622725  28.9562145 126.7888816
 127.6000012  27.1954997 135.7159988 127.6800012  27.9584997 136.2879988
 126.9980012  27.4744997 135.0259988 127.5295756  27.3377134 135.7010589
 119.3480012  29.6514997 128.5309988 119.0170012  29.2814997 127.7129988
 119.9360012  28.9814997 128.8779988 119.3821873  29.5101156 128.4658102
 120.7140012  33.0794997 131.2119988 120.6200012  32.5014997 130.4559988
 121.4440012  32.7084997 131.7089988 120.7997387  32.9501663 131.1755342
 119.7140012  28.4204997 132.1649988 120.2800012  28.5414997 131.4019988
 120.0330012  29.0574997 132.8029988 119.8345474  28.5232219 132.1469862
 126.0230012  33.9234997 132.8989988 125.7830012  34.5854997 133.5469988
 125.8250012  33.0894997 133.3239988 125.9633808  33.9013134 133.0451524
 120.5940012  32.8194997 136.8819988 120.2830012  33.6014997 137.3369988
 119.9440012  32.6664997 136.1959988 120.4635558  32.9059105 136.8515871
 126.5730012  28.1834997 124.3339988 127.1530012  28.3334997 125.0809988
 126.9870012  28.6544997 123.6099988 126.7082997  28.2676578 124.3384058
 117.5140012  29.0174997 136.1099988 117.5850012  29.6684997 136.8089988
 116.6240012  29.1204997 135.7749988 117.4033005  29.1205427 136.1603495
 124.3000012  34.9204997 127.7689988 124.7740012  35.2154997 128.5459988
 123.7370012  35.6584997 127.5359988 124.2888184  35.0607247 127.8439628
 118.8340012  34.8914997 137.6449988 118.8410012  34.7554997 136.6979988
 117.9180012  34.7734997 137.8969988 118.7111714  34.8569430 137.5494666
 130.2720012  19.9334997 124.1469988 129.3720012  20.0724997 124.4419988
 130.5240012  20.7644997 123.7449988 130.1828702  20.0649074 124.1330205
 118.3380012  28.7214997 126.1199988 118.0460012  29.4894997 125.6299988
 117.6640012  28.0614997 125.9579988 118.2068111  28.7375587 126.0308978
 131.4610012  34.2994997 122.5229988 131.5350012  35.2384997 122.6939988
 132.3670012  33.9944997 122.4669988 131.5935100  34.3866722 122.5388119
 114.4310012  31.0844997 134.9349988 113.9300012  31.0564997 134.1199988
 114.4360012  30.1784997 135.2449988 114.3630944  30.9582396 134.8653226
 114.1810012  33.8644997 131.8189988 115.1270012  33.7204997 131.7999988
 114.0690012  34.6484997 132.3559988 114.2952727  33.9508046 131.8890072
 132.3790012  34.5304997 137.5019988 132.3300012  33.5754997 137.4649988
 131.5520012  34.7984997 137.9029988 132.2604940  34.4358998 137.5511375
 123.3580012  34.1044997 136.3779988 123.4450012  34.9304997 136.8529988
 122.4940012  33.7744997 136.6269988 123.2531964  34.1729878 136.4766549
 123.7720012  37.8764997 126.1839988 123.6970012  37.7554997 125.2369988
 123.8050012  38.8264997 126.3019988 123.7662068  37.9882646 126.0704967
 117.4250012  36.6654997 127.9649988 117.5780012  36.3174997 128.8429988
 116.5750012  36.3094997 127.7099988 117.3309166  36.5696216 128.0508079
 126.8740012  37.0304997 123.1859988 127.2490012  36.2864997 122.7149988
 126.8780012  36.7604997 124.1049988 126.9259125  36.8920986 123.2456483
 126.5430012  36.9564997 125.9349988 125.6070012  37.0564997 126.1139988
 126.8230012  36.2474997 126.5139988 126.4529553  36.8743406 126.0377087
 129.5310012  26.0234997 137.9819988 129.1240012  26.5044997 137.2609988
 129.5720012  25.1184997 137.6739988 129.4808437  25.9669374 137.8416683
 116.6800012  32.4074997 135.9789988 116.8960012  32.0464997 136.8379988
 115.8250012  32.0334997 135.7689988 116.5939292  32.3074111 136.0683386
 119.2990012  20.8774997 131.9739988 118.4370012  20.7904997 131.5659988
 119.2760012  21.7334997 132.4019988 119.1780409  20.9812883 131.9760589
 123.9620012  20.5994997 135.3489988 124.3820012  20.1844997 136.1019988
 123.0290012  20.4214997 135.4659988 123.8933644  20.5185900 135.4679539
 127.2880012  24.3554997 136.2019988 126.7740012  24.2294997 136.9999988
 127.1330012  25.2674997 135.9579988 127.1966852  24.4616132 136.2782158
 128.0510012  29.2164997 121.9639988 128.0930012  28.9934997 121.0339988
 128.9000012  29.6154997 122.1529988 128.1715280  29.2399438 121.8623554
 123.6230012  23.0924997 122.6339988 123.3700012  23.1114997 123.5569988
 123.3670012  22.2204997 122.3319988 123.5537481  22.9772558 122.7196175
 119.3900012  25.8434997 133.0689988 118.7480012  25.8024997 133.7779988
 119.4270012  26.7694997 132.8309988 119.3070664  25.9631430 133.1339219
 119.3870012  26.0644997 127.9809988 118.4940012  25.7234997 127.9219988
 119.8370012  25.6874997 127.2249988 119.3258130  25.9669631 127.8707702
 124.9220012  26.4804997 126.7979988 124.5130012  27.2954997 126.5069988
 125.6430012  26.3404997 126.1839988 124.9634537  26.5732018 126.6751342
 124.0240012  26.6554997 138.2859988 123.4620012  25.9514997 138.6069988
 124.8510012  26.5354997 138.7539988 124.0587095  26.5427883 138.3932330
 125.9270012  25.9264997 129.6119988 125.7320012  26.5314997 128.8969988
 126.1080012  25.0924997 129.1779988 125.9247614  25.8966300 129.4554405
 117.1400012  26.1634997 134.9359988 117.1020012  26.5634997 135.8049988
 116.6490012  25.3464997 135.0269988 117.0684684  26.1078069 135.0671059
 120.5060012  23.5374997 121.7349988 120.0750012  23.0924997 122.4649988
 119.7880012  23.9094997 121.2229988 120.3499438  23.5268940 121.7656799
 113.7480012  23.2794997 128.7869988 114.3790012  23.2504997 129.5059988
 114.1970012  22.8544997 128.0559988 113.8950918  23.2180836 128.7866441
 115.0220012  24.0254997 124.2109988 115.4960012  24.6164997 123.6259988
 114.3050012  24.5564997 124.5579988 114.9899341  24.1780867 124.1778836
 125.1910012  27.5644997 134.2829988 125.5140012  26.9334997 133.6399988
 124.7510012  27.0294997 134.9439988 125.1757484  27.4058387 134.2843198
 121.9680012  23.4914997 129.0669988 121.0570012  23.5484997 129.3559988
 122.4740012  23.4314997 129.8779988 121.9116899  23.4911941 129.2161184
 116.7970012  25.1204997 127.8939988 115.9070012  25.2204997 127.5539988
 117.0930012  24.2784997 127.5479988 116.7152823  25.0203545 127.8007213
 120.4500012  25.1204997 125.5509988 121.3810012  25.2494997 125.7289988
 120.2350012  25.7904997 124.9009988 120.5484247  25.2286565 125.4875747
 126.3730012  22.7264997 132.3319988 125.6970012  22.8574997 132.9959988
 125.8880012  22.5714997 131.5209988 126.2147146  22.7235157 132.3134469
 119.1240012  26.3154997 123.1169988 118.5810012  25.9354997 122.4259988
 119.9570012  26.5094997 122.6889988 119.1623631  26.2897125 122.9644501
 129.6610012  38.3984997 138.6079988 129.8610012  38.8224997 137.7739988
 130.3160012  38.7414997 139.2149988 129.7770073  38.5029857 138.5758592
 117.2590012  30.8724997 138.2159988 117.9910012  31.1264997 138.7779988
 116.4790012  31.0764997 138.7319988 117.2537073  30.9348160 138.3626151
 123.2880012  26.2794997 130.9539988 123.8530012  25.7324997 130.4069988
 123.1410012  25.7574997 131.7429988 123.3453380  26.1342259 130.9858695
 118.2900012  22.4154997 127.3729988 117.9730012  21.5134997 127.3369988
 119.0720012  22.4174997 126.8199988 118.3522408  22.2922474 127.2933569
 121.9150012  24.6674997 133.3679988 121.0790012  25.1214997 133.4789988
 122.4390012  24.9434997 134.1199988 121.8715416  24.7668660 133.4848119
 122.4590012  30.8804997 125.0529988 121.7140012  30.3734997 124.7309988
 122.3250012  30.9294997 125.9999988 122.3388776  30.8176940 125.1368647
 129.6090012  30.0134997 133.8399988 130.2510012  30.4704997 133.2959988
 128.7790012  30.1264997 133.3769988 129.5845963  30.0912704 133.7030177
 126.3570012  23.6944997 123.2519988 125.4180012  23.8064997 123.1009988
 126.6540012  24.5514997 123.5589988 126.2687583  23.8255981 123.2728337
 123.9780012  31.0644997 136.2899988 123.6330012  30.6834997 137.0969988
 123.7780012  31.9984997 136.3609988 123.9037527  31.1385135 136.4100689
 127.0750012  25.5614997 124.9129988 127.9670012  25.4244997 125.2319988
 127.1320012  26.3524997 124.3759988 127.2046504  25.6496052 124.8840818
 117.5840012  30.1754997 130.8229988 118.3290012  30.1734997 130.2219988
 117.6620012  29.3524997 131.3039988 117.6964995  30.0638887 130.8058282
 124.5850012  32.3394997 124.0789988 124.2890012  33.1654997 124.4599988
 123.8820012  31.7194997 124.2749988 124.4494914  32.3688199 124.1576443
 114.5920012  28.6364997 136.1379988 114.8150012  28.2184997 136.9699988
 113.9900012  28.0234997 135.7149988 114.5411759  28.4964668 136.1947022
 121.6080012  28.1534997 138.3509988 121.3120012  27.9874997 137.4559988
 122.5400012  27.9334997 138.3399988 121.6934166  28.1010640 138.2270536
 126.2290012  33.5264997 136.2409988 125.3280012  33.7094997 135.9729988
 126.2630012  33.7854997 137.1609988 126.1103139  33.5865849 136.3288099
 131.9600012  25.7714997 124.6079988 131.4060012  25.3754997 123.9359988
 132.0600012  26.6814997 124.3299988 131.8977059  25.8403586 124.4784401
 131.9230012  31.5714997 137.4449988 131.0720012  31.8094997 137.0779988
 132.5140012  31.5544997 136.6919988 131.8862487  31.6018258 137.2928893
 130.2550012  34.5574997 125.0729988 129.8820012  33.7314997 125.3819988
 130.5330012  34.3744997 124.1749988 130.2415222  34.4197430 124.9939473
 127.4160012  29.3654997 132.0939988 126.4870012  29.1334997 132.0669988
 127.8670012  28.5884997 131.7639988 127.3499216  29.2287238 132.0456917
 119.9590012  33.6934997 128.2269988 120.4860012  34.4664997 128.0269988
 119.0790012  33.9184997 127.9249988 119.9122031  33.8297545 128.1587912
 115.7140012  28.5554997 122.8139988 116.3300012  29.1824997 123.1939988
 114.8520012  28.8714997 123.0859988 115.6817698  28.6839430 122.9027183
 121.3860012  31.3564997 127.8029988 121.1450012  32.2814997 127.8449988
 120.6450012  30.8974997 128.1999988 121.2529225  31.4210933 127.8623742
 121.9010012  35.5054997 134.1189988 122.2630012  36.3604997 133.8849988
 122.4320012  35.2134997 134.8589988 122.0224473  35.5831060 134.1870855
 120.0690012  36.3784997 127.3489988 119.1190012  36.4834997 127.3999988
 120.4210012  37.1984997 127.6929988 119.9864195  36.5038800 127.4025502
 125.4450012  31.6044997 133.8189988 125.0190012  31.3774997 134.6459988
 126.0250012  30.8664997 133.6369988 125.4651868  31.4735299 133.9075830
 127.6480012  32.5334997 122.8929988 128.0010012  32.1534997 123.6969988
 126.6990012  32.4404997 122.9799988 127.5680918  32.4688956 123.0148532
 128.1030012  36.1564997 136.2889988 127.5020012  35.6014997 135.7929988
 128.3850012  36.8234997 135.6619988 128.0588804  36.1706625 136.1364849
 132.1510012  37.0134997 123.0939988 132.8950012  37.5994997 122.9539988
 131.4570012  37.5814997 123.4269988 132.1589899  37.1705798 123.1198778
 116.2260012  23.3894997 135.6959988 115.3330012  23.7284997 135.6279988
 116.1270012  22.5344997 136.1139988 116.0904164  23.3202588 135.7432235
 128.5140012  31.2064997 125.1199988 128.2360012  30.4784997 125.6759988
 129.4410012  31.3254997 125.3249988 128.6013124  31.1228802 125.2238845
 115.8770012  35.1944997 134.1309988 116.0940012  34.2624997 134.0999988
 116.1230012  35.4684997 135.0139988 115.9399549  35.1040636 134.2461763
 121.7390012  33.6454997 121.3399988 121.9780012  32.8974997 120.7929988
 121.4700012  33.2574997 122.1729988 121.7353675  33.4906638 121.3776865
 120.6760012  33.2154997 123.7959988 120.8220012  32.6954997 124.5859988
 120.6730012  34.1224997 124.1029988 120.6955792  33.2668842 123.9456117
 117.1290012  30.4684997 124.3069988 116.4430012  30.8204997 124.8739988
 117.6510012  31.2314997 124.0599988 117.1056852  30.6198578 124.3512118
 124.9600012  23.1304997 134.5859988 125.6590012  23.2044997 135.2359988
 124.5790012  22.2664997 134.7399988 125.0041767  23.0237624 134.6958322
 125.7450012  22.7824997 125.6829988 125.9650012  23.2544997 124.8799988
 126.3030012  23.1774997 126.3529988 125.8504968  22.9004285 125.6637331
 123.4130012  34.9134997 124.5459988 122.5970012  35.4104997 124.5979988
 123.9430012  35.3884997 123.9059988 123.3729161  35.0457722 124.4665956
 122.9450012  24.5104997 126.5179988 123.7570012  25.0154997 126.5639988
 122.7000012  24.3654997 127.4319988 123.0230520  24.5600375 126.6478517
 123.4800012  25.4964997 135.7019988 123.5990012  26.0704997 136.4599988
 124.1360012  24.8084997 135.8169988 123.5849025  25.4819858 135.8211321
 123.8280012  21.5914997 127.4559988 123.4820012  22.2094997 128.0999988
 124.4870012  22.0924997 126.9739988 123.8696968  21.7436278 127.4789383
 120.7520012  35.9574997 124.5269988 120.9120012  36.7564997 124.0269988
 120.5540012  36.2634997 125.4119988 120.7471637  36.1084020 124.5781144
 119.4860012  22.6544997 124.1429988 119.4030012  23.5434997 124.4899988
 120.3760012  22.3894997 124.3749988 119.5949469  22.7401430 124.2217626
 129.6850012  23.4034997 136.5369988 128.7680012  23.6664997 136.4499988
 130.0200012  23.4004997 135.6409988 129.6048613  23.4390761 136.4038837
 128.2870012  27.1544997 130.6329988 127.4890012  26.7394997 130.3049988
 128.7320012  26.4634997 131.1239988 128.2379885  27.0043543 130.6544889
 117.7450012  33.0824997 123.2039988 118.3370012  33.7814997 123.4799988
 118.2040012  32.6494997 122.4839988 117.8881142  33.1197049 123.1444830
 116.0610012  25.7464997 122.3199988 116.0160012  26.6854997 122.4979988
 115.1730012  25.5104997 122.0499988 115.9348574  25.8431892 122.3078912
 129.3730012  36.4104997 132.2559988 129.2180012  37.0884997 131.5979988
 130.3060012  36.4824997 132.4589988 129.4778657  36.5129546 132.1934360
 116.8690012  20.5284997 130.9929988 116.6400012  20.5874997 130.0649988
 116.4260012  19.7364997 131.2989988 116.7778530  20.4295753 130.9074786
 115.7990012  34.4684997 127.1529988 114.9670012  34.9414997 127.1799988
 116.3450012  34.9784997 126.5549988 115.7590352  34.6021332 127.0758463
 115.0870012  37.0814997 138.4829988 115.6280012  36.8644997 139.2429988
 114.6060012  36.2754997 138.2929988 115.0959951  36.9429270 138.5612576
 119.6850012  36.0004997 140.1029988 120.4520012  35.5414997 140.4439988
 119.6630012  35.7744997 139.1739988 119.7871275  35.9070186 140.0240101
 123.7770012  35.5084997 121.4789988 123.1330012  34.8774997 121.7999988
 124.5390012  34.9774997 121.2469988 123.7918077  35.3502920 121.4916011
 126.2620012  34.3804997 138.8329988 125.9110012  33.5244997 139.0759988
 126.9880012  34.5234997 139.4399988 126.3120769  34.2825636 138.9483619
 128.3810012  35.3254997 121.7119988 128.6640012  34.5314997 122.1649988
 129.1210012  35.5584997 121.1519988 128.5198006  35.2483376 121.6982715
 114.9940012  30.8914997 139.4369988 115.1380012  29.9894997 139.1509988
 114.2220012  31.1774997 138.9499988 114.9092753  30.8066816 139.3319505
 119.3360012  31.2354997 121.5699988 119.4000012  30.4414997 122.1009988
 119.9890012  31.1164997 120.8799988 119.4330241  31.1107148 121.5494317
 121.6500012  30.8614997 138.8699988 121.3210012  31.1324997 138.0129988
 121.8020012  29.9204997 138.7829988 121.6254809  30.7713862 138.7408244
 124.6880012  32.2824997 121.3059988 124.4190012  32.4624997 122.2069988
 124.4820012  31.3564997 121.1739988 124.6233427  32.1820261 121.4115073
 127.3840012  30.7774997 136.2529988 128.1300012  31.3654997 136.1339988
 126.6270012  31.3594997 136.3169988 127.3837820  30.9367143 136.2453590
 115.8270012  28.0914997 138.8569988 116.2350012  27.2344997 138.7359988
 115.5670012  28.1064997 139.7779988 115.8477568  27.9760807 138.9649588
 120.4850012  29.2074997 123.8759988 120.0250012  28.7234997 124.5619988
 120.7400012  28.5394997 123.2399988 120.4564902  29.0508731 123.8839334
 119.7740012  27.1004997 136.2319988 119.1560012  27.7754997 136.5119988
 120.1180012  27.4214997 135.3979988 119.7359132  27.2362411 136.1576262
 121.5560012  27.4504997 122.1379988 121.3760012  27.2964997 121.2109988
 122.5060012  27.5584997 122.1829988 121.6597776  27.4440175 122.0171843
 124.7940012  29.5724997 139.5089988 125.7470012  29.6554997 139.4819988
 124.6330012  28.8604997 140.1289988 124.9026426  29.4876746 139.5890578
 130.9460012  29.8054997 121.5839988 130.6720012  29.3804997 120.7709988
 130.9850012  30.7364997 121.3669988 130.9137699  29.8732484 121.4433610
 120.1130012  24.4554997 137.3139988 120.2630012  23.7264997 136.7119988
 120.1160012  25.2324997 136.7549988 120.1339302  24.4607851 137.1560692
 120.5260012  22.8254997 134.8069988 121.0620012  23.2764997 134.1549988
 119.6740012  22.7174997 134.3839988 120.4842178  22.8726390 134.6605756
 122.1080012  28.2644997 135.0459988 122.8580012  28.1084997 134.4729988
 121.7690012  29.1164997 134.7709988 122.1648921  28.3582968 134.9303561
 126.5230012  26.0794997 140.0749988 126.7160012  25.1484997 139.9629988
 127.3810012  26.5044997 140.0639988 126.6652934  26.0096531 140.0582031
 127.8400012  28.8684997 138.1519988 127.5590012  29.5774997 137.5739988
 128.7830012  28.7954997 138.0009988 127.9289291  28.9556711 138.0524967
 118.5920012  25.6534997 139.2259988 117.8250012  25.1214997 139.0149988
 119.2710012  25.3434997 138.6259988 118.5787877  25.5388300 139.1160716
 121.3320012  20.2814997 135.2379988 121.2330012  21.2284997 135.1329988
 120.5890012  19.9094997 134.7619988 121.2181184  20.3605863 135.1593621
 122.5960012  24.6034997 138.8019988 122.3600012  24.3834997 139.7029988
 121.8120012  24.3964997 138.2919988 122.4578504  24.5454586 138.8563431
 125.3110012  23.7304997 137.8769988 124.3640012  23.7624997 138.0099988
 125.6240012  23.1054997 138.5309988 125.2236707  23.6503998 137.9836060
 126.9450012  22.3644997 139.8829988 126.8490012  21.4124997 139.8769988
 126.6240012  22.6334997 140.7429988 126.8884070  22.2704035 139.9985441
 116.7720012  23.5744997 138.9299988 116.9840012  22.8674997 138.3199988
 116.6610012  23.1364997 139.7739988 116.7859721  23.4187084 138.9606843
 121.5530012  19.5754997 137.9089988 122.2650012  18.9354997 137.8949988
 121.4520012  19.8424997 136.9959988 121.6368066  19.5240079 137.7835677
 121.9070012  21.2584997 139.9629988 121.7750012  20.7824997 139.1429988
 121.3080012  22.0024997 139.9079988 121.8079071  21.2939618 139.8432886
 121.4530012  38.1414997 123.1389988 122.3860012  38.2994997 123.2829988
 121.1890012  38.8164997 122.5149988 121.5449888  38.2544510 123.0742842
 115.0220012  32.7774997 122.6219988 115.9360012  32.8564997 122.8959988
 115.0290012  32.0904997 121.9559988 115.1481131  32.6953961 122.5694393
 113.6710012  38.1704997 127.6999988 113.0240012  37.7084997 127.1669988
 114.0250012  37.4984997 128.2819988 113.6303849  38.0164723 127.7057959
 114.5410012  36.2514997 129.5039988 114.2060012  35.3714997 129.6759988
 114.7630012  36.5964997 130.3689988 114.5251783  36.1777500 129.6444208
 132.0890012  37.0604997 132.4849988 132.0680012  37.2454997 133.4239988
 132.7800012  37.6294997 132.1439988 132.1794618  37.1626606 132.5673864
 131.6530012  36.6284997 135.4069988 131.1650012  35.8924997 135.0349988
 132.2020012  36.2344997 136.0849988 131.6604820  36.4745889 135.4477813
 130.1030012  32.4174997 140.0449988 129.2370012  32.3124997 140.4389988
 130.4800012  33.1764997 140.4909988 130.0353308  32.5056900 140.1592393
 131.4040012  30.6744997 125.5589988 132.2540012  31.0954997 125.6859988
 131.4100012  29.9344997 126.1659988 131.5211372  30.6320803 125.6584344
 131.7990012  28.7274997 127.3819988 131.0720012  28.2484997 127.7799988
 132.3800012  28.9334997 128.1149988 131.7780473  28.6898103 127.5354528
 131.5580012  31.5124997 132.3299988 132.3910012  31.1344997 132.0499988
 131.6700012  32.4554997 132.2109988 131.6872647  31.5882218 132.2755487
 130.0440012  34.3904997 134.6369988 129.3970012  34.7154997 135.2629988
 129.5270012  33.9504997 133.9629988 129.8854029  34.3755004 134.6315827
 132.0670012  28.6284997 123.7739988 131.5450012  28.9854997 123.0549988
 132.0340012  29.3034997 124.4519988 131.9911634  28.7685413 123.7673145
 130.4160012  25.8684997 122.3239988 130.5120012  26.5354997 121.6439988
 130.2760012  25.0524997 121.8429988 130.4102272  25.8495655 122.1658347
 129.5850012  27.2484997 127.9449988 129.4350012  26.3034997 127.9249988
 129.2320012  27.5294997 128.7889988 129.5167448  27.1571481 128.0563705
 114.6210012  29.3264997 131.9559988 114.8050012  29.2444997 131.0199988
 115.4700012  29.2024997 132.3789988 114.7610151  29.2985073 131.8851451
 130.4420012  29.2184997 137.5839988 131.0250012  28.4844997 137.7759988
 131.0060012  29.9904997 137.6309988 130.5979769  29.2224227 137.6166159
 131.9380012  27.1214997 138.2689988 131.0750012  26.7424997 138.1029988
 132.5430012  26.3824997 138.1939988 131.9016119  26.9698268 138.2361528
 129.6630012  23.2764997 121.4419988 130.2740012  22.9054997 122.0789988
 128.8270012  22.8554997 121.6379988 129.6335032  23.1687554 121.5557035
 129.2960012  24.8314997 126.4079988 129.5760012  23.9244997 126.5319988
 130.0550012  25.2654997 126.0189988 129.4369277  24.7660942 126.3723682
 129.9080012  25.4124997 131.8439988 130.8410012  25.6244997 131.8089988
 129.6730012  25.5144997 132.7659988 130.0039244  25.4553100 131.9638892
 129.9370012  26.1494997 134.6199988 129.0940012  26.4174997 134.9859988
 130.3790012  26.9714997 134.4089988 129.8814158  26.2973291 134.6415491
 114.2180012  24.5974997 138.0969988 115.1380012  24.4754997 138.3329988
 113.7690012  23.8474997 138.4859988 114.2831580  24.4793727 138.1819006
 132.2200012  20.1294997 139.9729988 132.5700012  19.4754997 139.3679988
 132.3670012  20.9664997 139.5329988 132.2877887  20.1531548 139.8306858
 129.9090012  22.0944997 126.4559988 130.0920012  21.6454997 127.2819988
 129.3100012  21.5094997 125.9929988 129.8530202  21.9539975 126.5063275
 115.4390012  22.9094997 130.9879988 115.8850012  22.1174997 131.2899988
 115.9060012  23.6254997 131.4179988 115.5630831  22.8980685 131.0874006
 113.7430012  25.9084997 132.0569988 114.2350012  25.6874997 131.2659988
 114.1060012  26.7494997 132.3379988 113.8593126  25.9918357 131.9867531
 131.7400012  22.2384997 138.3219988 130.8220012  22.5094997 138.2869988
 131.8630012  21.7034997 137.5379988 131.6309729  22.2032508 138.2111923
 131.7760012  22.1614997 122.9839988 132.1880012  21.4404997 122.5089988
 132.4580012  22.8314997 123.0429988 131.9245885  22.1532368 122.9268915
 114.0570012  22.1664997 126.1109988 113.1320012  22.3754997 125.9819988
 114.5110012  22.6504997 125.4209988 113.9917292  22.2605343 126.0000720
 128.8280012  37.1504997 128.0569988 129.4800012  36.8034997 127.4489988
 129.3380012  37.6394997 128.7029988 128.9862637  37.1690597 128.0610236
 114.0210012  20.9044997 134.4549988 113.3560012  20.6584997 135.0989988
 113.5780012  21.5264997 133.8779988 113.8701318  20.9549410 134.4650898
 116.2130012  34.0794997 138.5999988 115.3920012  34.2544997 138.1389988
 115.9600012  34.0064997 139.5199988 116.0665585  34.0935544 138.6613561
 119.1670012  35.0544997 134.8579988 118.7420012  35.8634997 134.5759988
 120.0710012  35.1394997 134.5559988 119.2309975  35.1769300 134.7784816
 123.4780012  36.4534997 137.8179988 123.6630012  36.1194997 138.6959988
 124.3240012  36.7624997 137.4959988 123.6177539  36.4496047 137.8945605
 125.8230012  37.7394997 137.0619988 126.5000012  37.1064997 136.8219988
 126.1450012  38.1404997 137.8689988 125.9591637  37.7071154 137.1382793
 130.7400012  20.3284997 136.1409988 129.9280012  20.6534997 135.7539988
 130.9730012  19.5684997 135.6079988 130.6602203  20.2702758 136.0158880
 116.5690012  38.3104997 134.9059988 115.8480012  38.7504997 134.4549988
 116.2030012  38.0594997 135.7539988 116.4209651  38.3367242 134.9589640
 119.0360012  37.9104997 133.9359988 118.1710012  37.9824997 134.3399988
 118.9810012  38.4574997 133.1519988 118.9102085  37.9942685 133.8853362
 123.7460012  37.7984997 133.1109988 123.2900012  38.3274997 132.4569988
 123.9090012  38.4014997 133.8359988 123.7056068  37.9524607 133.1194838
 126.0740012  36.6764997 134.0559988 125.1690012  36.8414997 133.7899988
 126.5030012  37.5294997 133.9909988 126.0081324  36.8144339 134.0107976
 128.6780012  38.2464997 134.3509988 128.4960012  39.1624997 134.1409988
 128.8550012  37.8364997 133.5049988 128.6770210  38.3164822 134.2077885
 115.9830012  36.9334997 131.8159988 115.9650012  36.5084997 132.6729988
 116.7880012  36.6154997 131.4069988 116.0893529  36.8323013 131.8780946
 118.1250012  35.6434997 130.4709988 117.9060012  34.7274997 130.6409988
 118.9490012  35.7834997 130.9369988 118.2064420  35.5370520 130.5572774
 120.6620012  36.1134997 131.3199988 120.8750012  35.2254997 131.0329988
 120.7260012  36.0794997 132.2739988 120.6998232  35.9873102 131.4097397
 124.1700012  21.7774997 130.4639988 123.4960012  21.1484997 130.7199988
 124.7340012  21.2934997 129.8609988 124.1539230  21.6258744 130.4175340
 129.3130012  19.8854997 130.5769988 129.9170012  20.4324997 130.0749988
 128.4430012  20.2044997 130.3359988 129.2781208  20.0035137 130.4756886
 131.0400012  21.0234997 128.9099988 131.6520012  20.5094997 128.3829988
 131.4220012  21.9014997 128.9329988 131.1753371  21.0717866 128.8410041
 116.4970012  20.4114997 128.2859988 115.7200012  20.1774997 127.7789988
 117.0270012  19.6144997 128.2949988 116.4622330  20.2716988 128.2177742
 115.3330012  20.2094997 124.0899988 115.7720012  20.8204997 123.4979988
 114.7000012  20.7474997 124.5639988 115.3074514  20.3659257 124.0730930
 121.0760012  20.3384997 128.0999988 121.9510012  20.7264997 128.0699988
 120.9400012  20.1234997 129.0219988 121.1773695  20.3625184 128.2206440
 126.6330012  20.3684997 129.7489988 126.7090012  20.4634997 128.7989988
 126.3580012  19.4604997 129.8779988 126.6062321  20.2587867 129.6365079
 127.9860012  20.3944997 125.4409988 127.2840012  21.0094997 125.2309988
 127.5420012  19.5564997 125.5719988 127.8296450  20.3655639 125.4299000
 115.2340012  36.1574997 124.9869988 114.5490012  36.1194997 124.3199988
 115.2380012  37.0704997 125.2759988 115.1406998  36.2756733 124.9346771
 117.1940012  22.1254997 122.5319988 117.6860012  21.4954997 122.0049988
 117.8180012  22.4214997 123.1949988 117.3455688  22.0793804 122.5495482
 122.2200012  22.4184997 124.9889988 122.3980012  21.7724997 125.6719988
 122.1670012  23.2524997 125.4559988 122.2371999  22.4428009 125.1455917
 124.0990012  37.3674997 123.3849988 124.9650012  37.7334997 123.2069988
 123.8520012  36.9274997 122.5709988 124.1842392  37.3581756 123.2506289
 130.8080012  36.9304997 126.0639988 130.6130012  36.1824997 125.4989988
 130.7690012  37.6884997 125.4809988 130.7760380  36.9306099 125.9078384
 116.4550012  20.9254997 137.8039988 116.0890012  20.1604997 138.2459988
 117.3680012  20.9544997 138.0899988 116.5282736  20.8245640 137.9032502
 118.4280012  20.2764997 139.3399988 119.3260012  20.0024997 139.1549988
 118.0410012  19.5334997 139.8039988 118.4986612  20.1385914 139.3773643
 117.0520012  37.0774997 122.0129988 116.7850012  37.3644997 122.8859988
 117.8240012  36.5314997 122.1649988 117.1197488  37.0430294 122.1531050
 126.8490012  19.6084997 139.5219988 126.9260012  19.1824997 140.3759988
 127.7430012  19.6224997 139.1789988 126.9803428  19.5520879 139.5925310
 130.0250012  35.6814997 138.2139988 129.2430012  35.4954997 137.6939988
 129.9530012  36.6104997 138.4319988 129.9082274  35.7816643 138.1723018
 144.4310012  29.5674997 128.2449988 144.5200012  30.5114997 128.1129988
 143.7930012  29.2924997 127.5869988 144.3569081  29.6594830 128.1379614
 143.3640012  28.8224997 131.6639988 143.3260012  28.1764997 132.3689988
 143.0420012  28.3564997 130.8929988 143.3152333  28.6709408 131.6562978
 135.7330012  28.4374997 133.2569988 135.7740012  27.8114997 133.9799988
 136.4360012  29.0614997 133.4389988 135.8336363  28.4361196 133.3806044
 136.6560012  32.8874997 131.7919988 136.2870012  32.0854997 131.4219988
 137.5970012  32.7184997 131.8379988 136.7327289  32.7550153 131.7476316
 133.2660012  26.5474997 127.1849988 132.8190012  27.3934997 127.1659988
 132.7050012  25.9674997 126.6689988 133.1289900  26.5849916 127.1126801
 133.9770012  28.7094997 129.3099988 134.1900012  27.9394997 129.8379988
 134.7150012  28.7984997 128.7069988 134.1059044  28.6161968 129.3007123
 144.1820012  36.8664997 130.1769988 144.8020012  36.1894997 129.9039988
 143.9740012  36.6484997 131.0859988 144.2386726  36.7444800 130.2624812
 141.7540012  31.2554997 132.0699988 142.0580012  30.5694997 131.4749988
 142.4750012  31.3734997 132.6879988 141.8930671  31.1776304 132.0721816
 144.8950012  25.6494997 132.3969988 145.0370012  24.7034997 132.4179988
 144.7880012  25.8564997 131.4689988 144.8999919  25.5478246 132.2743408
 138.0490012  23.7504997 129.6699988 138.0930012  24.6104997 129.2509988
 137.5920012  23.1984997 129.0359988 137.9932240  23.7934422 129.5269864
 134.6700012  26.1474997 130.4319988 135.3230012  25.5974997 130.8639988
 134.6940012  25.8734997 129.5149988 134.7626683  26.0351466 130.3672123
 139.8260012  27.6974997 129.6469988 140.4420012  27.1714997 130.1569988
 139.2400012  27.0574997 129.2439988 139.8310810  27.5389208 129.6623173
 136.8600012  22.6684997 133.7439988 136.6410012  23.1984997 132.9779988
 136.1920012  22.8954997 134.3909988 136.7397600  22.7716906 133.7266379
 144.2290012  32.1684997 127.2879988 143.9330012  31.8464997 126.4369988
 143.9040012  33.0684997 127.3289988 144.1446371  32.2460215 127.1771801
 139.4290012  30.3444997 134.0309988 138.6890012  30.9424997 134.1349988
 140.1430012  30.8984997 133.7159988 139.4242237  30.5012831 134.0026465
 136.4530012  24.5604997 131.6959988 137.0670012  25.1934997 132.0689988
 136.9650012  24.0884997 131.0399988 136.6061981  24.5832267 131.6582908
 137.8360012  32.3084997 134.8179988 137.8310012  33.1884997 134.4399988
 136.9830012  32.2254997 135.2429988 137.7199464  32.4176117 134.8237907
 133.9570012  31.9794997 125.5999988 133.6850012  32.2084997 124.7119988
 134.0030012  32.8174997 126.0609988 133.9259482  32.1241318 125.5406273
 140.8860012  19.9744997 131.1959988 140.7690012  19.0254997 131.1419988
 140.0310012  20.3064997 131.4699988 140.7544212  19.8895571 131.2256497
 143.1530012  28.8114997 125.6969988 142.4410012  29.3464997 125.3449988
 143.8440012  28.8674997 125.0369988 143.1490132  28.8922543 125.5596289
 143.2060012  27.2694997 122.7359988 143.9070012  27.2914997 123.3869988
 143.5090012  26.6414997 122.0789988 143.3428133  27.1877070 122.7363369
 138.2040012  29.6514997 128.5309988 137.8730012  29.2814997 127.7129988
 138.7920012  28.9814997 128.8779988 138.2381873  29.5101156 128.4658102
 139.5700012  33.0794997 131.2119988 139.4760012  32.5014997 130.4559988
 140.3000012  32.7084997 131.7089988 139.6557387  32.9501663 131.1755342
 138.5700012  28.4204997 132.1649988 139.1360012  28.5414997 131.4019988
 138.8890012  29.0574997 132.8029988 138.6905474  28.5232219 132.1469862
 144.8790012  33.9234997 132.8989988 144.6390012  34.5854997 133.5469988
 144.6810012  33.0894997 133.3239988 144.8193808  33.9013134 133.0451524
 139.4500012  32.8194997 136.8819988 139.1390012  33.6014997 137.3369988
 138.8000012  32.6664997 136.1959988 139.3195558  32.9059105 136.8515871
 136.3700012  29.0174997 136.1099988 136.4410012  29.6684997 136.8089988
 135.4800012  29.1204997 135.7749988 136.2593005  29.1205427 136.1603495
 143.1560012  34.9204997 127.7689988 143.6300012  35.2154997 128.5459988
 142.5930012  35.6584997 127.5359988 143.1448184  35.0607247 127.8439628
 137.6900012  34.8914997 137.6449988 137.6970012  34.7554997 136.6979988
 136.7740012  34.7734997 137.8969988 137.5671714  34.8569430 137.5494666
 137.1940012  28.7214997 126.1199988 136.9020012  29.4894997 125.6299988
 136.5200012  28.0614997 125.9579988 137.0628111  28.7375587 126.0308978
 133.2870012  31.0844997 134.9349988 132.7860012  31.0564997 134.1199988
 133.2920012  30.1784997 135.2449988 133.2190944  30.9582396 134.8653226
 133.0370012  33.8644997 131.8189988 133.9830012  33.7204997 131.7999988
 132.9250012  34.6484997 132.3559988 133.1512727  33.9508046 131.8890072
 142.2140012  34.1044997 136.3779988 142.3010012  34.9304997 136.8529988
 141.3500012  33.7744997 136.6269988 142.1091964  34.1729878 136.4766549
 142.6280012  37.8764997 126.1839988 142.5530012  37.7554997 125.2369988
 142.6610012  38.8264997 126.3019988 142.6222068  37.9882646 126.0704967
 136.2810012  36.6654997 127.9649988 136.4340012  36.3174997 128.8429988
 135.4310012  36.3094997 127.7099988 136.1869166  36.5696216 128.0508079
 135.5360012  32.4074997 135.9789988 135.7520012  32.0464997 136.8379988
 134.6810012  32.0334997 135.7689988 135.4499292  32.3074111 136.0683386
 138.1550012  20.8774997 131.9739988 137.2930012  20.7904997 131.5659988
 138.1320012  21.7334997 132.4019988 138.0340409  20.9812883 131.9760589
 142.8180012  20.5994997 135.3489988 143.2380012  20.1844997 136.1019988
 141.8850012  20.4214997 135.4659988 142.7493644  20.5185900 135.4679539
 142.4790012  23.0924997 122.6339988 142.2260012  23.1114997 123.5569988
 142.2230012  22.2204997 122.3319988 142.4097481  22.9772558 122.7196175
 138.2460012  25.8434997 133.0689988 137.6040012  25.8024997 133.7779988
 138.2830012  26.7694997 132.8309988 138.1630664  25.9631430 133.1339219
 138.2430012  26.0644997 127.9809988 137.3500012  25.7234997 127.9219988
 138.6930012  25.6874997 127.2249988 138.1818130  25.9669631 127.8707702
 143.7780012  26.4804997 126.7979988 143.3690012  27.2954997 126.5069988
 144.4990012  26.3404997 126.1839988 143.8194537  26.5732018 126.6751342
 142.8800012  26.6554997 138.2859988 142.3180012  25.9514997 138.6069988
 143.7070012  26.5354997 138.7539988 142.9147095  26.5427883 138.3932330
 144.7830012  25.9264997 129.6119988 144.5880012  26.5314997 128.8969988
 144.9640012  25.0924997 129.1779988 144.7807614  25.8966300 129.4554405
 135.9960012  26.1634997 134.9359988 135.9580012  26.5634997 135.8049988
 135.5050012  25.3464997 135.0269988 135.9244684  26.1078069 135.0671059
 139.3620012  23.5374997 121.7349988 138.9310012  23.0924997 122.4649988
 138.6440012  23.9094997 121.2229988 139.2059438  23.5268940 121.7656799
 132.6040012  23.2794997 128.7869988 133.2350012  23.2504997 129.5059988
 133.0530012  22.8544997 128.0559988 132.7510918  23.2180836 128.7866441
 133.8780012  24.0254997 124.2109988 134.3520012  24.6164997 123.6259988
 133.1610012  24.5564997 124.5579988 133.8459341  24.1780867 124.1778836
 144.0470012  27.5644997 134.2829988 144.3700012  26.9334997 133.6399988
 143.6070012  27.0294997 134.9439988 144.0317484  27.4058387 134.2843198
 140.8240012  23.4914997 129.0669988 139.9130012  23.5484997 129.3559988
 141.3300012  23.4314997 129.8779988 140.7676899  23.4911941 129.2161184
 135.6530012  25.1204997 127.8939988 134.7630012  25.2204997 127.5539988
 135.9490012  24.2784997 127.5479988 135.5712823  25.0203545 127.8007213
 139.3060012  25.1204997 125.5509988 140.2370012  25.2494997 125.7289988
 139.0910012  25.7904997 124.9009988 139.4044247  25.2286565 125.4875747
 137.9800012  26.3154997 123.1169988 137.4370012  25.9354997 122.4259988
 138.8130012  26.5094997 122.6889988 138.0183631  26.2897125 122.9644501
 136.1150012  30.8724997 138.2159988 136.8470012  31.1264997 138.7779988
 135.3350012  31.0764997 138.7319988 136.1097073  30.9348160 138.3626151
 142.1440012  26.2794997 130.9539988 142.7090012  25.7324997 130.4069988
 141.9970012  25.7574997 131.7429988 142.2013380  26.1342259 130.9858695
 137.1460012  22.4154997 127.3729988 136.8290012  21.5134997 127.3369988
 137.9280012  22.4174997 126.8199988 137.2082408  22.2922474 127.2933569
 140.7710012  24.6674997 133.3679988 139.9350012  25.1214997 133.4789988
 141.2950012  24.9434997 134.1199988 140.7275416  24.7668660 133.4848119
 141.3150012  30.8804997 125.0529988 140.5700012  30.3734997 124.7309988
 141.1810012  30.9294997 125.9999988 141.1948776  30.8176940 125.1368647
 142.8340012  31.0644997 136.2899988 142.4890012  30.6834997 137.0969988
 142.6340012  31.9984997 136.3609988 142.7597527  31.1385135 136.4100689
 136.4400012  30.1754997 130.8229988 137.1850012  30.1734997 130.2219988
 136.5180012  29.3524997 131.3039988 136.5524995  30.0638887 130.8058282
 143.4410012  32.3394997 124.0789988 143.1450012  33.1654997 124.4599988
 142.7380012  31.7194997 124.2749988 143.3054914  32.3688199 124.1576443
 133.4480012  28.6364997 136.1379988 133.6710012  28.2184997 136.9699988
 132.8460012  28.0234997 135.7149988 133.3971759  28.4964668 136.1947022
 140.4640012  28.1534997 138.3509988 140.1680012  27.9874997 137.4559988
 141.3960012  27.9334997 138.3399988 140.5494166  28.1010640 138.2270536
 138.8150012  33.6934997 128.2269988 139.3420012  34.4664997 128.0269988
 137.9350012  33.9184997 127.9249988 138.7682031  33.8297545 128.1587912
 134.5700012  28.5554997 122.8139988 135.1860012  29.1824997 123.1939988
 133.7080012  28.8714997 123.0859988 134.5377698  28.6839430 122.9027183
 140.2420012  31.3564997 127.8029988 140.0010012  32.2814997 127.8449988
 139.5010012  30.8974997 128.1999988 140.1089225  31.4210933 127.8623742
 140.7570012  35.5054997 134.1189988 141.1190012  36.3604997 133.8849988
 141.2880012  35.2134997 134.8589988 140.8784473  35.5831060 134.1870855
 138.9250012  36.3784997 127.3489988 137.9750012  36.4834997 127.3999988
 139.2770012  37.1984997 127.6929988 138.8424195  36.5038800 127.4025502
 144.3010012  31.6044997 133.8189988 143.8750012  31.3774997 134.6459988
 144.8810012  30.8664997 133.6369988 144.3211868  31.4735299 133.9075830
 135.0820012  23.3894997 135.6959988 134.1890012  23.7284997 135.6279988
 134.9830012  22.5344997 136.1139988 134.9464164  23.3202588 135.7432235
 134.7330012  35.1944997 134.1309988 134.9500012  34.2624997 134.0999988
 134.9790012  35.4684997 135.0139988 134.7959549  35.1040636 134.2461763
 140.5950012  33.6454997 121.3399988 140.8340012  32.8974997 120.7929988
 140.3260012  33.2574997 122.1729988 140.5913675  33.4906638 121.3776865
 139.5320012  33.2154997 123.7959988 139.6780012  32.6954997 124.5859988
 139.5290012  34.1224997 124.1029988 139.5515792  33.2668842 123.9456117
 135.9850012  30.4684997 124.3069988 135.2990012  30.8204997 124.8739988
 136.5070012  31.2314997 124.0599988 135.9616852  30.6198578 124.3512118
 143.8160012  23.1304997 134.5859988 144.5150012  23.2044997 135.2359988
 143.4350012  22.2664997 134.7399988 143.8601767  23.0237624 134.6958322
 144.6010012  22.7824997 125.6829988 144.8210012  23.2544997 124.8799988
 145.1590012  23.1774997 126.3529988 144.7064968  22.9004285 125.6637331
 142.2690012  34.9134997 124.5459988 141.4530012  35.4104997 124.5979988
 142.7990012  35.3884997 123.9059988 142.2289161  35.0457722 124.4665956
 141.8010012  24.5104997 126.5179988 142.6130012  25.0154997 126.5639988
 141.5560012  24.3654997 127.4319988 141.8790520  24.5600375 126.6478517
 142.3360012  25.4964997 135.7019988 142.4550012  26.0704997 136.4599988
 142.9920012  24.8084997 135.8169988 142.4409025  25.4819858 135.8211321
 142.6840012  21.5914997 127.4559988 142.3380012  22.2094997 128.0999988
 143.3430012  22.0924997 126.9739988 142.7256968  21.7436278 127.4789383
 139.6080012  35.9574997 124.5269988 139.7680012  36.7564997 124.0269988
 139.4100012  36.2634997 125.4119988 139.6031637  36.1084020 124.5781144
 138.3420012  22.6544997 124.1429988 138.2590012  23.5434997 124.4899988
 139.2320012  22.3894997 124.3749988 138.4509469  22.7401430 124.2217626
 136.6010012  33.0824997 123.2039988 137.1930012  33.7814997 123.4799988
 137.0600012  32.6494997 122.4839988 136.7441142  33.1197049 123.1444830
 134.9170012  25.7464997 122.3199988 134.8720012  26.6854997 122.4979988
 134.0290012  25.5104997 122.0499988 134.7908574  25.8431892 122.3078912
 135.7250012  20.5284997 130.9929988 135.4960012  20.5874997 130.0649988
 135.2820012  19.7364997 131.2989988 135.6338530  20.4295753 130.9074786
 134.6550012  34.4684997 127.1529988 133.8230012  34.9414997 127.1799988
 135.2010012  34.9784997 126.5549988 134.6150352  34.6021332 127.0758463
 133.9430012  37.0814997 138.4829988 134.4840012  36.8644997 139.2429988
 133.4620012  36.2754997 138.2929988 133.9519951  36.9429270 138.5612576
 138.5410012  36.0004997 140.1029988 139.3080012  35.5414997 140.4439988
 138.5190012  35.7744997 139.1739988 138.6431275  35.9070186 140.0240101
 142.6330012  35.5084997 121.4789988 141.9890012  34.8774997 121.7999988
 143.3950012  34.9774997 121.2469988 142.6478077  35.3502920 121.4916011
 133.8500012  30.8914997 139.4369988 133.9940012  29.9894997 139.1509988
 133.0780012  31.1774997 138.9499988 133.7652753  30.8066816 139.3319505
 138.1920012  31.2354997 121.5699988 138.2560012  30.4414997 122.1009988
 138.8450012  31.1164997 120.8799988 138.2890241  31.1107148 121.5494317
 140.5060012  30.8614997 138.8699988 140.1770012  31.1324997 138.0129988
 140.6580012  29.9204997 138.7829988 140.4814809  30.7713862 138.7408244
 143.5440012  32.2824997 121.3059988 143.2750012  32.4624997 122.2069988
 143.3380012  31.3564997 121.1739988 143.4793427  32.1820261 121.4115073
 134.6830012  28.0914997 138.8569988 135.0910012  27.2344997 138.7359988
 134.4230012  28.1064997 139.7779988 134.7037568  27.9760807 138.9649588
 139.3410012  29.2074997 123.8759988 138.8810012  28.7234997 124.5619988
 139.5960012  28.5394997 123.2399988 139.3124902  29.0508731 123.8839334
 138.6300012  27.1004997 136.2319988 138.0120012  27.7754997 136.5119988
 138.9740012  27.4214997 135.3979988 138.5919132  27.2362411 136.1576262
 140.4120012  27.4504997 122.1379988 140.2320012  27.2964997 121.2109988
 141.3620012  27.5584997 122.1829988 140.5157776  27.4440175 122.0171843
 143.6500012  29.5724997 139.5089988 144.6030012  29.6554997 139.4819988
 143.4890012  28.8604997 140.1289988 143.7586426  29.4876746 139.5890579
 138.9690012  24.4554997 137.3139988 139.1190012  23.7264997 136.7119988
 138.9720012  25.2324997 136.7549988 138.9899302  24.4607851 137.1560692
 139.3820012  22.8254997 134.8069988 139.9180012  23.2764997 134.1549988
 138.5300012  22.7174997 134.3839988 139.3402178  22.8726390 134.6605756
 140.9640012  28.2644997 135.0459988 141.7140012  28.1084997 134.4729988
 140.6250012  29.1164997 134.7709988 141.0208921  28.3582968 134.9303561
 137.4480012  25.6534997 139.2259988 136.6810012  25.1214997 139.0149988
 138.1270012  25.3434997 138.6259988 137.4347877  25.5388300 139.1160716
 140.1880012  20.2814997 135.2379988 140.0890012  21.2284997 135.1329988
 139.4450012  19.9094997 134.7619988 140.0741184  20.3605863 135.1593621
 141.4520012  24.6034997 138.8019988 141.2160012  24.3834997 139.7029988
 140.6680012  24.3964997 138.2919988 141.3138504  24.5454586 138.8563431
 144.1670012  23.7304997 137.8769988 143.2200012  23.7624997 138.0099988
 144.4800012  23.1054997 138.5309988 144.0796707  23.6503998 137.9836060
 135.6280012  23.5744997 138.9299988 135.8400012  22.8674997 138.3199988
 135.5170012  23.1364997 139.7739988 135.6419721  23.4187084 138.9606843
 140.4090012  19.5754997 137.9089988 141.1210012  18.9354997 137.8949988
 140.3080012  19.8424997 136.9959988 140.4928066  19.5240079 137.7835677
 140.7630012  21.2584997 139.9629988 140.6310012  20.7824997 139.1429988
 140.1640012  22.0024997 139.9079988 140.6639071  21.2939618 139.8432886
 140.3090012  38.1414997 123.1389988 141.2420012  38.2994997 123.2829988
 140.0450012  38.8164997 122.5149988 140.4009888  38.2544510 123.0742842
 133.8780012  32.7774997 122.6219988 134.7920012  32.8564997 122.8959988
 133.8850012  32.0904997 121.9559988 134.0041131  32.6953961 122.5694393
 132.5270012  38.1704997 127.6999988 131.8800012  37.7084997 127.1669988
 132.8810012  37.4984997 128.2819988 132.4863849  38.0164723 127.7057959
 133.3970012  36.2514997 129.5039988 133.0620012  35.3714997 129.6759988
 133.6190012  36.5964997 130.3689988 133.3811783  36.1777500 129.6444208
 133.4770012  29.3264997 131.9559988 133.6610012  29.2444997 131.0199988
 134.3260012  29.2024997 132.3789988 133.6170151  29.2985073 131.8851451
 133.0740012  24.5974997 138.0969988 133.9940012  24.4754997 138.3329988
 132.6250012  23.8474997 138.4859988 133.1391580  24.4793727 138.1819006
 134.2950012  22.9094997 130.9879988 134.7410012  22.1174997 131.2899988
 134.7620012  23.6254997 131.4179988 134.4190831  22.8980685 131.0874006
 132.5990012  25.9084997 132.0569988 133.0910012  25.6874997 131.2659988
 132.9620012  26.7494997 132.3379988 132.7153126  25.9918357 131.9867531
 132.9130012  22.1664997 126.1109988 131.9880012  22.3754997 125.9819988
 133.3670012  22.6504997 125.4209988 132.8477292  22.2605343 126.0000720
 132.8770012  20.9044997 134.4549988 132.2120012  20.6584997 135.0989988
 132.4340012  21.5264997 133.8779988 132.7261318  20.9549410 134.4650898
 135.0690012  34.0794997 138.5999988 134.2480012  34.2544997 138.1389988
 134.8160012  34.0064997 139.5199988 134.9225585  34.0935544 138.6613561
 138.0230012  35.0544997 134.8579988 137.5980012  35.8634997 134.5759988
 138.9270012  35.1394997 134.5559988 138.0869975  35.1769300 134.7784816
 142.3340012  36.4534997 137.8179988 142.5190012  36.1194997 138.6959988
 143.1800012  36.7624997 137.4959988 142.4737539  36.4496047 137.8945605
 144.6790012  37.7394997 137.0619988 145.3560012  37.1064997 136.8219988
 145.0010012  38.1404997 137.8689988 144.8151637  37.7071154 137.1382793
 135.4250012  38.3104997 134.9059988 134.7040012  38.7504997 134.4549988
 135.0590012  38.0594997 135.7539988 135.2769651  38.3367242 134.9589640
 137.8920012  37.9104997 133.9359988 137.0270012  37.9824997 134.3399988
 137.8370012  38.4574997 133.1519988 137.7662085  37.9942685 133.8853362
 142.6020012  37.7984997 133.1109988 142.1460012  38.3274997 132.4569988
 142.7650012  38.4014997 133.8359988 142.5616068  37.9524607 133.1194838
 134.8390012  36.9334997 131.8159988 134.8210012  36.5084997 132.6729988
 135.6440012  36.6154997 131.4069988 134.9453529  36.8323013 131.8780946
 136.9810012  35.6434997 130.4709988 136.7620012  34.7274997 130.6409988
 137.8050012  35.7834997 130.9369988 137.0624420  35.5370520 130.5572774
 139.5180012  36.1134997 131.3199988 139.7310012  35.2254997 131.0329988
 139.5820012  36.0794997 132.2739988 139.5558231  35.9873102 131.4097397
 143.0260012  21.7774997 130.4639988 142.3520012  21.1484997 130.7199988
 143.5900012  21.2934997 129.8609988 143.0099230  21.6258744 130.4175340
 135.3530012  20.4114997 128.2859988 134.5760012  20.1774997 127.7789988
 135.8830012  19.6144997 128.2949988 135.3182330  20.2716988 128.2177742
 134.1890012  20.2094997 124.0899988 134.6280012  20.8204997 123.4979988
 133.5560012  20.7474997 124.5639988 134.1634514  20.3659257 124.0730930
 139.9320012  20.3384997 128.0999988 140.8070012  20.7264997 128.0699988
 139.7960012  20.1234997 129.0219988 140.0333695  20.3625184 128.2206440
 134.0900012  36.1574997 124.9869988 133.4050012  36.1194997 124.3199988
 134.0940012  37.0704997 125.2759988 133.9966998  36.2756733 124.9346771
 136.0500012  22.1254997 122.5319988 136.5420012  21.4954997 122.0049988
 136.6740012  22.4214997 123.1949988 136.2015688  22.0793804 122.5495482
 141.0760012  22.4184997 124.9889988 141.2540012  21.7724997 125.6719988
 141.0230012  23.2524997 125.4559988 141.0931999  22.4428009 125.1455917
 142.9550012  37.3674997 123.3849988 143.8210012  37.7334997 123.2069988
 142.7080012  36.9274997 122.5709988 143.0402392  37.3581756 123.2506289
 135.3110012  20.9254997 137.8039988 134.9450012  20.1604997 138.2459988
 136.2240012  20.9544997 138.0899988 135.3842736  20.8245640 137.9032502
 137.2840012  20.2764997 139.3399988 138.1820012  20.0024997 139.1549988
 136.8970012  19.5334997 139.8039988 137.3546612  20.1385914 139.3773643
 135.9080012  37.0774997 122.0129988 135.6410012  37.3644997 122.8859988
 136.6800012  36.5314997 122.1649988 135.9757488  37.0430294 122.1531050
  12.4390012  48.4234997 128.2449988  12.5280012  49.3674997 128.1129988
  11.8010012  48.1484997 127.5869988  12.3649081  48.5154830 128.1379614
  11.3720012  47.6784997 131.6639988  11.3340012  47.0324997 132.3689988
  11.0500012  47.2124997 130.8929988  11.3232333  47.5269408 131.6562978
   3.7410012  47.2934997 133.2569988   3.7820012  46.6674997 133.9799988
   4.4440012  47.9174997 133.4389988   3.8416363  47.2921196 133.3806044
  15.0780012  50.6174997 129.9649988  14.6380012  49.8974997 130.4159988
  15.0650012  51.3384997 130.5949988  15.0160226  50.6163731 130.1118494
   4.6640012  51.7434997 131.7919988   4.2950012  50.9414997 131.4219988
   5.6050012  51.5744997 131.8379988   4.7407289  51.6110153 131.7476316
   1.2740012  45.4034997 127.1849988   0.8270012  46.2494997 127.1659988
   0.7130012  44.8234997 126.6689988   1.1369900  45.4409916 127.1126801
   1.9850012  47.5654997 129.3099988   2.1980012  46.7954997 129.8379988
   2.7230012  47.6544997 128.7069988   2.1139044  47.4721968 129.3007123
  12.1900012  55.7224997 130.1769988  12.8100012  55.0454997 129.9039988
  11.9820012  55.5044997 131.0859988  12.2466726  55.6004800 130.2624812
   9.7620012  50.1114997 132.0699988  10.0660012  49.4254997 131.4749988
  10.4830012  50.2294997 132.6879988   9.9010671  50.0336305 132.0721816
  18.4250012  41.7124997 132.9309988  18.4740012  42.3224997 133.6659988
  18.8500012  42.1734997 132.2079988  18.4891746  41.8583796 132.9339175
  12.9030012  44.5054997 132.3969988  13.0450012  43.5594997 132.4179988
  12.7960012  44.7124997 131.4689988  12.9079919  44.4038246 132.2743408
   6.0570012  42.6064997 129.6699988   6.1010012  43.4664997 129.2509988
   5.6000012  42.0544997 129.0359988   6.0012240  42.6494422 129.5269864
  13.7800012  42.7374997 128.0709988  14.4260012  42.4084997 128.6949988
  14.2900012  43.2554997 127.4479988  13.9374299  42.7624450 128.0722731
   2.6780012  45.0034997 130.4319988   3.3310012  44.4534997 130.8639988
   2.7020012  44.7294997 129.5149988   2.7706683  44.8911466 130.3672123
   7.8340012  46.5534997 129.6469988   8.4500012  46.0274997 130.1569988
   7.2480012  45.9134997 129.2439988   7.8390810  46.3949208 129.6623173
  18.8160012  43.1904997 135.1659988  18.1280012  43.8484997 135.0709988
  18.8320012  42.9934997 136.1029988  18.7239540  43.2539819 135.2795990
   4.8680012  41.5244997 133.7439988   4.6490012  42.0544997 132.9779988
   4.2000012  41.7514997 134.3909988   4.7477600  41.6276906 133.7266379
  12.2370012  51.0244997 127.2879988  11.9410012  50.7024997 126.4369988
  11.9120012  51.9244997 127.3289988  12.1526371  51.1020215 127.1771801
   7.4370012  49.2004997 134.0309988   6.6970012  49.7984997 134.1349988
   8.1510012  49.7544997 133.7159988   7.4322237  49.3572831 134.0026465
  15.5440012  42.0284997 130.0509988  15.3280012  41.2624997 130.5839988
  16.1990012  42.5004997 130.5639988  15.6030632  41.9875889 130.1932861
   4.4610012  43.4164997 131.6959988   5.0750012  44.0494997 132.0689988
   4.9730012  42.9444997 131.0399988   4.6141981  43.4392267 131.6582908
   5.8440012  51.1644997 134.8179988   5.8390012  52.0444997 134.4399988
   4.9910012  51.0814997 135.2429988   5.7279464  51.2736117 134.8237907
   1.9650012  50.8354997 125.5999988   1.6930012  51.0644997 124.7119988
   2.0110012  51.6734997 126.0609988   1.9339482  50.9801318 125.5406273
  15.5900012  52.4574997 132.3129988  14.6490012  52.5154997 132.4749988
  15.8670012  53.3634997 132.1759988  15.4984679  52.5879443 132.3166815
  15.8910012  40.7434997 133.7309988  15.1550012  41.3544997 133.6929988
  16.5740012  41.1584997 133.2039988  15.8826541  40.8831374 133.6545832
   8.8940012  38.8304997 131.1959988   8.7770012  37.8814997 131.1419988
   8.0390012  39.1624997 131.4699988   8.7624212  38.7455571 131.2256497
  13.8420012  54.2384997 128.9379988  14.2680012  53.5314997 128.4529988
  14.1590012  55.0394997 128.5219988  13.9431683  54.2501017 128.8153680
  15.0020012  52.1394997 127.4469988  14.7440012  51.4494997 126.8359988
  15.0730012  51.6964997 128.2929988  14.9762856  51.9852124 127.4776885
  16.6880012  50.7054997 135.9239988  16.8280012  50.1144997 135.1849988
  16.8550012  51.5784997 135.5679988  16.7297411  50.7425428 135.7746894
  11.1610012  47.6674997 125.6969988  10.4490012  48.2024997 125.3449988
  11.8520012  47.7234997 125.0369988  11.1570132  47.7482543 125.5596289
  11.2140012  46.1254997 122.7359988  11.9150012  46.1474997 123.3869988
  11.5170012  45.4974997 122.0789988  11.3508133  46.0437070 122.7363369
  18.5300012  47.0454997 133.9899988  17.8770012  47.7404997 134.0799988
  18.9950012  47.2554997 133.1809988  18.5035274  47.1690643 133.8928462
  14.5660012  47.8774997 126.6489988  13.8340012  48.1054997 127.2219988
  15.0140012  47.1634997 127.1029988  14.5262725  47.8122145 126.7888816
  14.4640012  46.0514997 135.7159988  14.5440012  46.8144997 136.2879988
  13.8620012  46.3304997 135.0259988  14.3935756  46.1937134 135.7010589
   6.2120012  48.5074997 128.5309988   5.8810012  48.1374997 127.7129988
   6.8000012  47.8374997 128.8779988   6.2461873  48.3661156 128.4658102
   7.5780012  51.9354997 131.2119988   7.4840012  51.3574997 130.4559988
   8.3080012  51.5644997 131.7089988   7.6637387  51.8061663 131.1755342
   6.5780012  47.2764997 132.1649988   7.1440012  47.3974997 131.4019988
   6.8970012  47.9134997 132.8029988   6.6985474  47.3792219 132.1469862
  12.8870012  52.7794997 132.8989988  12.6470012  53.4414997 133.5469988
  12.6890012  51.9454997 133.3239988  12.8273808  52.7573134 133.0451524
   7.4580012  51.6754997 136.8819988   7.1470012  52.4574997 137.3369988
   6.8080012  51.5224997 136.1959988   7.3275558  51.7619105 136.8515871
  13.4370012  47.0394997 124.3339988  14.0170012  47.1894997 125.0809988
  13.8510012  47.5104997 123.6099988  13.5722997  47.1236578 124.3384058
   4.3780012  47.8734997 136.1099988   4.4490012  48.5244997 136.8089988
   3.4880012  47.9764997 135.7749988   4.2673005  47.9765427 136.1603495
  11.1640012  53.7764997 127.7689988  11.6380012  54.0714997 128.5459988
  10.6010012  54.5144997 127.5359988  11.1528184  53.9167247 127.8439628
   5.6980012  53.7474997 137.6449988   5.7050012  53.6114997 136.6979988
   4.7820012  53.6294997 137.8969988   5.5751714  53.7129430 137.5494666
  17.1360012  38.7894997 124.1469988  16.2360012  38.9284997 124.4419988
  17.3880012  39.6204997 123.7449988  17.0468702  38.9209074 124.1330205
   5.2020012  47.5774997 126.1199988   4.9100012  48.3454997 125.6299988
   4.5280012  46.9174997 125.9579988   5.0708111  47.5935587 126.0308978
  18.3250012  53.1554997 122.5229988  18.3990012  54.0944997 122.6939988
  19.2310012  52.8504997 122.4669988  18.4575100  53.2426722 122.5388119
   1.2950012  49.9404997 134.9349988   0.7940012  49.9124997 134.1199988
   1.3000012  49.0344997 135.2449988   1.2270944  49.8142396 134.8653226
   1.0450012  52.7204997 131.8189988   1.9910012  52.5764997 131.7999988
   0.9330012  53.5044997 132.3559988   1.1592727  52.8068046 131.8890072
  19.2430012  53.3864997 137.5019988  19.1940012  52.4314997 137.4649988
  18.4160012  53.6544997 137.9029988  19.1244940  53.2918998 137.5511375
  10.2220012  52.9604997 136.3779988  10.3090012  53.7864997 136.8529988
   9.3580012  52.6304997 136.6269988  10.1171964  53.0289878 136.4766549
  10.6360012  56.7324997 126.1839988  10.5610012  56.6114997 125.2369988
  10.6690012  57.6824997 126.3019988  10.6302068  56.8442646 126.0704967
   4.2890012  55.5214997 127.9649988   4.4420012  55.1734997 128.8429988
   3.4390012  55.1654997 127.7099988   4.1949166  55.4256216 128.0508079
  13.7380012  55.8864997 123.1859988  14.1130012  55.1424997 122.7149988
  13.7420012  55.6164997 124.1049988  13.7899125  55.7480986 123.2456483
  13.4070012  55.8124997 125.9349988  12.4710012  55.9124997 126.1139988
  13.6870012  55.1034997 126.5139988  13.3169553  55.7303406 126.0377087
  16.3950012  44.8794997 137.9819988  15.9880012  45.3604997 137.2609988
  16.4360012  43.9744997 137.6739988  16.3448437  44.8229374 137.8416683
   3.5440012  51.2634997 135.9789988   3.7600012  50.9024997 136.8379988
   2.6890012  50.8894997 135.7689988   3.4579292  51.1634111 136.0683386
   6.1630012  39.7334997 131.9739988   5.3010012  39.6464997 131.5659988
   6.1400012  40.5894997 132.4019988   6.0420409  39.8372883 131.9760589
  10.8260012  39.4554997 135.3489988  11.2460012  39.0404997 136.1019988
   9.8930012  39.2774997 135.4659988  10.7573644  39.3745900 135.4679539
  14.1520012  43.2114997 136.2019988  13.6380012  43.0854997 136.9999988
  13.9970012  44.1234997 135.9579988  14.0606852  43.3176132 136.2782158
  14.9150012  48.0724997 121.9639988  14.9570012  47.8494997 121.0339988
  15.7640012  48.4714997 122.1529988  15.0355280  48.0959438 121.8623554
  10.4870012  41.9484997 122.6339988  10.2340012  41.9674997 123.5569988
  10.2310012  41.0764997 122.3319988  10.4177481  41.8332558 122.7196175
   6.2540012  44.6994997 133.0689988   5.6120012  44.6584997 133.7779988
   6.2910012  45.6254997 132.8309988   6.1710664  44.8191430 133.1339219
   6.2510012  44.9204997 127.9809988   5.3580012  44.5794997 127.9219988
   6.7010012  44.5434997 127.2249988   6.1898130  44.8229631 127.8707702
  11.7860012  45.3364997 126.7979988  11.3770012  46.1514997 126.5069988
  12.5070012  45.1964997 126.1839988  11.8274537  45.4292018 126.6751342
  10.8880012  45.5114997 138.2859988  10.3260012  44.8074997 138.6069988
  11.7150012  45.3914997 138.7539988  10.9227095  45.3987883 138.3932330
  12.7910012  44.7824997 129.6119988  12.5960012  45.3874997 128.8969988
  12.9720012  43.9484997 129.1779988  12.7887614  44.7526300 129.4554405
   4.0040012  45.0194997 134.9359988   3.9660012  45.4194997 135.8049988
   3.5130012  44.2024997 135.0269988   3.9324684  44.9638069 135.0671059
   7.3700012  42.3934997 121.7349988   6.9390012  41.9484997 122.4649988
   6.6520012  42.7654997 121.2229988   7.2139438  42.3828940 121.7656799
   0.6120012  42.1354997 128.7869988   1.2430012  42.1064997 129.5059988
   1.0610012  41.7104997 128.0559988   0.7590918  42.0740836 128.7866441
   1.8860012  42.8814997 124.2109988   2.3600012  43.4724997 123.6259988
   1.1690012  43.4124997 124.5579988   1.8539341  43.0340867 124.1778836
  12.0550012  46.4204997 134.2829988  12.3780012  45.7894997 133.6399988
  11.6150012  45.8854997 134.9439988  12.0397484  46.2618387 134.2843198
   8.8320012  42.3474997 129.0669988   7.9210012  42.4044997 129.3559988
   9.3380012  42.2874997 129.8779988   8.7756899  42.3471941 129.2161184
   3.6610012  43.9764997 127.8939988   2.7710012  44.0764997 127.5539988
   3.9570012  43.1344997 127.5479988   3.5792823  43.8763545 127.8007213
   7.3140012  43.9764997 125.5509988   8.2450012  44.1054997 125.7289988
   7.0990012  44.6464997 124.9009988   7.4124247  44.0846565 125.4875747
  13.2370012  41.5824997 132.3319988  12.5610012  41.7134997 132.9959988
  12.7520012  41.4274997 131.5209988  13.0787146  41.5795157 132.3134469
   5.9880012  45.1714997 123.1169988   5.4450012  44.7914997 122.4259988
   6.8210012  45.3654997 122.6889988   6.0263631  45.1457125 122.9644501
  16.5250012  57.2544997 138.6079988  16.7250012  57.6784997 137.7739988
  17.1800012  57.5974997 139.2149988  16.6410072  57.3589857 138.5758592
   4.1230012  49.7284997 138.2159988   4.8550012  49.9824997 138.7779988
   3.3430012  49.9324997 138.7319988   4.1177073  49.7908160 138.3626151
  10.1520012  45.1354997 130.9539988  10.7170012  44.5884997 130.4069988
  10.0050012  44.6134997 131.7429988  10.2093380  44.9902259 130.9858695
   5.1540012  41.2714997 127.3729988   4.8370012  40.3694997 127.3369988
   5.9360012  41.2734997 126.8199988   5.2162408  41.1482474 127.2933569
   8.7790012  43.5234997 133.3679988   7.9430012  43.9774997 133.4789988
   9.3030012  43.7994997 134.1199988   8.7355416  43.6228660 133.4848119
   9.3230012  49.7364997 125.0529988   8.5780012  49.2294997 124.7309988
   9.1890012  49.7854997 125.9999988   9.2028776  49.6736940 125.1368647
  16.4730012  48.8694997 133.8399988  17.1150012  49.3264997 133.2959988
  15.6430012  48.9824997 133.3769988  16.4485963  48.9472704 133.7030177
  13.2210012  42.5504997 123.2519988  12.2820012  42.6624997 123.1009988
  13.5180012  43.4074997 123.5589988  13.1327583  42.6815981 123.2728337
  10.8420012  49.9204997 136.2899988  10.4970012  49.5394997 137.0969988
  10.6420012  50.8544997 136.3609988  10.7677527  49.9945135 136.4100689
  13.9390012  44.4174997 124.9129988  14.8310012  44.2804997 125.2319988
  13.9960012  45.2084997 124.3759988  14.0686504  44.5056052 124.8840818
   4.4480012  49.0314997 130.8229988   5.1930012  49.0294997 130.2219988
   4.5260012  48.2084997 131.3039988   4.5604995  48.9198887 130.8058282
  11.4490012  51.1954997 124.0789988  11.1530012  52.0214997 124.4599988
  10.7460012  50.5754997 124.2749988  11.3134914  51.2248199 124.1576443
   1.4560012  47.4924997 136.1379988   1.6790012  47.0744997 136.9699988
   0.8540012  46.8794997 135.7149988   1.4051759  47.3524668 136.1947022
   8.4720012  47.0094997 138.3509988   8.1760012  46.8434997 137.4559988
   9.4040012  46.7894997 138.3399988   8.5574166  46.9570640 138.2270536
  13.0930012  52.3824997 136.2409988  12.1920012  52.5654997 135.9729988
  13.1270012  52.6414997 137.1609988  12.9743139  52.4425849 136.3288099
  18.8240012  44.6274997 124.6079988  18.2700012  44.2314997 123.9359988
  18.9240012  45.5374997 124.3299988  18.7617059  44.6963586 124.4784401
  18.7870012  50.4274997 137.4449988  17.9360012  50.6654997 137.0779988
  19.3780012  50.4104997 136.6919988  18.7502487  50.4578258 137.2928893
  17.1190012  53.4134997 125.0729988  16.7460012  52.5874997 125.3819988
  17.3970012  53.2304997 124.1749988  17.1055222  53.2757430 124.9939473
  14.2800012  48.2214997 132.0939988  13.3510012  47.9894997 132.0669988
  14.7310012  47.4444997 131.7639988  14.2139216  48.0847238 132.0456917
   6.8230012  52.5494997 128.2269988   7.3500012  53.3224997 128.0269988
   5.9430012  52.7744997 127.9249988   6.7762031  52.6857545 128.1587912
   2.5780012  47.4114997 122.8139988   3.1940012  48.0384997 123.1939988
   1.7160012  47.7274997 123.0859988   2.5457698  47.5399430 122.9027183
   8.2500012  50.2124997 127.8029988   8.0090012  51.1374997 127.8449988
   7.5090012  49.7534997 128.1999988   8.1169225  50.2770933 127.8623742
   8.7650012  54.3614997 134.1189988   9.1270012  55.2164997 133.8849988
   9.2960012  54.0694997 134.8589988   8.8864473  54.4391060 134.1870855
   6.9330012  55.2344997 127.3489988   5.9830012  55.3394997 127.3999988
   7.2850012  56.0544997 127.6929988   6.8504195  55.3598800 127.4025502
  12.3090012  50.4604997 133.8189988  11.8830012  50.2334997 134.6459988
  12.8890012  49.7224997 133.6369988  12.3291868  50.3295299 133.9075830
  14.5120012  51.3894997 122.8929988  14.8650012  51.0094997 123.6969988
  13.5630012  51.2964997 122.9799988  14.4320918  51.3248956 123.0148532
  14.9670012  55.0124997 136.2889988  14.3660012  54.4574997 135.7929988
  15.2490012  55.6794997 135.6619988  14.9228804  55.0266625 136.1364849
  19.0150012  55.8694997 123.0939988  19.7590012  56.4554997 122.9539988
  18.3210012  56.4374997 123.4269988  19.0229899  56.0265798 123.1198778
   3.0900012  42.2454997 135.6959988   2.1970012  42.5844997 135.6279988
   2.9910012  41.3904997 136.1139988   2.9544164  42.1762588 135.7432235
  15.3780012  50.0624997 125.1199988  15.1000012  49.3344997 125.6759988
  16.3050012  50.1814997 125.3249988  15.4653124  49.9788802 125.2238845
   2.7410012  54.0504997 134.1309988   2.9580012  53.1184997 134.0999988
   2.9870012  54.3244997 135.0139988   2.8039549  53.9600636 134.2461763
   8.6030012  52.5014997 121.3399988   8.8420012  51.7534997 120.7929988
   8.3340012  52.1134997 122.1729988   8.5993675  52.3466638 121.3776865
   7.5400012  52.0714997 123.7959988   7.6860012  51.5514997 124.5859988
   7.5370012  52.9784997 124.1029988   7.5595792  52.1228842 123.9456117
   3.9930012  49.3244997 124.3069988   3.3070012  49.6764997 124.8739988
   4.5150012  50.0874997 124.0599988   3.9696852  49.4758578 124.3512118
  11.8240012  41.9864997 134.5859988  12.5230012  42.0604997 135.2359988
  11.4430012  41.1224997 134.7399988  11.8681767  41.8797624 134.6958322
  12.6090012  41.6384997 125.6829988  12.8290012  42.1104997 124.8799988
  13.1670012  42.0334997 126.3529988  12.7144968  41.7564285 125.6637331
  10.2770012  53.7694997 124.5459988   9.4610012  54.2664997 124.5979988
  10.8070012  54.2444997 123.9059988  10.2369161  53.9017722 124.4665956
   9.8090012  43.3664997 126.5179988  10.6210012  43.8714997 126.5639988
   9.5640012  43.2214997 127.4319988   9.8870520  43.4160375 126.6478517
  10.3440012  44.3524997 135.7019988  10.4630012  44.9264997 136.4599988
  11.0000012  43.6644997 135.8169988  10.4489025  44.3379858 135.8211321
  10.6920012  40.4474997 127.4559988  10.3460012  41.0654997 128.0999988
  11.3510012  40.9484997 126.9739988  10.7336968  40.5996278 127.4789383
   7.6160012  54.8134997 124.5269988   7.7760012  55.6124997 124.0269988
   7.4180012  55.1194997 125.4119988   7.6111637  54.9644020 124.5781144
   6.3500012  41.5104997 124.1429988   6.2670012  42.3994997 124.4899988
   7.2400012  41.2454997 124.3749988   6.4589469  41.5961430 124.2217626
  16.5490012  42.2594997 136.5369988  15.6320012  42.5224997 136.4499988
  16.8840012  42.2564997 135.6409988  16.4688613  42.2950761 136.4038837
  15.1510012  46.0104997 130.6329988  14.3530012  45.5954997 130.3049988
  15.5960012  45.3194997 131.1239988  15.1019885  45.8603543 130.6544889
   4.6090012  51.9384997 123.2039988   5.2010012  52.6374997 123.4799988
   5.0680012  51.5054997 122.4839988   4.7521142  51.9757049 123.1444830
   2.9250012  44.6024997 122.3199988   2.8800012  45.5414997 122.4979988
   2.0370012  44.3664997 122.0499988   2.7988574  44.6991892 122.3078912
  16.2370012  55.2664997 132.2559988  16.0820012  55.9444997 131.5979988
  17.1700012  55.3384997 132.4589988  16.3418657  55.3689546 132.1934360
   3.7330012  39.3844997 130.9929988   3.5040012  39.4434997 130.0649988
   3.2900012  38.5924997 131.2989988   3.6418530  39.2855753 130.9074786
   2.6630012  53.3244997 127.1529988   1.8310012  53.7974997 127.1799988
   3.2090012  53.8344997 126.5549988   2.6230352  53.4581332 127.0758463
   1.9510012  55.9374997 138.4829988   2.4920012  55.7204997 139.2429988
   1.4700012  55.1314997 138.2929988   1.9599951  55.7989270 138.5612576
   6.5490012  54.8564997 140.1029988   7.3160012  54.3974997 140.4439988
   6.5270012  54.6304997 139.1739988   6.6511275  54.7630186 140.0240101
  10.6410012  54.3644997 121.4789988   9.9970012  53.7334997 121.7999988
  11.4030012  53.8334997 121.2469988  10.6558077  54.2062920 121.4916011
  13.1260012  53.2364997 138.8329988  12.7750012  52.3804997 139.0759988
  13.8520012  53.3794997 139.4399988  13.1760769  53.1385636 138.9483619
  15.2450012  54.1814997 121.7119988  15.5280012  53.3874997 122.1649988
  15.9850012  54.4144997 121.1519988  15.3838006  54.1043376 121.6982715
   1.8580012  49.7474997 139.4369988   2.0020012  48.8454997 139.1509988
   1.0860012  50.0334997 138.9499988   1.7732753  49.6626816 139.3319505
   6.2000012  50.0914997 121.5699988   6.2640012  49.2974997 122.1009988
   6.8530012  49.9724997 120.8799988   6.2970241  49.9667148 121.5494317
   8.5140012  49.7174997 138.8699988   8.1850012  49.9884997 138.0129988
   8.6660012  48.7764997 138.7829988   8.4894809  49.6273862 138.7408244
  11.5520012  51.1384997 121.3059988  11.2830012  51.3184997 122.2069988
  11.3460012  50.2124997 121.1739988  11.4873427  51.0380261 121.4115073
  14.2480012  49.6334997 136.2529988  14.9940012  50.2214997 136.1339988
  13.4910012  50.2154997 136.3169988  14.2477820  49.7927143 136.2453590
   2.6910012  46.9474997 138.8569988   3.0990012  46.0904997 138.7359988
   2.4310012  46.9624997 139.7779988   2.7117568  46.8320807 138.9649588
   7.3490012  48.0634997 123.8759988   6.8890012  47.5794997 124.5619988
   7.6040012  47.3954997 123.2399988   7.3204902  47.9068731 123.8839334
   6.6380012  45.9564997 136.2319988   6.0200012  46.6314997 136.5119988
   6.9820012  46.2774997 135.3979988   6.5999132  46.0922411 136.1576262
   8.4200012  46.3064997 122.1379988   8.2400012  46.1524997 121.2109988
   9.3700012  46.4144997 122.1829988   8.5237776  46.3000175 122.0171843
  11.6580012  48.4284997 139.5089988  12.6110012  48.5114997 139.4819988
  11.4970012  47.7164997 140.1289988  11.7666426  48.3436746 139.5890579
  17.8100012  48.6614997 121.5839988  17.5360012  48.2364997 120.7709988
  17.8490012  49.5924997 121.3669988  17.7777699  48.7292484 121.4433610
   6.9770012  43.3114997 137.3139988   7.1270012  42.5824997 136.7119988
   6.9800012  44.0884997 136.7549988   6.9979302  43.3167851 137.1560692
   7.3900012  41.6814997 134.8069988   7.9260012  42.1324997 134.1549988
   6.5380012  41.5734997 134.3839988   7.3482178  41.7286390 134.6605756
   8.9720012  47.1204997 135.0459988   9.7220012  46.9644997 134.4729988
   8.6330012  47.9724997 134.7709988   9.0288921  47.2142968 134.9303561
  13.3870012  44.9354997 140.0749988  13.5800012  44.0044997 139.9629988
  14.2450012  45.3604997 140.0639988  13.5292934  44.8656531 140.0582031
  14.7040012  47.7244997 138.1519988  14.4230012  48.4334997 137.5739988
  15.6470012  47.6514997 138.0009988  14.7929291  47.8116711 138.0524967
   5.4560012  44.5094997 139.2259988   4.6890012  43.9774997 139.0149988
   6.1350012  44.1994997 138.6259988   5.4427877  44.3948300 139.1160716
   8.1960012  39.1374997 135.2379988   8.0970012  40.0844997 135.1329988
   7.4530012  38.7654997 134.7619988   8.0821184  39.2165863 135.1593621
   9.4600012  43.4594997 138.8019988   9.2240012  43.2394997 139.7029988
   8.6760012  43.2524997 138.2919988   9.3218504  43.4014586 138.8563431
  12.1750012  42.5864997 137.8769988  11.2280012  42.6184997 138.0099988
  12.4880012  41.9614997 138.5309988  12.0876707  42.5063998 137.9836060
  13.8090012  41.2204997 139.8829988  13.7130012  40.2684997 139.8769988
  13.4880012  41.4894997 140.7429988  13.7524070  41.1264035 139.9985441
   3.6360012  42.4304997 138.9299988   3.8480012  41.7234997 138.3199988
   3.5250012  41.9924997 139.7739988   3.6499721  42.2747084 138.9606843
   8.4170012  38.4314997 137.9089988   9.1290012  37.7914997 137.8949988
   8.3160012  38.6984997 136.9959988   8.5008066  38.3800079 137.7835677
   8.7710012  40.1144997 139.9629988   8.6390012  39.6384997 139.1429988
   8.1720012  40.8584997 139.9079988   8.6719071  40.1499618 139.8432886
   8.3170012  56.9974997 123.1389988   9.2500012  57.1554997 123.2829988
   8.0530012  57.6724997 122.5149988   8.4089888  57.1104510 123.0742842
   1.8860012  51.6334997 122.6219988   2.8000012  51.7124997 122.8959988
   1.8930012  50.9464997 121.9559988   2.0121131  51.5513961 122.5694393
   0.5350012  57.0264997 127.6999988  -0.1119988  56.5644997 127.1669988
   0.8890012  56.3544997 128.2819988   0.4943849  56.8724723 127.7057959
   1.4050012  55.1074997 129.5039988   1.0700012  54.2274997 129.6759988
   1.6270012  55.4524997 130.3689988   1.3891783  55.0337500 129.6444208
  18.9530012  55.9164997 132.4849988  18.9320012  56.1014997 133.4239988
  19.6440012  56.4854997 132.1439988  19.0434618  56.0186606 132.5673864
  18.5170012  55.4844997 135.4069988  18.0290012  54.7484997 135.0349988
  19.0660012  55.0904997 136.0849988  18.5244820  55.3305889 135.4477813
  16.9670012  51.2734997 140.0449988  16.1010012  51.1684997 140.4389988
  17.3440012  52.0324997 140.4909988  16.8993308  51.3616900 140.1592393
  18.2680012  49.5304997 125.5589988  19.1180012  49.9514997 125.6859988
  18.2740012  48.7904997 126.1659988  18.3851372  49.4880803 125.6584344
  18.6630012  47.5834997 127.3819988  17.9360012  47.1044997 127.7799988
  19.2440012  47.7894997 128.1149988  18.6420473  47.5458103 127.5354528
  18.4220012  50.3684997 132.3299988  19.2550012  49.9904997 132.0499988
  18.5340012  51.3114997 132.2109988  18.5512647  50.4442218 132.2755487
  16.9080012  53.2464997 134.6369988  16.2610012  53.5714997 135.2629988
  16.3910012  52.8064997 133.9629988  16.7494029  53.2315004 134.6315827
  18.9310012  47.4844997 123.7739988  18.4090012  47.8414997 123.0549988
  18.8980012  48.1594997 124.4519988  18.8551634  47.6245413 123.7673145
  17.2800012  44.7244997 122.3239988  17.3760012  45.3914997 121.6439988
  17.1400012  43.9084997 121.8429988  17.2742272  44.7055655 122.1658347
  16.4490012  46.1044997 127.9449988  16.2990012  45.1594997 127.9249988
  16.0960012  46.3854997 128.7889988  16.3807448  46.0131481 128.0563705
   1.4850012  48.1824997 131.9559988   1.6690012  48.1004997 131.0199988
   2.3340012  48.0584997 132.3789988   1.6250151  48.1545073 131.8851451
  17.3060012  48.0744997 137.5839988  17.8890012  47.3404997 137.7759988
  17.8700012  48.8464997 137.6309988  17.4619769  48.0784227 137.6166159
  18.8020012  45.9774997 138.2689988  17.9390012  45.5984997 138.1029988
  19.4070012  45.2384997 138.1939988  18.7656119  45.8258268 138.2361528
  16.5270012  42.1324997 121.4419988  17.1380012  41.7614997 122.0789988
  15.6910012  41.7114997 121.6379988  16.4975032  42.0247554 121.5557035
  16.1600012  43.6874997 126.4079988  16.4400012  42.7804997 126.5319988
  16.9190012  44.1214997 126.0189988  16.3009277  43.6220942 126.3723682
  16.7720012  44.2684997 131.8439988  17.7050012  44.4804997 131.8089988
  16.5370012  44.3704997 132.7659988  16.8679244  44.3113100 131.9638892
  16.8010012  45.0054997 134.6199988  15.9580012  45.2734997 134.9859988
  17.2430012  45.8274997 134.4089988  16.7454158  45.1533291 134.6415491
   1.0820012  43.4534997 138.0969988   2.0020012  43.3314997 138.3329988
   0.6330012  42.7034997 138.4859988   1.1471580  43.3353727 138.1819006
  19.0840012  38.9854997 139.9729988  19.4340012  38.3314997 139.3679988
  19.2310012  39.8224997 139.5329988  19.1517887  39.0091548 139.8306858
  16.7730012  40.9504997 126.4559988  16.9560012  40.5014997 127.2819988
  16.1740012  40.3654997 125.9929988  16.7170202  40.8099975 126.5063275
   2.3030012  41.7654997 130.9879988   2.7490012  40.9734997 131.2899988
   2.7700012  42.4814997 131.4179988   2.4270831  41.7540685 131.0874006
   0.6070012  44.7644997 132.0569988   1.0990012  44.5434997 131.2659988
   0.9700012  45.6054997 132.3379988   0.7233126  44.8478357 131.9867531
  18.6040012  41.0944997 138.3219988  17.6860012  41.3654997 138.2869988
  18.7270012  40.5594997 137.5379988  18.4949729  41.0592508 138.2111923
  18.6400012  41.0174997 122.9839988  19.0520012  40.2964997 122.5089988
  19.3220012  41.6874997 123.0429988  18.7885885  41.0092368 122.9268915
   0.9210012  41.0224997 126.1109988  -0.0039988  41.2314997 125.9819988
   1.3750012  41.5064997 125.4209988   0.8557292  41.1165343 126.0000720
  15.6920012  56.0064997 128.0569988  16.3440012  55.6594997 127.4489988
  16.2020012  56.4954997 128.7029988  15.8502637  56.0250597 128.0610236
   0.8850012  39.7604997 134.4549988   0.2200012  39.5144997 135.0989988
   0.4420012  40.3824997 133.8779988   0.7341318  39.8109410 134.4650898
   3.0770012  52.9354997 138.5999988   2.2560012  53.1104997 138.1389988
   2.8240012  52.8624997 139.5199988   2.9305585  52.9495544 138.6613561
   6.0310012  53.9104997 134.8579988   5.6060012  54.7194997 134.5759988
   6.9350012  53.9954997 134.5559988   6.0949975  54.0329300 134.7784816
  10.3420012  55.3094997 137.8179988  10.5270012  54.9754997 138.6959988
  11.1880012  55.6184997 137.4959988  10.4817539  55.3056047 137.8945605
  12.6870012  56.5954997 137.0619988  13.3640012  55.9624997 136.8219988
  13.0090012  56.9964997 137.8689988  12.8231637  56.5631154 137.1382793
  17.6040012  39.1844997 136.1409988  16.7920012  39.5094997 135.7539988
  17.8370012  38.4244997 135.6079988  17.5242203  39.1262758 136.0158880
   3.4330012  57.1664997 134.9059988   2.7120012  57.6064997 134.4549988
   3.0670012  56.9154997 135.7539988   3.2849651  57.1927242 134.9589640
   5.9000012  56.7664997 133.9359988   5.0350012  56.8384997 134.3399988
   5.8450012  57.3134997 133.1519988   5.7742085  56.8502685 133.8853362
  10.6100012  56.6544997 133.1109988  10.1540012  57.1834997 132.4569988
  10.7730012  57.2574997 133.8359988  10.5696068  56.8084607 133.1194838
  12.9380012  55.5324997 134.0559988  12.0330012  55.6974997 133.7899988
  13.3670012  56.3854997 133.9909988  12.8721324  55.6704339 134.0107976
  15.5420012  57.1024997 134.3509988  15.3600012  58.0184997 134.1409988
  15.7190012  56.6924997 133.5049988  15.5410210  57.1724822 134.2077885
   2.8470012  55.7894997 131.8159988   2.8290012  55.3644997 132.6729988
   3.6520012  55.4714997 131.4069988   2.9533529  55.6883013 131.8780946
   4.9890012  54.4994997 130.4709988   4.7700012  53.5834997 130.6409988
   5.8130012  54.6394997 130.9369988   5.0704420  54.3930520 130.5572774
   7.5260012  54.9694997 131.3199988   7.7390012  54.0814997 131.0329988
   7.5900012  54.9354997 132.2739988   7.5638231  54.8433102 131.4097397
  11.0340012  40.6334997 130.4639988  10.3600012  40.0044997 130.7199988
  11.5980012  40.1494997 129.8609988  11.0179230  40.4818744 130.4175340
  16.1770012  38.7414997 130.5769988  16.7810012  39.2884997 130.0749988
  15.3070012  39.0604997 130.3359988  16.1421208  38.8595137 130.4756886
  17.9040012  39.8794997 128.9099988  18.5160012  39.3654997 128.3829988
  18.2860012  40.7574997 128.9329988  18.0393371  39.9277866 128.8410041
   3.3610012  39.2674997 128.2859988   2.5840012  39.0334997 127.7789988
   3.8910012  38.4704997 128.2949988   3.3262330  39.1276988 128.2177742
   2.1970012  39.0654997 124.0899988   2.6360012  39.6764997 123.4979988
   1.5640012  39.6034997 124.5639988   2.1714514  39.2219257 124.0730930
   7.9400012  39.1944997 128.0999988   8.8150012  39.5824997 128.0699988
   7.8040012  38.9794997 129.0219988   8.0413695  39.2185184 128.2206440
  13.4970012  39.2244997 129.7489988  13.5730012  39.3194997 128.7989988
  13.2220012  38.3164997 129.8779988  13.4702321  39.1147867 129.6365079
  14.8500012  39.2504997 125.4409988  14.1480012  39.8654997 125.2309988
  14.4060012  38.4124997 125.5719988  14.6936450  39.2215639 125.4299000
   2.0980012  55.0134997 124.9869988   1.4130012  54.9754997 124.3199988
   2.1020012  55.9264997 125.2759988   2.0046998  55.1316733 124.9346771
   4.0580012  40.9814997 122.5319988   4.5500012  40.3514997 122.0049988
   4.6820012  41.2774997 123.1949988   4.2095688  40.9353804 122.5495482
   9.0840012  41.2744997 124.9889988   9.2620012  40.6284997 125.6719988
   9.0310012  42.1084997 125.4559988   9.1011999  41.2988009 125.1455917
  10.9630012  56.2234997 123.3849988  11.8290012  56.5894997 123.2069988
  10.7160012  55.7834997 122.5709988  11.0482392  56.2141756 123.2506289
  17.6720012  55.7864997 126.0639988  17.4770012  55.0384997 125.4989988
  17.6330012  56.5444997 125.4809988  17.6400380  55.7866099 125.9078384
   3.3190012  39.7814997 137.8039988   2.9530012  39.0164997 138.2459988
   4.2320012  39.8104997 138.0899988   3.3922736  39.6805640 137.9032502
   5.2920012  39.1324997 139.3399988   6.1900012  38.8584997 139.1549988
   4.9050012  38.3894997 139.8039988   5.3626612  38.9945914 139.3773643
   3.9160012  55.9334997 122.0129988   3.6490012  56.2204997 122.8859988
   4.6880012  55.3874997 122.1649988   3.9837488  55.8990294 122.1531050
  13.7130012  38.4644997 139.5219988  13.7900012  38.0384997 140.3759988
  14.6070012  38.4784997 139.1789988  13.8443428  38.4080879 139.5925310
  16.8890012  54.5374997 138.2139988  16.1070012  54.3514997 137.6939988
  16.8170012  55.4664997 138.4319988  16.7722274  54.6376643 138.1723018
  31.2950012  48.4234997 128.2449988  31.3840012  49.3674997 128.1129988
  30.6570012  48.1484997 127.5869988  31.2209081  48.5154830 128.1379614
  30.2280012  47.6784997 131.6639988  30.1900012  47.0324997 132.3689988
  29.9060012  47.2124997 130.8929988  30.1792333  47.5269408 131.6562978
  22.5970012  47.2934997 133.2569988  22.6380012  46.6674997 133.9799988
  23.3000012  47.9174997 133.4389988  22.6976363  47.2921196 133.3806044
  33.9340012  50.6174997 129.9649988  33.4940012  49.8974997 130.4159988
  33.9210012  51.3384997 130.5949988  33.8720226  50.6163731 130.1118494
  23.5200012  51.7434997 131.7919988  23.1510012  50.9414997 131.4219988
  24.4610012  51.5744997 131.8379988  23.5967289  51.6110153 131.7476316
  20.1300012  45.4034997 127.1849988  19.6830012  46.2494997 127.1659988
  19.5690012  44.8234997 126.6689988  19.9929900  45.4409916 127.1126801
  20.8410012  47.5654997 129.3099988  21.0540012  46.7954997 129.8379988
  21.5790012  47.6544997 128.7069988  20.9699044  47.4721968 129.3007123
  31.0460012  55.7224997 130.1769988  31.6660012  55.0454997 129.9039988
  30.8380012  55.5044997 131.0859988  31.1026726  55.6004800 130.2624812
  28.6180012  50.1114997 132.0699988  28.9220012  49.4254997 131.4749988
  29.3390012  50.2294997 132.6879988  28.7570671  50.0336305 132.0721816
  37.2810012  41.7124997 132.9309988  37.3300012  42.3224997 133.6659988
  37.7060012  42.1734997 132.2079988  37.3451746  41.8583796 132.9339175
  31.7590012  44.5054997 132.3969988  31.9010012  43.5594997 132.4179988
  31.6520012  44.7124997 131.4689988  31.7639919  44.4038246 132.2743408
  24.9130012  42.6064997 129.6699988  24.9570012  43.4664997 129.2509988
  24.4560012  42.0544997 129.0359988  24.8572240  42.6494422 129.5269864
  32.6360012  42.7374997 128.0709988  33.2820012  42.4084997 128.6949988
  33.1460012  43.2554997 127.4479988  32.7934299  42.7624450 128.0722731
  21.5340012  45.0034997 130.4319988  22.1870012  44.4534997 130.8639988
  21.5580012  44.7294997 129.5149988  21.6266683  44.8911466 130.3672123
  26.6900012  46.5534997 129.6469988  27.3060012  46.0274997 130.1569988
  26.1040012  45.9134997 129.2439988  26.6950810  46.3949208 129.6623173
  37.6720012  43.1904997 135.1659988  36.9840012  43.8484997 135.0709988
  37.6880012  42.9934997 136.1029988  37.5799540  43.2539819 135.2795990
  23.7240012  41.5244997 133.7439988  23.5050012  42.0544997 132.9779988
  23.0560012  41.7514997 134.3909988  23.6037600  41.6276906 133.7266379
  31.0930012  51.0244997 127.2879988  30.7970012  50.7024997 126.4369988
  30.7680012  51.9244997 127.3289988  31.0086371  51.1020215 127.1771801
  26.2930012  49.2004997 134.0309988  25.5530012  49.7984997 134.1349988
  27.0070012  49.7544997 133.7159988  26.2882237  49.3572831 134.0026465
  34.4000012  42.0284997 130.0509988  34.1840012  41.2624997 130.5839988
  35.0550012  42.5004997 130.5639988  34.4590632  41.9875889 130.1932861
  23.3170012  43.4164997 131.6959988  23.9310012  44.0494997 132.0689988
  23.8290012  42.9444997 131.0399988  23.4701981  43.4392267 131.6582908
  24.7000012  51.1644997 134.8179988  24.6950012  52.0444997 134.4399988
  23.8470012  51.0814997 135.2429988  24.5839464  51.2736117 134.8237907
  20.8210012  50.8354997 125.5999988  20.5490012  51.0644997 124.7119988
  20.8670012  51.6734997 126.0609988  20.7899482  50.9801318 125.5406273
  34.4460012  52.4574997 132.3129988  33.5050012  52.5154997 132.4749988
  34.7230012  53.3634997 132.1759988  34.3544679  52.5879443 132.3166815
  34.7470012  40.7434997 133.7309988  34.0110012  41.3544997 133.6929988
  35.4300012  41.1584997 133.2039988  34.7386541  40.8831374 133.6545832
  27.7500012  38.8304997 131.1959988  27.6330012  37.8814997 131.1419988
  26.8950012  39.1624997 131.4699988  27.6184212  38.7455571 131.2256497
  32.6980012  54.2384997 128.9379988  33.1240012  53.5314997 128.4529988
  33.0150012  55.0394997 128.5219988  32.7991683  54.2501017 128.8153680
  33.8580012  52.1394997 127.4469988  33.6000012  51.4494997 126.8359988
  33.9290012  51.6964997 128.2929988  33.8322856  51.9852124 127.4776885
  35.5440012  50.7054997 135.9239988  35.6840012  50.1144997 135.1849988
  35.7110012  51.5784997 135.5679988  35.5857411  50.7425428 135.7746894
  30.0170012  47.6674997 125.6969988  29.3050012  48.2024997 125.3449988
  30.7080012  47.7234997 125.0369988  30.0130132  47.7482543 125.5596289
  30.0700012  46.1254997 122.7359988  30.7710012  46.1474997 123.3869988
  30.3730012  45.4974997 122.0789988  30.2068133  46.0437070 122.7363369
  37.3860012  47.0454997 133.9899988  36.7330012  47.7404997 134.0799988
  37.8510012  47.2554997 133.1809988  37.3595274  47.1690643 133.8928462
  33.4220012  47.8774997 126.6489988  32.6900012  48.1054997 127.2219988
  33.8700012  47.1634997 127.1029988  33.3822725  47.8122145 126.7888816
  33.3200012  46.0514997 135.7159988  33.4000012  46.8144997 136.2879988
  32.7180012  46.3304997 135.0259988  33.2495756  46.1937134 135.7010589
  25.0680012  48.5074997 128.5309988  24.7370012  48.1374997 127.7129988
  25.6560012  47.8374997 128.8779988  25.1021873  48.3661156 128.4658102
  26.4340012  51.9354997 131.2119988  26.3400012  51.3574997 130.4559988
  27.1640012  51.5644997 131.7089988  26.5197386  51.8061663 131.1755342
  25.4340012  47.2764997 132.1649988  26.0000012  47.3974997 131.4019988
  25.7530012  47.9134997 132.8029988  25.5545474  47.3792219 132.1469862
  31.7430012  52.7794997 132.8989988  31.5030012  53.4414997 133.5469988
  31.5450012  51.9454997 133.3239988  31.6833808  52.7573134 133.0451524
  26.3140012  51.6754997 136.8819988  26.0030012  52.4574997 137.3369988
  25.6640012  51.5224997 136.1959988  26.1835558  51.7619105 136.8515871
  32.2930012  47.0394997 124.3339988  32.8730012  47.1894997 125.0809988
  32.7070012  47.5104997 123.6099988  32.4282997  47.1236578 124.3384058
  23.2340012  47.8734997 136.1099988  23.3050012  48.5244997 136.8089988
  22.3440012  47.9764997 135.7749988  23.1233005  47.9765427 136.1603495
  30.0200012  53.7764997 127.7689988  30.4940012  54.0714997 128.5459988
  29.4570012  54.5144997 127.5359988  30.0088184  53.9167247 127.8439628
  24.5540012  53.7474997 137.6449988  24.5610012  53.6114997 136.6979988
  23.6380012  53.6294997 137.8969988  24.4311714  53.7129430 137.5494666
  35.9920012  38.7894997 124.1469988  35.0920012  38.9284997 124.4419988
  36.2440012  39.6204997 123.7449988  35.9028702  38.9209074 124.1330205
  24.0580012  47.5774997 126.1199988  23.7660012  48.3454997 125.6299988
  23.3840012  46.9174997 125.9579988  23.9268111  47.5935587 126.0308978
  37.1810012  53.1554997 122.5229988  37.2550012  54.0944997 122.6939988
  38.0870012  52.8504997 122.4669988  37.3135100  53.2426722 122.5388119
  20.1510012  49.9404997 134.9349988  19.6500012  49.9124997 134.1199988
  20.1560012  49.0344997 135.2449988  20.0830944  49.8142396 134.8653226
  19.9010012  52.7204997 131.8189988  20.8470012  52.5764997 131.7999988
  19.7890012  53.5044997 132.3559988  20.0152727  52.8068046 131.8890072
  38.0990012  53.3864997 137.5019988  38.0500012  52.4314997 137.4649988
  37.2720012  53.6544997 137.9029988  37.9804940  53.2918998 137.5511375
  29.0780012  52.9604997 136.3779988  29.1650012  53.7864997 136.8529988
  28.2140012  52.6304997 136.6269988  28.9731964  53.0289878 136.4766549
  29.4920012  56.7324997 126.1839988  29.4170012  56.6114997 125.2369988
  29.5250012  57.6824997 126.3019988  29.4862068  56.8442646 126.0704967
  23.1450012  55.5214997 127.9649988  23.2980012  55.1734997 128.8429988
  22.2950012  55.1654997 127.7099988  23.0509166  55.4256216 128.0508079
  32.5940012  55.8864997 123.1859988  32.9690012  55.1424997 122.7149988
  32.5980012  55.6164997 124.1049988  32.6459125  55.7480986 123.2456483
  32.2630012  55.8124997 125.9349988  31.3270012  55.9124997 126.1139988
  32.5430012  55.1034997 126.5139988  32.1729553  55.7303406 126.0377087
  35.2510012  44.8794997 137.9819988  34.8440012  45.3604997 137.2609988
  35.2920012  43.9744997 137.6739988  35.2008437  44.8229374 137.8416683
  22.4000012  51.2634997 135.9789988  22.6160012  50.9024997 136.8379988
  21.5450012  50.8894997 135.7689988  22.3139292  51.1634111 136.0683386
  25.0190012  39.7334997 131.9739988  24.1570012  39.6464997 131.5659988
  24.9960012  40.5894997 132.4019988  24.8980409  39.8372883 131.9760589
  29.6820012  39.4554997 135.3489988  30.1020012  39.0404997 136.1019988
  28.7490012  39.2774997 135.4659988  29.6133644  39.3745900 135.4679539
  33.0080012  43.2114997 136.2019988  32.4940012  43.0854997 136.9999988
  32.8530012  44.1234997 135.9579988  32.9166852  43.3176132 136.2782158
  33.7710012  48.0724997 121.9639988  33.8130012  47.8494997 121.0339988
  34.6200012  48.4714997 122.1529988  33.8915280  48.0959438 121.8623554
  29.3430012  41.9484997 122.6339988  29.0900012  41.9674997 123.5569988
  29.0870012  41.0764997 122.3319988  29.2737481  41.8332558 122.7196175
  25.1100012  44.6994997 133.0689988  24.4680012  44.6584997 133.7779988
  25.1470012  45.6254997 132.8309988  25.0270664  44.8191430 133.1339219
  25.1070012  44.9204997 127.9809988  24.2140012  44.5794997 127.9219988
  25.5570012  44.5434997 127.2249988  25.0458130  44.8229631 127.8707702
  30.6420012  45.3364997 126.7979988  30.2330012  46.1514997 126.5069988
  31.3630012  45.1964997 126.1839988  30.6834537  45.4292018 126.6751342
  29.7440012  45.5114997 138.2859988  29.1820012  44.8074997 138.6069988
  30.5710012  45.3914997 138.7539988  29.7787095  45.3987883 138.3932330
  31.6470012  44.7824997 129.6119988  31.4520012  45.3874997 128.8969988
  31.8280012  43.9484997 129.1779988  31.6447614  44.7526300 129.4554405
  22.8600012  45.0194997 134.9359988  22.8220012  45.4194997 135.8049988
  22.3690012  44.2024997 135.0269988  22.7884684  44.9638069 135.0671059
  26.2260012  42.3934997 121.7349988  25.7950012  41.9484997 122.4649988
  25.5080012  42.7654997 121.2229988  26.0699438  42.3828940 121.7656799
  19.4680012  42.1354997 128.7869988  20.0990012  42.1064997 129.5059988
  19.9170012  41.7104997 128.0559988  19.6150918  42.0740836 128.7866441
  20.7420012  42.8814997 124.2109988  21.2160012  43.4724997 123.6259988
  20.0250012  43.4124997 124.5579988  20.7099341  43.0340867 124.1778836
  30.9110012  46.4204997 134.2829988  31.2340012  45.7894997 133.6399988
  30.4710012  45.8854997 134.9439988  30.8957484  46.2618387 134.2843198
  27.6880012  42.3474997 129.0669988  26.7770012  42.4044997 129.3559988
  28.1940012  42.2874997 129.8779988  27.6316899  42.3471941 129.2161184
  22.5170012  43.9764997 127.8939988  21.6270012  44.0764997 127.5539988
  22.8130012  43.1344997 127.5479988  22.4352823  43.8763545 127.8007213
  26.1700012  43.9764997 125.5509988  27.1010012  44.1054997 125.7289988
  25.9550012  44.6464997 124.9009988  26.2684247  44.0846565 125.4875747
  32.0930012  41.5824997 132.3319988  31.4170012  41.7134997 132.9959988
  31.6080012  41.4274997 131.5209988  31.9347146  41.5795157 132.3134469
  24.8440012  45.1714997 123.1169988  24.3010012  44.7914997 122.4259988
  25.6770012  45.3654997 122.6889988  24.8823631  45.1457125 122.9644501
  35.3810012  57.2544997 138.6079988  35.5810012  57.6784997 137.7739988
  36.0360012  57.5974997 139.2149988  35.4970072  57.3589857 138.5758592
  22.9790012  49.7284997 138.2159988  23.7110012  49.9824997 138.7779988
  22.1990012  49.9324997 138.7319988  22.9737073  49.7908160 138.3626151
  29.0080012  45.1354997 130.9539988  29.5730012  44.5884997 130.4069988
  28.8610012  44.6134997 131.7429988  29.0653380  44.9902259 130.9858695
  24.0100012  41.2714997 127.3729988  23.6930012  40.3694997 127.3369988
  24.7920012  41.2734997 126.8199988  24.0722408  41.1482474 127.2933569
  27.6350012  43.5234997 133.3679988  26.7990012  43.9774997 133.4789988
  28.1590012  43.7994997 134.1199988  27.5915416  43.6228660 133.4848119
  28.1790012  49.7364997 125.0529988  27.4340012  49.2294997 124.7309988
  28.0450012  49.7854997 125.9999988  28.0588776  49.6736940 125.1368647
  35.3290012  48.8694997 133.8399988  35.9710012  49.3264997 133.2959988
  34.4990012  48.9824997 133.3769988  35.3045963  48.9472704 133.7030177
  32.0770012  42.5504997 123.2519988  31.1380012  42.6624997 123.1009988
  32.3740012  43.4074997 123.5589988  31.9887583  42.6815981 123.2728337
  29.6980012  49.9204997 136.2899988  29.3530012  49.5394997 137.0969988
  29.4980012  50.8544997 136.3609988  29.6237527  49.9945135 136.4100689
  32.7950012  44.4174997 124.9129988  33.6870012  44.2804997 125.2319988
  32.8520012  45.2084997 124.3759988  32.9246504  44.5056052 124.8840818
  23.3040012  49.0314997 130.8229988  24.0490012  49.0294997 130.2219988
  23.3820012  48.2084997 131.3039988  23.4164995  48.9198887 130.8058282
  30.3050012  51.1954997 124.0789988  30.0090012  52.0214997 124.4599988
  29.6020012  50.5754997 124.2749988  30.1694914  51.2248199 124.1576443
  20.3120012  47.4924997 136.1379988  20.5350012  47.0744997 136.9699988
  19.7100012  46.8794997 135.7149988  20.2611759  47.3524668 136.1947022
  27.3280012  47.0094997 138.3509988  27.0320012  46.8434997 137.4559988
  28.2600012  46.7894997 138.3399988  27.4134166  46.9570640 138.2270536
  31.9490012  52.3824997 136.2409988  31.0480012  52.5654997 135.9729988
  31.9830012  52.6414997 137.1609988  31.8303139  52.4425849 136.3288099
  37.6800012  44.6274997 124.6079988  37.1260012  44.2314997 123.9359988
  37.7800012  45.5374997 124.3299988  37.6177059  44.6963586 124.4784401
  37.6430012  50.4274997 137.4449988  36.7920012  50.6654997 137.0779988
  38.2340012  50.4104997 136.6919988  37.6062487  50.4578258 137.2928893
  35.9750012  53.4134997 125.0729988  35.6020012  52.5874997 125.3819988
  36.2530012  53.2304997 124.1749988  35.9615222  53.2757430 124.9939473
  33.1360012  48.2214997 132.0939988  32.2070012  47.9894997 132.0669988
  33.5870012  47.4444997 131.7639988  33.0699216  48.0847238 132.0456917
  25.6790012  52.5494997 128.2269988  26.2060012  53.3224997 128.0269988
  24.7990012  52.7744997 127.9249988  25.6322031  52.6857545 128.1587912
  21.4340012  47.4114997 122.8139988  22.0500012  48.0384997 123.1939988
  20.5720012  47.7274997 123.0859988  21.4017698  47.5399430 122.9027183
  27.1060012  50.2124997 127.8029988  26.8650012  51.1374997 127.8449988
  26.3650012  49.7534997 128.1999988  26.9729225  50.2770933 127.8623742
  27.6210012  54.3614997 134.1189988  27.9830012  55.2164997 133.8849988
  28.1520012  54.0694997 134.8589988  27.7424473  54.4391060 134.1870855
  25.7890012  55.2344997 127.3489988  24.8390012  55.3394997 127.3999988
  26.1410012  56.0544997 127.6929988  25.7064195  55.3598800 127.4025502
  31.1650012  50.4604997 133.8189988  30.7390012  50.2334997 134.6459988
  31.7450012  49.7224997 133.6369988  31.1851868  50.3295299 133.9075830
  33.3680012  51.3894997 122.8929988  33.7210012  51.0094997 123.6969988
  32.4190012  51.2964997 122.9799988  33.2880918  51.3248956 123.0148532
  33.8230012  55.0124997 136.2889988  33.2220012  54.4574997 135.7929988
  34.1050012  55.6794997 135.6619988  33.7788804  55.0266625 136.1364849
  37.8710012  55.8694997 123.0939988  38.6150012  56.4554997 122.9539988
  37.1770012  56.4374997 123.4269988  37.8789899  56.0265798 123.1198778
  21.9460012  42.2454997 135.6959988  21.0530012  42.5844997 135.6279988
  21.8470012  41.3904997 136.1139988  21.8104164  42.1762588 135.7432235
  34.2340012  50.0624997 125.1199988  33.9560012  49.3344997 125.6759988
  35.1610012  50.1814997 125.3249988  34.3213124  49.9788802 125.2238845
  21.5970012  54.0504997 134.1309988  21.8140012  53.1184997 134.0999988
  21.8430012  54.3244997 135.0139988  21.6599549  53.9600636 134.2461763
  27.4590012  52.5014997 121.3399988  27.6980012  51.7534997 120.7929988
  27.1900012  52.1134997 122.1729988  27.4553675  52.3466638 121.3776865
  26.3960012  52.0714997 123.7959988  26.5420012  51.5514997 124.5859988
  26.3930012  52.9784997 124.1029988  26.4155792  52.1228842 123.9456117
  22.8490012  49.3244997 124.3069988  22.1630012  49.6764997 124.8739988
  23.3710012  50.0874997 124.0599988  22.8256852  49.4758578 124.3512118
  30.6800012  41.9864997 134.5859988  31.3790012  42.0604997 135.2359988
  30.2990012  41.1224997 134.7399988  30.7241767  41.8797624 134.6958322
  31.4650012  41.6384997 125.6829988  31.6850012  42.1104997 124.8799988
  32.0230012  42.0334997 126.3529988  31.5704968  41.7564285 125.6637331
  29.1330012  53.7694997 124.5459988  28.3170012  54.2664997 124.5979988
  29.6630012  54.2444997 123.9059988  29.0929161  53.9017722 124.4665956
  28.6650012  43.3664997 126.5179988  29.4770012  43.8714997 126.5639988
  28.4200012  43.2214997 127.4319988  28.7430520  43.4160375 126.6478517
  29.2000012  44.3524997 135.7019988  29.3190012  44.9264997 136.4599988
  29.8560012  43.6644997 135.8169988  29.3049025  44.3379858 135.8211321
  29.5480012  40.4474997 127.4559988  29.2020012  41.0654997 128.0999988
  30.2070012  40.9484997 126.9739988  29.5896968  40.5996278 127.4789383
  26.4720012  54.8134997 124.5269988  26.6320012  55.6124997 124.0269988
  26.2740012  55.1194997 125.4119988  26.4671637  54.9644020 124.5781144
  25.2060012  41.5104997 124.1429988  25.1230012  42.3994997 124.4899988
  26.0960012  41.2454997 124.3749988  25.3149469  41.5961430 124.2217626
  35.4050012  42.2594997 136.5369988  34.4880012  42.5224997 136.4499988
  35.7400012  42.2564997 135.6409988  35.3248613  42.2950761 136.4038837
  34.0070012  46.0104997 130.6329988  33.2090012  45.5954997 130.3049988
  34.4520012  45.3194997 131.1239988  33.9579885  45.8603543 130.6544889
  23.4650012  51.9384997 123.2039988  24.0570012  52.6374997 123.4799988
  23.9240012  51.5054997 122.4839988  23.6081142  51.9757049 123.1444830
  21.7810012  44.6024997 122.3199988  21.7360012  45.5414997 122.4979988
  20.8930012  44.3664997 122.0499988  21.6548574  44.6991892 122.3078912
  35.0930012  55.2664997 132.2559988  34.9380012  55.9444997 131.5979988
  36.0260012  55.3384997 132.4589988  35.1978657  55.3689546 132.1934360
  22.5890012  39.3844997 130.9929988  22.3600012  39.4434997 130.0649988
  22.1460012  38.5924997 131.2989988  22.4978530  39.2855753 130.9074786
  21.5190012  53.3244997 127.1529988  20.6870012  53.7974997 127.1799988
  22.0650012  53.8344997 126.5549988  21.4790352  53.4581332 127.0758463
  20.8070012  55.9374997 138.4829988  21.3480012  55.7204997 139.2429988
  20.3260012  55.1314997 138.2929988  20.8159951  55.7989270 138.5612576
  25.4050012  54.8564997 140.1029988  26.1720012  54.3974997 140.4439988
  25.3830012  54.6304997 139.1739988  25.5071275  54.7630186 140.0240101
  29.4970012  54.3644997 121.4789988  28.8530012  53.7334997 121.7999988
  30.2590012  53.8334997 121.2469988  29.5118077  54.2062920 121.4916011
  31.9820012  53.2364997 138.8329988  31.6310012  52.3804997 139.0759988
  32.7080012  53.3794997 139.4399988  32.0320769  53.1385636 138.9483619
  34.1010012  54.1814997 121.7119988  34.3840012  53.3874997 122.1649988
  34.8410012  54.4144997 121.1519988  34.2398006  54.1043376 121.6982715
  20.7140012  49.7474997 139.4369988  20.8580012  48.8454997 139.1509988
  19.9420012  50.0334997 138.9499988  20.6292753  49.6626816 139.3319505
  25.0560012  50.0914997 121.5699988  25.1200012  49.2974997 122.1009988
  25.7090012  49.9724997 120.8799988  25.1530241  49.9667148 121.5494317
  27.3700012  49.7174997 138.8699988  27.0410012  49.9884997 138.0129988
  27.5220012  48.7764997 138.7829988  27.3454809  49.6273862 138.7408244
  30.4080012  51.1384997 121.3059988  30.1390012  51.3184997 122.2069988
  30.2020012  50.2124997 121.1739988  30.3433427  51.0380261 121.4115073
  33.1040012  49.6334997 136.2529988  33.8500012  50.2214997 136.1339988
  32.3470012  50.2154997 136.3169988  33.1037820  49.7927143 136.2453590
  21.5470012  46.9474997 138.8569988  21.9550012  46.0904997 138.7359988
  21.2870012  46.9624997 139.7779988  21.5677568  46.8320807 138.9649588
  26.2050012  48.0634997 123.8759988  25.7450012  47.5794997 124.5619988
  26.4600012  47.3954997 123.2399988  26.1764902  47.9068731 123.8839334
  25.4940012  45.9564997 136.2319988  24.8760012  46.6314997 136.5119988
  25.8380012  46.2774997 135.3979988  25.4559132  46.0922411 136.1576262
  27.2760012  46.3064997 122.1379988  27.0960012  46.1524997 121.2109988
  28.2260012  46.4144997 122.1829988  27.3797776  46.3000175 122.0171843
  30.5140012  48.4284997 139.5089988  31.4670012  48.5114997 139.4819988
  30.3530012  47.7164997 140.1289988  30.6226426  48.3436746 139.5890579
  36.6660012  48.6614997 121.5839988  36.3920012  48.2364997 120.7709988
  36.7050012  49.5924997 121.3669988  36.6337699  48.7292484 121.4433610
  25.8330012  43.3114997 137.3139988  25.9830012  42.5824997 136.7119988
  25.8360012  44.0884997 136.7549988  25.8539302  43.3167851 137.1560692
  26.2460012  41.6814997 134.8069988  26.7820012  42.1324997 134.1549988
  25.3940012  41.5734997 134.3839988  26.2042178  41.7286390 134.6605756
  27.8280012  47.1204997 135.0459988  28.5780012  46.9644997 134.4729988
  27.4890012  47.9724997 134.7709988  27.8848921  47.2142968 134.9303561
  32.2430012  44.9354997 140.0749988  32.4360012  44.0044997 139.9629988
  33.1010012  45.3604997 140.0639988  32.3852934  44.8656531 140.0582031
  33.5600012  47.7244997 138.1519988  33.2790012  48.4334997 137.5739988
  34.5030012  47.6514997 138.0009988  33.6489291  47.8116711 138.0524967
  24.3120012  44.5094997 139.2259988  23.5450012  43.9774997 139.0149988
  24.9910012  44.1994997 138.6259988  24.2987877  44.3948300 139.1160716
  27.0520012  39.1374997 135.2379988  26.9530012  40.0844997 135.1329988
  26.3090012  38.7654997 134.7619988  26.9381184  39.2165863 135.1593621
  28.3160012  43.4594997 138.8019988  28.0800012  43.2394997 139.7029988
  27.5320012  43.2524997 138.2919988  28.1778504  43.4014586 138.8563431
  31.0310012  42.5864997 137.8769988  30.0840012  42.6184997 138.0099988
  31.3440012  41.9614997 138.5309988  30.9436707  42.5063998 137.9836060
  32.6650012  41.2204997 139.8829988  32.5690012  40.2684997 139.8769988
  32.3440012  41.4894997 140.7429988  32.6084070  41.1264035 139.9985441
  22.4920012  42.4304997 138.9299988  22.7040012  41.7234997 138.3199988
  22.3810012  41.9924997 139.7739988  22.5059721  42.2747084 138.9606843
  27.2730012  38.4314997 137.9089988  27.9850012  37.7914997 137.8949988
  27.1720012  38.6984997 136.9959988  27.3568066  38.3800079 137.7835677
  27.6270012  40.1144997 139.9629988  27.4950012  39.6384997 139.1429988
  27.0280012  40.8584997 139.9079988  27.5279071  40.1499618 139.8432886
  27.1730012  56.9974997 123.1389988  28.1060012  57.1554997 123.2829988
  26.9090012  57.6724997 122.5149988  27.2649888  57.1104510 123.0742842
  20.7420012  51.6334997 122.6219988  21.6560012  51.7124997 122.8959988
  20.7490012  50.9464997 121.9559988  20.8681131  51.5513961 122.5694393
  19.3910012  57.0264997 127.6999988  18.7440012  56.5644997 127.1669988
  19.7450012  56.3544997 128.2819988  19.3503849  56.8724723 127.7057959
  20.2610012  55.1074997 129.5039988  19.9260012  54.2274997 129.6759988
  20.4830012  55.4524997 130.3689988  20.2451783  55.0337500 129.6444208
  37.8090012  55.9164997 132.4849988  37.7880012  56.1014997 133.4239988
  38.5000012  56.4854997 132.1439988  37.8994618  56.0186606 132.5673864
  37.3730012  55.4844997 135.4069988  36.8850012  54.7484997 135.0349988
  37.9220012  55.0904997 136.0849988  37.3804820  55.3305889 135.4477813
  35.8230012  51.2734997 140.0449988  34.9570012  51.1684997 140.4389988
  36.2000012  52.0324997 140.4909988  35.7553308  51.3616900 140.1592393
  37.1240012  49.5304997 125.5589988  37.9740012  49.9514997 125.6859988
  37.1300012  48.7904997 126.1659988  37.2411372  49.4880803 125.6584344
  37.5190012  47.5834997 127.3819988  36.7920012  47.1044997 127.7799988
  38.1000012  47.7894997 128.1149988  37.4980473  47.5458103 127.5354528
  37.2780012  50.3684997 132.3299988  38.1110012  49.9904997 132.0499988
  37.3900012  51.3114997 132.2109988  37.4072647  50.4442218 132.2755487
  35.7640012  53.2464997 134.6369988  35.1170012  53.5714997 135.2629988
  35.2470012  52.8064997 133.9629988  35.6054029  53.2315004 134.6315827
  37.7870012  47.4844997 123.7739988  37.2650012  47.8414997 123.0549988
  37.7540012  48.1594997 124.4519988  37.7111634  47.6245413 123.7673145
  36.1360012  44.7244997 122.3239988  36.2320012  45.3914997 121.6439988
  35.9960012  43.9084997 121.8429988  36.1302272  44.7055655 122.1658347
  35.3050012  46.1044997 127.9449988  35.1550012  45.1594997 127.9249988
  34.9520012  46.3854997 128.7889988  35.2367448  46.0131481 128.0563705
  20.3410012  48.1824997 131.9559988  20.5250012  48.1004997 131.0199988
  21.1900012  48.0584997 132.3789988  20.4810151  48.1545073 131.8851451
  36.1620012  48.0744997 137.5839988  36.7450012  47.3404997 137.7759988
  36.7260012  48.8464997 137.6309988  36.3179769  48.0784227 137.6166159
  37.6580012  45.9774997 138.2689988  36.7950012  45.5984997 138.1029988
  38.2630012  45.2384997 138.1939988  37.6216119  45.8258268 138.2361528
  35.3830012  42.1324997 121.4419988  35.9940012  41.7614997 122.0789988
  34.5470012  41.7114997 121.6379988  35.3535032  42.0247554 121.5557035
  35.0160012  43.6874997 126.4079988  35.2960012  42.7804997 126.5319988
  35.7750012  44.1214997 126.0189988  35.1569277  43.6220942 126.3723682
  35.6280012  44.2684997 131.8439988  36.5610012  44.4804997 131.8089988
  35.3930012  44.3704997 132.7659988  35.7239244  44.3113100 131.9638892
  35.6570012  45.0054997 134.6199988  34.8140012  45.2734997 134.9859988
  36.0990012  45.8274997 134.4089988  35.6014158  45.1533291 134.6415491
  19.9380012  43.4534997 138.0969988  20.8580012  43.3314997 138.3329988
  19.4890012  42.7034997 138.4859988  20.0031580  43.3353727 138.1819006
  37.9400012  38.9854997 139.9729988  38.2900012  38.3314997 139.3679988
  38.0870012  39.8224997 139.5329988  38.0077887  39.0091548 139.8306858
  35.6290012  40.9504997 126.4559988  35.8120012  40.5014997 127.2819988
  35.0300012  40.3654997 125.9929988  35.5730202  40.8099975 126.5063275
  21.1590012  41.7654997 130.9879988  21.6050012  40.9734997 131.2899988
  21.6260012  42.4814997 131.4179988  21.2830831  41.7540685 131.0874006
  19.4630012  44.7644997 132.0569988  19.9550012  44.5434997 131.2659988
  19.8260012  45.6054997 132.3379988  19.5793126  44.8478357 131.9867531
  37.4600012  41.0944997 138.3219988  36.5420012  41.3654997 138.2869988
  37.5830012  40.5594997 137.5379988  37.3509729  41.0592508 138.2111923
  37.4960012  41.0174997 122.9839988  37.9080012  40.2964997 122.5089988
  38.1780012  41.6874997 123.0429988  37.6445885  41.0092368 122.9268915
  19.7770012  41.0224997 126.1109988  18.8520012  41.2314997 125.9819988
  20.2310012  41.5064997 125.4209988  19.7117292  41.1165343 126.0000720
  34.5480012  56.0064997 128.0569988  35.2000012  55.6594997 127.4489988
  35.0580012  56.4954997 128.7029988  34.7062637  56.0250597 128.0610236
  19.7410012  39.7604997 134.4549988  19.0760012  39.5144997 135.0989988
  19.2980012  40.3824997 133.8779988  19.5901318  39.8109410 134.4650898
  21.9330012  52.9354997 138.5999988  21.1120012  53.1104997 138.1389988
  21.6800012  52.8624997 139.5199988  21.7865585  52.9495544 138.6613561
  24.8870012  53.9104997 134.8579988  24.4620012  54.7194997 134.5759988
  25.7910012  53.9954997 134.5559988  24.9509975  54.0329300 134.7784816
  29.1980012  55.3094997 137.8179988  29.3830012  54.9754997 138.6959988
  30.0440012  55.6184997 137.4959988  29.3377539  55.3056047 137.8945605
  31.5430012  56.5954997 137.0619988  32.2200012  55.9624997 136.8219988
  31.8650012  56.9964997 137.8689988  31.6791637  56.5631154 137.1382793
  36.4600012  39.1844997 136.1409988  35.6480012  39.5094997 135.7539988
  36.6930012  38.4244997 135.6079988  36.3802203  39.1262758 136.0158880
  22.2890012  57.1664997 134.9059988  21.5680012  57.6064997 134.4549988
  21.9230012  56.9154997 135.7539988  22.1409651  57.1927242 134.9589640
  24.7560012  56.7664997 133.9359988  23.8910012  56.8384997 134.3399988
  24.7010012  57.3134997 133.1519988  24.6302085  56.8502685 133.8853362
  29.4660012  56.6544997 133.1109988  29.0100012  57.1834997 132.4569988
  29.6290012  57.2574997 133.8359988  29.4256068  56.8084607 133.1194838
  31.7940012  55.5324997 134.0559988  30.8890012  55.6974997 133.7899988
  32.2230012  56.3854997 133.9909988  31.7281324  55.6704339 134.0107976
  34.3980012  57.1024997 134.3509988  34.2160012  58.0184997 134.1409988
  34.5750012  56.6924997 133.5049988  34.3970210  57.1724822 134.2077885
  21.7030012  55.7894997 131.8159988  21.6850012  55.3644997 132.6729988
  22.5080012  55.4714997 131.4069988  21.8093529  55.6883013 131.8780946
  23.8450012  54.4994997 130.4709988  23.6260012  53.5834997 130.6409988
  24.6690012  54.6394997 130.9369988  23.9264420  54.3930520 130.5572774
  26.3820012  54.9694997 131.3199988  26.5950012  54.0814997 131.0329988
  26.4460012  54.9354997 132.2739988  26.4198231  54.8433102 131.4097397
  29.8900012  40.6334997 130.4639988  29.2160012  40.0044997 130.7199988
  30.4540012  40.1494997 129.8609988  29.8739230  40.4818744 130.4175340
  35.0330012  38.7414997 130.5769988  35.6370012  39.2884997 130.0749988
  34.1630012  39.0604997 130.3359988  34.9981208  38.8595137 130.4756886
  36.7600012  39.8794997 128.9099988  37.3720012  39.3654997 128.3829988
  37.1420012  40.7574997 128.9329988  36.8953371  39.9277866 128.8410041
  22.2170012  39.2674997 128.2859988  21.4400012  39.0334997 127.7789988
  22.7470012  38.4704997 128.2949988  22.1822330  39.1276988 128.2177742
  21.0530012  39.0654997 124.0899988  21.4920012  39.6764997 123.4979988
  20.4200012  39.6034997 124.5639988  21.0274514  39.2219257 124.0730930
  26.7960012  39.1944997 128.0999988  27.6710012  39.5824997 128.0699988
  26.6600012  38.9794997 129.0219988  26.8973695  39.2185184 128.2206440
  32.3530012  39.2244997 129.7489988  32.4290012  39.3194997 128.7989988
  32.0780012  38.3164997 129.8779988  32.3262321  39.1147867 129.6365079
  33.7060012  39.2504997 125.4409988  33.0040012  39.8654997 125.2309988
  33.2620012  38.4124997 125.5719988  33.5496450  39.2215639 125.4299000
  20.9540012  55.0134997 124.9869988  20.2690012  54.9754997 124.3199988
  20.9580012  55.9264997 125.2759988  20.8606998  55.1316733 124.9346771
  22.9140012  40.9814997 122.5319988  23.4060012  40.3514997 122.0049988
  23.5380012  41.2774997 123.1949988  23.0655688  40.9353804 122.5495482
  27.9400012  41.2744997 124.9889988  28.1180012  40.6284997 125.6719988
  27.8870012  42.1084997 125.4559988  27.9571999  41.2988009 125.1455917
  29.8190012  56.2234997 123.3849988  30.6850012  56.5894997 123.2069988
  29.5720012  55.7834997 122.5709988  29.9042392  56.2141756 123.2506289
  36.5280012  55.7864997 126.0639988  36.3330012  55.0384997 125.4989988
  36.4890012  56.5444997 125.4809988  36.4960380  55.7866099 125.9078384
  22.1750012  39.7814997 137.8039988  21.8090012  39.0164997 138.2459988
  23.0880012  39.8104997 138.0899988  22.2482736  39.6805640 137.9032502
  24.1480012  39.1324997 139.3399988  25.0460012  38.8584997 139.1549988
  23.7610012  38.3894997 139.8039988  24.2186612  38.9945914 139.3773643
  22.7720012  55.9334997 122.0129988  22.5050012  56.2204997 122.8859988
  23.5440012  55.3874997 122.1649988  22.8397488  55.8990294 122.1531050
  32.5690012  38.4644997 139.5219988  32.6460012  38.0384997 140.3759988
  33.4630012  38.4784997 139.1789988  32.7003428  38.4080879 139.5925310
  35.7450012  54.5374997 138.2139988  34.9630012  54.3514997 137.6939988
  35.6730012  55.4664997 138.4319988  35.6282274  54.6376643 138.1723018
  50.1510012  48.4234997 128.2449988  50.2400012  49.3674997 128.1129988
  49.5130012  48.1484997 127.5869988  50.0769081  48.5154830 128.1379614
  49.0840012  47.6784997 131.6639988  49.0460012  47.0324997 132.3689988
  48.7620012  47.2124997 130.8929988  49.0352333  47.5269408 131.6562978
  41.4530012  47.2934997 133.2569988  41.4940012  46.6674997 133.9799988
  42.1560012  47.9174997 133.4389988  41.5536363  47.2921196 133.3806044
  52.7900012  50.6174997 129.9649988  52.3500012  49.8974997 130.4159988
  52.7770012  51.3384997 130.5949988  52.7280226  50.6163731 130.1118494
  42.3760012  51.7434997 131.7919988  42.0070012  50.9414997 131.4219988
  43.3170012  51.5744997 131.8379988  42.4527289  51.6110153 131.7476316
  38.9860012  45.4034997 127.1849988  38.5390012  46.2494997 127.1659988
  38.4250012  44.8234997 126.6689988  38.8489900  45.4409916 127.1126801
  39.6970012  47.5654997 129.3099988  39.9100012  46.7954997 129.8379988
  40.4350012  47.6544997 128.7069988  39.8259044  47.4721968 129.3007123
  49.9020012  55.7224997 130.1769988  50.5220012  55.0454997 129.9039988
  49.6940012  55.5044997 131.0859988  49.9586726  55.6004800 130.2624812
  47.4740012  50.1114997 132.0699988  47.7780012  49.4254997 131.4749988
  48.1950012  50.2294997 132.6879988  47.6130671  50.0336304 132.0721816
  56.1370012  41.7124997 132.9309988  56.1860012  42.3224997 133.6659988
  56.5620012  42.1734997 132.2079988  56.2011746  41.8583796 132.9339175
  50.6150012  44.5054997 132.3969988  50.7570012  43.5594997 132.4179988
  50.5080012  44.7124997 131.4689988  50.6199919  44.4038246 132.2743408
  43.7690012  42.6064997 129.6699988  43.8130012  43.4664997 129.2509988
  43.3120012  42.0544997 129.0359988  43.7132240  42.6494422 129.5269864
  51.4920012  42.7374997 128.0709988  52.1380012  42.4084997 128.6949988
  52.0020012  43.2554997 127.4479988  51.6494299  42.7624450 128.0722731
  40.3900012  45.0034997 130.4319988  41.0430012  44.4534997 130.8639988
  40.4140012  44.7294997 129.5149988  40.4826683  44.8911466 130.3672123
  45.5460012  46.5534997 129.6469988  46.1620012  46.0274997 130.1569988
  44.9600012  45.9134997 129.2439988  45.5510810  46.3949208 129.6623173
  56.5280012  43.1904997 135.1659988  55.8400012  43.8484997 135.0709988
  56.5440012  42.9934997 136.1029988  56.4359540  43.2539819 135.2795990
  42.5800012  41.5244997 133.7439988  42.3610012  42.0544997 132.9779988
  41.9120012  41.7514997 134.3909988  42.4597600  41.6276906 133.7266379
  49.9490012  51.0244997 127.2879988  49.6530012  50.7024997 126.4369988
  49.6240012  51.9244997 127.3289988  49.8646371  51.1020215 127.1771801
  45.1490012  49.2004997 134.0309988  44.4090012  49.7984997 134.1349988
  45.8630012  49.7544997 133.7159988  45.1442237  49.3572831 134.0026465
  53.2560012  42.0284997 130.0509988  53.0400012  41.2624997 130.5839988
  53.9110012  42.5004997 130.5639988  53.3150632  41.9875889 130.1932861
  42.1730012  43.4164997 131.6959988  42.7870012  44.0494997 132.0689988
  42.6850012  42.9444997 131.0399988  42.3261981  43.4392267 131.6582908
  43.5560012  51.1644997 134.8179988  43.5510012  52.0444997 134.4399988
  42.7030012  51.0814997 135.2429988  43.4399464  51.2736117 134.8237907
  39.6770012  50.8354997 125.5999988  39.4050012  51.0644997 124.7119988
  39.7230012  51.6734997 126.0609988  39.6459482  50.9801318 125.5406273
  53.3020012  52.4574997 132.3129988  52.3610012  52.5154997 132.4749988
  53.5790012  53.3634997 132.1759988  53.2104679  52.5879443 132.3166815
  53.6030012  40.7434997 133.7309988  52.8670012  41.3544997 133.6929988
  54.2860012  41.1584997 133.2039988  53.5946541  40.8831374 133.6545832
  46.6060012  38.8304997 131.1959988  46.4890012  37.8814997 131.1419988
  45.7510012  39.1624997 131.4699988  46.4744212  38.7455571 131.2256497
  51.5540012  54.2384997 128.9379988  51.9800012  53.5314997 128.4529988
  51.8710012  55.0394997 128.5219988  51.6551683  54.2501017 128.8153680
  52.7140012  52.1394997 127.4469988  52.4560012  51.4494997 126.8359988
  52.7850012  51.6964997 128.2929988  52.6882856  51.9852124 127.4776885
  54.4000012  50.7054997 135.9239988  54.5400012  50.1144997 135.1849988
  54.5670012  51.5784997 135.5679988  54.4417411  50.7425428 135.7746894
  48.8730012  47.6674997 125.6969988  48.1610012  48.2024997 125.3449988
  49.5640012  47.7234997 125.0369988  48.8690132  47.7482543 125.5596289
  48.9260012  46.1254997 122.7359988  49.6270012  46.1474997 123.3869988
  49.2290012  45.4974997 122.0789988  49.0628133  46.0437070 122.7363369
  56.2420012  47.0454997 133.9899988  55.5890012  47.7404997 134.0799988
  56.7070012  47.2554997 133.1809988  56.2155274  47.1690643 133.8928462
  52.2780012  47.8774997 126.6489988  51.5460012  48.1054997 127.2219988
  52.7260012  47.1634997 127.1029988  52.2382725  47.8122145 126.7888816
  52.1760012  46.0514997 135.7159988  52.2560012  46.8144997 136.2879988
  51.5740012  46.3304997 135.0259988  52.1055756  46.1937134 135.7010589
  43.9240012  48.5074997 128.5309988  43.5930012  48.1374997 127.7129988
  44.5120012  47.8374997 128.8779988  43.9581873  48.3661156 128.4658102
  45.2900012  51.9354997 131.2119988  45.1960012  51.3574997 130.4559988
  46.0200012  51.5644997 131.7089988  45.3757387  51.8061663 131.1755342
  44.2900012  47.2764997 132.1649988  44.8560012  47.3974997 131.4019988
  44.6090012  47.9134997 132.8029988  44.4105474  47.3792219 132.1469862
  50.5990012  52.7794997 132.8989988  50.3590012  53.4414997 133.5469988
  50.4010012  51.9454997 133.3239988  50.5393808  52.7573134 133.0451524
  45.1700012  51.6754997 136.8819988  44.8590012  52.4574997 137.3369988
  44.5200012  51.5224997 136.1959988  45.0395558  51.7619105 136.8515871
  51.1490012  47.0394997 124.3339988  51.7290012  47.1894997 125.0809988
  51.5630012  47.5104997 123.6099988  51.2842997  47.1236578 124.3384058
  42.0900012  47.8734997 136.1099988  42.1610012  48.5244997 136.8089988
  41.2000012  47.9764997 135.7749988  41.9793005  47.9765427 136.1603495
  48.8760012  53.7764997 127.7689988  49.3500012  54.0714997 128.5459988
  48.3130012  54.5144997 127.5359988  48.8648184  53.9167247 127.8439628
  43.4100012  53.7474997 137.6449988  43.4170012  53.6114997 136.6979988
  42.4940012  53.6294997 137.8969988  43.2871714  53.7129430 137.5494666
  54.8480012  38.7894997 124.1469988  53.9480012  38.9284997 124.4419988
  55.1000012  39.6204997 123.7449988  54.7588702  38.9209074 124.1330205
  42.9140012  47.5774997 126.1199988  42.6220012  48.3454997 125.6299988
  42.2400012  46.9174997 125.9579988  42.7828111  47.5935587 126.0308978
  56.0370012  53.1554997 122.5229988  56.1110012  54.0944997 122.6939988
  56.9430012  52.8504997 122.4669988  56.1695100  53.2426722 122.5388119
  39.0070012  49.9404997 134.9349988  38.5060012  49.9124997 134.1199988
  39.0120012  49.0344997 135.2449988  38.9390944  49.8142396 134.8653226
  38.7570012  52.7204997 131.8189988  39.7030012  52.5764997 131.7999988
  38.6450012  53.5044997 132.3559988  38.8712727  52.8068046 131.8890072
  56.9550012  53.3864997 137.5019988  56.9060012  52.4314997 137.4649988
  56.1280012  53.6544997 137.9029988  56.8364940  53.2918998 137.5511375
  47.9340012  52.9604997 136.3779988  48.0210012  53.7864997 136.8529988
  47.0700012  52.6304997 136.6269988  47.8291964  53.0289878 136.4766549
  48.3480012  56.7324997 126.1839988  48.2730012  56.6114997 125.2369988
  48.3810012  57.6824997 126.3019988  48.3422068  56.8442646 126.0704967
  42.0010012  55.5214997 127.9649988  42.1540012  55.1734997 128.8429988
  41.1510012  55.1654997 127.7099988  41.9069166  55.4256217 128.0508079
  51.4500012  55.8864997 123.1859988  51.8250012  55.1424997 122.7149988
  51.4540012  55.6164997 124.1049988  51.5019125  55.7480986 123.2456483
  51.1190012  55.8124997 125.9349988  50.1830012  55.9124997 126.1139988
  51.3990012  55.1034997 126.5139988  51.0289553  55.7303406 126.0377087
  54.1070012  44.8794997 137.9819988  53.7000012  45.3604997 137.2609988
  54.1480012  43.9744997 137.6739988  54.0568437  44.8229374 137.8416683
  41.2560012  51.2634997 135.9789988  41.4720012  50.9024997 136.8379988
  40.4010012  50.8894997 135.7689988  41.1699292  51.1634111 136.0683386
  43.8750012  39.7334997 131.9739988  43.0130012  39.6464997 131.5659988
  43.8520012  40.5894997 132.4019988  43.7540409  39.8372883 131.9760589
  48.5380012  39.4554997 135.3489988  48.9580012  39.0404997 136.1019988
  47.6050012  39.2774997 135.4659988  48.4693644  39.3745900 135.4679539
  51.8640012  43.2114997 136.2019988  51.3500012  43.0854997 136.9999988
  51.7090012  44.1234997 135.9579988  51.7726852  43.3176132 136.2782158
  52.6270012  48.0724997 121.9639988  52.6690012  47.8494997 121.0339988
  53.4760012  48.4714997 122.1529988  52.7475280  48.0959438 121.8623554
  48.1990012  41.9484997 122.6339988  47.9460012  41.9674997 123.5569988
  47.9430012  41.0764997 122.3319988  48.1297481  41.8332558 122.7196175
  43.9660012  44.6994997 133.0689988  43.3240012  44.6584997 133.7779988
  44.0030012  45.6254997 132.8309988  43.8830664  44.8191430 133.1339219
  43.9630012  44.9204997 127.9809988  43.0700012  44.5794997 127.9219988
  44.4130012  44.5434997 127.2249988  43.9018130  44.8229631 127.8707702
  49.4980012  45.3364997 126.7979988  49.0890012  46.1514997 126.5069988
  50.2190012  45.1964997 126.1839988  49.5394537  45.4292018 126.6751342
  48.6000012  45.5114997 138.2859988  48.0380012  44.8074997 138.6069988
  49.4270012  45.3914997 138.7539988  48.6347095  45.3987883 138.3932330
  50.5030012  44.7824997 129.6119988  50.3080012  45.3874997 128.8969988
  50.6840012  43.9484997 129.1779988  50.5007614  44.7526300 129.4554405
  41.7160012  45.0194997 134.9359988  41.6780012  45.4194997 135.8049988
  41.2250012  44.2024997 135.0269988  41.6444684  44.9638069 135.0671059
  45.0820012  42.3934997 121.7349988  44.6510012  41.9484997 122.4649988
  44.3640012  42.7654997 121.2229988  44.9259438  42.3828940 121.7656799
  38.3240012  42.1354997 128.7869988  38.9550012  42.1064997 129.5059988
  38.7730012  41.7104997 128.0559988  38.4710918  42.0740836 128.7866441
  39.5980012  42.8814997 124.2109988  40.0720012  43.4724997 123.6259988
  38.8810012  43.4124997 124.5579988  39.5659341  43.0340867 124.1778836
  49.7670012  46.4204997 134.2829988  50.0900012  45.7894997 133.6399988
  49.3270012  45.8854997 134.9439988  49.7517484  46.2618387 134.2843198
  46.5440012  42.3474997 129.0669988  45.6330012  42.4044997 129.3559988
  47.0500012  42.2874997 129.8779988  46.4876899  42.3471941 129.2161184
  41.3730012  43.9764997 127.8939988  40.4830012  44.0764997 127.5539988
  41.6690012  43.1344997 127.5479988  41.2912823  43.8763545 127.8007213
  45.0260012  43.9764997 125.5509988  45.9570012  44.1054997 125.7289988
  44.8110012  44.6464997 124.9009988  45.1244247  44.0846565 125.4875747
  50.9490012  41.5824997 132.3319988  50.2730012  41.7134997 132.9959988
  50.4640012  41.4274997 131.5209988  50.7907146  41.5795157 132.3134469
  43.7000012  45.1714997 123.1169988  43.1570012  44.7914997 122.4259988
  44.5330012  45.3654997 122.6889988  43.7383631  45.1457125 122.9644501
  54.2370012  57.2544997 138.6079988  54.4370012  57.6784997 137.7739988
  54.8920012  57.5974997 139.2149988  54.3530072  57.3589857 138.5758592
  41.8350012  49.7284997 138.2159988  42.5670012  49.9824997 138.7779988
  41.0550012  49.9324997 138.7319988  41.8297073  49.7908160 138.3626151
  47.8640012  45.1354997 130.9539988  48.4290012  44.5884997 130.4069988
  47.7170012  44.6134997 131.7429988  47.9213380  44.9902259 130.9858695
  42.8660012  41.2714997 127.3729988  42.5490012  40.3694997 127.3369988
  43.6480012  41.2734997 126.8199988  42.9282408  41.1482474 127.2933569
  46.4910012  43.5234997 133.3679988  45.6550012  43.9774997 133.4789988
  47.0150012  43.7994997 134.1199988  46.4475416  43.6228660 133.4848119
  47.0350012  49.7364997 125.0529988  46.2900012  49.2294997 124.7309988
  46.9010012  49.7854997 125.9999988  46.9148776  49.6736940 125.1368647
  54.1850012  48.8694997 133.8399988  54.8270012  49.3264997 133.2959988
  53.3550012  48.9824997 133.3769988  54.1605963  48.9472704 133.7030177
  50.9330012  42.5504997 123.2519988  49.9940012  42.6624997 123.1009988
  51.2300012  43.4074997 123.5589988  50.8447583  42.6815981 123.2728337
  48.5540012  49.9204997 136.2899988  48.2090012  49.5394997 137.0969988
  48.3540012  50.8544997 136.3609988  48.4797527  49.9945135 136.4100689
  51.6510012  44.4174997 124.9129988  52.5430012  44.2804997 125.2319988
  51.7080012  45.2084997 124.3759988  51.7806504  44.5056052 124.8840818
  42.1600012  49.0314997 130.8229988  42.9050012  49.0294997 130.2219988
  42.2380012  48.2084997 131.3039988  42.2724995  48.9198887 130.8058282
  49.1610012  51.1954997 124.0789988  48.8650012  52.0214997 124.4599988
  48.4580012  50.5754997 124.2749988  49.0254914  51.2248199 124.1576443
  39.1680012  47.4924997 136.1379988  39.3910012  47.0744997 136.9699988
  38.5660012  46.8794997 135.7149988  39.1171759  47.3524668 136.1947022
  46.1840012  47.0094997 138.3509988  45.8880012  46.8434997 137.4559988
  47.1160012  46.7894997 138.3399988  46.2694166  46.9570640 138.2270536
  50.8050012  52.3824997 136.2409988  49.9040012  52.5654997 135.9729988
  50.8390012  52.6414997 137.1609988  50.6863139  52.4425849 136.3288099
  56.5360012  44.6274997 124.6079988  55.9820012  44.2314997 123.9359988
  56.6360012  45.5374997 124.3299988  56.4737059  44.6963586 124.4784401
  56.4990012  50.4274997 137.4449988  55.6480012  50.6654997 137.0779988
  57.0900012  50.4104997 136.6919988  56.4622487  50.4578258 137.2928893
  54.8310012  53.4134997 125.0729988  54.4580012  52.5874997 125.3819988
  55.1090012  53.2304997 124.1749988  54.8175222  53.2757430 124.9939473
  51.9920012  48.2214997 132.0939988  51.0630012  47.9894997 132.0669988
  52.4430012  47.4444997 131.7639988  51.9259216  48.0847238 132.0456917
  44.5350012  52.5494997 128.2269988  45.0620012  53.3224997 128.0269988
  43.6550012  52.7744997 127.9249988  44.4882031  52.6857545 128.1587912
  40.2900012  47.4114997 122.8139988  40.9060012  48.0384997 123.1939988
  39.4280012  47.7274997 123.0859988  40.2577698  47.5399430 122.9027183
  45.9620012  50.2124997 127.8029988  45.7210012  51.1374997 127.8449988
  45.2210012  49.7534997 128.1999988  45.8289225  50.2770933 127.8623742
  46.4770012  54.3614997 134.1189988  46.8390012  55.2164997 133.8849988
  47.0080012  54.0694997 134.8589988  46.5984473  54.4391060 134.1870855
  44.6450012  55.2344997 127.3489988  43.6950012  55.3394997 127.3999988
  44.9970012  56.0544997 127.6929988  44.5624195  55.3598800 127.4025502
  50.0210012  50.4604997 133.8189988  49.5950012  50.2334997 134.6459988
  50.6010012  49.7224997 133.6369988  50.0411868  50.3295299 133.9075830
  52.2240012  51.3894997 122.8929988  52.5770012  51.0094997 123.6969988
  51.2750012  51.2964997 122.9799988  52.1440918  51.3248956 123.0148532
  52.6790012  55.0124997 136.2889988  52.0780012  54.4574997 135.7929988
  52.9610012  55.6794997 135.6619988  52.6348804  55.0266625 136.1364849
  56.7270012  55.8694997 123.0939988  57.4710012  56.4554997 122.9539988
  56.0330012  56.4374997 123.4269988  56.7349899  56.0265798 123.1198778
  40.8020012  42.2454997 135.6959988  39.9090012  42.5844997 135.6279988
  40.7030012  41.3904997 136.1139988  40.6664164  42.1762588 135.7432235
  53.0900012  50.0624997 125.1199988  52.8120012  49.3344997 125.6759988
  54.0170012  50.1814997 125.3249988  53.1773124  49.9788802 125.2238845
  40.4530012  54.0504997 134.1309988  40.6700012  53.1184997 134.0999988
  40.6990012  54.3244997 135.0139988  40.5159549  53.9600636 134.2461763
  46.3150012  52.5014997 121.3399988  46.5540012  51.7534997 120.7929988
  46.0460012  52.1134997 122.1729988  46.3113675  52.3466638 121.3776865
  45.2520012  52.0714997 123.7959988  45.3980012  51.5514997 124.5859988
  45.2490012  52.9784997 124.1029988  45.2715792  52.1228842 123.9456117
  41.7050012  49.3244997 124.3069988  41.0190012  49.6764997 124.8739988
  42.2270012  50.0874997 124.0599988  41.6816852  49.4758578 124.3512118
  49.5360012  41.9864997 134.5859988  50.2350012  42.0604997 135.2359988
  49.1550012  41.1224997 134.7399988  49.5801767  41.8797624 134.6958322
  50.3210012  41.6384997 125.6829988  50.5410012  42.1104997 124.8799988
  50.8790012  42.0334997 126.3529988  50.4264968  41.7564285 125.6637331
  47.9890012  53.7694997 124.5459988  47.1730012  54.2664997 124.5979988
  48.5190012  54.2444997 123.9059988  47.9489161  53.9017722 124.4665956
  47.5210012  43.3664997 126.5179988  48.3330012  43.8714997 126.5639988
  47.2760012  43.2214997 127.4319988  47.5990520  43.4160375 126.6478517
  48.0560012  44.3524997 135.7019988  48.1750012  44.9264997 136.4599988
  48.7120012  43.6644997 135.8169988  48.1609025  44.3379858 135.8211321
  48.4040012  40.4474997 127.4559988  48.0580012  41.0654997 128.0999988
  49.0630012  40.9484997 126.9739988  48.4456968  40.5996278 127.4789383
  45.3280012  54.8134997 124.5269988  45.4880012  55.6124997 124.0269988
  45.1300012  55.1194997 125.4119988  45.3231637  54.9644020 124.5781144
  44.0620012  41.5104997 124.1429988  43.9790012  42.3994997 124.4899988
  44.9520012  41.2454997 124.3749988  44.1709469  41.5961430 124.2217626
  54.2610012  42.2594997 136.5369988  53.3440012  42.5224997 136.4499988
  54.5960012  42.2564997 135.6409988  54.1808613  42.2950761 136.4038837
  52.8630012  46.0104997 130.6329988  52.0650012  45.5954997 130.3049988
  53.3080012  45.3194997 131.1239988  52.8139885  45.8603543 130.6544889
  42.3210012  51.9384997 123.2039988  42.9130012  52.6374997 123.4799988
  42.7800012  51.5054997 122.4839988  42.4641142  51.9757049 123.1444830
  40.6370012  44.6024997 122.3199988  40.5920012  45.5414997 122.4979988
  39.7490012  44.3664997 122.0499988  40.5108574  44.6991892 122.3078912
  53.9490012  55.2664997 132.2559988  53.7940012  55.9444997 131.5979988
  54.8820012  55.3384997 132.4589988  54.0538657  55.3689546 132.1934360
  41.4450012  39.3844997 130.9929988  41.2160012  39.4434997 130.0649988
  41.0020012  38.5924997 131.2989988  41.3538530  39.2855753 130.9074786
  40.3750012  53.3244997 127.1529988  39.5430012  53.7974997 127.1799988
  40.9210012  53.8344997 126.5549988  40.3350352  53.4581332 127.0758463
  39.6630012  55.9374997 138.4829988  40.2040012  55.7204997 139.2429988
  39.1820012  55.1314997 138.2929988  39.6719951  55.7989270 138.5612576
  44.2610012  54.8564997 140.1029988  45.0280012  54.3974997 140.4439988
  44.2390012  54.6304997 139.1739988  44.3631275  54.7630186 140.0240101
  48.3530012  54.3644997 121.4789988  47.7090012  53.7334997 121.7999988
  49.1150012  53.8334997 121.2469988  48.3678077  54.2062920 121.4916011
  50.8380012  53.2364997 138.8329988  50.4870012  52.3804997 139.0759988
  51.5640012  53.3794997 139.4399988  50.8880769  53.1385636 138.9483619
  52.9570012  54.1814997 121.7119988  53.2400012  53.3874997 122.1649988
  53.6970012  54.4144997 121.1519988  53.0958006  54.1043376 121.6982715
  39.5700012  49.7474997 139.4369988  39.7140012  48.8454997 139.1509988
  38.7980012  50.0334997 138.9499988  39.4852753  49.6626816 139.3319505
  43.9120012  50.0914997 121.5699988  43.9760012  49.2974997 122.1009988
  44.5650012  49.9724997 120.8799988  44.0090241  49.9667148 121.5494317
  46.2260012  49.7174997 138.8699988  45.8970012  49.9884997 138.0129988
  46.3780012  48.7764997 138.7829988  46.2014809  49.6273862 138.7408244
  49.2640012  51.1384997 121.3059988  48.9950012  51.3184997 122.2069988
  49.0580012  50.2124997 121.1739988  49.1993427  51.0380261 121.4115073
  51.9600012  49.6334997 136.2529988  52.7060012  50.2214997 136.1339988
  51.2030012  50.2154997 136.3169988  51.9597820  49.7927143 136.2453590
  40.4030012  46.9474997 138.8569988  40.8110012  46.0904997 138.7359988
  40.1430012  46.9624997 139.7779988  40.4237568  46.8320807 138.9649588
  45.0610012  48.0634997 123.8759988  44.6010012  47.5794997 124.5619988
  45.3160012  47.3954997 123.2399988  45.0324902  47.9068731 123.8839334
  44.3500012  45.9564997 136.2319988  43.7320012  46.6314997 136.5119988
  44.6940012  46.2774997 135.3979988  44.3119132  46.0922411 136.1576262
  46.1320012  46.3064997 122.1379988  45.9520012  46.1524997 121.2109988
  47.0820012  46.4144997 122.1829988  46.2357776  46.3000175 122.0171843
  49.3700012  48.4284997 139.5089988  50.3230012  48.5114997 139.4819988
  49.2090012  47.7164997 140.1289988  49.4786426  48.3436746 139.5890579
  55.5220012  48.6614997 121.5839988  55.2480012  48.2364997 120.7709988
  55.5610012  49.5924997 121.3669988  55.4897699  48.7292484 121.4433610
  44.6890012  43.3114997 137.3139988  44.8390012  42.5824997 136.7119988
  44.6920012  44.0884997 136.7549988  44.7099302  43.3167851 137.1560692
  45.1020012  41.6814997 134.8069988  45.6380012  42.1324997 134.1549988
  44.2500012  41.5734997 134.3839988  45.0602178  41.7286390 134.6605756
  46.6840012  47.1204997 135.0459988  47.4340012  46.9644997 134.4729988
  46.3450012  47.9724997 134.7709988  46.7408921  47.2142968 134.9303561
  51.0990012  44.9354997 140.0749988  51.2920012  44.0044997 139.9629988
  51.9570012  45.3604997 140.0639988  51.2412934  44.8656531 140.0582031
  52.4160012  47.7244997 138.1519988  52.1350012  48.4334997 137.5739988
  53.3590012  47.6514997 138.0009988  52.5049291  47.8116711 138.0524967
  43.1680012  44.5094997 139.2259988  42.4010012  43.9774997 139.0149988
  43.8470012  44.1994997 138.6259988  43.1547877  44.3948300 139.1160716
  45.9080012  39.1374997 135.2379988  45.8090012  40.0844997 135.1329988
  45.1650012  38.7654997 134.7619988  45.7941184  39.2165863 135.1593621
  47.1720012  43.4594997 138.8019988  46.9360012  43.2394997 139.7029988
  46.3880012  43.2524997 138.2919988  47.0338504  43.4014586 138.8563431
  49.8870012  42.5864997 137.8769988  48.9400012  42.6184997 138.0099988
  50.2000012  41.9614997 138.5309988  49.7996707  42.5063998 137.9836060
  51.5210012  41.2204997 139.8829988  51.4250012  40.2684997 139.8769988
  51.2000012  41.4894997 140.7429988  51.4644070  41.1264035 139.9985441
  41.3480012  42.4304997 138.9299988  41.5600012  41.7234997 138.3199988
  41.2370012  41.9924997 139.7739988  41.3619721  42.2747084 138.9606843
  46.1290012  38.4314997 137.9089988  46.8410012  37.7914997 137.8949988
  46.0280012  38.6984997 136.9959988  46.2128066  38.3800079 137.7835677
  46.4830012  40.1144997 139.9629988  46.3510012  39.6384997 139.1429988
  45.8840012  40.8584997 139.9079988  46.3839071  40.1499618 139.8432886
  46.0290012  56.9974997 123.1389988  46.9620012  57.1554997 123.2829988
  45.7650012  57.6724997 122.5149988  46.1209888  57.1104510 123.0742842
  39.5980012  51.6334997 122.6219988  40.5120012  51.7124997 122.8959988
  39.6050012  50.9464997 121.9559988  39.7241131  51.5513961 122.5694393
  38.2470012  57.0264997 127.6999988  37.6000012  56.5644997 127.1669988
  38.6010012  56.3544997 128.2819988  38.2063849  56.8724723 127.7057959
  39.1170012  55.1074997 129.5039988  38.7820012  54.2274997 129.6759988
  39.3390012  55.4524997 130.3689988  39.1011783  55.0337500 129.6444208
  56.6650012  55.9164997 132.4849988  56.6440012  56.1014997 133.4239988
  57.3560012  56.4854997 132.1439988  56.7554618  56.0186606 132.5673864
  56.2290012  55.4844997 135.4069988  55.7410012  54.7484997 135.0349988
  56.7780012  55.0904997 136.0849988  56.2364820  55.3305889 135.4477813
  54.6790012  51.2734997 140.0449988  53.8130012  51.1684997 140.4389988
  55.0560012  52.0324997 140.4909988  54.6113308  51.3616900 140.1592393
  55.9800012  49.5304997 125.5589988  56.8300012  49.9514997 125.6859988
  55.9860012  48.7904997 126.1659988  56.0971372  49.4880803 125.6584344
  56.3750012  47.5834997 127.3819988  55.6480012  47.1044997 127.7799988
  56.9560012  47.7894997 128.1149988  56.3540473  47.5458103 127.5354528
  56.1340012  50.3684997 132.3299988  56.9670012  49.9904997 132.0499988
  56.2460012  51.3114997 132.2109988  56.2632647  50.4442218 132.2755487
  54.6200012  53.2464997 134.6369988  53.9730012  53.5714997 135.2629988
  54.1030012  52.8064997 133.9629988  54.4614029  53.2315004 134.6315827
  56.6430012  47.4844997 123.7739988  56.1210012  47.8414997 123.0549988
  56.6100012  48.1594997 124.4519988  56.5671634  47.6245413 123.7673145
  54.9920012  44.7244997 122.3239988  55.0880012  45.3914997 121.6439988
  54.8520012  43.9084997 121.8429988  54.9862272  44.7055655 122.1658347
  54.1610012  46.1044997 127.9449988  54.0110012  45.1594997 127.9249988
  53.8080012  46.3854997 128.7889988  54.0927448  46.0131481 128.0563705
  39.1970012  48.1824997 131.9559988  39.3810012  48.1004997 131.0199988
  40.0460012  48.0584997 132.3789988  39.3370151  48.1545073 131.8851451
  55.0180012  48.0744997 137.5839988  55.6010012  47.3404997 137.7759988
  55.5820012  48.8464997 137.6309988  55.1739769  48.0784227 137.6166159
  56.5140012  45.9774997 138.2689988  55.6510012  45.5984997 138.1029988
  57.1190012  45.2384997 138.1939988  56.4776119  45.8258268 138.2361528
  54.2390012  42.1324997 121.4419988  54.8500012  41.7614997 122.0789988
  53.4030012  41.7114997 121.6379988  54.2095032  42.0247554 121.5557035
  53.8720012  43.6874997 126.4079988  54.1520012  42.7804997 126.5319988
  54.6310012  44.1214997 126.0189988  54.0129277  43.6220942 126.3723682
  54.4840012  44.2684997 131.8439988  55.4170012  44.4804997 131.8089988
  54.2490012  44.3704997 132.7659988  54.5799244  44.3113100 131.9638892
  54.5130012  45.0054997 134.6199988  53.6700012  45.2734997 134.9859988
  54.9550012  45.8274997 134.4089988  54.4574158  45.1533291 134.6415491
  38.7940012  43.4534997 138.0969988  39.7140012  43.3314997 138.3329988
  38.3450012  42.7034997 138.4859988  38.8591580  43.3353727 138.1819006
  56.7960012  38.9854997 139.9729988  57.1460012  38.3314997 139.3679988
  56.9430012  39.8224997 139.5329988  56.8637887  39.0091548 139.8306858
  54.4850012  40.9504997 126.4559988  54.6680012  40.5014997 127.2819988
  53.8860012  40.3654997 125.9929988  54.4290202  40.8099975 126.5063275
  40.0150012  41.7654997 130.9879988  40.4610012  40.9734997 131.2899988
  40.4820012  42.4814997 131.4179988  40.1390831  41.7540685 131.0874006
  38.3190012  44.7644997 132.0569988  38.8110012  44.5434997 131.2659988
  38.6820012  45.6054997 132.3379988  38.4353126  44.8478357 131.9867531
  56.3160012  41.0944997 138.3219988  55.3980012  41.3654997 138.2869988
  56.4390012  40.5594997 137.5379988  56.2069729  41.0592508 138.2111923
  56.3520012  41.0174997 122.9839988  56.7640012  40.2964997 122.5089988
  57.0340012  41.6874997 123.0429988  56.5005885  41.0092368 122.9268915
  38.6330012  41.0224997 126.1109988  37.7080012  41.2314997 125.9819988
  39.0870012  41.5064997 125.4209988  38.5677292  41.1165343 126.0000720
  53.4040012  56.0064997 128.0569988  54.0560012  55.6594997 127.4489988
  53.9140012  56.4954997 128.7029988  53.5622637  56.0250597 128.0610236
  38.5970012  39.7604997 134.4549988  37.9320012  39.5144997 135.0989988
  38.1540012  40.3824997 133.8779988  38.4461318  39.8109410 134.4650898
  40.7890012  52.9354997 138.5999988  39.9680012  53.1104997 138.1389988
  40.5360012  52.8624997 139.5199988  40.6425585  52.9495544 138.6613561
  43.7430012  53.9104997 134.8579988  43.3180012  54.7194997 134.5759988
  44.6470012  53.9954997 134.5559988  43.8069975  54.0329300 134.7784816
  48.0540012  55.3094997 137.8179988  48.2390012  54.9754997 138.6959988
  48.9000012  55.6184997 137.4959988  48.1937539  55.3056047 137.8945605
  50.3990012  56.5954997 137.0619988  51.0760012  55.9624997 136.8219988
  50.7210012  56.9964997 137.8689988  50.5351637  56.5631154 137.1382793
  55.3160012  39.1844997 136.1409988  54.5040012  39.5094997 135.7539988
  55.5490012  38.4244997 135.6079988  55.2362203  39.1262758 136.0158880
  41.1450012  57.1664997 134.9059988  40.4240012  57.6064997 134.4549988
  40.7790012  56.9154997 135.7539988  40.9969651  57.1927242 134.9589640
  43.6120012  56.7664997 133.9359988  42.7470012  56.8384997 134.3399988
  43.5570012  57.3134997 133.1519988  43.4862085  56.8502685 133.8853362
  48.3220012  56.6544997 133.1109988  47.8660012  57.1834997 132.4569988
  48.4850012  57.2574997 133.8359988  48.2816068  56.8084607 133.1194838
  50.6500012  55.5324997 134.0559988  49.7450012  55.6974997 133.7899988
  51.0790012  56.3854997 133.9909988  50.5841324  55.6704339 134.0107976
  53.2540012  57.1024997 134.3509988  53.0720012  58.0184997 134.1409988
  53.4310012  56.6924997 133.5049988  53.2530210  57.1724822 134.2077885
  40.5590012  55.7894997 131.8159988  40.5410012  55.3644997 132.6729988
  41.3640012  55.4714997 131.4069988  40.6653529  55.6883013 131.8780946
  42.7010012  54.4994997 130.4709988  42.4820012  53.5834997 130.6409988
  43.5250012  54.6394997 130.9369988  42.7824420  54.3930520 130.5572774
  45.2380012  54.9694997 131.3199988  45.4510012  54.0814997 131.0329988
  45.3020012  54.9354997 132.2739988  45.2758232  54.8433102 131.4097397
  48.7460012  40.6334997 130.4639988  48.0720012  40.0044997 130.7199988
  49.3100012  40.1494997 129.8609988  48.7299230  40.4818744 130.4175340
  53.8890012  38.7414997 130.5769988  54.4930012  39.2884997 130.0749988
  53.0190012  39.0604997 130.3359988  53.8541208  38.8595137 130.4756886
  55.6160012  39.8794997 128.9099988  56.2280012  39.3654997 128.3829988
  55.9980012  40.7574997 128.9329988  55.7513371  39.9277866 128.8410041
  41.0730012  39.2674997 128.2859988  40.2960012  39.0334997 127.7789988
  41.6030012  38.4704997 128.2949988  41.0382330  39.1276988 128.2177742
  39.9090012  39.0654997 124.0899988  40.3480012  39.6764997 123.4979988
  39.2760012  39.6034997 124.5639988  39.8834514  39.2219257 124.0730930
  45.6520012  39.1944997 128.0999988  46.5270012  39.5824997 128.0699988
  45.5160012  38.9794997 129.0219988  45.7533695  39.2185184 128.2206440
  51.2090012  39.2244997 129.7489988  51.2850012  39.3194997 128.7989988
  50.9340012  38.3164997 129.8779988  51.1822321  39.1147867 129.6365079
  52.5620012  39.2504997 125.4409988  51.8600012  39.8654997 125.2309988
  52.1180012  38.4124997 125.5719988  52.4056450  39.2215639 125.4299000
  39.8100012  55.0134997 124.9869988  39.1250012  54.9754997 124.3199988
  39.8140012  55.9264997 125.2759988  39.7166998  55.1316733 124.9346771
  41.7700012  40.9814997 122.5319988  42.2620012  40.3514997 122.0049988
  42.3940012  41.2774997 123.1949988  41.9215688  40.9353804 122.5495482
  46.7960012  41.2744997 124.9889988  46.9740012  40.6284997 125.6719988
  46.7430012  42.1084997 125.4559988  46.8131999  41.2988009 125.1455917
  48.6750012  56.2234997 123.3849988  49.5410012  56.5894997 123.2069988
  48.4280012  55.7834997 122.5709988  48.7602392  56.2141756 123.2506289
  55.3840012  55.7864997 126.0639988  55.1890012  55.0384997 125.4989988
  55.3450012  56.5444997 125.4809988  55.3520380  55.7866099 125.9078384
  41.0310012  39.7814997 137.8039988  40.6650012  39.0164997 138.2459988
  41.9440012  39.8104997 138.0899988  41.1042736  39.6805640 137.9032502
  43.0040012  39.1324997 139.3399988  43.9020012  38.8584997 139.1549988
  42.6170012  38.3894997 139.8039988  43.0746612  38.9945914 139.3773643
  41.6280012  55.9334997 122.0129988  41.3610012  56.2204997 122.8859988
  42.4000012  55.3874997 122.1649988  41.6957488  55.8990294 122.1531050
  51.4250012  38.4644997 139.5219988  51.5020012  38.0384997 140.3759988
  52.3190012  38.4784997 139.1789988  51.5563428  38.4080879 139.5925310
  54.6010012  54.5374997 138.2139988  53.8190012  54.3514997 137.6939988
  54.5290012  55.4664997 138.4319988  54.4842274  54.6376643 138.1723018
  69.0070012  48.4234997 128.2449988  69.0960012  49.3674997 128.1129988
  68.3690012  48.1484997 127.5869988  68.9329081  48.5154830 128.1379614
  67.9400012  47.6784997 131.6639988  67.9020012  47.0324997 132.3689988
  67.6180012  47.2124997 130.8929988  67.8912333  47.5269408 131.6562978
  60.3090012  47.2934997 133.2569988  60.3500012  46.6674997 133.9799988
  61.0120012  47.9174997 133.4389988  60.4096363  47.2921196 133.3806044
  71.6460012  50.6174997 129.9649988  71.2060012  49.8974997 130.4159988
  71.6330012  51.3384997 130.5949988  71.5840226  50.6163731 130.1118494
  61.2320012  51.7434997 131.7919988  60.8630012  50.9414997 131.4219988
  62.1730012  51.5744997 131.8379988  61.3087289  51.6110153 131.7476316
  57.8420012  45.4034997 127.1849988  57.3950012  46.2494997 127.1659988
  57.2810012  44.8234997 126.6689988  57.7049900  45.4409916 127.1126801
  58.5530012  47.5654997 129.3099988  58.7660012  46.7954997 129.8379988
  59.2910012  47.6544997 128.7069988  58.6819044  47.4721968 129.3007123
  68.7580012  55.7224997 130.1769988  69.3780012  55.0454997 129.9039988
  68.5500012  55.5044997 131.0859988  68.8146726  55.6004800 130.2624812
  66.3300012  50.1114997 132.0699988  66.6340012  49.4254997 131.4749988
  67.0510012  50.2294997 132.6879988  66.4690671  50.0336304 132.0721816
  74.9930012  41.7124997 132.9309988  75.0420012  42.3224997 133.6659988
  75.4180012  42.1734997 132.2079988  75.0571746  41.8583796 132.9339175
  69.4710012  44.5054997 132.3969988  69.6130012  43.5594997 132.4179988
  69.3640012  44.7124997 131.4689988  69.4759919  44.4038246 132.2743408
  62.6250012  42.6064997 129.6699988  62.6690012  43.4664997 129.2509988
  62.1680012  42.0544997 129.0359988  62.5692240  42.6494422 129.5269864
  70.3480012  42.7374997 128.0709988  70.9940012  42.4084997 128.6949988
  70.8580012  43.2554997 127.4479988  70.5054299  42.7624450 128.0722731
  59.2460012  45.0034997 130.4319988  59.8990012  44.4534997 130.8639988
  59.2700012  44.7294997 129.5149988  59.3386683  44.8911466 130.3672123
  64.4020012  46.5534997 129.6469988  65.0180012  46.0274997 130.1569988
  63.8160012  45.9134997 129.2439988  64.4070810  46.3949208 129.6623173
  75.3840012  43.1904997 135.1659988  74.6960012  43.8484997 135.0709988
  75.4000012  42.9934997 136.1029988  75.2919540  43.2539819 135.2795990
  61.4360012  41.5244997 133.7439988  61.2170012  42.0544997 132.9779988
  60.7680012  41.7514997 134.3909988  61.3157600  41.6276906 133.7266379
  68.8050012  51.0244997 127.2879988  68.5090012  50.7024997 126.4369988
  68.4800012  51.9244997 127.3289988  68.7206371  51.1020215 127.1771801
  64.0050012  49.2004997 134.0309988  63.2650012  49.7984997 134.1349988
  64.7190012  49.7544997 133.7159988  64.0002237  49.3572831 134.0026465
  72.1120012  42.0284997 130.0509988  71.8960012  41.2624997 130.5839988
  72.7670012  42.5004997 130.5639988  72.1710632  41.9875889 130.1932861
  61.0290012  43.4164997 131.6959988  61.6430012  44.0494997 132.0689988
  61.5410012  42.9444997 131.0399988  61.1821981  43.4392267 131.6582908
  62.4120012  51.1644997 134.8179988  62.4070012  52.0444997 134.4399988
  61.5590012  51.0814997 135.2429988  62.2959464  51.2736117 134.8237907
  58.5330012  50.8354997 125.5999988  58.2610012  51.0644997 124.7119988
  58.5790012  51.6734997 126.0609988  58.5019482  50.9801318 125.5406273
  72.1580012  52.4574997 132.3129988  71.2170012  52.5154997 132.4749988
  72.4350012  53.3634997 132.1759988  72.0664679  52.5879443 132.3166815
  72.4590012  40.7434997 133.7309988  71.7230012  41.3544997 133.6929988
  73.1420012  41.1584997 133.2039988  72.4506541  40.8831374 133.6545832
  65.4620012  38.8304997 131.1959988  65.3450012  37.8814997 131.1419988
  64.6070012  39.1624997 131.4699988  65.3304212  38.7455571 131.2256497
  70.4100012  54.2384997 128.9379988  70.8360012  53.5314997 128.4529988
  70.7270012  55.0394997 128.5219988  70.5111683  54.2501017 128.8153680
  71.5700012  52.1394997 127.4469988  71.3120012  51.4494997 126.8359988
  71.6410012  51.6964997 128.2929988  71.5442856  51.9852124 127.4776885
  73.2560012  50.7054997 135.9239988  73.3960012  50.1144997 135.1849988
  73.4230012  51.5784997 135.5679988  73.2977411  50.7425428 135.7746894
  67.7290012  47.6674997 125.6969988  67.0170012  48.2024997 125.3449988
  68.4200012  47.7234997 125.0369988  67.7250132  47.7482543 125.5596289
  67.7820012  46.1254997 122.7359988  68.4830012  46.1474997 123.3869988
  68.0850012  45.4974997 122.0789988  67.9188133  46.0437070 122.7363369
  75.0980012  47.0454997 133.9899988  74.4450012  47.7404997 134.0799988
  75.5630012  47.2554997 133.1809988  75.0715274  47.1690643 133.8928462
  71.1340012  47.8774997 126.6489988  70.4020012  48.1054997 127.2219988
  71.5820012  47.1634997 127.1029988  71.0942725  47.8122145 126.7888816
  71.0320012  46.0514997 135.7159988  71.1120012  46.8144997 136.2879988
  70.4300012  46.3304997 135.0259988  70.9615756  46.1937134 135.7010589
  62.7800012  48.5074997 128.5309988  62.4490012  48.1374997 127.7129988
  63.3680012  47.8374997 128.8779988  62.8141873  48.3661156 128.4658102
  64.1460012  51.9354997 131.2119988  64.0520012  51.3574997 130.4559988
  64.8760012  51.5644997 131.7089988  64.2317387  51.8061663 131.1755342
  63.1460012  47.2764997 132.1649988  63.7120012  47.3974997 131.4019988
  63.4650012  47.9134997 132.8029988  63.2665474  47.3792219 132.1469862
  69.4550012  52.7794997 132.8989988  69.2150012  53.4414997 133.5469988
  69.2570012  51.9454997 133.3239988  69.3953808  52.7573134 133.0451524
  64.0260012  51.6754997 136.8819988  63.7150012  52.4574997 137.3369988
  63.3760012  51.5224997 136.1959988  63.8955558  51.7619105 136.8515871
  70.0050012  47.0394997 124.3339988  70.5850012  47.1894997 125.0809988
  70.4190012  47.5104997 123.6099988  70.1402997  47.1236578 124.3384058
  60.9460012  47.8734997 136.1099988  61.0170012  48.5244997 136.8089988
  60.0560012  47.9764997 135.7749988  60.8353005  47.9765427 136.1603495
  67.7320012  53.7764997 127.7689988  68.2060012  54.0714997 128.5459988
  67.1690012  54.5144997 127.5359988  67.7208184  53.9167247 127.8439628
  62.2660012  53.7474997 137.6449988  62.2730012  53.6114997 136.6979988
  61.3500012  53.6294997 137.8969988  62.1431714  53.7129430 137.5494666
  73.7040012  38.7894997 124.1469988  72.8040012  38.9284997 124.4419988
  73.9560012  39.6204997 123.7449988  73.6148702  38.9209074 124.1330205
  61.7700012  47.5774997 126.1199988  61.4780012  48.3454997 125.6299988
  61.0960012  46.9174997 125.9579988  61.6388111  47.5935587 126.0308978
  74.8930012  53.1554997 122.5229988  74.9670012  54.0944997 122.6939988
  75.7990012  52.8504997 122.4669988  75.0255100  53.2426722 122.5388119
  57.8630012  49.9404997 134.9349988  57.3620012  49.9124997 134.1199988
  57.8680012  49.0344997 135.2449988  57.7950944  49.8142396 134.8653226
  57.6130012  52.7204997 131.8189988  58.5590012  52.5764997 131.7999988
  57.5010012  53.5044997 132.3559988  57.7272727  52.8068046 131.8890072
  75.8110012  53.3864997 137.5019988  75.7620012  52.4314997 137.4649988
  74.9840012  53.6544997 137.9029988  75.6924940  53.2918998 137.5511375
  66.7900012  52.9604997 136.3779988  66.8770012  53.7864997 136.8529988
  65.9260012  52.6304997 136.6269988  66.6851964  53.0289878 136.4766549
  67.2040012  56.7324997 126.1839988  67.1290012  56.6114997 125.2369988
  67.2370012  57.6824997 126.3019988  67.1982068  56.8442646 126.0704967
  60.8570012  55.5214997 127.9649988  61.0100012  55.1734997 128.8429988
  60.0070012  55.1654997 127.7099988  60.7629166  55.4256216 128.0508079
  70.3060012  55.8864997 123.1859988  70.6810012  55.1424997 122.7149988
  70.3100012  55.6164997 124.1049988  70.3579125  55.7480986 123.2456483
  69.9750012  55.8124997 125.9349988  69.0390012  55.9124997 126.1139988
  70.2550012  55.1034997 126.5139988  69.8849553  55.7303406 126.0377087
  72.9630012  44.8794997 137.9819988  72.5560012  45.3604997 137.2609988
  73.0040012  43.9744997 137.6739988  72.9128437  44.8229374 137.8416683
  60.1120012  51.2634997 135.9789988  60.3280012  50.9024997 136.8379988
  59.2570012  50.8894997 135.7689988  60.0259292  51.1634111 136.0683386
  62.7310012  39.7334997 131.9739988  61.8690012  39.6464997 131.5659988
  62.7080012  40.5894997 132.4019988  62.6100409  39.8372883 131.9760589
  67.3940012  39.4554997 135.3489988  67.8140012  39.0404997 136.1019988
  66.4610012  39.2774997 135.4659988  67.3253644  39.3745900 135.4679539
  70.7200012  43.2114997 136.2019988  70.2060012  43.0854997 136.9999988
  70.5650012  44.1234997 135.9579988  70.6286852  43.3176132 136.2782158
  71.4830012  48.0724997 121.9639988  71.5250012  47.8494997 121.0339988
  72.3320012  48.4714997 122.1529988  71.6035280  48.0959438 121.8623554
  67.0550012  41.9484997 122.6339988  66.8020012  41.9674997 123.5569988
  66.7990012  41.0764997 122.3319988  66.9857481  41.8332558 122.7196175
  62.8220012  44.6994997 133.0689988  62.1800012  44.6584997 133.7779988
  62.8590012  45.6254997 132.8309988  62.7390664  44.8191430 133.1339219
  62.8190012  44.9204997 127.9809988  61.9260012  44.5794997 127.9219988
  63.2690012  44.5434997 127.2249988  62.7578130  44.8229631 127.8707702
  68.3540012  45.3364997 126.7979988  67.9450012  46.1514997 126.5069988
  69.0750012  45.1964997 126.1839988  68.3954537  45.4292018 126.6751342
  67.4560012  45.5114997 138.2859988  66.8940012  44.8074997 138.6069988
  68.2830012  45.3914997 138.7539988  67.4907095  45.3987883 138.3932330
  69.3590012  44.7824997 129.6119988  69.1640012  45.3874997 128.8969988
  69.5400012  43.9484997 129.1779988  69.3567614  44.7526300 129.4554405
  60.5720012  45.0194997 134.9359988  60.5340012  45.4194997 135.8049988
  60.0810012  44.2024997 135.0269988  60.5004684  44.9638069 135.0671059
  63.9380012  42.3934997 121.7349988  63.5070012  41.9484997 122.4649988
  63.2200012  42.7654997 121.2229988  63.7819438  42.3828940 121.7656799
  57.1800012  42.1354997 128.7869988  57.8110012  42.1064997 129.5059988
  57.6290012  41.7104997 128.0559988  57.3270918  42.0740836 128.7866441
  58.4540012  42.8814997 124.2109988  58.9280012  43.4724997 123.6259988
  57.7370012  43.4124997 124.5579988  58.4219341  43.0340867 124.1778836
  68.6230012  46.4204997 134.2829988  68.9460012  45.7894997 133.6399988
  68.1830012  45.8854997 134.9439988  68.6077484  46.2618387 134.2843198
  65.4000012  42.3474997 129.0669988  64.4890012  42.4044997 129.3559988
  65.9060012  42.2874997 129.8779988  65.3436899  42.3471941 129.2161184
  60.2290012  43.9764997 127.8939988  59.3390012  44.0764997 127.5539988
  60.5250012  43.1344997 127.5479988  60.1472823  43.8763545 127.8007213
  63.8820012  43.9764997 125.5509988  64.8130012  44.1054997 125.7289988
  63.6670012  44.6464997 124.9009988  63.9804247  44.0846565 125.4875747
  69.8050012  41.5824997 132.3319988  69.1290012  41.7134997 132.9959988
  69.3200012  41.4274997 131.5209988  69.6467146  41.5795157 132.3134469
  62.5560012  45.1714997 123.1169988  62.0130012  44.7914997 122.4259988
  63.3890012  45.3654997 122.6889988  62.5943631  45.1457125 122.9644501
  73.0930012  57.2544997 138.6079988  73.2930012  57.6784997 137.7739988
  73.7480012  57.5974997 139.2149988  73.2090072  57.3589857 138.5758592
  60.6910012  49.7284997 138.2159988  61.4230012  49.9824997 138.7779988
  59.9110012  49.9324997 138.7319988  60.6857073  49.7908160 138.3626151
  66.7200012  45.1354997 130.9539988  67.2850012  44.5884997 130.4069988
  66.5730012  44.6134997 131.7429988  66.7773380  44.9902259 130.9858695
  61.7220012  41.2714997 127.3729988  61.4050012  40.3694997 127.3369988
  62.5040012  41.2734997 126.8199988  61.7842408  41.1482474 127.2933569
  65.3470012  43.5234997 133.3679988  64.5110012  43.9774997 133.4789988
  65.8710012  43.7994997 134.1199988  65.3035416  43.6228660 133.4848119
  65.8910012  49.7364997 125.0529988  65.1460012  49.2294997 124.7309988
  65.7570012  49.7854997 125.9999988  65.7708776  49.6736940 125.1368647
  73.0410012  48.8694997 133.8399988  73.6830012  49.3264997 133.2959988
  72.2110012  48.9824997 133.3769988  73.0165963  48.9472704 133.7030177
  69.7890012  42.5504997 123.2519988  68.8500012  42.6624997 123.1009988
  70.0860012  43.4074997 123.5589988  69.7007583  42.6815981 123.2728337
  67.4100012  49.9204997 136.2899988  67.0650012  49.5394997 137.0969988
  67.2100012  50.8544997 136.3609988  67.3357527  49.9945135 136.4100689
  70.5070012  44.4174997 124.9129988  71.3990012  44.2804997 125.2319988
  70.5640012  45.2084997 124.3759988  70.6366504  44.5056052 124.8840818
  61.0160012  49.0314997 130.8229988  61.7610012  49.0294997 130.2219988
  61.0940012  48.2084997 131.3039988  61.1284995  48.9198887 130.8058282
  68.0170012  51.1954997 124.0789988  67.7210012  52.0214997 124.4599988
  67.3140012  50.5754997 124.2749988  67.8814914  51.2248199 124.1576443
  58.0240012  47.4924997 136.1379988  58.2470012  47.0744997 136.9699988
  57.4220012  46.8794997 135.7149988  57.9731759  47.3524668 136.1947022
  65.0400012  47.0094997 138.3509988  64.7440012  46.8434997 137.4559988
  65.9720012  46.7894997 138.3399988  65.1254166  46.9570640 138.2270536
  69.6610012  52.3824997 136.2409988  68.7600012  52.5654997 135.9729988
  69.6950012  52.6414997 137.1609988  69.5423139  52.4425849 136.3288099
  75.3920012  44.6274997 124.6079988  74.8380012  44.2314997 123.9359988
  75.4920012  45.5374997 124.3299988  75.3297059  44.6963586 124.4784401
  75.3550012  50.4274997 137.4449988  74.5040012  50.6654997 137.0779988
  75.9460012  50.4104997 136.6919988  75.3182487  50.4578258 137.2928893
  73.6870012  53.4134997 125.0729988  73.3140012  52.5874997 125.3819988
  73.9650012  53.2304997 124.1749988  73.6735222  53.2757430 124.9939473
  70.8480012  48.2214997 132.0939988  69.9190012  47.9894997 132.0669988
  71.2990012  47.4444997 131.7639988  70.7819216  48.0847238 132.0456917
  63.3910012  52.5494997 128.2269988  63.9180012  53.3224997 128.0269988
  62.5110012  52.7744997 127.9249988  63.3442031  52.6857545 128.1587912
  59.1460012  47.4114997 122.8139988  59.7620012  48.0384997 123.1939988
  58.2840012  47.7274997 123.0859988  59.1137698  47.5399430 122.9027183
  64.8180012  50.2124997 127.8029988  64.5770012  51.1374997 127.8449988
  64.0770012  49.7534997 128.1999988  64.6849225  50.2770933 127.8623742
  65.3330012  54.3614997 134.1189988  65.6950012  55.2164997 133.8849988
  65.8640012  54.0694997 134.8589988  65.4544473  54.4391060 134.1870855
  63.5010012  55.2344997 127.3489988  62.5510012  55.3394997 127.3999988
  63.8530012  56.0544997 127.6929988  63.4184195  55.3598800 127.4025502
  68.8770012  50.4604997 133.8189988  68.4510012  50.2334997 134.6459988
  69.4570012  49.7224997 133.6369988  68.8971868  50.3295299 133.9075830
  71.0800012  51.3894997 122.8929988  71.4330012  51.0094997 123.6969988
  70.1310012  51.2964997 122.9799988  71.0000918  51.3248956 123.0148532
  71.5350012  55.0124997 136.2889988  70.9340012  54.4574997 135.7929988
  71.8170012  55.6794997 135.6619988  71.4908804  55.0266625 136.1364849
  75.5830012  55.8694997 123.0939988  76.3270012  56.4554997 122.9539988
  74.8890012  56.4374997 123.4269988  75.5909899  56.0265798 123.1198778
  59.6580012  42.2454997 135.6959988  58.7650012  42.5844997 135.6279988
  59.5590012  41.3904997 136.1139988  59.5224164  42.1762588 135.7432235
  71.9460012  50.0624997 125.1199988  71.6680012  49.3344997 125.6759988
  72.8730012  50.1814997 125.3249988  72.0333124  49.9788802 125.2238845
  59.3090012  54.0504997 134.1309988  59.5260012  53.1184997 134.0999988
  59.5550012  54.3244997 135.0139988  59.3719549  53.9600636 134.2461763
  65.1710012  52.5014997 121.3399988  65.4100012  51.7534997 120.7929988
  64.9020012  52.1134997 122.1729988  65.1673675  52.3466638 121.3776865
  64.1080012  52.0714997 123.7959988  64.2540012  51.5514997 124.5859988
  64.1050012  52.9784997 124.1029988  64.1275792  52.1228842 123.9456117
  60.5610012  49.3244997 124.3069988  59.8750012  49.6764997 124.8739988
  61.0830012  50.0874997 124.0599988  60.5376852  49.4758578 124.3512118
  68.3920012  41.9864997 134.5859988  69.0910012  42.0604997 135.2359988
  68.0110012  41.1224997 134.7399988  68.4361767  41.8797624 134.6958322
  69.1770012  41.6384997 125.6829988  69.3970012  42.1104997 124.8799988
  69.7350012  42.0334997 126.3529988  69.2824968  41.7564285 125.6637331
  66.8450012  53.7694997 124.5459988  66.0290012  54.2664997 124.5979988
  67.3750012  54.2444997 123.9059988  66.8049161  53.9017722 124.4665956
  66.3770012  43.3664997 126.5179988  67.1890012  43.8714997 126.5639988
  66.1320012  43.2214997 127.4319988  66.4550520  43.4160375 126.6478517
  66.9120012  44.3524997 135.7019988  67.0310012  44.9264997 136.4599988
  67.5680012  43.6644997 135.8169988  67.0169025  44.3379858 135.8211321
  67.2600012  40.4474997 127.4559988  66.9140012  41.0654997 128.0999988
  67.9190012  40.9484997 126.9739988  67.3016968  40.5996278 127.4789383
  64.1840012  54.8134997 124.5269988  64.3440012  55.6124997 124.0269988
  63.9860012  55.1194997 125.4119988  64.1791637  54.9644020 124.5781144
  62.9180012  41.5104997 124.1429988  62.8350012  42.3994997 124.4899988
  63.8080012  41.2454997 124.3749988  63.0269469  41.5961430 124.2217626
  73.1170012  42.2594997 136.5369988  72.2000012  42.5224997 136.4499988
  73.4520012  42.2564997 135.6409988  73.0368613  42.2950761 136.4038837
  71.7190012  46.0104997 130.6329988  70.9210012  45.5954997 130.3049988
  72.1640012  45.3194997 131.1239988  71.6699885  45.8603543 130.6544889
  61.1770012  51.9384997 123.2039988  61.7690012  52.6374997 123.4799988
  61.6360012  51.5054997 122.4839988  61.3201142  51.9757049 123.1444830
  59.4930012  44.6024997 122.3199988  59.4480012  45.5414997 122.4979988
  58.6050012  44.3664997 122.0499988  59.3668574  44.6991892 122.3078912
  72.8050012  55.2664997 132.2559988  72.6500012  55.9444997 131.5979988
  73.7380012  55.3384997 132.4589988  72.9098657  55.3689546 132.1934360
  60.3010012  39.3844997 130.9929988  60.0720012  39.4434997 130.0649988
  59.8580012  38.5924997 131.2989988  60.2098530  39.2855753 130.9074786
  59.2310012  53.3244997 127.1529988  58.3990012  53.7974997 127.1799988
  59.7770012  53.8344997 126.5549988  59.1910352  53.4581332 127.0758463
  58.5190012  55.9374997 138.4829988  59.0600012  55.7204997 139.2429988
  58.0380012  55.1314997 138.2929988  58.5279951  55.7989270 138.5612576
  63.1170012  54.8564997 140.1029988  63.8840012  54.3974997 140.4439988
  63.0950012  54.6304997 139.1739988  63.2191275  54.7630186 140.0240101
  67.2090012  54.3644997 121.4789988  66.5650012  53.7334997 121.7999988
  67.9710012  53.8334997 121.2469988  67.2238077  54.2062920 121.4916011
  69.6940012  53.2364997 138.8329988  69.3430012  52.3804997 139.0759988
  70.4200012  53.3794997 139.4399988  69.7440769  53.1385636 138.9483619
  71.8130012  54.1814997 121.7119988  72.0960012  53.3874997 122.1649988
  72.5530012  54.4144997 121.1519988  71.9518006  54.1043376 121.6982715
  58.4260012  49.7474997 139.4369988  58.5700012  48.8454997 139.1509988
  57.6540012  50.0334997 138.9499988  58.3412753  49.6626816 139.3319505
  62.7680012  50.0914997 121.5699988  62.8320012  49.2974997 122.1009988
  63.4210012  49.9724997 120.8799988  62.8650241  49.9667148 121.5494317
  65.0820012  49.7174997 138.8699988  64.7530012  49.9884997 138.0129988
  65.2340012  48.7764997 138.7829988  65.0574809  49.6273862 138.7408244
  68.1200012  51.1384997 121.3059988  67.8510012  51.3184997 122.2069988
  67.9140012  50.2124997 121.1739988  68.0553427  51.0380261 121.4115073
  70.8160012  49.6334997 136.2529988  71.5620012  50.2214997 136.1339988
  70.0590012  50.2154997 136.3169988  70.8157820  49.7927143 136.2453590
  59.2590012  46.9474997 138.8569988  59.6670012  46.0904997 138.7359988
  58.9990012  46.9624997 139.7779988  59.2797568  46.8320807 138.9649588
  63.9170012  48.0634997 123.8759988  63.4570012  47.5794997 124.5619988
  64.1720012  47.3954997 123.2399988  63.8884902  47.9068731 123.8839334
  63.2060012  45.9564997 136.2319988  62.5880012  46.6314997 136.5119988
  63.5500012  46.2774997 135.3979988  63.1679132  46.0922411 136.1576262
  64.9880012  46.3064997 122.1379988  64.8080012  46.1524997 121.2109988
  65.9380012  46.4144997 122.1829988  65.0917776  46.3000175 122.0171843
  68.2260012  48.4284997 139.5089988  69.1790012  48.5114997 139.4819988
  68.0650012  47.7164997 140.1289988  68.3346426  48.3436746 139.5890579
  74.3780012  48.6614997 121.5839988  74.1040012  48.2364997 120.7709988
  74.4170012  49.5924997 121.3669988  74.3457699  48.7292484 121.4433610
  63.5450012  43.3114997 137.3139988  63.6950012  42.5824997 136.7119988
  63.5480012  44.0884997 136.7549988  63.5659302  43.3167851 137.1560692
  63.9580012  41.6814997 134.8069988  64.4940012  42.1324997 134.1549988
  63.1060012  41.5734997 134.3839988  63.9162178  41.7286390 134.6605756
  65.5400012  47.1204997 135.0459988  66.2900012  46.9644997 134.4729988
  65.2010012  47.9724997 134.7709988  65.5968921  47.2142968 134.9303561
  69.9550012  44.9354997 140.0749988  70.1480012  44.0044997 139.9629988
  70.8130012  45.3604997 140.0639988  70.0972934  44.8656531 140.0582031
  71.2720012  47.7244997 138.1519988  70.9910012  48.4334997 137.5739988
  72.2150012  47.6514997 138.0009988  71.3609291  47.8116711 138.0524967
  62.0240012  44.5094997 139.2259988  61.2570012  43.9774997 139.0149988
  62.7030012  44.1994997 138.6259988  62.0107877  44.3948300 139.1160716
  64.7640012  39.1374997 135.2379988  64.6650012  40.0844997 135.1329988
  64.0210012  38.7654997 134.7619988  64.6501184  39.2165863 135.1593621
  66.0280012  43.4594997 138.8019988  65.7920012  43.2394997 139.7029988
  65.2440012  43.2524997 138.2919988  65.8898504  43.4014586 138.8563431
  68.7430012  42.5864997 137.8769988  67.7960012  42.6184997 138.0099988
  69.0560012  41.9614997 138.5309988  68.6556707  42.5063998 137.9836060
  70.3770012  41.2204997 139.8829988  70.2810012  40.2684997 139.8769988
  70.0560012  41.4894997 140.7429988  70.3204070  41.1264035 139.9985441
  60.2040012  42.4304997 138.9299988  60.4160012  41.7234997 138.3199988
  60.0930012  41.9924997 139.7739988  60.2179721  42.2747084 138.9606843
  64.9850012  38.4314997 137.9089988  65.6970012  37.7914997 137.8949988
  64.8840012  38.6984997 136.9959988  65.0688066  38.3800079 137.7835677
  65.3390012  40.1144997 139.9629988  65.2070012  39.6384997 139.1429988
  64.7400012  40.8584997 139.9079988  65.2399071  40.1499618 139.8432886
  64.8850012  56.9974997 123.1389988  65.8180012  57.1554997 123.2829988
  64.6210012  57.6724997 122.5149988  64.9769888  57.1104510 123.0742842
  58.4540012  51.6334997 122.6219988  59.3680012  51.7124997 122.8959988
  58.4610012  50.9464997 121.9559988  58.5801131  51.5513961 122.5694393
  57.1030012  57.0264997 127.6999988  56.4560012  56.5644997 127.1669988
  57.4570012  56.3544997 128.2819988  57.0623849  56.8724723 127.7057959
  57.9730012  55.1074997 129.5039988  57.6380012  54.2274997 129.6759988
  58.1950012  55.4524997 130.3689988  57.9571783  55.0337500 129.6444208
  75.5210012  55.9164997 132.4849988  75.5000012  56.1014997 133.4239988
  76.2120012  56.4854997 132.1439988  75.6114618  56.0186606 132.5673864
  75.0850012  55.4844997 135.4069988  74.5970012  54.7484997 135.0349988
  75.6340012  55.0904997 136.0849988  75.0924820  55.3305889 135.4477813
  73.5350012  51.2734997 140.0449988  72.6690012  51.1684997 140.4389988
  73.9120012  52.0324997 140.4909988  73.4673308  51.3616900 140.1592393
  74.8360012  49.5304997 125.5589988  75.6860012  49.9514997 125.6859988
  74.8420012  48.7904997 126.1659988  74.9531372  49.4880803 125.6584344
  75.2310012  47.5834997 127.3819988  74.5040012  47.1044997 127.7799988
  75.8120012  47.7894997 128.1149988  75.2100473  47.5458103 127.5354528
  74.9900012  50.3684997 132.3299988  75.8230012  49.9904997 132.0499988
  75.1020012  51.3114997 132.2109988  75.1192647  50.4442218 132.2755487
  73.4760012  53.2464997 134.6369988  72.8290012  53.5714997 135.2629988
  72.9590012  52.8064997 133.9629988  73.3174029  53.2315004 134.6315827
  75.4990012  47.4844997 123.7739988  74.9770012  47.8414997 123.0549988
  75.4660012  48.1594997 124.4519988  75.4231634  47.6245413 123.7673145
  73.8480012  44.7244997 122.3239988  73.9440012  45.3914997 121.6439988
  73.7080012  43.9084997 121.8429988  73.8422272  44.7055655 122.1658347
  73.0170012  46.1044997 127.9449988  72.8670012  45.1594997 127.9249988
  72.6640012  46.3854997 128.7889988  72.9487448  46.0131481 128.0563705
  58.0530012  48.1824997 131.9559988  58.2370012  48.1004997 131.0199988
  58.9020012  48.0584997 132.3789988  58.1930151  48.1545073 131.8851451
  73.8740012  48.0744997 137.5839988  74.4570012  47.3404997 137.7759988
  74.4380012  48.8464997 137.6309988  74.0299769  48.0784227 137.6166159
  75.3700012  45.9774997 138.2689988  74.5070012  45.5984997 138.1029988
  75.9750012  45.2384997 138.1939988  75.3336119  45.8258268 138.2361528
  73.0950012  42.1324997 121.4419988  73.7060012  41.7614997 122.0789988
  72.2590012  41.7114997 121.6379988  73.0655032  42.0247554 121.5557035
  72.7280012  43.6874997 126.4079988  73.0080012  42.7804997 126.5319988
  73.4870012  44.1214997 126.0189988  72.8689277  43.6220942 126.3723682
  73.3400012  44.2684997 131.8439988  74.2730012  44.4804997 131.8089988
  73.1050012  44.3704997 132.7659988  73.4359244  44.3113100 131.9638892
  73.3690012  45.0054997 134.6199988  72.5260012  45.2734997 134.9859988
  73.8110012  45.8274997 134.4089988  73.3134158  45.1533291 134.6415491
  57.6500012  43.4534997 138.0969988  58.5700012  43.3314997 138.3329988
  57.2010012  42.7034997 138.4859988  57.7151580  43.3353727 138.1819006
  75.6520012  38.9854997 139.9729988  76.0020012  38.3314997 139.3679988
  75.7990012  39.8224997 139.5329988  75.7197887  39.0091548 139.8306858
  73.3410012  40.9504997 126.4559988  73.5240012  40.5014997 127.2819988
  72.7420012  40.3654997 125.9929988  73.2850202  40.8099975 126.5063275
  58.8710012  41.7654997 130.9879988  59.3170012  40.9734997 131.2899988
  59.3380012  42.4814997 131.4179988  58.9950831  41.7540685 131.0874006
  57.1750012  44.7644997 132.0569988  57.6670012  44.5434997 131.2659988
  57.5380012  45.6054997 132.3379988  57.2913126  44.8478357 131.9867531
  75.1720012  41.0944997 138.3219988  74.2540012  41.3654997 138.2869988
  75.2950012  40.5594997 137.5379988  75.0629729  41.0592508 138.2111923
  75.2080012  41.0174997 122.9839988  75.6200012  40.2964997 122.5089988
  75.8900012  41.6874997 123.0429988  75.3565885  41.0092368 122.9268915
  57.4890012  41.0224997 126.1109988  56.5640012  41.2314997 125.9819988
  57.9430012  41.5064997 125.4209988  57.4237292  41.1165343 126.0000720
  72.2600012  56.0064997 128.0569988  72.9120012  55.6594997 127.4489988
  72.7700012  56.4954997 128.7029988  72.4182637  56.0250597 128.0610236
  57.4530012  39.7604997 134.4549988  56.7880012  39.5144997 135.0989988
  57.0100012  40.3824997 133.8779988  57.3021318  39.8109410 134.4650898
  59.6450012  52.9354997 138.5999988  58.8240012  53.1104997 138.1389988
  59.3920012  52.8624997 139.5199988  59.4985585  52.9495544 138.6613561
  62.5990012  53.9104997 134.8579988  62.1740012  54.7194997 134.5759988
  63.5030012  53.9954997 134.5559988  62.6629975  54.0329300 134.7784816
  66.9100012  55.3094997 137.8179988  67.0950012  54.9754997 138.6959988
  67.7560012  55.6184997 137.4959988  67.0497539  55.3056047 137.8945605
  69.2550012  56.5954997 137.0619988  69.9320012  55.9624997 136.8219988
  69.5770012  56.9964997 137.8689988  69.3911637  56.5631154 137.1382793
  74.1720012  39.1844997 136.1409988  73.3600012  39.5094997 135.7539988
  74.4050012  38.4244997 135.6079988  74.0922203  39.1262758 136.0158880
  60.0010012  57.1664997 134.9059988  59.2800012  57.6064997 134.4549988
  59.6350012  56.9154997 135.7539988  59.8529651  57.1927242 134.9589640
  62.4680012  56.7664997 133.9359988  61.6030012  56.8384997 134.3399988
  62.4130012  57.3134997 133.1519988  62.3422085  56.8502685 133.8853362
  67.1780012  56.6544997 133.1109988  66.7220012  57.1834997 132.4569988
  67.3410012  57.2574997 133.8359988  67.1376068  56.8084607 133.1194838
  69.5060012  55.5324997 134.0559988  68.6010012  55.6974997 133.7899988
  69.9350012  56.3854997 133.9909988  69.4401324  55.6704339 134.0107976
  72.1100012  57.1024997 134.3509988  71.9280012  58.0184997 134.1409988
  72.2870012  56.6924997 133.5049988  72.1090210  57.1724822 134.2077885
  59.4150012  55.7894997 131.8159988  59.3970012  55.3644997 132.6729988
  60.2200012  55.4714997 131.4069988  59.5213529  55.6883013 131.8780946
  61.5570012  54.4994997 130.4709988  61.3380012  53.5834997 130.6409988
  62.3810012  54.6394997 130.9369988  61.6384420  54.3930520 130.5572774
  64.0940012  54.9694997 131.3199988  64.3070012  54.0814997 131.0329988
  64.1580012  54.9354997 132.2739988  64.1318232  54.8433102 131.4097397
  67.6020012  40.6334997 130.4639988  66.9280012  40.0044997 130.7199988
  68.1660012  40.1494997 129.8609988  67.5859230  40.4818744 130.4175340
  72.7450012  38.7414997 130.5769988  73.3490012  39.2884997 130.0749988
  71.8750012  39.0604997 130.3359988  72.7101208  38.8595137 130.4756886
  74.4720012  39.8794997 128.9099988  75.0840012  39.3654997 128.3829988
  74.8540012  40.7574997 128.9329988  74.6073371  39.9277866 128.8410041
  59.9290012  39.2674997 128.2859988  59.1520012  39.0334997 127.7789988
  60.4590012  38.4704997 128.2949988  59.8942330  39.1276988 128.2177742
  58.7650012  39.0654997 124.0899988  59.2040012  39.6764997 123.4979988
  58.1320012  39.6034997 124.5639988  58.7394514  39.2219257 124.0730930
  64.5080012  39.1944997 128.0999988  65.3830012  39.5824997 128.0699988
  64.3720012  38.9794997 129.0219988  64.6093695  39.2185184 128.2206440
  70.0650012  39.2244997 129.7489988  70.1410012  39.3194997 128.7989988
  69.7900012  38.3164997 129.8779988  70.0382321  39.1147867 129.6365079
  71.4180012  39.2504997 125.4409988  70.7160012  39.8654997 125.2309988
  70.9740012  38.4124997 125.5719988  71.2616450  39.2215639 125.4299000
  58.6660012  55.0134997 124.9869988  57.9810012  54.9754997 124.3199988
  58.6700012  55.9264997 125.2759988  58.5726998  55.1316733 124.9346771
  60.6260012  40.9814997 122.5319988  61.1180012  40.3514997 122.0049988
  61.2500012  41.2774997 123.1949988  60.7775688  40.9353804 122.5495482
  65.6520012  41.2744997 124.9889988  65.8300012  40.6284997 125.6719988
  65.5990012  42.1084997 125.4559988  65.6691999  41.2988009 125.1455917
  67.5310012  56.2234997 123.3849988  68.3970012  56.5894997 123.2069988
  67.2840012  55.7834997 122.5709988  67.6162392  56.2141756 123.2506289
  74.2400012  55.7864997 126.0639988  74.0450012  55.0384997 125.4989988
  74.2010012  56.5444997 125.4809988  74.2080380  55.7866099 125.9078384
  59.8870012  39.7814997 137.8039988  59.5210012  39.0164997 138.2459988
  60.8000012  39.8104997 138.0899988  59.9602736  39.6805640 137.9032502
  61.8600012  39.1324997 139.3399988  62.7580012  38.8584997 139.1549988
  61.4730012  38.3894997 139.8039988  61.9306612  38.9945914 139.3773643
  60.4840012  55.9334997 122.0129988  60.2170012  56.2204997 122.8859988
  61.2560012  55.3874997 122.1649988  60.5517488  55.8990294 122.1531050
  70.2810012  38.4644997 139.5219988  70.3580012  38.0384997 140.3759988
  71.1750012  38.4784997 139.1789988  70.4123428  38.4080879 139.5925310
  73.4570012  54.5374997 138.2139988  72.6750012  54.3514997 137.6939988
  73.3850012  55.4664997 138.4319988  73.3402274  54.6376643 138.1723018
  87.8630012  48.4234997 128.2449988  87.9520012  49.3674997 128.1129988
  87.2250012  48.1484997 127.5869988  87.7889081  48.5154830 128.1379614
  86.7960012  47.6784997 131.6639988  86.7580012  47.0324997 132.3689988
  86.4740012  47.2124997 130.8929988  86.7472333  47.5269408 131.6562978
  79.1650012  47.2934997 133.2569988  79.2060012  46.6674997 133.9799988
  79.8680012  47.9174997 133.4389988  79.2656363  47.2921196 133.3806044
  90.5020012  50.6174997 129.9649988  90.0620012  49.8974997 130.4159988
  90.4890012  51.3384997 130.5949988  90.4400226  50.6163731 130.1118494
  80.0880012  51.7434997 131.7919988  79.7190012  50.9414997 131.4219988
  81.0290012  51.5744997 131.8379988  80.1647289  51.6110153 131.7476316
  76.6980012  45.4034997 127.1849988  76.2510012  46.2494997 127.1659988
  76.1370012  44.8234997 126.6689988  76.5609900  45.4409916 127.1126801
  77.4090012  47.5654997 129.3099988  77.6220012  46.7954997 129.8379988
  78.1470012  47.6544997 128.7069988  77.5379044  47.4721968 129.3007123
  87.6140012  55.7224997 130.1769988  88.2340012  55.0454997 129.9039988
  87.4060012  55.5044997 131.0859988  87.6706726  55.6004800 130.2624812
  85.1860012  50.1114997 132.0699988  85.4900012  49.4254997 131.4749988
  85.9070012  50.2294997 132.6879988  85.3250671  50.0336304 132.0721816
  93.8490012  41.7124997 132.9309988  93.8980012  42.3224997 133.6659988
  94.2740012  42.1734997 132.2079988  93.9131746  41.8583796 132.9339175
  88.3270012  44.5054997 132.3969988  88.4690012  43.5594997 132.4179988
  88.2200012  44.7124997 131.4689988  88.3319919  44.4038246 132.2743408
  81.4810012  42.6064997 129.6699988  81.5250012  43.4664997 129.2509988
  81.0240012  42.0544997 129.0359988  81.4252240  42.6494422 129.5269864
  89.2040012  42.7374997 128.0709988  89.8500012  42.4084997 128.6949988
  89.7140012  43.2554997 127.4479988  89.3614299  42.7624450 128.0722731
  78.1020012  45.0034997 130.4319988  78.7550012  44.4534997 130.8639988
  78.1260012  44.7294997 129.5149988  78.1946683  44.8911466 130.3672123
  83.2580012  46.5534997 129.6469988  83.8740012  46.0274997 130.1569988
  82.6720012  45.9134997 129.2439988  83.2630810  46.3949208 129.6623173
  94.2400012  43.1904997 135.1659988  93.5520012  43.8484997 135.0709988
  94.2560012  42.9934997 136.1029988  94.1479540  43.2539819 135.2795990
  80.2920012  41.5244997 133.7439988  80.0730012  42.0544997 132.9779988
  79.6240012  41.7514997 134.3909988  80.1717600  41.6276906 133.7266379
  87.6610012  51.0244997 127.2879988  87.3650012  50.7024997 126.4369988
  87.3360012  51.9244997 127.3289988  87.5766371  51.1020215 127.1771801
  82.8610012  49.2004997 134.0309988  82.1210012  49.7984997 134.1349988
  83.5750012  49.7544997 133.7159988  82.8562237  49.3572831 134.0026465
  90.9680012  42.0284997 130.0509988  90.7520012  41.2624997 130.5839988
  91.6230012  42.5004997 130.5639988  91.0270632  41.9875889 130.1932861
  79.8850012  43.4164997 131.6959988  80.4990012  44.0494997 132.0689988
  80.3970012  42.9444997 131.0399988  80.0381981  43.4392267 131.6582908
  81.2680012  51.1644997 134.8179988  81.2630012  52.0444997 134.4399988
  80.4150012  51.0814997 135.2429988  81.1519464  51.2736117 134.8237907
  77.3890012  50.8354997 125.5999988  77.1170012  51.0644997 124.7119988
  77.4350012  51.6734997 126.0609988  77.3579482  50.9801318 125.5406273
  91.0140012  52.4574997 132.3129988  90.0730012  52.5154997 132.4749988
  91.2910012  53.3634997 132.1759988  90.9224679  52.5879443 132.3166815
  91.3150012  40.7434997 133.7309988  90.5790012  41.3544997 133.6929988
  91.9980012  41.1584997 133.2039988  91.3066541  40.8831374 133.6545832
  84.3180012  38.8304997 131.1959988  84.2010012  37.8814997 131.1419988
  83.4630012  39.1624997 131.4699988  84.1864212  38.7455571 131.2256497
  89.2660012  54.2384997 128.9379988  89.6920012  53.5314997 128.4529988
  89.5830012  55.0394997 128.5219988  89.3671683  54.2501017 128.8153680
  90.4260012  52.1394997 127.4469988  90.1680012  51.4494997 126.8359988
  90.4970012  51.6964997 128.2929988  90.4002856  51.9852124 127.4776885
  92.1120012  50.7054997 135.9239988  92.2520012  50.1144997 135.1849988
  92.2790012  51.5784997 135.5679988  92.1537411  50.7425428 135.7746894
  86.5850012  47.6674997 125.6969988  85.8730012  48.2024997 125.3449988
  87.2760012  47.7234997 125.0369988  86.5810132  47.7482543 125.5596289
  86.6380012  46.1254997 122.7359988  87.3390012  46.1474997 123.3869988
  86.9410012  45.4974997 122.0789988  86.7748133  46.0437070 122.7363369
  93.9540012  47.0454997 133.9899988  93.3010012  47.7404997 134.0799988
  94.4190012  47.2554997 133.1809988  93.9275274  47.1690643 133.8928462
  89.9900012  47.8774997 126.6489988  89.2580012  48.1054997 127.2219988
  90.4380012  47.1634997 127.1029988  89.9502725  47.8122145 126.7888816
  89.8880012  46.0514997 135.7159988  89.9680012  46.8144997 136.2879988
  89.2860012  46.3304997 135.0259988  89.8175756  46.1937134 135.7010589
  81.6360012  48.5074997 128.5309988  81.3050012  48.1374997 127.7129988
  82.2240012  47.8374997 128.8779988  81.6701873  48.3661156 128.4658102
  83.0020012  51.9354997 131.2119988  82.9080012  51.3574997 130.4559988
  83.7320012  51.5644997 131.7089988  83.0877387  51.8061663 131.1755342
  82.0020012  47.2764997 132.1649988  82.5680012  47.3974997 131.4019988
  82.3210012  47.9134997 132.8029988  82.1225474  47.3792219 132.1469862
  88.3110012  52.7794997 132.8989988  88.0710012  53.4414997 133.5469988
  88.1130012  51.9454997 133.3239988  88.2513808  52.7573134 133.0451524
  82.8820012  51.6754997 136.8819988  82.5710012  52.4574997 137.3369988
  82.2320012  51.5224997 136.1959988  82.7515558  51.7619105 136.8515871
  88.8610012  47.0394997 124.3339988  89.4410012  47.1894997 125.0809988
  89.2750012  47.5104997 123.6099988  88.9962997  47.1236578 124.3384058
  79.8020012  47.8734997 136.1099988  79.8730012  48.5244997 136.8089988
  78.9120012  47.9764997 135.7749988  79.6913005  47.9765427 136.1603495
  86.5880012  53.7764997 127.7689988  87.0620012  54.0714997 128.5459988
  86.0250012  54.5144997 127.5359988  86.5768184  53.9167247 127.8439628
  81.1220012  53.7474997 137.6449988  81.1290012  53.6114997 136.6979988
  80.2060012  53.6294997 137.8969988  80.9991714  53.7129430 137.5494666
  92.5600012  38.7894997 124.1469988  91.6600012  38.9284997 124.4419988
  92.8120012  39.6204997 123.7449988  92.4708702  38.9209074 124.1330205
  80.6260012  47.5774997 126.1199988  80.3340012  48.3454997 125.6299988
  79.9520012  46.9174997 125.9579988  80.4948111  47.5935587 126.0308978
  93.7490012  53.1554997 122.5229988  93.8230012  54.0944997 122.6939988
  94.6550012  52.8504997 122.4669988  93.8815100  53.2426722 122.5388119
  76.7190012  49.9404997 134.9349988  76.2180012  49.9124997 134.1199988
  76.7240012  49.0344997 135.2449988  76.6510944  49.8142396 134.8653226
  76.4690012  52.7204997 131.8189988  77.4150012  52.5764997 131.7999988
  76.3570012  53.5044997 132.3559988  76.5832727  52.8068046 131.8890072
  94.6670012  53.3864997 137.5019988  94.6180012  52.4314997 137.4649988
  93.8400012  53.6544997 137.9029988  94.5484940  53.2918998 137.5511375
  85.6460012  52.9604997 136.3779988  85.7330012  53.7864997 136.8529988
  84.7820012  52.6304997 136.6269988  85.5411964  53.0289878 136.4766549
  86.0600012  56.7324997 126.1839988  85.9850012  56.6114997 125.2369988
  86.0930012  57.6824997 126.3019988  86.0542068  56.8442646 126.0704967
  79.7130012  55.5214997 127.9649988  79.8660012  55.1734997 128.8429988
  78.8630012  55.1654997 127.7099988  79.6189166  55.4256216 128.0508079
  89.1620012  55.8864997 123.1859988  89.5370012  55.1424997 122.7149988
  89.1660012  55.6164997 124.1049988  89.2139125  55.7480986 123.2456483
  88.8310012  55.8124997 125.9349988  87.8950012  55.9124997 126.1139988
  89.1110012  55.1034997 126.5139988  88.7409553  55.7303406 126.0377087
  91.8190012  44.8794997 137.9819988  91.4120012  45.3604997 137.2609988
  91.8600012  43.9744997 137.6739988  91.7688437  44.8229374 137.8416683
  78.9680012  51.2634997 135.9789988  79.1840012  50.9024997 136.8379988
  78.1130012  50.8894997 135.7689988  78.8819292  51.1634111 136.0683386
  81.5870012  39.7334997 131.9739988  80.7250012  39.6464997 131.5659988
  81.5640012  40.5894997 132.4019988  81.4660409  39.8372883 131.9760589
  86.2500012  39.4554997 135.3489988  86.6700012  39.0404997 136.1019988
  85.3170012  39.2774997 135.4659988  86.1813644  39.3745900 135.4679539
  89.5760012  43.2114997 136.2019988  89.0620012  43.0854997 136.9999988
  89.4210012  44.1234997 135.9579988  89.4846852  43.3176132 136.2782158
  90.3390012  48.0724997 121.9639988  90.3810012  47.8494997 121.0339988
  91.1880012  48.4714997 122.1529988  90.4595280  48.0959438 121.8623554
  85.9110012  41.9484997 122.6339988  85.6580012  41.9674997 123.5569988
  85.6550012  41.0764997 122.3319988  85.8417481  41.8332558 122.7196175
  81.6780012  44.6994997 133.0689988  81.0360012  44.6584997 133.7779988
  81.7150012  45.6254997 132.8309988  81.5950664  44.8191430 133.1339219
  81.6750012  44.9204997 127.9809988  80.7820012  44.5794997 127.9219988
  82.1250012  44.5434997 127.2249988  81.6138130  44.8229631 127.8707702
  87.2100012  45.3364997 126.7979988  86.8010012  46.1514997 126.5069988
  87.9310012  45.1964997 126.1839988  87.2514537  45.4292018 126.6751342
  86.3120012  45.5114997 138.2859988  85.7500012  44.8074997 138.6069988
  87.1390012  45.3914997 138.7539988  86.3467095  45.3987883 138.3932330
  88.2150012  44.7824997 129.6119988  88.0200012  45.3874997 128.8969988
  88.3960012  43.9484997 129.1779988  88.2127614  44.7526300 129.4554405
  79.4280012  45.0194997 134.9359988  79.3900012  45.4194997 135.8049988
  78.9370012  44.2024997 135.0269988  79.3564684  44.9638069 135.0671059
  82.7940012  42.3934997 121.7349988  82.3630012  41.9484997 122.4649988
  82.0760012  42.7654997 121.2229988  82.6379438  42.3828940 121.7656799
  76.0360012  42.1354997 128.7869988  76.6670012  42.1064997 129.5059988
  76.4850012  41.7104997 128.0559988  76.1830918  42.0740836 128.7866441
  77.3100012  42.8814997 124.2109988  77.7840012  43.4724997 123.6259988
  76.5930012  43.4124997 124.5579988  77.2779341  43.0340867 124.1778836
  87.4790012  46.4204997 134.2829988  87.8020012  45.7894997 133.6399988
  87.0390012  45.8854997 134.9439988  87.4637484  46.2618387 134.2843198
  84.2560012  42.3474997 129.0669988  83.3450012  42.4044997 129.3559988
  84.7620012  42.2874997 129.8779988  84.1996899  42.3471941 129.2161184
  79.0850012  43.9764997 127.8939988  78.1950012  44.0764997 127.5539988
  79.3810012  43.1344997 127.5479988  79.0032823  43.8763545 127.8007213
  82.7380012  43.9764997 125.5509988  83.6690012  44.1054997 125.7289988
  82.5230012  44.6464997 124.9009988  82.8364247  44.0846565 125.4875747
  88.6610012  41.5824997 132.3319988  87.9850012  41.7134997 132.9959988
  88.1760012  41.4274997 131.5209988  88.5027146  41.5795157 132.3134469
  81.4120012  45.1714997 123.1169988  80.8690012  44.7914997 122.4259988
  82.2450012  45.3654997 122.6889988  81.4503631  45.1457125 122.9644501
  91.9490012  57.2544997 138.6079988  92.1490012  57.6784997 137.7739988
  92.6040012  57.5974997 139.2149988  92.0650072  57.3589857 138.5758592
  79.5470012  49.7284997 138.2159988  80.2790012  49.9824997 138.7779988
  78.7670012  49.9324997 138.7319988  79.5417073  49.7908160 138.3626151
  85.5760012  45.1354997 130.9539988  86.1410012  44.5884997 130.4069988
  85.4290012  44.6134997 131.7429988  85.6333380  44.9902259 130.9858695
  80.5780012  41.2714997 127.3729988  80.2610012  40.3694997 127.3369988
  81.3600012  41.2734997 126.8199988  80.6402408  41.1482474 127.2933569
  84.2030012  43.5234997 133.3679988  83.3670012  43.9774997 133.4789988
  84.7270012  43.7994997 134.1199988  84.1595416  43.6228660 133.4848119
  84.7470012  49.7364997 125.0529988  84.0020012  49.2294997 124.7309988
  84.6130012  49.7854997 125.9999988  84.6268776  49.6736940 125.1368647
  91.8970012  48.8694997 133.8399988  92.5390012  49.3264997 133.2959988
  91.0670012  48.9824997 133.3769988  91.8725963  48.9472704 133.7030177
  88.6450012  42.5504997 123.2519988  87.7060012  42.6624997 123.1009988
  88.9420012  43.4074997 123.5589988  88.5567583  42.6815981 123.2728337
  86.2660012  49.9204997 136.2899988  85.9210012  49.5394997 137.0969988
  86.0660012  50.8544997 136.3609988  86.1917527  49.9945135 136.4100689
  89.3630012  44.4174997 124.9129988  90.2550012  44.2804997 125.2319988
  89.4200012  45.2084997 124.3759988  89.4926504  44.5056052 124.8840818
  79.8720012  49.0314997 130.8229988  80.6170012  49.0294997 130.2219988
  79.9500012  48.2084997 131.3039988  79.9844995  48.9198887 130.8058282
  86.8730012  51.1954997 124.0789988  86.5770012  52.0214997 124.4599988
  86.1700012  50.5754997 124.2749988  86.7374914  51.2248199 124.1576443
  76.8800012  47.4924997 136.1379988  77.1030012  47.0744997 136.9699988
  76.2780012  46.8794997 135.7149988  76.8291759  47.3524668 136.1947022
  83.8960012  47.0094997 138.3509988  83.6000012  46.8434997 137.4559988
  84.8280012  46.7894997 138.3399988  83.9814166  46.9570640 138.2270536
  88.5170012  52.3824997 136.2409988  87.6160012  52.5654997 135.9729988
  88.5510012  52.6414997 137.1609988  88.3983139  52.4425849 136.3288099
  94.2480012  44.6274997 124.6079988  93.6940012  44.2314997 123.9359988
  94.3480012  45.5374997 124.3299988  94.1857059  44.6963586 124.4784401
  94.2110012  50.4274997 137.4449988  93.3600012  50.6654997 137.0779988
  94.8020012  50.4104997 136.6919988  94.1742487  50.4578258 137.2928893
  92.5430012  53.4134997 125.0729988  92.1700012  52.5874997 125.3819988
  92.8210012  53.2304997 124.1749988  92.5295222  53.2757430 124.9939473
  89.7040012  48.2214997 132.0939988  88.7750012  47.9894997 132.0669988
  90.1550012  47.4444997 131.7639988  89.6379216  48.0847238 132.0456917
  82.2470012  52.5494997 128.2269988  82.7740012  53.3224997 128.0269988
  81.3670012  52.7744997 127.9249988  82.2002031  52.6857545 128.1587912
  78.0020012  47.4114997 122.8139988  78.6180012  48.0384997 123.1939988
  77.1400012  47.7274997 123.0859988  77.9697698  47.5399430 122.9027183
  83.6740012  50.2124997 127.8029988  83.4330012  51.1374997 127.8449988
  82.9330012  49.7534997 128.1999988  83.5409225  50.2770933 127.8623742
  84.1890012  54.3614997 134.1189988  84.5510012  55.2164997 133.8849988
  84.7200012  54.0694997 134.8589988  84.3104473  54.4391060 134.1870855
  82.3570012  55.2344997 127.3489988  81.4070012  55.3394997 127.3999988
  82.7090012  56.0544997 127.6929988  82.2744195  55.3598800 127.4025502
  87.7330012  50.4604997 133.8189988  87.3070012  50.2334997 134.6459988
  88.3130012  49.7224997 133.6369988  87.7531868  50.3295299 133.9075830
  89.9360012  51.3894997 122.8929988  90.2890012  51.0094997 123.6969988
  88.9870012  51.2964997 122.9799988  89.8560918  51.3248956 123.0148532
  90.3910012  55.0124997 136.2889988  89.7900012  54.4574997 135.7929988
  90.6730012  55.6794997 135.6619988  90.3468804  55.0266625 136.1364849
  94.4390012  55.8694997 123.0939988  95.1830012  56.4554997 122.9539988
  93.7450012  56.4374997 123.4269988  94.4469899  56.0265798 123.1198778
  78.5140012  42.2454997 135.6959988  77.6210012  42.5844997 135.6279988
  78.4150012  41.3904997 136.1139988  78.3784164  42.1762588 135.7432235
  90.8020012  50.0624997 125.1199988  90.5240012  49.3344997 125.6759988
  91.7290012  50.1814997 125.3249988  90.8893124  49.9788802 125.2238845
  78.1650012  54.0504997 134.1309988  78.3820012  53.1184997 134.0999988
  78.4110012  54.3244997 135.0139988  78.2279549  53.9600636 134.2461763
  84.0270012  52.5014997 121.3399988  84.2660012  51.7534997 120.7929988
  83.7580012  52.1134997 122.1729988  84.0233675  52.3466638 121.3776865
  82.9640012  52.0714997 123.7959988  83.1100012  51.5514997 124.5859988
  82.9610012  52.9784997 124.1029988  82.9835792  52.1228842 123.9456117
  79.4170012  49.3244997 124.3069988  78.7310012  49.6764997 124.8739988
  79.9390012  50.0874997 124.0599988  79.3936852  49.4758578 124.3512118
  87.2480012  41.9864997 134.5859988  87.9470012  42.0604997 135.2359988
  86.8670012  41.1224997 134.7399988  87.2921767  41.8797624 134.6958322
  88.0330012  41.6384997 125.6829988  88.2530012  42.1104997 124.8799988
  88.5910012  42.0334997 126.3529988  88.1384968  41.7564285 125.6637331
  85.7010012  53.7694997 124.5459988  84.8850012  54.2664997 124.5979988
  86.2310012  54.2444997 123.9059988  85.6609161  53.9017722 124.4665956
  85.2330012  43.3664997 126.5179988  86.0450012  43.8714997 126.5639988
  84.9880012  43.2214997 127.4319988  85.3110520  43.4160375 126.6478517
  85.7680012  44.3524997 135.7019988  85.8870012  44.9264997 136.4599988
  86.4240012  43.6644997 135.8169988  85.8729025  44.3379858 135.8211321
  86.1160012  40.4474997 127.4559988  85.7700012  41.0654997 128.0999988
  86.7750012  40.9484997 126.9739988  86.1576968  40.5996278 127.4789383
  83.0400012  54.8134997 124.5269988  83.2000012  55.6124997 124.0269988
  82.8420012  55.1194997 125.4119988  83.0351637  54.9644020 124.5781144
  81.7740012  41.5104997 124.1429988  81.6910012  42.3994997 124.4899988
  82.6640012  41.2454997 124.3749988  81.8829469  41.5961430 124.2217626
  91.9730012  42.2594997 136.5369988  91.0560012  42.5224997 136.4499988
  92.3080012  42.2564997 135.6409988  91.8928613  42.2950761 136.4038837
  90.5750012  46.0104997 130.6329988  89.7770012  45.5954997 130.3049988
  91.0200012  45.3194997 131.1239988  90.5259885  45.8603543 130.6544889
  80.0330012  51.9384997 123.2039988  80.6250012  52.6374997 123.4799988
  80.4920012  51.5054997 122.4839988  80.1761142  51.9757049 123.1444830
  78.3490012  44.6024997 122.3199988  78.3040012  45.5414997 122.4979988
  77.4610012  44.3664997 122.0499988  78.2228574  44.6991892 122.3078912
  91.6610012  55.2664997 132.2559988  91.5060012  55.9444997 131.5979988
  92.5940012  55.3384997 132.4589988  91.7658657  55.3689546 132.1934360
  79.1570012  39.3844997 130.9929988  78.9280012  39.4434997 130.0649988
  78.7140012  38.5924997 131.2989988  79.0658530  39.2855753 130.9074786
  78.0870012  53.3244997 127.1529988  77.2550012  53.7974997 127.1799988
  78.6330012  53.8344997 126.5549988  78.0470352  53.4581332 127.0758463
  77.3750012  55.9374997 138.4829988  77.9160012  55.7204997 139.2429988
  76.8940012  55.1314997 138.2929988  77.3839951  55.7989270 138.5612576
  81.9730012  54.8564997 140.1029988  82.7400012  54.3974997 140.4439988
  81.9510012  54.6304997 139.1739988  82.0751275  54.7630186 140.0240101
  86.0650012  54.3644997 121.4789988  85.4210012  53.7334997 121.7999988
  86.8270012  53.8334997 121.2469988  86.0798077  54.2062920 121.4916011
  88.5500012  53.2364997 138.8329988  88.1990012  52.3804997 139.0759988
  89.2760012  53.3794997 139.4399988  88.6000769  53.1385636 138.9483619
  90.6690012  54.1814997 121.7119988  90.9520012  53.3874997 122.1649988
  91.4090012  54.4144997 121.1519988  90.8078006  54.1043376 121.6982715
  77.2820012  49.7474997 139.4369988  77.4260012  48.8454997 139.1509988
  76.5100012  50.0334997 138.9499988  77.1972753  49.6626816 139.3319505
  81.6240012  50.0914997 121.5699988  81.6880012  49.2974997 122.1009988
  82.2770012  49.9724997 120.8799988  81.7210241  49.9667148 121.5494317
  83.9380012  49.7174997 138.8699988  83.6090012  49.9884997 138.0129988
  84.0900012  48.7764997 138.7829988  83.9134809  49.6273862 138.7408244
  86.9760012  51.1384997 121.3059988  86.7070012  51.3184997 122.2069988
  86.7700012  50.2124997 121.1739988  86.9113427  51.0380261 121.4115073
  89.6720012  49.6334997 136.2529988  90.4180012  50.2214997 136.1339988
  88.9150012  50.2154997 136.3169988  89.6717820  49.7927143 136.2453590
  78.1150012  46.9474997 138.8569988  78.5230012  46.0904997 138.7359988
  77.8550012  46.9624997 139.7779988  78.1357568  46.8320807 138.9649588
  82.7730012  48.0634997 123.8759988  82.3130012  47.5794997 124.5619988
  83.0280012  47.3954997 123.2399988  82.7444902  47.9068731 123.8839334
  82.0620012  45.9564997 136.2319988  81.4440012  46.6314997 136.5119988
  82.4060012  46.2774997 135.3979988  82.0239132  46.0922411 136.1576262
  83.8440012  46.3064997 122.1379988  83.6640012  46.1524997 121.2109988
  84.7940012  46.4144997 122.1829988  83.9477776  46.3000175 122.0171843
  87.0820012  48.4284997 139.5089988  88.0350012  48.5114997 139.4819988
  86.9210012  47.7164997 140.1289988  87.1906426  48.3436746 139.5890579
  93.2340012  48.6614997 121.5839988  92.9600012  48.2364997 120.7709988
  93.2730012  49.5924997 121.3669988  93.2017699  48.7292484 121.4433610
  82.4010012  43.3114997 137.3139988  82.5510012  42.5824997 136.7119988
  82.4040012  44.0884997 136.7549988  82.4219302  43.3167851 137.1560692
  82.8140012  41.6814997 134.8069988  83.3500012  42.1324997 134.1549988
  81.9620012  41.5734997 134.3839988  82.7722178  41.7286390 134.6605756
  84.3960012  47.1204997 135.0459988  85.1460012  46.9644997 134.4729988
  84.0570012  47.9724997 134.7709988  84.4528921  47.2142968 134.9303561
  88.8110012  44.9354997 140.0749988  89.0040012  44.0044997 139.9629988
  89.6690012  45.3604997 140.0639988  88.9532934  44.8656531 140.0582031
  90.1280012  47.7244997 138.1519988  89.8470012  48.4334997 137.5739988
  91.0710012  47.6514997 138.0009988  90.2169291  47.8116711 138.0524967
  80.8800012  44.5094997 139.2259988  80.1130012  43.9774997 139.0149988
  81.5590012  44.1994997 138.6259988  80.8667877  44.3948300 139.1160716
  83.6200012  39.1374997 135.2379988  83.5210012  40.0844997 135.1329988
  82.8770012  38.7654997 134.7619988  83.5061184  39.2165863 135.1593621
  84.8840012  43.4594997 138.8019988  84.6480012  43.2394997 139.7029988
  84.1000012  43.2524997 138.2919988  84.7458504  43.4014586 138.8563431
  87.5990012  42.5864997 137.8769988  86.6520012  42.6184997 138.0099988
  87.9120012  41.9614997 138.5309988  87.5116707  42.5063998 137.9836060
  89.2330012  41.2204997 139.8829988  89.1370012  40.2684997 139.8769988
  88.9120012  41.4894997 140.7429988  89.1764070  41.1264035 139.9985441
  79.0600012  42.4304997 138.9299988  79.2720012  41.7234997 138.3199988
  78.9490012  41.9924997 139.7739988  79.0739721  42.2747084 138.9606843
  83.8410012  38.4314997 137.9089988  84.5530012  37.7914997 137.8949988
  83.7400012  38.6984997 136.9959988  83.9248066  38.3800079 137.7835677
  84.1950012  40.1144997 139.9629988  84.0630012  39.6384997 139.1429988
  83.5960012  40.8584997 139.9079988  84.0959071  40.1499618 139.8432886
  83.7410012  56.9974997 123.1389988  84.6740012  57.1554997 123.2829988
  83.4770012  57.6724997 122.5149988  83.8329888  57.1104510 123.0742842
  77.3100012  51.6334997 122.6219988  78.2240012  51.7124997 122.8959988
  77.3170012  50.9464997 121.9559988  77.4361131  51.5513961 122.5694393
  75.9590012  57.0264997 127.6999988  75.3120012  56.5644997 127.1669988
  76.3130012  56.3544997 128.2819988  75.9183849  56.8724723 127.7057959
  76.8290012  55.1074997 129.5039988  76.4940012  54.2274997 129.6759988
  77.0510012  55.4524997 130.3689988  76.8131783  55.0337500 129.6444208
  94.3770012  55.9164997 132.4849988  94.3560012  56.1014997 133.4239988
  95.0680012  56.4854997 132.1439988  94.4674618  56.0186606 132.5673864
  93.9410012  55.4844997 135.4069988  93.4530012  54.7484997 135.0349988
  94.4900012  55.0904997 136.0849988  93.9484820  55.3305889 135.4477813
  92.3910012  51.2734997 140.0449988  91.5250012  51.1684997 140.4389988
  92.7680012  52.0324997 140.4909988  92.3233308  51.3616900 140.1592393
  93.6920012  49.5304997 125.5589988  94.5420012  49.9514997 125.6859988
  93.6980012  48.7904997 126.1659988  93.8091372  49.4880803 125.6584344
  94.0870012  47.5834997 127.3819988  93.3600012  47.1044997 127.7799988
  94.6680012  47.7894997 128.1149988  94.0660473  47.5458103 127.5354528
  93.8460012  50.3684997 132.3299988  94.6790012  49.9904997 132.0499988
  93.9580012  51.3114997 132.2109988  93.9752647  50.4442218 132.2755487
  92.3320012  53.2464997 134.6369988  91.6850012  53.5714997 135.2629988
  91.8150012  52.8064997 133.9629988  92.1734029  53.2315004 134.6315827
  94.3550012  47.4844997 123.7739988  93.8330012  47.8414997 123.0549988
  94.3220012  48.1594997 124.4519988  94.2791634  47.6245413 123.7673145
  92.7040012  44.7244997 122.3239988  92.8000012  45.3914997 121.6439988
  92.5640012  43.9084997 121.8429988  92.6982272  44.7055655 122.1658347
  91.8730012  46.1044997 127.9449988  91.7230012  45.1594997 127.9249988
  91.5200012  46.3854997 128.7889988  91.8047448  46.0131481 128.0563705
  76.9090012  48.1824997 131.9559988  77.0930012  48.1004997 131.0199988
  77.7580012  48.0584997 132.3789988  77.0490151  48.1545073 131.8851451
  92.7300012  48.0744997 137.5839988  93.3130012  47.3404997 137.7759988
  93.2940012  48.8464997 137.6309988  92.8859769  48.0784227 137.6166159
  94.2260012  45.9774997 138.2689988  93.3630012  45.5984997 138.1029988
  94.8310012  45.2384997 138.1939988  94.1896119  45.8258268 138.2361528
  91.9510012  42.1324997 121.4419988  92.5620012  41.7614997 122.0789988
  91.1150012  41.7114997 121.6379988  91.9215032  42.0247554 121.5557035
  91.5840012  43.6874997 126.4079988  91.8640012  42.7804997 126.5319988
  92.3430012  44.1214997 126.0189988  91.7249277  43.6220942 126.3723682
  92.1960012  44.2684997 131.8439988  93.1290012  44.4804997 131.8089988
  91.9610012  44.3704997 132.7659988  92.2919244  44.3113100 131.9638892
  92.2250012  45.0054997 134.6199988  91.3820012  45.2734997 134.9859988
  92.6670012  45.8274997 134.4089988  92.1694158  45.1533291 134.6415491
  76.5060012  43.4534997 138.0969988  77.4260012  43.3314997 138.3329988
  76.0570012  42.7034997 138.4859988  76.5711580  43.3353727 138.1819006
  94.5080012  38.9854997 139.9729988  94.8580012  38.3314997 139.3679988
  94.6550012  39.8224997 139.5329988  94.5757887  39.0091548 139.8306858
  92.1970012  40.9504997 126.4559988  92.3800012  40.5014997 127.2819988
  91.5980012  40.3654997 125.9929988  92.1410202  40.8099975 126.5063275
  77.7270012  41.7654997 130.9879988  78.1730012  40.9734997 131.2899988
  78.1940012  42.4814997 131.4179988  77.8510831  41.7540685 131.0874006
  76.0310012  44.7644997 132.0569988  76.5230012  44.5434997 131.2659988
  76.3940012  45.6054997 132.3379988  76.1473126  44.8478357 131.9867531
  94.0280012  41.0944997 138.3219988  93.1100012  41.3654997 138.2869988
  94.1510012  40.5594997 137.5379988  93.9189729  41.0592508 138.2111923
  94.0640012  41.0174997 122.9839988  94.4760012  40.2964997 122.5089988
  94.7460012  41.6874997 123.0429988  94.2125885  41.0092368 122.9268915
  76.3450012  41.0224997 126.1109988  75.4200012  41.2314997 125.9819988
  76.7990012  41.5064997 125.4209988  76.2797292  41.1165343 126.0000720
  91.1160012  56.0064997 128.0569988  91.7680012  55.6594997 127.4489988
  91.6260012  56.4954997 128.7029988  91.2742637  56.0250597 128.0610236
  76.3090012  39.7604997 134.4549988  75.6440012  39.5144997 135.0989988
  75.8660012  40.3824997 133.8779988  76.1581318  39.8109410 134.4650898
  78.5010012  52.9354997 138.5999988  77.6800012  53.1104997 138.1389988
  78.2480012  52.8624997 139.5199988  78.3545585  52.9495544 138.6613561
  81.4550012  53.9104997 134.8579988  81.0300012  54.7194997 134.5759988
  82.3590012  53.9954997 134.5559988  81.5189975  54.0329300 134.7784816
  85.7660012  55.3094997 137.8179988  85.9510012  54.9754997 138.6959988
  86.6120012  55.6184997 137.4959988  85.9057539  55.3056047 137.8945605
  88.1110012  56.5954997 137.0619988  88.7880012  55.9624997 136.8219988
  88.4330012  56.9964997 137.8689988  88.2471637  56.5631154 137.1382793
  93.0280012  39.1844997 136.1409988  92.2160012  39.5094997 135.7539988
  93.2610012  38.4244997 135.6079988  92.9482203  39.1262758 136.0158880
  78.8570012  57.1664997 134.9059988  78.1360012  57.6064997 134.4549988
  78.4910012  56.9154997 135.7539988  78.7089651  57.1927242 134.9589640
  81.3240012  56.7664997 133.9359988  80.4590012  56.8384997 134.3399988
  81.2690012  57.3134997 133.1519988  81.1982085  56.8502685 133.8853362
  86.0340012  56.6544997 133.1109988  85.5780012  57.1834997 132.4569988
  86.1970012  57.2574997 133.8359988  85.9936068  56.8084607 133.1194838
  88.3620012  55.5324997 134.0559988  87.4570012  55.6974997 133.7899988
  88.7910012  56.3854997 133.9909988  88.2961324  55.6704339 134.0107976
  90.9660012  57.1024997 134.3509988  90.7840012  58.0184997 134.1409988
  91.1430012  56.6924997 133.5049988  90.9650210  57.1724822 134.2077885
  78.2710012  55.7894997 131.8159988  78.2530012  55.3644997 132.6729988
  79.0760012  55.4714997 131.4069988  78.3773529  55.6883013 131.8780946
  80.4130012  54.4994997 130.4709988  80.1940012  53.5834997 130.6409988
  81.2370012  54.6394997 130.9369988  80.4944420  54.3930520 130.5572774
  82.9500012  54.9694997 131.3199988  83.1630012  54.0814997 131.0329988
  83.0140012  54.9354997 132.2739988  82.9878232  54.8433102 131.4097397
  86.4580012  40.6334997 130.4639988  85.7840012  40.0044997 130.7199988
  87.0220012  40.1494997 129.8609988  86.4419230  40.4818744 130.4175340
  91.6010012  38.7414997 130.5769988  92.2050012  39.2884997 130.0749988
  90.7310012  39.0604997 130.3359988  91.5661208  38.8595137 130.4756886
  93.3280012  39.8794997 128.9099988  93.9400012  39.3654997 128.3829988
  93.7100012  40.7574997 128.9329988  93.4633371  39.9277866 128.8410041
  78.7850012  39.2674997 128.2859988  78.0080012  39.0334997 127.7789988
  79.3150012  38.4704997 128.2949988  78.7502330  39.1276988 128.2177742
  77.6210012  39.0654997 124.0899988  78.0600012  39.6764997 123.4979988
  76.9880012  39.6034997 124.5639988  77.5954514  39.2219257 124.0730930
  83.3640012  39.1944997 128.0999988  84.2390012  39.5824997 128.0699988
  83.2280012  38.9794997 129.0219988  83.4653695  39.2185184 128.2206440
  88.9210012  39.2244997 129.7489988  88.9970012  39.3194997 128.7989988
  88.6460012  38.3164997 129.8779988  88.8942321  39.1147867 129.6365079
  90.2740012  39.2504997 125.4409988  89.5720012  39.8654997 125.2309988
  89.8300012  38.4124997 125.5719988  90.1176450  39.2215639 125.4299000
  77.5220012  55.0134997 124.9869988  76.8370012  54.9754997 124.3199988
  77.5260012  55.9264997 125.2759988  77.4286998  55.1316733 124.9346771
  79.4820012  40.9814997 122.5319988  79.9740012  40.3514997 122.0049988
  80.1060012  41.2774997 123.1949988  79.6335688  40.9353804 122.5495482
  84.5080012  41.2744997 124.9889988  84.6860012  40.6284997 125.6719988
  84.4550012  42.1084997 125.4559988  84.5251999  41.2988009 125.1455917
  86.3870012  56.2234997 123.3849988  87.2530012  56.5894997 123.2069988
  86.1400012  55.7834997 122.5709988  86.4722392  56.2141756 123.2506289
  93.0960012  55.7864997 126.0639988  92.9010012  55.0384997 125.4989988
  93.0570012  56.5444997 125.4809988  93.0640380  55.7866099 125.9078384
  78.7430012  39.7814997 137.8039988  78.3770012  39.0164997 138.2459988
  79.6560012  39.8104997 138.0899988  78.8162736  39.6805640 137.9032502
  80.7160012  39.1324997 139.3399988  81.6140012  38.8584997 139.1549988
  80.3290012  38.3894997 139.8039988  80.7866612  38.9945914 139.3773643
  79.3400012  55.9334997 122.0129988  79.0730012  56.2204997 122.8859988
  80.1120012  55.3874997 122.1649988  79.4077488  55.8990294 122.1531050
  89.1370012  38.4644997 139.5219988  89.2140012  38.0384997 140.3759988
  90.0310012  38.4784997 139.1789988  89.2683428  38.4080879 139.5925310
  92.3130012  54.5374997 138.2139988  91.5310012  54.3514997 137.6939988
  92.2410012  55.4664997 138.4319988  92.1962274  54.6376643 138.1723018
 106.7190012  48.4234997 128.2449988 106.8080012  49.3674997 128.1129988
 106.0810012  48.1484997 127.5869988 106.6449081  48.5154830 128.1379614
 105.6520012  47.6784997 131.6639988 105.6140012  47.0324997 132.3689988
 105.3300012  47.2124997 130.8929988 105.6032333  47.5269408 131.6562978
  98.0210012  47.2934997 133.2569988  98.0620012  46.6674997 133.9799988
  98.7240012  47.9174997 133.4389988  98.1216363  47.2921196 133.3806044
 109.3580012  50.6174997 129.9649988 108.9180012  49.8974997 130.4159988
 109.3450012  51.3384997 130.5949988 109.2960226  50.6163731 130.1118494
  98.9440012  51.7434997 131.7919988  98.5750012  50.9414997 131.4219988
  99.8850012  51.5744997 131.8379988  99.0207289  51.6110153 131.7476316
  95.5540012  45.4034997 127.1849988  95.1070012  46.2494997 127.1659988
  94.9930012  44.8234997 126.6689988  95.4169900  45.4409916 127.1126801
  96.2650012  47.5654997 129.3099988  96.4780012  46.7954997 129.8379988
  97.0030012  47.6544997 128.7069988  96.3939044  47.4721968 129.3007123
 106.4700012  55.7224997 130.1769988 107.0900012  55.0454997 129.9039988
 106.2620012  55.5044997 131.0859988 106.5266726  55.6004800 130.2624812
 104.0420012  50.1114997 132.0699988 104.3460012  49.4254997 131.4749988
 104.7630012  50.2294997 132.6879988 104.1810671  50.0336305 132.0721816
 112.7050012  41.7124997 132.9309988 112.7540012  42.3224997 133.6659988
 113.1300012  42.1734997 132.2079988 112.7691746  41.8583796 132.9339175
 107.1830012  44.5054997 132.3969988 107.3250012  43.5594997 132.4179988
 107.0760012  44.7124997 131.4689988 107.1879919  44.4038246 132.2743408
 100.3370012  42.6064997 129.6699988 100.3810012  43.4664997 129.2509988
  99.8800012  42.0544997 129.0359988 100.2812240  42.6494422 129.5269864
 108.0600012  42.7374997 128.0709988 108.7060012  42.4084997 128.6949988
 108.5700012  43.2554997 127.4479988 108.2174299  42.7624450 128.0722731
  96.9580012  45.0034997 130.4319988  97.6110012  44.4534997 130.8639988
  96.9820012  44.7294997 129.5149988  97.0506683  44.8911466 130.3672123
 102.1140012  46.5534997 129.6469988 102.7300012  46.0274997 130.1569988
 101.5280012  45.9134997 129.2439988 102.1190810  46.3949208 129.6623173
 113.0960012  43.1904997 135.1659988 112.4080012  43.8484997 135.0709988
 113.1120012  42.9934997 136.1029988 113.0039540  43.2539819 135.2795990
  99.1480012  41.5244997 133.7439988  98.9290012  42.0544997 132.9779988
  98.4800012  41.7514997 134.3909988  99.0277600  41.6276906 133.7266379
 106.5170012  51.0244997 127.2879988 106.2210012  50.7024997 126.4369988
 106.1920012  51.9244997 127.3289988 106.4326371  51.1020215 127.1771801
 101.7170012  49.2004997 134.0309988 100.9770012  49.7984997 134.1349988
 102.4310012  49.7544997 133.7159988 101.7122237  49.3572831 134.0026465
 109.8240012  42.0284997 130.0509988 109.6080012  41.2624997 130.5839988
 110.4790012  42.5004997 130.5639988 109.8830632  41.9875889 130.1932861
  98.7410012  43.4164997 131.6959988  99.3550012  44.0494997 132.0689988
  99.2530012  42.9444997 131.0399988  98.8941981  43.4392267 131.6582908
 100.1240012  51.1644997 134.8179988 100.1190012  52.0444997 134.4399988
  99.2710012  51.0814997 135.2429988 100.0079464  51.2736117 134.8237907
  96.2450012  50.8354997 125.5999988  95.9730012  51.0644997 124.7119988
  96.2910012  51.6734997 126.0609988  96.2139482  50.9801318 125.5406273
 109.8700012  52.4574997 132.3129988 108.9290012  52.5154997 132.4749988
 110.1470012  53.3634997 132.1759988 109.7784679  52.5879443 132.3166815
 110.1710012  40.7434997 133.7309988 109.4350012  41.3544997 133.6929988
 110.8540012  41.1584997 133.2039988 110.1626541  40.8831374 133.6545832
 103.1740012  38.8304997 131.1959988 103.0570012  37.8814997 131.1419988
 102.3190012  39.1624997 131.4699988 103.0424212  38.7455571 131.2256497
 108.1220012  54.2384997 128.9379988 108.5480012  53.5314997 128.4529988
 108.4390012  55.0394997 128.5219988 108.2231683  54.2501017 128.8153680
 109.2820012  52.1394997 127.4469988 109.0240012  51.4494997 126.8359988
 109.3530012  51.6964997 128.2929988 109.2562856  51.9852124 127.4776885
 110.9680012  50.7054997 135.9239988 111.1080012  50.1144997 135.1849988
 111.1350012  51.5784997 135.5679988 111.0097411  50.7425428 135.7746894
 105.4410012  47.6674997 125.6969988 104.7290012  48.2024997 125.3449988
 106.1320012  47.7234997 125.0369988 105.4370132  47.7482543 125.5596289
 105.4940012  46.1254997 122.7359988 106.1950012  46.1474997 123.3869988
 105.7970012  45.4974997 122.0789988 105.6308133  46.0437070 122.7363369
 112.8100012  47.0454997 133.9899988 112.1570012  47.7404997 134.0799988
 113.2750012  47.2554997 133.1809988 112.7835274  47.1690643 133.8928462
 108.8460012  47.8774997 126.6489988 108.1140012  48.1054997 127.2219988
 109.2940012  47.1634997 127.1029988 108.8062725  47.8122145 126.7888816
 108.7440012  46.0514997 135.7159988 108.8240012  46.8144997 136.2879988
 108.1420012  46.3304997 135.0259988 108.6735756  46.1937134 135.7010589
 100.4920012  48.5074997 128.5309988 100.1610012  48.1374997 127.7129988
 101.0800012  47.8374997 128.8779988 100.5261873  48.3661156 128.4658102
 101.8580012  51.9354997 131.2119988 101.7640012  51.3574997 130.4559988
 102.5880012  51.5644997 131.7089988 101.9437387  51.8061663 131.1755342
 100.8580012  47.2764997 132.1649988 101.4240012  47.3974997 131.4019988
 101.1770012  47.9134997 132.8029988 100.9785474  47.3792219 132.1469862
 107.1670012  52.7794997 132.8989988 106.9270012  53.4414997 133.5469988
 106.9690012  51.9454997 133.3239988 107.1073808  52.7573134 133.0451524
 101.7380012  51.6754997 136.8819988 101.4270012  52.4574997 137.3369988
 101.0880012  51.5224997 136.1959988 101.6075558  51.7619105 136.8515871
 107.7170012  47.0394997 124.3339988 108.2970012  47.1894997 125.0809988
 108.1310012  47.5104997 123.6099988 107.8522997  47.1236578 124.3384058
  98.6580012  47.8734997 136.1099988  98.7290012  48.5244997 136.8089988
  97.7680012  47.9764997 135.7749988  98.5473005  47.9765427 136.1603495
 105.4440012  53.7764997 127.7689988 105.9180012  54.0714997 128.5459988
 104.8810012  54.5144997 127.5359988 105.4328184  53.9167247 127.8439628
  99.9780012  53.7474997 137.6449988  99.9850012  53.6114997 136.6979988
  99.0620012  53.6294997 137.8969988  99.8551714  53.7129430 137.5494666
 111.4160012  38.7894997 124.1469988 110.5160012  38.9284997 124.4419988
 111.6680012  39.6204997 123.7449988 111.3268702  38.9209074 124.1330205
  99.4820012  47.5774997 126.1199988  99.1900012  48.3454997 125.6299988
  98.8080012  46.9174997 125.9579988  99.3508111  47.5935587 126.0308978
 112.6050012  53.1554997 122.5229988 112.6790012  54.0944997 122.6939988
 113.5110012  52.8504997 122.4669988 112.7375100  53.2426722 122.5388119
  95.5750012  49.9404997 134.9349988  95.0740012  49.9124997 134.1199988
  95.5800012  49.0344997 135.2449988  95.5070944  49.8142396 134.8653226
  95.3250012  52.7204997 131.8189988  96.2710012  52.5764997 131.7999988
  95.2130012  53.5044997 132.3559988  95.4392727  52.8068046 131.8890072
 113.5230012  53.3864997 137.5019988 113.4740012  52.4314997 137.4649988
 112.6960012  53.6544997 137.9029988 113.4044940  53.2918998 137.5511375
 104.5020012  52.9604997 136.3779988 104.5890012  53.7864997 136.8529988
 103.6380012  52.6304997 136.6269988 104.3971964  53.0289878 136.4766549
 104.9160012  56.7324997 126.1839988 104.8410012  56.6114997 125.2369988
 104.9490012  57.6824997 126.3019988 104.9102068  56.8442646 126.0704967
  98.5690012  55.5214997 127.9649988  98.7220012  55.1734997 128.8429988
  97.7190012  55.1654997 127.7099988  98.4749166  55.4256216 128.0508079
 108.0180012  55.8864997 123.1859988 108.3930012  55.1424997 122.7149988
 108.0220012  55.6164997 124.1049988 108.0699125  55.7480986 123.2456483
 107.6870012  55.8124997 125.9349988 106.7510012  55.9124997 126.1139988
 107.9670012  55.1034997 126.5139988 107.5969553  55.7303406 126.0377087
 110.6750012  44.8794997 137.9819988 110.2680012  45.3604997 137.2609988
 110.7160012  43.9744997 137.6739988 110.6248437  44.8229374 137.8416683
  97.8240012  51.2634997 135.9789988  98.0400012  50.9024997 136.8379988
  96.9690012  50.8894997 135.7689988  97.7379292  51.1634111 136.0683386
 100.4430012  39.7334997 131.9739988  99.5810012  39.6464997 131.5659988
 100.4200012  40.5894997 132.4019988 100.3220409  39.8372883 131.9760589
 105.1060012  39.4554997 135.3489988 105.5260012  39.0404997 136.1019988
 104.1730012  39.2774997 135.4659988 105.0373644  39.3745900 135.4679539
 108.4320012  43.2114997 136.2019988 107.9180012  43.0854997 136.9999988
 108.2770012  44.1234997 135.9579988 108.3406852  43.3176132 136.2782158
 109.1950012  48.0724997 121.9639988 109.2370012  47.8494997 121.0339988
 110.0440012  48.4714997 122.1529988 109.3155280  48.0959438 121.8623554
 104.7670012  41.9484997 122.6339988 104.5140012  41.9674997 123.5569988
 104.5110012  41.0764997 122.3319988 104.6977481  41.8332558 122.7196175
 100.5340012  44.6994997 133.0689988  99.8920012  44.6584997 133.7779988
 100.5710012  45.6254997 132.8309988 100.4510664  44.8191430 133.1339219
 100.5310012  44.9204997 127.9809988  99.6380012  44.5794997 127.9219988
 100.9810012  44.5434997 127.2249988 100.4698130  44.8229631 127.8707702
 106.0660012  45.3364997 126.7979988 105.6570012  46.1514997 126.5069988
 106.7870012  45.1964997 126.1839988 106.1074537  45.4292018 126.6751342
 105.1680012  45.5114997 138.2859988 104.6060012  44.8074997 138.6069988
 105.9950012  45.3914997 138.7539988 105.2027095  45.3987883 138.3932330
 107.0710012  44.7824997 129.6119988 106.8760012  45.3874997 128.8969988
 107.2520012  43.9484997 129.1779988 107.0687614  44.7526300 129.4554405
  98.2840012  45.0194997 134.9359988  98.2460012  45.4194997 135.8049988
  97.7930012  44.2024997 135.0269988  98.2124684  44.9638069 135.0671059
 101.6500012  42.3934997 121.7349988 101.2190012  41.9484997 122.4649988
 100.9320012  42.7654997 121.2229988 101.4939438  42.3828940 121.7656799
  94.8920012  42.1354997 128.7869988  95.5230012  42.1064997 129.5059988
  95.3410012  41.7104997 128.0559988  95.0390918  42.0740836 128.7866441
  96.1660012  42.8814997 124.2109988  96.6400012  43.4724997 123.6259988
  95.4490012  43.4124997 124.5579988  96.1339341  43.0340867 124.1778836
 106.3350012  46.4204997 134.2829988 106.6580012  45.7894997 133.6399988
 105.8950012  45.8854997 134.9439988 106.3197484  46.2618387 134.2843198
 103.1120012  42.3474997 129.0669988 102.2010012  42.4044997 129.3559988
 103.6180012  42.2874997 129.8779988 103.0556899  42.3471941 129.2161184
  97.9410012  43.9764997 127.8939988  97.0510012  44.0764997 127.5539988
  98.2370012  43.1344997 127.5479988  97.8592823  43.8763545 127.8007213
 101.5940012  43.9764997 125.5509988 102.5250012  44.1054997 125.7289988
 101.3790012  44.6464997 124.9009988 101.6924247  44.0846565 125.4875747
 107.5170012  41.5824997 132.3319988 106.8410012  41.7134997 132.9959988
 107.0320012  41.4274997 131.5209988 107.3587146  41.5795157 132.3134469
 100.2680012  45.1714997 123.1169988  99.7250012  44.7914997 122.4259988
 101.1010012  45.3654997 122.6889988 100.3063631  45.1457125 122.9644501
 110.8050012  57.2544997 138.6079988 111.0050012  57.6784997 137.7739988
 111.4600012  57.5974997 139.2149988 110.9210072  57.3589857 138.5758592
  98.4030012  49.7284997 138.2159988  99.1350012  49.9824997 138.7779988
  97.6230012  49.9324997 138.7319988  98.3977073  49.7908160 138.3626151
 104.4320012  45.1354997 130.9539988 104.9970012  44.5884997 130.4069988
 104.2850012  44.6134997 131.7429988 104.4893380  44.9902259 130.9858695
  99.4340012  41.2714997 127.3729988  99.1170012  40.3694997 127.3369988
 100.2160012  41.2734997 126.8199988  99.4962408  41.1482474 127.2933569
 103.0590012  43.5234997 133.3679988 102.2230012  43.9774997 133.4789988
 103.5830012  43.7994997 134.1199988 103.0155416  43.6228660 133.4848119
 103.6030012  49.7364997 125.0529988 102.8580012  49.2294997 124.7309988
 103.4690012  49.7854997 125.9999988 103.4828776  49.6736940 125.1368647
 110.7530012  48.8694997 133.8399988 111.3950012  49.3264997 133.2959988
 109.9230012  48.9824997 133.3769988 110.7285963  48.9472704 133.7030177
 107.5010012  42.5504997 123.2519988 106.5620012  42.6624997 123.1009988
 107.7980012  43.4074997 123.5589988 107.4127583  42.6815981 123.2728337
 105.1220012  49.9204997 136.2899988 104.7770012  49.5394997 137.0969988
 104.9220012  50.8544997 136.3609988 105.0477527  49.9945135 136.4100689
 108.2190012  44.4174997 124.9129988 109.1110012  44.2804997 125.2319988
 108.2760012  45.2084997 124.3759988 108.3486504  44.5056052 124.8840818
  98.7280012  49.0314997 130.8229988  99.4730012  49.0294997 130.2219988
  98.8060012  48.2084997 131.3039988  98.8404995  48.9198887 130.8058282
 105.7290012  51.1954997 124.0789988 105.4330012  52.0214997 124.4599988
 105.0260012  50.5754997 124.2749988 105.5934914  51.2248199 124.1576443
  95.7360012  47.4924997 136.1379988  95.9590012  47.0744997 136.9699988
  95.1340012  46.8794997 135.7149988  95.6851759  47.3524668 136.1947022
 102.7520012  47.0094997 138.3509988 102.4560012  46.8434997 137.4559988
 103.6840012  46.7894997 138.3399988 102.8374166  46.9570640 138.2270536
 107.3730012  52.3824997 136.2409988 106.4720012  52.5654997 135.9729988
 107.4070012  52.6414997 137.1609988 107.2543139  52.4425849 136.3288099
 113.1040012  44.6274997 124.6079988 112.5500012  44.2314997 123.9359988
 113.2040012  45.5374997 124.3299988 113.0417059  44.6963586 124.4784401
 113.0670012  50.4274997 137.4449988 112.2160012  50.6654997 137.0779988
 113.6580012  50.4104997 136.6919988 113.0302487  50.4578258 137.2928893
 111.3990012  53.4134997 125.0729988 111.0260012  52.5874997 125.3819988
 111.6770012  53.2304997 124.1749988 111.3855222  53.2757430 124.9939473
 108.5600012  48.2214997 132.0939988 107.6310012  47.9894997 132.0669988
 109.0110012  47.4444997 131.7639988 108.4939216  48.0847238 132.0456917
 101.1030012  52.5494997 128.2269988 101.6300012  53.3224997 128.0269988
 100.2230012  52.7744997 127.9249988 101.0562031  52.6857545 128.1587912
  96.8580012  47.4114997 122.8139988  97.4740012  48.0384997 123.1939988
  95.9960012  47.7274997 123.0859988  96.8257698  47.5399430 122.9027183
 102.5300012  50.2124997 127.8029988 102.2890012  51.1374997 127.8449988
 101.7890012  49.7534997 128.1999988 102.3969225  50.2770933 127.8623742
 103.0450012  54.3614997 134.1189988 103.4070012  55.2164997 133.8849988
 103.5760012  54.0694997 134.8589988 103.1664473  54.4391060 134.1870855
 101.2130012  55.2344997 127.3489988 100.2630012  55.3394997 127.3999988
 101.5650012  56.0544997 127.6929988 101.1304195  55.3598800 127.4025502
 106.5890012  50.4604997 133.8189988 106.1630012  50.2334997 134.6459988
 107.1690012  49.7224997 133.6369988 106.6091868  50.3295299 133.9075830
 108.7920012  51.3894997 122.8929988 109.1450012  51.0094997 123.6969988
 107.8430012  51.2964997 122.9799988 108.7120918  51.3248956 123.0148532
 109.2470012  55.0124997 136.2889988 108.6460012  54.4574997 135.7929988
 109.5290012  55.6794997 135.6619988 109.2028804  55.0266625 136.1364849
 113.2950012  55.8694997 123.0939988 114.0390012  56.4554997 122.9539988
 112.6010012  56.4374997 123.4269988 113.3029899  56.0265798 123.1198778
  97.3700012  42.2454997 135.6959988  96.4770012  42.5844997 135.6279988
  97.2710012  41.3904997 136.1139988  97.2344164  42.1762588 135.7432235
 109.6580012  50.0624997 125.1199988 109.3800012  49.3344997 125.6759988
 110.5850012  50.1814997 125.3249988 109.7453124  49.9788802 125.2238845
  97.0210012  54.0504997 134.1309988  97.2380012  53.1184997 134.0999988
  97.2670012  54.3244997 135.0139988  97.0839549  53.9600636 134.2461763
 102.8830012  52.5014997 121.3399988 103.1220012  51.7534997 120.7929988
 102.6140012  52.1134997 122.1729988 102.8793675  52.3466638 121.3776865
 101.8200012  52.0714997 123.7959988 101.9660012  51.5514997 124.5859988
 101.8170012  52.9784997 124.1029988 101.8395792  52.1228842 123.9456117
  98.2730012  49.3244997 124.3069988  97.5870012  49.6764997 124.8739988
  98.7950012  50.0874997 124.0599988  98.2496852  49.4758578 124.3512118
 106.1040012  41.9864997 134.5859988 106.8030012  42.0604997 135.2359988
 105.7230012  41.1224997 134.7399988 106.1481767  41.8797624 134.6958322
 106.8890012  41.6384997 125.6829988 107.1090012  42.1104997 124.8799988
 107.4470012  42.0334997 126.3529988 106.9944968  41.7564285 125.6637331
 104.5570012  53.7694997 124.5459988 103.7410012  54.2664997 124.5979988
 105.0870012  54.2444997 123.9059988 104.5169161  53.9017722 124.4665956
 104.0890012  43.3664997 126.5179988 104.9010012  43.8714997 126.5639988
 103.8440012  43.2214997 127.4319988 104.1670520  43.4160375 126.6478517
 104.6240012  44.3524997 135.7019988 104.7430012  44.9264997 136.4599988
 105.2800012  43.6644997 135.8169988 104.7289025  44.3379858 135.8211321
 104.9720012  40.4474997 127.4559988 104.6260012  41.0654997 128.0999988
 105.6310012  40.9484997 126.9739988 105.0136968  40.5996278 127.4789383
 101.8960012  54.8134997 124.5269988 102.0560012  55.6124997 124.0269988
 101.6980012  55.1194997 125.4119988 101.8911637  54.9644020 124.5781144
 100.6300012  41.5104997 124.1429988 100.5470012  42.3994997 124.4899988
 101.5200012  41.2454997 124.3749988 100.7389469  41.5961430 124.2217626
 110.8290012  42.2594997 136.5369988 109.9120012  42.5224997 136.4499988
 111.1640012  42.2564997 135.6409988 110.7488613  42.2950761 136.4038837
 109.4310012  46.0104997 130.6329988 108.6330012  45.5954997 130.3049988
 109.8760012  45.3194997 131.1239988 109.3819885  45.8603543 130.6544889
  98.8890012  51.9384997 123.2039988  99.4810012  52.6374997 123.4799988
  99.3480012  51.5054997 122.4839988  99.0321142  51.9757049 123.1444830
  97.2050012  44.6024997 122.3199988  97.1600012  45.5414997 122.4979988
  96.3170012  44.3664997 122.0499988  97.0788574  44.6991892 122.3078912
 110.5170012  55.2664997 132.2559988 110.3620012  55.9444997 131.5979988
 111.4500012  55.3384997 132.4589988 110.6218657  55.3689546 132.1934360
  98.0130012  39.3844997 130.9929988  97.7840012  39.4434997 130.0649988
  97.5700012  38.5924997 131.2989988  97.9218530  39.2855753 130.9074786
  96.9430012  53.3244997 127.1529988  96.1110012  53.7974997 127.1799988
  97.4890012  53.8344997 126.5549988  96.9030352  53.4581332 127.0758463
  96.2310012  55.9374997 138.4829988  96.7720012  55.7204997 139.2429988
  95.7500012  55.1314997 138.2929988  96.2399951  55.7989270 138.5612576
 100.8290012  54.8564997 140.1029988 101.5960012  54.3974997 140.4439988
 100.8070012  54.6304997 139.1739988 100.9311275  54.7630186 140.0240101
 104.9210012  54.3644997 121.4789988 104.2770012  53.7334997 121.7999988
 105.6830012  53.8334997 121.2469988 104.9358077  54.2062920 121.4916011
 107.4060012  53.2364997 138.8329988 107.0550012  52.3804997 139.0759988
 108.1320012  53.3794997 139.4399988 107.4560769  53.1385636 138.9483619
 109.5250012  54.1814997 121.7119988 109.8080012  53.3874997 122.1649988
 110.2650012  54.4144997 121.1519988 109.6638006  54.1043376 121.6982715
  96.1380012  49.7474997 139.4369988  96.2820012  48.8454997 139.1509988
  95.3660012  50.0334997 138.9499988  96.0532753  49.6626816 139.3319505
 100.4800012  50.0914997 121.5699988 100.5440012  49.2974997 122.1009988
 101.1330012  49.9724997 120.8799988 100.5770241  49.9667148 121.5494317
 102.7940012  49.7174997 138.8699988 102.4650012  49.9884997 138.0129988
 102.9460012  48.7764997 138.7829988 102.7694809  49.6273862 138.7408244
 105.8320012  51.1384997 121.3059988 105.5630012  51.3184997 122.2069988
 105.6260012  50.2124997 121.1739988 105.7673427  51.0380261 121.4115073
 108.5280012  49.6334997 136.2529988 109.2740012  50.2214997 136.1339988
 107.7710012  50.2154997 136.3169988 108.5277820  49.7927143 136.2453590
  96.9710012  46.9474997 138.8569988  97.3790012  46.0904997 138.7359988
  96.7110012  46.9624997 139.7779988  96.9917568  46.8320807 138.9649588
 101.6290012  48.0634997 123.8759988 101.1690012  47.5794997 124.5619988
 101.8840012  47.3954997 123.2399988 101.6004902  47.9068731 123.8839334
 100.9180012  45.9564997 136.2319988 100.3000012  46.6314997 136.5119988
 101.2620012  46.2774997 135.3979988 100.8799132  46.0922411 136.1576262
 102.7000012  46.3064997 122.1379988 102.5200012  46.1524997 121.2109988
 103.6500012  46.4144997 122.1829988 102.8037776  46.3000175 122.0171843
 105.9380012  48.4284997 139.5089988 106.8910012  48.5114997 139.4819988
 105.7770012  47.7164997 140.1289988 106.0466426  48.3436746 139.5890579
 112.0900012  48.6614997 121.5839988 111.8160012  48.2364997 120.7709988
 112.1290012  49.5924997 121.3669988 112.0577699  48.7292484 121.4433610
 101.2570012  43.3114997 137.3139988 101.4070012  42.5824997 136.7119988
 101.2600012  44.0884997 136.7549988 101.2779302  43.3167851 137.1560692
 101.6700012  41.6814997 134.8069988 102.2060012  42.1324997 134.1549988
 100.8180012  41.5734997 134.3839988 101.6282178  41.7286390 134.6605756
 103.2520012  47.1204997 135.0459988 104.0020012  46.9644997 134.4729988
 102.9130012  47.9724997 134.7709988 103.3088921  47.2142968 134.9303561
 107.6670012  44.9354997 140.0749988 107.8600012  44.0044997 139.9629988
 108.5250012  45.3604997 140.0639988 107.8092934  44.8656531 140.0582031
 108.9840012  47.7244997 138.1519988 108.7030012  48.4334997 137.5739988
 109.9270012  47.6514997 138.0009988 109.0729291  47.8116711 138.0524967
  99.7360012  44.5094997 139.2259988  98.9690012  43.9774997 139.0149988
 100.4150012  44.1994997 138.6259988  99.7227877  44.3948300 139.1160716
 102.4760012  39.1374997 135.2379988 102.3770012  40.0844997 135.1329988
 101.7330012  38.7654997 134.7619988 102.3621184  39.2165863 135.1593621
 103.7400012  43.4594997 138.8019988 103.5040012  43.2394997 139.7029988
 102.9560012  43.2524997 138.2919988 103.6018504  43.4014586 138.8563431
 106.4550012  42.5864997 137.8769988 105.5080012  42.6184997 138.0099988
 106.7680012  41.9614997 138.5309988 106.3676707  42.5063998 137.9836060
 108.0890012  41.2204997 139.8829988 107.9930012  40.2684997 139.8769988
 107.7680012  41.4894997 140.7429988 108.0324070  41.1264035 139.9985441
  97.9160012  42.4304997 138.9299988  98.1280012  41.7234997 138.3199988
  97.8050012  41.9924997 139.7739988  97.9299721  42.2747084 138.9606843
 102.6970012  38.4314997 137.9089988 103.4090012  37.7914997 137.8949988
 102.5960012  38.6984997 136.9959988 102.7808066  38.3800079 137.7835677
 103.0510012  40.1144997 139.9629988 102.9190012  39.6384997 139.1429988
 102.4520012  40.8584997 139.9079988 102.9519071  40.1499618 139.8432886
 102.5970012  56.9974997 123.1389988 103.5300012  57.1554997 123.2829988
 102.3330012  57.6724997 122.5149988 102.6889888  57.1104510 123.0742842
  96.1660012  51.6334997 122.6219988  97.0800012  51.7124997 122.8959988
  96.1730012  50.9464997 121.9559988  96.2921131  51.5513961 122.5694393
  94.8150012  57.0264997 127.6999988  94.1680012  56.5644997 127.1669988
  95.1690012  56.3544997 128.2819988  94.7743849  56.8724723 127.7057959
  95.6850012  55.1074997 129.5039988  95.3500012  54.2274997 129.6759988
  95.9070012  55.4524997 130.3689988  95.6691783  55.0337500 129.6444208
 113.2330012  55.9164997 132.4849988 113.2120012  56.1014997 133.4239988
 113.9240012  56.4854997 132.1439988 113.3234618  56.0186606 132.5673864
 112.7970012  55.4844997 135.4069988 112.3090012  54.7484997 135.0349988
 113.3460012  55.0904997 136.0849988 112.8044820  55.3305889 135.4477813
 111.2470012  51.2734997 140.0449988 110.3810012  51.1684997 140.4389988
 111.6240012  52.0324997 140.4909988 111.1793308  51.3616900 140.1592393
 112.5480012  49.5304997 125.5589988 113.3980012  49.9514997 125.6859988
 112.5540012  48.7904997 126.1659988 112.6651372  49.4880803 125.6584344
 112.9430012  47.5834997 127.3819988 112.2160012  47.1044997 127.7799988
 113.5240012  47.7894997 128.1149988 112.9220473  47.5458103 127.5354528
 112.7020012  50.3684997 132.3299988 113.5350012  49.9904997 132.0499988
 112.8140012  51.3114997 132.2109988 112.8312647  50.4442218 132.2755487
 111.1880012  53.2464997 134.6369988 110.5410012  53.5714997 135.2629988
 110.6710012  52.8064997 133.9629988 111.0294029  53.2315004 134.6315827
 113.2110012  47.4844997 123.7739988 112.6890012  47.8414997 123.0549988
 113.1780012  48.1594997 124.4519988 113.1351634  47.6245413 123.7673145
 111.5600012  44.7244997 122.3239988 111.6560012  45.3914997 121.6439988
 111.4200012  43.9084997 121.8429988 111.5542272  44.7055655 122.1658347
 110.7290012  46.1044997 127.9449988 110.5790012  45.1594997 127.9249988
 110.3760012  46.3854997 128.7889988 110.6607448  46.0131481 128.0563705
  95.7650012  48.1824997 131.9559988  95.9490012  48.1004997 131.0199988
  96.6140012  48.0584997 132.3789988  95.9050151  48.1545073 131.8851451
 111.5860012  48.0744997 137.5839988 112.1690012  47.3404997 137.7759988
 112.1500012  48.8464997 137.6309988 111.7419769  48.0784227 137.6166159
 113.0820012  45.9774997 138.2689988 112.2190012  45.5984997 138.1029988
 113.6870012  45.2384997 138.1939988 113.0456119  45.8258268 138.2361528
 110.8070012  42.1324997 121.4419988 111.4180012  41.7614997 122.0789988
 109.9710012  41.7114997 121.6379988 110.7775032  42.0247554 121.5557035
 110.4400012  43.6874997 126.4079988 110.7200012  42.7804997 126.5319988
 111.1990012  44.1214997 126.0189988 110.5809277  43.6220942 126.3723682
 111.0520012  44.2684997 131.8439988 111.9850012  44.4804997 131.8089988
 110.8170012  44.3704997 132.7659988 111.1479244  44.3113100 131.9638892
 111.0810012  45.0054997 134.6199988 110.2380012  45.2734997 134.9859988
 111.5230012  45.8274997 134.4089988 111.0254158  45.1533291 134.6415491
  95.3620012  43.4534997 138.0969988  96.2820012  43.3314997 138.3329988
  94.9130012  42.7034997 138.4859988  95.4271580  43.3353727 138.1819006
 113.3640012  38.9854997 139.9729988 113.7140012  38.3314997 139.3679988
 113.5110012  39.8224997 139.5329988 113.4317887  39.0091548 139.8306858
 111.0530012  40.9504997 126.4559988 111.2360012  40.5014997 127.2819988
 110.4540012  40.3654997 125.9929988 110.9970202  40.8099975 126.5063275
  96.5830012  41.7654997 130.9879988  97.0290012  40.9734997 131.2899988
  97.0500012  42.4814997 131.4179988  96.7070831  41.7540685 131.0874006
  94.8870012  44.7644997 132.0569988  95.3790012  44.5434997 131.2659988
  95.2500012  45.6054997 132.3379988  95.0033126  44.8478357 131.9867531
 112.8840012  41.0944997 138.3219988 111.9660012  41.3654997 138.2869988
 113.0070012  40.5594997 137.5379988 112.7749729  41.0592508 138.2111923
 112.9200012  41.0174997 122.9839988 113.3320012  40.2964997 122.5089988
 113.6020012  41.6874997 123.0429988 113.0685885  41.0092368 122.9268915
  95.2010012  41.0224997 126.1109988  94.2760012  41.2314997 125.9819988
  95.6550012  41.5064997 125.4209988  95.1357292  41.1165343 126.0000720
 109.9720012  56.0064997 128.0569988 110.6240012  55.6594997 127.4489988
 110.4820012  56.4954997 128.7029988 110.1302637  56.0250597 128.0610236
  95.1650012  39.7604997 134.4549988  94.5000012  39.5144997 135.0989988
  94.7220012  40.3824997 133.8779988  95.0141318  39.8109410 134.4650898
  97.3570012  52.9354997 138.5999988  96.5360012  53.1104997 138.1389988
  97.1040012  52.8624997 139.5199988  97.2105585  52.9495544 138.6613561
 100.3110012  53.9104997 134.8579988  99.8860012  54.7194997 134.5759988
 101.2150012  53.9954997 134.5559988 100.3749975  54.0329300 134.7784816
 104.6220012  55.3094997 137.8179988 104.8070012  54.9754997 138.6959988
 105.4680012  55.6184997 137.4959988 104.7617539  55.3056047 137.8945605
 106.9670012  56.5954997 137.0619988 107.6440012  55.9624997 136.8219988
 107.2890012  56.9964997 137.8689988 107.1031637  56.5631154 137.1382793
 111.8840012  39.1844997 136.1409988 111.0720012  39.5094997 135.7539988
 112.1170012  38.4244997 135.6079988 111.8042203  39.1262758 136.0158880
  97.7130012  57.1664997 134.9059988  96.9920012  57.6064997 134.4549988
  97.3470012  56.9154997 135.7539988  97.5649651  57.1927242 134.9589640
 100.1800012  56.7664997 133.9359988  99.3150012  56.8384997 134.3399988
 100.1250012  57.3134997 133.1519988 100.0542085  56.8502685 133.8853362
 104.8900012  56.6544997 133.1109988 104.4340012  57.1834997 132.4569988
 105.0530012  57.2574997 133.8359988 104.8496068  56.8084607 133.1194838
 107.2180012  55.5324997 134.0559988 106.3130012  55.6974997 133.7899988
 107.6470012  56.3854997 133.9909988 107.1521324  55.6704339 134.0107976
 109.8220012  57.1024997 134.3509988 109.6400012  58.0184997 134.1409988
 109.9990012  56.6924997 133.5049988 109.8210210  57.1724822 134.2077885
  97.1270012  55.7894997 131.8159988  97.1090012  55.3644997 132.6729988
  97.9320012  55.4714997 131.4069988  97.2333529  55.6883013 131.8780946
  99.2690012  54.4994997 130.4709988  99.0500012  53.5834997 130.6409988
 100.0930012  54.6394997 130.9369988  99.3504420  54.3930520 130.5572774
 101.8060012  54.9694997 131.3199988 102.0190012  54.0814997 131.0329988
 101.8700012  54.9354997 132.2739988 101.8438232  54.8433102 131.4097397
 105.3140012  40.6334997 130.4639988 104.6400012  40.0044997 130.7199988
 105.8780012  40.1494997 129.8609988 105.2979230  40.4818744 130.4175340
 110.4570012  38.7414997 130.5769988 111.0610012  39.2884997 130.0749988
 109.5870012  39.0604997 130.3359988 110.4221208  38.8595137 130.4756886
 112.1840012  39.8794997 128.9099988 112.7960012  39.3654997 128.3829988
 112.5660012  40.7574997 128.9329988 112.3193371  39.9277866 128.8410041
  97.6410012  39.2674997 128.2859988  96.8640012  39.0334997 127.7789988
  98.1710012  38.4704997 128.2949988  97.6062330  39.1276988 128.2177742
  96.4770012  39.0654997 124.0899988  96.9160012  39.6764997 123.4979988
  95.8440012  39.6034997 124.5639988  96.4514514  39.2219257 124.0730930
 102.2200012  39.1944997 128.0999988 103.0950012  39.5824997 128.0699988
 102.0840012  38.9794997 129.0219988 102.3213695  39.2185184 128.2206440
 107.7770012  39.2244997 129.7489988 107.8530012  39.3194997 128.7989988
 107.5020012  38.3164997 129.8779988 107.7502321  39.1147867 129.6365079
 109.1300012  39.2504997 125.4409988 108.4280012  39.8654997 125.2309988
 108.6860012  38.4124997 125.5719988 108.9736450  39.2215639 125.4299000
  96.3780012  55.0134997 124.9869988  95.6930012  54.9754997 124.3199988
  96.3820012  55.9264997 125.2759988  96.2846998  55.1316733 124.9346771
  98.3380012  40.9814997 122.5319988  98.8300012  40.3514997 122.0049988
  98.9620012  41.2774997 123.1949988  98.4895688  40.9353804 122.5495482
 103.3640012  41.2744997 124.9889988 103.5420012  40.6284997 125.6719988
 103.3110012  42.1084997 125.4559988 103.3811999  41.2988009 125.1455917
 105.2430012  56.2234997 123.3849988 106.1090012  56.5894997 123.2069988
 104.9960012  55.7834997 122.5709988 105.3282392  56.2141756 123.2506289
 111.9520012  55.7864997 126.0639988 111.7570012  55.0384997 125.4989988
 111.9130012  56.5444997 125.4809988 111.9200380  55.7866099 125.9078384
  97.5990012  39.7814997 137.8039988  97.2330012  39.0164997 138.2459988
  98.5120012  39.8104997 138.0899988  97.6722736  39.6805640 137.9032502
  99.5720012  39.1324997 139.3399988 100.4700012  38.8584997 139.1549988
  99.1850012  38.3894997 139.8039988  99.6426612  38.9945914 139.3773643
  98.1960012  55.9334997 122.0129988  97.9290012  56.2204997 122.8859988
  98.9680012  55.3874997 122.1649988  98.2637488  55.8990294 122.1531050
 107.9930012  38.4644997 139.5219988 108.0700012  38.0384997 140.3759988
 108.8870012  38.4784997 139.1789988 108.1243428  38.4080879 139.5925310
 111.1690012  54.5374997 138.2139988 110.3870012  54.3514997 137.6939988
 111.0970012  55.4664997 138.4319988 111.0522274  54.6376643 138.1723018
 125.5750012  48.4234997 128.2449988 125.6640012  49.3674997 128.1129988
 124.9370012  48.1484997 127.5869988 125.5009081  48.5154830 128.1379614
 124.5080012  47.6784997 131.6639988 124.4700012  47.0324997 132.3689988
 124.1860012  47.2124997 130.8929988 124.4592333  47.5269408 131.6562978
 116.8770012  47.2934997 133.2569988 116.9180012  46.6674997 133.9799988
 117.5800012  47.9174997 133.4389988 116.9776363  47.2921196 133.3806044
 128.2140012  50.6174997 129.9649988 127.7740012  49.8974997 130.4159988
 128.2010012  51.3384997 130.5949988 128.1520226  50.6163731 130.1118494
 117.8000012  51.7434997 131.7919988 117.4310012  50.9414997 131.4219988
 118.7410012  51.5744997 131.8379988 117.8767289  51.6110153 131.7476316
 114.4100012  45.4034997 127.1849988 113.9630012  46.2494997 127.1659988
 113.8490012  44.8234997 126.6689988 114.2729900  45.4409916 127.1126801
 115.1210012  47.5654997 129.3099988 115.3340012  46.7954997 129.8379988
 115.8590012  47.6544997 128.7069988 115.2499044  47.4721968 129.3007123
 125.3260012  55.7224997 130.1769988 125.9460012  55.0454997 129.9039988
 125.1180012  55.5044997 131.0859988 125.3826726  55.6004800 130.2624812
 122.8980012  50.1114997 132.0699988 123.2020012  49.4254997 131.4749988
 123.6190012  50.2294997 132.6879988 123.0370671  50.0336305 132.0721816
 131.5610012  41.7124997 132.9309988 131.6100012  42.3224997 133.6659988
 131.9860012  42.1734997 132.2079988 131.6251746  41.8583796 132.9339175
 126.0390012  44.5054997 132.3969988 126.1810012  43.5594997 132.4179988
 125.9320012  44.7124997 131.4689988 126.0439919  44.4038246 132.2743408
 119.1930012  42.6064997 129.6699988 119.2370012  43.4664997 129.2509988
 118.7360012  42.0544997 129.0359988 119.1372240  42.6494422 129.5269864
 126.9160012  42.7374997 128.0709988 127.5620012  42.4084997 128.6949988
 127.4260012  43.2554997 127.4479988 127.0734299  42.7624450 128.0722731
 115.8140012  45.0034997 130.4319988 116.4670012  44.4534997 130.8639988
 115.8380012  44.7294997 129.5149988 115.9066683  44.8911466 130.3672123
 120.9700012  46.5534997 129.6469988 121.5860012  46.0274997 130.1569988
 120.3840012  45.9134997 129.2439988 120.9750810  46.3949208 129.6623173
 131.9520012  43.1904997 135.1659988 131.2640012  43.8484997 135.0709988
 131.9680012  42.9934997 136.1029988 131.8599540  43.2539819 135.2795990
 118.0040012  41.5244997 133.7439988 117.7850012  42.0544997 132.9779988
 117.3360012  41.7514997 134.3909988 117.8837600  41.6276906 133.7266379
 125.3730012  51.0244997 127.2879988 125.0770012  50.7024997 126.4369988
 125.0480012  51.9244997 127.3289988 125.2886371  51.1020215 127.1771801
 120.5730012  49.2004997 134.0309988 119.8330012  49.7984997 134.1349988
 121.2870012  49.7544997 133.7159988 120.5682237  49.3572831 134.0026465
 128.6800012  42.0284997 130.0509988 128.4640012  41.2624997 130.5839988
 129.3350012  42.5004997 130.5639988 128.7390632  41.9875889 130.1932861
 117.5970012  43.4164997 131.6959988 118.2110012  44.0494997 132.0689988
 118.1090012  42.9444997 131.0399988 117.7501981  43.4392267 131.6582908
 118.9800012  51.1644997 134.8179988 118.9750012  52.0444997 134.4399988
 118.1270012  51.0814997 135.2429988 118.8639464  51.2736117 134.8237907
 115.1010012  50.8354997 125.5999988 114.8290012  51.0644997 124.7119988
 115.1470012  51.6734997 126.0609988 115.0699482  50.9801318 125.5406273
 128.7260012  52.4574997 132.3129988 127.7850012  52.5154997 132.4749988
 129.0030012  53.3634997 132.1759988 128.6344679  52.5879443 132.3166815
 129.0270012  40.7434997 133.7309988 128.2910012  41.3544997 133.6929988
 129.7100012  41.1584997 133.2039988 129.0186541  40.8831374 133.6545832
 122.0300012  38.8304997 131.1959988 121.9130012  37.8814997 131.1419988
 121.1750012  39.1624997 131.4699988 121.8984212  38.7455571 131.2256497
 126.9780012  54.2384997 128.9379988 127.4040012  53.5314997 128.4529988
 127.2950012  55.0394997 128.5219988 127.0791683  54.2501017 128.8153680
 128.1380012  52.1394997 127.4469988 127.8800012  51.4494997 126.8359988
 128.2090012  51.6964997 128.2929988 128.1122856  51.9852124 127.4776885
 129.8240012  50.7054997 135.9239988 129.9640012  50.1144997 135.1849988
 129.9910012  51.5784997 135.5679988 129.8657411  50.7425428 135.7746894
 124.2970012  47.6674997 125.6969988 123.5850012  48.2024997 125.3449988
 124.9880012  47.7234997 125.0369988 124.2930132  47.7482543 125.5596289
 124.3500012  46.1254997 122.7359988 125.0510012  46.1474997 123.3869988
 124.6530012  45.4974997 122.0789988 124.4868133  46.0437070 122.7363369
 131.6660012  47.0454997 133.9899988 131.0130012  47.7404997 134.0799988
 132.1310012  47.2554997 133.1809988 131.6395274  47.1690643 133.8928462
 127.7020012  47.8774997 126.6489988 126.9700012  48.1054997 127.2219988
 128.1500012  47.1634997 127.1029988 127.6622725  47.8122145 126.7888816
 127.6000012  46.0514997 135.7159988 127.6800012  46.8144997 136.2879988
 126.9980012  46.3304997 135.0259988 127.5295756  46.1937134 135.7010589
 119.3480012  48.5074997 128.5309988 119.0170012  48.1374997 127.7129988
 119.9360012  47.8374997 128.8779988 119.3821873  48.3661156 128.4658102
 120.7140012  51.9354997 131.2119988 120.6200012  51.3574997 130.4559988
 121.4440012  51.5644997 131.7089988 120.7997387  51.8061663 131.1755342
 119.7140012  47.2764997 132.1649988 120.2800012  47.3974997 131.4019988
 120.0330012  47.9134997 132.8029988 119.8345474  47.3792219 132.1469862
 126.0230012  52.7794997 132.8989988 125.7830012  53.4414997 133.5469988
 125.8250012  51.9454997 133.3239988 125.9633808  52.7573134 133.0451524
 120.5940012  51.6754997 136.8819988 120.2830012  52.4574997 137.3369988
 119.9440012  51.5224997 136.1959988 120.4635558  51.7619105 136.8515871
 126.5730012  47.0394997 124.3339988 127.1530012  47.1894997 125.0809988
 126.9870012  47.5104997 123.6099988 126.7082997  47.1236578 124.3384058
 117.5140012  47.8734997 136.1099988 117.5850012  48.5244997 136.8089988
 116.6240012  47.9764997 135.7749988 117.4033005  47.9765427 136.1603495
 124.3000012  53.7764997 127.7689988 124.7740012  54.0714997 128.5459988
 123.7370012  54.5144997 127.5359988 124.2888184  53.9167247 127.8439628
 118.8340012  53.7474997 137.6449988 118.8410012  53.6114997 136.6979988
 117.9180012  53.6294997 137.8969988 118.7111714  53.7129430 137.5494666
 130.2720012  38.7894997 124.1469988 129.3720012  38.9284997 124.4419988
 130.5240012  39.6204997 123.7449988 130.1828702  38.9209074 124.1330205
 118.3380012  47.5774997 126.1199988 118.0460012  48.3454997 125.6299988
 117.6640012  46.9174997 125.9579988 118.2068111  47.5935587 126.0308978
 131.4610012  53.1554997 122.5229988 131.5350012  54.0944997 122.6939988
 132.3670012  52.8504997 122.4669988 131.5935100  53.2426722 122.5388119
 114.4310012  49.9404997 134.9349988 113.9300012  49.9124997 134.1199988
 114.4360012  49.0344997 135.2449988 114.3630944  49.8142396 134.8653226
 114.1810012  52.7204997 131.8189988 115.1270012  52.5764997 131.7999988
 114.0690012  53.5044997 132.3559988 114.2952727  52.8068046 131.8890072
 132.3790012  53.3864997 137.5019988 132.3300012  52.4314997 137.4649988
 131.5520012  53.6544997 137.9029988 132.2604940  53.2918998 137.5511375
 123.3580012  52.9604997 136.3779988 123.4450012  53.7864997 136.8529988
 122.4940012  52.6304997 136.6269988 123.2531964  53.0289878 136.4766549
 123.7720012  56.7324997 126.1839988 123.6970012  56.6114997 125.2369988
 123.8050012  57.6824997 126.3019988 123.7662068  56.8442646 126.0704967
 117.4250012  55.5214997 127.9649988 117.5780012  55.1734997 128.8429988
 116.5750012  55.1654997 127.7099988 117.3309166  55.4256216 128.0508079
 126.8740012  55.8864997 123.1859988 127.2490012  55.1424997 122.7149988
 126.8780012  55.6164997 124.1049988 126.9259125  55.7480986 123.2456483
 126.5430012  55.8124997 125.9349988 125.6070012  55.9124997 126.1139988
 126.8230012  55.1034997 126.5139988 126.4529553  55.7303406 126.0377087
 129.5310012  44.8794997 137.9819988 129.1240012  45.3604997 137.2609988
 129.5720012  43.9744997 137.6739988 129.4808437  44.8229374 137.8416683
 116.6800012  51.2634997 135.9789988 116.8960012  50.9024997 136.8379988
 115.8250012  50.8894997 135.7689988 116.5939292  51.1634111 136.0683386
 119.2990012  39.7334997 131.9739988 118.4370012  39.6464997 131.5659988
 119.2760012  40.5894997 132.4019988 119.1780409  39.8372883 131.9760589
 123.9620012  39.4554997 135.3489988 124.3820012  39.0404997 136.1019988
 123.0290012  39.2774997 135.4659988 123.8933644  39.3745900 135.4679539
 127.2880012  43.2114997 136.2019988 126.7740012  43.0854997 136.9999988
 127.1330012  44.1234997 135.9579988 127.1966852  43.3176132 136.2782158
 128.0510012  48.0724997 121.9639988 128.0930012  47.8494997 121.0339988
 128.9000012  48.4714997 122.1529988 128.1715280  48.0959438 121.8623554
 123.6230012  41.9484997 122.6339988 123.3700012  41.9674997 123.5569988
 123.3670012  41.0764997 122.3319988 123.5537481  41.8332558 122.7196175
 119.3900012  44.6994997 133.0689988 118.7480012  44.6584997 133.7779988
 119.4270012  45.6254997 132.8309988 119.3070664  44.8191430 133.1339219
 119.3870012  44.9204997 127.9809988 118.4940012  44.5794997 127.9219988
 119.8370012  44.5434997 127.2249988 119.3258130  44.8229631 127.8707702
 124.9220012  45.3364997 126.7979988 124.5130012  46.1514997 126.5069988
 125.6430012  45.1964997 126.1839988 124.9634537  45.4292018 126.6751342
 124.0240012  45.5114997 138.2859988 123.4620012  44.8074997 138.6069988
 124.8510012  45.3914997 138.7539988 124.0587095  45.3987883 138.3932330
 125.9270012  44.7824997 129.6119988 125.7320012  45.3874997 128.8969988
 126.1080012  43.9484997 129.1779988 125.9247614  44.7526300 129.4554405
 117.1400012  45.0194997 134.9359988 117.1020012  45.4194997 135.8049988
 116.6490012  44.2024997 135.0269988 117.0684684  44.9638069 135.0671059
 120.5060012  42.3934997 121.7349988 120.0750012  41.9484997 122.4649988
 119.7880012  42.7654997 121.2229988 120.3499438  42.3828940 121.7656799
 113.7480012  42.1354997 128.7869988 114.3790012  42.1064997 129.5059988
 114.1970012  41.7104997 128.0559988 113.8950918  42.0740836 128.7866441
 115.0220012  42.8814997 124.2109988 115.4960012  43.4724997 123.6259988
 114.3050012  43.4124997 124.5579988 114.9899341  43.0340867 124.1778836
 125.1910012  46.4204997 134.2829988 125.5140012  45.7894997 133.6399988
 124.7510012  45.8854997 134.9439988 125.1757484  46.2618387 134.2843198
 121.9680012  42.3474997 129.0669988 121.0570012  42.4044997 129.3559988
 122.4740012  42.2874997 129.8779988 121.9116899  42.3471941 129.2161184
 116.7970012  43.9764997 127.8939988 115.9070012  44.0764997 127.5539988
 117.0930012  43.1344997 127.5479988 116.7152823  43.8763545 127.8007213
 120.4500012  43.9764997 125.5509988 121.3810012  44.1054997 125.7289988
 120.2350012  44.6464997 124.9009988 120.5484247  44.0846565 125.4875747
 126.3730012  41.5824997 132.3319988 125.6970012  41.7134997 132.9959988
 125.8880012  41.4274997 131.5209988 126.2147146  41.5795157 132.3134469
 119.1240012  45.1714997 123.1169988 118.5810012  44.7914997 122.4259988
 119.9570012  45.3654997 122.6889988 119.1623631  45.1457125 122.9644501
 129.6610012  57.2544997 138.6079988 129.8610012  57.6784997 137.7739988
 130.3160012  57.5974997 139.2149988 129.7770072  57.3589857 138.5758592
 117.2590012  49.7284997 138.2159988 117.9910012  49.9824997 138.7779988
 116.4790012  49.9324997 138.7319988 117.2537073  49.7908160 138.3626151
 123.2880012  45.1354997 130.9539988 123.8530012  44.5884997 130.4069988
 123.1410012  44.6134997 131.7429988 123.3453380  44.9902259 130.9858695
 118.2900012  41.2714997 127.3729988 117.9730012  40.3694997 127.3369988
 119.0720012  41.2734997 126.8199988 118.3522408  41.1482474 127.2933569
 121.9150012  43.5234997 133.3679988 121.0790012  43.9774997 133.4789988
 122.4390012  43.7994997 134.1199988 121.8715416  43.6228660 133.4848119
 122.4590012  49.7364997 125.0529988 121.7140012  49.2294997 124.7309988
 122.3250012  49.7854997 125.9999988 122.3388776  49.6736940 125.1368647
 129.6090012  48.8694997 133.8399988 130.2510012  49.3264997 133.2959988
 128.7790012  48.9824997 133.3769988 129.5845963  48.9472704 133.7030177
 126.3570012  42.5504997 123.2519988 125.4180012  42.6624997 123.1009988
 126.6540012  43.4074997 123.5589988 126.2687583  42.6815981 123.2728337
 123.9780012  49.9204997 136.2899988 123.6330012  49.5394997 137.0969988
 123.7780012  50.8544997 136.3609988 123.9037527  49.9945135 136.4100689
 127.0750012  44.4174997 124.9129988 127.9670012  44.2804997 125.2319988
 127.1320012  45.2084997 124.3759988 127.2046504  44.5056052 124.8840818
 117.5840012  49.0314997 130.8229988 118.3290012  49.0294997 130.2219988
 117.6620012  48.2084997 131.3039988 117.6964995  48.9198887 130.8058282
 124.5850012  51.1954997 124.0789988 124.2890012  52.0214997 124.4599988
 123.8820012  50.5754997 124.2749988 124.4494914  51.2248199 124.1576443
 114.5920012  47.4924997 136.1379988 114.8150012  47.0744997 136.9699988
 113.9900012  46.8794997 135.7149988 114.5411759  47.3524668 136.1947022
 121.6080012  47.0094997 138.3509988 121.3120012  46.8434997 137.4559988
 122.5400012  46.7894997 138.3399988 121.6934166  46.9570640 138.2270536
 126.2290012  52.3824997 136.2409988 125.3280012  52.5654997 135.9729988
 126.2630012  52.6414997 137.1609988 126.1103139  52.4425849 136.3288099
 131.9600012  44.6274997 124.6079988 131.4060012  44.2314997 123.9359988
 132.0600012  45.5374997 124.3299988 131.8977059  44.6963586 124.4784401
 131.9230012  50.4274997 137.4449988 131.0720012  50.6654997 137.0779988
 132.5140012  50.4104997 136.6919988 131.8862487  50.4578258 137.2928893
 130.2550012  53.4134997 125.0729988 129.8820012  52.5874997 125.3819988
 130.5330012  53.2304997 124.1749988 130.2415222  53.2757430 124.9939473
 127.4160012  48.2214997 132.0939988 126.4870012  47.9894997 132.0669988
 127.8670012  47.4444997 131.7639988 127.3499216  48.0847238 132.0456917
 119.9590012  52.5494997 128.2269988 120.4860012  53.3224997 128.0269988
 119.0790012  52.7744997 127.9249988 119.9122031  52.6857545 128.1587912
 115.7140012  47.4114997 122.8139988 116.3300012  48.0384997 123.1939988
 114.8520012  47.7274997 123.0859988 115.6817698  47.5399430 122.9027183
 121.3860012  50.2124997 127.8029988 121.1450012  51.1374997 127.8449988
 120.6450012  49.7534997 128.1999988 121.2529225  50.2770933 127.8623742
 121.9010012  54.3614997 134.1189988 122.2630012  55.2164997 133.8849988
 122.4320012  54.0694997 134.8589988 122.0224473  54.4391060 134.1870855
 120.0690012  55.2344997 127.3489988 119.1190012  55.3394997 127.3999988
 120.4210012  56.0544997 127.6929988 119.9864195  55.3598800 127.4025502
 125.4450012  50.4604997 133.8189988 125.0190012  50.2334997 134.6459988
 126.0250012  49.7224997 133.6369988 125.4651868  50.3295299 133.9075830
 127.6480012  51.3894997 122.8929988 128.0010012  51.0094997 123.6969988
 126.6990012  51.2964997 122.9799988 127.5680918  51.3248956 123.0148532
 128.1030012  55.0124997 136.2889988 127.5020012  54.4574997 135.7929988
 128.3850012  55.6794997 135.6619988 128.0588804  55.0266625 136.1364849
 132.1510012  55.8694997 123.0939988 132.8950012  56.4554997 122.9539988
 131.4570012  56.4374997 123.4269988 132.1589899  56.0265798 123.1198778
 116.2260012  42.2454997 135.6959988 115.3330012  42.5844997 135.6279988
 116.1270012  41.3904997 136.1139988 116.0904164  42.1762588 135.7432235
 128.5140012  50.0624997 125.1199988 128.2360012  49.3344997 125.6759988
 129.4410012  50.1814997 125.3249988 128.6013124  49.9788802 125.2238845
 115.8770012  54.0504997 134.1309988 116.0940012  53.1184997 134.0999988
 116.1230012  54.3244997 135.0139988 115.9399549  53.9600636 134.2461763
 121.7390012  52.5014997 121.3399988 121.9780012  51.7534997 120.7929988
 121.4700012  52.1134997 122.1729988 121.7353675  52.3466638 121.3776865
 120.6760012  52.0714997 123.7959988 120.8220012  51.5514997 124.5859988
 120.6730012  52.9784997 124.1029988 120.6955792  52.1228842 123.9456117
 117.1290012  49.3244997 124.3069988 116.4430012  49.6764997 124.8739988
 117.6510012  50.0874997 124.0599988 117.1056852  49.4758578 124.3512118
 124.9600012  41.9864997 134.5859988 125.6590012  42.0604997 135.2359988
 124.5790012  41.1224997 134.7399988 125.0041767  41.8797624 134.6958322
 125.7450012  41.6384997 125.6829988 125.9650012  42.1104997 124.8799988
 126.3030012  42.0334997 126.3529988 125.8504968  41.7564285 125.6637331
 123.4130012  53.7694997 124.5459988 122.5970012  54.2664997 124.5979988
 123.9430012  54.2444997 123.9059988 123.3729161  53.9017722 124.4665956
 122.9450012  43.3664997 126.5179988 123.7570012  43.8714997 126.5639988
 122.7000012  43.2214997 127.4319988 123.0230520  43.4160375 126.6478517
 123.4800012  44.3524997 135.7019988 123.5990012  44.9264997 136.4599988
 124.1360012  43.6644997 135.8169988 123.5849025  44.3379858 135.8211321
 123.8280012  40.4474997 127.4559988 123.4820012  41.0654997 128.0999988
 124.4870012  40.9484997 126.9739988 123.8696968  40.5996278 127.4789383
 120.7520012  54.8134997 124.5269988 120.9120012  55.6124997 124.0269988
 120.5540012  55.1194997 125.4119988 120.7471637  54.9644020 124.5781144
 119.4860012  41.5104997 124.1429988 119.4030012  42.3994997 124.4899988
 120.3760012  41.2454997 124.3749988 119.5949469  41.5961430 124.2217626
 129.6850012  42.2594997 136.5369988 128.7680012  42.5224997 136.4499988
 130.0200012  42.2564997 135.6409988 129.6048613  42.2950761 136.4038837
 128.2870012  46.0104997 130.6329988 127.4890012  45.5954997 130.3049988
 128.7320012  45.3194997 131.1239988 128.2379885  45.8603543 130.6544889
 117.7450012  51.9384997 123.2039988 118.3370012  52.6374997 123.4799988
 118.2040012  51.5054997 122.4839988 117.8881142  51.9757049 123.1444830
 116.0610012  44.6024997 122.3199988 116.0160012  45.5414997 122.4979988
 115.1730012  44.3664997 122.0499988 115.9348574  44.6991892 122.3078912
 129.3730012  55.2664997 132.2559988 129.2180012  55.9444997 131.5979988
 130.3060012  55.3384997 132.4589988 129.4778657  55.3689546 132.1934360
 116.8690012  39.3844997 130.9929988 116.6400012  39.4434997 130.0649988
 116.4260012  38.5924997 131.2989988 116.7778530  39.2855753 130.9074786
 115.7990012  53.3244997 127.1529988 114.9670012  53.7974997 127.1799988
 116.3450012  53.8344997 126.5549988 115.7590352  53.4581332 127.0758463
 115.0870012  55.9374997 138.4829988 115.6280012  55.7204997 139.2429988
 114.6060012  55.1314997 138.2929988 115.0959951  55.7989270 138.5612576
 119.6850012  54.8564997 140.1029988 120.4520012  54.3974997 140.4439988
 119.6630012  54.6304997 139.1739988 119.7871275  54.7630186 140.0240101
 123.7770012  54.3644997 121.4789988 123.1330012  53.7334997 121.7999988
 124.5390012  53.8334997 121.2469988 123.7918077  54.2062920 121.4916011
 126.2620012  53.2364997 138.8329988 125.9110012  52.3804997 139.0759988
 126.9880012  53.3794997 139.4399988 126.3120769  53.1385636 138.9483619
 128.3810012  54.1814997 121.7119988 128.6640012  53.3874997 122.1649988
 129.1210012  54.4144997 121.1519988 128.5198006  54.1043376 121.6982715
 114.9940012  49.7474997 139.4369988 115.1380012  48.8454997 139.1509988
 114.2220012  50.0334997 138.9499988 114.9092753  49.6626816 139.3319505
 119.3360012  50.0914997 121.5699988 119.4000012  49.2974997 122.1009988
 119.9890012  49.9724997 120.8799988 119.4330241  49.9667148 121.5494317
 121.6500012  49.7174997 138.8699988 121.3210012  49.9884997 138.0129988
 121.8020012  48.7764997 138.7829988 121.6254809  49.6273862 138.7408244
 124.6880012  51.1384997 121.3059988 124.4190012  51.3184997 122.2069988
 124.4820012  50.2124997 121.1739988 124.6233427  51.0380261 121.4115073
 127.3840012  49.6334997 136.2529988 128.1300012  50.2214997 136.1339988
 126.6270012  50.2154997 136.3169988 127.3837820  49.7927143 136.2453590
 115.8270012  46.9474997 138.8569988 116.2350012  46.0904997 138.7359988
 115.5670012  46.9624997 139.7779988 115.8477568  46.8320807 138.9649588
 120.4850012  48.0634997 123.8759988 120.0250012  47.5794997 124.5619988
 120.7400012  47.3954997 123.2399988 120.4564902  47.9068731 123.8839334
 119.7740012  45.9564997 136.2319988 119.1560012  46.6314997 136.5119988
 120.1180012  46.2774997 135.3979988 119.7359132  46.0922411 136.1576262
 121.5560012  46.3064997 122.1379988 121.3760012  46.1524997 121.2109988
 122.5060012  46.4144997 122.1829988 121.6597776  46.3000175 122.0171843
 124.7940012  48.4284997 139.5089988 125.7470012  48.5114997 139.4819988
 124.6330012  47.7164997 140.1289988 124.9026426  48.3436746 139.5890579
 130.9460012  48.6614997 121.5839988 130.6720012  48.2364997 120.7709988
 130.9850012  49.5924997 121.3669988 130.9137699  48.7292484 121.4433610
 120.1130012  43.3114997 137.3139988 120.2630012  42.5824997 136.7119988
 120.1160012  44.0884997 136.7549988 120.1339302  43.3167851 137.1560692
 120.5260012  41.6814997 134.8069988 121.0620012  42.1324997 134.1549988
 119.6740012  41.5734997 134.3839988 120.4842178  41.7286390 134.6605756
 122.1080012  47.1204997 135.0459988 122.8580012  46.9644997 134.4729988
 121.7690012  47.9724997 134.7709988 122.1648921  47.2142968 134.9303561
 126.5230012  44.9354997 140.0749988 126.7160012  44.0044997 139.9629988
 127.3810012  45.3604997 140.0639988 126.6652934  44.8656531 140.0582031
 127.8400012  47.7244997 138.1519988 127.5590012  48.4334997 137.5739988
 128.7830012  47.6514997 138.0009988 127.9289291  47.8116711 138.0524967
 118.5920012  44.5094997 139.2259988 117.8250012  43.9774997 139.0149988
 119.2710012  44.1994997 138.6259988 118.5787877  44.3948300 139.1160716
 121.3320012  39.1374997 135.2379988 121.2330012  40.0844997 135.1329988
 120.5890012  38.7654997 134.7619988 121.2181184  39.2165863 135.1593621
 122.5960012  43.4594997 138.8019988 122.3600012  43.2394997 139.7029988
 121.8120012  43.2524997 138.2919988 122.4578504  43.4014586 138.8563431
 125.3110012  42.5864997 137.8769988 124.3640012  42.6184997 138.0099988
 125.6240012  41.9614997 138.5309988 125.2236707  42.5063998 137.9836060
 126.9450012  41.2204997 139.8829988 126.8490012  40.2684997 139.8769988
 126.6240012  41.4894997 140.7429988 126.8884070  41.1264035 139.9985441
 116.7720012  42.4304997 138.9299988 116.9840012  41.7234997 138.3199988
 116.6610012  41.9924997 139.7739988 116.7859721  42.2747084 138.9606843
 121.5530012  38.4314997 137.9089988 122.2650012  37.7914997 137.8949988
 121.4520012  38.6984997 136.9959988 121.6368066  38.3800079 137.7835677
 121.9070012  40.1144997 139.9629988 121.7750012  39.6384997 139.1429988
 121.3080012  40.8584997 139.9079988 121.8079071  40.1499618 139.8432886
 121.4530012  56.9974997 123.1389988 122.3860012  57.1554997 123.2829988
 121.1890012  57.6724997 122.5149988 121.5449888  57.1104510 123.0742842
 115.0220012  51.6334997 122.6219988 115.9360012  51.7124997 122.8959988
 115.0290012  50.9464997 121.9559988 115.1481131  51.5513961 122.5694393
 113.6710012  57.0264997 127.6999988 113.0240012  56.5644997 127.1669988
 114.0250012  56.3544997 128.2819988 113.6303849  56.8724723 127.7057959
 114.5410012  55.1074997 129.5039988 114.2060012  54.2274997 129.6759988
 114.7630012  55.4524997 130.3689988 114.5251783  55.0337500 129.6444208
 132.0890012  55.9164997 132.4849988 132.0680012  56.1014997 133.4239988
 132.7800012  56.4854997 132.1439988 132.1794618  56.0186606 132.5673864
 131.6530012  55.4844997 135.4069988 131.1650012  54.7484997 135.0349988
 132.2020012  55.0904997 136.0849988 131.6604820  55.3305889 135.4477813
 130.1030012  51.2734997 140.0449988 129.2370012  51.1684997 140.4389988
 130.4800012  52.0324997 140.4909988 130.0353308  51.3616900 140.1592393
 131.4040012  49.5304997 125.5589988 132.2540012  49.9514997 125.6859988
 131.4100012  48.7904997 126.1659988 131.5211372  49.4880803 125.6584344
 131.7990012  47.5834997 127.3819988 131.0720012  47.1044997 127.7799988
 132.3800012  47.7894997 128.1149988 131.7780473  47.5458103 127.5354528
 131.5580012  50.3684997 132.3299988 132.3910012  49.9904997 132.0499988
 131.6700012  51.3114997 132.2109988 131.6872647  50.4442218 132.2755487
 130.0440012  53.2464997 134.6369988 129.3970012  53.5714997 135.2629988
 129.5270012  52.8064997 133.9629988 129.8854029  53.2315004 134.6315827
 132.0670012  47.4844997 123.7739988 131.5450012  47.8414997 123.0549988
 132.0340012  48.1594997 124.4519988 131.9911634  47.6245413 123.7673145
 130.4160012  44.7244997 122.3239988 130.5120012  45.3914997 121.6439988
 130.2760012  43.9084997 121.8429988 130.4102272  44.7055655 122.1658347
 129.5850012  46.1044997 127.9449988 129.4350012  45.1594997 127.9249988
 129.2320012  46.3854997 128.7889988 129.5167448  46.0131481 128.0563705
 114.6210012  48.1824997 131.9559988 114.8050012  48.1004997 131.0199988
 115.4700012  48.0584997 132.3789988 114.7610151  48.1545073 131.8851451
 130.4420012  48.0744997 137.5839988 131.0250012  47.3404997 137.7759988
 131.0060012  48.8464997 137.6309988 130.5979769  48.0784227 137.6166159
 131.9380012  45.9774997 138.2689988 131.0750012  45.5984997 138.1029988
 132.5430012  45.2384997 138.1939988 131.9016119  45.8258268 138.2361528
 129.6630012  42.1324997 121.4419988 130.2740012  41.7614997 122.0789988
 128.8270012  41.7114997 121.6379988 129.6335032  42.0247554 121.5557035
 129.2960012  43.6874997 126.4079988 129.5760012  42.7804997 126.5319988
 130.0550012  44.1214997 126.0189988 129.4369277  43.6220942 126.3723682
 129.9080012  44.2684997 131.8439988 130.8410012  44.4804997 131.8089988
 129.6730012  44.3704997 132.7659988 130.0039244  44.3113100 131.9638892
 129.9370012  45.0054997 134.6199988 129.0940012  45.2734997 134.9859988
 130.3790012  45.8274997 134.4089988 129.8814158  45.1533291 134.6415491
 114.2180012  43.4534997 138.0969988 115.1380012  43.3314997 138.3329988
 113.7690012  42.7034997 138.4859988 114.2831580  43.3353727 138.1819006
 132.2200012  38.9854997 139.9729988 132.5700012  38.3314997 139.3679988
 132.3670012  39.8224997 139.5329988 132.2877887  39.0091548 139.8306858
 129.9090012  40.9504997 126.4559988 130.0920012  40.5014997 127.2819988
 129.3100012  40.3654997 125.9929988 129.8530202  40.8099975 126.5063275
 115.4390012  41.7654997 130.9879988 115.8850012  40.9734997 131.2899988
 115.9060012  42.4814997 131.4179988 115.5630831  41.7540685 131.0874006
 113.7430012  44.7644997 132.0569988 114.2350012  44.5434997 131.2659988
 114.1060012  45.6054997 132.3379988 113.8593126  44.8478357 131.9867531
 131.7400012  41.0944997 138.3219988 130.8220012  41.3654997 138.2869988
 131.8630012  40.5594997 137.5379988 131.6309729  41.0592508 138.2111923
 131.7760012  41.0174997 122.9839988 132.1880012  40.2964997 122.5089988
 132.4580012  41.6874997 123.0429988 131.9245885  41.0092368 122.9268915
 114.0570012  41.0224997 126.1109988 113.1320012  41.2314997 125.9819988
 114.5110012  41.5064997 125.4209988 113.9917292  41.1165343 126.0000720
 128.8280012  56.0064997 128.0569988 129.4800012  55.6594997 127.4489988
 129.3380012  56.4954997 128.7029988 128.9862637  56.0250597 128.0610236
 114.0210012  39.7604997 134.4549988 113.3560012  39.5144997 135.0989988
 113.5780012  40.3824997 133.8779988 113.8701318  39.8109410 134.4650898
 116.2130012  52.9354997 138.5999988 115.3920012  53.1104997 138.1389988
 115.9600012  52.8624997 139.5199988 116.0665585  52.9495544 138.6613561
 119.1670012  53.9104997 134.8579988 118.7420012  54.7194997 134.5759988
 120.0710012  53.9954997 134.5559988 119.2309975  54.0329300 134.7784816
 123.4780012  55.3094997 137.8179988 123.6630012  54.9754997 138.6959988
 124.3240012  55.6184997 137.4959988 123.6177539  55.3056047 137.8945605
 125.8230012  56.5954997 137.0619988 126.5000012  55.9624997 136.8219988
 126.1450012  56.9964997 137.8689988 125.9591637  56.5631154 137.1382793
 130.7400012  39.1844997 136.1409988 129.9280012  39.5094997 135.7539988
 130.9730012  38.4244997 135.6079988 130.6602203  39.1262758 136.0158880
 116.5690012  57.1664997 134.9059988 115.8480012  57.6064997 134.4549988
 116.2030012  56.9154997 135.7539988 116.4209651  57.1927242 134.9589640
 119.0360012  56.7664997 133.9359988 118.1710012  56.8384997 134.3399988
 118.9810012  57.3134997 133.1519988 118.9102085  56.8502685 133.8853362
 123.7460012  56.6544997 133.1109988 123.2900012  57.1834997 132.4569988
 123.9090012  57.2574997 133.8359988 123.7056068  56.8084607 133.1194838
 126.0740012  55.5324997 134.0559988 125.1690012  55.6974997 133.7899988
 126.5030012  56.3854997 133.9909988 126.0081324  55.6704339 134.0107976
 128.6780012  57.1024997 134.3509988 128.4960012  58.0184997 134.1409988
 128.8550012  56.6924997 133.5049988 128.6770210  57.1724822 134.2077885
 115.9830012  55.7894997 131.8159988 115.9650012  55.3644997 132.6729988
 116.7880012  55.4714997 131.4069988 116.0893529  55.6883013 131.8780946
 118.1250012  54.4994997 130.4709988 117.9060012  53.5834997 130.6409988
 118.9490012  54.6394997 130.9369988 118.2064420  54.3930520 130.5572774
 120.6620012  54.9694997 131.3199988 120.8750012  54.0814997 131.0329988
 120.7260012  54.9354997 132.2739988 120.6998232  54.8433102 131.4097397
 124.1700012  40.6334997 130.4639988 123.4960012  40.0044997 130.7199988
 124.7340012  40.1494997 129.8609988 124.1539230  40.4818744 130.4175340
 129.3130012  38.7414997 130.5769988 129.9170012  39.2884997 130.0749988
 128.4430012  39.0604997 130.3359988 129.2781208  38.8595137 130.4756886
 131.0400012  39.8794997 128.9099988 131.6520012  39.3654997 128.3829988
 131.4220012  40.7574997 128.9329988 131.1753371  39.9277866 128.8410041
 116.4970012  39.2674997 128.2859988 115.7200012  39.0334997 127.7789988
 117.0270012  38.4704997 128.2949988 116.4622330  39.1276988 128.2177742
 115.3330012  39.0654997 124.0899988 115.7720012  39.6764997 123.4979988
 114.7000012  39.6034997 124.5639988 115.3074514  39.2219257 124.0730930
 121.0760012  39.1944997 128.0999988 121.9510012  39.5824997 128.0699988
 120.9400012  38.9794997 129.0219988 121.1773695  39.2185184 128.2206440
 126.6330012  39.2244997 129.7489988 126.7090012  39.3194997 128.7989988
 126.3580012  38.3164997 129.8779988 126.6062321  39.1147867 129.6365079
 127.9860012  39.2504997 125.4409988 127.2840012  39.8654997 125.2309988
 127.5420012  38.4124997 125.5719988 127.8296450  39.2215639 125.4299000
 115.2340012  55.0134997 124.9869988 114.5490012  54.9754997 124.3199988
 115.2380012  55.9264997 125.2759988 115.1406998  55.1316733 124.9346771
 117.1940012  40.9814997 122.5319988 117.6860012  40.3514997 122.0049988
 117.8180012  41.2774997 123.1949988 117.3455688  40.9353804 122.5495482
 122.2200012  41.2744997 124.9889988 122.3980012  40.6284997 125.6719988
 122.1670012  42.1084997 125.4559988 122.2371999  41.2988009 125.1455917
 124.0990012  56.2234997 123.3849988 124.9650012  56.5894997 123.2069988
 123.8520012  55.7834997 122.5709988 124.1842392  56.2141756 123.2506289
 130.8080012  55.7864997 126.0639988 130.6130012  55.0384997 125.4989988
 130.7690012  56.5444997 125.4809988 130.7760380  55.7866099 125.9078384
 116.4550012  39.7814997 137.8039988 116.0890012  39.0164997 138.2459988
 117.3680012  39.8104997 138.0899988 116.5282736  39.6805640 137.9032502
 118.4280012  39.1324997 139.3399988 119.3260012  38.8584997 139.1549988
 118.0410012  38.3894997 139.8039988 118.4986612  38.9945914 139.3773643
 117.0520012  55.9334997 122.0129988 116.7850012  56.2204997 122.8859988
 117.8240012  55.3874997 122.1649988 117.1197488  55.8990294 122.1531050
 126.8490012  38.4644997 139.5219988 126.9260012  38.0384997 140.3759988
 127.7430012  38.4784997 139.1789988 126.9803428  38.4080879 139.5925310
 130.0250012  54.5374997 138.2139988 129.2430012  54.3514997 137.6939988
 129.9530012  55.4664997 138.4319988 129.9082274  54.6376643 138.1723018
 144.4310012  48.4234997 128.2449988 144.5200012  49.3674997 128.1129988
 143.7930012  48.1484997 127.5869988 144.3569081  48.5154830 128.1379614
 143.3640012  47.6784997 131.6639988 143.3260012  47.0324997 132.3689988
 143.0420012  47.2124997 130.8929988 143.3152333  47.5269408 131.6562978
 135.7330012  47.2934997 133.2569988 135.7740012  46.6674997 133.9799988
 136.4360012  47.9174997 133.4389988 135.8336363  47.2921196 133.3806044
 136.6560012  51.7434997 131.7919988 136.2870012  50.9414997 131.4219988
 137.5970012  51.5744997 131.8379988 136.7327289  51.6110153 131.7476316
 133.2660012  45.4034997 127.1849988 132.8190012  46.2494997 127.1659988
 132.7050012  44.8234997 126.6689988 133.1289900  45.4409916 127.1126801
 133.9770012  47.5654997 129.3099988 134.1900012  46.7954997 129.8379988
 134.7150012  47.6544997 128.7069988 134.1059044  47.4721968 129.3007123
 144.1820012  55.7224997 130.1769988 144.8020012  55.0454997 129.9039988
 143.9740012  55.5044997 131.0859988 144.2386726  55.6004800 130.2624812
 141.7540012  50.1114997 132.0699988 142.0580012  49.4254997 131.4749988
 142.4750012  50.2294997 132.6879988 141.8930671  50.0336305 132.0721816
 144.8950012  44.5054997 132.3969988 145.0370012  43.5594997 132.4179988
 144.7880012  44.7124997 131.4689988 144.8999919  44.4038246 132.2743408
 138.0490012  42.6064997 129.6699988 138.0930012  43.4664997 129.2509988
 137.5920012  42.0544997 129.0359988 137.9932240  42.6494422 129.5269864
 134.6700012  45.0034997 130.4319988 135.3230012  44.4534997 130.8639988
 134.6940012  44.7294997 129.5149988 134.7626683  44.8911466 130.3672123
 139.8260012  46.5534997 129.6469988 140.4420012  46.0274997 130.1569988
 139.2400012  45.9134997 129.2439988 139.8310810  46.3949208 129.6623173
 136.8600012  41.5244997 133.7439988 136.6410012  42.0544997 132.9779988
 136.1920012  41.7514997 134.3909988 136.7397600  41.6276906 133.7266379
 144.2290012  51.0244997 127.2879988 143.9330012  50.7024997 126.4369988
 143.9040012  51.9244997 127.3289988 144.1446371  51.1020215 127.1771801
 139.4290012  49.2004997 134.0309988 138.6890012  49.7984997 134.1349988
 140.1430012  49.7544997 133.7159988 139.4242237  49.3572831 134.0026465
 136.4530012  43.4164997 131.6959988 137.0670012  44.0494997 132.0689988
 136.9650012  42.9444997 131.0399988 136.6061981  43.4392267 131.6582908
 137.8360012  51.1644997 134.8179988 137.8310012  52.0444997 134.4399988
 136.9830012  51.0814997 135.2429988 137.7199464  51.2736117 134.8237907
 133.9570012  50.8354997 125.5999988 133.6850012  51.0644997 124.7119988
 134.0030012  51.6734997 126.0609988 133.9259482  50.9801318 125.5406273
 140.8860012  38.8304997 131.1959988 140.7690012  37.8814997 131.1419988
 140.0310012  39.1624997 131.4699988 140.7544212  38.7455571 131.2256497
 143.1530012  47.6674997 125.6969988 142.4410012  48.2024997 125.3449988
 143.8440012  47.7234997 125.0369988 143.1490132  47.7482543 125.5596289
 143.2060012  46.1254997 122.7359988 143.9070012  46.1474997 123.3869988
 143.5090012  45.4974997 122.0789988 143.3428133  46.0437070 122.7363369
 138.2040012  48.5074997 128.5309988 137.8730012  48.1374997 127.7129988
 138.7920012  47.8374997 128.8779988 138.2381873  48.3661156 128.4658102
 139.5700012  51.9354997 131.2119988 139.4760012  51.3574997 130.4559988
 140.3000012  51.5644997 131.7089988 139.6557387  51.8061663 131.1755342
 138.5700012  47.2764997 132.1649988 139.1360012  47.3974997 131.4019988
 138.8890012  47.9134997 132.8029988 138.6905474  47.3792219 132.1469862
 144.8790012  52.7794997 132.8989988 144.6390012  53.4414997 133.5469988
 144.6810012  51.9454997 133.3239988 144.8193808  52.7573134 133.0451524
 139.4500012  51.6754997 136.8819988 139.1390012  52.4574997 137.3369988
 138.8000012  51.5224997 136.1959988 139.3195558  51.7619105 136.8515871
 136.3700012  47.8734997 136.1099988 136.4410012  48.5244997 136.8089988
 135.4800012  47.9764997 135.7749988 136.2593005  47.9765427 136.1603495
 143.1560012  53.7764997 127.7689988 143.6300012  54.0714997 128.5459988
 142.5930012  54.5144997 127.5359988 143.1448184  53.9167247 127.8439628
 137.6900012  53.7474997 137.6449988 137.6970012  53.6114997 136.6979988
 136.7740012  53.6294997 137.8969988 137.5671714  53.7129430 137.5494666
 137.1940012  47.5774997 126.1199988 136.9020012  48.3454997 125.6299988
 136.5200012  46.9174997 125.9579988 137.0628111  47.5935587 126.0308978
 133.2870012  49.9404997 134.9349988 132.7860012  49.9124997 134.1199988
 133.2920012  49.0344997 135.2449988 133.2190944  49.8142396 134.8653226
 133.0370012  52.7204997 131.8189988 133.9830012  52.5764997 131.7999988
 132.9250012  53.5044997 132.3559988 133.1512727  52.8068046 131.8890072
 142.2140012  52.9604997 136.3779988 142.3010012  53.7864997 136.8529988
 141.3500012  52.6304997 136.6269988 142.1091964  53.0289878 136.4766549
 142.6280012  56.7324997 126.1839988 142.5530012  56.6114997 125.2369988
 142.6610012  57.6824997 126.3019988 142.6222068  56.8442646 126.0704967
 136.2810012  55.5214997 127.9649988 136.4340012  55.1734997 128.8429988
 135.4310012  55.1654997 127.7099988 136.1869166  55.4256216 128.0508079
 135.5360012  51.2634997 135.9789988 135.7520012  50.9024997 136.8379988
 134.6810012  50.8894997 135.7689988 135.4499292  51.1634111 136.0683386
 138.1550012  39.7334997 131.9739988 137.2930012  39.6464997 131.5659988
 138.1320012  40.5894997 132.4019988 138.0340409  39.8372883 131.9760589
 142.8180012  39.4554997 135.3489988 143.2380012  39.0404997 136.1019988
 141.8850012  39.2774997 135.4659988 142.7493644  39.3745900 135.4679539
 142.4790012  41.9484997 122.6339988 142.2260012  41.9674997 123.5569988
 142.2230012  41.0764997 122.3319988 142.4097481  41.8332558 122.7196175
 138.2460012  44.6994997 133.0689988 137.6040012  44.6584997 133.7779988
 138.2830012  45.6254997 132.8309988 138.1630664  44.8191430 133.1339219
 138.2430012  44.9204997 127.9809988 137.3500012  44.5794997 127.9219988
 138.6930012  44.5434997 127.2249988 138.1818130  44.8229631 127.8707702
 143.7780012  45.3364997 126.7979988 143.3690012  46.1514997 126.5069988
 144.4990012  45.1964997 126.1839988 143.8194537  45.4292018 126.6751342
 142.8800012  45.5114997 138.2859988 142.3180012  44.8074997 138.6069988
 143.7070012  45.3914997 138.7539988 142.9147095  45.3987883 138.3932330
 144.7830012  44.7824997 129.6119988 144.5880012  45.3874997 128.8969988
 144.9640012  43.9484997 129.1779988 144.7807614  44.7526300 129.4554405
 135.9960012  45.0194997 134.9359988 135.9580012  45.4194997 135.8049988
 135.5050012  44.2024997 135.0269988 135.9244684  44.9638069 135.0671059
 139.3620012  42.3934997 121.7349988 138.9310012  41.9484997 122.4649988
 138.6440012  42.7654997 121.2229988 139.2059438  42.3828940 121.7656799
 132.6040012  42.1354997 128.7869988 133.2350012  42.1064997 129.5059988
 133.0530012  41.7104997 128.0559988 132.7510918  42.0740836 128.7866441
 133.8780012  42.8814997 124.2109988 134.3520012  43.4724997 123.6259988
 133.1610012  43.4124997 124.5579988 133.8459341  43.0340867 124.1778836
 144.0470012  46.4204997 134.2829988 144.3700012  45.7894997 133.6399988
 143.6070012  45.8854997 134.9439988 144.0317484  46.2618387 134.2843198
 140.8240012  42.3474997 129.0669988 139.9130012  42.4044997 129.3559988
 141.3300012  42.2874997 129.8779988 140.7676899  42.3471941 129.2161184
 135.6530012  43.9764997 127.8939988 134.7630012  44.0764997 127.5539988
 135.9490012  43.1344997 127.5479988 135.5712823  43.8763545 127.8007213
 139.3060012  43.9764997 125.5509988 140.2370012  44.1054997 125.7289988
 139.0910012  44.6464997 124.9009988 139.4044247  44.0846565 125.4875747
 137.9800012  45.1714997 123.1169988 137.4370012  44.7914997 122.4259988
 138.8130012  45.3654997 122.6889988 138.0183631  45.1457125 122.9644501
 136.1150012  49.7284997 138.2159988 136.8470012  49.9824997 138.7779988
 135.3350012  49.9324997 138.7319988 136.1097073  49.7908160 138.3626151
 142.1440012  45.1354997 130.9539988 142.7090012  44.5884997 130.4069988
 141.9970012  44.6134997 131.7429988 142.2013380  44.9902259 130.9858695
 137.1460012  41.2714997 127.3729988 136.8290012  40.3694997 127.3369988
 137.9280012  41.2734997 126.8199988 137.2082408  41.1482474 127.2933569
 140.7710012  43.5234997 133.3679988 139.9350012  43.9774997 133.4789988
 141.2950012  43.7994997 134.1199988 140.7275416  43.6228660 133.4848119
 141.3150012  49.7364997 125.0529988 140.5700012  49.2294997 124.7309988
 141.1810012  49.7854997 125.9999988 141.1948776  49.6736940 125.1368647
 142.8340012  49.9204997 136.2899988 142.4890012  49.5394997 137.0969988
 142.6340012  50.8544997 136.3609988 142.7597527  49.9945135 136.4100689
 136.4400012  49.0314997 130.8229988 137.1850012  49.0294997 130.2219988
 136.5180012  48.2084997 131.3039988 136.5524995  48.9198887 130.8058282
 143.4410012  51.1954997 124.0789988 143.1450012  52.0214997 124.4599988
 142.7380012  50.5754997 124.2749988 143.3054914  51.2248199 124.1576443
 133.4480012  47.4924997 136.1379988 133.6710012  47.0744997 136.9699988
 132.8460012  46.8794997 135.7149988 133.3971759  47.3524668 136.1947022
 140.4640012  47.0094997 138.3509988 140.1680012  46.8434997 137.4559988
 141.3960012  46.7894997 138.3399988 140.5494166  46.9570640 138.2270536
 138.8150012  52.5494997 128.2269988 139.3420012  53.3224997 128.0269988
 137.9350012  52.7744997 127.9249988 138.7682031  52.6857545 128.1587912
 134.5700012  47.4114997 122.8139988 135.1860012  48.0384997 123.1939988
 133.7080012  47.7274997 123.0859988 134.5377698  47.5399430 122.9027183
 140.2420012  50.2124997 127.8029988 140.0010012  51.1374997 127.8449988
 139.5010012  49.7534997 128.1999988 140.1089225  50.2770933 127.8623742
 140.7570012  54.3614997 134.1189988 141.1190012  55.2164997 133.8849988
 141.2880012  54.0694997 134.8589988 140.8784473  54.4391060 134.1870855
 138.9250012  55.2344997 127.3489988 137.9750012  55.3394997 127.3999988
 139.2770012  56.0544997 127.6929988 138.8424195  55.3598800 127.4025502
 144.3010012  50.4604997 133.8189988 143.8750012  50.2334997 134.6459988
 144.8810012  49.7224997 133.6369988 144.3211868  50.3295299 133.9075830
 135.0820012  42.2454997 135.6959988 134.1890012  42.5844997 135.6279988
 134.9830012  41.3904997 136.1139988 134.9464164  42.1762588 135.7432235
 134.7330012  54.0504997 134.1309988 134.9500012  53.1184997 134.0999988
 134.9790012  54.3244997 135.0139988 134.7959549  53.9600636 134.2461763
 140.5950012  52.5014997 121.3399988 140.8340012  51.7534997 120.7929988
 140.3260012  52.1134997 122.1729988 140.5913675  52.3466638 121.3776865
 139.5320012  52.0714997 123.7959988 139.6780012  51.5514997 124.5859988
 139.5290012  52.9784997 124.1029988 139.5515792  52.1228842 123.9456117
 135.9850012  49.3244997 124.3069988 135.2990012  49.6764997 124.8739988
 136.5070012  50.0874997 124.0599988 135.9616852  49.4758578 124.3512118
 143.8160012  41.9864997 134.5859988 144.5150012  42.0604997 135.2359988
 143.4350012  41.1224997 134.7399988 143.8601767  41.8797624 134.6958322
 144.6010012  41.6384997 125.6829988 144.8210012  42.1104997 124.8799988
 145.1590012  42.0334997 126.3529988 144.7064968  41.7564285 125.6637331
 142.2690012  53.7694997 124.5459988 141.4530012  54.2664997 124.5979988
 142.7990012  54.2444997 123.9059988 142.2289161  53.9017722 124.4665956
 141.8010012  43.3664997 126.5179988 142.6130012  43.8714997 126.5639988
 141.5560012  43.2214997 127.4319988 141.8790520  43.4160375 126.6478517
 142.3360012  44.3524997 135.7019988 142.4550012  44.9264997 136.4599988
 142.9920012  43.6644997 135.8169988 142.4409025  44.3379858 135.8211321
 142.6840012  40.4474997 127.4559988 142.3380012  41.0654997 128.0999988
 143.3430012  40.9484997 126.9739988 142.7256968  40.5996278 127.4789383
 139.6080012  54.8134997 124.5269988 139.7680012  55.6124997 124.0269988
 139.4100012  55.1194997 125.4119988 139.6031637  54.9644020 124.5781144
 138.3420012  41.5104997 124.1429988 138.2590012  42.3994997 124.4899988
 139.2320012  41.2454997 124.3749988 138.4509469  41.5961430 124.2217626
 136.6010012  51.9384997 123.2039988 137.1930012  52.6374997 123.4799988
 137.0600012  51.5054997 122.4839988 136.7441142  51.9757049 123.1444830
 134.9170012  44.6024997 122.3199988 134.8720012  45.5414997 122.4979988
 134.0290012  44.3664997 122.0499988 134.7908574  44.6991892 122.3078912
 135.7250012  39.3844997 130.9929988 135.4960012  39.4434997 130.0649988
 135.2820012  38.5924997 131.2989988 135.6338530  39.2855753 130.9074786
 134.6550012  53.3244997 127.1529988 133.8230012  53.7974997 127.1799988
 135.2010012  53.8344997 126.5549988 134.6150352  53.4581332 127.0758463
 133.9430012  55.9374997 138.4829988 134.4840012  55.7204997 139.2429988
 133.4620012  55.1314997 138.2929988 133.9519951  55.7989270 138.5612576
 138.5410012  54.8564997 140.1029988 139.3080012  54.3974997 140.4439988
 138.5190012  54.6304997 139.1739988 138.6431275  54.7630186 140.0240101
 142.6330012  54.3644997 121.4789988 141.9890012  53.7334997 121.7999988
 143.3950012  53.8334997 121.2469988 142.6478077  54.2062920 121.4916011
 133.8500012  49.7474997 139.4369988 133.9940012  48.8454997 139.1509988
 133.0780012  50.0334997 138.9499988 133.7652753  49.6626816 139.3319505
 138.1920012  50.0914997 121.5699988 138.2560012  49.2974997 122.1009988
 138.8450012  49.9724997 120.8799988 138.2890241  49.9667148 121.5494317
 140.5060012  49.7174997 138.8699988 140.1770012  49.9884997 138.0129988
 140.6580012  48.7764997 138.7829988 140.4814809  49.6273862 138.7408244
 143.5440012  51.1384997 121.3059988 143.2750012  51.3184997 122.2069988
 143.3380012  50.2124997 121.1739988 143.4793427  51.0380261 121.4115073
 134.6830012  46.9474997 138.8569988 135.0910012  46.0904997 138.7359988
 134.4230012  46.9624997 139.7779988 134.7037568  46.8320807 138.9649588
 139.3410012  48.0634997 123.8759988 138.8810012  47.5794997 124.5619988
 139.5960012  47.3954997 123.2399988 139.3124902  47.9068731 123.8839334
 138.6300012  45.9564997 136.2319988 138.0120012  46.6314997 136.5119988
 138.9740012  46.2774997 135.3979988 138.5919132  46.0922411 136.1576262
 140.4120012  46.3064997 122.1379988 140.2320012  46.1524997 121.2109988
 141.3620012  46.4144997 122.1829988 140.5157776  46.3000175 122.0171843
 143.6500012  48.4284997 139.5089988 144.6030012  48.5114997 139.4819988
 143.4890012  47.7164997 140.1289988 143.7586426  48.3436746 139.5890579
 138.9690012  43.3114997 137.3139988 139.1190012  42.5824997 136.7119988
 138.9720012  44.0884997 136.7549988 138.9899302  43.3167851 137.1560692
 139.3820012  41.6814997 134.8069988 139.9180012  42.1324997 134.1549988
 138.5300012  41.5734997 134.3839988 139.3402178  41.7286390 134.6605756
 140.9640012  47.1204997 135.0459988 141.7140012  46.9644997 134.4729988
 140.6250012  47.9724997 134.7709988 141.0208921  47.2142968 134.9303561
 137.4480012  44.5094997 139.2259988 136.6810012  43.9774997 139.0149988
 138.1270012  44.1994997 138.6259988 137.4347877  44.3948300 139.1160716
 140.1880012  39.1374997 135.2379988 140.0890012  40.0844997 135.1329988
 139.4450012  38.7654997 134.7619988 140.0741184  39.2165863 135.1593621
 141.4520012  43.4594997 138.8019988 141.2160012  43.2394997 139.7029988
 140.6680012  43.2524997 138.2919988 141.3138504  43.4014586 138.8563431
 144.1670012  42.5864997 137.8769988 143.2200012  42.6184997 138.0099988
 144.4800012  41.9614997 138.5309988 144.0796707  42.5063998 137.9836060
 135.6280012  42.4304997 138.9299988 135.8400012  41.7234997 138.3199988
 135.5170012  41.9924997 139.7739988 135.6419721  42.2747084 138.9606843
 140.4090012  38.4314997 137.9089988 141.1210012  37.7914997 137.8949988
 140.3080012  38.6984997 136.9959988 140.4928066  38.3800079 137.7835677
 140.7630012  40.1144997 139.9629988 140.6310012  39.6384997 139.1429988
 140.1640012  40.8584997 139.9079988 140.6639071  40.1499618 139.8432886
 140.3090012  56.9974997 123.1389988 141.2420012  57.1554997 123.2829988
 140.0450012  57.6724997 122.5149988 140.4009888  57.1104510 123.0742842
 133.8780012  51.6334997 122.6219988 134.7920012  51.7124997 122.8959988
 133.8850012  50.9464997 121.9559988 134.0041131  51.5513961 122.5694393
 132.5270012  57.0264997 127.6999988 131.8800012  56.5644997 127.1669988
 132.8810012  56.3544997 128.2819988 132.4863849  56.8724723 127.7057959
 133.3970012  55.1074997 129.5039988 133.0620012  54.2274997 129.6759988
 133.6190012  55.4524997 130.3689988 133.3811783  55.0337500 129.6444208
 133.4770012  48.1824997 131.9559988 133.6610012  48.1004997 131.0199988
 134.3260012  48.0584997 132.3789988 133.6170151  48.1545073 131.8851451
 133.0740012  43.4534997 138.0969988 133.9940012  43.3314997 138.3329988
 132.6250012  42.7034997 138.4859988 133.1391580  43.3353727 138.1819006
 134.2950012  41.7654997 130.9879988 134.7410012  40.9734997 131.2899988
 134.7620012  42.4814997 131.4179988 134.4190831  41.7540685 131.0874006
 132.5990012  44.7644997 132.0569988 133.0910012  44.5434997 131.2659988
 132.9620012  45.6054997 132.3379988 132.7153126  44.8478357 131.9867531
 132.9130012  41.0224997 126.1109988 131.9880012  41.2314997 125.9819988
 133.3670012  41.5064997 125.4209988 132.8477292  41.1165343 126.0000720
 132.8770012  39.7604997 134.4549988 132.2120012  39.5144997 135.0989988
 132.4340012  40.3824997 133.8779988 132.7261318  39.8109410 134.4650898
 135.0690012  52.9354997 138.5999988 134.2480012  53.1104997 138.1389988
 134.8160012  52.8624997 139.5199988 134.9225585  52.9495544 138.6613561
 138.0230012  53.9104997 134.8579988 137.5980012  54.7194997 134.5759988
 138.9270012  53.9954997 134.5559988 138.0869975  54.0329300 134.7784816
 142.3340012  55.3094997 137.8179988 142.5190012  54.9754997 138.6959988
 143.1800012  55.6184997 137.4959988 142.4737539  55.3056047 137.8945605
 144.6790012  56.5954997 137.0619988 145.3560012  55.9624997 136.8219988
 145.0010012  56.9964997 137.8689988 144.8151637  56.5631154 137.1382793
 135.4250012  57.1664997 134.9059988 134.7040012  57.6064997 134.4549988
 135.0590012  56.9154997 135.7539988 135.2769651  57.1927242 134.9589640
 137.8920012  56.7664997 133.9359988 137.0270012  56.8384997 134.3399988
 137.8370012  57.3134997 133.1519988 137.7662085  56.8502685 133.8853362
 142.6020012  56.6544997 133.1109988 142.1460012  57.1834997 132.4569988
 142.7650012  57.2574997 133.8359988 142.5616068  56.8084607 133.1194838
 134.8390012  55.7894997 131.8159988 134.8210012  55.3644997 132.6729988
 135.6440012  55.4714997 131.4069988 134.9453529  55.6883013 131.8780946
 136.9810012  54.4994997 130.4709988 136.7620012  53.5834997 130.6409988
 137.8050012  54.6394997 130.9369988 137.0624420  54.3930520 130.5572774
 139.5180012  54.9694997 131.3199988 139.7310012  54.0814997 131.0329988
 139.5820012  54.9354997 132.2739988 139.5558231  54.8433102 131.4097397
 143.0260012  40.6334997 130.4639988 142.3520012  40.0044997 130.7199988
 143.5900012  40.1494997 129.8609988 143.0099230  40.4818744 130.4175340
 135.3530012  39.2674997 128.2859988 134.5760012  39.0334997 127.7789988
 135.8830012  38.4704997 128.2949988 135.3182330  39.1276988 128.2177742
 134.1890012  39.0654997 124.0899988 134.6280012  39.6764997 123.4979988
 133.5560012  39.6034997 124.5639988 134.1634514  39.2219257 124.0730930
 139.9320012  39.1944997 128.0999988 140.8070012  39.5824997 128.0699988
 139.7960012  38.9794997 129.0219988 140.0333695  39.2185184 128.2206440
 134.0900012  55.0134997 124.9869988 133.4050012  54.9754997 124.3199988
 134.0940012  55.9264997 125.2759988 133.9966998  55.1316733 124.9346771
 136.0500012  40.9814997 122.5319988 136.5420012  40.3514997 122.0049988
 136.6740012  41.2774997 123.1949988 136.2015688  40.9353804 122.5495482
 141.0760012  41.2744997 124.9889988 141.2540012  40.6284997 125.6719988
 141.0230012  42.1084997 125.4559988 141.0931999  41.2988009 125.1455917
 142.9550012  56.2234997 123.3849988 143.8210012  56.5894997 123.2069988
 142.7080012  55.7834997 122.5709988 143.0402392  56.2141756 123.2506289
 135.3110012  39.7814997 137.8039988 134.9450012  39.0164997 138.2459988
 136.2240012  39.8104997 138.0899988 135.3842736  39.6805640 137.9032502
 137.2840012  39.1324997 139.3399988 138.1820012  38.8584997 139.1549988
 136.8970012  38.3894997 139.8039988 137.3546612  38.9945914 139.3773643
 135.9080012  55.9334997 122.0129988 135.6410012  56.2204997 122.8859988
 136.6800012  55.3874997 122.1649988 135.9757488  55.8990294 122.1531050
  12.4390012  67.2794997 128.2449988  12.5280012  68.2234997 128.1129988
  11.8010012  67.0044997 127.5869988  12.3649081  67.3714830 128.1379614
  11.3720012  66.5344997 131.6639988  11.3340012  65.8884997 132.3689988
  11.0500012  66.0684997 130.8929988  11.3232333  66.3829408 131.6562978
   3.7410012  66.1494997 133.2569988   3.7820012  65.5234997 133.9799988
   4.4440012  66.7734997 133.4389988   3.8416363  66.1481196 133.3806044
  15.0780012  69.4734997 129.9649988  14.6380012  68.7534997 130.4159988
  15.0650012  70.1944997 130.5949988  15.0160226  69.4723731 130.1118494
   4.6640012  70.5994997 131.7919988   4.2950012  69.7974997 131.4219988
   5.6050012  70.4304997 131.8379988   4.7407289  70.4670153 131.7476316
   1.2740012  64.2594997 127.1849988   0.8270012  65.1054997 127.1659988
   0.7130012  63.6794997 126.6689988   1.1369900  64.2969916 127.1126801
   1.9850012  66.4214997 129.3099988   2.1980012  65.6514997 129.8379988
   2.7230012  66.5104997 128.7069988   2.1139044  66.3281968 129.3007123
  12.1900012  74.5784997 130.1769988  12.8100012  73.9014997 129.9039988
  11.9820012  74.3604997 131.0859988  12.2466726  74.4564800 130.2624812
   9.7620012  68.9674997 132.0699988  10.0660012  68.2814997 131.4749988
  10.4830012  69.0854997 132.6879988   9.9010671  68.8896305 132.0721816
  18.4250012  60.5684997 132.9309988  18.4740012  61.1784997 133.6659988
  18.8500012  61.0294997 132.2079988  18.4891746  60.7143796 132.9339175
  12.9030012  63.3614997 132.3969988  13.0450012  62.4154997 132.4179988
  12.7960012  63.5684997 131.4689988  12.9079919  63.2598246 132.2743408
   6.0570012  61.4624997 129.6699988   6.1010012  62.3224997 129.2509988
   5.6000012  60.9104997 129.0359988   6.0012240  61.5054422 129.5269864
  13.7800012  61.5934997 128.0709988  14.4260012  61.2644997 128.6949988
  14.2900012  62.1114997 127.4479988  13.9374299  61.6184450 128.0722731
   2.6780012  63.8594997 130.4319988   3.3310012  63.3094997 130.8639988
   2.7020012  63.5854997 129.5149988   2.7706683  63.7471466 130.3672123
   7.8340012  65.4094997 129.6469988   8.4500012  64.8834997 130.1569988
   7.2480012  64.7694997 129.2439988   7.8390810  65.2509208 129.6623173
  18.8160012  62.0464997 135.1659988  18.1280012  62.7044997 135.0709988
  18.8320012  61.8494997 136.1029988  18.7239540  62.1099819 135.2795990
   4.8680012  60.3804997 133.7439988   4.6490012  60.9104997 132.9779988
   4.2000012  60.6074997 134.3909988   4.7477600  60.4836906 133.7266379
  12.2370012  69.8804997 127.2879988  11.9410012  69.5584997 126.4369988
  11.9120012  70.7804997 127.3289988  12.1526371  69.9580215 127.1771801
   7.4370012  68.0564997 134.0309988   6.6970012  68.6544997 134.1349988
   8.1510012  68.6104997 133.7159988   7.4322237  68.2132831 134.0026465
  15.5440012  60.8844997 130.0509988  15.3280012  60.1184997 130.5839988
  16.1990012  61.3564997 130.5639988  15.6030632  60.8435889 130.1932861
   4.4610012  62.2724997 131.6959988   5.0750012  62.9054997 132.0689988
   4.9730012  61.8004997 131.0399988   4.6141981  62.2952267 131.6582908
   5.8440012  70.0204997 134.8179988   5.8390012  70.9004997 134.4399988
   4.9910012  69.9374997 135.2429988   5.7279464  70.1296117 134.8237907
   1.9650012  69.6914997 125.5999988   1.6930012  69.9204997 124.7119988
   2.0110012  70.5294997 126.0609988   1.9339482  69.8361318 125.5406273
  15.5900012  71.3134997 132.3129988  14.6490012  71.3714997 132.4749988
  15.8670012  72.2194997 132.1759988  15.4984679  71.4439443 132.3166815
  15.8910012  59.5994997 133.7309988  15.1550012  60.2104997 133.6929988
  16.5740012  60.0144997 133.2039988  15.8826541  59.7391374 133.6545832
   8.8940012  57.6864997 131.1959988   8.7770012  56.7374997 131.1419988
   8.0390012  58.0184997 131.4699988   8.7624212  57.6015571 131.2256497
  13.8420012  73.0944997 128.9379988  14.2680012  72.3874997 128.4529988
  14.1590012  73.8954997 128.5219988  13.9431683  73.1061017 128.8153680
  15.0020012  70.9954997 127.4469988  14.7440012  70.3054997 126.8359988
  15.0730012  70.5524997 128.2929988  14.9762856  70.8412124 127.4776885
  16.6880012  69.5614997 135.9239988  16.8280012  68.9704997 135.1849988
  16.8550012  70.4344997 135.5679988  16.7297411  69.5985428 135.7746894
  11.1610012  66.5234997 125.6969988  10.4490012  67.0584997 125.3449988
  11.8520012  66.5794997 125.0369988  11.1570132  66.6042543 125.5596289
  11.2140012  64.9814997 122.7359988  11.9150012  65.0034997 123.3869988
  11.5170012  64.3534997 122.0789988  11.3508133  64.8997070 122.7363369
  18.5300012  65.9014997 133.9899988  17.8770012  66.5964997 134.0799988
  18.9950012  66.1114997 133.1809988  18.5035274  66.0250643 133.8928462
  14.5660012  66.7334997 126.6489988  13.8340012  66.9614997 127.2219988
  15.0140012  66.0194997 127.1029988  14.5262725  66.6682145 126.7888816
  14.4640012  64.9074997 135.7159988  14.5440012  65.6704997 136.2879988
  13.8620012  65.1864997 135.0259988  14.3935756  65.0497134 135.7010589
   6.2120012  67.3634997 128.5309988   5.8810012  66.9934997 127.7129988
   6.8000012  66.6934997 128.8779988   6.2461873  67.2221156 128.4658102
   7.5780012  70.7914997 131.2119988   7.4840012  70.2134997 130.4559988
   8.3080012  70.4204997 131.7089988   7.6637386  70.6621663 131.1755342
   6.5780012  66.1324997 132.1649988   7.1440012  66.2534997 131.4019988
   6.8970012  66.7694997 132.8029988   6.6985474  66.2352219 132.1469862
  12.8870012  71.6354997 132.8989988  12.6470012  72.2974997 133.5469988
  12.6890012  70.8014997 133.3239988  12.8273808  71.6133134 133.0451524
   7.4580012  70.5314997 136.8819988   7.1470012  71.3134997 137.3369988
   6.8080012  70.3784997 136.1959988   7.3275558  70.6179105 136.8515871
  13.4370012  65.8954997 124.3339988  14.0170012  66.0454997 125.0809988
  13.8510012  66.3664997 123.6099988  13.5722997  65.9796578 124.3384058
   4.3780012  66.7294997 136.1099988   4.4490012  67.3804997 136.8089988
   3.4880012  66.8324997 135.7749988   4.2673005  66.8325427 136.1603495
  11.1640012  72.6324997 127.7689988  11.6380012  72.9274997 128.5459988
  10.6010012  73.3704997 127.5359988  11.1528184  72.7727247 127.8439628
   5.6980012  72.6034997 137.6449988   5.7050012  72.4674997 136.6979988
   4.7820012  72.4854997 137.8969988   5.5751714  72.5689430 137.5494666
  17.1360012  57.6454997 124.1469988  16.2360012  57.7844997 124.4419988
  17.3880012  58.4764997 123.7449988  17.0468702  57.7769074 124.1330205
   5.2020012  66.4334997 126.1199988   4.9100012  67.2014997 125.6299988
   4.5280012  65.7734997 125.9579988   5.0708111  66.4495587 126.0308978
  18.3250012  72.0114997 122.5229988  18.3990012  72.9504997 122.6939988
  19.2310012  71.7064997 122.4669988  18.4575100  72.0986722 122.5388119
   1.2950012  68.7964997 134.9349988   0.7940012  68.7684997 134.1199988
   1.3000012  67.8904997 135.2449988   1.2270944  68.6702396 134.8653226
   1.0450012  71.5764997 131.8189988   1.9910012  71.4324997 131.7999988
   0.9330012  72.3604997 132.3559988   1.1592727  71.6628046 131.8890072
  19.2430012  72.2424997 137.5019988  19.1940012  71.2874997 137.4649988
  18.4160012  72.5104997 137.9029988  19.1244940  72.1478998 137.5511375
  10.2220012  71.8164997 136.3779988  10.3090012  72.6424997 136.8529988
   9.3580012  71.4864997 136.6269988  10.1171964  71.8849878 136.4766549
  10.6360012  75.5884997 126.1839988  10.5610012  75.4674997 125.2369988
  10.6690012  76.5384997 126.3019988  10.6302068  75.7002646 126.0704967
   4.2890012  74.3774997 127.9649988   4.4420012  74.0294997 128.8429988
   3.4390012  74.0214997 127.7099988   4.1949166  74.2816216 128.0508079
  13.7380012  74.7424997 123.1859988  14.1130012  73.9984997 122.7149988
  13.7420012  74.4724997 124.1049988  13.7899125  74.6040986 123.2456483
  13.4070012  74.6684997 125.9349988  12.4710012  74.7684997 126.1139988
  13.6870012  73.9594997 126.5139988  13.3169553  74.5863406 126.0377087
  16.3950012  63.7354997 137.9819988  15.9880012  64.2164997 137.2609988
  16.4360012  62.8304997 137.6739988  16.3448437  63.6789374 137.8416683
   3.5440012  70.1194997 135.9789988   3.7600012  69.7584997 136.8379988
   2.6890012  69.7454997 135.7689988   3.4579292  70.0194111 136.0683386
   6.1630012  58.5894997 131.9739988   5.3010012  58.5024997 131.5659988
   6.1400012  59.4454997 132.4019988   6.0420409  58.6932883 131.9760589
  10.8260012  58.3114997 135.3489988  11.2460012  57.8964997 136.1019988
   9.8930012  58.1334997 135.4659988  10.7573644  58.2305900 135.4679539
  14.1520012  62.0674997 136.2019988  13.6380012  61.9414997 136.9999988
  13.9970012  62.9794997 135.9579988  14.0606852  62.1736132 136.2782158
  14.9150012  66.9284997 121.9639988  14.9570012  66.7054997 121.0339988
  15.7640012  67.3274997 122.1529988  15.0355280  66.9519438 121.8623554
  10.4870012  60.8044997 122.6339988  10.2340012  60.8234997 123.5569988
  10.2310012  59.9324997 122.3319988  10.4177481  60.6892558 122.7196175
   6.2540012  63.5554997 133.0689988   5.6120012  63.5144997 133.7779988
   6.2910012  64.4814997 132.8309988   6.1710664  63.6751430 133.1339219
   6.2510012  63.7764997 127.9809988   5.3580012  63.4354997 127.9219988
   6.7010012  63.3994997 127.2249988   6.1898130  63.6789631 127.8707702
  11.7860012  64.1924997 126.7979988  11.3770012  65.0074997 126.5069988
  12.5070012  64.0524997 126.1839988  11.8274537  64.2852018 126.6751342
  10.8880012  64.3674997 138.2859988  10.3260012  63.6634997 138.6069988
  11.7150012  64.2474997 138.7539988  10.9227095  64.2547883 138.3932330
  12.7910012  63.6384997 129.6119988  12.5960012  64.2434997 128.8969988
  12.9720012  62.8044997 129.1779988  12.7887614  63.6086300 129.4554405
   4.0040012  63.8754997 134.9359988   3.9660012  64.2754997 135.8049988
   3.5130012  63.0584997 135.0269988   3.9324684  63.8198069 135.0671059
   7.3700012  61.2494997 121.7349988   6.9390012  60.8044997 122.4649988
   6.6520012  61.6214997 121.2229988   7.2139438  61.2388940 121.7656799
   0.6120012  60.9914997 128.7869988   1.2430012  60.9624997 129.5059988
   1.0610012  60.5664997 128.0559988   0.7590918  60.9300836 128.7866441
   1.8860012  61.7374997 124.2109988   2.3600012  62.3284997 123.6259988
   1.1690012  62.2684997 124.5579988   1.8539341  61.8900867 124.1778836
  12.0550012  65.2764997 134.2829988  12.3780012  64.6454997 133.6399988
  11.6150012  64.7414997 134.9439988  12.0397484  65.1178387 134.2843198
   8.8320012  61.2034997 129.0669988   7.9210012  61.2604997 129.3559988
   9.3380012  61.1434997 129.8779988   8.7756899  61.2031941 129.2161184
   3.6610012  62.8324997 127.8939988   2.7710012  62.9324997 127.5539988
   3.9570012  61.9904997 127.5479988   3.5792823  62.7323545 127.8007213
   7.3140012  62.8324997 125.5509988   8.2450012  62.9614997 125.7289988
   7.0990012  63.5024997 124.9009988   7.4124247  62.9406565 125.4875747
  13.2370012  60.4384997 132.3319988  12.5610012  60.5694997 132.9959988
  12.7520012  60.2834997 131.5209988  13.0787146  60.4355157 132.3134469
   5.9880012  64.0274997 123.1169988   5.4450012  63.6474997 122.4259988
   6.8210012  64.2214997 122.6889988   6.0263631  64.0017125 122.9644501
  16.5250012  76.1104997 138.6079988  16.7250012  76.5344997 137.7739988
  17.1800012  76.4534997 139.2149988  16.6410072  76.2149857 138.5758592
   4.1230012  68.5844997 138.2159988   4.8550012  68.8384997 138.7779988
   3.3430012  68.7884997 138.7319988   4.1177073  68.6468160 138.3626151
  10.1520012  63.9914997 130.9539988  10.7170012  63.4444997 130.4069988
  10.0050012  63.4694997 131.7429988  10.2093380  63.8462259 130.9858695
   5.1540012  60.1274997 127.3729988   4.8370012  59.2254997 127.3369988
   5.9360012  60.1294997 126.8199988   5.2162408  60.0042474 127.2933569
   8.7790012  62.3794997 133.3679988   7.9430012  62.8334997 133.4789988
   9.3030012  62.6554997 134.1199988   8.7355416  62.4788660 133.4848119
   9.3230012  68.5924997 125.0529988   8.5780012  68.0854997 124.7309988
   9.1890012  68.6414997 125.9999988   9.2028776  68.5296940 125.1368647
  16.4730012  67.7254997 133.8399988  17.1150012  68.1824997 133.2959988
  15.6430012  67.8384997 133.3769988  16.4485963  67.8032704 133.7030177
  13.2210012  61.4064997 123.2519988  12.2820012  61.5184997 123.1009988
  13.5180012  62.2634997 123.5589988  13.1327583  61.5375981 123.2728337
  10.8420012  68.7764997 136.2899988  10.4970012  68.3954997 137.0969988
  10.6420012  69.7104997 136.3609988  10.7677527  68.8505135 136.4100689
  13.9390012  63.2734997 124.9129988  14.8310012  63.1364997 125.2319988
  13.9960012  64.0644997 124.3759988  14.0686504  63.3616052 124.8840818
   4.4480012  67.8874997 130.8229988   5.1930012  67.8854997 130.2219988
   4.5260012  67.0644997 131.3039988   4.5604995  67.7758887 130.8058282
  11.4490012  70.0514997 124.0789988  11.1530012  70.8774997 124.4599988
  10.7460012  69.4314997 124.2749988  11.3134914  70.0808199 124.1576443
   1.4560012  66.3484997 136.1379988   1.6790012  65.9304997 136.9699988
   0.8540012  65.7354997 135.7149988   1.4051759  66.2084668 136.1947022
   8.4720012  65.8654997 138.3509988   8.1760012  65.6994997 137.4559988
   9.4040012  65.6454997 138.3399988   8.5574166  65.8130640 138.2270536
  13.0930012  71.2384997 136.2409988  12.1920012  71.4214997 135.9729988
  13.1270012  71.4974997 137.1609988  12.9743139  71.2985849 136.3288099
  18.8240012  63.4834997 124.6079988  18.2700012  63.0874997 123.9359988
  18.9240012  64.3934997 124.3299988  18.7617059  63.5523586 124.4784401
  18.7870012  69.2834997 137.4449988  17.9360012  69.5214997 137.0779988
  19.3780012  69.2664997 136.6919988  18.7502487  69.3138258 137.2928893
  17.1190012  72.2694997 125.0729988  16.7460012  71.4434997 125.3819988
  17.3970012  72.0864997 124.1749988  17.1055222  72.1317430 124.9939473
  14.2800012  67.0774997 132.0939988  13.3510012  66.8454997 132.0669988
  14.7310012  66.3004997 131.7639988  14.2139216  66.9407238 132.0456917
   6.8230012  71.4054997 128.2269988   7.3500012  72.1784997 128.0269988
   5.9430012  71.6304997 127.9249988   6.7762031  71.5417545 128.1587912
   2.5780012  66.2674997 122.8139988   3.1940012  66.8944997 123.1939988
   1.7160012  66.5834997 123.0859988   2.5457698  66.3959430 122.9027183
   8.2500012  69.0684997 127.8029988   8.0090012  69.9934997 127.8449988
   7.5090012  68.6094997 128.1999988   8.1169225  69.1330933 127.8623742
   8.7650012  73.2174997 134.1189988   9.1270012  74.0724997 133.8849988
   9.2960012  72.9254997 134.8589988   8.8864473  73.2951060 134.1870855
   6.9330012  74.0904997 127.3489988   5.9830012  74.1954997 127.3999988
   7.2850012  74.9104997 127.6929988   6.8504195  74.2158800 127.4025502
  12.3090012  69.3164997 133.8189988  11.8830012  69.0894997 134.6459988
  12.8890012  68.5784997 133.6369988  12.3291868  69.1855299 133.9075830
  14.5120012  70.2454997 122.8929988  14.8650012  69.8654997 123.6969988
  13.5630012  70.1524997 122.9799988  14.4320918  70.1808956 123.0148532
  14.9670012  73.8684997 136.2889988  14.3660012  73.3134997 135.7929988
  15.2490012  74.5354997 135.6619988  14.9228804  73.8826625 136.1364849
  19.0150012  74.7254997 123.0939988  19.7590012  75.3114997 122.9539988
  18.3210012  75.2934997 123.4269988  19.0229899  74.8825798 123.1198778
   3.0900012  61.1014997 135.6959988   2.1970012  61.4404997 135.6279988
   2.9910012  60.2464997 136.1139988   2.9544164  61.0322588 135.7432235
  15.3780012  68.9184997 125.1199988  15.1000012  68.1904997 125.6759988
  16.3050012  69.0374997 125.3249988  15.4653124  68.8348802 125.2238845
   2.7410012  72.9064997 134.1309988   2.9580012  71.9744997 134.0999988
   2.9870012  73.1804997 135.0139988   2.8039549  72.8160636 134.2461763
   8.6030012  71.3574997 121.3399988   8.8420012  70.6094997 120.7929988
   8.3340012  70.9694997 122.1729988   8.5993675  71.2026638 121.3776865
   7.5400012  70.9274997 123.7959988   7.6860012  70.4074997 124.5859988
   7.5370012  71.8344997 124.1029988   7.5595792  70.9788842 123.9456117
   3.9930012  68.1804997 124.3069988   3.3070012  68.5324997 124.8739988
   4.5150012  68.9434997 124.0599988   3.9696852  68.3318578 124.3512118
  11.8240012  60.8424997 134.5859988  12.5230012  60.9164997 135.2359988
  11.4430012  59.9784997 134.7399988  11.8681767  60.7357624 134.6958322
  12.6090012  60.4944997 125.6829988  12.8290012  60.9664997 124.8799988
  13.1670012  60.8894997 126.3529988  12.7144968  60.6124285 125.6637331
  10.2770012  72.6254997 124.5459988   9.4610012  73.1224997 124.5979988
  10.8070012  73.1004997 123.9059988  10.2369161  72.7577722 124.4665956
   9.8090012  62.2224997 126.5179988  10.6210012  62.7274997 126.5639988
   9.5640012  62.0774997 127.4319988   9.8870520  62.2720375 126.6478517
  10.3440012  63.2084997 135.7019988  10.4630012  63.7824997 136.4599988
  11.0000012  62.5204997 135.8169988  10.4489025  63.1939858 135.8211321
  10.6920012  59.3034997 127.4559988  10.3460012  59.9214997 128.0999988
  11.3510012  59.8044997 126.9739988  10.7336968  59.4556278 127.4789383
   7.6160012  73.6694997 124.5269988   7.7760012  74.4684997 124.0269988
   7.4180012  73.9754997 125.4119988   7.6111637  73.8204020 124.5781144
   6.3500012  60.3664997 124.1429988   6.2670012  61.2554997 124.4899988
   7.2400012  60.1014997 124.3749988   6.4589469  60.4521430 124.2217626
  16.5490012  61.1154997 136.5369988  15.6320012  61.3784997 136.4499988
  16.8840012  61.1124997 135.6409988  16.4688613  61.1510761 136.4038837
  15.1510012  64.8664997 130.6329988  14.3530012  64.4514997 130.3049988
  15.5960012  64.1754997 131.1239988  15.1019885  64.7163543 130.6544889
   4.6090012  70.7944997 123.2039988   5.2010012  71.4934997 123.4799988
   5.0680012  70.3614997 122.4839988   4.7521142  70.8317049 123.1444830
   2.9250012  63.4584997 122.3199988   2.8800012  64.3974997 122.4979988
   2.0370012  63.2224997 122.0499988   2.7988574  63.5551892 122.3078912
  16.2370012  74.1224997 132.2559988  16.0820012  74.8004997 131.5979988
  17.1700012  74.1944997 132.4589988  16.3418657  74.2249546 132.1934360
   3.7330012  58.2404997 130.9929988   3.5040012  58.2994997 130.0649988
   3.2900012  57.4484997 131.2989988   3.6418530  58.1415753 130.9074786
   2.6630012  72.1804997 127.1529988   1.8310012  72.6534997 127.1799988
   3.2090012  72.6904997 126.5549988   2.6230352  72.3141332 127.0758463
   1.9510012  74.7934997 138.4829988   2.4920012  74.5764997 139.2429988
   1.4700012  73.9874997 138.2929988   1.9599951  74.6549270 138.5612576
   6.5490012  73.7124997 140.1029988   7.3160012  73.2534997 140.4439988
   6.5270012  73.4864997 139.1739988   6.6511275  73.6190186 140.0240101
  10.6410012  73.2204997 121.4789988   9.9970012  72.5894997 121.7999988
  11.4030012  72.6894997 121.2469988  10.6558077  73.0622920 121.4916011
  13.1260012  72.0924997 138.8329988  12.7750012  71.2364997 139.0759988
  13.8520012  72.2354997 139.4399988  13.1760769  71.9945636 138.9483619
  15.2450012  73.0374997 121.7119988  15.5280012  72.2434997 122.1649988
  15.9850012  73.2704997 121.1519988  15.3838006  72.9603376 121.6982715
   1.8580012  68.6034997 139.4369988   2.0020012  67.7014997 139.1509988
   1.0860012  68.8894997 138.9499988   1.7732753  68.5186816 139.3319505
   6.2000012  68.9474997 121.5699988   6.2640012  68.1534997 122.1009988
   6.8530012  68.8284997 120.8799988   6.2970241  68.8227148 121.5494317
   8.5140012  68.5734997 138.8699988   8.1850012  68.8444997 138.0129988
   8.6660012  67.6324997 138.7829988   8.4894809  68.4833862 138.7408244
  11.5520012  69.9944997 121.3059988  11.2830012  70.1744997 122.2069988
  11.3460012  69.0684997 121.1739988  11.4873427  69.8940261 121.4115073
  14.2480012  68.4894997 136.2529988  14.9940012  69.0774997 136.1339988
  13.4910012  69.0714997 136.3169988  14.2477820  68.6487143 136.2453590
   2.6910012  65.8034997 138.8569988   3.0990012  64.9464997 138.7359988
   2.4310012  65.8184997 139.7779988   2.7117568  65.6880807 138.9649588
   7.3490012  66.9194997 123.8759988   6.8890012  66.4354997 124.5619988
   7.6040012  66.2514997 123.2399988   7.3204902  66.7628731 123.8839334
   6.6380012  64.8124997 136.2319988   6.0200012  65.4874997 136.5119988
   6.9820012  65.1334997 135.3979988   6.5999132  64.9482411 136.1576262
   8.4200012  65.1624997 122.1379988   8.2400012  65.0084997 121.2109988
   9.3700012  65.2704997 122.1829988   8.5237776  65.1560175 122.0171843
  11.6580012  67.2844997 139.5089988  12.6110012  67.3674997 139.4819988
  11.4970012  66.5724997 140.1289988  11.7666426  67.1996746 139.5890579
  17.8100012  67.5174997 121.5839988  17.5360012  67.0924997 120.7709988
  17.8490012  68.4484997 121.3669988  17.7777699  67.5852484 121.4433610
   6.9770012  62.1674997 137.3139988   7.1270012  61.4384997 136.7119988
   6.9800012  62.9444997 136.7549988   6.9979302  62.1727851 137.1560692
   7.3900012  60.5374997 134.8069988   7.9260012  60.9884997 134.1549988
   6.5380012  60.4294997 134.3839988   7.3482178  60.5846390 134.6605756
   8.9720012  65.9764997 135.0459988   9.7220012  65.8204997 134.4729988
   8.6330012  66.8284997 134.7709988   9.0288921  66.0702968 134.9303561
  13.3870012  63.7914997 140.0749988  13.5800012  62.8604997 139.9629988
  14.2450012  64.2164997 140.0639988  13.5292934  63.7216531 140.0582031
  14.7040012  66.5804997 138.1519988  14.4230012  67.2894997 137.5739988
  15.6470012  66.5074997 138.0009988  14.7929291  66.6676711 138.0524967
   5.4560012  63.3654997 139.2259988   4.6890012  62.8334997 139.0149988
   6.1350012  63.0554997 138.6259988   5.4427877  63.2508300 139.1160716
   8.1960012  57.9934997 135.2379988   8.0970012  58.9404997 135.1329988
   7.4530012  57.6214997 134.7619988   8.0821184  58.0725863 135.1593621
   9.4600012  62.3154997 138.8019988   9.2240012  62.0954997 139.7029988
   8.6760012  62.1084997 138.2919988   9.3218504  62.2574586 138.8563431
  12.1750012  61.4424997 137.8769988  11.2280012  61.4744997 138.0099988
  12.4880012  60.8174997 138.5309988  12.0876707  61.3623998 137.9836060
  13.8090012  60.0764997 139.8829988  13.7130012  59.1244997 139.8769988
  13.4880012  60.3454997 140.7429988  13.7524070  59.9824035 139.9985441
   3.6360012  61.2864997 138.9299988   3.8480012  60.5794997 138.3199988
   3.5250012  60.8484997 139.7739988   3.6499721  61.1307084 138.9606843
   8.4170012  57.2874997 137.9089988   9.1290012  56.6474997 137.8949988
   8.3160012  57.5544997 136.9959988   8.5008066  57.2360079 137.7835677
   8.7710012  58.9704997 139.9629988   8.6390012  58.4944997 139.1429988
   8.1720012  59.7144997 139.9079988   8.6719071  59.0059618 139.8432886
   8.3170012  75.8534997 123.1389988   9.2500012  76.0114997 123.2829988
   8.0530012  76.5284997 122.5149988   8.4089888  75.9664510 123.0742842
   1.8860012  70.4894997 122.6219988   2.8000012  70.5684997 122.8959988
   1.8930012  69.8024997 121.9559988   2.0121131  70.4073961 122.5694393
   0.5350012  75.8824997 127.6999988  -0.1119988  75.4204997 127.1669988
   0.8890012  75.2104997 128.2819988   0.4943849  75.7284723 127.7057959
   1.4050012  73.9634997 129.5039988   1.0700012  73.0834997 129.6759988
   1.6270012  74.3084997 130.3689988   1.3891783  73.8897501 129.6444208
  18.9530012  74.7724997 132.4849988  18.9320012  74.9574997 133.4239988
  19.6440012  75.3414997 132.1439988  19.0434618  74.8746606 132.5673864
  18.5170012  74.3404997 135.4069988  18.0290012  73.6044997 135.0349988
  19.0660012  73.9464997 136.0849988  18.5244820  74.1865889 135.4477813
  16.9670012  70.1294997 140.0449988  16.1010012  70.0244997 140.4389988
  17.3440012  70.8884997 140.4909988  16.8993308  70.2176900 140.1592393
  18.2680012  68.3864997 125.5589988  19.1180012  68.8074997 125.6859988
  18.2740012  67.6464997 126.1659988  18.3851372  68.3440803 125.6584344
  18.6630012  66.4394997 127.3819988  17.9360012  65.9604997 127.7799988
  19.2440012  66.6454997 128.1149988  18.6420473  66.4018103 127.5354528
  18.4220012  69.2244997 132.3299988  19.2550012  68.8464997 132.0499988
  18.5340012  70.1674997 132.2109988  18.5512647  69.3002218 132.2755487
  16.9080012  72.1024997 134.6369988  16.2610012  72.4274997 135.2629988
  16.3910012  71.6624997 133.9629988  16.7494029  72.0875004 134.6315827
  18.9310012  66.3404997 123.7739988  18.4090012  66.6974997 123.0549988
  18.8980012  67.0154997 124.4519988  18.8551634  66.4805413 123.7673145
  17.2800012  63.5804997 122.3239988  17.3760012  64.2474997 121.6439988
  17.1400012  62.7644997 121.8429988  17.2742272  63.5615655 122.1658347
  16.4490012  64.9604997 127.9449988  16.2990012  64.0154997 127.9249988
  16.0960012  65.2414997 128.7889988  16.3807448  64.8691481 128.0563705
   1.4850012  67.0384997 131.9559988   1.6690012  66.9564997 131.0199988
   2.3340012  66.9144997 132.3789988   1.6250151  67.0105073 131.8851451
  17.3060012  66.9304997 137.5839988  17.8890012  66.1964997 137.7759988
  17.8700012  67.7024997 137.6309988  17.4619769  66.9344227 137.6166159
  18.8020012  64.8334997 138.2689988  17.9390012  64.4544997 138.1029988
  19.4070012  64.0944997 138.1939988  18.7656119  64.6818268 138.2361528
  16.5270012  60.9884997 121.4419988  17.1380012  60.6174997 122.0789988
  15.6910012  60.5674997 121.6379988  16.4975032  60.8807554 121.5557035
  16.1600012  62.5434997 126.4079988  16.4400012  61.6364997 126.5319988
  16.9190012  62.9774997 126.0189988  16.3009277  62.4780942 126.3723682
  16.7720012  63.1244997 131.8439988  17.7050012  63.3364997 131.8089988
  16.5370012  63.2264997 132.7659988  16.8679244  63.1673100 131.9638892
  16.8010012  63.8614997 134.6199988  15.9580012  64.1294997 134.9859988
  17.2430012  64.6834997 134.4089988  16.7454158  64.0093291 134.6415491
   1.0820012  62.3094997 138.0969988   2.0020012  62.1874997 138.3329988
   0.6330012  61.5594997 138.4859988   1.1471580  62.1913727 138.1819006
  19.0840012  57.8414997 139.9729988  19.4340012  57.1874997 139.3679988
  19.2310012  58.6784997 139.5329988  19.1517887  57.8651548 139.8306858
  16.7730012  59.8064997 126.4559988  16.9560012  59.3574997 127.2819988
  16.1740012  59.2214997 125.9929988  16.7170202  59.6659975 126.5063275
   2.3030012  60.6214997 130.9879988   2.7490012  59.8294997 131.2899988
   2.7700012  61.3374997 131.4179988   2.4270831  60.6100685 131.0874006
   0.6070012  63.6204997 132.0569988   1.0990012  63.3994997 131.2659988
   0.9700012  64.4614997 132.3379988   0.7233126  63.7038357 131.9867531
  18.6040012  59.9504997 138.3219988  17.6860012  60.2214997 138.2869988
  18.7270012  59.4154997 137.5379988  18.4949729  59.9152508 138.2111923
  18.6400012  59.8734997 122.9839988  19.0520012  59.1524997 122.5089988
  19.3220012  60.5434997 123.0429988  18.7885885  59.8652368 122.9268915
   0.9210012  59.8784997 126.1109988  -0.0039988  60.0874997 125.9819988
   1.3750012  60.3624997 125.4209988   0.8557292  59.9725343 126.0000720
  15.6920012  74.8624997 128.0569988  16.3440012  74.5154997 127.4489988
  16.2020012  75.3514997 128.7029988  15.8502637  74.8810597 128.0610236
   0.8850012  58.6164997 134.4549988   0.2200012  58.3704997 135.0989988
   0.4420012  59.2384997 133.8779988   0.7341318  58.6669410 134.4650898
   3.0770012  71.7914997 138.5999988   2.2560012  71.9664997 138.1389988
   2.8240012  71.7184997 139.5199988   2.9305585  71.8055544 138.6613561
   6.0310012  72.7664997 134.8579988   5.6060012  73.5754997 134.5759988
   6.9350012  72.8514997 134.5559988   6.0949975  72.8889300 134.7784816
  10.3420012  74.1654997 137.8179988  10.5270012  73.8314997 138.6959988
  11.1880012  74.4744997 137.4959988  10.4817539  74.1616047 137.8945605
  12.6870012  75.4514997 137.0619988  13.3640012  74.8184997 136.8219988
  13.0090012  75.8524997 137.8689988  12.8231637  75.4191154 137.1382793
  17.6040012  58.0404997 136.1409988  16.7920012  58.3654997 135.7539988
  17.8370012  57.2804997 135.6079988  17.5242203  57.9822758 136.0158880
   3.4330012  76.0224997 134.9059988   2.7120012  76.4624997 134.4549988
   3.0670012  75.7714997 135.7539988   3.2849651  76.0487242 134.9589640
   5.9000012  75.6224997 133.9359988   5.0350012  75.6944997 134.3399988
   5.8450012  76.1694997 133.1519988   5.7742085  75.7062685 133.8853362
  10.6100012  75.5104997 133.1109988  10.1540012  76.0394997 132.4569988
  10.7730012  76.1134997 133.8359988  10.5696068  75.6644607 133.1194838
  12.9380012  74.3884997 134.0559988  12.0330012  74.5534997 133.7899988
  13.3670012  75.2414997 133.9909988  12.8721324  74.5264339 134.0107976
  15.5420012  75.9584997 134.3509988  15.3600012  76.8744997 134.1409988
  15.7190012  75.5484997 133.5049988  15.5410210  76.0284822 134.2077885
   2.8470012  74.6454997 131.8159988   2.8290012  74.2204997 132.6729988
   3.6520012  74.3274997 131.4069988   2.9533529  74.5443013 131.8780946
   4.9890012  73.3554997 130.4709988   4.7700012  72.4394997 130.6409988
   5.8130012  73.4954997 130.9369988   5.0704420  73.2490520 130.5572774
   7.5260012  73.8254997 131.3199988   7.7390012  72.9374997 131.0329988
   7.5900012  73.7914997 132.2739988   7.5638232  73.6993102 131.4097397
  11.0340012  59.4894997 130.4639988  10.3600012  58.8604997 130.7199988
  11.5980012  59.0054997 129.8609988  11.0179230  59.3378744 130.4175340
  16.1770012  57.5974997 130.5769988  16.7810012  58.1444997 130.0749988
  15.3070012  57.9164997 130.3359988  16.1421208  57.7155137 130.4756886
  17.9040012  58.7354997 128.9099988  18.5160012  58.2214997 128.3829988
  18.2860012  59.6134997 128.9329988  18.0393371  58.7837866 128.8410041
   3.3610012  58.1234997 128.2859988   2.5840012  57.8894997 127.7789988
   3.8910012  57.3264997 128.2949988   3.3262330  57.9836988 128.2177742
   2.1970012  57.9214997 124.0899988   2.6360012  58.5324997 123.4979988
   1.5640012  58.4594997 124.5639988   2.1714514  58.0779257 124.0730930
   7.9400012  58.0504997 128.0999988   8.8150012  58.4384997 128.0699988
   7.8040012  57.8354997 129.0219988   8.0413695  58.0745184 128.2206440
  13.4970012  58.0804997 129.7489988  13.5730012  58.1754997 128.7989988
  13.2220012  57.1724997 129.8779988  13.4702321  57.9707867 129.6365079
  14.8500012  58.1064997 125.4409988  14.1480012  58.7214997 125.2309988
  14.4060012  57.2684997 125.5719988  14.6936450  58.0775639 125.4299000
   2.0980012  73.8694997 124.9869988   1.4130012  73.8314997 124.3199988
   2.1020012  74.7824997 125.2759988   2.0046998  73.9876733 124.9346771
   4.0580012  59.8374997 122.5319988   4.5500012  59.2074997 122.0049988
   4.6820012  60.1334997 123.1949988   4.2095688  59.7913804 122.5495482
   9.0840012  60.1304997 124.9889988   9.2620012  59.4844997 125.6719988
   9.0310012  60.9644997 125.4559988   9.1011999  60.1548009 125.1455917
  10.9630012  75.0794997 123.3849988  11.8290012  75.4454997 123.2069988
  10.7160012  74.6394997 122.5709988  11.0482392  75.0701756 123.2506289
  17.6720012  74.6424997 126.0639988  17.4770012  73.8944997 125.4989988
  17.6330012  75.4004997 125.4809988  17.6400380  74.6426099 125.9078384
   3.3190012  58.6374997 137.8039988   2.9530012  57.8724997 138.2459988
   4.2320012  58.6664997 138.0899988   3.3922736  58.5365640 137.9032502
   5.2920012  57.9884997 139.3399988   6.1900012  57.7144997 139.1549988
   4.9050012  57.2454997 139.8039988   5.3626612  57.8505914 139.3773643
   3.9160012  74.7894997 122.0129988   3.6490012  75.0764997 122.8859988
   4.6880012  74.2434997 122.1649988   3.9837488  74.7550294 122.1531050
  13.7130012  57.3204997 139.5219988  13.7900012  56.8944997 140.3759988
  14.6070012  57.3344997 139.1789988  13.8443428  57.2640879 139.5925310
  16.8890012  73.3934997 138.2139988  16.1070012  73.2074997 137.6939988
  16.8170012  74.3224997 138.4319988  16.7722274  73.4936643 138.1723018
  31.2950012  67.2794997 128.2449988  31.3840012  68.2234997 128.1129988
  30.6570012  67.0044997 127.5869988  31.2209081  67.3714830 128.1379614
  30.2280012  66.5344997 131.6639988  30.1900012  65.8884997 132.3689988
  29.9060012  66.0684997 130.8929988  30.1792333  66.3829408 131.6562978
  22.5970012  66.1494997 133.2569988  22.6380012  65.5234997 133.9799988
  23.3000012  66.7734997 133.4389988  22.6976363  66.1481196 133.3806044
  33.9340012  69.4734997 129.9649988  33.4940012  68.7534997 130.4159988
  33.9210012  70.1944997 130.5949988  33.8720226  69.4723731 130.1118494
  23.5200012  70.5994997 131.7919988  23.1510012  69.7974997 131.4219988
  24.4610012  70.4304997 131.8379988  23.5967289  70.4670153 131.7476316
  20.1300012  64.2594997 127.1849988  19.6830012  65.1054997 127.1659988
  19.5690012  63.6794997 126.6689988  19.9929900  64.2969916 127.1126801
  20.8410012  66.4214997 129.3099988  21.0540012  65.6514997 129.8379988
  21.5790012  66.5104997 128.7069988  20.9699044  66.3281968 129.3007123
  31.0460012  74.5784997 130.1769988  31.6660012  73.9014997 129.9039988
  30.8380012  74.3604997 131.0859988  31.1026726  74.4564800 130.2624812
  28.6180012  68.9674997 132.0699988  28.9220012  68.2814997 131.4749988
  29.3390012  69.0854997 132.6879988  28.7570671  68.8896304 132.0721816
  37.2810012  60.5684997 132.9309988  37.3300012  61.1784997 133.6659988
  37.7060012  61.0294997 132.2079988  37.3451746  60.7143796 132.9339175
  31.7590012  63.3614997 132.3969988  31.9010012  62.4154997 132.4179988
  31.6520012  63.5684997 131.4689988  31.7639919  63.2598246 132.2743408
  24.9130012  61.4624997 129.6699988  24.9570012  62.3224997 129.2509988
  24.4560012  60.9104997 129.0359988  24.8572240  61.5054422 129.5269864
  32.6360012  61.5934997 128.0709988  33.2820012  61.2644997 128.6949988
  33.1460012  62.1114997 127.4479988  32.7934299  61.6184450 128.0722731
  21.5340012  63.8594997 130.4319988  22.1870012  63.3094997 130.8639988
  21.5580012  63.5854997 129.5149988  21.6266683  63.7471466 130.3672123
  26.6900012  65.4094997 129.6469988  27.3060012  64.8834997 130.1569988
  26.1040012  64.7694997 129.2439988  26.6950810  65.2509208 129.6623173
  37.6720012  62.0464997 135.1659988  36.9840012  62.7044997 135.0709988
  37.6880012  61.8494997 136.1029988  37.5799540  62.1099819 135.2795990
  23.7240012  60.3804997 133.7439988  23.5050012  60.9104997 132.9779988
  23.0560012  60.6074997 134.3909988  23.6037600  60.4836906 133.7266379
  31.0930012  69.8804997 127.2879988  30.7970012  69.5584997 126.4369988
  30.7680012  70.7804997 127.3289988  31.0086371  69.9580215 127.1771801
  26.2930012  68.0564997 134.0309988  25.5530012  68.6544997 134.1349988
  27.0070012  68.6104997 133.7159988  26.2882237  68.2132831 134.0026465
  34.4000012  60.8844997 130.0509988  34.1840012  60.1184997 130.5839988
  35.0550012  61.3564997 130.5639988  34.4590632  60.8435889 130.1932861
  23.3170012  62.2724997 131.6959988  23.9310012  62.9054997 132.0689988
  23.8290012  61.8004997 131.0399988  23.4701981  62.2952267 131.6582908
  24.7000012  70.0204997 134.8179988  24.6950012  70.9004997 134.4399988
  23.8470012  69.9374997 135.2429988  24.5839464  70.1296117 134.8237907
  20.8210012  69.6914997 125.5999988  20.5490012  69.9204997 124.7119988
  20.8670012  70.5294997 126.0609988  20.7899482  69.8361318 125.5406273
  34.4460012  71.3134997 132.3129988  33.5050012  71.3714997 132.4749988
  34.7230012  72.2194997 132.1759988  34.3544679  71.4439443 132.3166815
  34.7470012  59.5994997 133.7309988  34.0110012  60.2104997 133.6929988
  35.4300012  60.0144997 133.2039988  34.7386541  59.7391374 133.6545832
  27.7500012  57.6864997 131.1959988  27.6330012  56.7374997 131.1419988
  26.8950012  58.0184997 131.4699988  27.6184212  57.6015571 131.2256497
  32.6980012  73.0944997 128.9379988  33.1240012  72.3874997 128.4529988
  33.0150012  73.8954997 128.5219988  32.7991683  73.1061017 128.8153680
  33.8580012  70.9954997 127.4469988  33.6000012  70.3054997 126.8359988
  33.9290012  70.5524997 128.2929988  33.8322856  70.8412124 127.4776885
  35.5440012  69.5614997 135.9239988  35.6840012  68.9704997 135.1849988
  35.7110012  70.4344997 135.5679988  35.5857411  69.5985428 135.7746894
  30.0170012  66.5234997 125.6969988  29.3050012  67.0584997 125.3449988
  30.7080012  66.5794997 125.0369988  30.0130132  66.6042543 125.5596289
  30.0700012  64.9814997 122.7359988  30.7710012  65.0034997 123.3869988
  30.3730012  64.3534997 122.0789988  30.2068133  64.8997070 122.7363369
  37.3860012  65.9014997 133.9899988  36.7330012  66.5964997 134.0799988
  37.8510012  66.1114997 133.1809988  37.3595274  66.0250643 133.8928462
  33.4220012  66.7334997 126.6489988  32.6900012  66.9614997 127.2219988
  33.8700012  66.0194997 127.1029988  33.3822725  66.6682145 126.7888816
  33.3200012  64.9074997 135.7159988  33.4000012  65.6704997 136.2879988
  32.7180012  65.1864997 135.0259988  33.2495756  65.0497134 135.7010589
  25.0680012  67.3634997 128.5309988  24.7370012  66.9934997 127.7129988
  25.6560012  66.6934997 128.8779988  25.1021873  67.2221156 128.4658102
  26.4340012  70.7914997 131.2119988  26.3400012  70.2134997 130.4559988
  27.1640012  70.4204997 131.7089988  26.5197387  70.6621663 131.1755342
  25.4340012  66.1324997 132.1649988  26.0000012  66.2534997 131.4019988
  25.7530012  66.7694997 132.8029988  25.5545474  66.2352219 132.1469862
  31.7430012  71.6354997 132.8989988  31.5030012  72.2974997 133.5469988
  31.5450012  70.8014997 133.3239988  31.6833808  71.6133134 133.0451524
  26.3140012  70.5314997 136.8819988  26.0030012  71.3134997 137.3369988
  25.6640012  70.3784997 136.1959988  26.1835558  70.6179105 136.8515871
  32.2930012  65.8954997 124.3339988  32.8730012  66.0454997 125.0809988
  32.7070012  66.3664997 123.6099988  32.4282997  65.9796578 124.3384058
  23.2340012  66.7294997 136.1099988  23.3050012  67.3804997 136.8089988
  22.3440012  66.8324997 135.7749988  23.1233005  66.8325427 136.1603495
  30.0200012  72.6324997 127.7689988  30.4940012  72.9274997 128.5459988
  29.4570012  73.3704997 127.5359988  30.0088184  72.7727247 127.8439628
  24.5540012  72.6034997 137.6449988  24.5610012  72.4674997 136.6979988
  23.6380012  72.4854997 137.8969988  24.4311714  72.5689430 137.5494666
  35.9920012  57.6454997 124.1469988  35.0920012  57.7844997 124.4419988
  36.2440012  58.4764997 123.7449988  35.9028702  57.7769074 124.1330205
  24.0580012  66.4334997 126.1199988  23.7660012  67.2014997 125.6299988
  23.3840012  65.7734997 125.9579988  23.9268111  66.4495587 126.0308978
  37.1810012  72.0114997 122.5229988  37.2550012  72.9504997 122.6939988
  38.0870012  71.7064997 122.4669988  37.3135100  72.0986722 122.5388119
  20.1510012  68.7964997 134.9349988  19.6500012  68.7684997 134.1199988
  20.1560012  67.8904997 135.2449988  20.0830944  68.6702396 134.8653226
  19.9010012  71.5764997 131.8189988  20.8470012  71.4324997 131.7999988
  19.7890012  72.3604997 132.3559988  20.0152727  71.6628046 131.8890072
  38.0990012  72.2424997 137.5019988  38.0500012  71.2874997 137.4649988
  37.2720012  72.5104997 137.9029988  37.9804940  72.1478998 137.5511375
  29.0780012  71.8164997 136.3779988  29.1650012  72.6424997 136.8529988
  28.2140012  71.4864997 136.6269988  28.9731964  71.8849878 136.4766549
  29.4920012  75.5884997 126.1839988  29.4170012  75.4674997 125.2369988
  29.5250012  76.5384997 126.3019988  29.4862068  75.7002646 126.0704967
  23.1450012  74.3774997 127.9649988  23.2980012  74.0294997 128.8429988
  22.2950012  74.0214997 127.7099988  23.0509166  74.2816216 128.0508079
  32.5940012  74.7424997 123.1859988  32.9690012  73.9984997 122.7149988
  32.5980012  74.4724997 124.1049988  32.6459125  74.6040986 123.2456483
  32.2630012  74.6684997 125.9349988  31.3270012  74.7684997 126.1139988
  32.5430012  73.9594997 126.5139988  32.1729553  74.5863406 126.0377087
  35.2510012  63.7354997 137.9819988  34.8440012  64.2164997 137.2609988
  35.2920012  62.8304997 137.6739988  35.2008437  63.6789374 137.8416683
  22.4000012  70.1194997 135.9789988  22.6160012  69.7584997 136.8379988
  21.5450012  69.7454997 135.7689988  22.3139292  70.0194111 136.0683386
  25.0190012  58.5894997 131.9739988  24.1570012  58.5024997 131.5659988
  24.9960012  59.4454997 132.4019988  24.8980409  58.6932883 131.9760589
  29.6820012  58.3114997 135.3489988  30.1020012  57.8964997 136.1019988
  28.7490012  58.1334997 135.4659988  29.6133644  58.2305900 135.4679539
  33.0080012  62.0674997 136.2019988  32.4940012  61.9414997 136.9999988
  32.8530012  62.9794997 135.9579988  32.9166852  62.1736132 136.2782158
  33.7710012  66.9284997 121.9639988  33.8130012  66.7054997 121.0339988
  34.6200012  67.3274997 122.1529988  33.8915280  66.9519438 121.8623554
  29.3430012  60.8044997 122.6339988  29.0900012  60.8234997 123.5569988
  29.0870012  59.9324997 122.3319988  29.2737481  60.6892558 122.7196175
  25.1100012  63.5554997 133.0689988  24.4680012  63.5144997 133.7779988
  25.1470012  64.4814997 132.8309988  25.0270664  63.6751430 133.1339219
  25.1070012  63.7764997 127.9809988  24.2140012  63.4354997 127.9219988
  25.5570012  63.3994997 127.2249988  25.0458130  63.6789631 127.8707702
  30.6420012  64.1924997 126.7979988  30.2330012  65.0074997 126.5069988
  31.3630012  64.0524997 126.1839988  30.6834537  64.2852018 126.6751342
  29.7440012  64.3674997 138.2859988  29.1820012  63.6634997 138.6069988
  30.5710012  64.2474997 138.7539988  29.7787095  64.2547883 138.3932330
  31.6470012  63.6384997 129.6119988  31.4520012  64.2434997 128.8969988
  31.8280012  62.8044997 129.1779988  31.6447614  63.6086300 129.4554405
  22.8600012  63.8754997 134.9359988  22.8220012  64.2754997 135.8049988
  22.3690012  63.0584997 135.0269988  22.7884684  63.8198069 135.0671059
  26.2260012  61.2494997 121.7349988  25.7950012  60.8044997 122.4649988
  25.5080012  61.6214997 121.2229988  26.0699438  61.2388940 121.7656799
  19.4680012  60.9914997 128.7869988  20.0990012  60.9624997 129.5059988
  19.9170012  60.5664997 128.0559988  19.6150918  60.9300836 128.7866441
  20.7420012  61.7374997 124.2109988  21.2160012  62.3284997 123.6259988
  20.0250012  62.2684997 124.5579988  20.7099341  61.8900867 124.1778836
  30.9110012  65.2764997 134.2829988  31.2340012  64.6454997 133.6399988
  30.4710012  64.7414997 134.9439988  30.8957484  65.1178387 134.2843198
  27.6880012  61.2034997 129.0669988  26.7770012  61.2604997 129.3559988
  28.1940012  61.1434997 129.8779988  27.6316899  61.2031941 129.2161184
  22.5170012  62.8324997 127.8939988  21.6270012  62.9324997 127.5539988
  22.8130012  61.9904997 127.5479988  22.4352823  62.7323545 127.8007213
  26.1700012  62.8324997 125.5509988  27.1010012  62.9614997 125.7289988
  25.9550012  63.5024997 124.9009988  26.2684247  62.9406565 125.4875747
  32.0930012  60.4384997 132.3319988  31.4170012  60.5694997 132.9959988
  31.6080012  60.2834997 131.5209988  31.9347146  60.4355157 132.3134469
  24.8440012  64.0274997 123.1169988  24.3010012  63.6474997 122.4259988
  25.6770012  64.2214997 122.6889988  24.8823631  64.0017125 122.9644501
  35.3810012  76.1104997 138.6079988  35.5810012  76.5344997 137.7739988
  36.0360012  76.4534997 139.2149988  35.4970072  76.2149857 138.5758592
  22.9790012  68.5844997 138.2159988  23.7110012  68.8384997 138.7779988
  22.1990012  68.7884997 138.7319988  22.9737073  68.6468160 138.3626151
  29.0080012  63.9914997 130.9539988  29.5730012  63.4444997 130.4069988
  28.8610012  63.4694997 131.7429988  29.0653380  63.8462259 130.9858695
  24.0100012  60.1274997 127.3729988  23.6930012  59.2254997 127.3369988
  24.7920012  60.1294997 126.8199988  24.0722408  60.0042474 127.2933569
  27.6350012  62.3794997 133.3679988  26.7990012  62.8334997 133.4789988
  28.1590012  62.6554997 134.1199988  27.5915416  62.4788660 133.4848119
  28.1790012  68.5924997 125.0529988  27.4340012  68.0854997 124.7309988
  28.0450012  68.6414997 125.9999988  28.0588776  68.5296940 125.1368647
  35.3290012  67.7254997 133.8399988  35.9710012  68.1824997 133.2959988
  34.4990012  67.8384997 133.3769988  35.3045963  67.8032704 133.7030177
  32.0770012  61.4064997 123.2519988  31.1380012  61.5184997 123.1009988
  32.3740012  62.2634997 123.5589988  31.9887583  61.5375981 123.2728337
  29.6980012  68.7764997 136.2899988  29.3530012  68.3954997 137.0969988
  29.4980012  69.7104997 136.3609988  29.6237527  68.8505135 136.4100689
  32.7950012  63.2734997 124.9129988  33.6870012  63.1364997 125.2319988
  32.8520012  64.0644997 124.3759988  32.9246504  63.3616052 124.8840818
  23.3040012  67.8874997 130.8229988  24.0490012  67.8854997 130.2219988
  23.3820012  67.0644997 131.3039988  23.4164995  67.7758887 130.8058282
  30.3050012  70.0514997 124.0789988  30.0090012  70.8774997 124.4599988
  29.6020012  69.4314997 124.2749988  30.1694914  70.0808199 124.1576443
  20.3120012  66.3484997 136.1379988  20.5350012  65.9304997 136.9699988
  19.7100012  65.7354997 135.7149988  20.2611759  66.2084668 136.1947022
  27.3280012  65.8654997 138.3509988  27.0320012  65.6994997 137.4559988
  28.2600012  65.6454997 138.3399988  27.4134166  65.8130640 138.2270536
  31.9490012  71.2384997 136.2409988  31.0480012  71.4214997 135.9729988
  31.9830012  71.4974997 137.1609988  31.8303139  71.2985849 136.3288099
  37.6800012  63.4834997 124.6079988  37.1260012  63.0874997 123.9359988
  37.7800012  64.3934997 124.3299988  37.6177059  63.5523586 124.4784401
  37.6430012  69.2834997 137.4449988  36.7920012  69.5214997 137.0779988
  38.2340012  69.2664997 136.6919988  37.6062487  69.3138258 137.2928893
  35.9750012  72.2694997 125.0729988  35.6020012  71.4434997 125.3819988
  36.2530012  72.0864997 124.1749988  35.9615222  72.1317430 124.9939473
  33.1360012  67.0774997 132.0939988  32.2070012  66.8454997 132.0669988
  33.5870012  66.3004997 131.7639988  33.0699216  66.9407238 132.0456917
  25.6790012  71.4054997 128.2269988  26.2060012  72.1784997 128.0269988
  24.7990012  71.6304997 127.9249988  25.6322031  71.5417545 128.1587912
  21.4340012  66.2674997 122.8139988  22.0500012  66.8944997 123.1939988
  20.5720012  66.5834997 123.0859988  21.4017698  66.3959430 122.9027183
  27.1060012  69.0684997 127.8029988  26.8650012  69.9934997 127.8449988
  26.3650012  68.6094997 128.1999988  26.9729225  69.1330933 127.8623742
  27.6210012  73.2174997 134.1189988  27.9830012  74.0724997 133.8849988
  28.1520012  72.9254997 134.8589988  27.7424473  73.2951060 134.1870855
  25.7890012  74.0904997 127.3489988  24.8390012  74.1954997 127.3999988
  26.1410012  74.9104997 127.6929988  25.7064195  74.2158800 127.4025502
  31.1650012  69.3164997 133.8189988  30.7390012  69.0894997 134.6459988
  31.7450012  68.5784997 133.6369988  31.1851868  69.1855299 133.9075830
  33.3680012  70.2454997 122.8929988  33.7210012  69.8654997 123.6969988
  32.4190012  70.1524997 122.9799988  33.2880918  70.1808956 123.0148532
  33.8230012  73.8684997 136.2889988  33.2220012  73.3134997 135.7929988
  34.1050012  74.5354997 135.6619988  33.7788804  73.8826625 136.1364849
  37.8710012  74.7254997 123.0939988  38.6150012  75.3114997 122.9539988
  37.1770012  75.2934997 123.4269988  37.8789899  74.8825798 123.1198778
  21.9460012  61.1014997 135.6959988  21.0530012  61.4404997 135.6279988
  21.8470012  60.2464997 136.1139988  21.8104164  61.0322588 135.7432235
  34.2340012  68.9184997 125.1199988  33.9560012  68.1904997 125.6759988
  35.1610012  69.0374997 125.3249988  34.3213124  68.8348802 125.2238845
  21.5970012  72.9064997 134.1309988  21.8140012  71.9744997 134.0999988
  21.8430012  73.1804997 135.0139988  21.6599549  72.8160636 134.2461763
  27.4590012  71.3574997 121.3399988  27.6980012  70.6094997 120.7929988
  27.1900012  70.9694997 122.1729988  27.4553675  71.2026638 121.3776865
  26.3960012  70.9274997 123.7959988  26.5420012  70.4074997 124.5859988
  26.3930012  71.8344997 124.1029988  26.4155792  70.9788842 123.9456117
  22.8490012  68.1804997 124.3069988  22.1630012  68.5324997 124.8739988
  23.3710012  68.9434997 124.0599988  22.8256852  68.3318578 124.3512118
  30.6800012  60.8424997 134.5859988  31.3790012  60.9164997 135.2359988
  30.2990012  59.9784997 134.7399988  30.7241767  60.7357624 134.6958322
  31.4650012  60.4944997 125.6829988  31.6850012  60.9664997 124.8799988
  32.0230012  60.8894997 126.3529988  31.5704968  60.6124285 125.6637331
  29.1330012  72.6254997 124.5459988  28.3170012  73.1224997 124.5979988
  29.6630012  73.1004997 123.9059988  29.0929161  72.7577722 124.4665956
  28.6650012  62.2224997 126.5179988  29.4770012  62.7274997 126.5639988
  28.4200012  62.0774997 127.4319988  28.7430520  62.2720375 126.6478517
  29.2000012  63.2084997 135.7019988  29.3190012  63.7824997 136.4599988
  29.8560012  62.5204997 135.8169988  29.3049025  63.1939858 135.8211321
  29.5480012  59.3034997 127.4559988  29.2020012  59.9214997 128.0999988
  30.2070012  59.8044997 126.9739988  29.5896968  59.4556278 127.4789383
  26.4720012  73.6694997 124.5269988  26.6320012  74.4684997 124.0269988
  26.2740012  73.9754997 125.4119988  26.4671637  73.8204020 124.5781144
  25.2060012  60.3664997 124.1429988  25.1230012  61.2554997 124.4899988
  26.0960012  60.1014997 124.3749988  25.3149469  60.4521430 124.2217626
  35.4050012  61.1154997 136.5369988  34.4880012  61.3784997 136.4499988
  35.7400012  61.1124997 135.6409988  35.3248613  61.1510761 136.4038837
  34.0070012  64.8664997 130.6329988  33.2090012  64.4514997 130.3049988
  34.4520012  64.1754997 131.1239988  33.9579885  64.7163543 130.6544889
  23.4650012  70.7944997 123.2039988  24.0570012  71.4934997 123.4799988
  23.9240012  70.3614997 122.4839988  23.6081142  70.8317049 123.1444830
  21.7810012  63.4584997 122.3199988  21.7360012  64.3974997 122.4979988
  20.8930012  63.2224997 122.0499988  21.6548574  63.5551892 122.3078912
  35.0930012  74.1224997 132.2559988  34.9380012  74.8004997 131.5979988
  36.0260012  74.1944997 132.4589988  35.1978657  74.2249546 132.1934360
  22.5890012  58.2404997 130.9929988  22.3600012  58.2994997 130.0649988
  22.1460012  57.4484997 131.2989988  22.4978530  58.1415753 130.9074786
  21.5190012  72.1804997 127.1529988  20.6870012  72.6534997 127.1799988
  22.0650012  72.6904997 126.5549988  21.4790352  72.3141332 127.0758463
  20.8070012  74.7934997 138.4829988  21.3480012  74.5764997 139.2429988
  20.3260012  73.9874997 138.2929988  20.8159951  74.6549270 138.5612576
  25.4050012  73.7124997 140.1029988  26.1720012  73.2534997 140.4439988
  25.3830012  73.4864997 139.1739988  25.5071275  73.6190186 140.0240101
  29.4970012  73.2204997 121.4789988  28.8530012  72.5894997 121.7999988
  30.2590012  72.6894997 121.2469988  29.5118077  73.0622920 121.4916011
  31.9820012  72.0924997 138.8329988  31.6310012  71.2364997 139.0759988
  32.7080012  72.2354997 139.4399988  32.0320769  71.9945636 138.9483619
  34.1010012  73.0374997 121.7119988  34.3840012  72.2434997 122.1649988
  34.8410012  73.2704997 121.1519988  34.2398006  72.9603376 121.6982715
  20.7140012  68.6034997 139.4369988  20.8580012  67.7014997 139.1509988
  19.9420012  68.8894997 138.9499988  20.6292753  68.5186816 139.3319505
  25.0560012  68.9474997 121.5699988  25.1200012  68.1534997 122.1009988
  25.7090012  68.8284997 120.8799988  25.1530241  68.8227148 121.5494317
  27.3700012  68.5734997 138.8699988  27.0410012  68.8444997 138.0129988
  27.5220012  67.6324997 138.7829988  27.3454809  68.4833862 138.7408244
  30.4080012  69.9944997 121.3059988  30.1390012  70.1744997 122.2069988
  30.2020012  69.0684997 121.1739988  30.3433427  69.8940261 121.4115073
  33.1040012  68.4894997 136.2529988  33.8500012  69.0774997 136.1339988
  32.3470012  69.0714997 136.3169988  33.1037820  68.6487143 136.2453590
  21.5470012  65.8034997 138.8569988  21.9550012  64.9464997 138.7359988
  21.2870012  65.8184997 139.7779988  21.5677568  65.6880807 138.9649588
  26.2050012  66.9194997 123.8759988  25.7450012  66.4354997 124.5619988
  26.4600012  66.2514997 123.2399988  26.1764902  66.7628731 123.8839334
  25.4940012  64.8124997 136.2319988  24.8760012  65.4874997 136.5119988
  25.8380012  65.1334997 135.3979988  25.4559132  64.9482411 136.1576262
  27.2760012  65.1624997 122.1379988  27.0960012  65.0084997 121.2109988
  28.2260012  65.2704997 122.1829988  27.3797776  65.1560175 122.0171843
  30.5140012  67.2844997 139.5089988  31.4670012  67.3674997 139.4819988
  30.3530012  66.5724997 140.1289988  30.6226426  67.1996746 139.5890579
  36.6660012  67.5174997 121.5839988  36.3920012  67.0924997 120.7709988
  36.7050012  68.4484997 121.3669988  36.6337699  67.5852484 121.4433610
  25.8330012  62.1674997 137.3139988  25.9830012  61.4384997 136.7119988
  25.8360012  62.9444997 136.7549988  25.8539302  62.1727851 137.1560692
  26.2460012  60.5374997 134.8069988  26.7820012  60.9884997 134.1549988
  25.3940012  60.4294997 134.3839988  26.2042178  60.5846390 134.6605756
  27.8280012  65.9764997 135.0459988  28.5780012  65.8204997 134.4729988
  27.4890012  66.8284997 134.7709988  27.8848921  66.0702968 134.9303561
  32.2430012  63.7914997 140.0749988  32.4360012  62.8604997 139.9629988
  33.1010012  64.2164997 140.0639988  32.3852934  63.7216531 140.0582031
  33.5600012  66.5804997 138.1519988  33.2790012  67.2894997 137.5739988
  34.5030012  66.5074997 138.0009988  33.6489291  66.6676711 138.0524967
  24.3120012  63.3654997 139.2259988  23.5450012  62.8334997 139.0149988
  24.9910012  63.0554997 138.6259988  24.2987877  63.2508300 139.1160716
  27.0520012  57.9934997 135.2379988  26.9530012  58.9404997 135.1329988
  26.3090012  57.6214997 134.7619988  26.9381184  58.0725863 135.1593621
  28.3160012  62.3154997 138.8019988  28.0800012  62.0954997 139.7029988
  27.5320012  62.1084997 138.2919988  28.1778504  62.2574586 138.8563431
  31.0310012  61.4424997 137.8769988  30.0840012  61.4744997 138.0099988
  31.3440012  60.8174997 138.5309988  30.9436707  61.3623998 137.9836060
  32.6650012  60.0764997 139.8829988  32.5690012  59.1244997 139.8769988
  32.3440012  60.3454997 140.7429988  32.6084070  59.9824035 139.9985441
  22.4920012  61.2864997 138.9299988  22.7040012  60.5794997 138.3199988
  22.3810012  60.8484997 139.7739988  22.5059721  61.1307084 138.9606843
  27.2730012  57.2874997 137.9089988  27.9850012  56.6474997 137.8949988
  27.1720012  57.5544997 136.9959988  27.3568066  57.2360079 137.7835677
  27.6270012  58.9704997 139.9629988  27.4950012  58.4944997 139.1429988
  27.0280012  59.7144997 139.9079988  27.5279071  59.0059618 139.8432886
  27.1730012  75.8534997 123.1389988  28.1060012  76.0114997 123.2829988
  26.9090012  76.5284997 122.5149988  27.2649888  75.9664510 123.0742842
  20.7420012  70.4894997 122.6219988  21.6560012  70.5684997 122.8959988
  20.7490012  69.8024997 121.9559988  20.8681131  70.4073961 122.5694393
  19.3910012  75.8824997 127.6999988  18.7440012  75.4204997 127.1669988
  19.7450012  75.2104997 128.2819988  19.3503849  75.7284723 127.7057959
  20.2610012  73.9634997 129.5039988  19.9260012  73.0834997 129.6759988
  20.4830012  74.3084997 130.3689988  20.2451783  73.8897500 129.6444208
  37.8090012  74.7724997 132.4849988  37.7880012  74.9574997 133.4239988
  38.5000012  75.3414997 132.1439988  37.8994618  74.8746606 132.5673864
  37.3730012  74.3404997 135.4069988  36.8850012  73.6044997 135.0349988
  37.9220012  73.9464997 136.0849988  37.3804820  74.1865889 135.4477813
  35.8230012  70.1294997 140.0449988  34.9570012  70.0244997 140.4389988
  36.2000012  70.8884997 140.4909988  35.7553308  70.2176900 140.1592393
  37.1240012  68.3864997 125.5589988  37.9740012  68.8074997 125.6859988
  37.1300012  67.6464997 126.1659988  37.2411372  68.3440803 125.6584344
  37.5190012  66.4394997 127.3819988  36.7920012  65.9604997 127.7799988
  38.1000012  66.6454997 128.1149988  37.4980473  66.4018103 127.5354528
  37.2780012  69.2244997 132.3299988  38.1110012  68.8464997 132.0499988
  37.3900012  70.1674997 132.2109988  37.4072647  69.3002218 132.2755487
  35.7640012  72.1024997 134.6369988  35.1170012  72.4274997 135.2629988
  35.2470012  71.6624997 133.9629988  35.6054029  72.0875004 134.6315827
  37.7870012  66.3404997 123.7739988  37.2650012  66.6974997 123.0549988
  37.7540012  67.0154997 124.4519988  37.7111634  66.4805413 123.7673145
  36.1360012  63.5804997 122.3239988  36.2320012  64.2474997 121.6439988
  35.9960012  62.7644997 121.8429988  36.1302272  63.5615655 122.1658347
  35.3050012  64.9604997 127.9449988  35.1550012  64.0154997 127.9249988
  34.9520012  65.2414997 128.7889988  35.2367448  64.8691481 128.0563705
  20.3410012  67.0384997 131.9559988  20.5250012  66.9564997 131.0199988
  21.1900012  66.9144997 132.3789988  20.4810151  67.0105073 131.8851451
  36.1620012  66.9304997 137.5839988  36.7450012  66.1964997 137.7759988
  36.7260012  67.7024997 137.6309988  36.3179769  66.9344227 137.6166159
  37.6580012  64.8334997 138.2689988  36.7950012  64.4544997 138.1029988
  38.2630012  64.0944997 138.1939988  37.6216119  64.6818268 138.2361528
  35.3830012  60.9884997 121.4419988  35.9940012  60.6174997 122.0789988
  34.5470012  60.5674997 121.6379988  35.3535032  60.8807554 121.5557035
  35.0160012  62.5434997 126.4079988  35.2960012  61.6364997 126.5319988
  35.7750012  62.9774997 126.0189988  35.1569277  62.4780942 126.3723682
  35.6280012  63.1244997 131.8439988  36.5610012  63.3364997 131.8089988
  35.3930012  63.2264997 132.7659988  35.7239244  63.1673100 131.9638892
  35.6570012  63.8614997 134.6199988  34.8140012  64.1294997 134.9859988
  36.0990012  64.6834997 134.4089988  35.6014158  64.0093291 134.6415491
  19.9380012  62.3094997 138.0969988  20.8580012  62.1874997 138.3329988
  19.4890012  61.5594997 138.4859988  20.0031580  62.1913727 138.1819006
  37.9400012  57.8414997 139.9729988  38.2900012  57.1874997 139.3679988
  38.0870012  58.6784997 139.5329988  38.0077887  57.8651548 139.8306858
  35.6290012  59.8064997 126.4559988  35.8120012  59.3574997 127.2819988
  35.0300012  59.2214997 125.9929988  35.5730202  59.6659975 126.5063275
  21.1590012  60.6214997 130.9879988  21.6050012  59.8294997 131.2899988
  21.6260012  61.3374997 131.4179988  21.2830831  60.6100685 131.0874006
  19.4630012  63.6204997 132.0569988  19.9550012  63.3994997 131.2659988
  19.8260012  64.4614997 132.3379988  19.5793126  63.7038357 131.9867531
  37.4600012  59.9504997 138.3219988  36.5420012  60.2214997 138.2869988
  37.5830012  59.4154997 137.5379988  37.3509729  59.9152508 138.2111923
  37.4960012  59.8734997 122.9839988  37.9080012  59.1524997 122.5089988
  38.1780012  60.5434997 123.0429988  37.6445885  59.8652368 122.9268915
  19.7770012  59.8784997 126.1109988  18.8520012  60.0874997 125.9819988
  20.2310012  60.3624997 125.4209988  19.7117292  59.9725343 126.0000720
  34.5480012  74.8624997 128.0569988  35.2000012  74.5154997 127.4489988
  35.0580012  75.3514997 128.7029988  34.7062637  74.8810597 128.0610236
  19.7410012  58.6164997 134.4549988  19.0760012  58.3704997 135.0989988
  19.2980012  59.2384997 133.8779988  19.5901318  58.6669410 134.4650898
  21.9330012  71.7914997 138.5999988  21.1120012  71.9664997 138.1389988
  21.6800012  71.7184997 139.5199988  21.7865585  71.8055544 138.6613561
  24.8870012  72.7664997 134.8579988  24.4620012  73.5754997 134.5759988
  25.7910012  72.8514997 134.5559988  24.9509975  72.8889300 134.7784816
  29.1980012  74.1654997 137.8179988  29.3830012  73.8314997 138.6959988
  30.0440012  74.4744997 137.4959988  29.3377539  74.1616047 137.8945605
  31.5430012  75.4514997 137.0619988  32.2200012  74.8184997 136.8219988
  31.8650012  75.8524997 137.8689988  31.6791637  75.4191154 137.1382793
  36.4600012  58.0404997 136.1409988  35.6480012  58.3654997 135.7539988
  36.6930012  57.2804997 135.6079988  36.3802203  57.9822758 136.0158880
  22.2890012  76.0224997 134.9059988  21.5680012  76.4624997 134.4549988
  21.9230012  75.7714997 135.7539988  22.1409651  76.0487242 134.9589640
  24.7560012  75.6224997 133.9359988  23.8910012  75.6944997 134.3399988
  24.7010012  76.1694997 133.1519988  24.6302085  75.7062685 133.8853362
  29.4660012  75.5104997 133.1109988  29.0100012  76.0394997 132.4569988
  29.6290012  76.1134997 133.8359988  29.4256068  75.6644607 133.1194838
  31.7940012  74.3884997 134.0559988  30.8890012  74.5534997 133.7899988
  32.2230012  75.2414997 133.9909988  31.7281324  74.5264339 134.0107976
  34.3980012  75.9584997 134.3509988  34.2160012  76.8744997 134.1409988
  34.5750012  75.5484997 133.5049988  34.3970210  76.0284822 134.2077885
  21.7030012  74.6454997 131.8159988  21.6850012  74.2204997 132.6729988
  22.5080012  74.3274997 131.4069988  21.8093529  74.5443013 131.8780946
  23.8450012  73.3554997 130.4709988  23.6260012  72.4394997 130.6409988
  24.6690012  73.4954997 130.9369988  23.9264420  73.2490520 130.5572774
  26.3820012  73.8254997 131.3199988  26.5950012  72.9374997 131.0329988
  26.4460012  73.7914997 132.2739988  26.4198231  73.6993102 131.4097397
  29.8900012  59.4894997 130.4639988  29.2160012  58.8604997 130.7199988
  30.4540012  59.0054997 129.8609988  29.8739230  59.3378744 130.4175340
  35.0330012  57.5974997 130.5769988  35.6370012  58.1444997 130.0749988
  34.1630012  57.9164997 130.3359988  34.9981208  57.7155137 130.4756886
  36.7600012  58.7354997 128.9099988  37.3720012  58.2214997 128.3829988
  37.1420012  59.6134997 128.9329988  36.8953371  58.7837866 128.8410041
  22.2170012  58.1234997 128.2859988  21.4400012  57.8894997 127.7789988
  22.7470012  57.3264997 128.2949988  22.1822330  57.9836988 128.2177742
  21.0530012  57.9214997 124.0899988  21.4920012  58.5324997 123.4979988
  20.4200012  58.4594997 124.5639988  21.0274514  58.0779257 124.0730930
  26.7960012  58.0504997 128.0999988  27.6710012  58.4384997 128.0699988
  26.6600012  57.8354997 129.0219988  26.8973695  58.0745184 128.2206440
  32.3530012  58.0804997 129.7489988  32.4290012  58.1754997 128.7989988
  32.0780012  57.1724997 129.8779988  32.3262321  57.9707867 129.6365079
  33.7060012  58.1064997 125.4409988  33.0040012  58.7214997 125.2309988
  33.2620012  57.2684997 125.5719988  33.5496450  58.0775639 125.4299000
  20.9540012  73.8694997 124.9869988  20.2690012  73.8314997 124.3199988
  20.9580012  74.7824997 125.2759988  20.8606998  73.9876733 124.9346771
  22.9140012  59.8374997 122.5319988  23.4060012  59.2074997 122.0049988
  23.5380012  60.1334997 123.1949988  23.0655688  59.7913804 122.5495482
  27.9400012  60.1304997 124.9889988  28.1180012  59.4844997 125.6719988
  27.8870012  60.9644997 125.4559988  27.9571999  60.1548009 125.1455917
  29.8190012  75.0794997 123.3849988  30.6850012  75.4454997 123.2069988
  29.5720012  74.6394997 122.5709988  29.9042392  75.0701756 123.2506289
  36.5280012  74.6424997 126.0639988  36.3330012  73.8944997 125.4989988
  36.4890012  75.4004997 125.4809988  36.4960380  74.6426099 125.9078384
  22.1750012  58.6374997 137.8039988  21.8090012  57.8724997 138.2459988
  23.0880012  58.6664997 138.0899988  22.2482736  58.5365640 137.9032502
  24.1480012  57.9884997 139.3399988  25.0460012  57.7144997 139.1549988
  23.7610012  57.2454997 139.8039988  24.2186612  57.8505914 139.3773643
  22.7720012  74.7894997 122.0129988  22.5050012  75.0764997 122.8859988
  23.5440012  74.2434997 122.1649988  22.8397488  74.7550294 122.1531050
  32.5690012  57.3204997 139.5219988  32.6460012  56.8944997 140.3759988
  33.4630012  57.3344997 139.1789988  32.7003428  57.2640879 139.5925310
  35.7450012  73.3934997 138.2139988  34.9630012  73.2074997 137.6939988
  35.6730012  74.3224997 138.4319988  35.6282274  73.4936643 138.1723018
  50.1510012  67.2794997 128.2449988  50.2400012  68.2234997 128.1129988
  49.5130012  67.0044997 127.5869988  50.0769081  67.3714830 128.1379614
  49.0840012  66.5344997 131.6639988  49.0460012  65.8884997 132.3689988
  48.7620012  66.0684997 130.8929988  49.0352333  66.3829408 131.6562978
  41.4530012  66.1494997 133.2569988  41.4940012  65.5234997 133.9799988
  42.1560012  66.7734997 133.4389988  41.5536363  66.1481196 133.3806044
  52.7900012  69.4734997 129.9649988  52.3500012  68.7534997 130.4159988
  52.7770012  70.1944997 130.5949988  52.7280226  69.4723731 130.1118494
  42.3760012  70.5994997 131.7919988  42.0070012  69.7974997 131.4219988
  43.3170012  70.4304997 131.8379988  42.4527289  70.4670153 131.7476316
  38.9860012  64.2594997 127.1849988  38.5390012  65.1054997 127.1659988
  38.4250012  63.6794997 126.6689988  38.8489900  64.2969916 127.1126801
  39.6970012  66.4214997 129.3099988  39.9100012  65.6514997 129.8379988
  40.4350012  66.5104997 128.7069988  39.8259044  66.3281968 129.3007123
  49.9020012  74.5784997 130.1769988  50.5220012  73.9014997 129.9039988
  49.6940012  74.3604997 131.0859988  49.9586726  74.4564800 130.2624812
  47.4740012  68.9674997 132.0699988  47.7780012  68.2814997 131.4749988
  48.1950012  69.0854997 132.6879988  47.6130671  68.8896305 132.0721816
  56.1370012  60.5684997 132.9309988  56.1860012  61.1784997 133.6659988
  56.5620012  61.0294997 132.2079988  56.2011746  60.7143796 132.9339175
  50.6150012  63.3614997 132.3969988  50.7570012  62.4154997 132.4179988
  50.5080012  63.5684997 131.4689988  50.6199919  63.2598246 132.2743408
  43.7690012  61.4624997 129.6699988  43.8130012  62.3224997 129.2509988
  43.3120012  60.9104997 129.0359988  43.7132240  61.5054422 129.5269864
  51.4920012  61.5934997 128.0709988  52.1380012  61.2644997 128.6949988
  52.0020012  62.1114997 127.4479988  51.6494299  61.6184450 128.0722731
  40.3900012  63.8594997 130.4319988  41.0430012  63.3094997 130.8639988
  40.4140012  63.5854997 129.5149988  40.4826683  63.7471466 130.3672123
  45.5460012  65.4094997 129.6469988  46.1620012  64.8834997 130.1569988
  44.9600012  64.7694997 129.2439988  45.5510810  65.2509208 129.6623173
  56.5280012  62.0464997 135.1659988  55.8400012  62.7044997 135.0709988
  56.5440012  61.8494997 136.1029988  56.4359540  62.1099819 135.2795990
  42.5800012  60.3804997 133.7439988  42.3610012  60.9104997 132.9779988
  41.9120012  60.6074997 134.3909988  42.4597600  60.4836906 133.7266379
  49.9490012  69.8804997 127.2879988  49.6530012  69.5584997 126.4369988
  49.6240012  70.7804997 127.3289988  49.8646371  69.9580215 127.1771801
  45.1490012  68.0564997 134.0309988  44.4090012  68.6544997 134.1349988
  45.8630012  68.6104997 133.7159988  45.1442237  68.2132831 134.0026465
  53.2560012  60.8844997 130.0509988  53.0400012  60.1184997 130.5839988
  53.9110012  61.3564997 130.5639988  53.3150632  60.8435889 130.1932861
  42.1730012  62.2724997 131.6959988  42.7870012  62.9054997 132.0689988
  42.6850012  61.8004997 131.0399988  42.3261981  62.2952267 131.6582908
  43.5560012  70.0204997 134.8179988  43.5510012  70.9004997 134.4399988
  42.7030012  69.9374997 135.2429988  43.4399464  70.1296117 134.8237907
  39.6770012  69.6914997 125.5999988  39.4050012  69.9204997 124.7119988
  39.7230012  70.5294997 126.0609988  39.6459482  69.8361318 125.5406273
  53.3020012  71.3134997 132.3129988  52.3610012  71.3714997 132.4749988
  53.5790012  72.2194997 132.1759988  53.2104679  71.4439443 132.3166815
  53.6030012  59.5994997 133.7309988  52.8670012  60.2104997 133.6929988
  54.2860012  60.0144997 133.2039988  53.5946541  59.7391374 133.6545832
  46.6060012  57.6864997 131.1959988  46.4890012  56.7374997 131.1419988
  45.7510012  58.0184997 131.4699988  46.4744212  57.6015571 131.2256497
  51.5540012  73.0944997 128.9379988  51.9800012  72.3874997 128.4529988
  51.8710012  73.8954997 128.5219988  51.6551683  73.1061017 128.8153680
  52.7140012  70.9954997 127.4469988  52.4560012  70.3054997 126.8359988
  52.7850012  70.5524997 128.2929988  52.6882856  70.8412124 127.4776885
  54.4000012  69.5614997 135.9239988  54.5400012  68.9704997 135.1849988
  54.5670012  70.4344997 135.5679988  54.4417411  69.5985428 135.7746894
  48.8730012  66.5234997 125.6969988  48.1610012  67.0584997 125.3449988
  49.5640012  66.5794997 125.0369988  48.8690132  66.6042543 125.5596289
  48.9260012  64.9814997 122.7359988  49.6270012  65.0034997 123.3869988
  49.2290012  64.3534997 122.0789988  49.0628133  64.8997070 122.7363369
  56.2420012  65.9014997 133.9899988  55.5890012  66.5964997 134.0799988
  56.7070012  66.1114997 133.1809988  56.2155274  66.0250643 133.8928462
  52.2780012  66.7334997 126.6489988  51.5460012  66.9614997 127.2219988
  52.7260012  66.0194997 127.1029988  52.2382725  66.6682145 126.7888816
  52.1760012  64.9074997 135.7159988  52.2560012  65.6704997 136.2879988
  51.5740012  65.1864997 135.0259988  52.1055756  65.0497134 135.7010589
  43.9240012  67.3634997 128.5309988  43.5930012  66.9934997 127.7129988
  44.5120012  66.6934997 128.8779988  43.9581873  67.2221156 128.4658102
  45.2900012  70.7914997 131.2119988  45.1960012  70.2134997 130.4559988
  46.0200012  70.4204997 131.7089988  45.3757387  70.6621663 131.1755342
  44.2900012  66.1324997 132.1649988  44.8560012  66.2534997 131.4019988
  44.6090012  66.7694997 132.8029988  44.4105474  66.2352219 132.1469862
  50.5990012  71.6354997 132.8989988  50.3590012  72.2974997 133.5469988
  50.4010012  70.8014997 133.3239988  50.5393808  71.6133134 133.0451524
  45.1700012  70.5314997 136.8819988  44.8590012  71.3134997 137.3369988
  44.5200012  70.3784997 136.1959988  45.0395558  70.6179105 136.8515871
  51.1490012  65.8954997 124.3339988  51.7290012  66.0454997 125.0809988
  51.5630012  66.3664997 123.6099988  51.2842997  65.9796578 124.3384058
  42.0900012  66.7294997 136.1099988  42.1610012  67.3804997 136.8089988
  41.2000012  66.8324997 135.7749988  41.9793005  66.8325427 136.1603495
  48.8760012  72.6324997 127.7689988  49.3500012  72.9274997 128.5459988
  48.3130012  73.3704997 127.5359988  48.8648184  72.7727247 127.8439628
  43.4100012  72.6034997 137.6449988  43.4170012  72.4674997 136.6979988
  42.4940012  72.4854997 137.8969988  43.2871714  72.5689430 137.5494666
  54.8480012  57.6454997 124.1469988  53.9480012  57.7844997 124.4419988
  55.1000012  58.4764997 123.7449988  54.7588702  57.7769074 124.1330205
  42.9140012  66.4334997 126.1199988  42.6220012  67.2014997 125.6299988
  42.2400012  65.7734997 125.9579988  42.7828111  66.4495587 126.0308978
  56.0370012  72.0114997 122.5229988  56.1110012  72.9504997 122.6939988
  56.9430012  71.7064997 122.4669988  56.1695100  72.0986722 122.5388119
  39.0070012  68.7964997 134.9349988  38.5060012  68.7684997 134.1199988
  39.0120012  67.8904997 135.2449988  38.9390944  68.6702396 134.8653226
  38.7570012  71.5764997 131.8189988  39.7030012  71.4324997 131.7999988
  38.6450012  72.3604997 132.3559988  38.8712727  71.6628046 131.8890072
  56.9550012  72.2424997 137.5019988  56.9060012  71.2874997 137.4649988
  56.1280012  72.5104997 137.9029988  56.8364940  72.1478998 137.5511375
  47.9340012  71.8164997 136.3779988  48.0210012  72.6424997 136.8529988
  47.0700012  71.4864997 136.6269988  47.8291964  71.8849878 136.4766549
  48.3480012  75.5884997 126.1839988  48.2730012  75.4674997 125.2369988
  48.3810012  76.5384997 126.3019988  48.3422068  75.7002646 126.0704967
  42.0010012  74.3774997 127.9649988  42.1540012  74.0294997 128.8429988
  41.1510012  74.0214997 127.7099988  41.9069166  74.2816216 128.0508079
  51.4500012  74.7424997 123.1859988  51.8250012  73.9984997 122.7149988
  51.4540012  74.4724997 124.1049988  51.5019125  74.6040986 123.2456483
  51.1190012  74.6684997 125.9349988  50.1830012  74.7684997 126.1139988
  51.3990012  73.9594997 126.5139988  51.0289553  74.5863406 126.0377087
  54.1070012  63.7354997 137.9819988  53.7000012  64.2164997 137.2609988
  54.1480012  62.8304997 137.6739988  54.0568437  63.6789374 137.8416683
  41.2560012  70.1194997 135.9789988  41.4720012  69.7584997 136.8379988
  40.4010012  69.7454997 135.7689988  41.1699292  70.0194111 136.0683386
  43.8750012  58.5894997 131.9739988  43.0130012  58.5024997 131.5659988
  43.8520012  59.4454997 132.4019988  43.7540409  58.6932883 131.9760589
  48.5380012  58.3114997 135.3489988  48.9580012  57.8964997 136.1019988
  47.6050012  58.1334997 135.4659988  48.4693644  58.2305900 135.4679539
  51.8640012  62.0674997 136.2019988  51.3500012  61.9414997 136.9999988
  51.7090012  62.9794997 135.9579988  51.7726852  62.1736132 136.2782158
  52.6270012  66.9284997 121.9639988  52.6690012  66.7054997 121.0339988
  53.4760012  67.3274997 122.1529988  52.7475280  66.9519438 121.8623554
  48.1990012  60.8044997 122.6339988  47.9460012  60.8234997 123.5569988
  47.9430012  59.9324997 122.3319988  48.1297481  60.6892558 122.7196175
  43.9660012  63.5554997 133.0689988  43.3240012  63.5144997 133.7779988
  44.0030012  64.4814997 132.8309988  43.8830664  63.6751430 133.1339219
  43.9630012  63.7764997 127.9809988  43.0700012  63.4354997 127.9219988
  44.4130012  63.3994997 127.2249988  43.9018130  63.6789631 127.8707702
  49.4980012  64.1924997 126.7979988  49.0890012  65.0074997 126.5069988
  50.2190012  64.0524997 126.1839988  49.5394537  64.2852018 126.6751342
  48.6000012  64.3674997 138.2859988  48.0380012  63.6634997 138.6069988
  49.4270012  64.2474997 138.7539988  48.6347095  64.2547883 138.3932330
  50.5030012  63.6384997 129.6119988  50.3080012  64.2434997 128.8969988
  50.6840012  62.8044997 129.1779988  50.5007614  63.6086300 129.4554405
  41.7160012  63.8754997 134.9359988  41.6780012  64.2754997 135.8049988
  41.2250012  63.0584997 135.0269988  41.6444684  63.8198069 135.0671059
  45.0820012  61.2494997 121.7349988  44.6510012  60.8044997 122.4649988
  44.3640012  61.6214997 121.2229988  44.9259438  61.2388940 121.7656799
  38.3240012  60.9914997 128.7869988  38.9550012  60.9624997 129.5059988
  38.7730012  60.5664997 128.0559988  38.4710918  60.9300836 128.7866441
  39.5980012  61.7374997 124.2109988  40.0720012  62.3284997 123.6259988
  38.8810012  62.2684997 124.5579988  39.5659341  61.8900867 124.1778836
  49.7670012  65.2764997 134.2829988  50.0900012  64.6454997 133.6399988
  49.3270012  64.7414997 134.9439988  49.7517484  65.1178387 134.2843198
  46.5440012  61.2034997 129.0669988  45.6330012  61.2604997 129.3559988
  47.0500012  61.1434997 129.8779988  46.4876899  61.2031941 129.2161184
  41.3730012  62.8324997 127.8939988  40.4830012  62.9324997 127.5539988
  41.6690012  61.9904997 127.5479988  41.2912823  62.7323545 127.8007213
  45.0260012  62.8324997 125.5509988  45.9570012  62.9614997 125.7289988
  44.8110012  63.5024997 124.9009988  45.1244247  62.9406565 125.4875747
  50.9490012  60.4384997 132.3319988  50.2730012  60.5694997 132.9959988
  50.4640012  60.2834997 131.5209988  50.7907146  60.4355157 132.3134469
  43.7000012  64.0274997 123.1169988  43.1570012  63.6474997 122.4259988
  44.5330012  64.2214997 122.6889988  43.7383631  64.0017125 122.9644501
  54.2370012  76.1104997 138.6079988  54.4370012  76.5344997 137.7739988
  54.8920012  76.4534997 139.2149988  54.3530072  76.2149857 138.5758592
  41.8350012  68.5844997 138.2159988  42.5670012  68.8384997 138.7779988
  41.0550012  68.7884997 138.7319988  41.8297073  68.6468160 138.3626151
  47.8640012  63.9914997 130.9539988  48.4290012  63.4444997 130.4069988
  47.7170012  63.4694997 131.7429988  47.9213380  63.8462259 130.9858695
  42.8660012  60.1274997 127.3729988  42.5490012  59.2254997 127.3369988
  43.6480012  60.1294997 126.8199988  42.9282408  60.0042474 127.2933569
  46.4910012  62.3794997 133.3679988  45.6550012  62.8334997 133.4789988
  47.0150012  62.6554997 134.1199988  46.4475416  62.4788660 133.4848119
  47.0350012  68.5924997 125.0529988  46.2900012  68.0854997 124.7309988
  46.9010012  68.6414997 125.9999988  46.9148776  68.5296940 125.1368647
  54.1850012  67.7254997 133.8399988  54.8270012  68.1824997 133.2959988
  53.3550012  67.8384997 133.3769988  54.1605963  67.8032704 133.7030177
  50.9330012  61.4064997 123.2519988  49.9940012  61.5184997 123.1009988
  51.2300012  62.2634997 123.5589988  50.8447583  61.5375981 123.2728337
  48.5540012  68.7764997 136.2899988  48.2090012  68.3954997 137.0969988
  48.3540012  69.7104997 136.3609988  48.4797527  68.8505135 136.4100689
  51.6510012  63.2734997 124.9129988  52.5430012  63.1364997 125.2319988
  51.7080012  64.0644997 124.3759988  51.7806504  63.3616052 124.8840818
  42.1600012  67.8874997 130.8229988  42.9050012  67.8854997 130.2219988
  42.2380012  67.0644997 131.3039988  42.2724995  67.7758887 130.8058282
  49.1610012  70.0514997 124.0789988  48.8650012  70.8774997 124.4599988
  48.4580012  69.4314997 124.2749988  49.0254914  70.0808199 124.1576443
  39.1680012  66.3484997 136.1379988  39.3910012  65.9304997 136.9699988
  38.5660012  65.7354997 135.7149988  39.1171759  66.2084668 136.1947022
  46.1840012  65.8654997 138.3509988  45.8880012  65.6994997 137.4559988
  47.1160012  65.6454997 138.3399988  46.2694166  65.8130640 138.2270536
  50.8050012  71.2384997 136.2409988  49.9040012  71.4214997 135.9729988
  50.8390012  71.4974997 137.1609988  50.6863139  71.2985849 136.3288099
  56.5360012  63.4834997 124.6079988  55.9820012  63.0874997 123.9359988
  56.6360012  64.3934997 124.3299988  56.4737059  63.5523586 124.4784401
  56.4990012  69.2834997 137.4449988  55.6480012  69.5214997 137.0779988
  57.0900012  69.2664997 136.6919988  56.4622487  69.3138258 137.2928893
  54.8310012  72.2694997 125.0729988  54.4580012  71.4434997 125.3819988
  55.1090012  72.0864997 124.1749988  54.8175222  72.1317430 124.9939473
  51.9920012  67.0774997 132.0939988  51.0630012  66.8454997 132.0669988
  52.4430012  66.3004997 131.7639988  51.9259216  66.9407238 132.0456917
  44.5350012  71.4054997 128.2269988  45.0620012  72.1784997 128.0269988
  43.6550012  71.6304997 127.9249988  44.4882031  71.5417545 128.1587912
  40.2900012  66.2674997 122.8139988  40.9060012  66.8944997 123.1939988
  39.4280012  66.5834997 123.0859988  40.2577698  66.3959430 122.9027183
  45.9620012  69.0684997 127.8029988  45.7210012  69.9934997 127.8449988
  45.2210012  68.6094997 128.1999988  45.8289225  69.1330933 127.8623742
  46.4770012  73.2174997 134.1189988  46.8390012  74.0724997 133.8849988
  47.0080012  72.9254997 134.8589988  46.5984473  73.2951060 134.1870855
  44.6450012  74.0904997 127.3489988  43.6950012  74.1954997 127.3999988
  44.9970012  74.9104997 127.6929988  44.5624195  74.2158800 127.4025502
  50.0210012  69.3164997 133.8189988  49.5950012  69.0894997 134.6459988
  50.6010012  68.5784997 133.6369988  50.0411868  69.1855299 133.9075830
  52.2240012  70.2454997 122.8929988  52.5770012  69.8654997 123.6969988
  51.2750012  70.1524997 122.9799988  52.1440918  70.1808956 123.0148532
  52.6790012  73.8684997 136.2889988  52.0780012  73.3134997 135.7929988
  52.9610012  74.5354997 135.6619988  52.6348804  73.8826625 136.1364849
  56.7270012  74.7254997 123.0939988  57.4710012  75.3114997 122.9539988
  56.0330012  75.2934997 123.4269988  56.7349899  74.8825798 123.1198778
  40.8020012  61.1014997 135.6959988  39.9090012  61.4404997 135.6279988
  40.7030012  60.2464997 136.1139988  40.6664164  61.0322588 135.7432235
  53.0900012  68.9184997 125.1199988  52.8120012  68.1904997 125.6759988
  54.0170012  69.0374997 125.3249988  53.1773124  68.8348802 125.2238845
  40.4530012  72.9064997 134.1309988  40.6700012  71.9744997 134.0999988
  40.6990012  73.1804997 135.0139988  40.5159549  72.8160636 134.2461763
  46.3150012  71.3574997 121.3399988  46.5540012  70.6094997 120.7929988
  46.0460012  70.9694997 122.1729988  46.3113675  71.2026638 121.3776865
  45.2520012  70.9274997 123.7959988  45.3980012  70.4074997 124.5859988
  45.2490012  71.8344997 124.1029988  45.2715792  70.9788842 123.9456117
  41.7050012  68.1804997 124.3069988  41.0190012  68.5324997 124.8739988
  42.2270012  68.9434997 124.0599988  41.6816852  68.3318578 124.3512118
  49.5360012  60.8424997 134.5859988  50.2350012  60.9164997 135.2359988
  49.1550012  59.9784997 134.7399988  49.5801767  60.7357624 134.6958322
  50.3210012  60.4944997 125.6829988  50.5410012  60.9664997 124.8799988
  50.8790012  60.8894997 126.3529988  50.4264968  60.6124285 125.6637331
  47.9890012  72.6254997 124.5459988  47.1730012  73.1224997 124.5979988
  48.5190012  73.1004997 123.9059988  47.9489161  72.7577722 124.4665956
  47.5210012  62.2224997 126.5179988  48.3330012  62.7274997 126.5639988
  47.2760012  62.0774997 127.4319988  47.5990520  62.2720375 126.6478517
  48.0560012  63.2084997 135.7019988  48.1750012  63.7824997 136.4599988
  48.7120012  62.5204997 135.8169988  48.1609025  63.1939858 135.8211321
  48.4040012  59.3034997 127.4559988  48.0580012  59.9214997 128.0999988
  49.0630012  59.8044997 126.9739988  48.4456968  59.4556278 127.4789383
  45.3280012  73.6694997 124.5269988  45.4880012  74.4684997 124.0269988
  45.1300012  73.9754997 125.4119988  45.3231637  73.8204020 124.5781144
  44.0620012  60.3664997 124.1429988  43.9790012  61.2554997 124.4899988
  44.9520012  60.1014997 124.3749988  44.1709469  60.4521430 124.2217626
  54.2610012  61.1154997 136.5369988  53.3440012  61.3784997 136.4499988
  54.5960012  61.1124997 135.6409988  54.1808613  61.1510761 136.4038837
  52.8630012  64.8664997 130.6329988  52.0650012  64.4514997 130.3049988
  53.3080012  64.1754997 131.1239988  52.8139885  64.7163543 130.6544889
  42.3210012  70.7944997 123.2039988  42.9130012  71.4934997 123.4799988
  42.7800012  70.3614997 122.4839988  42.4641142  70.8317049 123.1444830
  40.6370012  63.4584997 122.3199988  40.5920012  64.3974997 122.4979988
  39.7490012  63.2224997 122.0499988  40.5108574  63.5551892 122.3078912
  53.9490012  74.1224997 132.2559988  53.7940012  74.8004997 131.5979988
  54.8820012  74.1944997 132.4589988  54.0538657  74.2249546 132.1934360
  41.4450012  58.2404997 130.9929988  41.2160012  58.2994997 130.0649988
  41.0020012  57.4484997 131.2989988  41.3538530  58.1415753 130.9074786
  40.3750012  72.1804997 127.1529988  39.5430012  72.6534997 127.1799988
  40.9210012  72.6904997 126.5549988  40.3350352  72.3141332 127.0758463
  39.6630012  74.7934997 138.4829988  40.2040012  74.5764997 139.2429988
  39.1820012  73.9874997 138.2929988  39.6719951  74.6549270 138.5612576
  44.2610012  73.7124997 140.1029988  45.0280012  73.2534997 140.4439988
  44.2390012  73.4864997 139.1739988  44.3631275  73.6190186 140.0240101
  48.3530012  73.2204997 121.4789988  47.7090012  72.5894997 121.7999988
  49.1150012  72.6894997 121.2469988  48.3678077  73.0622920 121.4916011
  50.8380012  72.0924997 138.8329988  50.4870012  71.2364997 139.0759988
  51.5640012  72.2354997 139.4399988  50.8880769  71.9945636 138.9483619
  52.9570012  73.0374997 121.7119988  53.2400012  72.2434997 122.1649988
  53.6970012  73.2704997 121.1519988  53.0958006  72.9603376 121.6982715
  39.5700012  68.6034997 139.4369988  39.7140012  67.7014997 139.1509988
  38.7980012  68.8894997 138.9499988  39.4852753  68.5186816 139.3319505
  43.9120012  68.9474997 121.5699988  43.9760012  68.1534997 122.1009988
  44.5650012  68.8284997 120.8799988  44.0090241  68.8227148 121.5494317
  46.2260012  68.5734997 138.8699988  45.8970012  68.8444997 138.0129988
  46.3780012  67.6324997 138.7829988  46.2014809  68.4833862 138.7408244
  49.2640012  69.9944997 121.3059988  48.9950012  70.1744997 122.2069988
  49.0580012  69.0684997 121.1739988  49.1993427  69.8940261 121.4115073
  51.9600012  68.4894997 136.2529988  52.7060012  69.0774997 136.1339988
  51.2030012  69.0714997 136.3169988  51.9597820  68.6487143 136.2453590
  40.4030012  65.8034997 138.8569988  40.8110012  64.9464997 138.7359988
  40.1430012  65.8184997 139.7779988  40.4237568  65.6880807 138.9649588
  45.0610012  66.9194997 123.8759988  44.6010012  66.4354997 124.5619988
  45.3160012  66.2514997 123.2399988  45.0324902  66.7628731 123.8839334
  44.3500012  64.8124997 136.2319988  43.7320012  65.4874997 136.5119988
  44.6940012  65.1334997 135.3979988  44.3119132  64.9482411 136.1576262
  46.1320012  65.1624997 122.1379988  45.9520012  65.0084997 121.2109988
  47.0820012  65.2704997 122.1829988  46.2357776  65.1560175 122.0171843
  49.3700012  67.2844997 139.5089988  50.3230012  67.3674997 139.4819988
  49.2090012  66.5724997 140.1289988  49.4786426  67.1996746 139.5890579
  55.5220012  67.5174997 121.5839988  55.2480012  67.0924997 120.7709988
  55.5610012  68.4484997 121.3669988  55.4897699  67.5852484 121.4433610
  44.6890012  62.1674997 137.3139988  44.8390012  61.4384997 136.7119988
  44.6920012  62.9444997 136.7549988  44.7099302  62.1727851 137.1560692
  45.1020012  60.5374997 134.8069988  45.6380012  60.9884997 134.1549988
  44.2500012  60.4294997 134.3839988  45.0602178  60.5846390 134.6605756
  46.6840012  65.9764997 135.0459988  47.4340012  65.8204997 134.4729988
  46.3450012  66.8284997 134.7709988  46.7408921  66.0702968 134.9303561
  51.0990012  63.7914997 140.0749988  51.2920012  62.8604997 139.9629988
  51.9570012  64.2164997 140.0639988  51.2412934  63.7216531 140.0582031
  52.4160012  66.5804997 138.1519988  52.1350012  67.2894997 137.5739988
  53.3590012  66.5074997 138.0009988  52.5049291  66.6676711 138.0524967
  43.1680012  63.3654997 139.2259988  42.4010012  62.8334997 139.0149988
  43.8470012  63.0554997 138.6259988  43.1547877  63.2508300 139.1160716
  45.9080012  57.9934997 135.2379988  45.8090012  58.9404997 135.1329988
  45.1650012  57.6214997 134.7619988  45.7941184  58.0725863 135.1593621
  47.1720012  62.3154997 138.8019988  46.9360012  62.0954997 139.7029988
  46.3880012  62.1084997 138.2919988  47.0338504  62.2574586 138.8563431
  49.8870012  61.4424997 137.8769988  48.9400012  61.4744997 138.0099988
  50.2000012  60.8174997 138.5309988  49.7996707  61.3623998 137.9836060
  51.5210012  60.0764997 139.8829988  51.4250012  59.1244997 139.8769988
  51.2000012  60.3454997 140.7429988  51.4644070  59.9824035 139.9985441
  41.3480012  61.2864997 138.9299988  41.5600012  60.5794997 138.3199988
  41.2370012  60.8484997 139.7739988  41.3619721  61.1307084 138.9606843
  46.1290012  57.2874997 137.9089988  46.8410012  56.6474997 137.8949988
  46.0280012  57.5544997 136.9959988  46.2128066  57.2360079 137.7835677
  46.4830012  58.9704997 139.9629988  46.3510012  58.4944997 139.1429988
  45.8840012  59.7144997 139.9079988  46.3839071  59.0059618 139.8432886
  46.0290012  75.8534997 123.1389988  46.9620012  76.0114997 123.2829988
  45.7650012  76.5284997 122.5149988  46.1209888  75.9664510 123.0742842
  39.5980012  70.4894997 122.6219988  40.5120012  70.5684997 122.8959988
  39.6050012  69.8024997 121.9559988  39.7241131  70.4073961 122.5694393
  38.2470012  75.8824997 127.6999988  37.6000012  75.4204997 127.1669988
  38.6010012  75.2104997 128.2819988  38.2063849  75.7284723 127.7057959
  39.1170012  73.9634997 129.5039988  38.7820012  73.0834997 129.6759988
  39.3390012  74.3084997 130.3689988  39.1011783  73.8897501 129.6444208
  56.6650012  74.7724997 132.4849988  56.6440012  74.9574997 133.4239988
  57.3560012  75.3414997 132.1439988  56.7554618  74.8746606 132.5673864
  56.2290012  74.3404997 135.4069988  55.7410012  73.6044997 135.0349988
  56.7780012  73.9464997 136.0849988  56.2364820  74.1865889 135.4477813
  54.6790012  70.1294997 140.0449988  53.8130012  70.0244997 140.4389988
  55.0560012  70.8884997 140.4909988  54.6113308  70.2176900 140.1592393
  55.9800012  68.3864997 125.5589988  56.8300012  68.8074997 125.6859988
  55.9860012  67.6464997 126.1659988  56.0971372  68.3440803 125.6584344
  56.3750012  66.4394997 127.3819988  55.6480012  65.9604997 127.7799988
  56.9560012  66.6454997 128.1149988  56.3540473  66.4018103 127.5354528
  56.1340012  69.2244997 132.3299988  56.9670012  68.8464997 132.0499988
  56.2460012  70.1674997 132.2109988  56.2632647  69.3002218 132.2755487
  54.6200012  72.1024997 134.6369988  53.9730012  72.4274997 135.2629988
  54.1030012  71.6624997 133.9629988  54.4614029  72.0875004 134.6315827
  56.6430012  66.3404997 123.7739988  56.1210012  66.6974997 123.0549988
  56.6100012  67.0154997 124.4519988  56.5671634  66.4805413 123.7673145
  54.9920012  63.5804997 122.3239988  55.0880012  64.2474997 121.6439988
  54.8520012  62.7644997 121.8429988  54.9862272  63.5615655 122.1658347
  54.1610012  64.9604997 127.9449988  54.0110012  64.0154997 127.9249988
  53.8080012  65.2414997 128.7889988  54.0927448  64.8691481 128.0563705
  39.1970012  67.0384997 131.9559988  39.3810012  66.9564997 131.0199988
  40.0460012  66.9144997 132.3789988  39.3370151  67.0105073 131.8851451
  55.0180012  66.9304997 137.5839988  55.6010012  66.1964997 137.7759988
  55.5820012  67.7024997 137.6309988  55.1739769  66.9344227 137.6166159
  56.5140012  64.8334997 138.2689988  55.6510012  64.4544997 138.1029988
  57.1190012  64.0944997 138.1939988  56.4776119  64.6818268 138.2361528
  54.2390012  60.9884997 121.4419988  54.8500012  60.6174997 122.0789988
  53.4030012  60.5674997 121.6379988  54.2095032  60.8807554 121.5557035
  53.8720012  62.5434997 126.4079988  54.1520012  61.6364997 126.5319988
  54.6310012  62.9774997 126.0189988  54.0129277  62.4780942 126.3723682
  54.4840012  63.1244997 131.8439988  55.4170012  63.3364997 131.8089988
  54.2490012  63.2264997 132.7659988  54.5799244  63.1673100 131.9638892
  54.5130012  63.8614997 134.6199988  53.6700012  64.1294997 134.9859988
  54.9550012  64.6834997 134.4089988  54.4574158  64.0093291 134.6415491
  38.7940012  62.3094997 138.0969988  39.7140012  62.1874997 138.3329988
  38.3450012  61.5594997 138.4859988  38.8591580  62.1913727 138.1819006
  56.7960012  57.8414997 139.9729988  57.1460012  57.1874997 139.3679988
  56.9430012  58.6784997 139.5329988  56.8637887  57.8651548 139.8306858
  54.4850012  59.8064997 126.4559988  54.6680012  59.3574997 127.2819988
  53.8860012  59.2214997 125.9929988  54.4290202  59.6659975 126.5063275
  40.0150012  60.6214997 130.9879988  40.4610012  59.8294997 131.2899988
  40.4820012  61.3374997 131.4179988  40.1390831  60.6100685 131.0874006
  38.3190012  63.6204997 132.0569988  38.8110012  63.3994997 131.2659988
  38.6820012  64.4614997 132.3379988  38.4353126  63.7038357 131.9867531
  56.3160012  59.9504997 138.3219988  55.3980012  60.2214997 138.2869988
  56.4390012  59.4154997 137.5379988  56.2069729  59.9152508 138.2111923
  56.3520012  59.8734997 122.9839988  56.7640012  59.1524997 122.5089988
  57.0340012  60.5434997 123.0429988  56.5005885  59.8652368 122.9268915
  38.6330012  59.8784997 126.1109988  37.7080012  60.0874997 125.9819988
  39.0870012  60.3624997 125.4209988  38.5677292  59.9725343 126.0000720
  53.4040012  74.8624997 128.0569988  54.0560012  74.5154997 127.4489988
  53.9140012  75.3514997 128.7029988  53.5622637  74.8810597 128.0610236
  38.5970012  58.6164997 134.4549988  37.9320012  58.3704997 135.0989988
  38.1540012  59.2384997 133.8779988  38.4461318  58.6669410 134.4650898
  40.7890012  71.7914997 138.5999988  39.9680012  71.9664997 138.1389988
  40.5360012  71.7184997 139.5199988  40.6425585  71.8055544 138.6613561
  43.7430012  72.7664997 134.8579988  43.3180012  73.5754997 134.5759988
  44.6470012  72.8514997 134.5559988  43.8069975  72.8889300 134.7784816
  48.0540012  74.1654997 137.8179988  48.2390012  73.8314997 138.6959988
  48.9000012  74.4744997 137.4959988  48.1937539  74.1616047 137.8945605
  50.3990012  75.4514997 137.0619988  51.0760012  74.8184997 136.8219988
  50.7210012  75.8524997 137.8689988  50.5351637  75.4191154 137.1382793
  55.3160012  58.0404997 136.1409988  54.5040012  58.3654997 135.7539988
  55.5490012  57.2804997 135.6079988  55.2362203  57.9822758 136.0158880
  41.1450012  76.0224997 134.9059988  40.4240012  76.4624997 134.4549988
  40.7790012  75.7714997 135.7539988  40.9969651  76.0487242 134.9589640
  43.6120012  75.6224997 133.9359988  42.7470012  75.6944997 134.3399988
  43.5570012  76.1694997 133.1519988  43.4862085  75.7062685 133.8853362
  48.3220012  75.5104997 133.1109988  47.8660012  76.0394997 132.4569988
  48.4850012  76.1134997 133.8359988  48.2816068  75.6644607 133.1194838
  50.6500012  74.3884997 134.0559988  49.7450012  74.5534997 133.7899988
  51.0790012  75.2414997 133.9909988  50.5841324  74.5264339 134.0107976
  53.2540012  75.9584997 134.3509988  53.0720012  76.8744997 134.1409988
  53.4310012  75.5484997 133.5049988  53.2530210  76.0284822 134.2077885
  40.5590012  74.6454997 131.8159988  40.5410012  74.2204997 132.6729988
  41.3640012  74.3274997 131.4069988  40.6653529  74.5443013 131.8780946
  42.7010012  73.3554997 130.4709988  42.4820012  72.4394997 130.6409988
  43.5250012  73.4954997 130.9369988  42.7824420  73.2490520 130.5572774
  45.2380012  73.8254997 131.3199988  45.4510012  72.9374997 131.0329988
  45.3020012  73.7914997 132.2739988  45.2758232  73.6993102 131.4097397
  48.7460012  59.4894997 130.4639988  48.0720012  58.8604997 130.7199988
  49.3100012  59.0054997 129.8609988  48.7299230  59.3378744 130.4175340
  53.8890012  57.5974997 130.5769988  54.4930012  58.1444997 130.0749988
  53.0190012  57.9164997 130.3359988  53.8541208  57.7155137 130.4756886
  55.6160012  58.7354997 128.9099988  56.2280012  58.2214997 128.3829988
  55.9980012  59.6134997 128.9329988  55.7513371  58.7837866 128.8410041
  41.0730012  58.1234997 128.2859988  40.2960012  57.8894997 127.7789988
  41.6030012  57.3264997 128.2949988  41.0382330  57.9836988 128.2177742
  39.9090012  57.9214997 124.0899988  40.3480012  58.5324997 123.4979988
  39.2760012  58.4594997 124.5639988  39.8834514  58.0779257 124.0730930
  45.6520012  58.0504997 128.0999988  46.5270012  58.4384997 128.0699988
  45.5160012  57.8354997 129.0219988  45.7533695  58.0745184 128.2206440
  51.2090012  58.0804997 129.7489988  51.2850012  58.1754997 128.7989988
  50.9340012  57.1724997 129.8779988  51.1822321  57.9707867 129.6365079
  52.5620012  58.1064997 125.4409988  51.8600012  58.7214997 125.2309988
  52.1180012  57.2684997 125.5719988  52.4056450  58.0775639 125.4299000
  39.8100012  73.8694997 124.9869988  39.1250012  73.8314997 124.3199988
  39.8140012  74.7824997 125.2759988  39.7166998  73.9876733 124.9346771
  41.7700012  59.8374997 122.5319988  42.2620012  59.2074997 122.0049988
  42.3940012  60.1334997 123.1949988  41.9215688  59.7913804 122.5495482
  46.7960012  60.1304997 124.9889988  46.9740012  59.4844997 125.6719988
  46.7430012  60.9644997 125.4559988  46.8131999  60.1548009 125.1455917
  48.6750012  75.0794997 123.3849988  49.5410012  75.4454997 123.2069988
  48.4280012  74.6394997 122.5709988  48.7602392  75.0701756 123.2506289
  55.3840012  74.6424997 126.0639988  55.1890012  73.8944997 125.4989988
  55.3450012  75.4004997 125.4809988  55.3520380  74.6426099 125.9078384
  41.0310012  58.6374997 137.8039988  40.6650012  57.8724997 138.2459988
  41.9440012  58.6664997 138.0899988  41.1042736  58.5365640 137.9032502
  43.0040012  57.9884997 139.3399988  43.9020012  57.7144997 139.1549988
  42.6170012  57.2454997 139.8039988  43.0746612  57.8505914 139.3773643
  41.6280012  74.7894997 122.0129988  41.3610012  75.0764997 122.8859988
  42.4000012  74.2434997 122.1649988  41.6957488  74.7550294 122.1531050
  51.4250012  57.3204997 139.5219988  51.5020012  56.8944997 140.3759988
  52.3190012  57.3344997 139.1789988  51.5563428  57.2640879 139.5925310
  54.6010012  73.3934997 138.2139988  53.8190012  73.2074997 137.6939988
  54.5290012  74.3224997 138.4319988  54.4842274  73.4936643 138.1723018
  69.0070012  67.2794997 128.2449988  69.0960012  68.2234997 128.1129988
  68.3690012  67.0044997 127.5869988  68.9329081  67.3714830 128.1379614
  67.9400012  66.5344997 131.6639988  67.9020012  65.8884997 132.3689988
  67.6180012  66.0684997 130.8929988  67.8912333  66.3829408 131.6562978
  60.3090012  66.1494997 133.2569988  60.3500012  65.5234997 133.9799988
  61.0120012  66.7734997 133.4389988  60.4096363  66.1481196 133.3806044
  71.6460012  69.4734997 129.9649988  71.2060012  68.7534997 130.4159988
  71.6330012  70.1944997 130.5949988  71.5840226  69.4723731 130.1118494
  61.2320012  70.5994997 131.7919988  60.8630012  69.7974997 131.4219988
  62.1730012  70.4304997 131.8379988  61.3087289  70.4670153 131.7476316
  57.8420012  64.2594997 127.1849988  57.3950012  65.1054997 127.1659988
  57.2810012  63.6794997 126.6689988  57.7049900  64.2969916 127.1126801
  58.5530012  66.4214997 129.3099988  58.7660012  65.6514997 129.8379988
  59.2910012  66.5104997 128.7069988  58.6819044  66.3281968 129.3007123
  68.7580012  74.5784997 130.1769988  69.3780012  73.9014997 129.9039988
  68.5500012  74.3604997 131.0859988  68.8146726  74.4564800 130.2624812
  66.3300012  68.9674997 132.0699988  66.6340012  68.2814997 131.4749988
  67.0510012  69.0854997 132.6879988  66.4690671  68.8896305 132.0721816
  74.9930012  60.5684997 132.9309988  75.0420012  61.1784997 133.6659988
  75.4180012  61.0294997 132.2079988  75.0571746  60.7143796 132.9339175
  69.4710012  63.3614997 132.3969988  69.6130012  62.4154997 132.4179988
  69.3640012  63.5684997 131.4689988  69.4759919  63.2598246 132.2743408
  62.6250012  61.4624997 129.6699988  62.6690012  62.3224997 129.2509988
  62.1680012  60.9104997 129.0359988  62.5692240  61.5054422 129.5269864
  70.3480012  61.5934997 128.0709988  70.9940012  61.2644997 128.6949988
  70.8580012  62.1114997 127.4479988  70.5054299  61.6184450 128.0722731
  59.2460012  63.8594997 130.4319988  59.8990012  63.3094997 130.8639988
  59.2700012  63.5854997 129.5149988  59.3386683  63.7471466 130.3672123
  64.4020012  65.4094997 129.6469988  65.0180012  64.8834997 130.1569988
  63.8160012  64.7694997 129.2439988  64.4070810  65.2509208 129.6623173
  75.3840012  62.0464997 135.1659988  74.6960012  62.7044997 135.0709988
  75.4000012  61.8494997 136.1029988  75.2919540  62.1099819 135.2795990
  61.4360012  60.3804997 133.7439988  61.2170012  60.9104997 132.9779988
  60.7680012  60.6074997 134.3909988  61.3157600  60.4836906 133.7266379
  68.8050012  69.8804997 127.2879988  68.5090012  69.5584997 126.4369988
  68.4800012  70.7804997 127.3289988  68.7206371  69.9580215 127.1771801
  64.0050012  68.0564997 134.0309988  63.2650012  68.6544997 134.1349988
  64.7190012  68.6104997 133.7159988  64.0002237  68.2132831 134.0026465
  72.1120012  60.8844997 130.0509988  71.8960012  60.1184997 130.5839988
  72.7670012  61.3564997 130.5639988  72.1710632  60.8435889 130.1932861
  61.0290012  62.2724997 131.6959988  61.6430012  62.9054997 132.0689988
  61.5410012  61.8004997 131.0399988  61.1821981  62.2952267 131.6582908
  62.4120012  70.0204997 134.8179988  62.4070012  70.9004997 134.4399988
  61.5590012  69.9374997 135.2429988  62.2959464  70.1296117 134.8237907
  58.5330012  69.6914997 125.5999988  58.2610012  69.9204997 124.7119988
  58.5790012  70.5294997 126.0609988  58.5019482  69.8361318 125.5406273
  72.1580012  71.3134997 132.3129988  71.2170012  71.3714997 132.4749988
  72.4350012  72.2194997 132.1759988  72.0664679  71.4439443 132.3166815
  72.4590012  59.5994997 133.7309988  71.7230012  60.2104997 133.6929988
  73.1420012  60.0144997 133.2039988  72.4506541  59.7391374 133.6545832
  65.4620012  57.6864997 131.1959988  65.3450012  56.7374997 131.1419988
  64.6070012  58.0184997 131.4699988  65.3304212  57.6015571 131.2256497
  70.4100012  73.0944997 128.9379988  70.8360012  72.3874997 128.4529988
  70.7270012  73.8954997 128.5219988  70.5111683  73.1061017 128.8153680
  71.5700012  70.9954997 127.4469988  71.3120012  70.3054997 126.8359988
  71.6410012  70.5524997 128.2929988  71.5442856  70.8412124 127.4776885
  73.2560012  69.5614997 135.9239988  73.3960012  68.9704997 135.1849988
  73.4230012  70.4344997 135.5679988  73.2977411  69.5985428 135.7746894
  67.7290012  66.5234997 125.6969988  67.0170012  67.0584997 125.3449988
  68.4200012  66.5794997 125.0369988  67.7250132  66.6042543 125.5596289
  67.7820012  64.9814997 122.7359988  68.4830012  65.0034997 123.3869988
  68.0850012  64.3534997 122.0789988  67.9188133  64.8997070 122.7363369
  75.0980012  65.9014997 133.9899988  74.4450012  66.5964997 134.0799988
  75.5630012  66.1114997 133.1809988  75.0715274  66.0250643 133.8928462
  71.1340012  66.7334997 126.6489988  70.4020012  66.9614997 127.2219988
  71.5820012  66.0194997 127.1029988  71.0942725  66.6682145 126.7888816
  71.0320012  64.9074997 135.7159988  71.1120012  65.6704997 136.2879988
  70.4300012  65.1864997 135.0259988  70.9615756  65.0497134 135.7010589
  62.7800012  67.3634997 128.5309988  62.4490012  66.9934997 127.7129988
  63.3680012  66.6934997 128.8779988  62.8141873  67.2221156 128.4658102
  64.1460012  70.7914997 131.2119988  64.0520012  70.2134997 130.4559988
  64.8760012  70.4204997 131.7089988  64.2317387  70.6621663 131.1755342
  63.1460012  66.1324997 132.1649988  63.7120012  66.2534997 131.4019988
  63.4650012  66.7694997 132.8029988  63.2665474  66.2352219 132.1469862
  69.4550012  71.6354997 132.8989988  69.2150012  72.2974997 133.5469988
  69.2570012  70.8014997 133.3239988  69.3953808  71.6133134 133.0451524
  64.0260012  70.5314997 136.8819988  63.7150012  71.3134997 137.3369988
  63.3760012  70.3784997 136.1959988  63.8955558  70.6179105 136.8515871
  70.0050012  65.8954997 124.3339988  70.5850012  66.0454997 125.0809988
  70.4190012  66.3664997 123.6099988  70.1402997  65.9796578 124.3384058
  60.9460012  66.7294997 136.1099988  61.0170012  67.3804997 136.8089988
  60.0560012  66.8324997 135.7749988  60.8353005  66.8325427 136.1603495
  67.7320012  72.6324997 127.7689988  68.2060012  72.9274997 128.5459988
  67.1690012  73.3704997 127.5359988  67.7208184  72.7727247 127.8439628
  62.2660012  72.6034997 137.6449988  62.2730012  72.4674997 136.6979988
  61.3500012  72.4854997 137.8969988  62.1431714  72.5689430 137.5494666
  73.7040012  57.6454997 124.1469988  72.8040012  57.7844997 124.4419988
  73.9560012  58.4764997 123.7449988  73.6148702  57.7769074 124.1330205
  61.7700012  66.4334997 126.1199988  61.4780012  67.2014997 125.6299988
  61.0960012  65.7734997 125.9579988  61.6388111  66.4495587 126.0308978
  74.8930012  72.0114997 122.5229988  74.9670012  72.9504997 122.6939988
  75.7990012  71.7064997 122.4669988  75.0255100  72.0986722 122.5388119
  57.8630012  68.7964997 134.9349988  57.3620012  68.7684997 134.1199988
  57.8680012  67.8904997 135.2449988  57.7950944  68.6702396 134.8653226
  57.6130012  71.5764997 131.8189988  58.5590012  71.4324997 131.7999988
  57.5010012  72.3604997 132.3559988  57.7272727  71.6628046 131.8890072
  75.8110012  72.2424997 137.5019988  75.7620012  71.2874997 137.4649988
  74.9840012  72.5104997 137.9029988  75.6924940  72.1478998 137.5511375
  66.7900012  71.8164997 136.3779988  66.8770012  72.6424997 136.8529988
  65.9260012  71.4864997 136.6269988  66.6851964  71.8849878 136.4766549
  67.2040012  75.5884997 126.1839988  67.1290012  75.4674997 125.2369988
  67.2370012  76.5384997 126.3019988  67.1982068  75.7002646 126.0704967
  60.8570012  74.3774997 127.9649988  61.0100012  74.0294997 128.8429988
  60.0070012  74.0214997 127.7099988  60.7629166  74.2816216 128.0508079
  70.3060012  74.7424997 123.1859988  70.6810012  73.9984997 122.7149988
  70.3100012  74.4724997 124.1049988  70.3579125  74.6040986 123.2456483
  69.9750012  74.6684997 125.9349988  69.0390012  74.7684997 126.1139988
  70.2550012  73.9594997 126.5139988  69.8849553  74.5863406 126.0377087
  72.9630012  63.7354997 137.9819988  72.5560012  64.2164997 137.2609988
  73.0040012  62.8304997 137.6739988  72.9128437  63.6789374 137.8416683
  60.1120012  70.1194997 135.9789988  60.3280012  69.7584997 136.8379988
  59.2570012  69.7454997 135.7689988  60.0259292  70.0194111 136.0683386
  62.7310012  58.5894997 131.9739988  61.8690012  58.5024997 131.5659988
  62.7080012  59.4454997 132.4019988  62.6100409  58.6932883 131.9760589
  67.3940012  58.3114997 135.3489988  67.8140012  57.8964997 136.1019988
  66.4610012  58.1334997 135.4659988  67.3253644  58.2305900 135.4679539
  70.7200012  62.0674997 136.2019988  70.2060012  61.9414997 136.9999988
  70.5650012  62.9794997 135.9579988  70.6286852  62.1736132 136.2782158
  71.4830012  66.9284997 121.9639988  71.5250012  66.7054997 121.0339988
  72.3320012  67.3274997 122.1529988  71.6035280  66.9519438 121.8623554
  67.0550012  60.8044997 122.6339988  66.8020012  60.8234997 123.5569988
  66.7990012  59.9324997 122.3319988  66.9857481  60.6892558 122.7196175
  62.8220012  63.5554997 133.0689988  62.1800012  63.5144997 133.7779988
  62.8590012  64.4814997 132.8309988  62.7390664  63.6751430 133.1339219
  62.8190012  63.7764997 127.9809988  61.9260012  63.4354997 127.9219988
  63.2690012  63.3994997 127.2249988  62.7578130  63.6789631 127.8707702
  68.3540012  64.1924997 126.7979988  67.9450012  65.0074997 126.5069988
  69.0750012  64.0524997 126.1839988  68.3954537  64.2852018 126.6751342
  67.4560012  64.3674997 138.2859988  66.8940012  63.6634997 138.6069988
  68.2830012  64.2474997 138.7539988  67.4907095  64.2547883 138.3932330
  69.3590012  63.6384997 129.6119988  69.1640012  64.2434997 128.8969988
  69.5400012  62.8044997 129.1779988  69.3567614  63.6086300 129.4554405
  60.5720012  63.8754997 134.9359988  60.5340012  64.2754997 135.8049988
  60.0810012  63.0584997 135.0269988  60.5004684  63.8198069 135.0671059
  63.9380012  61.2494997 121.7349988  63.5070012  60.8044997 122.4649988
  63.2200012  61.6214997 121.2229988  63.7819438  61.2388940 121.7656799
  57.1800012  60.9914997 128.7869988  57.8110012  60.9624997 129.5059988
  57.6290012  60.5664997 128.0559988  57.3270918  60.9300836 128.7866441
  58.4540012  61.7374997 124.2109988  58.9280012  62.3284997 123.6259988
  57.7370012  62.2684997 124.5579988  58.4219341  61.8900867 124.1778836
  68.6230012  65.2764997 134.2829988  68.9460012  64.6454997 133.6399988
  68.1830012  64.7414997 134.9439988  68.6077484  65.1178387 134.2843198
  65.4000012  61.2034997 129.0669988  64.4890012  61.2604997 129.3559988
  65.9060012  61.1434997 129.8779988  65.3436899  61.2031941 129.2161184
  60.2290012  62.8324997 127.8939988  59.3390012  62.9324997 127.5539988
  60.5250012  61.9904997 127.5479988  60.1472823  62.7323545 127.8007213
  63.8820012  62.8324997 125.5509988  64.8130012  62.9614997 125.7289988
  63.6670012  63.5024997 124.9009988  63.9804247  62.9406565 125.4875747
  69.8050012  60.4384997 132.3319988  69.1290012  60.5694997 132.9959988
  69.3200012  60.2834997 131.5209988  69.6467146  60.4355157 132.3134469
  62.5560012  64.0274997 123.1169988  62.0130012  63.6474997 122.4259988
  63.3890012  64.2214997 122.6889988  62.5943631  64.0017125 122.9644501
  73.0930012  76.1104997 138.6079988  73.2930012  76.5344997 137.7739988
  73.7480012  76.4534997 139.2149988  73.2090073  76.2149857 138.5758592
  60.6910012  68.5844997 138.2159988  61.4230012  68.8384997 138.7779988
  59.9110012  68.7884997 138.7319988  60.6857073  68.6468160 138.3626151
  66.7200012  63.9914997 130.9539988  67.2850012  63.4444997 130.4069988
  66.5730012  63.4694997 131.7429988  66.7773380  63.8462259 130.9858695
  61.7220012  60.1274997 127.3729988  61.4050012  59.2254997 127.3369988
  62.5040012  60.1294997 126.8199988  61.7842408  60.0042474 127.2933569
  65.3470012  62.3794997 133.3679988  64.5110012  62.8334997 133.4789988
  65.8710012  62.6554997 134.1199988  65.3035416  62.4788660 133.4848119
  65.8910012  68.5924997 125.0529988  65.1460012  68.0854997 124.7309988
  65.7570012  68.6414997 125.9999988  65.7708776  68.5296940 125.1368647
  73.0410012  67.7254997 133.8399988  73.6830012  68.1824997 133.2959988
  72.2110012  67.8384997 133.3769988  73.0165963  67.8032704 133.7030177
  69.7890012  61.4064997 123.2519988  68.8500012  61.5184997 123.1009988
  70.0860012  62.2634997 123.5589988  69.7007583  61.5375981 123.2728337
  67.4100012  68.7764997 136.2899988  67.0650012  68.3954997 137.0969988
  67.2100012  69.7104997 136.3609988  67.3357527  68.8505135 136.4100689
  70.5070012  63.2734997 124.9129988  71.3990012  63.1364997 125.2319988
  70.5640012  64.0644997 124.3759988  70.6366504  63.3616052 124.8840818
  61.0160012  67.8874997 130.8229988  61.7610012  67.8854997 130.2219988
  61.0940012  67.0644997 131.3039988  61.1284995  67.7758887 130.8058282
  68.0170012  70.0514997 124.0789988  67.7210012  70.8774997 124.4599988
  67.3140012  69.4314997 124.2749988  67.8814914  70.0808199 124.1576443
  58.0240012  66.3484997 136.1379988  58.2470012  65.9304997 136.9699988
  57.4220012  65.7354997 135.7149988  57.9731759  66.2084668 136.1947022
  65.0400012  65.8654997 138.3509988  64.7440012  65.6994997 137.4559988
  65.9720012  65.6454997 138.3399988  65.1254166  65.8130640 138.2270536
  69.6610012  71.2384997 136.2409988  68.7600012  71.4214997 135.9729988
  69.6950012  71.4974997 137.1609988  69.5423139  71.2985849 136.3288099
  75.3920012  63.4834997 124.6079988  74.8380012  63.0874997 123.9359988
  75.4920012  64.3934997 124.3299988  75.3297059  63.5523586 124.4784401
  75.3550012  69.2834997 137.4449988  74.5040012  69.5214997 137.0779988
  75.9460012  69.2664997 136.6919988  75.3182487  69.3138258 137.2928893
  73.6870012  72.2694997 125.0729988  73.3140012  71.4434997 125.3819988
  73.9650012  72.0864997 124.1749988  73.6735222  72.1317430 124.9939473
  70.8480012  67.0774997 132.0939988  69.9190012  66.8454997 132.0669988
  71.2990012  66.3004997 131.7639988  70.7819216  66.9407238 132.0456917
  63.3910012  71.4054997 128.2269988  63.9180012  72.1784997 128.0269988
  62.5110012  71.6304997 127.9249988  63.3442031  71.5417545 128.1587912
  59.1460012  66.2674997 122.8139988  59.7620012  66.8944997 123.1939988
  58.2840012  66.5834997 123.0859988  59.1137698  66.3959430 122.9027183
  64.8180012  69.0684997 127.8029988  64.5770012  69.9934997 127.8449988
  64.0770012  68.6094997 128.1999988  64.6849225  69.1330933 127.8623742
  65.3330012  73.2174997 134.1189988  65.6950012  74.0724997 133.8849988
  65.8640012  72.9254997 134.8589988  65.4544473  73.2951060 134.1870855
  63.5010012  74.0904997 127.3489988  62.5510012  74.1954997 127.3999988
  63.8530012  74.9104997 127.6929988  63.4184195  74.2158800 127.4025502
  68.8770012  69.3164997 133.8189988  68.4510012  69.0894997 134.6459988
  69.4570012  68.5784997 133.6369988  68.8971868  69.1855299 133.9075830
  71.0800012  70.2454997 122.8929988  71.4330012  69.8654997 123.6969988
  70.1310012  70.1524997 122.9799988  71.0000918  70.1808956 123.0148532
  71.5350012  73.8684997 136.2889988  70.9340012  73.3134997 135.7929988
  71.8170012  74.5354997 135.6619988  71.4908804  73.8826625 136.1364849
  75.5830012  74.7254997 123.0939988  76.3270012  75.3114997 122.9539988
  74.8890012  75.2934997 123.4269988  75.5909899  74.8825798 123.1198778
  59.6580012  61.1014997 135.6959988  58.7650012  61.4404997 135.6279988
  59.5590012  60.2464997 136.1139988  59.5224164  61.0322588 135.7432235
  71.9460012  68.9184997 125.1199988  71.6680012  68.1904997 125.6759988
  72.8730012  69.0374997 125.3249988  72.0333124  68.8348802 125.2238845
  59.3090012  72.9064997 134.1309988  59.5260012  71.9744997 134.0999988
  59.5550012  73.1804997 135.0139988  59.3719549  72.8160636 134.2461763
  65.1710012  71.3574997 121.3399988  65.4100012  70.6094997 120.7929988
  64.9020012  70.9694997 122.1729988  65.1673675  71.2026638 121.3776865
  64.1080012  70.9274997 123.7959988  64.2540012  70.4074997 124.5859988
  64.1050012  71.8344997 124.1029988  64.1275792  70.9788842 123.9456117
  60.5610012  68.1804997 124.3069988  59.8750012  68.5324997 124.8739988
  61.0830012  68.9434997 124.0599988  60.5376852  68.3318578 124.3512118
  68.3920012  60.8424997 134.5859988  69.0910012  60.9164997 135.2359988
  68.0110012  59.9784997 134.7399988  68.4361767  60.7357624 134.6958322
  69.1770012  60.4944997 125.6829988  69.3970012  60.9664997 124.8799988
  69.7350012  60.8894997 126.3529988  69.2824968  60.6124285 125.6637331
  66.8450012  72.6254997 124.5459988  66.0290012  73.1224997 124.5979988
  67.3750012  73.1004997 123.9059988  66.8049161  72.7577722 124.4665956
  66.3770012  62.2224997 126.5179988  67.1890012  62.7274997 126.5639988
  66.1320012  62.0774997 127.4319988  66.4550520  62.2720375 126.6478517
  66.9120012  63.2084997 135.7019988  67.0310012  63.7824997 136.4599988
  67.5680012  62.5204997 135.8169988  67.0169025  63.1939858 135.8211321
  67.2600012  59.3034997 127.4559988  66.9140012  59.9214997 128.0999988
  67.9190012  59.8044997 126.9739988  67.3016968  59.4556278 127.4789383
  64.1840012  73.6694997 124.5269988  64.3440012  74.4684997 124.0269988
  63.9860012  73.9754997 125.4119988  64.1791637  73.8204020 124.5781144
  62.9180012  60.3664997 124.1429988  62.8350012  61.2554997 124.4899988
  63.8080012  60.1014997 124.3749988  63.0269469  60.4521430 124.2217626
  73.1170012  61.1154997 136.5369988  72.2000012  61.3784997 136.4499988
  73.4520012  61.1124997 135.6409988  73.0368613  61.1510761 136.4038837
  71.7190012  64.8664997 130.6329988  70.9210012  64.4514997 130.3049988
  72.1640012  64.1754997 131.1239988  71.6699885  64.7163543 130.6544889
  61.1770012  70.7944997 123.2039988  61.7690012  71.4934997 123.4799988
  61.6360012  70.3614997 122.4839988  61.3201142  70.8317049 123.1444830
  59.4930012  63.4584997 122.3199988  59.4480012  64.3974997 122.4979988
  58.6050012  63.2224997 122.0499988  59.3668574  63.5551892 122.3078912
  72.8050012  74.1224997 132.2559988  72.6500012  74.8004997 131.5979988
  73.7380012  74.1944997 132.4589988  72.9098657  74.2249546 132.1934360
  60.3010012  58.2404997 130.9929988  60.0720012  58.2994997 130.0649988
  59.8580012  57.4484997 131.2989988  60.2098530  58.1415753 130.9074786
  59.2310012  72.1804997 127.1529988  58.3990012  72.6534997 127.1799988
  59.7770012  72.6904997 126.5549988  59.1910352  72.3141332 127.0758463
  58.5190012  74.7934997 138.4829988  59.0600012  74.5764997 139.2429988
  58.0380012  73.9874997 138.2929988  58.5279951  74.6549270 138.5612576
  63.1170012  73.7124997 140.1029988  63.8840012  73.2534997 140.4439988
  63.0950012  73.4864997 139.1739988  63.2191275  73.6190186 140.0240101
  67.2090012  73.2204997 121.4789988  66.5650012  72.5894997 121.7999988
  67.9710012  72.6894997 121.2469988  67.2238077  73.0622920 121.4916011
  69.6940012  72.0924997 138.8329988  69.3430012  71.2364997 139.0759988
  70.4200012  72.2354997 139.4399988  69.7440769  71.9945636 138.9483619
  71.8130012  73.0374997 121.7119988  72.0960012  72.2434997 122.1649988
  72.5530012  73.2704997 121.1519988  71.9518006  72.9603376 121.6982715
  58.4260012  68.6034997 139.4369988  58.5700012  67.7014997 139.1509988
  57.6540012  68.8894997 138.9499988  58.3412753  68.5186816 139.3319505
  62.7680012  68.9474997 121.5699988  62.8320012  68.1534997 122.1009988
  63.4210012  68.8284997 120.8799988  62.8650241  68.8227148 121.5494317
  65.0820012  68.5734997 138.8699988  64.7530012  68.8444997 138.0129988
  65.2340012  67.6324997 138.7829988  65.0574809  68.4833862 138.7408244
  68.1200012  69.9944997 121.3059988  67.8510012  70.1744997 122.2069988
  67.9140012  69.0684997 121.1739988  68.0553427  69.8940261 121.4115073
  70.8160012  68.4894997 136.2529988  71.5620012  69.0774997 136.1339988
  70.0590012  69.0714997 136.3169988  70.8157820  68.6487143 136.2453590
  59.2590012  65.8034997 138.8569988  59.6670012  64.9464997 138.7359988
  58.9990012  65.8184997 139.7779988  59.2797568  65.6880807 138.9649588
  63.9170012  66.9194997 123.8759988  63.4570012  66.4354997 124.5619988
  64.1720012  66.2514997 123.2399988  63.8884902  66.7628731 123.8839334
  63.2060012  64.8124997 136.2319988  62.5880012  65.4874997 136.5119988
  63.5500012  65.1334997 135.3979988  63.1679132  64.9482411 136.1576262
  64.9880012  65.1624997 122.1379988  64.8080012  65.0084997 121.2109988
  65.9380012  65.2704997 122.1829988  65.0917776  65.1560175 122.0171843
  68.2260012  67.2844997 139.5089988  69.1790012  67.3674997 139.4819988
  68.0650012  66.5724997 140.1289988  68.3346426  67.1996746 139.5890579
  74.3780012  67.5174997 121.5839988  74.1040012  67.0924997 120.7709988
  74.4170012  68.4484997 121.3669988  74.3457699  67.5852484 121.4433610
  63.5450012  62.1674997 137.3139988  63.6950012  61.4384997 136.7119988
  63.5480012  62.9444997 136.7549988  63.5659302  62.1727851 137.1560692
  63.9580012  60.5374997 134.8069988  64.4940012  60.9884997 134.1549988
  63.1060012  60.4294997 134.3839988  63.9162178  60.5846390 134.6605756
  65.5400012  65.9764997 135.0459988  66.2900012  65.8204997 134.4729988
  65.2010012  66.8284997 134.7709988  65.5968921  66.0702968 134.9303561
  69.9550012  63.7914997 140.0749988  70.1480012  62.8604997 139.9629988
  70.8130012  64.2164997 140.0639988  70.0972934  63.7216531 140.0582031
  71.2720012  66.5804997 138.1519988  70.9910012  67.2894997 137.5739988
  72.2150012  66.5074997 138.0009988  71.3609291  66.6676711 138.0524967
  62.0240012  63.3654997 139.2259988  61.2570012  62.8334997 139.0149988
  62.7030012  63.0554997 138.6259988  62.0107877  63.2508300 139.1160716
  64.7640012  57.9934997 135.2379988  64.6650012  58.9404997 135.1329988
  64.0210012  57.6214997 134.7619988  64.6501184  58.0725863 135.1593621
  66.0280012  62.3154997 138.8019988  65.7920012  62.0954997 139.7029988
  65.2440012  62.1084997 138.2919988  65.8898504  62.2574586 138.8563431
  68.7430012  61.4424997 137.8769988  67.7960012  61.4744997 138.0099988
  69.0560012  60.8174997 138.5309988  68.6556707  61.3623998 137.9836060
  70.3770012  60.0764997 139.8829988  70.2810012  59.1244997 139.8769988
  70.0560012  60.3454997 140.7429988  70.3204070  59.9824035 139.9985441
  60.2040012  61.2864997 138.9299988  60.4160012  60.5794997 138.3199988
  60.0930012  60.8484997 139.7739988  60.2179721  61.1307084 138.9606843
  64.9850012  57.2874997 137.9089988  65.6970012  56.6474997 137.8949988
  64.8840012  57.5544997 136.9959988  65.0688066  57.2360079 137.7835677
  65.3390012  58.9704997 139.9629988  65.2070012  58.4944997 139.1429988
  64.7400012  59.7144997 139.9079988  65.2399071  59.0059618 139.8432886
  64.8850012  75.8534997 123.1389988  65.8180012  76.0114997 123.2829988
  64.6210012  76.5284997 122.5149988  64.9769888  75.9664510 123.0742842
  58.4540012  70.4894997 122.6219988  59.3680012  70.5684997 122.8959988
  58.4610012  69.8024997 121.9559988  58.5801131  70.4073961 122.5694393
  57.1030012  75.8824997 127.6999988  56.4560012  75.4204997 127.1669988
  57.4570012  75.2104997 128.2819988  57.0623849  75.7284723 127.7057959
  57.9730012  73.9634997 129.5039988  57.6380012  73.0834997 129.6759988
  58.1950012  74.3084997 130.3689988  57.9571783  73.8897500 129.6444208
  75.5210012  74.7724997 132.4849988  75.5000012  74.9574997 133.4239988
  76.2120012  75.3414997 132.1439988  75.6114618  74.8746606 132.5673864
  75.0850012  74.3404997 135.4069988  74.5970012  73.6044997 135.0349988
  75.6340012  73.9464997 136.0849988  75.0924820  74.1865889 135.4477813
  73.5350012  70.1294997 140.0449988  72.6690012  70.0244997 140.4389988
  73.9120012  70.8884997 140.4909988  73.4673308  70.2176900 140.1592393
  74.8360012  68.3864997 125.5589988  75.6860012  68.8074997 125.6859988
  74.8420012  67.6464997 126.1659988  74.9531372  68.3440803 125.6584344
  75.2310012  66.4394997 127.3819988  74.5040012  65.9604997 127.7799988
  75.8120012  66.6454997 128.1149988  75.2100473  66.4018103 127.5354528
  74.9900012  69.2244997 132.3299988  75.8230012  68.8464997 132.0499988
  75.1020012  70.1674997 132.2109988  75.1192647  69.3002218 132.2755487
  73.4760012  72.1024997 134.6369988  72.8290012  72.4274997 135.2629988
  72.9590012  71.6624997 133.9629988  73.3174029  72.0875004 134.6315827
  75.4990012  66.3404997 123.7739988  74.9770012  66.6974997 123.0549988
  75.4660012  67.0154997 124.4519988  75.4231634  66.4805413 123.7673145
  73.8480012  63.5804997 122.3239988  73.9440012  64.2474997 121.6439988
  73.7080012  62.7644997 121.8429988  73.8422272  63.5615655 122.1658347
  73.0170012  64.9604997 127.9449988  72.8670012  64.0154997 127.9249988
  72.6640012  65.2414997 128.7889988  72.9487448  64.8691481 128.0563705
  58.0530012  67.0384997 131.9559988  58.2370012  66.9564997 131.0199988
  58.9020012  66.9144997 132.3789988  58.1930151  67.0105073 131.8851451
  73.8740012  66.9304997 137.5839988  74.4570012  66.1964997 137.7759988
  74.4380012  67.7024997 137.6309988  74.0299769  66.9344227 137.6166159
  75.3700012  64.8334997 138.2689988  74.5070012  64.4544997 138.1029988
  75.9750012  64.0944997 138.1939988  75.3336119  64.6818268 138.2361528
  73.0950012  60.9884997 121.4419988  73.7060012  60.6174997 122.0789988
  72.2590012  60.5674997 121.6379988  73.0655032  60.8807554 121.5557035
  72.7280012  62.5434997 126.4079988  73.0080012  61.6364997 126.5319988
  73.4870012  62.9774997 126.0189988  72.8689277  62.4780942 126.3723682
  73.3400012  63.1244997 131.8439988  74.2730012  63.3364997 131.8089988
  73.1050012  63.2264997 132.7659988  73.4359244  63.1673100 131.9638892
  73.3690012  63.8614997 134.6199988  72.5260012  64.1294997 134.9859988
  73.8110012  64.6834997 134.4089988  73.3134158  64.0093291 134.6415491
  57.6500012  62.3094997 138.0969988  58.5700012  62.1874997 138.3329988
  57.2010012  61.5594997 138.4859988  57.7151580  62.1913727 138.1819006
  75.6520012  57.8414997 139.9729988  76.0020012  57.1874997 139.3679988
  75.7990012  58.6784997 139.5329988  75.7197887  57.8651548 139.8306858
  73.3410012  59.8064997 126.4559988  73.5240012  59.3574997 127.2819988
  72.7420012  59.2214997 125.9929988  73.2850202  59.6659975 126.5063275
  58.8710012  60.6214997 130.9879988  59.3170012  59.8294997 131.2899988
  59.3380012  61.3374997 131.4179988  58.9950831  60.6100685 131.0874006
  57.1750012  63.6204997 132.0569988  57.6670012  63.3994997 131.2659988
  57.5380012  64.4614997 132.3379988  57.2913126  63.7038357 131.9867531
  75.1720012  59.9504997 138.3219988  74.2540012  60.2214997 138.2869988
  75.2950012  59.4154997 137.5379988  75.0629729  59.9152508 138.2111923
  75.2080012  59.8734997 122.9839988  75.6200012  59.1524997 122.5089988
  75.8900012  60.5434997 123.0429988  75.3565885  59.8652368 122.9268915
  57.4890012  59.8784997 126.1109988  56.5640012  60.0874997 125.9819988
  57.9430012  60.3624997 125.4209988  57.4237292  59.9725343 126.0000720
  72.2600012  74.8624997 128.0569988  72.9120012  74.5154997 127.4489988
  72.7700012  75.3514997 128.7029988  72.4182637  74.8810597 128.0610236
  57.4530012  58.6164997 134.4549988  56.7880012  58.3704997 135.0989988
  57.0100012  59.2384997 133.8779988  57.3021318  58.6669410 134.4650898
  59.6450012  71.7914997 138.5999988  58.8240012  71.9664997 138.1389988
  59.3920012  71.7184997 139.5199988  59.4985585  71.8055544 138.6613561
  62.5990012  72.7664997 134.8579988  62.1740012  73.5754997 134.5759988
  63.5030012  72.8514997 134.5559988  62.6629975  72.8889300 134.7784816
  66.9100012  74.1654997 137.8179988  67.0950012  73.8314997 138.6959988
  67.7560012  74.4744997 137.4959988  67.0497539  74.1616047 137.8945605
  69.2550012  75.4514997 137.0619988  69.9320012  74.8184997 136.8219988
  69.5770012  75.8524997 137.8689988  69.3911637  75.4191154 137.1382793
  74.1720012  58.0404997 136.1409988  73.3600012  58.3654997 135.7539988
  74.4050012  57.2804997 135.6079988  74.0922203  57.9822758 136.0158880
  60.0010012  76.0224997 134.9059988  59.2800012  76.4624997 134.4549988
  59.6350012  75.7714997 135.7539988  59.8529651  76.0487242 134.9589640
  62.4680012  75.6224997 133.9359988  61.6030012  75.6944997 134.3399988
  62.4130012  76.1694997 133.1519988  62.3422085  75.7062685 133.8853362
  67.1780012  75.5104997 133.1109988  66.7220012  76.0394997 132.4569988
  67.3410012  76.1134997 133.8359988  67.1376068  75.6644607 133.1194838
  69.5060012  74.3884997 134.0559988  68.6010012  74.5534997 133.7899988
  69.9350012  75.2414997 133.9909988  69.4401324  74.5264339 134.0107976
  72.1100012  75.9584997 134.3509988  71.9280012  76.8744997 134.1409988
  72.2870012  75.5484997 133.5049988  72.1090210  76.0284822 134.2077885
  59.4150012  74.6454997 131.8159988  59.3970012  74.2204997 132.6729988
  60.2200012  74.3274997 131.4069988  59.5213529  74.5443013 131.8780946
  61.5570012  73.3554997 130.4709988  61.3380012  72.4394997 130.6409988
  62.3810012  73.4954997 130.9369988  61.6384420  73.2490520 130.5572774
  64.0940012  73.8254997 131.3199988  64.3070012  72.9374997 131.0329988
  64.1580012  73.7914997 132.2739988  64.1318232  73.6993102 131.4097397
  67.6020012  59.4894997 130.4639988  66.9280012  58.8604997 130.7199988
  68.1660012  59.0054997 129.8609988  67.5859230  59.3378744 130.4175340
  72.7450012  57.5974997 130.5769988  73.3490012  58.1444997 130.0749988
  71.8750012  57.9164997 130.3359988  72.7101208  57.7155137 130.4756886
  74.4720012  58.7354997 128.9099988  75.0840012  58.2214997 128.3829988
  74.8540012  59.6134997 128.9329988  74.6073371  58.7837866 128.8410041
  59.9290012  58.1234997 128.2859988  59.1520012  57.8894997 127.7789988
  60.4590012  57.3264997 128.2949988  59.8942330  57.9836988 128.2177742
  58.7650012  57.9214997 124.0899988  59.2040012  58.5324997 123.4979988
  58.1320012  58.4594997 124.5639988  58.7394514  58.0779257 124.0730930
  64.5080012  58.0504997 128.0999988  65.3830012  58.4384997 128.0699988
  64.3720012  57.8354997 129.0219988  64.6093695  58.0745184 128.2206440
  70.0650012  58.0804997 129.7489988  70.1410012  58.1754997 128.7989988
  69.7900012  57.1724997 129.8779988  70.0382321  57.9707867 129.6365079
  71.4180012  58.1064997 125.4409988  70.7160012  58.7214997 125.2309988
  70.9740012  57.2684997 125.5719988  71.2616450  58.0775639 125.4299000
  58.6660012  73.8694997 124.9869988  57.9810012  73.8314997 124.3199988
  58.6700012  74.7824997 125.2759988  58.5726998  73.9876733 124.9346771
  60.6260012  59.8374997 122.5319988  61.1180012  59.2074997 122.0049988
  61.2500012  60.1334997 123.1949988  60.7775688  59.7913804 122.5495482
  65.6520012  60.1304997 124.9889988  65.8300012  59.4844997 125.6719988
  65.5990012  60.9644997 125.4559988  65.6691999  60.1548009 125.1455917
  67.5310012  75.0794997 123.3849988  68.3970012  75.4454997 123.2069988
  67.2840012  74.6394997 122.5709988  67.6162392  75.0701756 123.2506289
  74.2400012  74.6424997 126.0639988  74.0450012  73.8944997 125.4989988
  74.2010012  75.4004997 125.4809988  74.2080380  74.6426099 125.9078384
  59.8870012  58.6374997 137.8039988  59.5210012  57.8724997 138.2459988
  60.8000012  58.6664997 138.0899988  59.9602736  58.5365640 137.9032502
  61.8600012  57.9884997 139.3399988  62.7580012  57.7144997 139.1549988
  61.4730012  57.2454997 139.8039988  61.9306612  57.8505914 139.3773643
  60.4840012  74.7894997 122.0129988  60.2170012  75.0764997 122.8859988
  61.2560012  74.2434997 122.1649988  60.5517488  74.7550294 122.1531050
  70.2810012  57.3204997 139.5219988  70.3580012  56.8944997 140.3759988
  71.1750012  57.3344997 139.1789988  70.4123428  57.2640879 139.5925310
  73.4570012  73.3934997 138.2139988  72.6750012  73.2074997 137.6939988
  73.3850012  74.3224997 138.4319988  73.3402274  73.4936643 138.1723018
  87.8630012  67.2794997 128.2449988  87.9520012  68.2234997 128.1129988
  87.2250012  67.0044997 127.5869988  87.7889081  67.3714830 128.1379614
  86.7960012  66.5344997 131.6639988  86.7580012  65.8884997 132.3689988
  86.4740012  66.0684997 130.8929988  86.7472333  66.3829408 131.6562978
  79.1650012  66.1494997 133.2569988  79.2060012  65.5234997 133.9799988
  79.8680012  66.7734997 133.4389988  79.2656363  66.1481196 133.3806044
  90.5020012  69.4734997 129.9649988  90.0620012  68.7534997 130.4159988
  90.4890012  70.1944997 130.5949988  90.4400226  69.4723731 130.1118494
  80.0880012  70.5994997 131.7919988  79.7190012  69.7974997 131.4219988
  81.0290012  70.4304997 131.8379988  80.1647289  70.4670153 131.7476316
  76.6980012  64.2594997 127.1849988  76.2510012  65.1054997 127.1659988
  76.1370012  63.6794997 126.6689988  76.5609900  64.2969916 127.1126801
  77.4090012  66.4214997 129.3099988  77.6220012  65.6514997 129.8379988
  78.1470012  66.5104997 128.7069988  77.5379044  66.3281968 129.3007123
  87.6140012  74.5784997 130.1769988  88.2340012  73.9014997 129.9039988
  87.4060012  74.3604997 131.0859988  87.6706726  74.4564800 130.2624812
  85.1860012  68.9674997 132.0699988  85.4900012  68.2814997 131.4749988
  85.9070012  69.0854997 132.6879988  85.3250671  68.8896305 132.0721816
  93.8490012  60.5684997 132.9309988  93.8980012  61.1784997 133.6659988
  94.2740012  61.0294997 132.2079988  93.9131746  60.7143796 132.9339175
  88.3270012  63.3614997 132.3969988  88.4690012  62.4154997 132.4179988
  88.2200012  63.5684997 131.4689988  88.3319919  63.2598246 132.2743408
  81.4810012  61.4624997 129.6699988  81.5250012  62.3224997 129.2509988
  81.0240012  60.9104997 129.0359988  81.4252240  61.5054422 129.5269864
  89.2040012  61.5934997 128.0709988  89.8500012  61.2644997 128.6949988
  89.7140012  62.1114997 127.4479988  89.3614299  61.6184450 128.0722731
  78.1020012  63.8594997 130.4319988  78.7550012  63.3094997 130.8639988
  78.1260012  63.5854997 129.5149988  78.1946683  63.7471466 130.3672123
  83.2580012  65.4094997 129.6469988  83.8740012  64.8834997 130.1569988
  82.6720012  64.7694997 129.2439988  83.2630810  65.2509208 129.6623173
  94.2400012  62.0464997 135.1659988  93.5520012  62.7044997 135.0709988
  94.2560012  61.8494997 136.1029988  94.1479540  62.1099819 135.2795990
  80.2920012  60.3804997 133.7439988  80.0730012  60.9104997 132.9779988
  79.6240012  60.6074997 134.3909988  80.1717600  60.4836906 133.7266379
  87.6610012  69.8804997 127.2879988  87.3650012  69.5584997 126.4369988
  87.3360012  70.7804997 127.3289988  87.5766371  69.9580215 127.1771801
  82.8610012  68.0564997 134.0309988  82.1210012  68.6544997 134.1349988
  83.5750012  68.6104997 133.7159988  82.8562237  68.2132831 134.0026465
  90.9680012  60.8844997 130.0509988  90.7520012  60.1184997 130.5839988
  91.6230012  61.3564997 130.5639988  91.0270632  60.8435889 130.1932861
  79.8850012  62.2724997 131.6959988  80.4990012  62.9054997 132.0689988
  80.3970012  61.8004997 131.0399988  80.0381981  62.2952267 131.6582908
  81.2680012  70.0204997 134.8179988  81.2630012  70.9004997 134.4399988
  80.4150012  69.9374997 135.2429988  81.1519464  70.1296117 134.8237907
  77.3890012  69.6914997 125.5999988  77.1170012  69.9204997 124.7119988
  77.4350012  70.5294997 126.0609988  77.3579482  69.8361318 125.5406273
  91.0140012  71.3134997 132.3129988  90.0730012  71.3714997 132.4749988
  91.2910012  72.2194997 132.1759988  90.9224679  71.4439443 132.3166815
  91.3150012  59.5994997 133.7309988  90.5790012  60.2104997 133.6929988
  91.9980012  60.0144997 133.2039988  91.3066541  59.7391374 133.6545832
  84.3180012  57.6864997 131.1959988  84.2010012  56.7374997 131.1419988
  83.4630012  58.0184997 131.4699988  84.1864212  57.6015571 131.2256497
  89.2660012  73.0944997 128.9379988  89.6920012  72.3874997 128.4529988
  89.5830012  73.8954997 128.5219988  89.3671683  73.1061017 128.8153680
  90.4260012  70.9954997 127.4469988  90.1680012  70.3054997 126.8359988
  90.4970012  70.5524997 128.2929988  90.4002856  70.8412124 127.4776885
  92.1120012  69.5614997 135.9239988  92.2520012  68.9704997 135.1849988
  92.2790012  70.4344997 135.5679988  92.1537411  69.5985428 135.7746894
  86.5850012  66.5234997 125.6969988  85.8730012  67.0584997 125.3449988
  87.2760012  66.5794997 125.0369988  86.5810132  66.6042543 125.5596289
  86.6380012  64.9814997 122.7359988  87.3390012  65.0034997 123.3869988
  86.9410012  64.3534997 122.0789988  86.7748133  64.8997070 122.7363369
  93.9540012  65.9014997 133.9899988  93.3010012  66.5964997 134.0799988
  94.4190012  66.1114997 133.1809988  93.9275274  66.0250643 133.8928462
  89.9900012  66.7334997 126.6489988  89.2580012  66.9614997 127.2219988
  90.4380012  66.0194997 127.1029988  89.9502725  66.6682145 126.7888816
  89.8880012  64.9074997 135.7159988  89.9680012  65.6704997 136.2879988
  89.2860012  65.1864997 135.0259988  89.8175756  65.0497134 135.7010589
  81.6360012  67.3634997 128.5309988  81.3050012  66.9934997 127.7129988
  82.2240012  66.6934997 128.8779988  81.6701873  67.2221156 128.4658102
  83.0020012  70.7914997 131.2119988  82.9080012  70.2134997 130.4559988
  83.7320012  70.4204997 131.7089988  83.0877386  70.6621663 131.1755342
  82.0020012  66.1324997 132.1649988  82.5680012  66.2534997 131.4019988
  82.3210012  66.7694997 132.8029988  82.1225474  66.2352219 132.1469862
  88.3110012  71.6354997 132.8989988  88.0710012  72.2974997 133.5469988
  88.1130012  70.8014997 133.3239988  88.2513808  71.6133134 133.0451524
  82.8820012  70.5314997 136.8819988  82.5710012  71.3134997 137.3369988
  82.2320012  70.3784997 136.1959988  82.7515558  70.6179105 136.8515871
  88.8610012  65.8954997 124.3339988  89.4410012  66.0454997 125.0809988
  89.2750012  66.3664997 123.6099988  88.9962997  65.9796578 124.3384058
  79.8020012  66.7294997 136.1099988  79.8730012  67.3804997 136.8089988
  78.9120012  66.8324997 135.7749988  79.6913005  66.8325427 136.1603495
  86.5880012  72.6324997 127.7689988  87.0620012  72.9274997 128.5459988
  86.0250012  73.3704997 127.5359988  86.5768184  72.7727247 127.8439628
  81.1220012  72.6034997 137.6449988  81.1290012  72.4674997 136.6979988
  80.2060012  72.4854997 137.8969988  80.9991714  72.5689430 137.5494666
  92.5600012  57.6454997 124.1469988  91.6600012  57.7844997 124.4419988
  92.8120012  58.4764997 123.7449988  92.4708702  57.7769074 124.1330205
  80.6260012  66.4334997 126.1199988  80.3340012  67.2014997 125.6299988
  79.9520012  65.7734997 125.9579988  80.4948111  66.4495587 126.0308978
  93.7490012  72.0114997 122.5229988  93.8230012  72.9504997 122.6939988
  94.6550012  71.7064997 122.4669988  93.8815100  72.0986722 122.5388119
  76.7190012  68.7964997 134.9349988  76.2180012  68.7684997 134.1199988
  76.7240012  67.8904997 135.2449988  76.6510944  68.6702396 134.8653226
  76.4690012  71.5764997 131.8189988  77.4150012  71.4324997 131.7999988
  76.3570012  72.3604997 132.3559988  76.5832727  71.6628046 131.8890072
  94.6670012  72.2424997 137.5019988  94.6180012  71.2874997 137.4649988
  93.8400012  72.5104997 137.9029988  94.5484940  72.1478998 137.5511375
  85.6460012  71.8164997 136.3779988  85.7330012  72.6424997 136.8529988
  84.7820012  71.4864997 136.6269988  85.5411964  71.8849878 136.4766549
  86.0600012  75.5884997 126.1839988  85.9850012  75.4674997 125.2369988
  86.0930012  76.5384997 126.3019988  86.0542068  75.7002646 126.0704967
  79.7130012  74.3774997 127.9649988  79.8660012  74.0294997 128.8429988
  78.8630012  74.0214997 127.7099988  79.6189166  74.2816216 128.0508079
  89.1620012  74.7424997 123.1859988  89.5370012  73.9984997 122.7149988
  89.1660012  74.4724997 124.1049988  89.2139125  74.6040986 123.2456483
  88.8310012  74.6684997 125.9349988  87.8950012  74.7684997 126.1139988
  89.1110012  73.9594997 126.5139988  88.7409553  74.5863406 126.0377087
  91.8190012  63.7354997 137.9819988  91.4120012  64.2164997 137.2609988
  91.8600012  62.8304997 137.6739988  91.7688437  63.6789374 137.8416683
  78.9680012  70.1194997 135.9789988  79.1840012  69.7584997 136.8379988
  78.1130012  69.7454997 135.7689988  78.8819292  70.0194111 136.0683386
  81.5870012  58.5894997 131.9739988  80.7250012  58.5024997 131.5659988
  81.5640012  59.4454997 132.4019988  81.4660409  58.6932883 131.9760589
  86.2500012  58.3114997 135.3489988  86.6700012  57.8964997 136.1019988
  85.3170012  58.1334997 135.4659988  86.1813644  58.2305900 135.4679539
  89.5760012  62.0674997 136.2019988  89.0620012  61.9414997 136.9999988
  89.4210012  62.9794997 135.9579988  89.4846852  62.1736132 136.2782158
  90.3390012  66.9284997 121.9639988  90.3810012  66.7054997 121.0339988
  91.1880012  67.3274997 122.1529988  90.4595280  66.9519438 121.8623554
  85.9110012  60.8044997 122.6339988  85.6580012  60.8234997 123.5569988
  85.6550012  59.9324997 122.3319988  85.8417481  60.6892558 122.7196175
  81.6780012  63.5554997 133.0689988  81.0360012  63.5144997 133.7779988
  81.7150012  64.4814997 132.8309988  81.5950664  63.6751430 133.1339219
  81.6750012  63.7764997 127.9809988  80.7820012  63.4354997 127.9219988
  82.1250012  63.3994997 127.2249988  81.6138130  63.6789631 127.8707702
  87.2100012  64.1924997 126.7979988  86.8010012  65.0074997 126.5069988
  87.9310012  64.0524997 126.1839988  87.2514537  64.2852018 126.6751342
  86.3120012  64.3674997 138.2859988  85.7500012  63.6634997 138.6069988
  87.1390012  64.2474997 138.7539988  86.3467095  64.2547883 138.3932330
  88.2150012  63.6384997 129.6119988  88.0200012  64.2434997 128.8969988
  88.3960012  62.8044997 129.1779988  88.2127614  63.6086300 129.4554405
  79.4280012  63.8754997 134.9359988  79.3900012  64.2754997 135.8049988
  78.9370012  63.0584997 135.0269988  79.3564684  63.8198069 135.0671059
  82.7940012  61.2494997 121.7349988  82.3630012  60.8044997 122.4649988
  82.0760012  61.6214997 121.2229988  82.6379438  61.2388940 121.7656799
  76.0360012  60.9914997 128.7869988  76.6670012  60.9624997 129.5059988
  76.4850012  60.5664997 128.0559988  76.1830918  60.9300836 128.7866441
  77.3100012  61.7374997 124.2109988  77.7840012  62.3284997 123.6259988
  76.5930012  62.2684997 124.5579988  77.2779341  61.8900867 124.1778836
  87.4790012  65.2764997 134.2829988  87.8020012  64.6454997 133.6399988
  87.0390012  64.7414997 134.9439988  87.4637484  65.1178387 134.2843198
  84.2560012  61.2034997 129.0669988  83.3450012  61.2604997 129.3559988
  84.7620012  61.1434997 129.8779988  84.1996899  61.2031941 129.2161184
  79.0850012  62.8324997 127.8939988  78.1950012  62.9324997 127.5539988
  79.3810012  61.9904997 127.5479988  79.0032823  62.7323545 127.8007213
  82.7380012  62.8324997 125.5509988  83.6690012  62.9614997 125.7289988
  82.5230012  63.5024997 124.9009988  82.8364247  62.9406565 125.4875747
  88.6610012  60.4384997 132.3319988  87.9850012  60.5694997 132.9959988
  88.1760012  60.2834997 131.5209988  88.5027146  60.4355157 132.3134469
  81.4120012  64.0274997 123.1169988  80.8690012  63.6474997 122.4259988
  82.2450012  64.2214997 122.6889988  81.4503631  64.0017125 122.9644501
  91.9490012  76.1104997 138.6079988  92.1490012  76.5344997 137.7739988
  92.6040012  76.4534997 139.2149988  92.0650072  76.2149857 138.5758592
  79.5470012  68.5844997 138.2159988  80.2790012  68.8384997 138.7779988
  78.7670012  68.7884997 138.7319988  79.5417073  68.6468160 138.3626151
  85.5760012  63.9914997 130.9539988  86.1410012  63.4444997 130.4069988
  85.4290012  63.4694997 131.7429988  85.6333380  63.8462259 130.9858695
  80.5780012  60.1274997 127.3729988  80.2610012  59.2254997 127.3369988
  81.3600012  60.1294997 126.8199988  80.6402408  60.0042474 127.2933569
  84.2030012  62.3794997 133.3679988  83.3670012  62.8334997 133.4789988
  84.7270012  62.6554997 134.1199988  84.1595416  62.4788660 133.4848119
  84.7470012  68.5924997 125.0529988  84.0020012  68.0854997 124.7309988
  84.6130012  68.6414997 125.9999988  84.6268776  68.5296940 125.1368647
  91.8970012  67.7254997 133.8399988  92.5390012  68.1824997 133.2959988
  91.0670012  67.8384997 133.3769988  91.8725963  67.8032704 133.7030177
  88.6450012  61.4064997 123.2519988  87.7060012  61.5184997 123.1009988
  88.9420012  62.2634997 123.5589988  88.5567583  61.5375981 123.2728337
  86.2660012  68.7764997 136.2899988  85.9210012  68.3954997 137.0969988
  86.0660012  69.7104997 136.3609988  86.1917527  68.8505135 136.4100689
  89.3630012  63.2734997 124.9129988  90.2550012  63.1364997 125.2319988
  89.4200012  64.0644997 124.3759988  89.4926504  63.3616052 124.8840818
  79.8720012  67.8874997 130.8229988  80.6170012  67.8854997 130.2219988
  79.9500012  67.0644997 131.3039988  79.9844995  67.7758887 130.8058282
  86.8730012  70.0514997 124.0789988  86.5770012  70.8774997 124.4599988
  86.1700012  69.4314997 124.2749988  86.7374914  70.0808199 124.1576443
  76.8800012  66.3484997 136.1379988  77.1030012  65.9304997 136.9699988
  76.2780012  65.7354997 135.7149988  76.8291759  66.2084668 136.1947022
  83.8960012  65.8654997 138.3509988  83.6000012  65.6994997 137.4559988
  84.8280012  65.6454997 138.3399988  83.9814166  65.8130640 138.2270536
  88.5170012  71.2384997 136.2409988  87.6160012  71.4214997 135.9729988
  88.5510012  71.4974997 137.1609988  88.3983139  71.2985849 136.3288099
  94.2480012  63.4834997 124.6079988  93.6940012  63.0874997 123.9359988
  94.3480012  64.3934997 124.3299988  94.1857059  63.5523586 124.4784401
  94.2110012  69.2834997 137.4449988  93.3600012  69.5214997 137.0779988
  94.8020012  69.2664997 136.6919988  94.1742487  69.3138258 137.2928893
  92.5430012  72.2694997 125.0729988  92.1700012  71.4434997 125.3819988
  92.8210012  72.0864997 124.1749988  92.5295222  72.1317430 124.9939473
  89.7040012  67.0774997 132.0939988  88.7750012  66.8454997 132.0669988
  90.1550012  66.3004997 131.7639988  89.6379216  66.9407238 132.0456917
  82.2470012  71.4054997 128.2269988  82.7740012  72.1784997 128.0269988
  81.3670012  71.6304997 127.9249988  82.2002031  71.5417545 128.1587912
  78.0020012  66.2674997 122.8139988  78.6180012  66.8944997 123.1939988
  77.1400012  66.5834997 123.0859988  77.9697698  66.3959430 122.9027183
  83.6740012  69.0684997 127.8029988  83.4330012  69.9934997 127.8449988
  82.9330012  68.6094997 128.1999988  83.5409225  69.1330933 127.8623742
  84.1890012  73.2174997 134.1189988  84.5510012  74.0724997 133.8849988
  84.7200012  72.9254997 134.8589988  84.3104473  73.2951060 134.1870855
  82.3570012  74.0904997 127.3489988  81.4070012  74.1954997 127.3999988
  82.7090012  74.9104997 127.6929988  82.2744195  74.2158800 127.4025502
  87.7330012  69.3164997 133.8189988  87.3070012  69.0894997 134.6459988
  88.3130012  68.5784997 133.6369988  87.7531868  69.1855299 133.9075830
  89.9360012  70.2454997 122.8929988  90.2890012  69.8654997 123.6969988
  88.9870012  70.1524997 122.9799988  89.8560918  70.1808956 123.0148532
  90.3910012  73.8684997 136.2889988  89.7900012  73.3134997 135.7929988
  90.6730012  74.5354997 135.6619988  90.3468804  73.8826625 136.1364849
  94.4390012  74.7254997 123.0939988  95.1830012  75.3114997 122.9539988
  93.7450012  75.2934997 123.4269988  94.4469899  74.8825798 123.1198778
  78.5140012  61.1014997 135.6959988  77.6210012  61.4404997 135.6279988
  78.4150012  60.2464997 136.1139988  78.3784164  61.0322588 135.7432235
  90.8020012  68.9184997 125.1199988  90.5240012  68.1904997 125.6759988
  91.7290012  69.0374997 125.3249988  90.8893124  68.8348802 125.2238845
  78.1650012  72.9064997 134.1309988  78.3820012  71.9744997 134.0999988
  78.4110012  73.1804997 135.0139988  78.2279549  72.8160636 134.2461763
  84.0270012  71.3574997 121.3399988  84.2660012  70.6094997 120.7929988
  83.7580012  70.9694997 122.1729988  84.0233675  71.2026638 121.3776865
  82.9640012  70.9274997 123.7959988  83.1100012  70.4074997 124.5859988
  82.9610012  71.8344997 124.1029988  82.9835792  70.9788842 123.9456117
  79.4170012  68.1804997 124.3069988  78.7310012  68.5324997 124.8739988
  79.9390012  68.9434997 124.0599988  79.3936852  68.3318578 124.3512118
  87.2480012  60.8424997 134.5859988  87.9470012  60.9164997 135.2359988
  86.8670012  59.9784997 134.7399988  87.2921767  60.7357624 134.6958322
  88.0330012  60.4944997 125.6829988  88.2530012  60.9664997 124.8799988
  88.5910012  60.8894997 126.3529988  88.1384968  60.6124285 125.6637331
  85.7010012  72.6254997 124.5459988  84.8850012  73.1224997 124.5979988
  86.2310012  73.1004997 123.9059988  85.6609161  72.7577722 124.4665956
  85.2330012  62.2224997 126.5179988  86.0450012  62.7274997 126.5639988
  84.9880012  62.0774997 127.4319988  85.3110520  62.2720375 126.6478517
  85.7680012  63.2084997 135.7019988  85.8870012  63.7824997 136.4599988
  86.4240012  62.5204997 135.8169988  85.8729025  63.1939858 135.8211321
  86.1160012  59.3034997 127.4559988  85.7700012  59.9214997 128.0999988
  86.7750012  59.8044997 126.9739988  86.1576968  59.4556278 127.4789383
  83.0400012  73.6694997 124.5269988  83.2000012  74.4684997 124.0269988
  82.8420012  73.9754997 125.4119988  83.0351637  73.8204020 124.5781144
  81.7740012  60.3664997 124.1429988  81.6910012  61.2554997 124.4899988
  82.6640012  60.1014997 124.3749988  81.8829469  60.4521430 124.2217626
  91.9730012  61.1154997 136.5369988  91.0560012  61.3784997 136.4499988
  92.3080012  61.1124997 135.6409988  91.8928613  61.1510761 136.4038837
  90.5750012  64.8664997 130.6329988  89.7770012  64.4514997 130.3049988
  91.0200012  64.1754997 131.1239988  90.5259885  64.7163543 130.6544889
  80.0330012  70.7944997 123.2039988  80.6250012  71.4934997 123.4799988
  80.4920012  70.3614997 122.4839988  80.1761142  70.8317049 123.1444830
  78.3490012  63.4584997 122.3199988  78.3040012  64.3974997 122.4979988
  77.4610012  63.2224997 122.0499988  78.2228574  63.5551892 122.3078912
  91.6610012  74.1224997 132.2559988  91.5060012  74.8004997 131.5979988
  92.5940012  74.1944997 132.4589988  91.7658657  74.2249546 132.1934360
  79.1570012  58.2404997 130.9929988  78.9280012  58.2994997 130.0649988
  78.7140012  57.4484997 131.2989988  79.0658530  58.1415753 130.9074786
  78.0870012  72.1804997 127.1529988  77.2550012  72.6534997 127.1799988
  78.6330012  72.6904997 126.5549988  78.0470352  72.3141332 127.0758463
  77.3750012  74.7934997 138.4829988  77.9160012  74.5764997 139.2429988
  76.8940012  73.9874997 138.2929988  77.3839951  74.6549270 138.5612576
  81.9730012  73.7124997 140.1029988  82.7400012  73.2534997 140.4439988
  81.9510012  73.4864997 139.1739988  82.0751275  73.6190186 140.0240101
  86.0650012  73.2204997 121.4789988  85.4210012  72.5894997 121.7999988
  86.8270012  72.6894997 121.2469988  86.0798077  73.0622920 121.4916011
  88.5500012  72.0924997 138.8329988  88.1990012  71.2364997 139.0759988
  89.2760012  72.2354997 139.4399988  88.6000769  71.9945636 138.9483619
  90.6690012  73.0374997 121.7119988  90.9520012  72.2434997 122.1649988
  91.4090012  73.2704997 121.1519988  90.8078006  72.9603376 121.6982715
  77.2820012  68.6034997 139.4369988  77.4260012  67.7014997 139.1509988
  76.5100012  68.8894997 138.9499988  77.1972753  68.5186816 139.3319505
  81.6240012  68.9474997 121.5699988  81.6880012  68.1534997 122.1009988
  82.2770012  68.8284997 120.8799988  81.7210241  68.8227148 121.5494317
  83.9380012  68.5734997 138.8699988  83.6090012  68.8444997 138.0129988
  84.0900012  67.6324997 138.7829988  83.9134809  68.4833862 138.7408244
  86.9760012  69.9944997 121.3059988  86.7070012  70.1744997 122.2069988
  86.7700012  69.0684997 121.1739988  86.9113427  69.8940261 121.4115073
  89.6720012  68.4894997 136.2529988  90.4180012  69.0774997 136.1339988
  88.9150012  69.0714997 136.3169988  89.6717820  68.6487143 136.2453590
  78.1150012  65.8034997 138.8569988  78.5230012  64.9464997 138.7359988
  77.8550012  65.8184997 139.7779988  78.1357568  65.6880807 138.9649588
  82.7730012  66.9194997 123.8759988  82.3130012  66.4354997 124.5619988
  83.0280012  66.2514997 123.2399988  82.7444902  66.7628731 123.8839334
  82.0620012  64.8124997 136.2319988  81.4440012  65.4874997 136.5119988
  82.4060012  65.1334997 135.3979988  82.0239132  64.9482411 136.1576262
  83.8440012  65.1624997 122.1379988  83.6640012  65.0084997 121.2109988
  84.7940012  65.2704997 122.1829988  83.9477776  65.1560175 122.0171843
  87.0820012  67.2844997 139.5089988  88.0350012  67.3674997 139.4819988
  86.9210012  66.5724997 140.1289988  87.1906426  67.1996746 139.5890579
  93.2340012  67.5174997 121.5839988  92.9600012  67.0924997 120.7709988
  93.2730012  68.4484997 121.3669988  93.2017699  67.5852484 121.4433610
  82.4010012  62.1674997 137.3139988  82.5510012  61.4384997 136.7119988
  82.4040012  62.9444997 136.7549988  82.4219302  62.1727851 137.1560692
  82.8140012  60.5374997 134.8069988  83.3500012  60.9884997 134.1549988
  81.9620012  60.4294997 134.3839988  82.7722178  60.5846390 134.6605756
  84.3960012  65.9764997 135.0459988  85.1460012  65.8204997 134.4729988
  84.0570012  66.8284997 134.7709988  84.4528921  66.0702968 134.9303561
  88.8110012  63.7914997 140.0749988  89.0040012  62.8604997 139.9629988
  89.6690012  64.2164997 140.0639988  88.9532934  63.7216531 140.0582031
  90.1280012  66.5804997 138.1519988  89.8470012  67.2894997 137.5739988
  91.0710012  66.5074997 138.0009988  90.2169291  66.6676711 138.0524967
  80.8800012  63.3654997 139.2259988  80.1130012  62.8334997 139.0149988
  81.5590012  63.0554997 138.6259988  80.8667877  63.2508300 139.1160716
  83.6200012  57.9934997 135.2379988  83.5210012  58.9404997 135.1329988
  82.8770012  57.6214997 134.7619988  83.5061184  58.0725863 135.1593621
  84.8840012  62.3154997 138.8019988  84.6480012  62.0954997 139.7029988
  84.1000012  62.1084997 138.2919988  84.7458504  62.2574586 138.8563431
  87.5990012  61.4424997 137.8769988  86.6520012  61.4744997 138.0099988
  87.9120012  60.8174997 138.5309988  87.5116707  61.3623998 137.9836060
  89.2330012  60.0764997 139.8829988  89.1370012  59.1244997 139.8769988
  88.9120012  60.3454997 140.7429988  89.1764070  59.9824035 139.9985441
  79.0600012  61.2864997 138.9299988  79.2720012  60.5794997 138.3199988
  78.9490012  60.8484997 139.7739988  79.0739721  61.1307084 138.9606843
  83.8410012  57.2874997 137.9089988  84.5530012  56.6474997 137.8949988
  83.7400012  57.5544997 136.9959988  83.9248066  57.2360079 137.7835677
  84.1950012  58.9704997 139.9629988  84.0630012  58.4944997 139.1429988
  83.5960012  59.7144997 139.9079988  84.0959071  59.0059618 139.8432886
  83.7410012  75.8534997 123.1389988  84.6740012  76.0114997 123.2829988
  83.4770012  76.5284997 122.5149988  83.8329888  75.9664510 123.0742842
  77.3100012  70.4894997 122.6219988  78.2240012  70.5684997 122.8959988
  77.3170012  69.8024997 121.9559988  77.4361131  70.4073961 122.5694393
  75.9590012  75.8824997 127.6999988  75.3120012  75.4204997 127.1669988
  76.3130012  75.2104997 128.2819988  75.9183849  75.7284723 127.7057959
  76.8290012  73.9634997 129.5039988  76.4940012  73.0834997 129.6759988
  77.0510012  74.3084997 130.3689988  76.8131783  73.8897501 129.6444208
  94.3770012  74.7724997 132.4849988  94.3560012  74.9574997 133.4239988
  95.0680012  75.3414997 132.1439988  94.4674618  74.8746606 132.5673864
  93.9410012  74.3404997 135.4069988  93.4530012  73.6044997 135.0349988
  94.4900012  73.9464997 136.0849988  93.9484820  74.1865889 135.4477813
  92.3910012  70.1294997 140.0449988  91.5250012  70.0244997 140.4389988
  92.7680012  70.8884997 140.4909988  92.3233308  70.2176900 140.1592393
  93.6920012  68.3864997 125.5589988  94.5420012  68.8074997 125.6859988
  93.6980012  67.6464997 126.1659988  93.8091372  68.3440803 125.6584344
  94.0870012  66.4394997 127.3819988  93.3600012  65.9604997 127.7799988
  94.6680012  66.6454997 128.1149988  94.0660473  66.4018103 127.5354528
  93.8460012  69.2244997 132.3299988  94.6790012  68.8464997 132.0499988
  93.9580012  70.1674997 132.2109988  93.9752647  69.3002218 132.2755487
  92.3320012  72.1024997 134.6369988  91.6850012  72.4274997 135.2629988
  91.8150012  71.6624997 133.9629988  92.1734029  72.0875004 134.6315827
  94.3550012  66.3404997 123.7739988  93.8330012  66.6974997 123.0549988
  94.3220012  67.0154997 124.4519988  94.2791634  66.4805413 123.7673145
  92.7040012  63.5804997 122.3239988  92.8000012  64.2474997 121.6439988
  92.5640012  62.7644997 121.8429988  92.6982272  63.5615655 122.1658347
  91.8730012  64.9604997 127.9449988  91.7230012  64.0154997 127.9249988
  91.5200012  65.2414997 128.7889988  91.8047448  64.8691481 128.0563705
  76.9090012  67.0384997 131.9559988  77.0930012  66.9564997 131.0199988
  77.7580012  66.9144997 132.3789988  77.0490151  67.0105073 131.8851451
  92.7300012  66.9304997 137.5839988  93.3130012  66.1964997 137.7759988
  93.2940012  67.7024997 137.6309988  92.8859769  66.9344227 137.6166159
  94.2260012  64.8334997 138.2689988  93.3630012  64.4544997 138.1029988
  94.8310012  64.0944997 138.1939988  94.1896119  64.6818268 138.2361528
  91.9510012  60.9884997 121.4419988  92.5620012  60.6174997 122.0789988
  91.1150012  60.5674997 121.6379988  91.9215032  60.8807554 121.5557035
  91.5840012  62.5434997 126.4079988  91.8640012  61.6364997 126.5319988
  92.3430012  62.9774997 126.0189988  91.7249277  62.4780942 126.3723682
  92.1960012  63.1244997 131.8439988  93.1290012  63.3364997 131.8089988
  91.9610012  63.2264997 132.7659988  92.2919244  63.1673100 131.9638892
  92.2250012  63.8614997 134.6199988  91.3820012  64.1294997 134.9859988
  92.6670012  64.6834997 134.4089988  92.1694158  64.0093291 134.6415491
  76.5060012  62.3094997 138.0969988  77.4260012  62.1874997 138.3329988
  76.0570012  61.5594997 138.4859988  76.5711580  62.1913727 138.1819006
  94.5080012  57.8414997 139.9729988  94.8580012  57.1874997 139.3679988
  94.6550012  58.6784997 139.5329988  94.5757887  57.8651548 139.8306858
  92.1970012  59.8064997 126.4559988  92.3800012  59.3574997 127.2819988
  91.5980012  59.2214997 125.9929988  92.1410202  59.6659975 126.5063275
  77.7270012  60.6214997 130.9879988  78.1730012  59.8294997 131.2899988
  78.1940012  61.3374997 131.4179988  77.8510831  60.6100685 131.0874006
  76.0310012  63.6204997 132.0569988  76.5230012  63.3994997 131.2659988
  76.3940012  64.4614997 132.3379988  76.1473126  63.7038357 131.9867531
  94.0280012  59.9504997 138.3219988  93.1100012  60.2214997 138.2869988
  94.1510012  59.4154997 137.5379988  93.9189729  59.9152508 138.2111923
  94.0640012  59.8734997 122.9839988  94.4760012  59.1524997 122.5089988
  94.7460012  60.5434997 123.0429988  94.2125885  59.8652368 122.9268915
  76.3450012  59.8784997 126.1109988  75.4200012  60.0874997 125.9819988
  76.7990012  60.3624997 125.4209988  76.2797292  59.9725343 126.0000720
  91.1160012  74.8624997 128.0569988  91.7680012  74.5154997 127.4489988
  91.6260012  75.3514997 128.7029988  91.2742637  74.8810597 128.0610236
  76.3090012  58.6164997 134.4549988  75.6440012  58.3704997 135.0989988
  75.8660012  59.2384997 133.8779988  76.1581318  58.6669410 134.4650898
  78.5010012  71.7914997 138.5999988  77.6800012  71.9664997 138.1389988
  78.2480012  71.7184997 139.5199988  78.3545585  71.8055544 138.6613561
  81.4550012  72.7664997 134.8579988  81.0300012  73.5754997 134.5759988
  82.3590012  72.8514997 134.5559988  81.5189975  72.8889300 134.7784816
  85.7660012  74.1654997 137.8179988  85.9510012  73.8314997 138.6959988
  86.6120012  74.4744997 137.4959988  85.9057539  74.1616047 137.8945605
  88.1110012  75.4514997 137.0619988  88.7880012  74.8184997 136.8219988
  88.4330012  75.8524997 137.8689988  88.2471637  75.4191154 137.1382793
  93.0280012  58.0404997 136.1409988  92.2160012  58.3654997 135.7539988
  93.2610012  57.2804997 135.6079988  92.9482203  57.9822758 136.0158880
  78.8570012  76.0224997 134.9059988  78.1360012  76.4624997 134.4549988
  78.4910012  75.7714997 135.7539988  78.7089651  76.0487242 134.9589640
  81.3240012  75.6224997 133.9359988  80.4590012  75.6944997 134.3399988
  81.2690012  76.1694997 133.1519988  81.1982085  75.7062685 133.8853362
  86.0340012  75.5104997 133.1109988  85.5780012  76.0394997 132.4569988
  86.1970012  76.1134997 133.8359988  85.9936068  75.6644607 133.1194838
  88.3620012  74.3884997 134.0559988  87.4570012  74.5534997 133.7899988
  88.7910012  75.2414997 133.9909988  88.2961324  74.5264339 134.0107976
  90.9660012  75.9584997 134.3509988  90.7840012  76.8744997 134.1409988
  91.1430012  75.5484997 133.5049988  90.9650210  76.0284822 134.2077885
  78.2710012  74.6454997 131.8159988  78.2530012  74.2204997 132.6729988
  79.0760012  74.3274997 131.4069988  78.3773529  74.5443013 131.8780946
  80.4130012  73.3554997 130.4709988  80.1940012  72.4394997 130.6409988
  81.2370012  73.4954997 130.9369988  80.4944420  73.2490520 130.5572774
  82.9500012  73.8254997 131.3199988  83.1630012  72.9374997 131.0329988
  83.0140012  73.7914997 132.2739988  82.9878232  73.6993102 131.4097397
  86.4580012  59.4894997 130.4639988  85.7840012  58.8604997 130.7199988
  87.0220012  59.0054997 129.8609988  86.4419230  59.3378744 130.4175340
  91.6010012  57.5974997 130.5769988  92.2050012  58.1444997 130.0749988
  90.7310012  57.9164997 130.3359988  91.5661208  57.7155137 130.4756886
  93.3280012  58.7354997 128.9099988  93.9400012  58.2214997 128.3829988
  93.7100012  59.6134997 128.9329988  93.4633371  58.7837866 128.8410041
  78.7850012  58.1234997 128.2859988  78.0080012  57.8894997 127.7789988
  79.3150012  57.3264997 128.2949988  78.7502330  57.9836988 128.2177742
  77.6210012  57.9214997 124.0899988  78.0600012  58.5324997 123.4979988
  76.9880012  58.4594997 124.5639988  77.5954514  58.0779257 124.0730930
  83.3640012  58.0504997 128.0999988  84.2390012  58.4384997 128.0699988
  83.2280012  57.8354997 129.0219988  83.4653695  58.0745184 128.2206440
  88.9210012  58.0804997 129.7489988  88.9970012  58.1754997 128.7989988
  88.6460012  57.1724997 129.8779988  88.8942321  57.9707867 129.6365079
  90.2740012  58.1064997 125.4409988  89.5720012  58.7214997 125.2309988
  89.8300012  57.2684997 125.5719988  90.1176450  58.0775639 125.4299000
  77.5220012  73.8694997 124.9869988  76.8370012  73.8314997 124.3199988
  77.5260012  74.7824997 125.2759988  77.4286998  73.9876733 124.9346771
  79.4820012  59.8374997 122.5319988  79.9740012  59.2074997 122.0049988
  80.1060012  60.1334997 123.1949988  79.6335688  59.7913804 122.5495482
  84.5080012  60.1304997 124.9889988  84.6860012  59.4844997 125.6719988
  84.4550012  60.9644997 125.4559988  84.5251999  60.1548009 125.1455917
  86.3870012  75.0794997 123.3849988  87.2530012  75.4454997 123.2069988
  86.1400012  74.6394997 122.5709988  86.4722392  75.0701756 123.2506289
  93.0960012  74.6424997 126.0639988  92.9010012  73.8944997 125.4989988
  93.0570012  75.4004997 125.4809988  93.0640380  74.6426099 125.9078384
  78.7430012  58.6374997 137.8039988  78.3770012  57.8724997 138.2459988
  79.6560012  58.6664997 138.0899988  78.8162736  58.5365640 137.9032502
  80.7160012  57.9884997 139.3399988  81.6140012  57.7144997 139.1549988
  80.3290012  57.2454997 139.8039988  80.7866612  57.8505914 139.3773643
  79.3400012  74.7894997 122.0129988  79.0730012  75.0764997 122.8859988
  80.1120012  74.2434997 122.1649988  79.4077488  74.7550294 122.1531050
  89.1370012  57.3204997 139.5219988  89.2140012  56.8944997 140.3759988
  90.0310012  57.3344997 139.1789988  89.2683428  57.2640879 139.5925310
  92.3130012  73.3934997 138.2139988  91.5310012  73.2074997 137.6939988
  92.2410012  74.3224997 138.4319988  92.1962274  73.4936643 138.1723018
 106.7190012  67.2794997 128.2449988 106.8080012  68.2234997 128.1129988
 106.0810012  67.0044997 127.5869988 106.6449081  67.3714830 128.1379614
 105.6520012  66.5344997 131.6639988 105.6140012  65.8884997 132.3689988
 105.3300012  66.0684997 130.8929988 105.6032333  66.3829408 131.6562978
  98.0210012  66.1494997 133.2569988  98.0620012  65.5234997 133.9799988
  98.7240012  66.7734997 133.4389988  98.1216363  66.1481196 133.3806044
 109.3580012  69.4734997 129.9649988 108.9180012  68.7534997 130.4159988
 109.3450012  70.1944997 130.5949988 109.2960226  69.4723731 130.1118494
  98.9440012  70.5994997 131.7919988  98.5750012  69.7974997 131.4219988
  99.8850012  70.4304997 131.8379988  99.0207289  70.4670153 131.7476316
  95.5540012  64.2594997 127.1849988  95.1070012  65.1054997 127.1659988
  94.9930012  63.6794997 126.6689988  95.4169900  64.2969916 127.1126801
  96.2650012  66.4214997 129.3099988  96.4780012  65.6514997 129.8379988
  97.0030012  66.5104997 128.7069988  96.3939044  66.3281968 129.3007123
 106.4700012  74.5784997 130.1769988 107.0900012  73.9014997 129.9039988
 106.2620012  74.3604997 131.0859988 106.5266726  74.4564800 130.2624812
 104.0420012  68.9674997 132.0699988 104.3460012  68.2814997 131.4749988
 104.7630012  69.0854997 132.6879988 104.1810671  68.8896305 132.0721816
 112.7050012  60.5684997 132.9309988 112.7540012  61.1784997 133.6659988
 113.1300012  61.0294997 132.2079988 112.7691746  60.7143796 132.9339175
 107.1830012  63.3614997 132.3969988 107.3250012  62.4154997 132.4179988
 107.0760012  63.5684997 131.4689988 107.1879919  63.2598246 132.2743408
 100.3370012  61.4624997 129.6699988 100.3810012  62.3224997 129.2509988
  99.8800012  60.9104997 129.0359988 100.2812240  61.5054422 129.5269864
 108.0600012  61.5934997 128.0709988 108.7060012  61.2644997 128.6949988
 108.5700012  62.1114997 127.4479988 108.2174299  61.6184450 128.0722731
  96.9580012  63.8594997 130.4319988  97.6110012  63.3094997 130.8639988
  96.9820012  63.5854997 129.5149988  97.0506683  63.7471466 130.3672123
 102.1140012  65.4094997 129.6469988 102.7300012  64.8834997 130.1569988
 101.5280012  64.7694997 129.2439988 102.1190810  65.2509208 129.6623173
 113.0960012  62.0464997 135.1659988 112.4080012  62.7044997 135.0709988
 113.1120012  61.8494997 136.1029988 113.0039540  62.1099819 135.2795990
  99.1480012  60.3804997 133.7439988  98.9290012  60.9104997 132.9779988
  98.4800012  60.6074997 134.3909988  99.0277600  60.4836906 133.7266379
 106.5170012  69.8804997 127.2879988 106.2210012  69.5584997 126.4369988
 106.1920012  70.7804997 127.3289988 106.4326371  69.9580215 127.1771801
 101.7170012  68.0564997 134.0309988 100.9770012  68.6544997 134.1349988
 102.4310012  68.6104997 133.7159988 101.7122237  68.2132831 134.0026465
 109.8240012  60.8844997 130.0509988 109.6080012  60.1184997 130.5839988
 110.4790012  61.3564997 130.5639988 109.8830632  60.8435889 130.1932861
  98.7410012  62.2724997 131.6959988  99.3550012  62.9054997 132.0689988
  99.2530012  61.8004997 131.0399988  98.8941981  62.2952267 131.6582908
 100.1240012  70.0204997 134.8179988 100.1190012  70.9004997 134.4399988
  99.2710012  69.9374997 135.2429988 100.0079464  70.1296117 134.8237907
  96.2450012  69.6914997 125.5999988  95.9730012  69.9204997 124.7119988
  96.2910012  70.5294997 126.0609988  96.2139482  69.8361318 125.5406273
 109.8700012  71.3134997 132.3129988 108.9290012  71.3714997 132.4749988
 110.1470012  72.2194997 132.1759988 109.7784679  71.4439443 132.3166815
 110.1710012  59.5994997 133.7309988 109.4350012  60.2104997 133.6929988
 110.8540012  60.0144997 133.2039988 110.1626541  59.7391374 133.6545832
 103.1740012  57.6864997 131.1959988 103.0570012  56.7374997 131.1419988
 102.3190012  58.0184997 131.4699988 103.0424212  57.6015571 131.2256497
 108.1220012  73.0944997 128.9379988 108.5480012  72.3874997 128.4529988
 108.4390012  73.8954997 128.5219988 108.2231683  73.1061017 128.8153680
 109.2820012  70.9954997 127.4469988 109.0240012  70.3054997 126.8359988
 109.3530012  70.5524997 128.2929988 109.2562856  70.8412124 127.4776885
 110.9680012  69.5614997 135.9239988 111.1080012  68.9704997 135.1849988
 111.1350012  70.4344997 135.5679988 111.0097411  69.5985428 135.7746894
 105.4410012  66.5234997 125.6969988 104.7290012  67.0584997 125.3449988
 106.1320012  66.5794997 125.0369988 105.4370132  66.6042543 125.5596289
 105.4940012  64.9814997 122.7359988 106.1950012  65.0034997 123.3869988
 105.7970012  64.3534997 122.0789988 105.6308133  64.8997070 122.7363369
 112.8100012  65.9014997 133.9899988 112.1570012  66.5964997 134.0799988
 113.2750012  66.1114997 133.1809988 112.7835274  66.0250643 133.8928462
 108.8460012  66.7334997 126.6489988 108.1140012  66.9614997 127.2219988
 109.2940012  66.0194997 127.1029988 108.8062725  66.6682145 126.7888816
 108.7440012  64.9074997 135.7159988 108.8240012  65.6704997 136.2879988
 108.1420012  65.1864997 135.0259988 108.6735756  65.0497134 135.7010589
 100.4920012  67.3634997 128.5309988 100.1610012  66.9934997 127.7129988
 101.0800012  66.6934997 128.8779988 100.5261873  67.2221156 128.4658102
 101.8580012  70.7914997 131.2119988 101.7640012  70.2134997 130.4559988
 102.5880012  70.4204997 131.7089988 101.9437387  70.6621663 131.1755342
 100.8580012  66.1324997 132.1649988 101.4240012  66.2534997 131.4019988
 101.1770012  66.7694997 132.8029988 100.9785474  66.2352219 132.1469862
 107.1670012  71.6354997 132.8989988 106.9270012  72.2974997 133.5469988
 106.9690012  70.8014997 133.3239988 107.1073808  71.6133134 133.0451524
 101.7380012  70.5314997 136.8819988 101.4270012  71.3134997 137.3369988
 101.0880012  70.3784997 136.1959988 101.6075558  70.6179105 136.8515871
 107.7170012  65.8954997 124.3339988 108.2970012  66.0454997 125.0809988
 108.1310012  66.3664997 123.6099988 107.8522997  65.9796578 124.3384058
  98.6580012  66.7294997 136.1099988  98.7290012  67.3804997 136.8089988
  97.7680012  66.8324997 135.7749988  98.5473005  66.8325427 136.1603495
 105.4440012  72.6324997 127.7689988 105.9180012  72.9274997 128.5459988
 104.8810012  73.3704997 127.5359988 105.4328184  72.7727247 127.8439628
  99.9780012  72.6034997 137.6449988  99.9850012  72.4674997 136.6979988
  99.0620012  72.4854997 137.8969988  99.8551714  72.5689430 137.5494666
 111.4160012  57.6454997 124.1469988 110.5160012  57.7844997 124.4419988
 111.6680012  58.4764997 123.7449988 111.3268702  57.7769074 124.1330205
  99.4820012  66.4334997 126.1199988  99.1900012  67.2014997 125.6299988
  98.8080012  65.7734997 125.9579988  99.3508111  66.4495587 126.0308978
 112.6050012  72.0114997 122.5229988 112.6790012  72.9504997 122.6939988
 113.5110012  71.7064997 122.4669988 112.7375100  72.0986722 122.5388119
  95.5750012  68.7964997 134.9349988  95.0740012  68.7684997 134.1199988
  95.5800012  67.8904997 135.2449988  95.5070944  68.6702396 134.8653226
  95.3250012  71.5764997 131.8189988  96.2710012  71.4324997 131.7999988
  95.2130012  72.3604997 132.3559988  95.4392727  71.6628046 131.8890072
 113.5230012  72.2424997 137.5019988 113.4740012  71.2874997 137.4649988
 112.6960012  72.5104997 137.9029988 113.4044940  72.1478998 137.5511375
 104.5020012  71.8164997 136.3779988 104.5890012  72.6424997 136.8529988
 103.6380012  71.4864997 136.6269988 104.3971964  71.8849878 136.4766549
 104.9160012  75.5884997 126.1839988 104.8410012  75.4674997 125.2369988
 104.9490012  76.5384997 126.3019988 104.9102068  75.7002646 126.0704967
  98.5690012  74.3774997 127.9649988  98.7220012  74.0294997 128.8429988
  97.7190012  74.0214997 127.7099988  98.4749166  74.2816216 128.0508079
 108.0180012  74.7424997 123.1859988 108.3930012  73.9984997 122.7149988
 108.0220012  74.4724997 124.1049988 108.0699125  74.6040986 123.2456483
 107.6870012  74.6684997 125.9349988 106.7510012  74.7684997 126.1139988
 107.9670012  73.9594997 126.5139988 107.5969553  74.5863406 126.0377087
 110.6750012  63.7354997 137.9819988 110.2680012  64.2164997 137.2609988
 110.7160012  62.8304997 137.6739988 110.6248437  63.6789374 137.8416683
  97.8240012  70.1194997 135.9789988  98.0400012  69.7584997 136.8379988
  96.9690012  69.7454997 135.7689988  97.7379292  70.0194111 136.0683386
 100.4430012  58.5894997 131.9739988  99.5810012  58.5024997 131.5659988
 100.4200012  59.4454997 132.4019988 100.3220409  58.6932883 131.9760589
 105.1060012  58.3114997 135.3489988 105.5260012  57.8964997 136.1019988
 104.1730012  58.1334997 135.4659988 105.0373644  58.2305900 135.4679539
 108.4320012  62.0674997 136.2019988 107.9180012  61.9414997 136.9999988
 108.2770012  62.9794997 135.9579988 108.3406852  62.1736132 136.2782158
 109.1950012  66.9284997 121.9639988 109.2370012  66.7054997 121.0339988
 110.0440012  67.3274997 122.1529988 109.3155280  66.9519438 121.8623554
 104.7670012  60.8044997 122.6339988 104.5140012  60.8234997 123.5569988
 104.5110012  59.9324997 122.3319988 104.6977481  60.6892558 122.7196175
 100.5340012  63.5554997 133.0689988  99.8920012  63.5144997 133.7779988
 100.5710012  64.4814997 132.8309988 100.4510664  63.6751430 133.1339219
 100.5310012  63.7764997 127.9809988  99.6380012  63.4354997 127.9219988
 100.9810012  63.3994997 127.2249988 100.4698130  63.6789631 127.8707702
 106.0660012  64.1924997 126.7979988 105.6570012  65.0074997 126.5069988
 106.7870012  64.0524997 126.1839988 106.1074537  64.2852018 126.6751342
 105.1680012  64.3674997 138.2859988 104.6060012  63.6634997 138.6069988
 105.9950012  64.2474997 138.7539988 105.2027095  64.2547883 138.3932330
 107.0710012  63.6384997 129.6119988 106.8760012  64.2434997 128.8969988
 107.2520012  62.8044997 129.1779988 107.0687614  63.6086300 129.4554405
  98.2840012  63.8754997 134.9359988  98.2460012  64.2754997 135.8049988
  97.7930012  63.0584997 135.0269988  98.2124684  63.8198069 135.0671059
 101.6500012  61.2494997 121.7349988 101.2190012  60.8044997 122.4649988
 100.9320012  61.6214997 121.2229988 101.4939438  61.2388940 121.7656799
  94.8920012  60.9914997 128.7869988  95.5230012  60.9624997 129.5059988
  95.3410012  60.5664997 128.0559988  95.0390918  60.9300836 128.7866441
  96.1660012  61.7374997 124.2109988  96.6400012  62.3284997 123.6259988
  95.4490012  62.2684997 124.5579988  96.1339341  61.8900867 124.1778836
 106.3350012  65.2764997 134.2829988 106.6580012  64.6454997 133.6399988
 105.8950012  64.7414997 134.9439988 106.3197484  65.1178387 134.2843198
 103.1120012  61.2034997 129.0669988 102.2010012  61.2604997 129.3559988
 103.6180012  61.1434997 129.8779988 103.0556899  61.2031941 129.2161184
  97.9410012  62.8324997 127.8939988  97.0510012  62.9324997 127.5539988
  98.2370012  61.9904997 127.5479988  97.8592823  62.7323545 127.8007213
 101.5940012  62.8324997 125.5509988 102.5250012  62.9614997 125.7289988
 101.3790012  63.5024997 124.9009988 101.6924247  62.9406565 125.4875747
 107.5170012  60.4384997 132.3319988 106.8410012  60.5694997 132.9959988
 107.0320012  60.2834997 131.5209988 107.3587146  60.4355157 132.3134469
 100.2680012  64.0274997 123.1169988  99.7250012  63.6474997 122.4259988
 101.1010012  64.2214997 122.6889988 100.3063631  64.0017125 122.9644501
 110.8050012  76.1104997 138.6079988 111.0050012  76.5344997 137.7739988
 111.4600012  76.4534997 139.2149988 110.9210072  76.2149857 138.5758592
  98.4030012  68.5844997 138.2159988  99.1350012  68.8384997 138.7779988
  97.6230012  68.7884997 138.7319988  98.3977073  68.6468160 138.3626151
 104.4320012  63.9914997 130.9539988 104.9970012  63.4444997 130.4069988
 104.2850012  63.4694997 131.7429988 104.4893380  63.8462259 130.9858695
  99.4340012  60.1274997 127.3729988  99.1170012  59.2254997 127.3369988
 100.2160012  60.1294997 126.8199988  99.4962408  60.0042474 127.2933569
 103.0590012  62.3794997 133.3679988 102.2230012  62.8334997 133.4789988
 103.5830012  62.6554997 134.1199988 103.0155416  62.4788660 133.4848119
 103.6030012  68.5924997 125.0529988 102.8580012  68.0854997 124.7309988
 103.4690012  68.6414997 125.9999988 103.4828776  68.5296940 125.1368647
 110.7530012  67.7254997 133.8399988 111.3950012  68.1824997 133.2959988
 109.9230012  67.8384997 133.3769988 110.7285963  67.8032704 133.7030177
 107.5010012  61.4064997 123.2519988 106.5620012  61.5184997 123.1009988
 107.7980012  62.2634997 123.5589988 107.4127583  61.5375981 123.2728337
 105.1220012  68.7764997 136.2899988 104.7770012  68.3954997 137.0969988
 104.9220012  69.7104997 136.3609988 105.0477527  68.8505135 136.4100689
 108.2190012  63.2734997 124.9129988 109.1110012  63.1364997 125.2319988
 108.2760012  64.0644997 124.3759988 108.3486504  63.3616052 124.8840818
  98.7280012  67.8874997 130.8229988  99.4730012  67.8854997 130.2219988
  98.8060012  67.0644997 131.3039988  98.8404995  67.7758887 130.8058282
 105.7290012  70.0514997 124.0789988 105.4330012  70.8774997 124.4599988
 105.0260012  69.4314997 124.2749988 105.5934914  70.0808199 124.1576443
  95.7360012  66.3484997 136.1379988  95.9590012  65.9304997 136.9699988
  95.1340012  65.7354997 135.7149988  95.6851759  66.2084668 136.1947022
 102.7520012  65.8654997 138.3509988 102.4560012  65.6994997 137.4559988
 103.6840012  65.6454997 138.3399988 102.8374166  65.8130640 138.2270536
 107.3730012  71.2384997 136.2409988 106.4720012  71.4214997 135.9729988
 107.4070012  71.4974997 137.1609988 107.2543139  71.2985849 136.3288099
 113.1040012  63.4834997 124.6079988 112.5500012  63.0874997 123.9359988
 113.2040012  64.3934997 124.3299988 113.0417059  63.5523586 124.4784401
 113.0670012  69.2834997 137.4449988 112.2160012  69.5214997 137.0779988
 113.6580012  69.2664997 136.6919988 113.0302487  69.3138258 137.2928893
 111.3990012  72.2694997 125.0729988 111.0260012  71.4434997 125.3819988
 111.6770012  72.0864997 124.1749988 111.3855222  72.1317430 124.9939473
 108.5600012  67.0774997 132.0939988 107.6310012  66.8454997 132.0669988
 109.0110012  66.3004997 131.7639988 108.4939216  66.9407238 132.0456917
 101.1030012  71.4054997 128.2269988 101.6300012  72.1784997 128.0269988
 100.2230012  71.6304997 127.9249988 101.0562031  71.5417545 128.1587912
  96.8580012  66.2674997 122.8139988  97.4740012  66.8944997 123.1939988
  95.9960012  66.5834997 123.0859988  96.8257698  66.3959430 122.9027183
 102.5300012  69.0684997 127.8029988 102.2890012  69.9934997 127.8449988
 101.7890012  68.6094997 128.1999988 102.3969225  69.1330933 127.8623742
 103.0450012  73.2174997 134.1189988 103.4070012  74.0724997 133.8849988
 103.5760012  72.9254997 134.8589988 103.1664473  73.2951060 134.1870855
 101.2130012  74.0904997 127.3489988 100.2630012  74.1954997 127.3999988
 101.5650012  74.9104997 127.6929988 101.1304195  74.2158800 127.4025502
 106.5890012  69.3164997 133.8189988 106.1630012  69.0894997 134.6459988
 107.1690012  68.5784997 133.6369988 106.6091868  69.1855299 133.9075830
 108.7920012  70.2454997 122.8929988 109.1450012  69.8654997 123.6969988
 107.8430012  70.1524997 122.9799988 108.7120918  70.1808956 123.0148532
 109.2470012  73.8684997 136.2889988 108.6460012  73.3134997 135.7929988
 109.5290012  74.5354997 135.6619988 109.2028804  73.8826625 136.1364849
 113.2950012  74.7254997 123.0939988 114.0390012  75.3114997 122.9539988
 112.6010012  75.2934997 123.4269988 113.3029899  74.8825798 123.1198778
  97.3700012  61.1014997 135.6959988  96.4770012  61.4404997 135.6279988
  97.2710012  60.2464997 136.1139988  97.2344164  61.0322588 135.7432235
 109.6580012  68.9184997 125.1199988 109.3800012  68.1904997 125.6759988
 110.5850012  69.0374997 125.3249988 109.7453124  68.8348802 125.2238845
  97.0210012  72.9064997 134.1309988  97.2380012  71.9744997 134.0999988
  97.2670012  73.1804997 135.0139988  97.0839549  72.8160636 134.2461763
 102.8830012  71.3574997 121.3399988 103.1220012  70.6094997 120.7929988
 102.6140012  70.9694997 122.1729988 102.8793675  71.2026638 121.3776865
 101.8200012  70.9274997 123.7959988 101.9660012  70.4074997 124.5859988
 101.8170012  71.8344997 124.1029988 101.8395792  70.9788842 123.9456117
  98.2730012  68.1804997 124.3069988  97.5870012  68.5324997 124.8739988
  98.7950012  68.9434997 124.0599988  98.2496852  68.3318578 124.3512118
 106.1040012  60.8424997 134.5859988 106.8030012  60.9164997 135.2359988
 105.7230012  59.9784997 134.7399988 106.1481767  60.7357624 134.6958322
 106.8890012  60.4944997 125.6829988 107.1090012  60.9664997 124.8799988
 107.4470012  60.8894997 126.3529988 106.9944968  60.6124285 125.6637331
 104.5570012  72.6254997 124.5459988 103.7410012  73.1224997 124.5979988
 105.0870012  73.1004997 123.9059988 104.5169161  72.7577722 124.4665956
 104.0890012  62.2224997 126.5179988 104.9010012  62.7274997 126.5639988
 103.8440012  62.0774997 127.4319988 104.1670520  62.2720375 126.6478517
 104.6240012  63.2084997 135.7019988 104.7430012  63.7824997 136.4599988
 105.2800012  62.5204997 135.8169988 104.7289025  63.1939858 135.8211321
 104.9720012  59.3034997 127.4559988 104.6260012  59.9214997 128.0999988
 105.6310012  59.8044997 126.9739988 105.0136968  59.4556278 127.4789383
 101.8960012  73.6694997 124.5269988 102.0560012  74.4684997 124.0269988
 101.6980012  73.9754997 125.4119988 101.8911637  73.8204020 124.5781144
 100.6300012  60.3664997 124.1429988 100.5470012  61.2554997 124.4899988
 101.5200012  60.1014997 124.3749988 100.7389469  60.4521430 124.2217626
 110.8290012  61.1154997 136.5369988 109.9120012  61.3784997 136.4499988
 111.1640012  61.1124997 135.6409988 110.7488613  61.1510761 136.4038837
 109.4310012  64.8664997 130.6329988 108.6330012  64.4514997 130.3049988
 109.8760012  64.1754997 131.1239988 109.3819885  64.7163543 130.6544889
  98.8890012  70.7944997 123.2039988  99.4810012  71.4934997 123.4799988
  99.3480012  70.3614997 122.4839988  99.0321142  70.8317049 123.1444830
  97.2050012  63.4584997 122.3199988  97.1600012  64.3974997 122.4979988
  96.3170012  63.2224997 122.0499988  97.0788574  63.5551892 122.3078912
 110.5170012  74.1224997 132.2559988 110.3620012  74.8004997 131.5979988
 111.4500012  74.1944997 132.4589988 110.6218657  74.2249546 132.1934360
  98.0130012  58.2404997 130.9929988  97.7840012  58.2994997 130.0649988
  97.5700012  57.4484997 131.2989988  97.9218530  58.1415753 130.9074786
  96.9430012  72.1804997 127.1529988  96.1110012  72.6534997 127.1799988
  97.4890012  72.6904997 126.5549988  96.9030352  72.3141332 127.0758463
  96.2310012  74.7934997 138.4829988  96.7720012  74.5764997 139.2429988
  95.7500012  73.9874997 138.2929988  96.2399951  74.6549270 138.5612576
 100.8290012  73.7124997 140.1029988 101.5960012  73.2534997 140.4439988
 100.8070012  73.4864997 139.1739988 100.9311275  73.6190186 140.0240101
 104.9210012  73.2204997 121.4789988 104.2770012  72.5894997 121.7999988
 105.6830012  72.6894997 121.2469988 104.9358077  73.0622920 121.4916011
 107.4060012  72.0924997 138.8329988 107.0550012  71.2364997 139.0759988
 108.1320012  72.2354997 139.4399988 107.4560769  71.9945636 138.9483619
 109.5250012  73.0374997 121.7119988 109.8080012  72.2434997 122.1649988
 110.2650012  73.2704997 121.1519988 109.6638006  72.9603376 121.6982715
  96.1380012  68.6034997 139.4369988  96.2820012  67.7014997 139.1509988
  95.3660012  68.8894997 138.9499988  96.0532753  68.5186816 139.3319505
 100.4800012  68.9474997 121.5699988 100.5440012  68.1534997 122.1009988
 101.1330012  68.8284997 120.8799988 100.5770241  68.8227148 121.5494317
 102.7940012  68.5734997 138.8699988 102.4650012  68.8444997 138.0129988
 102.9460012  67.6324997 138.7829988 102.7694809  68.4833862 138.7408244
 105.8320012  69.9944997 121.3059988 105.5630012  70.1744997 122.2069988
 105.6260012  69.0684997 121.1739988 105.7673427  69.8940261 121.4115073
 108.5280012  68.4894997 136.2529988 109.2740012  69.0774997 136.1339988
 107.7710012  69.0714997 136.3169988 108.5277820  68.6487143 136.2453590
  96.9710012  65.8034997 138.8569988  97.3790012  64.9464997 138.7359988
  96.7110012  65.8184997 139.7779988  96.9917568  65.6880807 138.9649588
 101.6290012  66.9194997 123.8759988 101.1690012  66.4354997 124.5619988
 101.8840012  66.2514997 123.2399988 101.6004902  66.7628731 123.8839334
 100.9180012  64.8124997 136.2319988 100.3000012  65.4874997 136.5119988
 101.2620012  65.1334997 135.3979988 100.8799132  64.9482411 136.1576262
 102.7000012  65.1624997 122.1379988 102.5200012  65.0084997 121.2109988
 103.6500012  65.2704997 122.1829988 102.8037776  65.1560175 122.0171843
 105.9380012  67.2844997 139.5089988 106.8910012  67.3674997 139.4819988
 105.7770012  66.5724997 140.1289988 106.0466426  67.1996746 139.5890579
 112.0900012  67.5174997 121.5839988 111.8160012  67.0924997 120.7709988
 112.1290012  68.4484997 121.3669988 112.0577699  67.5852484 121.4433610
 101.2570012  62.1674997 137.3139988 101.4070012  61.4384997 136.7119988
 101.2600012  62.9444997 136.7549988 101.2779302  62.1727851 137.1560692
 101.6700012  60.5374997 134.8069988 102.2060012  60.9884997 134.1549988
 100.8180012  60.4294997 134.3839988 101.6282178  60.5846390 134.6605756
 103.2520012  65.9764997 135.0459988 104.0020012  65.8204997 134.4729988
 102.9130012  66.8284997 134.7709988 103.3088921  66.0702968 134.9303561
 107.6670012  63.7914997 140.0749988 107.8600012  62.8604997 139.9629988
 108.5250012  64.2164997 140.0639988 107.8092934  63.7216531 140.0582031
 108.9840012  66.5804997 138.1519988 108.7030012  67.2894997 137.5739988
 109.9270012  66.5074997 138.0009988 109.0729291  66.6676711 138.0524967
  99.7360012  63.3654997 139.2259988  98.9690012  62.8334997 139.0149988
 100.4150012  63.0554997 138.6259988  99.7227877  63.2508300 139.1160716
 102.4760012  57.9934997 135.2379988 102.3770012  58.9404997 135.1329988
 101.7330012  57.6214997 134.7619988 102.3621184  58.0725863 135.1593621
 103.7400012  62.3154997 138.8019988 103.5040012  62.0954997 139.7029988
 102.9560012  62.1084997 138.2919988 103.6018504  62.2574586 138.8563431
 106.4550012  61.4424997 137.8769988 105.5080012  61.4744997 138.0099988
 106.7680012  60.8174997 138.5309988 106.3676707  61.3623998 137.9836060
 108.0890012  60.0764997 139.8829988 107.9930012  59.1244997 139.8769988
 107.7680012  60.3454997 140.7429988 108.0324070  59.9824035 139.9985441
  97.9160012  61.2864997 138.9299988  98.1280012  60.5794997 138.3199988
  97.8050012  60.8484997 139.7739988  97.9299721  61.1307084 138.9606843
 102.6970012  57.2874997 137.9089988 103.4090012  56.6474997 137.8949988
 102.5960012  57.5544997 136.9959988 102.7808066  57.2360079 137.7835677
 103.0510012  58.9704997 139.9629988 102.9190012  58.4944997 139.1429988
 102.4520012  59.7144997 139.9079988 102.9519071  59.0059618 139.8432886
 102.5970012  75.8534997 123.1389988 103.5300012  76.0114997 123.2829988
 102.3330012  76.5284997 122.5149988 102.6889888  75.9664510 123.0742842
  96.1660012  70.4894997 122.6219988  97.0800012  70.5684997 122.8959988
  96.1730012  69.8024997 121.9559988  96.2921131  70.4073961 122.5694393
  94.8150012  75.8824997 127.6999988  94.1680012  75.4204997 127.1669988
  95.1690012  75.2104997 128.2819988  94.7743849  75.7284723 127.7057959
  95.6850012  73.9634997 129.5039988  95.3500012  73.0834997 129.6759988
  95.9070012  74.3084997 130.3689988  95.6691783  73.8897500 129.6444208
 113.2330012  74.7724997 132.4849988 113.2120012  74.9574997 133.4239988
 113.9240012  75.3414997 132.1439988 113.3234618  74.8746606 132.5673864
 112.7970012  74.3404997 135.4069988 112.3090012  73.6044997 135.0349988
 113.3460012  73.9464997 136.0849988 112.8044820  74.1865889 135.4477813
 111.2470012  70.1294997 140.0449988 110.3810012  70.0244997 140.4389988
 111.6240012  70.8884997 140.4909988 111.1793308  70.2176900 140.1592393
 112.5480012  68.3864997 125.5589988 113.3980012  68.8074997 125.6859988
 112.5540012  67.6464997 126.1659988 112.6651372  68.3440803 125.6584344
 112.9430012  66.4394997 127.3819988 112.2160012  65.9604997 127.7799988
 113.5240012  66.6454997 128.1149988 112.9220473  66.4018103 127.5354528
 112.7020012  69.2244997 132.3299988 113.5350012  68.8464997 132.0499988
 112.8140012  70.1674997 132.2109988 112.8312647  69.3002218 132.2755487
 111.1880012  72.1024997 134.6369988 110.5410012  72.4274997 135.2629988
 110.6710012  71.6624997 133.9629988 111.0294029  72.0875004 134.6315827
 113.2110012  66.3404997 123.7739988 112.6890012  66.6974997 123.0549988
 113.1780012  67.0154997 124.4519988 113.1351634  66.4805413 123.7673145
 111.5600012  63.5804997 122.3239988 111.6560012  64.2474997 121.6439988
 111.4200012  62.7644997 121.8429988 111.5542272  63.5615655 122.1658347
 110.7290012  64.9604997 127.9449988 110.5790012  64.0154997 127.9249988
 110.3760012  65.2414997 128.7889988 110.6607448  64.8691481 128.0563705
  95.7650012  67.0384997 131.9559988  95.9490012  66.9564997 131.0199988
  96.6140012  66.9144997 132.3789988  95.9050151  67.0105073 131.8851451
 111.5860012  66.9304997 137.5839988 112.1690012  66.1964997 137.7759988
 112.1500012  67.7024997 137.6309988 111.7419769  66.9344227 137.6166159
 113.0820012  64.8334997 138.2689988 112.2190012  64.4544997 138.1029988
 113.6870012  64.0944997 138.1939988 113.0456119  64.6818268 138.2361528
 110.8070012  60.9884997 121.4419988 111.4180012  60.6174997 122.0789988
 109.9710012  60.5674997 121.6379988 110.7775032  60.8807554 121.5557035
 110.4400012  62.5434997 126.4079988 110.7200012  61.6364997 126.5319988
 111.1990012  62.9774997 126.0189988 110.5809277  62.4780942 126.3723682
 111.0520012  63.1244997 131.8439988 111.9850012  63.3364997 131.8089988
 110.8170012  63.2264997 132.7659988 111.1479244  63.1673100 131.9638892
 111.0810012  63.8614997 134.6199988 110.2380012  64.1294997 134.9859988
 111.5230012  64.6834997 134.4089988 111.0254158  64.0093291 134.6415491
  95.3620012  62.3094997 138.0969988  96.2820012  62.1874997 138.3329988
  94.9130012  61.5594997 138.4859988  95.4271580  62.1913727 138.1819006
 113.3640012  57.8414997 139.9729988 113.7140012  57.1874997 139.3679988
 113.5110012  58.6784997 139.5329988 113.4317887  57.8651548 139.8306858
 111.0530012  59.8064997 126.4559988 111.2360012  59.3574997 127.2819988
 110.4540012  59.2214997 125.9929988 110.9970202  59.6659975 126.5063275
  96.5830012  60.6214997 130.9879988  97.0290012  59.8294997 131.2899988
  97.0500012  61.3374997 131.4179988  96.7070831  60.6100685 131.0874006
  94.8870012  63.6204997 132.0569988  95.3790012  63.3994997 131.2659988
  95.2500012  64.4614997 132.3379988  95.0033126  63.7038357 131.9867531
 112.8840012  59.9504997 138.3219988 111.9660012  60.2214997 138.2869988
 113.0070012  59.4154997 137.5379988 112.7749729  59.9152508 138.2111923
 112.9200012  59.8734997 122.9839988 113.3320012  59.1524997 122.5089988
 113.6020012  60.5434997 123.0429988 113.0685885  59.8652368 122.9268915
  95.2010012  59.8784997 126.1109988  94.2760012  60.0874997 125.9819988
  95.6550012  60.3624997 125.4209988  95.1357292  59.9725343 126.0000720
 109.9720012  74.8624997 128.0569988 110.6240012  74.5154997 127.4489988
 110.4820012  75.3514997 128.7029988 110.1302637  74.8810597 128.0610236
  95.1650012  58.6164997 134.4549988  94.5000012  58.3704997 135.0989988
  94.7220012  59.2384997 133.8779988  95.0141318  58.6669410 134.4650898
  97.3570012  71.7914997 138.5999988  96.5360012  71.9664997 138.1389988
  97.1040012  71.7184997 139.5199988  97.2105585  71.8055544 138.6613561
 100.3110012  72.7664997 134.8579988  99.8860012  73.5754997 134.5759988
 101.2150012  72.8514997 134.5559988 100.3749975  72.8889300 134.7784816
 104.6220012  74.1654997 137.8179988 104.8070012  73.8314997 138.6959988
 105.4680012  74.4744997 137.4959988 104.7617539  74.1616047 137.8945605
 106.9670012  75.4514997 137.0619988 107.6440012  74.8184997 136.8219988
 107.2890012  75.8524997 137.8689988 107.1031637  75.4191154 137.1382793
 111.8840012  58.0404997 136.1409988 111.0720012  58.3654997 135.7539988
 112.1170012  57.2804997 135.6079988 111.8042203  57.9822758 136.0158880
  97.7130012  76.0224997 134.9059988  96.9920012  76.4624997 134.4549988
  97.3470012  75.7714997 135.7539988  97.5649651  76.0487242 134.9589640
 100.1800012  75.6224997 133.9359988  99.3150012  75.6944997 134.3399988
 100.1250012  76.1694997 133.1519988 100.0542085  75.7062685 133.8853362
 104.8900012  75.5104997 133.1109988 104.4340012  76.0394997 132.4569988
 105.0530012  76.1134997 133.8359988 104.8496068  75.6644607 133.1194838
 107.2180012  74.3884997 134.0559988 106.3130012  74.5534997 133.7899988
 107.6470012  75.2414997 133.9909988 107.1521324  74.5264339 134.0107976
 109.8220012  75.9584997 134.3509988 109.6400012  76.8744997 134.1409988
 109.9990012  75.5484997 133.5049988 109.8210210  76.0284822 134.2077885
  97.1270012  74.6454997 131.8159988  97.1090012  74.2204997 132.6729988
  97.9320012  74.3274997 131.4069988  97.2333529  74.5443013 131.8780946
  99.2690012  73.3554997 130.4709988  99.0500012  72.4394997 130.6409988
 100.0930012  73.4954997 130.9369988  99.3504420  73.2490520 130.5572774
 101.8060012  73.8254997 131.3199988 102.0190012  72.9374997 131.0329988
 101.8700012  73.7914997 132.2739988 101.8438232  73.6993102 131.4097397
 105.3140012  59.4894997 130.4639988 104.6400012  58.8604997 130.7199988
 105.8780012  59.0054997 129.8609988 105.2979230  59.3378744 130.4175340
 110.4570012  57.5974997 130.5769988 111.0610012  58.1444997 130.0749988
 109.5870012  57.9164997 130.3359988 110.4221208  57.7155137 130.4756886
 112.1840012  58.7354997 128.9099988 112.7960012  58.2214997 128.3829988
 112.5660012  59.6134997 128.9329988 112.3193371  58.7837866 128.8410041
  97.6410012  58.1234997 128.2859988  96.8640012  57.8894997 127.7789988
  98.1710012  57.3264997 128.2949988  97.6062330  57.9836988 128.2177742
  96.4770012  57.9214997 124.0899988  96.9160012  58.5324997 123.4979988
  95.8440012  58.4594997 124.5639988  96.4514514  58.0779257 124.0730930
 102.2200012  58.0504997 128.0999988 103.0950012  58.4384997 128.0699988
 102.0840012  57.8354997 129.0219988 102.3213695  58.0745184 128.2206440
 107.7770012  58.0804997 129.7489988 107.8530012  58.1754997 128.7989988
 107.5020012  57.1724997 129.8779988 107.7502321  57.9707867 129.6365079
 109.1300012  58.1064997 125.4409988 108.4280012  58.7214997 125.2309988
 108.6860012  57.2684997 125.5719988 108.9736450  58.0775639 125.4299000
  96.3780012  73.8694997 124.9869988  95.6930012  73.8314997 124.3199988
  96.3820012  74.7824997 125.2759988  96.2846998  73.9876733 124.9346771
  98.3380012  59.8374997 122.5319988  98.8300012  59.2074997 122.0049988
  98.9620012  60.1334997 123.1949988  98.4895688  59.7913804 122.5495482
 103.3640012  60.1304997 124.9889988 103.5420012  59.4844997 125.6719988
 103.3110012  60.9644997 125.4559988 103.3811999  60.1548009 125.1455917
 105.2430012  75.0794997 123.3849988 106.1090012  75.4454997 123.2069988
 104.9960012  74.6394997 122.5709988 105.3282392  75.0701756 123.2506289
 111.9520012  74.6424997 126.0639988 111.7570012  73.8944997 125.4989988
 111.9130012  75.4004997 125.4809988 111.9200380  74.6426099 125.9078384
  97.5990012  58.6374997 137.8039988  97.2330012  57.8724997 138.2459988
  98.5120012  58.6664997 138.0899988  97.6722736  58.5365640 137.9032502
  99.5720012  57.9884997 139.3399988 100.4700012  57.7144997 139.1549988
  99.1850012  57.2454997 139.8039988  99.6426612  57.8505914 139.3773643
  98.1960012  74.7894997 122.0129988  97.9290012  75.0764997 122.8859988
  98.9680012  74.2434997 122.1649988  98.2637488  74.7550294 122.1531050
 107.9930012  57.3204997 139.5219988 108.0700012  56.8944997 140.3759988
 108.8870012  57.3344997 139.1789988 108.1243428  57.2640879 139.5925310
 111.1690012  73.3934997 138.2139988 110.3870012  73.2074997 137.6939988
 111.0970012  74.3224997 138.4319988 111.0522274  73.4936643 138.1723018
 125.5750012  67.2794997 128.2449988 125.6640012  68.2234997 128.1129988
 124.9370012  67.0044997 127.5869988 125.5009081  67.3714830 128.1379614
 124.5080012  66.5344997 131.6639988 124.4700012  65.8884997 132.3689988
 124.1860012  66.0684997 130.8929988 124.4592333  66.3829408 131.6562978
 116.8770012  66.1494997 133.2569988 116.9180012  65.5234997 133.9799988
 117.5800012  66.7734997 133.4389988 116.9776363  66.1481196 133.3806044
 128.2140012  69.4734997 129.9649988 127.7740012  68.7534997 130.4159988
 128.2010012  70.1944997 130.5949988 128.1520226  69.4723731 130.1118494
 117.8000012  70.5994997 131.7919988 117.4310012  69.7974997 131.4219988
 118.7410012  70.4304997 131.8379988 117.8767289  70.4670153 131.7476316
 114.4100012  64.2594997 127.1849988 113.9630012  65.1054997 127.1659988
 113.8490012  63.6794997 126.6689988 114.2729900  64.2969916 127.1126801
 115.1210012  66.4214997 129.3099988 115.3340012  65.6514997 129.8379988
 115.8590012  66.5104997 128.7069988 115.2499044  66.3281968 129.3007123
 125.3260012  74.5784997 130.1769988 125.9460012  73.9014997 129.9039988
 125.1180012  74.3604997 131.0859988 125.3826726  74.4564800 130.2624812
 122.8980012  68.9674997 132.0699988 123.2020012  68.2814997 131.4749988
 123.6190012  69.0854997 132.6879988 123.0370671  68.8896304 132.0721816
 131.5610012  60.5684997 132.9309988 131.6100012  61.1784997 133.6659988
 131.9860012  61.0294997 132.2079988 131.6251746  60.7143796 132.9339175
 126.0390012  63.3614997 132.3969988 126.1810012  62.4154997 132.4179988
 125.9320012  63.5684997 131.4689988 126.0439919  63.2598246 132.2743408
 119.1930012  61.4624997 129.6699988 119.2370012  62.3224997 129.2509988
 118.7360012  60.9104997 129.0359988 119.1372240  61.5054422 129.5269864
 126.9160012  61.5934997 128.0709988 127.5620012  61.2644997 128.6949988
 127.4260012  62.1114997 127.4479988 127.0734299  61.6184450 128.0722731
 115.8140012  63.8594997 130.4319988 116.4670012  63.3094997 130.8639988
 115.8380012  63.5854997 129.5149988 115.9066683  63.7471466 130.3672123
 120.9700012  65.4094997 129.6469988 121.5860012  64.8834997 130.1569988
 120.3840012  64.7694997 129.2439988 120.9750810  65.2509208 129.6623173
 131.9520012  62.0464997 135.1659988 131.2640012  62.7044997 135.0709988
 131.9680012  61.8494997 136.1029988 131.8599540  62.1099819 135.2795990
 118.0040012  60.3804997 133.7439988 117.7850012  60.9104997 132.9779988
 117.3360012  60.6074997 134.3909988 117.8837600  60.4836906 133.7266379
 125.3730012  69.8804997 127.2879988 125.0770012  69.5584997 126.4369988
 125.0480012  70.7804997 127.3289988 125.2886371  69.9580215 127.1771801
 120.5730012  68.0564997 134.0309988 119.8330012  68.6544997 134.1349988
 121.2870012  68.6104997 133.7159988 120.5682237  68.2132831 134.0026465
 128.6800012  60.8844997 130.0509988 128.4640012  60.1184997 130.5839988
 129.3350012  61.3564997 130.5639988 128.7390632  60.8435889 130.1932861
 117.5970012  62.2724997 131.6959988 118.2110012  62.9054997 132.0689988
 118.1090012  61.8004997 131.0399988 117.7501981  62.2952267 131.6582908
 118.9800012  70.0204997 134.8179988 118.9750012  70.9004997 134.4399988
 118.1270012  69.9374997 135.2429988 118.8639464  70.1296117 134.8237907
 115.1010012  69.6914997 125.5999988 114.8290012  69.9204997 124.7119988
 115.1470012  70.5294997 126.0609988 115.0699482  69.8361318 125.5406273
 128.7260012  71.3134997 132.3129988 127.7850012  71.3714997 132.4749988
 129.0030012  72.2194997 132.1759988 128.6344679  71.4439443 132.3166815
 129.0270012  59.5994997 133.7309988 128.2910012  60.2104997 133.6929988
 129.7100012  60.0144997 133.2039988 129.0186541  59.7391374 133.6545832
 122.0300012  57.6864997 131.1959988 121.9130012  56.7374997 131.1419988
 121.1750012  58.0184997 131.4699988 121.8984212  57.6015571 131.2256497
 126.9780012  73.0944997 128.9379988 127.4040012  72.3874997 128.4529988
 127.2950012  73.8954997 128.5219988 127.0791683  73.1061017 128.8153680
 128.1380012  70.9954997 127.4469988 127.8800012  70.3054997 126.8359988
 128.2090012  70.5524997 128.2929988 128.1122856  70.8412124 127.4776885
 129.8240012  69.5614997 135.9239988 129.9640012  68.9704997 135.1849988
 129.9910012  70.4344997 135.5679988 129.8657411  69.5985428 135.7746894
 124.2970012  66.5234997 125.6969988 123.5850012  67.0584997 125.3449988
 124.9880012  66.5794997 125.0369988 124.2930132  66.6042543 125.5596289
 124.3500012  64.9814997 122.7359988 125.0510012  65.0034997 123.3869988
 124.6530012  64.3534997 122.0789988 124.4868133  64.8997070 122.7363369
 131.6660012  65.9014997 133.9899988 131.0130012  66.5964997 134.0799988
 132.1310012  66.1114997 133.1809988 131.6395274  66.0250643 133.8928462
 127.7020012  66.7334997 126.6489988 126.9700012  66.9614997 127.2219988
 128.1500012  66.0194997 127.1029988 127.6622725  66.6682145 126.7888816
 127.6000012  64.9074997 135.7159988 127.6800012  65.6704997 136.2879988
 126.9980012  65.1864997 135.0259988 127.5295756  65.0497134 135.7010589
 119.3480012  67.3634997 128.5309988 119.0170012  66.9934997 127.7129988
 119.9360012  66.6934997 128.8779988 119.3821873  67.2221156 128.4658102
 120.7140012  70.7914997 131.2119988 120.6200012  70.2134997 130.4559988
 121.4440012  70.4204997 131.7089988 120.7997386  70.6621663 131.1755342
 119.7140012  66.1324997 132.1649988 120.2800012  66.2534997 131.4019988
 120.0330012  66.7694997 132.8029988 119.8345474  66.2352219 132.1469862
 126.0230012  71.6354997 132.8989988 125.7830012  72.2974997 133.5469988
 125.8250012  70.8014997 133.3239988 125.9633808  71.6133134 133.0451524
 120.5940012  70.5314997 136.8819988 120.2830012  71.3134997 137.3369988
 119.9440012  70.3784997 136.1959988 120.4635558  70.6179105 136.8515871
 126.5730012  65.8954997 124.3339988 127.1530012  66.0454997 125.0809988
 126.9870012  66.3664997 123.6099988 126.7082997  65.9796578 124.3384058
 117.5140012  66.7294997 136.1099988 117.5850012  67.3804997 136.8089988
 116.6240012  66.8324997 135.7749988 117.4033005  66.8325427 136.1603495
 124.3000012  72.6324997 127.7689988 124.7740012  72.9274997 128.5459988
 123.7370012  73.3704997 127.5359988 124.2888184  72.7727247 127.8439628
 118.8340012  72.6034997 137.6449988 118.8410012  72.4674997 136.6979988
 117.9180012  72.4854997 137.8969988 118.7111714  72.5689430 137.5494666
 130.2720012  57.6454997 124.1469988 129.3720012  57.7844997 124.4419988
 130.5240012  58.4764997 123.7449988 130.1828702  57.7769074 124.1330205
 118.3380012  66.4334997 126.1199988 118.0460012  67.2014997 125.6299988
 117.6640012  65.7734997 125.9579988 118.2068111  66.4495587 126.0308978
 131.4610012  72.0114997 122.5229988 131.5350012  72.9504997 122.6939988
 132.3670012  71.7064997 122.4669988 131.5935100  72.0986722 122.5388119
 114.4310012  68.7964997 134.9349988 113.9300012  68.7684997 134.1199988
 114.4360012  67.8904997 135.2449988 114.3630944  68.6702396 134.8653226
 114.1810012  71.5764997 131.8189988 115.1270012  71.4324997 131.7999988
 114.0690012  72.3604997 132.3559988 114.2952727  71.6628046 131.8890072
 132.3790012  72.2424997 137.5019988 132.3300012  71.2874997 137.4649988
 131.5520012  72.5104997 137.9029988 132.2604940  72.1478998 137.5511375
 123.3580012  71.8164997 136.3779988 123.4450012  72.6424997 136.8529988
 122.4940012  71.4864997 136.6269988 123.2531964  71.8849878 136.4766549
 123.7720012  75.5884997 126.1839988 123.6970012  75.4674997 125.2369988
 123.8050012  76.5384997 126.3019988 123.7662068  75.7002646 126.0704967
 117.4250012  74.3774997 127.9649988 117.5780012  74.0294997 128.8429988
 116.5750012  74.0214997 127.7099988 117.3309166  74.2816216 128.0508079
 126.8740012  74.7424997 123.1859988 127.2490012  73.9984997 122.7149988
 126.8780012  74.4724997 124.1049988 126.9259125  74.6040986 123.2456483
 126.5430012  74.6684997 125.9349988 125.6070012  74.7684997 126.1139988
 126.8230012  73.9594997 126.5139988 126.4529553  74.5863406 126.0377087
 129.5310012  63.7354997 137.9819988 129.1240012  64.2164997 137.2609988
 129.5720012  62.8304997 137.6739988 129.4808437  63.6789374 137.8416683
 116.6800012  70.1194997 135.9789988 116.8960012  69.7584997 136.8379988
 115.8250012  69.7454997 135.7689988 116.5939292  70.0194111 136.0683386
 119.2990012  58.5894997 131.9739988 118.4370012  58.5024997 131.5659988
 119.2760012  59.4454997 132.4019988 119.1780409  58.6932883 131.9760589
 123.9620012  58.3114997 135.3489988 124.3820012  57.8964997 136.1019988
 123.0290012  58.1334997 135.4659988 123.8933644  58.2305900 135.4679539
 127.2880012  62.0674997 136.2019988 126.7740012  61.9414997 136.9999988
 127.1330012  62.9794997 135.9579988 127.1966852  62.1736132 136.2782158
 128.0510012  66.9284997 121.9639988 128.0930012  66.7054997 121.0339988
 128.9000012  67.3274997 122.1529988 128.1715280  66.9519438 121.8623554
 123.6230012  60.8044997 122.6339988 123.3700012  60.8234997 123.5569988
 123.3670012  59.9324997 122.3319988 123.5537481  60.6892558 122.7196175
 119.3900012  63.5554997 133.0689988 118.7480012  63.5144997 133.7779988
 119.4270012  64.4814997 132.8309988 119.3070664  63.6751430 133.1339219
 119.3870012  63.7764997 127.9809988 118.4940012  63.4354997 127.9219988
 119.8370012  63.3994997 127.2249988 119.3258130  63.6789631 127.8707702
 124.9220012  64.1924997 126.7979988 124.5130012  65.0074997 126.5069988
 125.6430012  64.0524997 126.1839988 124.9634537  64.2852018 126.6751342
 124.0240012  64.3674997 138.2859988 123.4620012  63.6634997 138.6069988
 124.8510012  64.2474997 138.7539988 124.0587095  64.2547883 138.3932330
 125.9270012  63.6384997 129.6119988 125.7320012  64.2434997 128.8969988
 126.1080012  62.8044997 129.1779988 125.9247614  63.6086300 129.4554405
 117.1400012  63.8754997 134.9359988 117.1020012  64.2754997 135.8049988
 116.6490012  63.0584997 135.0269988 117.0684684  63.8198069 135.0671059
 120.5060012  61.2494997 121.7349988 120.0750012  60.8044997 122.4649988
 119.7880012  61.6214997 121.2229988 120.3499438  61.2388940 121.7656799
 113.7480012  60.9914997 128.7869988 114.3790012  60.9624997 129.5059988
 114.1970012  60.5664997 128.0559988 113.8950918  60.9300836 128.7866441
 115.0220012  61.7374997 124.2109988 115.4960012  62.3284997 123.6259988
 114.3050012  62.2684997 124.5579988 114.9899341  61.8900867 124.1778836
 125.1910012  65.2764997 134.2829988 125.5140012  64.6454997 133.6399988
 124.7510012  64.7414997 134.9439988 125.1757484  65.1178387 134.2843198
 121.9680012  61.2034997 129.0669988 121.0570012  61.2604997 129.3559988
 122.4740012  61.1434997 129.8779988 121.9116899  61.2031941 129.2161184
 116.7970012  62.8324997 127.8939988 115.9070012  62.9324997 127.5539988
 117.0930012  61.9904997 127.5479988 116.7152823  62.7323545 127.8007213
 120.4500012  62.8324997 125.5509988 121.3810012  62.9614997 125.7289988
 120.2350012  63.5024997 124.9009988 120.5484247  62.9406565 125.4875747
 126.3730012  60.4384997 132.3319988 125.6970012  60.5694997 132.9959988
 125.8880012  60.2834997 131.5209988 126.2147146  60.4355157 132.3134469
 119.1240012  64.0274997 123.1169988 118.5810012  63.6474997 122.4259988
 119.9570012  64.2214997 122.6889988 119.1623631  64.0017125 122.9644501
 129.6610012  76.1104997 138.6079988 129.8610012  76.5344997 137.7739988
 130.3160012  76.4534997 139.2149988 129.7770072  76.2149857 138.5758592
 117.2590012  68.5844997 138.2159988 117.9910012  68.8384997 138.7779988
 116.4790012  68.7884997 138.7319988 117.2537073  68.6468160 138.3626151
 123.2880012  63.9914997 130.9539988 123.8530012  63.4444997 130.4069988
 123.1410012  63.4694997 131.7429988 123.3453380  63.8462259 130.9858695
 118.2900012  60.1274997 127.3729988 117.9730012  59.2254997 127.3369988
 119.0720012  60.1294997 126.8199988 118.3522408  60.0042474 127.2933569
 121.9150012  62.3794997 133.3679988 121.0790012  62.8334997 133.4789988
 122.4390012  62.6554997 134.1199988 121.8715416  62.4788660 133.4848119
 122.4590012  68.5924997 125.0529988 121.7140012  68.0854997 124.7309988
 122.3250012  68.6414997 125.9999988 122.3388776  68.5296940 125.1368647
 129.6090012  67.7254997 133.8399988 130.2510012  68.1824997 133.2959988
 128.7790012  67.8384997 133.3769988 129.5845963  67.8032704 133.7030177
 126.3570012  61.4064997 123.2519988 125.4180012  61.5184997 123.1009988
 126.6540012  62.2634997 123.5589988 126.2687583  61.5375981 123.2728337
 123.9780012  68.7764997 136.2899988 123.6330012  68.3954997 137.0969988
 123.7780012  69.7104997 136.3609988 123.9037527  68.8505135 136.4100689
 127.0750012  63.2734997 124.9129988 127.9670012  63.1364997 125.2319988
 127.1320012  64.0644997 124.3759988 127.2046504  63.3616052 124.8840818
 117.5840012  67.8874997 130.8229988 118.3290012  67.8854997 130.2219988
 117.6620012  67.0644997 131.3039988 117.6964995  67.7758887 130.8058282
 124.5850012  70.0514997 124.0789988 124.2890012  70.8774997 124.4599988
 123.8820012  69.4314997 124.2749988 124.4494914  70.0808199 124.1576443
 114.5920012  66.3484997 136.1379988 114.8150012  65.9304997 136.9699988
 113.9900012  65.7354997 135.7149988 114.5411759  66.2084668 136.1947022
 121.6080012  65.8654997 138.3509988 121.3120012  65.6994997 137.4559988
 122.5400012  65.6454997 138.3399988 121.6934166  65.8130640 138.2270536
 126.2290012  71.2384997 136.2409988 125.3280012  71.4214997 135.9729988
 126.2630012  71.4974997 137.1609988 126.1103139  71.2985849 136.3288099
 131.9600012  63.4834997 124.6079988 131.4060012  63.0874997 123.9359988
 132.0600012  64.3934997 124.3299988 131.8977059  63.5523586 124.4784401
 131.9230012  69.2834997 137.4449988 131.0720012  69.5214997 137.0779988
 132.5140012  69.2664997 136.6919988 131.8862487  69.3138258 137.2928893
 130.2550012  72.2694997 125.0729988 129.8820012  71.4434997 125.3819988
 130.5330012  72.0864997 124.1749988 130.2415222  72.1317430 124.9939473
 127.4160012  67.0774997 132.0939988 126.4870012  66.8454997 132.0669988
 127.8670012  66.3004997 131.7639988 127.3499216  66.9407238 132.0456917
 119.9590012  71.4054997 128.2269988 120.4860012  72.1784997 128.0269988
 119.0790012  71.6304997 127.9249988 119.9122031  71.5417545 128.1587912
 115.7140012  66.2674997 122.8139988 116.3300012  66.8944997 123.1939988
 114.8520012  66.5834997 123.0859988 115.6817698  66.3959430 122.9027183
 121.3860012  69.0684997 127.8029988 121.1450012  69.9934997 127.8449988
 120.6450012  68.6094997 128.1999988 121.2529225  69.1330933 127.8623742
 121.9010012  73.2174997 134.1189988 122.2630012  74.0724997 133.8849988
 122.4320012  72.9254997 134.8589988 122.0224473  73.2951060 134.1870855
 120.0690012  74.0904997 127.3489988 119.1190012  74.1954997 127.3999988
 120.4210012  74.9104997 127.6929988 119.9864195  74.2158800 127.4025502
 125.4450012  69.3164997 133.8189988 125.0190012  69.0894997 134.6459988
 126.0250012  68.5784997 133.6369988 125.4651868  69.1855299 133.9075830
 127.6480012  70.2454997 122.8929988 128.0010012  69.8654997 123.6969988
 126.6990012  70.1524997 122.9799988 127.5680918  70.1808956 123.0148532
 128.1030012  73.8684997 136.2889988 127.5020012  73.3134997 135.7929988
 128.3850012  74.5354997 135.6619988 128.0588804  73.8826625 136.1364849
 132.1510012  74.7254997 123.0939988 132.8950012  75.3114997 122.9539988
 131.4570012  75.2934997 123.4269988 132.1589899  74.8825798 123.1198778
 116.2260012  61.1014997 135.6959988 115.3330012  61.4404997 135.6279988
 116.1270012  60.2464997 136.1139988 116.0904164  61.0322588 135.7432235
 128.5140012  68.9184997 125.1199988 128.2360012  68.1904997 125.6759988
 129.4410012  69.0374997 125.3249988 128.6013124  68.8348802 125.2238845
 115.8770012  72.9064997 134.1309988 116.0940012  71.9744997 134.0999988
 116.1230012  73.1804997 135.0139988 115.9399549  72.8160636 134.2461763
 121.7390012  71.3574997 121.3399988 121.9780012  70.6094997 120.7929988
 121.4700012  70.9694997 122.1729988 121.7353675  71.2026638 121.3776865
 120.6760012  70.9274997 123.7959988 120.8220012  70.4074997 124.5859988
 120.6730012  71.8344997 124.1029988 120.6955792  70.9788842 123.9456117
 117.1290012  68.1804997 124.3069988 116.4430012  68.5324997 124.8739988
 117.6510012  68.9434997 124.0599988 117.1056852  68.3318578 124.3512118
 124.9600012  60.8424997 134.5859988 125.6590012  60.9164997 135.2359988
 124.5790012  59.9784997 134.7399988 125.0041767  60.7357624 134.6958322
 125.7450012  60.4944997 125.6829988 125.9650012  60.9664997 124.8799988
 126.3030012  60.8894997 126.3529988 125.8504968  60.6124285 125.6637331
 123.4130012  72.6254997 124.5459988 122.5970012  73.1224997 124.5979988
 123.9430012  73.1004997 123.9059988 123.3729161  72.7577722 124.4665956
 122.9450012  62.2224997 126.5179988 123.7570012  62.7274997 126.5639988
 122.7000012  62.0774997 127.4319988 123.0230520  62.2720375 126.6478517
 123.4800012  63.2084997 135.7019988 123.5990012  63.7824997 136.4599988
 124.1360012  62.5204997 135.8169988 123.5849025  63.1939858 135.8211321
 123.8280012  59.3034997 127.4559988 123.4820012  59.9214997 128.0999988
 124.4870012  59.8044997 126.9739988 123.8696968  59.4556278 127.4789383
 120.7520012  73.6694997 124.5269988 120.9120012  74.4684997 124.0269988
 120.5540012  73.9754997 125.4119988 120.7471637  73.8204020 124.5781144
 119.4860012  60.3664997 124.1429988 119.4030012  61.2554997 124.4899988
 120.3760012  60.1014997 124.3749988 119.5949469  60.4521430 124.2217626
 129.6850012  61.1154997 136.5369988 128.7680012  61.3784997 136.4499988
 130.0200012  61.1124997 135.6409988 129.6048613  61.1510761 136.4038837
 128.2870012  64.8664997 130.6329988 127.4890012  64.4514997 130.3049988
 128.7320012  64.1754997 131.1239988 128.2379885  64.7163543 130.6544889
 117.7450012  70.7944997 123.2039988 118.3370012  71.4934997 123.4799988
 118.2040012  70.3614997 122.4839988 117.8881142  70.8317049 123.1444830
 116.0610012  63.4584997 122.3199988 116.0160012  64.3974997 122.4979988
 115.1730012  63.2224997 122.0499988 115.9348574  63.5551892 122.3078912
 129.3730012  74.1224997 132.2559988 129.2180012  74.8004997 131.5979988
 130.3060012  74.1944997 132.4589988 129.4778657  74.2249546 132.1934360
 116.8690012  58.2404997 130.9929988 116.6400012  58.2994997 130.0649988
 116.4260012  57.4484997 131.2989988 116.7778530  58.1415753 130.9074786
 115.7990012  72.1804997 127.1529988 114.9670012  72.6534997 127.1799988
 116.3450012  72.6904997 126.5549988 115.7590352  72.3141332 127.0758463
 115.0870012  74.7934997 138.4829988 115.6280012  74.5764997 139.2429988
 114.6060012  73.9874997 138.2929988 115.0959951  74.6549270 138.5612576
 119.6850012  73.7124997 140.1029988 120.4520012  73.2534997 140.4439988
 119.6630012  73.4864997 139.1739988 119.7871275  73.6190186 140.0240101
 123.7770012  73.2204997 121.4789988 123.1330012  72.5894997 121.7999988
 124.5390012  72.6894997 121.2469988 123.7918077  73.0622920 121.4916011
 126.2620012  72.0924997 138.8329988 125.9110012  71.2364997 139.0759988
 126.9880012  72.2354997 139.4399988 126.3120769  71.9945636 138.9483619
 128.3810012  73.0374997 121.7119988 128.6640012  72.2434997 122.1649988
 129.1210012  73.2704997 121.1519988 128.5198006  72.9603376 121.6982715
 114.9940012  68.6034997 139.4369988 115.1380012  67.7014997 139.1509988
 114.2220012  68.8894997 138.9499988 114.9092753  68.5186816 139.3319505
 119.3360012  68.9474997 121.5699988 119.4000012  68.1534997 122.1009988
 119.9890012  68.8284997 120.8799988 119.4330241  68.8227148 121.5494317
 121.6500012  68.5734997 138.8699988 121.3210012  68.8444997 138.0129988
 121.8020012  67.6324997 138.7829988 121.6254809  68.4833862 138.7408244
 124.6880012  69.9944997 121.3059988 124.4190012  70.1744997 122.2069988
 124.4820012  69.0684997 121.1739988 124.6233427  69.8940261 121.4115073
 127.3840012  68.4894997 136.2529988 128.1300012  69.0774997 136.1339988
 126.6270012  69.0714997 136.3169988 127.3837820  68.6487143 136.2453590
 115.8270012  65.8034997 138.8569988 116.2350012  64.9464997 138.7359988
 115.5670012  65.8184997 139.7779988 115.8477568  65.6880807 138.9649588
 120.4850012  66.9194997 123.8759988 120.0250012  66.4354997 124.5619988
 120.7400012  66.2514997 123.2399988 120.4564902  66.7628731 123.8839334
 119.7740012  64.8124997 136.2319988 119.1560012  65.4874997 136.5119988
 120.1180012  65.1334997 135.3979988 119.7359132  64.9482411 136.1576262
 121.5560012  65.1624997 122.1379988 121.3760012  65.0084997 121.2109988
 122.5060012  65.2704997 122.1829988 121.6597776  65.1560175 122.0171843
 124.7940012  67.2844997 139.5089988 125.7470012  67.3674997 139.4819988
 124.6330012  66.5724997 140.1289988 124.9026426  67.1996746 139.5890579
 130.9460012  67.5174997 121.5839988 130.6720012  67.0924997 120.7709988
 130.9850012  68.4484997 121.3669988 130.9137699  67.5852484 121.4433610
 120.1130012  62.1674997 137.3139988 120.2630012  61.4384997 136.7119988
 120.1160012  62.9444997 136.7549988 120.1339302  62.1727851 137.1560692
 120.5260012  60.5374997 134.8069988 121.0620012  60.9884997 134.1549988
 119.6740012  60.4294997 134.3839988 120.4842178  60.5846390 134.6605756
 122.1080012  65.9764997 135.0459988 122.8580012  65.8204997 134.4729988
 121.7690012  66.8284997 134.7709988 122.1648921  66.0702968 134.9303561
 126.5230012  63.7914997 140.0749988 126.7160012  62.8604997 139.9629988
 127.3810012  64.2164997 140.0639988 126.6652934  63.7216531 140.0582031
 127.8400012  66.5804997 138.1519988 127.5590012  67.2894997 137.5739988
 128.7830012  66.5074997 138.0009988 127.9289291  66.6676711 138.0524967
 118.5920012  63.3654997 139.2259988 117.8250012  62.8334997 139.0149988
 119.2710012  63.0554997 138.6259988 118.5787877  63.2508300 139.1160716
 121.3320012  57.9934997 135.2379988 121.2330012  58.9404997 135.1329988
 120.5890012  57.6214997 134.7619988 121.2181184  58.0725863 135.1593621
 122.5960012  62.3154997 138.8019988 122.3600012  62.0954997 139.7029988
 121.8120012  62.1084997 138.2919988 122.4578504  62.2574586 138.8563431
 125.3110012  61.4424997 137.8769988 124.3640012  61.4744997 138.0099988
 125.6240012  60.8174997 138.5309988 125.2236707  61.3623998 137.9836060
 126.9450012  60.0764997 139.8829988 126.8490012  59.1244997 139.8769988
 126.6240012  60.3454997 140.7429988 126.8884070  59.9824035 139.9985441
 116.7720012  61.2864997 138.9299988 116.9840012  60.5794997 138.3199988
 116.6610012  60.8484997 139.7739988 116.7859721  61.1307084 138.9606843
 121.5530012  57.2874997 137.9089988 122.2650012  56.6474997 137.8949988
 121.4520012  57.5544997 136.9959988 121.6368066  57.2360079 137.7835677
 121.9070012  58.9704997 139.9629988 121.7750012  58.4944997 139.1429988
 121.3080012  59.7144997 139.9079988 121.8079071  59.0059618 139.8432886
 121.4530012  75.8534997 123.1389988 122.3860012  76.0114997 123.2829988
 121.1890012  76.5284997 122.5149988 121.5449888  75.9664510 123.0742842
 115.0220012  70.4894997 122.6219988 115.9360012  70.5684997 122.8959988
 115.0290012  69.8024997 121.9559988 115.1481131  70.4073961 122.5694393
 113.6710012  75.8824997 127.6999988 113.0240012  75.4204997 127.1669988
 114.0250012  75.2104997 128.2819988 113.6303849  75.7284723 127.7057959
 114.5410012  73.9634997 129.5039988 114.2060012  73.0834997 129.6759988
 114.7630012  74.3084997 130.3689988 114.5251783  73.8897500 129.6444208
 132.0890012  74.7724997 132.4849988 132.0680012  74.9574997 133.4239988
 132.7800012  75.3414997 132.1439988 132.1794618  74.8746606 132.5673864
 131.6530012  74.3404997 135.4069988 131.1650012  73.6044997 135.0349988
 132.2020012  73.9464997 136.0849988 131.6604820  74.1865889 135.4477813
 130.1030012  70.1294997 140.0449988 129.2370012  70.0244997 140.4389988
 130.4800012  70.8884997 140.4909988 130.0353308  70.2176900 140.1592393
 131.4040012  68.3864997 125.5589988 132.2540012  68.8074997 125.6859988
 131.4100012  67.6464997 126.1659988 131.5211372  68.3440803 125.6584344
 131.7990012  66.4394997 127.3819988 131.0720012  65.9604997 127.7799988
 132.3800012  66.6454997 128.1149988 131.7780473  66.4018103 127.5354528
 131.5580012  69.2244997 132.3299988 132.3910012  68.8464997 132.0499988
 131.6700012  70.1674997 132.2109988 131.6872647  69.3002218 132.2755487
 130.0440012  72.1024997 134.6369988 129.3970012  72.4274997 135.2629988
 129.5270012  71.6624997 133.9629988 129.8854029  72.0875004 134.6315827
 132.0670012  66.3404997 123.7739988 131.5450012  66.6974997 123.0549988
 132.0340012  67.0154997 124.4519988 131.9911634  66.4805413 123.7673145
 130.4160012  63.5804997 122.3239988 130.5120012  64.2474997 121.6439988
 130.2760012  62.7644997 121.8429988 130.4102272  63.5615655 122.1658347
 129.5850012  64.9604997 127.9449988 129.4350012  64.0154997 127.9249988
 129.2320012  65.2414997 128.7889988 129.5167448  64.8691481 128.0563705
 114.6210012  67.0384997 131.9559988 114.8050012  66.9564997 131.0199988
 115.4700012  66.9144997 132.3789988 114.7610151  67.0105073 131.8851451
 130.4420012  66.9304997 137.5839988 131.0250012  66.1964997 137.7759988
 131.0060012  67.7024997 137.6309988 130.5979769  66.9344227 137.6166159
 131.9380012  64.8334997 138.2689988 131.0750012  64.4544997 138.1029988
 132.5430012  64.0944997 138.1939988 131.9016119  64.6818268 138.2361528
 129.6630012  60.9884997 121.4419988 130.2740012  60.6174997 122.0789988
 128.8270012  60.5674997 121.6379988 129.6335032  60.8807554 121.5557035
 129.2960012  62.5434997 126.4079988 129.5760012  61.6364997 126.5319988
 130.0550012  62.9774997 126.0189988 129.4369277  62.4780942 126.3723682
 129.9080012  63.1244997 131.8439988 130.8410012  63.3364997 131.8089988
 129.6730012  63.2264997 132.7659988 130.0039244  63.1673100 131.9638892
 129.9370012  63.8614997 134.6199988 129.0940012  64.1294997 134.9859988
 130.3790012  64.6834997 134.4089988 129.8814158  64.0093291 134.6415491
 114.2180012  62.3094997 138.0969988 115.1380012  62.1874997 138.3329988
 113.7690012  61.5594997 138.4859988 114.2831580  62.1913727 138.1819006
 132.2200012  57.8414997 139.9729988 132.5700012  57.1874997 139.3679988
 132.3670012  58.6784997 139.5329988 132.2877887  57.8651548 139.8306858
 129.9090012  59.8064997 126.4559988 130.0920012  59.3574997 127.2819988
 129.3100012  59.2214997 125.9929988 129.8530202  59.6659975 126.5063275
 115.4390012  60.6214997 130.9879988 115.8850012  59.8294997 131.2899988
 115.9060012  61.3374997 131.4179988 115.5630831  60.6100685 131.0874006
 113.7430012  63.6204997 132.0569988 114.2350012  63.3994997 131.2659988
 114.1060012  64.4614997 132.3379988 113.8593126  63.7038357 131.9867531
 131.7400012  59.9504997 138.3219988 130.8220012  60.2214997 138.2869988
 131.8630012  59.4154997 137.5379988 131.6309729  59.9152508 138.2111923
 131.7760012  59.8734997 122.9839988 132.1880012  59.1524997 122.5089988
 132.4580012  60.5434997 123.0429988 131.9245885  59.8652368 122.9268915
 114.0570012  59.8784997 126.1109988 113.1320012  60.0874997 125.9819988
 114.5110012  60.3624997 125.4209988 113.9917292  59.9725343 126.0000720
 128.8280012  74.8624997 128.0569988 129.4800012  74.5154997 127.4489988
 129.3380012  75.3514997 128.7029988 128.9862637  74.8810597 128.0610236
 114.0210012  58.6164997 134.4549988 113.3560012  58.3704997 135.0989988
 113.5780012  59.2384997 133.8779988 113.8701318  58.6669410 134.4650898
 116.2130012  71.7914997 138.5999988 115.3920012  71.9664997 138.1389988
 115.9600012  71.7184997 139.5199988 116.0665585  71.8055544 138.6613561
 119.1670012  72.7664997 134.8579988 118.7420012  73.5754997 134.5759988
 120.0710012  72.8514997 134.5559988 119.2309975  72.8889300 134.7784816
 123.4780012  74.1654997 137.8179988 123.6630012  73.8314997 138.6959988
 124.3240012  74.4744997 137.4959988 123.6177539  74.1616047 137.8945605
 125.8230012  75.4514997 137.0619988 126.5000012  74.8184997 136.8219988
 126.1450012  75.8524997 137.8689988 125.9591637  75.4191154 137.1382793
 130.7400012  58.0404997 136.1409988 129.9280012  58.3654997 135.7539988
 130.9730012  57.2804997 135.6079988 130.6602203  57.9822758 136.0158880
 116.5690012  76.0224997 134.9059988 115.8480012  76.4624997 134.4549988
 116.2030012  75.7714997 135.7539988 116.4209651  76.0487242 134.9589640
 119.0360012  75.6224997 133.9359988 118.1710012  75.6944997 134.3399988
 118.9810012  76.1694997 133.1519988 118.9102085  75.7062685 133.8853362
 123.7460012  75.5104997 133.1109988 123.2900012  76.0394997 132.4569988
 123.9090012  76.1134997 133.8359988 123.7056068  75.6644607 133.1194838
 126.0740012  74.3884997 134.0559988 125.1690012  74.5534997 133.7899988
 126.5030012  75.2414997 133.9909988 126.0081324  74.5264339 134.0107976
 128.6780012  75.9584997 134.3509988 128.4960012  76.8744997 134.1409988
 128.8550012  75.5484997 133.5049988 128.6770210  76.0284822 134.2077885
 115.9830012  74.6454997 131.8159988 115.9650012  74.2204997 132.6729988
 116.7880012  74.3274997 131.4069988 116.0893529  74.5443013 131.8780946
 118.1250012  73.3554997 130.4709988 117.9060012  72.4394997 130.6409988
 118.9490012  73.4954997 130.9369988 118.2064420  73.2490520 130.5572774
 120.6620012  73.8254997 131.3199988 120.8750012  72.9374997 131.0329988
 120.7260012  73.7914997 132.2739988 120.6998232  73.6993102 131.4097397
 124.1700012  59.4894997 130.4639988 123.4960012  58.8604997 130.7199988
 124.7340012  59.0054997 129.8609988 124.1539230  59.3378744 130.4175340
 129.3130012  57.5974997 130.5769988 129.9170012  58.1444997 130.0749988
 128.4430012  57.9164997 130.3359988 129.2781208  57.7155137 130.4756886
 131.0400012  58.7354997 128.9099988 131.6520012  58.2214997 128.3829988
 131.4220012  59.6134997 128.9329988 131.1753371  58.7837866 128.8410041
 116.4970012  58.1234997 128.2859988 115.7200012  57.8894997 127.7789988
 117.0270012  57.3264997 128.2949988 116.4622330  57.9836988 128.2177742
 115.3330012  57.9214997 124.0899988 115.7720012  58.5324997 123.4979988
 114.7000012  58.4594997 124.5639988 115.3074514  58.0779257 124.0730930
 121.0760012  58.0504997 128.0999988 121.9510012  58.4384997 128.0699988
 120.9400012  57.8354997 129.0219988 121.1773695  58.0745184 128.2206440
 126.6330012  58.0804997 129.7489988 126.7090012  58.1754997 128.7989988
 126.3580012  57.1724997 129.8779988 126.6062321  57.9707867 129.6365079
 127.9860012  58.1064997 125.4409988 127.2840012  58.7214997 125.2309988
 127.5420012  57.2684997 125.5719988 127.8296450  58.0775639 125.4299000
 115.2340012  73.8694997 124.9869988 114.5490012  73.8314997 124.3199988
 115.2380012  74.7824997 125.2759988 115.1406998  73.9876733 124.9346771
 117.1940012  59.8374997 122.5319988 117.6860012  59.2074997 122.0049988
 117.8180012  60.1334997 123.1949988 117.3455688  59.7913804 122.5495482
 122.2200012  60.1304997 124.9889988 122.3980012  59.4844997 125.6719988
 122.1670012  60.9644997 125.4559988 122.2371999  60.1548009 125.1455917
 124.0990012  75.0794997 123.3849988 124.9650012  75.4454997 123.2069988
 123.8520012  74.6394997 122.5709988 124.1842392  75.0701756 123.2506289
 130.8080012  74.6424997 126.0639988 130.6130012  73.8944997 125.4989988
 130.7690012  75.4004997 125.4809988 130.7760380  74.6426099 125.9078384
 116.4550012  58.6374997 137.8039988 116.0890012  57.8724997 138.2459988
 117.3680012  58.6664997 138.0899988 116.5282736  58.5365640 137.9032502
 118.4280012  57.9884997 139.3399988 119.3260012  57.7144997 139.1549988
 118.0410012  57.2454997 139.8039988 118.4986612  57.8505914 139.3773643
 117.0520012  74.7894997 122.0129988 116.7850012  75.0764997 122.8859988
 117.8240012  74.2434997 122.1649988 117.1197488  74.7550294 122.1531050
 126.8490012  57.3204997 139.5219988 126.9260012  56.8944997 140.3759988
 127.7430012  57.3344997 139.1789988 126.9803428  57.2640879 139.5925310
 130.0250012  73.3934997 138.2139988 129.2430012  73.2074997 137.6939988
 129.9530012  74.3224997 138.4319988 129.9082274  73.4936643 138.1723018
 144.4310012  67.2794997 128.2449988 144.5200012  68.2234997 128.1129988
 143.7930012  67.0044997 127.5869988 144.3569081  67.3714830 128.1379614
 143.3640012  66.5344997 131.6639988 143.3260012  65.8884997 132.3689988
 143.0420012  66.0684997 130.8929988 143.3152333  66.3829408 131.6562978
 135.7330012  66.1494997 133.2569988 135.7740012  65.5234997 133.9799988
 136.4360012  66.7734997 133.4389988 135.8336363  66.1481196 133.3806044
 136.6560012  70.5994997 131.7919988 136.2870012  69.7974997 131.4219988
 137.5970012  70.4304997 131.8379988 136.7327289  70.4670153 131.7476316
 133.2660012  64.2594997 127.1849988 132.8190012  65.1054997 127.1659988
 132.7050012  63.6794997 126.6689988 133.1289900  64.2969916 127.1126801
 133.9770012  66.4214997 129.3099988 134.1900012  65.6514997 129.8379988
 134.7150012  66.5104997 128.7069988 134.1059044  66.3281968 129.3007123
 144.1820012  74.5784997 130.1769988 144.8020012  73.9014997 129.9039988
 143.9740012  74.3604997 131.0859988 144.2386726  74.4564800 130.2624812
 141.7540012  68.9674997 132.0699988 142.0580012  68.2814997 131.4749988
 142.4750012  69.0854997 132.6879988 141.8930671  68.8896305 132.0721816
 144.8950012  63.3614997 132.3969988 145.0370012  62.4154997 132.4179988
 144.7880012  63.5684997 131.4689988 144.8999919  63.2598246 132.2743408
 138.0490012  61.4624997 129.6699988 138.0930012  62.3224997 129.2509988
 137.5920012  60.9104997 129.0359988 137.9932240  61.5054422 129.5269864
 134.6700012  63.8594997 130.4319988 135.3230012  63.3094997 130.8639988
 134.6940012  63.5854997 129.5149988 134.7626683  63.7471466 130.3672123
 139.8260012  65.4094997 129.6469988 140.4420012  64.8834997 130.1569988
 139.2400012  64.7694997 129.2439988 139.8310810  65.2509208 129.6623173
 136.8600012  60.3804997 133.7439988 136.6410012  60.9104997 132.9779988
 136.1920012  60.6074997 134.3909988 136.7397600  60.4836906 133.7266379
 144.2290012  69.8804997 127.2879988 143.9330012  69.5584997 126.4369988
 143.9040012  70.7804997 127.3289988 144.1446371  69.9580215 127.1771801
 139.4290012  68.0564997 134.0309988 138.6890012  68.6544997 134.1349988
 140.1430012  68.6104997 133.7159988 139.4242237  68.2132831 134.0026465
 136.4530012  62.2724997 131.6959988 137.0670012  62.9054997 132.0689988
 136.9650012  61.8004997 131.0399988 136.6061981  62.2952267 131.6582908
 137.8360012  70.0204997 134.8179988 137.8310012  70.9004997 134.4399988
 136.9830012  69.9374997 135.2429988 137.7199464  70.1296117 134.8237907
 133.9570012  69.6914997 125.5999988 133.6850012  69.9204997 124.7119988
 134.0030012  70.5294997 126.0609988 133.9259482  69.8361318 125.5406273
 140.8860012  57.6864997 131.1959988 140.7690012  56.7374997 131.1419988
 140.0310012  58.0184997 131.4699988 140.7544212  57.6015571 131.2256497
 143.1530012  66.5234997 125.6969988 142.4410012  67.0584997 125.3449988
 143.8440012  66.5794997 125.0369988 143.1490132  66.6042543 125.5596289
 143.2060012  64.9814997 122.7359988 143.9070012  65.0034997 123.3869988
 143.5090012  64.3534997 122.0789988 143.3428133  64.8997070 122.7363369
 138.2040012  67.3634997 128.5309988 137.8730012  66.9934997 127.7129988
 138.7920012  66.6934997 128.8779988 138.2381873  67.2221156 128.4658102
 139.5700012  70.7914997 131.2119988 139.4760012  70.2134997 130.4559988
 140.3000012  70.4204997 131.7089988 139.6557386  70.6621663 131.1755342
 138.5700012  66.1324997 132.1649988 139.1360012  66.2534997 131.4019988
 138.8890012  66.7694997 132.8029988 138.6905474  66.2352219 132.1469862
 144.8790012  71.6354997 132.8989988 144.6390012  72.2974997 133.5469988
 144.6810012  70.8014997 133.3239988 144.8193808  71.6133134 133.0451524
 139.4500012  70.5314997 136.8819988 139.1390012  71.3134997 137.3369988
 138.8000012  70.3784997 136.1959988 139.3195558  70.6179105 136.8515871
 136.3700012  66.7294997 136.1099988 136.4410012  67.3804997 136.8089988
 135.4800012  66.8324997 135.7749988 136.2593005  66.8325427 136.1603495
 143.1560012  72.6324997 127.7689988 143.6300012  72.9274997 128.5459988
 142.5930012  73.3704997 127.5359988 143.1448184  72.7727247 127.8439628
 137.6900012  72.6034997 137.6449988 137.6970012  72.4674997 136.6979988
 136.7740012  72.4854997 137.8969988 137.5671714  72.5689430 137.5494666
 137.1940012  66.4334997 126.1199988 136.9020012  67.2014997 125.6299988
 136.5200012  65.7734997 125.9579988 137.0628111  66.4495587 126.0308978
 133.2870012  68.7964997 134.9349988 132.7860012  68.7684997 134.1199988
 133.2920012  67.8904997 135.2449988 133.2190944  68.6702396 134.8653226
 133.0370012  71.5764997 131.8189988 133.9830012  71.4324997 131.7999988
 132.9250012  72.3604997 132.3559988 133.1512727  71.6628046 131.8890072
 142.2140012  71.8164997 136.3779988 142.3010012  72.6424997 136.8529988
 141.3500012  71.4864997 136.6269988 142.1091964  71.8849878 136.4766549
 142.6280012  75.5884997 126.1839988 142.5530012  75.4674997 125.2369988
 142.6610012  76.5384997 126.3019988 142.6222068  75.7002646 126.0704967
 136.2810012  74.3774997 127.9649988 136.4340012  74.0294997 128.8429988
 135.4310012  74.0214997 127.7099988 136.1869166  74.2816216 128.0508079
 135.5360012  70.1194997 135.9789988 135.7520012  69.7584997 136.8379988
 134.6810012  69.7454997 135.7689988 135.4499292  70.0194111 136.0683386
 138.1550012  58.5894997 131.9739988 137.2930012  58.5024997 131.5659988
 138.1320012  59.4454997 132.4019988 138.0340409  58.6932883 131.9760589
 142.8180012  58.3114997 135.3489988 143.2380012  57.8964997 136.1019988
 141.8850012  58.1334997 135.4659988 142.7493644  58.2305900 135.4679539
 142.4790012  60.8044997 122.6339988 142.2260012  60.8234997 123.5569988
 142.2230012  59.9324997 122.3319988 142.4097481  60.6892558 122.7196175
 138.2460012  63.5554997 133.0689988 137.6040012  63.5144997 133.7779988
 138.2830012  64.4814997 132.8309988 138.1630664  63.6751430 133.1339219
 138.2430012  63.7764997 127.9809988 137.3500012  63.4354997 127.9219988
 138.6930012  63.3994997 127.2249988 138.1818130  63.6789631 127.8707702
 143.7780012  64.1924997 126.7979988 143.3690012  65.0074997 126.5069988
 144.4990012  64.0524997 126.1839988 143.8194537  64.2852018 126.6751342
 142.8800012  64.3674997 138.2859988 142.3180012  63.6634997 138.6069988
 143.7070012  64.2474997 138.7539988 142.9147095  64.2547883 138.3932330
 144.7830012  63.6384997 129.6119988 144.5880012  64.2434997 128.8969988
 144.9640012  62.8044997 129.1779988 144.7807614  63.6086300 129.4554405
 135.9960012  63.8754997 134.9359988 135.9580012  64.2754997 135.8049988
 135.5050012  63.0584997 135.0269988 135.9244684  63.8198069 135.0671059
 139.3620012  61.2494997 121.7349988 138.9310012  60.8044997 122.4649988
 138.6440012  61.6214997 121.2229988 139.2059438  61.2388940 121.7656799
 132.6040012  60.9914997 128.7869988 133.2350012  60.9624997 129.5059988
 133.0530012  60.5664997 128.0559988 132.7510918  60.9300836 128.7866441
 133.8780012  61.7374997 124.2109988 134.3520012  62.3284997 123.6259988
 133.1610012  62.2684997 124.5579988 133.8459341  61.8900867 124.1778836
 144.0470012  65.2764997 134.2829988 144.3700012  64.6454997 133.6399988
 143.6070012  64.7414997 134.9439988 144.0317484  65.1178387 134.2843198
 140.8240012  61.2034997 129.0669988 139.9130012  61.2604997 129.3559988
 141.3300012  61.1434997 129.8779988 140.7676899  61.2031941 129.2161184
 135.6530012  62.8324997 127.8939988 134.7630012  62.9324997 127.5539988
 135.9490012  61.9904997 127.5479988 135.5712823  62.7323545 127.8007213
 139.3060012  62.8324997 125.5509988 140.2370012  62.9614997 125.7289988
 139.0910012  63.5024997 124.9009988 139.4044247  62.9406565 125.4875747
 137.9800012  64.0274997 123.1169988 137.4370012  63.6474997 122.4259988
 138.8130012  64.2214997 122.6889988 138.0183631  64.0017125 122.9644501
 136.1150012  68.5844997 138.2159988 136.8470012  68.8384997 138.7779988
 135.3350012  68.7884997 138.7319988 136.1097073  68.6468160 138.3626151
 142.1440012  63.9914997 130.9539988 142.7090012  63.4444997 130.4069988
 141.9970012  63.4694997 131.7429988 142.2013380  63.8462259 130.9858695
 137.1460012  60.1274997 127.3729988 136.8290012  59.2254997 127.3369988
 137.9280012  60.1294997 126.8199988 137.2082408  60.0042474 127.2933569
 140.7710012  62.3794997 133.3679988 139.9350012  62.8334997 133.4789988
 141.2950012  62.6554997 134.1199988 140.7275416  62.4788660 133.4848119
 141.3150012  68.5924997 125.0529988 140.5700012  68.0854997 124.7309988
 141.1810012  68.6414997 125.9999988 141.1948776  68.5296940 125.1368647
 142.8340012  68.7764997 136.2899988 142.4890012  68.3954997 137.0969988
 142.6340012  69.7104997 136.3609988 142.7597527  68.8505135 136.4100689
 136.4400012  67.8874997 130.8229988 137.1850012  67.8854997 130.2219988
 136.5180012  67.0644997 131.3039988 136.5524995  67.7758887 130.8058282
 143.4410012  70.0514997 124.0789988 143.1450012  70.8774997 124.4599988
 142.7380012  69.4314997 124.2749988 143.3054914  70.0808199 124.1576443
 133.4480012  66.3484997 136.1379988 133.6710012  65.9304997 136.9699988
 132.8460012  65.7354997 135.7149988 133.3971759  66.2084668 136.1947022
 140.4640012  65.8654997 138.3509988 140.1680012  65.6994997 137.4559988
 141.3960012  65.6454997 138.3399988 140.5494166  65.8130640 138.2270536
 138.8150012  71.4054997 128.2269988 139.3420012  72.1784997 128.0269988
 137.9350012  71.6304997 127.9249988 138.7682031  71.5417545 128.1587912
 134.5700012  66.2674997 122.8139988 135.1860012  66.8944997 123.1939988
 133.7080012  66.5834997 123.0859988 134.5377698  66.3959430 122.9027183
 140.2420012  69.0684997 127.8029988 140.0010012  69.9934997 127.8449988
 139.5010012  68.6094997 128.1999988 140.1089225  69.1330933 127.8623742
 140.7570012  73.2174997 134.1189988 141.1190012  74.0724997 133.8849988
 141.2880012  72.9254997 134.8589988 140.8784473  73.2951060 134.1870855
 138.9250012  74.0904997 127.3489988 137.9750012  74.1954997 127.3999988
 139.2770012  74.9104997 127.6929988 138.8424195  74.2158800 127.4025502
 144.3010012  69.3164997 133.8189988 143.8750012  69.0894997 134.6459988
 144.8810012  68.5784997 133.6369988 144.3211868  69.1855299 133.9075830
 135.0820012  61.1014997 135.6959988 134.1890012  61.4404997 135.6279988
 134.9830012  60.2464997 136.1139988 134.9464164  61.0322588 135.7432235
 134.7330012  72.9064997 134.1309988 134.9500012  71.9744997 134.0999988
 134.9790012  73.1804997 135.0139988 134.7959549  72.8160636 134.2461763
 140.5950012  71.3574997 121.3399988 140.8340012  70.6094997 120.7929988
 140.3260012  70.9694997 122.1729988 140.5913675  71.2026638 121.3776865
 139.5320012  70.9274997 123.7959988 139.6780012  70.4074997 124.5859988
 139.5290012  71.8344997 124.1029988 139.5515792  70.9788842 123.9456117
 135.9850012  68.1804997 124.3069988 135.2990012  68.5324997 124.8739988
 136.5070012  68.9434997 124.0599988 135.9616852  68.3318578 124.3512118
 143.8160012  60.8424997 134.5859988 144.5150012  60.9164997 135.2359988
 143.4350012  59.9784997 134.7399988 143.8601767  60.7357624 134.6958322
 144.6010012  60.4944997 125.6829988 144.8210012  60.9664997 124.8799988
 145.1590012  60.8894997 126.3529988 144.7064968  60.6124285 125.6637331
 142.2690012  72.6254997 124.5459988 141.4530012  73.1224997 124.5979988
 142.7990012  73.1004997 123.9059988 142.2289161  72.7577722 124.4665956
 141.8010012  62.2224997 126.5179988 142.6130012  62.7274997 126.5639988
 141.5560012  62.0774997 127.4319988 141.8790520  62.2720375 126.6478517
 142.3360012  63.2084997 135.7019988 142.4550012  63.7824997 136.4599988
 142.9920012  62.5204997 135.8169988 142.4409025  63.1939858 135.8211321
 142.6840012  59.3034997 127.4559988 142.3380012  59.9214997 128.0999988
 143.3430012  59.8044997 126.9739988 142.7256968  59.4556278 127.4789383
 139.6080012  73.6694997 124.5269988 139.7680012  74.4684997 124.0269988
 139.4100012  73.9754997 125.4119988 139.6031637  73.8204020 124.5781144
 138.3420012  60.3664997 124.1429988 138.2590012  61.2554997 124.4899988
 139.2320012  60.1014997 124.3749988 138.4509469  60.4521430 124.2217626
 136.6010012  70.7944997 123.2039988 137.1930012  71.4934997 123.4799988
 137.0600012  70.3614997 122.4839988 136.7441142  70.8317049 123.1444830
 134.9170012  63.4584997 122.3199988 134.8720012  64.3974997 122.4979988
 134.0290012  63.2224997 122.0499988 134.7908574  63.5551892 122.3078912
 135.7250012  58.2404997 130.9929988 135.4960012  58.2994997 130.0649988
 135.2820012  57.4484997 131.2989988 135.6338530  58.1415753 130.9074786
 134.6550012  72.1804997 127.1529988 133.8230012  72.6534997 127.1799988
 135.2010012  72.6904997 126.5549988 134.6150352  72.3141332 127.0758463
 133.9430012  74.7934997 138.4829988 134.4840012  74.5764997 139.2429988
 133.4620012  73.9874997 138.2929988 133.9519951  74.6549270 138.5612576
 138.5410012  73.7124997 140.1029988 139.3080012  73.2534997 140.4439988
 138.5190012  73.4864997 139.1739988 138.6431275  73.6190186 140.0240101
 142.6330012  73.2204997 121.4789988 141.9890012  72.5894997 121.7999988
 143.3950012  72.6894997 121.2469988 142.6478077  73.0622920 121.4916011
 133.8500012  68.6034997 139.4369988 133.9940012  67.7014997 139.1509988
 133.0780012  68.8894997 138.9499988 133.7652753  68.5186816 139.3319505
 138.1920012  68.9474997 121.5699988 138.2560012  68.1534997 122.1009988
 138.8450012  68.8284997 120.8799988 138.2890241  68.8227148 121.5494317
 140.5060012  68.5734997 138.8699988 140.1770012  68.8444997 138.0129988
 140.6580012  67.6324997 138.7829988 140.4814809  68.4833862 138.7408244
 143.5440012  69.9944997 121.3059988 143.2750012  70.1744997 122.2069988
 143.3380012  69.0684997 121.1739988 143.4793427  69.8940261 121.4115073
 134.6830012  65.8034997 138.8569988 135.0910012  64.9464997 138.7359988
 134.4230012  65.8184997 139.7779988 134.7037568  65.6880807 138.9649588
 139.3410012  66.9194997 123.8759988 138.8810012  66.4354997 124.5619988
 139.5960012  66.2514997 123.2399988 139.3124902  66.7628731 123.8839334
 138.6300012  64.8124997 136.2319988 138.0120012  65.4874997 136.5119988
 138.9740012  65.1334997 135.3979988 138.5919132  64.9482411 136.1576262
 140.4120012  65.1624997 122.1379988 140.2320012  65.0084997 121.2109988
 141.3620012  65.2704997 122.1829988 140.5157776  65.1560175 122.0171843
 143.6500012  67.2844997 139.5089988 144.6030012  67.3674997 139.4819988
 143.4890012  66.5724997 140.1289988 143.7586426  67.1996746 139.5890579
 138.9690012  62.1674997 137.3139988 139.1190012  61.4384997 136.7119988
 138.9720012  62.9444997 136.7549988 138.9899302  62.1727851 137.1560692
 139.3820012  60.5374997 134.8069988 139.9180012  60.9884997 134.1549988
 138.5300012  60.4294997 134.3839988 139.3402178  60.5846390 134.6605756
 140.9640012  65.9764997 135.0459988 141.7140012  65.8204997 134.4729988
 140.6250012  66.8284997 134.7709988 141.0208921  66.0702968 134.9303561
 137.4480012  63.3654997 139.2259988 136.6810012  62.8334997 139.0149988
 138.1270012  63.0554997 138.6259988 137.4347877  63.2508300 139.1160716
 140.1880012  57.9934997 135.2379988 140.0890012  58.9404997 135.1329988
 139.4450012  57.6214997 134.7619988 140.0741184  58.0725863 135.1593621
 141.4520012  62.3154997 138.8019988 141.2160012  62.0954997 139.7029988
 140.6680012  62.1084997 138.2919988 141.3138504  62.2574586 138.8563431
 144.1670012  61.4424997 137.8769988 143.2200012  61.4744997 138.0099988
 144.4800012  60.8174997 138.5309988 144.0796707  61.3623998 137.9836060
 135.6280012  61.2864997 138.9299988 135.8400012  60.5794997 138.3199988
 135.5170012  60.8484997 139.7739988 135.6419721  61.1307084 138.9606843
 140.4090012  57.2874997 137.9089988 141.1210012  56.6474997 137.8949988
 140.3080012  57.5544997 136.9959988 140.4928066  57.2360079 137.7835677
 140.7630012  58.9704997 139.9629988 140.6310012  58.4944997 139.1429988
 140.1640012  59.7144997 139.9079988 140.6639071  59.0059618 139.8432886
 140.3090012  75.8534997 123.1389988 141.2420012  76.0114997 123.2829988
 140.0450012  76.5284997 122.5149988 140.4009888  75.9664510 123.0742842
 133.8780012  70.4894997 122.6219988 134.7920012  70.5684997 122.8959988
 133.8850012  69.8024997 121.9559988 134.0041131  70.4073961 122.5694393
 132.5270012  75.8824997 127.6999988 131.8800012  75.4204997 127.1669988
 132.8810012  75.2104997 128.2819988 132.4863849  75.7284723 127.7057959
 133.3970012  73.9634997 129.5039988 133.0620012  73.0834997 129.6759988
 133.6190012  74.3084997 130.3689988 133.3811783  73.8897500 129.6444208
 133.4770012  67.0384997 131.9559988 133.6610012  66.9564997 131.0199988
 134.3260012  66.9144997 132.3789988 133.6170151  67.0105073 131.8851451
 133.0740012  62.3094997 138.0969988 133.9940012  62.1874997 138.3329988
 132.6250012  61.5594997 138.4859988 133.1391580  62.1913727 138.1819006
 134.2950012  60.6214997 130.9879988 134.7410012  59.8294997 131.2899988
 134.7620012  61.3374997 131.4179988 134.4190831  60.6100685 131.0874006
 132.5990012  63.6204997 132.0569988 133.0910012  63.3994997 131.2659988
 132.9620012  64.4614997 132.3379988 132.7153126  63.7038357 131.9867531
 132.9130012  59.8784997 126.1109988 131.9880012  60.0874997 125.9819988
 133.3670012  60.3624997 125.4209988 132.8477292  59.9725343 126.0000720
 132.8770012  58.6164997 134.4549988 132.2120012  58.3704997 135.0989988
 132.4340012  59.2384997 133.8779988 132.7261318  58.6669410 134.4650898
 135.0690012  71.7914997 138.5999988 134.2480012  71.9664997 138.1389988
 134.8160012  71.7184997 139.5199988 134.9225585  71.8055544 138.6613561
 138.0230012  72.7664997 134.8579988 137.5980012  73.5754997 134.5759988
 138.9270012  72.8514997 134.5559988 138.0869975  72.8889300 134.7784816
 142.3340012  74.1654997 137.8179988 142.5190012  73.8314997 138.6959988
 143.1800012  74.4744997 137.4959988 142.4737539  74.1616047 137.8945605
 144.6790012  75.4514997 137.0619988 145.3560012  74.8184997 136.8219988
 145.0010012  75.8524997 137.8689988 144.8151637  75.4191154 137.1382793
 135.4250012  76.0224997 134.9059988 134.7040012  76.4624997 134.4549988
 135.0590012  75.7714997 135.7539988 135.2769651  76.0487242 134.9589640
 137.8920012  75.6224997 133.9359988 137.0270012  75.6944997 134.3399988
 137.8370012  76.1694997 133.1519988 137.7662085  75.7062685 133.8853362
 142.6020012  75.5104997 133.1109988 142.1460012  76.0394997 132.4569988
 142.7650012  76.1134997 133.8359988 142.5616068  75.6644607 133.1194838
 134.8390012  74.6454997 131.8159988 134.8210012  74.2204997 132.6729988
 135.6440012  74.3274997 131.4069988 134.9453529  74.5443013 131.8780946
 136.9810012  73.3554997 130.4709988 136.7620012  72.4394997 130.6409988
 137.8050012  73.4954997 130.9369988 137.0624420  73.2490520 130.5572774
 139.5180012  73.8254997 131.3199988 139.7310012  72.9374997 131.0329988
 139.5820012  73.7914997 132.2739988 139.5558232  73.6993102 131.4097397
 143.0260012  59.4894997 130.4639988 142.3520012  58.8604997 130.7199988
 143.5900012  59.0054997 129.8609988 143.0099230  59.3378744 130.4175340
 135.3530012  58.1234997 128.2859988 134.5760012  57.8894997 127.7789988
 135.8830012  57.3264997 128.2949988 135.3182330  57.9836988 128.2177742
 134.1890012  57.9214997 124.0899988 134.6280012  58.5324997 123.4979988
 133.5560012  58.4594997 124.5639988 134.1634514  58.0779257 124.0730930
 139.9320012  58.0504997 128.0999988 140.8070012  58.4384997 128.0699988
 139.7960012  57.8354997 129.0219988 140.0333695  58.0745184 128.2206440
 134.0900012  73.8694997 124.9869988 133.4050012  73.8314997 124.3199988
 134.0940012  74.7824997 125.2759988 133.9966998  73.9876733 124.9346771
 136.0500012  59.8374997 122.5319988 136.5420012  59.2074997 122.0049988
 136.6740012  60.1334997 123.1949988 136.2015688  59.7913804 122.5495482
 141.0760012  60.1304997 124.9889988 141.2540012  59.4844997 125.6719988
 141.0230012  60.9644997 125.4559988 141.0931999  60.1548009 125.1455917
 142.9550012  75.0794997 123.3849988 143.8210012  75.4454997 123.2069988
 142.7080012  74.6394997 122.5709988 143.0402392  75.0701756 123.2506289
 135.3110012  58.6374997 137.8039988 134.9450012  57.8724997 138.2459988
 136.2240012  58.6664997 138.0899988 135.3842736  58.5365640 137.9032502
 137.2840012  57.9884997 139.3399988 138.1820012  57.7144997 139.1549988
 136.8970012  57.2454997 139.8039988 137.3546612  57.8505914 139.3773643
 135.9080012  74.7894997 122.0129988 135.6410012  75.0764997 122.8859988
 136.6800012  74.2434997 122.1649988 135.9757488  74.7550294 122.1531050
  12.4390012  86.1354997 128.2449988  12.5280012  87.0794997 128.1129988
  11.8010012  85.8604997 127.5869988  12.3649081  86.2274830 128.1379614
  11.3720012  85.3904997 131.6639988  11.3340012  84.7444997 132.3689988
  11.0500012  84.9244997 130.8929988  11.3232333  85.2389408 131.6562978
   3.7410012  85.0054997 133.2569988   3.7820012  84.3794997 133.9799988
   4.4440012  85.6294997 133.4389988   3.8416363  85.0041196 133.3806044
  15.0780012  88.3294997 129.9649988  14.6380012  87.6094997 130.4159988
  15.0650012  89.0504997 130.5949988  15.0160226  88.3283731 130.1118494
   4.6640012  89.4554997 131.7919988   4.2950012  88.6534997 131.4219988
   5.6050012  89.2864997 131.8379988   4.7407289  89.3230153 131.7476316
   1.2740012  83.1154997 127.1849988   0.8270012  83.9614997 127.1659988
   0.7130012  82.5354997 126.6689988   1.1369900  83.1529916 127.1126801
   1.9850012  85.2774997 129.3099988   2.1980012  84.5074997 129.8379988
   2.7230012  85.3664997 128.7069988   2.1139044  85.1841968 129.3007123
  12.1900012  93.4344997 130.1769988  12.8100012  92.7574997 129.9039988
  11.9820012  93.2164997 131.0859988  12.2466726  93.3124800 130.2624812
   9.7620012  87.8234997 132.0699988  10.0660012  87.1374997 131.4749988
  10.4830012  87.9414997 132.6879988   9.9010671  87.7456305 132.0721816
  18.4250012  79.4244997 132.9309988  18.4740012  80.0344997 133.6659988
  18.8500012  79.8854997 132.2079988  18.4891746  79.5703796 132.9339175
  12.9030012  82.2174997 132.3969988  13.0450012  81.2714997 132.4179988
  12.7960012  82.4244997 131.4689988  12.9079919  82.1158246 132.2743408
   6.0570012  80.3184997 129.6699988   6.1010012  81.1784997 129.2509988
   5.6000012  79.7664997 129.0359988   6.0012240  80.3614422 129.5269864
  13.7800012  80.4494997 128.0709988  14.4260012  80.1204997 128.6949988
  14.2900012  80.9674997 127.4479988  13.9374299  80.4744450 128.0722731
   2.6780012  82.7154997 130.4319988   3.3310012  82.1654997 130.8639988
   2.7020012  82.4414997 129.5149988   2.7706683  82.6031466 130.3672123
   7.8340012  84.2654997 129.6469988   8.4500012  83.7394997 130.1569988
   7.2480012  83.6254997 129.2439988   7.8390810  84.1069208 129.6623173
  18.8160012  80.9024997 135.1659988  18.1280012  81.5604997 135.0709988
  18.8320012  80.7054997 136.1029988  18.7239540  80.9659819 135.2795990
   4.8680012  79.2364997 133.7439988   4.6490012  79.7664997 132.9779988
   4.2000012  79.4634997 134.3909988   4.7477600  79.3396906 133.7266379
  12.2370012  88.7364997 127.2879988  11.9410012  88.4144997 126.4369988
  11.9120012  89.6364997 127.3289988  12.1526371  88.8140215 127.1771801
   7.4370012  86.9124997 134.0309988   6.6970012  87.5104997 134.1349988
   8.1510012  87.4664997 133.7159988   7.4322237  87.0692831 134.0026465
  15.5440012  79.7404997 130.0509988  15.3280012  78.9744997 130.5839988
  16.1990012  80.2124997 130.5639988  15.6030632  79.6995889 130.1932861
   4.4610012  81.1284997 131.6959988   5.0750012  81.7614997 132.0689988
   4.9730012  80.6564997 131.0399988   4.6141981  81.1512267 131.6582908
   5.8440012  88.8764997 134.8179988   5.8390012  89.7564997 134.4399988
   4.9910012  88.7934997 135.2429988   5.7279464  88.9856117 134.8237907
   1.9650012  88.5474997 125.5999988   1.6930012  88.7764997 124.7119988
   2.0110012  89.3854997 126.0609988   1.9339482  88.6921318 125.5406273
  15.5900012  90.1694997 132.3129988  14.6490012  90.2274997 132.4749988
  15.8670012  91.0754997 132.1759988  15.4984679  90.2999443 132.3166815
  15.8910012  78.4554997 133.7309988  15.1550012  79.0664997 133.6929988
  16.5740012  78.8704997 133.2039988  15.8826541  78.5951374 133.6545832
   8.8940012  76.5424997 131.1959988   8.7770012  75.5934997 131.1419988
   8.0390012  76.8744997 131.4699988   8.7624212  76.4575571 131.2256497
  13.8420012  91.9504997 128.9379988  14.2680012  91.2434997 128.4529988
  14.1590012  92.7514997 128.5219988  13.9431683  91.9621017 128.8153680
  15.0020012  89.8514997 127.4469988  14.7440012  89.1614997 126.8359988
  15.0730012  89.4084997 128.2929988  14.9762856  89.6972124 127.4776885
  16.6880012  88.4174997 135.9239988  16.8280012  87.8264997 135.1849988
  16.8550012  89.2904997 135.5679988  16.7297411  88.4545428 135.7746894
  11.1610012  85.3794997 125.6969988  10.4490012  85.9144997 125.3449988
  11.8520012  85.4354997 125.0369988  11.1570132  85.4602543 125.5596289
  11.2140012  83.8374997 122.7359988  11.9150012  83.8594997 123.3869988
  11.5170012  83.2094997 122.0789988  11.3508133  83.7557070 122.7363369
  18.5300012  84.7574997 133.9899988  17.8770012  85.4524997 134.0799988
  18.9950012  84.9674997 133.1809988  18.5035274  84.8810643 133.8928462
  14.5660012  85.5894997 126.6489988  13.8340012  85.8174997 127.2219988
  15.0140012  84.8754997 127.1029988  14.5262725  85.5242145 126.7888816
  14.4640012  83.7634997 135.7159988  14.5440012  84.5264997 136.2879988
  13.8620012  84.0424997 135.0259988  14.3935756  83.9057134 135.7010589
   6.2120012  86.2194997 128.5309988   5.8810012  85.8494997 127.7129988
   6.8000012  85.5494997 128.8779988   6.2461873  86.0781156 128.4658102
   7.5780012  89.6474997 131.2119988   7.4840012  89.0694997 130.4559988
   8.3080012  89.2764997 131.7089988   7.6637387  89.5181663 131.1755342
   6.5780012  84.9884997 132.1649988   7.1440012  85.1094997 131.4019988
   6.8970012  85.6254997 132.8029988   6.6985474  85.0912219 132.1469862
  12.8870012  90.4914997 132.8989988  12.6470012  91.1534997 133.5469988
  12.6890012  89.6574997 133.3239988  12.8273808  90.4693134 133.0451524
   7.4580012  89.3874997 136.8819988   7.1470012  90.1694997 137.3369988
   6.8080012  89.2344997 136.1959988   7.3275558  89.4739105 136.8515871
  13.4370012  84.7514997 124.3339988  14.0170012  84.9014997 125.0809988
  13.8510012  85.2224997 123.6099988  13.5722997  84.8356578 124.3384058
   4.3780012  85.5854997 136.1099988   4.4490012  86.2364997 136.8089988
   3.4880012  85.6884997 135.7749988   4.2673005  85.6885427 136.1603495
  11.1640012  91.4884997 127.7689988  11.6380012  91.7834997 128.5459988
  10.6010012  92.2264997 127.5359988  11.1528184  91.6287247 127.8439628
   5.6980012  91.4594997 137.6449988   5.7050012  91.3234997 136.6979988
   4.7820012  91.3414997 137.8969988   5.5751714  91.4249430 137.5494666
  17.1360012  76.5014997 124.1469988  16.2360012  76.6404997 124.4419988
  17.3880012  77.3324997 123.7449988  17.0468702  76.6329074 124.1330205
   5.2020012  85.2894997 126.1199988   4.9100012  86.0574997 125.6299988
   4.5280012  84.6294997 125.9579988   5.0708111  85.3055587 126.0308978
  18.3250012  90.8674997 122.5229988  18.3990012  91.8064997 122.6939988
  19.2310012  90.5624997 122.4669988  18.4575100  90.9546722 122.5388119
   1.2950012  87.6524997 134.9349988   0.7940012  87.6244997 134.1199988
   1.3000012  86.7464997 135.2449988   1.2270944  87.5262396 134.8653226
   1.0450012  90.4324997 131.8189988   1.9910012  90.2884997 131.7999988
   0.9330012  91.2164997 132.3559988   1.1592727  90.5188046 131.8890072
  19.2430012  91.0984997 137.5019988  19.1940012  90.1434997 137.4649988
  18.4160012  91.3664997 137.9029988  19.1244940  91.0038998 137.5511375
  10.2220012  90.6724997 136.3779988  10.3090012  91.4984997 136.8529988
   9.3580012  90.3424997 136.6269988  10.1171964  90.7409878 136.4766549
  10.6360012  94.4444997 126.1839988  10.5610012  94.3234997 125.2369988
  10.6690012  95.3944997 126.3019988  10.6302068  94.5562646 126.0704967
   4.2890012  93.2334997 127.9649988   4.4420012  92.8854997 128.8429988
   3.4390012  92.8774997 127.7099988   4.1949166  93.1376216 128.0508079
  13.7380012  93.5984997 123.1859988  14.1130012  92.8544997 122.7149988
  13.7420012  93.3284997 124.1049988  13.7899125  93.4600986 123.2456483
  13.4070012  93.5244997 125.9349988  12.4710012  93.6244997 126.1139988
  13.6870012  92.8154997 126.5139988  13.3169553  93.4423406 126.0377087
  16.3950012  82.5914997 137.9819988  15.9880012  83.0724997 137.2609988
  16.4360012  81.6864997 137.6739988  16.3448437  82.5349374 137.8416683
   3.5440012  88.9754997 135.9789988   3.7600012  88.6144997 136.8379988
   2.6890012  88.6014997 135.7689988   3.4579292  88.8754111 136.0683386
   6.1630012  77.4454997 131.9739988   5.3010012  77.3584997 131.5659988
   6.1400012  78.3014997 132.4019988   6.0420409  77.5492883 131.9760589
  10.8260012  77.1674997 135.3489988  11.2460012  76.7524997 136.1019988
   9.8930012  76.9894997 135.4659988  10.7573644  77.0865900 135.4679539
  14.1520012  80.9234997 136.2019988  13.6380012  80.7974997 136.9999988
  13.9970012  81.8354997 135.9579988  14.0606852  81.0296132 136.2782158
  14.9150012  85.7844997 121.9639988  14.9570012  85.5614997 121.0339988
  15.7640012  86.1834997 122.1529988  15.0355280  85.8079438 121.8623554
  10.4870012  79.6604997 122.6339988  10.2340012  79.6794997 123.5569988
  10.2310012  78.7884997 122.3319988  10.4177481  79.5452558 122.7196175
   6.2540012  82.4114997 133.0689988   5.6120012  82.3704997 133.7779988
   6.2910012  83.3374997 132.8309988   6.1710664  82.5311430 133.1339219
   6.2510012  82.6324997 127.9809988   5.3580012  82.2914997 127.9219988
   6.7010012  82.2554997 127.2249988   6.1898130  82.5349631 127.8707702
  11.7860012  83.0484997 126.7979988  11.3770012  83.8634997 126.5069988
  12.5070012  82.9084997 126.1839988  11.8274537  83.1412018 126.6751342
  10.8880012  83.2234997 138.2859988  10.3260012  82.5194997 138.6069988
  11.7150012  83.1034997 138.7539988  10.9227095  83.1107883 138.3932330
  12.7910012  82.4944997 129.6119988  12.5960012  83.0994997 128.8969988
  12.9720012  81.6604997 129.1779988  12.7887614  82.4646300 129.4554405
   4.0040012  82.7314997 134.9359988   3.9660012  83.1314997 135.8049988
   3.5130012  81.9144997 135.0269988   3.9324684  82.6758069 135.0671059
   7.3700012  80.1054997 121.7349988   6.9390012  79.6604997 122.4649988
   6.6520012  80.4774997 121.2229988   7.2139438  80.0948940 121.7656799
   0.6120012  79.8474997 128.7869988   1.2430012  79.8184997 129.5059988
   1.0610012  79.4224997 128.0559988   0.7590918  79.7860836 128.7866441
   1.8860012  80.5934997 124.2109988   2.3600012  81.1844997 123.6259988
   1.1690012  81.1244997 124.5579988   1.8539341  80.7460867 124.1778836
  12.0550012  84.1324997 134.2829988  12.3780012  83.5014997 133.6399988
  11.6150012  83.5974997 134.9439988  12.0397484  83.9738387 134.2843198
   8.8320012  80.0594997 129.0669988   7.9210012  80.1164997 129.3559988
   9.3380012  79.9994997 129.8779988   8.7756899  80.0591941 129.2161184
   3.6610012  81.6884997 127.8939988   2.7710012  81.7884997 127.5539988
   3.9570012  80.8464997 127.5479988   3.5792823  81.5883546 127.8007213
   7.3140012  81.6884997 125.5509988   8.2450012  81.8174997 125.7289988
   7.0990012  82.3584997 124.9009988   7.4124247  81.7966565 125.4875747
  13.2370012  79.2944997 132.3319988  12.5610012  79.4254997 132.9959988
  12.7520012  79.1394997 131.5209988  13.0787146  79.2915157 132.3134469
   5.9880012  82.8834997 123.1169988   5.4450012  82.5034997 122.4259988
   6.8210012  83.0774997 122.6889988   6.0263631  82.8577125 122.9644501
  16.5250012  94.9664997 138.6079988  16.7250012  95.3904997 137.7739988
  17.1800012  95.3094997 139.2149988  16.6410072  95.0709857 138.5758592
   4.1230012  87.4404997 138.2159988   4.8550012  87.6944997 138.7779988
   3.3430012  87.6444997 138.7319988   4.1177073  87.5028160 138.3626151
  10.1520012  82.8474997 130.9539988  10.7170012  82.3004997 130.4069988
  10.0050012  82.3254997 131.7429988  10.2093380  82.7022259 130.9858695
   5.1540012  78.9834997 127.3729988   4.8370012  78.0814997 127.3369988
   5.9360012  78.9854997 126.8199988   5.2162408  78.8602474 127.2933569
   8.7790012  81.2354997 133.3679988   7.9430012  81.6894997 133.4789988
   9.3030012  81.5114997 134.1199988   8.7355416  81.3348660 133.4848119
   9.3230012  87.4484997 125.0529988   8.5780012  86.9414997 124.7309988
   9.1890012  87.4974997 125.9999988   9.2028776  87.3856940 125.1368647
  16.4730012  86.5814997 133.8399988  17.1150012  87.0384997 133.2959988
  15.6430012  86.6944997 133.3769988  16.4485963  86.6592704 133.7030177
  13.2210012  80.2624997 123.2519988  12.2820012  80.3744997 123.1009988
  13.5180012  81.1194997 123.5589988  13.1327583  80.3935981 123.2728337
  10.8420012  87.6324997 136.2899988  10.4970012  87.2514997 137.0969988
  10.6420012  88.5664997 136.3609988  10.7677527  87.7065135 136.4100689
  13.9390012  82.1294997 124.9129988  14.8310012  81.9924997 125.2319988
  13.9960012  82.9204997 124.3759988  14.0686504  82.2176052 124.8840818
   4.4480012  86.7434997 130.8229988   5.1930012  86.7414997 130.2219988
   4.5260012  85.9204997 131.3039988   4.5604995  86.6318887 130.8058282
  11.4490012  88.9074997 124.0789988  11.1530012  89.7334997 124.4599988
  10.7460012  88.2874997 124.2749988  11.3134914  88.9368199 124.1576443
   1.4560012  85.2044997 136.1379988   1.6790012  84.7864997 136.9699988
   0.8540012  84.5914997 135.7149988   1.4051759  85.0644668 136.1947022
   8.4720012  84.7214997 138.3509988   8.1760012  84.5554997 137.4559988
   9.4040012  84.5014997 138.3399988   8.5574166  84.6690640 138.2270536
  13.0930012  90.0944997 136.2409988  12.1920012  90.2774997 135.9729988
  13.1270012  90.3534997 137.1609988  12.9743139  90.1545849 136.3288099
  18.8240012  82.3394997 124.6079988  18.2700012  81.9434997 123.9359988
  18.9240012  83.2494997 124.3299988  18.7617059  82.4083586 124.4784401
  18.7870012  88.1394997 137.4449988  17.9360012  88.3774997 137.0779988
  19.3780012  88.1224997 136.6919988  18.7502487  88.1698258 137.2928893
  17.1190012  91.1254997 125.0729988  16.7460012  90.2994997 125.3819988
  17.3970012  90.9424997 124.1749988  17.1055222  90.9877430 124.9939473
  14.2800012  85.9334997 132.0939988  13.3510012  85.7014997 132.0669988
  14.7310012  85.1564997 131.7639988  14.2139216  85.7967238 132.0456917
   6.8230012  90.2614997 128.2269988   7.3500012  91.0344997 128.0269988
   5.9430012  90.4864997 127.9249988   6.7762031  90.3977545 128.1587912
   2.5780012  85.1234997 122.8139988   3.1940012  85.7504997 123.1939988
   1.7160012  85.4394997 123.0859988   2.5457698  85.2519430 122.9027183
   8.2500012  87.9244997 127.8029988   8.0090012  88.8494997 127.8449988
   7.5090012  87.4654997 128.1999988   8.1169225  87.9890933 127.8623742
   8.7650012  92.0734997 134.1189988   9.1270012  92.9284997 133.8849988
   9.2960012  91.7814997 134.8589988   8.8864473  92.1511060 134.1870855
   6.9330012  92.9464997 127.3489988   5.9830012  93.0514997 127.3999988
   7.2850012  93.7664997 127.6929988   6.8504195  93.0718800 127.4025502
  12.3090012  88.1724997 133.8189988  11.8830012  87.9454997 134.6459988
  12.8890012  87.4344997 133.6369988  12.3291868  88.0415299 133.9075830
  14.5120012  89.1014997 122.8929988  14.8650012  88.7214997 123.6969988
  13.5630012  89.0084997 122.9799988  14.4320918  89.0368956 123.0148532
  14.9670012  92.7244997 136.2889988  14.3660012  92.1694997 135.7929988
  15.2490012  93.3914997 135.6619988  14.9228804  92.7386625 136.1364849
  19.0150012  93.5814997 123.0939988  19.7590012  94.1674997 122.9539988
  18.3210012  94.1494997 123.4269988  19.0229899  93.7385798 123.1198778
   3.0900012  79.9574997 135.6959988   2.1970012  80.2964997 135.6279988
   2.9910012  79.1024997 136.1139988   2.9544164  79.8882588 135.7432235
  15.3780012  87.7744997 125.1199988  15.1000012  87.0464997 125.6759988
  16.3050012  87.8934997 125.3249988  15.4653124  87.6908802 125.2238845
   2.7410012  91.7624997 134.1309988   2.9580012  90.8304997 134.0999988
   2.9870012  92.0364997 135.0139988   2.8039549  91.6720636 134.2461763
   8.6030012  90.2134997 121.3399988   8.8420012  89.4654997 120.7929988
   8.3340012  89.8254997 122.1729988   8.5993675  90.0586638 121.3776865
   7.5400012  89.7834997 123.7959988   7.6860012  89.2634997 124.5859988
   7.5370012  90.6904997 124.1029988   7.5595792  89.8348842 123.9456117
   3.9930012  87.0364997 124.3069988   3.3070012  87.3884997 124.8739988
   4.5150012  87.7994997 124.0599988   3.9696852  87.1878578 124.3512118
  11.8240012  79.6984997 134.5859988  12.5230012  79.7724997 135.2359988
  11.4430012  78.8344997 134.7399988  11.8681767  79.5917624 134.6958322
  12.6090012  79.3504997 125.6829988  12.8290012  79.8224997 124.8799988
  13.1670012  79.7454997 126.3529988  12.7144968  79.4684285 125.6637331
  10.2770012  91.4814997 124.5459988   9.4610012  91.9784997 124.5979988
  10.8070012  91.9564997 123.9059988  10.2369161  91.6137722 124.4665956
   9.8090012  81.0784997 126.5179988  10.6210012  81.5834997 126.5639988
   9.5640012  80.9334997 127.4319988   9.8870520  81.1280375 126.6478517
  10.3440012  82.0644997 135.7019988  10.4630012  82.6384997 136.4599988
  11.0000012  81.3764997 135.8169988  10.4489025  82.0499858 135.8211321
  10.6920012  78.1594997 127.4559988  10.3460012  78.7774997 128.0999988
  11.3510012  78.6604997 126.9739988  10.7336968  78.3116278 127.4789383
   7.6160012  92.5254997 124.5269988   7.7760012  93.3244997 124.0269988
   7.4180012  92.8314997 125.4119988   7.6111637  92.6764020 124.5781144
   6.3500012  79.2224997 124.1429988   6.2670012  80.1114997 124.4899988
   7.2400012  78.9574997 124.3749988   6.4589469  79.3081430 124.2217626
  16.5490012  79.9714997 136.5369988  15.6320012  80.2344997 136.4499988
  16.8840012  79.9684997 135.6409988  16.4688613  80.0070761 136.4038837
  15.1510012  83.7224997 130.6329988  14.3530012  83.3074997 130.3049988
  15.5960012  83.0314997 131.1239988  15.1019885  83.5723543 130.6544889
   4.6090012  89.6504997 123.2039988   5.2010012  90.3494997 123.4799988
   5.0680012  89.2174997 122.4839988   4.7521142  89.6877049 123.1444830
   2.9250012  82.3144997 122.3199988   2.8800012  83.2534997 122.4979988
   2.0370012  82.0784997 122.0499988   2.7988574  82.4111892 122.3078912
  16.2370012  92.9784997 132.2559988  16.0820012  93.6564997 131.5979988
  17.1700012  93.0504997 132.4589988  16.3418657  93.0809546 132.1934360
   3.7330012  77.0964997 130.9929988   3.5040012  77.1554997 130.0649988
   3.2900012  76.3044997 131.2989988   3.6418530  76.9975753 130.9074786
   2.6630012  91.0364997 127.1529988   1.8310012  91.5094997 127.1799988
   3.2090012  91.5464997 126.5549988   2.6230352  91.1701332 127.0758463
   1.9510012  93.6494997 138.4829988   2.4920012  93.4324997 139.2429988
   1.4700012  92.8434997 138.2929988   1.9599951  93.5109270 138.5612576
   6.5490012  92.5684997 140.1029988   7.3160012  92.1094997 140.4439988
   6.5270012  92.3424997 139.1739988   6.6511275  92.4750186 140.0240101
  10.6410012  92.0764997 121.4789988   9.9970012  91.4454997 121.7999988
  11.4030012  91.5454997 121.2469988  10.6558077  91.9182920 121.4916011
  13.1260012  90.9484997 138.8329988  12.7750012  90.0924997 139.0759988
  13.8520012  91.0914997 139.4399988  13.1760769  90.8505636 138.9483619
  15.2450012  91.8934997 121.7119988  15.5280012  91.0994997 122.1649988
  15.9850012  92.1264997 121.1519988  15.3838006  91.8163376 121.6982715
   1.8580012  87.4594997 139.4369988   2.0020012  86.5574997 139.1509988
   1.0860012  87.7454997 138.9499988   1.7732753  87.3746816 139.3319505
   6.2000012  87.8034997 121.5699988   6.2640012  87.0094997 122.1009988
   6.8530012  87.6844997 120.8799988   6.2970241  87.6787148 121.5494317
   8.5140012  87.4294997 138.8699988   8.1850012  87.7004997 138.0129988
   8.6660012  86.4884997 138.7829988   8.4894809  87.3393862 138.7408244
  11.5520012  88.8504997 121.3059988  11.2830012  89.0304997 122.2069988
  11.3460012  87.9244997 121.1739988  11.4873427  88.7500261 121.4115073
  14.2480012  87.3454997 136.2529988  14.9940012  87.9334997 136.1339988
  13.4910012  87.9274997 136.3169988  14.2477820  87.5047143 136.2453590
   2.6910012  84.6594997 138.8569988   3.0990012  83.8024997 138.7359988
   2.4310012  84.6744997 139.7779988   2.7117568  84.5440807 138.9649588
   7.3490012  85.7754997 123.8759988   6.8890012  85.2914997 124.5619988
   7.6040012  85.1074997 123.2399988   7.3204902  85.6188731 123.8839334
   6.6380012  83.6684997 136.2319988   6.0200012  84.3434997 136.5119988
   6.9820012  83.9894997 135.3979988   6.5999132  83.8042411 136.1576262
   8.4200012  84.0184997 122.1379988   8.2400012  83.8644997 121.2109988
   9.3700012  84.1264997 122.1829988   8.5237776  84.0120175 122.0171843
  11.6580012  86.1404997 139.5089988  12.6110012  86.2234997 139.4819988
  11.4970012  85.4284997 140.1289988  11.7666426  86.0556746 139.5890579
  17.8100012  86.3734997 121.5839988  17.5360012  85.9484997 120.7709988
  17.8490012  87.3044997 121.3669988  17.7777699  86.4412484 121.4433610
   6.9770012  81.0234997 137.3139988   7.1270012  80.2944997 136.7119988
   6.9800012  81.8004997 136.7549988   6.9979302  81.0287851 137.1560692
   7.3900012  79.3934997 134.8069988   7.9260012  79.8444997 134.1549988
   6.5380012  79.2854997 134.3839988   7.3482178  79.4406390 134.6605756
   8.9720012  84.8324997 135.0459988   9.7220012  84.6764997 134.4729988
   8.6330012  85.6844997 134.7709988   9.0288921  84.9262968 134.9303561
  13.3870012  82.6474997 140.0749988  13.5800012  81.7164997 139.9629988
  14.2450012  83.0724997 140.0639988  13.5292934  82.5776531 140.0582031
  14.7040012  85.4364997 138.1519988  14.4230012  86.1454997 137.5739988
  15.6470012  85.3634997 138.0009988  14.7929291  85.5236711 138.0524967
   5.4560012  82.2214997 139.2259988   4.6890012  81.6894997 139.0149988
   6.1350012  81.9114997 138.6259988   5.4427877  82.1068300 139.1160716
   8.1960012  76.8494997 135.2379988   8.0970012  77.7964997 135.1329988
   7.4530012  76.4774997 134.7619988   8.0821184  76.9285863 135.1593621
   9.4600012  81.1714997 138.8019988   9.2240012  80.9514997 139.7029988
   8.6760012  80.9644997 138.2919988   9.3218504  81.1134586 138.8563431
  12.1750012  80.2984997 137.8769988  11.2280012  80.3304997 138.0099988
  12.4880012  79.6734997 138.5309988  12.0876707  80.2183998 137.9836060
  13.8090012  78.9324997 139.8829988  13.7130012  77.9804997 139.8769988
  13.4880012  79.2014997 140.7429988  13.7524070  78.8384035 139.9985441
   3.6360012  80.1424997 138.9299988   3.8480012  79.4354997 138.3199988
   3.5250012  79.7044997 139.7739988   3.6499721  79.9867084 138.9606843
   8.4170012  76.1434997 137.9089988   9.1290012  75.5034997 137.8949988
   8.3160012  76.4104997 136.9959988   8.5008066  76.0920079 137.7835677
   8.7710012  77.8264997 139.9629988   8.6390012  77.3504997 139.1429988
   8.1720012  78.5704997 139.9079988   8.6719071  77.8619618 139.8432886
   8.3170012  94.7094997 123.1389988   9.2500012  94.8674997 123.2829988
   8.0530012  95.3844997 122.5149988   8.4089888  94.8224510 123.0742842
   1.8860012  89.3454997 122.6219988   2.8000012  89.4244997 122.8959988
   1.8930012  88.6584997 121.9559988   2.0121131  89.2633961 122.5694393
   0.5350012  94.7384997 127.6999988  -0.1119988  94.2764997 127.1669988
   0.8890012  94.0664997 128.2819988   0.4943849  94.5844723 127.7057959
   1.4050012  92.8194997 129.5039988   1.0700012  91.9394997 129.6759988
   1.6270012  93.1644997 130.3689988   1.3891783  92.7457500 129.6444208
  18.9530012  93.6284997 132.4849988  18.9320012  93.8134997 133.4239988
  19.6440012  94.1974997 132.1439988  19.0434618  93.7306606 132.5673864
  18.5170012  93.1964997 135.4069988  18.0290012  92.4604997 135.0349988
  19.0660012  92.8024997 136.0849988  18.5244820  93.0425889 135.4477813
  16.9670012  88.9854997 140.0449988  16.1010012  88.8804997 140.4389988
  17.3440012  89.7444997 140.4909988  16.8993308  89.0736900 140.1592393
  18.2680012  87.2424997 125.5589988  19.1180012  87.6634997 125.6859988
  18.2740012  86.5024997 126.1659988  18.3851372  87.2000803 125.6584344
  18.6630012  85.2954997 127.3819988  17.9360012  84.8164997 127.7799988
  19.2440012  85.5014997 128.1149988  18.6420473  85.2578103 127.5354528
  18.4220012  88.0804997 132.3299988  19.2550012  87.7024997 132.0499988
  18.5340012  89.0234997 132.2109988  18.5512647  88.1562218 132.2755487
  16.9080012  90.9584997 134.6369988  16.2610012  91.2834997 135.2629988
  16.3910012  90.5184997 133.9629988  16.7494029  90.9435004 134.6315827
  18.9310012  85.1964997 123.7739988  18.4090012  85.5534997 123.0549988
  18.8980012  85.8714997 124.4519988  18.8551634  85.3365413 123.7673145
  17.2800012  82.4364997 122.3239988  17.3760012  83.1034997 121.6439988
  17.1400012  81.6204997 121.8429988  17.2742272  82.4175655 122.1658347
  16.4490012  83.8164997 127.9449988  16.2990012  82.8714997 127.9249988
  16.0960012  84.0974997 128.7889988  16.3807448  83.7251481 128.0563705
   1.4850012  85.8944997 131.9559988   1.6690012  85.8124997 131.0199988
   2.3340012  85.7704997 132.3789988   1.6250151  85.8665073 131.8851451
  17.3060012  85.7864997 137.5839988  17.8890012  85.0524997 137.7759988
  17.8700012  86.5584997 137.6309988  17.4619769  85.7904227 137.6166159
  18.8020012  83.6894997 138.2689988  17.9390012  83.3104997 138.1029988
  19.4070012  82.9504997 138.1939988  18.7656119  83.5378268 138.2361528
  16.5270012  79.8444997 121.4419988  17.1380012  79.4734997 122.0789988
  15.6910012  79.4234997 121.6379988  16.4975032  79.7367554 121.5557035
  16.1600012  81.3994997 126.4079988  16.4400012  80.4924997 126.5319988
  16.9190012  81.8334997 126.0189988  16.3009277  81.3340942 126.3723682
  16.7720012  81.9804997 131.8439988  17.7050012  82.1924997 131.8089988
  16.5370012  82.0824997 132.7659988  16.8679244  82.0233100 131.9638892
  16.8010012  82.7174997 134.6199988  15.9580012  82.9854997 134.9859988
  17.2430012  83.5394997 134.4089988  16.7454158  82.8653291 134.6415491
   1.0820012  81.1654997 138.0969988   2.0020012  81.0434997 138.3329988
   0.6330012  80.4154997 138.4859988   1.1471580  81.0473727 138.1819006
  19.0840012  76.6974997 139.9729988  19.4340012  76.0434997 139.3679988
  19.2310012  77.5344997 139.5329988  19.1517887  76.7211548 139.8306858
  16.7730012  78.6624997 126.4559988  16.9560012  78.2134997 127.2819988
  16.1740012  78.0774997 125.9929988  16.7170202  78.5219975 126.5063275
   2.3030012  79.4774997 130.9879988   2.7490012  78.6854997 131.2899988
   2.7700012  80.1934997 131.4179988   2.4270831  79.4660685 131.0874006
   0.6070012  82.4764997 132.0569988   1.0990012  82.2554997 131.2659988
   0.9700012  83.3174997 132.3379988   0.7233126  82.5598357 131.9867531
  18.6040012  78.8064997 138.3219988  17.6860012  79.0774997 138.2869988
  18.7270012  78.2714997 137.5379988  18.4949730  78.7712508 138.2111923
  18.6400012  78.7294997 122.9839988  19.0520012  78.0084997 122.5089988
  19.3220012  79.3994997 123.0429988  18.7885885  78.7212368 122.9268915
   0.9210012  78.7344997 126.1109988  -0.0039988  78.9434997 125.9819988
   1.3750012  79.2184997 125.4209988   0.8557292  78.8285343 126.0000720
  15.6920012  93.7184997 128.0569988  16.3440012  93.3714997 127.4489988
  16.2020012  94.2074997 128.7029988  15.8502637  93.7370597 128.0610236
   0.8850012  77.4724997 134.4549988   0.2200012  77.2264997 135.0989988
   0.4420012  78.0944997 133.8779988   0.7341318  77.5229410 134.4650898
   3.0770012  90.6474997 138.5999988   2.2560012  90.8224997 138.1389988
   2.8240012  90.5744997 139.5199988   2.9305585  90.6615544 138.6613561
   6.0310012  91.6224997 134.8579988   5.6060012  92.4314997 134.5759988
   6.9350012  91.7074997 134.5559988   6.0949975  91.7449300 134.7784816
  10.3420012  93.0214997 137.8179988  10.5270012  92.6874997 138.6959988
  11.1880012  93.3304997 137.4959988  10.4817539  93.0176047 137.8945605
  12.6870012  94.3074997 137.0619988  13.3640012  93.6744997 136.8219988
  13.0090012  94.7084997 137.8689988  12.8231637  94.2751154 137.1382793
  17.6040012  76.8964997 136.1409988  16.7920012  77.2214997 135.7539988
  17.8370012  76.1364997 135.6079988  17.5242203  76.8382758 136.0158880
   3.4330012  94.8784997 134.9059988   2.7120012  95.3184997 134.4549988
   3.0670012  94.6274997 135.7539988   3.2849651  94.9047242 134.9589640
   5.9000012  94.4784997 133.9359988   5.0350012  94.5504997 134.3399988
   5.8450012  95.0254997 133.1519988   5.7742085  94.5622685 133.8853362
  10.6100012  94.3664997 133.1109988  10.1540012  94.8954997 132.4569988
  10.7730012  94.9694997 133.8359988  10.5696068  94.5204607 133.1194838
  12.9380012  93.2444997 134.0559988  12.0330012  93.4094997 133.7899988
  13.3670012  94.0974997 133.9909988  12.8721324  93.3824339 134.0107976
  15.5420012  94.8144997 134.3509988  15.3600012  95.7304997 134.1409988
  15.7190012  94.4044997 133.5049988  15.5410210  94.8844822 134.2077885
   2.8470012  93.5014997 131.8159988   2.8290012  93.0764997 132.6729988
   3.6520012  93.1834997 131.4069988   2.9533529  93.4003013 131.8780946
   4.9890012  92.2114997 130.4709988   4.7700012  91.2954997 130.6409988
   5.8130012  92.3514997 130.9369988   5.0704420  92.1050520 130.5572774
   7.5260012  92.6814997 131.3199988   7.7390012  91.7934997 131.0329988
   7.5900012  92.6474997 132.2739988   7.5638232  92.5553102 131.4097397
  11.0340012  78.3454997 130.4639988  10.3600012  77.7164997 130.7199988
  11.5980012  77.8614997 129.8609988  11.0179230  78.1938744 130.4175340
  16.1770012  76.4534997 130.5769988  16.7810012  77.0004997 130.0749988
  15.3070012  76.7724997 130.3359988  16.1421208  76.5715137 130.4756886
  17.9040012  77.5914997 128.9099988  18.5160012  77.0774997 128.3829988
  18.2860012  78.4694997 128.9329988  18.0393371  77.6397866 128.8410041
   3.3610012  76.9794997 128.2859988   2.5840012  76.7454997 127.7789988
   3.8910012  76.1824997 128.2949988   3.3262330  76.8396988 128.2177742
   2.1970012  76.7774997 124.0899988   2.6360012  77.3884997 123.4979988
   1.5640012  77.3154997 124.5639988   2.1714514  76.9339257 124.0730930
   7.9400012  76.9064997 128.0999988   8.8150012  77.2944997 128.0699988
   7.8040012  76.6914997 129.0219988   8.0413695  76.9305184 128.2206440
  13.4970012  76.9364997 129.7489988  13.5730012  77.0314997 128.7989988
  13.2220012  76.0284997 129.8779988  13.4702321  76.8267867 129.6365079
  14.8500012  76.9624997 125.4409988  14.1480012  77.5774997 125.2309988
  14.4060012  76.1244997 125.5719988  14.6936450  76.9335639 125.4299000
   2.0980012  92.7254997 124.9869988   1.4130012  92.6874997 124.3199988
   2.1020012  93.6384997 125.2759988   2.0046998  92.8436733 124.9346771
   4.0580012  78.6934997 122.5319988   4.5500012  78.0634997 122.0049988
   4.6820012  78.9894997 123.1949988   4.2095688  78.6473804 122.5495482
   9.0840012  78.9864997 124.9889988   9.2620012  78.3404997 125.6719988
   9.0310012  79.8204997 125.4559988   9.1011999  79.0108009 125.1455917
  10.9630012  93.9354997 123.3849988  11.8290012  94.3014997 123.2069988
  10.7160012  93.4954997 122.5709988  11.0482392  93.9261756 123.2506289
  17.6720012  93.4984997 126.0639988  17.4770012  92.7504997 125.4989988
  17.6330012  94.2564997 125.4809988  17.6400380  93.4986099 125.9078384
   3.3190012  77.4934997 137.8039988   2.9530012  76.7284997 138.2459988
   4.2320012  77.5224997 138.0899988   3.3922736  77.3925640 137.9032502
   5.2920012  76.8444997 139.3399988   6.1900012  76.5704997 139.1549988
   4.9050012  76.1014997 139.8039988   5.3626612  76.7065914 139.3773643
   3.9160012  93.6454997 122.0129988   3.6490012  93.9324997 122.8859988
   4.6880012  93.0994997 122.1649988   3.9837488  93.6110294 122.1531050
  13.7130012  76.1764997 139.5219988  13.7900012  75.7504997 140.3759988
  14.6070012  76.1904997 139.1789988  13.8443428  76.1200879 139.5925310
  16.8890012  92.2494997 138.2139988  16.1070012  92.0634997 137.6939988
  16.8170012  93.1784997 138.4319988  16.7722274  92.3496643 138.1723018
  31.2950012  86.1354997 128.2449988  31.3840012  87.0794997 128.1129988
  30.6570012  85.8604997 127.5869988  31.2209081  86.2274830 128.1379614
  30.2280012  85.3904997 131.6639988  30.1900012  84.7444997 132.3689988
  29.9060012  84.9244997 130.8929988  30.1792333  85.2389408 131.6562978
  22.5970012  85.0054997 133.2569988  22.6380012  84.3794997 133.9799988
  23.3000012  85.6294997 133.4389988  22.6976363  85.0041196 133.3806044
  33.9340012  88.3294997 129.9649988  33.4940012  87.6094997 130.4159988
  33.9210012  89.0504997 130.5949988  33.8720226  88.3283731 130.1118494
  23.5200012  89.4554997 131.7919988  23.1510012  88.6534997 131.4219988
  24.4610012  89.2864997 131.8379988  23.5967289  89.3230153 131.7476316
  20.1300012  83.1154997 127.1849988  19.6830012  83.9614997 127.1659988
  19.5690012  82.5354997 126.6689988  19.9929900  83.1529916 127.1126801
  20.8410012  85.2774997 129.3099988  21.0540012  84.5074997 129.8379988
  21.5790012  85.3664997 128.7069988  20.9699044  85.1841968 129.3007123
  31.0460012  93.4344997 130.1769988  31.6660012  92.7574997 129.9039988
  30.8380012  93.2164997 131.0859988  31.1026726  93.3124800 130.2624812
  28.6180012  87.8234997 132.0699988  28.9220012  87.1374997 131.4749988
  29.3390012  87.9414997 132.6879988  28.7570671  87.7456304 132.0721816
  37.2810012  79.4244997 132.9309988  37.3300012  80.0344997 133.6659988
  37.7060012  79.8854997 132.2079988  37.3451746  79.5703796 132.9339175
  31.7590012  82.2174997 132.3969988  31.9010012  81.2714997 132.4179988
  31.6520012  82.4244997 131.4689988  31.7639919  82.1158246 132.2743408
  24.9130012  80.3184997 129.6699988  24.9570012  81.1784997 129.2509988
  24.4560012  79.7664997 129.0359988  24.8572240  80.3614422 129.5269864
  32.6360012  80.4494997 128.0709988  33.2820012  80.1204997 128.6949988
  33.1460012  80.9674997 127.4479988  32.7934299  80.4744450 128.0722731
  21.5340012  82.7154997 130.4319988  22.1870012  82.1654997 130.8639988
  21.5580012  82.4414997 129.5149988  21.6266683  82.6031466 130.3672123
  26.6900012  84.2654997 129.6469988  27.3060012  83.7394997 130.1569988
  26.1040012  83.6254997 129.2439988  26.6950810  84.1069208 129.6623173
  37.6720012  80.9024997 135.1659988  36.9840012  81.5604997 135.0709988
  37.6880012  80.7054997 136.1029988  37.5799540  80.9659819 135.2795990
  23.7240012  79.2364997 133.7439988  23.5050012  79.7664997 132.9779988
  23.0560012  79.4634997 134.3909988  23.6037600  79.3396906 133.7266379
  31.0930012  88.7364997 127.2879988  30.7970012  88.4144997 126.4369988
  30.7680012  89.6364997 127.3289988  31.0086371  88.8140215 127.1771801
  26.2930012  86.9124997 134.0309988  25.5530012  87.5104997 134.1349988
  27.0070012  87.4664997 133.7159988  26.2882237  87.0692831 134.0026465
  34.4000012  79.7404997 130.0509988  34.1840012  78.9744997 130.5839988
  35.0550012  80.2124997 130.5639988  34.4590632  79.6995889 130.1932861
  23.3170012  81.1284997 131.6959988  23.9310012  81.7614997 132.0689988
  23.8290012  80.6564997 131.0399988  23.4701981  81.1512267 131.6582908
  24.7000012  88.8764997 134.8179988  24.6950012  89.7564997 134.4399988
  23.8470012  88.7934997 135.2429988  24.5839464  88.9856117 134.8237907
  20.8210012  88.5474997 125.5999988  20.5490012  88.7764997 124.7119988
  20.8670012  89.3854997 126.0609988  20.7899482  88.6921318 125.5406273
  34.4460012  90.1694997 132.3129988  33.5050012  90.2274997 132.4749988
  34.7230012  91.0754997 132.1759988  34.3544679  90.2999443 132.3166815
  34.7470012  78.4554997 133.7309988  34.0110012  79.0664997 133.6929988
  35.4300012  78.8704997 133.2039988  34.7386541  78.5951374 133.6545832
  27.7500012  76.5424997 131.1959988  27.6330012  75.5934997 131.1419988
  26.8950012  76.8744997 131.4699988  27.6184212  76.4575571 131.2256497
  32.6980012  91.9504997 128.9379988  33.1240012  91.2434997 128.4529988
  33.0150012  92.7514997 128.5219988  32.7991683  91.9621017 128.8153680
  33.8580012  89.8514997 127.4469988  33.6000012  89.1614997 126.8359988
  33.9290012  89.4084997 128.2929988  33.8322856  89.6972124 127.4776885
  35.5440012  88.4174997 135.9239988  35.6840012  87.8264997 135.1849988
  35.7110012  89.2904997 135.5679988  35.5857411  88.4545428 135.7746894
  30.0170012  85.3794997 125.6969988  29.3050012  85.9144997 125.3449988
  30.7080012  85.4354997 125.0369988  30.0130132  85.4602543 125.5596289
  30.0700012  83.8374997 122.7359988  30.7710012  83.8594997 123.3869988
  30.3730012  83.2094997 122.0789988  30.2068133  83.7557070 122.7363369
  37.3860012  84.7574997 133.9899988  36.7330012  85.4524997 134.0799988
  37.8510012  84.9674997 133.1809988  37.3595274  84.8810643 133.8928462
  33.4220012  85.5894997 126.6489988  32.6900012  85.8174997 127.2219988
  33.8700012  84.8754997 127.1029988  33.3822725  85.5242145 126.7888816
  33.3200012  83.7634997 135.7159988  33.4000012  84.5264997 136.2879988
  32.7180012  84.0424997 135.0259988  33.2495756  83.9057134 135.7010589
  25.0680012  86.2194997 128.5309988  24.7370012  85.8494997 127.7129988
  25.6560012  85.5494997 128.8779988  25.1021873  86.0781156 128.4658102
  26.4340012  89.6474997 131.2119988  26.3400012  89.0694997 130.4559988
  27.1640012  89.2764997 131.7089988  26.5197386  89.5181663 131.1755342
  25.4340012  84.9884997 132.1649988  26.0000012  85.1094997 131.4019988
  25.7530012  85.6254997 132.8029988  25.5545474  85.0912219 132.1469862
  31.7430012  90.4914997 132.8989988  31.5030012  91.1534997 133.5469988
  31.5450012  89.6574997 133.3239988  31.6833808  90.4693134 133.0451524
  26.3140012  89.3874997 136.8819988  26.0030012  90.1694997 137.3369988
  25.6640012  89.2344997 136.1959988  26.1835558  89.4739105 136.8515871
  32.2930012  84.7514997 124.3339988  32.8730012  84.9014997 125.0809988
  32.7070012  85.2224997 123.6099988  32.4282997  84.8356578 124.3384058
  23.2340012  85.5854997 136.1099988  23.3050012  86.2364997 136.8089988
  22.3440012  85.6884997 135.7749988  23.1233005  85.6885427 136.1603495
  30.0200012  91.4884997 127.7689988  30.4940012  91.7834997 128.5459988
  29.4570012  92.2264997 127.5359988  30.0088184  91.6287247 127.8439628
  24.5540012  91.4594997 137.6449988  24.5610012  91.3234997 136.6979988
  23.6380012  91.3414997 137.8969988  24.4311714  91.4249430 137.5494666
  35.9920012  76.5014997 124.1469988  35.0920012  76.6404997 124.4419988
  36.2440012  77.3324997 123.7449988  35.9028702  76.6329074 124.1330205
  24.0580012  85.2894997 126.1199988  23.7660012  86.0574997 125.6299988
  23.3840012  84.6294997 125.9579988  23.9268111  85.3055587 126.0308978
  37.1810012  90.8674997 122.5229988  37.2550012  91.8064997 122.6939988
  38.0870012  90.5624997 122.4669988  37.3135100  90.9546722 122.5388119
  20.1510012  87.6524997 134.9349988  19.6500012  87.6244997 134.1199988
  20.1560012  86.7464997 135.2449988  20.0830944  87.5262396 134.8653226
  19.9010012  90.4324997 131.8189988  20.8470012  90.2884997 131.7999988
  19.7890012  91.2164997 132.3559988  20.0152727  90.5188046 131.8890072
  38.0990012  91.0984997 137.5019988  38.0500012  90.1434997 137.4649988
  37.2720012  91.3664997 137.9029988  37.9804940  91.0038998 137.5511375
  29.0780012  90.6724997 136.3779988  29.1650012  91.4984997 136.8529988
  28.2140012  90.3424997 136.6269988  28.9731964  90.7409878 136.4766549
  29.4920012  94.4444997 126.1839988  29.4170012  94.3234997 125.2369988
  29.5250012  95.3944997 126.3019988  29.4862068  94.5562646 126.0704967
  23.1450012  93.2334997 127.9649988  23.2980012  92.8854997 128.8429988
  22.2950012  92.8774997 127.7099988  23.0509166  93.1376216 128.0508079
  32.5940012  93.5984997 123.1859988  32.9690012  92.8544997 122.7149988
  32.5980012  93.3284997 124.1049988  32.6459125  93.4600986 123.2456483
  32.2630012  93.5244997 125.9349988  31.3270012  93.6244997 126.1139988
  32.5430012  92.8154997 126.5139988  32.1729553  93.4423406 126.0377087
  35.2510012  82.5914997 137.9819988  34.8440012  83.0724997 137.2609988
  35.2920012  81.6864997 137.6739988  35.2008437  82.5349374 137.8416683
  22.4000012  88.9754997 135.9789988  22.6160012  88.6144997 136.8379988
  21.5450012  88.6014997 135.7689988  22.3139292  88.8754111 136.0683386
  25.0190012  77.4454997 131.9739988  24.1570012  77.3584997 131.5659988
  24.9960012  78.3014997 132.4019988  24.8980409  77.5492883 131.9760589
  29.6820012  77.1674997 135.3489988  30.1020012  76.7524997 136.1019988
  28.7490012  76.9894997 135.4659988  29.6133644  77.0865900 135.4679539
  33.0080012  80.9234997 136.2019988  32.4940012  80.7974997 136.9999988
  32.8530012  81.8354997 135.9579988  32.9166852  81.0296132 136.2782158
  33.7710012  85.7844997 121.9639988  33.8130012  85.5614997 121.0339988
  34.6200012  86.1834997 122.1529988  33.8915280  85.8079438 121.8623554
  29.3430012  79.6604997 122.6339988  29.0900012  79.6794997 123.5569988
  29.0870012  78.7884997 122.3319988  29.2737481  79.5452558 122.7196175
  25.1100012  82.4114997 133.0689988  24.4680012  82.3704997 133.7779988
  25.1470012  83.3374997 132.8309988  25.0270664  82.5311430 133.1339219
  25.1070012  82.6324997 127.9809988  24.2140012  82.2914997 127.9219988
  25.5570012  82.2554997 127.2249988  25.0458130  82.5349631 127.8707702
  30.6420012  83.0484997 126.7979988  30.2330012  83.8634997 126.5069988
  31.3630012  82.9084997 126.1839988  30.6834537  83.1412018 126.6751342
  29.7440012  83.2234997 138.2859988  29.1820012  82.5194997 138.6069988
  30.5710012  83.1034997 138.7539988  29.7787095  83.1107883 138.3932330
  31.6470012  82.4944997 129.6119988  31.4520012  83.0994997 128.8969988
  31.8280012  81.6604997 129.1779988  31.6447614  82.4646300 129.4554405
  22.8600012  82.7314997 134.9359988  22.8220012  83.1314997 135.8049988
  22.3690012  81.9144997 135.0269988  22.7884684  82.6758069 135.0671059
  26.2260012  80.1054997 121.7349988  25.7950012  79.6604997 122.4649988
  25.5080012  80.4774997 121.2229988  26.0699438  80.0948940 121.7656799
  19.4680012  79.8474997 128.7869988  20.0990012  79.8184997 129.5059988
  19.9170012  79.4224997 128.0559988  19.6150918  79.7860836 128.7866441
  20.7420012  80.5934997 124.2109988  21.2160012  81.1844997 123.6259988
  20.0250012  81.1244997 124.5579988  20.7099341  80.7460867 124.1778836
  30.9110012  84.1324997 134.2829988  31.2340012  83.5014997 133.6399988
  30.4710012  83.5974997 134.9439988  30.8957484  83.9738387 134.2843198
  27.6880012  80.0594997 129.0669988  26.7770012  80.1164997 129.3559988
  28.1940012  79.9994997 129.8779988  27.6316899  80.0591941 129.2161184
  22.5170012  81.6884997 127.8939988  21.6270012  81.7884997 127.5539988
  22.8130012  80.8464997 127.5479988  22.4352823  81.5883545 127.8007213
  26.1700012  81.6884997 125.5509988  27.1010012  81.8174997 125.7289988
  25.9550012  82.3584997 124.9009988  26.2684247  81.7966565 125.4875747
  32.0930012  79.2944997 132.3319988  31.4170012  79.4254997 132.9959988
  31.6080012  79.1394997 131.5209988  31.9347146  79.2915157 132.3134469
  24.8440012  82.8834997 123.1169988  24.3010012  82.5034997 122.4259988
  25.6770012  83.0774997 122.6889988  24.8823631  82.8577125 122.9644501
  35.3810012  94.9664997 138.6079988  35.5810012  95.3904997 137.7739988
  36.0360012  95.3094997 139.2149988  35.4970072  95.0709857 138.5758592
  22.9790012  87.4404997 138.2159988  23.7110012  87.6944997 138.7779988
  22.1990012  87.6444997 138.7319988  22.9737073  87.5028160 138.3626151
  29.0080012  82.8474997 130.9539988  29.5730012  82.3004997 130.4069988
  28.8610012  82.3254997 131.7429988  29.0653380  82.7022259 130.9858695
  24.0100012  78.9834997 127.3729988  23.6930012  78.0814997 127.3369988
  24.7920012  78.9854997 126.8199988  24.0722408  78.8602474 127.2933569
  27.6350012  81.2354997 133.3679988  26.7990012  81.6894997 133.4789988
  28.1590012  81.5114997 134.1199988  27.5915416  81.3348660 133.4848119
  28.1790012  87.4484997 125.0529988  27.4340012  86.9414997 124.7309988
  28.0450012  87.4974997 125.9999988  28.0588776  87.3856940 125.1368647
  35.3290012  86.5814997 133.8399988  35.9710012  87.0384997 133.2959988
  34.4990012  86.6944997 133.3769988  35.3045963  86.6592704 133.7030177
  32.0770012  80.2624997 123.2519988  31.1380012  80.3744997 123.1009988
  32.3740012  81.1194997 123.5589988  31.9887583  80.3935981 123.2728337
  29.6980012  87.6324997 136.2899988  29.3530012  87.2514997 137.0969988
  29.4980012  88.5664997 136.3609988  29.6237527  87.7065135 136.4100689
  32.7950012  82.1294997 124.9129988  33.6870012  81.9924997 125.2319988
  32.8520012  82.9204997 124.3759988  32.9246504  82.2176052 124.8840818
  23.3040012  86.7434997 130.8229988  24.0490012  86.7414997 130.2219988
  23.3820012  85.9204997 131.3039988  23.4164995  86.6318887 130.8058282
  30.3050012  88.9074997 124.0789988  30.0090012  89.7334997 124.4599988
  29.6020012  88.2874997 124.2749988  30.1694914  88.9368199 124.1576443
  20.3120012  85.2044997 136.1379988  20.5350012  84.7864997 136.9699988
  19.7100012  84.5914997 135.7149988  20.2611759  85.0644668 136.1947022
  27.3280012  84.7214997 138.3509988  27.0320012  84.5554997 137.4559988
  28.2600012  84.5014997 138.3399988  27.4134166  84.6690640 138.2270536
  31.9490012  90.0944997 136.2409988  31.0480012  90.2774997 135.9729988
  31.9830012  90.3534997 137.1609988  31.8303139  90.1545849 136.3288099
  37.6800012  82.3394997 124.6079988  37.1260012  81.9434997 123.9359988
  37.7800012  83.2494997 124.3299988  37.6177059  82.4083586 124.4784401
  37.6430012  88.1394997 137.4449988  36.7920012  88.3774997 137.0779988
  38.2340012  88.1224997 136.6919988  37.6062487  88.1698258 137.2928893
  35.9750012  91.1254997 125.0729988  35.6020012  90.2994997 125.3819988
  36.2530012  90.9424997 124.1749988  35.9615222  90.9877430 124.9939473
  33.1360012  85.9334997 132.0939988  32.2070012  85.7014997 132.0669988
  33.5870012  85.1564997 131.7639988  33.0699216  85.7967238 132.0456917
  25.6790012  90.2614997 128.2269988  26.2060012  91.0344997 128.0269988
  24.7990012  90.4864997 127.9249988  25.6322031  90.3977545 128.1587912
  21.4340012  85.1234997 122.8139988  22.0500012  85.7504997 123.1939988
  20.5720012  85.4394997 123.0859988  21.4017698  85.2519430 122.9027183
  27.1060012  87.9244997 127.8029988  26.8650012  88.8494997 127.8449988
  26.3650012  87.4654997 128.1999988  26.9729225  87.9890933 127.8623742
  27.6210012  92.0734997 134.1189988  27.9830012  92.9284997 133.8849988
  28.1520012  91.7814997 134.8589988  27.7424473  92.1511060 134.1870855
  25.7890012  92.9464997 127.3489988  24.8390012  93.0514997 127.3999988
  26.1410012  93.7664997 127.6929988  25.7064195  93.0718800 127.4025502
  31.1650012  88.1724997 133.8189988  30.7390012  87.9454997 134.6459988
  31.7450012  87.4344997 133.6369988  31.1851868  88.0415299 133.9075830
  33.3680012  89.1014997 122.8929988  33.7210012  88.7214997 123.6969988
  32.4190012  89.0084997 122.9799988  33.2880918  89.0368956 123.0148532
  33.8230012  92.7244997 136.2889988  33.2220012  92.1694997 135.7929988
  34.1050012  93.3914997 135.6619988  33.7788804  92.7386625 136.1364849
  37.8710012  93.5814997 123.0939988  38.6150012  94.1674997 122.9539988
  37.1770012  94.1494997 123.4269988  37.8789899  93.7385798 123.1198778
  21.9460012  79.9574997 135.6959988  21.0530012  80.2964997 135.6279988
  21.8470012  79.1024997 136.1139988  21.8104164  79.8882588 135.7432235
  34.2340012  87.7744997 125.1199988  33.9560012  87.0464997 125.6759988
  35.1610012  87.8934997 125.3249988  34.3213124  87.6908802 125.2238845
  21.5970012  91.7624997 134.1309988  21.8140012  90.8304997 134.0999988
  21.8430012  92.0364997 135.0139988  21.6599549  91.6720636 134.2461763
  27.4590012  90.2134997 121.3399988  27.6980012  89.4654997 120.7929988
  27.1900012  89.8254997 122.1729988  27.4553675  90.0586638 121.3776865
  26.3960012  89.7834997 123.7959988  26.5420012  89.2634997 124.5859988
  26.3930012  90.6904997 124.1029988  26.4155792  89.8348842 123.9456117
  22.8490012  87.0364997 124.3069988  22.1630012  87.3884997 124.8739988
  23.3710012  87.7994997 124.0599988  22.8256852  87.1878578 124.3512118
  30.6800012  79.6984997 134.5859988  31.3790012  79.7724997 135.2359988
  30.2990012  78.8344997 134.7399988  30.7241767  79.5917624 134.6958322
  31.4650012  79.3504997 125.6829988  31.6850012  79.8224997 124.8799988
  32.0230012  79.7454997 126.3529988  31.5704968  79.4684285 125.6637331
  29.1330012  91.4814997 124.5459988  28.3170012  91.9784997 124.5979988
  29.6630012  91.9564997 123.9059988  29.0929161  91.6137722 124.4665956
  28.6650012  81.0784997 126.5179988  29.4770012  81.5834997 126.5639988
  28.4200012  80.9334997 127.4319988  28.7430520  81.1280375 126.6478517
  29.2000012  82.0644997 135.7019988  29.3190012  82.6384997 136.4599988
  29.8560012  81.3764997 135.8169988  29.3049025  82.0499858 135.8211321
  29.5480012  78.1594997 127.4559988  29.2020012  78.7774997 128.0999988
  30.2070012  78.6604997 126.9739988  29.5896968  78.3116278 127.4789383
  26.4720012  92.5254997 124.5269988  26.6320012  93.3244997 124.0269988
  26.2740012  92.8314997 125.4119988  26.4671637  92.6764020 124.5781144
  25.2060012  79.2224997 124.1429988  25.1230012  80.1114997 124.4899988
  26.0960012  78.9574997 124.3749988  25.3149469  79.3081430 124.2217626
  35.4050012  79.9714997 136.5369988  34.4880012  80.2344997 136.4499988
  35.7400012  79.9684997 135.6409988  35.3248613  80.0070761 136.4038837
  34.0070012  83.7224997 130.6329988  33.2090012  83.3074997 130.3049988
  34.4520012  83.0314997 131.1239988  33.9579885  83.5723543 130.6544889
  23.4650012  89.6504997 123.2039988  24.0570012  90.3494997 123.4799988
  23.9240012  89.2174997 122.4839988  23.6081142  89.6877049 123.1444830
  21.7810012  82.3144997 122.3199988  21.7360012  83.2534997 122.4979988
  20.8930012  82.0784997 122.0499988  21.6548574  82.4111892 122.3078912
  35.0930012  92.9784997 132.2559988  34.9380012  93.6564997 131.5979988
  36.0260012  93.0504997 132.4589988  35.1978657  93.0809546 132.1934360
  22.5890012  77.0964997 130.9929988  22.3600012  77.1554997 130.0649988
  22.1460012  76.3044997 131.2989988  22.4978530  76.9975753 130.9074786
  21.5190012  91.0364997 127.1529988  20.6870012  91.5094997 127.1799988
  22.0650012  91.5464997 126.5549988  21.4790352  91.1701332 127.0758463
  20.8070012  93.6494997 138.4829988  21.3480012  93.4324997 139.2429988
  20.3260012  92.8434997 138.2929988  20.8159951  93.5109270 138.5612576
  25.4050012  92.5684997 140.1029988  26.1720012  92.1094997 140.4439988
  25.3830012  92.3424997 139.1739988  25.5071275  92.4750186 140.0240101
  29.4970012  92.0764997 121.4789988  28.8530012  91.4454997 121.7999988
  30.2590012  91.5454997 121.2469988  29.5118077  91.9182920 121.4916011
  31.9820012  90.9484997 138.8329988  31.6310012  90.0924997 139.0759988
  32.7080012  91.0914997 139.4399988  32.0320769  90.8505636 138.9483619
  34.1010012  91.8934997 121.7119988  34.3840012  91.0994997 122.1649988
  34.8410012  92.1264997 121.1519988  34.2398006  91.8163376 121.6982715
  20.7140012  87.4594997 139.4369988  20.8580012  86.5574997 139.1509988
  19.9420012  87.7454997 138.9499988  20.6292753  87.3746816 139.3319505
  25.0560012  87.8034997 121.5699988  25.1200012  87.0094997 122.1009988
  25.7090012  87.6844997 120.8799988  25.1530241  87.6787148 121.5494317
  27.3700012  87.4294997 138.8699988  27.0410012  87.7004997 138.0129988
  27.5220012  86.4884997 138.7829988  27.3454809  87.3393862 138.7408244
  30.4080012  88.8504997 121.3059988  30.1390012  89.0304997 122.2069988
  30.2020012  87.9244997 121.1739988  30.3433427  88.7500261 121.4115073
  33.1040012  87.3454997 136.2529988  33.8500012  87.9334997 136.1339988
  32.3470012  87.9274997 136.3169988  33.1037820  87.5047143 136.2453590
  21.5470012  84.6594997 138.8569988  21.9550012  83.8024997 138.7359988
  21.2870012  84.6744997 139.7779988  21.5677568  84.5440807 138.9649588
  26.2050012  85.7754997 123.8759988  25.7450012  85.2914997 124.5619988
  26.4600012  85.1074997 123.2399988  26.1764902  85.6188731 123.8839334
  25.4940012  83.6684997 136.2319988  24.8760012  84.3434997 136.5119988
  25.8380012  83.9894997 135.3979988  25.4559132  83.8042411 136.1576262
  27.2760012  84.0184997 122.1379988  27.0960012  83.8644997 121.2109988
  28.2260012  84.1264997 122.1829988  27.3797776  84.0120175 122.0171843
  30.5140012  86.1404997 139.5089988  31.4670012  86.2234997 139.4819988
  30.3530012  85.4284997 140.1289988  30.6226426  86.0556746 139.5890579
  36.6660012  86.3734997 121.5839988  36.3920012  85.9484997 120.7709988
  36.7050012  87.3044997 121.3669988  36.6337699  86.4412484 121.4433610
  25.8330012  81.0234997 137.3139988  25.9830012  80.2944997 136.7119988
  25.8360012  81.8004997 136.7549988  25.8539302  81.0287851 137.1560692
  26.2460012  79.3934997 134.8069988  26.7820012  79.8444997 134.1549988
  25.3940012  79.2854997 134.3839988  26.2042178  79.4406390 134.6605756
  27.8280012  84.8324997 135.0459988  28.5780012  84.6764997 134.4729988
  27.4890012  85.6844997 134.7709988  27.8848921  84.9262968 134.9303561
  32.2430012  82.6474997 140.0749988  32.4360012  81.7164997 139.9629988
  33.1010012  83.0724997 140.0639988  32.3852934  82.5776531 140.0582031
  33.5600012  85.4364997 138.1519988  33.2790012  86.1454997 137.5739988
  34.5030012  85.3634997 138.0009988  33.6489291  85.5236711 138.0524967
  24.3120012  82.2214997 139.2259988  23.5450012  81.6894997 139.0149988
  24.9910012  81.9114997 138.6259988  24.2987877  82.1068300 139.1160716
  27.0520012  76.8494997 135.2379988  26.9530012  77.7964997 135.1329988
  26.3090012  76.4774997 134.7619988  26.9381184  76.9285863 135.1593621
  28.3160012  81.1714997 138.8019988  28.0800012  80.9514997 139.7029988
  27.5320012  80.9644997 138.2919988  28.1778504  81.1134586 138.8563431
  31.0310012  80.2984997 137.8769988  30.0840012  80.3304997 138.0099988
  31.3440012  79.6734997 138.5309988  30.9436707  80.2183998 137.9836060
  32.6650012  78.9324997 139.8829988  32.5690012  77.9804997 139.8769988
  32.3440012  79.2014997 140.7429988  32.6084070  78.8384035 139.9985441
  22.4920012  80.1424997 138.9299988  22.7040012  79.4354997 138.3199988
  22.3810012  79.7044997 139.7739988  22.5059721  79.9867084 138.9606843
  27.2730012  76.1434997 137.9089988  27.9850012  75.5034997 137.8949988
  27.1720012  76.4104997 136.9959988  27.3568066  76.0920079 137.7835677
  27.6270012  77.8264997 139.9629988  27.4950012  77.3504997 139.1429988
  27.0280012  78.5704997 139.9079988  27.5279071  77.8619618 139.8432886
  27.1730012  94.7094997 123.1389988  28.1060012  94.8674997 123.2829988
  26.9090012  95.3844997 122.5149988  27.2649888  94.8224510 123.0742842
  20.7420012  89.3454997 122.6219988  21.6560012  89.4244997 122.8959988
  20.7490012  88.6584997 121.9559988  20.8681131  89.2633961 122.5694393
  19.3910012  94.7384997 127.6999988  18.7440012  94.2764997 127.1669988
  19.7450012  94.0664997 128.2819988  19.3503849  94.5844723 127.7057959
  20.2610012  92.8194997 129.5039988  19.9260012  91.9394997 129.6759988
  20.4830012  93.1644997 130.3689988  20.2451783  92.7457500 129.6444208
  37.8090012  93.6284997 132.4849988  37.7880012  93.8134997 133.4239988
  38.5000012  94.1974997 132.1439988  37.8994618  93.7306606 132.5673864
  37.3730012  93.1964997 135.4069988  36.8850012  92.4604997 135.0349988
  37.9220012  92.8024997 136.0849988  37.3804820  93.0425889 135.4477813
  35.8230012  88.9854997 140.0449988  34.9570012  88.8804997 140.4389988
  36.2000012  89.7444997 140.4909988  35.7553308  89.0736900 140.1592393
  37.1240012  87.2424997 125.5589988  37.9740012  87.6634997 125.6859988
  37.1300012  86.5024997 126.1659988  37.2411372  87.2000803 125.6584344
  37.5190012  85.2954997 127.3819988  36.7920012  84.8164997 127.7799988
  38.1000012  85.5014997 128.1149988  37.4980473  85.2578103 127.5354528
  37.2780012  88.0804997 132.3299988  38.1110012  87.7024997 132.0499988
  37.3900012  89.0234997 132.2109988  37.4072647  88.1562218 132.2755487
  35.7640012  90.9584997 134.6369988  35.1170012  91.2834997 135.2629988
  35.2470012  90.5184997 133.9629988  35.6054029  90.9435004 134.6315827
  37.7870012  85.1964997 123.7739988  37.2650012  85.5534997 123.0549988
  37.7540012  85.8714997 124.4519988  37.7111634  85.3365413 123.7673145
  36.1360012  82.4364997 122.3239988  36.2320012  83.1034997 121.6439988
  35.9960012  81.6204997 121.8429988  36.1302272  82.4175655 122.1658347
  35.3050012  83.8164997 127.9449988  35.1550012  82.8714997 127.9249988
  34.9520012  84.0974997 128.7889988  35.2367448  83.7251481 128.0563705
  20.3410012  85.8944997 131.9559988  20.5250012  85.8124997 131.0199988
  21.1900012  85.7704997 132.3789988  20.4810151  85.8665073 131.8851451
  36.1620012  85.7864997 137.5839988  36.7450012  85.0524997 137.7759988
  36.7260012  86.5584997 137.6309988  36.3179769  85.7904227 137.6166159
  37.6580012  83.6894997 138.2689988  36.7950012  83.3104997 138.1029988
  38.2630012  82.9504997 138.1939988  37.6216119  83.5378268 138.2361528
  35.3830012  79.8444997 121.4419988  35.9940012  79.4734997 122.0789988
  34.5470012  79.4234997 121.6379988  35.3535032  79.7367554 121.5557035
  35.0160012  81.3994997 126.4079988  35.2960012  80.4924997 126.5319988
  35.7750012  81.8334997 126.0189988  35.1569277  81.3340942 126.3723682
  35.6280012  81.9804997 131.8439988  36.5610012  82.1924997 131.8089988
  35.3930012  82.0824997 132.7659988  35.7239244  82.0233100 131.9638892
  35.6570012  82.7174997 134.6199988  34.8140012  82.9854997 134.9859988
  36.0990012  83.5394997 134.4089988  35.6014158  82.8653291 134.6415491
  19.9380012  81.1654997 138.0969988  20.8580012  81.0434997 138.3329988
  19.4890012  80.4154997 138.4859988  20.0031580  81.0473727 138.1819006
  37.9400012  76.6974997 139.9729988  38.2900012  76.0434997 139.3679988
  38.0870012  77.5344997 139.5329988  38.0077887  76.7211548 139.8306858
  35.6290012  78.6624997 126.4559988  35.8120012  78.2134997 127.2819988
  35.0300012  78.0774997 125.9929988  35.5730202  78.5219975 126.5063275
  21.1590012  79.4774997 130.9879988  21.6050012  78.6854997 131.2899988
  21.6260012  80.1934997 131.4179988  21.2830831  79.4660685 131.0874006
  19.4630012  82.4764997 132.0569988  19.9550012  82.2554997 131.2659988
  19.8260012  83.3174997 132.3379988  19.5793126  82.5598357 131.9867531
  37.4600012  78.8064997 138.3219988  36.5420012  79.0774997 138.2869988
  37.5830012  78.2714997 137.5379988  37.3509729  78.7712508 138.2111923
  37.4960012  78.7294997 122.9839988  37.9080012  78.0084997 122.5089988
  38.1780012  79.3994997 123.0429988  37.6445885  78.7212368 122.9268915
  19.7770012  78.7344997 126.1109988  18.8520012  78.9434997 125.9819988
  20.2310012  79.2184997 125.4209988  19.7117292  78.8285343 126.0000720
  34.5480012  93.7184997 128.0569988  35.2000012  93.3714997 127.4489988
  35.0580012  94.2074997 128.7029988  34.7062637  93.7370597 128.0610236
  19.7410012  77.4724997 134.4549988  19.0760012  77.2264997 135.0989988
  19.2980012  78.0944997 133.8779988  19.5901318  77.5229410 134.4650898
  21.9330012  90.6474997 138.5999988  21.1120012  90.8224997 138.1389988
  21.6800012  90.5744997 139.5199988  21.7865585  90.6615544 138.6613561
  24.8870012  91.6224997 134.8579988  24.4620012  92.4314997 134.5759988
  25.7910012  91.7074997 134.5559988  24.9509975  91.7449300 134.7784816
  29.1980012  93.0214997 137.8179988  29.3830012  92.6874997 138.6959988
  30.0440012  93.3304997 137.4959988  29.3377539  93.0176047 137.8945605
  31.5430012  94.3074997 137.0619988  32.2200012  93.6744997 136.8219988
  31.8650012  94.7084997 137.8689988  31.6791637  94.2751154 137.1382793
  36.4600012  76.8964997 136.1409988  35.6480012  77.2214997 135.7539988
  36.6930012  76.1364997 135.6079988  36.3802203  76.8382758 136.0158880
  22.2890012  94.8784997 134.9059988  21.5680012  95.3184997 134.4549988
  21.9230012  94.6274997 135.7539988  22.1409651  94.9047242 134.9589640
  24.7560012  94.4784997 133.9359988  23.8910012  94.5504997 134.3399988
  24.7010012  95.0254997 133.1519988  24.6302085  94.5622685 133.8853362
  29.4660012  94.3664997 133.1109988  29.0100012  94.8954997 132.4569988
  29.6290012  94.9694997 133.8359988  29.4256068  94.5204607 133.1194838
  31.7940012  93.2444997 134.0559988  30.8890012  93.4094997 133.7899988
  32.2230012  94.0974997 133.9909988  31.7281324  93.3824339 134.0107976
  34.3980012  94.8144997 134.3509988  34.2160012  95.7304997 134.1409988
  34.5750012  94.4044997 133.5049988  34.3970210  94.8844822 134.2077885
  21.7030012  93.5014997 131.8159988  21.6850012  93.0764997 132.6729988
  22.5080012  93.1834997 131.4069988  21.8093529  93.4003013 131.8780946
  23.8450012  92.2114997 130.4709988  23.6260012  91.2954997 130.6409988
  24.6690012  92.3514997 130.9369988  23.9264420  92.1050520 130.5572774
  26.3820012  92.6814997 131.3199988  26.5950012  91.7934997 131.0329988
  26.4460012  92.6474997 132.2739988  26.4198231  92.5553102 131.4097397
  29.8900012  78.3454997 130.4639988  29.2160012  77.7164997 130.7199988
  30.4540012  77.8614997 129.8609988  29.8739230  78.1938744 130.4175340
  35.0330012  76.4534997 130.5769988  35.6370012  77.0004997 130.0749988
  34.1630012  76.7724997 130.3359988  34.9981208  76.5715137 130.4756886
  36.7600012  77.5914997 128.9099988  37.3720012  77.0774997 128.3829988
  37.1420012  78.4694997 128.9329988  36.8953371  77.6397866 128.8410041
  22.2170012  76.9794997 128.2859988  21.4400012  76.7454997 127.7789988
  22.7470012  76.1824997 128.2949988  22.1822330  76.8396988 128.2177742
  21.0530012  76.7774997 124.0899988  21.4920012  77.3884997 123.4979988
  20.4200012  77.3154997 124.5639988  21.0274514  76.9339257 124.0730930
  26.7960012  76.9064997 128.0999988  27.6710012  77.2944997 128.0699988
  26.6600012  76.6914997 129.0219988  26.8973695  76.9305184 128.2206440
  32.3530012  76.9364997 129.7489988  32.4290012  77.0314997 128.7989988
  32.0780012  76.0284997 129.8779988  32.3262321  76.8267867 129.6365079
  33.7060012  76.9624997 125.4409988  33.0040012  77.5774997 125.2309988
  33.2620012  76.1244997 125.5719988  33.5496450  76.9335639 125.4299000
  20.9540012  92.7254997 124.9869988  20.2690012  92.6874997 124.3199988
  20.9580012  93.6384997 125.2759988  20.8606998  92.8436733 124.9346771
  22.9140012  78.6934997 122.5319988  23.4060012  78.0634997 122.0049988
  23.5380012  78.9894997 123.1949988  23.0655688  78.6473804 122.5495482
  27.9400012  78.9864997 124.9889988  28.1180012  78.3404997 125.6719988
  27.8870012  79.8204997 125.4559988  27.9571999  79.0108009 125.1455917
  29.8190012  93.9354997 123.3849988  30.6850012  94.3014997 123.2069988
  29.5720012  93.4954997 122.5709988  29.9042392  93.9261756 123.2506289
  36.5280012  93.4984997 126.0639988  36.3330012  92.7504997 125.4989988
  36.4890012  94.2564997 125.4809988  36.4960380  93.4986099 125.9078384
  22.1750012  77.4934997 137.8039988  21.8090012  76.7284997 138.2459988
  23.0880012  77.5224997 138.0899988  22.2482736  77.3925640 137.9032502
  24.1480012  76.8444997 139.3399988  25.0460012  76.5704997 139.1549988
  23.7610012  76.1014997 139.8039988  24.2186612  76.7065914 139.3773643
  22.7720012  93.6454997 122.0129988  22.5050012  93.9324997 122.8859988
  23.5440012  93.0994997 122.1649988  22.8397488  93.6110294 122.1531050
  32.5690012  76.1764997 139.5219988  32.6460012  75.7504997 140.3759988
  33.4630012  76.1904997 139.1789988  32.7003428  76.1200879 139.5925310
  35.7450012  92.2494997 138.2139988  34.9630012  92.0634997 137.6939988
  35.6730012  93.1784997 138.4319988  35.6282274  92.3496643 138.1723018
  50.1510012  86.1354997 128.2449988  50.2400012  87.0794997 128.1129988
  49.5130012  85.8604997 127.5869988  50.0769081  86.2274830 128.1379614
  49.0840012  85.3904997 131.6639988  49.0460012  84.7444997 132.3689988
  48.7620012  84.9244997 130.8929988  49.0352333  85.2389408 131.6562978
  41.4530012  85.0054997 133.2569988  41.4940012  84.3794997 133.9799988
  42.1560012  85.6294997 133.4389988  41.5536363  85.0041196 133.3806044
  52.7900012  88.3294997 129.9649988  52.3500012  87.6094997 130.4159988
  52.7770012  89.0504997 130.5949988  52.7280226  88.3283731 130.1118494
  42.3760012  89.4554997 131.7919988  42.0070012  88.6534997 131.4219988
  43.3170012  89.2864997 131.8379988  42.4527289  89.3230153 131.7476316
  38.9860012  83.1154997 127.1849988  38.5390012  83.9614997 127.1659988
  38.4250012  82.5354997 126.6689988  38.8489900  83.1529916 127.1126801
  39.6970012  85.2774997 129.3099988  39.9100012  84.5074997 129.8379988
  40.4350012  85.3664997 128.7069988  39.8259044  85.1841968 129.3007123
  49.9020012  93.4344997 130.1769988  50.5220012  92.7574997 129.9039988
  49.6940012  93.2164997 131.0859988  49.9586726  93.3124800 130.2624812
  47.4740012  87.8234997 132.0699988  47.7780012  87.1374997 131.4749988
  48.1950012  87.9414997 132.6879988  47.6130671  87.7456305 132.0721816
  56.1370012  79.4244997 132.9309988  56.1860012  80.0344997 133.6659988
  56.5620012  79.8854997 132.2079988  56.2011746  79.5703796 132.9339175
  50.6150012  82.2174997 132.3969988  50.7570012  81.2714997 132.4179988
  50.5080012  82.4244997 131.4689988  50.6199919  82.1158246 132.2743408
  43.7690012  80.3184997 129.6699988  43.8130012  81.1784997 129.2509988
  43.3120012  79.7664997 129.0359988  43.7132240  80.3614422 129.5269864
  51.4920012  80.4494997 128.0709988  52.1380012  80.1204997 128.6949988
  52.0020012  80.9674997 127.4479988  51.6494299  80.4744450 128.0722731
  40.3900012  82.7154997 130.4319988  41.0430012  82.1654997 130.8639988
  40.4140012  82.4414997 129.5149988  40.4826683  82.6031466 130.3672123
  45.5460012  84.2654997 129.6469988  46.1620012  83.7394997 130.1569988
  44.9600012  83.6254997 129.2439988  45.5510810  84.1069208 129.6623173
  56.5280012  80.9024997 135.1659988  55.8400012  81.5604997 135.0709988
  56.5440012  80.7054997 136.1029988  56.4359540  80.9659819 135.2795990
  42.5800012  79.2364997 133.7439988  42.3610012  79.7664997 132.9779988
  41.9120012  79.4634997 134.3909988  42.4597600  79.3396906 133.7266379
  49.9490012  88.7364997 127.2879988  49.6530012  88.4144997 126.4369988
  49.6240012  89.6364997 127.3289988  49.8646371  88.8140215 127.1771801
  45.1490012  86.9124997 134.0309988  44.4090012  87.5104997 134.1349988
  45.8630012  87.4664997 133.7159988  45.1442237  87.0692831 134.0026465
  53.2560012  79.7404997 130.0509988  53.0400012  78.9744997 130.5839988
  53.9110012  80.2124997 130.5639988  53.3150632  79.6995889 130.1932861
  42.1730012  81.1284997 131.6959988  42.7870012  81.7614997 132.0689988
  42.6850012  80.6564997 131.0399988  42.3261981  81.1512267 131.6582908
  43.5560012  88.8764997 134.8179988  43.5510012  89.7564997 134.4399988
  42.7030012  88.7934997 135.2429988  43.4399464  88.9856117 134.8237907
  39.6770012  88.5474997 125.5999988  39.4050012  88.7764997 124.7119988
  39.7230012  89.3854997 126.0609988  39.6459482  88.6921318 125.5406273
  53.3020012  90.1694997 132.3129988  52.3610012  90.2274997 132.4749988
  53.5790012  91.0754997 132.1759988  53.2104679  90.2999443 132.3166815
  53.6030012  78.4554997 133.7309988  52.8670012  79.0664997 133.6929988
  54.2860012  78.8704997 133.2039988  53.5946541  78.5951374 133.6545832
  46.6060012  76.5424997 131.1959988  46.4890012  75.5934997 131.1419988
  45.7510012  76.8744997 131.4699988  46.4744212  76.4575571 131.2256497
  51.5540012  91.9504997 128.9379988  51.9800012  91.2434997 128.4529988
  51.8710012  92.7514997 128.5219988  51.6551683  91.9621017 128.8153680
  52.7140012  89.8514997 127.4469988  52.4560012  89.1614997 126.8359988
  52.7850012  89.4084997 128.2929988  52.6882856  89.6972124 127.4776885
  54.4000012  88.4174997 135.9239988  54.5400012  87.8264997 135.1849988
  54.5670012  89.2904997 135.5679988  54.4417411  88.4545428 135.7746894
  48.8730012  85.3794997 125.6969988  48.1610012  85.9144997 125.3449988
  49.5640012  85.4354997 125.0369988  48.8690132  85.4602543 125.5596289
  48.9260012  83.8374997 122.7359988  49.6270012  83.8594997 123.3869988
  49.2290012  83.2094997 122.0789988  49.0628133  83.7557070 122.7363369
  56.2420012  84.7574997 133.9899988  55.5890012  85.4524997 134.0799988
  56.7070012  84.9674997 133.1809988  56.2155274  84.8810643 133.8928462
  52.2780012  85.5894997 126.6489988  51.5460012  85.8174997 127.2219988
  52.7260012  84.8754997 127.1029988  52.2382725  85.5242145 126.7888816
  52.1760012  83.7634997 135.7159988  52.2560012  84.5264997 136.2879988
  51.5740012  84.0424997 135.0259988  52.1055756  83.9057134 135.7010589
  43.9240012  86.2194997 128.5309988  43.5930012  85.8494997 127.7129988
  44.5120012  85.5494997 128.8779988  43.9581873  86.0781156 128.4658102
  45.2900012  89.6474997 131.2119988  45.1960012  89.0694997 130.4559988
  46.0200012  89.2764997 131.7089988  45.3757387  89.5181663 131.1755342
  44.2900012  84.9884997 132.1649988  44.8560012  85.1094997 131.4019988
  44.6090012  85.6254997 132.8029988  44.4105474  85.0912219 132.1469862
  50.5990012  90.4914997 132.8989988  50.3590012  91.1534997 133.5469988
  50.4010012  89.6574997 133.3239988  50.5393808  90.4693134 133.0451524
  45.1700012  89.3874997 136.8819988  44.8590012  90.1694997 137.3369988
  44.5200012  89.2344997 136.1959988  45.0395558  89.4739105 136.8515871
  51.1490012  84.7514997 124.3339988  51.7290012  84.9014997 125.0809988
  51.5630012  85.2224997 123.6099988  51.2842997  84.8356578 124.3384058
  42.0900012  85.5854997 136.1099988  42.1610012  86.2364997 136.8089988
  41.2000012  85.6884997 135.7749988  41.9793005  85.6885427 136.1603495
  48.8760012  91.4884997 127.7689988  49.3500012  91.7834997 128.5459988
  48.3130012  92.2264997 127.5359988  48.8648184  91.6287247 127.8439628
  43.4100012  91.4594997 137.6449988  43.4170012  91.3234997 136.6979988
  42.4940012  91.3414997 137.8969988  43.2871714  91.4249430 137.5494666
  54.8480012  76.5014997 124.1469988  53.9480012  76.6404997 124.4419988
  55.1000012  77.3324997 123.7449988  54.7588702  76.6329074 124.1330205
  42.9140012  85.2894997 126.1199988  42.6220012  86.0574997 125.6299988
  42.2400012  84.6294997 125.9579988  42.7828111  85.3055587 126.0308978
  56.0370012  90.8674997 122.5229988  56.1110012  91.8064997 122.6939988
  56.9430012  90.5624997 122.4669988  56.1695100  90.9546722 122.5388119
  39.0070012  87.6524997 134.9349988  38.5060012  87.6244997 134.1199988
  39.0120012  86.7464997 135.2449988  38.9390944  87.5262396 134.8653226
  38.7570012  90.4324997 131.8189988  39.7030012  90.2884997 131.7999988
  38.6450012  91.2164997 132.3559988  38.8712727  90.5188046 131.8890072
  56.9550012  91.0984997 137.5019988  56.9060012  90.1434997 137.4649988
  56.1280012  91.3664997 137.9029988  56.8364940  91.0038998 137.5511375
  47.9340012  90.6724997 136.3779988  48.0210012  91.4984997 136.8529988
  47.0700012  90.3424997 136.6269988  47.8291964  90.7409878 136.4766549
  48.3480012  94.4444997 126.1839988  48.2730012  94.3234997 125.2369988
  48.3810012  95.3944997 126.3019988  48.3422068  94.5562646 126.0704967
  42.0010012  93.2334997 127.9649988  42.1540012  92.8854997 128.8429988
  41.1510012  92.8774997 127.7099988  41.9069166  93.1376217 128.0508079
  51.4500012  93.5984997 123.1859988  51.8250012  92.8544997 122.7149988
  51.4540012  93.3284997 124.1049988  51.5019125  93.4600986 123.2456483
  51.1190012  93.5244997 125.9349988  50.1830012  93.6244997 126.1139988
  51.3990012  92.8154997 126.5139988  51.0289553  93.4423406 126.0377087
  54.1070012  82.5914997 137.9819988  53.7000012  83.0724997 137.2609988
  54.1480012  81.6864997 137.6739988  54.0568437  82.5349374 137.8416683
  41.2560012  88.9754997 135.9789988  41.4720012  88.6144997 136.8379988
  40.4010012  88.6014997 135.7689988  41.1699292  88.8754111 136.0683386
  43.8750012  77.4454997 131.9739988  43.0130012  77.3584997 131.5659988
  43.8520012  78.3014997 132.4019988  43.7540409  77.5492883 131.9760589
  48.5380012  77.1674997 135.3489988  48.9580012  76.7524997 136.1019988
  47.6050012  76.9894997 135.4659988  48.4693644  77.0865900 135.4679539
  51.8640012  80.9234997 136.2019988  51.3500012  80.7974997 136.9999988
  51.7090012  81.8354997 135.9579988  51.7726852  81.0296132 136.2782158
  52.6270012  85.7844997 121.9639988  52.6690012  85.5614997 121.0339988
  53.4760012  86.1834997 122.1529988  52.7475280  85.8079438 121.8623554
  48.1990012  79.6604997 122.6339988  47.9460012  79.6794997 123.5569988
  47.9430012  78.7884997 122.3319988  48.1297481  79.5452558 122.7196175
  43.9660012  82.4114997 133.0689988  43.3240012  82.3704997 133.7779988
  44.0030012  83.3374997 132.8309988  43.8830664  82.5311430 133.1339219
  43.9630012  82.6324997 127.9809988  43.0700012  82.2914997 127.9219988
  44.4130012  82.2554997 127.2249988  43.9018130  82.5349631 127.8707702
  49.4980012  83.0484997 126.7979988  49.0890012  83.8634997 126.5069988
  50.2190012  82.9084997 126.1839988  49.5394537  83.1412018 126.6751342
  48.6000012  83.2234997 138.2859988  48.0380012  82.5194997 138.6069988
  49.4270012  83.1034997 138.7539988  48.6347095  83.1107883 138.3932330
  50.5030012  82.4944997 129.6119988  50.3080012  83.0994997 128.8969988
  50.6840012  81.6604997 129.1779988  50.5007614  82.4646300 129.4554405
  41.7160012  82.7314997 134.9359988  41.6780012  83.1314997 135.8049988
  41.2250012  81.9144997 135.0269988  41.6444684  82.6758069 135.0671059
  45.0820012  80.1054997 121.7349988  44.6510012  79.6604997 122.4649988
  44.3640012  80.4774997 121.2229988  44.9259438  80.0948940 121.7656799
  38.3240012  79.8474997 128.7869988  38.9550012  79.8184997 129.5059988
  38.7730012  79.4224997 128.0559988  38.4710918  79.7860836 128.7866441
  39.5980012  80.5934997 124.2109988  40.0720012  81.1844997 123.6259988
  38.8810012  81.1244997 124.5579988  39.5659341  80.7460867 124.1778836
  49.7670012  84.1324997 134.2829988  50.0900012  83.5014997 133.6399988
  49.3270012  83.5974997 134.9439988  49.7517484  83.9738387 134.2843198
  46.5440012  80.0594997 129.0669988  45.6330012  80.1164997 129.3559988
  47.0500012  79.9994997 129.8779988  46.4876899  80.0591941 129.2161184
  41.3730012  81.6884997 127.8939988  40.4830012  81.7884997 127.5539988
  41.6690012  80.8464997 127.5479988  41.2912823  81.5883545 127.8007213
  45.0260012  81.6884997 125.5509988  45.9570012  81.8174997 125.7289988
  44.8110012  82.3584997 124.9009988  45.1244247  81.7966565 125.4875747
  50.9490012  79.2944997 132.3319988  50.2730012  79.4254997 132.9959988
  50.4640012  79.1394997 131.5209988  50.7907146  79.2915157 132.3134469
  43.7000012  82.8834997 123.1169988  43.1570012  82.5034997 122.4259988
  44.5330012  83.0774997 122.6889988  43.7383631  82.8577125 122.9644501
  54.2370012  94.9664997 138.6079988  54.4370012  95.3904997 137.7739988
  54.8920012  95.3094997 139.2149988  54.3530072  95.0709857 138.5758592
  41.8350012  87.4404997 138.2159988  42.5670012  87.6944997 138.7779988
  41.0550012  87.6444997 138.7319988  41.8297073  87.5028160 138.3626151
  47.8640012  82.8474997 130.9539988  48.4290012  82.3004997 130.4069988
  47.7170012  82.3254997 131.7429988  47.9213380  82.7022259 130.9858695
  42.8660012  78.9834997 127.3729988  42.5490012  78.0814997 127.3369988
  43.6480012  78.9854997 126.8199988  42.9282408  78.8602474 127.2933569
  46.4910012  81.2354997 133.3679988  45.6550012  81.6894997 133.4789988
  47.0150012  81.5114997 134.1199988  46.4475416  81.3348660 133.4848119
  47.0350012  87.4484997 125.0529988  46.2900012  86.9414997 124.7309988
  46.9010012  87.4974997 125.9999988  46.9148776  87.3856940 125.1368647
  54.1850012  86.5814997 133.8399988  54.8270012  87.0384997 133.2959988
  53.3550012  86.6944997 133.3769988  54.1605963  86.6592704 133.7030177
  50.9330012  80.2624997 123.2519988  49.9940012  80.3744997 123.1009988
  51.2300012  81.1194997 123.5589988  50.8447583  80.3935981 123.2728337
  48.5540012  87.6324997 136.2899988  48.2090012  87.2514997 137.0969988
  48.3540012  88.5664997 136.3609988  48.4797527  87.7065135 136.4100689
  51.6510012  82.1294997 124.9129988  52.5430012  81.9924997 125.2319988
  51.7080012  82.9204997 124.3759988  51.7806504  82.2176052 124.8840818
  42.1600012  86.7434997 130.8229988  42.9050012  86.7414997 130.2219988
  42.2380012  85.9204997 131.3039988  42.2724995  86.6318887 130.8058282
  49.1610012  88.9074997 124.0789988  48.8650012  89.7334997 124.4599988
  48.4580012  88.2874997 124.2749988  49.0254914  88.9368199 124.1576443
  39.1680012  85.2044997 136.1379988  39.3910012  84.7864997 136.9699988
  38.5660012  84.5914997 135.7149988  39.1171759  85.0644668 136.1947022
  46.1840012  84.7214997 138.3509988  45.8880012  84.5554997 137.4559988
  47.1160012  84.5014997 138.3399988  46.2694166  84.6690640 138.2270536
  50.8050012  90.0944997 136.2409988  49.9040012  90.2774997 135.9729988
  50.8390012  90.3534997 137.1609988  50.6863139  90.1545849 136.3288099
  56.5360012  82.3394997 124.6079988  55.9820012  81.9434997 123.9359988
  56.6360012  83.2494997 124.3299988  56.4737059  82.4083586 124.4784401
  56.4990012  88.1394997 137.4449988  55.6480012  88.3774997 137.0779988
  57.0900012  88.1224997 136.6919988  56.4622487  88.1698258 137.2928893
  54.8310012  91.1254997 125.0729988  54.4580012  90.2994997 125.3819988
  55.1090012  90.9424997 124.1749988  54.8175222  90.9877430 124.9939473
  51.9920012  85.9334997 132.0939988  51.0630012  85.7014997 132.0669988
  52.4430012  85.1564997 131.7639988  51.9259216  85.7967238 132.0456917
  44.5350012  90.2614997 128.2269988  45.0620012  91.0344997 128.0269988
  43.6550012  90.4864997 127.9249988  44.4882031  90.3977545 128.1587912
  40.2900012  85.1234997 122.8139988  40.9060012  85.7504997 123.1939988
  39.4280012  85.4394997 123.0859988  40.2577698  85.2519430 122.9027183
  45.9620012  87.9244997 127.8029988  45.7210012  88.8494997 127.8449988
  45.2210012  87.4654997 128.1999988  45.8289225  87.9890933 127.8623742
  46.4770012  92.0734997 134.1189988  46.8390012  92.9284997 133.8849988
  47.0080012  91.7814997 134.8589988  46.5984473  92.1511060 134.1870855
  44.6450012  92.9464997 127.3489988  43.6950012  93.0514997 127.3999988
  44.9970012  93.7664997 127.6929988  44.5624195  93.0718800 127.4025502
  50.0210012  88.1724997 133.8189988  49.5950012  87.9454997 134.6459988
  50.6010012  87.4344997 133.6369988  50.0411868  88.0415299 133.9075830
  52.2240012  89.1014997 122.8929988  52.5770012  88.7214997 123.6969988
  51.2750012  89.0084997 122.9799988  52.1440918  89.0368956 123.0148532
  52.6790012  92.7244997 136.2889988  52.0780012  92.1694997 135.7929988
  52.9610012  93.3914997 135.6619988  52.6348804  92.7386625 136.1364849
  56.7270012  93.5814997 123.0939988  57.4710012  94.1674997 122.9539988
  56.0330012  94.1494997 123.4269988  56.7349899  93.7385798 123.1198778
  40.8020012  79.9574997 135.6959988  39.9090012  80.2964997 135.6279988
  40.7030012  79.1024997 136.1139988  40.6664164  79.8882588 135.7432235
  53.0900012  87.7744997 125.1199988  52.8120012  87.0464997 125.6759988
  54.0170012  87.8934997 125.3249988  53.1773124  87.6908802 125.2238845
  40.4530012  91.7624997 134.1309988  40.6700012  90.8304997 134.0999988
  40.6990012  92.0364997 135.0139988  40.5159549  91.6720636 134.2461763
  46.3150012  90.2134997 121.3399988  46.5540012  89.4654997 120.7929988
  46.0460012  89.8254997 122.1729988  46.3113675  90.0586638 121.3776865
  45.2520012  89.7834997 123.7959988  45.3980012  89.2634997 124.5859988
  45.2490012  90.6904997 124.1029988  45.2715792  89.8348842 123.9456117
  41.7050012  87.0364997 124.3069988  41.0190012  87.3884997 124.8739988
  42.2270012  87.7994997 124.0599988  41.6816852  87.1878578 124.3512118
  49.5360012  79.6984997 134.5859988  50.2350012  79.7724997 135.2359988
  49.1550012  78.8344997 134.7399988  49.5801767  79.5917624 134.6958322
  50.3210012  79.3504997 125.6829988  50.5410012  79.8224997 124.8799988
  50.8790012  79.7454997 126.3529988  50.4264968  79.4684285 125.6637331
  47.9890012  91.4814997 124.5459988  47.1730012  91.9784997 124.5979988
  48.5190012  91.9564997 123.9059988  47.9489161  91.6137722 124.4665956
  47.5210012  81.0784997 126.5179988  48.3330012  81.5834997 126.5639988
  47.2760012  80.9334997 127.4319988  47.5990520  81.1280375 126.6478517
  48.0560012  82.0644997 135.7019988  48.1750012  82.6384997 136.4599988
  48.7120012  81.3764997 135.8169988  48.1609025  82.0499858 135.8211321
  48.4040012  78.1594997 127.4559988  48.0580012  78.7774997 128.0999988
  49.0630012  78.6604997 126.9739988  48.4456968  78.3116278 127.4789383
  45.3280012  92.5254997 124.5269988  45.4880012  93.3244997 124.0269988
  45.1300012  92.8314997 125.4119988  45.3231637  92.6764020 124.5781144
  44.0620012  79.2224997 124.1429988  43.9790012  80.1114997 124.4899988
  44.9520012  78.9574997 124.3749988  44.1709469  79.3081430 124.2217626
  54.2610012  79.9714997 136.5369988  53.3440012  80.2344997 136.4499988
  54.5960012  79.9684997 135.6409988  54.1808613  80.0070761 136.4038837
  52.8630012  83.7224997 130.6329988  52.0650012  83.3074997 130.3049988
  53.3080012  83.0314997 131.1239988  52.8139885  83.5723543 130.6544889
  42.3210012  89.6504997 123.2039988  42.9130012  90.3494997 123.4799988
  42.7800012  89.2174997 122.4839988  42.4641142  89.6877049 123.1444830
  40.6370012  82.3144997 122.3199988  40.5920012  83.2534997 122.4979988
  39.7490012  82.0784997 122.0499988  40.5108574  82.4111892 122.3078912
  53.9490012  92.9784997 132.2559988  53.7940012  93.6564997 131.5979988
  54.8820012  93.0504997 132.4589988  54.0538657  93.0809546 132.1934360
  41.4450012  77.0964997 130.9929988  41.2160012  77.1554997 130.0649988
  41.0020012  76.3044997 131.2989988  41.3538530  76.9975753 130.9074786
  40.3750012  91.0364997 127.1529988  39.5430012  91.5094997 127.1799988
  40.9210012  91.5464997 126.5549988  40.3350352  91.1701332 127.0758463
  39.6630012  93.6494997 138.4829988  40.2040012  93.4324997 139.2429988
  39.1820012  92.8434997 138.2929988  39.6719951  93.5109270 138.5612576
  44.2610012  92.5684997 140.1029988  45.0280012  92.1094997 140.4439988
  44.2390012  92.3424997 139.1739988  44.3631275  92.4750186 140.0240101
  48.3530012  92.0764997 121.4789988  47.7090012  91.4454997 121.7999988
  49.1150012  91.5454997 121.2469988  48.3678077  91.9182920 121.4916011
  50.8380012  90.9484997 138.8329988  50.4870012  90.0924997 139.0759988
  51.5640012  91.0914997 139.4399988  50.8880769  90.8505636 138.9483619
  52.9570012  91.8934997 121.7119988  53.2400012  91.0994997 122.1649988
  53.6970012  92.1264997 121.1519988  53.0958006  91.8163376 121.6982715
  39.5700012  87.4594997 139.4369988  39.7140012  86.5574997 139.1509988
  38.7980012  87.7454997 138.9499988  39.4852753  87.3746816 139.3319505
  43.9120012  87.8034997 121.5699988  43.9760012  87.0094997 122.1009988
  44.5650012  87.6844997 120.8799988  44.0090241  87.6787148 121.5494317
  46.2260012  87.4294997 138.8699988  45.8970012  87.7004997 138.0129988
  46.3780012  86.4884997 138.7829988  46.2014809  87.3393862 138.7408244
  49.2640012  88.8504997 121.3059988  48.9950012  89.0304997 122.2069988
  49.0580012  87.9244997 121.1739988  49.1993427  88.7500261 121.4115073
  51.9600012  87.3454997 136.2529988  52.7060012  87.9334997 136.1339988
  51.2030012  87.9274997 136.3169988  51.9597820  87.5047143 136.2453590
  40.4030012  84.6594997 138.8569988  40.8110012  83.8024997 138.7359988
  40.1430012  84.6744997 139.7779988  40.4237568  84.5440807 138.9649588
  45.0610012  85.7754997 123.8759988  44.6010012  85.2914997 124.5619988
  45.3160012  85.1074997 123.2399988  45.0324902  85.6188731 123.8839334
  44.3500012  83.6684997 136.2319988  43.7320012  84.3434997 136.5119988
  44.6940012  83.9894997 135.3979988  44.3119132  83.8042411 136.1576262
  46.1320012  84.0184997 122.1379988  45.9520012  83.8644997 121.2109988
  47.0820012  84.1264997 122.1829988  46.2357776  84.0120175 122.0171843
  49.3700012  86.1404997 139.5089988  50.3230012  86.2234997 139.4819988
  49.2090012  85.4284997 140.1289988  49.4786426  86.0556746 139.5890579
  55.5220012  86.3734997 121.5839988  55.2480012  85.9484997 120.7709988
  55.5610012  87.3044997 121.3669988  55.4897699  86.4412484 121.4433610
  44.6890012  81.0234997 137.3139988  44.8390012  80.2944997 136.7119988
  44.6920012  81.8004997 136.7549988  44.7099302  81.0287851 137.1560692
  45.1020012  79.3934997 134.8069988  45.6380012  79.8444997 134.1549988
  44.2500012  79.2854997 134.3839988  45.0602178  79.4406390 134.6605756
  46.6840012  84.8324997 135.0459988  47.4340012  84.6764997 134.4729988
  46.3450012  85.6844997 134.7709988  46.7408921  84.9262968 134.9303561
  51.0990012  82.6474997 140.0749988  51.2920012  81.7164997 139.9629988
  51.9570012  83.0724997 140.0639988  51.2412934  82.5776531 140.0582031
  52.4160012  85.4364997 138.1519988  52.1350012  86.1454997 137.5739988
  53.3590012  85.3634997 138.0009988  52.5049291  85.5236711 138.0524967
  43.1680012  82.2214997 139.2259988  42.4010012  81.6894997 139.0149988
  43.8470012  81.9114997 138.6259988  43.1547877  82.1068300 139.1160716
  45.9080012  76.8494997 135.2379988  45.8090012  77.7964997 135.1329988
  45.1650012  76.4774997 134.7619988  45.7941184  76.9285863 135.1593621
  47.1720012  81.1714997 138.8019988  46.9360012  80.9514997 139.7029988
  46.3880012  80.9644997 138.2919988  47.0338504  81.1134586 138.8563431
  49.8870012  80.2984997 137.8769988  48.9400012  80.3304997 138.0099988
  50.2000012  79.6734997 138.5309988  49.7996707  80.2183998 137.9836060
  51.5210012  78.9324997 139.8829988  51.4250012  77.9804997 139.8769988
  51.2000012  79.2014997 140.7429988  51.4644070  78.8384035 139.9985441
  41.3480012  80.1424997 138.9299988  41.5600012  79.4354997 138.3199988
  41.2370012  79.7044997 139.7739988  41.3619721  79.9867084 138.9606843
  46.1290012  76.1434997 137.9089988  46.8410012  75.5034997 137.8949988
  46.0280012  76.4104997 136.9959988  46.2128066  76.0920079 137.7835677
  46.4830012  77.8264997 139.9629988  46.3510012  77.3504997 139.1429988
  45.8840012  78.5704997 139.9079988  46.3839071  77.8619618 139.8432886
  46.0290012  94.7094997 123.1389988  46.9620012  94.8674997 123.2829988
  45.7650012  95.3844997 122.5149988  46.1209888  94.8224510 123.0742842
  39.5980012  89.3454997 122.6219988  40.5120012  89.4244997 122.8959988
  39.6050012  88.6584997 121.9559988  39.7241131  89.2633961 122.5694393
  38.2470012  94.7384997 127.6999988  37.6000012  94.2764997 127.1669988
  38.6010012  94.0664997 128.2819988  38.2063849  94.5844723 127.7057959
  39.1170012  92.8194997 129.5039988  38.7820012  91.9394997 129.6759988
  39.3390012  93.1644997 130.3689988  39.1011783  92.7457500 129.6444208
  56.6650012  93.6284997 132.4849988  56.6440012  93.8134997 133.4239988
  57.3560012  94.1974997 132.1439988  56.7554618  93.7306606 132.5673864
  56.2290012  93.1964997 135.4069988  55.7410012  92.4604997 135.0349988
  56.7780012  92.8024997 136.0849988  56.2364820  93.0425889 135.4477813
  54.6790012  88.9854997 140.0449988  53.8130012  88.8804997 140.4389988
  55.0560012  89.7444997 140.4909988  54.6113308  89.0736900 140.1592393
  55.9800012  87.2424997 125.5589988  56.8300012  87.6634997 125.6859988
  55.9860012  86.5024997 126.1659988  56.0971372  87.2000803 125.6584344
  56.3750012  85.2954997 127.3819988  55.6480012  84.8164997 127.7799988
  56.9560012  85.5014997 128.1149988  56.3540473  85.2578103 127.5354528
  56.1340012  88.0804997 132.3299988  56.9670012  87.7024997 132.0499988
  56.2460012  89.0234997 132.2109988  56.2632647  88.1562218 132.2755487
  54.6200012  90.9584997 134.6369988  53.9730012  91.2834997 135.2629988
  54.1030012  90.5184997 133.9629988  54.4614029  90.9435004 134.6315827
  56.6430012  85.1964997 123.7739988  56.1210012  85.5534997 123.0549988
  56.6100012  85.8714997 124.4519988  56.5671634  85.3365413 123.7673145
  54.9920012  82.4364997 122.3239988  55.0880012  83.1034997 121.6439988
  54.8520012  81.6204997 121.8429988  54.9862272  82.4175655 122.1658347
  54.1610012  83.8164997 127.9449988  54.0110012  82.8714997 127.9249988
  53.8080012  84.0974997 128.7889988  54.0927448  83.7251481 128.0563705
  39.1970012  85.8944997 131.9559988  39.3810012  85.8124997 131.0199988
  40.0460012  85.7704997 132.3789988  39.3370151  85.8665073 131.8851451
  55.0180012  85.7864997 137.5839988  55.6010012  85.0524997 137.7759988
  55.5820012  86.5584997 137.6309988  55.1739769  85.7904227 137.6166159
  56.5140012  83.6894997 138.2689988  55.6510012  83.3104997 138.1029988
  57.1190012  82.9504997 138.1939988  56.4776119  83.5378268 138.2361528
  54.2390012  79.8444997 121.4419988  54.8500012  79.4734997 122.0789988
  53.4030012  79.4234997 121.6379988  54.2095032  79.7367554 121.5557035
  53.8720012  81.3994997 126.4079988  54.1520012  80.4924997 126.5319988
  54.6310012  81.8334997 126.0189988  54.0129277  81.3340942 126.3723682
  54.4840012  81.9804997 131.8439988  55.4170012  82.1924997 131.8089988
  54.2490012  82.0824997 132.7659988  54.5799244  82.0233100 131.9638892
  54.5130012  82.7174997 134.6199988  53.6700012  82.9854997 134.9859988
  54.9550012  83.5394997 134.4089988  54.4574158  82.8653291 134.6415491
  38.7940012  81.1654997 138.0969988  39.7140012  81.0434997 138.3329988
  38.3450012  80.4154997 138.4859988  38.8591580  81.0473727 138.1819006
  56.7960012  76.6974997 139.9729988  57.1460012  76.0434997 139.3679988
  56.9430012  77.5344997 139.5329988  56.8637887  76.7211548 139.8306858
  54.4850012  78.6624997 126.4559988  54.6680012  78.2134997 127.2819988
  53.8860012  78.0774997 125.9929988  54.4290202  78.5219975 126.5063275
  40.0150012  79.4774997 130.9879988  40.4610012  78.6854997 131.2899988
  40.4820012  80.1934997 131.4179988  40.1390831  79.4660685 131.0874006
  38.3190012  82.4764997 132.0569988  38.8110012  82.2554997 131.2659988
  38.6820012  83.3174997 132.3379988  38.4353126  82.5598357 131.9867531
  56.3160012  78.8064997 138.3219988  55.3980012  79.0774997 138.2869988
  56.4390012  78.2714997 137.5379988  56.2069729  78.7712508 138.2111923
  56.3520012  78.7294997 122.9839988  56.7640012  78.0084997 122.5089988
  57.0340012  79.3994997 123.0429988  56.5005885  78.7212368 122.9268915
  38.6330012  78.7344997 126.1109988  37.7080012  78.9434997 125.9819988
  39.0870012  79.2184997 125.4209988  38.5677292  78.8285343 126.0000720
  53.4040012  93.7184997 128.0569988  54.0560012  93.3714997 127.4489988
  53.9140012  94.2074997 128.7029988  53.5622637  93.7370597 128.0610236
  38.5970012  77.4724997 134.4549988  37.9320012  77.2264997 135.0989988
  38.1540012  78.0944997 133.8779988  38.4461318  77.5229410 134.4650898
  40.7890012  90.6474997 138.5999988  39.9680012  90.8224997 138.1389988
  40.5360012  90.5744997 139.5199988  40.6425585  90.6615544 138.6613561
  43.7430012  91.6224997 134.8579988  43.3180012  92.4314997 134.5759988
  44.6470012  91.7074997 134.5559988  43.8069975  91.7449300 134.7784816
  48.0540012  93.0214997 137.8179988  48.2390012  92.6874997 138.6959988
  48.9000012  93.3304997 137.4959988  48.1937539  93.0176047 137.8945605
  50.3990012  94.3074997 137.0619988  51.0760012  93.6744997 136.8219988
  50.7210012  94.7084997 137.8689988  50.5351637  94.2751154 137.1382793
  55.3160012  76.8964997 136.1409988  54.5040012  77.2214997 135.7539988
  55.5490012  76.1364997 135.6079988  55.2362203  76.8382758 136.0158880
  41.1450012  94.8784997 134.9059988  40.4240012  95.3184997 134.4549988
  40.7790012  94.6274997 135.7539988  40.9969651  94.9047242 134.9589640
  43.6120012  94.4784997 133.9359988  42.7470012  94.5504997 134.3399988
  43.5570012  95.0254997 133.1519988  43.4862085  94.5622685 133.8853362
  48.3220012  94.3664997 133.1109988  47.8660012  94.8954997 132.4569988
  48.4850012  94.9694997 133.8359988  48.2816068  94.5204607 133.1194838
  50.6500012  93.2444997 134.0559988  49.7450012  93.4094997 133.7899988
  51.0790012  94.0974997 133.9909988  50.5841324  93.3824339 134.0107976
  53.2540012  94.8144997 134.3509988  53.0720012  95.7304997 134.1409988
  53.4310012  94.4044997 133.5049988  53.2530210  94.8844822 134.2077885
  40.5590012  93.5014997 131.8159988  40.5410012  93.0764997 132.6729988
  41.3640012  93.1834997 131.4069988  40.6653529  93.4003013 131.8780946
  42.7010012  92.2114997 130.4709988  42.4820012  91.2954997 130.6409988
  43.5250012  92.3514997 130.9369988  42.7824420  92.1050520 130.5572774
  45.2380012  92.6814997 131.3199988  45.4510012  91.7934997 131.0329988
  45.3020012  92.6474997 132.2739988  45.2758232  92.5553102 131.4097397
  48.7460012  78.3454997 130.4639988  48.0720012  77.7164997 130.7199988
  49.3100012  77.8614997 129.8609988  48.7299230  78.1938744 130.4175340
  53.8890012  76.4534997 130.5769988  54.4930012  77.0004997 130.0749988
  53.0190012  76.7724997 130.3359988  53.8541208  76.5715137 130.4756886
  55.6160012  77.5914997 128.9099988  56.2280012  77.0774997 128.3829988
  55.9980012  78.4694997 128.9329988  55.7513371  77.6397866 128.8410041
  41.0730012  76.9794997 128.2859988  40.2960012  76.7454997 127.7789988
  41.6030012  76.1824997 128.2949988  41.0382330  76.8396988 128.2177742
  39.9090012  76.7774997 124.0899988  40.3480012  77.3884997 123.4979988
  39.2760012  77.3154997 124.5639988  39.8834514  76.9339257 124.0730930
  45.6520012  76.9064997 128.0999988  46.5270012  77.2944997 128.0699988
  45.5160012  76.6914997 129.0219988  45.7533695  76.9305184 128.2206440
  51.2090012  76.9364997 129.7489988  51.2850012  77.0314997 128.7989988
  50.9340012  76.0284997 129.8779988  51.1822321  76.8267867 129.6365079
  52.5620012  76.9624997 125.4409988  51.8600012  77.5774997 125.2309988
  52.1180012  76.1244997 125.5719988  52.4056450  76.9335639 125.4299000
  39.8100012  92.7254997 124.9869988  39.1250012  92.6874997 124.3199988
  39.8140012  93.6384997 125.2759988  39.7166998  92.8436733 124.9346771
  41.7700012  78.6934997 122.5319988  42.2620012  78.0634997 122.0049988
  42.3940012  78.9894997 123.1949988  41.9215688  78.6473804 122.5495482
  46.7960012  78.9864997 124.9889988  46.9740012  78.3404997 125.6719988
  46.7430012  79.8204997 125.4559988  46.8131999  79.0108009 125.1455917
  48.6750012  93.9354997 123.3849988  49.5410012  94.3014997 123.2069988
  48.4280012  93.4954997 122.5709988  48.7602392  93.9261756 123.2506289
  55.3840012  93.4984997 126.0639988  55.1890012  92.7504997 125.4989988
  55.3450012  94.2564997 125.4809988  55.3520380  93.4986099 125.9078384
  41.0310012  77.4934997 137.8039988  40.6650012  76.7284997 138.2459988
  41.9440012  77.5224997 138.0899988  41.1042736  77.3925640 137.9032502
  43.0040012  76.8444997 139.3399988  43.9020012  76.5704997 139.1549988
  42.6170012  76.1014997 139.8039988  43.0746612  76.7065914 139.3773643
  41.6280012  93.6454997 122.0129988  41.3610012  93.9324997 122.8859988
  42.4000012  93.0994997 122.1649988  41.6957488  93.6110294 122.1531050
  51.4250012  76.1764997 139.5219988  51.5020012  75.7504997 140.3759988
  52.3190012  76.1904997 139.1789988  51.5563428  76.1200879 139.5925310
  54.6010012  92.2494997 138.2139988  53.8190012  92.0634997 137.6939988
  54.5290012  93.1784997 138.4319988  54.4842274  92.3496643 138.1723018
  69.0070012  86.1354997 128.2449988  69.0960012  87.0794997 128.1129988
  68.3690012  85.8604997 127.5869988  68.9329081  86.2274830 128.1379614
  67.9400012  85.3904997 131.6639988  67.9020012  84.7444997 132.3689988
  67.6180012  84.9244997 130.8929988  67.8912333  85.2389408 131.6562978
  60.3090012  85.0054997 133.2569988  60.3500012  84.3794997 133.9799988
  61.0120012  85.6294997 133.4389988  60.4096363  85.0041196 133.3806044
  71.6460012  88.3294997 129.9649988  71.2060012  87.6094997 130.4159988
  71.6330012  89.0504997 130.5949988  71.5840226  88.3283731 130.1118494
  61.2320012  89.4554997 131.7919988  60.8630012  88.6534997 131.4219988
  62.1730012  89.2864997 131.8379988  61.3087289  89.3230153 131.7476316
  57.8420012  83.1154997 127.1849988  57.3950012  83.9614997 127.1659988
  57.2810012  82.5354997 126.6689988  57.7049900  83.1529916 127.1126801
  58.5530012  85.2774997 129.3099988  58.7660012  84.5074997 129.8379988
  59.2910012  85.3664997 128.7069988  58.6819044  85.1841968 129.3007123
  68.7580012  93.4344997 130.1769988  69.3780012  92.7574997 129.9039988
  68.5500012  93.2164997 131.0859988  68.8146726  93.3124800 130.2624812
  66.3300012  87.8234997 132.0699988  66.6340012  87.1374997 131.4749988
  67.0510012  87.9414997 132.6879988  66.4690671  87.7456305 132.0721816
  74.9930012  79.4244997 132.9309988  75.0420012  80.0344997 133.6659988
  75.4180012  79.8854997 132.2079988  75.0571746  79.5703796 132.9339175
  69.4710012  82.2174997 132.3969988  69.6130012  81.2714997 132.4179988
  69.3640012  82.4244997 131.4689988  69.4759919  82.1158246 132.2743408
  62.6250012  80.3184997 129.6699988  62.6690012  81.1784997 129.2509988
  62.1680012  79.7664997 129.0359988  62.5692240  80.3614422 129.5269864
  70.3480012  80.4494997 128.0709988  70.9940012  80.1204997 128.6949988
  70.8580012  80.9674997 127.4479988  70.5054299  80.4744450 128.0722731
  59.2460012  82.7154997 130.4319988  59.8990012  82.1654997 130.8639988
  59.2700012  82.4414997 129.5149988  59.3386683  82.6031466 130.3672123
  64.4020012  84.2654997 129.6469988  65.0180012  83.7394997 130.1569988
  63.8160012  83.6254997 129.2439988  64.4070810  84.1069208 129.6623173
  75.3840012  80.9024997 135.1659988  74.6960012  81.5604997 135.0709988
  75.4000012  80.7054997 136.1029988  75.2919540  80.9659819 135.2795990
  61.4360012  79.2364997 133.7439988  61.2170012  79.7664997 132.9779988
  60.7680012  79.4634997 134.3909988  61.3157600  79.3396906 133.7266379
  68.8050012  88.7364997 127.2879988  68.5090012  88.4144997 126.4369988
  68.4800012  89.6364997 127.3289988  68.7206371  88.8140215 127.1771801
  64.0050012  86.9124997 134.0309988  63.2650012  87.5104997 134.1349988
  64.7190012  87.4664997 133.7159988  64.0002237  87.0692831 134.0026465
  72.1120012  79.7404997 130.0509988  71.8960012  78.9744997 130.5839988
  72.7670012  80.2124997 130.5639988  72.1710632  79.6995889 130.1932861
  61.0290012  81.1284997 131.6959988  61.6430012  81.7614997 132.0689988
  61.5410012  80.6564997 131.0399988  61.1821981  81.1512267 131.6582908
  62.4120012  88.8764997 134.8179988  62.4070012  89.7564997 134.4399988
  61.5590012  88.7934997 135.2429988  62.2959464  88.9856117 134.8237907
  58.5330012  88.5474997 125.5999988  58.2610012  88.7764997 124.7119988
  58.5790012  89.3854997 126.0609988  58.5019482  88.6921318 125.5406273
  72.1580012  90.1694997 132.3129988  71.2170012  90.2274997 132.4749988
  72.4350012  91.0754997 132.1759988  72.0664679  90.2999443 132.3166815
  72.4590012  78.4554997 133.7309988  71.7230012  79.0664997 133.6929988
  73.1420012  78.8704997 133.2039988  72.4506541  78.5951374 133.6545832
  65.4620012  76.5424997 131.1959988  65.3450012  75.5934997 131.1419988
  64.6070012  76.8744997 131.4699988  65.3304212  76.4575571 131.2256497
  70.4100012  91.9504997 128.9379988  70.8360012  91.2434997 128.4529988
  70.7270012  92.7514997 128.5219988  70.5111683  91.9621017 128.8153680
  71.5700012  89.8514997 127.4469988  71.3120012  89.1614997 126.8359988
  71.6410012  89.4084997 128.2929988  71.5442856  89.6972124 127.4776885
  73.2560012  88.4174997 135.9239988  73.3960012  87.8264997 135.1849988
  73.4230012  89.2904997 135.5679988  73.2977411  88.4545428 135.7746894
  67.7290012  85.3794997 125.6969988  67.0170012  85.9144997 125.3449988
  68.4200012  85.4354997 125.0369988  67.7250132  85.4602543 125.5596289
  67.7820012  83.8374997 122.7359988  68.4830012  83.8594997 123.3869988
  68.0850012  83.2094997 122.0789988  67.9188133  83.7557070 122.7363369
  75.0980012  84.7574997 133.9899988  74.4450012  85.4524997 134.0799988
  75.5630012  84.9674997 133.1809988  75.0715274  84.8810643 133.8928462
  71.1340012  85.5894997 126.6489988  70.4020012  85.8174997 127.2219988
  71.5820012  84.8754997 127.1029988  71.0942725  85.5242145 126.7888816
  71.0320012  83.7634997 135.7159988  71.1120012  84.5264997 136.2879988
  70.4300012  84.0424997 135.0259988  70.9615756  83.9057134 135.7010589
  62.7800012  86.2194997 128.5309988  62.4490012  85.8494997 127.7129988
  63.3680012  85.5494997 128.8779988  62.8141873  86.0781156 128.4658102
  64.1460012  89.6474997 131.2119988  64.0520012  89.0694997 130.4559988
  64.8760012  89.2764997 131.7089988  64.2317387  89.5181663 131.1755342
  63.1460012  84.9884997 132.1649988  63.7120012  85.1094997 131.4019988
  63.4650012  85.6254997 132.8029988  63.2665474  85.0912219 132.1469862
  69.4550012  90.4914997 132.8989988  69.2150012  91.1534997 133.5469988
  69.2570012  89.6574997 133.3239988  69.3953808  90.4693134 133.0451524
  64.0260012  89.3874997 136.8819988  63.7150012  90.1694997 137.3369988
  63.3760012  89.2344997 136.1959988  63.8955558  89.4739105 136.8515871
  70.0050012  84.7514997 124.3339988  70.5850012  84.9014997 125.0809988
  70.4190012  85.2224997 123.6099988  70.1402997  84.8356578 124.3384058
  60.9460012  85.5854997 136.1099988  61.0170012  86.2364997 136.8089988
  60.0560012  85.6884997 135.7749988  60.8353005  85.6885427 136.1603495
  67.7320012  91.4884997 127.7689988  68.2060012  91.7834997 128.5459988
  67.1690012  92.2264997 127.5359988  67.7208184  91.6287247 127.8439628
  62.2660012  91.4594997 137.6449988  62.2730012  91.3234997 136.6979988
  61.3500012  91.3414997 137.8969988  62.1431714  91.4249430 137.5494666
  73.7040012  76.5014997 124.1469988  72.8040012  76.6404997 124.4419988
  73.9560012  77.3324997 123.7449988  73.6148702  76.6329074 124.1330205
  61.7700012  85.2894997 126.1199988  61.4780012  86.0574997 125.6299988
  61.0960012  84.6294997 125.9579988  61.6388111  85.3055587 126.0308978
  74.8930012  90.8674997 122.5229988  74.9670012  91.8064997 122.6939988
  75.7990012  90.5624997 122.4669988  75.0255100  90.9546722 122.5388119
  57.8630012  87.6524997 134.9349988  57.3620012  87.6244997 134.1199988
  57.8680012  86.7464997 135.2449988  57.7950944  87.5262396 134.8653226
  57.6130012  90.4324997 131.8189988  58.5590012  90.2884997 131.7999988
  57.5010012  91.2164997 132.3559988  57.7272727  90.5188046 131.8890072
  75.8110012  91.0984997 137.5019988  75.7620012  90.1434997 137.4649988
  74.9840012  91.3664997 137.9029988  75.6924940  91.0038998 137.5511375
  66.7900012  90.6724997 136.3779988  66.8770012  91.4984997 136.8529988
  65.9260012  90.3424997 136.6269988  66.6851964  90.7409878 136.4766549
  67.2040012  94.4444997 126.1839988  67.1290012  94.3234997 125.2369988
  67.2370012  95.3944997 126.3019988  67.1982068  94.5562646 126.0704967
  60.8570012  93.2334997 127.9649988  61.0100012  92.8854997 128.8429988
  60.0070012  92.8774997 127.7099988  60.7629166  93.1376216 128.0508079
  70.3060012  93.5984997 123.1859988  70.6810012  92.8544997 122.7149988
  70.3100012  93.3284997 124.1049988  70.3579125  93.4600986 123.2456483
  69.9750012  93.5244997 125.9349988  69.0390012  93.6244997 126.1139988
  70.2550012  92.8154997 126.5139988  69.8849553  93.4423406 126.0377087
  72.9630012  82.5914997 137.9819988  72.5560012  83.0724997 137.2609988
  73.0040012  81.6864997 137.6739988  72.9128437  82.5349374 137.8416683
  60.1120012  88.9754997 135.9789988  60.3280012  88.6144997 136.8379988
  59.2570012  88.6014997 135.7689988  60.0259292  88.8754111 136.0683386
  62.7310012  77.4454997 131.9739988  61.8690012  77.3584997 131.5659988
  62.7080012  78.3014997 132.4019988  62.6100409  77.5492883 131.9760589
  67.3940012  77.1674997 135.3489988  67.8140012  76.7524997 136.1019988
  66.4610012  76.9894997 135.4659988  67.3253644  77.0865900 135.4679539
  70.7200012  80.9234997 136.2019988  70.2060012  80.7974997 136.9999988
  70.5650012  81.8354997 135.9579988  70.6286852  81.0296132 136.2782158
  71.4830012  85.7844997 121.9639988  71.5250012  85.5614997 121.0339988
  72.3320012  86.1834997 122.1529988  71.6035280  85.8079438 121.8623554
  67.0550012  79.6604997 122.6339988  66.8020012  79.6794997 123.5569988
  66.7990012  78.7884997 122.3319988  66.9857481  79.5452558 122.7196175
  62.8220012  82.4114997 133.0689988  62.1800012  82.3704997 133.7779988
  62.8590012  83.3374997 132.8309988  62.7390664  82.5311430 133.1339219
  62.8190012  82.6324997 127.9809988  61.9260012  82.2914997 127.9219988
  63.2690012  82.2554997 127.2249988  62.7578130  82.5349631 127.8707702
  68.3540012  83.0484997 126.7979988  67.9450012  83.8634997 126.5069988
  69.0750012  82.9084997 126.1839988  68.3954537  83.1412018 126.6751342
  67.4560012  83.2234997 138.2859988  66.8940012  82.5194997 138.6069988
  68.2830012  83.1034997 138.7539988  67.4907095  83.1107883 138.3932330
  69.3590012  82.4944997 129.6119988  69.1640012  83.0994997 128.8969988
  69.5400012  81.6604997 129.1779988  69.3567614  82.4646300 129.4554405
  60.5720012  82.7314997 134.9359988  60.5340012  83.1314997 135.8049988
  60.0810012  81.9144997 135.0269988  60.5004684  82.6758069 135.0671059
  63.9380012  80.1054997 121.7349988  63.5070012  79.6604997 122.4649988
  63.2200012  80.4774997 121.2229988  63.7819438  80.0948940 121.7656799
  57.1800012  79.8474997 128.7869988  57.8110012  79.8184997 129.5059988
  57.6290012  79.4224997 128.0559988  57.3270918  79.7860836 128.7866441
  58.4540012  80.5934997 124.2109988  58.9280012  81.1844997 123.6259988
  57.7370012  81.1244997 124.5579988  58.4219341  80.7460867 124.1778836
  68.6230012  84.1324997 134.2829988  68.9460012  83.5014997 133.6399988
  68.1830012  83.5974997 134.9439988  68.6077484  83.9738387 134.2843198
  65.4000012  80.0594997 129.0669988  64.4890012  80.1164997 129.3559988
  65.9060012  79.9994997 129.8779988  65.3436899  80.0591941 129.2161184
  60.2290012  81.6884997 127.8939988  59.3390012  81.7884997 127.5539988
  60.5250012  80.8464997 127.5479988  60.1472823  81.5883545 127.8007213
  63.8820012  81.6884997 125.5509988  64.8130012  81.8174997 125.7289988
  63.6670012  82.3584997 124.9009988  63.9804247  81.7966565 125.4875747
  69.8050012  79.2944997 132.3319988  69.1290012  79.4254997 132.9959988
  69.3200012  79.1394997 131.5209988  69.6467146  79.2915157 132.3134469
  62.5560012  82.8834997 123.1169988  62.0130012  82.5034997 122.4259988
  63.3890012  83.0774997 122.6889988  62.5943631  82.8577125 122.9644501
  73.0930012  94.9664997 138.6079988  73.2930012  95.3904997 137.7739988
  73.7480012  95.3094997 139.2149988  73.2090072  95.0709857 138.5758592
  60.6910012  87.4404997 138.2159988  61.4230012  87.6944997 138.7779988
  59.9110012  87.6444997 138.7319988  60.6857073  87.5028160 138.3626151
  66.7200012  82.8474997 130.9539988  67.2850012  82.3004997 130.4069988
  66.5730012  82.3254997 131.7429988  66.7773380  82.7022259 130.9858695
  61.7220012  78.9834997 127.3729988  61.4050012  78.0814997 127.3369988
  62.5040012  78.9854997 126.8199988  61.7842408  78.8602474 127.2933569
  65.3470012  81.2354997 133.3679988  64.5110012  81.6894997 133.4789988
  65.8710012  81.5114997 134.1199988  65.3035416  81.3348660 133.4848119
  65.8910012  87.4484997 125.0529988  65.1460012  86.9414997 124.7309988
  65.7570012  87.4974997 125.9999988  65.7708776  87.3856940 125.1368647
  73.0410012  86.5814997 133.8399988  73.6830012  87.0384997 133.2959988
  72.2110012  86.6944997 133.3769988  73.0165963  86.6592704 133.7030177
  69.7890012  80.2624997 123.2519988  68.8500012  80.3744997 123.1009988
  70.0860012  81.1194997 123.5589988  69.7007583  80.3935981 123.2728337
  67.4100012  87.6324997 136.2899988  67.0650012  87.2514997 137.0969988
  67.2100012  88.5664997 136.3609988  67.3357527  87.7065135 136.4100689
  70.5070012  82.1294997 124.9129988  71.3990012  81.9924997 125.2319988
  70.5640012  82.9204997 124.3759988  70.6366504  82.2176052 124.8840818
  61.0160012  86.7434997 130.8229988  61.7610012  86.7414997 130.2219988
  61.0940012  85.9204997 131.3039988  61.1284995  86.6318887 130.8058282
  68.0170012  88.9074997 124.0789988  67.7210012  89.7334997 124.4599988
  67.3140012  88.2874997 124.2749988  67.8814914  88.9368199 124.1576443
  58.0240012  85.2044997 136.1379988  58.2470012  84.7864997 136.9699988
  57.4220012  84.5914997 135.7149988  57.9731759  85.0644668 136.1947022
  65.0400012  84.7214997 138.3509988  64.7440012  84.5554997 137.4559988
  65.9720012  84.5014997 138.3399988  65.1254166  84.6690640 138.2270536
  69.6610012  90.0944997 136.2409988  68.7600012  90.2774997 135.9729988
  69.6950012  90.3534997 137.1609988  69.5423139  90.1545849 136.3288099
  75.3920012  82.3394997 124.6079988  74.8380012  81.9434997 123.9359988
  75.4920012  83.2494997 124.3299988  75.3297059  82.4083586 124.4784401
  75.3550012  88.1394997 137.4449988  74.5040012  88.3774997 137.0779988
  75.9460012  88.1224997 136.6919988  75.3182487  88.1698258 137.2928893
  73.6870012  91.1254997 125.0729988  73.3140012  90.2994997 125.3819988
  73.9650012  90.9424997 124.1749988  73.6735222  90.9877430 124.9939473
  70.8480012  85.9334997 132.0939988  69.9190012  85.7014997 132.0669988
  71.2990012  85.1564997 131.7639988  70.7819216  85.7967238 132.0456917
  63.3910012  90.2614997 128.2269988  63.9180012  91.0344997 128.0269988
  62.5110012  90.4864997 127.9249988  63.3442031  90.3977545 128.1587912
  59.1460012  85.1234997 122.8139988  59.7620012  85.7504997 123.1939988
  58.2840012  85.4394997 123.0859988  59.1137698  85.2519430 122.9027183
  64.8180012  87.9244997 127.8029988  64.5770012  88.8494997 127.8449988
  64.0770012  87.4654997 128.1999988  64.6849225  87.9890933 127.8623742
  65.3330012  92.0734997 134.1189988  65.6950012  92.9284997 133.8849988
  65.8640012  91.7814997 134.8589988  65.4544473  92.1511060 134.1870855
  63.5010012  92.9464997 127.3489988  62.5510012  93.0514997 127.3999988
  63.8530012  93.7664997 127.6929988  63.4184195  93.0718800 127.4025502
  68.8770012  88.1724997 133.8189988  68.4510012  87.9454997 134.6459988
  69.4570012  87.4344997 133.6369988  68.8971868  88.0415299 133.9075830
  71.0800012  89.1014997 122.8929988  71.4330012  88.7214997 123.6969988
  70.1310012  89.0084997 122.9799988  71.0000918  89.0368956 123.0148532
  71.5350012  92.7244997 136.2889988  70.9340012  92.1694997 135.7929988
  71.8170012  93.3914997 135.6619988  71.4908804  92.7386625 136.1364849
  75.5830012  93.5814997 123.0939988  76.3270012  94.1674997 122.9539988
  74.8890012  94.1494997 123.4269988  75.5909899  93.7385798 123.1198778
  59.6580012  79.9574997 135.6959988  58.7650012  80.2964997 135.6279988
  59.5590012  79.1024997 136.1139988  59.5224164  79.8882588 135.7432235
  71.9460012  87.7744997 125.1199988  71.6680012  87.0464997 125.6759988
  72.8730012  87.8934997 125.3249988  72.0333124  87.6908802 125.2238845
  59.3090012  91.7624997 134.1309988  59.5260012  90.8304997 134.0999988
  59.5550012  92.0364997 135.0139988  59.3719549  91.6720636 134.2461763
  65.1710012  90.2134997 121.3399988  65.4100012  89.4654997 120.7929988
  64.9020012  89.8254997 122.1729988  65.1673675  90.0586638 121.3776865
  64.1080012  89.7834997 123.7959988  64.2540012  89.2634997 124.5859988
  64.1050012  90.6904997 124.1029988  64.1275792  89.8348842 123.9456117
  60.5610012  87.0364997 124.3069988  59.8750012  87.3884997 124.8739988
  61.0830012  87.7994997 124.0599988  60.5376852  87.1878578 124.3512118
  68.3920012  79.6984997 134.5859988  69.0910012  79.7724997 135.2359988
  68.0110012  78.8344997 134.7399988  68.4361767  79.5917624 134.6958322
  69.1770012  79.3504997 125.6829988  69.3970012  79.8224997 124.8799988
  69.7350012  79.7454997 126.3529988  69.2824968  79.4684285 125.6637331
  66.8450012  91.4814997 124.5459988  66.0290012  91.9784997 124.5979988
  67.3750012  91.9564997 123.9059988  66.8049161  91.6137722 124.4665956
  66.3770012  81.0784997 126.5179988  67.1890012  81.5834997 126.5639988
  66.1320012  80.9334997 127.4319988  66.4550520  81.1280375 126.6478517
  66.9120012  82.0644997 135.7019988  67.0310012  82.6384997 136.4599988
  67.5680012  81.3764997 135.8169988  67.0169025  82.0499858 135.8211321
  67.2600012  78.1594997 127.4559988  66.9140012  78.7774997 128.0999988
  67.9190012  78.6604997 126.9739988  67.3016968  78.3116278 127.4789383
  64.1840012  92.5254997 124.5269988  64.3440012  93.3244997 124.0269988
  63.9860012  92.8314997 125.4119988  64.1791637  92.6764020 124.5781144
  62.9180012  79.2224997 124.1429988  62.8350012  80.1114997 124.4899988
  63.8080012  78.9574997 124.3749988  63.0269469  79.3081430 124.2217626
  73.1170012  79.9714997 136.5369988  72.2000012  80.2344997 136.4499988
  73.4520012  79.9684997 135.6409988  73.0368613  80.0070761 136.4038837
  71.7190012  83.7224997 130.6329988  70.9210012  83.3074997 130.3049988
  72.1640012  83.0314997 131.1239988  71.6699885  83.5723543 130.6544889
  61.1770012  89.6504997 123.2039988  61.7690012  90.3494997 123.4799988
  61.6360012  89.2174997 122.4839988  61.3201142  89.6877049 123.1444830
  59.4930012  82.3144997 122.3199988  59.4480012  83.2534997 122.4979988
  58.6050012  82.0784997 122.0499988  59.3668574  82.4111892 122.3078912
  72.8050012  92.9784997 132.2559988  72.6500012  93.6564997 131.5979988
  73.7380012  93.0504997 132.4589988  72.9098657  93.0809546 132.1934360
  60.3010012  77.0964997 130.9929988  60.0720012  77.1554997 130.0649988
  59.8580012  76.3044997 131.2989988  60.2098530  76.9975753 130.9074786
  59.2310012  91.0364997 127.1529988  58.3990012  91.5094997 127.1799988
  59.7770012  91.5464997 126.5549988  59.1910352  91.1701332 127.0758463
  58.5190012  93.6494997 138.4829988  59.0600012  93.4324997 139.2429988
  58.0380012  92.8434997 138.2929988  58.5279951  93.5109270 138.5612576
  63.1170012  92.5684997 140.1029988  63.8840012  92.1094997 140.4439988
  63.0950012  92.3424997 139.1739988  63.2191275  92.4750186 140.0240101
  67.2090012  92.0764997 121.4789988  66.5650012  91.4454997 121.7999988
  67.9710012  91.5454997 121.2469988  67.2238077  91.9182920 121.4916011
  69.6940012  90.9484997 138.8329988  69.3430012  90.0924997 139.0759988
  70.4200012  91.0914997 139.4399988  69.7440769  90.8505636 138.9483619
  71.8130012  91.8934997 121.7119988  72.0960012  91.0994997 122.1649988
  72.5530012  92.1264997 121.1519988  71.9518006  91.8163376 121.6982715
  58.4260012  87.4594997 139.4369988  58.5700012  86.5574997 139.1509988
  57.6540012  87.7454997 138.9499988  58.3412753  87.3746816 139.3319505
  62.7680012  87.8034997 121.5699988  62.8320012  87.0094997 122.1009988
  63.4210012  87.6844997 120.8799988  62.8650241  87.6787148 121.5494317
  65.0820012  87.4294997 138.8699988  64.7530012  87.7004997 138.0129988
  65.2340012  86.4884997 138.7829988  65.0574809  87.3393862 138.7408244
  68.1200012  88.8504997 121.3059988  67.8510012  89.0304997 122.2069988
  67.9140012  87.9244997 121.1739988  68.0553427  88.7500261 121.4115073
  70.8160012  87.3454997 136.2529988  71.5620012  87.9334997 136.1339988
  70.0590012  87.9274997 136.3169988  70.8157820  87.5047143 136.2453590
  59.2590012  84.6594997 138.8569988  59.6670012  83.8024997 138.7359988
  58.9990012  84.6744997 139.7779988  59.2797568  84.5440807 138.9649588
  63.9170012  85.7754997 123.8759988  63.4570012  85.2914997 124.5619988
  64.1720012  85.1074997 123.2399988  63.8884902  85.6188731 123.8839334
  63.2060012  83.6684997 136.2319988  62.5880012  84.3434997 136.5119988
  63.5500012  83.9894997 135.3979988  63.1679132  83.8042411 136.1576262
  64.9880012  84.0184997 122.1379988  64.8080012  83.8644997 121.2109988
  65.9380012  84.1264997 122.1829988  65.0917776  84.0120175 122.0171843
  68.2260012  86.1404997 139.5089988  69.1790012  86.2234997 139.4819988
  68.0650012  85.4284997 140.1289988  68.3346426  86.0556746 139.5890579
  74.3780012  86.3734997 121.5839988  74.1040012  85.9484997 120.7709988
  74.4170012  87.3044997 121.3669988  74.3457699  86.4412484 121.4433610
  63.5450012  81.0234997 137.3139988  63.6950012  80.2944997 136.7119988
  63.5480012  81.8004997 136.7549988  63.5659302  81.0287851 137.1560692
  63.9580012  79.3934997 134.8069988  64.4940012  79.8444997 134.1549988
  63.1060012  79.2854997 134.3839988  63.9162178  79.4406390 134.6605756
  65.5400012  84.8324997 135.0459988  66.2900012  84.6764997 134.4729988
  65.2010012  85.6844997 134.7709988  65.5968921  84.9262968 134.9303561
  69.9550012  82.6474997 140.0749988  70.1480012  81.7164997 139.9629988
  70.8130012  83.0724997 140.0639988  70.0972934  82.5776531 140.0582031
  71.2720012  85.4364997 138.1519988  70.9910012  86.1454997 137.5739988
  72.2150012  85.3634997 138.0009988  71.3609291  85.5236711 138.0524967
  62.0240012  82.2214997 139.2259988  61.2570012  81.6894997 139.0149988
  62.7030012  81.9114997 138.6259988  62.0107877  82.1068300 139.1160716
  64.7640012  76.8494997 135.2379988  64.6650012  77.7964997 135.1329988
  64.0210012  76.4774997 134.7619988  64.6501184  76.9285863 135.1593621
  66.0280012  81.1714997 138.8019988  65.7920012  80.9514997 139.7029988
  65.2440012  80.9644997 138.2919988  65.8898504  81.1134586 138.8563431
  68.7430012  80.2984997 137.8769988  67.7960012  80.3304997 138.0099988
  69.0560012  79.6734997 138.5309988  68.6556707  80.2183998 137.9836060
  70.3770012  78.9324997 139.8829988  70.2810012  77.9804997 139.8769988
  70.0560012  79.2014997 140.7429988  70.3204070  78.8384035 139.9985441
  60.2040012  80.1424997 138.9299988  60.4160012  79.4354997 138.3199988
  60.0930012  79.7044997 139.7739988  60.2179721  79.9867084 138.9606843
  64.9850012  76.1434997 137.9089988  65.6970012  75.5034997 137.8949988
  64.8840012  76.4104997 136.9959988  65.0688066  76.0920079 137.7835677
  65.3390012  77.8264997 139.9629988  65.2070012  77.3504997 139.1429988
  64.7400012  78.5704997 139.9079988  65.2399071  77.8619618 139.8432886
  64.8850012  94.7094997 123.1389988  65.8180012  94.8674997 123.2829988
  64.6210012  95.3844997 122.5149988  64.9769888  94.8224510 123.0742842
  58.4540012  89.3454997 122.6219988  59.3680012  89.4244997 122.8959988
  58.4610012  88.6584997 121.9559988  58.5801131  89.2633961 122.5694393
  57.1030012  94.7384997 127.6999988  56.4560012  94.2764997 127.1669988
  57.4570012  94.0664997 128.2819988  57.0623849  94.5844723 127.7057959
  57.9730012  92.8194997 129.5039988  57.6380012  91.9394997 129.6759988
  58.1950012  93.1644997 130.3689988  57.9571783  92.7457500 129.6444208
  75.5210012  93.6284997 132.4849988  75.5000012  93.8134997 133.4239988
  76.2120012  94.1974997 132.1439988  75.6114618  93.7306606 132.5673864
  75.0850012  93.1964997 135.4069988  74.5970012  92.4604997 135.0349988
  75.6340012  92.8024997 136.0849988  75.0924820  93.0425889 135.4477813
  73.5350012  88.9854997 140.0449988  72.6690012  88.8804997 140.4389988
  73.9120012  89.7444997 140.4909988  73.4673308  89.0736900 140.1592393
  74.8360012  87.2424997 125.5589988  75.6860012  87.6634997 125.6859988
  74.8420012  86.5024997 126.1659988  74.9531372  87.2000803 125.6584344
  75.2310012  85.2954997 127.3819988  74.5040012  84.8164997 127.7799988
  75.8120012  85.5014997 128.1149988  75.2100473  85.2578103 127.5354528
  74.9900012  88.0804997 132.3299988  75.8230012  87.7024997 132.0499988
  75.1020012  89.0234997 132.2109988  75.1192647  88.1562218 132.2755487
  73.4760012  90.9584997 134.6369988  72.8290012  91.2834997 135.2629988
  72.9590012  90.5184997 133.9629988  73.3174029  90.9435004 134.6315827
  75.4990012  85.1964997 123.7739988  74.9770012  85.5534997 123.0549988
  75.4660012  85.8714997 124.4519988  75.4231634  85.3365413 123.7673145
  73.8480012  82.4364997 122.3239988  73.9440012  83.1034997 121.6439988
  73.7080012  81.6204997 121.8429988  73.8422272  82.4175655 122.1658347
  73.0170012  83.8164997 127.9449988  72.8670012  82.8714997 127.9249988
  72.6640012  84.0974997 128.7889988  72.9487448  83.7251481 128.0563705
  58.0530012  85.8944997 131.9559988  58.2370012  85.8124997 131.0199988
  58.9020012  85.7704997 132.3789988  58.1930151  85.8665073 131.8851451
  73.8740012  85.7864997 137.5839988  74.4570012  85.0524997 137.7759988
  74.4380012  86.5584997 137.6309988  74.0299769  85.7904227 137.6166159
  75.3700012  83.6894997 138.2689988  74.5070012  83.3104997 138.1029988
  75.9750012  82.9504997 138.1939988  75.3336119  83.5378268 138.2361528
  73.0950012  79.8444997 121.4419988  73.7060012  79.4734997 122.0789988
  72.2590012  79.4234997 121.6379988  73.0655032  79.7367554 121.5557035
  72.7280012  81.3994997 126.4079988  73.0080012  80.4924997 126.5319988
  73.4870012  81.8334997 126.0189988  72.8689277  81.3340942 126.3723682
  73.3400012  81.9804997 131.8439988  74.2730012  82.1924997 131.8089988
  73.1050012  82.0824997 132.7659988  73.4359244  82.0233100 131.9638892
  73.3690012  82.7174997 134.6199988  72.5260012  82.9854997 134.9859988
  73.8110012  83.5394997 134.4089988  73.3134158  82.8653291 134.6415491
  57.6500012  81.1654997 138.0969988  58.5700012  81.0434997 138.3329988
  57.2010012  80.4154997 138.4859988  57.7151580  81.0473727 138.1819006
  75.6520012  76.6974997 139.9729988  76.0020012  76.0434997 139.3679988
  75.7990012  77.5344997 139.5329988  75.7197887  76.7211548 139.8306858
  73.3410012  78.6624997 126.4559988  73.5240012  78.2134997 127.2819988
  72.7420012  78.0774997 125.9929988  73.2850202  78.5219975 126.5063275
  58.8710012  79.4774997 130.9879988  59.3170012  78.6854997 131.2899988
  59.3380012  80.1934997 131.4179988  58.9950831  79.4660685 131.0874006
  57.1750012  82.4764997 132.0569988  57.6670012  82.2554997 131.2659988
  57.5380012  83.3174997 132.3379988  57.2913126  82.5598357 131.9867531
  75.1720012  78.8064997 138.3219988  74.2540012  79.0774997 138.2869988
  75.2950012  78.2714997 137.5379988  75.0629729  78.7712508 138.2111923
  75.2080012  78.7294997 122.9839988  75.6200012  78.0084997 122.5089988
  75.8900012  79.3994997 123.0429988  75.3565885  78.7212368 122.9268915
  57.4890012  78.7344997 126.1109988  56.5640012  78.9434997 125.9819988
  57.9430012  79.2184997 125.4209988  57.4237292  78.8285343 126.0000720
  72.2600012  93.7184997 128.0569988  72.9120012  93.3714997 127.4489988
  72.7700012  94.2074997 128.7029988  72.4182637  93.7370597 128.0610236
  57.4530012  77.4724997 134.4549988  56.7880012  77.2264997 135.0989988
  57.0100012  78.0944997 133.8779988  57.3021318  77.5229410 134.4650898
  59.6450012  90.6474997 138.5999988  58.8240012  90.8224997 138.1389988
  59.3920012  90.5744997 139.5199988  59.4985585  90.6615544 138.6613561
  62.5990012  91.6224997 134.8579988  62.1740012  92.4314997 134.5759988
  63.5030012  91.7074997 134.5559988  62.6629975  91.7449300 134.7784816
  66.9100012  93.0214997 137.8179988  67.0950012  92.6874997 138.6959988
  67.7560012  93.3304997 137.4959988  67.0497539  93.0176047 137.8945605
  69.2550012  94.3074997 137.0619988  69.9320012  93.6744997 136.8219988
  69.5770012  94.7084997 137.8689988  69.3911637  94.2751154 137.1382793
  74.1720012  76.8964997 136.1409988  73.3600012  77.2214997 135.7539988
  74.4050012  76.1364997 135.6079988  74.0922203  76.8382758 136.0158880
  60.0010012  94.8784997 134.9059988  59.2800012  95.3184997 134.4549988
  59.6350012  94.6274997 135.7539988  59.8529651  94.9047242 134.9589640
  62.4680012  94.4784997 133.9359988  61.6030012  94.5504997 134.3399988
  62.4130012  95.0254997 133.1519988  62.3422085  94.5622685 133.8853362
  67.1780012  94.3664997 133.1109988  66.7220012  94.8954997 132.4569988
  67.3410012  94.9694997 133.8359988  67.1376068  94.5204607 133.1194838
  69.5060012  93.2444997 134.0559988  68.6010012  93.4094997 133.7899988
  69.9350012  94.0974997 133.9909988  69.4401324  93.3824339 134.0107976
  72.1100012  94.8144997 134.3509988  71.9280012  95.7304997 134.1409988
  72.2870012  94.4044997 133.5049988  72.1090210  94.8844822 134.2077885
  59.4150012  93.5014997 131.8159988  59.3970012  93.0764997 132.6729988
  60.2200012  93.1834997 131.4069988  59.5213529  93.4003013 131.8780946
  61.5570012  92.2114997 130.4709988  61.3380012  91.2954997 130.6409988
  62.3810012  92.3514997 130.9369988  61.6384420  92.1050520 130.5572774
  64.0940012  92.6814997 131.3199988  64.3070012  91.7934997 131.0329988
  64.1580012  92.6474997 132.2739988  64.1318232  92.5553102 131.4097397
  67.6020012  78.3454997 130.4639988  66.9280012  77.7164997 130.7199988
  68.1660012  77.8614997 129.8609988  67.5859230  78.1938744 130.4175340
  72.7450012  76.4534997 130.5769988  73.3490012  77.0004997 130.0749988
  71.8750012  76.7724997 130.3359988  72.7101208  76.5715137 130.4756886
  74.4720012  77.5914997 128.9099988  75.0840012  77.0774997 128.3829988
  74.8540012  78.4694997 128.9329988  74.6073371  77.6397866 128.8410041
  59.9290012  76.9794997 128.2859988  59.1520012  76.7454997 127.7789988
  60.4590012  76.1824997 128.2949988  59.8942330  76.8396988 128.2177742
  58.7650012  76.7774997 124.0899988  59.2040012  77.3884997 123.4979988
  58.1320012  77.3154997 124.5639988  58.7394514  76.9339257 124.0730930
  64.5080012  76.9064997 128.0999988  65.3830012  77.2944997 128.0699988
  64.3720012  76.6914997 129.0219988  64.6093695  76.9305184 128.2206440
  70.0650012  76.9364997 129.7489988  70.1410012  77.0314997 128.7989988
  69.7900012  76.0284997 129.8779988  70.0382321  76.8267867 129.6365079
  71.4180012  76.9624997 125.4409988  70.7160012  77.5774997 125.2309988
  70.9740012  76.1244997 125.5719988  71.2616450  76.9335639 125.4299000
  58.6660012  92.7254997 124.9869988  57.9810012  92.6874997 124.3199988
  58.6700012  93.6384997 125.2759988  58.5726998  92.8436733 124.9346771
  60.6260012  78.6934997 122.5319988  61.1180012  78.0634997 122.0049988
  61.2500012  78.9894997 123.1949988  60.7775688  78.6473804 122.5495482
  65.6520012  78.9864997 124.9889988  65.8300012  78.3404997 125.6719988
  65.5990012  79.8204997 125.4559988  65.6691999  79.0108009 125.1455917
  67.5310012  93.9354997 123.3849988  68.3970012  94.3014997 123.2069988
  67.2840012  93.4954997 122.5709988  67.6162392  93.9261756 123.2506289
  74.2400012  93.4984997 126.0639988  74.0450012  92.7504997 125.4989988
  74.2010012  94.2564997 125.4809988  74.2080380  93.4986099 125.9078384
  59.8870012  77.4934997 137.8039988  59.5210012  76.7284997 138.2459988
  60.8000012  77.5224997 138.0899988  59.9602736  77.3925640 137.9032502
  61.8600012  76.8444997 139.3399988  62.7580012  76.5704997 139.1549988
  61.4730012  76.1014997 139.8039988  61.9306612  76.7065914 139.3773643
  60.4840012  93.6454997 122.0129988  60.2170012  93.9324997 122.8859988
  61.2560012  93.0994997 122.1649988  60.5517488  93.6110294 122.1531050
  70.2810012  76.1764997 139.5219988  70.3580012  75.7504997 140.3759988
  71.1750012  76.1904997 139.1789988  70.4123428  76.1200879 139.5925310
  73.4570012  92.2494997 138.2139988  72.6750012  92.0634997 137.6939988
  73.3850012  93.1784997 138.4319988  73.3402274  92.3496643 138.1723018
  87.8630012  86.1354997 128.2449988  87.9520012  87.0794997 128.1129988
  87.2250012  85.8604997 127.5869988  87.7889081  86.2274830 128.1379614
  86.7960012  85.3904997 131.6639988  86.7580012  84.7444997 132.3689988
  86.4740012  84.9244997 130.8929988  86.7472333  85.2389408 131.6562978
  79.1650012  85.0054997 133.2569988  79.2060012  84.3794997 133.9799988
  79.8680012  85.6294997 133.4389988  79.2656363  85.0041196 133.3806044
  90.5020012  88.3294997 129.9649988  90.0620012  87.6094997 130.4159988
  90.4890012  89.0504997 130.5949988  90.4400226  88.3283731 130.1118494
  80.0880012  89.4554997 131.7919988  79.7190012  88.6534997 131.4219988
  81.0290012  89.2864997 131.8379988  80.1647289  89.3230153 131.7476316
  76.6980012  83.1154997 127.1849988  76.2510012  83.9614997 127.1659988
  76.1370012  82.5354997 126.6689988  76.5609900  83.1529916 127.1126801
  77.4090012  85.2774997 129.3099988  77.6220012  84.5074997 129.8379988
  78.1470012  85.3664997 128.7069988  77.5379044  85.1841968 129.3007123
  87.6140012  93.4344997 130.1769988  88.2340012  92.7574997 129.9039988
  87.4060012  93.2164997 131.0859988  87.6706726  93.3124800 130.2624812
  85.1860012  87.8234997 132.0699988  85.4900012  87.1374997 131.4749988
  85.9070012  87.9414997 132.6879988  85.3250671  87.7456305 132.0721816
  93.8490012  79.4244997 132.9309988  93.8980012  80.0344997 133.6659988
  94.2740012  79.8854997 132.2079988  93.9131746  79.5703796 132.9339175
  88.3270012  82.2174997 132.3969988  88.4690012  81.2714997 132.4179988
  88.2200012  82.4244997 131.4689988  88.3319919  82.1158246 132.2743408
  81.4810012  80.3184997 129.6699988  81.5250012  81.1784997 129.2509988
  81.0240012  79.7664997 129.0359988  81.4252240  80.3614422 129.5269864
  89.2040012  80.4494997 128.0709988  89.8500012  80.1204997 128.6949988
  89.7140012  80.9674997 127.4479988  89.3614299  80.4744450 128.0722731
  78.1020012  82.7154997 130.4319988  78.7550012  82.1654997 130.8639988
  78.1260012  82.4414997 129.5149988  78.1946683  82.6031466 130.3672123
  83.2580012  84.2654997 129.6469988  83.8740012  83.7394997 130.1569988
  82.6720012  83.6254997 129.2439988  83.2630810  84.1069208 129.6623173
  94.2400012  80.9024997 135.1659988  93.5520012  81.5604997 135.0709988
  94.2560012  80.7054997 136.1029988  94.1479540  80.9659819 135.2795990
  80.2920012  79.2364997 133.7439988  80.0730012  79.7664997 132.9779988
  79.6240012  79.4634997 134.3909988  80.1717600  79.3396906 133.7266379
  87.6610012  88.7364997 127.2879988  87.3650012  88.4144997 126.4369988
  87.3360012  89.6364997 127.3289988  87.5766371  88.8140215 127.1771801
  82.8610012  86.9124997 134.0309988  82.1210012  87.5104997 134.1349988
  83.5750012  87.4664997 133.7159988  82.8562237  87.0692831 134.0026465
  90.9680012  79.7404997 130.0509988  90.7520012  78.9744997 130.5839988
  91.6230012  80.2124997 130.5639988  91.0270632  79.6995889 130.1932861
  79.8850012  81.1284997 131.6959988  80.4990012  81.7614997 132.0689988
  80.3970012  80.6564997 131.0399988  80.0381981  81.1512267 131.6582908
  81.2680012  88.8764997 134.8179988  81.2630012  89.7564997 134.4399988
  80.4150012  88.7934997 135.2429988  81.1519464  88.9856117 134.8237907
  77.3890012  88.5474997 125.5999988  77.1170012  88.7764997 124.7119988
  77.4350012  89.3854997 126.0609988  77.3579482  88.6921318 125.5406273
  91.0140012  90.1694997 132.3129988  90.0730012  90.2274997 132.4749988
  91.2910012  91.0754997 132.1759988  90.9224679  90.2999443 132.3166815
  91.3150012  78.4554997 133.7309988  90.5790012  79.0664997 133.6929988
  91.9980012  78.8704997 133.2039988  91.3066541  78.5951374 133.6545832
  84.3180012  76.5424997 131.1959988  84.2010012  75.5934997 131.1419988
  83.4630012  76.8744997 131.4699988  84.1864212  76.4575571 131.2256497
  89.2660012  91.9504997 128.9379988  89.6920012  91.2434997 128.4529988
  89.5830012  92.7514997 128.5219988  89.3671683  91.9621017 128.8153680
  90.4260012  89.8514997 127.4469988  90.1680012  89.1614997 126.8359988
  90.4970012  89.4084997 128.2929988  90.4002856  89.6972124 127.4776885
  92.1120012  88.4174997 135.9239988  92.2520012  87.8264997 135.1849988
  92.2790012  89.2904997 135.5679988  92.1537411  88.4545428 135.7746894
  86.5850012  85.3794997 125.6969988  85.8730012  85.9144997 125.3449988
  87.2760012  85.4354997 125.0369988  86.5810132  85.4602543 125.5596289
  86.6380012  83.8374997 122.7359988  87.3390012  83.8594997 123.3869988
  86.9410012  83.2094997 122.0789988  86.7748133  83.7557070 122.7363369
  93.9540012  84.7574997 133.9899988  93.3010012  85.4524997 134.0799988
  94.4190012  84.9674997 133.1809988  93.9275274  84.8810643 133.8928462
  89.9900012  85.5894997 126.6489988  89.2580012  85.8174997 127.2219988
  90.4380012  84.8754997 127.1029988  89.9502725  85.5242145 126.7888816
  89.8880012  83.7634997 135.7159988  89.9680012  84.5264997 136.2879988
  89.2860012  84.0424997 135.0259988  89.8175756  83.9057134 135.7010589
  81.6360012  86.2194997 128.5309988  81.3050012  85.8494997 127.7129988
  82.2240012  85.5494997 128.8779988  81.6701873  86.0781156 128.4658102
  83.0020012  89.6474997 131.2119988  82.9080012  89.0694997 130.4559988
  83.7320012  89.2764997 131.7089988  83.0877387  89.5181663 131.1755342
  82.0020012  84.9884997 132.1649988  82.5680012  85.1094997 131.4019988
  82.3210012  85.6254997 132.8029988  82.1225474  85.0912219 132.1469862
  88.3110012  90.4914997 132.8989988  88.0710012  91.1534997 133.5469988
  88.1130012  89.6574997 133.3239988  88.2513808  90.4693134 133.0451524
  82.8820012  89.3874997 136.8819988  82.5710012  90.1694997 137.3369988
  82.2320012  89.2344997 136.1959988  82.7515558  89.4739105 136.8515871
  88.8610012  84.7514997 124.3339988  89.4410012  84.9014997 125.0809988
  89.2750012  85.2224997 123.6099988  88.9962997  84.8356578 124.3384058
  79.8020012  85.5854997 136.1099988  79.8730012  86.2364997 136.8089988
  78.9120012  85.6884997 135.7749988  79.6913005  85.6885427 136.1603495
  86.5880012  91.4884997 127.7689988  87.0620012  91.7834997 128.5459988
  86.0250012  92.2264997 127.5359988  86.5768184  91.6287247 127.8439628
  81.1220012  91.4594997 137.6449988  81.1290012  91.3234997 136.6979988
  80.2060012  91.3414997 137.8969988  80.9991714  91.4249430 137.5494666
  92.5600012  76.5014997 124.1469988  91.6600012  76.6404997 124.4419988
  92.8120012  77.3324997 123.7449988  92.4708702  76.6329074 124.1330205
  80.6260012  85.2894997 126.1199988  80.3340012  86.0574997 125.6299988
  79.9520012  84.6294997 125.9579988  80.4948111  85.3055587 126.0308978
  93.7490012  90.8674997 122.5229988  93.8230012  91.8064997 122.6939988
  94.6550012  90.5624997 122.4669988  93.8815100  90.9546722 122.5388119
  76.7190012  87.6524997 134.9349988  76.2180012  87.6244997 134.1199988
  76.7240012  86.7464997 135.2449988  76.6510944  87.5262396 134.8653226
  76.4690012  90.4324997 131.8189988  77.4150012  90.2884997 131.7999988
  76.3570012  91.2164997 132.3559988  76.5832727  90.5188046 131.8890072
  94.6670012  91.0984997 137.5019988  94.6180012  90.1434997 137.4649988
  93.8400012  91.3664997 137.9029988  94.5484940  91.0038998 137.5511375
  85.6460012  90.6724997 136.3779988  85.7330012  91.4984997 136.8529988
  84.7820012  90.3424997 136.6269988  85.5411964  90.7409878 136.4766549
  86.0600012  94.4444997 126.1839988  85.9850012  94.3234997 125.2369988
  86.0930012  95.3944997 126.3019988  86.0542068  94.5562646 126.0704967
  79.7130012  93.2334997 127.9649988  79.8660012  92.8854997 128.8429988
  78.8630012  92.8774997 127.7099988  79.6189166  93.1376216 128.0508079
  89.1620012  93.5984997 123.1859988  89.5370012  92.8544997 122.7149988
  89.1660012  93.3284997 124.1049988  89.2139125  93.4600986 123.2456483
  88.8310012  93.5244997 125.9349988  87.8950012  93.6244997 126.1139988
  89.1110012  92.8154997 126.5139988  88.7409553  93.4423406 126.0377087
  91.8190012  82.5914997 137.9819988  91.4120012  83.0724997 137.2609988
  91.8600012  81.6864997 137.6739988  91.7688437  82.5349374 137.8416683
  78.9680012  88.9754997 135.9789988  79.1840012  88.6144997 136.8379988
  78.1130012  88.6014997 135.7689988  78.8819292  88.8754111 136.0683386
  81.5870012  77.4454997 131.9739988  80.7250012  77.3584997 131.5659988
  81.5640012  78.3014997 132.4019988  81.4660409  77.5492883 131.9760589
  86.2500012  77.1674997 135.3489988  86.6700012  76.7524997 136.1019988
  85.3170012  76.9894997 135.4659988  86.1813644  77.0865900 135.4679539
  89.5760012  80.9234997 136.2019988  89.0620012  80.7974997 136.9999988
  89.4210012  81.8354997 135.9579988  89.4846852  81.0296132 136.2782158
  90.3390012  85.7844997 121.9639988  90.3810012  85.5614997 121.0339988
  91.1880012  86.1834997 122.1529988  90.4595280  85.8079438 121.8623554
  85.9110012  79.6604997 122.6339988  85.6580012  79.6794997 123.5569988
  85.6550012  78.7884997 122.3319988  85.8417481  79.5452558 122.7196175
  81.6780012  82.4114997 133.0689988  81.0360012  82.3704997 133.7779988
  81.7150012  83.3374997 132.8309988  81.5950664  82.5311430 133.1339219
  81.6750012  82.6324997 127.9809988  80.7820012  82.2914997 127.9219988
  82.1250012  82.2554997 127.2249988  81.6138130  82.5349631 127.8707702
  87.2100012  83.0484997 126.7979988  86.8010012  83.8634997 126.5069988
  87.9310012  82.9084997 126.1839988  87.2514537  83.1412018 126.6751342
  86.3120012  83.2234997 138.2859988  85.7500012  82.5194997 138.6069988
  87.1390012  83.1034997 138.7539988  86.3467095  83.1107883 138.3932330
  88.2150012  82.4944997 129.6119988  88.0200012  83.0994997 128.8969988
  88.3960012  81.6604997 129.1779988  88.2127614  82.4646300 129.4554405
  79.4280012  82.7314997 134.9359988  79.3900012  83.1314997 135.8049988
  78.9370012  81.9144997 135.0269988  79.3564684  82.6758069 135.0671059
  82.7940012  80.1054997 121.7349988  82.3630012  79.6604997 122.4649988
  82.0760012  80.4774997 121.2229988  82.6379438  80.0948940 121.7656799
  76.0360012  79.8474997 128.7869988  76.6670012  79.8184997 129.5059988
  76.4850012  79.4224997 128.0559988  76.1830918  79.7860836 128.7866441
  77.3100012  80.5934997 124.2109988  77.7840012  81.1844997 123.6259988
  76.5930012  81.1244997 124.5579988  77.2779341  80.7460867 124.1778836
  87.4790012  84.1324997 134.2829988  87.8020012  83.5014997 133.6399988
  87.0390012  83.5974997 134.9439988  87.4637484  83.9738387 134.2843198
  84.2560012  80.0594997 129.0669988  83.3450012  80.1164997 129.3559988
  84.7620012  79.9994997 129.8779988  84.1996899  80.0591941 129.2161184
  79.0850012  81.6884997 127.8939988  78.1950012  81.7884997 127.5539988
  79.3810012  80.8464997 127.5479988  79.0032823  81.5883545 127.8007213
  82.7380012  81.6884997 125.5509988  83.6690012  81.8174997 125.7289988
  82.5230012  82.3584997 124.9009988  82.8364247  81.7966565 125.4875747
  88.6610012  79.2944997 132.3319988  87.9850012  79.4254997 132.9959988
  88.1760012  79.1394997 131.5209988  88.5027146  79.2915157 132.3134469
  81.4120012  82.8834997 123.1169988  80.8690012  82.5034997 122.4259988
  82.2450012  83.0774997 122.6889988  81.4503631  82.8577125 122.9644501
  91.9490012  94.9664997 138.6079988  92.1490012  95.3904997 137.7739988
  92.6040012  95.3094997 139.2149988  92.0650072  95.0709857 138.5758592
  79.5470012  87.4404997 138.2159988  80.2790012  87.6944997 138.7779988
  78.7670012  87.6444997 138.7319988  79.5417073  87.5028160 138.3626151
  85.5760012  82.8474997 130.9539988  86.1410012  82.3004997 130.4069988
  85.4290012  82.3254997 131.7429988  85.6333380  82.7022259 130.9858695
  80.5780012  78.9834997 127.3729988  80.2610012  78.0814997 127.3369988
  81.3600012  78.9854997 126.8199988  80.6402408  78.8602474 127.2933569
  84.2030012  81.2354997 133.3679988  83.3670012  81.6894997 133.4789988
  84.7270012  81.5114997 134.1199988  84.1595416  81.3348660 133.4848119
  84.7470012  87.4484997 125.0529988  84.0020012  86.9414997 124.7309988
  84.6130012  87.4974997 125.9999988  84.6268776  87.3856940 125.1368647
  91.8970012  86.5814997 133.8399988  92.5390012  87.0384997 133.2959988
  91.0670012  86.6944997 133.3769988  91.8725963  86.6592704 133.7030177
  88.6450012  80.2624997 123.2519988  87.7060012  80.3744997 123.1009988
  88.9420012  81.1194997 123.5589988  88.5567583  80.3935981 123.2728337
  86.2660012  87.6324997 136.2899988  85.9210012  87.2514997 137.0969988
  86.0660012  88.5664997 136.3609988  86.1917527  87.7065135 136.4100689
  89.3630012  82.1294997 124.9129988  90.2550012  81.9924997 125.2319988
  89.4200012  82.9204997 124.3759988  89.4926504  82.2176052 124.8840818
  79.8720012  86.7434997 130.8229988  80.6170012  86.7414997 130.2219988
  79.9500012  85.9204997 131.3039988  79.9844995  86.6318887 130.8058282
  86.8730012  88.9074997 124.0789988  86.5770012  89.7334997 124.4599988
  86.1700012  88.2874997 124.2749988  86.7374914  88.9368199 124.1576443
  76.8800012  85.2044997 136.1379988  77.1030012  84.7864997 136.9699988
  76.2780012  84.5914997 135.7149988  76.8291759  85.0644668 136.1947022
  83.8960012  84.7214997 138.3509988  83.6000012  84.5554997 137.4559988
  84.8280012  84.5014997 138.3399988  83.9814166  84.6690640 138.2270536
  88.5170012  90.0944997 136.2409988  87.6160012  90.2774997 135.9729988
  88.5510012  90.3534997 137.1609988  88.3983139  90.1545849 136.3288099
  94.2480012  82.3394997 124.6079988  93.6940012  81.9434997 123.9359988
  94.3480012  83.2494997 124.3299988  94.1857059  82.4083586 124.4784401
  94.2110012  88.1394997 137.4449988  93.3600012  88.3774997 137.0779988
  94.8020012  88.1224997 136.6919988  94.1742487  88.1698258 137.2928893
  92.5430012  91.1254997 125.0729988  92.1700012  90.2994997 125.3819988
  92.8210012  90.9424997 124.1749988  92.5295222  90.9877430 124.9939473
  89.7040012  85.9334997 132.0939988  88.7750012  85.7014997 132.0669988
  90.1550012  85.1564997 131.7639988  89.6379216  85.7967238 132.0456917
  82.2470012  90.2614997 128.2269988  82.7740012  91.0344997 128.0269988
  81.3670012  90.4864997 127.9249988  82.2002031  90.3977545 128.1587912
  78.0020012  85.1234997 122.8139988  78.6180012  85.7504997 123.1939988
  77.1400012  85.4394997 123.0859988  77.9697698  85.2519430 122.9027183
  83.6740012  87.9244997 127.8029988  83.4330012  88.8494997 127.8449988
  82.9330012  87.4654997 128.1999988  83.5409225  87.9890933 127.8623742
  84.1890012  92.0734997 134.1189988  84.5510012  92.9284997 133.8849988
  84.7200012  91.7814997 134.8589988  84.3104473  92.1511060 134.1870855
  82.3570012  92.9464997 127.3489988  81.4070012  93.0514997 127.3999988
  82.7090012  93.7664997 127.6929988  82.2744195  93.0718800 127.4025502
  87.7330012  88.1724997 133.8189988  87.3070012  87.9454997 134.6459988
  88.3130012  87.4344997 133.6369988  87.7531868  88.0415299 133.9075830
  89.9360012  89.1014997 122.8929988  90.2890012  88.7214997 123.6969988
  88.9870012  89.0084997 122.9799988  89.8560918  89.0368956 123.0148532
  90.3910012  92.7244997 136.2889988  89.7900012  92.1694997 135.7929988
  90.6730012  93.3914997 135.6619988  90.3468804  92.7386625 136.1364849
  94.4390012  93.5814997 123.0939988  95.1830012  94.1674997 122.9539988
  93.7450012  94.1494997 123.4269988  94.4469899  93.7385798 123.1198778
  78.5140012  79.9574997 135.6959988  77.6210012  80.2964997 135.6279988
  78.4150012  79.1024997 136.1139988  78.3784164  79.8882588 135.7432235
  90.8020012  87.7744997 125.1199988  90.5240012  87.0464997 125.6759988
  91.7290012  87.8934997 125.3249988  90.8893124  87.6908802 125.2238845
  78.1650012  91.7624997 134.1309988  78.3820012  90.8304997 134.0999988
  78.4110012  92.0364997 135.0139988  78.2279549  91.6720636 134.2461763
  84.0270012  90.2134997 121.3399988  84.2660012  89.4654997 120.7929988
  83.7580012  89.8254997 122.1729988  84.0233675  90.0586638 121.3776865
  82.9640012  89.7834997 123.7959988  83.1100012  89.2634997 124.5859988
  82.9610012  90.6904997 124.1029988  82.9835792  89.8348842 123.9456117
  79.4170012  87.0364997 124.3069988  78.7310012  87.3884997 124.8739988
  79.9390012  87.7994997 124.0599988  79.3936852  87.1878578 124.3512118
  87.2480012  79.6984997 134.5859988  87.9470012  79.7724997 135.2359988
  86.8670012  78.8344997 134.7399988  87.2921767  79.5917624 134.6958322
  88.0330012  79.3504997 125.6829988  88.2530012  79.8224997 124.8799988
  88.5910012  79.7454997 126.3529988  88.1384968  79.4684285 125.6637331
  85.7010012  91.4814997 124.5459988  84.8850012  91.9784997 124.5979988
  86.2310012  91.9564997 123.9059988  85.6609161  91.6137722 124.4665956
  85.2330012  81.0784997 126.5179988  86.0450012  81.5834997 126.5639988
  84.9880012  80.9334997 127.4319988  85.3110520  81.1280375 126.6478517
  85.7680012  82.0644997 135.7019988  85.8870012  82.6384997 136.4599988
  86.4240012  81.3764997 135.8169988  85.8729025  82.0499858 135.8211321
  86.1160012  78.1594997 127.4559988  85.7700012  78.7774997 128.0999988
  86.7750012  78.6604997 126.9739988  86.1576968  78.3116278 127.4789383
  83.0400012  92.5254997 124.5269988  83.2000012  93.3244997 124.0269988
  82.8420012  92.8314997 125.4119988  83.0351637  92.6764020 124.5781144
  81.7740012  79.2224997 124.1429988  81.6910012  80.1114997 124.4899988
  82.6640012  78.9574997 124.3749988  81.8829469  79.3081430 124.2217626
  91.9730012  79.9714997 136.5369988  91.0560012  80.2344997 136.4499988
  92.3080012  79.9684997 135.6409988  91.8928613  80.0070761 136.4038837
  90.5750012  83.7224997 130.6329988  89.7770012  83.3074997 130.3049988
  91.0200012  83.0314997 131.1239988  90.5259885  83.5723543 130.6544889
  80.0330012  89.6504997 123.2039988  80.6250012  90.3494997 123.4799988
  80.4920012  89.2174997 122.4839988  80.1761142  89.6877049 123.1444830
  78.3490012  82.3144997 122.3199988  78.3040012  83.2534997 122.4979988
  77.4610012  82.0784997 122.0499988  78.2228574  82.4111892 122.3078912
  91.6610012  92.9784997 132.2559988  91.5060012  93.6564997 131.5979988
  92.5940012  93.0504997 132.4589988  91.7658657  93.0809546 132.1934360
  79.1570012  77.0964997 130.9929988  78.9280012  77.1554997 130.0649988
  78.7140012  76.3044997 131.2989988  79.0658530  76.9975753 130.9074786
  78.0870012  91.0364997 127.1529988  77.2550012  91.5094997 127.1799988
  78.6330012  91.5464997 126.5549988  78.0470352  91.1701332 127.0758463
  77.3750012  93.6494997 138.4829988  77.9160012  93.4324997 139.2429988
  76.8940012  92.8434997 138.2929988  77.3839951  93.5109270 138.5612576
  81.9730012  92.5684997 140.1029988  82.7400012  92.1094997 140.4439988
  81.9510012  92.3424997 139.1739988  82.0751275  92.4750186 140.0240101
  86.0650012  92.0764997 121.4789988  85.4210012  91.4454997 121.7999988
  86.8270012  91.5454997 121.2469988  86.0798077  91.9182920 121.4916011
  88.5500012  90.9484997 138.8329988  88.1990012  90.0924997 139.0759988
  89.2760012  91.0914997 139.4399988  88.6000769  90.8505636 138.9483619
  90.6690012  91.8934997 121.7119988  90.9520012  91.0994997 122.1649988
  91.4090012  92.1264997 121.1519988  90.8078006  91.8163376 121.6982715
  77.2820012  87.4594997 139.4369988  77.4260012  86.5574997 139.1509988
  76.5100012  87.7454997 138.9499988  77.1972753  87.3746816 139.3319505
  81.6240012  87.8034997 121.5699988  81.6880012  87.0094997 122.1009988
  82.2770012  87.6844997 120.8799988  81.7210241  87.6787148 121.5494317
  83.9380012  87.4294997 138.8699988  83.6090012  87.7004997 138.0129988
  84.0900012  86.4884997 138.7829988  83.9134809  87.3393862 138.7408244
  86.9760012  88.8504997 121.3059988  86.7070012  89.0304997 122.2069988
  86.7700012  87.9244997 121.1739988  86.9113427  88.7500261 121.4115073
  89.6720012  87.3454997 136.2529988  90.4180012  87.9334997 136.1339988
  88.9150012  87.9274997 136.3169988  89.6717820  87.5047143 136.2453590
  78.1150012  84.6594997 138.8569988  78.5230012  83.8024997 138.7359988
  77.8550012  84.6744997 139.7779988  78.1357568  84.5440807 138.9649588
  82.7730012  85.7754997 123.8759988  82.3130012  85.2914997 124.5619988
  83.0280012  85.1074997 123.2399988  82.7444902  85.6188731 123.8839334
  82.0620012  83.6684997 136.2319988  81.4440012  84.3434997 136.5119988
  82.4060012  83.9894997 135.3979988  82.0239132  83.8042411 136.1576262
  83.8440012  84.0184997 122.1379988  83.6640012  83.8644997 121.2109988
  84.7940012  84.1264997 122.1829988  83.9477776  84.0120175 122.0171843
  87.0820012  86.1404997 139.5089988  88.0350012  86.2234997 139.4819988
  86.9210012  85.4284997 140.1289988  87.1906426  86.0556746 139.5890579
  93.2340012  86.3734997 121.5839988  92.9600012  85.9484997 120.7709988
  93.2730012  87.3044997 121.3669988  93.2017699  86.4412484 121.4433610
  82.4010012  81.0234997 137.3139988  82.5510012  80.2944997 136.7119988
  82.4040012  81.8004997 136.7549988  82.4219302  81.0287851 137.1560692
  82.8140012  79.3934997 134.8069988  83.3500012  79.8444997 134.1549988
  81.9620012  79.2854997 134.3839988  82.7722178  79.4406390 134.6605756
  84.3960012  84.8324997 135.0459988  85.1460012  84.6764997 134.4729988
  84.0570012  85.6844997 134.7709988  84.4528921  84.9262968 134.9303561
  88.8110012  82.6474997 140.0749988  89.0040012  81.7164997 139.9629988
  89.6690012  83.0724997 140.0639988  88.9532934  82.5776531 140.0582031
  90.1280012  85.4364997 138.1519988  89.8470012  86.1454997 137.5739988
  91.0710012  85.3634997 138.0009988  90.2169291  85.5236711 138.0524967
  80.8800012  82.2214997 139.2259988  80.1130012  81.6894997 139.0149988
  81.5590012  81.9114997 138.6259988  80.8667877  82.1068300 139.1160716
  83.6200012  76.8494997 135.2379988  83.5210012  77.7964997 135.1329988
  82.8770012  76.4774997 134.7619988  83.5061184  76.9285863 135.1593621
  84.8840012  81.1714997 138.8019988  84.6480012  80.9514997 139.7029988
  84.1000012  80.9644997 138.2919988  84.7458504  81.1134586 138.8563431
  87.5990012  80.2984997 137.8769988  86.6520012  80.3304997 138.0099988
  87.9120012  79.6734997 138.5309988  87.5116707  80.2183998 137.9836060
  89.2330012  78.9324997 139.8829988  89.1370012  77.9804997 139.8769988
  88.9120012  79.2014997 140.7429988  89.1764070  78.8384035 139.9985441
  79.0600012  80.1424997 138.9299988  79.2720012  79.4354997 138.3199988
  78.9490012  79.7044997 139.7739988  79.0739721  79.9867084 138.9606843
  83.8410012  76.1434997 137.9089988  84.5530012  75.5034997 137.8949988
  83.7400012  76.4104997 136.9959988  83.9248066  76.0920079 137.7835677
  84.1950012  77.8264997 139.9629988  84.0630012  77.3504997 139.1429988
  83.5960012  78.5704997 139.9079988  84.0959071  77.8619618 139.8432886
  83.7410012  94.7094997 123.1389988  84.6740012  94.8674997 123.2829988
  83.4770012  95.3844997 122.5149988  83.8329888  94.8224510 123.0742842
  77.3100012  89.3454997 122.6219988  78.2240012  89.4244997 122.8959988
  77.3170012  88.6584997 121.9559988  77.4361131  89.2633961 122.5694393
  75.9590012  94.7384997 127.6999988  75.3120012  94.2764997 127.1669988
  76.3130012  94.0664997 128.2819988  75.9183849  94.5844723 127.7057959
  76.8290012  92.8194997 129.5039988  76.4940012  91.9394997 129.6759988
  77.0510012  93.1644997 130.3689988  76.8131783  92.7457500 129.6444208
  94.3770012  93.6284997 132.4849988  94.3560012  93.8134997 133.4239988
  95.0680012  94.1974997 132.1439988  94.4674618  93.7306606 132.5673864
  93.9410012  93.1964997 135.4069988  93.4530012  92.4604997 135.0349988
  94.4900012  92.8024997 136.0849988  93.9484820  93.0425889 135.4477813
  92.3910012  88.9854997 140.0449988  91.5250012  88.8804997 140.4389988
  92.7680012  89.7444997 140.4909988  92.3233308  89.0736900 140.1592393
  93.6920012  87.2424997 125.5589988  94.5420012  87.6634997 125.6859988
  93.6980012  86.5024997 126.1659988  93.8091372  87.2000803 125.6584344
  94.0870012  85.2954997 127.3819988  93.3600012  84.8164997 127.7799988
  94.6680012  85.5014997 128.1149988  94.0660473  85.2578103 127.5354528
  93.8460012  88.0804997 132.3299988  94.6790012  87.7024997 132.0499988
  93.9580012  89.0234997 132.2109988  93.9752647  88.1562218 132.2755487
  92.3320012  90.9584997 134.6369988  91.6850012  91.2834997 135.2629988
  91.8150012  90.5184997 133.9629988  92.1734029  90.9435004 134.6315827
  94.3550012  85.1964997 123.7739988  93.8330012  85.5534997 123.0549988
  94.3220012  85.8714997 124.4519988  94.2791634  85.3365413 123.7673145
  92.7040012  82.4364997 122.3239988  92.8000012  83.1034997 121.6439988
  92.5640012  81.6204997 121.8429988  92.6982272  82.4175655 122.1658347
  91.8730012  83.8164997 127.9449988  91.7230012  82.8714997 127.9249988
  91.5200012  84.0974997 128.7889988  91.8047448  83.7251481 128.0563705
  76.9090012  85.8944997 131.9559988  77.0930012  85.8124997 131.0199988
  77.7580012  85.7704997 132.3789988  77.0490151  85.8665073 131.8851451
  92.7300012  85.7864997 137.5839988  93.3130012  85.0524997 137.7759988
  93.2940012  86.5584997 137.6309988  92.8859769  85.7904227 137.6166159
  94.2260012  83.6894997 138.2689988  93.3630012  83.3104997 138.1029988
  94.8310012  82.9504997 138.1939988  94.1896119  83.5378268 138.2361528
  91.9510012  79.8444997 121.4419988  92.5620012  79.4734997 122.0789988
  91.1150012  79.4234997 121.6379988  91.9215032  79.7367554 121.5557035
  91.5840012  81.3994997 126.4079988  91.8640012  80.4924997 126.5319988
  92.3430012  81.8334997 126.0189988  91.7249277  81.3340942 126.3723682
  92.1960012  81.9804997 131.8439988  93.1290012  82.1924997 131.8089988
  91.9610012  82.0824997 132.7659988  92.2919244  82.0233100 131.9638892
  92.2250012  82.7174997 134.6199988  91.3820012  82.9854997 134.9859988
  92.6670012  83.5394997 134.4089988  92.1694158  82.8653291 134.6415491
  76.5060012  81.1654997 138.0969988  77.4260012  81.0434997 138.3329988
  76.0570012  80.4154997 138.4859988  76.5711580  81.0473727 138.1819006
  94.5080012  76.6974997 139.9729988  94.8580012  76.0434997 139.3679988
  94.6550012  77.5344997 139.5329988  94.5757887  76.7211548 139.8306858
  92.1970012  78.6624997 126.4559988  92.3800012  78.2134997 127.2819988
  91.5980012  78.0774997 125.9929988  92.1410202  78.5219975 126.5063275
  77.7270012  79.4774997 130.9879988  78.1730012  78.6854997 131.2899988
  78.1940012  80.1934997 131.4179988  77.8510831  79.4660685 131.0874006
  76.0310012  82.4764997 132.0569988  76.5230012  82.2554997 131.2659988
  76.3940012  83.3174997 132.3379988  76.1473126  82.5598357 131.9867531
  94.0280012  78.8064997 138.3219988  93.1100012  79.0774997 138.2869988
  94.1510012  78.2714997 137.5379988  93.9189730  78.7712508 138.2111923
  94.0640012  78.7294997 122.9839988  94.4760012  78.0084997 122.5089988
  94.7460012  79.3994997 123.0429988  94.2125885  78.7212368 122.9268915
  76.3450012  78.7344997 126.1109988  75.4200012  78.9434997 125.9819988
  76.7990012  79.2184997 125.4209988  76.2797292  78.8285343 126.0000720
  91.1160012  93.7184997 128.0569988  91.7680012  93.3714997 127.4489988
  91.6260012  94.2074997 128.7029988  91.2742637  93.7370597 128.0610236
  76.3090012  77.4724997 134.4549988  75.6440012  77.2264997 135.0989988
  75.8660012  78.0944997 133.8779988  76.1581318  77.5229410 134.4650898
  78.5010012  90.6474997 138.5999988  77.6800012  90.8224997 138.1389988
  78.2480012  90.5744997 139.5199988  78.3545585  90.6615544 138.6613561
  81.4550012  91.6224997 134.8579988  81.0300012  92.4314997 134.5759988
  82.3590012  91.7074997 134.5559988  81.5189975  91.7449300 134.7784816
  85.7660012  93.0214997 137.8179988  85.9510012  92.6874997 138.6959988
  86.6120012  93.3304997 137.4959988  85.9057539  93.0176047 137.8945605
  88.1110012  94.3074997 137.0619988  88.7880012  93.6744997 136.8219988
  88.4330012  94.7084997 137.8689988  88.2471637  94.2751154 137.1382793
  93.0280012  76.8964997 136.1409988  92.2160012  77.2214997 135.7539988
  93.2610012  76.1364997 135.6079988  92.9482203  76.8382758 136.0158880
  78.8570012  94.8784997 134.9059988  78.1360012  95.3184997 134.4549988
  78.4910012  94.6274997 135.7539988  78.7089651  94.9047242 134.9589640
  81.3240012  94.4784997 133.9359988  80.4590012  94.5504997 134.3399988
  81.2690012  95.0254997 133.1519988  81.1982085  94.5622685 133.8853362
  86.0340012  94.3664997 133.1109988  85.5780012  94.8954997 132.4569988
  86.1970012  94.9694997 133.8359988  85.9936068  94.5204607 133.1194838
  88.3620012  93.2444997 134.0559988  87.4570012  93.4094997 133.7899988
  88.7910012  94.0974997 133.9909988  88.2961324  93.3824339 134.0107976
  90.9660012  94.8144997 134.3509988  90.7840012  95.7304997 134.1409988
  91.1430012  94.4044997 133.5049988  90.9650210  94.8844822 134.2077885
  78.2710012  93.5014997 131.8159988  78.2530012  93.0764997 132.6729988
  79.0760012  93.1834997 131.4069988  78.3773529  93.4003013 131.8780946
  80.4130012  92.2114997 130.4709988  80.1940012  91.2954997 130.6409988
  81.2370012  92.3514997 130.9369988  80.4944420  92.1050520 130.5572774
  82.9500012  92.6814997 131.3199988  83.1630012  91.7934997 131.0329988
  83.0140012  92.6474997 132.2739988  82.9878232  92.5553102 131.4097397
  86.4580012  78.3454997 130.4639988  85.7840012  77.7164997 130.7199988
  87.0220012  77.8614997 129.8609988  86.4419230  78.1938744 130.4175340
  91.6010012  76.4534997 130.5769988  92.2050012  77.0004997 130.0749988
  90.7310012  76.7724997 130.3359988  91.5661208  76.5715137 130.4756886
  93.3280012  77.5914997 128.9099988  93.9400012  77.0774997 128.3829988
  93.7100012  78.4694997 128.9329988  93.4633371  77.6397866 128.8410041
  78.7850012  76.9794997 128.2859988  78.0080012  76.7454997 127.7789988
  79.3150012  76.1824997 128.2949988  78.7502330  76.8396988 128.2177742
  77.6210012  76.7774997 124.0899988  78.0600012  77.3884997 123.4979988
  76.9880012  77.3154997 124.5639988  77.5954514  76.9339257 124.0730930
  83.3640012  76.9064997 128.0999988  84.2390012  77.2944997 128.0699988
  83.2280012  76.6914997 129.0219988  83.4653695  76.9305184 128.2206440
  88.9210012  76.9364997 129.7489988  88.9970012  77.0314997 128.7989988
  88.6460012  76.0284997 129.8779988  88.8942321  76.8267867 129.6365079
  90.2740012  76.9624997 125.4409988  89.5720012  77.5774997 125.2309988
  89.8300012  76.1244997 125.5719988  90.1176450  76.9335639 125.4299000
  77.5220012  92.7254997 124.9869988  76.8370012  92.6874997 124.3199988
  77.5260012  93.6384997 125.2759988  77.4286998  92.8436733 124.9346771
  79.4820012  78.6934997 122.5319988  79.9740012  78.0634997 122.0049988
  80.1060012  78.9894997 123.1949988  79.6335688  78.6473804 122.5495482
  84.5080012  78.9864997 124.9889988  84.6860012  78.3404997 125.6719988
  84.4550012  79.8204997 125.4559988  84.5251999  79.0108009 125.1455917
  86.3870012  93.9354997 123.3849988  87.2530012  94.3014997 123.2069988
  86.1400012  93.4954997 122.5709988  86.4722392  93.9261756 123.2506289
  93.0960012  93.4984997 126.0639988  92.9010012  92.7504997 125.4989988
  93.0570012  94.2564997 125.4809988  93.0640380  93.4986099 125.9078384
  78.7430012  77.4934997 137.8039988  78.3770012  76.7284997 138.2459988
  79.6560012  77.5224997 138.0899988  78.8162736  77.3925640 137.9032502
  80.7160012  76.8444997 139.3399988  81.6140012  76.5704997 139.1549988
  80.3290012  76.1014997 139.8039988  80.7866612  76.7065914 139.3773643
  79.3400012  93.6454997 122.0129988  79.0730012  93.9324997 122.8859988
  80.1120012  93.0994997 122.1649988  79.4077488  93.6110294 122.1531050
  89.1370012  76.1764997 139.5219988  89.2140012  75.7504997 140.3759988
  90.0310012  76.1904997 139.1789988  89.2683428  76.1200879 139.5925310
  92.3130012  92.2494997 138.2139988  91.5310012  92.0634997 137.6939988
  92.2410012  93.1784997 138.4319988  92.1962274  92.3496643 138.1723018
 106.7190012  86.1354997 128.2449988 106.8080012  87.0794997 128.1129988
 106.0810012  85.8604997 127.5869988 106.6449081  86.2274830 128.1379614
 105.6520012  85.3904997 131.6639988 105.6140012  84.7444997 132.3689988
 105.3300012  84.9244997 130.8929988 105.6032333  85.2389408 131.6562978
  98.0210012  85.0054997 133.2569988  98.0620012  84.3794997 133.9799988
  98.7240012  85.6294997 133.4389988  98.1216363  85.0041196 133.3806044
 109.3580012  88.3294997 129.9649988 108.9180012  87.6094997 130.4159988
 109.3450012  89.0504997 130.5949988 109.2960226  88.3283731 130.1118494
  98.9440012  89.4554997 131.7919988  98.5750012  88.6534997 131.4219988
  99.8850012  89.2864997 131.8379988  99.0207289  89.3230153 131.7476316
  95.5540012  83.1154997 127.1849988  95.1070012  83.9614997 127.1659988
  94.9930012  82.5354997 126.6689988  95.4169900  83.1529916 127.1126801
  96.2650012  85.2774997 129.3099988  96.4780012  84.5074997 129.8379988
  97.0030012  85.3664997 128.7069988  96.3939044  85.1841968 129.3007123
 106.4700012  93.4344997 130.1769988 107.0900012  92.7574997 129.9039988
 106.2620012  93.2164997 131.0859988 106.5266726  93.3124800 130.2624812
 104.0420012  87.8234997 132.0699988 104.3460012  87.1374997 131.4749988
 104.7630012  87.9414997 132.6879988 104.1810671  87.7456305 132.0721816
 112.7050012  79.4244997 132.9309988 112.7540012  80.0344997 133.6659988
 113.1300012  79.8854997 132.2079988 112.7691746  79.5703796 132.9339175
 107.1830012  82.2174997 132.3969988 107.3250012  81.2714997 132.4179988
 107.0760012  82.4244997 131.4689988 107.1879919  82.1158246 132.2743408
 100.3370012  80.3184997 129.6699988 100.3810012  81.1784997 129.2509988
  99.8800012  79.7664997 129.0359988 100.2812240  80.3614422 129.5269864
 108.0600012  80.4494997 128.0709988 108.7060012  80.1204997 128.6949988
 108.5700012  80.9674997 127.4479988 108.2174299  80.4744450 128.0722731
  96.9580012  82.7154997 130.4319988  97.6110012  82.1654997 130.8639988
  96.9820012  82.4414997 129.5149988  97.0506683  82.6031466 130.3672123
 102.1140012  84.2654997 129.6469988 102.7300012  83.7394997 130.1569988
 101.5280012  83.6254997 129.2439988 102.1190810  84.1069208 129.6623173
 113.0960012  80.9024997 135.1659988 112.4080012  81.5604997 135.0709988
 113.1120012  80.7054997 136.1029988 113.0039540  80.9659819 135.2795990
  99.1480012  79.2364997 133.7439988  98.9290012  79.7664997 132.9779988
  98.4800012  79.4634997 134.3909988  99.0277600  79.3396906 133.7266379
 106.5170012  88.7364997 127.2879988 106.2210012  88.4144997 126.4369988
 106.1920012  89.6364997 127.3289988 106.4326371  88.8140215 127.1771801
 101.7170012  86.9124997 134.0309988 100.9770012  87.5104997 134.1349988
 102.4310012  87.4664997 133.7159988 101.7122237  87.0692831 134.0026465
 109.8240012  79.7404997 130.0509988 109.6080012  78.9744997 130.5839988
 110.4790012  80.2124997 130.5639988 109.8830632  79.6995889 130.1932861
  98.7410012  81.1284997 131.6959988  99.3550012  81.7614997 132.0689988
  99.2530012  80.6564997 131.0399988  98.8941981  81.1512267 131.6582908
 100.1240012  88.8764997 134.8179988 100.1190012  89.7564997 134.4399988
  99.2710012  88.7934997 135.2429988 100.0079464  88.9856117 134.8237907
  96.2450012  88.5474997 125.5999988  95.9730012  88.7764997 124.7119988
  96.2910012  89.3854997 126.0609988  96.2139482  88.6921318 125.5406273
 109.8700012  90.1694997 132.3129988 108.9290012  90.2274997 132.4749988
 110.1470012  91.0754997 132.1759988 109.7784679  90.2999443 132.3166815
 110.1710012  78.4554997 133.7309988 109.4350012  79.0664997 133.6929988
 110.8540012  78.8704997 133.2039988 110.1626541  78.5951374 133.6545832
 103.1740012  76.5424997 131.1959988 103.0570012  75.5934997 131.1419988
 102.3190012  76.8744997 131.4699988 103.0424212  76.4575571 131.2256497
 108.1220012  91.9504997 128.9379988 108.5480012  91.2434997 128.4529988
 108.4390012  92.7514997 128.5219988 108.2231683  91.9621017 128.8153680
 109.2820012  89.8514997 127.4469988 109.0240012  89.1614997 126.8359988
 109.3530012  89.4084997 128.2929988 109.2562856  89.6972124 127.4776885
 110.9680012  88.4174997 135.9239988 111.1080012  87.8264997 135.1849988
 111.1350012  89.2904997 135.5679988 111.0097411  88.4545428 135.7746894
 105.4410012  85.3794997 125.6969988 104.7290012  85.9144997 125.3449988
 106.1320012  85.4354997 125.0369988 105.4370132  85.4602543 125.5596289
 105.4940012  83.8374997 122.7359988 106.1950012  83.8594997 123.3869988
 105.7970012  83.2094997 122.0789988 105.6308133  83.7557070 122.7363369
 112.8100012  84.7574997 133.9899988 112.1570012  85.4524997 134.0799988
 113.2750012  84.9674997 133.1809988 112.7835274  84.8810643 133.8928462
 108.8460012  85.5894997 126.6489988 108.1140012  85.8174997 127.2219988
 109.2940012  84.8754997 127.1029988 108.8062725  85.5242145 126.7888816
 108.7440012  83.7634997 135.7159988 108.8240012  84.5264997 136.2879988
 108.1420012  84.0424997 135.0259988 108.6735756  83.9057134 135.7010589
 100.4920012  86.2194997 128.5309988 100.1610012  85.8494997 127.7129988
 101.0800012  85.5494997 128.8779988 100.5261873  86.0781156 128.4658102
 101.8580012  89.6474997 131.2119988 101.7640012  89.0694997 130.4559988
 102.5880012  89.2764997 131.7089988 101.9437387  89.5181663 131.1755342
 100.8580012  84.9884997 132.1649988 101.4240012  85.1094997 131.4019988
 101.1770012  85.6254997 132.8029988 100.9785474  85.0912219 132.1469862
 107.1670012  90.4914997 132.8989988 106.9270012  91.1534997 133.5469988
 106.9690012  89.6574997 133.3239988 107.1073808  90.4693134 133.0451524
 101.7380012  89.3874997 136.8819988 101.4270012  90.1694997 137.3369988
 101.0880012  89.2344997 136.1959988 101.6075558  89.4739105 136.8515871
 107.7170012  84.7514997 124.3339988 108.2970012  84.9014997 125.0809988
 108.1310012  85.2224997 123.6099988 107.8522997  84.8356578 124.3384058
  98.6580012  85.5854997 136.1099988  98.7290012  86.2364997 136.8089988
  97.7680012  85.6884997 135.7749988  98.5473005  85.6885427 136.1603495
 105.4440012  91.4884997 127.7689988 105.9180012  91.7834997 128.5459988
 104.8810012  92.2264997 127.5359988 105.4328184  91.6287247 127.8439628
  99.9780012  91.4594997 137.6449988  99.9850012  91.3234997 136.6979988
  99.0620012  91.3414997 137.8969988  99.8551714  91.4249430 137.5494666
 111.4160012  76.5014997 124.1469988 110.5160012  76.6404997 124.4419988
 111.6680012  77.3324997 123.7449988 111.3268702  76.6329074 124.1330205
  99.4820012  85.2894997 126.1199988  99.1900012  86.0574997 125.6299988
  98.8080012  84.6294997 125.9579988  99.3508111  85.3055587 126.0308978
 112.6050012  90.8674997 122.5229988 112.6790012  91.8064997 122.6939988
 113.5110012  90.5624997 122.4669988 112.7375100  90.9546722 122.5388119
  95.5750012  87.6524997 134.9349988  95.0740012  87.6244997 134.1199988
  95.5800012  86.7464997 135.2449988  95.5070944  87.5262396 134.8653226
  95.3250012  90.4324997 131.8189988  96.2710012  90.2884997 131.7999988
  95.2130012  91.2164997 132.3559988  95.4392727  90.5188046 131.8890072
 113.5230012  91.0984997 137.5019988 113.4740012  90.1434997 137.4649988
 112.6960012  91.3664997 137.9029988 113.4044940  91.0038998 137.5511375
 104.5020012  90.6724997 136.3779988 104.5890012  91.4984997 136.8529988
 103.6380012  90.3424997 136.6269988 104.3971964  90.7409878 136.4766549
 104.9160012  94.4444997 126.1839988 104.8410012  94.3234997 125.2369988
 104.9490012  95.3944997 126.3019988 104.9102068  94.5562646 126.0704967
  98.5690012  93.2334997 127.9649988  98.7220012  92.8854997 128.8429988
  97.7190012  92.8774997 127.7099988  98.4749166  93.1376216 128.0508079
 108.0180012  93.5984997 123.1859988 108.3930012  92.8544997 122.7149988
 108.0220012  93.3284997 124.1049988 108.0699125  93.4600986 123.2456483
 107.6870012  93.5244997 125.9349988 106.7510012  93.6244997 126.1139988
 107.9670012  92.8154997 126.5139988 107.5969553  93.4423406 126.0377087
 110.6750012  82.5914997 137.9819988 110.2680012  83.0724997 137.2609988
 110.7160012  81.6864997 137.6739988 110.6248437  82.5349374 137.8416683
  97.8240012  88.9754997 135.9789988  98.0400012  88.6144997 136.8379988
  96.9690012  88.6014997 135.7689988  97.7379292  88.8754111 136.0683386
 100.4430012  77.4454997 131.9739988  99.5810012  77.3584997 131.5659988
 100.4200012  78.3014997 132.4019988 100.3220409  77.5492883 131.9760589
 105.1060012  77.1674997 135.3489988 105.5260012  76.7524997 136.1019988
 104.1730012  76.9894997 135.4659988 105.0373644  77.0865900 135.4679539
 108.4320012  80.9234997 136.2019988 107.9180012  80.7974997 136.9999988
 108.2770012  81.8354997 135.9579988 108.3406852  81.0296132 136.2782158
 109.1950012  85.7844997 121.9639988 109.2370012  85.5614997 121.0339988
 110.0440012  86.1834997 122.1529988 109.3155280  85.8079438 121.8623554
 104.7670012  79.6604997 122.6339988 104.5140012  79.6794997 123.5569988
 104.5110012  78.7884997 122.3319988 104.6977481  79.5452558 122.7196175
 100.5340012  82.4114997 133.0689988  99.8920012  82.3704997 133.7779988
 100.5710012  83.3374997 132.8309988 100.4510664  82.5311430 133.1339219
 100.5310012  82.6324997 127.9809988  99.6380012  82.2914997 127.9219988
 100.9810012  82.2554997 127.2249988 100.4698130  82.5349631 127.8707702
 106.0660012  83.0484997 126.7979988 105.6570012  83.8634997 126.5069988
 106.7870012  82.9084997 126.1839988 106.1074537  83.1412018 126.6751342
 105.1680012  83.2234997 138.2859988 104.6060012  82.5194997 138.6069988
 105.9950012  83.1034997 138.7539988 105.2027095  83.1107883 138.3932330
 107.0710012  82.4944997 129.6119988 106.8760012  83.0994997 128.8969988
 107.2520012  81.6604997 129.1779988 107.0687614  82.4646300 129.4554405
  98.2840012  82.7314997 134.9359988  98.2460012  83.1314997 135.8049988
  97.7930012  81.9144997 135.0269988  98.2124684  82.6758069 135.0671059
 101.6500012  80.1054997 121.7349988 101.2190012  79.6604997 122.4649988
 100.9320012  80.4774997 121.2229988 101.4939438  80.0948940 121.7656799
  94.8920012  79.8474997 128.7869988  95.5230012  79.8184997 129.5059988
  95.3410012  79.4224997 128.0559988  95.0390918  79.7860836 128.7866441
  96.1660012  80.5934997 124.2109988  96.6400012  81.1844997 123.6259988
  95.4490012  81.1244997 124.5579988  96.1339341  80.7460867 124.1778836
 106.3350012  84.1324997 134.2829988 106.6580012  83.5014997 133.6399988
 105.8950012  83.5974997 134.9439988 106.3197484  83.9738387 134.2843198
 103.1120012  80.0594997 129.0669988 102.2010012  80.1164997 129.3559988
 103.6180012  79.9994997 129.8779988 103.0556899  80.0591941 129.2161184
  97.9410012  81.6884997 127.8939988  97.0510012  81.7884997 127.5539988
  98.2370012  80.8464997 127.5479988  97.8592823  81.5883545 127.8007213
 101.5940012  81.6884997 125.5509988 102.5250012  81.8174997 125.7289988
 101.3790012  82.3584997 124.9009988 101.6924247  81.7966565 125.4875747
 107.5170012  79.2944997 132.3319988 106.8410012  79.4254997 132.9959988
 107.0320012  79.1394997 131.5209988 107.3587146  79.2915157 132.3134469
 100.2680012  82.8834997 123.1169988  99.7250012  82.5034997 122.4259988
 101.1010012  83.0774997 122.6889988 100.3063631  82.8577125 122.9644501
 110.8050012  94.9664997 138.6079988 111.0050012  95.3904997 137.7739988
 111.4600012  95.3094997 139.2149988 110.9210072  95.0709857 138.5758592
  98.4030012  87.4404997 138.2159988  99.1350012  87.6944997 138.7779988
  97.6230012  87.6444997 138.7319988  98.3977073  87.5028160 138.3626151
 104.4320012  82.8474997 130.9539988 104.9970012  82.3004997 130.4069988
 104.2850012  82.3254997 131.7429988 104.4893380  82.7022259 130.9858695
  99.4340012  78.9834997 127.3729988  99.1170012  78.0814997 127.3369988
 100.2160012  78.9854997 126.8199988  99.4962408  78.8602474 127.2933569
 103.0590012  81.2354997 133.3679988 102.2230012  81.6894997 133.4789988
 103.5830012  81.5114997 134.1199988 103.0155416  81.3348660 133.4848119
 103.6030012  87.4484997 125.0529988 102.8580012  86.9414997 124.7309988
 103.4690012  87.4974997 125.9999988 103.4828776  87.3856940 125.1368647
 110.7530012  86.5814997 133.8399988 111.3950012  87.0384997 133.2959988
 109.9230012  86.6944997 133.3769988 110.7285963  86.6592704 133.7030177
 107.5010012  80.2624997 123.2519988 106.5620012  80.3744997 123.1009988
 107.7980012  81.1194997 123.5589988 107.4127583  80.3935981 123.2728337
 105.1220012  87.6324997 136.2899988 104.7770012  87.2514997 137.0969988
 104.9220012  88.5664997 136.3609988 105.0477527  87.7065135 136.4100689
 108.2190012  82.1294997 124.9129988 109.1110012  81.9924997 125.2319988
 108.2760012  82.9204997 124.3759988 108.3486504  82.2176052 124.8840818
  98.7280012  86.7434997 130.8229988  99.4730012  86.7414997 130.2219988
  98.8060012  85.9204997 131.3039988  98.8404995  86.6318887 130.8058282
 105.7290012  88.9074997 124.0789988 105.4330012  89.7334997 124.4599988
 105.0260012  88.2874997 124.2749988 105.5934914  88.9368199 124.1576443
  95.7360012  85.2044997 136.1379988  95.9590012  84.7864997 136.9699988
  95.1340012  84.5914997 135.7149988  95.6851759  85.0644668 136.1947022
 102.7520012  84.7214997 138.3509988 102.4560012  84.5554997 137.4559988
 103.6840012  84.5014997 138.3399988 102.8374166  84.6690640 138.2270536
 107.3730012  90.0944997 136.2409988 106.4720012  90.2774997 135.9729988
 107.4070012  90.3534997 137.1609988 107.2543139  90.1545849 136.3288099
 113.1040012  82.3394997 124.6079988 112.5500012  81.9434997 123.9359988
 113.2040012  83.2494997 124.3299988 113.0417059  82.4083586 124.4784401
 113.0670012  88.1394997 137.4449988 112.2160012  88.3774997 137.0779988
 113.6580012  88.1224997 136.6919988 113.0302487  88.1698258 137.2928893
 111.3990012  91.1254997 125.0729988 111.0260012  90.2994997 125.3819988
 111.6770012  90.9424997 124.1749988 111.3855222  90.9877430 124.9939473
 108.5600012  85.9334997 132.0939988 107.6310012  85.7014997 132.0669988
 109.0110012  85.1564997 131.7639988 108.4939216  85.7967238 132.0456917
 101.1030012  90.2614997 128.2269988 101.6300012  91.0344997 128.0269988
 100.2230012  90.4864997 127.9249988 101.0562031  90.3977545 128.1587912
  96.8580012  85.1234997 122.8139988  97.4740012  85.7504997 123.1939988
  95.9960012  85.4394997 123.0859988  96.8257698  85.2519430 122.9027183
 102.5300012  87.9244997 127.8029988 102.2890012  88.8494997 127.8449988
 101.7890012  87.4654997 128.1999988 102.3969225  87.9890933 127.8623742
 103.0450012  92.0734997 134.1189988 103.4070012  92.9284997 133.8849988
 103.5760012  91.7814997 134.8589988 103.1664473  92.1511060 134.1870855
 101.2130012  92.9464997 127.3489988 100.2630012  93.0514997 127.3999988
 101.5650012  93.7664997 127.6929988 101.1304195  93.0718800 127.4025502
 106.5890012  88.1724997 133.8189988 106.1630012  87.9454997 134.6459988
 107.1690012  87.4344997 133.6369988 106.6091868  88.0415299 133.9075830
 108.7920012  89.1014997 122.8929988 109.1450012  88.7214997 123.6969988
 107.8430012  89.0084997 122.9799988 108.7120918  89.0368956 123.0148532
 109.2470012  92.7244997 136.2889988 108.6460012  92.1694997 135.7929988
 109.5290012  93.3914997 135.6619988 109.2028804  92.7386625 136.1364849
 113.2950012  93.5814997 123.0939988 114.0390012  94.1674997 122.9539988
 112.6010012  94.1494997 123.4269988 113.3029899  93.7385798 123.1198778
  97.3700012  79.9574997 135.6959988  96.4770012  80.2964997 135.6279988
  97.2710012  79.1024997 136.1139988  97.2344164  79.8882588 135.7432235
 109.6580012  87.7744997 125.1199988 109.3800012  87.0464997 125.6759988
 110.5850012  87.8934997 125.3249988 109.7453124  87.6908802 125.2238845
  97.0210012  91.7624997 134.1309988  97.2380012  90.8304997 134.0999988
  97.2670012  92.0364997 135.0139988  97.0839549  91.6720636 134.2461763
 102.8830012  90.2134997 121.3399988 103.1220012  89.4654997 120.7929988
 102.6140012  89.8254997 122.1729988 102.8793675  90.0586638 121.3776865
 101.8200012  89.7834997 123.7959988 101.9660012  89.2634997 124.5859988
 101.8170012  90.6904997 124.1029988 101.8395792  89.8348842 123.9456117
  98.2730012  87.0364997 124.3069988  97.5870012  87.3884997 124.8739988
  98.7950012  87.7994997 124.0599988  98.2496852  87.1878578 124.3512118
 106.1040012  79.6984997 134.5859988 106.8030012  79.7724997 135.2359988
 105.7230012  78.8344997 134.7399988 106.1481767  79.5917624 134.6958322
 106.8890012  79.3504997 125.6829988 107.1090012  79.8224997 124.8799988
 107.4470012  79.7454997 126.3529988 106.9944968  79.4684285 125.6637331
 104.5570012  91.4814997 124.5459988 103.7410012  91.9784997 124.5979988
 105.0870012  91.9564997 123.9059988 104.5169161  91.6137722 124.4665956
 104.0890012  81.0784997 126.5179988 104.9010012  81.5834997 126.5639988
 103.8440012  80.9334997 127.4319988 104.1670520  81.1280375 126.6478517
 104.6240012  82.0644997 135.7019988 104.7430012  82.6384997 136.4599988
 105.2800012  81.3764997 135.8169988 104.7289025  82.0499858 135.8211321
 104.9720012  78.1594997 127.4559988 104.6260012  78.7774997 128.0999988
 105.6310012  78.6604997 126.9739988 105.0136968  78.3116278 127.4789383
 101.8960012  92.5254997 124.5269988 102.0560012  93.3244997 124.0269988
 101.6980012  92.8314997 125.4119988 101.8911637  92.6764020 124.5781144
 100.6300012  79.2224997 124.1429988 100.5470012  80.1114997 124.4899988
 101.5200012  78.9574997 124.3749988 100.7389469  79.3081430 124.2217626
 110.8290012  79.9714997 136.5369988 109.9120012  80.2344997 136.4499988
 111.1640012  79.9684997 135.6409988 110.7488613  80.0070761 136.4038837
 109.4310012  83.7224997 130.6329988 108.6330012  83.3074997 130.3049988
 109.8760012  83.0314997 131.1239988 109.3819885  83.5723543 130.6544889
  98.8890012  89.6504997 123.2039988  99.4810012  90.3494997 123.4799988
  99.3480012  89.2174997 122.4839988  99.0321142  89.6877049 123.1444830
  97.2050012  82.3144997 122.3199988  97.1600012  83.2534997 122.4979988
  96.3170012  82.0784997 122.0499988  97.0788574  82.4111892 122.3078912
 110.5170012  92.9784997 132.2559988 110.3620012  93.6564997 131.5979988
 111.4500012  93.0504997 132.4589988 110.6218657  93.0809546 132.1934360
  98.0130012  77.0964997 130.9929988  97.7840012  77.1554997 130.0649988
  97.5700012  76.3044997 131.2989988  97.9218530  76.9975753 130.9074786
  96.9430012  91.0364997 127.1529988  96.1110012  91.5094997 127.1799988
  97.4890012  91.5464997 126.5549988  96.9030352  91.1701332 127.0758463
  96.2310012  93.6494997 138.4829988  96.7720012  93.4324997 139.2429988
  95.7500012  92.8434997 138.2929988  96.2399951  93.5109270 138.5612576
 100.8290012  92.5684997 140.1029988 101.5960012  92.1094997 140.4439988
 100.8070012  92.3424997 139.1739988 100.9311275  92.4750186 140.0240101
 104.9210012  92.0764997 121.4789988 104.2770012  91.4454997 121.7999988
 105.6830012  91.5454997 121.2469988 104.9358077  91.9182920 121.4916011
 107.4060012  90.9484997 138.8329988 107.0550012  90.0924997 139.0759988
 108.1320012  91.0914997 139.4399988 107.4560769  90.8505636 138.9483619
 109.5250012  91.8934997 121.7119988 109.8080012  91.0994997 122.1649988
 110.2650012  92.1264997 121.1519988 109.6638006  91.8163376 121.6982715
  96.1380012  87.4594997 139.4369988  96.2820012  86.5574997 139.1509988
  95.3660012  87.7454997 138.9499988  96.0532753  87.3746816 139.3319505
 100.4800012  87.8034997 121.5699988 100.5440012  87.0094997 122.1009988
 101.1330012  87.6844997 120.8799988 100.5770241  87.6787148 121.5494317
 102.7940012  87.4294997 138.8699988 102.4650012  87.7004997 138.0129988
 102.9460012  86.4884997 138.7829988 102.7694809  87.3393862 138.7408244
 105.8320012  88.8504997 121.3059988 105.5630012  89.0304997 122.2069988
 105.6260012  87.9244997 121.1739988 105.7673427  88.7500261 121.4115073
 108.5280012  87.3454997 136.2529988 109.2740012  87.9334997 136.1339988
 107.7710012  87.9274997 136.3169988 108.5277820  87.5047143 136.2453590
  96.9710012  84.6594997 138.8569988  97.3790012  83.8024997 138.7359988
  96.7110012  84.6744997 139.7779988  96.9917568  84.5440807 138.9649588
 101.6290012  85.7754997 123.8759988 101.1690012  85.2914997 124.5619988
 101.8840012  85.1074997 123.2399988 101.6004902  85.6188731 123.8839334
 100.9180012  83.6684997 136.2319988 100.3000012  84.3434997 136.5119988
 101.2620012  83.9894997 135.3979988 100.8799132  83.8042411 136.1576262
 102.7000012  84.0184997 122.1379988 102.5200012  83.8644997 121.2109988
 103.6500012  84.1264997 122.1829988 102.8037776  84.0120175 122.0171843
 105.9380012  86.1404997 139.5089988 106.8910012  86.2234997 139.4819988
 105.7770012  85.4284997 140.1289988 106.0466426  86.0556746 139.5890579
 112.0900012  86.3734997 121.5839988 111.8160012  85.9484997 120.7709988
 112.1290012  87.3044997 121.3669988 112.0577699  86.4412484 121.4433610
 101.2570012  81.0234997 137.3139988 101.4070012  80.2944997 136.7119988
 101.2600012  81.8004997 136.7549988 101.2779302  81.0287851 137.1560692
 101.6700012  79.3934997 134.8069988 102.2060012  79.8444997 134.1549988
 100.8180012  79.2854997 134.3839988 101.6282178  79.4406390 134.6605756
 103.2520012  84.8324997 135.0459988 104.0020012  84.6764997 134.4729988
 102.9130012  85.6844997 134.7709988 103.3088921  84.9262968 134.9303561
 107.6670012  82.6474997 140.0749988 107.8600012  81.7164997 139.9629988
 108.5250012  83.0724997 140.0639988 107.8092934  82.5776531 140.0582031
 108.9840012  85.4364997 138.1519988 108.7030012  86.1454997 137.5739988
 109.9270012  85.3634997 138.0009988 109.0729291  85.5236711 138.0524967
  99.7360012  82.2214997 139.2259988  98.9690012  81.6894997 139.0149988
 100.4150012  81.9114997 138.6259988  99.7227877  82.1068300 139.1160716
 102.4760012  76.8494997 135.2379988 102.3770012  77.7964997 135.1329988
 101.7330012  76.4774997 134.7619988 102.3621184  76.9285863 135.1593621
 103.7400012  81.1714997 138.8019988 103.5040012  80.9514997 139.7029988
 102.9560012  80.9644997 138.2919988 103.6018504  81.1134586 138.8563431
 106.4550012  80.2984997 137.8769988 105.5080012  80.3304997 138.0099988
 106.7680012  79.6734997 138.5309988 106.3676707  80.2183998 137.9836060
 108.0890012  78.9324997 139.8829988 107.9930012  77.9804997 139.8769988
 107.7680012  79.2014997 140.7429988 108.0324070  78.8384035 139.9985441
  97.9160012  80.1424997 138.9299988  98.1280012  79.4354997 138.3199988
  97.8050012  79.7044997 139.7739988  97.9299721  79.9867084 138.9606843
 102.6970012  76.1434997 137.9089988 103.4090012  75.5034997 137.8949988
 102.5960012  76.4104997 136.9959988 102.7808066  76.0920079 137.7835677
 103.0510012  77.8264997 139.9629988 102.9190012  77.3504997 139.1429988
 102.4520012  78.5704997 139.9079988 102.9519071  77.8619618 139.8432886
 102.5970012  94.7094997 123.1389988 103.5300012  94.8674997 123.2829988
 102.3330012  95.3844997 122.5149988 102.6889888  94.8224510 123.0742842
  96.1660012  89.3454997 122.6219988  97.0800012  89.4244997 122.8959988
  96.1730012  88.6584997 121.9559988  96.2921131  89.2633961 122.5694393
  94.8150012  94.7384997 127.6999988  94.1680012  94.2764997 127.1669988
  95.1690012  94.0664997 128.2819988  94.7743849  94.5844723 127.7057959
  95.6850012  92.8194997 129.5039988  95.3500012  91.9394997 129.6759988
  95.9070012  93.1644997 130.3689988  95.6691783  92.7457500 129.6444208
 113.2330012  93.6284997 132.4849988 113.2120012  93.8134997 133.4239988
 113.9240012  94.1974997 132.1439988 113.3234618  93.7306606 132.5673864
 112.7970012  93.1964997 135.4069988 112.3090012  92.4604997 135.0349988
 113.3460012  92.8024997 136.0849988 112.8044820  93.0425889 135.4477813
 111.2470012  88.9854997 140.0449988 110.3810012  88.8804997 140.4389988
 111.6240012  89.7444997 140.4909988 111.1793308  89.0736900 140.1592393
 112.5480012  87.2424997 125.5589988 113.3980012  87.6634997 125.6859988
 112.5540012  86.5024997 126.1659988 112.6651372  87.2000803 125.6584344
 112.9430012  85.2954997 127.3819988 112.2160012  84.8164997 127.7799988
 113.5240012  85.5014997 128.1149988 112.9220473  85.2578103 127.5354528
 112.7020012  88.0804997 132.3299988 113.5350012  87.7024997 132.0499988
 112.8140012  89.0234997 132.2109988 112.8312647  88.1562218 132.2755487
 111.1880012  90.9584997 134.6369988 110.5410012  91.2834997 135.2629988
 110.6710012  90.5184997 133.9629988 111.0294029  90.9435004 134.6315827
 113.2110012  85.1964997 123.7739988 112.6890012  85.5534997 123.0549988
 113.1780012  85.8714997 124.4519988 113.1351634  85.3365413 123.7673145
 111.5600012  82.4364997 122.3239988 111.6560012  83.1034997 121.6439988
 111.4200012  81.6204997 121.8429988 111.5542272  82.4175655 122.1658347
 110.7290012  83.8164997 127.9449988 110.5790012  82.8714997 127.9249988
 110.3760012  84.0974997 128.7889988 110.6607448  83.7251481 128.0563705
  95.7650012  85.8944997 131.9559988  95.9490012  85.8124997 131.0199988
  96.6140012  85.7704997 132.3789988  95.9050151  85.8665073 131.8851451
 111.5860012  85.7864997 137.5839988 112.1690012  85.0524997 137.7759988
 112.1500012  86.5584997 137.6309988 111.7419769  85.7904227 137.6166159
 113.0820012  83.6894997 138.2689988 112.2190012  83.3104997 138.1029988
 113.6870012  82.9504997 138.1939988 113.0456119  83.5378268 138.2361528
 110.8070012  79.8444997 121.4419988 111.4180012  79.4734997 122.0789988
 109.9710012  79.4234997 121.6379988 110.7775032  79.7367554 121.5557035
 110.4400012  81.3994997 126.4079988 110.7200012  80.4924997 126.5319988
 111.1990012  81.8334997 126.0189988 110.5809277  81.3340942 126.3723682
 111.0520012  81.9804997 131.8439988 111.9850012  82.1924997 131.8089988
 110.8170012  82.0824997 132.7659988 111.1479244  82.0233100 131.9638892
 111.0810012  82.7174997 134.6199988 110.2380012  82.9854997 134.9859988
 111.5230012  83.5394997 134.4089988 111.0254158  82.8653291 134.6415491
  95.3620012  81.1654997 138.0969988  96.2820012  81.0434997 138.3329988
  94.9130012  80.4154997 138.4859988  95.4271580  81.0473727 138.1819006
 113.3640012  76.6974997 139.9729988 113.7140012  76.0434997 139.3679988
 113.5110012  77.5344997 139.5329988 113.4317887  76.7211548 139.8306858
 111.0530012  78.6624997 126.4559988 111.2360012  78.2134997 127.2819988
 110.4540012  78.0774997 125.9929988 110.9970202  78.5219975 126.5063275
  96.5830012  79.4774997 130.9879988  97.0290012  78.6854997 131.2899988
  97.0500012  80.1934997 131.4179988  96.7070831  79.4660685 131.0874006
  94.8870012  82.4764997 132.0569988  95.3790012  82.2554997 131.2659988
  95.2500012  83.3174997 132.3379988  95.0033126  82.5598357 131.9867531
 112.8840012  78.8064997 138.3219988 111.9660012  79.0774997 138.2869988
 113.0070012  78.2714997 137.5379988 112.7749730  78.7712508 138.2111923
 112.9200012  78.7294997 122.9839988 113.3320012  78.0084997 122.5089988
 113.6020012  79.3994997 123.0429988 113.0685885  78.7212368 122.9268915
  95.2010012  78.7344997 126.1109988  94.2760012  78.9434997 125.9819988
  95.6550012  79.2184997 125.4209988  95.1357292  78.8285343 126.0000720
 109.9720012  93.7184997 128.0569988 110.6240012  93.3714997 127.4489988
 110.4820012  94.2074997 128.7029988 110.1302637  93.7370597 128.0610236
  95.1650012  77.4724997 134.4549988  94.5000012  77.2264997 135.0989988
  94.7220012  78.0944997 133.8779988  95.0141318  77.5229410 134.4650898
  97.3570012  90.6474997 138.5999988  96.5360012  90.8224997 138.1389988
  97.1040012  90.5744997 139.5199988  97.2105585  90.6615544 138.6613561
 100.3110012  91.6224997 134.8579988  99.8860012  92.4314997 134.5759988
 101.2150012  91.7074997 134.5559988 100.3749975  91.7449300 134.7784816
 104.6220012  93.0214997 137.8179988 104.8070012  92.6874997 138.6959988
 105.4680012  93.3304997 137.4959988 104.7617539  93.0176047 137.8945605
 106.9670012  94.3074997 137.0619988 107.6440012  93.6744997 136.8219988
 107.2890012  94.7084997 137.8689988 107.1031637  94.2751154 137.1382793
 111.8840012  76.8964997 136.1409988 111.0720012  77.2214997 135.7539988
 112.1170012  76.1364997 135.6079988 111.8042203  76.8382758 136.0158880
  97.7130012  94.8784997 134.9059988  96.9920012  95.3184997 134.4549988
  97.3470012  94.6274997 135.7539988  97.5649651  94.9047242 134.9589640
 100.1800012  94.4784997 133.9359988  99.3150012  94.5504997 134.3399988
 100.1250012  95.0254997 133.1519988 100.0542085  94.5622685 133.8853362
 104.8900012  94.3664997 133.1109988 104.4340012  94.8954997 132.4569988
 105.0530012  94.9694997 133.8359988 104.8496068  94.5204607 133.1194838
 107.2180012  93.2444997 134.0559988 106.3130012  93.4094997 133.7899988
 107.6470012  94.0974997 133.9909988 107.1521324  93.3824339 134.0107976
 109.8220012  94.8144997 134.3509988 109.6400012  95.7304997 134.1409988
 109.9990012  94.4044997 133.5049988 109.8210210  94.8844822 134.2077885
  97.1270012  93.5014997 131.8159988  97.1090012  93.0764997 132.6729988
  97.9320012  93.1834997 131.4069988  97.2333529  93.4003013 131.8780946
  99.2690012  92.2114997 130.4709988  99.0500012  91.2954997 130.6409988
 100.0930012  92.3514997 130.9369988  99.3504420  92.1050520 130.5572774
 101.8060012  92.6814997 131.3199988 102.0190012  91.7934997 131.0329988
 101.8700012  92.6474997 132.2739988 101.8438232  92.5553102 131.4097397
 105.3140012  78.3454997 130.4639988 104.6400012  77.7164997 130.7199988
 105.8780012  77.8614997 129.8609988 105.2979230  78.1938744 130.4175340
 110.4570012  76.4534997 130.5769988 111.0610012  77.0004997 130.0749988
 109.5870012  76.7724997 130.3359988 110.4221208  76.5715137 130.4756886
 112.1840012  77.5914997 128.9099988 112.7960012  77.0774997 128.3829988
 112.5660012  78.4694997 128.9329988 112.3193371  77.6397866 128.8410041
  97.6410012  76.9794997 128.2859988  96.8640012  76.7454997 127.7789988
  98.1710012  76.1824997 128.2949988  97.6062330  76.8396988 128.2177742
  96.4770012  76.7774997 124.0899988  96.9160012  77.3884997 123.4979988
  95.8440012  77.3154997 124.5639988  96.4514514  76.9339257 124.0730930
 102.2200012  76.9064997 128.0999988 103.0950012  77.2944997 128.0699988
 102.0840012  76.6914997 129.0219988 102.3213695  76.9305184 128.2206440
 107.7770012  76.9364997 129.7489988 107.8530012  77.0314997 128.7989988
 107.5020012  76.0284997 129.8779988 107.7502321  76.8267867 129.6365079
 109.1300012  76.9624997 125.4409988 108.4280012  77.5774997 125.2309988
 108.6860012  76.1244997 125.5719988 108.9736450  76.9335639 125.4299000
  96.3780012  92.7254997 124.9869988  95.6930012  92.6874997 124.3199988
  96.3820012  93.6384997 125.2759988  96.2846998  92.8436733 124.9346771
  98.3380012  78.6934997 122.5319988  98.8300012  78.0634997 122.0049988
  98.9620012  78.9894997 123.1949988  98.4895688  78.6473804 122.5495482
 103.3640012  78.9864997 124.9889988 103.5420012  78.3404997 125.6719988
 103.3110012  79.8204997 125.4559988 103.3811999  79.0108009 125.1455917
 105.2430012  93.9354997 123.3849988 106.1090012  94.3014997 123.2069988
 104.9960012  93.4954997 122.5709988 105.3282392  93.9261756 123.2506289
 111.9520012  93.4984997 126.0639988 111.7570012  92.7504997 125.4989988
 111.9130012  94.2564997 125.4809988 111.9200380  93.4986099 125.9078384
  97.5990012  77.4934997 137.8039988  97.2330012  76.7284997 138.2459988
  98.5120012  77.5224997 138.0899988  97.6722736  77.3925640 137.9032502
  99.5720012  76.8444997 139.3399988 100.4700012  76.5704997 139.1549988
  99.1850012  76.1014997 139.8039988  99.6426612  76.7065914 139.3773643
  98.1960012  93.6454997 122.0129988  97.9290012  93.9324997 122.8859988
  98.9680012  93.0994997 122.1649988  98.2637488  93.6110294 122.1531050
 107.9930012  76.1764997 139.5219988 108.0700012  75.7504997 140.3759988
 108.8870012  76.1904997 139.1789988 108.1243428  76.1200879 139.5925310
 111.1690012  92.2494997 138.2139988 110.3870012  92.0634997 137.6939988
 111.0970012  93.1784997 138.4319988 111.0522274  92.3496643 138.1723018
 125.5750012  86.1354997 128.2449988 125.6640012  87.0794997 128.1129988
 124.9370012  85.8604997 127.5869988 125.5009081  86.2274830 128.1379614
 124.5080012  85.3904997 131.6639988 124.4700012  84.7444997 132.3689988
 124.1860012  84.9244997 130.8929988 124.4592333  85.2389408 131.6562978
 116.8770012  85.0054997 133.2569988 116.9180012  84.3794997 133.9799988
 117.5800012  85.6294997 133.4389988 116.9776363  85.0041196 133.3806044
 128.2140012  88.3294997 129.9649988 127.7740012  87.6094997 130.4159988
 128.2010012  89.0504997 130.5949988 128.1520226  88.3283731 130.1118494
 117.8000012  89.4554997 131.7919988 117.4310012  88.6534997 131.4219988
 118.7410012  89.2864997 131.8379988 117.8767289  89.3230153 131.7476316
 114.4100012  83.1154997 127.1849988 113.9630012  83.9614997 127.1659988
 113.8490012  82.5354997 126.6689988 114.2729900  83.1529916 127.1126801
 115.1210012  85.2774997 129.3099988 115.3340012  84.5074997 129.8379988
 115.8590012  85.3664997 128.7069988 115.2499044  85.1841968 129.3007123
 125.3260012  93.4344997 130.1769988 125.9460012  92.7574997 129.9039988
 125.1180012  93.2164997 131.0859988 125.3826726  93.3124800 130.2624812
 122.8980012  87.8234997 132.0699988 123.2020012  87.1374997 131.4749988
 123.6190012  87.9414997 132.6879988 123.0370671  87.7456304 132.0721816
 131.5610012  79.4244997 132.9309988 131.6100012  80.0344997 133.6659988
 131.9860012  79.8854997 132.2079988 131.6251746  79.5703796 132.9339175
 126.0390012  82.2174997 132.3969988 126.1810012  81.2714997 132.4179988
 125.9320012  82.4244997 131.4689988 126.0439919  82.1158246 132.2743408
 119.1930012  80.3184997 129.6699988 119.2370012  81.1784997 129.2509988
 118.7360012  79.7664997 129.0359988 119.1372240  80.3614422 129.5269864
 126.9160012  80.4494997 128.0709988 127.5620012  80.1204997 128.6949988
 127.4260012  80.9674997 127.4479988 127.0734299  80.4744450 128.0722731
 115.8140012  82.7154997 130.4319988 116.4670012  82.1654997 130.8639988
 115.8380012  82.4414997 129.5149988 115.9066683  82.6031466 130.3672123
 120.9700012  84.2654997 129.6469988 121.5860012  83.7394997 130.1569988
 120.3840012  83.6254997 129.2439988 120.9750810  84.1069208 129.6623173
 131.9520012  80.9024997 135.1659988 131.2640012  81.5604997 135.0709988
 131.9680012  80.7054997 136.1029988 131.8599540  80.9659819 135.2795990
 118.0040012  79.2364997 133.7439988 117.7850012  79.7664997 132.9779988
 117.3360012  79.4634997 134.3909988 117.8837600  79.3396906 133.7266379
 125.3730012  88.7364997 127.2879988 125.0770012  88.4144997 126.4369988
 125.0480012  89.6364997 127.3289988 125.2886371  88.8140215 127.1771801
 120.5730012  86.9124997 134.0309988 119.8330012  87.5104997 134.1349988
 121.2870012  87.4664997 133.7159988 120.5682237  87.0692831 134.0026465
 128.6800012  79.7404997 130.0509988 128.4640012  78.9744997 130.5839988
 129.3350012  80.2124997 130.5639988 128.7390632  79.6995889 130.1932861
 117.5970012  81.1284997 131.6959988 118.2110012  81.7614997 132.0689988
 118.1090012  80.6564997 131.0399988 117.7501981  81.1512267 131.6582908
 118.9800012  88.8764997 134.8179988 118.9750012  89.7564997 134.4399988
 118.1270012  88.7934997 135.2429988 118.8639464  88.9856117 134.8237907
 115.1010012  88.5474997 125.5999988 114.8290012  88.7764997 124.7119988
 115.1470012  89.3854997 126.0609988 115.0699482  88.6921318 125.5406273
 128.7260012  90.1694997 132.3129988 127.7850012  90.2274997 132.4749988
 129.0030012  91.0754997 132.1759988 128.6344679  90.2999443 132.3166815
 129.0270012  78.4554997 133.7309988 128.2910012  79.0664997 133.6929988
 129.7100012  78.8704997 133.2039988 129.0186541  78.5951374 133.6545832
 122.0300012  76.5424997 131.1959988 121.9130012  75.5934997 131.1419988
 121.1750012  76.8744997 131.4699988 121.8984212  76.4575571 131.2256497
 126.9780012  91.9504997 128.9379988 127.4040012  91.2434997 128.4529988
 127.2950012  92.7514997 128.5219988 127.0791683  91.9621017 128.8153680
 128.1380012  89.8514997 127.4469988 127.8800012  89.1614997 126.8359988
 128.2090012  89.4084997 128.2929988 128.1122856  89.6972124 127.4776885
 129.8240012  88.4174997 135.9239988 129.9640012  87.8264997 135.1849988
 129.9910012  89.2904997 135.5679988 129.8657411  88.4545428 135.7746894
 124.2970012  85.3794997 125.6969988 123.5850012  85.9144997 125.3449988
 124.9880012  85.4354997 125.0369988 124.2930132  85.4602543 125.5596289
 124.3500012  83.8374997 122.7359988 125.0510012  83.8594997 123.3869988
 124.6530012  83.2094997 122.0789988 124.4868133  83.7557070 122.7363369
 131.6660012  84.7574997 133.9899988 131.0130012  85.4524997 134.0799988
 132.1310012  84.9674997 133.1809988 131.6395274  84.8810643 133.8928462
 127.7020012  85.5894997 126.6489988 126.9700012  85.8174997 127.2219988
 128.1500012  84.8754997 127.1029988 127.6622725  85.5242145 126.7888816
 127.6000012  83.7634997 135.7159988 127.6800012  84.5264997 136.2879988
 126.9980012  84.0424997 135.0259988 127.5295756  83.9057134 135.7010589
 119.3480012  86.2194997 128.5309988 119.0170012  85.8494997 127.7129988
 119.9360012  85.5494997 128.8779988 119.3821873  86.0781156 128.4658102
 120.7140012  89.6474997 131.2119988 120.6200012  89.0694997 130.4559988
 121.4440012  89.2764997 131.7089988 120.7997387  89.5181663 131.1755342
 119.7140012  84.9884997 132.1649988 120.2800012  85.1094997 131.4019988
 120.0330012  85.6254997 132.8029988 119.8345474  85.0912219 132.1469862
 126.0230012  90.4914997 132.8989988 125.7830012  91.1534997 133.5469988
 125.8250012  89.6574997 133.3239988 125.9633808  90.4693134 133.0451524
 120.5940012  89.3874997 136.8819988 120.2830012  90.1694997 137.3369988
 119.9440012  89.2344997 136.1959988 120.4635558  89.4739105 136.8515871
 126.5730012  84.7514997 124.3339988 127.1530012  84.9014997 125.0809988
 126.9870012  85.2224997 123.6099988 126.7082997  84.8356578 124.3384058
 117.5140012  85.5854997 136.1099988 117.5850012  86.2364997 136.8089988
 116.6240012  85.6884997 135.7749988 117.4033005  85.6885427 136.1603495
 124.3000012  91.4884997 127.7689988 124.7740012  91.7834997 128.5459988
 123.7370012  92.2264997 127.5359988 124.2888184  91.6287247 127.8439628
 118.8340012  91.4594997 137.6449988 118.8410012  91.3234997 136.6979988
 117.9180012  91.3414997 137.8969988 118.7111714  91.4249430 137.5494666
 130.2720012  76.5014997 124.1469988 129.3720012  76.6404997 124.4419988
 130.5240012  77.3324997 123.7449988 130.1828702  76.6329074 124.1330205
 118.3380012  85.2894997 126.1199988 118.0460012  86.0574997 125.6299988
 117.6640012  84.6294997 125.9579988 118.2068111  85.3055587 126.0308978
 131.4610012  90.8674997 122.5229988 131.5350012  91.8064997 122.6939988
 132.3670012  90.5624997 122.4669988 131.5935100  90.9546722 122.5388119
 114.4310012  87.6524997 134.9349988 113.9300012  87.6244997 134.1199988
 114.4360012  86.7464997 135.2449988 114.3630944  87.5262396 134.8653226
 114.1810012  90.4324997 131.8189988 115.1270012  90.2884997 131.7999988
 114.0690012  91.2164997 132.3559988 114.2952727  90.5188046 131.8890072
 132.3790012  91.0984997 137.5019988 132.3300012  90.1434997 137.4649988
 131.5520012  91.3664997 137.9029988 132.2604940  91.0038998 137.5511375
 123.3580012  90.6724997 136.3779988 123.4450012  91.4984997 136.8529988
 122.4940012  90.3424997 136.6269988 123.2531964  90.7409878 136.4766549
 123.7720012  94.4444997 126.1839988 123.6970012  94.3234997 125.2369988
 123.8050012  95.3944997 126.3019988 123.7662068  94.5562646 126.0704967
 117.4250012  93.2334997 127.9649988 117.5780012  92.8854997 128.8429988
 116.5750012  92.8774997 127.7099988 117.3309166  93.1376216 128.0508079
 126.8740012  93.5984997 123.1859988 127.2490012  92.8544997 122.7149988
 126.8780012  93.3284997 124.1049988 126.9259125  93.4600986 123.2456483
 126.5430012  93.5244997 125.9349988 125.6070012  93.6244997 126.1139988
 126.8230012  92.8154997 126.5139988 126.4529553  93.4423406 126.0377087
 129.5310012  82.5914997 137.9819988 129.1240012  83.0724997 137.2609988
 129.5720012  81.6864997 137.6739988 129.4808437  82.5349374 137.8416683
 116.6800012  88.9754997 135.9789988 116.8960012  88.6144997 136.8379988
 115.8250012  88.6014997 135.7689988 116.5939292  88.8754111 136.0683386
 119.2990012  77.4454997 131.9739988 118.4370012  77.3584997 131.5659988
 119.2760012  78.3014997 132.4019988 119.1780409  77.5492883 131.9760589
 123.9620012  77.1674997 135.3489988 124.3820012  76.7524997 136.1019988
 123.0290012  76.9894997 135.4659988 123.8933644  77.0865900 135.4679539
 127.2880012  80.9234997 136.2019988 126.7740012  80.7974997 136.9999988
 127.1330012  81.8354997 135.9579988 127.1966852  81.0296132 136.2782158
 128.0510012  85.7844997 121.9639988 128.0930012  85.5614997 121.0339988
 128.9000012  86.1834997 122.1529988 128.1715280  85.8079438 121.8623554
 123.6230012  79.6604997 122.6339988 123.3700012  79.6794997 123.5569988
 123.3670012  78.7884997 122.3319988 123.5537481  79.5452558 122.7196175
 119.3900012  82.4114997 133.0689988 118.7480012  82.3704997 133.7779988
 119.4270012  83.3374997 132.8309988 119.3070664  82.5311430 133.1339219
 119.3870012  82.6324997 127.9809988 118.4940012  82.2914997 127.9219988
 119.8370012  82.2554997 127.2249988 119.3258130  82.5349631 127.8707702
 124.9220012  83.0484997 126.7979988 124.5130012  83.8634997 126.5069988
 125.6430012  82.9084997 126.1839988 124.9634537  83.1412018 126.6751342
 124.0240012  83.2234997 138.2859988 123.4620012  82.5194997 138.6069988
 124.8510012  83.1034997 138.7539988 124.0587095  83.1107883 138.3932330
 125.9270012  82.4944997 129.6119988 125.7320012  83.0994997 128.8969988
 126.1080012  81.6604997 129.1779988 125.9247614  82.4646300 129.4554405
 117.1400012  82.7314997 134.9359988 117.1020012  83.1314997 135.8049988
 116.6490012  81.9144997 135.0269988 117.0684684  82.6758069 135.0671059
 120.5060012  80.1054997 121.7349988 120.0750012  79.6604997 122.4649988
 119.7880012  80.4774997 121.2229988 120.3499438  80.0948940 121.7656799
 113.7480012  79.8474997 128.7869988 114.3790012  79.8184997 129.5059988
 114.1970012  79.4224997 128.0559988 113.8950918  79.7860836 128.7866441
 115.0220012  80.5934997 124.2109988 115.4960012  81.1844997 123.6259988
 114.3050012  81.1244997 124.5579988 114.9899341  80.7460867 124.1778836
 125.1910012  84.1324997 134.2829988 125.5140012  83.5014997 133.6399988
 124.7510012  83.5974997 134.9439988 125.1757484  83.9738387 134.2843198
 121.9680012  80.0594997 129.0669988 121.0570012  80.1164997 129.3559988
 122.4740012  79.9994997 129.8779988 121.9116899  80.0591941 129.2161184
 116.7970012  81.6884997 127.8939988 115.9070012  81.7884997 127.5539988
 117.0930012  80.8464997 127.5479988 116.7152823  81.5883545 127.8007213
 120.4500012  81.6884997 125.5509988 121.3810012  81.8174997 125.7289988
 120.2350012  82.3584997 124.9009988 120.5484247  81.7966565 125.4875747
 126.3730012  79.2944997 132.3319988 125.6970012  79.4254997 132.9959988
 125.8880012  79.1394997 131.5209988 126.2147146  79.2915157 132.3134469
 119.1240012  82.8834997 123.1169988 118.5810012  82.5034997 122.4259988
 119.9570012  83.0774997 122.6889988 119.1623631  82.8577125 122.9644501
 129.6610012  94.9664997 138.6079988 129.8610012  95.3904997 137.7739988
 130.3160012  95.3094997 139.2149988 129.7770072  95.0709857 138.5758592
 117.2590012  87.4404997 138.2159988 117.9910012  87.6944997 138.7779988
 116.4790012  87.6444997 138.7319988 117.2537073  87.5028160 138.3626151
 123.2880012  82.8474997 130.9539988 123.8530012  82.3004997 130.4069988
 123.1410012  82.3254997 131.7429988 123.3453380  82.7022259 130.9858695
 118.2900012  78.9834997 127.3729988 117.9730012  78.0814997 127.3369988
 119.0720012  78.9854997 126.8199988 118.3522408  78.8602474 127.2933569
 121.9150012  81.2354997 133.3679988 121.0790012  81.6894997 133.4789988
 122.4390012  81.5114997 134.1199988 121.8715416  81.3348660 133.4848119
 122.4590012  87.4484997 125.0529988 121.7140012  86.9414997 124.7309988
 122.3250012  87.4974997 125.9999988 122.3388776  87.3856940 125.1368647
 129.6090012  86.5814997 133.8399988 130.2510012  87.0384997 133.2959988
 128.7790012  86.6944997 133.3769988 129.5845963  86.6592704 133.7030177
 126.3570012  80.2624997 123.2519988 125.4180012  80.3744997 123.1009988
 126.6540012  81.1194997 123.5589988 126.2687583  80.3935981 123.2728337
 123.9780012  87.6324997 136.2899988 123.6330012  87.2514997 137.0969988
 123.7780012  88.5664997 136.3609988 123.9037527  87.7065135 136.4100689
 127.0750012  82.1294997 124.9129988 127.9670012  81.9924997 125.2319988
 127.1320012  82.9204997 124.3759988 127.2046504  82.2176052 124.8840818
 117.5840012  86.7434997 130.8229988 118.3290012  86.7414997 130.2219988
 117.6620012  85.9204997 131.3039988 117.6964995  86.6318887 130.8058282
 124.5850012  88.9074997 124.0789988 124.2890012  89.7334997 124.4599988
 123.8820012  88.2874997 124.2749988 124.4494914  88.9368199 124.1576443
 114.5920012  85.2044997 136.1379988 114.8150012  84.7864997 136.9699988
 113.9900012  84.5914997 135.7149988 114.5411759  85.0644668 136.1947022
 121.6080012  84.7214997 138.3509988 121.3120012  84.5554997 137.4559988
 122.5400012  84.5014997 138.3399988 121.6934166  84.6690640 138.2270536
 126.2290012  90.0944997 136.2409988 125.3280012  90.2774997 135.9729988
 126.2630012  90.3534997 137.1609988 126.1103139  90.1545849 136.3288099
 131.9600012  82.3394997 124.6079988 131.4060012  81.9434997 123.9359988
 132.0600012  83.2494997 124.3299988 131.8977059  82.4083586 124.4784401
 131.9230012  88.1394997 137.4449988 131.0720012  88.3774997 137.0779988
 132.5140012  88.1224997 136.6919988 131.8862487  88.1698258 137.2928893
 130.2550012  91.1254997 125.0729988 129.8820012  90.2994997 125.3819988
 130.5330012  90.9424997 124.1749988 130.2415222  90.9877430 124.9939473
 127.4160012  85.9334997 132.0939988 126.4870012  85.7014997 132.0669988
 127.8670012  85.1564997 131.7639988 127.3499216  85.7967238 132.0456917
 119.9590012  90.2614997 128.2269988 120.4860012  91.0344997 128.0269988
 119.0790012  90.4864997 127.9249988 119.9122031  90.3977545 128.1587912
 115.7140012  85.1234997 122.8139988 116.3300012  85.7504997 123.1939988
 114.8520012  85.4394997 123.0859988 115.6817698  85.2519430 122.9027183
 121.3860012  87.9244997 127.8029988 121.1450012  88.8494997 127.8449988
 120.6450012  87.4654997 128.1999988 121.2529225  87.9890933 127.8623742
 121.9010012  92.0734997 134.1189988 122.2630012  92.9284997 133.8849988
 122.4320012  91.7814997 134.8589988 122.0224473  92.1511060 134.1870855
 120.0690012  92.9464997 127.3489988 119.1190012  93.0514997 127.3999988
 120.4210012  93.7664997 127.6929988 119.9864195  93.0718800 127.4025502
 125.4450012  88.1724997 133.8189988 125.0190012  87.9454997 134.6459988
 126.0250012  87.4344997 133.6369988 125.4651868  88.0415299 133.9075830
 127.6480012  89.1014997 122.8929988 128.0010012  88.7214997 123.6969988
 126.6990012  89.0084997 122.9799988 127.5680918  89.0368956 123.0148532
 128.1030012  92.7244997 136.2889988 127.5020012  92.1694997 135.7929988
 128.3850012  93.3914997 135.6619988 128.0588804  92.7386625 136.1364849
 132.1510012  93.5814997 123.0939988 132.8950012  94.1674997 122.9539988
 131.4570012  94.1494997 123.4269988 132.1589899  93.7385798 123.1198778
 116.2260012  79.9574997 135.6959988 115.3330012  80.2964997 135.6279988
 116.1270012  79.1024997 136.1139988 116.0904164  79.8882588 135.7432235
 128.5140012  87.7744997 125.1199988 128.2360012  87.0464997 125.6759988
 129.4410012  87.8934997 125.3249988 128.6013124  87.6908802 125.2238845
 115.8770012  91.7624997 134.1309988 116.0940012  90.8304997 134.0999988
 116.1230012  92.0364997 135.0139988 115.9399549  91.6720636 134.2461763
 121.7390012  90.2134997 121.3399988 121.9780012  89.4654997 120.7929988
 121.4700012  89.8254997 122.1729988 121.7353675  90.0586638 121.3776865
 120.6760012  89.7834997 123.7959988 120.8220012  89.2634997 124.5859988
 120.6730012  90.6904997 124.1029988 120.6955792  89.8348842 123.9456117
 117.1290012  87.0364997 124.3069988 116.4430012  87.3884997 124.8739988
 117.6510012  87.7994997 124.0599988 117.1056852  87.1878578 124.3512118
 124.9600012  79.6984997 134.5859988 125.6590012  79.7724997 135.2359988
 124.5790012  78.8344997 134.7399988 125.0041767  79.5917624 134.6958322
 125.7450012  79.3504997 125.6829988 125.9650012  79.8224997 124.8799988
 126.3030012  79.7454997 126.3529988 125.8504968  79.4684285 125.6637331
 123.4130012  91.4814997 124.5459988 122.5970012  91.9784997 124.5979988
 123.9430012  91.9564997 123.9059988 123.3729161  91.6137722 124.4665956
 122.9450012  81.0784997 126.5179988 123.7570012  81.5834997 126.5639988
 122.7000012  80.9334997 127.4319988 123.0230520  81.1280375 126.6478517
 123.4800012  82.0644997 135.7019988 123.5990012  82.6384997 136.4599988
 124.1360012  81.3764997 135.8169988 123.5849025  82.0499858 135.8211321
 123.8280012  78.1594997 127.4559988 123.4820012  78.7774997 128.0999988
 124.4870012  78.6604997 126.9739988 123.8696968  78.3116278 127.4789383
 120.7520012  92.5254997 124.5269988 120.9120012  93.3244997 124.0269988
 120.5540012  92.8314997 125.4119988 120.7471637  92.6764020 124.5781144
 119.4860012  79.2224997 124.1429988 119.4030012  80.1114997 124.4899988
 120.3760012  78.9574997 124.3749988 119.5949469  79.3081430 124.2217626
 129.6850012  79.9714997 136.5369988 128.7680012  80.2344997 136.4499988
 130.0200012  79.9684997 135.6409988 129.6048613  80.0070761 136.4038837
 128.2870012  83.7224997 130.6329988 127.4890012  83.3074997 130.3049988
 128.7320012  83.0314997 131.1239988 128.2379885  83.5723543 130.6544889
 117.7450012  89.6504997 123.2039988 118.3370012  90.3494997 123.4799988
 118.2040012  89.2174997 122.4839988 117.8881142  89.6877049 123.1444830
 116.0610012  82.3144997 122.3199988 116.0160012  83.2534997 122.4979988
 115.1730012  82.0784997 122.0499988 115.9348574  82.4111892 122.3078912
 129.3730012  92.9784997 132.2559988 129.2180012  93.6564997 131.5979988
 130.3060012  93.0504997 132.4589988 129.4778657  93.0809546 132.1934360
 116.8690012  77.0964997 130.9929988 116.6400012  77.1554997 130.0649988
 116.4260012  76.3044997 131.2989988 116.7778530  76.9975753 130.9074786
 115.7990012  91.0364997 127.1529988 114.9670012  91.5094997 127.1799988
 116.3450012  91.5464997 126.5549988 115.7590352  91.1701332 127.0758463
 115.0870012  93.6494997 138.4829988 115.6280012  93.4324997 139.2429988
 114.6060012  92.8434997 138.2929988 115.0959951  93.5109270 138.5612576
 119.6850012  92.5684997 140.1029988 120.4520012  92.1094997 140.4439988
 119.6630012  92.3424997 139.1739988 119.7871275  92.4750186 140.0240101
 123.7770012  92.0764997 121.4789988 123.1330012  91.4454997 121.7999988
 124.5390012  91.5454997 121.2469988 123.7918077  91.9182920 121.4916011
 126.2620012  90.9484997 138.8329988 125.9110012  90.0924997 139.0759988
 126.9880012  91.0914997 139.4399988 126.3120769  90.8505636 138.9483619
 128.3810012  91.8934997 121.7119988 128.6640012  91.0994997 122.1649988
 129.1210012  92.1264997 121.1519988 128.5198006  91.8163376 121.6982715
 114.9940012  87.4594997 139.4369988 115.1380012  86.5574997 139.1509988
 114.2220012  87.7454997 138.9499988 114.9092753  87.3746816 139.3319505
 119.3360012  87.8034997 121.5699988 119.4000012  87.0094997 122.1009988
 119.9890012  87.6844997 120.8799988 119.4330241  87.6787148 121.5494317
 121.6500012  87.4294997 138.8699988 121.3210012  87.7004997 138.0129988
 121.8020012  86.4884997 138.7829988 121.6254809  87.3393862 138.7408244
 124.6880012  88.8504997 121.3059988 124.4190012  89.0304997 122.2069988
 124.4820012  87.9244997 121.1739988 124.6233427  88.7500261 121.4115073
 127.3840012  87.3454997 136.2529988 128.1300012  87.9334997 136.1339988
 126.6270012  87.9274997 136.3169988 127.3837820  87.5047143 136.2453590
 115.8270012  84.6594997 138.8569988 116.2350012  83.8024997 138.7359988
 115.5670012  84.6744997 139.7779988 115.8477568  84.5440807 138.9649588
 120.4850012  85.7754997 123.8759988 120.0250012  85.2914997 124.5619988
 120.7400012  85.1074997 123.2399988 120.4564902  85.6188731 123.8839334
 119.7740012  83.6684997 136.2319988 119.1560012  84.3434997 136.5119988
 120.1180012  83.9894997 135.3979988 119.7359132  83.8042411 136.1576262
 121.5560012  84.0184997 122.1379988 121.3760012  83.8644997 121.2109988
 122.5060012  84.1264997 122.1829988 121.6597776  84.0120175 122.0171843
 124.7940012  86.1404997 139.5089988 125.7470012  86.2234997 139.4819988
 124.6330012  85.4284997 140.1289988 124.9026426  86.0556746 139.5890579
 130.9460012  86.3734997 121.5839988 130.6720012  85.9484997 120.7709988
 130.9850012  87.3044997 121.3669988 130.9137699  86.4412484 121.4433610
 120.1130012  81.0234997 137.3139988 120.2630012  80.2944997 136.7119988
 120.1160012  81.8004997 136.7549988 120.1339302  81.0287851 137.1560692
 120.5260012  79.3934997 134.8069988 121.0620012  79.8444997 134.1549988
 119.6740012  79.2854997 134.3839988 120.4842178  79.4406390 134.6605756
 122.1080012  84.8324997 135.0459988 122.8580012  84.6764997 134.4729988
 121.7690012  85.6844997 134.7709988 122.1648921  84.9262968 134.9303561
 126.5230012  82.6474997 140.0749988 126.7160012  81.7164997 139.9629988
 127.3810012  83.0724997 140.0639988 126.6652934  82.5776531 140.0582031
 127.8400012  85.4364997 138.1519988 127.5590012  86.1454997 137.5739988
 128.7830012  85.3634997 138.0009988 127.9289291  85.5236711 138.0524967
 118.5920012  82.2214997 139.2259988 117.8250012  81.6894997 139.0149988
 119.2710012  81.9114997 138.6259988 118.5787877  82.1068300 139.1160716
 121.3320012  76.8494997 135.2379988 121.2330012  77.7964997 135.1329988
 120.5890012  76.4774997 134.7619988 121.2181184  76.9285863 135.1593621
 122.5960012  81.1714997 138.8019988 122.3600012  80.9514997 139.7029988
 121.8120012  80.9644997 138.2919988 122.4578504  81.1134586 138.8563431
 125.3110012  80.2984997 137.8769988 124.3640012  80.3304997 138.0099988
 125.6240012  79.6734997 138.5309988 125.2236707  80.2183998 137.9836060
 126.9450012  78.9324997 139.8829988 126.8490012  77.9804997 139.8769988
 126.6240012  79.2014997 140.7429988 126.8884070  78.8384035 139.9985441
 116.7720012  80.1424997 138.9299988 116.9840012  79.4354997 138.3199988
 116.6610012  79.7044997 139.7739988 116.7859721  79.9867084 138.9606843
 121.5530012  76.1434997 137.9089988 122.2650012  75.5034997 137.8949988
 121.4520012  76.4104997 136.9959988 121.6368066  76.0920079 137.7835677
 121.9070012  77.8264997 139.9629988 121.7750012  77.3504997 139.1429988
 121.3080012  78.5704997 139.9079988 121.8079071  77.8619618 139.8432886
 121.4530012  94.7094997 123.1389988 122.3860012  94.8674997 123.2829988
 121.1890012  95.3844997 122.5149988 121.5449888  94.8224510 123.0742842
 115.0220012  89.3454997 122.6219988 115.9360012  89.4244997 122.8959988
 115.0290012  88.6584997 121.9559988 115.1481131  89.2633961 122.5694393
 113.6710012  94.7384997 127.6999988 113.0240012  94.2764997 127.1669988
 114.0250012  94.0664997 128.2819988 113.6303849  94.5844723 127.7057959
 114.5410012  92.8194997 129.5039988 114.2060012  91.9394997 129.6759988
 114.7630012  93.1644997 130.3689988 114.5251783  92.7457500 129.6444208
 132.0890012  93.6284997 132.4849988 132.0680012  93.8134997 133.4239988
 132.7800012  94.1974997 132.1439988 132.1794618  93.7306606 132.5673864
 131.6530012  93.1964997 135.4069988 131.1650012  92.4604997 135.0349988
 132.2020012  92.8024997 136.0849988 131.6604820  93.0425889 135.4477813
 130.1030012  88.9854997 140.0449988 129.2370012  88.8804997 140.4389988
 130.4800012  89.7444997 140.4909988 130.0353308  89.0736900 140.1592393
 131.4040012  87.2424997 125.5589988 132.2540012  87.6634997 125.6859988
 131.4100012  86.5024997 126.1659988 131.5211372  87.2000803 125.6584344
 131.7990012  85.2954997 127.3819988 131.0720012  84.8164997 127.7799988
 132.3800012  85.5014997 128.1149988 131.7780473  85.2578103 127.5354528
 131.5580012  88.0804997 132.3299988 132.3910012  87.7024997 132.0499988
 131.6700012  89.0234997 132.2109988 131.6872647  88.1562218 132.2755487
 130.0440012  90.9584997 134.6369988 129.3970012  91.2834997 135.2629988
 129.5270012  90.5184997 133.9629988 129.8854029  90.9435004 134.6315827
 132.0670012  85.1964997 123.7739988 131.5450012  85.5534997 123.0549988
 132.0340012  85.8714997 124.4519988 131.9911634  85.3365413 123.7673145
 130.4160012  82.4364997 122.3239988 130.5120012  83.1034997 121.6439988
 130.2760012  81.6204997 121.8429988 130.4102272  82.4175655 122.1658347
 129.5850012  83.8164997 127.9449988 129.4350012  82.8714997 127.9249988
 129.2320012  84.0974997 128.7889988 129.5167448  83.7251481 128.0563705
 114.6210012  85.8944997 131.9559988 114.8050012  85.8124997 131.0199988
 115.4700012  85.7704997 132.3789988 114.7610151  85.8665073 131.8851451
 130.4420012  85.7864997 137.5839988 131.0250012  85.0524997 137.7759988
 131.0060012  86.5584997 137.6309988 130.5979769  85.7904227 137.6166159
 131.9380012  83.6894997 138.2689988 131.0750012  83.3104997 138.1029988
 132.5430012  82.9504997 138.1939988 131.9016119  83.5378268 138.2361528
 129.6630012  79.8444997 121.4419988 130.2740012  79.4734997 122.0789988
 128.8270012  79.4234997 121.6379988 129.6335032  79.7367554 121.5557035
 129.2960012  81.3994997 126.4079988 129.5760012  80.4924997 126.5319988
 130.0550012  81.8334997 126.0189988 129.4369277  81.3340942 126.3723682
 129.9080012  81.9804997 131.8439988 130.8410012  82.1924997 131.8089988
 129.6730012  82.0824997 132.7659988 130.0039244  82.0233100 131.9638892
 129.9370012  82.7174997 134.6199988 129.0940012  82.9854997 134.9859988
 130.3790012  83.5394997 134.4089988 129.8814158  82.8653291 134.6415491
 114.2180012  81.1654997 138.0969988 115.1380012  81.0434997 138.3329988
 113.7690012  80.4154997 138.4859988 114.2831580  81.0473727 138.1819006
 132.2200012  76.6974997 139.9729988 132.5700012  76.0434997 139.3679988
 132.3670012  77.5344997 139.5329988 132.2877887  76.7211548 139.8306858
 129.9090012  78.6624997 126.4559988 130.0920012  78.2134997 127.2819988
 129.3100012  78.0774997 125.9929988 129.8530202  78.5219975 126.5063275
 115.4390012  79.4774997 130.9879988 115.8850012  78.6854997 131.2899988
 115.9060012  80.1934997 131.4179988 115.5630831  79.4660685 131.0874006
 113.7430012  82.4764997 132.0569988 114.2350012  82.2554997 131.2659988
 114.1060012  83.3174997 132.3379988 113.8593126  82.5598357 131.9867531
 131.7400012  78.8064997 138.3219988 130.8220012  79.0774997 138.2869988
 131.8630012  78.2714997 137.5379988 131.6309729  78.7712508 138.2111923
 131.7760012  78.7294997 122.9839988 132.1880012  78.0084997 122.5089988
 132.4580012  79.3994997 123.0429988 131.9245885  78.7212368 122.9268915
 114.0570012  78.7344997 126.1109988 113.1320012  78.9434997 125.9819988
 114.5110012  79.2184997 125.4209988 113.9917292  78.8285343 126.0000720
 128.8280012  93.7184997 128.0569988 129.4800012  93.3714997 127.4489988
 129.3380012  94.2074997 128.7029988 128.9862637  93.7370597 128.0610236
 114.0210012  77.4724997 134.4549988 113.3560012  77.2264997 135.0989988
 113.5780012  78.0944997 133.8779988 113.8701318  77.5229410 134.4650898
 116.2130012  90.6474997 138.5999988 115.3920012  90.8224997 138.1389988
 115.9600012  90.5744997 139.5199988 116.0665585  90.6615544 138.6613561
 119.1670012  91.6224997 134.8579988 118.7420012  92.4314997 134.5759988
 120.0710012  91.7074997 134.5559988 119.2309975  91.7449300 134.7784816
 123.4780012  93.0214997 137.8179988 123.6630012  92.6874997 138.6959988
 124.3240012  93.3304997 137.4959988 123.6177539  93.0176047 137.8945605
 125.8230012  94.3074997 137.0619988 126.5000012  93.6744997 136.8219988
 126.1450012  94.7084997 137.8689988 125.9591637  94.2751154 137.1382793
 130.7400012  76.8964997 136.1409988 129.9280012  77.2214997 135.7539988
 130.9730012  76.1364997 135.6079988 130.6602203  76.8382758 136.0158880
 116.5690012  94.8784997 134.9059988 115.8480012  95.3184997 134.4549988
 116.2030012  94.6274997 135.7539988 116.4209651  94.9047242 134.9589640
 119.0360012  94.4784997 133.9359988 118.1710012  94.5504997 134.3399988
 118.9810012  95.0254997 133.1519988 118.9102085  94.5622685 133.8853362
 123.7460012  94.3664997 133.1109988 123.2900012  94.8954997 132.4569988
 123.9090012  94.9694997 133.8359988 123.7056068  94.5204607 133.1194838
 126.0740012  93.2444997 134.0559988 125.1690012  93.4094997 133.7899988
 126.5030012  94.0974997 133.9909988 126.0081324  93.3824339 134.0107976
 128.6780012  94.8144997 134.3509988 128.4960012  95.7304997 134.1409988
 128.8550012  94.4044997 133.5049988 128.6770210  94.8844822 134.2077885
 115.9830012  93.5014997 131.8159988 115.9650012  93.0764997 132.6729988
 116.7880012  93.1834997 131.4069988 116.0893529  93.4003013 131.8780946
 118.1250012  92.2114997 130.4709988 117.9060012  91.2954997 130.6409988
 118.9490012  92.3514997 130.9369988 118.2064420  92.1050520 130.5572774
 120.6620012  92.6814997 131.3199988 120.8750012  91.7934997 131.0329988
 120.7260012  92.6474997 132.2739988 120.6998232  92.5553102 131.4097397
 124.1700012  78.3454997 130.4639988 123.4960012  77.7164997 130.7199988
 124.7340012  77.8614997 129.8609988 124.1539230  78.1938744 130.4175340
 129.3130012  76.4534997 130.5769988 129.9170012  77.0004997 130.0749988
 128.4430012  76.7724997 130.3359988 129.2781208  76.5715137 130.4756886
 131.0400012  77.5914997 128.9099988 131.6520012  77.0774997 128.3829988
 131.4220012  78.4694997 128.9329988 131.1753371  77.6397866 128.8410041
 116.4970012  76.9794997 128.2859988 115.7200012  76.7454997 127.7789988
 117.0270012  76.1824997 128.2949988 116.4622330  76.8396988 128.2177742
 115.3330012  76.7774997 124.0899988 115.7720012  77.3884997 123.4979988
 114.7000012  77.3154997 124.5639988 115.3074514  76.9339257 124.0730930
 121.0760012  76.9064997 128.0999988 121.9510012  77.2944997 128.0699988
 120.9400012  76.6914997 129.0219988 121.1773695  76.9305184 128.2206440
 126.6330012  76.9364997 129.7489988 126.7090012  77.0314997 128.7989988
 126.3580012  76.0284997 129.8779988 126.6062321  76.8267867 129.6365079
 127.9860012  76.9624997 125.4409988 127.2840012  77.5774997 125.2309988
 127.5420012  76.1244997 125.5719988 127.8296450  76.9335639 125.4299000
 115.2340012  92.7254997 124.9869988 114.5490012  92.6874997 124.3199988
 115.2380012  93.6384997 125.2759988 115.1406998  92.8436733 124.9346771
 117.1940012  78.6934997 122.5319988 117.6860012  78.0634997 122.0049988
 117.8180012  78.9894997 123.1949988 117.3455688  78.6473804 122.5495482
 122.2200012  78.9864997 124.9889988 122.3980012  78.3404997 125.6719988
 122.1670012  79.8204997 125.4559988 122.2371999  79.0108009 125.1455917
 124.0990012  93.9354997 123.3849988 124.9650012  94.3014997 123.2069988
 123.8520012  93.4954997 122.5709988 124.1842392  93.9261756 123.2506289
 130.8080012  93.4984997 126.0639988 130.6130012  92.7504997 125.4989988
 130.7690012  94.2564997 125.4809988 130.7760380  93.4986099 125.9078384
 116.4550012  77.4934997 137.8039988 116.0890012  76.7284997 138.2459988
 117.3680012  77.5224997 138.0899988 116.5282736  77.3925640 137.9032502
 118.4280012  76.8444997 139.3399988 119.3260012  76.5704997 139.1549988
 118.0410012  76.1014997 139.8039988 118.4986612  76.7065914 139.3773643
 117.0520012  93.6454997 122.0129988 116.7850012  93.9324997 122.8859988
 117.8240012  93.0994997 122.1649988 117.1197488  93.6110294 122.1531050
 126.8490012  76.1764997 139.5219988 126.9260012  75.7504997 140.3759988
 127.7430012  76.1904997 139.1789988 126.9803428  76.1200879 139.5925310
 130.0250012  92.2494997 138.2139988 129.2430012  92.0634997 137.6939988
 129.9530012  93.1784997 138.4319988 129.9082274  92.3496643 138.1723018
 144.4310012  86.1354997 128.2449988 144.5200012  87.0794997 128.1129988
 143.7930012  85.8604997 127.5869988 144.3569081  86.2274830 128.1379614
 143.3640012  85.3904997 131.6639988 143.3260012  84.7444997 132.3689988
 143.0420012  84.9244997 130.8929988 143.3152333  85.2389408 131.6562978
 135.7330012  85.0054997 133.2569988 135.7740012  84.3794997 133.9799988
 136.4360012  85.6294997 133.4389988 135.8336363  85.0041196 133.3806044
 136.6560012  89.4554997 131.7919988 136.2870012  88.6534997 131.4219988
 137.5970012  89.2864997 131.8379988 136.7327289  89.3230153 131.7476316
 133.2660012  83.1154997 127.1849988 132.8190012  83.9614997 127.1659988
 132.7050012  82.5354997 126.6689988 133.1289900  83.1529916 127.1126801
 133.9770012  85.2774997 129.3099988 134.1900012  84.5074997 129.8379988
 134.7150012  85.3664997 128.7069988 134.1059044  85.1841968 129.3007123
 144.1820012  93.4344997 130.1769988 144.8020012  92.7574997 129.9039988
 143.9740012  93.2164997 131.0859988 144.2386726  93.3124800 130.2624812
 141.7540012  87.8234997 132.0699988 142.0580012  87.1374997 131.4749988
 142.4750012  87.9414997 132.6879988 141.8930671  87.7456305 132.0721816
 144.8950012  82.2174997 132.3969988 145.0370012  81.2714997 132.4179988
 144.7880012  82.4244997 131.4689988 144.8999919  82.1158246 132.2743408
 138.0490012  80.3184997 129.6699988 138.0930012  81.1784997 129.2509988
 137.5920012  79.7664997 129.0359988 137.9932240  80.3614422 129.5269864
 134.6700012  82.7154997 130.4319988 135.3230012  82.1654997 130.8639988
 134.6940012  82.4414997 129.5149988 134.7626683  82.6031466 130.3672123
 139.8260012  84.2654997 129.6469988 140.4420012  83.7394997 130.1569988
 139.2400012  83.6254997 129.2439988 139.8310810  84.1069208 129.6623173
 136.8600012  79.2364997 133.7439988 136.6410012  79.7664997 132.9779988
 136.1920012  79.4634997 134.3909988 136.7397600  79.3396906 133.7266379
 144.2290012  88.7364997 127.2879988 143.9330012  88.4144997 126.4369988
 143.9040012  89.6364997 127.3289988 144.1446371  88.8140215 127.1771801
 139.4290012  86.9124997 134.0309988 138.6890012  87.5104997 134.1349988
 140.1430012  87.4664997 133.7159988 139.4242237  87.0692831 134.0026465
 136.4530012  81.1284997 131.6959988 137.0670012  81.7614997 132.0689988
 136.9650012  80.6564997 131.0399988 136.6061981  81.1512267 131.6582908
 137.8360012  88.8764997 134.8179988 137.8310012  89.7564997 134.4399988
 136.9830012  88.7934997 135.2429988 137.7199464  88.9856117 134.8237907
 133.9570012  88.5474997 125.5999988 133.6850012  88.7764997 124.7119988
 134.0030012  89.3854997 126.0609988 133.9259482  88.6921318 125.5406273
 140.8860012  76.5424997 131.1959988 140.7690012  75.5934997 131.1419988
 140.0310012  76.8744997 131.4699988 140.7544212  76.4575571 131.2256497
 143.1530012  85.3794997 125.6969988 142.4410012  85.9144997 125.3449988
 143.8440012  85.4354997 125.0369988 143.1490132  85.4602543 125.5596289
 143.2060012  83.8374997 122.7359988 143.9070012  83.8594997 123.3869988
 143.5090012  83.2094997 122.0789988 143.3428133  83.7557070 122.7363369
 138.2040012  86.2194997 128.5309988 137.8730012  85.8494997 127.7129988
 138.7920012  85.5494997 128.8779988 138.2381873  86.0781156 128.4658102
 139.5700012  89.6474997 131.2119988 139.4760012  89.0694997 130.4559988
 140.3000012  89.2764997 131.7089988 139.6557387  89.5181663 131.1755342
 138.5700012  84.9884997 132.1649988 139.1360012  85.1094997 131.4019988
 138.8890012  85.6254997 132.8029988 138.6905474  85.0912219 132.1469862
 144.8790012  90.4914997 132.8989988 144.6390012  91.1534997 133.5469988
 144.6810012  89.6574997 133.3239988 144.8193808  90.4693134 133.0451524
 139.4500012  89.3874997 136.8819988 139.1390012  90.1694997 137.3369988
 138.8000012  89.2344997 136.1959988 139.3195558  89.4739105 136.8515871
 136.3700012  85.5854997 136.1099988 136.4410012  86.2364997 136.8089988
 135.4800012  85.6884997 135.7749988 136.2593005  85.6885427 136.1603495
 143.1560012  91.4884997 127.7689988 143.6300012  91.7834997 128.5459988
 142.5930012  92.2264997 127.5359988 143.1448184  91.6287247 127.8439628
 137.6900012  91.4594997 137.6449988 137.6970012  91.3234997 136.6979988
 136.7740012  91.3414997 137.8969988 137.5671714  91.4249430 137.5494666
 137.1940012  85.2894997 126.1199988 136.9020012  86.0574997 125.6299988
 136.5200012  84.6294997 125.9579988 137.0628111  85.3055587 126.0308978
 133.2870012  87.6524997 134.9349988 132.7860012  87.6244997 134.1199988
 133.2920012  86.7464997 135.2449988 133.2190944  87.5262396 134.8653226
 133.0370012  90.4324997 131.8189988 133.9830012  90.2884997 131.7999988
 132.9250012  91.2164997 132.3559988 133.1512727  90.5188046 131.8890072
 142.2140012  90.6724997 136.3779988 142.3010012  91.4984997 136.8529988
 141.3500012  90.3424997 136.6269988 142.1091964  90.7409878 136.4766549
 142.6280012  94.4444997 126.1839988 142.5530012  94.3234997 125.2369988
 142.6610012  95.3944997 126.3019988 142.6222068  94.5562646 126.0704967
 136.2810012  93.2334997 127.9649988 136.4340012  92.8854997 128.8429988
 135.4310012  92.8774997 127.7099988 136.1869166  93.1376216 128.0508079
 135.5360012  88.9754997 135.9789988 135.7520012  88.6144997 136.8379988
 134.6810012  88.6014997 135.7689988 135.4499292  88.8754111 136.0683386
 138.1550012  77.4454997 131.9739988 137.2930012  77.3584997 131.5659988
 138.1320012  78.3014997 132.4019988 138.0340409  77.5492883 131.9760589
 142.8180012  77.1674997 135.3489988 143.2380012  76.7524997 136.1019988
 141.8850012  76.9894997 135.4659988 142.7493644  77.0865900 135.4679539
 142.4790012  79.6604997 122.6339988 142.2260012  79.6794997 123.5569988
 142.2230012  78.7884997 122.3319988 142.4097481  79.5452558 122.7196175
 138.2460012  82.4114997 133.0689988 137.6040012  82.3704997 133.7779988
 138.2830012  83.3374997 132.8309988 138.1630664  82.5311430 133.1339219
 138.2430012  82.6324997 127.9809988 137.3500012  82.2914997 127.9219988
 138.6930012  82.2554997 127.2249988 138.1818130  82.5349631 127.8707702
 143.7780012  83.0484997 126.7979988 143.3690012  83.8634997 126.5069988
 144.4990012  82.9084997 126.1839988 143.8194537  83.1412018 126.6751342
 142.8800012  83.2234997 138.2859988 142.3180012  82.5194997 138.6069988
 143.7070012  83.1034997 138.7539988 142.9147095  83.1107883 138.3932330
 144.7830012  82.4944997 129.6119988 144.5880012  83.0994997 128.8969988
 144.9640012  81.6604997 129.1779988 144.7807614  82.4646300 129.4554405
 135.9960012  82.7314997 134.9359988 135.9580012  83.1314997 135.8049988
 135.5050012  81.9144997 135.0269988 135.9244684  82.6758069 135.0671059
 139.3620012  80.1054997 121.7349988 138.9310012  79.6604997 122.4649988
 138.6440012  80.4774997 121.2229988 139.2059438  80.0948940 121.7656799
 132.6040012  79.8474997 128.7869988 133.2350012  79.8184997 129.5059988
 133.0530012  79.4224997 128.0559988 132.7510918  79.7860836 128.7866441
 133.8780012  80.5934997 124.2109988 134.3520012  81.1844997 123.6259988
 133.1610012  81.1244997 124.5579988 133.8459341  80.7460867 124.1778836
 144.0470012  84.1324997 134.2829988 144.3700012  83.5014997 133.6399988
 143.6070012  83.5974997 134.9439988 144.0317484  83.9738387 134.2843198
 140.8240012  80.0594997 129.0669988 139.9130012  80.1164997 129.3559988
 141.3300012  79.9994997 129.8779988 140.7676899  80.0591941 129.2161184
 135.6530012  81.6884997 127.8939988 134.7630012  81.7884997 127.5539988
 135.9490012  80.8464997 127.5479988 135.5712823  81.5883546 127.8007213
 139.3060012  81.6884997 125.5509988 140.2370012  81.8174997 125.7289988
 139.0910012  82.3584997 124.9009988 139.4044247  81.7966565 125.4875747
 137.9800012  82.8834997 123.1169988 137.4370012  82.5034997 122.4259988
 138.8130012  83.0774997 122.6889988 138.0183631  82.8577125 122.9644501
 136.1150012  87.4404997 138.2159988 136.8470012  87.6944997 138.7779988
 135.3350012  87.6444997 138.7319988 136.1097073  87.5028160 138.3626151
 142.1440012  82.8474997 130.9539988 142.7090012  82.3004997 130.4069988
 141.9970012  82.3254997 131.7429988 142.2013380  82.7022259 130.9858695
 137.1460012  78.9834997 127.3729988 136.8290012  78.0814997 127.3369988
 137.9280012  78.9854997 126.8199988 137.2082408  78.8602474 127.2933569
 140.7710012  81.2354997 133.3679988 139.9350012  81.6894997 133.4789988
 141.2950012  81.5114997 134.1199988 140.7275416  81.3348660 133.4848119
 141.3150012  87.4484997 125.0529988 140.5700012  86.9414997 124.7309988
 141.1810012  87.4974997 125.9999988 141.1948776  87.3856940 125.1368647
 142.8340012  87.6324997 136.2899988 142.4890012  87.2514997 137.0969988
 142.6340012  88.5664997 136.3609988 142.7597527  87.7065135 136.4100689
 136.4400012  86.7434997 130.8229988 137.1850012  86.7414997 130.2219988
 136.5180012  85.9204997 131.3039988 136.5524995  86.6318887 130.8058282
 143.4410012  88.9074997 124.0789988 143.1450012  89.7334997 124.4599988
 142.7380012  88.2874997 124.2749988 143.3054914  88.9368199 124.1576443
 133.4480012  85.2044997 136.1379988 133.6710012  84.7864997 136.9699988
 132.8460012  84.5914997 135.7149988 133.3971759  85.0644668 136.1947022
 140.4640012  84.7214997 138.3509988 140.1680012  84.5554997 137.4559988
 141.3960012  84.5014997 138.3399988 140.5494166  84.6690640 138.2270536
 138.8150012  90.2614997 128.2269988 139.3420012  91.0344997 128.0269988
 137.9350012  90.4864997 127.9249988 138.7682031  90.3977545 128.1587912
 134.5700012  85.1234997 122.8139988 135.1860012  85.7504997 123.1939988
 133.7080012  85.4394997 123.0859988 134.5377698  85.2519430 122.9027183
 140.2420012  87.9244997 127.8029988 140.0010012  88.8494997 127.8449988
 139.5010012  87.4654997 128.1999988 140.1089225  87.9890933 127.8623742
 140.7570012  92.0734997 134.1189988 141.1190012  92.9284997 133.8849988
 141.2880012  91.7814997 134.8589988 140.8784473  92.1511060 134.1870855
 138.9250012  92.9464997 127.3489988 137.9750012  93.0514997 127.3999988
 139.2770012  93.7664997 127.6929988 138.8424195  93.0718800 127.4025502
 144.3010012  88.1724997 133.8189988 143.8750012  87.9454997 134.6459988
 144.8810012  87.4344997 133.6369988 144.3211868  88.0415299 133.9075830
 135.0820012  79.9574997 135.6959988 134.1890012  80.2964997 135.6279988
 134.9830012  79.1024997 136.1139988 134.9464164  79.8882588 135.7432235
 134.7330012  91.7624997 134.1309988 134.9500012  90.8304997 134.0999988
 134.9790012  92.0364997 135.0139988 134.7959549  91.6720636 134.2461763
 140.5950012  90.2134997 121.3399988 140.8340012  89.4654997 120.7929988
 140.3260012  89.8254997 122.1729988 140.5913675  90.0586638 121.3776865
 139.5320012  89.7834997 123.7959988 139.6780012  89.2634997 124.5859988
 139.5290012  90.6904997 124.1029988 139.5515792  89.8348842 123.9456117
 135.9850012  87.0364997 124.3069988 135.2990012  87.3884997 124.8739988
 136.5070012  87.7994997 124.0599988 135.9616852  87.1878578 124.3512118
 143.8160012  79.6984997 134.5859988 144.5150012  79.7724997 135.2359988
 143.4350012  78.8344997 134.7399988 143.8601767  79.5917624 134.6958322
 144.6010012  79.3504997 125.6829988 144.8210012  79.8224997 124.8799988
 145.1590012  79.7454997 126.3529988 144.7064968  79.4684285 125.6637331
 142.2690012  91.4814997 124.5459988 141.4530012  91.9784997 124.5979988
 142.7990012  91.9564997 123.9059988 142.2289161  91.6137722 124.4665956
 141.8010012  81.0784997 126.5179988 142.6130012  81.5834997 126.5639988
 141.5560012  80.9334997 127.4319988 141.8790520  81.1280375 126.6478517
 142.3360012  82.0644997 135.7019988 142.4550012  82.6384997 136.4599988
 142.9920012  81.3764997 135.8169988 142.4409025  82.0499858 135.8211321
 142.6840012  78.1594997 127.4559988 142.3380012  78.7774997 128.0999988
 143.3430012  78.6604997 126.9739988 142.7256968  78.3116278 127.4789383
 139.6080012  92.5254997 124.5269988 139.7680012  93.3244997 124.0269988
 139.4100012  92.8314997 125.4119988 139.6031637  92.6764020 124.5781144
 138.3420012  79.2224997 124.1429988 138.2590012  80.1114997 124.4899988
 139.2320012  78.9574997 124.3749988 138.4509469  79.3081430 124.2217626
 136.6010012  89.6504997 123.2039988 137.1930012  90.3494997 123.4799988
 137.0600012  89.2174997 122.4839988 136.7441142  89.6877049 123.1444830
 134.9170012  82.3144997 122.3199988 134.8720012  83.2534997 122.4979988
 134.0290012  82.0784997 122.0499988 134.7908574  82.4111892 122.3078912
 135.7250012  77.0964997 130.9929988 135.4960012  77.1554997 130.0649988
 135.2820012  76.3044997 131.2989988 135.6338530  76.9975753 130.9074786
 134.6550012  91.0364997 127.1529988 133.8230012  91.5094997 127.1799988
 135.2010012  91.5464997 126.5549988 134.6150352  91.1701332 127.0758463
 133.9430012  93.6494997 138.4829988 134.4840012  93.4324997 139.2429988
 133.4620012  92.8434997 138.2929988 133.9519951  93.5109270 138.5612576
 138.5410012  92.5684997 140.1029988 139.3080012  92.1094997 140.4439988
 138.5190012  92.3424997 139.1739988 138.6431275  92.4750186 140.0240101
 142.6330012  92.0764997 121.4789988 141.9890012  91.4454997 121.7999988
 143.3950012  91.5454997 121.2469988 142.6478077  91.9182920 121.4916011
 133.8500012  87.4594997 139.4369988 133.9940012  86.5574997 139.1509988
 133.0780012  87.7454997 138.9499988 133.7652753  87.3746816 139.3319505
 138.1920012  87.8034997 121.5699988 138.2560012  87.0094997 122.1009988
 138.8450012  87.6844997 120.8799988 138.2890241  87.6787148 121.5494317
 140.5060012  87.4294997 138.8699988 140.1770012  87.7004997 138.0129988
 140.6580012  86.4884997 138.7829988 140.4814809  87.3393862 138.7408244
 143.5440012  88.8504997 121.3059988 143.2750012  89.0304997 122.2069988
 143.3380012  87.9244997 121.1739988 143.4793427  88.7500261 121.4115073
 134.6830012  84.6594997 138.8569988 135.0910012  83.8024997 138.7359988
 134.4230012  84.6744997 139.7779988 134.7037568  84.5440807 138.9649588
 139.3410012  85.7754997 123.8759988 138.8810012  85.2914997 124.5619988
 139.5960012  85.1074997 123.2399988 139.3124902  85.6188731 123.8839334
 138.6300012  83.6684997 136.2319988 138.0120012  84.3434997 136.5119988
 138.9740012  83.9894997 135.3979988 138.5919132  83.8042411 136.1576262
 140.4120012  84.0184997 122.1379988 140.2320012  83.8644997 121.2109988
 141.3620012  84.1264997 122.1829988 140.5157776  84.0120175 122.0171843
 143.6500012  86.1404997 139.5089988 144.6030012  86.2234997 139.4819988
 143.4890012  85.4284997 140.1289988 143.7586426  86.0556746 139.5890579
 138.9690012  81.0234997 137.3139988 139.1190012  80.2944997 136.7119988
 138.9720012  81.8004997 136.7549988 138.9899302  81.0287851 137.1560692
 139.3820012  79.3934997 134.8069988 139.9180012  79.8444997 134.1549988
 138.5300012  79.2854997 134.3839988 139.3402178  79.4406390 134.6605756
 140.9640012  84.8324997 135.0459988 141.7140012  84.6764997 134.4729988
 140.6250012  85.6844997 134.7709988 141.0208921  84.9262968 134.9303561
 137.4480012  82.2214997 139.2259988 136.6810012  81.6894997 139.0149988
 138.1270012  81.9114997 138.6259988 137.4347877  82.1068300 139.1160716
 140.1880012  76.8494997 135.2379988 140.0890012  77.7964997 135.1329988
 139.4450012  76.4774997 134.7619988 140.0741184  76.9285863 135.1593621
 141.4520012  81.1714997 138.8019988 141.2160012  80.9514997 139.7029988
 140.6680012  80.9644997 138.2919988 141.3138504  81.1134586 138.8563431
 144.1670012  80.2984997 137.8769988 143.2200012  80.3304997 138.0099988
 144.4800012  79.6734997 138.5309988 144.0796707  80.2183998 137.9836060
 135.6280012  80.1424997 138.9299988 135.8400012  79.4354997 138.3199988
 135.5170012  79.7044997 139.7739988 135.6419721  79.9867084 138.9606843
 140.4090012  76.1434997 137.9089988 141.1210012  75.5034997 137.8949988
 140.3080012  76.4104997 136.9959988 140.4928066  76.0920079 137.7835677
 140.7630012  77.8264997 139.9629988 140.6310012  77.3504997 139.1429988
 140.1640012  78.5704997 139.9079988 140.6639071  77.8619618 139.8432886
 140.3090012  94.7094997 123.1389988 141.2420012  94.8674997 123.2829988
 140.0450012  95.3844997 122.5149988 140.4009888  94.8224510 123.0742842
 133.8780012  89.3454997 122.6219988 134.7920012  89.4244997 122.8959988
 133.8850012  88.6584997 121.9559988 134.0041131  89.2633961 122.5694393
 132.5270012  94.7384997 127.6999988 131.8800012  94.2764997 127.1669988
 132.8810012  94.0664997 128.2819988 132.4863849  94.5844723 127.7057959
 133.3970012  92.8194997 129.5039988 133.0620012  91.9394997 129.6759988
 133.6190012  93.1644997 130.3689988 133.3811783  92.7457500 129.6444208
 133.4770012  85.8944997 131.9559988 133.6610012  85.8124997 131.0199988
 134.3260012  85.7704997 132.3789988 133.6170151  85.8665073 131.8851451
 133.0740012  81.1654997 138.0969988 133.9940012  81.0434997 138.3329988
 132.6250012  80.4154997 138.4859988 133.1391580  81.0473727 138.1819006
 134.2950012  79.4774997 130.9879988 134.7410012  78.6854997 131.2899988
 134.7620012  80.1934997 131.4179988 134.4190831  79.4660685 131.0874006
 132.5990012  82.4764997 132.0569988 133.0910012  82.2554997 131.2659988
 132.9620012  83.3174997 132.3379988 132.7153126  82.5598357 131.9867531
 132.9130012  78.7344997 126.1109988 131.9880012  78.9434997 125.9819988
 133.3670012  79.2184997 125.4209988 132.8477292  78.8285343 126.0000720
 132.8770012  77.4724997 134.4549988 132.2120012  77.2264997 135.0989988
 132.4340012  78.0944997 133.8779988 132.7261318  77.5229410 134.4650898
 135.0690012  90.6474997 138.5999988 134.2480012  90.8224997 138.1389988
 134.8160012  90.5744997 139.5199988 134.9225585  90.6615544 138.6613561
 138.0230012  91.6224997 134.8579988 137.5980012  92.4314997 134.5759988
 138.9270012  91.7074997 134.5559988 138.0869975  91.7449300 134.7784816
 142.3340012  93.0214997 137.8179988 142.5190012  92.6874997 138.6959988
 143.1800012  93.3304997 137.4959988 142.4737539  93.0176047 137.8945605
 144.6790012  94.3074997 137.0619988 145.3560012  93.6744997 136.8219988
 145.0010012  94.7084997 137.8689988 144.8151637  94.2751154 137.1382793
 135.4250012  94.8784997 134.9059988 134.7040012  95.3184997 134.4549988
 135.0590012  94.6274997 135.7539988 135.2769651  94.9047242 134.9589640
 137.8920012  94.4784997 133.9359988 137.0270012  94.5504997 134.3399988
 137.8370012  95.0254997 133.1519988 137.7662085  94.5622685 133.8853362
 142.6020012  94.3664997 133.1109988 142.1460012  94.8954997 132.4569988
 142.7650012  94.9694997 133.8359988 142.5616068  94.5204607 133.1194838
 134.8390012  93.5014997 131.8159988 134.8210012  93.0764997 132.6729988
 135.6440012  93.1834997 131.4069988 134.9453529  93.4003013 131.8780946
 136.9810012  92.2114997 130.4709988 136.7620012  91.2954997 130.6409988
 137.8050012  92.3514997 130.9369988 137.0624420  92.1050520 130.5572774
 139.5180012  92.6814997 131.3199988 139.7310012  91.7934997 131.0329988
 139.5820012  92.6474997 132.2739988 139.5558232  92.5553102 131.4097397
 143.0260012  78.3454997 130.4639988 142.3520012  77.7164997 130.7199988
 143.5900012  77.8614997 129.8609988 143.0099230  78.1938744 130.4175340
 135.3530012  76.9794997 128.2859988 134.5760012  76.7454997 127.7789988
 135.8830012  76.1824997 128.2949988 135.3182330  76.8396988 128.2177742
 134.1890012  76.7774997 124.0899988 134.6280012  77.3884997 123.4979988
 133.5560012  77.3154997 124.5639988 134.1634514  76.9339257 124.0730930
 139.9320012  76.9064997 128.0999988 140.8070012  77.2944997 128.0699988
 139.7960012  76.6914997 129.0219988 140.0333695  76.9305184 128.2206440
 134.0900012  92.7254997 124.9869988 133.4050012  92.6874997 124.3199988
 134.0940012  93.6384997 125.2759988 133.9966998  92.8436733 124.9346771
 136.0500012  78.6934997 122.5319988 136.5420012  78.0634997 122.0049988
 136.6740012  78.9894997 123.1949988 136.2015688  78.6473804 122.5495482
 141.0760012  78.9864997 124.9889988 141.2540012  78.3404997 125.6719988
 141.0230012  79.8204997 125.4559988 141.0931999  79.0108009 125.1455917
 142.9550012  93.9354997 123.3849988 143.8210012  94.3014997 123.2069988
 142.7080012  93.4954997 122.5709988 143.0402392  93.9261756 123.2506289
 135.3110012  77.4934997 137.8039988 134.9450012  76.7284997 138.2459988
 136.2240012  77.5224997 138.0899988 135.3842736  77.3925640 137.9032502
 137.2840012  76.8444997 139.3399988 138.1820012  76.5704997 139.1549988
 136.8970012  76.1014997 139.8039988 137.3546612  76.7065914 139.3773643
 135.9080012  93.6454997 122.0129988 135.6410012  93.9324997 122.8859988
 136.6800012  93.0994997 122.1649988 135.9757488  93.6110294 122.1531050
  12.4390012 104.9914997 128.2449988  12.5280012 105.9354997 128.1129988
  11.8010012 104.7164997 127.5869988  12.3649081 105.0834830 128.1379614
  11.3720012 104.2464997 131.6639988  11.3340012 103.6004997 132.3689988
  11.0500012 103.7804997 130.8929988  11.3232333 104.0949408 131.6562978
   3.7410012 103.8614997 133.2569988   3.7820012 103.2354997 133.9799988
   4.4440012 104.4854997 133.4389988   3.8416363 103.8601196 133.3806044
  15.0780012 107.1854997 129.9649988  14.6380012 106.4654997 130.4159988
  15.0650012 107.9064997 130.5949988  15.0160226 107.1843731 130.1118494
   4.6640012 108.3114997 131.7919988   4.2950012 107.5094997 131.4219988
   5.6050012 108.1424997 131.8379988   4.7407289 108.1790153 131.7476316
   1.2740012 101.9714997 127.1849988   0.8270012 102.8174997 127.1659988
   0.7130012 101.3914997 126.6689988   1.1369900 102.0089916 127.1126801
   1.9850012 104.1334997 129.3099988   2.1980012 103.3634997 129.8379988
   2.7230012 104.2224997 128.7069988   2.1139044 104.0401968 129.3007123
  12.1900012 112.2904997 130.1769988  12.8100012 111.6134997 129.9039988
  11.9820012 112.0724997 131.0859988  12.2466726 112.1684800 130.2624812
   9.7620012 106.6794997 132.0699988  10.0660012 105.9934997 131.4749988
  10.4830012 106.7974997 132.6879988   9.9010671 106.6016304 132.0721816
  18.4250012  98.2804997 132.9309988  18.4740012  98.8904997 133.6659988
  18.8500012  98.7414997 132.2079988  18.4891746  98.4263796 132.9339175
  12.9030012 101.0734997 132.3969988  13.0450012 100.1274997 132.4179988
  12.7960012 101.2804997 131.4689988  12.9079919 100.9718246 132.2743408
   6.0570012  99.1744997 129.6699988   6.1010012 100.0344997 129.2509988
   5.6000012  98.6224997 129.0359988   6.0012240  99.2174422 129.5269864
  13.7800012  99.3054997 128.0709988  14.4260012  98.9764997 128.6949988
  14.2900012  99.8234997 127.4479988  13.9374299  99.3304450 128.0722731
   2.6780012 101.5714997 130.4319988   3.3310012 101.0214997 130.8639988
   2.7020012 101.2974997 129.5149988   2.7706683 101.4591466 130.3672123
   7.8340012 103.1214997 129.6469988   8.4500012 102.5954997 130.1569988
   7.2480012 102.4814997 129.2439988   7.8390810 102.9629208 129.6623173
  18.8160012  99.7584997 135.1659988  18.1280012 100.4164997 135.0709988
  18.8320012  99.5614997 136.1029988  18.7239540  99.8219819 135.2795990
   4.8680012  98.0924997 133.7439988   4.6490012  98.6224997 132.9779988
   4.2000012  98.3194997 134.3909988   4.7477600  98.1956906 133.7266379
  12.2370012 107.5924997 127.2879988  11.9410012 107.2704997 126.4369988
  11.9120012 108.4924997 127.3289988  12.1526371 107.6700215 127.1771801
   7.4370012 105.7684997 134.0309988   6.6970012 106.3664997 134.1349988
   8.1510012 106.3224997 133.7159988   7.4322237 105.9252831 134.0026465
  15.5440012  98.5964997 130.0509988  15.3280012  97.8304997 130.5839988
  16.1990012  99.0684997 130.5639988  15.6030632  98.5555889 130.1932861
   4.4610012  99.9844997 131.6959988   5.0750012 100.6174997 132.0689988
   4.9730012  99.5124997 131.0399988   4.6141981 100.0072267 131.6582908
   5.8440012 107.7324997 134.8179988   5.8390012 108.6124997 134.4399988
   4.9910012 107.6494997 135.2429988   5.7279464 107.8416117 134.8237907
   1.9650012 107.4034997 125.5999988   1.6930012 107.6324997 124.7119988
   2.0110012 108.2414997 126.0609988   1.9339482 107.5481318 125.5406273
  15.5900012 109.0254997 132.3129988  14.6490012 109.0834997 132.4749988
  15.8670012 109.9314997 132.1759988  15.4984679 109.1559443 132.3166815
  15.8910012  97.3114997 133.7309988  15.1550012  97.9224997 133.6929988
  16.5740012  97.7264997 133.2039988  15.8826541  97.4511374 133.6545832
   8.8940012  95.3984997 131.1959988   8.7770012  94.4494997 131.1419988
   8.0390012  95.7304997 131.4699988   8.7624212  95.3135571 131.2256497
  13.8420012 110.8064997 128.9379988  14.2680012 110.0994997 128.4529988
  14.1590012 111.6074997 128.5219988  13.9431683 110.8181017 128.8153680
  15.0020012 108.7074997 127.4469988  14.7440012 108.0174997 126.8359988
  15.0730012 108.2644997 128.2929988  14.9762856 108.5532124 127.4776885
  16.6880012 107.2734997 135.9239988  16.8280012 106.6824997 135.1849988
  16.8550012 108.1464997 135.5679988  16.7297411 107.3105428 135.7746894
  11.1610012 104.2354997 125.6969988  10.4490012 104.7704997 125.3449988
  11.8520012 104.2914997 125.0369988  11.1570132 104.3162543 125.5596289
  11.2140012 102.6934997 122.7359988  11.9150012 102.7154997 123.3869988
  11.5170012 102.0654997 122.0789988  11.3508133 102.6117070 122.7363369
  18.5300012 103.6134997 133.9899988  17.8770012 104.3084997 134.0799988
  18.9950012 103.8234997 133.1809988  18.5035274 103.7370643 133.8928462
  14.5660012 104.4454997 126.6489988  13.8340012 104.6734997 127.2219988
  15.0140012 103.7314997 127.1029988  14.5262725 104.3802145 126.7888816
  14.4640012 102.6194997 135.7159988  14.5440012 103.3824997 136.2879988
  13.8620012 102.8984997 135.0259988  14.3935756 102.7617134 135.7010589
   6.2120012 105.0754997 128.5309988   5.8810012 104.7054997 127.7129988
   6.8000012 104.4054997 128.8779988   6.2461873 104.9341156 128.4658102
   7.5780012 108.5034997 131.2119988   7.4840012 107.9254997 130.4559988
   8.3080012 108.1324997 131.7089988   7.6637387 108.3741663 131.1755342
   6.5780012 103.8444997 132.1649988   7.1440012 103.9654997 131.4019988
   6.8970012 104.4814997 132.8029988   6.6985474 103.9472219 132.1469862
  12.8870012 109.3474997 132.8989988  12.6470012 110.0094997 133.5469988
  12.6890012 108.5134997 133.3239988  12.8273808 109.3253134 133.0451524
   7.4580012 108.2434997 136.8819988   7.1470012 109.0254997 137.3369988
   6.8080012 108.0904997 136.1959988   7.3275558 108.3299105 136.8515871
  13.4370012 103.6074997 124.3339988  14.0170012 103.7574997 125.0809988
  13.8510012 104.0784997 123.6099988  13.5722997 103.6916578 124.3384058
   4.3780012 104.4414997 136.1099988   4.4490012 105.0924997 136.8089988
   3.4880012 104.5444997 135.7749988   4.2673005 104.5445427 136.1603495
  11.1640012 110.3444997 127.7689988  11.6380012 110.6394997 128.5459988
  10.6010012 111.0824997 127.5359988  11.1528184 110.4847247 127.8439628
   5.6980012 110.3154997 137.6449988   5.7050012 110.1794997 136.6979988
   4.7820012 110.1974997 137.8969988   5.5751714 110.2809430 137.5494666
  17.1360012  95.3574997 124.1469988  16.2360012  95.4964997 124.4419988
  17.3880012  96.1884997 123.7449988  17.0468702  95.4889074 124.1330205
   5.2020012 104.1454997 126.1199988   4.9100012 104.9134997 125.6299988
   4.5280012 103.4854997 125.9579988   5.0708111 104.1615587 126.0308978
  18.3250012 109.7234997 122.5229988  18.3990012 110.6624997 122.6939988
  19.2310012 109.4184997 122.4669988  18.4575100 109.8106722 122.5388119
   1.2950012 106.5084997 134.9349988   0.7940012 106.4804997 134.1199988
   1.3000012 105.6024997 135.2449988   1.2270944 106.3822396 134.8653226
   1.0450012 109.2884997 131.8189988   1.9910012 109.1444997 131.7999988
   0.9330012 110.0724997 132.3559988   1.1592727 109.3748046 131.8890072
  19.2430012 109.9544997 137.5019988  19.1940012 108.9994997 137.4649988
  18.4160012 110.2224997 137.9029988  19.1244940 109.8598998 137.5511375
  10.2220012 109.5284997 136.3779988  10.3090012 110.3544997 136.8529988
   9.3580012 109.1984997 136.6269988  10.1171964 109.5969878 136.4766549
  10.6360012 113.3004997 126.1839988  10.5610012 113.1794997 125.2369988
  10.6690012 114.2504997 126.3019988  10.6302068 113.4122646 126.0704967
   4.2890012 112.0894997 127.9649988   4.4420012 111.7414997 128.8429988
   3.4390012 111.7334997 127.7099988   4.1949166 111.9936216 128.0508079
  13.7380012 112.4544997 123.1859988  14.1130012 111.7104997 122.7149988
  13.7420012 112.1844997 124.1049988  13.7899125 112.3160986 123.2456483
  13.4070012 112.3804997 125.9349988  12.4710012 112.4804997 126.1139988
  13.6870012 111.6714997 126.5139988  13.3169553 112.2983406 126.0377087
  16.3950012 101.4474997 137.9819988  15.9880012 101.9284997 137.2609988
  16.4360012 100.5424997 137.6739988  16.3448437 101.3909374 137.8416683
   3.5440012 107.8314997 135.9789988   3.7600012 107.4704997 136.8379988
   2.6890012 107.4574997 135.7689988   3.4579292 107.7314111 136.0683386
   6.1630012  96.3014997 131.9739988   5.3010012  96.2144997 131.5659988
   6.1400012  97.1574997 132.4019988   6.0420409  96.4052883 131.9760589
  10.8260012  96.0234997 135.3489988  11.2460012  95.6084997 136.1019988
   9.8930012  95.8454997 135.4659988  10.7573644  95.9425900 135.4679539
  14.1520012  99.7794997 136.2019988  13.6380012  99.6534997 136.9999988
  13.9970012 100.6914997 135.9579988  14.0606852  99.8856132 136.2782158
  14.9150012 104.6404997 121.9639988  14.9570012 104.4174997 121.0339988
  15.7640012 105.0394997 122.1529988  15.0355280 104.6639438 121.8623554
  10.4870012  98.5164997 122.6339988  10.2340012  98.5354997 123.5569988
  10.2310012  97.6444997 122.3319988  10.4177481  98.4012558 122.7196175
   6.2540012 101.2674997 133.0689988   5.6120012 101.2264997 133.7779988
   6.2910012 102.1934997 132.8309988   6.1710664 101.3871430 133.1339219
   6.2510012 101.4884997 127.9809988   5.3580012 101.1474997 127.9219988
   6.7010012 101.1114997 127.2249988   6.1898130 101.3909631 127.8707702
  11.7860012 101.9044997 126.7979988  11.3770012 102.7194997 126.5069988
  12.5070012 101.7644997 126.1839988  11.8274537 101.9972018 126.6751342
  10.8880012 102.0794997 138.2859988  10.3260012 101.3754997 138.6069988
  11.7150012 101.9594997 138.7539988  10.9227095 101.9667883 138.3932330
  12.7910012 101.3504997 129.6119988  12.5960012 101.9554997 128.8969988
  12.9720012 100.5164997 129.1779988  12.7887614 101.3206300 129.4554405
   4.0040012 101.5874997 134.9359988   3.9660012 101.9874997 135.8049988
   3.5130012 100.7704997 135.0269988   3.9324684 101.5318069 135.0671059
   7.3700012  98.9614997 121.7349988   6.9390012  98.5164997 122.4649988
   6.6520012  99.3334997 121.2229988   7.2139438  98.9508940 121.7656799
   0.6120012  98.7034997 128.7869988   1.2430012  98.6744997 129.5059988
   1.0610012  98.2784997 128.0559988   0.7590918  98.6420836 128.7866441
   1.8860012  99.4494997 124.2109988   2.3600012 100.0404997 123.6259988
   1.1690012  99.9804997 124.5579988   1.8539341  99.6020867 124.1778836
  12.0550012 102.9884997 134.2829988  12.3780012 102.3574997 133.6399988
  11.6150012 102.4534997 134.9439988  12.0397484 102.8298387 134.2843198
   8.8320012  98.9154997 129.0669988   7.9210012  98.9724997 129.3559988
   9.3380012  98.8554997 129.8779988   8.7756899  98.9151941 129.2161184
   3.6610012 100.5444997 127.8939988   2.7710012 100.6444997 127.5539988
   3.9570012  99.7024997 127.5479988   3.5792823 100.4443545 127.8007213
   7.3140012 100.5444997 125.5509988   8.2450012 100.6734997 125.7289988
   7.0990012 101.2144997 124.9009988   7.4124247 100.6526565 125.4875747
  13.2370012  98.1504997 132.3319988  12.5610012  98.2814997 132.9959988
  12.7520012  97.9954997 131.5209988  13.0787146  98.1475157 132.3134469
   5.9880012 101.7394997 123.1169988   5.4450012 101.3594997 122.4259988
   6.8210012 101.9334997 122.6889988   6.0263631 101.7137125 122.9644501
  16.5250012 113.8224997 138.6079988  16.7250012 114.2464997 137.7739988
  17.1800012 114.1654997 139.2149988  16.6410072 113.9269857 138.5758592
   4.1230012 106.2964997 138.2159988   4.8550012 106.5504997 138.7779988
   3.3430012 106.5004997 138.7319988   4.1177073 106.3588160 138.3626151
  10.1520012 101.7034997 130.9539988  10.7170012 101.1564997 130.4069988
  10.0050012 101.1814997 131.7429988  10.2093380 101.5582259 130.9858695
   5.1540012  97.8394997 127.3729988   4.8370012  96.9374997 127.3369988
   5.9360012  97.8414997 126.8199988   5.2162408  97.7162474 127.2933569
   8.7790012 100.0914997 133.3679988   7.9430012 100.5454997 133.4789988
   9.3030012 100.3674997 134.1199988   8.7355416 100.1908660 133.4848119
   9.3230012 106.3044997 125.0529988   8.5780012 105.7974997 124.7309988
   9.1890012 106.3534997 125.9999988   9.2028776 106.2416940 125.1368647
  16.4730012 105.4374997 133.8399988  17.1150012 105.8944997 133.2959988
  15.6430012 105.5504997 133.3769988  16.4485963 105.5152704 133.7030177
  13.2210012  99.1184997 123.2519988  12.2820012  99.2304997 123.1009988
  13.5180012  99.9754997 123.5589988  13.1327583  99.2495981 123.2728337
  10.8420012 106.4884997 136.2899988  10.4970012 106.1074997 137.0969988
  10.6420012 107.4224997 136.3609988  10.7677527 106.5625135 136.4100689
  13.9390012 100.9854997 124.9129988  14.8310012 100.8484997 125.2319988
  13.9960012 101.7764997 124.3759988  14.0686504 101.0736052 124.8840818
   4.4480012 105.5994997 130.8229988   5.1930012 105.5974997 130.2219988
   4.5260012 104.7764997 131.3039988   4.5604995 105.4878887 130.8058282
  11.4490012 107.7634997 124.0789988  11.1530012 108.5894997 124.4599988
  10.7460012 107.1434997 124.2749988  11.3134914 107.7928199 124.1576443
   1.4560012 104.0604997 136.1379988   1.6790012 103.6424997 136.9699988
   0.8540012 103.4474997 135.7149988   1.4051759 103.9204668 136.1947022
   8.4720012 103.5774997 138.3509988   8.1760012 103.4114997 137.4559988
   9.4040012 103.3574997 138.3399988   8.5574166 103.5250640 138.2270536
  13.0930012 108.9504997 136.2409988  12.1920012 109.1334997 135.9729988
  13.1270012 109.2094997 137.1609988  12.9743139 109.0105849 136.3288099
  18.8240012 101.1954997 124.6079988  18.2700012 100.7994997 123.9359988
  18.9240012 102.1054997 124.3299988  18.7617059 101.2643586 124.4784401
  18.7870012 106.9954997 137.4449988  17.9360012 107.2334997 137.0779988
  19.3780012 106.9784997 136.6919988  18.7502487 107.0258258 137.2928893
  17.1190012 109.9814997 125.0729988  16.7460012 109.1554997 125.3819988
  17.3970012 109.7984997 124.1749988  17.1055222 109.8437430 124.9939473
  14.2800012 104.7894997 132.0939988  13.3510012 104.5574997 132.0669988
  14.7310012 104.0124997 131.7639988  14.2139216 104.6527238 132.0456917
   6.8230012 109.1174997 128.2269988   7.3500012 109.8904997 128.0269988
   5.9430012 109.3424997 127.9249988   6.7762031 109.2537545 128.1587912
   2.5780012 103.9794997 122.8139988   3.1940012 104.6064997 123.1939988
   1.7160012 104.2954997 123.0859988   2.5457698 104.1079430 122.9027183
   8.2500012 106.7804997 127.8029988   8.0090012 107.7054997 127.8449988
   7.5090012 106.3214997 128.1999988   8.1169225 106.8450933 127.8623742
   8.7650012 110.9294997 134.1189988   9.1270012 111.7844997 133.8849988
   9.2960012 110.6374997 134.8589988   8.8864473 111.0071060 134.1870855
   6.9330012 111.8024997 127.3489988   5.9830012 111.9074997 127.3999988
   7.2850012 112.6224997 127.6929988   6.8504195 111.9278800 127.4025502
  12.3090012 107.0284997 133.8189988  11.8830012 106.8014997 134.6459988
  12.8890012 106.2904997 133.6369988  12.3291868 106.8975299 133.9075830
  14.5120012 107.9574997 122.8929988  14.8650012 107.5774997 123.6969988
  13.5630012 107.8644997 122.9799988  14.4320918 107.8928956 123.0148532
  14.9670012 111.5804997 136.2889988  14.3660012 111.0254997 135.7929988
  15.2490012 112.2474997 135.6619988  14.9228804 111.5946625 136.1364849
  19.0150012 112.4374997 123.0939988  19.7590012 113.0234997 122.9539988
  18.3210012 113.0054997 123.4269988  19.0229899 112.5945798 123.1198778
   3.0900012  98.8134997 135.6959988   2.1970012  99.1524997 135.6279988
   2.9910012  97.9584997 136.1139988   2.9544164  98.7442588 135.7432235
  15.3780012 106.6304997 125.1199988  15.1000012 105.9024997 125.6759988
  16.3050012 106.7494997 125.3249988  15.4653124 106.5468802 125.2238845
   2.7410012 110.6184997 134.1309988   2.9580012 109.6864997 134.0999988
   2.9870012 110.8924997 135.0139988   2.8039549 110.5280636 134.2461763
   8.6030012 109.0694997 121.3399988   8.8420012 108.3214997 120.7929988
   8.3340012 108.6814997 122.1729988   8.5993675 108.9146638 121.3776865
   7.5400012 108.6394997 123.7959988   7.6860012 108.1194997 124.5859988
   7.5370012 109.5464997 124.1029988   7.5595792 108.6908842 123.9456117
   3.9930012 105.8924997 124.3069988   3.3070012 106.2444997 124.8739988
   4.5150012 106.6554997 124.0599988   3.9696852 106.0438578 124.3512118
  11.8240012  98.5544997 134.5859988  12.5230012  98.6284997 135.2359988
  11.4430012  97.6904997 134.7399988  11.8681767  98.4477624 134.6958322
  12.6090012  98.2064997 125.6829988  12.8290012  98.6784997 124.8799988
  13.1670012  98.6014997 126.3529988  12.7144968  98.3244285 125.6637331
  10.2770012 110.3374997 124.5459988   9.4610012 110.8344997 124.5979988
  10.8070012 110.8124997 123.9059988  10.2369161 110.4697722 124.4665956
   9.8090012  99.9344997 126.5179988  10.6210012 100.4394997 126.5639988
   9.5640012  99.7894997 127.4319988   9.8870520  99.9840375 126.6478517
  10.3440012 100.9204997 135.7019988  10.4630012 101.4944997 136.4599988
  11.0000012 100.2324997 135.8169988  10.4489025 100.9059858 135.8211321
  10.6920012  97.0154997 127.4559988  10.3460012  97.6334997 128.0999988
  11.3510012  97.5164997 126.9739988  10.7336968  97.1676278 127.4789383
   7.6160012 111.3814997 124.5269988   7.7760012 112.1804997 124.0269988
   7.4180012 111.6874997 125.4119988   7.6111637 111.5324020 124.5781144
   6.3500012  98.0784997 124.1429988   6.2670012  98.9674997 124.4899988
   7.2400012  97.8134997 124.3749988   6.4589469  98.1641430 124.2217626
  16.5490012  98.8274997 136.5369988  15.6320012  99.0904997 136.4499988
  16.8840012  98.8244997 135.6409988  16.4688613  98.8630761 136.4038837
  15.1510012 102.5784997 130.6329988  14.3530012 102.1634997 130.3049988
  15.5960012 101.8874997 131.1239988  15.1019885 102.4283543 130.6544889
   4.6090012 108.5064997 123.2039988   5.2010012 109.2054997 123.4799988
   5.0680012 108.0734997 122.4839988   4.7521142 108.5437049 123.1444830
   2.9250012 101.1704997 122.3199988   2.8800012 102.1094997 122.4979988
   2.0370012 100.9344997 122.0499988   2.7988574 101.2671892 122.3078912
  16.2370012 111.8344997 132.2559988  16.0820012 112.5124997 131.5979988
  17.1700012 111.9064997 132.4589988  16.3418657 111.9369546 132.1934360
   3.7330012  95.9524997 130.9929988   3.5040012  96.0114997 130.0649988
   3.2900012  95.1604997 131.2989988   3.6418530  95.8535753 130.9074786
   2.6630012 109.8924997 127.1529988   1.8310012 110.3654997 127.1799988
   3.2090012 110.4024997 126.5549988   2.6230352 110.0261332 127.0758463
   1.9510012 112.5054997 138.4829988   2.4920012 112.2884997 139.2429988
   1.4700012 111.6994997 138.2929988   1.9599951 112.3669270 138.5612576
   6.5490012 111.4244997 140.1029988   7.3160012 110.9654997 140.4439988
   6.5270012 111.1984997 139.1739988   6.6511275 111.3310186 140.0240101
  10.6410012 110.9324997 121.4789988   9.9970012 110.3014997 121.7999988
  11.4030012 110.4014997 121.2469988  10.6558077 110.7742920 121.4916011
  13.1260012 109.8044997 138.8329988  12.7750012 108.9484997 139.0759988
  13.8520012 109.9474997 139.4399988  13.1760769 109.7065636 138.9483619
  15.2450012 110.7494997 121.7119988  15.5280012 109.9554997 122.1649988
  15.9850012 110.9824997 121.1519988  15.3838006 110.6723376 121.6982715
   1.8580012 106.3154997 139.4369988   2.0020012 105.4134997 139.1509988
   1.0860012 106.6014997 138.9499988   1.7732753 106.2306816 139.3319505
   6.2000012 106.6594997 121.5699988   6.2640012 105.8654997 122.1009988
   6.8530012 106.5404997 120.8799988   6.2970241 106.5347148 121.5494317
   8.5140012 106.2854997 138.8699988   8.1850012 106.5564997 138.0129988
   8.6660012 105.3444997 138.7829988   8.4894809 106.1953862 138.7408244
  11.5520012 107.7064997 121.3059988  11.2830012 107.8864997 122.2069988
  11.3460012 106.7804997 121.1739988  11.4873427 107.6060261 121.4115073
  14.2480012 106.2014997 136.2529988  14.9940012 106.7894997 136.1339988
  13.4910012 106.7834997 136.3169988  14.2477820 106.3607143 136.2453590
   2.6910012 103.5154997 138.8569988   3.0990012 102.6584997 138.7359988
   2.4310012 103.5304997 139.7779988   2.7117568 103.4000807 138.9649588
   7.3490012 104.6314997 123.8759988   6.8890012 104.1474997 124.5619988
   7.6040012 103.9634997 123.2399988   7.3204902 104.4748731 123.8839334
   6.6380012 102.5244997 136.2319988   6.0200012 103.1994997 136.5119988
   6.9820012 102.8454997 135.3979988   6.5999132 102.6602411 136.1576262
   8.4200012 102.8744997 122.1379988   8.2400012 102.7204997 121.2109988
   9.3700012 102.9824997 122.1829988   8.5237776 102.8680175 122.0171843
  11.6580012 104.9964997 139.5089988  12.6110012 105.0794997 139.4819988
  11.4970012 104.2844997 140.1289988  11.7666426 104.9116746 139.5890579
  17.8100012 105.2294997 121.5839988  17.5360012 104.8044997 120.7709988
  17.8490012 106.1604997 121.3669988  17.7777699 105.2972484 121.4433610
   6.9770012  99.8794997 137.3139988   7.1270012  99.1504997 136.7119988
   6.9800012 100.6564997 136.7549988   6.9979302  99.8847851 137.1560692
   7.3900012  98.2494997 134.8069988   7.9260012  98.7004997 134.1549988
   6.5380012  98.1414997 134.3839988   7.3482178  98.2966390 134.6605756
   8.9720012 103.6884997 135.0459988   9.7220012 103.5324997 134.4729988
   8.6330012 104.5404997 134.7709988   9.0288921 103.7822968 134.9303561
  13.3870012 101.5034997 140.0749988  13.5800012 100.5724997 139.9629988
  14.2450012 101.9284997 140.0639988  13.5292934 101.4336531 140.0582031
  14.7040012 104.2924997 138.1519988  14.4230012 105.0014997 137.5739988
  15.6470012 104.2194997 138.0009988  14.7929291 104.3796711 138.0524967
   5.4560012 101.0774997 139.2259988   4.6890012 100.5454997 139.0149988
   6.1350012 100.7674997 138.6259988   5.4427877 100.9628300 139.1160716
   8.1960012  95.7054997 135.2379988   8.0970012  96.6524997 135.1329988
   7.4530012  95.3334997 134.7619988   8.0821184  95.7845863 135.1593621
   9.4600012 100.0274997 138.8019988   9.2240012  99.8074997 139.7029988
   8.6760012  99.8204997 138.2919988   9.3218504  99.9694586 138.8563431
  12.1750012  99.1544997 137.8769988  11.2280012  99.1864997 138.0099988
  12.4880012  98.5294997 138.5309988  12.0876707  99.0743998 137.9836060
  13.8090012  97.7884997 139.8829988  13.7130012  96.8364997 139.8769988
  13.4880012  98.0574997 140.7429988  13.7524070  97.6944035 139.9985441
   3.6360012  98.9984997 138.9299988   3.8480012  98.2914997 138.3199988
   3.5250012  98.5604997 139.7739988   3.6499721  98.8427084 138.9606843
   8.4170012  94.9994997 137.9089988   9.1290012  94.3594997 137.8949988
   8.3160012  95.2664997 136.9959988   8.5008066  94.9480079 137.7835677
   8.7710012  96.6824997 139.9629988   8.6390012  96.2064997 139.1429988
   8.1720012  97.4264997 139.9079988   8.6719071  96.7179618 139.8432886
   8.3170012 113.5654997 123.1389988   9.2500012 113.7234997 123.2829988
   8.0530012 114.2404997 122.5149988   8.4089888 113.6784510 123.0742842
   1.8860012 108.2014997 122.6219988   2.8000012 108.2804997 122.8959988
   1.8930012 107.5144997 121.9559988   2.0121131 108.1193961 122.5694393
   0.5350012 113.5944997 127.6999988  -0.1119988 113.1324997 127.1669988
   0.8890012 112.9224997 128.2819988   0.4943849 113.4404723 127.7057959
   1.4050012 111.6754997 129.5039988   1.0700012 110.7954997 129.6759988
   1.6270012 112.0204997 130.3689988   1.3891783 111.6017501 129.6444208
  18.9530012 112.4844997 132.4849988  18.9320012 112.6694997 133.4239988
  19.6440012 113.0534997 132.1439988  19.0434618 112.5866606 132.5673864
  18.5170012 112.0524997 135.4069988  18.0290012 111.3164997 135.0349988
  19.0660012 111.6584997 136.0849988  18.5244820 111.8985889 135.4477813
  16.9670012 107.8414997 140.0449988  16.1010012 107.7364997 140.4389988
  17.3440012 108.6004997 140.4909988  16.8993308 107.9296900 140.1592393
  18.2680012 106.0984997 125.5589988  19.1180012 106.5194997 125.6859988
  18.2740012 105.3584997 126.1659988  18.3851372 106.0560803 125.6584344
  18.6630012 104.1514997 127.3819988  17.9360012 103.6724997 127.7799988
  19.2440012 104.3574997 128.1149988  18.6420473 104.1138103 127.5354528
  18.4220012 106.9364997 132.3299988  19.2550012 106.5584997 132.0499988
  18.5340012 107.8794997 132.2109988  18.5512647 107.0122218 132.2755487
  16.9080012 109.8144997 134.6369988  16.2610012 110.1394997 135.2629988
  16.3910012 109.3744997 133.9629988  16.7494029 109.7995004 134.6315827
  18.9310012 104.0524997 123.7739988  18.4090012 104.4094997 123.0549988
  18.8980012 104.7274997 124.4519988  18.8551634 104.1925413 123.7673145
  17.2800012 101.2924997 122.3239988  17.3760012 101.9594997 121.6439988
  17.1400012 100.4764997 121.8429988  17.2742272 101.2735655 122.1658347
  16.4490012 102.6724997 127.9449988  16.2990012 101.7274997 127.9249988
  16.0960012 102.9534997 128.7889988  16.3807448 102.5811481 128.0563705
   1.4850012 104.7504997 131.9559988   1.6690012 104.6684997 131.0199988
   2.3340012 104.6264997 132.3789988   1.6250151 104.7225073 131.8851451
  17.3060012 104.6424997 137.5839988  17.8890012 103.9084997 137.7759988
  17.8700012 105.4144997 137.6309988  17.4619769 104.6464227 137.6166159
  18.8020012 102.5454997 138.2689988  17.9390012 102.1664997 138.1029988
  19.4070012 101.8064997 138.1939988  18.7656119 102.3938268 138.2361528
  16.5270012  98.7004997 121.4419988  17.1380012  98.3294997 122.0789988
  15.6910012  98.2794997 121.6379988  16.4975032  98.5927554 121.5557035
  16.1600012 100.2554997 126.4079988  16.4400012  99.3484997 126.5319988
  16.9190012 100.6894997 126.0189988  16.3009277 100.1900942 126.3723682
  16.7720012 100.8364997 131.8439988  17.7050012 101.0484997 131.8089988
  16.5370012 100.9384997 132.7659988  16.8679244 100.8793100 131.9638892
  16.8010012 101.5734997 134.6199988  15.9580012 101.8414997 134.9859988
  17.2430012 102.3954997 134.4089988  16.7454158 101.7213291 134.6415491
   1.0820012 100.0214997 138.0969988   2.0020012  99.8994997 138.3329988
   0.6330012  99.2714997 138.4859988   1.1471580  99.9033727 138.1819006
  19.0840012  95.5534997 139.9729988  19.4340012  94.8994997 139.3679988
  19.2310012  96.3904997 139.5329988  19.1517887  95.5771548 139.8306858
  16.7730012  97.5184997 126.4559988  16.9560012  97.0694997 127.2819988
  16.1740012  96.9334997 125.9929988  16.7170202  97.3779975 126.5063275
   2.3030012  98.3334997 130.9879988   2.7490012  97.5414997 131.2899988
   2.7700012  99.0494997 131.4179988   2.4270831  98.3220685 131.0874006
   0.6070012 101.3324997 132.0569988   1.0990012 101.1114997 131.2659988
   0.9700012 102.1734997 132.3379988   0.7233126 101.4158357 131.9867531
  18.6040012  97.6624997 138.3219988  17.6860012  97.9334997 138.2869988
  18.7270012  97.1274997 137.5379988  18.4949729  97.6272508 138.2111923
  18.6400012  97.5854997 122.9839988  19.0520012  96.8644997 122.5089988
  19.3220012  98.2554997 123.0429988  18.7885885  97.5772368 122.9268915
   0.9210012  97.5904997 126.1109988  -0.0039988  97.7994997 125.9819988
   1.3750012  98.0744997 125.4209988   0.8557292  97.6845343 126.0000720
  15.6920012 112.5744997 128.0569988  16.3440012 112.2274997 127.4489988
  16.2020012 113.0634997 128.7029988  15.8502637 112.5930597 128.0610236
   0.8850012  96.3284997 134.4549988   0.2200012  96.0824997 135.0989988
   0.4420012  96.9504997 133.8779988   0.7341318  96.3789410 134.4650898
   3.0770012 109.5034997 138.5999988   2.2560012 109.6784997 138.1389988
   2.8240012 109.4304997 139.5199988   2.9305585 109.5175544 138.6613561
   6.0310012 110.4784997 134.8579988   5.6060012 111.2874997 134.5759988
   6.9350012 110.5634997 134.5559988   6.0949975 110.6009300 134.7784816
  10.3420012 111.8774997 137.8179988  10.5270012 111.5434997 138.6959988
  11.1880012 112.1864997 137.4959988  10.4817539 111.8736047 137.8945605
  12.6870012 113.1634997 137.0619988  13.3640012 112.5304997 136.8219988
  13.0090012 113.5644997 137.8689988  12.8231637 113.1311154 137.1382793
  17.6040012  95.7524997 136.1409988  16.7920012  96.0774997 135.7539988
  17.8370012  94.9924997 135.6079988  17.5242203  95.6942758 136.0158880
   3.4330012 113.7344997 134.9059988   2.7120012 114.1744997 134.4549988
   3.0670012 113.4834997 135.7539988   3.2849651 113.7607242 134.9589640
   5.9000012 113.3344997 133.9359988   5.0350012 113.4064997 134.3399988
   5.8450012 113.8814997 133.1519988   5.7742085 113.4182685 133.8853362
  10.6100012 113.2224997 133.1109988  10.1540012 113.7514997 132.4569988
  10.7730012 113.8254997 133.8359988  10.5696068 113.3764607 133.1194838
  12.9380012 112.1004997 134.0559988  12.0330012 112.2654997 133.7899988
  13.3670012 112.9534997 133.9909988  12.8721324 112.2384339 134.0107976
  15.5420012 113.6704997 134.3509988  15.3600012 114.5864997 134.1409988
  15.7190012 113.2604997 133.5049988  15.5410210 113.7404822 134.2077885
   2.8470012 112.3574997 131.8159988   2.8290012 111.9324997 132.6729988
   3.6520012 112.0394997 131.4069988   2.9533529 112.2563013 131.8780946
   4.9890012 111.0674997 130.4709988   4.7700012 110.1514997 130.6409988
   5.8130012 111.2074997 130.9369988   5.0704420 110.9610520 130.5572774
   7.5260012 111.5374997 131.3199988   7.7390012 110.6494997 131.0329988
   7.5900012 111.5034997 132.2739988   7.5638232 111.4113102 131.4097397
  11.0340012  97.2014997 130.4639988  10.3600012  96.5724997 130.7199988
  11.5980012  96.7174997 129.8609988  11.0179230  97.0498744 130.4175340
  16.1770012  95.3094997 130.5769988  16.7810012  95.8564997 130.0749988
  15.3070012  95.6284997 130.3359988  16.1421208  95.4275137 130.4756886
  17.9040012  96.4474997 128.9099988  18.5160012  95.9334997 128.3829988
  18.2860012  97.3254997 128.9329988  18.0393371  96.4957866 128.8410041
   3.3610012  95.8354997 128.2859988   2.5840012  95.6014997 127.7789988
   3.8910012  95.0384997 128.2949988   3.3262330  95.6956988 128.2177742
   2.1970012  95.6334997 124.0899988   2.6360012  96.2444997 123.4979988
   1.5640012  96.1714997 124.5639988   2.1714514  95.7899257 124.0730930
   7.9400012  95.7624997 128.0999988   8.8150012  96.1504997 128.0699988
   7.8040012  95.5474997 129.0219988   8.0413695  95.7865184 128.2206440
  13.4970012  95.7924997 129.7489988  13.5730012  95.8874997 128.7989988
  13.2220012  94.8844997 129.8779988  13.4702321  95.6827867 129.6365079
  14.8500012  95.8184997 125.4409988  14.1480012  96.4334997 125.2309988
  14.4060012  94.9804997 125.5719988  14.6936450  95.7895639 125.4299000
   2.0980012 111.5814997 124.9869988   1.4130012 111.5434997 124.3199988
   2.1020012 112.4944997 125.2759988   2.0046998 111.6996733 124.9346771
   4.0580012  97.5494997 122.5319988   4.5500012  96.9194997 122.0049988
   4.6820012  97.8454997 123.1949988   4.2095688  97.5033804 122.5495482
   9.0840012  97.8424997 124.9889988   9.2620012  97.1964997 125.6719988
   9.0310012  98.6764997 125.4559988   9.1011999  97.8668009 125.1455917
  10.9630012 112.7914997 123.3849988  11.8290012 113.1574997 123.2069988
  10.7160012 112.3514997 122.5709988  11.0482392 112.7821756 123.2506289
  17.6720012 112.3544997 126.0639988  17.4770012 111.6064997 125.4989988
  17.6330012 113.1124997 125.4809988  17.6400380 112.3546099 125.9078384
   3.3190012  96.3494997 137.8039988   2.9530012  95.5844997 138.2459988
   4.2320012  96.3784997 138.0899988   3.3922736  96.2485640 137.9032502
   5.2920012  95.7004997 139.3399988   6.1900012  95.4264997 139.1549988
   4.9050012  94.9574997 139.8039988   5.3626612  95.5625914 139.3773643
   3.9160012 112.5014997 122.0129988   3.6490012 112.7884997 122.8859988
   4.6880012 111.9554997 122.1649988   3.9837488 112.4670294 122.1531050
  13.7130012  95.0324997 139.5219988  13.7900012  94.6064997 140.3759988
  14.6070012  95.0464997 139.1789988  13.8443428  94.9760879 139.5925310
  16.8890012 111.1054997 138.2139988  16.1070012 110.9194997 137.6939988
  16.8170012 112.0344997 138.4319988  16.7722274 111.2056643 138.1723018
  31.2950012 104.9914997 128.2449988  31.3840012 105.9354997 128.1129988
  30.6570012 104.7164997 127.5869988  31.2209081 105.0834830 128.1379614
  30.2280012 104.2464997 131.6639988  30.1900012 103.6004997 132.3689988
  29.9060012 103.7804997 130.8929988  30.1792333 104.0949408 131.6562978
  22.5970012 103.8614997 133.2569988  22.6380012 103.2354997 133.9799988
  23.3000012 104.4854997 133.4389988  22.6976363 103.8601196 133.3806044
  33.9340012 107.1854997 129.9649988  33.4940012 106.4654997 130.4159988
  33.9210012 107.9064997 130.5949988  33.8720226 107.1843731 130.1118494
  23.5200012 108.3114997 131.7919988  23.1510012 107.5094997 131.4219988
  24.4610012 108.1424997 131.8379988  23.5967289 108.1790153 131.7476316
  20.1300012 101.9714997 127.1849988  19.6830012 102.8174997 127.1659988
  19.5690012 101.3914997 126.6689988  19.9929900 102.0089916 127.1126801
  20.8410012 104.1334997 129.3099988  21.0540012 103.3634997 129.8379988
  21.5790012 104.2224997 128.7069988  20.9699044 104.0401968 129.3007123
  31.0460012 112.2904997 130.1769988  31.6660012 111.6134997 129.9039988
  30.8380012 112.0724997 131.0859988  31.1026726 112.1684800 130.2624812
  28.6180012 106.6794997 132.0699988  28.9220012 105.9934997 131.4749988
  29.3390012 106.7974997 132.6879988  28.7570671 106.6016305 132.0721816
  37.2810012  98.2804997 132.9309988  37.3300012  98.8904997 133.6659988
  37.7060012  98.7414997 132.2079988  37.3451746  98.4263796 132.9339175
  31.7590012 101.0734997 132.3969988  31.9010012 100.1274997 132.4179988
  31.6520012 101.2804997 131.4689988  31.7639919 100.9718246 132.2743408
  24.9130012  99.1744997 129.6699988  24.9570012 100.0344997 129.2509988
  24.4560012  98.6224997 129.0359988  24.8572240  99.2174422 129.5269864
  32.6360012  99.3054997 128.0709988  33.2820012  98.9764997 128.6949988
  33.1460012  99.8234997 127.4479988  32.7934299  99.3304450 128.0722731
  21.5340012 101.5714997 130.4319988  22.1870012 101.0214997 130.8639988
  21.5580012 101.2974997 129.5149988  21.6266683 101.4591466 130.3672123
  26.6900012 103.1214997 129.6469988  27.3060012 102.5954997 130.1569988
  26.1040012 102.4814997 129.2439988  26.6950810 102.9629208 129.6623173
  37.6720012  99.7584997 135.1659988  36.9840012 100.4164997 135.0709988
  37.6880012  99.5614997 136.1029988  37.5799540  99.8219819 135.2795990
  23.7240012  98.0924997 133.7439988  23.5050012  98.6224997 132.9779988
  23.0560012  98.3194997 134.3909988  23.6037600  98.1956906 133.7266379
  31.0930012 107.5924997 127.2879988  30.7970012 107.2704997 126.4369988
  30.7680012 108.4924997 127.3289988  31.0086371 107.6700215 127.1771801
  26.2930012 105.7684997 134.0309988  25.5530012 106.3664997 134.1349988
  27.0070012 106.3224997 133.7159988  26.2882237 105.9252831 134.0026465
  34.4000012  98.5964997 130.0509988  34.1840012  97.8304997 130.5839988
  35.0550012  99.0684997 130.5639988  34.4590632  98.5555889 130.1932861
  23.3170012  99.9844997 131.6959988  23.9310012 100.6174997 132.0689988
  23.8290012  99.5124997 131.0399988  23.4701981 100.0072267 131.6582908
  24.7000012 107.7324997 134.8179988  24.6950012 108.6124997 134.4399988
  23.8470012 107.6494997 135.2429988  24.5839464 107.8416117 134.8237907
  20.8210012 107.4034997 125.5999988  20.5490012 107.6324997 124.7119988
  20.8670012 108.2414997 126.0609988  20.7899482 107.5481318 125.5406273
  34.4460012 109.0254997 132.3129988  33.5050012 109.0834997 132.4749988
  34.7230012 109.9314997 132.1759988  34.3544679 109.1559443 132.3166815
  34.7470012  97.3114997 133.7309988  34.0110012  97.9224997 133.6929988
  35.4300012  97.7264997 133.2039988  34.7386541  97.4511374 133.6545832
  27.7500012  95.3984997 131.1959988  27.6330012  94.4494997 131.1419988
  26.8950012  95.7304997 131.4699988  27.6184212  95.3135571 131.2256497
  32.6980012 110.8064997 128.9379988  33.1240012 110.0994997 128.4529988
  33.0150012 111.6074997 128.5219988  32.7991683 110.8181017 128.8153680
  33.8580012 108.7074997 127.4469988  33.6000012 108.0174997 126.8359988
  33.9290012 108.2644997 128.2929988  33.8322856 108.5532124 127.4776885
  35.5440012 107.2734997 135.9239988  35.6840012 106.6824997 135.1849988
  35.7110012 108.1464997 135.5679988  35.5857411 107.3105428 135.7746894
  30.0170012 104.2354997 125.6969988  29.3050012 104.7704997 125.3449988
  30.7080012 104.2914997 125.0369988  30.0130132 104.3162543 125.5596289
  30.0700012 102.6934997 122.7359988  30.7710012 102.7154997 123.3869988
  30.3730012 102.0654997 122.0789988  30.2068133 102.6117070 122.7363369
  37.3860012 103.6134997 133.9899988  36.7330012 104.3084997 134.0799988
  37.8510012 103.8234997 133.1809988  37.3595274 103.7370643 133.8928462
  33.4220012 104.4454997 126.6489988  32.6900012 104.6734997 127.2219988
  33.8700012 103.7314997 127.1029988  33.3822725 104.3802145 126.7888816
  33.3200012 102.6194997 135.7159988  33.4000012 103.3824997 136.2879988
  32.7180012 102.8984997 135.0259988  33.2495756 102.7617134 135.7010589
  25.0680012 105.0754997 128.5309988  24.7370012 104.7054997 127.7129988
  25.6560012 104.4054997 128.8779988  25.1021873 104.9341156 128.4658102
  26.4340012 108.5034997 131.2119988  26.3400012 107.9254997 130.4559988
  27.1640012 108.1324997 131.7089988  26.5197387 108.3741663 131.1755342
  25.4340012 103.8444997 132.1649988  26.0000012 103.9654997 131.4019988
  25.7530012 104.4814997 132.8029988  25.5545474 103.9472219 132.1469862
  31.7430012 109.3474997 132.8989988  31.5030012 110.0094997 133.5469988
  31.5450012 108.5134997 133.3239988  31.6833808 109.3253134 133.0451524
  26.3140012 108.2434997 136.8819988  26.0030012 109.0254997 137.3369988
  25.6640012 108.0904997 136.1959988  26.1835558 108.3299105 136.8515871
  32.2930012 103.6074997 124.3339988  32.8730012 103.7574997 125.0809988
  32.7070012 104.0784997 123.6099988  32.4282997 103.6916578 124.3384058
  23.2340012 104.4414997 136.1099988  23.3050012 105.0924997 136.8089988
  22.3440012 104.5444997 135.7749988  23.1233005 104.5445427 136.1603495
  30.0200012 110.3444997 127.7689988  30.4940012 110.6394997 128.5459988
  29.4570012 111.0824997 127.5359988  30.0088184 110.4847247 127.8439628
  24.5540012 110.3154997 137.6449988  24.5610012 110.1794997 136.6979988
  23.6380012 110.1974997 137.8969988  24.4311714 110.2809430 137.5494666
  35.9920012  95.3574997 124.1469988  35.0920012  95.4964997 124.4419988
  36.2440012  96.1884997 123.7449988  35.9028702  95.4889074 124.1330205
  24.0580012 104.1454997 126.1199988  23.7660012 104.9134997 125.6299988
  23.3840012 103.4854997 125.9579988  23.9268111 104.1615587 126.0308978
  37.1810012 109.7234997 122.5229988  37.2550012 110.6624997 122.6939988
  38.0870012 109.4184997 122.4669988  37.3135100 109.8106722 122.5388119
  20.1510012 106.5084997 134.9349988  19.6500012 106.4804997 134.1199988
  20.1560012 105.6024997 135.2449988  20.0830944 106.3822396 134.8653226
  19.9010012 109.2884997 131.8189988  20.8470012 109.1444997 131.7999988
  19.7890012 110.0724997 132.3559988  20.0152727 109.3748046 131.8890072
  38.0990012 109.9544997 137.5019988  38.0500012 108.9994997 137.4649988
  37.2720012 110.2224997 137.9029988  37.9804940 109.8598998 137.5511375
  29.0780012 109.5284997 136.3779988  29.1650012 110.3544997 136.8529988
  28.2140012 109.1984997 136.6269988  28.9731964 109.5969878 136.4766549
  29.4920012 113.3004997 126.1839988  29.4170012 113.1794997 125.2369988
  29.5250012 114.2504997 126.3019988  29.4862068 113.4122646 126.0704967
  23.1450012 112.0894997 127.9649988  23.2980012 111.7414997 128.8429988
  22.2950012 111.7334997 127.7099988  23.0509166 111.9936216 128.0508079
  32.5940012 112.4544997 123.1859988  32.9690012 111.7104997 122.7149988
  32.5980012 112.1844997 124.1049988  32.6459125 112.3160986 123.2456483
  32.2630012 112.3804997 125.9349988  31.3270012 112.4804997 126.1139988
  32.5430012 111.6714997 126.5139988  32.1729553 112.2983406 126.0377087
  35.2510012 101.4474997 137.9819988  34.8440012 101.9284997 137.2609988
  35.2920012 100.5424997 137.6739988  35.2008437 101.3909374 137.8416683
  22.4000012 107.8314997 135.9789988  22.6160012 107.4704997 136.8379988
  21.5450012 107.4574997 135.7689988  22.3139292 107.7314111 136.0683386
  25.0190012  96.3014997 131.9739988  24.1570012  96.2144997 131.5659988
  24.9960012  97.1574997 132.4019988  24.8980409  96.4052883 131.9760589
  29.6820012  96.0234997 135.3489988  30.1020012  95.6084997 136.1019988
  28.7490012  95.8454997 135.4659988  29.6133644  95.9425900 135.4679539
  33.0080012  99.7794997 136.2019988  32.4940012  99.6534997 136.9999988
  32.8530012 100.6914997 135.9579988  32.9166852  99.8856132 136.2782158
  33.7710012 104.6404997 121.9639988  33.8130012 104.4174997 121.0339988
  34.6200012 105.0394997 122.1529988  33.8915280 104.6639438 121.8623554
  29.3430012  98.5164997 122.6339988  29.0900012  98.5354997 123.5569988
  29.0870012  97.6444997 122.3319988  29.2737481  98.4012558 122.7196175
  25.1100012 101.2674997 133.0689988  24.4680012 101.2264997 133.7779988
  25.1470012 102.1934997 132.8309988  25.0270664 101.3871430 133.1339219
  25.1070012 101.4884997 127.9809988  24.2140012 101.1474997 127.9219988
  25.5570012 101.1114997 127.2249988  25.0458130 101.3909631 127.8707702
  30.6420012 101.9044997 126.7979988  30.2330012 102.7194997 126.5069988
  31.3630012 101.7644997 126.1839988  30.6834537 101.9972018 126.6751342
  29.7440012 102.0794997 138.2859988  29.1820012 101.3754997 138.6069988
  30.5710012 101.9594997 138.7539988  29.7787095 101.9667883 138.3932330
  31.6470012 101.3504997 129.6119988  31.4520012 101.9554997 128.8969988
  31.8280012 100.5164997 129.1779988  31.6447614 101.3206300 129.4554405
  22.8600012 101.5874997 134.9359988  22.8220012 101.9874997 135.8049988
  22.3690012 100.7704997 135.0269988  22.7884684 101.5318069 135.0671059
  26.2260012  98.9614997 121.7349988  25.7950012  98.5164997 122.4649988
  25.5080012  99.3334997 121.2229988  26.0699438  98.9508940 121.7656799
  19.4680012  98.7034997 128.7869988  20.0990012  98.6744997 129.5059988
  19.9170012  98.2784997 128.0559988  19.6150918  98.6420836 128.7866441
  20.7420012  99.4494997 124.2109988  21.2160012 100.0404997 123.6259988
  20.0250012  99.9804997 124.5579988  20.7099341  99.6020867 124.1778836
  30.9110012 102.9884997 134.2829988  31.2340012 102.3574997 133.6399988
  30.4710012 102.4534997 134.9439988  30.8957484 102.8298387 134.2843198
  27.6880012  98.9154997 129.0669988  26.7770012  98.9724997 129.3559988
  28.1940012  98.8554997 129.8779988  27.6316899  98.9151941 129.2161184
  22.5170012 100.5444997 127.8939988  21.6270012 100.6444997 127.5539988
  22.8130012  99.7024997 127.5479988  22.4352823 100.4443546 127.8007213
  26.1700012 100.5444997 125.5509988  27.1010012 100.6734997 125.7289988
  25.9550012 101.2144997 124.9009988  26.2684247 100.6526565 125.4875747
  32.0930012  98.1504997 132.3319988  31.4170012  98.2814997 132.9959988
  31.6080012  97.9954997 131.5209988  31.9347146  98.1475157 132.3134469
  24.8440012 101.7394997 123.1169988  24.3010012 101.3594997 122.4259988
  25.6770012 101.9334997 122.6889988  24.8823631 101.7137125 122.9644501
  35.3810012 113.8224997 138.6079988  35.5810012 114.2464997 137.7739988
  36.0360012 114.1654997 139.2149988  35.4970072 113.9269857 138.5758592
  22.9790012 106.2964997 138.2159988  23.7110012 106.5504997 138.7779988
  22.1990012 106.5004997 138.7319988  22.9737073 106.3588160 138.3626151
  29.0080012 101.7034997 130.9539988  29.5730012 101.1564997 130.4069988
  28.8610012 101.1814997 131.7429988  29.0653380 101.5582259 130.9858695
  24.0100012  97.8394997 127.3729988  23.6930012  96.9374997 127.3369988
  24.7920012  97.8414997 126.8199988  24.0722408  97.7162474 127.2933569
  27.6350012 100.0914997 133.3679988  26.7990012 100.5454997 133.4789988
  28.1590012 100.3674997 134.1199988  27.5915416 100.1908660 133.4848119
  28.1790012 106.3044997 125.0529988  27.4340012 105.7974997 124.7309988
  28.0450012 106.3534997 125.9999988  28.0588776 106.2416940 125.1368647
  35.3290012 105.4374997 133.8399988  35.9710012 105.8944997 133.2959988
  34.4990012 105.5504997 133.3769988  35.3045963 105.5152704 133.7030177
  32.0770012  99.1184997 123.2519988  31.1380012  99.2304997 123.1009988
  32.3740012  99.9754997 123.5589988  31.9887583  99.2495981 123.2728337
  29.6980012 106.4884997 136.2899988  29.3530012 106.1074997 137.0969988
  29.4980012 107.4224997 136.3609988  29.6237527 106.5625135 136.4100689
  32.7950012 100.9854997 124.9129988  33.6870012 100.8484997 125.2319988
  32.8520012 101.7764997 124.3759988  32.9246504 101.0736052 124.8840818
  23.3040012 105.5994997 130.8229988  24.0490012 105.5974997 130.2219988
  23.3820012 104.7764997 131.3039988  23.4164995 105.4878887 130.8058282
  30.3050012 107.7634997 124.0789988  30.0090012 108.5894997 124.4599988
  29.6020012 107.1434997 124.2749988  30.1694914 107.7928199 124.1576443
  20.3120012 104.0604997 136.1379988  20.5350012 103.6424997 136.9699988
  19.7100012 103.4474997 135.7149988  20.2611759 103.9204668 136.1947022
  27.3280012 103.5774997 138.3509988  27.0320012 103.4114997 137.4559988
  28.2600012 103.3574997 138.3399988  27.4134166 103.5250640 138.2270536
  31.9490012 108.9504997 136.2409988  31.0480012 109.1334997 135.9729988
  31.9830012 109.2094997 137.1609988  31.8303139 109.0105849 136.3288099
  37.6800012 101.1954997 124.6079988  37.1260012 100.7994997 123.9359988
  37.7800012 102.1054997 124.3299988  37.6177059 101.2643586 124.4784401
  37.6430012 106.9954997 137.4449988  36.7920012 107.2334997 137.0779988
  38.2340012 106.9784997 136.6919988  37.6062487 107.0258258 137.2928893
  35.9750012 109.9814997 125.0729988  35.6020012 109.1554997 125.3819988
  36.2530012 109.7984997 124.1749988  35.9615222 109.8437430 124.9939473
  33.1360012 104.7894997 132.0939988  32.2070012 104.5574997 132.0669988
  33.5870012 104.0124997 131.7639988  33.0699216 104.6527238 132.0456917
  25.6790012 109.1174997 128.2269988  26.2060012 109.8904997 128.0269988
  24.7990012 109.3424997 127.9249988  25.6322031 109.2537545 128.1587912
  21.4340012 103.9794997 122.8139988  22.0500012 104.6064997 123.1939988
  20.5720012 104.2954997 123.0859988  21.4017698 104.1079430 122.9027183
  27.1060012 106.7804997 127.8029988  26.8650012 107.7054997 127.8449988
  26.3650012 106.3214997 128.1999988  26.9729225 106.8450933 127.8623742
  27.6210012 110.9294997 134.1189988  27.9830012 111.7844997 133.8849988
  28.1520012 110.6374997 134.8589988  27.7424473 111.0071060 134.1870855
  25.7890012 111.8024997 127.3489988  24.8390012 111.9074997 127.3999988
  26.1410012 112.6224997 127.6929988  25.7064195 111.9278800 127.4025502
  31.1650012 107.0284997 133.8189988  30.7390012 106.8014997 134.6459988
  31.7450012 106.2904997 133.6369988  31.1851868 106.8975299 133.9075830
  33.3680012 107.9574997 122.8929988  33.7210012 107.5774997 123.6969988
  32.4190012 107.8644997 122.9799988  33.2880918 107.8928956 123.0148532
  33.8230012 111.5804997 136.2889988  33.2220012 111.0254997 135.7929988
  34.1050012 112.2474997 135.6619988  33.7788804 111.5946625 136.1364849
  37.8710012 112.4374997 123.0939988  38.6150012 113.0234997 122.9539988
  37.1770012 113.0054997 123.4269988  37.8789899 112.5945798 123.1198778
  21.9460012  98.8134997 135.6959988  21.0530012  99.1524997 135.6279988
  21.8470012  97.9584997 136.1139988  21.8104164  98.7442588 135.7432235
  34.2340012 106.6304997 125.1199988  33.9560012 105.9024997 125.6759988
  35.1610012 106.7494997 125.3249988  34.3213124 106.5468802 125.2238845
  21.5970012 110.6184997 134.1309988  21.8140012 109.6864997 134.0999988
  21.8430012 110.8924997 135.0139988  21.6599549 110.5280636 134.2461763
  27.4590012 109.0694997 121.3399988  27.6980012 108.3214997 120.7929988
  27.1900012 108.6814997 122.1729988  27.4553675 108.9146638 121.3776865
  26.3960012 108.6394997 123.7959988  26.5420012 108.1194997 124.5859988
  26.3930012 109.5464997 124.1029988  26.4155792 108.6908842 123.9456117
  22.8490012 105.8924997 124.3069988  22.1630012 106.2444997 124.8739988
  23.3710012 106.6554997 124.0599988  22.8256852 106.0438578 124.3512118
  30.6800012  98.5544997 134.5859988  31.3790012  98.6284997 135.2359988
  30.2990012  97.6904997 134.7399988  30.7241767  98.4477624 134.6958322
  31.4650012  98.2064997 125.6829988  31.6850012  98.6784997 124.8799988
  32.0230012  98.6014997 126.3529988  31.5704968  98.3244285 125.6637331
  29.1330012 110.3374997 124.5459988  28.3170012 110.8344997 124.5979988
  29.6630012 110.8124997 123.9059988  29.0929161 110.4697722 124.4665956
  28.6650012  99.9344997 126.5179988  29.4770012 100.4394997 126.5639988
  28.4200012  99.7894997 127.4319988  28.7430520  99.9840375 126.6478517
  29.2000012 100.9204997 135.7019988  29.3190012 101.4944997 136.4599988
  29.8560012 100.2324997 135.8169988  29.3049025 100.9059858 135.8211321
  29.5480012  97.0154997 127.4559988  29.2020012  97.6334997 128.0999988
  30.2070012  97.5164997 126.9739988  29.5896968  97.1676278 127.4789383
  26.4720012 111.3814997 124.5269988  26.6320012 112.1804997 124.0269988
  26.2740012 111.6874997 125.4119988  26.4671637 111.5324020 124.5781144
  25.2060012  98.0784997 124.1429988  25.1230012  98.9674997 124.4899988
  26.0960012  97.8134997 124.3749988  25.3149469  98.1641430 124.2217626
  35.4050012  98.8274997 136.5369988  34.4880012  99.0904997 136.4499988
  35.7400012  98.8244997 135.6409988  35.3248613  98.8630761 136.4038837
  34.0070012 102.5784997 130.6329988  33.2090012 102.1634997 130.3049988
  34.4520012 101.8874997 131.1239988  33.9579885 102.4283543 130.6544889
  23.4650012 108.5064997 123.2039988  24.0570012 109.2054997 123.4799988
  23.9240012 108.0734997 122.4839988  23.6081142 108.5437049 123.1444830
  21.7810012 101.1704997 122.3199988  21.7360012 102.1094997 122.4979988
  20.8930012 100.9344997 122.0499988  21.6548574 101.2671892 122.3078912
  35.0930012 111.8344997 132.2559988  34.9380012 112.5124997 131.5979988
  36.0260012 111.9064997 132.4589988  35.1978657 111.9369546 132.1934360
  22.5890012  95.9524997 130.9929988  22.3600012  96.0114997 130.0649988
  22.1460012  95.1604997 131.2989988  22.4978530  95.8535753 130.9074786
  21.5190012 109.8924997 127.1529988  20.6870012 110.3654997 127.1799988
  22.0650012 110.4024997 126.5549988  21.4790352 110.0261332 127.0758463
  20.8070012 112.5054997 138.4829988  21.3480012 112.2884997 139.2429988
  20.3260012 111.6994997 138.2929988  20.8159951 112.3669270 138.5612576
  25.4050012 111.4244997 140.1029988  26.1720012 110.9654997 140.4439988
  25.3830012 111.1984997 139.1739988  25.5071275 111.3310186 140.0240101
  29.4970012 110.9324997 121.4789988  28.8530012 110.3014997 121.7999988
  30.2590012 110.4014997 121.2469988  29.5118077 110.7742920 121.4916011
  31.9820012 109.8044997 138.8329988  31.6310012 108.9484997 139.0759988
  32.7080012 109.9474997 139.4399988  32.0320769 109.7065636 138.9483619
  34.1010012 110.7494997 121.7119988  34.3840012 109.9554997 122.1649988
  34.8410012 110.9824997 121.1519988  34.2398006 110.6723376 121.6982715
  20.7140012 106.3154997 139.4369988  20.8580012 105.4134997 139.1509988
  19.9420012 106.6014997 138.9499988  20.6292753 106.2306816 139.3319505
  25.0560012 106.6594997 121.5699988  25.1200012 105.8654997 122.1009988
  25.7090012 106.5404997 120.8799988  25.1530241 106.5347148 121.5494317
  27.3700012 106.2854997 138.8699988  27.0410012 106.5564997 138.0129988
  27.5220012 105.3444997 138.7829988  27.3454809 106.1953862 138.7408244
  30.4080012 107.7064997 121.3059988  30.1390012 107.8864997 122.2069988
  30.2020012 106.7804997 121.1739988  30.3433427 107.6060261 121.4115073
  33.1040012 106.2014997 136.2529988  33.8500012 106.7894997 136.1339988
  32.3470012 106.7834997 136.3169988  33.1037820 106.3607143 136.2453590
  21.5470012 103.5154997 138.8569988  21.9550012 102.6584997 138.7359988
  21.2870012 103.5304997 139.7779988  21.5677568 103.4000807 138.9649588
  26.2050012 104.6314997 123.8759988  25.7450012 104.1474997 124.5619988
  26.4600012 103.9634997 123.2399988  26.1764902 104.4748731 123.8839334
  25.4940012 102.5244997 136.2319988  24.8760012 103.1994997 136.5119988
  25.8380012 102.8454997 135.3979988  25.4559132 102.6602411 136.1576262
  27.2760012 102.8744997 122.1379988  27.0960012 102.7204997 121.2109988
  28.2260012 102.9824997 122.1829988  27.3797776 102.8680175 122.0171843
  30.5140012 104.9964997 139.5089988  31.4670012 105.0794997 139.4819988
  30.3530012 104.2844997 140.1289988  30.6226426 104.9116746 139.5890579
  36.6660012 105.2294997 121.5839988  36.3920012 104.8044997 120.7709988
  36.7050012 106.1604997 121.3669988  36.6337699 105.2972484 121.4433610
  25.8330012  99.8794997 137.3139988  25.9830012  99.1504997 136.7119988
  25.8360012 100.6564997 136.7549988  25.8539302  99.8847851 137.1560692
  26.2460012  98.2494997 134.8069988  26.7820012  98.7004997 134.1549988
  25.3940012  98.1414997 134.3839988  26.2042178  98.2966390 134.6605756
  27.8280012 103.6884997 135.0459988  28.5780012 103.5324997 134.4729988
  27.4890012 104.5404997 134.7709988  27.8848921 103.7822968 134.9303561
  32.2430012 101.5034997 140.0749988  32.4360012 100.5724997 139.9629988
  33.1010012 101.9284997 140.0639988  32.3852934 101.4336531 140.0582031
  33.5600012 104.2924997 138.1519988  33.2790012 105.0014997 137.5739988
  34.5030012 104.2194997 138.0009988  33.6489291 104.3796711 138.0524967
  24.3120012 101.0774997 139.2259988  23.5450012 100.5454997 139.0149988
  24.9910012 100.7674997 138.6259988  24.2987877 100.9628300 139.1160716
  27.0520012  95.7054997 135.2379988  26.9530012  96.6524997 135.1329988
  26.3090012  95.3334997 134.7619988  26.9381184  95.7845863 135.1593621
  28.3160012 100.0274997 138.8019988  28.0800012  99.8074997 139.7029988
  27.5320012  99.8204997 138.2919988  28.1778504  99.9694586 138.8563431
  31.0310012  99.1544997 137.8769988  30.0840012  99.1864997 138.0099988
  31.3440012  98.5294997 138.5309988  30.9436707  99.0743998 137.9836060
  32.6650012  97.7884997 139.8829988  32.5690012  96.8364997 139.8769988
  32.3440012  98.0574997 140.7429988  32.6084070  97.6944035 139.9985441
  22.4920012  98.9984997 138.9299988  22.7040012  98.2914997 138.3199988
  22.3810012  98.5604997 139.7739988  22.5059721  98.8427084 138.9606843
  27.2730012  94.9994997 137.9089988  27.9850012  94.3594997 137.8949988
  27.1720012  95.2664997 136.9959988  27.3568066  94.9480079 137.7835677
  27.6270012  96.6824997 139.9629988  27.4950012  96.2064997 139.1429988
  27.0280012  97.4264997 139.9079988  27.5279071  96.7179618 139.8432886
  27.1730012 113.5654997 123.1389988  28.1060012 113.7234997 123.2829988
  26.9090012 114.2404997 122.5149988  27.2649888 113.6784510 123.0742842
  20.7420012 108.2014997 122.6219988  21.6560012 108.2804997 122.8959988
  20.7490012 107.5144997 121.9559988  20.8681131 108.1193961 122.5694393
  19.3910012 113.5944997 127.6999988  18.7440012 113.1324997 127.1669988
  19.7450012 112.9224997 128.2819988  19.3503849 113.4404723 127.7057959
  20.2610012 111.6754997 129.5039988  19.9260012 110.7954997 129.6759988
  20.4830012 112.0204997 130.3689988  20.2451783 111.6017500 129.6444208
  37.8090012 112.4844997 132.4849988  37.7880012 112.6694997 133.4239988
  38.5000012 113.0534997 132.1439988  37.8994618 112.5866606 132.5673864
  37.3730012 112.0524997 135.4069988  36.8850012 111.3164997 135.0349988
  37.9220012 111.6584997 136.0849988  37.3804820 111.8985889 135.4477813
  35.8230012 107.8414997 140.0449988  34.9570012 107.7364997 140.4389988
  36.2000012 108.6004997 140.4909988  35.7553308 107.9296900 140.1592393
  37.1240012 106.0984997 125.5589988  37.9740012 106.5194997 125.6859988
  37.1300012 105.3584997 126.1659988  37.2411372 106.0560803 125.6584344
  37.5190012 104.1514997 127.3819988  36.7920012 103.6724997 127.7799988
  38.1000012 104.3574997 128.1149988  37.4980473 104.1138103 127.5354528
  37.2780012 106.9364997 132.3299988  38.1110012 106.5584997 132.0499988
  37.3900012 107.8794997 132.2109988  37.4072647 107.0122218 132.2755487
  35.7640012 109.8144997 134.6369988  35.1170012 110.1394997 135.2629988
  35.2470012 109.3744997 133.9629988  35.6054029 109.7995004 134.6315827
  37.7870012 104.0524997 123.7739988  37.2650012 104.4094997 123.0549988
  37.7540012 104.7274997 124.4519988  37.7111634 104.1925413 123.7673145
  36.1360012 101.2924997 122.3239988  36.2320012 101.9594997 121.6439988
  35.9960012 100.4764997 121.8429988  36.1302272 101.2735655 122.1658347
  35.3050012 102.6724997 127.9449988  35.1550012 101.7274997 127.9249988
  34.9520012 102.9534997 128.7889988  35.2367448 102.5811481 128.0563705
  20.3410012 104.7504997 131.9559988  20.5250012 104.6684997 131.0199988
  21.1900012 104.6264997 132.3789988  20.4810151 104.7225073 131.8851451
  36.1620012 104.6424997 137.5839988  36.7450012 103.9084997 137.7759988
  36.7260012 105.4144997 137.6309988  36.3179769 104.6464227 137.6166159
  37.6580012 102.5454997 138.2689988  36.7950012 102.1664997 138.1029988
  38.2630012 101.8064997 138.1939988  37.6216119 102.3938268 138.2361528
  35.3830012  98.7004997 121.4419988  35.9940012  98.3294997 122.0789988
  34.5470012  98.2794997 121.6379988  35.3535032  98.5927554 121.5557035
  35.0160012 100.2554997 126.4079988  35.2960012  99.3484997 126.5319988
  35.7750012 100.6894997 126.0189988  35.1569277 100.1900942 126.3723682
  35.6280012 100.8364997 131.8439988  36.5610012 101.0484997 131.8089988
  35.3930012 100.9384997 132.7659988  35.7239244 100.8793100 131.9638892
  35.6570012 101.5734997 134.6199988  34.8140012 101.8414997 134.9859988
  36.0990012 102.3954997 134.4089988  35.6014158 101.7213291 134.6415491
  19.9380012 100.0214997 138.0969988  20.8580012  99.8994997 138.3329988
  19.4890012  99.2714997 138.4859988  20.0031580  99.9033727 138.1819006
  37.9400012  95.5534997 139.9729988  38.2900012  94.8994997 139.3679988
  38.0870012  96.3904997 139.5329988  38.0077887  95.5771548 139.8306858
  35.6290012  97.5184997 126.4559988  35.8120012  97.0694997 127.2819988
  35.0300012  96.9334997 125.9929988  35.5730202  97.3779975 126.5063275
  21.1590012  98.3334997 130.9879988  21.6050012  97.5414997 131.2899988
  21.6260012  99.0494997 131.4179988  21.2830831  98.3220685 131.0874006
  19.4630012 101.3324997 132.0569988  19.9550012 101.1114997 131.2659988
  19.8260012 102.1734997 132.3379988  19.5793126 101.4158357 131.9867531
  37.4600012  97.6624997 138.3219988  36.5420012  97.9334997 138.2869988
  37.5830012  97.1274997 137.5379988  37.3509729  97.6272508 138.2111923
  37.4960012  97.5854997 122.9839988  37.9080012  96.8644997 122.5089988
  38.1780012  98.2554997 123.0429988  37.6445885  97.5772368 122.9268915
  19.7770012  97.5904997 126.1109988  18.8520012  97.7994997 125.9819988
  20.2310012  98.0744997 125.4209988  19.7117292  97.6845343 126.0000720
  34.5480012 112.5744997 128.0569988  35.2000012 112.2274997 127.4489988
  35.0580012 113.0634997 128.7029988  34.7062637 112.5930597 128.0610236
  19.7410012  96.3284997 134.4549988  19.0760012  96.0824997 135.0989988
  19.2980012  96.9504997 133.8779988  19.5901318  96.3789410 134.4650898
  21.9330012 109.5034997 138.5999988  21.1120012 109.6784997 138.1389988
  21.6800012 109.4304997 139.5199988  21.7865585 109.5175544 138.6613561
  24.8870012 110.4784997 134.8579988  24.4620012 111.2874997 134.5759988
  25.7910012 110.5634997 134.5559988  24.9509975 110.6009300 134.7784816
  29.1980012 111.8774997 137.8179988  29.3830012 111.5434997 138.6959988
  30.0440012 112.1864997 137.4959988  29.3377539 111.8736047 137.8945605
  31.5430012 113.1634997 137.0619988  32.2200012 112.5304997 136.8219988
  31.8650012 113.5644997 137.8689988  31.6791637 113.1311154 137.1382793
  36.4600012  95.7524997 136.1409988  35.6480012  96.0774997 135.7539988
  36.6930012  94.9924997 135.6079988  36.3802203  95.6942758 136.0158880
  22.2890012 113.7344997 134.9059988  21.5680012 114.1744997 134.4549988
  21.9230012 113.4834997 135.7539988  22.1409651 113.7607242 134.9589640
  24.7560012 113.3344997 133.9359988  23.8910012 113.4064997 134.3399988
  24.7010012 113.8814997 133.1519988  24.6302085 113.4182685 133.8853362
  29.4660012 113.2224997 133.1109988  29.0100012 113.7514997 132.4569988
  29.6290012 113.8254997 133.8359988  29.4256068 113.3764607 133.1194838
  31.7940012 112.1004997 134.0559988  30.8890012 112.2654997 133.7899988
  32.2230012 112.9534997 133.9909988  31.7281324 112.2384339 134.0107976
  34.3980012 113.6704997 134.3509988  34.2160012 114.5864997 134.1409988
  34.5750012 113.2604997 133.5049988  34.3970210 113.7404822 134.2077885
  21.7030012 112.3574997 131.8159988  21.6850012 111.9324997 132.6729988
  22.5080012 112.0394997 131.4069988  21.8093529 112.2563013 131.8780946
  23.8450012 111.0674997 130.4709988  23.6260012 110.1514997 130.6409988
  24.6690012 111.2074997 130.9369988  23.9264420 110.9610520 130.5572773
  26.3820012 111.5374997 131.3199988  26.5950012 110.6494997 131.0329988
  26.4460012 111.5034997 132.2739988  26.4198231 111.4113102 131.4097397
  29.8900012  97.2014997 130.4639988  29.2160012  96.5724997 130.7199988
  30.4540012  96.7174997 129.8609988  29.8739230  97.0498744 130.4175340
  35.0330012  95.3094997 130.5769988  35.6370012  95.8564997 130.0749988
  34.1630012  95.6284997 130.3359988  34.9981208  95.4275137 130.4756886
  36.7600012  96.4474997 128.9099988  37.3720012  95.9334997 128.3829988
  37.1420012  97.3254997 128.9329988  36.8953371  96.4957866 128.8410041
  22.2170012  95.8354997 128.2859988  21.4400012  95.6014997 127.7789988
  22.7470012  95.0384997 128.2949988  22.1822330  95.6956988 128.2177742
  21.0530012  95.6334997 124.0899988  21.4920012  96.2444997 123.4979988
  20.4200012  96.1714997 124.5639988  21.0274514  95.7899257 124.0730930
  26.7960012  95.7624997 128.0999988  27.6710012  96.1504997 128.0699988
  26.6600012  95.5474997 129.0219988  26.8973695  95.7865184 128.2206440
  32.3530012  95.7924997 129.7489988  32.4290012  95.8874997 128.7989988
  32.0780012  94.8844997 129.8779988  32.3262321  95.6827867 129.6365079
  33.7060012  95.8184997 125.4409988  33.0040012  96.4334997 125.2309988
  33.2620012  94.9804997 125.5719988  33.5496450  95.7895639 125.4299000
  20.9540012 111.5814997 124.9869988  20.2690012 111.5434997 124.3199988
  20.9580012 112.4944997 125.2759988  20.8606998 111.6996733 124.9346771
  22.9140012  97.5494997 122.5319988  23.4060012  96.9194997 122.0049988
  23.5380012  97.8454997 123.1949988  23.0655688  97.5033804 122.5495482
  27.9400012  97.8424997 124.9889988  28.1180012  97.1964997 125.6719988
  27.8870012  98.6764997 125.4559988  27.9571999  97.8668009 125.1455917
  29.8190012 112.7914997 123.3849988  30.6850012 113.1574997 123.2069988
  29.5720012 112.3514997 122.5709988  29.9042392 112.7821756 123.2506289
  36.5280012 112.3544997 126.0639988  36.3330012 111.6064997 125.4989988
  36.4890012 113.1124997 125.4809988  36.4960380 112.3546099 125.9078384
  22.1750012  96.3494997 137.8039988  21.8090012  95.5844997 138.2459988
  23.0880012  96.3784997 138.0899988  22.2482736  96.2485640 137.9032502
  24.1480012  95.7004997 139.3399988  25.0460012  95.4264997 139.1549988
  23.7610012  94.9574997 139.8039988  24.2186612  95.5625914 139.3773643
  22.7720012 112.5014997 122.0129988  22.5050012 112.7884997 122.8859988
  23.5440012 111.9554997 122.1649988  22.8397488 112.4670294 122.1531050
  32.5690012  95.0324997 139.5219988  32.6460012  94.6064997 140.3759988
  33.4630012  95.0464997 139.1789988  32.7003428  94.9760879 139.5925310
  35.7450012 111.1054997 138.2139988  34.9630012 110.9194997 137.6939988
  35.6730012 112.0344997 138.4319988  35.6282274 111.2056643 138.1723018
  50.1510012 104.9914997 128.2449988  50.2400012 105.9354997 128.1129988
  49.5130012 104.7164997 127.5869988  50.0769081 105.0834830 128.1379614
  49.0840012 104.2464997 131.6639988  49.0460012 103.6004997 132.3689988
  48.7620012 103.7804997 130.8929988  49.0352333 104.0949408 131.6562978
  41.4530012 103.8614997 133.2569988  41.4940012 103.2354997 133.9799988
  42.1560012 104.4854997 133.4389988  41.5536363 103.8601196 133.3806044
  52.7900012 107.1854997 129.9649988  52.3500012 106.4654997 130.4159988
  52.7770012 107.9064997 130.5949988  52.7280226 107.1843731 130.1118494
  42.3760012 108.3114997 131.7919988  42.0070012 107.5094997 131.4219988
  43.3170012 108.1424997 131.8379988  42.4527289 108.1790153 131.7476316
  38.9860012 101.9714997 127.1849988  38.5390012 102.8174997 127.1659988
  38.4250012 101.3914997 126.6689988  38.8489900 102.0089916 127.1126801
  39.6970012 104.1334997 129.3099988  39.9100012 103.3634997 129.8379988
  40.4350012 104.2224997 128.7069988  39.8259044 104.0401968 129.3007123
  49.9020012 112.2904997 130.1769988  50.5220012 111.6134997 129.9039988
  49.6940012 112.0724997 131.0859988  49.9586726 112.1684800 130.2624812
  47.4740012 106.6794997 132.0699988  47.7780012 105.9934997 131.4749988
  48.1950012 106.7974997 132.6879988  47.6130671 106.6016304 132.0721816
  56.1370012  98.2804997 132.9309988  56.1860012  98.8904997 133.6659988
  56.5620012  98.7414997 132.2079988  56.2011746  98.4263796 132.9339175
  50.6150012 101.0734997 132.3969988  50.7570012 100.1274997 132.4179988
  50.5080012 101.2804997 131.4689988  50.6199919 100.9718246 132.2743408
  43.7690012  99.1744997 129.6699988  43.8130012 100.0344997 129.2509988
  43.3120012  98.6224997 129.0359988  43.7132240  99.2174422 129.5269864
  51.4920012  99.3054997 128.0709988  52.1380012  98.9764997 128.6949988
  52.0020012  99.8234997 127.4479988  51.6494299  99.3304450 128.0722731
  40.3900012 101.5714997 130.4319988  41.0430012 101.0214997 130.8639988
  40.4140012 101.2974997 129.5149988  40.4826683 101.4591466 130.3672123
  45.5460012 103.1214997 129.6469988  46.1620012 102.5954997 130.1569988
  44.9600012 102.4814997 129.2439988  45.5510810 102.9629208 129.6623173
  56.5280012  99.7584997 135.1659988  55.8400012 100.4164997 135.0709988
  56.5440012  99.5614997 136.1029988  56.4359540  99.8219819 135.2795990
  42.5800012  98.0924997 133.7439988  42.3610012  98.6224997 132.9779988
  41.9120012  98.3194997 134.3909988  42.4597600  98.1956906 133.7266379
  49.9490012 107.5924997 127.2879988  49.6530012 107.2704997 126.4369988
  49.6240012 108.4924997 127.3289988  49.8646371 107.6700215 127.1771801
  45.1490012 105.7684997 134.0309988  44.4090012 106.3664997 134.1349988
  45.8630012 106.3224997 133.7159988  45.1442237 105.9252831 134.0026465
  53.2560012  98.5964997 130.0509988  53.0400012  97.8304997 130.5839988
  53.9110012  99.0684997 130.5639988  53.3150632  98.5555889 130.1932861
  42.1730012  99.9844997 131.6959988  42.7870012 100.6174997 132.0689988
  42.6850012  99.5124997 131.0399988  42.3261981 100.0072267 131.6582908
  43.5560012 107.7324997 134.8179988  43.5510012 108.6124997 134.4399988
  42.7030012 107.6494997 135.2429988  43.4399464 107.8416117 134.8237907
  39.6770012 107.4034997 125.5999988  39.4050012 107.6324997 124.7119988
  39.7230012 108.2414997 126.0609988  39.6459482 107.5481318 125.5406273
  53.3020012 109.0254997 132.3129988  52.3610012 109.0834997 132.4749988
  53.5790012 109.9314997 132.1759988  53.2104679 109.1559443 132.3166815
  53.6030012  97.3114997 133.7309988  52.8670012  97.9224997 133.6929988
  54.2860012  97.7264997 133.2039988  53.5946541  97.4511374 133.6545832
  46.6060012  95.3984997 131.1959988  46.4890012  94.4494997 131.1419988
  45.7510012  95.7304997 131.4699988  46.4744212  95.3135571 131.2256497
  51.5540012 110.8064997 128.9379988  51.9800012 110.0994997 128.4529988
  51.8710012 111.6074997 128.5219988  51.6551683 110.8181017 128.8153680
  52.7140012 108.7074997 127.4469988  52.4560012 108.0174997 126.8359988
  52.7850012 108.2644997 128.2929988  52.6882856 108.5532124 127.4776885
  54.4000012 107.2734997 135.9239988  54.5400012 106.6824997 135.1849988
  54.5670012 108.1464997 135.5679988  54.4417411 107.3105428 135.7746894
  48.8730012 104.2354997 125.6969988  48.1610012 104.7704997 125.3449988
  49.5640012 104.2914997 125.0369988  48.8690132 104.3162543 125.5596289
  48.9260012 102.6934997 122.7359988  49.6270012 102.7154997 123.3869988
  49.2290012 102.0654997 122.0789988  49.0628133 102.6117070 122.7363369
  56.2420012 103.6134997 133.9899988  55.5890012 104.3084997 134.0799988
  56.7070012 103.8234997 133.1809988  56.2155274 103.7370643 133.8928462
  52.2780012 104.4454997 126.6489988  51.5460012 104.6734997 127.2219988
  52.7260012 103.7314997 127.1029988  52.2382725 104.3802145 126.7888816
  52.1760012 102.6194997 135.7159988  52.2560012 103.3824997 136.2879988
  51.5740012 102.8984997 135.0259988  52.1055756 102.7617134 135.7010589
  43.9240012 105.0754997 128.5309988  43.5930012 104.7054997 127.7129988
  44.5120012 104.4054997 128.8779988  43.9581873 104.9341156 128.4658102
  45.2900012 108.5034997 131.2119988  45.1960012 107.9254997 130.4559988
  46.0200012 108.1324997 131.7089988  45.3757387 108.3741663 131.1755342
  44.2900012 103.8444997 132.1649988  44.8560012 103.9654997 131.4019988
  44.6090012 104.4814997 132.8029988  44.4105474 103.9472219 132.1469862
  50.5990012 109.3474997 132.8989988  50.3590012 110.0094997 133.5469988
  50.4010012 108.5134997 133.3239988  50.5393808 109.3253134 133.0451524
  45.1700012 108.2434997 136.8819988  44.8590012 109.0254997 137.3369988
  44.5200012 108.0904997 136.1959988  45.0395558 108.3299105 136.8515871
  51.1490012 103.6074997 124.3339988  51.7290012 103.7574997 125.0809988
  51.5630012 104.0784997 123.6099988  51.2842997 103.6916578 124.3384058
  42.0900012 104.4414997 136.1099988  42.1610012 105.0924997 136.8089988
  41.2000012 104.5444997 135.7749988  41.9793005 104.5445427 136.1603495
  48.8760012 110.3444997 127.7689988  49.3500012 110.6394997 128.5459988
  48.3130012 111.0824997 127.5359988  48.8648184 110.4847247 127.8439628
  43.4100012 110.3154997 137.6449988  43.4170012 110.1794997 136.6979988
  42.4940012 110.1974997 137.8969988  43.2871714 110.2809430 137.5494666
  54.8480012  95.3574997 124.1469988  53.9480012  95.4964997 124.4419988
  55.1000012  96.1884997 123.7449988  54.7588702  95.4889074 124.1330205
  42.9140012 104.1454997 126.1199988  42.6220012 104.9134997 125.6299988
  42.2400012 103.4854997 125.9579988  42.7828111 104.1615587 126.0308978
  56.0370012 109.7234997 122.5229988  56.1110012 110.6624997 122.6939988
  56.9430012 109.4184997 122.4669988  56.1695100 109.8106722 122.5388119
  39.0070012 106.5084997 134.9349988  38.5060012 106.4804997 134.1199988
  39.0120012 105.6024997 135.2449988  38.9390944 106.3822396 134.8653226
  38.7570012 109.2884997 131.8189988  39.7030012 109.1444997 131.7999988
  38.6450012 110.0724997 132.3559988  38.8712727 109.3748046 131.8890072
  56.9550012 109.9544997 137.5019988  56.9060012 108.9994997 137.4649988
  56.1280012 110.2224997 137.9029988  56.8364940 109.8598998 137.5511375
  47.9340012 109.5284997 136.3779988  48.0210012 110.3544997 136.8529988
  47.0700012 109.1984997 136.6269988  47.8291964 109.5969878 136.4766549
  48.3480012 113.3004997 126.1839988  48.2730012 113.1794997 125.2369988
  48.3810012 114.2504997 126.3019988  48.3422068 113.4122646 126.0704967
  42.0010012 112.0894997 127.9649988  42.1540012 111.7414997 128.8429988
  41.1510012 111.7334997 127.7099988  41.9069166 111.9936216 128.0508079
  51.4500012 112.4544997 123.1859988  51.8250012 111.7104997 122.7149988
  51.4540012 112.1844997 124.1049988  51.5019125 112.3160986 123.2456483
  51.1190012 112.3804997 125.9349988  50.1830012 112.4804997 126.1139988
  51.3990012 111.6714997 126.5139988  51.0289553 112.2983406 126.0377087
  54.1070012 101.4474997 137.9819988  53.7000012 101.9284997 137.2609988
  54.1480012 100.5424997 137.6739988  54.0568437 101.3909374 137.8416683
  41.2560012 107.8314997 135.9789988  41.4720012 107.4704997 136.8379988
  40.4010012 107.4574997 135.7689988  41.1699292 107.7314111 136.0683386
  43.8750012  96.3014997 131.9739988  43.0130012  96.2144997 131.5659988
  43.8520012  97.1574997 132.4019988  43.7540409  96.4052883 131.9760589
  48.5380012  96.0234997 135.3489988  48.9580012  95.6084997 136.1019988
  47.6050012  95.8454997 135.4659988  48.4693644  95.9425900 135.4679539
  51.8640012  99.7794997 136.2019988  51.3500012  99.6534997 136.9999988
  51.7090012 100.6914997 135.9579988  51.7726852  99.8856132 136.2782158
  52.6270012 104.6404997 121.9639988  52.6690012 104.4174997 121.0339988
  53.4760012 105.0394997 122.1529988  52.7475280 104.6639438 121.8623554
  48.1990012  98.5164997 122.6339988  47.9460012  98.5354997 123.5569988
  47.9430012  97.6444997 122.3319988  48.1297481  98.4012558 122.7196175
  43.9660012 101.2674997 133.0689988  43.3240012 101.2264997 133.7779988
  44.0030012 102.1934997 132.8309988  43.8830664 101.3871430 133.1339219
  43.9630012 101.4884997 127.9809988  43.0700012 101.1474997 127.9219988
  44.4130012 101.1114997 127.2249988  43.9018130 101.3909631 127.8707702
  49.4980012 101.9044997 126.7979988  49.0890012 102.7194997 126.5069988
  50.2190012 101.7644997 126.1839988  49.5394537 101.9972018 126.6751342
  48.6000012 102.0794997 138.2859988  48.0380012 101.3754997 138.6069988
  49.4270012 101.9594997 138.7539988  48.6347095 101.9667883 138.3932330
  50.5030012 101.3504997 129.6119988  50.3080012 101.9554997 128.8969988
  50.6840012 100.5164997 129.1779988  50.5007614 101.3206300 129.4554405
  41.7160012 101.5874997 134.9359988  41.6780012 101.9874997 135.8049988
  41.2250012 100.7704997 135.0269988  41.6444684 101.5318069 135.0671059
  45.0820012  98.9614997 121.7349988  44.6510012  98.5164997 122.4649988
  44.3640012  99.3334997 121.2229988  44.9259438  98.9508940 121.7656799
  38.3240012  98.7034997 128.7869988  38.9550012  98.6744997 129.5059988
  38.7730012  98.2784997 128.0559988  38.4710918  98.6420836 128.7866441
  39.5980012  99.4494997 124.2109988  40.0720012 100.0404997 123.6259988
  38.8810012  99.9804997 124.5579988  39.5659341  99.6020867 124.1778836
  49.7670012 102.9884997 134.2829988  50.0900012 102.3574997 133.6399988
  49.3270012 102.4534997 134.9439988  49.7517484 102.8298387 134.2843198
  46.5440012  98.9154997 129.0669988  45.6330012  98.9724997 129.3559988
  47.0500012  98.8554997 129.8779988  46.4876899  98.9151941 129.2161184
  41.3730012 100.5444997 127.8939988  40.4830012 100.6444997 127.5539988
  41.6690012  99.7024997 127.5479988  41.2912823 100.4443546 127.8007213
  45.0260012 100.5444997 125.5509988  45.9570012 100.6734997 125.7289988
  44.8110012 101.2144997 124.9009988  45.1244247 100.6526565 125.4875747
  50.9490012  98.1504997 132.3319988  50.2730012  98.2814997 132.9959988
  50.4640012  97.9954997 131.5209988  50.7907146  98.1475157 132.3134469
  43.7000012 101.7394997 123.1169988  43.1570012 101.3594997 122.4259988
  44.5330012 101.9334997 122.6889988  43.7383631 101.7137125 122.9644501
  54.2370012 113.8224997 138.6079988  54.4370012 114.2464997 137.7739988
  54.8920012 114.1654997 139.2149988  54.3530072 113.9269857 138.5758592
  41.8350012 106.2964997 138.2159988  42.5670012 106.5504997 138.7779988
  41.0550012 106.5004997 138.7319988  41.8297073 106.3588160 138.3626151
  47.8640012 101.7034997 130.9539988  48.4290012 101.1564997 130.4069988
  47.7170012 101.1814997 131.7429988  47.9213380 101.5582259 130.9858695
  42.8660012  97.8394997 127.3729988  42.5490012  96.9374997 127.3369988
  43.6480012  97.8414997 126.8199988  42.9282408  97.7162474 127.2933569
  46.4910012 100.0914997 133.3679988  45.6550012 100.5454997 133.4789988
  47.0150012 100.3674997 134.1199988  46.4475416 100.1908660 133.4848119
  47.0350012 106.3044997 125.0529988  46.2900012 105.7974997 124.7309988
  46.9010012 106.3534997 125.9999988  46.9148776 106.2416940 125.1368647
  54.1850012 105.4374997 133.8399988  54.8270012 105.8944997 133.2959988
  53.3550012 105.5504997 133.3769988  54.1605963 105.5152704 133.7030177
  50.9330012  99.1184997 123.2519988  49.9940012  99.2304997 123.1009988
  51.2300012  99.9754997 123.5589988  50.8447583  99.2495981 123.2728337
  48.5540012 106.4884997 136.2899988  48.2090012 106.1074997 137.0969988
  48.3540012 107.4224997 136.3609988  48.4797527 106.5625135 136.4100689
  51.6510012 100.9854997 124.9129988  52.5430012 100.8484997 125.2319988
  51.7080012 101.7764997 124.3759988  51.7806504 101.0736052 124.8840818
  42.1600012 105.5994997 130.8229988  42.9050012 105.5974997 130.2219988
  42.2380012 104.7764997 131.3039988  42.2724995 105.4878887 130.8058282
  49.1610012 107.7634997 124.0789988  48.8650012 108.5894997 124.4599988
  48.4580012 107.1434997 124.2749988  49.0254914 107.7928199 124.1576443
  39.1680012 104.0604997 136.1379988  39.3910012 103.6424997 136.9699988
  38.5660012 103.4474997 135.7149988  39.1171759 103.9204668 136.1947022
  46.1840012 103.5774997 138.3509988  45.8880012 103.4114997 137.4559988
  47.1160012 103.3574997 138.3399988  46.2694166 103.5250640 138.2270536
  50.8050012 108.9504997 136.2409988  49.9040012 109.1334997 135.9729988
  50.8390012 109.2094997 137.1609988  50.6863139 109.0105849 136.3288099
  56.5360012 101.1954997 124.6079988  55.9820012 100.7994997 123.9359988
  56.6360012 102.1054997 124.3299988  56.4737059 101.2643586 124.4784401
  56.4990012 106.9954997 137.4449988  55.6480012 107.2334997 137.0779988
  57.0900012 106.9784997 136.6919988  56.4622487 107.0258258 137.2928893
  54.8310012 109.9814997 125.0729988  54.4580012 109.1554997 125.3819988
  55.1090012 109.7984997 124.1749988  54.8175222 109.8437430 124.9939473
  51.9920012 104.7894997 132.0939988  51.0630012 104.5574997 132.0669988
  52.4430012 104.0124997 131.7639988  51.9259216 104.6527238 132.0456917
  44.5350012 109.1174997 128.2269988  45.0620012 109.8904997 128.0269988
  43.6550012 109.3424997 127.9249988  44.4882031 109.2537545 128.1587912
  40.2900012 103.9794997 122.8139988  40.9060012 104.6064997 123.1939988
  39.4280012 104.2954997 123.0859988  40.2577698 104.1079430 122.9027183
  45.9620012 106.7804997 127.8029988  45.7210012 107.7054997 127.8449988
  45.2210012 106.3214997 128.1999988  45.8289225 106.8450933 127.8623742
  46.4770012 110.9294997 134.1189988  46.8390012 111.7844997 133.8849988
  47.0080012 110.6374997 134.8589988  46.5984473 111.0071060 134.1870855
  44.6450012 111.8024997 127.3489988  43.6950012 111.9074997 127.3999988
  44.9970012 112.6224997 127.6929988  44.5624195 111.9278800 127.4025502
  50.0210012 107.0284997 133.8189988  49.5950012 106.8014997 134.6459988
  50.6010012 106.2904997 133.6369988  50.0411868 106.8975299 133.9075830
  52.2240012 107.9574997 122.8929988  52.5770012 107.5774997 123.6969988
  51.2750012 107.8644997 122.9799988  52.1440918 107.8928956 123.0148532
  52.6790012 111.5804997 136.2889988  52.0780012 111.0254997 135.7929988
  52.9610012 112.2474997 135.6619988  52.6348804 111.5946625 136.1364849
  56.7270012 112.4374997 123.0939988  57.4710012 113.0234997 122.9539988
  56.0330012 113.0054997 123.4269988  56.7349899 112.5945798 123.1198778
  40.8020012  98.8134997 135.6959988  39.9090012  99.1524997 135.6279988
  40.7030012  97.9584997 136.1139988  40.6664164  98.7442588 135.7432235
  53.0900012 106.6304997 125.1199988  52.8120012 105.9024997 125.6759988
  54.0170012 106.7494997 125.3249988  53.1773124 106.5468802 125.2238845
  40.4530012 110.6184997 134.1309988  40.6700012 109.6864997 134.0999988
  40.6990012 110.8924997 135.0139988  40.5159549 110.5280636 134.2461763
  46.3150012 109.0694997 121.3399988  46.5540012 108.3214997 120.7929988
  46.0460012 108.6814997 122.1729988  46.3113675 108.9146638 121.3776865
  45.2520012 108.6394997 123.7959988  45.3980012 108.1194997 124.5859988
  45.2490012 109.5464997 124.1029988  45.2715792 108.6908842 123.9456117
  41.7050012 105.8924997 124.3069988  41.0190012 106.2444997 124.8739988
  42.2270012 106.6554997 124.0599988  41.6816852 106.0438578 124.3512118
  49.5360012  98.5544997 134.5859988  50.2350012  98.6284997 135.2359988
  49.1550012  97.6904997 134.7399988  49.5801767  98.4477624 134.6958322
  50.3210012  98.2064997 125.6829988  50.5410012  98.6784997 124.8799988
  50.8790012  98.6014997 126.3529988  50.4264968  98.3244285 125.6637331
  47.9890012 110.3374997 124.5459988  47.1730012 110.8344997 124.5979988
  48.5190012 110.8124997 123.9059988  47.9489161 110.4697722 124.4665956
  47.5210012  99.9344997 126.5179988  48.3330012 100.4394997 126.5639988
  47.2760012  99.7894997 127.4319988  47.5990520  99.9840375 126.6478517
  48.0560012 100.9204997 135.7019988  48.1750012 101.4944997 136.4599988
  48.7120012 100.2324997 135.8169988  48.1609025 100.9059858 135.8211321
  48.4040012  97.0154997 127.4559988  48.0580012  97.6334997 128.0999988
  49.0630012  97.5164997 126.9739988  48.4456968  97.1676278 127.4789383
  45.3280012 111.3814997 124.5269988  45.4880012 112.1804997 124.0269988
  45.1300012 111.6874997 125.4119988  45.3231637 111.5324020 124.5781144
  44.0620012  98.0784997 124.1429988  43.9790012  98.9674997 124.4899988
  44.9520012  97.8134997 124.3749988  44.1709469  98.1641430 124.2217626
  54.2610012  98.8274997 136.5369988  53.3440012  99.0904997 136.4499988
  54.5960012  98.8244997 135.6409988  54.1808613  98.8630761 136.4038837
  52.8630012 102.5784997 130.6329988  52.0650012 102.1634997 130.3049988
  53.3080012 101.8874997 131.1239988  52.8139885 102.4283543 130.6544889
  42.3210012 108.5064997 123.2039988  42.9130012 109.2054997 123.4799988
  42.7800012 108.0734997 122.4839988  42.4641142 108.5437049 123.1444830
  40.6370012 101.1704997 122.3199988  40.5920012 102.1094997 122.4979988
  39.7490012 100.9344997 122.0499988  40.5108574 101.2671892 122.3078912
  53.9490012 111.8344997 132.2559988  53.7940012 112.5124997 131.5979988
  54.8820012 111.9064997 132.4589988  54.0538657 111.9369546 132.1934360
  41.4450012  95.9524997 130.9929988  41.2160012  96.0114997 130.0649988
  41.0020012  95.1604997 131.2989988  41.3538530  95.8535753 130.9074786
  40.3750012 109.8924997 127.1529988  39.5430012 110.3654997 127.1799988
  40.9210012 110.4024997 126.5549988  40.3350352 110.0261332 127.0758463
  39.6630012 112.5054997 138.4829988  40.2040012 112.2884997 139.2429988
  39.1820012 111.6994997 138.2929988  39.6719951 112.3669270 138.5612576
  44.2610012 111.4244997 140.1029988  45.0280012 110.9654997 140.4439988
  44.2390012 111.1984997 139.1739988  44.3631275 111.3310186 140.0240101
  48.3530012 110.9324997 121.4789988  47.7090012 110.3014997 121.7999988
  49.1150012 110.4014997 121.2469988  48.3678077 110.7742920 121.4916011
  50.8380012 109.8044997 138.8329988  50.4870012 108.9484997 139.0759988
  51.5640012 109.9474997 139.4399988  50.8880769 109.7065636 138.9483619
  52.9570012 110.7494997 121.7119988  53.2400012 109.9554997 122.1649988
  53.6970012 110.9824997 121.1519988  53.0958006 110.6723376 121.6982715
  39.5700012 106.3154997 139.4369988  39.7140012 105.4134997 139.1509988
  38.7980012 106.6014997 138.9499988  39.4852753 106.2306816 139.3319505
  43.9120012 106.6594997 121.5699988  43.9760012 105.8654997 122.1009988
  44.5650012 106.5404997 120.8799988  44.0090241 106.5347148 121.5494317
  46.2260012 106.2854997 138.8699988  45.8970012 106.5564997 138.0129988
  46.3780012 105.3444997 138.7829988  46.2014809 106.1953862 138.7408244
  49.2640012 107.7064997 121.3059988  48.9950012 107.8864997 122.2069988
  49.0580012 106.7804997 121.1739988  49.1993427 107.6060261 121.4115073
  51.9600012 106.2014997 136.2529988  52.7060012 106.7894997 136.1339988
  51.2030012 106.7834997 136.3169988  51.9597820 106.3607143 136.2453590
  40.4030012 103.5154997 138.8569988  40.8110012 102.6584997 138.7359988
  40.1430012 103.5304997 139.7779988  40.4237568 103.4000807 138.9649588
  45.0610012 104.6314997 123.8759988  44.6010012 104.1474997 124.5619988
  45.3160012 103.9634997 123.2399988  45.0324902 104.4748731 123.8839334
  44.3500012 102.5244997 136.2319988  43.7320012 103.1994997 136.5119988
  44.6940012 102.8454997 135.3979988  44.3119132 102.6602411 136.1576262
  46.1320012 102.8744997 122.1379988  45.9520012 102.7204997 121.2109988
  47.0820012 102.9824997 122.1829988  46.2357776 102.8680175 122.0171843
  49.3700012 104.9964997 139.5089988  50.3230012 105.0794997 139.4819988
  49.2090012 104.2844997 140.1289988  49.4786426 104.9116746 139.5890579
  55.5220012 105.2294997 121.5839988  55.2480012 104.8044997 120.7709988
  55.5610012 106.1604997 121.3669988  55.4897699 105.2972484 121.4433610
  44.6890012  99.8794997 137.3139988  44.8390012  99.1504997 136.7119988
  44.6920012 100.6564997 136.7549988  44.7099302  99.8847851 137.1560692
  45.1020012  98.2494997 134.8069988  45.6380012  98.7004997 134.1549988
  44.2500012  98.1414997 134.3839988  45.0602178  98.2966390 134.6605756
  46.6840012 103.6884997 135.0459988  47.4340012 103.5324997 134.4729988
  46.3450012 104.5404997 134.7709988  46.7408921 103.7822968 134.9303561
  51.0990012 101.5034997 140.0749988  51.2920012 100.5724997 139.9629988
  51.9570012 101.9284997 140.0639988  51.2412934 101.4336531 140.0582031
  52.4160012 104.2924997 138.1519988  52.1350012 105.0014997 137.5739988
  53.3590012 104.2194997 138.0009988  52.5049291 104.3796711 138.0524967
  43.1680012 101.0774997 139.2259988  42.4010012 100.5454997 139.0149988
  43.8470012 100.7674997 138.6259988  43.1547877 100.9628300 139.1160716
  45.9080012  95.7054997 135.2379988  45.8090012  96.6524997 135.1329988
  45.1650012  95.3334997 134.7619988  45.7941184  95.7845863 135.1593621
  47.1720012 100.0274997 138.8019988  46.9360012  99.8074997 139.7029988
  46.3880012  99.8204997 138.2919988  47.0338504  99.9694586 138.8563431
  49.8870012  99.1544997 137.8769988  48.9400012  99.1864997 138.0099988
  50.2000012  98.5294997 138.5309988  49.7996707  99.0743998 137.9836060
  51.5210012  97.7884997 139.8829988  51.4250012  96.8364997 139.8769988
  51.2000012  98.0574997 140.7429988  51.4644070  97.6944035 139.9985441
  41.3480012  98.9984997 138.9299988  41.5600012  98.2914997 138.3199988
  41.2370012  98.5604997 139.7739988  41.3619721  98.8427084 138.9606843
  46.1290012  94.9994997 137.9089988  46.8410012  94.3594997 137.8949988
  46.0280012  95.2664997 136.9959988  46.2128066  94.9480079 137.7835677
  46.4830012  96.6824997 139.9629988  46.3510012  96.2064997 139.1429988
  45.8840012  97.4264997 139.9079988  46.3839071  96.7179618 139.8432886
  46.0290012 113.5654997 123.1389988  46.9620012 113.7234997 123.2829988
  45.7650012 114.2404997 122.5149988  46.1209888 113.6784510 123.0742842
  39.5980012 108.2014997 122.6219988  40.5120012 108.2804997 122.8959988
  39.6050012 107.5144997 121.9559988  39.7241131 108.1193961 122.5694393
  38.2470012 113.5944997 127.6999988  37.6000012 113.1324997 127.1669988
  38.6010012 112.9224997 128.2819988  38.2063849 113.4404723 127.7057959
  39.1170012 111.6754997 129.5039988  38.7820012 110.7954997 129.6759988
  39.3390012 112.0204997 130.3689988  39.1011783 111.6017500 129.6444208
  56.6650012 112.4844997 132.4849988  56.6440012 112.6694997 133.4239988
  57.3560012 113.0534997 132.1439988  56.7554618 112.5866606 132.5673864
  56.2290012 112.0524997 135.4069988  55.7410012 111.3164997 135.0349988
  56.7780012 111.6584997 136.0849988  56.2364820 111.8985889 135.4477813
  54.6790012 107.8414997 140.0449988  53.8130012 107.7364997 140.4389988
  55.0560012 108.6004997 140.4909988  54.6113308 107.9296900 140.1592393
  55.9800012 106.0984997 125.5589988  56.8300012 106.5194997 125.6859988
  55.9860012 105.3584997 126.1659988  56.0971372 106.0560803 125.6584344
  56.3750012 104.1514997 127.3819988  55.6480012 103.6724997 127.7799988
  56.9560012 104.3574997 128.1149988  56.3540473 104.1138103 127.5354528
  56.1340012 106.9364997 132.3299988  56.9670012 106.5584997 132.0499988
  56.2460012 107.8794997 132.2109988  56.2632647 107.0122218 132.2755487
  54.6200012 109.8144997 134.6369988  53.9730012 110.1394997 135.2629988
  54.1030012 109.3744997 133.9629988  54.4614029 109.7995004 134.6315827
  56.6430012 104.0524997 123.7739988  56.1210012 104.4094997 123.0549988
  56.6100012 104.7274997 124.4519988  56.5671634 104.1925413 123.7673145
  54.9920012 101.2924997 122.3239988  55.0880012 101.9594997 121.6439988
  54.8520012 100.4764997 121.8429988  54.9862272 101.2735655 122.1658347
  54.1610012 102.6724997 127.9449988  54.0110012 101.7274997 127.9249988
  53.8080012 102.9534997 128.7889988  54.0927448 102.5811481 128.0563705
  39.1970012 104.7504997 131.9559988  39.3810012 104.6684997 131.0199988
  40.0460012 104.6264997 132.3789988  39.3370151 104.7225073 131.8851451
  55.0180012 104.6424997 137.5839988  55.6010012 103.9084997 137.7759988
  55.5820012 105.4144997 137.6309988  55.1739769 104.6464227 137.6166159
  56.5140012 102.5454997 138.2689988  55.6510012 102.1664997 138.1029988
  57.1190012 101.8064997 138.1939988  56.4776119 102.3938268 138.2361528
  54.2390012  98.7004997 121.4419988  54.8500012  98.3294997 122.0789988
  53.4030012  98.2794997 121.6379988  54.2095032  98.5927554 121.5557035
  53.8720012 100.2554997 126.4079988  54.1520012  99.3484997 126.5319988
  54.6310012 100.6894997 126.0189988  54.0129277 100.1900942 126.3723682
  54.4840012 100.8364997 131.8439988  55.4170012 101.0484997 131.8089988
  54.2490012 100.9384997 132.7659988  54.5799244 100.8793100 131.9638892
  54.5130012 101.5734997 134.6199988  53.6700012 101.8414997 134.9859988
  54.9550012 102.3954997 134.4089988  54.4574158 101.7213291 134.6415491
  38.7940012 100.0214997 138.0969988  39.7140012  99.8994997 138.3329988
  38.3450012  99.2714997 138.4859988  38.8591580  99.9033727 138.1819006
  56.7960012  95.5534997 139.9729988  57.1460012  94.8994997 139.3679988
  56.9430012  96.3904997 139.5329988  56.8637887  95.5771548 139.8306858
  54.4850012  97.5184997 126.4559988  54.6680012  97.0694997 127.2819988
  53.8860012  96.9334997 125.9929988  54.4290202  97.3779975 126.5063275
  40.0150012  98.3334997 130.9879988  40.4610012  97.5414997 131.2899988
  40.4820012  99.0494997 131.4179988  40.1390831  98.3220685 131.0874006
  38.3190012 101.3324997 132.0569988  38.8110012 101.1114997 131.2659988
  38.6820012 102.1734997 132.3379988  38.4353126 101.4158357 131.9867531
  56.3160012  97.6624997 138.3219988  55.3980012  97.9334997 138.2869988
  56.4390012  97.1274997 137.5379988  56.2069729  97.6272508 138.2111923
  56.3520012  97.5854997 122.9839988  56.7640012  96.8644997 122.5089988
  57.0340012  98.2554997 123.0429988  56.5005885  97.5772368 122.9268915
  38.6330012  97.5904997 126.1109988  37.7080012  97.7994997 125.9819988
  39.0870012  98.0744997 125.4209988  38.5677292  97.6845343 126.0000720
  53.4040012 112.5744997 128.0569988  54.0560012 112.2274997 127.4489988
  53.9140012 113.0634997 128.7029988  53.5622637 112.5930597 128.0610236
  38.5970012  96.3284997 134.4549988  37.9320012  96.0824997 135.0989988
  38.1540012  96.9504997 133.8779988  38.4461318  96.3789410 134.4650898
  40.7890012 109.5034997 138.5999988  39.9680012 109.6784997 138.1389988
  40.5360012 109.4304997 139.5199988  40.6425585 109.5175544 138.6613561
  43.7430012 110.4784997 134.8579988  43.3180012 111.2874997 134.5759988
  44.6470012 110.5634997 134.5559988  43.8069975 110.6009300 134.7784816
  48.0540012 111.8774997 137.8179988  48.2390012 111.5434997 138.6959988
  48.9000012 112.1864997 137.4959988  48.1937539 111.8736047 137.8945605
  50.3990012 113.1634997 137.0619988  51.0760012 112.5304997 136.8219988
  50.7210012 113.5644997 137.8689988  50.5351637 113.1311154 137.1382793
  55.3160012  95.7524997 136.1409988  54.5040012  96.0774997 135.7539988
  55.5490012  94.9924997 135.6079988  55.2362203  95.6942758 136.0158880
  41.1450012 113.7344997 134.9059988  40.4240012 114.1744997 134.4549988
  40.7790012 113.4834997 135.7539988  40.9969651 113.7607242 134.9589640
  43.6120012 113.3344997 133.9359988  42.7470012 113.4064997 134.3399988
  43.5570012 113.8814997 133.1519988  43.4862085 113.4182685 133.8853362
  48.3220012 113.2224997 133.1109988  47.8660012 113.7514997 132.4569988
  48.4850012 113.8254997 133.8359988  48.2816068 113.3764607 133.1194838
  50.6500012 112.1004997 134.0559988  49.7450012 112.2654997 133.7899988
  51.0790012 112.9534997 133.9909988  50.5841324 112.2384339 134.0107976
  53.2540012 113.6704997 134.3509988  53.0720012 114.5864997 134.1409988
  53.4310012 113.2604997 133.5049988  53.2530210 113.7404822 134.2077885
  40.5590012 112.3574997 131.8159988  40.5410012 111.9324997 132.6729988
  41.3640012 112.0394997 131.4069988  40.6653529 112.2563013 131.8780946
  42.7010012 111.0674997 130.4709988  42.4820012 110.1514997 130.6409988
  43.5250012 111.2074997 130.9369988  42.7824420 110.9610520 130.5572774
  45.2380012 111.5374997 131.3199988  45.4510012 110.6494997 131.0329988
  45.3020012 111.5034997 132.2739988  45.2758231 111.4113102 131.4097397
  48.7460012  97.2014997 130.4639988  48.0720012  96.5724997 130.7199988
  49.3100012  96.7174997 129.8609988  48.7299230  97.0498744 130.4175340
  53.8890012  95.3094997 130.5769988  54.4930012  95.8564997 130.0749988
  53.0190012  95.6284997 130.3359988  53.8541208  95.4275137 130.4756886
  55.6160012  96.4474997 128.9099988  56.2280012  95.9334997 128.3829988
  55.9980012  97.3254997 128.9329988  55.7513371  96.4957866 128.8410041
  41.0730012  95.8354997 128.2859988  40.2960012  95.6014997 127.7789988
  41.6030012  95.0384997 128.2949988  41.0382330  95.6956988 128.2177742
  39.9090012  95.6334997 124.0899988  40.3480012  96.2444997 123.4979988
  39.2760012  96.1714997 124.5639988  39.8834514  95.7899257 124.0730930
  45.6520012  95.7624997 128.0999988  46.5270012  96.1504997 128.0699988
  45.5160012  95.5474997 129.0219988  45.7533695  95.7865184 128.2206440
  51.2090012  95.7924997 129.7489988  51.2850012  95.8874997 128.7989988
  50.9340012  94.8844997 129.8779988  51.1822321  95.6827867 129.6365079
  52.5620012  95.8184997 125.4409988  51.8600012  96.4334997 125.2309988
  52.1180012  94.9804997 125.5719988  52.4056450  95.7895639 125.4299000
  39.8100012 111.5814997 124.9869988  39.1250012 111.5434997 124.3199988
  39.8140012 112.4944997 125.2759988  39.7166998 111.6996733 124.9346771
  41.7700012  97.5494997 122.5319988  42.2620012  96.9194997 122.0049988
  42.3940012  97.8454997 123.1949988  41.9215688  97.5033804 122.5495482
  46.7960012  97.8424997 124.9889988  46.9740012  97.1964997 125.6719988
  46.7430012  98.6764997 125.4559988  46.8131999  97.8668009 125.1455917
  48.6750012 112.7914997 123.3849988  49.5410012 113.1574997 123.2069988
  48.4280012 112.3514997 122.5709988  48.7602392 112.7821756 123.2506289
  55.3840012 112.3544997 126.0639988  55.1890012 111.6064997 125.4989988
  55.3450012 113.1124997 125.4809988  55.3520380 112.3546099 125.9078384
  41.0310012  96.3494997 137.8039988  40.6650012  95.5844997 138.2459988
  41.9440012  96.3784997 138.0899988  41.1042736  96.2485640 137.9032502
  43.0040012  95.7004997 139.3399988  43.9020012  95.4264997 139.1549988
  42.6170012  94.9574997 139.8039988  43.0746612  95.5625914 139.3773643
  41.6280012 112.5014997 122.0129988  41.3610012 112.7884997 122.8859988
  42.4000012 111.9554997 122.1649988  41.6957488 112.4670294 122.1531050
  51.4250012  95.0324997 139.5219988  51.5020012  94.6064997 140.3759988
  52.3190012  95.0464997 139.1789988  51.5563428  94.9760879 139.5925310
  54.6010012 111.1054997 138.2139988  53.8190012 110.9194997 137.6939988
  54.5290012 112.0344997 138.4319988  54.4842274 111.2056643 138.1723018
  69.0070012 104.9914997 128.2449988  69.0960012 105.9354997 128.1129988
  68.3690012 104.7164997 127.5869988  68.9329081 105.0834830 128.1379614
  67.9400012 104.2464997 131.6639988  67.9020012 103.6004997 132.3689988
  67.6180012 103.7804997 130.8929988  67.8912333 104.0949408 131.6562978
  60.3090012 103.8614997 133.2569988  60.3500012 103.2354997 133.9799988
  61.0120012 104.4854997 133.4389988  60.4096363 103.8601196 133.3806044
  71.6460012 107.1854997 129.9649988  71.2060012 106.4654997 130.4159988
  71.6330012 107.9064997 130.5949988  71.5840226 107.1843731 130.1118494
  61.2320012 108.3114997 131.7919988  60.8630012 107.5094997 131.4219988
  62.1730012 108.1424997 131.8379988  61.3087289 108.1790153 131.7476316
  57.8420012 101.9714997 127.1849988  57.3950012 102.8174997 127.1659988
  57.2810012 101.3914997 126.6689988  57.7049900 102.0089916 127.1126801
  58.5530012 104.1334997 129.3099988  58.7660012 103.3634997 129.8379988
  59.2910012 104.2224997 128.7069988  58.6819044 104.0401968 129.3007123
  68.7580012 112.2904997 130.1769988  69.3780012 111.6134997 129.9039988
  68.5500012 112.0724997 131.0859988  68.8146726 112.1684800 130.2624812
  66.3300012 106.6794997 132.0699988  66.6340012 105.9934997 131.4749988
  67.0510012 106.7974997 132.6879988  66.4690671 106.6016305 132.0721816
  74.9930012  98.2804997 132.9309988  75.0420012  98.8904997 133.6659988
  75.4180012  98.7414997 132.2079988  75.0571746  98.4263796 132.9339175
  69.4710012 101.0734997 132.3969988  69.6130012 100.1274997 132.4179988
  69.3640012 101.2804997 131.4689988  69.4759919 100.9718246 132.2743408
  62.6250012  99.1744997 129.6699988  62.6690012 100.0344997 129.2509988
  62.1680012  98.6224997 129.0359988  62.5692240  99.2174422 129.5269864
  70.3480012  99.3054997 128.0709988  70.9940012  98.9764997 128.6949988
  70.8580012  99.8234997 127.4479988  70.5054299  99.3304450 128.0722731
  59.2460012 101.5714997 130.4319988  59.8990012 101.0214997 130.8639988
  59.2700012 101.2974997 129.5149988  59.3386683 101.4591466 130.3672123
  64.4020012 103.1214997 129.6469988  65.0180012 102.5954997 130.1569988
  63.8160012 102.4814997 129.2439988  64.4070810 102.9629208 129.6623173
  75.3840012  99.7584997 135.1659988  74.6960012 100.4164997 135.0709988
  75.4000012  99.5614997 136.1029988  75.2919540  99.8219819 135.2795990
  61.4360012  98.0924997 133.7439988  61.2170012  98.6224997 132.9779988
  60.7680012  98.3194997 134.3909988  61.3157600  98.1956906 133.7266379
  68.8050012 107.5924997 127.2879988  68.5090012 107.2704997 126.4369988
  68.4800012 108.4924997 127.3289988  68.7206371 107.6700215 127.1771801
  64.0050012 105.7684997 134.0309988  63.2650012 106.3664997 134.1349988
  64.7190012 106.3224997 133.7159988  64.0002237 105.9252831 134.0026465
  72.1120012  98.5964997 130.0509988  71.8960012  97.8304997 130.5839988
  72.7670012  99.0684997 130.5639988  72.1710632  98.5555889 130.1932861
  61.0290012  99.9844997 131.6959988  61.6430012 100.6174997 132.0689988
  61.5410012  99.5124997 131.0399988  61.1821981 100.0072267 131.6582908
  62.4120012 107.7324997 134.8179988  62.4070012 108.6124997 134.4399988
  61.5590012 107.6494997 135.2429988  62.2959464 107.8416117 134.8237907
  58.5330012 107.4034997 125.5999988  58.2610012 107.6324997 124.7119988
  58.5790012 108.2414997 126.0609988  58.5019482 107.5481318 125.5406273
  72.1580012 109.0254997 132.3129988  71.2170012 109.0834997 132.4749988
  72.4350012 109.9314997 132.1759988  72.0664679 109.1559443 132.3166815
  72.4590012  97.3114997 133.7309988  71.7230012  97.9224997 133.6929988
  73.1420012  97.7264997 133.2039988  72.4506541  97.4511374 133.6545832
  65.4620012  95.3984997 131.1959988  65.3450012  94.4494997 131.1419988
  64.6070012  95.7304997 131.4699988  65.3304212  95.3135571 131.2256497
  70.4100012 110.8064997 128.9379988  70.8360012 110.0994997 128.4529988
  70.7270012 111.6074997 128.5219988  70.5111683 110.8181017 128.8153680
  71.5700012 108.7074997 127.4469988  71.3120012 108.0174997 126.8359988
  71.6410012 108.2644997 128.2929988  71.5442856 108.5532124 127.4776885
  73.2560012 107.2734997 135.9239988  73.3960012 106.6824997 135.1849988
  73.4230012 108.1464997 135.5679988  73.2977411 107.3105428 135.7746894
  67.7290012 104.2354997 125.6969988  67.0170012 104.7704997 125.3449988
  68.4200012 104.2914997 125.0369988  67.7250132 104.3162543 125.5596289
  67.7820012 102.6934997 122.7359988  68.4830012 102.7154997 123.3869988
  68.0850012 102.0654997 122.0789988  67.9188133 102.6117070 122.7363369
  75.0980012 103.6134997 133.9899988  74.4450012 104.3084997 134.0799988
  75.5630012 103.8234997 133.1809988  75.0715274 103.7370643 133.8928462
  71.1340012 104.4454997 126.6489988  70.4020012 104.6734997 127.2219988
  71.5820012 103.7314997 127.1029988  71.0942725 104.3802145 126.7888816
  71.0320012 102.6194997 135.7159988  71.1120012 103.3824997 136.2879988
  70.4300012 102.8984997 135.0259988  70.9615756 102.7617134 135.7010589
  62.7800012 105.0754997 128.5309988  62.4490012 104.7054997 127.7129988
  63.3680012 104.4054997 128.8779988  62.8141873 104.9341156 128.4658102
  64.1460012 108.5034997 131.2119988  64.0520012 107.9254997 130.4559988
  64.8760012 108.1324997 131.7089988  64.2317387 108.3741663 131.1755342
  63.1460012 103.8444997 132.1649988  63.7120012 103.9654997 131.4019988
  63.4650012 104.4814997 132.8029988  63.2665474 103.9472219 132.1469862
  69.4550012 109.3474997 132.8989988  69.2150012 110.0094997 133.5469988
  69.2570012 108.5134997 133.3239988  69.3953808 109.3253134 133.0451524
  64.0260012 108.2434997 136.8819988  63.7150012 109.0254997 137.3369988
  63.3760012 108.0904997 136.1959988  63.8955558 108.3299105 136.8515871
  70.0050012 103.6074997 124.3339988  70.5850012 103.7574997 125.0809988
  70.4190012 104.0784997 123.6099988  70.1402997 103.6916578 124.3384058
  60.9460012 104.4414997 136.1099988  61.0170012 105.0924997 136.8089988
  60.0560012 104.5444997 135.7749988  60.8353005 104.5445427 136.1603495
  67.7320012 110.3444997 127.7689988  68.2060012 110.6394997 128.5459988
  67.1690012 111.0824997 127.5359988  67.7208184 110.4847247 127.8439628
  62.2660012 110.3154997 137.6449988  62.2730012 110.1794997 136.6979988
  61.3500012 110.1974997 137.8969988  62.1431714 110.2809430 137.5494666
  73.7040012  95.3574997 124.1469988  72.8040012  95.4964997 124.4419988
  73.9560012  96.1884997 123.7449988  73.6148702  95.4889074 124.1330205
  61.7700012 104.1454997 126.1199988  61.4780012 104.9134997 125.6299988
  61.0960012 103.4854997 125.9579988  61.6388111 104.1615587 126.0308978
  74.8930012 109.7234997 122.5229988  74.9670012 110.6624997 122.6939988
  75.7990012 109.4184997 122.4669988  75.0255100 109.8106722 122.5388119
  57.8630012 106.5084997 134.9349988  57.3620012 106.4804997 134.1199988
  57.8680012 105.6024997 135.2449988  57.7950944 106.3822396 134.8653226
  57.6130012 109.2884997 131.8189988  58.5590012 109.1444997 131.7999988
  57.5010012 110.0724997 132.3559988  57.7272727 109.3748046 131.8890072
  75.8110012 109.9544997 137.5019988  75.7620012 108.9994997 137.4649988
  74.9840012 110.2224997 137.9029988  75.6924940 109.8598998 137.5511375
  66.7900012 109.5284997 136.3779988  66.8770012 110.3544997 136.8529988
  65.9260012 109.1984997 136.6269988  66.6851964 109.5969878 136.4766549
  67.2040012 113.3004997 126.1839988  67.1290012 113.1794997 125.2369988
  67.2370012 114.2504997 126.3019988  67.1982068 113.4122646 126.0704967
  60.8570012 112.0894997 127.9649988  61.0100012 111.7414997 128.8429988
  60.0070012 111.7334997 127.7099988  60.7629166 111.9936216 128.0508079
  70.3060012 112.4544997 123.1859988  70.6810012 111.7104997 122.7149988
  70.3100012 112.1844997 124.1049988  70.3579125 112.3160986 123.2456483
  69.9750012 112.3804997 125.9349988  69.0390012 112.4804997 126.1139988
  70.2550012 111.6714997 126.5139988  69.8849553 112.2983406 126.0377087
  72.9630012 101.4474997 137.9819988  72.5560012 101.9284997 137.2609988
  73.0040012 100.5424997 137.6739988  72.9128437 101.3909374 137.8416683
  60.1120012 107.8314997 135.9789988  60.3280012 107.4704997 136.8379988
  59.2570012 107.4574997 135.7689988  60.0259292 107.7314111 136.0683386
  62.7310012  96.3014997 131.9739988  61.8690012  96.2144997 131.5659988
  62.7080012  97.1574997 132.4019988  62.6100409  96.4052883 131.9760589
  67.3940012  96.0234997 135.3489988  67.8140012  95.6084997 136.1019988
  66.4610012  95.8454997 135.4659988  67.3253644  95.9425900 135.4679539
  70.7200012  99.7794997 136.2019988  70.2060012  99.6534997 136.9999988
  70.5650012 100.6914997 135.9579988  70.6286852  99.8856132 136.2782158
  71.4830012 104.6404997 121.9639988  71.5250012 104.4174997 121.0339988
  72.3320012 105.0394997 122.1529988  71.6035280 104.6639438 121.8623554
  67.0550012  98.5164997 122.6339988  66.8020012  98.5354997 123.5569988
  66.7990012  97.6444997 122.3319988  66.9857481  98.4012558 122.7196175
  62.8220012 101.2674997 133.0689988  62.1800012 101.2264997 133.7779988
  62.8590012 102.1934997 132.8309988  62.7390664 101.3871430 133.1339219
  62.8190012 101.4884997 127.9809988  61.9260012 101.1474997 127.9219988
  63.2690012 101.1114997 127.2249988  62.7578130 101.3909631 127.8707702
  68.3540012 101.9044997 126.7979988  67.9450012 102.7194997 126.5069988
  69.0750012 101.7644997 126.1839988  68.3954537 101.9972018 126.6751342
  67.4560012 102.0794997 138.2859988  66.8940012 101.3754997 138.6069988
  68.2830012 101.9594997 138.7539988  67.4907095 101.9667883 138.3932330
  69.3590012 101.3504997 129.6119988  69.1640012 101.9554997 128.8969988
  69.5400012 100.5164997 129.1779988  69.3567614 101.3206300 129.4554405
  60.5720012 101.5874997 134.9359988  60.5340012 101.9874997 135.8049988
  60.0810012 100.7704997 135.0269988  60.5004684 101.5318069 135.0671059
  63.9380012  98.9614997 121.7349988  63.5070012  98.5164997 122.4649988
  63.2200012  99.3334997 121.2229988  63.7819438  98.9508940 121.7656799
  57.1800012  98.7034997 128.7869988  57.8110012  98.6744997 129.5059988
  57.6290012  98.2784997 128.0559988  57.3270918  98.6420836 128.7866441
  58.4540012  99.4494997 124.2109988  58.9280012 100.0404997 123.6259988
  57.7370012  99.9804997 124.5579988  58.4219341  99.6020867 124.1778836
  68.6230012 102.9884997 134.2829988  68.9460012 102.3574997 133.6399988
  68.1830012 102.4534997 134.9439988  68.6077484 102.8298387 134.2843198
  65.4000012  98.9154997 129.0669988  64.4890012  98.9724997 129.3559988
  65.9060012  98.8554997 129.8779988  65.3436899  98.9151941 129.2161184
  60.2290012 100.5444997 127.8939988  59.3390012 100.6444997 127.5539988
  60.5250012  99.7024997 127.5479988  60.1472823 100.4443545 127.8007213
  63.8820012 100.5444997 125.5509988  64.8130012 100.6734997 125.7289988
  63.6670012 101.2144997 124.9009988  63.9804247 100.6526565 125.4875747
  69.8050012  98.1504997 132.3319988  69.1290012  98.2814997 132.9959988
  69.3200012  97.9954997 131.5209988  69.6467146  98.1475157 132.3134469
  62.5560012 101.7394997 123.1169988  62.0130012 101.3594997 122.4259988
  63.3890012 101.9334997 122.6889988  62.5943631 101.7137125 122.9644501
  73.0930012 113.8224997 138.6079988  73.2930012 114.2464997 137.7739988
  73.7480012 114.1654997 139.2149988  73.2090072 113.9269857 138.5758592
  60.6910012 106.2964997 138.2159988  61.4230012 106.5504997 138.7779988
  59.9110012 106.5004997 138.7319988  60.6857073 106.3588160 138.3626151
  66.7200012 101.7034997 130.9539988  67.2850012 101.1564997 130.4069988
  66.5730012 101.1814997 131.7429988  66.7773380 101.5582259 130.9858695
  61.7220012  97.8394997 127.3729988  61.4050012  96.9374997 127.3369988
  62.5040012  97.8414997 126.8199988  61.7842408  97.7162474 127.2933569
  65.3470012 100.0914997 133.3679988  64.5110012 100.5454997 133.4789988
  65.8710012 100.3674997 134.1199988  65.3035416 100.1908660 133.4848119
  65.8910012 106.3044997 125.0529988  65.1460012 105.7974997 124.7309988
  65.7570012 106.3534997 125.9999988  65.7708776 106.2416940 125.1368647
  73.0410012 105.4374997 133.8399988  73.6830012 105.8944997 133.2959988
  72.2110012 105.5504997 133.3769988  73.0165963 105.5152704 133.7030177
  69.7890012  99.1184997 123.2519988  68.8500012  99.2304997 123.1009988
  70.0860012  99.9754997 123.5589988  69.7007583  99.2495981 123.2728337
  67.4100012 106.4884997 136.2899988  67.0650012 106.1074997 137.0969988
  67.2100012 107.4224997 136.3609988  67.3357527 106.5625135 136.4100689
  70.5070012 100.9854997 124.9129988  71.3990012 100.8484997 125.2319988
  70.5640012 101.7764997 124.3759988  70.6366504 101.0736052 124.8840818
  61.0160012 105.5994997 130.8229988  61.7610012 105.5974997 130.2219988
  61.0940012 104.7764997 131.3039988  61.1284995 105.4878887 130.8058282
  68.0170012 107.7634997 124.0789988  67.7210012 108.5894997 124.4599988
  67.3140012 107.1434997 124.2749988  67.8814914 107.7928199 124.1576443
  58.0240012 104.0604997 136.1379988  58.2470012 103.6424997 136.9699988
  57.4220012 103.4474997 135.7149988  57.9731759 103.9204668 136.1947022
  65.0400012 103.5774997 138.3509988  64.7440012 103.4114997 137.4559988
  65.9720012 103.3574997 138.3399988  65.1254166 103.5250640 138.2270536
  69.6610012 108.9504997 136.2409988  68.7600012 109.1334997 135.9729988
  69.6950012 109.2094997 137.1609988  69.5423139 109.0105849 136.3288099
  75.3920012 101.1954997 124.6079988  74.8380012 100.7994997 123.9359988
  75.4920012 102.1054997 124.3299988  75.3297059 101.2643586 124.4784401
  75.3550012 106.9954997 137.4449988  74.5040012 107.2334997 137.0779988
  75.9460012 106.9784997 136.6919988  75.3182487 107.0258258 137.2928893
  73.6870012 109.9814997 125.0729988  73.3140012 109.1554997 125.3819988
  73.9650012 109.7984997 124.1749988  73.6735222 109.8437430 124.9939473
  70.8480012 104.7894997 132.0939988  69.9190012 104.5574997 132.0669988
  71.2990012 104.0124997 131.7639988  70.7819216 104.6527238 132.0456917
  63.3910012 109.1174997 128.2269988  63.9180012 109.8904997 128.0269988
  62.5110012 109.3424997 127.9249988  63.3442031 109.2537545 128.1587912
  59.1460012 103.9794997 122.8139988  59.7620012 104.6064997 123.1939988
  58.2840012 104.2954997 123.0859988  59.1137698 104.1079430 122.9027183
  64.8180012 106.7804997 127.8029988  64.5770012 107.7054997 127.8449988
  64.0770012 106.3214997 128.1999988  64.6849225 106.8450933 127.8623742
  65.3330012 110.9294997 134.1189988  65.6950012 111.7844997 133.8849988
  65.8640012 110.6374997 134.8589988  65.4544473 111.0071060 134.1870855
  63.5010012 111.8024997 127.3489988  62.5510012 111.9074997 127.3999988
  63.8530012 112.6224997 127.6929988  63.4184195 111.9278800 127.4025502
  68.8770012 107.0284997 133.8189988  68.4510012 106.8014997 134.6459988
  69.4570012 106.2904997 133.6369988  68.8971868 106.8975299 133.9075830
  71.0800012 107.9574997 122.8929988  71.4330012 107.5774997 123.6969988
  70.1310012 107.8644997 122.9799988  71.0000918 107.8928956 123.0148532
  71.5350012 111.5804997 136.2889988  70.9340012 111.0254997 135.7929988
  71.8170012 112.2474997 135.6619988  71.4908804 111.5946625 136.1364849
  75.5830012 112.4374997 123.0939988  76.3270012 113.0234997 122.9539988
  74.8890012 113.0054997 123.4269988  75.5909899 112.5945798 123.1198778
  59.6580012  98.8134997 135.6959988  58.7650012  99.1524997 135.6279988
  59.5590012  97.9584997 136.1139988  59.5224164  98.7442588 135.7432235
  71.9460012 106.6304997 125.1199988  71.6680012 105.9024997 125.6759988
  72.8730012 106.7494997 125.3249988  72.0333124 106.5468802 125.2238845
  59.3090012 110.6184997 134.1309988  59.5260012 109.6864997 134.0999988
  59.5550012 110.8924997 135.0139988  59.3719549 110.5280636 134.2461763
  65.1710012 109.0694997 121.3399988  65.4100012 108.3214997 120.7929988
  64.9020012 108.6814997 122.1729988  65.1673675 108.9146638 121.3776865
  64.1080012 108.6394997 123.7959988  64.2540012 108.1194997 124.5859988
  64.1050012 109.5464997 124.1029988  64.1275792 108.6908842 123.9456117
  60.5610012 105.8924997 124.3069988  59.8750012 106.2444997 124.8739988
  61.0830012 106.6554997 124.0599988  60.5376852 106.0438578 124.3512118
  68.3920012  98.5544997 134.5859988  69.0910012  98.6284997 135.2359988
  68.0110012  97.6904997 134.7399988  68.4361767  98.4477624 134.6958322
  69.1770012  98.2064997 125.6829988  69.3970012  98.6784997 124.8799988
  69.7350012  98.6014997 126.3529988  69.2824968  98.3244285 125.6637331
  66.8450012 110.3374997 124.5459988  66.0290012 110.8344997 124.5979988
  67.3750012 110.8124997 123.9059988  66.8049161 110.4697722 124.4665956
  66.3770012  99.9344997 126.5179988  67.1890012 100.4394997 126.5639988
  66.1320012  99.7894997 127.4319988  66.4550520  99.9840375 126.6478517
  66.9120012 100.9204997 135.7019988  67.0310012 101.4944997 136.4599988
  67.5680012 100.2324997 135.8169988  67.0169025 100.9059858 135.8211321
  67.2600012  97.0154997 127.4559988  66.9140012  97.6334997 128.0999988
  67.9190012  97.5164997 126.9739988  67.3016968  97.1676278 127.4789383
  64.1840012 111.3814997 124.5269988  64.3440012 112.1804997 124.0269988
  63.9860012 111.6874997 125.4119988  64.1791637 111.5324020 124.5781144
  62.9180012  98.0784997 124.1429988  62.8350012  98.9674997 124.4899988
  63.8080012  97.8134997 124.3749988  63.0269469  98.1641430 124.2217626
  73.1170012  98.8274997 136.5369988  72.2000012  99.0904997 136.4499988
  73.4520012  98.8244997 135.6409988  73.0368613  98.8630761 136.4038837
  71.7190012 102.5784997 130.6329988  70.9210012 102.1634997 130.3049988
  72.1640012 101.8874997 131.1239988  71.6699885 102.4283543 130.6544889
  61.1770012 108.5064997 123.2039988  61.7690012 109.2054997 123.4799988
  61.6360012 108.0734997 122.4839988  61.3201142 108.5437049 123.1444830
  59.4930012 101.1704997 122.3199988  59.4480012 102.1094997 122.4979988
  58.6050012 100.9344997 122.0499988  59.3668574 101.2671892 122.3078912
  72.8050012 111.8344997 132.2559988  72.6500012 112.5124997 131.5979988
  73.7380012 111.9064997 132.4589988  72.9098657 111.9369546 132.1934360
  60.3010012  95.9524997 130.9929988  60.0720012  96.0114997 130.0649988
  59.8580012  95.1604997 131.2989988  60.2098530  95.8535753 130.9074786
  59.2310012 109.8924997 127.1529988  58.3990012 110.3654997 127.1799988
  59.7770012 110.4024997 126.5549988  59.1910352 110.0261332 127.0758463
  58.5190012 112.5054997 138.4829988  59.0600012 112.2884997 139.2429988
  58.0380012 111.6994997 138.2929988  58.5279951 112.3669270 138.5612576
  63.1170012 111.4244997 140.1029988  63.8840012 110.9654997 140.4439988
  63.0950012 111.1984997 139.1739988  63.2191275 111.3310186 140.0240101
  67.2090012 110.9324997 121.4789988  66.5650012 110.3014997 121.7999988
  67.9710012 110.4014997 121.2469988  67.2238077 110.7742920 121.4916011
  69.6940012 109.8044997 138.8329988  69.3430012 108.9484997 139.0759988
  70.4200012 109.9474997 139.4399988  69.7440769 109.7065636 138.9483619
  71.8130012 110.7494997 121.7119988  72.0960012 109.9554997 122.1649988
  72.5530012 110.9824997 121.1519988  71.9518006 110.6723376 121.6982715
  58.4260012 106.3154997 139.4369988  58.5700012 105.4134997 139.1509988
  57.6540012 106.6014997 138.9499988  58.3412753 106.2306816 139.3319505
  62.7680012 106.6594997 121.5699988  62.8320012 105.8654997 122.1009988
  63.4210012 106.5404997 120.8799988  62.8650241 106.5347148 121.5494317
  65.0820012 106.2854997 138.8699988  64.7530012 106.5564997 138.0129988
  65.2340012 105.3444997 138.7829988  65.0574809 106.1953862 138.7408244
  68.1200012 107.7064997 121.3059988  67.8510012 107.8864997 122.2069988
  67.9140012 106.7804997 121.1739988  68.0553427 107.6060261 121.4115073
  70.8160012 106.2014997 136.2529988  71.5620012 106.7894997 136.1339988
  70.0590012 106.7834997 136.3169988  70.8157820 106.3607143 136.2453590
  59.2590012 103.5154997 138.8569988  59.6670012 102.6584997 138.7359988
  58.9990012 103.5304997 139.7779988  59.2797568 103.4000807 138.9649588
  63.9170012 104.6314997 123.8759988  63.4570012 104.1474997 124.5619988
  64.1720012 103.9634997 123.2399988  63.8884902 104.4748731 123.8839334
  63.2060012 102.5244997 136.2319988  62.5880012 103.1994997 136.5119988
  63.5500012 102.8454997 135.3979988  63.1679132 102.6602411 136.1576262
  64.9880012 102.8744997 122.1379988  64.8080012 102.7204997 121.2109988
  65.9380012 102.9824997 122.1829988  65.0917776 102.8680175 122.0171843
  68.2260012 104.9964997 139.5089988  69.1790012 105.0794997 139.4819988
  68.0650012 104.2844997 140.1289988  68.3346426 104.9116746 139.5890579
  74.3780012 105.2294997 121.5839988  74.1040012 104.8044997 120.7709988
  74.4170012 106.1604997 121.3669988  74.3457699 105.2972484 121.4433610
  63.5450012  99.8794997 137.3139988  63.6950012  99.1504997 136.7119988
  63.5480012 100.6564997 136.7549988  63.5659302  99.8847851 137.1560692
  63.9580012  98.2494997 134.8069988  64.4940012  98.7004997 134.1549988
  63.1060012  98.1414997 134.3839988  63.9162178  98.2966390 134.6605756
  65.5400012 103.6884997 135.0459988  66.2900012 103.5324997 134.4729988
  65.2010012 104.5404997 134.7709988  65.5968921 103.7822968 134.9303561
  69.9550012 101.5034997 140.0749988  70.1480012 100.5724997 139.9629988
  70.8130012 101.9284997 140.0639988  70.0972934 101.4336531 140.0582031
  71.2720012 104.2924997 138.1519988  70.9910012 105.0014997 137.5739988
  72.2150012 104.2194997 138.0009988  71.3609291 104.3796711 138.0524967
  62.0240012 101.0774997 139.2259988  61.2570012 100.5454997 139.0149988
  62.7030012 100.7674997 138.6259988  62.0107877 100.9628300 139.1160716
  64.7640012  95.7054997 135.2379988  64.6650012  96.6524997 135.1329988
  64.0210012  95.3334997 134.7619988  64.6501184  95.7845863 135.1593621
  66.0280012 100.0274997 138.8019988  65.7920012  99.8074997 139.7029988
  65.2440012  99.8204997 138.2919988  65.8898504  99.9694586 138.8563431
  68.7430012  99.1544997 137.8769988  67.7960012  99.1864997 138.0099988
  69.0560012  98.5294997 138.5309988  68.6556707  99.0743998 137.9836060
  70.3770012  97.7884997 139.8829988  70.2810012  96.8364997 139.8769988
  70.0560012  98.0574997 140.7429988  70.3204070  97.6944035 139.9985441
  60.2040012  98.9984997 138.9299988  60.4160012  98.2914997 138.3199988
  60.0930012  98.5604997 139.7739988  60.2179721  98.8427084 138.9606843
  64.9850012  94.9994997 137.9089988  65.6970012  94.3594997 137.8949988
  64.8840012  95.2664997 136.9959988  65.0688066  94.9480079 137.7835677
  65.3390012  96.6824997 139.9629988  65.2070012  96.2064997 139.1429988
  64.7400012  97.4264997 139.9079988  65.2399071  96.7179618 139.8432886
  64.8850012 113.5654997 123.1389988  65.8180012 113.7234997 123.2829988
  64.6210012 114.2404997 122.5149988  64.9769888 113.6784510 123.0742842
  58.4540012 108.2014997 122.6219988  59.3680012 108.2804997 122.8959988
  58.4610012 107.5144997 121.9559988  58.5801131 108.1193961 122.5694393
  57.1030012 113.5944997 127.6999988  56.4560012 113.1324997 127.1669988
  57.4570012 112.9224997 128.2819988  57.0623849 113.4404723 127.7057959
  57.9730012 111.6754997 129.5039988  57.6380012 110.7954997 129.6759988
  58.1950012 112.0204997 130.3689988  57.9571783 111.6017500 129.6444208
  75.5210012 112.4844997 132.4849988  75.5000012 112.6694997 133.4239988
  76.2120012 113.0534997 132.1439988  75.6114618 112.5866606 132.5673864
  75.0850012 112.0524997 135.4069988  74.5970012 111.3164997 135.0349988
  75.6340012 111.6584997 136.0849988  75.0924820 111.8985889 135.4477813
  73.5350012 107.8414997 140.0449988  72.6690012 107.7364997 140.4389988
  73.9120012 108.6004997 140.4909988  73.4673308 107.9296900 140.1592393
  74.8360012 106.0984997 125.5589988  75.6860012 106.5194997 125.6859988
  74.8420012 105.3584997 126.1659988  74.9531372 106.0560803 125.6584344
  75.2310012 104.1514997 127.3819988  74.5040012 103.6724997 127.7799988
  75.8120012 104.3574997 128.1149988  75.2100473 104.1138103 127.5354528
  74.9900012 106.9364997 132.3299988  75.8230012 106.5584997 132.0499988
  75.1020012 107.8794997 132.2109988  75.1192647 107.0122218 132.2755487
  73.4760012 109.8144997 134.6369988  72.8290012 110.1394997 135.2629988
  72.9590012 109.3744997 133.9629988  73.3174029 109.7995004 134.6315827
  75.4990012 104.0524997 123.7739988  74.9770012 104.4094997 123.0549988
  75.4660012 104.7274997 124.4519988  75.4231634 104.1925413 123.7673145
  73.8480012 101.2924997 122.3239988  73.9440012 101.9594997 121.6439988
  73.7080012 100.4764997 121.8429988  73.8422272 101.2735655 122.1658347
  73.0170012 102.6724997 127.9449988  72.8670012 101.7274997 127.9249988
  72.6640012 102.9534997 128.7889988  72.9487448 102.5811481 128.0563705
  58.0530012 104.7504997 131.9559988  58.2370012 104.6684997 131.0199988
  58.9020012 104.6264997 132.3789988  58.1930151 104.7225073 131.8851451
  73.8740012 104.6424997 137.5839988  74.4570012 103.9084997 137.7759988
  74.4380012 105.4144997 137.6309988  74.0299769 104.6464227 137.6166159
  75.3700012 102.5454997 138.2689988  74.5070012 102.1664997 138.1029988
  75.9750012 101.8064997 138.1939988  75.3336119 102.3938268 138.2361528
  73.0950012  98.7004997 121.4419988  73.7060012  98.3294997 122.0789988
  72.2590012  98.2794997 121.6379988  73.0655032  98.5927554 121.5557035
  72.7280012 100.2554997 126.4079988  73.0080012  99.3484997 126.5319988
  73.4870012 100.6894997 126.0189988  72.8689277 100.1900942 126.3723682
  73.3400012 100.8364997 131.8439988  74.2730012 101.0484997 131.8089988
  73.1050012 100.9384997 132.7659988  73.4359244 100.8793100 131.9638892
  73.3690012 101.5734997 134.6199988  72.5260012 101.8414997 134.9859988
  73.8110012 102.3954997 134.4089988  73.3134158 101.7213291 134.6415491
  57.6500012 100.0214997 138.0969988  58.5700012  99.8994997 138.3329988
  57.2010012  99.2714997 138.4859988  57.7151580  99.9033727 138.1819006
  75.6520012  95.5534997 139.9729988  76.0020012  94.8994997 139.3679988
  75.7990012  96.3904997 139.5329988  75.7197887  95.5771548 139.8306858
  73.3410012  97.5184997 126.4559988  73.5240012  97.0694997 127.2819988
  72.7420012  96.9334997 125.9929988  73.2850202  97.3779975 126.5063275
  58.8710012  98.3334997 130.9879988  59.3170012  97.5414997 131.2899988
  59.3380012  99.0494997 131.4179988  58.9950831  98.3220685 131.0874006
  57.1750012 101.3324997 132.0569988  57.6670012 101.1114997 131.2659988
  57.5380012 102.1734997 132.3379988  57.2913126 101.4158357 131.9867531
  75.1720012  97.6624997 138.3219988  74.2540012  97.9334997 138.2869988
  75.2950012  97.1274997 137.5379988  75.0629729  97.6272508 138.2111923
  75.2080012  97.5854997 122.9839988  75.6200012  96.8644997 122.5089988
  75.8900012  98.2554997 123.0429988  75.3565885  97.5772368 122.9268915
  57.4890012  97.5904997 126.1109988  56.5640012  97.7994997 125.9819988
  57.9430012  98.0744997 125.4209988  57.4237292  97.6845343 126.0000720
  72.2600012 112.5744997 128.0569988  72.9120012 112.2274997 127.4489988
  72.7700012 113.0634997 128.7029988  72.4182637 112.5930597 128.0610236
  57.4530012  96.3284997 134.4549988  56.7880012  96.0824997 135.0989988
  57.0100012  96.9504997 133.8779988  57.3021318  96.3789410 134.4650898
  59.6450012 109.5034997 138.5999988  58.8240012 109.6784997 138.1389988
  59.3920012 109.4304997 139.5199988  59.4985585 109.5175544 138.6613561
  62.5990012 110.4784997 134.8579988  62.1740012 111.2874997 134.5759988
  63.5030012 110.5634997 134.5559988  62.6629975 110.6009300 134.7784816
  66.9100012 111.8774997 137.8179988  67.0950012 111.5434997 138.6959988
  67.7560012 112.1864997 137.4959988  67.0497539 111.8736047 137.8945605
  69.2550012 113.1634997 137.0619988  69.9320012 112.5304997 136.8219988
  69.5770012 113.5644997 137.8689988  69.3911637 113.1311154 137.1382793
  74.1720012  95.7524997 136.1409988  73.3600012  96.0774997 135.7539988
  74.4050012  94.9924997 135.6079988  74.0922203  95.6942758 136.0158880
  60.0010012 113.7344997 134.9059988  59.2800012 114.1744997 134.4549988
  59.6350012 113.4834997 135.7539988  59.8529651 113.7607242 134.9589640
  62.4680012 113.3344997 133.9359988  61.6030012 113.4064997 134.3399988
  62.4130012 113.8814997 133.1519988  62.3422085 113.4182685 133.8853362
  67.1780012 113.2224997 133.1109988  66.7220012 113.7514997 132.4569988
  67.3410012 113.8254997 133.8359988  67.1376068 113.3764607 133.1194838
  69.5060012 112.1004997 134.0559988  68.6010012 112.2654997 133.7899988
  69.9350012 112.9534997 133.9909988  69.4401324 112.2384339 134.0107976
  72.1100012 113.6704997 134.3509988  71.9280012 114.5864997 134.1409988
  72.2870012 113.2604997 133.5049988  72.1090210 113.7404822 134.2077885
  59.4150012 112.3574997 131.8159988  59.3970012 111.9324997 132.6729988
  60.2200012 112.0394997 131.4069988  59.5213529 112.2563013 131.8780946
  61.5570012 111.0674997 130.4709988  61.3380012 110.1514997 130.6409988
  62.3810012 111.2074997 130.9369988  61.6384420 110.9610520 130.5572774
  64.0940012 111.5374997 131.3199988  64.3070012 110.6494997 131.0329988
  64.1580012 111.5034997 132.2739988  64.1318231 111.4113102 131.4097397
  67.6020012  97.2014997 130.4639988  66.9280012  96.5724997 130.7199988
  68.1660012  96.7174997 129.8609988  67.5859230  97.0498744 130.4175340
  72.7450012  95.3094997 130.5769988  73.3490012  95.8564997 130.0749988
  71.8750012  95.6284997 130.3359988  72.7101208  95.4275137 130.4756886
  74.4720012  96.4474997 128.9099988  75.0840012  95.9334997 128.3829988
  74.8540012  97.3254997 128.9329988  74.6073371  96.4957866 128.8410041
  59.9290012  95.8354997 128.2859988  59.1520012  95.6014997 127.7789988
  60.4590012  95.0384997 128.2949988  59.8942330  95.6956988 128.2177742
  58.7650012  95.6334997 124.0899988  59.2040012  96.2444997 123.4979988
  58.1320012  96.1714997 124.5639988  58.7394514  95.7899257 124.0730930
  64.5080012  95.7624997 128.0999988  65.3830012  96.1504997 128.0699988
  64.3720012  95.5474997 129.0219988  64.6093695  95.7865184 128.2206440
  70.0650012  95.7924997 129.7489988  70.1410012  95.8874997 128.7989988
  69.7900012  94.8844997 129.8779988  70.0382321  95.6827867 129.6365079
  71.4180012  95.8184997 125.4409988  70.7160012  96.4334997 125.2309988
  70.9740012  94.9804997 125.5719988  71.2616450  95.7895639 125.4299000
  58.6660012 111.5814997 124.9869988  57.9810012 111.5434997 124.3199988
  58.6700012 112.4944997 125.2759988  58.5726998 111.6996733 124.9346771
  60.6260012  97.5494997 122.5319988  61.1180012  96.9194997 122.0049988
  61.2500012  97.8454997 123.1949988  60.7775688  97.5033804 122.5495482
  65.6520012  97.8424997 124.9889988  65.8300012  97.1964997 125.6719988
  65.5990012  98.6764997 125.4559988  65.6691999  97.8668009 125.1455917
  67.5310012 112.7914997 123.3849988  68.3970012 113.1574997 123.2069988
  67.2840012 112.3514997 122.5709988  67.6162392 112.7821756 123.2506289
  74.2400012 112.3544997 126.0639988  74.0450012 111.6064997 125.4989988
  74.2010012 113.1124997 125.4809988  74.2080380 112.3546099 125.9078384
  59.8870012  96.3494997 137.8039988  59.5210012  95.5844997 138.2459988
  60.8000012  96.3784997 138.0899988  59.9602736  96.2485640 137.9032502
  61.8600012  95.7004997 139.3399988  62.7580012  95.4264997 139.1549988
  61.4730012  94.9574997 139.8039988  61.9306612  95.5625914 139.3773643
  60.4840012 112.5014997 122.0129988  60.2170012 112.7884997 122.8859988
  61.2560012 111.9554997 122.1649988  60.5517488 112.4670294 122.1531050
  70.2810012  95.0324997 139.5219988  70.3580012  94.6064997 140.3759988
  71.1750012  95.0464997 139.1789988  70.4123428  94.9760879 139.5925310
  73.4570012 111.1054997 138.2139988  72.6750012 110.9194997 137.6939988
  73.3850012 112.0344997 138.4319988  73.3402274 111.2056643 138.1723018
  87.8630012 104.9914997 128.2449988  87.9520012 105.9354997 128.1129988
  87.2250012 104.7164997 127.5869988  87.7889081 105.0834830 128.1379614
  86.7960012 104.2464997 131.6639988  86.7580012 103.6004997 132.3689988
  86.4740012 103.7804997 130.8929988  86.7472333 104.0949408 131.6562978
  79.1650012 103.8614997 133.2569988  79.2060012 103.2354997 133.9799988
  79.8680012 104.4854997 133.4389988  79.2656363 103.8601196 133.3806044
  90.5020012 107.1854997 129.9649988  90.0620012 106.4654997 130.4159988
  90.4890012 107.9064997 130.5949988  90.4400226 107.1843731 130.1118494
  80.0880012 108.3114997 131.7919988  79.7190012 107.5094997 131.4219988
  81.0290012 108.1424997 131.8379988  80.1647289 108.1790153 131.7476316
  76.6980012 101.9714997 127.1849988  76.2510012 102.8174997 127.1659988
  76.1370012 101.3914997 126.6689988  76.5609900 102.0089916 127.1126801
  77.4090012 104.1334997 129.3099988  77.6220012 103.3634997 129.8379988
  78.1470012 104.2224997 128.7069988  77.5379044 104.0401968 129.3007123
  87.6140012 112.2904997 130.1769988  88.2340012 111.6134997 129.9039988
  87.4060012 112.0724997 131.0859988  87.6706726 112.1684800 130.2624812
  85.1860012 106.6794997 132.0699988  85.4900012 105.9934997 131.4749988
  85.9070012 106.7974997 132.6879988  85.3250671 106.6016305 132.0721816
  93.8490012  98.2804997 132.9309988  93.8980012  98.8904997 133.6659988
  94.2740012  98.7414997 132.2079988  93.9131746  98.4263796 132.9339175
  88.3270012 101.0734997 132.3969988  88.4690012 100.1274997 132.4179988
  88.2200012 101.2804997 131.4689988  88.3319919 100.9718246 132.2743408
  81.4810012  99.1744997 129.6699988  81.5250012 100.0344997 129.2509988
  81.0240012  98.6224997 129.0359988  81.4252240  99.2174422 129.5269864
  89.2040012  99.3054997 128.0709988  89.8500012  98.9764997 128.6949988
  89.7140012  99.8234997 127.4479988  89.3614299  99.3304450 128.0722731
  78.1020012 101.5714997 130.4319988  78.7550012 101.0214997 130.8639988
  78.1260012 101.2974997 129.5149988  78.1946683 101.4591466 130.3672123
  83.2580012 103.1214997 129.6469988  83.8740012 102.5954997 130.1569988
  82.6720012 102.4814997 129.2439988  83.2630810 102.9629208 129.6623173
  94.2400012  99.7584997 135.1659988  93.5520012 100.4164997 135.0709988
  94.2560012  99.5614997 136.1029988  94.1479540  99.8219819 135.2795990
  80.2920012  98.0924997 133.7439988  80.0730012  98.6224997 132.9779988
  79.6240012  98.3194997 134.3909988  80.1717600  98.1956906 133.7266379
  87.6610012 107.5924997 127.2879988  87.3650012 107.2704997 126.4369988
  87.3360012 108.4924997 127.3289988  87.5766371 107.6700215 127.1771801
  82.8610012 105.7684997 134.0309988  82.1210012 106.3664997 134.1349988
  83.5750012 106.3224997 133.7159988  82.8562237 105.9252831 134.0026465
  90.9680012  98.5964997 130.0509988  90.7520012  97.8304997 130.5839988
  91.6230012  99.0684997 130.5639988  91.0270632  98.5555889 130.1932861
  79.8850012  99.9844997 131.6959988  80.4990012 100.6174997 132.0689988
  80.3970012  99.5124997 131.0399988  80.0381981 100.0072267 131.6582908
  81.2680012 107.7324997 134.8179988  81.2630012 108.6124997 134.4399988
  80.4150012 107.6494997 135.2429988  81.1519464 107.8416117 134.8237907
  77.3890012 107.4034997 125.5999988  77.1170012 107.6324997 124.7119988
  77.4350012 108.2414997 126.0609988  77.3579482 107.5481318 125.5406273
  91.0140012 109.0254997 132.3129988  90.0730012 109.0834997 132.4749988
  91.2910012 109.9314997 132.1759988  90.9224679 109.1559443 132.3166815
  91.3150012  97.3114997 133.7309988  90.5790012  97.9224997 133.6929988
  91.9980012  97.7264997 133.2039988  91.3066541  97.4511374 133.6545832
  84.3180012  95.3984997 131.1959988  84.2010012  94.4494997 131.1419988
  83.4630012  95.7304997 131.4699988  84.1864212  95.3135571 131.2256497
  89.2660012 110.8064997 128.9379988  89.6920012 110.0994997 128.4529988
  89.5830012 111.6074997 128.5219988  89.3671683 110.8181017 128.8153680
  90.4260012 108.7074997 127.4469988  90.1680012 108.0174997 126.8359988
  90.4970012 108.2644997 128.2929988  90.4002856 108.5532124 127.4776885
  92.1120012 107.2734997 135.9239988  92.2520012 106.6824997 135.1849988
  92.2790012 108.1464997 135.5679988  92.1537411 107.3105428 135.7746894
  86.5850012 104.2354997 125.6969988  85.8730012 104.7704997 125.3449988
  87.2760012 104.2914997 125.0369988  86.5810132 104.3162543 125.5596289
  86.6380012 102.6934997 122.7359988  87.3390012 102.7154997 123.3869988
  86.9410012 102.0654997 122.0789988  86.7748133 102.6117070 122.7363369
  93.9540012 103.6134997 133.9899988  93.3010012 104.3084997 134.0799988
  94.4190012 103.8234997 133.1809988  93.9275274 103.7370643 133.8928462
  89.9900012 104.4454997 126.6489988  89.2580012 104.6734997 127.2219988
  90.4380012 103.7314997 127.1029988  89.9502725 104.3802145 126.7888816
  89.8880012 102.6194997 135.7159988  89.9680012 103.3824997 136.2879988
  89.2860012 102.8984997 135.0259988  89.8175756 102.7617134 135.7010589
  81.6360012 105.0754997 128.5309988  81.3050012 104.7054997 127.7129988
  82.2240012 104.4054997 128.8779988  81.6701873 104.9341156 128.4658102
  83.0020012 108.5034997 131.2119988  82.9080012 107.9254997 130.4559988
  83.7320012 108.1324997 131.7089988  83.0877387 108.3741663 131.1755342
  82.0020012 103.8444997 132.1649988  82.5680012 103.9654997 131.4019988
  82.3210012 104.4814997 132.8029988  82.1225474 103.9472219 132.1469862
  88.3110012 109.3474997 132.8989988  88.0710012 110.0094997 133.5469988
  88.1130012 108.5134997 133.3239988  88.2513808 109.3253134 133.0451524
  82.8820012 108.2434997 136.8819988  82.5710012 109.0254997 137.3369988
  82.2320012 108.0904997 136.1959988  82.7515558 108.3299105 136.8515871
  88.8610012 103.6074997 124.3339988  89.4410012 103.7574997 125.0809988
  89.2750012 104.0784997 123.6099988  88.9962997 103.6916578 124.3384058
  79.8020012 104.4414997 136.1099988  79.8730012 105.0924997 136.8089988
  78.9120012 104.5444997 135.7749988  79.6913005 104.5445427 136.1603495
  86.5880012 110.3444997 127.7689988  87.0620012 110.6394997 128.5459988
  86.0250012 111.0824997 127.5359988  86.5768184 110.4847247 127.8439628
  81.1220012 110.3154997 137.6449988  81.1290012 110.1794997 136.6979988
  80.2060012 110.1974997 137.8969988  80.9991714 110.2809430 137.5494666
  92.5600012  95.3574997 124.1469988  91.6600012  95.4964997 124.4419988
  92.8120012  96.1884997 123.7449988  92.4708702  95.4889074 124.1330205
  80.6260012 104.1454997 126.1199988  80.3340012 104.9134997 125.6299988
  79.9520012 103.4854997 125.9579988  80.4948111 104.1615587 126.0308978
  93.7490012 109.7234997 122.5229988  93.8230012 110.6624997 122.6939988
  94.6550012 109.4184997 122.4669988  93.8815100 109.8106722 122.5388119
  76.7190012 106.5084997 134.9349988  76.2180012 106.4804997 134.1199988
  76.7240012 105.6024997 135.2449988  76.6510944 106.3822396 134.8653226
  76.4690012 109.2884997 131.8189988  77.4150012 109.1444997 131.7999988
  76.3570012 110.0724997 132.3559988  76.5832727 109.3748046 131.8890072
  94.6670012 109.9544997 137.5019988  94.6180012 108.9994997 137.4649988
  93.8400012 110.2224997 137.9029988  94.5484940 109.8598998 137.5511375
  85.6460012 109.5284997 136.3779988  85.7330012 110.3544997 136.8529988
  84.7820012 109.1984997 136.6269988  85.5411964 109.5969878 136.4766549
  86.0600012 113.3004997 126.1839988  85.9850012 113.1794997 125.2369988
  86.0930012 114.2504997 126.3019988  86.0542068 113.4122646 126.0704967
  79.7130012 112.0894997 127.9649988  79.8660012 111.7414997 128.8429988
  78.8630012 111.7334997 127.7099988  79.6189166 111.9936216 128.0508079
  89.1620012 112.4544997 123.1859988  89.5370012 111.7104997 122.7149988
  89.1660012 112.1844997 124.1049988  89.2139125 112.3160986 123.2456483
  88.8310012 112.3804997 125.9349988  87.8950012 112.4804997 126.1139988
  89.1110012 111.6714997 126.5139988  88.7409553 112.2983406 126.0377087
  91.8190012 101.4474997 137.9819988  91.4120012 101.9284997 137.2609988
  91.8600012 100.5424997 137.6739988  91.7688437 101.3909374 137.8416683
  78.9680012 107.8314997 135.9789988  79.1840012 107.4704997 136.8379988
  78.1130012 107.4574997 135.7689988  78.8819292 107.7314111 136.0683386
  81.5870012  96.3014997 131.9739988  80.7250012  96.2144997 131.5659988
  81.5640012  97.1574997 132.4019988  81.4660409  96.4052883 131.9760589
  86.2500012  96.0234997 135.3489988  86.6700012  95.6084997 136.1019988
  85.3170012  95.8454997 135.4659988  86.1813644  95.9425900 135.4679539
  89.5760012  99.7794997 136.2019988  89.0620012  99.6534997 136.9999988
  89.4210012 100.6914997 135.9579988  89.4846852  99.8856132 136.2782158
  90.3390012 104.6404997 121.9639988  90.3810012 104.4174997 121.0339988
  91.1880012 105.0394997 122.1529988  90.4595280 104.6639438 121.8623554
  85.9110012  98.5164997 122.6339988  85.6580012  98.5354997 123.5569988
  85.6550012  97.6444997 122.3319988  85.8417481  98.4012558 122.7196175
  81.6780012 101.2674997 133.0689988  81.0360012 101.2264997 133.7779988
  81.7150012 102.1934997 132.8309988  81.5950664 101.3871430 133.1339219
  81.6750012 101.4884997 127.9809988  80.7820012 101.1474997 127.9219988
  82.1250012 101.1114997 127.2249988  81.6138130 101.3909631 127.8707702
  87.2100012 101.9044997 126.7979988  86.8010012 102.7194997 126.5069988
  87.9310012 101.7644997 126.1839988  87.2514537 101.9972018 126.6751342
  86.3120012 102.0794997 138.2859988  85.7500012 101.3754997 138.6069988
  87.1390012 101.9594997 138.7539988  86.3467095 101.9667883 138.3932330
  88.2150012 101.3504997 129.6119988  88.0200012 101.9554997 128.8969988
  88.3960012 100.5164997 129.1779988  88.2127614 101.3206300 129.4554405
  79.4280012 101.5874997 134.9359988  79.3900012 101.9874997 135.8049988
  78.9370012 100.7704997 135.0269988  79.3564684 101.5318069 135.0671059
  82.7940012  98.9614997 121.7349988  82.3630012  98.5164997 122.4649988
  82.0760012  99.3334997 121.2229988  82.6379438  98.9508940 121.7656799
  76.0360012  98.7034997 128.7869988  76.6670012  98.6744997 129.5059988
  76.4850012  98.2784997 128.0559988  76.1830918  98.6420836 128.7866441
  77.3100012  99.4494997 124.2109988  77.7840012 100.0404997 123.6259988
  76.5930012  99.9804997 124.5579988  77.2779341  99.6020867 124.1778836
  87.4790012 102.9884997 134.2829988  87.8020012 102.3574997 133.6399988
  87.0390012 102.4534997 134.9439988  87.4637484 102.8298387 134.2843198
  84.2560012  98.9154997 129.0669988  83.3450012  98.9724997 129.3559988
  84.7620012  98.8554997 129.8779988  84.1996899  98.9151941 129.2161184
  79.0850012 100.5444997 127.8939988  78.1950012 100.6444997 127.5539988
  79.3810012  99.7024997 127.5479988  79.0032823 100.4443545 127.8007213
  82.7380012 100.5444997 125.5509988  83.6690012 100.6734997 125.7289988
  82.5230012 101.2144997 124.9009988  82.8364247 100.6526565 125.4875747
  88.6610012  98.1504997 132.3319988  87.9850012  98.2814997 132.9959988
  88.1760012  97.9954997 131.5209988  88.5027146  98.1475157 132.3134469
  81.4120012 101.7394997 123.1169988  80.8690012 101.3594997 122.4259988
  82.2450012 101.9334997 122.6889988  81.4503631 101.7137125 122.9644501
  91.9490012 113.8224997 138.6079988  92.1490012 114.2464997 137.7739988
  92.6040012 114.1654997 139.2149988  92.0650072 113.9269857 138.5758592
  79.5470012 106.2964997 138.2159988  80.2790012 106.5504997 138.7779988
  78.7670012 106.5004997 138.7319988  79.5417073 106.3588160 138.3626151
  85.5760012 101.7034997 130.9539988  86.1410012 101.1564997 130.4069988
  85.4290012 101.1814997 131.7429988  85.6333380 101.5582259 130.9858695
  80.5780012  97.8394997 127.3729988  80.2610012  96.9374997 127.3369988
  81.3600012  97.8414997 126.8199988  80.6402408  97.7162474 127.2933569
  84.2030012 100.0914997 133.3679988  83.3670012 100.5454997 133.4789988
  84.7270012 100.3674997 134.1199988  84.1595416 100.1908660 133.4848119
  84.7470012 106.3044997 125.0529988  84.0020012 105.7974997 124.7309988
  84.6130012 106.3534997 125.9999988  84.6268776 106.2416940 125.1368647
  91.8970012 105.4374997 133.8399988  92.5390012 105.8944997 133.2959988
  91.0670012 105.5504997 133.3769988  91.8725963 105.5152704 133.7030177
  88.6450012  99.1184997 123.2519988  87.7060012  99.2304997 123.1009988
  88.9420012  99.9754997 123.5589988  88.5567583  99.2495981 123.2728337
  86.2660012 106.4884997 136.2899988  85.9210012 106.1074997 137.0969988
  86.0660012 107.4224997 136.3609988  86.1917527 106.5625135 136.4100689
  89.3630012 100.9854997 124.9129988  90.2550012 100.8484997 125.2319988
  89.4200012 101.7764997 124.3759988  89.4926504 101.0736052 124.8840818
  79.8720012 105.5994997 130.8229988  80.6170012 105.5974997 130.2219988
  79.9500012 104.7764997 131.3039988  79.9844995 105.4878887 130.8058282
  86.8730012 107.7634997 124.0789988  86.5770012 108.5894997 124.4599988
  86.1700012 107.1434997 124.2749988  86.7374914 107.7928199 124.1576443
  76.8800012 104.0604997 136.1379988  77.1030012 103.6424997 136.9699988
  76.2780012 103.4474997 135.7149988  76.8291759 103.9204668 136.1947022
  83.8960012 103.5774997 138.3509988  83.6000012 103.4114997 137.4559988
  84.8280012 103.3574997 138.3399988  83.9814166 103.5250640 138.2270536
  88.5170012 108.9504997 136.2409988  87.6160012 109.1334997 135.9729988
  88.5510012 109.2094997 137.1609988  88.3983139 109.0105849 136.3288099
  94.2480012 101.1954997 124.6079988  93.6940012 100.7994997 123.9359988
  94.3480012 102.1054997 124.3299988  94.1857059 101.2643586 124.4784401
  94.2110012 106.9954997 137.4449988  93.3600012 107.2334997 137.0779988
  94.8020012 106.9784997 136.6919988  94.1742487 107.0258258 137.2928893
  92.5430012 109.9814997 125.0729988  92.1700012 109.1554997 125.3819988
  92.8210012 109.7984997 124.1749988  92.5295222 109.8437430 124.9939473
  89.7040012 104.7894997 132.0939988  88.7750012 104.5574997 132.0669988
  90.1550012 104.0124997 131.7639988  89.6379216 104.6527238 132.0456917
  82.2470012 109.1174997 128.2269988  82.7740012 109.8904997 128.0269988
  81.3670012 109.3424997 127.9249988  82.2002031 109.2537545 128.1587912
  78.0020012 103.9794997 122.8139988  78.6180012 104.6064997 123.1939988
  77.1400012 104.2954997 123.0859988  77.9697698 104.1079430 122.9027183
  83.6740012 106.7804997 127.8029988  83.4330012 107.7054997 127.8449988
  82.9330012 106.3214997 128.1999988  83.5409225 106.8450933 127.8623742
  84.1890012 110.9294997 134.1189988  84.5510012 111.7844997 133.8849988
  84.7200012 110.6374997 134.8589988  84.3104473 111.0071060 134.1870855
  82.3570012 111.8024997 127.3489988  81.4070012 111.9074997 127.3999988
  82.7090012 112.6224997 127.6929988  82.2744195 111.9278800 127.4025502
  87.7330012 107.0284997 133.8189988  87.3070012 106.8014997 134.6459988
  88.3130012 106.2904997 133.6369988  87.7531868 106.8975299 133.9075830
  89.9360012 107.9574997 122.8929988  90.2890012 107.5774997 123.6969988
  88.9870012 107.8644997 122.9799988  89.8560918 107.8928956 123.0148532
  90.3910012 111.5804997 136.2889988  89.7900012 111.0254997 135.7929988
  90.6730012 112.2474997 135.6619988  90.3468804 111.5946625 136.1364849
  94.4390012 112.4374997 123.0939988  95.1830012 113.0234997 122.9539988
  93.7450012 113.0054997 123.4269988  94.4469899 112.5945798 123.1198778
  78.5140012  98.8134997 135.6959988  77.6210012  99.1524997 135.6279988
  78.4150012  97.9584997 136.1139988  78.3784164  98.7442588 135.7432235
  90.8020012 106.6304997 125.1199988  90.5240012 105.9024997 125.6759988
  91.7290012 106.7494997 125.3249988  90.8893124 106.5468802 125.2238845
  78.1650012 110.6184997 134.1309988  78.3820012 109.6864997 134.0999988
  78.4110012 110.8924997 135.0139988  78.2279549 110.5280636 134.2461763
  84.0270012 109.0694997 121.3399988  84.2660012 108.3214997 120.7929988
  83.7580012 108.6814997 122.1729988  84.0233675 108.9146638 121.3776865
  82.9640012 108.6394997 123.7959988  83.1100012 108.1194997 124.5859988
  82.9610012 109.5464997 124.1029988  82.9835792 108.6908842 123.9456117
  79.4170012 105.8924997 124.3069988  78.7310012 106.2444997 124.8739988
  79.9390012 106.6554997 124.0599988  79.3936852 106.0438578 124.3512118
  87.2480012  98.5544997 134.5859988  87.9470012  98.6284997 135.2359988
  86.8670012  97.6904997 134.7399988  87.2921767  98.4477624 134.6958322
  88.0330012  98.2064997 125.6829988  88.2530012  98.6784997 124.8799988
  88.5910012  98.6014997 126.3529988  88.1384968  98.3244285 125.6637331
  85.7010012 110.3374997 124.5459988  84.8850012 110.8344997 124.5979988
  86.2310012 110.8124997 123.9059988  85.6609161 110.4697722 124.4665956
  85.2330012  99.9344997 126.5179988  86.0450012 100.4394997 126.5639988
  84.9880012  99.7894997 127.4319988  85.3110520  99.9840375 126.6478517
  85.7680012 100.9204997 135.7019988  85.8870012 101.4944997 136.4599988
  86.4240012 100.2324997 135.8169988  85.8729025 100.9059858 135.8211321
  86.1160012  97.0154997 127.4559988  85.7700012  97.6334997 128.0999988
  86.7750012  97.5164997 126.9739988  86.1576968  97.1676278 127.4789383
  83.0400012 111.3814997 124.5269988  83.2000012 112.1804997 124.0269988
  82.8420012 111.6874997 125.4119988  83.0351637 111.5324020 124.5781144
  81.7740012  98.0784997 124.1429988  81.6910012  98.9674997 124.4899988
  82.6640012  97.8134997 124.3749988  81.8829469  98.1641430 124.2217626
  91.9730012  98.8274997 136.5369988  91.0560012  99.0904997 136.4499988
  92.3080012  98.8244997 135.6409988  91.8928613  98.8630761 136.4038837
  90.5750012 102.5784997 130.6329988  89.7770012 102.1634997 130.3049988
  91.0200012 101.8874997 131.1239988  90.5259885 102.4283543 130.6544889
  80.0330012 108.5064997 123.2039988  80.6250012 109.2054997 123.4799988
  80.4920012 108.0734997 122.4839988  80.1761142 108.5437049 123.1444830
  78.3490012 101.1704997 122.3199988  78.3040012 102.1094997 122.4979988
  77.4610012 100.9344997 122.0499988  78.2228574 101.2671892 122.3078912
  91.6610012 111.8344997 132.2559988  91.5060012 112.5124997 131.5979988
  92.5940012 111.9064997 132.4589988  91.7658657 111.9369546 132.1934360
  79.1570012  95.9524997 130.9929988  78.9280012  96.0114997 130.0649988
  78.7140012  95.1604997 131.2989988  79.0658530  95.8535753 130.9074786
  78.0870012 109.8924997 127.1529988  77.2550012 110.3654997 127.1799988
  78.6330012 110.4024997 126.5549988  78.0470352 110.0261332 127.0758463
  77.3750012 112.5054997 138.4829988  77.9160012 112.2884997 139.2429988
  76.8940012 111.6994997 138.2929988  77.3839951 112.3669270 138.5612576
  81.9730012 111.4244997 140.1029988  82.7400012 110.9654997 140.4439988
  81.9510012 111.1984997 139.1739988  82.0751275 111.3310186 140.0240101
  86.0650012 110.9324997 121.4789988  85.4210012 110.3014997 121.7999988
  86.8270012 110.4014997 121.2469988  86.0798077 110.7742920 121.4916011
  88.5500012 109.8044997 138.8329988  88.1990012 108.9484997 139.0759988
  89.2760012 109.9474997 139.4399988  88.6000769 109.7065636 138.9483619
  90.6690012 110.7494997 121.7119988  90.9520012 109.9554997 122.1649988
  91.4090012 110.9824997 121.1519988  90.8078006 110.6723376 121.6982715
  77.2820012 106.3154997 139.4369988  77.4260012 105.4134997 139.1509988
  76.5100012 106.6014997 138.9499988  77.1972753 106.2306816 139.3319505
  81.6240012 106.6594997 121.5699988  81.6880012 105.8654997 122.1009988
  82.2770012 106.5404997 120.8799988  81.7210241 106.5347148 121.5494317
  83.9380012 106.2854997 138.8699988  83.6090012 106.5564997 138.0129988
  84.0900012 105.3444997 138.7829988  83.9134809 106.1953862 138.7408244
  86.9760012 107.7064997 121.3059988  86.7070012 107.8864997 122.2069988
  86.7700012 106.7804997 121.1739988  86.9113427 107.6060261 121.4115073
  89.6720012 106.2014997 136.2529988  90.4180012 106.7894997 136.1339988
  88.9150012 106.7834997 136.3169988  89.6717820 106.3607143 136.2453590
  78.1150012 103.5154997 138.8569988  78.5230012 102.6584997 138.7359988
  77.8550012 103.5304997 139.7779988  78.1357568 103.4000807 138.9649588
  82.7730012 104.6314997 123.8759988  82.3130012 104.1474997 124.5619988
  83.0280012 103.9634997 123.2399988  82.7444902 104.4748731 123.8839334
  82.0620012 102.5244997 136.2319988  81.4440012 103.1994997 136.5119988
  82.4060012 102.8454997 135.3979988  82.0239132 102.6602411 136.1576262
  83.8440012 102.8744997 122.1379988  83.6640012 102.7204997 121.2109988
  84.7940012 102.9824997 122.1829988  83.9477776 102.8680175 122.0171843
  87.0820012 104.9964997 139.5089988  88.0350012 105.0794997 139.4819988
  86.9210012 104.2844997 140.1289988  87.1906426 104.9116746 139.5890579
  93.2340012 105.2294997 121.5839988  92.9600012 104.8044997 120.7709988
  93.2730012 106.1604997 121.3669988  93.2017699 105.2972484 121.4433610
  82.4010012  99.8794997 137.3139988  82.5510012  99.1504997 136.7119988
  82.4040012 100.6564997 136.7549988  82.4219302  99.8847851 137.1560692
  82.8140012  98.2494997 134.8069988  83.3500012  98.7004997 134.1549988
  81.9620012  98.1414997 134.3839988  82.7722178  98.2966390 134.6605756
  84.3960012 103.6884997 135.0459988  85.1460012 103.5324997 134.4729988
  84.0570012 104.5404997 134.7709988  84.4528921 103.7822968 134.9303561
  88.8110012 101.5034997 140.0749988  89.0040012 100.5724997 139.9629988
  89.6690012 101.9284997 140.0639988  88.9532934 101.4336531 140.0582031
  90.1280012 104.2924997 138.1519988  89.8470012 105.0014997 137.5739988
  91.0710012 104.2194997 138.0009988  90.2169291 104.3796711 138.0524967
  80.8800012 101.0774997 139.2259988  80.1130012 100.5454997 139.0149988
  81.5590012 100.7674997 138.6259988  80.8667877 100.9628300 139.1160716
  83.6200012  95.7054997 135.2379988  83.5210012  96.6524997 135.1329988
  82.8770012  95.3334997 134.7619988  83.5061184  95.7845863 135.1593621
  84.8840012 100.0274997 138.8019988  84.6480012  99.8074997 139.7029988
  84.1000012  99.8204997 138.2919988  84.7458504  99.9694586 138.8563431
  87.5990012  99.1544997 137.8769988  86.6520012  99.1864997 138.0099988
  87.9120012  98.5294997 138.5309988  87.5116707  99.0743998 137.9836060
  89.2330012  97.7884997 139.8829988  89.1370012  96.8364997 139.8769988
  88.9120012  98.0574997 140.7429988  89.1764070  97.6944035 139.9985441
  79.0600012  98.9984997 138.9299988  79.2720012  98.2914997 138.3199988
  78.9490012  98.5604997 139.7739988  79.0739721  98.8427084 138.9606843
  83.8410012  94.9994997 137.9089988  84.5530012  94.3594997 137.8949988
  83.7400012  95.2664997 136.9959988  83.9248066  94.9480079 137.7835677
  84.1950012  96.6824997 139.9629988  84.0630012  96.2064997 139.1429988
  83.5960012  97.4264997 139.9079988  84.0959071  96.7179618 139.8432886
  83.7410012 113.5654997 123.1389988  84.6740012 113.7234997 123.2829988
  83.4770012 114.2404997 122.5149988  83.8329888 113.6784510 123.0742842
  77.3100012 108.2014997 122.6219988  78.2240012 108.2804997 122.8959988
  77.3170012 107.5144997 121.9559988  77.4361131 108.1193961 122.5694393
  75.9590012 113.5944997 127.6999988  75.3120012 113.1324997 127.1669988
  76.3130012 112.9224997 128.2819988  75.9183849 113.4404723 127.7057959
  76.8290012 111.6754997 129.5039988  76.4940012 110.7954997 129.6759988
  77.0510012 112.0204997 130.3689988  76.8131783 111.6017500 129.6444208
  94.3770012 112.4844997 132.4849988  94.3560012 112.6694997 133.4239988
  95.0680012 113.0534997 132.1439988  94.4674618 112.5866606 132.5673864
  93.9410012 112.0524997 135.4069988  93.4530012 111.3164997 135.0349988
  94.4900012 111.6584997 136.0849988  93.9484820 111.8985889 135.4477813
  92.3910012 107.8414997 140.0449988  91.5250012 107.7364997 140.4389988
  92.7680012 108.6004997 140.4909988  92.3233308 107.9296900 140.1592393
  93.6920012 106.0984997 125.5589988  94.5420012 106.5194997 125.6859988
  93.6980012 105.3584997 126.1659988  93.8091372 106.0560803 125.6584344
  94.0870012 104.1514997 127.3819988  93.3600012 103.6724997 127.7799988
  94.6680012 104.3574997 128.1149988  94.0660473 104.1138103 127.5354528
  93.8460012 106.9364997 132.3299988  94.6790012 106.5584997 132.0499988
  93.9580012 107.8794997 132.2109988  93.9752647 107.0122218 132.2755487
  92.3320012 109.8144997 134.6369988  91.6850012 110.1394997 135.2629988
  91.8150012 109.3744997 133.9629988  92.1734029 109.7995004 134.6315827
  94.3550012 104.0524997 123.7739988  93.8330012 104.4094997 123.0549988
  94.3220012 104.7274997 124.4519988  94.2791634 104.1925413 123.7673145
  92.7040012 101.2924997 122.3239988  92.8000012 101.9594997 121.6439988
  92.5640012 100.4764997 121.8429988  92.6982272 101.2735655 122.1658347
  91.8730012 102.6724997 127.9449988  91.7230012 101.7274997 127.9249988
  91.5200012 102.9534997 128.7889988  91.8047448 102.5811481 128.0563705
  76.9090012 104.7504997 131.9559988  77.0930012 104.6684997 131.0199988
  77.7580012 104.6264997 132.3789988  77.0490151 104.7225073 131.8851451
  92.7300012 104.6424997 137.5839988  93.3130012 103.9084997 137.7759988
  93.2940012 105.4144997 137.6309988  92.8859769 104.6464227 137.6166159
  94.2260012 102.5454997 138.2689988  93.3630012 102.1664997 138.1029988
  94.8310012 101.8064997 138.1939988  94.1896119 102.3938268 138.2361528
  91.9510012  98.7004997 121.4419988  92.5620012  98.3294997 122.0789988
  91.1150012  98.2794997 121.6379988  91.9215032  98.5927554 121.5557035
  91.5840012 100.2554997 126.4079988  91.8640012  99.3484997 126.5319988
  92.3430012 100.6894997 126.0189988  91.7249277 100.1900942 126.3723682
  92.1960012 100.8364997 131.8439988  93.1290012 101.0484997 131.8089988
  91.9610012 100.9384997 132.7659988  92.2919244 100.8793100 131.9638892
  92.2250012 101.5734997 134.6199988  91.3820012 101.8414997 134.9859988
  92.6670012 102.3954997 134.4089988  92.1694158 101.7213291 134.6415491
  76.5060012 100.0214997 138.0969988  77.4260012  99.8994997 138.3329988
  76.0570012  99.2714997 138.4859988  76.5711580  99.9033727 138.1819006
  94.5080012  95.5534997 139.9729988  94.8580012  94.8994997 139.3679988
  94.6550012  96.3904997 139.5329988  94.5757887  95.5771548 139.8306858
  92.1970012  97.5184997 126.4559988  92.3800012  97.0694997 127.2819988
  91.5980012  96.9334997 125.9929988  92.1410202  97.3779975 126.5063275
  77.7270012  98.3334997 130.9879988  78.1730012  97.5414997 131.2899988
  78.1940012  99.0494997 131.4179988  77.8510831  98.3220685 131.0874006
  76.0310012 101.3324997 132.0569988  76.5230012 101.1114997 131.2659988
  76.3940012 102.1734997 132.3379988  76.1473126 101.4158357 131.9867531
  94.0280012  97.6624997 138.3219988  93.1100012  97.9334997 138.2869988
  94.1510012  97.1274997 137.5379988  93.9189729  97.6272508 138.2111923
  94.0640012  97.5854997 122.9839988  94.4760012  96.8644997 122.5089988
  94.7460012  98.2554997 123.0429988  94.2125885  97.5772368 122.9268915
  76.3450012  97.5904997 126.1109988  75.4200012  97.7994997 125.9819988
  76.7990012  98.0744997 125.4209988  76.2797292  97.6845343 126.0000720
  91.1160012 112.5744997 128.0569988  91.7680012 112.2274997 127.4489988
  91.6260012 113.0634997 128.7029988  91.2742637 112.5930597 128.0610236
  76.3090012  96.3284997 134.4549988  75.6440012  96.0824997 135.0989988
  75.8660012  96.9504997 133.8779988  76.1581318  96.3789410 134.4650898
  78.5010012 109.5034997 138.5999988  77.6800012 109.6784997 138.1389988
  78.2480012 109.4304997 139.5199988  78.3545585 109.5175544 138.6613561
  81.4550012 110.4784997 134.8579988  81.0300012 111.2874997 134.5759988
  82.3590012 110.5634997 134.5559988  81.5189975 110.6009300 134.7784816
  85.7660012 111.8774997 137.8179988  85.9510012 111.5434997 138.6959988
  86.6120012 112.1864997 137.4959988  85.9057539 111.8736047 137.8945605
  88.1110012 113.1634997 137.0619988  88.7880012 112.5304997 136.8219988
  88.4330012 113.5644997 137.8689988  88.2471637 113.1311154 137.1382793
  93.0280012  95.7524997 136.1409988  92.2160012  96.0774997 135.7539988
  93.2610012  94.9924997 135.6079988  92.9482203  95.6942758 136.0158880
  78.8570012 113.7344997 134.9059988  78.1360012 114.1744997 134.4549988
  78.4910012 113.4834997 135.7539988  78.7089651 113.7607242 134.9589640
  81.3240012 113.3344997 133.9359988  80.4590012 113.4064997 134.3399988
  81.2690012 113.8814997 133.1519988  81.1982085 113.4182685 133.8853362
  86.0340012 113.2224997 133.1109988  85.5780012 113.7514997 132.4569988
  86.1970012 113.8254997 133.8359988  85.9936068 113.3764607 133.1194838
  88.3620012 112.1004997 134.0559988  87.4570012 112.2654997 133.7899988
  88.7910012 112.9534997 133.9909988  88.2961324 112.2384339 134.0107976
  90.9660012 113.6704997 134.3509988  90.7840012 114.5864997 134.1409988
  91.1430012 113.2604997 133.5049988  90.9650210 113.7404822 134.2077885
  78.2710012 112.3574997 131.8159988  78.2530012 111.9324997 132.6729988
  79.0760012 112.0394997 131.4069988  78.3773529 112.2563013 131.8780946
  80.4130012 111.0674997 130.4709988  80.1940012 110.1514997 130.6409988
  81.2370012 111.2074997 130.9369988  80.4944420 110.9610520 130.5572774
  82.9500012 111.5374997 131.3199988  83.1630012 110.6494997 131.0329988
  83.0140012 111.5034997 132.2739988  82.9878231 111.4113102 131.4097397
  86.4580012  97.2014997 130.4639988  85.7840012  96.5724997 130.7199988
  87.0220012  96.7174997 129.8609988  86.4419230  97.0498744 130.4175340
  91.6010012  95.3094997 130.5769988  92.2050012  95.8564997 130.0749988
  90.7310012  95.6284997 130.3359988  91.5661208  95.4275137 130.4756886
  93.3280012  96.4474997 128.9099988  93.9400012  95.9334997 128.3829988
  93.7100012  97.3254997 128.9329988  93.4633371  96.4957866 128.8410041
  78.7850012  95.8354997 128.2859988  78.0080012  95.6014997 127.7789988
  79.3150012  95.0384997 128.2949988  78.7502330  95.6956988 128.2177742
  77.6210012  95.6334997 124.0899988  78.0600012  96.2444997 123.4979988
  76.9880012  96.1714997 124.5639988  77.5954514  95.7899257 124.0730930
  83.3640012  95.7624997 128.0999988  84.2390012  96.1504997 128.0699988
  83.2280012  95.5474997 129.0219988  83.4653695  95.7865184 128.2206440
  88.9210012  95.7924997 129.7489988  88.9970012  95.8874997 128.7989988
  88.6460012  94.8844997 129.8779988  88.8942321  95.6827867 129.6365079
  90.2740012  95.8184997 125.4409988  89.5720012  96.4334997 125.2309988
  89.8300012  94.9804997 125.5719988  90.1176450  95.7895639 125.4299000
  77.5220012 111.5814997 124.9869988  76.8370012 111.5434997 124.3199988
  77.5260012 112.4944997 125.2759988  77.4286998 111.6996733 124.9346771
  79.4820012  97.5494997 122.5319988  79.9740012  96.9194997 122.0049988
  80.1060012  97.8454997 123.1949988  79.6335688  97.5033804 122.5495482
  84.5080012  97.8424997 124.9889988  84.6860012  97.1964997 125.6719988
  84.4550012  98.6764997 125.4559988  84.5251999  97.8668009 125.1455917
  86.3870012 112.7914997 123.3849988  87.2530012 113.1574997 123.2069988
  86.1400012 112.3514997 122.5709988  86.4722392 112.7821756 123.2506289
  93.0960012 112.3544997 126.0639988  92.9010012 111.6064997 125.4989988
  93.0570012 113.1124997 125.4809988  93.0640380 112.3546099 125.9078384
  78.7430012  96.3494997 137.8039988  78.3770012  95.5844997 138.2459988
  79.6560012  96.3784997 138.0899988  78.8162736  96.2485640 137.9032502
  80.7160012  95.7004997 139.3399988  81.6140012  95.4264997 139.1549988
  80.3290012  94.9574997 139.8039988  80.7866612  95.5625914 139.3773643
  79.3400012 112.5014997 122.0129988  79.0730012 112.7884997 122.8859988
  80.1120012 111.9554997 122.1649988  79.4077488 112.4670294 122.1531050
  89.1370012  95.0324997 139.5219988  89.2140012  94.6064997 140.3759988
  90.0310012  95.0464997 139.1789988  89.2683428  94.9760879 139.5925310
  92.3130012 111.1054997 138.2139988  91.5310012 110.9194997 137.6939988
  92.2410012 112.0344997 138.4319988  92.1962274 111.2056643 138.1723018
 106.7190012 104.9914997 128.2449988 106.8080012 105.9354997 128.1129988
 106.0810012 104.7164997 127.5869988 106.6449081 105.0834830 128.1379614
 105.6520012 104.2464997 131.6639988 105.6140012 103.6004997 132.3689988
 105.3300012 103.7804997 130.8929988 105.6032333 104.0949408 131.6562978
  98.0210012 103.8614997 133.2569988  98.0620012 103.2354997 133.9799988
  98.7240012 104.4854997 133.4389988  98.1216363 103.8601196 133.3806044
 109.3580012 107.1854997 129.9649988 108.9180012 106.4654997 130.4159988
 109.3450012 107.9064997 130.5949988 109.2960226 107.1843731 130.1118494
  98.9440012 108.3114997 131.7919988  98.5750012 107.5094997 131.4219988
  99.8850012 108.1424997 131.8379988  99.0207289 108.1790153 131.7476316
  95.5540012 101.9714997 127.1849988  95.1070012 102.8174997 127.1659988
  94.9930012 101.3914997 126.6689988  95.4169900 102.0089916 127.1126801
  96.2650012 104.1334997 129.3099988  96.4780012 103.3634997 129.8379988
  97.0030012 104.2224997 128.7069988  96.3939044 104.0401968 129.3007123
 106.4700012 112.2904997 130.1769988 107.0900012 111.6134997 129.9039988
 106.2620012 112.0724997 131.0859988 106.5266726 112.1684800 130.2624812
 104.0420012 106.6794997 132.0699988 104.3460012 105.9934997 131.4749988
 104.7630012 106.7974997 132.6879988 104.1810671 106.6016305 132.0721816
 112.7050012  98.2804997 132.9309988 112.7540012  98.8904997 133.6659988
 113.1300012  98.7414997 132.2079988 112.7691746  98.4263796 132.9339175
 107.1830012 101.0734997 132.3969988 107.3250012 100.1274997 132.4179988
 107.0760012 101.2804997 131.4689988 107.1879919 100.9718246 132.2743408
 100.3370012  99.1744997 129.6699988 100.3810012 100.0344997 129.2509988
  99.8800012  98.6224997 129.0359988 100.2812240  99.2174422 129.5269864
 108.0600012  99.3054997 128.0709988 108.7060012  98.9764997 128.6949988
 108.5700012  99.8234997 127.4479988 108.2174299  99.3304450 128.0722731
  96.9580012 101.5714997 130.4319988  97.6110012 101.0214997 130.8639988
  96.9820012 101.2974997 129.5149988  97.0506683 101.4591466 130.3672123
 102.1140012 103.1214997 129.6469988 102.7300012 102.5954997 130.1569988
 101.5280012 102.4814997 129.2439988 102.1190810 102.9629208 129.6623173
 113.0960012  99.7584997 135.1659988 112.4080012 100.4164997 135.0709988
 113.1120012  99.5614997 136.1029988 113.0039540  99.8219819 135.2795990
  99.1480012  98.0924997 133.7439988  98.9290012  98.6224997 132.9779988
  98.4800012  98.3194997 134.3909988  99.0277600  98.1956906 133.7266379
 106.5170012 107.5924997 127.2879988 106.2210012 107.2704997 126.4369988
 106.1920012 108.4924997 127.3289988 106.4326371 107.6700215 127.1771801
 101.7170012 105.7684997 134.0309988 100.9770012 106.3664997 134.1349988
 102.4310012 106.3224997 133.7159988 101.7122237 105.9252831 134.0026465
 109.8240012  98.5964997 130.0509988 109.6080012  97.8304997 130.5839988
 110.4790012  99.0684997 130.5639988 109.8830632  98.5555889 130.1932861
  98.7410012  99.9844997 131.6959988  99.3550012 100.6174997 132.0689988
  99.2530012  99.5124997 131.0399988  98.8941981 100.0072267 131.6582908
 100.1240012 107.7324997 134.8179988 100.1190012 108.6124997 134.4399988
  99.2710012 107.6494997 135.2429988 100.0079464 107.8416117 134.8237907
  96.2450012 107.4034997 125.5999988  95.9730012 107.6324997 124.7119988
  96.2910012 108.2414997 126.0609988  96.2139482 107.5481318 125.5406273
 109.8700012 109.0254997 132.3129988 108.9290012 109.0834997 132.4749988
 110.1470012 109.9314997 132.1759988 109.7784679 109.1559443 132.3166815
 110.1710012  97.3114997 133.7309988 109.4350012  97.9224997 133.6929988
 110.8540012  97.7264997 133.2039988 110.1626541  97.4511374 133.6545832
 103.1740012  95.3984997 131.1959988 103.0570012  94.4494997 131.1419988
 102.3190012  95.7304997 131.4699988 103.0424212  95.3135571 131.2256497
 108.1220012 110.8064997 128.9379988 108.5480012 110.0994997 128.4529988
 108.4390012 111.6074997 128.5219988 108.2231683 110.8181017 128.8153680
 109.2820012 108.7074997 127.4469988 109.0240012 108.0174997 126.8359988
 109.3530012 108.2644997 128.2929988 109.2562856 108.5532124 127.4776885
 110.9680012 107.2734997 135.9239988 111.1080012 106.6824997 135.1849988
 111.1350012 108.1464997 135.5679988 111.0097411 107.3105428 135.7746894
 105.4410012 104.2354997 125.6969988 104.7290012 104.7704997 125.3449988
 106.1320012 104.2914997 125.0369988 105.4370132 104.3162543 125.5596289
 105.4940012 102.6934997 122.7359988 106.1950012 102.7154997 123.3869988
 105.7970012 102.0654997 122.0789988 105.6308133 102.6117070 122.7363369
 112.8100012 103.6134997 133.9899988 112.1570012 104.3084997 134.0799988
 113.2750012 103.8234997 133.1809988 112.7835274 103.7370643 133.8928462
 108.8460012 104.4454997 126.6489988 108.1140012 104.6734997 127.2219988
 109.2940012 103.7314997 127.1029988 108.8062725 104.3802145 126.7888816
 108.7440012 102.6194997 135.7159988 108.8240012 103.3824997 136.2879988
 108.1420012 102.8984997 135.0259988 108.6735756 102.7617134 135.7010589
 100.4920012 105.0754997 128.5309988 100.1610012 104.7054997 127.7129988
 101.0800012 104.4054997 128.8779988 100.5261873 104.9341156 128.4658102
 101.8580012 108.5034997 131.2119988 101.7640012 107.9254997 130.4559988
 102.5880012 108.1324997 131.7089988 101.9437387 108.3741663 131.1755342
 100.8580012 103.8444997 132.1649988 101.4240012 103.9654997 131.4019988
 101.1770012 104.4814997 132.8029988 100.9785474 103.9472219 132.1469862
 107.1670012 109.3474997 132.8989988 106.9270012 110.0094997 133.5469988
 106.9690012 108.5134997 133.3239988 107.1073808 109.3253134 133.0451524
 101.7380012 108.2434997 136.8819988 101.4270012 109.0254997 137.3369988
 101.0880012 108.0904997 136.1959988 101.6075558 108.3299105 136.8515871
 107.7170012 103.6074997 124.3339988 108.2970012 103.7574997 125.0809988
 108.1310012 104.0784997 123.6099988 107.8522997 103.6916578 124.3384058
  98.6580012 104.4414997 136.1099988  98.7290012 105.0924997 136.8089988
  97.7680012 104.5444997 135.7749988  98.5473005 104.5445427 136.1603495
 105.4440012 110.3444997 127.7689988 105.9180012 110.6394997 128.5459988
 104.8810012 111.0824997 127.5359988 105.4328184 110.4847247 127.8439628
  99.9780012 110.3154997 137.6449988  99.9850012 110.1794997 136.6979988
  99.0620012 110.1974997 137.8969988  99.8551714 110.2809430 137.5494666
 111.4160012  95.3574997 124.1469988 110.5160012  95.4964997 124.4419988
 111.6680012  96.1884997 123.7449988 111.3268702  95.4889074 124.1330205
  99.4820012 104.1454997 126.1199988  99.1900012 104.9134997 125.6299988
  98.8080012 103.4854997 125.9579988  99.3508111 104.1615587 126.0308978
 112.6050012 109.7234997 122.5229988 112.6790012 110.6624997 122.6939988
 113.5110012 109.4184997 122.4669988 112.7375100 109.8106722 122.5388119
  95.5750012 106.5084997 134.9349988  95.0740012 106.4804997 134.1199988
  95.5800012 105.6024997 135.2449988  95.5070944 106.3822396 134.8653226
  95.3250012 109.2884997 131.8189988  96.2710012 109.1444997 131.7999988
  95.2130012 110.0724997 132.3559988  95.4392727 109.3748046 131.8890072
 113.5230012 109.9544997 137.5019988 113.4740012 108.9994997 137.4649988
 112.6960012 110.2224997 137.9029988 113.4044940 109.8598998 137.5511375
 104.5020012 109.5284997 136.3779988 104.5890012 110.3544997 136.8529988
 103.6380012 109.1984997 136.6269988 104.3971964 109.5969878 136.4766549
 104.9160012 113.3004997 126.1839988 104.8410012 113.1794997 125.2369988
 104.9490012 114.2504997 126.3019988 104.9102068 113.4122646 126.0704967
  98.5690012 112.0894997 127.9649988  98.7220012 111.7414997 128.8429988
  97.7190012 111.7334997 127.7099988  98.4749166 111.9936216 128.0508079
 108.0180012 112.4544997 123.1859988 108.3930012 111.7104997 122.7149988
 108.0220012 112.1844997 124.1049988 108.0699125 112.3160986 123.2456483
 107.6870012 112.3804997 125.9349988 106.7510012 112.4804997 126.1139988
 107.9670012 111.6714997 126.5139988 107.5969553 112.2983406 126.0377087
 110.6750012 101.4474997 137.9819988 110.2680012 101.9284997 137.2609988
 110.7160012 100.5424997 137.6739988 110.6248437 101.3909374 137.8416683
  97.8240012 107.8314997 135.9789988  98.0400012 107.4704997 136.8379988
  96.9690012 107.4574997 135.7689988  97.7379292 107.7314111 136.0683386
 100.4430012  96.3014997 131.9739988  99.5810012  96.2144997 131.5659988
 100.4200012  97.1574997 132.4019988 100.3220409  96.4052883 131.9760589
 105.1060012  96.0234997 135.3489988 105.5260012  95.6084997 136.1019988
 104.1730012  95.8454997 135.4659988 105.0373644  95.9425900 135.4679539
 108.4320012  99.7794997 136.2019988 107.9180012  99.6534997 136.9999988
 108.2770012 100.6914997 135.9579988 108.3406852  99.8856132 136.2782158
 109.1950012 104.6404997 121.9639988 109.2370012 104.4174997 121.0339988
 110.0440012 105.0394997 122.1529988 109.3155280 104.6639438 121.8623554
 104.7670012  98.5164997 122.6339988 104.5140012  98.5354997 123.5569988
 104.5110012  97.6444997 122.3319988 104.6977481  98.4012558 122.7196175
 100.5340012 101.2674997 133.0689988  99.8920012 101.2264997 133.7779988
 100.5710012 102.1934997 132.8309988 100.4510664 101.3871430 133.1339219
 100.5310012 101.4884997 127.9809988  99.6380012 101.1474997 127.9219988
 100.9810012 101.1114997 127.2249988 100.4698130 101.3909631 127.8707702
 106.0660012 101.9044997 126.7979988 105.6570012 102.7194997 126.5069988
 106.7870012 101.7644997 126.1839988 106.1074537 101.9972018 126.6751342
 105.1680012 102.0794997 138.2859988 104.6060012 101.3754997 138.6069988
 105.9950012 101.9594997 138.7539988 105.2027095 101.9667883 138.3932330
 107.0710012 101.3504997 129.6119988 106.8760012 101.9554997 128.8969988
 107.2520012 100.5164997 129.1779988 107.0687614 101.3206300 129.4554405
  98.2840012 101.5874997 134.9359988  98.2460012 101.9874997 135.8049988
  97.7930012 100.7704997 135.0269988  98.2124684 101.5318069 135.0671059
 101.6500012  98.9614997 121.7349988 101.2190012  98.5164997 122.4649988
 100.9320012  99.3334997 121.2229988 101.4939438  98.9508940 121.7656799
  94.8920012  98.7034997 128.7869988  95.5230012  98.6744997 129.5059988
  95.3410012  98.2784997 128.0559988  95.0390918  98.6420836 128.7866441
  96.1660012  99.4494997 124.2109988  96.6400012 100.0404997 123.6259988
  95.4490012  99.9804997 124.5579988  96.1339341  99.6020867 124.1778836
 106.3350012 102.9884997 134.2829988 106.6580012 102.3574997 133.6399988
 105.8950012 102.4534997 134.9439988 106.3197484 102.8298387 134.2843198
 103.1120012  98.9154997 129.0669988 102.2010012  98.9724997 129.3559988
 103.6180012  98.8554997 129.8779988 103.0556899  98.9151941 129.2161184
  97.9410012 100.5444997 127.8939988  97.0510012 100.6444997 127.5539988
  98.2370012  99.7024997 127.5479988  97.8592823 100.4443546 127.8007213
 101.5940012 100.5444997 125.5509988 102.5250012 100.6734997 125.7289988
 101.3790012 101.2144997 124.9009988 101.6924247 100.6526565 125.4875747
 107.5170012  98.1504997 132.3319988 106.8410012  98.2814997 132.9959988
 107.0320012  97.9954997 131.5209988 107.3587146  98.1475157 132.3134469
 100.2680012 101.7394997 123.1169988  99.7250012 101.3594997 122.4259988
 101.1010012 101.9334997 122.6889988 100.3063631 101.7137125 122.9644501
 110.8050012 113.8224997 138.6079988 111.0050012 114.2464997 137.7739988
 111.4600012 114.1654997 139.2149988 110.9210072 113.9269857 138.5758592
  98.4030012 106.2964997 138.2159988  99.1350012 106.5504997 138.7779988
  97.6230012 106.5004997 138.7319988  98.3977073 106.3588160 138.3626151
 104.4320012 101.7034997 130.9539988 104.9970012 101.1564997 130.4069988
 104.2850012 101.1814997 131.7429988 104.4893380 101.5582259 130.9858695
  99.4340012  97.8394997 127.3729988  99.1170012  96.9374997 127.3369988
 100.2160012  97.8414997 126.8199988  99.4962408  97.7162474 127.2933569
 103.0590012 100.0914997 133.3679988 102.2230012 100.5454997 133.4789988
 103.5830012 100.3674997 134.1199988 103.0155416 100.1908660 133.4848119
 103.6030012 106.3044997 125.0529988 102.8580012 105.7974997 124.7309988
 103.4690012 106.3534997 125.9999988 103.4828776 106.2416940 125.1368647
 110.7530012 105.4374997 133.8399988 111.3950012 105.8944997 133.2959988
 109.9230012 105.5504997 133.3769988 110.7285963 105.5152704 133.7030177
 107.5010012  99.1184997 123.2519988 106.5620012  99.2304997 123.1009988
 107.7980012  99.9754997 123.5589988 107.4127583  99.2495981 123.2728337
 105.1220012 106.4884997 136.2899988 104.7770012 106.1074997 137.0969988
 104.9220012 107.4224997 136.3609988 105.0477527 106.5625135 136.4100689
 108.2190012 100.9854997 124.9129988 109.1110012 100.8484997 125.2319988
 108.2760012 101.7764997 124.3759988 108.3486504 101.0736052 124.8840818
  98.7280012 105.5994997 130.8229988  99.4730012 105.5974997 130.2219988
  98.8060012 104.7764997 131.3039988  98.8404995 105.4878887 130.8058282
 105.7290012 107.7634997 124.0789988 105.4330012 108.5894997 124.4599988
 105.0260012 107.1434997 124.2749988 105.5934914 107.7928199 124.1576443
  95.7360012 104.0604997 136.1379988  95.9590012 103.6424997 136.9699988
  95.1340012 103.4474997 135.7149988  95.6851759 103.9204668 136.1947022
 102.7520012 103.5774997 138.3509988 102.4560012 103.4114997 137.4559988
 103.6840012 103.3574997 138.3399988 102.8374166 103.5250640 138.2270536
 107.3730012 108.9504997 136.2409988 106.4720012 109.1334997 135.9729988
 107.4070012 109.2094997 137.1609988 107.2543139 109.0105849 136.3288099
 113.1040012 101.1954997 124.6079988 112.5500012 100.7994997 123.9359988
 113.2040012 102.1054997 124.3299988 113.0417059 101.2643586 124.4784401
 113.0670012 106.9954997 137.4449988 112.2160012 107.2334997 137.0779988
 113.6580012 106.9784997 136.6919988 113.0302487 107.0258258 137.2928893
 111.3990012 109.9814997 125.0729988 111.0260012 109.1554997 125.3819988
 111.6770012 109.7984997 124.1749988 111.3855222 109.8437430 124.9939473
 108.5600012 104.7894997 132.0939988 107.6310012 104.5574997 132.0669988
 109.0110012 104.0124997 131.7639988 108.4939216 104.6527238 132.0456917
 101.1030012 109.1174997 128.2269988 101.6300012 109.8904997 128.0269988
 100.2230012 109.3424997 127.9249988 101.0562031 109.2537545 128.1587912
  96.8580012 103.9794997 122.8139988  97.4740012 104.6064997 123.1939988
  95.9960012 104.2954997 123.0859988  96.8257698 104.1079430 122.9027183
 102.5300012 106.7804997 127.8029988 102.2890012 107.7054997 127.8449988
 101.7890012 106.3214997 128.1999988 102.3969225 106.8450933 127.8623742
 103.0450012 110.9294997 134.1189988 103.4070012 111.7844997 133.8849988
 103.5760012 110.6374997 134.8589988 103.1664473 111.0071060 134.1870855
 101.2130012 111.8024997 127.3489988 100.2630012 111.9074997 127.3999988
 101.5650012 112.6224997 127.6929988 101.1304195 111.9278800 127.4025502
 106.5890012 107.0284997 133.8189988 106.1630012 106.8014997 134.6459988
 107.1690012 106.2904997 133.6369988 106.6091868 106.8975299 133.9075830
 108.7920012 107.9574997 122.8929988 109.1450012 107.5774997 123.6969988
 107.8430012 107.8644997 122.9799988 108.7120918 107.8928956 123.0148532
 109.2470012 111.5804997 136.2889988 108.6460012 111.0254997 135.7929988
 109.5290012 112.2474997 135.6619988 109.2028804 111.5946625 136.1364849
 113.2950012 112.4374997 123.0939988 114.0390012 113.0234997 122.9539988
 112.6010012 113.0054997 123.4269988 113.3029899 112.5945798 123.1198778
  97.3700012  98.8134997 135.6959988  96.4770012  99.1524997 135.6279988
  97.2710012  97.9584997 136.1139988  97.2344164  98.7442588 135.7432235
 109.6580012 106.6304997 125.1199988 109.3800012 105.9024997 125.6759988
 110.5850012 106.7494997 125.3249988 109.7453124 106.5468802 125.2238845
  97.0210012 110.6184997 134.1309988  97.2380012 109.6864997 134.0999988
  97.2670012 110.8924997 135.0139988  97.0839549 110.5280636 134.2461763
 102.8830012 109.0694997 121.3399988 103.1220012 108.3214997 120.7929988
 102.6140012 108.6814997 122.1729988 102.8793675 108.9146638 121.3776865
 101.8200012 108.6394997 123.7959988 101.9660012 108.1194997 124.5859988
 101.8170012 109.5464997 124.1029988 101.8395792 108.6908842 123.9456117
  98.2730012 105.8924997 124.3069988  97.5870012 106.2444997 124.8739988
  98.7950012 106.6554997 124.0599988  98.2496852 106.0438578 124.3512118
 106.1040012  98.5544997 134.5859988 106.8030012  98.6284997 135.2359988
 105.7230012  97.6904997 134.7399988 106.1481767  98.4477624 134.6958322
 106.8890012  98.2064997 125.6829988 107.1090012  98.6784997 124.8799988
 107.4470012  98.6014997 126.3529988 106.9944968  98.3244285 125.6637331
 104.5570012 110.3374997 124.5459988 103.7410012 110.8344997 124.5979988
 105.0870012 110.8124997 123.9059988 104.5169161 110.4697722 124.4665956
 104.0890012  99.9344997 126.5179988 104.9010012 100.4394997 126.5639988
 103.8440012  99.7894997 127.4319988 104.1670520  99.9840375 126.6478517
 104.6240012 100.9204997 135.7019988 104.7430012 101.4944997 136.4599988
 105.2800012 100.2324997 135.8169988 104.7289025 100.9059858 135.8211321
 104.9720012  97.0154997 127.4559988 104.6260012  97.6334997 128.0999988
 105.6310012  97.5164997 126.9739988 105.0136968  97.1676278 127.4789383
 101.8960012 111.3814997 124.5269988 102.0560012 112.1804997 124.0269988
 101.6980012 111.6874997 125.4119988 101.8911637 111.5324020 124.5781144
 100.6300012  98.0784997 124.1429988 100.5470012  98.9674997 124.4899988
 101.5200012  97.8134997 124.3749988 100.7389469  98.1641430 124.2217626
 110.8290012  98.8274997 136.5369988 109.9120012  99.0904997 136.4499988
 111.1640012  98.8244997 135.6409988 110.7488613  98.8630761 136.4038837
 109.4310012 102.5784997 130.6329988 108.6330012 102.1634997 130.3049988
 109.8760012 101.8874997 131.1239988 109.3819885 102.4283543 130.6544889
  98.8890012 108.5064997 123.2039988  99.4810012 109.2054997 123.4799988
  99.3480012 108.0734997 122.4839988  99.0321142 108.5437049 123.1444830
  97.2050012 101.1704997 122.3199988  97.1600012 102.1094997 122.4979988
  96.3170012 100.9344997 122.0499988  97.0788574 101.2671892 122.3078912
 110.5170012 111.8344997 132.2559988 110.3620012 112.5124997 131.5979988
 111.4500012 111.9064997 132.4589988 110.6218657 111.9369546 132.1934360
  98.0130012  95.9524997 130.9929988  97.7840012  96.0114997 130.0649988
  97.5700012  95.1604997 131.2989988  97.9218530  95.8535753 130.9074786
  96.9430012 109.8924997 127.1529988  96.1110012 110.3654997 127.1799988
  97.4890012 110.4024997 126.5549988  96.9030352 110.0261332 127.0758463
  96.2310012 112.5054997 138.4829988  96.7720012 112.2884997 139.2429988
  95.7500012 111.6994997 138.2929988  96.2399951 112.3669270 138.5612576
 100.8290012 111.4244997 140.1029988 101.5960012 110.9654997 140.4439988
 100.8070012 111.1984997 139.1739988 100.9311275 111.3310186 140.0240101
 104.9210012 110.9324997 121.4789988 104.2770012 110.3014997 121.7999988
 105.6830012 110.4014997 121.2469988 104.9358077 110.7742920 121.4916011
 107.4060012 109.8044997 138.8329988 107.0550012 108.9484997 139.0759988
 108.1320012 109.9474997 139.4399988 107.4560769 109.7065636 138.9483619
 109.5250012 110.7494997 121.7119988 109.8080012 109.9554997 122.1649988
 110.2650012 110.9824997 121.1519988 109.6638006 110.6723376 121.6982715
  96.1380012 106.3154997 139.4369988  96.2820012 105.4134997 139.1509988
  95.3660012 106.6014997 138.9499988  96.0532753 106.2306816 139.3319505
 100.4800012 106.6594997 121.5699988 100.5440012 105.8654997 122.1009988
 101.1330012 106.5404997 120.8799988 100.5770241 106.5347148 121.5494317
 102.7940012 106.2854997 138.8699988 102.4650012 106.5564997 138.0129988
 102.9460012 105.3444997 138.7829988 102.7694809 106.1953862 138.7408244
 105.8320012 107.7064997 121.3059988 105.5630012 107.8864997 122.2069988
 105.6260012 106.7804997 121.1739988 105.7673427 107.6060261 121.4115073
 108.5280012 106.2014997 136.2529988 109.2740012 106.7894997 136.1339988
 107.7710012 106.7834997 136.3169988 108.5277820 106.3607143 136.2453590
  96.9710012 103.5154997 138.8569988  97.3790012 102.6584997 138.7359988
  96.7110012 103.5304997 139.7779988  96.9917568 103.4000807 138.9649588
 101.6290012 104.6314997 123.8759988 101.1690012 104.1474997 124.5619988
 101.8840012 103.9634997 123.2399988 101.6004902 104.4748731 123.8839334
 100.9180012 102.5244997 136.2319988 100.3000012 103.1994997 136.5119988
 101.2620012 102.8454997 135.3979988 100.8799132 102.6602411 136.1576262
 102.7000012 102.8744997 122.1379988 102.5200012 102.7204997 121.2109988
 103.6500012 102.9824997 122.1829988 102.8037776 102.8680175 122.0171843
 105.9380012 104.9964997 139.5089988 106.8910012 105.0794997 139.4819988
 105.7770012 104.2844997 140.1289988 106.0466426 104.9116746 139.5890579
 112.0900012 105.2294997 121.5839988 111.8160012 104.8044997 120.7709988
 112.1290012 106.1604997 121.3669988 112.0577699 105.2972484 121.4433610
 101.2570012  99.8794997 137.3139988 101.4070012  99.1504997 136.7119988
 101.2600012 100.6564997 136.7549988 101.2779302  99.8847851 137.1560692
 101.6700012  98.2494997 134.8069988 102.2060012  98.7004997 134.1549988
 100.8180012  98.1414997 134.3839988 101.6282178  98.2966390 134.6605756
 103.2520012 103.6884997 135.0459988 104.0020012 103.5324997 134.4729988
 102.9130012 104.5404997 134.7709988 103.3088921 103.7822968 134.9303561
 107.6670012 101.5034997 140.0749988 107.8600012 100.5724997 139.9629988
 108.5250012 101.9284997 140.0639988 107.8092934 101.4336531 140.0582031
 108.9840012 104.2924997 138.1519988 108.7030012 105.0014997 137.5739988
 109.9270012 104.2194997 138.0009988 109.0729291 104.3796711 138.0524967
  99.7360012 101.0774997 139.2259988  98.9690012 100.5454997 139.0149988
 100.4150012 100.7674997 138.6259988  99.7227877 100.9628300 139.1160716
 102.4760012  95.7054997 135.2379988 102.3770012  96.6524997 135.1329988
 101.7330012  95.3334997 134.7619988 102.3621184  95.7845863 135.1593621
 103.7400012 100.0274997 138.8019988 103.5040012  99.8074997 139.7029988
 102.9560012  99.8204997 138.2919988 103.6018504  99.9694586 138.8563431
 106.4550012  99.1544997 137.8769988 105.5080012  99.1864997 138.0099988
 106.7680012  98.5294997 138.5309988 106.3676707  99.0743998 137.9836060
 108.0890012  97.7884997 139.8829988 107.9930012  96.8364997 139.8769988
 107.7680012  98.0574997 140.7429988 108.0324070  97.6944035 139.9985441
  97.9160012  98.9984997 138.9299988  98.1280012  98.2914997 138.3199988
  97.8050012  98.5604997 139.7739988  97.9299721  98.8427084 138.9606843
 102.6970012  94.9994997 137.9089988 103.4090012  94.3594997 137.8949988
 102.5960012  95.2664997 136.9959988 102.7808066  94.9480079 137.7835677
 103.0510012  96.6824997 139.9629988 102.9190012  96.2064997 139.1429988
 102.4520012  97.4264997 139.9079988 102.9519071  96.7179618 139.8432886
 102.5970012 113.5654997 123.1389988 103.5300012 113.7234997 123.2829988
 102.3330012 114.2404997 122.5149988 102.6889888 113.6784510 123.0742842
  96.1660012 108.2014997 122.6219988  97.0800012 108.2804997 122.8959988
  96.1730012 107.5144997 121.9559988  96.2921131 108.1193961 122.5694393
  94.8150012 113.5944997 127.6999988  94.1680012 113.1324997 127.1669988
  95.1690012 112.9224997 128.2819988  94.7743849 113.4404723 127.7057959
  95.6850012 111.6754997 129.5039988  95.3500012 110.7954997 129.6759988
  95.9070012 112.0204997 130.3689988  95.6691783 111.6017500 129.6444208
 113.2330012 112.4844997 132.4849988 113.2120012 112.6694997 133.4239988
 113.9240012 113.0534997 132.1439988 113.3234618 112.5866606 132.5673864
 112.7970012 112.0524997 135.4069988 112.3090012 111.3164997 135.0349988
 113.3460012 111.6584997 136.0849988 112.8044820 111.8985889 135.4477813
 111.2470012 107.8414997 140.0449988 110.3810012 107.7364997 140.4389988
 111.6240012 108.6004997 140.4909988 111.1793308 107.9296900 140.1592393
 112.5480012 106.0984997 125.5589988 113.3980012 106.5194997 125.6859988
 112.5540012 105.3584997 126.1659988 112.6651372 106.0560803 125.6584344
 112.9430012 104.1514997 127.3819988 112.2160012 103.6724997 127.7799988
 113.5240012 104.3574997 128.1149988 112.9220473 104.1138103 127.5354528
 112.7020012 106.9364997 132.3299988 113.5350012 106.5584997 132.0499988
 112.8140012 107.8794997 132.2109988 112.8312647 107.0122218 132.2755487
 111.1880012 109.8144997 134.6369988 110.5410012 110.1394997 135.2629988
 110.6710012 109.3744997 133.9629988 111.0294029 109.7995004 134.6315827
 113.2110012 104.0524997 123.7739988 112.6890012 104.4094997 123.0549988
 113.1780012 104.7274997 124.4519988 113.1351634 104.1925413 123.7673145
 111.5600012 101.2924997 122.3239988 111.6560012 101.9594997 121.6439988
 111.4200012 100.4764997 121.8429988 111.5542272 101.2735655 122.1658347
 110.7290012 102.6724997 127.9449988 110.5790012 101.7274997 127.9249988
 110.3760012 102.9534997 128.7889988 110.6607448 102.5811481 128.0563705
  95.7650012 104.7504997 131.9559988  95.9490012 104.6684997 131.0199988
  96.6140012 104.6264997 132.3789988  95.9050151 104.7225073 131.8851451
 111.5860012 104.6424997 137.5839988 112.1690012 103.9084997 137.7759988
 112.1500012 105.4144997 137.6309988 111.7419769 104.6464227 137.6166159
 113.0820012 102.5454997 138.2689988 112.2190012 102.1664997 138.1029988
 113.6870012 101.8064997 138.1939988 113.0456119 102.3938268 138.2361528
 110.8070012  98.7004997 121.4419988 111.4180012  98.3294997 122.0789988
 109.9710012  98.2794997 121.6379988 110.7775032  98.5927554 121.5557035
 110.4400012 100.2554997 126.4079988 110.7200012  99.3484997 126.5319988
 111.1990012 100.6894997 126.0189988 110.5809277 100.1900942 126.3723682
 111.0520012 100.8364997 131.8439988 111.9850012 101.0484997 131.8089988
 110.8170012 100.9384997 132.7659988 111.1479244 100.8793100 131.9638892
 111.0810012 101.5734997 134.6199988 110.2380012 101.8414997 134.9859988
 111.5230012 102.3954997 134.4089988 111.0254158 101.7213291 134.6415491
  95.3620012 100.0214997 138.0969988  96.2820012  99.8994997 138.3329988
  94.9130012  99.2714997 138.4859988  95.4271580  99.9033727 138.1819006
 113.3640012  95.5534997 139.9729988 113.7140012  94.8994997 139.3679988
 113.5110012  96.3904997 139.5329988 113.4317887  95.5771548 139.8306858
 111.0530012  97.5184997 126.4559988 111.2360012  97.0694997 127.2819988
 110.4540012  96.9334997 125.9929988 110.9970202  97.3779975 126.5063275
  96.5830012  98.3334997 130.9879988  97.0290012  97.5414997 131.2899988
  97.0500012  99.0494997 131.4179988  96.7070831  98.3220685 131.0874006
  94.8870012 101.3324997 132.0569988  95.3790012 101.1114997 131.2659988
  95.2500012 102.1734997 132.3379988  95.0033126 101.4158357 131.9867531
 112.8840012  97.6624997 138.3219988 111.9660012  97.9334997 138.2869988
 113.0070012  97.1274997 137.5379988 112.7749729  97.6272508 138.2111923
 112.9200012  97.5854997 122.9839988 113.3320012  96.8644997 122.5089988
 113.6020012  98.2554997 123.0429988 113.0685885  97.5772368 122.9268915
  95.2010012  97.5904997 126.1109988  94.2760012  97.7994997 125.9819988
  95.6550012  98.0744997 125.4209988  95.1357292  97.6845343 126.0000720
 109.9720012 112.5744997 128.0569988 110.6240012 112.2274997 127.4489988
 110.4820012 113.0634997 128.7029988 110.1302637 112.5930597 128.0610236
  95.1650012  96.3284997 134.4549988  94.5000012  96.0824997 135.0989988
  94.7220012  96.9504997 133.8779988  95.0141318  96.3789410 134.4650898
  97.3570012 109.5034997 138.5999988  96.5360012 109.6784997 138.1389988
  97.1040012 109.4304997 139.5199988  97.2105585 109.5175544 138.6613561
 100.3110012 110.4784997 134.8579988  99.8860012 111.2874997 134.5759988
 101.2150012 110.5634997 134.5559988 100.3749975 110.6009300 134.7784816
 104.6220012 111.8774997 137.8179988 104.8070012 111.5434997 138.6959988
 105.4680012 112.1864997 137.4959988 104.7617539 111.8736047 137.8945605
 106.9670012 113.1634997 137.0619988 107.6440012 112.5304997 136.8219988
 107.2890012 113.5644997 137.8689988 107.1031637 113.1311154 137.1382793
 111.8840012  95.7524997 136.1409988 111.0720012  96.0774997 135.7539988
 112.1170012  94.9924997 135.6079988 111.8042203  95.6942758 136.0158880
  97.7130012 113.7344997 134.9059988  96.9920012 114.1744997 134.4549988
  97.3470012 113.4834997 135.7539988  97.5649651 113.7607242 134.9589640
 100.1800012 113.3344997 133.9359988  99.3150012 113.4064997 134.3399988
 100.1250012 113.8814997 133.1519988 100.0542085 113.4182685 133.8853362
 104.8900012 113.2224997 133.1109988 104.4340012 113.7514997 132.4569988
 105.0530012 113.8254997 133.8359988 104.8496068 113.3764607 133.1194838
 107.2180012 112.1004997 134.0559988 106.3130012 112.2654997 133.7899988
 107.6470012 112.9534997 133.9909988 107.1521324 112.2384339 134.0107976
 109.8220012 113.6704997 134.3509988 109.6400012 114.5864997 134.1409988
 109.9990012 113.2604997 133.5049988 109.8210210 113.7404822 134.2077885
  97.1270012 112.3574997 131.8159988  97.1090012 111.9324997 132.6729988
  97.9320012 112.0394997 131.4069988  97.2333529 112.2563013 131.8780946
  99.2690012 111.0674997 130.4709988  99.0500012 110.1514997 130.6409988
 100.0930012 111.2074997 130.9369988  99.3504420 110.9610520 130.5572774
 101.8060012 111.5374997 131.3199988 102.0190012 110.6494997 131.0329988
 101.8700012 111.5034997 132.2739988 101.8438231 111.4113102 131.4097397
 105.3140012  97.2014997 130.4639988 104.6400012  96.5724997 130.7199988
 105.8780012  96.7174997 129.8609988 105.2979230  97.0498744 130.4175340
 110.4570012  95.3094997 130.5769988 111.0610012  95.8564997 130.0749988
 109.5870012  95.6284997 130.3359988 110.4221208  95.4275137 130.4756886
 112.1840012  96.4474997 128.9099988 112.7960012  95.9334997 128.3829988
 112.5660012  97.3254997 128.9329988 112.3193371  96.4957866 128.8410041
  97.6410012  95.8354997 128.2859988  96.8640012  95.6014997 127.7789988
  98.1710012  95.0384997 128.2949988  97.6062330  95.6956988 128.2177742
  96.4770012  95.6334997 124.0899988  96.9160012  96.2444997 123.4979988
  95.8440012  96.1714997 124.5639988  96.4514514  95.7899257 124.0730930
 102.2200012  95.7624997 128.0999988 103.0950012  96.1504997 128.0699988
 102.0840012  95.5474997 129.0219988 102.3213695  95.7865184 128.2206440
 107.7770012  95.7924997 129.7489988 107.8530012  95.8874997 128.7989988
 107.5020012  94.8844997 129.8779988 107.7502321  95.6827867 129.6365079
 109.1300012  95.8184997 125.4409988 108.4280012  96.4334997 125.2309988
 108.6860012  94.9804997 125.5719988 108.9736450  95.7895639 125.4299000
  96.3780012 111.5814997 124.9869988  95.6930012 111.5434997 124.3199988
  96.3820012 112.4944997 125.2759988  96.2846998 111.6996733 124.9346771
  98.3380012  97.5494997 122.5319988  98.8300012  96.9194997 122.0049988
  98.9620012  97.8454997 123.1949988  98.4895688  97.5033804 122.5495482
 103.3640012  97.8424997 124.9889988 103.5420012  97.1964997 125.6719988
 103.3110012  98.6764997 125.4559988 103.3811999  97.8668009 125.1455917
 105.2430012 112.7914997 123.3849988 106.1090012 113.1574997 123.2069988
 104.9960012 112.3514997 122.5709988 105.3282392 112.7821756 123.2506289
 111.9520012 112.3544997 126.0639988 111.7570012 111.6064997 125.4989988
 111.9130012 113.1124997 125.4809988 111.9200380 112.3546099 125.9078384
  97.5990012  96.3494997 137.8039988  97.2330012  95.5844997 138.2459988
  98.5120012  96.3784997 138.0899988  97.6722736  96.2485640 137.9032502
  99.5720012  95.7004997 139.3399988 100.4700012  95.4264997 139.1549988
  99.1850012  94.9574997 139.8039988  99.6426612  95.5625914 139.3773643
  98.1960012 112.5014997 122.0129988  97.9290012 112.7884997 122.8859988
  98.9680012 111.9554997 122.1649988  98.2637488 112.4670294 122.1531050
 107.9930012  95.0324997 139.5219988 108.0700012  94.6064997 140.3759988
 108.8870012  95.0464997 139.1789988 108.1243428  94.9760879 139.5925310
 111.1690012 111.1054997 138.2139988 110.3870012 110.9194997 137.6939988
 111.0970012 112.0344997 138.4319988 111.0522274 111.2056643 138.1723018
 125.5750012 104.9914997 128.2449988 125.6640012 105.9354997 128.1129988
 124.9370012 104.7164997 127.5869988 125.5009081 105.0834830 128.1379614
 124.5080012 104.2464997 131.6639988 124.4700012 103.6004997 132.3689988
 124.1860012 103.7804997 130.8929988 124.4592333 104.0949408 131.6562978
 116.8770012 103.8614997 133.2569988 116.9180012 103.2354997 133.9799988
 117.5800012 104.4854997 133.4389988 116.9776363 103.8601196 133.3806044
 128.2140012 107.1854997 129.9649988 127.7740012 106.4654997 130.4159988
 128.2010012 107.9064997 130.5949988 128.1520226 107.1843731 130.1118494
 117.8000012 108.3114997 131.7919988 117.4310012 107.5094997 131.4219988
 118.7410012 108.1424997 131.8379988 117.8767289 108.1790153 131.7476316
 114.4100012 101.9714997 127.1849988 113.9630012 102.8174997 127.1659988
 113.8490012 101.3914997 126.6689988 114.2729900 102.0089916 127.1126801
 115.1210012 104.1334997 129.3099988 115.3340012 103.3634997 129.8379988
 115.8590012 104.2224997 128.7069988 115.2499044 104.0401968 129.3007123
 125.3260012 112.2904997 130.1769988 125.9460012 111.6134997 129.9039988
 125.1180012 112.0724997 131.0859988 125.3826726 112.1684800 130.2624812
 122.8980012 106.6794997 132.0699988 123.2020012 105.9934997 131.4749988
 123.6190012 106.7974997 132.6879988 123.0370671 106.6016305 132.0721816
 131.5610012  98.2804997 132.9309988 131.6100012  98.8904997 133.6659988
 131.9860012  98.7414997 132.2079988 131.6251746  98.4263796 132.9339175
 126.0390012 101.0734997 132.3969988 126.1810012 100.1274997 132.4179988
 125.9320012 101.2804997 131.4689988 126.0439919 100.9718246 132.2743408
 119.1930012  99.1744997 129.6699988 119.2370012 100.0344997 129.2509988
 118.7360012  98.6224997 129.0359988 119.1372240  99.2174422 129.5269864
 126.9160012  99.3054997 128.0709988 127.5620012  98.9764997 128.6949988
 127.4260012  99.8234997 127.4479988 127.0734299  99.3304450 128.0722731
 115.8140012 101.5714997 130.4319988 116.4670012 101.0214997 130.8639988
 115.8380012 101.2974997 129.5149988 115.9066683 101.4591466 130.3672123
 120.9700012 103.1214997 129.6469988 121.5860012 102.5954997 130.1569988
 120.3840012 102.4814997 129.2439988 120.9750810 102.9629208 129.6623173
 131.9520012  99.7584997 135.1659988 131.2640012 100.4164997 135.0709988
 131.9680012  99.5614997 136.1029988 131.8599540  99.8219819 135.2795990
 118.0040012  98.0924997 133.7439988 117.7850012  98.6224997 132.9779988
 117.3360012  98.3194997 134.3909988 117.8837600  98.1956906 133.7266379
 125.3730012 107.5924997 127.2879988 125.0770012 107.2704997 126.4369988
 125.0480012 108.4924997 127.3289988 125.2886371 107.6700215 127.1771801
 120.5730012 105.7684997 134.0309988 119.8330012 106.3664997 134.1349988
 121.2870012 106.3224997 133.7159988 120.5682237 105.9252831 134.0026465
 128.6800012  98.5964997 130.0509988 128.4640012  97.8304997 130.5839988
 129.3350012  99.0684997 130.5639988 128.7390632  98.5555889 130.1932861
 117.5970012  99.9844997 131.6959988 118.2110012 100.6174997 132.0689988
 118.1090012  99.5124997 131.0399988 117.7501981 100.0072267 131.6582908
 118.9800012 107.7324997 134.8179988 118.9750012 108.6124997 134.4399988
 118.1270012 107.6494997 135.2429988 118.8639464 107.8416117 134.8237907
 115.1010012 107.4034997 125.5999988 114.8290012 107.6324997 124.7119988
 115.1470012 108.2414997 126.0609988 115.0699482 107.5481318 125.5406273
 128.7260012 109.0254997 132.3129988 127.7850012 109.0834997 132.4749988
 129.0030012 109.9314997 132.1759988 128.6344679 109.1559443 132.3166815
 129.0270012  97.3114997 133.7309988 128.2910012  97.9224997 133.6929988
 129.7100012  97.7264997 133.2039988 129.0186541  97.4511374 133.6545832
 122.0300012  95.3984997 131.1959988 121.9130012  94.4494997 131.1419988
 121.1750012  95.7304997 131.4699988 121.8984212  95.3135571 131.2256497
 126.9780012 110.8064997 128.9379988 127.4040012 110.0994997 128.4529988
 127.2950012 111.6074997 128.5219988 127.0791683 110.8181017 128.8153680
 128.1380012 108.7074997 127.4469988 127.8800012 108.0174997 126.8359988
 128.2090012 108.2644997 128.2929988 128.1122856 108.5532124 127.4776885
 129.8240012 107.2734997 135.9239988 129.9640012 106.6824997 135.1849988
 129.9910012 108.1464997 135.5679988 129.8657411 107.3105428 135.7746894
 124.2970012 104.2354997 125.6969988 123.5850012 104.7704997 125.3449988
 124.9880012 104.2914997 125.0369988 124.2930132 104.3162543 125.5596289
 124.3500012 102.6934997 122.7359988 125.0510012 102.7154997 123.3869988
 124.6530012 102.0654997 122.0789988 124.4868133 102.6117070 122.7363369
 131.6660012 103.6134997 133.9899988 131.0130012 104.3084997 134.0799988
 132.1310012 103.8234997 133.1809988 131.6395274 103.7370643 133.8928462
 127.7020012 104.4454997 126.6489988 126.9700012 104.6734997 127.2219988
 128.1500012 103.7314997 127.1029988 127.6622725 104.3802145 126.7888816
 127.6000012 102.6194997 135.7159988 127.6800012 103.3824997 136.2879988
 126.9980012 102.8984997 135.0259988 127.5295756 102.7617134 135.7010589
 119.3480012 105.0754997 128.5309988 119.0170012 104.7054997 127.7129988
 119.9360012 104.4054997 128.8779988 119.3821873 104.9341156 128.4658102
 120.7140012 108.5034997 131.2119988 120.6200012 107.9254997 130.4559988
 121.4440012 108.1324997 131.7089988 120.7997387 108.3741663 131.1755342
 119.7140012 103.8444997 132.1649988 120.2800012 103.9654997 131.4019988
 120.0330012 104.4814997 132.8029988 119.8345474 103.9472219 132.1469862
 126.0230012 109.3474997 132.8989988 125.7830012 110.0094997 133.5469988
 125.8250012 108.5134997 133.3239988 125.9633808 109.3253134 133.0451524
 120.5940012 108.2434997 136.8819988 120.2830012 109.0254997 137.3369988
 119.9440012 108.0904997 136.1959988 120.4635558 108.3299105 136.8515871
 126.5730012 103.6074997 124.3339988 127.1530012 103.7574997 125.0809988
 126.9870012 104.0784997 123.6099988 126.7082997 103.6916578 124.3384058
 117.5140012 104.4414997 136.1099988 117.5850012 105.0924997 136.8089988
 116.6240012 104.5444997 135.7749988 117.4033005 104.5445427 136.1603495
 124.3000012 110.3444997 127.7689988 124.7740012 110.6394997 128.5459988
 123.7370012 111.0824997 127.5359988 124.2888184 110.4847247 127.8439628
 118.8340012 110.3154997 137.6449988 118.8410012 110.1794997 136.6979988
 117.9180012 110.1974997 137.8969988 118.7111714 110.2809430 137.5494666
 130.2720012  95.3574997 124.1469988 129.3720012  95.4964997 124.4419988
 130.5240012  96.1884997 123.7449988 130.1828702  95.4889074 124.1330205
 118.3380012 104.1454997 126.1199988 118.0460012 104.9134997 125.6299988
 117.6640012 103.4854997 125.9579988 118.2068111 104.1615587 126.0308978
 131.4610012 109.7234997 122.5229988 131.5350012 110.6624997 122.6939988
 132.3670012 109.4184997 122.4669988 131.5935100 109.8106722 122.5388119
 114.4310012 106.5084997 134.9349988 113.9300012 106.4804997 134.1199988
 114.4360012 105.6024997 135.2449988 114.3630944 106.3822396 134.8653226
 114.1810012 109.2884997 131.8189988 115.1270012 109.1444997 131.7999988
 114.0690012 110.0724997 132.3559988 114.2952727 109.3748046 131.8890072
 132.3790012 109.9544997 137.5019988 132.3300012 108.9994997 137.4649988
 131.5520012 110.2224997 137.9029988 132.2604940 109.8598998 137.5511375
 123.3580012 109.5284997 136.3779988 123.4450012 110.3544997 136.8529988
 122.4940012 109.1984997 136.6269988 123.2531964 109.5969878 136.4766549
 123.7720012 113.3004997 126.1839988 123.6970012 113.1794997 125.2369988
 123.8050012 114.2504997 126.3019988 123.7662068 113.4122646 126.0704967
 117.4250012 112.0894997 127.9649988 117.5780012 111.7414997 128.8429988
 116.5750012 111.7334997 127.7099988 117.3309166 111.9936216 128.0508079
 126.8740012 112.4544997 123.1859988 127.2490012 111.7104997 122.7149988
 126.8780012 112.1844997 124.1049988 126.9259125 112.3160986 123.2456483
 126.5430012 112.3804997 125.9349988 125.6070012 112.4804997 126.1139988
 126.8230012 111.6714997 126.5139988 126.4529553 112.2983406 126.0377087
 129.5310012 101.4474997 137.9819988 129.1240012 101.9284997 137.2609988
 129.5720012 100.5424997 137.6739988 129.4808437 101.3909374 137.8416683
 116.6800012 107.8314997 135.9789988 116.8960012 107.4704997 136.8379988
 115.8250012 107.4574997 135.7689988 116.5939292 107.7314111 136.0683386
 119.2990012  96.3014997 131.9739988 118.4370012  96.2144997 131.5659988
 119.2760012  97.1574997 132.4019988 119.1780409  96.4052883 131.9760589
 123.9620012  96.0234997 135.3489988 124.3820012  95.6084997 136.1019988
 123.0290012  95.8454997 135.4659988 123.8933644  95.9425900 135.4679539
 127.2880012  99.7794997 136.2019988 126.7740012  99.6534997 136.9999988
 127.1330012 100.6914997 135.9579988 127.1966852  99.8856132 136.2782158
 128.0510012 104.6404997 121.9639988 128.0930012 104.4174997 121.0339988
 128.9000012 105.0394997 122.1529988 128.1715280 104.6639438 121.8623554
 123.6230012  98.5164997 122.6339988 123.3700012  98.5354997 123.5569988
 123.3670012  97.6444997 122.3319988 123.5537481  98.4012558 122.7196175
 119.3900012 101.2674997 133.0689988 118.7480012 101.2264997 133.7779988
 119.4270012 102.1934997 132.8309988 119.3070664 101.3871430 133.1339219
 119.3870012 101.4884997 127.9809988 118.4940012 101.1474997 127.9219988
 119.8370012 101.1114997 127.2249988 119.3258130 101.3909631 127.8707702
 124.9220012 101.9044997 126.7979988 124.5130012 102.7194997 126.5069988
 125.6430012 101.7644997 126.1839988 124.9634537 101.9972018 126.6751342
 124.0240012 102.0794997 138.2859988 123.4620012 101.3754997 138.6069988
 124.8510012 101.9594997 138.7539988 124.0587095 101.9667883 138.3932330
 125.9270012 101.3504997 129.6119988 125.7320012 101.9554997 128.8969988
 126.1080012 100.5164997 129.1779988 125.9247614 101.3206300 129.4554405
 117.1400012 101.5874997 134.9359988 117.1020012 101.9874997 135.8049988
 116.6490012 100.7704997 135.0269988 117.0684684 101.5318069 135.0671059
 120.5060012  98.9614997 121.7349988 120.0750012  98.5164997 122.4649988
 119.7880012  99.3334997 121.2229988 120.3499438  98.9508940 121.7656799
 113.7480012  98.7034997 128.7869988 114.3790012  98.6744997 129.5059988
 114.1970012  98.2784997 128.0559988 113.8950918  98.6420836 128.7866441
 115.0220012  99.4494997 124.2109988 115.4960012 100.0404997 123.6259988
 114.3050012  99.9804997 124.5579988 114.9899341  99.6020867 124.1778836
 125.1910012 102.9884997 134.2829988 125.5140012 102.3574997 133.6399988
 124.7510012 102.4534997 134.9439988 125.1757484 102.8298387 134.2843198
 121.9680012  98.9154997 129.0669988 121.0570012  98.9724997 129.3559988
 122.4740012  98.8554997 129.8779988 121.9116899  98.9151941 129.2161184
 116.7970012 100.5444997 127.8939988 115.9070012 100.6444997 127.5539988
 117.0930012  99.7024997 127.5479988 116.7152823 100.4443546 127.8007213
 120.4500012 100.5444997 125.5509988 121.3810012 100.6734997 125.7289988
 120.2350012 101.2144997 124.9009988 120.5484247 100.6526565 125.4875747
 126.3730012  98.1504997 132.3319988 125.6970012  98.2814997 132.9959988
 125.8880012  97.9954997 131.5209988 126.2147146  98.1475157 132.3134469
 119.1240012 101.7394997 123.1169988 118.5810012 101.3594997 122.4259988
 119.9570012 101.9334997 122.6889988 119.1623631 101.7137125 122.9644501
 129.6610012 113.8224997 138.6079988 129.8610012 114.2464997 137.7739988
 130.3160012 114.1654997 139.2149988 129.7770072 113.9269857 138.5758592
 117.2590012 106.2964997 138.2159988 117.9910012 106.5504997 138.7779988
 116.4790012 106.5004997 138.7319988 117.2537073 106.3588160 138.3626151
 123.2880012 101.7034997 130.9539988 123.8530012 101.1564997 130.4069988
 123.1410012 101.1814997 131.7429988 123.3453380 101.5582259 130.9858695
 118.2900012  97.8394997 127.3729988 117.9730012  96.9374997 127.3369988
 119.0720012  97.8414997 126.8199988 118.3522408  97.7162474 127.2933569
 121.9150012 100.0914997 133.3679988 121.0790012 100.5454997 133.4789988
 122.4390012 100.3674997 134.1199988 121.8715416 100.1908660 133.4848119
 122.4590012 106.3044997 125.0529988 121.7140012 105.7974997 124.7309988
 122.3250012 106.3534997 125.9999988 122.3388776 106.2416940 125.1368647
 129.6090012 105.4374997 133.8399988 130.2510012 105.8944997 133.2959988
 128.7790012 105.5504997 133.3769988 129.5845963 105.5152704 133.7030177
 126.3570012  99.1184997 123.2519988 125.4180012  99.2304997 123.1009988
 126.6540012  99.9754997 123.5589988 126.2687583  99.2495981 123.2728337
 123.9780012 106.4884997 136.2899988 123.6330012 106.1074997 137.0969988
 123.7780012 107.4224997 136.3609988 123.9037527 106.5625135 136.4100689
 127.0750012 100.9854997 124.9129988 127.9670012 100.8484997 125.2319988
 127.1320012 101.7764997 124.3759988 127.2046504 101.0736052 124.8840818
 117.5840012 105.5994997 130.8229988 118.3290012 105.5974997 130.2219988
 117.6620012 104.7764997 131.3039988 117.6964995 105.4878887 130.8058282
 124.5850012 107.7634997 124.0789988 124.2890012 108.5894997 124.4599988
 123.8820012 107.1434997 124.2749988 124.4494914 107.7928199 124.1576443
 114.5920012 104.0604997 136.1379988 114.8150012 103.6424997 136.9699988
 113.9900012 103.4474997 135.7149988 114.5411759 103.9204668 136.1947022
 121.6080012 103.5774997 138.3509988 121.3120012 103.4114997 137.4559988
 122.5400012 103.3574997 138.3399988 121.6934166 103.5250640 138.2270536
 126.2290012 108.9504997 136.2409988 125.3280012 109.1334997 135.9729988
 126.2630012 109.2094997 137.1609988 126.1103139 109.0105849 136.3288099
 131.9600012 101.1954997 124.6079988 131.4060012 100.7994997 123.9359988
 132.0600012 102.1054997 124.3299988 131.8977059 101.2643586 124.4784401
 131.9230012 106.9954997 137.4449988 131.0720012 107.2334997 137.0779988
 132.5140012 106.9784997 136.6919988 131.8862487 107.0258258 137.2928893
 130.2550012 109.9814997 125.0729988 129.8820012 109.1554997 125.3819988
 130.5330012 109.7984997 124.1749988 130.2415222 109.8437430 124.9939473
 127.4160012 104.7894997 132.0939988 126.4870012 104.5574997 132.0669988
 127.8670012 104.0124997 131.7639988 127.3499216 104.6527238 132.0456917
 119.9590012 109.1174997 128.2269988 120.4860012 109.8904997 128.0269988
 119.0790012 109.3424997 127.9249988 119.9122031 109.2537545 128.1587912
 115.7140012 103.9794997 122.8139988 116.3300012 104.6064997 123.1939988
 114.8520012 104.2954997 123.0859988 115.6817698 104.1079430 122.9027183
 121.3860012 106.7804997 127.8029988 121.1450012 107.7054997 127.8449988
 120.6450012 106.3214997 128.1999988 121.2529225 106.8450933 127.8623742
 121.9010012 110.9294997 134.1189988 122.2630012 111.7844997 133.8849988
 122.4320012 110.6374997 134.8589988 122.0224473 111.0071060 134.1870855
 120.0690012 111.8024997 127.3489988 119.1190012 111.9074997 127.3999988
 120.4210012 112.6224997 127.6929988 119.9864195 111.9278800 127.4025502
 125.4450012 107.0284997 133.8189988 125.0190012 106.8014997 134.6459988
 126.0250012 106.2904997 133.6369988 125.4651868 106.8975299 133.9075830
 127.6480012 107.9574997 122.8929988 128.0010012 107.5774997 123.6969988
 126.6990012 107.8644997 122.9799988 127.5680918 107.8928956 123.0148532
 128.1030012 111.5804997 136.2889988 127.5020012 111.0254997 135.7929988
 128.3850012 112.2474997 135.6619988 128.0588804 111.5946625 136.1364849
 132.1510012 112.4374997 123.0939988 132.8950012 113.0234997 122.9539988
 131.4570012 113.0054997 123.4269988 132.1589899 112.5945798 123.1198778
 116.2260012  98.8134997 135.6959988 115.3330012  99.1524997 135.6279988
 116.1270012  97.9584997 136.1139988 116.0904164  98.7442588 135.7432235
 128.5140012 106.6304997 125.1199988 128.2360012 105.9024997 125.6759988
 129.4410012 106.7494997 125.3249988 128.6013124 106.5468802 125.2238845
 115.8770012 110.6184997 134.1309988 116.0940012 109.6864997 134.0999988
 116.1230012 110.8924997 135.0139988 115.9399549 110.5280636 134.2461763
 121.7390012 109.0694997 121.3399988 121.9780012 108.3214997 120.7929988
 121.4700012 108.6814997 122.1729988 121.7353675 108.9146638 121.3776865
 120.6760012 108.6394997 123.7959988 120.8220012 108.1194997 124.5859988
 120.6730012 109.5464997 124.1029988 120.6955792 108.6908842 123.9456117
 117.1290012 105.8924997 124.3069988 116.4430012 106.2444997 124.8739988
 117.6510012 106.6554997 124.0599988 117.1056852 106.0438578 124.3512118
 124.9600012  98.5544997 134.5859988 125.6590012  98.6284997 135.2359988
 124.5790012  97.6904997 134.7399988 125.0041767  98.4477624 134.6958322
 125.7450012  98.2064997 125.6829988 125.9650012  98.6784997 124.8799988
 126.3030012  98.6014997 126.3529988 125.8504968  98.3244285 125.6637331
 123.4130012 110.3374997 124.5459988 122.5970012 110.8344997 124.5979988
 123.9430012 110.8124997 123.9059988 123.3729161 110.4697722 124.4665956
 122.9450012  99.9344997 126.5179988 123.7570012 100.4394997 126.5639988
 122.7000012  99.7894997 127.4319988 123.0230520  99.9840375 126.6478517
 123.4800012 100.9204997 135.7019988 123.5990012 101.4944997 136.4599988
 124.1360012 100.2324997 135.8169988 123.5849025 100.9059858 135.8211321
 123.8280012  97.0154997 127.4559988 123.4820012  97.6334997 128.0999988
 124.4870012  97.5164997 126.9739988 123.8696968  97.1676278 127.4789383
 120.7520012 111.3814997 124.5269988 120.9120012 112.1804997 124.0269988
 120.5540012 111.6874997 125.4119988 120.7471637 111.5324020 124.5781144
 119.4860012  98.0784997 124.1429988 119.4030012  98.9674997 124.4899988
 120.3760012  97.8134997 124.3749988 119.5949469  98.1641430 124.2217626
 129.6850012  98.8274997 136.5369988 128.7680012  99.0904997 136.4499988
 130.0200012  98.8244997 135.6409988 129.6048613  98.8630761 136.4038837
 128.2870012 102.5784997 130.6329988 127.4890012 102.1634997 130.3049988
 128.7320012 101.8874997 131.1239988 128.2379885 102.4283543 130.6544889
 117.7450012 108.5064997 123.2039988 118.3370012 109.2054997 123.4799988
 118.2040012 108.0734997 122.4839988 117.8881142 108.5437049 123.1444830
 116.0610012 101.1704997 122.3199988 116.0160012 102.1094997 122.4979988
 115.1730012 100.9344997 122.0499988 115.9348574 101.2671892 122.3078912
 129.3730012 111.8344997 132.2559988 129.2180012 112.5124997 131.5979988
 130.3060012 111.9064997 132.4589988 129.4778657 111.9369546 132.1934360
 116.8690012  95.9524997 130.9929988 116.6400012  96.0114997 130.0649988
 116.4260012  95.1604997 131.2989988 116.7778530  95.8535753 130.9074786
 115.7990012 109.8924997 127.1529988 114.9670012 110.3654997 127.1799988
 116.3450012 110.4024997 126.5549988 115.7590352 110.0261332 127.0758463
 115.0870012 112.5054997 138.4829988 115.6280012 112.2884997 139.2429988
 114.6060012 111.6994997 138.2929988 115.0959951 112.3669270 138.5612576
 119.6850012 111.4244997 140.1029988 120.4520012 110.9654997 140.4439988
 119.6630012 111.1984997 139.1739988 119.7871275 111.3310186 140.0240101
 123.7770012 110.9324997 121.4789988 123.1330012 110.3014997 121.7999988
 124.5390012 110.4014997 121.2469988 123.7918077 110.7742920 121.4916011
 126.2620012 109.8044997 138.8329988 125.9110012 108.9484997 139.0759988
 126.9880012 109.9474997 139.4399988 126.3120769 109.7065636 138.9483619
 128.3810012 110.7494997 121.7119988 128.6640012 109.9554997 122.1649988
 129.1210012 110.9824997 121.1519988 128.5198006 110.6723376 121.6982715
 114.9940012 106.3154997 139.4369988 115.1380012 105.4134997 139.1509988
 114.2220012 106.6014997 138.9499988 114.9092753 106.2306816 139.3319505
 119.3360012 106.6594997 121.5699988 119.4000012 105.8654997 122.1009988
 119.9890012 106.5404997 120.8799988 119.4330241 106.5347148 121.5494317
 121.6500012 106.2854997 138.8699988 121.3210012 106.5564997 138.0129988
 121.8020012 105.3444997 138.7829988 121.6254809 106.1953862 138.7408244
 124.6880012 107.7064997 121.3059988 124.4190012 107.8864997 122.2069988
 124.4820012 106.7804997 121.1739988 124.6233427 107.6060261 121.4115073
 127.3840012 106.2014997 136.2529988 128.1300012 106.7894997 136.1339988
 126.6270012 106.7834997 136.3169988 127.3837820 106.3607143 136.2453590
 115.8270012 103.5154997 138.8569988 116.2350012 102.6584997 138.7359988
 115.5670012 103.5304997 139.7779988 115.8477568 103.4000807 138.9649588
 120.4850012 104.6314997 123.8759988 120.0250012 104.1474997 124.5619988
 120.7400012 103.9634997 123.2399988 120.4564902 104.4748731 123.8839334
 119.7740012 102.5244997 136.2319988 119.1560012 103.1994997 136.5119988
 120.1180012 102.8454997 135.3979988 119.7359132 102.6602411 136.1576262
 121.5560012 102.8744997 122.1379988 121.3760012 102.7204997 121.2109988
 122.5060012 102.9824997 122.1829988 121.6597776 102.8680175 122.0171843
 124.7940012 104.9964997 139.5089988 125.7470012 105.0794997 139.4819988
 124.6330012 104.2844997 140.1289988 124.9026426 104.9116746 139.5890579
 130.9460012 105.2294997 121.5839988 130.6720012 104.8044997 120.7709988
 130.9850012 106.1604997 121.3669988 130.9137699 105.2972484 121.4433610
 120.1130012  99.8794997 137.3139988 120.2630012  99.1504997 136.7119988
 120.1160012 100.6564997 136.7549988 120.1339302  99.8847851 137.1560692
 120.5260012  98.2494997 134.8069988 121.0620012  98.7004997 134.1549988
 119.6740012  98.1414997 134.3839988 120.4842178  98.2966390 134.6605756
 122.1080012 103.6884997 135.0459988 122.8580012 103.5324997 134.4729988
 121.7690012 104.5404997 134.7709988 122.1648921 103.7822968 134.9303561
 126.5230012 101.5034997 140.0749988 126.7160012 100.5724997 139.9629988
 127.3810012 101.9284997 140.0639988 126.6652934 101.4336531 140.0582031
 127.8400012 104.2924997 138.1519988 127.5590012 105.0014997 137.5739988
 128.7830012 104.2194997 138.0009988 127.9289291 104.3796711 138.0524967
 118.5920012 101.0774997 139.2259988 117.8250012 100.5454997 139.0149988
 119.2710012 100.7674997 138.6259988 118.5787877 100.9628300 139.1160716
 121.3320012  95.7054997 135.2379988 121.2330012  96.6524997 135.1329988
 120.5890012  95.3334997 134.7619988 121.2181184  95.7845863 135.1593621
 122.5960012 100.0274997 138.8019988 122.3600012  99.8074997 139.7029988
 121.8120012  99.8204997 138.2919988 122.4578504  99.9694586 138.8563431
 125.3110012  99.1544997 137.8769988 124.3640012  99.1864997 138.0099988
 125.6240012  98.5294997 138.5309988 125.2236707  99.0743998 137.9836060
 126.9450012  97.7884997 139.8829988 126.8490012  96.8364997 139.8769988
 126.6240012  98.0574997 140.7429988 126.8884070  97.6944035 139.9985441
 116.7720012  98.9984997 138.9299988 116.9840012  98.2914997 138.3199988
 116.6610012  98.5604997 139.7739988 116.7859721  98.8427084 138.9606843
 121.5530012  94.9994997 137.9089988 122.2650012  94.3594997 137.8949988
 121.4520012  95.2664997 136.9959988 121.6368066  94.9480079 137.7835677
 121.9070012  96.6824997 139.9629988 121.7750012  96.2064997 139.1429988
 121.3080012  97.4264997 139.9079988 121.8079071  96.7179618 139.8432886
 121.4530012 113.5654997 123.1389988 122.3860012 113.7234997 123.2829988
 121.1890012 114.2404997 122.5149988 121.5449888 113.6784510 123.0742842
 115.0220012 108.2014997 122.6219988 115.9360012 108.2804997 122.8959988
 115.0290012 107.5144997 121.9559988 115.1481131 108.1193961 122.5694393
 113.6710012 113.5944997 127.6999988 113.0240012 113.1324997 127.1669988
 114.0250012 112.9224997 128.2819988 113.6303849 113.4404723 127.7057959
 114.5410012 111.6754997 129.5039988 114.2060012 110.7954997 129.6759988
 114.7630012 112.0204997 130.3689988 114.5251783 111.6017500 129.6444208
 132.0890012 112.4844997 132.4849988 132.0680012 112.6694997 133.4239988
 132.7800012 113.0534997 132.1439988 132.1794618 112.5866606 132.5673864
 131.6530012 112.0524997 135.4069988 131.1650012 111.3164997 135.0349988
 132.2020012 111.6584997 136.0849988 131.6604820 111.8985889 135.4477813
 130.1030012 107.8414997 140.0449988 129.2370012 107.7364997 140.4389988
 130.4800012 108.6004997 140.4909988 130.0353308 107.9296900 140.1592393
 131.4040012 106.0984997 125.5589988 132.2540012 106.5194997 125.6859988
 131.4100012 105.3584997 126.1659988 131.5211372 106.0560803 125.6584344
 131.7990012 104.1514997 127.3819988 131.0720012 103.6724997 127.7799988
 132.3800012 104.3574997 128.1149988 131.7780473 104.1138103 127.5354528
 131.5580012 106.9364997 132.3299988 132.3910012 106.5584997 132.0499988
 131.6700012 107.8794997 132.2109988 131.6872647 107.0122218 132.2755487
 130.0440012 109.8144997 134.6369988 129.3970012 110.1394997 135.2629988
 129.5270012 109.3744997 133.9629988 129.8854029 109.7995004 134.6315827
 132.0670012 104.0524997 123.7739988 131.5450012 104.4094997 123.0549988
 132.0340012 104.7274997 124.4519988 131.9911634 104.1925413 123.7673145
 130.4160012 101.2924997 122.3239988 130.5120012 101.9594997 121.6439988
 130.2760012 100.4764997 121.8429988 130.4102272 101.2735655 122.1658347
 129.5850012 102.6724997 127.9449988 129.4350012 101.7274997 127.9249988
 129.2320012 102.9534997 128.7889988 129.5167448 102.5811481 128.0563705
 114.6210012 104.7504997 131.9559988 114.8050012 104.6684997 131.0199988
 115.4700012 104.6264997 132.3789988 114.7610151 104.7225073 131.8851451
 130.4420012 104.6424997 137.5839988 131.0250012 103.9084997 137.7759988
 131.0060012 105.4144997 137.6309988 130.5979769 104.6464227 137.6166159
 131.9380012 102.5454997 138.2689988 131.0750012 102.1664997 138.1029988
 132.5430012 101.8064997 138.1939988 131.9016119 102.3938268 138.2361528
 129.6630012  98.7004997 121.4419988 130.2740012  98.3294997 122.0789988
 128.8270012  98.2794997 121.6379988 129.6335032  98.5927554 121.5557035
 129.2960012 100.2554997 126.4079988 129.5760012  99.3484997 126.5319988
 130.0550012 100.6894997 126.0189988 129.4369277 100.1900942 126.3723682
 129.9080012 100.8364997 131.8439988 130.8410012 101.0484997 131.8089988
 129.6730012 100.9384997 132.7659988 130.0039244 100.8793100 131.9638892
 129.9370012 101.5734997 134.6199988 129.0940012 101.8414997 134.9859988
 130.3790012 102.3954997 134.4089988 129.8814158 101.7213291 134.6415491
 114.2180012 100.0214997 138.0969988 115.1380012  99.8994997 138.3329988
 113.7690012  99.2714997 138.4859988 114.2831580  99.9033727 138.1819006
 132.2200012  95.5534997 139.9729988 132.5700012  94.8994997 139.3679988
 132.3670012  96.3904997 139.5329988 132.2877887  95.5771548 139.8306858
 129.9090012  97.5184997 126.4559988 130.0920012  97.0694997 127.2819988
 129.3100012  96.9334997 125.9929988 129.8530202  97.3779975 126.5063275
 115.4390012  98.3334997 130.9879988 115.8850012  97.5414997 131.2899988
 115.9060012  99.0494997 131.4179988 115.5630831  98.3220685 131.0874006
 113.7430012 101.3324997 132.0569988 114.2350012 101.1114997 131.2659988
 114.1060012 102.1734997 132.3379988 113.8593126 101.4158357 131.9867531
 131.7400012  97.6624997 138.3219988 130.8220012  97.9334997 138.2869988
 131.8630012  97.1274997 137.5379988 131.6309729  97.6272508 138.2111923
 131.7760012  97.5854997 122.9839988 132.1880012  96.8644997 122.5089988
 132.4580012  98.2554997 123.0429988 131.9245885  97.5772368 122.9268915
 114.0570012  97.5904997 126.1109988 113.1320012  97.7994997 125.9819988
 114.5110012  98.0744997 125.4209988 113.9917292  97.6845343 126.0000720
 128.8280012 112.5744997 128.0569988 129.4800012 112.2274997 127.4489988
 129.3380012 113.0634997 128.7029988 128.9862637 112.5930597 128.0610236
 114.0210012  96.3284997 134.4549988 113.3560012  96.0824997 135.0989988
 113.5780012  96.9504997 133.8779988 113.8701318  96.3789410 134.4650898
 116.2130012 109.5034997 138.5999988 115.3920012 109.6784997 138.1389988
 115.9600012 109.4304997 139.5199988 116.0665585 109.5175544 138.6613561
 119.1670012 110.4784997 134.8579988 118.7420012 111.2874997 134.5759988
 120.0710012 110.5634997 134.5559988 119.2309975 110.6009300 134.7784816
 123.4780012 111.8774997 137.8179988 123.6630012 111.5434997 138.6959988
 124.3240012 112.1864997 137.4959988 123.6177539 111.8736047 137.8945605
 125.8230012 113.1634997 137.0619988 126.5000012 112.5304997 136.8219988
 126.1450012 113.5644997 137.8689988 125.9591637 113.1311154 137.1382793
 130.7400012  95.7524997 136.1409988 129.9280012  96.0774997 135.7539988
 130.9730012  94.9924997 135.6079988 130.6602203  95.6942758 136.0158880
 116.5690012 113.7344997 134.9059988 115.8480012 114.1744997 134.4549988
 116.2030012 113.4834997 135.7539988 116.4209651 113.7607242 134.9589640
 119.0360012 113.3344997 133.9359988 118.1710012 113.4064997 134.3399988
 118.9810012 113.8814997 133.1519988 118.9102085 113.4182685 133.8853362
 123.7460012 113.2224997 133.1109988 123.2900012 113.7514997 132.4569988
 123.9090012 113.8254997 133.8359988 123.7056068 113.3764607 133.1194838
 126.0740012 112.1004997 134.0559988 125.1690012 112.2654997 133.7899988
 126.5030012 112.9534997 133.9909988 126.0081324 112.2384339 134.0107976
 128.6780012 113.6704997 134.3509988 128.4960012 114.5864997 134.1409988
 128.8550012 113.2604997 133.5049988 128.6770210 113.7404822 134.2077885
 115.9830012 112.3574997 131.8159988 115.9650012 111.9324997 132.6729988
 116.7880012 112.0394997 131.4069988 116.0893529 112.2563013 131.8780946
 118.1250012 111.0674997 130.4709988 117.9060012 110.1514997 130.6409988
 118.9490012 111.2074997 130.9369988 118.2064420 110.9610520 130.5572774
 120.6620012 111.5374997 131.3199988 120.8750012 110.6494997 131.0329988
 120.7260012 111.5034997 132.2739988 120.6998231 111.4113102 131.4097397
 124.1700012  97.2014997 130.4639988 123.4960012  96.5724997 130.7199988
 124.7340012  96.7174997 129.8609988 124.1539230  97.0498744 130.4175340
 129.3130012  95.3094997 130.5769988 129.9170012  95.8564997 130.0749988
 128.4430012  95.6284997 130.3359988 129.2781208  95.4275137 130.4756886
 131.0400012  96.4474997 128.9099988 131.6520012  95.9334997 128.3829988
 131.4220012  97.3254997 128.9329988 131.1753371  96.4957866 128.8410041
 116.4970012  95.8354997 128.2859988 115.7200012  95.6014997 127.7789988
 117.0270012  95.0384997 128.2949988 116.4622330  95.6956988 128.2177742
 115.3330012  95.6334997 124.0899988 115.7720012  96.2444997 123.4979988
 114.7000012  96.1714997 124.5639988 115.3074514  95.7899257 124.0730930
 121.0760012  95.7624997 128.0999988 121.9510012  96.1504997 128.0699988
 120.9400012  95.5474997 129.0219988 121.1773695  95.7865184 128.2206440
 126.6330012  95.7924997 129.7489988 126.7090012  95.8874997 128.7989988
 126.3580012  94.8844997 129.8779988 126.6062321  95.6827867 129.6365079
 127.9860012  95.8184997 125.4409988 127.2840012  96.4334997 125.2309988
 127.5420012  94.9804997 125.5719988 127.8296450  95.7895639 125.4299000
 115.2340012 111.5814997 124.9869988 114.5490012 111.5434997 124.3199988
 115.2380012 112.4944997 125.2759988 115.1406998 111.6996733 124.9346771
 117.1940012  97.5494997 122.5319988 117.6860012  96.9194997 122.0049988
 117.8180012  97.8454997 123.1949988 117.3455688  97.5033804 122.5495482
 122.2200012  97.8424997 124.9889988 122.3980012  97.1964997 125.6719988
 122.1670012  98.6764997 125.4559988 122.2371999  97.8668009 125.1455917
 124.0990012 112.7914997 123.3849988 124.9650012 113.1574997 123.2069988
 123.8520012 112.3514997 122.5709988 124.1842392 112.7821756 123.2506289
 130.8080012 112.3544997 126.0639988 130.6130012 111.6064997 125.4989988
 130.7690012 113.1124997 125.4809988 130.7760380 112.3546099 125.9078384
 116.4550012  96.3494997 137.8039988 116.0890012  95.5844997 138.2459988
 117.3680012  96.3784997 138.0899988 116.5282736  96.2485640 137.9032502
 118.4280012  95.7004997 139.3399988 119.3260012  95.4264997 139.1549988
 118.0410012  94.9574997 139.8039988 118.4986612  95.5625914 139.3773643
 117.0520012 112.5014997 122.0129988 116.7850012 112.7884997 122.8859988
 117.8240012 111.9554997 122.1649988 117.1197488 112.4670294 122.1531050
 126.8490012  95.0324997 139.5219988 126.9260012  94.6064997 140.3759988
 127.7430012  95.0464997 139.1789988 126.9803428  94.9760879 139.5925310
 130.0250012 111.1054997 138.2139988 129.2430012 110.9194997 137.6939988
 129.9530012 112.0344997 138.4319988 129.9082274 111.2056643 138.1723018
 144.4310012 104.9914997 128.2449988 144.5200012 105.9354997 128.1129988
 143.7930012 104.7164997 127.5869988 144.3569081 105.0834830 128.1379614
 143.3640012 104.2464997 131.6639988 143.3260012 103.6004997 132.3689988
 143.0420012 103.7804997 130.8929988 143.3152333 104.0949408 131.6562978
 135.7330012 103.8614997 133.2569988 135.7740012 103.2354997 133.9799988
 136.4360012 104.4854997 133.4389988 135.8336363 103.8601196 133.3806044
 136.6560012 108.3114997 131.7919988 136.2870012 107.5094997 131.4219988
 137.5970012 108.1424997 131.8379988 136.7327289 108.1790153 131.7476316
 133.2660012 101.9714997 127.1849988 132.8190012 102.8174997 127.1659988
 132.7050012 101.3914997 126.6689988 133.1289900 102.0089916 127.1126801
 133.9770012 104.1334997 129.3099988 134.1900012 103.3634997 129.8379988
 134.7150012 104.2224997 128.7069988 134.1059044 104.0401968 129.3007123
 144.1820012 112.2904997 130.1769988 144.8020012 111.6134997 129.9039988
 143.9740012 112.0724997 131.0859988 144.2386726 112.1684800 130.2624812
 141.7540012 106.6794997 132.0699988 142.0580012 105.9934997 131.4749988
 142.4750012 106.7974997 132.6879988 141.8930671 106.6016304 132.0721816
 144.8950012 101.0734997 132.3969988 145.0370012 100.1274997 132.4179988
 144.7880012 101.2804997 131.4689988 144.8999919 100.9718246 132.2743408
 138.0490012  99.1744997 129.6699988 138.0930012 100.0344997 129.2509988
 137.5920012  98.6224997 129.0359988 137.9932240  99.2174422 129.5269864
 134.6700012 101.5714997 130.4319988 135.3230012 101.0214997 130.8639988
 134.6940012 101.2974997 129.5149988 134.7626683 101.4591466 130.3672123
 139.8260012 103.1214997 129.6469988 140.4420012 102.5954997 130.1569988
 139.2400012 102.4814997 129.2439988 139.8310810 102.9629208 129.6623173
 136.8600012  98.0924997 133.7439988 136.6410012  98.6224997 132.9779988
 136.1920012  98.3194997 134.3909988 136.7397600  98.1956906 133.7266379
 144.2290012 107.5924997 127.2879988 143.9330012 107.2704997 126.4369988
 143.9040012 108.4924997 127.3289988 144.1446371 107.6700215 127.1771801
 139.4290012 105.7684997 134.0309988 138.6890012 106.3664997 134.1349988
 140.1430012 106.3224997 133.7159988 139.4242237 105.9252831 134.0026465
 136.4530012  99.9844997 131.6959988 137.0670012 100.6174997 132.0689988
 136.9650012  99.5124997 131.0399988 136.6061981 100.0072267 131.6582908
 137.8360012 107.7324997 134.8179988 137.8310012 108.6124997 134.4399988
 136.9830012 107.6494997 135.2429988 137.7199464 107.8416117 134.8237907
 133.9570012 107.4034997 125.5999988 133.6850012 107.6324997 124.7119988
 134.0030012 108.2414997 126.0609988 133.9259482 107.5481318 125.5406273
 140.8860012  95.3984997 131.1959988 140.7690012  94.4494997 131.1419988
 140.0310012  95.7304997 131.4699988 140.7544212  95.3135571 131.2256497
 143.1530012 104.2354997 125.6969988 142.4410012 104.7704997 125.3449988
 143.8440012 104.2914997 125.0369988 143.1490132 104.3162543 125.5596289
 143.2060012 102.6934997 122.7359988 143.9070012 102.7154997 123.3869988
 143.5090012 102.0654997 122.0789988 143.3428133 102.6117070 122.7363369
 138.2040012 105.0754997 128.5309988 137.8730012 104.7054997 127.7129988
 138.7920012 104.4054997 128.8779988 138.2381873 104.9341156 128.4658102
 139.5700012 108.5034997 131.2119988 139.4760012 107.9254997 130.4559988
 140.3000012 108.1324997 131.7089988 139.6557387 108.3741663 131.1755342
 138.5700012 103.8444997 132.1649988 139.1360012 103.9654997 131.4019988
 138.8890012 104.4814997 132.8029988 138.6905474 103.9472219 132.1469862
 144.8790012 109.3474997 132.8989988 144.6390012 110.0094997 133.5469988
 144.6810012 108.5134997 133.3239988 144.8193808 109.3253134 133.0451524
 139.4500012 108.2434997 136.8819988 139.1390012 109.0254997 137.3369988
 138.8000012 108.0904997 136.1959988 139.3195558 108.3299105 136.8515871
 136.3700012 104.4414997 136.1099988 136.4410012 105.0924997 136.8089988
 135.4800012 104.5444997 135.7749988 136.2593005 104.5445427 136.1603495
 143.1560012 110.3444997 127.7689988 143.6300012 110.6394997 128.5459988
 142.5930012 111.0824997 127.5359988 143.1448184 110.4847247 127.8439628
 137.6900012 110.3154997 137.6449988 137.6970012 110.1794997 136.6979988
 136.7740012 110.1974997 137.8969988 137.5671714 110.2809430 137.5494666
 137.1940012 104.1454997 126.1199988 136.9020012 104.9134997 125.6299988
 136.5200012 103.4854997 125.9579988 137.0628111 104.1615587 126.0308978
 133.2870012 106.5084997 134.9349988 132.7860012 106.4804997 134.1199988
 133.2920012 105.6024997 135.2449988 133.2190944 106.3822396 134.8653226
 133.0370012 109.2884997 131.8189988 133.9830012 109.1444997 131.7999988
 132.9250012 110.0724997 132.3559988 133.1512727 109.3748046 131.8890072
 142.2140012 109.5284997 136.3779988 142.3010012 110.3544997 136.8529988
 141.3500012 109.1984997 136.6269988 142.1091964 109.5969878 136.4766549
 142.6280012 113.3004997 126.1839988 142.5530012 113.1794997 125.2369988
 142.6610012 114.2504997 126.3019988 142.6222068 113.4122646 126.0704967
 136.2810012 112.0894997 127.9649988 136.4340012 111.7414997 128.8429988
 135.4310012 111.7334997 127.7099988 136.1869166 111.9936216 128.0508079
 135.5360012 107.8314997 135.9789988 135.7520012 107.4704997 136.8379988
 134.6810012 107.4574997 135.7689988 135.4499292 107.7314111 136.0683386
 138.1550012  96.3014997 131.9739988 137.2930012  96.2144997 131.5659988
 138.1320012  97.1574997 132.4019988 138.0340409  96.4052883 131.9760589
 142.8180012  96.0234997 135.3489988 143.2380012  95.6084997 136.1019988
 141.8850012  95.8454997 135.4659988 142.7493644  95.9425900 135.4679539
 142.4790012  98.5164997 122.6339988 142.2260012  98.5354997 123.5569988
 142.2230012  97.6444997 122.3319988 142.4097481  98.4012558 122.7196175
 138.2460012 101.2674997 133.0689988 137.6040012 101.2264997 133.7779988
 138.2830012 102.1934997 132.8309988 138.1630664 101.3871430 133.1339219
 138.2430012 101.4884997 127.9809988 137.3500012 101.1474997 127.9219988
 138.6930012 101.1114997 127.2249988 138.1818130 101.3909631 127.8707702
 143.7780012 101.9044997 126.7979988 143.3690012 102.7194997 126.5069988
 144.4990012 101.7644997 126.1839988 143.8194537 101.9972018 126.6751342
 142.8800012 102.0794997 138.2859988 142.3180012 101.3754997 138.6069988
 143.7070012 101.9594997 138.7539988 142.9147095 101.9667883 138.3932330
 144.7830012 101.3504997 129.6119988 144.5880012 101.9554997 128.8969988
 144.9640012 100.5164997 129.1779988 144.7807614 101.3206300 129.4554405
 135.9960012 101.5874997 134.9359988 135.9580012 101.9874997 135.8049988
 135.5050012 100.7704997 135.0269988 135.9244684 101.5318069 135.0671059
 139.3620012  98.9614997 121.7349988 138.9310012  98.5164997 122.4649988
 138.6440012  99.3334997 121.2229988 139.2059438  98.9508940 121.7656799
 132.6040012  98.7034997 128.7869988 133.2350012  98.6744997 129.5059988
 133.0530012  98.2784997 128.0559988 132.7510918  98.6420836 128.7866441
 133.8780012  99.4494997 124.2109988 134.3520012 100.0404997 123.6259988
 133.1610012  99.9804997 124.5579988 133.8459341  99.6020867 124.1778836
 144.0470012 102.9884997 134.2829988 144.3700012 102.3574997 133.6399988
 143.6070012 102.4534997 134.9439988 144.0317484 102.8298387 134.2843198
 140.8240012  98.9154997 129.0669988 139.9130012  98.9724997 129.3559988
 141.3300012  98.8554997 129.8779988 140.7676899  98.9151941 129.2161184
 135.6530012 100.5444997 127.8939988 134.7630012 100.6444997 127.5539988
 135.9490012  99.7024997 127.5479988 135.5712823 100.4443546 127.8007213
 139.3060012 100.5444997 125.5509988 140.2370012 100.6734997 125.7289988
 139.0910012 101.2144997 124.9009988 139.4044247 100.6526565 125.4875747
 137.9800012 101.7394997 123.1169988 137.4370012 101.3594997 122.4259988
 138.8130012 101.9334997 122.6889988 138.0183631 101.7137125 122.9644501
 136.1150012 106.2964997 138.2159988 136.8470012 106.5504997 138.7779988
 135.3350012 106.5004997 138.7319988 136.1097073 106.3588160 138.3626151
 142.1440012 101.7034997 130.9539988 142.7090012 101.1564997 130.4069988
 141.9970012 101.1814997 131.7429988 142.2013380 101.5582259 130.9858695
 137.1460012  97.8394997 127.3729988 136.8290012  96.9374997 127.3369988
 137.9280012  97.8414997 126.8199988 137.2082408  97.7162474 127.2933569
 140.7710012 100.0914997 133.3679988 139.9350012 100.5454997 133.4789988
 141.2950012 100.3674997 134.1199988 140.7275416 100.1908660 133.4848119
 141.3150012 106.3044997 125.0529988 140.5700012 105.7974997 124.7309988
 141.1810012 106.3534997 125.9999988 141.1948776 106.2416940 125.1368647
 142.8340012 106.4884997 136.2899988 142.4890012 106.1074997 137.0969988
 142.6340012 107.4224997 136.3609988 142.7597527 106.5625135 136.4100689
 136.4400012 105.5994997 130.8229988 137.1850012 105.5974997 130.2219988
 136.5180012 104.7764997 131.3039988 136.5524995 105.4878887 130.8058282
 143.4410012 107.7634997 124.0789988 143.1450012 108.5894997 124.4599988
 142.7380012 107.1434997 124.2749988 143.3054914 107.7928199 124.1576443
 133.4480012 104.0604997 136.1379988 133.6710012 103.6424997 136.9699988
 132.8460012 103.4474997 135.7149988 133.3971759 103.9204668 136.1947022
 140.4640012 103.5774997 138.3509988 140.1680012 103.4114997 137.4559988
 141.3960012 103.3574997 138.3399988 140.5494166 103.5250640 138.2270536
 138.8150012 109.1174997 128.2269988 139.3420012 109.8904997 128.0269988
 137.9350012 109.3424997 127.9249988 138.7682031 109.2537545 128.1587912
 134.5700012 103.9794997 122.8139988 135.1860012 104.6064997 123.1939988
 133.7080012 104.2954997 123.0859988 134.5377698 104.1079430 122.9027183
 140.2420012 106.7804997 127.8029988 140.0010012 107.7054997 127.8449988
 139.5010012 106.3214997 128.1999988 140.1089225 106.8450933 127.8623742
 140.7570012 110.9294997 134.1189988 141.1190012 111.7844997 133.8849988
 141.2880012 110.6374997 134.8589988 140.8784473 111.0071060 134.1870855
 138.9250012 111.8024997 127.3489988 137.9750012 111.9074997 127.3999988
 139.2770012 112.6224997 127.6929988 138.8424195 111.9278800 127.4025502
 144.3010012 107.0284997 133.8189988 143.8750012 106.8014997 134.6459988
 144.8810012 106.2904997 133.6369988 144.3211868 106.8975299 133.9075830
 135.0820012  98.8134997 135.6959988 134.1890012  99.1524997 135.6279988
 134.9830012  97.9584997 136.1139988 134.9464164  98.7442588 135.7432235
 134.7330012 110.6184997 134.1309988 134.9500012 109.6864997 134.0999988
 134.9790012 110.8924997 135.0139988 134.7959549 110.5280636 134.2461763
 140.5950012 109.0694997 121.3399988 140.8340012 108.3214997 120.7929988
 140.3260012 108.6814997 122.1729988 140.5913675 108.9146638 121.3776865
 139.5320012 108.6394997 123.7959988 139.6780012 108.1194997 124.5859988
 139.5290012 109.5464997 124.1029988 139.5515792 108.6908842 123.9456117
 135.9850012 105.8924997 124.3069988 135.2990012 106.2444997 124.8739988
 136.5070012 106.6554997 124.0599988 135.9616852 106.0438578 124.3512118
 143.8160012  98.5544997 134.5859988 144.5150012  98.6284997 135.2359988
 143.4350012  97.6904997 134.7399988 143.8601767  98.4477624 134.6958322
 144.6010012  98.2064997 125.6829988 144.8210012  98.6784997 124.8799988
 145.1590012  98.6014997 126.3529988 144.7064968  98.3244285 125.6637331
 142.2690012 110.3374997 124.5459988 141.4530012 110.8344997 124.5979988
 142.7990012 110.8124997 123.9059988 142.2289161 110.4697722 124.4665956
 141.8010012  99.9344997 126.5179988 142.6130012 100.4394997 126.5639988
 141.5560012  99.7894997 127.4319988 141.8790520  99.9840375 126.6478517
 142.3360012 100.9204997 135.7019988 142.4550012 101.4944997 136.4599988
 142.9920012 100.2324997 135.8169988 142.4409025 100.9059858 135.8211321
 142.6840012  97.0154997 127.4559988 142.3380012  97.6334997 128.0999988
 143.3430012  97.5164997 126.9739988 142.7256968  97.1676278 127.4789383
 139.6080012 111.3814997 124.5269988 139.7680012 112.1804997 124.0269988
 139.4100012 111.6874997 125.4119988 139.6031637 111.5324020 124.5781144
 138.3420012  98.0784997 124.1429988 138.2590012  98.9674997 124.4899988
 139.2320012  97.8134997 124.3749988 138.4509469  98.1641430 124.2217626
 136.6010012 108.5064997 123.2039988 137.1930012 109.2054997 123.4799988
 137.0600012 108.0734997 122.4839988 136.7441142 108.5437049 123.1444830
 134.9170012 101.1704997 122.3199988 134.8720012 102.1094997 122.4979988
 134.0290012 100.9344997 122.0499988 134.7908574 101.2671892 122.3078912
 135.7250012  95.9524997 130.9929988 135.4960012  96.0114997 130.0649988
 135.2820012  95.1604997 131.2989988 135.6338530  95.8535753 130.9074786
 134.6550012 109.8924997 127.1529988 133.8230012 110.3654997 127.1799988
 135.2010012 110.4024997 126.5549988 134.6150352 110.0261332 127.0758463
 133.9430012 112.5054997 138.4829988 134.4840012 112.2884997 139.2429988
 133.4620012 111.6994997 138.2929988 133.9519951 112.3669270 138.5612576
 138.5410012 111.4244997 140.1029988 139.3080012 110.9654997 140.4439988
 138.5190012 111.1984997 139.1739988 138.6431275 111.3310186 140.0240101
 142.6330012 110.9324997 121.4789988 141.9890012 110.3014997 121.7999988
 143.3950012 110.4014997 121.2469988 142.6478077 110.7742920 121.4916011
 133.8500012 106.3154997 139.4369988 133.9940012 105.4134997 139.1509988
 133.0780012 106.6014997 138.9499988 133.7652753 106.2306816 139.3319505
 138.1920012 106.6594997 121.5699988 138.2560012 105.8654997 122.1009988
 138.8450012 106.5404997 120.8799988 138.2890241 106.5347148 121.5494317
 140.5060012 106.2854997 138.8699988 140.1770012 106.5564997 138.0129988
 140.6580012 105.3444997 138.7829988 140.4814809 106.1953862 138.7408244
 143.5440012 107.7064997 121.3059988 143.2750012 107.8864997 122.2069988
 143.3380012 106.7804997 121.1739988 143.4793427 107.6060261 121.4115073
 134.6830012 103.5154997 138.8569988 135.0910012 102.6584997 138.7359988
 134.4230012 103.5304997 139.7779988 134.7037568 103.4000807 138.9649588
 139.3410012 104.6314997 123.8759988 138.8810012 104.1474997 124.5619988
 139.5960012 103.9634997 123.2399988 139.3124902 104.4748731 123.8839334
 138.6300012 102.5244997 136.2319988 138.0120012 103.1994997 136.5119988
 138.9740012 102.8454997 135.3979988 138.5919132 102.6602411 136.1576262
 140.4120012 102.8744997 122.1379988 140.2320012 102.7204997 121.2109988
 141.3620012 102.9824997 122.1829988 140.5157776 102.8680175 122.0171843
 143.6500012 104.9964997 139.5089988 144.6030012 105.0794997 139.4819988
 143.4890012 104.2844997 140.1289988 143.7586426 104.9116746 139.5890579
 138.9690012  99.8794997 137.3139988 139.1190012  99.1504997 136.7119988
 138.9720012 100.6564997 136.7549988 138.9899302  99.8847851 137.1560692
 139.3820012  98.2494997 134.8069988 139.9180012  98.7004997 134.1549988
 138.5300012  98.1414997 134.3839988 139.3402178  98.2966390 134.6605756
 140.9640012 103.6884997 135.0459988 141.7140012 103.5324997 134.4729988
 140.6250012 104.5404997 134.7709988 141.0208921 103.7822968 134.9303561
 137.4480012 101.0774997 139.2259988 136.6810012 100.5454997 139.0149988
 138.1270012 100.7674997 138.6259988 137.4347877 100.9628300 139.1160716
 140.1880012  95.7054997 135.2379988 140.0890012  96.6524997 135.1329988
 139.4450012  95.3334997 134.7619988 140.0741184  95.7845863 135.1593621
 141.4520012 100.0274997 138.8019988 141.2160012  99.8074997 139.7029988
 140.6680012  99.8204997 138.2919988 141.3138504  99.9694586 138.8563431
 144.1670012  99.1544997 137.8769988 143.2200012  99.1864997 138.0099988
 144.4800012  98.5294997 138.5309988 144.0796707  99.0743998 137.9836060
 135.6280012  98.9984997 138.9299988 135.8400012  98.2914997 138.3199988
 135.5170012  98.5604997 139.7739988 135.6419721  98.8427084 138.9606843
 140.4090012  94.9994997 137.9089988 141.1210012  94.3594997 137.8949988
 140.3080012  95.2664997 136.9959988 140.4928066  94.9480079 137.7835677
 140.7630012  96.6824997 139.9629988 140.6310012  96.2064997 139.1429988
 140.1640012  97.4264997 139.9079988 140.6639071  96.7179618 139.8432886
 140.3090012 113.5654997 123.1389988 141.2420012 113.7234997 123.2829988
 140.0450012 114.2404997 122.5149988 140.4009888 113.6784510 123.0742842
 133.8780012 108.2014997 122.6219988 134.7920012 108.2804997 122.8959988
 133.8850012 107.5144997 121.9559988 134.0041131 108.1193961 122.5694393
 132.5270012 113.5944997 127.6999988 131.8800012 113.1324997 127.1669988
 132.8810012 112.9224997 128.2819988 132.4863849 113.4404723 127.7057959
 133.3970012 111.6754997 129.5039988 133.0620012 110.7954997 129.6759988
 133.6190012 112.0204997 130.3689988 133.3811783 111.6017500 129.6444208
 133.4770012 104.7504997 131.9559988 133.6610012 104.6684997 131.0199988
 134.3260012 104.6264997 132.3789988 133.6170151 104.7225073 131.8851451
 133.0740012 100.0214997 138.0969988 133.9940012  99.8994997 138.3329988
 132.6250012  99.2714997 138.4859988 133.1391580  99.9033727 138.1819006
 134.2950012  98.3334997 130.9879988 134.7410012  97.5414997 131.2899988
 134.7620012  99.0494997 131.4179988 134.4190831  98.3220685 131.0874006
 132.5990012 101.3324997 132.0569988 133.0910012 101.1114997 131.2659988
 132.9620012 102.1734997 132.3379988 132.7153126 101.4158357 131.9867531
 132.9130012  97.5904997 126.1109988 131.9880012  97.7994997 125.9819988
 133.3670012  98.0744997 125.4209988 132.8477292  97.6845343 126.0000720
 132.8770012  96.3284997 134.4549988 132.2120012  96.0824997 135.0989988
 132.4340012  96.9504997 133.8779988 132.7261318  96.3789410 134.4650898
 135.0690012 109.5034997 138.5999988 134.2480012 109.6784997 138.1389988
 134.8160012 109.4304997 139.5199988 134.9225585 109.5175544 138.6613561
 138.0230012 110.4784997 134.8579988 137.5980012 111.2874997 134.5759988
 138.9270012 110.5634997 134.5559988 138.0869975 110.6009300 134.7784816
 142.3340012 111.8774997 137.8179988 142.5190012 111.5434997 138.6959988
 143.1800012 112.1864997 137.4959988 142.4737539 111.8736047 137.8945605
 144.6790012 113.1634997 137.0619988 145.3560012 112.5304997 136.8219988
 145.0010012 113.5644997 137.8689988 144.8151637 113.1311154 137.1382793
 135.4250012 113.7344997 134.9059988 134.7040012 114.1744997 134.4549988
 135.0590012 113.4834997 135.7539988 135.2769651 113.7607242 134.9589640
 137.8920012 113.3344997 133.9359988 137.0270012 113.4064997 134.3399988
 137.8370012 113.8814997 133.1519988 137.7662085 113.4182685 133.8853362
 142.6020012 113.2224997 133.1109988 142.1460012 113.7514997 132.4569988
 142.7650012 113.8254997 133.8359988 142.5616068 113.3764607 133.1194838
 134.8390012 112.3574997 131.8159988 134.8210012 111.9324997 132.6729988
 135.6440012 112.0394997 131.4069988 134.9453529 112.2563013 131.8780946
 136.9810012 111.0674997 130.4709988 136.7620012 110.1514997 130.6409988
 137.8050012 111.2074997 130.9369988 137.0624420 110.9610520 130.5572774
 139.5180012 111.5374997 131.3199988 139.7310012 110.6494997 131.0329988
 139.5820012 111.5034997 132.2739988 139.5558232 111.4113102 131.4097397
 143.0260012  97.2014997 130.4639988 142.3520012  96.5724997 130.7199988
 143.5900012  96.7174997 129.8609988 143.0099230  97.0498744 130.4175340
 135.3530012  95.8354997 128.2859988 134.5760012  95.6014997 127.7789988
 135.8830012  95.0384997 128.2949988 135.3182330  95.6956988 128.2177742
 134.1890012  95.6334997 124.0899988 134.6280012  96.2444997 123.4979988
 133.5560012  96.1714997 124.5639988 134.1634514  95.7899257 124.0730930
 139.9320012  95.7624997 128.0999988 140.8070012  96.1504997 128.0699988
 139.7960012  95.5474997 129.0219988 140.0333695  95.7865184 128.2206440
 134.0900012 111.5814997 124.9869988 133.4050012 111.5434997 124.3199988
 134.0940012 112.4944997 125.2759988 133.9966998 111.6996733 124.9346771
 136.0500012  97.5494997 122.5319988 136.5420012  96.9194997 122.0049988
 136.6740012  97.8454997 123.1949988 136.2015688  97.5033804 122.5495482
 141.0760012  97.8424997 124.9889988 141.2540012  97.1964997 125.6719988
 141.0230012  98.6764997 125.4559988 141.0931999  97.8668009 125.1455917
 142.9550012 112.7914997 123.3849988 143.8210012 113.1574997 123.2069988
 142.7080012 112.3514997 122.5709988 143.0402392 112.7821756 123.2506289
 135.3110012  96.3494997 137.8039988 134.9450012  95.5844997 138.2459988
 136.2240012  96.3784997 138.0899988 135.3842736  96.2485640 137.9032502
 137.2840012  95.7004997 139.3399988 138.1820012  95.4264997 139.1549988
 136.8970012  94.9574997 139.8039988 137.3546612  95.5625914 139.3773643
 135.9080012 112.5014997 122.0129988 135.6410012 112.7884997 122.8859988
 136.6800012 111.9554997 122.1649988 135.9757488 112.4670294 122.1531050
  12.4390012 123.8474997 128.2449988  12.5280012 124.7914997 128.1129988
  11.8010012 123.5724997 127.5869988  12.3649081 123.9394830 128.1379614
  11.3720012 123.1024997 131.6639988  11.3340012 122.4564997 132.3689988
  11.0500012 122.6364997 130.8929988  11.3232333 122.9509408 131.6562978
   3.7410012 122.7174997 133.2569988   3.7820012 122.0914997 133.9799988
   4.4440012 123.3414997 133.4389988   3.8416363 122.7161196 133.3806044
  15.0780012 126.0414997 129.9649988  14.6380012 125.3214997 130.4159988
  15.0650012 126.7624997 130.5949988  15.0160226 126.0403731 130.1118494
   4.6640012 127.1674997 131.7919988   4.2950012 126.3654997 131.4219988
   5.6050012 126.9984997 131.8379988   4.7407289 127.0350153 131.7476316
   1.2740012 120.8274997 127.1849988   0.8270012 121.6734997 127.1659988
   0.7130012 120.2474997 126.6689988   1.1369900 120.8649916 127.1126801
   1.9850012 122.9894997 129.3099988   2.1980012 122.2194997 129.8379988
   2.7230012 123.0784997 128.7069988   2.1139044 122.8961968 129.3007123
  12.1900012 131.1464997 130.1769988  12.8100012 130.4694997 129.9039988
  11.9820012 130.9284997 131.0859988  12.2466726 131.0244800 130.2624812
   9.7620012 125.5354997 132.0699988  10.0660012 124.8494997 131.4749988
  10.4830012 125.6534997 132.6879988   9.9010671 125.4576304 132.0721816
  18.4250012 117.1364997 132.9309988  18.4740012 117.7464997 133.6659988
  18.8500012 117.5974997 132.2079988  18.4891746 117.2823796 132.9339175
  12.9030012 119.9294997 132.3969988  13.0450012 118.9834997 132.4179988
  12.7960012 120.1364997 131.4689988  12.9079919 119.8278246 132.2743408
   6.0570012 118.0304997 129.6699988   6.1010012 118.8904997 129.2509988
   5.6000012 117.4784997 129.0359988   6.0012240 118.0734422 129.5269864
  13.7800012 118.1614997 128.0709988  14.4260012 117.8324997 128.6949988
  14.2900012 118.6794997 127.4479988  13.9374299 118.1864450 128.0722731
   2.6780012 120.4274997 130.4319988   3.3310012 119.8774997 130.8639988
   2.7020012 120.1534997 129.5149988   2.7706683 120.3151466 130.3672123
   7.8340012 121.9774997 129.6469988   8.4500012 121.4514997 130.1569988
   7.2480012 121.3374997 129.2439988   7.8390810 121.8189208 129.6623173
  18.8160012 118.6144997 135.1659988  18.1280012 119.2724997 135.0709988
  18.8320012 118.4174997 136.1029988  18.7239540 118.6779819 135.2795990
   4.8680012 116.9484997 133.7439988   4.6490012 117.4784997 132.9779988
   4.2000012 117.1754997 134.3909988   4.7477600 117.0516906 133.7266379
  12.2370012 126.4484997 127.2879988  11.9410012 126.1264997 126.4369988
  11.9120012 127.3484997 127.3289988  12.1526371 126.5260215 127.1771801
   7.4370012 124.6244997 134.0309988   6.6970012 125.2224997 134.1349988
   8.1510012 125.1784997 133.7159988   7.4322237 124.7812831 134.0026465
  15.5440012 117.4524997 130.0509988  15.3280012 116.6864997 130.5839988
  16.1990012 117.9244997 130.5639988  15.6030632 117.4115889 130.1932861
   4.4610012 118.8404997 131.6959988   5.0750012 119.4734997 132.0689988
   4.9730012 118.3684997 131.0399988   4.6141981 118.8632267 131.6582908
   5.8440012 126.5884997 134.8179988   5.8390012 127.4684997 134.4399988
   4.9910012 126.5054997 135.2429988   5.7279464 126.6976117 134.8237907
   1.9650012 126.2594997 125.5999988   1.6930012 126.4884997 124.7119988
   2.0110012 127.0974997 126.0609988   1.9339482 126.4041318 125.5406273
  15.5900012 127.8814997 132.3129988  14.6490012 127.9394997 132.4749988
  15.8670012 128.7874997 132.1759988  15.4984679 128.0119443 132.3166815
  15.8910012 116.1674997 133.7309988  15.1550012 116.7784997 133.6929988
  16.5740012 116.5824997 133.2039988  15.8826541 116.3071374 133.6545832
   8.8940012 114.2544997 131.1959988   8.7770012 113.3054997 131.1419988
   8.0390012 114.5864997 131.4699988   8.7624212 114.1695571 131.2256497
  13.8420012 129.6624997 128.9379988  14.2680012 128.9554997 128.4529988
  14.1590012 130.4634997 128.5219988  13.9431683 129.6741017 128.8153680
  15.0020012 127.5634997 127.4469988  14.7440012 126.8734997 126.8359988
  15.0730012 127.1204997 128.2929988  14.9762856 127.4092124 127.4776885
  16.6880012 126.1294997 135.9239988  16.8280012 125.5384997 135.1849988
  16.8550012 127.0024997 135.5679988  16.7297411 126.1665428 135.7746894
  11.1610012 123.0914997 125.6969988  10.4490012 123.6264997 125.3449988
  11.8520012 123.1474997 125.0369988  11.1570132 123.1722543 125.5596289
  11.2140012 121.5494997 122.7359988  11.9150012 121.5714997 123.3869988
  11.5170012 120.9214997 122.0789988  11.3508133 121.4677070 122.7363369
  18.5300012 122.4694997 133.9899988  17.8770012 123.1644997 134.0799988
  18.9950012 122.6794997 133.1809988  18.5035274 122.5930643 133.8928462
  14.5660012 123.3014997 126.6489988  13.8340012 123.5294997 127.2219988
  15.0140012 122.5874997 127.1029988  14.5262725 123.2362145 126.7888816
  14.4640012 121.4754997 135.7159988  14.5440012 122.2384997 136.2879988
  13.8620012 121.7544997 135.0259988  14.3935756 121.6177134 135.7010589
   6.2120012 123.9314997 128.5309988   5.8810012 123.5614997 127.7129988
   6.8000012 123.2614997 128.8779988   6.2461873 123.7901156 128.4658102
   7.5780012 127.3594997 131.2119988   7.4840012 126.7814997 130.4559988
   8.3080012 126.9884997 131.7089988   7.6637387 127.2301663 131.1755342
   6.5780012 122.7004997 132.1649988   7.1440012 122.8214997 131.4019988
   6.8970012 123.3374997 132.8029988   6.6985474 122.8032219 132.1469862
  12.8870012 128.2034997 132.8989988  12.6470012 128.8654997 133.5469988
  12.6890012 127.3694997 133.3239988  12.8273808 128.1813134 133.0451524
   7.4580012 127.0994997 136.8819988   7.1470012 127.8814997 137.3369988
   6.8080012 126.9464997 136.1959988   7.3275558 127.1859105 136.8515871
  13.4370012 122.4634997 124.3339988  14.0170012 122.6134997 125.0809988
  13.8510012 122.9344997 123.6099988  13.5722997 122.5476578 124.3384058
   4.3780012 123.2974997 136.1099988   4.4490012 123.9484997 136.8089988
   3.4880012 123.4004997 135.7749988   4.2673005 123.4005427 136.1603495
  11.1640012 129.2004997 127.7689988  11.6380012 129.4954997 128.5459988
  10.6010012 129.9384997 127.5359988  11.1528184 129.3407247 127.8439628
   5.6980012 129.1714997 137.6449988   5.7050012 129.0354997 136.6979988
   4.7820012 129.0534997 137.8969988   5.5751714 129.1369430 137.5494666
  17.1360012 114.2134997 124.1469988  16.2360012 114.3524997 124.4419988
  17.3880012 115.0444997 123.7449988  17.0468702 114.3449074 124.1330205
   5.2020012 123.0014997 126.1199988   4.9100012 123.7694997 125.6299988
   4.5280012 122.3414997 125.9579988   5.0708111 123.0175587 126.0308978
  18.3250012 128.5794997 122.5229988  18.3990012 129.5184997 122.6939988
  19.2310012 128.2744997 122.4669988  18.4575100 128.6666722 122.5388119
   1.2950012 125.3644997 134.9349988   0.7940012 125.3364997 134.1199988
   1.3000012 124.4584997 135.2449988   1.2270944 125.2382396 134.8653226
   1.0450012 128.1444997 131.8189988   1.9910012 128.0004997 131.7999988
   0.9330012 128.9284997 132.3559988   1.1592727 128.2308046 131.8890072
  19.2430012 128.8104997 137.5019988  19.1940012 127.8554997 137.4649988
  18.4160012 129.0784997 137.9029988  19.1244940 128.7158998 137.5511375
  10.2220012 128.3844997 136.3779988  10.3090012 129.2104997 136.8529988
   9.3580012 128.0544997 136.6269988  10.1171964 128.4529878 136.4766549
  10.6360012 132.1564997 126.1839988  10.5610012 132.0354997 125.2369988
  10.6690012 133.1064997 126.3019988  10.6302068 132.2682646 126.0704967
   4.2890012 130.9454997 127.9649988   4.4420012 130.5974997 128.8429988
   3.4390012 130.5894997 127.7099988   4.1949166 130.8496216 128.0508079
  13.7380012 131.3104997 123.1859988  14.1130012 130.5664997 122.7149988
  13.7420012 131.0404997 124.1049988  13.7899125 131.1720986 123.2456483
  13.4070012 131.2364997 125.9349988  12.4710012 131.3364997 126.1139988
  13.6870012 130.5274997 126.5139988  13.3169553 131.1543406 126.0377087
  16.3950012 120.3034997 137.9819988  15.9880012 120.7844997 137.2609988
  16.4360012 119.3984997 137.6739988  16.3448437 120.2469374 137.8416683
   3.5440012 126.6874997 135.9789988   3.7600012 126.3264997 136.8379988
   2.6890012 126.3134997 135.7689988   3.4579292 126.5874111 136.0683386
   6.1630012 115.1574997 131.9739988   5.3010012 115.0704997 131.5659988
   6.1400012 116.0134997 132.4019988   6.0420409 115.2612883 131.9760589
  10.8260012 114.8794997 135.3489988  11.2460012 114.4644997 136.1019988
   9.8930012 114.7014997 135.4659988  10.7573644 114.7985900 135.4679539
  14.1520012 118.6354997 136.2019988  13.6380012 118.5094997 136.9999988
  13.9970012 119.5474997 135.9579988  14.0606852 118.7416132 136.2782158
  14.9150012 123.4964997 121.9639988  14.9570012 123.2734997 121.0339988
  15.7640012 123.8954997 122.1529988  15.0355280 123.5199438 121.8623554
  10.4870012 117.3724997 122.6339988  10.2340012 117.3914997 123.5569988
  10.2310012 116.5004997 122.3319988  10.4177481 117.2572558 122.7196175
   6.2540012 120.1234997 133.0689988   5.6120012 120.0824997 133.7779988
   6.2910012 121.0494997 132.8309988   6.1710664 120.2431430 133.1339219
   6.2510012 120.3444997 127.9809988   5.3580012 120.0034997 127.9219988
   6.7010012 119.9674997 127.2249988   6.1898130 120.2469631 127.8707702
  11.7860012 120.7604997 126.7979988  11.3770012 121.5754997 126.5069988
  12.5070012 120.6204997 126.1839988  11.8274537 120.8532018 126.6751342
  10.8880012 120.9354997 138.2859988  10.3260012 120.2314997 138.6069988
  11.7150012 120.8154997 138.7539988  10.9227095 120.8227883 138.3932330
  12.7910012 120.2064997 129.6119988  12.5960012 120.8114997 128.8969988
  12.9720012 119.3724997 129.1779988  12.7887614 120.1766300 129.4554405
   4.0040012 120.4434997 134.9359988   3.9660012 120.8434997 135.8049988
   3.5130012 119.6264997 135.0269988   3.9324684 120.3878069 135.0671059
   7.3700012 117.8174997 121.7349988   6.9390012 117.3724997 122.4649988
   6.6520012 118.1894997 121.2229988   7.2139438 117.8068940 121.7656799
   0.6120012 117.5594997 128.7869988   1.2430012 117.5304997 129.5059988
   1.0610012 117.1344997 128.0559988   0.7590918 117.4980836 128.7866441
   1.8860012 118.3054997 124.2109988   2.3600012 118.8964997 123.6259988
   1.1690012 118.8364997 124.5579988   1.8539341 118.4580867 124.1778836
  12.0550012 121.8444997 134.2829988  12.3780012 121.2134997 133.6399988
  11.6150012 121.3094997 134.9439988  12.0397484 121.6858387 134.2843198
   8.8320012 117.7714997 129.0669988   7.9210012 117.8284997 129.3559988
   9.3380012 117.7114997 129.8779988   8.7756899 117.7711941 129.2161184
   3.6610012 119.4004997 127.8939988   2.7710012 119.5004997 127.5539988
   3.9570012 118.5584997 127.5479988   3.5792823 119.3003545 127.8007213
   7.3140012 119.4004997 125.5509988   8.2450012 119.5294997 125.7289988
   7.0990012 120.0704997 124.9009988   7.4124247 119.5086565 125.4875747
  13.2370012 117.0064997 132.3319988  12.5610012 117.1374997 132.9959988
  12.7520012 116.8514997 131.5209988  13.0787146 117.0035157 132.3134469
   5.9880012 120.5954997 123.1169988   5.4450012 120.2154997 122.4259988
   6.8210012 120.7894997 122.6889988   6.0263631 120.5697125 122.9644501
  16.5250012 132.6784997 138.6079988  16.7250012 133.1024997 137.7739988
  17.1800012 133.0214997 139.2149988  16.6410073 132.7829857 138.5758592
   4.1230012 125.1524997 138.2159988   4.8550012 125.4064997 138.7779988
   3.3430012 125.3564997 138.7319988   4.1177073 125.2148160 138.3626151
  10.1520012 120.5594997 130.9539988  10.7170012 120.0124997 130.4069988
  10.0050012 120.0374997 131.7429988  10.2093380 120.4142259 130.9858695
   5.1540012 116.6954997 127.3729988   4.8370012 115.7934997 127.3369988
   5.9360012 116.6974997 126.8199988   5.2162408 116.5722474 127.2933569
   8.7790012 118.9474997 133.3679988   7.9430012 119.4014997 133.4789988
   9.3030012 119.2234997 134.1199988   8.7355416 119.0468660 133.4848119
   9.3230012 125.1604997 125.0529988   8.5780012 124.6534997 124.7309988
   9.1890012 125.2094997 125.9999988   9.2028776 125.0976940 125.1368647
  16.4730012 124.2934997 133.8399988  17.1150012 124.7504997 133.2959988
  15.6430012 124.4064997 133.3769988  16.4485963 124.3712704 133.7030177
  13.2210012 117.9744997 123.2519988  12.2820012 118.0864997 123.1009988
  13.5180012 118.8314997 123.5589988  13.1327583 118.1055981 123.2728337
  10.8420012 125.3444997 136.2899988  10.4970012 124.9634997 137.0969988
  10.6420012 126.2784997 136.3609988  10.7677527 125.4185135 136.4100689
  13.9390012 119.8414997 124.9129988  14.8310012 119.7044997 125.2319988
  13.9960012 120.6324997 124.3759988  14.0686504 119.9296052 124.8840818
   4.4480012 124.4554997 130.8229988   5.1930012 124.4534997 130.2219988
   4.5260012 123.6324997 131.3039988   4.5604995 124.3438887 130.8058282
  11.4490012 126.6194997 124.0789988  11.1530012 127.4454997 124.4599988
  10.7460012 125.9994997 124.2749988  11.3134914 126.6488199 124.1576443
   1.4560012 122.9164997 136.1379988   1.6790012 122.4984997 136.9699988
   0.8540012 122.3034997 135.7149988   1.4051759 122.7764668 136.1947022
   8.4720012 122.4334997 138.3509988   8.1760012 122.2674997 137.4559988
   9.4040012 122.2134997 138.3399988   8.5574166 122.3810640 138.2270536
  13.0930012 127.8064997 136.2409988  12.1920012 127.9894997 135.9729988
  13.1270012 128.0654997 137.1609988  12.9743139 127.8665849 136.3288099
  18.8240012 120.0514997 124.6079988  18.2700012 119.6554997 123.9359988
  18.9240012 120.9614997 124.3299988  18.7617059 120.1203586 124.4784401
  18.7870012 125.8514997 137.4449988  17.9360012 126.0894997 137.0779988
  19.3780012 125.8344997 136.6919988  18.7502487 125.8818258 137.2928893
  17.1190012 128.8374997 125.0729988  16.7460012 128.0114997 125.3819988
  17.3970012 128.6544997 124.1749988  17.1055222 128.6997430 124.9939473
  14.2800012 123.6454997 132.0939988  13.3510012 123.4134997 132.0669988
  14.7310012 122.8684997 131.7639988  14.2139216 123.5087238 132.0456917
   6.8230012 127.9734997 128.2269988   7.3500012 128.7464997 128.0269988
   5.9430012 128.1984997 127.9249988   6.7762031 128.1097545 128.1587912
   2.5780012 122.8354997 122.8139988   3.1940012 123.4624997 123.1939988
   1.7160012 123.1514997 123.0859988   2.5457698 122.9639430 122.9027183
   8.2500012 125.6364997 127.8029988   8.0090012 126.5614997 127.8449988
   7.5090012 125.1774997 128.1999988   8.1169225 125.7010933 127.8623742
   8.7650012 129.7854997 134.1189988   9.1270012 130.6404997 133.8849988
   9.2960012 129.4934997 134.8589988   8.8864473 129.8631060 134.1870855
   6.9330012 130.6584997 127.3489988   5.9830012 130.7634997 127.3999988
   7.2850012 131.4784997 127.6929988   6.8504195 130.7838800 127.4025502
  12.3090012 125.8844997 133.8189988  11.8830012 125.6574997 134.6459988
  12.8890012 125.1464997 133.6369988  12.3291868 125.7535299 133.9075830
  14.5120012 126.8134997 122.8929988  14.8650012 126.4334997 123.6969988
  13.5630012 126.7204997 122.9799988  14.4320918 126.7488956 123.0148532
  14.9670012 130.4364997 136.2889988  14.3660012 129.8814997 135.7929988
  15.2490012 131.1034997 135.6619988  14.9228804 130.4506625 136.1364849
  19.0150012 131.2934997 123.0939988  19.7590012 131.8794997 122.9539988
  18.3210012 131.8614997 123.4269988  19.0229899 131.4505798 123.1198778
   3.0900012 117.6694997 135.6959988   2.1970012 118.0084997 135.6279988
   2.9910012 116.8144997 136.1139988   2.9544164 117.6002588 135.7432235
  15.3780012 125.4864997 125.1199988  15.1000012 124.7584997 125.6759988
  16.3050012 125.6054997 125.3249988  15.4653124 125.4028802 125.2238845
   2.7410012 129.4744997 134.1309988   2.9580012 128.5424997 134.0999988
   2.9870012 129.7484997 135.0139988   2.8039549 129.3840636 134.2461763
   8.6030012 127.9254997 121.3399988   8.8420012 127.1774997 120.7929988
   8.3340012 127.5374997 122.1729988   8.5993675 127.7706638 121.3776865
   7.5400012 127.4954997 123.7959988   7.6860012 126.9754997 124.5859988
   7.5370012 128.4024997 124.1029988   7.5595792 127.5468842 123.9456117
   3.9930012 124.7484997 124.3069988   3.3070012 125.1004997 124.8739988
   4.5150012 125.5114997 124.0599988   3.9696852 124.8998578 124.3512118
  11.8240012 117.4104997 134.5859988  12.5230012 117.4844997 135.2359988
  11.4430012 116.5464997 134.7399988  11.8681767 117.3037624 134.6958322
  12.6090012 117.0624997 125.6829988  12.8290012 117.5344997 124.8799988
  13.1670012 117.4574997 126.3529988  12.7144968 117.1804285 125.6637331
  10.2770012 129.1934997 124.5459988   9.4610012 129.6904997 124.5979988
  10.8070012 129.6684997 123.9059988  10.2369161 129.3257722 124.4665956
   9.8090012 118.7904997 126.5179988  10.6210012 119.2954997 126.5639988
   9.5640012 118.6454997 127.4319988   9.8870520 118.8400375 126.6478517
  10.3440012 119.7764997 135.7019988  10.4630012 120.3504997 136.4599988
  11.0000012 119.0884997 135.8169988  10.4489025 119.7619858 135.8211321
  10.6920012 115.8714997 127.4559988  10.3460012 116.4894997 128.0999988
  11.3510012 116.3724997 126.9739988  10.7336968 116.0236278 127.4789383
   7.6160012 130.2374997 124.5269988   7.7760012 131.0364997 124.0269988
   7.4180012 130.5434997 125.4119988   7.6111637 130.3884020 124.5781144
   6.3500012 116.9344997 124.1429988   6.2670012 117.8234997 124.4899988
   7.2400012 116.6694997 124.3749988   6.4589469 117.0201430 124.2217626
  16.5490012 117.6834997 136.5369988  15.6320012 117.9464997 136.4499988
  16.8840012 117.6804997 135.6409988  16.4688613 117.7190761 136.4038837
  15.1510012 121.4344997 130.6329988  14.3530012 121.0194997 130.3049988
  15.5960012 120.7434997 131.1239988  15.1019885 121.2843543 130.6544889
   4.6090012 127.3624997 123.2039988   5.2010012 128.0614997 123.4799988
   5.0680012 126.9294997 122.4839988   4.7521142 127.3997049 123.1444830
   2.9250012 120.0264997 122.3199988   2.8800012 120.9654997 122.4979988
   2.0370012 119.7904997 122.0499988   2.7988574 120.1231892 122.3078912
  16.2370012 130.6904997 132.2559988  16.0820012 131.3684997 131.5979988
  17.1700012 130.7624997 132.4589988  16.3418657 130.7929546 132.1934360
   3.7330012 114.8084997 130.9929988   3.5040012 114.8674997 130.0649988
   3.2900012 114.0164997 131.2989988   3.6418530 114.7095753 130.9074786
   2.6630012 128.7484997 127.1529988   1.8310012 129.2214997 127.1799988
   3.2090012 129.2584997 126.5549988   2.6230352 128.8821332 127.0758463
   1.9510012 131.3614997 138.4829988   2.4920012 131.1444997 139.2429988
   1.4700012 130.5554997 138.2929988   1.9599951 131.2229270 138.5612576
   6.5490012 130.2804997 140.1029988   7.3160012 129.8214997 140.4439988
   6.5270012 130.0544997 139.1739988   6.6511275 130.1870186 140.0240101
  10.6410012 129.7884997 121.4789988   9.9970012 129.1574997 121.7999988
  11.4030012 129.2574997 121.2469988  10.6558077 129.6302920 121.4916011
  13.1260012 128.6604997 138.8329988  12.7750012 127.8044997 139.0759988
  13.8520012 128.8034997 139.4399988  13.1760769 128.5625636 138.9483619
  15.2450012 129.6054997 121.7119988  15.5280012 128.8114997 122.1649988
  15.9850012 129.8384997 121.1519988  15.3838006 129.5283376 121.6982715
   1.8580012 125.1714997 139.4369988   2.0020012 124.2694997 139.1509988
   1.0860012 125.4574997 138.9499988   1.7732753 125.0866816 139.3319505
   6.2000012 125.5154997 121.5699988   6.2640012 124.7214997 122.1009988
   6.8530012 125.3964997 120.8799988   6.2970241 125.3907148 121.5494317
   8.5140012 125.1414997 138.8699988   8.1850012 125.4124997 138.0129988
   8.6660012 124.2004997 138.7829988   8.4894809 125.0513862 138.7408244
  11.5520012 126.5624997 121.3059988  11.2830012 126.7424997 122.2069988
  11.3460012 125.6364997 121.1739988  11.4873427 126.4620261 121.4115073
  14.2480012 125.0574997 136.2529988  14.9940012 125.6454997 136.1339988
  13.4910012 125.6394997 136.3169988  14.2477820 125.2167143 136.2453590
   2.6910012 122.3714997 138.8569988   3.0990012 121.5144997 138.7359988
   2.4310012 122.3864997 139.7779988   2.7117568 122.2560807 138.9649588
   7.3490012 123.4874997 123.8759988   6.8890012 123.0034997 124.5619988
   7.6040012 122.8194997 123.2399988   7.3204902 123.3308731 123.8839334
   6.6380012 121.3804997 136.2319988   6.0200012 122.0554997 136.5119988
   6.9820012 121.7014997 135.3979988   6.5999132 121.5162411 136.1576262
   8.4200012 121.7304997 122.1379988   8.2400012 121.5764997 121.2109988
   9.3700012 121.8384997 122.1829988   8.5237776 121.7240175 122.0171843
  11.6580012 123.8524997 139.5089988  12.6110012 123.9354997 139.4819988
  11.4970012 123.1404997 140.1289988  11.7666426 123.7676746 139.5890579
  17.8100012 124.0854997 121.5839988  17.5360012 123.6604997 120.7709988
  17.8490012 125.0164997 121.3669988  17.7777699 124.1532484 121.4433610
   6.9770012 118.7354997 137.3139988   7.1270012 118.0064997 136.7119988
   6.9800012 119.5124997 136.7549988   6.9979302 118.7407851 137.1560692
   7.3900012 117.1054997 134.8069988   7.9260012 117.5564997 134.1549988
   6.5380012 116.9974997 134.3839988   7.3482178 117.1526390 134.6605756
   8.9720012 122.5444997 135.0459988   9.7220012 122.3884997 134.4729988
   8.6330012 123.3964997 134.7709988   9.0288921 122.6382968 134.9303561
  13.3870012 120.3594997 140.0749988  13.5800012 119.4284997 139.9629988
  14.2450012 120.7844997 140.0639988  13.5292934 120.2896531 140.0582031
  14.7040012 123.1484997 138.1519988  14.4230012 123.8574997 137.5739988
  15.6470012 123.0754997 138.0009988  14.7929291 123.2356711 138.0524967
   5.4560012 119.9334997 139.2259988   4.6890012 119.4014997 139.0149988
   6.1350012 119.6234997 138.6259988   5.4427877 119.8188300 139.1160716
   8.1960012 114.5614997 135.2379988   8.0970012 115.5084997 135.1329988
   7.4530012 114.1894997 134.7619988   8.0821184 114.6405863 135.1593621
   9.4600012 118.8834997 138.8019988   9.2240012 118.6634997 139.7029988
   8.6760012 118.6764997 138.2919988   9.3218504 118.8254586 138.8563431
  12.1750012 118.0104997 137.8769988  11.2280012 118.0424997 138.0099988
  12.4880012 117.3854997 138.5309988  12.0876707 117.9303998 137.9836060
  13.8090012 116.6444997 139.8829988  13.7130012 115.6924997 139.8769988
  13.4880012 116.9134997 140.7429988  13.7524070 116.5504035 139.9985441
   3.6360012 117.8544997 138.9299988   3.8480012 117.1474997 138.3199988
   3.5250012 117.4164997 139.7739988   3.6499721 117.6987084 138.9606843
   8.4170012 113.8554997 137.9089988   9.1290012 113.2154997 137.8949988
   8.3160012 114.1224997 136.9959988   8.5008066 113.8040079 137.7835677
   8.7710012 115.5384997 139.9629988   8.6390012 115.0624997 139.1429988
   8.1720012 116.2824997 139.9079988   8.6719071 115.5739618 139.8432886
   8.3170012 132.4214997 123.1389988   9.2500012 132.5794997 123.2829988
   8.0530012 133.0964997 122.5149988   8.4089888 132.5344510 123.0742842
   1.8860012 127.0574997 122.6219988   2.8000012 127.1364997 122.8959988
   1.8930012 126.3704997 121.9559988   2.0121131 126.9753961 122.5694393
   0.5350012 132.4504997 127.6999988  -0.1119988 131.9884997 127.1669988
   0.8890012 131.7784997 128.2819988   0.4943849 132.2964723 127.7057959
   1.4050012 130.5314997 129.5039988   1.0700012 129.6514997 129.6759988
   1.6270012 130.8764997 130.3689988   1.3891783 130.4577501 129.6444208
  18.9530012 131.3404997 132.4849988  18.9320012 131.5254997 133.4239988
  19.6440012 131.9094997 132.1439988  19.0434618 131.4426606 132.5673864
  18.5170012 130.9084997 135.4069988  18.0290012 130.1724997 135.0349988
  19.0660012 130.5144997 136.0849988  18.5244820 130.7545889 135.4477813
  16.9670012 126.6974997 140.0449988  16.1010012 126.5924997 140.4389988
  17.3440012 127.4564997 140.4909988  16.8993308 126.7856900 140.1592393
  18.2680012 124.9544997 125.5589988  19.1180012 125.3754997 125.6859988
  18.2740012 124.2144997 126.1659988  18.3851372 124.9120803 125.6584344
  18.6630012 123.0074997 127.3819988  17.9360012 122.5284997 127.7799988
  19.2440012 123.2134997 128.1149988  18.6420473 122.9698103 127.5354528
  18.4220012 125.7924997 132.3299988  19.2550012 125.4144997 132.0499988
  18.5340012 126.7354997 132.2109988  18.5512647 125.8682218 132.2755487
  16.9080012 128.6704997 134.6369988  16.2610012 128.9954997 135.2629988
  16.3910012 128.2304997 133.9629988  16.7494029 128.6555004 134.6315827
  18.9310012 122.9084997 123.7739988  18.4090012 123.2654997 123.0549988
  18.8980012 123.5834997 124.4519988  18.8551634 123.0485413 123.7673145
  17.2800012 120.1484997 122.3239988  17.3760012 120.8154997 121.6439988
  17.1400012 119.3324997 121.8429988  17.2742272 120.1295655 122.1658347
  16.4490012 121.5284997 127.9449988  16.2990012 120.5834997 127.9249988
  16.0960012 121.8094997 128.7889988  16.3807448 121.4371481 128.0563705
   1.4850012 123.6064997 131.9559988   1.6690012 123.5244997 131.0199988
   2.3340012 123.4824997 132.3789988   1.6250151 123.5785073 131.8851451
  17.3060012 123.4984997 137.5839988  17.8890012 122.7644997 137.7759988
  17.8700012 124.2704997 137.6309988  17.4619769 123.5024227 137.6166159
  18.8020012 121.4014997 138.2689988  17.9390012 121.0224997 138.1029988
  19.4070012 120.6624997 138.1939988  18.7656119 121.2498268 138.2361528
  16.5270012 117.5564997 121.4419988  17.1380012 117.1854997 122.0789988
  15.6910012 117.1354997 121.6379988  16.4975032 117.4487554 121.5557035
  16.1600012 119.1114997 126.4079988  16.4400012 118.2044997 126.5319988
  16.9190012 119.5454997 126.0189988  16.3009277 119.0460942 126.3723682
  16.7720012 119.6924997 131.8439988  17.7050012 119.9044997 131.8089988
  16.5370012 119.7944997 132.7659988  16.8679244 119.7353100 131.9638892
  16.8010012 120.4294997 134.6199988  15.9580012 120.6974997 134.9859988
  17.2430012 121.2514997 134.4089988  16.7454158 120.5773291 134.6415491
   1.0820012 118.8774997 138.0969988   2.0020012 118.7554997 138.3329988
   0.6330012 118.1274997 138.4859988   1.1471580 118.7593727 138.1819006
  19.0840012 114.4094997 139.9729988  19.4340012 113.7554997 139.3679988
  19.2310012 115.2464997 139.5329988  19.1517887 114.4331548 139.8306858
  16.7730012 116.3744997 126.4559988  16.9560012 115.9254997 127.2819988
  16.1740012 115.7894997 125.9929988  16.7170202 116.2339975 126.5063275
   2.3030012 117.1894997 130.9879988   2.7490012 116.3974997 131.2899988
   2.7700012 117.9054997 131.4179988   2.4270831 117.1780685 131.0874006
   0.6070012 120.1884997 132.0569988   1.0990012 119.9674997 131.2659988
   0.9700012 121.0294997 132.3379988   0.7233126 120.2718357 131.9867531
  18.6040012 116.5184997 138.3219988  17.6860012 116.7894997 138.2869988
  18.7270012 115.9834997 137.5379988  18.4949729 116.4832508 138.2111923
  18.6400012 116.4414997 122.9839988  19.0520012 115.7204997 122.5089988
  19.3220012 117.1114997 123.0429988  18.7885885 116.4332368 122.9268915
   0.9210012 116.4464997 126.1109988  -0.0039988 116.6554997 125.9819988
   1.3750012 116.9304997 125.4209988   0.8557292 116.5405343 126.0000720
  15.6920012 131.4304997 128.0569988  16.3440012 131.0834997 127.4489988
  16.2020012 131.9194997 128.7029988  15.8502637 131.4490597 128.0610236
   0.8850012 115.1844997 134.4549988   0.2200012 114.9384997 135.0989988
   0.4420012 115.8064997 133.8779988   0.7341318 115.2349410 134.4650898
   3.0770012 128.3594997 138.5999988   2.2560012 128.5344997 138.1389988
   2.8240012 128.2864997 139.5199988   2.9305585 128.3735544 138.6613561
   6.0310012 129.3344997 134.8579988   5.6060012 130.1434997 134.5759988
   6.9350012 129.4194997 134.5559988   6.0949975 129.4569300 134.7784816
  10.3420012 130.7334997 137.8179988  10.5270012 130.3994997 138.6959988
  11.1880012 131.0424997 137.4959988  10.4817539 130.7296047 137.8945605
  12.6870012 132.0194997 137.0619988  13.3640012 131.3864997 136.8219988
  13.0090012 132.4204997 137.8689988  12.8231637 131.9871154 137.1382793
  17.6040012 114.6084997 136.1409988  16.7920012 114.9334997 135.7539988
  17.8370012 113.8484997 135.6079988  17.5242203 114.5502758 136.0158880
   3.4330012 132.5904997 134.9059988   2.7120012 133.0304997 134.4549988
   3.0670012 132.3394997 135.7539988   3.2849651 132.6167242 134.9589640
   5.9000012 132.1904997 133.9359988   5.0350012 132.2624997 134.3399988
   5.8450012 132.7374997 133.1519988   5.7742085 132.2742685 133.8853362
  10.6100012 132.0784997 133.1109988  10.1540012 132.6074997 132.4569988
  10.7730012 132.6814997 133.8359988  10.5696068 132.2324607 133.1194838
  12.9380012 130.9564997 134.0559988  12.0330012 131.1214997 133.7899988
  13.3670012 131.8094997 133.9909988  12.8721324 131.0944339 134.0107976
  15.5420012 132.5264997 134.3509988  15.3600012 133.4424997 134.1409988
  15.7190012 132.1164997 133.5049988  15.5410210 132.5964822 134.2077885
   2.8470012 131.2134997 131.8159988   2.8290012 130.7884997 132.6729988
   3.6520012 130.8954997 131.4069988   2.9533529 131.1123013 131.8780946
   4.9890012 129.9234997 130.4709988   4.7700012 129.0074997 130.6409988
   5.8130012 130.0634997 130.9369988   5.0704420 129.8170520 130.5572774
   7.5260012 130.3934997 131.3199988   7.7390012 129.5054997 131.0329988
   7.5900012 130.3594997 132.2739988   7.5638231 130.2673102 131.4097397
  11.0340012 116.0574997 130.4639988  10.3600012 115.4284997 130.7199988
  11.5980012 115.5734997 129.8609988  11.0179230 115.9058744 130.4175340
  16.1770012 114.1654997 130.5769988  16.7810012 114.7124997 130.0749988
  15.3070012 114.4844997 130.3359988  16.1421208 114.2835137 130.4756886
  17.9040012 115.3034997 128.9099988  18.5160012 114.7894997 128.3829988
  18.2860012 116.1814997 128.9329988  18.0393371 115.3517866 128.8410041
   3.3610012 114.6914997 128.2859988   2.5840012 114.4574997 127.7789988
   3.8910012 113.8944997 128.2949988   3.3262330 114.5516988 128.2177742
   2.1970012 114.4894997 124.0899988   2.6360012 115.1004997 123.4979988
   1.5640012 115.0274997 124.5639988   2.1714514 114.6459257 124.0730930
   7.9400012 114.6184997 128.0999988   8.8150012 115.0064997 128.0699988
   7.8040012 114.4034997 129.0219988   8.0413695 114.6425184 128.2206440
  13.4970012 114.6484997 129.7489988  13.5730012 114.7434997 128.7989988
  13.2220012 113.7404997 129.8779988  13.4702321 114.5387867 129.6365079
  14.8500012 114.6744997 125.4409988  14.1480012 115.2894997 125.2309988
  14.4060012 113.8364997 125.5719988  14.6936450 114.6455639 125.4299000
   2.0980012 130.4374997 124.9869988   1.4130012 130.3994997 124.3199988
   2.1020012 131.3504997 125.2759988   2.0046998 130.5556733 124.9346771
   4.0580012 116.4054997 122.5319988   4.5500012 115.7754997 122.0049988
   4.6820012 116.7014997 123.1949988   4.2095688 116.3593804 122.5495482
   9.0840012 116.6984997 124.9889988   9.2620012 116.0524997 125.6719988
   9.0310012 117.5324997 125.4559988   9.1011999 116.7228009 125.1455917
  10.9630012 131.6474997 123.3849988  11.8290012 132.0134997 123.2069988
  10.7160012 131.2074997 122.5709988  11.0482392 131.6381756 123.2506289
  17.6720012 131.2104997 126.0639988  17.4770012 130.4624997 125.4989988
  17.6330012 131.9684997 125.4809988  17.6400380 131.2106099 125.9078384
   3.3190012 115.2054997 137.8039988   2.9530012 114.4404997 138.2459988
   4.2320012 115.2344997 138.0899988   3.3922736 115.1045640 137.9032502
   5.2920012 114.5564997 139.3399988   6.1900012 114.2824997 139.1549988
   4.9050012 113.8134997 139.8039988   5.3626612 114.4185914 139.3773643
   3.9160012 131.3574997 122.0129988   3.6490012 131.6444997 122.8859988
   4.6880012 130.8114997 122.1649988   3.9837488 131.3230294 122.1531050
  13.7130012 113.8884997 139.5219988  13.7900012 113.4624997 140.3759988
  14.6070012 113.9024997 139.1789988  13.8443428 113.8320879 139.5925310
  16.8890012 129.9614997 138.2139988  16.1070012 129.7754997 137.6939988
  16.8170012 130.8904997 138.4319988  16.7722274 130.0616643 138.1723018
  31.2950012 123.8474997 128.2449988  31.3840012 124.7914997 128.1129988
  30.6570012 123.5724997 127.5869988  31.2209081 123.9394830 128.1379614
  30.2280012 123.1024997 131.6639988  30.1900012 122.4564997 132.3689988
  29.9060012 122.6364997 130.8929988  30.1792333 122.9509408 131.6562978
  22.5970012 122.7174997 133.2569988  22.6380012 122.0914997 133.9799988
  23.3000012 123.3414997 133.4389988  22.6976363 122.7161196 133.3806044
  33.9340012 126.0414997 129.9649988  33.4940012 125.3214997 130.4159988
  33.9210012 126.7624997 130.5949988  33.8720226 126.0403731 130.1118494
  23.5200012 127.1674997 131.7919988  23.1510012 126.3654997 131.4219988
  24.4610012 126.9984997 131.8379988  23.5967289 127.0350153 131.7476316
  20.1300012 120.8274997 127.1849988  19.6830012 121.6734997 127.1659988
  19.5690012 120.2474997 126.6689988  19.9929900 120.8649916 127.1126801
  20.8410012 122.9894997 129.3099988  21.0540012 122.2194997 129.8379988
  21.5790012 123.0784997 128.7069988  20.9699044 122.8961968 129.3007123
  31.0460012 131.1464997 130.1769988  31.6660012 130.4694997 129.9039988
  30.8380012 130.9284997 131.0859988  31.1026726 131.0244800 130.2624812
  28.6180012 125.5354997 132.0699988  28.9220012 124.8494997 131.4749988
  29.3390012 125.6534997 132.6879988  28.7570671 125.4576305 132.0721816
  37.2810012 117.1364997 132.9309988  37.3300012 117.7464997 133.6659988
  37.7060012 117.5974997 132.2079988  37.3451746 117.2823796 132.9339175
  31.7590012 119.9294997 132.3969988  31.9010012 118.9834997 132.4179988
  31.6520012 120.1364997 131.4689988  31.7639919 119.8278246 132.2743408
  24.9130012 118.0304997 129.6699988  24.9570012 118.8904997 129.2509988
  24.4560012 117.4784997 129.0359988  24.8572240 118.0734422 129.5269864
  32.6360012 118.1614997 128.0709988  33.2820012 117.8324997 128.6949988
  33.1460012 118.6794997 127.4479988  32.7934299 118.1864450 128.0722731
  21.5340012 120.4274997 130.4319988  22.1870012 119.8774997 130.8639988
  21.5580012 120.1534997 129.5149988  21.6266683 120.3151466 130.3672123
  26.6900012 121.9774997 129.6469988  27.3060012 121.4514997 130.1569988
  26.1040012 121.3374997 129.2439988  26.6950810 121.8189208 129.6623173
  37.6720012 118.6144997 135.1659988  36.9840012 119.2724997 135.0709988
  37.6880012 118.4174997 136.1029988  37.5799540 118.6779819 135.2795990
  23.7240012 116.9484997 133.7439988  23.5050012 117.4784997 132.9779988
  23.0560012 117.1754997 134.3909988  23.6037600 117.0516906 133.7266379
  31.0930012 126.4484997 127.2879988  30.7970012 126.1264997 126.4369988
  30.7680012 127.3484997 127.3289988  31.0086371 126.5260215 127.1771801
  26.2930012 124.6244997 134.0309988  25.5530012 125.2224997 134.1349988
  27.0070012 125.1784997 133.7159988  26.2882237 124.7812831 134.0026465
  34.4000012 117.4524997 130.0509988  34.1840012 116.6864997 130.5839988
  35.0550012 117.9244997 130.5639988  34.4590632 117.4115889 130.1932861
  23.3170012 118.8404997 131.6959988  23.9310012 119.4734997 132.0689988
  23.8290012 118.3684997 131.0399988  23.4701981 118.8632267 131.6582908
  24.7000012 126.5884997 134.8179988  24.6950012 127.4684997 134.4399988
  23.8470012 126.5054997 135.2429988  24.5839464 126.6976117 134.8237907
  20.8210012 126.2594997 125.5999988  20.5490012 126.4884997 124.7119988
  20.8670012 127.0974997 126.0609988  20.7899482 126.4041318 125.5406273
  34.4460012 127.8814997 132.3129988  33.5050012 127.9394997 132.4749988
  34.7230012 128.7874997 132.1759988  34.3544679 128.0119443 132.3166815
  34.7470012 116.1674997 133.7309988  34.0110012 116.7784997 133.6929988
  35.4300012 116.5824997 133.2039988  34.7386541 116.3071374 133.6545832
  27.7500012 114.2544997 131.1959988  27.6330012 113.3054997 131.1419988
  26.8950012 114.5864997 131.4699988  27.6184212 114.1695571 131.2256497
  32.6980012 129.6624997 128.9379988  33.1240012 128.9554997 128.4529988
  33.0150012 130.4634997 128.5219988  32.7991683 129.6741017 128.8153680
  33.8580012 127.5634997 127.4469988  33.6000012 126.8734997 126.8359988
  33.9290012 127.1204997 128.2929988  33.8322856 127.4092124 127.4776885
  35.5440012 126.1294997 135.9239988  35.6840012 125.5384997 135.1849988
  35.7110012 127.0024997 135.5679988  35.5857411 126.1665428 135.7746894
  30.0170012 123.0914997 125.6969988  29.3050012 123.6264997 125.3449988
  30.7080012 123.1474997 125.0369988  30.0130132 123.1722543 125.5596289
  30.0700012 121.5494997 122.7359988  30.7710012 121.5714997 123.3869988
  30.3730012 120.9214997 122.0789988  30.2068133 121.4677070 122.7363369
  37.3860012 122.4694997 133.9899988  36.7330012 123.1644997 134.0799988
  37.8510012 122.6794997 133.1809988  37.3595274 122.5930643 133.8928462
  33.4220012 123.3014997 126.6489988  32.6900012 123.5294997 127.2219988
  33.8700012 122.5874997 127.1029988  33.3822725 123.2362145 126.7888816
  33.3200012 121.4754997 135.7159988  33.4000012 122.2384997 136.2879988
  32.7180012 121.7544997 135.0259988  33.2495756 121.6177134 135.7010589
  25.0680012 123.9314997 128.5309988  24.7370012 123.5614997 127.7129988
  25.6560012 123.2614997 128.8779988  25.1021873 123.7901156 128.4658102
  26.4340012 127.3594997 131.2119988  26.3400012 126.7814997 130.4559988
  27.1640012 126.9884997 131.7089988  26.5197387 127.2301663 131.1755342
  25.4340012 122.7004997 132.1649988  26.0000012 122.8214997 131.4019988
  25.7530012 123.3374997 132.8029988  25.5545474 122.8032219 132.1469862
  31.7430012 128.2034997 132.8989988  31.5030012 128.8654997 133.5469988
  31.5450012 127.3694997 133.3239988  31.6833808 128.1813134 133.0451524
  26.3140012 127.0994997 136.8819988  26.0030012 127.8814997 137.3369988
  25.6640012 126.9464997 136.1959988  26.1835558 127.1859105 136.8515871
  32.2930012 122.4634997 124.3339988  32.8730012 122.6134997 125.0809988
  32.7070012 122.9344997 123.6099988  32.4282997 122.5476578 124.3384058
  23.2340012 123.2974997 136.1099988  23.3050012 123.9484997 136.8089988
  22.3440012 123.4004997 135.7749988  23.1233005 123.4005427 136.1603495
  30.0200012 129.2004997 127.7689988  30.4940012 129.4954997 128.5459988
  29.4570012 129.9384997 127.5359988  30.0088184 129.3407247 127.8439628
  24.5540012 129.1714997 137.6449988  24.5610012 129.0354997 136.6979988
  23.6380012 129.0534997 137.8969988  24.4311714 129.1369430 137.5494666
  35.9920012 114.2134997 124.1469988  35.0920012 114.3524997 124.4419988
  36.2440012 115.0444997 123.7449988  35.9028702 114.3449074 124.1330205
  24.0580012 123.0014997 126.1199988  23.7660012 123.7694997 125.6299988
  23.3840012 122.3414997 125.9579988  23.9268111 123.0175587 126.0308978
  37.1810012 128.5794997 122.5229988  37.2550012 129.5184997 122.6939988
  38.0870012 128.2744997 122.4669988  37.3135100 128.6666722 122.5388119
  20.1510012 125.3644997 134.9349988  19.6500012 125.3364997 134.1199988
  20.1560012 124.4584997 135.2449988  20.0830944 125.2382396 134.8653226
  19.9010012 128.1444997 131.8189988  20.8470012 128.0004997 131.7999988
  19.7890012 128.9284997 132.3559988  20.0152727 128.2308046 131.8890072
  38.0990012 128.8104997 137.5019988  38.0500012 127.8554997 137.4649988
  37.2720012 129.0784997 137.9029988  37.9804940 128.7158998 137.5511375
  29.0780012 128.3844997 136.3779988  29.1650012 129.2104997 136.8529988
  28.2140012 128.0544997 136.6269988  28.9731964 128.4529878 136.4766549
  29.4920012 132.1564997 126.1839988  29.4170012 132.0354997 125.2369988
  29.5250012 133.1064997 126.3019988  29.4862068 132.2682646 126.0704967
  23.1450012 130.9454997 127.9649988  23.2980012 130.5974997 128.8429988
  22.2950012 130.5894997 127.7099988  23.0509166 130.8496216 128.0508079
  32.5940012 131.3104997 123.1859988  32.9690012 130.5664997 122.7149988
  32.5980012 131.0404997 124.1049988  32.6459125 131.1720986 123.2456483
  32.2630012 131.2364997 125.9349988  31.3270012 131.3364997 126.1139988
  32.5430012 130.5274997 126.5139988  32.1729553 131.1543406 126.0377087
  35.2510012 120.3034997 137.9819988  34.8440012 120.7844997 137.2609988
  35.2920012 119.3984997 137.6739988  35.2008437 120.2469374 137.8416683
  22.4000012 126.6874997 135.9789988  22.6160012 126.3264997 136.8379988
  21.5450012 126.3134997 135.7689988  22.3139292 126.5874111 136.0683386
  25.0190012 115.1574997 131.9739988  24.1570012 115.0704997 131.5659988
  24.9960012 116.0134997 132.4019988  24.8980409 115.2612883 131.9760589
  29.6820012 114.8794997 135.3489988  30.1020012 114.4644997 136.1019988
  28.7490012 114.7014997 135.4659988  29.6133644 114.7985900 135.4679539
  33.0080012 118.6354997 136.2019988  32.4940012 118.5094997 136.9999988
  32.8530012 119.5474997 135.9579988  32.9166852 118.7416132 136.2782158
  33.7710012 123.4964997 121.9639988  33.8130012 123.2734997 121.0339988
  34.6200012 123.8954997 122.1529988  33.8915280 123.5199438 121.8623554
  29.3430012 117.3724997 122.6339988  29.0900012 117.3914997 123.5569988
  29.0870012 116.5004997 122.3319988  29.2737481 117.2572558 122.7196175
  25.1100012 120.1234997 133.0689988  24.4680012 120.0824997 133.7779988
  25.1470012 121.0494997 132.8309988  25.0270664 120.2431430 133.1339219
  25.1070012 120.3444997 127.9809988  24.2140012 120.0034997 127.9219988
  25.5570012 119.9674997 127.2249988  25.0458130 120.2469631 127.8707702
  30.6420012 120.7604997 126.7979988  30.2330012 121.5754997 126.5069988
  31.3630012 120.6204997 126.1839988  30.6834537 120.8532018 126.6751342
  29.7440012 120.9354997 138.2859988  29.1820012 120.2314997 138.6069988
  30.5710012 120.8154997 138.7539988  29.7787095 120.8227883 138.3932330
  31.6470012 120.2064997 129.6119988  31.4520012 120.8114997 128.8969988
  31.8280012 119.3724997 129.1779988  31.6447614 120.1766300 129.4554405
  22.8600012 120.4434997 134.9359988  22.8220012 120.8434997 135.8049988
  22.3690012 119.6264997 135.0269988  22.7884684 120.3878069 135.0671059
  26.2260012 117.8174997 121.7349988  25.7950012 117.3724997 122.4649988
  25.5080012 118.1894997 121.2229988  26.0699438 117.8068940 121.7656799
  19.4680012 117.5594997 128.7869988  20.0990012 117.5304997 129.5059988
  19.9170012 117.1344997 128.0559988  19.6150918 117.4980836 128.7866441
  20.7420012 118.3054997 124.2109988  21.2160012 118.8964997 123.6259988
  20.0250012 118.8364997 124.5579988  20.7099341 118.4580867 124.1778836
  30.9110012 121.8444997 134.2829988  31.2340012 121.2134997 133.6399988
  30.4710012 121.3094997 134.9439988  30.8957484 121.6858387 134.2843198
  27.6880012 117.7714997 129.0669988  26.7770012 117.8284997 129.3559988
  28.1940012 117.7114997 129.8779988  27.6316899 117.7711941 129.2161184
  22.5170012 119.4004997 127.8939988  21.6270012 119.5004997 127.5539988
  22.8130012 118.5584997 127.5479988  22.4352823 119.3003545 127.8007213
  26.1700012 119.4004997 125.5509988  27.1010012 119.5294997 125.7289988
  25.9550012 120.0704997 124.9009988  26.2684247 119.5086565 125.4875747
  32.0930012 117.0064997 132.3319988  31.4170012 117.1374997 132.9959988
  31.6080012 116.8514997 131.5209988  31.9347146 117.0035157 132.3134469
  24.8440012 120.5954997 123.1169988  24.3010012 120.2154997 122.4259988
  25.6770012 120.7894997 122.6889988  24.8823631 120.5697125 122.9644501
  35.3810012 132.6784997 138.6079988  35.5810012 133.1024997 137.7739988
  36.0360012 133.0214997 139.2149988  35.4970073 132.7829857 138.5758592
  22.9790012 125.1524997 138.2159988  23.7110012 125.4064997 138.7779988
  22.1990012 125.3564997 138.7319988  22.9737073 125.2148160 138.3626151
  29.0080012 120.5594997 130.9539988  29.5730012 120.0124997 130.4069988
  28.8610012 120.0374997 131.7429988  29.0653380 120.4142259 130.9858695
  24.0100012 116.6954997 127.3729988  23.6930012 115.7934997 127.3369988
  24.7920012 116.6974997 126.8199988  24.0722408 116.5722474 127.2933569
  27.6350012 118.9474997 133.3679988  26.7990012 119.4014997 133.4789988
  28.1590012 119.2234997 134.1199988  27.5915416 119.0468660 133.4848119
  28.1790012 125.1604997 125.0529988  27.4340012 124.6534997 124.7309988
  28.0450012 125.2094997 125.9999988  28.0588776 125.0976940 125.1368647
  35.3290012 124.2934997 133.8399988  35.9710012 124.7504997 133.2959988
  34.4990012 124.4064997 133.3769988  35.3045963 124.3712704 133.7030177
  32.0770012 117.9744997 123.2519988  31.1380012 118.0864997 123.1009988
  32.3740012 118.8314997 123.5589988  31.9887583 118.1055981 123.2728337
  29.6980012 125.3444997 136.2899988  29.3530012 124.9634997 137.0969988
  29.4980012 126.2784997 136.3609988  29.6237527 125.4185135 136.4100689
  32.7950012 119.8414997 124.9129988  33.6870012 119.7044997 125.2319988
  32.8520012 120.6324997 124.3759988  32.9246504 119.9296052 124.8840818
  23.3040012 124.4554997 130.8229988  24.0490012 124.4534997 130.2219988
  23.3820012 123.6324997 131.3039988  23.4164995 124.3438887 130.8058282
  30.3050012 126.6194997 124.0789988  30.0090012 127.4454997 124.4599988
  29.6020012 125.9994997 124.2749988  30.1694914 126.6488199 124.1576443
  20.3120012 122.9164997 136.1379988  20.5350012 122.4984997 136.9699988
  19.7100012 122.3034997 135.7149988  20.2611759 122.7764668 136.1947022
  27.3280012 122.4334997 138.3509988  27.0320012 122.2674997 137.4559988
  28.2600012 122.2134997 138.3399988  27.4134166 122.3810640 138.2270536
  31.9490012 127.8064997 136.2409988  31.0480012 127.9894997 135.9729988
  31.9830012 128.0654997 137.1609988  31.8303139 127.8665849 136.3288099
  37.6800012 120.0514997 124.6079988  37.1260012 119.6554997 123.9359988
  37.7800012 120.9614997 124.3299988  37.6177059 120.1203586 124.4784401
  37.6430012 125.8514997 137.4449988  36.7920012 126.0894997 137.0779988
  38.2340012 125.8344997 136.6919988  37.6062487 125.8818258 137.2928893
  35.9750012 128.8374997 125.0729988  35.6020012 128.0114997 125.3819988
  36.2530012 128.6544997 124.1749988  35.9615222 128.6997430 124.9939473
  33.1360012 123.6454997 132.0939988  32.2070012 123.4134997 132.0669988
  33.5870012 122.8684997 131.7639988  33.0699216 123.5087238 132.0456917
  25.6790012 127.9734997 128.2269988  26.2060012 128.7464997 128.0269988
  24.7990012 128.1984997 127.9249988  25.6322031 128.1097545 128.1587912
  21.4340012 122.8354997 122.8139988  22.0500012 123.4624997 123.1939988
  20.5720012 123.1514997 123.0859988  21.4017698 122.9639430 122.9027183
  27.1060012 125.6364997 127.8029988  26.8650012 126.5614997 127.8449988
  26.3650012 125.1774997 128.1999988  26.9729225 125.7010933 127.8623742
  27.6210012 129.7854997 134.1189988  27.9830012 130.6404997 133.8849988
  28.1520012 129.4934997 134.8589988  27.7424473 129.8631060 134.1870855
  25.7890012 130.6584997 127.3489988  24.8390012 130.7634997 127.3999988
  26.1410012 131.4784997 127.6929988  25.7064195 130.7838800 127.4025502
  31.1650012 125.8844997 133.8189988  30.7390012 125.6574997 134.6459988
  31.7450012 125.1464997 133.6369988  31.1851868 125.7535299 133.9075830
  33.3680012 126.8134997 122.8929988  33.7210012 126.4334997 123.6969988
  32.4190012 126.7204997 122.9799988  33.2880918 126.7488956 123.0148532
  33.8230012 130.4364997 136.2889988  33.2220012 129.8814997 135.7929988
  34.1050012 131.1034997 135.6619988  33.7788804 130.4506625 136.1364849
  37.8710012 131.2934997 123.0939988  38.6150012 131.8794997 122.9539988
  37.1770012 131.8614997 123.4269988  37.8789899 131.4505798 123.1198778
  21.9460012 117.6694997 135.6959988  21.0530012 118.0084997 135.6279988
  21.8470012 116.8144997 136.1139988  21.8104164 117.6002588 135.7432235
  34.2340012 125.4864997 125.1199988  33.9560012 124.7584997 125.6759988
  35.1610012 125.6054997 125.3249988  34.3213124 125.4028802 125.2238845
  21.5970012 129.4744997 134.1309988  21.8140012 128.5424997 134.0999988
  21.8430012 129.7484997 135.0139988  21.6599549 129.3840636 134.2461763
  27.4590012 127.9254997 121.3399988  27.6980012 127.1774997 120.7929988
  27.1900012 127.5374997 122.1729988  27.4553675 127.7706638 121.3776865
  26.3960012 127.4954997 123.7959988  26.5420012 126.9754997 124.5859988
  26.3930012 128.4024997 124.1029988  26.4155792 127.5468842 123.9456117
  22.8490012 124.7484997 124.3069988  22.1630012 125.1004997 124.8739988
  23.3710012 125.5114997 124.0599988  22.8256852 124.8998578 124.3512118
  30.6800012 117.4104997 134.5859988  31.3790012 117.4844997 135.2359988
  30.2990012 116.5464997 134.7399988  30.7241767 117.3037624 134.6958322
  31.4650012 117.0624997 125.6829988  31.6850012 117.5344997 124.8799988
  32.0230012 117.4574997 126.3529988  31.5704968 117.1804285 125.6637331
  29.1330012 129.1934997 124.5459988  28.3170012 129.6904997 124.5979988
  29.6630012 129.6684997 123.9059988  29.0929161 129.3257722 124.4665956
  28.6650012 118.7904997 126.5179988  29.4770012 119.2954997 126.5639988
  28.4200012 118.6454997 127.4319988  28.7430520 118.8400375 126.6478517
  29.2000012 119.7764997 135.7019988  29.3190012 120.3504997 136.4599988
  29.8560012 119.0884997 135.8169988  29.3049025 119.7619858 135.8211321
  29.5480012 115.8714997 127.4559988  29.2020012 116.4894997 128.0999988
  30.2070012 116.3724997 126.9739988  29.5896968 116.0236278 127.4789383
  26.4720012 130.2374997 124.5269988  26.6320012 131.0364997 124.0269988
  26.2740012 130.5434997 125.4119988  26.4671637 130.3884020 124.5781144
  25.2060012 116.9344997 124.1429988  25.1230012 117.8234997 124.4899988
  26.0960012 116.6694997 124.3749988  25.3149469 117.0201430 124.2217626
  35.4050012 117.6834997 136.5369988  34.4880012 117.9464997 136.4499988
  35.7400012 117.6804997 135.6409988  35.3248613 117.7190761 136.4038837
  34.0070012 121.4344997 130.6329988  33.2090012 121.0194997 130.3049988
  34.4520012 120.7434997 131.1239988  33.9579885 121.2843543 130.6544889
  23.4650012 127.3624997 123.2039988  24.0570012 128.0614997 123.4799988
  23.9240012 126.9294997 122.4839988  23.6081142 127.3997049 123.1444830
  21.7810012 120.0264997 122.3199988  21.7360012 120.9654997 122.4979988
  20.8930012 119.7904997 122.0499988  21.6548574 120.1231892 122.3078912
  35.0930012 130.6904997 132.2559988  34.9380012 131.3684997 131.5979988
  36.0260012 130.7624997 132.4589988  35.1978657 130.7929546 132.1934360
  22.5890012 114.8084997 130.9929988  22.3600012 114.8674997 130.0649988
  22.1460012 114.0164997 131.2989988  22.4978530 114.7095753 130.9074786
  21.5190012 128.7484997 127.1529988  20.6870012 129.2214997 127.1799988
  22.0650012 129.2584997 126.5549988  21.4790352 128.8821332 127.0758463
  20.8070012 131.3614997 138.4829988  21.3480012 131.1444997 139.2429988
  20.3260012 130.5554997 138.2929988  20.8159951 131.2229270 138.5612576
  25.4050012 130.2804997 140.1029988  26.1720012 129.8214997 140.4439988
  25.3830012 130.0544997 139.1739988  25.5071275 130.1870186 140.0240101
  29.4970012 129.7884997 121.4789988  28.8530012 129.1574997 121.7999988
  30.2590012 129.2574997 121.2469988  29.5118077 129.6302920 121.4916011
  31.9820012 128.6604997 138.8329988  31.6310012 127.8044997 139.0759988
  32.7080012 128.8034997 139.4399988  32.0320769 128.5625636 138.9483619
  34.1010012 129.6054997 121.7119988  34.3840012 128.8114997 122.1649988
  34.8410012 129.8384997 121.1519988  34.2398006 129.5283376 121.6982715
  20.7140012 125.1714997 139.4369988  20.8580012 124.2694997 139.1509988
  19.9420012 125.4574997 138.9499988  20.6292753 125.0866816 139.3319505
  25.0560012 125.5154997 121.5699988  25.1200012 124.7214997 122.1009988
  25.7090012 125.3964997 120.8799988  25.1530241 125.3907148 121.5494317
  27.3700012 125.1414997 138.8699988  27.0410012 125.4124997 138.0129988
  27.5220012 124.2004997 138.7829988  27.3454809 125.0513862 138.7408244
  30.4080012 126.5624997 121.3059988  30.1390012 126.7424997 122.2069988
  30.2020012 125.6364997 121.1739988  30.3433427 126.4620261 121.4115073
  33.1040012 125.0574997 136.2529988  33.8500012 125.6454997 136.1339988
  32.3470012 125.6394997 136.3169988  33.1037820 125.2167143 136.2453590
  21.5470012 122.3714997 138.8569988  21.9550012 121.5144997 138.7359988
  21.2870012 122.3864997 139.7779988  21.5677568 122.2560807 138.9649588
  26.2050012 123.4874997 123.8759988  25.7450012 123.0034997 124.5619988
  26.4600012 122.8194997 123.2399988  26.1764902 123.3308731 123.8839334
  25.4940012 121.3804997 136.2319988  24.8760012 122.0554997 136.5119988
  25.8380012 121.7014997 135.3979988  25.4559132 121.5162411 136.1576262
  27.2760012 121.7304997 122.1379988  27.0960012 121.5764997 121.2109988
  28.2260012 121.8384997 122.1829988  27.3797776 121.7240175 122.0171843
  30.5140012 123.8524997 139.5089988  31.4670012 123.9354997 139.4819988
  30.3530012 123.1404997 140.1289988  30.6226426 123.7676746 139.5890578
  36.6660012 124.0854997 121.5839988  36.3920012 123.6604997 120.7709988
  36.7050012 125.0164997 121.3669988  36.6337699 124.1532484 121.4433610
  25.8330012 118.7354997 137.3139988  25.9830012 118.0064997 136.7119988
  25.8360012 119.5124997 136.7549988  25.8539302 118.7407851 137.1560692
  26.2460012 117.1054997 134.8069988  26.7820012 117.5564997 134.1549988
  25.3940012 116.9974997 134.3839988  26.2042178 117.1526390 134.6605756
  27.8280012 122.5444997 135.0459988  28.5780012 122.3884997 134.4729988
  27.4890012 123.3964997 134.7709988  27.8848921 122.6382968 134.9303561
  32.2430012 120.3594997 140.0749988  32.4360012 119.4284997 139.9629988
  33.1010012 120.7844997 140.0639988  32.3852934 120.2896531 140.0582031
  33.5600012 123.1484997 138.1519988  33.2790012 123.8574997 137.5739988
  34.5030012 123.0754997 138.0009988  33.6489291 123.2356711 138.0524967
  24.3120012 119.9334997 139.2259988  23.5450012 119.4014997 139.0149988
  24.9910012 119.6234997 138.6259988  24.2987877 119.8188300 139.1160716
  27.0520012 114.5614997 135.2379988  26.9530012 115.5084997 135.1329988
  26.3090012 114.1894997 134.7619988  26.9381184 114.6405863 135.1593621
  28.3160012 118.8834997 138.8019988  28.0800012 118.6634997 139.7029988
  27.5320012 118.6764997 138.2919988  28.1778504 118.8254586 138.8563431
  31.0310012 118.0104997 137.8769988  30.0840012 118.0424997 138.0099988
  31.3440012 117.3854997 138.5309988  30.9436707 117.9303998 137.9836060
  32.6650012 116.6444997 139.8829988  32.5690012 115.6924997 139.8769988
  32.3440012 116.9134997 140.7429988  32.6084070 116.5504035 139.9985441
  22.4920012 117.8544997 138.9299988  22.7040012 117.1474997 138.3199988
  22.3810012 117.4164997 139.7739988  22.5059721 117.6987084 138.9606843
  27.2730012 113.8554997 137.9089988  27.9850012 113.2154997 137.8949988
  27.1720012 114.1224997 136.9959988  27.3568066 113.8040079 137.7835677
  27.6270012 115.5384997 139.9629988  27.4950012 115.0624997 139.1429988
  27.0280012 116.2824997 139.9079988  27.5279071 115.5739618 139.8432886
  27.1730012 132.4214997 123.1389988  28.1060012 132.5794997 123.2829988
  26.9090012 133.0964997 122.5149988  27.2649888 132.5344510 123.0742842
  20.7420012 127.0574997 122.6219988  21.6560012 127.1364997 122.8959988
  20.7490012 126.3704997 121.9559988  20.8681131 126.9753961 122.5694393
  19.3910012 132.4504997 127.6999988  18.7440012 131.9884997 127.1669988
  19.7450012 131.7784997 128.2819988  19.3503849 132.2964723 127.7057959
  20.2610012 130.5314997 129.5039988  19.9260012 129.6514997 129.6759988
  20.4830012 130.8764997 130.3689988  20.2451783 130.4577500 129.6444208
  37.8090012 131.3404997 132.4849988  37.7880012 131.5254997 133.4239988
  38.5000012 131.9094997 132.1439988  37.8994618 131.4426606 132.5673864
  37.3730012 130.9084997 135.4069988  36.8850012 130.1724997 135.0349988
  37.9220012 130.5144997 136.0849988  37.3804820 130.7545889 135.4477813
  35.8230012 126.6974997 140.0449988  34.9570012 126.5924997 140.4389988
  36.2000012 127.4564997 140.4909988  35.7553308 126.7856900 140.1592393
  37.1240012 124.9544997 125.5589988  37.9740012 125.3754997 125.6859988
  37.1300012 124.2144997 126.1659988  37.2411372 124.9120803 125.6584344
  37.5190012 123.0074997 127.3819988  36.7920012 122.5284997 127.7799988
  38.1000012 123.2134997 128.1149988  37.4980473 122.9698103 127.5354528
  37.2780012 125.7924997 132.3299988  38.1110012 125.4144997 132.0499988
  37.3900012 126.7354997 132.2109988  37.4072647 125.8682218 132.2755487
  35.7640012 128.6704997 134.6369988  35.1170012 128.9954997 135.2629988
  35.2470012 128.2304997 133.9629988  35.6054029 128.6555004 134.6315827
  37.7870012 122.9084997 123.7739988  37.2650012 123.2654997 123.0549988
  37.7540012 123.5834997 124.4519988  37.7111634 123.0485413 123.7673145
  36.1360012 120.1484997 122.3239988  36.2320012 120.8154997 121.6439988
  35.9960012 119.3324997 121.8429988  36.1302272 120.1295655 122.1658347
  35.3050012 121.5284997 127.9449988  35.1550012 120.5834997 127.9249988
  34.9520012 121.8094997 128.7889988  35.2367448 121.4371481 128.0563705
  20.3410012 123.6064997 131.9559988  20.5250012 123.5244997 131.0199988
  21.1900012 123.4824997 132.3789988  20.4810151 123.5785073 131.8851451
  36.1620012 123.4984997 137.5839988  36.7450012 122.7644997 137.7759988
  36.7260012 124.2704997 137.6309988  36.3179769 123.5024227 137.6166159
  37.6580012 121.4014997 138.2689988  36.7950012 121.0224997 138.1029988
  38.2630012 120.6624997 138.1939988  37.6216119 121.2498268 138.2361528
  35.3830012 117.5564997 121.4419988  35.9940012 117.1854997 122.0789988
  34.5470012 117.1354997 121.6379988  35.3535032 117.4487554 121.5557035
  35.0160012 119.1114997 126.4079988  35.2960012 118.2044997 126.5319988
  35.7750012 119.5454997 126.0189988  35.1569277 119.0460942 126.3723682
  35.6280012 119.6924997 131.8439988  36.5610012 119.9044997 131.8089988
  35.3930012 119.7944997 132.7659988  35.7239244 119.7353100 131.9638892
  35.6570012 120.4294997 134.6199988  34.8140012 120.6974997 134.9859988
  36.0990012 121.2514997 134.4089988  35.6014158 120.5773291 134.6415491
  19.9380012 118.8774997 138.0969988  20.8580012 118.7554997 138.3329988
  19.4890012 118.1274997 138.4859988  20.0031580 118.7593727 138.1819006
  37.9400012 114.4094997 139.9729988  38.2900012 113.7554997 139.3679988
  38.0870012 115.2464997 139.5329988  38.0077887 114.4331548 139.8306858
  35.6290012 116.3744997 126.4559988  35.8120012 115.9254997 127.2819988
  35.0300012 115.7894997 125.9929988  35.5730202 116.2339975 126.5063275
  21.1590012 117.1894997 130.9879988  21.6050012 116.3974997 131.2899988
  21.6260012 117.9054997 131.4179988  21.2830831 117.1780685 131.0874006
  19.4630012 120.1884997 132.0569988  19.9550012 119.9674997 131.2659988
  19.8260012 121.0294997 132.3379988  19.5793126 120.2718357 131.9867531
  37.4600012 116.5184997 138.3219988  36.5420012 116.7894997 138.2869988
  37.5830012 115.9834997 137.5379988  37.3509729 116.4832508 138.2111923
  37.4960012 116.4414997 122.9839988  37.9080012 115.7204997 122.5089988
  38.1780012 117.1114997 123.0429988  37.6445885 116.4332368 122.9268915
  19.7770012 116.4464997 126.1109988  18.8520012 116.6554997 125.9819988
  20.2310012 116.9304997 125.4209988  19.7117292 116.5405343 126.0000720
  34.5480012 131.4304997 128.0569988  35.2000012 131.0834997 127.4489988
  35.0580012 131.9194997 128.7029988  34.7062637 131.4490597 128.0610236
  19.7410012 115.1844997 134.4549988  19.0760012 114.9384997 135.0989988
  19.2980012 115.8064997 133.8779988  19.5901318 115.2349410 134.4650898
  21.9330012 128.3594997 138.5999988  21.1120012 128.5344997 138.1389988
  21.6800012 128.2864997 139.5199988  21.7865585 128.3735544 138.6613561
  24.8870012 129.3344997 134.8579988  24.4620012 130.1434997 134.5759988
  25.7910012 129.4194997 134.5559988  24.9509975 129.4569300 134.7784816
  29.1980012 130.7334997 137.8179988  29.3830012 130.3994997 138.6959988
  30.0440012 131.0424997 137.4959988  29.3377539 130.7296047 137.8945605
  31.5430012 132.0194997 137.0619988  32.2200012 131.3864997 136.8219988
  31.8650012 132.4204997 137.8689988  31.6791637 131.9871154 137.1382793
  36.4600012 114.6084997 136.1409988  35.6480012 114.9334997 135.7539988
  36.6930012 113.8484997 135.6079988  36.3802203 114.5502758 136.0158880
  22.2890012 132.5904997 134.9059988  21.5680012 133.0304997 134.4549988
  21.9230012 132.3394997 135.7539988  22.1409651 132.6167242 134.9589640
  24.7560012 132.1904997 133.9359988  23.8910012 132.2624997 134.3399988
  24.7010012 132.7374997 133.1519988  24.6302085 132.2742685 133.8853362
  29.4660012 132.0784997 133.1109988  29.0100012 132.6074997 132.4569988
  29.6290012 132.6814997 133.8359988  29.4256068 132.2324607 133.1194838
  31.7940012 130.9564997 134.0559988  30.8890012 131.1214997 133.7899988
  32.2230012 131.8094997 133.9909988  31.7281324 131.0944339 134.0107976
  34.3980012 132.5264997 134.3509988  34.2160012 133.4424997 134.1409988
  34.5750012 132.1164997 133.5049988  34.3970210 132.5964822 134.2077885
  21.7030012 131.2134997 131.8159988  21.6850012 130.7884997 132.6729988
  22.5080012 130.8954997 131.4069988  21.8093529 131.1123013 131.8780946
  23.8450012 129.9234997 130.4709988  23.6260012 129.0074997 130.6409988
  24.6690012 130.0634997 130.9369988  23.9264420 129.8170520 130.5572773
  26.3820012 130.3934997 131.3199988  26.5950012 129.5054997 131.0329988
  26.4460012 130.3594997 132.2739988  26.4198231 130.2673102 131.4097397
  29.8900012 116.0574997 130.4639988  29.2160012 115.4284997 130.7199988
  30.4540012 115.5734997 129.8609988  29.8739230 115.9058744 130.4175340
  35.0330012 114.1654997 130.5769988  35.6370012 114.7124997 130.0749988
  34.1630012 114.4844997 130.3359988  34.9981208 114.2835137 130.4756886
  36.7600012 115.3034997 128.9099988  37.3720012 114.7894997 128.3829988
  37.1420012 116.1814997 128.9329988  36.8953371 115.3517866 128.8410041
  22.2170012 114.6914997 128.2859988  21.4400012 114.4574997 127.7789988
  22.7470012 113.8944997 128.2949988  22.1822330 114.5516988 128.2177742
  21.0530012 114.4894997 124.0899988  21.4920012 115.1004997 123.4979988
  20.4200012 115.0274997 124.5639988  21.0274514 114.6459257 124.0730930
  26.7960012 114.6184997 128.0999988  27.6710012 115.0064997 128.0699988
  26.6600012 114.4034997 129.0219988  26.8973695 114.6425184 128.2206440
  32.3530012 114.6484997 129.7489988  32.4290012 114.7434997 128.7989988
  32.0780012 113.7404997 129.8779988  32.3262321 114.5387867 129.6365079
  33.7060012 114.6744997 125.4409988  33.0040012 115.2894997 125.2309988
  33.2620012 113.8364997 125.5719988  33.5496450 114.6455639 125.4299000
  20.9540012 130.4374997 124.9869988  20.2690012 130.3994997 124.3199988
  20.9580012 131.3504997 125.2759988  20.8606998 130.5556733 124.9346771
  22.9140012 116.4054997 122.5319988  23.4060012 115.7754997 122.0049988
  23.5380012 116.7014997 123.1949988  23.0655688 116.3593804 122.5495482
  27.9400012 116.6984997 124.9889988  28.1180012 116.0524997 125.6719988
  27.8870012 117.5324997 125.4559988  27.9571999 116.7228009 125.1455917
  29.8190012 131.6474997 123.3849988  30.6850012 132.0134997 123.2069988
  29.5720012 131.2074997 122.5709988  29.9042392 131.6381756 123.2506289
  36.5280012 131.2104997 126.0639988  36.3330012 130.4624997 125.4989988
  36.4890012 131.9684997 125.4809988  36.4960380 131.2106099 125.9078384
  22.1750012 115.2054997 137.8039988  21.8090012 114.4404997 138.2459988
  23.0880012 115.2344997 138.0899988  22.2482736 115.1045640 137.9032502
  24.1480012 114.5564997 139.3399988  25.0460012 114.2824997 139.1549988
  23.7610012 113.8134997 139.8039988  24.2186612 114.4185914 139.3773643
  22.7720012 131.3574997 122.0129988  22.5050012 131.6444997 122.8859988
  23.5440012 130.8114997 122.1649988  22.8397488 131.3230294 122.1531050
  32.5690012 113.8884997 139.5219988  32.6460012 113.4624997 140.3759988
  33.4630012 113.9024997 139.1789988  32.7003428 113.8320879 139.5925310
  35.7450012 129.9614997 138.2139988  34.9630012 129.7754997 137.6939988
  35.6730012 130.8904997 138.4319988  35.6282274 130.0616643 138.1723018
  50.1510012 123.8474997 128.2449988  50.2400012 124.7914997 128.1129988
  49.5130012 123.5724997 127.5869988  50.0769081 123.9394830 128.1379614
  49.0840012 123.1024997 131.6639988  49.0460012 122.4564997 132.3689988
  48.7620012 122.6364997 130.8929988  49.0352333 122.9509408 131.6562978
  41.4530012 122.7174997 133.2569988  41.4940012 122.0914997 133.9799988
  42.1560012 123.3414997 133.4389988  41.5536363 122.7161196 133.3806044
  52.7900012 126.0414997 129.9649988  52.3500012 125.3214997 130.4159988
  52.7770012 126.7624997 130.5949988  52.7280226 126.0403731 130.1118494
  42.3760012 127.1674997 131.7919988  42.0070012 126.3654997 131.4219988
  43.3170012 126.9984997 131.8379988  42.4527289 127.0350153 131.7476316
  38.9860012 120.8274997 127.1849988  38.5390012 121.6734997 127.1659988
  38.4250012 120.2474997 126.6689988  38.8489900 120.8649916 127.1126801
  39.6970012 122.9894997 129.3099988  39.9100012 122.2194997 129.8379988
  40.4350012 123.0784997 128.7069988  39.8259044 122.8961968 129.3007123
  49.9020012 131.1464997 130.1769988  50.5220012 130.4694997 129.9039988
  49.6940012 130.9284997 131.0859988  49.9586726 131.0244800 130.2624812
  47.4740012 125.5354997 132.0699988  47.7780012 124.8494997 131.4749988
  48.1950012 125.6534997 132.6879988  47.6130671 125.4576304 132.0721816
  56.1370012 117.1364997 132.9309988  56.1860012 117.7464997 133.6659988
  56.5620012 117.5974997 132.2079988  56.2011746 117.2823796 132.9339175
  50.6150012 119.9294997 132.3969988  50.7570012 118.9834997 132.4179988
  50.5080012 120.1364997 131.4689988  50.6199919 119.8278246 132.2743408
  43.7690012 118.0304997 129.6699988  43.8130012 118.8904997 129.2509988
  43.3120012 117.4784997 129.0359988  43.7132240 118.0734422 129.5269864
  51.4920012 118.1614997 128.0709988  52.1380012 117.8324997 128.6949988
  52.0020012 118.6794997 127.4479988  51.6494299 118.1864450 128.0722731
  40.3900012 120.4274997 130.4319988  41.0430012 119.8774997 130.8639988
  40.4140012 120.1534997 129.5149988  40.4826683 120.3151466 130.3672123
  45.5460012 121.9774997 129.6469988  46.1620012 121.4514997 130.1569988
  44.9600012 121.3374997 129.2439988  45.5510810 121.8189208 129.6623173
  56.5280012 118.6144997 135.1659988  55.8400012 119.2724997 135.0709988
  56.5440012 118.4174997 136.1029988  56.4359540 118.6779819 135.2795990
  42.5800012 116.9484997 133.7439988  42.3610012 117.4784997 132.9779988
  41.9120012 117.1754997 134.3909988  42.4597600 117.0516906 133.7266379
  49.9490012 126.4484997 127.2879988  49.6530012 126.1264997 126.4369988
  49.6240012 127.3484997 127.3289988  49.8646371 126.5260215 127.1771801
  45.1490012 124.6244997 134.0309988  44.4090012 125.2224997 134.1349988
  45.8630012 125.1784997 133.7159988  45.1442237 124.7812831 134.0026465
  53.2560012 117.4524997 130.0509988  53.0400012 116.6864997 130.5839988
  53.9110012 117.9244997 130.5639988  53.3150632 117.4115889 130.1932861
  42.1730012 118.8404997 131.6959988  42.7870012 119.4734997 132.0689988
  42.6850012 118.3684997 131.0399988  42.3261981 118.8632267 131.6582908
  43.5560012 126.5884997 134.8179988  43.5510012 127.4684997 134.4399988
  42.7030012 126.5054997 135.2429988  43.4399464 126.6976117 134.8237907
  39.6770012 126.2594997 125.5999988  39.4050012 126.4884997 124.7119988
  39.7230012 127.0974997 126.0609988  39.6459482 126.4041318 125.5406273
  53.3020012 127.8814997 132.3129988  52.3610012 127.9394997 132.4749988
  53.5790012 128.7874997 132.1759988  53.2104679 128.0119443 132.3166815
  53.6030012 116.1674997 133.7309988  52.8670012 116.7784997 133.6929988
  54.2860012 116.5824997 133.2039988  53.5946541 116.3071374 133.6545832
  46.6060012 114.2544997 131.1959988  46.4890012 113.3054997 131.1419988
  45.7510012 114.5864997 131.4699988  46.4744212 114.1695571 131.2256497
  51.5540012 129.6624997 128.9379988  51.9800012 128.9554997 128.4529988
  51.8710012 130.4634997 128.5219988  51.6551683 129.6741017 128.8153680
  52.7140012 127.5634997 127.4469988  52.4560012 126.8734997 126.8359988
  52.7850012 127.1204997 128.2929988  52.6882856 127.4092124 127.4776885
  54.4000012 126.1294997 135.9239988  54.5400012 125.5384997 135.1849988
  54.5670012 127.0024997 135.5679988  54.4417411 126.1665428 135.7746894
  48.8730012 123.0914997 125.6969988  48.1610012 123.6264997 125.3449988
  49.5640012 123.1474997 125.0369988  48.8690132 123.1722543 125.5596289
  48.9260012 121.5494997 122.7359988  49.6270012 121.5714997 123.3869988
  49.2290012 120.9214997 122.0789988  49.0628133 121.4677070 122.7363369
  56.2420012 122.4694997 133.9899988  55.5890012 123.1644997 134.0799988
  56.7070012 122.6794997 133.1809988  56.2155274 122.5930643 133.8928462
  52.2780012 123.3014997 126.6489988  51.5460012 123.5294997 127.2219988
  52.7260012 122.5874997 127.1029988  52.2382725 123.2362145 126.7888816
  52.1760012 121.4754997 135.7159988  52.2560012 122.2384997 136.2879988
  51.5740012 121.7544997 135.0259988  52.1055756 121.6177134 135.7010589
  43.9240012 123.9314997 128.5309988  43.5930012 123.5614997 127.7129988
  44.5120012 123.2614997 128.8779988  43.9581873 123.7901156 128.4658102
  45.2900012 127.3594997 131.2119988  45.1960012 126.7814997 130.4559988
  46.0200012 126.9884997 131.7089988  45.3757387 127.2301663 131.1755342
  44.2900012 122.7004997 132.1649988  44.8560012 122.8214997 131.4019988
  44.6090012 123.3374997 132.8029988  44.4105474 122.8032219 132.1469862
  50.5990012 128.2034997 132.8989988  50.3590012 128.8654997 133.5469988
  50.4010012 127.3694997 133.3239988  50.5393808 128.1813134 133.0451524
  45.1700012 127.0994997 136.8819988  44.8590012 127.8814997 137.3369988
  44.5200012 126.9464997 136.1959988  45.0395558 127.1859105 136.8515871
  51.1490012 122.4634997 124.3339988  51.7290012 122.6134997 125.0809988
  51.5630012 122.9344997 123.6099988  51.2842997 122.5476578 124.3384058
  42.0900012 123.2974997 136.1099988  42.1610012 123.9484997 136.8089988
  41.2000012 123.4004997 135.7749988  41.9793005 123.4005427 136.1603495
  48.8760012 129.2004997 127.7689988  49.3500012 129.4954997 128.5459988
  48.3130012 129.9384997 127.5359988  48.8648184 129.3407247 127.8439628
  43.4100012 129.1714997 137.6449988  43.4170012 129.0354997 136.6979988
  42.4940012 129.0534997 137.8969988  43.2871714 129.1369430 137.5494666
  54.8480012 114.2134997 124.1469988  53.9480012 114.3524997 124.4419988
  55.1000012 115.0444997 123.7449988  54.7588702 114.3449074 124.1330205
  42.9140012 123.0014997 126.1199988  42.6220012 123.7694997 125.6299988
  42.2400012 122.3414997 125.9579988  42.7828111 123.0175587 126.0308978
  56.0370012 128.5794997 122.5229988  56.1110012 129.5184997 122.6939988
  56.9430012 128.2744997 122.4669988  56.1695100 128.6666722 122.5388119
  39.0070012 125.3644997 134.9349988  38.5060012 125.3364997 134.1199988
  39.0120012 124.4584997 135.2449988  38.9390944 125.2382396 134.8653226
  38.7570012 128.1444997 131.8189988  39.7030012 128.0004997 131.7999988
  38.6450012 128.9284997 132.3559988  38.8712727 128.2308046 131.8890072
  56.9550012 128.8104997 137.5019988  56.9060012 127.8554997 137.4649988
  56.1280012 129.0784997 137.9029988  56.8364940 128.7158998 137.5511375
  47.9340012 128.3844997 136.3779988  48.0210012 129.2104997 136.8529988
  47.0700012 128.0544997 136.6269988  47.8291964 128.4529878 136.4766549
  48.3480012 132.1564997 126.1839988  48.2730012 132.0354997 125.2369988
  48.3810012 133.1064997 126.3019988  48.3422068 132.2682646 126.0704967
  42.0010012 130.9454997 127.9649988  42.1540012 130.5974997 128.8429988
  41.1510012 130.5894997 127.7099988  41.9069166 130.8496216 128.0508079
  51.4500012 131.3104997 123.1859988  51.8250012 130.5664997 122.7149988
  51.4540012 131.0404997 124.1049988  51.5019125 131.1720986 123.2456483
  51.1190012 131.2364997 125.9349988  50.1830012 131.3364997 126.1139988
  51.3990012 130.5274997 126.5139988  51.0289553 131.1543406 126.0377087
  54.1070012 120.3034997 137.9819988  53.7000012 120.7844997 137.2609988
  54.1480012 119.3984997 137.6739988  54.0568437 120.2469374 137.8416683
  41.2560012 126.6874997 135.9789988  41.4720012 126.3264997 136.8379988
  40.4010012 126.3134997 135.7689988  41.1699292 126.5874111 136.0683386
  43.8750012 115.1574997 131.9739988  43.0130012 115.0704997 131.5659988
  43.8520012 116.0134997 132.4019988  43.7540409 115.2612883 131.9760589
  48.5380012 114.8794997 135.3489988  48.9580012 114.4644997 136.1019988
  47.6050012 114.7014997 135.4659988  48.4693644 114.7985900 135.4679539
  51.8640012 118.6354997 136.2019988  51.3500012 118.5094997 136.9999988
  51.7090012 119.5474997 135.9579988  51.7726852 118.7416132 136.2782158
  52.6270012 123.4964997 121.9639988  52.6690012 123.2734997 121.0339988
  53.4760012 123.8954997 122.1529988  52.7475280 123.5199438 121.8623554
  48.1990012 117.3724997 122.6339988  47.9460012 117.3914997 123.5569988
  47.9430012 116.5004997 122.3319988  48.1297481 117.2572558 122.7196175
  43.9660012 120.1234997 133.0689988  43.3240012 120.0824997 133.7779988
  44.0030012 121.0494997 132.8309988  43.8830664 120.2431430 133.1339219
  43.9630012 120.3444997 127.9809988  43.0700012 120.0034997 127.9219988
  44.4130012 119.9674997 127.2249988  43.9018130 120.2469631 127.8707702
  49.4980012 120.7604997 126.7979988  49.0890012 121.5754997 126.5069988
  50.2190012 120.6204997 126.1839988  49.5394537 120.8532018 126.6751342
  48.6000012 120.9354997 138.2859988  48.0380012 120.2314997 138.6069988
  49.4270012 120.8154997 138.7539988  48.6347095 120.8227883 138.3932330
  50.5030012 120.2064997 129.6119988  50.3080012 120.8114997 128.8969988
  50.6840012 119.3724997 129.1779988  50.5007614 120.1766300 129.4554405
  41.7160012 120.4434997 134.9359988  41.6780012 120.8434997 135.8049988
  41.2250012 119.6264997 135.0269988  41.6444684 120.3878069 135.0671059
  45.0820012 117.8174997 121.7349988  44.6510012 117.3724997 122.4649988
  44.3640012 118.1894997 121.2229988  44.9259438 117.8068940 121.7656799
  38.3240012 117.5594997 128.7869988  38.9550012 117.5304997 129.5059988
  38.7730012 117.1344997 128.0559988  38.4710918 117.4980836 128.7866441
  39.5980012 118.3054997 124.2109988  40.0720012 118.8964997 123.6259988
  38.8810012 118.8364997 124.5579988  39.5659341 118.4580867 124.1778836
  49.7670012 121.8444997 134.2829988  50.0900012 121.2134997 133.6399988
  49.3270012 121.3094997 134.9439988  49.7517484 121.6858387 134.2843198
  46.5440012 117.7714997 129.0669988  45.6330012 117.8284997 129.3559988
  47.0500012 117.7114997 129.8779988  46.4876899 117.7711941 129.2161184
  41.3730012 119.4004997 127.8939988  40.4830012 119.5004997 127.5539988
  41.6690012 118.5584997 127.5479988  41.2912823 119.3003546 127.8007213
  45.0260012 119.4004997 125.5509988  45.9570012 119.5294997 125.7289988
  44.8110012 120.0704997 124.9009988  45.1244247 119.5086565 125.4875747
  50.9490012 117.0064997 132.3319988  50.2730012 117.1374997 132.9959988
  50.4640012 116.8514997 131.5209988  50.7907146 117.0035157 132.3134469
  43.7000012 120.5954997 123.1169988  43.1570012 120.2154997 122.4259988
  44.5330012 120.7894997 122.6889988  43.7383631 120.5697125 122.9644501
  54.2370012 132.6784997 138.6079988  54.4370012 133.1024997 137.7739988
  54.8920012 133.0214997 139.2149988  54.3530072 132.7829857 138.5758592
  41.8350012 125.1524997 138.2159988  42.5670012 125.4064997 138.7779988
  41.0550012 125.3564997 138.7319988  41.8297073 125.2148160 138.3626151
  47.8640012 120.5594997 130.9539988  48.4290012 120.0124997 130.4069988
  47.7170012 120.0374997 131.7429988  47.9213380 120.4142259 130.9858695
  42.8660012 116.6954997 127.3729988  42.5490012 115.7934997 127.3369988
  43.6480012 116.6974997 126.8199988  42.9282408 116.5722474 127.2933569
  46.4910012 118.9474997 133.3679988  45.6550012 119.4014997 133.4789988
  47.0150012 119.2234997 134.1199988  46.4475416 119.0468660 133.4848119
  47.0350012 125.1604997 125.0529988  46.2900012 124.6534997 124.7309988
  46.9010012 125.2094997 125.9999988  46.9148776 125.0976940 125.1368647
  54.1850012 124.2934997 133.8399988  54.8270012 124.7504997 133.2959988
  53.3550012 124.4064997 133.3769988  54.1605963 124.3712704 133.7030177
  50.9330012 117.9744997 123.2519988  49.9940012 118.0864997 123.1009988
  51.2300012 118.8314997 123.5589988  50.8447583 118.1055981 123.2728337
  48.5540012 125.3444997 136.2899988  48.2090012 124.9634997 137.0969988
  48.3540012 126.2784997 136.3609988  48.4797527 125.4185135 136.4100689
  51.6510012 119.8414997 124.9129988  52.5430012 119.7044997 125.2319988
  51.7080012 120.6324997 124.3759988  51.7806504 119.9296052 124.8840818
  42.1600012 124.4554997 130.8229988  42.9050012 124.4534997 130.2219988
  42.2380012 123.6324997 131.3039988  42.2724995 124.3438887 130.8058282
  49.1610012 126.6194997 124.0789988  48.8650012 127.4454997 124.4599988
  48.4580012 125.9994997 124.2749988  49.0254914 126.6488199 124.1576443
  39.1680012 122.9164997 136.1379988  39.3910012 122.4984997 136.9699988
  38.5660012 122.3034997 135.7149988  39.1171759 122.7764668 136.1947022
  46.1840012 122.4334997 138.3509988  45.8880012 122.2674997 137.4559988
  47.1160012 122.2134997 138.3399988  46.2694166 122.3810640 138.2270536
  50.8050012 127.8064997 136.2409988  49.9040012 127.9894997 135.9729988
  50.8390012 128.0654997 137.1609988  50.6863139 127.8665849 136.3288099
  56.5360012 120.0514997 124.6079988  55.9820012 119.6554997 123.9359988
  56.6360012 120.9614997 124.3299988  56.4737059 120.1203586 124.4784401
  56.4990012 125.8514997 137.4449988  55.6480012 126.0894997 137.0779988
  57.0900012 125.8344997 136.6919988  56.4622487 125.8818258 137.2928893
  54.8310012 128.8374997 125.0729988  54.4580012 128.0114997 125.3819988
  55.1090012 128.6544997 124.1749988  54.8175222 128.6997430 124.9939473
  51.9920012 123.6454997 132.0939988  51.0630012 123.4134997 132.0669988
  52.4430012 122.8684997 131.7639988  51.9259216 123.5087238 132.0456917
  44.5350012 127.9734997 128.2269988  45.0620012 128.7464997 128.0269988
  43.6550012 128.1984997 127.9249988  44.4882031 128.1097545 128.1587912
  40.2900012 122.8354997 122.8139988  40.9060012 123.4624997 123.1939988
  39.4280012 123.1514997 123.0859988  40.2577698 122.9639430 122.9027183
  45.9620012 125.6364997 127.8029988  45.7210012 126.5614997 127.8449988
  45.2210012 125.1774997 128.1999988  45.8289225 125.7010933 127.8623742
  46.4770012 129.7854997 134.1189988  46.8390012 130.6404997 133.8849988
  47.0080012 129.4934997 134.8589988  46.5984473 129.8631060 134.1870855
  44.6450012 130.6584997 127.3489988  43.6950012 130.7634997 127.3999988
  44.9970012 131.4784997 127.6929988  44.5624195 130.7838800 127.4025502
  50.0210012 125.8844997 133.8189988  49.5950012 125.6574997 134.6459988
  50.6010012 125.1464997 133.6369988  50.0411868 125.7535299 133.9075830
  52.2240012 126.8134997 122.8929988  52.5770012 126.4334997 123.6969988
  51.2750012 126.7204997 122.9799988  52.1440918 126.7488956 123.0148532
  52.6790012 130.4364997 136.2889988  52.0780012 129.8814997 135.7929988
  52.9610012 131.1034997 135.6619988  52.6348804 130.4506625 136.1364849
  56.7270012 131.2934997 123.0939988  57.4710012 131.8794997 122.9539988
  56.0330012 131.8614997 123.4269988  56.7349899 131.4505798 123.1198778
  40.8020012 117.6694997 135.6959988  39.9090012 118.0084997 135.6279988
  40.7030012 116.8144997 136.1139988  40.6664164 117.6002588 135.7432235
  53.0900012 125.4864997 125.1199988  52.8120012 124.7584997 125.6759988
  54.0170012 125.6054997 125.3249988  53.1773124 125.4028802 125.2238845
  40.4530012 129.4744997 134.1309988  40.6700012 128.5424997 134.0999988
  40.6990012 129.7484997 135.0139988  40.5159549 129.3840636 134.2461763
  46.3150012 127.9254997 121.3399988  46.5540012 127.1774997 120.7929988
  46.0460012 127.5374997 122.1729988  46.3113675 127.7706638 121.3776865
  45.2520012 127.4954997 123.7959988  45.3980012 126.9754997 124.5859988
  45.2490012 128.4024997 124.1029988  45.2715792 127.5468842 123.9456117
  41.7050012 124.7484997 124.3069988  41.0190012 125.1004997 124.8739988
  42.2270012 125.5114997 124.0599988  41.6816852 124.8998578 124.3512118
  49.5360012 117.4104997 134.5859988  50.2350012 117.4844997 135.2359988
  49.1550012 116.5464997 134.7399988  49.5801767 117.3037624 134.6958322
  50.3210012 117.0624997 125.6829988  50.5410012 117.5344997 124.8799988
  50.8790012 117.4574997 126.3529988  50.4264968 117.1804285 125.6637331
  47.9890012 129.1934997 124.5459988  47.1730012 129.6904997 124.5979988
  48.5190012 129.6684997 123.9059988  47.9489161 129.3257722 124.4665956
  47.5210012 118.7904997 126.5179988  48.3330012 119.2954997 126.5639988
  47.2760012 118.6454997 127.4319988  47.5990520 118.8400375 126.6478517
  48.0560012 119.7764997 135.7019988  48.1750012 120.3504997 136.4599988
  48.7120012 119.0884997 135.8169988  48.1609025 119.7619858 135.8211321
  48.4040012 115.8714997 127.4559988  48.0580012 116.4894997 128.0999988
  49.0630012 116.3724997 126.9739988  48.4456968 116.0236278 127.4789383
  45.3280012 130.2374997 124.5269988  45.4880012 131.0364997 124.0269988
  45.1300012 130.5434997 125.4119988  45.3231637 130.3884020 124.5781144
  44.0620012 116.9344997 124.1429988  43.9790012 117.8234997 124.4899988
  44.9520012 116.6694997 124.3749988  44.1709469 117.0201430 124.2217626
  54.2610012 117.6834997 136.5369988  53.3440012 117.9464997 136.4499988
  54.5960012 117.6804997 135.6409988  54.1808613 117.7190761 136.4038837
  52.8630012 121.4344997 130.6329988  52.0650012 121.0194997 130.3049988
  53.3080012 120.7434997 131.1239988  52.8139885 121.2843543 130.6544889
  42.3210012 127.3624997 123.2039988  42.9130012 128.0614997 123.4799988
  42.7800012 126.9294997 122.4839988  42.4641142 127.3997049 123.1444830
  40.6370012 120.0264997 122.3199988  40.5920012 120.9654997 122.4979988
  39.7490012 119.7904997 122.0499988  40.5108574 120.1231892 122.3078912
  53.9490012 130.6904997 132.2559988  53.7940012 131.3684997 131.5979988
  54.8820012 130.7624997 132.4589988  54.0538657 130.7929546 132.1934360
  41.4450012 114.8084997 130.9929988  41.2160012 114.8674997 130.0649988
  41.0020012 114.0164997 131.2989988  41.3538530 114.7095753 130.9074786
  40.3750012 128.7484997 127.1529988  39.5430012 129.2214997 127.1799988
  40.9210012 129.2584997 126.5549988  40.3350352 128.8821332 127.0758463
  39.6630012 131.3614997 138.4829988  40.2040012 131.1444997 139.2429988
  39.1820012 130.5554997 138.2929988  39.6719951 131.2229270 138.5612576
  44.2610012 130.2804997 140.1029988  45.0280012 129.8214997 140.4439988
  44.2390012 130.0544997 139.1739988  44.3631275 130.1870186 140.0240101
  48.3530012 129.7884997 121.4789988  47.7090012 129.1574997 121.7999988
  49.1150012 129.2574997 121.2469988  48.3678077 129.6302920 121.4916011
  50.8380012 128.6604997 138.8329988  50.4870012 127.8044997 139.0759988
  51.5640012 128.8034997 139.4399988  50.8880769 128.5625636 138.9483619
  52.9570012 129.6054997 121.7119988  53.2400012 128.8114997 122.1649988
  53.6970012 129.8384997 121.1519988  53.0958006 129.5283376 121.6982715
  39.5700012 125.1714997 139.4369988  39.7140012 124.2694997 139.1509988
  38.7980012 125.4574997 138.9499988  39.4852753 125.0866816 139.3319505
  43.9120012 125.5154997 121.5699988  43.9760012 124.7214997 122.1009988
  44.5650012 125.3964997 120.8799988  44.0090241 125.3907148 121.5494317
  46.2260012 125.1414997 138.8699988  45.8970012 125.4124997 138.0129988
  46.3780012 124.2004997 138.7829988  46.2014809 125.0513862 138.7408244
  49.2640012 126.5624997 121.3059988  48.9950012 126.7424997 122.2069988
  49.0580012 125.6364997 121.1739988  49.1993427 126.4620261 121.4115073
  51.9600012 125.0574997 136.2529988  52.7060012 125.6454997 136.1339988
  51.2030012 125.6394997 136.3169988  51.9597820 125.2167143 136.2453590
  40.4030012 122.3714997 138.8569988  40.8110012 121.5144997 138.7359988
  40.1430012 122.3864997 139.7779988  40.4237568 122.2560807 138.9649588
  45.0610012 123.4874997 123.8759988  44.6010012 123.0034997 124.5619988
  45.3160012 122.8194997 123.2399988  45.0324902 123.3308731 123.8839334
  44.3500012 121.3804997 136.2319988  43.7320012 122.0554997 136.5119988
  44.6940012 121.7014997 135.3979988  44.3119132 121.5162411 136.1576262
  46.1320012 121.7304997 122.1379988  45.9520012 121.5764997 121.2109988
  47.0820012 121.8384997 122.1829988  46.2357776 121.7240175 122.0171843
  49.3700012 123.8524997 139.5089988  50.3230012 123.9354997 139.4819988
  49.2090012 123.1404997 140.1289988  49.4786426 123.7676746 139.5890579
  55.5220012 124.0854997 121.5839988  55.2480012 123.6604997 120.7709988
  55.5610012 125.0164997 121.3669988  55.4897699 124.1532484 121.4433610
  44.6890012 118.7354997 137.3139988  44.8390012 118.0064997 136.7119988
  44.6920012 119.5124997 136.7549988  44.7099302 118.7407851 137.1560692
  45.1020012 117.1054997 134.8069988  45.6380012 117.5564997 134.1549988
  44.2500012 116.9974997 134.3839988  45.0602178 117.1526390 134.6605756
  46.6840012 122.5444997 135.0459988  47.4340012 122.3884997 134.4729988
  46.3450012 123.3964997 134.7709988  46.7408921 122.6382968 134.9303561
  51.0990012 120.3594997 140.0749988  51.2920012 119.4284997 139.9629988
  51.9570012 120.7844997 140.0639988  51.2412934 120.2896531 140.0582031
  52.4160012 123.1484997 138.1519988  52.1350012 123.8574997 137.5739988
  53.3590012 123.0754997 138.0009988  52.5049291 123.2356711 138.0524967
  43.1680012 119.9334997 139.2259988  42.4010012 119.4014997 139.0149988
  43.8470012 119.6234997 138.6259988  43.1547877 119.8188300 139.1160716
  45.9080012 114.5614997 135.2379988  45.8090012 115.5084997 135.1329988
  45.1650012 114.1894997 134.7619988  45.7941184 114.6405863 135.1593621
  47.1720012 118.8834997 138.8019988  46.9360012 118.6634997 139.7029988
  46.3880012 118.6764997 138.2919988  47.0338504 118.8254586 138.8563431
  49.8870012 118.0104997 137.8769988  48.9400012 118.0424997 138.0099988
  50.2000012 117.3854997 138.5309988  49.7996707 117.9303998 137.9836060
  51.5210012 116.6444997 139.8829988  51.4250012 115.6924997 139.8769988
  51.2000012 116.9134997 140.7429988  51.4644070 116.5504035 139.9985441
  41.3480012 117.8544997 138.9299988  41.5600012 117.1474997 138.3199988
  41.2370012 117.4164997 139.7739988  41.3619721 117.6987084 138.9606843
  46.1290012 113.8554997 137.9089988  46.8410012 113.2154997 137.8949988
  46.0280012 114.1224997 136.9959988  46.2128066 113.8040079 137.7835677
  46.4830012 115.5384997 139.9629988  46.3510012 115.0624997 139.1429988
  45.8840012 116.2824997 139.9079988  46.3839071 115.5739618 139.8432886
  46.0290012 132.4214997 123.1389988  46.9620012 132.5794997 123.2829988
  45.7650012 133.0964997 122.5149988  46.1209888 132.5344510 123.0742842
  39.5980012 127.0574997 122.6219988  40.5120012 127.1364997 122.8959988
  39.6050012 126.3704997 121.9559988  39.7241131 126.9753961 122.5694393
  38.2470012 132.4504997 127.6999988  37.6000012 131.9884997 127.1669988
  38.6010012 131.7784997 128.2819988  38.2063849 132.2964723 127.7057959
  39.1170012 130.5314997 129.5039988  38.7820012 129.6514997 129.6759988
  39.3390012 130.8764997 130.3689988  39.1011783 130.4577500 129.6444208
  56.6650012 131.3404997 132.4849988  56.6440012 131.5254997 133.4239988
  57.3560012 131.9094997 132.1439988  56.7554618 131.4426606 132.5673864
  56.2290012 130.9084997 135.4069988  55.7410012 130.1724997 135.0349988
  56.7780012 130.5144997 136.0849988  56.2364820 130.7545889 135.4477813
  54.6790012 126.6974997 140.0449988  53.8130012 126.5924997 140.4389988
  55.0560012 127.4564997 140.4909988  54.6113308 126.7856900 140.1592393
  55.9800012 124.9544997 125.5589988  56.8300012 125.3754997 125.6859988
  55.9860012 124.2144997 126.1659988  56.0971372 124.9120803 125.6584344
  56.3750012 123.0074997 127.3819988  55.6480012 122.5284997 127.7799988
  56.9560012 123.2134997 128.1149988  56.3540473 122.9698103 127.5354528
  56.1340012 125.7924997 132.3299988  56.9670012 125.4144997 132.0499988
  56.2460012 126.7354997 132.2109988  56.2632647 125.8682218 132.2755487
  54.6200012 128.6704997 134.6369988  53.9730012 128.9954997 135.2629988
  54.1030012 128.2304997 133.9629988  54.4614029 128.6555004 134.6315827
  56.6430012 122.9084997 123.7739988  56.1210012 123.2654997 123.0549988
  56.6100012 123.5834997 124.4519988  56.5671634 123.0485413 123.7673145
  54.9920012 120.1484997 122.3239988  55.0880012 120.8154997 121.6439988
  54.8520012 119.3324997 121.8429988  54.9862272 120.1295655 122.1658347
  54.1610012 121.5284997 127.9449988  54.0110012 120.5834997 127.9249988
  53.8080012 121.8094997 128.7889988  54.0927448 121.4371481 128.0563705
  39.1970012 123.6064997 131.9559988  39.3810012 123.5244997 131.0199988
  40.0460012 123.4824997 132.3789988  39.3370151 123.5785073 131.8851451
  55.0180012 123.4984997 137.5839988  55.6010012 122.7644997 137.7759988
  55.5820012 124.2704997 137.6309988  55.1739769 123.5024227 137.6166159
  56.5140012 121.4014997 138.2689988  55.6510012 121.0224997 138.1029988
  57.1190012 120.6624997 138.1939988  56.4776119 121.2498268 138.2361528
  54.2390012 117.5564997 121.4419988  54.8500012 117.1854997 122.0789988
  53.4030012 117.1354997 121.6379988  54.2095032 117.4487554 121.5557035
  53.8720012 119.1114997 126.4079988  54.1520012 118.2044997 126.5319988
  54.6310012 119.5454997 126.0189988  54.0129277 119.0460942 126.3723682
  54.4840012 119.6924997 131.8439988  55.4170012 119.9044997 131.8089988
  54.2490012 119.7944997 132.7659988  54.5799244 119.7353100 131.9638892
  54.5130012 120.4294997 134.6199988  53.6700012 120.6974997 134.9859988
  54.9550012 121.2514997 134.4089988  54.4574158 120.5773291 134.6415491
  38.7940012 118.8774997 138.0969988  39.7140012 118.7554997 138.3329988
  38.3450012 118.1274997 138.4859988  38.8591580 118.7593727 138.1819006
  56.7960012 114.4094997 139.9729988  57.1460012 113.7554997 139.3679988
  56.9430012 115.2464997 139.5329988  56.8637887 114.4331548 139.8306858
  54.4850012 116.3744997 126.4559988  54.6680012 115.9254997 127.2819988
  53.8860012 115.7894997 125.9929988  54.4290202 116.2339975 126.5063275
  40.0150012 117.1894997 130.9879988  40.4610012 116.3974997 131.2899988
  40.4820012 117.9054997 131.4179988  40.1390831 117.1780685 131.0874006
  38.3190012 120.1884997 132.0569988  38.8110012 119.9674997 131.2659988
  38.6820012 121.0294997 132.3379988  38.4353126 120.2718357 131.9867531
  56.3160012 116.5184997 138.3219988  55.3980012 116.7894997 138.2869988
  56.4390012 115.9834997 137.5379988  56.2069729 116.4832508 138.2111923
  56.3520012 116.4414997 122.9839988  56.7640012 115.7204997 122.5089988
  57.0340012 117.1114997 123.0429988  56.5005885 116.4332368 122.9268915
  38.6330012 116.4464997 126.1109988  37.7080012 116.6554997 125.9819988
  39.0870012 116.9304997 125.4209988  38.5677292 116.5405343 126.0000720
  53.4040012 131.4304997 128.0569988  54.0560012 131.0834997 127.4489988
  53.9140012 131.9194997 128.7029988  53.5622637 131.4490597 128.0610236
  38.5970012 115.1844997 134.4549988  37.9320012 114.9384997 135.0989988
  38.1540012 115.8064997 133.8779988  38.4461318 115.2349410 134.4650898
  40.7890012 128.3594997 138.5999988  39.9680012 128.5344997 138.1389988
  40.5360012 128.2864997 139.5199988  40.6425585 128.3735544 138.6613561
  43.7430012 129.3344997 134.8579988  43.3180012 130.1434997 134.5759988
  44.6470012 129.4194997 134.5559988  43.8069975 129.4569300 134.7784816
  48.0540012 130.7334997 137.8179988  48.2390012 130.3994997 138.6959988
  48.9000012 131.0424997 137.4959988  48.1937539 130.7296047 137.8945605
  50.3990012 132.0194997 137.0619988  51.0760012 131.3864997 136.8219988
  50.7210012 132.4204997 137.8689988  50.5351637 131.9871154 137.1382793
  55.3160012 114.6084997 136.1409988  54.5040012 114.9334997 135.7539988
  55.5490012 113.8484997 135.6079988  55.2362203 114.5502758 136.0158880
  41.1450012 132.5904997 134.9059988  40.4240012 133.0304997 134.4549988
  40.7790012 132.3394997 135.7539988  40.9969651 132.6167242 134.9589640
  43.6120012 132.1904997 133.9359988  42.7470012 132.2624997 134.3399988
  43.5570012 132.7374997 133.1519988  43.4862085 132.2742685 133.8853362
  48.3220012 132.0784997 133.1109988  47.8660012 132.6074997 132.4569988
  48.4850012 132.6814997 133.8359988  48.2816068 132.2324607 133.1194838
  50.6500012 130.9564997 134.0559988  49.7450012 131.1214997 133.7899988
  51.0790012 131.8094997 133.9909988  50.5841324 131.0944339 134.0107976
  53.2540012 132.5264997 134.3509988  53.0720012 133.4424997 134.1409988
  53.4310012 132.1164997 133.5049988  53.2530210 132.5964822 134.2077885
  40.5590012 131.2134997 131.8159988  40.5410012 130.7884997 132.6729988
  41.3640012 130.8954997 131.4069988  40.6653529 131.1123013 131.8780946
  42.7010012 129.9234997 130.4709988  42.4820012 129.0074997 130.6409988
  43.5250012 130.0634997 130.9369988  42.7824420 129.8170520 130.5572774
  45.2380012 130.3934997 131.3199988  45.4510012 129.5054997 131.0329988
  45.3020012 130.3594997 132.2739988  45.2758232 130.2673102 131.4097397
  48.7460012 116.0574997 130.4639988  48.0720012 115.4284997 130.7199988
  49.3100012 115.5734997 129.8609988  48.7299230 115.9058744 130.4175340
  53.8890012 114.1654997 130.5769988  54.4930012 114.7124997 130.0749988
  53.0190012 114.4844997 130.3359988  53.8541208 114.2835137 130.4756886
  55.6160012 115.3034997 128.9099988  56.2280012 114.7894997 128.3829988
  55.9980012 116.1814997 128.9329988  55.7513371 115.3517866 128.8410041
  41.0730012 114.6914997 128.2859988  40.2960012 114.4574997 127.7789988
  41.6030012 113.8944997 128.2949988  41.0382330 114.5516988 128.2177742
  39.9090012 114.4894997 124.0899988  40.3480012 115.1004997 123.4979988
  39.2760012 115.0274997 124.5639988  39.8834514 114.6459257 124.0730930
  45.6520012 114.6184997 128.0999988  46.5270012 115.0064997 128.0699988
  45.5160012 114.4034997 129.0219988  45.7533695 114.6425184 128.2206440
  51.2090012 114.6484997 129.7489988  51.2850012 114.7434997 128.7989988
  50.9340012 113.7404997 129.8779988  51.1822321 114.5387867 129.6365079
  52.5620012 114.6744997 125.4409988  51.8600012 115.2894997 125.2309988
  52.1180012 113.8364997 125.5719988  52.4056450 114.6455639 125.4299000
  39.8100012 130.4374997 124.9869988  39.1250012 130.3994997 124.3199988
  39.8140012 131.3504997 125.2759988  39.7166998 130.5556733 124.9346771
  41.7700012 116.4054997 122.5319988  42.2620012 115.7754997 122.0049988
  42.3940012 116.7014997 123.1949988  41.9215688 116.3593804 122.5495482
  46.7960012 116.6984997 124.9889988  46.9740012 116.0524997 125.6719988
  46.7430012 117.5324997 125.4559988  46.8131999 116.7228009 125.1455917
  48.6750012 131.6474997 123.3849988  49.5410012 132.0134997 123.2069988
  48.4280012 131.2074997 122.5709988  48.7602392 131.6381756 123.2506289
  55.3840012 131.2104997 126.0639988  55.1890012 130.4624997 125.4989988
  55.3450012 131.9684997 125.4809988  55.3520380 131.2106099 125.9078384
  41.0310012 115.2054997 137.8039988  40.6650012 114.4404997 138.2459988
  41.9440012 115.2344997 138.0899988  41.1042736 115.1045640 137.9032502
  43.0040012 114.5564997 139.3399988  43.9020012 114.2824997 139.1549988
  42.6170012 113.8134997 139.8039988  43.0746612 114.4185914 139.3773643
  41.6280012 131.3574997 122.0129988  41.3610012 131.6444997 122.8859988
  42.4000012 130.8114997 122.1649988  41.6957488 131.3230294 122.1531050
  51.4250012 113.8884997 139.5219988  51.5020012 113.4624997 140.3759988
  52.3190012 113.9024997 139.1789988  51.5563428 113.8320879 139.5925310
  54.6010012 129.9614997 138.2139988  53.8190012 129.7754997 137.6939988
  54.5290012 130.8904997 138.4319988  54.4842274 130.0616643 138.1723018
  69.0070012 123.8474997 128.2449988  69.0960012 124.7914997 128.1129988
  68.3690012 123.5724997 127.5869988  68.9329081 123.9394830 128.1379614
  67.9400012 123.1024997 131.6639988  67.9020012 122.4564997 132.3689988
  67.6180012 122.6364997 130.8929988  67.8912333 122.9509408 131.6562978
  60.3090012 122.7174997 133.2569988  60.3500012 122.0914997 133.9799988
  61.0120012 123.3414997 133.4389988  60.4096363 122.7161196 133.3806044
  71.6460012 126.0414997 129.9649988  71.2060012 125.3214997 130.4159988
  71.6330012 126.7624997 130.5949988  71.5840226 126.0403731 130.1118494
  61.2320012 127.1674997 131.7919988  60.8630012 126.3654997 131.4219988
  62.1730012 126.9984997 131.8379988  61.3087289 127.0350153 131.7476316
  57.8420012 120.8274997 127.1849988  57.3950012 121.6734997 127.1659988
  57.2810012 120.2474997 126.6689988  57.7049900 120.8649916 127.1126801
  58.5530012 122.9894997 129.3099988  58.7660012 122.2194997 129.8379988
  59.2910012 123.0784997 128.7069988  58.6819044 122.8961968 129.3007123
  68.7580012 131.1464997 130.1769988  69.3780012 130.4694997 129.9039988
  68.5500012 130.9284997 131.0859988  68.8146726 131.0244800 130.2624812
  66.3300012 125.5354997 132.0699988  66.6340012 124.8494997 131.4749988
  67.0510012 125.6534997 132.6879988  66.4690671 125.4576305 132.0721816
  74.9930012 117.1364997 132.9309988  75.0420012 117.7464997 133.6659988
  75.4180012 117.5974997 132.2079988  75.0571746 117.2823796 132.9339175
  69.4710012 119.9294997 132.3969988  69.6130012 118.9834997 132.4179988
  69.3640012 120.1364997 131.4689988  69.4759919 119.8278246 132.2743408
  62.6250012 118.0304997 129.6699988  62.6690012 118.8904997 129.2509988
  62.1680012 117.4784997 129.0359988  62.5692240 118.0734422 129.5269864
  70.3480012 118.1614997 128.0709988  70.9940012 117.8324997 128.6949988
  70.8580012 118.6794997 127.4479988  70.5054299 118.1864450 128.0722731
  59.2460012 120.4274997 130.4319988  59.8990012 119.8774997 130.8639988
  59.2700012 120.1534997 129.5149988  59.3386683 120.3151466 130.3672123
  64.4020012 121.9774997 129.6469988  65.0180012 121.4514997 130.1569988
  63.8160012 121.3374997 129.2439988  64.4070810 121.8189208 129.6623173
  75.3840012 118.6144997 135.1659988  74.6960012 119.2724997 135.0709988
  75.4000012 118.4174997 136.1029988  75.2919540 118.6779819 135.2795990
  61.4360012 116.9484997 133.7439988  61.2170012 117.4784997 132.9779988
  60.7680012 117.1754997 134.3909988  61.3157600 117.0516906 133.7266379
  68.8050012 126.4484997 127.2879988  68.5090012 126.1264997 126.4369988
  68.4800012 127.3484997 127.3289988  68.7206371 126.5260215 127.1771801
  64.0050012 124.6244997 134.0309988  63.2650012 125.2224997 134.1349988
  64.7190012 125.1784997 133.7159988  64.0002237 124.7812831 134.0026465
  72.1120012 117.4524997 130.0509988  71.8960012 116.6864997 130.5839988
  72.7670012 117.9244997 130.5639988  72.1710632 117.4115889 130.1932861
  61.0290012 118.8404997 131.6959988  61.6430012 119.4734997 132.0689988
  61.5410012 118.3684997 131.0399988  61.1821981 118.8632267 131.6582908
  62.4120012 126.5884997 134.8179988  62.4070012 127.4684997 134.4399988
  61.5590012 126.5054997 135.2429988  62.2959464 126.6976117 134.8237907
  58.5330012 126.2594997 125.5999988  58.2610012 126.4884997 124.7119988
  58.5790012 127.0974997 126.0609988  58.5019482 126.4041318 125.5406273
  72.1580012 127.8814997 132.3129988  71.2170012 127.9394997 132.4749988
  72.4350012 128.7874997 132.1759988  72.0664679 128.0119443 132.3166815
  72.4590012 116.1674997 133.7309988  71.7230012 116.7784997 133.6929988
  73.1420012 116.5824997 133.2039988  72.4506541 116.3071374 133.6545832
  65.4620012 114.2544997 131.1959988  65.3450012 113.3054997 131.1419988
  64.6070012 114.5864997 131.4699988  65.3304212 114.1695571 131.2256497
  70.4100012 129.6624997 128.9379988  70.8360012 128.9554997 128.4529988
  70.7270012 130.4634997 128.5219988  70.5111683 129.6741017 128.8153680
  71.5700012 127.5634997 127.4469988  71.3120012 126.8734997 126.8359988
  71.6410012 127.1204997 128.2929988  71.5442856 127.4092124 127.4776885
  73.2560012 126.1294997 135.9239988  73.3960012 125.5384997 135.1849988
  73.4230012 127.0024997 135.5679988  73.2977411 126.1665428 135.7746894
  67.7290012 123.0914997 125.6969988  67.0170012 123.6264997 125.3449988
  68.4200012 123.1474997 125.0369988  67.7250132 123.1722543 125.5596289
  67.7820012 121.5494997 122.7359988  68.4830012 121.5714997 123.3869988
  68.0850012 120.9214997 122.0789988  67.9188133 121.4677070 122.7363369
  75.0980012 122.4694997 133.9899988  74.4450012 123.1644997 134.0799988
  75.5630012 122.6794997 133.1809988  75.0715274 122.5930643 133.8928462
  71.1340012 123.3014997 126.6489988  70.4020012 123.5294997 127.2219988
  71.5820012 122.5874997 127.1029988  71.0942725 123.2362145 126.7888816
  71.0320012 121.4754997 135.7159988  71.1120012 122.2384997 136.2879988
  70.4300012 121.7544997 135.0259988  70.9615756 121.6177134 135.7010589
  62.7800012 123.9314997 128.5309988  62.4490012 123.5614997 127.7129988
  63.3680012 123.2614997 128.8779988  62.8141873 123.7901156 128.4658102
  64.1460012 127.3594997 131.2119988  64.0520012 126.7814997 130.4559988
  64.8760012 126.9884997 131.7089988  64.2317386 127.2301663 131.1755342
  63.1460012 122.7004997 132.1649988  63.7120012 122.8214997 131.4019988
  63.4650012 123.3374997 132.8029988  63.2665474 122.8032219 132.1469862
  69.4550012 128.2034997 132.8989988  69.2150012 128.8654997 133.5469988
  69.2570012 127.3694997 133.3239988  69.3953808 128.1813134 133.0451524
  64.0260012 127.0994997 136.8819988  63.7150012 127.8814997 137.3369988
  63.3760012 126.9464997 136.1959988  63.8955558 127.1859105 136.8515871
  70.0050012 122.4634997 124.3339988  70.5850012 122.6134997 125.0809988
  70.4190012 122.9344997 123.6099988  70.1402997 122.5476578 124.3384058
  60.9460012 123.2974997 136.1099988  61.0170012 123.9484997 136.8089988
  60.0560012 123.4004997 135.7749988  60.8353005 123.4005427 136.1603495
  67.7320012 129.2004997 127.7689988  68.2060012 129.4954997 128.5459988
  67.1690012 129.9384997 127.5359988  67.7208184 129.3407247 127.8439628
  62.2660012 129.1714997 137.6449988  62.2730012 129.0354997 136.6979988
  61.3500012 129.0534997 137.8969988  62.1431714 129.1369430 137.5494666
  73.7040012 114.2134997 124.1469988  72.8040012 114.3524997 124.4419988
  73.9560012 115.0444997 123.7449988  73.6148702 114.3449074 124.1330205
  61.7700012 123.0014997 126.1199988  61.4780012 123.7694997 125.6299988
  61.0960012 122.3414997 125.9579988  61.6388111 123.0175587 126.0308978
  74.8930012 128.5794997 122.5229988  74.9670012 129.5184997 122.6939988
  75.7990012 128.2744997 122.4669988  75.0255100 128.6666722 122.5388119
  57.8630012 125.3644997 134.9349988  57.3620012 125.3364997 134.1199988
  57.8680012 124.4584997 135.2449988  57.7950944 125.2382396 134.8653226
  57.6130012 128.1444997 131.8189988  58.5590012 128.0004997 131.7999988
  57.5010012 128.9284997 132.3559988  57.7272727 128.2308046 131.8890072
  75.8110012 128.8104997 137.5019988  75.7620012 127.8554997 137.4649988
  74.9840012 129.0784997 137.9029988  75.6924940 128.7158998 137.5511375
  66.7900012 128.3844997 136.3779988  66.8770012 129.2104997 136.8529988
  65.9260012 128.0544997 136.6269988  66.6851964 128.4529878 136.4766549
  67.2040012 132.1564997 126.1839988  67.1290012 132.0354997 125.2369988
  67.2370012 133.1064997 126.3019988  67.1982068 132.2682646 126.0704967
  60.8570012 130.9454997 127.9649988  61.0100012 130.5974997 128.8429988
  60.0070012 130.5894997 127.7099988  60.7629166 130.8496216 128.0508079
  70.3060012 131.3104997 123.1859988  70.6810012 130.5664997 122.7149988
  70.3100012 131.0404997 124.1049988  70.3579125 131.1720986 123.2456483
  69.9750012 131.2364997 125.9349988  69.0390012 131.3364997 126.1139988
  70.2550012 130.5274997 126.5139988  69.8849553 131.1543406 126.0377087
  72.9630012 120.3034997 137.9819988  72.5560012 120.7844997 137.2609988
  73.0040012 119.3984997 137.6739988  72.9128437 120.2469374 137.8416683
  60.1120012 126.6874997 135.9789988  60.3280012 126.3264997 136.8379988
  59.2570012 126.3134997 135.7689988  60.0259292 126.5874111 136.0683386
  62.7310012 115.1574997 131.9739988  61.8690012 115.0704997 131.5659988
  62.7080012 116.0134997 132.4019988  62.6100409 115.2612883 131.9760589
  67.3940012 114.8794997 135.3489988  67.8140012 114.4644997 136.1019988
  66.4610012 114.7014997 135.4659988  67.3253644 114.7985900 135.4679539
  70.7200012 118.6354997 136.2019988  70.2060012 118.5094997 136.9999988
  70.5650012 119.5474997 135.9579988  70.6286852 118.7416132 136.2782158
  71.4830012 123.4964997 121.9639988  71.5250012 123.2734997 121.0339988
  72.3320012 123.8954997 122.1529988  71.6035280 123.5199438 121.8623554
  67.0550012 117.3724997 122.6339988  66.8020012 117.3914997 123.5569988
  66.7990012 116.5004997 122.3319988  66.9857481 117.2572558 122.7196175
  62.8220012 120.1234997 133.0689988  62.1800012 120.0824997 133.7779988
  62.8590012 121.0494997 132.8309988  62.7390664 120.2431430 133.1339219
  62.8190012 120.3444997 127.9809988  61.9260012 120.0034997 127.9219988
  63.2690012 119.9674997 127.2249988  62.7578130 120.2469631 127.8707702
  68.3540012 120.7604997 126.7979988  67.9450012 121.5754997 126.5069988
  69.0750012 120.6204997 126.1839988  68.3954537 120.8532018 126.6751342
  67.4560012 120.9354997 138.2859988  66.8940012 120.2314997 138.6069988
  68.2830012 120.8154997 138.7539988  67.4907095 120.8227883 138.3932330
  69.3590012 120.2064997 129.6119988  69.1640012 120.8114997 128.8969988
  69.5400012 119.3724997 129.1779988  69.3567614 120.1766300 129.4554405
  60.5720012 120.4434997 134.9359988  60.5340012 120.8434997 135.8049988
  60.0810012 119.6264997 135.0269988  60.5004684 120.3878069 135.0671059
  63.9380012 117.8174997 121.7349988  63.5070012 117.3724997 122.4649988
  63.2200012 118.1894997 121.2229988  63.7819438 117.8068940 121.7656799
  57.1800012 117.5594997 128.7869988  57.8110012 117.5304997 129.5059988
  57.6290012 117.1344997 128.0559988  57.3270918 117.4980836 128.7866441
  58.4540012 118.3054997 124.2109988  58.9280012 118.8964997 123.6259988
  57.7370012 118.8364997 124.5579988  58.4219341 118.4580867 124.1778836
  68.6230012 121.8444997 134.2829988  68.9460012 121.2134997 133.6399988
  68.1830012 121.3094997 134.9439988  68.6077484 121.6858387 134.2843198
  65.4000012 117.7714997 129.0669988  64.4890012 117.8284997 129.3559988
  65.9060012 117.7114997 129.8779988  65.3436899 117.7711941 129.2161184
  60.2290012 119.4004997 127.8939988  59.3390012 119.5004997 127.5539988
  60.5250012 118.5584997 127.5479988  60.1472823 119.3003545 127.8007213
  63.8820012 119.4004997 125.5509988  64.8130012 119.5294997 125.7289988
  63.6670012 120.0704997 124.9009988  63.9804247 119.5086565 125.4875747
  69.8050012 117.0064997 132.3319988  69.1290012 117.1374997 132.9959988
  69.3200012 116.8514997 131.5209988  69.6467146 117.0035157 132.3134469
  62.5560012 120.5954997 123.1169988  62.0130012 120.2154997 122.4259988
  63.3890012 120.7894997 122.6889988  62.5943631 120.5697125 122.9644501
  73.0930012 132.6784997 138.6079988  73.2930012 133.1024997 137.7739988
  73.7480012 133.0214997 139.2149988  73.2090072 132.7829857 138.5758592
  60.6910012 125.1524997 138.2159988  61.4230012 125.4064997 138.7779988
  59.9110012 125.3564997 138.7319988  60.6857073 125.2148160 138.3626151
  66.7200012 120.5594997 130.9539988  67.2850012 120.0124997 130.4069988
  66.5730012 120.0374997 131.7429988  66.7773380 120.4142259 130.9858695
  61.7220012 116.6954997 127.3729988  61.4050012 115.7934997 127.3369988
  62.5040012 116.6974997 126.8199988  61.7842408 116.5722474 127.2933569
  65.3470012 118.9474997 133.3679988  64.5110012 119.4014997 133.4789988
  65.8710012 119.2234997 134.1199988  65.3035416 119.0468660 133.4848119
  65.8910012 125.1604997 125.0529988  65.1460012 124.6534997 124.7309988
  65.7570012 125.2094997 125.9999988  65.7708776 125.0976940 125.1368647
  73.0410012 124.2934997 133.8399988  73.6830012 124.7504997 133.2959988
  72.2110012 124.4064997 133.3769988  73.0165963 124.3712704 133.7030177
  69.7890012 117.9744997 123.2519988  68.8500012 118.0864997 123.1009988
  70.0860012 118.8314997 123.5589988  69.7007583 118.1055981 123.2728337
  67.4100012 125.3444997 136.2899988  67.0650012 124.9634997 137.0969988
  67.2100012 126.2784997 136.3609988  67.3357527 125.4185135 136.4100689
  70.5070012 119.8414997 124.9129988  71.3990012 119.7044997 125.2319988
  70.5640012 120.6324997 124.3759988  70.6366504 119.9296052 124.8840818
  61.0160012 124.4554997 130.8229988  61.7610012 124.4534997 130.2219988
  61.0940012 123.6324997 131.3039988  61.1284995 124.3438887 130.8058282
  68.0170012 126.6194997 124.0789988  67.7210012 127.4454997 124.4599988
  67.3140012 125.9994997 124.2749988  67.8814914 126.6488199 124.1576443
  58.0240012 122.9164997 136.1379988  58.2470012 122.4984997 136.9699988
  57.4220012 122.3034997 135.7149988  57.9731759 122.7764668 136.1947022
  65.0400012 122.4334997 138.3509988  64.7440012 122.2674997 137.4559988
  65.9720012 122.2134997 138.3399988  65.1254166 122.3810640 138.2270536
  69.6610012 127.8064997 136.2409988  68.7600012 127.9894997 135.9729988
  69.6950012 128.0654997 137.1609988  69.5423139 127.8665849 136.3288099
  75.3920012 120.0514997 124.6079988  74.8380012 119.6554997 123.9359988
  75.4920012 120.9614997 124.3299988  75.3297059 120.1203586 124.4784401
  75.3550012 125.8514997 137.4449988  74.5040012 126.0894997 137.0779988
  75.9460012 125.8344997 136.6919988  75.3182487 125.8818258 137.2928893
  73.6870012 128.8374997 125.0729988  73.3140012 128.0114997 125.3819988
  73.9650012 128.6544997 124.1749988  73.6735222 128.6997430 124.9939473
  70.8480012 123.6454997 132.0939988  69.9190012 123.4134997 132.0669988
  71.2990012 122.8684997 131.7639988  70.7819216 123.5087238 132.0456917
  63.3910012 127.9734997 128.2269988  63.9180012 128.7464997 128.0269988
  62.5110012 128.1984997 127.9249988  63.3442031 128.1097545 128.1587912
  59.1460012 122.8354997 122.8139988  59.7620012 123.4624997 123.1939988
  58.2840012 123.1514997 123.0859988  59.1137698 122.9639430 122.9027183
  64.8180012 125.6364997 127.8029988  64.5770012 126.5614997 127.8449988
  64.0770012 125.1774997 128.1999988  64.6849225 125.7010933 127.8623742
  65.3330012 129.7854997 134.1189988  65.6950012 130.6404997 133.8849988
  65.8640012 129.4934997 134.8589988  65.4544473 129.8631060 134.1870855
  63.5010012 130.6584997 127.3489988  62.5510012 130.7634997 127.3999988
  63.8530012 131.4784997 127.6929988  63.4184195 130.7838800 127.4025502
  68.8770012 125.8844997 133.8189988  68.4510012 125.6574997 134.6459988
  69.4570012 125.1464997 133.6369988  68.8971868 125.7535299 133.9075830
  71.0800012 126.8134997 122.8929988  71.4330012 126.4334997 123.6969988
  70.1310012 126.7204997 122.9799988  71.0000918 126.7488956 123.0148532
  71.5350012 130.4364997 136.2889988  70.9340012 129.8814997 135.7929988
  71.8170012 131.1034997 135.6619988  71.4908804 130.4506625 136.1364849
  75.5830012 131.2934997 123.0939988  76.3270012 131.8794997 122.9539988
  74.8890012 131.8614997 123.4269988  75.5909899 131.4505798 123.1198778
  59.6580012 117.6694997 135.6959988  58.7650012 118.0084997 135.6279988
  59.5590012 116.8144997 136.1139988  59.5224164 117.6002588 135.7432235
  71.9460012 125.4864997 125.1199988  71.6680012 124.7584997 125.6759988
  72.8730012 125.6054997 125.3249988  72.0333124 125.4028802 125.2238845
  59.3090012 129.4744997 134.1309988  59.5260012 128.5424997 134.0999988
  59.5550012 129.7484997 135.0139988  59.3719549 129.3840636 134.2461763
  65.1710012 127.9254997 121.3399988  65.4100012 127.1774997 120.7929988
  64.9020012 127.5374997 122.1729988  65.1673675 127.7706638 121.3776865
  64.1080012 127.4954997 123.7959988  64.2540012 126.9754997 124.5859988
  64.1050012 128.4024997 124.1029988  64.1275792 127.5468842 123.9456117
  60.5610012 124.7484997 124.3069988  59.8750012 125.1004997 124.8739988
  61.0830012 125.5114997 124.0599988  60.5376852 124.8998578 124.3512118
  68.3920012 117.4104997 134.5859988  69.0910012 117.4844997 135.2359988
  68.0110012 116.5464997 134.7399988  68.4361767 117.3037624 134.6958322
  69.1770012 117.0624997 125.6829988  69.3970012 117.5344997 124.8799988
  69.7350012 117.4574997 126.3529988  69.2824968 117.1804285 125.6637331
  66.8450012 129.1934997 124.5459988  66.0290012 129.6904997 124.5979988
  67.3750012 129.6684997 123.9059988  66.8049161 129.3257722 124.4665956
  66.3770012 118.7904997 126.5179988  67.1890012 119.2954997 126.5639988
  66.1320012 118.6454997 127.4319988  66.4550520 118.8400375 126.6478517
  66.9120012 119.7764997 135.7019988  67.0310012 120.3504997 136.4599988
  67.5680012 119.0884997 135.8169988  67.0169025 119.7619858 135.8211321
  67.2600012 115.8714997 127.4559988  66.9140012 116.4894997 128.0999988
  67.9190012 116.3724997 126.9739988  67.3016968 116.0236278 127.4789383
  64.1840012 130.2374997 124.5269988  64.3440012 131.0364997 124.0269988
  63.9860012 130.5434997 125.4119988  64.1791637 130.3884020 124.5781144
  62.9180012 116.9344997 124.1429988  62.8350012 117.8234997 124.4899988
  63.8080012 116.6694997 124.3749988  63.0269469 117.0201430 124.2217626
  73.1170012 117.6834997 136.5369988  72.2000012 117.9464997 136.4499988
  73.4520012 117.6804997 135.6409988  73.0368613 117.7190761 136.4038837
  71.7190012 121.4344997 130.6329988  70.9210012 121.0194997 130.3049988
  72.1640012 120.7434997 131.1239988  71.6699885 121.2843543 130.6544889
  61.1770012 127.3624997 123.2039988  61.7690012 128.0614997 123.4799988
  61.6360012 126.9294997 122.4839988  61.3201142 127.3997049 123.1444830
  59.4930012 120.0264997 122.3199988  59.4480012 120.9654997 122.4979988
  58.6050012 119.7904997 122.0499988  59.3668574 120.1231892 122.3078912
  72.8050012 130.6904997 132.2559988  72.6500012 131.3684997 131.5979988
  73.7380012 130.7624997 132.4589988  72.9098657 130.7929546 132.1934360
  60.3010012 114.8084997 130.9929988  60.0720012 114.8674997 130.0649988
  59.8580012 114.0164997 131.2989988  60.2098530 114.7095753 130.9074786
  59.2310012 128.7484997 127.1529988  58.3990012 129.2214997 127.1799988
  59.7770012 129.2584997 126.5549988  59.1910352 128.8821332 127.0758463
  58.5190012 131.3614997 138.4829988  59.0600012 131.1444997 139.2429988
  58.0380012 130.5554997 138.2929988  58.5279951 131.2229270 138.5612576
  63.1170012 130.2804997 140.1029988  63.8840012 129.8214997 140.4439988
  63.0950012 130.0544997 139.1739988  63.2191275 130.1870186 140.0240101
  67.2090012 129.7884997 121.4789988  66.5650012 129.1574997 121.7999988
  67.9710012 129.2574997 121.2469988  67.2238077 129.6302920 121.4916011
  69.6940012 128.6604997 138.8329988  69.3430012 127.8044997 139.0759988
  70.4200012 128.8034997 139.4399988  69.7440769 128.5625636 138.9483619
  71.8130012 129.6054997 121.7119988  72.0960012 128.8114997 122.1649988
  72.5530012 129.8384997 121.1519988  71.9518006 129.5283376 121.6982715
  58.4260012 125.1714997 139.4369988  58.5700012 124.2694997 139.1509988
  57.6540012 125.4574997 138.9499988  58.3412753 125.0866816 139.3319505
  62.7680012 125.5154997 121.5699988  62.8320012 124.7214997 122.1009988
  63.4210012 125.3964997 120.8799988  62.8650241 125.3907148 121.5494317
  65.0820012 125.1414997 138.8699988  64.7530012 125.4124997 138.0129988
  65.2340012 124.2004997 138.7829988  65.0574809 125.0513862 138.7408244
  68.1200012 126.5624997 121.3059988  67.8510012 126.7424997 122.2069988
  67.9140012 125.6364997 121.1739988  68.0553427 126.4620261 121.4115073
  70.8160012 125.0574997 136.2529988  71.5620012 125.6454997 136.1339988
  70.0590012 125.6394997 136.3169988  70.8157820 125.2167143 136.2453590
  59.2590012 122.3714997 138.8569988  59.6670012 121.5144997 138.7359988
  58.9990012 122.3864997 139.7779988  59.2797568 122.2560807 138.9649588
  63.9170012 123.4874997 123.8759988  63.4570012 123.0034997 124.5619988
  64.1720012 122.8194997 123.2399988  63.8884902 123.3308731 123.8839334
  63.2060012 121.3804997 136.2319988  62.5880012 122.0554997 136.5119988
  63.5500012 121.7014997 135.3979988  63.1679132 121.5162411 136.1576262
  64.9880012 121.7304997 122.1379988  64.8080012 121.5764997 121.2109988
  65.9380012 121.8384997 122.1829988  65.0917776 121.7240175 122.0171843
  68.2260012 123.8524997 139.5089988  69.1790012 123.9354997 139.4819988
  68.0650012 123.1404997 140.1289988  68.3346426 123.7676746 139.5890579
  74.3780012 124.0854997 121.5839988  74.1040012 123.6604997 120.7709988
  74.4170012 125.0164997 121.3669988  74.3457699 124.1532484 121.4433610
  63.5450012 118.7354997 137.3139988  63.6950012 118.0064997 136.7119988
  63.5480012 119.5124997 136.7549988  63.5659302 118.7407851 137.1560692
  63.9580012 117.1054997 134.8069988  64.4940012 117.5564997 134.1549988
  63.1060012 116.9974997 134.3839988  63.9162178 117.1526390 134.6605756
  65.5400012 122.5444997 135.0459988  66.2900012 122.3884997 134.4729988
  65.2010012 123.3964997 134.7709988  65.5968921 122.6382968 134.9303561
  69.9550012 120.3594997 140.0749988  70.1480012 119.4284997 139.9629988
  70.8130012 120.7844997 140.0639988  70.0972934 120.2896531 140.0582031
  71.2720012 123.1484997 138.1519988  70.9910012 123.8574997 137.5739988
  72.2150012 123.0754997 138.0009988  71.3609291 123.2356711 138.0524967
  62.0240012 119.9334997 139.2259988  61.2570012 119.4014997 139.0149988
  62.7030012 119.6234997 138.6259988  62.0107877 119.8188300 139.1160716
  64.7640012 114.5614997 135.2379988  64.6650012 115.5084997 135.1329988
  64.0210012 114.1894997 134.7619988  64.6501184 114.6405863 135.1593621
  66.0280012 118.8834997 138.8019988  65.7920012 118.6634997 139.7029988
  65.2440012 118.6764997 138.2919988  65.8898504 118.8254586 138.8563431
  68.7430012 118.0104997 137.8769988  67.7960012 118.0424997 138.0099988
  69.0560012 117.3854997 138.5309988  68.6556707 117.9303998 137.9836060
  70.3770012 116.6444997 139.8829988  70.2810012 115.6924997 139.8769988
  70.0560012 116.9134997 140.7429988  70.3204070 116.5504035 139.9985441
  60.2040012 117.8544997 138.9299988  60.4160012 117.1474997 138.3199988
  60.0930012 117.4164997 139.7739988  60.2179721 117.6987084 138.9606843
  64.9850012 113.8554997 137.9089988  65.6970012 113.2154997 137.8949988
  64.8840012 114.1224997 136.9959988  65.0688066 113.8040079 137.7835677
  65.3390012 115.5384997 139.9629988  65.2070012 115.0624997 139.1429988
  64.7400012 116.2824997 139.9079988  65.2399071 115.5739618 139.8432886
  64.8850012 132.4214997 123.1389988  65.8180012 132.5794997 123.2829988
  64.6210012 133.0964997 122.5149988  64.9769888 132.5344510 123.0742842
  58.4540012 127.0574997 122.6219988  59.3680012 127.1364997 122.8959988
  58.4610012 126.3704997 121.9559988  58.5801131 126.9753961 122.5694393
  57.1030012 132.4504997 127.6999988  56.4560012 131.9884997 127.1669988
  57.4570012 131.7784997 128.2819988  57.0623849 132.2964723 127.7057959
  57.9730012 130.5314997 129.5039988  57.6380012 129.6514997 129.6759988
  58.1950012 130.8764997 130.3689988  57.9571783 130.4577500 129.6444208
  75.5210012 131.3404997 132.4849988  75.5000012 131.5254997 133.4239988
  76.2120012 131.9094997 132.1439988  75.6114618 131.4426606 132.5673864
  75.0850012 130.9084997 135.4069988  74.5970012 130.1724997 135.0349988
  75.6340012 130.5144997 136.0849988  75.0924820 130.7545889 135.4477813
  73.5350012 126.6974997 140.0449988  72.6690012 126.5924997 140.4389988
  73.9120012 127.4564997 140.4909988  73.4673308 126.7856900 140.1592393
  74.8360012 124.9544997 125.5589988  75.6860012 125.3754997 125.6859988
  74.8420012 124.2144997 126.1659988  74.9531372 124.9120803 125.6584344
  75.2310012 123.0074997 127.3819988  74.5040012 122.5284997 127.7799988
  75.8120012 123.2134997 128.1149988  75.2100473 122.9698103 127.5354528
  74.9900012 125.7924997 132.3299988  75.8230012 125.4144997 132.0499988
  75.1020012 126.7354997 132.2109988  75.1192647 125.8682218 132.2755487
  73.4760012 128.6704997 134.6369988  72.8290012 128.9954997 135.2629988
  72.9590012 128.2304997 133.9629988  73.3174029 128.6555004 134.6315827
  75.4990012 122.9084997 123.7739988  74.9770012 123.2654997 123.0549988
  75.4660012 123.5834997 124.4519988  75.4231634 123.0485413 123.7673145
  73.8480012 120.1484997 122.3239988  73.9440012 120.8154997 121.6439988
  73.7080012 119.3324997 121.8429988  73.8422272 120.1295655 122.1658347
  73.0170012 121.5284997 127.9449988  72.8670012 120.5834997 127.9249988
  72.6640012 121.8094997 128.7889988  72.9487448 121.4371481 128.0563705
  58.0530012 123.6064997 131.9559988  58.2370012 123.5244997 131.0199988
  58.9020012 123.4824997 132.3789988  58.1930151 123.5785073 131.8851451
  73.8740012 123.4984997 137.5839988  74.4570012 122.7644997 137.7759988
  74.4380012 124.2704997 137.6309988  74.0299769 123.5024227 137.6166159
  75.3700012 121.4014997 138.2689988  74.5070012 121.0224997 138.1029988
  75.9750012 120.6624997 138.1939988  75.3336119 121.2498268 138.2361528
  73.0950012 117.5564997 121.4419988  73.7060012 117.1854997 122.0789988
  72.2590012 117.1354997 121.6379988  73.0655032 117.4487554 121.5557035
  72.7280012 119.1114997 126.4079988  73.0080012 118.2044997 126.5319988
  73.4870012 119.5454997 126.0189988  72.8689277 119.0460942 126.3723682
  73.3400012 119.6924997 131.8439988  74.2730012 119.9044997 131.8089988
  73.1050012 119.7944997 132.7659988  73.4359244 119.7353100 131.9638892
  73.3690012 120.4294997 134.6199988  72.5260012 120.6974997 134.9859988
  73.8110012 121.2514997 134.4089988  73.3134158 120.5773291 134.6415491
  57.6500012 118.8774997 138.0969988  58.5700012 118.7554997 138.3329988
  57.2010012 118.1274997 138.4859988  57.7151580 118.7593727 138.1819006
  75.6520012 114.4094997 139.9729988  76.0020012 113.7554997 139.3679988
  75.7990012 115.2464997 139.5329988  75.7197887 114.4331548 139.8306858
  73.3410012 116.3744997 126.4559988  73.5240012 115.9254997 127.2819988
  72.7420012 115.7894997 125.9929988  73.2850202 116.2339975 126.5063275
  58.8710012 117.1894997 130.9879988  59.3170012 116.3974997 131.2899988
  59.3380012 117.9054997 131.4179988  58.9950831 117.1780685 131.0874006
  57.1750012 120.1884997 132.0569988  57.6670012 119.9674997 131.2659988
  57.5380012 121.0294997 132.3379988  57.2913126 120.2718357 131.9867531
  75.1720012 116.5184997 138.3219988  74.2540012 116.7894997 138.2869988
  75.2950012 115.9834997 137.5379988  75.0629729 116.4832508 138.2111923
  75.2080012 116.4414997 122.9839988  75.6200012 115.7204997 122.5089988
  75.8900012 117.1114997 123.0429988  75.3565885 116.4332368 122.9268915
  57.4890012 116.4464997 126.1109988  56.5640012 116.6554997 125.9819988
  57.9430012 116.9304997 125.4209988  57.4237292 116.5405343 126.0000720
  72.2600012 131.4304997 128.0569988  72.9120012 131.0834997 127.4489988
  72.7700012 131.9194997 128.7029988  72.4182637 131.4490597 128.0610236
  57.4530012 115.1844997 134.4549988  56.7880012 114.9384997 135.0989988
  57.0100012 115.8064997 133.8779988  57.3021318 115.2349410 134.4650898
  59.6450012 128.3594997 138.5999988  58.8240012 128.5344997 138.1389988
  59.3920012 128.2864997 139.5199988  59.4985585 128.3735544 138.6613561
  62.5990012 129.3344997 134.8579988  62.1740012 130.1434997 134.5759988
  63.5030012 129.4194997 134.5559988  62.6629975 129.4569300 134.7784816
  66.9100012 130.7334997 137.8179988  67.0950012 130.3994997 138.6959988
  67.7560012 131.0424997 137.4959988  67.0497539 130.7296047 137.8945605
  69.2550012 132.0194997 137.0619988  69.9320012 131.3864997 136.8219988
  69.5770012 132.4204997 137.8689988  69.3911637 131.9871154 137.1382793
  74.1720012 114.6084997 136.1409988  73.3600012 114.9334997 135.7539988
  74.4050012 113.8484997 135.6079988  74.0922203 114.5502758 136.0158880
  60.0010012 132.5904997 134.9059988  59.2800012 133.0304997 134.4549988
  59.6350012 132.3394997 135.7539988  59.8529651 132.6167242 134.9589640
  62.4680012 132.1904997 133.9359988  61.6030012 132.2624997 134.3399988
  62.4130012 132.7374997 133.1519988  62.3422085 132.2742685 133.8853362
  67.1780012 132.0784997 133.1109988  66.7220012 132.6074997 132.4569988
  67.3410012 132.6814997 133.8359988  67.1376068 132.2324607 133.1194838
  69.5060012 130.9564997 134.0559988  68.6010012 131.1214997 133.7899988
  69.9350012 131.8094997 133.9909988  69.4401324 131.0944339 134.0107976
  72.1100012 132.5264997 134.3509988  71.9280012 133.4424997 134.1409988
  72.2870012 132.1164997 133.5049988  72.1090210 132.5964822 134.2077885
  59.4150012 131.2134997 131.8159988  59.3970012 130.7884997 132.6729988
  60.2200012 130.8954997 131.4069988  59.5213529 131.1123013 131.8780946
  61.5570012 129.9234997 130.4709988  61.3380012 129.0074997 130.6409988
  62.3810012 130.0634997 130.9369988  61.6384420 129.8170520 130.5572774
  64.0940012 130.3934997 131.3199988  64.3070012 129.5054997 131.0329988
  64.1580012 130.3594997 132.2739988  64.1318232 130.2673102 131.4097397
  67.6020012 116.0574997 130.4639988  66.9280012 115.4284997 130.7199988
  68.1660012 115.5734997 129.8609988  67.5859230 115.9058744 130.4175340
  72.7450012 114.1654997 130.5769988  73.3490012 114.7124997 130.0749988
  71.8750012 114.4844997 130.3359988  72.7101208 114.2835137 130.4756886
  74.4720012 115.3034997 128.9099988  75.0840012 114.7894997 128.3829988
  74.8540012 116.1814997 128.9329988  74.6073371 115.3517866 128.8410041
  59.9290012 114.6914997 128.2859988  59.1520012 114.4574997 127.7789988
  60.4590012 113.8944997 128.2949988  59.8942330 114.5516988 128.2177742
  58.7650012 114.4894997 124.0899988  59.2040012 115.1004997 123.4979988
  58.1320012 115.0274997 124.5639988  58.7394514 114.6459257 124.0730930
  64.5080012 114.6184997 128.0999988  65.3830012 115.0064997 128.0699988
  64.3720012 114.4034997 129.0219988  64.6093695 114.6425184 128.2206440
  70.0650012 114.6484997 129.7489988  70.1410012 114.7434997 128.7989988
  69.7900012 113.7404997 129.8779988  70.0382321 114.5387867 129.6365079
  71.4180012 114.6744997 125.4409988  70.7160012 115.2894997 125.2309988
  70.9740012 113.8364997 125.5719988  71.2616450 114.6455639 125.4299000
  58.6660012 130.4374997 124.9869988  57.9810012 130.3994997 124.3199988
  58.6700012 131.3504997 125.2759988  58.5726998 130.5556733 124.9346771
  60.6260012 116.4054997 122.5319988  61.1180012 115.7754997 122.0049988
  61.2500012 116.7014997 123.1949988  60.7775688 116.3593804 122.5495482
  65.6520012 116.6984997 124.9889988  65.8300012 116.0524997 125.6719988
  65.5990012 117.5324997 125.4559988  65.6691999 116.7228009 125.1455917
  67.5310012 131.6474997 123.3849988  68.3970012 132.0134997 123.2069988
  67.2840012 131.2074997 122.5709988  67.6162392 131.6381756 123.2506289
  74.2400012 131.2104997 126.0639988  74.0450012 130.4624997 125.4989988
  74.2010012 131.9684997 125.4809988  74.2080380 131.2106099 125.9078384
  59.8870012 115.2054997 137.8039988  59.5210012 114.4404997 138.2459988
  60.8000012 115.2344997 138.0899988  59.9602736 115.1045640 137.9032502
  61.8600012 114.5564997 139.3399988  62.7580012 114.2824997 139.1549988
  61.4730012 113.8134997 139.8039988  61.9306612 114.4185914 139.3773643
  60.4840012 131.3574997 122.0129988  60.2170012 131.6444997 122.8859988
  61.2560012 130.8114997 122.1649988  60.5517488 131.3230294 122.1531050
  70.2810012 113.8884997 139.5219988  70.3580012 113.4624997 140.3759988
  71.1750012 113.9024997 139.1789988  70.4123428 113.8320879 139.5925310
  73.4570012 129.9614997 138.2139988  72.6750012 129.7754997 137.6939988
  73.3850012 130.8904997 138.4319988  73.3402274 130.0616643 138.1723018
  87.8630012 123.8474997 128.2449988  87.9520012 124.7914997 128.1129988
  87.2250012 123.5724997 127.5869988  87.7889081 123.9394830 128.1379614
  86.7960012 123.1024997 131.6639988  86.7580012 122.4564997 132.3689988
  86.4740012 122.6364997 130.8929988  86.7472333 122.9509408 131.6562978
  79.1650012 122.7174997 133.2569988  79.2060012 122.0914997 133.9799988
  79.8680012 123.3414997 133.4389988  79.2656363 122.7161196 133.3806044
  90.5020012 126.0414997 129.9649988  90.0620012 125.3214997 130.4159988
  90.4890012 126.7624997 130.5949988  90.4400226 126.0403731 130.1118494
  80.0880012 127.1674997 131.7919988  79.7190012 126.3654997 131.4219988
  81.0290012 126.9984997 131.8379988  80.1647289 127.0350153 131.7476316
  76.6980012 120.8274997 127.1849988  76.2510012 121.6734997 127.1659988
  76.1370012 120.2474997 126.6689988  76.5609900 120.8649916 127.1126801
  77.4090012 122.9894997 129.3099988  77.6220012 122.2194997 129.8379988
  78.1470012 123.0784997 128.7069988  77.5379044 122.8961968 129.3007123
  87.6140012 131.1464997 130.1769988  88.2340012 130.4694997 129.9039988
  87.4060012 130.9284997 131.0859988  87.6706726 131.0244800 130.2624812
  85.1860012 125.5354997 132.0699988  85.4900012 124.8494997 131.4749988
  85.9070012 125.6534997 132.6879988  85.3250671 125.4576305 132.0721816
  93.8490012 117.1364997 132.9309988  93.8980012 117.7464997 133.6659988
  94.2740012 117.5974997 132.2079988  93.9131746 117.2823796 132.9339175
  88.3270012 119.9294997 132.3969988  88.4690012 118.9834997 132.4179988
  88.2200012 120.1364997 131.4689988  88.3319919 119.8278246 132.2743408
  81.4810012 118.0304997 129.6699988  81.5250012 118.8904997 129.2509988
  81.0240012 117.4784997 129.0359988  81.4252240 118.0734422 129.5269864
  89.2040012 118.1614997 128.0709988  89.8500012 117.8324997 128.6949988
  89.7140012 118.6794997 127.4479988  89.3614299 118.1864450 128.0722731
  78.1020012 120.4274997 130.4319988  78.7550012 119.8774997 130.8639988
  78.1260012 120.1534997 129.5149988  78.1946683 120.3151466 130.3672123
  83.2580012 121.9774997 129.6469988  83.8740012 121.4514997 130.1569988
  82.6720012 121.3374997 129.2439988  83.2630810 121.8189208 129.6623173
  94.2400012 118.6144997 135.1659988  93.5520012 119.2724997 135.0709988
  94.2560012 118.4174997 136.1029988  94.1479540 118.6779819 135.2795990
  80.2920012 116.9484997 133.7439988  80.0730012 117.4784997 132.9779988
  79.6240012 117.1754997 134.3909988  80.1717600 117.0516906 133.7266379
  87.6610012 126.4484997 127.2879988  87.3650012 126.1264997 126.4369988
  87.3360012 127.3484997 127.3289988  87.5766371 126.5260215 127.1771801
  82.8610012 124.6244997 134.0309988  82.1210012 125.2224997 134.1349988
  83.5750012 125.1784997 133.7159988  82.8562237 124.7812831 134.0026465
  90.9680012 117.4524997 130.0509988  90.7520012 116.6864997 130.5839988
  91.6230012 117.9244997 130.5639988  91.0270632 117.4115889 130.1932861
  79.8850012 118.8404997 131.6959988  80.4990012 119.4734997 132.0689988
  80.3970012 118.3684997 131.0399988  80.0381981 118.8632267 131.6582908
  81.2680012 126.5884997 134.8179988  81.2630012 127.4684997 134.4399988
  80.4150012 126.5054997 135.2429988  81.1519464 126.6976117 134.8237907
  77.3890012 126.2594997 125.5999988  77.1170012 126.4884997 124.7119988
  77.4350012 127.0974997 126.0609988  77.3579482 126.4041318 125.5406273
  91.0140012 127.8814997 132.3129988  90.0730012 127.9394997 132.4749988
  91.2910012 128.7874997 132.1759988  90.9224679 128.0119443 132.3166815
  91.3150012 116.1674997 133.7309988  90.5790012 116.7784997 133.6929988
  91.9980012 116.5824997 133.2039988  91.3066541 116.3071374 133.6545832
  84.3180012 114.2544997 131.1959988  84.2010012 113.3054997 131.1419988
  83.4630012 114.5864997 131.4699988  84.1864212 114.1695571 131.2256497
  89.2660012 129.6624997 128.9379988  89.6920012 128.9554997 128.4529988
  89.5830012 130.4634997 128.5219988  89.3671683 129.6741017 128.8153680
  90.4260012 127.5634997 127.4469988  90.1680012 126.8734997 126.8359988
  90.4970012 127.1204997 128.2929988  90.4002856 127.4092124 127.4776885
  92.1120012 126.1294997 135.9239988  92.2520012 125.5384997 135.1849988
  92.2790012 127.0024997 135.5679988  92.1537411 126.1665428 135.7746894
  86.5850012 123.0914997 125.6969988  85.8730012 123.6264997 125.3449988
  87.2760012 123.1474997 125.0369988  86.5810132 123.1722543 125.5596289
  86.6380012 121.5494997 122.7359988  87.3390012 121.5714997 123.3869988
  86.9410012 120.9214997 122.0789988  86.7748133 121.4677070 122.7363369
  93.9540012 122.4694997 133.9899988  93.3010012 123.1644997 134.0799988
  94.4190012 122.6794997 133.1809988  93.9275274 122.5930643 133.8928462
  89.9900012 123.3014997 126.6489988  89.2580012 123.5294997 127.2219988
  90.4380012 122.5874997 127.1029988  89.9502725 123.2362145 126.7888816
  89.8880012 121.4754997 135.7159988  89.9680012 122.2384997 136.2879988
  89.2860012 121.7544997 135.0259988  89.8175756 121.6177134 135.7010589
  81.6360012 123.9314997 128.5309988  81.3050012 123.5614997 127.7129988
  82.2240012 123.2614997 128.8779988  81.6701873 123.7901156 128.4658102
  83.0020012 127.3594997 131.2119988  82.9080012 126.7814997 130.4559988
  83.7320012 126.9884997 131.7089988  83.0877387 127.2301663 131.1755342
  82.0020012 122.7004997 132.1649988  82.5680012 122.8214997 131.4019988
  82.3210012 123.3374997 132.8029988  82.1225474 122.8032219 132.1469862
  88.3110012 128.2034997 132.8989988  88.0710012 128.8654997 133.5469988
  88.1130012 127.3694997 133.3239988  88.2513808 128.1813134 133.0451524
  82.8820012 127.0994997 136.8819988  82.5710012 127.8814997 137.3369988
  82.2320012 126.9464997 136.1959988  82.7515558 127.1859105 136.8515871
  88.8610012 122.4634997 124.3339988  89.4410012 122.6134997 125.0809988
  89.2750012 122.9344997 123.6099988  88.9962997 122.5476578 124.3384058
  79.8020012 123.2974997 136.1099988  79.8730012 123.9484997 136.8089988
  78.9120012 123.4004997 135.7749988  79.6913005 123.4005427 136.1603495
  86.5880012 129.2004997 127.7689988  87.0620012 129.4954997 128.5459988
  86.0250012 129.9384997 127.5359988  86.5768184 129.3407247 127.8439628
  81.1220012 129.1714997 137.6449988  81.1290012 129.0354997 136.6979988
  80.2060012 129.0534997 137.8969988  80.9991714 129.1369430 137.5494666
  92.5600012 114.2134997 124.1469988  91.6600012 114.3524997 124.4419988
  92.8120012 115.0444997 123.7449988  92.4708702 114.3449074 124.1330205
  80.6260012 123.0014997 126.1199988  80.3340012 123.7694997 125.6299988
  79.9520012 122.3414997 125.9579988  80.4948111 123.0175587 126.0308978
  93.7490012 128.5794997 122.5229988  93.8230012 129.5184997 122.6939988
  94.6550012 128.2744997 122.4669988  93.8815100 128.6666722 122.5388119
  76.7190012 125.3644997 134.9349988  76.2180012 125.3364997 134.1199988
  76.7240012 124.4584997 135.2449988  76.6510944 125.2382396 134.8653226
  76.4690012 128.1444997 131.8189988  77.4150012 128.0004997 131.7999988
  76.3570012 128.9284997 132.3559988  76.5832727 128.2308046 131.8890072
  94.6670012 128.8104997 137.5019988  94.6180012 127.8554997 137.4649988
  93.8400012 129.0784997 137.9029988  94.5484940 128.7158998 137.5511375
  85.6460012 128.3844997 136.3779988  85.7330012 129.2104997 136.8529988
  84.7820012 128.0544997 136.6269988  85.5411964 128.4529878 136.4766549
  86.0600012 132.1564997 126.1839988  85.9850012 132.0354997 125.2369988
  86.0930012 133.1064997 126.3019988  86.0542068 132.2682646 126.0704967
  79.7130012 130.9454997 127.9649988  79.8660012 130.5974997 128.8429988
  78.8630012 130.5894997 127.7099988  79.6189166 130.8496216 128.0508079
  89.1620012 131.3104997 123.1859988  89.5370012 130.5664997 122.7149988
  89.1660012 131.0404997 124.1049988  89.2139125 131.1720986 123.2456483
  88.8310012 131.2364997 125.9349988  87.8950012 131.3364997 126.1139988
  89.1110012 130.5274997 126.5139988  88.7409553 131.1543406 126.0377087
  91.8190012 120.3034997 137.9819988  91.4120012 120.7844997 137.2609988
  91.8600012 119.3984997 137.6739988  91.7688437 120.2469374 137.8416683
  78.9680012 126.6874997 135.9789988  79.1840012 126.3264997 136.8379988
  78.1130012 126.3134997 135.7689988  78.8819292 126.5874111 136.0683386
  81.5870012 115.1574997 131.9739988  80.7250012 115.0704997 131.5659988
  81.5640012 116.0134997 132.4019988  81.4660409 115.2612883 131.9760589
  86.2500012 114.8794997 135.3489988  86.6700012 114.4644997 136.1019988
  85.3170012 114.7014997 135.4659988  86.1813644 114.7985900 135.4679539
  89.5760012 118.6354997 136.2019988  89.0620012 118.5094997 136.9999988
  89.4210012 119.5474997 135.9579988  89.4846852 118.7416132 136.2782158
  90.3390012 123.4964997 121.9639988  90.3810012 123.2734997 121.0339988
  91.1880012 123.8954997 122.1529988  90.4595280 123.5199438 121.8623554
  85.9110012 117.3724997 122.6339988  85.6580012 117.3914997 123.5569988
  85.6550012 116.5004997 122.3319988  85.8417481 117.2572558 122.7196175
  81.6780012 120.1234997 133.0689988  81.0360012 120.0824997 133.7779988
  81.7150012 121.0494997 132.8309988  81.5950664 120.2431430 133.1339219
  81.6750012 120.3444997 127.9809988  80.7820012 120.0034997 127.9219988
  82.1250012 119.9674997 127.2249988  81.6138130 120.2469631 127.8707702
  87.2100012 120.7604997 126.7979988  86.8010012 121.5754997 126.5069988
  87.9310012 120.6204997 126.1839988  87.2514537 120.8532018 126.6751342
  86.3120012 120.9354997 138.2859988  85.7500012 120.2314997 138.6069988
  87.1390012 120.8154997 138.7539988  86.3467095 120.8227883 138.3932330
  88.2150012 120.2064997 129.6119988  88.0200012 120.8114997 128.8969988
  88.3960012 119.3724997 129.1779988  88.2127614 120.1766300 129.4554405
  79.4280012 120.4434997 134.9359988  79.3900012 120.8434997 135.8049988
  78.9370012 119.6264997 135.0269988  79.3564684 120.3878069 135.0671059
  82.7940012 117.8174997 121.7349988  82.3630012 117.3724997 122.4649988
  82.0760012 118.1894997 121.2229988  82.6379438 117.8068940 121.7656799
  76.0360012 117.5594997 128.7869988  76.6670012 117.5304997 129.5059988
  76.4850012 117.1344997 128.0559988  76.1830918 117.4980836 128.7866441
  77.3100012 118.3054997 124.2109988  77.7840012 118.8964997 123.6259988
  76.5930012 118.8364997 124.5579988  77.2779341 118.4580867 124.1778836
  87.4790012 121.8444997 134.2829988  87.8020012 121.2134997 133.6399988
  87.0390012 121.3094997 134.9439988  87.4637484 121.6858387 134.2843198
  84.2560012 117.7714997 129.0669988  83.3450012 117.8284997 129.3559988
  84.7620012 117.7114997 129.8779988  84.1996899 117.7711941 129.2161184
  79.0850012 119.4004997 127.8939988  78.1950012 119.5004997 127.5539988
  79.3810012 118.5584997 127.5479988  79.0032823 119.3003545 127.8007213
  82.7380012 119.4004997 125.5509988  83.6690012 119.5294997 125.7289988
  82.5230012 120.0704997 124.9009988  82.8364247 119.5086565 125.4875747
  88.6610012 117.0064997 132.3319988  87.9850012 117.1374997 132.9959988
  88.1760012 116.8514997 131.5209988  88.5027146 117.0035157 132.3134469
  81.4120012 120.5954997 123.1169988  80.8690012 120.2154997 122.4259988
  82.2450012 120.7894997 122.6889988  81.4503631 120.5697125 122.9644501
  91.9490012 132.6784997 138.6079988  92.1490012 133.1024997 137.7739988
  92.6040012 133.0214997 139.2149988  92.0650072 132.7829857 138.5758592
  79.5470012 125.1524997 138.2159988  80.2790012 125.4064997 138.7779988
  78.7670012 125.3564997 138.7319988  79.5417073 125.2148160 138.3626151
  85.5760012 120.5594997 130.9539988  86.1410012 120.0124997 130.4069988
  85.4290012 120.0374997 131.7429988  85.6333380 120.4142259 130.9858695
  80.5780012 116.6954997 127.3729988  80.2610012 115.7934997 127.3369988
  81.3600012 116.6974997 126.8199988  80.6402408 116.5722474 127.2933569
  84.2030012 118.9474997 133.3679988  83.3670012 119.4014997 133.4789988
  84.7270012 119.2234997 134.1199988  84.1595416 119.0468660 133.4848119
  84.7470012 125.1604997 125.0529988  84.0020012 124.6534997 124.7309988
  84.6130012 125.2094997 125.9999988  84.6268776 125.0976940 125.1368647
  91.8970012 124.2934997 133.8399988  92.5390012 124.7504997 133.2959988
  91.0670012 124.4064997 133.3769988  91.8725963 124.3712704 133.7030177
  88.6450012 117.9744997 123.2519988  87.7060012 118.0864997 123.1009988
  88.9420012 118.8314997 123.5589988  88.5567583 118.1055981 123.2728337
  86.2660012 125.3444997 136.2899988  85.9210012 124.9634997 137.0969988
  86.0660012 126.2784997 136.3609988  86.1917527 125.4185135 136.4100689
  89.3630012 119.8414997 124.9129988  90.2550012 119.7044997 125.2319988
  89.4200012 120.6324997 124.3759988  89.4926504 119.9296052 124.8840818
  79.8720012 124.4554997 130.8229988  80.6170012 124.4534997 130.2219988
  79.9500012 123.6324997 131.3039988  79.9844995 124.3438887 130.8058282
  86.8730012 126.6194997 124.0789988  86.5770012 127.4454997 124.4599988
  86.1700012 125.9994997 124.2749988  86.7374914 126.6488199 124.1576443
  76.8800012 122.9164997 136.1379988  77.1030012 122.4984997 136.9699988
  76.2780012 122.3034997 135.7149988  76.8291759 122.7764668 136.1947022
  83.8960012 122.4334997 138.3509988  83.6000012 122.2674997 137.4559988
  84.8280012 122.2134997 138.3399988  83.9814166 122.3810640 138.2270536
  88.5170012 127.8064997 136.2409988  87.6160012 127.9894997 135.9729988
  88.5510012 128.0654997 137.1609988  88.3983139 127.8665849 136.3288099
  94.2480012 120.0514997 124.6079988  93.6940012 119.6554997 123.9359988
  94.3480012 120.9614997 124.3299988  94.1857059 120.1203586 124.4784401
  94.2110012 125.8514997 137.4449988  93.3600012 126.0894997 137.0779988
  94.8020012 125.8344997 136.6919988  94.1742487 125.8818258 137.2928893
  92.5430012 128.8374997 125.0729988  92.1700012 128.0114997 125.3819988
  92.8210012 128.6544997 124.1749988  92.5295222 128.6997430 124.9939473
  89.7040012 123.6454997 132.0939988  88.7750012 123.4134997 132.0669988
  90.1550012 122.8684997 131.7639988  89.6379216 123.5087238 132.0456917
  82.2470012 127.9734997 128.2269988  82.7740012 128.7464997 128.0269988
  81.3670012 128.1984997 127.9249988  82.2002031 128.1097545 128.1587912
  78.0020012 122.8354997 122.8139988  78.6180012 123.4624997 123.1939988
  77.1400012 123.1514997 123.0859988  77.9697698 122.9639430 122.9027183
  83.6740012 125.6364997 127.8029988  83.4330012 126.5614997 127.8449988
  82.9330012 125.1774997 128.1999988  83.5409225 125.7010933 127.8623742
  84.1890012 129.7854997 134.1189988  84.5510012 130.6404997 133.8849988
  84.7200012 129.4934997 134.8589988  84.3104473 129.8631060 134.1870855
  82.3570012 130.6584997 127.3489988  81.4070012 130.7634997 127.3999988
  82.7090012 131.4784997 127.6929988  82.2744195 130.7838800 127.4025502
  87.7330012 125.8844997 133.8189988  87.3070012 125.6574997 134.6459988
  88.3130012 125.1464997 133.6369988  87.7531868 125.7535299 133.9075830
  89.9360012 126.8134997 122.8929988  90.2890012 126.4334997 123.6969988
  88.9870012 126.7204997 122.9799988  89.8560918 126.7488956 123.0148532
  90.3910012 130.4364997 136.2889988  89.7900012 129.8814997 135.7929988
  90.6730012 131.1034997 135.6619988  90.3468804 130.4506625 136.1364849
  94.4390012 131.2934997 123.0939988  95.1830012 131.8794997 122.9539988
  93.7450012 131.8614997 123.4269988  94.4469899 131.4505798 123.1198778
  78.5140012 117.6694997 135.6959988  77.6210012 118.0084997 135.6279988
  78.4150012 116.8144997 136.1139988  78.3784164 117.6002588 135.7432235
  90.8020012 125.4864997 125.1199988  90.5240012 124.7584997 125.6759988
  91.7290012 125.6054997 125.3249988  90.8893124 125.4028802 125.2238845
  78.1650012 129.4744997 134.1309988  78.3820012 128.5424997 134.0999988
  78.4110012 129.7484997 135.0139988  78.2279549 129.3840636 134.2461763
  84.0270012 127.9254997 121.3399988  84.2660012 127.1774997 120.7929988
  83.7580012 127.5374997 122.1729988  84.0233675 127.7706638 121.3776865
  82.9640012 127.4954997 123.7959988  83.1100012 126.9754997 124.5859988
  82.9610012 128.4024997 124.1029988  82.9835792 127.5468842 123.9456117
  79.4170012 124.7484997 124.3069988  78.7310012 125.1004997 124.8739988
  79.9390012 125.5114997 124.0599988  79.3936852 124.8998578 124.3512118
  87.2480012 117.4104997 134.5859988  87.9470012 117.4844997 135.2359988
  86.8670012 116.5464997 134.7399988  87.2921767 117.3037624 134.6958322
  88.0330012 117.0624997 125.6829988  88.2530012 117.5344997 124.8799988
  88.5910012 117.4574997 126.3529988  88.1384968 117.1804285 125.6637331
  85.7010012 129.1934997 124.5459988  84.8850012 129.6904997 124.5979988
  86.2310012 129.6684997 123.9059988  85.6609161 129.3257722 124.4665956
  85.2330012 118.7904997 126.5179988  86.0450012 119.2954997 126.5639988
  84.9880012 118.6454997 127.4319988  85.3110520 118.8400375 126.6478517
  85.7680012 119.7764997 135.7019988  85.8870012 120.3504997 136.4599988
  86.4240012 119.0884997 135.8169988  85.8729025 119.7619858 135.8211321
  86.1160012 115.8714997 127.4559988  85.7700012 116.4894997 128.0999988
  86.7750012 116.3724997 126.9739988  86.1576968 116.0236278 127.4789383
  83.0400012 130.2374997 124.5269988  83.2000012 131.0364997 124.0269988
  82.8420012 130.5434997 125.4119988  83.0351637 130.3884020 124.5781144
  81.7740012 116.9344997 124.1429988  81.6910012 117.8234997 124.4899988
  82.6640012 116.6694997 124.3749988  81.8829469 117.0201430 124.2217626
  91.9730012 117.6834997 136.5369988  91.0560012 117.9464997 136.4499988
  92.3080012 117.6804997 135.6409988  91.8928613 117.7190761 136.4038837
  90.5750012 121.4344997 130.6329988  89.7770012 121.0194997 130.3049988
  91.0200012 120.7434997 131.1239988  90.5259885 121.2843543 130.6544889
  80.0330012 127.3624997 123.2039988  80.6250012 128.0614997 123.4799988
  80.4920012 126.9294997 122.4839988  80.1761142 127.3997049 123.1444830
  78.3490012 120.0264997 122.3199988  78.3040012 120.9654997 122.4979988
  77.4610012 119.7904997 122.0499988  78.2228574 120.1231892 122.3078912
  91.6610012 130.6904997 132.2559988  91.5060012 131.3684997 131.5979988
  92.5940012 130.7624997 132.4589988  91.7658657 130.7929546 132.1934360
  79.1570012 114.8084997 130.9929988  78.9280012 114.8674997 130.0649988
  78.7140012 114.0164997 131.2989988  79.0658530 114.7095753 130.9074786
  78.0870012 128.7484997 127.1529988  77.2550012 129.2214997 127.1799988
  78.6330012 129.2584997 126.5549988  78.0470352 128.8821332 127.0758463
  77.3750012 131.3614997 138.4829988  77.9160012 131.1444997 139.2429988
  76.8940012 130.5554997 138.2929988  77.3839951 131.2229270 138.5612576
  81.9730012 130.2804997 140.1029988  82.7400012 129.8214997 140.4439988
  81.9510012 130.0544997 139.1739988  82.0751275 130.1870186 140.0240101
  86.0650012 129.7884997 121.4789988  85.4210012 129.1574997 121.7999988
  86.8270012 129.2574997 121.2469988  86.0798077 129.6302920 121.4916011
  88.5500012 128.6604997 138.8329988  88.1990012 127.8044997 139.0759988
  89.2760012 128.8034997 139.4399988  88.6000769 128.5625636 138.9483619
  90.6690012 129.6054997 121.7119988  90.9520012 128.8114997 122.1649988
  91.4090012 129.8384997 121.1519988  90.8078006 129.5283376 121.6982715
  77.2820012 125.1714997 139.4369988  77.4260012 124.2694997 139.1509988
  76.5100012 125.4574997 138.9499988  77.1972753 125.0866816 139.3319505
  81.6240012 125.5154997 121.5699988  81.6880012 124.7214997 122.1009988
  82.2770012 125.3964997 120.8799988  81.7210241 125.3907148 121.5494317
  83.9380012 125.1414997 138.8699988  83.6090012 125.4124997 138.0129988
  84.0900012 124.2004997 138.7829988  83.9134809 125.0513862 138.7408244
  86.9760012 126.5624997 121.3059988  86.7070012 126.7424997 122.2069988
  86.7700012 125.6364997 121.1739988  86.9113427 126.4620261 121.4115073
  89.6720012 125.0574997 136.2529988  90.4180012 125.6454997 136.1339988
  88.9150012 125.6394997 136.3169988  89.6717820 125.2167143 136.2453590
  78.1150012 122.3714997 138.8569988  78.5230012 121.5144997 138.7359988
  77.8550012 122.3864997 139.7779988  78.1357568 122.2560807 138.9649588
  82.7730012 123.4874997 123.8759988  82.3130012 123.0034997 124.5619988
  83.0280012 122.8194997 123.2399988  82.7444902 123.3308731 123.8839334
  82.0620012 121.3804997 136.2319988  81.4440012 122.0554997 136.5119988
  82.4060012 121.7014997 135.3979988  82.0239132 121.5162411 136.1576262
  83.8440012 121.7304997 122.1379988  83.6640012 121.5764997 121.2109988
  84.7940012 121.8384997 122.1829988  83.9477776 121.7240175 122.0171843
  87.0820012 123.8524997 139.5089988  88.0350012 123.9354997 139.4819988
  86.9210012 123.1404997 140.1289988  87.1906426 123.7676746 139.5890579
  93.2340012 124.0854997 121.5839988  92.9600012 123.6604997 120.7709988
  93.2730012 125.0164997 121.3669988  93.2017699 124.1532484 121.4433610
  82.4010012 118.7354997 137.3139988  82.5510012 118.0064997 136.7119988
  82.4040012 119.5124997 136.7549988  82.4219302 118.7407851 137.1560692
  82.8140012 117.1054997 134.8069988  83.3500012 117.5564997 134.1549988
  81.9620012 116.9974997 134.3839988  82.7722178 117.1526390 134.6605756
  84.3960012 122.5444997 135.0459988  85.1460012 122.3884997 134.4729988
  84.0570012 123.3964997 134.7709988  84.4528921 122.6382968 134.9303561
  88.8110012 120.3594997 140.0749988  89.0040012 119.4284997 139.9629988
  89.6690012 120.7844997 140.0639988  88.9532934 120.2896531 140.0582031
  90.1280012 123.1484997 138.1519988  89.8470012 123.8574997 137.5739988
  91.0710012 123.0754997 138.0009988  90.2169291 123.2356711 138.0524967
  80.8800012 119.9334997 139.2259988  80.1130012 119.4014997 139.0149988
  81.5590012 119.6234997 138.6259988  80.8667877 119.8188300 139.1160716
  83.6200012 114.5614997 135.2379988  83.5210012 115.5084997 135.1329988
  82.8770012 114.1894997 134.7619988  83.5061184 114.6405863 135.1593621
  84.8840012 118.8834997 138.8019988  84.6480012 118.6634997 139.7029988
  84.1000012 118.6764997 138.2919988  84.7458504 118.8254586 138.8563431
  87.5990012 118.0104997 137.8769988  86.6520012 118.0424997 138.0099988
  87.9120012 117.3854997 138.5309988  87.5116707 117.9303998 137.9836060
  89.2330012 116.6444997 139.8829988  89.1370012 115.6924997 139.8769988
  88.9120012 116.9134997 140.7429988  89.1764070 116.5504035 139.9985441
  79.0600012 117.8544997 138.9299988  79.2720012 117.1474997 138.3199988
  78.9490012 117.4164997 139.7739988  79.0739721 117.6987084 138.9606843
  83.8410012 113.8554997 137.9089988  84.5530012 113.2154997 137.8949988
  83.7400012 114.1224997 136.9959988  83.9248066 113.8040079 137.7835677
  84.1950012 115.5384997 139.9629988  84.0630012 115.0624997 139.1429988
  83.5960012 116.2824997 139.9079988  84.0959071 115.5739618 139.8432886
  83.7410012 132.4214997 123.1389988  84.6740012 132.5794997 123.2829988
  83.4770012 133.0964997 122.5149988  83.8329888 132.5344510 123.0742842
  77.3100012 127.0574997 122.6219988  78.2240012 127.1364997 122.8959988
  77.3170012 126.3704997 121.9559988  77.4361131 126.9753961 122.5694393
  75.9590012 132.4504997 127.6999988  75.3120012 131.9884997 127.1669988
  76.3130012 131.7784997 128.2819988  75.9183849 132.2964723 127.7057959
  76.8290012 130.5314997 129.5039988  76.4940012 129.6514997 129.6759988
  77.0510012 130.8764997 130.3689988  76.8131783 130.4577500 129.6444208
  94.3770012 131.3404997 132.4849988  94.3560012 131.5254997 133.4239988
  95.0680012 131.9094997 132.1439988  94.4674618 131.4426606 132.5673864
  93.9410012 130.9084997 135.4069988  93.4530012 130.1724997 135.0349988
  94.4900012 130.5144997 136.0849988  93.9484820 130.7545889 135.4477813
  92.3910012 126.6974997 140.0449988  91.5250012 126.5924997 140.4389988
  92.7680012 127.4564997 140.4909988  92.3233308 126.7856900 140.1592393
  93.6920012 124.9544997 125.5589988  94.5420012 125.3754997 125.6859988
  93.6980012 124.2144997 126.1659988  93.8091372 124.9120803 125.6584344
  94.0870012 123.0074997 127.3819988  93.3600012 122.5284997 127.7799988
  94.6680012 123.2134997 128.1149988  94.0660473 122.9698103 127.5354528
  93.8460012 125.7924997 132.3299988  94.6790012 125.4144997 132.0499988
  93.9580012 126.7354997 132.2109988  93.9752647 125.8682218 132.2755487
  92.3320012 128.6704997 134.6369988  91.6850012 128.9954997 135.2629988
  91.8150012 128.2304997 133.9629988  92.1734029 128.6555004 134.6315827
  94.3550012 122.9084997 123.7739988  93.8330012 123.2654997 123.0549988
  94.3220012 123.5834997 124.4519988  94.2791634 123.0485413 123.7673145
  92.7040012 120.1484997 122.3239988  92.8000012 120.8154997 121.6439988
  92.5640012 119.3324997 121.8429988  92.6982272 120.1295655 122.1658347
  91.8730012 121.5284997 127.9449988  91.7230012 120.5834997 127.9249988
  91.5200012 121.8094997 128.7889988  91.8047448 121.4371481 128.0563705
  76.9090012 123.6064997 131.9559988  77.0930012 123.5244997 131.0199988
  77.7580012 123.4824997 132.3789988  77.0490151 123.5785073 131.8851451
  92.7300012 123.4984997 137.5839988  93.3130012 122.7644997 137.7759988
  93.2940012 124.2704997 137.6309988  92.8859769 123.5024227 137.6166159
  94.2260012 121.4014997 138.2689988  93.3630012 121.0224997 138.1029988
  94.8310012 120.6624997 138.1939988  94.1896119 121.2498268 138.2361528
  91.9510012 117.5564997 121.4419988  92.5620012 117.1854997 122.0789988
  91.1150012 117.1354997 121.6379988  91.9215032 117.4487554 121.5557035
  91.5840012 119.1114997 126.4079988  91.8640012 118.2044997 126.5319988
  92.3430012 119.5454997 126.0189988  91.7249277 119.0460942 126.3723682
  92.1960012 119.6924997 131.8439988  93.1290012 119.9044997 131.8089988
  91.9610012 119.7944997 132.7659988  92.2919244 119.7353100 131.9638892
  92.2250012 120.4294997 134.6199988  91.3820012 120.6974997 134.9859988
  92.6670012 121.2514997 134.4089988  92.1694158 120.5773291 134.6415491
  76.5060012 118.8774997 138.0969988  77.4260012 118.7554997 138.3329988
  76.0570012 118.1274997 138.4859988  76.5711580 118.7593727 138.1819006
  94.5080012 114.4094997 139.9729988  94.8580012 113.7554997 139.3679988
  94.6550012 115.2464997 139.5329988  94.5757887 114.4331548 139.8306858
  92.1970012 116.3744997 126.4559988  92.3800012 115.9254997 127.2819988
  91.5980012 115.7894997 125.9929988  92.1410202 116.2339975 126.5063275
  77.7270012 117.1894997 130.9879988  78.1730012 116.3974997 131.2899988
  78.1940012 117.9054997 131.4179988  77.8510831 117.1780685 131.0874006
  76.0310012 120.1884997 132.0569988  76.5230012 119.9674997 131.2659988
  76.3940012 121.0294997 132.3379988  76.1473126 120.2718357 131.9867531
  94.0280012 116.5184997 138.3219988  93.1100012 116.7894997 138.2869988
  94.1510012 115.9834997 137.5379988  93.9189729 116.4832508 138.2111923
  94.0640012 116.4414997 122.9839988  94.4760012 115.7204997 122.5089988
  94.7460012 117.1114997 123.0429988  94.2125885 116.4332368 122.9268915
  76.3450012 116.4464997 126.1109988  75.4200012 116.6554997 125.9819988
  76.7990012 116.9304997 125.4209988  76.2797292 116.5405343 126.0000720
  91.1160012 131.4304997 128.0569988  91.7680012 131.0834997 127.4489988
  91.6260012 131.9194997 128.7029988  91.2742637 131.4490597 128.0610236
  76.3090012 115.1844997 134.4549988  75.6440012 114.9384997 135.0989988
  75.8660012 115.8064997 133.8779988  76.1581318 115.2349410 134.4650898
  78.5010012 128.3594997 138.5999988  77.6800012 128.5344997 138.1389988
  78.2480012 128.2864997 139.5199988  78.3545585 128.3735544 138.6613561
  81.4550012 129.3344997 134.8579988  81.0300012 130.1434997 134.5759988
  82.3590012 129.4194997 134.5559988  81.5189975 129.4569300 134.7784816
  85.7660012 130.7334997 137.8179988  85.9510012 130.3994997 138.6959988
  86.6120012 131.0424997 137.4959988  85.9057539 130.7296047 137.8945605
  88.1110012 132.0194997 137.0619988  88.7880012 131.3864997 136.8219988
  88.4330012 132.4204997 137.8689988  88.2471637 131.9871154 137.1382793
  93.0280012 114.6084997 136.1409988  92.2160012 114.9334997 135.7539988
  93.2610012 113.8484997 135.6079988  92.9482203 114.5502758 136.0158880
  78.8570012 132.5904997 134.9059988  78.1360012 133.0304997 134.4549988
  78.4910012 132.3394997 135.7539988  78.7089651 132.6167242 134.9589640
  81.3240012 132.1904997 133.9359988  80.4590012 132.2624997 134.3399988
  81.2690012 132.7374997 133.1519988  81.1982085 132.2742685 133.8853362
  86.0340012 132.0784997 133.1109988  85.5780012 132.6074997 132.4569988
  86.1970012 132.6814997 133.8359988  85.9936068 132.2324607 133.1194838
  88.3620012 130.9564997 134.0559988  87.4570012 131.1214997 133.7899988
  88.7910012 131.8094997 133.9909988  88.2961324 131.0944339 134.0107976
  90.9660012 132.5264997 134.3509988  90.7840012 133.4424997 134.1409988
  91.1430012 132.1164997 133.5049988  90.9650210 132.5964822 134.2077885
  78.2710012 131.2134997 131.8159988  78.2530012 130.7884997 132.6729988
  79.0760012 130.8954997 131.4069988  78.3773529 131.1123013 131.8780946
  80.4130012 129.9234997 130.4709988  80.1940012 129.0074997 130.6409988
  81.2370012 130.0634997 130.9369988  80.4944420 129.8170520 130.5572774
  82.9500012 130.3934997 131.3199988  83.1630012 129.5054997 131.0329988
  83.0140012 130.3594997 132.2739988  82.9878232 130.2673102 131.4097397
  86.4580012 116.0574997 130.4639988  85.7840012 115.4284997 130.7199988
  87.0220012 115.5734997 129.8609988  86.4419230 115.9058744 130.4175340
  91.6010012 114.1654997 130.5769988  92.2050012 114.7124997 130.0749988
  90.7310012 114.4844997 130.3359988  91.5661208 114.2835137 130.4756886
  93.3280012 115.3034997 128.9099988  93.9400012 114.7894997 128.3829988
  93.7100012 116.1814997 128.9329988  93.4633371 115.3517866 128.8410041
  78.7850012 114.6914997 128.2859988  78.0080012 114.4574997 127.7789988
  79.3150012 113.8944997 128.2949988  78.7502330 114.5516988 128.2177742
  77.6210012 114.4894997 124.0899988  78.0600012 115.1004997 123.4979988
  76.9880012 115.0274997 124.5639988  77.5954514 114.6459257 124.0730930
  83.3640012 114.6184997 128.0999988  84.2390012 115.0064997 128.0699988
  83.2280012 114.4034997 129.0219988  83.4653695 114.6425184 128.2206440
  88.9210012 114.6484997 129.7489988  88.9970012 114.7434997 128.7989988
  88.6460012 113.7404997 129.8779988  88.8942321 114.5387867 129.6365079
  90.2740012 114.6744997 125.4409988  89.5720012 115.2894997 125.2309988
  89.8300012 113.8364997 125.5719988  90.1176450 114.6455639 125.4299000
  77.5220012 130.4374997 124.9869988  76.8370012 130.3994997 124.3199988
  77.5260012 131.3504997 125.2759988  77.4286998 130.5556733 124.9346771
  79.4820012 116.4054997 122.5319988  79.9740012 115.7754997 122.0049988
  80.1060012 116.7014997 123.1949988  79.6335688 116.3593804 122.5495482
  84.5080012 116.6984997 124.9889988  84.6860012 116.0524997 125.6719988
  84.4550012 117.5324997 125.4559988  84.5251999 116.7228009 125.1455917
  86.3870012 131.6474997 123.3849988  87.2530012 132.0134997 123.2069988
  86.1400012 131.2074997 122.5709988  86.4722392 131.6381756 123.2506289
  93.0960012 131.2104997 126.0639988  92.9010012 130.4624997 125.4989988
  93.0570012 131.9684997 125.4809988  93.0640380 131.2106099 125.9078384
  78.7430012 115.2054997 137.8039988  78.3770012 114.4404997 138.2459988
  79.6560012 115.2344997 138.0899988  78.8162736 115.1045640 137.9032502
  80.7160012 114.5564997 139.3399988  81.6140012 114.2824997 139.1549988
  80.3290012 113.8134997 139.8039988  80.7866612 114.4185914 139.3773643
  79.3400012 131.3574997 122.0129988  79.0730012 131.6444997 122.8859988
  80.1120012 130.8114997 122.1649988  79.4077488 131.3230294 122.1531050
  89.1370012 113.8884997 139.5219988  89.2140012 113.4624997 140.3759988
  90.0310012 113.9024997 139.1789988  89.2683428 113.8320879 139.5925310
  92.3130012 129.9614997 138.2139988  91.5310012 129.7754997 137.6939988
  92.2410012 130.8904997 138.4319988  92.1962274 130.0616643 138.1723018
 106.7190012 123.8474997 128.2449988 106.8080012 124.7914997 128.1129988
 106.0810012 123.5724997 127.5869988 106.6449081 123.9394830 128.1379614
 105.6520012 123.1024997 131.6639988 105.6140012 122.4564997 132.3689988
 105.3300012 122.6364997 130.8929988 105.6032333 122.9509408 131.6562978
  98.0210012 122.7174997 133.2569988  98.0620012 122.0914997 133.9799988
  98.7240012 123.3414997 133.4389988  98.1216363 122.7161196 133.3806044
 109.3580012 126.0414997 129.9649988 108.9180012 125.3214997 130.4159988
 109.3450012 126.7624997 130.5949988 109.2960226 126.0403731 130.1118494
  98.9440012 127.1674997 131.7919988  98.5750012 126.3654997 131.4219988
  99.8850012 126.9984997 131.8379988  99.0207289 127.0350153 131.7476316
  95.5540012 120.8274997 127.1849988  95.1070012 121.6734997 127.1659988
  94.9930012 120.2474997 126.6689988  95.4169900 120.8649916 127.1126801
  96.2650012 122.9894997 129.3099988  96.4780012 122.2194997 129.8379988
  97.0030012 123.0784997 128.7069988  96.3939044 122.8961968 129.3007123
 106.4700012 131.1464997 130.1769988 107.0900012 130.4694997 129.9039988
 106.2620012 130.9284997 131.0859988 106.5266726 131.0244800 130.2624812
 104.0420012 125.5354997 132.0699988 104.3460012 124.8494997 131.4749988
 104.7630012 125.6534997 132.6879988 104.1810671 125.4576305 132.0721816
 112.7050012 117.1364997 132.9309988 112.7540012 117.7464997 133.6659988
 113.1300012 117.5974997 132.2079988 112.7691746 117.2823796 132.9339175
 107.1830012 119.9294997 132.3969988 107.3250012 118.9834997 132.4179988
 107.0760012 120.1364997 131.4689988 107.1879919 119.8278246 132.2743408
 100.3370012 118.0304997 129.6699988 100.3810012 118.8904997 129.2509988
  99.8800012 117.4784997 129.0359988 100.2812240 118.0734422 129.5269864
 108.0600012 118.1614997 128.0709988 108.7060012 117.8324997 128.6949988
 108.5700012 118.6794997 127.4479988 108.2174299 118.1864450 128.0722731
  96.9580012 120.4274997 130.4319988  97.6110012 119.8774997 130.8639988
  96.9820012 120.1534997 129.5149988  97.0506683 120.3151466 130.3672123
 102.1140012 121.9774997 129.6469988 102.7300012 121.4514997 130.1569988
 101.5280012 121.3374997 129.2439988 102.1190810 121.8189208 129.6623173
 113.0960012 118.6144997 135.1659988 112.4080012 119.2724997 135.0709988
 113.1120012 118.4174997 136.1029988 113.0039540 118.6779819 135.2795990
  99.1480012 116.9484997 133.7439988  98.9290012 117.4784997 132.9779988
  98.4800012 117.1754997 134.3909988  99.0277600 117.0516906 133.7266379
 106.5170012 126.4484997 127.2879988 106.2210012 126.1264997 126.4369988
 106.1920012 127.3484997 127.3289988 106.4326371 126.5260215 127.1771801
 101.7170012 124.6244997 134.0309988 100.9770012 125.2224997 134.1349988
 102.4310012 125.1784997 133.7159988 101.7122237 124.7812831 134.0026465
 109.8240012 117.4524997 130.0509988 109.6080012 116.6864997 130.5839988
 110.4790012 117.9244997 130.5639988 109.8830632 117.4115889 130.1932861
  98.7410012 118.8404997 131.6959988  99.3550012 119.4734997 132.0689988
  99.2530012 118.3684997 131.0399988  98.8941981 118.8632267 131.6582908
 100.1240012 126.5884997 134.8179988 100.1190012 127.4684997 134.4399988
  99.2710012 126.5054997 135.2429988 100.0079464 126.6976117 134.8237907
  96.2450012 126.2594997 125.5999988  95.9730012 126.4884997 124.7119988
  96.2910012 127.0974997 126.0609988  96.2139482 126.4041318 125.5406273
 109.8700012 127.8814997 132.3129988 108.9290012 127.9394997 132.4749988
 110.1470012 128.7874997 132.1759988 109.7784679 128.0119443 132.3166815
 110.1710012 116.1674997 133.7309988 109.4350012 116.7784997 133.6929988
 110.8540012 116.5824997 133.2039988 110.1626541 116.3071374 133.6545832
 103.1740012 114.2544997 131.1959988 103.0570012 113.3054997 131.1419988
 102.3190012 114.5864997 131.4699988 103.0424212 114.1695571 131.2256497
 108.1220012 129.6624997 128.9379988 108.5480012 128.9554997 128.4529988
 108.4390012 130.4634997 128.5219988 108.2231683 129.6741017 128.8153680
 109.2820012 127.5634997 127.4469988 109.0240012 126.8734997 126.8359988
 109.3530012 127.1204997 128.2929988 109.2562856 127.4092124 127.4776885
 110.9680012 126.1294997 135.9239988 111.1080012 125.5384997 135.1849988
 111.1350012 127.0024997 135.5679988 111.0097411 126.1665428 135.7746894
 105.4410012 123.0914997 125.6969988 104.7290012 123.6264997 125.3449988
 106.1320012 123.1474997 125.0369988 105.4370132 123.1722543 125.5596289
 105.4940012 121.5494997 122.7359988 106.1950012 121.5714997 123.3869988
 105.7970012 120.9214997 122.0789988 105.6308133 121.4677070 122.7363369
 112.8100012 122.4694997 133.9899988 112.1570012 123.1644997 134.0799988
 113.2750012 122.6794997 133.1809988 112.7835274 122.5930643 133.8928462
 108.8460012 123.3014997 126.6489988 108.1140012 123.5294997 127.2219988
 109.2940012 122.5874997 127.1029988 108.8062725 123.2362145 126.7888816
 108.7440012 121.4754997 135.7159988 108.8240012 122.2384997 136.2879988
 108.1420012 121.7544997 135.0259988 108.6735756 121.6177134 135.7010589
 100.4920012 123.9314997 128.5309988 100.1610012 123.5614997 127.7129988
 101.0800012 123.2614997 128.8779988 100.5261873 123.7901156 128.4658102
 101.8580012 127.3594997 131.2119988 101.7640012 126.7814997 130.4559988
 102.5880012 126.9884997 131.7089988 101.9437386 127.2301663 131.1755342
 100.8580012 122.7004997 132.1649988 101.4240012 122.8214997 131.4019988
 101.1770012 123.3374997 132.8029988 100.9785474 122.8032219 132.1469862
 107.1670012 128.2034997 132.8989988 106.9270012 128.8654997 133.5469988
 106.9690012 127.3694997 133.3239988 107.1073808 128.1813134 133.0451524
 101.7380012 127.0994997 136.8819988 101.4270012 127.8814997 137.3369988
 101.0880012 126.9464997 136.1959988 101.6075558 127.1859105 136.8515871
 107.7170012 122.4634997 124.3339988 108.2970012 122.6134997 125.0809988
 108.1310012 122.9344997 123.6099988 107.8522997 122.5476578 124.3384058
  98.6580012 123.2974997 136.1099988  98.7290012 123.9484997 136.8089988
  97.7680012 123.4004997 135.7749988  98.5473005 123.4005427 136.1603495
 105.4440012 129.2004997 127.7689988 105.9180012 129.4954997 128.5459988
 104.8810012 129.9384997 127.5359988 105.4328184 129.3407247 127.8439628
  99.9780012 129.1714997 137.6449988  99.9850012 129.0354997 136.6979988
  99.0620012 129.0534997 137.8969988  99.8551714 129.1369430 137.5494666
 111.4160012 114.2134997 124.1469988 110.5160012 114.3524997 124.4419988
 111.6680012 115.0444997 123.7449988 111.3268702 114.3449074 124.1330205
  99.4820012 123.0014997 126.1199988  99.1900012 123.7694997 125.6299988
  98.8080012 122.3414997 125.9579988  99.3508111 123.0175587 126.0308978
 112.6050012 128.5794997 122.5229988 112.6790012 129.5184997 122.6939988
 113.5110012 128.2744997 122.4669988 112.7375100 128.6666722 122.5388119
  95.5750012 125.3644997 134.9349988  95.0740012 125.3364997 134.1199988
  95.5800012 124.4584997 135.2449988  95.5070944 125.2382396 134.8653226
  95.3250012 128.1444997 131.8189988  96.2710012 128.0004997 131.7999988
  95.2130012 128.9284997 132.3559988  95.4392727 128.2308046 131.8890072
 113.5230012 128.8104997 137.5019988 113.4740012 127.8554997 137.4649988
 112.6960012 129.0784997 137.9029988 113.4044940 128.7158998 137.5511375
 104.5020012 128.3844997 136.3779988 104.5890012 129.2104997 136.8529988
 103.6380012 128.0544997 136.6269988 104.3971964 128.4529878 136.4766549
 104.9160012 132.1564997 126.1839988 104.8410012 132.0354997 125.2369988
 104.9490012 133.1064997 126.3019988 104.9102068 132.2682646 126.0704967
  98.5690012 130.9454997 127.9649988  98.7220012 130.5974997 128.8429988
  97.7190012 130.5894997 127.7099988  98.4749166 130.8496216 128.0508079
 108.0180012 131.3104997 123.1859988 108.3930012 130.5664997 122.7149988
 108.0220012 131.0404997 124.1049988 108.0699125 131.1720986 123.2456483
 107.6870012 131.2364997 125.9349988 106.7510012 131.3364997 126.1139988
 107.9670012 130.5274997 126.5139988 107.5969553 131.1543406 126.0377087
 110.6750012 120.3034997 137.9819988 110.2680012 120.7844997 137.2609988
 110.7160012 119.3984997 137.6739988 110.6248437 120.2469374 137.8416683
  97.8240012 126.6874997 135.9789988  98.0400012 126.3264997 136.8379988
  96.9690012 126.3134997 135.7689988  97.7379292 126.5874111 136.0683386
 100.4430012 115.1574997 131.9739988  99.5810012 115.0704997 131.5659988
 100.4200012 116.0134997 132.4019988 100.3220409 115.2612883 131.9760589
 105.1060012 114.8794997 135.3489988 105.5260012 114.4644997 136.1019988
 104.1730012 114.7014997 135.4659988 105.0373644 114.7985900 135.4679539
 108.4320012 118.6354997 136.2019988 107.9180012 118.5094997 136.9999988
 108.2770012 119.5474997 135.9579988 108.3406852 118.7416132 136.2782158
 109.1950012 123.4964997 121.9639988 109.2370012 123.2734997 121.0339988
 110.0440012 123.8954997 122.1529988 109.3155280 123.5199438 121.8623554
 104.7670012 117.3724997 122.6339988 104.5140012 117.3914997 123.5569988
 104.5110012 116.5004997 122.3319988 104.6977481 117.2572558 122.7196175
 100.5340012 120.1234997 133.0689988  99.8920012 120.0824997 133.7779988
 100.5710012 121.0494997 132.8309988 100.4510664 120.2431430 133.1339219
 100.5310012 120.3444997 127.9809988  99.6380012 120.0034997 127.9219988
 100.9810012 119.9674997 127.2249988 100.4698130 120.2469631 127.8707702
 106.0660012 120.7604997 126.7979988 105.6570012 121.5754997 126.5069988
 106.7870012 120.6204997 126.1839988 106.1074537 120.8532018 126.6751342
 105.1680012 120.9354997 138.2859988 104.6060012 120.2314997 138.6069988
 105.9950012 120.8154997 138.7539988 105.2027095 120.8227883 138.3932330
 107.0710012 120.2064997 129.6119988 106.8760012 120.8114997 128.8969988
 107.2520012 119.3724997 129.1779988 107.0687614 120.1766300 129.4554405
  98.2840012 120.4434997 134.9359988  98.2460012 120.8434997 135.8049988
  97.7930012 119.6264997 135.0269988  98.2124684 120.3878069 135.0671059
 101.6500012 117.8174997 121.7349988 101.2190012 117.3724997 122.4649988
 100.9320012 118.1894997 121.2229988 101.4939438 117.8068940 121.7656799
  94.8920012 117.5594997 128.7869988  95.5230012 117.5304997 129.5059988
  95.3410012 117.1344997 128.0559988  95.0390918 117.4980836 128.7866441
  96.1660012 118.3054997 124.2109988  96.6400012 118.8964997 123.6259988
  95.4490012 118.8364997 124.5579988  96.1339341 118.4580867 124.1778836
 106.3350012 121.8444997 134.2829988 106.6580012 121.2134997 133.6399988
 105.8950012 121.3094997 134.9439988 106.3197484 121.6858387 134.2843198
 103.1120012 117.7714997 129.0669988 102.2010012 117.8284997 129.3559988
 103.6180012 117.7114997 129.8779988 103.0556899 117.7711941 129.2161184
  97.9410012 119.4004997 127.8939988  97.0510012 119.5004997 127.5539988
  98.2370012 118.5584997 127.5479988  97.8592823 119.3003545 127.8007213
 101.5940012 119.4004997 125.5509988 102.5250012 119.5294997 125.7289988
 101.3790012 120.0704997 124.9009988 101.6924247 119.5086565 125.4875747
 107.5170012 117.0064997 132.3319988 106.8410012 117.1374997 132.9959988
 107.0320012 116.8514997 131.5209988 107.3587146 117.0035157 132.3134469
 100.2680012 120.5954997 123.1169988  99.7250012 120.2154997 122.4259988
 101.1010012 120.7894997 122.6889988 100.3063631 120.5697125 122.9644501
 110.8050012 132.6784997 138.6079988 111.0050012 133.1024997 137.7739988
 111.4600012 133.0214997 139.2149988 110.9210073 132.7829857 138.5758592
  98.4030012 125.1524997 138.2159988  99.1350012 125.4064997 138.7779988
  97.6230012 125.3564997 138.7319988  98.3977073 125.2148160 138.3626151
 104.4320012 120.5594997 130.9539988 104.9970012 120.0124997 130.4069988
 104.2850012 120.0374997 131.7429988 104.4893380 120.4142259 130.9858695
  99.4340012 116.6954997 127.3729988  99.1170012 115.7934997 127.3369988
 100.2160012 116.6974997 126.8199988  99.4962408 116.5722474 127.2933569
 103.0590012 118.9474997 133.3679988 102.2230012 119.4014997 133.4789988
 103.5830012 119.2234997 134.1199988 103.0155416 119.0468660 133.4848119
 103.6030012 125.1604997 125.0529988 102.8580012 124.6534997 124.7309988
 103.4690012 125.2094997 125.9999988 103.4828776 125.0976940 125.1368647
 110.7530012 124.2934997 133.8399988 111.3950012 124.7504997 133.2959988
 109.9230012 124.4064997 133.3769988 110.7285963 124.3712704 133.7030177
 107.5010012 117.9744997 123.2519988 106.5620012 118.0864997 123.1009988
 107.7980012 118.8314997 123.5589988 107.4127583 118.1055981 123.2728337
 105.1220012 125.3444997 136.2899988 104.7770012 124.9634997 137.0969988
 104.9220012 126.2784997 136.3609988 105.0477527 125.4185135 136.4100689
 108.2190012 119.8414997 124.9129988 109.1110012 119.7044997 125.2319988
 108.2760012 120.6324997 124.3759988 108.3486504 119.9296052 124.8840818
  98.7280012 124.4554997 130.8229988  99.4730012 124.4534997 130.2219988
  98.8060012 123.6324997 131.3039988  98.8404995 124.3438887 130.8058282
 105.7290012 126.6194997 124.0789988 105.4330012 127.4454997 124.4599988
 105.0260012 125.9994997 124.2749988 105.5934914 126.6488199 124.1576443
  95.7360012 122.9164997 136.1379988  95.9590012 122.4984997 136.9699988
  95.1340012 122.3034997 135.7149988  95.6851759 122.7764668 136.1947022
 102.7520012 122.4334997 138.3509988 102.4560012 122.2674997 137.4559988
 103.6840012 122.2134997 138.3399988 102.8374166 122.3810640 138.2270536
 107.3730012 127.8064997 136.2409988 106.4720012 127.9894997 135.9729988
 107.4070012 128.0654997 137.1609988 107.2543139 127.8665849 136.3288099
 113.1040012 120.0514997 124.6079988 112.5500012 119.6554997 123.9359988
 113.2040012 120.9614997 124.3299988 113.0417059 120.1203586 124.4784401
 113.0670012 125.8514997 137.4449988 112.2160012 126.0894997 137.0779988
 113.6580012 125.8344997 136.6919988 113.0302487 125.8818258 137.2928893
 111.3990012 128.8374997 125.0729988 111.0260012 128.0114997 125.3819988
 111.6770012 128.6544997 124.1749988 111.3855222 128.6997430 124.9939473
 108.5600012 123.6454997 132.0939988 107.6310012 123.4134997 132.0669988
 109.0110012 122.8684997 131.7639988 108.4939216 123.5087238 132.0456917
 101.1030012 127.9734997 128.2269988 101.6300012 128.7464997 128.0269988
 100.2230012 128.1984997 127.9249988 101.0562031 128.1097545 128.1587912
  96.8580012 122.8354997 122.8139988  97.4740012 123.4624997 123.1939988
  95.9960012 123.1514997 123.0859988  96.8257698 122.9639430 122.9027183
 102.5300012 125.6364997 127.8029988 102.2890012 126.5614997 127.8449988
 101.7890012 125.1774997 128.1999988 102.3969225 125.7010933 127.8623742
 103.0450012 129.7854997 134.1189988 103.4070012 130.6404997 133.8849988
 103.5760012 129.4934997 134.8589988 103.1664473 129.8631060 134.1870855
 101.2130012 130.6584997 127.3489988 100.2630012 130.7634997 127.3999988
 101.5650012 131.4784997 127.6929988 101.1304195 130.7838800 127.4025502
 106.5890012 125.8844997 133.8189988 106.1630012 125.6574997 134.6459988
 107.1690012 125.1464997 133.6369988 106.6091868 125.7535299 133.9075830
 108.7920012 126.8134997 122.8929988 109.1450012 126.4334997 123.6969988
 107.8430012 126.7204997 122.9799988 108.7120918 126.7488956 123.0148532
 109.2470012 130.4364997 136.2889988 108.6460012 129.8814997 135.7929988
 109.5290012 131.1034997 135.6619988 109.2028804 130.4506625 136.1364849
 113.2950012 131.2934997 123.0939988 114.0390012 131.8794997 122.9539988
 112.6010012 131.8614997 123.4269988 113.3029899 131.4505798 123.1198778
  97.3700012 117.6694997 135.6959988  96.4770012 118.0084997 135.6279988
  97.2710012 116.8144997 136.1139988  97.2344164 117.6002588 135.7432235
 109.6580012 125.4864997 125.1199988 109.3800012 124.7584997 125.6759988
 110.5850012 125.6054997 125.3249988 109.7453124 125.4028802 125.2238845
  97.0210012 129.4744997 134.1309988  97.2380012 128.5424997 134.0999988
  97.2670012 129.7484997 135.0139988  97.0839549 129.3840636 134.2461763
 102.8830012 127.9254997 121.3399988 103.1220012 127.1774997 120.7929988
 102.6140012 127.5374997 122.1729988 102.8793675 127.7706638 121.3776865
 101.8200012 127.4954997 123.7959988 101.9660012 126.9754997 124.5859988
 101.8170012 128.4024997 124.1029988 101.8395792 127.5468842 123.9456117
  98.2730012 124.7484997 124.3069988  97.5870012 125.1004997 124.8739988
  98.7950012 125.5114997 124.0599988  98.2496852 124.8998578 124.3512118
 106.1040012 117.4104997 134.5859988 106.8030012 117.4844997 135.2359988
 105.7230012 116.5464997 134.7399988 106.1481767 117.3037624 134.6958322
 106.8890012 117.0624997 125.6829988 107.1090012 117.5344997 124.8799988
 107.4470012 117.4574997 126.3529988 106.9944968 117.1804285 125.6637331
 104.5570012 129.1934997 124.5459988 103.7410012 129.6904997 124.5979988
 105.0870012 129.6684997 123.9059988 104.5169161 129.3257722 124.4665956
 104.0890012 118.7904997 126.5179988 104.9010012 119.2954997 126.5639988
 103.8440012 118.6454997 127.4319988 104.1670520 118.8400375 126.6478517
 104.6240012 119.7764997 135.7019988 104.7430012 120.3504997 136.4599988
 105.2800012 119.0884997 135.8169988 104.7289025 119.7619858 135.8211321
 104.9720012 115.8714997 127.4559988 104.6260012 116.4894997 128.0999988
 105.6310012 116.3724997 126.9739988 105.0136968 116.0236278 127.4789383
 101.8960012 130.2374997 124.5269988 102.0560012 131.0364997 124.0269988
 101.6980012 130.5434997 125.4119988 101.8911637 130.3884020 124.5781144
 100.6300012 116.9344997 124.1429988 100.5470012 117.8234997 124.4899988
 101.5200012 116.6694997 124.3749988 100.7389469 117.0201430 124.2217626
 110.8290012 117.6834997 136.5369988 109.9120012 117.9464997 136.4499988
 111.1640012 117.6804997 135.6409988 110.7488613 117.7190761 136.4038837
 109.4310012 121.4344997 130.6329988 108.6330012 121.0194997 130.3049988
 109.8760012 120.7434997 131.1239988 109.3819885 121.2843543 130.6544889
  98.8890012 127.3624997 123.2039988  99.4810012 128.0614997 123.4799988
  99.3480012 126.9294997 122.4839988  99.0321142 127.3997049 123.1444830
  97.2050012 120.0264997 122.3199988  97.1600012 120.9654997 122.4979988
  96.3170012 119.7904997 122.0499988  97.0788574 120.1231892 122.3078912
 110.5170012 130.6904997 132.2559988 110.3620012 131.3684997 131.5979988
 111.4500012 130.7624997 132.4589988 110.6218657 130.7929546 132.1934360
  98.0130012 114.8084997 130.9929988  97.7840012 114.8674997 130.0649988
  97.5700012 114.0164997 131.2989988  97.9218530 114.7095753 130.9074786
  96.9430012 128.7484997 127.1529988  96.1110012 129.2214997 127.1799988
  97.4890012 129.2584997 126.5549988  96.9030352 128.8821332 127.0758463
  96.2310012 131.3614997 138.4829988  96.7720012 131.1444997 139.2429988
  95.7500012 130.5554997 138.2929988  96.2399951 131.2229270 138.5612576
 100.8290012 130.2804997 140.1029988 101.5960012 129.8214997 140.4439988
 100.8070012 130.0544997 139.1739988 100.9311275 130.1870186 140.0240101
 104.9210012 129.7884997 121.4789988 104.2770012 129.1574997 121.7999988
 105.6830012 129.2574997 121.2469988 104.9358077 129.6302920 121.4916011
 107.4060012 128.6604997 138.8329988 107.0550012 127.8044997 139.0759988
 108.1320012 128.8034997 139.4399988 107.4560769 128.5625636 138.9483619
 109.5250012 129.6054997 121.7119988 109.8080012 128.8114997 122.1649988
 110.2650012 129.8384997 121.1519988 109.6638006 129.5283376 121.6982715
  96.1380012 125.1714997 139.4369988  96.2820012 124.2694997 139.1509988
  95.3660012 125.4574997 138.9499988  96.0532753 125.0866816 139.3319505
 100.4800012 125.5154997 121.5699988 100.5440012 124.7214997 122.1009988
 101.1330012 125.3964997 120.8799988 100.5770241 125.3907148 121.5494317
 102.7940012 125.1414997 138.8699988 102.4650012 125.4124997 138.0129988
 102.9460012 124.2004997 138.7829988 102.7694809 125.0513862 138.7408244
 105.8320012 126.5624997 121.3059988 105.5630012 126.7424997 122.2069988
 105.6260012 125.6364997 121.1739988 105.7673427 126.4620261 121.4115073
 108.5280012 125.0574997 136.2529988 109.2740012 125.6454997 136.1339988
 107.7710012 125.6394997 136.3169988 108.5277820 125.2167143 136.2453590
  96.9710012 122.3714997 138.8569988  97.3790012 121.5144997 138.7359988
  96.7110012 122.3864997 139.7779988  96.9917568 122.2560807 138.9649588
 101.6290012 123.4874997 123.8759988 101.1690012 123.0034997 124.5619988
 101.8840012 122.8194997 123.2399988 101.6004902 123.3308731 123.8839334
 100.9180012 121.3804997 136.2319988 100.3000012 122.0554997 136.5119988
 101.2620012 121.7014997 135.3979988 100.8799132 121.5162411 136.1576262
 102.7000012 121.7304997 122.1379988 102.5200012 121.5764997 121.2109988
 103.6500012 121.8384997 122.1829988 102.8037776 121.7240175 122.0171843
 105.9380012 123.8524997 139.5089988 106.8910012 123.9354997 139.4819988
 105.7770012 123.1404997 140.1289988 106.0466426 123.7676746 139.5890578
 112.0900012 124.0854997 121.5839988 111.8160012 123.6604997 120.7709988
 112.1290012 125.0164997 121.3669988 112.0577699 124.1532484 121.4433610
 101.2570012 118.7354997 137.3139988 101.4070012 118.0064997 136.7119988
 101.2600012 119.5124997 136.7549988 101.2779302 118.7407851 137.1560692
 101.6700012 117.1054997 134.8069988 102.2060012 117.5564997 134.1549988
 100.8180012 116.9974997 134.3839988 101.6282178 117.1526390 134.6605756
 103.2520012 122.5444997 135.0459988 104.0020012 122.3884997 134.4729988
 102.9130012 123.3964997 134.7709988 103.3088921 122.6382968 134.9303561
 107.6670012 120.3594997 140.0749988 107.8600012 119.4284997 139.9629988
 108.5250012 120.7844997 140.0639988 107.8092934 120.2896531 140.0582031
 108.9840012 123.1484997 138.1519988 108.7030012 123.8574997 137.5739988
 109.9270012 123.0754997 138.0009988 109.0729291 123.2356711 138.0524967
  99.7360012 119.9334997 139.2259988  98.9690012 119.4014997 139.0149988
 100.4150012 119.6234997 138.6259988  99.7227877 119.8188300 139.1160716
 102.4760012 114.5614997 135.2379988 102.3770012 115.5084997 135.1329988
 101.7330012 114.1894997 134.7619988 102.3621184 114.6405863 135.1593621
 103.7400012 118.8834997 138.8019988 103.5040012 118.6634997 139.7029988
 102.9560012 118.6764997 138.2919988 103.6018504 118.8254586 138.8563431
 106.4550012 118.0104997 137.8769988 105.5080012 118.0424997 138.0099988
 106.7680012 117.3854997 138.5309988 106.3676707 117.9303998 137.9836060
 108.0890012 116.6444997 139.8829988 107.9930012 115.6924997 139.8769988
 107.7680012 116.9134997 140.7429988 108.0324070 116.5504035 139.9985441
  97.9160012 117.8544997 138.9299988  98.1280012 117.1474997 138.3199988
  97.8050012 117.4164997 139.7739988  97.9299721 117.6987084 138.9606843
 102.6970012 113.8554997 137.9089988 103.4090012 113.2154997 137.8949988
 102.5960012 114.1224997 136.9959988 102.7808066 113.8040079 137.7835677
 103.0510012 115.5384997 139.9629988 102.9190012 115.0624997 139.1429988
 102.4520012 116.2824997 139.9079988 102.9519071 115.5739618 139.8432886
 102.5970012 132.4214997 123.1389988 103.5300012 132.5794997 123.2829988
 102.3330012 133.0964997 122.5149988 102.6889888 132.5344510 123.0742842
  96.1660012 127.0574997 122.6219988  97.0800012 127.1364997 122.8959988
  96.1730012 126.3704997 121.9559988  96.2921131 126.9753961 122.5694393
  94.8150012 132.4504997 127.6999988  94.1680012 131.9884997 127.1669988
  95.1690012 131.7784997 128.2819988  94.7743849 132.2964723 127.7057959
  95.6850012 130.5314997 129.5039988  95.3500012 129.6514997 129.6759988
  95.9070012 130.8764997 130.3689988  95.6691783 130.4577500 129.6444208
 113.2330012 131.3404997 132.4849988 113.2120012 131.5254997 133.4239988
 113.9240012 131.9094997 132.1439988 113.3234618 131.4426606 132.5673864
 112.7970012 130.9084997 135.4069988 112.3090012 130.1724997 135.0349988
 113.3460012 130.5144997 136.0849988 112.8044820 130.7545889 135.4477813
 111.2470012 126.6974997 140.0449988 110.3810012 126.5924997 140.4389988
 111.6240012 127.4564997 140.4909988 111.1793308 126.7856900 140.1592393
 112.5480012 124.9544997 125.5589988 113.3980012 125.3754997 125.6859988
 112.5540012 124.2144997 126.1659988 112.6651372 124.9120803 125.6584344
 112.9430012 123.0074997 127.3819988 112.2160012 122.5284997 127.7799988
 113.5240012 123.2134997 128.1149988 112.9220473 122.9698103 127.5354528
 112.7020012 125.7924997 132.3299988 113.5350012 125.4144997 132.0499988
 112.8140012 126.7354997 132.2109988 112.8312647 125.8682218 132.2755487
 111.1880012 128.6704997 134.6369988 110.5410012 128.9954997 135.2629988
 110.6710012 128.2304997 133.9629988 111.0294029 128.6555004 134.6315827
 113.2110012 122.9084997 123.7739988 112.6890012 123.2654997 123.0549988
 113.1780012 123.5834997 124.4519988 113.1351634 123.0485413 123.7673145
 111.5600012 120.1484997 122.3239988 111.6560012 120.8154997 121.6439988
 111.4200012 119.3324997 121.8429988 111.5542272 120.1295655 122.1658347
 110.7290012 121.5284997 127.9449988 110.5790012 120.5834997 127.9249988
 110.3760012 121.8094997 128.7889988 110.6607448 121.4371481 128.0563705
  95.7650012 123.6064997 131.9559988  95.9490012 123.5244997 131.0199988
  96.6140012 123.4824997 132.3789988  95.9050151 123.5785073 131.8851451
 111.5860012 123.4984997 137.5839988 112.1690012 122.7644997 137.7759988
 112.1500012 124.2704997 137.6309988 111.7419769 123.5024227 137.6166159
 113.0820012 121.4014997 138.2689988 112.2190012 121.0224997 138.1029988
 113.6870012 120.6624997 138.1939988 113.0456119 121.2498268 138.2361528
 110.8070012 117.5564997 121.4419988 111.4180012 117.1854997 122.0789988
 109.9710012 117.1354997 121.6379988 110.7775032 117.4487554 121.5557035
 110.4400012 119.1114997 126.4079988 110.7200012 118.2044997 126.5319988
 111.1990012 119.5454997 126.0189988 110.5809277 119.0460942 126.3723682
 111.0520012 119.6924997 131.8439988 111.9850012 119.9044997 131.8089988
 110.8170012 119.7944997 132.7659988 111.1479244 119.7353100 131.9638892
 111.0810012 120.4294997 134.6199988 110.2380012 120.6974997 134.9859988
 111.5230012 121.2514997 134.4089988 111.0254158 120.5773291 134.6415491
  95.3620012 118.8774997 138.0969988  96.2820012 118.7554997 138.3329988
  94.9130012 118.1274997 138.4859988  95.4271580 118.7593727 138.1819006
 113.3640012 114.4094997 139.9729988 113.7140012 113.7554997 139.3679988
 113.5110012 115.2464997 139.5329988 113.4317887 114.4331548 139.8306858
 111.0530012 116.3744997 126.4559988 111.2360012 115.9254997 127.2819988
 110.4540012 115.7894997 125.9929988 110.9970202 116.2339975 126.5063275
  96.5830012 117.1894997 130.9879988  97.0290012 116.3974997 131.2899988
  97.0500012 117.9054997 131.4179988  96.7070831 117.1780685 131.0874006
  94.8870012 120.1884997 132.0569988  95.3790012 119.9674997 131.2659988
  95.2500012 121.0294997 132.3379988  95.0033126 120.2718357 131.9867531
 112.8840012 116.5184997 138.3219988 111.9660012 116.7894997 138.2869988
 113.0070012 115.9834997 137.5379988 112.7749729 116.4832508 138.2111923
 112.9200012 116.4414997 122.9839988 113.3320012 115.7204997 122.5089988
 113.6020012 117.1114997 123.0429988 113.0685885 116.4332368 122.9268915
  95.2010012 116.4464997 126.1109988  94.2760012 116.6554997 125.9819988
  95.6550012 116.9304997 125.4209988  95.1357292 116.5405343 126.0000720
 109.9720012 131.4304997 128.0569988 110.6240012 131.0834997 127.4489988
 110.4820012 131.9194997 128.7029988 110.1302637 131.4490597 128.0610236
  95.1650012 115.1844997 134.4549988  94.5000012 114.9384997 135.0989988
  94.7220012 115.8064997 133.8779988  95.0141318 115.2349410 134.4650898
  97.3570012 128.3594997 138.5999988  96.5360012 128.5344997 138.1389988
  97.1040012 128.2864997 139.5199988  97.2105585 128.3735544 138.6613561
 100.3110012 129.3344997 134.8579988  99.8860012 130.1434997 134.5759988
 101.2150012 129.4194997 134.5559988 100.3749975 129.4569300 134.7784816
 104.6220012 130.7334997 137.8179988 104.8070012 130.3994997 138.6959988
 105.4680012 131.0424997 137.4959988 104.7617539 130.7296047 137.8945605
 106.9670012 132.0194997 137.0619988 107.6440012 131.3864997 136.8219988
 107.2890012 132.4204997 137.8689988 107.1031637 131.9871154 137.1382793
 111.8840012 114.6084997 136.1409988 111.0720012 114.9334997 135.7539988
 112.1170012 113.8484997 135.6079988 111.8042203 114.5502758 136.0158880
  97.7130012 132.5904997 134.9059988  96.9920012 133.0304997 134.4549988
  97.3470012 132.3394997 135.7539988  97.5649651 132.6167242 134.9589640
 100.1800012 132.1904997 133.9359988  99.3150012 132.2624997 134.3399988
 100.1250012 132.7374997 133.1519988 100.0542085 132.2742685 133.8853362
 104.8900012 132.0784997 133.1109988 104.4340012 132.6074997 132.4569988
 105.0530012 132.6814997 133.8359988 104.8496068 132.2324607 133.1194838
 107.2180012 130.9564997 134.0559988 106.3130012 131.1214997 133.7899988
 107.6470012 131.8094997 133.9909988 107.1521324 131.0944339 134.0107976
 109.8220012 132.5264997 134.3509988 109.6400012 133.4424997 134.1409988
 109.9990012 132.1164997 133.5049988 109.8210210 132.5964822 134.2077885
  97.1270012 131.2134997 131.8159988  97.1090012 130.7884997 132.6729988
  97.9320012 130.8954997 131.4069988  97.2333529 131.1123013 131.8780946
  99.2690012 129.9234997 130.4709988  99.0500012 129.0074997 130.6409988
 100.0930012 130.0634997 130.9369988  99.3504420 129.8170520 130.5572774
 101.8060012 130.3934997 131.3199988 102.0190012 129.5054997 131.0329988
 101.8700012 130.3594997 132.2739988 101.8438232 130.2673102 131.4097397
 105.3140012 116.0574997 130.4639988 104.6400012 115.4284997 130.7199988
 105.8780012 115.5734997 129.8609988 105.2979230 115.9058744 130.4175340
 110.4570012 114.1654997 130.5769988 111.0610012 114.7124997 130.0749988
 109.5870012 114.4844997 130.3359988 110.4221208 114.2835137 130.4756886
 112.1840012 115.3034997 128.9099988 112.7960012 114.7894997 128.3829988
 112.5660012 116.1814997 128.9329988 112.3193371 115.3517866 128.8410041
  97.6410012 114.6914997 128.2859988  96.8640012 114.4574997 127.7789988
  98.1710012 113.8944997 128.2949988  97.6062330 114.5516988 128.2177742
  96.4770012 114.4894997 124.0899988  96.9160012 115.1004997 123.4979988
  95.8440012 115.0274997 124.5639988  96.4514514 114.6459257 124.0730930
 102.2200012 114.6184997 128.0999988 103.0950012 115.0064997 128.0699988
 102.0840012 114.4034997 129.0219988 102.3213695 114.6425184 128.2206440
 107.7770012 114.6484997 129.7489988 107.8530012 114.7434997 128.7989988
 107.5020012 113.7404997 129.8779988 107.7502321 114.5387867 129.6365079
 109.1300012 114.6744997 125.4409988 108.4280012 115.2894997 125.2309988
 108.6860012 113.8364997 125.5719988 108.9736450 114.6455639 125.4299000
  96.3780012 130.4374997 124.9869988  95.6930012 130.3994997 124.3199988
  96.3820012 131.3504997 125.2759988  96.2846998 130.5556733 124.9346771
  98.3380012 116.4054997 122.5319988  98.8300012 115.7754997 122.0049988
  98.9620012 116.7014997 123.1949988  98.4895688 116.3593804 122.5495482
 103.3640012 116.6984997 124.9889988 103.5420012 116.0524997 125.6719988
 103.3110012 117.5324997 125.4559988 103.3811999 116.7228009 125.1455917
 105.2430012 131.6474997 123.3849988 106.1090012 132.0134997 123.2069988
 104.9960012 131.2074997 122.5709988 105.3282392 131.6381756 123.2506289
 111.9520012 131.2104997 126.0639988 111.7570012 130.4624997 125.4989988
 111.9130012 131.9684997 125.4809988 111.9200380 131.2106099 125.9078384
  97.5990012 115.2054997 137.8039988  97.2330012 114.4404997 138.2459988
  98.5120012 115.2344997 138.0899988  97.6722736 115.1045640 137.9032502
  99.5720012 114.5564997 139.3399988 100.4700012 114.2824997 139.1549988
  99.1850012 113.8134997 139.8039988  99.6426612 114.4185914 139.3773643
  98.1960012 131.3574997 122.0129988  97.9290012 131.6444997 122.8859988
  98.9680012 130.8114997 122.1649988  98.2637488 131.3230294 122.1531050
 107.9930012 113.8884997 139.5219988 108.0700012 113.4624997 140.3759988
 108.8870012 113.9024997 139.1789988 108.1243428 113.8320879 139.5925310
 111.1690012 129.9614997 138.2139988 110.3870012 129.7754997 137.6939988
 111.0970012 130.8904997 138.4319988 111.0522274 130.0616643 138.1723018
 125.5750012 123.8474997 128.2449988 125.6640012 124.7914997 128.1129988
 124.9370012 123.5724997 127.5869988 125.5009081 123.9394830 128.1379614
 124.5080012 123.1024997 131.6639988 124.4700012 122.4564997 132.3689988
 124.1860012 122.6364997 130.8929988 124.4592333 122.9509408 131.6562978
 116.8770012 122.7174997 133.2569988 116.9180012 122.0914997 133.9799988
 117.5800012 123.3414997 133.4389988 116.9776363 122.7161196 133.3806044
 128.2140012 126.0414997 129.9649988 127.7740012 125.3214997 130.4159988
 128.2010012 126.7624997 130.5949988 128.1520226 126.0403731 130.1118494
 117.8000012 127.1674997 131.7919988 117.4310012 126.3654997 131.4219988
 118.7410012 126.9984997 131.8379988 117.8767289 127.0350153 131.7476316
 114.4100012 120.8274997 127.1849988 113.9630012 121.6734997 127.1659988
 113.8490012 120.2474997 126.6689988 114.2729900 120.8649916 127.1126801
 115.1210012 122.9894997 129.3099988 115.3340012 122.2194997 129.8379988
 115.8590012 123.0784997 128.7069988 115.2499044 122.8961968 129.3007123
 125.3260012 131.1464997 130.1769988 125.9460012 130.4694997 129.9039988
 125.1180012 130.9284997 131.0859988 125.3826726 131.0244800 130.2624812
 122.8980012 125.5354997 132.0699988 123.2020012 124.8494997 131.4749988
 123.6190012 125.6534997 132.6879988 123.0370671 125.4576305 132.0721816
 131.5610012 117.1364997 132.9309988 131.6100012 117.7464997 133.6659988
 131.9860012 117.5974997 132.2079988 131.6251746 117.2823796 132.9339175
 126.0390012 119.9294997 132.3969988 126.1810012 118.9834997 132.4179988
 125.9320012 120.1364997 131.4689988 126.0439919 119.8278246 132.2743408
 119.1930012 118.0304997 129.6699988 119.2370012 118.8904997 129.2509988
 118.7360012 117.4784997 129.0359988 119.1372240 118.0734422 129.5269864
 126.9160012 118.1614997 128.0709988 127.5620012 117.8324997 128.6949988
 127.4260012 118.6794997 127.4479988 127.0734299 118.1864450 128.0722731
 115.8140012 120.4274997 130.4319988 116.4670012 119.8774997 130.8639988
 115.8380012 120.1534997 129.5149988 115.9066683 120.3151466 130.3672123
 120.9700012 121.9774997 129.6469988 121.5860012 121.4514997 130.1569988
 120.3840012 121.3374997 129.2439988 120.9750810 121.8189208 129.6623173
 131.9520012 118.6144997 135.1659988 131.2640012 119.2724997 135.0709988
 131.9680012 118.4174997 136.1029988 131.8599540 118.6779819 135.2795990
 118.0040012 116.9484997 133.7439988 117.7850012 117.4784997 132.9779988
 117.3360012 117.1754997 134.3909988 117.8837600 117.0516906 133.7266379
 125.3730012 126.4484997 127.2879988 125.0770012 126.1264997 126.4369988
 125.0480012 127.3484997 127.3289988 125.2886371 126.5260215 127.1771801
 120.5730012 124.6244997 134.0309988 119.8330012 125.2224997 134.1349988
 121.2870012 125.1784997 133.7159988 120.5682237 124.7812831 134.0026465
 128.6800012 117.4524997 130.0509988 128.4640012 116.6864997 130.5839988
 129.3350012 117.9244997 130.5639988 128.7390632 117.4115889 130.1932861
 117.5970012 118.8404997 131.6959988 118.2110012 119.4734997 132.0689988
 118.1090012 118.3684997 131.0399988 117.7501981 118.8632267 131.6582908
 118.9800012 126.5884997 134.8179988 118.9750012 127.4684997 134.4399988
 118.1270012 126.5054997 135.2429988 118.8639464 126.6976117 134.8237907
 115.1010012 126.2594997 125.5999988 114.8290012 126.4884997 124.7119988
 115.1470012 127.0974997 126.0609988 115.0699482 126.4041318 125.5406273
 128.7260012 127.8814997 132.3129988 127.7850012 127.9394997 132.4749988
 129.0030012 128.7874997 132.1759988 128.6344679 128.0119443 132.3166815
 129.0270012 116.1674997 133.7309988 128.2910012 116.7784997 133.6929988
 129.7100012 116.5824997 133.2039988 129.0186541 116.3071374 133.6545832
 122.0300012 114.2544997 131.1959988 121.9130012 113.3054997 131.1419988
 121.1750012 114.5864997 131.4699988 121.8984212 114.1695571 131.2256497
 126.9780012 129.6624997 128.9379988 127.4040012 128.9554997 128.4529988
 127.2950012 130.4634997 128.5219988 127.0791683 129.6741017 128.8153680
 128.1380012 127.5634997 127.4469988 127.8800012 126.8734997 126.8359988
 128.2090012 127.1204997 128.2929988 128.1122856 127.4092124 127.4776885
 129.8240012 126.1294997 135.9239988 129.9640012 125.5384997 135.1849988
 129.9910012 127.0024997 135.5679988 129.8657411 126.1665428 135.7746894
 124.2970012 123.0914997 125.6969988 123.5850012 123.6264997 125.3449988
 124.9880012 123.1474997 125.0369988 124.2930132 123.1722543 125.5596289
 124.3500012 121.5494997 122.7359988 125.0510012 121.5714997 123.3869988
 124.6530012 120.9214997 122.0789988 124.4868133 121.4677070 122.7363369
 131.6660012 122.4694997 133.9899988 131.0130012 123.1644997 134.0799988
 132.1310012 122.6794997 133.1809988 131.6395274 122.5930643 133.8928462
 127.7020012 123.3014997 126.6489988 126.9700012 123.5294997 127.2219988
 128.1500012 122.5874997 127.1029988 127.6622725 123.2362145 126.7888816
 127.6000012 121.4754997 135.7159988 127.6800012 122.2384997 136.2879988
 126.9980012 121.7544997 135.0259988 127.5295756 121.6177134 135.7010589
 119.3480012 123.9314997 128.5309988 119.0170012 123.5614997 127.7129988
 119.9360012 123.2614997 128.8779988 119.3821873 123.7901156 128.4658102
 120.7140012 127.3594997 131.2119988 120.6200012 126.7814997 130.4559988
 121.4440012 126.9884997 131.7089988 120.7997387 127.2301663 131.1755342
 119.7140012 122.7004997 132.1649988 120.2800012 122.8214997 131.4019988
 120.0330012 123.3374997 132.8029988 119.8345474 122.8032219 132.1469862
 126.0230012 128.2034997 132.8989988 125.7830012 128.8654997 133.5469988
 125.8250012 127.3694997 133.3239988 125.9633808 128.1813134 133.0451524
 120.5940012 127.0994997 136.8819988 120.2830012 127.8814997 137.3369988
 119.9440012 126.9464997 136.1959988 120.4635558 127.1859105 136.8515871
 126.5730012 122.4634997 124.3339988 127.1530012 122.6134997 125.0809988
 126.9870012 122.9344997 123.6099988 126.7082997 122.5476578 124.3384058
 117.5140012 123.2974997 136.1099988 117.5850012 123.9484997 136.8089988
 116.6240012 123.4004997 135.7749988 117.4033005 123.4005427 136.1603495
 124.3000012 129.2004997 127.7689988 124.7740012 129.4954997 128.5459988
 123.7370012 129.9384997 127.5359988 124.2888184 129.3407247 127.8439628
 118.8340012 129.1714997 137.6449988 118.8410012 129.0354997 136.6979988
 117.9180012 129.0534997 137.8969988 118.7111714 129.1369430 137.5494666
 130.2720012 114.2134997 124.1469988 129.3720012 114.3524997 124.4419988
 130.5240012 115.0444997 123.7449988 130.1828702 114.3449074 124.1330205
 118.3380012 123.0014997 126.1199988 118.0460012 123.7694997 125.6299988
 117.6640012 122.3414997 125.9579988 118.2068111 123.0175587 126.0308978
 131.4610012 128.5794997 122.5229988 131.5350012 129.5184997 122.6939988
 132.3670012 128.2744997 122.4669988 131.5935100 128.6666722 122.5388119
 114.4310012 125.3644997 134.9349988 113.9300012 125.3364997 134.1199988
 114.4360012 124.4584997 135.2449988 114.3630944 125.2382396 134.8653226
 114.1810012 128.1444997 131.8189988 115.1270012 128.0004997 131.7999988
 114.0690012 128.9284997 132.3559988 114.2952727 128.2308046 131.8890072
 132.3790012 128.8104997 137.5019988 132.3300012 127.8554997 137.4649988
 131.5520012 129.0784997 137.9029988 132.2604940 128.7158998 137.5511375
 123.3580012 128.3844997 136.3779988 123.4450012 129.2104997 136.8529988
 122.4940012 128.0544997 136.6269988 123.2531964 128.4529878 136.4766549
 123.7720012 132.1564997 126.1839988 123.6970012 132.0354997 125.2369988
 123.8050012 133.1064997 126.3019988 123.7662068 132.2682646 126.0704967
 117.4250012 130.9454997 127.9649988 117.5780012 130.5974997 128.8429988
 116.5750012 130.5894997 127.7099988 117.3309166 130.8496216 128.0508079
 126.8740012 131.3104997 123.1859988 127.2490012 130.5664997 122.7149988
 126.8780012 131.0404997 124.1049988 126.9259125 131.1720986 123.2456483
 126.5430012 131.2364997 125.9349988 125.6070012 131.3364997 126.1139988
 126.8230012 130.5274997 126.5139988 126.4529553 131.1543406 126.0377087
 129.5310012 120.3034997 137.9819988 129.1240012 120.7844997 137.2609988
 129.5720012 119.3984997 137.6739988 129.4808437 120.2469374 137.8416683
 116.6800012 126.6874997 135.9789988 116.8960012 126.3264997 136.8379988
 115.8250012 126.3134997 135.7689988 116.5939292 126.5874111 136.0683386
 119.2990012 115.1574997 131.9739988 118.4370012 115.0704997 131.5659988
 119.2760012 116.0134997 132.4019988 119.1780409 115.2612883 131.9760589
 123.9620012 114.8794997 135.3489988 124.3820012 114.4644997 136.1019988
 123.0290012 114.7014997 135.4659988 123.8933644 114.7985900 135.4679539
 127.2880012 118.6354997 136.2019988 126.7740012 118.5094997 136.9999988
 127.1330012 119.5474997 135.9579988 127.1966852 118.7416132 136.2782158
 128.0510012 123.4964997 121.9639988 128.0930012 123.2734997 121.0339988
 128.9000012 123.8954997 122.1529988 128.1715280 123.5199438 121.8623554
 123.6230012 117.3724997 122.6339988 123.3700012 117.3914997 123.5569988
 123.3670012 116.5004997 122.3319988 123.5537481 117.2572558 122.7196175
 119.3900012 120.1234997 133.0689988 118.7480012 120.0824997 133.7779988
 119.4270012 121.0494997 132.8309988 119.3070664 120.2431430 133.1339219
 119.3870012 120.3444997 127.9809988 118.4940012 120.0034997 127.9219988
 119.8370012 119.9674997 127.2249988 119.3258130 120.2469631 127.8707702
 124.9220012 120.7604997 126.7979988 124.5130012 121.5754997 126.5069988
 125.6430012 120.6204997 126.1839988 124.9634537 120.8532018 126.6751342
 124.0240012 120.9354997 138.2859988 123.4620012 120.2314997 138.6069988
 124.8510012 120.8154997 138.7539988 124.0587095 120.8227883 138.3932330
 125.9270012 120.2064997 129.6119988 125.7320012 120.8114997 128.8969988
 126.1080012 119.3724997 129.1779988 125.9247614 120.1766300 129.4554405
 117.1400012 120.4434997 134.9359988 117.1020012 120.8434997 135.8049988
 116.6490012 119.6264997 135.0269988 117.0684684 120.3878069 135.0671059
 120.5060012 117.8174997 121.7349988 120.0750012 117.3724997 122.4649988
 119.7880012 118.1894997 121.2229988 120.3499438 117.8068940 121.7656799
 113.7480012 117.5594997 128.7869988 114.3790012 117.5304997 129.5059988
 114.1970012 117.1344997 128.0559988 113.8950918 117.4980836 128.7866441
 115.0220012 118.3054997 124.2109988 115.4960012 118.8964997 123.6259988
 114.3050012 118.8364997 124.5579988 114.9899341 118.4580867 124.1778836
 125.1910012 121.8444997 134.2829988 125.5140012 121.2134997 133.6399988
 124.7510012 121.3094997 134.9439988 125.1757484 121.6858387 134.2843198
 121.9680012 117.7714997 129.0669988 121.0570012 117.8284997 129.3559988
 122.4740012 117.7114997 129.8779988 121.9116899 117.7711941 129.2161184
 116.7970012 119.4004997 127.8939988 115.9070012 119.5004997 127.5539988
 117.0930012 118.5584997 127.5479988 116.7152823 119.3003545 127.8007213
 120.4500012 119.4004997 125.5509988 121.3810012 119.5294997 125.7289988
 120.2350012 120.0704997 124.9009988 120.5484247 119.5086565 125.4875747
 126.3730012 117.0064997 132.3319988 125.6970012 117.1374997 132.9959988
 125.8880012 116.8514997 131.5209988 126.2147146 117.0035157 132.3134469
 119.1240012 120.5954997 123.1169988 118.5810012 120.2154997 122.4259988
 119.9570012 120.7894997 122.6889988 119.1623631 120.5697125 122.9644501
 129.6610012 132.6784997 138.6079988 129.8610012 133.1024997 137.7739988
 130.3160012 133.0214997 139.2149988 129.7770073 132.7829857 138.5758592
 117.2590012 125.1524997 138.2159988 117.9910012 125.4064997 138.7779988
 116.4790012 125.3564997 138.7319988 117.2537073 125.2148160 138.3626151
 123.2880012 120.5594997 130.9539988 123.8530012 120.0124997 130.4069988
 123.1410012 120.0374997 131.7429988 123.3453380 120.4142259 130.9858695
 118.2900012 116.6954997 127.3729988 117.9730012 115.7934997 127.3369988
 119.0720012 116.6974997 126.8199988 118.3522408 116.5722474 127.2933569
 121.9150012 118.9474997 133.3679988 121.0790012 119.4014997 133.4789988
 122.4390012 119.2234997 134.1199988 121.8715416 119.0468660 133.4848119
 122.4590012 125.1604997 125.0529988 121.7140012 124.6534997 124.7309988
 122.3250012 125.2094997 125.9999988 122.3388776 125.0976940 125.1368647
 129.6090012 124.2934997 133.8399988 130.2510012 124.7504997 133.2959988
 128.7790012 124.4064997 133.3769988 129.5845963 124.3712704 133.7030177
 126.3570012 117.9744997 123.2519988 125.4180012 118.0864997 123.1009988
 126.6540012 118.8314997 123.5589988 126.2687583 118.1055981 123.2728337
 123.9780012 125.3444997 136.2899988 123.6330012 124.9634997 137.0969988
 123.7780012 126.2784997 136.3609988 123.9037527 125.4185135 136.4100689
 127.0750012 119.8414997 124.9129988 127.9670012 119.7044997 125.2319988
 127.1320012 120.6324997 124.3759988 127.2046504 119.9296052 124.8840818
 117.5840012 124.4554997 130.8229988 118.3290012 124.4534997 130.2219988
 117.6620012 123.6324997 131.3039988 117.6964995 124.3438887 130.8058282
 124.5850012 126.6194997 124.0789988 124.2890012 127.4454997 124.4599988
 123.8820012 125.9994997 124.2749988 124.4494914 126.6488199 124.1576443
 114.5920012 122.9164997 136.1379988 114.8150012 122.4984997 136.9699988
 113.9900012 122.3034997 135.7149988 114.5411759 122.7764668 136.1947022
 121.6080012 122.4334997 138.3509988 121.3120012 122.2674997 137.4559988
 122.5400012 122.2134997 138.3399988 121.6934166 122.3810640 138.2270536
 126.2290012 127.8064997 136.2409988 125.3280012 127.9894997 135.9729988
 126.2630012 128.0654997 137.1609988 126.1103139 127.8665849 136.3288099
 131.9600012 120.0514997 124.6079988 131.4060012 119.6554997 123.9359988
 132.0600012 120.9614997 124.3299988 131.8977059 120.1203586 124.4784401
 131.9230012 125.8514997 137.4449988 131.0720012 126.0894997 137.0779988
 132.5140012 125.8344997 136.6919988 131.8862487 125.8818258 137.2928893
 130.2550012 128.8374997 125.0729988 129.8820012 128.0114997 125.3819988
 130.5330012 128.6544997 124.1749988 130.2415222 128.6997430 124.9939473
 127.4160012 123.6454997 132.0939988 126.4870012 123.4134997 132.0669988
 127.8670012 122.8684997 131.7639988 127.3499216 123.5087238 132.0456917
 119.9590012 127.9734997 128.2269988 120.4860012 128.7464997 128.0269988
 119.0790012 128.1984997 127.9249988 119.9122031 128.1097545 128.1587912
 115.7140012 122.8354997 122.8139988 116.3300012 123.4624997 123.1939988
 114.8520012 123.1514997 123.0859988 115.6817698 122.9639430 122.9027183
 121.3860012 125.6364997 127.8029988 121.1450012 126.5614997 127.8449988
 120.6450012 125.1774997 128.1999988 121.2529225 125.7010933 127.8623742
 121.9010012 129.7854997 134.1189988 122.2630012 130.6404997 133.8849988
 122.4320012 129.4934997 134.8589988 122.0224473 129.8631060 134.1870855
 120.0690012 130.6584997 127.3489988 119.1190012 130.7634997 127.3999988
 120.4210012 131.4784997 127.6929988 119.9864195 130.7838800 127.4025502
 125.4450012 125.8844997 133.8189988 125.0190012 125.6574997 134.6459988
 126.0250012 125.1464997 133.6369988 125.4651868 125.7535299 133.9075830
 127.6480012 126.8134997 122.8929988 128.0010012 126.4334997 123.6969988
 126.6990012 126.7204997 122.9799988 127.5680918 126.7488956 123.0148532
 128.1030012 130.4364997 136.2889988 127.5020012 129.8814997 135.7929988
 128.3850012 131.1034997 135.6619988 128.0588804 130.4506625 136.1364849
 132.1510012 131.2934997 123.0939988 132.8950012 131.8794997 122.9539988
 131.4570012 131.8614997 123.4269988 132.1589899 131.4505798 123.1198778
 116.2260012 117.6694997 135.6959988 115.3330012 118.0084997 135.6279988
 116.1270012 116.8144997 136.1139988 116.0904164 117.6002588 135.7432235
 128.5140012 125.4864997 125.1199988 128.2360012 124.7584997 125.6759988
 129.4410012 125.6054997 125.3249988 128.6013124 125.4028802 125.2238845
 115.8770012 129.4744997 134.1309988 116.0940012 128.5424997 134.0999988
 116.1230012 129.7484997 135.0139988 115.9399549 129.3840636 134.2461763
 121.7390012 127.9254997 121.3399988 121.9780012 127.1774997 120.7929988
 121.4700012 127.5374997 122.1729988 121.7353675 127.7706638 121.3776865
 120.6760012 127.4954997 123.7959988 120.8220012 126.9754997 124.5859988
 120.6730012 128.4024997 124.1029988 120.6955792 127.5468842 123.9456117
 117.1290012 124.7484997 124.3069988 116.4430012 125.1004997 124.8739988
 117.6510012 125.5114997 124.0599988 117.1056852 124.8998578 124.3512118
 124.9600012 117.4104997 134.5859988 125.6590012 117.4844997 135.2359988
 124.5790012 116.5464997 134.7399988 125.0041767 117.3037624 134.6958322
 125.7450012 117.0624997 125.6829988 125.9650012 117.5344997 124.8799988
 126.3030012 117.4574997 126.3529988 125.8504968 117.1804285 125.6637331
 123.4130012 129.1934997 124.5459988 122.5970012 129.6904997 124.5979988
 123.9430012 129.6684997 123.9059988 123.3729161 129.3257722 124.4665956
 122.9450012 118.7904997 126.5179988 123.7570012 119.2954997 126.5639988
 122.7000012 118.6454997 127.4319988 123.0230520 118.8400375 126.6478517
 123.4800012 119.7764997 135.7019988 123.5990012 120.3504997 136.4599988
 124.1360012 119.0884997 135.8169988 123.5849025 119.7619858 135.8211321
 123.8280012 115.8714997 127.4559988 123.4820012 116.4894997 128.0999988
 124.4870012 116.3724997 126.9739988 123.8696968 116.0236278 127.4789383
 120.7520012 130.2374997 124.5269988 120.9120012 131.0364997 124.0269988
 120.5540012 130.5434997 125.4119988 120.7471637 130.3884020 124.5781144
 119.4860012 116.9344997 124.1429988 119.4030012 117.8234997 124.4899988
 120.3760012 116.6694997 124.3749988 119.5949469 117.0201430 124.2217626
 129.6850012 117.6834997 136.5369988 128.7680012 117.9464997 136.4499988
 130.0200012 117.6804997 135.6409988 129.6048613 117.7190761 136.4038837
 128.2870012 121.4344997 130.6329988 127.4890012 121.0194997 130.3049988
 128.7320012 120.7434997 131.1239988 128.2379885 121.2843543 130.6544889
 117.7450012 127.3624997 123.2039988 118.3370012 128.0614997 123.4799988
 118.2040012 126.9294997 122.4839988 117.8881142 127.3997049 123.1444830
 116.0610012 120.0264997 122.3199988 116.0160012 120.9654997 122.4979988
 115.1730012 119.7904997 122.0499988 115.9348574 120.1231892 122.3078912
 129.3730012 130.6904997 132.2559988 129.2180012 131.3684997 131.5979988
 130.3060012 130.7624997 132.4589988 129.4778657 130.7929546 132.1934360
 116.8690012 114.8084997 130.9929988 116.6400012 114.8674997 130.0649988
 116.4260012 114.0164997 131.2989988 116.7778530 114.7095753 130.9074786
 115.7990012 128.7484997 127.1529988 114.9670012 129.2214997 127.1799988
 116.3450012 129.2584997 126.5549988 115.7590352 128.8821332 127.0758463
 115.0870012 131.3614997 138.4829988 115.6280012 131.1444997 139.2429988
 114.6060012 130.5554997 138.2929988 115.0959951 131.2229270 138.5612576
 119.6850012 130.2804997 140.1029988 120.4520012 129.8214997 140.4439988
 119.6630012 130.0544997 139.1739988 119.7871275 130.1870186 140.0240101
 123.7770012 129.7884997 121.4789988 123.1330012 129.1574997 121.7999988
 124.5390012 129.2574997 121.2469988 123.7918077 129.6302920 121.4916011
 126.2620012 128.6604997 138.8329988 125.9110012 127.8044997 139.0759988
 126.9880012 128.8034997 139.4399988 126.3120769 128.5625636 138.9483619
 128.3810012 129.6054997 121.7119988 128.6640012 128.8114997 122.1649988
 129.1210012 129.8384997 121.1519988 128.5198006 129.5283376 121.6982715
 114.9940012 125.1714997 139.4369988 115.1380012 124.2694997 139.1509988
 114.2220012 125.4574997 138.9499988 114.9092753 125.0866816 139.3319505
 119.3360012 125.5154997 121.5699988 119.4000012 124.7214997 122.1009988
 119.9890012 125.3964997 120.8799988 119.4330241 125.3907148 121.5494317
 121.6500012 125.1414997 138.8699988 121.3210012 125.4124997 138.0129988
 121.8020012 124.2004997 138.7829988 121.6254809 125.0513862 138.7408244
 124.6880012 126.5624997 121.3059988 124.4190012 126.7424997 122.2069988
 124.4820012 125.6364997 121.1739988 124.6233427 126.4620261 121.4115073
 127.3840012 125.0574997 136.2529988 128.1300012 125.6454997 136.1339988
 126.6270012 125.6394997 136.3169988 127.3837820 125.2167143 136.2453590
 115.8270012 122.3714997 138.8569988 116.2350012 121.5144997 138.7359988
 115.5670012 122.3864997 139.7779988 115.8477568 122.2560807 138.9649588
 120.4850012 123.4874997 123.8759988 120.0250012 123.0034997 124.5619988
 120.7400012 122.8194997 123.2399988 120.4564902 123.3308731 123.8839334
 119.7740012 121.3804997 136.2319988 119.1560012 122.0554997 136.5119988
 120.1180012 121.7014997 135.3979988 119.7359132 121.5162411 136.1576262
 121.5560012 121.7304997 122.1379988 121.3760012 121.5764997 121.2109988
 122.5060012 121.8384997 122.1829988 121.6597776 121.7240175 122.0171843
 124.7940012 123.8524997 139.5089988 125.7470012 123.9354997 139.4819988
 124.6330012 123.1404997 140.1289988 124.9026426 123.7676746 139.5890578
 130.9460012 124.0854997 121.5839988 130.6720012 123.6604997 120.7709988
 130.9850012 125.0164997 121.3669988 130.9137699 124.1532484 121.4433610
 120.1130012 118.7354997 137.3139988 120.2630012 118.0064997 136.7119988
 120.1160012 119.5124997 136.7549988 120.1339302 118.7407851 137.1560692
 120.5260012 117.1054997 134.8069988 121.0620012 117.5564997 134.1549988
 119.6740012 116.9974997 134.3839988 120.4842178 117.1526390 134.6605756
 122.1080012 122.5444997 135.0459988 122.8580012 122.3884997 134.4729988
 121.7690012 123.3964997 134.7709988 122.1648921 122.6382968 134.9303561
 126.5230012 120.3594997 140.0749988 126.7160012 119.4284997 139.9629988
 127.3810012 120.7844997 140.0639988 126.6652934 120.2896531 140.0582031
 127.8400012 123.1484997 138.1519988 127.5590012 123.8574997 137.5739988
 128.7830012 123.0754997 138.0009988 127.9289291 123.2356711 138.0524967
 118.5920012 119.9334997 139.2259988 117.8250012 119.4014997 139.0149988
 119.2710012 119.6234997 138.6259988 118.5787877 119.8188300 139.1160716
 121.3320012 114.5614997 135.2379988 121.2330012 115.5084997 135.1329988
 120.5890012 114.1894997 134.7619988 121.2181184 114.6405863 135.1593621
 122.5960012 118.8834997 138.8019988 122.3600012 118.6634997 139.7029988
 121.8120012 118.6764997 138.2919988 122.4578504 118.8254586 138.8563431
 125.3110012 118.0104997 137.8769988 124.3640012 118.0424997 138.0099988
 125.6240012 117.3854997 138.5309988 125.2236707 117.9303998 137.9836060
 126.9450012 116.6444997 139.8829988 126.8490012 115.6924997 139.8769988
 126.6240012 116.9134997 140.7429988 126.8884070 116.5504035 139.9985441
 116.7720012 117.8544997 138.9299988 116.9840012 117.1474997 138.3199988
 116.6610012 117.4164997 139.7739988 116.7859721 117.6987084 138.9606843
 121.5530012 113.8554997 137.9089988 122.2650012 113.2154997 137.8949988
 121.4520012 114.1224997 136.9959988 121.6368066 113.8040079 137.7835677
 121.9070012 115.5384997 139.9629988 121.7750012 115.0624997 139.1429988
 121.3080012 116.2824997 139.9079988 121.8079071 115.5739618 139.8432886
 121.4530012 132.4214997 123.1389988 122.3860012 132.5794997 123.2829988
 121.1890012 133.0964997 122.5149988 121.5449888 132.5344510 123.0742842
 115.0220012 127.0574997 122.6219988 115.9360012 127.1364997 122.8959988
 115.0290012 126.3704997 121.9559988 115.1481131 126.9753961 122.5694393
 113.6710012 132.4504997 127.6999988 113.0240012 131.9884997 127.1669988
 114.0250012 131.7784997 128.2819988 113.6303849 132.2964723 127.7057959
 114.5410012 130.5314997 129.5039988 114.2060012 129.6514997 129.6759988
 114.7630012 130.8764997 130.3689988 114.5251783 130.4577500 129.6444208
 132.0890012 131.3404997 132.4849988 132.0680012 131.5254997 133.4239988
 132.7800012 131.9094997 132.1439988 132.1794618 131.4426606 132.5673864
 131.6530012 130.9084997 135.4069988 131.1650012 130.1724997 135.0349988
 132.2020012 130.5144997 136.0849988 131.6604820 130.7545889 135.4477813
 130.1030012 126.6974997 140.0449988 129.2370012 126.5924997 140.4389988
 130.4800012 127.4564997 140.4909988 130.0353308 126.7856900 140.1592393
 131.4040012 124.9544997 125.5589988 132.2540012 125.3754997 125.6859988
 131.4100012 124.2144997 126.1659988 131.5211372 124.9120803 125.6584344
 131.7990012 123.0074997 127.3819988 131.0720012 122.5284997 127.7799988
 132.3800012 123.2134997 128.1149988 131.7780473 122.9698103 127.5354528
 131.5580012 125.7924997 132.3299988 132.3910012 125.4144997 132.0499988
 131.6700012 126.7354997 132.2109988 131.6872647 125.8682218 132.2755487
 130.0440012 128.6704997 134.6369988 129.3970012 128.9954997 135.2629988
 129.5270012 128.2304997 133.9629988 129.8854029 128.6555004 134.6315827
 132.0670012 122.9084997 123.7739988 131.5450012 123.2654997 123.0549988
 132.0340012 123.5834997 124.4519988 131.9911634 123.0485413 123.7673145
 130.4160012 120.1484997 122.3239988 130.5120012 120.8154997 121.6439988
 130.2760012 119.3324997 121.8429988 130.4102272 120.1295655 122.1658347
 129.5850012 121.5284997 127.9449988 129.4350012 120.5834997 127.9249988
 129.2320012 121.8094997 128.7889988 129.5167448 121.4371481 128.0563705
 114.6210012 123.6064997 131.9559988 114.8050012 123.5244997 131.0199988
 115.4700012 123.4824997 132.3789988 114.7610151 123.5785073 131.8851451
 130.4420012 123.4984997 137.5839988 131.0250012 122.7644997 137.7759988
 131.0060012 124.2704997 137.6309988 130.5979769 123.5024227 137.6166159
 131.9380012 121.4014997 138.2689988 131.0750012 121.0224997 138.1029988
 132.5430012 120.6624997 138.1939988 131.9016119 121.2498268 138.2361528
 129.6630012 117.5564997 121.4419988 130.2740012 117.1854997 122.0789988
 128.8270012 117.1354997 121.6379988 129.6335032 117.4487554 121.5557035
 129.2960012 119.1114997 126.4079988 129.5760012 118.2044997 126.5319988
 130.0550012 119.5454997 126.0189988 129.4369277 119.0460942 126.3723682
 129.9080012 119.6924997 131.8439988 130.8410012 119.9044997 131.8089988
 129.6730012 119.7944997 132.7659988 130.0039244 119.7353100 131.9638892
 129.9370012 120.4294997 134.6199988 129.0940012 120.6974997 134.9859988
 130.3790012 121.2514997 134.4089988 129.8814158 120.5773291 134.6415491
 114.2180012 118.8774997 138.0969988 115.1380012 118.7554997 138.3329988
 113.7690012 118.1274997 138.4859988 114.2831580 118.7593727 138.1819006
 132.2200012 114.4094997 139.9729988 132.5700012 113.7554997 139.3679988
 132.3670012 115.2464997 139.5329988 132.2877887 114.4331548 139.8306858
 129.9090012 116.3744997 126.4559988 130.0920012 115.9254997 127.2819988
 129.3100012 115.7894997 125.9929988 129.8530202 116.2339975 126.5063275
 115.4390012 117.1894997 130.9879988 115.8850012 116.3974997 131.2899988
 115.9060012 117.9054997 131.4179988 115.5630831 117.1780685 131.0874006
 113.7430012 120.1884997 132.0569988 114.2350012 119.9674997 131.2659988
 114.1060012 121.0294997 132.3379988 113.8593126 120.2718357 131.9867531
 131.7400012 116.5184997 138.3219988 130.8220012 116.7894997 138.2869988
 131.8630012 115.9834997 137.5379988 131.6309729 116.4832508 138.2111923
 131.7760012 116.4414997 122.9839988 132.1880012 115.7204997 122.5089988
 132.4580012 117.1114997 123.0429988 131.9245885 116.4332368 122.9268915
 114.0570012 116.4464997 126.1109988 113.1320012 116.6554997 125.9819988
 114.5110012 116.9304997 125.4209988 113.9917292 116.5405343 126.0000720
 128.8280012 131.4304997 128.0569988 129.4800012 131.0834997 127.4489988
 129.3380012 131.9194997 128.7029988 128.9862637 131.4490597 128.0610236
 114.0210012 115.1844997 134.4549988 113.3560012 114.9384997 135.0989988
 113.5780012 115.8064997 133.8779988 113.8701318 115.2349410 134.4650898
 116.2130012 128.3594997 138.5999988 115.3920012 128.5344997 138.1389988
 115.9600012 128.2864997 139.5199988 116.0665585 128.3735544 138.6613561
 119.1670012 129.3344997 134.8579988 118.7420012 130.1434997 134.5759988
 120.0710012 129.4194997 134.5559988 119.2309975 129.4569300 134.7784816
 123.4780012 130.7334997 137.8179988 123.6630012 130.3994997 138.6959988
 124.3240012 131.0424997 137.4959988 123.6177539 130.7296047 137.8945605
 125.8230012 132.0194997 137.0619988 126.5000012 131.3864997 136.8219988
 126.1450012 132.4204997 137.8689988 125.9591637 131.9871154 137.1382793
 130.7400012 114.6084997 136.1409988 129.9280012 114.9334997 135.7539988
 130.9730012 113.8484997 135.6079988 130.6602203 114.5502758 136.0158880
 116.5690012 132.5904997 134.9059988 115.8480012 133.0304997 134.4549988
 116.2030012 132.3394997 135.7539988 116.4209651 132.6167242 134.9589640
 119.0360012 132.1904997 133.9359988 118.1710012 132.2624997 134.3399988
 118.9810012 132.7374997 133.1519988 118.9102085 132.2742685 133.8853362
 123.7460012 132.0784997 133.1109988 123.2900012 132.6074997 132.4569988
 123.9090012 132.6814997 133.8359988 123.7056068 132.2324607 133.1194838
 126.0740012 130.9564997 134.0559988 125.1690012 131.1214997 133.7899988
 126.5030012 131.8094997 133.9909988 126.0081324 131.0944339 134.0107976
 128.6780012 132.5264997 134.3509988 128.4960012 133.4424997 134.1409988
 128.8550012 132.1164997 133.5049988 128.6770210 132.5964822 134.2077885
 115.9830012 131.2134997 131.8159988 115.9650012 130.7884997 132.6729988
 116.7880012 130.8954997 131.4069988 116.0893529 131.1123013 131.8780946
 118.1250012 129.9234997 130.4709988 117.9060012 129.0074997 130.6409988
 118.9490012 130.0634997 130.9369988 118.2064420 129.8170520 130.5572774
 120.6620012 130.3934997 131.3199988 120.8750012 129.5054997 131.0329988
 120.7260012 130.3594997 132.2739988 120.6998232 130.2673102 131.4097397
 124.1700012 116.0574997 130.4639988 123.4960012 115.4284997 130.7199988
 124.7340012 115.5734997 129.8609988 124.1539230 115.9058744 130.4175340
 129.3130012 114.1654997 130.5769988 129.9170012 114.7124997 130.0749988
 128.4430012 114.4844997 130.3359988 129.2781208 114.2835137 130.4756886
 131.0400012 115.3034997 128.9099988 131.6520012 114.7894997 128.3829988
 131.4220012 116.1814997 128.9329988 131.1753371 115.3517866 128.8410041
 116.4970012 114.6914997 128.2859988 115.7200012 114.4574997 127.7789988
 117.0270012 113.8944997 128.2949988 116.4622330 114.5516988 128.2177742
 115.3330012 114.4894997 124.0899988 115.7720012 115.1004997 123.4979988
 114.7000012 115.0274997 124.5639988 115.3074514 114.6459257 124.0730930
 121.0760012 114.6184997 128.0999988 121.9510012 115.0064997 128.0699988
 120.9400012 114.4034997 129.0219988 121.1773695 114.6425184 128.2206440
 126.6330012 114.6484997 129.7489988 126.7090012 114.7434997 128.7989988
 126.3580012 113.7404997 129.8779988 126.6062321 114.5387867 129.6365079
 127.9860012 114.6744997 125.4409988 127.2840012 115.2894997 125.2309988
 127.5420012 113.8364997 125.5719988 127.8296450 114.6455639 125.4299000
 115.2340012 130.4374997 124.9869988 114.5490012 130.3994997 124.3199988
 115.2380012 131.3504997 125.2759988 115.1406998 130.5556733 124.9346771
 117.1940012 116.4054997 122.5319988 117.6860012 115.7754997 122.0049988
 117.8180012 116.7014997 123.1949988 117.3455688 116.3593804 122.5495482
 122.2200012 116.6984997 124.9889988 122.3980012 116.0524997 125.6719988
 122.1670012 117.5324997 125.4559988 122.2371999 116.7228009 125.1455917
 124.0990012 131.6474997 123.3849988 124.9650012 132.0134997 123.2069988
 123.8520012 131.2074997 122.5709988 124.1842392 131.6381756 123.2506289
 130.8080012 131.2104997 126.0639988 130.6130012 130.4624997 125.4989988
 130.7690012 131.9684997 125.4809988 130.7760380 131.2106099 125.9078384
 116.4550012 115.2054997 137.8039988 116.0890012 114.4404997 138.2459988
 117.3680012 115.2344997 138.0899988 116.5282736 115.1045640 137.9032502
 118.4280012 114.5564997 139.3399988 119.3260012 114.2824997 139.1549988
 118.0410012 113.8134997 139.8039988 118.4986612 114.4185914 139.3773643
 117.0520012 131.3574997 122.0129988 116.7850012 131.6444997 122.8859988
 117.8240012 130.8114997 122.1649988 117.1197488 131.3230294 122.1531050
 126.8490012 113.8884997 139.5219988 126.9260012 113.4624997 140.3759988
 127.7430012 113.9024997 139.1789988 126.9803428 113.8320879 139.5925310
 130.0250012 129.9614997 138.2139988 129.2430012 129.7754997 137.6939988
 129.9530012 130.8904997 138.4319988 129.9082274 130.0616643 138.1723018
 144.4310012 123.8474997 128.2449988 144.5200012 124.7914997 128.1129988
 143.7930012 123.5724997 127.5869988 144.3569081 123.9394830 128.1379614
 143.3640012 123.1024997 131.6639988 143.3260012 122.4564997 132.3689988
 143.0420012 122.6364997 130.8929988 143.3152333 122.9509408 131.6562978
 135.7330012 122.7174997 133.2569988 135.7740012 122.0914997 133.9799988
 136.4360012 123.3414997 133.4389988 135.8336363 122.7161196 133.3806044
 136.6560012 127.1674997 131.7919988 136.2870012 126.3654997 131.4219988
 137.5970012 126.9984997 131.8379988 136.7327289 127.0350153 131.7476316
 133.2660012 120.8274997 127.1849988 132.8190012 121.6734997 127.1659988
 132.7050012 120.2474997 126.6689988 133.1289900 120.8649916 127.1126801
 133.9770012 122.9894997 129.3099988 134.1900012 122.2194997 129.8379988
 134.7150012 123.0784997 128.7069988 134.1059044 122.8961968 129.3007123
 144.1820012 131.1464997 130.1769988 144.8020012 130.4694997 129.9039988
 143.9740012 130.9284997 131.0859988 144.2386726 131.0244800 130.2624812
 141.7540012 125.5354997 132.0699988 142.0580012 124.8494997 131.4749988
 142.4750012 125.6534997 132.6879988 141.8930671 125.4576304 132.0721816
 144.8950012 119.9294997 132.3969988 145.0370012 118.9834997 132.4179988
 144.7880012 120.1364997 131.4689988 144.8999919 119.8278246 132.2743408
 138.0490012 118.0304997 129.6699988 138.0930012 118.8904997 129.2509988
 137.5920012 117.4784997 129.0359988 137.9932240 118.0734422 129.5269864
 134.6700012 120.4274997 130.4319988 135.3230012 119.8774997 130.8639988
 134.6940012 120.1534997 129.5149988 134.7626683 120.3151466 130.3672123
 139.8260012 121.9774997 129.6469988 140.4420012 121.4514997 130.1569988
 139.2400012 121.3374997 129.2439988 139.8310810 121.8189208 129.6623173
 136.8600012 116.9484997 133.7439988 136.6410012 117.4784997 132.9779988
 136.1920012 117.1754997 134.3909988 136.7397600 117.0516906 133.7266379
 144.2290012 126.4484997 127.2879988 143.9330012 126.1264997 126.4369988
 143.9040012 127.3484997 127.3289988 144.1446371 126.5260215 127.1771801
 139.4290012 124.6244997 134.0309988 138.6890012 125.2224997 134.1349988
 140.1430012 125.1784997 133.7159988 139.4242237 124.7812831 134.0026465
 136.4530012 118.8404997 131.6959988 137.0670012 119.4734997 132.0689988
 136.9650012 118.3684997 131.0399988 136.6061981 118.8632267 131.6582908
 137.8360012 126.5884997 134.8179988 137.8310012 127.4684997 134.4399988
 136.9830012 126.5054997 135.2429988 137.7199464 126.6976117 134.8237907
 133.9570012 126.2594997 125.5999988 133.6850012 126.4884997 124.7119988
 134.0030012 127.0974997 126.0609988 133.9259482 126.4041318 125.5406273
 140.8860012 114.2544997 131.1959988 140.7690012 113.3054997 131.1419988
 140.0310012 114.5864997 131.4699988 140.7544212 114.1695571 131.2256497
 143.1530012 123.0914997 125.6969988 142.4410012 123.6264997 125.3449988
 143.8440012 123.1474997 125.0369988 143.1490132 123.1722543 125.5596289
 143.2060012 121.5494997 122.7359988 143.9070012 121.5714997 123.3869988
 143.5090012 120.9214997 122.0789988 143.3428133 121.4677070 122.7363369
 138.2040012 123.9314997 128.5309988 137.8730012 123.5614997 127.7129988
 138.7920012 123.2614997 128.8779988 138.2381873 123.7901156 128.4658102
 139.5700012 127.3594997 131.2119988 139.4760012 126.7814997 130.4559988
 140.3000012 126.9884997 131.7089988 139.6557387 127.2301663 131.1755342
 138.5700012 122.7004997 132.1649988 139.1360012 122.8214997 131.4019988
 138.8890012 123.3374997 132.8029988 138.6905474 122.8032219 132.1469862
 144.8790012 128.2034997 132.8989988 144.6390012 128.8654997 133.5469988
 144.6810012 127.3694997 133.3239988 144.8193808 128.1813134 133.0451524
 139.4500012 127.0994997 136.8819988 139.1390012 127.8814997 137.3369988
 138.8000012 126.9464997 136.1959988 139.3195558 127.1859105 136.8515871
 136.3700012 123.2974997 136.1099988 136.4410012 123.9484997 136.8089988
 135.4800012 123.4004997 135.7749988 136.2593005 123.4005427 136.1603495
 143.1560012 129.2004997 127.7689988 143.6300012 129.4954997 128.5459988
 142.5930012 129.9384997 127.5359988 143.1448184 129.3407247 127.8439628
 137.6900012 129.1714997 137.6449988 137.6970012 129.0354997 136.6979988
 136.7740012 129.0534997 137.8969988 137.5671714 129.1369430 137.5494666
 137.1940012 123.0014997 126.1199988 136.9020012 123.7694997 125.6299988
 136.5200012 122.3414997 125.9579988 137.0628111 123.0175587 126.0308978
 133.2870012 125.3644997 134.9349988 132.7860012 125.3364997 134.1199988
 133.2920012 124.4584997 135.2449988 133.2190944 125.2382396 134.8653226
 133.0370012 128.1444997 131.8189988 133.9830012 128.0004997 131.7999988
 132.9250012 128.9284997 132.3559988 133.1512727 128.2308046 131.8890072
 142.2140012 128.3844997 136.3779988 142.3010012 129.2104997 136.8529988
 141.3500012 128.0544997 136.6269988 142.1091964 128.4529878 136.4766549
 142.6280012 132.1564997 126.1839988 142.5530012 132.0354997 125.2369988
 142.6610012 133.1064997 126.3019988 142.6222068 132.2682646 126.0704967
 136.2810012 130.9454997 127.9649988 136.4340012 130.5974997 128.8429988
 135.4310012 130.5894997 127.7099988 136.1869166 130.8496216 128.0508079
 135.5360012 126.6874997 135.9789988 135.7520012 126.3264997 136.8379988
 134.6810012 126.3134997 135.7689988 135.4499292 126.5874111 136.0683386
 138.1550012 115.1574997 131.9739988 137.2930012 115.0704997 131.5659988
 138.1320012 116.0134997 132.4019988 138.0340409 115.2612883 131.9760589
 142.8180012 114.8794997 135.3489988 143.2380012 114.4644997 136.1019988
 141.8850012 114.7014997 135.4659988 142.7493644 114.7985900 135.4679539
 142.4790012 117.3724997 122.6339988 142.2260012 117.3914997 123.5569988
 142.2230012 116.5004997 122.3319988 142.4097481 117.2572558 122.7196175
 138.2460012 120.1234997 133.0689988 137.6040012 120.0824997 133.7779988
 138.2830012 121.0494997 132.8309988 138.1630664 120.2431430 133.1339219
 138.2430012 120.3444997 127.9809988 137.3500012 120.0034997 127.9219988
 138.6930012 119.9674997 127.2249988 138.1818130 120.2469631 127.8707702
 143.7780012 120.7604997 126.7979988 143.3690012 121.5754997 126.5069988
 144.4990012 120.6204997 126.1839988 143.8194537 120.8532018 126.6751342
 142.8800012 120.9354997 138.2859988 142.3180012 120.2314997 138.6069988
 143.7070012 120.8154997 138.7539988 142.9147095 120.8227883 138.3932330
 144.7830012 120.2064997 129.6119988 144.5880012 120.8114997 128.8969988
 144.9640012 119.3724997 129.1779988 144.7807614 120.1766300 129.4554405
 135.9960012 120.4434997 134.9359988 135.9580012 120.8434997 135.8049988
 135.5050012 119.6264997 135.0269988 135.9244684 120.3878069 135.0671059
 139.3620012 117.8174997 121.7349988 138.9310012 117.3724997 122.4649988
 138.6440012 118.1894997 121.2229988 139.2059438 117.8068940 121.7656799
 132.6040012 117.5594997 128.7869988 133.2350012 117.5304997 129.5059988
 133.0530012 117.1344997 128.0559988 132.7510918 117.4980836 128.7866441
 133.8780012 118.3054997 124.2109988 134.3520012 118.8964997 123.6259988
 133.1610012 118.8364997 124.5579988 133.8459341 118.4580867 124.1778836
 144.0470012 121.8444997 134.2829988 144.3700012 121.2134997 133.6399988
 143.6070012 121.3094997 134.9439988 144.0317484 121.6858387 134.2843198
 140.8240012 117.7714997 129.0669988 139.9130012 117.8284997 129.3559988
 141.3300012 117.7114997 129.8779988 140.7676899 117.7711941 129.2161184
 135.6530012 119.4004997 127.8939988 134.7630012 119.5004997 127.5539988
 135.9490012 118.5584997 127.5479988 135.5712823 119.3003546 127.8007213
 139.3060012 119.4004997 125.5509988 140.2370012 119.5294997 125.7289988
 139.0910012 120.0704997 124.9009988 139.4044247 119.5086565 125.4875747
 137.9800012 120.5954997 123.1169988 137.4370012 120.2154997 122.4259988
 138.8130012 120.7894997 122.6889988 138.0183631 120.5697125 122.9644501
 136.1150012 125.1524997 138.2159988 136.8470012 125.4064997 138.7779988
 135.3350012 125.3564997 138.7319988 136.1097073 125.2148160 138.3626151
 142.1440012 120.5594997 130.9539988 142.7090012 120.0124997 130.4069988
 141.9970012 120.0374997 131.7429988 142.2013380 120.4142259 130.9858695
 137.1460012 116.6954997 127.3729988 136.8290012 115.7934997 127.3369988
 137.9280012 116.6974997 126.8199988 137.2082408 116.5722474 127.2933569
 140.7710012 118.9474997 133.3679988 139.9350012 119.4014997 133.4789988
 141.2950012 119.2234997 134.1199988 140.7275416 119.0468660 133.4848119
 141.3150012 125.1604997 125.0529988 140.5700012 124.6534997 124.7309988
 141.1810012 125.2094997 125.9999988 141.1948776 125.0976940 125.1368647
 142.8340012 125.3444997 136.2899988 142.4890012 124.9634997 137.0969988
 142.6340012 126.2784997 136.3609988 142.7597527 125.4185135 136.4100689
 136.4400012 124.4554997 130.8229988 137.1850012 124.4534997 130.2219988
 136.5180012 123.6324997 131.3039988 136.5524995 124.3438887 130.8058282
 143.4410012 126.6194997 124.0789988 143.1450012 127.4454997 124.4599988
 142.7380012 125.9994997 124.2749988 143.3054914 126.6488199 124.1576443
 133.4480012 122.9164997 136.1379988 133.6710012 122.4984997 136.9699988
 132.8460012 122.3034997 135.7149988 133.3971759 122.7764668 136.1947022
 140.4640012 122.4334997 138.3509988 140.1680012 122.2674997 137.4559988
 141.3960012 122.2134997 138.3399988 140.5494166 122.3810640 138.2270536
 138.8150012 127.9734997 128.2269988 139.3420012 128.7464997 128.0269988
 137.9350012 128.1984997 127.9249988 138.7682031 128.1097545 128.1587912
 134.5700012 122.8354997 122.8139988 135.1860012 123.4624997 123.1939988
 133.7080012 123.1514997 123.0859988 134.5377698 122.9639430 122.9027183
 140.2420012 125.6364997 127.8029988 140.0010012 126.5614997 127.8449988
 139.5010012 125.1774997 128.1999988 140.1089225 125.7010933 127.8623742
 140.7570012 129.7854997 134.1189988 141.1190012 130.6404997 133.8849988
 141.2880012 129.4934997 134.8589988 140.8784473 129.8631060 134.1870855
 138.9250012 130.6584997 127.3489988 137.9750012 130.7634997 127.3999988
 139.2770012 131.4784997 127.6929988 138.8424195 130.7838800 127.4025502
 144.3010012 125.8844997 133.8189988 143.8750012 125.6574997 134.6459988
 144.8810012 125.1464997 133.6369988 144.3211868 125.7535299 133.9075830
 135.0820012 117.6694997 135.6959988 134.1890012 118.0084997 135.6279988
 134.9830012 116.8144997 136.1139988 134.9464164 117.6002588 135.7432235
 134.7330012 129.4744997 134.1309988 134.9500012 128.5424997 134.0999988
 134.9790012 129.7484997 135.0139988 134.7959549 129.3840636 134.2461763
 140.5950012 127.9254997 121.3399988 140.8340012 127.1774997 120.7929988
 140.3260012 127.5374997 122.1729988 140.5913675 127.7706638 121.3776865
 139.5320012 127.4954997 123.7959988 139.6780012 126.9754997 124.5859988
 139.5290012 128.4024997 124.1029988 139.5515792 127.5468842 123.9456117
 135.9850012 124.7484997 124.3069988 135.2990012 125.1004997 124.8739988
 136.5070012 125.5114997 124.0599988 135.9616852 124.8998578 124.3512118
 143.8160012 117.4104997 134.5859988 144.5150012 117.4844997 135.2359988
 143.4350012 116.5464997 134.7399988 143.8601767 117.3037624 134.6958322
 144.6010012 117.0624997 125.6829988 144.8210012 117.5344997 124.8799988
 145.1590012 117.4574997 126.3529988 144.7064968 117.1804285 125.6637331
 142.2690012 129.1934997 124.5459988 141.4530012 129.6904997 124.5979988
 142.7990012 129.6684997 123.9059988 142.2289161 129.3257722 124.4665956
 141.8010012 118.7904997 126.5179988 142.6130012 119.2954997 126.5639988
 141.5560012 118.6454997 127.4319988 141.8790520 118.8400375 126.6478517
 142.3360012 119.7764997 135.7019988 142.4550012 120.3504997 136.4599988
 142.9920012 119.0884997 135.8169988 142.4409025 119.7619858 135.8211321
 142.6840012 115.8714997 127.4559988 142.3380012 116.4894997 128.0999988
 143.3430012 116.3724997 126.9739988 142.7256968 116.0236278 127.4789383
 139.6080012 130.2374997 124.5269988 139.7680012 131.0364997 124.0269988
 139.4100012 130.5434997 125.4119988 139.6031637 130.3884020 124.5781144
 138.3420012 116.9344997 124.1429988 138.2590012 117.8234997 124.4899988
 139.2320012 116.6694997 124.3749988 138.4509469 117.0201430 124.2217626
 136.6010012 127.3624997 123.2039988 137.1930012 128.0614997 123.4799988
 137.0600012 126.9294997 122.4839988 136.7441142 127.3997049 123.1444830
 134.9170012 120.0264997 122.3199988 134.8720012 120.9654997 122.4979988
 134.0290012 119.7904997 122.0499988 134.7908574 120.1231892 122.3078912
 135.7250012 114.8084997 130.9929988 135.4960012 114.8674997 130.0649988
 135.2820012 114.0164997 131.2989988 135.6338530 114.7095753 130.9074786
 134.6550012 128.7484997 127.1529988 133.8230012 129.2214997 127.1799988
 135.2010012 129.2584997 126.5549988 134.6150352 128.8821332 127.0758463
 133.9430012 131.3614997 138.4829988 134.4840012 131.1444997 139.2429988
 133.4620012 130.5554997 138.2929988 133.9519951 131.2229270 138.5612576
 138.5410012 130.2804997 140.1029988 139.3080012 129.8214997 140.4439988
 138.5190012 130.0544997 139.1739988 138.6431275 130.1870186 140.0240101
 142.6330012 129.7884997 121.4789988 141.9890012 129.1574997 121.7999988
 143.3950012 129.2574997 121.2469988 142.6478077 129.6302920 121.4916011
 133.8500012 125.1714997 139.4369988 133.9940012 124.2694997 139.1509988
 133.0780012 125.4574997 138.9499988 133.7652753 125.0866816 139.3319505
 138.1920012 125.5154997 121.5699988 138.2560012 124.7214997 122.1009988
 138.8450012 125.3964997 120.8799988 138.2890241 125.3907148 121.5494317
 140.5060012 125.1414997 138.8699988 140.1770012 125.4124997 138.0129988
 140.6580012 124.2004997 138.7829988 140.4814809 125.0513862 138.7408244
 143.5440012 126.5624997 121.3059988 143.2750012 126.7424997 122.2069988
 143.3380012 125.6364997 121.1739988 143.4793427 126.4620261 121.4115073
 134.6830012 122.3714997 138.8569988 135.0910012 121.5144997 138.7359988
 134.4230012 122.3864997 139.7779988 134.7037568 122.2560807 138.9649588
 139.3410012 123.4874997 123.8759988 138.8810012 123.0034997 124.5619988
 139.5960012 122.8194997 123.2399988 139.3124902 123.3308731 123.8839334
 138.6300012 121.3804997 136.2319988 138.0120012 122.0554997 136.5119988
 138.9740012 121.7014997 135.3979988 138.5919132 121.5162411 136.1576262
 140.4120012 121.7304997 122.1379988 140.2320012 121.5764997 121.2109988
 141.3620012 121.8384997 122.1829988 140.5157776 121.7240175 122.0171843
 143.6500012 123.8524997 139.5089988 144.6030012 123.9354997 139.4819988
 143.4890012 123.1404997 140.1289988 143.7586426 123.7676746 139.5890579
 138.9690012 118.7354997 137.3139988 139.1190012 118.0064997 136.7119988
 138.9720012 119.5124997 136.7549988 138.9899302 118.7407851 137.1560692
 139.3820012 117.1054997 134.8069988 139.9180012 117.5564997 134.1549988
 138.5300012 116.9974997 134.3839988 139.3402178 117.1526390 134.6605756
 140.9640012 122.5444997 135.0459988 141.7140012 122.3884997 134.4729988
 140.6250012 123.3964997 134.7709988 141.0208921 122.6382968 134.9303561
 137.4480012 119.9334997 139.2259988 136.6810012 119.4014997 139.0149988
 138.1270012 119.6234997 138.6259988 137.4347877 119.8188300 139.1160716
 140.1880012 114.5614997 135.2379988 140.0890012 115.5084997 135.1329988
 139.4450012 114.1894997 134.7619988 140.0741184 114.6405863 135.1593621
 141.4520012 118.8834997 138.8019988 141.2160012 118.6634997 139.7029988
 140.6680012 118.6764997 138.2919988 141.3138504 118.8254586 138.8563431
 144.1670012 118.0104997 137.8769988 143.2200012 118.0424997 138.0099988
 144.4800012 117.3854997 138.5309988 144.0796707 117.9303998 137.9836060
 135.6280012 117.8544997 138.9299988 135.8400012 117.1474997 138.3199988
 135.5170012 117.4164997 139.7739988 135.6419721 117.6987084 138.9606843
 140.4090012 113.8554997 137.9089988 141.1210012 113.2154997 137.8949988
 140.3080012 114.1224997 136.9959988 140.4928066 113.8040079 137.7835677
 140.7630012 115.5384997 139.9629988 140.6310012 115.0624997 139.1429988
 140.1640012 116.2824997 139.9079988 140.6639071 115.5739618 139.8432886
 140.3090012 132.4214997 123.1389988 141.2420012 132.5794997 123.2829988
 140.0450012 133.0964997 122.5149988 140.4009888 132.5344510 123.0742842
 133.8780012 127.0574997 122.6219988 134.7920012 127.1364997 122.8959988
 133.8850012 126.3704997 121.9559988 134.0041131 126.9753961 122.5694393
 132.5270012 132.4504997 127.6999988 131.8800012 131.9884997 127.1669988
 132.8810012 131.7784997 128.2819988 132.4863849 132.2964723 127.7057959
 133.3970012 130.5314997 129.5039988 133.0620012 129.6514997 129.6759988
 133.6190012 130.8764997 130.3689988 133.3811783 130.4577500 129.6444208
 133.4770012 123.6064997 131.9559988 133.6610012 123.5244997 131.0199988
 134.3260012 123.4824997 132.3789988 133.6170151 123.5785073 131.8851451
 133.0740012 118.8774997 138.0969988 133.9940012 118.7554997 138.3329988
 132.6250012 118.1274997 138.4859988 133.1391580 118.7593727 138.1819006
 134.2950012 117.1894997 130.9879988 134.7410012 116.3974997 131.2899988
 134.7620012 117.9054997 131.4179988 134.4190831 117.1780685 131.0874006
 132.5990012 120.1884997 132.0569988 133.0910012 119.9674997 131.2659988
 132.9620012 121.0294997 132.3379988 132.7153126 120.2718357 131.9867531
 132.9130012 116.4464997 126.1109988 131.9880012 116.6554997 125.9819988
 133.3670012 116.9304997 125.4209988 132.8477292 116.5405343 126.0000720
 132.8770012 115.1844997 134.4549988 132.2120012 114.9384997 135.0989988
 132.4340012 115.8064997 133.8779988 132.7261318 115.2349410 134.4650898
 135.0690012 128.3594997 138.5999988 134.2480012 128.5344997 138.1389988
 134.8160012 128.2864997 139.5199988 134.9225585 128.3735544 138.6613561
 138.0230012 129.3344997 134.8579988 137.5980012 130.1434997 134.5759988
 138.9270012 129.4194997 134.5559988 138.0869975 129.4569300 134.7784816
 142.3340012 130.7334997 137.8179988 142.5190012 130.3994997 138.6959988
 143.1800012 131.0424997 137.4959988 142.4737539 130.7296047 137.8945605
 144.6790012 132.0194997 137.0619988 145.3560012 131.3864997 136.8219988
 145.0010012 132.4204997 137.8689988 144.8151637 131.9871154 137.1382793
 135.4250012 132.5904997 134.9059988 134.7040012 133.0304997 134.4549988
 135.0590012 132.3394997 135.7539988 135.2769651 132.6167242 134.9589640
 137.8920012 132.1904997 133.9359988 137.0270012 132.2624997 134.3399988
 137.8370012 132.7374997 133.1519988 137.7662085 132.2742685 133.8853362
 142.6020012 132.0784997 133.1109988 142.1460012 132.6074997 132.4569988
 142.7650012 132.6814997 133.8359988 142.5616068 132.2324607 133.1194838
 134.8390012 131.2134997 131.8159988 134.8210012 130.7884997 132.6729988
 135.6440012 130.8954997 131.4069988 134.9453529 131.1123013 131.8780946
 136.9810012 129.9234997 130.4709988 136.7620012 129.0074997 130.6409988
 137.8050012 130.0634997 130.9369988 137.0624420 129.8170520 130.5572774
 139.5180012 130.3934997 131.3199988 139.7310012 129.5054997 131.0329988
 139.5820012 130.3594997 132.2739988 139.5558231 130.2673102 131.4097397
 143.0260012 116.0574997 130.4639988 142.3520012 115.4284997 130.7199988
 143.5900012 115.5734997 129.8609988 143.0099230 115.9058744 130.4175340
 135.3530012 114.6914997 128.2859988 134.5760012 114.4574997 127.7789988
 135.8830012 113.8944997 128.2949988 135.3182330 114.5516988 128.2177742
 134.1890012 114.4894997 124.0899988 134.6280012 115.1004997 123.4979988
 133.5560012 115.0274997 124.5639988 134.1634514 114.6459257 124.0730930
 139.9320012 114.6184997 128.0999988 140.8070012 115.0064997 128.0699988
 139.7960012 114.4034997 129.0219988 140.0333695 114.6425184 128.2206440
 134.0900012 130.4374997 124.9869988 133.4050012 130.3994997 124.3199988
 134.0940012 131.3504997 125.2759988 133.9966998 130.5556733 124.9346771
 136.0500012 116.4054997 122.5319988 136.5420012 115.7754997 122.0049988
 136.6740012 116.7014997 123.1949988 136.2015688 116.3593804 122.5495482
 141.0760012 116.6984997 124.9889988 141.2540012 116.0524997 125.6719988
 141.0230012 117.5324997 125.4559988 141.0931999 116.7228009 125.1455917
 142.9550012 131.6474997 123.3849988 143.8210012 132.0134997 123.2069988
 142.7080012 131.2074997 122.5709988 143.0402392 131.6381756 123.2506289
 135.3110012 115.2054997 137.8039988 134.9450012 114.4404997 138.2459988
 136.2240012 115.2344997 138.0899988 135.3842736 115.1045640 137.9032502
 137.2840012 114.5564997 139.3399988 138.1820012 114.2824997 139.1549988
 136.8970012 113.8134997 139.8039988 137.3546612 114.4185914 139.3773643
 135.9080012 131.3574997 122.0129988 135.6410012 131.6444997 122.8859988
 136.6800012 130.8114997 122.1649988 135.9757488 131.3230294 122.1531050
  12.4390012 142.7034997 128.2449988  12.5280012 143.6474997 128.1129988
  11.8010012 142.4284997 127.5869988  12.3649081 142.7954830 128.1379614
  11.3720012 141.9584997 131.6639988  11.3340012 141.3124997 132.3689988
  11.0500012 141.4924997 130.8929988  11.3232333 141.8069408 131.6562978
   3.7410012 141.5734997 133.2569988   3.7820012 140.9474997 133.9799988
   4.4440012 142.1974997 133.4389988   3.8416363 141.5721196 133.3806044
  15.0780012 144.8974997 129.9649988  14.6380012 144.1774997 130.4159988
  15.0650012 145.6184997 130.5949988  15.0160226 144.8963731 130.1118494
   1.2740012 139.6834997 127.1849988   0.8270012 140.5294997 127.1659988
   0.7130012 139.1034997 126.6689988   1.1369900 139.7209916 127.1126801
   1.9850012 141.8454997 129.3099988   2.1980012 141.0754997 129.8379988
   2.7230012 141.9344997 128.7069988   2.1139044 141.7521968 129.3007123
   9.7620012 144.3914997 132.0699988  10.0660012 143.7054997 131.4749988
  10.4830012 144.5094997 132.6879988   9.9010671 144.3136305 132.0721816
  18.4250012 135.9924997 132.9309988  18.4740012 136.6024997 133.6659988
  18.8500012 136.4534997 132.2079988  18.4891746 136.1383796 132.9339175
  12.9030012 138.7854997 132.3969988  13.0450012 137.8394997 132.4179988
  12.7960012 138.9924997 131.4689988  12.9079919 138.6838246 132.2743408
   6.0570012 136.8864997 129.6699988   6.1010012 137.7464997 129.2509988
   5.6000012 136.3344997 129.0359988   6.0012240 136.9294422 129.5269864
  13.7800012 137.0174997 128.0709988  14.4260012 136.6884997 128.6949988
  14.2900012 137.5354997 127.4479988  13.9374299 137.0424450 128.0722731
   2.6780012 139.2834997 130.4319988   3.3310012 138.7334997 130.8639988
   2.7020012 139.0094997 129.5149988   2.7706683 139.1711466 130.3672123
   7.8340012 140.8334997 129.6469988   8.4500012 140.3074997 130.1569988
   7.2480012 140.1934997 129.2439988   7.8390810 140.6749208 129.6623173
  18.8160012 137.4704997 135.1659988  18.1280012 138.1284997 135.0709988
  18.8320012 137.2734997 136.1029988  18.7239540 137.5339819 135.2795990
   4.8680012 135.8044997 133.7439988   4.6490012 136.3344997 132.9779988
   4.2000012 136.0314997 134.3909988   4.7477600 135.9076906 133.7266379
   7.4370012 143.4804997 134.0309988   6.6970012 144.0784997 134.1349988
   8.1510012 144.0344997 133.7159988   7.4322237 143.6372831 134.0026465
  15.5440012 136.3084997 130.0509988  15.3280012 135.5424997 130.5839988
  16.1990012 136.7804997 130.5639988  15.6030632 136.2675889 130.1932861
   4.4610012 137.6964997 131.6959988   5.0750012 138.3294997 132.0689988
   4.9730012 137.2244997 131.0399988   4.6141981 137.7192267 131.6582908
  15.8910012 135.0234997 133.7309988  15.1550012 135.6344997 133.6929988
  16.5740012 135.4384997 133.2039988  15.8826541 135.1631374 133.6545832
   8.8940012 133.1104997 131.1959988   8.7770012 132.1614997 131.1419988
   8.0390012 133.4424997 131.4699988   8.7624212 133.0255571 131.2256497
  16.6880012 144.9854997 135.9239988  16.8280012 144.3944997 135.1849988
  16.8550012 145.8584997 135.5679988  16.7297411 145.0225428 135.7746894
  11.1610012 141.9474997 125.6969988  10.4490012 142.4824997 125.3449988
  11.8520012 142.0034997 125.0369988  11.1570132 142.0282543 125.5596289
  11.2140012 140.4054997 122.7359988  11.9150012 140.4274997 123.3869988
  11.5170012 139.7774997 122.0789988  11.3508133 140.3237070 122.7363369
  18.5300012 141.3254997 133.9899988  17.8770012 142.0204997 134.0799988
  18.9950012 141.5354997 133.1809988  18.5035274 141.4490643 133.8928462
  14.5660012 142.1574997 126.6489988  13.8340012 142.3854997 127.2219988
  15.0140012 141.4434997 127.1029988  14.5262725 142.0922145 126.7888816
  14.4640012 140.3314997 135.7159988  14.5440012 141.0944997 136.2879988
  13.8620012 140.6104997 135.0259988  14.3935756 140.4737134 135.7010589
   6.2120012 142.7874997 128.5309988   5.8810012 142.4174997 127.7129988
   6.8000012 142.1174997 128.8779988   6.2461873 142.6461156 128.4658102
   6.5780012 141.5564997 132.1649988   7.1440012 141.6774997 131.4019988
   6.8970012 142.1934997 132.8029988   6.6985474 141.6592219 132.1469862
  13.4370012 141.3194997 124.3339988  14.0170012 141.4694997 125.0809988
  13.8510012 141.7904997 123.6099988  13.5722997 141.4036578 124.3384058
   4.3780012 142.1534997 136.1099988   4.4490012 142.8044997 136.8089988
   3.4880012 142.2564997 135.7749988   4.2673005 142.2565427 136.1603495
  17.1360012 133.0694997 124.1469988  16.2360012 133.2084997 124.4419988
  17.3880012 133.9004997 123.7449988  17.0468702 133.2009074 124.1330205
   5.2020012 141.8574997 126.1199988   4.9100012 142.6254997 125.6299988
   4.5280012 141.1974997 125.9579988   5.0708111 141.8735587 126.0308978
   1.2950012 144.2204997 134.9349988   0.7940012 144.1924997 134.1199988
   1.3000012 143.3144997 135.2449988   1.2270944 144.0942396 134.8653226
  16.3950012 139.1594997 137.9819988  15.9880012 139.6404997 137.2609988
  16.4360012 138.2544997 137.6739988  16.3448437 139.1029374 137.8416683
   6.1630012 134.0134997 131.9739988   5.3010012 133.9264997 131.5659988
   6.1400012 134.8694997 132.4019988   6.0420409 134.1172883 131.9760589
  10.8260012 133.7354997 135.3489988  11.2460012 133.3204997 136.1019988
   9.8930012 133.5574997 135.4659988  10.7573644 133.6545900 135.4679539
  14.1520012 137.4914997 136.2019988  13.6380012 137.3654997 136.9999988
  13.9970012 138.4034997 135.9579988  14.0606852 137.5976132 136.2782158
  14.9150012 142.3524997 121.9639988  14.9570012 142.1294997 121.0339988
  15.7640012 142.7514997 122.1529988  15.0355280 142.3759438 121.8623554
  10.4870012 136.2284997 122.6339988  10.2340012 136.2474997 123.5569988
  10.2310012 135.3564997 122.3319988  10.4177481 136.1132558 122.7196175
   6.2540012 138.9794997 133.0689988   5.6120012 138.9384997 133.7779988
   6.2910012 139.9054997 132.8309988   6.1710664 139.0991430 133.1339219
   6.2510012 139.2004997 127.9809988   5.3580012 138.8594997 127.9219988
   6.7010012 138.8234997 127.2249988   6.1898130 139.1029631 127.8707702
  11.7860012 139.6164997 126.7979988  11.3770012 140.4314997 126.5069988
  12.5070012 139.4764997 126.1839988  11.8274537 139.7092018 126.6751342
  10.8880012 139.7914997 138.2859988  10.3260012 139.0874997 138.6069988
  11.7150012 139.6714997 138.7539988  10.9227095 139.6787883 138.3932330
  12.7910012 139.0624997 129.6119988  12.5960012 139.6674997 128.8969988
  12.9720012 138.2284997 129.1779988  12.7887614 139.0326300 129.4554405
   4.0040012 139.2994997 134.9359988   3.9660012 139.6994997 135.8049988
   3.5130012 138.4824997 135.0269988   3.9324684 139.2438069 135.0671059
   7.3700012 136.6734997 121.7349988   6.9390012 136.2284997 122.4649988
   6.6520012 137.0454997 121.2229988   7.2139438 136.6628940 121.7656799
   0.6120012 136.4154997 128.7869988   1.2430012 136.3864997 129.5059988
   1.0610012 135.9904997 128.0559988   0.7590918 136.3540836 128.7866441
   1.8860012 137.1614997 124.2109988   2.3600012 137.7524997 123.6259988
   1.1690012 137.6924997 124.5579988   1.8539341 137.3140867 124.1778836
  12.0550012 140.7004997 134.2829988  12.3780012 140.0694997 133.6399988
  11.6150012 140.1654997 134.9439988  12.0397484 140.5418387 134.2843198
   8.8320012 136.6274997 129.0669988   7.9210012 136.6844997 129.3559988
   9.3380012 136.5674997 129.8779988   8.7756899 136.6271941 129.2161184
   3.6610012 138.2564997 127.8939988   2.7710012 138.3564997 127.5539988
   3.9570012 137.4144997 127.5479988   3.5792823 138.1563545 127.8007213
   7.3140012 138.2564997 125.5509988   8.2450012 138.3854997 125.7289988
   7.0990012 138.9264997 124.9009988   7.4124247 138.3646565 125.4875747
  13.2370012 135.8624997 132.3319988  12.5610012 135.9934997 132.9959988
  12.7520012 135.7074997 131.5209988  13.0787146 135.8595157 132.3134469
   5.9880012 139.4514997 123.1169988   5.4450012 139.0714997 122.4259988
   6.8210012 139.6454997 122.6889988   6.0263631 139.4257125 122.9644501
   4.1230012 144.0084997 138.2159988   4.8550012 144.2624997 138.7779988
   3.3430012 144.2124997 138.7319988   4.1177073 144.0708160 138.3626151
  10.1520012 139.4154997 130.9539988  10.7170012 138.8684997 130.4069988
  10.0050012 138.8934997 131.7429988  10.2093380 139.2702259 130.9858695
   5.1540012 135.5514997 127.3729988   4.8370012 134.6494997 127.3369988
   5.9360012 135.5534997 126.8199988   5.2162408 135.4282474 127.2933569
   8.7790012 137.8034997 133.3679988   7.9430012 138.2574997 133.4789988
   9.3030012 138.0794997 134.1199988   8.7355416 137.9028660 133.4848119
   9.3230012 144.0164997 125.0529988   8.5780012 143.5094997 124.7309988
   9.1890012 144.0654997 125.9999988   9.2028776 143.9536940 125.1368647
  16.4730012 143.1494997 133.8399988  17.1150012 143.6064997 133.2959988
  15.6430012 143.2624997 133.3769988  16.4485963 143.2272704 133.7030177
  13.2210012 136.8304997 123.2519988  12.2820012 136.9424997 123.1009988
  13.5180012 137.6874997 123.5589988  13.1327583 136.9615981 123.2728337
  10.8420012 144.2004997 136.2899988  10.4970012 143.8194997 137.0969988
  10.6420012 145.1344997 136.3609988  10.7677527 144.2745135 136.4100689
  13.9390012 138.6974997 124.9129988  14.8310012 138.5604997 125.2319988
  13.9960012 139.4884997 124.3759988  14.0686504 138.7856052 124.8840818
   4.4480012 143.3114997 130.8229988   5.1930012 143.3094997 130.2219988
   4.5260012 142.4884997 131.3039988   4.5604995 143.1998887 130.8058282
   1.4560012 141.7724997 136.1379988   1.6790012 141.3544997 136.9699988
   0.8540012 141.1594997 135.7149988   1.4051759 141.6324668 136.1947022
   8.4720012 141.2894997 138.3509988   8.1760012 141.1234997 137.4559988
   9.4040012 141.0694997 138.3399988   8.5574166 141.2370640 138.2270536
  18.8240012 138.9074997 124.6079988  18.2700012 138.5114997 123.9359988
  18.9240012 139.8174997 124.3299988  18.7617059 138.9763586 124.4784401
  18.7870012 144.7074997 137.4449988  17.9360012 144.9454997 137.0779988
  19.3780012 144.6904997 136.6919988  18.7502487 144.7378258 137.2928893
  14.2800012 142.5014997 132.0939988  13.3510012 142.2694997 132.0669988
  14.7310012 141.7244997 131.7639988  14.2139216 142.3647238 132.0456917
   2.5780012 141.6914997 122.8139988   3.1940012 142.3184997 123.1939988
   1.7160012 142.0074997 123.0859988   2.5457698 141.8199430 122.9027183
   8.2500012 144.4924997 127.8029988   8.0090012 145.4174997 127.8449988
   7.5090012 144.0334997 128.1999988   8.1169225 144.5570933 127.8623742
  12.3090012 144.7404997 133.8189988  11.8830012 144.5134997 134.6459988
  12.8890012 144.0024997 133.6369988  12.3291868 144.6095299 133.9075830
   3.0900012 136.5254997 135.6959988   2.1970012 136.8644997 135.6279988
   2.9910012 135.6704997 136.1139988   2.9544164 136.4562588 135.7432235
  15.3780012 144.3424997 125.1199988  15.1000012 143.6144997 125.6759988
  16.3050012 144.4614997 125.3249988  15.4653124 144.2588802 125.2238845
   3.9930012 143.6044997 124.3069988   3.3070012 143.9564997 124.8739988
   4.5150012 144.3674997 124.0599988   3.9696852 143.7558578 124.3512118
  11.8240012 136.2664997 134.5859988  12.5230012 136.3404997 135.2359988
  11.4430012 135.4024997 134.7399988  11.8681767 136.1597624 134.6958322
  12.6090012 135.9184997 125.6829988  12.8290012 136.3904997 124.8799988
  13.1670012 136.3134997 126.3529988  12.7144968 136.0364285 125.6637331
   9.8090012 137.6464997 126.5179988  10.6210012 138.1514997 126.5639988
   9.5640012 137.5014997 127.4319988   9.8870520 137.6960375 126.6478517
  10.3440012 138.6324997 135.7019988  10.4630012 139.2064997 136.4599988
  11.0000012 137.9444997 135.8169988  10.4489025 138.6179858 135.8211321
  10.6920012 134.7274997 127.4559988  10.3460012 135.3454997 128.0999988
  11.3510012 135.2284997 126.9739988  10.7336968 134.8796278 127.4789383
   6.3500012 135.7904997 124.1429988   6.2670012 136.6794997 124.4899988
   7.2400012 135.5254997 124.3749988   6.4589469 135.8761430 124.2217626
  16.5490012 136.5394997 136.5369988  15.6320012 136.8024997 136.4499988
  16.8840012 136.5364997 135.6409988  16.4688613 136.5750761 136.4038837
  15.1510012 140.2904997 130.6329988  14.3530012 139.8754997 130.3049988
  15.5960012 139.5994997 131.1239988  15.1019885 140.1403543 130.6544889
   2.9250012 138.8824997 122.3199988   2.8800012 139.8214997 122.4979988
   2.0370012 138.6464997 122.0499988   2.7988574 138.9791892 122.3078912
   3.7330012 133.6644997 130.9929988   3.5040012 133.7234997 130.0649988
   3.2900012 132.8724997 131.2989988   3.6418530 133.5655753 130.9074786
   1.8580012 144.0274997 139.4369988   2.0020012 143.1254997 139.1509988
   1.0860012 144.3134997 138.9499988   1.7732753 143.9426816 139.3319505
   6.2000012 144.3714997 121.5699988   6.2640012 143.5774997 122.1009988
   6.8530012 144.2524997 120.8799988   6.2970241 144.2467148 121.5494317
   8.5140012 143.9974997 138.8699988   8.1850012 144.2684997 138.0129988
   8.6660012 143.0564997 138.7829988   8.4894809 143.9073862 138.7408244
  14.2480012 143.9134997 136.2529988  14.9940012 144.5014997 136.1339988
  13.4910012 144.4954997 136.3169988  14.2477820 144.0727143 136.2453590
   2.6910012 141.2274997 138.8569988   3.0990012 140.3704997 138.7359988
   2.4310012 141.2424997 139.7779988   2.7117568 141.1120807 138.9649588
   7.3490012 142.3434997 123.8759988   6.8890012 141.8594997 124.5619988
   7.6040012 141.6754997 123.2399988   7.3204902 142.1868731 123.8839334
   6.6380012 140.2364997 136.2319988   6.0200012 140.9114997 136.5119988
   6.9820012 140.5574997 135.3979988   6.5999132 140.3722411 136.1576262
   8.4200012 140.5864997 122.1379988   8.2400012 140.4324997 121.2109988
   9.3700012 140.6944997 122.1829988   8.5237776 140.5800175 122.0171843
  11.6580012 142.7084997 139.5089988  12.6110012 142.7914997 139.4819988
  11.4970012 141.9964997 140.1289988  11.7666426 142.6236746 139.5890579
  17.8100012 142.9414997 121.5839988  17.5360012 142.5164997 120.7709988
  17.8490012 143.8724997 121.3669988  17.7777699 143.0092484 121.4433610
   6.9770012 137.5914997 137.3139988   7.1270012 136.8624997 136.7119988
   6.9800012 138.3684997 136.7549988   6.9979302 137.5967851 137.1560692
   7.3900012 135.9614997 134.8069988   7.9260012 136.4124997 134.1549988
   6.5380012 135.8534997 134.3839988   7.3482178 136.0086390 134.6605756
   8.9720012 141.4004997 135.0459988   9.7220012 141.2444997 134.4729988
   8.6330012 142.2524997 134.7709988   9.0288921 141.4942968 134.9303561
  13.3870012 139.2154997 140.0749988  13.5800012 138.2844997 139.9629988
  14.2450012 139.6404997 140.0639988  13.5292934 139.1456531 140.0582031
  14.7040012 142.0044997 138.1519988  14.4230012 142.7134997 137.5739988
  15.6470012 141.9314997 138.0009988  14.7929291 142.0916711 138.0524967
   5.4560012 138.7894997 139.2259988   4.6890012 138.2574997 139.0149988
   6.1350012 138.4794997 138.6259988   5.4427877 138.6748300 139.1160716
   8.1960012 133.4174997 135.2379988   8.0970012 134.3644997 135.1329988
   7.4530012 133.0454997 134.7619988   8.0821184 133.4965863 135.1593621
   9.4600012 137.7394997 138.8019988   9.2240012 137.5194997 139.7029988
   8.6760012 137.5324997 138.2919988   9.3218504 137.6814586 138.8563431
  12.1750012 136.8664997 137.8769988  11.2280012 136.8984997 138.0099988
  12.4880012 136.2414997 138.5309988  12.0876707 136.7863998 137.9836060
  13.8090012 135.5004997 139.8829988  13.7130012 134.5484997 139.8769988
  13.4880012 135.7694997 140.7429988  13.7524070 135.4064035 139.9985441
   3.6360012 136.7104997 138.9299988   3.8480012 136.0034997 138.3199988
   3.5250012 136.2724997 139.7739988   3.6499721 136.5547084 138.9606843
   8.4170012 132.7114997 137.9089988   9.1290012 132.0714997 137.8949988
   8.3160012 132.9784997 136.9959988   8.5008066 132.6600079 137.7835677
   8.7710012 134.3944997 139.9629988   8.6390012 133.9184997 139.1429988
   8.1720012 135.1384997 139.9079988   8.6719071 134.4299618 139.8432886
  18.2680012 143.8104997 125.5589988  19.1180012 144.2314997 125.6859988
  18.2740012 143.0704997 126.1659988  18.3851372 143.7680803 125.6584344
  18.6630012 141.8634997 127.3819988  17.9360012 141.3844997 127.7799988
  19.2440012 142.0694997 128.1149988  18.6420473 141.8258103 127.5354528
  18.4220012 144.6484997 132.3299988  19.2550012 144.2704997 132.0499988
  18.5340012 145.5914997 132.2109988  18.5512647 144.7242218 132.2755487
  18.9310012 141.7644997 123.7739988  18.4090012 142.1214997 123.0549988
  18.8980012 142.4394997 124.4519988  18.8551634 141.9045413 123.7673145
  17.2800012 139.0044997 122.3239988  17.3760012 139.6714997 121.6439988
  17.1400012 138.1884997 121.8429988  17.2742272 138.9855655 122.1658347
  16.4490012 140.3844997 127.9449988  16.2990012 139.4394997 127.9249988
  16.0960012 140.6654997 128.7889988  16.3807448 140.2931481 128.0563705
   1.4850012 142.4624997 131.9559988   1.6690012 142.3804997 131.0199988
   2.3340012 142.3384997 132.3789988   1.6250151 142.4345073 131.8851451
  17.3060012 142.3544997 137.5839988  17.8890012 141.6204997 137.7759988
  17.8700012 143.1264997 137.6309988  17.4619769 142.3584227 137.6166159
  18.8020012 140.2574997 138.2689988  17.9390012 139.8784997 138.1029988
  19.4070012 139.5184997 138.1939988  18.7656119 140.1058268 138.2361528
  16.5270012 136.4124997 121.4419988  17.1380012 136.0414997 122.0789988
  15.6910012 135.9914997 121.6379988  16.4975032 136.3047554 121.5557035
  16.1600012 137.9674997 126.4079988  16.4400012 137.0604997 126.5319988
  16.9190012 138.4014997 126.0189988  16.3009277 137.9020942 126.3723682
  16.7720012 138.5484997 131.8439988  17.7050012 138.7604997 131.8089988
  16.5370012 138.6504997 132.7659988  16.8679244 138.5913100 131.9638892
  16.8010012 139.2854997 134.6199988  15.9580012 139.5534997 134.9859988
  17.2430012 140.1074997 134.4089988  16.7454158 139.4333291 134.6415491
   1.0820012 137.7334997 138.0969988   2.0020012 137.6114997 138.3329988
   0.6330012 136.9834997 138.4859988   1.1471580 137.6153727 138.1819006
  19.0840012 133.2654997 139.9729988  19.4340012 132.6114997 139.3679988
  19.2310012 134.1024997 139.5329988  19.1517887 133.2891548 139.8306858
  16.7730012 135.2304997 126.4559988  16.9560012 134.7814997 127.2819988
  16.1740012 134.6454997 125.9929988  16.7170202 135.0899975 126.5063275
   2.3030012 136.0454997 130.9879988   2.7490012 135.2534997 131.2899988
   2.7700012 136.7614997 131.4179988   2.4270831 136.0340685 131.0874006
   0.6070012 139.0444997 132.0569988   1.0990012 138.8234997 131.2659988
   0.9700012 139.8854997 132.3379988   0.7233126 139.1278357 131.9867531
  18.6040012 135.3744997 138.3219988  17.6860012 135.6454997 138.2869988
  18.7270012 134.8394997 137.5379988  18.4949729 135.3392508 138.2111923
  18.6400012 135.2974997 122.9839988  19.0520012 134.5764997 122.5089988
  19.3220012 135.9674997 123.0429988  18.7885885 135.2892368 122.9268915
   0.9210012 135.3024997 126.1109988  -0.0039988 135.5114997 125.9819988
   1.3750012 135.7864997 125.4209988   0.8557292 135.3965343 126.0000720
   0.8850012 134.0404997 134.4549988   0.2200012 133.7944997 135.0989988
   0.4420012 134.6624997 133.8779988   0.7341318 134.0909410 134.4650898
  17.6040012 133.4644997 136.1409988  16.7920012 133.7894997 135.7539988
  17.8370012 132.7044997 135.6079988  17.5242203 133.4062758 136.0158880
  11.0340012 134.9134997 130.4639988  10.3600012 134.2844997 130.7199988
  11.5980012 134.4294997 129.8609988  11.0179230 134.7618744 130.4175340
  16.1770012 133.0214997 130.5769988  16.7810012 133.5684997 130.0749988
  15.3070012 133.3404997 130.3359988  16.1421208 133.1395137 130.4756886
  17.9040012 134.1594997 128.9099988  18.5160012 133.6454997 128.3829988
  18.2860012 135.0374997 128.9329988  18.0393371 134.2077866 128.8410041
   3.3610012 133.5474997 128.2859988   2.5840012 133.3134997 127.7789988
   3.8910012 132.7504997 128.2949988   3.3262330 133.4076988 128.2177742
   2.1970012 133.3454997 124.0899988   2.6360012 133.9564997 123.4979988
   1.5640012 133.8834997 124.5639988   2.1714514 133.5019257 124.0730930
   7.9400012 133.4744997 128.0999988   8.8150012 133.8624997 128.0699988
   7.8040012 133.2594997 129.0219988   8.0413695 133.4985184 128.2206440
  13.4970012 133.5044997 129.7489988  13.5730012 133.5994997 128.7989988
  13.2220012 132.5964997 129.8779988  13.4702321 133.3947867 129.6365079
  14.8500012 133.5304997 125.4409988  14.1480012 134.1454997 125.2309988
  14.4060012 132.6924997 125.5719988  14.6936450 133.5015639 125.4299000
   4.0580012 135.2614997 122.5319988   4.5500012 134.6314997 122.0049988
   4.6820012 135.5574997 123.1949988   4.2095688 135.2153804 122.5495482
   9.0840012 135.5544997 124.9889988   9.2620012 134.9084997 125.6719988
   9.0310012 136.3884997 125.4559988   9.1011999 135.5788009 125.1455917
   3.3190012 134.0614997 137.8039988   2.9530012 133.2964997 138.2459988
   4.2320012 134.0904997 138.0899988   3.3922736 133.9605640 137.9032502
   5.2920012 133.4124997 139.3399988   6.1900012 133.1384997 139.1549988
   4.9050012 132.6694997 139.8039988   5.3626612 133.2745914 139.3773643
  13.7130012 132.7444997 139.5219988  13.7900012 132.3184997 140.3759988
  14.6070012 132.7584997 139.1789988  13.8443428 132.6880880 139.5925310
  31.2950012 142.7034997 128.2449988  31.3840012 143.6474997 128.1129988
  30.6570012 142.4284997 127.5869988  31.2209081 142.7954830 128.1379614
  30.2280012 141.9584997 131.6639988  30.1900012 141.3124997 132.3689988
  29.9060012 141.4924997 130.8929988  30.1792333 141.8069408 131.6562978
  22.5970012 141.5734997 133.2569988  22.6380012 140.9474997 133.9799988
  23.3000012 142.1974997 133.4389988  22.6976363 141.5721196 133.3806044
  33.9340012 144.8974997 129.9649988  33.4940012 144.1774997 130.4159988
  33.9210012 145.6184997 130.5949988  33.8720226 144.8963731 130.1118494
  20.1300012 139.6834997 127.1849988  19.6830012 140.5294997 127.1659988
  19.5690012 139.1034997 126.6689988  19.9929900 139.7209916 127.1126801
  20.8410012 141.8454997 129.3099988  21.0540012 141.0754997 129.8379988
  21.5790012 141.9344997 128.7069988  20.9699044 141.7521968 129.3007123
  28.6180012 144.3914997 132.0699988  28.9220012 143.7054997 131.4749988
  29.3390012 144.5094997 132.6879988  28.7570671 144.3136305 132.0721816
  37.2810012 135.9924997 132.9309988  37.3300012 136.6024997 133.6659988
  37.7060012 136.4534997 132.2079988  37.3451746 136.1383796 132.9339175
  31.7590012 138.7854997 132.3969988  31.9010012 137.8394997 132.4179988
  31.6520012 138.9924997 131.4689988  31.7639919 138.6838246 132.2743408
  24.9130012 136.8864997 129.6699988  24.9570012 137.7464997 129.2509988
  24.4560012 136.3344997 129.0359988  24.8572240 136.9294422 129.5269864
  32.6360012 137.0174997 128.0709988  33.2820012 136.6884997 128.6949988
  33.1460012 137.5354997 127.4479988  32.7934299 137.0424450 128.0722731
  21.5340012 139.2834997 130.4319988  22.1870012 138.7334997 130.8639988
  21.5580012 139.0094997 129.5149988  21.6266683 139.1711466 130.3672123
  26.6900012 140.8334997 129.6469988  27.3060012 140.3074997 130.1569988
  26.1040012 140.1934997 129.2439988  26.6950810 140.6749208 129.6623173
  37.6720012 137.4704997 135.1659988  36.9840012 138.1284997 135.0709988
  37.6880012 137.2734997 136.1029988  37.5799540 137.5339819 135.2795990
  23.7240012 135.8044997 133.7439988  23.5050012 136.3344997 132.9779988
  23.0560012 136.0314997 134.3909988  23.6037600 135.9076906 133.7266379
  26.2930012 143.4804997 134.0309988  25.5530012 144.0784997 134.1349988
  27.0070012 144.0344997 133.7159988  26.2882237 143.6372831 134.0026465
  34.4000012 136.3084997 130.0509988  34.1840012 135.5424997 130.5839988
  35.0550012 136.7804997 130.5639988  34.4590632 136.2675889 130.1932861
  23.3170012 137.6964997 131.6959988  23.9310012 138.3294997 132.0689988
  23.8290012 137.2244997 131.0399988  23.4701981 137.7192267 131.6582908
  34.7470012 135.0234997 133.7309988  34.0110012 135.6344997 133.6929988
  35.4300012 135.4384997 133.2039988  34.7386541 135.1631374 133.6545832
  27.7500012 133.1104997 131.1959988  27.6330012 132.1614997 131.1419988
  26.8950012 133.4424997 131.4699988  27.6184212 133.0255571 131.2256497
  35.5440012 144.9854997 135.9239988  35.6840012 144.3944997 135.1849988
  35.7110012 145.8584997 135.5679988  35.5857411 145.0225428 135.7746894
  30.0170012 141.9474997 125.6969988  29.3050012 142.4824997 125.3449988
  30.7080012 142.0034997 125.0369988  30.0130132 142.0282543 125.5596289
  30.0700012 140.4054997 122.7359988  30.7710012 140.4274997 123.3869988
  30.3730012 139.7774997 122.0789988  30.2068133 140.3237070 122.7363369
  37.3860012 141.3254997 133.9899988  36.7330012 142.0204997 134.0799988
  37.8510012 141.5354997 133.1809988  37.3595274 141.4490643 133.8928462
  33.4220012 142.1574997 126.6489988  32.6900012 142.3854997 127.2219988
  33.8700012 141.4434997 127.1029988  33.3822725 142.0922145 126.7888816
  33.3200012 140.3314997 135.7159988  33.4000012 141.0944997 136.2879988
  32.7180012 140.6104997 135.0259988  33.2495756 140.4737134 135.7010589
  25.0680012 142.7874997 128.5309988  24.7370012 142.4174997 127.7129988
  25.6560012 142.1174997 128.8779988  25.1021873 142.6461156 128.4658102
  25.4340012 141.5564997 132.1649988  26.0000012 141.6774997 131.4019988
  25.7530012 142.1934997 132.8029988  25.5545474 141.6592219 132.1469862
  32.2930012 141.3194997 124.3339988  32.8730012 141.4694997 125.0809988
  32.7070012 141.7904997 123.6099988  32.4282997 141.4036578 124.3384058
  23.2340012 142.1534997 136.1099988  23.3050012 142.8044997 136.8089988
  22.3440012 142.2564997 135.7749988  23.1233005 142.2565427 136.1603495
  35.9920012 133.0694997 124.1469988  35.0920012 133.2084997 124.4419988
  36.2440012 133.9004997 123.7449988  35.9028702 133.2009074 124.1330205
  24.0580012 141.8574997 126.1199988  23.7660012 142.6254997 125.6299988
  23.3840012 141.1974997 125.9579988  23.9268111 141.8735587 126.0308978
  20.1510012 144.2204997 134.9349988  19.6500012 144.1924997 134.1199988
  20.1560012 143.3144997 135.2449988  20.0830944 144.0942396 134.8653226
  35.2510012 139.1594997 137.9819988  34.8440012 139.6404997 137.2609988
  35.2920012 138.2544997 137.6739988  35.2008437 139.1029374 137.8416683
  25.0190012 134.0134997 131.9739988  24.1570012 133.9264997 131.5659988
  24.9960012 134.8694997 132.4019988  24.8980409 134.1172883 131.9760589
  29.6820012 133.7354997 135.3489988  30.1020012 133.3204997 136.1019988
  28.7490012 133.5574997 135.4659988  29.6133644 133.6545900 135.4679539
  33.0080012 137.4914997 136.2019988  32.4940012 137.3654997 136.9999988
  32.8530012 138.4034997 135.9579988  32.9166852 137.5976132 136.2782158
  33.7710012 142.3524997 121.9639988  33.8130012 142.1294997 121.0339988
  34.6200012 142.7514997 122.1529988  33.8915280 142.3759438 121.8623554
  29.3430012 136.2284997 122.6339988  29.0900012 136.2474997 123.5569988
  29.0870012 135.3564997 122.3319988  29.2737481 136.1132558 122.7196175
  25.1100012 138.9794997 133.0689988  24.4680012 138.9384997 133.7779988
  25.1470012 139.9054997 132.8309988  25.0270664 139.0991430 133.1339219
  25.1070012 139.2004997 127.9809988  24.2140012 138.8594997 127.9219988
  25.5570012 138.8234997 127.2249988  25.0458130 139.1029631 127.8707702
  30.6420012 139.6164997 126.7979988  30.2330012 140.4314997 126.5069988
  31.3630012 139.4764997 126.1839988  30.6834537 139.7092018 126.6751342
  29.7440012 139.7914997 138.2859988  29.1820012 139.0874997 138.6069988
  30.5710012 139.6714997 138.7539988  29.7787095 139.6787883 138.3932330
  31.6470012 139.0624997 129.6119988  31.4520012 139.6674997 128.8969988
  31.8280012 138.2284997 129.1779988  31.6447614 139.0326300 129.4554405
  22.8600012 139.2994997 134.9359988  22.8220012 139.6994997 135.8049988
  22.3690012 138.4824997 135.0269988  22.7884684 139.2438069 135.0671059
  26.2260012 136.6734997 121.7349988  25.7950012 136.2284997 122.4649988
  25.5080012 137.0454997 121.2229988  26.0699438 136.6628940 121.7656799
  19.4680012 136.4154997 128.7869988  20.0990012 136.3864997 129.5059988
  19.9170012 135.9904997 128.0559988  19.6150918 136.3540836 128.7866441
  20.7420012 137.1614997 124.2109988  21.2160012 137.7524997 123.6259988
  20.0250012 137.6924997 124.5579988  20.7099341 137.3140867 124.1778836
  30.9110012 140.7004997 134.2829988  31.2340012 140.0694997 133.6399988
  30.4710012 140.1654997 134.9439988  30.8957484 140.5418387 134.2843198
  27.6880012 136.6274997 129.0669988  26.7770012 136.6844997 129.3559988
  28.1940012 136.5674997 129.8779988  27.6316899 136.6271941 129.2161184
  22.5170012 138.2564997 127.8939988  21.6270012 138.3564997 127.5539988
  22.8130012 137.4144997 127.5479988  22.4352823 138.1563545 127.8007213
  26.1700012 138.2564997 125.5509988  27.1010012 138.3854997 125.7289988
  25.9550012 138.9264997 124.9009988  26.2684247 138.3646565 125.4875747
  32.0930012 135.8624997 132.3319988  31.4170012 135.9934997 132.9959988
  31.6080012 135.7074997 131.5209988  31.9347146 135.8595157 132.3134469
  24.8440012 139.4514997 123.1169988  24.3010012 139.0714997 122.4259988
  25.6770012 139.6454997 122.6889988  24.8823631 139.4257125 122.9644501
  22.9790012 144.0084997 138.2159988  23.7110012 144.2624997 138.7779988
  22.1990012 144.2124997 138.7319988  22.9737073 144.0708160 138.3626151
  29.0080012 139.4154997 130.9539988  29.5730012 138.8684997 130.4069988
  28.8610012 138.8934997 131.7429988  29.0653380 139.2702259 130.9858695
  24.0100012 135.5514997 127.3729988  23.6930012 134.6494997 127.3369988
  24.7920012 135.5534997 126.8199988  24.0722408 135.4282474 127.2933569
  27.6350012 137.8034997 133.3679988  26.7990012 138.2574997 133.4789988
  28.1590012 138.0794997 134.1199988  27.5915416 137.9028660 133.4848119
  28.1790012 144.0164997 125.0529988  27.4340012 143.5094997 124.7309988
  28.0450012 144.0654997 125.9999988  28.0588776 143.9536940 125.1368647
  35.3290012 143.1494997 133.8399988  35.9710012 143.6064997 133.2959988
  34.4990012 143.2624997 133.3769988  35.3045963 143.2272704 133.7030177
  32.0770012 136.8304997 123.2519988  31.1380012 136.9424997 123.1009988
  32.3740012 137.6874997 123.5589988  31.9887583 136.9615981 123.2728337
  29.6980012 144.2004997 136.2899988  29.3530012 143.8194997 137.0969988
  29.4980012 145.1344997 136.3609988  29.6237527 144.2745135 136.4100689
  32.7950012 138.6974997 124.9129988  33.6870012 138.5604997 125.2319988
  32.8520012 139.4884997 124.3759988  32.9246504 138.7856052 124.8840818
  23.3040012 143.3114997 130.8229988  24.0490012 143.3094997 130.2219988
  23.3820012 142.4884997 131.3039988  23.4164995 143.1998887 130.8058282
  20.3120012 141.7724997 136.1379988  20.5350012 141.3544997 136.9699988
  19.7100012 141.1594997 135.7149988  20.2611759 141.6324668 136.1947022
  27.3280012 141.2894997 138.3509988  27.0320012 141.1234997 137.4559988
  28.2600012 141.0694997 138.3399988  27.4134166 141.2370640 138.2270536
  37.6800012 138.9074997 124.6079988  37.1260012 138.5114997 123.9359988
  37.7800012 139.8174997 124.3299988  37.6177059 138.9763586 124.4784401
  37.6430012 144.7074997 137.4449988  36.7920012 144.9454997 137.0779988
  38.2340012 144.6904997 136.6919988  37.6062487 144.7378258 137.2928893
  33.1360012 142.5014997 132.0939988  32.2070012 142.2694997 132.0669988
  33.5870012 141.7244997 131.7639988  33.0699216 142.3647238 132.0456917
  21.4340012 141.6914997 122.8139988  22.0500012 142.3184997 123.1939988
  20.5720012 142.0074997 123.0859988  21.4017698 141.8199430 122.9027183
  27.1060012 144.4924997 127.8029988  26.8650012 145.4174997 127.8449988
  26.3650012 144.0334997 128.1999988  26.9729225 144.5570933 127.8623742
  31.1650012 144.7404997 133.8189988  30.7390012 144.5134997 134.6459988
  31.7450012 144.0024997 133.6369988  31.1851868 144.6095299 133.9075830
  21.9460012 136.5254997 135.6959988  21.0530012 136.8644997 135.6279988
  21.8470012 135.6704997 136.1139988  21.8104164 136.4562588 135.7432235
  34.2340012 144.3424997 125.1199988  33.9560012 143.6144997 125.6759988
  35.1610012 144.4614997 125.3249988  34.3213124 144.2588802 125.2238845
  22.8490012 143.6044997 124.3069988  22.1630012 143.9564997 124.8739988
  23.3710012 144.3674997 124.0599988  22.8256852 143.7558578 124.3512118
  30.6800012 136.2664997 134.5859988  31.3790012 136.3404997 135.2359988
  30.2990012 135.4024997 134.7399988  30.7241767 136.1597624 134.6958322
  31.4650012 135.9184997 125.6829988  31.6850012 136.3904997 124.8799988
  32.0230012 136.3134997 126.3529988  31.5704968 136.0364285 125.6637331
  28.6650012 137.6464997 126.5179988  29.4770012 138.1514997 126.5639988
  28.4200012 137.5014997 127.4319988  28.7430520 137.6960375 126.6478517
  29.2000012 138.6324997 135.7019988  29.3190012 139.2064997 136.4599988
  29.8560012 137.9444997 135.8169988  29.3049025 138.6179858 135.8211321
  29.5480012 134.7274997 127.4559988  29.2020012 135.3454997 128.0999988
  30.2070012 135.2284997 126.9739988  29.5896968 134.8796278 127.4789383
  25.2060012 135.7904997 124.1429988  25.1230012 136.6794997 124.4899988
  26.0960012 135.5254997 124.3749988  25.3149469 135.8761430 124.2217626
  35.4050012 136.5394997 136.5369988  34.4880012 136.8024997 136.4499988
  35.7400012 136.5364997 135.6409988  35.3248613 136.5750761 136.4038837
  34.0070012 140.2904997 130.6329988  33.2090012 139.8754997 130.3049988
  34.4520012 139.5994997 131.1239988  33.9579885 140.1403543 130.6544889
  21.7810012 138.8824997 122.3199988  21.7360012 139.8214997 122.4979988
  20.8930012 138.6464997 122.0499988  21.6548574 138.9791892 122.3078912
  22.5890012 133.6644997 130.9929988  22.3600012 133.7234997 130.0649988
  22.1460012 132.8724997 131.2989988  22.4978530 133.5655753 130.9074786
  20.7140012 144.0274997 139.4369988  20.8580012 143.1254997 139.1509988
  19.9420012 144.3134997 138.9499988  20.6292753 143.9426816 139.3319505
  25.0560012 144.3714997 121.5699988  25.1200012 143.5774997 122.1009988
  25.7090012 144.2524997 120.8799988  25.1530241 144.2467148 121.5494317
  27.3700012 143.9974997 138.8699988  27.0410012 144.2684997 138.0129988
  27.5220012 143.0564997 138.7829988  27.3454809 143.9073862 138.7408244
  33.1040012 143.9134997 136.2529988  33.8500012 144.5014997 136.1339988
  32.3470012 144.4954997 136.3169988  33.1037820 144.0727143 136.2453590
  21.5470012 141.2274997 138.8569988  21.9550012 140.3704997 138.7359988
  21.2870012 141.2424997 139.7779988  21.5677568 141.1120807 138.9649588
  26.2050012 142.3434997 123.8759988  25.7450012 141.8594997 124.5619988
  26.4600012 141.6754997 123.2399988  26.1764902 142.1868731 123.8839334
  25.4940012 140.2364997 136.2319988  24.8760012 140.9114997 136.5119988
  25.8380012 140.5574997 135.3979988  25.4559132 140.3722411 136.1576262
  27.2760012 140.5864997 122.1379988  27.0960012 140.4324997 121.2109988
  28.2260012 140.6944997 122.1829988  27.3797776 140.5800175 122.0171843
  30.5140012 142.7084997 139.5089988  31.4670012 142.7914997 139.4819988
  30.3530012 141.9964997 140.1289988  30.6226426 142.6236746 139.5890578
  36.6660012 142.9414997 121.5839988  36.3920012 142.5164997 120.7709988
  36.7050012 143.8724997 121.3669988  36.6337699 143.0092484 121.4433610
  25.8330012 137.5914997 137.3139988  25.9830012 136.8624997 136.7119988
  25.8360012 138.3684997 136.7549988  25.8539302 137.5967851 137.1560692
  26.2460012 135.9614997 134.8069988  26.7820012 136.4124997 134.1549988
  25.3940012 135.8534997 134.3839988  26.2042178 136.0086390 134.6605756
  27.8280012 141.4004997 135.0459988  28.5780012 141.2444997 134.4729988
  27.4890012 142.2524997 134.7709988  27.8848921 141.4942968 134.9303561
  32.2430012 139.2154997 140.0749988  32.4360012 138.2844997 139.9629988
  33.1010012 139.6404997 140.0639988  32.3852934 139.1456531 140.0582031
  33.5600012 142.0044997 138.1519988  33.2790012 142.7134997 137.5739988
  34.5030012 141.9314997 138.0009988  33.6489291 142.0916711 138.0524967
  24.3120012 138.7894997 139.2259988  23.5450012 138.2574997 139.0149988
  24.9910012 138.4794997 138.6259988  24.2987877 138.6748300 139.1160716
  27.0520012 133.4174997 135.2379988  26.9530012 134.3644997 135.1329988
  26.3090012 133.0454997 134.7619988  26.9381184 133.4965863 135.1593621
  28.3160012 137.7394997 138.8019988  28.0800012 137.5194997 139.7029988
  27.5320012 137.5324997 138.2919988  28.1778504 137.6814586 138.8563431
  31.0310012 136.8664997 137.8769988  30.0840012 136.8984997 138.0099988
  31.3440012 136.2414997 138.5309988  30.9436707 136.7863998 137.9836060
  32.6650012 135.5004997 139.8829988  32.5690012 134.5484997 139.8769988
  32.3440012 135.7694997 140.7429988  32.6084070 135.4064035 139.9985441
  22.4920012 136.7104997 138.9299988  22.7040012 136.0034997 138.3199988
  22.3810012 136.2724997 139.7739988  22.5059721 136.5547084 138.9606843
  27.2730012 132.7114997 137.9089988  27.9850012 132.0714997 137.8949988
  27.1720012 132.9784997 136.9959988  27.3568066 132.6600079 137.7835677
  27.6270012 134.3944997 139.9629988  27.4950012 133.9184997 139.1429988
  27.0280012 135.1384997 139.9079988  27.5279071 134.4299618 139.8432886
  37.1240012 143.8104997 125.5589988  37.9740012 144.2314997 125.6859988
  37.1300012 143.0704997 126.1659988  37.2411372 143.7680803 125.6584344
  37.5190012 141.8634997 127.3819988  36.7920012 141.3844997 127.7799988
  38.1000012 142.0694997 128.1149988  37.4980473 141.8258103 127.5354528
  37.2780012 144.6484997 132.3299988  38.1110012 144.2704997 132.0499988
  37.3900012 145.5914997 132.2109988  37.4072647 144.7242218 132.2755487
  37.7870012 141.7644997 123.7739988  37.2650012 142.1214997 123.0549988
  37.7540012 142.4394997 124.4519988  37.7111634 141.9045413 123.7673145
  36.1360012 139.0044997 122.3239988  36.2320012 139.6714997 121.6439988
  35.9960012 138.1884997 121.8429988  36.1302272 138.9855655 122.1658347
  35.3050012 140.3844997 127.9449988  35.1550012 139.4394997 127.9249988
  34.9520012 140.6654997 128.7889988  35.2367448 140.2931481 128.0563705
  20.3410012 142.4624997 131.9559988  20.5250012 142.3804997 131.0199988
  21.1900012 142.3384997 132.3789988  20.4810151 142.4345073 131.8851451
  36.1620012 142.3544997 137.5839988  36.7450012 141.6204997 137.7759988
  36.7260012 143.1264997 137.6309988  36.3179769 142.3584227 137.6166159
  37.6580012 140.2574997 138.2689988  36.7950012 139.8784997 138.1029988
  38.2630012 139.5184997 138.1939988  37.6216119 140.1058268 138.2361528
  35.3830012 136.4124997 121.4419988  35.9940012 136.0414997 122.0789988
  34.5470012 135.9914997 121.6379988  35.3535032 136.3047554 121.5557035
  35.0160012 137.9674997 126.4079988  35.2960012 137.0604997 126.5319988
  35.7750012 138.4014997 126.0189988  35.1569277 137.9020942 126.3723682
  35.6280012 138.5484997 131.8439988  36.5610012 138.7604997 131.8089988
  35.3930012 138.6504997 132.7659988  35.7239244 138.5913100 131.9638892
  35.6570012 139.2854997 134.6199988  34.8140012 139.5534997 134.9859988
  36.0990012 140.1074997 134.4089988  35.6014158 139.4333291 134.6415491
  19.9380012 137.7334997 138.0969988  20.8580012 137.6114997 138.3329988
  19.4890012 136.9834997 138.4859988  20.0031580 137.6153727 138.1819006
  37.9400012 133.2654997 139.9729988  38.2900012 132.6114997 139.3679988
  38.0870012 134.1024997 139.5329988  38.0077887 133.2891548 139.8306858
  35.6290012 135.2304997 126.4559988  35.8120012 134.7814997 127.2819988
  35.0300012 134.6454997 125.9929988  35.5730202 135.0899975 126.5063275
  21.1590012 136.0454997 130.9879988  21.6050012 135.2534997 131.2899988
  21.6260012 136.7614997 131.4179988  21.2830831 136.0340685 131.0874006
  19.4630012 139.0444997 132.0569988  19.9550012 138.8234997 131.2659988
  19.8260012 139.8854997 132.3379988  19.5793126 139.1278357 131.9867531
  37.4600012 135.3744997 138.3219988  36.5420012 135.6454997 138.2869988
  37.5830012 134.8394997 137.5379988  37.3509729 135.3392508 138.2111923
  37.4960012 135.2974997 122.9839988  37.9080012 134.5764997 122.5089988
  38.1780012 135.9674997 123.0429988  37.6445885 135.2892368 122.9268915
  19.7770012 135.3024997 126.1109988  18.8520012 135.5114997 125.9819988
  20.2310012 135.7864997 125.4209988  19.7117292 135.3965343 126.0000720
  19.7410012 134.0404997 134.4549988  19.0760012 133.7944997 135.0989988
  19.2980012 134.6624997 133.8779988  19.5901318 134.0909410 134.4650898
  36.4600012 133.4644997 136.1409988  35.6480012 133.7894997 135.7539988
  36.6930012 132.7044997 135.6079988  36.3802203 133.4062758 136.0158880
  29.8900012 134.9134997 130.4639988  29.2160012 134.2844997 130.7199988
  30.4540012 134.4294997 129.8609988  29.8739230 134.7618744 130.4175340
  35.0330012 133.0214997 130.5769988  35.6370012 133.5684997 130.0749988
  34.1630012 133.3404997 130.3359988  34.9981208 133.1395137 130.4756886
  36.7600012 134.1594997 128.9099988  37.3720012 133.6454997 128.3829988
  37.1420012 135.0374997 128.9329988  36.8953371 134.2077866 128.8410041
  22.2170012 133.5474997 128.2859988  21.4400012 133.3134997 127.7789988
  22.7470012 132.7504997 128.2949988  22.1822330 133.4076988 128.2177742
  21.0530012 133.3454997 124.0899988  21.4920012 133.9564997 123.4979988
  20.4200012 133.8834997 124.5639988  21.0274514 133.5019257 124.0730930
  26.7960012 133.4744997 128.0999988  27.6710012 133.8624997 128.0699988
  26.6600012 133.2594997 129.0219988  26.8973695 133.4985184 128.2206440
  32.3530012 133.5044997 129.7489988  32.4290012 133.5994997 128.7989988
  32.0780012 132.5964997 129.8779988  32.3262321 133.3947867 129.6365079
  33.7060012 133.5304997 125.4409988  33.0040012 134.1454997 125.2309988
  33.2620012 132.6924997 125.5719988  33.5496450 133.5015639 125.4299000
  22.9140012 135.2614997 122.5319988  23.4060012 134.6314997 122.0049988
  23.5380012 135.5574997 123.1949988  23.0655688 135.2153804 122.5495482
  27.9400012 135.5544997 124.9889988  28.1180012 134.9084997 125.6719988
  27.8870012 136.3884997 125.4559988  27.9571999 135.5788009 125.1455917
  22.1750012 134.0614997 137.8039988  21.8090012 133.2964997 138.2459988
  23.0880012 134.0904997 138.0899988  22.2482736 133.9605640 137.9032502
  24.1480012 133.4124997 139.3399988  25.0460012 133.1384997 139.1549988
  23.7610012 132.6694997 139.8039988  24.2186612 133.2745914 139.3773643
  32.5690012 132.7444997 139.5219988  32.6460012 132.3184997 140.3759988
  33.4630012 132.7584997 139.1789988  32.7003428 132.6880880 139.5925310
  50.1510012 142.7034997 128.2449988  50.2400012 143.6474997 128.1129988
  49.5130012 142.4284997 127.5869988  50.0769081 142.7954830 128.1379614
  49.0840012 141.9584997 131.6639988  49.0460012 141.3124997 132.3689988
  48.7620012 141.4924997 130.8929988  49.0352333 141.8069408 131.6562978
  41.4530012 141.5734997 133.2569988  41.4940012 140.9474997 133.9799988
  42.1560012 142.1974997 133.4389988  41.5536363 141.5721196 133.3806044
  52.7900012 144.8974997 129.9649988  52.3500012 144.1774997 130.4159988
  52.7770012 145.6184997 130.5949988  52.7280226 144.8963731 130.1118494
  38.9860012 139.6834997 127.1849988  38.5390012 140.5294997 127.1659988
  38.4250012 139.1034997 126.6689988  38.8489900 139.7209916 127.1126801
  39.6970012 141.8454997 129.3099988  39.9100012 141.0754997 129.8379988
  40.4350012 141.9344997 128.7069988  39.8259044 141.7521968 129.3007123
  47.4740012 144.3914997 132.0699988  47.7780012 143.7054997 131.4749988
  48.1950012 144.5094997 132.6879988  47.6130671 144.3136305 132.0721816
  56.1370012 135.9924997 132.9309988  56.1860012 136.6024997 133.6659988
  56.5620012 136.4534997 132.2079988  56.2011746 136.1383796 132.9339175
  50.6150012 138.7854997 132.3969988  50.7570012 137.8394997 132.4179988
  50.5080012 138.9924997 131.4689988  50.6199919 138.6838246 132.2743408
  43.7690012 136.8864997 129.6699988  43.8130012 137.7464997 129.2509988
  43.3120012 136.3344997 129.0359988  43.7132240 136.9294422 129.5269864
  51.4920012 137.0174997 128.0709988  52.1380012 136.6884997 128.6949988
  52.0020012 137.5354997 127.4479988  51.6494299 137.0424450 128.0722731
  40.3900012 139.2834997 130.4319988  41.0430012 138.7334997 130.8639988
  40.4140012 139.0094997 129.5149988  40.4826683 139.1711466 130.3672123
  45.5460012 140.8334997 129.6469988  46.1620012 140.3074997 130.1569988
  44.9600012 140.1934997 129.2439988  45.5510810 140.6749208 129.6623173
  56.5280012 137.4704997 135.1659988  55.8400012 138.1284997 135.0709988
  56.5440012 137.2734997 136.1029988  56.4359540 137.5339819 135.2795990
  42.5800012 135.8044997 133.7439988  42.3610012 136.3344997 132.9779988
  41.9120012 136.0314997 134.3909988  42.4597600 135.9076906 133.7266379
  45.1490012 143.4804997 134.0309988  44.4090012 144.0784997 134.1349988
  45.8630012 144.0344997 133.7159988  45.1442237 143.6372831 134.0026465
  53.2560012 136.3084997 130.0509988  53.0400012 135.5424997 130.5839988
  53.9110012 136.7804997 130.5639988  53.3150632 136.2675889 130.1932861
  42.1730012 137.6964997 131.6959988  42.7870012 138.3294997 132.0689988
  42.6850012 137.2244997 131.0399988  42.3261981 137.7192267 131.6582908
  53.6030012 135.0234997 133.7309988  52.8670012 135.6344997 133.6929988
  54.2860012 135.4384997 133.2039988  53.5946541 135.1631374 133.6545832
  46.6060012 133.1104997 131.1959988  46.4890012 132.1614997 131.1419988
  45.7510012 133.4424997 131.4699988  46.4744212 133.0255571 131.2256497
  54.4000012 144.9854997 135.9239988  54.5400012 144.3944997 135.1849988
  54.5670012 145.8584997 135.5679988  54.4417411 145.0225428 135.7746894
  48.8730012 141.9474997 125.6969988  48.1610012 142.4824997 125.3449988
  49.5640012 142.0034997 125.0369988  48.8690132 142.0282543 125.5596289
  48.9260012 140.4054997 122.7359988  49.6270012 140.4274997 123.3869988
  49.2290012 139.7774997 122.0789988  49.0628133 140.3237070 122.7363369
  56.2420012 141.3254997 133.9899988  55.5890012 142.0204997 134.0799988
  56.7070012 141.5354997 133.1809988  56.2155274 141.4490643 133.8928462
  52.2780012 142.1574997 126.6489988  51.5460012 142.3854997 127.2219988
  52.7260012 141.4434997 127.1029988  52.2382725 142.0922145 126.7888816
  52.1760012 140.3314997 135.7159988  52.2560012 141.0944997 136.2879988
  51.5740012 140.6104997 135.0259988  52.1055756 140.4737134 135.7010589
  43.9240012 142.7874997 128.5309988  43.5930012 142.4174997 127.7129988
  44.5120012 142.1174997 128.8779988  43.9581873 142.6461156 128.4658102
  44.2900012 141.5564997 132.1649988  44.8560012 141.6774997 131.4019988
  44.6090012 142.1934997 132.8029988  44.4105474 141.6592219 132.1469862
  51.1490012 141.3194997 124.3339988  51.7290012 141.4694997 125.0809988
  51.5630012 141.7904997 123.6099988  51.2842997 141.4036578 124.3384058
  42.0900012 142.1534997 136.1099988  42.1610012 142.8044997 136.8089988
  41.2000012 142.2564997 135.7749988  41.9793005 142.2565427 136.1603495
  54.8480012 133.0694997 124.1469988  53.9480012 133.2084997 124.4419988
  55.1000012 133.9004997 123.7449988  54.7588702 133.2009074 124.1330205
  42.9140012 141.8574997 126.1199988  42.6220012 142.6254997 125.6299988
  42.2400012 141.1974997 125.9579988  42.7828111 141.8735587 126.0308978
  39.0070012 144.2204997 134.9349988  38.5060012 144.1924997 134.1199988
  39.0120012 143.3144997 135.2449988  38.9390944 144.0942396 134.8653226
  54.1070012 139.1594997 137.9819988  53.7000012 139.6404997 137.2609988
  54.1480012 138.2544997 137.6739988  54.0568437 139.1029374 137.8416683
  43.8750012 134.0134997 131.9739988  43.0130012 133.9264997 131.5659988
  43.8520012 134.8694997 132.4019988  43.7540409 134.1172883 131.9760589
  48.5380012 133.7354997 135.3489988  48.9580012 133.3204997 136.1019988
  47.6050012 133.5574997 135.4659988  48.4693644 133.6545900 135.4679539
  51.8640012 137.4914997 136.2019988  51.3500012 137.3654997 136.9999988
  51.7090012 138.4034997 135.9579988  51.7726852 137.5976132 136.2782158
  52.6270012 142.3524997 121.9639988  52.6690012 142.1294997 121.0339988
  53.4760012 142.7514997 122.1529988  52.7475280 142.3759438 121.8623554
  48.1990012 136.2284997 122.6339988  47.9460012 136.2474997 123.5569988
  47.9430012 135.3564997 122.3319988  48.1297481 136.1132558 122.7196175
  43.9660012 138.9794997 133.0689988  43.3240012 138.9384997 133.7779988
  44.0030012 139.9054997 132.8309988  43.8830664 139.0991430 133.1339219
  43.9630012 139.2004997 127.9809988  43.0700012 138.8594997 127.9219988
  44.4130012 138.8234997 127.2249988  43.9018130 139.1029631 127.8707702
  49.4980012 139.6164997 126.7979988  49.0890012 140.4314997 126.5069988
  50.2190012 139.4764997 126.1839988  49.5394537 139.7092018 126.6751342
  48.6000012 139.7914997 138.2859988  48.0380012 139.0874997 138.6069988
  49.4270012 139.6714997 138.7539988  48.6347095 139.6787883 138.3932330
  50.5030012 139.0624997 129.6119988  50.3080012 139.6674997 128.8969988
  50.6840012 138.2284997 129.1779988  50.5007614 139.0326300 129.4554405
  41.7160012 139.2994997 134.9359988  41.6780012 139.6994997 135.8049988
  41.2250012 138.4824997 135.0269988  41.6444684 139.2438069 135.0671059
  45.0820012 136.6734997 121.7349988  44.6510012 136.2284997 122.4649988
  44.3640012 137.0454997 121.2229988  44.9259438 136.6628940 121.7656799
  38.3240012 136.4154997 128.7869988  38.9550012 136.3864997 129.5059988
  38.7730012 135.9904997 128.0559988  38.4710918 136.3540836 128.7866441
  39.5980012 137.1614997 124.2109988  40.0720012 137.7524997 123.6259988
  38.8810012 137.6924997 124.5579988  39.5659341 137.3140867 124.1778836
  49.7670012 140.7004997 134.2829988  50.0900012 140.0694997 133.6399988
  49.3270012 140.1654997 134.9439988  49.7517484 140.5418387 134.2843198
  46.5440012 136.6274997 129.0669988  45.6330012 136.6844997 129.3559988
  47.0500012 136.5674997 129.8779988  46.4876899 136.6271941 129.2161184
  41.3730012 138.2564997 127.8939988  40.4830012 138.3564997 127.5539988
  41.6690012 137.4144997 127.5479988  41.2912823 138.1563545 127.8007213
  45.0260012 138.2564997 125.5509988  45.9570012 138.3854997 125.7289988
  44.8110012 138.9264997 124.9009988  45.1244247 138.3646565 125.4875747
  50.9490012 135.8624997 132.3319988  50.2730012 135.9934997 132.9959988
  50.4640012 135.7074997 131.5209988  50.7907146 135.8595157 132.3134469
  43.7000012 139.4514997 123.1169988  43.1570012 139.0714997 122.4259988
  44.5330012 139.6454997 122.6889988  43.7383631 139.4257125 122.9644501
  41.8350012 144.0084997 138.2159988  42.5670012 144.2624997 138.7779988
  41.0550012 144.2124997 138.7319988  41.8297073 144.0708160 138.3626151
  47.8640012 139.4154997 130.9539988  48.4290012 138.8684997 130.4069988
  47.7170012 138.8934997 131.7429988  47.9213380 139.2702259 130.9858695
  42.8660012 135.5514997 127.3729988  42.5490012 134.6494997 127.3369988
  43.6480012 135.5534997 126.8199988  42.9282408 135.4282474 127.2933569
  46.4910012 137.8034997 133.3679988  45.6550012 138.2574997 133.4789988
  47.0150012 138.0794997 134.1199988  46.4475416 137.9028660 133.4848119
  47.0350012 144.0164997 125.0529988  46.2900012 143.5094997 124.7309988
  46.9010012 144.0654997 125.9999988  46.9148776 143.9536940 125.1368647
  54.1850012 143.1494997 133.8399988  54.8270012 143.6064997 133.2959988
  53.3550012 143.2624997 133.3769988  54.1605963 143.2272704 133.7030177
  50.9330012 136.8304997 123.2519988  49.9940012 136.9424997 123.1009988
  51.2300012 137.6874997 123.5589988  50.8447583 136.9615981 123.2728337
  48.5540012 144.2004997 136.2899988  48.2090012 143.8194997 137.0969988
  48.3540012 145.1344997 136.3609988  48.4797527 144.2745135 136.4100689
  51.6510012 138.6974997 124.9129988  52.5430012 138.5604997 125.2319988
  51.7080012 139.4884997 124.3759988  51.7806504 138.7856052 124.8840818
  42.1600012 143.3114997 130.8229988  42.9050012 143.3094997 130.2219988
  42.2380012 142.4884997 131.3039988  42.2724995 143.1998887 130.8058282
  39.1680012 141.7724997 136.1379988  39.3910012 141.3544997 136.9699988
  38.5660012 141.1594997 135.7149988  39.1171759 141.6324668 136.1947022
  46.1840012 141.2894997 138.3509988  45.8880012 141.1234997 137.4559988
  47.1160012 141.0694997 138.3399988  46.2694166 141.2370640 138.2270536
  56.5360012 138.9074997 124.6079988  55.9820012 138.5114997 123.9359988
  56.6360012 139.8174997 124.3299988  56.4737059 138.9763586 124.4784401
  56.4990012 144.7074997 137.4449988  55.6480012 144.9454997 137.0779988
  57.0900012 144.6904997 136.6919988  56.4622487 144.7378258 137.2928893
  51.9920012 142.5014997 132.0939988  51.0630012 142.2694997 132.0669988
  52.4430012 141.7244997 131.7639988  51.9259216 142.3647238 132.0456917
  40.2900012 141.6914997 122.8139988  40.9060012 142.3184997 123.1939988
  39.4280012 142.0074997 123.0859988  40.2577698 141.8199430 122.9027183
  45.9620012 144.4924997 127.8029988  45.7210012 145.4174997 127.8449988
  45.2210012 144.0334997 128.1999988  45.8289225 144.5570933 127.8623742
  50.0210012 144.7404997 133.8189988  49.5950012 144.5134997 134.6459988
  50.6010012 144.0024997 133.6369988  50.0411868 144.6095299 133.9075830
  40.8020012 136.5254997 135.6959988  39.9090012 136.8644997 135.6279988
  40.7030012 135.6704997 136.1139988  40.6664164 136.4562588 135.7432235
  53.0900012 144.3424997 125.1199988  52.8120012 143.6144997 125.6759988
  54.0170012 144.4614997 125.3249988  53.1773124 144.2588802 125.2238845
  41.7050012 143.6044997 124.3069988  41.0190012 143.9564997 124.8739988
  42.2270012 144.3674997 124.0599988  41.6816852 143.7558578 124.3512118
  49.5360012 136.2664997 134.5859988  50.2350012 136.3404997 135.2359988
  49.1550012 135.4024997 134.7399988  49.5801767 136.1597624 134.6958322
  50.3210012 135.9184997 125.6829988  50.5410012 136.3904997 124.8799988
  50.8790012 136.3134997 126.3529988  50.4264968 136.0364285 125.6637331
  47.5210012 137.6464997 126.5179988  48.3330012 138.1514997 126.5639988
  47.2760012 137.5014997 127.4319988  47.5990520 137.6960375 126.6478517
  48.0560012 138.6324997 135.7019988  48.1750012 139.2064997 136.4599988
  48.7120012 137.9444997 135.8169988  48.1609025 138.6179858 135.8211321
  48.4040012 134.7274997 127.4559988  48.0580012 135.3454997 128.0999988
  49.0630012 135.2284997 126.9739988  48.4456968 134.8796278 127.4789383
  44.0620012 135.7904997 124.1429988  43.9790012 136.6794997 124.4899988
  44.9520012 135.5254997 124.3749988  44.1709469 135.8761430 124.2217626
  54.2610012 136.5394997 136.5369988  53.3440012 136.8024997 136.4499988
  54.5960012 136.5364997 135.6409988  54.1808613 136.5750761 136.4038837
  52.8630012 140.2904997 130.6329988  52.0650012 139.8754997 130.3049988
  53.3080012 139.5994997 131.1239988  52.8139885 140.1403543 130.6544889
  40.6370012 138.8824997 122.3199988  40.5920012 139.8214997 122.4979988
  39.7490012 138.6464997 122.0499988  40.5108574 138.9791892 122.3078912
  41.4450012 133.6644997 130.9929988  41.2160012 133.7234997 130.0649988
  41.0020012 132.8724997 131.2989988  41.3538530 133.5655753 130.9074786
  39.5700012 144.0274997 139.4369988  39.7140012 143.1254997 139.1509988
  38.7980012 144.3134997 138.9499988  39.4852753 143.9426816 139.3319505
  43.9120012 144.3714997 121.5699988  43.9760012 143.5774997 122.1009988
  44.5650012 144.2524997 120.8799988  44.0090241 144.2467148 121.5494317
  46.2260012 143.9974997 138.8699988  45.8970012 144.2684997 138.0129988
  46.3780012 143.0564997 138.7829988  46.2014809 143.9073862 138.7408244
  51.9600012 143.9134997 136.2529988  52.7060012 144.5014997 136.1339988
  51.2030012 144.4954997 136.3169988  51.9597820 144.0727143 136.2453590
  40.4030012 141.2274997 138.8569988  40.8110012 140.3704997 138.7359988
  40.1430012 141.2424997 139.7779988  40.4237568 141.1120807 138.9649588
  45.0610012 142.3434997 123.8759988  44.6010012 141.8594997 124.5619988
  45.3160012 141.6754997 123.2399988  45.0324902 142.1868731 123.8839334
  44.3500012 140.2364997 136.2319988  43.7320012 140.9114997 136.5119988
  44.6940012 140.5574997 135.3979988  44.3119132 140.3722411 136.1576262
  46.1320012 140.5864997 122.1379988  45.9520012 140.4324997 121.2109988
  47.0820012 140.6944997 122.1829988  46.2357776 140.5800175 122.0171843
  49.3700012 142.7084997 139.5089988  50.3230012 142.7914997 139.4819988
  49.2090012 141.9964997 140.1289988  49.4786426 142.6236746 139.5890579
  55.5220012 142.9414997 121.5839988  55.2480012 142.5164997 120.7709988
  55.5610012 143.8724997 121.3669988  55.4897699 143.0092484 121.4433610
  44.6890012 137.5914997 137.3139988  44.8390012 136.8624997 136.7119988
  44.6920012 138.3684997 136.7549988  44.7099302 137.5967851 137.1560692
  45.1020012 135.9614997 134.8069988  45.6380012 136.4124997 134.1549988
  44.2500012 135.8534997 134.3839988  45.0602178 136.0086390 134.6605756
  46.6840012 141.4004997 135.0459988  47.4340012 141.2444997 134.4729988
  46.3450012 142.2524997 134.7709988  46.7408921 141.4942968 134.9303561
  51.0990012 139.2154997 140.0749988  51.2920012 138.2844997 139.9629988
  51.9570012 139.6404997 140.0639988  51.2412934 139.1456531 140.0582031
  52.4160012 142.0044997 138.1519988  52.1350012 142.7134997 137.5739988
  53.3590012 141.9314997 138.0009988  52.5049291 142.0916711 138.0524967
  43.1680012 138.7894997 139.2259988  42.4010012 138.2574997 139.0149988
  43.8470012 138.4794997 138.6259988  43.1547877 138.6748300 139.1160716
  45.9080012 133.4174997 135.2379988  45.8090012 134.3644997 135.1329988
  45.1650012 133.0454997 134.7619988  45.7941184 133.4965863 135.1593621
  47.1720012 137.7394997 138.8019988  46.9360012 137.5194997 139.7029988
  46.3880012 137.5324997 138.2919988  47.0338504 137.6814586 138.8563431
  49.8870012 136.8664997 137.8769988  48.9400012 136.8984997 138.0099988
  50.2000012 136.2414997 138.5309988  49.7996707 136.7863998 137.9836060
  51.5210012 135.5004997 139.8829988  51.4250012 134.5484997 139.8769988
  51.2000012 135.7694997 140.7429988  51.4644070 135.4064035 139.9985441
  41.3480012 136.7104997 138.9299988  41.5600012 136.0034997 138.3199988
  41.2370012 136.2724997 139.7739988  41.3619721 136.5547084 138.9606843
  46.1290012 132.7114997 137.9089988  46.8410012 132.0714997 137.8949988
  46.0280012 132.9784997 136.9959988  46.2128066 132.6600079 137.7835677
  46.4830012 134.3944997 139.9629988  46.3510012 133.9184997 139.1429988
  45.8840012 135.1384997 139.9079988  46.3839071 134.4299618 139.8432886
  55.9800012 143.8104997 125.5589988  56.8300012 144.2314997 125.6859988
  55.9860012 143.0704997 126.1659988  56.0971372 143.7680803 125.6584344
  56.3750012 141.8634997 127.3819988  55.6480012 141.3844997 127.7799988
  56.9560012 142.0694997 128.1149988  56.3540473 141.8258103 127.5354528
  56.1340012 144.6484997 132.3299988  56.9670012 144.2704997 132.0499988
  56.2460012 145.5914997 132.2109988  56.2632647 144.7242218 132.2755487
  56.6430012 141.7644997 123.7739988  56.1210012 142.1214997 123.0549988
  56.6100012 142.4394997 124.4519988  56.5671634 141.9045413 123.7673145
  54.9920012 139.0044997 122.3239988  55.0880012 139.6714997 121.6439988
  54.8520012 138.1884997 121.8429988  54.9862272 138.9855655 122.1658347
  54.1610012 140.3844997 127.9449988  54.0110012 139.4394997 127.9249988
  53.8080012 140.6654997 128.7889988  54.0927448 140.2931481 128.0563705
  39.1970012 142.4624997 131.9559988  39.3810012 142.3804997 131.0199988
  40.0460012 142.3384997 132.3789988  39.3370151 142.4345073 131.8851451
  55.0180012 142.3544997 137.5839988  55.6010012 141.6204997 137.7759988
  55.5820012 143.1264997 137.6309988  55.1739769 142.3584227 137.6166159
  56.5140012 140.2574997 138.2689988  55.6510012 139.8784997 138.1029988
  57.1190012 139.5184997 138.1939988  56.4776119 140.1058268 138.2361528
  54.2390012 136.4124997 121.4419988  54.8500012 136.0414997 122.0789988
  53.4030012 135.9914997 121.6379988  54.2095032 136.3047554 121.5557035
  53.8720012 137.9674997 126.4079988  54.1520012 137.0604997 126.5319988
  54.6310012 138.4014997 126.0189988  54.0129277 137.9020942 126.3723682
  54.4840012 138.5484997 131.8439988  55.4170012 138.7604997 131.8089988
  54.2490012 138.6504997 132.7659988  54.5799244 138.5913100 131.9638892
  54.5130012 139.2854997 134.6199988  53.6700012 139.5534997 134.9859988
  54.9550012 140.1074997 134.4089988  54.4574158 139.4333291 134.6415491
  38.7940012 137.7334997 138.0969988  39.7140012 137.6114997 138.3329988
  38.3450012 136.9834997 138.4859988  38.8591580 137.6153727 138.1819006
  56.7960012 133.2654997 139.9729988  57.1460012 132.6114997 139.3679988
  56.9430012 134.1024997 139.5329988  56.8637887 133.2891548 139.8306858
  54.4850012 135.2304997 126.4559988  54.6680012 134.7814997 127.2819988
  53.8860012 134.6454997 125.9929988  54.4290202 135.0899975 126.5063275
  40.0150012 136.0454997 130.9879988  40.4610012 135.2534997 131.2899988
  40.4820012 136.7614997 131.4179988  40.1390831 136.0340685 131.0874006
  38.3190012 139.0444997 132.0569988  38.8110012 138.8234997 131.2659988
  38.6820012 139.8854997 132.3379988  38.4353126 139.1278357 131.9867531
  56.3160012 135.3744997 138.3219988  55.3980012 135.6454997 138.2869988
  56.4390012 134.8394997 137.5379988  56.2069729 135.3392508 138.2111923
  56.3520012 135.2974997 122.9839988  56.7640012 134.5764997 122.5089988
  57.0340012 135.9674997 123.0429988  56.5005885 135.2892368 122.9268915
  38.6330012 135.3024997 126.1109988  37.7080012 135.5114997 125.9819988
  39.0870012 135.7864997 125.4209988  38.5677292 135.3965343 126.0000720
  38.5970012 134.0404997 134.4549988  37.9320012 133.7944997 135.0989988
  38.1540012 134.6624997 133.8779988  38.4461318 134.0909410 134.4650898
  55.3160012 133.4644997 136.1409988  54.5040012 133.7894997 135.7539988
  55.5490012 132.7044997 135.6079988  55.2362203 133.4062758 136.0158880
  48.7460012 134.9134997 130.4639988  48.0720012 134.2844997 130.7199988
  49.3100012 134.4294997 129.8609988  48.7299230 134.7618744 130.4175340
  53.8890012 133.0214997 130.5769988  54.4930012 133.5684997 130.0749988
  53.0190012 133.3404997 130.3359988  53.8541208 133.1395137 130.4756886
  55.6160012 134.1594997 128.9099988  56.2280012 133.6454997 128.3829988
  55.9980012 135.0374997 128.9329988  55.7513371 134.2077866 128.8410041
  41.0730012 133.5474997 128.2859988  40.2960012 133.3134997 127.7789988
  41.6030012 132.7504997 128.2949988  41.0382330 133.4076988 128.2177742
  39.9090012 133.3454997 124.0899988  40.3480012 133.9564997 123.4979988
  39.2760012 133.8834997 124.5639988  39.8834514 133.5019257 124.0730930
  45.6520012 133.4744997 128.0999988  46.5270012 133.8624997 128.0699988
  45.5160012 133.2594997 129.0219988  45.7533695 133.4985184 128.2206440
  51.2090012 133.5044997 129.7489988  51.2850012 133.5994997 128.7989988
  50.9340012 132.5964997 129.8779988  51.1822321 133.3947867 129.6365079
  52.5620012 133.5304997 125.4409988  51.8600012 134.1454997 125.2309988
  52.1180012 132.6924997 125.5719988  52.4056450 133.5015639 125.4299000
  41.7700012 135.2614997 122.5319988  42.2620012 134.6314997 122.0049988
  42.3940012 135.5574997 123.1949988  41.9215688 135.2153804 122.5495482
  46.7960012 135.5544997 124.9889988  46.9740012 134.9084997 125.6719988
  46.7430012 136.3884997 125.4559988  46.8131999 135.5788009 125.1455917
  41.0310012 134.0614997 137.8039988  40.6650012 133.2964997 138.2459988
  41.9440012 134.0904997 138.0899988  41.1042736 133.9605640 137.9032502
  43.0040012 133.4124997 139.3399988  43.9020012 133.1384997 139.1549988
  42.6170012 132.6694997 139.8039988  43.0746612 133.2745914 139.3773643
  51.4250012 132.7444997 139.5219988  51.5020012 132.3184997 140.3759988
  52.3190012 132.7584997 139.1789988  51.5563428 132.6880880 139.5925310
  69.0070012 142.7034997 128.2449988  69.0960012 143.6474997 128.1129988
  68.3690012 142.4284997 127.5869988  68.9329081 142.7954830 128.1379614
  67.9400012 141.9584997 131.6639988  67.9020012 141.3124997 132.3689988
  67.6180012 141.4924997 130.8929988  67.8912333 141.8069408 131.6562978
  60.3090012 141.5734997 133.2569988  60.3500012 140.9474997 133.9799988
  61.0120012 142.1974997 133.4389988  60.4096363 141.5721196 133.3806044
  71.6460012 144.8974997 129.9649988  71.2060012 144.1774997 130.4159988
  71.6330012 145.6184997 130.5949988  71.5840226 144.8963731 130.1118494
  57.8420012 139.6834997 127.1849988  57.3950012 140.5294997 127.1659988
  57.2810012 139.1034997 126.6689988  57.7049900 139.7209916 127.1126801
  58.5530012 141.8454997 129.3099988  58.7660012 141.0754997 129.8379988
  59.2910012 141.9344997 128.7069988  58.6819044 141.7521968 129.3007123
  66.3300012 144.3914997 132.0699988  66.6340012 143.7054997 131.4749988
  67.0510012 144.5094997 132.6879988  66.4690671 144.3136305 132.0721816
  74.9930012 135.9924997 132.9309988  75.0420012 136.6024997 133.6659988
  75.4180012 136.4534997 132.2079988  75.0571746 136.1383796 132.9339175
  69.4710012 138.7854997 132.3969988  69.6130012 137.8394997 132.4179988
  69.3640012 138.9924997 131.4689988  69.4759919 138.6838246 132.2743408
  62.6250012 136.8864997 129.6699988  62.6690012 137.7464997 129.2509988
  62.1680012 136.3344997 129.0359988  62.5692240 136.9294422 129.5269864
  70.3480012 137.0174997 128.0709988  70.9940012 136.6884997 128.6949988
  70.8580012 137.5354997 127.4479988  70.5054299 137.0424450 128.0722731
  59.2460012 139.2834997 130.4319988  59.8990012 138.7334997 130.8639988
  59.2700012 139.0094997 129.5149988  59.3386683 139.1711466 130.3672123
  64.4020012 140.8334997 129.6469988  65.0180012 140.3074997 130.1569988
  63.8160012 140.1934997 129.2439988  64.4070810 140.6749208 129.6623173
  75.3840012 137.4704997 135.1659988  74.6960012 138.1284997 135.0709988
  75.4000012 137.2734997 136.1029988  75.2919540 137.5339819 135.2795990
  61.4360012 135.8044997 133.7439988  61.2170012 136.3344997 132.9779988
  60.7680012 136.0314997 134.3909988  61.3157600 135.9076906 133.7266379
  64.0050012 143.4804997 134.0309988  63.2650012 144.0784997 134.1349988
  64.7190012 144.0344997 133.7159988  64.0002237 143.6372831 134.0026465
  72.1120012 136.3084997 130.0509988  71.8960012 135.5424997 130.5839988
  72.7670012 136.7804997 130.5639988  72.1710632 136.2675889 130.1932861
  61.0290012 137.6964997 131.6959988  61.6430012 138.3294997 132.0689988
  61.5410012 137.2244997 131.0399988  61.1821981 137.7192267 131.6582908
  72.4590012 135.0234997 133.7309988  71.7230012 135.6344997 133.6929988
  73.1420012 135.4384997 133.2039988  72.4506541 135.1631374 133.6545832
  65.4620012 133.1104997 131.1959988  65.3450012 132.1614997 131.1419988
  64.6070012 133.4424997 131.4699988  65.3304212 133.0255571 131.2256497
  73.2560012 144.9854997 135.9239988  73.3960012 144.3944997 135.1849988
  73.4230012 145.8584997 135.5679988  73.2977411 145.0225428 135.7746894
  67.7290012 141.9474997 125.6969988  67.0170012 142.4824997 125.3449988
  68.4200012 142.0034997 125.0369988  67.7250132 142.0282543 125.5596289
  67.7820012 140.4054997 122.7359988  68.4830012 140.4274997 123.3869988
  68.0850012 139.7774997 122.0789988  67.9188133 140.3237070 122.7363369
  75.0980012 141.3254997 133.9899988  74.4450012 142.0204997 134.0799988
  75.5630012 141.5354997 133.1809988  75.0715274 141.4490643 133.8928462
  71.1340012 142.1574997 126.6489988  70.4020012 142.3854997 127.2219988
  71.5820012 141.4434997 127.1029988  71.0942725 142.0922145 126.7888816
  71.0320012 140.3314997 135.7159988  71.1120012 141.0944997 136.2879988
  70.4300012 140.6104997 135.0259988  70.9615756 140.4737134 135.7010589
  62.7800012 142.7874997 128.5309988  62.4490012 142.4174997 127.7129988
  63.3680012 142.1174997 128.8779988  62.8141873 142.6461156 128.4658102
  63.1460012 141.5564997 132.1649988  63.7120012 141.6774997 131.4019988
  63.4650012 142.1934997 132.8029988  63.2665474 141.6592219 132.1469862
  70.0050012 141.3194997 124.3339988  70.5850012 141.4694997 125.0809988
  70.4190012 141.7904997 123.6099988  70.1402997 141.4036578 124.3384058
  60.9460012 142.1534997 136.1099988  61.0170012 142.8044997 136.8089988
  60.0560012 142.2564997 135.7749988  60.8353005 142.2565427 136.1603495
  73.7040012 133.0694997 124.1469988  72.8040012 133.2084997 124.4419988
  73.9560012 133.9004997 123.7449988  73.6148702 133.2009074 124.1330205
  61.7700012 141.8574997 126.1199988  61.4780012 142.6254997 125.6299988
  61.0960012 141.1974997 125.9579988  61.6388111 141.8735587 126.0308978
  57.8630012 144.2204997 134.9349988  57.3620012 144.1924997 134.1199988
  57.8680012 143.3144997 135.2449988  57.7950944 144.0942396 134.8653226
  72.9630012 139.1594997 137.9819988  72.5560012 139.6404997 137.2609988
  73.0040012 138.2544997 137.6739988  72.9128437 139.1029374 137.8416683
  62.7310012 134.0134997 131.9739988  61.8690012 133.9264997 131.5659988
  62.7080012 134.8694997 132.4019988  62.6100409 134.1172883 131.9760589
  67.3940012 133.7354997 135.3489988  67.8140012 133.3204997 136.1019988
  66.4610012 133.5574997 135.4659988  67.3253644 133.6545900 135.4679539
  70.7200012 137.4914997 136.2019988  70.2060012 137.3654997 136.9999988
  70.5650012 138.4034997 135.9579988  70.6286852 137.5976132 136.2782158
  71.4830012 142.3524997 121.9639988  71.5250012 142.1294997 121.0339988
  72.3320012 142.7514997 122.1529988  71.6035280 142.3759438 121.8623554
  67.0550012 136.2284997 122.6339988  66.8020012 136.2474997 123.5569988
  66.7990012 135.3564997 122.3319988  66.9857481 136.1132558 122.7196175
  62.8220012 138.9794997 133.0689988  62.1800012 138.9384997 133.7779988
  62.8590012 139.9054997 132.8309988  62.7390664 139.0991430 133.1339219
  62.8190012 139.2004997 127.9809988  61.9260012 138.8594997 127.9219988
  63.2690012 138.8234997 127.2249988  62.7578130 139.1029631 127.8707702
  68.3540012 139.6164997 126.7979988  67.9450012 140.4314997 126.5069988
  69.0750012 139.4764997 126.1839988  68.3954537 139.7092018 126.6751342
  67.4560012 139.7914997 138.2859988  66.8940012 139.0874997 138.6069988
  68.2830012 139.6714997 138.7539988  67.4907095 139.6787883 138.3932330
  69.3590012 139.0624997 129.6119988  69.1640012 139.6674997 128.8969988
  69.5400012 138.2284997 129.1779988  69.3567614 139.0326300 129.4554405
  60.5720012 139.2994997 134.9359988  60.5340012 139.6994997 135.8049988
  60.0810012 138.4824997 135.0269988  60.5004684 139.2438069 135.0671059
  63.9380012 136.6734997 121.7349988  63.5070012 136.2284997 122.4649988
  63.2200012 137.0454997 121.2229988  63.7819438 136.6628940 121.7656799
  57.1800012 136.4154997 128.7869988  57.8110012 136.3864997 129.5059988
  57.6290012 135.9904997 128.0559988  57.3270918 136.3540836 128.7866441
  58.4540012 137.1614997 124.2109988  58.9280012 137.7524997 123.6259988
  57.7370012 137.6924997 124.5579988  58.4219341 137.3140867 124.1778836
  68.6230012 140.7004997 134.2829988  68.9460012 140.0694997 133.6399988
  68.1830012 140.1654997 134.9439988  68.6077484 140.5418387 134.2843198
  65.4000012 136.6274997 129.0669988  64.4890012 136.6844997 129.3559988
  65.9060012 136.5674997 129.8779988  65.3436899 136.6271941 129.2161184
  60.2290012 138.2564997 127.8939988  59.3390012 138.3564997 127.5539988
  60.5250012 137.4144997 127.5479988  60.1472823 138.1563545 127.8007213
  63.8820012 138.2564997 125.5509988  64.8130012 138.3854997 125.7289988
  63.6670012 138.9264997 124.9009988  63.9804247 138.3646565 125.4875747
  69.8050012 135.8624997 132.3319988  69.1290012 135.9934997 132.9959988
  69.3200012 135.7074997 131.5209988  69.6467146 135.8595157 132.3134469
  62.5560012 139.4514997 123.1169988  62.0130012 139.0714997 122.4259988
  63.3890012 139.6454997 122.6889988  62.5943631 139.4257125 122.9644501
  60.6910012 144.0084997 138.2159988  61.4230012 144.2624997 138.7779988
  59.9110012 144.2124997 138.7319988  60.6857073 144.0708160 138.3626151
  66.7200012 139.4154997 130.9539988  67.2850012 138.8684997 130.4069988
  66.5730012 138.8934997 131.7429988  66.7773380 139.2702259 130.9858695
  61.7220012 135.5514997 127.3729988  61.4050012 134.6494997 127.3369988
  62.5040012 135.5534997 126.8199988  61.7842408 135.4282474 127.2933569
  65.3470012 137.8034997 133.3679988  64.5110012 138.2574997 133.4789988
  65.8710012 138.0794997 134.1199988  65.3035416 137.9028660 133.4848119
  65.8910012 144.0164997 125.0529988  65.1460012 143.5094997 124.7309988
  65.7570012 144.0654997 125.9999988  65.7708776 143.9536940 125.1368647
  73.0410012 143.1494997 133.8399988  73.6830012 143.6064997 133.2959988
  72.2110012 143.2624997 133.3769988  73.0165963 143.2272704 133.7030177
  69.7890012 136.8304997 123.2519988  68.8500012 136.9424997 123.1009988
  70.0860012 137.6874997 123.5589988  69.7007583 136.9615981 123.2728337
  67.4100012 144.2004997 136.2899988  67.0650012 143.8194997 137.0969988
  67.2100012 145.1344997 136.3609988  67.3357527 144.2745135 136.4100689
  70.5070012 138.6974997 124.9129988  71.3990012 138.5604997 125.2319988
  70.5640012 139.4884997 124.3759988  70.6366504 138.7856052 124.8840818
  61.0160012 143.3114997 130.8229988  61.7610012 143.3094997 130.2219988
  61.0940012 142.4884997 131.3039988  61.1284995 143.1998887 130.8058282
  58.0240012 141.7724997 136.1379988  58.2470012 141.3544997 136.9699988
  57.4220012 141.1594997 135.7149988  57.9731759 141.6324668 136.1947022
  65.0400012 141.2894997 138.3509988  64.7440012 141.1234997 137.4559988
  65.9720012 141.0694997 138.3399988  65.1254166 141.2370640 138.2270536
  75.3920012 138.9074997 124.6079988  74.8380012 138.5114997 123.9359988
  75.4920012 139.8174997 124.3299988  75.3297059 138.9763586 124.4784401
  75.3550012 144.7074997 137.4449988  74.5040012 144.9454997 137.0779988
  75.9460012 144.6904997 136.6919988  75.3182487 144.7378258 137.2928893
  70.8480012 142.5014997 132.0939988  69.9190012 142.2694997 132.0669988
  71.2990012 141.7244997 131.7639988  70.7819216 142.3647238 132.0456917
  59.1460012 141.6914997 122.8139988  59.7620012 142.3184997 123.1939988
  58.2840012 142.0074997 123.0859988  59.1137698 141.8199430 122.9027183
  64.8180012 144.4924997 127.8029988  64.5770012 145.4174997 127.8449988
  64.0770012 144.0334997 128.1999988  64.6849225 144.5570933 127.8623742
  68.8770012 144.7404997 133.8189988  68.4510012 144.5134997 134.6459988
  69.4570012 144.0024997 133.6369988  68.8971868 144.6095299 133.9075830
  59.6580012 136.5254997 135.6959988  58.7650012 136.8644997 135.6279988
  59.5590012 135.6704997 136.1139988  59.5224164 136.4562588 135.7432235
  71.9460012 144.3424997 125.1199988  71.6680012 143.6144997 125.6759988
  72.8730012 144.4614997 125.3249988  72.0333124 144.2588802 125.2238845
  60.5610012 143.6044997 124.3069988  59.8750012 143.9564997 124.8739988
  61.0830012 144.3674997 124.0599988  60.5376852 143.7558578 124.3512118
  68.3920012 136.2664997 134.5859988  69.0910012 136.3404997 135.2359988
  68.0110012 135.4024997 134.7399988  68.4361767 136.1597624 134.6958322
  69.1770012 135.9184997 125.6829988  69.3970012 136.3904997 124.8799988
  69.7350012 136.3134997 126.3529988  69.2824968 136.0364285 125.6637331
  66.3770012 137.6464997 126.5179988  67.1890012 138.1514997 126.5639988
  66.1320012 137.5014997 127.4319988  66.4550520 137.6960375 126.6478517
  66.9120012 138.6324997 135.7019988  67.0310012 139.2064997 136.4599988
  67.5680012 137.9444997 135.8169988  67.0169025 138.6179858 135.8211321
  67.2600012 134.7274997 127.4559988  66.9140012 135.3454997 128.0999988
  67.9190012 135.2284997 126.9739988  67.3016968 134.8796278 127.4789383
  62.9180012 135.7904997 124.1429988  62.8350012 136.6794997 124.4899988
  63.8080012 135.5254997 124.3749988  63.0269469 135.8761430 124.2217626
  73.1170012 136.5394997 136.5369988  72.2000012 136.8024997 136.4499988
  73.4520012 136.5364997 135.6409988  73.0368613 136.5750761 136.4038837
  71.7190012 140.2904997 130.6329988  70.9210012 139.8754997 130.3049988
  72.1640012 139.5994997 131.1239988  71.6699885 140.1403543 130.6544889
  59.4930012 138.8824997 122.3199988  59.4480012 139.8214997 122.4979988
  58.6050012 138.6464997 122.0499988  59.3668574 138.9791892 122.3078912
  60.3010012 133.6644997 130.9929988  60.0720012 133.7234997 130.0649988
  59.8580012 132.8724997 131.2989988  60.2098530 133.5655753 130.9074786
  58.4260012 144.0274997 139.4369988  58.5700012 143.1254997 139.1509988
  57.6540012 144.3134997 138.9499988  58.3412753 143.9426816 139.3319505
  62.7680012 144.3714997 121.5699988  62.8320012 143.5774997 122.1009988
  63.4210012 144.2524997 120.8799988  62.8650241 144.2467148 121.5494317
  65.0820012 143.9974997 138.8699988  64.7530012 144.2684997 138.0129988
  65.2340012 143.0564997 138.7829988  65.0574809 143.9073862 138.7408244
  70.8160012 143.9134997 136.2529988  71.5620012 144.5014997 136.1339988
  70.0590012 144.4954997 136.3169988  70.8157820 144.0727143 136.2453590
  59.2590012 141.2274997 138.8569988  59.6670012 140.3704997 138.7359988
  58.9990012 141.2424997 139.7779988  59.2797568 141.1120807 138.9649588
  63.9170012 142.3434997 123.8759988  63.4570012 141.8594997 124.5619988
  64.1720012 141.6754997 123.2399988  63.8884902 142.1868731 123.8839334
  63.2060012 140.2364997 136.2319988  62.5880012 140.9114997 136.5119988
  63.5500012 140.5574997 135.3979988  63.1679132 140.3722411 136.1576262
  64.9880012 140.5864997 122.1379988  64.8080012 140.4324997 121.2109988
  65.9380012 140.6944997 122.1829988  65.0917776 140.5800175 122.0171843
  68.2260012 142.7084997 139.5089988  69.1790012 142.7914997 139.4819988
  68.0650012 141.9964997 140.1289988  68.3346426 142.6236746 139.5890579
  74.3780012 142.9414997 121.5839988  74.1040012 142.5164997 120.7709988
  74.4170012 143.8724997 121.3669988  74.3457699 143.0092484 121.4433610
  63.5450012 137.5914997 137.3139988  63.6950012 136.8624997 136.7119988
  63.5480012 138.3684997 136.7549988  63.5659302 137.5967851 137.1560692
  63.9580012 135.9614997 134.8069988  64.4940012 136.4124997 134.1549988
  63.1060012 135.8534997 134.3839988  63.9162178 136.0086390 134.6605756
  65.5400012 141.4004997 135.0459988  66.2900012 141.2444997 134.4729988
  65.2010012 142.2524997 134.7709988  65.5968921 141.4942968 134.9303561
  69.9550012 139.2154997 140.0749988  70.1480012 138.2844997 139.9629988
  70.8130012 139.6404997 140.0639988  70.0972934 139.1456531 140.0582031
  71.2720012 142.0044997 138.1519988  70.9910012 142.7134997 137.5739988
  72.2150012 141.9314997 138.0009988  71.3609291 142.0916711 138.0524967
  62.0240012 138.7894997 139.2259988  61.2570012 138.2574997 139.0149988
  62.7030012 138.4794997 138.6259988  62.0107877 138.6748300 139.1160716
  64.7640012 133.4174997 135.2379988  64.6650012 134.3644997 135.1329988
  64.0210012 133.0454997 134.7619988  64.6501184 133.4965863 135.1593621
  66.0280012 137.7394997 138.8019988  65.7920012 137.5194997 139.7029988
  65.2440012 137.5324997 138.2919988  65.8898504 137.6814586 138.8563431
  68.7430012 136.8664997 137.8769988  67.7960012 136.8984997 138.0099988
  69.0560012 136.2414997 138.5309988  68.6556707 136.7863998 137.9836060
  70.3770012 135.5004997 139.8829988  70.2810012 134.5484997 139.8769988
  70.0560012 135.7694997 140.7429988  70.3204070 135.4064035 139.9985441
  60.2040012 136.7104997 138.9299988  60.4160012 136.0034997 138.3199988
  60.0930012 136.2724997 139.7739988  60.2179721 136.5547084 138.9606843
  64.9850012 132.7114997 137.9089988  65.6970012 132.0714997 137.8949988
  64.8840012 132.9784997 136.9959988  65.0688066 132.6600079 137.7835677
  65.3390012 134.3944997 139.9629988  65.2070012 133.9184997 139.1429988
  64.7400012 135.1384997 139.9079988  65.2399071 134.4299618 139.8432886
  74.8360012 143.8104997 125.5589988  75.6860012 144.2314997 125.6859988
  74.8420012 143.0704997 126.1659988  74.9531372 143.7680803 125.6584344
  75.2310012 141.8634997 127.3819988  74.5040012 141.3844997 127.7799988
  75.8120012 142.0694997 128.1149988  75.2100473 141.8258103 127.5354528
  74.9900012 144.6484997 132.3299988  75.8230012 144.2704997 132.0499988
  75.1020012 145.5914997 132.2109988  75.1192647 144.7242218 132.2755487
  75.4990012 141.7644997 123.7739988  74.9770012 142.1214997 123.0549988
  75.4660012 142.4394997 124.4519988  75.4231634 141.9045413 123.7673145
  73.8480012 139.0044997 122.3239988  73.9440012 139.6714997 121.6439988
  73.7080012 138.1884997 121.8429988  73.8422272 138.9855655 122.1658347
  73.0170012 140.3844997 127.9449988  72.8670012 139.4394997 127.9249988
  72.6640012 140.6654997 128.7889988  72.9487448 140.2931481 128.0563705
  58.0530012 142.4624997 131.9559988  58.2370012 142.3804997 131.0199988
  58.9020012 142.3384997 132.3789988  58.1930151 142.4345073 131.8851451
  73.8740012 142.3544997 137.5839988  74.4570012 141.6204997 137.7759988
  74.4380012 143.1264997 137.6309988  74.0299769 142.3584227 137.6166159
  75.3700012 140.2574997 138.2689988  74.5070012 139.8784997 138.1029988
  75.9750012 139.5184997 138.1939988  75.3336119 140.1058268 138.2361528
  73.0950012 136.4124997 121.4419988  73.7060012 136.0414997 122.0789988
  72.2590012 135.9914997 121.6379988  73.0655032 136.3047554 121.5557035
  72.7280012 137.9674997 126.4079988  73.0080012 137.0604997 126.5319988
  73.4870012 138.4014997 126.0189988  72.8689277 137.9020942 126.3723682
  73.3400012 138.5484997 131.8439988  74.2730012 138.7604997 131.8089988
  73.1050012 138.6504997 132.7659988  73.4359244 138.5913100 131.9638892
  73.3690012 139.2854997 134.6199988  72.5260012 139.5534997 134.9859988
  73.8110012 140.1074997 134.4089988  73.3134158 139.4333291 134.6415491
  57.6500012 137.7334997 138.0969988  58.5700012 137.6114997 138.3329988
  57.2010012 136.9834997 138.4859988  57.7151580 137.6153727 138.1819006
  75.6520012 133.2654997 139.9729988  76.0020012 132.6114997 139.3679988
  75.7990012 134.1024997 139.5329988  75.7197887 133.2891548 139.8306858
  73.3410012 135.2304997 126.4559988  73.5240012 134.7814997 127.2819988
  72.7420012 134.6454997 125.9929988  73.2850202 135.0899975 126.5063275
  58.8710012 136.0454997 130.9879988  59.3170012 135.2534997 131.2899988
  59.3380012 136.7614997 131.4179988  58.9950831 136.0340685 131.0874006
  57.1750012 139.0444997 132.0569988  57.6670012 138.8234997 131.2659988
  57.5380012 139.8854997 132.3379988  57.2913126 139.1278357 131.9867531
  75.1720012 135.3744997 138.3219988  74.2540012 135.6454997 138.2869988
  75.2950012 134.8394997 137.5379988  75.0629729 135.3392508 138.2111923
  75.2080012 135.2974997 122.9839988  75.6200012 134.5764997 122.5089988
  75.8900012 135.9674997 123.0429988  75.3565885 135.2892368 122.9268915
  57.4890012 135.3024997 126.1109988  56.5640012 135.5114997 125.9819988
  57.9430012 135.7864997 125.4209988  57.4237292 135.3965343 126.0000720
  57.4530012 134.0404997 134.4549988  56.7880012 133.7944997 135.0989988
  57.0100012 134.6624997 133.8779988  57.3021318 134.0909410 134.4650898
  74.1720012 133.4644997 136.1409988  73.3600012 133.7894997 135.7539988
  74.4050012 132.7044997 135.6079988  74.0922203 133.4062758 136.0158880
  67.6020012 134.9134997 130.4639988  66.9280012 134.2844997 130.7199988
  68.1660012 134.4294997 129.8609988  67.5859230 134.7618744 130.4175340
  72.7450012 133.0214997 130.5769988  73.3490012 133.5684997 130.0749988
  71.8750012 133.3404997 130.3359988  72.7101208 133.1395137 130.4756886
  74.4720012 134.1594997 128.9099988  75.0840012 133.6454997 128.3829988
  74.8540012 135.0374997 128.9329988  74.6073371 134.2077866 128.8410041
  59.9290012 133.5474997 128.2859988  59.1520012 133.3134997 127.7789988
  60.4590012 132.7504997 128.2949988  59.8942330 133.4076988 128.2177742
  58.7650012 133.3454997 124.0899988  59.2040012 133.9564997 123.4979988
  58.1320012 133.8834997 124.5639988  58.7394514 133.5019257 124.0730930
  64.5080012 133.4744997 128.0999988  65.3830012 133.8624997 128.0699988
  64.3720012 133.2594997 129.0219988  64.6093695 133.4985184 128.2206440
  70.0650012 133.5044997 129.7489988  70.1410012 133.5994997 128.7989988
  69.7900012 132.5964997 129.8779988  70.0382321 133.3947867 129.6365079
  71.4180012 133.5304997 125.4409988  70.7160012 134.1454997 125.2309988
  70.9740012 132.6924997 125.5719988  71.2616450 133.5015639 125.4299000
  60.6260012 135.2614997 122.5319988  61.1180012 134.6314997 122.0049988
  61.2500012 135.5574997 123.1949988  60.7775688 135.2153804 122.5495482
  65.6520012 135.5544997 124.9889988  65.8300012 134.9084997 125.6719988
  65.5990012 136.3884997 125.4559988  65.6691999 135.5788009 125.1455917
  59.8870012 134.0614997 137.8039988  59.5210012 133.2964997 138.2459988
  60.8000012 134.0904997 138.0899988  59.9602736 133.9605640 137.9032502
  61.8600012 133.4124997 139.3399988  62.7580012 133.1384997 139.1549988
  61.4730012 132.6694997 139.8039988  61.9306612 133.2745914 139.3773643
  70.2810012 132.7444997 139.5219988  70.3580012 132.3184997 140.3759988
  71.1750012 132.7584997 139.1789988  70.4123428 132.6880879 139.5925310
  87.8630012 142.7034997 128.2449988  87.9520012 143.6474997 128.1129988
  87.2250012 142.4284997 127.5869988  87.7889081 142.7954830 128.1379614
  86.7960012 141.9584997 131.6639988  86.7580012 141.3124997 132.3689988
  86.4740012 141.4924997 130.8929988  86.7472333 141.8069408 131.6562978
  79.1650012 141.5734997 133.2569988  79.2060012 140.9474997 133.9799988
  79.8680012 142.1974997 133.4389988  79.2656363 141.5721196 133.3806044
  90.5020012 144.8974997 129.9649988  90.0620012 144.1774997 130.4159988
  90.4890012 145.6184997 130.5949988  90.4400226 144.8963731 130.1118494
  76.6980012 139.6834997 127.1849988  76.2510012 140.5294997 127.1659988
  76.1370012 139.1034997 126.6689988  76.5609900 139.7209916 127.1126801
  77.4090012 141.8454997 129.3099988  77.6220012 141.0754997 129.8379988
  78.1470012 141.9344997 128.7069988  77.5379044 141.7521968 129.3007123
  85.1860012 144.3914997 132.0699988  85.4900012 143.7054997 131.4749988
  85.9070012 144.5094997 132.6879988  85.3250671 144.3136305 132.0721816
  93.8490012 135.9924997 132.9309988  93.8980012 136.6024997 133.6659988
  94.2740012 136.4534997 132.2079988  93.9131746 136.1383796 132.9339175
  88.3270012 138.7854997 132.3969988  88.4690012 137.8394997 132.4179988
  88.2200012 138.9924997 131.4689988  88.3319919 138.6838246 132.2743408
  81.4810012 136.8864997 129.6699988  81.5250012 137.7464997 129.2509988
  81.0240012 136.3344997 129.0359988  81.4252240 136.9294422 129.5269864
  89.2040012 137.0174997 128.0709988  89.8500012 136.6884997 128.6949988
  89.7140012 137.5354997 127.4479988  89.3614299 137.0424450 128.0722731
  78.1020012 139.2834997 130.4319988  78.7550012 138.7334997 130.8639988
  78.1260012 139.0094997 129.5149988  78.1946683 139.1711466 130.3672123
  83.2580012 140.8334997 129.6469988  83.8740012 140.3074997 130.1569988
  82.6720012 140.1934997 129.2439988  83.2630810 140.6749208 129.6623173
  94.2400012 137.4704997 135.1659988  93.5520012 138.1284997 135.0709988
  94.2560012 137.2734997 136.1029988  94.1479540 137.5339819 135.2795990
  80.2920012 135.8044997 133.7439988  80.0730012 136.3344997 132.9779988
  79.6240012 136.0314997 134.3909988  80.1717600 135.9076906 133.7266379
  82.8610012 143.4804997 134.0309988  82.1210012 144.0784997 134.1349988
  83.5750012 144.0344997 133.7159988  82.8562237 143.6372831 134.0026465
  90.9680012 136.3084997 130.0509988  90.7520012 135.5424997 130.5839988
  91.6230012 136.7804997 130.5639988  91.0270632 136.2675889 130.1932861
  79.8850012 137.6964997 131.6959988  80.4990012 138.3294997 132.0689988
  80.3970012 137.2244997 131.0399988  80.0381981 137.7192267 131.6582908
  91.3150012 135.0234997 133.7309988  90.5790012 135.6344997 133.6929988
  91.9980012 135.4384997 133.2039988  91.3066541 135.1631374 133.6545832
  84.3180012 133.1104997 131.1959988  84.2010012 132.1614997 131.1419988
  83.4630012 133.4424997 131.4699988  84.1864212 133.0255571 131.2256497
  92.1120012 144.9854997 135.9239988  92.2520012 144.3944997 135.1849988
  92.2790012 145.8584997 135.5679988  92.1537411 145.0225428 135.7746894
  86.5850012 141.9474997 125.6969988  85.8730012 142.4824997 125.3449988
  87.2760012 142.0034997 125.0369988  86.5810132 142.0282543 125.5596289
  86.6380012 140.4054997 122.7359988  87.3390012 140.4274997 123.3869988
  86.9410012 139.7774997 122.0789988  86.7748133 140.3237070 122.7363369
  93.9540012 141.3254997 133.9899988  93.3010012 142.0204997 134.0799988
  94.4190012 141.5354997 133.1809988  93.9275274 141.4490643 133.8928462
  89.9900012 142.1574997 126.6489988  89.2580012 142.3854997 127.2219988
  90.4380012 141.4434997 127.1029988  89.9502725 142.0922145 126.7888816
  89.8880012 140.3314997 135.7159988  89.9680012 141.0944997 136.2879988
  89.2860012 140.6104997 135.0259988  89.8175756 140.4737134 135.7010589
  81.6360012 142.7874997 128.5309988  81.3050012 142.4174997 127.7129988
  82.2240012 142.1174997 128.8779988  81.6701873 142.6461156 128.4658102
  82.0020012 141.5564997 132.1649988  82.5680012 141.6774997 131.4019988
  82.3210012 142.1934997 132.8029988  82.1225474 141.6592219 132.1469862
  88.8610012 141.3194997 124.3339988  89.4410012 141.4694997 125.0809988
  89.2750012 141.7904997 123.6099988  88.9962997 141.4036578 124.3384058
  79.8020012 142.1534997 136.1099988  79.8730012 142.8044997 136.8089988
  78.9120012 142.2564997 135.7749988  79.6913005 142.2565427 136.1603495
  92.5600012 133.0694997 124.1469988  91.6600012 133.2084997 124.4419988
  92.8120012 133.9004997 123.7449988  92.4708702 133.2009074 124.1330205
  80.6260012 141.8574997 126.1199988  80.3340012 142.6254997 125.6299988
  79.9520012 141.1974997 125.9579988  80.4948111 141.8735587 126.0308978
  76.7190012 144.2204997 134.9349988  76.2180012 144.1924997 134.1199988
  76.7240012 143.3144997 135.2449988  76.6510944 144.0942396 134.8653226
  91.8190012 139.1594997 137.9819988  91.4120012 139.6404997 137.2609988
  91.8600012 138.2544997 137.6739988  91.7688437 139.1029374 137.8416683
  81.5870012 134.0134997 131.9739988  80.7250012 133.9264997 131.5659988
  81.5640012 134.8694997 132.4019988  81.4660409 134.1172883 131.9760589
  86.2500012 133.7354997 135.3489988  86.6700012 133.3204997 136.1019988
  85.3170012 133.5574997 135.4659988  86.1813644 133.6545900 135.4679539
  89.5760012 137.4914997 136.2019988  89.0620012 137.3654997 136.9999988
  89.4210012 138.4034997 135.9579988  89.4846852 137.5976132 136.2782158
  90.3390012 142.3524997 121.9639988  90.3810012 142.1294997 121.0339988
  91.1880012 142.7514997 122.1529988  90.4595280 142.3759438 121.8623554
  85.9110012 136.2284997 122.6339988  85.6580012 136.2474997 123.5569988
  85.6550012 135.3564997 122.3319988  85.8417481 136.1132558 122.7196175
  81.6780012 138.9794997 133.0689988  81.0360012 138.9384997 133.7779988
  81.7150012 139.9054997 132.8309988  81.5950664 139.0991430 133.1339219
  81.6750012 139.2004997 127.9809988  80.7820012 138.8594997 127.9219988
  82.1250012 138.8234997 127.2249988  81.6138130 139.1029631 127.8707702
  87.2100012 139.6164997 126.7979988  86.8010012 140.4314997 126.5069988
  87.9310012 139.4764997 126.1839988  87.2514537 139.7092018 126.6751342
  86.3120012 139.7914997 138.2859988  85.7500012 139.0874997 138.6069988
  87.1390012 139.6714997 138.7539988  86.3467095 139.6787883 138.3932330
  88.2150012 139.0624997 129.6119988  88.0200012 139.6674997 128.8969988
  88.3960012 138.2284997 129.1779988  88.2127614 139.0326300 129.4554405
  79.4280012 139.2994997 134.9359988  79.3900012 139.6994997 135.8049988
  78.9370012 138.4824997 135.0269988  79.3564684 139.2438069 135.0671059
  82.7940012 136.6734997 121.7349988  82.3630012 136.2284997 122.4649988
  82.0760012 137.0454997 121.2229988  82.6379438 136.6628940 121.7656799
  76.0360012 136.4154997 128.7869988  76.6670012 136.3864997 129.5059988
  76.4850012 135.9904997 128.0559988  76.1830918 136.3540836 128.7866441
  77.3100012 137.1614997 124.2109988  77.7840012 137.7524997 123.6259988
  76.5930012 137.6924997 124.5579988  77.2779341 137.3140867 124.1778836
  87.4790012 140.7004997 134.2829988  87.8020012 140.0694997 133.6399988
  87.0390012 140.1654997 134.9439988  87.4637484 140.5418387 134.2843198
  84.2560012 136.6274997 129.0669988  83.3450012 136.6844997 129.3559988
  84.7620012 136.5674997 129.8779988  84.1996899 136.6271941 129.2161184
  79.0850012 138.2564997 127.8939988  78.1950012 138.3564997 127.5539988
  79.3810012 137.4144997 127.5479988  79.0032823 138.1563545 127.8007213
  82.7380012 138.2564997 125.5509988  83.6690012 138.3854997 125.7289988
  82.5230012 138.9264997 124.9009988  82.8364247 138.3646565 125.4875747
  88.6610012 135.8624997 132.3319988  87.9850012 135.9934997 132.9959988
  88.1760012 135.7074997 131.5209988  88.5027146 135.8595157 132.3134469
  81.4120012 139.4514997 123.1169988  80.8690012 139.0714997 122.4259988
  82.2450012 139.6454997 122.6889988  81.4503631 139.4257125 122.9644501
  79.5470012 144.0084997 138.2159988  80.2790012 144.2624997 138.7779988
  78.7670012 144.2124997 138.7319988  79.5417073 144.0708160 138.3626151
  85.5760012 139.4154997 130.9539988  86.1410012 138.8684997 130.4069988
  85.4290012 138.8934997 131.7429988  85.6333380 139.2702259 130.9858695
  80.5780012 135.5514997 127.3729988  80.2610012 134.6494997 127.3369988
  81.3600012 135.5534997 126.8199988  80.6402408 135.4282474 127.2933569
  84.2030012 137.8034997 133.3679988  83.3670012 138.2574997 133.4789988
  84.7270012 138.0794997 134.1199988  84.1595416 137.9028660 133.4848119
  84.7470012 144.0164997 125.0529988  84.0020012 143.5094997 124.7309988
  84.6130012 144.0654997 125.9999988  84.6268776 143.9536940 125.1368647
  91.8970012 143.1494997 133.8399988  92.5390012 143.6064997 133.2959988
  91.0670012 143.2624997 133.3769988  91.8725963 143.2272704 133.7030177
  88.6450012 136.8304997 123.2519988  87.7060012 136.9424997 123.1009988
  88.9420012 137.6874997 123.5589988  88.5567583 136.9615981 123.2728337
  86.2660012 144.2004997 136.2899988  85.9210012 143.8194997 137.0969988
  86.0660012 145.1344997 136.3609988  86.1917527 144.2745135 136.4100689
  89.3630012 138.6974997 124.9129988  90.2550012 138.5604997 125.2319988
  89.4200012 139.4884997 124.3759988  89.4926504 138.7856052 124.8840818
  79.8720012 143.3114997 130.8229988  80.6170012 143.3094997 130.2219988
  79.9500012 142.4884997 131.3039988  79.9844995 143.1998887 130.8058282
  76.8800012 141.7724997 136.1379988  77.1030012 141.3544997 136.9699988
  76.2780012 141.1594997 135.7149988  76.8291759 141.6324668 136.1947022
  83.8960012 141.2894997 138.3509988  83.6000012 141.1234997 137.4559988
  84.8280012 141.0694997 138.3399988  83.9814166 141.2370640 138.2270536
  94.2480012 138.9074997 124.6079988  93.6940012 138.5114997 123.9359988
  94.3480012 139.8174997 124.3299988  94.1857059 138.9763586 124.4784401
  94.2110012 144.7074997 137.4449988  93.3600012 144.9454997 137.0779988
  94.8020012 144.6904997 136.6919988  94.1742487 144.7378258 137.2928893
  89.7040012 142.5014997 132.0939988  88.7750012 142.2694997 132.0669988
  90.1550012 141.7244997 131.7639988  89.6379216 142.3647238 132.0456917
  78.0020012 141.6914997 122.8139988  78.6180012 142.3184997 123.1939988
  77.1400012 142.0074997 123.0859988  77.9697698 141.8199430 122.9027183
  83.6740012 144.4924997 127.8029988  83.4330012 145.4174997 127.8449988
  82.9330012 144.0334997 128.1999988  83.5409225 144.5570933 127.8623742
  87.7330012 144.7404997 133.8189988  87.3070012 144.5134997 134.6459988
  88.3130012 144.0024997 133.6369988  87.7531868 144.6095299 133.9075830
  78.5140012 136.5254997 135.6959988  77.6210012 136.8644997 135.6279988
  78.4150012 135.6704997 136.1139988  78.3784164 136.4562588 135.7432235
  90.8020012 144.3424997 125.1199988  90.5240012 143.6144997 125.6759988
  91.7290012 144.4614997 125.3249988  90.8893124 144.2588802 125.2238845
  79.4170012 143.6044997 124.3069988  78.7310012 143.9564997 124.8739988
  79.9390012 144.3674997 124.0599988  79.3936852 143.7558578 124.3512118
  87.2480012 136.2664997 134.5859988  87.9470012 136.3404997 135.2359988
  86.8670012 135.4024997 134.7399988  87.2921767 136.1597624 134.6958322
  88.0330012 135.9184997 125.6829988  88.2530012 136.3904997 124.8799988
  88.5910012 136.3134997 126.3529988  88.1384968 136.0364285 125.6637331
  85.2330012 137.6464997 126.5179988  86.0450012 138.1514997 126.5639988
  84.9880012 137.5014997 127.4319988  85.3110520 137.6960375 126.6478517
  85.7680012 138.6324997 135.7019988  85.8870012 139.2064997 136.4599988
  86.4240012 137.9444997 135.8169988  85.8729025 138.6179858 135.8211321
  86.1160012 134.7274997 127.4559988  85.7700012 135.3454997 128.0999988
  86.7750012 135.2284997 126.9739988  86.1576968 134.8796278 127.4789383
  81.7740012 135.7904997 124.1429988  81.6910012 136.6794997 124.4899988
  82.6640012 135.5254997 124.3749988  81.8829469 135.8761430 124.2217626
  91.9730012 136.5394997 136.5369988  91.0560012 136.8024997 136.4499988
  92.3080012 136.5364997 135.6409988  91.8928613 136.5750761 136.4038837
  90.5750012 140.2904997 130.6329988  89.7770012 139.8754997 130.3049988
  91.0200012 139.5994997 131.1239988  90.5259885 140.1403543 130.6544889
  78.3490012 138.8824997 122.3199988  78.3040012 139.8214997 122.4979988
  77.4610012 138.6464997 122.0499988  78.2228574 138.9791892 122.3078912
  79.1570012 133.6644997 130.9929988  78.9280012 133.7234997 130.0649988
  78.7140012 132.8724997 131.2989988  79.0658530 133.5655753 130.9074786
  77.2820012 144.0274997 139.4369988  77.4260012 143.1254997 139.1509988
  76.5100012 144.3134997 138.9499988  77.1972753 143.9426816 139.3319505
  81.6240012 144.3714997 121.5699988  81.6880012 143.5774997 122.1009988
  82.2770012 144.2524997 120.8799988  81.7210241 144.2467148 121.5494317
  83.9380012 143.9974997 138.8699988  83.6090012 144.2684997 138.0129988
  84.0900012 143.0564997 138.7829988  83.9134809 143.9073862 138.7408244
  89.6720012 143.9134997 136.2529988  90.4180012 144.5014997 136.1339988
  88.9150012 144.4954997 136.3169988  89.6717820 144.0727143 136.2453590
  78.1150012 141.2274997 138.8569988  78.5230012 140.3704997 138.7359988
  77.8550012 141.2424997 139.7779988  78.1357568 141.1120807 138.9649588
  82.7730012 142.3434997 123.8759988  82.3130012 141.8594997 124.5619988
  83.0280012 141.6754997 123.2399988  82.7444902 142.1868731 123.8839334
  82.0620012 140.2364997 136.2319988  81.4440012 140.9114997 136.5119988
  82.4060012 140.5574997 135.3979988  82.0239132 140.3722411 136.1576262
  83.8440012 140.5864997 122.1379988  83.6640012 140.4324997 121.2109988
  84.7940012 140.6944997 122.1829988  83.9477776 140.5800175 122.0171843
  87.0820012 142.7084997 139.5089988  88.0350012 142.7914997 139.4819988
  86.9210012 141.9964997 140.1289988  87.1906426 142.6236746 139.5890579
  93.2340012 142.9414997 121.5839988  92.9600012 142.5164997 120.7709988
  93.2730012 143.8724997 121.3669988  93.2017699 143.0092484 121.4433610
  82.4010012 137.5914997 137.3139988  82.5510012 136.8624997 136.7119988
  82.4040012 138.3684997 136.7549988  82.4219302 137.5967851 137.1560692
  82.8140012 135.9614997 134.8069988  83.3500012 136.4124997 134.1549988
  81.9620012 135.8534997 134.3839988  82.7722178 136.0086390 134.6605756
  84.3960012 141.4004997 135.0459988  85.1460012 141.2444997 134.4729988
  84.0570012 142.2524997 134.7709988  84.4528921 141.4942968 134.9303561
  88.8110012 139.2154997 140.0749988  89.0040012 138.2844997 139.9629988
  89.6690012 139.6404997 140.0639988  88.9532934 139.1456531 140.0582031
  90.1280012 142.0044997 138.1519988  89.8470012 142.7134997 137.5739988
  91.0710012 141.9314997 138.0009988  90.2169291 142.0916711 138.0524967
  80.8800012 138.7894997 139.2259988  80.1130012 138.2574997 139.0149988
  81.5590012 138.4794997 138.6259988  80.8667877 138.6748300 139.1160716
  83.6200012 133.4174997 135.2379988  83.5210012 134.3644997 135.1329988
  82.8770012 133.0454997 134.7619988  83.5061184 133.4965863 135.1593621
  84.8840012 137.7394997 138.8019988  84.6480012 137.5194997 139.7029988
  84.1000012 137.5324997 138.2919988  84.7458504 137.6814586 138.8563431
  87.5990012 136.8664997 137.8769988  86.6520012 136.8984997 138.0099988
  87.9120012 136.2414997 138.5309988  87.5116707 136.7863998 137.9836060
  89.2330012 135.5004997 139.8829988  89.1370012 134.5484997 139.8769988
  88.9120012 135.7694997 140.7429988  89.1764070 135.4064035 139.9985441
  79.0600012 136.7104997 138.9299988  79.2720012 136.0034997 138.3199988
  78.9490012 136.2724997 139.7739988  79.0739721 136.5547084 138.9606843
  83.8410012 132.7114997 137.9089988  84.5530012 132.0714997 137.8949988
  83.7400012 132.9784997 136.9959988  83.9248066 132.6600079 137.7835677
  84.1950012 134.3944997 139.9629988  84.0630012 133.9184997 139.1429988
  83.5960012 135.1384997 139.9079988  84.0959071 134.4299618 139.8432886
  93.6920012 143.8104997 125.5589988  94.5420012 144.2314997 125.6859988
  93.6980012 143.0704997 126.1659988  93.8091372 143.7680803 125.6584344
  94.0870012 141.8634997 127.3819988  93.3600012 141.3844997 127.7799988
  94.6680012 142.0694997 128.1149988  94.0660473 141.8258103 127.5354528
  93.8460012 144.6484997 132.3299988  94.6790012 144.2704997 132.0499988
  93.9580012 145.5914997 132.2109988  93.9752647 144.7242218 132.2755487
  94.3550012 141.7644997 123.7739988  93.8330012 142.1214997 123.0549988
  94.3220012 142.4394997 124.4519988  94.2791634 141.9045413 123.7673145
  92.7040012 139.0044997 122.3239988  92.8000012 139.6714997 121.6439988
  92.5640012 138.1884997 121.8429988  92.6982272 138.9855655 122.1658347
  91.8730012 140.3844997 127.9449988  91.7230012 139.4394997 127.9249988
  91.5200012 140.6654997 128.7889988  91.8047448 140.2931481 128.0563705
  76.9090012 142.4624997 131.9559988  77.0930012 142.3804997 131.0199988
  77.7580012 142.3384997 132.3789988  77.0490151 142.4345073 131.8851451
  92.7300012 142.3544997 137.5839988  93.3130012 141.6204997 137.7759988
  93.2940012 143.1264997 137.6309988  92.8859769 142.3584227 137.6166159
  94.2260012 140.2574997 138.2689988  93.3630012 139.8784997 138.1029988
  94.8310012 139.5184997 138.1939988  94.1896119 140.1058268 138.2361528
  91.9510012 136.4124997 121.4419988  92.5620012 136.0414997 122.0789988
  91.1150012 135.9914997 121.6379988  91.9215032 136.3047554 121.5557035
  91.5840012 137.9674997 126.4079988  91.8640012 137.0604997 126.5319988
  92.3430012 138.4014997 126.0189988  91.7249277 137.9020942 126.3723682
  92.1960012 138.5484997 131.8439988  93.1290012 138.7604997 131.8089988
  91.9610012 138.6504997 132.7659988  92.2919244 138.5913100 131.9638892
  92.2250012 139.2854997 134.6199988  91.3820012 139.5534997 134.9859988
  92.6670012 140.1074997 134.4089988  92.1694158 139.4333291 134.6415491
  76.5060012 137.7334997 138.0969988  77.4260012 137.6114997 138.3329988
  76.0570012 136.9834997 138.4859988  76.5711580 137.6153727 138.1819006
  94.5080012 133.2654997 139.9729988  94.8580012 132.6114997 139.3679988
  94.6550012 134.1024997 139.5329988  94.5757887 133.2891548 139.8306858
  92.1970012 135.2304997 126.4559988  92.3800012 134.7814997 127.2819988
  91.5980012 134.6454997 125.9929988  92.1410202 135.0899975 126.5063275
  77.7270012 136.0454997 130.9879988  78.1730012 135.2534997 131.2899988
  78.1940012 136.7614997 131.4179988  77.8510831 136.0340685 131.0874006
  76.0310012 139.0444997 132.0569988  76.5230012 138.8234997 131.2659988
  76.3940012 139.8854997 132.3379988  76.1473126 139.1278357 131.9867531
  94.0280012 135.3744997 138.3219988  93.1100012 135.6454997 138.2869988
  94.1510012 134.8394997 137.5379988  93.9189729 135.3392508 138.2111923
  94.0640012 135.2974997 122.9839988  94.4760012 134.5764997 122.5089988
  94.7460012 135.9674997 123.0429988  94.2125885 135.2892368 122.9268915
  76.3450012 135.3024997 126.1109988  75.4200012 135.5114997 125.9819988
  76.7990012 135.7864997 125.4209988  76.2797292 135.3965343 126.0000720
  76.3090012 134.0404997 134.4549988  75.6440012 133.7944997 135.0989988
  75.8660012 134.6624997 133.8779988  76.1581318 134.0909410 134.4650898
  93.0280012 133.4644997 136.1409988  92.2160012 133.7894997 135.7539988
  93.2610012 132.7044997 135.6079988  92.9482203 133.4062758 136.0158880
  86.4580012 134.9134997 130.4639988  85.7840012 134.2844997 130.7199988
  87.0220012 134.4294997 129.8609988  86.4419230 134.7618744 130.4175340
  91.6010012 133.0214997 130.5769988  92.2050012 133.5684997 130.0749988
  90.7310012 133.3404997 130.3359988  91.5661208 133.1395137 130.4756886
  93.3280012 134.1594997 128.9099988  93.9400012 133.6454997 128.3829988
  93.7100012 135.0374997 128.9329988  93.4633371 134.2077866 128.8410041
  78.7850012 133.5474997 128.2859988  78.0080012 133.3134997 127.7789988
  79.3150012 132.7504997 128.2949988  78.7502330 133.4076988 128.2177742
  77.6210012 133.3454997 124.0899988  78.0600012 133.9564997 123.4979988
  76.9880012 133.8834997 124.5639988  77.5954514 133.5019257 124.0730930
  83.3640012 133.4744997 128.0999988  84.2390012 133.8624997 128.0699988
  83.2280012 133.2594997 129.0219988  83.4653695 133.4985184 128.2206440
  88.9210012 133.5044997 129.7489988  88.9970012 133.5994997 128.7989988
  88.6460012 132.5964997 129.8779988  88.8942321 133.3947867 129.6365079
  90.2740012 133.5304997 125.4409988  89.5720012 134.1454997 125.2309988
  89.8300012 132.6924997 125.5719988  90.1176450 133.5015639 125.4299000
  79.4820012 135.2614997 122.5319988  79.9740012 134.6314997 122.0049988
  80.1060012 135.5574997 123.1949988  79.6335688 135.2153804 122.5495482
  84.5080012 135.5544997 124.9889988  84.6860012 134.9084997 125.6719988
  84.4550012 136.3884997 125.4559988  84.5251999 135.5788009 125.1455917
  78.7430012 134.0614997 137.8039988  78.3770012 133.2964997 138.2459988
  79.6560012 134.0904997 138.0899988  78.8162736 133.9605640 137.9032502
  80.7160012 133.4124997 139.3399988  81.6140012 133.1384997 139.1549988
  80.3290012 132.6694997 139.8039988  80.7866612 133.2745914 139.3773643
  89.1370012 132.7444997 139.5219988  89.2140012 132.3184997 140.3759988
  90.0310012 132.7584997 139.1789988  89.2683428 132.6880880 139.5925310
 106.7190012 142.7034997 128.2449988 106.8080012 143.6474997 128.1129988
 106.0810012 142.4284997 127.5869988 106.6449081 142.7954830 128.1379614
 105.6520012 141.9584997 131.6639988 105.6140012 141.3124997 132.3689988
 105.3300012 141.4924997 130.8929988 105.6032333 141.8069408 131.6562978
  98.0210012 141.5734997 133.2569988  98.0620012 140.9474997 133.9799988
  98.7240012 142.1974997 133.4389988  98.1216363 141.5721196 133.3806044
 109.3580012 144.8974997 129.9649988 108.9180012 144.1774997 130.4159988
 109.3450012 145.6184997 130.5949988 109.2960226 144.8963731 130.1118494
  95.5540012 139.6834997 127.1849988  95.1070012 140.5294997 127.1659988
  94.9930012 139.1034997 126.6689988  95.4169900 139.7209916 127.1126801
  96.2650012 141.8454997 129.3099988  96.4780012 141.0754997 129.8379988
  97.0030012 141.9344997 128.7069988  96.3939044 141.7521968 129.3007123
 104.0420012 144.3914997 132.0699988 104.3460012 143.7054997 131.4749988
 104.7630012 144.5094997 132.6879988 104.1810671 144.3136305 132.0721816
 112.7050012 135.9924997 132.9309988 112.7540012 136.6024997 133.6659988
 113.1300012 136.4534997 132.2079988 112.7691746 136.1383796 132.9339175
 107.1830012 138.7854997 132.3969988 107.3250012 137.8394997 132.4179988
 107.0760012 138.9924997 131.4689988 107.1879919 138.6838246 132.2743408
 100.3370012 136.8864997 129.6699988 100.3810012 137.7464997 129.2509988
  99.8800012 136.3344997 129.0359988 100.2812240 136.9294422 129.5269864
 108.0600012 137.0174997 128.0709988 108.7060012 136.6884997 128.6949988
 108.5700012 137.5354997 127.4479988 108.2174299 137.0424450 128.0722731
  96.9580012 139.2834997 130.4319988  97.6110012 138.7334997 130.8639988
  96.9820012 139.0094997 129.5149988  97.0506683 139.1711466 130.3672123
 102.1140012 140.8334997 129.6469988 102.7300012 140.3074997 130.1569988
 101.5280012 140.1934997 129.2439988 102.1190810 140.6749208 129.6623173
 113.0960012 137.4704997 135.1659988 112.4080012 138.1284997 135.0709988
 113.1120012 137.2734997 136.1029988 113.0039540 137.5339819 135.2795990
  99.1480012 135.8044997 133.7439988  98.9290012 136.3344997 132.9779988
  98.4800012 136.0314997 134.3909988  99.0277600 135.9076906 133.7266379
 101.7170012 143.4804997 134.0309988 100.9770012 144.0784997 134.1349988
 102.4310012 144.0344997 133.7159988 101.7122237 143.6372831 134.0026465
 109.8240012 136.3084997 130.0509988 109.6080012 135.5424997 130.5839988
 110.4790012 136.7804997 130.5639988 109.8830632 136.2675889 130.1932861
  98.7410012 137.6964997 131.6959988  99.3550012 138.3294997 132.0689988
  99.2530012 137.2244997 131.0399988  98.8941981 137.7192267 131.6582908
 110.1710012 135.0234997 133.7309988 109.4350012 135.6344997 133.6929988
 110.8540012 135.4384997 133.2039988 110.1626541 135.1631374 133.6545832
 103.1740012 133.1104997 131.1959988 103.0570012 132.1614997 131.1419988
 102.3190012 133.4424997 131.4699988 103.0424212 133.0255571 131.2256497
 110.9680012 144.9854997 135.9239988 111.1080012 144.3944997 135.1849988
 111.1350012 145.8584997 135.5679988 111.0097411 145.0225428 135.7746894
 105.4410012 141.9474997 125.6969988 104.7290012 142.4824997 125.3449988
 106.1320012 142.0034997 125.0369988 105.4370132 142.0282543 125.5596289
 105.4940012 140.4054997 122.7359988 106.1950012 140.4274997 123.3869988
 105.7970012 139.7774997 122.0789988 105.6308133 140.3237070 122.7363369
 112.8100012 141.3254997 133.9899988 112.1570012 142.0204997 134.0799988
 113.2750012 141.5354997 133.1809988 112.7835274 141.4490643 133.8928462
 108.8460012 142.1574997 126.6489988 108.1140012 142.3854997 127.2219988
 109.2940012 141.4434997 127.1029988 108.8062725 142.0922145 126.7888816
 108.7440012 140.3314997 135.7159988 108.8240012 141.0944997 136.2879988
 108.1420012 140.6104997 135.0259988 108.6735756 140.4737134 135.7010589
 100.4920012 142.7874997 128.5309988 100.1610012 142.4174997 127.7129988
 101.0800012 142.1174997 128.8779988 100.5261873 142.6461156 128.4658102
 100.8580012 141.5564997 132.1649988 101.4240012 141.6774997 131.4019988
 101.1770012 142.1934997 132.8029988 100.9785474 141.6592219 132.1469862
 107.7170012 141.3194997 124.3339988 108.2970012 141.4694997 125.0809988
 108.1310012 141.7904997 123.6099988 107.8522997 141.4036578 124.3384058
  98.6580012 142.1534997 136.1099988  98.7290012 142.8044997 136.8089988
  97.7680012 142.2564997 135.7749988  98.5473005 142.2565427 136.1603495
 111.4160012 133.0694997 124.1469988 110.5160012 133.2084997 124.4419988
 111.6680012 133.9004997 123.7449988 111.3268702 133.2009074 124.1330205
  99.4820012 141.8574997 126.1199988  99.1900012 142.6254997 125.6299988
  98.8080012 141.1974997 125.9579988  99.3508111 141.8735587 126.0308978
  95.5750012 144.2204997 134.9349988  95.0740012 144.1924997 134.1199988
  95.5800012 143.3144997 135.2449988  95.5070944 144.0942396 134.8653226
 110.6750012 139.1594997 137.9819988 110.2680012 139.6404997 137.2609988
 110.7160012 138.2544997 137.6739988 110.6248437 139.1029374 137.8416683
 100.4430012 134.0134997 131.9739988  99.5810012 133.9264997 131.5659988
 100.4200012 134.8694997 132.4019988 100.3220409 134.1172883 131.9760589
 105.1060012 133.7354997 135.3489988 105.5260012 133.3204997 136.1019988
 104.1730012 133.5574997 135.4659988 105.0373644 133.6545900 135.4679539
 108.4320012 137.4914997 136.2019988 107.9180012 137.3654997 136.9999988
 108.2770012 138.4034997 135.9579988 108.3406852 137.5976132 136.2782158
 109.1950012 142.3524997 121.9639988 109.2370012 142.1294997 121.0339988
 110.0440012 142.7514997 122.1529988 109.3155280 142.3759438 121.8623554
 104.7670012 136.2284997 122.6339988 104.5140012 136.2474997 123.5569988
 104.5110012 135.3564997 122.3319988 104.6977481 136.1132558 122.7196175
 100.5340012 138.9794997 133.0689988  99.8920012 138.9384997 133.7779988
 100.5710012 139.9054997 132.8309988 100.4510664 139.0991430 133.1339219
 100.5310012 139.2004997 127.9809988  99.6380012 138.8594997 127.9219988
 100.9810012 138.8234997 127.2249988 100.4698130 139.1029631 127.8707702
 106.0660012 139.6164997 126.7979988 105.6570012 140.4314997 126.5069988
 106.7870012 139.4764997 126.1839988 106.1074537 139.7092018 126.6751342
 105.1680012 139.7914997 138.2859988 104.6060012 139.0874997 138.6069988
 105.9950012 139.6714997 138.7539988 105.2027095 139.6787883 138.3932330
 107.0710012 139.0624997 129.6119988 106.8760012 139.6674997 128.8969988
 107.2520012 138.2284997 129.1779988 107.0687614 139.0326300 129.4554405
  98.2840012 139.2994997 134.9359988  98.2460012 139.6994997 135.8049988
  97.7930012 138.4824997 135.0269988  98.2124684 139.2438069 135.0671059
 101.6500012 136.6734997 121.7349988 101.2190012 136.2284997 122.4649988
 100.9320012 137.0454997 121.2229988 101.4939438 136.6628940 121.7656799
  94.8920012 136.4154997 128.7869988  95.5230012 136.3864997 129.5059988
  95.3410012 135.9904997 128.0559988  95.0390918 136.3540836 128.7866441
  96.1660012 137.1614997 124.2109988  96.6400012 137.7524997 123.6259988
  95.4490012 137.6924997 124.5579988  96.1339341 137.3140867 124.1778836
 106.3350012 140.7004997 134.2829988 106.6580012 140.0694997 133.6399988
 105.8950012 140.1654997 134.9439988 106.3197484 140.5418387 134.2843198
 103.1120012 136.6274997 129.0669988 102.2010012 136.6844997 129.3559988
 103.6180012 136.5674997 129.8779988 103.0556899 136.6271941 129.2161184
  97.9410012 138.2564997 127.8939988  97.0510012 138.3564997 127.5539988
  98.2370012 137.4144997 127.5479988  97.8592823 138.1563545 127.8007213
 101.5940012 138.2564997 125.5509988 102.5250012 138.3854997 125.7289988
 101.3790012 138.9264997 124.9009988 101.6924247 138.3646565 125.4875747
 107.5170012 135.8624997 132.3319988 106.8410012 135.9934997 132.9959988
 107.0320012 135.7074997 131.5209988 107.3587146 135.8595157 132.3134469
 100.2680012 139.4514997 123.1169988  99.7250012 139.0714997 122.4259988
 101.1010012 139.6454997 122.6889988 100.3063631 139.4257125 122.9644501
  98.4030012 144.0084997 138.2159988  99.1350012 144.2624997 138.7779988
  97.6230012 144.2124997 138.7319988  98.3977073 144.0708160 138.3626151
 104.4320012 139.4154997 130.9539988 104.9970012 138.8684997 130.4069988
 104.2850012 138.8934997 131.7429988 104.4893380 139.2702259 130.9858695
  99.4340012 135.5514997 127.3729988  99.1170012 134.6494997 127.3369988
 100.2160012 135.5534997 126.8199988  99.4962408 135.4282474 127.2933569
 103.0590012 137.8034997 133.3679988 102.2230012 138.2574997 133.4789988
 103.5830012 138.0794997 134.1199988 103.0155416 137.9028660 133.4848119
 103.6030012 144.0164997 125.0529988 102.8580012 143.5094997 124.7309988
 103.4690012 144.0654997 125.9999988 103.4828776 143.9536940 125.1368647
 110.7530012 143.1494997 133.8399988 111.3950012 143.6064997 133.2959988
 109.9230012 143.2624997 133.3769988 110.7285963 143.2272704 133.7030177
 107.5010012 136.8304997 123.2519988 106.5620012 136.9424997 123.1009988
 107.7980012 137.6874997 123.5589988 107.4127583 136.9615981 123.2728337
 105.1220012 144.2004997 136.2899988 104.7770012 143.8194997 137.0969988
 104.9220012 145.1344997 136.3609988 105.0477527 144.2745135 136.4100689
 108.2190012 138.6974997 124.9129988 109.1110012 138.5604997 125.2319988
 108.2760012 139.4884997 124.3759988 108.3486504 138.7856052 124.8840818
  98.7280012 143.3114997 130.8229988  99.4730012 143.3094997 130.2219988
  98.8060012 142.4884997 131.3039988  98.8404995 143.1998887 130.8058282
  95.7360012 141.7724997 136.1379988  95.9590012 141.3544997 136.9699988
  95.1340012 141.1594997 135.7149988  95.6851759 141.6324668 136.1947022
 102.7520012 141.2894997 138.3509988 102.4560012 141.1234997 137.4559988
 103.6840012 141.0694997 138.3399988 102.8374166 141.2370640 138.2270536
 113.1040012 138.9074997 124.6079988 112.5500012 138.5114997 123.9359988
 113.2040012 139.8174997 124.3299988 113.0417059 138.9763586 124.4784401
 113.0670012 144.7074997 137.4449988 112.2160012 144.9454997 137.0779988
 113.6580012 144.6904997 136.6919988 113.0302487 144.7378258 137.2928893
 108.5600012 142.5014997 132.0939988 107.6310012 142.2694997 132.0669988
 109.0110012 141.7244997 131.7639988 108.4939216 142.3647238 132.0456917
  96.8580012 141.6914997 122.8139988  97.4740012 142.3184997 123.1939988
  95.9960012 142.0074997 123.0859988  96.8257698 141.8199430 122.9027183
 102.5300012 144.4924997 127.8029988 102.2890012 145.4174997 127.8449988
 101.7890012 144.0334997 128.1999988 102.3969225 144.5570933 127.8623742
 106.5890012 144.7404997 133.8189988 106.1630012 144.5134997 134.6459988
 107.1690012 144.0024997 133.6369988 106.6091868 144.6095299 133.9075830
  97.3700012 136.5254997 135.6959988  96.4770012 136.8644997 135.6279988
  97.2710012 135.6704997 136.1139988  97.2344164 136.4562588 135.7432235
 109.6580012 144.3424997 125.1199988 109.3800012 143.6144997 125.6759988
 110.5850012 144.4614997 125.3249988 109.7453124 144.2588802 125.2238845
  98.2730012 143.6044997 124.3069988  97.5870012 143.9564997 124.8739988
  98.7950012 144.3674997 124.0599988  98.2496852 143.7558578 124.3512118
 106.1040012 136.2664997 134.5859988 106.8030012 136.3404997 135.2359988
 105.7230012 135.4024997 134.7399988 106.1481767 136.1597624 134.6958322
 106.8890012 135.9184997 125.6829988 107.1090012 136.3904997 124.8799988
 107.4470012 136.3134997 126.3529988 106.9944968 136.0364285 125.6637331
 104.0890012 137.6464997 126.5179988 104.9010012 138.1514997 126.5639988
 103.8440012 137.5014997 127.4319988 104.1670520 137.6960375 126.6478517
 104.6240012 138.6324997 135.7019988 104.7430012 139.2064997 136.4599988
 105.2800012 137.9444997 135.8169988 104.7289025 138.6179858 135.8211321
 104.9720012 134.7274997 127.4559988 104.6260012 135.3454997 128.0999988
 105.6310012 135.2284997 126.9739988 105.0136968 134.8796278 127.4789383
 100.6300012 135.7904997 124.1429988 100.5470012 136.6794997 124.4899988
 101.5200012 135.5254997 124.3749988 100.7389469 135.8761430 124.2217626
 110.8290012 136.5394997 136.5369988 109.9120012 136.8024997 136.4499988
 111.1640012 136.5364997 135.6409988 110.7488613 136.5750761 136.4038837
 109.4310012 140.2904997 130.6329988 108.6330012 139.8754997 130.3049988
 109.8760012 139.5994997 131.1239988 109.3819885 140.1403543 130.6544889
  97.2050012 138.8824997 122.3199988  97.1600012 139.8214997 122.4979988
  96.3170012 138.6464997 122.0499988  97.0788574 138.9791892 122.3078912
  98.0130012 133.6644997 130.9929988  97.7840012 133.7234997 130.0649988
  97.5700012 132.8724997 131.2989988  97.9218530 133.5655753 130.9074786
  96.1380012 144.0274997 139.4369988  96.2820012 143.1254997 139.1509988
  95.3660012 144.3134997 138.9499988  96.0532753 143.9426816 139.3319505
 100.4800012 144.3714997 121.5699988 100.5440012 143.5774997 122.1009988
 101.1330012 144.2524997 120.8799988 100.5770241 144.2467148 121.5494317
 102.7940012 143.9974997 138.8699988 102.4650012 144.2684997 138.0129988
 102.9460012 143.0564997 138.7829988 102.7694809 143.9073862 138.7408244
 108.5280012 143.9134997 136.2529988 109.2740012 144.5014997 136.1339988
 107.7710012 144.4954997 136.3169988 108.5277820 144.0727143 136.2453590
  96.9710012 141.2274997 138.8569988  97.3790012 140.3704997 138.7359988
  96.7110012 141.2424997 139.7779988  96.9917568 141.1120807 138.9649588
 101.6290012 142.3434997 123.8759988 101.1690012 141.8594997 124.5619988
 101.8840012 141.6754997 123.2399988 101.6004902 142.1868731 123.8839334
 100.9180012 140.2364997 136.2319988 100.3000012 140.9114997 136.5119988
 101.2620012 140.5574997 135.3979988 100.8799132 140.3722411 136.1576262
 102.7000012 140.5864997 122.1379988 102.5200012 140.4324997 121.2109988
 103.6500012 140.6944997 122.1829988 102.8037776 140.5800175 122.0171843
 105.9380012 142.7084997 139.5089988 106.8910012 142.7914997 139.4819988
 105.7770012 141.9964997 140.1289988 106.0466426 142.6236746 139.5890578
 112.0900012 142.9414997 121.5839988 111.8160012 142.5164997 120.7709988
 112.1290012 143.8724997 121.3669988 112.0577699 143.0092484 121.4433610
 101.2570012 137.5914997 137.3139988 101.4070012 136.8624997 136.7119988
 101.2600012 138.3684997 136.7549988 101.2779302 137.5967851 137.1560692
 101.6700012 135.9614997 134.8069988 102.2060012 136.4124997 134.1549988
 100.8180012 135.8534997 134.3839988 101.6282178 136.0086390 134.6605756
 103.2520012 141.4004997 135.0459988 104.0020012 141.2444997 134.4729988
 102.9130012 142.2524997 134.7709988 103.3088921 141.4942968 134.9303561
 107.6670012 139.2154997 140.0749988 107.8600012 138.2844997 139.9629988
 108.5250012 139.6404997 140.0639988 107.8092934 139.1456531 140.0582031
 108.9840012 142.0044997 138.1519988 108.7030012 142.7134997 137.5739988
 109.9270012 141.9314997 138.0009988 109.0729291 142.0916711 138.0524967
  99.7360012 138.7894997 139.2259988  98.9690012 138.2574997 139.0149988
 100.4150012 138.4794997 138.6259988  99.7227877 138.6748300 139.1160716
 102.4760012 133.4174997 135.2379988 102.3770012 134.3644997 135.1329988
 101.7330012 133.0454997 134.7619988 102.3621184 133.4965863 135.1593621
 103.7400012 137.7394997 138.8019988 103.5040012 137.5194997 139.7029988
 102.9560012 137.5324997 138.2919988 103.6018504 137.6814586 138.8563431
 106.4550012 136.8664997 137.8769988 105.5080012 136.8984997 138.0099988
 106.7680012 136.2414997 138.5309988 106.3676707 136.7863998 137.9836060
 108.0890012 135.5004997 139.8829988 107.9930012 134.5484997 139.8769988
 107.7680012 135.7694997 140.7429988 108.0324070 135.4064035 139.9985441
  97.9160012 136.7104997 138.9299988  98.1280012 136.0034997 138.3199988
  97.8050012 136.2724997 139.7739988  97.9299721 136.5547084 138.9606843
 102.6970012 132.7114997 137.9089988 103.4090012 132.0714997 137.8949988
 102.5960012 132.9784997 136.9959988 102.7808066 132.6600079 137.7835677
 103.0510012 134.3944997 139.9629988 102.9190012 133.9184997 139.1429988
 102.4520012 135.1384997 139.9079988 102.9519071 134.4299618 139.8432886
 112.5480012 143.8104997 125.5589988 113.3980012 144.2314997 125.6859988
 112.5540012 143.0704997 126.1659988 112.6651372 143.7680803 125.6584344
 112.9430012 141.8634997 127.3819988 112.2160012 141.3844997 127.7799988
 113.5240012 142.0694997 128.1149988 112.9220473 141.8258103 127.5354528
 112.7020012 144.6484997 132.3299988 113.5350012 144.2704997 132.0499988
 112.8140012 145.5914997 132.2109988 112.8312647 144.7242218 132.2755487
 113.2110012 141.7644997 123.7739988 112.6890012 142.1214997 123.0549988
 113.1780012 142.4394997 124.4519988 113.1351634 141.9045413 123.7673145
 111.5600012 139.0044997 122.3239988 111.6560012 139.6714997 121.6439988
 111.4200012 138.1884997 121.8429988 111.5542272 138.9855655 122.1658347
 110.7290012 140.3844997 127.9449988 110.5790012 139.4394997 127.9249988
 110.3760012 140.6654997 128.7889988 110.6607448 140.2931481 128.0563705
  95.7650012 142.4624997 131.9559988  95.9490012 142.3804997 131.0199988
  96.6140012 142.3384997 132.3789988  95.9050151 142.4345073 131.8851451
 111.5860012 142.3544997 137.5839988 112.1690012 141.6204997 137.7759988
 112.1500012 143.1264997 137.6309988 111.7419769 142.3584227 137.6166159
 113.0820012 140.2574997 138.2689988 112.2190012 139.8784997 138.1029988
 113.6870012 139.5184997 138.1939988 113.0456119 140.1058268 138.2361528
 110.8070012 136.4124997 121.4419988 111.4180012 136.0414997 122.0789988
 109.9710012 135.9914997 121.6379988 110.7775032 136.3047554 121.5557035
 110.4400012 137.9674997 126.4079988 110.7200012 137.0604997 126.5319988
 111.1990012 138.4014997 126.0189988 110.5809277 137.9020942 126.3723682
 111.0520012 138.5484997 131.8439988 111.9850012 138.7604997 131.8089988
 110.8170012 138.6504997 132.7659988 111.1479244 138.5913100 131.9638892
 111.0810012 139.2854997 134.6199988 110.2380012 139.5534997 134.9859988
 111.5230012 140.1074997 134.4089988 111.0254158 139.4333291 134.6415491
  95.3620012 137.7334997 138.0969988  96.2820012 137.6114997 138.3329988
  94.9130012 136.9834997 138.4859988  95.4271580 137.6153727 138.1819006
 113.3640012 133.2654997 139.9729988 113.7140012 132.6114997 139.3679988
 113.5110012 134.1024997 139.5329988 113.4317887 133.2891548 139.8306858
 111.0530012 135.2304997 126.4559988 111.2360012 134.7814997 127.2819988
 110.4540012 134.6454997 125.9929988 110.9970202 135.0899975 126.5063275
  96.5830012 136.0454997 130.9879988  97.0290012 135.2534997 131.2899988
  97.0500012 136.7614997 131.4179988  96.7070831 136.0340685 131.0874006
  94.8870012 139.0444997 132.0569988  95.3790012 138.8234997 131.2659988
  95.2500012 139.8854997 132.3379988  95.0033126 139.1278357 131.9867531
 112.8840012 135.3744997 138.3219988 111.9660012 135.6454997 138.2869988
 113.0070012 134.8394997 137.5379988 112.7749729 135.3392508 138.2111923
 112.9200012 135.2974997 122.9839988 113.3320012 134.5764997 122.5089988
 113.6020012 135.9674997 123.0429988 113.0685885 135.2892368 122.9268915
  95.2010012 135.3024997 126.1109988  94.2760012 135.5114997 125.9819988
  95.6550012 135.7864997 125.4209988  95.1357292 135.3965343 126.0000720
  95.1650012 134.0404997 134.4549988  94.5000012 133.7944997 135.0989988
  94.7220012 134.6624997 133.8779988  95.0141318 134.0909410 134.4650898
 111.8840012 133.4644997 136.1409988 111.0720012 133.7894997 135.7539988
 112.1170012 132.7044997 135.6079988 111.8042203 133.4062758 136.0158880
 105.3140012 134.9134997 130.4639988 104.6400012 134.2844997 130.7199988
 105.8780012 134.4294997 129.8609988 105.2979230 134.7618744 130.4175340
 110.4570012 133.0214997 130.5769988 111.0610012 133.5684997 130.0749988
 109.5870012 133.3404997 130.3359988 110.4221208 133.1395137 130.4756886
 112.1840012 134.1594997 128.9099988 112.7960012 133.6454997 128.3829988
 112.5660012 135.0374997 128.9329988 112.3193371 134.2077866 128.8410041
  97.6410012 133.5474997 128.2859988  96.8640012 133.3134997 127.7789988
  98.1710012 132.7504997 128.2949988  97.6062330 133.4076988 128.2177742
  96.4770012 133.3454997 124.0899988  96.9160012 133.9564997 123.4979988
  95.8440012 133.8834997 124.5639988  96.4514514 133.5019257 124.0730930
 102.2200012 133.4744997 128.0999988 103.0950012 133.8624997 128.0699988
 102.0840012 133.2594997 129.0219988 102.3213695 133.4985184 128.2206440
 107.7770012 133.5044997 129.7489988 107.8530012 133.5994997 128.7989988
 107.5020012 132.5964997 129.8779988 107.7502321 133.3947867 129.6365079
 109.1300012 133.5304997 125.4409988 108.4280012 134.1454997 125.2309988
 108.6860012 132.6924997 125.5719988 108.9736450 133.5015639 125.4299000
  98.3380012 135.2614997 122.5319988  98.8300012 134.6314997 122.0049988
  98.9620012 135.5574997 123.1949988  98.4895688 135.2153804 122.5495482
 103.3640012 135.5544997 124.9889988 103.5420012 134.9084997 125.6719988
 103.3110012 136.3884997 125.4559988 103.3811999 135.5788009 125.1455917
  97.5990012 134.0614997 137.8039988  97.2330012 133.2964997 138.2459988
  98.5120012 134.0904997 138.0899988  97.6722736 133.9605640 137.9032502
  99.5720012 133.4124997 139.3399988 100.4700012 133.1384997 139.1549988
  99.1850012 132.6694997 139.8039988  99.6426612 133.2745914 139.3773643
 107.9930012 132.7444997 139.5219988 108.0700012 132.3184997 140.3759988
 108.8870012 132.7584997 139.1789988 108.1243428 132.6880880 139.5925310
 125.5750012 142.7034997 128.2449988 125.6640012 143.6474997 128.1129988
 124.9370012 142.4284997 127.5869988 125.5009081 142.7954830 128.1379614
 124.5080012 141.9584997 131.6639988 124.4700012 141.3124997 132.3689988
 124.1860012 141.4924997 130.8929988 124.4592333 141.8069408 131.6562978
 116.8770012 141.5734997 133.2569988 116.9180012 140.9474997 133.9799988
 117.5800012 142.1974997 133.4389988 116.9776363 141.5721196 133.3806044
 128.2140012 144.8974997 129.9649988 127.7740012 144.1774997 130.4159988
 128.2010012 145.6184997 130.5949988 128.1520226 144.8963731 130.1118494
 114.4100012 139.6834997 127.1849988 113.9630012 140.5294997 127.1659988
 113.8490012 139.1034997 126.6689988 114.2729900 139.7209916 127.1126801
 115.1210012 141.8454997 129.3099988 115.3340012 141.0754997 129.8379988
 115.8590012 141.9344997 128.7069988 115.2499044 141.7521968 129.3007123
 122.8980012 144.3914997 132.0699988 123.2020012 143.7054997 131.4749988
 123.6190012 144.5094997 132.6879988 123.0370671 144.3136305 132.0721816
 131.5610012 135.9924997 132.9309988 131.6100012 136.6024997 133.6659988
 131.9860012 136.4534997 132.2079988 131.6251746 136.1383796 132.9339175
 126.0390012 138.7854997 132.3969988 126.1810012 137.8394997 132.4179988
 125.9320012 138.9924997 131.4689988 126.0439919 138.6838246 132.2743408
 119.1930012 136.8864997 129.6699988 119.2370012 137.7464997 129.2509988
 118.7360012 136.3344997 129.0359988 119.1372240 136.9294422 129.5269864
 126.9160012 137.0174997 128.0709988 127.5620012 136.6884997 128.6949988
 127.4260012 137.5354997 127.4479988 127.0734299 137.0424450 128.0722731
 115.8140012 139.2834997 130.4319988 116.4670012 138.7334997 130.8639988
 115.8380012 139.0094997 129.5149988 115.9066683 139.1711466 130.3672123
 120.9700012 140.8334997 129.6469988 121.5860012 140.3074997 130.1569988
 120.3840012 140.1934997 129.2439988 120.9750810 140.6749208 129.6623173
 131.9520012 137.4704997 135.1659988 131.2640012 138.1284997 135.0709988
 131.9680012 137.2734997 136.1029988 131.8599540 137.5339819 135.2795990
 118.0040012 135.8044997 133.7439988 117.7850012 136.3344997 132.9779988
 117.3360012 136.0314997 134.3909988 117.8837600 135.9076906 133.7266379
 120.5730012 143.4804997 134.0309988 119.8330012 144.0784997 134.1349988
 121.2870012 144.0344997 133.7159988 120.5682237 143.6372831 134.0026465
 128.6800012 136.3084997 130.0509988 128.4640012 135.5424997 130.5839988
 129.3350012 136.7804997 130.5639988 128.7390632 136.2675889 130.1932861
 117.5970012 137.6964997 131.6959988 118.2110012 138.3294997 132.0689988
 118.1090012 137.2244997 131.0399988 117.7501981 137.7192267 131.6582908
 129.0270012 135.0234997 133.7309988 128.2910012 135.6344997 133.6929988
 129.7100012 135.4384997 133.2039988 129.0186541 135.1631374 133.6545832
 122.0300012 133.1104997 131.1959988 121.9130012 132.1614997 131.1419988
 121.1750012 133.4424997 131.4699988 121.8984212 133.0255571 131.2256497
 129.8240012 144.9854997 135.9239988 129.9640012 144.3944997 135.1849988
 129.9910012 145.8584997 135.5679988 129.8657411 145.0225428 135.7746894
 124.2970012 141.9474997 125.6969988 123.5850012 142.4824997 125.3449988
 124.9880012 142.0034997 125.0369988 124.2930132 142.0282543 125.5596289
 124.3500012 140.4054997 122.7359988 125.0510012 140.4274997 123.3869988
 124.6530012 139.7774997 122.0789988 124.4868133 140.3237070 122.7363369
 131.6660012 141.3254997 133.9899988 131.0130012 142.0204997 134.0799988
 132.1310012 141.5354997 133.1809988 131.6395274 141.4490643 133.8928462
 127.7020012 142.1574997 126.6489988 126.9700012 142.3854997 127.2219988
 128.1500012 141.4434997 127.1029988 127.6622725 142.0922145 126.7888816
 127.6000012 140.3314997 135.7159988 127.6800012 141.0944997 136.2879988
 126.9980012 140.6104997 135.0259988 127.5295756 140.4737134 135.7010589
 119.3480012 142.7874997 128.5309988 119.0170012 142.4174997 127.7129988
 119.9360012 142.1174997 128.8779988 119.3821873 142.6461156 128.4658102
 119.7140012 141.5564997 132.1649988 120.2800012 141.6774997 131.4019988
 120.0330012 142.1934997 132.8029988 119.8345474 141.6592219 132.1469862
 126.5730012 141.3194997 124.3339988 127.1530012 141.4694997 125.0809988
 126.9870012 141.7904997 123.6099988 126.7082997 141.4036578 124.3384058
 117.5140012 142.1534997 136.1099988 117.5850012 142.8044997 136.8089988
 116.6240012 142.2564997 135.7749988 117.4033005 142.2565427 136.1603495
 130.2720012 133.0694997 124.1469988 129.3720012 133.2084997 124.4419988
 130.5240012 133.9004997 123.7449988 130.1828702 133.2009074 124.1330205
 118.3380012 141.8574997 126.1199988 118.0460012 142.6254997 125.6299988
 117.6640012 141.1974997 125.9579988 118.2068111 141.8735587 126.0308978
 114.4310012 144.2204997 134.9349988 113.9300012 144.1924997 134.1199988
 114.4360012 143.3144997 135.2449988 114.3630944 144.0942396 134.8653226
 129.5310012 139.1594997 137.9819988 129.1240012 139.6404997 137.2609988
 129.5720012 138.2544997 137.6739988 129.4808437 139.1029374 137.8416683
 119.2990012 134.0134997 131.9739988 118.4370012 133.9264997 131.5659988
 119.2760012 134.8694997 132.4019988 119.1780409 134.1172883 131.9760589
 123.9620012 133.7354997 135.3489988 124.3820012 133.3204997 136.1019988
 123.0290012 133.5574997 135.4659988 123.8933644 133.6545900 135.4679539
 127.2880012 137.4914997 136.2019988 126.7740012 137.3654997 136.9999988
 127.1330012 138.4034997 135.9579988 127.1966852 137.5976132 136.2782158
 128.0510012 142.3524997 121.9639988 128.0930012 142.1294997 121.0339988
 128.9000012 142.7514997 122.1529988 128.1715280 142.3759438 121.8623554
 123.6230012 136.2284997 122.6339988 123.3700012 136.2474997 123.5569988
 123.3670012 135.3564997 122.3319988 123.5537481 136.1132558 122.7196175
 119.3900012 138.9794997 133.0689988 118.7480012 138.9384997 133.7779988
 119.4270012 139.9054997 132.8309988 119.3070664 139.0991430 133.1339219
 119.3870012 139.2004997 127.9809988 118.4940012 138.8594997 127.9219988
 119.8370012 138.8234997 127.2249988 119.3258130 139.1029631 127.8707702
 124.9220012 139.6164997 126.7979988 124.5130012 140.4314997 126.5069988
 125.6430012 139.4764997 126.1839988 124.9634537 139.7092018 126.6751342
 124.0240012 139.7914997 138.2859988 123.4620012 139.0874997 138.6069988
 124.8510012 139.6714997 138.7539988 124.0587095 139.6787883 138.3932330
 125.9270012 139.0624997 129.6119988 125.7320012 139.6674997 128.8969988
 126.1080012 138.2284997 129.1779988 125.9247614 139.0326300 129.4554405
 117.1400012 139.2994997 134.9359988 117.1020012 139.6994997 135.8049988
 116.6490012 138.4824997 135.0269988 117.0684684 139.2438069 135.0671059
 120.5060012 136.6734997 121.7349988 120.0750012 136.2284997 122.4649988
 119.7880012 137.0454997 121.2229988 120.3499438 136.6628940 121.7656799
 113.7480012 136.4154997 128.7869988 114.3790012 136.3864997 129.5059988
 114.1970012 135.9904997 128.0559988 113.8950918 136.3540836 128.7866441
 115.0220012 137.1614997 124.2109988 115.4960012 137.7524997 123.6259988
 114.3050012 137.6924997 124.5579988 114.9899341 137.3140867 124.1778836
 125.1910012 140.7004997 134.2829988 125.5140012 140.0694997 133.6399988
 124.7510012 140.1654997 134.9439988 125.1757484 140.5418387 134.2843198
 121.9680012 136.6274997 129.0669988 121.0570012 136.6844997 129.3559988
 122.4740012 136.5674997 129.8779988 121.9116899 136.6271941 129.2161184
 116.7970012 138.2564997 127.8939988 115.9070012 138.3564997 127.5539988
 117.0930012 137.4144997 127.5479988 116.7152823 138.1563545 127.8007213
 120.4500012 138.2564997 125.5509988 121.3810012 138.3854997 125.7289988
 120.2350012 138.9264997 124.9009988 120.5484247 138.3646565 125.4875747
 126.3730012 135.8624997 132.3319988 125.6970012 135.9934997 132.9959988
 125.8880012 135.7074997 131.5209988 126.2147146 135.8595157 132.3134469
 119.1240012 139.4514997 123.1169988 118.5810012 139.0714997 122.4259988
 119.9570012 139.6454997 122.6889988 119.1623631 139.4257125 122.9644501
 117.2590012 144.0084997 138.2159988 117.9910012 144.2624997 138.7779988
 116.4790012 144.2124997 138.7319988 117.2537073 144.0708160 138.3626151
 123.2880012 139.4154997 130.9539988 123.8530012 138.8684997 130.4069988
 123.1410012 138.8934997 131.7429988 123.3453380 139.2702259 130.9858695
 118.2900012 135.5514997 127.3729988 117.9730012 134.6494997 127.3369988
 119.0720012 135.5534997 126.8199988 118.3522408 135.4282474 127.2933569
 121.9150012 137.8034997 133.3679988 121.0790012 138.2574997 133.4789988
 122.4390012 138.0794997 134.1199988 121.8715416 137.9028660 133.4848119
 122.4590012 144.0164997 125.0529988 121.7140012 143.5094997 124.7309988
 122.3250012 144.0654997 125.9999988 122.3388776 143.9536940 125.1368647
 129.6090012 143.1494997 133.8399988 130.2510012 143.6064997 133.2959988
 128.7790012 143.2624997 133.3769988 129.5845963 143.2272704 133.7030177
 126.3570012 136.8304997 123.2519988 125.4180012 136.9424997 123.1009988
 126.6540012 137.6874997 123.5589988 126.2687583 136.9615981 123.2728337
 123.9780012 144.2004997 136.2899988 123.6330012 143.8194997 137.0969988
 123.7780012 145.1344997 136.3609988 123.9037527 144.2745135 136.4100689
 127.0750012 138.6974997 124.9129988 127.9670012 138.5604997 125.2319988
 127.1320012 139.4884997 124.3759988 127.2046504 138.7856052 124.8840818
 117.5840012 143.3114997 130.8229988 118.3290012 143.3094997 130.2219988
 117.6620012 142.4884997 131.3039988 117.6964995 143.1998887 130.8058282
 114.5920012 141.7724997 136.1379988 114.8150012 141.3544997 136.9699988
 113.9900012 141.1594997 135.7149988 114.5411759 141.6324668 136.1947022
 121.6080012 141.2894997 138.3509988 121.3120012 141.1234997 137.4559988
 122.5400012 141.0694997 138.3399988 121.6934166 141.2370640 138.2270536
 131.9600012 138.9074997 124.6079988 131.4060012 138.5114997 123.9359988
 132.0600012 139.8174997 124.3299988 131.8977059 138.9763586 124.4784401
 131.9230012 144.7074997 137.4449988 131.0720012 144.9454997 137.0779988
 132.5140012 144.6904997 136.6919988 131.8862487 144.7378258 137.2928893
 127.4160012 142.5014997 132.0939988 126.4870012 142.2694997 132.0669988
 127.8670012 141.7244997 131.7639988 127.3499216 142.3647238 132.0456917
 115.7140012 141.6914997 122.8139988 116.3300012 142.3184997 123.1939988
 114.8520012 142.0074997 123.0859988 115.6817698 141.8199430 122.9027183
 121.3860012 144.4924997 127.8029988 121.1450012 145.4174997 127.8449988
 120.6450012 144.0334997 128.1999988 121.2529225 144.5570933 127.8623742
 125.4450012 144.7404997 133.8189988 125.0190012 144.5134997 134.6459988
 126.0250012 144.0024997 133.6369988 125.4651868 144.6095299 133.9075830
 116.2260012 136.5254997 135.6959988 115.3330012 136.8644997 135.6279988
 116.1270012 135.6704997 136.1139988 116.0904164 136.4562588 135.7432235
 128.5140012 144.3424997 125.1199988 128.2360012 143.6144997 125.6759988
 129.4410012 144.4614997 125.3249988 128.6013124 144.2588802 125.2238845
 117.1290012 143.6044997 124.3069988 116.4430012 143.9564997 124.8739988
 117.6510012 144.3674997 124.0599988 117.1056852 143.7558578 124.3512118
 124.9600012 136.2664997 134.5859988 125.6590012 136.3404997 135.2359988
 124.5790012 135.4024997 134.7399988 125.0041767 136.1597624 134.6958322
 125.7450012 135.9184997 125.6829988 125.9650012 136.3904997 124.8799988
 126.3030012 136.3134997 126.3529988 125.8504968 136.0364285 125.6637331
 122.9450012 137.6464997 126.5179988 123.7570012 138.1514997 126.5639988
 122.7000012 137.5014997 127.4319988 123.0230520 137.6960375 126.6478517
 123.4800012 138.6324997 135.7019988 123.5990012 139.2064997 136.4599988
 124.1360012 137.9444997 135.8169988 123.5849025 138.6179858 135.8211321
 123.8280012 134.7274997 127.4559988 123.4820012 135.3454997 128.0999988
 124.4870012 135.2284997 126.9739988 123.8696968 134.8796278 127.4789383
 119.4860012 135.7904997 124.1429988 119.4030012 136.6794997 124.4899988
 120.3760012 135.5254997 124.3749988 119.5949469 135.8761430 124.2217626
 129.6850012 136.5394997 136.5369988 128.7680012 136.8024997 136.4499988
 130.0200012 136.5364997 135.6409988 129.6048613 136.5750761 136.4038837
 128.2870012 140.2904997 130.6329988 127.4890012 139.8754997 130.3049988
 128.7320012 139.5994997 131.1239988 128.2379885 140.1403543 130.6544889
 116.0610012 138.8824997 122.3199988 116.0160012 139.8214997 122.4979988
 115.1730012 138.6464997 122.0499988 115.9348574 138.9791892 122.3078912
 116.8690012 133.6644997 130.9929988 116.6400012 133.7234997 130.0649988
 116.4260012 132.8724997 131.2989988 116.7778530 133.5655753 130.9074786
 114.9940012 144.0274997 139.4369988 115.1380012 143.1254997 139.1509988
 114.2220012 144.3134997 138.9499988 114.9092753 143.9426816 139.3319505
 119.3360012 144.3714997 121.5699988 119.4000012 143.5774997 122.1009988
 119.9890012 144.2524997 120.8799988 119.4330241 144.2467148 121.5494317
 121.6500012 143.9974997 138.8699988 121.3210012 144.2684997 138.0129988
 121.8020012 143.0564997 138.7829988 121.6254809 143.9073862 138.7408244
 127.3840012 143.9134997 136.2529988 128.1300012 144.5014997 136.1339988
 126.6270012 144.4954997 136.3169988 127.3837820 144.0727143 136.2453590
 115.8270012 141.2274997 138.8569988 116.2350012 140.3704997 138.7359988
 115.5670012 141.2424997 139.7779988 115.8477568 141.1120807 138.9649588
 120.4850012 142.3434997 123.8759988 120.0250012 141.8594997 124.5619988
 120.7400012 141.6754997 123.2399988 120.4564902 142.1868731 123.8839334
 119.7740012 140.2364997 136.2319988 119.1560012 140.9114997 136.5119988
 120.1180012 140.5574997 135.3979988 119.7359132 140.3722411 136.1576262
 121.5560012 140.5864997 122.1379988 121.3760012 140.4324997 121.2109988
 122.5060012 140.6944997 122.1829988 121.6597776 140.5800175 122.0171843
 124.7940012 142.7084997 139.5089988 125.7470012 142.7914997 139.4819988
 124.6330012 141.9964997 140.1289988 124.9026426 142.6236746 139.5890578
 130.9460012 142.9414997 121.5839988 130.6720012 142.5164997 120.7709988
 130.9850012 143.8724997 121.3669988 130.9137699 143.0092484 121.4433610
 120.1130012 137.5914997 137.3139988 120.2630012 136.8624997 136.7119988
 120.1160012 138.3684997 136.7549988 120.1339302 137.5967851 137.1560692
 120.5260012 135.9614997 134.8069988 121.0620012 136.4124997 134.1549988
 119.6740012 135.8534997 134.3839988 120.4842178 136.0086390 134.6605756
 122.1080012 141.4004997 135.0459988 122.8580012 141.2444997 134.4729988
 121.7690012 142.2524997 134.7709988 122.1648921 141.4942968 134.9303561
 126.5230012 139.2154997 140.0749988 126.7160012 138.2844997 139.9629988
 127.3810012 139.6404997 140.0639988 126.6652934 139.1456531 140.0582031
 127.8400012 142.0044997 138.1519988 127.5590012 142.7134997 137.5739988
 128.7830012 141.9314997 138.0009988 127.9289291 142.0916711 138.0524967
 118.5920012 138.7894997 139.2259988 117.8250012 138.2574997 139.0149988
 119.2710012 138.4794997 138.6259988 118.5787877 138.6748300 139.1160716
 121.3320012 133.4174997 135.2379988 121.2330012 134.3644997 135.1329988
 120.5890012 133.0454997 134.7619988 121.2181184 133.4965863 135.1593621
 122.5960012 137.7394997 138.8019988 122.3600012 137.5194997 139.7029988
 121.8120012 137.5324997 138.2919988 122.4578504 137.6814586 138.8563431
 125.3110012 136.8664997 137.8769988 124.3640012 136.8984997 138.0099988
 125.6240012 136.2414997 138.5309988 125.2236707 136.7863998 137.9836060
 126.9450012 135.5004997 139.8829988 126.8490012 134.5484997 139.8769988
 126.6240012 135.7694997 140.7429988 126.8884070 135.4064035 139.9985441
 116.7720012 136.7104997 138.9299988 116.9840012 136.0034997 138.3199988
 116.6610012 136.2724997 139.7739988 116.7859721 136.5547084 138.9606843
 121.5530012 132.7114997 137.9089988 122.2650012 132.0714997 137.8949988
 121.4520012 132.9784997 136.9959988 121.6368066 132.6600079 137.7835677
 121.9070012 134.3944997 139.9629988 121.7750012 133.9184997 139.1429988
 121.3080012 135.1384997 139.9079988 121.8079071 134.4299618 139.8432886
 131.4040012 143.8104997 125.5589988 132.2540012 144.2314997 125.6859988
 131.4100012 143.0704997 126.1659988 131.5211372 143.7680803 125.6584344
 131.7990012 141.8634997 127.3819988 131.0720012 141.3844997 127.7799988
 132.3800012 142.0694997 128.1149988 131.7780473 141.8258103 127.5354528
 131.5580012 144.6484997 132.3299988 132.3910012 144.2704997 132.0499988
 131.6700012 145.5914997 132.2109988 131.6872647 144.7242218 132.2755487
 132.0670012 141.7644997 123.7739988 131.5450012 142.1214997 123.0549988
 132.0340012 142.4394997 124.4519988 131.9911634 141.9045413 123.7673145
 130.4160012 139.0044997 122.3239988 130.5120012 139.6714997 121.6439988
 130.2760012 138.1884997 121.8429988 130.4102272 138.9855655 122.1658347
 129.5850012 140.3844997 127.9449988 129.4350012 139.4394997 127.9249988
 129.2320012 140.6654997 128.7889988 129.5167448 140.2931481 128.0563705
 114.6210012 142.4624997 131.9559988 114.8050012 142.3804997 131.0199988
 115.4700012 142.3384997 132.3789988 114.7610151 142.4345073 131.8851451
 130.4420012 142.3544997 137.5839988 131.0250012 141.6204997 137.7759988
 131.0060012 143.1264997 137.6309988 130.5979769 142.3584227 137.6166159
 131.9380012 140.2574997 138.2689988 131.0750012 139.8784997 138.1029988
 132.5430012 139.5184997 138.1939988 131.9016119 140.1058268 138.2361528
 129.6630012 136.4124997 121.4419988 130.2740012 136.0414997 122.0789988
 128.8270012 135.9914997 121.6379988 129.6335032 136.3047554 121.5557035
 129.2960012 137.9674997 126.4079988 129.5760012 137.0604997 126.5319988
 130.0550012 138.4014997 126.0189988 129.4369277 137.9020942 126.3723682
 129.9080012 138.5484997 131.8439988 130.8410012 138.7604997 131.8089988
 129.6730012 138.6504997 132.7659988 130.0039244 138.5913100 131.9638892
 129.9370012 139.2854997 134.6199988 129.0940012 139.5534997 134.9859988
 130.3790012 140.1074997 134.4089988 129.8814158 139.4333291 134.6415491
 114.2180012 137.7334997 138.0969988 115.1380012 137.6114997 138.3329988
 113.7690012 136.9834997 138.4859988 114.2831580 137.6153727 138.1819006
 132.2200012 133.2654997 139.9729988 132.5700012 132.6114997 139.3679988
 132.3670012 134.1024997 139.5329988 132.2877887 133.2891548 139.8306858
 129.9090012 135.2304997 126.4559988 130.0920012 134.7814997 127.2819988
 129.3100012 134.6454997 125.9929988 129.8530202 135.0899975 126.5063275
 115.4390012 136.0454997 130.9879988 115.8850012 135.2534997 131.2899988
 115.9060012 136.7614997 131.4179988 115.5630831 136.0340685 131.0874006
 113.7430012 139.0444997 132.0569988 114.2350012 138.8234997 131.2659988
 114.1060012 139.8854997 132.3379988 113.8593126 139.1278357 131.9867531
 131.7400012 135.3744997 138.3219988 130.8220012 135.6454997 138.2869988
 131.8630012 134.8394997 137.5379988 131.6309729 135.3392508 138.2111923
 131.7760012 135.2974997 122.9839988 132.1880012 134.5764997 122.5089988
 132.4580012 135.9674997 123.0429988 131.9245885 135.2892368 122.9268915
 114.0570012 135.3024997 126.1109988 113.1320012 135.5114997 125.9819988
 114.5110012 135.7864997 125.4209988 113.9917292 135.3965343 126.0000720
 114.0210012 134.0404997 134.4549988 113.3560012 133.7944997 135.0989988
 113.5780012 134.6624997 133.8779988 113.8701318 134.0909410 134.4650898
 130.7400012 133.4644997 136.1409988 129.9280012 133.7894997 135.7539988
 130.9730012 132.7044997 135.6079988 130.6602203 133.4062758 136.0158880
 124.1700012 134.9134997 130.4639988 123.4960012 134.2844997 130.7199988
 124.7340012 134.4294997 129.8609988 124.1539230 134.7618744 130.4175340
 129.3130012 133.0214997 130.5769988 129.9170012 133.5684997 130.0749988
 128.4430012 133.3404997 130.3359988 129.2781208 133.1395137 130.4756886
 131.0400012 134.1594997 128.9099988 131.6520012 133.6454997 128.3829988
 131.4220012 135.0374997 128.9329988 131.1753371 134.2077866 128.8410041
 116.4970012 133.5474997 128.2859988 115.7200012 133.3134997 127.7789988
 117.0270012 132.7504997 128.2949988 116.4622330 133.4076988 128.2177742
 115.3330012 133.3454997 124.0899988 115.7720012 133.9564997 123.4979988
 114.7000012 133.8834997 124.5639988 115.3074514 133.5019257 124.0730930
 121.0760012 133.4744997 128.0999988 121.9510012 133.8624997 128.0699988
 120.9400012 133.2594997 129.0219988 121.1773695 133.4985184 128.2206440
 126.6330012 133.5044997 129.7489988 126.7090012 133.5994997 128.7989988
 126.3580012 132.5964997 129.8779988 126.6062321 133.3947867 129.6365079
 127.9860012 133.5304997 125.4409988 127.2840012 134.1454997 125.2309988
 127.5420012 132.6924997 125.5719988 127.8296450 133.5015639 125.4299000
 117.1940012 135.2614997 122.5319988 117.6860012 134.6314997 122.0049988
 117.8180012 135.5574997 123.1949988 117.3455688 135.2153804 122.5495482
 122.2200012 135.5544997 124.9889988 122.3980012 134.9084997 125.6719988
 122.1670012 136.3884997 125.4559988 122.2371999 135.5788009 125.1455917
 116.4550012 134.0614997 137.8039988 116.0890012 133.2964997 138.2459988
 117.3680012 134.0904997 138.0899988 116.5282736 133.9605640 137.9032502
 118.4280012 133.4124997 139.3399988 119.3260012 133.1384997 139.1549988
 118.0410012 132.6694997 139.8039988 118.4986612 133.2745914 139.3773643
 126.8490012 132.7444997 139.5219988 126.9260012 132.3184997 140.3759988
 127.7430012 132.7584997 139.1789988 126.9803428 132.6880880 139.5925310
 144.4310012 142.7034997 128.2449988 144.5200012 143.6474997 128.1129988
 143.7930012 142.4284997 127.5869988 144.3569081 142.7954830 128.1379614
 143.3640012 141.9584997 131.6639988 143.3260012 141.3124997 132.3689988
 143.0420012 141.4924997 130.8929988 143.3152333 141.8069408 131.6562978
 135.7330012 141.5734997 133.2569988 135.7740012 140.9474997 133.9799988
 136.4360012 142.1974997 133.4389988 135.8336363 141.5721196 133.3806044
 133.2660012 139.6834997 127.1849988 132.8190012 140.5294997 127.1659988
 132.7050012 139.1034997 126.6689988 133.1289900 139.7209916 127.1126801
 133.9770012 141.8454997 129.3099988 134.1900012 141.0754997 129.8379988
 134.7150012 141.9344997 128.7069988 134.1059044 141.7521968 129.3007123
 141.7540012 144.3914997 132.0699988 142.0580012 143.7054997 131.4749988
 142.4750012 144.5094997 132.6879988 141.8930671 144.3136305 132.0721816
 144.8950012 138.7854997 132.3969988 145.0370012 137.8394997 132.4179988
 144.7880012 138.9924997 131.4689988 144.8999919 138.6838246 132.2743408
 138.0490012 136.8864997 129.6699988 138.0930012 137.7464997 129.2509988
 137.5920012 136.3344997 129.0359988 137.9932240 136.9294422 129.5269864
 134.6700012 139.2834997 130.4319988 135.3230012 138.7334997 130.8639988
 134.6940012 139.0094997 129.5149988 134.7626683 139.1711466 130.3672123
 139.8260012 140.8334997 129.6469988 140.4420012 140.3074997 130.1569988
 139.2400012 140.1934997 129.2439988 139.8310810 140.6749208 129.6623173
 136.8600012 135.8044997 133.7439988 136.6410012 136.3344997 132.9779988
 136.1920012 136.0314997 134.3909988 136.7397600 135.9076906 133.7266379
 139.4290012 143.4804997 134.0309988 138.6890012 144.0784997 134.1349988
 140.1430012 144.0344997 133.7159988 139.4242237 143.6372831 134.0026465
 136.4530012 137.6964997 131.6959988 137.0670012 138.3294997 132.0689988
 136.9650012 137.2244997 131.0399988 136.6061981 137.7192267 131.6582908
 140.8860012 133.1104997 131.1959988 140.7690012 132.1614997 131.1419988
 140.0310012 133.4424997 131.4699988 140.7544212 133.0255571 131.2256497
 143.1530012 141.9474997 125.6969988 142.4410012 142.4824997 125.3449988
 143.8440012 142.0034997 125.0369988 143.1490132 142.0282543 125.5596289
 143.2060012 140.4054997 122.7359988 143.9070012 140.4274997 123.3869988
 143.5090012 139.7774997 122.0789988 143.3428133 140.3237070 122.7363369
 138.2040012 142.7874997 128.5309988 137.8730012 142.4174997 127.7129988
 138.7920012 142.1174997 128.8779988 138.2381873 142.6461156 128.4658102
 138.5700012 141.5564997 132.1649988 139.1360012 141.6774997 131.4019988
 138.8890012 142.1934997 132.8029988 138.6905474 141.6592219 132.1469862
 136.3700012 142.1534997 136.1099988 136.4410012 142.8044997 136.8089988
 135.4800012 142.2564997 135.7749988 136.2593005 142.2565427 136.1603495
 137.1940012 141.8574997 126.1199988 136.9020012 142.6254997 125.6299988
 136.5200012 141.1974997 125.9579988 137.0628111 141.8735587 126.0308978
 133.2870012 144.2204997 134.9349988 132.7860012 144.1924997 134.1199988
 133.2920012 143.3144997 135.2449988 133.2190944 144.0942396 134.8653226
 138.1550012 134.0134997 131.9739988 137.2930012 133.9264997 131.5659988
 138.1320012 134.8694997 132.4019988 138.0340409 134.1172883 131.9760589
 142.8180012 133.7354997 135.3489988 143.2380012 133.3204997 136.1019988
 141.8850012 133.5574997 135.4659988 142.7493644 133.6545900 135.4679539
 142.4790012 136.2284997 122.6339988 142.2260012 136.2474997 123.5569988
 142.2230012 135.3564997 122.3319988 142.4097481 136.1132558 122.7196175
 138.2460012 138.9794997 133.0689988 137.6040012 138.9384997 133.7779988
 138.2830012 139.9054997 132.8309988 138.1630664 139.0991430 133.1339219
 138.2430012 139.2004997 127.9809988 137.3500012 138.8594997 127.9219988
 138.6930012 138.8234997 127.2249988 138.1818130 139.1029631 127.8707702
 143.7780012 139.6164997 126.7979988 143.3690012 140.4314997 126.5069988
 144.4990012 139.4764997 126.1839988 143.8194537 139.7092018 126.6751342
 142.8800012 139.7914997 138.2859988 142.3180012 139.0874997 138.6069988
 143.7070012 139.6714997 138.7539988 142.9147095 139.6787883 138.3932330
 144.7830012 139.0624997 129.6119988 144.5880012 139.6674997 128.8969988
 144.9640012 138.2284997 129.1779988 144.7807614 139.0326300 129.4554405
 135.9960012 139.2994997 134.9359988 135.9580012 139.6994997 135.8049988
 135.5050012 138.4824997 135.0269988 135.9244684 139.2438069 135.0671059
 139.3620012 136.6734997 121.7349988 138.9310012 136.2284997 122.4649988
 138.6440012 137.0454997 121.2229988 139.2059438 136.6628940 121.7656799
 132.6040012 136.4154997 128.7869988 133.2350012 136.3864997 129.5059988
 133.0530012 135.9904997 128.0559988 132.7510918 136.3540836 128.7866441
 133.8780012 137.1614997 124.2109988 134.3520012 137.7524997 123.6259988
 133.1610012 137.6924997 124.5579988 133.8459341 137.3140867 124.1778836
 144.0470012 140.7004997 134.2829988 144.3700012 140.0694997 133.6399988
 143.6070012 140.1654997 134.9439988 144.0317484 140.5418387 134.2843198
 140.8240012 136.6274997 129.0669988 139.9130012 136.6844997 129.3559988
 141.3300012 136.5674997 129.8779988 140.7676899 136.6271941 129.2161184
 135.6530012 138.2564997 127.8939988 134.7630012 138.3564997 127.5539988
 135.9490012 137.4144997 127.5479988 135.5712823 138.1563545 127.8007213
 139.3060012 138.2564997 125.5509988 140.2370012 138.3854997 125.7289988
 139.0910012 138.9264997 124.9009988 139.4044247 138.3646565 125.4875747
 137.9800012 139.4514997 123.1169988 137.4370012 139.0714997 122.4259988
 138.8130012 139.6454997 122.6889988 138.0183631 139.4257125 122.9644501
 136.1150012 144.0084997 138.2159988 136.8470012 144.2624997 138.7779988
 135.3350012 144.2124997 138.7319988 136.1097073 144.0708160 138.3626151
 142.1440012 139.4154997 130.9539988 142.7090012 138.8684997 130.4069988
 141.9970012 138.8934997 131.7429988 142.2013380 139.2702259 130.9858695
 137.1460012 135.5514997 127.3729988 136.8290012 134.6494997 127.3369988
 137.9280012 135.5534997 126.8199988 137.2082408 135.4282474 127.2933569
 140.7710012 137.8034997 133.3679988 139.9350012 138.2574997 133.4789988
 141.2950012 138.0794997 134.1199988 140.7275416 137.9028660 133.4848119
 141.3150012 144.0164997 125.0529988 140.5700012 143.5094997 124.7309988
 141.1810012 144.0654997 125.9999988 141.1948776 143.9536940 125.1368647
 142.8340012 144.2004997 136.2899988 142.4890012 143.8194997 137.0969988
 142.6340012 145.1344997 136.3609988 142.7597527 144.2745135 136.4100689
 136.4400012 143.3114997 130.8229988 137.1850012 143.3094997 130.2219988
 136.5180012 142.4884997 131.3039988 136.5524995 143.1998887 130.8058282
 133.4480012 141.7724997 136.1379988 133.6710012 141.3544997 136.9699988
 132.8460012 141.1594997 135.7149988 133.3971759 141.6324668 136.1947022
 140.4640012 141.2894997 138.3509988 140.1680012 141.1234997 137.4559988
 141.3960012 141.0694997 138.3399988 140.5494166 141.2370640 138.2270536
 134.5700012 141.6914997 122.8139988 135.1860012 142.3184997 123.1939988
 133.7080012 142.0074997 123.0859988 134.5377698 141.8199430 122.9027183
 140.2420012 144.4924997 127.8029988 140.0010012 145.4174997 127.8449988
 139.5010012 144.0334997 128.1999988 140.1089225 144.5570933 127.8623742
 144.3010012 144.7404997 133.8189988 143.8750012 144.5134997 134.6459988
 144.8810012 144.0024997 133.6369988 144.3211868 144.6095299 133.9075830
 135.0820012 136.5254997 135.6959988 134.1890012 136.8644997 135.6279988
 134.9830012 135.6704997 136.1139988 134.9464164 136.4562588 135.7432235
 135.9850012 143.6044997 124.3069988 135.2990012 143.9564997 124.8739988
 136.5070012 144.3674997 124.0599988 135.9616852 143.7558578 124.3512118
 143.8160012 136.2664997 134.5859988 144.5150012 136.3404997 135.2359988
 143.4350012 135.4024997 134.7399988 143.8601767 136.1597624 134.6958322
 144.6010012 135.9184997 125.6829988 144.8210012 136.3904997 124.8799988
 145.1590012 136.3134997 126.3529988 144.7064968 136.0364285 125.6637331
 141.8010012 137.6464997 126.5179988 142.6130012 138.1514997 126.5639988
 141.5560012 137.5014997 127.4319988 141.8790520 137.6960375 126.6478517
 142.3360012 138.6324997 135.7019988 142.4550012 139.2064997 136.4599988
 142.9920012 137.9444997 135.8169988 142.4409025 138.6179858 135.8211321
 142.6840012 134.7274997 127.4559988 142.3380012 135.3454997 128.0999988
 143.3430012 135.2284997 126.9739988 142.7256968 134.8796278 127.4789383
 138.3420012 135.7904997 124.1429988 138.2590012 136.6794997 124.4899988
 139.2320012 135.5254997 124.3749988 138.4509469 135.8761430 124.2217626
 134.9170012 138.8824997 122.3199988 134.8720012 139.8214997 122.4979988
 134.0290012 138.6464997 122.0499988 134.7908574 138.9791892 122.3078912
 135.7250012 133.6644997 130.9929988 135.4960012 133.7234997 130.0649988
 135.2820012 132.8724997 131.2989988 135.6338530 133.5655753 130.9074786
 133.8500012 144.0274997 139.4369988 133.9940012 143.1254997 139.1509988
 133.0780012 144.3134997 138.9499988 133.7652753 143.9426816 139.3319505
 138.1920012 144.3714997 121.5699988 138.2560012 143.5774997 122.1009988
 138.8450012 144.2524997 120.8799988 138.2890241 144.2467148 121.5494317
 140.5060012 143.9974997 138.8699988 140.1770012 144.2684997 138.0129988
 140.6580012 143.0564997 138.7829988 140.4814809 143.9073862 138.7408244
 134.6830012 141.2274997 138.8569988 135.0910012 140.3704997 138.7359988
 134.4230012 141.2424997 139.7779988 134.7037568 141.1120807 138.9649588
 139.3410012 142.3434997 123.8759988 138.8810012 141.8594997 124.5619988
 139.5960012 141.6754997 123.2399988 139.3124902 142.1868731 123.8839334
 138.6300012 140.2364997 136.2319988 138.0120012 140.9114997 136.5119988
 138.9740012 140.5574997 135.3979988 138.5919132 140.3722411 136.1576262
 140.4120012 140.5864997 122.1379988 140.2320012 140.4324997 121.2109988
 141.3620012 140.6944997 122.1829988 140.5157776 140.5800175 122.0171843
 143.6500012 142.7084997 139.5089988 144.6030012 142.7914997 139.4819988
 143.4890012 141.9964997 140.1289988 143.7586426 142.6236746 139.5890579
 138.9690012 137.5914997 137.3139988 139.1190012 136.8624997 136.7119988
 138.9720012 138.3684997 136.7549988 138.9899302 137.5967851 137.1560692
 139.3820012 135.9614997 134.8069988 139.9180012 136.4124997 134.1549988
 138.5300012 135.8534997 134.3839988 139.3402178 136.0086390 134.6605756
 140.9640012 141.4004997 135.0459988 141.7140012 141.2444997 134.4729988
 140.6250012 142.2524997 134.7709988 141.0208921 141.4942968 134.9303561
 137.4480012 138.7894997 139.2259988 136.6810012 138.2574997 139.0149988
 138.1270012 138.4794997 138.6259988 137.4347877 138.6748300 139.1160716
 140.1880012 133.4174997 135.2379988 140.0890012 134.3644997 135.1329988
 139.4450012 133.0454997 134.7619988 140.0741184 133.4965863 135.1593621
 141.4520012 137.7394997 138.8019988 141.2160012 137.5194997 139.7029988
 140.6680012 137.5324997 138.2919988 141.3138504 137.6814586 138.8563431
 144.1670012 136.8664997 137.8769988 143.2200012 136.8984997 138.0099988
 144.4800012 136.2414997 138.5309988 144.0796707 136.7863998 137.9836060
 135.6280012 136.7104997 138.9299988 135.8400012 136.0034997 138.3199988
 135.5170012 136.2724997 139.7739988 135.6419721 136.5547084 138.9606843
 140.4090012 132.7114997 137.9089988 141.1210012 132.0714997 137.8949988
 140.3080012 132.9784997 136.9959988 140.4928066 132.6600079 137.7835677
 140.7630012 134.3944997 139.9629988 140.6310012 133.9184997 139.1429988
 140.1640012 135.1384997 139.9079988 140.6639071 134.4299618 139.8432886
 133.4770012 142.4624997 131.9559988 133.6610012 142.3804997 131.0199988
 134.3260012 142.3384997 132.3789988 133.6170151 142.4345073 131.8851451
 133.0740012 137.7334997 138.0969988 133.9940012 137.6114997 138.3329988
 132.6250012 136.9834997 138.4859988 133.1391580 137.6153727 138.1819006
 134.2950012 136.0454997 130.9879988 134.7410012 135.2534997 131.2899988
 134.7620012 136.7614997 131.4179988 134.4190831 136.0340685 131.0874006
 132.5990012 139.0444997 132.0569988 133.0910012 138.8234997 131.2659988
 132.9620012 139.8854997 132.3379988 132.7153126 139.1278357 131.9867531
 132.9130012 135.3024997 126.1109988 131.9880012 135.5114997 125.9819988
 133.3670012 135.7864997 125.4209988 132.8477292 135.3965343 126.0000720
 132.8770012 134.0404997 134.4549988 132.2120012 133.7944997 135.0989988
 132.4340012 134.6624997 133.8779988 132.7261318 134.0909410 134.4650898
 143.0260012 134.9134997 130.4639988 142.3520012 134.2844997 130.7199988
 143.5900012 134.4294997 129.8609988 143.0099230 134.7618744 130.4175340
 135.3530012 133.5474997 128.2859988 134.5760012 133.3134997 127.7789988
 135.8830012 132.7504997 128.2949988 135.3182330 133.4076988 128.2177742
 134.1890012 133.3454997 124.0899988 134.6280012 133.9564997 123.4979988
 133.5560012 133.8834997 124.5639988 134.1634514 133.5019257 124.0730930
 139.9320012 133.4744997 128.0999988 140.8070012 133.8624997 128.0699988
 139.7960012 133.2594997 129.0219988 140.0333695 133.4985184 128.2206440
 136.0500012 135.2614997 122.5319988 136.5420012 134.6314997 122.0049988
 136.6740012 135.5574997 123.1949988 136.2015688 135.2153804 122.5495482
 141.0760012 135.5544997 124.9889988 141.2540012 134.9084997 125.6719988
 141.0230012 136.3884997 125.4559988 141.0931999 135.5788009 125.1455917
 135.3110012 134.0614997 137.8039988 134.9450012 133.2964997 138.2459988
 136.2240012 134.0904997 138.0899988 135.3842736 133.9605640 137.9032502
 137.2840012 133.4124997 139.3399988 138.1820012 133.1384997 139.1549988
 136.8970012 132.6694997 139.8039988 137.3546612 133.2745914 139.3773643
  11.2140012   8.4134997 141.5919988  11.9150012   8.4354997 142.2429988
  11.5170012   7.7854997 140.9349988  11.3508133   8.3317070 141.5923369
  13.4370012   9.3274997 143.1899988  14.0170012   9.4774997 143.9369988
  13.8510012   9.7984997 142.4659988  13.5722997   9.4116578 143.1944058
  17.1360012   1.0774997 143.0029988  16.2360012   1.2164997 143.2979988
  17.3880012   1.9084997 142.6009988  17.0468702   1.2089074 142.9890205
  18.3250012  15.4434997 141.3789988  18.3990012  16.3824997 141.5499988
  19.2310012  15.1384997 141.3229988  18.4575100  15.5306722 141.3948119
  13.7380012  18.1744997 142.0419988  14.1130012  17.4304997 141.5709988
  13.7420012  17.9044997 142.9609988  13.7899125  18.0360986 142.1016483
  14.9150012  10.3604997 140.8199988  14.9570012  10.1374997 139.8899988
  15.7640012  10.7594997 141.0089988  15.0355280  10.3839438 140.7183554
  10.4870012   4.2364997 141.4899988  10.2340012   4.2554997 142.4129988
  10.2310012   3.3644997 141.1879988  10.4177481   4.1212558 141.5756175
   7.3700012   4.6814997 140.5909988   6.9390012   4.2364997 141.3209988
   6.6520012   5.0534997 140.0789988   7.2139438   4.6708940 140.6216799
   1.8860012   5.1694997 143.0669988   2.3600012   5.7604997 142.4819988
   1.1690012   5.7004997 143.4139988   1.8539341   5.3220867 143.0338836
   5.9880012   7.4594997 141.9729988   5.4450012   7.0794997 141.2819988
   6.8210012   7.6534997 141.5449988   6.0263631   7.4337125 141.8204501
   9.3230012  12.0244997 143.9089988   8.5780012  11.5174997 143.5869988
   9.1890012  12.0734997 144.8559988   9.2028776  11.9616940 143.9928647
  13.2210012   4.8384997 142.1079988  12.2820012   4.9504997 141.9569988
  13.5180012   5.6954997 142.4149988  13.1327583   4.9695981 142.1288337
  13.9390012   6.7054997 143.7689988  14.8310012   6.5684997 144.0879988
  13.9960012   7.4964997 143.2319988  14.0686504   6.7936052 143.7400818
  11.4490012  13.4834997 142.9349988  11.1530012  14.3094997 143.3159988
  10.7460012  12.8634997 143.1309988  11.3134914  13.5128199 143.0136443
  18.8240012   6.9154997 143.4639988  18.2700012   6.5194997 142.7919988
  18.9240012   7.8254997 143.1859988  18.7617059   6.9843586 143.3344401
  17.1190012  15.7014997 143.9289988  16.7460012  14.8754997 144.2379988
  17.3970012  15.5184997 143.0309988  17.1055222  15.5637430 143.8499473
   2.5780012   9.6994997 141.6699988   3.1940012  10.3264997 142.0499988
   1.7160012  10.0154997 141.9419988   2.5457698   9.8279430 141.7587183
  14.5120012  13.6774997 141.7489988  14.8650012  13.2974997 142.5529988
  13.5630012  13.5844997 141.8359988  14.4320918  13.6128956 141.8708532
  19.0150012  18.1574997 141.9499988  19.7590012  18.7434997 141.8099988
  18.3210012  18.7254997 142.2829988  19.0229899  18.3145798 141.9758778
  15.3780012  12.3504997 143.9759988  15.1000012  11.6224997 144.5319988
  16.3050012  12.4694997 144.1809988  15.4653124  12.2668802 144.0798845
   8.6030012  14.7894997 140.1959988   8.8420012  14.0414997 139.6489988
   8.3340012  14.4014997 141.0289988   8.5993675  14.6346638 140.2336865
   7.5400012  14.3594997 142.6519988   7.6860012  13.8394997 143.4419988
   7.5370012  15.2664997 142.9589988   7.5595792  14.4108842 142.8016117
   3.9930012  11.6124997 143.1629988   3.3070012  11.9644997 143.7299988
   4.5150012  12.3754997 142.9159988   3.9696852  11.7638578 143.2072118
  10.2770012  16.0574997 143.4019988   9.4610012  16.5544997 143.4539988
  10.8070012  16.5324997 142.7619988  10.2369161  16.1897722 143.3225956
   7.6160012  17.1014997 143.3829988   7.7760012  17.9004997 142.8829988
   7.4180012  17.4074997 144.2679988   7.6111637  17.2524020 143.4341144
   6.3500012   3.7984997 142.9989988   6.2670012   4.6874997 143.3459988
   7.2400012   3.5334997 143.2309988   6.4589469   3.8841430 143.0777626
   4.6090012  14.2264997 142.0599988   5.2010012  14.9254997 142.3359988
   5.0680012  13.7934997 141.3399988   4.7521142  14.2637049 142.0004830
   2.9250012   6.8904997 141.1759988   2.8800012   7.8294997 141.3539988
   2.0370012   6.6544997 140.9059988   2.7988574   6.9871892 141.1638912
  10.6410012  16.6524997 140.3349988   9.9970012  16.0214997 140.6559988
  11.4030012  16.1214997 140.1029988  10.6558077  16.4942920 140.3476011
  15.2450012  16.4694997 140.5679988  15.5280012  15.6754997 141.0209988
  15.9850012  16.7024997 140.0079988  15.3838006  16.3923376 140.5542715
   6.2000012  12.3794997 140.4259988   6.2640012  11.5854997 140.9569988
   6.8530012  12.2604997 139.7359988   6.2970241  12.2547148 140.4054317
  11.5520012  13.4264997 140.1619988  11.2830012  13.6064997 141.0629988
  11.3460012  12.5004997 140.0299988  11.4873427  13.3260261 140.2675073
   7.3490012  10.3514997 142.7319988   6.8890012   9.8674997 143.4179988
   7.6040012   9.6834997 142.0959988   7.3204902  10.1948731 142.7399334
   8.4200012   8.5944997 140.9939988   8.2400012   8.4404997 140.0669988
   9.3700012   8.7024997 141.0389988   8.5237776   8.5880175 140.8731843
  17.8100012  10.9494997 140.4399988  17.5360012  10.5244997 139.6269988
  17.8490012  11.8804997 140.2229988  17.7777699  11.0172484 140.2993610
   8.3170012  19.2854997 141.9949988   9.2500012  19.4434997 142.1389988
   8.0530012  19.9604997 141.3709988   8.4089888  19.3984510 141.9302842
   1.8860012  13.9214997 141.4779988   2.8000012  14.0004997 141.7519988
   1.8930012  13.2344997 140.8119988   2.0121131  13.8393961 141.4254393
  18.9310012   9.7724997 142.6299988  18.4090012  10.1294997 141.9109988
  18.8980012  10.4474997 143.3079988  18.8551634   9.9125413 142.6233145
  17.2800012   7.0124997 141.1799988  17.3760012   7.6794997 140.4999988
  17.1400012   6.1964997 140.6989988  17.2742272   6.9935655 141.0218347
  16.5270012   4.4204997 140.2979988  17.1380012   4.0494997 140.9349988
  15.6910012   3.9994997 140.4939988  16.4975032   4.3127554 140.4117035
  18.6400012   3.3054997 141.8399988  19.0520012   2.5844997 141.3649988
  19.3220012   3.9754997 141.8989988  18.7885885   3.2972368 141.7828915
   2.1970012   1.3534997 142.9459988   2.6360012   1.9644997 142.3539988
   1.5640012   1.8914997 143.4199988   2.1714514   1.5099257 142.9290930
   2.0980012  17.3014997 143.8429988   1.4130012  17.2634997 143.1759988
   2.1020012  18.2144997 144.1319988   2.0046998  17.4196733 143.7906771
   4.0580012   3.2694997 141.3879988   4.5500012   2.6394997 140.8609988
   4.6820012   3.5654997 142.0509988   4.2095688   3.2233804 141.4055482
   9.0840012   3.5624997 143.8449988   9.2620012   2.9164997 144.5279988
   9.0310012   4.3964997 144.3119988   9.1011999   3.5868009 144.0015917
  10.9630012  18.5114997 142.2409988  11.8290012  18.8774997 142.0629988
  10.7160012  18.0714997 141.4269988  11.0482392  18.5021756 142.1066289
   3.9160012  18.2214997 140.8689988   3.6490012  18.5084997 141.7419988
   4.6880012  17.6754997 141.0209988   3.9837488  18.1870294 141.0091050
  30.0700012   8.4134997 141.5919988  30.7710012   8.4354997 142.2429988
  30.3730012   7.7854997 140.9349988  30.2068133   8.3317070 141.5923369
  32.2930012   9.3274997 143.1899988  32.8730012   9.4774997 143.9369988
  32.7070012   9.7984997 142.4659988  32.4282997   9.4116578 143.1944058
  35.9920012   1.0774997 143.0029988  35.0920012   1.2164997 143.2979988
  36.2440012   1.9084997 142.6009988  35.9028702   1.2089074 142.9890205
  37.1810012  15.4434997 141.3789988  37.2550012  16.3824997 141.5499988
  38.0870012  15.1384997 141.3229988  37.3135100  15.5306722 141.3948119
  32.5940012  18.1744997 142.0419988  32.9690012  17.4304997 141.5709988
  32.5980012  17.9044997 142.9609988  32.6459125  18.0360986 142.1016483
  33.7710012  10.3604997 140.8199988  33.8130012  10.1374997 139.8899988
  34.6200012  10.7594997 141.0089988  33.8915280  10.3839438 140.7183554
  29.3430012   4.2364997 141.4899988  29.0900012   4.2554997 142.4129988
  29.0870012   3.3644997 141.1879988  29.2737481   4.1212558 141.5756175
  26.2260012   4.6814997 140.5909988  25.7950012   4.2364997 141.3209988
  25.5080012   5.0534997 140.0789988  26.0699438   4.6708940 140.6216799
  20.7420012   5.1694997 143.0669988  21.2160012   5.7604997 142.4819988
  20.0250012   5.7004997 143.4139988  20.7099341   5.3220867 143.0338836
  24.8440012   7.4594997 141.9729988  24.3010012   7.0794997 141.2819988
  25.6770012   7.6534997 141.5449988  24.8823631   7.4337125 141.8204501
  28.1790012  12.0244997 143.9089988  27.4340012  11.5174997 143.5869988
  28.0450012  12.0734997 144.8559988  28.0588776  11.9616940 143.9928647
  32.0770012   4.8384997 142.1079988  31.1380012   4.9504997 141.9569988
  32.3740012   5.6954997 142.4149988  31.9887583   4.9695981 142.1288337
  32.7950012   6.7054997 143.7689988  33.6870012   6.5684997 144.0879988
  32.8520012   7.4964997 143.2319988  32.9246504   6.7936052 143.7400818
  30.3050012  13.4834997 142.9349988  30.0090012  14.3094997 143.3159988
  29.6020012  12.8634997 143.1309988  30.1694914  13.5128199 143.0136443
  37.6800012   6.9154997 143.4639988  37.1260012   6.5194997 142.7919988
  37.7800012   7.8254997 143.1859988  37.6177059   6.9843586 143.3344401
  35.9750012  15.7014997 143.9289988  35.6020012  14.8754997 144.2379988
  36.2530012  15.5184997 143.0309988  35.9615222  15.5637430 143.8499473
  21.4340012   9.6994997 141.6699988  22.0500012  10.3264997 142.0499988
  20.5720012  10.0154997 141.9419988  21.4017698   9.8279430 141.7587183
  33.3680012  13.6774997 141.7489988  33.7210012  13.2974997 142.5529988
  32.4190012  13.5844997 141.8359988  33.2880918  13.6128956 141.8708532
  37.8710012  18.1574997 141.9499988  38.6150012  18.7434997 141.8099988
  37.1770012  18.7254997 142.2829988  37.8789899  18.3145798 141.9758778
  34.2340012  12.3504997 143.9759988  33.9560012  11.6224997 144.5319988
  35.1610012  12.4694997 144.1809988  34.3213124  12.2668802 144.0798845
  27.4590012  14.7894997 140.1959988  27.6980012  14.0414997 139.6489988
  27.1900012  14.4014997 141.0289988  27.4553675  14.6346638 140.2336865
  26.3960012  14.3594997 142.6519988  26.5420012  13.8394997 143.4419988
  26.3930012  15.2664997 142.9589988  26.4155792  14.4108842 142.8016117
  22.8490012  11.6124997 143.1629988  22.1630012  11.9644997 143.7299988
  23.3710012  12.3754997 142.9159988  22.8256852  11.7638578 143.2072118
  29.1330012  16.0574997 143.4019988  28.3170012  16.5544997 143.4539988
  29.6630012  16.5324997 142.7619988  29.0929161  16.1897722 143.3225956
  26.4720012  17.1014997 143.3829988  26.6320012  17.9004997 142.8829988
  26.2740012  17.4074997 144.2679988  26.4671637  17.2524020 143.4341144
  25.2060012   3.7984997 142.9989988  25.1230012   4.6874997 143.3459988
  26.0960012   3.5334997 143.2309988  25.3149469   3.8841430 143.0777626
  23.4650012  14.2264997 142.0599988  24.0570012  14.9254997 142.3359988
  23.9240012  13.7934997 141.3399988  23.6081142  14.2637049 142.0004830
  21.7810012   6.8904997 141.1759988  21.7360012   7.8294997 141.3539988
  20.8930012   6.6544997 140.9059988  21.6548574   6.9871892 141.1638912
  29.4970012  16.6524997 140.3349988  28.8530012  16.0214997 140.6559988
  30.2590012  16.1214997 140.1029988  29.5118077  16.4942920 140.3476011
  34.1010012  16.4694997 140.5679988  34.3840012  15.6754997 141.0209988
  34.8410012  16.7024997 140.0079988  34.2398006  16.3923376 140.5542715
  25.0560012  12.3794997 140.4259988  25.1200012  11.5854997 140.9569988
  25.7090012  12.2604997 139.7359988  25.1530241  12.2547148 140.4054317
  30.4080012  13.4264997 140.1619988  30.1390012  13.6064997 141.0629988
  30.2020012  12.5004997 140.0299988  30.3433427  13.3260261 140.2675073
  26.2050012  10.3514997 142.7319988  25.7450012   9.8674997 143.4179988
  26.4600012   9.6834997 142.0959988  26.1764902  10.1948731 142.7399334
  27.2760012   8.5944997 140.9939988  27.0960012   8.4404997 140.0669988
  28.2260012   8.7024997 141.0389988  27.3797776   8.5880175 140.8731843
  36.6660012  10.9494997 140.4399988  36.3920012  10.5244997 139.6269988
  36.7050012  11.8804997 140.2229988  36.6337699  11.0172484 140.2993610
  27.1730012  19.2854997 141.9949988  28.1060012  19.4434997 142.1389988
  26.9090012  19.9604997 141.3709988  27.2649888  19.3984510 141.9302842
  20.7420012  13.9214997 141.4779988  21.6560012  14.0004997 141.7519988
  20.7490012  13.2344997 140.8119988  20.8681131  13.8393961 141.4254393
  37.7870012   9.7724997 142.6299988  37.2650012  10.1294997 141.9109988
  37.7540012  10.4474997 143.3079988  37.7111634   9.9125413 142.6233145
  36.1360012   7.0124997 141.1799988  36.2320012   7.6794997 140.4999988
  35.9960012   6.1964997 140.6989988  36.1302272   6.9935655 141.0218347
  35.3830012   4.4204997 140.2979988  35.9940012   4.0494997 140.9349988
  34.5470012   3.9994997 140.4939988  35.3535032   4.3127554 140.4117035
  37.4960012   3.3054997 141.8399988  37.9080012   2.5844997 141.3649988
  38.1780012   3.9754997 141.8989988  37.6445885   3.2972368 141.7828915
  21.0530012   1.3534997 142.9459988  21.4920012   1.9644997 142.3539988
  20.4200012   1.8914997 143.4199988  21.0274514   1.5099257 142.9290930
  20.9540012  17.3014997 143.8429988  20.2690012  17.2634997 143.1759988
  20.9580012  18.2144997 144.1319988  20.8606998  17.4196733 143.7906771
  22.9140012   3.2694997 141.3879988  23.4060012   2.6394997 140.8609988
  23.5380012   3.5654997 142.0509988  23.0655688   3.2233804 141.4055482
  27.9400012   3.5624997 143.8449988  28.1180012   2.9164997 144.5279988
  27.8870012   4.3964997 144.3119988  27.9571999   3.5868009 144.0015917
  29.8190012  18.5114997 142.2409988  30.6850012  18.8774997 142.0629988
  29.5720012  18.0714997 141.4269988  29.9042392  18.5021756 142.1066289
  22.7720012  18.2214997 140.8689988  22.5050012  18.5084997 141.7419988
  23.5440012  17.6754997 141.0209988  22.8397488  18.1870294 141.0091050
  48.9260012   8.4134997 141.5919988  49.6270012   8.4354997 142.2429988
  49.2290012   7.7854997 140.9349988  49.0628133   8.3317070 141.5923369
  51.1490012   9.3274997 143.1899988  51.7290012   9.4774997 143.9369988
  51.5630012   9.7984997 142.4659988  51.2842997   9.4116578 143.1944058
  54.8480012   1.0774997 143.0029988  53.9480012   1.2164997 143.2979988
  55.1000012   1.9084997 142.6009988  54.7588702   1.2089074 142.9890205
  56.0370012  15.4434997 141.3789988  56.1110012  16.3824997 141.5499988
  56.9430012  15.1384997 141.3229988  56.1695100  15.5306722 141.3948119
  51.4500012  18.1744997 142.0419988  51.8250012  17.4304997 141.5709988
  51.4540012  17.9044997 142.9609988  51.5019125  18.0360986 142.1016483
  52.6270012  10.3604997 140.8199988  52.6690012  10.1374997 139.8899988
  53.4760012  10.7594997 141.0089988  52.7475280  10.3839438 140.7183554
  48.1990012   4.2364997 141.4899988  47.9460012   4.2554997 142.4129988
  47.9430012   3.3644997 141.1879988  48.1297481   4.1212558 141.5756175
  45.0820012   4.6814997 140.5909988  44.6510012   4.2364997 141.3209988
  44.3640012   5.0534997 140.0789988  44.9259438   4.6708940 140.6216799
  39.5980012   5.1694997 143.0669988  40.0720012   5.7604997 142.4819988
  38.8810012   5.7004997 143.4139988  39.5659341   5.3220867 143.0338836
  43.7000012   7.4594997 141.9729988  43.1570012   7.0794997 141.2819988
  44.5330012   7.6534997 141.5449988  43.7383631   7.4337125 141.8204501
  47.0350012  12.0244997 143.9089988  46.2900012  11.5174997 143.5869988
  46.9010012  12.0734997 144.8559988  46.9148776  11.9616940 143.9928647
  50.9330012   4.8384997 142.1079988  49.9940012   4.9504997 141.9569988
  51.2300012   5.6954997 142.4149988  50.8447583   4.9695981 142.1288337
  51.6510012   6.7054997 143.7689988  52.5430012   6.5684997 144.0879988
  51.7080012   7.4964997 143.2319988  51.7806504   6.7936052 143.7400818
  49.1610012  13.4834997 142.9349988  48.8650012  14.3094997 143.3159988
  48.4580012  12.8634997 143.1309988  49.0254914  13.5128199 143.0136443
  56.5360012   6.9154997 143.4639988  55.9820012   6.5194997 142.7919988
  56.6360012   7.8254997 143.1859988  56.4737059   6.9843586 143.3344401
  54.8310012  15.7014997 143.9289988  54.4580012  14.8754997 144.2379988
  55.1090012  15.5184997 143.0309988  54.8175222  15.5637430 143.8499473
  40.2900012   9.6994997 141.6699988  40.9060012  10.3264997 142.0499988
  39.4280012  10.0154997 141.9419988  40.2577698   9.8279430 141.7587183
  52.2240012  13.6774997 141.7489988  52.5770012  13.2974997 142.5529988
  51.2750012  13.5844997 141.8359988  52.1440918  13.6128956 141.8708532
  56.7270012  18.1574997 141.9499988  57.4710012  18.7434997 141.8099988
  56.0330012  18.7254997 142.2829988  56.7349899  18.3145798 141.9758778
  53.0900012  12.3504997 143.9759988  52.8120012  11.6224997 144.5319988
  54.0170012  12.4694997 144.1809988  53.1773124  12.2668802 144.0798845
  46.3150012  14.7894997 140.1959988  46.5540012  14.0414997 139.6489988
  46.0460012  14.4014997 141.0289988  46.3113675  14.6346638 140.2336865
  45.2520012  14.3594997 142.6519988  45.3980012  13.8394997 143.4419988
  45.2490012  15.2664997 142.9589988  45.2715792  14.4108842 142.8016117
  41.7050012  11.6124997 143.1629988  41.0190012  11.9644997 143.7299988
  42.2270012  12.3754997 142.9159988  41.6816852  11.7638578 143.2072118
  47.9890012  16.0574997 143.4019988  47.1730012  16.5544997 143.4539988
  48.5190012  16.5324997 142.7619988  47.9489161  16.1897722 143.3225956
  45.3280012  17.1014997 143.3829988  45.4880012  17.9004997 142.8829988
  45.1300012  17.4074997 144.2679988  45.3231637  17.2524020 143.4341144
  44.0620012   3.7984997 142.9989988  43.9790012   4.6874997 143.3459988
  44.9520012   3.5334997 143.2309988  44.1709469   3.8841430 143.0777626
  42.3210012  14.2264997 142.0599988  42.9130012  14.9254997 142.3359988
  42.7800012  13.7934997 141.3399988  42.4641142  14.2637049 142.0004830
  40.6370012   6.8904997 141.1759988  40.5920012   7.8294997 141.3539988
  39.7490012   6.6544997 140.9059988  40.5108574   6.9871892 141.1638912
  48.3530012  16.6524997 140.3349988  47.7090012  16.0214997 140.6559988
  49.1150012  16.1214997 140.1029988  48.3678077  16.4942920 140.3476011
  52.9570012  16.4694997 140.5679988  53.2400012  15.6754997 141.0209988
  53.6970012  16.7024997 140.0079988  53.0958006  16.3923376 140.5542715
  43.9120012  12.3794997 140.4259988  43.9760012  11.5854997 140.9569988
  44.5650012  12.2604997 139.7359988  44.0090241  12.2547148 140.4054317
  49.2640012  13.4264997 140.1619988  48.9950012  13.6064997 141.0629988
  49.0580012  12.5004997 140.0299988  49.1993427  13.3260261 140.2675073
  45.0610012  10.3514997 142.7319988  44.6010012   9.8674997 143.4179988
  45.3160012   9.6834997 142.0959988  45.0324902  10.1948731 142.7399334
  46.1320012   8.5944997 140.9939988  45.9520012   8.4404997 140.0669988
  47.0820012   8.7024997 141.0389988  46.2357776   8.5880175 140.8731843
  55.5220012  10.9494997 140.4399988  55.2480012  10.5244997 139.6269988
  55.5610012  11.8804997 140.2229988  55.4897699  11.0172484 140.2993610
  46.0290012  19.2854997 141.9949988  46.9620012  19.4434997 142.1389988
  45.7650012  19.9604997 141.3709988  46.1209888  19.3984510 141.9302842
  39.5980012  13.9214997 141.4779988  40.5120012  14.0004997 141.7519988
  39.6050012  13.2344997 140.8119988  39.7241131  13.8393961 141.4254393
  56.6430012   9.7724997 142.6299988  56.1210012  10.1294997 141.9109988
  56.6100012  10.4474997 143.3079988  56.5671634   9.9125413 142.6233145
  54.9920012   7.0124997 141.1799988  55.0880012   7.6794997 140.4999988
  54.8520012   6.1964997 140.6989988  54.9862272   6.9935655 141.0218347
  54.2390012   4.4204997 140.2979988  54.8500012   4.0494997 140.9349988
  53.4030012   3.9994997 140.4939988  54.2095032   4.3127554 140.4117035
  56.3520012   3.3054997 141.8399988  56.7640012   2.5844997 141.3649988
  57.0340012   3.9754997 141.8989988  56.5005885   3.2972368 141.7828915
  39.9090012   1.3534997 142.9459988  40.3480012   1.9644997 142.3539988
  39.2760012   1.8914997 143.4199988  39.8834514   1.5099257 142.9290930
  39.8100012  17.3014997 143.8429988  39.1250012  17.2634997 143.1759988
  39.8140012  18.2144997 144.1319988  39.7166998  17.4196733 143.7906771
  41.7700012   3.2694997 141.3879988  42.2620012   2.6394997 140.8609988
  42.3940012   3.5654997 142.0509988  41.9215688   3.2233804 141.4055482
  46.7960012   3.5624997 143.8449988  46.9740012   2.9164997 144.5279988
  46.7430012   4.3964997 144.3119988  46.8131999   3.5868009 144.0015917
  48.6750012  18.5114997 142.2409988  49.5410012  18.8774997 142.0629988
  48.4280012  18.0714997 141.4269988  48.7602392  18.5021756 142.1066289
  41.6280012  18.2214997 140.8689988  41.3610012  18.5084997 141.7419988
  42.4000012  17.6754997 141.0209988  41.6957488  18.1870294 141.0091050
  67.7820012   8.4134997 141.5919988  68.4830012   8.4354997 142.2429988
  68.0850012   7.7854997 140.9349988  67.9188133   8.3317070 141.5923369
  70.0050012   9.3274997 143.1899988  70.5850012   9.4774997 143.9369988
  70.4190012   9.7984997 142.4659988  70.1402997   9.4116578 143.1944058
  73.7040012   1.0774997 143.0029988  72.8040012   1.2164997 143.2979988
  73.9560012   1.9084997 142.6009988  73.6148702   1.2089074 142.9890205
  74.8930012  15.4434997 141.3789988  74.9670012  16.3824997 141.5499988
  75.7990012  15.1384997 141.3229988  75.0255100  15.5306722 141.3948119
  70.3060012  18.1744997 142.0419988  70.6810012  17.4304997 141.5709988
  70.3100012  17.9044997 142.9609988  70.3579125  18.0360986 142.1016483
  71.4830012  10.3604997 140.8199988  71.5250012  10.1374997 139.8899988
  72.3320012  10.7594997 141.0089988  71.6035280  10.3839438 140.7183554
  67.0550012   4.2364997 141.4899988  66.8020012   4.2554997 142.4129988
  66.7990012   3.3644997 141.1879988  66.9857481   4.1212558 141.5756175
  63.9380012   4.6814997 140.5909988  63.5070012   4.2364997 141.3209988
  63.2200012   5.0534997 140.0789988  63.7819438   4.6708940 140.6216799
  58.4540012   5.1694997 143.0669988  58.9280012   5.7604997 142.4819988
  57.7370012   5.7004997 143.4139988  58.4219341   5.3220867 143.0338836
  62.5560012   7.4594997 141.9729988  62.0130012   7.0794997 141.2819988
  63.3890012   7.6534997 141.5449988  62.5943631   7.4337125 141.8204501
  65.8910012  12.0244997 143.9089988  65.1460012  11.5174997 143.5869988
  65.7570012  12.0734997 144.8559988  65.7708776  11.9616940 143.9928647
  69.7890012   4.8384997 142.1079988  68.8500012   4.9504997 141.9569988
  70.0860012   5.6954997 142.4149988  69.7007583   4.9695981 142.1288337
  70.5070012   6.7054997 143.7689988  71.3990012   6.5684997 144.0879988
  70.5640012   7.4964997 143.2319988  70.6366504   6.7936052 143.7400818
  68.0170012  13.4834997 142.9349988  67.7210012  14.3094997 143.3159988
  67.3140012  12.8634997 143.1309988  67.8814914  13.5128199 143.0136443
  75.3920012   6.9154997 143.4639988  74.8380012   6.5194997 142.7919988
  75.4920012   7.8254997 143.1859988  75.3297059   6.9843586 143.3344401
  73.6870012  15.7014997 143.9289988  73.3140012  14.8754997 144.2379988
  73.9650012  15.5184997 143.0309988  73.6735222  15.5637430 143.8499473
  59.1460012   9.6994997 141.6699988  59.7620012  10.3264997 142.0499988
  58.2840012  10.0154997 141.9419988  59.1137698   9.8279430 141.7587183
  71.0800012  13.6774997 141.7489988  71.4330012  13.2974997 142.5529988
  70.1310012  13.5844997 141.8359988  71.0000918  13.6128956 141.8708532
  75.5830012  18.1574997 141.9499988  76.3270012  18.7434997 141.8099988
  74.8890012  18.7254997 142.2829988  75.5909899  18.3145798 141.9758778
  71.9460012  12.3504997 143.9759988  71.6680012  11.6224997 144.5319988
  72.8730012  12.4694997 144.1809988  72.0333124  12.2668802 144.0798845
  65.1710012  14.7894997 140.1959988  65.4100012  14.0414997 139.6489988
  64.9020012  14.4014997 141.0289988  65.1673675  14.6346638 140.2336865
  64.1080012  14.3594997 142.6519988  64.2540012  13.8394997 143.4419988
  64.1050012  15.2664997 142.9589988  64.1275792  14.4108842 142.8016117
  60.5610012  11.6124997 143.1629988  59.8750012  11.9644997 143.7299988
  61.0830012  12.3754997 142.9159988  60.5376852  11.7638578 143.2072118
  66.8450012  16.0574997 143.4019988  66.0290012  16.5544997 143.4539988
  67.3750012  16.5324997 142.7619988  66.8049161  16.1897722 143.3225956
  64.1840012  17.1014997 143.3829988  64.3440012  17.9004997 142.8829988
  63.9860012  17.4074997 144.2679988  64.1791637  17.2524020 143.4341144
  62.9180012   3.7984997 142.9989988  62.8350012   4.6874997 143.3459988
  63.8080012   3.5334997 143.2309988  63.0269469   3.8841430 143.0777626
  61.1770012  14.2264997 142.0599988  61.7690012  14.9254997 142.3359988
  61.6360012  13.7934997 141.3399988  61.3201142  14.2637049 142.0004830
  59.4930012   6.8904997 141.1759988  59.4480012   7.8294997 141.3539988
  58.6050012   6.6544997 140.9059988  59.3668574   6.9871892 141.1638912
  67.2090012  16.6524997 140.3349988  66.5650012  16.0214997 140.6559988
  67.9710012  16.1214997 140.1029988  67.2238077  16.4942920 140.3476011
  71.8130012  16.4694997 140.5679988  72.0960012  15.6754997 141.0209988
  72.5530012  16.7024997 140.0079988  71.9518006  16.3923376 140.5542715
  62.7680012  12.3794997 140.4259988  62.8320012  11.5854997 140.9569988
  63.4210012  12.2604997 139.7359988  62.8650241  12.2547148 140.4054317
  68.1200012  13.4264997 140.1619988  67.8510012  13.6064997 141.0629988
  67.9140012  12.5004997 140.0299988  68.0553427  13.3260261 140.2675073
  63.9170012  10.3514997 142.7319988  63.4570012   9.8674997 143.4179988
  64.1720012   9.6834997 142.0959988  63.8884902  10.1948731 142.7399334
  64.9880012   8.5944997 140.9939988  64.8080012   8.4404997 140.0669988
  65.9380012   8.7024997 141.0389988  65.0917776   8.5880175 140.8731843
  74.3780012  10.9494997 140.4399988  74.1040012  10.5244997 139.6269988
  74.4170012  11.8804997 140.2229988  74.3457699  11.0172484 140.2993610
  64.8850012  19.2854997 141.9949988  65.8180012  19.4434997 142.1389988
  64.6210012  19.9604997 141.3709988  64.9769888  19.3984510 141.9302842
  58.4540012  13.9214997 141.4779988  59.3680012  14.0004997 141.7519988
  58.4610012  13.2344997 140.8119988  58.5801131  13.8393961 141.4254393
  75.4990012   9.7724997 142.6299988  74.9770012  10.1294997 141.9109988
  75.4660012  10.4474997 143.3079988  75.4231634   9.9125413 142.6233145
  73.8480012   7.0124997 141.1799988  73.9440012   7.6794997 140.4999988
  73.7080012   6.1964997 140.6989988  73.8422272   6.9935655 141.0218347
  73.0950012   4.4204997 140.2979988  73.7060012   4.0494997 140.9349988
  72.2590012   3.9994997 140.4939988  73.0655032   4.3127554 140.4117035
  75.2080012   3.3054997 141.8399988  75.6200012   2.5844997 141.3649988
  75.8900012   3.9754997 141.8989988  75.3565885   3.2972368 141.7828915
  58.7650012   1.3534997 142.9459988  59.2040012   1.9644997 142.3539988
  58.1320012   1.8914997 143.4199988  58.7394514   1.5099257 142.9290930
  58.6660012  17.3014997 143.8429988  57.9810012  17.2634997 143.1759988
  58.6700012  18.2144997 144.1319988  58.5726998  17.4196733 143.7906771
  60.6260012   3.2694997 141.3879988  61.1180012   2.6394997 140.8609988
  61.2500012   3.5654997 142.0509988  60.7775688   3.2233804 141.4055482
  65.6520012   3.5624997 143.8449988  65.8300012   2.9164997 144.5279988
  65.5990012   4.3964997 144.3119988  65.6691999   3.5868009 144.0015917
  67.5310012  18.5114997 142.2409988  68.3970012  18.8774997 142.0629988
  67.2840012  18.0714997 141.4269988  67.6162392  18.5021756 142.1066289
  60.4840012  18.2214997 140.8689988  60.2170012  18.5084997 141.7419988
  61.2560012  17.6754997 141.0209988  60.5517488  18.1870294 141.0091050
  86.6380012   8.4134997 141.5919988  87.3390012   8.4354997 142.2429988
  86.9410012   7.7854997 140.9349988  86.7748133   8.3317070 141.5923369
  88.8610012   9.3274997 143.1899988  89.4410012   9.4774997 143.9369988
  89.2750012   9.7984997 142.4659988  88.9962997   9.4116578 143.1944058
  92.5600012   1.0774997 143.0029988  91.6600012   1.2164997 143.2979988
  92.8120012   1.9084997 142.6009988  92.4708702   1.2089074 142.9890205
  93.7490012  15.4434997 141.3789988  93.8230012  16.3824997 141.5499988
  94.6550012  15.1384997 141.3229988  93.8815100  15.5306722 141.3948119
  89.1620012  18.1744997 142.0419988  89.5370012  17.4304997 141.5709988
  89.1660012  17.9044997 142.9609988  89.2139125  18.0360986 142.1016483
  90.3390012  10.3604997 140.8199988  90.3810012  10.1374997 139.8899988
  91.1880012  10.7594997 141.0089988  90.4595280  10.3839438 140.7183554
  85.9110012   4.2364997 141.4899988  85.6580012   4.2554997 142.4129988
  85.6550012   3.3644997 141.1879988  85.8417481   4.1212558 141.5756175
  82.7940012   4.6814997 140.5909988  82.3630012   4.2364997 141.3209988
  82.0760012   5.0534997 140.0789988  82.6379438   4.6708940 140.6216799
  77.3100012   5.1694997 143.0669988  77.7840012   5.7604997 142.4819988
  76.5930012   5.7004997 143.4139988  77.2779341   5.3220867 143.0338836
  81.4120012   7.4594997 141.9729988  80.8690012   7.0794997 141.2819988
  82.2450012   7.6534997 141.5449988  81.4503631   7.4337125 141.8204501
  84.7470012  12.0244997 143.9089988  84.0020012  11.5174997 143.5869988
  84.6130012  12.0734997 144.8559988  84.6268776  11.9616940 143.9928647
  88.6450012   4.8384997 142.1079988  87.7060012   4.9504997 141.9569988
  88.9420012   5.6954997 142.4149988  88.5567583   4.9695981 142.1288337
  89.3630012   6.7054997 143.7689988  90.2550012   6.5684997 144.0879988
  89.4200012   7.4964997 143.2319988  89.4926504   6.7936052 143.7400818
  86.8730012  13.4834997 142.9349988  86.5770012  14.3094997 143.3159988
  86.1700012  12.8634997 143.1309988  86.7374914  13.5128199 143.0136443
  94.2480012   6.9154997 143.4639988  93.6940012   6.5194997 142.7919988
  94.3480012   7.8254997 143.1859988  94.1857059   6.9843586 143.3344401
  92.5430012  15.7014997 143.9289988  92.1700012  14.8754997 144.2379988
  92.8210012  15.5184997 143.0309988  92.5295222  15.5637430 143.8499473
  78.0020012   9.6994997 141.6699988  78.6180012  10.3264997 142.0499988
  77.1400012  10.0154997 141.9419988  77.9697698   9.8279430 141.7587183
  89.9360012  13.6774997 141.7489988  90.2890012  13.2974997 142.5529988
  88.9870012  13.5844997 141.8359988  89.8560918  13.6128956 141.8708532
  94.4390012  18.1574997 141.9499988  95.1830012  18.7434997 141.8099988
  93.7450012  18.7254997 142.2829988  94.4469899  18.3145798 141.9758778
  90.8020012  12.3504997 143.9759988  90.5240012  11.6224997 144.5319988
  91.7290012  12.4694997 144.1809988  90.8893124  12.2668802 144.0798845
  84.0270012  14.7894997 140.1959988  84.2660012  14.0414997 139.6489988
  83.7580012  14.4014997 141.0289988  84.0233675  14.6346638 140.2336865
  82.9640012  14.3594997 142.6519988  83.1100012  13.8394997 143.4419988
  82.9610012  15.2664997 142.9589988  82.9835792  14.4108842 142.8016117
  79.4170012  11.6124997 143.1629988  78.7310012  11.9644997 143.7299988
  79.9390012  12.3754997 142.9159988  79.3936852  11.7638578 143.2072118
  85.7010012  16.0574997 143.4019988  84.8850012  16.5544997 143.4539988
  86.2310012  16.5324997 142.7619988  85.6609161  16.1897722 143.3225956
  83.0400012  17.1014997 143.3829988  83.2000012  17.9004997 142.8829988
  82.8420012  17.4074997 144.2679988  83.0351637  17.2524020 143.4341144
  81.7740012   3.7984997 142.9989988  81.6910012   4.6874997 143.3459988
  82.6640012   3.5334997 143.2309988  81.8829469   3.8841430 143.0777626
  80.0330012  14.2264997 142.0599988  80.6250012  14.9254997 142.3359988
  80.4920012  13.7934997 141.3399988  80.1761142  14.2637049 142.0004830
  78.3490012   6.8904997 141.1759988  78.3040012   7.8294997 141.3539988
  77.4610012   6.6544997 140.9059988  78.2228574   6.9871892 141.1638912
  86.0650012  16.6524997 140.3349988  85.4210012  16.0214997 140.6559988
  86.8270012  16.1214997 140.1029988  86.0798077  16.4942920 140.3476011
  90.6690012  16.4694997 140.5679988  90.9520012  15.6754997 141.0209988
  91.4090012  16.7024997 140.0079988  90.8078006  16.3923376 140.5542715
  81.6240012  12.3794997 140.4259988  81.6880012  11.5854997 140.9569988
  82.2770012  12.2604997 139.7359988  81.7210241  12.2547148 140.4054317
  86.9760012  13.4264997 140.1619988  86.7070012  13.6064997 141.0629988
  86.7700012  12.5004997 140.0299988  86.9113427  13.3260261 140.2675073
  82.7730012  10.3514997 142.7319988  82.3130012   9.8674997 143.4179988
  83.0280012   9.6834997 142.0959988  82.7444902  10.1948731 142.7399334
  83.8440012   8.5944997 140.9939988  83.6640012   8.4404997 140.0669988
  84.7940012   8.7024997 141.0389988  83.9477776   8.5880175 140.8731843
  93.2340012  10.9494997 140.4399988  92.9600012  10.5244997 139.6269988
  93.2730012  11.8804997 140.2229988  93.2017699  11.0172484 140.2993610
  83.7410012  19.2854997 141.9949988  84.6740012  19.4434997 142.1389988
  83.4770012  19.9604997 141.3709988  83.8329888  19.3984510 141.9302842
  77.3100012  13.9214997 141.4779988  78.2240012  14.0004997 141.7519988
  77.3170012  13.2344997 140.8119988  77.4361131  13.8393961 141.4254393
  94.3550012   9.7724997 142.6299988  93.8330012  10.1294997 141.9109988
  94.3220012  10.4474997 143.3079988  94.2791634   9.9125413 142.6233145
  92.7040012   7.0124997 141.1799988  92.8000012   7.6794997 140.4999988
  92.5640012   6.1964997 140.6989988  92.6982272   6.9935655 141.0218347
  91.9510012   4.4204997 140.2979988  92.5620012   4.0494997 140.9349988
  91.1150012   3.9994997 140.4939988  91.9215032   4.3127554 140.4117035
  94.0640012   3.3054997 141.8399988  94.4760012   2.5844997 141.3649988
  94.7460012   3.9754997 141.8989988  94.2125885   3.2972368 141.7828915
  77.6210012   1.3534997 142.9459988  78.0600012   1.9644997 142.3539988
  76.9880012   1.8914997 143.4199988  77.5954514   1.5099257 142.9290930
  77.5220012  17.3014997 143.8429988  76.8370012  17.2634997 143.1759988
  77.5260012  18.2144997 144.1319988  77.4286998  17.4196733 143.7906771
  79.4820012   3.2694997 141.3879988  79.9740012   2.6394997 140.8609988
  80.1060012   3.5654997 142.0509988  79.6335688   3.2233804 141.4055482
  84.5080012   3.5624997 143.8449988  84.6860012   2.9164997 144.5279988
  84.4550012   4.3964997 144.3119988  84.5251999   3.5868009 144.0015917
  86.3870012  18.5114997 142.2409988  87.2530012  18.8774997 142.0629988
  86.1400012  18.0714997 141.4269988  86.4722392  18.5021756 142.1066289
  79.3400012  18.2214997 140.8689988  79.0730012  18.5084997 141.7419988
  80.1120012  17.6754997 141.0209988  79.4077488  18.1870294 141.0091050
 105.4940012   8.4134997 141.5919988 106.1950012   8.4354997 142.2429988
 105.7970012   7.7854997 140.9349988 105.6308133   8.3317070 141.5923369
 107.7170012   9.3274997 143.1899988 108.2970012   9.4774997 143.9369988
 108.1310012   9.7984997 142.4659988 107.8522997   9.4116578 143.1944058
 111.4160012   1.0774997 143.0029988 110.5160012   1.2164997 143.2979988
 111.6680012   1.9084997 142.6009988 111.3268702   1.2089074 142.9890205
 112.6050012  15.4434997 141.3789988 112.6790012  16.3824997 141.5499988
 113.5110012  15.1384997 141.3229988 112.7375100  15.5306722 141.3948119
 108.0180012  18.1744997 142.0419988 108.3930012  17.4304997 141.5709988
 108.0220012  17.9044997 142.9609988 108.0699125  18.0360986 142.1016483
 109.1950012  10.3604997 140.8199988 109.2370012  10.1374997 139.8899988
 110.0440012  10.7594997 141.0089988 109.3155280  10.3839438 140.7183554
 104.7670012   4.2364997 141.4899988 104.5140012   4.2554997 142.4129988
 104.5110012   3.3644997 141.1879988 104.6977481   4.1212558 141.5756175
 101.6500012   4.6814997 140.5909988 101.2190012   4.2364997 141.3209988
 100.9320012   5.0534997 140.0789988 101.4939438   4.6708940 140.6216799
  96.1660012   5.1694997 143.0669988  96.6400012   5.7604997 142.4819988
  95.4490012   5.7004997 143.4139988  96.1339341   5.3220867 143.0338836
 100.2680012   7.4594997 141.9729988  99.7250012   7.0794997 141.2819988
 101.1010012   7.6534997 141.5449988 100.3063631   7.4337125 141.8204501
 103.6030012  12.0244997 143.9089988 102.8580012  11.5174997 143.5869988
 103.4690012  12.0734997 144.8559988 103.4828776  11.9616940 143.9928647
 107.5010012   4.8384997 142.1079988 106.5620012   4.9504997 141.9569988
 107.7980012   5.6954997 142.4149988 107.4127583   4.9695981 142.1288337
 108.2190012   6.7054997 143.7689988 109.1110012   6.5684997 144.0879988
 108.2760012   7.4964997 143.2319988 108.3486504   6.7936052 143.7400818
 105.7290012  13.4834997 142.9349988 105.4330012  14.3094997 143.3159988
 105.0260012  12.8634997 143.1309988 105.5934914  13.5128199 143.0136443
 113.1040012   6.9154997 143.4639988 112.5500012   6.5194997 142.7919988
 113.2040012   7.8254997 143.1859988 113.0417059   6.9843586 143.3344401
 111.3990012  15.7014997 143.9289988 111.0260012  14.8754997 144.2379988
 111.6770012  15.5184997 143.0309988 111.3855222  15.5637430 143.8499473
  96.8580012   9.6994997 141.6699988  97.4740012  10.3264997 142.0499988
  95.9960012  10.0154997 141.9419988  96.8257698   9.8279430 141.7587183
 108.7920012  13.6774997 141.7489988 109.1450012  13.2974997 142.5529988
 107.8430012  13.5844997 141.8359988 108.7120918  13.6128956 141.8708532
 113.2950012  18.1574997 141.9499988 114.0390012  18.7434997 141.8099988
 112.6010012  18.7254997 142.2829988 113.3029899  18.3145798 141.9758778
 109.6580012  12.3504997 143.9759988 109.3800012  11.6224997 144.5319988
 110.5850012  12.4694997 144.1809988 109.7453124  12.2668802 144.0798845
 102.8830012  14.7894997 140.1959988 103.1220012  14.0414997 139.6489988
 102.6140012  14.4014997 141.0289988 102.8793675  14.6346638 140.2336865
 101.8200012  14.3594997 142.6519988 101.9660012  13.8394997 143.4419988
 101.8170012  15.2664997 142.9589988 101.8395792  14.4108842 142.8016117
  98.2730012  11.6124997 143.1629988  97.5870012  11.9644997 143.7299988
  98.7950012  12.3754997 142.9159988  98.2496852  11.7638578 143.2072118
 104.5570012  16.0574997 143.4019988 103.7410012  16.5544997 143.4539988
 105.0870012  16.5324997 142.7619988 104.5169161  16.1897722 143.3225956
 101.8960012  17.1014997 143.3829988 102.0560012  17.9004997 142.8829988
 101.6980012  17.4074997 144.2679988 101.8911637  17.2524020 143.4341144
 100.6300012   3.7984997 142.9989988 100.5470012   4.6874997 143.3459988
 101.5200012   3.5334997 143.2309988 100.7389469   3.8841430 143.0777626
  98.8890012  14.2264997 142.0599988  99.4810012  14.9254997 142.3359988
  99.3480012  13.7934997 141.3399988  99.0321142  14.2637049 142.0004830
  97.2050012   6.8904997 141.1759988  97.1600012   7.8294997 141.3539988
  96.3170012   6.6544997 140.9059988  97.0788574   6.9871892 141.1638912
 104.9210012  16.6524997 140.3349988 104.2770012  16.0214997 140.6559988
 105.6830012  16.1214997 140.1029988 104.9358077  16.4942920 140.3476011
 109.5250012  16.4694997 140.5679988 109.8080012  15.6754997 141.0209988
 110.2650012  16.7024997 140.0079988 109.6638006  16.3923376 140.5542715
 100.4800012  12.3794997 140.4259988 100.5440012  11.5854997 140.9569988
 101.1330012  12.2604997 139.7359988 100.5770241  12.2547148 140.4054317
 105.8320012  13.4264997 140.1619988 105.5630012  13.6064997 141.0629988
 105.6260012  12.5004997 140.0299988 105.7673427  13.3260261 140.2675073
 101.6290012  10.3514997 142.7319988 101.1690012   9.8674997 143.4179988
 101.8840012   9.6834997 142.0959988 101.6004902  10.1948731 142.7399334
 102.7000012   8.5944997 140.9939988 102.5200012   8.4404997 140.0669988
 103.6500012   8.7024997 141.0389988 102.8037776   8.5880175 140.8731843
 112.0900012  10.9494997 140.4399988 111.8160012  10.5244997 139.6269988
 112.1290012  11.8804997 140.2229988 112.0577699  11.0172484 140.2993610
 102.5970012  19.2854997 141.9949988 103.5300012  19.4434997 142.1389988
 102.3330012  19.9604997 141.3709988 102.6889888  19.3984510 141.9302842
  96.1660012  13.9214997 141.4779988  97.0800012  14.0004997 141.7519988
  96.1730012  13.2344997 140.8119988  96.2921131  13.8393961 141.4254393
 113.2110012   9.7724997 142.6299988 112.6890012  10.1294997 141.9109988
 113.1780012  10.4474997 143.3079988 113.1351634   9.9125413 142.6233145
 111.5600012   7.0124997 141.1799988 111.6560012   7.6794997 140.4999988
 111.4200012   6.1964997 140.6989988 111.5542272   6.9935655 141.0218347
 110.8070012   4.4204997 140.2979988 111.4180012   4.0494997 140.9349988
 109.9710012   3.9994997 140.4939988 110.7775032   4.3127554 140.4117035
 112.9200012   3.3054997 141.8399988 113.3320012   2.5844997 141.3649988
 113.6020012   3.9754997 141.8989988 113.0685885   3.2972368 141.7828915
  96.4770012   1.3534997 142.9459988  96.9160012   1.9644997 142.3539988
  95.8440012   1.8914997 143.4199988  96.4514514   1.5099257 142.9290930
  96.3780012  17.3014997 143.8429988  95.6930012  17.2634997 143.1759988
  96.3820012  18.2144997 144.1319988  96.2846998  17.4196733 143.7906771
  98.3380012   3.2694997 141.3879988  98.8300012   2.6394997 140.8609988
  98.9620012   3.5654997 142.0509988  98.4895688   3.2233804 141.4055482
 103.3640012   3.5624997 143.8449988 103.5420012   2.9164997 144.5279988
 103.3110012   4.3964997 144.3119988 103.3811999   3.5868009 144.0015917
 105.2430012  18.5114997 142.2409988 106.1090012  18.8774997 142.0629988
 104.9960012  18.0714997 141.4269988 105.3282392  18.5021756 142.1066289
  98.1960012  18.2214997 140.8689988  97.9290012  18.5084997 141.7419988
  98.9680012  17.6754997 141.0209988  98.2637488  18.1870294 141.0091050
 124.3500012   8.4134997 141.5919988 125.0510012   8.4354997 142.2429988
 124.6530012   7.7854997 140.9349988 124.4868133   8.3317070 141.5923369
 126.5730012   9.3274997 143.1899988 127.1530012   9.4774997 143.9369988
 126.9870012   9.7984997 142.4659988 126.7082997   9.4116578 143.1944058
 130.2720012   1.0774997 143.0029988 129.3720012   1.2164997 143.2979988
 130.5240012   1.9084997 142.6009988 130.1828702   1.2089074 142.9890205
 131.4610012  15.4434997 141.3789988 131.5350012  16.3824997 141.5499988
 132.3670012  15.1384997 141.3229988 131.5935100  15.5306722 141.3948119
 126.8740012  18.1744997 142.0419988 127.2490012  17.4304997 141.5709988
 126.8780012  17.9044997 142.9609988 126.9259125  18.0360986 142.1016483
 128.0510012  10.3604997 140.8199988 128.0930012  10.1374997 139.8899988
 128.9000012  10.7594997 141.0089988 128.1715280  10.3839438 140.7183554
 123.6230012   4.2364997 141.4899988 123.3700012   4.2554997 142.4129988
 123.3670012   3.3644997 141.1879988 123.5537481   4.1212558 141.5756175
 120.5060012   4.6814997 140.5909988 120.0750012   4.2364997 141.3209988
 119.7880012   5.0534997 140.0789988 120.3499438   4.6708940 140.6216799
 115.0220012   5.1694997 143.0669988 115.4960012   5.7604997 142.4819988
 114.3050012   5.7004997 143.4139988 114.9899341   5.3220867 143.0338836
 119.1240012   7.4594997 141.9729988 118.5810012   7.0794997 141.2819988
 119.9570012   7.6534997 141.5449988 119.1623631   7.4337125 141.8204501
 122.4590012  12.0244997 143.9089988 121.7140012  11.5174997 143.5869988
 122.3250012  12.0734997 144.8559988 122.3388776  11.9616940 143.9928647
 126.3570012   4.8384997 142.1079988 125.4180012   4.9504997 141.9569988
 126.6540012   5.6954997 142.4149988 126.2687583   4.9695981 142.1288337
 127.0750012   6.7054997 143.7689988 127.9670012   6.5684997 144.0879988
 127.1320012   7.4964997 143.2319988 127.2046504   6.7936052 143.7400818
 124.5850012  13.4834997 142.9349988 124.2890012  14.3094997 143.3159988
 123.8820012  12.8634997 143.1309988 124.4494914  13.5128199 143.0136443
 131.9600012   6.9154997 143.4639988 131.4060012   6.5194997 142.7919988
 132.0600012   7.8254997 143.1859988 131.8977059   6.9843586 143.3344401
 130.2550012  15.7014997 143.9289988 129.8820012  14.8754997 144.2379988
 130.5330012  15.5184997 143.0309988 130.2415222  15.5637430 143.8499473
 115.7140012   9.6994997 141.6699988 116.3300012  10.3264997 142.0499988
 114.8520012  10.0154997 141.9419988 115.6817698   9.8279430 141.7587183
 127.6480012  13.6774997 141.7489988 128.0010012  13.2974997 142.5529988
 126.6990012  13.5844997 141.8359988 127.5680918  13.6128956 141.8708532
 132.1510012  18.1574997 141.9499988 132.8950012  18.7434997 141.8099988
 131.4570012  18.7254997 142.2829988 132.1589899  18.3145798 141.9758778
 128.5140012  12.3504997 143.9759988 128.2360012  11.6224997 144.5319988
 129.4410012  12.4694997 144.1809988 128.6013124  12.2668802 144.0798845
 121.7390012  14.7894997 140.1959988 121.9780012  14.0414997 139.6489988
 121.4700012  14.4014997 141.0289988 121.7353675  14.6346638 140.2336865
 120.6760012  14.3594997 142.6519988 120.8220012  13.8394997 143.4419988
 120.6730012  15.2664997 142.9589988 120.6955792  14.4108842 142.8016117
 117.1290012  11.6124997 143.1629988 116.4430012  11.9644997 143.7299988
 117.6510012  12.3754997 142.9159988 117.1056852  11.7638578 143.2072118
 123.4130012  16.0574997 143.4019988 122.5970012  16.5544997 143.4539988
 123.9430012  16.5324997 142.7619988 123.3729161  16.1897722 143.3225956
 120.7520012  17.1014997 143.3829988 120.9120012  17.9004997 142.8829988
 120.5540012  17.4074997 144.2679988 120.7471637  17.2524020 143.4341144
 119.4860012   3.7984997 142.9989988 119.4030012   4.6874997 143.3459988
 120.3760012   3.5334997 143.2309988 119.5949469   3.8841430 143.0777626
 117.7450012  14.2264997 142.0599988 118.3370012  14.9254997 142.3359988
 118.2040012  13.7934997 141.3399988 117.8881142  14.2637049 142.0004830
 116.0610012   6.8904997 141.1759988 116.0160012   7.8294997 141.3539988
 115.1730012   6.6544997 140.9059988 115.9348574   6.9871892 141.1638912
 123.7770012  16.6524997 140.3349988 123.1330012  16.0214997 140.6559988
 124.5390012  16.1214997 140.1029988 123.7918077  16.4942920 140.3476011
 128.3810012  16.4694997 140.5679988 128.6640012  15.6754997 141.0209988
 129.1210012  16.7024997 140.0079988 128.5198006  16.3923376 140.5542715
 119.3360012  12.3794997 140.4259988 119.4000012  11.5854997 140.9569988
 119.9890012  12.2604997 139.7359988 119.4330241  12.2547148 140.4054317
 124.6880012  13.4264997 140.1619988 124.4190012  13.6064997 141.0629988
 124.4820012  12.5004997 140.0299988 124.6233427  13.3260261 140.2675073
 120.4850012  10.3514997 142.7319988 120.0250012   9.8674997 143.4179988
 120.7400012   9.6834997 142.0959988 120.4564902  10.1948731 142.7399334
 121.5560012   8.5944997 140.9939988 121.3760012   8.4404997 140.0669988
 122.5060012   8.7024997 141.0389988 121.6597776   8.5880175 140.8731843
 130.9460012  10.9494997 140.4399988 130.6720012  10.5244997 139.6269988
 130.9850012  11.8804997 140.2229988 130.9137699  11.0172484 140.2993610
 121.4530012  19.2854997 141.9949988 122.3860012  19.4434997 142.1389988
 121.1890012  19.9604997 141.3709988 121.5449888  19.3984510 141.9302842
 115.0220012  13.9214997 141.4779988 115.9360012  14.0004997 141.7519988
 115.0290012  13.2344997 140.8119988 115.1481131  13.8393961 141.4254393
 132.0670012   9.7724997 142.6299988 131.5450012  10.1294997 141.9109988
 132.0340012  10.4474997 143.3079988 131.9911634   9.9125413 142.6233145
 130.4160012   7.0124997 141.1799988 130.5120012   7.6794997 140.4999988
 130.2760012   6.1964997 140.6989988 130.4102272   6.9935655 141.0218347
 129.6630012   4.4204997 140.2979988 130.2740012   4.0494997 140.9349988
 128.8270012   3.9994997 140.4939988 129.6335032   4.3127554 140.4117035
 131.7760012   3.3054997 141.8399988 132.1880012   2.5844997 141.3649988
 132.4580012   3.9754997 141.8989988 131.9245885   3.2972368 141.7828915
 115.3330012   1.3534997 142.9459988 115.7720012   1.9644997 142.3539988
 114.7000012   1.8914997 143.4199988 115.3074514   1.5099257 142.9290930
 115.2340012  17.3014997 143.8429988 114.5490012  17.2634997 143.1759988
 115.2380012  18.2144997 144.1319988 115.1406998  17.4196733 143.7906771
 117.1940012   3.2694997 141.3879988 117.6860012   2.6394997 140.8609988
 117.8180012   3.5654997 142.0509988 117.3455688   3.2233804 141.4055482
 122.2200012   3.5624997 143.8449988 122.3980012   2.9164997 144.5279988
 122.1670012   4.3964997 144.3119988 122.2371999   3.5868009 144.0015917
 124.0990012  18.5114997 142.2409988 124.9650012  18.8774997 142.0629988
 123.8520012  18.0714997 141.4269988 124.1842392  18.5021756 142.1066289
 117.0520012  18.2214997 140.8689988 116.7850012  18.5084997 141.7419988
 117.8240012  17.6754997 141.0209988 117.1197488  18.1870294 141.0091050
 143.2060012   8.4134997 141.5919988 143.9070012   8.4354997 142.2429988
 143.5090012   7.7854997 140.9349988 143.3428133   8.3317070 141.5923369
 142.4790012   4.2364997 141.4899988 142.2260012   4.2554997 142.4129988
 142.2230012   3.3644997 141.1879988 142.4097481   4.1212558 141.5756175
 139.3620012   4.6814997 140.5909988 138.9310012   4.2364997 141.3209988
 138.6440012   5.0534997 140.0789988 139.2059438   4.6708940 140.6216799
 133.8780012   5.1694997 143.0669988 134.3520012   5.7604997 142.4819988
 133.1610012   5.7004997 143.4139988 133.8459341   5.3220867 143.0338836
 137.9800012   7.4594997 141.9729988 137.4370012   7.0794997 141.2819988
 138.8130012   7.6534997 141.5449988 138.0183631   7.4337125 141.8204501
 141.3150012  12.0244997 143.9089988 140.5700012  11.5174997 143.5869988
 141.1810012  12.0734997 144.8559988 141.1948776  11.9616940 143.9928647
 143.4410012  13.4834997 142.9349988 143.1450012  14.3094997 143.3159988
 142.7380012  12.8634997 143.1309988 143.3054914  13.5128199 143.0136443
 134.5700012   9.6994997 141.6699988 135.1860012  10.3264997 142.0499988
 133.7080012  10.0154997 141.9419988 134.5377698   9.8279430 141.7587183
 140.5950012  14.7894997 140.1959988 140.8340012  14.0414997 139.6489988
 140.3260012  14.4014997 141.0289988 140.5913675  14.6346638 140.2336865
 139.5320012  14.3594997 142.6519988 139.6780012  13.8394997 143.4419988
 139.5290012  15.2664997 142.9589988 139.5515792  14.4108842 142.8016117
 135.9850012  11.6124997 143.1629988 135.2990012  11.9644997 143.7299988
 136.5070012  12.3754997 142.9159988 135.9616852  11.7638578 143.2072118
 142.2690012  16.0574997 143.4019988 141.4530012  16.5544997 143.4539988
 142.7990012  16.5324997 142.7619988 142.2289161  16.1897722 143.3225956
 139.6080012  17.1014997 143.3829988 139.7680012  17.9004997 142.8829988
 139.4100012  17.4074997 144.2679988 139.6031637  17.2524020 143.4341144
 138.3420012   3.7984997 142.9989988 138.2590012   4.6874997 143.3459988
 139.2320012   3.5334997 143.2309988 138.4509469   3.8841430 143.0777626
 136.6010012  14.2264997 142.0599988 137.1930012  14.9254997 142.3359988
 137.0600012  13.7934997 141.3399988 136.7441142  14.2637049 142.0004830
 134.9170012   6.8904997 141.1759988 134.8720012   7.8294997 141.3539988
 134.0290012   6.6544997 140.9059988 134.7908574   6.9871892 141.1638912
 142.6330012  16.6524997 140.3349988 141.9890012  16.0214997 140.6559988
 143.3950012  16.1214997 140.1029988 142.6478077  16.4942920 140.3476011
 138.1920012  12.3794997 140.4259988 138.2560012  11.5854997 140.9569988
 138.8450012  12.2604997 139.7359988 138.2890241  12.2547148 140.4054317
 143.5440012  13.4264997 140.1619988 143.2750012  13.6064997 141.0629988
 143.3380012  12.5004997 140.0299988 143.4793427  13.3260261 140.2675073
 139.3410012  10.3514997 142.7319988 138.8810012   9.8674997 143.4179988
 139.5960012   9.6834997 142.0959988 139.3124902  10.1948731 142.7399334
 140.4120012   8.5944997 140.9939988 140.2320012   8.4404997 140.0669988
 141.3620012   8.7024997 141.0389988 140.5157776   8.5880175 140.8731843
 140.3090012  19.2854997 141.9949988 141.2420012  19.4434997 142.1389988
 140.0450012  19.9604997 141.3709988 140.4009888  19.3984510 141.9302842
 133.8780012  13.9214997 141.4779988 134.7920012  14.0004997 141.7519988
 133.8850012  13.2344997 140.8119988 134.0041131  13.8393961 141.4254393
 134.1890012   1.3534997 142.9459988 134.6280012   1.9644997 142.3539988
 133.5560012   1.8914997 143.4199988 134.1634514   1.5099257 142.9290930
 134.0900012  17.3014997 143.8429988 133.4050012  17.2634997 143.1759988
 134.0940012  18.2144997 144.1319988 133.9966998  17.4196733 143.7906771
 136.0500012   3.2694997 141.3879988 136.5420012   2.6394997 140.8609988
 136.6740012   3.5654997 142.0509988 136.2015688   3.2233804 141.4055482
 141.0760012   3.5624997 143.8449988 141.2540012   2.9164997 144.5279988
 141.0230012   4.3964997 144.3119988 141.0931999   3.5868009 144.0015917
 142.9550012  18.5114997 142.2409988 143.8210012  18.8774997 142.0629988
 142.7080012  18.0714997 141.4269988 143.0402392  18.5021756 142.1066289
 135.9080012  18.2214997 140.8689988 135.6410012  18.5084997 141.7419988
 136.6800012  17.6754997 141.0209988 135.9757488  18.1870294 141.0091050
  11.2140012  27.2694997 141.5919988  11.9150012  27.2914997 142.2429988
  11.5170012  26.6414997 140.9349988  11.3508133  27.1877070 141.5923369
  13.4370012  28.1834997 143.1899988  14.0170012  28.3334997 143.9369988
  13.8510012  28.6544997 142.4659988  13.5722997  28.2676578 143.1944058
  17.1360012  19.9334997 143.0029988  16.2360012  20.0724997 143.2979988
  17.3880012  20.7644997 142.6009988  17.0468702  20.0649074 142.9890205
  18.3250012  34.2994997 141.3789988  18.3990012  35.2384997 141.5499988
  19.2310012  33.9944997 141.3229988  18.4575100  34.3866722 141.3948119
  13.7380012  37.0304997 142.0419988  14.1130012  36.2864997 141.5709988
  13.7420012  36.7604997 142.9609988  13.7899125  36.8920986 142.1016483
  14.9150012  29.2164997 140.8199988  14.9570012  28.9934997 139.8899988
  15.7640012  29.6154997 141.0089988  15.0355280  29.2399438 140.7183554
  10.4870012  23.0924997 141.4899988  10.2340012  23.1114997 142.4129988
  10.2310012  22.2204997 141.1879988  10.4177481  22.9772558 141.5756175
   7.3700012  23.5374997 140.5909988   6.9390012  23.0924997 141.3209988
   6.6520012  23.9094997 140.0789988   7.2139438  23.5268940 140.6216799
   1.8860012  24.0254997 143.0669988   2.3600012  24.6164997 142.4819988
   1.1690012  24.5564997 143.4139988   1.8539341  24.1780867 143.0338836
   5.9880012  26.3154997 141.9729988   5.4450012  25.9354997 141.2819988
   6.8210012  26.5094997 141.5449988   6.0263631  26.2897125 141.8204501
   9.3230012  30.8804997 143.9089988   8.5780012  30.3734997 143.5869988
   9.1890012  30.9294997 144.8559988   9.2028776  30.8176940 143.9928647
  13.2210012  23.6944997 142.1079988  12.2820012  23.8064997 141.9569988
  13.5180012  24.5514997 142.4149988  13.1327583  23.8255981 142.1288337
  13.9390012  25.5614997 143.7689988  14.8310012  25.4244997 144.0879988
  13.9960012  26.3524997 143.2319988  14.0686504  25.6496052 143.7400818
  11.4490012  32.3394997 142.9349988  11.1530012  33.1654997 143.3159988
  10.7460012  31.7194997 143.1309988  11.3134914  32.3688199 143.0136443
  18.8240012  25.7714997 143.4639988  18.2700012  25.3754997 142.7919988
  18.9240012  26.6814997 143.1859988  18.7617059  25.8403586 143.3344401
  17.1190012  34.5574997 143.9289988  16.7460012  33.7314997 144.2379988
  17.3970012  34.3744997 143.0309988  17.1055222  34.4197430 143.8499473
   2.5780012  28.5554997 141.6699988   3.1940012  29.1824997 142.0499988
   1.7160012  28.8714997 141.9419988   2.5457698  28.6839430 141.7587183
  14.5120012  32.5334997 141.7489988  14.8650012  32.1534997 142.5529988
  13.5630012  32.4404997 141.8359988  14.4320918  32.4688956 141.8708532
  19.0150012  37.0134997 141.9499988  19.7590012  37.5994997 141.8099988
  18.3210012  37.5814997 142.2829988  19.0229899  37.1705798 141.9758778
  15.3780012  31.2064997 143.9759988  15.1000012  30.4784997 144.5319988
  16.3050012  31.3254997 144.1809988  15.4653124  31.1228802 144.0798845
   8.6030012  33.6454997 140.1959988   8.8420012  32.8974997 139.6489988
   8.3340012  33.2574997 141.0289988   8.5993675  33.4906638 140.2336865
   7.5400012  33.2154997 142.6519988   7.6860012  32.6954997 143.4419988
   7.5370012  34.1224997 142.9589988   7.5595792  33.2668842 142.8016117
   3.9930012  30.4684997 143.1629988   3.3070012  30.8204997 143.7299988
   4.5150012  31.2314997 142.9159988   3.9696852  30.6198578 143.2072118
  10.2770012  34.9134997 143.4019988   9.4610012  35.4104997 143.4539988
  10.8070012  35.3884997 142.7619988  10.2369161  35.0457722 143.3225956
   7.6160012  35.9574997 143.3829988   7.7760012  36.7564997 142.8829988
   7.4180012  36.2634997 144.2679988   7.6111637  36.1084020 143.4341144
   6.3500012  22.6544997 142.9989988   6.2670012  23.5434997 143.3459988
   7.2400012  22.3894997 143.2309988   6.4589469  22.7401430 143.0777626
   4.6090012  33.0824997 142.0599988   5.2010012  33.7814997 142.3359988
   5.0680012  32.6494997 141.3399988   4.7521142  33.1197049 142.0004830
   2.9250012  25.7464997 141.1759988   2.8800012  26.6854997 141.3539988
   2.0370012  25.5104997 140.9059988   2.7988574  25.8431892 141.1638912
  10.6410012  35.5084997 140.3349988   9.9970012  34.8774997 140.6559988
  11.4030012  34.9774997 140.1029988  10.6558077  35.3502920 140.3476011
  15.2450012  35.3254997 140.5679988  15.5280012  34.5314997 141.0209988
  15.9850012  35.5584997 140.0079988  15.3838006  35.2483376 140.5542715
   6.2000012  31.2354997 140.4259988   6.2640012  30.4414997 140.9569988
   6.8530012  31.1164997 139.7359988   6.2970241  31.1107148 140.4054317
  11.5520012  32.2824997 140.1619988  11.2830012  32.4624997 141.0629988
  11.3460012  31.3564997 140.0299988  11.4873427  32.1820261 140.2675073
   7.3490012  29.2074997 142.7319988   6.8890012  28.7234997 143.4179988
   7.6040012  28.5394997 142.0959988   7.3204902  29.0508731 142.7399334
   8.4200012  27.4504997 140.9939988   8.2400012  27.2964997 140.0669988
   9.3700012  27.5584997 141.0389988   8.5237776  27.4440175 140.8731843
  17.8100012  29.8054997 140.4399988  17.5360012  29.3804997 139.6269988
  17.8490012  30.7364997 140.2229988  17.7777699  29.8732484 140.2993610
   8.3170012  38.1414997 141.9949988   9.2500012  38.2994997 142.1389988
   8.0530012  38.8164997 141.3709988   8.4089888  38.2544510 141.9302842
   1.8860012  32.7774997 141.4779988   2.8000012  32.8564997 141.7519988
   1.8930012  32.0904997 140.8119988   2.0121131  32.6953961 141.4254393
  18.9310012  28.6284997 142.6299988  18.4090012  28.9854997 141.9109988
  18.8980012  29.3034997 143.3079988  18.8551634  28.7685413 142.6233145
  17.2800012  25.8684997 141.1799988  17.3760012  26.5354997 140.4999988
  17.1400012  25.0524997 140.6989988  17.2742272  25.8495655 141.0218347
  16.5270012  23.2764997 140.2979988  17.1380012  22.9054997 140.9349988
  15.6910012  22.8554997 140.4939988  16.4975032  23.1687554 140.4117035
  18.6400012  22.1614997 141.8399988  19.0520012  21.4404997 141.3649988
  19.3220012  22.8314997 141.8989988  18.7885885  22.1532368 141.7828915
   2.1970012  20.2094997 142.9459988   2.6360012  20.8204997 142.3539988
   1.5640012  20.7474997 143.4199988   2.1714514  20.3659257 142.9290930
   2.0980012  36.1574997 143.8429988   1.4130012  36.1194997 143.1759988
   2.1020012  37.0704997 144.1319988   2.0046998  36.2756733 143.7906771
   4.0580012  22.1254997 141.3879988   4.5500012  21.4954997 140.8609988
   4.6820012  22.4214997 142.0509988   4.2095688  22.0793804 141.4055482
   9.0840012  22.4184997 143.8449988   9.2620012  21.7724997 144.5279988
   9.0310012  23.2524997 144.3119988   9.1011999  22.4428009 144.0015917
  10.9630012  37.3674997 142.2409988  11.8290012  37.7334997 142.0629988
  10.7160012  36.9274997 141.4269988  11.0482392  37.3581756 142.1066289
   3.9160012  37.0774997 140.8689988   3.6490012  37.3644997 141.7419988
   4.6880012  36.5314997 141.0209988   3.9837488  37.0430294 141.0091050
  30.0700012  27.2694997 141.5919988  30.7710012  27.2914997 142.2429988
  30.3730012  26.6414997 140.9349988  30.2068133  27.1877070 141.5923369
  32.2930012  28.1834997 143.1899988  32.8730012  28.3334997 143.9369988
  32.7070012  28.6544997 142.4659988  32.4282997  28.2676578 143.1944058
  35.9920012  19.9334997 143.0029988  35.0920012  20.0724997 143.2979988
  36.2440012  20.7644997 142.6009988  35.9028702  20.0649074 142.9890205
  37.1810012  34.2994997 141.3789988  37.2550012  35.2384997 141.5499988
  38.0870012  33.9944997 141.3229988  37.3135100  34.3866722 141.3948119
  32.5940012  37.0304997 142.0419988  32.9690012  36.2864997 141.5709988
  32.5980012  36.7604997 142.9609988  32.6459125  36.8920986 142.1016483
  33.7710012  29.2164997 140.8199988  33.8130012  28.9934997 139.8899988
  34.6200012  29.6154997 141.0089988  33.8915280  29.2399438 140.7183554
  29.3430012  23.0924997 141.4899988  29.0900012  23.1114997 142.4129988
  29.0870012  22.2204997 141.1879988  29.2737481  22.9772558 141.5756175
  26.2260012  23.5374997 140.5909988  25.7950012  23.0924997 141.3209988
  25.5080012  23.9094997 140.0789988  26.0699438  23.5268940 140.6216799
  20.7420012  24.0254997 143.0669988  21.2160012  24.6164997 142.4819988
  20.0250012  24.5564997 143.4139988  20.7099341  24.1780867 143.0338836
  24.8440012  26.3154997 141.9729988  24.3010012  25.9354997 141.2819988
  25.6770012  26.5094997 141.5449988  24.8823631  26.2897125 141.8204501
  28.1790012  30.8804997 143.9089988  27.4340012  30.3734997 143.5869988
  28.0450012  30.9294997 144.8559988  28.0588776  30.8176940 143.9928647
  32.0770012  23.6944997 142.1079988  31.1380012  23.8064997 141.9569988
  32.3740012  24.5514997 142.4149988  31.9887583  23.8255981 142.1288337
  32.7950012  25.5614997 143.7689988  33.6870012  25.4244997 144.0879988
  32.8520012  26.3524997 143.2319988  32.9246504  25.6496052 143.7400818
  30.3050012  32.3394997 142.9349988  30.0090012  33.1654997 143.3159988
  29.6020012  31.7194997 143.1309988  30.1694914  32.3688199 143.0136443
  37.6800012  25.7714997 143.4639988  37.1260012  25.3754997 142.7919988
  37.7800012  26.6814997 143.1859988  37.6177059  25.8403586 143.3344401
  35.9750012  34.5574997 143.9289988  35.6020012  33.7314997 144.2379988
  36.2530012  34.3744997 143.0309988  35.9615222  34.4197430 143.8499473
  21.4340012  28.5554997 141.6699988  22.0500012  29.1824997 142.0499988
  20.5720012  28.8714997 141.9419988  21.4017698  28.6839430 141.7587183
  33.3680012  32.5334997 141.7489988  33.7210012  32.1534997 142.5529988
  32.4190012  32.4404997 141.8359988  33.2880918  32.4688956 141.8708532
  37.8710012  37.0134997 141.9499988  38.6150012  37.5994997 141.8099988
  37.1770012  37.5814997 142.2829988  37.8789899  37.1705798 141.9758778
  34.2340012  31.2064997 143.9759988  33.9560012  30.4784997 144.5319988
  35.1610012  31.3254997 144.1809988  34.3213124  31.1228802 144.0798845
  27.4590012  33.6454997 140.1959988  27.6980012  32.8974997 139.6489988
  27.1900012  33.2574997 141.0289988  27.4553675  33.4906638 140.2336865
  26.3960012  33.2154997 142.6519988  26.5420012  32.6954997 143.4419988
  26.3930012  34.1224997 142.9589988  26.4155792  33.2668842 142.8016117
  22.8490012  30.4684997 143.1629988  22.1630012  30.8204997 143.7299988
  23.3710012  31.2314997 142.9159988  22.8256852  30.6198578 143.2072118
  29.1330012  34.9134997 143.4019988  28.3170012  35.4104997 143.4539988
  29.6630012  35.3884997 142.7619988  29.0929161  35.0457722 143.3225956
  26.4720012  35.9574997 143.3829988  26.6320012  36.7564997 142.8829988
  26.2740012  36.2634997 144.2679988  26.4671637  36.1084020 143.4341144
  25.2060012  22.6544997 142.9989988  25.1230012  23.5434997 143.3459988
  26.0960012  22.3894997 143.2309988  25.3149469  22.7401430 143.0777626
  23.4650012  33.0824997 142.0599988  24.0570012  33.7814997 142.3359988
  23.9240012  32.6494997 141.3399988  23.6081142  33.1197049 142.0004830
  21.7810012  25.7464997 141.1759988  21.7360012  26.6854997 141.3539988
  20.8930012  25.5104997 140.9059988  21.6548574  25.8431892 141.1638912
  29.4970012  35.5084997 140.3349988  28.8530012  34.8774997 140.6559988
  30.2590012  34.9774997 140.1029988  29.5118077  35.3502920 140.3476011
  34.1010012  35.3254997 140.5679988  34.3840012  34.5314997 141.0209988
  34.8410012  35.5584997 140.0079988  34.2398006  35.2483376 140.5542715
  25.0560012  31.2354997 140.4259988  25.1200012  30.4414997 140.9569988
  25.7090012  31.1164997 139.7359988  25.1530241  31.1107148 140.4054317
  30.4080012  32.2824997 140.1619988  30.1390012  32.4624997 141.0629988
  30.2020012  31.3564997 140.0299988  30.3433427  32.1820261 140.2675073
  26.2050012  29.2074997 142.7319988  25.7450012  28.7234997 143.4179988
  26.4600012  28.5394997 142.0959988  26.1764902  29.0508731 142.7399334
  27.2760012  27.4504997 140.9939988  27.0960012  27.2964997 140.0669988
  28.2260012  27.5584997 141.0389988  27.3797776  27.4440175 140.8731843
  36.6660012  29.8054997 140.4399988  36.3920012  29.3804997 139.6269988
  36.7050012  30.7364997 140.2229988  36.6337699  29.8732484 140.2993610
  27.1730012  38.1414997 141.9949988  28.1060012  38.2994997 142.1389988
  26.9090012  38.8164997 141.3709988  27.2649888  38.2544510 141.9302842
  20.7420012  32.7774997 141.4779988  21.6560012  32.8564997 141.7519988
  20.7490012  32.0904997 140.8119988  20.8681131  32.6953961 141.4254393
  37.7870012  28.6284997 142.6299988  37.2650012  28.9854997 141.9109988
  37.7540012  29.3034997 143.3079988  37.7111634  28.7685413 142.6233145
  36.1360012  25.8684997 141.1799988  36.2320012  26.5354997 140.4999988
  35.9960012  25.0524997 140.6989988  36.1302272  25.8495655 141.0218347
  35.3830012  23.2764997 140.2979988  35.9940012  22.9054997 140.9349988
  34.5470012  22.8554997 140.4939988  35.3535032  23.1687554 140.4117035
  37.4960012  22.1614997 141.8399988  37.9080012  21.4404997 141.3649988
  38.1780012  22.8314997 141.8989988  37.6445885  22.1532368 141.7828915
  21.0530012  20.2094997 142.9459988  21.4920012  20.8204997 142.3539988
  20.4200012  20.7474997 143.4199988  21.0274514  20.3659257 142.9290930
  20.9540012  36.1574997 143.8429988  20.2690012  36.1194997 143.1759988
  20.9580012  37.0704997 144.1319988  20.8606998  36.2756733 143.7906771
  22.9140012  22.1254997 141.3879988  23.4060012  21.4954997 140.8609988
  23.5380012  22.4214997 142.0509988  23.0655688  22.0793804 141.4055482
  27.9400012  22.4184997 143.8449988  28.1180012  21.7724997 144.5279988
  27.8870012  23.2524997 144.3119988  27.9571999  22.4428009 144.0015917
  29.8190012  37.3674997 142.2409988  30.6850012  37.7334997 142.0629988
  29.5720012  36.9274997 141.4269988  29.9042392  37.3581756 142.1066289
  22.7720012  37.0774997 140.8689988  22.5050012  37.3644997 141.7419988
  23.5440012  36.5314997 141.0209988  22.8397488  37.0430294 141.0091050
  48.9260012  27.2694997 141.5919988  49.6270012  27.2914997 142.2429988
  49.2290012  26.6414997 140.9349988  49.0628133  27.1877070 141.5923369
  51.1490012  28.1834997 143.1899988  51.7290012  28.3334997 143.9369988
  51.5630012  28.6544997 142.4659988  51.2842997  28.2676578 143.1944058
  54.8480012  19.9334997 143.0029988  53.9480012  20.0724997 143.2979988
  55.1000012  20.7644997 142.6009988  54.7588702  20.0649074 142.9890205
  56.0370012  34.2994997 141.3789988  56.1110012  35.2384997 141.5499988
  56.9430012  33.9944997 141.3229988  56.1695100  34.3866722 141.3948119
  51.4500012  37.0304997 142.0419988  51.8250012  36.2864997 141.5709988
  51.4540012  36.7604997 142.9609988  51.5019125  36.8920986 142.1016483
  52.6270012  29.2164997 140.8199988  52.6690012  28.9934997 139.8899988
  53.4760012  29.6154997 141.0089988  52.7475280  29.2399438 140.7183554
  48.1990012  23.0924997 141.4899988  47.9460012  23.1114997 142.4129988
  47.9430012  22.2204997 141.1879988  48.1297481  22.9772558 141.5756175
  45.0820012  23.5374997 140.5909988  44.6510012  23.0924997 141.3209988
  44.3640012  23.9094997 140.0789988  44.9259438  23.5268940 140.6216799
  39.5980012  24.0254997 143.0669988  40.0720012  24.6164997 142.4819988
  38.8810012  24.5564997 143.4139988  39.5659341  24.1780867 143.0338836
  43.7000012  26.3154997 141.9729988  43.1570012  25.9354997 141.2819988
  44.5330012  26.5094997 141.5449988  43.7383631  26.2897125 141.8204501
  47.0350012  30.8804997 143.9089988  46.2900012  30.3734997 143.5869988
  46.9010012  30.9294997 144.8559988  46.9148776  30.8176940 143.9928647
  50.9330012  23.6944997 142.1079988  49.9940012  23.8064997 141.9569988
  51.2300012  24.5514997 142.4149988  50.8447583  23.8255981 142.1288337
  51.6510012  25.5614997 143.7689988  52.5430012  25.4244997 144.0879988
  51.7080012  26.3524997 143.2319988  51.7806504  25.6496052 143.7400818
  49.1610012  32.3394997 142.9349988  48.8650012  33.1654997 143.3159988
  48.4580012  31.7194997 143.1309988  49.0254914  32.3688199 143.0136443
  56.5360012  25.7714997 143.4639988  55.9820012  25.3754997 142.7919988
  56.6360012  26.6814997 143.1859988  56.4737059  25.8403586 143.3344401
  54.8310012  34.5574997 143.9289988  54.4580012  33.7314997 144.2379988
  55.1090012  34.3744997 143.0309988  54.8175222  34.4197430 143.8499473
  40.2900012  28.5554997 141.6699988  40.9060012  29.1824997 142.0499988
  39.4280012  28.8714997 141.9419988  40.2577698  28.6839430 141.7587183
  52.2240012  32.5334997 141.7489988  52.5770012  32.1534997 142.5529988
  51.2750012  32.4404997 141.8359988  52.1440918  32.4688956 141.8708532
  56.7270012  37.0134997 141.9499988  57.4710012  37.5994997 141.8099988
  56.0330012  37.5814997 142.2829988  56.7349899  37.1705798 141.9758778
  53.0900012  31.2064997 143.9759988  52.8120012  30.4784997 144.5319988
  54.0170012  31.3254997 144.1809988  53.1773124  31.1228802 144.0798845
  46.3150012  33.6454997 140.1959988  46.5540012  32.8974997 139.6489988
  46.0460012  33.2574997 141.0289988  46.3113675  33.4906638 140.2336865
  45.2520012  33.2154997 142.6519988  45.3980012  32.6954997 143.4419988
  45.2490012  34.1224997 142.9589988  45.2715792  33.2668842 142.8016117
  41.7050012  30.4684997 143.1629988  41.0190012  30.8204997 143.7299988
  42.2270012  31.2314997 142.9159988  41.6816852  30.6198578 143.2072118
  47.9890012  34.9134997 143.4019988  47.1730012  35.4104997 143.4539988
  48.5190012  35.3884997 142.7619988  47.9489161  35.0457722 143.3225956
  45.3280012  35.9574997 143.3829988  45.4880012  36.7564997 142.8829988
  45.1300012  36.2634997 144.2679988  45.3231637  36.1084020 143.4341144
  44.0620012  22.6544997 142.9989988  43.9790012  23.5434997 143.3459988
  44.9520012  22.3894997 143.2309988  44.1709469  22.7401430 143.0777626
  42.3210012  33.0824997 142.0599988  42.9130012  33.7814997 142.3359988
  42.7800012  32.6494997 141.3399988  42.4641142  33.1197049 142.0004830
  40.6370012  25.7464997 141.1759988  40.5920012  26.6854997 141.3539988
  39.7490012  25.5104997 140.9059988  40.5108574  25.8431892 141.1638912
  48.3530012  35.5084997 140.3349988  47.7090012  34.8774997 140.6559988
  49.1150012  34.9774997 140.1029988  48.3678077  35.3502920 140.3476011
  52.9570012  35.3254997 140.5679988  53.2400012  34.5314997 141.0209988
  53.6970012  35.5584997 140.0079988  53.0958006  35.2483376 140.5542715
  43.9120012  31.2354997 140.4259988  43.9760012  30.4414997 140.9569988
  44.5650012  31.1164997 139.7359988  44.0090241  31.1107148 140.4054317
  49.2640012  32.2824997 140.1619988  48.9950012  32.4624997 141.0629988
  49.0580012  31.3564997 140.0299988  49.1993427  32.1820261 140.2675073
  45.0610012  29.2074997 142.7319988  44.6010012  28.7234997 143.4179988
  45.3160012  28.5394997 142.0959988  45.0324902  29.0508731 142.7399334
  46.1320012  27.4504997 140.9939988  45.9520012  27.2964997 140.0669988
  47.0820012  27.5584997 141.0389988  46.2357776  27.4440175 140.8731843
  55.5220012  29.8054997 140.4399988  55.2480012  29.3804997 139.6269988
  55.5610012  30.7364997 140.2229988  55.4897699  29.8732484 140.2993610
  46.0290012  38.1414997 141.9949988  46.9620012  38.2994997 142.1389988
  45.7650012  38.8164997 141.3709988  46.1209888  38.2544510 141.9302842
  39.5980012  32.7774997 141.4779988  40.5120012  32.8564997 141.7519988
  39.6050012  32.0904997 140.8119988  39.7241131  32.6953961 141.4254393
  56.6430012  28.6284997 142.6299988  56.1210012  28.9854997 141.9109988
  56.6100012  29.3034997 143.3079988  56.5671634  28.7685413 142.6233145
  54.9920012  25.8684997 141.1799988  55.0880012  26.5354997 140.4999988
  54.8520012  25.0524997 140.6989988  54.9862272  25.8495655 141.0218347
  54.2390012  23.2764997 140.2979988  54.8500012  22.9054997 140.9349988
  53.4030012  22.8554997 140.4939988  54.2095032  23.1687554 140.4117035
  56.3520012  22.1614997 141.8399988  56.7640012  21.4404997 141.3649988
  57.0340012  22.8314997 141.8989988  56.5005885  22.1532368 141.7828915
  39.9090012  20.2094997 142.9459988  40.3480012  20.8204997 142.3539988
  39.2760012  20.7474997 143.4199988  39.8834514  20.3659257 142.9290930
  39.8100012  36.1574997 143.8429988  39.1250012  36.1194997 143.1759988
  39.8140012  37.0704997 144.1319988  39.7166998  36.2756733 143.7906771
  41.7700012  22.1254997 141.3879988  42.2620012  21.4954997 140.8609988
  42.3940012  22.4214997 142.0509988  41.9215688  22.0793804 141.4055482
  46.7960012  22.4184997 143.8449988  46.9740012  21.7724997 144.5279988
  46.7430012  23.2524997 144.3119988  46.8131999  22.4428009 144.0015917
  48.6750012  37.3674997 142.2409988  49.5410012  37.7334997 142.0629988
  48.4280012  36.9274997 141.4269988  48.7602392  37.3581756 142.1066289
  41.6280012  37.0774997 140.8689988  41.3610012  37.3644997 141.7419988
  42.4000012  36.5314997 141.0209988  41.6957488  37.0430294 141.0091050
  67.7820012  27.2694997 141.5919988  68.4830012  27.2914997 142.2429988
  68.0850012  26.6414997 140.9349988  67.9188133  27.1877070 141.5923369
  70.0050012  28.1834997 143.1899988  70.5850012  28.3334997 143.9369988
  70.4190012  28.6544997 142.4659988  70.1402997  28.2676578 143.1944058
  73.7040012  19.9334997 143.0029988  72.8040012  20.0724997 143.2979988
  73.9560012  20.7644997 142.6009988  73.6148702  20.0649074 142.9890205
  74.8930012  34.2994997 141.3789988  74.9670012  35.2384997 141.5499988
  75.7990012  33.9944997 141.3229988  75.0255100  34.3866722 141.3948119
  70.3060012  37.0304997 142.0419988  70.6810012  36.2864997 141.5709988
  70.3100012  36.7604997 142.9609988  70.3579125  36.8920986 142.1016483
  71.4830012  29.2164997 140.8199988  71.5250012  28.9934997 139.8899988
  72.3320012  29.6154997 141.0089988  71.6035280  29.2399438 140.7183554
  67.0550012  23.0924997 141.4899988  66.8020012  23.1114997 142.4129988
  66.7990012  22.2204997 141.1879988  66.9857481  22.9772558 141.5756175
  63.9380012  23.5374997 140.5909988  63.5070012  23.0924997 141.3209988
  63.2200012  23.9094997 140.0789988  63.7819438  23.5268940 140.6216799
  58.4540012  24.0254997 143.0669988  58.9280012  24.6164997 142.4819988
  57.7370012  24.5564997 143.4139988  58.4219341  24.1780867 143.0338836
  62.5560012  26.3154997 141.9729988  62.0130012  25.9354997 141.2819988
  63.3890012  26.5094997 141.5449988  62.5943631  26.2897125 141.8204501
  65.8910012  30.8804997 143.9089988  65.1460012  30.3734997 143.5869988
  65.7570012  30.9294997 144.8559988  65.7708776  30.8176940 143.9928647
  69.7890012  23.6944997 142.1079988  68.8500012  23.8064997 141.9569988
  70.0860012  24.5514997 142.4149988  69.7007583  23.8255981 142.1288337
  70.5070012  25.5614997 143.7689988  71.3990012  25.4244997 144.0879988
  70.5640012  26.3524997 143.2319988  70.6366504  25.6496052 143.7400818
  68.0170012  32.3394997 142.9349988  67.7210012  33.1654997 143.3159988
  67.3140012  31.7194997 143.1309988  67.8814914  32.3688199 143.0136443
  75.3920012  25.7714997 143.4639988  74.8380012  25.3754997 142.7919988
  75.4920012  26.6814997 143.1859988  75.3297059  25.8403586 143.3344401
  73.6870012  34.5574997 143.9289988  73.3140012  33.7314997 144.2379988
  73.9650012  34.3744997 143.0309988  73.6735222  34.4197430 143.8499473
  59.1460012  28.5554997 141.6699988  59.7620012  29.1824997 142.0499988
  58.2840012  28.8714997 141.9419988  59.1137698  28.6839430 141.7587183
  71.0800012  32.5334997 141.7489988  71.4330012  32.1534997 142.5529988
  70.1310012  32.4404997 141.8359988  71.0000918  32.4688956 141.8708532
  75.5830012  37.0134997 141.9499988  76.3270012  37.5994997 141.8099988
  74.8890012  37.5814997 142.2829988  75.5909899  37.1705798 141.9758778
  71.9460012  31.2064997 143.9759988  71.6680012  30.4784997 144.5319988
  72.8730012  31.3254997 144.1809988  72.0333124  31.1228802 144.0798845
  65.1710012  33.6454997 140.1959988  65.4100012  32.8974997 139.6489988
  64.9020012  33.2574997 141.0289988  65.1673675  33.4906638 140.2336865
  64.1080012  33.2154997 142.6519988  64.2540012  32.6954997 143.4419988
  64.1050012  34.1224997 142.9589988  64.1275792  33.2668842 142.8016117
  60.5610012  30.4684997 143.1629988  59.8750012  30.8204997 143.7299988
  61.0830012  31.2314997 142.9159988  60.5376852  30.6198578 143.2072118
  66.8450012  34.9134997 143.4019988  66.0290012  35.4104997 143.4539988
  67.3750012  35.3884997 142.7619988  66.8049161  35.0457722 143.3225956
  64.1840012  35.9574997 143.3829988  64.3440012  36.7564997 142.8829988
  63.9860012  36.2634997 144.2679988  64.1791637  36.1084020 143.4341144
  62.9180012  22.6544997 142.9989988  62.8350012  23.5434997 143.3459988
  63.8080012  22.3894997 143.2309988  63.0269469  22.7401430 143.0777626
  61.1770012  33.0824997 142.0599988  61.7690012  33.7814997 142.3359988
  61.6360012  32.6494997 141.3399988  61.3201142  33.1197049 142.0004830
  59.4930012  25.7464997 141.1759988  59.4480012  26.6854997 141.3539988
  58.6050012  25.5104997 140.9059988  59.3668574  25.8431892 141.1638912
  67.2090012  35.5084997 140.3349988  66.5650012  34.8774997 140.6559988
  67.9710012  34.9774997 140.1029988  67.2238077  35.3502920 140.3476011
  71.8130012  35.3254997 140.5679988  72.0960012  34.5314997 141.0209988
  72.5530012  35.5584997 140.0079988  71.9518006  35.2483376 140.5542715
  62.7680012  31.2354997 140.4259988  62.8320012  30.4414997 140.9569988
  63.4210012  31.1164997 139.7359988  62.8650241  31.1107148 140.4054317
  68.1200012  32.2824997 140.1619988  67.8510012  32.4624997 141.0629988
  67.9140012  31.3564997 140.0299988  68.0553427  32.1820261 140.2675073
  63.9170012  29.2074997 142.7319988  63.4570012  28.7234997 143.4179988
  64.1720012  28.5394997 142.0959988  63.8884902  29.0508731 142.7399334
  64.9880012  27.4504997 140.9939988  64.8080012  27.2964997 140.0669988
  65.9380012  27.5584997 141.0389988  65.0917776  27.4440175 140.8731843
  74.3780012  29.8054997 140.4399988  74.1040012  29.3804997 139.6269988
  74.4170012  30.7364997 140.2229988  74.3457699  29.8732484 140.2993610
  64.8850012  38.1414997 141.9949988  65.8180012  38.2994997 142.1389988
  64.6210012  38.8164997 141.3709988  64.9769888  38.2544510 141.9302842
  58.4540012  32.7774997 141.4779988  59.3680012  32.8564997 141.7519988
  58.4610012  32.0904997 140.8119988  58.5801131  32.6953961 141.4254393
  75.4990012  28.6284997 142.6299988  74.9770012  28.9854997 141.9109988
  75.4660012  29.3034997 143.3079988  75.4231634  28.7685413 142.6233145
  73.8480012  25.8684997 141.1799988  73.9440012  26.5354997 140.4999988
  73.7080012  25.0524997 140.6989988  73.8422272  25.8495655 141.0218347
  73.0950012  23.2764997 140.2979988  73.7060012  22.9054997 140.9349988
  72.2590012  22.8554997 140.4939988  73.0655032  23.1687554 140.4117035
  75.2080012  22.1614997 141.8399988  75.6200012  21.4404997 141.3649988
  75.8900012  22.8314997 141.8989988  75.3565885  22.1532368 141.7828915
  58.7650012  20.2094997 142.9459988  59.2040012  20.8204997 142.3539988
  58.1320012  20.7474997 143.4199988  58.7394514  20.3659257 142.9290930
  58.6660012  36.1574997 143.8429988  57.9810012  36.1194997 143.1759988
  58.6700012  37.0704997 144.1319988  58.5726998  36.2756733 143.7906771
  60.6260012  22.1254997 141.3879988  61.1180012  21.4954997 140.8609988
  61.2500012  22.4214997 142.0509988  60.7775688  22.0793804 141.4055482
  65.6520012  22.4184997 143.8449988  65.8300012  21.7724997 144.5279988
  65.5990012  23.2524997 144.3119988  65.6691999  22.4428009 144.0015917
  67.5310012  37.3674997 142.2409988  68.3970012  37.7334997 142.0629988
  67.2840012  36.9274997 141.4269988  67.6162392  37.3581756 142.1066289
  60.4840012  37.0774997 140.8689988  60.2170012  37.3644997 141.7419988
  61.2560012  36.5314997 141.0209988  60.5517488  37.0430294 141.0091050
  86.6380012  27.2694997 141.5919988  87.3390012  27.2914997 142.2429988
  86.9410012  26.6414997 140.9349988  86.7748133  27.1877070 141.5923369
  88.8610012  28.1834997 143.1899988  89.4410012  28.3334997 143.9369988
  89.2750012  28.6544997 142.4659988  88.9962997  28.2676578 143.1944058
  92.5600012  19.9334997 143.0029988  91.6600012  20.0724997 143.2979988
  92.8120012  20.7644997 142.6009988  92.4708702  20.0649074 142.9890205
  93.7490012  34.2994997 141.3789988  93.8230012  35.2384997 141.5499988
  94.6550012  33.9944997 141.3229988  93.8815100  34.3866722 141.3948119
  89.1620012  37.0304997 142.0419988  89.5370012  36.2864997 141.5709988
  89.1660012  36.7604997 142.9609988  89.2139125  36.8920986 142.1016483
  90.3390012  29.2164997 140.8199988  90.3810012  28.9934997 139.8899988
  91.1880012  29.6154997 141.0089988  90.4595280  29.2399438 140.7183554
  85.9110012  23.0924997 141.4899988  85.6580012  23.1114997 142.4129988
  85.6550012  22.2204997 141.1879988  85.8417481  22.9772558 141.5756175
  82.7940012  23.5374997 140.5909988  82.3630012  23.0924997 141.3209988
  82.0760012  23.9094997 140.0789988  82.6379438  23.5268940 140.6216799
  77.3100012  24.0254997 143.0669988  77.7840012  24.6164997 142.4819988
  76.5930012  24.5564997 143.4139988  77.2779341  24.1780867 143.0338836
  81.4120012  26.3154997 141.9729988  80.8690012  25.9354997 141.2819988
  82.2450012  26.5094997 141.5449988  81.4503631  26.2897125 141.8204501
  84.7470012  30.8804997 143.9089988  84.0020012  30.3734997 143.5869988
  84.6130012  30.9294997 144.8559988  84.6268776  30.8176940 143.9928647
  88.6450012  23.6944997 142.1079988  87.7060012  23.8064997 141.9569988
  88.9420012  24.5514997 142.4149988  88.5567583  23.8255981 142.1288337
  89.3630012  25.5614997 143.7689988  90.2550012  25.4244997 144.0879988
  89.4200012  26.3524997 143.2319988  89.4926504  25.6496052 143.7400818
  86.8730012  32.3394997 142.9349988  86.5770012  33.1654997 143.3159988
  86.1700012  31.7194997 143.1309988  86.7374914  32.3688199 143.0136443
  94.2480012  25.7714997 143.4639988  93.6940012  25.3754997 142.7919988
  94.3480012  26.6814997 143.1859988  94.1857059  25.8403586 143.3344401
  92.5430012  34.5574997 143.9289988  92.1700012  33.7314997 144.2379988
  92.8210012  34.3744997 143.0309988  92.5295222  34.4197430 143.8499473
  78.0020012  28.5554997 141.6699988  78.6180012  29.1824997 142.0499988
  77.1400012  28.8714997 141.9419988  77.9697698  28.6839430 141.7587183
  89.9360012  32.5334997 141.7489988  90.2890012  32.1534997 142.5529988
  88.9870012  32.4404997 141.8359988  89.8560918  32.4688956 141.8708532
  94.4390012  37.0134997 141.9499988  95.1830012  37.5994997 141.8099988
  93.7450012  37.5814997 142.2829988  94.4469899  37.1705798 141.9758778
  90.8020012  31.2064997 143.9759988  90.5240012  30.4784997 144.5319988
  91.7290012  31.3254997 144.1809988  90.8893124  31.1228802 144.0798845
  84.0270012  33.6454997 140.1959988  84.2660012  32.8974997 139.6489988
  83.7580012  33.2574997 141.0289988  84.0233675  33.4906638 140.2336865
  82.9640012  33.2154997 142.6519988  83.1100012  32.6954997 143.4419988
  82.9610012  34.1224997 142.9589988  82.9835792  33.2668842 142.8016117
  79.4170012  30.4684997 143.1629988  78.7310012  30.8204997 143.7299988
  79.9390012  31.2314997 142.9159988  79.3936852  30.6198578 143.2072118
  85.7010012  34.9134997 143.4019988  84.8850012  35.4104997 143.4539988
  86.2310012  35.3884997 142.7619988  85.6609161  35.0457722 143.3225956
  83.0400012  35.9574997 143.3829988  83.2000012  36.7564997 142.8829988
  82.8420012  36.2634997 144.2679988  83.0351637  36.1084020 143.4341144
  81.7740012  22.6544997 142.9989988  81.6910012  23.5434997 143.3459988
  82.6640012  22.3894997 143.2309988  81.8829469  22.7401430 143.0777626
  80.0330012  33.0824997 142.0599988  80.6250012  33.7814997 142.3359988
  80.4920012  32.6494997 141.3399988  80.1761142  33.1197049 142.0004830
  78.3490012  25.7464997 141.1759988  78.3040012  26.6854997 141.3539988
  77.4610012  25.5104997 140.9059988  78.2228574  25.8431892 141.1638912
  86.0650012  35.5084997 140.3349988  85.4210012  34.8774997 140.6559988
  86.8270012  34.9774997 140.1029988  86.0798077  35.3502920 140.3476011
  90.6690012  35.3254997 140.5679988  90.9520012  34.5314997 141.0209988
  91.4090012  35.5584997 140.0079988  90.8078006  35.2483376 140.5542715
  81.6240012  31.2354997 140.4259988  81.6880012  30.4414997 140.9569988
  82.2770012  31.1164997 139.7359988  81.7210241  31.1107148 140.4054317
  86.9760012  32.2824997 140.1619988  86.7070012  32.4624997 141.0629988
  86.7700012  31.3564997 140.0299988  86.9113427  32.1820261 140.2675073
  82.7730012  29.2074997 142.7319988  82.3130012  28.7234997 143.4179988
  83.0280012  28.5394997 142.0959988  82.7444902  29.0508731 142.7399334
  83.8440012  27.4504997 140.9939988  83.6640012  27.2964997 140.0669988
  84.7940012  27.5584997 141.0389988  83.9477776  27.4440175 140.8731843
  93.2340012  29.8054997 140.4399988  92.9600012  29.3804997 139.6269988
  93.2730012  30.7364997 140.2229988  93.2017699  29.8732484 140.2993610
  83.7410012  38.1414997 141.9949988  84.6740012  38.2994997 142.1389988
  83.4770012  38.8164997 141.3709988  83.8329888  38.2544510 141.9302842
  77.3100012  32.7774997 141.4779988  78.2240012  32.8564997 141.7519988
  77.3170012  32.0904997 140.8119988  77.4361131  32.6953961 141.4254393
  94.3550012  28.6284997 142.6299988  93.8330012  28.9854997 141.9109988
  94.3220012  29.3034997 143.3079988  94.2791634  28.7685413 142.6233145
  92.7040012  25.8684997 141.1799988  92.8000012  26.5354997 140.4999988
  92.5640012  25.0524997 140.6989988  92.6982272  25.8495655 141.0218347
  91.9510012  23.2764997 140.2979988  92.5620012  22.9054997 140.9349988
  91.1150012  22.8554997 140.4939988  91.9215032  23.1687554 140.4117035
  94.0640012  22.1614997 141.8399988  94.4760012  21.4404997 141.3649988
  94.7460012  22.8314997 141.8989988  94.2125885  22.1532368 141.7828915
  77.6210012  20.2094997 142.9459988  78.0600012  20.8204997 142.3539988
  76.9880012  20.7474997 143.4199988  77.5954514  20.3659257 142.9290930
  77.5220012  36.1574997 143.8429988  76.8370012  36.1194997 143.1759988
  77.5260012  37.0704997 144.1319988  77.4286998  36.2756733 143.7906771
  79.4820012  22.1254997 141.3879988  79.9740012  21.4954997 140.8609988
  80.1060012  22.4214997 142.0509988  79.6335688  22.0793804 141.4055482
  84.5080012  22.4184997 143.8449988  84.6860012  21.7724997 144.5279988
  84.4550012  23.2524997 144.3119988  84.5251999  22.4428009 144.0015917
  86.3870012  37.3674997 142.2409988  87.2530012  37.7334997 142.0629988
  86.1400012  36.9274997 141.4269988  86.4722392  37.3581756 142.1066289
  79.3400012  37.0774997 140.8689988  79.0730012  37.3644997 141.7419988
  80.1120012  36.5314997 141.0209988  79.4077488  37.0430294 141.0091050
 105.4940012  27.2694997 141.5919988 106.1950012  27.2914997 142.2429988
 105.7970012  26.6414997 140.9349988 105.6308133  27.1877070 141.5923369
 107.7170012  28.1834997 143.1899988 108.2970012  28.3334997 143.9369988
 108.1310012  28.6544997 142.4659988 107.8522997  28.2676578 143.1944058
 111.4160012  19.9334997 143.0029988 110.5160012  20.0724997 143.2979988
 111.6680012  20.7644997 142.6009988 111.3268702  20.0649074 142.9890205
 112.6050012  34.2994997 141.3789988 112.6790012  35.2384997 141.5499988
 113.5110012  33.9944997 141.3229988 112.7375100  34.3866722 141.3948119
 108.0180012  37.0304997 142.0419988 108.3930012  36.2864997 141.5709988
 108.0220012  36.7604997 142.9609988 108.0699125  36.8920986 142.1016483
 109.1950012  29.2164997 140.8199988 109.2370012  28.9934997 139.8899988
 110.0440012  29.6154997 141.0089988 109.3155280  29.2399438 140.7183554
 104.7670012  23.0924997 141.4899988 104.5140012  23.1114997 142.4129988
 104.5110012  22.2204997 141.1879988 104.6977481  22.9772558 141.5756175
 101.6500012  23.5374997 140.5909988 101.2190012  23.0924997 141.3209988
 100.9320012  23.9094997 140.0789988 101.4939438  23.5268940 140.6216799
  96.1660012  24.0254997 143.0669988  96.6400012  24.6164997 142.4819988
  95.4490012  24.5564997 143.4139988  96.1339341  24.1780867 143.0338836
 100.2680012  26.3154997 141.9729988  99.7250012  25.9354997 141.2819988
 101.1010012  26.5094997 141.5449988 100.3063631  26.2897125 141.8204501
 103.6030012  30.8804997 143.9089988 102.8580012  30.3734997 143.5869988
 103.4690012  30.9294997 144.8559988 103.4828776  30.8176940 143.9928647
 107.5010012  23.6944997 142.1079988 106.5620012  23.8064997 141.9569988
 107.7980012  24.5514997 142.4149988 107.4127583  23.8255981 142.1288337
 108.2190012  25.5614997 143.7689988 109.1110012  25.4244997 144.0879988
 108.2760012  26.3524997 143.2319988 108.3486504  25.6496052 143.7400818
 105.7290012  32.3394997 142.9349988 105.4330012  33.1654997 143.3159988
 105.0260012  31.7194997 143.1309988 105.5934914  32.3688199 143.0136443
 113.1040012  25.7714997 143.4639988 112.5500012  25.3754997 142.7919988
 113.2040012  26.6814997 143.1859988 113.0417059  25.8403586 143.3344401
 111.3990012  34.5574997 143.9289988 111.0260012  33.7314997 144.2379988
 111.6770012  34.3744997 143.0309988 111.3855222  34.4197430 143.8499473
  96.8580012  28.5554997 141.6699988  97.4740012  29.1824997 142.0499988
  95.9960012  28.8714997 141.9419988  96.8257698  28.6839430 141.7587183
 108.7920012  32.5334997 141.7489988 109.1450012  32.1534997 142.5529988
 107.8430012  32.4404997 141.8359988 108.7120918  32.4688956 141.8708532
 113.2950012  37.0134997 141.9499988 114.0390012  37.5994997 141.8099988
 112.6010012  37.5814997 142.2829988 113.3029899  37.1705798 141.9758778
 109.6580012  31.2064997 143.9759988 109.3800012  30.4784997 144.5319988
 110.5850012  31.3254997 144.1809988 109.7453124  31.1228802 144.0798845
 102.8830012  33.6454997 140.1959988 103.1220012  32.8974997 139.6489988
 102.6140012  33.2574997 141.0289988 102.8793675  33.4906638 140.2336865
 101.8200012  33.2154997 142.6519988 101.9660012  32.6954997 143.4419988
 101.8170012  34.1224997 142.9589988 101.8395792  33.2668842 142.8016117
  98.2730012  30.4684997 143.1629988  97.5870012  30.8204997 143.7299988
  98.7950012  31.2314997 142.9159988  98.2496852  30.6198578 143.2072118
 104.5570012  34.9134997 143.4019988 103.7410012  35.4104997 143.4539988
 105.0870012  35.3884997 142.7619988 104.5169161  35.0457722 143.3225956
 101.8960012  35.9574997 143.3829988 102.0560012  36.7564997 142.8829988
 101.6980012  36.2634997 144.2679988 101.8911637  36.1084020 143.4341144
 100.6300012  22.6544997 142.9989988 100.5470012  23.5434997 143.3459988
 101.5200012  22.3894997 143.2309988 100.7389469  22.7401430 143.0777626
  98.8890012  33.0824997 142.0599988  99.4810012  33.7814997 142.3359988
  99.3480012  32.6494997 141.3399988  99.0321142  33.1197049 142.0004830
  97.2050012  25.7464997 141.1759988  97.1600012  26.6854997 141.3539988
  96.3170012  25.5104997 140.9059988  97.0788574  25.8431892 141.1638912
 104.9210012  35.5084997 140.3349988 104.2770012  34.8774997 140.6559988
 105.6830012  34.9774997 140.1029988 104.9358077  35.3502920 140.3476011
 109.5250012  35.3254997 140.5679988 109.8080012  34.5314997 141.0209988
 110.2650012  35.5584997 140.0079988 109.6638006  35.2483376 140.5542715
 100.4800012  31.2354997 140.4259988 100.5440012  30.4414997 140.9569988
 101.1330012  31.1164997 139.7359988 100.5770241  31.1107148 140.4054317
 105.8320012  32.2824997 140.1619988 105.5630012  32.4624997 141.0629988
 105.6260012  31.3564997 140.0299988 105.7673427  32.1820261 140.2675073
 101.6290012  29.2074997 142.7319988 101.1690012  28.7234997 143.4179988
 101.8840012  28.5394997 142.0959988 101.6004902  29.0508731 142.7399334
 102.7000012  27.4504997 140.9939988 102.5200012  27.2964997 140.0669988
 103.6500012  27.5584997 141.0389988 102.8037776  27.4440175 140.8731843
 112.0900012  29.8054997 140.4399988 111.8160012  29.3804997 139.6269988
 112.1290012  30.7364997 140.2229988 112.0577699  29.8732484 140.2993610
 102.5970012  38.1414997 141.9949988 103.5300012  38.2994997 142.1389988
 102.3330012  38.8164997 141.3709988 102.6889888  38.2544510 141.9302842
  96.1660012  32.7774997 141.4779988  97.0800012  32.8564997 141.7519988
  96.1730012  32.0904997 140.8119988  96.2921131  32.6953961 141.4254393
 113.2110012  28.6284997 142.6299988 112.6890012  28.9854997 141.9109988
 113.1780012  29.3034997 143.3079988 113.1351634  28.7685413 142.6233145
 111.5600012  25.8684997 141.1799988 111.6560012  26.5354997 140.4999988
 111.4200012  25.0524997 140.6989988 111.5542272  25.8495655 141.0218347
 110.8070012  23.2764997 140.2979988 111.4180012  22.9054997 140.9349988
 109.9710012  22.8554997 140.4939988 110.7775032  23.1687554 140.4117035
 112.9200012  22.1614997 141.8399988 113.3320012  21.4404997 141.3649988
 113.6020012  22.8314997 141.8989988 113.0685885  22.1532368 141.7828915
  96.4770012  20.2094997 142.9459988  96.9160012  20.8204997 142.3539988
  95.8440012  20.7474997 143.4199988  96.4514514  20.3659257 142.9290930
  96.3780012  36.1574997 143.8429988  95.6930012  36.1194997 143.1759988
  96.3820012  37.0704997 144.1319988  96.2846998  36.2756733 143.7906771
  98.3380012  22.1254997 141.3879988  98.8300012  21.4954997 140.8609988
  98.9620012  22.4214997 142.0509988  98.4895688  22.0793804 141.4055482
 103.3640012  22.4184997 143.8449988 103.5420012  21.7724997 144.5279988
 103.3110012  23.2524997 144.3119988 103.3811999  22.4428009 144.0015917
 105.2430012  37.3674997 142.2409988 106.1090012  37.7334997 142.0629988
 104.9960012  36.9274997 141.4269988 105.3282392  37.3581756 142.1066289
  98.1960012  37.0774997 140.8689988  97.9290012  37.3644997 141.7419988
  98.9680012  36.5314997 141.0209988  98.2637488  37.0430294 141.0091050
 124.3500012  27.2694997 141.5919988 125.0510012  27.2914997 142.2429988
 124.6530012  26.6414997 140.9349988 124.4868133  27.1877070 141.5923369
 126.5730012  28.1834997 143.1899988 127.1530012  28.3334997 143.9369988
 126.9870012  28.6544997 142.4659988 126.7082997  28.2676578 143.1944058
 130.2720012  19.9334997 143.0029988 129.3720012  20.0724997 143.2979988
 130.5240012  20.7644997 142.6009988 130.1828702  20.0649074 142.9890205
 131.4610012  34.2994997 141.3789988 131.5350012  35.2384997 141.5499988
 132.3670012  33.9944997 141.3229988 131.5935100  34.3866722 141.3948119
 126.8740012  37.0304997 142.0419988 127.2490012  36.2864997 141.5709988
 126.8780012  36.7604997 142.9609988 126.9259125  36.8920986 142.1016483
 128.0510012  29.2164997 140.8199988 128.0930012  28.9934997 139.8899988
 128.9000012  29.6154997 141.0089988 128.1715280  29.2399438 140.7183554
 123.6230012  23.0924997 141.4899988 123.3700012  23.1114997 142.4129988
 123.3670012  22.2204997 141.1879988 123.5537481  22.9772558 141.5756175
 120.5060012  23.5374997 140.5909988 120.0750012  23.0924997 141.3209988
 119.7880012  23.9094997 140.0789988 120.3499438  23.5268940 140.6216799
 115.0220012  24.0254997 143.0669988 115.4960012  24.6164997 142.4819988
 114.3050012  24.5564997 143.4139988 114.9899341  24.1780867 143.0338836
 119.1240012  26.3154997 141.9729988 118.5810012  25.9354997 141.2819988
 119.9570012  26.5094997 141.5449988 119.1623631  26.2897125 141.8204501
 122.4590012  30.8804997 143.9089988 121.7140012  30.3734997 143.5869988
 122.3250012  30.9294997 144.8559988 122.3388776  30.8176940 143.9928647
 126.3570012  23.6944997 142.1079988 125.4180012  23.8064997 141.9569988
 126.6540012  24.5514997 142.4149988 126.2687583  23.8255981 142.1288337
 127.0750012  25.5614997 143.7689988 127.9670012  25.4244997 144.0879988
 127.1320012  26.3524997 143.2319988 127.2046504  25.6496052 143.7400818
 124.5850012  32.3394997 142.9349988 124.2890012  33.1654997 143.3159988
 123.8820012  31.7194997 143.1309988 124.4494914  32.3688199 143.0136443
 131.9600012  25.7714997 143.4639988 131.4060012  25.3754997 142.7919988
 132.0600012  26.6814997 143.1859988 131.8977059  25.8403586 143.3344401
 130.2550012  34.5574997 143.9289988 129.8820012  33.7314997 144.2379988
 130.5330012  34.3744997 143.0309988 130.2415222  34.4197430 143.8499473
 115.7140012  28.5554997 141.6699988 116.3300012  29.1824997 142.0499988
 114.8520012  28.8714997 141.9419988 115.6817698  28.6839430 141.7587183
 127.6480012  32.5334997 141.7489988 128.0010012  32.1534997 142.5529988
 126.6990012  32.4404997 141.8359988 127.5680918  32.4688956 141.8708532
 132.1510012  37.0134997 141.9499988 132.8950012  37.5994997 141.8099988
 131.4570012  37.5814997 142.2829988 132.1589899  37.1705798 141.9758778
 128.5140012  31.2064997 143.9759988 128.2360012  30.4784997 144.5319988
 129.4410012  31.3254997 144.1809988 128.6013124  31.1228802 144.0798845
 121.7390012  33.6454997 140.1959988 121.9780012  32.8974997 139.6489988
 121.4700012  33.2574997 141.0289988 121.7353675  33.4906638 140.2336865
 120.6760012  33.2154997 142.6519988 120.8220012  32.6954997 143.4419988
 120.6730012  34.1224997 142.9589988 120.6955792  33.2668842 142.8016117
 117.1290012  30.4684997 143.1629988 116.4430012  30.8204997 143.7299988
 117.6510012  31.2314997 142.9159988 117.1056852  30.6198578 143.2072118
 123.4130012  34.9134997 143.4019988 122.5970012  35.4104997 143.4539988
 123.9430012  35.3884997 142.7619988 123.3729161  35.0457722 143.3225956
 120.7520012  35.9574997 143.3829988 120.9120012  36.7564997 142.8829988
 120.5540012  36.2634997 144.2679988 120.7471637  36.1084020 143.4341144
 119.4860012  22.6544997 142.9989988 119.4030012  23.5434997 143.3459988
 120.3760012  22.3894997 143.2309988 119.5949469  22.7401430 143.0777626
 117.7450012  33.0824997 142.0599988 118.3370012  33.7814997 142.3359988
 118.2040012  32.6494997 141.3399988 117.8881142  33.1197049 142.0004830
 116.0610012  25.7464997 141.1759988 116.0160012  26.6854997 141.3539988
 115.1730012  25.5104997 140.9059988 115.9348574  25.8431892 141.1638912
 123.7770012  35.5084997 140.3349988 123.1330012  34.8774997 140.6559988
 124.5390012  34.9774997 140.1029988 123.7918077  35.3502920 140.3476011
 128.3810012  35.3254997 140.5679988 128.6640012  34.5314997 141.0209988
 129.1210012  35.5584997 140.0079988 128.5198006  35.2483376 140.5542715
 119.3360012  31.2354997 140.4259988 119.4000012  30.4414997 140.9569988
 119.9890012  31.1164997 139.7359988 119.4330241  31.1107148 140.4054317
 124.6880012  32.2824997 140.1619988 124.4190012  32.4624997 141.0629988
 124.4820012  31.3564997 140.0299988 124.6233427  32.1820261 140.2675073
 120.4850012  29.2074997 142.7319988 120.0250012  28.7234997 143.4179988
 120.7400012  28.5394997 142.0959988 120.4564902  29.0508731 142.7399334
 121.5560012  27.4504997 140.9939988 121.3760012  27.2964997 140.0669988
 122.5060012  27.5584997 141.0389988 121.6597776  27.4440175 140.8731843
 130.9460012  29.8054997 140.4399988 130.6720012  29.3804997 139.6269988
 130.9850012  30.7364997 140.2229988 130.9137699  29.8732484 140.2993610
 121.4530012  38.1414997 141.9949988 122.3860012  38.2994997 142.1389988
 121.1890012  38.8164997 141.3709988 121.5449888  38.2544510 141.9302842
 115.0220012  32.7774997 141.4779988 115.9360012  32.8564997 141.7519988
 115.0290012  32.0904997 140.8119988 115.1481131  32.6953961 141.4254393
 132.0670012  28.6284997 142.6299988 131.5450012  28.9854997 141.9109988
 132.0340012  29.3034997 143.3079988 131.9911634  28.7685413 142.6233145
 130.4160012  25.8684997 141.1799988 130.5120012  26.5354997 140.4999988
 130.2760012  25.0524997 140.6989988 130.4102272  25.8495655 141.0218347
 129.6630012  23.2764997 140.2979988 130.2740012  22.9054997 140.9349988
 128.8270012  22.8554997 140.4939988 129.6335032  23.1687554 140.4117035
 131.7760012  22.1614997 141.8399988 132.1880012  21.4404997 141.3649988
 132.4580012  22.8314997 141.8989988 131.9245885  22.1532368 141.7828915
 115.3330012  20.2094997 142.9459988 115.7720012  20.8204997 142.3539988
 114.7000012  20.7474997 143.4199988 115.3074514  20.3659257 142.9290930
 115.2340012  36.1574997 143.8429988 114.5490012  36.1194997 143.1759988
 115.2380012  37.0704997 144.1319988 115.1406998  36.2756733 143.7906771
 117.1940012  22.1254997 141.3879988 117.6860012  21.4954997 140.8609988
 117.8180012  22.4214997 142.0509988 117.3455688  22.0793804 141.4055482
 122.2200012  22.4184997 143.8449988 122.3980012  21.7724997 144.5279988
 122.1670012  23.2524997 144.3119988 122.2371999  22.4428009 144.0015917
 124.0990012  37.3674997 142.2409988 124.9650012  37.7334997 142.0629988
 123.8520012  36.9274997 141.4269988 124.1842392  37.3581756 142.1066289
 117.0520012  37.0774997 140.8689988 116.7850012  37.3644997 141.7419988
 117.8240012  36.5314997 141.0209988 117.1197488  37.0430294 141.0091050
 143.2060012  27.2694997 141.5919988 143.9070012  27.2914997 142.2429988
 143.5090012  26.6414997 140.9349988 143.3428133  27.1877070 141.5923369
 142.4790012  23.0924997 141.4899988 142.2260012  23.1114997 142.4129988
 142.2230012  22.2204997 141.1879988 142.4097481  22.9772558 141.5756175
 139.3620012  23.5374997 140.5909988 138.9310012  23.0924997 141.3209988
 138.6440012  23.9094997 140.0789988 139.2059438  23.5268940 140.6216799
 133.8780012  24.0254997 143.0669988 134.3520012  24.6164997 142.4819988
 133.1610012  24.5564997 143.4139988 133.8459341  24.1780867 143.0338836
 137.9800012  26.3154997 141.9729988 137.4370012  25.9354997 141.2819988
 138.8130012  26.5094997 141.5449988 138.0183631  26.2897125 141.8204501
 141.3150012  30.8804997 143.9089988 140.5700012  30.3734997 143.5869988
 141.1810012  30.9294997 144.8559988 141.1948776  30.8176940 143.9928647
 143.4410012  32.3394997 142.9349988 143.1450012  33.1654997 143.3159988
 142.7380012  31.7194997 143.1309988 143.3054914  32.3688199 143.0136443
 134.5700012  28.5554997 141.6699988 135.1860012  29.1824997 142.0499988
 133.7080012  28.8714997 141.9419988 134.5377698  28.6839430 141.7587183
 140.5950012  33.6454997 140.1959988 140.8340012  32.8974997 139.6489988
 140.3260012  33.2574997 141.0289988 140.5913675  33.4906638 140.2336865
 139.5320012  33.2154997 142.6519988 139.6780012  32.6954997 143.4419988
 139.5290012  34.1224997 142.9589988 139.5515792  33.2668842 142.8016117
 135.9850012  30.4684997 143.1629988 135.2990012  30.8204997 143.7299988
 136.5070012  31.2314997 142.9159988 135.9616852  30.6198578 143.2072118
 142.2690012  34.9134997 143.4019988 141.4530012  35.4104997 143.4539988
 142.7990012  35.3884997 142.7619988 142.2289161  35.0457722 143.3225956
 139.6080012  35.9574997 143.3829988 139.7680012  36.7564997 142.8829988
 139.4100012  36.2634997 144.2679988 139.6031637  36.1084020 143.4341144
 138.3420012  22.6544997 142.9989988 138.2590012  23.5434997 143.3459988
 139.2320012  22.3894997 143.2309988 138.4509469  22.7401430 143.0777626
 136.6010012  33.0824997 142.0599988 137.1930012  33.7814997 142.3359988
 137.0600012  32.6494997 141.3399988 136.7441142  33.1197049 142.0004830
 134.9170012  25.7464997 141.1759988 134.8720012  26.6854997 141.3539988
 134.0290012  25.5104997 140.9059988 134.7908574  25.8431892 141.1638912
 142.6330012  35.5084997 140.3349988 141.9890012  34.8774997 140.6559988
 143.3950012  34.9774997 140.1029988 142.6478077  35.3502920 140.3476011
 138.1920012  31.2354997 140.4259988 138.2560012  30.4414997 140.9569988
 138.8450012  31.1164997 139.7359988 138.2890241  31.1107148 140.4054317
 143.5440012  32.2824997 140.1619988 143.2750012  32.4624997 141.0629988
 143.3380012  31.3564997 140.0299988 143.4793427  32.1820261 140.2675073
 139.3410012  29.2074997 142.7319988 138.8810012  28.7234997 143.4179988
 139.5960012  28.5394997 142.0959988 139.3124902  29.0508731 142.7399334
 140.4120012  27.4504997 140.9939988 140.2320012  27.2964997 140.0669988
 141.3620012  27.5584997 141.0389988 140.5157776  27.4440175 140.8731843
 140.3090012  38.1414997 141.9949988 141.2420012  38.2994997 142.1389988
 140.0450012  38.8164997 141.3709988 140.4009888  38.2544510 141.9302842
 133.8780012  32.7774997 141.4779988 134.7920012  32.8564997 141.7519988
 133.8850012  32.0904997 140.8119988 134.0041131  32.6953961 141.4254393
 134.1890012  20.2094997 142.9459988 134.6280012  20.8204997 142.3539988
 133.5560012  20.7474997 143.4199988 134.1634514  20.3659257 142.9290930
 134.0900012  36.1574997 143.8429988 133.4050012  36.1194997 143.1759988
 134.0940012  37.0704997 144.1319988 133.9966998  36.2756733 143.7906771
 136.0500012  22.1254997 141.3879988 136.5420012  21.4954997 140.8609988
 136.6740012  22.4214997 142.0509988 136.2015688  22.0793804 141.4055482
 141.0760012  22.4184997 143.8449988 141.2540012  21.7724997 144.5279988
 141.0230012  23.2524997 144.3119988 141.0931999  22.4428009 144.0015917
 142.9550012  37.3674997 142.2409988 143.8210012  37.7334997 142.0629988
 142.7080012  36.9274997 141.4269988 143.0402392  37.3581756 142.1066289
 135.9080012  37.0774997 140.8689988 135.6410012  37.3644997 141.7419988
 136.6800012  36.5314997 141.0209988 135.9757488  37.0430294 141.0091050
  11.2140012  46.1254997 141.5919988  11.9150012  46.1474997 142.2429988
  11.5170012  45.4974997 140.9349988  11.3508133  46.0437070 141.5923369
  13.4370012  47.0394997 143.1899988  14.0170012  47.1894997 143.9369988
  13.8510012  47.5104997 142.4659988  13.5722997  47.1236578 143.1944058
  17.1360012  38.7894997 143.0029988  16.2360012  38.9284997 143.2979988
  17.3880012  39.6204997 142.6009988  17.0468702  38.9209074 142.9890205
  18.3250012  53.1554997 141.3789988  18.3990012  54.0944997 141.5499988
  19.2310012  52.8504997 141.3229988  18.4575100  53.2426722 141.3948119
  13.7380012  55.8864997 142.0419988  14.1130012  55.1424997 141.5709988
  13.7420012  55.6164997 142.9609988  13.7899125  55.7480986 142.1016483
  14.9150012  48.0724997 140.8199988  14.9570012  47.8494997 139.8899988
  15.7640012  48.4714997 141.0089988  15.0355280  48.0959438 140.7183554
  10.4870012  41.9484997 141.4899988  10.2340012  41.9674997 142.4129988
  10.2310012  41.0764997 141.1879988  10.4177481  41.8332558 141.5756175
   7.3700012  42.3934997 140.5909988   6.9390012  41.9484997 141.3209988
   6.6520012  42.7654997 140.0789988   7.2139438  42.3828940 140.6216799
   1.8860012  42.8814997 143.0669988   2.3600012  43.4724997 142.4819988
   1.1690012  43.4124997 143.4139988   1.8539341  43.0340867 143.0338836
   5.9880012  45.1714997 141.9729988   5.4450012  44.7914997 141.2819988
   6.8210012  45.3654997 141.5449988   6.0263631  45.1457125 141.8204501
   9.3230012  49.7364997 143.9089988   8.5780012  49.2294997 143.5869988
   9.1890012  49.7854997 144.8559988   9.2028776  49.6736940 143.9928647
  13.2210012  42.5504997 142.1079988  12.2820012  42.6624997 141.9569988
  13.5180012  43.4074997 142.4149988  13.1327583  42.6815981 142.1288337
  13.9390012  44.4174997 143.7689988  14.8310012  44.2804997 144.0879988
  13.9960012  45.2084997 143.2319988  14.0686504  44.5056052 143.7400818
  11.4490012  51.1954997 142.9349988  11.1530012  52.0214997 143.3159988
  10.7460012  50.5754997 143.1309988  11.3134914  51.2248199 143.0136443
  18.8240012  44.6274997 143.4639988  18.2700012  44.2314997 142.7919988
  18.9240012  45.5374997 143.1859988  18.7617059  44.6963586 143.3344401
  17.1190012  53.4134997 143.9289988  16.7460012  52.5874997 144.2379988
  17.3970012  53.2304997 143.0309988  17.1055222  53.2757430 143.8499473
   2.5780012  47.4114997 141.6699988   3.1940012  48.0384997 142.0499988
   1.7160012  47.7274997 141.9419988   2.5457698  47.5399430 141.7587183
  14.5120012  51.3894997 141.7489988  14.8650012  51.0094997 142.5529988
  13.5630012  51.2964997 141.8359988  14.4320918  51.3248956 141.8708532
  19.0150012  55.8694997 141.9499988  19.7590012  56.4554997 141.8099988
  18.3210012  56.4374997 142.2829988  19.0229899  56.0265798 141.9758778
  15.3780012  50.0624997 143.9759988  15.1000012  49.3344997 144.5319988
  16.3050012  50.1814997 144.1809988  15.4653124  49.9788802 144.0798845
   8.6030012  52.5014997 140.1959988   8.8420012  51.7534997 139.6489988
   8.3340012  52.1134997 141.0289988   8.5993675  52.3466638 140.2336865
   7.5400012  52.0714997 142.6519988   7.6860012  51.5514997 143.4419988
   7.5370012  52.9784997 142.9589988   7.5595792  52.1228842 142.8016117
   3.9930012  49.3244997 143.1629988   3.3070012  49.6764997 143.7299988
   4.5150012  50.0874997 142.9159988   3.9696852  49.4758578 143.2072118
  10.2770012  53.7694997 143.4019988   9.4610012  54.2664997 143.4539988
  10.8070012  54.2444997 142.7619988  10.2369161  53.9017722 143.3225956
   7.6160012  54.8134997 143.3829988   7.7760012  55.6124997 142.8829988
   7.4180012  55.1194997 144.2679988   7.6111637  54.9644020 143.4341144
   6.3500012  41.5104997 142.9989988   6.2670012  42.3994997 143.3459988
   7.2400012  41.2454997 143.2309988   6.4589469  41.5961430 143.0777626
   4.6090012  51.9384997 142.0599988   5.2010012  52.6374997 142.3359988
   5.0680012  51.5054997 141.3399988   4.7521142  51.9757049 142.0004830
   2.9250012  44.6024997 141.1759988   2.8800012  45.5414997 141.3539988
   2.0370012  44.3664997 140.9059988   2.7988574  44.6991892 141.1638912
  10.6410012  54.3644997 140.3349988   9.9970012  53.7334997 140.6559988
  11.4030012  53.8334997 140.1029988  10.6558077  54.2062920 140.3476011
  15.2450012  54.1814997 140.5679988  15.5280012  53.3874997 141.0209988
  15.9850012  54.4144997 140.0079988  15.3838006  54.1043376 140.5542715
   6.2000012  50.0914997 140.4259988   6.2640012  49.2974997 140.9569988
   6.8530012  49.9724997 139.7359988   6.2970241  49.9667148 140.4054317
  11.5520012  51.1384997 140.1619988  11.2830012  51.3184997 141.0629988
  11.3460012  50.2124997 140.0299988  11.4873427  51.0380261 140.2675073
   7.3490012  48.0634997 142.7319988   6.8890012  47.5794997 143.4179988
   7.6040012  47.3954997 142.0959988   7.3204902  47.9068731 142.7399334
   8.4200012  46.3064997 140.9939988   8.2400012  46.1524997 140.0669988
   9.3700012  46.4144997 141.0389988   8.5237776  46.3000175 140.8731843
  17.8100012  48.6614997 140.4399988  17.5360012  48.2364997 139.6269988
  17.8490012  49.5924997 140.2229988  17.7777699  48.7292484 140.2993610
   8.3170012  56.9974997 141.9949988   9.2500012  57.1554997 142.1389988
   8.0530012  57.6724997 141.3709988   8.4089888  57.1104510 141.9302842
   1.8860012  51.6334997 141.4779988   2.8000012  51.7124997 141.7519988
   1.8930012  50.9464997 140.8119988   2.0121131  51.5513961 141.4254393
  18.9310012  47.4844997 142.6299988  18.4090012  47.8414997 141.9109988
  18.8980012  48.1594997 143.3079988  18.8551634  47.6245413 142.6233145
  17.2800012  44.7244997 141.1799988  17.3760012  45.3914997 140.4999988
  17.1400012  43.9084997 140.6989988  17.2742272  44.7055655 141.0218347
  16.5270012  42.1324997 140.2979988  17.1380012  41.7614997 140.9349988
  15.6910012  41.7114997 140.4939988  16.4975032  42.0247554 140.4117035
  18.6400012  41.0174997 141.8399988  19.0520012  40.2964997 141.3649988
  19.3220012  41.6874997 141.8989988  18.7885885  41.0092368 141.7828915
   2.1970012  39.0654997 142.9459988   2.6360012  39.6764997 142.3539988
   1.5640012  39.6034997 143.4199988   2.1714514  39.2219257 142.9290930
   2.0980012  55.0134997 143.8429988   1.4130012  54.9754997 143.1759988
   2.1020012  55.9264997 144.1319988   2.0046998  55.1316733 143.7906771
   4.0580012  40.9814997 141.3879988   4.5500012  40.3514997 140.8609988
   4.6820012  41.2774997 142.0509988   4.2095688  40.9353804 141.4055482
   9.0840012  41.2744997 143.8449988   9.2620012  40.6284997 144.5279988
   9.0310012  42.1084997 144.3119988   9.1011999  41.2988009 144.0015917
  10.9630012  56.2234997 142.2409988  11.8290012  56.5894997 142.0629988
  10.7160012  55.7834997 141.4269988  11.0482392  56.2141756 142.1066289
   3.9160012  55.9334997 140.8689988   3.6490012  56.2204997 141.7419988
   4.6880012  55.3874997 141.0209988   3.9837488  55.8990294 141.0091050
  30.0700012  46.1254997 141.5919988  30.7710012  46.1474997 142.2429988
  30.3730012  45.4974997 140.9349988  30.2068133  46.0437070 141.5923369
  32.2930012  47.0394997 143.1899988  32.8730012  47.1894997 143.9369988
  32.7070012  47.5104997 142.4659988  32.4282997  47.1236578 143.1944058
  35.9920012  38.7894997 143.0029988  35.0920012  38.9284997 143.2979988
  36.2440012  39.6204997 142.6009988  35.9028702  38.9209074 142.9890205
  37.1810012  53.1554997 141.3789988  37.2550012  54.0944997 141.5499988
  38.0870012  52.8504997 141.3229988  37.3135100  53.2426722 141.3948119
  32.5940012  55.8864997 142.0419988  32.9690012  55.1424997 141.5709988
  32.5980012  55.6164997 142.9609988  32.6459125  55.7480986 142.1016483
  33.7710012  48.0724997 140.8199988  33.8130012  47.8494997 139.8899988
  34.6200012  48.4714997 141.0089988  33.8915280  48.0959438 140.7183554
  29.3430012  41.9484997 141.4899988  29.0900012  41.9674997 142.4129988
  29.0870012  41.0764997 141.1879988  29.2737481  41.8332558 141.5756175
  26.2260012  42.3934997 140.5909988  25.7950012  41.9484997 141.3209988
  25.5080012  42.7654997 140.0789988  26.0699438  42.3828940 140.6216799
  20.7420012  42.8814997 143.0669988  21.2160012  43.4724997 142.4819988
  20.0250012  43.4124997 143.4139988  20.7099341  43.0340867 143.0338836
  24.8440012  45.1714997 141.9729988  24.3010012  44.7914997 141.2819988
  25.6770012  45.3654997 141.5449988  24.8823631  45.1457125 141.8204501
  28.1790012  49.7364997 143.9089988  27.4340012  49.2294997 143.5869988
  28.0450012  49.7854997 144.8559988  28.0588776  49.6736940 143.9928647
  32.0770012  42.5504997 142.1079988  31.1380012  42.6624997 141.9569988
  32.3740012  43.4074997 142.4149988  31.9887583  42.6815981 142.1288337
  32.7950012  44.4174997 143.7689988  33.6870012  44.2804997 144.0879988
  32.8520012  45.2084997 143.2319988  32.9246504  44.5056052 143.7400818
  30.3050012  51.1954997 142.9349988  30.0090012  52.0214997 143.3159988
  29.6020012  50.5754997 143.1309988  30.1694914  51.2248199 143.0136443
  37.6800012  44.6274997 143.4639988  37.1260012  44.2314997 142.7919988
  37.7800012  45.5374997 143.1859988  37.6177059  44.6963586 143.3344401
  35.9750012  53.4134997 143.9289988  35.6020012  52.5874997 144.2379988
  36.2530012  53.2304997 143.0309988  35.9615222  53.2757430 143.8499473
  21.4340012  47.4114997 141.6699988  22.0500012  48.0384997 142.0499988
  20.5720012  47.7274997 141.9419988  21.4017698  47.5399430 141.7587183
  33.3680012  51.3894997 141.7489988  33.7210012  51.0094997 142.5529988
  32.4190012  51.2964997 141.8359988  33.2880918  51.3248956 141.8708532
  37.8710012  55.8694997 141.9499988  38.6150012  56.4554997 141.8099988
  37.1770012  56.4374997 142.2829988  37.8789899  56.0265798 141.9758778
  34.2340012  50.0624997 143.9759988  33.9560012  49.3344997 144.5319988
  35.1610012  50.1814997 144.1809988  34.3213124  49.9788802 144.0798845
  27.4590012  52.5014997 140.1959988  27.6980012  51.7534997 139.6489988
  27.1900012  52.1134997 141.0289988  27.4553675  52.3466638 140.2336865
  26.3960012  52.0714997 142.6519988  26.5420012  51.5514997 143.4419988
  26.3930012  52.9784997 142.9589988  26.4155792  52.1228842 142.8016117
  22.8490012  49.3244997 143.1629988  22.1630012  49.6764997 143.7299988
  23.3710012  50.0874997 142.9159988  22.8256852  49.4758578 143.2072118
  29.1330012  53.7694997 143.4019988  28.3170012  54.2664997 143.4539988
  29.6630012  54.2444997 142.7619988  29.0929161  53.9017722 143.3225956
  26.4720012  54.8134997 143.3829988  26.6320012  55.6124997 142.8829988
  26.2740012  55.1194997 144.2679988  26.4671637  54.9644020 143.4341144
  25.2060012  41.5104997 142.9989988  25.1230012  42.3994997 143.3459988
  26.0960012  41.2454997 143.2309988  25.3149469  41.5961430 143.0777626
  23.4650012  51.9384997 142.0599988  24.0570012  52.6374997 142.3359988
  23.9240012  51.5054997 141.3399988  23.6081142  51.9757049 142.0004830
  21.7810012  44.6024997 141.1759988  21.7360012  45.5414997 141.3539988
  20.8930012  44.3664997 140.9059988  21.6548574  44.6991892 141.1638912
  29.4970012  54.3644997 140.3349988  28.8530012  53.7334997 140.6559988
  30.2590012  53.8334997 140.1029988  29.5118077  54.2062920 140.3476011
  34.1010012  54.1814997 140.5679988  34.3840012  53.3874997 141.0209988
  34.8410012  54.4144997 140.0079988  34.2398006  54.1043376 140.5542715
  25.0560012  50.0914997 140.4259988  25.1200012  49.2974997 140.9569988
  25.7090012  49.9724997 139.7359988  25.1530241  49.9667148 140.4054317
  30.4080012  51.1384997 140.1619988  30.1390012  51.3184997 141.0629988
  30.2020012  50.2124997 140.0299988  30.3433427  51.0380261 140.2675073
  26.2050012  48.0634997 142.7319988  25.7450012  47.5794997 143.4179988
  26.4600012  47.3954997 142.0959988  26.1764902  47.9068731 142.7399334
  27.2760012  46.3064997 140.9939988  27.0960012  46.1524997 140.0669988
  28.2260012  46.4144997 141.0389988  27.3797776  46.3000175 140.8731843
  36.6660012  48.6614997 140.4399988  36.3920012  48.2364997 139.6269988
  36.7050012  49.5924997 140.2229988  36.6337699  48.7292484 140.2993610
  27.1730012  56.9974997 141.9949988  28.1060012  57.1554997 142.1389988
  26.9090012  57.6724997 141.3709988  27.2649888  57.1104510 141.9302842
  20.7420012  51.6334997 141.4779988  21.6560012  51.7124997 141.7519988
  20.7490012  50.9464997 140.8119988  20.8681131  51.5513961 141.4254393
  37.7870012  47.4844997 142.6299988  37.2650012  47.8414997 141.9109988
  37.7540012  48.1594997 143.3079988  37.7111634  47.6245413 142.6233145
  36.1360012  44.7244997 141.1799988  36.2320012  45.3914997 140.4999988
  35.9960012  43.9084997 140.6989988  36.1302272  44.7055655 141.0218347
  35.3830012  42.1324997 140.2979988  35.9940012  41.7614997 140.9349988
  34.5470012  41.7114997 140.4939988  35.3535032  42.0247554 140.4117035
  37.4960012  41.0174997 141.8399988  37.9080012  40.2964997 141.3649988
  38.1780012  41.6874997 141.8989988  37.6445885  41.0092368 141.7828915
  21.0530012  39.0654997 142.9459988  21.4920012  39.6764997 142.3539988
  20.4200012  39.6034997 143.4199988  21.0274514  39.2219257 142.9290930
  20.9540012  55.0134997 143.8429988  20.2690012  54.9754997 143.1759988
  20.9580012  55.9264997 144.1319988  20.8606998  55.1316733 143.7906771
  22.9140012  40.9814997 141.3879988  23.4060012  40.3514997 140.8609988
  23.5380012  41.2774997 142.0509988  23.0655688  40.9353804 141.4055482
  27.9400012  41.2744997 143.8449988  28.1180012  40.6284997 144.5279988
  27.8870012  42.1084997 144.3119988  27.9571999  41.2988009 144.0015917
  29.8190012  56.2234997 142.2409988  30.6850012  56.5894997 142.0629988
  29.5720012  55.7834997 141.4269988  29.9042392  56.2141756 142.1066289
  22.7720012  55.9334997 140.8689988  22.5050012  56.2204997 141.7419988
  23.5440012  55.3874997 141.0209988  22.8397488  55.8990294 141.0091050
  48.9260012  46.1254997 141.5919988  49.6270012  46.1474997 142.2429988
  49.2290012  45.4974997 140.9349988  49.0628133  46.0437070 141.5923369
  51.1490012  47.0394997 143.1899988  51.7290012  47.1894997 143.9369988
  51.5630012  47.5104997 142.4659988  51.2842997  47.1236578 143.1944058
  54.8480012  38.7894997 143.0029988  53.9480012  38.9284997 143.2979988
  55.1000012  39.6204997 142.6009988  54.7588702  38.9209074 142.9890205
  56.0370012  53.1554997 141.3789988  56.1110012  54.0944997 141.5499988
  56.9430012  52.8504997 141.3229988  56.1695100  53.2426722 141.3948119
  51.4500012  55.8864997 142.0419988  51.8250012  55.1424997 141.5709988
  51.4540012  55.6164997 142.9609988  51.5019125  55.7480986 142.1016483
  52.6270012  48.0724997 140.8199988  52.6690012  47.8494997 139.8899988
  53.4760012  48.4714997 141.0089988  52.7475280  48.0959438 140.7183554
  48.1990012  41.9484997 141.4899988  47.9460012  41.9674997 142.4129988
  47.9430012  41.0764997 141.1879988  48.1297481  41.8332558 141.5756175
  45.0820012  42.3934997 140.5909988  44.6510012  41.9484997 141.3209988
  44.3640012  42.7654997 140.0789988  44.9259438  42.3828940 140.6216799
  39.5980012  42.8814997 143.0669988  40.0720012  43.4724997 142.4819988
  38.8810012  43.4124997 143.4139988  39.5659341  43.0340867 143.0338836
  43.7000012  45.1714997 141.9729988  43.1570012  44.7914997 141.2819988
  44.5330012  45.3654997 141.5449988  43.7383631  45.1457125 141.8204501
  47.0350012  49.7364997 143.9089988  46.2900012  49.2294997 143.5869988
  46.9010012  49.7854997 144.8559988  46.9148776  49.6736940 143.9928647
  50.9330012  42.5504997 142.1079988  49.9940012  42.6624997 141.9569988
  51.2300012  43.4074997 142.4149988  50.8447583  42.6815981 142.1288337
  51.6510012  44.4174997 143.7689988  52.5430012  44.2804997 144.0879988
  51.7080012  45.2084997 143.2319988  51.7806504  44.5056052 143.7400818
  49.1610012  51.1954997 142.9349988  48.8650012  52.0214997 143.3159988
  48.4580012  50.5754997 143.1309988  49.0254914  51.2248199 143.0136443
  56.5360012  44.6274997 143.4639988  55.9820012  44.2314997 142.7919988
  56.6360012  45.5374997 143.1859988  56.4737059  44.6963586 143.3344401
  54.8310012  53.4134997 143.9289988  54.4580012  52.5874997 144.2379988
  55.1090012  53.2304997 143.0309988  54.8175222  53.2757430 143.8499473
  40.2900012  47.4114997 141.6699988  40.9060012  48.0384997 142.0499988
  39.4280012  47.7274997 141.9419988  40.2577698  47.5399430 141.7587183
  52.2240012  51.3894997 141.7489988  52.5770012  51.0094997 142.5529988
  51.2750012  51.2964997 141.8359988  52.1440918  51.3248956 141.8708532
  56.7270012  55.8694997 141.9499988  57.4710012  56.4554997 141.8099988
  56.0330012  56.4374997 142.2829988  56.7349899  56.0265798 141.9758778
  53.0900012  50.0624997 143.9759988  52.8120012  49.3344997 144.5319988
  54.0170012  50.1814997 144.1809988  53.1773124  49.9788802 144.0798845
  46.3150012  52.5014997 140.1959988  46.5540012  51.7534997 139.6489988
  46.0460012  52.1134997 141.0289988  46.3113675  52.3466638 140.2336865
  45.2520012  52.0714997 142.6519988  45.3980012  51.5514997 143.4419988
  45.2490012  52.9784997 142.9589988  45.2715792  52.1228842 142.8016117
  41.7050012  49.3244997 143.1629988  41.0190012  49.6764997 143.7299988
  42.2270012  50.0874997 142.9159988  41.6816852  49.4758578 143.2072118
  47.9890012  53.7694997 143.4019988  47.1730012  54.2664997 143.4539988
  48.5190012  54.2444997 142.7619988  47.9489161  53.9017722 143.3225956
  45.3280012  54.8134997 143.3829988  45.4880012  55.6124997 142.8829988
  45.1300012  55.1194997 144.2679988  45.3231637  54.9644020 143.4341144
  44.0620012  41.5104997 142.9989988  43.9790012  42.3994997 143.3459988
  44.9520012  41.2454997 143.2309988  44.1709469  41.5961430 143.0777626
  42.3210012  51.9384997 142.0599988  42.9130012  52.6374997 142.3359988
  42.7800012  51.5054997 141.3399988  42.4641142  51.9757049 142.0004830
  40.6370012  44.6024997 141.1759988  40.5920012  45.5414997 141.3539988
  39.7490012  44.3664997 140.9059988  40.5108574  44.6991892 141.1638912
  48.3530012  54.3644997 140.3349988  47.7090012  53.7334997 140.6559988
  49.1150012  53.8334997 140.1029988  48.3678077  54.2062920 140.3476011
  52.9570012  54.1814997 140.5679988  53.2400012  53.3874997 141.0209988
  53.6970012  54.4144997 140.0079988  53.0958006  54.1043376 140.5542715
  43.9120012  50.0914997 140.4259988  43.9760012  49.2974997 140.9569988
  44.5650012  49.9724997 139.7359988  44.0090241  49.9667148 140.4054317
  49.2640012  51.1384997 140.1619988  48.9950012  51.3184997 141.0629988
  49.0580012  50.2124997 140.0299988  49.1993427  51.0380261 140.2675073
  45.0610012  48.0634997 142.7319988  44.6010012  47.5794997 143.4179988
  45.3160012  47.3954997 142.0959988  45.0324902  47.9068731 142.7399334
  46.1320012  46.3064997 140.9939988  45.9520012  46.1524997 140.0669988
  47.0820012  46.4144997 141.0389988  46.2357776  46.3000175 140.8731843
  55.5220012  48.6614997 140.4399988  55.2480012  48.2364997 139.6269988
  55.5610012  49.5924997 140.2229988  55.4897699  48.7292484 140.2993610
  46.0290012  56.9974997 141.9949988  46.9620012  57.1554997 142.1389988
  45.7650012  57.6724997 141.3709988  46.1209888  57.1104510 141.9302842
  39.5980012  51.6334997 141.4779988  40.5120012  51.7124997 141.7519988
  39.6050012  50.9464997 140.8119988  39.7241131  51.5513961 141.4254393
  56.6430012  47.4844997 142.6299988  56.1210012  47.8414997 141.9109988
  56.6100012  48.1594997 143.3079988  56.5671634  47.6245413 142.6233145
  54.9920012  44.7244997 141.1799988  55.0880012  45.3914997 140.4999988
  54.8520012  43.9084997 140.6989988  54.9862272  44.7055655 141.0218347
  54.2390012  42.1324997 140.2979988  54.8500012  41.7614997 140.9349988
  53.4030012  41.7114997 140.4939988  54.2095032  42.0247554 140.4117035
  56.3520012  41.0174997 141.8399988  56.7640012  40.2964997 141.3649988
  57.0340012  41.6874997 141.8989988  56.5005885  41.0092368 141.7828915
  39.9090012  39.0654997 142.9459988  40.3480012  39.6764997 142.3539988
  39.2760012  39.6034997 143.4199988  39.8834514  39.2219257 142.9290930
  39.8100012  55.0134997 143.8429988  39.1250012  54.9754997 143.1759988
  39.8140012  55.9264997 144.1319988  39.7166998  55.1316733 143.7906771
  41.7700012  40.9814997 141.3879988  42.2620012  40.3514997 140.8609988
  42.3940012  41.2774997 142.0509988  41.9215688  40.9353804 141.4055482
  46.7960012  41.2744997 143.8449988  46.9740012  40.6284997 144.5279988
  46.7430012  42.1084997 144.3119988  46.8131999  41.2988009 144.0015917
  48.6750012  56.2234997 142.2409988  49.5410012  56.5894997 142.0629988
  48.4280012  55.7834997 141.4269988  48.7602392  56.2141756 142.1066289
  41.6280012  55.9334997 140.8689988  41.3610012  56.2204997 141.7419988
  42.4000012  55.3874997 141.0209988  41.6957488  55.8990294 141.0091050
  67.7820012  46.1254997 141.5919988  68.4830012  46.1474997 142.2429988
  68.0850012  45.4974997 140.9349988  67.9188133  46.0437070 141.5923369
  70.0050012  47.0394997 143.1899988  70.5850012  47.1894997 143.9369988
  70.4190012  47.5104997 142.4659988  70.1402997  47.1236578 143.1944058
  73.7040012  38.7894997 143.0029988  72.8040012  38.9284997 143.2979988
  73.9560012  39.6204997 142.6009988  73.6148702  38.9209074 142.9890205
  74.8930012  53.1554997 141.3789988  74.9670012  54.0944997 141.5499988
  75.7990012  52.8504997 141.3229988  75.0255100  53.2426722 141.3948119
  70.3060012  55.8864997 142.0419988  70.6810012  55.1424997 141.5709988
  70.3100012  55.6164997 142.9609988  70.3579125  55.7480986 142.1016483
  71.4830012  48.0724997 140.8199988  71.5250012  47.8494997 139.8899988
  72.3320012  48.4714997 141.0089988  71.6035280  48.0959438 140.7183554
  67.0550012  41.9484997 141.4899988  66.8020012  41.9674997 142.4129988
  66.7990012  41.0764997 141.1879988  66.9857481  41.8332558 141.5756175
  63.9380012  42.3934997 140.5909988  63.5070012  41.9484997 141.3209988
  63.2200012  42.7654997 140.0789988  63.7819438  42.3828940 140.6216799
  58.4540012  42.8814997 143.0669988  58.9280012  43.4724997 142.4819988
  57.7370012  43.4124997 143.4139988  58.4219341  43.0340867 143.0338836
  62.5560012  45.1714997 141.9729988  62.0130012  44.7914997 141.2819988
  63.3890012  45.3654997 141.5449988  62.5943631  45.1457125 141.8204501
  65.8910012  49.7364997 143.9089988  65.1460012  49.2294997 143.5869988
  65.7570012  49.7854997 144.8559988  65.7708776  49.6736940 143.9928647
  69.7890012  42.5504997 142.1079988  68.8500012  42.6624997 141.9569988
  70.0860012  43.4074997 142.4149988  69.7007583  42.6815981 142.1288337
  70.5070012  44.4174997 143.7689988  71.3990012  44.2804997 144.0879988
  70.5640012  45.2084997 143.2319988  70.6366504  44.5056052 143.7400818
  68.0170012  51.1954997 142.9349988  67.7210012  52.0214997 143.3159988
  67.3140012  50.5754997 143.1309988  67.8814914  51.2248199 143.0136443
  75.3920012  44.6274997 143.4639988  74.8380012  44.2314997 142.7919988
  75.4920012  45.5374997 143.1859988  75.3297059  44.6963586 143.3344401
  73.6870012  53.4134997 143.9289988  73.3140012  52.5874997 144.2379988
  73.9650012  53.2304997 143.0309988  73.6735222  53.2757430 143.8499473
  59.1460012  47.4114997 141.6699988  59.7620012  48.0384997 142.0499988
  58.2840012  47.7274997 141.9419988  59.1137698  47.5399430 141.7587183
  71.0800012  51.3894997 141.7489988  71.4330012  51.0094997 142.5529988
  70.1310012  51.2964997 141.8359988  71.0000918  51.3248956 141.8708532
  75.5830012  55.8694997 141.9499988  76.3270012  56.4554997 141.8099988
  74.8890012  56.4374997 142.2829988  75.5909899  56.0265798 141.9758778
  71.9460012  50.0624997 143.9759988  71.6680012  49.3344997 144.5319988
  72.8730012  50.1814997 144.1809988  72.0333124  49.9788802 144.0798845
  65.1710012  52.5014997 140.1959988  65.4100012  51.7534997 139.6489988
  64.9020012  52.1134997 141.0289988  65.1673675  52.3466638 140.2336865
  64.1080012  52.0714997 142.6519988  64.2540012  51.5514997 143.4419988
  64.1050012  52.9784997 142.9589988  64.1275792  52.1228842 142.8016117
  60.5610012  49.3244997 143.1629988  59.8750012  49.6764997 143.7299988
  61.0830012  50.0874997 142.9159988  60.5376852  49.4758578 143.2072118
  66.8450012  53.7694997 143.4019988  66.0290012  54.2664997 143.4539988
  67.3750012  54.2444997 142.7619988  66.8049161  53.9017722 143.3225956
  64.1840012  54.8134997 143.3829988  64.3440012  55.6124997 142.8829988
  63.9860012  55.1194997 144.2679988  64.1791637  54.9644020 143.4341144
  62.9180012  41.5104997 142.9989988  62.8350012  42.3994997 143.3459988
  63.8080012  41.2454997 143.2309988  63.0269469  41.5961430 143.0777626
  61.1770012  51.9384997 142.0599988  61.7690012  52.6374997 142.3359988
  61.6360012  51.5054997 141.3399988  61.3201142  51.9757049 142.0004830
  59.4930012  44.6024997 141.1759988  59.4480012  45.5414997 141.3539988
  58.6050012  44.3664997 140.9059988  59.3668574  44.6991892 141.1638912
  67.2090012  54.3644997 140.3349988  66.5650012  53.7334997 140.6559988
  67.9710012  53.8334997 140.1029988  67.2238077  54.2062920 140.3476011
  71.8130012  54.1814997 140.5679988  72.0960012  53.3874997 141.0209988
  72.5530012  54.4144997 140.0079988  71.9518006  54.1043376 140.5542715
  62.7680012  50.0914997 140.4259988  62.8320012  49.2974997 140.9569988
  63.4210012  49.9724997 139.7359988  62.8650241  49.9667148 140.4054317
  68.1200012  51.1384997 140.1619988  67.8510012  51.3184997 141.0629988
  67.9140012  50.2124997 140.0299988  68.0553427  51.0380261 140.2675073
  63.9170012  48.0634997 142.7319988  63.4570012  47.5794997 143.4179988
  64.1720012  47.3954997 142.0959988  63.8884902  47.9068731 142.7399334
  64.9880012  46.3064997 140.9939988  64.8080012  46.1524997 140.0669988
  65.9380012  46.4144997 141.0389988  65.0917776  46.3000175 140.8731843
  74.3780012  48.6614997 140.4399988  74.1040012  48.2364997 139.6269988
  74.4170012  49.5924997 140.2229988  74.3457699  48.7292484 140.2993610
  64.8850012  56.9974997 141.9949988  65.8180012  57.1554997 142.1389988
  64.6210012  57.6724997 141.3709988  64.9769888  57.1104510 141.9302842
  58.4540012  51.6334997 141.4779988  59.3680012  51.7124997 141.7519988
  58.4610012  50.9464997 140.8119988  58.5801131  51.5513961 141.4254393
  75.4990012  47.4844997 142.6299988  74.9770012  47.8414997 141.9109988
  75.4660012  48.1594997 143.3079988  75.4231634  47.6245413 142.6233145
  73.8480012  44.7244997 141.1799988  73.9440012  45.3914997 140.4999988
  73.7080012  43.9084997 140.6989988  73.8422272  44.7055655 141.0218347
  73.0950012  42.1324997 140.2979988  73.7060012  41.7614997 140.9349988
  72.2590012  41.7114997 140.4939988  73.0655032  42.0247554 140.4117035
  75.2080012  41.0174997 141.8399988  75.6200012  40.2964997 141.3649988
  75.8900012  41.6874997 141.8989988  75.3565885  41.0092368 141.7828915
  58.7650012  39.0654997 142.9459988  59.2040012  39.6764997 142.3539988
  58.1320012  39.6034997 143.4199988  58.7394514  39.2219257 142.9290930
  58.6660012  55.0134997 143.8429988  57.9810012  54.9754997 143.1759988
  58.6700012  55.9264997 144.1319988  58.5726998  55.1316733 143.7906771
  60.6260012  40.9814997 141.3879988  61.1180012  40.3514997 140.8609988
  61.2500012  41.2774997 142.0509988  60.7775688  40.9353804 141.4055482
  65.6520012  41.2744997 143.8449988  65.8300012  40.6284997 144.5279988
  65.5990012  42.1084997 144.3119988  65.6691999  41.2988009 144.0015917
  67.5310012  56.2234997 142.2409988  68.3970012  56.5894997 142.0629988
  67.2840012  55.7834997 141.4269988  67.6162392  56.2141756 142.1066289
  60.4840012  55.9334997 140.8689988  60.2170012  56.2204997 141.7419988
  61.2560012  55.3874997 141.0209988  60.5517488  55.8990294 141.0091050
  86.6380012  46.1254997 141.5919988  87.3390012  46.1474997 142.2429988
  86.9410012  45.4974997 140.9349988  86.7748133  46.0437070 141.5923369
  88.8610012  47.0394997 143.1899988  89.4410012  47.1894997 143.9369988
  89.2750012  47.5104997 142.4659988  88.9962997  47.1236578 143.1944058
  92.5600012  38.7894997 143.0029988  91.6600012  38.9284997 143.2979988
  92.8120012  39.6204997 142.6009988  92.4708702  38.9209074 142.9890205
  93.7490012  53.1554997 141.3789988  93.8230012  54.0944997 141.5499988
  94.6550012  52.8504997 141.3229988  93.8815100  53.2426722 141.3948119
  89.1620012  55.8864997 142.0419988  89.5370012  55.1424997 141.5709988
  89.1660012  55.6164997 142.9609988  89.2139125  55.7480986 142.1016483
  90.3390012  48.0724997 140.8199988  90.3810012  47.8494997 139.8899988
  91.1880012  48.4714997 141.0089988  90.4595280  48.0959438 140.7183554
  85.9110012  41.9484997 141.4899988  85.6580012  41.9674997 142.4129988
  85.6550012  41.0764997 141.1879988  85.8417481  41.8332558 141.5756175
  82.7940012  42.3934997 140.5909988  82.3630012  41.9484997 141.3209988
  82.0760012  42.7654997 140.0789988  82.6379438  42.3828940 140.6216799
  77.3100012  42.8814997 143.0669988  77.7840012  43.4724997 142.4819988
  76.5930012  43.4124997 143.4139988  77.2779341  43.0340867 143.0338836
  81.4120012  45.1714997 141.9729988  80.8690012  44.7914997 141.2819988
  82.2450012  45.3654997 141.5449988  81.4503631  45.1457125 141.8204501
  84.7470012  49.7364997 143.9089988  84.0020012  49.2294997 143.5869988
  84.6130012  49.7854997 144.8559988  84.6268776  49.6736940 143.9928647
  88.6450012  42.5504997 142.1079988  87.7060012  42.6624997 141.9569988
  88.9420012  43.4074997 142.4149988  88.5567583  42.6815981 142.1288337
  89.3630012  44.4174997 143.7689988  90.2550012  44.2804997 144.0879988
  89.4200012  45.2084997 143.2319988  89.4926504  44.5056052 143.7400818
  86.8730012  51.1954997 142.9349988  86.5770012  52.0214997 143.3159988
  86.1700012  50.5754997 143.1309988  86.7374914  51.2248199 143.0136443
  94.2480012  44.6274997 143.4639988  93.6940012  44.2314997 142.7919988
  94.3480012  45.5374997 143.1859988  94.1857059  44.6963586 143.3344401
  92.5430012  53.4134997 143.9289988  92.1700012  52.5874997 144.2379988
  92.8210012  53.2304997 143.0309988  92.5295222  53.2757430 143.8499473
  78.0020012  47.4114997 141.6699988  78.6180012  48.0384997 142.0499988
  77.1400012  47.7274997 141.9419988  77.9697698  47.5399430 141.7587183
  89.9360012  51.3894997 141.7489988  90.2890012  51.0094997 142.5529988
  88.9870012  51.2964997 141.8359988  89.8560918  51.3248956 141.8708532
  94.4390012  55.8694997 141.9499988  95.1830012  56.4554997 141.8099988
  93.7450012  56.4374997 142.2829988  94.4469899  56.0265798 141.9758778
  90.8020012  50.0624997 143.9759988  90.5240012  49.3344997 144.5319988
  91.7290012  50.1814997 144.1809988  90.8893124  49.9788802 144.0798845
  84.0270012  52.5014997 140.1959988  84.2660012  51.7534997 139.6489988
  83.7580012  52.1134997 141.0289988  84.0233675  52.3466638 140.2336865
  82.9640012  52.0714997 142.6519988  83.1100012  51.5514997 143.4419988
  82.9610012  52.9784997 142.9589988  82.9835792  52.1228842 142.8016117
  79.4170012  49.3244997 143.1629988  78.7310012  49.6764997 143.7299988
  79.9390012  50.0874997 142.9159988  79.3936852  49.4758578 143.2072118
  85.7010012  53.7694997 143.4019988  84.8850012  54.2664997 143.4539988
  86.2310012  54.2444997 142.7619988  85.6609161  53.9017722 143.3225956
  83.0400012  54.8134997 143.3829988  83.2000012  55.6124997 142.8829988
  82.8420012  55.1194997 144.2679988  83.0351637  54.9644020 143.4341144
  81.7740012  41.5104997 142.9989988  81.6910012  42.3994997 143.3459988
  82.6640012  41.2454997 143.2309988  81.8829469  41.5961430 143.0777626
  80.0330012  51.9384997 142.0599988  80.6250012  52.6374997 142.3359988
  80.4920012  51.5054997 141.3399988  80.1761142  51.9757049 142.0004830
  78.3490012  44.6024997 141.1759988  78.3040012  45.5414997 141.3539988
  77.4610012  44.3664997 140.9059988  78.2228574  44.6991892 141.1638912
  86.0650012  54.3644997 140.3349988  85.4210012  53.7334997 140.6559988
  86.8270012  53.8334997 140.1029988  86.0798077  54.2062920 140.3476011
  90.6690012  54.1814997 140.5679988  90.9520012  53.3874997 141.0209988
  91.4090012  54.4144997 140.0079988  90.8078006  54.1043376 140.5542715
  81.6240012  50.0914997 140.4259988  81.6880012  49.2974997 140.9569988
  82.2770012  49.9724997 139.7359988  81.7210241  49.9667148 140.4054317
  86.9760012  51.1384997 140.1619988  86.7070012  51.3184997 141.0629988
  86.7700012  50.2124997 140.0299988  86.9113427  51.0380261 140.2675073
  82.7730012  48.0634997 142.7319988  82.3130012  47.5794997 143.4179988
  83.0280012  47.3954997 142.0959988  82.7444902  47.9068731 142.7399334
  83.8440012  46.3064997 140.9939988  83.6640012  46.1524997 140.0669988
  84.7940012  46.4144997 141.0389988  83.9477776  46.3000175 140.8731843
  93.2340012  48.6614997 140.4399988  92.9600012  48.2364997 139.6269988
  93.2730012  49.5924997 140.2229988  93.2017699  48.7292484 140.2993610
  83.7410012  56.9974997 141.9949988  84.6740012  57.1554997 142.1389988
  83.4770012  57.6724997 141.3709988  83.8329888  57.1104510 141.9302842
  77.3100012  51.6334997 141.4779988  78.2240012  51.7124997 141.7519988
  77.3170012  50.9464997 140.8119988  77.4361131  51.5513961 141.4254393
  94.3550012  47.4844997 142.6299988  93.8330012  47.8414997 141.9109988
  94.3220012  48.1594997 143.3079988  94.2791634  47.6245413 142.6233145
  92.7040012  44.7244997 141.1799988  92.8000012  45.3914997 140.4999988
  92.5640012  43.9084997 140.6989988  92.6982272  44.7055655 141.0218347
  91.9510012  42.1324997 140.2979988  92.5620012  41.7614997 140.9349988
  91.1150012  41.7114997 140.4939988  91.9215032  42.0247554 140.4117035
  94.0640012  41.0174997 141.8399988  94.4760012  40.2964997 141.3649988
  94.7460012  41.6874997 141.8989988  94.2125885  41.0092368 141.7828915
  77.6210012  39.0654997 142.9459988  78.0600012  39.6764997 142.3539988
  76.9880012  39.6034997 143.4199988  77.5954514  39.2219257 142.9290930
  77.5220012  55.0134997 143.8429988  76.8370012  54.9754997 143.1759988
  77.5260012  55.9264997 144.1319988  77.4286998  55.1316733 143.7906771
  79.4820012  40.9814997 141.3879988  79.9740012  40.3514997 140.8609988
  80.1060012  41.2774997 142.0509988  79.6335688  40.9353804 141.4055482
  84.5080012  41.2744997 143.8449988  84.6860012  40.6284997 144.5279988
  84.4550012  42.1084997 144.3119988  84.5251999  41.2988009 144.0015917
  86.3870012  56.2234997 142.2409988  87.2530012  56.5894997 142.0629988
  86.1400012  55.7834997 141.4269988  86.4722392  56.2141756 142.1066289
  79.3400012  55.9334997 140.8689988  79.0730012  56.2204997 141.7419988
  80.1120012  55.3874997 141.0209988  79.4077488  55.8990294 141.0091050
 105.4940012  46.1254997 141.5919988 106.1950012  46.1474997 142.2429988
 105.7970012  45.4974997 140.9349988 105.6308133  46.0437070 141.5923369
 107.7170012  47.0394997 143.1899988 108.2970012  47.1894997 143.9369988
 108.1310012  47.5104997 142.4659988 107.8522997  47.1236578 143.1944058
 111.4160012  38.7894997 143.0029988 110.5160012  38.9284997 143.2979988
 111.6680012  39.6204997 142.6009988 111.3268702  38.9209074 142.9890205
 112.6050012  53.1554997 141.3789988 112.6790012  54.0944997 141.5499988
 113.5110012  52.8504997 141.3229988 112.7375100  53.2426722 141.3948119
 108.0180012  55.8864997 142.0419988 108.3930012  55.1424997 141.5709988
 108.0220012  55.6164997 142.9609988 108.0699125  55.7480986 142.1016483
 109.1950012  48.0724997 140.8199988 109.2370012  47.8494997 139.8899988
 110.0440012  48.4714997 141.0089988 109.3155280  48.0959438 140.7183554
 104.7670012  41.9484997 141.4899988 104.5140012  41.9674997 142.4129988
 104.5110012  41.0764997 141.1879988 104.6977481  41.8332558 141.5756175
 101.6500012  42.3934997 140.5909988 101.2190012  41.9484997 141.3209988
 100.9320012  42.7654997 140.0789988 101.4939438  42.3828940 140.6216799
  96.1660012  42.8814997 143.0669988  96.6400012  43.4724997 142.4819988
  95.4490012  43.4124997 143.4139988  96.1339341  43.0340867 143.0338836
 100.2680012  45.1714997 141.9729988  99.7250012  44.7914997 141.2819988
 101.1010012  45.3654997 141.5449988 100.3063631  45.1457125 141.8204501
 103.6030012  49.7364997 143.9089988 102.8580012  49.2294997 143.5869988
 103.4690012  49.7854997 144.8559988 103.4828776  49.6736940 143.9928647
 107.5010012  42.5504997 142.1079988 106.5620012  42.6624997 141.9569988
 107.7980012  43.4074997 142.4149988 107.4127583  42.6815981 142.1288337
 108.2190012  44.4174997 143.7689988 109.1110012  44.2804997 144.0879988
 108.2760012  45.2084997 143.2319988 108.3486504  44.5056052 143.7400818
 105.7290012  51.1954997 142.9349988 105.4330012  52.0214997 143.3159988
 105.0260012  50.5754997 143.1309988 105.5934914  51.2248199 143.0136443
 113.1040012  44.6274997 143.4639988 112.5500012  44.2314997 142.7919988
 113.2040012  45.5374997 143.1859988 113.0417059  44.6963586 143.3344401
 111.3990012  53.4134997 143.9289988 111.0260012  52.5874997 144.2379988
 111.6770012  53.2304997 143.0309988 111.3855222  53.2757430 143.8499473
  96.8580012  47.4114997 141.6699988  97.4740012  48.0384997 142.0499988
  95.9960012  47.7274997 141.9419988  96.8257698  47.5399430 141.7587183
 108.7920012  51.3894997 141.7489988 109.1450012  51.0094997 142.5529988
 107.8430012  51.2964997 141.8359988 108.7120918  51.3248956 141.8708532
 113.2950012  55.8694997 141.9499988 114.0390012  56.4554997 141.8099988
 112.6010012  56.4374997 142.2829988 113.3029899  56.0265798 141.9758778
 109.6580012  50.0624997 143.9759988 109.3800012  49.3344997 144.5319988
 110.5850012  50.1814997 144.1809988 109.7453124  49.9788802 144.0798845
 102.8830012  52.5014997 140.1959988 103.1220012  51.7534997 139.6489988
 102.6140012  52.1134997 141.0289988 102.8793675  52.3466638 140.2336865
 101.8200012  52.0714997 142.6519988 101.9660012  51.5514997 143.4419988
 101.8170012  52.9784997 142.9589988 101.8395792  52.1228842 142.8016117
  98.2730012  49.3244997 143.1629988  97.5870012  49.6764997 143.7299988
  98.7950012  50.0874997 142.9159988  98.2496852  49.4758578 143.2072118
 104.5570012  53.7694997 143.4019988 103.7410012  54.2664997 143.4539988
 105.0870012  54.2444997 142.7619988 104.5169161  53.9017722 143.3225956
 101.8960012  54.8134997 143.3829988 102.0560012  55.6124997 142.8829988
 101.6980012  55.1194997 144.2679988 101.8911637  54.9644020 143.4341144
 100.6300012  41.5104997 142.9989988 100.5470012  42.3994997 143.3459988
 101.5200012  41.2454997 143.2309988 100.7389469  41.5961430 143.0777626
  98.8890012  51.9384997 142.0599988  99.4810012  52.6374997 142.3359988
  99.3480012  51.5054997 141.3399988  99.0321142  51.9757049 142.0004830
  97.2050012  44.6024997 141.1759988  97.1600012  45.5414997 141.3539988
  96.3170012  44.3664997 140.9059988  97.0788574  44.6991892 141.1638912
 104.9210012  54.3644997 140.3349988 104.2770012  53.7334997 140.6559988
 105.6830012  53.8334997 140.1029988 104.9358077  54.2062920 140.3476011
 109.5250012  54.1814997 140.5679988 109.8080012  53.3874997 141.0209988
 110.2650012  54.4144997 140.0079988 109.6638006  54.1043376 140.5542715
 100.4800012  50.0914997 140.4259988 100.5440012  49.2974997 140.9569988
 101.1330012  49.9724997 139.7359988 100.5770241  49.9667148 140.4054317
 105.8320012  51.1384997 140.1619988 105.5630012  51.3184997 141.0629988
 105.6260012  50.2124997 140.0299988 105.7673427  51.0380261 140.2675073
 101.6290012  48.0634997 142.7319988 101.1690012  47.5794997 143.4179988
 101.8840012  47.3954997 142.0959988 101.6004902  47.9068731 142.7399334
 102.7000012  46.3064997 140.9939988 102.5200012  46.1524997 140.0669988
 103.6500012  46.4144997 141.0389988 102.8037776  46.3000175 140.8731843
 112.0900012  48.6614997 140.4399988 111.8160012  48.2364997 139.6269988
 112.1290012  49.5924997 140.2229988 112.0577699  48.7292484 140.2993610
 102.5970012  56.9974997 141.9949988 103.5300012  57.1554997 142.1389988
 102.3330012  57.6724997 141.3709988 102.6889888  57.1104510 141.9302842
  96.1660012  51.6334997 141.4779988  97.0800012  51.7124997 141.7519988
  96.1730012  50.9464997 140.8119988  96.2921131  51.5513961 141.4254393
 113.2110012  47.4844997 142.6299988 112.6890012  47.8414997 141.9109988
 113.1780012  48.1594997 143.3079988 113.1351634  47.6245413 142.6233145
 111.5600012  44.7244997 141.1799988 111.6560012  45.3914997 140.4999988
 111.4200012  43.9084997 140.6989988 111.5542272  44.7055655 141.0218347
 110.8070012  42.1324997 140.2979988 111.4180012  41.7614997 140.9349988
 109.9710012  41.7114997 140.4939988 110.7775032  42.0247554 140.4117035
 112.9200012  41.0174997 141.8399988 113.3320012  40.2964997 141.3649988
 113.6020012  41.6874997 141.8989988 113.0685885  41.0092368 141.7828915
  96.4770012  39.0654997 142.9459988  96.9160012  39.6764997 142.3539988
  95.8440012  39.6034997 143.4199988  96.4514514  39.2219257 142.9290930
  96.3780012  55.0134997 143.8429988  95.6930012  54.9754997 143.1759988
  96.3820012  55.9264997 144.1319988  96.2846998  55.1316733 143.7906771
  98.3380012  40.9814997 141.3879988  98.8300012  40.3514997 140.8609988
  98.9620012  41.2774997 142.0509988  98.4895688  40.9353804 141.4055482
 103.3640012  41.2744997 143.8449988 103.5420012  40.6284997 144.5279988
 103.3110012  42.1084997 144.3119988 103.3811999  41.2988009 144.0015917
 105.2430012  56.2234997 142.2409988 106.1090012  56.5894997 142.0629988
 104.9960012  55.7834997 141.4269988 105.3282392  56.2141756 142.1066289
  98.1960012  55.9334997 140.8689988  97.9290012  56.2204997 141.7419988
  98.9680012  55.3874997 141.0209988  98.2637488  55.8990294 141.0091050
 124.3500012  46.1254997 141.5919988 125.0510012  46.1474997 142.2429988
 124.6530012  45.4974997 140.9349988 124.4868133  46.0437070 141.5923369
 126.5730012  47.0394997 143.1899988 127.1530012  47.1894997 143.9369988
 126.9870012  47.5104997 142.4659988 126.7082997  47.1236578 143.1944058
 130.2720012  38.7894997 143.0029988 129.3720012  38.9284997 143.2979988
 130.5240012  39.6204997 142.6009988 130.1828702  38.9209074 142.9890205
 131.4610012  53.1554997 141.3789988 131.5350012  54.0944997 141.5499988
 132.3670012  52.8504997 141.3229988 131.5935100  53.2426722 141.3948119
 126.8740012  55.8864997 142.0419988 127.2490012  55.1424997 141.5709988
 126.8780012  55.6164997 142.9609988 126.9259125  55.7480986 142.1016483
 128.0510012  48.0724997 140.8199988 128.0930012  47.8494997 139.8899988
 128.9000012  48.4714997 141.0089988 128.1715280  48.0959438 140.7183554
 123.6230012  41.9484997 141.4899988 123.3700012  41.9674997 142.4129988
 123.3670012  41.0764997 141.1879988 123.5537481  41.8332558 141.5756175
 120.5060012  42.3934997 140.5909988 120.0750012  41.9484997 141.3209988
 119.7880012  42.7654997 140.0789988 120.3499438  42.3828940 140.6216799
 115.0220012  42.8814997 143.0669988 115.4960012  43.4724997 142.4819988
 114.3050012  43.4124997 143.4139988 114.9899341  43.0340867 143.0338836
 119.1240012  45.1714997 141.9729988 118.5810012  44.7914997 141.2819988
 119.9570012  45.3654997 141.5449988 119.1623631  45.1457125 141.8204501
 122.4590012  49.7364997 143.9089988 121.7140012  49.2294997 143.5869988
 122.3250012  49.7854997 144.8559988 122.3388776  49.6736940 143.9928647
 126.3570012  42.5504997 142.1079988 125.4180012  42.6624997 141.9569988
 126.6540012  43.4074997 142.4149988 126.2687583  42.6815981 142.1288337
 127.0750012  44.4174997 143.7689988 127.9670012  44.2804997 144.0879988
 127.1320012  45.2084997 143.2319988 127.2046504  44.5056052 143.7400818
 124.5850012  51.1954997 142.9349988 124.2890012  52.0214997 143.3159988
 123.8820012  50.5754997 143.1309988 124.4494914  51.2248199 143.0136443
 131.9600012  44.6274997 143.4639988 131.4060012  44.2314997 142.7919988
 132.0600012  45.5374997 143.1859988 131.8977059  44.6963586 143.3344401
 130.2550012  53.4134997 143.9289988 129.8820012  52.5874997 144.2379988
 130.5330012  53.2304997 143.0309988 130.2415222  53.2757430 143.8499473
 115.7140012  47.4114997 141.6699988 116.3300012  48.0384997 142.0499988
 114.8520012  47.7274997 141.9419988 115.6817698  47.5399430 141.7587183
 127.6480012  51.3894997 141.7489988 128.0010012  51.0094997 142.5529988
 126.6990012  51.2964997 141.8359988 127.5680918  51.3248956 141.8708532
 132.1510012  55.8694997 141.9499988 132.8950012  56.4554997 141.8099988
 131.4570012  56.4374997 142.2829988 132.1589899  56.0265798 141.9758778
 128.5140012  50.0624997 143.9759988 128.2360012  49.3344997 144.5319988
 129.4410012  50.1814997 144.1809988 128.6013124  49.9788802 144.0798845
 121.7390012  52.5014997 140.1959988 121.9780012  51.7534997 139.6489988
 121.4700012  52.1134997 141.0289988 121.7353675  52.3466638 140.2336865
 120.6760012  52.0714997 142.6519988 120.8220012  51.5514997 143.4419988
 120.6730012  52.9784997 142.9589988 120.6955792  52.1228842 142.8016117
 117.1290012  49.3244997 143.1629988 116.4430012  49.6764997 143.7299988
 117.6510012  50.0874997 142.9159988 117.1056852  49.4758578 143.2072118
 123.4130012  53.7694997 143.4019988 122.5970012  54.2664997 143.4539988
 123.9430012  54.2444997 142.7619988 123.3729161  53.9017722 143.3225956
 120.7520012  54.8134997 143.3829988 120.9120012  55.6124997 142.8829988
 120.5540012  55.1194997 144.2679988 120.7471637  54.9644020 143.4341144
 119.4860012  41.5104997 142.9989988 119.4030012  42.3994997 143.3459988
 120.3760012  41.2454997 143.2309988 119.5949469  41.5961430 143.0777626
 117.7450012  51.9384997 142.0599988 118.3370012  52.6374997 142.3359988
 118.2040012  51.5054997 141.3399988 117.8881142  51.9757049 142.0004830
 116.0610012  44.6024997 141.1759988 116.0160012  45.5414997 141.3539988
 115.1730012  44.3664997 140.9059988 115.9348574  44.6991892 141.1638912
 123.7770012  54.3644997 140.3349988 123.1330012  53.7334997 140.6559988
 124.5390012  53.8334997 140.1029988 123.7918077  54.2062920 140.3476011
 128.3810012  54.1814997 140.5679988 128.6640012  53.3874997 141.0209988
 129.1210012  54.4144997 140.0079988 128.5198006  54.1043376 140.5542715
 119.3360012  50.0914997 140.4259988 119.4000012  49.2974997 140.9569988
 119.9890012  49.9724997 139.7359988 119.4330241  49.9667148 140.4054317
 124.6880012  51.1384997 140.1619988 124.4190012  51.3184997 141.0629988
 124.4820012  50.2124997 140.0299988 124.6233427  51.0380261 140.2675073
 120.4850012  48.0634997 142.7319988 120.0250012  47.5794997 143.4179988
 120.7400012  47.3954997 142.0959988 120.4564902  47.9068731 142.7399334
 121.5560012  46.3064997 140.9939988 121.3760012  46.1524997 140.0669988
 122.5060012  46.4144997 141.0389988 121.6597776  46.3000175 140.8731843
 130.9460012  48.6614997 140.4399988 130.6720012  48.2364997 139.6269988
 130.9850012  49.5924997 140.2229988 130.9137699  48.7292484 140.2993610
 121.4530012  56.9974997 141.9949988 122.3860012  57.1554997 142.1389988
 121.1890012  57.6724997 141.3709988 121.5449888  57.1104510 141.9302842
 115.0220012  51.6334997 141.4779988 115.9360012  51.7124997 141.7519988
 115.0290012  50.9464997 140.8119988 115.1481131  51.5513961 141.4254393
 132.0670012  47.4844997 142.6299988 131.5450012  47.8414997 141.9109988
 132.0340012  48.1594997 143.3079988 131.9911634  47.6245413 142.6233145
 130.4160012  44.7244997 141.1799988 130.5120012  45.3914997 140.4999988
 130.2760012  43.9084997 140.6989988 130.4102272  44.7055655 141.0218347
 129.6630012  42.1324997 140.2979988 130.2740012  41.7614997 140.9349988
 128.8270012  41.7114997 140.4939988 129.6335032  42.0247554 140.4117035
 131.7760012  41.0174997 141.8399988 132.1880012  40.2964997 141.3649988
 132.4580012  41.6874997 141.8989988 131.9245885  41.0092368 141.7828915
 115.3330012  39.0654997 142.9459988 115.7720012  39.6764997 142.3539988
 114.7000012  39.6034997 143.4199988 115.3074514  39.2219257 142.9290930
 115.2340012  55.0134997 143.8429988 114.5490012  54.9754997 143.1759988
 115.2380012  55.9264997 144.1319988 115.1406998  55.1316733 143.7906771
 117.1940012  40.9814997 141.3879988 117.6860012  40.3514997 140.8609988
 117.8180012  41.2774997 142.0509988 117.3455688  40.9353804 141.4055482
 122.2200012  41.2744997 143.8449988 122.3980012  40.6284997 144.5279988
 122.1670012  42.1084997 144.3119988 122.2371999  41.2988009 144.0015917
 124.0990012  56.2234997 142.2409988 124.9650012  56.5894997 142.0629988
 123.8520012  55.7834997 141.4269988 124.1842392  56.2141756 142.1066289
 117.0520012  55.9334997 140.8689988 116.7850012  56.2204997 141.7419988
 117.8240012  55.3874997 141.0209988 117.1197488  55.8990294 141.0091050
 143.2060012  46.1254997 141.5919988 143.9070012  46.1474997 142.2429988
 143.5090012  45.4974997 140.9349988 143.3428133  46.0437070 141.5923369
 142.4790012  41.9484997 141.4899988 142.2260012  41.9674997 142.4129988
 142.2230012  41.0764997 141.1879988 142.4097481  41.8332558 141.5756175
 139.3620012  42.3934997 140.5909988 138.9310012  41.9484997 141.3209988
 138.6440012  42.7654997 140.0789988 139.2059438  42.3828940 140.6216799
 133.8780012  42.8814997 143.0669988 134.3520012  43.4724997 142.4819988
 133.1610012  43.4124997 143.4139988 133.8459341  43.0340867 143.0338836
 137.9800012  45.1714997 141.9729988 137.4370012  44.7914997 141.2819988
 138.8130012  45.3654997 141.5449988 138.0183631  45.1457125 141.8204501
 141.3150012  49.7364997 143.9089988 140.5700012  49.2294997 143.5869988
 141.1810012  49.7854997 144.8559988 141.1948776  49.6736940 143.9928647
 143.4410012  51.1954997 142.9349988 143.1450012  52.0214997 143.3159988
 142.7380012  50.5754997 143.1309988 143.3054914  51.2248199 143.0136443
 134.5700012  47.4114997 141.6699988 135.1860012  48.0384997 142.0499988
 133.7080012  47.7274997 141.9419988 134.5377698  47.5399430 141.7587183
 140.5950012  52.5014997 140.1959988 140.8340012  51.7534997 139.6489988
 140.3260012  52.1134997 141.0289988 140.5913675  52.3466638 140.2336865
 139.5320012  52.0714997 142.6519988 139.6780012  51.5514997 143.4419988
 139.5290012  52.9784997 142.9589988 139.5515792  52.1228842 142.8016117
 135.9850012  49.3244997 143.1629988 135.2990012  49.6764997 143.7299988
 136.5070012  50.0874997 142.9159988 135.9616852  49.4758578 143.2072118
 142.2690012  53.7694997 143.4019988 141.4530012  54.2664997 143.4539988
 142.7990012  54.2444997 142.7619988 142.2289161  53.9017722 143.3225956
 139.6080012  54.8134997 143.3829988 139.7680012  55.6124997 142.8829988
 139.4100012  55.1194997 144.2679988 139.6031637  54.9644020 143.4341144
 138.3420012  41.5104997 142.9989988 138.2590012  42.3994997 143.3459988
 139.2320012  41.2454997 143.2309988 138.4509469  41.5961430 143.0777626
 136.6010012  51.9384997 142.0599988 137.1930012  52.6374997 142.3359988
 137.0600012  51.5054997 141.3399988 136.7441142  51.9757049 142.0004830
 134.9170012  44.6024997 141.1759988 134.8720012  45.5414997 141.3539988
 134.0290012  44.3664997 140.9059988 134.7908574  44.6991892 141.1638912
 142.6330012  54.3644997 140.3349988 141.9890012  53.7334997 140.6559988
 143.3950012  53.8334997 140.1029988 142.6478077  54.2062920 140.3476011
 138.1920012  50.0914997 140.4259988 138.2560012  49.2974997 140.9569988
 138.8450012  49.9724997 139.7359988 138.2890241  49.9667148 140.4054317
 143.5440012  51.1384997 140.1619988 143.2750012  51.3184997 141.0629988
 143.3380012  50.2124997 140.0299988 143.4793427  51.0380261 140.2675073
 139.3410012  48.0634997 142.7319988 138.8810012  47.5794997 143.4179988
 139.5960012  47.3954997 142.0959988 139.3124902  47.9068731 142.7399334
 140.4120012  46.3064997 140.9939988 140.2320012  46.1524997 140.0669988
 141.3620012  46.4144997 141.0389988 140.5157776  46.3000175 140.8731843
 140.3090012  56.9974997 141.9949988 141.2420012  57.1554997 142.1389988
 140.0450012  57.6724997 141.3709988 140.4009888  57.1104510 141.9302842
 133.8780012  51.6334997 141.4779988 134.7920012  51.7124997 141.7519988
 133.8850012  50.9464997 140.8119988 134.0041131  51.5513961 141.4254393
 134.1890012  39.0654997 142.9459988 134.6280012  39.6764997 142.3539988
 133.5560012  39.6034997 143.4199988 134.1634514  39.2219257 142.9290930
 134.0900012  55.0134997 143.8429988 133.4050012  54.9754997 143.1759988
 134.0940012  55.9264997 144.1319988 133.9966998  55.1316733 143.7906771
 136.0500012  40.9814997 141.3879988 136.5420012  40.3514997 140.8609988
 136.6740012  41.2774997 142.0509988 136.2015688  40.9353804 141.4055482
 141.0760012  41.2744997 143.8449988 141.2540012  40.6284997 144.5279988
 141.0230012  42.1084997 144.3119988 141.0931999  41.2988009 144.0015917
 142.9550012  56.2234997 142.2409988 143.8210012  56.5894997 142.0629988
 142.7080012  55.7834997 141.4269988 143.0402392  56.2141756 142.1066289
 135.9080012  55.9334997 140.8689988 135.6410012  56.2204997 141.7419988
 136.6800012  55.3874997 141.0209988 135.9757488  55.8990294 141.0091050
  11.2140012  64.9814997 141.5919988  11.9150012  65.0034997 142.2429988
  11.5170012  64.3534997 140.9349988  11.3508133  64.8997070 141.5923369
  13.4370012  65.8954997 143.1899988  14.0170012  66.0454997 143.9369988
  13.8510012  66.3664997 142.4659988  13.5722997  65.9796578 143.1944058
  17.1360012  57.6454997 143.0029988  16.2360012  57.7844997 143.2979988
  17.3880012  58.4764997 142.6009988  17.0468702  57.7769074 142.9890205
  18.3250012  72.0114997 141.3789988  18.3990012  72.9504997 141.5499988
  19.2310012  71.7064997 141.3229988  18.4575100  72.0986722 141.3948119
  13.7380012  74.7424997 142.0419988  14.1130012  73.9984997 141.5709988
  13.7420012  74.4724997 142.9609988  13.7899125  74.6040986 142.1016483
  14.9150012  66.9284997 140.8199988  14.9570012  66.7054997 139.8899988
  15.7640012  67.3274997 141.0089988  15.0355280  66.9519438 140.7183554
  10.4870012  60.8044997 141.4899988  10.2340012  60.8234997 142.4129988
  10.2310012  59.9324997 141.1879988  10.4177481  60.6892558 141.5756175
   7.3700012  61.2494997 140.5909988   6.9390012  60.8044997 141.3209988
   6.6520012  61.6214997 140.0789988   7.2139438  61.2388940 140.6216799
   1.8860012  61.7374997 143.0669988   2.3600012  62.3284997 142.4819988
   1.1690012  62.2684997 143.4139988   1.8539341  61.8900867 143.0338836
   5.9880012  64.0274997 141.9729988   5.4450012  63.6474997 141.2819988
   6.8210012  64.2214997 141.5449988   6.0263631  64.0017125 141.8204501
   9.3230012  68.5924997 143.9089988   8.5780012  68.0854997 143.5869988
   9.1890012  68.6414997 144.8559988   9.2028776  68.5296940 143.9928647
  13.2210012  61.4064997 142.1079988  12.2820012  61.5184997 141.9569988
  13.5180012  62.2634997 142.4149988  13.1327583  61.5375981 142.1288337
  13.9390012  63.2734997 143.7689988  14.8310012  63.1364997 144.0879988
  13.9960012  64.0644997 143.2319988  14.0686504  63.3616052 143.7400818
  11.4490012  70.0514997 142.9349988  11.1530012  70.8774997 143.3159988
  10.7460012  69.4314997 143.1309988  11.3134914  70.0808199 143.0136443
  18.8240012  63.4834997 143.4639988  18.2700012  63.0874997 142.7919988
  18.9240012  64.3934997 143.1859988  18.7617059  63.5523586 143.3344401
  17.1190012  72.2694997 143.9289988  16.7460012  71.4434997 144.2379988
  17.3970012  72.0864997 143.0309988  17.1055222  72.1317430 143.8499473
   2.5780012  66.2674997 141.6699988   3.1940012  66.8944997 142.0499988
   1.7160012  66.5834997 141.9419988   2.5457698  66.3959430 141.7587183
  14.5120012  70.2454997 141.7489988  14.8650012  69.8654997 142.5529988
  13.5630012  70.1524997 141.8359988  14.4320918  70.1808956 141.8708532
  19.0150012  74.7254997 141.9499988  19.7590012  75.3114997 141.8099988
  18.3210012  75.2934997 142.2829988  19.0229899  74.8825798 141.9758778
  15.3780012  68.9184997 143.9759988  15.1000012  68.1904997 144.5319988
  16.3050012  69.0374997 144.1809988  15.4653124  68.8348802 144.0798845
   8.6030012  71.3574997 140.1959988   8.8420012  70.6094997 139.6489988
   8.3340012  70.9694997 141.0289988   8.5993675  71.2026638 140.2336865
   7.5400012  70.9274997 142.6519988   7.6860012  70.4074997 143.4419988
   7.5370012  71.8344997 142.9589988   7.5595792  70.9788842 142.8016117
   3.9930012  68.1804997 143.1629988   3.3070012  68.5324997 143.7299988
   4.5150012  68.9434997 142.9159988   3.9696852  68.3318578 143.2072118
  10.2770012  72.6254997 143.4019988   9.4610012  73.1224997 143.4539988
  10.8070012  73.1004997 142.7619988  10.2369161  72.7577722 143.3225956
   7.6160012  73.6694997 143.3829988   7.7760012  74.4684997 142.8829988
   7.4180012  73.9754997 144.2679988   7.6111637  73.8204020 143.4341144
   6.3500012  60.3664997 142.9989988   6.2670012  61.2554997 143.3459988
   7.2400012  60.1014997 143.2309988   6.4589469  60.4521430 143.0777626
   4.6090012  70.7944997 142.0599988   5.2010012  71.4934997 142.3359988
   5.0680012  70.3614997 141.3399988   4.7521142  70.8317049 142.0004830
   2.9250012  63.4584997 141.1759988   2.8800012  64.3974997 141.3539988
   2.0370012  63.2224997 140.9059988   2.7988574  63.5551892 141.1638912
  10.6410012  73.2204997 140.3349988   9.9970012  72.5894997 140.6559988
  11.4030012  72.6894997 140.1029988  10.6558077  73.0622920 140.3476011
  15.2450012  73.0374997 140.5679988  15.5280012  72.2434997 141.0209988
  15.9850012  73.2704997 140.0079988  15.3838006  72.9603376 140.5542715
   6.2000012  68.9474997 140.4259988   6.2640012  68.1534997 140.9569988
   6.8530012  68.8284997 139.7359988   6.2970241  68.8227148 140.4054317
  11.5520012  69.9944997 140.1619988  11.2830012  70.1744997 141.0629988
  11.3460012  69.0684997 140.0299988  11.4873427  69.8940261 140.2675073
   7.3490012  66.9194997 142.7319988   6.8890012  66.4354997 143.4179988
   7.6040012  66.2514997 142.0959988   7.3204902  66.7628731 142.7399334
   8.4200012  65.1624997 140.9939988   8.2400012  65.0084997 140.0669988
   9.3700012  65.2704997 141.0389988   8.5237776  65.1560175 140.8731843
  17.8100012  67.5174997 140.4399988  17.5360012  67.0924997 139.6269988
  17.8490012  68.4484997 140.2229988  17.7777699  67.5852484 140.2993610
   8.3170012  75.8534997 141.9949988   9.2500012  76.0114997 142.1389988
   8.0530012  76.5284997 141.3709988   8.4089888  75.9664510 141.9302842
   1.8860012  70.4894997 141.4779988   2.8000012  70.5684997 141.7519988
   1.8930012  69.8024997 140.8119988   2.0121131  70.4073961 141.4254393
  18.9310012  66.3404997 142.6299988  18.4090012  66.6974997 141.9109988
  18.8980012  67.0154997 143.3079988  18.8551634  66.4805413 142.6233145
  17.2800012  63.5804997 141.1799988  17.3760012  64.2474997 140.4999988
  17.1400012  62.7644997 140.6989988  17.2742272  63.5615655 141.0218347
  16.5270012  60.9884997 140.2979988  17.1380012  60.6174997 140.9349988
  15.6910012  60.5674997 140.4939988  16.4975032  60.8807554 140.4117035
  18.6400012  59.8734997 141.8399988  19.0520012  59.1524997 141.3649988
  19.3220012  60.5434997 141.8989988  18.7885885  59.8652368 141.7828915
   2.1970012  57.9214997 142.9459988   2.6360012  58.5324997 142.3539988
   1.5640012  58.4594997 143.4199988   2.1714514  58.0779257 142.9290930
   2.0980012  73.8694997 143.8429988   1.4130012  73.8314997 143.1759988
   2.1020012  74.7824997 144.1319988   2.0046998  73.9876733 143.7906771
   4.0580012  59.8374997 141.3879988   4.5500012  59.2074997 140.8609988
   4.6820012  60.1334997 142.0509988   4.2095688  59.7913804 141.4055482
   9.0840012  60.1304997 143.8449988   9.2620012  59.4844997 144.5279988
   9.0310012  60.9644997 144.3119988   9.1011999  60.1548009 144.0015917
  10.9630012  75.0794997 142.2409988  11.8290012  75.4454997 142.0629988
  10.7160012  74.6394997 141.4269988  11.0482392  75.0701756 142.1066289
   3.9160012  74.7894997 140.8689988   3.6490012  75.0764997 141.7419988
   4.6880012  74.2434997 141.0209988   3.9837488  74.7550294 141.0091050
  30.0700012  64.9814997 141.5919988  30.7710012  65.0034997 142.2429988
  30.3730012  64.3534997 140.9349988  30.2068133  64.8997070 141.5923369
  32.2930012  65.8954997 143.1899988  32.8730012  66.0454997 143.9369988
  32.7070012  66.3664997 142.4659988  32.4282997  65.9796578 143.1944058
  35.9920012  57.6454997 143.0029988  35.0920012  57.7844997 143.2979988
  36.2440012  58.4764997 142.6009988  35.9028702  57.7769074 142.9890205
  37.1810012  72.0114997 141.3789988  37.2550012  72.9504997 141.5499988
  38.0870012  71.7064997 141.3229988  37.3135100  72.0986722 141.3948119
  32.5940012  74.7424997 142.0419988  32.9690012  73.9984997 141.5709988
  32.5980012  74.4724997 142.9609988  32.6459125  74.6040986 142.1016483
  33.7710012  66.9284997 140.8199988  33.8130012  66.7054997 139.8899988
  34.6200012  67.3274997 141.0089988  33.8915280  66.9519438 140.7183554
  29.3430012  60.8044997 141.4899988  29.0900012  60.8234997 142.4129988
  29.0870012  59.9324997 141.1879988  29.2737481  60.6892558 141.5756175
  26.2260012  61.2494997 140.5909988  25.7950012  60.8044997 141.3209988
  25.5080012  61.6214997 140.0789988  26.0699438  61.2388940 140.6216799
  20.7420012  61.7374997 143.0669988  21.2160012  62.3284997 142.4819988
  20.0250012  62.2684997 143.4139988  20.7099341  61.8900867 143.0338836
  24.8440012  64.0274997 141.9729988  24.3010012  63.6474997 141.2819988
  25.6770012  64.2214997 141.5449988  24.8823631  64.0017125 141.8204501
  28.1790012  68.5924997 143.9089988  27.4340012  68.0854997 143.5869988
  28.0450012  68.6414997 144.8559988  28.0588776  68.5296940 143.9928647
  32.0770012  61.4064997 142.1079988  31.1380012  61.5184997 141.9569988
  32.3740012  62.2634997 142.4149988  31.9887583  61.5375981 142.1288337
  32.7950012  63.2734997 143.7689988  33.6870012  63.1364997 144.0879988
  32.8520012  64.0644997 143.2319988  32.9246504  63.3616052 143.7400818
  30.3050012  70.0514997 142.9349988  30.0090012  70.8774997 143.3159988
  29.6020012  69.4314997 143.1309988  30.1694914  70.0808199 143.0136443
  37.6800012  63.4834997 143.4639988  37.1260012  63.0874997 142.7919988
  37.7800012  64.3934997 143.1859988  37.6177059  63.5523586 143.3344401
  35.9750012  72.2694997 143.9289988  35.6020012  71.4434997 144.2379988
  36.2530012  72.0864997 143.0309988  35.9615222  72.1317430 143.8499473
  21.4340012  66.2674997 141.6699988  22.0500012  66.8944997 142.0499988
  20.5720012  66.5834997 141.9419988  21.4017698  66.3959430 141.7587183
  33.3680012  70.2454997 141.7489988  33.7210012  69.8654997 142.5529988
  32.4190012  70.1524997 141.8359988  33.2880918  70.1808956 141.8708532
  37.8710012  74.7254997 141.9499988  38.6150012  75.3114997 141.8099988
  37.1770012  75.2934997 142.2829988  37.8789899  74.8825798 141.9758778
  34.2340012  68.9184997 143.9759988  33.9560012  68.1904997 144.5319988
  35.1610012  69.0374997 144.1809988  34.3213124  68.8348802 144.0798845
  27.4590012  71.3574997 140.1959988  27.6980012  70.6094997 139.6489988
  27.1900012  70.9694997 141.0289988  27.4553675  71.2026638 140.2336865
  26.3960012  70.9274997 142.6519988  26.5420012  70.4074997 143.4419988
  26.3930012  71.8344997 142.9589988  26.4155792  70.9788842 142.8016117
  22.8490012  68.1804997 143.1629988  22.1630012  68.5324997 143.7299988
  23.3710012  68.9434997 142.9159988  22.8256852  68.3318578 143.2072118
  29.1330012  72.6254997 143.4019988  28.3170012  73.1224997 143.4539988
  29.6630012  73.1004997 142.7619988  29.0929161  72.7577722 143.3225956
  26.4720012  73.6694997 143.3829988  26.6320012  74.4684997 142.8829988
  26.2740012  73.9754997 144.2679988  26.4671637  73.8204020 143.4341144
  25.2060012  60.3664997 142.9989988  25.1230012  61.2554997 143.3459988
  26.0960012  60.1014997 143.2309988  25.3149469  60.4521430 143.0777626
  23.4650012  70.7944997 142.0599988  24.0570012  71.4934997 142.3359988
  23.9240012  70.3614997 141.3399988  23.6081142  70.8317049 142.0004830
  21.7810012  63.4584997 141.1759988  21.7360012  64.3974997 141.3539988
  20.8930012  63.2224997 140.9059988  21.6548574  63.5551892 141.1638912
  29.4970012  73.2204997 140.3349988  28.8530012  72.5894997 140.6559988
  30.2590012  72.6894997 140.1029988  29.5118077  73.0622920 140.3476011
  34.1010012  73.0374997 140.5679988  34.3840012  72.2434997 141.0209988
  34.8410012  73.2704997 140.0079988  34.2398006  72.9603376 140.5542715
  25.0560012  68.9474997 140.4259988  25.1200012  68.1534997 140.9569988
  25.7090012  68.8284997 139.7359988  25.1530241  68.8227148 140.4054317
  30.4080012  69.9944997 140.1619988  30.1390012  70.1744997 141.0629988
  30.2020012  69.0684997 140.0299988  30.3433427  69.8940261 140.2675073
  26.2050012  66.9194997 142.7319988  25.7450012  66.4354997 143.4179988
  26.4600012  66.2514997 142.0959988  26.1764902  66.7628731 142.7399334
  27.2760012  65.1624997 140.9939988  27.0960012  65.0084997 140.0669988
  28.2260012  65.2704997 141.0389988  27.3797776  65.1560175 140.8731843
  36.6660012  67.5174997 140.4399988  36.3920012  67.0924997 139.6269988
  36.7050012  68.4484997 140.2229988  36.6337699  67.5852484 140.2993610
  27.1730012  75.8534997 141.9949988  28.1060012  76.0114997 142.1389988
  26.9090012  76.5284997 141.3709988  27.2649888  75.9664510 141.9302842
  20.7420012  70.4894997 141.4779988  21.6560012  70.5684997 141.7519988
  20.7490012  69.8024997 140.8119988  20.8681131  70.4073961 141.4254393
  37.7870012  66.3404997 142.6299988  37.2650012  66.6974997 141.9109988
  37.7540012  67.0154997 143.3079988  37.7111634  66.4805413 142.6233145
  36.1360012  63.5804997 141.1799988  36.2320012  64.2474997 140.4999988
  35.9960012  62.7644997 140.6989988  36.1302272  63.5615655 141.0218347
  35.3830012  60.9884997 140.2979988  35.9940012  60.6174997 140.9349988
  34.5470012  60.5674997 140.4939988  35.3535032  60.8807554 140.4117035
  37.4960012  59.8734997 141.8399988  37.9080012  59.1524997 141.3649988
  38.1780012  60.5434997 141.8989988  37.6445885  59.8652368 141.7828915
  21.0530012  57.9214997 142.9459988  21.4920012  58.5324997 142.3539988
  20.4200012  58.4594997 143.4199988  21.0274514  58.0779257 142.9290930
  20.9540012  73.8694997 143.8429988  20.2690012  73.8314997 143.1759988
  20.9580012  74.7824997 144.1319988  20.8606998  73.9876733 143.7906771
  22.9140012  59.8374997 141.3879988  23.4060012  59.2074997 140.8609988
  23.5380012  60.1334997 142.0509988  23.0655688  59.7913804 141.4055482
  27.9400012  60.1304997 143.8449988  28.1180012  59.4844997 144.5279988
  27.8870012  60.9644997 144.3119988  27.9571999  60.1548009 144.0015917
  29.8190012  75.0794997 142.2409988  30.6850012  75.4454997 142.0629988
  29.5720012  74.6394997 141.4269988  29.9042392  75.0701756 142.1066289
  22.7720012  74.7894997 140.8689988  22.5050012  75.0764997 141.7419988
  23.5440012  74.2434997 141.0209988  22.8397488  74.7550294 141.0091050
  48.9260012  64.9814997 141.5919988  49.6270012  65.0034997 142.2429988
  49.2290012  64.3534997 140.9349988  49.0628133  64.8997070 141.5923369
  51.1490012  65.8954997 143.1899988  51.7290012  66.0454997 143.9369988
  51.5630012  66.3664997 142.4659988  51.2842997  65.9796578 143.1944058
  54.8480012  57.6454997 143.0029988  53.9480012  57.7844997 143.2979988
  55.1000012  58.4764997 142.6009988  54.7588702  57.7769074 142.9890205
  56.0370012  72.0114997 141.3789988  56.1110012  72.9504997 141.5499988
  56.9430012  71.7064997 141.3229988  56.1695100  72.0986722 141.3948119
  51.4500012  74.7424997 142.0419988  51.8250012  73.9984997 141.5709988
  51.4540012  74.4724997 142.9609988  51.5019125  74.6040986 142.1016483
  52.6270012  66.9284997 140.8199988  52.6690012  66.7054997 139.8899988
  53.4760012  67.3274997 141.0089988  52.7475280  66.9519438 140.7183554
  48.1990012  60.8044997 141.4899988  47.9460012  60.8234997 142.4129988
  47.9430012  59.9324997 141.1879988  48.1297481  60.6892558 141.5756175
  45.0820012  61.2494997 140.5909988  44.6510012  60.8044997 141.3209988
  44.3640012  61.6214997 140.0789988  44.9259438  61.2388940 140.6216799
  39.5980012  61.7374997 143.0669988  40.0720012  62.3284997 142.4819988
  38.8810012  62.2684997 143.4139988  39.5659341  61.8900867 143.0338836
  43.7000012  64.0274997 141.9729988  43.1570012  63.6474997 141.2819988
  44.5330012  64.2214997 141.5449988  43.7383631  64.0017125 141.8204501
  47.0350012  68.5924997 143.9089988  46.2900012  68.0854997 143.5869988
  46.9010012  68.6414997 144.8559988  46.9148776  68.5296940 143.9928647
  50.9330012  61.4064997 142.1079988  49.9940012  61.5184997 141.9569988
  51.2300012  62.2634997 142.4149988  50.8447583  61.5375981 142.1288337
  51.6510012  63.2734997 143.7689988  52.5430012  63.1364997 144.0879988
  51.7080012  64.0644997 143.2319988  51.7806504  63.3616052 143.7400818
  49.1610012  70.0514997 142.9349988  48.8650012  70.8774997 143.3159988
  48.4580012  69.4314997 143.1309988  49.0254914  70.0808199 143.0136443
  56.5360012  63.4834997 143.4639988  55.9820012  63.0874997 142.7919988
  56.6360012  64.3934997 143.1859988  56.4737059  63.5523586 143.3344401
  54.8310012  72.2694997 143.9289988  54.4580012  71.4434997 144.2379988
  55.1090012  72.0864997 143.0309988  54.8175222  72.1317430 143.8499473
  40.2900012  66.2674997 141.6699988  40.9060012  66.8944997 142.0499988
  39.4280012  66.5834997 141.9419988  40.2577698  66.3959430 141.7587183
  52.2240012  70.2454997 141.7489988  52.5770012  69.8654997 142.5529988
  51.2750012  70.1524997 141.8359988  52.1440918  70.1808956 141.8708532
  56.7270012  74.7254997 141.9499988  57.4710012  75.3114997 141.8099988
  56.0330012  75.2934997 142.2829988  56.7349899  74.8825798 141.9758778
  53.0900012  68.9184997 143.9759988  52.8120012  68.1904997 144.5319988
  54.0170012  69.0374997 144.1809988  53.1773124  68.8348802 144.0798845
  46.3150012  71.3574997 140.1959988  46.5540012  70.6094997 139.6489988
  46.0460012  70.9694997 141.0289988  46.3113675  71.2026638 140.2336865
  45.2520012  70.9274997 142.6519988  45.3980012  70.4074997 143.4419988
  45.2490012  71.8344997 142.9589988  45.2715792  70.9788842 142.8016117
  41.7050012  68.1804997 143.1629988  41.0190012  68.5324997 143.7299988
  42.2270012  68.9434997 142.9159988  41.6816852  68.3318578 143.2072118
  47.9890012  72.6254997 143.4019988  47.1730012  73.1224997 143.4539988
  48.5190012  73.1004997 142.7619988  47.9489161  72.7577722 143.3225956
  45.3280012  73.6694997 143.3829988  45.4880012  74.4684997 142.8829988
  45.1300012  73.9754997 144.2679988  45.3231637  73.8204020 143.4341144
  44.0620012  60.3664997 142.9989988  43.9790012  61.2554997 143.3459988
  44.9520012  60.1014997 143.2309988  44.1709469  60.4521430 143.0777626
  42.3210012  70.7944997 142.0599988  42.9130012  71.4934997 142.3359988
  42.7800012  70.3614997 141.3399988  42.4641142  70.8317049 142.0004830
  40.6370012  63.4584997 141.1759988  40.5920012  64.3974997 141.3539988
  39.7490012  63.2224997 140.9059988  40.5108574  63.5551892 141.1638912
  48.3530012  73.2204997 140.3349988  47.7090012  72.5894997 140.6559988
  49.1150012  72.6894997 140.1029988  48.3678077  73.0622920 140.3476011
  52.9570012  73.0374997 140.5679988  53.2400012  72.2434997 141.0209988
  53.6970012  73.2704997 140.0079988  53.0958006  72.9603376 140.5542715
  43.9120012  68.9474997 140.4259988  43.9760012  68.1534997 140.9569988
  44.5650012  68.8284997 139.7359988  44.0090241  68.8227148 140.4054317
  49.2640012  69.9944997 140.1619988  48.9950012  70.1744997 141.0629988
  49.0580012  69.0684997 140.0299988  49.1993427  69.8940261 140.2675073
  45.0610012  66.9194997 142.7319988  44.6010012  66.4354997 143.4179988
  45.3160012  66.2514997 142.0959988  45.0324902  66.7628731 142.7399334
  46.1320012  65.1624997 140.9939988  45.9520012  65.0084997 140.0669988
  47.0820012  65.2704997 141.0389988  46.2357776  65.1560175 140.8731843
  55.5220012  67.5174997 140.4399988  55.2480012  67.0924997 139.6269988
  55.5610012  68.4484997 140.2229988  55.4897699  67.5852484 140.2993610
  46.0290012  75.8534997 141.9949988  46.9620012  76.0114997 142.1389988
  45.7650012  76.5284997 141.3709988  46.1209888  75.9664510 141.9302842
  39.5980012  70.4894997 141.4779988  40.5120012  70.5684997 141.7519988
  39.6050012  69.8024997 140.8119988  39.7241131  70.4073961 141.4254393
  56.6430012  66.3404997 142.6299988  56.1210012  66.6974997 141.9109988
  56.6100012  67.0154997 143.3079988  56.5671634  66.4805413 142.6233145
  54.9920012  63.5804997 141.1799988  55.0880012  64.2474997 140.4999988
  54.8520012  62.7644997 140.6989988  54.9862272  63.5615655 141.0218347
  54.2390012  60.9884997 140.2979988  54.8500012  60.6174997 140.9349988
  53.4030012  60.5674997 140.4939988  54.2095032  60.8807554 140.4117035
  56.3520012  59.8734997 141.8399988  56.7640012  59.1524997 141.3649988
  57.0340012  60.5434997 141.8989988  56.5005885  59.8652368 141.7828915
  39.9090012  57.9214997 142.9459988  40.3480012  58.5324997 142.3539988
  39.2760012  58.4594997 143.4199988  39.8834514  58.0779257 142.9290930
  39.8100012  73.8694997 143.8429988  39.1250012  73.8314997 143.1759988
  39.8140012  74.7824997 144.1319988  39.7166998  73.9876733 143.7906771
  41.7700012  59.8374997 141.3879988  42.2620012  59.2074997 140.8609988
  42.3940012  60.1334997 142.0509988  41.9215688  59.7913804 141.4055482
  46.7960012  60.1304997 143.8449988  46.9740012  59.4844997 144.5279988
  46.7430012  60.9644997 144.3119988  46.8131999  60.1548009 144.0015917
  48.6750012  75.0794997 142.2409988  49.5410012  75.4454997 142.0629988
  48.4280012  74.6394997 141.4269988  48.7602392  75.0701756 142.1066289
  41.6280012  74.7894997 140.8689988  41.3610012  75.0764997 141.7419988
  42.4000012  74.2434997 141.0209988  41.6957488  74.7550294 141.0091050
  67.7820012  64.9814997 141.5919988  68.4830012  65.0034997 142.2429988
  68.0850012  64.3534997 140.9349988  67.9188133  64.8997070 141.5923369
  70.0050012  65.8954997 143.1899988  70.5850012  66.0454997 143.9369988
  70.4190012  66.3664997 142.4659988  70.1402997  65.9796578 143.1944058
  73.7040012  57.6454997 143.0029988  72.8040012  57.7844997 143.2979988
  73.9560012  58.4764997 142.6009988  73.6148702  57.7769074 142.9890205
  74.8930012  72.0114997 141.3789988  74.9670012  72.9504997 141.5499988
  75.7990012  71.7064997 141.3229988  75.0255100  72.0986722 141.3948119
  70.3060012  74.7424997 142.0419988  70.6810012  73.9984997 141.5709988
  70.3100012  74.4724997 142.9609988  70.3579125  74.6040986 142.1016483
  71.4830012  66.9284997 140.8199988  71.5250012  66.7054997 139.8899988
  72.3320012  67.3274997 141.0089988  71.6035280  66.9519438 140.7183554
  67.0550012  60.8044997 141.4899988  66.8020012  60.8234997 142.4129988
  66.7990012  59.9324997 141.1879988  66.9857481  60.6892558 141.5756175
  63.9380012  61.2494997 140.5909988  63.5070012  60.8044997 141.3209988
  63.2200012  61.6214997 140.0789988  63.7819438  61.2388940 140.6216799
  58.4540012  61.7374997 143.0669988  58.9280012  62.3284997 142.4819988
  57.7370012  62.2684997 143.4139988  58.4219341  61.8900867 143.0338836
  62.5560012  64.0274997 141.9729988  62.0130012  63.6474997 141.2819988
  63.3890012  64.2214997 141.5449988  62.5943631  64.0017125 141.8204501
  65.8910012  68.5924997 143.9089988  65.1460012  68.0854997 143.5869988
  65.7570012  68.6414997 144.8559988  65.7708776  68.5296940 143.9928647
  69.7890012  61.4064997 142.1079988  68.8500012  61.5184997 141.9569988
  70.0860012  62.2634997 142.4149988  69.7007583  61.5375981 142.1288337
  70.5070012  63.2734997 143.7689988  71.3990012  63.1364997 144.0879988
  70.5640012  64.0644997 143.2319988  70.6366504  63.3616052 143.7400818
  68.0170012  70.0514997 142.9349988  67.7210012  70.8774997 143.3159988
  67.3140012  69.4314997 143.1309988  67.8814914  70.0808199 143.0136443
  75.3920012  63.4834997 143.4639988  74.8380012  63.0874997 142.7919988
  75.4920012  64.3934997 143.1859988  75.3297059  63.5523586 143.3344401
  73.6870012  72.2694997 143.9289988  73.3140012  71.4434997 144.2379988
  73.9650012  72.0864997 143.0309988  73.6735222  72.1317430 143.8499473
  59.1460012  66.2674997 141.6699988  59.7620012  66.8944997 142.0499988
  58.2840012  66.5834997 141.9419988  59.1137698  66.3959430 141.7587183
  71.0800012  70.2454997 141.7489988  71.4330012  69.8654997 142.5529988
  70.1310012  70.1524997 141.8359988  71.0000918  70.1808956 141.8708532
  75.5830012  74.7254997 141.9499988  76.3270012  75.3114997 141.8099988
  74.8890012  75.2934997 142.2829988  75.5909899  74.8825798 141.9758778
  71.9460012  68.9184997 143.9759988  71.6680012  68.1904997 144.5319988
  72.8730012  69.0374997 144.1809988  72.0333124  68.8348802 144.0798845
  65.1710012  71.3574997 140.1959988  65.4100012  70.6094997 139.6489988
  64.9020012  70.9694997 141.0289988  65.1673675  71.2026638 140.2336865
  64.1080012  70.9274997 142.6519988  64.2540012  70.4074997 143.4419988
  64.1050012  71.8344997 142.9589988  64.1275792  70.9788842 142.8016117
  60.5610012  68.1804997 143.1629988  59.8750012  68.5324997 143.7299988
  61.0830012  68.9434997 142.9159988  60.5376852  68.3318578 143.2072118
  66.8450012  72.6254997 143.4019988  66.0290012  73.1224997 143.4539988
  67.3750012  73.1004997 142.7619988  66.8049161  72.7577722 143.3225956
  64.1840012  73.6694997 143.3829988  64.3440012  74.4684997 142.8829988
  63.9860012  73.9754997 144.2679988  64.1791637  73.8204020 143.4341144
  62.9180012  60.3664997 142.9989988  62.8350012  61.2554997 143.3459988
  63.8080012  60.1014997 143.2309988  63.0269469  60.4521430 143.0777626
  61.1770012  70.7944997 142.0599988  61.7690012  71.4934997 142.3359988
  61.6360012  70.3614997 141.3399988  61.3201142  70.8317049 142.0004830
  59.4930012  63.4584997 141.1759988  59.4480012  64.3974997 141.3539988
  58.6050012  63.2224997 140.9059988  59.3668574  63.5551892 141.1638912
  67.2090012  73.2204997 140.3349988  66.5650012  72.5894997 140.6559988
  67.9710012  72.6894997 140.1029988  67.2238077  73.0622920 140.3476011
  71.8130012  73.0374997 140.5679988  72.0960012  72.2434997 141.0209988
  72.5530012  73.2704997 140.0079988  71.9518006  72.9603376 140.5542715
  62.7680012  68.9474997 140.4259988  62.8320012  68.1534997 140.9569988
  63.4210012  68.8284997 139.7359988  62.8650241  68.8227148 140.4054317
  68.1200012  69.9944997 140.1619988  67.8510012  70.1744997 141.0629988
  67.9140012  69.0684997 140.0299988  68.0553427  69.8940261 140.2675073
  63.9170012  66.9194997 142.7319988  63.4570012  66.4354997 143.4179988
  64.1720012  66.2514997 142.0959988  63.8884902  66.7628731 142.7399334
  64.9880012  65.1624997 140.9939988  64.8080012  65.0084997 140.0669988
  65.9380012  65.2704997 141.0389988  65.0917776  65.1560175 140.8731843
  74.3780012  67.5174997 140.4399988  74.1040012  67.0924997 139.6269988
  74.4170012  68.4484997 140.2229988  74.3457699  67.5852484 140.2993610
  64.8850012  75.8534997 141.9949988  65.8180012  76.0114997 142.1389988
  64.6210012  76.5284997 141.3709988  64.9769888  75.9664510 141.9302842
  58.4540012  70.4894997 141.4779988  59.3680012  70.5684997 141.7519988
  58.4610012  69.8024997 140.8119988  58.5801131  70.4073961 141.4254393
  75.4990012  66.3404997 142.6299988  74.9770012  66.6974997 141.9109988
  75.4660012  67.0154997 143.3079988  75.4231634  66.4805413 142.6233145
  73.8480012  63.5804997 141.1799988  73.9440012  64.2474997 140.4999988
  73.7080012  62.7644997 140.6989988  73.8422272  63.5615655 141.0218347
  73.0950012  60.9884997 140.2979988  73.7060012  60.6174997 140.9349988
  72.2590012  60.5674997 140.4939988  73.0655032  60.8807554 140.4117035
  75.2080012  59.8734997 141.8399988  75.6200012  59.1524997 141.3649988
  75.8900012  60.5434997 141.8989988  75.3565885  59.8652368 141.7828915
  58.7650012  57.9214997 142.9459988  59.2040012  58.5324997 142.3539988
  58.1320012  58.4594997 143.4199988  58.7394514  58.0779257 142.9290930
  58.6660012  73.8694997 143.8429988  57.9810012  73.8314997 143.1759988
  58.6700012  74.7824997 144.1319988  58.5726998  73.9876733 143.7906771
  60.6260012  59.8374997 141.3879988  61.1180012  59.2074997 140.8609988
  61.2500012  60.1334997 142.0509988  60.7775688  59.7913804 141.4055482
  65.6520012  60.1304997 143.8449988  65.8300012  59.4844997 144.5279988
  65.5990012  60.9644997 144.3119988  65.6691999  60.1548009 144.0015917
  67.5310012  75.0794997 142.2409988  68.3970012  75.4454997 142.0629988
  67.2840012  74.6394997 141.4269988  67.6162392  75.0701756 142.1066289
  60.4840012  74.7894997 140.8689988  60.2170012  75.0764997 141.7419988
  61.2560012  74.2434997 141.0209988  60.5517488  74.7550294 141.0091050
  86.6380012  64.9814997 141.5919988  87.3390012  65.0034997 142.2429988
  86.9410012  64.3534997 140.9349988  86.7748133  64.8997070 141.5923369
  88.8610012  65.8954997 143.1899988  89.4410012  66.0454997 143.9369988
  89.2750012  66.3664997 142.4659988  88.9962997  65.9796578 143.1944058
  92.5600012  57.6454997 143.0029988  91.6600012  57.7844997 143.2979988
  92.8120012  58.4764997 142.6009988  92.4708702  57.7769074 142.9890205
  93.7490012  72.0114997 141.3789988  93.8230012  72.9504997 141.5499988
  94.6550012  71.7064997 141.3229988  93.8815100  72.0986722 141.3948119
  89.1620012  74.7424997 142.0419988  89.5370012  73.9984997 141.5709988
  89.1660012  74.4724997 142.9609988  89.2139125  74.6040986 142.1016483
  90.3390012  66.9284997 140.8199988  90.3810012  66.7054997 139.8899988
  91.1880012  67.3274997 141.0089988  90.4595280  66.9519438 140.7183554
  85.9110012  60.8044997 141.4899988  85.6580012  60.8234997 142.4129988
  85.6550012  59.9324997 141.1879988  85.8417481  60.6892558 141.5756175
  82.7940012  61.2494997 140.5909988  82.3630012  60.8044997 141.3209988
  82.0760012  61.6214997 140.0789988  82.6379438  61.2388940 140.6216799
  77.3100012  61.7374997 143.0669988  77.7840012  62.3284997 142.4819988
  76.5930012  62.2684997 143.4139988  77.2779341  61.8900867 143.0338836
  81.4120012  64.0274997 141.9729988  80.8690012  63.6474997 141.2819988
  82.2450012  64.2214997 141.5449988  81.4503631  64.0017125 141.8204501
  84.7470012  68.5924997 143.9089988  84.0020012  68.0854997 143.5869988
  84.6130012  68.6414997 144.8559988  84.6268776  68.5296940 143.9928647
  88.6450012  61.4064997 142.1079988  87.7060012  61.5184997 141.9569988
  88.9420012  62.2634997 142.4149988  88.5567583  61.5375981 142.1288337
  89.3630012  63.2734997 143.7689988  90.2550012  63.1364997 144.0879988
  89.4200012  64.0644997 143.2319988  89.4926504  63.3616052 143.7400818
  86.8730012  70.0514997 142.9349988  86.5770012  70.8774997 143.3159988
  86.1700012  69.4314997 143.1309988  86.7374914  70.0808199 143.0136443
  94.2480012  63.4834997 143.4639988  93.6940012  63.0874997 142.7919988
  94.3480012  64.3934997 143.1859988  94.1857059  63.5523586 143.3344401
  92.5430012  72.2694997 143.9289988  92.1700012  71.4434997 144.2379988
  92.8210012  72.0864997 143.0309988  92.5295222  72.1317430 143.8499473
  78.0020012  66.2674997 141.6699988  78.6180012  66.8944997 142.0499988
  77.1400012  66.5834997 141.9419988  77.9697698  66.3959430 141.7587183
  89.9360012  70.2454997 141.7489988  90.2890012  69.8654997 142.5529988
  88.9870012  70.1524997 141.8359988  89.8560918  70.1808956 141.8708532
  94.4390012  74.7254997 141.9499988  95.1830012  75.3114997 141.8099988
  93.7450012  75.2934997 142.2829988  94.4469899  74.8825798 141.9758778
  90.8020012  68.9184997 143.9759988  90.5240012  68.1904997 144.5319988
  91.7290012  69.0374997 144.1809988  90.8893124  68.8348802 144.0798845
  84.0270012  71.3574997 140.1959988  84.2660012  70.6094997 139.6489988
  83.7580012  70.9694997 141.0289988  84.0233675  71.2026638 140.2336865
  82.9640012  70.9274997 142.6519988  83.1100012  70.4074997 143.4419988
  82.9610012  71.8344997 142.9589988  82.9835792  70.9788842 142.8016117
  79.4170012  68.1804997 143.1629988  78.7310012  68.5324997 143.7299988
  79.9390012  68.9434997 142.9159988  79.3936852  68.3318578 143.2072118
  85.7010012  72.6254997 143.4019988  84.8850012  73.1224997 143.4539988
  86.2310012  73.1004997 142.7619988  85.6609161  72.7577722 143.3225956
  83.0400012  73.6694997 143.3829988  83.2000012  74.4684997 142.8829988
  82.8420012  73.9754997 144.2679988  83.0351637  73.8204020 143.4341144
  81.7740012  60.3664997 142.9989988  81.6910012  61.2554997 143.3459988
  82.6640012  60.1014997 143.2309988  81.8829469  60.4521430 143.0777626
  80.0330012  70.7944997 142.0599988  80.6250012  71.4934997 142.3359988
  80.4920012  70.3614997 141.3399988  80.1761142  70.8317049 142.0004830
  78.3490012  63.4584997 141.1759988  78.3040012  64.3974997 141.3539988
  77.4610012  63.2224997 140.9059988  78.2228574  63.5551892 141.1638912
  86.0650012  73.2204997 140.3349988  85.4210012  72.5894997 140.6559988
  86.8270012  72.6894997 140.1029988  86.0798077  73.0622920 140.3476011
  90.6690012  73.0374997 140.5679988  90.9520012  72.2434997 141.0209988
  91.4090012  73.2704997 140.0079988  90.8078006  72.9603376 140.5542715
  81.6240012  68.9474997 140.4259988  81.6880012  68.1534997 140.9569988
  82.2770012  68.8284997 139.7359988  81.7210241  68.8227148 140.4054317
  86.9760012  69.9944997 140.1619988  86.7070012  70.1744997 141.0629988
  86.7700012  69.0684997 140.0299988  86.9113427  69.8940261 140.2675073
  82.7730012  66.9194997 142.7319988  82.3130012  66.4354997 143.4179988
  83.0280012  66.2514997 142.0959988  82.7444902  66.7628731 142.7399334
  83.8440012  65.1624997 140.9939988  83.6640012  65.0084997 140.0669988
  84.7940012  65.2704997 141.0389988  83.9477776  65.1560175 140.8731843
  93.2340012  67.5174997 140.4399988  92.9600012  67.0924997 139.6269988
  93.2730012  68.4484997 140.2229988  93.2017699  67.5852484 140.2993610
  83.7410012  75.8534997 141.9949988  84.6740012  76.0114997 142.1389988
  83.4770012  76.5284997 141.3709988  83.8329888  75.9664510 141.9302842
  77.3100012  70.4894997 141.4779988  78.2240012  70.5684997 141.7519988
  77.3170012  69.8024997 140.8119988  77.4361131  70.4073961 141.4254393
  94.3550012  66.3404997 142.6299988  93.8330012  66.6974997 141.9109988
  94.3220012  67.0154997 143.3079988  94.2791634  66.4805413 142.6233145
  92.7040012  63.5804997 141.1799988  92.8000012  64.2474997 140.4999988
  92.5640012  62.7644997 140.6989988  92.6982272  63.5615655 141.0218347
  91.9510012  60.9884997 140.2979988  92.5620012  60.6174997 140.9349988
  91.1150012  60.5674997 140.4939988  91.9215032  60.8807554 140.4117035
  94.0640012  59.8734997 141.8399988  94.4760012  59.1524997 141.3649988
  94.7460012  60.5434997 141.8989988  94.2125885  59.8652368 141.7828915
  77.6210012  57.9214997 142.9459988  78.0600012  58.5324997 142.3539988
  76.9880012  58.4594997 143.4199988  77.5954514  58.0779257 142.9290930
  77.5220012  73.8694997 143.8429988  76.8370012  73.8314997 143.1759988
  77.5260012  74.7824997 144.1319988  77.4286998  73.9876733 143.7906771
  79.4820012  59.8374997 141.3879988  79.9740012  59.2074997 140.8609988
  80.1060012  60.1334997 142.0509988  79.6335688  59.7913804 141.4055482
  84.5080012  60.1304997 143.8449988  84.6860012  59.4844997 144.5279988
  84.4550012  60.9644997 144.3119988  84.5251999  60.1548009 144.0015917
  86.3870012  75.0794997 142.2409988  87.2530012  75.4454997 142.0629988
  86.1400012  74.6394997 141.4269988  86.4722392  75.0701756 142.1066289
  79.3400012  74.7894997 140.8689988  79.0730012  75.0764997 141.7419988
  80.1120012  74.2434997 141.0209988  79.4077488  74.7550294 141.0091050
 105.4940012  64.9814997 141.5919988 106.1950012  65.0034997 142.2429988
 105.7970012  64.3534997 140.9349988 105.6308133  64.8997070 141.5923369
 107.7170012  65.8954997 143.1899988 108.2970012  66.0454997 143.9369988
 108.1310012  66.3664997 142.4659988 107.8522997  65.9796578 143.1944058
 111.4160012  57.6454997 143.0029988 110.5160012  57.7844997 143.2979988
 111.6680012  58.4764997 142.6009988 111.3268702  57.7769074 142.9890205
 112.6050012  72.0114997 141.3789988 112.6790012  72.9504997 141.5499988
 113.5110012  71.7064997 141.3229988 112.7375100  72.0986722 141.3948119
 108.0180012  74.7424997 142.0419988 108.3930012  73.9984997 141.5709988
 108.0220012  74.4724997 142.9609988 108.0699125  74.6040986 142.1016483
 109.1950012  66.9284997 140.8199988 109.2370012  66.7054997 139.8899988
 110.0440012  67.3274997 141.0089988 109.3155280  66.9519438 140.7183554
 104.7670012  60.8044997 141.4899988 104.5140012  60.8234997 142.4129988
 104.5110012  59.9324997 141.1879988 104.6977481  60.6892558 141.5756175
 101.6500012  61.2494997 140.5909988 101.2190012  60.8044997 141.3209988
 100.9320012  61.6214997 140.0789988 101.4939438  61.2388940 140.6216799
  96.1660012  61.7374997 143.0669988  96.6400012  62.3284997 142.4819988
  95.4490012  62.2684997 143.4139988  96.1339341  61.8900867 143.0338836
 100.2680012  64.0274997 141.9729988  99.7250012  63.6474997 141.2819988
 101.1010012  64.2214997 141.5449988 100.3063631  64.0017125 141.8204501
 103.6030012  68.5924997 143.9089988 102.8580012  68.0854997 143.5869988
 103.4690012  68.6414997 144.8559988 103.4828776  68.5296940 143.9928647
 107.5010012  61.4064997 142.1079988 106.5620012  61.5184997 141.9569988
 107.7980012  62.2634997 142.4149988 107.4127583  61.5375981 142.1288337
 108.2190012  63.2734997 143.7689988 109.1110012  63.1364997 144.0879988
 108.2760012  64.0644997 143.2319988 108.3486504  63.3616052 143.7400818
 105.7290012  70.0514997 142.9349988 105.4330012  70.8774997 143.3159988
 105.0260012  69.4314997 143.1309988 105.5934914  70.0808199 143.0136443
 113.1040012  63.4834997 143.4639988 112.5500012  63.0874997 142.7919988
 113.2040012  64.3934997 143.1859988 113.0417059  63.5523586 143.3344401
 111.3990012  72.2694997 143.9289988 111.0260012  71.4434997 144.2379988
 111.6770012  72.0864997 143.0309988 111.3855222  72.1317430 143.8499473
  96.8580012  66.2674997 141.6699988  97.4740012  66.8944997 142.0499988
  95.9960012  66.5834997 141.9419988  96.8257698  66.3959430 141.7587183
 108.7920012  70.2454997 141.7489988 109.1450012  69.8654997 142.5529988
 107.8430012  70.1524997 141.8359988 108.7120918  70.1808956 141.8708532
 113.2950012  74.7254997 141.9499988 114.0390012  75.3114997 141.8099988
 112.6010012  75.2934997 142.2829988 113.3029899  74.8825798 141.9758778
 109.6580012  68.9184997 143.9759988 109.3800012  68.1904997 144.5319988
 110.5850012  69.0374997 144.1809988 109.7453124  68.8348802 144.0798845
 102.8830012  71.3574997 140.1959988 103.1220012  70.6094997 139.6489988
 102.6140012  70.9694997 141.0289988 102.8793675  71.2026638 140.2336865
 101.8200012  70.9274997 142.6519988 101.9660012  70.4074997 143.4419988
 101.8170012  71.8344997 142.9589988 101.8395792  70.9788842 142.8016117
  98.2730012  68.1804997 143.1629988  97.5870012  68.5324997 143.7299988
  98.7950012  68.9434997 142.9159988  98.2496852  68.3318578 143.2072118
 104.5570012  72.6254997 143.4019988 103.7410012  73.1224997 143.4539988
 105.0870012  73.1004997 142.7619988 104.5169161  72.7577722 143.3225956
 101.8960012  73.6694997 143.3829988 102.0560012  74.4684997 142.8829988
 101.6980012  73.9754997 144.2679988 101.8911637  73.8204020 143.4341144
 100.6300012  60.3664997 142.9989988 100.5470012  61.2554997 143.3459988
 101.5200012  60.1014997 143.2309988 100.7389469  60.4521430 143.0777626
  98.8890012  70.7944997 142.0599988  99.4810012  71.4934997 142.3359988
  99.3480012  70.3614997 141.3399988  99.0321142  70.8317049 142.0004830
  97.2050012  63.4584997 141.1759988  97.1600012  64.3974997 141.3539988
  96.3170012  63.2224997 140.9059988  97.0788574  63.5551892 141.1638912
 104.9210012  73.2204997 140.3349988 104.2770012  72.5894997 140.6559988
 105.6830012  72.6894997 140.1029988 104.9358077  73.0622920 140.3476011
 109.5250012  73.0374997 140.5679988 109.8080012  72.2434997 141.0209988
 110.2650012  73.2704997 140.0079988 109.6638006  72.9603376 140.5542715
 100.4800012  68.9474997 140.4259988 100.5440012  68.1534997 140.9569988
 101.1330012  68.8284997 139.7359988 100.5770241  68.8227148 140.4054317
 105.8320012  69.9944997 140.1619988 105.5630012  70.1744997 141.0629988
 105.6260012  69.0684997 140.0299988 105.7673427  69.8940261 140.2675073
 101.6290012  66.9194997 142.7319988 101.1690012  66.4354997 143.4179988
 101.8840012  66.2514997 142.0959988 101.6004902  66.7628731 142.7399334
 102.7000012  65.1624997 140.9939988 102.5200012  65.0084997 140.0669988
 103.6500012  65.2704997 141.0389988 102.8037776  65.1560175 140.8731843
 112.0900012  67.5174997 140.4399988 111.8160012  67.0924997 139.6269988
 112.1290012  68.4484997 140.2229988 112.0577699  67.5852484 140.2993610
 102.5970012  75.8534997 141.9949988 103.5300012  76.0114997 142.1389988
 102.3330012  76.5284997 141.3709988 102.6889888  75.9664510 141.9302842
  96.1660012  70.4894997 141.4779988  97.0800012  70.5684997 141.7519988
  96.1730012  69.8024997 140.8119988  96.2921131  70.4073961 141.4254393
 113.2110012  66.3404997 142.6299988 112.6890012  66.6974997 141.9109988
 113.1780012  67.0154997 143.3079988 113.1351634  66.4805413 142.6233145
 111.5600012  63.5804997 141.1799988 111.6560012  64.2474997 140.4999988
 111.4200012  62.7644997 140.6989988 111.5542272  63.5615655 141.0218347
 110.8070012  60.9884997 140.2979988 111.4180012  60.6174997 140.9349988
 109.9710012  60.5674997 140.4939988 110.7775032  60.8807554 140.4117035
 112.9200012  59.8734997 141.8399988 113.3320012  59.1524997 141.3649988
 113.6020012  60.5434997 141.8989988 113.0685885  59.8652368 141.7828915
  96.4770012  57.9214997 142.9459988  96.9160012  58.5324997 142.3539988
  95.8440012  58.4594997 143.4199988  96.4514514  58.0779257 142.9290930
  96.3780012  73.8694997 143.8429988  95.6930012  73.8314997 143.1759988
  96.3820012  74.7824997 144.1319988  96.2846998  73.9876733 143.7906771
  98.3380012  59.8374997 141.3879988  98.8300012  59.2074997 140.8609988
  98.9620012  60.1334997 142.0509988  98.4895688  59.7913804 141.4055482
 103.3640012  60.1304997 143.8449988 103.5420012  59.4844997 144.5279988
 103.3110012  60.9644997 144.3119988 103.3811999  60.1548009 144.0015917
 105.2430012  75.0794997 142.2409988 106.1090012  75.4454997 142.0629988
 104.9960012  74.6394997 141.4269988 105.3282392  75.0701756 142.1066289
  98.1960012  74.7894997 140.8689988  97.9290012  75.0764997 141.7419988
  98.9680012  74.2434997 141.0209988  98.2637488  74.7550294 141.0091050
 124.3500012  64.9814997 141.5919988 125.0510012  65.0034997 142.2429988
 124.6530012  64.3534997 140.9349988 124.4868133  64.8997070 141.5923369
 126.5730012  65.8954997 143.1899988 127.1530012  66.0454997 143.9369988
 126.9870012  66.3664997 142.4659988 126.7082997  65.9796578 143.1944058
 130.2720012  57.6454997 143.0029988 129.3720012  57.7844997 143.2979988
 130.5240012  58.4764997 142.6009988 130.1828702  57.7769074 142.9890205
 131.4610012  72.0114997 141.3789988 131.5350012  72.9504997 141.5499988
 132.3670012  71.7064997 141.3229988 131.5935100  72.0986722 141.3948119
 126.8740012  74.7424997 142.0419988 127.2490012  73.9984997 141.5709988
 126.8780012  74.4724997 142.9609988 126.9259125  74.6040986 142.1016483
 128.0510012  66.9284997 140.8199988 128.0930012  66.7054997 139.8899988
 128.9000012  67.3274997 141.0089988 128.1715280  66.9519438 140.7183554
 123.6230012  60.8044997 141.4899988 123.3700012  60.8234997 142.4129988
 123.3670012  59.9324997 141.1879988 123.5537481  60.6892558 141.5756175
 120.5060012  61.2494997 140.5909988 120.0750012  60.8044997 141.3209988
 119.7880012  61.6214997 140.0789988 120.3499438  61.2388940 140.6216799
 115.0220012  61.7374997 143.0669988 115.4960012  62.3284997 142.4819988
 114.3050012  62.2684997 143.4139988 114.9899341  61.8900867 143.0338836
 119.1240012  64.0274997 141.9729988 118.5810012  63.6474997 141.2819988
 119.9570012  64.2214997 141.5449988 119.1623631  64.0017125 141.8204501
 122.4590012  68.5924997 143.9089988 121.7140012  68.0854997 143.5869988
 122.3250012  68.6414997 144.8559988 122.3388776  68.5296940 143.9928647
 126.3570012  61.4064997 142.1079988 125.4180012  61.5184997 141.9569988
 126.6540012  62.2634997 142.4149988 126.2687583  61.5375981 142.1288337
 127.0750012  63.2734997 143.7689988 127.9670012  63.1364997 144.0879988
 127.1320012  64.0644997 143.2319988 127.2046504  63.3616052 143.7400818
 124.5850012  70.0514997 142.9349988 124.2890012  70.8774997 143.3159988
 123.8820012  69.4314997 143.1309988 124.4494914  70.0808199 143.0136443
 131.9600012  63.4834997 143.4639988 131.4060012  63.0874997 142.7919988
 132.0600012  64.3934997 143.1859988 131.8977059  63.5523586 143.3344401
 130.2550012  72.2694997 143.9289988 129.8820012  71.4434997 144.2379988
 130.5330012  72.0864997 143.0309988 130.2415222  72.1317430 143.8499473
 115.7140012  66.2674997 141.6699988 116.3300012  66.8944997 142.0499988
 114.8520012  66.5834997 141.9419988 115.6817698  66.3959430 141.7587183
 127.6480012  70.2454997 141.7489988 128.0010012  69.8654997 142.5529988
 126.6990012  70.1524997 141.8359988 127.5680918  70.1808956 141.8708532
 132.1510012  74.7254997 141.9499988 132.8950012  75.3114997 141.8099988
 131.4570012  75.2934997 142.2829988 132.1589899  74.8825798 141.9758778
 128.5140012  68.9184997 143.9759988 128.2360012  68.1904997 144.5319988
 129.4410012  69.0374997 144.1809988 128.6013124  68.8348802 144.0798845
 121.7390012  71.3574997 140.1959988 121.9780012  70.6094997 139.6489988
 121.4700012  70.9694997 141.0289988 121.7353675  71.2026638 140.2336865
 120.6760012  70.9274997 142.6519988 120.8220012  70.4074997 143.4419988
 120.6730012  71.8344997 142.9589988 120.6955792  70.9788842 142.8016117
 117.1290012  68.1804997 143.1629988 116.4430012  68.5324997 143.7299988
 117.6510012  68.9434997 142.9159988 117.1056852  68.3318578 143.2072118
 123.4130012  72.6254997 143.4019988 122.5970012  73.1224997 143.4539988
 123.9430012  73.1004997 142.7619988 123.3729161  72.7577722 143.3225956
 120.7520012  73.6694997 143.3829988 120.9120012  74.4684997 142.8829988
 120.5540012  73.9754997 144.2679988 120.7471637  73.8204020 143.4341144
 119.4860012  60.3664997 142.9989988 119.4030012  61.2554997 143.3459988
 120.3760012  60.1014997 143.2309988 119.5949469  60.4521430 143.0777626
 117.7450012  70.7944997 142.0599988 118.3370012  71.4934997 142.3359988
 118.2040012  70.3614997 141.3399988 117.8881142  70.8317049 142.0004830
 116.0610012  63.4584997 141.1759988 116.0160012  64.3974997 141.3539988
 115.1730012  63.2224997 140.9059988 115.9348574  63.5551892 141.1638912
 123.7770012  73.2204997 140.3349988 123.1330012  72.5894997 140.6559988
 124.5390012  72.6894997 140.1029988 123.7918077  73.0622920 140.3476011
 128.3810012  73.0374997 140.5679988 128.6640012  72.2434997 141.0209988
 129.1210012  73.2704997 140.0079988 128.5198006  72.9603376 140.5542715
 119.3360012  68.9474997 140.4259988 119.4000012  68.1534997 140.9569988
 119.9890012  68.8284997 139.7359988 119.4330241  68.8227148 140.4054317
 124.6880012  69.9944997 140.1619988 124.4190012  70.1744997 141.0629988
 124.4820012  69.0684997 140.0299988 124.6233427  69.8940261 140.2675073
 120.4850012  66.9194997 142.7319988 120.0250012  66.4354997 143.4179988
 120.7400012  66.2514997 142.0959988 120.4564902  66.7628731 142.7399334
 121.5560012  65.1624997 140.9939988 121.3760012  65.0084997 140.0669988
 122.5060012  65.2704997 141.0389988 121.6597776  65.1560175 140.8731843
 130.9460012  67.5174997 140.4399988 130.6720012  67.0924997 139.6269988
 130.9850012  68.4484997 140.2229988 130.9137699  67.5852484 140.2993610
 121.4530012  75.8534997 141.9949988 122.3860012  76.0114997 142.1389988
 121.1890012  76.5284997 141.3709988 121.5449888  75.9664510 141.9302842
 115.0220012  70.4894997 141.4779988 115.9360012  70.5684997 141.7519988
 115.0290012  69.8024997 140.8119988 115.1481131  70.4073961 141.4254393
 132.0670012  66.3404997 142.6299988 131.5450012  66.6974997 141.9109988
 132.0340012  67.0154997 143.3079988 131.9911634  66.4805413 142.6233145
 130.4160012  63.5804997 141.1799988 130.5120012  64.2474997 140.4999988
 130.2760012  62.7644997 140.6989988 130.4102272  63.5615655 141.0218347
 129.6630012  60.9884997 140.2979988 130.2740012  60.6174997 140.9349988
 128.8270012  60.5674997 140.4939988 129.6335032  60.8807554 140.4117035
 131.7760012  59.8734997 141.8399988 132.1880012  59.1524997 141.3649988
 132.4580012  60.5434997 141.8989988 131.9245885  59.8652368 141.7828915
 115.3330012  57.9214997 142.9459988 115.7720012  58.5324997 142.3539988
 114.7000012  58.4594997 143.4199988 115.3074514  58.0779257 142.9290930
 115.2340012  73.8694997 143.8429988 114.5490012  73.8314997 143.1759988
 115.2380012  74.7824997 144.1319988 115.1406998  73.9876733 143.7906771
 117.1940012  59.8374997 141.3879988 117.6860012  59.2074997 140.8609988
 117.8180012  60.1334997 142.0509988 117.3455688  59.7913804 141.4055482
 122.2200012  60.1304997 143.8449988 122.3980012  59.4844997 144.5279988
 122.1670012  60.9644997 144.3119988 122.2371999  60.1548009 144.0015917
 124.0990012  75.0794997 142.2409988 124.9650012  75.4454997 142.0629988
 123.8520012  74.6394997 141.4269988 124.1842392  75.0701756 142.1066289
 117.0520012  74.7894997 140.8689988 116.7850012  75.0764997 141.7419988
 117.8240012  74.2434997 141.0209988 117.1197488  74.7550294 141.0091050
 143.2060012  64.9814997 141.5919988 143.9070012  65.0034997 142.2429988
 143.5090012  64.3534997 140.9349988 143.3428133  64.8997070 141.5923369
 142.4790012  60.8044997 141.4899988 142.2260012  60.8234997 142.4129988
 142.2230012  59.9324997 141.1879988 142.4097481  60.6892558 141.5756175
 139.3620012  61.2494997 140.5909988 138.9310012  60.8044997 141.3209988
 138.6440012  61.6214997 140.0789988 139.2059438  61.2388940 140.6216799
 133.8780012  61.7374997 143.0669988 134.3520012  62.3284997 142.4819988
 133.1610012  62.2684997 143.4139988 133.8459341  61.8900867 143.0338836
 137.9800012  64.0274997 141.9729988 137.4370012  63.6474997 141.2819988
 138.8130012  64.2214997 141.5449988 138.0183631  64.0017125 141.8204501
 141.3150012  68.5924997 143.9089988 140.5700012  68.0854997 143.5869988
 141.1810012  68.6414997 144.8559988 141.1948776  68.5296940 143.9928647
 143.4410012  70.0514997 142.9349988 143.1450012  70.8774997 143.3159988
 142.7380012  69.4314997 143.1309988 143.3054914  70.0808199 143.0136443
 134.5700012  66.2674997 141.6699988 135.1860012  66.8944997 142.0499988
 133.7080012  66.5834997 141.9419988 134.5377698  66.3959430 141.7587183
 140.5950012  71.3574997 140.1959988 140.8340012  70.6094997 139.6489988
 140.3260012  70.9694997 141.0289988 140.5913675  71.2026638 140.2336865
 139.5320012  70.9274997 142.6519988 139.6780012  70.4074997 143.4419988
 139.5290012  71.8344997 142.9589988 139.5515792  70.9788842 142.8016117
 135.9850012  68.1804997 143.1629988 135.2990012  68.5324997 143.7299988
 136.5070012  68.9434997 142.9159988 135.9616852  68.3318578 143.2072118
 142.2690012  72.6254997 143.4019988 141.4530012  73.1224997 143.4539988
 142.7990012  73.1004997 142.7619988 142.2289161  72.7577722 143.3225956
 139.6080012  73.6694997 143.3829988 139.7680012  74.4684997 142.8829988
 139.4100012  73.9754997 144.2679988 139.6031637  73.8204020 143.4341144
 138.3420012  60.3664997 142.9989988 138.2590012  61.2554997 143.3459988
 139.2320012  60.1014997 143.2309988 138.4509469  60.4521430 143.0777626
 136.6010012  70.7944997 142.0599988 137.1930012  71.4934997 142.3359988
 137.0600012  70.3614997 141.3399988 136.7441142  70.8317049 142.0004830
 134.9170012  63.4584997 141.1759988 134.8720012  64.3974997 141.3539988
 134.0290012  63.2224997 140.9059988 134.7908574  63.5551892 141.1638912
 142.6330012  73.2204997 140.3349988 141.9890012  72.5894997 140.6559988
 143.3950012  72.6894997 140.1029988 142.6478077  73.0622920 140.3476011
 138.1920012  68.9474997 140.4259988 138.2560012  68.1534997 140.9569988
 138.8450012  68.8284997 139.7359988 138.2890241  68.8227148 140.4054317
 143.5440012  69.9944997 140.1619988 143.2750012  70.1744997 141.0629988
 143.3380012  69.0684997 140.0299988 143.4793427  69.8940261 140.2675073
 139.3410012  66.9194997 142.7319988 138.8810012  66.4354997 143.4179988
 139.5960012  66.2514997 142.0959988 139.3124902  66.7628731 142.7399334
 140.4120012  65.1624997 140.9939988 140.2320012  65.0084997 140.0669988
 141.3620012  65.2704997 141.0389988 140.5157776  65.1560175 140.8731843
 140.3090012  75.8534997 141.9949988 141.2420012  76.0114997 142.1389988
 140.0450012  76.5284997 141.3709988 140.4009888  75.9664510 141.9302842
 133.8780012  70.4894997 141.4779988 134.7920012  70.5684997 141.7519988
 133.8850012  69.8024997 140.8119988 134.0041131  70.4073961 141.4254393
 134.1890012  57.9214997 142.9459988 134.6280012  58.5324997 142.3539988
 133.5560012  58.4594997 143.4199988 134.1634514  58.0779257 142.9290930
 134.0900012  73.8694997 143.8429988 133.4050012  73.8314997 143.1759988
 134.0940012  74.7824997 144.1319988 133.9966998  73.9876733 143.7906771
 136.0500012  59.8374997 141.3879988 136.5420012  59.2074997 140.8609988
 136.6740012  60.1334997 142.0509988 136.2015688  59.7913804 141.4055482
 141.0760012  60.1304997 143.8449988 141.2540012  59.4844997 144.5279988
 141.0230012  60.9644997 144.3119988 141.0931999  60.1548009 144.0015917
 142.9550012  75.0794997 142.2409988 143.8210012  75.4454997 142.0629988
 142.7080012  74.6394997 141.4269988 143.0402392  75.0701756 142.1066289
 135.9080012  74.7894997 140.8689988 135.6410012  75.0764997 141.7419988
 136.6800012  74.2434997 141.0209988 135.9757488  74.7550294 141.0091050
  11.2140012  83.8374997 141.5919988  11.9150012  83.8594997 142.2429988
  11.5170012  83.2094997 140.9349988  11.3508133  83.7557070 141.5923369
  13.4370012  84.7514997 143.1899988  14.0170012  84.9014997 143.9369988
  13.8510012  85.2224997 142.4659988  13.5722997  84.8356578 143.1944058
  17.1360012  76.5014997 143.0029988  16.2360012  76.6404997 143.2979988
  17.3880012  77.3324997 142.6009988  17.0468702  76.6329074 142.9890205
  18.3250012  90.8674997 141.3789988  18.3990012  91.8064997 141.5499988
  19.2310012  90.5624997 141.3229988  18.4575100  90.9546722 141.3948119
  13.7380012  93.5984997 142.0419988  14.1130012  92.8544997 141.5709988
  13.7420012  93.3284997 142.9609988  13.7899125  93.4600986 142.1016483
  14.9150012  85.7844997 140.8199988  14.9570012  85.5614997 139.8899988
  15.7640012  86.1834997 141.0089988  15.0355280  85.8079438 140.7183554
  10.4870012  79.6604997 141.4899988  10.2340012  79.6794997 142.4129988
  10.2310012  78.7884997 141.1879988  10.4177481  79.5452558 141.5756175
   7.3700012  80.1054997 140.5909988   6.9390012  79.6604997 141.3209988
   6.6520012  80.4774997 140.0789988   7.2139438  80.0948940 140.6216799
   1.8860012  80.5934997 143.0669988   2.3600012  81.1844997 142.4819988
   1.1690012  81.1244997 143.4139988   1.8539341  80.7460867 143.0338836
   5.9880012  82.8834997 141.9729988   5.4450012  82.5034997 141.2819988
   6.8210012  83.0774997 141.5449988   6.0263631  82.8577125 141.8204501
   9.3230012  87.4484997 143.9089988   8.5780012  86.9414997 143.5869988
   9.1890012  87.4974997 144.8559988   9.2028776  87.3856940 143.9928647
  13.2210012  80.2624997 142.1079988  12.2820012  80.3744997 141.9569988
  13.5180012  81.1194997 142.4149988  13.1327583  80.3935981 142.1288337
  13.9390012  82.1294997 143.7689988  14.8310012  81.9924997 144.0879988
  13.9960012  82.9204997 143.2319988  14.0686504  82.2176052 143.7400818
  11.4490012  88.9074997 142.9349988  11.1530012  89.7334997 143.3159988
  10.7460012  88.2874997 143.1309988  11.3134914  88.9368199 143.0136443
  18.8240012  82.3394997 143.4639988  18.2700012  81.9434997 142.7919988
  18.9240012  83.2494997 143.1859988  18.7617059  82.4083586 143.3344401
  17.1190012  91.1254997 143.9289988  16.7460012  90.2994997 144.2379988
  17.3970012  90.9424997 143.0309988  17.1055222  90.9877430 143.8499473
   2.5780012  85.1234997 141.6699988   3.1940012  85.7504997 142.0499988
   1.7160012  85.4394997 141.9419988   2.5457698  85.2519430 141.7587183
  14.5120012  89.1014997 141.7489988  14.8650012  88.7214997 142.5529988
  13.5630012  89.0084997 141.8359988  14.4320918  89.0368956 141.8708532
  19.0150012  93.5814997 141.9499988  19.7590012  94.1674997 141.8099988
  18.3210012  94.1494997 142.2829988  19.0229899  93.7385798 141.9758778
  15.3780012  87.7744997 143.9759988  15.1000012  87.0464997 144.5319988
  16.3050012  87.8934997 144.1809988  15.4653124  87.6908802 144.0798845
   8.6030012  90.2134997 140.1959988   8.8420012  89.4654997 139.6489988
   8.3340012  89.8254997 141.0289988   8.5993675  90.0586638 140.2336865
   7.5400012  89.7834997 142.6519988   7.6860012  89.2634997 143.4419988
   7.5370012  90.6904997 142.9589988   7.5595792  89.8348842 142.8016117
   3.9930012  87.0364997 143.1629988   3.3070012  87.3884997 143.7299988
   4.5150012  87.7994997 142.9159988   3.9696852  87.1878578 143.2072118
  10.2770012  91.4814997 143.4019988   9.4610012  91.9784997 143.4539988
  10.8070012  91.9564997 142.7619988  10.2369161  91.6137722 143.3225956
   7.6160012  92.5254997 143.3829988   7.7760012  93.3244997 142.8829988
   7.4180012  92.8314997 144.2679988   7.6111637  92.6764020 143.4341144
   6.3500012  79.2224997 142.9989988   6.2670012  80.1114997 143.3459988
   7.2400012  78.9574997 143.2309988   6.4589469  79.3081430 143.0777626
   4.6090012  89.6504997 142.0599988   5.2010012  90.3494997 142.3359988
   5.0680012  89.2174997 141.3399988   4.7521142  89.6877049 142.0004830
   2.9250012  82.3144997 141.1759988   2.8800012  83.2534997 141.3539988
   2.0370012  82.0784997 140.9059988   2.7988574  82.4111892 141.1638912
  10.6410012  92.0764997 140.3349988   9.9970012  91.4454997 140.6559988
  11.4030012  91.5454997 140.1029988  10.6558077  91.9182920 140.3476011
  15.2450012  91.8934997 140.5679988  15.5280012  91.0994997 141.0209988
  15.9850012  92.1264997 140.0079988  15.3838006  91.8163376 140.5542715
   6.2000012  87.8034997 140.4259988   6.2640012  87.0094997 140.9569988
   6.8530012  87.6844997 139.7359988   6.2970241  87.6787148 140.4054317
  11.5520012  88.8504997 140.1619988  11.2830012  89.0304997 141.0629988
  11.3460012  87.9244997 140.0299988  11.4873427  88.7500261 140.2675073
   7.3490012  85.7754997 142.7319988   6.8890012  85.2914997 143.4179988
   7.6040012  85.1074997 142.0959988   7.3204902  85.6188731 142.7399334
   8.4200012  84.0184997 140.9939988   8.2400012  83.8644997 140.0669988
   9.3700012  84.1264997 141.0389988   8.5237776  84.0120175 140.8731843
  17.8100012  86.3734997 140.4399988  17.5360012  85.9484997 139.6269988
  17.8490012  87.3044997 140.2229988  17.7777699  86.4412484 140.2993610
   8.3170012  94.7094997 141.9949988   9.2500012  94.8674997 142.1389988
   8.0530012  95.3844997 141.3709988   8.4089888  94.8224510 141.9302842
   1.8860012  89.3454997 141.4779988   2.8000012  89.4244997 141.7519988
   1.8930012  88.6584997 140.8119988   2.0121131  89.2633961 141.4254393
  18.9310012  85.1964997 142.6299988  18.4090012  85.5534997 141.9109988
  18.8980012  85.8714997 143.3079988  18.8551634  85.3365413 142.6233145
  17.2800012  82.4364997 141.1799988  17.3760012  83.1034997 140.4999988
  17.1400012  81.6204997 140.6989988  17.2742272  82.4175655 141.0218347
  16.5270012  79.8444997 140.2979988  17.1380012  79.4734997 140.9349988
  15.6910012  79.4234997 140.4939988  16.4975032  79.7367554 140.4117035
  18.6400012  78.7294997 141.8399988  19.0520012  78.0084997 141.3649988
  19.3220012  79.3994997 141.8989988  18.7885885  78.7212368 141.7828915
   2.1970012  76.7774997 142.9459988   2.6360012  77.3884997 142.3539988
   1.5640012  77.3154997 143.4199988   2.1714514  76.9339257 142.9290930
   2.0980012  92.7254997 143.8429988   1.4130012  92.6874997 143.1759988
   2.1020012  93.6384997 144.1319988   2.0046998  92.8436733 143.7906771
   4.0580012  78.6934997 141.3879988   4.5500012  78.0634997 140.8609988
   4.6820012  78.9894997 142.0509988   4.2095688  78.6473804 141.4055482
   9.0840012  78.9864997 143.8449988   9.2620012  78.3404997 144.5279988
   9.0310012  79.8204997 144.3119988   9.1011999  79.0108009 144.0015917
  10.9630012  93.9354997 142.2409988  11.8290012  94.3014997 142.0629988
  10.7160012  93.4954997 141.4269988  11.0482392  93.9261756 142.1066289
   3.9160012  93.6454997 140.8689988   3.6490012  93.9324997 141.7419988
   4.6880012  93.0994997 141.0209988   3.9837488  93.6110294 141.0091050
  30.0700012  83.8374997 141.5919988  30.7710012  83.8594997 142.2429988
  30.3730012  83.2094997 140.9349988  30.2068133  83.7557070 141.5923369
  32.2930012  84.7514997 143.1899988  32.8730012  84.9014997 143.9369988
  32.7070012  85.2224997 142.4659988  32.4282997  84.8356578 143.1944058
  35.9920012  76.5014997 143.0029988  35.0920012  76.6404997 143.2979988
  36.2440012  77.3324997 142.6009988  35.9028702  76.6329074 142.9890205
  37.1810012  90.8674997 141.3789988  37.2550012  91.8064997 141.5499988
  38.0870012  90.5624997 141.3229988  37.3135100  90.9546722 141.3948119
  32.5940012  93.5984997 142.0419988  32.9690012  92.8544997 141.5709988
  32.5980012  93.3284997 142.9609988  32.6459125  93.4600986 142.1016483
  33.7710012  85.7844997 140.8199988  33.8130012  85.5614997 139.8899988
  34.6200012  86.1834997 141.0089988  33.8915280  85.8079438 140.7183554
  29.3430012  79.6604997 141.4899988  29.0900012  79.6794997 142.4129988
  29.0870012  78.7884997 141.1879988  29.2737481  79.5452558 141.5756175
  26.2260012  80.1054997 140.5909988  25.7950012  79.6604997 141.3209988
  25.5080012  80.4774997 140.0789988  26.0699438  80.0948940 140.6216799
  20.7420012  80.5934997 143.0669988  21.2160012  81.1844997 142.4819988
  20.0250012  81.1244997 143.4139988  20.7099341  80.7460867 143.0338836
  24.8440012  82.8834997 141.9729988  24.3010012  82.5034997 141.2819988
  25.6770012  83.0774997 141.5449988  24.8823631  82.8577125 141.8204501
  28.1790012  87.4484997 143.9089988  27.4340012  86.9414997 143.5869988
  28.0450012  87.4974997 144.8559988  28.0588776  87.3856940 143.9928647
  32.0770012  80.2624997 142.1079988  31.1380012  80.3744997 141.9569988
  32.3740012  81.1194997 142.4149988  31.9887583  80.3935981 142.1288337
  32.7950012  82.1294997 143.7689988  33.6870012  81.9924997 144.0879988
  32.8520012  82.9204997 143.2319988  32.9246504  82.2176052 143.7400818
  30.3050012  88.9074997 142.9349988  30.0090012  89.7334997 143.3159988
  29.6020012  88.2874997 143.1309988  30.1694914  88.9368199 143.0136443
  37.6800012  82.3394997 143.4639988  37.1260012  81.9434997 142.7919988
  37.7800012  83.2494997 143.1859988  37.6177059  82.4083586 143.3344401
  35.9750012  91.1254997 143.9289988  35.6020012  90.2994997 144.2379988
  36.2530012  90.9424997 143.0309988  35.9615222  90.9877430 143.8499473
  21.4340012  85.1234997 141.6699988  22.0500012  85.7504997 142.0499988
  20.5720012  85.4394997 141.9419988  21.4017698  85.2519430 141.7587183
  33.3680012  89.1014997 141.7489988  33.7210012  88.7214997 142.5529988
  32.4190012  89.0084997 141.8359988  33.2880918  89.0368956 141.8708532
  37.8710012  93.5814997 141.9499988  38.6150012  94.1674997 141.8099988
  37.1770012  94.1494997 142.2829988  37.8789899  93.7385798 141.9758778
  34.2340012  87.7744997 143.9759988  33.9560012  87.0464997 144.5319988
  35.1610012  87.8934997 144.1809988  34.3213124  87.6908802 144.0798845
  27.4590012  90.2134997 140.1959988  27.6980012  89.4654997 139.6489988
  27.1900012  89.8254997 141.0289988  27.4553675  90.0586638 140.2336865
  26.3960012  89.7834997 142.6519988  26.5420012  89.2634997 143.4419988
  26.3930012  90.6904997 142.9589988  26.4155792  89.8348842 142.8016117
  22.8490012  87.0364997 143.1629988  22.1630012  87.3884997 143.7299988
  23.3710012  87.7994997 142.9159988  22.8256852  87.1878578 143.2072118
  29.1330012  91.4814997 143.4019988  28.3170012  91.9784997 143.4539988
  29.6630012  91.9564997 142.7619988  29.0929161  91.6137722 143.3225956
  26.4720012  92.5254997 143.3829988  26.6320012  93.3244997 142.8829988
  26.2740012  92.8314997 144.2679988  26.4671637  92.6764020 143.4341144
  25.2060012  79.2224997 142.9989988  25.1230012  80.1114997 143.3459988
  26.0960012  78.9574997 143.2309988  25.3149469  79.3081430 143.0777626
  23.4650012  89.6504997 142.0599988  24.0570012  90.3494997 142.3359988
  23.9240012  89.2174997 141.3399988  23.6081142  89.6877049 142.0004830
  21.7810012  82.3144997 141.1759988  21.7360012  83.2534997 141.3539988
  20.8930012  82.0784997 140.9059988  21.6548574  82.4111892 141.1638912
  29.4970012  92.0764997 140.3349988  28.8530012  91.4454997 140.6559988
  30.2590012  91.5454997 140.1029988  29.5118077  91.9182920 140.3476011
  34.1010012  91.8934997 140.5679988  34.3840012  91.0994997 141.0209988
  34.8410012  92.1264997 140.0079988  34.2398006  91.8163376 140.5542715
  25.0560012  87.8034997 140.4259988  25.1200012  87.0094997 140.9569988
  25.7090012  87.6844997 139.7359988  25.1530241  87.6787148 140.4054317
  30.4080012  88.8504997 140.1619988  30.1390012  89.0304997 141.0629988
  30.2020012  87.9244997 140.0299988  30.3433427  88.7500261 140.2675073
  26.2050012  85.7754997 142.7319988  25.7450012  85.2914997 143.4179988
  26.4600012  85.1074997 142.0959988  26.1764902  85.6188731 142.7399334
  27.2760012  84.0184997 140.9939988  27.0960012  83.8644997 140.0669988
  28.2260012  84.1264997 141.0389988  27.3797776  84.0120175 140.8731843
  36.6660012  86.3734997 140.4399988  36.3920012  85.9484997 139.6269988
  36.7050012  87.3044997 140.2229988  36.6337699  86.4412484 140.2993610
  27.1730012  94.7094997 141.9949988  28.1060012  94.8674997 142.1389988
  26.9090012  95.3844997 141.3709988  27.2649888  94.8224510 141.9302842
  20.7420012  89.3454997 141.4779988  21.6560012  89.4244997 141.7519988
  20.7490012  88.6584997 140.8119988  20.8681131  89.2633961 141.4254393
  37.7870012  85.1964997 142.6299988  37.2650012  85.5534997 141.9109988
  37.7540012  85.8714997 143.3079988  37.7111634  85.3365413 142.6233145
  36.1360012  82.4364997 141.1799988  36.2320012  83.1034997 140.4999988
  35.9960012  81.6204997 140.6989988  36.1302272  82.4175655 141.0218347
  35.3830012  79.8444997 140.2979988  35.9940012  79.4734997 140.9349988
  34.5470012  79.4234997 140.4939988  35.3535032  79.7367554 140.4117035
  37.4960012  78.7294997 141.8399988  37.9080012  78.0084997 141.3649988
  38.1780012  79.3994997 141.8989988  37.6445885  78.7212368 141.7828915
  21.0530012  76.7774997 142.9459988  21.4920012  77.3884997 142.3539988
  20.4200012  77.3154997 143.4199988  21.0274514  76.9339257 142.9290930
  20.9540012  92.7254997 143.8429988  20.2690012  92.6874997 143.1759988
  20.9580012  93.6384997 144.1319988  20.8606998  92.8436733 143.7906771
  22.9140012  78.6934997 141.3879988  23.4060012  78.0634997 140.8609988
  23.5380012  78.9894997 142.0509988  23.0655688  78.6473804 141.4055482
  27.9400012  78.9864997 143.8449988  28.1180012  78.3404997 144.5279988
  27.8870012  79.8204997 144.3119988  27.9571999  79.0108009 144.0015917
  29.8190012  93.9354997 142.2409988  30.6850012  94.3014997 142.0629988
  29.5720012  93.4954997 141.4269988  29.9042392  93.9261756 142.1066289
  22.7720012  93.6454997 140.8689988  22.5050012  93.9324997 141.7419988
  23.5440012  93.0994997 141.0209988  22.8397488  93.6110294 141.0091050
  48.9260012  83.8374997 141.5919988  49.6270012  83.8594997 142.2429988
  49.2290012  83.2094997 140.9349988  49.0628133  83.7557070 141.5923369
  51.1490012  84.7514997 143.1899988  51.7290012  84.9014997 143.9369988
  51.5630012  85.2224997 142.4659988  51.2842997  84.8356578 143.1944058
  54.8480012  76.5014997 143.0029988  53.9480012  76.6404997 143.2979988
  55.1000012  77.3324997 142.6009988  54.7588702  76.6329074 142.9890205
  56.0370012  90.8674997 141.3789988  56.1110012  91.8064997 141.5499988
  56.9430012  90.5624997 141.3229988  56.1695100  90.9546722 141.3948119
  51.4500012  93.5984997 142.0419988  51.8250012  92.8544997 141.5709988
  51.4540012  93.3284997 142.9609988  51.5019125  93.4600986 142.1016483
  52.6270012  85.7844997 140.8199988  52.6690012  85.5614997 139.8899988
  53.4760012  86.1834997 141.0089988  52.7475280  85.8079438 140.7183554
  48.1990012  79.6604997 141.4899988  47.9460012  79.6794997 142.4129988
  47.9430012  78.7884997 141.1879988  48.1297481  79.5452558 141.5756175
  45.0820012  80.1054997 140.5909988  44.6510012  79.6604997 141.3209988
  44.3640012  80.4774997 140.0789988  44.9259438  80.0948940 140.6216799
  39.5980012  80.5934997 143.0669988  40.0720012  81.1844997 142.4819988
  38.8810012  81.1244997 143.4139988  39.5659341  80.7460867 143.0338836
  43.7000012  82.8834997 141.9729988  43.1570012  82.5034997 141.2819988
  44.5330012  83.0774997 141.5449988  43.7383631  82.8577125 141.8204501
  47.0350012  87.4484997 143.9089988  46.2900012  86.9414997 143.5869988
  46.9010012  87.4974997 144.8559988  46.9148776  87.3856940 143.9928647
  50.9330012  80.2624997 142.1079988  49.9940012  80.3744997 141.9569988
  51.2300012  81.1194997 142.4149988  50.8447583  80.3935981 142.1288337
  51.6510012  82.1294997 143.7689988  52.5430012  81.9924997 144.0879988
  51.7080012  82.9204997 143.2319988  51.7806504  82.2176052 143.7400818
  49.1610012  88.9074997 142.9349988  48.8650012  89.7334997 143.3159988
  48.4580012  88.2874997 143.1309988  49.0254914  88.9368199 143.0136443
  56.5360012  82.3394997 143.4639988  55.9820012  81.9434997 142.7919988
  56.6360012  83.2494997 143.1859988  56.4737059  82.4083586 143.3344401
  54.8310012  91.1254997 143.9289988  54.4580012  90.2994997 144.2379988
  55.1090012  90.9424997 143.0309988  54.8175222  90.9877430 143.8499473
  40.2900012  85.1234997 141.6699988  40.9060012  85.7504997 142.0499988
  39.4280012  85.4394997 141.9419988  40.2577698  85.2519430 141.7587183
  52.2240012  89.1014997 141.7489988  52.5770012  88.7214997 142.5529988
  51.2750012  89.0084997 141.8359988  52.1440918  89.0368956 141.8708532
  56.7270012  93.5814997 141.9499988  57.4710012  94.1674997 141.8099988
  56.0330012  94.1494997 142.2829988  56.7349899  93.7385798 141.9758778
  53.0900012  87.7744997 143.9759988  52.8120012  87.0464997 144.5319988
  54.0170012  87.8934997 144.1809988  53.1773124  87.6908802 144.0798845
  46.3150012  90.2134997 140.1959988  46.5540012  89.4654997 139.6489988
  46.0460012  89.8254997 141.0289988  46.3113675  90.0586638 140.2336865
  45.2520012  89.7834997 142.6519988  45.3980012  89.2634997 143.4419988
  45.2490012  90.6904997 142.9589988  45.2715792  89.8348842 142.8016117
  41.7050012  87.0364997 143.1629988  41.0190012  87.3884997 143.7299988
  42.2270012  87.7994997 142.9159988  41.6816852  87.1878578 143.2072118
  47.9890012  91.4814997 143.4019988  47.1730012  91.9784997 143.4539988
  48.5190012  91.9564997 142.7619988  47.9489161  91.6137722 143.3225956
  45.3280012  92.5254997 143.3829988  45.4880012  93.3244997 142.8829988
  45.1300012  92.8314997 144.2679988  45.3231637  92.6764020 143.4341144
  44.0620012  79.2224997 142.9989988  43.9790012  80.1114997 143.3459988
  44.9520012  78.9574997 143.2309988  44.1709469  79.3081430 143.0777626
  42.3210012  89.6504997 142.0599988  42.9130012  90.3494997 142.3359988
  42.7800012  89.2174997 141.3399988  42.4641142  89.6877049 142.0004830
  40.6370012  82.3144997 141.1759988  40.5920012  83.2534997 141.3539988
  39.7490012  82.0784997 140.9059988  40.5108574  82.4111892 141.1638912
  48.3530012  92.0764997 140.3349988  47.7090012  91.4454997 140.6559988
  49.1150012  91.5454997 140.1029988  48.3678077  91.9182920 140.3476011
  52.9570012  91.8934997 140.5679988  53.2400012  91.0994997 141.0209988
  53.6970012  92.1264997 140.0079988  53.0958006  91.8163376 140.5542715
  43.9120012  87.8034997 140.4259988  43.9760012  87.0094997 140.9569988
  44.5650012  87.6844997 139.7359988  44.0090241  87.6787148 140.4054317
  49.2640012  88.8504997 140.1619988  48.9950012  89.0304997 141.0629988
  49.0580012  87.9244997 140.0299988  49.1993427  88.7500261 140.2675073
  45.0610012  85.7754997 142.7319988  44.6010012  85.2914997 143.4179988
  45.3160012  85.1074997 142.0959988  45.0324902  85.6188731 142.7399334
  46.1320012  84.0184997 140.9939988  45.9520012  83.8644997 140.0669988
  47.0820012  84.1264997 141.0389988  46.2357776  84.0120175 140.8731843
  55.5220012  86.3734997 140.4399988  55.2480012  85.9484997 139.6269988
  55.5610012  87.3044997 140.2229988  55.4897699  86.4412484 140.2993610
  46.0290012  94.7094997 141.9949988  46.9620012  94.8674997 142.1389988
  45.7650012  95.3844997 141.3709988  46.1209888  94.8224510 141.9302842
  39.5980012  89.3454997 141.4779988  40.5120012  89.4244997 141.7519988
  39.6050012  88.6584997 140.8119988  39.7241131  89.2633961 141.4254393
  56.6430012  85.1964997 142.6299988  56.1210012  85.5534997 141.9109988
  56.6100012  85.8714997 143.3079988  56.5671634  85.3365413 142.6233145
  54.9920012  82.4364997 141.1799988  55.0880012  83.1034997 140.4999988
  54.8520012  81.6204997 140.6989988  54.9862272  82.4175655 141.0218347
  54.2390012  79.8444997 140.2979988  54.8500012  79.4734997 140.9349988
  53.4030012  79.4234997 140.4939988  54.2095032  79.7367554 140.4117035
  56.3520012  78.7294997 141.8399988  56.7640012  78.0084997 141.3649988
  57.0340012  79.3994997 141.8989988  56.5005885  78.7212368 141.7828915
  39.9090012  76.7774997 142.9459988  40.3480012  77.3884997 142.3539988
  39.2760012  77.3154997 143.4199988  39.8834514  76.9339257 142.9290930
  39.8100012  92.7254997 143.8429988  39.1250012  92.6874997 143.1759988
  39.8140012  93.6384997 144.1319988  39.7166998  92.8436733 143.7906771
  41.7700012  78.6934997 141.3879988  42.2620012  78.0634997 140.8609988
  42.3940012  78.9894997 142.0509988  41.9215688  78.6473804 141.4055482
  46.7960012  78.9864997 143.8449988  46.9740012  78.3404997 144.5279988
  46.7430012  79.8204997 144.3119988  46.8131999  79.0108009 144.0015917
  48.6750012  93.9354997 142.2409988  49.5410012  94.3014997 142.0629988
  48.4280012  93.4954997 141.4269988  48.7602392  93.9261756 142.1066289
  41.6280012  93.6454997 140.8689988  41.3610012  93.9324997 141.7419988
  42.4000012  93.0994997 141.0209988  41.6957488  93.6110294 141.0091050
  67.7820012  83.8374997 141.5919988  68.4830012  83.8594997 142.2429988
  68.0850012  83.2094997 140.9349988  67.9188133  83.7557070 141.5923369
  70.0050012  84.7514997 143.1899988  70.5850012  84.9014997 143.9369988
  70.4190012  85.2224997 142.4659988  70.1402997  84.8356578 143.1944058
  73.7040012  76.5014997 143.0029988  72.8040012  76.6404997 143.2979988
  73.9560012  77.3324997 142.6009988  73.6148702  76.6329074 142.9890205
  74.8930012  90.8674997 141.3789988  74.9670012  91.8064997 141.5499988
  75.7990012  90.5624997 141.3229988  75.0255100  90.9546722 141.3948119
  70.3060012  93.5984997 142.0419988  70.6810012  92.8544997 141.5709988
  70.3100012  93.3284997 142.9609988  70.3579125  93.4600986 142.1016483
  71.4830012  85.7844997 140.8199988  71.5250012  85.5614997 139.8899988
  72.3320012  86.1834997 141.0089988  71.6035280  85.8079438 140.7183554
  67.0550012  79.6604997 141.4899988  66.8020012  79.6794997 142.4129988
  66.7990012  78.7884997 141.1879988  66.9857481  79.5452558 141.5756175
  63.9380012  80.1054997 140.5909988  63.5070012  79.6604997 141.3209988
  63.2200012  80.4774997 140.0789988  63.7819438  80.0948940 140.6216799
  58.4540012  80.5934997 143.0669988  58.9280012  81.1844997 142.4819988
  57.7370012  81.1244997 143.4139988  58.4219341  80.7460867 143.0338836
  62.5560012  82.8834997 141.9729988  62.0130012  82.5034997 141.2819988
  63.3890012  83.0774997 141.5449988  62.5943631  82.8577125 141.8204501
  65.8910012  87.4484997 143.9089988  65.1460012  86.9414997 143.5869988
  65.7570012  87.4974997 144.8559988  65.7708776  87.3856940 143.9928647
  69.7890012  80.2624997 142.1079988  68.8500012  80.3744997 141.9569988
  70.0860012  81.1194997 142.4149988  69.7007583  80.3935981 142.1288337
  70.5070012  82.1294997 143.7689988  71.3990012  81.9924997 144.0879988
  70.5640012  82.9204997 143.2319988  70.6366504  82.2176052 143.7400818
  68.0170012  88.9074997 142.9349988  67.7210012  89.7334997 143.3159988
  67.3140012  88.2874997 143.1309988  67.8814914  88.9368199 143.0136443
  75.3920012  82.3394997 143.4639988  74.8380012  81.9434997 142.7919988
  75.4920012  83.2494997 143.1859988  75.3297059  82.4083586 143.3344401
  73.6870012  91.1254997 143.9289988  73.3140012  90.2994997 144.2379988
  73.9650012  90.9424997 143.0309988  73.6735222  90.9877430 143.8499473
  59.1460012  85.1234997 141.6699988  59.7620012  85.7504997 142.0499988
  58.2840012  85.4394997 141.9419988  59.1137698  85.2519430 141.7587183
  71.0800012  89.1014997 141.7489988  71.4330012  88.7214997 142.5529988
  70.1310012  89.0084997 141.8359988  71.0000918  89.0368956 141.8708532
  75.5830012  93.5814997 141.9499988  76.3270012  94.1674997 141.8099988
  74.8890012  94.1494997 142.2829988  75.5909899  93.7385798 141.9758778
  71.9460012  87.7744997 143.9759988  71.6680012  87.0464997 144.5319988
  72.8730012  87.8934997 144.1809988  72.0333124  87.6908802 144.0798845
  65.1710012  90.2134997 140.1959988  65.4100012  89.4654997 139.6489988
  64.9020012  89.8254997 141.0289988  65.1673675  90.0586638 140.2336865
  64.1080012  89.7834997 142.6519988  64.2540012  89.2634997 143.4419988
  64.1050012  90.6904997 142.9589988  64.1275792  89.8348842 142.8016117
  60.5610012  87.0364997 143.1629988  59.8750012  87.3884997 143.7299988
  61.0830012  87.7994997 142.9159988  60.5376852  87.1878578 143.2072118
  66.8450012  91.4814997 143.4019988  66.0290012  91.9784997 143.4539988
  67.3750012  91.9564997 142.7619988  66.8049161  91.6137722 143.3225956
  64.1840012  92.5254997 143.3829988  64.3440012  93.3244997 142.8829988
  63.9860012  92.8314997 144.2679988  64.1791637  92.6764020 143.4341144
  62.9180012  79.2224997 142.9989988  62.8350012  80.1114997 143.3459988
  63.8080012  78.9574997 143.2309988  63.0269469  79.3081430 143.0777626
  61.1770012  89.6504997 142.0599988  61.7690012  90.3494997 142.3359988
  61.6360012  89.2174997 141.3399988  61.3201142  89.6877049 142.0004830
  59.4930012  82.3144997 141.1759988  59.4480012  83.2534997 141.3539988
  58.6050012  82.0784997 140.9059988  59.3668574  82.4111892 141.1638912
  67.2090012  92.0764997 140.3349988  66.5650012  91.4454997 140.6559988
  67.9710012  91.5454997 140.1029988  67.2238077  91.9182920 140.3476011
  71.8130012  91.8934997 140.5679988  72.0960012  91.0994997 141.0209988
  72.5530012  92.1264997 140.0079988  71.9518006  91.8163376 140.5542715
  62.7680012  87.8034997 140.4259988  62.8320012  87.0094997 140.9569988
  63.4210012  87.6844997 139.7359988  62.8650241  87.6787148 140.4054317
  68.1200012  88.8504997 140.1619988  67.8510012  89.0304997 141.0629988
  67.9140012  87.9244997 140.0299988  68.0553427  88.7500261 140.2675073
  63.9170012  85.7754997 142.7319988  63.4570012  85.2914997 143.4179988
  64.1720012  85.1074997 142.0959988  63.8884902  85.6188731 142.7399334
  64.9880012  84.0184997 140.9939988  64.8080012  83.8644997 140.0669988
  65.9380012  84.1264997 141.0389988  65.0917776  84.0120175 140.8731843
  74.3780012  86.3734997 140.4399988  74.1040012  85.9484997 139.6269988
  74.4170012  87.3044997 140.2229988  74.3457699  86.4412484 140.2993610
  64.8850012  94.7094997 141.9949988  65.8180012  94.8674997 142.1389988
  64.6210012  95.3844997 141.3709988  64.9769888  94.8224510 141.9302842
  58.4540012  89.3454997 141.4779988  59.3680012  89.4244997 141.7519988
  58.4610012  88.6584997 140.8119988  58.5801131  89.2633961 141.4254393
  75.4990012  85.1964997 142.6299988  74.9770012  85.5534997 141.9109988
  75.4660012  85.8714997 143.3079988  75.4231634  85.3365413 142.6233145
  73.8480012  82.4364997 141.1799988  73.9440012  83.1034997 140.4999988
  73.7080012  81.6204997 140.6989988  73.8422272  82.4175655 141.0218347
  73.0950012  79.8444997 140.2979988  73.7060012  79.4734997 140.9349988
  72.2590012  79.4234997 140.4939988  73.0655032  79.7367554 140.4117035
  75.2080012  78.7294997 141.8399988  75.6200012  78.0084997 141.3649988
  75.8900012  79.3994997 141.8989988  75.3565885  78.7212368 141.7828915
  58.7650012  76.7774997 142.9459988  59.2040012  77.3884997 142.3539988
  58.1320012  77.3154997 143.4199988  58.7394514  76.9339257 142.9290930
  58.6660012  92.7254997 143.8429988  57.9810012  92.6874997 143.1759988
  58.6700012  93.6384997 144.1319988  58.5726998  92.8436733 143.7906771
  60.6260012  78.6934997 141.3879988  61.1180012  78.0634997 140.8609988
  61.2500012  78.9894997 142.0509988  60.7775688  78.6473804 141.4055482
  65.6520012  78.9864997 143.8449988  65.8300012  78.3404997 144.5279988
  65.5990012  79.8204997 144.3119988  65.6691999  79.0108009 144.0015917
  67.5310012  93.9354997 142.2409988  68.3970012  94.3014997 142.0629988
  67.2840012  93.4954997 141.4269988  67.6162392  93.9261756 142.1066289
  60.4840012  93.6454997 140.8689988  60.2170012  93.9324997 141.7419988
  61.2560012  93.0994997 141.0209988  60.5517488  93.6110294 141.0091050
  86.6380012  83.8374997 141.5919988  87.3390012  83.8594997 142.2429988
  86.9410012  83.2094997 140.9349988  86.7748133  83.7557070 141.5923369
  88.8610012  84.7514997 143.1899988  89.4410012  84.9014997 143.9369988
  89.2750012  85.2224997 142.4659988  88.9962997  84.8356578 143.1944058
  92.5600012  76.5014997 143.0029988  91.6600012  76.6404997 143.2979988
  92.8120012  77.3324997 142.6009988  92.4708702  76.6329074 142.9890205
  93.7490012  90.8674997 141.3789988  93.8230012  91.8064997 141.5499988
  94.6550012  90.5624997 141.3229988  93.8815100  90.9546722 141.3948119
  89.1620012  93.5984997 142.0419988  89.5370012  92.8544997 141.5709988
  89.1660012  93.3284997 142.9609988  89.2139125  93.4600986 142.1016483
  90.3390012  85.7844997 140.8199988  90.3810012  85.5614997 139.8899988
  91.1880012  86.1834997 141.0089988  90.4595280  85.8079438 140.7183554
  85.9110012  79.6604997 141.4899988  85.6580012  79.6794997 142.4129988
  85.6550012  78.7884997 141.1879988  85.8417481  79.5452558 141.5756175
  82.7940012  80.1054997 140.5909988  82.3630012  79.6604997 141.3209988
  82.0760012  80.4774997 140.0789988  82.6379438  80.0948940 140.6216799
  77.3100012  80.5934997 143.0669988  77.7840012  81.1844997 142.4819988
  76.5930012  81.1244997 143.4139988  77.2779341  80.7460867 143.0338836
  81.4120012  82.8834997 141.9729988  80.8690012  82.5034997 141.2819988
  82.2450012  83.0774997 141.5449988  81.4503631  82.8577125 141.8204501
  84.7470012  87.4484997 143.9089988  84.0020012  86.9414997 143.5869988
  84.6130012  87.4974997 144.8559988  84.6268776  87.3856940 143.9928647
  88.6450012  80.2624997 142.1079988  87.7060012  80.3744997 141.9569988
  88.9420012  81.1194997 142.4149988  88.5567583  80.3935981 142.1288337
  89.3630012  82.1294997 143.7689988  90.2550012  81.9924997 144.0879988
  89.4200012  82.9204997 143.2319988  89.4926504  82.2176052 143.7400818
  86.8730012  88.9074997 142.9349988  86.5770012  89.7334997 143.3159988
  86.1700012  88.2874997 143.1309988  86.7374914  88.9368199 143.0136443
  94.2480012  82.3394997 143.4639988  93.6940012  81.9434997 142.7919988
  94.3480012  83.2494997 143.1859988  94.1857059  82.4083586 143.3344401
  92.5430012  91.1254997 143.9289988  92.1700012  90.2994997 144.2379988
  92.8210012  90.9424997 143.0309988  92.5295222  90.9877430 143.8499473
  78.0020012  85.1234997 141.6699988  78.6180012  85.7504997 142.0499988
  77.1400012  85.4394997 141.9419988  77.9697698  85.2519430 141.7587183
  89.9360012  89.1014997 141.7489988  90.2890012  88.7214997 142.5529988
  88.9870012  89.0084997 141.8359988  89.8560918  89.0368956 141.8708532
  94.4390012  93.5814997 141.9499988  95.1830012  94.1674997 141.8099988
  93.7450012  94.1494997 142.2829988  94.4469899  93.7385798 141.9758778
  90.8020012  87.7744997 143.9759988  90.5240012  87.0464997 144.5319988
  91.7290012  87.8934997 144.1809988  90.8893124  87.6908802 144.0798845
  84.0270012  90.2134997 140.1959988  84.2660012  89.4654997 139.6489988
  83.7580012  89.8254997 141.0289988  84.0233675  90.0586638 140.2336865
  82.9640012  89.7834997 142.6519988  83.1100012  89.2634997 143.4419988
  82.9610012  90.6904997 142.9589988  82.9835792  89.8348842 142.8016117
  79.4170012  87.0364997 143.1629988  78.7310012  87.3884997 143.7299988
  79.9390012  87.7994997 142.9159988  79.3936852  87.1878578 143.2072118
  85.7010012  91.4814997 143.4019988  84.8850012  91.9784997 143.4539988
  86.2310012  91.9564997 142.7619988  85.6609161  91.6137722 143.3225956
  83.0400012  92.5254997 143.3829988  83.2000012  93.3244997 142.8829988
  82.8420012  92.8314997 144.2679988  83.0351637  92.6764020 143.4341144
  81.7740012  79.2224997 142.9989988  81.6910012  80.1114997 143.3459988
  82.6640012  78.9574997 143.2309988  81.8829469  79.3081430 143.0777626
  80.0330012  89.6504997 142.0599988  80.6250012  90.3494997 142.3359988
  80.4920012  89.2174997 141.3399988  80.1761142  89.6877049 142.0004830
  78.3490012  82.3144997 141.1759988  78.3040012  83.2534997 141.3539988
  77.4610012  82.0784997 140.9059988  78.2228574  82.4111892 141.1638912
  86.0650012  92.0764997 140.3349988  85.4210012  91.4454997 140.6559988
  86.8270012  91.5454997 140.1029988  86.0798077  91.9182920 140.3476011
  90.6690012  91.8934997 140.5679988  90.9520012  91.0994997 141.0209988
  91.4090012  92.1264997 140.0079988  90.8078006  91.8163376 140.5542715
  81.6240012  87.8034997 140.4259988  81.6880012  87.0094997 140.9569988
  82.2770012  87.6844997 139.7359988  81.7210241  87.6787148 140.4054317
  86.9760012  88.8504997 140.1619988  86.7070012  89.0304997 141.0629988
  86.7700012  87.9244997 140.0299988  86.9113427  88.7500261 140.2675073
  82.7730012  85.7754997 142.7319988  82.3130012  85.2914997 143.4179988
  83.0280012  85.1074997 142.0959988  82.7444902  85.6188731 142.7399334
  83.8440012  84.0184997 140.9939988  83.6640012  83.8644997 140.0669988
  84.7940012  84.1264997 141.0389988  83.9477776  84.0120175 140.8731843
  93.2340012  86.3734997 140.4399988  92.9600012  85.9484997 139.6269988
  93.2730012  87.3044997 140.2229988  93.2017699  86.4412484 140.2993610
  83.7410012  94.7094997 141.9949988  84.6740012  94.8674997 142.1389988
  83.4770012  95.3844997 141.3709988  83.8329888  94.8224510 141.9302842
  77.3100012  89.3454997 141.4779988  78.2240012  89.4244997 141.7519988
  77.3170012  88.6584997 140.8119988  77.4361131  89.2633961 141.4254393
  94.3550012  85.1964997 142.6299988  93.8330012  85.5534997 141.9109988
  94.3220012  85.8714997 143.3079988  94.2791634  85.3365413 142.6233145
  92.7040012  82.4364997 141.1799988  92.8000012  83.1034997 140.4999988
  92.5640012  81.6204997 140.6989988  92.6982272  82.4175655 141.0218347
  91.9510012  79.8444997 140.2979988  92.5620012  79.4734997 140.9349988
  91.1150012  79.4234997 140.4939988  91.9215032  79.7367554 140.4117035
  94.0640012  78.7294997 141.8399988  94.4760012  78.0084997 141.3649988
  94.7460012  79.3994997 141.8989988  94.2125885  78.7212368 141.7828915
  77.6210012  76.7774997 142.9459988  78.0600012  77.3884997 142.3539988
  76.9880012  77.3154997 143.4199988  77.5954514  76.9339257 142.9290930
  77.5220012  92.7254997 143.8429988  76.8370012  92.6874997 143.1759988
  77.5260012  93.6384997 144.1319988  77.4286998  92.8436733 143.7906771
  79.4820012  78.6934997 141.3879988  79.9740012  78.0634997 140.8609988
  80.1060012  78.9894997 142.0509988  79.6335688  78.6473804 141.4055482
  84.5080012  78.9864997 143.8449988  84.6860012  78.3404997 144.5279988
  84.4550012  79.8204997 144.3119988  84.5251999  79.0108009 144.0015917
  86.3870012  93.9354997 142.2409988  87.2530012  94.3014997 142.0629988
  86.1400012  93.4954997 141.4269988  86.4722392  93.9261756 142.1066289
  79.3400012  93.6454997 140.8689988  79.0730012  93.9324997 141.7419988
  80.1120012  93.0994997 141.0209988  79.4077488  93.6110294 141.0091050
 105.4940012  83.8374997 141.5919988 106.1950012  83.8594997 142.2429988
 105.7970012  83.2094997 140.9349988 105.6308133  83.7557070 141.5923369
 107.7170012  84.7514997 143.1899988 108.2970012  84.9014997 143.9369988
 108.1310012  85.2224997 142.4659988 107.8522997  84.8356578 143.1944058
 111.4160012  76.5014997 143.0029988 110.5160012  76.6404997 143.2979988
 111.6680012  77.3324997 142.6009988 111.3268702  76.6329074 142.9890205
 112.6050012  90.8674997 141.3789988 112.6790012  91.8064997 141.5499988
 113.5110012  90.5624997 141.3229988 112.7375100  90.9546722 141.3948119
 108.0180012  93.5984997 142.0419988 108.3930012  92.8544997 141.5709988
 108.0220012  93.3284997 142.9609988 108.0699125  93.4600986 142.1016483
 109.1950012  85.7844997 140.8199988 109.2370012  85.5614997 139.8899988
 110.0440012  86.1834997 141.0089988 109.3155280  85.8079438 140.7183554
 104.7670012  79.6604997 141.4899988 104.5140012  79.6794997 142.4129988
 104.5110012  78.7884997 141.1879988 104.6977481  79.5452558 141.5756175
 101.6500012  80.1054997 140.5909988 101.2190012  79.6604997 141.3209988
 100.9320012  80.4774997 140.0789988 101.4939438  80.0948940 140.6216799
  96.1660012  80.5934997 143.0669988  96.6400012  81.1844997 142.4819988
  95.4490012  81.1244997 143.4139988  96.1339341  80.7460867 143.0338836
 100.2680012  82.8834997 141.9729988  99.7250012  82.5034997 141.2819988
 101.1010012  83.0774997 141.5449988 100.3063631  82.8577125 141.8204501
 103.6030012  87.4484997 143.9089988 102.8580012  86.9414997 143.5869988
 103.4690012  87.4974997 144.8559988 103.4828776  87.3856940 143.9928647
 107.5010012  80.2624997 142.1079988 106.5620012  80.3744997 141.9569988
 107.7980012  81.1194997 142.4149988 107.4127583  80.3935981 142.1288337
 108.2190012  82.1294997 143.7689988 109.1110012  81.9924997 144.0879988
 108.2760012  82.9204997 143.2319988 108.3486504  82.2176052 143.7400818
 105.7290012  88.9074997 142.9349988 105.4330012  89.7334997 143.3159988
 105.0260012  88.2874997 143.1309988 105.5934914  88.9368199 143.0136443
 113.1040012  82.3394997 143.4639988 112.5500012  81.9434997 142.7919988
 113.2040012  83.2494997 143.1859988 113.0417059  82.4083586 143.3344401
 111.3990012  91.1254997 143.9289988 111.0260012  90.2994997 144.2379988
 111.6770012  90.9424997 143.0309988 111.3855222  90.9877430 143.8499473
  96.8580012  85.1234997 141.6699988  97.4740012  85.7504997 142.0499988
  95.9960012  85.4394997 141.9419988  96.8257698  85.2519430 141.7587183
 108.7920012  89.1014997 141.7489988 109.1450012  88.7214997 142.5529988
 107.8430012  89.0084997 141.8359988 108.7120918  89.0368956 141.8708532
 113.2950012  93.5814997 141.9499988 114.0390012  94.1674997 141.8099988
 112.6010012  94.1494997 142.2829988 113.3029899  93.7385798 141.9758778
 109.6580012  87.7744997 143.9759988 109.3800012  87.0464997 144.5319988
 110.5850012  87.8934997 144.1809988 109.7453124  87.6908802 144.0798845
 102.8830012  90.2134997 140.1959988 103.1220012  89.4654997 139.6489988
 102.6140012  89.8254997 141.0289988 102.8793675  90.0586638 140.2336865
 101.8200012  89.7834997 142.6519988 101.9660012  89.2634997 143.4419988
 101.8170012  90.6904997 142.9589988 101.8395792  89.8348842 142.8016117
  98.2730012  87.0364997 143.1629988  97.5870012  87.3884997 143.7299988
  98.7950012  87.7994997 142.9159988  98.2496852  87.1878578 143.2072118
 104.5570012  91.4814997 143.4019988 103.7410012  91.9784997 143.4539988
 105.0870012  91.9564997 142.7619988 104.5169161  91.6137722 143.3225956
 101.8960012  92.5254997 143.3829988 102.0560012  93.3244997 142.8829988
 101.6980012  92.8314997 144.2679988 101.8911637  92.6764020 143.4341144
 100.6300012  79.2224997 142.9989988 100.5470012  80.1114997 143.3459988
 101.5200012  78.9574997 143.2309988 100.7389469  79.3081430 143.0777626
  98.8890012  89.6504997 142.0599988  99.4810012  90.3494997 142.3359988
  99.3480012  89.2174997 141.3399988  99.0321142  89.6877049 142.0004830
  97.2050012  82.3144997 141.1759988  97.1600012  83.2534997 141.3539988
  96.3170012  82.0784997 140.9059988  97.0788574  82.4111892 141.1638912
 104.9210012  92.0764997 140.3349988 104.2770012  91.4454997 140.6559988
 105.6830012  91.5454997 140.1029988 104.9358077  91.9182920 140.3476011
 109.5250012  91.8934997 140.5679988 109.8080012  91.0994997 141.0209988
 110.2650012  92.1264997 140.0079988 109.6638006  91.8163376 140.5542715
 100.4800012  87.8034997 140.4259988 100.5440012  87.0094997 140.9569988
 101.1330012  87.6844997 139.7359988 100.5770241  87.6787148 140.4054317
 105.8320012  88.8504997 140.1619988 105.5630012  89.0304997 141.0629988
 105.6260012  87.9244997 140.0299988 105.7673427  88.7500261 140.2675073
 101.6290012  85.7754997 142.7319988 101.1690012  85.2914997 143.4179988
 101.8840012  85.1074997 142.0959988 101.6004902  85.6188731 142.7399334
 102.7000012  84.0184997 140.9939988 102.5200012  83.8644997 140.0669988
 103.6500012  84.1264997 141.0389988 102.8037776  84.0120175 140.8731843
 112.0900012  86.3734997 140.4399988 111.8160012  85.9484997 139.6269988
 112.1290012  87.3044997 140.2229988 112.0577699  86.4412484 140.2993610
 102.5970012  94.7094997 141.9949988 103.5300012  94.8674997 142.1389988
 102.3330012  95.3844997 141.3709988 102.6889888  94.8224510 141.9302842
  96.1660012  89.3454997 141.4779988  97.0800012  89.4244997 141.7519988
  96.1730012  88.6584997 140.8119988  96.2921131  89.2633961 141.4254393
 113.2110012  85.1964997 142.6299988 112.6890012  85.5534997 141.9109988
 113.1780012  85.8714997 143.3079988 113.1351634  85.3365413 142.6233145
 111.5600012  82.4364997 141.1799988 111.6560012  83.1034997 140.4999988
 111.4200012  81.6204997 140.6989988 111.5542272  82.4175655 141.0218347
 110.8070012  79.8444997 140.2979988 111.4180012  79.4734997 140.9349988
 109.9710012  79.4234997 140.4939988 110.7775032  79.7367554 140.4117035
 112.9200012  78.7294997 141.8399988 113.3320012  78.0084997 141.3649988
 113.6020012  79.3994997 141.8989988 113.0685885  78.7212368 141.7828915
  96.4770012  76.7774997 142.9459988  96.9160012  77.3884997 142.3539988
  95.8440012  77.3154997 143.4199988  96.4514514  76.9339257 142.9290930
  96.3780012  92.7254997 143.8429988  95.6930012  92.6874997 143.1759988
  96.3820012  93.6384997 144.1319988  96.2846998  92.8436733 143.7906771
  98.3380012  78.6934997 141.3879988  98.8300012  78.0634997 140.8609988
  98.9620012  78.9894997 142.0509988  98.4895688  78.6473804 141.4055482
 103.3640012  78.9864997 143.8449988 103.5420012  78.3404997 144.5279988
 103.3110012  79.8204997 144.3119988 103.3811999  79.0108009 144.0015917
 105.2430012  93.9354997 142.2409988 106.1090012  94.3014997 142.0629988
 104.9960012  93.4954997 141.4269988 105.3282392  93.9261756 142.1066289
  98.1960012  93.6454997 140.8689988  97.9290012  93.9324997 141.7419988
  98.9680012  93.0994997 141.0209988  98.2637488  93.6110294 141.0091050
 124.3500012  83.8374997 141.5919988 125.0510012  83.8594997 142.2429988
 124.6530012  83.2094997 140.9349988 124.4868133  83.7557070 141.5923369
 126.5730012  84.7514997 143.1899988 127.1530012  84.9014997 143.9369988
 126.9870012  85.2224997 142.4659988 126.7082997  84.8356578 143.1944058
 130.2720012  76.5014997 143.0029988 129.3720012  76.6404997 143.2979988
 130.5240012  77.3324997 142.6009988 130.1828702  76.6329074 142.9890205
 131.4610012  90.8674997 141.3789988 131.5350012  91.8064997 141.5499988
 132.3670012  90.5624997 141.3229988 131.5935100  90.9546722 141.3948119
 126.8740012  93.5984997 142.0419988 127.2490012  92.8544997 141.5709988
 126.8780012  93.3284997 142.9609988 126.9259125  93.4600986 142.1016483
 128.0510012  85.7844997 140.8199988 128.0930012  85.5614997 139.8899988
 128.9000012  86.1834997 141.0089988 128.1715280  85.8079438 140.7183554
 123.6230012  79.6604997 141.4899988 123.3700012  79.6794997 142.4129988
 123.3670012  78.7884997 141.1879988 123.5537481  79.5452558 141.5756175
 120.5060012  80.1054997 140.5909988 120.0750012  79.6604997 141.3209988
 119.7880012  80.4774997 140.0789988 120.3499438  80.0948940 140.6216799
 115.0220012  80.5934997 143.0669988 115.4960012  81.1844997 142.4819988
 114.3050012  81.1244997 143.4139988 114.9899341  80.7460867 143.0338836
 119.1240012  82.8834997 141.9729988 118.5810012  82.5034997 141.2819988
 119.9570012  83.0774997 141.5449988 119.1623631  82.8577125 141.8204501
 122.4590012  87.4484997 143.9089988 121.7140012  86.9414997 143.5869988
 122.3250012  87.4974997 144.8559988 122.3388776  87.3856940 143.9928647
 126.3570012  80.2624997 142.1079988 125.4180012  80.3744997 141.9569988
 126.6540012  81.1194997 142.4149988 126.2687583  80.3935981 142.1288337
 127.0750012  82.1294997 143.7689988 127.9670012  81.9924997 144.0879988
 127.1320012  82.9204997 143.2319988 127.2046504  82.2176052 143.7400818
 124.5850012  88.9074997 142.9349988 124.2890012  89.7334997 143.3159988
 123.8820012  88.2874997 143.1309988 124.4494914  88.9368199 143.0136443
 131.9600012  82.3394997 143.4639988 131.4060012  81.9434997 142.7919988
 132.0600012  83.2494997 143.1859988 131.8977059  82.4083586 143.3344401
 130.2550012  91.1254997 143.9289988 129.8820012  90.2994997 144.2379988
 130.5330012  90.9424997 143.0309988 130.2415222  90.9877430 143.8499473
 115.7140012  85.1234997 141.6699988 116.3300012  85.7504997 142.0499988
 114.8520012  85.4394997 141.9419988 115.6817698  85.2519430 141.7587183
 127.6480012  89.1014997 141.7489988 128.0010012  88.7214997 142.5529988
 126.6990012  89.0084997 141.8359988 127.5680918  89.0368956 141.8708532
 132.1510012  93.5814997 141.9499988 132.8950012  94.1674997 141.8099988
 131.4570012  94.1494997 142.2829988 132.1589899  93.7385798 141.9758778
 128.5140012  87.7744997 143.9759988 128.2360012  87.0464997 144.5319988
 129.4410012  87.8934997 144.1809988 128.6013124  87.6908802 144.0798845
 121.7390012  90.2134997 140.1959988 121.9780012  89.4654997 139.6489988
 121.4700012  89.8254997 141.0289988 121.7353675  90.0586638 140.2336865
 120.6760012  89.7834997 142.6519988 120.8220012  89.2634997 143.4419988
 120.6730012  90.6904997 142.9589988 120.6955792  89.8348842 142.8016117
 117.1290012  87.0364997 143.1629988 116.4430012  87.3884997 143.7299988
 117.6510012  87.7994997 142.9159988 117.1056852  87.1878578 143.2072118
 123.4130012  91.4814997 143.4019988 122.5970012  91.9784997 143.4539988
 123.9430012  91.9564997 142.7619988 123.3729161  91.6137722 143.3225956
 120.7520012  92.5254997 143.3829988 120.9120012  93.3244997 142.8829988
 120.5540012  92.8314997 144.2679988 120.7471637  92.6764020 143.4341144
 119.4860012  79.2224997 142.9989988 119.4030012  80.1114997 143.3459988
 120.3760012  78.9574997 143.2309988 119.5949469  79.3081430 143.0777626
 117.7450012  89.6504997 142.0599988 118.3370012  90.3494997 142.3359988
 118.2040012  89.2174997 141.3399988 117.8881142  89.6877049 142.0004830
 116.0610012  82.3144997 141.1759988 116.0160012  83.2534997 141.3539988
 115.1730012  82.0784997 140.9059988 115.9348574  82.4111892 141.1638912
 123.7770012  92.0764997 140.3349988 123.1330012  91.4454997 140.6559988
 124.5390012  91.5454997 140.1029988 123.7918077  91.9182920 140.3476011
 128.3810012  91.8934997 140.5679988 128.6640012  91.0994997 141.0209988
 129.1210012  92.1264997 140.0079988 128.5198006  91.8163376 140.5542715
 119.3360012  87.8034997 140.4259988 119.4000012  87.0094997 140.9569988
 119.9890012  87.6844997 139.7359988 119.4330241  87.6787148 140.4054317
 124.6880012  88.8504997 140.1619988 124.4190012  89.0304997 141.0629988
 124.4820012  87.9244997 140.0299988 124.6233427  88.7500261 140.2675073
 120.4850012  85.7754997 142.7319988 120.0250012  85.2914997 143.4179988
 120.7400012  85.1074997 142.0959988 120.4564902  85.6188731 142.7399334
 121.5560012  84.0184997 140.9939988 121.3760012  83.8644997 140.0669988
 122.5060012  84.1264997 141.0389988 121.6597776  84.0120175 140.8731843
 130.9460012  86.3734997 140.4399988 130.6720012  85.9484997 139.6269988
 130.9850012  87.3044997 140.2229988 130.9137699  86.4412484 140.2993610
 121.4530012  94.7094997 141.9949988 122.3860012  94.8674997 142.1389988
 121.1890012  95.3844997 141.3709988 121.5449888  94.8224510 141.9302842
 115.0220012  89.3454997 141.4779988 115.9360012  89.4244997 141.7519988
 115.0290012  88.6584997 140.8119988 115.1481131  89.2633961 141.4254393
 132.0670012  85.1964997 142.6299988 131.5450012  85.5534997 141.9109988
 132.0340012  85.8714997 143.3079988 131.9911634  85.3365413 142.6233145
 130.4160012  82.4364997 141.1799988 130.5120012  83.1034997 140.4999988
 130.2760012  81.6204997 140.6989988 130.4102272  82.4175655 141.0218347
 129.6630012  79.8444997 140.2979988 130.2740012  79.4734997 140.9349988
 128.8270012  79.4234997 140.4939988 129.6335032  79.7367554 140.4117035
 131.7760012  78.7294997 141.8399988 132.1880012  78.0084997 141.3649988
 132.4580012  79.3994997 141.8989988 131.9245885  78.7212368 141.7828915
 115.3330012  76.7774997 142.9459988 115.7720012  77.3884997 142.3539988
 114.7000012  77.3154997 143.4199988 115.3074514  76.9339257 142.9290930
 115.2340012  92.7254997 143.8429988 114.5490012  92.6874997 143.1759988
 115.2380012  93.6384997 144.1319988 115.1406998  92.8436733 143.7906771
 117.1940012  78.6934997 141.3879988 117.6860012  78.0634997 140.8609988
 117.8180012  78.9894997 142.0509988 117.3455688  78.6473804 141.4055482
 122.2200012  78.9864997 143.8449988 122.3980012  78.3404997 144.5279988
 122.1670012  79.8204997 144.3119988 122.2371999  79.0108009 144.0015917
 124.0990012  93.9354997 142.2409988 124.9650012  94.3014997 142.0629988
 123.8520012  93.4954997 141.4269988 124.1842392  93.9261756 142.1066289
 117.0520012  93.6454997 140.8689988 116.7850012  93.9324997 141.7419988
 117.8240012  93.0994997 141.0209988 117.1197488  93.6110294 141.0091050
 143.2060012  83.8374997 141.5919988 143.9070012  83.8594997 142.2429988
 143.5090012  83.2094997 140.9349988 143.3428133  83.7557070 141.5923369
 142.4790012  79.6604997 141.4899988 142.2260012  79.6794997 142.4129988
 142.2230012  78.7884997 141.1879988 142.4097481  79.5452558 141.5756175
 139.3620012  80.1054997 140.5909988 138.9310012  79.6604997 141.3209988
 138.6440012  80.4774997 140.0789988 139.2059438  80.0948940 140.6216799
 133.8780012  80.5934997 143.0669988 134.3520012  81.1844997 142.4819988
 133.1610012  81.1244997 143.4139988 133.8459341  80.7460867 143.0338836
 137.9800012  82.8834997 141.9729988 137.4370012  82.5034997 141.2819988
 138.8130012  83.0774997 141.5449988 138.0183631  82.8577125 141.8204501
 141.3150012  87.4484997 143.9089988 140.5700012  86.9414997 143.5869988
 141.1810012  87.4974997 144.8559988 141.1948776  87.3856940 143.9928647
 143.4410012  88.9074997 142.9349988 143.1450012  89.7334997 143.3159988
 142.7380012  88.2874997 143.1309988 143.3054914  88.9368199 143.0136443
 134.5700012  85.1234997 141.6699988 135.1860012  85.7504997 142.0499988
 133.7080012  85.4394997 141.9419988 134.5377698  85.2519430 141.7587183
 140.5950012  90.2134997 140.1959988 140.8340012  89.4654997 139.6489988
 140.3260012  89.8254997 141.0289988 140.5913675  90.0586638 140.2336865
 139.5320012  89.7834997 142.6519988 139.6780012  89.2634997 143.4419988
 139.5290012  90.6904997 142.9589988 139.5515792  89.8348842 142.8016117
 135.9850012  87.0364997 143.1629988 135.2990012  87.3884997 143.7299988
 136.5070012  87.7994997 142.9159988 135.9616852  87.1878578 143.2072118
 142.2690012  91.4814997 143.4019988 141.4530012  91.9784997 143.4539988
 142.7990012  91.9564997 142.7619988 142.2289161  91.6137722 143.3225956
 139.6080012  92.5254997 143.3829988 139.7680012  93.3244997 142.8829988
 139.4100012  92.8314997 144.2679988 139.6031637  92.6764020 143.4341144
 138.3420012  79.2224997 142.9989988 138.2590012  80.1114997 143.3459988
 139.2320012  78.9574997 143.2309988 138.4509469  79.3081430 143.0777626
 136.6010012  89.6504997 142.0599988 137.1930012  90.3494997 142.3359988
 137.0600012  89.2174997 141.3399988 136.7441142  89.6877049 142.0004830
 134.9170012  82.3144997 141.1759988 134.8720012  83.2534997 141.3539988
 134.0290012  82.0784997 140.9059988 134.7908574  82.4111892 141.1638912
 142.6330012  92.0764997 140.3349988 141.9890012  91.4454997 140.6559988
 143.3950012  91.5454997 140.1029988 142.6478077  91.9182920 140.3476011
 138.1920012  87.8034997 140.4259988 138.2560012  87.0094997 140.9569988
 138.8450012  87.6844997 139.7359988 138.2890241  87.6787148 140.4054317
 143.5440012  88.8504997 140.1619988 143.2750012  89.0304997 141.0629988
 143.3380012  87.9244997 140.0299988 143.4793427  88.7500261 140.2675073
 139.3410012  85.7754997 142.7319988 138.8810012  85.2914997 143.4179988
 139.5960012  85.1074997 142.0959988 139.3124902  85.6188731 142.7399334
 140.4120012  84.0184997 140.9939988 140.2320012  83.8644997 140.0669988
 141.3620012  84.1264997 141.0389988 140.5157776  84.0120175 140.8731843
 140.3090012  94.7094997 141.9949988 141.2420012  94.8674997 142.1389988
 140.0450012  95.3844997 141.3709988 140.4009888  94.8224510 141.9302842
 133.8780012  89.3454997 141.4779988 134.7920012  89.4244997 141.7519988
 133.8850012  88.6584997 140.8119988 134.0041131  89.2633961 141.4254393
 134.1890012  76.7774997 142.9459988 134.6280012  77.3884997 142.3539988
 133.5560012  77.3154997 143.4199988 134.1634514  76.9339257 142.9290930
 134.0900012  92.7254997 143.8429988 133.4050012  92.6874997 143.1759988
 134.0940012  93.6384997 144.1319988 133.9966998  92.8436733 143.7906771
 136.0500012  78.6934997 141.3879988 136.5420012  78.0634997 140.8609988
 136.6740012  78.9894997 142.0509988 136.2015688  78.6473804 141.4055482
 141.0760012  78.9864997 143.8449988 141.2540012  78.3404997 144.5279988
 141.0230012  79.8204997 144.3119988 141.0931999  79.0108009 144.0015917
 142.9550012  93.9354997 142.2409988 143.8210012  94.3014997 142.0629988
 142.7080012  93.4954997 141.4269988 143.0402392  93.9261756 142.1066289
 135.9080012  93.6454997 140.8689988 135.6410012  93.9324997 141.7419988
 136.6800012  93.0994997 141.0209988 135.9757488  93.6110294 141.0091050
  11.2140012 102.6934997 141.5919988  11.9150012 102.7154997 142.2429988
  11.5170012 102.0654997 140.9349988  11.3508133 102.6117070 141.5923369
  13.4370012 103.6074997 143.1899988  14.0170012 103.7574997 143.9369988
  13.8510012 104.0784997 142.4659988  13.5722997 103.6916578 143.1944058
  17.1360012  95.3574997 143.0029988  16.2360012  95.4964997 143.2979988
  17.3880012  96.1884997 142.6009988  17.0468702  95.4889074 142.9890205
  18.3250012 109.7234997 141.3789988  18.3990012 110.6624997 141.5499988
  19.2310012 109.4184997 141.3229988  18.4575100 109.8106722 141.3948119
  13.7380012 112.4544997 142.0419988  14.1130012 111.7104997 141.5709988
  13.7420012 112.1844997 142.9609988  13.7899125 112.3160986 142.1016483
  14.9150012 104.6404997 140.8199988  14.9570012 104.4174997 139.8899988
  15.7640012 105.0394997 141.0089988  15.0355280 104.6639438 140.7183554
  10.4870012  98.5164997 141.4899988  10.2340012  98.5354997 142.4129988
  10.2310012  97.6444997 141.1879988  10.4177481  98.4012558 141.5756175
   7.3700012  98.9614997 140.5909988   6.9390012  98.5164997 141.3209988
   6.6520012  99.3334997 140.0789988   7.2139438  98.9508940 140.6216799
   1.8860012  99.4494997 143.0669988   2.3600012 100.0404997 142.4819988
   1.1690012  99.9804997 143.4139988   1.8539341  99.6020867 143.0338836
   5.9880012 101.7394997 141.9729988   5.4450012 101.3594997 141.2819988
   6.8210012 101.9334997 141.5449988   6.0263631 101.7137125 141.8204501
   9.3230012 106.3044997 143.9089988   8.5780012 105.7974997 143.5869988
   9.1890012 106.3534997 144.8559988   9.2028776 106.2416940 143.9928647
  13.2210012  99.1184997 142.1079988  12.2820012  99.2304997 141.9569988
  13.5180012  99.9754997 142.4149988  13.1327583  99.2495981 142.1288337
  13.9390012 100.9854997 143.7689988  14.8310012 100.8484997 144.0879988
  13.9960012 101.7764997 143.2319988  14.0686504 101.0736052 143.7400818
  11.4490012 107.7634997 142.9349988  11.1530012 108.5894997 143.3159988
  10.7460012 107.1434997 143.1309988  11.3134914 107.7928199 143.0136443
  18.8240012 101.1954997 143.4639988  18.2700012 100.7994997 142.7919988
  18.9240012 102.1054997 143.1859988  18.7617059 101.2643586 143.3344401
  17.1190012 109.9814997 143.9289988  16.7460012 109.1554997 144.2379988
  17.3970012 109.7984997 143.0309988  17.1055222 109.8437430 143.8499473
   2.5780012 103.9794997 141.6699988   3.1940012 104.6064997 142.0499988
   1.7160012 104.2954997 141.9419988   2.5457698 104.1079430 141.7587183
  14.5120012 107.9574997 141.7489988  14.8650012 107.5774997 142.5529988
  13.5630012 107.8644997 141.8359988  14.4320918 107.8928956 141.8708532
  19.0150012 112.4374997 141.9499988  19.7590012 113.0234997 141.8099988
  18.3210012 113.0054997 142.2829988  19.0229899 112.5945798 141.9758778
  15.3780012 106.6304997 143.9759988  15.1000012 105.9024997 144.5319988
  16.3050012 106.7494997 144.1809988  15.4653124 106.5468802 144.0798845
   8.6030012 109.0694997 140.1959988   8.8420012 108.3214997 139.6489988
   8.3340012 108.6814997 141.0289988   8.5993675 108.9146638 140.2336865
   7.5400012 108.6394997 142.6519988   7.6860012 108.1194997 143.4419988
   7.5370012 109.5464997 142.9589988   7.5595792 108.6908842 142.8016117
   3.9930012 105.8924997 143.1629988   3.3070012 106.2444997 143.7299988
   4.5150012 106.6554997 142.9159988   3.9696852 106.0438578 143.2072118
  10.2770012 110.3374997 143.4019988   9.4610012 110.8344997 143.4539988
  10.8070012 110.8124997 142.7619988  10.2369161 110.4697722 143.3225956
   7.6160012 111.3814997 143.3829988   7.7760012 112.1804997 142.8829988
   7.4180012 111.6874997 144.2679988   7.6111637 111.5324020 143.4341144
   6.3500012  98.0784997 142.9989988   6.2670012  98.9674997 143.3459988
   7.2400012  97.8134997 143.2309988   6.4589469  98.1641430 143.0777626
   4.6090012 108.5064997 142.0599988   5.2010012 109.2054997 142.3359988
   5.0680012 108.0734997 141.3399988   4.7521142 108.5437049 142.0004830
   2.9250012 101.1704997 141.1759988   2.8800012 102.1094997 141.3539988
   2.0370012 100.9344997 140.9059988   2.7988574 101.2671892 141.1638912
  10.6410012 110.9324997 140.3349988   9.9970012 110.3014997 140.6559988
  11.4030012 110.4014997 140.1029988  10.6558077 110.7742920 140.3476011
  15.2450012 110.7494997 140.5679988  15.5280012 109.9554997 141.0209988
  15.9850012 110.9824997 140.0079988  15.3838006 110.6723376 140.5542715
   6.2000012 106.6594997 140.4259988   6.2640012 105.8654997 140.9569988
   6.8530012 106.5404997 139.7359988   6.2970241 106.5347148 140.4054317
  11.5520012 107.7064997 140.1619988  11.2830012 107.8864997 141.0629988
  11.3460012 106.7804997 140.0299988  11.4873427 107.6060261 140.2675073
   7.3490012 104.6314997 142.7319988   6.8890012 104.1474997 143.4179988
   7.6040012 103.9634997 142.0959988   7.3204902 104.4748731 142.7399334
   8.4200012 102.8744997 140.9939988   8.2400012 102.7204997 140.0669988
   9.3700012 102.9824997 141.0389988   8.5237776 102.8680175 140.8731843
  17.8100012 105.2294997 140.4399988  17.5360012 104.8044997 139.6269988
  17.8490012 106.1604997 140.2229988  17.7777699 105.2972484 140.2993610
   8.3170012 113.5654997 141.9949988   9.2500012 113.7234997 142.1389988
   8.0530012 114.2404997 141.3709988   8.4089888 113.6784510 141.9302842
   1.8860012 108.2014997 141.4779988   2.8000012 108.2804997 141.7519988
   1.8930012 107.5144997 140.8119988   2.0121131 108.1193961 141.4254393
  18.9310012 104.0524997 142.6299988  18.4090012 104.4094997 141.9109988
  18.8980012 104.7274997 143.3079988  18.8551634 104.1925413 142.6233145
  17.2800012 101.2924997 141.1799988  17.3760012 101.9594997 140.4999988
  17.1400012 100.4764997 140.6989988  17.2742272 101.2735655 141.0218347
  16.5270012  98.7004997 140.2979988  17.1380012  98.3294997 140.9349988
  15.6910012  98.2794997 140.4939988  16.4975032  98.5927554 140.4117035
  18.6400012  97.5854997 141.8399988  19.0520012  96.8644997 141.3649988
  19.3220012  98.2554997 141.8989988  18.7885885  97.5772368 141.7828915
   2.1970012  95.6334997 142.9459988   2.6360012  96.2444997 142.3539988
   1.5640012  96.1714997 143.4199988   2.1714514  95.7899257 142.9290930
   2.0980012 111.5814997 143.8429988   1.4130012 111.5434997 143.1759988
   2.1020012 112.4944997 144.1319988   2.0046998 111.6996733 143.7906771
   4.0580012  97.5494997 141.3879988   4.5500012  96.9194997 140.8609988
   4.6820012  97.8454997 142.0509988   4.2095688  97.5033804 141.4055482
   9.0840012  97.8424997 143.8449988   9.2620012  97.1964997 144.5279988
   9.0310012  98.6764997 144.3119988   9.1011999  97.8668009 144.0015917
  10.9630012 112.7914997 142.2409988  11.8290012 113.1574997 142.0629988
  10.7160012 112.3514997 141.4269988  11.0482392 112.7821756 142.1066289
   3.9160012 112.5014997 140.8689988   3.6490012 112.7884997 141.7419988
   4.6880012 111.9554997 141.0209988   3.9837488 112.4670294 141.0091050
  30.0700012 102.6934997 141.5919988  30.7710012 102.7154997 142.2429988
  30.3730012 102.0654997 140.9349988  30.2068133 102.6117070 141.5923369
  32.2930012 103.6074997 143.1899988  32.8730012 103.7574997 143.9369988
  32.7070012 104.0784997 142.4659988  32.4282997 103.6916578 143.1944058
  35.9920012  95.3574997 143.0029988  35.0920012  95.4964997 143.2979988
  36.2440012  96.1884997 142.6009988  35.9028702  95.4889074 142.9890205
  37.1810012 109.7234997 141.3789988  37.2550012 110.6624997 141.5499988
  38.0870012 109.4184997 141.3229988  37.3135100 109.8106722 141.3948119
  32.5940012 112.4544997 142.0419988  32.9690012 111.7104997 141.5709988
  32.5980012 112.1844997 142.9609988  32.6459125 112.3160986 142.1016483
  33.7710012 104.6404997 140.8199988  33.8130012 104.4174997 139.8899988
  34.6200012 105.0394997 141.0089988  33.8915280 104.6639438 140.7183554
  29.3430012  98.5164997 141.4899988  29.0900012  98.5354997 142.4129988
  29.0870012  97.6444997 141.1879988  29.2737481  98.4012558 141.5756175
  26.2260012  98.9614997 140.5909988  25.7950012  98.5164997 141.3209988
  25.5080012  99.3334997 140.0789988  26.0699438  98.9508940 140.6216799
  20.7420012  99.4494997 143.0669988  21.2160012 100.0404997 142.4819988
  20.0250012  99.9804997 143.4139988  20.7099341  99.6020867 143.0338836
  24.8440012 101.7394997 141.9729988  24.3010012 101.3594997 141.2819988
  25.6770012 101.9334997 141.5449988  24.8823631 101.7137125 141.8204501
  28.1790012 106.3044997 143.9089988  27.4340012 105.7974997 143.5869988
  28.0450012 106.3534997 144.8559988  28.0588776 106.2416940 143.9928647
  32.0770012  99.1184997 142.1079988  31.1380012  99.2304997 141.9569988
  32.3740012  99.9754997 142.4149988  31.9887583  99.2495981 142.1288337
  32.7950012 100.9854997 143.7689988  33.6870012 100.8484997 144.0879988
  32.8520012 101.7764997 143.2319988  32.9246504 101.0736052 143.7400818
  30.3050012 107.7634997 142.9349988  30.0090012 108.5894997 143.3159988
  29.6020012 107.1434997 143.1309988  30.1694914 107.7928199 143.0136443
  37.6800012 101.1954997 143.4639988  37.1260012 100.7994997 142.7919988
  37.7800012 102.1054997 143.1859988  37.6177059 101.2643586 143.3344401
  35.9750012 109.9814997 143.9289988  35.6020012 109.1554997 144.2379988
  36.2530012 109.7984997 143.0309988  35.9615222 109.8437430 143.8499473
  21.4340012 103.9794997 141.6699988  22.0500012 104.6064997 142.0499988
  20.5720012 104.2954997 141.9419988  21.4017698 104.1079430 141.7587183
  33.3680012 107.9574997 141.7489988  33.7210012 107.5774997 142.5529988
  32.4190012 107.8644997 141.8359988  33.2880918 107.8928956 141.8708532
  37.8710012 112.4374997 141.9499988  38.6150012 113.0234997 141.8099988
  37.1770012 113.0054997 142.2829988  37.8789899 112.5945798 141.9758778
  34.2340012 106.6304997 143.9759988  33.9560012 105.9024997 144.5319988
  35.1610012 106.7494997 144.1809988  34.3213124 106.5468802 144.0798845
  27.4590012 109.0694997 140.1959988  27.6980012 108.3214997 139.6489988
  27.1900012 108.6814997 141.0289988  27.4553675 108.9146638 140.2336865
  26.3960012 108.6394997 142.6519988  26.5420012 108.1194997 143.4419988
  26.3930012 109.5464997 142.9589988  26.4155792 108.6908842 142.8016117
  22.8490012 105.8924997 143.1629988  22.1630012 106.2444997 143.7299988
  23.3710012 106.6554997 142.9159988  22.8256852 106.0438578 143.2072118
  29.1330012 110.3374997 143.4019988  28.3170012 110.8344997 143.4539988
  29.6630012 110.8124997 142.7619988  29.0929161 110.4697722 143.3225956
  26.4720012 111.3814997 143.3829988  26.6320012 112.1804997 142.8829988
  26.2740012 111.6874997 144.2679988  26.4671637 111.5324020 143.4341144
  25.2060012  98.0784997 142.9989988  25.1230012  98.9674997 143.3459988
  26.0960012  97.8134997 143.2309988  25.3149469  98.1641430 143.0777626
  23.4650012 108.5064997 142.0599988  24.0570012 109.2054997 142.3359988
  23.9240012 108.0734997 141.3399988  23.6081142 108.5437049 142.0004830
  21.7810012 101.1704997 141.1759988  21.7360012 102.1094997 141.3539988
  20.8930012 100.9344997 140.9059988  21.6548574 101.2671892 141.1638912
  29.4970012 110.9324997 140.3349988  28.8530012 110.3014997 140.6559988
  30.2590012 110.4014997 140.1029988  29.5118077 110.7742920 140.3476011
  34.1010012 110.7494997 140.5679988  34.3840012 109.9554997 141.0209988
  34.8410012 110.9824997 140.0079988  34.2398006 110.6723376 140.5542715
  25.0560012 106.6594997 140.4259988  25.1200012 105.8654997 140.9569988
  25.7090012 106.5404997 139.7359988  25.1530241 106.5347148 140.4054317
  30.4080012 107.7064997 140.1619988  30.1390012 107.8864997 141.0629988
  30.2020012 106.7804997 140.0299988  30.3433427 107.6060261 140.2675073
  26.2050012 104.6314997 142.7319988  25.7450012 104.1474997 143.4179988
  26.4600012 103.9634997 142.0959988  26.1764902 104.4748731 142.7399334
  27.2760012 102.8744997 140.9939988  27.0960012 102.7204997 140.0669988
  28.2260012 102.9824997 141.0389988  27.3797776 102.8680175 140.8731843
  36.6660012 105.2294997 140.4399988  36.3920012 104.8044997 139.6269988
  36.7050012 106.1604997 140.2229988  36.6337699 105.2972484 140.2993610
  27.1730012 113.5654997 141.9949988  28.1060012 113.7234997 142.1389988
  26.9090012 114.2404997 141.3709988  27.2649888 113.6784510 141.9302842
  20.7420012 108.2014997 141.4779988  21.6560012 108.2804997 141.7519988
  20.7490012 107.5144997 140.8119988  20.8681131 108.1193961 141.4254393
  37.7870012 104.0524997 142.6299988  37.2650012 104.4094997 141.9109988
  37.7540012 104.7274997 143.3079988  37.7111634 104.1925413 142.6233145
  36.1360012 101.2924997 141.1799988  36.2320012 101.9594997 140.4999988
  35.9960012 100.4764997 140.6989988  36.1302272 101.2735655 141.0218347
  35.3830012  98.7004997 140.2979988  35.9940012  98.3294997 140.9349988
  34.5470012  98.2794997 140.4939988  35.3535032  98.5927554 140.4117035
  37.4960012  97.5854997 141.8399988  37.9080012  96.8644997 141.3649988
  38.1780012  98.2554997 141.8989988  37.6445885  97.5772368 141.7828915
  21.0530012  95.6334997 142.9459988  21.4920012  96.2444997 142.3539988
  20.4200012  96.1714997 143.4199988  21.0274514  95.7899257 142.9290930
  20.9540012 111.5814997 143.8429988  20.2690012 111.5434997 143.1759988
  20.9580012 112.4944997 144.1319988  20.8606998 111.6996733 143.7906771
  22.9140012  97.5494997 141.3879988  23.4060012  96.9194997 140.8609988
  23.5380012  97.8454997 142.0509988  23.0655688  97.5033804 141.4055482
  27.9400012  97.8424997 143.8449988  28.1180012  97.1964997 144.5279988
  27.8870012  98.6764997 144.3119988  27.9571999  97.8668009 144.0015917
  29.8190012 112.7914997 142.2409988  30.6850012 113.1574997 142.0629988
  29.5720012 112.3514997 141.4269988  29.9042392 112.7821756 142.1066289
  22.7720012 112.5014997 140.8689988  22.5050012 112.7884997 141.7419988
  23.5440012 111.9554997 141.0209988  22.8397488 112.4670294 141.0091050
  48.9260012 102.6934997 141.5919988  49.6270012 102.7154997 142.2429988
  49.2290012 102.0654997 140.9349988  49.0628133 102.6117070 141.5923369
  51.1490012 103.6074997 143.1899988  51.7290012 103.7574997 143.9369988
  51.5630012 104.0784997 142.4659988  51.2842997 103.6916578 143.1944058
  54.8480012  95.3574997 143.0029988  53.9480012  95.4964997 143.2979988
  55.1000012  96.1884997 142.6009988  54.7588702  95.4889074 142.9890205
  56.0370012 109.7234997 141.3789988  56.1110012 110.6624997 141.5499988
  56.9430012 109.4184997 141.3229988  56.1695100 109.8106722 141.3948119
  51.4500012 112.4544997 142.0419988  51.8250012 111.7104997 141.5709988
  51.4540012 112.1844997 142.9609988  51.5019125 112.3160986 142.1016483
  52.6270012 104.6404997 140.8199988  52.6690012 104.4174997 139.8899988
  53.4760012 105.0394997 141.0089988  52.7475280 104.6639438 140.7183554
  48.1990012  98.5164997 141.4899988  47.9460012  98.5354997 142.4129988
  47.9430012  97.6444997 141.1879988  48.1297481  98.4012558 141.5756175
  45.0820012  98.9614997 140.5909988  44.6510012  98.5164997 141.3209988
  44.3640012  99.3334997 140.0789988  44.9259438  98.9508940 140.6216799
  39.5980012  99.4494997 143.0669988  40.0720012 100.0404997 142.4819988
  38.8810012  99.9804997 143.4139988  39.5659341  99.6020867 143.0338836
  43.7000012 101.7394997 141.9729988  43.1570012 101.3594997 141.2819988
  44.5330012 101.9334997 141.5449988  43.7383631 101.7137125 141.8204501
  47.0350012 106.3044997 143.9089988  46.2900012 105.7974997 143.5869988
  46.9010012 106.3534997 144.8559988  46.9148776 106.2416940 143.9928647
  50.9330012  99.1184997 142.1079988  49.9940012  99.2304997 141.9569988
  51.2300012  99.9754997 142.4149988  50.8447583  99.2495981 142.1288337
  51.6510012 100.9854997 143.7689988  52.5430012 100.8484997 144.0879988
  51.7080012 101.7764997 143.2319988  51.7806504 101.0736052 143.7400818
  49.1610012 107.7634997 142.9349988  48.8650012 108.5894997 143.3159988
  48.4580012 107.1434997 143.1309988  49.0254914 107.7928199 143.0136443
  56.5360012 101.1954997 143.4639988  55.9820012 100.7994997 142.7919988
  56.6360012 102.1054997 143.1859988  56.4737059 101.2643586 143.3344401
  54.8310012 109.9814997 143.9289988  54.4580012 109.1554997 144.2379988
  55.1090012 109.7984997 143.0309988  54.8175222 109.8437430 143.8499473
  40.2900012 103.9794997 141.6699988  40.9060012 104.6064997 142.0499988
  39.4280012 104.2954997 141.9419988  40.2577698 104.1079430 141.7587183
  52.2240012 107.9574997 141.7489988  52.5770012 107.5774997 142.5529988
  51.2750012 107.8644997 141.8359988  52.1440918 107.8928956 141.8708532
  56.7270012 112.4374997 141.9499988  57.4710012 113.0234997 141.8099988
  56.0330012 113.0054997 142.2829988  56.7349899 112.5945798 141.9758778
  53.0900012 106.6304997 143.9759988  52.8120012 105.9024997 144.5319988
  54.0170012 106.7494997 144.1809988  53.1773124 106.5468802 144.0798845
  46.3150012 109.0694997 140.1959988  46.5540012 108.3214997 139.6489988
  46.0460012 108.6814997 141.0289988  46.3113675 108.9146638 140.2336865
  45.2520012 108.6394997 142.6519988  45.3980012 108.1194997 143.4419988
  45.2490012 109.5464997 142.9589988  45.2715792 108.6908842 142.8016117
  41.7050012 105.8924997 143.1629988  41.0190012 106.2444997 143.7299988
  42.2270012 106.6554997 142.9159988  41.6816852 106.0438578 143.2072118
  47.9890012 110.3374997 143.4019988  47.1730012 110.8344997 143.4539988
  48.5190012 110.8124997 142.7619988  47.9489161 110.4697722 143.3225956
  45.3280012 111.3814997 143.3829988  45.4880012 112.1804997 142.8829988
  45.1300012 111.6874997 144.2679988  45.3231637 111.5324020 143.4341144
  44.0620012  98.0784997 142.9989988  43.9790012  98.9674997 143.3459988
  44.9520012  97.8134997 143.2309988  44.1709469  98.1641430 143.0777626
  42.3210012 108.5064997 142.0599988  42.9130012 109.2054997 142.3359988
  42.7800012 108.0734997 141.3399988  42.4641142 108.5437049 142.0004830
  40.6370012 101.1704997 141.1759988  40.5920012 102.1094997 141.3539988
  39.7490012 100.9344997 140.9059988  40.5108574 101.2671892 141.1638912
  48.3530012 110.9324997 140.3349988  47.7090012 110.3014997 140.6559988
  49.1150012 110.4014997 140.1029988  48.3678077 110.7742920 140.3476011
  52.9570012 110.7494997 140.5679988  53.2400012 109.9554997 141.0209988
  53.6970012 110.9824997 140.0079988  53.0958006 110.6723376 140.5542715
  43.9120012 106.6594997 140.4259988  43.9760012 105.8654997 140.9569988
  44.5650012 106.5404997 139.7359988  44.0090241 106.5347148 140.4054317
  49.2640012 107.7064997 140.1619988  48.9950012 107.8864997 141.0629988
  49.0580012 106.7804997 140.0299988  49.1993427 107.6060261 140.2675073
  45.0610012 104.6314997 142.7319988  44.6010012 104.1474997 143.4179988
  45.3160012 103.9634997 142.0959988  45.0324902 104.4748731 142.7399334
  46.1320012 102.8744997 140.9939988  45.9520012 102.7204997 140.0669988
  47.0820012 102.9824997 141.0389988  46.2357776 102.8680175 140.8731843
  55.5220012 105.2294997 140.4399988  55.2480012 104.8044997 139.6269988
  55.5610012 106.1604997 140.2229988  55.4897699 105.2972484 140.2993610
  46.0290012 113.5654997 141.9949988  46.9620012 113.7234997 142.1389988
  45.7650012 114.2404997 141.3709988  46.1209888 113.6784510 141.9302842
  39.5980012 108.2014997 141.4779988  40.5120012 108.2804997 141.7519988
  39.6050012 107.5144997 140.8119988  39.7241131 108.1193961 141.4254393
  56.6430012 104.0524997 142.6299988  56.1210012 104.4094997 141.9109988
  56.6100012 104.7274997 143.3079988  56.5671634 104.1925413 142.6233145
  54.9920012 101.2924997 141.1799988  55.0880012 101.9594997 140.4999988
  54.8520012 100.4764997 140.6989988  54.9862272 101.2735655 141.0218347
  54.2390012  98.7004997 140.2979988  54.8500012  98.3294997 140.9349988
  53.4030012  98.2794997 140.4939988  54.2095032  98.5927554 140.4117035
  56.3520012  97.5854997 141.8399988  56.7640012  96.8644997 141.3649988
  57.0340012  98.2554997 141.8989988  56.5005885  97.5772368 141.7828915
  39.9090012  95.6334997 142.9459988  40.3480012  96.2444997 142.3539988
  39.2760012  96.1714997 143.4199988  39.8834514  95.7899257 142.9290930
  39.8100012 111.5814997 143.8429988  39.1250012 111.5434997 143.1759988
  39.8140012 112.4944997 144.1319988  39.7166998 111.6996733 143.7906771
  41.7700012  97.5494997 141.3879988  42.2620012  96.9194997 140.8609988
  42.3940012  97.8454997 142.0509988  41.9215688  97.5033804 141.4055482
  46.7960012  97.8424997 143.8449988  46.9740012  97.1964997 144.5279988
  46.7430012  98.6764997 144.3119988  46.8131999  97.8668009 144.0015917
  48.6750012 112.7914997 142.2409988  49.5410012 113.1574997 142.0629988
  48.4280012 112.3514997 141.4269988  48.7602392 112.7821756 142.1066289
  41.6280012 112.5014997 140.8689988  41.3610012 112.7884997 141.7419988
  42.4000012 111.9554997 141.0209988  41.6957488 112.4670294 141.0091050
  67.7820012 102.6934997 141.5919988  68.4830012 102.7154997 142.2429988
  68.0850012 102.0654997 140.9349988  67.9188133 102.6117070 141.5923369
  70.0050012 103.6074997 143.1899988  70.5850012 103.7574997 143.9369988
  70.4190012 104.0784997 142.4659988  70.1402997 103.6916578 143.1944058
  73.7040012  95.3574997 143.0029988  72.8040012  95.4964997 143.2979988
  73.9560012  96.1884997 142.6009988  73.6148702  95.4889074 142.9890205
  74.8930012 109.7234997 141.3789988  74.9670012 110.6624997 141.5499988
  75.7990012 109.4184997 141.3229988  75.0255100 109.8106722 141.3948119
  70.3060012 112.4544997 142.0419988  70.6810012 111.7104997 141.5709988
  70.3100012 112.1844997 142.9609988  70.3579125 112.3160986 142.1016483
  71.4830012 104.6404997 140.8199988  71.5250012 104.4174997 139.8899988
  72.3320012 105.0394997 141.0089988  71.6035280 104.6639438 140.7183554
  67.0550012  98.5164997 141.4899988  66.8020012  98.5354997 142.4129988
  66.7990012  97.6444997 141.1879988  66.9857481  98.4012558 141.5756175
  63.9380012  98.9614997 140.5909988  63.5070012  98.5164997 141.3209988
  63.2200012  99.3334997 140.0789988  63.7819438  98.9508940 140.6216799
  58.4540012  99.4494997 143.0669988  58.9280012 100.0404997 142.4819988
  57.7370012  99.9804997 143.4139988  58.4219341  99.6020867 143.0338836
  62.5560012 101.7394997 141.9729988  62.0130012 101.3594997 141.2819988
  63.3890012 101.9334997 141.5449988  62.5943631 101.7137125 141.8204501
  65.8910012 106.3044997 143.9089988  65.1460012 105.7974997 143.5869988
  65.7570012 106.3534997 144.8559988  65.7708776 106.2416940 143.9928647
  69.7890012  99.1184997 142.1079988  68.8500012  99.2304997 141.9569988
  70.0860012  99.9754997 142.4149988  69.7007583  99.2495981 142.1288337
  70.5070012 100.9854997 143.7689988  71.3990012 100.8484997 144.0879988
  70.5640012 101.7764997 143.2319988  70.6366504 101.0736052 143.7400818
  68.0170012 107.7634997 142.9349988  67.7210012 108.5894997 143.3159988
  67.3140012 107.1434997 143.1309988  67.8814914 107.7928199 143.0136443
  75.3920012 101.1954997 143.4639988  74.8380012 100.7994997 142.7919988
  75.4920012 102.1054997 143.1859988  75.3297059 101.2643586 143.3344401
  73.6870012 109.9814997 143.9289988  73.3140012 109.1554997 144.2379988
  73.9650012 109.7984997 143.0309988  73.6735222 109.8437430 143.8499473
  59.1460012 103.9794997 141.6699988  59.7620012 104.6064997 142.0499988
  58.2840012 104.2954997 141.9419988  59.1137698 104.1079430 141.7587183
  71.0800012 107.9574997 141.7489988  71.4330012 107.5774997 142.5529988
  70.1310012 107.8644997 141.8359988  71.0000918 107.8928956 141.8708532
  75.5830012 112.4374997 141.9499988  76.3270012 113.0234997 141.8099988
  74.8890012 113.0054997 142.2829988  75.5909899 112.5945798 141.9758778
  71.9460012 106.6304997 143.9759988  71.6680012 105.9024997 144.5319988
  72.8730012 106.7494997 144.1809988  72.0333124 106.5468802 144.0798845
  65.1710012 109.0694997 140.1959988  65.4100012 108.3214997 139.6489988
  64.9020012 108.6814997 141.0289988  65.1673675 108.9146638 140.2336865
  64.1080012 108.6394997 142.6519988  64.2540012 108.1194997 143.4419988
  64.1050012 109.5464997 142.9589988  64.1275792 108.6908842 142.8016117
  60.5610012 105.8924997 143.1629988  59.8750012 106.2444997 143.7299988
  61.0830012 106.6554997 142.9159988  60.5376852 106.0438578 143.2072118
  66.8450012 110.3374997 143.4019988  66.0290012 110.8344997 143.4539988
  67.3750012 110.8124997 142.7619988  66.8049161 110.4697722 143.3225956
  64.1840012 111.3814997 143.3829988  64.3440012 112.1804997 142.8829988
  63.9860012 111.6874997 144.2679988  64.1791637 111.5324020 143.4341144
  62.9180012  98.0784997 142.9989988  62.8350012  98.9674997 143.3459988
  63.8080012  97.8134997 143.2309988  63.0269469  98.1641430 143.0777626
  61.1770012 108.5064997 142.0599988  61.7690012 109.2054997 142.3359988
  61.6360012 108.0734997 141.3399988  61.3201142 108.5437049 142.0004830
  59.4930012 101.1704997 141.1759988  59.4480012 102.1094997 141.3539988
  58.6050012 100.9344997 140.9059988  59.3668574 101.2671892 141.1638912
  67.2090012 110.9324997 140.3349988  66.5650012 110.3014997 140.6559988
  67.9710012 110.4014997 140.1029988  67.2238077 110.7742920 140.3476011
  71.8130012 110.7494997 140.5679988  72.0960012 109.9554997 141.0209988
  72.5530012 110.9824997 140.0079988  71.9518006 110.6723376 140.5542715
  62.7680012 106.6594997 140.4259988  62.8320012 105.8654997 140.9569988
  63.4210012 106.5404997 139.7359988  62.8650241 106.5347148 140.4054317
  68.1200012 107.7064997 140.1619988  67.8510012 107.8864997 141.0629988
  67.9140012 106.7804997 140.0299988  68.0553427 107.6060261 140.2675073
  63.9170012 104.6314997 142.7319988  63.4570012 104.1474997 143.4179988
  64.1720012 103.9634997 142.0959988  63.8884902 104.4748731 142.7399334
  64.9880012 102.8744997 140.9939988  64.8080012 102.7204997 140.0669988
  65.9380012 102.9824997 141.0389988  65.0917776 102.8680175 140.8731843
  74.3780012 105.2294997 140.4399988  74.1040012 104.8044997 139.6269988
  74.4170012 106.1604997 140.2229988  74.3457699 105.2972484 140.2993610
  64.8850012 113.5654997 141.9949988  65.8180012 113.7234997 142.1389988
  64.6210012 114.2404997 141.3709988  64.9769888 113.6784510 141.9302842
  58.4540012 108.2014997 141.4779988  59.3680012 108.2804997 141.7519988
  58.4610012 107.5144997 140.8119988  58.5801131 108.1193961 141.4254393
  75.4990012 104.0524997 142.6299988  74.9770012 104.4094997 141.9109988
  75.4660012 104.7274997 143.3079988  75.4231634 104.1925413 142.6233145
  73.8480012 101.2924997 141.1799988  73.9440012 101.9594997 140.4999988
  73.7080012 100.4764997 140.6989988  73.8422272 101.2735655 141.0218347
  73.0950012  98.7004997 140.2979988  73.7060012  98.3294997 140.9349988
  72.2590012  98.2794997 140.4939988  73.0655032  98.5927554 140.4117035
  75.2080012  97.5854997 141.8399988  75.6200012  96.8644997 141.3649988
  75.8900012  98.2554997 141.8989988  75.3565885  97.5772368 141.7828915
  58.7650012  95.6334997 142.9459988  59.2040012  96.2444997 142.3539988
  58.1320012  96.1714997 143.4199988  58.7394514  95.7899257 142.9290930
  58.6660012 111.5814997 143.8429988  57.9810012 111.5434997 143.1759988
  58.6700012 112.4944997 144.1319988  58.5726998 111.6996733 143.7906771
  60.6260012  97.5494997 141.3879988  61.1180012  96.9194997 140.8609988
  61.2500012  97.8454997 142.0509988  60.7775688  97.5033804 141.4055482
  65.6520012  97.8424997 143.8449988  65.8300012  97.1964997 144.5279988
  65.5990012  98.6764997 144.3119988  65.6691999  97.8668009 144.0015917
  67.5310012 112.7914997 142.2409988  68.3970012 113.1574997 142.0629988
  67.2840012 112.3514997 141.4269988  67.6162392 112.7821756 142.1066289
  60.4840012 112.5014997 140.8689988  60.2170012 112.7884997 141.7419988
  61.2560012 111.9554997 141.0209988  60.5517488 112.4670294 141.0091050
  86.6380012 102.6934997 141.5919988  87.3390012 102.7154997 142.2429988
  86.9410012 102.0654997 140.9349988  86.7748133 102.6117070 141.5923369
  88.8610012 103.6074997 143.1899988  89.4410012 103.7574997 143.9369988
  89.2750012 104.0784997 142.4659988  88.9962997 103.6916578 143.1944058
  92.5600012  95.3574997 143.0029988  91.6600012  95.4964997 143.2979988
  92.8120012  96.1884997 142.6009988  92.4708702  95.4889074 142.9890205
  93.7490012 109.7234997 141.3789988  93.8230012 110.6624997 141.5499988
  94.6550012 109.4184997 141.3229988  93.8815100 109.8106722 141.3948119
  89.1620012 112.4544997 142.0419988  89.5370012 111.7104997 141.5709988
  89.1660012 112.1844997 142.9609988  89.2139125 112.3160986 142.1016483
  90.3390012 104.6404997 140.8199988  90.3810012 104.4174997 139.8899988
  91.1880012 105.0394997 141.0089988  90.4595280 104.6639438 140.7183554
  85.9110012  98.5164997 141.4899988  85.6580012  98.5354997 142.4129988
  85.6550012  97.6444997 141.1879988  85.8417481  98.4012558 141.5756175
  82.7940012  98.9614997 140.5909988  82.3630012  98.5164997 141.3209988
  82.0760012  99.3334997 140.0789988  82.6379438  98.9508940 140.6216799
  77.3100012  99.4494997 143.0669988  77.7840012 100.0404997 142.4819988
  76.5930012  99.9804997 143.4139988  77.2779341  99.6020867 143.0338836
  81.4120012 101.7394997 141.9729988  80.8690012 101.3594997 141.2819988
  82.2450012 101.9334997 141.5449988  81.4503631 101.7137125 141.8204501
  84.7470012 106.3044997 143.9089988  84.0020012 105.7974997 143.5869988
  84.6130012 106.3534997 144.8559988  84.6268776 106.2416940 143.9928647
  88.6450012  99.1184997 142.1079988  87.7060012  99.2304997 141.9569988
  88.9420012  99.9754997 142.4149988  88.5567583  99.2495981 142.1288337
  89.3630012 100.9854997 143.7689988  90.2550012 100.8484997 144.0879988
  89.4200012 101.7764997 143.2319988  89.4926504 101.0736052 143.7400818
  86.8730012 107.7634997 142.9349988  86.5770012 108.5894997 143.3159988
  86.1700012 107.1434997 143.1309988  86.7374914 107.7928199 143.0136443
  94.2480012 101.1954997 143.4639988  93.6940012 100.7994997 142.7919988
  94.3480012 102.1054997 143.1859988  94.1857059 101.2643586 143.3344401
  92.5430012 109.9814997 143.9289988  92.1700012 109.1554997 144.2379988
  92.8210012 109.7984997 143.0309988  92.5295222 109.8437430 143.8499473
  78.0020012 103.9794997 141.6699988  78.6180012 104.6064997 142.0499988
  77.1400012 104.2954997 141.9419988  77.9697698 104.1079430 141.7587183
  89.9360012 107.9574997 141.7489988  90.2890012 107.5774997 142.5529988
  88.9870012 107.8644997 141.8359988  89.8560918 107.8928956 141.8708532
  94.4390012 112.4374997 141.9499988  95.1830012 113.0234997 141.8099988
  93.7450012 113.0054997 142.2829988  94.4469899 112.5945798 141.9758778
  90.8020012 106.6304997 143.9759988  90.5240012 105.9024997 144.5319988
  91.7290012 106.7494997 144.1809988  90.8893124 106.5468802 144.0798845
  84.0270012 109.0694997 140.1959988  84.2660012 108.3214997 139.6489988
  83.7580012 108.6814997 141.0289988  84.0233675 108.9146638 140.2336865
  82.9640012 108.6394997 142.6519988  83.1100012 108.1194997 143.4419988
  82.9610012 109.5464997 142.9589988  82.9835792 108.6908842 142.8016117
  79.4170012 105.8924997 143.1629988  78.7310012 106.2444997 143.7299988
  79.9390012 106.6554997 142.9159988  79.3936852 106.0438578 143.2072118
  85.7010012 110.3374997 143.4019988  84.8850012 110.8344997 143.4539988
  86.2310012 110.8124997 142.7619988  85.6609161 110.4697722 143.3225956
  83.0400012 111.3814997 143.3829988  83.2000012 112.1804997 142.8829988
  82.8420012 111.6874997 144.2679988  83.0351637 111.5324020 143.4341144
  81.7740012  98.0784997 142.9989988  81.6910012  98.9674997 143.3459988
  82.6640012  97.8134997 143.2309988  81.8829469  98.1641430 143.0777626
  80.0330012 108.5064997 142.0599988  80.6250012 109.2054997 142.3359988
  80.4920012 108.0734997 141.3399988  80.1761142 108.5437049 142.0004830
  78.3490012 101.1704997 141.1759988  78.3040012 102.1094997 141.3539988
  77.4610012 100.9344997 140.9059988  78.2228574 101.2671892 141.1638912
  86.0650012 110.9324997 140.3349988  85.4210012 110.3014997 140.6559988
  86.8270012 110.4014997 140.1029988  86.0798077 110.7742920 140.3476011
  90.6690012 110.7494997 140.5679988  90.9520012 109.9554997 141.0209988
  91.4090012 110.9824997 140.0079988  90.8078006 110.6723376 140.5542715
  81.6240012 106.6594997 140.4259988  81.6880012 105.8654997 140.9569988
  82.2770012 106.5404997 139.7359988  81.7210241 106.5347148 140.4054317
  86.9760012 107.7064997 140.1619988  86.7070012 107.8864997 141.0629988
  86.7700012 106.7804997 140.0299988  86.9113427 107.6060261 140.2675073
  82.7730012 104.6314997 142.7319988  82.3130012 104.1474997 143.4179988
  83.0280012 103.9634997 142.0959988  82.7444902 104.4748731 142.7399334
  83.8440012 102.8744997 140.9939988  83.6640012 102.7204997 140.0669988
  84.7940012 102.9824997 141.0389988  83.9477776 102.8680175 140.8731843
  93.2340012 105.2294997 140.4399988  92.9600012 104.8044997 139.6269988
  93.2730012 106.1604997 140.2229988  93.2017699 105.2972484 140.2993610
  83.7410012 113.5654997 141.9949988  84.6740012 113.7234997 142.1389988
  83.4770012 114.2404997 141.3709988  83.8329888 113.6784510 141.9302842
  77.3100012 108.2014997 141.4779988  78.2240012 108.2804997 141.7519988
  77.3170012 107.5144997 140.8119988  77.4361131 108.1193961 141.4254393
  94.3550012 104.0524997 142.6299988  93.8330012 104.4094997 141.9109988
  94.3220012 104.7274997 143.3079988  94.2791634 104.1925413 142.6233145
  92.7040012 101.2924997 141.1799988  92.8000012 101.9594997 140.4999988
  92.5640012 100.4764997 140.6989988  92.6982272 101.2735655 141.0218347
  91.9510012  98.7004997 140.2979988  92.5620012  98.3294997 140.9349988
  91.1150012  98.2794997 140.4939988  91.9215032  98.5927554 140.4117035
  94.0640012  97.5854997 141.8399988  94.4760012  96.8644997 141.3649988
  94.7460012  98.2554997 141.8989988  94.2125885  97.5772368 141.7828915
  77.6210012  95.6334997 142.9459988  78.0600012  96.2444997 142.3539988
  76.9880012  96.1714997 143.4199988  77.5954514  95.7899257 142.9290930
  77.5220012 111.5814997 143.8429988  76.8370012 111.5434997 143.1759988
  77.5260012 112.4944997 144.1319988  77.4286998 111.6996733 143.7906771
  79.4820012  97.5494997 141.3879988  79.9740012  96.9194997 140.8609988
  80.1060012  97.8454997 142.0509988  79.6335688  97.5033804 141.4055482
  84.5080012  97.8424997 143.8449988  84.6860012  97.1964997 144.5279988
  84.4550012  98.6764997 144.3119988  84.5251999  97.8668009 144.0015917
  86.3870012 112.7914997 142.2409988  87.2530012 113.1574997 142.0629988
  86.1400012 112.3514997 141.4269988  86.4722392 112.7821756 142.1066289
  79.3400012 112.5014997 140.8689988  79.0730012 112.7884997 141.7419988
  80.1120012 111.9554997 141.0209988  79.4077488 112.4670294 141.0091050
 105.4940012 102.6934997 141.5919988 106.1950012 102.7154997 142.2429988
 105.7970012 102.0654997 140.9349988 105.6308133 102.6117070 141.5923369
 107.7170012 103.6074997 143.1899988 108.2970012 103.7574997 143.9369988
 108.1310012 104.0784997 142.4659988 107.8522997 103.6916578 143.1944058
 111.4160012  95.3574997 143.0029988 110.5160012  95.4964997 143.2979988
 111.6680012  96.1884997 142.6009988 111.3268702  95.4889074 142.9890205
 112.6050012 109.7234997 141.3789988 112.6790012 110.6624997 141.5499988
 113.5110012 109.4184997 141.3229988 112.7375100 109.8106722 141.3948119
 108.0180012 112.4544997 142.0419988 108.3930012 111.7104997 141.5709988
 108.0220012 112.1844997 142.9609988 108.0699125 112.3160986 142.1016483
 109.1950012 104.6404997 140.8199988 109.2370012 104.4174997 139.8899988
 110.0440012 105.0394997 141.0089988 109.3155280 104.6639438 140.7183554
 104.7670012  98.5164997 141.4899988 104.5140012  98.5354997 142.4129988
 104.5110012  97.6444997 141.1879988 104.6977481  98.4012558 141.5756175
 101.6500012  98.9614997 140.5909988 101.2190012  98.5164997 141.3209988
 100.9320012  99.3334997 140.0789988 101.4939438  98.9508940 140.6216799
  96.1660012  99.4494997 143.0669988  96.6400012 100.0404997 142.4819988
  95.4490012  99.9804997 143.4139988  96.1339341  99.6020867 143.0338836
 100.2680012 101.7394997 141.9729988  99.7250012 101.3594997 141.2819988
 101.1010012 101.9334997 141.5449988 100.3063631 101.7137125 141.8204501
 103.6030012 106.3044997 143.9089988 102.8580012 105.7974997 143.5869988
 103.4690012 106.3534997 144.8559988 103.4828776 106.2416940 143.9928647
 107.5010012  99.1184997 142.1079988 106.5620012  99.2304997 141.9569988
 107.7980012  99.9754997 142.4149988 107.4127583  99.2495981 142.1288337
 108.2190012 100.9854997 143.7689988 109.1110012 100.8484997 144.0879988
 108.2760012 101.7764997 143.2319988 108.3486504 101.0736052 143.7400818
 105.7290012 107.7634997 142.9349988 105.4330012 108.5894997 143.3159988
 105.0260012 107.1434997 143.1309988 105.5934914 107.7928199 143.0136443
 113.1040012 101.1954997 143.4639988 112.5500012 100.7994997 142.7919988
 113.2040012 102.1054997 143.1859988 113.0417059 101.2643586 143.3344401
 111.3990012 109.9814997 143.9289988 111.0260012 109.1554997 144.2379988
 111.6770012 109.7984997 143.0309988 111.3855222 109.8437430 143.8499473
  96.8580012 103.9794997 141.6699988  97.4740012 104.6064997 142.0499988
  95.9960012 104.2954997 141.9419988  96.8257698 104.1079430 141.7587183
 108.7920012 107.9574997 141.7489988 109.1450012 107.5774997 142.5529988
 107.8430012 107.8644997 141.8359988 108.7120918 107.8928956 141.8708532
 113.2950012 112.4374997 141.9499988 114.0390012 113.0234997 141.8099988
 112.6010012 113.0054997 142.2829988 113.3029899 112.5945798 141.9758778
 109.6580012 106.6304997 143.9759988 109.3800012 105.9024997 144.5319988
 110.5850012 106.7494997 144.1809988 109.7453124 106.5468802 144.0798845
 102.8830012 109.0694997 140.1959988 103.1220012 108.3214997 139.6489988
 102.6140012 108.6814997 141.0289988 102.8793675 108.9146638 140.2336865
 101.8200012 108.6394997 142.6519988 101.9660012 108.1194997 143.4419988
 101.8170012 109.5464997 142.9589988 101.8395792 108.6908842 142.8016117
  98.2730012 105.8924997 143.1629988  97.5870012 106.2444997 143.7299988
  98.7950012 106.6554997 142.9159988  98.2496852 106.0438578 143.2072118
 104.5570012 110.3374997 143.4019988 103.7410012 110.8344997 143.4539988
 105.0870012 110.8124997 142.7619988 104.5169161 110.4697722 143.3225956
 101.8960012 111.3814997 143.3829988 102.0560012 112.1804997 142.8829988
 101.6980012 111.6874997 144.2679988 101.8911637 111.5324020 143.4341144
 100.6300012  98.0784997 142.9989988 100.5470012  98.9674997 143.3459988
 101.5200012  97.8134997 143.2309988 100.7389469  98.1641430 143.0777626
  98.8890012 108.5064997 142.0599988  99.4810012 109.2054997 142.3359988
  99.3480012 108.0734997 141.3399988  99.0321142 108.5437049 142.0004830
  97.2050012 101.1704997 141.1759988  97.1600012 102.1094997 141.3539988
  96.3170012 100.9344997 140.9059988  97.0788574 101.2671892 141.1638912
 104.9210012 110.9324997 140.3349988 104.2770012 110.3014997 140.6559988
 105.6830012 110.4014997 140.1029988 104.9358077 110.7742920 140.3476011
 109.5250012 110.7494997 140.5679988 109.8080012 109.9554997 141.0209988
 110.2650012 110.9824997 140.0079988 109.6638006 110.6723376 140.5542715
 100.4800012 106.6594997 140.4259988 100.5440012 105.8654997 140.9569988
 101.1330012 106.5404997 139.7359988 100.5770241 106.5347148 140.4054317
 105.8320012 107.7064997 140.1619988 105.5630012 107.8864997 141.0629988
 105.6260012 106.7804997 140.0299988 105.7673427 107.6060261 140.2675073
 101.6290012 104.6314997 142.7319988 101.1690012 104.1474997 143.4179988
 101.8840012 103.9634997 142.0959988 101.6004902 104.4748731 142.7399334
 102.7000012 102.8744997 140.9939988 102.5200012 102.7204997 140.0669988
 103.6500012 102.9824997 141.0389988 102.8037776 102.8680175 140.8731843
 112.0900012 105.2294997 140.4399988 111.8160012 104.8044997 139.6269988
 112.1290012 106.1604997 140.2229988 112.0577699 105.2972484 140.2993610
 102.5970012 113.5654997 141.9949988 103.5300012 113.7234997 142.1389988
 102.3330012 114.2404997 141.3709988 102.6889888 113.6784510 141.9302842
  96.1660012 108.2014997 141.4779988  97.0800012 108.2804997 141.7519988
  96.1730012 107.5144997 140.8119988  96.2921131 108.1193961 141.4254393
 113.2110012 104.0524997 142.6299988 112.6890012 104.4094997 141.9109988
 113.1780012 104.7274997 143.3079988 113.1351634 104.1925413 142.6233145
 111.5600012 101.2924997 141.1799988 111.6560012 101.9594997 140.4999988
 111.4200012 100.4764997 140.6989988 111.5542272 101.2735655 141.0218347
 110.8070012  98.7004997 140.2979988 111.4180012  98.3294997 140.9349988
 109.9710012  98.2794997 140.4939988 110.7775032  98.5927554 140.4117035
 112.9200012  97.5854997 141.8399988 113.3320012  96.8644997 141.3649988
 113.6020012  98.2554997 141.8989988 113.0685885  97.5772368 141.7828915
  96.4770012  95.6334997 142.9459988  96.9160012  96.2444997 142.3539988
  95.8440012  96.1714997 143.4199988  96.4514514  95.7899257 142.9290930
  96.3780012 111.5814997 143.8429988  95.6930012 111.5434997 143.1759988
  96.3820012 112.4944997 144.1319988  96.2846998 111.6996733 143.7906771
  98.3380012  97.5494997 141.3879988  98.8300012  96.9194997 140.8609988
  98.9620012  97.8454997 142.0509988  98.4895688  97.5033804 141.4055482
 103.3640012  97.8424997 143.8449988 103.5420012  97.1964997 144.5279988
 103.3110012  98.6764997 144.3119988 103.3811999  97.8668009 144.0015917
 105.2430012 112.7914997 142.2409988 106.1090012 113.1574997 142.0629988
 104.9960012 112.3514997 141.4269988 105.3282392 112.7821756 142.1066289
  98.1960012 112.5014997 140.8689988  97.9290012 112.7884997 141.7419988
  98.9680012 111.9554997 141.0209988  98.2637488 112.4670294 141.0091050
 124.3500012 102.6934997 141.5919988 125.0510012 102.7154997 142.2429988
 124.6530012 102.0654997 140.9349988 124.4868133 102.6117070 141.5923369
 126.5730012 103.6074997 143.1899988 127.1530012 103.7574997 143.9369988
 126.9870012 104.0784997 142.4659988 126.7082997 103.6916578 143.1944058
 130.2720012  95.3574997 143.0029988 129.3720012  95.4964997 143.2979988
 130.5240012  96.1884997 142.6009988 130.1828702  95.4889074 142.9890205
 131.4610012 109.7234997 141.3789988 131.5350012 110.6624997 141.5499988
 132.3670012 109.4184997 141.3229988 131.5935100 109.8106722 141.3948119
 126.8740012 112.4544997 142.0419988 127.2490012 111.7104997 141.5709988
 126.8780012 112.1844997 142.9609988 126.9259125 112.3160986 142.1016483
 128.0510012 104.6404997 140.8199988 128.0930012 104.4174997 139.8899988
 128.9000012 105.0394997 141.0089988 128.1715280 104.6639438 140.7183554
 123.6230012  98.5164997 141.4899988 123.3700012  98.5354997 142.4129988
 123.3670012  97.6444997 141.1879988 123.5537481  98.4012558 141.5756175
 120.5060012  98.9614997 140.5909988 120.0750012  98.5164997 141.3209988
 119.7880012  99.3334997 140.0789988 120.3499438  98.9508940 140.6216799
 115.0220012  99.4494997 143.0669988 115.4960012 100.0404997 142.4819988
 114.3050012  99.9804997 143.4139988 114.9899341  99.6020867 143.0338836
 119.1240012 101.7394997 141.9729988 118.5810012 101.3594997 141.2819988
 119.9570012 101.9334997 141.5449988 119.1623631 101.7137125 141.8204501
 122.4590012 106.3044997 143.9089988 121.7140012 105.7974997 143.5869988
 122.3250012 106.3534997 144.8559988 122.3388776 106.2416940 143.9928647
 126.3570012  99.1184997 142.1079988 125.4180012  99.2304997 141.9569988
 126.6540012  99.9754997 142.4149988 126.2687583  99.2495981 142.1288337
 127.0750012 100.9854997 143.7689988 127.9670012 100.8484997 144.0879988
 127.1320012 101.7764997 143.2319988 127.2046504 101.0736052 143.7400818
 124.5850012 107.7634997 142.9349988 124.2890012 108.5894997 143.3159988
 123.8820012 107.1434997 143.1309988 124.4494914 107.7928199 143.0136443
 131.9600012 101.1954997 143.4639988 131.4060012 100.7994997 142.7919988
 132.0600012 102.1054997 143.1859988 131.8977059 101.2643586 143.3344401
 130.2550012 109.9814997 143.9289988 129.8820012 109.1554997 144.2379988
 130.5330012 109.7984997 143.0309988 130.2415222 109.8437430 143.8499473
 115.7140012 103.9794997 141.6699988 116.3300012 104.6064997 142.0499988
 114.8520012 104.2954997 141.9419988 115.6817698 104.1079430 141.7587183
 127.6480012 107.9574997 141.7489988 128.0010012 107.5774997 142.5529988
 126.6990012 107.8644997 141.8359988 127.5680918 107.8928956 141.8708532
 132.1510012 112.4374997 141.9499988 132.8950012 113.0234997 141.8099988
 131.4570012 113.0054997 142.2829988 132.1589899 112.5945798 141.9758778
 128.5140012 106.6304997 143.9759988 128.2360012 105.9024997 144.5319988
 129.4410012 106.7494997 144.1809988 128.6013124 106.5468802 144.0798845
 121.7390012 109.0694997 140.1959988 121.9780012 108.3214997 139.6489988
 121.4700012 108.6814997 141.0289988 121.7353675 108.9146638 140.2336865
 120.6760012 108.6394997 142.6519988 120.8220012 108.1194997 143.4419988
 120.6730012 109.5464997 142.9589988 120.6955792 108.6908842 142.8016117
 117.1290012 105.8924997 143.1629988 116.4430012 106.2444997 143.7299988
 117.6510012 106.6554997 142.9159988 117.1056852 106.0438578 143.2072118
 123.4130012 110.3374997 143.4019988 122.5970012 110.8344997 143.4539988
 123.9430012 110.8124997 142.7619988 123.3729161 110.4697722 143.3225956
 120.7520012 111.3814997 143.3829988 120.9120012 112.1804997 142.8829988
 120.5540012 111.6874997 144.2679988 120.7471637 111.5324020 143.4341144
 119.4860012  98.0784997 142.9989988 119.4030012  98.9674997 143.3459988
 120.3760012  97.8134997 143.2309988 119.5949469  98.1641430 143.0777626
 117.7450012 108.5064997 142.0599988 118.3370012 109.2054997 142.3359988
 118.2040012 108.0734997 141.3399988 117.8881142 108.5437049 142.0004830
 116.0610012 101.1704997 141.1759988 116.0160012 102.1094997 141.3539988
 115.1730012 100.9344997 140.9059988 115.9348574 101.2671892 141.1638912
 123.7770012 110.9324997 140.3349988 123.1330012 110.3014997 140.6559988
 124.5390012 110.4014997 140.1029988 123.7918077 110.7742920 140.3476011
 128.3810012 110.7494997 140.5679988 128.6640012 109.9554997 141.0209988
 129.1210012 110.9824997 140.0079988 128.5198006 110.6723376 140.5542715
 119.3360012 106.6594997 140.4259988 119.4000012 105.8654997 140.9569988
 119.9890012 106.5404997 139.7359988 119.4330241 106.5347148 140.4054317
 124.6880012 107.7064997 140.1619988 124.4190012 107.8864997 141.0629988
 124.4820012 106.7804997 140.0299988 124.6233427 107.6060261 140.2675073
 120.4850012 104.6314997 142.7319988 120.0250012 104.1474997 143.4179988
 120.7400012 103.9634997 142.0959988 120.4564902 104.4748731 142.7399334
 121.5560012 102.8744997 140.9939988 121.3760012 102.7204997 140.0669988
 122.5060012 102.9824997 141.0389988 121.6597776 102.8680175 140.8731843
 130.9460012 105.2294997 140.4399988 130.6720012 104.8044997 139.6269988
 130.9850012 106.1604997 140.2229988 130.9137699 105.2972484 140.2993610
 121.4530012 113.5654997 141.9949988 122.3860012 113.7234997 142.1389988
 121.1890012 114.2404997 141.3709988 121.5449888 113.6784510 141.9302842
 115.0220012 108.2014997 141.4779988 115.9360012 108.2804997 141.7519988
 115.0290012 107.5144997 140.8119988 115.1481131 108.1193961 141.4254393
 132.0670012 104.0524997 142.6299988 131.5450012 104.4094997 141.9109988
 132.0340012 104.7274997 143.3079988 131.9911634 104.1925413 142.6233145
 130.4160012 101.2924997 141.1799988 130.5120012 101.9594997 140.4999988
 130.2760012 100.4764997 140.6989988 130.4102272 101.2735655 141.0218347
 129.6630012  98.7004997 140.2979988 130.2740012  98.3294997 140.9349988
 128.8270012  98.2794997 140.4939988 129.6335032  98.5927554 140.4117035
 131.7760012  97.5854997 141.8399988 132.1880012  96.8644997 141.3649988
 132.4580012  98.2554997 141.8989988 131.9245885  97.5772368 141.7828915
 115.3330012  95.6334997 142.9459988 115.7720012  96.2444997 142.3539988
 114.7000012  96.1714997 143.4199988 115.3074514  95.7899257 142.9290930
 115.2340012 111.5814997 143.8429988 114.5490012 111.5434997 143.1759988
 115.2380012 112.4944997 144.1319988 115.1406998 111.6996733 143.7906771
 117.1940012  97.5494997 141.3879988 117.6860012  96.9194997 140.8609988
 117.8180012  97.8454997 142.0509988 117.3455688  97.5033804 141.4055482
 122.2200012  97.8424997 143.8449988 122.3980012  97.1964997 144.5279988
 122.1670012  98.6764997 144.3119988 122.2371999  97.8668009 144.0015917
 124.0990012 112.7914997 142.2409988 124.9650012 113.1574997 142.0629988
 123.8520012 112.3514997 141.4269988 124.1842392 112.7821756 142.1066289
 117.0520012 112.5014997 140.8689988 116.7850012 112.7884997 141.7419988
 117.8240012 111.9554997 141.0209988 117.1197488 112.4670294 141.0091050
 143.2060012 102.6934997 141.5919988 143.9070012 102.7154997 142.2429988
 143.5090012 102.0654997 140.9349988 143.3428133 102.6117070 141.5923369
 142.4790012  98.5164997 141.4899988 142.2260012  98.5354997 142.4129988
 142.2230012  97.6444997 141.1879988 142.4097481  98.4012558 141.5756175
 139.3620012  98.9614997 140.5909988 138.9310012  98.5164997 141.3209988
 138.6440012  99.3334997 140.0789988 139.2059438  98.9508940 140.6216799
 133.8780012  99.4494997 143.0669988 134.3520012 100.0404997 142.4819988
 133.1610012  99.9804997 143.4139988 133.8459341  99.6020867 143.0338836
 137.9800012 101.7394997 141.9729988 137.4370012 101.3594997 141.2819988
 138.8130012 101.9334997 141.5449988 138.0183631 101.7137125 141.8204501
 141.3150012 106.3044997 143.9089988 140.5700012 105.7974997 143.5869988
 141.1810012 106.3534997 144.8559988 141.1948776 106.2416940 143.9928647
 143.4410012 107.7634997 142.9349988 143.1450012 108.5894997 143.3159988
 142.7380012 107.1434997 143.1309988 143.3054914 107.7928199 143.0136443
 134.5700012 103.9794997 141.6699988 135.1860012 104.6064997 142.0499988
 133.7080012 104.2954997 141.9419988 134.5377698 104.1079430 141.7587183
 140.5950012 109.0694997 140.1959988 140.8340012 108.3214997 139.6489988
 140.3260012 108.6814997 141.0289988 140.5913675 108.9146638 140.2336865
 139.5320012 108.6394997 142.6519988 139.6780012 108.1194997 143.4419988
 139.5290012 109.5464997 142.9589988 139.5515792 108.6908842 142.8016117
 135.9850012 105.8924997 143.1629988 135.2990012 106.2444997 143.7299988
 136.5070012 106.6554997 142.9159988 135.9616852 106.0438578 143.2072118
 142.2690012 110.3374997 143.4019988 141.4530012 110.8344997 143.4539988
 142.7990012 110.8124997 142.7619988 142.2289161 110.4697722 143.3225956
 139.6080012 111.3814997 143.3829988 139.7680012 112.1804997 142.8829988
 139.4100012 111.6874997 144.2679988 139.6031637 111.5324020 143.4341144
 138.3420012  98.0784997 142.9989988 138.2590012  98.9674997 143.3459988
 139.2320012  97.8134997 143.2309988 138.4509469  98.1641430 143.0777626
 136.6010012 108.5064997 142.0599988 137.1930012 109.2054997 142.3359988
 137.0600012 108.0734997 141.3399988 136.7441142 108.5437049 142.0004830
 134.9170012 101.1704997 141.1759988 134.8720012 102.1094997 141.3539988
 134.0290012 100.9344997 140.9059988 134.7908574 101.2671892 141.1638912
 142.6330012 110.9324997 140.3349988 141.9890012 110.3014997 140.6559988
 143.3950012 110.4014997 140.1029988 142.6478077 110.7742920 140.3476011
 138.1920012 106.6594997 140.4259988 138.2560012 105.8654997 140.9569988
 138.8450012 106.5404997 139.7359988 138.2890241 106.5347148 140.4054317
 143.5440012 107.7064997 140.1619988 143.2750012 107.8864997 141.0629988
 143.3380012 106.7804997 140.0299988 143.4793427 107.6060261 140.2675073
 139.3410012 104.6314997 142.7319988 138.8810012 104.1474997 143.4179988
 139.5960012 103.9634997 142.0959988 139.3124902 104.4748731 142.7399334
 140.4120012 102.8744997 140.9939988 140.2320012 102.7204997 140.0669988
 141.3620012 102.9824997 141.0389988 140.5157776 102.8680175 140.8731843
 140.3090012 113.5654997 141.9949988 141.2420012 113.7234997 142.1389988
 140.0450012 114.2404997 141.3709988 140.4009888 113.6784510 141.9302842
 133.8780012 108.2014997 141.4779988 134.7920012 108.2804997 141.7519988
 133.8850012 107.5144997 140.8119988 134.0041131 108.1193961 141.4254393
 134.1890012  95.6334997 142.9459988 134.6280012  96.2444997 142.3539988
 133.5560012  96.1714997 143.4199988 134.1634514  95.7899257 142.9290930
 134.0900012 111.5814997 143.8429988 133.4050012 111.5434997 143.1759988
 134.0940012 112.4944997 144.1319988 133.9966998 111.6996733 143.7906771
 136.0500012  97.5494997 141.3879988 136.5420012  96.9194997 140.8609988
 136.6740012  97.8454997 142.0509988 136.2015688  97.5033804 141.4055482
 141.0760012  97.8424997 143.8449988 141.2540012  97.1964997 144.5279988
 141.0230012  98.6764997 144.3119988 141.0931999  97.8668009 144.0015917
 142.9550012 112.7914997 142.2409988 143.8210012 113.1574997 142.0629988
 142.7080012 112.3514997 141.4269988 143.0402392 112.7821756 142.1066289
 135.9080012 112.5014997 140.8689988 135.6410012 112.7884997 141.7419988
 136.6800012 111.9554997 141.0209988 135.9757488 112.4670294 141.0091050
  11.2140012 121.5494997 141.5919988  11.9150012 121.5714997 142.2429988
  11.5170012 120.9214997 140.9349988  11.3508133 121.4677070 141.5923369
  13.4370012 122.4634997 143.1899988  14.0170012 122.6134997 143.9369988
  13.8510012 122.9344997 142.4659988  13.5722997 122.5476578 143.1944058
  17.1360012 114.2134997 143.0029988  16.2360012 114.3524997 143.2979988
  17.3880012 115.0444997 142.6009988  17.0468702 114.3449074 142.9890205
  18.3250012 128.5794997 141.3789988  18.3990012 129.5184997 141.5499988
  19.2310012 128.2744997 141.3229988  18.4575100 128.6666722 141.3948119
  13.7380012 131.3104997 142.0419988  14.1130012 130.5664997 141.5709988
  13.7420012 131.0404997 142.9609988  13.7899125 131.1720986 142.1016483
  14.9150012 123.4964997 140.8199988  14.9570012 123.2734997 139.8899988
  15.7640012 123.8954997 141.0089988  15.0355280 123.5199438 140.7183554
  10.4870012 117.3724997 141.4899988  10.2340012 117.3914997 142.4129988
  10.2310012 116.5004997 141.1879988  10.4177481 117.2572558 141.5756175
   7.3700012 117.8174997 140.5909988   6.9390012 117.3724997 141.3209988
   6.6520012 118.1894997 140.0789988   7.2139438 117.8068940 140.6216799
   1.8860012 118.3054997 143.0669988   2.3600012 118.8964997 142.4819988
   1.1690012 118.8364997 143.4139988   1.8539341 118.4580867 143.0338836
   5.9880012 120.5954997 141.9729988   5.4450012 120.2154997 141.2819988
   6.8210012 120.7894997 141.5449988   6.0263631 120.5697125 141.8204501
   9.3230012 125.1604997 143.9089988   8.5780012 124.6534997 143.5869988
   9.1890012 125.2094997 144.8559988   9.2028776 125.0976940 143.9928647
  13.2210012 117.9744997 142.1079988  12.2820012 118.0864997 141.9569988
  13.5180012 118.8314997 142.4149988  13.1327583 118.1055981 142.1288337
  13.9390012 119.8414997 143.7689988  14.8310012 119.7044997 144.0879988
  13.9960012 120.6324997 143.2319988  14.0686504 119.9296052 143.7400818
  11.4490012 126.6194997 142.9349988  11.1530012 127.4454997 143.3159988
  10.7460012 125.9994997 143.1309988  11.3134914 126.6488199 143.0136443
  18.8240012 120.0514997 143.4639988  18.2700012 119.6554997 142.7919988
  18.9240012 120.9614997 143.1859988  18.7617059 120.1203586 143.3344401
  17.1190012 128.8374997 143.9289988  16.7460012 128.0114997 144.2379988
  17.3970012 128.6544997 143.0309988  17.1055222 128.6997430 143.8499473
   2.5780012 122.8354997 141.6699988   3.1940012 123.4624997 142.0499988
   1.7160012 123.1514997 141.9419988   2.5457698 122.9639430 141.7587183
  14.5120012 126.8134997 141.7489988  14.8650012 126.4334997 142.5529988
  13.5630012 126.7204997 141.8359988  14.4320918 126.7488956 141.8708532
  19.0150012 131.2934997 141.9499988  19.7590012 131.8794997 141.8099988
  18.3210012 131.8614997 142.2829988  19.0229899 131.4505798 141.9758778
  15.3780012 125.4864997 143.9759988  15.1000012 124.7584997 144.5319988
  16.3050012 125.6054997 144.1809988  15.4653124 125.4028802 144.0798845
   8.6030012 127.9254997 140.1959988   8.8420012 127.1774997 139.6489988
   8.3340012 127.5374997 141.0289988   8.5993675 127.7706638 140.2336865
   7.5400012 127.4954997 142.6519988   7.6860012 126.9754997 143.4419988
   7.5370012 128.4024997 142.9589988   7.5595792 127.5468842 142.8016117
   3.9930012 124.7484997 143.1629988   3.3070012 125.1004997 143.7299988
   4.5150012 125.5114997 142.9159988   3.9696852 124.8998578 143.2072118
  10.2770012 129.1934997 143.4019988   9.4610012 129.6904997 143.4539988
  10.8070012 129.6684997 142.7619988  10.2369161 129.3257722 143.3225956
   7.6160012 130.2374997 143.3829988   7.7760012 131.0364997 142.8829988
   7.4180012 130.5434997 144.2679988   7.6111637 130.3884020 143.4341144
   6.3500012 116.9344997 142.9989988   6.2670012 117.8234997 143.3459988
   7.2400012 116.6694997 143.2309988   6.4589469 117.0201430 143.0777626
   4.6090012 127.3624997 142.0599988   5.2010012 128.0614997 142.3359988
   5.0680012 126.9294997 141.3399988   4.7521142 127.3997049 142.0004830
   2.9250012 120.0264997 141.1759988   2.8800012 120.9654997 141.3539988
   2.0370012 119.7904997 140.9059988   2.7988574 120.1231892 141.1638912
  10.6410012 129.7884997 140.3349988   9.9970012 129.1574997 140.6559988
  11.4030012 129.2574997 140.1029988  10.6558077 129.6302920 140.3476011
  15.2450012 129.6054997 140.5679988  15.5280012 128.8114997 141.0209988
  15.9850012 129.8384997 140.0079988  15.3838006 129.5283376 140.5542715
   6.2000012 125.5154997 140.4259988   6.2640012 124.7214997 140.9569988
   6.8530012 125.3964997 139.7359988   6.2970241 125.3907148 140.4054317
  11.5520012 126.5624997 140.1619988  11.2830012 126.7424997 141.0629988
  11.3460012 125.6364997 140.0299988  11.4873427 126.4620261 140.2675073
   7.3490012 123.4874997 142.7319988   6.8890012 123.0034997 143.4179988
   7.6040012 122.8194997 142.0959988   7.3204902 123.3308731 142.7399334
   8.4200012 121.7304997 140.9939988   8.2400012 121.5764997 140.0669988
   9.3700012 121.8384997 141.0389988   8.5237776 121.7240175 140.8731843
  17.8100012 124.0854997 140.4399988  17.5360012 123.6604997 139.6269988
  17.8490012 125.0164997 140.2229988  17.7777699 124.1532484 140.2993610
   8.3170012 132.4214997 141.9949988   9.2500012 132.5794997 142.1389988
   8.0530012 133.0964997 141.3709988   8.4089888 132.5344510 141.9302842
   1.8860012 127.0574997 141.4779988   2.8000012 127.1364997 141.7519988
   1.8930012 126.3704997 140.8119988   2.0121131 126.9753961 141.4254393
  18.9310012 122.9084997 142.6299988  18.4090012 123.2654997 141.9109988
  18.8980012 123.5834997 143.3079988  18.8551634 123.0485413 142.6233145
  17.2800012 120.1484997 141.1799988  17.3760012 120.8154997 140.4999988
  17.1400012 119.3324997 140.6989988  17.2742272 120.1295655 141.0218347
  16.5270012 117.5564997 140.2979988  17.1380012 117.1854997 140.9349988
  15.6910012 117.1354997 140.4939988  16.4975032 117.4487554 140.4117035
  18.6400012 116.4414997 141.8399988  19.0520012 115.7204997 141.3649988
  19.3220012 117.1114997 141.8989988  18.7885885 116.4332368 141.7828915
   2.1970012 114.4894997 142.9459988   2.6360012 115.1004997 142.3539988
   1.5640012 115.0274997 143.4199988   2.1714514 114.6459257 142.9290930
   2.0980012 130.4374997 143.8429988   1.4130012 130.3994997 143.1759988
   2.1020012 131.3504997 144.1319988   2.0046998 130.5556733 143.7906771
   4.0580012 116.4054997 141.3879988   4.5500012 115.7754997 140.8609988
   4.6820012 116.7014997 142.0509988   4.2095688 116.3593804 141.4055482
   9.0840012 116.6984997 143.8449988   9.2620012 116.0524997 144.5279988
   9.0310012 117.5324997 144.3119988   9.1011999 116.7228009 144.0015917
  10.9630012 131.6474997 142.2409988  11.8290012 132.0134997 142.0629988
  10.7160012 131.2074997 141.4269988  11.0482392 131.6381756 142.1066289
   3.9160012 131.3574997 140.8689988   3.6490012 131.6444997 141.7419988
   4.6880012 130.8114997 141.0209988   3.9837488 131.3230294 141.0091050
  30.0700012 121.5494997 141.5919988  30.7710012 121.5714997 142.2429988
  30.3730012 120.9214997 140.9349988  30.2068133 121.4677070 141.5923369
  32.2930012 122.4634997 143.1899988  32.8730012 122.6134997 143.9369988
  32.7070012 122.9344997 142.4659988  32.4282997 122.5476578 143.1944058
  35.9920012 114.2134997 143.0029988  35.0920012 114.3524997 143.2979988
  36.2440012 115.0444997 142.6009988  35.9028702 114.3449074 142.9890205
  37.1810012 128.5794997 141.3789988  37.2550012 129.5184997 141.5499988
  38.0870012 128.2744997 141.3229988  37.3135100 128.6666722 141.3948119
  32.5940012 131.3104997 142.0419988  32.9690012 130.5664997 141.5709988
  32.5980012 131.0404997 142.9609988  32.6459125 131.1720986 142.1016483
  33.7710012 123.4964997 140.8199988  33.8130012 123.2734997 139.8899988
  34.6200012 123.8954997 141.0089988  33.8915280 123.5199438 140.7183554
  29.3430012 117.3724997 141.4899988  29.0900012 117.3914997 142.4129988
  29.0870012 116.5004997 141.1879988  29.2737481 117.2572558 141.5756175
  26.2260012 117.8174997 140.5909988  25.7950012 117.3724997 141.3209988
  25.5080012 118.1894997 140.0789988  26.0699438 117.8068940 140.6216799
  20.7420012 118.3054997 143.0669988  21.2160012 118.8964997 142.4819988
  20.0250012 118.8364997 143.4139988  20.7099341 118.4580867 143.0338836
  24.8440012 120.5954997 141.9729988  24.3010012 120.2154997 141.2819988
  25.6770012 120.7894997 141.5449988  24.8823631 120.5697125 141.8204501
  28.1790012 125.1604997 143.9089988  27.4340012 124.6534997 143.5869988
  28.0450012 125.2094997 144.8559988  28.0588776 125.0976940 143.9928647
  32.0770012 117.9744997 142.1079988  31.1380012 118.0864997 141.9569988
  32.3740012 118.8314997 142.4149988  31.9887583 118.1055981 142.1288337
  32.7950012 119.8414997 143.7689988  33.6870012 119.7044997 144.0879988
  32.8520012 120.6324997 143.2319988  32.9246504 119.9296052 143.7400818
  30.3050012 126.6194997 142.9349988  30.0090012 127.4454997 143.3159988
  29.6020012 125.9994997 143.1309988  30.1694914 126.6488199 143.0136443
  37.6800012 120.0514997 143.4639988  37.1260012 119.6554997 142.7919988
  37.7800012 120.9614997 143.1859988  37.6177059 120.1203586 143.3344401
  35.9750012 128.8374997 143.9289988  35.6020012 128.0114997 144.2379988
  36.2530012 128.6544997 143.0309988  35.9615222 128.6997430 143.8499473
  21.4340012 122.8354997 141.6699988  22.0500012 123.4624997 142.0499988
  20.5720012 123.1514997 141.9419988  21.4017698 122.9639430 141.7587183
  33.3680012 126.8134997 141.7489988  33.7210012 126.4334997 142.5529988
  32.4190012 126.7204997 141.8359988  33.2880918 126.7488956 141.8708532
  37.8710012 131.2934997 141.9499988  38.6150012 131.8794997 141.8099988
  37.1770012 131.8614997 142.2829988  37.8789899 131.4505798 141.9758778
  34.2340012 125.4864997 143.9759988  33.9560012 124.7584997 144.5319988
  35.1610012 125.6054997 144.1809988  34.3213124 125.4028802 144.0798845
  27.4590012 127.9254997 140.1959988  27.6980012 127.1774997 139.6489988
  27.1900012 127.5374997 141.0289988  27.4553675 127.7706638 140.2336865
  26.3960012 127.4954997 142.6519988  26.5420012 126.9754997 143.4419988
  26.3930012 128.4024997 142.9589988  26.4155792 127.5468842 142.8016117
  22.8490012 124.7484997 143.1629988  22.1630012 125.1004997 143.7299988
  23.3710012 125.5114997 142.9159988  22.8256852 124.8998578 143.2072118
  29.1330012 129.1934997 143.4019988  28.3170012 129.6904997 143.4539988
  29.6630012 129.6684997 142.7619988  29.0929161 129.3257722 143.3225956
  26.4720012 130.2374997 143.3829988  26.6320012 131.0364997 142.8829988
  26.2740012 130.5434997 144.2679988  26.4671637 130.3884020 143.4341144
  25.2060012 116.9344997 142.9989988  25.1230012 117.8234997 143.3459988
  26.0960012 116.6694997 143.2309988  25.3149469 117.0201430 143.0777626
  23.4650012 127.3624997 142.0599988  24.0570012 128.0614997 142.3359988
  23.9240012 126.9294997 141.3399988  23.6081142 127.3997049 142.0004830
  21.7810012 120.0264997 141.1759988  21.7360012 120.9654997 141.3539988
  20.8930012 119.7904997 140.9059988  21.6548574 120.1231892 141.1638912
  29.4970012 129.7884997 140.3349988  28.8530012 129.1574997 140.6559988
  30.2590012 129.2574997 140.1029988  29.5118077 129.6302920 140.3476011
  34.1010012 129.6054997 140.5679988  34.3840012 128.8114997 141.0209988
  34.8410012 129.8384997 140.0079988  34.2398006 129.5283376 140.5542715
  25.0560012 125.5154997 140.4259988  25.1200012 124.7214997 140.9569988
  25.7090012 125.3964997 139.7359988  25.1530241 125.3907148 140.4054317
  30.4080012 126.5624997 140.1619988  30.1390012 126.7424997 141.0629988
  30.2020012 125.6364997 140.0299988  30.3433427 126.4620261 140.2675073
  26.2050012 123.4874997 142.7319988  25.7450012 123.0034997 143.4179988
  26.4600012 122.8194997 142.0959988  26.1764902 123.3308731 142.7399334
  27.2760012 121.7304997 140.9939988  27.0960012 121.5764997 140.0669988
  28.2260012 121.8384997 141.0389988  27.3797776 121.7240175 140.8731843
  36.6660012 124.0854997 140.4399988  36.3920012 123.6604997 139.6269988
  36.7050012 125.0164997 140.2229988  36.6337699 124.1532484 140.2993610
  27.1730012 132.4214997 141.9949988  28.1060012 132.5794997 142.1389988
  26.9090012 133.0964997 141.3709988  27.2649888 132.5344510 141.9302842
  20.7420012 127.0574997 141.4779988  21.6560012 127.1364997 141.7519988
  20.7490012 126.3704997 140.8119988  20.8681131 126.9753961 141.4254393
  37.7870012 122.9084997 142.6299988  37.2650012 123.2654997 141.9109988
  37.7540012 123.5834997 143.3079988  37.7111634 123.0485413 142.6233145
  36.1360012 120.1484997 141.1799988  36.2320012 120.8154997 140.4999988
  35.9960012 119.3324997 140.6989988  36.1302272 120.1295655 141.0218347
  35.3830012 117.5564997 140.2979988  35.9940012 117.1854997 140.9349988
  34.5470012 117.1354997 140.4939988  35.3535032 117.4487554 140.4117035
  37.4960012 116.4414997 141.8399988  37.9080012 115.7204997 141.3649988
  38.1780012 117.1114997 141.8989988  37.6445885 116.4332368 141.7828915
  21.0530012 114.4894997 142.9459988  21.4920012 115.1004997 142.3539988
  20.4200012 115.0274997 143.4199988  21.0274514 114.6459257 142.9290930
  20.9540012 130.4374997 143.8429988  20.2690012 130.3994997 143.1759988
  20.9580012 131.3504997 144.1319988  20.8606998 130.5556733 143.7906771
  22.9140012 116.4054997 141.3879988  23.4060012 115.7754997 140.8609988
  23.5380012 116.7014997 142.0509988  23.0655688 116.3593804 141.4055482
  27.9400012 116.6984997 143.8449988  28.1180012 116.0524997 144.5279988
  27.8870012 117.5324997 144.3119988  27.9571999 116.7228009 144.0015917
  29.8190012 131.6474997 142.2409988  30.6850012 132.0134997 142.0629988
  29.5720012 131.2074997 141.4269988  29.9042392 131.6381756 142.1066289
  22.7720012 131.3574997 140.8689988  22.5050012 131.6444997 141.7419988
  23.5440012 130.8114997 141.0209988  22.8397488 131.3230294 141.0091050
  48.9260012 121.5494997 141.5919988  49.6270012 121.5714997 142.2429988
  49.2290012 120.9214997 140.9349988  49.0628133 121.4677070 141.5923369
  51.1490012 122.4634997 143.1899988  51.7290012 122.6134997 143.9369988
  51.5630012 122.9344997 142.4659988  51.2842997 122.5476578 143.1944058
  54.8480012 114.2134997 143.0029988  53.9480012 114.3524997 143.2979988
  55.1000012 115.0444997 142.6009988  54.7588702 114.3449074 142.9890205
  56.0370012 128.5794997 141.3789988  56.1110012 129.5184997 141.5499988
  56.9430012 128.2744997 141.3229988  56.1695100 128.6666722 141.3948119
  51.4500012 131.3104997 142.0419988  51.8250012 130.5664997 141.5709988
  51.4540012 131.0404997 142.9609988  51.5019125 131.1720986 142.1016483
  52.6270012 123.4964997 140.8199988  52.6690012 123.2734997 139.8899988
  53.4760012 123.8954997 141.0089988  52.7475280 123.5199438 140.7183554
  48.1990012 117.3724997 141.4899988  47.9460012 117.3914997 142.4129988
  47.9430012 116.5004997 141.1879988  48.1297481 117.2572558 141.5756175
  45.0820012 117.8174997 140.5909988  44.6510012 117.3724997 141.3209988
  44.3640012 118.1894997 140.0789988  44.9259438 117.8068940 140.6216799
  39.5980012 118.3054997 143.0669988  40.0720012 118.8964997 142.4819988
  38.8810012 118.8364997 143.4139988  39.5659341 118.4580867 143.0338836
  43.7000012 120.5954997 141.9729988  43.1570012 120.2154997 141.2819988
  44.5330012 120.7894997 141.5449988  43.7383631 120.5697125 141.8204501
  47.0350012 125.1604997 143.9089988  46.2900012 124.6534997 143.5869988
  46.9010012 125.2094997 144.8559988  46.9148776 125.0976940 143.9928647
  50.9330012 117.9744997 142.1079988  49.9940012 118.0864997 141.9569988
  51.2300012 118.8314997 142.4149988  50.8447583 118.1055981 142.1288337
  51.6510012 119.8414997 143.7689988  52.5430012 119.7044997 144.0879988
  51.7080012 120.6324997 143.2319988  51.7806504 119.9296052 143.7400818
  49.1610012 126.6194997 142.9349988  48.8650012 127.4454997 143.3159988
  48.4580012 125.9994997 143.1309988  49.0254914 126.6488199 143.0136443
  56.5360012 120.0514997 143.4639988  55.9820012 119.6554997 142.7919988
  56.6360012 120.9614997 143.1859988  56.4737059 120.1203586 143.3344401
  54.8310012 128.8374997 143.9289988  54.4580012 128.0114997 144.2379988
  55.1090012 128.6544997 143.0309988  54.8175222 128.6997430 143.8499473
  40.2900012 122.8354997 141.6699988  40.9060012 123.4624997 142.0499988
  39.4280012 123.1514997 141.9419988  40.2577698 122.9639430 141.7587183
  52.2240012 126.8134997 141.7489988  52.5770012 126.4334997 142.5529988
  51.2750012 126.7204997 141.8359988  52.1440918 126.7488956 141.8708532
  56.7270012 131.2934997 141.9499988  57.4710012 131.8794997 141.8099988
  56.0330012 131.8614997 142.2829988  56.7349899 131.4505798 141.9758778
  53.0900012 125.4864997 143.9759988  52.8120012 124.7584997 144.5319988
  54.0170012 125.6054997 144.1809988  53.1773124 125.4028802 144.0798845
  46.3150012 127.9254997 140.1959988  46.5540012 127.1774997 139.6489988
  46.0460012 127.5374997 141.0289988  46.3113675 127.7706638 140.2336865
  45.2520012 127.4954997 142.6519988  45.3980012 126.9754997 143.4419988
  45.2490012 128.4024997 142.9589988  45.2715792 127.5468842 142.8016117
  41.7050012 124.7484997 143.1629988  41.0190012 125.1004997 143.7299988
  42.2270012 125.5114997 142.9159988  41.6816852 124.8998578 143.2072118
  47.9890012 129.1934997 143.4019988  47.1730012 129.6904997 143.4539988
  48.5190012 129.6684997 142.7619988  47.9489161 129.3257722 143.3225956
  45.3280012 130.2374997 143.3829988  45.4880012 131.0364997 142.8829988
  45.1300012 130.5434997 144.2679988  45.3231637 130.3884020 143.4341144
  44.0620012 116.9344997 142.9989988  43.9790012 117.8234997 143.3459988
  44.9520012 116.6694997 143.2309988  44.1709469 117.0201430 143.0777626
  42.3210012 127.3624997 142.0599988  42.9130012 128.0614997 142.3359988
  42.7800012 126.9294997 141.3399988  42.4641142 127.3997049 142.0004830
  40.6370012 120.0264997 141.1759988  40.5920012 120.9654997 141.3539988
  39.7490012 119.7904997 140.9059988  40.5108574 120.1231892 141.1638912
  48.3530012 129.7884997 140.3349988  47.7090012 129.1574997 140.6559988
  49.1150012 129.2574997 140.1029988  48.3678077 129.6302920 140.3476011
  52.9570012 129.6054997 140.5679988  53.2400012 128.8114997 141.0209988
  53.6970012 129.8384997 140.0079988  53.0958006 129.5283376 140.5542715
  43.9120012 125.5154997 140.4259988  43.9760012 124.7214997 140.9569988
  44.5650012 125.3964997 139.7359988  44.0090241 125.3907148 140.4054317
  49.2640012 126.5624997 140.1619988  48.9950012 126.7424997 141.0629988
  49.0580012 125.6364997 140.0299988  49.1993427 126.4620261 140.2675073
  45.0610012 123.4874997 142.7319988  44.6010012 123.0034997 143.4179988
  45.3160012 122.8194997 142.0959988  45.0324902 123.3308731 142.7399334
  46.1320012 121.7304997 140.9939988  45.9520012 121.5764997 140.0669988
  47.0820012 121.8384997 141.0389988  46.2357776 121.7240175 140.8731843
  55.5220012 124.0854997 140.4399988  55.2480012 123.6604997 139.6269988
  55.5610012 125.0164997 140.2229988  55.4897699 124.1532484 140.2993610
  46.0290012 132.4214997 141.9949988  46.9620012 132.5794997 142.1389988
  45.7650012 133.0964997 141.3709988  46.1209888 132.5344510 141.9302842
  39.5980012 127.0574997 141.4779988  40.5120012 127.1364997 141.7519988
  39.6050012 126.3704997 140.8119988  39.7241131 126.9753961 141.4254393
  56.6430012 122.9084997 142.6299988  56.1210012 123.2654997 141.9109988
  56.6100012 123.5834997 143.3079988  56.5671634 123.0485413 142.6233145
  54.9920012 120.1484997 141.1799988  55.0880012 120.8154997 140.4999988
  54.8520012 119.3324997 140.6989988  54.9862272 120.1295655 141.0218347
  54.2390012 117.5564997 140.2979988  54.8500012 117.1854997 140.9349988
  53.4030012 117.1354997 140.4939988  54.2095032 117.4487554 140.4117035
  56.3520012 116.4414997 141.8399988  56.7640012 115.7204997 141.3649988
  57.0340012 117.1114997 141.8989988  56.5005885 116.4332368 141.7828915
  39.9090012 114.4894997 142.9459988  40.3480012 115.1004997 142.3539988
  39.2760012 115.0274997 143.4199988  39.8834514 114.6459257 142.9290930
  39.8100012 130.4374997 143.8429988  39.1250012 130.3994997 143.1759988
  39.8140012 131.3504997 144.1319988  39.7166998 130.5556733 143.7906771
  41.7700012 116.4054997 141.3879988  42.2620012 115.7754997 140.8609988
  42.3940012 116.7014997 142.0509988  41.9215688 116.3593804 141.4055482
  46.7960012 116.6984997 143.8449988  46.9740012 116.0524997 144.5279988
  46.7430012 117.5324997 144.3119988  46.8131999 116.7228009 144.0015917
  48.6750012 131.6474997 142.2409988  49.5410012 132.0134997 142.0629988
  48.4280012 131.2074997 141.4269988  48.7602392 131.6381756 142.1066289
  41.6280012 131.3574997 140.8689988  41.3610012 131.6444997 141.7419988
  42.4000012 130.8114997 141.0209988  41.6957488 131.3230294 141.0091050
  67.7820012 121.5494997 141.5919988  68.4830012 121.5714997 142.2429988
  68.0850012 120.9214997 140.9349988  67.9188133 121.4677070 141.5923369
  70.0050012 122.4634997 143.1899988  70.5850012 122.6134997 143.9369988
  70.4190012 122.9344997 142.4659988  70.1402997 122.5476578 143.1944058
  73.7040012 114.2134997 143.0029988  72.8040012 114.3524997 143.2979988
  73.9560012 115.0444997 142.6009988  73.6148702 114.3449074 142.9890205
  74.8930012 128.5794997 141.3789988  74.9670012 129.5184997 141.5499988
  75.7990012 128.2744997 141.3229988  75.0255100 128.6666722 141.3948119
  70.3060012 131.3104997 142.0419988  70.6810012 130.5664997 141.5709988
  70.3100012 131.0404997 142.9609988  70.3579125 131.1720986 142.1016483
  71.4830012 123.4964997 140.8199988  71.5250012 123.2734997 139.8899988
  72.3320012 123.8954997 141.0089988  71.6035280 123.5199438 140.7183554
  67.0550012 117.3724997 141.4899988  66.8020012 117.3914997 142.4129988
  66.7990012 116.5004997 141.1879988  66.9857481 117.2572558 141.5756175
  63.9380012 117.8174997 140.5909988  63.5070012 117.3724997 141.3209988
  63.2200012 118.1894997 140.0789988  63.7819438 117.8068940 140.6216799
  58.4540012 118.3054997 143.0669988  58.9280012 118.8964997 142.4819988
  57.7370012 118.8364997 143.4139988  58.4219341 118.4580867 143.0338836
  62.5560012 120.5954997 141.9729988  62.0130012 120.2154997 141.2819988
  63.3890012 120.7894997 141.5449988  62.5943631 120.5697125 141.8204501
  65.8910012 125.1604997 143.9089988  65.1460012 124.6534997 143.5869988
  65.7570012 125.2094997 144.8559988  65.7708776 125.0976940 143.9928647
  69.7890012 117.9744997 142.1079988  68.8500012 118.0864997 141.9569988
  70.0860012 118.8314997 142.4149988  69.7007583 118.1055981 142.1288337
  70.5070012 119.8414997 143.7689988  71.3990012 119.7044997 144.0879988
  70.5640012 120.6324997 143.2319988  70.6366504 119.9296052 143.7400818
  68.0170012 126.6194997 142.9349988  67.7210012 127.4454997 143.3159988
  67.3140012 125.9994997 143.1309988  67.8814914 126.6488199 143.0136443
  75.3920012 120.0514997 143.4639988  74.8380012 119.6554997 142.7919988
  75.4920012 120.9614997 143.1859988  75.3297059 120.1203586 143.3344401
  73.6870012 128.8374997 143.9289988  73.3140012 128.0114997 144.2379988
  73.9650012 128.6544997 143.0309988  73.6735222 128.6997430 143.8499473
  59.1460012 122.8354997 141.6699988  59.7620012 123.4624997 142.0499988
  58.2840012 123.1514997 141.9419988  59.1137698 122.9639430 141.7587183
  71.0800012 126.8134997 141.7489988  71.4330012 126.4334997 142.5529988
  70.1310012 126.7204997 141.8359988  71.0000918 126.7488956 141.8708532
  75.5830012 131.2934997 141.9499988  76.3270012 131.8794997 141.8099988
  74.8890012 131.8614997 142.2829988  75.5909899 131.4505798 141.9758778
  71.9460012 125.4864997 143.9759988  71.6680012 124.7584997 144.5319988
  72.8730012 125.6054997 144.1809988  72.0333124 125.4028802 144.0798845
  65.1710012 127.9254997 140.1959988  65.4100012 127.1774997 139.6489988
  64.9020012 127.5374997 141.0289988  65.1673675 127.7706638 140.2336865
  64.1080012 127.4954997 142.6519988  64.2540012 126.9754997 143.4419988
  64.1050012 128.4024997 142.9589988  64.1275792 127.5468842 142.8016117
  60.5610012 124.7484997 143.1629988  59.8750012 125.1004997 143.7299988
  61.0830012 125.5114997 142.9159988  60.5376852 124.8998578 143.2072118
  66.8450012 129.1934997 143.4019988  66.0290012 129.6904997 143.4539988
  67.3750012 129.6684997 142.7619988  66.8049161 129.3257722 143.3225956
  64.1840012 130.2374997 143.3829988  64.3440012 131.0364997 142.8829988
  63.9860012 130.5434997 144.2679988  64.1791637 130.3884020 143.4341144
  62.9180012 116.9344997 142.9989988  62.8350012 117.8234997 143.3459988
  63.8080012 116.6694997 143.2309988  63.0269469 117.0201430 143.0777626
  61.1770012 127.3624997 142.0599988  61.7690012 128.0614997 142.3359988
  61.6360012 126.9294997 141.3399988  61.3201142 127.3997049 142.0004830
  59.4930012 120.0264997 141.1759988  59.4480012 120.9654997 141.3539988
  58.6050012 119.7904997 140.9059988  59.3668574 120.1231892 141.1638912
  67.2090012 129.7884997 140.3349988  66.5650012 129.1574997 140.6559988
  67.9710012 129.2574997 140.1029988  67.2238077 129.6302920 140.3476011
  71.8130012 129.6054997 140.5679988  72.0960012 128.8114997 141.0209988
  72.5530012 129.8384997 140.0079988  71.9518006 129.5283376 140.5542715
  62.7680012 125.5154997 140.4259988  62.8320012 124.7214997 140.9569988
  63.4210012 125.3964997 139.7359988  62.8650241 125.3907148 140.4054317
  68.1200012 126.5624997 140.1619988  67.8510012 126.7424997 141.0629988
  67.9140012 125.6364997 140.0299988  68.0553427 126.4620261 140.2675073
  63.9170012 123.4874997 142.7319988  63.4570012 123.0034997 143.4179988
  64.1720012 122.8194997 142.0959988  63.8884902 123.3308731 142.7399334
  64.9880012 121.7304997 140.9939988  64.8080012 121.5764997 140.0669988
  65.9380012 121.8384997 141.0389988  65.0917776 121.7240175 140.8731843
  74.3780012 124.0854997 140.4399988  74.1040012 123.6604997 139.6269988
  74.4170012 125.0164997 140.2229988  74.3457699 124.1532484 140.2993610
  64.8850012 132.4214997 141.9949988  65.8180012 132.5794997 142.1389988
  64.6210012 133.0964997 141.3709988  64.9769888 132.5344510 141.9302842
  58.4540012 127.0574997 141.4779988  59.3680012 127.1364997 141.7519988
  58.4610012 126.3704997 140.8119988  58.5801131 126.9753961 141.4254393
  75.4990012 122.9084997 142.6299988  74.9770012 123.2654997 141.9109988
  75.4660012 123.5834997 143.3079988  75.4231634 123.0485413 142.6233145
  73.8480012 120.1484997 141.1799988  73.9440012 120.8154997 140.4999988
  73.7080012 119.3324997 140.6989988  73.8422272 120.1295655 141.0218347
  73.0950012 117.5564997 140.2979988  73.7060012 117.1854997 140.9349988
  72.2590012 117.1354997 140.4939988  73.0655032 117.4487554 140.4117035
  75.2080012 116.4414997 141.8399988  75.6200012 115.7204997 141.3649988
  75.8900012 117.1114997 141.8989988  75.3565885 116.4332368 141.7828915
  58.7650012 114.4894997 142.9459988  59.2040012 115.1004997 142.3539988
  58.1320012 115.0274997 143.4199988  58.7394514 114.6459257 142.9290930
  58.6660012 130.4374997 143.8429988  57.9810012 130.3994997 143.1759988
  58.6700012 131.3504997 144.1319988  58.5726998 130.5556733 143.7906771
  60.6260012 116.4054997 141.3879988  61.1180012 115.7754997 140.8609988
  61.2500012 116.7014997 142.0509988  60.7775688 116.3593804 141.4055482
  65.6520012 116.6984997 143.8449988  65.8300012 116.0524997 144.5279988
  65.5990012 117.5324997 144.3119988  65.6691999 116.7228009 144.0015917
  67.5310012 131.6474997 142.2409988  68.3970012 132.0134997 142.0629988
  67.2840012 131.2074997 141.4269988  67.6162392 131.6381756 142.1066289
  60.4840012 131.3574997 140.8689988  60.2170012 131.6444997 141.7419988
  61.2560012 130.8114997 141.0209988  60.5517488 131.3230294 141.0091050
  86.6380012 121.5494997 141.5919988  87.3390012 121.5714997 142.2429988
  86.9410012 120.9214997 140.9349988  86.7748133 121.4677070 141.5923369
  88.8610012 122.4634997 143.1899988  89.4410012 122.6134997 143.9369988
  89.2750012 122.9344997 142.4659988  88.9962997 122.5476578 143.1944058
  92.5600012 114.2134997 143.0029988  91.6600012 114.3524997 143.2979988
  92.8120012 115.0444997 142.6009988  92.4708702 114.3449074 142.9890205
  93.7490012 128.5794997 141.3789988  93.8230012 129.5184997 141.5499988
  94.6550012 128.2744997 141.3229988  93.8815100 128.6666722 141.3948119
  89.1620012 131.3104997 142.0419988  89.5370012 130.5664997 141.5709988
  89.1660012 131.0404997 142.9609988  89.2139125 131.1720986 142.1016483
  90.3390012 123.4964997 140.8199988  90.3810012 123.2734997 139.8899988
  91.1880012 123.8954997 141.0089988  90.4595280 123.5199438 140.7183554
  85.9110012 117.3724997 141.4899988  85.6580012 117.3914997 142.4129988
  85.6550012 116.5004997 141.1879988  85.8417481 117.2572558 141.5756175
  82.7940012 117.8174997 140.5909988  82.3630012 117.3724997 141.3209988
  82.0760012 118.1894997 140.0789988  82.6379438 117.8068940 140.6216799
  77.3100012 118.3054997 143.0669988  77.7840012 118.8964997 142.4819988
  76.5930012 118.8364997 143.4139988  77.2779341 118.4580867 143.0338836
  81.4120012 120.5954997 141.9729988  80.8690012 120.2154997 141.2819988
  82.2450012 120.7894997 141.5449988  81.4503631 120.5697125 141.8204501
  84.7470012 125.1604997 143.9089988  84.0020012 124.6534997 143.5869988
  84.6130012 125.2094997 144.8559988  84.6268776 125.0976940 143.9928647
  88.6450012 117.9744997 142.1079988  87.7060012 118.0864997 141.9569988
  88.9420012 118.8314997 142.4149988  88.5567583 118.1055981 142.1288337
  89.3630012 119.8414997 143.7689988  90.2550012 119.7044997 144.0879988
  89.4200012 120.6324997 143.2319988  89.4926504 119.9296052 143.7400818
  86.8730012 126.6194997 142.9349988  86.5770012 127.4454997 143.3159988
  86.1700012 125.9994997 143.1309988  86.7374914 126.6488199 143.0136443
  94.2480012 120.0514997 143.4639988  93.6940012 119.6554997 142.7919988
  94.3480012 120.9614997 143.1859988  94.1857059 120.1203586 143.3344401
  92.5430012 128.8374997 143.9289988  92.1700012 128.0114997 144.2379988
  92.8210012 128.6544997 143.0309988  92.5295222 128.6997430 143.8499473
  78.0020012 122.8354997 141.6699988  78.6180012 123.4624997 142.0499988
  77.1400012 123.1514997 141.9419988  77.9697698 122.9639430 141.7587183
  89.9360012 126.8134997 141.7489988  90.2890012 126.4334997 142.5529988
  88.9870012 126.7204997 141.8359988  89.8560918 126.7488956 141.8708532
  94.4390012 131.2934997 141.9499988  95.1830012 131.8794997 141.8099988
  93.7450012 131.8614997 142.2829988  94.4469899 131.4505798 141.9758778
  90.8020012 125.4864997 143.9759988  90.5240012 124.7584997 144.5319988
  91.7290012 125.6054997 144.1809988  90.8893124 125.4028802 144.0798845
  84.0270012 127.9254997 140.1959988  84.2660012 127.1774997 139.6489988
  83.7580012 127.5374997 141.0289988  84.0233675 127.7706638 140.2336865
  82.9640012 127.4954997 142.6519988  83.1100012 126.9754997 143.4419988
  82.9610012 128.4024997 142.9589988  82.9835792 127.5468842 142.8016117
  79.4170012 124.7484997 143.1629988  78.7310012 125.1004997 143.7299988
  79.9390012 125.5114997 142.9159988  79.3936852 124.8998578 143.2072118
  85.7010012 129.1934997 143.4019988  84.8850012 129.6904997 143.4539988
  86.2310012 129.6684997 142.7619988  85.6609161 129.3257722 143.3225956
  83.0400012 130.2374997 143.3829988  83.2000012 131.0364997 142.8829988
  82.8420012 130.5434997 144.2679988  83.0351637 130.3884020 143.4341144
  81.7740012 116.9344997 142.9989988  81.6910012 117.8234997 143.3459988
  82.6640012 116.6694997 143.2309988  81.8829469 117.0201430 143.0777626
  80.0330012 127.3624997 142.0599988  80.6250012 128.0614997 142.3359988
  80.4920012 126.9294997 141.3399988  80.1761142 127.3997049 142.0004830
  78.3490012 120.0264997 141.1759988  78.3040012 120.9654997 141.3539988
  77.4610012 119.7904997 140.9059988  78.2228574 120.1231892 141.1638912
  86.0650012 129.7884997 140.3349988  85.4210012 129.1574997 140.6559988
  86.8270012 129.2574997 140.1029988  86.0798077 129.6302920 140.3476011
  90.6690012 129.6054997 140.5679988  90.9520012 128.8114997 141.0209988
  91.4090012 129.8384997 140.0079988  90.8078006 129.5283376 140.5542715
  81.6240012 125.5154997 140.4259988  81.6880012 124.7214997 140.9569988
  82.2770012 125.3964997 139.7359988  81.7210241 125.3907148 140.4054317
  86.9760012 126.5624997 140.1619988  86.7070012 126.7424997 141.0629988
  86.7700012 125.6364997 140.0299988  86.9113427 126.4620261 140.2675073
  82.7730012 123.4874997 142.7319988  82.3130012 123.0034997 143.4179988
  83.0280012 122.8194997 142.0959988  82.7444902 123.3308731 142.7399334
  83.8440012 121.7304997 140.9939988  83.6640012 121.5764997 140.0669988
  84.7940012 121.8384997 141.0389988  83.9477776 121.7240175 140.8731843
  93.2340012 124.0854997 140.4399988  92.9600012 123.6604997 139.6269988
  93.2730012 125.0164997 140.2229988  93.2017699 124.1532484 140.2993610
  83.7410012 132.4214997 141.9949988  84.6740012 132.5794997 142.1389988
  83.4770012 133.0964997 141.3709988  83.8329888 132.5344510 141.9302842
  77.3100012 127.0574997 141.4779988  78.2240012 127.1364997 141.7519988
  77.3170012 126.3704997 140.8119988  77.4361131 126.9753961 141.4254393
  94.3550012 122.9084997 142.6299988  93.8330012 123.2654997 141.9109988
  94.3220012 123.5834997 143.3079988  94.2791634 123.0485413 142.6233145
  92.7040012 120.1484997 141.1799988  92.8000012 120.8154997 140.4999988
  92.5640012 119.3324997 140.6989988  92.6982272 120.1295655 141.0218347
  91.9510012 117.5564997 140.2979988  92.5620012 117.1854997 140.9349988
  91.1150012 117.1354997 140.4939988  91.9215032 117.4487554 140.4117035
  94.0640012 116.4414997 141.8399988  94.4760012 115.7204997 141.3649988
  94.7460012 117.1114997 141.8989988  94.2125885 116.4332368 141.7828915
  77.6210012 114.4894997 142.9459988  78.0600012 115.1004997 142.3539988
  76.9880012 115.0274997 143.4199988  77.5954514 114.6459257 142.9290930
  77.5220012 130.4374997 143.8429988  76.8370012 130.3994997 143.1759988
  77.5260012 131.3504997 144.1319988  77.4286998 130.5556733 143.7906771
  79.4820012 116.4054997 141.3879988  79.9740012 115.7754997 140.8609988
  80.1060012 116.7014997 142.0509988  79.6335688 116.3593804 141.4055482
  84.5080012 116.6984997 143.8449988  84.6860012 116.0524997 144.5279988
  84.4550012 117.5324997 144.3119988  84.5251999 116.7228009 144.0015917
  86.3870012 131.6474997 142.2409988  87.2530012 132.0134997 142.0629988
  86.1400012 131.2074997 141.4269988  86.4722392 131.6381756 142.1066289
  79.3400012 131.3574997 140.8689988  79.0730012 131.6444997 141.7419988
  80.1120012 130.8114997 141.0209988  79.4077488 131.3230294 141.0091050
 105.4940012 121.5494997 141.5919988 106.1950012 121.5714997 142.2429988
 105.7970012 120.9214997 140.9349988 105.6308133 121.4677070 141.5923369
 107.7170012 122.4634997 143.1899988 108.2970012 122.6134997 143.9369988
 108.1310012 122.9344997 142.4659988 107.8522997 122.5476578 143.1944058
 111.4160012 114.2134997 143.0029988 110.5160012 114.3524997 143.2979988
 111.6680012 115.0444997 142.6009988 111.3268702 114.3449074 142.9890205
 112.6050012 128.5794997 141.3789988 112.6790012 129.5184997 141.5499988
 113.5110012 128.2744997 141.3229988 112.7375100 128.6666722 141.3948119
 108.0180012 131.3104997 142.0419988 108.3930012 130.5664997 141.5709988
 108.0220012 131.0404997 142.9609988 108.0699125 131.1720986 142.1016483
 109.1950012 123.4964997 140.8199988 109.2370012 123.2734997 139.8899988
 110.0440012 123.8954997 141.0089988 109.3155280 123.5199438 140.7183554
 104.7670012 117.3724997 141.4899988 104.5140012 117.3914997 142.4129988
 104.5110012 116.5004997 141.1879988 104.6977481 117.2572558 141.5756175
 101.6500012 117.8174997 140.5909988 101.2190012 117.3724997 141.3209988
 100.9320012 118.1894997 140.0789988 101.4939438 117.8068940 140.6216799
  96.1660012 118.3054997 143.0669988  96.6400012 118.8964997 142.4819988
  95.4490012 118.8364997 143.4139988  96.1339341 118.4580867 143.0338836
 100.2680012 120.5954997 141.9729988  99.7250012 120.2154997 141.2819988
 101.1010012 120.7894997 141.5449988 100.3063631 120.5697125 141.8204501
 103.6030012 125.1604997 143.9089988 102.8580012 124.6534997 143.5869988
 103.4690012 125.2094997 144.8559988 103.4828776 125.0976940 143.9928647
 107.5010012 117.9744997 142.1079988 106.5620012 118.0864997 141.9569988
 107.7980012 118.8314997 142.4149988 107.4127583 118.1055981 142.1288337
 108.2190012 119.8414997 143.7689988 109.1110012 119.7044997 144.0879988
 108.2760012 120.6324997 143.2319988 108.3486504 119.9296052 143.7400818
 105.7290012 126.6194997 142.9349988 105.4330012 127.4454997 143.3159988
 105.0260012 125.9994997 143.1309988 105.5934914 126.6488199 143.0136443
 113.1040012 120.0514997 143.4639988 112.5500012 119.6554997 142.7919988
 113.2040012 120.9614997 143.1859988 113.0417059 120.1203586 143.3344401
 111.3990012 128.8374997 143.9289988 111.0260012 128.0114997 144.2379988
 111.6770012 128.6544997 143.0309988 111.3855222 128.6997430 143.8499473
  96.8580012 122.8354997 141.6699988  97.4740012 123.4624997 142.0499988
  95.9960012 123.1514997 141.9419988  96.8257698 122.9639430 141.7587183
 108.7920012 126.8134997 141.7489988 109.1450012 126.4334997 142.5529988
 107.8430012 126.7204997 141.8359988 108.7120918 126.7488956 141.8708532
 113.2950012 131.2934997 141.9499988 114.0390012 131.8794997 141.8099988
 112.6010012 131.8614997 142.2829988 113.3029899 131.4505798 141.9758778
 109.6580012 125.4864997 143.9759988 109.3800012 124.7584997 144.5319988
 110.5850012 125.6054997 144.1809988 109.7453124 125.4028802 144.0798845
 102.8830012 127.9254997 140.1959988 103.1220012 127.1774997 139.6489988
 102.6140012 127.5374997 141.0289988 102.8793675 127.7706638 140.2336865
 101.8200012 127.4954997 142.6519988 101.9660012 126.9754997 143.4419988
 101.8170012 128.4024997 142.9589988 101.8395792 127.5468842 142.8016117
  98.2730012 124.7484997 143.1629988  97.5870012 125.1004997 143.7299988
  98.7950012 125.5114997 142.9159988  98.2496852 124.8998578 143.2072118
 104.5570012 129.1934997 143.4019988 103.7410012 129.6904997 143.4539988
 105.0870012 129.6684997 142.7619988 104.5169161 129.3257722 143.3225956
 101.8960012 130.2374997 143.3829988 102.0560012 131.0364997 142.8829988
 101.6980012 130.5434997 144.2679988 101.8911637 130.3884020 143.4341144
 100.6300012 116.9344997 142.9989988 100.5470012 117.8234997 143.3459988
 101.5200012 116.6694997 143.2309988 100.7389469 117.0201430 143.0777626
  98.8890012 127.3624997 142.0599988  99.4810012 128.0614997 142.3359988
  99.3480012 126.9294997 141.3399988  99.0321142 127.3997049 142.0004830
  97.2050012 120.0264997 141.1759988  97.1600012 120.9654997 141.3539988
  96.3170012 119.7904997 140.9059988  97.0788574 120.1231892 141.1638912
 104.9210012 129.7884997 140.3349988 104.2770012 129.1574997 140.6559988
 105.6830012 129.2574997 140.1029988 104.9358077 129.6302920 140.3476011
 109.5250012 129.6054997 140.5679988 109.8080012 128.8114997 141.0209988
 110.2650012 129.8384997 140.0079988 109.6638006 129.5283376 140.5542715
 100.4800012 125.5154997 140.4259988 100.5440012 124.7214997 140.9569988
 101.1330012 125.3964997 139.7359988 100.5770241 125.3907148 140.4054317
 105.8320012 126.5624997 140.1619988 105.5630012 126.7424997 141.0629988
 105.6260012 125.6364997 140.0299988 105.7673427 126.4620261 140.2675073
 101.6290012 123.4874997 142.7319988 101.1690012 123.0034997 143.4179988
 101.8840012 122.8194997 142.0959988 101.6004902 123.3308731 142.7399334
 102.7000012 121.7304997 140.9939988 102.5200012 121.5764997 140.0669988
 103.6500012 121.8384997 141.0389988 102.8037776 121.7240175 140.8731843
 112.0900012 124.0854997 140.4399988 111.8160012 123.6604997 139.6269988
 112.1290012 125.0164997 140.2229988 112.0577699 124.1532484 140.2993610
 102.5970012 132.4214997 141.9949988 103.5300012 132.5794997 142.1389988
 102.3330012 133.0964997 141.3709988 102.6889888 132.5344510 141.9302842
  96.1660012 127.0574997 141.4779988  97.0800012 127.1364997 141.7519988
  96.1730012 126.3704997 140.8119988  96.2921131 126.9753961 141.4254393
 113.2110012 122.9084997 142.6299988 112.6890012 123.2654997 141.9109988
 113.1780012 123.5834997 143.3079988 113.1351634 123.0485413 142.6233145
 111.5600012 120.1484997 141.1799988 111.6560012 120.8154997 140.4999988
 111.4200012 119.3324997 140.6989988 111.5542272 120.1295655 141.0218347
 110.8070012 117.5564997 140.2979988 111.4180012 117.1854997 140.9349988
 109.9710012 117.1354997 140.4939988 110.7775032 117.4487554 140.4117035
 112.9200012 116.4414997 141.8399988 113.3320012 115.7204997 141.3649988
 113.6020012 117.1114997 141.8989988 113.0685885 116.4332368 141.7828915
  96.4770012 114.4894997 142.9459988  96.9160012 115.1004997 142.3539988
  95.8440012 115.0274997 143.4199988  96.4514514 114.6459257 142.9290930
  96.3780012 130.4374997 143.8429988  95.6930012 130.3994997 143.1759988
  96.3820012 131.3504997 144.1319988  96.2846998 130.5556733 143.7906771
  98.3380012 116.4054997 141.3879988  98.8300012 115.7754997 140.8609988
  98.9620012 116.7014997 142.0509988  98.4895688 116.3593804 141.4055482
 103.3640012 116.6984997 143.8449988 103.5420012 116.0524997 144.5279988
 103.3110012 117.5324997 144.3119988 103.3811999 116.7228009 144.0015917
 105.2430012 131.6474997 142.2409988 106.1090012 132.0134997 142.0629988
 104.9960012 131.2074997 141.4269988 105.3282392 131.6381756 142.1066289
  98.1960012 131.3574997 140.8689988  97.9290012 131.6444997 141.7419988
  98.9680012 130.8114997 141.0209988  98.2637488 131.3230294 141.0091050
 124.3500012 121.5494997 141.5919988 125.0510012 121.5714997 142.2429988
 124.6530012 120.9214997 140.9349988 124.4868133 121.4677070 141.5923369
 126.5730012 122.4634997 143.1899988 127.1530012 122.6134997 143.9369988
 126.9870012 122.9344997 142.4659988 126.7082997 122.5476578 143.1944058
 130.2720012 114.2134997 143.0029988 129.3720012 114.3524997 143.2979988
 130.5240012 115.0444997 142.6009988 130.1828702 114.3449074 142.9890205
 131.4610012 128.5794997 141.3789988 131.5350012 129.5184997 141.5499988
 132.3670012 128.2744997 141.3229988 131.5935100 128.6666722 141.3948119
 126.8740012 131.3104997 142.0419988 127.2490012 130.5664997 141.5709988
 126.8780012 131.0404997 142.9609988 126.9259125 131.1720986 142.1016483
 128.0510012 123.4964997 140.8199988 128.0930012 123.2734997 139.8899988
 128.9000012 123.8954997 141.0089988 128.1715280 123.5199438 140.7183554
 123.6230012 117.3724997 141.4899988 123.3700012 117.3914997 142.4129988
 123.3670012 116.5004997 141.1879988 123.5537481 117.2572558 141.5756175
 120.5060012 117.8174997 140.5909988 120.0750012 117.3724997 141.3209988
 119.7880012 118.1894997 140.0789988 120.3499438 117.8068940 140.6216799
 115.0220012 118.3054997 143.0669988 115.4960012 118.8964997 142.4819988
 114.3050012 118.8364997 143.4139988 114.9899341 118.4580867 143.0338836
 119.1240012 120.5954997 141.9729988 118.5810012 120.2154997 141.2819988
 119.9570012 120.7894997 141.5449988 119.1623631 120.5697125 141.8204501
 122.4590012 125.1604997 143.9089988 121.7140012 124.6534997 143.5869988
 122.3250012 125.2094997 144.8559988 122.3388776 125.0976940 143.9928647
 126.3570012 117.9744997 142.1079988 125.4180012 118.0864997 141.9569988
 126.6540012 118.8314997 142.4149988 126.2687583 118.1055981 142.1288337
 127.0750012 119.8414997 143.7689988 127.9670012 119.7044997 144.0879988
 127.1320012 120.6324997 143.2319988 127.2046504 119.9296052 143.7400818
 124.5850012 126.6194997 142.9349988 124.2890012 127.4454997 143.3159988
 123.8820012 125.9994997 143.1309988 124.4494914 126.6488199 143.0136443
 131.9600012 120.0514997 143.4639988 131.4060012 119.6554997 142.7919988
 132.0600012 120.9614997 143.1859988 131.8977059 120.1203586 143.3344401
 130.2550012 128.8374997 143.9289988 129.8820012 128.0114997 144.2379988
 130.5330012 128.6544997 143.0309988 130.2415222 128.6997430 143.8499473
 115.7140012 122.8354997 141.6699988 116.3300012 123.4624997 142.0499988
 114.8520012 123.1514997 141.9419988 115.6817698 122.9639430 141.7587183
 127.6480012 126.8134997 141.7489988 128.0010012 126.4334997 142.5529988
 126.6990012 126.7204997 141.8359988 127.5680918 126.7488956 141.8708532
 132.1510012 131.2934997 141.9499988 132.8950012 131.8794997 141.8099988
 131.4570012 131.8614997 142.2829988 132.1589899 131.4505798 141.9758778
 128.5140012 125.4864997 143.9759988 128.2360012 124.7584997 144.5319988
 129.4410012 125.6054997 144.1809988 128.6013124 125.4028802 144.0798845
 121.7390012 127.9254997 140.1959988 121.9780012 127.1774997 139.6489988
 121.4700012 127.5374997 141.0289988 121.7353675 127.7706638 140.2336865
 120.6760012 127.4954997 142.6519988 120.8220012 126.9754997 143.4419988
 120.6730012 128.4024997 142.9589988 120.6955792 127.5468842 142.8016117
 117.1290012 124.7484997 143.1629988 116.4430012 125.1004997 143.7299988
 117.6510012 125.5114997 142.9159988 117.1056852 124.8998578 143.2072118
 123.4130012 129.1934997 143.4019988 122.5970012 129.6904997 143.4539988
 123.9430012 129.6684997 142.7619988 123.3729161 129.3257722 143.3225956
 120.7520012 130.2374997 143.3829988 120.9120012 131.0364997 142.8829988
 120.5540012 130.5434997 144.2679988 120.7471637 130.3884020 143.4341144
 119.4860012 116.9344997 142.9989988 119.4030012 117.8234997 143.3459988
 120.3760012 116.6694997 143.2309988 119.5949469 117.0201430 143.0777626
 117.7450012 127.3624997 142.0599988 118.3370012 128.0614997 142.3359988
 118.2040012 126.9294997 141.3399988 117.8881142 127.3997049 142.0004830
 116.0610012 120.0264997 141.1759988 116.0160012 120.9654997 141.3539988
 115.1730012 119.7904997 140.9059988 115.9348574 120.1231892 141.1638912
 123.7770012 129.7884997 140.3349988 123.1330012 129.1574997 140.6559988
 124.5390012 129.2574997 140.1029988 123.7918077 129.6302920 140.3476011
 128.3810012 129.6054997 140.5679988 128.6640012 128.8114997 141.0209988
 129.1210012 129.8384997 140.0079988 128.5198006 129.5283376 140.5542715
 119.3360012 125.5154997 140.4259988 119.4000012 124.7214997 140.9569988
 119.9890012 125.3964997 139.7359988 119.4330241 125.3907148 140.4054317
 124.6880012 126.5624997 140.1619988 124.4190012 126.7424997 141.0629988
 124.4820012 125.6364997 140.0299988 124.6233427 126.4620261 140.2675073
 120.4850012 123.4874997 142.7319988 120.0250012 123.0034997 143.4179988
 120.7400012 122.8194997 142.0959988 120.4564902 123.3308731 142.7399334
 121.5560012 121.7304997 140.9939988 121.3760012 121.5764997 140.0669988
 122.5060012 121.8384997 141.0389988 121.6597776 121.7240175 140.8731843
 130.9460012 124.0854997 140.4399988 130.6720012 123.6604997 139.6269988
 130.9850012 125.0164997 140.2229988 130.9137699 124.1532484 140.2993610
 121.4530012 132.4214997 141.9949988 122.3860012 132.5794997 142.1389988
 121.1890012 133.0964997 141.3709988 121.5449888 132.5344510 141.9302842
 115.0220012 127.0574997 141.4779988 115.9360012 127.1364997 141.7519988
 115.0290012 126.3704997 140.8119988 115.1481131 126.9753961 141.4254393
 132.0670012 122.9084997 142.6299988 131.5450012 123.2654997 141.9109988
 132.0340012 123.5834997 143.3079988 131.9911634 123.0485413 142.6233145
 130.4160012 120.1484997 141.1799988 130.5120012 120.8154997 140.4999988
 130.2760012 119.3324997 140.6989988 130.4102272 120.1295655 141.0218347
 129.6630012 117.5564997 140.2979988 130.2740012 117.1854997 140.9349988
 128.8270012 117.1354997 140.4939988 129.6335032 117.4487554 140.4117035
 131.7760012 116.4414997 141.8399988 132.1880012 115.7204997 141.3649988
 132.4580012 117.1114997 141.8989988 131.9245885 116.4332368 141.7828915
 115.3330012 114.4894997 142.9459988 115.7720012 115.1004997 142.3539988
 114.7000012 115.0274997 143.4199988 115.3074514 114.6459257 142.9290930
 115.2340012 130.4374997 143.8429988 114.5490012 130.3994997 143.1759988
 115.2380012 131.3504997 144.1319988 115.1406998 130.5556733 143.7906771
 117.1940012 116.4054997 141.3879988 117.6860012 115.7754997 140.8609988
 117.8180012 116.7014997 142.0509988 117.3455688 116.3593804 141.4055482
 122.2200012 116.6984997 143.8449988 122.3980012 116.0524997 144.5279988
 122.1670012 117.5324997 144.3119988 122.2371999 116.7228009 144.0015917
 124.0990012 131.6474997 142.2409988 124.9650012 132.0134997 142.0629988
 123.8520012 131.2074997 141.4269988 124.1842392 131.6381756 142.1066289
 117.0520012 131.3574997 140.8689988 116.7850012 131.6444997 141.7419988
 117.8240012 130.8114997 141.0209988 117.1197488 131.3230294 141.0091050
 143.2060012 121.5494997 141.5919988 143.9070012 121.5714997 142.2429988
 143.5090012 120.9214997 140.9349988 143.3428133 121.4677070 141.5923369
 142.4790012 117.3724997 141.4899988 142.2260012 117.3914997 142.4129988
 142.2230012 116.5004997 141.1879988 142.4097481 117.2572558 141.5756175
 139.3620012 117.8174997 140.5909988 138.9310012 117.3724997 141.3209988
 138.6440012 118.1894997 140.0789988 139.2059438 117.8068940 140.6216799
 133.8780012 118.3054997 143.0669988 134.3520012 118.8964997 142.4819988
 133.1610012 118.8364997 143.4139988 133.8459341 118.4580867 143.0338836
 137.9800012 120.5954997 141.9729988 137.4370012 120.2154997 141.2819988
 138.8130012 120.7894997 141.5449988 138.0183631 120.5697125 141.8204501
 141.3150012 125.1604997 143.9089988 140.5700012 124.6534997 143.5869988
 141.1810012 125.2094997 144.8559988 141.1948776 125.0976940 143.9928647
 143.4410012 126.6194997 142.9349988 143.1450012 127.4454997 143.3159988
 142.7380012 125.9994997 143.1309988 143.3054914 126.6488199 143.0136443
 134.5700012 122.8354997 141.6699988 135.1860012 123.4624997 142.0499988
 133.7080012 123.1514997 141.9419988 134.5377698 122.9639430 141.7587183
 140.5950012 127.9254997 140.1959988 140.8340012 127.1774997 139.6489988
 140.3260012 127.5374997 141.0289988 140.5913675 127.7706638 140.2336865
 139.5320012 127.4954997 142.6519988 139.6780012 126.9754997 143.4419988
 139.5290012 128.4024997 142.9589988 139.5515792 127.5468842 142.8016117
 135.9850012 124.7484997 143.1629988 135.2990012 125.1004997 143.7299988
 136.5070012 125.5114997 142.9159988 135.9616852 124.8998578 143.2072118
 142.2690012 129.1934997 143.4019988 141.4530012 129.6904997 143.4539988
 142.7990012 129.6684997 142.7619988 142.2289161 129.3257722 143.3225956
 139.6080012 130.2374997 143.3829988 139.7680012 131.0364997 142.8829988
 139.4100012 130.5434997 144.2679988 139.6031637 130.3884020 143.4341144
 138.3420012 116.9344997 142.9989988 138.2590012 117.8234997 143.3459988
 139.2320012 116.6694997 143.2309988 138.4509469 117.0201430 143.0777626
 136.6010012 127.3624997 142.0599988 137.1930012 128.0614997 142.3359988
 137.0600012 126.9294997 141.3399988 136.7441142 127.3997049 142.0004830
 134.9170012 120.0264997 141.1759988 134.8720012 120.9654997 141.3539988
 134.0290012 119.7904997 140.9059988 134.7908574 120.1231892 141.1638912
 142.6330012 129.7884997 140.3349988 141.9890012 129.1574997 140.6559988
 143.3950012 129.2574997 140.1029988 142.6478077 129.6302920 140.3476011
 138.1920012 125.5154997 140.4259988 138.2560012 124.7214997 140.9569988
 138.8450012 125.3964997 139.7359988 138.2890241 125.3907148 140.4054317
 143.5440012 126.5624997 140.1619988 143.2750012 126.7424997 141.0629988
 143.3380012 125.6364997 140.0299988 143.4793427 126.4620261 140.2675073
 139.3410012 123.4874997 142.7319988 138.8810012 123.0034997 143.4179988
 139.5960012 122.8194997 142.0959988 139.3124902 123.3308731 142.7399334
 140.4120012 121.7304997 140.9939988 140.2320012 121.5764997 140.0669988
 141.3620012 121.8384997 141.0389988 140.5157776 121.7240175 140.8731843
 140.3090012 132.4214997 141.9949988 141.2420012 132.5794997 142.1389988
 140.0450012 133.0964997 141.3709988 140.4009888 132.5344510 141.9302842
 133.8780012 127.0574997 141.4779988 134.7920012 127.1364997 141.7519988
 133.8850012 126.3704997 140.8119988 134.0041131 126.9753961 141.4254393
 134.1890012 114.4894997 142.9459988 134.6280012 115.1004997 142.3539988
 133.5560012 115.0274997 143.4199988 134.1634514 114.6459257 142.9290930
 134.0900012 130.4374997 143.8429988 133.4050012 130.3994997 143.1759988
 134.0940012 131.3504997 144.1319988 133.9966998 130.5556733 143.7906771
 136.0500012 116.4054997 141.3879988 136.5420012 115.7754997 140.8609988
 136.6740012 116.7014997 142.0509988 136.2015688 116.3593804 141.4055482
 141.0760012 116.6984997 143.8449988 141.2540012 116.0524997 144.5279988
 141.0230012 117.5324997 144.3119988 141.0931999 116.7228009 144.0015917
 142.9550012 131.6474997 142.2409988 143.8210012 132.0134997 142.0629988
 142.7080012 131.2074997 141.4269988 143.0402392 131.6381756 142.1066289
 135.9080012 131.3574997 140.8689988 135.6410012 131.6444997 141.7419988
 136.6800012 130.8114997 141.0209988 135.9757488 131.3230294 141.0091050
  11.2140012 140.4054997 141.5919988  11.9150012 140.4274997 142.2429988
  11.5170012 139.7774997 140.9349988  11.3508133 140.3237070 141.5923369
  13.4370012 141.3194997 143.1899988  14.0170012 141.4694997 143.9369988
  13.8510012 141.7904997 142.4659988  13.5722997 141.4036578 143.1944058
  17.1360012 133.0694997 143.0029988  16.2360012 133.2084997 143.2979988
  17.3880012 133.9004997 142.6009988  17.0468702 133.2009074 142.9890205
  14.9150012 142.3524997 140.8199988  14.9570012 142.1294997 139.8899988
  15.7640012 142.7514997 141.0089988  15.0355280 142.3759438 140.7183554
  10.4870012 136.2284997 141.4899988  10.2340012 136.2474997 142.4129988
  10.2310012 135.3564997 141.1879988  10.4177481 136.1132558 141.5756175
   7.3700012 136.6734997 140.5909988   6.9390012 136.2284997 141.3209988
   6.6520012 137.0454997 140.0789988   7.2139438 136.6628940 140.6216799
   1.8860012 137.1614997 143.0669988   2.3600012 137.7524997 142.4819988
   1.1690012 137.6924997 143.4139988   1.8539341 137.3140867 143.0338836
   5.9880012 139.4514997 141.9729988   5.4450012 139.0714997 141.2819988
   6.8210012 139.6454997 141.5449988   6.0263631 139.4257125 141.8204501
   9.3230012 144.0164997 143.9089988   8.5780012 143.5094997 143.5869988
   9.1890012 144.0654997 144.8559988   9.2028776 143.9536940 143.9928647
  13.2210012 136.8304997 142.1079988  12.2820012 136.9424997 141.9569988
  13.5180012 137.6874997 142.4149988  13.1327583 136.9615981 142.1288337
  13.9390012 138.6974997 143.7689988  14.8310012 138.5604997 144.0879988
  13.9960012 139.4884997 143.2319988  14.0686504 138.7856052 143.7400818
  18.8240012 138.9074997 143.4639988  18.2700012 138.5114997 142.7919988
  18.9240012 139.8174997 143.1859988  18.7617059 138.9763586 143.3344401
   2.5780012 141.6914997 141.6699988   3.1940012 142.3184997 142.0499988
   1.7160012 142.0074997 141.9419988   2.5457698 141.8199430 141.7587183
  15.3780012 144.3424997 143.9759988  15.1000012 143.6144997 144.5319988
  16.3050012 144.4614997 144.1809988  15.4653124 144.2588802 144.0798845
   3.9930012 143.6044997 143.1629988   3.3070012 143.9564997 143.7299988
   4.5150012 144.3674997 142.9159988   3.9696852 143.7558578 143.2072118
   6.3500012 135.7904997 142.9989988   6.2670012 136.6794997 143.3459988
   7.2400012 135.5254997 143.2309988   6.4589469 135.8761430 143.0777626
   2.9250012 138.8824997 141.1759988   2.8800012 139.8214997 141.3539988
   2.0370012 138.6464997 140.9059988   2.7988574 138.9791892 141.1638912
   6.2000012 144.3714997 140.4259988   6.2640012 143.5774997 140.9569988
   6.8530012 144.2524997 139.7359988   6.2970241 144.2467148 140.4054317
   7.3490012 142.3434997 142.7319988   6.8890012 141.8594997 143.4179988
   7.6040012 141.6754997 142.0959988   7.3204902 142.1868731 142.7399334
   8.4200012 140.5864997 140.9939988   8.2400012 140.4324997 140.0669988
   9.3700012 140.6944997 141.0389988   8.5237776 140.5800175 140.8731843
  17.8100012 142.9414997 140.4399988  17.5360012 142.5164997 139.6269988
  17.8490012 143.8724997 140.2229988  17.7777699 143.0092484 140.2993610
  18.9310012 141.7644997 142.6299988  18.4090012 142.1214997 141.9109988
  18.8980012 142.4394997 143.3079988  18.8551634 141.9045413 142.6233145
  17.2800012 139.0044997 141.1799988  17.3760012 139.6714997 140.4999988
  17.1400012 138.1884997 140.6989988  17.2742272 138.9855655 141.0218347
  16.5270012 136.4124997 140.2979988  17.1380012 136.0414997 140.9349988
  15.6910012 135.9914997 140.4939988  16.4975032 136.3047554 140.4117035
  18.6400012 135.2974997 141.8399988  19.0520012 134.5764997 141.3649988
  19.3220012 135.9674997 141.8989988  18.7885885 135.2892368 141.7828915
   2.1970012 133.3454997 142.9459988   2.6360012 133.9564997 142.3539988
   1.5640012 133.8834997 143.4199988   2.1714514 133.5019257 142.9290930
   4.0580012 135.2614997 141.3879988   4.5500012 134.6314997 140.8609988
   4.6820012 135.5574997 142.0509988   4.2095688 135.2153804 141.4055482
   9.0840012 135.5544997 143.8449988   9.2620012 134.9084997 144.5279988
   9.0310012 136.3884997 144.3119988   9.1011999 135.5788009 144.0015917
  30.0700012 140.4054997 141.5919988  30.7710012 140.4274997 142.2429988
  30.3730012 139.7774997 140.9349988  30.2068133 140.3237070 141.5923369
  32.2930012 141.3194997 143.1899988  32.8730012 141.4694997 143.9369988
  32.7070012 141.7904997 142.4659988  32.4282997 141.4036578 143.1944058
  35.9920012 133.0694997 143.0029988  35.0920012 133.2084997 143.2979988
  36.2440012 133.9004997 142.6009988  35.9028702 133.2009074 142.9890205
  33.7710012 142.3524997 140.8199988  33.8130012 142.1294997 139.8899988
  34.6200012 142.7514997 141.0089988  33.8915280 142.3759438 140.7183554
  29.3430012 136.2284997 141.4899988  29.0900012 136.2474997 142.4129988
  29.0870012 135.3564997 141.1879988  29.2737481 136.1132558 141.5756175
  26.2260012 136.6734997 140.5909988  25.7950012 136.2284997 141.3209988
  25.5080012 137.0454997 140.0789988  26.0699438 136.6628940 140.6216799
  20.7420012 137.1614997 143.0669988  21.2160012 137.7524997 142.4819988
  20.0250012 137.6924997 143.4139988  20.7099341 137.3140867 143.0338836
  24.8440012 139.4514997 141.9729988  24.3010012 139.0714997 141.2819988
  25.6770012 139.6454997 141.5449988  24.8823631 139.4257125 141.8204501
  28.1790012 144.0164997 143.9089988  27.4340012 143.5094997 143.5869988
  28.0450012 144.0654997 144.8559988  28.0588776 143.9536940 143.9928647
  32.0770012 136.8304997 142.1079988  31.1380012 136.9424997 141.9569988
  32.3740012 137.6874997 142.4149988  31.9887583 136.9615981 142.1288337
  32.7950012 138.6974997 143.7689988  33.6870012 138.5604997 144.0879988
  32.8520012 139.4884997 143.2319988  32.9246504 138.7856052 143.7400818
  37.6800012 138.9074997 143.4639988  37.1260012 138.5114997 142.7919988
  37.7800012 139.8174997 143.1859988  37.6177059 138.9763586 143.3344401
  21.4340012 141.6914997 141.6699988  22.0500012 142.3184997 142.0499988
  20.5720012 142.0074997 141.9419988  21.4017698 141.8199430 141.7587183
  34.2340012 144.3424997 143.9759988  33.9560012 143.6144997 144.5319988
  35.1610012 144.4614997 144.1809988  34.3213124 144.2588802 144.0798845
  22.8490012 143.6044997 143.1629988  22.1630012 143.9564997 143.7299988
  23.3710012 144.3674997 142.9159988  22.8256852 143.7558578 143.2072118
  25.2060012 135.7904997 142.9989988  25.1230012 136.6794997 143.3459988
  26.0960012 135.5254997 143.2309988  25.3149469 135.8761430 143.0777626
  21.7810012 138.8824997 141.1759988  21.7360012 139.8214997 141.3539988
  20.8930012 138.6464997 140.9059988  21.6548574 138.9791892 141.1638912
  25.0560012 144.3714997 140.4259988  25.1200012 143.5774997 140.9569988
  25.7090012 144.2524997 139.7359988  25.1530241 144.2467148 140.4054317
  26.2050012 142.3434997 142.7319988  25.7450012 141.8594997 143.4179988
  26.4600012 141.6754997 142.0959988  26.1764902 142.1868731 142.7399334
  27.2760012 140.5864997 140.9939988  27.0960012 140.4324997 140.0669988
  28.2260012 140.6944997 141.0389988  27.3797776 140.5800175 140.8731843
  36.6660012 142.9414997 140.4399988  36.3920012 142.5164997 139.6269988
  36.7050012 143.8724997 140.2229988  36.6337699 143.0092484 140.2993610
  37.7870012 141.7644997 142.6299988  37.2650012 142.1214997 141.9109988
  37.7540012 142.4394997 143.3079988  37.7111634 141.9045413 142.6233145
  36.1360012 139.0044997 141.1799988  36.2320012 139.6714997 140.4999988
  35.9960012 138.1884997 140.6989988  36.1302272 138.9855655 141.0218347
  35.3830012 136.4124997 140.2979988  35.9940012 136.0414997 140.9349988
  34.5470012 135.9914997 140.4939988  35.3535032 136.3047554 140.4117035
  37.4960012 135.2974997 141.8399988  37.9080012 134.5764997 141.3649988
  38.1780012 135.9674997 141.8989988  37.6445885 135.2892368 141.7828915
  21.0530012 133.3454997 142.9459988  21.4920012 133.9564997 142.3539988
  20.4200012 133.8834997 143.4199988  21.0274514 133.5019257 142.9290930
  22.9140012 135.2614997 141.3879988  23.4060012 134.6314997 140.8609988
  23.5380012 135.5574997 142.0509988  23.0655688 135.2153804 141.4055482
  27.9400012 135.5544997 143.8449988  28.1180012 134.9084997 144.5279988
  27.8870012 136.3884997 144.3119988  27.9571999 135.5788009 144.0015917
  48.9260012 140.4054997 141.5919988  49.6270012 140.4274997 142.2429988
  49.2290012 139.7774997 140.9349988  49.0628133 140.3237070 141.5923369
  51.1490012 141.3194997 143.1899988  51.7290012 141.4694997 143.9369988
  51.5630012 141.7904997 142.4659988  51.2842997 141.4036578 143.1944058
  54.8480012 133.0694997 143.0029988  53.9480012 133.2084997 143.2979988
  55.1000012 133.9004997 142.6009988  54.7588702 133.2009074 142.9890205
  52.6270012 142.3524997 140.8199988  52.6690012 142.1294997 139.8899988
  53.4760012 142.7514997 141.0089988  52.7475280 142.3759438 140.7183554
  48.1990012 136.2284997 141.4899988  47.9460012 136.2474997 142.4129988
  47.9430012 135.3564997 141.1879988  48.1297481 136.1132558 141.5756175
  45.0820012 136.6734997 140.5909988  44.6510012 136.2284997 141.3209988
  44.3640012 137.0454997 140.0789988  44.9259438 136.6628940 140.6216799
  39.5980012 137.1614997 143.0669988  40.0720012 137.7524997 142.4819988
  38.8810012 137.6924997 143.4139988  39.5659341 137.3140867 143.0338836
  43.7000012 139.4514997 141.9729988  43.1570012 139.0714997 141.2819988
  44.5330012 139.6454997 141.5449988  43.7383631 139.4257125 141.8204501
  47.0350012 144.0164997 143.9089988  46.2900012 143.5094997 143.5869988
  46.9010012 144.0654997 144.8559988  46.9148776 143.9536940 143.9928647
  50.9330012 136.8304997 142.1079988  49.9940012 136.9424997 141.9569988
  51.2300012 137.6874997 142.4149988  50.8447583 136.9615981 142.1288337
  51.6510012 138.6974997 143.7689988  52.5430012 138.5604997 144.0879988
  51.7080012 139.4884997 143.2319988  51.7806504 138.7856052 143.7400818
  56.5360012 138.9074997 143.4639988  55.9820012 138.5114997 142.7919988
  56.6360012 139.8174997 143.1859988  56.4737059 138.9763586 143.3344401
  40.2900012 141.6914997 141.6699988  40.9060012 142.3184997 142.0499988
  39.4280012 142.0074997 141.9419988  40.2577698 141.8199430 141.7587183
  53.0900012 144.3424997 143.9759988  52.8120012 143.6144997 144.5319988
  54.0170012 144.4614997 144.1809988  53.1773124 144.2588802 144.0798845
  41.7050012 143.6044997 143.1629988  41.0190012 143.9564997 143.7299988
  42.2270012 144.3674997 142.9159988  41.6816852 143.7558578 143.2072118
  44.0620012 135.7904997 142.9989988  43.9790012 136.6794997 143.3459988
  44.9520012 135.5254997 143.2309988  44.1709469 135.8761430 143.0777626
  40.6370012 138.8824997 141.1759988  40.5920012 139.8214997 141.3539988
  39.7490012 138.6464997 140.9059988  40.5108574 138.9791892 141.1638912
  43.9120012 144.3714997 140.4259988  43.9760012 143.5774997 140.9569988
  44.5650012 144.2524997 139.7359988  44.0090241 144.2467148 140.4054317
  45.0610012 142.3434997 142.7319988  44.6010012 141.8594997 143.4179988
  45.3160012 141.6754997 142.0959988  45.0324902 142.1868731 142.7399334
  46.1320012 140.5864997 140.9939988  45.9520012 140.4324997 140.0669988
  47.0820012 140.6944997 141.0389988  46.2357776 140.5800175 140.8731843
  55.5220012 142.9414997 140.4399988  55.2480012 142.5164997 139.6269988
  55.5610012 143.8724997 140.2229988  55.4897699 143.0092484 140.2993610
  56.6430012 141.7644997 142.6299988  56.1210012 142.1214997 141.9109988
  56.6100012 142.4394997 143.3079988  56.5671634 141.9045413 142.6233145
  54.9920012 139.0044997 141.1799988  55.0880012 139.6714997 140.4999988
  54.8520012 138.1884997 140.6989988  54.9862272 138.9855655 141.0218347
  54.2390012 136.4124997 140.2979988  54.8500012 136.0414997 140.9349988
  53.4030012 135.9914997 140.4939988  54.2095032 136.3047554 140.4117035
  56.3520012 135.2974997 141.8399988  56.7640012 134.5764997 141.3649988
  57.0340012 135.9674997 141.8989988  56.5005885 135.2892368 141.7828915
  39.9090012 133.3454997 142.9459988  40.3480012 133.9564997 142.3539988
  39.2760012 133.8834997 143.4199988  39.8834514 133.5019257 142.9290930
  41.7700012 135.2614997 141.3879988  42.2620012 134.6314997 140.8609988
  42.3940012 135.5574997 142.0509988  41.9215688 135.2153804 141.4055482
  46.7960012 135.5544997 143.8449988  46.9740012 134.9084997 144.5279988
  46.7430012 136.3884997 144.3119988  46.8131999 135.5788009 144.0015917
  67.7820012 140.4054997 141.5919988  68.4830012 140.4274997 142.2429988
  68.0850012 139.7774997 140.9349988  67.9188133 140.3237070 141.5923369
  70.0050012 141.3194997 143.1899988  70.5850012 141.4694997 143.9369988
  70.4190012 141.7904997 142.4659988  70.1402997 141.4036578 143.1944058
  73.7040012 133.0694997 143.0029988  72.8040012 133.2084997 143.2979988
  73.9560012 133.9004997 142.6009988  73.6148702 133.2009074 142.9890205
  71.4830012 142.3524997 140.8199988  71.5250012 142.1294997 139.8899988
  72.3320012 142.7514997 141.0089988  71.6035280 142.3759438 140.7183554
  67.0550012 136.2284997 141.4899988  66.8020012 136.2474997 142.4129988
  66.7990012 135.3564997 141.1879988  66.9857481 136.1132558 141.5756175
  63.9380012 136.6734997 140.5909988  63.5070012 136.2284997 141.3209988
  63.2200012 137.0454997 140.0789988  63.7819438 136.6628940 140.6216799
  58.4540012 137.1614997 143.0669988  58.9280012 137.7524997 142.4819988
  57.7370012 137.6924997 143.4139988  58.4219341 137.3140867 143.0338836
  62.5560012 139.4514997 141.9729988  62.0130012 139.0714997 141.2819988
  63.3890012 139.6454997 141.5449988  62.5943631 139.4257125 141.8204501
  65.8910012 144.0164997 143.9089988  65.1460012 143.5094997 143.5869988
  65.7570012 144.0654997 144.8559988  65.7708776 143.9536940 143.9928647
  69.7890012 136.8304997 142.1079988  68.8500012 136.9424997 141.9569988
  70.0860012 137.6874997 142.4149988  69.7007583 136.9615981 142.1288337
  70.5070012 138.6974997 143.7689988  71.3990012 138.5604997 144.0879988
  70.5640012 139.4884997 143.2319988  70.6366504 138.7856052 143.7400818
  75.3920012 138.9074997 143.4639988  74.8380012 138.5114997 142.7919988
  75.4920012 139.8174997 143.1859988  75.3297059 138.9763586 143.3344401
  59.1460012 141.6914997 141.6699988  59.7620012 142.3184997 142.0499988
  58.2840012 142.0074997 141.9419988  59.1137698 141.8199430 141.7587183
  71.9460012 144.3424997 143.9759988  71.6680012 143.6144997 144.5319988
  72.8730012 144.4614997 144.1809988  72.0333124 144.2588802 144.0798845
  60.5610012 143.6044997 143.1629988  59.8750012 143.9564997 143.7299988
  61.0830012 144.3674997 142.9159988  60.5376852 143.7558578 143.2072118
  62.9180012 135.7904997 142.9989988  62.8350012 136.6794997 143.3459988
  63.8080012 135.5254997 143.2309988  63.0269469 135.8761430 143.0777626
  59.4930012 138.8824997 141.1759988  59.4480012 139.8214997 141.3539988
  58.6050012 138.6464997 140.9059988  59.3668574 138.9791892 141.1638912
  62.7680012 144.3714997 140.4259988  62.8320012 143.5774997 140.9569988
  63.4210012 144.2524997 139.7359988  62.8650241 144.2467148 140.4054317
  63.9170012 142.3434997 142.7319988  63.4570012 141.8594997 143.4179988
  64.1720012 141.6754997 142.0959988  63.8884902 142.1868731 142.7399334
  64.9880012 140.5864997 140.9939988  64.8080012 140.4324997 140.0669988
  65.9380012 140.6944997 141.0389988  65.0917776 140.5800175 140.8731843
  74.3780012 142.9414997 140.4399988  74.1040012 142.5164997 139.6269988
  74.4170012 143.8724997 140.2229988  74.3457699 143.0092484 140.2993610
  75.4990012 141.7644997 142.6299988  74.9770012 142.1214997 141.9109988
  75.4660012 142.4394997 143.3079988  75.4231634 141.9045413 142.6233145
  73.8480012 139.0044997 141.1799988  73.9440012 139.6714997 140.4999988
  73.7080012 138.1884997 140.6989988  73.8422272 138.9855655 141.0218347
  73.0950012 136.4124997 140.2979988  73.7060012 136.0414997 140.9349988
  72.2590012 135.9914997 140.4939988  73.0655032 136.3047554 140.4117035
  75.2080012 135.2974997 141.8399988  75.6200012 134.5764997 141.3649988
  75.8900012 135.9674997 141.8989988  75.3565885 135.2892368 141.7828915
  58.7650012 133.3454997 142.9459988  59.2040012 133.9564997 142.3539988
  58.1320012 133.8834997 143.4199988  58.7394514 133.5019257 142.9290930
  60.6260012 135.2614997 141.3879988  61.1180012 134.6314997 140.8609988
  61.2500012 135.5574997 142.0509988  60.7775688 135.2153804 141.4055482
  65.6520012 135.5544997 143.8449988  65.8300012 134.9084997 144.5279988
  65.5990012 136.3884997 144.3119988  65.6691999 135.5788009 144.0015917
  86.6380012 140.4054997 141.5919988  87.3390012 140.4274997 142.2429988
  86.9410012 139.7774997 140.9349988  86.7748133 140.3237070 141.5923369
  88.8610012 141.3194997 143.1899988  89.4410012 141.4694997 143.9369988
  89.2750012 141.7904997 142.4659988  88.9962997 141.4036578 143.1944058
  92.5600012 133.0694997 143.0029988  91.6600012 133.2084997 143.2979988
  92.8120012 133.9004997 142.6009988  92.4708702 133.2009074 142.9890205
  90.3390012 142.3524997 140.8199988  90.3810012 142.1294997 139.8899988
  91.1880012 142.7514997 141.0089988  90.4595280 142.3759438 140.7183554
  85.9110012 136.2284997 141.4899988  85.6580012 136.2474997 142.4129988
  85.6550012 135.3564997 141.1879988  85.8417481 136.1132558 141.5756175
  82.7940012 136.6734997 140.5909988  82.3630012 136.2284997 141.3209988
  82.0760012 137.0454997 140.0789988  82.6379438 136.6628940 140.6216799
  77.3100012 137.1614997 143.0669988  77.7840012 137.7524997 142.4819988
  76.5930012 137.6924997 143.4139988  77.2779341 137.3140867 143.0338836
  81.4120012 139.4514997 141.9729988  80.8690012 139.0714997 141.2819988
  82.2450012 139.6454997 141.5449988  81.4503631 139.4257125 141.8204501
  84.7470012 144.0164997 143.9089988  84.0020012 143.5094997 143.5869988
  84.6130012 144.0654997 144.8559988  84.6268776 143.9536940 143.9928647
  88.6450012 136.8304997 142.1079988  87.7060012 136.9424997 141.9569988
  88.9420012 137.6874997 142.4149988  88.5567583 136.9615981 142.1288337
  89.3630012 138.6974997 143.7689988  90.2550012 138.5604997 144.0879988
  89.4200012 139.4884997 143.2319988  89.4926504 138.7856052 143.7400818
  94.2480012 138.9074997 143.4639988  93.6940012 138.5114997 142.7919988
  94.3480012 139.8174997 143.1859988  94.1857059 138.9763586 143.3344401
  78.0020012 141.6914997 141.6699988  78.6180012 142.3184997 142.0499988
  77.1400012 142.0074997 141.9419988  77.9697698 141.8199430 141.7587183
  90.8020012 144.3424997 143.9759988  90.5240012 143.6144997 144.5319988
  91.7290012 144.4614997 144.1809988  90.8893124 144.2588802 144.0798845
  79.4170012 143.6044997 143.1629988  78.7310012 143.9564997 143.7299988
  79.9390012 144.3674997 142.9159988  79.3936852 143.7558578 143.2072118
  81.7740012 135.7904997 142.9989988  81.6910012 136.6794997 143.3459988
  82.6640012 135.5254997 143.2309988  81.8829469 135.8761430 143.0777626
  78.3490012 138.8824997 141.1759988  78.3040012 139.8214997 141.3539988
  77.4610012 138.6464997 140.9059988  78.2228574 138.9791892 141.1638912
  81.6240012 144.3714997 140.4259988  81.6880012 143.5774997 140.9569988
  82.2770012 144.2524997 139.7359988  81.7210241 144.2467148 140.4054317
  82.7730012 142.3434997 142.7319988  82.3130012 141.8594997 143.4179988
  83.0280012 141.6754997 142.0959988  82.7444902 142.1868731 142.7399334
  83.8440012 140.5864997 140.9939988  83.6640012 140.4324997 140.0669988
  84.7940012 140.6944997 141.0389988  83.9477776 140.5800175 140.8731843
  93.2340012 142.9414997 140.4399988  92.9600012 142.5164997 139.6269988
  93.2730012 143.8724997 140.2229988  93.2017699 143.0092484 140.2993610
  94.3550012 141.7644997 142.6299988  93.8330012 142.1214997 141.9109988
  94.3220012 142.4394997 143.3079988  94.2791634 141.9045413 142.6233145
  92.7040012 139.0044997 141.1799988  92.8000012 139.6714997 140.4999988
  92.5640012 138.1884997 140.6989988  92.6982272 138.9855655 141.0218347
  91.9510012 136.4124997 140.2979988  92.5620012 136.0414997 140.9349988
  91.1150012 135.9914997 140.4939988  91.9215032 136.3047554 140.4117035
  94.0640012 135.2974997 141.8399988  94.4760012 134.5764997 141.3649988
  94.7460012 135.9674997 141.8989988  94.2125885 135.2892368 141.7828915
  77.6210012 133.3454997 142.9459988  78.0600012 133.9564997 142.3539988
  76.9880012 133.8834997 143.4199988  77.5954514 133.5019257 142.9290930
  79.4820012 135.2614997 141.3879988  79.9740012 134.6314997 140.8609988
  80.1060012 135.5574997 142.0509988  79.6335688 135.2153804 141.4055482
  84.5080012 135.5544997 143.8449988  84.6860012 134.9084997 144.5279988
  84.4550012 136.3884997 144.3119988  84.5251999 135.5788009 144.0015917
 105.4940012 140.4054997 141.5919988 106.1950012 140.4274997 142.2429988
 105.7970012 139.7774997 140.9349988 105.6308133 140.3237070 141.5923369
 107.7170012 141.3194997 143.1899988 108.2970012 141.4694997 143.9369988
 108.1310012 141.7904997 142.4659988 107.8522997 141.4036578 143.1944058
 111.4160012 133.0694997 143.0029988 110.5160012 133.2084997 143.2979988
 111.6680012 133.9004997 142.6009988 111.3268702 133.2009074 142.9890205
 109.1950012 142.3524997 140.8199988 109.2370012 142.1294997 139.8899988
 110.0440012 142.7514997 141.0089988 109.3155280 142.3759438 140.7183554
 104.7670012 136.2284997 141.4899988 104.5140012 136.2474997 142.4129988
 104.5110012 135.3564997 141.1879988 104.6977481 136.1132558 141.5756175
 101.6500012 136.6734997 140.5909988 101.2190012 136.2284997 141.3209988
 100.9320012 137.0454997 140.0789988 101.4939438 136.6628940 140.6216799
  96.1660012 137.1614997 143.0669988  96.6400012 137.7524997 142.4819988
  95.4490012 137.6924997 143.4139988  96.1339341 137.3140867 143.0338836
 100.2680012 139.4514997 141.9729988  99.7250012 139.0714997 141.2819988
 101.1010012 139.6454997 141.5449988 100.3063631 139.4257125 141.8204501
 103.6030012 144.0164997 143.9089988 102.8580012 143.5094997 143.5869988
 103.4690012 144.0654997 144.8559988 103.4828776 143.9536940 143.9928647
 107.5010012 136.8304997 142.1079988 106.5620012 136.9424997 141.9569988
 107.7980012 137.6874997 142.4149988 107.4127583 136.9615981 142.1288337
 108.2190012 138.6974997 143.7689988 109.1110012 138.5604997 144.0879988
 108.2760012 139.4884997 143.2319988 108.3486504 138.7856052 143.7400818
 113.1040012 138.9074997 143.4639988 112.5500012 138.5114997 142.7919988
 113.2040012 139.8174997 143.1859988 113.0417059 138.9763586 143.3344401
  96.8580012 141.6914997 141.6699988  97.4740012 142.3184997 142.0499988
  95.9960012 142.0074997 141.9419988  96.8257698 141.8199430 141.7587183
 109.6580012 144.3424997 143.9759988 109.3800012 143.6144997 144.5319988
 110.5850012 144.4614997 144.1809988 109.7453124 144.2588802 144.0798845
  98.2730012 143.6044997 143.1629988  97.5870012 143.9564997 143.7299988
  98.7950012 144.3674997 142.9159988  98.2496852 143.7558578 143.2072118
 100.6300012 135.7904997 142.9989988 100.5470012 136.6794997 143.3459988
 101.5200012 135.5254997 143.2309988 100.7389469 135.8761430 143.0777626
  97.2050012 138.8824997 141.1759988  97.1600012 139.8214997 141.3539988
  96.3170012 138.6464997 140.9059988  97.0788574 138.9791892 141.1638912
 100.4800012 144.3714997 140.4259988 100.5440012 143.5774997 140.9569988
 101.1330012 144.2524997 139.7359988 100.5770241 144.2467148 140.4054317
 101.6290012 142.3434997 142.7319988 101.1690012 141.8594997 143.4179988
 101.8840012 141.6754997 142.0959988 101.6004902 142.1868731 142.7399334
 102.7000012 140.5864997 140.9939988 102.5200012 140.4324997 140.0669988
 103.6500012 140.6944997 141.0389988 102.8037776 140.5800175 140.8731843
 112.0900012 142.9414997 140.4399988 111.8160012 142.5164997 139.6269988
 112.1290012 143.8724997 140.2229988 112.0577699 143.0092484 140.2993610
 113.2110012 141.7644997 142.6299988 112.6890012 142.1214997 141.9109988
 113.1780012 142.4394997 143.3079988 113.1351634 141.9045413 142.6233145
 111.5600012 139.0044997 141.1799988 111.6560012 139.6714997 140.4999988
 111.4200012 138.1884997 140.6989988 111.5542272 138.9855655 141.0218347
 110.8070012 136.4124997 140.2979988 111.4180012 136.0414997 140.9349988
 109.9710012 135.9914997 140.4939988 110.7775032 136.3047554 140.4117035
 112.9200012 135.2974997 141.8399988 113.3320012 134.5764997 141.3649988
 113.6020012 135.9674997 141.8989988 113.0685885 135.2892368 141.7828915
  96.4770012 133.3454997 142.9459988  96.9160012 133.9564997 142.3539988
  95.8440012 133.8834997 143.4199988  96.4514514 133.5019257 142.9290930
  98.3380012 135.2614997 141.3879988  98.8300012 134.6314997 140.8609988
  98.9620012 135.5574997 142.0509988  98.4895688 135.2153804 141.4055482
 103.3640012 135.5544997 143.8449988 103.5420012 134.9084997 144.5279988
 103.3110012 136.3884997 144.3119988 103.3811999 135.5788009 144.0015917
 124.3500012 140.4054997 141.5919988 125.0510012 140.4274997 142.2429988
 124.6530012 139.7774997 140.9349988 124.4868133 140.3237070 141.5923369
 126.5730012 141.3194997 143.1899988 127.1530012 141.4694997 143.9369988
 126.9870012 141.7904997 142.4659988 126.7082997 141.4036578 143.1944058
 130.2720012 133.0694997 143.0029988 129.3720012 133.2084997 143.2979988
 130.5240012 133.9004997 142.6009988 130.1828702 133.2009074 142.9890205
 128.0510012 142.3524997 140.8199988 128.0930012 142.1294997 139.8899988
 128.9000012 142.7514997 141.0089988 128.1715280 142.3759438 140.7183554
 123.6230012 136.2284997 141.4899988 123.3700012 136.2474997 142.4129988
 123.3670012 135.3564997 141.1879988 123.5537481 136.1132558 141.5756175
 120.5060012 136.6734997 140.5909988 120.0750012 136.2284997 141.3209988
 119.7880012 137.0454997 140.0789988 120.3499438 136.6628940 140.6216799
 115.0220012 137.1614997 143.0669988 115.4960012 137.7524997 142.4819988
 114.3050012 137.6924997 143.4139988 114.9899341 137.3140867 143.0338836
 119.1240012 139.4514997 141.9729988 118.5810012 139.0714997 141.2819988
 119.9570012 139.6454997 141.5449988 119.1623631 139.4257125 141.8204501
 122.4590012 144.0164997 143.9089988 121.7140012 143.5094997 143.5869988
 122.3250012 144.0654997 144.8559988 122.3388776 143.9536940 143.9928647
 126.3570012 136.8304997 142.1079988 125.4180012 136.9424997 141.9569988
 126.6540012 137.6874997 142.4149988 126.2687583 136.9615981 142.1288337
 127.0750012 138.6974997 143.7689988 127.9670012 138.5604997 144.0879988
 127.1320012 139.4884997 143.2319988 127.2046504 138.7856052 143.7400818
 131.9600012 138.9074997 143.4639988 131.4060012 138.5114997 142.7919988
 132.0600012 139.8174997 143.1859988 131.8977059 138.9763586 143.3344401
 115.7140012 141.6914997 141.6699988 116.3300012 142.3184997 142.0499988
 114.8520012 142.0074997 141.9419988 115.6817698 141.8199430 141.7587183
 128.5140012 144.3424997 143.9759988 128.2360012 143.6144997 144.5319988
 129.4410012 144.4614997 144.1809988 128.6013124 144.2588802 144.0798845
 117.1290012 143.6044997 143.1629988 116.4430012 143.9564997 143.7299988
 117.6510012 144.3674997 142.9159988 117.1056852 143.7558578 143.2072118
 119.4860012 135.7904997 142.9989988 119.4030012 136.6794997 143.3459988
 120.3760012 135.5254997 143.2309988 119.5949469 135.8761430 143.0777626
 116.0610012 138.8824997 141.1759988 116.0160012 139.8214997 141.3539988
 115.1730012 138.6464997 140.9059988 115.9348574 138.9791892 141.1638912
 119.3360012 144.3714997 140.4259988 119.4000012 143.5774997 140.9569988
 119.9890012 144.2524997 139.7359988 119.4330241 144.2467148 140.4054317
 120.4850012 142.3434997 142.7319988 120.0250012 141.8594997 143.4179988
 120.7400012 141.6754997 142.0959988 120.4564902 142.1868731 142.7399334
 121.5560012 140.5864997 140.9939988 121.3760012 140.4324997 140.0669988
 122.5060012 140.6944997 141.0389988 121.6597776 140.5800175 140.8731843
 130.9460012 142.9414997 140.4399988 130.6720012 142.5164997 139.6269988
 130.9850012 143.8724997 140.2229988 130.9137699 143.0092484 140.2993610
 132.0670012 141.7644997 142.6299988 131.5450012 142.1214997 141.9109988
 132.0340012 142.4394997 143.3079988 131.9911634 141.9045413 142.6233145
 130.4160012 139.0044997 141.1799988 130.5120012 139.6714997 140.4999988
 130.2760012 138.1884997 140.6989988 130.4102272 138.9855655 141.0218347
 129.6630012 136.4124997 140.2979988 130.2740012 136.0414997 140.9349988
 128.8270012 135.9914997 140.4939988 129.6335032 136.3047554 140.4117035
 131.7760012 135.2974997 141.8399988 132.1880012 134.5764997 141.3649988
 132.4580012 135.9674997 141.8989988 131.9245885 135.2892368 141.7828915
 115.3330012 133.3454997 142.9459988 115.7720012 133.9564997 142.3539988
 114.7000012 133.8834997 143.4199988 115.3074514 133.5019257 142.9290930
 117.1940012 135.2614997 141.3879988 117.6860012 134.6314997 140.8609988
 117.8180012 135.5574997 142.0509988 117.3455688 135.2153804 141.4055482
 122.2200012 135.5544997 143.8449988 122.3980012 134.9084997 144.5279988
 122.1670012 136.3884997 144.3119988 122.2371999 135.5788009 144.0015917
 143.2060012 140.4054997 141.5919988 143.9070012 140.4274997 142.2429988
 143.5090012 139.7774997 140.9349988 143.3428133 140.3237070 141.5923369
 142.4790012 136.2284997 141.4899988 142.2260012 136.2474997 142.4129988
 142.2230012 135.3564997 141.1879988 142.4097481 136.1132558 141.5756175
 139.3620012 136.6734997 140.5909988 138.9310012 136.2284997 141.3209988
 138.6440012 137.0454997 140.0789988 139.2059438 136.6628940 140.6216799
 133.8780012 137.1614997 143.0669988 134.3520012 137.7524997 142.4819988
 133.1610012 137.6924997 143.4139988 133.8459341 137.3140867 143.0338836
 137.9800012 139.4514997 141.9729988 137.4370012 139.0714997 141.2819988
 138.8130012 139.6454997 141.5449988 138.0183631 139.4257125 141.8204501
 141.3150012 144.0164997 143.9089988 140.5700012 143.5094997 143.5869988
 141.1810012 144.0654997 144.8559988 141.1948776 143.9536940 143.9928647
 134.5700012 141.6914997 141.6699988 135.1860012 142.3184997 142.0499988
 133.7080012 142.0074997 141.9419988 134.5377698 141.8199430 141.7587183
 135.9850012 143.6044997 143.1629988 135.2990012 143.9564997 143.7299988
 136.5070012 144.3674997 142.9159988 135.9616852 143.7558578 143.2072118
 138.3420012 135.7904997 142.9989988 138.2590012 136.6794997 143.3459988
 139.2320012 135.5254997 143.2309988 138.4509469 135.8761430 143.0777626
 134.9170012 138.8824997 141.1759988 134.8720012 139.8214997 141.3539988
 134.0290012 138.6464997 140.9059988 134.7908574 138.9791892 141.1638912
 138.1920012 144.3714997 140.4259988 138.2560012 143.5774997 140.9569988
 138.8450012 144.2524997 139.7359988 138.2890241 144.2467148 140.4054317
 139.3410012 142.3434997 142.7319988 138.8810012 141.8594997 143.4179988
 139.5960012 141.6754997 142.0959988 139.3124902 142.1868731 142.7399334
 140.4120012 140.5864997 140.9939988 140.2320012 140.4324997 140.0669988
 141.3620012 140.6944997 141.0389988 140.5157776 140.5800175 140.8731843
 134.1890012 133.3454997 142.9459988 134.6280012 133.9564997 142.3539988
 133.5560012 133.8834997 143.4199988 134.1634514 133.5019257 142.9290930
 136.0500012 135.2614997 141.3879988 136.5420012 134.6314997 140.8609988
 136.6740012 135.5574997 142.0509988 136.2015688 135.2153804 141.4055482
 141.0760012 135.5544997 143.8449988 141.2540012 134.9084997 144.5279988
 141.0230012 136.3884997 144.3119988 141.0931999 135.5788009 144.0015917
  12.4390012  10.7114997 -12.6120012  12.5280012  11.6554997 -12.7440012
  11.8010012  10.4364997 -13.2700012  12.3649081  10.8034830 -12.7190386
  11.3720012   9.9664997  -9.1930012  11.3340012   9.3204997  -8.4880012
  11.0500012   9.5004997  -9.9640012  11.3232333   9.8149408  -9.2007022
   3.7410012   9.5814997  -7.6000012   3.7820012   8.9554997  -6.8770012
   4.4440012  10.2054997  -7.4180012   3.8416363   9.5801196  -7.4763956
  15.0780012  12.9054997 -10.8920012  14.6380012  12.1854997 -10.4410012
  15.0650012  13.6264997 -10.2620012  15.0160226  12.9043731 -10.7451506
   4.6640012  14.0314997  -9.0650012   4.2950012  13.2294997  -9.4350012
   5.6050012  13.8624997  -9.0190012   4.7407289  13.8990153  -9.1093684
   1.2740012   7.6914997 -13.6720012   0.8270012   8.5374997 -13.6910012
   0.7130012   7.1114997 -14.1880012   1.1369900   7.7289916 -13.7443199
   1.9850012   9.8534997 -11.5460012   2.1980012   9.0834997 -11.0190012
   2.7230012   9.9424997 -12.1500012   2.1138496   9.7601394 -11.5554700
  12.1900012  18.0104997 -10.6790012  12.8100012  17.3334997 -10.9530012
  11.9820012  17.7924997  -9.7710012  12.2466904  17.8883870 -10.5936635
   9.7620012  12.3994997  -8.7870012  10.0660012  11.7134997  -9.3820012
  10.4830012  12.5174997  -8.1690012   9.9010671  12.3216305  -8.7848184
  18.4250012   4.0004997  -7.9260012  18.4740012   4.6104997  -7.1900012
  18.8500012   4.4614997  -8.6490012  18.4891824   4.1463741  -7.9229795
  12.9030012   6.7934997  -8.4590012  13.0450012   5.8474997  -8.4390012
  12.7960012   7.0004997  -9.3880012  12.9079864   6.6919534  -8.5817661
   6.0570012   4.8944997 -11.1870012   6.1010012   5.7544997 -11.6050012
   5.6000012   4.3424997 -11.8210012   6.0012185   4.9375799 -11.3299701
  13.7800012   5.0254997 -12.7860012  14.4260012   4.6964997 -12.1610012
  14.2900012   5.5434997 -13.4090012  13.9374264   5.0504611 -12.7846138
   2.6780012   7.2914997 -10.4250012   3.3310012   6.7414997  -9.9930012
   2.7020012   7.0174997 -11.3420012   2.7706683   7.1791466 -10.4897877
   7.8340012   8.8414997 -11.2100012   8.4500012   8.3154997 -10.7000012
   7.2480012   8.2014997 -11.6130012   7.8390810   8.6829208 -11.1946827
  18.8160012   5.4784997  -5.6900012  18.1280012   6.1364997  -5.7860012
  18.8320012   5.2814997  -4.7540012  18.7238525   5.5420462  -5.5765192
   4.8680012   3.8124997  -7.1130012   4.6490012   4.3424997  -7.8790012
   4.2000012   4.0394997  -6.4660012   4.7477600   3.9156906  -7.1303621
  12.2370012  13.3124997 -13.5690012  11.9410012  12.9904997 -14.4200012
  11.9120012  14.2124997 -13.5280012  12.1526371  13.3900215 -13.6798199
   7.4370012  11.4884997  -6.8260012   6.6970012  12.0864997  -6.7220012
   8.1510012  12.0424997  -7.1410012   7.4322237  11.6452831  -6.8543535
  15.5440012   4.3164997 -10.8060012  15.3280012   3.5504997 -10.2730012
  16.1990012   4.7884997 -10.2930012  15.6030632   4.2755889 -10.6637139
   4.4610012   5.7044997  -9.1610012   5.0750012   6.3374997  -8.7870012
   4.9730012   5.2324997  -9.8170012   4.6142296   5.7272370  -9.1985748
   5.8440012  13.4524997  -6.0380012   5.8390012  14.3324997  -6.4160012
   4.9910012  13.3694997  -5.6130012   5.7279464  13.5616117  -6.0322093
   1.9650012  13.1234997 -15.2560012   1.6930012  13.3524997 -16.1450012
   2.0110012  13.9614997 -14.7960012   1.9340094  13.2681213 -15.3154303
  15.5900012  14.7454997  -8.5440012  14.6490012  14.8034997  -8.3820012
  15.8670012  15.6514997  -8.6810012  15.4984679  14.8759443  -8.5403185
  15.8910012   3.0314997  -7.1260012  15.1550012   3.6424997  -7.1640012
  16.5740012   3.4464997  -7.6530012  15.8826541   3.1711374  -7.2024168
   8.8940012   1.1184997  -9.6600012   8.7770012   0.1694997  -9.7150012
   8.0390012   1.4504997  -9.3870012   8.7623733   1.0335409  -9.6306103
  13.8420012  16.5264997 -11.9180012  14.2680012  15.8194997 -12.4030012
  14.1590012  17.3274997 -12.3350012  13.9431019  16.5380994 -12.0406870
  15.0020012  14.4274997 -13.4100012  14.7440012  13.7374997 -14.0210012
  15.0730012  13.9844997 -12.5640012  14.9762856  14.2732124 -13.3793115
  16.6880012  12.9934997  -4.9320012  16.8280012  12.4024997  -5.6720012
  16.8550012  13.8664997  -5.2890012  16.7296778  13.0306426  -5.0813035
  11.1610012   9.9554997 -15.1600012  10.4490012  10.4904997 -15.5120012
  11.8520012  10.0114997 -15.8200012  11.1570132  10.0362543 -15.2973711
  11.2140012   8.4134997 -18.1210012  11.9150012   8.4354997 -17.4700012
  11.5170012   7.7854997 -18.7770012  11.3507830   8.3316566 -18.1206289
  18.5300012   9.3334997  -6.8660012  17.8770012  10.0284997  -6.7770012
  18.9950012   9.5434997  -7.6760012  18.5035390   9.4569425  -6.9633117
  14.5660012  10.1654997 -14.2080012  13.8340012  10.3934997 -13.6350012
  15.0140012   9.4514997 -13.7530012  14.5263095  10.1002571 -14.0680881
  14.4640012   8.3394997  -5.1410012  14.5440012   9.1024997  -4.5690012
  13.8620012   8.6184997  -5.8310012  14.3935756   8.4817134  -5.1559411
   6.2120012  10.7954997 -12.3260012   5.8810012  10.4254997 -13.1440012
   6.8000012  10.1254997 -11.9790012   6.2461873  10.6541156 -12.3911898
   7.5780012  14.2234997  -9.6440012   7.4840012  13.6454997 -10.4010012
   8.3080012  13.8524997  -9.1480012   7.6637981  14.0942390  -9.6805835
   6.5780012   9.5644997  -8.6920012   7.1440012   9.6854997  -9.4550012
   6.8970012  10.2014997  -8.0530012   6.6985786   9.6671884  -8.7099960
  12.8870012  15.0674997  -7.9580012  12.6470012  15.7294997  -7.3100012
  12.6890012  14.2334997  -7.5330012  12.8273808  15.0453134  -7.8118476
   7.4580012  13.9634997  -3.9750012   7.1470012  14.7454997  -3.5200012
   6.8080012  13.8104997  -4.6610012   7.3275558  14.0499105  -4.0054129
  13.4370012   9.3274997 -16.5230012  14.0170012   9.4774997 -15.7760012
  13.8510012   9.7984997 -17.2460012  13.5722830   9.4116841 -16.5185866
   4.3780012  10.1614997  -4.7460012   4.4490012  10.8124997  -4.0480012
   3.4880012  10.2644997  -5.0810012   4.2673117  10.2645936  -4.6957300
  11.1640012  16.0644997 -13.0880012  11.6380012  16.3594997 -12.3100012
  10.6010012  16.8024997 -13.3210012  11.1527653  16.2046932 -13.0129864
   5.6980012  16.0354997  -3.2120012   5.7050012  15.8994997  -4.1590012
   4.7820012  15.9174997  -2.9600012   5.5751714  16.0009430  -3.3075334
  17.1360012   1.0774997 -16.7100012  16.2360012   1.2164997 -16.4150012
  17.3880012   1.9084997 -17.1120012  17.0468702   1.2089074 -16.7239795
   5.2020012   9.8654997 -14.7360012   4.9100012  10.6334997 -15.2270012
   4.5280012   9.2054997 -14.8990012   5.0709081   9.8814406 -14.8252660
  18.3250012  15.4434997 -18.3340012  18.3990012  16.3824997 -18.1630012
  19.2310012  15.1384997 -18.3900012  18.4575100  15.5306722 -18.3181881
   1.2950012  12.2284997  -5.9210012   0.7940012  12.2004997  -6.7360012
   1.3000012  11.3224997  -5.6120012   1.2271526  12.1022278  -5.9907128
   1.0450012  15.0084997  -9.0370012   1.9910012  14.8644997  -9.0560012
   0.9330012  15.7924997  -8.5000012   1.1592727  15.0948046  -8.9669928
  19.2430012  15.6744997  -3.3550012  19.1940012  14.7194997  -3.3920012
  18.4160012  15.9424997  -2.9540012  19.1244940  15.5798998  -3.3058625
  10.2220012  15.2484997  -4.4790012  10.3090012  16.0744997  -4.0040012
   9.3580012  14.9184997  -4.2300012  10.1171964  15.3169878  -4.3803451
  10.6360012  19.0204997 -14.6730012  10.5610012  18.8994997 -15.6190012
  10.6690012  19.9704997 -14.5540012  10.6301848  19.1322500 -14.7865166
   4.2890012  17.8094997 -12.8920012   4.4420012  17.4614997 -12.0130012
   3.4390012  17.4534997 -13.1470012   4.1948962  17.7136650 -12.8061660
  13.7380012  18.1744997 -17.6710012  14.1130012  17.4304997 -18.1410012
  13.7420012  17.9044997 -16.7520012  13.7898915  18.0361486 -17.6112176
  13.4070012  18.1004997 -14.9210012  12.4710012  18.2004997 -14.7430012
  13.6870012  17.3914997 -14.3430012  13.3168255  18.0182711 -14.8184609
  16.3950012   7.1674997  -2.8750012  15.9880012   7.6484997  -3.5960012
  16.4360012   6.2624997  -3.1830012  16.3448437   7.1109374  -3.0153317
   3.5440012  13.5514997  -4.8780012   3.7600012  13.1904997  -4.0190012
   2.6890012  13.1774997  -5.0880012   3.4579292  13.4514111  -4.7886614
   6.1630012   2.0214997  -8.8830012   5.3010012   1.9344997  -9.2900012
   6.1400012   2.8774997  -8.4550012   6.0420330   2.1252765  -8.8808137
  10.8260012   1.7434997  -5.5080012  11.2460012   1.3284997  -4.7550012
   9.8930012   1.5654997  -5.3910012  10.7573644   1.6625900  -5.3890461
  14.1520012   5.4994997  -4.6550012  13.6380012   5.3734997  -3.8570012
  13.9970012   6.4114997  -4.8990012  14.0606852   5.6056132  -4.5787842
  14.9150012  10.3604997 -18.8930012  14.9570012  10.1374997 -19.8230012
  15.7640012  10.7594997 -18.7030012  15.0355396  10.3839155 -18.9946373
  10.4870012   4.2364997 -18.2230012  10.2340012   4.2554997 -17.3000012
  10.2310012   3.3644997 -18.5240012  10.4177790   4.1212437 -18.1373737
   6.2540012   6.9874997  -7.7880012   5.6120012   6.9464997  -7.0790012
   6.2910012   7.9134997  -8.0250012   6.1711324   7.1071559  -7.7230176
   6.2510012   7.2084997 -12.8760012   5.3580012   6.8674997 -12.9340012
   6.7010012   6.8314997 -13.6310012   6.1897305   7.1108484 -12.9860823
  11.7860012   7.6244997 -14.0590012  11.3770012   8.4394997 -14.3500012
  12.5070012   7.4844997 -14.6730012  11.8274537   7.7172018 -14.1818658
  10.8880012   7.7994997  -2.5710012  10.3260012   7.0954997  -2.2500012
  11.7150012   7.6794997  -2.1030012  10.9227095   7.6867883  -2.4637670
  12.7910012   7.0704997 -11.2450012  12.5960012   7.6754997 -11.9600012
  12.9720012   6.2364997 -11.6790012  12.7887614   7.0406300 -11.4015595
   4.0040012   7.3074997  -5.9210012   3.9660012   7.7074997  -5.0520012
   3.5130012   6.4904997  -5.8300012   3.9324684   7.2518069  -5.7898941
   7.3700012   4.6814997 -19.1220012   6.9390012   4.2364997 -18.3920012
   6.6520012   5.0534997 -19.6340012   7.2139438   4.6708940 -19.0913201
   0.6120012   4.4234997 -12.0700012   1.2430012   4.3944997 -11.3510012
   1.0610012   3.9984997 -12.8000012   0.7590774   4.3620492 -12.0703447
   1.8860012   5.1694997 -16.6460012   2.3600012   5.7604997 -17.2310012
   1.1690012   5.7004997 -16.2990012   1.8539341   5.3220867 -16.6791164
  12.0550012   8.7084997  -6.5730012  12.3780012   8.0774997  -7.2160012
  11.6150012   8.1734997  -5.9130012  12.0396895   8.5498441  -6.5717150
   8.8320012   4.6354997 -11.7890012   7.9210012   4.6924997 -11.5010012
   9.3380012   4.5754997 -10.9790012   8.7755413   4.6351985 -11.6399378
   3.6610012   6.2644997 -12.9630012   2.7710012   6.3644997 -13.3030012
   3.9570012   5.4224997 -13.3090012   3.5792823   6.1643545 -13.0562787
   7.3140012   6.2644997 -15.3060012   8.2450012   6.3934997 -15.1280012
   7.0990012   6.9344997 -15.9560012   7.4124247   6.3726565 -15.3694253
  13.2370012   3.8704997  -8.5250012  12.5610012   4.0014997  -7.8610012
  12.7520012   3.7154997  -9.3350012  13.0787145   3.8674905  -8.5435483
   5.9880012   7.4594997 -17.7390012   5.4450012   7.0794997 -18.4310012
   6.8210012   7.6534997 -18.1680012   6.0264399   7.4338124 -17.8915474
  16.5250012  19.5424997  -2.2480012  16.7250012  19.9664997  -3.0830012
  17.1800012  19.8854997  -1.6410012  16.6410051  19.6469648  -2.2802164
   4.1230012  12.0164997  -2.6400012   4.8550012  12.2704997  -2.0790012
   3.3430012  12.2204997  -2.1250012   4.1178232  12.0789177  -2.4934240
  10.1520012   7.4234997  -9.9020012  10.7170012   6.8764997 -10.4490012
  10.0050012   6.9014997  -9.1140012  10.2092918   7.2782024  -9.8701546
   5.1540012   3.5594997 -13.4840012   4.8370012   2.6574997 -13.5190012
   5.9360012   3.5614997 -14.0370012   5.2162284   3.4361628 -13.5635217
   8.7790012   5.8114997  -7.4880012   7.9430012   6.2654997  -7.3780012
   9.3030012   6.0874997  -6.7360012   8.7354414   5.9109376  -7.3712864
   9.3230012  12.0244997 -15.8040012   8.5780012  11.5174997 -16.1260012
   9.1890012  12.0734997 -14.8570012   9.2028776  11.9616940 -15.7201353
  16.4730012  11.1574997  -7.0170012  17.1150012  11.6144997  -7.5610012
  15.6430012  11.2704997  -7.4800012  16.4485963  11.2352704  -7.1539823
  13.2210012   4.8384997 -17.6040012  12.2820012   4.9504997 -17.7560012
  13.5180012   5.6954997 -17.2980012  13.1327666   4.9696443 -17.5834232
  10.8420012  12.2084997  -4.5670012  10.4970012  11.8274997  -3.7600012
  10.6420012  13.1424997  -4.4950012  10.7678061  12.2825228  -4.4469039
  13.9390012   6.7054997 -15.9440012  14.8310012   6.5684997 -15.6250012
  13.9960012   7.4964997 -16.4800012  14.0686285   6.7936660 -15.9728309
   4.4480012  11.3194997 -10.0340012   5.1930012  11.3174997 -10.6350012
   4.5260012  10.4964997  -9.5520012   4.5605518  11.2079315 -10.0511071
  11.4490012  13.4834997 -16.7780012  11.1530012  14.3094997 -16.3970012
  10.7460012  12.8634997 -16.5820012  11.3134914  13.5128199 -16.6993557
   1.4560012   9.7804997  -4.7190012   1.6790012   9.3624997  -3.8870012
   0.8540012   9.1674997  -5.1420012   1.4051759   9.6404668  -4.6622978
   8.4720012   9.2974997  -2.5060012   8.1760012   9.1314997  -3.4010012
   9.4040012   9.0774997  -2.5170012   8.5574166   9.2450640  -2.6299464
  13.0930012  14.6704997  -4.6160012  12.1920012  14.8534997  -4.8840012
  13.1270012  14.9294997  -3.6950012  12.9743041  14.7305512  -4.5281803
  18.8240012   6.9154997 -16.2490012  18.2700012   6.5194997 -16.9210012
  18.9240012   7.8254997 -16.5270012  18.7617059   6.9843586 -16.3785599
  18.7870012  12.7154997  -3.4120012  17.9360012  12.9534997  -3.7790012
  19.3780012  12.6984997  -4.1650012  18.7502487  12.7458258  -3.5641107
  17.1190012  15.7014997 -15.7840012  16.7460012  14.8754997 -15.4750012
  17.3970012  15.5184997 -16.6810012  17.1055630  15.5637303 -15.8630374
  14.2800012  10.5094997  -8.7630012  13.3510012  10.2774997  -8.7900012
  14.7310012   9.7324997  -9.0930012  14.2139216  10.3727238  -8.8113083
   6.8230012  14.8374997 -12.6300012   7.3500012  15.6104997 -12.8300012
   5.9430012  15.0624997 -12.9310012   6.7761773  14.9738005 -12.6980990
   2.5780012   9.6994997 -18.0430012   3.1940012  10.3264997 -17.6630012
   1.7160012  10.0154997 -17.7710012   2.5457698   9.8279430 -17.9542817
   8.2500012  12.5004997 -13.0530012   8.0090012  13.4254997 -13.0120012
   7.5090012  12.0414997 -12.6570012   8.1168409  12.5651421 -12.9938623
   8.7650012  16.6494997  -6.7380012   9.1270012  17.5044997  -6.9720012
   9.2960012  16.3574997  -5.9980012   8.8864473  16.7271060  -6.6699145
   6.9330012  17.5224997 -13.5080012   5.9830012  17.6274997 -13.4570012
   7.2850012  18.3424997 -13.1630012   6.8504203  17.6478314 -13.4543350
  12.3090012  12.7484997  -7.0380012  11.8830012  12.5214997  -6.2110012
  12.8890012  12.0104997  -7.2200012  12.3291868  12.6175299  -6.9494170
  14.5120012  13.6774997 -17.9640012  14.8650012  13.2974997 -17.1590012
  13.5630012  13.5844997 -17.8770012  14.4320441  13.6129596 -17.8421441
  14.9670012  17.3004997  -4.5680012  14.3660012  16.7454997  -5.0640012
  15.2490012  17.9674997  -5.1940012  14.9228519  17.3146841  -4.7205048
  19.0150012  18.1574997 -17.7630012  19.7590012  18.7434997 -17.9030012
  18.3210012  18.7254997 -17.4290012  19.0230292  18.3145582 -17.7370039
   3.0900012   4.5334997  -5.1610012   2.1970012   4.8724997  -5.2290012
   2.9910012   3.6784997  -4.7430012   2.9544164   4.4642588  -5.1137765
  15.3780012  12.3504997 -15.7370012  15.1000012  11.6224997 -15.1810012
  16.3050012  12.4694997 -15.5320012  15.4653124  12.2668802 -15.6331155
   2.7410012  16.3384997  -6.7260012   2.9580012  15.4064997  -6.7570012
   2.9870012  16.6124997  -5.8430012   2.8039549  16.2480636  -6.6108237
   8.6030012  14.7894997 -19.5170012   8.8420012  14.0414997 -20.0640012
   8.3340012  14.4014997 -18.6840012   8.5993675  14.6346638 -19.4793135
   7.5400012  14.3594997 -17.0600012   7.6860012  13.8394997 -16.2700012
   7.5370012  15.2664997 -16.7540012   7.5595989  14.4108853 -16.9103912
   3.9930012  11.6124997 -16.5500012   3.3070012  11.9644997 -15.9830012
   4.5150012  12.3754997 -16.7970012   3.9696852  11.7638578 -16.5057882
  11.8240012   4.2744997  -6.2710012  12.5230012   4.3484997  -5.6210012
  11.4430012   3.4104997  -6.1170012  11.8681767   4.1677624  -6.1611678
  12.6090012   3.9264997 -15.1740012  12.8290012   4.3984997 -15.9770012
  13.1670012   4.3214997 -14.5040012  12.7144968   4.0444285 -15.1932669
  10.2770012  16.0574997 -16.3110012   9.4610012  16.5544997 -16.2590012
  10.8070012  16.5324997 -16.9510012  10.2369161  16.1897722 -16.3904044
   9.8090012   5.6544997 -14.3390012  10.6210012   6.1594997 -14.2930012
   9.5640012   5.5094997 -13.4250012   9.8870520   5.7040375 -14.2091483
  10.3440012   6.6404997  -5.1540012  10.4630012   7.2144997  -4.3970012
  11.0000012   5.9524997  -5.0400012  10.4489757   6.6261079  -5.0349175
  10.6920012   2.7354997 -13.4010012  10.3460012   3.3534997 -12.7560012
  11.3510012   3.2364997 -13.8820012  10.7337826   2.8875802 -13.3779029
   7.6160012  17.1014997 -16.3290012   7.7760012  17.9004997 -16.8300012
   7.4180012  17.4074997 -15.4440012   7.6111649  17.2524469 -16.2780185
   6.3500012   3.7984997 -16.7140012   6.2670012   4.6874997 -16.3670012
   7.2400012   3.5334997 -16.4820012   6.4589469   3.8841430 -16.6352374
  16.5490012   4.5474997  -4.3190012  15.6320012   4.8104997  -4.4070012
  16.8840012   4.5444997  -5.2160012  16.4689900   4.5830224  -4.4522081
  15.1510012   8.2984997 -10.2240012  14.3530012   7.8834997 -10.5520012
  15.5960012   7.6074997  -9.7330012  15.1019885   8.1483543 -10.2025111
   4.6090012  14.2264997 -17.6530012   5.2010012  14.9254997 -17.3770012
   5.0680012  13.7934997 -18.3730012   4.7521142  14.2637049 -17.7125170
   2.9250012   6.8904997 -18.5370012   2.8800012   7.8294997 -18.3590012
   2.0370012   6.6544997 -18.8070012   2.7988574   6.9871892 -18.5491088
  16.2370012  17.5544997  -8.6010012  16.0820012  18.2324997  -9.2580012
  17.1700012  17.6264997  -8.3980012  16.3418500  17.6570170  -8.6634881
   3.7330012   1.6724997  -9.8640012   3.5040012   1.7314997 -10.7920012
   3.2900012   0.8804997  -9.5580012   3.6418530   1.5735753  -9.9495214
   2.6630012  15.6124997 -13.7040012   1.8310012  16.0854997 -13.6760012
   3.2090012  16.1224997 -14.3020012   2.6229739  15.7461871 -13.7810284
   1.9510012  18.2254997  -2.3740012   2.4920012  18.0084997  -1.6140012
   1.4700012  17.4194997  -2.5630012   1.9599345  18.0869514  -2.2956924
   6.5490012  17.1444997  -0.7530012   7.3160012  16.6854997  -0.4120012
   6.5270012  16.9184997  -1.6830012   6.6511434  17.0510409  -0.8319957
  10.6410012  16.6524997 -19.3780012   9.9970012  16.0214997 -19.0570012
  11.4030012  16.1214997 -19.6100012  10.6558077  16.4942920 -19.3653989
  13.1260012  15.5244997  -2.0240012  12.7750012  14.6684997  -1.7810012
  13.8520012  15.6674997  -1.4170012  13.1760769  15.4265636  -1.9086381
  15.2450012  16.4694997 -19.1440012  15.5280012  15.6754997 -18.6920012
  15.9850012  16.7024997 -19.7050012  15.3837486  16.3922803 -19.1579302
   1.8580012  12.0354997  -1.4190012   2.0020012  11.1334997  -1.7060012
   1.0860012  12.3214997  -1.9070012   1.7733322  11.9508261  -1.5242119
   6.2000012  12.3794997 -19.2870012   6.2640012  11.5854997 -18.7560012
   6.8530012  12.2604997 -19.9770012   6.2970241  12.2547148 -19.3075683
   8.5140012  12.0054997  -1.9870012   8.1850012  12.2764997  -2.8440012
   8.6660012  11.0644997  -2.0740012   8.4894809  11.9153862  -2.1161756
  14.2480012  11.9214997  -4.6030012  14.9940012  12.5094997  -4.7230012
  13.4910012  12.5034997  -4.5400012  14.2477554  12.0807011  -4.6109093
   2.6910012   9.2354997  -1.9990012   3.0990012   8.3784997  -2.1200012
   2.4310012   9.2504997  -1.0780012   2.7117568   9.1200807  -1.8910412
   7.3490012  10.3514997 -16.9810012   6.8890012   9.8674997 -16.2950012
   7.6040012   9.6834997 -17.6170012   7.3204902  10.1948731 -16.9730666
   6.6380012   8.2444997  -4.6250012   6.0200012   8.9194997  -4.3450012
   6.9820012   8.5654997  -5.4580012   6.5999615   8.3802721  -4.6993419
   8.4200012   8.5944997 -18.7190012   8.2400012   8.4404997 -19.6460012
   9.3700012   8.7024997 -18.6740012   8.5237776   8.5880175 -18.8398157
  11.6580012  10.7164997  -1.3480012  12.6110012  10.7994997  -1.3750012
  11.4970012  10.0044997  -0.7280012  11.7666426  10.6316746  -1.2679421
  17.8100012  10.9494997 -19.2730012  17.5360012  10.5244997 -20.0860012
  17.8490012  11.8804997 -19.4900012  17.7777699  11.0172484 -19.4136390
   6.9770012   5.5994997  -3.5430012   7.1270012   4.8704997  -4.1450012
   6.9800012   6.3764997  -4.1020012   6.9979302   5.6047851  -3.7009308
   7.3900012   3.9694997  -6.0500012   7.9260012   4.4204997  -6.7020012
   6.5380012   3.8614997  -6.4730012   7.3482178   4.0166390  -6.1964244
   8.9720012   9.4084997  -5.8110012   9.7220012   9.2524997  -6.3840012
   8.6330012  10.2604997  -6.0860012   9.0288921   9.5022968  -5.9266439
  13.3870012   7.2234997  -0.7820012  13.5800012   6.2924997  -0.8940012
  14.2450012   7.6484997  -0.7920012  13.5293020   7.1536389  -0.7986639
  14.7040012  10.0124997  -2.7050012  14.4230012  10.7214997  -3.2820012
  15.6470012   9.9394997  -2.8560012  14.7929027  10.0997646  -2.8044449
   5.4560012   6.7974997  -1.6310012   4.6890012   6.2654997  -1.8410012
   6.1350012   6.4874997  -2.2310012   5.4427022   6.6827506  -1.7408352
   8.1960012   1.4254997  -5.6190012   8.0970012   2.3724997  -5.7240012
   7.4530012   1.0534997  -6.0940012   8.0820564   1.5045902  -5.6975440
   9.4600012   5.7474997  -2.0550012   9.2240012   5.5274997  -1.1530012
   8.6760012   5.5404997  -2.5650012   9.3218628   5.6894760  -2.0006068
  12.1750012   4.8744997  -2.9790012  11.2280012   4.9064997  -2.8470012
  12.4880012   4.2494997  -2.3260012  12.0875475   4.7943207  -2.8725545
  13.8090012   3.5084997  -0.9740012  13.7130012   2.5564997  -0.9800012
  13.4880012   3.7774997  -0.1140012  13.7524070   3.4144035  -0.8584559
   3.6360012   4.7184997  -1.9270012   3.8480012   4.0114997  -2.5370012
   3.5250012   4.2804997  -1.0830012   3.6499721   4.5627084  -1.8963157
   8.4170012   0.7194997  -2.9470012   9.1290012   0.0794997  -2.9610012
   8.3160012   0.9864997  -3.8610012   8.5007939   0.6679938  -3.0724350
   8.7710012   2.4024997  -0.8940012   8.6390012   1.9264997  -1.7140012
   8.1720012   3.1464997  -0.9490012   8.6719071   2.4379618  -1.0137114
   8.3170012  19.2854997 -17.7170012   9.2500012  19.4434997 -17.5740012
   8.0530012  19.9604997 -18.3420012   8.4089510  19.3983611 -17.7819259
   1.8860012  13.9214997 -18.2350012   2.8000012  14.0004997 -17.9610012
   1.8930012  13.2344997 -18.9010012   2.0121131  13.8393961 -18.2875607
   0.5350012  19.3144997 -13.1570012  -0.1119988  18.8524997 -13.6900012
   0.8890012  18.6424997 -12.5750012   0.4943849  19.1604723 -13.1512041
   1.4050012  17.3954997 -11.3530012   1.0700012  16.5154997 -11.1810012
   1.6270012  17.7404997 -10.4880012   1.3891783  17.3217500 -11.2125792
  18.9530012  18.2044997  -8.3720012  18.9320012  18.3894997  -7.4330012
  19.6440012  18.7734997  -8.7130012  19.0434618  18.3066606  -8.2896136
  18.5170012  17.7724997  -5.4500012  18.0290012  17.0364997  -5.8210012
  19.0660012  17.3784997  -4.7720012  18.5244872  17.6186249  -5.4090840
  16.9670012  13.5614997  -0.8120012  16.1010012  13.4564997  -0.4180012
  17.3440012  14.3204997  -0.3660012  16.8993308  13.6496900  -0.6977607
  18.2680012  11.8184997 -15.2980012  19.1180012  12.2394997 -15.1710012
  18.2740012  11.0784997 -14.6910012  18.3851372  11.7760803 -15.1985656
  18.6630012   9.8714997 -13.4740012  17.9360012   9.3924997 -13.0770012
  19.2440012  10.0774997 -12.7420012  18.6419375   9.8337090 -13.3205871
  18.4220012  12.6564997  -8.5270012  19.2550012  12.2784997  -8.8070012
  18.5340012  13.5994997  -8.6460012  18.5512647  12.7322218  -8.5814513
  16.9080012  15.5344997  -6.2200012  16.2610012  15.8594997  -5.5940012
  16.3910012  15.0944997  -6.8940012  16.7494029  15.5195004  -6.2254173
  18.9310012   9.7724997 -17.0830012  18.4090012  10.1294997 -17.8020012
  18.8980012  10.4474997 -16.4050012  18.8551634   9.9125413 -17.0896855
  17.2800012   7.0124997 -18.5320012  17.3760012   7.6794997 -19.2130012
  17.1400012   6.1964997 -19.0140012  17.2742135   6.9934500 -18.6901509
  16.4490012   8.3924997 -12.9110012  16.2990012   7.4474997 -12.9320012
  16.0960012   8.6734997 -12.0680012  16.3806625   8.3010441 -12.7997654
   1.4850012  10.4704997  -8.9010012   1.6690012  10.3884997  -9.8370012
   2.3340012  10.3464997  -8.4770012   1.6250139  10.4425003  -8.9718545
  17.3060012  10.3624997  -3.2730012  17.8890012   9.6284997  -3.0810012
  17.8700012  11.1344997  -3.2260012  17.4619769  10.3664227  -3.2403841
  18.8020012   8.2654997  -2.5880012  17.9390012   7.8864997  -2.7540012
  19.4070012   7.5264997  -2.6620012  18.7655979   8.1138023  -2.6207183
  16.5270012   4.4204997 -19.4150012  17.1380012   4.0494997 -18.7780012
  15.6910012   3.9994997 -19.2190012  16.4975032   4.3127554 -19.3012965
  16.1600012   5.9754997 -14.4490012  16.4400012   5.0684997 -14.3250012
  16.9190012   6.4094997 -14.8380012  16.3009277   5.9100942 -14.4846318
  16.7720012   6.5564997  -9.0130012  17.7050012   6.7684997  -9.0470012
  16.5370012   6.6584997  -8.0910012  16.8678036   6.5992769  -8.8930024
  16.8010012   7.2934997  -6.2370012  15.9580012   7.5614997  -5.8710012
  17.2430012   8.1154997  -6.4480012  16.7454158   7.4413291  -6.2154509
   1.0820012   5.7414997  -2.7600012   2.0020012   5.6194997  -2.5240012
   0.6330012   4.9914997  -2.3710012   1.1471580   5.6233727  -2.6750994
  19.0840012   1.2734997  -0.8840012  19.4340012   0.6194997  -1.4890012
  19.2310012   2.1104997  -1.3230012  19.1518419   1.2971591  -1.0262882
  16.7730012   3.2384997 -14.4010012  16.9560012   2.7894997 -13.5750012
  16.1740012   2.6534997 -14.8640012  16.7170202   3.0979975 -14.3506725
   2.3030012   4.0534997  -9.8690012   2.7490012   3.2614997  -9.5670012
   2.7700012   4.7694997  -9.4380012   2.4270172   4.0420624  -9.7695180
   0.6070012   7.0524997  -8.8000012   1.0990012   6.8314997  -9.5910012
   0.9700012   7.8934997  -8.5190012   0.7233126   7.1358357  -8.8702469
  18.6040012   3.3824997  -2.5340012  17.6860012   3.6534997  -2.5700012
  18.7270012   2.8474997  -3.3190012  18.4951066   3.3472892  -2.6449513
  18.6400012   3.3054997 -17.8730012  19.0520012   2.5844997 -18.3480012
  19.3220012   3.9754997 -17.8140012  18.7885885   3.2972368 -17.9301085
   0.9210012   3.3104997 -14.7460012  -0.0039988   3.5194997 -14.8750012
   1.3750012   3.7944997 -15.4350012   0.8557368   3.4045993 -14.8568774
  15.6920012  18.2944997 -12.8000012  16.3440012  17.9474997 -13.4080012
  16.2020012  18.7834997 -12.1540012  15.8502637  18.3130597 -12.7959764
   0.8850012   2.0484997  -6.4010012   0.2200012   1.8024997  -5.7580012
   0.4420012   2.6704997  -6.9790012   0.7340956   2.0988632  -6.3910648
   3.0770012  15.2234997  -2.2570012   2.2560012  15.3984997  -2.7170012
   2.8240012  15.1504997  -1.3360012   2.9306164  15.2375622  -2.1955077
   6.0310012  16.1984997  -5.9980012   5.6060012  17.0074997  -6.2810012
   6.9350012  16.2834997  -6.3000012   6.0950271  16.3208469  -6.0776224
  10.3420012  17.5974997  -3.0390012  10.5270012  17.2634997  -2.1610012
  11.1880012  17.9064997  -3.3610012  10.4817539  17.5936047  -2.9624395
  12.6870012  18.8834997  -3.7950012  13.3640012  18.2504997  -4.0350012
  13.0090012  19.2844997  -2.9880012  12.8231637  18.8511154  -3.7187207
  17.6040012   1.4724997  -4.7150012  16.7920012   1.7974997  -5.1030012
  17.8370012   0.7124997  -5.2480012  17.5243423   1.4142436  -4.8401747
   3.4330012  19.4544997  -5.9510012   2.7120012  19.8944997  -6.4020012
   3.0670012  19.2034997  -5.1020012   3.2849804  19.4807698  -5.8980160
   5.9000012  19.0544997  -6.9210012   5.0350012  19.1264997  -6.5170012
   5.8450012  19.6014997  -7.7050012   5.7742085  19.1382685  -6.9716638
  10.6100012  18.9424997  -7.7460012  10.1540012  19.4714997  -8.4000012
  10.7730012  19.5454997  -7.0200012  10.5695585  19.0964468  -7.7374938
  12.9380012  17.8204997  -6.8010012  12.0330012  17.9854997  -7.0660012
  13.3670012  18.6734997  -6.8660012  12.8720799  17.9584483  -6.8460818
  15.5420012  19.3904997  -6.5060012  15.3600012  20.3064997  -6.7160012
  15.7190012  18.9804997  -7.3520012  15.5410210  19.4604822  -6.6492115
   2.8470012  18.0774997  -9.0410012   2.8290012  17.6524997  -8.1830012
   3.6520012  17.7594997  -9.4490012   2.9533875  17.9763812  -8.9788345
   4.9890012  16.7874997 -10.3860012   4.7700012  15.8714997 -10.2160012
   5.8130012  16.9274997  -9.9200012   5.0704420  16.6810520 -10.2997226
   7.5260012  17.2574997  -9.5370012   7.7390012  16.3694997  -9.8240012
   7.5900012  17.2234997  -8.5830012   7.5638231  17.1313102  -9.4472603
  11.0340012   2.9214997 -10.3930012  10.3600012   2.2924997 -10.1370012
  11.5980012   2.4374997 -10.9960012  11.0179230   2.7698744 -10.4394660
  16.1770012   1.0294997 -10.2800012  16.7810012   1.5764997 -10.7820012
  15.3070012   1.3484997 -10.5200012  16.1421241   1.1475806 -10.3812346
  17.9040012   2.1674997 -11.9470012  18.5160012   1.6534997 -12.4730012
  18.2860012   3.0454997 -11.9230012  18.0394540   2.2157140 -12.0158170
   3.3610012   1.5554997 -12.5710012   2.5840012   1.3214997 -13.0780012
   3.8910012   0.7584997 -12.5620012   3.3262330   1.4156988 -12.6392258
   2.1970012   1.3534997 -16.7670012   2.6360012   1.9644997 -17.3590012
   1.5640012   1.8914997 -16.2930012   2.1714514   1.5099257 -16.7839070
   7.9400012   1.4824997 -12.7570012   8.8150012   1.8704997 -12.7870012
   7.8040012   1.2674997 -11.8350012   8.0413695   1.5065184 -12.6363560
  13.4970012   1.5124997 -11.1080012  13.5730012   1.6074997 -12.0580012
  13.2220012   0.6044997 -10.9790012  13.4702321   1.4027867 -11.2204921
  14.8500012   1.5384997 -15.4160012  14.1480012   2.1534997 -15.6250012
  14.4060012   0.7004997 -15.2850012  14.6936330   1.5095783 -15.4269672
   2.0980012  17.3014997 -15.8690012   1.4130012  17.2634997 -16.5370012
   2.1020012  18.2144997 -15.5810012   2.0048193  17.4197016 -15.9214716
   4.0580012   3.2694997 -18.3250012   4.5500012   2.6394997 -18.8520012
   4.6820012   3.5654997 -17.6610012   4.2095446   3.2233199 -18.3074020
   9.0840012   3.5624997 -15.8680012   9.2620012   2.9164997 -15.1850012
   9.0310012   4.3964997 -15.4000012   9.1011829   3.5867985 -15.7114060
  10.9630012  18.5114997 -17.4720012  11.8290012  18.8774997 -17.6500012
  10.7160012  18.0714997 -18.2860012  11.0482392  18.5021756 -17.6063711
  17.6720012  18.0744997 -14.7930012  17.4770012  17.3264997 -15.3580012
  17.6330012  18.8324997 -15.3760012  17.6400380  18.0746099 -14.9491616
   3.3190012   2.0694997  -3.0530012   2.9530012   1.3044997  -2.6100012
   4.2320012   2.0984997  -2.7660012   3.3922790   1.9687224  -2.9535930
   5.2920012   1.4204997  -1.5170012   6.1900012   1.1464997  -1.7020012
   4.9050012   0.6774997  -1.0530012   5.3626612   1.2825914  -1.4796357
   3.9160012  18.2214997 -18.8440012   3.6490012  18.5084997 -17.9710012
   4.6880012  17.6754997 -18.6920012   3.9837488  18.1870294 -18.7038950
  13.7130012   0.7524997  -1.3350012  13.7900012   0.3264997  -0.4810012
  14.6070012   0.7664997  -1.6780012  13.8443428   0.6960879  -1.2644690
  16.8890012  16.8254997  -2.6430012  16.1070012  16.6394997  -3.1620012
  16.8170012  17.7544997  -2.4250012  16.7721777  16.9256492  -2.6845952
  31.2950012  10.7114997 -12.6120012  31.3840012  11.6554997 -12.7440012
  30.6570012  10.4364997 -13.2700012  31.2209081  10.8034830 -12.7190386
  30.2280012   9.9664997  -9.1930012  30.1900012   9.3204997  -8.4880012
  29.9060012   9.5004997  -9.9640012  30.1792333   9.8149408  -9.2007022
  22.5970012   9.5814997  -7.6000012  22.6380012   8.9554997  -6.8770012
  23.3000012  10.2054997  -7.4180012  22.6976363   9.5801196  -7.4763956
  33.9340012  12.9054997 -10.8920012  33.4940012  12.1854997 -10.4410012
  33.9210012  13.6264997 -10.2620012  33.8720226  12.9043731 -10.7451506
  23.5200012  14.0314997  -9.0650012  23.1510012  13.2294997  -9.4350012
  24.4610012  13.8624997  -9.0190012  23.5967289  13.8990153  -9.1093684
  20.1300012   7.6914997 -13.6720012  19.6830012   8.5374997 -13.6910012
  19.5690012   7.1114997 -14.1880012  19.9929900   7.7289916 -13.7443199
  20.8410012   9.8534997 -11.5460012  21.0540012   9.0834997 -11.0190012
  21.5790012   9.9424997 -12.1500012  20.9698496   9.7601394 -11.5554700
  31.0460012  18.0104997 -10.6790012  31.6660012  17.3334997 -10.9530012
  30.8380012  17.7924997  -9.7710012  31.1026904  17.8883870 -10.5936635
  28.6180012  12.3994997  -8.7870012  28.9220012  11.7134997  -9.3820012
  29.3390012  12.5174997  -8.1690012  28.7570671  12.3216305  -8.7848184
  37.2810012   4.0004997  -7.9260012  37.3300012   4.6104997  -7.1900012
  37.7060012   4.4614997  -8.6490012  37.3451824   4.1463741  -7.9229795
  31.7590012   6.7934997  -8.4590012  31.9010012   5.8474997  -8.4390012
  31.6520012   7.0004997  -9.3880012  31.7639864   6.6919534  -8.5817661
  24.9130012   4.8944997 -11.1870012  24.9570012   5.7544997 -11.6050012
  24.4560012   4.3424997 -11.8210012  24.8572185   4.9375799 -11.3299701
  32.6360012   5.0254997 -12.7860012  33.2820012   4.6964997 -12.1610012
  33.1460012   5.5434997 -13.4090012  32.7934264   5.0504611 -12.7846138
  21.5340012   7.2914997 -10.4250012  22.1870012   6.7414997  -9.9930012
  21.5580012   7.0174997 -11.3420012  21.6266683   7.1791466 -10.4897877
  26.6900012   8.8414997 -11.2100012  27.3060012   8.3154997 -10.7000012
  26.1040012   8.2014997 -11.6130012  26.6950810   8.6829208 -11.1946827
  37.6720012   5.4784997  -5.6900012  36.9840012   6.1364997  -5.7860012
  37.6880012   5.2814997  -4.7540012  37.5798525   5.5420462  -5.5765192
  23.7240012   3.8124997  -7.1130012  23.5050012   4.3424997  -7.8790012
  23.0560012   4.0394997  -6.4660012  23.6037600   3.9156906  -7.1303621
  31.0930012  13.3124997 -13.5690012  30.7970012  12.9904997 -14.4200012
  30.7680012  14.2124997 -13.5280012  31.0086371  13.3900215 -13.6798199
  26.2930012  11.4884997  -6.8260012  25.5530012  12.0864997  -6.7220012
  27.0070012  12.0424997  -7.1410012  26.2882237  11.6452831  -6.8543535
  34.4000012   4.3164997 -10.8060012  34.1840012   3.5504997 -10.2730012
  35.0550012   4.7884997 -10.2930012  34.4590632   4.2755889 -10.6637139
  23.3170012   5.7044997  -9.1610012  23.9310012   6.3374997  -8.7870012
  23.8290012   5.2324997  -9.8170012  23.4702296   5.7272370  -9.1985748
  24.7000012  13.4524997  -6.0380012  24.6950012  14.3324997  -6.4160012
  23.8470012  13.3694997  -5.6130012  24.5839464  13.5616117  -6.0322093
  20.8210012  13.1234997 -15.2560012  20.5490012  13.3524997 -16.1450012
  20.8670012  13.9614997 -14.7960012  20.7900094  13.2681213 -15.3154303
  34.4460012  14.7454997  -8.5440012  33.5050012  14.8034997  -8.3820012
  34.7230012  15.6514997  -8.6810012  34.3544679  14.8759443  -8.5403185
  34.7470012   3.0314997  -7.1260012  34.0110012   3.6424997  -7.1640012
  35.4300012   3.4464997  -7.6530012  34.7386541   3.1711374  -7.2024168
  27.7500012   1.1184997  -9.6600012  27.6330012   0.1694997  -9.7150012
  26.8950012   1.4504997  -9.3870012  27.6183733   1.0335409  -9.6306103
  32.6980012  16.5264997 -11.9180012  33.1240012  15.8194997 -12.4030012
  33.0150012  17.3274997 -12.3350012  32.7991019  16.5380994 -12.0406870
  33.8580012  14.4274997 -13.4100012  33.6000012  13.7374997 -14.0210012
  33.9290012  13.9844997 -12.5640012  33.8322856  14.2732124 -13.3793115
  35.5440012  12.9934997  -4.9320012  35.6840012  12.4024997  -5.6720012
  35.7110012  13.8664997  -5.2890012  35.5856778  13.0306426  -5.0813035
  30.0170012   9.9554997 -15.1600012  29.3050012  10.4904997 -15.5120012
  30.7080012  10.0114997 -15.8200012  30.0130132  10.0362543 -15.2973711
  30.0700012   8.4134997 -18.1210012  30.7710012   8.4354997 -17.4700012
  30.3730012   7.7854997 -18.7770012  30.2067830   8.3316566 -18.1206289
  37.3860012   9.3334997  -6.8660012  36.7330012  10.0284997  -6.7770012
  37.8510012   9.5434997  -7.6760012  37.3595390   9.4569425  -6.9633117
  33.4220012  10.1654997 -14.2080012  32.6900012  10.3934997 -13.6350012
  33.8700012   9.4514997 -13.7530012  33.3823095  10.1002571 -14.0680881
  33.3200012   8.3394997  -5.1410012  33.4000012   9.1024997  -4.5690012
  32.7180012   8.6184997  -5.8310012  33.2495756   8.4817134  -5.1559411
  25.0680012  10.7954997 -12.3260012  24.7370012  10.4254997 -13.1440012
  25.6560012  10.1254997 -11.9790012  25.1021873  10.6541156 -12.3911898
  26.4340012  14.2234997  -9.6440012  26.3400012  13.6454997 -10.4010012
  27.1640012  13.8524997  -9.1480012  26.5197981  14.0942390  -9.6805835
  25.4340012   9.5644997  -8.6920012  26.0000012   9.6854997  -9.4550012
  25.7530012  10.2014997  -8.0530012  25.5545786   9.6671884  -8.7099960
  31.7430012  15.0674997  -7.9580012  31.5030012  15.7294997  -7.3100012
  31.5450012  14.2334997  -7.5330012  31.6833808  15.0453134  -7.8118476
  26.3140012  13.9634997  -3.9750012  26.0030012  14.7454997  -3.5200012
  25.6640012  13.8104997  -4.6610012  26.1835558  14.0499105  -4.0054129
  32.2930012   9.3274997 -16.5230012  32.8730012   9.4774997 -15.7760012
  32.7070012   9.7984997 -17.2460012  32.4282830   9.4116841 -16.5185866
  23.2340012  10.1614997  -4.7460012  23.3050012  10.8124997  -4.0480012
  22.3440012  10.2644997  -5.0810012  23.1233117  10.2645936  -4.6957300
  30.0200012  16.0644997 -13.0880012  30.4940012  16.3594997 -12.3100012
  29.4570012  16.8024997 -13.3210012  30.0087653  16.2046932 -13.0129864
  24.5540012  16.0354997  -3.2120012  24.5610012  15.8994997  -4.1590012
  23.6380012  15.9174997  -2.9600012  24.4311714  16.0009430  -3.3075334
  35.9920012   1.0774997 -16.7100012  35.0920012   1.2164997 -16.4150012
  36.2440012   1.9084997 -17.1120012  35.9028702   1.2089074 -16.7239795
  24.0580012   9.8654997 -14.7360012  23.7660012  10.6334997 -15.2270012
  23.3840012   9.2054997 -14.8990012  23.9269081   9.8814406 -14.8252660
  37.1810012  15.4434997 -18.3340012  37.2550012  16.3824997 -18.1630012
  38.0870012  15.1384997 -18.3900012  37.3135100  15.5306722 -18.3181881
  20.1510012  12.2284997  -5.9210012  19.6500012  12.2004997  -6.7360012
  20.1560012  11.3224997  -5.6120012  20.0831526  12.1022278  -5.9907128
  19.9010012  15.0084997  -9.0370012  20.8470012  14.8644997  -9.0560012
  19.7890012  15.7924997  -8.5000012  20.0152727  15.0948046  -8.9669928
  38.0990012  15.6744997  -3.3550012  38.0500012  14.7194997  -3.3920012
  37.2720012  15.9424997  -2.9540012  37.9804940  15.5798998  -3.3058625
  29.0780012  15.2484997  -4.4790012  29.1650012  16.0744997  -4.0040012
  28.2140012  14.9184997  -4.2300012  28.9731964  15.3169878  -4.3803451
  29.4920012  19.0204997 -14.6730012  29.4170012  18.8994997 -15.6190012
  29.5250012  19.9704997 -14.5540012  29.4861848  19.1322500 -14.7865166
  23.1450012  17.8094997 -12.8920012  23.2980012  17.4614997 -12.0130012
  22.2950012  17.4534997 -13.1470012  23.0508962  17.7136650 -12.8061660
  32.5940012  18.1744997 -17.6710012  32.9690012  17.4304997 -18.1410012
  32.5980012  17.9044997 -16.7520012  32.6458915  18.0361486 -17.6112176
  32.2630012  18.1004997 -14.9210012  31.3270012  18.2004997 -14.7430012
  32.5430012  17.3914997 -14.3430012  32.1728255  18.0182711 -14.8184609
  35.2510012   7.1674997  -2.8750012  34.8440012   7.6484997  -3.5960012
  35.2920012   6.2624997  -3.1830012  35.2008437   7.1109374  -3.0153317
  22.4000012  13.5514997  -4.8780012  22.6160012  13.1904997  -4.0190012
  21.5450012  13.1774997  -5.0880012  22.3139292  13.4514111  -4.7886614
  25.0190012   2.0214997  -8.8830012  24.1570012   1.9344997  -9.2900012
  24.9960012   2.8774997  -8.4550012  24.8980330   2.1252765  -8.8808137
  29.6820012   1.7434997  -5.5080012  30.1020012   1.3284997  -4.7550012
  28.7490012   1.5654997  -5.3910012  29.6133644   1.6625900  -5.3890461
  33.0080012   5.4994997  -4.6550012  32.4940012   5.3734997  -3.8570012
  32.8530012   6.4114997  -4.8990012  32.9166852   5.6056132  -4.5787842
  33.7710012  10.3604997 -18.8930012  33.8130012  10.1374997 -19.8230012
  34.6200012  10.7594997 -18.7030012  33.8915396  10.3839155 -18.9946373
  29.3430012   4.2364997 -18.2230012  29.0900012   4.2554997 -17.3000012
  29.0870012   3.3644997 -18.5240012  29.2737790   4.1212437 -18.1373737
  25.1100012   6.9874997  -7.7880012  24.4680012   6.9464997  -7.0790012
  25.1470012   7.9134997  -8.0250012  25.0271324   7.1071559  -7.7230176
  25.1070012   7.2084997 -12.8760012  24.2140012   6.8674997 -12.9340012
  25.5570012   6.8314997 -13.6310012  25.0457305   7.1108484 -12.9860823
  30.6420012   7.6244997 -14.0590012  30.2330012   8.4394997 -14.3500012
  31.3630012   7.4844997 -14.6730012  30.6834537   7.7172018 -14.1818658
  29.7440012   7.7994997  -2.5710012  29.1820012   7.0954997  -2.2500012
  30.5710012   7.6794997  -2.1030012  29.7787095   7.6867883  -2.4637670
  31.6470012   7.0704997 -11.2450012  31.4520012   7.6754997 -11.9600012
  31.8280012   6.2364997 -11.6790012  31.6447614   7.0406300 -11.4015595
  22.8600012   7.3074997  -5.9210012  22.8220012   7.7074997  -5.0520012
  22.3690012   6.4904997  -5.8300012  22.7884684   7.2518069  -5.7898941
  26.2260012   4.6814997 -19.1220012  25.7950012   4.2364997 -18.3920012
  25.5080012   5.0534997 -19.6340012  26.0699438   4.6708940 -19.0913201
  19.4680012   4.4234997 -12.0700012  20.0990012   4.3944997 -11.3510012
  19.9170012   3.9984997 -12.8000012  19.6150774   4.3620492 -12.0703447
  20.7420012   5.1694997 -16.6460012  21.2160012   5.7604997 -17.2310012
  20.0250012   5.7004997 -16.2990012  20.7099341   5.3220867 -16.6791164
  30.9110012   8.7084997  -6.5730012  31.2340012   8.0774997  -7.2160012
  30.4710012   8.1734997  -5.9130012  30.8956895   8.5498441  -6.5717150
  27.6880012   4.6354997 -11.7890012  26.7770012   4.6924997 -11.5010012
  28.1940012   4.5754997 -10.9790012  27.6315413   4.6351985 -11.6399378
  22.5170012   6.2644997 -12.9630012  21.6270012   6.3644997 -13.3030012
  22.8130012   5.4224997 -13.3090012  22.4352823   6.1643545 -13.0562787
  26.1700012   6.2644997 -15.3060012  27.1010012   6.3934997 -15.1280012
  25.9550012   6.9344997 -15.9560012  26.2684247   6.3726565 -15.3694253
  32.0930012   3.8704997  -8.5250012  31.4170012   4.0014997  -7.8610012
  31.6080012   3.7154997  -9.3350012  31.9347145   3.8674905  -8.5435483
  24.8440012   7.4594997 -17.7390012  24.3010012   7.0794997 -18.4310012
  25.6770012   7.6534997 -18.1680012  24.8824399   7.4338124 -17.8915474
  35.3810012  19.5424997  -2.2480012  35.5810012  19.9664997  -3.0830012
  36.0360012  19.8854997  -1.6410012  35.4970051  19.6469648  -2.2802164
  22.9790012  12.0164997  -2.6400012  23.7110012  12.2704997  -2.0790012
  22.1990012  12.2204997  -2.1250012  22.9738232  12.0789177  -2.4934240
  29.0080012   7.4234997  -9.9020012  29.5730012   6.8764997 -10.4490012
  28.8610012   6.9014997  -9.1140012  29.0652918   7.2782024  -9.8701546
  24.0100012   3.5594997 -13.4840012  23.6930012   2.6574997 -13.5190012
  24.7920012   3.5614997 -14.0370012  24.0722284   3.4361628 -13.5635217
  27.6350012   5.8114997  -7.4880012  26.7990012   6.2654997  -7.3780012
  28.1590012   6.0874997  -6.7360012  27.5914414   5.9109376  -7.3712864
  28.1790012  12.0244997 -15.8040012  27.4340012  11.5174997 -16.1260012
  28.0450012  12.0734997 -14.8570012  28.0588776  11.9616940 -15.7201353
  35.3290012  11.1574997  -7.0170012  35.9710012  11.6144997  -7.5610012
  34.4990012  11.2704997  -7.4800012  35.3045963  11.2352704  -7.1539823
  32.0770012   4.8384997 -17.6040012  31.1380012   4.9504997 -17.7560012
  32.3740012   5.6954997 -17.2980012  31.9887666   4.9696443 -17.5834232
  29.6980012  12.2084997  -4.5670012  29.3530012  11.8274997  -3.7600012
  29.4980012  13.1424997  -4.4950012  29.6238061  12.2825228  -4.4469039
  32.7950012   6.7054997 -15.9440012  33.6870012   6.5684997 -15.6250012
  32.8520012   7.4964997 -16.4800012  32.9246285   6.7936660 -15.9728309
  23.3040012  11.3194997 -10.0340012  24.0490012  11.3174997 -10.6350012
  23.3820012  10.4964997  -9.5520012  23.4165518  11.2079315 -10.0511071
  30.3050012  13.4834997 -16.7780012  30.0090012  14.3094997 -16.3970012
  29.6020012  12.8634997 -16.5820012  30.1694914  13.5128199 -16.6993557
  20.3120012   9.7804997  -4.7190012  20.5350012   9.3624997  -3.8870012
  19.7100012   9.1674997  -5.1420012  20.2611759   9.6404668  -4.6622978
  27.3280012   9.2974997  -2.5060012  27.0320012   9.1314997  -3.4010012
  28.2600012   9.0774997  -2.5170012  27.4134166   9.2450640  -2.6299464
  31.9490012  14.6704997  -4.6160012  31.0480012  14.8534997  -4.8840012
  31.9830012  14.9294997  -3.6950012  31.8303041  14.7305512  -4.5281803
  37.6800012   6.9154997 -16.2490012  37.1260012   6.5194997 -16.9210012
  37.7800012   7.8254997 -16.5270012  37.6177059   6.9843586 -16.3785599
  37.6430012  12.7154997  -3.4120012  36.7920012  12.9534997  -3.7790012
  38.2340012  12.6984997  -4.1650012  37.6062487  12.7458258  -3.5641107
  35.9750012  15.7014997 -15.7840012  35.6020012  14.8754997 -15.4750012
  36.2530012  15.5184997 -16.6810012  35.9615630  15.5637303 -15.8630374
  33.1360012  10.5094997  -8.7630012  32.2070012  10.2774997  -8.7900012
  33.5870012   9.7324997  -9.0930012  33.0699216  10.3727238  -8.8113083
  25.6790012  14.8374997 -12.6300012  26.2060012  15.6104997 -12.8300012
  24.7990012  15.0624997 -12.9310012  25.6321773  14.9738005 -12.6980990
  21.4340012   9.6994997 -18.0430012  22.0500012  10.3264997 -17.6630012
  20.5720012  10.0154997 -17.7710012  21.4017698   9.8279430 -17.9542817
  27.1060012  12.5004997 -13.0530012  26.8650012  13.4254997 -13.0120012
  26.3650012  12.0414997 -12.6570012  26.9728409  12.5651421 -12.9938623
  27.6210012  16.6494997  -6.7380012  27.9830012  17.5044997  -6.9720012
  28.1520012  16.3574997  -5.9980012  27.7424473  16.7271060  -6.6699145
  25.7890012  17.5224997 -13.5080012  24.8390012  17.6274997 -13.4570012
  26.1410012  18.3424997 -13.1630012  25.7064203  17.6478314 -13.4543350
  31.1650012  12.7484997  -7.0380012  30.7390012  12.5214997  -6.2110012
  31.7450012  12.0104997  -7.2200012  31.1851868  12.6175299  -6.9494170
  33.3680012  13.6774997 -17.9640012  33.7210012  13.2974997 -17.1590012
  32.4190012  13.5844997 -17.8770012  33.2880441  13.6129596 -17.8421441
  33.8230012  17.3004997  -4.5680012  33.2220012  16.7454997  -5.0640012
  34.1050012  17.9674997  -5.1940012  33.7788519  17.3146841  -4.7205048
  37.8710012  18.1574997 -17.7630012  38.6150012  18.7434997 -17.9030012
  37.1770012  18.7254997 -17.4290012  37.8790292  18.3145582 -17.7370039
  21.9460012   4.5334997  -5.1610012  21.0530012   4.8724997  -5.2290012
  21.8470012   3.6784997  -4.7430012  21.8104164   4.4642588  -5.1137765
  34.2340012  12.3504997 -15.7370012  33.9560012  11.6224997 -15.1810012
  35.1610012  12.4694997 -15.5320012  34.3213124  12.2668802 -15.6331155
  21.5970012  16.3384997  -6.7260012  21.8140012  15.4064997  -6.7570012
  21.8430012  16.6124997  -5.8430012  21.6599549  16.2480636  -6.6108237
  27.4590012  14.7894997 -19.5170012  27.6980012  14.0414997 -20.0640012
  27.1900012  14.4014997 -18.6840012  27.4553675  14.6346638 -19.4793135
  26.3960012  14.3594997 -17.0600012  26.5420012  13.8394997 -16.2700012
  26.3930012  15.2664997 -16.7540012  26.4155989  14.4108853 -16.9103912
  22.8490012  11.6124997 -16.5500012  22.1630012  11.9644997 -15.9830012
  23.3710012  12.3754997 -16.7970012  22.8256852  11.7638578 -16.5057882
  30.6800012   4.2744997  -6.2710012  31.3790012   4.3484997  -5.6210012
  30.2990012   3.4104997  -6.1170012  30.7241767   4.1677624  -6.1611678
  31.4650012   3.9264997 -15.1740012  31.6850012   4.3984997 -15.9770012
  32.0230012   4.3214997 -14.5040012  31.5704968   4.0444285 -15.1932669
  29.1330012  16.0574997 -16.3110012  28.3170012  16.5544997 -16.2590012
  29.6630012  16.5324997 -16.9510012  29.0929161  16.1897722 -16.3904044
  28.6650012   5.6544997 -14.3390012  29.4770012   6.1594997 -14.2930012
  28.4200012   5.5094997 -13.4250012  28.7430520   5.7040375 -14.2091483
  29.2000012   6.6404997  -5.1540012  29.3190012   7.2144997  -4.3970012
  29.8560012   5.9524997  -5.0400012  29.3049757   6.6261079  -5.0349175
  29.5480012   2.7354997 -13.4010012  29.2020012   3.3534997 -12.7560012
  30.2070012   3.2364997 -13.8820012  29.5897826   2.8875802 -13.3779029
  26.4720012  17.1014997 -16.3290012  26.6320012  17.9004997 -16.8300012
  26.2740012  17.4074997 -15.4440012  26.4671649  17.2524469 -16.2780185
  25.2060012   3.7984997 -16.7140012  25.1230012   4.6874997 -16.3670012
  26.0960012   3.5334997 -16.4820012  25.3149469   3.8841430 -16.6352374
  35.4050012   4.5474997  -4.3190012  34.4880012   4.8104997  -4.4070012
  35.7400012   4.5444997  -5.2160012  35.3249900   4.5830224  -4.4522081
  34.0070012   8.2984997 -10.2240012  33.2090012   7.8834997 -10.5520012
  34.4520012   7.6074997  -9.7330012  33.9579885   8.1483543 -10.2025111
  23.4650012  14.2264997 -17.6530012  24.0570012  14.9254997 -17.3770012
  23.9240012  13.7934997 -18.3730012  23.6081142  14.2637049 -17.7125170
  21.7810012   6.8904997 -18.5370012  21.7360012   7.8294997 -18.3590012
  20.8930012   6.6544997 -18.8070012  21.6548574   6.9871892 -18.5491088
  35.0930012  17.5544997  -8.6010012  34.9380012  18.2324997  -9.2580012
  36.0260012  17.6264997  -8.3980012  35.1978500  17.6570170  -8.6634881
  22.5890012   1.6724997  -9.8640012  22.3600012   1.7314997 -10.7920012
  22.1460012   0.8804997  -9.5580012  22.4978530   1.5735753  -9.9495214
  21.5190012  15.6124997 -13.7040012  20.6870012  16.0854997 -13.6760012
  22.0650012  16.1224997 -14.3020012  21.4789739  15.7461871 -13.7810284
  20.8070012  18.2254997  -2.3740012  21.3480012  18.0084997  -1.6140012
  20.3260012  17.4194997  -2.5630012  20.8159345  18.0869514  -2.2956924
  25.4050012  17.1444997  -0.7530012  26.1720012  16.6854997  -0.4120012
  25.3830012  16.9184997  -1.6830012  25.5071434  17.0510409  -0.8319957
  29.4970012  16.6524997 -19.3780012  28.8530012  16.0214997 -19.0570012
  30.2590012  16.1214997 -19.6100012  29.5118077  16.4942920 -19.3653989
  31.9820012  15.5244997  -2.0240012  31.6310012  14.6684997  -1.7810012
  32.7080012  15.6674997  -1.4170012  32.0320769  15.4265636  -1.9086381
  34.1010012  16.4694997 -19.1440012  34.3840012  15.6754997 -18.6920012
  34.8410012  16.7024997 -19.7050012  34.2397486  16.3922803 -19.1579302
  20.7140012  12.0354997  -1.4190012  20.8580012  11.1334997  -1.7060012
  19.9420012  12.3214997  -1.9070012  20.6293322  11.9508261  -1.5242119
  25.0560012  12.3794997 -19.2870012  25.1200012  11.5854997 -18.7560012
  25.7090012  12.2604997 -19.9770012  25.1530241  12.2547148 -19.3075683
  27.3700012  12.0054997  -1.9870012  27.0410012  12.2764997  -2.8440012
  27.5220012  11.0644997  -2.0740012  27.3454809  11.9153862  -2.1161756
  33.1040012  11.9214997  -4.6030012  33.8500012  12.5094997  -4.7230012
  32.3470012  12.5034997  -4.5400012  33.1037554  12.0807011  -4.6109093
  21.5470012   9.2354997  -1.9990012  21.9550012   8.3784997  -2.1200012
  21.2870012   9.2504997  -1.0780012  21.5677568   9.1200807  -1.8910412
  26.2050012  10.3514997 -16.9810012  25.7450012   9.8674997 -16.2950012
  26.4600012   9.6834997 -17.6170012  26.1764902  10.1948731 -16.9730666
  25.4940012   8.2444997  -4.6250012  24.8760012   8.9194997  -4.3450012
  25.8380012   8.5654997  -5.4580012  25.4559615   8.3802721  -4.6993419
  27.2760012   8.5944997 -18.7190012  27.0960012   8.4404997 -19.6460012
  28.2260012   8.7024997 -18.6740012  27.3797776   8.5880175 -18.8398157
  30.5140012  10.7164997  -1.3480012  31.4670012  10.7994997  -1.3750012
  30.3530012  10.0044997  -0.7280012  30.6226426  10.6316746  -1.2679421
  36.6660012  10.9494997 -19.2730012  36.3920012  10.5244997 -20.0860012
  36.7050012  11.8804997 -19.4900012  36.6337699  11.0172484 -19.4136390
  25.8330012   5.5994997  -3.5430012  25.9830012   4.8704997  -4.1450012
  25.8360012   6.3764997  -4.1020012  25.8539302   5.6047851  -3.7009308
  26.2460012   3.9694997  -6.0500012  26.7820012   4.4204997  -6.7020012
  25.3940012   3.8614997  -6.4730012  26.2042178   4.0166390  -6.1964244
  27.8280012   9.4084997  -5.8110012  28.5780012   9.2524997  -6.3840012
  27.4890012  10.2604997  -6.0860012  27.8848921   9.5022968  -5.9266439
  32.2430012   7.2234997  -0.7820012  32.4360012   6.2924997  -0.8940012
  33.1010012   7.6484997  -0.7920012  32.3853020   7.1536389  -0.7986639
  33.5600012  10.0124997  -2.7050012  33.2790012  10.7214997  -3.2820012
  34.5030012   9.9394997  -2.8560012  33.6489027  10.0997646  -2.8044449
  24.3120012   6.7974997  -1.6310012  23.5450012   6.2654997  -1.8410012
  24.9910012   6.4874997  -2.2310012  24.2987022   6.6827506  -1.7408352
  27.0520012   1.4254997  -5.6190012  26.9530012   2.3724997  -5.7240012
  26.3090012   1.0534997  -6.0940012  26.9380564   1.5045902  -5.6975440
  28.3160012   5.7474997  -2.0550012  28.0800012   5.5274997  -1.1530012
  27.5320012   5.5404997  -2.5650012  28.1778628   5.6894760  -2.0006068
  31.0310012   4.8744997  -2.9790012  30.0840012   4.9064997  -2.8470012
  31.3440012   4.2494997  -2.3260012  30.9435475   4.7943207  -2.8725545
  32.6650012   3.5084997  -0.9740012  32.5690012   2.5564997  -0.9800012
  32.3440012   3.7774997  -0.1140012  32.6084070   3.4144035  -0.8584559
  22.4920012   4.7184997  -1.9270012  22.7040012   4.0114997  -2.5370012
  22.3810012   4.2804997  -1.0830012  22.5059721   4.5627084  -1.8963157
  27.2730012   0.7194997  -2.9470012  27.9850012   0.0794997  -2.9610012
  27.1720012   0.9864997  -3.8610012  27.3567939   0.6679938  -3.0724350
  27.6270012   2.4024997  -0.8940012  27.4950012   1.9264997  -1.7140012
  27.0280012   3.1464997  -0.9490012  27.5279071   2.4379618  -1.0137114
  27.1730012  19.2854997 -17.7170012  28.1060012  19.4434997 -17.5740012
  26.9090012  19.9604997 -18.3420012  27.2649510  19.3983611 -17.7819259
  20.7420012  13.9214997 -18.2350012  21.6560012  14.0004997 -17.9610012
  20.7490012  13.2344997 -18.9010012  20.8681131  13.8393961 -18.2875607
  19.3910012  19.3144997 -13.1570012  18.7440012  18.8524997 -13.6900012
  19.7450012  18.6424997 -12.5750012  19.3503849  19.1604723 -13.1512041
  20.2610012  17.3954997 -11.3530012  19.9260012  16.5154997 -11.1810012
  20.4830012  17.7404997 -10.4880012  20.2451783  17.3217500 -11.2125792
  37.8090012  18.2044997  -8.3720012  37.7880012  18.3894997  -7.4330012
  38.5000012  18.7734997  -8.7130012  37.8994618  18.3066606  -8.2896136
  37.3730012  17.7724997  -5.4500012  36.8850012  17.0364997  -5.8210012
  37.9220012  17.3784997  -4.7720012  37.3804872  17.6186249  -5.4090840
  35.8230012  13.5614997  -0.8120012  34.9570012  13.4564997  -0.4180012
  36.2000012  14.3204997  -0.3660012  35.7553308  13.6496900  -0.6977607
  37.1240012  11.8184997 -15.2980012  37.9740012  12.2394997 -15.1710012
  37.1300012  11.0784997 -14.6910012  37.2411372  11.7760803 -15.1985656
  37.5190012   9.8714997 -13.4740012  36.7920012   9.3924997 -13.0770012
  38.1000012  10.0774997 -12.7420012  37.4979375   9.8337090 -13.3205871
  37.2780012  12.6564997  -8.5270012  38.1110012  12.2784997  -8.8070012
  37.3900012  13.5994997  -8.6460012  37.4072647  12.7322218  -8.5814513
  35.7640012  15.5344997  -6.2200012  35.1170012  15.8594997  -5.5940012
  35.2470012  15.0944997  -6.8940012  35.6054029  15.5195004  -6.2254173
  37.7870012   9.7724997 -17.0830012  37.2650012  10.1294997 -17.8020012
  37.7540012  10.4474997 -16.4050012  37.7111634   9.9125413 -17.0896855
  36.1360012   7.0124997 -18.5320012  36.2320012   7.6794997 -19.2130012
  35.9960012   6.1964997 -19.0140012  36.1302135   6.9934500 -18.6901509
  35.3050012   8.3924997 -12.9110012  35.1550012   7.4474997 -12.9320012
  34.9520012   8.6734997 -12.0680012  35.2366625   8.3010441 -12.7997654
  20.3410012  10.4704997  -8.9010012  20.5250012  10.3884997  -9.8370012
  21.1900012  10.3464997  -8.4770012  20.4810139  10.4425003  -8.9718545
  36.1620012  10.3624997  -3.2730012  36.7450012   9.6284997  -3.0810012
  36.7260012  11.1344997  -3.2260012  36.3179769  10.3664227  -3.2403841
  37.6580012   8.2654997  -2.5880012  36.7950012   7.8864997  -2.7540012
  38.2630012   7.5264997  -2.6620012  37.6215979   8.1138023  -2.6207183
  35.3830012   4.4204997 -19.4150012  35.9940012   4.0494997 -18.7780012
  34.5470012   3.9994997 -19.2190012  35.3535032   4.3127554 -19.3012965
  35.0160012   5.9754997 -14.4490012  35.2960012   5.0684997 -14.3250012
  35.7750012   6.4094997 -14.8380012  35.1569277   5.9100942 -14.4846318
  35.6280012   6.5564997  -9.0130012  36.5610012   6.7684997  -9.0470012
  35.3930012   6.6584997  -8.0910012  35.7238036   6.5992769  -8.8930024
  35.6570012   7.2934997  -6.2370012  34.8140012   7.5614997  -5.8710012
  36.0990012   8.1154997  -6.4480012  35.6014158   7.4413291  -6.2154509
  19.9380012   5.7414997  -2.7600012  20.8580012   5.6194997  -2.5240012
  19.4890012   4.9914997  -2.3710012  20.0031580   5.6233727  -2.6750994
  37.9400012   1.2734997  -0.8840012  38.2900012   0.6194997  -1.4890012
  38.0870012   2.1104997  -1.3230012  38.0078419   1.2971591  -1.0262882
  35.6290012   3.2384997 -14.4010012  35.8120012   2.7894997 -13.5750012
  35.0300012   2.6534997 -14.8640012  35.5730202   3.0979975 -14.3506725
  21.1590012   4.0534997  -9.8690012  21.6050012   3.2614997  -9.5670012
  21.6260012   4.7694997  -9.4380012  21.2830172   4.0420624  -9.7695180
  19.4630012   7.0524997  -8.8000012  19.9550012   6.8314997  -9.5910012
  19.8260012   7.8934997  -8.5190012  19.5793126   7.1358357  -8.8702469
  37.4600012   3.3824997  -2.5340012  36.5420012   3.6534997  -2.5700012
  37.5830012   2.8474997  -3.3190012  37.3511066   3.3472892  -2.6449513
  37.4960012   3.3054997 -17.8730012  37.9080012   2.5844997 -18.3480012
  38.1780012   3.9754997 -17.8140012  37.6445885   3.2972368 -17.9301085
  19.7770012   3.3104997 -14.7460012  18.8520012   3.5194997 -14.8750012
  20.2310012   3.7944997 -15.4350012  19.7117368   3.4045993 -14.8568774
  34.5480012  18.2944997 -12.8000012  35.2000012  17.9474997 -13.4080012
  35.0580012  18.7834997 -12.1540012  34.7062637  18.3130597 -12.7959764
  19.7410012   2.0484997  -6.4010012  19.0760012   1.8024997  -5.7580012
  19.2980012   2.6704997  -6.9790012  19.5900956   2.0988632  -6.3910648
  21.9330012  15.2234997  -2.2570012  21.1120012  15.3984997  -2.7170012
  21.6800012  15.1504997  -1.3360012  21.7866164  15.2375622  -2.1955077
  24.8870012  16.1984997  -5.9980012  24.4620012  17.0074997  -6.2810012
  25.7910012  16.2834997  -6.3000012  24.9510271  16.3208469  -6.0776224
  29.1980012  17.5974997  -3.0390012  29.3830012  17.2634997  -2.1610012
  30.0440012  17.9064997  -3.3610012  29.3377539  17.5936047  -2.9624395
  31.5430012  18.8834997  -3.7950012  32.2200012  18.2504997  -4.0350012
  31.8650012  19.2844997  -2.9880012  31.6791637  18.8511154  -3.7187207
  36.4600012   1.4724997  -4.7150012  35.6480012   1.7974997  -5.1030012
  36.6930012   0.7124997  -5.2480012  36.3803423   1.4142436  -4.8401747
  22.2890012  19.4544997  -5.9510012  21.5680012  19.8944997  -6.4020012
  21.9230012  19.2034997  -5.1020012  22.1409804  19.4807698  -5.8980160
  24.7560012  19.0544997  -6.9210012  23.8910012  19.1264997  -6.5170012
  24.7010012  19.6014997  -7.7050012  24.6302085  19.1382685  -6.9716638
  29.4660012  18.9424997  -7.7460012  29.0100012  19.4714997  -8.4000012
  29.6290012  19.5454997  -7.0200012  29.4255585  19.0964468  -7.7374938
  31.7940012  17.8204997  -6.8010012  30.8890012  17.9854997  -7.0660012
  32.2230012  18.6734997  -6.8660012  31.7280799  17.9584483  -6.8460818
  34.3980012  19.3904997  -6.5060012  34.2160012  20.3064997  -6.7160012
  34.5750012  18.9804997  -7.3520012  34.3970210  19.4604822  -6.6492115
  21.7030012  18.0774997  -9.0410012  21.6850012  17.6524997  -8.1830012
  22.5080012  17.7594997  -9.4490012  21.8093875  17.9763812  -8.9788345
  23.8450012  16.7874997 -10.3860012  23.6260012  15.8714997 -10.2160012
  24.6690012  16.9274997  -9.9200012  23.9264420  16.6810520 -10.2997226
  26.3820012  17.2574997  -9.5370012  26.5950012  16.3694997  -9.8240012
  26.4460012  17.2234997  -8.5830012  26.4198232  17.1313102  -9.4472603
  29.8900012   2.9214997 -10.3930012  29.2160012   2.2924997 -10.1370012
  30.4540012   2.4374997 -10.9960012  29.8739230   2.7698744 -10.4394660
  35.0330012   1.0294997 -10.2800012  35.6370012   1.5764997 -10.7820012
  34.1630012   1.3484997 -10.5200012  34.9981241   1.1475806 -10.3812346
  36.7600012   2.1674997 -11.9470012  37.3720012   1.6534997 -12.4730012
  37.1420012   3.0454997 -11.9230012  36.8954540   2.2157140 -12.0158170
  22.2170012   1.5554997 -12.5710012  21.4400012   1.3214997 -13.0780012
  22.7470012   0.7584997 -12.5620012  22.1822330   1.4156988 -12.6392258
  21.0530012   1.3534997 -16.7670012  21.4920012   1.9644997 -17.3590012
  20.4200012   1.8914997 -16.2930012  21.0274514   1.5099257 -16.7839070
  26.7960012   1.4824997 -12.7570012  27.6710012   1.8704997 -12.7870012
  26.6600012   1.2674997 -11.8350012  26.8973695   1.5065184 -12.6363560
  32.3530012   1.5124997 -11.1080012  32.4290012   1.6074997 -12.0580012
  32.0780012   0.6044997 -10.9790012  32.3262321   1.4027867 -11.2204921
  33.7060012   1.5384997 -15.4160012  33.0040012   2.1534997 -15.6250012
  33.2620012   0.7004997 -15.2850012  33.5496330   1.5095783 -15.4269672
  20.9540012  17.3014997 -15.8690012  20.2690012  17.2634997 -16.5370012
  20.9580012  18.2144997 -15.5810012  20.8608193  17.4197016 -15.9214716
  22.9140012   3.2694997 -18.3250012  23.4060012   2.6394997 -18.8520012
  23.5380012   3.5654997 -17.6610012  23.0655446   3.2233199 -18.3074020
  27.9400012   3.5624997 -15.8680012  28.1180012   2.9164997 -15.1850012
  27.8870012   4.3964997 -15.4000012  27.9571829   3.5867985 -15.7114060
  29.8190012  18.5114997 -17.4720012  30.6850012  18.8774997 -17.6500012
  29.5720012  18.0714997 -18.2860012  29.9042392  18.5021756 -17.6063711
  36.5280012  18.0744997 -14.7930012  36.3330012  17.3264997 -15.3580012
  36.4890012  18.8324997 -15.3760012  36.4960380  18.0746099 -14.9491616
  22.1750012   2.0694997  -3.0530012  21.8090012   1.3044997  -2.6100012
  23.0880012   2.0984997  -2.7660012  22.2482790   1.9687224  -2.9535930
  24.1480012   1.4204997  -1.5170012  25.0460012   1.1464997  -1.7020012
  23.7610012   0.6774997  -1.0530012  24.2186612   1.2825914  -1.4796357
  22.7720012  18.2214997 -18.8440012  22.5050012  18.5084997 -17.9710012
  23.5440012  17.6754997 -18.6920012  22.8397488  18.1870294 -18.7038950
  32.5690012   0.7524997  -1.3350012  32.6460012   0.3264997  -0.4810012
  33.4630012   0.7664997  -1.6780012  32.7003428   0.6960879  -1.2644690
  35.7450012  16.8254997  -2.6430012  34.9630012  16.6394997  -3.1620012
  35.6730012  17.7544997  -2.4250012  35.6281777  16.9256492  -2.6845952
  50.1510012  10.7114997 -12.6120012  50.2400012  11.6554997 -12.7440012
  49.5130012  10.4364997 -13.2700012  50.0769081  10.8034830 -12.7190386
  49.0840012   9.9664997  -9.1930012  49.0460012   9.3204997  -8.4880012
  48.7620012   9.5004997  -9.9640012  49.0352333   9.8149408  -9.2007022
  41.4530012   9.5814997  -7.6000012  41.4940012   8.9554997  -6.8770012
  42.1560012  10.2054997  -7.4180012  41.5536363   9.5801196  -7.4763956
  52.7900012  12.9054997 -10.8920012  52.3500012  12.1854997 -10.4410012
  52.7770012  13.6264997 -10.2620012  52.7280226  12.9043731 -10.7451506
  42.3760012  14.0314997  -9.0650012  42.0070012  13.2294997  -9.4350012
  43.3170012  13.8624997  -9.0190012  42.4527289  13.8990153  -9.1093684
  38.9860012   7.6914997 -13.6720012  38.5390012   8.5374997 -13.6910012
  38.4250012   7.1114997 -14.1880012  38.8489900   7.7289916 -13.7443199
  39.6970012   9.8534997 -11.5460012  39.9100012   9.0834997 -11.0190012
  40.4350012   9.9424997 -12.1500012  39.8258496   9.7601394 -11.5554700
  49.9020012  18.0104997 -10.6790012  50.5220012  17.3334997 -10.9530012
  49.6940012  17.7924997  -9.7710012  49.9586904  17.8883870 -10.5936635
  47.4740012  12.3994997  -8.7870012  47.7780012  11.7134997  -9.3820012
  48.1950012  12.5174997  -8.1690012  47.6130671  12.3216305  -8.7848184
  56.1370012   4.0004997  -7.9260012  56.1860012   4.6104997  -7.1900012
  56.5620012   4.4614997  -8.6490012  56.2011824   4.1463741  -7.9229795
  50.6150012   6.7934997  -8.4590012  50.7570012   5.8474997  -8.4390012
  50.5080012   7.0004997  -9.3880012  50.6199864   6.6919534  -8.5817661
  43.7690012   4.8944997 -11.1870012  43.8130012   5.7544997 -11.6050012
  43.3120012   4.3424997 -11.8210012  43.7132185   4.9375799 -11.3299701
  51.4920012   5.0254997 -12.7860012  52.1380012   4.6964997 -12.1610012
  52.0020012   5.5434997 -13.4090012  51.6494264   5.0504611 -12.7846138
  40.3900012   7.2914997 -10.4250012  41.0430012   6.7414997  -9.9930012
  40.4140012   7.0174997 -11.3420012  40.4826683   7.1791466 -10.4897877
  45.5460012   8.8414997 -11.2100012  46.1620012   8.3154997 -10.7000012
  44.9600012   8.2014997 -11.6130012  45.5510810   8.6829208 -11.1946827
  56.5280012   5.4784997  -5.6900012  55.8400012   6.1364997  -5.7860012
  56.5440012   5.2814997  -4.7540012  56.4358525   5.5420462  -5.5765192
  42.5800012   3.8124997  -7.1130012  42.3610012   4.3424997  -7.8790012
  41.9120012   4.0394997  -6.4660012  42.4597600   3.9156906  -7.1303621
  49.9490012  13.3124997 -13.5690012  49.6530012  12.9904997 -14.4200012
  49.6240012  14.2124997 -13.5280012  49.8646371  13.3900215 -13.6798199
  45.1490012  11.4884997  -6.8260012  44.4090012  12.0864997  -6.7220012
  45.8630012  12.0424997  -7.1410012  45.1442237  11.6452831  -6.8543535
  53.2560012   4.3164997 -10.8060012  53.0400012   3.5504997 -10.2730012
  53.9110012   4.7884997 -10.2930012  53.3150632   4.2755889 -10.6637139
  42.1730012   5.7044997  -9.1610012  42.7870012   6.3374997  -8.7870012
  42.6850012   5.2324997  -9.8170012  42.3262296   5.7272370  -9.1985748
  43.5560012  13.4524997  -6.0380012  43.5510012  14.3324997  -6.4160012
  42.7030012  13.3694997  -5.6130012  43.4399464  13.5616117  -6.0322093
  39.6770012  13.1234997 -15.2560012  39.4050012  13.3524997 -16.1450012
  39.7230012  13.9614997 -14.7960012  39.6460094  13.2681213 -15.3154303
  53.3020012  14.7454997  -8.5440012  52.3610012  14.8034997  -8.3820012
  53.5790012  15.6514997  -8.6810012  53.2104679  14.8759443  -8.5403185
  53.6030012   3.0314997  -7.1260012  52.8670012   3.6424997  -7.1640012
  54.2860012   3.4464997  -7.6530012  53.5946541   3.1711374  -7.2024168
  46.6060012   1.1184997  -9.6600012  46.4890012   0.1694997  -9.7150012
  45.7510012   1.4504997  -9.3870012  46.4743733   1.0335409  -9.6306103
  51.5540012  16.5264997 -11.9180012  51.9800012  15.8194997 -12.4030012
  51.8710012  17.3274997 -12.3350012  51.6551019  16.5380994 -12.0406870
  52.7140012  14.4274997 -13.4100012  52.4560012  13.7374997 -14.0210012
  52.7850012  13.9844997 -12.5640012  52.6882856  14.2732124 -13.3793115
  54.4000012  12.9934997  -4.9320012  54.5400012  12.4024997  -5.6720012
  54.5670012  13.8664997  -5.2890012  54.4416778  13.0306426  -5.0813035
  48.8730012   9.9554997 -15.1600012  48.1610012  10.4904997 -15.5120012
  49.5640012  10.0114997 -15.8200012  48.8690132  10.0362543 -15.2973711
  48.9260012   8.4134997 -18.1210012  49.6270012   8.4354997 -17.4700012
  49.2290012   7.7854997 -18.7770012  49.0627830   8.3316566 -18.1206289
  56.2420012   9.3334997  -6.8660012  55.5890012  10.0284997  -6.7770012
  56.7070012   9.5434997  -7.6760012  56.2155390   9.4569425  -6.9633117
  52.2780012  10.1654997 -14.2080012  51.5460012  10.3934997 -13.6350012
  52.7260012   9.4514997 -13.7530012  52.2383095  10.1002571 -14.0680881
  52.1760012   8.3394997  -5.1410012  52.2560012   9.1024997  -4.5690012
  51.5740012   8.6184997  -5.8310012  52.1055756   8.4817134  -5.1559411
  43.9240012  10.7954997 -12.3260012  43.5930012  10.4254997 -13.1440012
  44.5120012  10.1254997 -11.9790012  43.9581873  10.6541156 -12.3911898
  45.2900012  14.2234997  -9.6440012  45.1960012  13.6454997 -10.4010012
  46.0200012  13.8524997  -9.1480012  45.3757981  14.0942390  -9.6805835
  44.2900012   9.5644997  -8.6920012  44.8560012   9.6854997  -9.4550012
  44.6090012  10.2014997  -8.0530012  44.4105786   9.6671884  -8.7099960
  50.5990012  15.0674997  -7.9580012  50.3590012  15.7294997  -7.3100012
  50.4010012  14.2334997  -7.5330012  50.5393808  15.0453134  -7.8118476
  45.1700012  13.9634997  -3.9750012  44.8590012  14.7454997  -3.5200012
  44.5200012  13.8104997  -4.6610012  45.0395558  14.0499105  -4.0054129
  51.1490012   9.3274997 -16.5230012  51.7290012   9.4774997 -15.7760012
  51.5630012   9.7984997 -17.2460012  51.2842830   9.4116841 -16.5185866
  42.0900012  10.1614997  -4.7460012  42.1610012  10.8124997  -4.0480012
  41.2000012  10.2644997  -5.0810012  41.9793117  10.2645936  -4.6957300
  48.8760012  16.0644997 -13.0880012  49.3500012  16.3594997 -12.3100012
  48.3130012  16.8024997 -13.3210012  48.8647653  16.2046932 -13.0129864
  43.4100012  16.0354997  -3.2120012  43.4170012  15.8994997  -4.1590012
  42.4940012  15.9174997  -2.9600012  43.2871714  16.0009430  -3.3075334
  54.8480012   1.0774997 -16.7100012  53.9480012   1.2164997 -16.4150012
  55.1000012   1.9084997 -17.1120012  54.7588702   1.2089074 -16.7239795
  42.9140012   9.8654997 -14.7360012  42.6220012  10.6334997 -15.2270012
  42.2400012   9.2054997 -14.8990012  42.7829081   9.8814406 -14.8252660
  56.0370012  15.4434997 -18.3340012  56.1110012  16.3824997 -18.1630012
  56.9430012  15.1384997 -18.3900012  56.1695100  15.5306722 -18.3181881
  39.0070012  12.2284997  -5.9210012  38.5060012  12.2004997  -6.7360012
  39.0120012  11.3224997  -5.6120012  38.9391526  12.1022278  -5.9907128
  38.7570012  15.0084997  -9.0370012  39.7030012  14.8644997  -9.0560012
  38.6450012  15.7924997  -8.5000012  38.8712727  15.0948046  -8.9669928
  56.9550012  15.6744997  -3.3550012  56.9060012  14.7194997  -3.3920012
  56.1280012  15.9424997  -2.9540012  56.8364940  15.5798998  -3.3058625
  47.9340012  15.2484997  -4.4790012  48.0210012  16.0744997  -4.0040012
  47.0700012  14.9184997  -4.2300012  47.8291964  15.3169878  -4.3803451
  48.3480012  19.0204997 -14.6730012  48.2730012  18.8994997 -15.6190012
  48.3810012  19.9704997 -14.5540012  48.3421848  19.1322500 -14.7865166
  42.0010012  17.8094997 -12.8920012  42.1540012  17.4614997 -12.0130012
  41.1510012  17.4534997 -13.1470012  41.9068962  17.7136650 -12.8061660
  51.4500012  18.1744997 -17.6710012  51.8250012  17.4304997 -18.1410012
  51.4540012  17.9044997 -16.7520012  51.5018915  18.0361486 -17.6112176
  51.1190012  18.1004997 -14.9210012  50.1830012  18.2004997 -14.7430012
  51.3990012  17.3914997 -14.3430012  51.0288255  18.0182711 -14.8184609
  54.1070012   7.1674997  -2.8750012  53.7000012   7.6484997  -3.5960012
  54.1480012   6.2624997  -3.1830012  54.0568437   7.1109374  -3.0153317
  41.2560012  13.5514997  -4.8780012  41.4720012  13.1904997  -4.0190012
  40.4010012  13.1774997  -5.0880012  41.1699292  13.4514111  -4.7886614
  43.8750012   2.0214997  -8.8830012  43.0130012   1.9344997  -9.2900012
  43.8520012   2.8774997  -8.4550012  43.7540330   2.1252765  -8.8808137
  48.5380012   1.7434997  -5.5080012  48.9580012   1.3284997  -4.7550012
  47.6050012   1.5654997  -5.3910012  48.4693644   1.6625900  -5.3890461
  51.8640012   5.4994997  -4.6550012  51.3500012   5.3734997  -3.8570012
  51.7090012   6.4114997  -4.8990012  51.7726852   5.6056132  -4.5787842
  52.6270012  10.3604997 -18.8930012  52.6690012  10.1374997 -19.8230012
  53.4760012  10.7594997 -18.7030012  52.7475396  10.3839155 -18.9946373
  48.1990012   4.2364997 -18.2230012  47.9460012   4.2554997 -17.3000012
  47.9430012   3.3644997 -18.5240012  48.1297790   4.1212437 -18.1373737
  43.9660012   6.9874997  -7.7880012  43.3240012   6.9464997  -7.0790012
  44.0030012   7.9134997  -8.0250012  43.8831324   7.1071559  -7.7230176
  43.9630012   7.2084997 -12.8760012  43.0700012   6.8674997 -12.9340012
  44.4130012   6.8314997 -13.6310012  43.9017305   7.1108484 -12.9860823
  49.4980012   7.6244997 -14.0590012  49.0890012   8.4394997 -14.3500012
  50.2190012   7.4844997 -14.6730012  49.5394537   7.7172018 -14.1818658
  48.6000012   7.7994997  -2.5710012  48.0380012   7.0954997  -2.2500012
  49.4270012   7.6794997  -2.1030012  48.6347095   7.6867883  -2.4637670
  50.5030012   7.0704997 -11.2450012  50.3080012   7.6754997 -11.9600012
  50.6840012   6.2364997 -11.6790012  50.5007614   7.0406300 -11.4015595
  41.7160012   7.3074997  -5.9210012  41.6780012   7.7074997  -5.0520012
  41.2250012   6.4904997  -5.8300012  41.6444684   7.2518069  -5.7898941
  45.0820012   4.6814997 -19.1220012  44.6510012   4.2364997 -18.3920012
  44.3640012   5.0534997 -19.6340012  44.9259438   4.6708940 -19.0913201
  38.3240012   4.4234997 -12.0700012  38.9550012   4.3944997 -11.3510012
  38.7730012   3.9984997 -12.8000012  38.4710774   4.3620492 -12.0703447
  39.5980012   5.1694997 -16.6460012  40.0720012   5.7604997 -17.2310012
  38.8810012   5.7004997 -16.2990012  39.5659341   5.3220867 -16.6791164
  49.7670012   8.7084997  -6.5730012  50.0900012   8.0774997  -7.2160012
  49.3270012   8.1734997  -5.9130012  49.7516895   8.5498441  -6.5717150
  46.5440012   4.6354997 -11.7890012  45.6330012   4.6924997 -11.5010012
  47.0500012   4.5754997 -10.9790012  46.4875413   4.6351985 -11.6399378
  41.3730012   6.2644997 -12.9630012  40.4830012   6.3644997 -13.3030012
  41.6690012   5.4224997 -13.3090012  41.2912823   6.1643545 -13.0562787
  45.0260012   6.2644997 -15.3060012  45.9570012   6.3934997 -15.1280012
  44.8110012   6.9344997 -15.9560012  45.1244247   6.3726565 -15.3694253
  50.9490012   3.8704997  -8.5250012  50.2730012   4.0014997  -7.8610012
  50.4640012   3.7154997  -9.3350012  50.7907145   3.8674905  -8.5435483
  43.7000012   7.4594997 -17.7390012  43.1570012   7.0794997 -18.4310012
  44.5330012   7.6534997 -18.1680012  43.7384399   7.4338124 -17.8915474
  54.2370012  19.5424997  -2.2480012  54.4370012  19.9664997  -3.0830012
  54.8920012  19.8854997  -1.6410012  54.3530051  19.6469648  -2.2802164
  41.8350012  12.0164997  -2.6400012  42.5670012  12.2704997  -2.0790012
  41.0550012  12.2204997  -2.1250012  41.8298232  12.0789177  -2.4934240
  47.8640012   7.4234997  -9.9020012  48.4290012   6.8764997 -10.4490012
  47.7170012   6.9014997  -9.1140012  47.9212918   7.2782024  -9.8701546
  42.8660012   3.5594997 -13.4840012  42.5490012   2.6574997 -13.5190012
  43.6480012   3.5614997 -14.0370012  42.9282284   3.4361628 -13.5635217
  46.4910012   5.8114997  -7.4880012  45.6550012   6.2654997  -7.3780012
  47.0150012   6.0874997  -6.7360012  46.4474414   5.9109376  -7.3712864
  47.0350012  12.0244997 -15.8040012  46.2900012  11.5174997 -16.1260012
  46.9010012  12.0734997 -14.8570012  46.9148776  11.9616940 -15.7201353
  54.1850012  11.1574997  -7.0170012  54.8270012  11.6144997  -7.5610012
  53.3550012  11.2704997  -7.4800012  54.1605963  11.2352704  -7.1539823
  50.9330012   4.8384997 -17.6040012  49.9940012   4.9504997 -17.7560012
  51.2300012   5.6954997 -17.2980012  50.8447666   4.9696443 -17.5834232
  48.5540012  12.2084997  -4.5670012  48.2090012  11.8274997  -3.7600012
  48.3540012  13.1424997  -4.4950012  48.4798061  12.2825228  -4.4469039
  51.6510012   6.7054997 -15.9440012  52.5430012   6.5684997 -15.6250012
  51.7080012   7.4964997 -16.4800012  51.7806285   6.7936660 -15.9728310
  42.1600012  11.3194997 -10.0340012  42.9050012  11.3174997 -10.6350012
  42.2380012  10.4964997  -9.5520012  42.2725518  11.2079315 -10.0511071
  49.1610012  13.4834997 -16.7780012  48.8650012  14.3094997 -16.3970012
  48.4580012  12.8634997 -16.5820012  49.0254914  13.5128199 -16.6993557
  39.1680012   9.7804997  -4.7190012  39.3910012   9.3624997  -3.8870012
  38.5660012   9.1674997  -5.1420012  39.1171759   9.6404668  -4.6622978
  46.1840012   9.2974997  -2.5060012  45.8880012   9.1314997  -3.4010012
  47.1160012   9.0774997  -2.5170012  46.2694166   9.2450640  -2.6299464
  50.8050012  14.6704997  -4.6160012  49.9040012  14.8534997  -4.8840012
  50.8390012  14.9294997  -3.6950012  50.6863041  14.7305512  -4.5281803
  56.5360012   6.9154997 -16.2490012  55.9820012   6.5194997 -16.9210012
  56.6360012   7.8254997 -16.5270012  56.4737059   6.9843586 -16.3785599
  56.4990012  12.7154997  -3.4120012  55.6480012  12.9534997  -3.7790012
  57.0900012  12.6984997  -4.1650012  56.4622487  12.7458258  -3.5641107
  54.8310012  15.7014997 -15.7840012  54.4580012  14.8754997 -15.4750012
  55.1090012  15.5184997 -16.6810012  54.8175630  15.5637303 -15.8630374
  51.9920012  10.5094997  -8.7630012  51.0630012  10.2774997  -8.7900012
  52.4430012   9.7324997  -9.0930012  51.9259216  10.3727238  -8.8113083
  44.5350012  14.8374997 -12.6300012  45.0620012  15.6104997 -12.8300012
  43.6550012  15.0624997 -12.9310012  44.4881773  14.9738005 -12.6980990
  40.2900012   9.6994997 -18.0430012  40.9060012  10.3264997 -17.6630012
  39.4280012  10.0154997 -17.7710012  40.2577698   9.8279430 -17.9542817
  45.9620012  12.5004997 -13.0530012  45.7210012  13.4254997 -13.0120012
  45.2210012  12.0414997 -12.6570012  45.8288409  12.5651421 -12.9938623
  46.4770012  16.6494997  -6.7380012  46.8390012  17.5044997  -6.9720012
  47.0080012  16.3574997  -5.9980012  46.5984473  16.7271060  -6.6699145
  44.6450012  17.5224997 -13.5080012  43.6950012  17.6274997 -13.4570012
  44.9970012  18.3424997 -13.1630012  44.5624203  17.6478314 -13.4543350
  50.0210012  12.7484997  -7.0380012  49.5950012  12.5214997  -6.2110012
  50.6010012  12.0104997  -7.2200012  50.0411868  12.6175299  -6.9494170
  52.2240012  13.6774997 -17.9640012  52.5770012  13.2974997 -17.1590012
  51.2750012  13.5844997 -17.8770012  52.1440441  13.6129596 -17.8421441
  52.6790012  17.3004997  -4.5680012  52.0780012  16.7454997  -5.0640012
  52.9610012  17.9674997  -5.1940012  52.6348519  17.3146841  -4.7205048
  56.7270012  18.1574997 -17.7630012  57.4710012  18.7434997 -17.9030012
  56.0330012  18.7254997 -17.4290012  56.7350292  18.3145582 -17.7370039
  40.8020012   4.5334997  -5.1610012  39.9090012   4.8724997  -5.2290012
  40.7030012   3.6784997  -4.7430012  40.6664164   4.4642588  -5.1137765
  53.0900012  12.3504997 -15.7370012  52.8120012  11.6224997 -15.1810012
  54.0170012  12.4694997 -15.5320012  53.1773124  12.2668802 -15.6331155
  40.4530012  16.3384997  -6.7260012  40.6700012  15.4064997  -6.7570012
  40.6990012  16.6124997  -5.8430012  40.5159549  16.2480636  -6.6108237
  46.3150012  14.7894997 -19.5170012  46.5540012  14.0414997 -20.0640012
  46.0460012  14.4014997 -18.6840012  46.3113675  14.6346638 -19.4793135
  45.2520012  14.3594997 -17.0600012  45.3980012  13.8394997 -16.2700012
  45.2490012  15.2664997 -16.7540012  45.2715989  14.4108853 -16.9103912
  41.7050012  11.6124997 -16.5500012  41.0190012  11.9644997 -15.9830012
  42.2270012  12.3754997 -16.7970012  41.6816852  11.7638578 -16.5057882
  49.5360012   4.2744997  -6.2710012  50.2350012   4.3484997  -5.6210012
  49.1550012   3.4104997  -6.1170012  49.5801767   4.1677624  -6.1611678
  50.3210012   3.9264997 -15.1740012  50.5410012   4.3984997 -15.9770012
  50.8790012   4.3214997 -14.5040012  50.4264968   4.0444285 -15.1932669
  47.9890012  16.0574997 -16.3110012  47.1730012  16.5544997 -16.2590012
  48.5190012  16.5324997 -16.9510012  47.9489161  16.1897722 -16.3904044
  47.5210012   5.6544997 -14.3390012  48.3330012   6.1594997 -14.2930012
  47.2760012   5.5094997 -13.4250012  47.5990520   5.7040375 -14.2091483
  48.0560012   6.6404997  -5.1540012  48.1750012   7.2144997  -4.3970012
  48.7120012   5.9524997  -5.0400012  48.1609757   6.6261079  -5.0349175
  48.4040012   2.7354997 -13.4010012  48.0580012   3.3534997 -12.7560012
  49.0630012   3.2364997 -13.8820012  48.4457826   2.8875802 -13.3779029
  45.3280012  17.1014997 -16.3290012  45.4880012  17.9004997 -16.8300012
  45.1300012  17.4074997 -15.4440012  45.3231649  17.2524469 -16.2780185
  44.0620012   3.7984997 -16.7140012  43.9790012   4.6874997 -16.3670012
  44.9520012   3.5334997 -16.4820012  44.1709469   3.8841430 -16.6352374
  54.2610012   4.5474997  -4.3190012  53.3440012   4.8104997  -4.4070012
  54.5960012   4.5444997  -5.2160012  54.1809900   4.5830224  -4.4522081
  52.8630012   8.2984997 -10.2240012  52.0650012   7.8834997 -10.5520012
  53.3080012   7.6074997  -9.7330012  52.8139885   8.1483543 -10.2025111
  42.3210012  14.2264997 -17.6530012  42.9130012  14.9254997 -17.3770012
  42.7800012  13.7934997 -18.3730012  42.4641142  14.2637049 -17.7125170
  40.6370012   6.8904997 -18.5370012  40.5920012   7.8294997 -18.3590012
  39.7490012   6.6544997 -18.8070012  40.5108574   6.9871892 -18.5491088
  53.9490012  17.5544997  -8.6010012  53.7940012  18.2324997  -9.2580012
  54.8820012  17.6264997  -8.3980012  54.0538500  17.6570170  -8.6634881
  41.4450012   1.6724997  -9.8640012  41.2160012   1.7314997 -10.7920012
  41.0020012   0.8804997  -9.5580012  41.3538530   1.5735753  -9.9495214
  40.3750012  15.6124997 -13.7040012  39.5430012  16.0854997 -13.6760012
  40.9210012  16.1224997 -14.3020012  40.3349739  15.7461871 -13.7810284
  39.6630012  18.2254997  -2.3740012  40.2040012  18.0084997  -1.6140012
  39.1820012  17.4194997  -2.5630012  39.6719345  18.0869514  -2.2956924
  44.2610012  17.1444997  -0.7530012  45.0280012  16.6854997  -0.4120012
  44.2390012  16.9184997  -1.6830012  44.3631434  17.0510409  -0.8319957
  48.3530012  16.6524997 -19.3780012  47.7090012  16.0214997 -19.0570012
  49.1150012  16.1214997 -19.6100012  48.3678077  16.4942920 -19.3653989
  50.8380012  15.5244997  -2.0240012  50.4870012  14.6684997  -1.7810012
  51.5640012  15.6674997  -1.4170012  50.8880769  15.4265636  -1.9086381
  52.9570012  16.4694997 -19.1440012  53.2400012  15.6754997 -18.6920012
  53.6970012  16.7024997 -19.7050012  53.0957486  16.3922803 -19.1579302
  39.5700012  12.0354997  -1.4190012  39.7140012  11.1334997  -1.7060012
  38.7980012  12.3214997  -1.9070012  39.4853322  11.9508261  -1.5242119
  43.9120012  12.3794997 -19.2870012  43.9760012  11.5854997 -18.7560012
  44.5650012  12.2604997 -19.9770012  44.0090241  12.2547148 -19.3075683
  46.2260012  12.0054997  -1.9870012  45.8970012  12.2764997  -2.8440012
  46.3780012  11.0644997  -2.0740012  46.2014809  11.9153862  -2.1161756
  51.9600012  11.9214997  -4.6030012  52.7060012  12.5094997  -4.7230012
  51.2030012  12.5034997  -4.5400012  51.9597554  12.0807011  -4.6109093
  40.4030012   9.2354997  -1.9990012  40.8110012   8.3784997  -2.1200012
  40.1430012   9.2504997  -1.0780012  40.4237568   9.1200807  -1.8910412
  45.0610012  10.3514997 -16.9810012  44.6010012   9.8674997 -16.2950012
  45.3160012   9.6834997 -17.6170012  45.0324902  10.1948731 -16.9730666
  44.3500012   8.2444997  -4.6250012  43.7320012   8.9194997  -4.3450012
  44.6940012   8.5654997  -5.4580012  44.3119615   8.3802721  -4.6993419
  46.1320012   8.5944997 -18.7190012  45.9520012   8.4404997 -19.6460012
  47.0820012   8.7024997 -18.6740012  46.2357776   8.5880175 -18.8398157
  49.3700012  10.7164997  -1.3480012  50.3230012  10.7994997  -1.3750012
  49.2090012  10.0044997  -0.7280012  49.4786426  10.6316746  -1.2679421
  55.5220012  10.9494997 -19.2730012  55.2480012  10.5244997 -20.0860012
  55.5610012  11.8804997 -19.4900012  55.4897699  11.0172484 -19.4136390
  44.6890012   5.5994997  -3.5430012  44.8390012   4.8704997  -4.1450012
  44.6920012   6.3764997  -4.1020012  44.7099302   5.6047851  -3.7009308
  45.1020012   3.9694997  -6.0500012  45.6380012   4.4204997  -6.7020012
  44.2500012   3.8614997  -6.4730012  45.0602178   4.0166390  -6.1964244
  46.6840012   9.4084997  -5.8110012  47.4340012   9.2524997  -6.3840012
  46.3450012  10.2604997  -6.0860012  46.7408921   9.5022968  -5.9266439
  51.0990012   7.2234997  -0.7820012  51.2920012   6.2924997  -0.8940012
  51.9570012   7.6484997  -0.7920012  51.2413020   7.1536389  -0.7986639
  52.4160012  10.0124997  -2.7050012  52.1350012  10.7214997  -3.2820012
  53.3590012   9.9394997  -2.8560012  52.5049027  10.0997646  -2.8044449
  43.1680012   6.7974997  -1.6310012  42.4010012   6.2654997  -1.8410012
  43.8470012   6.4874997  -2.2310012  43.1547022   6.6827506  -1.7408352
  45.9080012   1.4254997  -5.6190012  45.8090012   2.3724997  -5.7240012
  45.1650012   1.0534997  -6.0940012  45.7940564   1.5045902  -5.6975440
  47.1720012   5.7474997  -2.0550012  46.9360012   5.5274997  -1.1530012
  46.3880012   5.5404997  -2.5650012  47.0338628   5.6894760  -2.0006068
  49.8870012   4.8744997  -2.9790012  48.9400012   4.9064997  -2.8470012
  50.2000012   4.2494997  -2.3260012  49.7995475   4.7943207  -2.8725545
  51.5210012   3.5084997  -0.9740012  51.4250012   2.5564997  -0.9800012
  51.2000012   3.7774997  -0.1140012  51.4644070   3.4144035  -0.8584559
  41.3480012   4.7184997  -1.9270012  41.5600012   4.0114997  -2.5370012
  41.2370012   4.2804997  -1.0830012  41.3619721   4.5627084  -1.8963157
  46.1290012   0.7194997  -2.9470012  46.8410012   0.0794997  -2.9610012
  46.0280012   0.9864997  -3.8610012  46.2127939   0.6679938  -3.0724350
  46.4830012   2.4024997  -0.8940012  46.3510012   1.9264997  -1.7140012
  45.8840012   3.1464997  -0.9490012  46.3839071   2.4379618  -1.0137114
  46.0290012  19.2854997 -17.7170012  46.9620012  19.4434997 -17.5740012
  45.7650012  19.9604997 -18.3420012  46.1209510  19.3983611 -17.7819259
  39.5980012  13.9214997 -18.2350012  40.5120012  14.0004997 -17.9610012
  39.6050012  13.2344997 -18.9010012  39.7241131  13.8393961 -18.2875607
  38.2470012  19.3144997 -13.1570012  37.6000012  18.8524997 -13.6900012
  38.6010012  18.6424997 -12.5750012  38.2063849  19.1604723 -13.1512041
  39.1170012  17.3954997 -11.3530012  38.7820012  16.5154997 -11.1810012
  39.3390012  17.7404997 -10.4880012  39.1011783  17.3217501 -11.2125792
  56.6650012  18.2044997  -8.3720012  56.6440012  18.3894997  -7.4330012
  57.3560012  18.7734997  -8.7130012  56.7554618  18.3066606  -8.2896136
  56.2290012  17.7724997  -5.4500012  55.7410012  17.0364997  -5.8210012
  56.7780012  17.3784997  -4.7720012  56.2364872  17.6186249  -5.4090840
  54.6790012  13.5614997  -0.8120012  53.8130012  13.4564997  -0.4180012
  55.0560012  14.3204997  -0.3660012  54.6113308  13.6496900  -0.6977607
  55.9800012  11.8184997 -15.2980012  56.8300012  12.2394997 -15.1710012
  55.9860012  11.0784997 -14.6910012  56.0971372  11.7760803 -15.1985656
  56.3750012   9.8714997 -13.4740012  55.6480012   9.3924997 -13.0770012
  56.9560012  10.0774997 -12.7420012  56.3539375   9.8337090 -13.3205871
  56.1340012  12.6564997  -8.5270012  56.9670012  12.2784997  -8.8070012
  56.2460012  13.5994997  -8.6460012  56.2632647  12.7322218  -8.5814513
  54.6200012  15.5344997  -6.2200012  53.9730012  15.8594997  -5.5940012
  54.1030012  15.0944997  -6.8940012  54.4614029  15.5195004  -6.2254173
  56.6430012   9.7724997 -17.0830012  56.1210012  10.1294997 -17.8020012
  56.6100012  10.4474997 -16.4050012  56.5671634   9.9125413 -17.0896855
  54.9920012   7.0124997 -18.5320012  55.0880012   7.6794997 -19.2130012
  54.8520012   6.1964997 -19.0140012  54.9862135   6.9934500 -18.6901509
  54.1610012   8.3924997 -12.9110012  54.0110012   7.4474997 -12.9320012
  53.8080012   8.6734997 -12.0680012  54.0926625   8.3010441 -12.7997654
  39.1970012  10.4704997  -8.9010012  39.3810012  10.3884997  -9.8370012
  40.0460012  10.3464997  -8.4770012  39.3370139  10.4425003  -8.9718545
  55.0180012  10.3624997  -3.2730012  55.6010012   9.6284997  -3.0810012
  55.5820012  11.1344997  -3.2260012  55.1739769  10.3664227  -3.2403841
  56.5140012   8.2654997  -2.5880012  55.6510012   7.8864997  -2.7540012
  57.1190012   7.5264997  -2.6620012  56.4775979   8.1138023  -2.6207183
  54.2390012   4.4204997 -19.4150012  54.8500012   4.0494997 -18.7780012
  53.4030012   3.9994997 -19.2190012  54.2095032   4.3127554 -19.3012965
  53.8720012   5.9754997 -14.4490012  54.1520012   5.0684997 -14.3250012
  54.6310012   6.4094997 -14.8380012  54.0129277   5.9100942 -14.4846318
  54.4840012   6.5564997  -9.0130012  55.4170012   6.7684997  -9.0470012
  54.2490012   6.6584997  -8.0910012  54.5798036   6.5992769  -8.8930024
  54.5130012   7.2934997  -6.2370012  53.6700012   7.5614997  -5.8710012
  54.9550012   8.1154997  -6.4480012  54.4574158   7.4413291  -6.2154509
  38.7940012   5.7414997  -2.7600012  39.7140012   5.6194997  -2.5240012
  38.3450012   4.9914997  -2.3710012  38.8591580   5.6233727  -2.6750994
  56.7960012   1.2734997  -0.8840012  57.1460012   0.6194997  -1.4890012
  56.9430012   2.1104997  -1.3230012  56.8638419   1.2971591  -1.0262882
  54.4850012   3.2384997 -14.4010012  54.6680012   2.7894997 -13.5750012
  53.8860012   2.6534997 -14.8640012  54.4290202   3.0979975 -14.3506725
  40.0150012   4.0534997  -9.8690012  40.4610012   3.2614997  -9.5670012
  40.4820012   4.7694997  -9.4380012  40.1390172   4.0420624  -9.7695180
  38.3190012   7.0524997  -8.8000012  38.8110012   6.8314997  -9.5910012
  38.6820012   7.8934997  -8.5190012  38.4353126   7.1358357  -8.8702469
  56.3160012   3.3824997  -2.5340012  55.3980012   3.6534997  -2.5700012
  56.4390012   2.8474997  -3.3190012  56.2071066   3.3472892  -2.6449513
  56.3520012   3.3054997 -17.8730012  56.7640012   2.5844997 -18.3480012
  57.0340012   3.9754997 -17.8140012  56.5005885   3.2972368 -17.9301085
  38.6330012   3.3104997 -14.7460012  37.7080012   3.5194997 -14.8750012
  39.0870012   3.7944997 -15.4350012  38.5677368   3.4045993 -14.8568774
  53.4040012  18.2944997 -12.8000012  54.0560012  17.9474997 -13.4080012
  53.9140012  18.7834997 -12.1540012  53.5622637  18.3130597 -12.7959764
  38.5970012   2.0484997  -6.4010012  37.9320012   1.8024997  -5.7580012
  38.1540012   2.6704997  -6.9790012  38.4460956   2.0988632  -6.3910648
  40.7890012  15.2234997  -2.2570012  39.9680012  15.3984997  -2.7170012
  40.5360012  15.1504997  -1.3360012  40.6426164  15.2375622  -2.1955077
  43.7430012  16.1984997  -5.9980012  43.3180012  17.0074997  -6.2810012
  44.6470012  16.2834997  -6.3000012  43.8070271  16.3208469  -6.0776224
  48.0540012  17.5974997  -3.0390012  48.2390012  17.2634997  -2.1610012
  48.9000012  17.9064997  -3.3610012  48.1937539  17.5936047  -2.9624395
  50.3990012  18.8834997  -3.7950012  51.0760012  18.2504997  -4.0350012
  50.7210012  19.2844997  -2.9880012  50.5351637  18.8511154  -3.7187207
  55.3160012   1.4724997  -4.7150012  54.5040012   1.7974997  -5.1030012
  55.5490012   0.7124997  -5.2480012  55.2363423   1.4142436  -4.8401747
  41.1450012  19.4544997  -5.9510012  40.4240012  19.8944997  -6.4020012
  40.7790012  19.2034997  -5.1020012  40.9969804  19.4807698  -5.8980160
  43.6120012  19.0544997  -6.9210012  42.7470012  19.1264997  -6.5170012
  43.5570012  19.6014997  -7.7050012  43.4862085  19.1382685  -6.9716638
  48.3220012  18.9424997  -7.7460012  47.8660012  19.4714997  -8.4000012
  48.4850012  19.5454997  -7.0200012  48.2815585  19.0964468  -7.7374938
  50.6500012  17.8204997  -6.8010012  49.7450012  17.9854997  -7.0660012
  51.0790012  18.6734997  -6.8660012  50.5840799  17.9584483  -6.8460818
  53.2540012  19.3904997  -6.5060012  53.0720012  20.3064997  -6.7160012
  53.4310012  18.9804997  -7.3520012  53.2530210  19.4604822  -6.6492115
  40.5590012  18.0774997  -9.0410012  40.5410012  17.6524997  -8.1830012
  41.3640012  17.7594997  -9.4490012  40.6653875  17.9763812  -8.9788345
  42.7010012  16.7874997 -10.3860012  42.4820012  15.8714997 -10.2160012
  43.5250012  16.9274997  -9.9200012  42.7824420  16.6810520 -10.2997226
  45.2380012  17.2574997  -9.5370012  45.4510012  16.3694997  -9.8240012
  45.3020012  17.2234997  -8.5830012  45.2758232  17.1313102  -9.4472603
  48.7460012   2.9214997 -10.3930012  48.0720012   2.2924997 -10.1370012
  49.3100012   2.4374997 -10.9960012  48.7299230   2.7698744 -10.4394660
  53.8890012   1.0294997 -10.2800012  54.4930012   1.5764997 -10.7820012
  53.0190012   1.3484997 -10.5200012  53.8541241   1.1475806 -10.3812346
  55.6160012   2.1674997 -11.9470012  56.2280012   1.6534997 -12.4730012
  55.9980012   3.0454997 -11.9230012  55.7514540   2.2157140 -12.0158170
  41.0730012   1.5554997 -12.5710012  40.2960012   1.3214997 -13.0780012
  41.6030012   0.7584997 -12.5620012  41.0382330   1.4156988 -12.6392258
  39.9090012   1.3534997 -16.7670012  40.3480012   1.9644997 -17.3590012
  39.2760012   1.8914997 -16.2930012  39.8834514   1.5099257 -16.7839070
  45.6520012   1.4824997 -12.7570012  46.5270012   1.8704997 -12.7870012
  45.5160012   1.2674997 -11.8350012  45.7533695   1.5065184 -12.6363560
  51.2090012   1.5124997 -11.1080012  51.2850012   1.6074997 -12.0580012
  50.9340012   0.6044997 -10.9790012  51.1822321   1.4027867 -11.2204921
  52.5620012   1.5384997 -15.4160012  51.8600012   2.1534997 -15.6250012
  52.1180012   0.7004997 -15.2850012  52.4056330   1.5095783 -15.4269672
  39.8100012  17.3014997 -15.8690012  39.1250012  17.2634997 -16.5370012
  39.8140012  18.2144997 -15.5810012  39.7168193  17.4197016 -15.9214716
  41.7700012   3.2694997 -18.3250012  42.2620012   2.6394997 -18.8520012
  42.3940012   3.5654997 -17.6610012  41.9215446   3.2233199 -18.3074020
  46.7960012   3.5624997 -15.8680012  46.9740012   2.9164997 -15.1850012
  46.7430012   4.3964997 -15.4000012  46.8131829   3.5867985 -15.7114060
  48.6750012  18.5114997 -17.4720012  49.5410012  18.8774997 -17.6500012
  48.4280012  18.0714997 -18.2860012  48.7602392  18.5021756 -17.6063711
  55.3840012  18.0744997 -14.7930012  55.1890012  17.3264997 -15.3580012
  55.3450012  18.8324997 -15.3760012  55.3520380  18.0746099 -14.9491616
  41.0310012   2.0694997  -3.0530012  40.6650012   1.3044997  -2.6100012
  41.9440012   2.0984997  -2.7660012  41.1042790   1.9687224  -2.9535930
  43.0040012   1.4204997  -1.5170012  43.9020012   1.1464997  -1.7020012
  42.6170012   0.6774997  -1.0530012  43.0746612   1.2825914  -1.4796357
  41.6280012  18.2214997 -18.8440012  41.3610012  18.5084997 -17.9710012
  42.4000012  17.6754997 -18.6920012  41.6957488  18.1870294 -18.7038950
  51.4250012   0.7524997  -1.3350012  51.5020012   0.3264997  -0.4810012
  52.3190012   0.7664997  -1.6780012  51.5563428   0.6960879  -1.2644690
  54.6010012  16.8254997  -2.6430012  53.8190012  16.6394997  -3.1620012
  54.5290012  17.7544997  -2.4250012  54.4841777  16.9256492  -2.6845952
  69.0070012  10.7114997 -12.6120012  69.0960012  11.6554997 -12.7440012
  68.3690012  10.4364997 -13.2700012  68.9329081  10.8034830 -12.7190386
  67.9400012   9.9664997  -9.1930012  67.9020012   9.3204997  -8.4880012
  67.6180012   9.5004997  -9.9640012  67.8912333   9.8149408  -9.2007022
  60.3090012   9.5814997  -7.6000012  60.3500012   8.9554997  -6.8770012
  61.0120012  10.2054997  -7.4180012  60.4096363   9.5801196  -7.4763956
  71.6460012  12.9054997 -10.8920012  71.2060012  12.1854997 -10.4410012
  71.6330012  13.6264997 -10.2620012  71.5840226  12.9043731 -10.7451506
  61.2320012  14.0314997  -9.0650012  60.8630012  13.2294997  -9.4350012
  62.1730012  13.8624997  -9.0190012  61.3087289  13.8990153  -9.1093684
  57.8420012   7.6914997 -13.6720012  57.3950012   8.5374997 -13.6910012
  57.2810012   7.1114997 -14.1880012  57.7049900   7.7289916 -13.7443199
  58.5530012   9.8534997 -11.5460012  58.7660012   9.0834997 -11.0190012
  59.2910012   9.9424997 -12.1500012  58.6818496   9.7601394 -11.5554700
  68.7580012  18.0104997 -10.6790012  69.3780012  17.3334997 -10.9530012
  68.5500012  17.7924997  -9.7710012  68.8146904  17.8883870 -10.5936635
  66.3300012  12.3994997  -8.7870012  66.6340012  11.7134997  -9.3820012
  67.0510012  12.5174997  -8.1690012  66.4690671  12.3216305  -8.7848184
  74.9930012   4.0004997  -7.9260012  75.0420012   4.6104997  -7.1900012
  75.4180012   4.4614997  -8.6490012  75.0571824   4.1463741  -7.9229795
  69.4710012   6.7934997  -8.4590012  69.6130012   5.8474997  -8.4390012
  69.3640012   7.0004997  -9.3880012  69.4759863   6.6919534  -8.5817661
  62.6250012   4.8944997 -11.1870012  62.6690012   5.7544997 -11.6050012
  62.1680012   4.3424997 -11.8210012  62.5692185   4.9375799 -11.3299701
  70.3480012   5.0254997 -12.7860012  70.9940012   4.6964997 -12.1610012
  70.8580012   5.5434997 -13.4090012  70.5054264   5.0504611 -12.7846138
  59.2460012   7.2914997 -10.4250012  59.8990012   6.7414997  -9.9930012
  59.2700012   7.0174997 -11.3420012  59.3386683   7.1791466 -10.4897877
  64.4020012   8.8414997 -11.2100012  65.0180012   8.3154997 -10.7000012
  63.8160012   8.2014997 -11.6130012  64.4070810   8.6829208 -11.1946827
  75.3840012   5.4784997  -5.6900012  74.6960012   6.1364997  -5.7860012
  75.4000012   5.2814997  -4.7540012  75.2918525   5.5420462  -5.5765192
  61.4360012   3.8124997  -7.1130012  61.2170012   4.3424997  -7.8790012
  60.7680012   4.0394997  -6.4660012  61.3157600   3.9156906  -7.1303621
  68.8050012  13.3124997 -13.5690012  68.5090012  12.9904997 -14.4200012
  68.4800012  14.2124997 -13.5280012  68.7206371  13.3900215 -13.6798199
  64.0050012  11.4884997  -6.8260012  63.2650012  12.0864997  -6.7220012
  64.7190012  12.0424997  -7.1410012  64.0002237  11.6452831  -6.8543535
  72.1120012   4.3164997 -10.8060012  71.8960012   3.5504997 -10.2730012
  72.7670012   4.7884997 -10.2930012  72.1710632   4.2755889 -10.6637139
  61.0290012   5.7044997  -9.1610012  61.6430012   6.3374997  -8.7870012
  61.5410012   5.2324997  -9.8170012  61.1822296   5.7272370  -9.1985748
  62.4120012  13.4524997  -6.0380012  62.4070012  14.3324997  -6.4160012
  61.5590012  13.3694997  -5.6130012  62.2959464  13.5616117  -6.0322093
  58.5330012  13.1234997 -15.2560012  58.2610012  13.3524997 -16.1450012
  58.5790012  13.9614997 -14.7960012  58.5020094  13.2681213 -15.3154303
  72.1580012  14.7454997  -8.5440012  71.2170012  14.8034997  -8.3820012
  72.4350012  15.6514997  -8.6810012  72.0664679  14.8759443  -8.5403185
  72.4590012   3.0314997  -7.1260012  71.7230012   3.6424997  -7.1640012
  73.1420012   3.4464997  -7.6530012  72.4506541   3.1711374  -7.2024168
  65.4620012   1.1184997  -9.6600012  65.3450012   0.1694997  -9.7150012
  64.6070012   1.4504997  -9.3870012  65.3303733   1.0335409  -9.6306103
  70.4100012  16.5264997 -11.9180012  70.8360012  15.8194997 -12.4030012
  70.7270012  17.3274997 -12.3350012  70.5111019  16.5380994 -12.0406870
  71.5700012  14.4274997 -13.4100012  71.3120012  13.7374997 -14.0210012
  71.6410012  13.9844997 -12.5640012  71.5442856  14.2732124 -13.3793115
  73.2560012  12.9934997  -4.9320012  73.3960012  12.4024997  -5.6720012
  73.4230012  13.8664997  -5.2890012  73.2976778  13.0306426  -5.0813035
  67.7290012   9.9554997 -15.1600012  67.0170012  10.4904997 -15.5120012
  68.4200012  10.0114997 -15.8200012  67.7250132  10.0362543 -15.2973711
  67.7820012   8.4134997 -18.1210012  68.4830012   8.4354997 -17.4700012
  68.0850012   7.7854997 -18.7770012  67.9187830   8.3316566 -18.1206289
  75.0980012   9.3334997  -6.8660012  74.4450012  10.0284997  -6.7770012
  75.5630012   9.5434997  -7.6760012  75.0715390   9.4569425  -6.9633117
  71.1340012  10.1654997 -14.2080012  70.4020012  10.3934997 -13.6350012
  71.5820012   9.4514997 -13.7530012  71.0943095  10.1002571 -14.0680881
  71.0320012   8.3394997  -5.1410012  71.1120012   9.1024997  -4.5690012
  70.4300012   8.6184997  -5.8310012  70.9615756   8.4817134  -5.1559411
  62.7800012  10.7954997 -12.3260012  62.4490012  10.4254997 -13.1440012
  63.3680012  10.1254997 -11.9790012  62.8141873  10.6541156 -12.3911898
  64.1460012  14.2234997  -9.6440012  64.0520012  13.6454997 -10.4010012
  64.8760012  13.8524997  -9.1480012  64.2317981  14.0942390  -9.6805835
  63.1460012   9.5644997  -8.6920012  63.7120012   9.6854997  -9.4550012
  63.4650012  10.2014997  -8.0530012  63.2665786   9.6671884  -8.7099960
  69.4550012  15.0674997  -7.9580012  69.2150012  15.7294997  -7.3100012
  69.2570012  14.2334997  -7.5330012  69.3953808  15.0453134  -7.8118476
  64.0260012  13.9634997  -3.9750012  63.7150012  14.7454997  -3.5200012
  63.3760012  13.8104997  -4.6610012  63.8955558  14.0499105  -4.0054129
  70.0050012   9.3274997 -16.5230012  70.5850012   9.4774997 -15.7760012
  70.4190012   9.7984997 -17.2460012  70.1402831   9.4116841 -16.5185866
  60.9460012  10.1614997  -4.7460012  61.0170012  10.8124997  -4.0480012
  60.0560012  10.2644997  -5.0810012  60.8353117  10.2645936  -4.6957300
  67.7320012  16.0644997 -13.0880012  68.2060012  16.3594997 -12.3100012
  67.1690012  16.8024997 -13.3210012  67.7207653  16.2046932 -13.0129864
  62.2660012  16.0354997  -3.2120012  62.2730012  15.8994997  -4.1590012
  61.3500012  15.9174997  -2.9600012  62.1431714  16.0009430  -3.3075334
  73.7040012   1.0774997 -16.7100012  72.8040012   1.2164997 -16.4150012
  73.9560012   1.9084997 -17.1120012  73.6148702   1.2089074 -16.7239795
  61.7700012   9.8654997 -14.7360012  61.4780012  10.6334997 -15.2270012
  61.0960012   9.2054997 -14.8990012  61.6389081   9.8814406 -14.8252660
  74.8930012  15.4434997 -18.3340012  74.9670012  16.3824997 -18.1630012
  75.7990012  15.1384997 -18.3900012  75.0255100  15.5306722 -18.3181881
  57.8630012  12.2284997  -5.9210012  57.3620012  12.2004997  -6.7360012
  57.8680012  11.3224997  -5.6120012  57.7951526  12.1022278  -5.9907128
  57.6130012  15.0084997  -9.0370012  58.5590012  14.8644997  -9.0560012
  57.5010012  15.7924997  -8.5000012  57.7272727  15.0948046  -8.9669928
  75.8110012  15.6744997  -3.3550012  75.7620012  14.7194997  -3.3920012
  74.9840012  15.9424997  -2.9540012  75.6924940  15.5798998  -3.3058625
  66.7900012  15.2484997  -4.4790012  66.8770012  16.0744997  -4.0040012
  65.9260012  14.9184997  -4.2300012  66.6851964  15.3169878  -4.3803451
  67.2040012  19.0204997 -14.6730012  67.1290012  18.8994997 -15.6190012
  67.2370012  19.9704997 -14.5540012  67.1981848  19.1322500 -14.7865166
  60.8570012  17.8094997 -12.8920012  61.0100012  17.4614997 -12.0130012
  60.0070012  17.4534997 -13.1470012  60.7628962  17.7136650 -12.8061660
  70.3060012  18.1744997 -17.6710012  70.6810012  17.4304997 -18.1410012
  70.3100012  17.9044997 -16.7520012  70.3578915  18.0361486 -17.6112176
  69.9750012  18.1004997 -14.9210012  69.0390012  18.2004997 -14.7430012
  70.2550012  17.3914997 -14.3430012  69.8848255  18.0182711 -14.8184609
  72.9630012   7.1674997  -2.8750012  72.5560012   7.6484997  -3.5960012
  73.0040012   6.2624997  -3.1830012  72.9128437   7.1109374  -3.0153317
  60.1120012  13.5514997  -4.8780012  60.3280012  13.1904997  -4.0190012
  59.2570012  13.1774997  -5.0880012  60.0259292  13.4514111  -4.7886614
  62.7310012   2.0214997  -8.8830012  61.8690012   1.9344997  -9.2900012
  62.7080012   2.8774997  -8.4550012  62.6100330   2.1252765  -8.8808137
  67.3940012   1.7434997  -5.5080012  67.8140012   1.3284997  -4.7550012
  66.4610012   1.5654997  -5.3910012  67.3253644   1.6625900  -5.3890461
  70.7200012   5.4994997  -4.6550012  70.2060012   5.3734997  -3.8570012
  70.5650012   6.4114997  -4.8990012  70.6286852   5.6056132  -4.5787842
  71.4830012  10.3604997 -18.8930012  71.5250012  10.1374997 -19.8230012
  72.3320012  10.7594997 -18.7030012  71.6035396  10.3839155 -18.9946373
  67.0550012   4.2364997 -18.2230012  66.8020012   4.2554997 -17.3000012
  66.7990012   3.3644997 -18.5240012  66.9857790   4.1212437 -18.1373737
  62.8220012   6.9874997  -7.7880012  62.1800012   6.9464997  -7.0790012
  62.8590012   7.9134997  -8.0250012  62.7391324   7.1071559  -7.7230176
  62.8190012   7.2084997 -12.8760012  61.9260012   6.8674997 -12.9340012
  63.2690012   6.8314997 -13.6310012  62.7577305   7.1108484 -12.9860823
  68.3540012   7.6244997 -14.0590012  67.9450012   8.4394997 -14.3500012
  69.0750012   7.4844997 -14.6730012  68.3954537   7.7172018 -14.1818658
  67.4560012   7.7994997  -2.5710012  66.8940012   7.0954997  -2.2500012
  68.2830012   7.6794997  -2.1030012  67.4907095   7.6867883  -2.4637670
  69.3590012   7.0704997 -11.2450012  69.1640012   7.6754997 -11.9600012
  69.5400012   6.2364997 -11.6790012  69.3567614   7.0406300 -11.4015595
  60.5720012   7.3074997  -5.9210012  60.5340012   7.7074997  -5.0520012
  60.0810012   6.4904997  -5.8300012  60.5004684   7.2518069  -5.7898941
  63.9380012   4.6814997 -19.1220012  63.5070012   4.2364997 -18.3920012
  63.2200012   5.0534997 -19.6340012  63.7819438   4.6708940 -19.0913201
  57.1800012   4.4234997 -12.0700012  57.8110012   4.3944997 -11.3510012
  57.6290012   3.9984997 -12.8000012  57.3270774   4.3620492 -12.0703447
  58.4540012   5.1694997 -16.6460012  58.9280012   5.7604997 -17.2310012
  57.7370012   5.7004997 -16.2990012  58.4219341   5.3220867 -16.6791164
  68.6230012   8.7084997  -6.5730012  68.9460012   8.0774997  -7.2160012
  68.1830012   8.1734997  -5.9130012  68.6076895   8.5498440  -6.5717150
  65.4000012   4.6354997 -11.7890012  64.4890012   4.6924997 -11.5010012
  65.9060012   4.5754997 -10.9790012  65.3435413   4.6351985 -11.6399378
  60.2290012   6.2644997 -12.9630012  59.3390012   6.3644997 -13.3030012
  60.5250012   5.4224997 -13.3090012  60.1472823   6.1643545 -13.0562787
  63.8820012   6.2644997 -15.3060012  64.8130012   6.3934997 -15.1280012
  63.6670012   6.9344997 -15.9560012  63.9804247   6.3726565 -15.3694253
  69.8050012   3.8704997  -8.5250012  69.1290012   4.0014997  -7.8610012
  69.3200012   3.7154997  -9.3350012  69.6467145   3.8674905  -8.5435483
  62.5560012   7.4594997 -17.7390012  62.0130012   7.0794997 -18.4310012
  63.3890012   7.6534997 -18.1680012  62.5944399   7.4338124 -17.8915474
  73.0930012  19.5424997  -2.2480012  73.2930012  19.9664997  -3.0830012
  73.7480012  19.8854997  -1.6410012  73.2090051  19.6469648  -2.2802164
  60.6910012  12.0164997  -2.6400012  61.4230012  12.2704997  -2.0790012
  59.9110012  12.2204997  -2.1250012  60.6858232  12.0789177  -2.4934240
  66.7200012   7.4234997  -9.9020012  67.2850012   6.8764997 -10.4490012
  66.5730012   6.9014997  -9.1140012  66.7772918   7.2782024  -9.8701546
  61.7220012   3.5594997 -13.4840012  61.4050012   2.6574997 -13.5190012
  62.5040012   3.5614997 -14.0370012  61.7842284   3.4361628 -13.5635217
  65.3470012   5.8114997  -7.4880012  64.5110012   6.2654997  -7.3780012
  65.8710012   6.0874997  -6.7360012  65.3034414   5.9109376  -7.3712864
  65.8910012  12.0244997 -15.8040012  65.1460012  11.5174997 -16.1260012
  65.7570012  12.0734997 -14.8570012  65.7708776  11.9616940 -15.7201353
  73.0410012  11.1574997  -7.0170012  73.6830012  11.6144997  -7.5610012
  72.2110012  11.2704997  -7.4800012  73.0165963  11.2352704  -7.1539823
  69.7890012   4.8384997 -17.6040012  68.8500012   4.9504997 -17.7560012
  70.0860012   5.6954997 -17.2980012  69.7007666   4.9696443 -17.5834232
  67.4100012  12.2084997  -4.5670012  67.0650012  11.8274997  -3.7600012
  67.2100012  13.1424997  -4.4950012  67.3358061  12.2825228  -4.4469039
  70.5070012   6.7054997 -15.9440012  71.3990012   6.5684997 -15.6250012
  70.5640012   7.4964997 -16.4800012  70.6366285   6.7936660 -15.9728309
  61.0160012  11.3194997 -10.0340012  61.7610012  11.3174997 -10.6350012
  61.0940012  10.4964997  -9.5520012  61.1285518  11.2079315 -10.0511071
  68.0170012  13.4834997 -16.7780012  67.7210012  14.3094997 -16.3970012
  67.3140012  12.8634997 -16.5820012  67.8814914  13.5128199 -16.6993557
  58.0240012   9.7804997  -4.7190012  58.2470012   9.3624997  -3.8870012
  57.4220012   9.1674997  -5.1420012  57.9731759   9.6404668  -4.6622978
  65.0400012   9.2974997  -2.5060012  64.7440012   9.1314997  -3.4010012
  65.9720012   9.0774997  -2.5170012  65.1254166   9.2450640  -2.6299464
  69.6610012  14.6704997  -4.6160012  68.7600012  14.8534997  -4.8840012
  69.6950012  14.9294997  -3.6950012  69.5423041  14.7305512  -4.5281803
  75.3920012   6.9154997 -16.2490012  74.8380012   6.5194997 -16.9210012
  75.4920012   7.8254997 -16.5270012  75.3297059   6.9843586 -16.3785599
  75.3550012  12.7154997  -3.4120012  74.5040012  12.9534997  -3.7790012
  75.9460012  12.6984997  -4.1650012  75.3182487  12.7458258  -3.5641107
  73.6870012  15.7014997 -15.7840012  73.3140012  14.8754997 -15.4750012
  73.9650012  15.5184997 -16.6810012  73.6735630  15.5637303 -15.8630374
  70.8480012  10.5094997  -8.7630012  69.9190012  10.2774997  -8.7900012
  71.2990012   9.7324997  -9.0930012  70.7819216  10.3727238  -8.8113083
  63.3910012  14.8374997 -12.6300012  63.9180012  15.6104997 -12.8300012
  62.5110012  15.0624997 -12.9310012  63.3441773  14.9738005 -12.6980990
  59.1460012   9.6994997 -18.0430012  59.7620012  10.3264997 -17.6630012
  58.2840012  10.0154997 -17.7710012  59.1137698   9.8279430 -17.9542817
  64.8180012  12.5004997 -13.0530012  64.5770012  13.4254997 -13.0120012
  64.0770012  12.0414997 -12.6570012  64.6848409  12.5651421 -12.9938623
  65.3330012  16.6494997  -6.7380012  65.6950012  17.5044997  -6.9720012
  65.8640012  16.3574997  -5.9980012  65.4544473  16.7271060  -6.6699145
  63.5010012  17.5224997 -13.5080012  62.5510012  17.6274997 -13.4570012
  63.8530012  18.3424997 -13.1630012  63.4184203  17.6478314 -13.4543350
  68.8770012  12.7484997  -7.0380012  68.4510012  12.5214997  -6.2110012
  69.4570012  12.0104997  -7.2200012  68.8971868  12.6175299  -6.9494170
  71.0800012  13.6774997 -17.9640012  71.4330012  13.2974997 -17.1590012
  70.1310012  13.5844997 -17.8770012  71.0000441  13.6129596 -17.8421441
  71.5350012  17.3004997  -4.5680012  70.9340012  16.7454997  -5.0640012
  71.8170012  17.9674997  -5.1940012  71.4908519  17.3146841  -4.7205048
  75.5830012  18.1574997 -17.7630012  76.3270012  18.7434997 -17.9030012
  74.8890012  18.7254997 -17.4290012  75.5910292  18.3145582 -17.7370039
  59.6580012   4.5334997  -5.1610012  58.7650012   4.8724997  -5.2290012
  59.5590012   3.6784997  -4.7430012  59.5224164   4.4642588  -5.1137765
  71.9460012  12.3504997 -15.7370012  71.6680012  11.6224997 -15.1810012
  72.8730012  12.4694997 -15.5320012  72.0333124  12.2668802 -15.6331155
  59.3090012  16.3384997  -6.7260012  59.5260012  15.4064997  -6.7570012
  59.5550012  16.6124997  -5.8430012  59.3719549  16.2480636  -6.6108237
  65.1710012  14.7894997 -19.5170012  65.4100012  14.0414997 -20.0640012
  64.9020012  14.4014997 -18.6840012  65.1673675  14.6346638 -19.4793135
  64.1080012  14.3594997 -17.0600012  64.2540012  13.8394997 -16.2700012
  64.1050012  15.2664997 -16.7540012  64.1275989  14.4108853 -16.9103912
  60.5610012  11.6124997 -16.5500012  59.8750012  11.9644997 -15.9830012
  61.0830012  12.3754997 -16.7970012  60.5376852  11.7638578 -16.5057882
  68.3920012   4.2744997  -6.2710012  69.0910012   4.3484997  -5.6210012
  68.0110012   3.4104997  -6.1170012  68.4361767   4.1677624  -6.1611678
  69.1770012   3.9264997 -15.1740012  69.3970012   4.3984997 -15.9770012
  69.7350012   4.3214997 -14.5040012  69.2824968   4.0444285 -15.1932669
  66.8450012  16.0574997 -16.3110012  66.0290012  16.5544997 -16.2590012
  67.3750012  16.5324997 -16.9510012  66.8049161  16.1897722 -16.3904044
  66.3770012   5.6544997 -14.3390012  67.1890012   6.1594997 -14.2930012
  66.1320012   5.5094997 -13.4250012  66.4550520   5.7040375 -14.2091483
  66.9120012   6.6404997  -5.1540012  67.0310012   7.2144997  -4.3970012
  67.5680012   5.9524997  -5.0400012  67.0169757   6.6261079  -5.0349175
  67.2600012   2.7354997 -13.4010012  66.9140012   3.3534997 -12.7560012
  67.9190012   3.2364997 -13.8820012  67.3017826   2.8875802 -13.3779029
  64.1840012  17.1014997 -16.3290012  64.3440012  17.9004997 -16.8300012
  63.9860012  17.4074997 -15.4440012  64.1791649  17.2524469 -16.2780185
  62.9180012   3.7984997 -16.7140012  62.8350012   4.6874997 -16.3670012
  63.8080012   3.5334997 -16.4820012  63.0269469   3.8841430 -16.6352374
  73.1170012   4.5474997  -4.3190012  72.2000012   4.8104997  -4.4070012
  73.4520012   4.5444997  -5.2160012  73.0369900   4.5830224  -4.4522081
  71.7190012   8.2984997 -10.2240012  70.9210012   7.8834997 -10.5520012
  72.1640012   7.6074997  -9.7330012  71.6699885   8.1483543 -10.2025111
  61.1770012  14.2264997 -17.6530012  61.7690012  14.9254997 -17.3770012
  61.6360012  13.7934997 -18.3730012  61.3201142  14.2637049 -17.7125170
  59.4930012   6.8904997 -18.5370012  59.4480012   7.8294997 -18.3590012
  58.6050012   6.6544997 -18.8070012  59.3668574   6.9871892 -18.5491088
  72.8050012  17.5544997  -8.6010012  72.6500012  18.2324997  -9.2580012
  73.7380012  17.6264997  -8.3980012  72.9098500  17.6570170  -8.6634881
  60.3010012   1.6724997  -9.8640012  60.0720012   1.7314997 -10.7920012
  59.8580012   0.8804997  -9.5580012  60.2098530   1.5735753  -9.9495214
  59.2310012  15.6124997 -13.7040012  58.3990012  16.0854997 -13.6760012
  59.7770012  16.1224997 -14.3020012  59.1909739  15.7461871 -13.7810284
  58.5190012  18.2254997  -2.3740012  59.0600012  18.0084997  -1.6140012
  58.0380012  17.4194997  -2.5630012  58.5279345  18.0869514  -2.2956924
  63.1170012  17.1444997  -0.7530012  63.8840012  16.6854997  -0.4120012
  63.0950012  16.9184997  -1.6830012  63.2191434  17.0510409  -0.8319957
  67.2090012  16.6524997 -19.3780012  66.5650012  16.0214997 -19.0570012
  67.9710012  16.1214997 -19.6100012  67.2238077  16.4942920 -19.3653989
  69.6940012  15.5244997  -2.0240012  69.3430012  14.6684997  -1.7810012
  70.4200012  15.6674997  -1.4170012  69.7440769  15.4265636  -1.9086381
  71.8130012  16.4694997 -19.1440012  72.0960012  15.6754997 -18.6920012
  72.5530012  16.7024997 -19.7050012  71.9517486  16.3922803 -19.1579302
  58.4260012  12.0354997  -1.4190012  58.5700012  11.1334997  -1.7060012
  57.6540012  12.3214997  -1.9070012  58.3413322  11.9508261  -1.5242119
  62.7680012  12.3794997 -19.2870012  62.8320012  11.5854997 -18.7560012
  63.4210012  12.2604997 -19.9770012  62.8650241  12.2547148 -19.3075683
  65.0820012  12.0054997  -1.9870012  64.7530012  12.2764997  -2.8440012
  65.2340012  11.0644997  -2.0740012  65.0574809  11.9153862  -2.1161756
  70.8160012  11.9214997  -4.6030012  71.5620012  12.5094997  -4.7230012
  70.0590012  12.5034997  -4.5400012  70.8157554  12.0807011  -4.6109093
  59.2590012   9.2354997  -1.9990012  59.6670012   8.3784997  -2.1200012
  58.9990012   9.2504997  -1.0780012  59.2797568   9.1200807  -1.8910412
  63.9170012  10.3514997 -16.9810012  63.4570012   9.8674997 -16.2950012
  64.1720012   9.6834997 -17.6170012  63.8884902  10.1948731 -16.9730666
  63.2060012   8.2444997  -4.6250012  62.5880012   8.9194997  -4.3450012
  63.5500012   8.5654997  -5.4580012  63.1679615   8.3802721  -4.6993419
  64.9880012   8.5944997 -18.7190012  64.8080012   8.4404997 -19.6460012
  65.9380012   8.7024997 -18.6740012  65.0917776   8.5880175 -18.8398157
  68.2260012  10.7164997  -1.3480012  69.1790012  10.7994997  -1.3750012
  68.0650012  10.0044997  -0.7280012  68.3346426  10.6316746  -1.2679421
  74.3780012  10.9494997 -19.2730012  74.1040012  10.5244997 -20.0860012
  74.4170012  11.8804997 -19.4900012  74.3457699  11.0172484 -19.4136390
  63.5450012   5.5994997  -3.5430012  63.6950012   4.8704997  -4.1450012
  63.5480012   6.3764997  -4.1020012  63.5659302   5.6047851  -3.7009308
  63.9580012   3.9694997  -6.0500012  64.4940012   4.4204997  -6.7020012
  63.1060012   3.8614997  -6.4730012  63.9162178   4.0166390  -6.1964244
  65.5400012   9.4084997  -5.8110012  66.2900012   9.2524997  -6.3840012
  65.2010012  10.2604997  -6.0860012  65.5968921   9.5022968  -5.9266439
  69.9550012   7.2234997  -0.7820012  70.1480012   6.2924997  -0.8940012
  70.8130012   7.6484997  -0.7920012  70.0973020   7.1536389  -0.7986639
  71.2720012  10.0124997  -2.7050012  70.9910012  10.7214997  -3.2820012
  72.2150012   9.9394997  -2.8560012  71.3609027  10.0997646  -2.8044449
  62.0240012   6.7974997  -1.6310012  61.2570012   6.2654997  -1.8410012
  62.7030012   6.4874997  -2.2310012  62.0107022   6.6827506  -1.7408352
  64.7640012   1.4254997  -5.6190012  64.6650012   2.3724997  -5.7240012
  64.0210012   1.0534997  -6.0940012  64.6500564   1.5045902  -5.6975440
  66.0280012   5.7474997  -2.0550012  65.7920012   5.5274997  -1.1530012
  65.2440012   5.5404997  -2.5650012  65.8898628   5.6894760  -2.0006068
  68.7430012   4.8744997  -2.9790012  67.7960012   4.9064997  -2.8470012
  69.0560012   4.2494997  -2.3260012  68.6555475   4.7943207  -2.8725545
  70.3770012   3.5084997  -0.9740012  70.2810012   2.5564997  -0.9800012
  70.0560012   3.7774997  -0.1140012  70.3204070   3.4144035  -0.8584559
  60.2040012   4.7184997  -1.9270012  60.4160012   4.0114997  -2.5370012
  60.0930012   4.2804997  -1.0830012  60.2179721   4.5627084  -1.8963157
  64.9850012   0.7194997  -2.9470012  65.6970012   0.0794997  -2.9610012
  64.8840012   0.9864997  -3.8610012  65.0687939   0.6679938  -3.0724350
  65.3390012   2.4024997  -0.8940012  65.2070012   1.9264997  -1.7140012
  64.7400012   3.1464997  -0.9490012  65.2399071   2.4379618  -1.0137114
  64.8850012  19.2854997 -17.7170012  65.8180012  19.4434997 -17.5740012
  64.6210012  19.9604997 -18.3420012  64.9769510  19.3983611 -17.7819259
  58.4540012  13.9214997 -18.2350012  59.3680012  14.0004997 -17.9610012
  58.4610012  13.2344997 -18.9010012  58.5801131  13.8393961 -18.2875607
  57.1030012  19.3144997 -13.1570012  56.4560012  18.8524997 -13.6900012
  57.4570012  18.6424997 -12.5750012  57.0623849  19.1604723 -13.1512041
  57.9730012  17.3954997 -11.3530012  57.6380012  16.5154997 -11.1810012
  58.1950012  17.7404997 -10.4880012  57.9571783  17.3217500 -11.2125792
  75.5210012  18.2044997  -8.3720012  75.5000012  18.3894997  -7.4330012
  76.2120012  18.7734997  -8.7130012  75.6114618  18.3066606  -8.2896136
  75.0850012  17.7724997  -5.4500012  74.5970012  17.0364997  -5.8210012
  75.6340012  17.3784997  -4.7720012  75.0924872  17.6186249  -5.4090840
  73.5350012  13.5614997  -0.8120012  72.6690012  13.4564997  -0.4180012
  73.9120012  14.3204997  -0.3660012  73.4673308  13.6496900  -0.6977607
  74.8360012  11.8184997 -15.2980012  75.6860012  12.2394997 -15.1710012
  74.8420012  11.0784997 -14.6910012  74.9531372  11.7760803 -15.1985656
  75.2310012   9.8714997 -13.4740012  74.5040012   9.3924997 -13.0770012
  75.8120012  10.0774997 -12.7420012  75.2099375   9.8337090 -13.3205871
  74.9900012  12.6564997  -8.5270012  75.8230012  12.2784997  -8.8070012
  75.1020012  13.5994997  -8.6460012  75.1192647  12.7322218  -8.5814513
  73.4760012  15.5344997  -6.2200012  72.8290012  15.8594997  -5.5940012
  72.9590012  15.0944997  -6.8940012  73.3174029  15.5195004  -6.2254173
  75.4990012   9.7724997 -17.0830012  74.9770012  10.1294997 -17.8020012
  75.4660012  10.4474997 -16.4050012  75.4231634   9.9125413 -17.0896855
  73.8480012   7.0124997 -18.5320012  73.9440012   7.6794997 -19.2130012
  73.7080012   6.1964997 -19.0140012  73.8422135   6.9934500 -18.6901509
  73.0170012   8.3924997 -12.9110012  72.8670012   7.4474997 -12.9320012
  72.6640012   8.6734997 -12.0680012  72.9486625   8.3010441 -12.7997654
  58.0530012  10.4704997  -8.9010012  58.2370012  10.3884997  -9.8370012
  58.9020012  10.3464997  -8.4770012  58.1930139  10.4425003  -8.9718545
  73.8740012  10.3624997  -3.2730012  74.4570012   9.6284997  -3.0810012
  74.4380012  11.1344997  -3.2260012  74.0299769  10.3664227  -3.2403841
  75.3700012   8.2654997  -2.5880012  74.5070012   7.8864997  -2.7540012
  75.9750012   7.5264997  -2.6620012  75.3335979   8.1138023  -2.6207183
  73.0950012   4.4204997 -19.4150012  73.7060012   4.0494997 -18.7780012
  72.2590012   3.9994997 -19.2190012  73.0655032   4.3127554 -19.3012965
  72.7280012   5.9754997 -14.4490012  73.0080012   5.0684997 -14.3250012
  73.4870012   6.4094997 -14.8380012  72.8689277   5.9100942 -14.4846318
  73.3400012   6.5564997  -9.0130012  74.2730012   6.7684997  -9.0470012
  73.1050012   6.6584997  -8.0910012  73.4358036   6.5992769  -8.8930024
  73.3690012   7.2934997  -6.2370012  72.5260012   7.5614997  -5.8710012
  73.8110012   8.1154997  -6.4480012  73.3134158   7.4413291  -6.2154509
  57.6500012   5.7414997  -2.7600012  58.5700012   5.6194997  -2.5240012
  57.2010012   4.9914997  -2.3710012  57.7151580   5.6233727  -2.6750994
  75.6520012   1.2734997  -0.8840012  76.0020012   0.6194997  -1.4890012
  75.7990012   2.1104997  -1.3230012  75.7198419   1.2971591  -1.0262882
  73.3410012   3.2384997 -14.4010012  73.5240012   2.7894997 -13.5750012
  72.7420012   2.6534997 -14.8640012  73.2850202   3.0979975 -14.3506725
  58.8710012   4.0534997  -9.8690012  59.3170012   3.2614997  -9.5670012
  59.3380012   4.7694997  -9.4380012  58.9950172   4.0420624  -9.7695180
  57.1750012   7.0524997  -8.8000012  57.6670012   6.8314997  -9.5910012
  57.5380012   7.8934997  -8.5190012  57.2913126   7.1358357  -8.8702469
  75.1720012   3.3824997  -2.5340012  74.2540012   3.6534997  -2.5700012
  75.2950012   2.8474997  -3.3190012  75.0631066   3.3472892  -2.6449513
  75.2080012   3.3054997 -17.8730012  75.6200012   2.5844997 -18.3480012
  75.8900012   3.9754997 -17.8140012  75.3565885   3.2972368 -17.9301085
  57.4890012   3.3104997 -14.7460012  56.5640012   3.5194997 -14.8750012
  57.9430012   3.7944997 -15.4350012  57.4237368   3.4045993 -14.8568774
  72.2600012  18.2944997 -12.8000012  72.9120012  17.9474997 -13.4080012
  72.7700012  18.7834997 -12.1540012  72.4182637  18.3130597 -12.7959764
  57.4530012   2.0484997  -6.4010012  56.7880012   1.8024997  -5.7580012
  57.0100012   2.6704997  -6.9790012  57.3020956   2.0988632  -6.3910648
  59.6450012  15.2234997  -2.2570012  58.8240012  15.3984997  -2.7170012
  59.3920012  15.1504997  -1.3360012  59.4986164  15.2375622  -2.1955077
  62.5990012  16.1984997  -5.9980012  62.1740012  17.0074997  -6.2810012
  63.5030012  16.2834997  -6.3000012  62.6630271  16.3208469  -6.0776224
  66.9100012  17.5974997  -3.0390012  67.0950012  17.2634997  -2.1610012
  67.7560012  17.9064997  -3.3610012  67.0497539  17.5936047  -2.9624395
  69.2550012  18.8834997  -3.7950012  69.9320012  18.2504997  -4.0350012
  69.5770012  19.2844997  -2.9880012  69.3911637  18.8511154  -3.7187207
  74.1720012   1.4724997  -4.7150012  73.3600012   1.7974997  -5.1030012
  74.4050012   0.7124997  -5.2480012  74.0923423   1.4142436  -4.8401747
  60.0010012  19.4544997  -5.9510012  59.2800012  19.8944997  -6.4020012
  59.6350012  19.2034997  -5.1020012  59.8529804  19.4807698  -5.8980160
  62.4680012  19.0544997  -6.9210012  61.6030012  19.1264997  -6.5170012
  62.4130012  19.6014997  -7.7050012  62.3422085  19.1382685  -6.9716638
  67.1780012  18.9424997  -7.7460012  66.7220012  19.4714997  -8.4000012
  67.3410012  19.5454997  -7.0200012  67.1375585  19.0964468  -7.7374938
  69.5060012  17.8204997  -6.8010012  68.6010012  17.9854997  -7.0660012
  69.9350012  18.6734997  -6.8660012  69.4400799  17.9584483  -6.8460818
  72.1100012  19.3904997  -6.5060012  71.9280012  20.3064997  -6.7160012
  72.2870012  18.9804997  -7.3520012  72.1090210  19.4604822  -6.6492115
  59.4150012  18.0774997  -9.0410012  59.3970012  17.6524997  -8.1830012
  60.2200012  17.7594997  -9.4490012  59.5213875  17.9763812  -8.9788345
  61.5570012  16.7874997 -10.3860012  61.3380012  15.8714997 -10.2160012
  62.3810012  16.9274997  -9.9200012  61.6384420  16.6810520 -10.2997226
  64.0940012  17.2574997  -9.5370012  64.3070012  16.3694997  -9.8240012
  64.1580012  17.2234997  -8.5830012  64.1318232  17.1313102  -9.4472603
  67.6020012   2.9214997 -10.3930012  66.9280012   2.2924997 -10.1370012
  68.1660012   2.4374997 -10.9960012  67.5859230   2.7698744 -10.4394660
  72.7450012   1.0294997 -10.2800012  73.3490012   1.5764997 -10.7820012
  71.8750012   1.3484997 -10.5200012  72.7101241   1.1475806 -10.3812346
  74.4720012   2.1674997 -11.9470012  75.0840012   1.6534997 -12.4730012
  74.8540012   3.0454997 -11.9230012  74.6074540   2.2157140 -12.0158170
  59.9290012   1.5554997 -12.5710012  59.1520012   1.3214997 -13.0780012
  60.4590012   0.7584997 -12.5620012  59.8942330   1.4156988 -12.6392258
  58.7650012   1.3534997 -16.7670012  59.2040012   1.9644997 -17.3590012
  58.1320012   1.8914997 -16.2930012  58.7394514   1.5099257 -16.7839070
  64.5080012   1.4824997 -12.7570012  65.3830012   1.8704997 -12.7870012
  64.3720012   1.2674997 -11.8350012  64.6093695   1.5065184 -12.6363560
  70.0650012   1.5124997 -11.1080012  70.1410012   1.6074997 -12.0580012
  69.7900012   0.6044997 -10.9790012  70.0382321   1.4027867 -11.2204921
  71.4180012   1.5384997 -15.4160012  70.7160012   2.1534997 -15.6250012
  70.9740012   0.7004997 -15.2850012  71.2616330   1.5095783 -15.4269672
  58.6660012  17.3014997 -15.8690012  57.9810012  17.2634997 -16.5370012
  58.6700012  18.2144997 -15.5810012  58.5728193  17.4197016 -15.9214716
  60.6260012   3.2694997 -18.3250012  61.1180012   2.6394997 -18.8520012
  61.2500012   3.5654997 -17.6610012  60.7775446   3.2233199 -18.3074020
  65.6520012   3.5624997 -15.8680012  65.8300012   2.9164997 -15.1850012
  65.5990012   4.3964997 -15.4000012  65.6691829   3.5867985 -15.7114060
  67.5310012  18.5114997 -17.4720012  68.3970012  18.8774997 -17.6500012
  67.2840012  18.0714997 -18.2860012  67.6162392  18.5021756 -17.6063711
  74.2400012  18.0744997 -14.7930012  74.0450012  17.3264997 -15.3580012
  74.2010012  18.8324997 -15.3760012  74.2080380  18.0746099 -14.9491616
  59.8870012   2.0694997  -3.0530012  59.5210012   1.3044997  -2.6100012
  60.8000012   2.0984997  -2.7660012  59.9602790   1.9687224  -2.9535930
  61.8600012   1.4204997  -1.5170012  62.7580012   1.1464997  -1.7020012
  61.4730012   0.6774997  -1.0530012  61.9306612   1.2825914  -1.4796357
  60.4840012  18.2214997 -18.8440012  60.2170012  18.5084997 -17.9710012
  61.2560012  17.6754997 -18.6920012  60.5517488  18.1870294 -18.7038950
  70.2810012   0.7524997  -1.3350012  70.3580012   0.3264997  -0.4810012
  71.1750012   0.7664997  -1.6780012  70.4123428   0.6960879  -1.2644690
  73.4570012  16.8254997  -2.6430012  72.6750012  16.6394997  -3.1620012
  73.3850012  17.7544997  -2.4250012  73.3401777  16.9256492  -2.6845952
  87.8630012  10.7114997 -12.6120012  87.9520012  11.6554997 -12.7440012
  87.2250012  10.4364997 -13.2700012  87.7889081  10.8034830 -12.7190386
  86.7960012   9.9664997  -9.1930012  86.7580012   9.3204997  -8.4880012
  86.4740012   9.5004997  -9.9640012  86.7472333   9.8149408  -9.2007022
  79.1650012   9.5814997  -7.6000012  79.2060012   8.9554997  -6.8770012
  79.8680012  10.2054997  -7.4180012  79.2656363   9.5801196  -7.4763956
  90.5020012  12.9054997 -10.8920012  90.0620012  12.1854997 -10.4410012
  90.4890012  13.6264997 -10.2620012  90.4400226  12.9043731 -10.7451506
  80.0880012  14.0314997  -9.0650012  79.7190012  13.2294997  -9.4350012
  81.0290012  13.8624997  -9.0190012  80.1647289  13.8990153  -9.1093684
  76.6980012   7.6914997 -13.6720012  76.2510012   8.5374997 -13.6910012
  76.1370012   7.1114997 -14.1880012  76.5609900   7.7289916 -13.7443199
  77.4090012   9.8534997 -11.5460012  77.6220012   9.0834997 -11.0190012
  78.1470012   9.9424997 -12.1500012  77.5378496   9.7601394 -11.5554700
  87.6140012  18.0104997 -10.6790012  88.2340012  17.3334997 -10.9530012
  87.4060012  17.7924997  -9.7710012  87.6706904  17.8883870 -10.5936635
  85.1860012  12.3994997  -8.7870012  85.4900012  11.7134997  -9.3820012
  85.9070012  12.5174997  -8.1690012  85.3250671  12.3216305  -8.7848184
  93.8490012   4.0004997  -7.9260012  93.8980012   4.6104997  -7.1900012
  94.2740012   4.4614997  -8.6490012  93.9131824   4.1463741  -7.9229795
  88.3270012   6.7934997  -8.4590012  88.4690012   5.8474997  -8.4390012
  88.2200012   7.0004997  -9.3880012  88.3319864   6.6919534  -8.5817661
  81.4810012   4.8944997 -11.1870012  81.5250012   5.7544997 -11.6050012
  81.0240012   4.3424997 -11.8210012  81.4252185   4.9375799 -11.3299701
  89.2040012   5.0254997 -12.7860012  89.8500012   4.6964997 -12.1610012
  89.7140012   5.5434997 -13.4090012  89.3614264   5.0504611 -12.7846138
  78.1020012   7.2914997 -10.4250012  78.7550012   6.7414997  -9.9930012
  78.1260012   7.0174997 -11.3420012  78.1946683   7.1791466 -10.4897877
  83.2580012   8.8414997 -11.2100012  83.8740012   8.3154997 -10.7000012
  82.6720012   8.2014997 -11.6130012  83.2630810   8.6829208 -11.1946827
  94.2400012   5.4784997  -5.6900012  93.5520012   6.1364997  -5.7860012
  94.2560012   5.2814997  -4.7540012  94.1478525   5.5420462  -5.5765192
  80.2920012   3.8124997  -7.1130012  80.0730012   4.3424997  -7.8790012
  79.6240012   4.0394997  -6.4660012  80.1717600   3.9156906  -7.1303621
  87.6610012  13.3124997 -13.5690012  87.3650012  12.9904997 -14.4200012
  87.3360012  14.2124997 -13.5280012  87.5766371  13.3900215 -13.6798199
  82.8610012  11.4884997  -6.8260012  82.1210012  12.0864997  -6.7220012
  83.5750012  12.0424997  -7.1410012  82.8562237  11.6452831  -6.8543535
  90.9680012   4.3164997 -10.8060012  90.7520012   3.5504997 -10.2730012
  91.6230012   4.7884997 -10.2930012  91.0270632   4.2755889 -10.6637139
  79.8850012   5.7044997  -9.1610012  80.4990012   6.3374997  -8.7870012
  80.3970012   5.2324997  -9.8170012  80.0382296   5.7272370  -9.1985748
  81.2680012  13.4524997  -6.0380012  81.2630012  14.3324997  -6.4160012
  80.4150012  13.3694997  -5.6130012  81.1519464  13.5616117  -6.0322093
  77.3890012  13.1234997 -15.2560012  77.1170012  13.3524997 -16.1450012
  77.4350012  13.9614997 -14.7960012  77.3580094  13.2681213 -15.3154303
  91.0140012  14.7454997  -8.5440012  90.0730012  14.8034997  -8.3820012
  91.2910012  15.6514997  -8.6810012  90.9224679  14.8759443  -8.5403185
  91.3150012   3.0314997  -7.1260012  90.5790012   3.6424997  -7.1640012
  91.9980012   3.4464997  -7.6530012  91.3066541   3.1711374  -7.2024168
  84.3180012   1.1184997  -9.6600012  84.2010012   0.1694997  -9.7150012
  83.4630012   1.4504997  -9.3870012  84.1863733   1.0335409  -9.6306103
  89.2660012  16.5264997 -11.9180012  89.6920012  15.8194997 -12.4030012
  89.5830012  17.3274997 -12.3350012  89.3671019  16.5380994 -12.0406870
  90.4260012  14.4274997 -13.4100012  90.1680012  13.7374997 -14.0210012
  90.4970012  13.9844997 -12.5640012  90.4002856  14.2732124 -13.3793115
  92.1120012  12.9934997  -4.9320012  92.2520012  12.4024997  -5.6720012
  92.2790012  13.8664997  -5.2890012  92.1536778  13.0306426  -5.0813035
  86.5850012   9.9554997 -15.1600012  85.8730012  10.4904997 -15.5120012
  87.2760012  10.0114997 -15.8200012  86.5810132  10.0362543 -15.2973711
  86.6380012   8.4134997 -18.1210012  87.3390012   8.4354997 -17.4700012
  86.9410012   7.7854997 -18.7770012  86.7747830   8.3316566 -18.1206289
  93.9540012   9.3334997  -6.8660012  93.3010012  10.0284997  -6.7770012
  94.4190012   9.5434997  -7.6760012  93.9275390   9.4569425  -6.9633117
  89.9900012  10.1654997 -14.2080012  89.2580012  10.3934997 -13.6350012
  90.4380012   9.4514997 -13.7530012  89.9503095  10.1002571 -14.0680881
  89.8880012   8.3394997  -5.1410012  89.9680012   9.1024997  -4.5690012
  89.2860012   8.6184997  -5.8310012  89.8175756   8.4817134  -5.1559411
  81.6360012  10.7954997 -12.3260012  81.3050012  10.4254997 -13.1440012
  82.2240012  10.1254997 -11.9790012  81.6701873  10.6541156 -12.3911898
  83.0020012  14.2234997  -9.6440012  82.9080012  13.6454997 -10.4010012
  83.7320012  13.8524997  -9.1480012  83.0877981  14.0942390  -9.6805835
  82.0020012   9.5644997  -8.6920012  82.5680012   9.6854997  -9.4550012
  82.3210012  10.2014997  -8.0530012  82.1225786   9.6671884  -8.7099960
  88.3110012  15.0674997  -7.9580012  88.0710012  15.7294997  -7.3100012
  88.1130012  14.2334997  -7.5330012  88.2513808  15.0453134  -7.8118476
  82.8820012  13.9634997  -3.9750012  82.5710012  14.7454997  -3.5200012
  82.2320012  13.8104997  -4.6610012  82.7515558  14.0499105  -4.0054129
  88.8610012   9.3274997 -16.5230012  89.4410012   9.4774997 -15.7760012
  89.2750012   9.7984997 -17.2460012  88.9962830   9.4116841 -16.5185866
  79.8020012  10.1614997  -4.7460012  79.8730012  10.8124997  -4.0480012
  78.9120012  10.2644997  -5.0810012  79.6913117  10.2645936  -4.6957300
  86.5880012  16.0644997 -13.0880012  87.0620012  16.3594997 -12.3100012
  86.0250012  16.8024997 -13.3210012  86.5767653  16.2046932 -13.0129864
  81.1220012  16.0354997  -3.2120012  81.1290012  15.8994997  -4.1590012
  80.2060012  15.9174997  -2.9600012  80.9991714  16.0009430  -3.3075334
  92.5600012   1.0774997 -16.7100012  91.6600012   1.2164997 -16.4150012
  92.8120012   1.9084997 -17.1120012  92.4708702   1.2089074 -16.7239795
  80.6260012   9.8654997 -14.7360012  80.3340012  10.6334997 -15.2270012
  79.9520012   9.2054997 -14.8990012  80.4949081   9.8814406 -14.8252660
  93.7490012  15.4434997 -18.3340012  93.8230012  16.3824997 -18.1630012
  94.6550012  15.1384997 -18.3900012  93.8815100  15.5306722 -18.3181881
  76.7190012  12.2284997  -5.9210012  76.2180012  12.2004997  -6.7360012
  76.7240012  11.3224997  -5.6120012  76.6511526  12.1022278  -5.9907128
  76.4690012  15.0084997  -9.0370012  77.4150012  14.8644997  -9.0560012
  76.3570012  15.7924997  -8.5000012  76.5832727  15.0948046  -8.9669928
  94.6670012  15.6744997  -3.3550012  94.6180012  14.7194997  -3.3920012
  93.8400012  15.9424997  -2.9540012  94.5484940  15.5798998  -3.3058625
  85.6460012  15.2484997  -4.4790012  85.7330012  16.0744997  -4.0040012
  84.7820012  14.9184997  -4.2300012  85.5411964  15.3169878  -4.3803451
  86.0600012  19.0204997 -14.6730012  85.9850012  18.8994997 -15.6190012
  86.0930012  19.9704997 -14.5540012  86.0541848  19.1322500 -14.7865166
  79.7130012  17.8094997 -12.8920012  79.8660012  17.4614997 -12.0130012
  78.8630012  17.4534997 -13.1470012  79.6188962  17.7136650 -12.8061660
  89.1620012  18.1744997 -17.6710012  89.5370012  17.4304997 -18.1410012
  89.1660012  17.9044997 -16.7520012  89.2138915  18.0361486 -17.6112176
  88.8310012  18.1004997 -14.9210012  87.8950012  18.2004997 -14.7430012
  89.1110012  17.3914997 -14.3430012  88.7408255  18.0182711 -14.8184609
  91.8190012   7.1674997  -2.8750012  91.4120012   7.6484997  -3.5960012
  91.8600012   6.2624997  -3.1830012  91.7688437   7.1109374  -3.0153317
  78.9680012  13.5514997  -4.8780012  79.1840012  13.1904997  -4.0190012
  78.1130012  13.1774997  -5.0880012  78.8819292  13.4514111  -4.7886614
  81.5870012   2.0214997  -8.8830012  80.7250012   1.9344997  -9.2900012
  81.5640012   2.8774997  -8.4550012  81.4660330   2.1252765  -8.8808137
  86.2500012   1.7434997  -5.5080012  86.6700012   1.3284997  -4.7550012
  85.3170012   1.5654997  -5.3910012  86.1813644   1.6625900  -5.3890461
  89.5760012   5.4994997  -4.6550012  89.0620012   5.3734997  -3.8570012
  89.4210012   6.4114997  -4.8990012  89.4846852   5.6056132  -4.5787842
  90.3390012  10.3604997 -18.8930012  90.3810012  10.1374997 -19.8230012
  91.1880012  10.7594997 -18.7030012  90.4595396  10.3839155 -18.9946373
  85.9110012   4.2364997 -18.2230012  85.6580012   4.2554997 -17.3000012
  85.6550012   3.3644997 -18.5240012  85.8417790   4.1212437 -18.1373737
  81.6780012   6.9874997  -7.7880012  81.0360012   6.9464997  -7.0790012
  81.7150012   7.9134997  -8.0250012  81.5951324   7.1071559  -7.7230176
  81.6750012   7.2084997 -12.8760012  80.7820012   6.8674997 -12.9340012
  82.1250012   6.8314997 -13.6310012  81.6137305   7.1108484 -12.9860823
  87.2100012   7.6244997 -14.0590012  86.8010012   8.4394997 -14.3500012
  87.9310012   7.4844997 -14.6730012  87.2514537   7.7172018 -14.1818658
  86.3120012   7.7994997  -2.5710012  85.7500012   7.0954997  -2.2500012
  87.1390012   7.6794997  -2.1030012  86.3467095   7.6867883  -2.4637670
  88.2150012   7.0704997 -11.2450012  88.0200012   7.6754997 -11.9600012
  88.3960012   6.2364997 -11.6790012  88.2127614   7.0406300 -11.4015595
  79.4280012   7.3074997  -5.9210012  79.3900012   7.7074997  -5.0520012
  78.9370012   6.4904997  -5.8300012  79.3564684   7.2518069  -5.7898941
  82.7940012   4.6814997 -19.1220012  82.3630012   4.2364997 -18.3920012
  82.0760012   5.0534997 -19.6340012  82.6379438   4.6708940 -19.0913201
  76.0360012   4.4234997 -12.0700012  76.6670012   4.3944997 -11.3510012
  76.4850012   3.9984997 -12.8000012  76.1830774   4.3620492 -12.0703447
  77.3100012   5.1694997 -16.6460012  77.7840012   5.7604997 -17.2310012
  76.5930012   5.7004997 -16.2990012  77.2779341   5.3220867 -16.6791164
  87.4790012   8.7084997  -6.5730012  87.8020012   8.0774997  -7.2160012
  87.0390012   8.1734997  -5.9130012  87.4636895   8.5498441  -6.5717150
  84.2560012   4.6354997 -11.7890012  83.3450012   4.6924997 -11.5010012
  84.7620012   4.5754997 -10.9790012  84.1995413   4.6351985 -11.6399378
  79.0850012   6.2644997 -12.9630012  78.1950012   6.3644997 -13.3030012
  79.3810012   5.4224997 -13.3090012  79.0032823   6.1643545 -13.0562787
  82.7380012   6.2644997 -15.3060012  83.6690012   6.3934997 -15.1280012
  82.5230012   6.9344997 -15.9560012  82.8364247   6.3726565 -15.3694253
  88.6610012   3.8704997  -8.5250012  87.9850012   4.0014997  -7.8610012
  88.1760012   3.7154997  -9.3350012  88.5027145   3.8674905  -8.5435483
  81.4120012   7.4594997 -17.7390012  80.8690012   7.0794997 -18.4310012
  82.2450012   7.6534997 -18.1680012  81.4504399   7.4338124 -17.8915474
  91.9490012  19.5424997  -2.2480012  92.1490012  19.9664997  -3.0830012
  92.6040012  19.8854997  -1.6410012  92.0650051  19.6469648  -2.2802164
  79.5470012  12.0164997  -2.6400012  80.2790012  12.2704997  -2.0790012
  78.7670012  12.2204997  -2.1250012  79.5418232  12.0789177  -2.4934240
  85.5760012   7.4234997  -9.9020012  86.1410012   6.8764997 -10.4490012
  85.4290012   6.9014997  -9.1140012  85.6332918   7.2782024  -9.8701546
  80.5780012   3.5594997 -13.4840012  80.2610012   2.6574997 -13.5190012
  81.3600012   3.5614997 -14.0370012  80.6402284   3.4361628 -13.5635217
  84.2030012   5.8114997  -7.4880012  83.3670012   6.2654997  -7.3780012
  84.7270012   6.0874997  -6.7360012  84.1594414   5.9109376  -7.3712864
  84.7470012  12.0244997 -15.8040012  84.0020012  11.5174997 -16.1260012
  84.6130012  12.0734997 -14.8570012  84.6268776  11.9616940 -15.7201353
  91.8970012  11.1574997  -7.0170012  92.5390012  11.6144997  -7.5610012
  91.0670012  11.2704997  -7.4800012  91.8725963  11.2352704  -7.1539823
  88.6450012   4.8384997 -17.6040012  87.7060012   4.9504997 -17.7560012
  88.9420012   5.6954997 -17.2980012  88.5567666   4.9696443 -17.5834232
  86.2660012  12.2084997  -4.5670012  85.9210012  11.8274997  -3.7600012
  86.0660012  13.1424997  -4.4950012  86.1918061  12.2825228  -4.4469039
  89.3630012   6.7054997 -15.9440012  90.2550012   6.5684997 -15.6250012
  89.4200012   7.4964997 -16.4800012  89.4926285   6.7936660 -15.9728310
  79.8720012  11.3194997 -10.0340012  80.6170012  11.3174997 -10.6350012
  79.9500012  10.4964997  -9.5520012  79.9845518  11.2079315 -10.0511071
  86.8730012  13.4834997 -16.7780012  86.5770012  14.3094997 -16.3970012
  86.1700012  12.8634997 -16.5820012  86.7374914  13.5128199 -16.6993557
  76.8800012   9.7804997  -4.7190012  77.1030012   9.3624997  -3.8870012
  76.2780012   9.1674997  -5.1420012  76.8291759   9.6404668  -4.6622978
  83.8960012   9.2974997  -2.5060012  83.6000012   9.1314997  -3.4010012
  84.8280012   9.0774997  -2.5170012  83.9814166   9.2450640  -2.6299464
  88.5170012  14.6704997  -4.6160012  87.6160012  14.8534997  -4.8840012
  88.5510012  14.9294997  -3.6950012  88.3983041  14.7305512  -4.5281803
  94.2480012   6.9154997 -16.2490012  93.6940012   6.5194997 -16.9210012
  94.3480012   7.8254997 -16.5270012  94.1857059   6.9843586 -16.3785599
  94.2110012  12.7154997  -3.4120012  93.3600012  12.9534997  -3.7790012
  94.8020012  12.6984997  -4.1650012  94.1742487  12.7458258  -3.5641107
  92.5430012  15.7014997 -15.7840012  92.1700012  14.8754997 -15.4750012
  92.8210012  15.5184997 -16.6810012  92.5295630  15.5637303 -15.8630374
  89.7040012  10.5094997  -8.7630012  88.7750012  10.2774997  -8.7900012
  90.1550012   9.7324997  -9.0930012  89.6379216  10.3727238  -8.8113083
  82.2470012  14.8374997 -12.6300012  82.7740012  15.6104997 -12.8300012
  81.3670012  15.0624997 -12.9310012  82.2001773  14.9738005 -12.6980990
  78.0020012   9.6994997 -18.0430012  78.6180012  10.3264997 -17.6630012
  77.1400012  10.0154997 -17.7710012  77.9697698   9.8279430 -17.9542817
  83.6740012  12.5004997 -13.0530012  83.4330012  13.4254997 -13.0120012
  82.9330012  12.0414997 -12.6570012  83.5408409  12.5651421 -12.9938623
  84.1890012  16.6494997  -6.7380012  84.5510012  17.5044997  -6.9720012
  84.7200012  16.3574997  -5.9980012  84.3104473  16.7271060  -6.6699145
  82.3570012  17.5224997 -13.5080012  81.4070012  17.6274997 -13.4570012
  82.7090012  18.3424997 -13.1630012  82.2744203  17.6478314 -13.4543350
  87.7330012  12.7484997  -7.0380012  87.3070012  12.5214997  -6.2110012
  88.3130012  12.0104997  -7.2200012  87.7531868  12.6175299  -6.9494170
  89.9360012  13.6774997 -17.9640012  90.2890012  13.2974997 -17.1590012
  88.9870012  13.5844997 -17.8770012  89.8560441  13.6129596 -17.8421441
  90.3910012  17.3004997  -4.5680012  89.7900012  16.7454997  -5.0640012
  90.6730012  17.9674997  -5.1940012  90.3468519  17.3146841  -4.7205048
  94.4390012  18.1574997 -17.7630012  95.1830012  18.7434997 -17.9030012
  93.7450012  18.7254997 -17.4290012  94.4470292  18.3145582 -17.7370039
  78.5140012   4.5334997  -5.1610012  77.6210012   4.8724997  -5.2290012
  78.4150012   3.6784997  -4.7430012  78.3784164   4.4642588  -5.1137765
  90.8020012  12.3504997 -15.7370012  90.5240012  11.6224997 -15.1810012
  91.7290012  12.4694997 -15.5320012  90.8893124  12.2668802 -15.6331155
  78.1650012  16.3384997  -6.7260012  78.3820012  15.4064997  -6.7570012
  78.4110012  16.6124997  -5.8430012  78.2279549  16.2480636  -6.6108237
  84.0270012  14.7894997 -19.5170012  84.2660012  14.0414997 -20.0640012
  83.7580012  14.4014997 -18.6840012  84.0233675  14.6346638 -19.4793135
  82.9640012  14.3594997 -17.0600012  83.1100012  13.8394997 -16.2700012
  82.9610012  15.2664997 -16.7540012  82.9835989  14.4108853 -16.9103912
  79.4170012  11.6124997 -16.5500012  78.7310012  11.9644997 -15.9830012
  79.9390012  12.3754997 -16.7970012  79.3936852  11.7638578 -16.5057882
  87.2480012   4.2744997  -6.2710012  87.9470012   4.3484997  -5.6210012
  86.8670012   3.4104997  -6.1170012  87.2921767   4.1677624  -6.1611678
  88.0330012   3.9264997 -15.1740012  88.2530012   4.3984997 -15.9770012
  88.5910012   4.3214997 -14.5040012  88.1384968   4.0444285 -15.1932669
  85.7010012  16.0574997 -16.3110012  84.8850012  16.5544997 -16.2590012
  86.2310012  16.5324997 -16.9510012  85.6609161  16.1897722 -16.3904044
  85.2330012   5.6544997 -14.3390012  86.0450012   6.1594997 -14.2930012
  84.9880012   5.5094997 -13.4250012  85.3110520   5.7040375 -14.2091483
  85.7680012   6.6404997  -5.1540012  85.8870012   7.2144997  -4.3970012
  86.4240012   5.9524997  -5.0400012  85.8729757   6.6261079  -5.0349175
  86.1160012   2.7354997 -13.4010012  85.7700012   3.3534997 -12.7560012
  86.7750012   3.2364997 -13.8820012  86.1577826   2.8875802 -13.3779029
  83.0400012  17.1014997 -16.3290012  83.2000012  17.9004997 -16.8300012
  82.8420012  17.4074997 -15.4440012  83.0351649  17.2524469 -16.2780185
  81.7740012   3.7984997 -16.7140012  81.6910012   4.6874997 -16.3670012
  82.6640012   3.5334997 -16.4820012  81.8829469   3.8841430 -16.6352374
  91.9730012   4.5474997  -4.3190012  91.0560012   4.8104997  -4.4070012
  92.3080012   4.5444997  -5.2160012  91.8929900   4.5830224  -4.4522081
  90.5750012   8.2984997 -10.2240012  89.7770012   7.8834997 -10.5520012
  91.0200012   7.6074997  -9.7330012  90.5259885   8.1483543 -10.2025111
  80.0330012  14.2264997 -17.6530012  80.6250012  14.9254997 -17.3770012
  80.4920012  13.7934997 -18.3730012  80.1761142  14.2637049 -17.7125170
  78.3490012   6.8904997 -18.5370012  78.3040012   7.8294997 -18.3590012
  77.4610012   6.6544997 -18.8070012  78.2228574   6.9871892 -18.5491088
  91.6610012  17.5544997  -8.6010012  91.5060012  18.2324997  -9.2580012
  92.5940012  17.6264997  -8.3980012  91.7658500  17.6570170  -8.6634881
  79.1570012   1.6724997  -9.8640012  78.9280012   1.7314997 -10.7920012
  78.7140012   0.8804997  -9.5580012  79.0658530   1.5735753  -9.9495214
  78.0870012  15.6124997 -13.7040012  77.2550012  16.0854997 -13.6760012
  78.6330012  16.1224997 -14.3020012  78.0469739  15.7461871 -13.7810284
  77.3750012  18.2254997  -2.3740012  77.9160012  18.0084997  -1.6140012
  76.8940012  17.4194997  -2.5630012  77.3839345  18.0869514  -2.2956924
  81.9730012  17.1444997  -0.7530012  82.7400012  16.6854997  -0.4120012
  81.9510012  16.9184997  -1.6830012  82.0751434  17.0510409  -0.8319957
  86.0650012  16.6524997 -19.3780012  85.4210012  16.0214997 -19.0570012
  86.8270012  16.1214997 -19.6100012  86.0798077  16.4942920 -19.3653989
  88.5500012  15.5244997  -2.0240012  88.1990012  14.6684997  -1.7810012
  89.2760012  15.6674997  -1.4170012  88.6000769  15.4265636  -1.9086381
  90.6690012  16.4694997 -19.1440012  90.9520012  15.6754997 -18.6920012
  91.4090012  16.7024997 -19.7050012  90.8077486  16.3922803 -19.1579302
  77.2820012  12.0354997  -1.4190012  77.4260012  11.1334997  -1.7060012
  76.5100012  12.3214997  -1.9070012  77.1973322  11.9508261  -1.5242119
  81.6240012  12.3794997 -19.2870012  81.6880012  11.5854997 -18.7560012
  82.2770012  12.2604997 -19.9770012  81.7210241  12.2547148 -19.3075683
  83.9380012  12.0054997  -1.9870012  83.6090012  12.2764997  -2.8440012
  84.0900012  11.0644997  -2.0740012  83.9134809  11.9153862  -2.1161756
  89.6720012  11.9214997  -4.6030012  90.4180012  12.5094997  -4.7230012
  88.9150012  12.5034997  -4.5400012  89.6717554  12.0807011  -4.6109093
  78.1150012   9.2354997  -1.9990012  78.5230012   8.3784997  -2.1200012
  77.8550012   9.2504997  -1.0780012  78.1357568   9.1200807  -1.8910412
  82.7730012  10.3514997 -16.9810012  82.3130012   9.8674997 -16.2950012
  83.0280012   9.6834997 -17.6170012  82.7444902  10.1948731 -16.9730666
  82.0620012   8.2444997  -4.6250012  81.4440012   8.9194997  -4.3450012
  82.4060012   8.5654997  -5.4580012  82.0239615   8.3802721  -4.6993419
  83.8440012   8.5944997 -18.7190012  83.6640012   8.4404997 -19.6460012
  84.7940012   8.7024997 -18.6740012  83.9477776   8.5880175 -18.8398157
  87.0820012  10.7164997  -1.3480012  88.0350012  10.7994997  -1.3750012
  86.9210012  10.0044997  -0.7280012  87.1906426  10.6316746  -1.2679421
  93.2340012  10.9494997 -19.2730012  92.9600012  10.5244997 -20.0860012
  93.2730012  11.8804997 -19.4900012  93.2017699  11.0172484 -19.4136390
  82.4010012   5.5994997  -3.5430012  82.5510012   4.8704997  -4.1450012
  82.4040012   6.3764997  -4.1020012  82.4219302   5.6047851  -3.7009308
  82.8140012   3.9694997  -6.0500012  83.3500012   4.4204997  -6.7020012
  81.9620012   3.8614997  -6.4730012  82.7722178   4.0166390  -6.1964244
  84.3960012   9.4084997  -5.8110012  85.1460012   9.2524997  -6.3840012
  84.0570012  10.2604997  -6.0860012  84.4528921   9.5022968  -5.9266439
  88.8110012   7.2234997  -0.7820012  89.0040012   6.2924997  -0.8940012
  89.6690012   7.6484997  -0.7920012  88.9533020   7.1536389  -0.7986639
  90.1280012  10.0124997  -2.7050012  89.8470012  10.7214997  -3.2820012
  91.0710012   9.9394997  -2.8560012  90.2169027  10.0997646  -2.8044449
  80.8800012   6.7974997  -1.6310012  80.1130012   6.2654997  -1.8410012
  81.5590012   6.4874997  -2.2310012  80.8667022   6.6827506  -1.7408352
  83.6200012   1.4254997  -5.6190012  83.5210012   2.3724997  -5.7240012
  82.8770012   1.0534997  -6.0940012  83.5060564   1.5045902  -5.6975440
  84.8840012   5.7474997  -2.0550012  84.6480012   5.5274997  -1.1530012
  84.1000012   5.5404997  -2.5650012  84.7458628   5.6894760  -2.0006068
  87.5990012   4.8744997  -2.9790012  86.6520012   4.9064997  -2.8470012
  87.9120012   4.2494997  -2.3260012  87.5115475   4.7943207  -2.8725545
  89.2330012   3.5084997  -0.9740012  89.1370012   2.5564997  -0.9800012
  88.9120012   3.7774997  -0.1140012  89.1764070   3.4144035  -0.8584559
  79.0600012   4.7184997  -1.9270012  79.2720012   4.0114997  -2.5370012
  78.9490012   4.2804997  -1.0830012  79.0739721   4.5627084  -1.8963157
  83.8410012   0.7194997  -2.9470012  84.5530012   0.0794997  -2.9610012
  83.7400012   0.9864997  -3.8610012  83.9247939   0.6679938  -3.0724350
  84.1950012   2.4024997  -0.8940012  84.0630012   1.9264997  -1.7140012
  83.5960012   3.1464997  -0.9490012  84.0959071   2.4379618  -1.0137114
  83.7410012  19.2854997 -17.7170012  84.6740012  19.4434997 -17.5740012
  83.4770012  19.9604997 -18.3420012  83.8329510  19.3983611 -17.7819259
  77.3100012  13.9214997 -18.2350012  78.2240012  14.0004997 -17.9610012
  77.3170012  13.2344997 -18.9010012  77.4361131  13.8393961 -18.2875607
  75.9590012  19.3144997 -13.1570012  75.3120012  18.8524997 -13.6900012
  76.3130012  18.6424997 -12.5750012  75.9183849  19.1604723 -13.1512041
  76.8290012  17.3954997 -11.3530012  76.4940012  16.5154997 -11.1810012
  77.0510012  17.7404997 -10.4880012  76.8131783  17.3217500 -11.2125792
  94.3770012  18.2044997  -8.3720012  94.3560012  18.3894997  -7.4330012
  95.0680012  18.7734997  -8.7130012  94.4674618  18.3066606  -8.2896136
  93.9410012  17.7724997  -5.4500012  93.4530012  17.0364997  -5.8210012
  94.4900012  17.3784997  -4.7720012  93.9484872  17.6186249  -5.4090840
  92.3910012  13.5614997  -0.8120012  91.5250012  13.4564997  -0.4180012
  92.7680012  14.3204997  -0.3660012  92.3233308  13.6496900  -0.6977607
  93.6920012  11.8184997 -15.2980012  94.5420012  12.2394997 -15.1710012
  93.6980012  11.0784997 -14.6910012  93.8091372  11.7760803 -15.1985656
  94.0870012   9.8714997 -13.4740012  93.3600012   9.3924997 -13.0770012
  94.6680012  10.0774997 -12.7420012  94.0659375   9.8337090 -13.3205871
  93.8460012  12.6564997  -8.5270012  94.6790012  12.2784997  -8.8070012
  93.9580012  13.5994997  -8.6460012  93.9752647  12.7322218  -8.5814513
  92.3320012  15.5344997  -6.2200012  91.6850012  15.8594997  -5.5940012
  91.8150012  15.0944997  -6.8940012  92.1734029  15.5195004  -6.2254173
  94.3550012   9.7724997 -17.0830012  93.8330012  10.1294997 -17.8020012
  94.3220012  10.4474997 -16.4050012  94.2791634   9.9125413 -17.0896855
  92.7040012   7.0124997 -18.5320012  92.8000012   7.6794997 -19.2130012
  92.5640012   6.1964997 -19.0140012  92.6982135   6.9934500 -18.6901509
  91.8730012   8.3924997 -12.9110012  91.7230012   7.4474997 -12.9320012
  91.5200012   8.6734997 -12.0680012  91.8046625   8.3010441 -12.7997654
  76.9090012  10.4704997  -8.9010012  77.0930012  10.3884997  -9.8370012
  77.7580012  10.3464997  -8.4770012  77.0490139  10.4425003  -8.9718545
  92.7300012  10.3624997  -3.2730012  93.3130012   9.6284997  -3.0810012
  93.2940012  11.1344997  -3.2260012  92.8859769  10.3664227  -3.2403841
  94.2260012   8.2654997  -2.5880012  93.3630012   7.8864997  -2.7540012
  94.8310012   7.5264997  -2.6620012  94.1895979   8.1138023  -2.6207183
  91.9510012   4.4204997 -19.4150012  92.5620012   4.0494997 -18.7780012
  91.1150012   3.9994997 -19.2190012  91.9215032   4.3127554 -19.3012965
  91.5840012   5.9754997 -14.4490012  91.8640012   5.0684997 -14.3250012
  92.3430012   6.4094997 -14.8380012  91.7249277   5.9100942 -14.4846318
  92.1960012   6.5564997  -9.0130012  93.1290012   6.7684997  -9.0470012
  91.9610012   6.6584997  -8.0910012  92.2918036   6.5992769  -8.8930024
  92.2250012   7.2934997  -6.2370012  91.3820012   7.5614997  -5.8710012
  92.6670012   8.1154997  -6.4480012  92.1694158   7.4413291  -6.2154509
  76.5060012   5.7414997  -2.7600012  77.4260012   5.6194997  -2.5240012
  76.0570012   4.9914997  -2.3710012  76.5711580   5.6233727  -2.6750994
  94.5080012   1.2734997  -0.8840012  94.8580012   0.6194997  -1.4890012
  94.6550012   2.1104997  -1.3230012  94.5758419   1.2971591  -1.0262882
  92.1970012   3.2384997 -14.4010012  92.3800012   2.7894997 -13.5750012
  91.5980012   2.6534997 -14.8640012  92.1410202   3.0979975 -14.3506725
  77.7270012   4.0534997  -9.8690012  78.1730012   3.2614997  -9.5670012
  78.1940012   4.7694997  -9.4380012  77.8510172   4.0420624  -9.7695180
  76.0310012   7.0524997  -8.8000012  76.5230012   6.8314997  -9.5910012
  76.3940012   7.8934997  -8.5190012  76.1473126   7.1358357  -8.8702469
  94.0280012   3.3824997  -2.5340012  93.1100012   3.6534997  -2.5700012
  94.1510012   2.8474997  -3.3190012  93.9191066   3.3472892  -2.6449513
  94.0640012   3.3054997 -17.8730012  94.4760012   2.5844997 -18.3480012
  94.7460012   3.9754997 -17.8140012  94.2125885   3.2972368 -17.9301085
  76.3450012   3.3104997 -14.7460012  75.4200012   3.5194997 -14.8750012
  76.7990012   3.7944997 -15.4350012  76.2797368   3.4045994 -14.8568774
  91.1160012  18.2944997 -12.8000012  91.7680012  17.9474997 -13.4080012
  91.6260012  18.7834997 -12.1540012  91.2742637  18.3130597 -12.7959764
  76.3090012   2.0484997  -6.4010012  75.6440012   1.8024997  -5.7580012
  75.8660012   2.6704997  -6.9790012  76.1580956   2.0988632  -6.3910648
  78.5010012  15.2234997  -2.2570012  77.6800012  15.3984997  -2.7170012
  78.2480012  15.1504997  -1.3360012  78.3546164  15.2375622  -2.1955077
  81.4550012  16.1984997  -5.9980012  81.0300012  17.0074997  -6.2810012
  82.3590012  16.2834997  -6.3000012  81.5190271  16.3208469  -6.0776224
  85.7660012  17.5974997  -3.0390012  85.9510012  17.2634997  -2.1610012
  86.6120012  17.9064997  -3.3610012  85.9057539  17.5936047  -2.9624395
  88.1110012  18.8834997  -3.7950012  88.7880012  18.2504997  -4.0350012
  88.4330012  19.2844997  -2.9880012  88.2471637  18.8511154  -3.7187207
  93.0280012   1.4724997  -4.7150012  92.2160012   1.7974997  -5.1030012
  93.2610012   0.7124997  -5.2480012  92.9483423   1.4142436  -4.8401747
  78.8570012  19.4544997  -5.9510012  78.1360012  19.8944997  -6.4020012
  78.4910012  19.2034997  -5.1020012  78.7089804  19.4807698  -5.8980160
  81.3240012  19.0544997  -6.9210012  80.4590012  19.1264997  -6.5170012
  81.2690012  19.6014997  -7.7050012  81.1982085  19.1382685  -6.9716638
  86.0340012  18.9424997  -7.7460012  85.5780012  19.4714997  -8.4000012
  86.1970012  19.5454997  -7.0200012  85.9935585  19.0964468  -7.7374938
  88.3620012  17.8204997  -6.8010012  87.4570012  17.9854997  -7.0660012
  88.7910012  18.6734997  -6.8660012  88.2960799  17.9584483  -6.8460818
  90.9660012  19.3904997  -6.5060012  90.7840012  20.3064997  -6.7160012
  91.1430012  18.9804997  -7.3520012  90.9650210  19.4604822  -6.6492115
  78.2710012  18.0774997  -9.0410012  78.2530012  17.6524997  -8.1830012
  79.0760012  17.7594997  -9.4490012  78.3773875  17.9763812  -8.9788345
  80.4130012  16.7874997 -10.3860012  80.1940012  15.8714997 -10.2160012
  81.2370012  16.9274997  -9.9200012  80.4944420  16.6810520 -10.2997226
  82.9500012  17.2574997  -9.5370012  83.1630012  16.3694997  -9.8240012
  83.0140012  17.2234997  -8.5830012  82.9878232  17.1313102  -9.4472603
  86.4580012   2.9214997 -10.3930012  85.7840012   2.2924997 -10.1370012
  87.0220012   2.4374997 -10.9960012  86.4419230   2.7698744 -10.4394660
  91.6010012   1.0294997 -10.2800012  92.2050012   1.5764997 -10.7820012
  90.7310012   1.3484997 -10.5200012  91.5661241   1.1475806 -10.3812346
  93.3280012   2.1674997 -11.9470012  93.9400012   1.6534997 -12.4730012
  93.7100012   3.0454997 -11.9230012  93.4634540   2.2157140 -12.0158170
  78.7850012   1.5554997 -12.5710012  78.0080012   1.3214997 -13.0780012
  79.3150012   0.7584997 -12.5620012  78.7502330   1.4156988 -12.6392258
  77.6210012   1.3534997 -16.7670012  78.0600012   1.9644997 -17.3590012
  76.9880012   1.8914997 -16.2930012  77.5954514   1.5099257 -16.7839070
  83.3640012   1.4824997 -12.7570012  84.2390012   1.8704997 -12.7870012
  83.2280012   1.2674997 -11.8350012  83.4653695   1.5065184 -12.6363560
  88.9210012   1.5124997 -11.1080012  88.9970012   1.6074997 -12.0580012
  88.6460012   0.6044997 -10.9790012  88.8942321   1.4027867 -11.2204921
  90.2740012   1.5384997 -15.4160012  89.5720012   2.1534997 -15.6250012
  89.8300012   0.7004997 -15.2850012  90.1176330   1.5095783 -15.4269672
  77.5220012  17.3014997 -15.8690012  76.8370012  17.2634997 -16.5370012
  77.5260012  18.2144997 -15.5810012  77.4288193  17.4197016 -15.9214716
  79.4820012   3.2694997 -18.3250012  79.9740012   2.6394997 -18.8520012
  80.1060012   3.5654997 -17.6610012  79.6335446   3.2233199 -18.3074020
  84.5080012   3.5624997 -15.8680012  84.6860012   2.9164997 -15.1850012
  84.4550012   4.3964997 -15.4000012  84.5251829   3.5867985 -15.7114060
  86.3870012  18.5114997 -17.4720012  87.2530012  18.8774997 -17.6500012
  86.1400012  18.0714997 -18.2860012  86.4722392  18.5021756 -17.6063711
  93.0960012  18.0744997 -14.7930012  92.9010012  17.3264997 -15.3580012
  93.0570012  18.8324997 -15.3760012  93.0640380  18.0746099 -14.9491616
  78.7430012   2.0694997  -3.0530012  78.3770012   1.3044997  -2.6100012
  79.6560012   2.0984997  -2.7660012  78.8162790   1.9687224  -2.9535930
  80.7160012   1.4204997  -1.5170012  81.6140012   1.1464997  -1.7020012
  80.3290012   0.6774997  -1.0530012  80.7866612   1.2825914  -1.4796357
  79.3400012  18.2214997 -18.8440012  79.0730012  18.5084997 -17.9710012
  80.1120012  17.6754997 -18.6920012  79.4077488  18.1870294 -18.7038950
  89.1370012   0.7524997  -1.3350012  89.2140012   0.3264997  -0.4810012
  90.0310012   0.7664997  -1.6780012  89.2683428   0.6960879  -1.2644690
  92.3130012  16.8254997  -2.6430012  91.5310012  16.6394997  -3.1620012
  92.2410012  17.7544997  -2.4250012  92.1961777  16.9256492  -2.6845952
 106.7190012  10.7114997 -12.6120012 106.8080012  11.6554997 -12.7440012
 106.0810012  10.4364997 -13.2700012 106.6449081  10.8034830 -12.7190386
 105.6520012   9.9664997  -9.1930012 105.6140012   9.3204997  -8.4880012
 105.3300012   9.5004997  -9.9640012 105.6032333   9.8149408  -9.2007022
  98.0210012   9.5814997  -7.6000012  98.0620012   8.9554997  -6.8770012
  98.7240012  10.2054997  -7.4180012  98.1216363   9.5801196  -7.4763956
 109.3580012  12.9054997 -10.8920012 108.9180012  12.1854997 -10.4410012
 109.3450012  13.6264997 -10.2620012 109.2960226  12.9043731 -10.7451506
  98.9440012  14.0314997  -9.0650012  98.5750012  13.2294997  -9.4350012
  99.8850012  13.8624997  -9.0190012  99.0207289  13.8990153  -9.1093684
  95.5540012   7.6914997 -13.6720012  95.1070012   8.5374997 -13.6910012
  94.9930012   7.1114997 -14.1880012  95.4169900   7.7289916 -13.7443199
  96.2650012   9.8534997 -11.5460012  96.4780012   9.0834997 -11.0190012
  97.0030012   9.9424997 -12.1500012  96.3938496   9.7601394 -11.5554700
 106.4700012  18.0104997 -10.6790012 107.0900012  17.3334997 -10.9530012
 106.2620012  17.7924997  -9.7710012 106.5266904  17.8883870 -10.5936635
 104.0420012  12.3994997  -8.7870012 104.3460012  11.7134997  -9.3820012
 104.7630012  12.5174997  -8.1690012 104.1810671  12.3216304  -8.7848184
 112.7050012   4.0004997  -7.9260012 112.7540012   4.6104997  -7.1900012
 113.1300012   4.4614997  -8.6490012 112.7691824   4.1463741  -7.9229795
 107.1830012   6.7934997  -8.4590012 107.3250012   5.8474997  -8.4390012
 107.0760012   7.0004997  -9.3880012 107.1879864   6.6919534  -8.5817661
 100.3370012   4.8944997 -11.1870012 100.3810012   5.7544997 -11.6050012
  99.8800012   4.3424997 -11.8210012 100.2812185   4.9375799 -11.3299701
 108.0600012   5.0254997 -12.7860012 108.7060012   4.6964997 -12.1610012
 108.5700012   5.5434997 -13.4090012 108.2174264   5.0504611 -12.7846138
  96.9580012   7.2914997 -10.4250012  97.6110012   6.7414997  -9.9930012
  96.9820012   7.0174997 -11.3420012  97.0506683   7.1791466 -10.4897877
 102.1140012   8.8414997 -11.2100012 102.7300012   8.3154997 -10.7000012
 101.5280012   8.2014997 -11.6130012 102.1190810   8.6829208 -11.1946827
 113.0960012   5.4784997  -5.6900012 112.4080012   6.1364997  -5.7860012
 113.1120012   5.2814997  -4.7540012 113.0038525   5.5420462  -5.5765192
  99.1480012   3.8124997  -7.1130012  98.9290012   4.3424997  -7.8790012
  98.4800012   4.0394997  -6.4660012  99.0277600   3.9156906  -7.1303621
 106.5170012  13.3124997 -13.5690012 106.2210012  12.9904997 -14.4200012
 106.1920012  14.2124997 -13.5280012 106.4326371  13.3900215 -13.6798199
 101.7170012  11.4884997  -6.8260012 100.9770012  12.0864997  -6.7220012
 102.4310012  12.0424997  -7.1410012 101.7122237  11.6452831  -6.8543535
 109.8240012   4.3164997 -10.8060012 109.6080012   3.5504997 -10.2730012
 110.4790012   4.7884997 -10.2930012 109.8830632   4.2755889 -10.6637139
  98.7410012   5.7044997  -9.1610012  99.3550012   6.3374997  -8.7870012
  99.2530012   5.2324997  -9.8170012  98.8942296   5.7272370  -9.1985748
 100.1240012  13.4524997  -6.0380012 100.1190012  14.3324997  -6.4160012
  99.2710012  13.3694997  -5.6130012 100.0079464  13.5616117  -6.0322093
  96.2450012  13.1234997 -15.2560012  95.9730012  13.3524997 -16.1450012
  96.2910012  13.9614997 -14.7960012  96.2140094  13.2681213 -15.3154303
 109.8700012  14.7454997  -8.5440012 108.9290012  14.8034997  -8.3820012
 110.1470012  15.6514997  -8.6810012 109.7784679  14.8759443  -8.5403185
 110.1710012   3.0314997  -7.1260012 109.4350012   3.6424997  -7.1640012
 110.8540012   3.4464997  -7.6530012 110.1626541   3.1711374  -7.2024168
 103.1740012   1.1184997  -9.6600012 103.0570012   0.1694997  -9.7150012
 102.3190012   1.4504997  -9.3870012 103.0423733   1.0335409  -9.6306103
 108.1220012  16.5264997 -11.9180012 108.5480012  15.8194997 -12.4030012
 108.4390012  17.3274997 -12.3350012 108.2231019  16.5380994 -12.0406870
 109.2820012  14.4274997 -13.4100012 109.0240012  13.7374997 -14.0210012
 109.3530012  13.9844997 -12.5640012 109.2562856  14.2732124 -13.3793115
 110.9680012  12.9934997  -4.9320012 111.1080012  12.4024997  -5.6720012
 111.1350012  13.8664997  -5.2890012 111.0096778  13.0306426  -5.0813035
 105.4410012   9.9554997 -15.1600012 104.7290012  10.4904997 -15.5120012
 106.1320012  10.0114997 -15.8200012 105.4370132  10.0362543 -15.2973711
 105.4940012   8.4134997 -18.1210012 106.1950012   8.4354997 -17.4700012
 105.7970012   7.7854997 -18.7770012 105.6307830   8.3316566 -18.1206289
 112.8100012   9.3334997  -6.8660012 112.1570012  10.0284997  -6.7770012
 113.2750012   9.5434997  -7.6760012 112.7835390   9.4569425  -6.9633117
 108.8460012  10.1654997 -14.2080012 108.1140012  10.3934997 -13.6350012
 109.2940012   9.4514997 -13.7530012 108.8063095  10.1002571 -14.0680881
 108.7440012   8.3394997  -5.1410012 108.8240012   9.1024997  -4.5690012
 108.1420012   8.6184997  -5.8310012 108.6735756   8.4817134  -5.1559411
 100.4920012  10.7954997 -12.3260012 100.1610012  10.4254997 -13.1440012
 101.0800012  10.1254997 -11.9790012 100.5261873  10.6541156 -12.3911898
 101.8580012  14.2234997  -9.6440012 101.7640012  13.6454997 -10.4010012
 102.5880012  13.8524997  -9.1480012 101.9437981  14.0942390  -9.6805835
 100.8580012   9.5644997  -8.6920012 101.4240012   9.6854997  -9.4550012
 101.1770012  10.2014997  -8.0530012 100.9785786   9.6671884  -8.7099960
 107.1670012  15.0674997  -7.9580012 106.9270012  15.7294997  -7.3100012
 106.9690012  14.2334997  -7.5330012 107.1073808  15.0453134  -7.8118476
 101.7380012  13.9634997  -3.9750012 101.4270012  14.7454997  -3.5200012
 101.0880012  13.8104997  -4.6610012 101.6075558  14.0499105  -4.0054129
 107.7170012   9.3274997 -16.5230012 108.2970012   9.4774997 -15.7760012
 108.1310012   9.7984997 -17.2460012 107.8522830   9.4116841 -16.5185866
  98.6580012  10.1614997  -4.7460012  98.7290012  10.8124997  -4.0480012
  97.7680012  10.2644997  -5.0810012  98.5473117  10.2645936  -4.6957300
 105.4440012  16.0644997 -13.0880012 105.9180012  16.3594997 -12.3100012
 104.8810012  16.8024997 -13.3210012 105.4327653  16.2046932 -13.0129864
  99.9780012  16.0354997  -3.2120012  99.9850012  15.8994997  -4.1590012
  99.0620012  15.9174997  -2.9600012  99.8551714  16.0009430  -3.3075334
 111.4160012   1.0774997 -16.7100012 110.5160012   1.2164997 -16.4150012
 111.6680012   1.9084997 -17.1120012 111.3268702   1.2089074 -16.7239795
  99.4820012   9.8654997 -14.7360012  99.1900012  10.6334997 -15.2270012
  98.8080012   9.2054997 -14.8990012  99.3509081   9.8814406 -14.8252660
 112.6050012  15.4434997 -18.3340012 112.6790012  16.3824997 -18.1630012
 113.5110012  15.1384997 -18.3900012 112.7375100  15.5306722 -18.3181881
  95.5750012  12.2284997  -5.9210012  95.0740012  12.2004997  -6.7360012
  95.5800012  11.3224997  -5.6120012  95.5071526  12.1022278  -5.9907128
  95.3250012  15.0084997  -9.0370012  96.2710012  14.8644997  -9.0560012
  95.2130012  15.7924997  -8.5000012  95.4392727  15.0948046  -8.9669928
 113.5230012  15.6744997  -3.3550012 113.4740012  14.7194997  -3.3920012
 112.6960012  15.9424997  -2.9540012 113.4044940  15.5798998  -3.3058625
 104.5020012  15.2484997  -4.4790012 104.5890012  16.0744997  -4.0040012
 103.6380012  14.9184997  -4.2300012 104.3971964  15.3169878  -4.3803451
 104.9160012  19.0204997 -14.6730012 104.8410012  18.8994997 -15.6190012
 104.9490012  19.9704997 -14.5540012 104.9101848  19.1322500 -14.7865166
  98.5690012  17.8094997 -12.8920012  98.7220012  17.4614997 -12.0130012
  97.7190012  17.4534997 -13.1470012  98.4748962  17.7136650 -12.8061660
 108.0180012  18.1744997 -17.6710012 108.3930012  17.4304997 -18.1410012
 108.0220012  17.9044997 -16.7520012 108.0698915  18.0361486 -17.6112176
 107.6870012  18.1004997 -14.9210012 106.7510012  18.2004997 -14.7430012
 107.9670012  17.3914997 -14.3430012 107.5968255  18.0182711 -14.8184609
 110.6750012   7.1674997  -2.8750012 110.2680012   7.6484997  -3.5960012
 110.7160012   6.2624997  -3.1830012 110.6248437   7.1109374  -3.0153317
  97.8240012  13.5514997  -4.8780012  98.0400012  13.1904997  -4.0190012
  96.9690012  13.1774997  -5.0880012  97.7379292  13.4514111  -4.7886614
 100.4430012   2.0214997  -8.8830012  99.5810012   1.9344997  -9.2900012
 100.4200012   2.8774997  -8.4550012 100.3220330   2.1252765  -8.8808137
 105.1060012   1.7434997  -5.5080012 105.5260012   1.3284997  -4.7550012
 104.1730012   1.5654997  -5.3910012 105.0373644   1.6625900  -5.3890461
 108.4320012   5.4994997  -4.6550012 107.9180012   5.3734997  -3.8570012
 108.2770012   6.4114997  -4.8990012 108.3406852   5.6056132  -4.5787842
 109.1950012  10.3604997 -18.8930012 109.2370012  10.1374997 -19.8230012
 110.0440012  10.7594997 -18.7030012 109.3155396  10.3839155 -18.9946373
 104.7670012   4.2364997 -18.2230012 104.5140012   4.2554997 -17.3000012
 104.5110012   3.3644997 -18.5240012 104.6977790   4.1212437 -18.1373737
 100.5340012   6.9874997  -7.7880012  99.8920012   6.9464997  -7.0790012
 100.5710012   7.9134997  -8.0250012 100.4511324   7.1071559  -7.7230176
 100.5310012   7.2084997 -12.8760012  99.6380012   6.8674997 -12.9340012
 100.9810012   6.8314997 -13.6310012 100.4697305   7.1108484 -12.9860823
 106.0660012   7.6244997 -14.0590012 105.6570012   8.4394997 -14.3500012
 106.7870012   7.4844997 -14.6730012 106.1074537   7.7172018 -14.1818658
 105.1680012   7.7994997  -2.5710012 104.6060012   7.0954997  -2.2500012
 105.9950012   7.6794997  -2.1030012 105.2027095   7.6867883  -2.4637670
 107.0710012   7.0704997 -11.2450012 106.8760012   7.6754997 -11.9600012
 107.2520012   6.2364997 -11.6790012 107.0687614   7.0406300 -11.4015595
  98.2840012   7.3074997  -5.9210012  98.2460012   7.7074997  -5.0520012
  97.7930012   6.4904997  -5.8300012  98.2124684   7.2518069  -5.7898941
 101.6500012   4.6814997 -19.1220012 101.2190012   4.2364997 -18.3920012
 100.9320012   5.0534997 -19.6340012 101.4939438   4.6708940 -19.0913201
  94.8920012   4.4234997 -12.0700012  95.5230012   4.3944997 -11.3510012
  95.3410012   3.9984997 -12.8000012  95.0390774   4.3620492 -12.0703447
  96.1660012   5.1694997 -16.6460012  96.6400012   5.7604997 -17.2310012
  95.4490012   5.7004997 -16.2990012  96.1339341   5.3220867 -16.6791164
 106.3350012   8.7084997  -6.5730012 106.6580012   8.0774997  -7.2160012
 105.8950012   8.1734997  -5.9130012 106.3196895   8.5498441  -6.5717150
 103.1120012   4.6354997 -11.7890012 102.2010012   4.6924997 -11.5010012
 103.6180012   4.5754997 -10.9790012 103.0555413   4.6351985 -11.6399378
  97.9410012   6.2644997 -12.9630012  97.0510012   6.3644997 -13.3030012
  98.2370012   5.4224997 -13.3090012  97.8592823   6.1643545 -13.0562787
 101.5940012   6.2644997 -15.3060012 102.5250012   6.3934997 -15.1280012
 101.3790012   6.9344997 -15.9560012 101.6924247   6.3726565 -15.3694253
 107.5170012   3.8704997  -8.5250012 106.8410012   4.0014997  -7.8610012
 107.0320012   3.7154997  -9.3350012 107.3587145   3.8674905  -8.5435483
 100.2680012   7.4594997 -17.7390012  99.7250012   7.0794997 -18.4310012
 101.1010012   7.6534997 -18.1680012 100.3064399   7.4338124 -17.8915474
 110.8050012  19.5424997  -2.2480012 111.0050012  19.9664997  -3.0830012
 111.4600012  19.8854997  -1.6410012 110.9210051  19.6469648  -2.2802164
  98.4030012  12.0164997  -2.6400012  99.1350012  12.2704997  -2.0790012
  97.6230012  12.2204997  -2.1250012  98.3978232  12.0789177  -2.4934240
 104.4320012   7.4234997  -9.9020012 104.9970012   6.8764997 -10.4490012
 104.2850012   6.9014997  -9.1140012 104.4892918   7.2782024  -9.8701546
  99.4340012   3.5594997 -13.4840012  99.1170012   2.6574997 -13.5190012
 100.2160012   3.5614997 -14.0370012  99.4962284   3.4361628 -13.5635217
 103.0590012   5.8114997  -7.4880012 102.2230012   6.2654997  -7.3780012
 103.5830012   6.0874997  -6.7360012 103.0154414   5.9109376  -7.3712864
 103.6030012  12.0244997 -15.8040012 102.8580012  11.5174997 -16.1260012
 103.4690012  12.0734997 -14.8570012 103.4828776  11.9616940 -15.7201353
 110.7530012  11.1574997  -7.0170012 111.3950012  11.6144997  -7.5610012
 109.9230012  11.2704997  -7.4800012 110.7285963  11.2352704  -7.1539823
 107.5010012   4.8384997 -17.6040012 106.5620012   4.9504997 -17.7560012
 107.7980012   5.6954997 -17.2980012 107.4127666   4.9696443 -17.5834232
 105.1220012  12.2084997  -4.5670012 104.7770012  11.8274997  -3.7600012
 104.9220012  13.1424997  -4.4950012 105.0478061  12.2825228  -4.4469039
 108.2190012   6.7054997 -15.9440012 109.1110012   6.5684997 -15.6250012
 108.2760012   7.4964997 -16.4800012 108.3486285   6.7936660 -15.9728309
  98.7280012  11.3194997 -10.0340012  99.4730012  11.3174997 -10.6350012
  98.8060012  10.4964997  -9.5520012  98.8405518  11.2079315 -10.0511071
 105.7290012  13.4834997 -16.7780012 105.4330012  14.3094997 -16.3970012
 105.0260012  12.8634997 -16.5820012 105.5934914  13.5128199 -16.6993557
  95.7360012   9.7804997  -4.7190012  95.9590012   9.3624997  -3.8870012
  95.1340012   9.1674997  -5.1420012  95.6851759   9.6404668  -4.6622978
 102.7520012   9.2974997  -2.5060012 102.4560012   9.1314997  -3.4010012
 103.6840012   9.0774997  -2.5170012 102.8374166   9.2450640  -2.6299464
 107.3730012  14.6704997  -4.6160012 106.4720012  14.8534997  -4.8840012
 107.4070012  14.9294997  -3.6950012 107.2543041  14.7305512  -4.5281803
 113.1040012   6.9154997 -16.2490012 112.5500012   6.5194997 -16.9210012
 113.2040012   7.8254997 -16.5270012 113.0417059   6.9843586 -16.3785599
 113.0670012  12.7154997  -3.4120012 112.2160012  12.9534997  -3.7790012
 113.6580012  12.6984997  -4.1650012 113.0302487  12.7458258  -3.5641107
 111.3990012  15.7014997 -15.7840012 111.0260012  14.8754997 -15.4750012
 111.6770012  15.5184997 -16.6810012 111.3855630  15.5637303 -15.8630374
 108.5600012  10.5094997  -8.7630012 107.6310012  10.2774997  -8.7900012
 109.0110012   9.7324997  -9.0930012 108.4939216  10.3727238  -8.8113083
 101.1030012  14.8374997 -12.6300012 101.6300012  15.6104997 -12.8300012
 100.2230012  15.0624997 -12.9310012 101.0561773  14.9738005 -12.6980990
  96.8580012   9.6994997 -18.0430012  97.4740012  10.3264997 -17.6630012
  95.9960012  10.0154997 -17.7710012  96.8257698   9.8279430 -17.9542817
 102.5300012  12.5004997 -13.0530012 102.2890012  13.4254997 -13.0120012
 101.7890012  12.0414997 -12.6570012 102.3968409  12.5651421 -12.9938623
 103.0450012  16.6494997  -6.7380012 103.4070012  17.5044997  -6.9720012
 103.5760012  16.3574997  -5.9980012 103.1664473  16.7271060  -6.6699145
 101.2130012  17.5224997 -13.5080012 100.2630012  17.6274997 -13.4570012
 101.5650012  18.3424997 -13.1630012 101.1304203  17.6478314 -13.4543350
 106.5890012  12.7484997  -7.0380012 106.1630012  12.5214997  -6.2110012
 107.1690012  12.0104997  -7.2200012 106.6091868  12.6175299  -6.9494170
 108.7920012  13.6774997 -17.9640012 109.1450012  13.2974997 -17.1590012
 107.8430012  13.5844997 -17.8770012 108.7120441  13.6129596 -17.8421441
 109.2470012  17.3004997  -4.5680012 108.6460012  16.7454997  -5.0640012
 109.5290012  17.9674997  -5.1940012 109.2028519  17.3146841  -4.7205048
 113.2950012  18.1574997 -17.7630012 114.0390012  18.7434997 -17.9030012
 112.6010012  18.7254997 -17.4290012 113.3030292  18.3145582 -17.7370039
  97.3700012   4.5334997  -5.1610012  96.4770012   4.8724997  -5.2290012
  97.2710012   3.6784997  -4.7430012  97.2344164   4.4642588  -5.1137765
 109.6580012  12.3504997 -15.7370012 109.3800012  11.6224997 -15.1810012
 110.5850012  12.4694997 -15.5320012 109.7453124  12.2668802 -15.6331155
  97.0210012  16.3384997  -6.7260012  97.2380012  15.4064997  -6.7570012
  97.2670012  16.6124997  -5.8430012  97.0839549  16.2480636  -6.6108237
 102.8830012  14.7894997 -19.5170012 103.1220012  14.0414997 -20.0640012
 102.6140012  14.4014997 -18.6840012 102.8793675  14.6346638 -19.4793135
 101.8200012  14.3594997 -17.0600012 101.9660012  13.8394997 -16.2700012
 101.8170012  15.2664997 -16.7540012 101.8395989  14.4108853 -16.9103912
  98.2730012  11.6124997 -16.5500012  97.5870012  11.9644997 -15.9830012
  98.7950012  12.3754997 -16.7970012  98.2496852  11.7638578 -16.5057882
 106.1040012   4.2744997  -6.2710012 106.8030012   4.3484997  -5.6210012
 105.7230012   3.4104997  -6.1170012 106.1481767   4.1677624  -6.1611678
 106.8890012   3.9264997 -15.1740012 107.1090012   4.3984997 -15.9770012
 107.4470012   4.3214997 -14.5040012 106.9944968   4.0444285 -15.1932669
 104.5570012  16.0574997 -16.3110012 103.7410012  16.5544997 -16.2590012
 105.0870012  16.5324997 -16.9510012 104.5169161  16.1897722 -16.3904044
 104.0890012   5.6544997 -14.3390012 104.9010012   6.1594997 -14.2930012
 103.8440012   5.5094997 -13.4250012 104.1670520   5.7040375 -14.2091483
 104.6240012   6.6404997  -5.1540012 104.7430012   7.2144997  -4.3970012
 105.2800012   5.9524997  -5.0400012 104.7289757   6.6261079  -5.0349175
 104.9720012   2.7354997 -13.4010012 104.6260012   3.3534997 -12.7560012
 105.6310012   3.2364997 -13.8820012 105.0137826   2.8875802 -13.3779029
 101.8960012  17.1014997 -16.3290012 102.0560012  17.9004997 -16.8300012
 101.6980012  17.4074997 -15.4440012 101.8911649  17.2524469 -16.2780185
 100.6300012   3.7984997 -16.7140012 100.5470012   4.6874997 -16.3670012
 101.5200012   3.5334997 -16.4820012 100.7389469   3.8841430 -16.6352374
 110.8290012   4.5474997  -4.3190012 109.9120012   4.8104997  -4.4070012
 111.1640012   4.5444997  -5.2160012 110.7489900   4.5830224  -4.4522081
 109.4310012   8.2984997 -10.2240012 108.6330012   7.8834997 -10.5520012
 109.8760012   7.6074997  -9.7330012 109.3819885   8.1483543 -10.2025111
  98.8890012  14.2264997 -17.6530012  99.4810012  14.9254997 -17.3770012
  99.3480012  13.7934997 -18.3730012  99.0321142  14.2637049 -17.7125170
  97.2050012   6.8904997 -18.5370012  97.1600012   7.8294997 -18.3590012
  96.3170012   6.6544997 -18.8070012  97.0788574   6.9871892 -18.5491088
 110.5170012  17.5544997  -8.6010012 110.3620012  18.2324997  -9.2580012
 111.4500012  17.6264997  -8.3980012 110.6218500  17.6570170  -8.6634881
  98.0130012   1.6724997  -9.8640012  97.7840012   1.7314997 -10.7920012
  97.5700012   0.8804997  -9.5580012  97.9218530   1.5735753  -9.9495214
  96.9430012  15.6124997 -13.7040012  96.1110012  16.0854997 -13.6760012
  97.4890012  16.1224997 -14.3020012  96.9029739  15.7461871 -13.7810284
  96.2310012  18.2254997  -2.3740012  96.7720012  18.0084997  -1.6140012
  95.7500012  17.4194997  -2.5630012  96.2399345  18.0869514  -2.2956924
 100.8290012  17.1444997  -0.7530012 101.5960012  16.6854997  -0.4120012
 100.8070012  16.9184997  -1.6830012 100.9311434  17.0510409  -0.8319957
 104.9210012  16.6524997 -19.3780012 104.2770012  16.0214997 -19.0570012
 105.6830012  16.1214997 -19.6100012 104.9358077  16.4942920 -19.3653989
 107.4060012  15.5244997  -2.0240012 107.0550012  14.6684997  -1.7810012
 108.1320012  15.6674997  -1.4170012 107.4560769  15.4265636  -1.9086381
 109.5250012  16.4694997 -19.1440012 109.8080012  15.6754997 -18.6920012
 110.2650012  16.7024997 -19.7050012 109.6637486  16.3922803 -19.1579302
  96.1380012  12.0354997  -1.4190012  96.2820012  11.1334997  -1.7060012
  95.3660012  12.3214997  -1.9070012  96.0533322  11.9508261  -1.5242119
 100.4800012  12.3794997 -19.2870012 100.5440012  11.5854997 -18.7560012
 101.1330012  12.2604997 -19.9770012 100.5770241  12.2547148 -19.3075683
 102.7940012  12.0054997  -1.9870012 102.4650012  12.2764997  -2.8440012
 102.9460012  11.0644997  -2.0740012 102.7694809  11.9153862  -2.1161756
 108.5280012  11.9214997  -4.6030012 109.2740012  12.5094997  -4.7230012
 107.7710012  12.5034997  -4.5400012 108.5277554  12.0807011  -4.6109093
  96.9710012   9.2354997  -1.9990012  97.3790012   8.3784997  -2.1200012
  96.7110012   9.2504997  -1.0780012  96.9917568   9.1200807  -1.8910412
 101.6290012  10.3514997 -16.9810012 101.1690012   9.8674997 -16.2950012
 101.8840012   9.6834997 -17.6170012 101.6004902  10.1948731 -16.9730666
 100.9180012   8.2444997  -4.6250012 100.3000012   8.9194997  -4.3450012
 101.2620012   8.5654997  -5.4580012 100.8799615   8.3802721  -4.6993419
 102.7000012   8.5944997 -18.7190012 102.5200012   8.4404997 -19.6460012
 103.6500012   8.7024997 -18.6740012 102.8037776   8.5880175 -18.8398157
 105.9380012  10.7164997  -1.3480012 106.8910012  10.7994997  -1.3750012
 105.7770012  10.0044997  -0.7280012 106.0466426  10.6316746  -1.2679421
 112.0900012  10.9494997 -19.2730012 111.8160012  10.5244997 -20.0860012
 112.1290012  11.8804997 -19.4900012 112.0577699  11.0172484 -19.4136390
 101.2570012   5.5994997  -3.5430012 101.4070012   4.8704997  -4.1450012
 101.2600012   6.3764997  -4.1020012 101.2779302   5.6047851  -3.7009308
 101.6700012   3.9694997  -6.0500012 102.2060012   4.4204997  -6.7020012
 100.8180012   3.8614997  -6.4730012 101.6282178   4.0166390  -6.1964244
 103.2520012   9.4084997  -5.8110012 104.0020012   9.2524997  -6.3840012
 102.9130012  10.2604997  -6.0860012 103.3088921   9.5022968  -5.9266439
 107.6670012   7.2234997  -0.7820012 107.8600012   6.2924997  -0.8940012
 108.5250012   7.6484997  -0.7920012 107.8093020   7.1536389  -0.7986639
 108.9840012  10.0124997  -2.7050012 108.7030012  10.7214997  -3.2820012
 109.9270012   9.9394997  -2.8560012 109.0729027  10.0997646  -2.8044449
  99.7360012   6.7974997  -1.6310012  98.9690012   6.2654997  -1.8410012
 100.4150012   6.4874997  -2.2310012  99.7227022   6.6827506  -1.7408352
 102.4760012   1.4254997  -5.6190012 102.3770012   2.3724997  -5.7240012
 101.7330012   1.0534997  -6.0940012 102.3620564   1.5045902  -5.6975440
 103.7400012   5.7474997  -2.0550012 103.5040012   5.5274997  -1.1530012
 102.9560012   5.5404997  -2.5650012 103.6018628   5.6894760  -2.0006068
 106.4550012   4.8744997  -2.9790012 105.5080012   4.9064997  -2.8470012
 106.7680012   4.2494997  -2.3260012 106.3675475   4.7943207  -2.8725545
 108.0890012   3.5084997  -0.9740012 107.9930012   2.5564997  -0.9800012
 107.7680012   3.7774997  -0.1140012 108.0324070   3.4144035  -0.8584559
  97.9160012   4.7184997  -1.9270012  98.1280012   4.0114997  -2.5370012
  97.8050012   4.2804997  -1.0830012  97.9299721   4.5627084  -1.8963157
 102.6970012   0.7194997  -2.9470012 103.4090012   0.0794997  -2.9610012
 102.5960012   0.9864997  -3.8610012 102.7807939   0.6679938  -3.0724350
 103.0510012   2.4024997  -0.8940012 102.9190012   1.9264997  -1.7140012
 102.4520012   3.1464997  -0.9490012 102.9519071   2.4379618  -1.0137114
 102.5970012  19.2854997 -17.7170012 103.5300012  19.4434997 -17.5740012
 102.3330012  19.9604997 -18.3420012 102.6889510  19.3983611 -17.7819259
  96.1660012  13.9214997 -18.2350012  97.0800012  14.0004997 -17.9610012
  96.1730012  13.2344997 -18.9010012  96.2921131  13.8393961 -18.2875607
  94.8150012  19.3144997 -13.1570012  94.1680012  18.8524997 -13.6900012
  95.1690012  18.6424997 -12.5750012  94.7743849  19.1604723 -13.1512041
  95.6850012  17.3954997 -11.3530012  95.3500012  16.5154997 -11.1810012
  95.9070012  17.7404997 -10.4880012  95.6691783  17.3217500 -11.2125792
 113.2330012  18.2044997  -8.3720012 113.2120012  18.3894997  -7.4330012
 113.9240012  18.7734997  -8.7130012 113.3234618  18.3066606  -8.2896136
 112.7970012  17.7724997  -5.4500012 112.3090012  17.0364997  -5.8210012
 113.3460012  17.3784997  -4.7720012 112.8044872  17.6186249  -5.4090840
 111.2470012  13.5614997  -0.8120012 110.3810012  13.4564997  -0.4180012
 111.6240012  14.3204997  -0.3660012 111.1793308  13.6496900  -0.6977607
 112.5480012  11.8184997 -15.2980012 113.3980012  12.2394997 -15.1710012
 112.5540012  11.0784997 -14.6910012 112.6651372  11.7760803 -15.1985656
 112.9430012   9.8714997 -13.4740012 112.2160012   9.3924997 -13.0770012
 113.5240012  10.0774997 -12.7420012 112.9219375   9.8337090 -13.3205871
 112.7020012  12.6564997  -8.5270012 113.5350012  12.2784997  -8.8070012
 112.8140012  13.5994997  -8.6460012 112.8312647  12.7322218  -8.5814513
 111.1880012  15.5344997  -6.2200012 110.5410012  15.8594997  -5.5940012
 110.6710012  15.0944997  -6.8940012 111.0294029  15.5195004  -6.2254173
 113.2110012   9.7724997 -17.0830012 112.6890012  10.1294997 -17.8020012
 113.1780012  10.4474997 -16.4050012 113.1351634   9.9125413 -17.0896855
 111.5600012   7.0124997 -18.5320012 111.6560012   7.6794997 -19.2130012
 111.4200012   6.1964997 -19.0140012 111.5542135   6.9934500 -18.6901509
 110.7290012   8.3924997 -12.9110012 110.5790012   7.4474997 -12.9320012
 110.3760012   8.6734997 -12.0680012 110.6606625   8.3010441 -12.7997654
  95.7650012  10.4704997  -8.9010012  95.9490012  10.3884997  -9.8370012
  96.6140012  10.3464997  -8.4770012  95.9050139  10.4425003  -8.9718545
 111.5860012  10.3624997  -3.2730012 112.1690012   9.6284997  -3.0810012
 112.1500012  11.1344997  -3.2260012 111.7419769  10.3664227  -3.2403841
 113.0820012   8.2654997  -2.5880012 112.2190012   7.8864997  -2.7540012
 113.6870012   7.5264997  -2.6620012 113.0455979   8.1138023  -2.6207183
 110.8070012   4.4204997 -19.4150012 111.4180012   4.0494997 -18.7780012
 109.9710012   3.9994997 -19.2190012 110.7775032   4.3127554 -19.3012965
 110.4400012   5.9754997 -14.4490012 110.7200012   5.0684997 -14.3250012
 111.1990012   6.4094997 -14.8380012 110.5809277   5.9100942 -14.4846318
 111.0520012   6.5564997  -9.0130012 111.9850012   6.7684997  -9.0470012
 110.8170012   6.6584997  -8.0910012 111.1478036   6.5992769  -8.8930024
 111.0810012   7.2934997  -6.2370012 110.2380012   7.5614997  -5.8710012
 111.5230012   8.1154997  -6.4480012 111.0254158   7.4413291  -6.2154509
  95.3620012   5.7414997  -2.7600012  96.2820012   5.6194997  -2.5240012
  94.9130012   4.9914997  -2.3710012  95.4271580   5.6233727  -2.6750994
 113.3640012   1.2734997  -0.8840012 113.7140012   0.6194997  -1.4890012
 113.5110012   2.1104997  -1.3230012 113.4318419   1.2971591  -1.0262882
 111.0530012   3.2384997 -14.4010012 111.2360012   2.7894997 -13.5750012
 110.4540012   2.6534997 -14.8640012 110.9970202   3.0979975 -14.3506725
  96.5830012   4.0534997  -9.8690012  97.0290012   3.2614997  -9.5670012
  97.0500012   4.7694997  -9.4380012  96.7070172   4.0420624  -9.7695180
  94.8870012   7.0524997  -8.8000012  95.3790012   6.8314997  -9.5910012
  95.2500012   7.8934997  -8.5190012  95.0033126   7.1358357  -8.8702469
 112.8840012   3.3824997  -2.5340012 111.9660012   3.6534997  -2.5700012
 113.0070012   2.8474997  -3.3190012 112.7751066   3.3472892  -2.6449513
 112.9200012   3.3054997 -17.8730012 113.3320012   2.5844997 -18.3480012
 113.6020012   3.9754997 -17.8140012 113.0685885   3.2972368 -17.9301085
  95.2010012   3.3104997 -14.7460012  94.2760012   3.5194997 -14.8750012
  95.6550012   3.7944997 -15.4350012  95.1357368   3.4045993 -14.8568774
 109.9720012  18.2944997 -12.8000012 110.6240012  17.9474997 -13.4080012
 110.4820012  18.7834997 -12.1540012 110.1302637  18.3130597 -12.7959764
  95.1650012   2.0484997  -6.4010012  94.5000012   1.8024997  -5.7580012
  94.7220012   2.6704997  -6.9790012  95.0140956   2.0988632  -6.3910648
  97.3570012  15.2234997  -2.2570012  96.5360012  15.3984997  -2.7170012
  97.1040012  15.1504997  -1.3360012  97.2106164  15.2375622  -2.1955077
 100.3110012  16.1984997  -5.9980012  99.8860012  17.0074997  -6.2810012
 101.2150012  16.2834997  -6.3000012 100.3750271  16.3208469  -6.0776224
 104.6220012  17.5974997  -3.0390012 104.8070012  17.2634997  -2.1610012
 105.4680012  17.9064997  -3.3610012 104.7617539  17.5936047  -2.9624395
 106.9670012  18.8834997  -3.7950012 107.6440012  18.2504997  -4.0350012
 107.2890012  19.2844997  -2.9880012 107.1031637  18.8511154  -3.7187207
 111.8840012   1.4724997  -4.7150012 111.0720012   1.7974997  -5.1030012
 112.1170012   0.7124997  -5.2480012 111.8043423   1.4142436  -4.8401747
  97.7130012  19.4544997  -5.9510012  96.9920012  19.8944997  -6.4020012
  97.3470012  19.2034997  -5.1020012  97.5649804  19.4807698  -5.8980160
 100.1800012  19.0544997  -6.9210012  99.3150012  19.1264997  -6.5170012
 100.1250012  19.6014997  -7.7050012 100.0542085  19.1382685  -6.9716638
 104.8900012  18.9424997  -7.7460012 104.4340012  19.4714997  -8.4000012
 105.0530012  19.5454997  -7.0200012 104.8495585  19.0964468  -7.7374938
 107.2180012  17.8204997  -6.8010012 106.3130012  17.9854997  -7.0660012
 107.6470012  18.6734997  -6.8660012 107.1520799  17.9584483  -6.8460818
 109.8220012  19.3904997  -6.5060012 109.6400012  20.3064997  -6.7160012
 109.9990012  18.9804997  -7.3520012 109.8210210  19.4604822  -6.6492115
  97.1270012  18.0774997  -9.0410012  97.1090012  17.6524997  -8.1830012
  97.9320012  17.7594997  -9.4490012  97.2333875  17.9763812  -8.9788345
  99.2690012  16.7874997 -10.3860012  99.0500012  15.8714997 -10.2160012
 100.0930012  16.9274997  -9.9200012  99.3504420  16.6810520 -10.2997226
 101.8060012  17.2574997  -9.5370012 102.0190012  16.3694997  -9.8240012
 101.8700012  17.2234997  -8.5830012 101.8438232  17.1313102  -9.4472603
 105.3140012   2.9214997 -10.3930012 104.6400012   2.2924997 -10.1370012
 105.8780012   2.4374997 -10.9960012 105.2979230   2.7698744 -10.4394660
 110.4570012   1.0294997 -10.2800012 111.0610012   1.5764997 -10.7820012
 109.5870012   1.3484997 -10.5200012 110.4221241   1.1475806 -10.3812346
 112.1840012   2.1674997 -11.9470012 112.7960012   1.6534997 -12.4730012
 112.5660012   3.0454997 -11.9230012 112.3194540   2.2157140 -12.0158170
  97.6410012   1.5554997 -12.5710012  96.8640012   1.3214997 -13.0780012
  98.1710012   0.7584997 -12.5620012  97.6062330   1.4156988 -12.6392258
  96.4770012   1.3534997 -16.7670012  96.9160012   1.9644997 -17.3590012
  95.8440012   1.8914997 -16.2930012  96.4514514   1.5099257 -16.7839070
 102.2200012   1.4824997 -12.7570012 103.0950012   1.8704997 -12.7870012
 102.0840012   1.2674997 -11.8350012 102.3213695   1.5065184 -12.6363560
 107.7770012   1.5124997 -11.1080012 107.8530012   1.6074997 -12.0580012
 107.5020012   0.6044997 -10.9790012 107.7502321   1.4027867 -11.2204921
 109.1300012   1.5384997 -15.4160012 108.4280012   2.1534997 -15.6250012
 108.6860012   0.7004997 -15.2850012 108.9736330   1.5095783 -15.4269672
  96.3780012  17.3014997 -15.8690012  95.6930012  17.2634997 -16.5370012
  96.3820012  18.2144997 -15.5810012  96.2848193  17.4197016 -15.9214716
  98.3380012   3.2694997 -18.3250012  98.8300012   2.6394997 -18.8520012
  98.9620012   3.5654997 -17.6610012  98.4895446   3.2233199 -18.3074020
 103.3640012   3.5624997 -15.8680012 103.5420012   2.9164997 -15.1850012
 103.3110012   4.3964997 -15.4000012 103.3811829   3.5867985 -15.7114060
 105.2430012  18.5114997 -17.4720012 106.1090012  18.8774997 -17.6500012
 104.9960012  18.0714997 -18.2860012 105.3282392  18.5021756 -17.6063711
 111.9520012  18.0744997 -14.7930012 111.7570012  17.3264997 -15.3580012
 111.9130012  18.8324997 -15.3760012 111.9200380  18.0746099 -14.9491616
  97.5990012   2.0694997  -3.0530012  97.2330012   1.3044997  -2.6100012
  98.5120012   2.0984997  -2.7660012  97.6722790   1.9687224  -2.9535930
  99.5720012   1.4204997  -1.5170012 100.4700012   1.1464997  -1.7020012
  99.1850012   0.6774997  -1.0530012  99.6426612   1.2825914  -1.4796357
  98.1960012  18.2214997 -18.8440012  97.9290012  18.5084997 -17.9710012
  98.9680012  17.6754997 -18.6920012  98.2637488  18.1870294 -18.7038950
 107.9930012   0.7524997  -1.3350012 108.0700012   0.3264997  -0.4810012
 108.8870012   0.7664997  -1.6780012 108.1243428   0.6960879  -1.2644690
 111.1690012  16.8254997  -2.6430012 110.3870012  16.6394997  -3.1620012
 111.0970012  17.7544997  -2.4250012 111.0521777  16.9256492  -2.6845952
 125.5750012  10.7114997 -12.6120012 125.6640012  11.6554997 -12.7440012
 124.9370012  10.4364997 -13.2700012 125.5009081  10.8034830 -12.7190386
 124.5080012   9.9664997  -9.1930012 124.4700012   9.3204997  -8.4880012
 124.1860012   9.5004997  -9.9640012 124.4592333   9.8149408  -9.2007022
 116.8770012   9.5814997  -7.6000012 116.9180012   8.9554997  -6.8770012
 117.5800012  10.2054997  -7.4180012 116.9776363   9.5801196  -7.4763956
 128.2140012  12.9054997 -10.8920012 127.7740012  12.1854997 -10.4410012
 128.2010012  13.6264997 -10.2620012 128.1520226  12.9043731 -10.7451506
 117.8000012  14.0314997  -9.0650012 117.4310012  13.2294997  -9.4350012
 118.7410012  13.8624997  -9.0190012 117.8767289  13.8990153  -9.1093684
 114.4100012   7.6914997 -13.6720012 113.9630012   8.5374997 -13.6910012
 113.8490012   7.1114997 -14.1880012 114.2729900   7.7289916 -13.7443199
 115.1210012   9.8534997 -11.5460012 115.3340012   9.0834997 -11.0190012
 115.8590012   9.9424997 -12.1500012 115.2498496   9.7601394 -11.5554700
 125.3260012  18.0104997 -10.6790012 125.9460012  17.3334997 -10.9530012
 125.1180012  17.7924997  -9.7710012 125.3826904  17.8883870 -10.5936635
 122.8980012  12.3994997  -8.7870012 123.2020012  11.7134997  -9.3820012
 123.6190012  12.5174997  -8.1690012 123.0370671  12.3216305  -8.7848184
 131.5610012   4.0004997  -7.9260012 131.6100012   4.6104997  -7.1900012
 131.9860012   4.4614997  -8.6490012 131.6251824   4.1463741  -7.9229795
 126.0390012   6.7934997  -8.4590012 126.1810012   5.8474997  -8.4390012
 125.9320012   7.0004997  -9.3880012 126.0439864   6.6919534  -8.5817661
 119.1930012   4.8944997 -11.1870012 119.2370012   5.7544997 -11.6050012
 118.7360012   4.3424997 -11.8210012 119.1372185   4.9375799 -11.3299701
 126.9160012   5.0254997 -12.7860012 127.5620012   4.6964997 -12.1610012
 127.4260012   5.5434997 -13.4090012 127.0734264   5.0504611 -12.7846138
 115.8140012   7.2914997 -10.4250012 116.4670012   6.7414997  -9.9930012
 115.8380012   7.0174997 -11.3420012 115.9066683   7.1791466 -10.4897877
 120.9700012   8.8414997 -11.2100012 121.5860012   8.3154997 -10.7000012
 120.3840012   8.2014997 -11.6130012 120.9750810   8.6829208 -11.1946827
 131.9520012   5.4784997  -5.6900012 131.2640012   6.1364997  -5.7860012
 131.9680012   5.2814997  -4.7540012 131.8598525   5.5420462  -5.5765192
 118.0040012   3.8124997  -7.1130012 117.7850012   4.3424997  -7.8790012
 117.3360012   4.0394997  -6.4660012 117.8837600   3.9156906  -7.1303621
 125.3730012  13.3124997 -13.5690012 125.0770012  12.9904997 -14.4200012
 125.0480012  14.2124997 -13.5280012 125.2886371  13.3900215 -13.6798199
 120.5730012  11.4884997  -6.8260012 119.8330012  12.0864997  -6.7220012
 121.2870012  12.0424997  -7.1410012 120.5682237  11.6452831  -6.8543535
 128.6800012   4.3164997 -10.8060012 128.4640012   3.5504997 -10.2730012
 129.3350012   4.7884997 -10.2930012 128.7390632   4.2755889 -10.6637139
 117.5970012   5.7044997  -9.1610012 118.2110012   6.3374997  -8.7870012
 118.1090012   5.2324997  -9.8170012 117.7502296   5.7272370  -9.1985748
 118.9800012  13.4524997  -6.0380012 118.9750012  14.3324997  -6.4160012
 118.1270012  13.3694997  -5.6130012 118.8639464  13.5616117  -6.0322093
 115.1010012  13.1234997 -15.2560012 114.8290012  13.3524997 -16.1450012
 115.1470012  13.9614997 -14.7960012 115.0700094  13.2681213 -15.3154303
 128.7260012  14.7454997  -8.5440012 127.7850012  14.8034997  -8.3820012
 129.0030012  15.6514997  -8.6810012 128.6344679  14.8759443  -8.5403185
 129.0270012   3.0314997  -7.1260012 128.2910012   3.6424997  -7.1640012
 129.7100012   3.4464997  -7.6530012 129.0186541   3.1711374  -7.2024168
 122.0300012   1.1184997  -9.6600012 121.9130012   0.1694997  -9.7150012
 121.1750012   1.4504997  -9.3870012 121.8983733   1.0335409  -9.6306103
 126.9780012  16.5264997 -11.9180012 127.4040012  15.8194997 -12.4030012
 127.2950012  17.3274997 -12.3350012 127.0791019  16.5380994 -12.0406870
 128.1380012  14.4274997 -13.4100012 127.8800012  13.7374997 -14.0210012
 128.2090012  13.9844997 -12.5640012 128.1122856  14.2732124 -13.3793115
 129.8240012  12.9934997  -4.9320012 129.9640012  12.4024997  -5.6720012
 129.9910012  13.8664997  -5.2890012 129.8656778  13.0306426  -5.0813035
 124.2970012   9.9554997 -15.1600012 123.5850012  10.4904997 -15.5120012
 124.9880012  10.0114997 -15.8200012 124.2930132  10.0362543 -15.2973711
 124.3500012   8.4134997 -18.1210012 125.0510012   8.4354997 -17.4700012
 124.6530012   7.7854997 -18.7770012 124.4867830   8.3316566 -18.1206289
 131.6660012   9.3334997  -6.8660012 131.0130012  10.0284997  -6.7770012
 132.1310012   9.5434997  -7.6760012 131.6395390   9.4569425  -6.9633117
 127.7020012  10.1654997 -14.2080012 126.9700012  10.3934997 -13.6350012
 128.1500012   9.4514997 -13.7530012 127.6623095  10.1002571 -14.0680881
 127.6000012   8.3394997  -5.1410012 127.6800012   9.1024997  -4.5690012
 126.9980012   8.6184997  -5.8310012 127.5295756   8.4817134  -5.1559411
 119.3480012  10.7954997 -12.3260012 119.0170012  10.4254997 -13.1440012
 119.9360012  10.1254997 -11.9790012 119.3821873  10.6541156 -12.3911898
 120.7140012  14.2234997  -9.6440012 120.6200012  13.6454997 -10.4010012
 121.4440012  13.8524997  -9.1480012 120.7997981  14.0942390  -9.6805835
 119.7140012   9.5644997  -8.6920012 120.2800012   9.6854997  -9.4550012
 120.0330012  10.2014997  -8.0530012 119.8345786   9.6671884  -8.7099960
 126.0230012  15.0674997  -7.9580012 125.7830012  15.7294997  -7.3100012
 125.8250012  14.2334997  -7.5330012 125.9633808  15.0453134  -7.8118476
 120.5940012  13.9634997  -3.9750012 120.2830012  14.7454997  -3.5200012
 119.9440012  13.8104997  -4.6610012 120.4635558  14.0499105  -4.0054129
 126.5730012   9.3274997 -16.5230012 127.1530012   9.4774997 -15.7760012
 126.9870012   9.7984997 -17.2460012 126.7082830   9.4116841 -16.5185866
 117.5140012  10.1614997  -4.7460012 117.5850012  10.8124997  -4.0480012
 116.6240012  10.2644997  -5.0810012 117.4033117  10.2645936  -4.6957300
 124.3000012  16.0644997 -13.0880012 124.7740012  16.3594997 -12.3100012
 123.7370012  16.8024997 -13.3210012 124.2887653  16.2046932 -13.0129864
 118.8340012  16.0354997  -3.2120012 118.8410012  15.8994997  -4.1590012
 117.9180012  15.9174997  -2.9600012 118.7111714  16.0009430  -3.3075334
 130.2720012   1.0774997 -16.7100012 129.3720012   1.2164997 -16.4150012
 130.5240012   1.9084997 -17.1120012 130.1828702   1.2089074 -16.7239795
 118.3380012   9.8654997 -14.7360012 118.0460012  10.6334997 -15.2270012
 117.6640012   9.2054997 -14.8990012 118.2069081   9.8814406 -14.8252660
 131.4610012  15.4434997 -18.3340012 131.5350012  16.3824997 -18.1630012
 132.3670012  15.1384997 -18.3900012 131.5935100  15.5306722 -18.3181881
 114.4310012  12.2284997  -5.9210012 113.9300012  12.2004997  -6.7360012
 114.4360012  11.3224997  -5.6120012 114.3631526  12.1022278  -5.9907128
 114.1810012  15.0084997  -9.0370012 115.1270012  14.8644997  -9.0560012
 114.0690012  15.7924997  -8.5000012 114.2952727  15.0948046  -8.9669928
 132.3790012  15.6744997  -3.3550012 132.3300012  14.7194997  -3.3920012
 131.5520012  15.9424997  -2.9540012 132.2604940  15.5798998  -3.3058625
 123.3580012  15.2484997  -4.4790012 123.4450012  16.0744997  -4.0040012
 122.4940012  14.9184997  -4.2300012 123.2531964  15.3169878  -4.3803451
 123.7720012  19.0204997 -14.6730012 123.6970012  18.8994997 -15.6190012
 123.8050012  19.9704997 -14.5540012 123.7661848  19.1322500 -14.7865166
 117.4250012  17.8094997 -12.8920012 117.5780012  17.4614997 -12.0130012
 116.5750012  17.4534997 -13.1470012 117.3308962  17.7136650 -12.8061660
 126.8740012  18.1744997 -17.6710012 127.2490012  17.4304997 -18.1410012
 126.8780012  17.9044997 -16.7520012 126.9258915  18.0361486 -17.6112176
 126.5430012  18.1004997 -14.9210012 125.6070012  18.2004997 -14.7430012
 126.8230012  17.3914997 -14.3430012 126.4528255  18.0182711 -14.8184609
 129.5310012   7.1674997  -2.8750012 129.1240012   7.6484997  -3.5960012
 129.5720012   6.2624997  -3.1830012 129.4808437   7.1109374  -3.0153317
 116.6800012  13.5514997  -4.8780012 116.8960012  13.1904997  -4.0190012
 115.8250012  13.1774997  -5.0880012 116.5939292  13.4514111  -4.7886614
 119.2990012   2.0214997  -8.8830012 118.4370012   1.9344997  -9.2900012
 119.2760012   2.8774997  -8.4550012 119.1780330   2.1252765  -8.8808137
 123.9620012   1.7434997  -5.5080012 124.3820012   1.3284997  -4.7550012
 123.0290012   1.5654997  -5.3910012 123.8933644   1.6625900  -5.3890461
 127.2880012   5.4994997  -4.6550012 126.7740012   5.3734997  -3.8570012
 127.1330012   6.4114997  -4.8990012 127.1966852   5.6056132  -4.5787842
 128.0510012  10.3604997 -18.8930012 128.0930012  10.1374997 -19.8230012
 128.9000012  10.7594997 -18.7030012 128.1715396  10.3839155 -18.9946373
 123.6230012   4.2364997 -18.2230012 123.3700012   4.2554997 -17.3000012
 123.3670012   3.3644997 -18.5240012 123.5537790   4.1212437 -18.1373737
 119.3900012   6.9874997  -7.7880012 118.7480012   6.9464997  -7.0790012
 119.4270012   7.9134997  -8.0250012 119.3071324   7.1071559  -7.7230176
 119.3870012   7.2084997 -12.8760012 118.4940012   6.8674997 -12.9340012
 119.8370012   6.8314997 -13.6310012 119.3257305   7.1108484 -12.9860823
 124.9220012   7.6244997 -14.0590012 124.5130012   8.4394997 -14.3500012
 125.6430012   7.4844997 -14.6730012 124.9634537   7.7172018 -14.1818658
 124.0240012   7.7994997  -2.5710012 123.4620012   7.0954997  -2.2500012
 124.8510012   7.6794997  -2.1030012 124.0587095   7.6867883  -2.4637670
 125.9270012   7.0704997 -11.2450012 125.7320012   7.6754997 -11.9600012
 126.1080012   6.2364997 -11.6790012 125.9247614   7.0406300 -11.4015595
 117.1400012   7.3074997  -5.9210012 117.1020012   7.7074997  -5.0520012
 116.6490012   6.4904997  -5.8300012 117.0684684   7.2518069  -5.7898941
 120.5060012   4.6814997 -19.1220012 120.0750012   4.2364997 -18.3920012
 119.7880012   5.0534997 -19.6340012 120.3499438   4.6708940 -19.0913201
 113.7480012   4.4234997 -12.0700012 114.3790012   4.3944997 -11.3510012
 114.1970012   3.9984997 -12.8000012 113.8950774   4.3620492 -12.0703447
 115.0220012   5.1694997 -16.6460012 115.4960012   5.7604997 -17.2310012
 114.3050012   5.7004997 -16.2990012 114.9899341   5.3220867 -16.6791164
 125.1910012   8.7084997  -6.5730012 125.5140012   8.0774997  -7.2160012
 124.7510012   8.1734997  -5.9130012 125.1756895   8.5498441  -6.5717150
 121.9680012   4.6354997 -11.7890012 121.0570012   4.6924997 -11.5010012
 122.4740012   4.5754997 -10.9790012 121.9115413   4.6351985 -11.6399378
 116.7970012   6.2644997 -12.9630012 115.9070012   6.3644997 -13.3030012
 117.0930012   5.4224997 -13.3090012 116.7152823   6.1643545 -13.0562787
 120.4500012   6.2644997 -15.3060012 121.3810012   6.3934997 -15.1280012
 120.2350012   6.9344997 -15.9560012 120.5484247   6.3726565 -15.3694253
 126.3730012   3.8704997  -8.5250012 125.6970012   4.0014997  -7.8610012
 125.8880012   3.7154997  -9.3350012 126.2147145   3.8674905  -8.5435483
 119.1240012   7.4594997 -17.7390012 118.5810012   7.0794997 -18.4310012
 119.9570012   7.6534997 -18.1680012 119.1624399   7.4338124 -17.8915474
 129.6610012  19.5424997  -2.2480012 129.8610012  19.9664997  -3.0830012
 130.3160012  19.8854997  -1.6410012 129.7770051  19.6469648  -2.2802164
 117.2590012  12.0164997  -2.6400012 117.9910012  12.2704997  -2.0790012
 116.4790012  12.2204997  -2.1250012 117.2538232  12.0789177  -2.4934240
 123.2880012   7.4234997  -9.9020012 123.8530012   6.8764997 -10.4490012
 123.1410012   6.9014997  -9.1140012 123.3452918   7.2782024  -9.8701546
 118.2900012   3.5594997 -13.4840012 117.9730012   2.6574997 -13.5190012
 119.0720012   3.5614997 -14.0370012 118.3522284   3.4361628 -13.5635217
 121.9150012   5.8114997  -7.4880012 121.0790012   6.2654997  -7.3780012
 122.4390012   6.0874997  -6.7360012 121.8714414   5.9109376  -7.3712864
 122.4590012  12.0244997 -15.8040012 121.7140012  11.5174997 -16.1260012
 122.3250012  12.0734997 -14.8570012 122.3388776  11.9616940 -15.7201353
 129.6090012  11.1574997  -7.0170012 130.2510012  11.6144997  -7.5610012
 128.7790012  11.2704997  -7.4800012 129.5845963  11.2352704  -7.1539823
 126.3570012   4.8384997 -17.6040012 125.4180012   4.9504997 -17.7560012
 126.6540012   5.6954997 -17.2980012 126.2687666   4.9696443 -17.5834232
 123.9780012  12.2084997  -4.5670012 123.6330012  11.8274997  -3.7600012
 123.7780012  13.1424997  -4.4950012 123.9038061  12.2825228  -4.4469039
 127.0750012   6.7054997 -15.9440012 127.9670012   6.5684997 -15.6250012
 127.1320012   7.4964997 -16.4800012 127.2046285   6.7936660 -15.9728310
 117.5840012  11.3194997 -10.0340012 118.3290012  11.3174997 -10.6350012
 117.6620012  10.4964997  -9.5520012 117.6965518  11.2079315 -10.0511071
 124.5850012  13.4834997 -16.7780012 124.2890012  14.3094997 -16.3970012
 123.8820012  12.8634997 -16.5820012 124.4494914  13.5128199 -16.6993557
 114.5920012   9.7804997  -4.7190012 114.8150012   9.3624997  -3.8870012
 113.9900012   9.1674997  -5.1420012 114.5411759   9.6404668  -4.6622978
 121.6080012   9.2974997  -2.5060012 121.3120012   9.1314997  -3.4010012
 122.5400012   9.0774997  -2.5170012 121.6934166   9.2450640  -2.6299464
 126.2290012  14.6704997  -4.6160012 125.3280012  14.8534997  -4.8840012
 126.2630012  14.9294997  -3.6950012 126.1103041  14.7305512  -4.5281803
 131.9600012   6.9154997 -16.2490012 131.4060012   6.5194997 -16.9210012
 132.0600012   7.8254997 -16.5270012 131.8977059   6.9843586 -16.3785599
 131.9230012  12.7154997  -3.4120012 131.0720012  12.9534997  -3.7790012
 132.5140012  12.6984997  -4.1650012 131.8862487  12.7458258  -3.5641107
 130.2550012  15.7014997 -15.7840012 129.8820012  14.8754997 -15.4750012
 130.5330012  15.5184997 -16.6810012 130.2415630  15.5637303 -15.8630374
 127.4160012  10.5094997  -8.7630012 126.4870012  10.2774997  -8.7900012
 127.8670012   9.7324997  -9.0930012 127.3499216  10.3727238  -8.8113083
 119.9590012  14.8374997 -12.6300012 120.4860012  15.6104997 -12.8300012
 119.0790012  15.0624997 -12.9310012 119.9121773  14.9738005 -12.6980990
 115.7140012   9.6994997 -18.0430012 116.3300012  10.3264997 -17.6630012
 114.8520012  10.0154997 -17.7710012 115.6817698   9.8279430 -17.9542817
 121.3860012  12.5004997 -13.0530012 121.1450012  13.4254997 -13.0120012
 120.6450012  12.0414997 -12.6570012 121.2528409  12.5651421 -12.9938623
 121.9010012  16.6494997  -6.7380012 122.2630012  17.5044997  -6.9720012
 122.4320012  16.3574997  -5.9980012 122.0224473  16.7271060  -6.6699145
 120.0690012  17.5224997 -13.5080012 119.1190012  17.6274997 -13.4570012
 120.4210012  18.3424997 -13.1630012 119.9864203  17.6478314 -13.4543350
 125.4450012  12.7484997  -7.0380012 125.0190012  12.5214997  -6.2110012
 126.0250012  12.0104997  -7.2200012 125.4651868  12.6175299  -6.9494170
 127.6480012  13.6774997 -17.9640012 128.0010012  13.2974997 -17.1590012
 126.6990012  13.5844997 -17.8770012 127.5680441  13.6129596 -17.8421441
 128.1030012  17.3004997  -4.5680012 127.5020012  16.7454997  -5.0640012
 128.3850012  17.9674997  -5.1940012 128.0588519  17.3146841  -4.7205048
 132.1510012  18.1574997 -17.7630012 132.8950012  18.7434997 -17.9030012
 131.4570012  18.7254997 -17.4290012 132.1590292  18.3145582 -17.7370039
 116.2260012   4.5334997  -5.1610012 115.3330012   4.8724997  -5.2290012
 116.1270012   3.6784997  -4.7430012 116.0904164   4.4642588  -5.1137765
 128.5140012  12.3504997 -15.7370012 128.2360012  11.6224997 -15.1810012
 129.4410012  12.4694997 -15.5320012 128.6013124  12.2668802 -15.6331155
 115.8770012  16.3384997  -6.7260012 116.0940012  15.4064997  -6.7570012
 116.1230012  16.6124997  -5.8430012 115.9399549  16.2480636  -6.6108237
 121.7390012  14.7894997 -19.5170012 121.9780012  14.0414997 -20.0640012
 121.4700012  14.4014997 -18.6840012 121.7353675  14.6346638 -19.4793135
 120.6760012  14.3594997 -17.0600012 120.8220012  13.8394997 -16.2700012
 120.6730012  15.2664997 -16.7540012 120.6955989  14.4108853 -16.9103912
 117.1290012  11.6124997 -16.5500012 116.4430012  11.9644997 -15.9830012
 117.6510012  12.3754997 -16.7970012 117.1056852  11.7638578 -16.5057882
 124.9600012   4.2744997  -6.2710012 125.6590012   4.3484997  -5.6210012
 124.5790012   3.4104997  -6.1170012 125.0041767   4.1677624  -6.1611678
 125.7450012   3.9264997 -15.1740012 125.9650012   4.3984997 -15.9770012
 126.3030012   4.3214997 -14.5040012 125.8504968   4.0444285 -15.1932669
 123.4130012  16.0574997 -16.3110012 122.5970012  16.5544997 -16.2590012
 123.9430012  16.5324997 -16.9510012 123.3729161  16.1897722 -16.3904044
 122.9450012   5.6544997 -14.3390012 123.7570012   6.1594997 -14.2930012
 122.7000012   5.5094997 -13.4250012 123.0230520   5.7040375 -14.2091483
 123.4800012   6.6404997  -5.1540012 123.5990012   7.2144997  -4.3970012
 124.1360012   5.9524997  -5.0400012 123.5849757   6.6261079  -5.0349175
 123.8280012   2.7354997 -13.4010012 123.4820012   3.3534997 -12.7560012
 124.4870012   3.2364997 -13.8820012 123.8697826   2.8875802 -13.3779029
 120.7520012  17.1014997 -16.3290012 120.9120012  17.9004997 -16.8300012
 120.5540012  17.4074997 -15.4440012 120.7471649  17.2524469 -16.2780185
 119.4860012   3.7984997 -16.7140012 119.4030012   4.6874997 -16.3670012
 120.3760012   3.5334997 -16.4820012 119.5949469   3.8841430 -16.6352374
 129.6850012   4.5474997  -4.3190012 128.7680012   4.8104997  -4.4070012
 130.0200012   4.5444997  -5.2160012 129.6049900   4.5830224  -4.4522081
 128.2870012   8.2984997 -10.2240012 127.4890012   7.8834997 -10.5520012
 128.7320012   7.6074997  -9.7330012 128.2379885   8.1483543 -10.2025111
 117.7450012  14.2264997 -17.6530012 118.3370012  14.9254997 -17.3770012
 118.2040012  13.7934997 -18.3730012 117.8881142  14.2637049 -17.7125170
 116.0610012   6.8904997 -18.5370012 116.0160012   7.8294997 -18.3590012
 115.1730012   6.6544997 -18.8070012 115.9348574   6.9871892 -18.5491088
 129.3730012  17.5544997  -8.6010012 129.2180012  18.2324997  -9.2580012
 130.3060012  17.6264997  -8.3980012 129.4778500  17.6570170  -8.6634881
 116.8690012   1.6724997  -9.8640012 116.6400012   1.7314997 -10.7920012
 116.4260012   0.8804997  -9.5580012 116.7778530   1.5735753  -9.9495214
 115.7990012  15.6124997 -13.7040012 114.9670012  16.0854997 -13.6760012
 116.3450012  16.1224997 -14.3020012 115.7589739  15.7461871 -13.7810284
 115.0870012  18.2254997  -2.3740012 115.6280012  18.0084997  -1.6140012
 114.6060012  17.4194997  -2.5630012 115.0959345  18.0869514  -2.2956924
 119.6850012  17.1444997  -0.7530012 120.4520012  16.6854997  -0.4120012
 119.6630012  16.9184997  -1.6830012 119.7871434  17.0510409  -0.8319957
 123.7770012  16.6524997 -19.3780012 123.1330012  16.0214997 -19.0570012
 124.5390012  16.1214997 -19.6100012 123.7918077  16.4942920 -19.3653989
 126.2620012  15.5244997  -2.0240012 125.9110012  14.6684997  -1.7810012
 126.9880012  15.6674997  -1.4170012 126.3120769  15.4265636  -1.9086381
 128.3810012  16.4694997 -19.1440012 128.6640012  15.6754997 -18.6920012
 129.1210012  16.7024997 -19.7050012 128.5197486  16.3922803 -19.1579302
 114.9940012  12.0354997  -1.4190012 115.1380012  11.1334997  -1.7060012
 114.2220012  12.3214997  -1.9070012 114.9093322  11.9508261  -1.5242119
 119.3360012  12.3794997 -19.2870012 119.4000012  11.5854997 -18.7560012
 119.9890012  12.2604997 -19.9770012 119.4330241  12.2547148 -19.3075683
 121.6500012  12.0054997  -1.9870012 121.3210012  12.2764997  -2.8440012
 121.8020012  11.0644997  -2.0740012 121.6254809  11.9153862  -2.1161756
 127.3840012  11.9214997  -4.6030012 128.1300012  12.5094997  -4.7230012
 126.6270012  12.5034997  -4.5400012 127.3837554  12.0807011  -4.6109093
 115.8270012   9.2354997  -1.9990012 116.2350012   8.3784997  -2.1200012
 115.5670012   9.2504997  -1.0780012 115.8477568   9.1200807  -1.8910412
 120.4850012  10.3514997 -16.9810012 120.0250012   9.8674997 -16.2950012
 120.7400012   9.6834997 -17.6170012 120.4564902  10.1948731 -16.9730666
 119.7740012   8.2444997  -4.6250012 119.1560012   8.9194997  -4.3450012
 120.1180012   8.5654997  -5.4580012 119.7359615   8.3802721  -4.6993419
 121.5560012   8.5944997 -18.7190012 121.3760012   8.4404997 -19.6460012
 122.5060012   8.7024997 -18.6740012 121.6597776   8.5880175 -18.8398157
 124.7940012  10.7164997  -1.3480012 125.7470012  10.7994997  -1.3750012
 124.6330012  10.0044997  -0.7280012 124.9026426  10.6316746  -1.2679421
 130.9460012  10.9494997 -19.2730012 130.6720012  10.5244997 -20.0860012
 130.9850012  11.8804997 -19.4900012 130.9137699  11.0172484 -19.4136390
 120.1130012   5.5994997  -3.5430012 120.2630012   4.8704997  -4.1450012
 120.1160012   6.3764997  -4.1020012 120.1339302   5.6047851  -3.7009308
 120.5260012   3.9694997  -6.0500012 121.0620012   4.4204997  -6.7020012
 119.6740012   3.8614997  -6.4730012 120.4842178   4.0166390  -6.1964244
 122.1080012   9.4084997  -5.8110012 122.8580012   9.2524997  -6.3840012
 121.7690012  10.2604997  -6.0860012 122.1648921   9.5022968  -5.9266439
 126.5230012   7.2234997  -0.7820012 126.7160012   6.2924997  -0.8940012
 127.3810012   7.6484997  -0.7920012 126.6653020   7.1536389  -0.7986639
 127.8400012  10.0124997  -2.7050012 127.5590012  10.7214997  -3.2820012
 128.7830012   9.9394997  -2.8560012 127.9289027  10.0997646  -2.8044449
 118.5920012   6.7974997  -1.6310012 117.8250012   6.2654997  -1.8410012
 119.2710012   6.4874997  -2.2310012 118.5787022   6.6827506  -1.7408352
 121.3320012   1.4254997  -5.6190012 121.2330012   2.3724997  -5.7240012
 120.5890012   1.0534997  -6.0940012 121.2180564   1.5045902  -5.6975440
 122.5960012   5.7474997  -2.0550012 122.3600012   5.5274997  -1.1530012
 121.8120012   5.5404997  -2.5650012 122.4578628   5.6894760  -2.0006068
 125.3110012   4.8744997  -2.9790012 124.3640012   4.9064997  -2.8470012
 125.6240012   4.2494997  -2.3260012 125.2235475   4.7943207  -2.8725545
 126.9450012   3.5084997  -0.9740012 126.8490012   2.5564997  -0.9800012
 126.6240012   3.7774997  -0.1140012 126.8884070   3.4144035  -0.8584559
 116.7720012   4.7184997  -1.9270012 116.9840012   4.0114997  -2.5370012
 116.6610012   4.2804997  -1.0830012 116.7859721   4.5627084  -1.8963157
 121.5530012   0.7194997  -2.9470012 122.2650012   0.0794997  -2.9610012
 121.4520012   0.9864997  -3.8610012 121.6367939   0.6679938  -3.0724350
 121.9070012   2.4024997  -0.8940012 121.7750012   1.9264997  -1.7140012
 121.3080012   3.1464997  -0.9490012 121.8079071   2.4379618  -1.0137114
 121.4530012  19.2854997 -17.7170012 122.3860012  19.4434997 -17.5740012
 121.1890012  19.9604997 -18.3420012 121.5449510  19.3983611 -17.7819259
 115.0220012  13.9214997 -18.2350012 115.9360012  14.0004997 -17.9610012
 115.0290012  13.2344997 -18.9010012 115.1481131  13.8393961 -18.2875607
 113.6710012  19.3144997 -13.1570012 113.0240012  18.8524997 -13.6900012
 114.0250012  18.6424997 -12.5750012 113.6303849  19.1604723 -13.1512041
 114.5410012  17.3954997 -11.3530012 114.2060012  16.5154997 -11.1810012
 114.7630012  17.7404997 -10.4880012 114.5251783  17.3217500 -11.2125792
 132.0890012  18.2044997  -8.3720012 132.0680012  18.3894997  -7.4330012
 132.7800012  18.7734997  -8.7130012 132.1794618  18.3066606  -8.2896136
 131.6530012  17.7724997  -5.4500012 131.1650012  17.0364997  -5.8210012
 132.2020012  17.3784997  -4.7720012 131.6604872  17.6186249  -5.4090840
 130.1030012  13.5614997  -0.8120012 129.2370012  13.4564997  -0.4180012
 130.4800012  14.3204997  -0.3660012 130.0353308  13.6496900  -0.6977607
 131.4040012  11.8184997 -15.2980012 132.2540012  12.2394997 -15.1710012
 131.4100012  11.0784997 -14.6910012 131.5211372  11.7760803 -15.1985656
 131.7990012   9.8714997 -13.4740012 131.0720012   9.3924997 -13.0770012
 132.3800012  10.0774997 -12.7420012 131.7779375   9.8337090 -13.3205871
 131.5580012  12.6564997  -8.5270012 132.3910012  12.2784997  -8.8070012
 131.6700012  13.5994997  -8.6460012 131.6872647  12.7322218  -8.5814513
 130.0440012  15.5344997  -6.2200012 129.3970012  15.8594997  -5.5940012
 129.5270012  15.0944997  -6.8940012 129.8854029  15.5195004  -6.2254173
 132.0670012   9.7724997 -17.0830012 131.5450012  10.1294997 -17.8020012
 132.0340012  10.4474997 -16.4050012 131.9911634   9.9125413 -17.0896855
 130.4160012   7.0124997 -18.5320012 130.5120012   7.6794997 -19.2130012
 130.2760012   6.1964997 -19.0140012 130.4102135   6.9934500 -18.6901509
 129.5850012   8.3924997 -12.9110012 129.4350012   7.4474997 -12.9320012
 129.2320012   8.6734997 -12.0680012 129.5166625   8.3010441 -12.7997654
 114.6210012  10.4704997  -8.9010012 114.8050012  10.3884997  -9.8370012
 115.4700012  10.3464997  -8.4770012 114.7610139  10.4425003  -8.9718545
 130.4420012  10.3624997  -3.2730012 131.0250012   9.6284997  -3.0810012
 131.0060012  11.1344997  -3.2260012 130.5979769  10.3664227  -3.2403841
 131.9380012   8.2654997  -2.5880012 131.0750012   7.8864997  -2.7540012
 132.5430012   7.5264997  -2.6620012 131.9015979   8.1138023  -2.6207183
 129.6630012   4.4204997 -19.4150012 130.2740012   4.0494997 -18.7780012
 128.8270012   3.9994997 -19.2190012 129.6335032   4.3127554 -19.3012965
 129.2960012   5.9754997 -14.4490012 129.5760012   5.0684997 -14.3250012
 130.0550012   6.4094997 -14.8380012 129.4369277   5.9100942 -14.4846318
 129.9080012   6.5564997  -9.0130012 130.8410012   6.7684997  -9.0470012
 129.6730012   6.6584997  -8.0910012 130.0038036   6.5992769  -8.8930024
 129.9370012   7.2934997  -6.2370012 129.0940012   7.5614997  -5.8710012
 130.3790012   8.1154997  -6.4480012 129.8814158   7.4413291  -6.2154509
 114.2180012   5.7414997  -2.7600012 115.1380012   5.6194997  -2.5240012
 113.7690012   4.9914997  -2.3710012 114.2831580   5.6233727  -2.6750994
 132.2200012   1.2734997  -0.8840012 132.5700012   0.6194997  -1.4890012
 132.3670012   2.1104997  -1.3230012 132.2878419   1.2971591  -1.0262882
 129.9090012   3.2384997 -14.4010012 130.0920012   2.7894997 -13.5750012
 129.3100012   2.6534997 -14.8640012 129.8530202   3.0979975 -14.3506725
 115.4390012   4.0534997  -9.8690012 115.8850012   3.2614997  -9.5670012
 115.9060012   4.7694997  -9.4380012 115.5630172   4.0420624  -9.7695180
 113.7430012   7.0524997  -8.8000012 114.2350012   6.8314997  -9.5910012
 114.1060012   7.8934997  -8.5190012 113.8593126   7.1358357  -8.8702469
 131.7400012   3.3824997  -2.5340012 130.8220012   3.6534997  -2.5700012
 131.8630012   2.8474997  -3.3190012 131.6311066   3.3472892  -2.6449513
 131.7760012   3.3054997 -17.8730012 132.1880012   2.5844997 -18.3480012
 132.4580012   3.9754997 -17.8140012 131.9245885   3.2972368 -17.9301085
 114.0570012   3.3104997 -14.7460012 113.1320012   3.5194997 -14.8750012
 114.5110012   3.7944997 -15.4350012 113.9917368   3.4045993 -14.8568774
 128.8280012  18.2944997 -12.8000012 129.4800012  17.9474997 -13.4080012
 129.3380012  18.7834997 -12.1540012 128.9862637  18.3130597 -12.7959764
 114.0210012   2.0484997  -6.4010012 113.3560012   1.8024997  -5.7580012
 113.5780012   2.6704997  -6.9790012 113.8700956   2.0988632  -6.3910648
 116.2130012  15.2234997  -2.2570012 115.3920012  15.3984997  -2.7170012
 115.9600012  15.1504997  -1.3360012 116.0666164  15.2375622  -2.1955077
 119.1670012  16.1984997  -5.9980012 118.7420012  17.0074997  -6.2810012
 120.0710012  16.2834997  -6.3000012 119.2310271  16.3208469  -6.0776224
 123.4780012  17.5974997  -3.0390012 123.6630012  17.2634997  -2.1610012
 124.3240012  17.9064997  -3.3610012 123.6177539  17.5936047  -2.9624395
 125.8230012  18.8834997  -3.7950012 126.5000012  18.2504997  -4.0350012
 126.1450012  19.2844997  -2.9880012 125.9591637  18.8511154  -3.7187207
 130.7400012   1.4724997  -4.7150012 129.9280012   1.7974997  -5.1030012
 130.9730012   0.7124997  -5.2480012 130.6603423   1.4142436  -4.8401747
 116.5690012  19.4544997  -5.9510012 115.8480012  19.8944997  -6.4020012
 116.2030012  19.2034997  -5.1020012 116.4209804  19.4807698  -5.8980160
 119.0360012  19.0544997  -6.9210012 118.1710012  19.1264997  -6.5170012
 118.9810012  19.6014997  -7.7050012 118.9102085  19.1382685  -6.9716638
 123.7460012  18.9424997  -7.7460012 123.2900012  19.4714997  -8.4000012
 123.9090012  19.5454997  -7.0200012 123.7055585  19.0964468  -7.7374938
 126.0740012  17.8204997  -6.8010012 125.1690012  17.9854997  -7.0660012
 126.5030012  18.6734997  -6.8660012 126.0080799  17.9584483  -6.8460818
 128.6780012  19.3904997  -6.5060012 128.4960012  20.3064997  -6.7160012
 128.8550012  18.9804997  -7.3520012 128.6770210  19.4604822  -6.6492115
 115.9830012  18.0774997  -9.0410012 115.9650012  17.6524997  -8.1830012
 116.7880012  17.7594997  -9.4490012 116.0893875  17.9763812  -8.9788345
 118.1250012  16.7874997 -10.3860012 117.9060012  15.8714997 -10.2160012
 118.9490012  16.9274997  -9.9200012 118.2064420  16.6810520 -10.2997226
 120.6620012  17.2574997  -9.5370012 120.8750012  16.3694997  -9.8240012
 120.7260012  17.2234997  -8.5830012 120.6998232  17.1313102  -9.4472603
 124.1700012   2.9214997 -10.3930012 123.4960012   2.2924997 -10.1370012
 124.7340012   2.4374997 -10.9960012 124.1539230   2.7698744 -10.4394660
 129.3130012   1.0294997 -10.2800012 129.9170012   1.5764997 -10.7820012
 128.4430012   1.3484997 -10.5200012 129.2781241   1.1475806 -10.3812346
 131.0400012   2.1674997 -11.9470012 131.6520012   1.6534997 -12.4730012
 131.4220012   3.0454997 -11.9230012 131.1754540   2.2157140 -12.0158170
 116.4970012   1.5554997 -12.5710012 115.7200012   1.3214997 -13.0780012
 117.0270012   0.7584997 -12.5620012 116.4622330   1.4156988 -12.6392258
 115.3330012   1.3534997 -16.7670012 115.7720012   1.9644997 -17.3590012
 114.7000012   1.8914997 -16.2930012 115.3074514   1.5099257 -16.7839070
 121.0760012   1.4824997 -12.7570012 121.9510012   1.8704997 -12.7870012
 120.9400012   1.2674997 -11.8350012 121.1773695   1.5065184 -12.6363560
 126.6330012   1.5124997 -11.1080012 126.7090012   1.6074997 -12.0580012
 126.3580012   0.6044997 -10.9790012 126.6062321   1.4027867 -11.2204921
 127.9860012   1.5384997 -15.4160012 127.2840012   2.1534997 -15.6250012
 127.5420012   0.7004997 -15.2850012 127.8296330   1.5095783 -15.4269672
 115.2340012  17.3014997 -15.8690012 114.5490012  17.2634997 -16.5370012
 115.2380012  18.2144997 -15.5810012 115.1408193  17.4197016 -15.9214716
 117.1940012   3.2694997 -18.3250012 117.6860012   2.6394997 -18.8520012
 117.8180012   3.5654997 -17.6610012 117.3455446   3.2233199 -18.3074020
 122.2200012   3.5624997 -15.8680012 122.3980012   2.9164997 -15.1850012
 122.1670012   4.3964997 -15.4000012 122.2371829   3.5867985 -15.7114060
 124.0990012  18.5114997 -17.4720012 124.9650012  18.8774997 -17.6500012
 123.8520012  18.0714997 -18.2860012 124.1842392  18.5021756 -17.6063711
 130.8080012  18.0744997 -14.7930012 130.6130012  17.3264997 -15.3580012
 130.7690012  18.8324997 -15.3760012 130.7760380  18.0746099 -14.9491616
 116.4550012   2.0694997  -3.0530012 116.0890012   1.3044997  -2.6100012
 117.3680012   2.0984997  -2.7660012 116.5282790   1.9687224  -2.9535930
 118.4280012   1.4204997  -1.5170012 119.3260012   1.1464997  -1.7020012
 118.0410012   0.6774997  -1.0530012 118.4986612   1.2825914  -1.4796357
 117.0520012  18.2214997 -18.8440012 116.7850012  18.5084997 -17.9710012
 117.8240012  17.6754997 -18.6920012 117.1197488  18.1870294 -18.7038950
 126.8490012   0.7524997  -1.3350012 126.9260012   0.3264997  -0.4810012
 127.7430012   0.7664997  -1.6780012 126.9803428   0.6960879  -1.2644690
 130.0250012  16.8254997  -2.6430012 129.2430012  16.6394997  -3.1620012
 129.9530012  17.7544997  -2.4250012 129.9081777  16.9256492  -2.6845952
 144.4310012  10.7114997 -12.6120012 144.5200012  11.6554997 -12.7440012
 143.7930012  10.4364997 -13.2700012 144.3569081  10.8034830 -12.7190386
 143.3640012   9.9664997  -9.1930012 143.3260012   9.3204997  -8.4880012
 143.0420012   9.5004997  -9.9640012 143.3152333   9.8149408  -9.2007022
 135.7330012   9.5814997  -7.6000012 135.7740012   8.9554997  -6.8770012
 136.4360012  10.2054997  -7.4180012 135.8336363   9.5801196  -7.4763956
 136.6560012  14.0314997  -9.0650012 136.2870012  13.2294997  -9.4350012
 137.5970012  13.8624997  -9.0190012 136.7327289  13.8990153  -9.1093684
 133.2660012   7.6914997 -13.6720012 132.8190012   8.5374997 -13.6910012
 132.7050012   7.1114997 -14.1880012 133.1289900   7.7289916 -13.7443199
 133.9770012   9.8534997 -11.5460012 134.1900012   9.0834997 -11.0190012
 134.7150012   9.9424997 -12.1500012 134.1058496   9.7601394 -11.5554700
 144.1820012  18.0104997 -10.6790012 144.8020012  17.3334997 -10.9530012
 143.9740012  17.7924997  -9.7710012 144.2386904  17.8883870 -10.5936635
 141.7540012  12.3994997  -8.7870012 142.0580012  11.7134997  -9.3820012
 142.4750012  12.5174997  -8.1690012 141.8930671  12.3216305  -8.7848184
 144.8950012   6.7934997  -8.4590012 145.0370012   5.8474997  -8.4390012
 144.7880012   7.0004997  -9.3880012 144.8999863   6.6919534  -8.5817661
 138.0490012   4.8944997 -11.1870012 138.0930012   5.7544997 -11.6050012
 137.5920012   4.3424997 -11.8210012 137.9932185   4.9375799 -11.3299701
 134.6700012   7.2914997 -10.4250012 135.3230012   6.7414997  -9.9930012
 134.6940012   7.0174997 -11.3420012 134.7626683   7.1791466 -10.4897877
 139.8260012   8.8414997 -11.2100012 140.4420012   8.3154997 -10.7000012
 139.2400012   8.2014997 -11.6130012 139.8310810   8.6829208 -11.1946827
 136.8600012   3.8124997  -7.1130012 136.6410012   4.3424997  -7.8790012
 136.1920012   4.0394997  -6.4660012 136.7397600   3.9156906  -7.1303621
 144.2290012  13.3124997 -13.5690012 143.9330012  12.9904997 -14.4200012
 143.9040012  14.2124997 -13.5280012 144.1446371  13.3900215 -13.6798199
 139.4290012  11.4884997  -6.8260012 138.6890012  12.0864997  -6.7220012
 140.1430012  12.0424997  -7.1410012 139.4242237  11.6452831  -6.8543535
 136.4530012   5.7044997  -9.1610012 137.0670012   6.3374997  -8.7870012
 136.9650012   5.2324997  -9.8170012 136.6062296   5.7272370  -9.1985748
 137.8360012  13.4524997  -6.0380012 137.8310012  14.3324997  -6.4160012
 136.9830012  13.3694997  -5.6130012 137.7199464  13.5616117  -6.0322093
 133.9570012  13.1234997 -15.2560012 133.6850012  13.3524997 -16.1450012
 134.0030012  13.9614997 -14.7960012 133.9260094  13.2681213 -15.3154303
 140.8860012   1.1184997  -9.6600012 140.7690012   0.1694997  -9.7150012
 140.0310012   1.4504997  -9.3870012 140.7543733   1.0335409  -9.6306103
 143.1530012   9.9554997 -15.1600012 142.4410012  10.4904997 -15.5120012
 143.8440012  10.0114997 -15.8200012 143.1490132  10.0362543 -15.2973711
 143.2060012   8.4134997 -18.1210012 143.9070012   8.4354997 -17.4700012
 143.5090012   7.7854997 -18.7770012 143.3427830   8.3316566 -18.1206289
 138.2040012  10.7954997 -12.3260012 137.8730012  10.4254997 -13.1440012
 138.7920012  10.1254997 -11.9790012 138.2381873  10.6541156 -12.3911898
 139.5700012  14.2234997  -9.6440012 139.4760012  13.6454997 -10.4010012
 140.3000012  13.8524997  -9.1480012 139.6557981  14.0942390  -9.6805835
 138.5700012   9.5644997  -8.6920012 139.1360012   9.6854997  -9.4550012
 138.8890012  10.2014997  -8.0530012 138.6905786   9.6671884  -8.7099960
 144.8790012  15.0674997  -7.9580012 144.6390012  15.7294997  -7.3100012
 144.6810012  14.2334997  -7.5330012 144.8193808  15.0453134  -7.8118476
 139.4500012  13.9634997  -3.9750012 139.1390012  14.7454997  -3.5200012
 138.8000012  13.8104997  -4.6610012 139.3195558  14.0499105  -4.0054129
 136.3700012  10.1614997  -4.7460012 136.4410012  10.8124997  -4.0480012
 135.4800012  10.2644997  -5.0810012 136.2593117  10.2645936  -4.6957300
 143.1560012  16.0644997 -13.0880012 143.6300012  16.3594997 -12.3100012
 142.5930012  16.8024997 -13.3210012 143.1447653  16.2046932 -13.0129864
 137.6900012  16.0354997  -3.2120012 137.6970012  15.8994997  -4.1590012
 136.7740012  15.9174997  -2.9600012 137.5671714  16.0009430  -3.3075334
 137.1940012   9.8654997 -14.7360012 136.9020012  10.6334997 -15.2270012
 136.5200012   9.2054997 -14.8990012 137.0629081   9.8814406 -14.8252660
 133.2870012  12.2284997  -5.9210012 132.7860012  12.2004997  -6.7360012
 133.2920012  11.3224997  -5.6120012 133.2191526  12.1022278  -5.9907128
 133.0370012  15.0084997  -9.0370012 133.9830012  14.8644997  -9.0560012
 132.9250012  15.7924997  -8.5000012 133.1512727  15.0948046  -8.9669928
 142.2140012  15.2484997  -4.4790012 142.3010012  16.0744997  -4.0040012
 141.3500012  14.9184997  -4.2300012 142.1091964  15.3169878  -4.3803451
 142.6280012  19.0204997 -14.6730012 142.5530012  18.8994997 -15.6190012
 142.6610012  19.9704997 -14.5540012 142.6221848  19.1322500 -14.7865166
 136.2810012  17.8094997 -12.8920012 136.4340012  17.4614997 -12.0130012
 135.4310012  17.4534997 -13.1470012 136.1868962  17.7136650 -12.8061660
 135.5360012  13.5514997  -4.8780012 135.7520012  13.1904997  -4.0190012
 134.6810012  13.1774997  -5.0880012 135.4499292  13.4514111  -4.7886614
 138.1550012   2.0214997  -8.8830012 137.2930012   1.9344997  -9.2900012
 138.1320012   2.8774997  -8.4550012 138.0340330   2.1252765  -8.8808137
 142.8180012   1.7434997  -5.5080012 143.2380012   1.3284997  -4.7550012
 141.8850012   1.5654997  -5.3910012 142.7493644   1.6625900  -5.3890461
 142.4790012   4.2364997 -18.2230012 142.2260012   4.2554997 -17.3000012
 142.2230012   3.3644997 -18.5240012 142.4097790   4.1212437 -18.1373737
 138.2460012   6.9874997  -7.7880012 137.6040012   6.9464997  -7.0790012
 138.2830012   7.9134997  -8.0250012 138.1631324   7.1071559  -7.7230176
 138.2430012   7.2084997 -12.8760012 137.3500012   6.8674997 -12.9340012
 138.6930012   6.8314997 -13.6310012 138.1817305   7.1108484 -12.9860823
 143.7780012   7.6244997 -14.0590012 143.3690012   8.4394997 -14.3500012
 144.4990012   7.4844997 -14.6730012 143.8194537   7.7172018 -14.1818658
 142.8800012   7.7994997  -2.5710012 142.3180012   7.0954997  -2.2500012
 143.7070012   7.6794997  -2.1030012 142.9147095   7.6867883  -2.4637670
 144.7830012   7.0704997 -11.2450012 144.5880012   7.6754997 -11.9600012
 144.9640012   6.2364997 -11.6790012 144.7807614   7.0406300 -11.4015595
 135.9960012   7.3074997  -5.9210012 135.9580012   7.7074997  -5.0520012
 135.5050012   6.4904997  -5.8300012 135.9244684   7.2518069  -5.7898941
 139.3620012   4.6814997 -19.1220012 138.9310012   4.2364997 -18.3920012
 138.6440012   5.0534997 -19.6340012 139.2059438   4.6708940 -19.0913201
 132.6040012   4.4234997 -12.0700012 133.2350012   4.3944997 -11.3510012
 133.0530012   3.9984997 -12.8000012 132.7510774   4.3620492 -12.0703447
 133.8780012   5.1694997 -16.6460012 134.3520012   5.7604997 -17.2310012
 133.1610012   5.7004997 -16.2990012 133.8459341   5.3220867 -16.6791164
 144.0470012   8.7084997  -6.5730012 144.3700012   8.0774997  -7.2160012
 143.6070012   8.1734997  -5.9130012 144.0316895   8.5498441  -6.5717150
 140.8240012   4.6354997 -11.7890012 139.9130012   4.6924997 -11.5010012
 141.3300012   4.5754997 -10.9790012 140.7675413   4.6351985 -11.6399378
 135.6530012   6.2644997 -12.9630012 134.7630012   6.3644997 -13.3030012
 135.9490012   5.4224997 -13.3090012 135.5712823   6.1643545 -13.0562787
 139.3060012   6.2644997 -15.3060012 140.2370012   6.3934997 -15.1280012
 139.0910012   6.9344997 -15.9560012 139.4044247   6.3726565 -15.3694253
 137.9800012   7.4594997 -17.7390012 137.4370012   7.0794997 -18.4310012
 138.8130012   7.6534997 -18.1680012 138.0184399   7.4338124 -17.8915474
 136.1150012  12.0164997  -2.6400012 136.8470012  12.2704997  -2.0790012
 135.3350012  12.2204997  -2.1250012 136.1098232  12.0789177  -2.4934240
 142.1440012   7.4234997  -9.9020012 142.7090012   6.8764997 -10.4490012
 141.9970012   6.9014997  -9.1140012 142.2012918   7.2782024  -9.8701546
 137.1460012   3.5594997 -13.4840012 136.8290012   2.6574997 -13.5190012
 137.9280012   3.5614997 -14.0370012 137.2082284   3.4361628 -13.5635217
 140.7710012   5.8114997  -7.4880012 139.9350012   6.2654997  -7.3780012
 141.2950012   6.0874997  -6.7360012 140.7274414   5.9109376  -7.3712864
 141.3150012  12.0244997 -15.8040012 140.5700012  11.5174997 -16.1260012
 141.1810012  12.0734997 -14.8570012 141.1948776  11.9616940 -15.7201353
 142.8340012  12.2084997  -4.5670012 142.4890012  11.8274997  -3.7600012
 142.6340012  13.1424997  -4.4950012 142.7598061  12.2825228  -4.4469039
 136.4400012  11.3194997 -10.0340012 137.1850012  11.3174997 -10.6350012
 136.5180012  10.4964997  -9.5520012 136.5525518  11.2079315 -10.0511071
 143.4410012  13.4834997 -16.7780012 143.1450012  14.3094997 -16.3970012
 142.7380012  12.8634997 -16.5820012 143.3054914  13.5128199 -16.6993557
 133.4480012   9.7804997  -4.7190012 133.6710012   9.3624997  -3.8870012
 132.8460012   9.1674997  -5.1420012 133.3971759   9.6404668  -4.6622978
 140.4640012   9.2974997  -2.5060012 140.1680012   9.1314997  -3.4010012
 141.3960012   9.0774997  -2.5170012 140.5494166   9.2450640  -2.6299464
 138.8150012  14.8374997 -12.6300012 139.3420012  15.6104997 -12.8300012
 137.9350012  15.0624997 -12.9310012 138.7681773  14.9738005 -12.6980990
 134.5700012   9.6994997 -18.0430012 135.1860012  10.3264997 -17.6630012
 133.7080012  10.0154997 -17.7710012 134.5377698   9.8279430 -17.9542817
 140.2420012  12.5004997 -13.0530012 140.0010012  13.4254997 -13.0120012
 139.5010012  12.0414997 -12.6570012 140.1088409  12.5651421 -12.9938623
 140.7570012  16.6494997  -6.7380012 141.1190012  17.5044997  -6.9720012
 141.2880012  16.3574997  -5.9980012 140.8784473  16.7271060  -6.6699145
 138.9250012  17.5224997 -13.5080012 137.9750012  17.6274997 -13.4570012
 139.2770012  18.3424997 -13.1630012 138.8424203  17.6478314 -13.4543350
 144.3010012  12.7484997  -7.0380012 143.8750012  12.5214997  -6.2110012
 144.8810012  12.0104997  -7.2200012 144.3211868  12.6175299  -6.9494170
 135.0820012   4.5334997  -5.1610012 134.1890012   4.8724997  -5.2290012
 134.9830012   3.6784997  -4.7430012 134.9464164   4.4642588  -5.1137765
 134.7330012  16.3384997  -6.7260012 134.9500012  15.4064997  -6.7570012
 134.9790012  16.6124997  -5.8430012 134.7959549  16.2480636  -6.6108237
 140.5950012  14.7894997 -19.5170012 140.8340012  14.0414997 -20.0640012
 140.3260012  14.4014997 -18.6840012 140.5913675  14.6346638 -19.4793135
 139.5320012  14.3594997 -17.0600012 139.6780012  13.8394997 -16.2700012
 139.5290012  15.2664997 -16.7540012 139.5515989  14.4108853 -16.9103912
 135.9850012  11.6124997 -16.5500012 135.2990012  11.9644997 -15.9830012
 136.5070012  12.3754997 -16.7970012 135.9616852  11.7638578 -16.5057882
 143.8160012   4.2744997  -6.2710012 144.5150012   4.3484997  -5.6210012
 143.4350012   3.4104997  -6.1170012 143.8601767   4.1677624  -6.1611678
 144.6010012   3.9264997 -15.1740012 144.8210012   4.3984997 -15.9770012
 145.1590012   4.3214997 -14.5040012 144.7064968   4.0444285 -15.1932669
 142.2690012  16.0574997 -16.3110012 141.4530012  16.5544997 -16.2590012
 142.7990012  16.5324997 -16.9510012 142.2289161  16.1897722 -16.3904044
 141.8010012   5.6544997 -14.3390012 142.6130012   6.1594997 -14.2930012
 141.5560012   5.5094997 -13.4250012 141.8790520   5.7040375 -14.2091483
 142.3360012   6.6404997  -5.1540012 142.4550012   7.2144997  -4.3970012
 142.9920012   5.9524997  -5.0400012 142.4409757   6.6261079  -5.0349175
 142.6840012   2.7354997 -13.4010012 142.3380012   3.3534997 -12.7560012
 143.3430012   3.2364997 -13.8820012 142.7257826   2.8875802 -13.3779029
 139.6080012  17.1014997 -16.3290012 139.7680012  17.9004997 -16.8300012
 139.4100012  17.4074997 -15.4440012 139.6031649  17.2524469 -16.2780185
 138.3420012   3.7984997 -16.7140012 138.2590012   4.6874997 -16.3670012
 139.2320012   3.5334997 -16.4820012 138.4509469   3.8841430 -16.6352374
 136.6010012  14.2264997 -17.6530012 137.1930012  14.9254997 -17.3770012
 137.0600012  13.7934997 -18.3730012 136.7441142  14.2637049 -17.7125170
 134.9170012   6.8904997 -18.5370012 134.8720012   7.8294997 -18.3590012
 134.0290012   6.6544997 -18.8070012 134.7908574   6.9871892 -18.5491088
 135.7250012   1.6724997  -9.8640012 135.4960012   1.7314997 -10.7920012
 135.2820012   0.8804997  -9.5580012 135.6338530   1.5735753  -9.9495214
 134.6550012  15.6124997 -13.7040012 133.8230012  16.0854997 -13.6760012
 135.2010012  16.1224997 -14.3020012 134.6149739  15.7461871 -13.7810284
 133.9430012  18.2254997  -2.3740012 134.4840012  18.0084997  -1.6140012
 133.4620012  17.4194997  -2.5630012 133.9519345  18.0869514  -2.2956924
 138.5410012  17.1444997  -0.7530012 139.3080012  16.6854997  -0.4120012
 138.5190012  16.9184997  -1.6830012 138.6431434  17.0510409  -0.8319957
 142.6330012  16.6524997 -19.3780012 141.9890012  16.0214997 -19.0570012
 143.3950012  16.1214997 -19.6100012 142.6478077  16.4942920 -19.3653989
 133.8500012  12.0354997  -1.4190012 133.9940012  11.1334997  -1.7060012
 133.0780012  12.3214997  -1.9070012 133.7653322  11.9508261  -1.5242119
 138.1920012  12.3794997 -19.2870012 138.2560012  11.5854997 -18.7560012
 138.8450012  12.2604997 -19.9770012 138.2890241  12.2547148 -19.3075683
 140.5060012  12.0054997  -1.9870012 140.1770012  12.2764997  -2.8440012
 140.6580012  11.0644997  -2.0740012 140.4814809  11.9153862  -2.1161756
 134.6830012   9.2354997  -1.9990012 135.0910012   8.3784997  -2.1200012
 134.4230012   9.2504997  -1.0780012 134.7037568   9.1200807  -1.8910412
 139.3410012  10.3514997 -16.9810012 138.8810012   9.8674997 -16.2950012
 139.5960012   9.6834997 -17.6170012 139.3124902  10.1948731 -16.9730666
 138.6300012   8.2444997  -4.6250012 138.0120012   8.9194997  -4.3450012
 138.9740012   8.5654997  -5.4580012 138.5919615   8.3802721  -4.6993419
 140.4120012   8.5944997 -18.7190012 140.2320012   8.4404997 -19.6460012
 141.3620012   8.7024997 -18.6740012 140.5157776   8.5880175 -18.8398157
 143.6500012  10.7164997  -1.3480012 144.6030012  10.7994997  -1.3750012
 143.4890012  10.0044997  -0.7280012 143.7586426  10.6316746  -1.2679421
 138.9690012   5.5994997  -3.5430012 139.1190012   4.8704997  -4.1450012
 138.9720012   6.3764997  -4.1020012 138.9899302   5.6047851  -3.7009308
 139.3820012   3.9694997  -6.0500012 139.9180012   4.4204997  -6.7020012
 138.5300012   3.8614997  -6.4730012 139.3402178   4.0166390  -6.1964244
 140.9640012   9.4084997  -5.8110012 141.7140012   9.2524997  -6.3840012
 140.6250012  10.2604997  -6.0860012 141.0208921   9.5022968  -5.9266439
 137.4480012   6.7974997  -1.6310012 136.6810012   6.2654997  -1.8410012
 138.1270012   6.4874997  -2.2310012 137.4347022   6.6827506  -1.7408352
 140.1880012   1.4254997  -5.6190012 140.0890012   2.3724997  -5.7240012
 139.4450012   1.0534997  -6.0940012 140.0740564   1.5045902  -5.6975440
 141.4520012   5.7474997  -2.0550012 141.2160012   5.5274997  -1.1530012
 140.6680012   5.5404997  -2.5650012 141.3138628   5.6894760  -2.0006068
 144.1670012   4.8744997  -2.9790012 143.2200012   4.9064997  -2.8470012
 144.4800012   4.2494997  -2.3260012 144.0795475   4.7943207  -2.8725545
 135.6280012   4.7184997  -1.9270012 135.8400012   4.0114997  -2.5370012
 135.5170012   4.2804997  -1.0830012 135.6419721   4.5627084  -1.8963157
 140.4090012   0.7194997  -2.9470012 141.1210012   0.0794997  -2.9610012
 140.3080012   0.9864997  -3.8610012 140.4927939   0.6679938  -3.0724350
 140.7630012   2.4024997  -0.8940012 140.6310012   1.9264997  -1.7140012
 140.1640012   3.1464997  -0.9490012 140.6639071   2.4379618  -1.0137114
 140.3090012  19.2854997 -17.7170012 141.2420012  19.4434997 -17.5740012
 140.0450012  19.9604997 -18.3420012 140.4009510  19.3983611 -17.7819259
 133.8780012  13.9214997 -18.2350012 134.7920012  14.0004997 -17.9610012
 133.8850012  13.2344997 -18.9010012 134.0041131  13.8393961 -18.2875607
 132.5270012  19.3144997 -13.1570012 131.8800012  18.8524997 -13.6900012
 132.8810012  18.6424997 -12.5750012 132.4863849  19.1604723 -13.1512041
 133.3970012  17.3954997 -11.3530012 133.0620012  16.5154997 -11.1810012
 133.6190012  17.7404997 -10.4880012 133.3811783  17.3217500 -11.2125792
 133.4770012  10.4704997  -8.9010012 133.6610012  10.3884997  -9.8370012
 134.3260012  10.3464997  -8.4770012 133.6170139  10.4425003  -8.9718545
 133.0740012   5.7414997  -2.7600012 133.9940012   5.6194997  -2.5240012
 132.6250012   4.9914997  -2.3710012 133.1391580   5.6233727  -2.6750994
 134.2950012   4.0534997  -9.8690012 134.7410012   3.2614997  -9.5670012
 134.7620012   4.7694997  -9.4380012 134.4190172   4.0420624  -9.7695180
 132.5990012   7.0524997  -8.8000012 133.0910012   6.8314997  -9.5910012
 132.9620012   7.8934997  -8.5190012 132.7153126   7.1358357  -8.8702469
 132.9130012   3.3104997 -14.7460012 131.9880012   3.5194997 -14.8750012
 133.3670012   3.7944997 -15.4350012 132.8477368   3.4045993 -14.8568774
 132.8770012   2.0484997  -6.4010012 132.2120012   1.8024997  -5.7580012
 132.4340012   2.6704997  -6.9790012 132.7260956   2.0988632  -6.3910648
 135.0690012  15.2234997  -2.2570012 134.2480012  15.3984997  -2.7170012
 134.8160012  15.1504997  -1.3360012 134.9226164  15.2375622  -2.1955077
 138.0230012  16.1984997  -5.9980012 137.5980012  17.0074997  -6.2810012
 138.9270012  16.2834997  -6.3000012 138.0870271  16.3208469  -6.0776224
 142.3340012  17.5974997  -3.0390012 142.5190012  17.2634997  -2.1610012
 143.1800012  17.9064997  -3.3610012 142.4737539  17.5936047  -2.9624395
 144.6790012  18.8834997  -3.7950012 145.3560012  18.2504997  -4.0350012
 145.0010012  19.2844997  -2.9880012 144.8151637  18.8511154  -3.7187207
 135.4250012  19.4544997  -5.9510012 134.7040012  19.8944997  -6.4020012
 135.0590012  19.2034997  -5.1020012 135.2769804  19.4807698  -5.8980160
 137.8920012  19.0544997  -6.9210012 137.0270012  19.1264997  -6.5170012
 137.8370012  19.6014997  -7.7050012 137.7662085  19.1382685  -6.9716638
 142.6020012  18.9424997  -7.7460012 142.1460012  19.4714997  -8.4000012
 142.7650012  19.5454997  -7.0200012 142.5615585  19.0964468  -7.7374938
 134.8390012  18.0774997  -9.0410012 134.8210012  17.6524997  -8.1830012
 135.6440012  17.7594997  -9.4490012 134.9453875  17.9763812  -8.9788345
 136.9810012  16.7874997 -10.3860012 136.7620012  15.8714997 -10.2160012
 137.8050012  16.9274997  -9.9200012 137.0624420  16.6810520 -10.2997226
 139.5180012  17.2574997  -9.5370012 139.7310012  16.3694997  -9.8240012
 139.5820012  17.2234997  -8.5830012 139.5558231  17.1313102  -9.4472603
 143.0260012   2.9214997 -10.3930012 142.3520012   2.2924997 -10.1370012
 143.5900012   2.4374997 -10.9960012 143.0099230   2.7698744 -10.4394660
 135.3530012   1.5554997 -12.5710012 134.5760012   1.3214997 -13.0780012
 135.8830012   0.7584997 -12.5620012 135.3182330   1.4156988 -12.6392258
 134.1890012   1.3534997 -16.7670012 134.6280012   1.9644997 -17.3590012
 133.5560012   1.8914997 -16.2930012 134.1634514   1.5099257 -16.7839070
 139.9320012   1.4824997 -12.7570012 140.8070012   1.8704997 -12.7870012
 139.7960012   1.2674997 -11.8350012 140.0333695   1.5065184 -12.6363560
 134.0900012  17.3014997 -15.8690012 133.4050012  17.2634997 -16.5370012
 134.0940012  18.2144997 -15.5810012 133.9968193  17.4197016 -15.9214716
 136.0500012   3.2694997 -18.3250012 136.5420012   2.6394997 -18.8520012
 136.6740012   3.5654997 -17.6610012 136.2015446   3.2233199 -18.3074020
 141.0760012   3.5624997 -15.8680012 141.2540012   2.9164997 -15.1850012
 141.0230012   4.3964997 -15.4000012 141.0931829   3.5867985 -15.7114060
 142.9550012  18.5114997 -17.4720012 143.8210012  18.8774997 -17.6500012
 142.7080012  18.0714997 -18.2860012 143.0402392  18.5021756 -17.6063711
 135.3110012   2.0694997  -3.0530012 134.9450012   1.3044997  -2.6100012
 136.2240012   2.0984997  -2.7660012 135.3842790   1.9687224  -2.9535930
 137.2840012   1.4204997  -1.5170012 138.1820012   1.1464997  -1.7020012
 136.8970012   0.6774997  -1.0530012 137.3546612   1.2825914  -1.4796357
 135.9080012  18.2214997 -18.8440012 135.6410012  18.5084997 -17.9710012
 136.6800012  17.6754997 -18.6920012 135.9757488  18.1870294 -18.7038950
  12.4390012  29.5674997 -12.6120012  12.5280012  30.5114997 -12.7440012
  11.8010012  29.2924997 -13.2700012  12.3649081  29.6594830 -12.7190386
  11.3720012  28.8224997  -9.1930012  11.3340012  28.1764997  -8.4880012
  11.0500012  28.3564997  -9.9640012  11.3232333  28.6709408  -9.2007022
   3.7410012  28.4374997  -7.6000012   3.7820012  27.8114997  -6.8770012
   4.4440012  29.0614997  -7.4180012   3.8416363  28.4361196  -7.4763956
  15.0780012  31.7614997 -10.8920012  14.6380012  31.0414997 -10.4410012
  15.0650012  32.4824997 -10.2620012  15.0160226  31.7603731 -10.7451506
   4.6640012  32.8874997  -9.0650012   4.2950012  32.0854997  -9.4350012
   5.6050012  32.7184997  -9.0190012   4.7407289  32.7550153  -9.1093684
   1.2740012  26.5474997 -13.6720012   0.8270012  27.3934997 -13.6910012
   0.7130012  25.9674997 -14.1880012   1.1369900  26.5849916 -13.7443199
   1.9850012  28.7094997 -11.5460012   2.1980012  27.9394997 -11.0190012
   2.7230012  28.7984997 -12.1500012   2.1138496  28.6161394 -11.5554700
  12.1900012  36.8664997 -10.6790012  12.8100012  36.1894997 -10.9530012
  11.9820012  36.6484997  -9.7710012  12.2466904  36.7443870 -10.5936635
   9.7620012  31.2554997  -8.7870012  10.0660012  30.5694997  -9.3820012
  10.4830012  31.3734997  -8.1690012   9.9010671  31.1776305  -8.7848184
  18.4250012  22.8564997  -7.9260012  18.4740012  23.4664997  -7.1900012
  18.8500012  23.3174997  -8.6490012  18.4891824  23.0023741  -7.9229795
  12.9030012  25.6494997  -8.4590012  13.0450012  24.7034997  -8.4390012
  12.7960012  25.8564997  -9.3880012  12.9079864  25.5479534  -8.5817661
   6.0570012  23.7504997 -11.1870012   6.1010012  24.6104997 -11.6050012
   5.6000012  23.1984997 -11.8210012   6.0012185  23.7935799 -11.3299701
  13.7800012  23.8814997 -12.7860012  14.4260012  23.5524997 -12.1610012
  14.2900012  24.3994997 -13.4090012  13.9374264  23.9064611 -12.7846138
   2.6780012  26.1474997 -10.4250012   3.3310012  25.5974997  -9.9930012
   2.7020012  25.8734997 -11.3420012   2.7706683  26.0351466 -10.4897877
   7.8340012  27.6974997 -11.2100012   8.4500012  27.1714997 -10.7000012
   7.2480012  27.0574997 -11.6130012   7.8390810  27.5389208 -11.1946827
  18.8160012  24.3344997  -5.6900012  18.1280012  24.9924997  -5.7860012
  18.8320012  24.1374997  -4.7540012  18.7238525  24.3980462  -5.5765192
   4.8680012  22.6684997  -7.1130012   4.6490012  23.1984997  -7.8790012
   4.2000012  22.8954997  -6.4660012   4.7477600  22.7716906  -7.1303621
  12.2370012  32.1684997 -13.5690012  11.9410012  31.8464997 -14.4200012
  11.9120012  33.0684997 -13.5280012  12.1526371  32.2460215 -13.6798199
   7.4370012  30.3444997  -6.8260012   6.6970012  30.9424997  -6.7220012
   8.1510012  30.8984997  -7.1410012   7.4322237  30.5012831  -6.8543535
  15.5440012  23.1724997 -10.8060012  15.3280012  22.4064997 -10.2730012
  16.1990012  23.6444997 -10.2930012  15.6030632  23.1315889 -10.6637139
   4.4610012  24.5604997  -9.1610012   5.0750012  25.1934997  -8.7870012
   4.9730012  24.0884997  -9.8170012   4.6142296  24.5832370  -9.1985748
   5.8440012  32.3084997  -6.0380012   5.8390012  33.1884997  -6.4160012
   4.9910012  32.2254997  -5.6130012   5.7279464  32.4176117  -6.0322093
   1.9650012  31.9794997 -15.2560012   1.6930012  32.2084997 -16.1450012
   2.0110012  32.8174997 -14.7960012   1.9340094  32.1241213 -15.3154303
  15.5900012  33.6014997  -8.5440012  14.6490012  33.6594997  -8.3820012
  15.8670012  34.5074997  -8.6810012  15.4984679  33.7319443  -8.5403185
  15.8910012  21.8874997  -7.1260012  15.1550012  22.4984997  -7.1640012
  16.5740012  22.3024997  -7.6530012  15.8826541  22.0271374  -7.2024168
   8.8940012  19.9744997  -9.6600012   8.7770012  19.0254997  -9.7150012
   8.0390012  20.3064997  -9.3870012   8.7623733  19.8895409  -9.6306103
  13.8420012  35.3824997 -11.9180012  14.2680012  34.6754997 -12.4030012
  14.1590012  36.1834997 -12.3350012  13.9431019  35.3940994 -12.0406870
  15.0020012  33.2834997 -13.4100012  14.7440012  32.5934997 -14.0210012
  15.0730012  32.8404997 -12.5640012  14.9762856  33.1292124 -13.3793115
  16.6880012  31.8494997  -4.9320012  16.8280012  31.2584997  -5.6720012
  16.8550012  32.7224997  -5.2890012  16.7296778  31.8866426  -5.0813035
  11.1610012  28.8114997 -15.1600012  10.4490012  29.3464997 -15.5120012
  11.8520012  28.8674997 -15.8200012  11.1570132  28.8922543 -15.2973711
  11.2140012  27.2694997 -18.1210012  11.9150012  27.2914997 -17.4700012
  11.5170012  26.6414997 -18.7770012  11.3507830  27.1876566 -18.1206289
  18.5300012  28.1894997  -6.8660012  17.8770012  28.8844997  -6.7770012
  18.9950012  28.3994997  -7.6760012  18.5035390  28.3129425  -6.9633117
  14.5660012  29.0214997 -14.2080012  13.8340012  29.2494997 -13.6350012
  15.0140012  28.3074997 -13.7530012  14.5263095  28.9562571 -14.0680881
  14.4640012  27.1954997  -5.1410012  14.5440012  27.9584997  -4.5690012
  13.8620012  27.4744997  -5.8310012  14.3935756  27.3377134  -5.1559411
   6.2120012  29.6514997 -12.3260012   5.8810012  29.2814997 -13.1440012
   6.8000012  28.9814997 -11.9790012   6.2461873  29.5101156 -12.3911898
   7.5780012  33.0794997  -9.6440012   7.4840012  32.5014997 -10.4010012
   8.3080012  32.7084997  -9.1480012   7.6637981  32.9502390  -9.6805835
   6.5780012  28.4204997  -8.6920012   7.1440012  28.5414997  -9.4550012
   6.8970012  29.0574997  -8.0530012   6.6985786  28.5231884  -8.7099960
  12.8870012  33.9234997  -7.9580012  12.6470012  34.5854997  -7.3100012
  12.6890012  33.0894997  -7.5330012  12.8273808  33.9013134  -7.8118476
   7.4580012  32.8194997  -3.9750012   7.1470012  33.6014997  -3.5200012
   6.8080012  32.6664997  -4.6610012   7.3275558  32.9059105  -4.0054129
  13.4370012  28.1834997 -16.5230012  14.0170012  28.3334997 -15.7760012
  13.8510012  28.6544997 -17.2460012  13.5722830  28.2676841 -16.5185866
   4.3780012  29.0174997  -4.7460012   4.4490012  29.6684997  -4.0480012
   3.4880012  29.1204997  -5.0810012   4.2673117  29.1205936  -4.6957300
  11.1640012  34.9204997 -13.0880012  11.6380012  35.2154997 -12.3100012
  10.6010012  35.6584997 -13.3210012  11.1527653  35.0606932 -13.0129864
   5.6980012  34.8914997  -3.2120012   5.7050012  34.7554997  -4.1590012
   4.7820012  34.7734997  -2.9600012   5.5751714  34.8569430  -3.3075334
  17.1360012  19.9334997 -16.7100012  16.2360012  20.0724997 -16.4150012
  17.3880012  20.7644997 -17.1120012  17.0468702  20.0649074 -16.7239795
   5.2020012  28.7214997 -14.7360012   4.9100012  29.4894997 -15.2270012
   4.5280012  28.0614997 -14.8990012   5.0709081  28.7374406 -14.8252660
  18.3250012  34.2994997 -18.3340012  18.3990012  35.2384997 -18.1630012
  19.2310012  33.9944997 -18.3900012  18.4575100  34.3866722 -18.3181881
   1.2950012  31.0844997  -5.9210012   0.7940012  31.0564997  -6.7360012
   1.3000012  30.1784997  -5.6120012   1.2271526  30.9582278  -5.9907128
   1.0450012  33.8644997  -9.0370012   1.9910012  33.7204997  -9.0560012
   0.9330012  34.6484997  -8.5000012   1.1592727  33.9508046  -8.9669928
  19.2430012  34.5304997  -3.3550012  19.1940012  33.5754997  -3.3920012
  18.4160012  34.7984997  -2.9540012  19.1244940  34.4358998  -3.3058625
  10.2220012  34.1044997  -4.4790012  10.3090012  34.9304997  -4.0040012
   9.3580012  33.7744997  -4.2300012  10.1171964  34.1729878  -4.3803451
  10.6360012  37.8764997 -14.6730012  10.5610012  37.7554997 -15.6190012
  10.6690012  38.8264997 -14.5540012  10.6301848  37.9882500 -14.7865166
   4.2890012  36.6654997 -12.8920012   4.4420012  36.3174997 -12.0130012
   3.4390012  36.3094997 -13.1470012   4.1948962  36.5696650 -12.8061660
  13.7380012  37.0304997 -17.6710012  14.1130012  36.2864997 -18.1410012
  13.7420012  36.7604997 -16.7520012  13.7898915  36.8921486 -17.6112176
  13.4070012  36.9564997 -14.9210012  12.4710012  37.0564997 -14.7430012
  13.6870012  36.2474997 -14.3430012  13.3168255  36.8742711 -14.8184609
  16.3950012  26.0234997  -2.8750012  15.9880012  26.5044997  -3.5960012
  16.4360012  25.1184997  -3.1830012  16.3448437  25.9669374  -3.0153317
   3.5440012  32.4074997  -4.8780012   3.7600012  32.0464997  -4.0190012
   2.6890012  32.0334997  -5.0880012   3.4579292  32.3074111  -4.7886614
   6.1630012  20.8774997  -8.8830012   5.3010012  20.7904997  -9.2900012
   6.1400012  21.7334997  -8.4550012   6.0420330  20.9812765  -8.8808137
  10.8260012  20.5994997  -5.5080012  11.2460012  20.1844997  -4.7550012
   9.8930012  20.4214997  -5.3910012  10.7573644  20.5185900  -5.3890461
  14.1520012  24.3554997  -4.6550012  13.6380012  24.2294997  -3.8570012
  13.9970012  25.2674997  -4.8990012  14.0606852  24.4616132  -4.5787842
  14.9150012  29.2164997 -18.8930012  14.9570012  28.9934997 -19.8230012
  15.7640012  29.6154997 -18.7030012  15.0355396  29.2399155 -18.9946373
  10.4870012  23.0924997 -18.2230012  10.2340012  23.1114997 -17.3000012
  10.2310012  22.2204997 -18.5240012  10.4177790  22.9772437 -18.1373737
   6.2540012  25.8434997  -7.7880012   5.6120012  25.8024997  -7.0790012
   6.2910012  26.7694997  -8.0250012   6.1711324  25.9631559  -7.7230176
   6.2510012  26.0644997 -12.8760012   5.3580012  25.7234997 -12.9340012
   6.7010012  25.6874997 -13.6310012   6.1897305  25.9668484 -12.9860823
  11.7860012  26.4804997 -14.0590012  11.3770012  27.2954997 -14.3500012
  12.5070012  26.3404997 -14.6730012  11.8274537  26.5732018 -14.1818658
  10.8880012  26.6554997  -2.5710012  10.3260012  25.9514997  -2.2500012
  11.7150012  26.5354997  -2.1030012  10.9227095  26.5427883  -2.4637670
  12.7910012  25.9264997 -11.2450012  12.5960012  26.5314997 -11.9600012
  12.9720012  25.0924997 -11.6790012  12.7887614  25.8966300 -11.4015595
   4.0040012  26.1634997  -5.9210012   3.9660012  26.5634997  -5.0520012
   3.5130012  25.3464997  -5.8300012   3.9324684  26.1078069  -5.7898941
   7.3700012  23.5374997 -19.1220012   6.9390012  23.0924997 -18.3920012
   6.6520012  23.9094997 -19.6340012   7.2139438  23.5268940 -19.0913201
   0.6120012  23.2794997 -12.0700012   1.2430012  23.2504997 -11.3510012
   1.0610012  22.8544997 -12.8000012   0.7590774  23.2180492 -12.0703447
   1.8860012  24.0254997 -16.6460012   2.3600012  24.6164997 -17.2310012
   1.1690012  24.5564997 -16.2990012   1.8539341  24.1780867 -16.6791164
  12.0550012  27.5644997  -6.5730012  12.3780012  26.9334997  -7.2160012
  11.6150012  27.0294997  -5.9130012  12.0396895  27.4058441  -6.5717150
   8.8320012  23.4914997 -11.7890012   7.9210012  23.5484997 -11.5010012
   9.3380012  23.4314997 -10.9790012   8.7755413  23.4911985 -11.6399378
   3.6610012  25.1204997 -12.9630012   2.7710012  25.2204997 -13.3030012
   3.9570012  24.2784997 -13.3090012   3.5792823  25.0203545 -13.0562787
   7.3140012  25.1204997 -15.3060012   8.2450012  25.2494997 -15.1280012
   7.0990012  25.7904997 -15.9560012   7.4124247  25.2286565 -15.3694253
  13.2370012  22.7264997  -8.5250012  12.5610012  22.8574997  -7.8610012
  12.7520012  22.5714997  -9.3350012  13.0787145  22.7234905  -8.5435483
   5.9880012  26.3154997 -17.7390012   5.4450012  25.9354997 -18.4310012
   6.8210012  26.5094997 -18.1680012   6.0264399  26.2898124 -17.8915474
  16.5250012  38.3984997  -2.2480012  16.7250012  38.8224997  -3.0830012
  17.1800012  38.7414997  -1.6410012  16.6410051  38.5029648  -2.2802164
   4.1230012  30.8724997  -2.6400012   4.8550012  31.1264997  -2.0790012
   3.3430012  31.0764997  -2.1250012   4.1178232  30.9349177  -2.4934240
  10.1520012  26.2794997  -9.9020012  10.7170012  25.7324997 -10.4490012
  10.0050012  25.7574997  -9.1140012  10.2092918  26.1342024  -9.8701546
   5.1540012  22.4154997 -13.4840012   4.8370012  21.5134997 -13.5190012
   5.9360012  22.4174997 -14.0370012   5.2162284  22.2921628 -13.5635217
   8.7790012  24.6674997  -7.4880012   7.9430012  25.1214997  -7.3780012
   9.3030012  24.9434997  -6.7360012   8.7354414  24.7669376  -7.3712864
   9.3230012  30.8804997 -15.8040012   8.5780012  30.3734997 -16.1260012
   9.1890012  30.9294997 -14.8570012   9.2028776  30.8176940 -15.7201353
  16.4730012  30.0134997  -7.0170012  17.1150012  30.4704997  -7.5610012
  15.6430012  30.1264997  -7.4800012  16.4485963  30.0912704  -7.1539823
  13.2210012  23.6944997 -17.6040012  12.2820012  23.8064997 -17.7560012
  13.5180012  24.5514997 -17.2980012  13.1327666  23.8256443 -17.5834232
  10.8420012  31.0644997  -4.5670012  10.4970012  30.6834997  -3.7600012
  10.6420012  31.9984997  -4.4950012  10.7678061  31.1385228  -4.4469039
  13.9390012  25.5614997 -15.9440012  14.8310012  25.4244997 -15.6250012
  13.9960012  26.3524997 -16.4800012  14.0686285  25.6496660 -15.9728310
   4.4480012  30.1754997 -10.0340012   5.1930012  30.1734997 -10.6350012
   4.5260012  29.3524997  -9.5520012   4.5605518  30.0639315 -10.0511071
  11.4490012  32.3394997 -16.7780012  11.1530012  33.1654997 -16.3970012
  10.7460012  31.7194997 -16.5820012  11.3134914  32.3688199 -16.6993557
   1.4560012  28.6364997  -4.7190012   1.6790012  28.2184997  -3.8870012
   0.8540012  28.0234997  -5.1420012   1.4051759  28.4964668  -4.6622978
   8.4720012  28.1534997  -2.5060012   8.1760012  27.9874997  -3.4010012
   9.4040012  27.9334997  -2.5170012   8.5574166  28.1010640  -2.6299464
  13.0930012  33.5264997  -4.6160012  12.1920012  33.7094997  -4.8840012
  13.1270012  33.7854997  -3.6950012  12.9743041  33.5865512  -4.5281803
  18.8240012  25.7714997 -16.2490012  18.2700012  25.3754997 -16.9210012
  18.9240012  26.6814997 -16.5270012  18.7617059  25.8403586 -16.3785599
  18.7870012  31.5714997  -3.4120012  17.9360012  31.8094997  -3.7790012
  19.3780012  31.5544997  -4.1650012  18.7502487  31.6018258  -3.5641107
  17.1190012  34.5574997 -15.7840012  16.7460012  33.7314997 -15.4750012
  17.3970012  34.3744997 -16.6810012  17.1055630  34.4197303 -15.8630374
  14.2800012  29.3654997  -8.7630012  13.3510012  29.1334997  -8.7900012
  14.7310012  28.5884997  -9.0930012  14.2139216  29.2287238  -8.8113083
   6.8230012  33.6934997 -12.6300012   7.3500012  34.4664997 -12.8300012
   5.9430012  33.9184997 -12.9310012   6.7761773  33.8298005 -12.6980990
   2.5780012  28.5554997 -18.0430012   3.1940012  29.1824997 -17.6630012
   1.7160012  28.8714997 -17.7710012   2.5457698  28.6839430 -17.9542817
   8.2500012  31.3564997 -13.0530012   8.0090012  32.2814997 -13.0120012
   7.5090012  30.8974997 -12.6570012   8.1168409  31.4211421 -12.9938623
   8.7650012  35.5054997  -6.7380012   9.1270012  36.3604997  -6.9720012
   9.2960012  35.2134997  -5.9980012   8.8864473  35.5831060  -6.6699145
   6.9330012  36.3784997 -13.5080012   5.9830012  36.4834997 -13.4570012
   7.2850012  37.1984997 -13.1630012   6.8504203  36.5038314 -13.4543350
  12.3090012  31.6044997  -7.0380012  11.8830012  31.3774997  -6.2110012
  12.8890012  30.8664997  -7.2200012  12.3291868  31.4735299  -6.9494170
  14.5120012  32.5334997 -17.9640012  14.8650012  32.1534997 -17.1590012
  13.5630012  32.4404997 -17.8770012  14.4320441  32.4689596 -17.8421441
  14.9670012  36.1564997  -4.5680012  14.3660012  35.6014997  -5.0640012
  15.2490012  36.8234997  -5.1940012  14.9228519  36.1706841  -4.7205048
  19.0150012  37.0134997 -17.7630012  19.7590012  37.5994997 -17.9030012
  18.3210012  37.5814997 -17.4290012  19.0230292  37.1705582 -17.7370039
   3.0900012  23.3894997  -5.1610012   2.1970012  23.7284997  -5.2290012
   2.9910012  22.5344997  -4.7430012   2.9544164  23.3202588  -5.1137765
  15.3780012  31.2064997 -15.7370012  15.1000012  30.4784997 -15.1810012
  16.3050012  31.3254997 -15.5320012  15.4653124  31.1228802 -15.6331155
   2.7410012  35.1944997  -6.7260012   2.9580012  34.2624997  -6.7570012
   2.9870012  35.4684997  -5.8430012   2.8039549  35.1040636  -6.6108237
   8.6030012  33.6454997 -19.5170012   8.8420012  32.8974997 -20.0640012
   8.3340012  33.2574997 -18.6840012   8.5993675  33.4906638 -19.4793135
   7.5400012  33.2154997 -17.0600012   7.6860012  32.6954997 -16.2700012
   7.5370012  34.1224997 -16.7540012   7.5595989  33.2668853 -16.9103912
   3.9930012  30.4684997 -16.5500012   3.3070012  30.8204997 -15.9830012
   4.5150012  31.2314997 -16.7970012   3.9696852  30.6198578 -16.5057882
  11.8240012  23.1304997  -6.2710012  12.5230012  23.2044997  -5.6210012
  11.4430012  22.2664997  -6.1170012  11.8681767  23.0237624  -6.1611678
  12.6090012  22.7824997 -15.1740012  12.8290012  23.2544997 -15.9770012
  13.1670012  23.1774997 -14.5040012  12.7144968  22.9004285 -15.1932669
  10.2770012  34.9134997 -16.3110012   9.4610012  35.4104997 -16.2590012
  10.8070012  35.3884997 -16.9510012  10.2369161  35.0457722 -16.3904044
   9.8090012  24.5104997 -14.3390012  10.6210012  25.0154997 -14.2930012
   9.5640012  24.3654997 -13.4250012   9.8870520  24.5600375 -14.2091483
  10.3440012  25.4964997  -5.1540012  10.4630012  26.0704997  -4.3970012
  11.0000012  24.8084997  -5.0400012  10.4489757  25.4821079  -5.0349175
  10.6920012  21.5914997 -13.4010012  10.3460012  22.2094997 -12.7560012
  11.3510012  22.0924997 -13.8820012  10.7337826  21.7435802 -13.3779029
   7.6160012  35.9574997 -16.3290012   7.7760012  36.7564997 -16.8300012
   7.4180012  36.2634997 -15.4440012   7.6111649  36.1084469 -16.2780185
   6.3500012  22.6544997 -16.7140012   6.2670012  23.5434997 -16.3670012
   7.2400012  22.3894997 -16.4820012   6.4589469  22.7401430 -16.6352374
  16.5490012  23.4034997  -4.3190012  15.6320012  23.6664997  -4.4070012
  16.8840012  23.4004997  -5.2160012  16.4689900  23.4390224  -4.4522081
  15.1510012  27.1544997 -10.2240012  14.3530012  26.7394997 -10.5520012
  15.5960012  26.4634997  -9.7330012  15.1019885  27.0043543 -10.2025111
   4.6090012  33.0824997 -17.6530012   5.2010012  33.7814997 -17.3770012
   5.0680012  32.6494997 -18.3730012   4.7521142  33.1197049 -17.7125170
   2.9250012  25.7464997 -18.5370012   2.8800012  26.6854997 -18.3590012
   2.0370012  25.5104997 -18.8070012   2.7988574  25.8431892 -18.5491088
  16.2370012  36.4104997  -8.6010012  16.0820012  37.0884997  -9.2580012
  17.1700012  36.4824997  -8.3980012  16.3418500  36.5130170  -8.6634881
   3.7330012  20.5284997  -9.8640012   3.5040012  20.5874997 -10.7920012
   3.2900012  19.7364997  -9.5580012   3.6418530  20.4295753  -9.9495214
   2.6630012  34.4684997 -13.7040012   1.8310012  34.9414997 -13.6760012
   3.2090012  34.9784997 -14.3020012   2.6229739  34.6021871 -13.7810284
   1.9510012  37.0814997  -2.3740012   2.4920012  36.8644997  -1.6140012
   1.4700012  36.2754997  -2.5630012   1.9599345  36.9429514  -2.2956924
   6.5490012  36.0004997  -0.7530012   7.3160012  35.5414997  -0.4120012
   6.5270012  35.7744997  -1.6830012   6.6511434  35.9070409  -0.8319957
  10.6410012  35.5084997 -19.3780012   9.9970012  34.8774997 -19.0570012
  11.4030012  34.9774997 -19.6100012  10.6558077  35.3502920 -19.3653989
  13.1260012  34.3804997  -2.0240012  12.7750012  33.5244997  -1.7810012
  13.8520012  34.5234997  -1.4170012  13.1760769  34.2825636  -1.9086381
  15.2450012  35.3254997 -19.1440012  15.5280012  34.5314997 -18.6920012
  15.9850012  35.5584997 -19.7050012  15.3837486  35.2482803 -19.1579302
   1.8580012  30.8914997  -1.4190012   2.0020012  29.9894997  -1.7060012
   1.0860012  31.1774997  -1.9070012   1.7733323  30.8068261  -1.5242119
   6.2000012  31.2354997 -19.2870012   6.2640012  30.4414997 -18.7560012
   6.8530012  31.1164997 -19.9770012   6.2970241  31.1107148 -19.3075683
   8.5140012  30.8614997  -1.9870012   8.1850012  31.1324997  -2.8440012
   8.6660012  29.9204997  -2.0740012   8.4894809  30.7713862  -2.1161756
  14.2480012  30.7774997  -4.6030012  14.9940012  31.3654997  -4.7230012
  13.4910012  31.3594997  -4.5400012  14.2477554  30.9367011  -4.6109093
   2.6910012  28.0914997  -1.9990012   3.0990012  27.2344997  -2.1200012
   2.4310012  28.1064997  -1.0780012   2.7117568  27.9760807  -1.8910412
   7.3490012  29.2074997 -16.9810012   6.8890012  28.7234997 -16.2950012
   7.6040012  28.5394997 -17.6170012   7.3204902  29.0508731 -16.9730666
   6.6380012  27.1004997  -4.6250012   6.0200012  27.7754997  -4.3450012
   6.9820012  27.4214997  -5.4580012   6.5999615  27.2362721  -4.6993419
   8.4200012  27.4504997 -18.7190012   8.2400012  27.2964997 -19.6460012
   9.3700012  27.5584997 -18.6740012   8.5237776  27.4440175 -18.8398157
  11.6580012  29.5724997  -1.3480012  12.6110012  29.6554997  -1.3750012
  11.4970012  28.8604997  -0.7280012  11.7666426  29.4876746  -1.2679421
  17.8100012  29.8054997 -19.2730012  17.5360012  29.3804997 -20.0860012
  17.8490012  30.7364997 -19.4900012  17.7777699  29.8732484 -19.4136390
   6.9770012  24.4554997  -3.5430012   7.1270012  23.7264997  -4.1450012
   6.9800012  25.2324997  -4.1020012   6.9979302  24.4607851  -3.7009308
   7.3900012  22.8254997  -6.0500012   7.9260012  23.2764997  -6.7020012
   6.5380012  22.7174997  -6.4730012   7.3482178  22.8726390  -6.1964244
   8.9720012  28.2644997  -5.8110012   9.7220012  28.1084997  -6.3840012
   8.6330012  29.1164997  -6.0860012   9.0288921  28.3582968  -5.9266439
  13.3870012  26.0794997  -0.7820012  13.5800012  25.1484997  -0.8940012
  14.2450012  26.5044997  -0.7920012  13.5293020  26.0096389  -0.7986639
  14.7040012  28.8684997  -2.7050012  14.4230012  29.5774997  -3.2820012
  15.6470012  28.7954997  -2.8560012  14.7929027  28.9557646  -2.8044449
   5.4560012  25.6534997  -1.6310012   4.6890012  25.1214997  -1.8410012
   6.1350012  25.3434997  -2.2310012   5.4427022  25.5387506  -1.7408352
   8.1960012  20.2814997  -5.6190012   8.0970012  21.2284997  -5.7240012
   7.4530012  19.9094997  -6.0940012   8.0820564  20.3605902  -5.6975440
   9.4600012  24.6034997  -2.0550012   9.2240012  24.3834997  -1.1530012
   8.6760012  24.3964997  -2.5650012   9.3218628  24.5454760  -2.0006068
  12.1750012  23.7304997  -2.9790012  11.2280012  23.7624997  -2.8470012
  12.4880012  23.1054997  -2.3260012  12.0875475  23.6503207  -2.8725545
  13.8090012  22.3644997  -0.9740012  13.7130012  21.4124997  -0.9800012
  13.4880012  22.6334997  -0.1140012  13.7524070  22.2704035  -0.8584559
   3.6360012  23.5744997  -1.9270012   3.8480012  22.8674997  -2.5370012
   3.5250012  23.1364997  -1.0830012   3.6499721  23.4187084  -1.8963157
   8.4170012  19.5754997  -2.9470012   9.1290012  18.9354997  -2.9610012
   8.3160012  19.8424997  -3.8610012   8.5007939  19.5239938  -3.0724350
   8.7710012  21.2584997  -0.8940012   8.6390012  20.7824997  -1.7140012
   8.1720012  22.0024997  -0.9490012   8.6719071  21.2939618  -1.0137114
   8.3170012  38.1414997 -17.7170012   9.2500012  38.2994997 -17.5740012
   8.0530012  38.8164997 -18.3420012   8.4089510  38.2543611 -17.7819259
   1.8860012  32.7774997 -18.2350012   2.8000012  32.8564997 -17.9610012
   1.8930012  32.0904997 -18.9010012   2.0121131  32.6953961 -18.2875607
   0.5350012  38.1704997 -13.1570012  -0.1119988  37.7084997 -13.6900012
   0.8890012  37.4984997 -12.5750012   0.4943849  38.0164723 -13.1512041
   1.4050012  36.2514997 -11.3530012   1.0700012  35.3714997 -11.1810012
   1.6270012  36.5964997 -10.4880012   1.3891783  36.1777500 -11.2125792
  18.9530012  37.0604997  -8.3720012  18.9320012  37.2454997  -7.4330012
  19.6440012  37.6294997  -8.7130012  19.0434618  37.1626606  -8.2896136
  18.5170012  36.6284997  -5.4500012  18.0290012  35.8924997  -5.8210012
  19.0660012  36.2344997  -4.7720012  18.5244872  36.4746249  -5.4090840
  16.9670012  32.4174997  -0.8120012  16.1010012  32.3124997  -0.4180012
  17.3440012  33.1764997  -0.3660012  16.8993308  32.5056900  -0.6977607
  18.2680012  30.6744997 -15.2980012  19.1180012  31.0954997 -15.1710012
  18.2740012  29.9344997 -14.6910012  18.3851372  30.6320803 -15.1985656
  18.6630012  28.7274997 -13.4740012  17.9360012  28.2484997 -13.0770012
  19.2440012  28.9334997 -12.7420012  18.6419375  28.6897090 -13.3205871
  18.4220012  31.5124997  -8.5270012  19.2550012  31.1344997  -8.8070012
  18.5340012  32.4554997  -8.6460012  18.5512647  31.5882218  -8.5814513
  16.9080012  34.3904997  -6.2200012  16.2610012  34.7154997  -5.5940012
  16.3910012  33.9504997  -6.8940012  16.7494029  34.3755004  -6.2254173
  18.9310012  28.6284997 -17.0830012  18.4090012  28.9854997 -17.8020012
  18.8980012  29.3034997 -16.4050012  18.8551634  28.7685413 -17.0896855
  17.2800012  25.8684997 -18.5320012  17.3760012  26.5354997 -19.2130012
  17.1400012  25.0524997 -19.0140012  17.2742135  25.8494500 -18.6901509
  16.4490012  27.2484997 -12.9110012  16.2990012  26.3034997 -12.9320012
  16.0960012  27.5294997 -12.0680012  16.3806625  27.1570441 -12.7997654
   1.4850012  29.3264997  -8.9010012   1.6690012  29.2444997  -9.8370012
   2.3340012  29.2024997  -8.4770012   1.6250139  29.2985003  -8.9718545
  17.3060012  29.2184997  -3.2730012  17.8890012  28.4844997  -3.0810012
  17.8700012  29.9904997  -3.2260012  17.4619769  29.2224227  -3.2403841
  18.8020012  27.1214997  -2.5880012  17.9390012  26.7424997  -2.7540012
  19.4070012  26.3824997  -2.6620012  18.7655979  26.9698023  -2.6207183
  16.5270012  23.2764997 -19.4150012  17.1380012  22.9054997 -18.7780012
  15.6910012  22.8554997 -19.2190012  16.4975032  23.1687554 -19.3012965
  16.1600012  24.8314997 -14.4490012  16.4400012  23.9244997 -14.3250012
  16.9190012  25.2654997 -14.8380012  16.3009277  24.7660942 -14.4846318
  16.7720012  25.4124997  -9.0130012  17.7050012  25.6244997  -9.0470012
  16.5370012  25.5144997  -8.0910012  16.8678036  25.4552769  -8.8930024
  16.8010012  26.1494997  -6.2370012  15.9580012  26.4174997  -5.8710012
  17.2430012  26.9714997  -6.4480012  16.7454158  26.2973291  -6.2154509
   1.0820012  24.5974997  -2.7600012   2.0020012  24.4754997  -2.5240012
   0.6330012  23.8474997  -2.3710012   1.1471580  24.4793727  -2.6750994
  19.0840012  20.1294997  -0.8840012  19.4340012  19.4754997  -1.4890012
  19.2310012  20.9664997  -1.3230012  19.1518419  20.1531591  -1.0262882
  16.7730012  22.0944997 -14.4010012  16.9560012  21.6454997 -13.5750012
  16.1740012  21.5094997 -14.8640012  16.7170202  21.9539975 -14.3506725
   2.3030012  22.9094997  -9.8690012   2.7490012  22.1174997  -9.5670012
   2.7700012  23.6254997  -9.4380012   2.4270172  22.8980624  -9.7695180
   0.6070012  25.9084997  -8.8000012   1.0990012  25.6874997  -9.5910012
   0.9700012  26.7494997  -8.5190012   0.7233126  25.9918357  -8.8702469
  18.6040012  22.2384997  -2.5340012  17.6860012  22.5094997  -2.5700012
  18.7270012  21.7034997  -3.3190012  18.4951066  22.2032892  -2.6449513
  18.6400012  22.1614997 -17.8730012  19.0520012  21.4404997 -18.3480012
  19.3220012  22.8314997 -17.8140012  18.7885885  22.1532368 -17.9301085
   0.9210012  22.1664997 -14.7460012  -0.0039988  22.3754997 -14.8750012
   1.3750012  22.6504997 -15.4350012   0.8557368  22.2605993 -14.8568774
  15.6920012  37.1504997 -12.8000012  16.3440012  36.8034997 -13.4080012
  16.2020012  37.6394997 -12.1540012  15.8502637  37.1690597 -12.7959764
   0.8850012  20.9044997  -6.4010012   0.2200012  20.6584997  -5.7580012
   0.4420012  21.5264997  -6.9790012   0.7340956  20.9548632  -6.3910648
   3.0770012  34.0794997  -2.2570012   2.2560012  34.2544997  -2.7170012
   2.8240012  34.0064997  -1.3360012   2.9306164  34.0935622  -2.1955077
   6.0310012  35.0544997  -5.9980012   5.6060012  35.8634997  -6.2810012
   6.9350012  35.1394997  -6.3000012   6.0950271  35.1768469  -6.0776224
  10.3420012  36.4534997  -3.0390012  10.5270012  36.1194997  -2.1610012
  11.1880012  36.7624997  -3.3610012  10.4817539  36.4496047  -2.9624395
  12.6870012  37.7394997  -3.7950012  13.3640012  37.1064997  -4.0350012
  13.0090012  38.1404997  -2.9880012  12.8231637  37.7071154  -3.7187207
  17.6040012  20.3284997  -4.7150012  16.7920012  20.6534997  -5.1030012
  17.8370012  19.5684997  -5.2480012  17.5243423  20.2702436  -4.8401747
   3.4330012  38.3104997  -5.9510012   2.7120012  38.7504997  -6.4020012
   3.0670012  38.0594997  -5.1020012   3.2849804  38.3367698  -5.8980160
   5.9000012  37.9104997  -6.9210012   5.0350012  37.9824997  -6.5170012
   5.8450012  38.4574997  -7.7050012   5.7742085  37.9942685  -6.9716638
  10.6100012  37.7984997  -7.7460012  10.1540012  38.3274997  -8.4000012
  10.7730012  38.4014997  -7.0200012  10.5695585  37.9524468  -7.7374938
  12.9380012  36.6764997  -6.8010012  12.0330012  36.8414997  -7.0660012
  13.3670012  37.5294997  -6.8660012  12.8720799  36.8144483  -6.8460818
  15.5420012  38.2464997  -6.5060012  15.3600012  39.1624997  -6.7160012
  15.7190012  37.8364997  -7.3520012  15.5410210  38.3164822  -6.6492115
   2.8470012  36.9334997  -9.0410012   2.8290012  36.5084997  -8.1830012
   3.6520012  36.6154997  -9.4490012   2.9533875  36.8323812  -8.9788345
   4.9890012  35.6434997 -10.3860012   4.7700012  34.7274997 -10.2160012
   5.8130012  35.7834997  -9.9200012   5.0704420  35.5370520 -10.2997226
   7.5260012  36.1134997  -9.5370012   7.7390012  35.2254997  -9.8240012
   7.5900012  36.0794997  -8.5830012   7.5638231  35.9873102  -9.4472603
  11.0340012  21.7774997 -10.3930012  10.3600012  21.1484997 -10.1370012
  11.5980012  21.2934997 -10.9960012  11.0179230  21.6258744 -10.4394660
  16.1770012  19.8854997 -10.2800012  16.7810012  20.4324997 -10.7820012
  15.3070012  20.2044997 -10.5200012  16.1421241  20.0035806 -10.3812346
  17.9040012  21.0234997 -11.9470012  18.5160012  20.5094997 -12.4730012
  18.2860012  21.9014997 -11.9230012  18.0394540  21.0717140 -12.0158170
   3.3610012  20.4114997 -12.5710012   2.5840012  20.1774997 -13.0780012
   3.8910012  19.6144997 -12.5620012   3.3262330  20.2716988 -12.6392258
   2.1970012  20.2094997 -16.7670012   2.6360012  20.8204997 -17.3590012
   1.5640012  20.7474997 -16.2930012   2.1714514  20.3659257 -16.7839070
   7.9400012  20.3384997 -12.7570012   8.8150012  20.7264997 -12.7870012
   7.8040012  20.1234997 -11.8350012   8.0413695  20.3625184 -12.6363560
  13.4970012  20.3684997 -11.1080012  13.5730012  20.4634997 -12.0580012
  13.2220012  19.4604997 -10.9790012  13.4702321  20.2587867 -11.2204921
  14.8500012  20.3944997 -15.4160012  14.1480012  21.0094997 -15.6250012
  14.4060012  19.5564997 -15.2850012  14.6936330  20.3655783 -15.4269672
   2.0980012  36.1574997 -15.8690012   1.4130012  36.1194997 -16.5370012
   2.1020012  37.0704997 -15.5810012   2.0048193  36.2757016 -15.9214716
   4.0580012  22.1254997 -18.3250012   4.5500012  21.4954997 -18.8520012
   4.6820012  22.4214997 -17.6610012   4.2095446  22.0793199 -18.3074020
   9.0840012  22.4184997 -15.8680012   9.2620012  21.7724997 -15.1850012
   9.0310012  23.2524997 -15.4000012   9.1011829  22.4427985 -15.7114060
  10.9630012  37.3674997 -17.4720012  11.8290012  37.7334997 -17.6500012
  10.7160012  36.9274997 -18.2860012  11.0482392  37.3581756 -17.6063711
  17.6720012  36.9304997 -14.7930012  17.4770012  36.1824997 -15.3580012
  17.6330012  37.6884997 -15.3760012  17.6400380  36.9306099 -14.9491616
   3.3190012  20.9254997  -3.0530012   2.9530012  20.1604997  -2.6100012
   4.2320012  20.9544997  -2.7660012   3.3922790  20.8247224  -2.9535930
   5.2920012  20.2764997  -1.5170012   6.1900012  20.0024997  -1.7020012
   4.9050012  19.5334997  -1.0530012   5.3626612  20.1385914  -1.4796357
   3.9160012  37.0774997 -18.8440012   3.6490012  37.3644997 -17.9710012
   4.6880012  36.5314997 -18.6920012   3.9837488  37.0430294 -18.7038950
  13.7130012  19.6084997  -1.3350012  13.7900012  19.1824997  -0.4810012
  14.6070012  19.6224997  -1.6780012  13.8443428  19.5520879  -1.2644690
  16.8890012  35.6814997  -2.6430012  16.1070012  35.4954997  -3.1620012
  16.8170012  36.6104997  -2.4250012  16.7721777  35.7816492  -2.6845952
  31.2950012  29.5674997 -12.6120012  31.3840012  30.5114997 -12.7440012
  30.6570012  29.2924997 -13.2700012  31.2209081  29.6594830 -12.7190386
  30.2280012  28.8224997  -9.1930012  30.1900012  28.1764997  -8.4880012
  29.9060012  28.3564997  -9.9640012  30.1792333  28.6709408  -9.2007022
  22.5970012  28.4374997  -7.6000012  22.6380012  27.8114997  -6.8770012
  23.3000012  29.0614997  -7.4180012  22.6976363  28.4361196  -7.4763956
  33.9340012  31.7614997 -10.8920012  33.4940012  31.0414997 -10.4410012
  33.9210012  32.4824997 -10.2620012  33.8720226  31.7603731 -10.7451506
  23.5200012  32.8874997  -9.0650012  23.1510012  32.0854997  -9.4350012
  24.4610012  32.7184997  -9.0190012  23.5967289  32.7550153  -9.1093684
  20.1300012  26.5474997 -13.6720012  19.6830012  27.3934997 -13.6910012
  19.5690012  25.9674997 -14.1880012  19.9929900  26.5849916 -13.7443199
  20.8410012  28.7094997 -11.5460012  21.0540012  27.9394997 -11.0190012
  21.5790012  28.7984997 -12.1500012  20.9698496  28.6161394 -11.5554700
  31.0460012  36.8664997 -10.6790012  31.6660012  36.1894997 -10.9530012
  30.8380012  36.6484997  -9.7710012  31.1026904  36.7443870 -10.5936635
  28.6180012  31.2554997  -8.7870012  28.9220012  30.5694997  -9.3820012
  29.3390012  31.3734997  -8.1690012  28.7570671  31.1776305  -8.7848184
  37.2810012  22.8564997  -7.9260012  37.3300012  23.4664997  -7.1900012
  37.7060012  23.3174997  -8.6490012  37.3451824  23.0023741  -7.9229795
  31.7590012  25.6494997  -8.4590012  31.9010012  24.7034997  -8.4390012
  31.6520012  25.8564997  -9.3880012  31.7639864  25.5479534  -8.5817661
  24.9130012  23.7504997 -11.1870012  24.9570012  24.6104997 -11.6050012
  24.4560012  23.1984997 -11.8210012  24.8572185  23.7935799 -11.3299701
  32.6360012  23.8814997 -12.7860012  33.2820012  23.5524997 -12.1610012
  33.1460012  24.3994997 -13.4090012  32.7934264  23.9064611 -12.7846138
  21.5340012  26.1474997 -10.4250012  22.1870012  25.5974997  -9.9930012
  21.5580012  25.8734997 -11.3420012  21.6266683  26.0351466 -10.4897877
  26.6900012  27.6974997 -11.2100012  27.3060012  27.1714997 -10.7000012
  26.1040012  27.0574997 -11.6130012  26.6950810  27.5389208 -11.1946827
  37.6720012  24.3344997  -5.6900012  36.9840012  24.9924997  -5.7860012
  37.6880012  24.1374997  -4.7540012  37.5798525  24.3980462  -5.5765192
  23.7240012  22.6684997  -7.1130012  23.5050012  23.1984997  -7.8790012
  23.0560012  22.8954997  -6.4660012  23.6037600  22.7716906  -7.1303621
  31.0930012  32.1684997 -13.5690012  30.7970012  31.8464997 -14.4200012
  30.7680012  33.0684997 -13.5280012  31.0086371  32.2460215 -13.6798199
  26.2930012  30.3444997  -6.8260012  25.5530012  30.9424997  -6.7220012
  27.0070012  30.8984997  -7.1410012  26.2882237  30.5012831  -6.8543535
  34.4000012  23.1724997 -10.8060012  34.1840012  22.4064997 -10.2730012
  35.0550012  23.6444997 -10.2930012  34.4590632  23.1315889 -10.6637139
  23.3170012  24.5604997  -9.1610012  23.9310012  25.1934997  -8.7870012
  23.8290012  24.0884997  -9.8170012  23.4702296  24.5832370  -9.1985748
  24.7000012  32.3084997  -6.0380012  24.6950012  33.1884997  -6.4160012
  23.8470012  32.2254997  -5.6130012  24.5839464  32.4176117  -6.0322093
  20.8210012  31.9794997 -15.2560012  20.5490012  32.2084997 -16.1450012
  20.8670012  32.8174997 -14.7960012  20.7900094  32.1241213 -15.3154303
  34.4460012  33.6014997  -8.5440012  33.5050012  33.6594997  -8.3820012
  34.7230012  34.5074997  -8.6810012  34.3544679  33.7319443  -8.5403185
  34.7470012  21.8874997  -7.1260012  34.0110012  22.4984997  -7.1640012
  35.4300012  22.3024997  -7.6530012  34.7386541  22.0271374  -7.2024168
  27.7500012  19.9744997  -9.6600012  27.6330012  19.0254997  -9.7150012
  26.8950012  20.3064997  -9.3870012  27.6183733  19.8895409  -9.6306103
  32.6980012  35.3824997 -11.9180012  33.1240012  34.6754997 -12.4030012
  33.0150012  36.1834997 -12.3350012  32.7991019  35.3940994 -12.0406870
  33.8580012  33.2834997 -13.4100012  33.6000012  32.5934997 -14.0210012
  33.9290012  32.8404997 -12.5640012  33.8322856  33.1292124 -13.3793115
  35.5440012  31.8494997  -4.9320012  35.6840012  31.2584997  -5.6720012
  35.7110012  32.7224997  -5.2890012  35.5856778  31.8866426  -5.0813035
  30.0170012  28.8114997 -15.1600012  29.3050012  29.3464997 -15.5120012
  30.7080012  28.8674997 -15.8200012  30.0130132  28.8922543 -15.2973711
  30.0700012  27.2694997 -18.1210012  30.7710012  27.2914997 -17.4700012
  30.3730012  26.6414997 -18.7770012  30.2067830  27.1876566 -18.1206289
  37.3860012  28.1894997  -6.8660012  36.7330012  28.8844997  -6.7770012
  37.8510012  28.3994997  -7.6760012  37.3595390  28.3129425  -6.9633117
  33.4220012  29.0214997 -14.2080012  32.6900012  29.2494997 -13.6350012
  33.8700012  28.3074997 -13.7530012  33.3823095  28.9562571 -14.0680881
  33.3200012  27.1954997  -5.1410012  33.4000012  27.9584997  -4.5690012
  32.7180012  27.4744997  -5.8310012  33.2495756  27.3377134  -5.1559411
  25.0680012  29.6514997 -12.3260012  24.7370012  29.2814997 -13.1440012
  25.6560012  28.9814997 -11.9790012  25.1021873  29.5101156 -12.3911898
  26.4340012  33.0794997  -9.6440012  26.3400012  32.5014997 -10.4010012
  27.1640012  32.7084997  -9.1480012  26.5197981  32.9502390  -9.6805835
  25.4340012  28.4204997  -8.6920012  26.0000012  28.5414997  -9.4550012
  25.7530012  29.0574997  -8.0530012  25.5545786  28.5231884  -8.7099960
  31.7430012  33.9234997  -7.9580012  31.5030012  34.5854997  -7.3100012
  31.5450012  33.0894997  -7.5330012  31.6833808  33.9013134  -7.8118476
  26.3140012  32.8194997  -3.9750012  26.0030012  33.6014997  -3.5200012
  25.6640012  32.6664997  -4.6610012  26.1835558  32.9059105  -4.0054129
  32.2930012  28.1834997 -16.5230012  32.8730012  28.3334997 -15.7760012
  32.7070012  28.6544997 -17.2460012  32.4282830  28.2676841 -16.5185866
  23.2340012  29.0174997  -4.7460012  23.3050012  29.6684997  -4.0480012
  22.3440012  29.1204997  -5.0810012  23.1233117  29.1205936  -4.6957300
  30.0200012  34.9204997 -13.0880012  30.4940012  35.2154997 -12.3100012
  29.4570012  35.6584997 -13.3210012  30.0087653  35.0606932 -13.0129864
  24.5540012  34.8914997  -3.2120012  24.5610012  34.7554997  -4.1590012
  23.6380012  34.7734997  -2.9600012  24.4311714  34.8569430  -3.3075334
  35.9920012  19.9334997 -16.7100012  35.0920012  20.0724997 -16.4150012
  36.2440012  20.7644997 -17.1120012  35.9028702  20.0649074 -16.7239795
  24.0580012  28.7214997 -14.7360012  23.7660012  29.4894997 -15.2270012
  23.3840012  28.0614997 -14.8990012  23.9269081  28.7374406 -14.8252660
  37.1810012  34.2994997 -18.3340012  37.2550012  35.2384997 -18.1630012
  38.0870012  33.9944997 -18.3900012  37.3135100  34.3866722 -18.3181881
  20.1510012  31.0844997  -5.9210012  19.6500012  31.0564997  -6.7360012
  20.1560012  30.1784997  -5.6120012  20.0831526  30.9582278  -5.9907128
  19.9010012  33.8644997  -9.0370012  20.8470012  33.7204997  -9.0560012
  19.7890012  34.6484997  -8.5000012  20.0152727  33.9508046  -8.9669928
  38.0990012  34.5304997  -3.3550012  38.0500012  33.5754997  -3.3920012
  37.2720012  34.7984997  -2.9540012  37.9804940  34.4358998  -3.3058625
  29.0780012  34.1044997  -4.4790012  29.1650012  34.9304997  -4.0040012
  28.2140012  33.7744997  -4.2300012  28.9731964  34.1729878  -4.3803451
  29.4920012  37.8764997 -14.6730012  29.4170012  37.7554997 -15.6190012
  29.5250012  38.8264997 -14.5540012  29.4861848  37.9882500 -14.7865166
  23.1450012  36.6654997 -12.8920012  23.2980012  36.3174997 -12.0130012
  22.2950012  36.3094997 -13.1470012  23.0508962  36.5696650 -12.8061660
  32.5940012  37.0304997 -17.6710012  32.9690012  36.2864997 -18.1410012
  32.5980012  36.7604997 -16.7520012  32.6458915  36.8921486 -17.6112176
  32.2630012  36.9564997 -14.9210012  31.3270012  37.0564997 -14.7430012
  32.5430012  36.2474997 -14.3430012  32.1728255  36.8742711 -14.8184609
  35.2510012  26.0234997  -2.8750012  34.8440012  26.5044997  -3.5960012
  35.2920012  25.1184997  -3.1830012  35.2008437  25.9669374  -3.0153317
  22.4000012  32.4074997  -4.8780012  22.6160012  32.0464997  -4.0190012
  21.5450012  32.0334997  -5.0880012  22.3139292  32.3074111  -4.7886614
  25.0190012  20.8774997  -8.8830012  24.1570012  20.7904997  -9.2900012
  24.9960012  21.7334997  -8.4550012  24.8980330  20.9812765  -8.8808137
  29.6820012  20.5994997  -5.5080012  30.1020012  20.1844997  -4.7550012
  28.7490012  20.4214997  -5.3910012  29.6133644  20.5185900  -5.3890461
  33.0080012  24.3554997  -4.6550012  32.4940012  24.2294997  -3.8570012
  32.8530012  25.2674997  -4.8990012  32.9166852  24.4616132  -4.5787842
  33.7710012  29.2164997 -18.8930012  33.8130012  28.9934997 -19.8230012
  34.6200012  29.6154997 -18.7030012  33.8915396  29.2399155 -18.9946373
  29.3430012  23.0924997 -18.2230012  29.0900012  23.1114997 -17.3000012
  29.0870012  22.2204997 -18.5240012  29.2737790  22.9772437 -18.1373737
  25.1100012  25.8434997  -7.7880012  24.4680012  25.8024997  -7.0790012
  25.1470012  26.7694997  -8.0250012  25.0271324  25.9631559  -7.7230176
  25.1070012  26.0644997 -12.8760012  24.2140012  25.7234997 -12.9340012
  25.5570012  25.6874997 -13.6310012  25.0457305  25.9668484 -12.9860823
  30.6420012  26.4804997 -14.0590012  30.2330012  27.2954997 -14.3500012
  31.3630012  26.3404997 -14.6730012  30.6834537  26.5732018 -14.1818658
  29.7440012  26.6554997  -2.5710012  29.1820012  25.9514997  -2.2500012
  30.5710012  26.5354997  -2.1030012  29.7787095  26.5427883  -2.4637670
  31.6470012  25.9264997 -11.2450012  31.4520012  26.5314997 -11.9600012
  31.8280012  25.0924997 -11.6790012  31.6447614  25.8966300 -11.4015595
  22.8600012  26.1634997  -5.9210012  22.8220012  26.5634997  -5.0520012
  22.3690012  25.3464997  -5.8300012  22.7884684  26.1078069  -5.7898941
  26.2260012  23.5374997 -19.1220012  25.7950012  23.0924997 -18.3920012
  25.5080012  23.9094997 -19.6340012  26.0699438  23.5268940 -19.0913201
  19.4680012  23.2794997 -12.0700012  20.0990012  23.2504997 -11.3510012
  19.9170012  22.8544997 -12.8000012  19.6150774  23.2180492 -12.0703447
  20.7420012  24.0254997 -16.6460012  21.2160012  24.6164997 -17.2310012
  20.0250012  24.5564997 -16.2990012  20.7099341  24.1780867 -16.6791164
  30.9110012  27.5644997  -6.5730012  31.2340012  26.9334997  -7.2160012
  30.4710012  27.0294997  -5.9130012  30.8956895  27.4058441  -6.5717150
  27.6880012  23.4914997 -11.7890012  26.7770012  23.5484997 -11.5010012
  28.1940012  23.4314997 -10.9790012  27.6315413  23.4911985 -11.6399378
  22.5170012  25.1204997 -12.9630012  21.6270012  25.2204997 -13.3030012
  22.8130012  24.2784997 -13.3090012  22.4352823  25.0203545 -13.0562787
  26.1700012  25.1204997 -15.3060012  27.1010012  25.2494997 -15.1280012
  25.9550012  25.7904997 -15.9560012  26.2684247  25.2286565 -15.3694253
  32.0930012  22.7264997  -8.5250012  31.4170012  22.8574997  -7.8610012
  31.6080012  22.5714997  -9.3350012  31.9347145  22.7234905  -8.5435483
  24.8440012  26.3154997 -17.7390012  24.3010012  25.9354997 -18.4310012
  25.6770012  26.5094997 -18.1680012  24.8824399  26.2898124 -17.8915474
  35.3810012  38.3984997  -2.2480012  35.5810012  38.8224997  -3.0830012
  36.0360012  38.7414997  -1.6410012  35.4970051  38.5029648  -2.2802164
  22.9790012  30.8724997  -2.6400012  23.7110012  31.1264997  -2.0790012
  22.1990012  31.0764997  -2.1250012  22.9738232  30.9349177  -2.4934240
  29.0080012  26.2794997  -9.9020012  29.5730012  25.7324997 -10.4490012
  28.8610012  25.7574997  -9.1140012  29.0652918  26.1342024  -9.8701546
  24.0100012  22.4154997 -13.4840012  23.6930012  21.5134997 -13.5190012
  24.7920012  22.4174997 -14.0370012  24.0722284  22.2921628 -13.5635217
  27.6350012  24.6674997  -7.4880012  26.7990012  25.1214997  -7.3780012
  28.1590012  24.9434997  -6.7360012  27.5914414  24.7669376  -7.3712864
  28.1790012  30.8804997 -15.8040012  27.4340012  30.3734997 -16.1260012
  28.0450012  30.9294997 -14.8570012  28.0588776  30.8176940 -15.7201353
  35.3290012  30.0134997  -7.0170012  35.9710012  30.4704997  -7.5610012
  34.4990012  30.1264997  -7.4800012  35.3045963  30.0912704  -7.1539823
  32.0770012  23.6944997 -17.6040012  31.1380012  23.8064997 -17.7560012
  32.3740012  24.5514997 -17.2980012  31.9887666  23.8256443 -17.5834232
  29.6980012  31.0644997  -4.5670012  29.3530012  30.6834997  -3.7600012
  29.4980012  31.9984997  -4.4950012  29.6238061  31.1385228  -4.4469039
  32.7950012  25.5614997 -15.9440012  33.6870012  25.4244997 -15.6250012
  32.8520012  26.3524997 -16.4800012  32.9246285  25.6496660 -15.9728310
  23.3040012  30.1754997 -10.0340012  24.0490012  30.1734997 -10.6350012
  23.3820012  29.3524997  -9.5520012  23.4165518  30.0639315 -10.0511071
  30.3050012  32.3394997 -16.7780012  30.0090012  33.1654997 -16.3970012
  29.6020012  31.7194997 -16.5820012  30.1694914  32.3688199 -16.6993557
  20.3120012  28.6364997  -4.7190012  20.5350012  28.2184997  -3.8870012
  19.7100012  28.0234997  -5.1420012  20.2611759  28.4964668  -4.6622978
  27.3280012  28.1534997  -2.5060012  27.0320012  27.9874997  -3.4010012
  28.2600012  27.9334997  -2.5170012  27.4134166  28.1010640  -2.6299464
  31.9490012  33.5264997  -4.6160012  31.0480012  33.7094997  -4.8840012
  31.9830012  33.7854997  -3.6950012  31.8303041  33.5865512  -4.5281803
  37.6800012  25.7714997 -16.2490012  37.1260012  25.3754997 -16.9210012
  37.7800012  26.6814997 -16.5270012  37.6177059  25.8403586 -16.3785599
  37.6430012  31.5714997  -3.4120012  36.7920012  31.8094997  -3.7790012
  38.2340012  31.5544997  -4.1650012  37.6062487  31.6018258  -3.5641107
  35.9750012  34.5574997 -15.7840012  35.6020012  33.7314997 -15.4750012
  36.2530012  34.3744997 -16.6810012  35.9615630  34.4197303 -15.8630374
  33.1360012  29.3654997  -8.7630012  32.2070012  29.1334997  -8.7900012
  33.5870012  28.5884997  -9.0930012  33.0699216  29.2287238  -8.8113083
  25.6790012  33.6934997 -12.6300012  26.2060012  34.4664997 -12.8300012
  24.7990012  33.9184997 -12.9310012  25.6321773  33.8298005 -12.6980990
  21.4340012  28.5554997 -18.0430012  22.0500012  29.1824997 -17.6630012
  20.5720012  28.8714997 -17.7710012  21.4017698  28.6839430 -17.9542817
  27.1060012  31.3564997 -13.0530012  26.8650012  32.2814997 -13.0120012
  26.3650012  30.8974997 -12.6570012  26.9728409  31.4211421 -12.9938623
  27.6210012  35.5054997  -6.7380012  27.9830012  36.3604997  -6.9720012
  28.1520012  35.2134997  -5.9980012  27.7424473  35.5831060  -6.6699145
  25.7890012  36.3784997 -13.5080012  24.8390012  36.4834997 -13.4570012
  26.1410012  37.1984997 -13.1630012  25.7064203  36.5038314 -13.4543350
  31.1650012  31.6044997  -7.0380012  30.7390012  31.3774997  -6.2110012
  31.7450012  30.8664997  -7.2200012  31.1851868  31.4735299  -6.9494170
  33.3680012  32.5334997 -17.9640012  33.7210012  32.1534997 -17.1590012
  32.4190012  32.4404997 -17.8770012  33.2880441  32.4689596 -17.8421441
  33.8230012  36.1564997  -4.5680012  33.2220012  35.6014997  -5.0640012
  34.1050012  36.8234997  -5.1940012  33.7788519  36.1706841  -4.7205048
  37.8710012  37.0134997 -17.7630012  38.6150012  37.5994997 -17.9030012
  37.1770012  37.5814997 -17.4290012  37.8790292  37.1705582 -17.7370039
  21.9460012  23.3894997  -5.1610012  21.0530012  23.7284997  -5.2290012
  21.8470012  22.5344997  -4.7430012  21.8104164  23.3202588  -5.1137765
  34.2340012  31.2064997 -15.7370012  33.9560012  30.4784997 -15.1810012
  35.1610012  31.3254997 -15.5320012  34.3213124  31.1228802 -15.6331155
  21.5970012  35.1944997  -6.7260012  21.8140012  34.2624997  -6.7570012
  21.8430012  35.4684997  -5.8430012  21.6599549  35.1040636  -6.6108237
  27.4590012  33.6454997 -19.5170012  27.6980012  32.8974997 -20.0640012
  27.1900012  33.2574997 -18.6840012  27.4553675  33.4906638 -19.4793135
  26.3960012  33.2154997 -17.0600012  26.5420012  32.6954997 -16.2700012
  26.3930012  34.1224997 -16.7540012  26.4155989  33.2668853 -16.9103912
  22.8490012  30.4684997 -16.5500012  22.1630012  30.8204997 -15.9830012
  23.3710012  31.2314997 -16.7970012  22.8256852  30.6198578 -16.5057882
  30.6800012  23.1304997  -6.2710012  31.3790012  23.2044997  -5.6210012
  30.2990012  22.2664997  -6.1170012  30.7241767  23.0237624  -6.1611678
  31.4650012  22.7824997 -15.1740012  31.6850012  23.2544997 -15.9770012
  32.0230012  23.1774997 -14.5040012  31.5704968  22.9004285 -15.1932669
  29.1330012  34.9134997 -16.3110012  28.3170012  35.4104997 -16.2590012
  29.6630012  35.3884997 -16.9510012  29.0929161  35.0457722 -16.3904044
  28.6650012  24.5104997 -14.3390012  29.4770012  25.0154997 -14.2930012
  28.4200012  24.3654997 -13.4250012  28.7430520  24.5600375 -14.2091483
  29.2000012  25.4964997  -5.1540012  29.3190012  26.0704997  -4.3970012
  29.8560012  24.8084997  -5.0400012  29.3049757  25.4821079  -5.0349175
  29.5480012  21.5914997 -13.4010012  29.2020012  22.2094997 -12.7560012
  30.2070012  22.0924997 -13.8820012  29.5897826  21.7435802 -13.3779029
  26.4720012  35.9574997 -16.3290012  26.6320012  36.7564997 -16.8300012
  26.2740012  36.2634997 -15.4440012  26.4671649  36.1084469 -16.2780185
  25.2060012  22.6544997 -16.7140012  25.1230012  23.5434997 -16.3670012
  26.0960012  22.3894997 -16.4820012  25.3149469  22.7401430 -16.6352374
  35.4050012  23.4034997  -4.3190012  34.4880012  23.6664997  -4.4070012
  35.7400012  23.4004997  -5.2160012  35.3249900  23.4390224  -4.4522081
  34.0070012  27.1544997 -10.2240012  33.2090012  26.7394997 -10.5520012
  34.4520012  26.4634997  -9.7330012  33.9579885  27.0043543 -10.2025111
  23.4650012  33.0824997 -17.6530012  24.0570012  33.7814997 -17.3770012
  23.9240012  32.6494997 -18.3730012  23.6081142  33.1197049 -17.7125170
  21.7810012  25.7464997 -18.5370012  21.7360012  26.6854997 -18.3590012
  20.8930012  25.5104997 -18.8070012  21.6548574  25.8431892 -18.5491088
  35.0930012  36.4104997  -8.6010012  34.9380012  37.0884997  -9.2580012
  36.0260012  36.4824997  -8.3980012  35.1978500  36.5130170  -8.6634881
  22.5890012  20.5284997  -9.8640012  22.3600012  20.5874997 -10.7920012
  22.1460012  19.7364997  -9.5580012  22.4978530  20.4295753  -9.9495214
  21.5190012  34.4684997 -13.7040012  20.6870012  34.9414997 -13.6760012
  22.0650012  34.9784997 -14.3020012  21.4789739  34.6021871 -13.7810284
  20.8070012  37.0814997  -2.3740012  21.3480012  36.8644997  -1.6140012
  20.3260012  36.2754997  -2.5630012  20.8159345  36.9429514  -2.2956924
  25.4050012  36.0004997  -0.7530012  26.1720012  35.5414997  -0.4120012
  25.3830012  35.7744997  -1.6830012  25.5071434  35.9070409  -0.8319957
  29.4970012  35.5084997 -19.3780012  28.8530012  34.8774997 -19.0570012
  30.2590012  34.9774997 -19.6100012  29.5118077  35.3502920 -19.3653989
  31.9820012  34.3804997  -2.0240012  31.6310012  33.5244997  -1.7810012
  32.7080012  34.5234997  -1.4170012  32.0320769  34.2825636  -1.9086381
  34.1010012  35.3254997 -19.1440012  34.3840012  34.5314997 -18.6920012
  34.8410012  35.5584997 -19.7050012  34.2397486  35.2482803 -19.1579302
  20.7140012  30.8914997  -1.4190012  20.8580012  29.9894997  -1.7060012
  19.9420012  31.1774997  -1.9070012  20.6293322  30.8068261  -1.5242119
  25.0560012  31.2354997 -19.2870012  25.1200012  30.4414997 -18.7560012
  25.7090012  31.1164997 -19.9770012  25.1530241  31.1107148 -19.3075683
  27.3700012  30.8614997  -1.9870012  27.0410012  31.1324997  -2.8440012
  27.5220012  29.9204997  -2.0740012  27.3454809  30.7713862  -2.1161756
  33.1040012  30.7774997  -4.6030012  33.8500012  31.3654997  -4.7230012
  32.3470012  31.3594997  -4.5400012  33.1037554  30.9367011  -4.6109093
  21.5470012  28.0914997  -1.9990012  21.9550012  27.2344997  -2.1200012
  21.2870012  28.1064997  -1.0780012  21.5677568  27.9760807  -1.8910412
  26.2050012  29.2074997 -16.9810012  25.7450012  28.7234997 -16.2950012
  26.4600012  28.5394997 -17.6170012  26.1764902  29.0508731 -16.9730666
  25.4940012  27.1004997  -4.6250012  24.8760012  27.7754997  -4.3450012
  25.8380012  27.4214997  -5.4580012  25.4559615  27.2362721  -4.6993419
  27.2760012  27.4504997 -18.7190012  27.0960012  27.2964997 -19.6460012
  28.2260012  27.5584997 -18.6740012  27.3797776  27.4440175 -18.8398157
  30.5140012  29.5724997  -1.3480012  31.4670012  29.6554997  -1.3750012
  30.3530012  28.8604997  -0.7280012  30.6226426  29.4876746  -1.2679421
  36.6660012  29.8054997 -19.2730012  36.3920012  29.3804997 -20.0860012
  36.7050012  30.7364997 -19.4900012  36.6337699  29.8732484 -19.4136390
  25.8330012  24.4554997  -3.5430012  25.9830012  23.7264997  -4.1450012
  25.8360012  25.2324997  -4.1020012  25.8539302  24.4607851  -3.7009308
  26.2460012  22.8254997  -6.0500012  26.7820012  23.2764997  -6.7020012
  25.3940012  22.7174997  -6.4730012  26.2042178  22.8726390  -6.1964244
  27.8280012  28.2644997  -5.8110012  28.5780012  28.1084997  -6.3840012
  27.4890012  29.1164997  -6.0860012  27.8848921  28.3582968  -5.9266439
  32.2430012  26.0794997  -0.7820012  32.4360012  25.1484997  -0.8940012
  33.1010012  26.5044997  -0.7920012  32.3853020  26.0096389  -0.7986639
  33.5600012  28.8684997  -2.7050012  33.2790012  29.5774997  -3.2820012
  34.5030012  28.7954997  -2.8560012  33.6489027  28.9557646  -2.8044449
  24.3120012  25.6534997  -1.6310012  23.5450012  25.1214997  -1.8410012
  24.9910012  25.3434997  -2.2310012  24.2987022  25.5387506  -1.7408352
  27.0520012  20.2814997  -5.6190012  26.9530012  21.2284997  -5.7240012
  26.3090012  19.9094997  -6.0940012  26.9380563  20.3605902  -5.6975440
  28.3160012  24.6034997  -2.0550012  28.0800012  24.3834997  -1.1530012
  27.5320012  24.3964997  -2.5650012  28.1778628  24.5454760  -2.0006068
  31.0310012  23.7304997  -2.9790012  30.0840012  23.7624997  -2.8470012
  31.3440012  23.1054997  -2.3260012  30.9435475  23.6503207  -2.8725545
  32.6650012  22.3644997  -0.9740012  32.5690012  21.4124997  -0.9800012
  32.3440012  22.6334997  -0.1140012  32.6084070  22.2704035  -0.8584559
  22.4920012  23.5744997  -1.9270012  22.7040012  22.8674997  -2.5370012
  22.3810012  23.1364997  -1.0830012  22.5059721  23.4187084  -1.8963157
  27.2730012  19.5754997  -2.9470012  27.9850012  18.9354997  -2.9610012
  27.1720012  19.8424997  -3.8610012  27.3567939  19.5239938  -3.0724350
  27.6270012  21.2584997  -0.8940012  27.4950012  20.7824997  -1.7140012
  27.0280012  22.0024997  -0.9490012  27.5279071  21.2939618  -1.0137114
  27.1730012  38.1414997 -17.7170012  28.1060012  38.2994997 -17.5740012
  26.9090012  38.8164997 -18.3420012  27.2649510  38.2543611 -17.7819259
  20.7420012  32.7774997 -18.2350012  21.6560012  32.8564997 -17.9610012
  20.7490012  32.0904997 -18.9010012  20.8681131  32.6953961 -18.2875607
  19.3910012  38.1704997 -13.1570012  18.7440012  37.7084997 -13.6900012
  19.7450012  37.4984997 -12.5750012  19.3503849  38.0164723 -13.1512041
  20.2610012  36.2514997 -11.3530012  19.9260012  35.3714997 -11.1810012
  20.4830012  36.5964997 -10.4880012  20.2451783  36.1777500 -11.2125792
  37.8090012  37.0604997  -8.3720012  37.7880012  37.2454997  -7.4330012
  38.5000012  37.6294997  -8.7130012  37.8994618  37.1626606  -8.2896136
  37.3730012  36.6284997  -5.4500012  36.8850012  35.8924997  -5.8210012
  37.9220012  36.2344997  -4.7720012  37.3804872  36.4746249  -5.4090840
  35.8230012  32.4174997  -0.8120012  34.9570012  32.3124997  -0.4180012
  36.2000012  33.1764997  -0.3660012  35.7553308  32.5056900  -0.6977607
  37.1240012  30.6744997 -15.2980012  37.9740012  31.0954997 -15.1710012
  37.1300012  29.9344997 -14.6910012  37.2411372  30.6320803 -15.1985656
  37.5190012  28.7274997 -13.4740012  36.7920012  28.2484997 -13.0770012
  38.1000012  28.9334997 -12.7420012  37.4979375  28.6897090 -13.3205871
  37.2780012  31.5124997  -8.5270012  38.1110012  31.1344997  -8.8070012
  37.3900012  32.4554997  -8.6460012  37.4072647  31.5882218  -8.5814513
  35.7640012  34.3904997  -6.2200012  35.1170012  34.7154997  -5.5940012
  35.2470012  33.9504997  -6.8940012  35.6054029  34.3755004  -6.2254173
  37.7870012  28.6284997 -17.0830012  37.2650012  28.9854997 -17.8020012
  37.7540012  29.3034997 -16.4050012  37.7111634  28.7685413 -17.0896855
  36.1360012  25.8684997 -18.5320012  36.2320012  26.5354997 -19.2130012
  35.9960012  25.0524997 -19.0140012  36.1302135  25.8494500 -18.6901509
  35.3050012  27.2484997 -12.9110012  35.1550012  26.3034997 -12.9320012
  34.9520012  27.5294997 -12.0680012  35.2366625  27.1570441 -12.7997654
  20.3410012  29.3264997  -8.9010012  20.5250012  29.2444997  -9.8370012
  21.1900012  29.2024997  -8.4770012  20.4810139  29.2985003  -8.9718545
  36.1620012  29.2184997  -3.2730012  36.7450012  28.4844997  -3.0810012
  36.7260012  29.9904997  -3.2260012  36.3179769  29.2224227  -3.2403841
  37.6580012  27.1214997  -2.5880012  36.7950012  26.7424997  -2.7540012
  38.2630012  26.3824997  -2.6620012  37.6215979  26.9698023  -2.6207183
  35.3830012  23.2764997 -19.4150012  35.9940012  22.9054997 -18.7780012
  34.5470012  22.8554997 -19.2190012  35.3535032  23.1687554 -19.3012965
  35.0160012  24.8314997 -14.4490012  35.2960012  23.9244997 -14.3250012
  35.7750012  25.2654997 -14.8380012  35.1569277  24.7660942 -14.4846318
  35.6280012  25.4124997  -9.0130012  36.5610012  25.6244997  -9.0470012
  35.3930012  25.5144997  -8.0910012  35.7238036  25.4552769  -8.8930024
  35.6570012  26.1494997  -6.2370012  34.8140012  26.4174997  -5.8710012
  36.0990012  26.9714997  -6.4480012  35.6014158  26.2973291  -6.2154509
  19.9380012  24.5974997  -2.7600012  20.8580012  24.4754997  -2.5240012
  19.4890012  23.8474997  -2.3710012  20.0031580  24.4793727  -2.6750994
  37.9400012  20.1294997  -0.8840012  38.2900012  19.4754997  -1.4890012
  38.0870012  20.9664997  -1.3230012  38.0078419  20.1531591  -1.0262882
  35.6290012  22.0944997 -14.4010012  35.8120012  21.6454997 -13.5750012
  35.0300012  21.5094997 -14.8640012  35.5730202  21.9539975 -14.3506725
  21.1590012  22.9094997  -9.8690012  21.6050012  22.1174997  -9.5670012
  21.6260012  23.6254997  -9.4380012  21.2830172  22.8980624  -9.7695180
  19.4630012  25.9084997  -8.8000012  19.9550012  25.6874997  -9.5910012
  19.8260012  26.7494997  -8.5190012  19.5793126  25.9918357  -8.8702469
  37.4600012  22.2384997  -2.5340012  36.5420012  22.5094997  -2.5700012
  37.5830012  21.7034997  -3.3190012  37.3511066  22.2032892  -2.6449513
  37.4960012  22.1614997 -17.8730012  37.9080012  21.4404997 -18.3480012
  38.1780012  22.8314997 -17.8140012  37.6445885  22.1532368 -17.9301085
  19.7770012  22.1664997 -14.7460012  18.8520012  22.3754997 -14.8750012
  20.2310012  22.6504997 -15.4350012  19.7117368  22.2605993 -14.8568774
  34.5480012  37.1504997 -12.8000012  35.2000012  36.8034997 -13.4080012
  35.0580012  37.6394997 -12.1540012  34.7062637  37.1690597 -12.7959764
  19.7410012  20.9044997  -6.4010012  19.0760012  20.6584997  -5.7580012
  19.2980012  21.5264997  -6.9790012  19.5900956  20.9548632  -6.3910648
  21.9330012  34.0794997  -2.2570012  21.1120012  34.2544997  -2.7170012
  21.6800012  34.0064997  -1.3360012  21.7866164  34.0935622  -2.1955077
  24.8870012  35.0544997  -5.9980012  24.4620012  35.8634997  -6.2810012
  25.7910012  35.1394997  -6.3000012  24.9510271  35.1768469  -6.0776224
  29.1980012  36.4534997  -3.0390012  29.3830012  36.1194997  -2.1610012
  30.0440012  36.7624997  -3.3610012  29.3377539  36.4496047  -2.9624395
  31.5430012  37.7394997  -3.7950012  32.2200012  37.1064997  -4.0350012
  31.8650012  38.1404997  -2.9880012  31.6791637  37.7071154  -3.7187207
  36.4600012  20.3284997  -4.7150012  35.6480012  20.6534997  -5.1030012
  36.6930012  19.5684997  -5.2480012  36.3803423  20.2702436  -4.8401747
  22.2890012  38.3104997  -5.9510012  21.5680012  38.7504997  -6.4020012
  21.9230012  38.0594997  -5.1020012  22.1409804  38.3367698  -5.8980160
  24.7560012  37.9104997  -6.9210012  23.8910012  37.9824997  -6.5170012
  24.7010012  38.4574997  -7.7050012  24.6302085  37.9942685  -6.9716638
  29.4660012  37.7984997  -7.7460012  29.0100012  38.3274997  -8.4000012
  29.6290012  38.4014997  -7.0200012  29.4255585  37.9524468  -7.7374938
  31.7940012  36.6764997  -6.8010012  30.8890012  36.8414997  -7.0660012
  32.2230012  37.5294997  -6.8660012  31.7280799  36.8144483  -6.8460818
  34.3980012  38.2464997  -6.5060012  34.2160012  39.1624997  -6.7160012
  34.5750012  37.8364997  -7.3520012  34.3970210  38.3164822  -6.6492115
  21.7030012  36.9334997  -9.0410012  21.6850012  36.5084997  -8.1830012
  22.5080012  36.6154997  -9.4490012  21.8093875  36.8323812  -8.9788345
  23.8450012  35.6434997 -10.3860012  23.6260012  34.7274997 -10.2160012
  24.6690012  35.7834997  -9.9200012  23.9264420  35.5370520 -10.2997226
  26.3820012  36.1134997  -9.5370012  26.5950012  35.2254997  -9.8240012
  26.4460012  36.0794997  -8.5830012  26.4198232  35.9873102  -9.4472603
  29.8900012  21.7774997 -10.3930012  29.2160012  21.1484997 -10.1370012
  30.4540012  21.2934997 -10.9960012  29.8739230  21.6258744 -10.4394660
  35.0330012  19.8854997 -10.2800012  35.6370012  20.4324997 -10.7820012
  34.1630012  20.2044997 -10.5200012  34.9981241  20.0035806 -10.3812346
  36.7600012  21.0234997 -11.9470012  37.3720012  20.5094997 -12.4730012
  37.1420012  21.9014997 -11.9230012  36.8954540  21.0717140 -12.0158170
  22.2170012  20.4114997 -12.5710012  21.4400012  20.1774997 -13.0780012
  22.7470012  19.6144997 -12.5620012  22.1822330  20.2716988 -12.6392258
  21.0530012  20.2094997 -16.7670012  21.4920012  20.8204997 -17.3590012
  20.4200012  20.7474997 -16.2930012  21.0274514  20.3659257 -16.7839070
  26.7960012  20.3384997 -12.7570012  27.6710012  20.7264997 -12.7870012
  26.6600012  20.1234997 -11.8350012  26.8973695  20.3625184 -12.6363560
  32.3530012  20.3684997 -11.1080012  32.4290012  20.4634997 -12.0580012
  32.0780012  19.4604997 -10.9790012  32.3262321  20.2587867 -11.2204921
  33.7060012  20.3944997 -15.4160012  33.0040012  21.0094997 -15.6250012
  33.2620012  19.5564997 -15.2850012  33.5496330  20.3655783 -15.4269672
  20.9540012  36.1574997 -15.8690012  20.2690012  36.1194997 -16.5370012
  20.9580012  37.0704997 -15.5810012  20.8608193  36.2757016 -15.9214716
  22.9140012  22.1254997 -18.3250012  23.4060012  21.4954997 -18.8520012
  23.5380012  22.4214997 -17.6610012  23.0655446  22.0793199 -18.3074020
  27.9400012  22.4184997 -15.8680012  28.1180012  21.7724997 -15.1850012
  27.8870012  23.2524997 -15.4000012  27.9571829  22.4427985 -15.7114060
  29.8190012  37.3674997 -17.4720012  30.6850012  37.7334997 -17.6500012
  29.5720012  36.9274997 -18.2860012  29.9042392  37.3581756 -17.6063711
  36.5280012  36.9304997 -14.7930012  36.3330012  36.1824997 -15.3580012
  36.4890012  37.6884997 -15.3760012  36.4960380  36.9306099 -14.9491616
  22.1750012  20.9254997  -3.0530012  21.8090012  20.1604997  -2.6100012
  23.0880012  20.9544997  -2.7660012  22.2482790  20.8247224  -2.9535930
  24.1480012  20.2764997  -1.5170012  25.0460012  20.0024997  -1.7020012
  23.7610012  19.5334997  -1.0530012  24.2186612  20.1385914  -1.4796357
  22.7720012  37.0774997 -18.8440012  22.5050012  37.3644997 -17.9710012
  23.5440012  36.5314997 -18.6920012  22.8397488  37.0430294 -18.7038950
  32.5690012  19.6084997  -1.3350012  32.6460012  19.1824997  -0.4810012
  33.4630012  19.6224997  -1.6780012  32.7003428  19.5520879  -1.2644690
  35.7450012  35.6814997  -2.6430012  34.9630012  35.4954997  -3.1620012
  35.6730012  36.6104997  -2.4250012  35.6281777  35.7816492  -2.6845952
  50.1510012  29.5674997 -12.6120012  50.2400012  30.5114997 -12.7440012
  49.5130012  29.2924997 -13.2700012  50.0769081  29.6594830 -12.7190386
  49.0840012  28.8224997  -9.1930012  49.0460012  28.1764997  -8.4880012
  48.7620012  28.3564997  -9.9640012  49.0352333  28.6709408  -9.2007022
  41.4530012  28.4374997  -7.6000012  41.4940012  27.8114997  -6.8770012
  42.1560012  29.0614997  -7.4180012  41.5536363  28.4361196  -7.4763956
  52.7900012  31.7614997 -10.8920012  52.3500012  31.0414997 -10.4410012
  52.7770012  32.4824997 -10.2620012  52.7280226  31.7603731 -10.7451506
  42.3760012  32.8874997  -9.0650012  42.0070012  32.0854997  -9.4350012
  43.3170012  32.7184997  -9.0190012  42.4527289  32.7550153  -9.1093684
  38.9860012  26.5474997 -13.6720012  38.5390012  27.3934997 -13.6910012
  38.4250012  25.9674997 -14.1880012  38.8489900  26.5849916 -13.7443199
  39.6970012  28.7094997 -11.5460012  39.9100012  27.9394997 -11.0190012
  40.4350012  28.7984997 -12.1500012  39.8258496  28.6161394 -11.5554700
  49.9020012  36.8664997 -10.6790012  50.5220012  36.1894997 -10.9530012
  49.6940012  36.6484997  -9.7710012  49.9586904  36.7443870 -10.5936635
  47.4740012  31.2554997  -8.7870012  47.7780012  30.5694997  -9.3820012
  48.1950012  31.3734997  -8.1690012  47.6130671  31.1776305  -8.7848184
  56.1370012  22.8564997  -7.9260012  56.1860012  23.4664997  -7.1900012
  56.5620012  23.3174997  -8.6490012  56.2011824  23.0023741  -7.9229795
  50.6150012  25.6494997  -8.4590012  50.7570012  24.7034997  -8.4390012
  50.5080012  25.8564997  -9.3880012  50.6199864  25.5479534  -8.5817661
  43.7690012  23.7504997 -11.1870012  43.8130012  24.6104997 -11.6050012
  43.3120012  23.1984997 -11.8210012  43.7132185  23.7935799 -11.3299701
  51.4920012  23.8814997 -12.7860012  52.1380012  23.5524997 -12.1610012
  52.0020012  24.3994997 -13.4090012  51.6494264  23.9064611 -12.7846138
  40.3900012  26.1474997 -10.4250012  41.0430012  25.5974997  -9.9930012
  40.4140012  25.8734997 -11.3420012  40.4826683  26.0351466 -10.4897877
  45.5460012  27.6974997 -11.2100012  46.1620012  27.1714997 -10.7000012
  44.9600012  27.0574997 -11.6130012  45.5510810  27.5389208 -11.1946827
  56.5280012  24.3344997  -5.6900012  55.8400012  24.9924997  -5.7860012
  56.5440012  24.1374997  -4.7540012  56.4358525  24.3980462  -5.5765192
  42.5800012  22.6684997  -7.1130012  42.3610012  23.1984997  -7.8790012
  41.9120012  22.8954997  -6.4660012  42.4597600  22.7716906  -7.1303621
  49.9490012  32.1684997 -13.5690012  49.6530012  31.8464997 -14.4200012
  49.6240012  33.0684997 -13.5280012  49.8646371  32.2460215 -13.6798199
  45.1490012  30.3444997  -6.8260012  44.4090012  30.9424997  -6.7220012
  45.8630012  30.8984997  -7.1410012  45.1442237  30.5012831  -6.8543535
  53.2560012  23.1724997 -10.8060012  53.0400012  22.4064997 -10.2730012
  53.9110012  23.6444997 -10.2930012  53.3150632  23.1315889 -10.6637139
  42.1730012  24.5604997  -9.1610012  42.7870012  25.1934997  -8.7870012
  42.6850012  24.0884997  -9.8170012  42.3262296  24.5832370  -9.1985748
  43.5560012  32.3084997  -6.0380012  43.5510012  33.1884997  -6.4160012
  42.7030012  32.2254997  -5.6130012  43.4399464  32.4176117  -6.0322093
  39.6770012  31.9794997 -15.2560012  39.4050012  32.2084997 -16.1450012
  39.7230012  32.8174997 -14.7960012  39.6460094  32.1241213 -15.3154303
  53.3020012  33.6014997  -8.5440012  52.3610012  33.6594997  -8.3820012
  53.5790012  34.5074997  -8.6810012  53.2104679  33.7319443  -8.5403185
  53.6030012  21.8874997  -7.1260012  52.8670012  22.4984997  -7.1640012
  54.2860012  22.3024997  -7.6530012  53.5946541  22.0271374  -7.2024168
  46.6060012  19.9744997  -9.6600012  46.4890012  19.0254997  -9.7150012
  45.7510012  20.3064997  -9.3870012  46.4743733  19.8895409  -9.6306103
  51.5540012  35.3824997 -11.9180012  51.9800012  34.6754997 -12.4030012
  51.8710012  36.1834997 -12.3350012  51.6551019  35.3940994 -12.0406870
  52.7140012  33.2834997 -13.4100012  52.4560012  32.5934997 -14.0210012
  52.7850012  32.8404997 -12.5640012  52.6882856  33.1292124 -13.3793115
  54.4000012  31.8494997  -4.9320012  54.5400012  31.2584997  -5.6720012
  54.5670012  32.7224997  -5.2890012  54.4416778  31.8866426  -5.0813035
  48.8730012  28.8114997 -15.1600012  48.1610012  29.3464997 -15.5120012
  49.5640012  28.8674997 -15.8200012  48.8690132  28.8922543 -15.2973711
  48.9260012  27.2694997 -18.1210012  49.6270012  27.2914997 -17.4700012
  49.2290012  26.6414997 -18.7770012  49.0627830  27.1876566 -18.1206289
  56.2420012  28.1894997  -6.8660012  55.5890012  28.8844997  -6.7770012
  56.7070012  28.3994997  -7.6760012  56.2155390  28.3129425  -6.9633117
  52.2780012  29.0214997 -14.2080012  51.5460012  29.2494997 -13.6350012
  52.7260012  28.3074997 -13.7530012  52.2383095  28.9562571 -14.0680881
  52.1760012  27.1954997  -5.1410012  52.2560012  27.9584997  -4.5690012
  51.5740012  27.4744997  -5.8310012  52.1055756  27.3377134  -5.1559411
  43.9240012  29.6514997 -12.3260012  43.5930012  29.2814997 -13.1440012
  44.5120012  28.9814997 -11.9790012  43.9581873  29.5101156 -12.3911898
  45.2900012  33.0794997  -9.6440012  45.1960012  32.5014997 -10.4010012
  46.0200012  32.7084997  -9.1480012  45.3757981  32.9502390  -9.6805835
  44.2900012  28.4204997  -8.6920012  44.8560012  28.5414997  -9.4550012
  44.6090012  29.0574997  -8.0530012  44.4105786  28.5231884  -8.7099960
  50.5990012  33.9234997  -7.9580012  50.3590012  34.5854997  -7.3100012
  50.4010012  33.0894997  -7.5330012  50.5393808  33.9013134  -7.8118476
  45.1700012  32.8194997  -3.9750012  44.8590012  33.6014997  -3.5200012
  44.5200012  32.6664997  -4.6610012  45.0395558  32.9059105  -4.0054129
  51.1490012  28.1834997 -16.5230012  51.7290012  28.3334997 -15.7760012
  51.5630012  28.6544997 -17.2460012  51.2842830  28.2676841 -16.5185866
  42.0900012  29.0174997  -4.7460012  42.1610012  29.6684997  -4.0480012
  41.2000012  29.1204997  -5.0810012  41.9793117  29.1205936  -4.6957300
  48.8760012  34.9204997 -13.0880012  49.3500012  35.2154997 -12.3100012
  48.3130012  35.6584997 -13.3210012  48.8647653  35.0606932 -13.0129864
  43.4100012  34.8914997  -3.2120012  43.4170012  34.7554997  -4.1590012
  42.4940012  34.7734997  -2.9600012  43.2871714  34.8569430  -3.3075334
  54.8480012  19.9334997 -16.7100012  53.9480012  20.0724997 -16.4150012
  55.1000012  20.7644997 -17.1120012  54.7588702  20.0649074 -16.7239795
  42.9140012  28.7214997 -14.7360012  42.6220012  29.4894997 -15.2270012
  42.2400012  28.0614997 -14.8990012  42.7829081  28.7374406 -14.8252660
  56.0370012  34.2994997 -18.3340012  56.1110012  35.2384997 -18.1630012
  56.9430012  33.9944997 -18.3900012  56.1695100  34.3866722 -18.3181881
  39.0070012  31.0844997  -5.9210012  38.5060012  31.0564997  -6.7360012
  39.0120012  30.1784997  -5.6120012  38.9391526  30.9582278  -5.9907128
  38.7570012  33.8644997  -9.0370012  39.7030012  33.7204997  -9.0560012
  38.6450012  34.6484997  -8.5000012  38.8712727  33.9508046  -8.9669928
  56.9550012  34.5304997  -3.3550012  56.9060012  33.5754997  -3.3920012
  56.1280012  34.7984997  -2.9540012  56.8364940  34.4358998  -3.3058625
  47.9340012  34.1044997  -4.4790012  48.0210012  34.9304997  -4.0040012
  47.0700012  33.7744997  -4.2300012  47.8291964  34.1729878  -4.3803451
  48.3480012  37.8764997 -14.6730012  48.2730012  37.7554997 -15.6190012
  48.3810012  38.8264997 -14.5540012  48.3421848  37.9882500 -14.7865166
  42.0010012  36.6654997 -12.8920012  42.1540012  36.3174997 -12.0130012
  41.1510012  36.3094997 -13.1470012  41.9068962  36.5696650 -12.8061660
  51.4500012  37.0304997 -17.6710012  51.8250012  36.2864997 -18.1410012
  51.4540012  36.7604997 -16.7520012  51.5018915  36.8921486 -17.6112176
  51.1190012  36.9564997 -14.9210012  50.1830012  37.0564997 -14.7430012
  51.3990012  36.2474997 -14.3430012  51.0288255  36.8742711 -14.8184609
  54.1070012  26.0234997  -2.8750012  53.7000012  26.5044997  -3.5960012
  54.1480012  25.1184997  -3.1830012  54.0568437  25.9669374  -3.0153317
  41.2560012  32.4074997  -4.8780012  41.4720012  32.0464997  -4.0190012
  40.4010012  32.0334997  -5.0880012  41.1699292  32.3074111  -4.7886614
  43.8750012  20.8774997  -8.8830012  43.0130012  20.7904997  -9.2900012
  43.8520012  21.7334997  -8.4550012  43.7540330  20.9812765  -8.8808137
  48.5380012  20.5994997  -5.5080012  48.9580012  20.1844997  -4.7550012
  47.6050012  20.4214997  -5.3910012  48.4693644  20.5185900  -5.3890461
  51.8640012  24.3554997  -4.6550012  51.3500012  24.2294997  -3.8570012
  51.7090012  25.2674997  -4.8990012  51.7726852  24.4616132  -4.5787842
  52.6270012  29.2164997 -18.8930012  52.6690012  28.9934997 -19.8230012
  53.4760012  29.6154997 -18.7030012  52.7475396  29.2399155 -18.9946373
  48.1990012  23.0924997 -18.2230012  47.9460012  23.1114997 -17.3000012
  47.9430012  22.2204997 -18.5240012  48.1297790  22.9772437 -18.1373737
  43.9660012  25.8434997  -7.7880012  43.3240012  25.8024997  -7.0790012
  44.0030012  26.7694997  -8.0250012  43.8831324  25.9631559  -7.7230176
  43.9630012  26.0644997 -12.8760012  43.0700012  25.7234997 -12.9340012
  44.4130012  25.6874997 -13.6310012  43.9017305  25.9668484 -12.9860823
  49.4980012  26.4804997 -14.0590012  49.0890012  27.2954997 -14.3500012
  50.2190012  26.3404997 -14.6730012  49.5394537  26.5732018 -14.1818658
  48.6000012  26.6554997  -2.5710012  48.0380012  25.9514997  -2.2500012
  49.4270012  26.5354997  -2.1030012  48.6347095  26.5427883  -2.4637670
  50.5030012  25.9264997 -11.2450012  50.3080012  26.5314997 -11.9600012
  50.6840012  25.0924997 -11.6790012  50.5007614  25.8966300 -11.4015595
  41.7160012  26.1634997  -5.9210012  41.6780012  26.5634997  -5.0520012
  41.2250012  25.3464997  -5.8300012  41.6444684  26.1078069  -5.7898941
  45.0820012  23.5374997 -19.1220012  44.6510012  23.0924997 -18.3920012
  44.3640012  23.9094997 -19.6340012  44.9259438  23.5268940 -19.0913201
  38.3240012  23.2794997 -12.0700012  38.9550012  23.2504997 -11.3510012
  38.7730012  22.8544997 -12.8000012  38.4710774  23.2180492 -12.0703447
  39.5980012  24.0254997 -16.6460012  40.0720012  24.6164997 -17.2310012
  38.8810012  24.5564997 -16.2990012  39.5659341  24.1780867 -16.6791164
  49.7670012  27.5644997  -6.5730012  50.0900012  26.9334997  -7.2160012
  49.3270012  27.0294997  -5.9130012  49.7516895  27.4058441  -6.5717150
  46.5440012  23.4914997 -11.7890012  45.6330012  23.5484997 -11.5010012
  47.0500012  23.4314997 -10.9790012  46.4875413  23.4911985 -11.6399378
  41.3730012  25.1204997 -12.9630012  40.4830012  25.2204997 -13.3030012
  41.6690012  24.2784997 -13.3090012  41.2912823  25.0203545 -13.0562787
  45.0260012  25.1204997 -15.3060012  45.9570012  25.2494997 -15.1280012
  44.8110012  25.7904997 -15.9560012  45.1244247  25.2286565 -15.3694253
  50.9490012  22.7264997  -8.5250012  50.2730012  22.8574997  -7.8610012
  50.4640012  22.5714997  -9.3350012  50.7907145  22.7234905  -8.5435483
  43.7000012  26.3154997 -17.7390012  43.1570012  25.9354997 -18.4310012
  44.5330012  26.5094997 -18.1680012  43.7384399  26.2898124 -17.8915474
  54.2370012  38.3984997  -2.2480012  54.4370012  38.8224997  -3.0830012
  54.8920012  38.7414997  -1.6410012  54.3530051  38.5029648  -2.2802164
  41.8350012  30.8724997  -2.6400012  42.5670012  31.1264997  -2.0790012
  41.0550012  31.0764997  -2.1250012  41.8298232  30.9349177  -2.4934240
  47.8640012  26.2794997  -9.9020012  48.4290012  25.7324997 -10.4490012
  47.7170012  25.7574997  -9.1140012  47.9212918  26.1342024  -9.8701546
  42.8660012  22.4154997 -13.4840012  42.5490012  21.5134997 -13.5190012
  43.6480012  22.4174997 -14.0370012  42.9282284  22.2921628 -13.5635217
  46.4910012  24.6674997  -7.4880012  45.6550012  25.1214997  -7.3780012
  47.0150012  24.9434997  -6.7360012  46.4474414  24.7669376  -7.3712864
  47.0350012  30.8804997 -15.8040012  46.2900012  30.3734997 -16.1260012
  46.9010012  30.9294997 -14.8570012  46.9148776  30.8176940 -15.7201353
  54.1850012  30.0134997  -7.0170012  54.8270012  30.4704997  -7.5610012
  53.3550012  30.1264997  -7.4800012  54.1605963  30.0912704  -7.1539823
  50.9330012  23.6944997 -17.6040012  49.9940012  23.8064997 -17.7560012
  51.2300012  24.5514997 -17.2980012  50.8447666  23.8256443 -17.5834232
  48.5540012  31.0644997  -4.5670012  48.2090012  30.6834997  -3.7600012
  48.3540012  31.9984997  -4.4950012  48.4798061  31.1385228  -4.4469039
  51.6510012  25.5614997 -15.9440012  52.5430012  25.4244997 -15.6250012
  51.7080012  26.3524997 -16.4800012  51.7806285  25.6496660 -15.9728309
  42.1600012  30.1754997 -10.0340012  42.9050012  30.1734997 -10.6350012
  42.2380012  29.3524997  -9.5520012  42.2725518  30.0639315 -10.0511071
  49.1610012  32.3394997 -16.7780012  48.8650012  33.1654997 -16.3970012
  48.4580012  31.7194997 -16.5820012  49.0254914  32.3688199 -16.6993557
  39.1680012  28.6364997  -4.7190012  39.3910012  28.2184997  -3.8870012
  38.5660012  28.0234997  -5.1420012  39.1171759  28.4964668  -4.6622978
  46.1840012  28.1534997  -2.5060012  45.8880012  27.9874997  -3.4010012
  47.1160012  27.9334997  -2.5170012  46.2694166  28.1010640  -2.6299464
  50.8050012  33.5264997  -4.6160012  49.9040012  33.7094997  -4.8840012
  50.8390012  33.7854997  -3.6950012  50.6863041  33.5865512  -4.5281803
  56.5360012  25.7714997 -16.2490012  55.9820012  25.3754997 -16.9210012
  56.6360012  26.6814997 -16.5270012  56.4737059  25.8403586 -16.3785599
  56.4990012  31.5714997  -3.4120012  55.6480012  31.8094997  -3.7790012
  57.0900012  31.5544997  -4.1650012  56.4622487  31.6018258  -3.5641107
  54.8310012  34.5574997 -15.7840012  54.4580012  33.7314997 -15.4750012
  55.1090012  34.3744997 -16.6810012  54.8175630  34.4197303 -15.8630374
  51.9920012  29.3654997  -8.7630012  51.0630012  29.1334997  -8.7900012
  52.4430012  28.5884997  -9.0930012  51.9259216  29.2287238  -8.8113083
  44.5350012  33.6934997 -12.6300012  45.0620012  34.4664997 -12.8300012
  43.6550012  33.9184997 -12.9310012  44.4881773  33.8298005 -12.6980990
  40.2900012  28.5554997 -18.0430012  40.9060012  29.1824997 -17.6630012
  39.4280012  28.8714997 -17.7710012  40.2577698  28.6839430 -17.9542817
  45.9620012  31.3564997 -13.0530012  45.7210012  32.2814997 -13.0120012
  45.2210012  30.8974997 -12.6570012  45.8288409  31.4211421 -12.9938623
  46.4770012  35.5054997  -6.7380012  46.8390012  36.3604997  -6.9720012
  47.0080012  35.2134997  -5.9980012  46.5984473  35.5831060  -6.6699145
  44.6450012  36.3784997 -13.5080012  43.6950012  36.4834997 -13.4570012
  44.9970012  37.1984997 -13.1630012  44.5624203  36.5038314 -13.4543350
  50.0210012  31.6044997  -7.0380012  49.5950012  31.3774997  -6.2110012
  50.6010012  30.8664997  -7.2200012  50.0411868  31.4735299  -6.9494170
  52.2240012  32.5334997 -17.9640012  52.5770012  32.1534997 -17.1590012
  51.2750012  32.4404997 -17.8770012  52.1440441  32.4689596 -17.8421441
  52.6790012  36.1564997  -4.5680012  52.0780012  35.6014997  -5.0640012
  52.9610012  36.8234997  -5.1940012  52.6348519  36.1706841  -4.7205048
  56.7270012  37.0134997 -17.7630012  57.4710012  37.5994997 -17.9030012
  56.0330012  37.5814997 -17.4290012  56.7350292  37.1705582 -17.7370039
  40.8020012  23.3894997  -5.1610012  39.9090012  23.7284997  -5.2290012
  40.7030012  22.5344997  -4.7430012  40.6664164  23.3202588  -5.1137765
  53.0900012  31.2064997 -15.7370012  52.8120012  30.4784997 -15.1810012
  54.0170012  31.3254997 -15.5320012  53.1773124  31.1228802 -15.6331155
  40.4530012  35.1944997  -6.7260012  40.6700012  34.2624997  -6.7570012
  40.6990012  35.4684997  -5.8430012  40.5159549  35.1040636  -6.6108237
  46.3150012  33.6454997 -19.5170012  46.5540012  32.8974997 -20.0640012
  46.0460012  33.2574997 -18.6840012  46.3113675  33.4906638 -19.4793135
  45.2520012  33.2154997 -17.0600012  45.3980012  32.6954997 -16.2700012
  45.2490012  34.1224997 -16.7540012  45.2715989  33.2668853 -16.9103912
  41.7050012  30.4684997 -16.5500012  41.0190012  30.8204997 -15.9830012
  42.2270012  31.2314997 -16.7970012  41.6816852  30.6198578 -16.5057882
  49.5360012  23.1304997  -6.2710012  50.2350012  23.2044997  -5.6210012
  49.1550012  22.2664997  -6.1170012  49.5801767  23.0237624  -6.1611678
  50.3210012  22.7824997 -15.1740012  50.5410012  23.2544997 -15.9770012
  50.8790012  23.1774997 -14.5040012  50.4264968  22.9004285 -15.1932669
  47.9890012  34.9134997 -16.3110012  47.1730012  35.4104997 -16.2590012
  48.5190012  35.3884997 -16.9510012  47.9489161  35.0457722 -16.3904044
  47.5210012  24.5104997 -14.3390012  48.3330012  25.0154997 -14.2930012
  47.2760012  24.3654997 -13.4250012  47.5990520  24.5600375 -14.2091483
  48.0560012  25.4964997  -5.1540012  48.1750012  26.0704997  -4.3970012
  48.7120012  24.8084997  -5.0400012  48.1609757  25.4821079  -5.0349175
  48.4040012  21.5914997 -13.4010012  48.0580012  22.2094997 -12.7560012
  49.0630012  22.0924997 -13.8820012  48.4457826  21.7435802 -13.3779029
  45.3280012  35.9574997 -16.3290012  45.4880012  36.7564997 -16.8300012
  45.1300012  36.2634997 -15.4440012  45.3231649  36.1084469 -16.2780185
  44.0620012  22.6544997 -16.7140012  43.9790012  23.5434997 -16.3670012
  44.9520012  22.3894997 -16.4820012  44.1709469  22.7401430 -16.6352374
  54.2610012  23.4034997  -4.3190012  53.3440012  23.6664997  -4.4070012
  54.5960012  23.4004997  -5.2160012  54.1809900  23.4390224  -4.4522081
  52.8630012  27.1544997 -10.2240012  52.0650012  26.7394997 -10.5520012
  53.3080012  26.4634997  -9.7330012  52.8139885  27.0043543 -10.2025111
  42.3210012  33.0824997 -17.6530012  42.9130012  33.7814997 -17.3770012
  42.7800012  32.6494997 -18.3730012  42.4641142  33.1197049 -17.7125170
  40.6370012  25.7464997 -18.5370012  40.5920012  26.6854997 -18.3590012
  39.7490012  25.5104997 -18.8070012  40.5108574  25.8431892 -18.5491088
  53.9490012  36.4104997  -8.6010012  53.7940012  37.0884997  -9.2580012
  54.8820012  36.4824997  -8.3980012  54.0538500  36.5130170  -8.6634881
  41.4450012  20.5284997  -9.8640012  41.2160012  20.5874997 -10.7920012
  41.0020012  19.7364997  -9.5580012  41.3538530  20.4295753  -9.9495214
  40.3750012  34.4684997 -13.7040012  39.5430012  34.9414997 -13.6760012
  40.9210012  34.9784997 -14.3020012  40.3349739  34.6021871 -13.7810284
  39.6630012  37.0814997  -2.3740012  40.2040012  36.8644997  -1.6140012
  39.1820012  36.2754997  -2.5630012  39.6719345  36.9429514  -2.2956924
  44.2610012  36.0004997  -0.7530012  45.0280012  35.5414997  -0.4120012
  44.2390012  35.7744997  -1.6830012  44.3631434  35.9070409  -0.8319957
  48.3530012  35.5084997 -19.3780012  47.7090012  34.8774997 -19.0570012
  49.1150012  34.9774997 -19.6100012  48.3678077  35.3502920 -19.3653989
  50.8380012  34.3804997  -2.0240012  50.4870012  33.5244997  -1.7810012
  51.5640012  34.5234997  -1.4170012  50.8880769  34.2825636  -1.9086381
  52.9570012  35.3254997 -19.1440012  53.2400012  34.5314997 -18.6920012
  53.6970012  35.5584997 -19.7050012  53.0957486  35.2482803 -19.1579302
  39.5700012  30.8914997  -1.4190012  39.7140012  29.9894997  -1.7060012
  38.7980012  31.1774997  -1.9070012  39.4853322  30.8068261  -1.5242119
  43.9120012  31.2354997 -19.2870012  43.9760012  30.4414997 -18.7560012
  44.5650012  31.1164997 -19.9770012  44.0090241  31.1107148 -19.3075683
  46.2260012  30.8614997  -1.9870012  45.8970012  31.1324997  -2.8440012
  46.3780012  29.9204997  -2.0740012  46.2014809  30.7713862  -2.1161756
  51.9600012  30.7774997  -4.6030012  52.7060012  31.3654997  -4.7230012
  51.2030012  31.3594997  -4.5400012  51.9597554  30.9367011  -4.6109093
  40.4030012  28.0914997  -1.9990012  40.8110012  27.2344997  -2.1200012
  40.1430012  28.1064997  -1.0780012  40.4237568  27.9760807  -1.8910412
  45.0610012  29.2074997 -16.9810012  44.6010012  28.7234997 -16.2950012
  45.3160012  28.5394997 -17.6170012  45.0324902  29.0508731 -16.9730666
  44.3500012  27.1004997  -4.6250012  43.7320012  27.7754997  -4.3450012
  44.6940012  27.4214997  -5.4580012  44.3119615  27.2362721  -4.6993419
  46.1320012  27.4504997 -18.7190012  45.9520012  27.2964997 -19.6460012
  47.0820012  27.5584997 -18.6740012  46.2357776  27.4440175 -18.8398157
  49.3700012  29.5724997  -1.3480012  50.3230012  29.6554997  -1.3750012
  49.2090012  28.8604997  -0.7280012  49.4786426  29.4876746  -1.2679421
  55.5220012  29.8054997 -19.2730012  55.2480012  29.3804997 -20.0860012
  55.5610012  30.7364997 -19.4900012  55.4897699  29.8732484 -19.4136390
  44.6890012  24.4554997  -3.5430012  44.8390012  23.7264997  -4.1450012
  44.6920012  25.2324997  -4.1020012  44.7099302  24.4607851  -3.7009308
  45.1020012  22.8254997  -6.0500012  45.6380012  23.2764997  -6.7020012
  44.2500012  22.7174997  -6.4730012  45.0602178  22.8726390  -6.1964244
  46.6840012  28.2644997  -5.8110012  47.4340012  28.1084997  -6.3840012
  46.3450012  29.1164997  -6.0860012  46.7408921  28.3582968  -5.9266439
  51.0990012  26.0794997  -0.7820012  51.2920012  25.1484997  -0.8940012
  51.9570012  26.5044997  -0.7920012  51.2413020  26.0096389  -0.7986639
  52.4160012  28.8684997  -2.7050012  52.1350012  29.5774997  -3.2820012
  53.3590012  28.7954997  -2.8560012  52.5049027  28.9557646  -2.8044449
  43.1680012  25.6534997  -1.6310012  42.4010012  25.1214997  -1.8410012
  43.8470012  25.3434997  -2.2310012  43.1547022  25.5387506  -1.7408352
  45.9080012  20.2814997  -5.6190012  45.8090012  21.2284997  -5.7240012
  45.1650012  19.9094997  -6.0940012  45.7940564  20.3605902  -5.6975440
  47.1720012  24.6034997  -2.0550012  46.9360012  24.3834997  -1.1530012
  46.3880012  24.3964997  -2.5650012  47.0338628  24.5454760  -2.0006068
  49.8870012  23.7304997  -2.9790012  48.9400012  23.7624997  -2.8470012
  50.2000012  23.1054997  -2.3260012  49.7995475  23.6503207  -2.8725545
  51.5210012  22.3644997  -0.9740012  51.4250012  21.4124997  -0.9800012
  51.2000012  22.6334997  -0.1140012  51.4644070  22.2704035  -0.8584559
  41.3480012  23.5744997  -1.9270012  41.5600012  22.8674997  -2.5370012
  41.2370012  23.1364997  -1.0830012  41.3619721  23.4187084  -1.8963157
  46.1290012  19.5754997  -2.9470012  46.8410012  18.9354997  -2.9610012
  46.0280012  19.8424997  -3.8610012  46.2127939  19.5239938  -3.0724350
  46.4830012  21.2584997  -0.8940012  46.3510012  20.7824997  -1.7140012
  45.8840012  22.0024997  -0.9490012  46.3839071  21.2939618  -1.0137114
  46.0290012  38.1414997 -17.7170012  46.9620012  38.2994997 -17.5740012
  45.7650012  38.8164997 -18.3420012  46.1209510  38.2543611 -17.7819259
  39.5980012  32.7774997 -18.2350012  40.5120012  32.8564997 -17.9610012
  39.6050012  32.0904997 -18.9010012  39.7241131  32.6953961 -18.2875607
  38.2470012  38.1704997 -13.1570012  37.6000012  37.7084997 -13.6900012
  38.6010012  37.4984997 -12.5750012  38.2063849  38.0164723 -13.1512041
  39.1170012  36.2514997 -11.3530012  38.7820012  35.3714997 -11.1810012
  39.3390012  36.5964997 -10.4880012  39.1011783  36.1777501 -11.2125792
  56.6650012  37.0604997  -8.3720012  56.6440012  37.2454997  -7.4330012
  57.3560012  37.6294997  -8.7130012  56.7554618  37.1626606  -8.2896136
  56.2290012  36.6284997  -5.4500012  55.7410012  35.8924997  -5.8210012
  56.7780012  36.2344997  -4.7720012  56.2364872  36.4746249  -5.4090840
  54.6790012  32.4174997  -0.8120012  53.8130012  32.3124997  -0.4180012
  55.0560012  33.1764997  -0.3660012  54.6113308  32.5056900  -0.6977607
  55.9800012  30.6744997 -15.2980012  56.8300012  31.0954997 -15.1710012
  55.9860012  29.9344997 -14.6910012  56.0971372  30.6320803 -15.1985656
  56.3750012  28.7274997 -13.4740012  55.6480012  28.2484997 -13.0770012
  56.9560012  28.9334997 -12.7420012  56.3539375  28.6897090 -13.3205871
  56.1340012  31.5124997  -8.5270012  56.9670012  31.1344997  -8.8070012
  56.2460012  32.4554997  -8.6460012  56.2632647  31.5882218  -8.5814513
  54.6200012  34.3904997  -6.2200012  53.9730012  34.7154997  -5.5940012
  54.1030012  33.9504997  -6.8940012  54.4614029  34.3755004  -6.2254173
  56.6430012  28.6284997 -17.0830012  56.1210012  28.9854997 -17.8020012
  56.6100012  29.3034997 -16.4050012  56.5671634  28.7685413 -17.0896855
  54.9920012  25.8684997 -18.5320012  55.0880012  26.5354997 -19.2130012
  54.8520012  25.0524997 -19.0140012  54.9862135  25.8494500 -18.6901509
  54.1610012  27.2484997 -12.9110012  54.0110012  26.3034997 -12.9320012
  53.8080012  27.5294997 -12.0680012  54.0926625  27.1570441 -12.7997654
  39.1970012  29.3264997  -8.9010012  39.3810012  29.2444997  -9.8370012
  40.0460012  29.2024997  -8.4770012  39.3370139  29.2985003  -8.9718545
  55.0180012  29.2184997  -3.2730012  55.6010012  28.4844997  -3.0810012
  55.5820012  29.9904997  -3.2260012  55.1739769  29.2224227  -3.2403841
  56.5140012  27.1214997  -2.5880012  55.6510012  26.7424997  -2.7540012
  57.1190012  26.3824997  -2.6620012  56.4775979  26.9698023  -2.6207183
  54.2390012  23.2764997 -19.4150012  54.8500012  22.9054997 -18.7780012
  53.4030012  22.8554997 -19.2190012  54.2095032  23.1687554 -19.3012965
  53.8720012  24.8314997 -14.4490012  54.1520012  23.9244997 -14.3250012
  54.6310012  25.2654997 -14.8380012  54.0129277  24.7660942 -14.4846318
  54.4840012  25.4124997  -9.0130012  55.4170012  25.6244997  -9.0470012
  54.2490012  25.5144997  -8.0910012  54.5798036  25.4552769  -8.8930024
  54.5130012  26.1494997  -6.2370012  53.6700012  26.4174997  -5.8710012
  54.9550012  26.9714997  -6.4480012  54.4574158  26.2973291  -6.2154509
  38.7940012  24.5974997  -2.7600012  39.7140012  24.4754997  -2.5240012
  38.3450012  23.8474997  -2.3710012  38.8591580  24.4793727  -2.6750994
  56.7960012  20.1294997  -0.8840012  57.1460012  19.4754997  -1.4890012
  56.9430012  20.9664997  -1.3230012  56.8638419  20.1531591  -1.0262882
  54.4850012  22.0944997 -14.4010012  54.6680012  21.6454997 -13.5750012
  53.8860012  21.5094997 -14.8640012  54.4290202  21.9539975 -14.3506725
  40.0150012  22.9094997  -9.8690012  40.4610012  22.1174997  -9.5670012
  40.4820012  23.6254997  -9.4380012  40.1390172  22.8980624  -9.7695180
  38.3190012  25.9084997  -8.8000012  38.8110012  25.6874997  -9.5910012
  38.6820012  26.7494997  -8.5190012  38.4353126  25.9918357  -8.8702469
  56.3160012  22.2384997  -2.5340012  55.3980012  22.5094997  -2.5700012
  56.4390012  21.7034997  -3.3190012  56.2071066  22.2032892  -2.6449513
  56.3520012  22.1614997 -17.8730012  56.7640012  21.4404997 -18.3480012
  57.0340012  22.8314997 -17.8140012  56.5005885  22.1532368 -17.9301085
  38.6330012  22.1664997 -14.7460012  37.7080012  22.3754997 -14.8750012
  39.0870012  22.6504997 -15.4350012  38.5677368  22.2605993 -14.8568774
  53.4040012  37.1504997 -12.8000012  54.0560012  36.8034997 -13.4080012
  53.9140012  37.6394997 -12.1540012  53.5622637  37.1690597 -12.7959764
  38.5970012  20.9044997  -6.4010012  37.9320012  20.6584997  -5.7580012
  38.1540012  21.5264997  -6.9790012  38.4460956  20.9548632  -6.3910648
  40.7890012  34.0794997  -2.2570012  39.9680012  34.2544997  -2.7170012
  40.5360012  34.0064997  -1.3360012  40.6426164  34.0935622  -2.1955077
  43.7430012  35.0544997  -5.9980012  43.3180012  35.8634997  -6.2810012
  44.6470012  35.1394997  -6.3000012  43.8070271  35.1768469  -6.0776224
  48.0540012  36.4534997  -3.0390012  48.2390012  36.1194997  -2.1610012
  48.9000012  36.7624997  -3.3610012  48.1937539  36.4496047  -2.9624395
  50.3990012  37.7394997  -3.7950012  51.0760012  37.1064997  -4.0350012
  50.7210012  38.1404997  -2.9880012  50.5351637  37.7071154  -3.7187207
  55.3160012  20.3284997  -4.7150012  54.5040012  20.6534997  -5.1030012
  55.5490012  19.5684997  -5.2480012  55.2363423  20.2702436  -4.8401747
  41.1450012  38.3104997  -5.9510012  40.4240012  38.7504997  -6.4020012
  40.7790012  38.0594997  -5.1020012  40.9969804  38.3367698  -5.8980160
  43.6120012  37.9104997  -6.9210012  42.7470012  37.9824997  -6.5170012
  43.5570012  38.4574997  -7.7050012  43.4862085  37.9942685  -6.9716638
  48.3220012  37.7984997  -7.7460012  47.8660012  38.3274997  -8.4000012
  48.4850012  38.4014997  -7.0200012  48.2815585  37.9524468  -7.7374938
  50.6500012  36.6764997  -6.8010012  49.7450012  36.8414997  -7.0660012
  51.0790012  37.5294997  -6.8660012  50.5840799  36.8144483  -6.8460818
  53.2540012  38.2464997  -6.5060012  53.0720012  39.1624997  -6.7160012
  53.4310012  37.8364997  -7.3520012  53.2530210  38.3164822  -6.6492115
  40.5590012  36.9334997  -9.0410012  40.5410012  36.5084997  -8.1830012
  41.3640012  36.6154997  -9.4490012  40.6653875  36.8323812  -8.9788345
  42.7010012  35.6434997 -10.3860012  42.4820012  34.7274997 -10.2160012
  43.5250012  35.7834997  -9.9200012  42.7824420  35.5370520 -10.2997226
  45.2380012  36.1134997  -9.5370012  45.4510012  35.2254997  -9.8240012
  45.3020012  36.0794997  -8.5830012  45.2758232  35.9873102  -9.4472603
  48.7460012  21.7774997 -10.3930012  48.0720012  21.1484997 -10.1370012
  49.3100012  21.2934997 -10.9960012  48.7299230  21.6258744 -10.4394660
  53.8890012  19.8854997 -10.2800012  54.4930012  20.4324997 -10.7820012
  53.0190012  20.2044997 -10.5200012  53.8541241  20.0035806 -10.3812346
  55.6160012  21.0234997 -11.9470012  56.2280012  20.5094997 -12.4730012
  55.9980012  21.9014997 -11.9230012  55.7514540  21.0717140 -12.0158170
  41.0730012  20.4114997 -12.5710012  40.2960012  20.1774997 -13.0780012
  41.6030012  19.6144997 -12.5620012  41.0382330  20.2716988 -12.6392258
  39.9090012  20.2094997 -16.7670012  40.3480012  20.8204997 -17.3590012
  39.2760012  20.7474997 -16.2930012  39.8834514  20.3659257 -16.7839070
  45.6520012  20.3384997 -12.7570012  46.5270012  20.7264997 -12.7870012
  45.5160012  20.1234997 -11.8350012  45.7533695  20.3625184 -12.6363560
  51.2090012  20.3684997 -11.1080012  51.2850012  20.4634997 -12.0580012
  50.9340012  19.4604997 -10.9790012  51.1822321  20.2587867 -11.2204921
  52.5620012  20.3944997 -15.4160012  51.8600012  21.0094997 -15.6250012
  52.1180012  19.5564997 -15.2850012  52.4056330  20.3655783 -15.4269672
  39.8100012  36.1574997 -15.8690012  39.1250012  36.1194997 -16.5370012
  39.8140012  37.0704997 -15.5810012  39.7168193  36.2757016 -15.9214716
  41.7700012  22.1254997 -18.3250012  42.2620012  21.4954997 -18.8520012
  42.3940012  22.4214997 -17.6610012  41.9215446  22.0793199 -18.3074020
  46.7960012  22.4184997 -15.8680012  46.9740012  21.7724997 -15.1850012
  46.7430012  23.2524997 -15.4000012  46.8131829  22.4427985 -15.7114060
  48.6750012  37.3674997 -17.4720012  49.5410012  37.7334997 -17.6500012
  48.4280012  36.9274997 -18.2860012  48.7602392  37.3581756 -17.6063711
  55.3840012  36.9304997 -14.7930012  55.1890012  36.1824997 -15.3580012
  55.3450012  37.6884997 -15.3760012  55.3520380  36.9306099 -14.9491616
  41.0310012  20.9254997  -3.0530012  40.6650012  20.1604997  -2.6100012
  41.9440012  20.9544997  -2.7660012  41.1042790  20.8247224  -2.9535930
  43.0040012  20.2764997  -1.5170012  43.9020012  20.0024997  -1.7020012
  42.6170012  19.5334997  -1.0530012  43.0746612  20.1385914  -1.4796357
  41.6280012  37.0774997 -18.8440012  41.3610012  37.3644997 -17.9710012
  42.4000012  36.5314997 -18.6920012  41.6957488  37.0430294 -18.7038950
  51.4250012  19.6084997  -1.3350012  51.5020012  19.1824997  -0.4810012
  52.3190012  19.6224997  -1.6780012  51.5563428  19.5520879  -1.2644690
  54.6010012  35.6814997  -2.6430012  53.8190012  35.4954997  -3.1620012
  54.5290012  36.6104997  -2.4250012  54.4841777  35.7816492  -2.6845952
  69.0070012  29.5674997 -12.6120012  69.0960012  30.5114997 -12.7440012
  68.3690012  29.2924997 -13.2700012  68.9329081  29.6594830 -12.7190386
  67.9400012  28.8224997  -9.1930012  67.9020012  28.1764997  -8.4880012
  67.6180012  28.3564997  -9.9640012  67.8912333  28.6709408  -9.2007022
  60.3090012  28.4374997  -7.6000012  60.3500012  27.8114997  -6.8770012
  61.0120012  29.0614997  -7.4180012  60.4096363  28.4361196  -7.4763956
  71.6460012  31.7614997 -10.8920012  71.2060012  31.0414997 -10.4410012
  71.6330012  32.4824997 -10.2620012  71.5840226  31.7603731 -10.7451506
  61.2320012  32.8874997  -9.0650012  60.8630012  32.0854997  -9.4350012
  62.1730012  32.7184997  -9.0190012  61.3087289  32.7550153  -9.1093684
  57.8420012  26.5474997 -13.6720012  57.3950012  27.3934997 -13.6910012
  57.2810012  25.9674997 -14.1880012  57.7049900  26.5849916 -13.7443199
  58.5530012  28.7094997 -11.5460012  58.7660012  27.9394997 -11.0190012
  59.2910012  28.7984997 -12.1500012  58.6818496  28.6161394 -11.5554700
  68.7580012  36.8664997 -10.6790012  69.3780012  36.1894997 -10.9530012
  68.5500012  36.6484997  -9.7710012  68.8146904  36.7443870 -10.5936635
  66.3300012  31.2554997  -8.7870012  66.6340012  30.5694997  -9.3820012
  67.0510012  31.3734997  -8.1690012  66.4690671  31.1776305  -8.7848184
  74.9930012  22.8564997  -7.9260012  75.0420012  23.4664997  -7.1900012
  75.4180012  23.3174997  -8.6490012  75.0571824  23.0023741  -7.9229795
  69.4710012  25.6494997  -8.4590012  69.6130012  24.7034997  -8.4390012
  69.3640012  25.8564997  -9.3880012  69.4759864  25.5479534  -8.5817661
  62.6250012  23.7504997 -11.1870012  62.6690012  24.6104997 -11.6050012
  62.1680012  23.1984997 -11.8210012  62.5692185  23.7935799 -11.3299701
  70.3480012  23.8814997 -12.7860012  70.9940012  23.5524997 -12.1610012
  70.8580012  24.3994997 -13.4090012  70.5054264  23.9064611 -12.7846138
  59.2460012  26.1474997 -10.4250012  59.8990012  25.5974997  -9.9930012
  59.2700012  25.8734997 -11.3420012  59.3386683  26.0351466 -10.4897877
  64.4020012  27.6974997 -11.2100012  65.0180012  27.1714997 -10.7000012
  63.8160012  27.0574997 -11.6130012  64.4070810  27.5389208 -11.1946827
  75.3840012  24.3344997  -5.6900012  74.6960012  24.9924997  -5.7860012
  75.4000012  24.1374997  -4.7540012  75.2918525  24.3980462  -5.5765192
  61.4360012  22.6684997  -7.1130012  61.2170012  23.1984997  -7.8790012
  60.7680012  22.8954997  -6.4660012  61.3157600  22.7716906  -7.1303621
  68.8050012  32.1684997 -13.5690012  68.5090012  31.8464997 -14.4200012
  68.4800012  33.0684997 -13.5280012  68.7206371  32.2460215 -13.6798199
  64.0050012  30.3444997  -6.8260012  63.2650012  30.9424997  -6.7220012
  64.7190012  30.8984997  -7.1410012  64.0002237  30.5012831  -6.8543535
  72.1120012  23.1724997 -10.8060012  71.8960012  22.4064997 -10.2730012
  72.7670012  23.6444997 -10.2930012  72.1710632  23.1315889 -10.6637139
  61.0290012  24.5604997  -9.1610012  61.6430012  25.1934997  -8.7870012
  61.5410012  24.0884997  -9.8170012  61.1822296  24.5832370  -9.1985748
  62.4120012  32.3084997  -6.0380012  62.4070012  33.1884997  -6.4160012
  61.5590012  32.2254997  -5.6130012  62.2959464  32.4176117  -6.0322093
  58.5330012  31.9794997 -15.2560012  58.2610012  32.2084997 -16.1450012
  58.5790012  32.8174997 -14.7960012  58.5020094  32.1241213 -15.3154303
  72.1580012  33.6014997  -8.5440012  71.2170012  33.6594997  -8.3820012
  72.4350012  34.5074997  -8.6810012  72.0664679  33.7319443  -8.5403185
  72.4590012  21.8874997  -7.1260012  71.7230012  22.4984997  -7.1640012
  73.1420012  22.3024997  -7.6530012  72.4506541  22.0271374  -7.2024168
  65.4620012  19.9744997  -9.6600012  65.3450012  19.0254997  -9.7150012
  64.6070012  20.3064997  -9.3870012  65.3303733  19.8895409  -9.6306103
  70.4100012  35.3824997 -11.9180012  70.8360012  34.6754997 -12.4030012
  70.7270012  36.1834997 -12.3350012  70.5111019  35.3940994 -12.0406870
  71.5700012  33.2834997 -13.4100012  71.3120012  32.5934997 -14.0210012
  71.6410012  32.8404997 -12.5640012  71.5442856  33.1292124 -13.3793115
  73.2560012  31.8494997  -4.9320012  73.3960012  31.2584997  -5.6720012
  73.4230012  32.7224997  -5.2890012  73.2976778  31.8866426  -5.0813035
  67.7290012  28.8114997 -15.1600012  67.0170012  29.3464997 -15.5120012
  68.4200012  28.8674997 -15.8200012  67.7250132  28.8922543 -15.2973711
  67.7820012  27.2694997 -18.1210012  68.4830012  27.2914997 -17.4700012
  68.0850012  26.6414997 -18.7770012  67.9187830  27.1876566 -18.1206289
  75.0980012  28.1894997  -6.8660012  74.4450012  28.8844997  -6.7770012
  75.5630012  28.3994997  -7.6760012  75.0715390  28.3129425  -6.9633117
  71.1340012  29.0214997 -14.2080012  70.4020012  29.2494997 -13.6350012
  71.5820012  28.3074997 -13.7530012  71.0943095  28.9562571 -14.0680881
  71.0320012  27.1954997  -5.1410012  71.1120012  27.9584997  -4.5690012
  70.4300012  27.4744997  -5.8310012  70.9615756  27.3377134  -5.1559411
  62.7800012  29.6514997 -12.3260012  62.4490012  29.2814997 -13.1440012
  63.3680012  28.9814997 -11.9790012  62.8141873  29.5101156 -12.3911898
  64.1460012  33.0794997  -9.6440012  64.0520012  32.5014997 -10.4010012
  64.8760012  32.7084997  -9.1480012  64.2317981  32.9502390  -9.6805835
  63.1460012  28.4204997  -8.6920012  63.7120012  28.5414997  -9.4550012
  63.4650012  29.0574997  -8.0530012  63.2665786  28.5231884  -8.7099960
  69.4550012  33.9234997  -7.9580012  69.2150012  34.5854997  -7.3100012
  69.2570012  33.0894997  -7.5330012  69.3953808  33.9013134  -7.8118476
  64.0260012  32.8194997  -3.9750012  63.7150012  33.6014997  -3.5200012
  63.3760012  32.6664997  -4.6610012  63.8955558  32.9059105  -4.0054129
  70.0050012  28.1834997 -16.5230012  70.5850012  28.3334997 -15.7760012
  70.4190012  28.6544997 -17.2460012  70.1402830  28.2676841 -16.5185866
  60.9460012  29.0174997  -4.7460012  61.0170012  29.6684997  -4.0480012
  60.0560012  29.1204997  -5.0810012  60.8353117  29.1205936  -4.6957300
  67.7320012  34.9204997 -13.0880012  68.2060012  35.2154997 -12.3100012
  67.1690012  35.6584997 -13.3210012  67.7207653  35.0606932 -13.0129864
  62.2660012  34.8914997  -3.2120012  62.2730012  34.7554997  -4.1590012
  61.3500012  34.7734997  -2.9600012  62.1431714  34.8569430  -3.3075334
  73.7040012  19.9334997 -16.7100012  72.8040012  20.0724997 -16.4150012
  73.9560012  20.7644997 -17.1120012  73.6148702  20.0649074 -16.7239795
  61.7700012  28.7214997 -14.7360012  61.4780012  29.4894997 -15.2270012
  61.0960012  28.0614997 -14.8990012  61.6389081  28.7374406 -14.8252660
  74.8930012  34.2994997 -18.3340012  74.9670012  35.2384997 -18.1630012
  75.7990012  33.9944997 -18.3900012  75.0255100  34.3866722 -18.3181881
  57.8630012  31.0844997  -5.9210012  57.3620012  31.0564997  -6.7360012
  57.8680012  30.1784997  -5.6120012  57.7951526  30.9582278  -5.9907128
  57.6130012  33.8644997  -9.0370012  58.5590012  33.7204997  -9.0560012
  57.5010012  34.6484997  -8.5000012  57.7272727  33.9508046  -8.9669928
  75.8110012  34.5304997  -3.3550012  75.7620012  33.5754997  -3.3920012
  74.9840012  34.7984997  -2.9540012  75.6924940  34.4358998  -3.3058625
  66.7900012  34.1044997  -4.4790012  66.8770012  34.9304997  -4.0040012
  65.9260012  33.7744997  -4.2300012  66.6851964  34.1729878  -4.3803451
  67.2040012  37.8764997 -14.6730012  67.1290012  37.7554997 -15.6190012
  67.2370012  38.8264997 -14.5540012  67.1981848  37.9882500 -14.7865166
  60.8570012  36.6654997 -12.8920012  61.0100012  36.3174997 -12.0130012
  60.0070012  36.3094997 -13.1470012  60.7628962  36.5696650 -12.8061660
  70.3060012  37.0304997 -17.6710012  70.6810012  36.2864997 -18.1410012
  70.3100012  36.7604997 -16.7520012  70.3578915  36.8921486 -17.6112176
  69.9750012  36.9564997 -14.9210012  69.0390012  37.0564997 -14.7430012
  70.2550012  36.2474997 -14.3430012  69.8848255  36.8742711 -14.8184609
  72.9630012  26.0234997  -2.8750012  72.5560012  26.5044997  -3.5960012
  73.0040012  25.1184997  -3.1830012  72.9128437  25.9669374  -3.0153317
  60.1120012  32.4074997  -4.8780012  60.3280012  32.0464997  -4.0190012
  59.2570012  32.0334997  -5.0880012  60.0259292  32.3074111  -4.7886614
  62.7310012  20.8774997  -8.8830012  61.8690012  20.7904997  -9.2900012
  62.7080012  21.7334997  -8.4550012  62.6100330  20.9812765  -8.8808137
  67.3940012  20.5994997  -5.5080012  67.8140012  20.1844997  -4.7550012
  66.4610012  20.4214997  -5.3910012  67.3253644  20.5185900  -5.3890461
  70.7200012  24.3554997  -4.6550012  70.2060012  24.2294997  -3.8570012
  70.5650012  25.2674997  -4.8990012  70.6286852  24.4616132  -4.5787842
  71.4830012  29.2164997 -18.8930012  71.5250012  28.9934997 -19.8230012
  72.3320012  29.6154997 -18.7030012  71.6035396  29.2399155 -18.9946373
  67.0550012  23.0924997 -18.2230012  66.8020012  23.1114997 -17.3000012
  66.7990012  22.2204997 -18.5240012  66.9857790  22.9772437 -18.1373737
  62.8220012  25.8434997  -7.7880012  62.1800012  25.8024997  -7.0790012
  62.8590012  26.7694997  -8.0250012  62.7391324  25.9631559  -7.7230176
  62.8190012  26.0644997 -12.8760012  61.9260012  25.7234997 -12.9340012
  63.2690012  25.6874997 -13.6310012  62.7577305  25.9668484 -12.9860823
  68.3540012  26.4804997 -14.0590012  67.9450012  27.2954997 -14.3500012
  69.0750012  26.3404997 -14.6730012  68.3954537  26.5732018 -14.1818658
  67.4560012  26.6554997  -2.5710012  66.8940012  25.9514997  -2.2500012
  68.2830012  26.5354997  -2.1030012  67.4907095  26.5427883  -2.4637670
  69.3590012  25.9264997 -11.2450012  69.1640012  26.5314997 -11.9600012
  69.5400012  25.0924997 -11.6790012  69.3567614  25.8966300 -11.4015595
  60.5720012  26.1634997  -5.9210012  60.5340012  26.5634997  -5.0520012
  60.0810012  25.3464997  -5.8300012  60.5004684  26.1078069  -5.7898941
  63.9380012  23.5374997 -19.1220012  63.5070012  23.0924997 -18.3920012
  63.2200012  23.9094997 -19.6340012  63.7819438  23.5268940 -19.0913201
  57.1800012  23.2794997 -12.0700012  57.8110012  23.2504997 -11.3510012
  57.6290012  22.8544997 -12.8000012  57.3270774  23.2180492 -12.0703447
  58.4540012  24.0254997 -16.6460012  58.9280012  24.6164997 -17.2310012
  57.7370012  24.5564997 -16.2990012  58.4219341  24.1780867 -16.6791164
  68.6230012  27.5644997  -6.5730012  68.9460012  26.9334997  -7.2160012
  68.1830012  27.0294997  -5.9130012  68.6076895  27.4058440  -6.5717150
  65.4000012  23.4914997 -11.7890012  64.4890012  23.5484997 -11.5010012
  65.9060012  23.4314997 -10.9790012  65.3435413  23.4911985 -11.6399378
  60.2290012  25.1204997 -12.9630012  59.3390012  25.2204997 -13.3030012
  60.5250012  24.2784997 -13.3090012  60.1472823  25.0203545 -13.0562787
  63.8820012  25.1204997 -15.3060012  64.8130012  25.2494997 -15.1280012
  63.6670012  25.7904997 -15.9560012  63.9804247  25.2286565 -15.3694253
  69.8050012  22.7264997  -8.5250012  69.1290012  22.8574997  -7.8610012
  69.3200012  22.5714997  -9.3350012  69.6467145  22.7234905  -8.5435483
  62.5560012  26.3154997 -17.7390012  62.0130012  25.9354997 -18.4310012
  63.3890012  26.5094997 -18.1680012  62.5944399  26.2898124 -17.8915474
  73.0930012  38.3984997  -2.2480012  73.2930012  38.8224997  -3.0830012
  73.7480012  38.7414997  -1.6410012  73.2090051  38.5029648  -2.2802164
  60.6910012  30.8724997  -2.6400012  61.4230012  31.1264997  -2.0790012
  59.9110012  31.0764997  -2.1250012  60.6858232  30.9349177  -2.4934240
  66.7200012  26.2794997  -9.9020012  67.2850012  25.7324997 -10.4490012
  66.5730012  25.7574997  -9.1140012  66.7772918  26.1342024  -9.8701546
  61.7220012  22.4154997 -13.4840012  61.4050012  21.5134997 -13.5190012
  62.5040012  22.4174997 -14.0370012  61.7842284  22.2921628 -13.5635217
  65.3470012  24.6674997  -7.4880012  64.5110012  25.1214997  -7.3780012
  65.8710012  24.9434997  -6.7360012  65.3034414  24.7669376  -7.3712864
  65.8910012  30.8804997 -15.8040012  65.1460012  30.3734997 -16.1260012
  65.7570012  30.9294997 -14.8570012  65.7708776  30.8176940 -15.7201353
  73.0410012  30.0134997  -7.0170012  73.6830012  30.4704997  -7.5610012
  72.2110012  30.1264997  -7.4800012  73.0165963  30.0912704  -7.1539823
  69.7890012  23.6944997 -17.6040012  68.8500012  23.8064997 -17.7560012
  70.0860012  24.5514997 -17.2980012  69.7007666  23.8256443 -17.5834232
  67.4100012  31.0644997  -4.5670012  67.0650012  30.6834997  -3.7600012
  67.2100012  31.9984997  -4.4950012  67.3358061  31.1385228  -4.4469039
  70.5070012  25.5614997 -15.9440012  71.3990012  25.4244997 -15.6250012
  70.5640012  26.3524997 -16.4800012  70.6366285  25.6496660 -15.9728309
  61.0160012  30.1754997 -10.0340012  61.7610012  30.1734997 -10.6350012
  61.0940012  29.3524997  -9.5520012  61.1285518  30.0639315 -10.0511071
  68.0170012  32.3394997 -16.7780012  67.7210012  33.1654997 -16.3970012
  67.3140012  31.7194997 -16.5820012  67.8814914  32.3688199 -16.6993557
  58.0240012  28.6364997  -4.7190012  58.2470012  28.2184997  -3.8870012
  57.4220012  28.0234997  -5.1420012  57.9731759  28.4964668  -4.6622978
  65.0400012  28.1534997  -2.5060012  64.7440012  27.9874997  -3.4010012
  65.9720012  27.9334997  -2.5170012  65.1254166  28.1010640  -2.6299464
  69.6610012  33.5264997  -4.6160012  68.7600012  33.7094997  -4.8840012
  69.6950012  33.7854997  -3.6950012  69.5423041  33.5865512  -4.5281803
  75.3920012  25.7714997 -16.2490012  74.8380012  25.3754997 -16.9210012
  75.4920012  26.6814997 -16.5270012  75.3297059  25.8403586 -16.3785599
  75.3550012  31.5714997  -3.4120012  74.5040012  31.8094997  -3.7790012
  75.9460012  31.5544997  -4.1650012  75.3182487  31.6018258  -3.5641107
  73.6870012  34.5574997 -15.7840012  73.3140012  33.7314997 -15.4750012
  73.9650012  34.3744997 -16.6810012  73.6735630  34.4197303 -15.8630374
  70.8480012  29.3654997  -8.7630012  69.9190012  29.1334997  -8.7900012
  71.2990012  28.5884997  -9.0930012  70.7819216  29.2287238  -8.8113083
  63.3910012  33.6934997 -12.6300012  63.9180012  34.4664997 -12.8300012
  62.5110012  33.9184997 -12.9310012  63.3441773  33.8298005 -12.6980990
  59.1460012  28.5554997 -18.0430012  59.7620012  29.1824997 -17.6630012
  58.2840012  28.8714997 -17.7710012  59.1137698  28.6839430 -17.9542817
  64.8180012  31.3564997 -13.0530012  64.5770012  32.2814997 -13.0120012
  64.0770012  30.8974997 -12.6570012  64.6848409  31.4211421 -12.9938623
  65.3330012  35.5054997  -6.7380012  65.6950012  36.3604997  -6.9720012
  65.8640012  35.2134997  -5.9980012  65.4544473  35.5831060  -6.6699145
  63.5010012  36.3784997 -13.5080012  62.5510012  36.4834997 -13.4570012
  63.8530012  37.1984997 -13.1630012  63.4184203  36.5038314 -13.4543350
  68.8770012  31.6044997  -7.0380012  68.4510012  31.3774997  -6.2110012
  69.4570012  30.8664997  -7.2200012  68.8971868  31.4735299  -6.9494170
  71.0800012  32.5334997 -17.9640012  71.4330012  32.1534997 -17.1590012
  70.1310012  32.4404997 -17.8770012  71.0000441  32.4689596 -17.8421441
  71.5350012  36.1564997  -4.5680012  70.9340012  35.6014997  -5.0640012
  71.8170012  36.8234997  -5.1940012  71.4908519  36.1706841  -4.7205048
  75.5830012  37.0134997 -17.7630012  76.3270012  37.5994997 -17.9030012
  74.8890012  37.5814997 -17.4290012  75.5910292  37.1705582 -17.7370039
  59.6580012  23.3894997  -5.1610012  58.7650012  23.7284997  -5.2290012
  59.5590012  22.5344997  -4.7430012  59.5224164  23.3202588  -5.1137765
  71.9460012  31.2064997 -15.7370012  71.6680012  30.4784997 -15.1810012
  72.8730012  31.3254997 -15.5320012  72.0333124  31.1228802 -15.6331155
  59.3090012  35.1944997  -6.7260012  59.5260012  34.2624997  -6.7570012
  59.5550012  35.4684997  -5.8430012  59.3719549  35.1040636  -6.6108237
  65.1710012  33.6454997 -19.5170012  65.4100012  32.8974997 -20.0640012
  64.9020012  33.2574997 -18.6840012  65.1673675  33.4906638 -19.4793135
  64.1080012  33.2154997 -17.0600012  64.2540012  32.6954997 -16.2700012
  64.1050012  34.1224997 -16.7540012  64.1275989  33.2668853 -16.9103912
  60.5610012  30.4684997 -16.5500012  59.8750012  30.8204997 -15.9830012
  61.0830012  31.2314997 -16.7970012  60.5376852  30.6198578 -16.5057882
  68.3920012  23.1304997  -6.2710012  69.0910012  23.2044997  -5.6210012
  68.0110012  22.2664997  -6.1170012  68.4361767  23.0237624  -6.1611678
  69.1770012  22.7824997 -15.1740012  69.3970012  23.2544997 -15.9770012
  69.7350012  23.1774997 -14.5040012  69.2824968  22.9004285 -15.1932669
  66.8450012  34.9134997 -16.3110012  66.0290012  35.4104997 -16.2590012
  67.3750012  35.3884997 -16.9510012  66.8049161  35.0457722 -16.3904044
  66.3770012  24.5104997 -14.3390012  67.1890012  25.0154997 -14.2930012
  66.1320012  24.3654997 -13.4250012  66.4550520  24.5600375 -14.2091483
  66.9120012  25.4964997  -5.1540012  67.0310012  26.0704997  -4.3970012
  67.5680012  24.8084997  -5.0400012  67.0169757  25.4821079  -5.0349175
  67.2600012  21.5914997 -13.4010012  66.9140012  22.2094997 -12.7560012
  67.9190012  22.0924997 -13.8820012  67.3017826  21.7435802 -13.3779029
  64.1840012  35.9574997 -16.3290012  64.3440012  36.7564997 -16.8300012
  63.9860012  36.2634997 -15.4440012  64.1791649  36.1084469 -16.2780185
  62.9180012  22.6544997 -16.7140012  62.8350012  23.5434997 -16.3670012
  63.8080012  22.3894997 -16.4820012  63.0269469  22.7401430 -16.6352374
  73.1170012  23.4034997  -4.3190012  72.2000012  23.6664997  -4.4070012
  73.4520012  23.4004997  -5.2160012  73.0369900  23.4390224  -4.4522081
  71.7190012  27.1544997 -10.2240012  70.9210012  26.7394997 -10.5520012
  72.1640012  26.4634997  -9.7330012  71.6699885  27.0043543 -10.2025111
  61.1770012  33.0824997 -17.6530012  61.7690012  33.7814997 -17.3770012
  61.6360012  32.6494997 -18.3730012  61.3201142  33.1197049 -17.7125170
  59.4930012  25.7464997 -18.5370012  59.4480012  26.6854997 -18.3590012
  58.6050012  25.5104997 -18.8070012  59.3668574  25.8431892 -18.5491088
  72.8050012  36.4104997  -8.6010012  72.6500012  37.0884997  -9.2580012
  73.7380012  36.4824997  -8.3980012  72.9098500  36.5130170  -8.6634881
  60.3010012  20.5284997  -9.8640012  60.0720012  20.5874997 -10.7920012
  59.8580012  19.7364997  -9.5580012  60.2098530  20.4295753  -9.9495214
  59.2310012  34.4684997 -13.7040012  58.3990012  34.9414997 -13.6760012
  59.7770012  34.9784997 -14.3020012  59.1909739  34.6021871 -13.7810284
  58.5190012  37.0814997  -2.3740012  59.0600012  36.8644997  -1.6140012
  58.0380012  36.2754997  -2.5630012  58.5279345  36.9429514  -2.2956924
  63.1170012  36.0004997  -0.7530012  63.8840012  35.5414997  -0.4120012
  63.0950012  35.7744997  -1.6830012  63.2191434  35.9070409  -0.8319957
  67.2090012  35.5084997 -19.3780012  66.5650012  34.8774997 -19.0570012
  67.9710012  34.9774997 -19.6100012  67.2238077  35.3502920 -19.3653989
  69.6940012  34.3804997  -2.0240012  69.3430012  33.5244997  -1.7810012
  70.4200012  34.5234997  -1.4170012  69.7440769  34.2825636  -1.9086381
  71.8130012  35.3254997 -19.1440012  72.0960012  34.5314997 -18.6920012
  72.5530012  35.5584997 -19.7050012  71.9517486  35.2482803 -19.1579302
  58.4260012  30.8914997  -1.4190012  58.5700012  29.9894997  -1.7060012
  57.6540012  31.1774997  -1.9070012  58.3413323  30.8068261  -1.5242119
  62.7680012  31.2354997 -19.2870012  62.8320012  30.4414997 -18.7560012
  63.4210012  31.1164997 -19.9770012  62.8650241  31.1107148 -19.3075683
  65.0820012  30.8614997  -1.9870012  64.7530012  31.1324997  -2.8440012
  65.2340012  29.9204997  -2.0740012  65.0574809  30.7713862  -2.1161756
  70.8160012  30.7774997  -4.6030012  71.5620012  31.3654997  -4.7230012
  70.0590012  31.3594997  -4.5400012  70.8157554  30.9367011  -4.6109093
  59.2590012  28.0914997  -1.9990012  59.6670012  27.2344997  -2.1200012
  58.9990012  28.1064997  -1.0780012  59.2797568  27.9760807  -1.8910412
  63.9170012  29.2074997 -16.9810012  63.4570012  28.7234997 -16.2950012
  64.1720012  28.5394997 -17.6170012  63.8884902  29.0508731 -16.9730666
  63.2060012  27.1004997  -4.6250012  62.5880012  27.7754997  -4.3450012
  63.5500012  27.4214997  -5.4580012  63.1679615  27.2362721  -4.6993419
  64.9880012  27.4504997 -18.7190012  64.8080012  27.2964997 -19.6460012
  65.9380012  27.5584997 -18.6740012  65.0917776  27.4440175 -18.8398157
  68.2260012  29.5724997  -1.3480012  69.1790012  29.6554997  -1.3750012
  68.0650012  28.8604997  -0.7280012  68.3346426  29.4876746  -1.2679421
  74.3780012  29.8054997 -19.2730012  74.1040012  29.3804997 -20.0860012
  74.4170012  30.7364997 -19.4900012  74.3457699  29.8732484 -19.4136390
  63.5450012  24.4554997  -3.5430012  63.6950012  23.7264997  -4.1450012
  63.5480012  25.2324997  -4.1020012  63.5659302  24.4607851  -3.7009308
  63.9580012  22.8254997  -6.0500012  64.4940012  23.2764997  -6.7020012
  63.1060012  22.7174997  -6.4730012  63.9162178  22.8726390  -6.1964244
  65.5400012  28.2644997  -5.8110012  66.2900012  28.1084997  -6.3840012
  65.2010012  29.1164997  -6.0860012  65.5968921  28.3582968  -5.9266439
  69.9550012  26.0794997  -0.7820012  70.1480012  25.1484997  -0.8940012
  70.8130012  26.5044997  -0.7920012  70.0973020  26.0096389  -0.7986639
  71.2720012  28.8684997  -2.7050012  70.9910012  29.5774997  -3.2820012
  72.2150012  28.7954997  -2.8560012  71.3609027  28.9557646  -2.8044449
  62.0240012  25.6534997  -1.6310012  61.2570012  25.1214997  -1.8410012
  62.7030012  25.3434997  -2.2310012  62.0107022  25.5387506  -1.7408352
  64.7640012  20.2814997  -5.6190012  64.6650012  21.2284997  -5.7240012
  64.0210012  19.9094997  -6.0940012  64.6500564  20.3605902  -5.6975440
  66.0280012  24.6034997  -2.0550012  65.7920012  24.3834997  -1.1530012
  65.2440012  24.3964997  -2.5650012  65.8898628  24.5454760  -2.0006068
  68.7430012  23.7304997  -2.9790012  67.7960012  23.7624997  -2.8470012
  69.0560012  23.1054997  -2.3260012  68.6555475  23.6503207  -2.8725545
  70.3770012  22.3644997  -0.9740012  70.2810012  21.4124997  -0.9800012
  70.0560012  22.6334997  -0.1140012  70.3204070  22.2704035  -0.8584559
  60.2040012  23.5744997  -1.9270012  60.4160012  22.8674997  -2.5370012
  60.0930012  23.1364997  -1.0830012  60.2179721  23.4187084  -1.8963157
  64.9850012  19.5754997  -2.9470012  65.6970012  18.9354997  -2.9610012
  64.8840012  19.8424997  -3.8610012  65.0687939  19.5239938  -3.0724350
  65.3390012  21.2584997  -0.8940012  65.2070012  20.7824997  -1.7140012
  64.7400012  22.0024997  -0.9490012  65.2399071  21.2939618  -1.0137114
  64.8850012  38.1414997 -17.7170012  65.8180012  38.2994997 -17.5740012
  64.6210012  38.8164997 -18.3420012  64.9769510  38.2543611 -17.7819259
  58.4540012  32.7774997 -18.2350012  59.3680012  32.8564997 -17.9610012
  58.4610012  32.0904997 -18.9010012  58.5801131  32.6953961 -18.2875607
  57.1030012  38.1704997 -13.1570012  56.4560012  37.7084997 -13.6900012
  57.4570012  37.4984997 -12.5750012  57.0623849  38.0164723 -13.1512041
  57.9730012  36.2514997 -11.3530012  57.6380012  35.3714997 -11.1810012
  58.1950012  36.5964997 -10.4880012  57.9571783  36.1777500 -11.2125792
  75.5210012  37.0604997  -8.3720012  75.5000012  37.2454997  -7.4330012
  76.2120012  37.6294997  -8.7130012  75.6114618  37.1626606  -8.2896136
  75.0850012  36.6284997  -5.4500012  74.5970012  35.8924997  -5.8210012
  75.6340012  36.2344997  -4.7720012  75.0924872  36.4746249  -5.4090840
  73.5350012  32.4174997  -0.8120012  72.6690012  32.3124997  -0.4180012
  73.9120012  33.1764997  -0.3660012  73.4673308  32.5056900  -0.6977607
  74.8360012  30.6744997 -15.2980012  75.6860012  31.0954997 -15.1710012
  74.8420012  29.9344997 -14.6910012  74.9531372  30.6320803 -15.1985656
  75.2310012  28.7274997 -13.4740012  74.5040012  28.2484997 -13.0770012
  75.8120012  28.9334997 -12.7420012  75.2099375  28.6897090 -13.3205871
  74.9900012  31.5124997  -8.5270012  75.8230012  31.1344997  -8.8070012
  75.1020012  32.4554997  -8.6460012  75.1192647  31.5882218  -8.5814513
  73.4760012  34.3904997  -6.2200012  72.8290012  34.7154997  -5.5940012
  72.9590012  33.9504997  -6.8940012  73.3174029  34.3755004  -6.2254173
  75.4990012  28.6284997 -17.0830012  74.9770012  28.9854997 -17.8020012
  75.4660012  29.3034997 -16.4050012  75.4231634  28.7685413 -17.0896855
  73.8480012  25.8684997 -18.5320012  73.9440012  26.5354997 -19.2130012
  73.7080012  25.0524997 -19.0140012  73.8422135  25.8494500 -18.6901509
  73.0170012  27.2484997 -12.9110012  72.8670012  26.3034997 -12.9320012
  72.6640012  27.5294997 -12.0680012  72.9486625  27.1570441 -12.7997654
  58.0530012  29.3264997  -8.9010012  58.2370012  29.2444997  -9.8370012
  58.9020012  29.2024997  -8.4770012  58.1930139  29.2985003  -8.9718545
  73.8740012  29.2184997  -3.2730012  74.4570012  28.4844997  -3.0810012
  74.4380012  29.9904997  -3.2260012  74.0299769  29.2224227  -3.2403841
  75.3700012  27.1214997  -2.5880012  74.5070012  26.7424997  -2.7540012
  75.9750012  26.3824997  -2.6620012  75.3335979  26.9698023  -2.6207183
  73.0950012  23.2764997 -19.4150012  73.7060012  22.9054997 -18.7780012
  72.2590012  22.8554997 -19.2190012  73.0655032  23.1687554 -19.3012965
  72.7280012  24.8314997 -14.4490012  73.0080012  23.9244997 -14.3250012
  73.4870012  25.2654997 -14.8380012  72.8689277  24.7660942 -14.4846318
  73.3400012  25.4124997  -9.0130012  74.2730012  25.6244997  -9.0470012
  73.1050012  25.5144997  -8.0910012  73.4358036  25.4552769  -8.8930024
  73.3690012  26.1494997  -6.2370012  72.5260012  26.4174997  -5.8710012
  73.8110012  26.9714997  -6.4480012  73.3134158  26.2973291  -6.2154509
  57.6500012  24.5974997  -2.7600012  58.5700012  24.4754997  -2.5240012
  57.2010012  23.8474997  -2.3710012  57.7151580  24.4793727  -2.6750994
  75.6520012  20.1294997  -0.8840012  76.0020012  19.4754997  -1.4890012
  75.7990012  20.9664997  -1.3230012  75.7198419  20.1531591  -1.0262882
  73.3410012  22.0944997 -14.4010012  73.5240012  21.6454997 -13.5750012
  72.7420012  21.5094997 -14.8640012  73.2850202  21.9539975 -14.3506725
  58.8710012  22.9094997  -9.8690012  59.3170012  22.1174997  -9.5670012
  59.3380012  23.6254997  -9.4380012  58.9950172  22.8980624  -9.7695180
  57.1750012  25.9084997  -8.8000012  57.6670012  25.6874997  -9.5910012
  57.5380012  26.7494997  -8.5190012  57.2913126  25.9918357  -8.8702469
  75.1720012  22.2384997  -2.5340012  74.2540012  22.5094997  -2.5700012
  75.2950012  21.7034997  -3.3190012  75.0631066  22.2032892  -2.6449513
  75.2080012  22.1614997 -17.8730012  75.6200012  21.4404997 -18.3480012
  75.8900012  22.8314997 -17.8140012  75.3565885  22.1532368 -17.9301085
  57.4890012  22.1664997 -14.7460012  56.5640012  22.3754997 -14.8750012
  57.9430012  22.6504997 -15.4350012  57.4237368  22.2605993 -14.8568774
  72.2600012  37.1504997 -12.8000012  72.9120012  36.8034997 -13.4080012
  72.7700012  37.6394997 -12.1540012  72.4182637  37.1690597 -12.7959764
  57.4530012  20.9044997  -6.4010012  56.7880012  20.6584997  -5.7580012
  57.0100012  21.5264997  -6.9790012  57.3020956  20.9548632  -6.3910648
  59.6450012  34.0794997  -2.2570012  58.8240012  34.2544997  -2.7170012
  59.3920012  34.0064997  -1.3360012  59.4986164  34.0935622  -2.1955077
  62.5990012  35.0544997  -5.9980012  62.1740012  35.8634997  -6.2810012
  63.5030012  35.1394997  -6.3000012  62.6630271  35.1768469  -6.0776224
  66.9100012  36.4534997  -3.0390012  67.0950012  36.1194997  -2.1610012
  67.7560012  36.7624997  -3.3610012  67.0497539  36.4496047  -2.9624395
  69.2550012  37.7394997  -3.7950012  69.9320012  37.1064997  -4.0350012
  69.5770012  38.1404997  -2.9880012  69.3911637  37.7071154  -3.7187207
  74.1720012  20.3284997  -4.7150012  73.3600012  20.6534997  -5.1030012
  74.4050012  19.5684997  -5.2480012  74.0923423  20.2702436  -4.8401747
  60.0010012  38.3104997  -5.9510012  59.2800012  38.7504997  -6.4020012
  59.6350012  38.0594997  -5.1020012  59.8529804  38.3367698  -5.8980160
  62.4680012  37.9104997  -6.9210012  61.6030012  37.9824997  -6.5170012
  62.4130012  38.4574997  -7.7050012  62.3422085  37.9942685  -6.9716638
  67.1780012  37.7984997  -7.7460012  66.7220012  38.3274997  -8.4000012
  67.3410012  38.4014997  -7.0200012  67.1375585  37.9524468  -7.7374938
  69.5060012  36.6764997  -6.8010012  68.6010012  36.8414997  -7.0660012
  69.9350012  37.5294997  -6.8660012  69.4400799  36.8144483  -6.8460818
  72.1100012  38.2464997  -6.5060012  71.9280012  39.1624997  -6.7160012
  72.2870012  37.8364997  -7.3520012  72.1090210  38.3164822  -6.6492115
  59.4150012  36.9334997  -9.0410012  59.3970012  36.5084997  -8.1830012
  60.2200012  36.6154997  -9.4490012  59.5213875  36.8323812  -8.9788345
  61.5570012  35.6434997 -10.3860012  61.3380012  34.7274997 -10.2160012
  62.3810012  35.7834997  -9.9200012  61.6384420  35.5370520 -10.2997226
  64.0940012  36.1134997  -9.5370012  64.3070012  35.2254997  -9.8240012
  64.1580012  36.0794997  -8.5830012  64.1318232  35.9873102  -9.4472603
  67.6020012  21.7774997 -10.3930012  66.9280012  21.1484997 -10.1370012
  68.1660012  21.2934997 -10.9960012  67.5859230  21.6258744 -10.4394660
  72.7450012  19.8854997 -10.2800012  73.3490012  20.4324997 -10.7820012
  71.8750012  20.2044997 -10.5200012  72.7101241  20.0035806 -10.3812346
  74.4720012  21.0234997 -11.9470012  75.0840012  20.5094997 -12.4730012
  74.8540012  21.9014997 -11.9230012  74.6074540  21.0717140 -12.0158170
  59.9290012  20.4114997 -12.5710012  59.1520012  20.1774997 -13.0780012
  60.4590012  19.6144997 -12.5620012  59.8942330  20.2716988 -12.6392258
  58.7650012  20.2094997 -16.7670012  59.2040012  20.8204997 -17.3590012
  58.1320012  20.7474997 -16.2930012  58.7394514  20.3659257 -16.7839070
  64.5080012  20.3384997 -12.7570012  65.3830012  20.7264997 -12.7870012
  64.3720012  20.1234997 -11.8350012  64.6093695  20.3625184 -12.6363560
  70.0650012  20.3684997 -11.1080012  70.1410012  20.4634997 -12.0580012
  69.7900012  19.4604997 -10.9790012  70.0382321  20.2587867 -11.2204921
  71.4180012  20.3944997 -15.4160012  70.7160012  21.0094997 -15.6250012
  70.9740012  19.5564997 -15.2850012  71.2616330  20.3655783 -15.4269672
  58.6660012  36.1574997 -15.8690012  57.9810012  36.1194997 -16.5370012
  58.6700012  37.0704997 -15.5810012  58.5728193  36.2757016 -15.9214716
  60.6260012  22.1254997 -18.3250012  61.1180012  21.4954997 -18.8520012
  61.2500012  22.4214997 -17.6610012  60.7775446  22.0793199 -18.3074020
  65.6520012  22.4184997 -15.8680012  65.8300012  21.7724997 -15.1850012
  65.5990012  23.2524997 -15.4000012  65.6691829  22.4427985 -15.7114060
  67.5310012  37.3674997 -17.4720012  68.3970012  37.7334997 -17.6500012
  67.2840012  36.9274997 -18.2860012  67.6162392  37.3581756 -17.6063711
  74.2400012  36.9304997 -14.7930012  74.0450012  36.1824997 -15.3580012
  74.2010012  37.6884997 -15.3760012  74.2080380  36.9306099 -14.9491616
  59.8870012  20.9254997  -3.0530012  59.5210012  20.1604997  -2.6100012
  60.8000012  20.9544997  -2.7660012  59.9602790  20.8247224  -2.9535930
  61.8600012  20.2764997  -1.5170012  62.7580012  20.0024997  -1.7020012
  61.4730012  19.5334997  -1.0530012  61.9306612  20.1385914  -1.4796357
  60.4840012  37.0774997 -18.8440012  60.2170012  37.3644997 -17.9710012
  61.2560012  36.5314997 -18.6920012  60.5517488  37.0430294 -18.7038950
  70.2810012  19.6084997  -1.3350012  70.3580012  19.1824997  -0.4810012
  71.1750012  19.6224997  -1.6780012  70.4123428  19.5520879  -1.2644690
  73.4570012  35.6814997  -2.6430012  72.6750012  35.4954997  -3.1620012
  73.3850012  36.6104997  -2.4250012  73.3401777  35.7816492  -2.6845952
  87.8630012  29.5674997 -12.6120012  87.9520012  30.5114997 -12.7440012
  87.2250012  29.2924997 -13.2700012  87.7889081  29.6594830 -12.7190386
  86.7960012  28.8224997  -9.1930012  86.7580012  28.1764997  -8.4880012
  86.4740012  28.3564997  -9.9640012  86.7472333  28.6709408  -9.2007022
  79.1650012  28.4374997  -7.6000012  79.2060012  27.8114997  -6.8770012
  79.8680012  29.0614997  -7.4180012  79.2656363  28.4361196  -7.4763956
  90.5020012  31.7614997 -10.8920012  90.0620012  31.0414997 -10.4410012
  90.4890012  32.4824997 -10.2620012  90.4400226  31.7603731 -10.7451506
  80.0880012  32.8874997  -9.0650012  79.7190012  32.0854997  -9.4350012
  81.0290012  32.7184997  -9.0190012  80.1647289  32.7550153  -9.1093684
  76.6980012  26.5474997 -13.6720012  76.2510012  27.3934997 -13.6910012
  76.1370012  25.9674997 -14.1880012  76.5609900  26.5849916 -13.7443199
  77.4090012  28.7094997 -11.5460012  77.6220012  27.9394997 -11.0190012
  78.1470012  28.7984997 -12.1500012  77.5378496  28.6161394 -11.5554700
  87.6140012  36.8664997 -10.6790012  88.2340012  36.1894997 -10.9530012
  87.4060012  36.6484997  -9.7710012  87.6706904  36.7443870 -10.5936635
  85.1860012  31.2554997  -8.7870012  85.4900012  30.5694997  -9.3820012
  85.9070012  31.3734997  -8.1690012  85.3250671  31.1776305  -8.7848184
  93.8490012  22.8564997  -7.9260012  93.8980012  23.4664997  -7.1900012
  94.2740012  23.3174997  -8.6490012  93.9131824  23.0023741  -7.9229795
  88.3270012  25.6494997  -8.4590012  88.4690012  24.7034997  -8.4390012
  88.2200012  25.8564997  -9.3880012  88.3319864  25.5479534  -8.5817661
  81.4810012  23.7504997 -11.1870012  81.5250012  24.6104997 -11.6050012
  81.0240012  23.1984997 -11.8210012  81.4252185  23.7935799 -11.3299701
  89.2040012  23.8814997 -12.7860012  89.8500012  23.5524997 -12.1610012
  89.7140012  24.3994997 -13.4090012  89.3614264  23.9064611 -12.7846138
  78.1020012  26.1474997 -10.4250012  78.7550012  25.5974997  -9.9930012
  78.1260012  25.8734997 -11.3420012  78.1946683  26.0351466 -10.4897877
  83.2580012  27.6974997 -11.2100012  83.8740012  27.1714997 -10.7000012
  82.6720012  27.0574997 -11.6130012  83.2630810  27.5389208 -11.1946827
  94.2400012  24.3344997  -5.6900012  93.5520012  24.9924997  -5.7860012
  94.2560012  24.1374997  -4.7540012  94.1478525  24.3980462  -5.5765192
  80.2920012  22.6684997  -7.1130012  80.0730012  23.1984997  -7.8790012
  79.6240012  22.8954997  -6.4660012  80.1717600  22.7716906  -7.1303621
  87.6610012  32.1684997 -13.5690012  87.3650012  31.8464997 -14.4200012
  87.3360012  33.0684997 -13.5280012  87.5766371  32.2460215 -13.6798199
  82.8610012  30.3444997  -6.8260012  82.1210012  30.9424997  -6.7220012
  83.5750012  30.8984997  -7.1410012  82.8562237  30.5012831  -6.8543535
  90.9680012  23.1724997 -10.8060012  90.7520012  22.4064997 -10.2730012
  91.6230012  23.6444997 -10.2930012  91.0270632  23.1315889 -10.6637139
  79.8850012  24.5604997  -9.1610012  80.4990012  25.1934997  -8.7870012
  80.3970012  24.0884997  -9.8170012  80.0382296  24.5832370  -9.1985748
  81.2680012  32.3084997  -6.0380012  81.2630012  33.1884997  -6.4160012
  80.4150012  32.2254997  -5.6130012  81.1519464  32.4176117  -6.0322093
  77.3890012  31.9794997 -15.2560012  77.1170012  32.2084997 -16.1450012
  77.4350012  32.8174997 -14.7960012  77.3580094  32.1241213 -15.3154303
  91.0140012  33.6014997  -8.5440012  90.0730012  33.6594997  -8.3820012
  91.2910012  34.5074997  -8.6810012  90.9224679  33.7319443  -8.5403185
  91.3150012  21.8874997  -7.1260012  90.5790012  22.4984997  -7.1640012
  91.9980012  22.3024997  -7.6530012  91.3066541  22.0271374  -7.2024168
  84.3180012  19.9744997  -9.6600012  84.2010012  19.0254997  -9.7150012
  83.4630012  20.3064997  -9.3870012  84.1863733  19.8895409  -9.6306103
  89.2660012  35.3824997 -11.9180012  89.6920012  34.6754997 -12.4030012
  89.5830012  36.1834997 -12.3350012  89.3671019  35.3940994 -12.0406870
  90.4260012  33.2834997 -13.4100012  90.1680012  32.5934997 -14.0210012
  90.4970012  32.8404997 -12.5640012  90.4002856  33.1292124 -13.3793115
  92.1120012  31.8494997  -4.9320012  92.2520012  31.2584997  -5.6720012
  92.2790012  32.7224997  -5.2890012  92.1536778  31.8866426  -5.0813035
  86.5850012  28.8114997 -15.1600012  85.8730012  29.3464997 -15.5120012
  87.2760012  28.8674997 -15.8200012  86.5810132  28.8922543 -15.2973711
  86.6380012  27.2694997 -18.1210012  87.3390012  27.2914997 -17.4700012
  86.9410012  26.6414997 -18.7770012  86.7747830  27.1876566 -18.1206289
  93.9540012  28.1894997  -6.8660012  93.3010012  28.8844997  -6.7770012
  94.4190012  28.3994997  -7.6760012  93.9275390  28.3129425  -6.9633117
  89.9900012  29.0214997 -14.2080012  89.2580012  29.2494997 -13.6350012
  90.4380012  28.3074997 -13.7530012  89.9503095  28.9562571 -14.0680881
  89.8880012  27.1954997  -5.1410012  89.9680012  27.9584997  -4.5690012
  89.2860012  27.4744997  -5.8310012  89.8175756  27.3377134  -5.1559411
  81.6360012  29.6514997 -12.3260012  81.3050012  29.2814997 -13.1440012
  82.2240012  28.9814997 -11.9790012  81.6701873  29.5101156 -12.3911898
  83.0020012  33.0794997  -9.6440012  82.9080012  32.5014997 -10.4010012
  83.7320012  32.7084997  -9.1480012  83.0877981  32.9502390  -9.6805835
  82.0020012  28.4204997  -8.6920012  82.5680012  28.5414997  -9.4550012
  82.3210012  29.0574997  -8.0530012  82.1225786  28.5231884  -8.7099960
  88.3110012  33.9234997  -7.9580012  88.0710012  34.5854997  -7.3100012
  88.1130012  33.0894997  -7.5330012  88.2513808  33.9013134  -7.8118476
  82.8820012  32.8194997  -3.9750012  82.5710012  33.6014997  -3.5200012
  82.2320012  32.6664997  -4.6610012  82.7515558  32.9059105  -4.0054129
  88.8610012  28.1834997 -16.5230012  89.4410012  28.3334997 -15.7760012
  89.2750012  28.6544997 -17.2460012  88.9962830  28.2676841 -16.5185866
  79.8020012  29.0174997  -4.7460012  79.8730012  29.6684997  -4.0480012
  78.9120012  29.1204997  -5.0810012  79.6913117  29.1205936  -4.6957300
  86.5880012  34.9204997 -13.0880012  87.0620012  35.2154997 -12.3100012
  86.0250012  35.6584997 -13.3210012  86.5767653  35.0606932 -13.0129864
  81.1220012  34.8914997  -3.2120012  81.1290012  34.7554997  -4.1590012
  80.2060012  34.7734997  -2.9600012  80.9991714  34.8569430  -3.3075334
  92.5600012  19.9334997 -16.7100012  91.6600012  20.0724997 -16.4150012
  92.8120012  20.7644997 -17.1120012  92.4708702  20.0649074 -16.7239795
  80.6260012  28.7214997 -14.7360012  80.3340012  29.4894997 -15.2270012
  79.9520012  28.0614997 -14.8990012  80.4949081  28.7374406 -14.8252660
  93.7490012  34.2994997 -18.3340012  93.8230012  35.2384997 -18.1630012
  94.6550012  33.9944997 -18.3900012  93.8815100  34.3866722 -18.3181881
  76.7190012  31.0844997  -5.9210012  76.2180012  31.0564997  -6.7360012
  76.7240012  30.1784997  -5.6120012  76.6511526  30.9582278  -5.9907128
  76.4690012  33.8644997  -9.0370012  77.4150012  33.7204997  -9.0560012
  76.3570012  34.6484997  -8.5000012  76.5832727  33.9508046  -8.9669928
  94.6670012  34.5304997  -3.3550012  94.6180012  33.5754997  -3.3920012
  93.8400012  34.7984997  -2.9540012  94.5484940  34.4358998  -3.3058625
  85.6460012  34.1044997  -4.4790012  85.7330012  34.9304997  -4.0040012
  84.7820012  33.7744997  -4.2300012  85.5411964  34.1729878  -4.3803451
  86.0600012  37.8764997 -14.6730012  85.9850012  37.7554997 -15.6190012
  86.0930012  38.8264997 -14.5540012  86.0541848  37.9882500 -14.7865166
  79.7130012  36.6654997 -12.8920012  79.8660012  36.3174997 -12.0130012
  78.8630012  36.3094997 -13.1470012  79.6188962  36.5696650 -12.8061660
  89.1620012  37.0304997 -17.6710012  89.5370012  36.2864997 -18.1410012
  89.1660012  36.7604997 -16.7520012  89.2138915  36.8921486 -17.6112176
  88.8310012  36.9564997 -14.9210012  87.8950012  37.0564997 -14.7430012
  89.1110012  36.2474997 -14.3430012  88.7408255  36.8742711 -14.8184609
  91.8190012  26.0234997  -2.8750012  91.4120012  26.5044997  -3.5960012
  91.8600012  25.1184997  -3.1830012  91.7688437  25.9669374  -3.0153317
  78.9680012  32.4074997  -4.8780012  79.1840012  32.0464997  -4.0190012
  78.1130012  32.0334997  -5.0880012  78.8819292  32.3074111  -4.7886614
  81.5870012  20.8774997  -8.8830012  80.7250012  20.7904997  -9.2900012
  81.5640012  21.7334997  -8.4550012  81.4660330  20.9812765  -8.8808137
  86.2500012  20.5994997  -5.5080012  86.6700012  20.1844997  -4.7550012
  85.3170012  20.4214997  -5.3910012  86.1813644  20.5185900  -5.3890461
  89.5760012  24.3554997  -4.6550012  89.0620012  24.2294997  -3.8570012
  89.4210012  25.2674997  -4.8990012  89.4846852  24.4616132  -4.5787842
  90.3390012  29.2164997 -18.8930012  90.3810012  28.9934997 -19.8230012
  91.1880012  29.6154997 -18.7030012  90.4595396  29.2399155 -18.9946373
  85.9110012  23.0924997 -18.2230012  85.6580012  23.1114997 -17.3000012
  85.6550012  22.2204997 -18.5240012  85.8417790  22.9772437 -18.1373737
  81.6780012  25.8434997  -7.7880012  81.0360012  25.8024997  -7.0790012
  81.7150012  26.7694997  -8.0250012  81.5951324  25.9631559  -7.7230176
  81.6750012  26.0644997 -12.8760012  80.7820012  25.7234997 -12.9340012
  82.1250012  25.6874997 -13.6310012  81.6137305  25.9668484 -12.9860823
  87.2100012  26.4804997 -14.0590012  86.8010012  27.2954997 -14.3500012
  87.9310012  26.3404997 -14.6730012  87.2514537  26.5732018 -14.1818658
  86.3120012  26.6554997  -2.5710012  85.7500012  25.9514997  -2.2500012
  87.1390012  26.5354997  -2.1030012  86.3467095  26.5427883  -2.4637670
  88.2150012  25.9264997 -11.2450012  88.0200012  26.5314997 -11.9600012
  88.3960012  25.0924997 -11.6790012  88.2127614  25.8966300 -11.4015595
  79.4280012  26.1634997  -5.9210012  79.3900012  26.5634997  -5.0520012
  78.9370012  25.3464997  -5.8300012  79.3564684  26.1078069  -5.7898941
  82.7940012  23.5374997 -19.1220012  82.3630012  23.0924997 -18.3920012
  82.0760012  23.9094997 -19.6340012  82.6379438  23.5268940 -19.0913201
  76.0360012  23.2794997 -12.0700012  76.6670012  23.2504997 -11.3510012
  76.4850012  22.8544997 -12.8000012  76.1830774  23.2180492 -12.0703447
  77.3100012  24.0254997 -16.6460012  77.7840012  24.6164997 -17.2310012
  76.5930012  24.5564997 -16.2990012  77.2779341  24.1780867 -16.6791164
  87.4790012  27.5644997  -6.5730012  87.8020012  26.9334997  -7.2160012
  87.0390012  27.0294997  -5.9130012  87.4636895  27.4058441  -6.5717150
  84.2560012  23.4914997 -11.7890012  83.3450012  23.5484997 -11.5010012
  84.7620012  23.4314997 -10.9790012  84.1995413  23.4911985 -11.6399378
  79.0850012  25.1204997 -12.9630012  78.1950012  25.2204997 -13.3030012
  79.3810012  24.2784997 -13.3090012  79.0032823  25.0203545 -13.0562787
  82.7380012  25.1204997 -15.3060012  83.6690012  25.2494997 -15.1280012
  82.5230012  25.7904997 -15.9560012  82.8364247  25.2286565 -15.3694253
  88.6610012  22.7264997  -8.5250012  87.9850012  22.8574997  -7.8610012
  88.1760012  22.5714997  -9.3350012  88.5027145  22.7234905  -8.5435483
  81.4120012  26.3154997 -17.7390012  80.8690012  25.9354997 -18.4310012
  82.2450012  26.5094997 -18.1680012  81.4504399  26.2898124 -17.8915474
  91.9490012  38.3984997  -2.2480012  92.1490012  38.8224997  -3.0830012
  92.6040012  38.7414997  -1.6410012  92.0650051  38.5029648  -2.2802164
  79.5470012  30.8724997  -2.6400012  80.2790012  31.1264997  -2.0790012
  78.7670012  31.0764997  -2.1250012  79.5418232  30.9349177  -2.4934240
  85.5760012  26.2794997  -9.9020012  86.1410012  25.7324997 -10.4490012
  85.4290012  25.7574997  -9.1140012  85.6332918  26.1342024  -9.8701546
  80.5780012  22.4154997 -13.4840012  80.2610012  21.5134997 -13.5190012
  81.3600012  22.4174997 -14.0370012  80.6402284  22.2921628 -13.5635217
  84.2030012  24.6674997  -7.4880012  83.3670012  25.1214997  -7.3780012
  84.7270012  24.9434997  -6.7360012  84.1594414  24.7669376  -7.3712864
  84.7470012  30.8804997 -15.8040012  84.0020012  30.3734997 -16.1260012
  84.6130012  30.9294997 -14.8570012  84.6268776  30.8176940 -15.7201353
  91.8970012  30.0134997  -7.0170012  92.5390012  30.4704997  -7.5610012
  91.0670012  30.1264997  -7.4800012  91.8725963  30.0912704  -7.1539823
  88.6450012  23.6944997 -17.6040012  87.7060012  23.8064997 -17.7560012
  88.9420012  24.5514997 -17.2980012  88.5567666  23.8256443 -17.5834232
  86.2660012  31.0644997  -4.5670012  85.9210012  30.6834997  -3.7600012
  86.0660012  31.9984997  -4.4950012  86.1918061  31.1385228  -4.4469039
  89.3630012  25.5614997 -15.9440012  90.2550012  25.4244997 -15.6250012
  89.4200012  26.3524997 -16.4800012  89.4926285  25.6496660 -15.9728309
  79.8720012  30.1754997 -10.0340012  80.6170012  30.1734997 -10.6350012
  79.9500012  29.3524997  -9.5520012  79.9845518  30.0639315 -10.0511071
  86.8730012  32.3394997 -16.7780012  86.5770012  33.1654997 -16.3970012
  86.1700012  31.7194997 -16.5820012  86.7374914  32.3688199 -16.6993557
  76.8800012  28.6364997  -4.7190012  77.1030012  28.2184997  -3.8870012
  76.2780012  28.0234997  -5.1420012  76.8291759  28.4964668  -4.6622978
  83.8960012  28.1534997  -2.5060012  83.6000012  27.9874997  -3.4010012
  84.8280012  27.9334997  -2.5170012  83.9814166  28.1010640  -2.6299464
  88.5170012  33.5264997  -4.6160012  87.6160012  33.7094997  -4.8840012
  88.5510012  33.7854997  -3.6950012  88.3983041  33.5865512  -4.5281803
  94.2480012  25.7714997 -16.2490012  93.6940012  25.3754997 -16.9210012
  94.3480012  26.6814997 -16.5270012  94.1857059  25.8403586 -16.3785599
  94.2110012  31.5714997  -3.4120012  93.3600012  31.8094997  -3.7790012
  94.8020012  31.5544997  -4.1650012  94.1742487  31.6018258  -3.5641107
  92.5430012  34.5574997 -15.7840012  92.1700012  33.7314997 -15.4750012
  92.8210012  34.3744997 -16.6810012  92.5295630  34.4197303 -15.8630374
  89.7040012  29.3654997  -8.7630012  88.7750012  29.1334997  -8.7900012
  90.1550012  28.5884997  -9.0930012  89.6379216  29.2287238  -8.8113083
  82.2470012  33.6934997 -12.6300012  82.7740012  34.4664997 -12.8300012
  81.3670012  33.9184997 -12.9310012  82.2001773  33.8298005 -12.6980990
  78.0020012  28.5554997 -18.0430012  78.6180012  29.1824997 -17.6630012
  77.1400012  28.8714997 -17.7710012  77.9697698  28.6839430 -17.9542817
  83.6740012  31.3564997 -13.0530012  83.4330012  32.2814997 -13.0120012
  82.9330012  30.8974997 -12.6570012  83.5408409  31.4211421 -12.9938623
  84.1890012  35.5054997  -6.7380012  84.5510012  36.3604997  -6.9720012
  84.7200012  35.2134997  -5.9980012  84.3104473  35.5831060  -6.6699145
  82.3570012  36.3784997 -13.5080012  81.4070012  36.4834997 -13.4570012
  82.7090012  37.1984997 -13.1630012  82.2744203  36.5038314 -13.4543350
  87.7330012  31.6044997  -7.0380012  87.3070012  31.3774997  -6.2110012
  88.3130012  30.8664997  -7.2200012  87.7531868  31.4735299  -6.9494170
  89.9360012  32.5334997 -17.9640012  90.2890012  32.1534997 -17.1590012
  88.9870012  32.4404997 -17.8770012  89.8560441  32.4689596 -17.8421441
  90.3910012  36.1564997  -4.5680012  89.7900012  35.6014997  -5.0640012
  90.6730012  36.8234997  -5.1940012  90.3468519  36.1706841  -4.7205048
  94.4390012  37.0134997 -17.7630012  95.1830012  37.5994997 -17.9030012
  93.7450012  37.5814997 -17.4290012  94.4470292  37.1705582 -17.7370039
  78.5140012  23.3894997  -5.1610012  77.6210012  23.7284997  -5.2290012
  78.4150012  22.5344997  -4.7430012  78.3784164  23.3202588  -5.1137765
  90.8020012  31.2064997 -15.7370012  90.5240012  30.4784997 -15.1810012
  91.7290012  31.3254997 -15.5320012  90.8893124  31.1228802 -15.6331155
  78.1650012  35.1944997  -6.7260012  78.3820012  34.2624997  -6.7570012
  78.4110012  35.4684997  -5.8430012  78.2279549  35.1040636  -6.6108237
  84.0270012  33.6454997 -19.5170012  84.2660012  32.8974997 -20.0640012
  83.7580012  33.2574997 -18.6840012  84.0233675  33.4906638 -19.4793135
  82.9640012  33.2154997 -17.0600012  83.1100012  32.6954997 -16.2700012
  82.9610012  34.1224997 -16.7540012  82.9835989  33.2668853 -16.9103912
  79.4170012  30.4684997 -16.5500012  78.7310012  30.8204997 -15.9830012
  79.9390012  31.2314997 -16.7970012  79.3936852  30.6198578 -16.5057882
  87.2480012  23.1304997  -6.2710012  87.9470012  23.2044997  -5.6210012
  86.8670012  22.2664997  -6.1170012  87.2921767  23.0237624  -6.1611678
  88.0330012  22.7824997 -15.1740012  88.2530012  23.2544997 -15.9770012
  88.5910012  23.1774997 -14.5040012  88.1384968  22.9004285 -15.1932669
  85.7010012  34.9134997 -16.3110012  84.8850012  35.4104997 -16.2590012
  86.2310012  35.3884997 -16.9510012  85.6609161  35.0457722 -16.3904044
  85.2330012  24.5104997 -14.3390012  86.0450012  25.0154997 -14.2930012
  84.9880012  24.3654997 -13.4250012  85.3110520  24.5600375 -14.2091483
  85.7680012  25.4964997  -5.1540012  85.8870012  26.0704997  -4.3970012
  86.4240012  24.8084997  -5.0400012  85.8729757  25.4821079  -5.0349175
  86.1160012  21.5914997 -13.4010012  85.7700012  22.2094997 -12.7560012
  86.7750012  22.0924997 -13.8820012  86.1577826  21.7435802 -13.3779029
  83.0400012  35.9574997 -16.3290012  83.2000012  36.7564997 -16.8300012
  82.8420012  36.2634997 -15.4440012  83.0351649  36.1084469 -16.2780185
  81.7740012  22.6544997 -16.7140012  81.6910012  23.5434997 -16.3670012
  82.6640012  22.3894997 -16.4820012  81.8829469  22.7401430 -16.6352374
  91.9730012  23.4034997  -4.3190012  91.0560012  23.6664997  -4.4070012
  92.3080012  23.4004997  -5.2160012  91.8929900  23.4390224  -4.4522081
  90.5750012  27.1544997 -10.2240012  89.7770012  26.7394997 -10.5520012
  91.0200012  26.4634997  -9.7330012  90.5259885  27.0043543 -10.2025111
  80.0330012  33.0824997 -17.6530012  80.6250012  33.7814997 -17.3770012
  80.4920012  32.6494997 -18.3730012  80.1761142  33.1197049 -17.7125170
  78.3490012  25.7464997 -18.5370012  78.3040012  26.6854997 -18.3590012
  77.4610012  25.5104997 -18.8070012  78.2228574  25.8431892 -18.5491088
  91.6610012  36.4104997  -8.6010012  91.5060012  37.0884997  -9.2580012
  92.5940012  36.4824997  -8.3980012  91.7658500  36.5130170  -8.6634881
  79.1570012  20.5284997  -9.8640012  78.9280012  20.5874997 -10.7920012
  78.7140012  19.7364997  -9.5580012  79.0658530  20.4295753  -9.9495214
  78.0870012  34.4684997 -13.7040012  77.2550012  34.9414997 -13.6760012
  78.6330012  34.9784997 -14.3020012  78.0469739  34.6021871 -13.7810284
  77.3750012  37.0814997  -2.3740012  77.9160012  36.8644997  -1.6140012
  76.8940012  36.2754997  -2.5630012  77.3839345  36.9429514  -2.2956924
  81.9730012  36.0004997  -0.7530012  82.7400012  35.5414997  -0.4120012
  81.9510012  35.7744997  -1.6830012  82.0751434  35.9070409  -0.8319957
  86.0650012  35.5084997 -19.3780012  85.4210012  34.8774997 -19.0570012
  86.8270012  34.9774997 -19.6100012  86.0798077  35.3502920 -19.3653989
  88.5500012  34.3804997  -2.0240012  88.1990012  33.5244997  -1.7810012
  89.2760012  34.5234997  -1.4170012  88.6000769  34.2825636  -1.9086381
  90.6690012  35.3254997 -19.1440012  90.9520012  34.5314997 -18.6920012
  91.4090012  35.5584997 -19.7050012  90.8077486  35.2482803 -19.1579302
  77.2820012  30.8914997  -1.4190012  77.4260012  29.9894997  -1.7060012
  76.5100012  31.1774997  -1.9070012  77.1973323  30.8068261  -1.5242119
  81.6240012  31.2354997 -19.2870012  81.6880012  30.4414997 -18.7560012
  82.2770012  31.1164997 -19.9770012  81.7210241  31.1107148 -19.3075683
  83.9380012  30.8614997  -1.9870012  83.6090012  31.1324997  -2.8440012
  84.0900012  29.9204997  -2.0740012  83.9134809  30.7713862  -2.1161756
  89.6720012  30.7774997  -4.6030012  90.4180012  31.3654997  -4.7230012
  88.9150012  31.3594997  -4.5400012  89.6717554  30.9367011  -4.6109093
  78.1150012  28.0914997  -1.9990012  78.5230012  27.2344997  -2.1200012
  77.8550012  28.1064997  -1.0780012  78.1357568  27.9760807  -1.8910412
  82.7730012  29.2074997 -16.9810012  82.3130012  28.7234997 -16.2950012
  83.0280012  28.5394997 -17.6170012  82.7444902  29.0508731 -16.9730666
  82.0620012  27.1004997  -4.6250012  81.4440012  27.7754997  -4.3450012
  82.4060012  27.4214997  -5.4580012  82.0239615  27.2362721  -4.6993419
  83.8440012  27.4504997 -18.7190012  83.6640012  27.2964997 -19.6460012
  84.7940012  27.5584997 -18.6740012  83.9477776  27.4440175 -18.8398157
  87.0820012  29.5724997  -1.3480012  88.0350012  29.6554997  -1.3750012
  86.9210012  28.8604997  -0.7280012  87.1906426  29.4876746  -1.2679421
  93.2340012  29.8054997 -19.2730012  92.9600012  29.3804997 -20.0860012
  93.2730012  30.7364997 -19.4900012  93.2017699  29.8732484 -19.4136390
  82.4010012  24.4554997  -3.5430012  82.5510012  23.7264997  -4.1450012
  82.4040012  25.2324997  -4.1020012  82.4219302  24.4607851  -3.7009308
  82.8140012  22.8254997  -6.0500012  83.3500012  23.2764997  -6.7020012
  81.9620012  22.7174997  -6.4730012  82.7722178  22.8726390  -6.1964244
  84.3960012  28.2644997  -5.8110012  85.1460012  28.1084997  -6.3840012
  84.0570012  29.1164997  -6.0860012  84.4528921  28.3582968  -5.9266439
  88.8110012  26.0794997  -0.7820012  89.0040012  25.1484997  -0.8940012
  89.6690012  26.5044997  -0.7920012  88.9533020  26.0096389  -0.7986639
  90.1280012  28.8684997  -2.7050012  89.8470012  29.5774997  -3.2820012
  91.0710012  28.7954997  -2.8560012  90.2169027  28.9557646  -2.8044449
  80.8800012  25.6534997  -1.6310012  80.1130012  25.1214997  -1.8410012
  81.5590012  25.3434997  -2.2310012  80.8667022  25.5387506  -1.7408352
  83.6200012  20.2814997  -5.6190012  83.5210012  21.2284997  -5.7240012
  82.8770012  19.9094997  -6.0940012  83.5060564  20.3605902  -5.6975440
  84.8840012  24.6034997  -2.0550012  84.6480012  24.3834997  -1.1530012
  84.1000012  24.3964997  -2.5650012  84.7458628  24.5454760  -2.0006068
  87.5990012  23.7304997  -2.9790012  86.6520012  23.7624997  -2.8470012
  87.9120012  23.1054997  -2.3260012  87.5115475  23.6503207  -2.8725545
  89.2330012  22.3644997  -0.9740012  89.1370012  21.4124997  -0.9800012
  88.9120012  22.6334997  -0.1140012  89.1764070  22.2704035  -0.8584559
  79.0600012  23.5744997  -1.9270012  79.2720012  22.8674997  -2.5370012
  78.9490012  23.1364997  -1.0830012  79.0739721  23.4187084  -1.8963157
  83.8410012  19.5754997  -2.9470012  84.5530012  18.9354997  -2.9610012
  83.7400012  19.8424997  -3.8610012  83.9247939  19.5239938  -3.0724350
  84.1950012  21.2584997  -0.8940012  84.0630012  20.7824997  -1.7140012
  83.5960012  22.0024997  -0.9490012  84.0959071  21.2939618  -1.0137114
  83.7410012  38.1414997 -17.7170012  84.6740012  38.2994997 -17.5740012
  83.4770012  38.8164997 -18.3420012  83.8329510  38.2543611 -17.7819259
  77.3100012  32.7774997 -18.2350012  78.2240012  32.8564997 -17.9610012
  77.3170012  32.0904997 -18.9010012  77.4361131  32.6953961 -18.2875607
  75.9590012  38.1704997 -13.1570012  75.3120012  37.7084997 -13.6900012
  76.3130012  37.4984997 -12.5750012  75.9183849  38.0164723 -13.1512041
  76.8290012  36.2514997 -11.3530012  76.4940012  35.3714997 -11.1810012
  77.0510012  36.5964997 -10.4880012  76.8131783  36.1777500 -11.2125792
  94.3770012  37.0604997  -8.3720012  94.3560012  37.2454997  -7.4330012
  95.0680012  37.6294997  -8.7130012  94.4674618  37.1626606  -8.2896136
  93.9410012  36.6284997  -5.4500012  93.4530012  35.8924997  -5.8210012
  94.4900012  36.2344997  -4.7720012  93.9484872  36.4746249  -5.4090840
  92.3910012  32.4174997  -0.8120012  91.5250012  32.3124997  -0.4180012
  92.7680012  33.1764997  -0.3660012  92.3233308  32.5056900  -0.6977607
  93.6920012  30.6744997 -15.2980012  94.5420012  31.0954997 -15.1710012
  93.6980012  29.9344997 -14.6910012  93.8091372  30.6320803 -15.1985656
  94.0870012  28.7274997 -13.4740012  93.3600012  28.2484997 -13.0770012
  94.6680012  28.9334997 -12.7420012  94.0659375  28.6897090 -13.3205871
  93.8460012  31.5124997  -8.5270012  94.6790012  31.1344997  -8.8070012
  93.9580012  32.4554997  -8.6460012  93.9752647  31.5882218  -8.5814513
  92.3320012  34.3904997  -6.2200012  91.6850012  34.7154997  -5.5940012
  91.8150012  33.9504997  -6.8940012  92.1734029  34.3755004  -6.2254173
  94.3550012  28.6284997 -17.0830012  93.8330012  28.9854997 -17.8020012
  94.3220012  29.3034997 -16.4050012  94.2791634  28.7685413 -17.0896855
  92.7040012  25.8684997 -18.5320012  92.8000012  26.5354997 -19.2130012
  92.5640012  25.0524997 -19.0140012  92.6982135  25.8494500 -18.6901509
  91.8730012  27.2484997 -12.9110012  91.7230012  26.3034997 -12.9320012
  91.5200012  27.5294997 -12.0680012  91.8046625  27.1570441 -12.7997654
  76.9090012  29.3264997  -8.9010012  77.0930012  29.2444997  -9.8370012
  77.7580012  29.2024997  -8.4770012  77.0490139  29.2985003  -8.9718545
  92.7300012  29.2184997  -3.2730012  93.3130012  28.4844997  -3.0810012
  93.2940012  29.9904997  -3.2260012  92.8859769  29.2224227  -3.2403841
  94.2260012  27.1214997  -2.5880012  93.3630012  26.7424997  -2.7540012
  94.8310012  26.3824997  -2.6620012  94.1895979  26.9698023  -2.6207183
  91.9510012  23.2764997 -19.4150012  92.5620012  22.9054997 -18.7780012
  91.1150012  22.8554997 -19.2190012  91.9215032  23.1687554 -19.3012965
  91.5840012  24.8314997 -14.4490012  91.8640012  23.9244997 -14.3250012
  92.3430012  25.2654997 -14.8380012  91.7249277  24.7660942 -14.4846318
  92.1960012  25.4124997  -9.0130012  93.1290012  25.6244997  -9.0470012
  91.9610012  25.5144997  -8.0910012  92.2918036  25.4552769  -8.8930024
  92.2250012  26.1494997  -6.2370012  91.3820012  26.4174997  -5.8710012
  92.6670012  26.9714997  -6.4480012  92.1694158  26.2973291  -6.2154509
  76.5060012  24.5974997  -2.7600012  77.4260012  24.4754997  -2.5240012
  76.0570012  23.8474997  -2.3710012  76.5711580  24.4793727  -2.6750994
  94.5080012  20.1294997  -0.8840012  94.8580012  19.4754997  -1.4890012
  94.6550012  20.9664997  -1.3230012  94.5758419  20.1531591  -1.0262882
  92.1970012  22.0944997 -14.4010012  92.3800012  21.6454997 -13.5750012
  91.5980012  21.5094997 -14.8640012  92.1410202  21.9539975 -14.3506725
  77.7270012  22.9094997  -9.8690012  78.1730012  22.1174997  -9.5670012
  78.1940012  23.6254997  -9.4380012  77.8510172  22.8980624  -9.7695180
  76.0310012  25.9084997  -8.8000012  76.5230012  25.6874997  -9.5910012
  76.3940012  26.7494997  -8.5190012  76.1473126  25.9918357  -8.8702469
  94.0280012  22.2384997  -2.5340012  93.1100012  22.5094997  -2.5700012
  94.1510012  21.7034997  -3.3190012  93.9191066  22.2032892  -2.6449513
  94.0640012  22.1614997 -17.8730012  94.4760012  21.4404997 -18.3480012
  94.7460012  22.8314997 -17.8140012  94.2125885  22.1532368 -17.9301085
  76.3450012  22.1664997 -14.7460012  75.4200012  22.3754997 -14.8750012
  76.7990012  22.6504997 -15.4350012  76.2797368  22.2605993 -14.8568774
  91.1160012  37.1504997 -12.8000012  91.7680012  36.8034997 -13.4080012
  91.6260012  37.6394997 -12.1540012  91.2742637  37.1690597 -12.7959764
  76.3090012  20.9044997  -6.4010012  75.6440012  20.6584997  -5.7580012
  75.8660012  21.5264997  -6.9790012  76.1580956  20.9548632  -6.3910648
  78.5010012  34.0794997  -2.2570012  77.6800012  34.2544997  -2.7170012
  78.2480012  34.0064997  -1.3360012  78.3546164  34.0935622  -2.1955077
  81.4550012  35.0544997  -5.9980012  81.0300012  35.8634997  -6.2810012
  82.3590012  35.1394997  -6.3000012  81.5190271  35.1768469  -6.0776224
  85.7660012  36.4534997  -3.0390012  85.9510012  36.1194997  -2.1610012
  86.6120012  36.7624997  -3.3610012  85.9057539  36.4496047  -2.9624395
  88.1110012  37.7394997  -3.7950012  88.7880012  37.1064997  -4.0350012
  88.4330012  38.1404997  -2.9880012  88.2471637  37.7071154  -3.7187207
  93.0280012  20.3284997  -4.7150012  92.2160012  20.6534997  -5.1030012
  93.2610012  19.5684997  -5.2480012  92.9483423  20.2702436  -4.8401747
  78.8570012  38.3104997  -5.9510012  78.1360012  38.7504997  -6.4020012
  78.4910012  38.0594997  -5.1020012  78.7089804  38.3367698  -5.8980160
  81.3240012  37.9104997  -6.9210012  80.4590012  37.9824997  -6.5170012
  81.2690012  38.4574997  -7.7050012  81.1982085  37.9942685  -6.9716638
  86.0340012  37.7984997  -7.7460012  85.5780012  38.3274997  -8.4000012
  86.1970012  38.4014997  -7.0200012  85.9935585  37.9524468  -7.7374938
  88.3620012  36.6764997  -6.8010012  87.4570012  36.8414997  -7.0660012
  88.7910012  37.5294997  -6.8660012  88.2960799  36.8144483  -6.8460818
  90.9660012  38.2464997  -6.5060012  90.7840012  39.1624997  -6.7160012
  91.1430012  37.8364997  -7.3520012  90.9650210  38.3164822  -6.6492115
  78.2710012  36.9334997  -9.0410012  78.2530012  36.5084997  -8.1830012
  79.0760012  36.6154997  -9.4490012  78.3773875  36.8323812  -8.9788345
  80.4130012  35.6434997 -10.3860012  80.1940012  34.7274997 -10.2160012
  81.2370012  35.7834997  -9.9200012  80.4944420  35.5370520 -10.2997226
  82.9500012  36.1134997  -9.5370012  83.1630012  35.2254997  -9.8240012
  83.0140012  36.0794997  -8.5830012  82.9878232  35.9873102  -9.4472603
  86.4580012  21.7774997 -10.3930012  85.7840012  21.1484997 -10.1370012
  87.0220012  21.2934997 -10.9960012  86.4419230  21.6258744 -10.4394660
  91.6010012  19.8854997 -10.2800012  92.2050012  20.4324997 -10.7820012
  90.7310012  20.2044997 -10.5200012  91.5661241  20.0035806 -10.3812346
  93.3280012  21.0234997 -11.9470012  93.9400012  20.5094997 -12.4730012
  93.7100012  21.9014997 -11.9230012  93.4634540  21.0717140 -12.0158170
  78.7850012  20.4114997 -12.5710012  78.0080012  20.1774997 -13.0780012
  79.3150012  19.6144997 -12.5620012  78.7502330  20.2716988 -12.6392258
  77.6210012  20.2094997 -16.7670012  78.0600012  20.8204997 -17.3590012
  76.9880012  20.7474997 -16.2930012  77.5954514  20.3659257 -16.7839070
  83.3640012  20.3384997 -12.7570012  84.2390012  20.7264997 -12.7870012
  83.2280012  20.1234997 -11.8350012  83.4653695  20.3625184 -12.6363560
  88.9210012  20.3684997 -11.1080012  88.9970012  20.4634997 -12.0580012
  88.6460012  19.4604997 -10.9790012  88.8942321  20.2587867 -11.2204921
  90.2740012  20.3944997 -15.4160012  89.5720012  21.0094997 -15.6250012
  89.8300012  19.5564997 -15.2850012  90.1176330  20.3655783 -15.4269672
  77.5220012  36.1574997 -15.8690012  76.8370012  36.1194997 -16.5370012
  77.5260012  37.0704997 -15.5810012  77.4288193  36.2757016 -15.9214716
  79.4820012  22.1254997 -18.3250012  79.9740012  21.4954997 -18.8520012
  80.1060012  22.4214997 -17.6610012  79.6335446  22.0793199 -18.3074020
  84.5080012  22.4184997 -15.8680012  84.6860012  21.7724997 -15.1850012
  84.4550012  23.2524997 -15.4000012  84.5251829  22.4427985 -15.7114060
  86.3870012  37.3674997 -17.4720012  87.2530012  37.7334997 -17.6500012
  86.1400012  36.9274997 -18.2860012  86.4722392  37.3581756 -17.6063711
  93.0960012  36.9304997 -14.7930012  92.9010012  36.1824997 -15.3580012
  93.0570012  37.6884997 -15.3760012  93.0640380  36.9306099 -14.9491616
  78.7430012  20.9254997  -3.0530012  78.3770012  20.1604997  -2.6100012
  79.6560012  20.9544997  -2.7660012  78.8162790  20.8247224  -2.9535930
  80.7160012  20.2764997  -1.5170012  81.6140012  20.0024997  -1.7020012
  80.3290012  19.5334997  -1.0530012  80.7866612  20.1385914  -1.4796357
  79.3400012  37.0774997 -18.8440012  79.0730012  37.3644997 -17.9710012
  80.1120012  36.5314997 -18.6920012  79.4077488  37.0430294 -18.7038950
  89.1370012  19.6084997  -1.3350012  89.2140012  19.1824997  -0.4810012
  90.0310012  19.6224997  -1.6780012  89.2683428  19.5520879  -1.2644690
  92.3130012  35.6814997  -2.6430012  91.5310012  35.4954997  -3.1620012
  92.2410012  36.6104997  -2.4250012  92.1961777  35.7816492  -2.6845952
 106.7190012  29.5674997 -12.6120012 106.8080012  30.5114997 -12.7440012
 106.0810012  29.2924997 -13.2700012 106.6449081  29.6594830 -12.7190386
 105.6520012  28.8224997  -9.1930012 105.6140012  28.1764997  -8.4880012
 105.3300012  28.3564997  -9.9640012 105.6032333  28.6709408  -9.2007022
  98.0210012  28.4374997  -7.6000012  98.0620012  27.8114997  -6.8770012
  98.7240012  29.0614997  -7.4180012  98.1216363  28.4361196  -7.4763956
 109.3580012  31.7614997 -10.8920012 108.9180012  31.0414997 -10.4410012
 109.3450012  32.4824997 -10.2620012 109.2960226  31.7603731 -10.7451506
  98.9440012  32.8874997  -9.0650012  98.5750012  32.0854997  -9.4350012
  99.8850012  32.7184997  -9.0190012  99.0207289  32.7550153  -9.1093684
  95.5540012  26.5474997 -13.6720012  95.1070012  27.3934997 -13.6910012
  94.9930012  25.9674997 -14.1880012  95.4169900  26.5849916 -13.7443199
  96.2650012  28.7094997 -11.5460012  96.4780012  27.9394997 -11.0190012
  97.0030012  28.7984997 -12.1500012  96.3938496  28.6161394 -11.5554700
 106.4700012  36.8664997 -10.6790012 107.0900012  36.1894997 -10.9530012
 106.2620012  36.6484997  -9.7710012 106.5266904  36.7443870 -10.5936635
 104.0420012  31.2554997  -8.7870012 104.3460012  30.5694997  -9.3820012
 104.7630012  31.3734997  -8.1690012 104.1810671  31.1776304  -8.7848184
 112.7050012  22.8564997  -7.9260012 112.7540012  23.4664997  -7.1900012
 113.1300012  23.3174997  -8.6490012 112.7691824  23.0023741  -7.9229795
 107.1830012  25.6494997  -8.4590012 107.3250012  24.7034997  -8.4390012
 107.0760012  25.8564997  -9.3880012 107.1879864  25.5479534  -8.5817661
 100.3370012  23.7504997 -11.1870012 100.3810012  24.6104997 -11.6050012
  99.8800012  23.1984997 -11.8210012 100.2812185  23.7935799 -11.3299701
 108.0600012  23.8814997 -12.7860012 108.7060012  23.5524997 -12.1610012
 108.5700012  24.3994997 -13.4090012 108.2174264  23.9064611 -12.7846138
  96.9580012  26.1474997 -10.4250012  97.6110012  25.5974997  -9.9930012
  96.9820012  25.8734997 -11.3420012  97.0506683  26.0351466 -10.4897877
 102.1140012  27.6974997 -11.2100012 102.7300012  27.1714997 -10.7000012
 101.5280012  27.0574997 -11.6130012 102.1190810  27.5389208 -11.1946827
 113.0960012  24.3344997  -5.6900012 112.4080012  24.9924997  -5.7860012
 113.1120012  24.1374997  -4.7540012 113.0038525  24.3980462  -5.5765192
  99.1480012  22.6684997  -7.1130012  98.9290012  23.1984997  -7.8790012
  98.4800012  22.8954997  -6.4660012  99.0277600  22.7716906  -7.1303621
 106.5170012  32.1684997 -13.5690012 106.2210012  31.8464997 -14.4200012
 106.1920012  33.0684997 -13.5280012 106.4326371  32.2460215 -13.6798199
 101.7170012  30.3444997  -6.8260012 100.9770012  30.9424997  -6.7220012
 102.4310012  30.8984997  -7.1410012 101.7122237  30.5012831  -6.8543535
 109.8240012  23.1724997 -10.8060012 109.6080012  22.4064997 -10.2730012
 110.4790012  23.6444997 -10.2930012 109.8830632  23.1315889 -10.6637139
  98.7410012  24.5604997  -9.1610012  99.3550012  25.1934997  -8.7870012
  99.2530012  24.0884997  -9.8170012  98.8942296  24.5832370  -9.1985748
 100.1240012  32.3084997  -6.0380012 100.1190012  33.1884997  -6.4160012
  99.2710012  32.2254997  -5.6130012 100.0079464  32.4176117  -6.0322093
  96.2450012  31.9794997 -15.2560012  95.9730012  32.2084997 -16.1450012
  96.2910012  32.8174997 -14.7960012  96.2140094  32.1241213 -15.3154303
 109.8700012  33.6014997  -8.5440012 108.9290012  33.6594997  -8.3820012
 110.1470012  34.5074997  -8.6810012 109.7784679  33.7319443  -8.5403185
 110.1710012  21.8874997  -7.1260012 109.4350012  22.4984997  -7.1640012
 110.8540012  22.3024997  -7.6530012 110.1626541  22.0271374  -7.2024168
 103.1740012  19.9744997  -9.6600012 103.0570012  19.0254997  -9.7150012
 102.3190012  20.3064997  -9.3870012 103.0423733  19.8895409  -9.6306103
 108.1220012  35.3824997 -11.9180012 108.5480012  34.6754997 -12.4030012
 108.4390012  36.1834997 -12.3350012 108.2231019  35.3940994 -12.0406870
 109.2820012  33.2834997 -13.4100012 109.0240012  32.5934997 -14.0210012
 109.3530012  32.8404997 -12.5640012 109.2562856  33.1292124 -13.3793115
 110.9680012  31.8494997  -4.9320012 111.1080012  31.2584997  -5.6720012
 111.1350012  32.7224997  -5.2890012 111.0096778  31.8866426  -5.0813035
 105.4410012  28.8114997 -15.1600012 104.7290012  29.3464997 -15.5120012
 106.1320012  28.8674997 -15.8200012 105.4370132  28.8922543 -15.2973711
 105.4940012  27.2694997 -18.1210012 106.1950012  27.2914997 -17.4700012
 105.7970012  26.6414997 -18.7770012 105.6307830  27.1876566 -18.1206289
 112.8100012  28.1894997  -6.8660012 112.1570012  28.8844997  -6.7770012
 113.2750012  28.3994997  -7.6760012 112.7835390  28.3129425  -6.9633117
 108.8460012  29.0214997 -14.2080012 108.1140012  29.2494997 -13.6350012
 109.2940012  28.3074997 -13.7530012 108.8063095  28.9562571 -14.0680881
 108.7440012  27.1954997  -5.1410012 108.8240012  27.9584997  -4.5690012
 108.1420012  27.4744997  -5.8310012 108.6735756  27.3377134  -5.1559411
 100.4920012  29.6514997 -12.3260012 100.1610012  29.2814997 -13.1440012
 101.0800012  28.9814997 -11.9790012 100.5261873  29.5101156 -12.3911898
 101.8580012  33.0794997  -9.6440012 101.7640012  32.5014997 -10.4010012
 102.5880012  32.7084997  -9.1480012 101.9437981  32.9502390  -9.6805835
 100.8580012  28.4204997  -8.6920012 101.4240012  28.5414997  -9.4550012
 101.1770012  29.0574997  -8.0530012 100.9785786  28.5231884  -8.7099960
 107.1670012  33.9234997  -7.9580012 106.9270012  34.5854997  -7.3100012
 106.9690012  33.0894997  -7.5330012 107.1073808  33.9013134  -7.8118476
 101.7380012  32.8194997  -3.9750012 101.4270012  33.6014997  -3.5200012
 101.0880012  32.6664997  -4.6610012 101.6075558  32.9059105  -4.0054129
 107.7170012  28.1834997 -16.5230012 108.2970012  28.3334997 -15.7760012
 108.1310012  28.6544997 -17.2460012 107.8522830  28.2676841 -16.5185866
  98.6580012  29.0174997  -4.7460012  98.7290012  29.6684997  -4.0480012
  97.7680012  29.1204997  -5.0810012  98.5473117  29.1205936  -4.6957300
 105.4440012  34.9204997 -13.0880012 105.9180012  35.2154997 -12.3100012
 104.8810012  35.6584997 -13.3210012 105.4327653  35.0606932 -13.0129864
  99.9780012  34.8914997  -3.2120012  99.9850012  34.7554997  -4.1590012
  99.0620012  34.7734997  -2.9600012  99.8551714  34.8569430  -3.3075334
 111.4160012  19.9334997 -16.7100012 110.5160012  20.0724997 -16.4150012
 111.6680012  20.7644997 -17.1120012 111.3268702  20.0649074 -16.7239795
  99.4820012  28.7214997 -14.7360012  99.1900012  29.4894997 -15.2270012
  98.8080012  28.0614997 -14.8990012  99.3509081  28.7374406 -14.8252660
 112.6050012  34.2994997 -18.3340012 112.6790012  35.2384997 -18.1630012
 113.5110012  33.9944997 -18.3900012 112.7375100  34.3866722 -18.3181881
  95.5750012  31.0844997  -5.9210012  95.0740012  31.0564997  -6.7360012
  95.5800012  30.1784997  -5.6120012  95.5071526  30.9582278  -5.9907128
  95.3250012  33.8644997  -9.0370012  96.2710012  33.7204997  -9.0560012
  95.2130012  34.6484997  -8.5000012  95.4392727  33.9508046  -8.9669928
 113.5230012  34.5304997  -3.3550012 113.4740012  33.5754997  -3.3920012
 112.6960012  34.7984997  -2.9540012 113.4044940  34.4358998  -3.3058625
 104.5020012  34.1044997  -4.4790012 104.5890012  34.9304997  -4.0040012
 103.6380012  33.7744997  -4.2300012 104.3971964  34.1729878  -4.3803451
 104.9160012  37.8764997 -14.6730012 104.8410012  37.7554997 -15.6190012
 104.9490012  38.8264997 -14.5540012 104.9101848  37.9882500 -14.7865166
  98.5690012  36.6654997 -12.8920012  98.7220012  36.3174997 -12.0130012
  97.7190012  36.3094997 -13.1470012  98.4748962  36.5696650 -12.8061660
 108.0180012  37.0304997 -17.6710012 108.3930012  36.2864997 -18.1410012
 108.0220012  36.7604997 -16.7520012 108.0698915  36.8921486 -17.6112176
 107.6870012  36.9564997 -14.9210012 106.7510012  37.0564997 -14.7430012
 107.9670012  36.2474997 -14.3430012 107.5968255  36.8742711 -14.8184609
 110.6750012  26.0234997  -2.8750012 110.2680012  26.5044997  -3.5960012
 110.7160012  25.1184997  -3.1830012 110.6248437  25.9669374  -3.0153317
  97.8240012  32.4074997  -4.8780012  98.0400012  32.0464997  -4.0190012
  96.9690012  32.0334997  -5.0880012  97.7379292  32.3074111  -4.7886614
 100.4430012  20.8774997  -8.8830012  99.5810012  20.7904997  -9.2900012
 100.4200012  21.7334997  -8.4550012 100.3220330  20.9812765  -8.8808137
 105.1060012  20.5994997  -5.5080012 105.5260012  20.1844997  -4.7550012
 104.1730012  20.4214997  -5.3910012 105.0373644  20.5185900  -5.3890461
 108.4320012  24.3554997  -4.6550012 107.9180012  24.2294997  -3.8570012
 108.2770012  25.2674997  -4.8990012 108.3406852  24.4616132  -4.5787842
 109.1950012  29.2164997 -18.8930012 109.2370012  28.9934997 -19.8230012
 110.0440012  29.6154997 -18.7030012 109.3155396  29.2399155 -18.9946373
 104.7670012  23.0924997 -18.2230012 104.5140012  23.1114997 -17.3000012
 104.5110012  22.2204997 -18.5240012 104.6977790  22.9772437 -18.1373737
 100.5340012  25.8434997  -7.7880012  99.8920012  25.8024997  -7.0790012
 100.5710012  26.7694997  -8.0250012 100.4511324  25.9631559  -7.7230176
 100.5310012  26.0644997 -12.8760012  99.6380012  25.7234997 -12.9340012
 100.9810012  25.6874997 -13.6310012 100.4697305  25.9668484 -12.9860823
 106.0660012  26.4804997 -14.0590012 105.6570012  27.2954997 -14.3500012
 106.7870012  26.3404997 -14.6730012 106.1074537  26.5732018 -14.1818658
 105.1680012  26.6554997  -2.5710012 104.6060012  25.9514997  -2.2500012
 105.9950012  26.5354997  -2.1030012 105.2027095  26.5427883  -2.4637670
 107.0710012  25.9264997 -11.2450012 106.8760012  26.5314997 -11.9600012
 107.2520012  25.0924997 -11.6790012 107.0687614  25.8966300 -11.4015595
  98.2840012  26.1634997  -5.9210012  98.2460012  26.5634997  -5.0520012
  97.7930012  25.3464997  -5.8300012  98.2124684  26.1078069  -5.7898941
 101.6500012  23.5374997 -19.1220012 101.2190012  23.0924997 -18.3920012
 100.9320012  23.9094997 -19.6340012 101.4939438  23.5268940 -19.0913201
  94.8920012  23.2794997 -12.0700012  95.5230012  23.2504997 -11.3510012
  95.3410012  22.8544997 -12.8000012  95.0390774  23.2180492 -12.0703447
  96.1660012  24.0254997 -16.6460012  96.6400012  24.6164997 -17.2310012
  95.4490012  24.5564997 -16.2990012  96.1339341  24.1780867 -16.6791164
 106.3350012  27.5644997  -6.5730012 106.6580012  26.9334997  -7.2160012
 105.8950012  27.0294997  -5.9130012 106.3196895  27.4058441  -6.5717150
 103.1120012  23.4914997 -11.7890012 102.2010012  23.5484997 -11.5010012
 103.6180012  23.4314997 -10.9790012 103.0555413  23.4911985 -11.6399378
  97.9410012  25.1204997 -12.9630012  97.0510012  25.2204997 -13.3030012
  98.2370012  24.2784997 -13.3090012  97.8592823  25.0203545 -13.0562787
 101.5940012  25.1204997 -15.3060012 102.5250012  25.2494997 -15.1280012
 101.3790012  25.7904997 -15.9560012 101.6924247  25.2286565 -15.3694253
 107.5170012  22.7264997  -8.5250012 106.8410012  22.8574997  -7.8610012
 107.0320012  22.5714997  -9.3350012 107.3587145  22.7234905  -8.5435483
 100.2680012  26.3154997 -17.7390012  99.7250012  25.9354997 -18.4310012
 101.1010012  26.5094997 -18.1680012 100.3064399  26.2898124 -17.8915474
 110.8050012  38.3984997  -2.2480012 111.0050012  38.8224997  -3.0830012
 111.4600012  38.7414997  -1.6410012 110.9210051  38.5029648  -2.2802164
  98.4030012  30.8724997  -2.6400012  99.1350012  31.1264997  -2.0790012
  97.6230012  31.0764997  -2.1250012  98.3978232  30.9349177  -2.4934240
 104.4320012  26.2794997  -9.9020012 104.9970012  25.7324997 -10.4490012
 104.2850012  25.7574997  -9.1140012 104.4892918  26.1342024  -9.8701546
  99.4340012  22.4154997 -13.4840012  99.1170012  21.5134997 -13.5190012
 100.2160012  22.4174997 -14.0370012  99.4962284  22.2921628 -13.5635217
 103.0590012  24.6674997  -7.4880012 102.2230012  25.1214997  -7.3780012
 103.5830012  24.9434997  -6.7360012 103.0154414  24.7669376  -7.3712864
 103.6030012  30.8804997 -15.8040012 102.8580012  30.3734997 -16.1260012
 103.4690012  30.9294997 -14.8570012 103.4828776  30.8176940 -15.7201353
 110.7530012  30.0134997  -7.0170012 111.3950012  30.4704997  -7.5610012
 109.9230012  30.1264997  -7.4800012 110.7285963  30.0912704  -7.1539823
 107.5010012  23.6944997 -17.6040012 106.5620012  23.8064997 -17.7560012
 107.7980012  24.5514997 -17.2980012 107.4127666  23.8256443 -17.5834232
 105.1220012  31.0644997  -4.5670012 104.7770012  30.6834997  -3.7600012
 104.9220012  31.9984997  -4.4950012 105.0478061  31.1385228  -4.4469039
 108.2190012  25.5614997 -15.9440012 109.1110012  25.4244997 -15.6250012
 108.2760012  26.3524997 -16.4800012 108.3486285  25.6496660 -15.9728310
  98.7280012  30.1754997 -10.0340012  99.4730012  30.1734997 -10.6350012
  98.8060012  29.3524997  -9.5520012  98.8405518  30.0639315 -10.0511071
 105.7290012  32.3394997 -16.7780012 105.4330012  33.1654997 -16.3970012
 105.0260012  31.7194997 -16.5820012 105.5934914  32.3688199 -16.6993557
  95.7360012  28.6364997  -4.7190012  95.9590012  28.2184997  -3.8870012
  95.1340012  28.0234997  -5.1420012  95.6851759  28.4964668  -4.6622978
 102.7520012  28.1534997  -2.5060012 102.4560012  27.9874997  -3.4010012
 103.6840012  27.9334997  -2.5170012 102.8374166  28.1010640  -2.6299464
 107.3730012  33.5264997  -4.6160012 106.4720012  33.7094997  -4.8840012
 107.4070012  33.7854997  -3.6950012 107.2543041  33.5865512  -4.5281803
 113.1040012  25.7714997 -16.2490012 112.5500012  25.3754997 -16.9210012
 113.2040012  26.6814997 -16.5270012 113.0417059  25.8403586 -16.3785599
 113.0670012  31.5714997  -3.4120012 112.2160012  31.8094997  -3.7790012
 113.6580012  31.5544997  -4.1650012 113.0302487  31.6018258  -3.5641107
 111.3990012  34.5574997 -15.7840012 111.0260012  33.7314997 -15.4750012
 111.6770012  34.3744997 -16.6810012 111.3855630  34.4197303 -15.8630374
 108.5600012  29.3654997  -8.7630012 107.6310012  29.1334997  -8.7900012
 109.0110012  28.5884997  -9.0930012 108.4939216  29.2287238  -8.8113083
 101.1030012  33.6934997 -12.6300012 101.6300012  34.4664997 -12.8300012
 100.2230012  33.9184997 -12.9310012 101.0561773  33.8298005 -12.6980990
  96.8580012  28.5554997 -18.0430012  97.4740012  29.1824997 -17.6630012
  95.9960012  28.8714997 -17.7710012  96.8257698  28.6839430 -17.9542817
 102.5300012  31.3564997 -13.0530012 102.2890012  32.2814997 -13.0120012
 101.7890012  30.8974997 -12.6570012 102.3968409  31.4211421 -12.9938623
 103.0450012  35.5054997  -6.7380012 103.4070012  36.3604997  -6.9720012
 103.5760012  35.2134997  -5.9980012 103.1664473  35.5831060  -6.6699145
 101.2130012  36.3784997 -13.5080012 100.2630012  36.4834997 -13.4570012
 101.5650012  37.1984997 -13.1630012 101.1304203  36.5038314 -13.4543350
 106.5890012  31.6044997  -7.0380012 106.1630012  31.3774997  -6.2110012
 107.1690012  30.8664997  -7.2200012 106.6091868  31.4735299  -6.9494170
 108.7920012  32.5334997 -17.9640012 109.1450012  32.1534997 -17.1590012
 107.8430012  32.4404997 -17.8770012 108.7120441  32.4689596 -17.8421441
 109.2470012  36.1564997  -4.5680012 108.6460012  35.6014997  -5.0640012
 109.5290012  36.8234997  -5.1940012 109.2028519  36.1706841  -4.7205048
 113.2950012  37.0134997 -17.7630012 114.0390012  37.5994997 -17.9030012
 112.6010012  37.5814997 -17.4290012 113.3030292  37.1705582 -17.7370039
  97.3700012  23.3894997  -5.1610012  96.4770012  23.7284997  -5.2290012
  97.2710012  22.5344997  -4.7430012  97.2344164  23.3202588  -5.1137765
 109.6580012  31.2064997 -15.7370012 109.3800012  30.4784997 -15.1810012
 110.5850012  31.3254997 -15.5320012 109.7453124  31.1228802 -15.6331155
  97.0210012  35.1944997  -6.7260012  97.2380012  34.2624997  -6.7570012
  97.2670012  35.4684997  -5.8430012  97.0839549  35.1040636  -6.6108237
 102.8830012  33.6454997 -19.5170012 103.1220012  32.8974997 -20.0640012
 102.6140012  33.2574997 -18.6840012 102.8793675  33.4906638 -19.4793135
 101.8200012  33.2154997 -17.0600012 101.9660012  32.6954997 -16.2700012
 101.8170012  34.1224997 -16.7540012 101.8395989  33.2668853 -16.9103912
  98.2730012  30.4684997 -16.5500012  97.5870012  30.8204997 -15.9830012
  98.7950012  31.2314997 -16.7970012  98.2496852  30.6198578 -16.5057882
 106.1040012  23.1304997  -6.2710012 106.8030012  23.2044997  -5.6210012
 105.7230012  22.2664997  -6.1170012 106.1481767  23.0237624  -6.1611678
 106.8890012  22.7824997 -15.1740012 107.1090012  23.2544997 -15.9770012
 107.4470012  23.1774997 -14.5040012 106.9944968  22.9004285 -15.1932669
 104.5570012  34.9134997 -16.3110012 103.7410012  35.4104997 -16.2590012
 105.0870012  35.3884997 -16.9510012 104.5169161  35.0457722 -16.3904044
 104.0890012  24.5104997 -14.3390012 104.9010012  25.0154997 -14.2930012
 103.8440012  24.3654997 -13.4250012 104.1670520  24.5600375 -14.2091483
 104.6240012  25.4964997  -5.1540012 104.7430012  26.0704997  -4.3970012
 105.2800012  24.8084997  -5.0400012 104.7289757  25.4821079  -5.0349175
 104.9720012  21.5914997 -13.4010012 104.6260012  22.2094997 -12.7560012
 105.6310012  22.0924997 -13.8820012 105.0137826  21.7435802 -13.3779029
 101.8960012  35.9574997 -16.3290012 102.0560012  36.7564997 -16.8300012
 101.6980012  36.2634997 -15.4440012 101.8911649  36.1084469 -16.2780185
 100.6300012  22.6544997 -16.7140012 100.5470012  23.5434997 -16.3670012
 101.5200012  22.3894997 -16.4820012 100.7389469  22.7401430 -16.6352374
 110.8290012  23.4034997  -4.3190012 109.9120012  23.6664997  -4.4070012
 111.1640012  23.4004997  -5.2160012 110.7489900  23.4390224  -4.4522081
 109.4310012  27.1544997 -10.2240012 108.6330012  26.7394997 -10.5520012
 109.8760012  26.4634997  -9.7330012 109.3819885  27.0043543 -10.2025111
  98.8890012  33.0824997 -17.6530012  99.4810012  33.7814997 -17.3770012
  99.3480012  32.6494997 -18.3730012  99.0321142  33.1197049 -17.7125170
  97.2050012  25.7464997 -18.5370012  97.1600012  26.6854997 -18.3590012
  96.3170012  25.5104997 -18.8070012  97.0788574  25.8431892 -18.5491088
 110.5170012  36.4104997  -8.6010012 110.3620012  37.0884997  -9.2580012
 111.4500012  36.4824997  -8.3980012 110.6218500  36.5130170  -8.6634881
  98.0130012  20.5284997  -9.8640012  97.7840012  20.5874997 -10.7920012
  97.5700012  19.7364997  -9.5580012  97.9218530  20.4295753  -9.9495214
  96.9430012  34.4684997 -13.7040012  96.1110012  34.9414997 -13.6760012
  97.4890012  34.9784997 -14.3020012  96.9029739  34.6021871 -13.7810284
  96.2310012  37.0814997  -2.3740012  96.7720012  36.8644997  -1.6140012
  95.7500012  36.2754997  -2.5630012  96.2399345  36.9429514  -2.2956924
 100.8290012  36.0004997  -0.7530012 101.5960012  35.5414997  -0.4120012
 100.8070012  35.7744997  -1.6830012 100.9311434  35.9070409  -0.8319957
 104.9210012  35.5084997 -19.3780012 104.2770012  34.8774997 -19.0570012
 105.6830012  34.9774997 -19.6100012 104.9358077  35.3502920 -19.3653989
 107.4060012  34.3804997  -2.0240012 107.0550012  33.5244997  -1.7810012
 108.1320012  34.5234997  -1.4170012 107.4560769  34.2825636  -1.9086381
 109.5250012  35.3254997 -19.1440012 109.8080012  34.5314997 -18.6920012
 110.2650012  35.5584997 -19.7050012 109.6637486  35.2482803 -19.1579302
  96.1380012  30.8914997  -1.4190012  96.2820012  29.9894997  -1.7060012
  95.3660012  31.1774997  -1.9070012  96.0533322  30.8068261  -1.5242119
 100.4800012  31.2354997 -19.2870012 100.5440012  30.4414997 -18.7560012
 101.1330012  31.1164997 -19.9770012 100.5770241  31.1107148 -19.3075683
 102.7940012  30.8614997  -1.9870012 102.4650012  31.1324997  -2.8440012
 102.9460012  29.9204997  -2.0740012 102.7694809  30.7713862  -2.1161756
 108.5280012  30.7774997  -4.6030012 109.2740012  31.3654997  -4.7230012
 107.7710012  31.3594997  -4.5400012 108.5277554  30.9367011  -4.6109093
  96.9710012  28.0914997  -1.9990012  97.3790012  27.2344997  -2.1200012
  96.7110012  28.1064997  -1.0780012  96.9917568  27.9760807  -1.8910412
 101.6290012  29.2074997 -16.9810012 101.1690012  28.7234997 -16.2950012
 101.8840012  28.5394997 -17.6170012 101.6004902  29.0508731 -16.9730666
 100.9180012  27.1004997  -4.6250012 100.3000012  27.7754997  -4.3450012
 101.2620012  27.4214997  -5.4580012 100.8799615  27.2362721  -4.6993419
 102.7000012  27.4504997 -18.7190012 102.5200012  27.2964997 -19.6460012
 103.6500012  27.5584997 -18.6740012 102.8037776  27.4440175 -18.8398157
 105.9380012  29.5724997  -1.3480012 106.8910012  29.6554997  -1.3750012
 105.7770012  28.8604997  -0.7280012 106.0466426  29.4876746  -1.2679421
 112.0900012  29.8054997 -19.2730012 111.8160012  29.3804997 -20.0860012
 112.1290012  30.7364997 -19.4900012 112.0577699  29.8732484 -19.4136390
 101.2570012  24.4554997  -3.5430012 101.4070012  23.7264997  -4.1450012
 101.2600012  25.2324997  -4.1020012 101.2779302  24.4607851  -3.7009308
 101.6700012  22.8254997  -6.0500012 102.2060012  23.2764997  -6.7020012
 100.8180012  22.7174997  -6.4730012 101.6282178  22.8726390  -6.1964244
 103.2520012  28.2644997  -5.8110012 104.0020012  28.1084997  -6.3840012
 102.9130012  29.1164997  -6.0860012 103.3088921  28.3582968  -5.9266439
 107.6670012  26.0794997  -0.7820012 107.8600012  25.1484997  -0.8940012
 108.5250012  26.5044997  -0.7920012 107.8093020  26.0096389  -0.7986639
 108.9840012  28.8684997  -2.7050012 108.7030012  29.5774997  -3.2820012
 109.9270012  28.7954997  -2.8560012 109.0729027  28.9557646  -2.8044449
  99.7360012  25.6534997  -1.6310012  98.9690012  25.1214997  -1.8410012
 100.4150012  25.3434997  -2.2310012  99.7227022  25.5387506  -1.7408352
 102.4760012  20.2814997  -5.6190012 102.3770012  21.2284997  -5.7240012
 101.7330012  19.9094997  -6.0940012 102.3620564  20.3605902  -5.6975440
 103.7400012  24.6034997  -2.0550012 103.5040012  24.3834997  -1.1530012
 102.9560012  24.3964997  -2.5650012 103.6018628  24.5454760  -2.0006068
 106.4550012  23.7304997  -2.9790012 105.5080012  23.7624997  -2.8470012
 106.7680012  23.1054997  -2.3260012 106.3675475  23.6503207  -2.8725545
 108.0890012  22.3644997  -0.9740012 107.9930012  21.4124997  -0.9800012
 107.7680012  22.6334997  -0.1140012 108.0324070  22.2704035  -0.8584559
  97.9160012  23.5744997  -1.9270012  98.1280012  22.8674997  -2.5370012
  97.8050012  23.1364997  -1.0830012  97.9299721  23.4187084  -1.8963157
 102.6970012  19.5754997  -2.9470012 103.4090012  18.9354997  -2.9610012
 102.5960012  19.8424997  -3.8610012 102.7807939  19.5239938  -3.0724350
 103.0510012  21.2584997  -0.8940012 102.9190012  20.7824997  -1.7140012
 102.4520012  22.0024997  -0.9490012 102.9519071  21.2939618  -1.0137114
 102.5970012  38.1414997 -17.7170012 103.5300012  38.2994997 -17.5740012
 102.3330012  38.8164997 -18.3420012 102.6889510  38.2543611 -17.7819259
  96.1660012  32.7774997 -18.2350012  97.0800012  32.8564997 -17.9610012
  96.1730012  32.0904997 -18.9010012  96.2921131  32.6953961 -18.2875607
  94.8150012  38.1704997 -13.1570012  94.1680012  37.7084997 -13.6900012
  95.1690012  37.4984997 -12.5750012  94.7743849  38.0164723 -13.1512041
  95.6850012  36.2514997 -11.3530012  95.3500012  35.3714997 -11.1810012
  95.9070012  36.5964997 -10.4880012  95.6691783  36.1777500 -11.2125792
 113.2330012  37.0604997  -8.3720012 113.2120012  37.2454997  -7.4330012
 113.9240012  37.6294997  -8.7130012 113.3234618  37.1626606  -8.2896136
 112.7970012  36.6284997  -5.4500012 112.3090012  35.8924997  -5.8210012
 113.3460012  36.2344997  -4.7720012 112.8044872  36.4746249  -5.4090840
 111.2470012  32.4174997  -0.8120012 110.3810012  32.3124997  -0.4180012
 111.6240012  33.1764997  -0.3660012 111.1793308  32.5056900  -0.6977607
 112.5480012  30.6744997 -15.2980012 113.3980012  31.0954997 -15.1710012
 112.5540012  29.9344997 -14.6910012 112.6651372  30.6320803 -15.1985656
 112.9430012  28.7274997 -13.4740012 112.2160012  28.2484997 -13.0770012
 113.5240012  28.9334997 -12.7420012 112.9219375  28.6897090 -13.3205871
 112.7020012  31.5124997  -8.5270012 113.5350012  31.1344997  -8.8070012
 112.8140012  32.4554997  -8.6460012 112.8312647  31.5882218  -8.5814513
 111.1880012  34.3904997  -6.2200012 110.5410012  34.7154997  -5.5940012
 110.6710012  33.9504997  -6.8940012 111.0294029  34.3755004  -6.2254173
 113.2110012  28.6284997 -17.0830012 112.6890012  28.9854997 -17.8020012
 113.1780012  29.3034997 -16.4050012 113.1351634  28.7685413 -17.0896855
 111.5600012  25.8684997 -18.5320012 111.6560012  26.5354997 -19.2130012
 111.4200012  25.0524997 -19.0140012 111.5542135  25.8494500 -18.6901509
 110.7290012  27.2484997 -12.9110012 110.5790012  26.3034997 -12.9320012
 110.3760012  27.5294997 -12.0680012 110.6606625  27.1570441 -12.7997654
  95.7650012  29.3264997  -8.9010012  95.9490012  29.2444997  -9.8370012
  96.6140012  29.2024997  -8.4770012  95.9050139  29.2985003  -8.9718545
 111.5860012  29.2184997  -3.2730012 112.1690012  28.4844997  -3.0810012
 112.1500012  29.9904997  -3.2260012 111.7419769  29.2224227  -3.2403841
 113.0820012  27.1214997  -2.5880012 112.2190012  26.7424997  -2.7540012
 113.6870012  26.3824997  -2.6620012 113.0455979  26.9698023  -2.6207183
 110.8070012  23.2764997 -19.4150012 111.4180012  22.9054997 -18.7780012
 109.9710012  22.8554997 -19.2190012 110.7775032  23.1687554 -19.3012965
 110.4400012  24.8314997 -14.4490012 110.7200012  23.9244997 -14.3250012
 111.1990012  25.2654997 -14.8380012 110.5809277  24.7660942 -14.4846318
 111.0520012  25.4124997  -9.0130012 111.9850012  25.6244997  -9.0470012
 110.8170012  25.5144997  -8.0910012 111.1478036  25.4552769  -8.8930024
 111.0810012  26.1494997  -6.2370012 110.2380012  26.4174997  -5.8710012
 111.5230012  26.9714997  -6.4480012 111.0254158  26.2973291  -6.2154509
  95.3620012  24.5974997  -2.7600012  96.2820012  24.4754997  -2.5240012
  94.9130012  23.8474997  -2.3710012  95.4271580  24.4793727  -2.6750994
 113.3640012  20.1294997  -0.8840012 113.7140012  19.4754997  -1.4890012
 113.5110012  20.9664997  -1.3230012 113.4318419  20.1531591  -1.0262882
 111.0530012  22.0944997 -14.4010012 111.2360012  21.6454997 -13.5750012
 110.4540012  21.5094997 -14.8640012 110.9970202  21.9539975 -14.3506725
  96.5830012  22.9094997  -9.8690012  97.0290012  22.1174997  -9.5670012
  97.0500012  23.6254997  -9.4380012  96.7070172  22.8980624  -9.7695180
  94.8870012  25.9084997  -8.8000012  95.3790012  25.6874997  -9.5910012
  95.2500012  26.7494997  -8.5190012  95.0033126  25.9918357  -8.8702469
 112.8840012  22.2384997  -2.5340012 111.9660012  22.5094997  -2.5700012
 113.0070012  21.7034997  -3.3190012 112.7751066  22.2032892  -2.6449513
 112.9200012  22.1614997 -17.8730012 113.3320012  21.4404997 -18.3480012
 113.6020012  22.8314997 -17.8140012 113.0685885  22.1532368 -17.9301085
  95.2010012  22.1664997 -14.7460012  94.2760012  22.3754997 -14.8750012
  95.6550012  22.6504997 -15.4350012  95.1357368  22.2605993 -14.8568774
 109.9720012  37.1504997 -12.8000012 110.6240012  36.8034997 -13.4080012
 110.4820012  37.6394997 -12.1540012 110.1302637  37.1690597 -12.7959764
  95.1650012  20.9044997  -6.4010012  94.5000012  20.6584997  -5.7580012
  94.7220012  21.5264997  -6.9790012  95.0140956  20.9548632  -6.3910648
  97.3570012  34.0794997  -2.2570012  96.5360012  34.2544997  -2.7170012
  97.1040012  34.0064997  -1.3360012  97.2106164  34.0935622  -2.1955077
 100.3110012  35.0544997  -5.9980012  99.8860012  35.8634997  -6.2810012
 101.2150012  35.1394997  -6.3000012 100.3750271  35.1768469  -6.0776224
 104.6220012  36.4534997  -3.0390012 104.8070012  36.1194997  -2.1610012
 105.4680012  36.7624997  -3.3610012 104.7617539  36.4496047  -2.9624395
 106.9670012  37.7394997  -3.7950012 107.6440012  37.1064997  -4.0350012
 107.2890012  38.1404997  -2.9880012 107.1031637  37.7071154  -3.7187207
 111.8840012  20.3284997  -4.7150012 111.0720012  20.6534997  -5.1030012
 112.1170012  19.5684997  -5.2480012 111.8043423  20.2702436  -4.8401747
  97.7130012  38.3104997  -5.9510012  96.9920012  38.7504997  -6.4020012
  97.3470012  38.0594997  -5.1020012  97.5649804  38.3367698  -5.8980160
 100.1800012  37.9104997  -6.9210012  99.3150012  37.9824997  -6.5170012
 100.1250012  38.4574997  -7.7050012 100.0542085  37.9942685  -6.9716638
 104.8900012  37.7984997  -7.7460012 104.4340012  38.3274997  -8.4000012
 105.0530012  38.4014997  -7.0200012 104.8495585  37.9524468  -7.7374938
 107.2180012  36.6764997  -6.8010012 106.3130012  36.8414997  -7.0660012
 107.6470012  37.5294997  -6.8660012 107.1520799  36.8144483  -6.8460818
 109.8220012  38.2464997  -6.5060012 109.6400012  39.1624997  -6.7160012
 109.9990012  37.8364997  -7.3520012 109.8210210  38.3164822  -6.6492115
  97.1270012  36.9334997  -9.0410012  97.1090012  36.5084997  -8.1830012
  97.9320012  36.6154997  -9.4490012  97.2333875  36.8323812  -8.9788345
  99.2690012  35.6434997 -10.3860012  99.0500012  34.7274997 -10.2160012
 100.0930012  35.7834997  -9.9200012  99.3504420  35.5370520 -10.2997226
 101.8060012  36.1134997  -9.5370012 102.0190012  35.2254997  -9.8240012
 101.8700012  36.0794997  -8.5830012 101.8438232  35.9873102  -9.4472603
 105.3140012  21.7774997 -10.3930012 104.6400012  21.1484997 -10.1370012
 105.8780012  21.2934997 -10.9960012 105.2979230  21.6258744 -10.4394660
 110.4570012  19.8854997 -10.2800012 111.0610012  20.4324997 -10.7820012
 109.5870012  20.2044997 -10.5200012 110.4221241  20.0035806 -10.3812346
 112.1840012  21.0234997 -11.9470012 112.7960012  20.5094997 -12.4730012
 112.5660012  21.9014997 -11.9230012 112.3194540  21.0717140 -12.0158170
  97.6410012  20.4114997 -12.5710012  96.8640012  20.1774997 -13.0780012
  98.1710012  19.6144997 -12.5620012  97.6062330  20.2716988 -12.6392258
  96.4770012  20.2094997 -16.7670012  96.9160012  20.8204997 -17.3590012
  95.8440012  20.7474997 -16.2930012  96.4514514  20.3659257 -16.7839070
 102.2200012  20.3384997 -12.7570012 103.0950012  20.7264997 -12.7870012
 102.0840012  20.1234997 -11.8350012 102.3213695  20.3625184 -12.6363560
 107.7770012  20.3684997 -11.1080012 107.8530012  20.4634997 -12.0580012
 107.5020012  19.4604997 -10.9790012 107.7502321  20.2587867 -11.2204921
 109.1300012  20.3944997 -15.4160012 108.4280012  21.0094997 -15.6250012
 108.6860012  19.5564997 -15.2850012 108.9736330  20.3655783 -15.4269672
  96.3780012  36.1574997 -15.8690012  95.6930012  36.1194997 -16.5370012
  96.3820012  37.0704997 -15.5810012  96.2848193  36.2757016 -15.9214716
  98.3380012  22.1254997 -18.3250012  98.8300012  21.4954997 -18.8520012
  98.9620012  22.4214997 -17.6610012  98.4895446  22.0793199 -18.3074020
 103.3640012  22.4184997 -15.8680012 103.5420012  21.7724997 -15.1850012
 103.3110012  23.2524997 -15.4000012 103.3811829  22.4427985 -15.7114060
 105.2430012  37.3674997 -17.4720012 106.1090012  37.7334997 -17.6500012
 104.9960012  36.9274997 -18.2860012 105.3282392  37.3581756 -17.6063711
 111.9520012  36.9304997 -14.7930012 111.7570012  36.1824997 -15.3580012
 111.9130012  37.6884997 -15.3760012 111.9200380  36.9306099 -14.9491616
  97.5990012  20.9254997  -3.0530012  97.2330012  20.1604997  -2.6100012
  98.5120012  20.9544997  -2.7660012  97.6722790  20.8247224  -2.9535930
  99.5720012  20.2764997  -1.5170012 100.4700012  20.0024997  -1.7020012
  99.1850012  19.5334997  -1.0530012  99.6426612  20.1385914  -1.4796357
  98.1960012  37.0774997 -18.8440012  97.9290012  37.3644997 -17.9710012
  98.9680012  36.5314997 -18.6920012  98.2637488  37.0430294 -18.7038950
 107.9930012  19.6084997  -1.3350012 108.0700012  19.1824997  -0.4810012
 108.8870012  19.6224997  -1.6780012 108.1243428  19.5520879  -1.2644690
 111.1690012  35.6814997  -2.6430012 110.3870012  35.4954997  -3.1620012
 111.0970012  36.6104997  -2.4250012 111.0521777  35.7816492  -2.6845952
 125.5750012  29.5674997 -12.6120012 125.6640012  30.5114997 -12.7440012
 124.9370012  29.2924997 -13.2700012 125.5009081  29.6594830 -12.7190386
 124.5080012  28.8224997  -9.1930012 124.4700012  28.1764997  -8.4880012
 124.1860012  28.3564997  -9.9640012 124.4592333  28.6709408  -9.2007022
 116.8770012  28.4374997  -7.6000012 116.9180012  27.8114997  -6.8770012
 117.5800012  29.0614997  -7.4180012 116.9776363  28.4361196  -7.4763956
 128.2140012  31.7614997 -10.8920012 127.7740012  31.0414997 -10.4410012
 128.2010012  32.4824997 -10.2620012 128.1520226  31.7603731 -10.7451506
 117.8000012  32.8874997  -9.0650012 117.4310012  32.0854997  -9.4350012
 118.7410012  32.7184997  -9.0190012 117.8767289  32.7550153  -9.1093684
 114.4100012  26.5474997 -13.6720012 113.9630012  27.3934997 -13.6910012
 113.8490012  25.9674997 -14.1880012 114.2729900  26.5849916 -13.7443199
 115.1210012  28.7094997 -11.5460012 115.3340012  27.9394997 -11.0190012
 115.8590012  28.7984997 -12.1500012 115.2498496  28.6161394 -11.5554700
 125.3260012  36.8664997 -10.6790012 125.9460012  36.1894997 -10.9530012
 125.1180012  36.6484997  -9.7710012 125.3826904  36.7443870 -10.5936635
 122.8980012  31.2554997  -8.7870012 123.2020012  30.5694997  -9.3820012
 123.6190012  31.3734997  -8.1690012 123.0370671  31.1776305  -8.7848184
 131.5610012  22.8564997  -7.9260012 131.6100012  23.4664997  -7.1900012
 131.9860012  23.3174997  -8.6490012 131.6251824  23.0023741  -7.9229795
 126.0390012  25.6494997  -8.4590012 126.1810012  24.7034997  -8.4390012
 125.9320012  25.8564997  -9.3880012 126.0439864  25.5479534  -8.5817661
 119.1930012  23.7504997 -11.1870012 119.2370012  24.6104997 -11.6050012
 118.7360012  23.1984997 -11.8210012 119.1372185  23.7935799 -11.3299701
 126.9160012  23.8814997 -12.7860012 127.5620012  23.5524997 -12.1610012
 127.4260012  24.3994997 -13.4090012 127.0734264  23.9064611 -12.7846138
 115.8140012  26.1474997 -10.4250012 116.4670012  25.5974997  -9.9930012
 115.8380012  25.8734997 -11.3420012 115.9066683  26.0351466 -10.4897877
 120.9700012  27.6974997 -11.2100012 121.5860012  27.1714997 -10.7000012
 120.3840012  27.0574997 -11.6130012 120.9750810  27.5389208 -11.1946827
 131.9520012  24.3344997  -5.6900012 131.2640012  24.9924997  -5.7860012
 131.9680012  24.1374997  -4.7540012 131.8598525  24.3980462  -5.5765192
 118.0040012  22.6684997  -7.1130012 117.7850012  23.1984997  -7.8790012
 117.3360012  22.8954997  -6.4660012 117.8837600  22.7716906  -7.1303621
 125.3730012  32.1684997 -13.5690012 125.0770012  31.8464997 -14.4200012
 125.0480012  33.0684997 -13.5280012 125.2886371  32.2460215 -13.6798199
 120.5730012  30.3444997  -6.8260012 119.8330012  30.9424997  -6.7220012
 121.2870012  30.8984997  -7.1410012 120.5682237  30.5012831  -6.8543535
 128.6800012  23.1724997 -10.8060012 128.4640012  22.4064997 -10.2730012
 129.3350012  23.6444997 -10.2930012 128.7390632  23.1315889 -10.6637139
 117.5970012  24.5604997  -9.1610012 118.2110012  25.1934997  -8.7870012
 118.1090012  24.0884997  -9.8170012 117.7502296  24.5832370  -9.1985748
 118.9800012  32.3084997  -6.0380012 118.9750012  33.1884997  -6.4160012
 118.1270012  32.2254997  -5.6130012 118.8639464  32.4176117  -6.0322093
 115.1010012  31.9794997 -15.2560012 114.8290012  32.2084997 -16.1450012
 115.1470012  32.8174997 -14.7960012 115.0700094  32.1241213 -15.3154303
 128.7260012  33.6014997  -8.5440012 127.7850012  33.6594997  -8.3820012
 129.0030012  34.5074997  -8.6810012 128.6344679  33.7319443  -8.5403185
 129.0270012  21.8874997  -7.1260012 128.2910012  22.4984997  -7.1640012
 129.7100012  22.3024997  -7.6530012 129.0186541  22.0271374  -7.2024168
 122.0300012  19.9744997  -9.6600012 121.9130012  19.0254997  -9.7150012
 121.1750012  20.3064997  -9.3870012 121.8983733  19.8895409  -9.6306103
 126.9780012  35.3824997 -11.9180012 127.4040012  34.6754997 -12.4030012
 127.2950012  36.1834997 -12.3350012 127.0791019  35.3940994 -12.0406870
 128.1380012  33.2834997 -13.4100012 127.8800012  32.5934997 -14.0210012
 128.2090012  32.8404997 -12.5640012 128.1122856  33.1292124 -13.3793115
 129.8240012  31.8494997  -4.9320012 129.9640012  31.2584997  -5.6720012
 129.9910012  32.7224997  -5.2890012 129.8656778  31.8866426  -5.0813035
 124.2970012  28.8114997 -15.1600012 123.5850012  29.3464997 -15.5120012
 124.9880012  28.8674997 -15.8200012 124.2930132  28.8922543 -15.2973711
 124.3500012  27.2694997 -18.1210012 125.0510012  27.2914997 -17.4700012
 124.6530012  26.6414997 -18.7770012 124.4867830  27.1876566 -18.1206289
 131.6660012  28.1894997  -6.8660012 131.0130012  28.8844997  -6.7770012
 132.1310012  28.3994997  -7.6760012 131.6395390  28.3129425  -6.9633117
 127.7020012  29.0214997 -14.2080012 126.9700012  29.2494997 -13.6350012
 128.1500012  28.3074997 -13.7530012 127.6623095  28.9562571 -14.0680881
 127.6000012  27.1954997  -5.1410012 127.6800012  27.9584997  -4.5690012
 126.9980012  27.4744997  -5.8310012 127.5295756  27.3377134  -5.1559411
 119.3480012  29.6514997 -12.3260012 119.0170012  29.2814997 -13.1440012
 119.9360012  28.9814997 -11.9790012 119.3821873  29.5101156 -12.3911898
 120.7140012  33.0794997  -9.6440012 120.6200012  32.5014997 -10.4010012
 121.4440012  32.7084997  -9.1480012 120.7997981  32.9502390  -9.6805835
 119.7140012  28.4204997  -8.6920012 120.2800012  28.5414997  -9.4550012
 120.0330012  29.0574997  -8.0530012 119.8345786  28.5231884  -8.7099960
 126.0230012  33.9234997  -7.9580012 125.7830012  34.5854997  -7.3100012
 125.8250012  33.0894997  -7.5330012 125.9633808  33.9013134  -7.8118476
 120.5940012  32.8194997  -3.9750012 120.2830012  33.6014997  -3.5200012
 119.9440012  32.6664997  -4.6610012 120.4635558  32.9059105  -4.0054129
 126.5730012  28.1834997 -16.5230012 127.1530012  28.3334997 -15.7760012
 126.9870012  28.6544997 -17.2460012 126.7082830  28.2676841 -16.5185866
 117.5140012  29.0174997  -4.7460012 117.5850012  29.6684997  -4.0480012
 116.6240012  29.1204997  -5.0810012 117.4033117  29.1205936  -4.6957300
 124.3000012  34.9204997 -13.0880012 124.7740012  35.2154997 -12.3100012
 123.7370012  35.6584997 -13.3210012 124.2887653  35.0606932 -13.0129864
 118.8340012  34.8914997  -3.2120012 118.8410012  34.7554997  -4.1590012
 117.9180012  34.7734997  -2.9600012 118.7111714  34.8569430  -3.3075334
 130.2720012  19.9334997 -16.7100012 129.3720012  20.0724997 -16.4150012
 130.5240012  20.7644997 -17.1120012 130.1828702  20.0649074 -16.7239795
 118.3380012  28.7214997 -14.7360012 118.0460012  29.4894997 -15.2270012
 117.6640012  28.0614997 -14.8990012 118.2069081  28.7374406 -14.8252660
 131.4610012  34.2994997 -18.3340012 131.5350012  35.2384997 -18.1630012
 132.3670012  33.9944997 -18.3900012 131.5935100  34.3866722 -18.3181881
 114.4310012  31.0844997  -5.9210012 113.9300012  31.0564997  -6.7360012
 114.4360012  30.1784997  -5.6120012 114.3631526  30.9582278  -5.9907128
 114.1810012  33.8644997  -9.0370012 115.1270012  33.7204997  -9.0560012
 114.0690012  34.6484997  -8.5000012 114.2952727  33.9508046  -8.9669928
 132.3790012  34.5304997  -3.3550012 132.3300012  33.5754997  -3.3920012
 131.5520012  34.7984997  -2.9540012 132.2604940  34.4358998  -3.3058625
 123.3580012  34.1044997  -4.4790012 123.4450012  34.9304997  -4.0040012
 122.4940012  33.7744997  -4.2300012 123.2531964  34.1729878  -4.3803451
 123.7720012  37.8764997 -14.6730012 123.6970012  37.7554997 -15.6190012
 123.8050012  38.8264997 -14.5540012 123.7661848  37.9882500 -14.7865166
 117.4250012  36.6654997 -12.8920012 117.5780012  36.3174997 -12.0130012
 116.5750012  36.3094997 -13.1470012 117.3308962  36.5696650 -12.8061660
 126.8740012  37.0304997 -17.6710012 127.2490012  36.2864997 -18.1410012
 126.8780012  36.7604997 -16.7520012 126.9258915  36.8921486 -17.6112176
 126.5430012  36.9564997 -14.9210012 125.6070012  37.0564997 -14.7430012
 126.8230012  36.2474997 -14.3430012 126.4528255  36.8742711 -14.8184609
 129.5310012  26.0234997  -2.8750012 129.1240012  26.5044997  -3.5960012
 129.5720012  25.1184997  -3.1830012 129.4808437  25.9669374  -3.0153317
 116.6800012  32.4074997  -4.8780012 116.8960012  32.0464997  -4.0190012
 115.8250012  32.0334997  -5.0880012 116.5939292  32.3074111  -4.7886614
 119.2990012  20.8774997  -8.8830012 118.4370012  20.7904997  -9.2900012
 119.2760012  21.7334997  -8.4550012 119.1780330  20.9812765  -8.8808137
 123.9620012  20.5994997  -5.5080012 124.3820012  20.1844997  -4.7550012
 123.0290012  20.4214997  -5.3910012 123.8933644  20.5185900  -5.3890461
 127.2880012  24.3554997  -4.6550012 126.7740012  24.2294997  -3.8570012
 127.1330012  25.2674997  -4.8990012 127.1966852  24.4616132  -4.5787842
 128.0510012  29.2164997 -18.8930012 128.0930012  28.9934997 -19.8230012
 128.9000012  29.6154997 -18.7030012 128.1715396  29.2399155 -18.9946373
 123.6230012  23.0924997 -18.2230012 123.3700012  23.1114997 -17.3000012
 123.3670012  22.2204997 -18.5240012 123.5537790  22.9772437 -18.1373737
 119.3900012  25.8434997  -7.7880012 118.7480012  25.8024997  -7.0790012
 119.4270012  26.7694997  -8.0250012 119.3071324  25.9631559  -7.7230176
 119.3870012  26.0644997 -12.8760012 118.4940012  25.7234997 -12.9340012
 119.8370012  25.6874997 -13.6310012 119.3257305  25.9668484 -12.9860823
 124.9220012  26.4804997 -14.0590012 124.5130012  27.2954997 -14.3500012
 125.6430012  26.3404997 -14.6730012 124.9634537  26.5732018 -14.1818658
 124.0240012  26.6554997  -2.5710012 123.4620012  25.9514997  -2.2500012
 124.8510012  26.5354997  -2.1030012 124.0587095  26.5427883  -2.4637670
 125.9270012  25.9264997 -11.2450012 125.7320012  26.5314997 -11.9600012
 126.1080012  25.0924997 -11.6790012 125.9247614  25.8966300 -11.4015595
 117.1400012  26.1634997  -5.9210012 117.1020012  26.5634997  -5.0520012
 116.6490012  25.3464997  -5.8300012 117.0684684  26.1078069  -5.7898941
 120.5060012  23.5374997 -19.1220012 120.0750012  23.0924997 -18.3920012
 119.7880012  23.9094997 -19.6340012 120.3499438  23.5268940 -19.0913201
 113.7480012  23.2794997 -12.0700012 114.3790012  23.2504997 -11.3510012
 114.1970012  22.8544997 -12.8000012 113.8950774  23.2180492 -12.0703447
 115.0220012  24.0254997 -16.6460012 115.4960012  24.6164997 -17.2310012
 114.3050012  24.5564997 -16.2990012 114.9899341  24.1780867 -16.6791164
 125.1910012  27.5644997  -6.5730012 125.5140012  26.9334997  -7.2160012
 124.7510012  27.0294997  -5.9130012 125.1756895  27.4058441  -6.5717150
 121.9680012  23.4914997 -11.7890012 121.0570012  23.5484997 -11.5010012
 122.4740012  23.4314997 -10.9790012 121.9115413  23.4911985 -11.6399378
 116.7970012  25.1204997 -12.9630012 115.9070012  25.2204997 -13.3030012
 117.0930012  24.2784997 -13.3090012 116.7152823  25.0203545 -13.0562787
 120.4500012  25.1204997 -15.3060012 121.3810012  25.2494997 -15.1280012
 120.2350012  25.7904997 -15.9560012 120.5484247  25.2286565 -15.3694253
 126.3730012  22.7264997  -8.5250012 125.6970012  22.8574997  -7.8610012
 125.8880012  22.5714997  -9.3350012 126.2147145  22.7234905  -8.5435483
 119.1240012  26.3154997 -17.7390012 118.5810012  25.9354997 -18.4310012
 119.9570012  26.5094997 -18.1680012 119.1624399  26.2898124 -17.8915474
 129.6610012  38.3984997  -2.2480012 129.8610012  38.8224997  -3.0830012
 130.3160012  38.7414997  -1.6410012 129.7770051  38.5029648  -2.2802164
 117.2590012  30.8724997  -2.6400012 117.9910012  31.1264997  -2.0790012
 116.4790012  31.0764997  -2.1250012 117.2538232  30.9349177  -2.4934240
 123.2880012  26.2794997  -9.9020012 123.8530012  25.7324997 -10.4490012
 123.1410012  25.7574997  -9.1140012 123.3452918  26.1342024  -9.8701546
 118.2900012  22.4154997 -13.4840012 117.9730012  21.5134997 -13.5190012
 119.0720012  22.4174997 -14.0370012 118.3522284  22.2921628 -13.5635217
 121.9150012  24.6674997  -7.4880012 121.0790012  25.1214997  -7.3780012
 122.4390012  24.9434997  -6.7360012 121.8714414  24.7669376  -7.3712864
 122.4590012  30.8804997 -15.8040012 121.7140012  30.3734997 -16.1260012
 122.3250012  30.9294997 -14.8570012 122.3388776  30.8176940 -15.7201353
 129.6090012  30.0134997  -7.0170012 130.2510012  30.4704997  -7.5610012
 128.7790012  30.1264997  -7.4800012 129.5845963  30.0912704  -7.1539823
 126.3570012  23.6944997 -17.6040012 125.4180012  23.8064997 -17.7560012
 126.6540012  24.5514997 -17.2980012 126.2687666  23.8256443 -17.5834232
 123.9780012  31.0644997  -4.5670012 123.6330012  30.6834997  -3.7600012
 123.7780012  31.9984997  -4.4950012 123.9038061  31.1385228  -4.4469039
 127.0750012  25.5614997 -15.9440012 127.9670012  25.4244997 -15.6250012
 127.1320012  26.3524997 -16.4800012 127.2046285  25.6496660 -15.9728309
 117.5840012  30.1754997 -10.0340012 118.3290012  30.1734997 -10.6350012
 117.6620012  29.3524997  -9.5520012 117.6965518  30.0639315 -10.0511071
 124.5850012  32.3394997 -16.7780012 124.2890012  33.1654997 -16.3970012
 123.8820012  31.7194997 -16.5820012 124.4494914  32.3688199 -16.6993557
 114.5920012  28.6364997  -4.7190012 114.8150012  28.2184997  -3.8870012
 113.9900012  28.0234997  -5.1420012 114.5411759  28.4964668  -4.6622978
 121.6080012  28.1534997  -2.5060012 121.3120012  27.9874997  -3.4010012
 122.5400012  27.9334997  -2.5170012 121.6934166  28.1010640  -2.6299464
 126.2290012  33.5264997  -4.6160012 125.3280012  33.7094997  -4.8840012
 126.2630012  33.7854997  -3.6950012 126.1103041  33.5865512  -4.5281803
 131.9600012  25.7714997 -16.2490012 131.4060012  25.3754997 -16.9210012
 132.0600012  26.6814997 -16.5270012 131.8977059  25.8403586 -16.3785599
 131.9230012  31.5714997  -3.4120012 131.0720012  31.8094997  -3.7790012
 132.5140012  31.5544997  -4.1650012 131.8862487  31.6018258  -3.5641107
 130.2550012  34.5574997 -15.7840012 129.8820012  33.7314997 -15.4750012
 130.5330012  34.3744997 -16.6810012 130.2415630  34.4197303 -15.8630374
 127.4160012  29.3654997  -8.7630012 126.4870012  29.1334997  -8.7900012
 127.8670012  28.5884997  -9.0930012 127.3499216  29.2287238  -8.8113083
 119.9590012  33.6934997 -12.6300012 120.4860012  34.4664997 -12.8300012
 119.0790012  33.9184997 -12.9310012 119.9121773  33.8298005 -12.6980990
 115.7140012  28.5554997 -18.0430012 116.3300012  29.1824997 -17.6630012
 114.8520012  28.8714997 -17.7710012 115.6817698  28.6839430 -17.9542817
 121.3860012  31.3564997 -13.0530012 121.1450012  32.2814997 -13.0120012
 120.6450012  30.8974997 -12.6570012 121.2528409  31.4211421 -12.9938623
 121.9010012  35.5054997  -6.7380012 122.2630012  36.3604997  -6.9720012
 122.4320012  35.2134997  -5.9980012 122.0224473  35.5831060  -6.6699145
 120.0690012  36.3784997 -13.5080012 119.1190012  36.4834997 -13.4570012
 120.4210012  37.1984997 -13.1630012 119.9864203  36.5038314 -13.4543350
 125.4450012  31.6044997  -7.0380012 125.0190012  31.3774997  -6.2110012
 126.0250012  30.8664997  -7.2200012 125.4651868  31.4735299  -6.9494170
 127.6480012  32.5334997 -17.9640012 128.0010012  32.1534997 -17.1590012
 126.6990012  32.4404997 -17.8770012 127.5680441  32.4689596 -17.8421441
 128.1030012  36.1564997  -4.5680012 127.5020012  35.6014997  -5.0640012
 128.3850012  36.8234997  -5.1940012 128.0588519  36.1706841  -4.7205048
 132.1510012  37.0134997 -17.7630012 132.8950012  37.5994997 -17.9030012
 131.4570012  37.5814997 -17.4290012 132.1590292  37.1705582 -17.7370039
 116.2260012  23.3894997  -5.1610012 115.3330012  23.7284997  -5.2290012
 116.1270012  22.5344997  -4.7430012 116.0904164  23.3202588  -5.1137765
 128.5140012  31.2064997 -15.7370012 128.2360012  30.4784997 -15.1810012
 129.4410012  31.3254997 -15.5320012 128.6013124  31.1228802 -15.6331155
 115.8770012  35.1944997  -6.7260012 116.0940012  34.2624997  -6.7570012
 116.1230012  35.4684997  -5.8430012 115.9399549  35.1040636  -6.6108237
 121.7390012  33.6454997 -19.5170012 121.9780012  32.8974997 -20.0640012
 121.4700012  33.2574997 -18.6840012 121.7353675  33.4906638 -19.4793135
 120.6760012  33.2154997 -17.0600012 120.8220012  32.6954997 -16.2700012
 120.6730012  34.1224997 -16.7540012 120.6955989  33.2668853 -16.9103912
 117.1290012  30.4684997 -16.5500012 116.4430012  30.8204997 -15.9830012
 117.6510012  31.2314997 -16.7970012 117.1056852  30.6198578 -16.5057882
 124.9600012  23.1304997  -6.2710012 125.6590012  23.2044997  -5.6210012
 124.5790012  22.2664997  -6.1170012 125.0041767  23.0237624  -6.1611678
 125.7450012  22.7824997 -15.1740012 125.9650012  23.2544997 -15.9770012
 126.3030012  23.1774997 -14.5040012 125.8504968  22.9004285 -15.1932669
 123.4130012  34.9134997 -16.3110012 122.5970012  35.4104997 -16.2590012
 123.9430012  35.3884997 -16.9510012 123.3729161  35.0457722 -16.3904044
 122.9450012  24.5104997 -14.3390012 123.7570012  25.0154997 -14.2930012
 122.7000012  24.3654997 -13.4250012 123.0230520  24.5600375 -14.2091483
 123.4800012  25.4964997  -5.1540012 123.5990012  26.0704997  -4.3970012
 124.1360012  24.8084997  -5.0400012 123.5849757  25.4821079  -5.0349175
 123.8280012  21.5914997 -13.4010012 123.4820012  22.2094997 -12.7560012
 124.4870012  22.0924997 -13.8820012 123.8697826  21.7435802 -13.3779029
 120.7520012  35.9574997 -16.3290012 120.9120012  36.7564997 -16.8300012
 120.5540012  36.2634997 -15.4440012 120.7471649  36.1084469 -16.2780185
 119.4860012  22.6544997 -16.7140012 119.4030012  23.5434997 -16.3670012
 120.3760012  22.3894997 -16.4820012 119.5949469  22.7401430 -16.6352374
 129.6850012  23.4034997  -4.3190012 128.7680012  23.6664997  -4.4070012
 130.0200012  23.4004997  -5.2160012 129.6049900  23.4390224  -4.4522081
 128.2870012  27.1544997 -10.2240012 127.4890012  26.7394997 -10.5520012
 128.7320012  26.4634997  -9.7330012 128.2379885  27.0043543 -10.2025111
 117.7450012  33.0824997 -17.6530012 118.3370012  33.7814997 -17.3770012
 118.2040012  32.6494997 -18.3730012 117.8881142  33.1197049 -17.7125170
 116.0610012  25.7464997 -18.5370012 116.0160012  26.6854997 -18.3590012
 115.1730012  25.5104997 -18.8070012 115.9348574  25.8431892 -18.5491088
 129.3730012  36.4104997  -8.6010012 129.2180012  37.0884997  -9.2580012
 130.3060012  36.4824997  -8.3980012 129.4778500  36.5130170  -8.6634881
 116.8690012  20.5284997  -9.8640012 116.6400012  20.5874997 -10.7920012
 116.4260012  19.7364997  -9.5580012 116.7778530  20.4295753  -9.9495214
 115.7990012  34.4684997 -13.7040012 114.9670012  34.9414997 -13.6760012
 116.3450012  34.9784997 -14.3020012 115.7589739  34.6021871 -13.7810284
 115.0870012  37.0814997  -2.3740012 115.6280012  36.8644997  -1.6140012
 114.6060012  36.2754997  -2.5630012 115.0959345  36.9429514  -2.2956924
 119.6850012  36.0004997  -0.7530012 120.4520012  35.5414997  -0.4120012
 119.6630012  35.7744997  -1.6830012 119.7871434  35.9070409  -0.8319957
 123.7770012  35.5084997 -19.3780012 123.1330012  34.8774997 -19.0570012
 124.5390012  34.9774997 -19.6100012 123.7918077  35.3502920 -19.3653989
 126.2620012  34.3804997  -2.0240012 125.9110012  33.5244997  -1.7810012
 126.9880012  34.5234997  -1.4170012 126.3120769  34.2825636  -1.9086381
 128.3810012  35.3254997 -19.1440012 128.6640012  34.5314997 -18.6920012
 129.1210012  35.5584997 -19.7050012 128.5197486  35.2482803 -19.1579302
 114.9940012  30.8914997  -1.4190012 115.1380012  29.9894997  -1.7060012
 114.2220012  31.1774997  -1.9070012 114.9093322  30.8068261  -1.5242119
 119.3360012  31.2354997 -19.2870012 119.4000012  30.4414997 -18.7560012
 119.9890012  31.1164997 -19.9770012 119.4330241  31.1107148 -19.3075683
 121.6500012  30.8614997  -1.9870012 121.3210012  31.1324997  -2.8440012
 121.8020012  29.9204997  -2.0740012 121.6254809  30.7713862  -2.1161756
 127.3840012  30.7774997  -4.6030012 128.1300012  31.3654997  -4.7230012
 126.6270012  31.3594997  -4.5400012 127.3837554  30.9367011  -4.6109093
 115.8270012  28.0914997  -1.9990012 116.2350012  27.2344997  -2.1200012
 115.5670012  28.1064997  -1.0780012 115.8477568  27.9760807  -1.8910412
 120.4850012  29.2074997 -16.9810012 120.0250012  28.7234997 -16.2950012
 120.7400012  28.5394997 -17.6170012 120.4564902  29.0508731 -16.9730666
 119.7740012  27.1004997  -4.6250012 119.1560012  27.7754997  -4.3450012
 120.1180012  27.4214997  -5.4580012 119.7359615  27.2362721  -4.6993419
 121.5560012  27.4504997 -18.7190012 121.3760012  27.2964997 -19.6460012
 122.5060012  27.5584997 -18.6740012 121.6597776  27.4440175 -18.8398157
 124.7940012  29.5724997  -1.3480012 125.7470012  29.6554997  -1.3750012
 124.6330012  28.8604997  -0.7280012 124.9026426  29.4876746  -1.2679421
 130.9460012  29.8054997 -19.2730012 130.6720012  29.3804997 -20.0860012
 130.9850012  30.7364997 -19.4900012 130.9137699  29.8732484 -19.4136390
 120.1130012  24.4554997  -3.5430012 120.2630012  23.7264997  -4.1450012
 120.1160012  25.2324997  -4.1020012 120.1339302  24.4607851  -3.7009308
 120.5260012  22.8254997  -6.0500012 121.0620012  23.2764997  -6.7020012
 119.6740012  22.7174997  -6.4730012 120.4842178  22.8726390  -6.1964244
 122.1080012  28.2644997  -5.8110012 122.8580012  28.1084997  -6.3840012
 121.7690012  29.1164997  -6.0860012 122.1648921  28.3582968  -5.9266439
 126.5230012  26.0794997  -0.7820012 126.7160012  25.1484997  -0.8940012
 127.3810012  26.5044997  -0.7920012 126.6653020  26.0096389  -0.7986639
 127.8400012  28.8684997  -2.7050012 127.5590012  29.5774997  -3.2820012
 128.7830012  28.7954997  -2.8560012 127.9289027  28.9557646  -2.8044449
 118.5920012  25.6534997  -1.6310012 117.8250012  25.1214997  -1.8410012
 119.2710012  25.3434997  -2.2310012 118.5787022  25.5387506  -1.7408352
 121.3320012  20.2814997  -5.6190012 121.2330012  21.2284997  -5.7240012
 120.5890012  19.9094997  -6.0940012 121.2180564  20.3605902  -5.6975440
 122.5960012  24.6034997  -2.0550012 122.3600012  24.3834997  -1.1530012
 121.8120012  24.3964997  -2.5650012 122.4578628  24.5454760  -2.0006068
 125.3110012  23.7304997  -2.9790012 124.3640012  23.7624997  -2.8470012
 125.6240012  23.1054997  -2.3260012 125.2235475  23.6503207  -2.8725545
 126.9450012  22.3644997  -0.9740012 126.8490012  21.4124997  -0.9800012
 126.6240012  22.6334997  -0.1140012 126.8884070  22.2704035  -0.8584559
 116.7720012  23.5744997  -1.9270012 116.9840012  22.8674997  -2.5370012
 116.6610012  23.1364997  -1.0830012 116.7859721  23.4187084  -1.8963157
 121.5530012  19.5754997  -2.9470012 122.2650012  18.9354997  -2.9610012
 121.4520012  19.8424997  -3.8610012 121.6367939  19.5239938  -3.0724350
 121.9070012  21.2584997  -0.8940012 121.7750012  20.7824997  -1.7140012
 121.3080012  22.0024997  -0.9490012 121.8079071  21.2939618  -1.0137114
 121.4530012  38.1414997 -17.7170012 122.3860012  38.2994997 -17.5740012
 121.1890012  38.8164997 -18.3420012 121.5449510  38.2543611 -17.7819259
 115.0220012  32.7774997 -18.2350012 115.9360012  32.8564997 -17.9610012
 115.0290012  32.0904997 -18.9010012 115.1481131  32.6953961 -18.2875607
 113.6710012  38.1704997 -13.1570012 113.0240012  37.7084997 -13.6900012
 114.0250012  37.4984997 -12.5750012 113.6303849  38.0164723 -13.1512041
 114.5410012  36.2514997 -11.3530012 114.2060012  35.3714997 -11.1810012
 114.7630012  36.5964997 -10.4880012 114.5251783  36.1777500 -11.2125792
 132.0890012  37.0604997  -8.3720012 132.0680012  37.2454997  -7.4330012
 132.7800012  37.6294997  -8.7130012 132.1794618  37.1626606  -8.2896136
 131.6530012  36.6284997  -5.4500012 131.1650012  35.8924997  -5.8210012
 132.2020012  36.2344997  -4.7720012 131.6604872  36.4746249  -5.4090840
 130.1030012  32.4174997  -0.8120012 129.2370012  32.3124997  -0.4180012
 130.4800012  33.1764997  -0.3660012 130.0353308  32.5056900  -0.6977607
 131.4040012  30.6744997 -15.2980012 132.2540012  31.0954997 -15.1710012
 131.4100012  29.9344997 -14.6910012 131.5211372  30.6320803 -15.1985656
 131.7990012  28.7274997 -13.4740012 131.0720012  28.2484997 -13.0770012
 132.3800012  28.9334997 -12.7420012 131.7779375  28.6897090 -13.3205871
 131.5580012  31.5124997  -8.5270012 132.3910012  31.1344997  -8.8070012
 131.6700012  32.4554997  -8.6460012 131.6872647  31.5882218  -8.5814513
 130.0440012  34.3904997  -6.2200012 129.3970012  34.7154997  -5.5940012
 129.5270012  33.9504997  -6.8940012 129.8854029  34.3755004  -6.2254173
 132.0670012  28.6284997 -17.0830012 131.5450012  28.9854997 -17.8020012
 132.0340012  29.3034997 -16.4050012 131.9911634  28.7685413 -17.0896855
 130.4160012  25.8684997 -18.5320012 130.5120012  26.5354997 -19.2130012
 130.2760012  25.0524997 -19.0140012 130.4102135  25.8494500 -18.6901509
 129.5850012  27.2484997 -12.9110012 129.4350012  26.3034997 -12.9320012
 129.2320012  27.5294997 -12.0680012 129.5166625  27.1570441 -12.7997654
 114.6210012  29.3264997  -8.9010012 114.8050012  29.2444997  -9.8370012
 115.4700012  29.2024997  -8.4770012 114.7610139  29.2985003  -8.9718545
 130.4420012  29.2184997  -3.2730012 131.0250012  28.4844997  -3.0810012
 131.0060012  29.9904997  -3.2260012 130.5979769  29.2224227  -3.2403841
 131.9380012  27.1214997  -2.5880012 131.0750012  26.7424997  -2.7540012
 132.5430012  26.3824997  -2.6620012 131.9015979  26.9698023  -2.6207183
 129.6630012  23.2764997 -19.4150012 130.2740012  22.9054997 -18.7780012
 128.8270012  22.8554997 -19.2190012 129.6335032  23.1687554 -19.3012965
 129.2960012  24.8314997 -14.4490012 129.5760012  23.9244997 -14.3250012
 130.0550012  25.2654997 -14.8380012 129.4369277  24.7660942 -14.4846318
 129.9080012  25.4124997  -9.0130012 130.8410012  25.6244997  -9.0470012
 129.6730012  25.5144997  -8.0910012 130.0038036  25.4552769  -8.8930024
 129.9370012  26.1494997  -6.2370012 129.0940012  26.4174997  -5.8710012
 130.3790012  26.9714997  -6.4480012 129.8814158  26.2973291  -6.2154509
 114.2180012  24.5974997  -2.7600012 115.1380012  24.4754997  -2.5240012
 113.7690012  23.8474997  -2.3710012 114.2831580  24.4793727  -2.6750994
 132.2200012  20.1294997  -0.8840012 132.5700012  19.4754997  -1.4890012
 132.3670012  20.9664997  -1.3230012 132.2878419  20.1531591  -1.0262882
 129.9090012  22.0944997 -14.4010012 130.0920012  21.6454997 -13.5750012
 129.3100012  21.5094997 -14.8640012 129.8530202  21.9539975 -14.3506725
 115.4390012  22.9094997  -9.8690012 115.8850012  22.1174997  -9.5670012
 115.9060012  23.6254997  -9.4380012 115.5630172  22.8980624  -9.7695180
 113.7430012  25.9084997  -8.8000012 114.2350012  25.6874997  -9.5910012
 114.1060012  26.7494997  -8.5190012 113.8593126  25.9918357  -8.8702469
 131.7400012  22.2384997  -2.5340012 130.8220012  22.5094997  -2.5700012
 131.8630012  21.7034997  -3.3190012 131.6311066  22.2032892  -2.6449513
 131.7760012  22.1614997 -17.8730012 132.1880012  21.4404997 -18.3480012
 132.4580012  22.8314997 -17.8140012 131.9245885  22.1532368 -17.9301085
 114.0570012  22.1664997 -14.7460012 113.1320012  22.3754997 -14.8750012
 114.5110012  22.6504997 -15.4350012 113.9917368  22.2605993 -14.8568774
 128.8280012  37.1504997 -12.8000012 129.4800012  36.8034997 -13.4080012
 129.3380012  37.6394997 -12.1540012 128.9862637  37.1690597 -12.7959764
 114.0210012  20.9044997  -6.4010012 113.3560012  20.6584997  -5.7580012
 113.5780012  21.5264997  -6.9790012 113.8700956  20.9548632  -6.3910648
 116.2130012  34.0794997  -2.2570012 115.3920012  34.2544997  -2.7170012
 115.9600012  34.0064997  -1.3360012 116.0666164  34.0935622  -2.1955077
 119.1670012  35.0544997  -5.9980012 118.7420012  35.8634997  -6.2810012
 120.0710012  35.1394997  -6.3000012 119.2310271  35.1768469  -6.0776224
 123.4780012  36.4534997  -3.0390012 123.6630012  36.1194997  -2.1610012
 124.3240012  36.7624997  -3.3610012 123.6177539  36.4496047  -2.9624395
 125.8230012  37.7394997  -3.7950012 126.5000012  37.1064997  -4.0350012
 126.1450012  38.1404997  -2.9880012 125.9591637  37.7071154  -3.7187207
 130.7400012  20.3284997  -4.7150012 129.9280012  20.6534997  -5.1030012
 130.9730012  19.5684997  -5.2480012 130.6603423  20.2702436  -4.8401747
 116.5690012  38.3104997  -5.9510012 115.8480012  38.7504997  -6.4020012
 116.2030012  38.0594997  -5.1020012 116.4209804  38.3367698  -5.8980160
 119.0360012  37.9104997  -6.9210012 118.1710012  37.9824997  -6.5170012
 118.9810012  38.4574997  -7.7050012 118.9102085  37.9942685  -6.9716638
 123.7460012  37.7984997  -7.7460012 123.2900012  38.3274997  -8.4000012
 123.9090012  38.4014997  -7.0200012 123.7055585  37.9524468  -7.7374938
 126.0740012  36.6764997  -6.8010012 125.1690012  36.8414997  -7.0660012
 126.5030012  37.5294997  -6.8660012 126.0080799  36.8144483  -6.8460818
 128.6780012  38.2464997  -6.5060012 128.4960012  39.1624997  -6.7160012
 128.8550012  37.8364997  -7.3520012 128.6770210  38.3164822  -6.6492115
 115.9830012  36.9334997  -9.0410012 115.9650012  36.5084997  -8.1830012
 116.7880012  36.6154997  -9.4490012 116.0893875  36.8323812  -8.9788345
 118.1250012  35.6434997 -10.3860012 117.9060012  34.7274997 -10.2160012
 118.9490012  35.7834997  -9.9200012 118.2064420  35.5370520 -10.2997226
 120.6620012  36.1134997  -9.5370012 120.8750012  35.2254997  -9.8240012
 120.7260012  36.0794997  -8.5830012 120.6998232  35.9873102  -9.4472603
 124.1700012  21.7774997 -10.3930012 123.4960012  21.1484997 -10.1370012
 124.7340012  21.2934997 -10.9960012 124.1539230  21.6258744 -10.4394660
 129.3130012  19.8854997 -10.2800012 129.9170012  20.4324997 -10.7820012
 128.4430012  20.2044997 -10.5200012 129.2781241  20.0035806 -10.3812346
 131.0400012  21.0234997 -11.9470012 131.6520012  20.5094997 -12.4730012
 131.4220012  21.9014997 -11.9230012 131.1754540  21.0717140 -12.0158170
 116.4970012  20.4114997 -12.5710012 115.7200012  20.1774997 -13.0780012
 117.0270012  19.6144997 -12.5620012 116.4622330  20.2716988 -12.6392258
 115.3330012  20.2094997 -16.7670012 115.7720012  20.8204997 -17.3590012
 114.7000012  20.7474997 -16.2930012 115.3074514  20.3659257 -16.7839070
 121.0760012  20.3384997 -12.7570012 121.9510012  20.7264997 -12.7870012
 120.9400012  20.1234997 -11.8350012 121.1773695  20.3625184 -12.6363560
 126.6330012  20.3684997 -11.1080012 126.7090012  20.4634997 -12.0580012
 126.3580012  19.4604997 -10.9790012 126.6062321  20.2587867 -11.2204921
 127.9860012  20.3944997 -15.4160012 127.2840012  21.0094997 -15.6250012
 127.5420012  19.5564997 -15.2850012 127.8296330  20.3655783 -15.4269672
 115.2340012  36.1574997 -15.8690012 114.5490012  36.1194997 -16.5370012
 115.2380012  37.0704997 -15.5810012 115.1408193  36.2757016 -15.9214716
 117.1940012  22.1254997 -18.3250012 117.6860012  21.4954997 -18.8520012
 117.8180012  22.4214997 -17.6610012 117.3455446  22.0793199 -18.3074020
 122.2200012  22.4184997 -15.8680012 122.3980012  21.7724997 -15.1850012
 122.1670012  23.2524997 -15.4000012 122.2371829  22.4427985 -15.7114060
 124.0990012  37.3674997 -17.4720012 124.9650012  37.7334997 -17.6500012
 123.8520012  36.9274997 -18.2860012 124.1842392  37.3581756 -17.6063711
 130.8080012  36.9304997 -14.7930012 130.6130012  36.1824997 -15.3580012
 130.7690012  37.6884997 -15.3760012 130.7760380  36.9306099 -14.9491616
 116.4550012  20.9254997  -3.0530012 116.0890012  20.1604997  -2.6100012
 117.3680012  20.9544997  -2.7660012 116.5282790  20.8247224  -2.9535930
 118.4280012  20.2764997  -1.5170012 119.3260012  20.0024997  -1.7020012
 118.0410012  19.5334997  -1.0530012 118.4986612  20.1385914  -1.4796357
 117.0520012  37.0774997 -18.8440012 116.7850012  37.3644997 -17.9710012
 117.8240012  36.5314997 -18.6920012 117.1197488  37.0430294 -18.7038950
 126.8490012  19.6084997  -1.3350012 126.9260012  19.1824997  -0.4810012
 127.7430012  19.6224997  -1.6780012 126.9803428  19.5520879  -1.2644690
 130.0250012  35.6814997  -2.6430012 129.2430012  35.4954997  -3.1620012
 129.9530012  36.6104997  -2.4250012 129.9081777  35.7816492  -2.6845952
 144.4310012  29.5674997 -12.6120012 144.5200012  30.5114997 -12.7440012
 143.7930012  29.2924997 -13.2700012 144.3569081  29.6594830 -12.7190386
 143.3640012  28.8224997  -9.1930012 143.3260012  28.1764997  -8.4880012
 143.0420012  28.3564997  -9.9640012 143.3152333  28.6709408  -9.2007022
 135.7330012  28.4374997  -7.6000012 135.7740012  27.8114997  -6.8770012
 136.4360012  29.0614997  -7.4180012 135.8336363  28.4361196  -7.4763956
 136.6560012  32.8874997  -9.0650012 136.2870012  32.0854997  -9.4350012
 137.5970012  32.7184997  -9.0190012 136.7327289  32.7550153  -9.1093684
 133.2660012  26.5474997 -13.6720012 132.8190012  27.3934997 -13.6910012
 132.7050012  25.9674997 -14.1880012 133.1289900  26.5849916 -13.7443199
 133.9770012  28.7094997 -11.5460012 134.1900012  27.9394997 -11.0190012
 134.7150012  28.7984997 -12.1500012 134.1058496  28.6161394 -11.5554700
 144.1820012  36.8664997 -10.6790012 144.8020012  36.1894997 -10.9530012
 143.9740012  36.6484997  -9.7710012 144.2386904  36.7443870 -10.5936635
 141.7540012  31.2554997  -8.7870012 142.0580012  30.5694997  -9.3820012
 142.4750012  31.3734997  -8.1690012 141.8930671  31.1776305  -8.7848184
 144.8950012  25.6494997  -8.4590012 145.0370012  24.7034997  -8.4390012
 144.7880012  25.8564997  -9.3880012 144.8999864  25.5479534  -8.5817661
 138.0490012  23.7504997 -11.1870012 138.0930012  24.6104997 -11.6050012
 137.5920012  23.1984997 -11.8210012 137.9932185  23.7935799 -11.3299701
 134.6700012  26.1474997 -10.4250012 135.3230012  25.5974997  -9.9930012
 134.6940012  25.8734997 -11.3420012 134.7626683  26.0351466 -10.4897877
 139.8260012  27.6974997 -11.2100012 140.4420012  27.1714997 -10.7000012
 139.2400012  27.0574997 -11.6130012 139.8310810  27.5389208 -11.1946827
 136.8600012  22.6684997  -7.1130012 136.6410012  23.1984997  -7.8790012
 136.1920012  22.8954997  -6.4660012 136.7397600  22.7716906  -7.1303621
 144.2290012  32.1684997 -13.5690012 143.9330012  31.8464997 -14.4200012
 143.9040012  33.0684997 -13.5280012 144.1446371  32.2460215 -13.6798199
 139.4290012  30.3444997  -6.8260012 138.6890012  30.9424997  -6.7220012
 140.1430012  30.8984997  -7.1410012 139.4242237  30.5012831  -6.8543535
 136.4530012  24.5604997  -9.1610012 137.0670012  25.1934997  -8.7870012
 136.9650012  24.0884997  -9.8170012 136.6062296  24.5832370  -9.1985748
 137.8360012  32.3084997  -6.0380012 137.8310012  33.1884997  -6.4160012
 136.9830012  32.2254997  -5.6130012 137.7199464  32.4176117  -6.0322093
 133.9570012  31.9794997 -15.2560012 133.6850012  32.2084997 -16.1450012
 134.0030012  32.8174997 -14.7960012 133.9260094  32.1241213 -15.3154303
 140.8860012  19.9744997  -9.6600012 140.7690012  19.0254997  -9.7150012
 140.0310012  20.3064997  -9.3870012 140.7543733  19.8895409  -9.6306103
 143.1530012  28.8114997 -15.1600012 142.4410012  29.3464997 -15.5120012
 143.8440012  28.8674997 -15.8200012 143.1490132  28.8922543 -15.2973711
 143.2060012  27.2694997 -18.1210012 143.9070012  27.2914997 -17.4700012
 143.5090012  26.6414997 -18.7770012 143.3427830  27.1876566 -18.1206289
 138.2040012  29.6514997 -12.3260012 137.8730012  29.2814997 -13.1440012
 138.7920012  28.9814997 -11.9790012 138.2381873  29.5101156 -12.3911898
 139.5700012  33.0794997  -9.6440012 139.4760012  32.5014997 -10.4010012
 140.3000012  32.7084997  -9.1480012 139.6557981  32.9502390  -9.6805835
 138.5700012  28.4204997  -8.6920012 139.1360012  28.5414997  -9.4550012
 138.8890012  29.0574997  -8.0530012 138.6905786  28.5231884  -8.7099960
 144.8790012  33.9234997  -7.9580012 144.6390012  34.5854997  -7.3100012
 144.6810012  33.0894997  -7.5330012 144.8193808  33.9013134  -7.8118476
 139.4500012  32.8194997  -3.9750012 139.1390012  33.6014997  -3.5200012
 138.8000012  32.6664997  -4.6610012 139.3195558  32.9059105  -4.0054129
 136.3700012  29.0174997  -4.7460012 136.4410012  29.6684997  -4.0480012
 135.4800012  29.1204997  -5.0810012 136.2593117  29.1205936  -4.6957300
 143.1560012  34.9204997 -13.0880012 143.6300012  35.2154997 -12.3100012
 142.5930012  35.6584997 -13.3210012 143.1447653  35.0606932 -13.0129864
 137.6900012  34.8914997  -3.2120012 137.6970012  34.7554997  -4.1590012
 136.7740012  34.7734997  -2.9600012 137.5671714  34.8569430  -3.3075334
 137.1940012  28.7214997 -14.7360012 136.9020012  29.4894997 -15.2270012
 136.5200012  28.0614997 -14.8990012 137.0629081  28.7374406 -14.8252660
 133.2870012  31.0844997  -5.9210012 132.7860012  31.0564997  -6.7360012
 133.2920012  30.1784997  -5.6120012 133.2191526  30.9582278  -5.9907128
 133.0370012  33.8644997  -9.0370012 133.9830012  33.7204997  -9.0560012
 132.9250012  34.6484997  -8.5000012 133.1512727  33.9508046  -8.9669928
 142.2140012  34.1044997  -4.4790012 142.3010012  34.9304997  -4.0040012
 141.3500012  33.7744997  -4.2300012 142.1091964  34.1729878  -4.3803451
 142.6280012  37.8764997 -14.6730012 142.5530012  37.7554997 -15.6190012
 142.6610012  38.8264997 -14.5540012 142.6221848  37.9882500 -14.7865166
 136.2810012  36.6654997 -12.8920012 136.4340012  36.3174997 -12.0130012
 135.4310012  36.3094997 -13.1470012 136.1868962  36.5696650 -12.8061660
 135.5360012  32.4074997  -4.8780012 135.7520012  32.0464997  -4.0190012
 134.6810012  32.0334997  -5.0880012 135.4499292  32.3074111  -4.7886614
 138.1550012  20.8774997  -8.8830012 137.2930012  20.7904997  -9.2900012
 138.1320012  21.7334997  -8.4550012 138.0340330  20.9812765  -8.8808137
 142.8180012  20.5994997  -5.5080012 143.2380012  20.1844997  -4.7550012
 141.8850012  20.4214997  -5.3910012 142.7493644  20.5185900  -5.3890461
 142.4790012  23.0924997 -18.2230012 142.2260012  23.1114997 -17.3000012
 142.2230012  22.2204997 -18.5240012 142.4097790  22.9772437 -18.1373737
 138.2460012  25.8434997  -7.7880012 137.6040012  25.8024997  -7.0790012
 138.2830012  26.7694997  -8.0250012 138.1631324  25.9631559  -7.7230176
 138.2430012  26.0644997 -12.8760012 137.3500012  25.7234997 -12.9340012
 138.6930012  25.6874997 -13.6310012 138.1817305  25.9668484 -12.9860823
 143.7780012  26.4804997 -14.0590012 143.3690012  27.2954997 -14.3500012
 144.4990012  26.3404997 -14.6730012 143.8194537  26.5732018 -14.1818658
 142.8800012  26.6554997  -2.5710012 142.3180012  25.9514997  -2.2500012
 143.7070012  26.5354997  -2.1030012 142.9147095  26.5427883  -2.4637670
 144.7830012  25.9264997 -11.2450012 144.5880012  26.5314997 -11.9600012
 144.9640012  25.0924997 -11.6790012 144.7807614  25.8966300 -11.4015595
 135.9960012  26.1634997  -5.9210012 135.9580012  26.5634997  -5.0520012
 135.5050012  25.3464997  -5.8300012 135.9244684  26.1078069  -5.7898941
 139.3620012  23.5374997 -19.1220012 138.9310012  23.0924997 -18.3920012
 138.6440012  23.9094997 -19.6340012 139.2059438  23.5268940 -19.0913201
 132.6040012  23.2794997 -12.0700012 133.2350012  23.2504997 -11.3510012
 133.0530012  22.8544997 -12.8000012 132.7510774  23.2180492 -12.0703447
 133.8780012  24.0254997 -16.6460012 134.3520012  24.6164997 -17.2310012
 133.1610012  24.5564997 -16.2990012 133.8459341  24.1780867 -16.6791164
 144.0470012  27.5644997  -6.5730012 144.3700012  26.9334997  -7.2160012
 143.6070012  27.0294997  -5.9130012 144.0316895  27.4058441  -6.5717150
 140.8240012  23.4914997 -11.7890012 139.9130012  23.5484997 -11.5010012
 141.3300012  23.4314997 -10.9790012 140.7675413  23.4911985 -11.6399378
 135.6530012  25.1204997 -12.9630012 134.7630012  25.2204997 -13.3030012
 135.9490012  24.2784997 -13.3090012 135.5712823  25.0203545 -13.0562787
 139.3060012  25.1204997 -15.3060012 140.2370012  25.2494997 -15.1280012
 139.0910012  25.7904997 -15.9560012 139.4044247  25.2286565 -15.3694253
 137.9800012  26.3154997 -17.7390012 137.4370012  25.9354997 -18.4310012
 138.8130012  26.5094997 -18.1680012 138.0184399  26.2898124 -17.8915474
 136.1150012  30.8724997  -2.6400012 136.8470012  31.1264997  -2.0790012
 135.3350012  31.0764997  -2.1250012 136.1098232  30.9349177  -2.4934240
 142.1440012  26.2794997  -9.9020012 142.7090012  25.7324997 -10.4490012
 141.9970012  25.7574997  -9.1140012 142.2012918  26.1342024  -9.8701546
 137.1460012  22.4154997 -13.4840012 136.8290012  21.5134997 -13.5190012
 137.9280012  22.4174997 -14.0370012 137.2082284  22.2921628 -13.5635217
 140.7710012  24.6674997  -7.4880012 139.9350012  25.1214997  -7.3780012
 141.2950012  24.9434997  -6.7360012 140.7274414  24.7669376  -7.3712864
 141.3150012  30.8804997 -15.8040012 140.5700012  30.3734997 -16.1260012
 141.1810012  30.9294997 -14.8570012 141.1948776  30.8176940 -15.7201353
 142.8340012  31.0644997  -4.5670012 142.4890012  30.6834997  -3.7600012
 142.6340012  31.9984997  -4.4950012 142.7598061  31.1385228  -4.4469039
 136.4400012  30.1754997 -10.0340012 137.1850012  30.1734997 -10.6350012
 136.5180012  29.3524997  -9.5520012 136.5525518  30.0639315 -10.0511071
 143.4410012  32.3394997 -16.7780012 143.1450012  33.1654997 -16.3970012
 142.7380012  31.7194997 -16.5820012 143.3054914  32.3688199 -16.6993557
 133.4480012  28.6364997  -4.7190012 133.6710012  28.2184997  -3.8870012
 132.8460012  28.0234997  -5.1420012 133.3971759  28.4964668  -4.6622978
 140.4640012  28.1534997  -2.5060012 140.1680012  27.9874997  -3.4010012
 141.3960012  27.9334997  -2.5170012 140.5494166  28.1010640  -2.6299464
 138.8150012  33.6934997 -12.6300012 139.3420012  34.4664997 -12.8300012
 137.9350012  33.9184997 -12.9310012 138.7681773  33.8298005 -12.6980990
 134.5700012  28.5554997 -18.0430012 135.1860012  29.1824997 -17.6630012
 133.7080012  28.8714997 -17.7710012 134.5377698  28.6839430 -17.9542817
 140.2420012  31.3564997 -13.0530012 140.0010012  32.2814997 -13.0120012
 139.5010012  30.8974997 -12.6570012 140.1088409  31.4211421 -12.9938623
 140.7570012  35.5054997  -6.7380012 141.1190012  36.3604997  -6.9720012
 141.2880012  35.2134997  -5.9980012 140.8784473  35.5831060  -6.6699145
 138.9250012  36.3784997 -13.5080012 137.9750012  36.4834997 -13.4570012
 139.2770012  37.1984997 -13.1630012 138.8424203  36.5038314 -13.4543350
 144.3010012  31.6044997  -7.0380012 143.8750012  31.3774997  -6.2110012
 144.8810012  30.8664997  -7.2200012 144.3211868  31.4735299  -6.9494170
 135.0820012  23.3894997  -5.1610012 134.1890012  23.7284997  -5.2290012
 134.9830012  22.5344997  -4.7430012 134.9464164  23.3202588  -5.1137765
 134.7330012  35.1944997  -6.7260012 134.9500012  34.2624997  -6.7570012
 134.9790012  35.4684997  -5.8430012 134.7959549  35.1040636  -6.6108237
 140.5950012  33.6454997 -19.5170012 140.8340012  32.8974997 -20.0640012
 140.3260012  33.2574997 -18.6840012 140.5913675  33.4906638 -19.4793135
 139.5320012  33.2154997 -17.0600012 139.6780012  32.6954997 -16.2700012
 139.5290012  34.1224997 -16.7540012 139.5515989  33.2668853 -16.9103912
 135.9850012  30.4684997 -16.5500012 135.2990012  30.8204997 -15.9830012
 136.5070012  31.2314997 -16.7970012 135.9616852  30.6198578 -16.5057882
 143.8160012  23.1304997  -6.2710012 144.5150012  23.2044997  -5.6210012
 143.4350012  22.2664997  -6.1170012 143.8601767  23.0237624  -6.1611678
 144.6010012  22.7824997 -15.1740012 144.8210012  23.2544997 -15.9770012
 145.1590012  23.1774997 -14.5040012 144.7064968  22.9004285 -15.1932669
 142.2690012  34.9134997 -16.3110012 141.4530012  35.4104997 -16.2590012
 142.7990012  35.3884997 -16.9510012 142.2289161  35.0457722 -16.3904044
 141.8010012  24.5104997 -14.3390012 142.6130012  25.0154997 -14.2930012
 141.5560012  24.3654997 -13.4250012 141.8790520  24.5600375 -14.2091483
 142.3360012  25.4964997  -5.1540012 142.4550012  26.0704997  -4.3970012
 142.9920012  24.8084997  -5.0400012 142.4409757  25.4821079  -5.0349175
 142.6840012  21.5914997 -13.4010012 142.3380012  22.2094997 -12.7560012
 143.3430012  22.0924997 -13.8820012 142.7257826  21.7435802 -13.3779029
 139.6080012  35.9574997 -16.3290012 139.7680012  36.7564997 -16.8300012
 139.4100012  36.2634997 -15.4440012 139.6031649  36.1084469 -16.2780185
 138.3420012  22.6544997 -16.7140012 138.2590012  23.5434997 -16.3670012
 139.2320012  22.3894997 -16.4820012 138.4509469  22.7401430 -16.6352374
 136.6010012  33.0824997 -17.6530012 137.1930012  33.7814997 -17.3770012
 137.0600012  32.6494997 -18.3730012 136.7441142  33.1197049 -17.7125170
 134.9170012  25.7464997 -18.5370012 134.8720012  26.6854997 -18.3590012
 134.0290012  25.5104997 -18.8070012 134.7908574  25.8431892 -18.5491088
 135.7250012  20.5284997  -9.8640012 135.4960012  20.5874997 -10.7920012
 135.2820012  19.7364997  -9.5580012 135.6338530  20.4295753  -9.9495214
 134.6550012  34.4684997 -13.7040012 133.8230012  34.9414997 -13.6760012
 135.2010012  34.9784997 -14.3020012 134.6149739  34.6021871 -13.7810284
 133.9430012  37.0814997  -2.3740012 134.4840012  36.8644997  -1.6140012
 133.4620012  36.2754997  -2.5630012 133.9519345  36.9429514  -2.2956924
 138.5410012  36.0004997  -0.7530012 139.3080012  35.5414997  -0.4120012
 138.5190012  35.7744997  -1.6830012 138.6431434  35.9070409  -0.8319957
 142.6330012  35.5084997 -19.3780012 141.9890012  34.8774997 -19.0570012
 143.3950012  34.9774997 -19.6100012 142.6478077  35.3502920 -19.3653989
 133.8500012  30.8914997  -1.4190012 133.9940012  29.9894997  -1.7060012
 133.0780012  31.1774997  -1.9070012 133.7653322  30.8068261  -1.5242119
 138.1920012  31.2354997 -19.2870012 138.2560012  30.4414997 -18.7560012
 138.8450012  31.1164997 -19.9770012 138.2890241  31.1107148 -19.3075683
 140.5060012  30.8614997  -1.9870012 140.1770012  31.1324997  -2.8440012
 140.6580012  29.9204997  -2.0740012 140.4814809  30.7713862  -2.1161756
 134.6830012  28.0914997  -1.9990012 135.0910012  27.2344997  -2.1200012
 134.4230012  28.1064997  -1.0780012 134.7037568  27.9760807  -1.8910412
 139.3410012  29.2074997 -16.9810012 138.8810012  28.7234997 -16.2950012
 139.5960012  28.5394997 -17.6170012 139.3124902  29.0508731 -16.9730666
 138.6300012  27.1004997  -4.6250012 138.0120012  27.7754997  -4.3450012
 138.9740012  27.4214997  -5.4580012 138.5919615  27.2362721  -4.6993419
 140.4120012  27.4504997 -18.7190012 140.2320012  27.2964997 -19.6460012
 141.3620012  27.5584997 -18.6740012 140.5157776  27.4440175 -18.8398157
 143.6500012  29.5724997  -1.3480012 144.6030012  29.6554997  -1.3750012
 143.4890012  28.8604997  -0.7280012 143.7586426  29.4876746  -1.2679421
 138.9690012  24.4554997  -3.5430012 139.1190012  23.7264997  -4.1450012
 138.9720012  25.2324997  -4.1020012 138.9899302  24.4607851  -3.7009308
 139.3820012  22.8254997  -6.0500012 139.9180012  23.2764997  -6.7020012
 138.5300012  22.7174997  -6.4730012 139.3402178  22.8726390  -6.1964244
 140.9640012  28.2644997  -5.8110012 141.7140012  28.1084997  -6.3840012
 140.6250012  29.1164997  -6.0860012 141.0208921  28.3582968  -5.9266439
 137.4480012  25.6534997  -1.6310012 136.6810012  25.1214997  -1.8410012
 138.1270012  25.3434997  -2.2310012 137.4347022  25.5387506  -1.7408352
 140.1880012  20.2814997  -5.6190012 140.0890012  21.2284997  -5.7240012
 139.4450012  19.9094997  -6.0940012 140.0740563  20.3605902  -5.6975440
 141.4520012  24.6034997  -2.0550012 141.2160012  24.3834997  -1.1530012
 140.6680012  24.3964997  -2.5650012 141.3138628  24.5454760  -2.0006068
 144.1670012  23.7304997  -2.9790012 143.2200012  23.7624997  -2.8470012
 144.4800012  23.1054997  -2.3260012 144.0795475  23.6503207  -2.8725545
 135.6280012  23.5744997  -1.9270012 135.8400012  22.8674997  -2.5370012
 135.5170012  23.1364997  -1.0830012 135.6419721  23.4187084  -1.8963157
 140.4090012  19.5754997  -2.9470012 141.1210012  18.9354997  -2.9610012
 140.3080012  19.8424997  -3.8610012 140.4927939  19.5239938  -3.0724350
 140.7630012  21.2584997  -0.8940012 140.6310012  20.7824997  -1.7140012
 140.1640012  22.0024997  -0.9490012 140.6639071  21.2939618  -1.0137114
 140.3090012  38.1414997 -17.7170012 141.2420012  38.2994997 -17.5740012
 140.0450012  38.8164997 -18.3420012 140.4009510  38.2543611 -17.7819259
 133.8780012  32.7774997 -18.2350012 134.7920012  32.8564997 -17.9610012
 133.8850012  32.0904997 -18.9010012 134.0041131  32.6953961 -18.2875607
 132.5270012  38.1704997 -13.1570012 131.8800012  37.7084997 -13.6900012
 132.8810012  37.4984997 -12.5750012 132.4863849  38.0164723 -13.1512041
 133.3970012  36.2514997 -11.3530012 133.0620012  35.3714997 -11.1810012
 133.6190012  36.5964997 -10.4880012 133.3811783  36.1777500 -11.2125792
 133.4770012  29.3264997  -8.9010012 133.6610012  29.2444997  -9.8370012
 134.3260012  29.2024997  -8.4770012 133.6170139  29.2985003  -8.9718545
 133.0740012  24.5974997  -2.7600012 133.9940012  24.4754997  -2.5240012
 132.6250012  23.8474997  -2.3710012 133.1391580  24.4793727  -2.6750994
 134.2950012  22.9094997  -9.8690012 134.7410012  22.1174997  -9.5670012
 134.7620012  23.6254997  -9.4380012 134.4190172  22.8980624  -9.7695180
 132.5990012  25.9084997  -8.8000012 133.0910012  25.6874997  -9.5910012
 132.9620012  26.7494997  -8.5190012 132.7153126  25.9918357  -8.8702469
 132.9130012  22.1664997 -14.7460012 131.9880012  22.3754997 -14.8750012
 133.3670012  22.6504997 -15.4350012 132.8477368  22.2605993 -14.8568774
 132.8770012  20.9044997  -6.4010012 132.2120012  20.6584997  -5.7580012
 132.4340012  21.5264997  -6.9790012 132.7260956  20.9548632  -6.3910648
 135.0690012  34.0794997  -2.2570012 134.2480012  34.2544997  -2.7170012
 134.8160012  34.0064997  -1.3360012 134.9226164  34.0935622  -2.1955077
 138.0230012  35.0544997  -5.9980012 137.5980012  35.8634997  -6.2810012
 138.9270012  35.1394997  -6.3000012 138.0870271  35.1768469  -6.0776224
 142.3340012  36.4534997  -3.0390012 142.5190012  36.1194997  -2.1610012
 143.1800012  36.7624997  -3.3610012 142.4737539  36.4496047  -2.9624395
 144.6790012  37.7394997  -3.7950012 145.3560012  37.1064997  -4.0350012
 145.0010012  38.1404997  -2.9880012 144.8151637  37.7071154  -3.7187207
 135.4250012  38.3104997  -5.9510012 134.7040012  38.7504997  -6.4020012
 135.0590012  38.0594997  -5.1020012 135.2769804  38.3367698  -5.8980160
 137.8920012  37.9104997  -6.9210012 137.0270012  37.9824997  -6.5170012
 137.8370012  38.4574997  -7.7050012 137.7662085  37.9942685  -6.9716638
 142.6020012  37.7984997  -7.7460012 142.1460012  38.3274997  -8.4000012
 142.7650012  38.4014997  -7.0200012 142.5615585  37.9524468  -7.7374938
 134.8390012  36.9334997  -9.0410012 134.8210012  36.5084997  -8.1830012
 135.6440012  36.6154997  -9.4490012 134.9453875  36.8323812  -8.9788345
 136.9810012  35.6434997 -10.3860012 136.7620012  34.7274997 -10.2160012
 137.8050012  35.7834997  -9.9200012 137.0624420  35.5370520 -10.2997226
 139.5180012  36.1134997  -9.5370012 139.7310012  35.2254997  -9.8240012
 139.5820012  36.0794997  -8.5830012 139.5558231  35.9873102  -9.4472603
 143.0260012  21.7774997 -10.3930012 142.3520012  21.1484997 -10.1370012
 143.5900012  21.2934997 -10.9960012 143.0099230  21.6258744 -10.4394660
 135.3530012  20.4114997 -12.5710012 134.5760012  20.1774997 -13.0780012
 135.8830012  19.6144997 -12.5620012 135.3182330  20.2716988 -12.6392258
 134.1890012  20.2094997 -16.7670012 134.6280012  20.8204997 -17.3590012
 133.5560012  20.7474997 -16.2930012 134.1634514  20.3659257 -16.7839070
 139.9320012  20.3384997 -12.7570012 140.8070012  20.7264997 -12.7870012
 139.7960012  20.1234997 -11.8350012 140.0333695  20.3625184 -12.6363560
 134.0900012  36.1574997 -15.8690012 133.4050012  36.1194997 -16.5370012
 134.0940012  37.0704997 -15.5810012 133.9968193  36.2757016 -15.9214716
 136.0500012  22.1254997 -18.3250012 136.5420012  21.4954997 -18.8520012
 136.6740012  22.4214997 -17.6610012 136.2015446  22.0793199 -18.3074020
 141.0760012  22.4184997 -15.8680012 141.2540012  21.7724997 -15.1850012
 141.0230012  23.2524997 -15.4000012 141.0931829  22.4427985 -15.7114060
 142.9550012  37.3674997 -17.4720012 143.8210012  37.7334997 -17.6500012
 142.7080012  36.9274997 -18.2860012 143.0402392  37.3581756 -17.6063711
 135.3110012  20.9254997  -3.0530012 134.9450012  20.1604997  -2.6100012
 136.2240012  20.9544997  -2.7660012 135.3842790  20.8247224  -2.9535930
 137.2840012  20.2764997  -1.5170012 138.1820012  20.0024997  -1.7020012
 136.8970012  19.5334997  -1.0530012 137.3546612  20.1385914  -1.4796357
 135.9080012  37.0774997 -18.8440012 135.6410012  37.3644997 -17.9710012
 136.6800012  36.5314997 -18.6920012 135.9757488  37.0430294 -18.7038950
  12.4390012  48.4234997 -12.6120012  12.5280012  49.3674997 -12.7440012
  11.8010012  48.1484997 -13.2700012  12.3649081  48.5154830 -12.7190386
  11.3720012  47.6784997  -9.1930012  11.3340012  47.0324997  -8.4880012
  11.0500012  47.2124997  -9.9640012  11.3232333  47.5269408  -9.2007022
   3.7410012  47.2934997  -7.6000012   3.7820012  46.6674997  -6.8770012
   4.4440012  47.9174997  -7.4180012   3.8416363  47.2921196  -7.4763956
  15.0780012  50.6174997 -10.8920012  14.6380012  49.8974997 -10.4410012
  15.0650012  51.3384997 -10.2620012  15.0160226  50.6163731 -10.7451506
   4.6640012  51.7434997  -9.0650012   4.2950012  50.9414997  -9.4350012
   5.6050012  51.5744997  -9.0190012   4.7407289  51.6110153  -9.1093684
   1.2740012  45.4034997 -13.6720012   0.8270012  46.2494997 -13.6910012
   0.7130012  44.8234997 -14.1880012   1.1369900  45.4409916 -13.7443199
   1.9850012  47.5654997 -11.5460012   2.1980012  46.7954997 -11.0190012
   2.7230012  47.6544997 -12.1500012   2.1138496  47.4721394 -11.5554700
  12.1900012  55.7224997 -10.6790012  12.8100012  55.0454997 -10.9530012
  11.9820012  55.5044997  -9.7710012  12.2466904  55.6003870 -10.5936635
   9.7620012  50.1114997  -8.7870012  10.0660012  49.4254997  -9.3820012
  10.4830012  50.2294997  -8.1690012   9.9010671  50.0336305  -8.7848184
  18.4250012  41.7124997  -7.9260012  18.4740012  42.3224997  -7.1900012
  18.8500012  42.1734997  -8.6490012  18.4891824  41.8583741  -7.9229795
  12.9030012  44.5054997  -8.4590012  13.0450012  43.5594997  -8.4390012
  12.7960012  44.7124997  -9.3880012  12.9079864  44.4039534  -8.5817661
   6.0570012  42.6064997 -11.1870012   6.1010012  43.4664997 -11.6050012
   5.6000012  42.0544997 -11.8210012   6.0012185  42.6495799 -11.3299701
  13.7800012  42.7374997 -12.7860012  14.4260012  42.4084997 -12.1610012
  14.2900012  43.2554997 -13.4090012  13.9374264  42.7624611 -12.7846138
   2.6780012  45.0034997 -10.4250012   3.3310012  44.4534997  -9.9930012
   2.7020012  44.7294997 -11.3420012   2.7706683  44.8911466 -10.4897877
   7.8340012  46.5534997 -11.2100012   8.4500012  46.0274997 -10.7000012
   7.2480012  45.9134997 -11.6130012   7.8390810  46.3949208 -11.1946827
  18.8160012  43.1904997  -5.6900012  18.1280012  43.8484997  -5.7860012
  18.8320012  42.9934997  -4.7540012  18.7238525  43.2540462  -5.5765192
   4.8680012  41.5244997  -7.1130012   4.6490012  42.0544997  -7.8790012
   4.2000012  41.7514997  -6.4660012   4.7477600  41.6276906  -7.1303621
  12.2370012  51.0244997 -13.5690012  11.9410012  50.7024997 -14.4200012
  11.9120012  51.9244997 -13.5280012  12.1526371  51.1020215 -13.6798199
   7.4370012  49.2004997  -6.8260012   6.6970012  49.7984997  -6.7220012
   8.1510012  49.7544997  -7.1410012   7.4322237  49.3572831  -6.8543535
  15.5440012  42.0284997 -10.8060012  15.3280012  41.2624997 -10.2730012
  16.1990012  42.5004997 -10.2930012  15.6030632  41.9875889 -10.6637139
   4.4610012  43.4164997  -9.1610012   5.0750012  44.0494997  -8.7870012
   4.9730012  42.9444997  -9.8170012   4.6142296  43.4392370  -9.1985748
   5.8440012  51.1644997  -6.0380012   5.8390012  52.0444997  -6.4160012
   4.9910012  51.0814997  -5.6130012   5.7279464  51.2736117  -6.0322093
   1.9650012  50.8354997 -15.2560012   1.6930012  51.0644997 -16.1450012
   2.0110012  51.6734997 -14.7960012   1.9340094  50.9801213 -15.3154303
  15.5900012  52.4574997  -8.5440012  14.6490012  52.5154997  -8.3820012
  15.8670012  53.3634997  -8.6810012  15.4984679  52.5879443  -8.5403185
  15.8910012  40.7434997  -7.1260012  15.1550012  41.3544997  -7.1640012
  16.5740012  41.1584997  -7.6530012  15.8826541  40.8831374  -7.2024168
   8.8940012  38.8304997  -9.6600012   8.7770012  37.8814997  -9.7150012
   8.0390012  39.1624997  -9.3870012   8.7623733  38.7455409  -9.6306103
  13.8420012  54.2384997 -11.9180012  14.2680012  53.5314997 -12.4030012
  14.1590012  55.0394997 -12.3350012  13.9431019  54.2500994 -12.0406870
  15.0020012  52.1394997 -13.4100012  14.7440012  51.4494997 -14.0210012
  15.0730012  51.6964997 -12.5640012  14.9762856  51.9852124 -13.3793115
  16.6880012  50.7054997  -4.9320012  16.8280012  50.1144997  -5.6720012
  16.8550012  51.5784997  -5.2890012  16.7296778  50.7426426  -5.0813035
  11.1610012  47.6674997 -15.1600012  10.4490012  48.2024997 -15.5120012
  11.8520012  47.7234997 -15.8200012  11.1570132  47.7482543 -15.2973711
  11.2140012  46.1254997 -18.1210012  11.9150012  46.1474997 -17.4700012
  11.5170012  45.4974997 -18.7770012  11.3507830  46.0436566 -18.1206289
  18.5300012  47.0454997  -6.8660012  17.8770012  47.7404997  -6.7770012
  18.9950012  47.2554997  -7.6760012  18.5035390  47.1689425  -6.9633117
  14.5660012  47.8774997 -14.2080012  13.8340012  48.1054997 -13.6350012
  15.0140012  47.1634997 -13.7530012  14.5263095  47.8122571 -14.0680881
  14.4640012  46.0514997  -5.1410012  14.5440012  46.8144997  -4.5690012
  13.8620012  46.3304997  -5.8310012  14.3935756  46.1937134  -5.1559411
   6.2120012  48.5074997 -12.3260012   5.8810012  48.1374997 -13.1440012
   6.8000012  47.8374997 -11.9790012   6.2461873  48.3661156 -12.3911898
   7.5780012  51.9354997  -9.6440012   7.4840012  51.3574997 -10.4010012
   8.3080012  51.5644997  -9.1480012   7.6637981  51.8062390  -9.6805835
   6.5780012  47.2764997  -8.6920012   7.1440012  47.3974997  -9.4550012
   6.8970012  47.9134997  -8.0530012   6.6985786  47.3791884  -8.7099960
  12.8870012  52.7794997  -7.9580012  12.6470012  53.4414997  -7.3100012
  12.6890012  51.9454997  -7.5330012  12.8273808  52.7573134  -7.8118476
   7.4580012  51.6754997  -3.9750012   7.1470012  52.4574997  -3.5200012
   6.8080012  51.5224997  -4.6610012   7.3275558  51.7619105  -4.0054129
  13.4370012  47.0394997 -16.5230012  14.0170012  47.1894997 -15.7760012
  13.8510012  47.5104997 -17.2460012  13.5722830  47.1236841 -16.5185866
   4.3780012  47.8734997  -4.7460012   4.4490012  48.5244997  -4.0480012
   3.4880012  47.9764997  -5.0810012   4.2673117  47.9765936  -4.6957300
  11.1640012  53.7764997 -13.0880012  11.6380012  54.0714997 -12.3100012
  10.6010012  54.5144997 -13.3210012  11.1527653  53.9166932 -13.0129864
   5.6980012  53.7474997  -3.2120012   5.7050012  53.6114997  -4.1590012
   4.7820012  53.6294997  -2.9600012   5.5751714  53.7129430  -3.3075334
  17.1360012  38.7894997 -16.7100012  16.2360012  38.9284997 -16.4150012
  17.3880012  39.6204997 -17.1120012  17.0468702  38.9209074 -16.7239795
   5.2020012  47.5774997 -14.7360012   4.9100012  48.3454997 -15.2270012
   4.5280012  46.9174997 -14.8990012   5.0709081  47.5934406 -14.8252660
  18.3250012  53.1554997 -18.3340012  18.3990012  54.0944997 -18.1630012
  19.2310012  52.8504997 -18.3900012  18.4575100  53.2426722 -18.3181881
   1.2950012  49.9404997  -5.9210012   0.7940012  49.9124997  -6.7360012
   1.3000012  49.0344997  -5.6120012   1.2271526  49.8142278  -5.9907128
   1.0450012  52.7204997  -9.0370012   1.9910012  52.5764997  -9.0560012
   0.9330012  53.5044997  -8.5000012   1.1592727  52.8068046  -8.9669928
  19.2430012  53.3864997  -3.3550012  19.1940012  52.4314997  -3.3920012
  18.4160012  53.6544997  -2.9540012  19.1244940  53.2918998  -3.3058625
  10.2220012  52.9604997  -4.4790012  10.3090012  53.7864997  -4.0040012
   9.3580012  52.6304997  -4.2300012  10.1171964  53.0289878  -4.3803451
  10.6360012  56.7324997 -14.6730012  10.5610012  56.6114997 -15.6190012
  10.6690012  57.6824997 -14.5540012  10.6301848  56.8442500 -14.7865166
   4.2890012  55.5214997 -12.8920012   4.4420012  55.1734997 -12.0130012
   3.4390012  55.1654997 -13.1470012   4.1948962  55.4256650 -12.8061660
  13.7380012  55.8864997 -17.6710012  14.1130012  55.1424997 -18.1410012
  13.7420012  55.6164997 -16.7520012  13.7898915  55.7481486 -17.6112176
  13.4070012  55.8124997 -14.9210012  12.4710012  55.9124997 -14.7430012
  13.6870012  55.1034997 -14.3430012  13.3168255  55.7302711 -14.8184609
  16.3950012  44.8794997  -2.8750012  15.9880012  45.3604997  -3.5960012
  16.4360012  43.9744997  -3.1830012  16.3448437  44.8229374  -3.0153317
   3.5440012  51.2634997  -4.8780012   3.7600012  50.9024997  -4.0190012
   2.6890012  50.8894997  -5.0880012   3.4579292  51.1634111  -4.7886614
   6.1630012  39.7334997  -8.8830012   5.3010012  39.6464997  -9.2900012
   6.1400012  40.5894997  -8.4550012   6.0420330  39.8372765  -8.8808137
  10.8260012  39.4554997  -5.5080012  11.2460012  39.0404997  -4.7550012
   9.8930012  39.2774997  -5.3910012  10.7573644  39.3745900  -5.3890461
  14.1520012  43.2114997  -4.6550012  13.6380012  43.0854997  -3.8570012
  13.9970012  44.1234997  -4.8990012  14.0606852  43.3176132  -4.5787842
  14.9150012  48.0724997 -18.8930012  14.9570012  47.8494997 -19.8230012
  15.7640012  48.4714997 -18.7030012  15.0355396  48.0959155 -18.9946373
  10.4870012  41.9484997 -18.2230012  10.2340012  41.9674997 -17.3000012
  10.2310012  41.0764997 -18.5240012  10.4177790  41.8332437 -18.1373737
   6.2540012  44.6994997  -7.7880012   5.6120012  44.6584997  -7.0790012
   6.2910012  45.6254997  -8.0250012   6.1711324  44.8191559  -7.7230176
   6.2510012  44.9204997 -12.8760012   5.3580012  44.5794997 -12.9340012
   6.7010012  44.5434997 -13.6310012   6.1897305  44.8228484 -12.9860823
  11.7860012  45.3364997 -14.0590012  11.3770012  46.1514997 -14.3500012
  12.5070012  45.1964997 -14.6730012  11.8274537  45.4292018 -14.1818658
  10.8880012  45.5114997  -2.5710012  10.3260012  44.8074997  -2.2500012
  11.7150012  45.3914997  -2.1030012  10.9227095  45.3987883  -2.4637670
  12.7910012  44.7824997 -11.2450012  12.5960012  45.3874997 -11.9600012
  12.9720012  43.9484997 -11.6790012  12.7887614  44.7526300 -11.4015595
   4.0040012  45.0194997  -5.9210012   3.9660012  45.4194997  -5.0520012
   3.5130012  44.2024997  -5.8300012   3.9324684  44.9638069  -5.7898941
   7.3700012  42.3934997 -19.1220012   6.9390012  41.9484997 -18.3920012
   6.6520012  42.7654997 -19.6340012   7.2139438  42.3828940 -19.0913201
   0.6120012  42.1354997 -12.0700012   1.2430012  42.1064997 -11.3510012
   1.0610012  41.7104997 -12.8000012   0.7590774  42.0740492 -12.0703447
   1.8860012  42.8814997 -16.6460012   2.3600012  43.4724997 -17.2310012
   1.1690012  43.4124997 -16.2990012   1.8539341  43.0340867 -16.6791164
  12.0550012  46.4204997  -6.5730012  12.3780012  45.7894997  -7.2160012
  11.6150012  45.8854997  -5.9130012  12.0396895  46.2618441  -6.5717150
   8.8320012  42.3474997 -11.7890012   7.9210012  42.4044997 -11.5010012
   9.3380012  42.2874997 -10.9790012   8.7755413  42.3471985 -11.6399378
   3.6610012  43.9764997 -12.9630012   2.7710012  44.0764997 -13.3030012
   3.9570012  43.1344997 -13.3090012   3.5792823  43.8763545 -13.0562787
   7.3140012  43.9764997 -15.3060012   8.2450012  44.1054997 -15.1280012
   7.0990012  44.6464997 -15.9560012   7.4124247  44.0846565 -15.3694253
  13.2370012  41.5824997  -8.5250012  12.5610012  41.7134997  -7.8610012
  12.7520012  41.4274997  -9.3350012  13.0787145  41.5794905  -8.5435483
   5.9880012  45.1714997 -17.7390012   5.4450012  44.7914997 -18.4310012
   6.8210012  45.3654997 -18.1680012   6.0264399  45.1458124 -17.8915474
  16.5250012  57.2544997  -2.2480012  16.7250012  57.6784997  -3.0830012
  17.1800012  57.5974997  -1.6410012  16.6410051  57.3589648  -2.2802164
   4.1230012  49.7284997  -2.6400012   4.8550012  49.9824997  -2.0790012
   3.3430012  49.9324997  -2.1250012   4.1178232  49.7909177  -2.4934240
  10.1520012  45.1354997  -9.9020012  10.7170012  44.5884997 -10.4490012
  10.0050012  44.6134997  -9.1140012  10.2092918  44.9902024  -9.8701546
   5.1540012  41.2714997 -13.4840012   4.8370012  40.3694997 -13.5190012
   5.9360012  41.2734997 -14.0370012   5.2162284  41.1481628 -13.5635217
   8.7790012  43.5234997  -7.4880012   7.9430012  43.9774997  -7.3780012
   9.3030012  43.7994997  -6.7360012   8.7354414  43.6229376  -7.3712864
   9.3230012  49.7364997 -15.8040012   8.5780012  49.2294997 -16.1260012
   9.1890012  49.7854997 -14.8570012   9.2028776  49.6736940 -15.7201353
  16.4730012  48.8694997  -7.0170012  17.1150012  49.3264997  -7.5610012
  15.6430012  48.9824997  -7.4800012  16.4485963  48.9472704  -7.1539823
  13.2210012  42.5504997 -17.6040012  12.2820012  42.6624997 -17.7560012
  13.5180012  43.4074997 -17.2980012  13.1327666  42.6816443 -17.5834232
  10.8420012  49.9204997  -4.5670012  10.4970012  49.5394997  -3.7600012
  10.6420012  50.8544997  -4.4950012  10.7678061  49.9945228  -4.4469039
  13.9390012  44.4174997 -15.9440012  14.8310012  44.2804997 -15.6250012
  13.9960012  45.2084997 -16.4800012  14.0686285  44.5056660 -15.9728310
   4.4480012  49.0314997 -10.0340012   5.1930012  49.0294997 -10.6350012
   4.5260012  48.2084997  -9.5520012   4.5605518  48.9199315 -10.0511071
  11.4490012  51.1954997 -16.7780012  11.1530012  52.0214997 -16.3970012
  10.7460012  50.5754997 -16.5820012  11.3134914  51.2248199 -16.6993557
   1.4560012  47.4924997  -4.7190012   1.6790012  47.0744997  -3.8870012
   0.8540012  46.8794997  -5.1420012   1.4051759  47.3524668  -4.6622978
   8.4720012  47.0094997  -2.5060012   8.1760012  46.8434997  -3.4010012
   9.4040012  46.7894997  -2.5170012   8.5574166  46.9570640  -2.6299464
  13.0930012  52.3824997  -4.6160012  12.1920012  52.5654997  -4.8840012
  13.1270012  52.6414997  -3.6950012  12.9743041  52.4425512  -4.5281803
  18.8240012  44.6274997 -16.2490012  18.2700012  44.2314997 -16.9210012
  18.9240012  45.5374997 -16.5270012  18.7617059  44.6963586 -16.3785599
  18.7870012  50.4274997  -3.4120012  17.9360012  50.6654997  -3.7790012
  19.3780012  50.4104997  -4.1650012  18.7502487  50.4578258  -3.5641107
  17.1190012  53.4134997 -15.7840012  16.7460012  52.5874997 -15.4750012
  17.3970012  53.2304997 -16.6810012  17.1055630  53.2757303 -15.8630374
  14.2800012  48.2214997  -8.7630012  13.3510012  47.9894997  -8.7900012
  14.7310012  47.4444997  -9.0930012  14.2139216  48.0847238  -8.8113083
   6.8230012  52.5494997 -12.6300012   7.3500012  53.3224997 -12.8300012
   5.9430012  52.7744997 -12.9310012   6.7761773  52.6858005 -12.6980990
   2.5780012  47.4114997 -18.0430012   3.1940012  48.0384997 -17.6630012
   1.7160012  47.7274997 -17.7710012   2.5457698  47.5399430 -17.9542817
   8.2500012  50.2124997 -13.0530012   8.0090012  51.1374997 -13.0120012
   7.5090012  49.7534997 -12.6570012   8.1168409  50.2771421 -12.9938623
   8.7650012  54.3614997  -6.7380012   9.1270012  55.2164997  -6.9720012
   9.2960012  54.0694997  -5.9980012   8.8864473  54.4391060  -6.6699145
   6.9330012  55.2344997 -13.5080012   5.9830012  55.3394997 -13.4570012
   7.2850012  56.0544997 -13.1630012   6.8504203  55.3598314 -13.4543350
  12.3090012  50.4604997  -7.0380012  11.8830012  50.2334997  -6.2110012
  12.8890012  49.7224997  -7.2200012  12.3291868  50.3295299  -6.9494170
  14.5120012  51.3894997 -17.9640012  14.8650012  51.0094997 -17.1590012
  13.5630012  51.2964997 -17.8770012  14.4320441  51.3249596 -17.8421441
  14.9670012  55.0124997  -4.5680012  14.3660012  54.4574997  -5.0640012
  15.2490012  55.6794997  -5.1940012  14.9228519  55.0266841  -4.7205048
  19.0150012  55.8694997 -17.7630012  19.7590012  56.4554997 -17.9030012
  18.3210012  56.4374997 -17.4290012  19.0230292  56.0265582 -17.7370039
   3.0900012  42.2454997  -5.1610012   2.1970012  42.5844997  -5.2290012
   2.9910012  41.3904997  -4.7430012   2.9544164  42.1762588  -5.1137765
  15.3780012  50.0624997 -15.7370012  15.1000012  49.3344997 -15.1810012
  16.3050012  50.1814997 -15.5320012  15.4653124  49.9788802 -15.6331155
   2.7410012  54.0504997  -6.7260012   2.9580012  53.1184997  -6.7570012
   2.9870012  54.3244997  -5.8430012   2.8039549  53.9600636  -6.6108237
   8.6030012  52.5014997 -19.5170012   8.8420012  51.7534997 -20.0640012
   8.3340012  52.1134997 -18.6840012   8.5993675  52.3466638 -19.4793135
   7.5400012  52.0714997 -17.0600012   7.6860012  51.5514997 -16.2700012
   7.5370012  52.9784997 -16.7540012   7.5595989  52.1228853 -16.9103912
   3.9930012  49.3244997 -16.5500012   3.3070012  49.6764997 -15.9830012
   4.5150012  50.0874997 -16.7970012   3.9696852  49.4758578 -16.5057882
  11.8240012  41.9864997  -6.2710012  12.5230012  42.0604997  -5.6210012
  11.4430012  41.1224997  -6.1170012  11.8681767  41.8797624  -6.1611678
  12.6090012  41.6384997 -15.1740012  12.8290012  42.1104997 -15.9770012
  13.1670012  42.0334997 -14.5040012  12.7144968  41.7564285 -15.1932669
  10.2770012  53.7694997 -16.3110012   9.4610012  54.2664997 -16.2590012
  10.8070012  54.2444997 -16.9510012  10.2369161  53.9017722 -16.3904044
   9.8090012  43.3664997 -14.3390012  10.6210012  43.8714997 -14.2930012
   9.5640012  43.2214997 -13.4250012   9.8870520  43.4160375 -14.2091483
  10.3440012  44.3524997  -5.1540012  10.4630012  44.9264997  -4.3970012
  11.0000012  43.6644997  -5.0400012  10.4489757  44.3381079  -5.0349175
  10.6920012  40.4474997 -13.4010012  10.3460012  41.0654997 -12.7560012
  11.3510012  40.9484997 -13.8820012  10.7337826  40.5995802 -13.3779029
   7.6160012  54.8134997 -16.3290012   7.7760012  55.6124997 -16.8300012
   7.4180012  55.1194997 -15.4440012   7.6111649  54.9644469 -16.2780185
   6.3500012  41.5104997 -16.7140012   6.2670012  42.3994997 -16.3670012
   7.2400012  41.2454997 -16.4820012   6.4589469  41.5961430 -16.6352374
  16.5490012  42.2594997  -4.3190012  15.6320012  42.5224997  -4.4070012
  16.8840012  42.2564997  -5.2160012  16.4689900  42.2950224  -4.4522081
  15.1510012  46.0104997 -10.2240012  14.3530012  45.5954997 -10.5520012
  15.5960012  45.3194997  -9.7330012  15.1019885  45.8603543 -10.2025111
   4.6090012  51.9384997 -17.6530012   5.2010012  52.6374997 -17.3770012
   5.0680012  51.5054997 -18.3730012   4.7521142  51.9757049 -17.7125170
   2.9250012  44.6024997 -18.5370012   2.8800012  45.5414997 -18.3590012
   2.0370012  44.3664997 -18.8070012   2.7988574  44.6991892 -18.5491088
  16.2370012  55.2664997  -8.6010012  16.0820012  55.9444997  -9.2580012
  17.1700012  55.3384997  -8.3980012  16.3418500  55.3690170  -8.6634881
   3.7330012  39.3844997  -9.8640012   3.5040012  39.4434997 -10.7920012
   3.2900012  38.5924997  -9.5580012   3.6418530  39.2855753  -9.9495214
   2.6630012  53.3244997 -13.7040012   1.8310012  53.7974997 -13.6760012
   3.2090012  53.8344997 -14.3020012   2.6229739  53.4581871 -13.7810284
   1.9510012  55.9374997  -2.3740012   2.4920012  55.7204997  -1.6140012
   1.4700012  55.1314997  -2.5630012   1.9599345  55.7989514  -2.2956924
   6.5490012  54.8564997  -0.7530012   7.3160012  54.3974997  -0.4120012
   6.5270012  54.6304997  -1.6830012   6.6511434  54.7630409  -0.8319957
  10.6410012  54.3644997 -19.3780012   9.9970012  53.7334997 -19.0570012
  11.4030012  53.8334997 -19.6100012  10.6558077  54.2062920 -19.3653989
  13.1260012  53.2364997  -2.0240012  12.7750012  52.3804997  -1.7810012
  13.8520012  53.3794997  -1.4170012  13.1760769  53.1385636  -1.9086381
  15.2450012  54.1814997 -19.1440012  15.5280012  53.3874997 -18.6920012
  15.9850012  54.4144997 -19.7050012  15.3837486  54.1042803 -19.1579302
   1.8580012  49.7474997  -1.4190012   2.0020012  48.8454997  -1.7060012
   1.0860012  50.0334997  -1.9070012   1.7733322  49.6628261  -1.5242119
   6.2000012  50.0914997 -19.2870012   6.2640012  49.2974997 -18.7560012
   6.8530012  49.9724997 -19.9770012   6.2970241  49.9667148 -19.3075683
   8.5140012  49.7174997  -1.9870012   8.1850012  49.9884997  -2.8440012
   8.6660012  48.7764997  -2.0740012   8.4894809  49.6273862  -2.1161756
  14.2480012  49.6334997  -4.6030012  14.9940012  50.2214997  -4.7230012
  13.4910012  50.2154997  -4.5400012  14.2477554  49.7927011  -4.6109093
   2.6910012  46.9474997  -1.9990012   3.0990012  46.0904997  -2.1200012
   2.4310012  46.9624997  -1.0780012   2.7117568  46.8320807  -1.8910412
   7.3490012  48.0634997 -16.9810012   6.8890012  47.5794997 -16.2950012
   7.6040012  47.3954997 -17.6170012   7.3204902  47.9068731 -16.9730666
   6.6380012  45.9564997  -4.6250012   6.0200012  46.6314997  -4.3450012
   6.9820012  46.2774997  -5.4580012   6.5999615  46.0922721  -4.6993419
   8.4200012  46.3064997 -18.7190012   8.2400012  46.1524997 -19.6460012
   9.3700012  46.4144997 -18.6740012   8.5237776  46.3000175 -18.8398157
  11.6580012  48.4284997  -1.3480012  12.6110012  48.5114997  -1.3750012
  11.4970012  47.7164997  -0.7280012  11.7666426  48.3436746  -1.2679421
  17.8100012  48.6614997 -19.2730012  17.5360012  48.2364997 -20.0860012
  17.8490012  49.5924997 -19.4900012  17.7777699  48.7292484 -19.4136390
   6.9770012  43.3114997  -3.5430012   7.1270012  42.5824997  -4.1450012
   6.9800012  44.0884997  -4.1020012   6.9979302  43.3167851  -3.7009308
   7.3900012  41.6814997  -6.0500012   7.9260012  42.1324997  -6.7020012
   6.5380012  41.5734997  -6.4730012   7.3482178  41.7286390  -6.1964244
   8.9720012  47.1204997  -5.8110012   9.7220012  46.9644997  -6.3840012
   8.6330012  47.9724997  -6.0860012   9.0288921  47.2142968  -5.9266439
  13.3870012  44.9354997  -0.7820012  13.5800012  44.0044997  -0.8940012
  14.2450012  45.3604997  -0.7920012  13.5293020  44.8656389  -0.7986639
  14.7040012  47.7244997  -2.7050012  14.4230012  48.4334997  -3.2820012
  15.6470012  47.6514997  -2.8560012  14.7929027  47.8117646  -2.8044449
   5.4560012  44.5094997  -1.6310012   4.6890012  43.9774997  -1.8410012
   6.1350012  44.1994997  -2.2310012   5.4427022  44.3947506  -1.7408352
   8.1960012  39.1374997  -5.6190012   8.0970012  40.0844997  -5.7240012
   7.4530012  38.7654997  -6.0940012   8.0820564  39.2165902  -5.6975440
   9.4600012  43.4594997  -2.0550012   9.2240012  43.2394997  -1.1530012
   8.6760012  43.2524997  -2.5650012   9.3218628  43.4014760  -2.0006068
  12.1750012  42.5864997  -2.9790012  11.2280012  42.6184997  -2.8470012
  12.4880012  41.9614997  -2.3260012  12.0875475  42.5063207  -2.8725545
  13.8090012  41.2204997  -0.9740012  13.7130012  40.2684997  -0.9800012
  13.4880012  41.4894997  -0.1140012  13.7524070  41.1264035  -0.8584559
   3.6360012  42.4304997  -1.9270012   3.8480012  41.7234997  -2.5370012
   3.5250012  41.9924997  -1.0830012   3.6499721  42.2747084  -1.8963157
   8.4170012  38.4314997  -2.9470012   9.1290012  37.7914997  -2.9610012
   8.3160012  38.6984997  -3.8610012   8.5007939  38.3799938  -3.0724350
   8.7710012  40.1144997  -0.8940012   8.6390012  39.6384997  -1.7140012
   8.1720012  40.8584997  -0.9490012   8.6719071  40.1499618  -1.0137114
   8.3170012  56.9974997 -17.7170012   9.2500012  57.1554997 -17.5740012
   8.0530012  57.6724997 -18.3420012   8.4089510  57.1103611 -17.7819259
   1.8860012  51.6334997 -18.2350012   2.8000012  51.7124997 -17.9610012
   1.8930012  50.9464997 -18.9010012   2.0121131  51.5513961 -18.2875607
   0.5350012  57.0264997 -13.1570012  -0.1119988  56.5644997 -13.6900012
   0.8890012  56.3544997 -12.5750012   0.4943849  56.8724723 -13.1512041
   1.4050012  55.1074997 -11.3530012   1.0700012  54.2274997 -11.1810012
   1.6270012  55.4524997 -10.4880012   1.3891783  55.0337500 -11.2125792
  18.9530012  55.9164997  -8.3720012  18.9320012  56.1014997  -7.4330012
  19.6440012  56.4854997  -8.7130012  19.0434618  56.0186606  -8.2896136
  18.5170012  55.4844997  -5.4500012  18.0290012  54.7484997  -5.8210012
  19.0660012  55.0904997  -4.7720012  18.5244872  55.3306249  -5.4090840
  16.9670012  51.2734997  -0.8120012  16.1010012  51.1684997  -0.4180012
  17.3440012  52.0324997  -0.3660012  16.8993308  51.3616900  -0.6977607
  18.2680012  49.5304997 -15.2980012  19.1180012  49.9514997 -15.1710012
  18.2740012  48.7904997 -14.6910012  18.3851372  49.4880803 -15.1985656
  18.6630012  47.5834997 -13.4740012  17.9360012  47.1044997 -13.0770012
  19.2440012  47.7894997 -12.7420012  18.6419375  47.5457090 -13.3205871
  18.4220012  50.3684997  -8.5270012  19.2550012  49.9904997  -8.8070012
  18.5340012  51.3114997  -8.6460012  18.5512647  50.4442218  -8.5814513
  16.9080012  53.2464997  -6.2200012  16.2610012  53.5714997  -5.5940012
  16.3910012  52.8064997  -6.8940012  16.7494029  53.2315004  -6.2254173
  18.9310012  47.4844997 -17.0830012  18.4090012  47.8414997 -17.8020012
  18.8980012  48.1594997 -16.4050012  18.8551634  47.6245413 -17.0896855
  17.2800012  44.7244997 -18.5320012  17.3760012  45.3914997 -19.2130012
  17.1400012  43.9084997 -19.0140012  17.2742135  44.7054500 -18.6901509
  16.4490012  46.1044997 -12.9110012  16.2990012  45.1594997 -12.9320012
  16.0960012  46.3854997 -12.0680012  16.3806625  46.0130441 -12.7997654
   1.4850012  48.1824997  -8.9010012   1.6690012  48.1004997  -9.8370012
   2.3340012  48.0584997  -8.4770012   1.6250139  48.1545003  -8.9718545
  17.3060012  48.0744997  -3.2730012  17.8890012  47.3404997  -3.0810012
  17.8700012  48.8464997  -3.2260012  17.4619769  48.0784227  -3.2403841
  18.8020012  45.9774997  -2.5880012  17.9390012  45.5984997  -2.7540012
  19.4070012  45.2384997  -2.6620012  18.7655979  45.8258023  -2.6207183
  16.5270012  42.1324997 -19.4150012  17.1380012  41.7614997 -18.7780012
  15.6910012  41.7114997 -19.2190012  16.4975032  42.0247554 -19.3012965
  16.1600012  43.6874997 -14.4490012  16.4400012  42.7804997 -14.3250012
  16.9190012  44.1214997 -14.8380012  16.3009277  43.6220942 -14.4846318
  16.7720012  44.2684997  -9.0130012  17.7050012  44.4804997  -9.0470012
  16.5370012  44.3704997  -8.0910012  16.8678036  44.3112769  -8.8930024
  16.8010012  45.0054997  -6.2370012  15.9580012  45.2734997  -5.8710012
  17.2430012  45.8274997  -6.4480012  16.7454158  45.1533291  -6.2154509
   1.0820012  43.4534997  -2.7600012   2.0020012  43.3314997  -2.5240012
   0.6330012  42.7034997  -2.3710012   1.1471580  43.3353727  -2.6750994
  19.0840012  38.9854997  -0.8840012  19.4340012  38.3314997  -1.4890012
  19.2310012  39.8224997  -1.3230012  19.1518419  39.0091591  -1.0262882
  16.7730012  40.9504997 -14.4010012  16.9560012  40.5014997 -13.5750012
  16.1740012  40.3654997 -14.8640012  16.7170202  40.8099975 -14.3506725
   2.3030012  41.7654997  -9.8690012   2.7490012  40.9734997  -9.5670012
   2.7700012  42.4814997  -9.4380012   2.4270172  41.7540624  -9.7695180
   0.6070012  44.7644997  -8.8000012   1.0990012  44.5434997  -9.5910012
   0.9700012  45.6054997  -8.5190012   0.7233126  44.8478357  -8.8702469
  18.6040012  41.0944997  -2.5340012  17.6860012  41.3654997  -2.5700012
  18.7270012  40.5594997  -3.3190012  18.4951066  41.0592892  -2.6449513
  18.6400012  41.0174997 -17.8730012  19.0520012  40.2964997 -18.3480012
  19.3220012  41.6874997 -17.8140012  18.7885885  41.0092368 -17.9301085
   0.9210012  41.0224997 -14.7460012  -0.0039988  41.2314997 -14.8750012
   1.3750012  41.5064997 -15.4350012   0.8557368  41.1165993 -14.8568774
  15.6920012  56.0064997 -12.8000012  16.3440012  55.6594997 -13.4080012
  16.2020012  56.4954997 -12.1540012  15.8502637  56.0250597 -12.7959764
   0.8850012  39.7604997  -6.4010012   0.2200012  39.5144997  -5.7580012
   0.4420012  40.3824997  -6.9790012   0.7340956  39.8108632  -6.3910648
   3.0770012  52.9354997  -2.2570012   2.2560012  53.1104997  -2.7170012
   2.8240012  52.8624997  -1.3360012   2.9306164  52.9495622  -2.1955077
   6.0310012  53.9104997  -5.9980012   5.6060012  54.7194997  -6.2810012
   6.9350012  53.9954997  -6.3000012   6.0950271  54.0328469  -6.0776224
  10.3420012  55.3094997  -3.0390012  10.5270012  54.9754997  -2.1610012
  11.1880012  55.6184997  -3.3610012  10.4817539  55.3056047  -2.9624395
  12.6870012  56.5954997  -3.7950012  13.3640012  55.9624997  -4.0350012
  13.0090012  56.9964997  -2.9880012  12.8231637  56.5631154  -3.7187207
  17.6040012  39.1844997  -4.7150012  16.7920012  39.5094997  -5.1030012
  17.8370012  38.4244997  -5.2480012  17.5243423  39.1262436  -4.8401747
   3.4330012  57.1664997  -5.9510012   2.7120012  57.6064997  -6.4020012
   3.0670012  56.9154997  -5.1020012   3.2849804  57.1927698  -5.8980160
   5.9000012  56.7664997  -6.9210012   5.0350012  56.8384997  -6.5170012
   5.8450012  57.3134997  -7.7050012   5.7742085  56.8502685  -6.9716638
  10.6100012  56.6544997  -7.7460012  10.1540012  57.1834997  -8.4000012
  10.7730012  57.2574997  -7.0200012  10.5695585  56.8084468  -7.7374938
  12.9380012  55.5324997  -6.8010012  12.0330012  55.6974997  -7.0660012
  13.3670012  56.3854997  -6.8660012  12.8720799  55.6704483  -6.8460818
  15.5420012  57.1024997  -6.5060012  15.3600012  58.0184997  -6.7160012
  15.7190012  56.6924997  -7.3520012  15.5410210  57.1724822  -6.6492115
   2.8470012  55.7894997  -9.0410012   2.8290012  55.3644997  -8.1830012
   3.6520012  55.4714997  -9.4490012   2.9533875  55.6883812  -8.9788345
   4.9890012  54.4994997 -10.3860012   4.7700012  53.5834997 -10.2160012
   5.8130012  54.6394997  -9.9200012   5.0704420  54.3930520 -10.2997226
   7.5260012  54.9694997  -9.5370012   7.7390012  54.0814997  -9.8240012
   7.5900012  54.9354997  -8.5830012   7.5638231  54.8433102  -9.4472603
  11.0340012  40.6334997 -10.3930012  10.3600012  40.0044997 -10.1370012
  11.5980012  40.1494997 -10.9960012  11.0179230  40.4818744 -10.4394660
  16.1770012  38.7414997 -10.2800012  16.7810012  39.2884997 -10.7820012
  15.3070012  39.0604997 -10.5200012  16.1421241  38.8595806 -10.3812346
  17.9040012  39.8794997 -11.9470012  18.5160012  39.3654997 -12.4730012
  18.2860012  40.7574997 -11.9230012  18.0394540  39.9277140 -12.0158170
   3.3610012  39.2674997 -12.5710012   2.5840012  39.0334997 -13.0780012
   3.8910012  38.4704997 -12.5620012   3.3262330  39.1276988 -12.6392258
   2.1970012  39.0654997 -16.7670012   2.6360012  39.6764997 -17.3590012
   1.5640012  39.6034997 -16.2930012   2.1714514  39.2219257 -16.7839070
   7.9400012  39.1944997 -12.7570012   8.8150012  39.5824997 -12.7870012
   7.8040012  38.9794997 -11.8350012   8.0413695  39.2185184 -12.6363560
  13.4970012  39.2244997 -11.1080012  13.5730012  39.3194997 -12.0580012
  13.2220012  38.3164997 -10.9790012  13.4702321  39.1147867 -11.2204921
  14.8500012  39.2504997 -15.4160012  14.1480012  39.8654997 -15.6250012
  14.4060012  38.4124997 -15.2850012  14.6936330  39.2215783 -15.4269672
   2.0980012  55.0134997 -15.8690012   1.4130012  54.9754997 -16.5370012
   2.1020012  55.9264997 -15.5810012   2.0048193  55.1317016 -15.9214716
   4.0580012  40.9814997 -18.3250012   4.5500012  40.3514997 -18.8520012
   4.6820012  41.2774997 -17.6610012   4.2095446  40.9353199 -18.3074020
   9.0840012  41.2744997 -15.8680012   9.2620012  40.6284997 -15.1850012
   9.0310012  42.1084997 -15.4000012   9.1011829  41.2987985 -15.7114060
  10.9630012  56.2234997 -17.4720012  11.8290012  56.5894997 -17.6500012
  10.7160012  55.7834997 -18.2860012  11.0482392  56.2141756 -17.6063711
  17.6720012  55.7864997 -14.7930012  17.4770012  55.0384997 -15.3580012
  17.6330012  56.5444997 -15.3760012  17.6400380  55.7866099 -14.9491616
   3.3190012  39.7814997  -3.0530012   2.9530012  39.0164997  -2.6100012
   4.2320012  39.8104997  -2.7660012   3.3922790  39.6807224  -2.9535930
   5.2920012  39.1324997  -1.5170012   6.1900012  38.8584997  -1.7020012
   4.9050012  38.3894997  -1.0530012   5.3626612  38.9945914  -1.4796357
   3.9160012  55.9334997 -18.8440012   3.6490012  56.2204997 -17.9710012
   4.6880012  55.3874997 -18.6920012   3.9837488  55.8990294 -18.7038950
  13.7130012  38.4644997  -1.3350012  13.7900012  38.0384997  -0.4810012
  14.6070012  38.4784997  -1.6780012  13.8443428  38.4080879  -1.2644690
  16.8890012  54.5374997  -2.6430012  16.1070012  54.3514997  -3.1620012
  16.8170012  55.4664997  -2.4250012  16.7721777  54.6376492  -2.6845952
  31.2950012  48.4234997 -12.6120012  31.3840012  49.3674997 -12.7440012
  30.6570012  48.1484997 -13.2700012  31.2209081  48.5154830 -12.7190386
  30.2280012  47.6784997  -9.1930012  30.1900012  47.0324997  -8.4880012
  29.9060012  47.2124997  -9.9640012  30.1792333  47.5269408  -9.2007022
  22.5970012  47.2934997  -7.6000012  22.6380012  46.6674997  -6.8770012
  23.3000012  47.9174997  -7.4180012  22.6976363  47.2921196  -7.4763956
  33.9340012  50.6174997 -10.8920012  33.4940012  49.8974997 -10.4410012
  33.9210012  51.3384997 -10.2620012  33.8720226  50.6163731 -10.7451506
  23.5200012  51.7434997  -9.0650012  23.1510012  50.9414997  -9.4350012
  24.4610012  51.5744997  -9.0190012  23.5967289  51.6110153  -9.1093684
  20.1300012  45.4034997 -13.6720012  19.6830012  46.2494997 -13.6910012
  19.5690012  44.8234997 -14.1880012  19.9929900  45.4409916 -13.7443199
  20.8410012  47.5654997 -11.5460012  21.0540012  46.7954997 -11.0190012
  21.5790012  47.6544997 -12.1500012  20.9698496  47.4721394 -11.5554700
  31.0460012  55.7224997 -10.6790012  31.6660012  55.0454997 -10.9530012
  30.8380012  55.5044997  -9.7710012  31.1026904  55.6003870 -10.5936635
  28.6180012  50.1114997  -8.7870012  28.9220012  49.4254997  -9.3820012
  29.3390012  50.2294997  -8.1690012  28.7570671  50.0336305  -8.7848184
  37.2810012  41.7124997  -7.9260012  37.3300012  42.3224997  -7.1900012
  37.7060012  42.1734997  -8.6490012  37.3451824  41.8583741  -7.9229795
  31.7590012  44.5054997  -8.4590012  31.9010012  43.5594997  -8.4390012
  31.6520012  44.7124997  -9.3880012  31.7639864  44.4039534  -8.5817661
  24.9130012  42.6064997 -11.1870012  24.9570012  43.4664997 -11.6050012
  24.4560012  42.0544997 -11.8210012  24.8572185  42.6495799 -11.3299701
  32.6360012  42.7374997 -12.7860012  33.2820012  42.4084997 -12.1610012
  33.1460012  43.2554997 -13.4090012  32.7934264  42.7624611 -12.7846138
  21.5340012  45.0034997 -10.4250012  22.1870012  44.4534997  -9.9930012
  21.5580012  44.7294997 -11.3420012  21.6266683  44.8911466 -10.4897877
  26.6900012  46.5534997 -11.2100012  27.3060012  46.0274997 -10.7000012
  26.1040012  45.9134997 -11.6130012  26.6950810  46.3949208 -11.1946827
  37.6720012  43.1904997  -5.6900012  36.9840012  43.8484997  -5.7860012
  37.6880012  42.9934997  -4.7540012  37.5798525  43.2540462  -5.5765192
  23.7240012  41.5244997  -7.1130012  23.5050012  42.0544997  -7.8790012
  23.0560012  41.7514997  -6.4660012  23.6037600  41.6276906  -7.1303621
  31.0930012  51.0244997 -13.5690012  30.7970012  50.7024997 -14.4200012
  30.7680012  51.9244997 -13.5280012  31.0086371  51.1020215 -13.6798199
  26.2930012  49.2004997  -6.8260012  25.5530012  49.7984997  -6.7220012
  27.0070012  49.7544997  -7.1410012  26.2882237  49.3572831  -6.8543535
  34.4000012  42.0284997 -10.8060012  34.1840012  41.2624997 -10.2730012
  35.0550012  42.5004997 -10.2930012  34.4590632  41.9875889 -10.6637139
  23.3170012  43.4164997  -9.1610012  23.9310012  44.0494997  -8.7870012
  23.8290012  42.9444997  -9.8170012  23.4702296  43.4392370  -9.1985748
  24.7000012  51.1644997  -6.0380012  24.6950012  52.0444997  -6.4160012
  23.8470012  51.0814997  -5.6130012  24.5839464  51.2736117  -6.0322093
  20.8210012  50.8354997 -15.2560012  20.5490012  51.0644997 -16.1450012
  20.8670012  51.6734997 -14.7960012  20.7900094  50.9801213 -15.3154303
  34.4460012  52.4574997  -8.5440012  33.5050012  52.5154997  -8.3820012
  34.7230012  53.3634997  -8.6810012  34.3544679  52.5879443  -8.5403185
  34.7470012  40.7434997  -7.1260012  34.0110012  41.3544997  -7.1640012
  35.4300012  41.1584997  -7.6530012  34.7386541  40.8831374  -7.2024168
  27.7500012  38.8304997  -9.6600012  27.6330012  37.8814997  -9.7150012
  26.8950012  39.1624997  -9.3870012  27.6183733  38.7455409  -9.6306103
  32.6980012  54.2384997 -11.9180012  33.1240012  53.5314997 -12.4030012
  33.0150012  55.0394997 -12.3350012  32.7991019  54.2500994 -12.0406870
  33.8580012  52.1394997 -13.4100012  33.6000012  51.4494997 -14.0210012
  33.9290012  51.6964997 -12.5640012  33.8322856  51.9852124 -13.3793115
  35.5440012  50.7054997  -4.9320012  35.6840012  50.1144997  -5.6720012
  35.7110012  51.5784997  -5.2890012  35.5856778  50.7426426  -5.0813035
  30.0170012  47.6674997 -15.1600012  29.3050012  48.2024997 -15.5120012
  30.7080012  47.7234997 -15.8200012  30.0130132  47.7482543 -15.2973711
  30.0700012  46.1254997 -18.1210012  30.7710012  46.1474997 -17.4700012
  30.3730012  45.4974997 -18.7770012  30.2067830  46.0436566 -18.1206289
  37.3860012  47.0454997  -6.8660012  36.7330012  47.7404997  -6.7770012
  37.8510012  47.2554997  -7.6760012  37.3595390  47.1689425  -6.9633117
  33.4220012  47.8774997 -14.2080012  32.6900012  48.1054997 -13.6350012
  33.8700012  47.1634997 -13.7530012  33.3823095  47.8122571 -14.0680881
  33.3200012  46.0514997  -5.1410012  33.4000012  46.8144997  -4.5690012
  32.7180012  46.3304997  -5.8310012  33.2495756  46.1937134  -5.1559411
  25.0680012  48.5074997 -12.3260012  24.7370012  48.1374997 -13.1440012
  25.6560012  47.8374997 -11.9790012  25.1021873  48.3661156 -12.3911898
  26.4340012  51.9354997  -9.6440012  26.3400012  51.3574997 -10.4010012
  27.1640012  51.5644997  -9.1480012  26.5197981  51.8062390  -9.6805835
  25.4340012  47.2764997  -8.6920012  26.0000012  47.3974997  -9.4550012
  25.7530012  47.9134997  -8.0530012  25.5545786  47.3791884  -8.7099960
  31.7430012  52.7794997  -7.9580012  31.5030012  53.4414997  -7.3100012
  31.5450012  51.9454997  -7.5330012  31.6833808  52.7573134  -7.8118476
  26.3140012  51.6754997  -3.9750012  26.0030012  52.4574997  -3.5200012
  25.6640012  51.5224997  -4.6610012  26.1835558  51.7619105  -4.0054129
  32.2930012  47.0394997 -16.5230012  32.8730012  47.1894997 -15.7760012
  32.7070012  47.5104997 -17.2460012  32.4282831  47.1236841 -16.5185866
  23.2340012  47.8734997  -4.7460012  23.3050012  48.5244997  -4.0480012
  22.3440012  47.9764997  -5.0810012  23.1233117  47.9765936  -4.6957300
  30.0200012  53.7764997 -13.0880012  30.4940012  54.0714997 -12.3100012
  29.4570012  54.5144997 -13.3210012  30.0087653  53.9166932 -13.0129864
  24.5540012  53.7474997  -3.2120012  24.5610012  53.6114997  -4.1590012
  23.6380012  53.6294997  -2.9600012  24.4311714  53.7129430  -3.3075334
  35.9920012  38.7894997 -16.7100012  35.0920012  38.9284997 -16.4150012
  36.2440012  39.6204997 -17.1120012  35.9028702  38.9209074 -16.7239795
  24.0580012  47.5774997 -14.7360012  23.7660012  48.3454997 -15.2270012
  23.3840012  46.9174997 -14.8990012  23.9269081  47.5934406 -14.8252660
  37.1810012  53.1554997 -18.3340012  37.2550012  54.0944997 -18.1630012
  38.0870012  52.8504997 -18.3900012  37.3135100  53.2426722 -18.3181881
  20.1510012  49.9404997  -5.9210012  19.6500012  49.9124997  -6.7360012
  20.1560012  49.0344997  -5.6120012  20.0831526  49.8142278  -5.9907128
  19.9010012  52.7204997  -9.0370012  20.8470012  52.5764997  -9.0560012
  19.7890012  53.5044997  -8.5000012  20.0152727  52.8068046  -8.9669928
  38.0990012  53.3864997  -3.3550012  38.0500012  52.4314997  -3.3920012
  37.2720012  53.6544997  -2.9540012  37.9804940  53.2918998  -3.3058625
  29.0780012  52.9604997  -4.4790012  29.1650012  53.7864997  -4.0040012
  28.2140012  52.6304997  -4.2300012  28.9731964  53.0289878  -4.3803451
  29.4920012  56.7324997 -14.6730012  29.4170012  56.6114997 -15.6190012
  29.5250012  57.6824997 -14.5540012  29.4861848  56.8442500 -14.7865166
  23.1450012  55.5214997 -12.8920012  23.2980012  55.1734997 -12.0130012
  22.2950012  55.1654997 -13.1470012  23.0508962  55.4256650 -12.8061660
  32.5940012  55.8864997 -17.6710012  32.9690012  55.1424997 -18.1410012
  32.5980012  55.6164997 -16.7520012  32.6458915  55.7481486 -17.6112176
  32.2630012  55.8124997 -14.9210012  31.3270012  55.9124997 -14.7430012
  32.5430012  55.1034997 -14.3430012  32.1728255  55.7302711 -14.8184609
  35.2510012  44.8794997  -2.8750012  34.8440012  45.3604997  -3.5960012
  35.2920012  43.9744997  -3.1830012  35.2008437  44.8229374  -3.0153317
  22.4000012  51.2634997  -4.8780012  22.6160012  50.9024997  -4.0190012
  21.5450012  50.8894997  -5.0880012  22.3139292  51.1634111  -4.7886614
  25.0190012  39.7334997  -8.8830012  24.1570012  39.6464997  -9.2900012
  24.9960012  40.5894997  -8.4550012  24.8980330  39.8372765  -8.8808137
  29.6820012  39.4554997  -5.5080012  30.1020012  39.0404997  -4.7550012
  28.7490012  39.2774997  -5.3910012  29.6133644  39.3745900  -5.3890461
  33.0080012  43.2114997  -4.6550012  32.4940012  43.0854997  -3.8570012
  32.8530012  44.1234997  -4.8990012  32.9166852  43.3176132  -4.5787842
  33.7710012  48.0724997 -18.8930012  33.8130012  47.8494997 -19.8230012
  34.6200012  48.4714997 -18.7030012  33.8915396  48.0959155 -18.9946373
  29.3430012  41.9484997 -18.2230012  29.0900012  41.9674997 -17.3000012
  29.0870012  41.0764997 -18.5240012  29.2737790  41.8332437 -18.1373737
  25.1100012  44.6994997  -7.7880012  24.4680012  44.6584997  -7.0790012
  25.1470012  45.6254997  -8.0250012  25.0271324  44.8191559  -7.7230176
  25.1070012  44.9204997 -12.8760012  24.2140012  44.5794997 -12.9340012
  25.5570012  44.5434997 -13.6310012  25.0457305  44.8228484 -12.9860823
  30.6420012  45.3364997 -14.0590012  30.2330012  46.1514997 -14.3500012
  31.3630012  45.1964997 -14.6730012  30.6834537  45.4292018 -14.1818658
  29.7440012  45.5114997  -2.5710012  29.1820012  44.8074997  -2.2500012
  30.5710012  45.3914997  -2.1030012  29.7787095  45.3987883  -2.4637670
  31.6470012  44.7824997 -11.2450012  31.4520012  45.3874997 -11.9600012
  31.8280012  43.9484997 -11.6790012  31.6447614  44.7526300 -11.4015595
  22.8600012  45.0194997  -5.9210012  22.8220012  45.4194997  -5.0520012
  22.3690012  44.2024997  -5.8300012  22.7884684  44.9638069  -5.7898941
  26.2260012  42.3934997 -19.1220012  25.7950012  41.9484997 -18.3920012
  25.5080012  42.7654997 -19.6340012  26.0699438  42.3828940 -19.0913201
  19.4680012  42.1354997 -12.0700012  20.0990012  42.1064997 -11.3510012
  19.9170012  41.7104997 -12.8000012  19.6150774  42.0740492 -12.0703447
  20.7420012  42.8814997 -16.6460012  21.2160012  43.4724997 -17.2310012
  20.0250012  43.4124997 -16.2990012  20.7099341  43.0340867 -16.6791164
  30.9110012  46.4204997  -6.5730012  31.2340012  45.7894997  -7.2160012
  30.4710012  45.8854997  -5.9130012  30.8956895  46.2618441  -6.5717150
  27.6880012  42.3474997 -11.7890012  26.7770012  42.4044997 -11.5010012
  28.1940012  42.2874997 -10.9790012  27.6315413  42.3471985 -11.6399378
  22.5170012  43.9764997 -12.9630012  21.6270012  44.0764997 -13.3030012
  22.8130012  43.1344997 -13.3090012  22.4352823  43.8763545 -13.0562787
  26.1700012  43.9764997 -15.3060012  27.1010012  44.1054997 -15.1280012
  25.9550012  44.6464997 -15.9560012  26.2684247  44.0846565 -15.3694253
  32.0930012  41.5824997  -8.5250012  31.4170012  41.7134997  -7.8610012
  31.6080012  41.4274997  -9.3350012  31.9347145  41.5794905  -8.5435483
  24.8440012  45.1714997 -17.7390012  24.3010012  44.7914997 -18.4310012
  25.6770012  45.3654997 -18.1680012  24.8824399  45.1458124 -17.8915474
  35.3810012  57.2544997  -2.2480012  35.5810012  57.6784997  -3.0830012
  36.0360012  57.5974997  -1.6410012  35.4970051  57.3589648  -2.2802164
  22.9790012  49.7284997  -2.6400012  23.7110012  49.9824997  -2.0790012
  22.1990012  49.9324997  -2.1250012  22.9738232  49.7909177  -2.4934240
  29.0080012  45.1354997  -9.9020012  29.5730012  44.5884997 -10.4490012
  28.8610012  44.6134997  -9.1140012  29.0652918  44.9902024  -9.8701546
  24.0100012  41.2714997 -13.4840012  23.6930012  40.3694997 -13.5190012
  24.7920012  41.2734997 -14.0370012  24.0722284  41.1481628 -13.5635217
  27.6350012  43.5234997  -7.4880012  26.7990012  43.9774997  -7.3780012
  28.1590012  43.7994997  -6.7360012  27.5914414  43.6229376  -7.3712864
  28.1790012  49.7364997 -15.8040012  27.4340012  49.2294997 -16.1260012
  28.0450012  49.7854997 -14.8570012  28.0588776  49.6736940 -15.7201353
  35.3290012  48.8694997  -7.0170012  35.9710012  49.3264997  -7.5610012
  34.4990012  48.9824997  -7.4800012  35.3045963  48.9472704  -7.1539823
  32.0770012  42.5504997 -17.6040012  31.1380012  42.6624997 -17.7560012
  32.3740012  43.4074997 -17.2980012  31.9887666  42.6816443 -17.5834232
  29.6980012  49.9204997  -4.5670012  29.3530012  49.5394997  -3.7600012
  29.4980012  50.8544997  -4.4950012  29.6238061  49.9945228  -4.4469039
  32.7950012  44.4174997 -15.9440012  33.6870012  44.2804997 -15.6250012
  32.8520012  45.2084997 -16.4800012  32.9246285  44.5056660 -15.9728310
  23.3040012  49.0314997 -10.0340012  24.0490012  49.0294997 -10.6350012
  23.3820012  48.2084997  -9.5520012  23.4165518  48.9199315 -10.0511071
  30.3050012  51.1954997 -16.7780012  30.0090012  52.0214997 -16.3970012
  29.6020012  50.5754997 -16.5820012  30.1694914  51.2248199 -16.6993557
  20.3120012  47.4924997  -4.7190012  20.5350012  47.0744997  -3.8870012
  19.7100012  46.8794997  -5.1420012  20.2611759  47.3524668  -4.6622978
  27.3280012  47.0094997  -2.5060012  27.0320012  46.8434997  -3.4010012
  28.2600012  46.7894997  -2.5170012  27.4134166  46.9570640  -2.6299464
  31.9490012  52.3824997  -4.6160012  31.0480012  52.5654997  -4.8840012
  31.9830012  52.6414997  -3.6950012  31.8303041  52.4425512  -4.5281803
  37.6800012  44.6274997 -16.2490012  37.1260012  44.2314997 -16.9210012
  37.7800012  45.5374997 -16.5270012  37.6177059  44.6963586 -16.3785599
  37.6430012  50.4274997  -3.4120012  36.7920012  50.6654997  -3.7790012
  38.2340012  50.4104997  -4.1650012  37.6062487  50.4578258  -3.5641107
  35.9750012  53.4134997 -15.7840012  35.6020012  52.5874997 -15.4750012
  36.2530012  53.2304997 -16.6810012  35.9615630  53.2757303 -15.8630374
  33.1360012  48.2214997  -8.7630012  32.2070012  47.9894997  -8.7900012
  33.5870012  47.4444997  -9.0930012  33.0699216  48.0847238  -8.8113083
  25.6790012  52.5494997 -12.6300012  26.2060012  53.3224997 -12.8300012
  24.7990012  52.7744997 -12.9310012  25.6321773  52.6858005 -12.6980990
  21.4340012  47.4114997 -18.0430012  22.0500012  48.0384997 -17.6630012
  20.5720012  47.7274997 -17.7710012  21.4017698  47.5399430 -17.9542817
  27.1060012  50.2124997 -13.0530012  26.8650012  51.1374997 -13.0120012
  26.3650012  49.7534997 -12.6570012  26.9728409  50.2771421 -12.9938623
  27.6210012  54.3614997  -6.7380012  27.9830012  55.2164997  -6.9720012
  28.1520012  54.0694997  -5.9980012  27.7424473  54.4391060  -6.6699145
  25.7890012  55.2344997 -13.5080012  24.8390012  55.3394997 -13.4570012
  26.1410012  56.0544997 -13.1630012  25.7064203  55.3598314 -13.4543350
  31.1650012  50.4604997  -7.0380012  30.7390012  50.2334997  -6.2110012
  31.7450012  49.7224997  -7.2200012  31.1851868  50.3295299  -6.9494170
  33.3680012  51.3894997 -17.9640012  33.7210012  51.0094997 -17.1590012
  32.4190012  51.2964997 -17.8770012  33.2880441  51.3249596 -17.8421441
  33.8230012  55.0124997  -4.5680012  33.2220012  54.4574997  -5.0640012
  34.1050012  55.6794997  -5.1940012  33.7788519  55.0266841  -4.7205048
  37.8710012  55.8694997 -17.7630012  38.6150012  56.4554997 -17.9030012
  37.1770012  56.4374997 -17.4290012  37.8790292  56.0265582 -17.7370039
  21.9460012  42.2454997  -5.1610012  21.0530012  42.5844997  -5.2290012
  21.8470012  41.3904997  -4.7430012  21.8104164  42.1762588  -5.1137765
  34.2340012  50.0624997 -15.7370012  33.9560012  49.3344997 -15.1810012
  35.1610012  50.1814997 -15.5320012  34.3213124  49.9788802 -15.6331155
  21.5970012  54.0504997  -6.7260012  21.8140012  53.1184997  -6.7570012
  21.8430012  54.3244997  -5.8430012  21.6599549  53.9600636  -6.6108237
  27.4590012  52.5014997 -19.5170012  27.6980012  51.7534997 -20.0640012
  27.1900012  52.1134997 -18.6840012  27.4553675  52.3466638 -19.4793135
  26.3960012  52.0714997 -17.0600012  26.5420012  51.5514997 -16.2700012
  26.3930012  52.9784997 -16.7540012  26.4155989  52.1228853 -16.9103912
  22.8490012  49.3244997 -16.5500012  22.1630012  49.6764997 -15.9830012
  23.3710012  50.0874997 -16.7970012  22.8256852  49.4758578 -16.5057882
  30.6800012  41.9864997  -6.2710012  31.3790012  42.0604997  -5.6210012
  30.2990012  41.1224997  -6.1170012  30.7241767  41.8797624  -6.1611678
  31.4650012  41.6384997 -15.1740012  31.6850012  42.1104997 -15.9770012
  32.0230012  42.0334997 -14.5040012  31.5704968  41.7564285 -15.1932669
  29.1330012  53.7694997 -16.3110012  28.3170012  54.2664997 -16.2590012
  29.6630012  54.2444997 -16.9510012  29.0929161  53.9017722 -16.3904044
  28.6650012  43.3664997 -14.3390012  29.4770012  43.8714997 -14.2930012
  28.4200012  43.2214997 -13.4250012  28.7430520  43.4160375 -14.2091483
  29.2000012  44.3524997  -5.1540012  29.3190012  44.9264997  -4.3970012
  29.8560012  43.6644997  -5.0400012  29.3049757  44.3381079  -5.0349175
  29.5480012  40.4474997 -13.4010012  29.2020012  41.0654997 -12.7560012
  30.2070012  40.9484997 -13.8820012  29.5897826  40.5995802 -13.3779029
  26.4720012  54.8134997 -16.3290012  26.6320012  55.6124997 -16.8300012
  26.2740012  55.1194997 -15.4440012  26.4671649  54.9644469 -16.2780185
  25.2060012  41.5104997 -16.7140012  25.1230012  42.3994997 -16.3670012
  26.0960012  41.2454997 -16.4820012  25.3149469  41.5961430 -16.6352374
  35.4050012  42.2594997  -4.3190012  34.4880012  42.5224997  -4.4070012
  35.7400012  42.2564997  -5.2160012  35.3249900  42.2950224  -4.4522081
  34.0070012  46.0104997 -10.2240012  33.2090012  45.5954997 -10.5520012
  34.4520012  45.3194997  -9.7330012  33.9579885  45.8603543 -10.2025111
  23.4650012  51.9384997 -17.6530012  24.0570012  52.6374997 -17.3770012
  23.9240012  51.5054997 -18.3730012  23.6081142  51.9757049 -17.7125170
  21.7810012  44.6024997 -18.5370012  21.7360012  45.5414997 -18.3590012
  20.8930012  44.3664997 -18.8070012  21.6548574  44.6991892 -18.5491088
  35.0930012  55.2664997  -8.6010012  34.9380012  55.9444997  -9.2580012
  36.0260012  55.3384997  -8.3980012  35.1978500  55.3690170  -8.6634881
  22.5890012  39.3844997  -9.8640012  22.3600012  39.4434997 -10.7920012
  22.1460012  38.5924997  -9.5580012  22.4978530  39.2855753  -9.9495214
  21.5190012  53.3244997 -13.7040012  20.6870012  53.7974997 -13.6760012
  22.0650012  53.8344997 -14.3020012  21.4789739  53.4581871 -13.7810284
  20.8070012  55.9374997  -2.3740012  21.3480012  55.7204997  -1.6140012
  20.3260012  55.1314997  -2.5630012  20.8159345  55.7989514  -2.2956924
  25.4050012  54.8564997  -0.7530012  26.1720012  54.3974997  -0.4120012
  25.3830012  54.6304997  -1.6830012  25.5071434  54.7630409  -0.8319957
  29.4970012  54.3644997 -19.3780012  28.8530012  53.7334997 -19.0570012
  30.2590012  53.8334997 -19.6100012  29.5118077  54.2062920 -19.3653989
  31.9820012  53.2364997  -2.0240012  31.6310012  52.3804997  -1.7810012
  32.7080012  53.3794997  -1.4170012  32.0320769  53.1385636  -1.9086381
  34.1010012  54.1814997 -19.1440012  34.3840012  53.3874997 -18.6920012
  34.8410012  54.4144997 -19.7050012  34.2397486  54.1042803 -19.1579302
  20.7140012  49.7474997  -1.4190012  20.8580012  48.8454997  -1.7060012
  19.9420012  50.0334997  -1.9070012  20.6293322  49.6628261  -1.5242119
  25.0560012  50.0914997 -19.2870012  25.1200012  49.2974997 -18.7560012
  25.7090012  49.9724997 -19.9770012  25.1530241  49.9667148 -19.3075683
  27.3700012  49.7174997  -1.9870012  27.0410012  49.9884997  -2.8440012
  27.5220012  48.7764997  -2.0740012  27.3454809  49.6273862  -2.1161756
  33.1040012  49.6334997  -4.6030012  33.8500012  50.2214997  -4.7230012
  32.3470012  50.2154997  -4.5400012  33.1037554  49.7927011  -4.6109093
  21.5470012  46.9474997  -1.9990012  21.9550012  46.0904997  -2.1200012
  21.2870012  46.9624997  -1.0780012  21.5677568  46.8320807  -1.8910412
  26.2050012  48.0634997 -16.9810012  25.7450012  47.5794997 -16.2950012
  26.4600012  47.3954997 -17.6170012  26.1764902  47.9068731 -16.9730666
  25.4940012  45.9564997  -4.6250012  24.8760012  46.6314997  -4.3450012
  25.8380012  46.2774997  -5.4580012  25.4559615  46.0922721  -4.6993419
  27.2760012  46.3064997 -18.7190012  27.0960012  46.1524997 -19.6460012
  28.2260012  46.4144997 -18.6740012  27.3797776  46.3000175 -18.8398157
  30.5140012  48.4284997  -1.3480012  31.4670012  48.5114997  -1.3750012
  30.3530012  47.7164997  -0.7280012  30.6226426  48.3436746  -1.2679422
  36.6660012  48.6614997 -19.2730012  36.3920012  48.2364997 -20.0860012
  36.7050012  49.5924997 -19.4900012  36.6337699  48.7292484 -19.4136390
  25.8330012  43.3114997  -3.5430012  25.9830012  42.5824997  -4.1450012
  25.8360012  44.0884997  -4.1020012  25.8539302  43.3167851  -3.7009308
  26.2460012  41.6814997  -6.0500012  26.7820012  42.1324997  -6.7020012
  25.3940012  41.5734997  -6.4730012  26.2042178  41.7286390  -6.1964244
  27.8280012  47.1204997  -5.8110012  28.5780012  46.9644997  -6.3840012
  27.4890012  47.9724997  -6.0860012  27.8848921  47.2142968  -5.9266439
  32.2430012  44.9354997  -0.7820012  32.4360012  44.0044997  -0.8940012
  33.1010012  45.3604997  -0.7920012  32.3853020  44.8656389  -0.7986639
  33.5600012  47.7244997  -2.7050012  33.2790012  48.4334997  -3.2820012
  34.5030012  47.6514997  -2.8560012  33.6489027  47.8117646  -2.8044449
  24.3120012  44.5094997  -1.6310012  23.5450012  43.9774997  -1.8410012
  24.9910012  44.1994997  -2.2310012  24.2987022  44.3947506  -1.7408352
  27.0520012  39.1374997  -5.6190012  26.9530012  40.0844997  -5.7240012
  26.3090012  38.7654997  -6.0940012  26.9380564  39.2165902  -5.6975440
  28.3160012  43.4594997  -2.0550012  28.0800012  43.2394997  -1.1530012
  27.5320012  43.2524997  -2.5650012  28.1778628  43.4014760  -2.0006068
  31.0310012  42.5864997  -2.9790012  30.0840012  42.6184997  -2.8470012
  31.3440012  41.9614997  -2.3260012  30.9435475  42.5063207  -2.8725545
  32.6650012  41.2204997  -0.9740012  32.5690012  40.2684997  -0.9800012
  32.3440012  41.4894997  -0.1140012  32.6084070  41.1264035  -0.8584559
  22.4920012  42.4304997  -1.9270012  22.7040012  41.7234997  -2.5370012
  22.3810012  41.9924997  -1.0830012  22.5059721  42.2747084  -1.8963157
  27.2730012  38.4314997  -2.9470012  27.9850012  37.7914997  -2.9610012
  27.1720012  38.6984997  -3.8610012  27.3567939  38.3799938  -3.0724350
  27.6270012  40.1144997  -0.8940012  27.4950012  39.6384997  -1.7140012
  27.0280012  40.8584997  -0.9490012  27.5279071  40.1499618  -1.0137114
  27.1730012  56.9974997 -17.7170012  28.1060012  57.1554997 -17.5740012
  26.9090012  57.6724997 -18.3420012  27.2649510  57.1103611 -17.7819259
  20.7420012  51.6334997 -18.2350012  21.6560012  51.7124997 -17.9610012
  20.7490012  50.9464997 -18.9010012  20.8681131  51.5513961 -18.2875607
  19.3910012  57.0264997 -13.1570012  18.7440012  56.5644997 -13.6900012
  19.7450012  56.3544997 -12.5750012  19.3503849  56.8724723 -13.1512041
  20.2610012  55.1074997 -11.3530012  19.9260012  54.2274997 -11.1810012
  20.4830012  55.4524997 -10.4880012  20.2451783  55.0337500 -11.2125792
  37.8090012  55.9164997  -8.3720012  37.7880012  56.1014997  -7.4330012
  38.5000012  56.4854997  -8.7130012  37.8994618  56.0186606  -8.2896136
  37.3730012  55.4844997  -5.4500012  36.8850012  54.7484997  -5.8210012
  37.9220012  55.0904997  -4.7720012  37.3804872  55.3306249  -5.4090840
  35.8230012  51.2734997  -0.8120012  34.9570012  51.1684997  -0.4180012
  36.2000012  52.0324997  -0.3660012  35.7553308  51.3616900  -0.6977607
  37.1240012  49.5304997 -15.2980012  37.9740012  49.9514997 -15.1710012
  37.1300012  48.7904997 -14.6910012  37.2411372  49.4880803 -15.1985656
  37.5190012  47.5834997 -13.4740012  36.7920012  47.1044997 -13.0770012
  38.1000012  47.7894997 -12.7420012  37.4979375  47.5457090 -13.3205871
  37.2780012  50.3684997  -8.5270012  38.1110012  49.9904997  -8.8070012
  37.3900012  51.3114997  -8.6460012  37.4072647  50.4442218  -8.5814513
  35.7640012  53.2464997  -6.2200012  35.1170012  53.5714997  -5.5940012
  35.2470012  52.8064997  -6.8940012  35.6054029  53.2315004  -6.2254173
  37.7870012  47.4844997 -17.0830012  37.2650012  47.8414997 -17.8020012
  37.7540012  48.1594997 -16.4050012  37.7111634  47.6245413 -17.0896855
  36.1360012  44.7244997 -18.5320012  36.2320012  45.3914997 -19.2130012
  35.9960012  43.9084997 -19.0140012  36.1302135  44.7054500 -18.6901509
  35.3050012  46.1044997 -12.9110012  35.1550012  45.1594997 -12.9320012
  34.9520012  46.3854997 -12.0680012  35.2366625  46.0130441 -12.7997654
  20.3410012  48.1824997  -8.9010012  20.5250012  48.1004997  -9.8370012
  21.1900012  48.0584997  -8.4770012  20.4810139  48.1545003  -8.9718545
  36.1620012  48.0744997  -3.2730012  36.7450012  47.3404997  -3.0810012
  36.7260012  48.8464997  -3.2260012  36.3179769  48.0784227  -3.2403841
  37.6580012  45.9774997  -2.5880012  36.7950012  45.5984997  -2.7540012
  38.2630012  45.2384997  -2.6620012  37.6215979  45.8258023  -2.6207183
  35.3830012  42.1324997 -19.4150012  35.9940012  41.7614997 -18.7780012
  34.5470012  41.7114997 -19.2190012  35.3535032  42.0247554 -19.3012965
  35.0160012  43.6874997 -14.4490012  35.2960012  42.7804997 -14.3250012
  35.7750012  44.1214997 -14.8380012  35.1569277  43.6220942 -14.4846318
  35.6280012  44.2684997  -9.0130012  36.5610012  44.4804997  -9.0470012
  35.3930012  44.3704997  -8.0910012  35.7238036  44.3112769  -8.8930024
  35.6570012  45.0054997  -6.2370012  34.8140012  45.2734997  -5.8710012
  36.0990012  45.8274997  -6.4480012  35.6014158  45.1533291  -6.2154509
  19.9380012  43.4534997  -2.7600012  20.8580012  43.3314997  -2.5240012
  19.4890012  42.7034997  -2.3710012  20.0031580  43.3353727  -2.6750994
  37.9400012  38.9854997  -0.8840012  38.2900012  38.3314997  -1.4890012
  38.0870012  39.8224997  -1.3230012  38.0078419  39.0091591  -1.0262882
  35.6290012  40.9504997 -14.4010012  35.8120012  40.5014997 -13.5750012
  35.0300012  40.3654997 -14.8640012  35.5730202  40.8099975 -14.3506725
  21.1590012  41.7654997  -9.8690012  21.6050012  40.9734997  -9.5670012
  21.6260012  42.4814997  -9.4380012  21.2830172  41.7540624  -9.7695180
  19.4630012  44.7644997  -8.8000012  19.9550012  44.5434997  -9.5910012
  19.8260012  45.6054997  -8.5190012  19.5793126  44.8478357  -8.8702469
  37.4600012  41.0944997  -2.5340012  36.5420012  41.3654997  -2.5700012
  37.5830012  40.5594997  -3.3190012  37.3511066  41.0592892  -2.6449513
  37.4960012  41.0174997 -17.8730012  37.9080012  40.2964997 -18.3480012
  38.1780012  41.6874997 -17.8140012  37.6445885  41.0092368 -17.9301085
  19.7770012  41.0224997 -14.7460012  18.8520012  41.2314997 -14.8750012
  20.2310012  41.5064997 -15.4350012  19.7117368  41.1165993 -14.8568774
  34.5480012  56.0064997 -12.8000012  35.2000012  55.6594997 -13.4080012
  35.0580012  56.4954997 -12.1540012  34.7062637  56.0250597 -12.7959764
  19.7410012  39.7604997  -6.4010012  19.0760012  39.5144997  -5.7580012
  19.2980012  40.3824997  -6.9790012  19.5900956  39.8108632  -6.3910648
  21.9330012  52.9354997  -2.2570012  21.1120012  53.1104997  -2.7170012
  21.6800012  52.8624997  -1.3360012  21.7866164  52.9495622  -2.1955077
  24.8870012  53.9104997  -5.9980012  24.4620012  54.7194997  -6.2810012
  25.7910012  53.9954997  -6.3000012  24.9510271  54.0328469  -6.0776224
  29.1980012  55.3094997  -3.0390012  29.3830012  54.9754997  -2.1610012
  30.0440012  55.6184997  -3.3610012  29.3377539  55.3056047  -2.9624395
  31.5430012  56.5954997  -3.7950012  32.2200012  55.9624997  -4.0350012
  31.8650012  56.9964997  -2.9880012  31.6791637  56.5631154  -3.7187207
  36.4600012  39.1844997  -4.7150012  35.6480012  39.5094997  -5.1030012
  36.6930012  38.4244997  -5.2480012  36.3803423  39.1262436  -4.8401747
  22.2890012  57.1664997  -5.9510012  21.5680012  57.6064997  -6.4020012
  21.9230012  56.9154997  -5.1020012  22.1409804  57.1927698  -5.8980160
  24.7560012  56.7664997  -6.9210012  23.8910012  56.8384997  -6.5170012
  24.7010012  57.3134997  -7.7050012  24.6302085  56.8502685  -6.9716638
  29.4660012  56.6544997  -7.7460012  29.0100012  57.1834997  -8.4000012
  29.6290012  57.2574997  -7.0200012  29.4255585  56.8084468  -7.7374938
  31.7940012  55.5324997  -6.8010012  30.8890012  55.6974997  -7.0660012
  32.2230012  56.3854997  -6.8660012  31.7280799  55.6704483  -6.8460818
  34.3980012  57.1024997  -6.5060012  34.2160012  58.0184997  -6.7160012
  34.5750012  56.6924997  -7.3520012  34.3970210  57.1724822  -6.6492115
  21.7030012  55.7894997  -9.0410012  21.6850012  55.3644997  -8.1830012
  22.5080012  55.4714997  -9.4490012  21.8093875  55.6883812  -8.9788345
  23.8450012  54.4994997 -10.3860012  23.6260012  53.5834997 -10.2160012
  24.6690012  54.6394997  -9.9200012  23.9264420  54.3930520 -10.2997226
  26.3820012  54.9694997  -9.5370012  26.5950012  54.0814997  -9.8240012
  26.4460012  54.9354997  -8.5830012  26.4198232  54.8433102  -9.4472603
  29.8900012  40.6334997 -10.3930012  29.2160012  40.0044997 -10.1370012
  30.4540012  40.1494997 -10.9960012  29.8739230  40.4818744 -10.4394660
  35.0330012  38.7414997 -10.2800012  35.6370012  39.2884997 -10.7820012
  34.1630012  39.0604997 -10.5200012  34.9981241  38.8595806 -10.3812346
  36.7600012  39.8794997 -11.9470012  37.3720012  39.3654997 -12.4730012
  37.1420012  40.7574997 -11.9230012  36.8954540  39.9277140 -12.0158170
  22.2170012  39.2674997 -12.5710012  21.4400012  39.0334997 -13.0780012
  22.7470012  38.4704997 -12.5620012  22.1822330  39.1276988 -12.6392258
  21.0530012  39.0654997 -16.7670012  21.4920012  39.6764997 -17.3590012
  20.4200012  39.6034997 -16.2930012  21.0274514  39.2219257 -16.7839070
  26.7960012  39.1944997 -12.7570012  27.6710012  39.5824997 -12.7870012
  26.6600012  38.9794997 -11.8350012  26.8973695  39.2185184 -12.6363560
  32.3530012  39.2244997 -11.1080012  32.4290012  39.3194997 -12.0580012
  32.0780012  38.3164997 -10.9790012  32.3262321  39.1147867 -11.2204921
  33.7060012  39.2504997 -15.4160012  33.0040012  39.8654997 -15.6250012
  33.2620012  38.4124997 -15.2850012  33.5496330  39.2215783 -15.4269672
  20.9540012  55.0134997 -15.8690012  20.2690012  54.9754997 -16.5370012
  20.9580012  55.9264997 -15.5810012  20.8608193  55.1317016 -15.9214716
  22.9140012  40.9814997 -18.3250012  23.4060012  40.3514997 -18.8520012
  23.5380012  41.2774997 -17.6610012  23.0655446  40.9353199 -18.3074020
  27.9400012  41.2744997 -15.8680012  28.1180012  40.6284997 -15.1850012
  27.8870012  42.1084997 -15.4000012  27.9571829  41.2987985 -15.7114060
  29.8190012  56.2234997 -17.4720012  30.6850012  56.5894997 -17.6500012
  29.5720012  55.7834997 -18.2860012  29.9042392  56.2141756 -17.6063711
  36.5280012  55.7864997 -14.7930012  36.3330012  55.0384997 -15.3580012
  36.4890012  56.5444997 -15.3760012  36.4960380  55.7866099 -14.9491616
  22.1750012  39.7814997  -3.0530012  21.8090012  39.0164997  -2.6100012
  23.0880012  39.8104997  -2.7660012  22.2482790  39.6807224  -2.9535930
  24.1480012  39.1324997  -1.5170012  25.0460012  38.8584997  -1.7020012
  23.7610012  38.3894997  -1.0530012  24.2186612  38.9945914  -1.4796357
  22.7720012  55.9334997 -18.8440012  22.5050012  56.2204997 -17.9710012
  23.5440012  55.3874997 -18.6920012  22.8397488  55.8990294 -18.7038950
  32.5690012  38.4644997  -1.3350012  32.6460012  38.0384997  -0.4810012
  33.4630012  38.4784997  -1.6780012  32.7003428  38.4080879  -1.2644690
  35.7450012  54.5374997  -2.6430012  34.9630012  54.3514997  -3.1620012
  35.6730012  55.4664997  -2.4250012  35.6281777  54.6376492  -2.6845952
  50.1510012  48.4234997 -12.6120012  50.2400012  49.3674997 -12.7440012
  49.5130012  48.1484997 -13.2700012  50.0769081  48.5154830 -12.7190386
  49.0840012  47.6784997  -9.1930012  49.0460012  47.0324997  -8.4880012
  48.7620012  47.2124997  -9.9640012  49.0352333  47.5269408  -9.2007022
  41.4530012  47.2934997  -7.6000012  41.4940012  46.6674997  -6.8770012
  42.1560012  47.9174997  -7.4180012  41.5536363  47.2921196  -7.4763956
  52.7900012  50.6174997 -10.8920012  52.3500012  49.8974997 -10.4410012
  52.7770012  51.3384997 -10.2620012  52.7280226  50.6163731 -10.7451506
  42.3760012  51.7434997  -9.0650012  42.0070012  50.9414997  -9.4350012
  43.3170012  51.5744997  -9.0190012  42.4527289  51.6110153  -9.1093684
  38.9860012  45.4034997 -13.6720012  38.5390012  46.2494997 -13.6910012
  38.4250012  44.8234997 -14.1880012  38.8489900  45.4409916 -13.7443199
  39.6970012  47.5654997 -11.5460012  39.9100012  46.7954997 -11.0190012
  40.4350012  47.6544997 -12.1500012  39.8258496  47.4721394 -11.5554700
  49.9020012  55.7224997 -10.6790012  50.5220012  55.0454997 -10.9530012
  49.6940012  55.5044997  -9.7710012  49.9586904  55.6003870 -10.5936635
  47.4740012  50.1114997  -8.7870012  47.7780012  49.4254997  -9.3820012
  48.1950012  50.2294997  -8.1690012  47.6130671  50.0336305  -8.7848184
  56.1370012  41.7124997  -7.9260012  56.1860012  42.3224997  -7.1900012
  56.5620012  42.1734997  -8.6490012  56.2011824  41.8583741  -7.9229795
  50.6150012  44.5054997  -8.4590012  50.7570012  43.5594997  -8.4390012
  50.5080012  44.7124997  -9.3880012  50.6199864  44.4039534  -8.5817661
  43.7690012  42.6064997 -11.1870012  43.8130012  43.4664997 -11.6050012
  43.3120012  42.0544997 -11.8210012  43.7132185  42.6495799 -11.3299701
  51.4920012  42.7374997 -12.7860012  52.1380012  42.4084997 -12.1610012
  52.0020012  43.2554997 -13.4090012  51.6494264  42.7624611 -12.7846138
  40.3900012  45.0034997 -10.4250012  41.0430012  44.4534997  -9.9930012
  40.4140012  44.7294997 -11.3420012  40.4826683  44.8911466 -10.4897877
  45.5460012  46.5534997 -11.2100012  46.1620012  46.0274997 -10.7000012
  44.9600012  45.9134997 -11.6130012  45.5510810  46.3949208 -11.1946827
  56.5280012  43.1904997  -5.6900012  55.8400012  43.8484997  -5.7860012
  56.5440012  42.9934997  -4.7540012  56.4358525  43.2540462  -5.5765192
  42.5800012  41.5244997  -7.1130012  42.3610012  42.0544997  -7.8790012
  41.9120012  41.7514997  -6.4660012  42.4597600  41.6276906  -7.1303621
  49.9490012  51.0244997 -13.5690012  49.6530012  50.7024997 -14.4200012
  49.6240012  51.9244997 -13.5280012  49.8646371  51.1020215 -13.6798199
  45.1490012  49.2004997  -6.8260012  44.4090012  49.7984997  -6.7220012
  45.8630012  49.7544997  -7.1410012  45.1442237  49.3572831  -6.8543535
  53.2560012  42.0284997 -10.8060012  53.0400012  41.2624997 -10.2730012
  53.9110012  42.5004997 -10.2930012  53.3150632  41.9875889 -10.6637139
  42.1730012  43.4164997  -9.1610012  42.7870012  44.0494997  -8.7870012
  42.6850012  42.9444997  -9.8170012  42.3262296  43.4392370  -9.1985748
  43.5560012  51.1644997  -6.0380012  43.5510012  52.0444997  -6.4160012
  42.7030012  51.0814997  -5.6130012  43.4399464  51.2736117  -6.0322093
  39.6770012  50.8354997 -15.2560012  39.4050012  51.0644997 -16.1450012
  39.7230012  51.6734997 -14.7960012  39.6460094  50.9801213 -15.3154303
  53.3020012  52.4574997  -8.5440012  52.3610012  52.5154997  -8.3820012
  53.5790012  53.3634997  -8.6810012  53.2104679  52.5879443  -8.5403185
  53.6030012  40.7434997  -7.1260012  52.8670012  41.3544997  -7.1640012
  54.2860012  41.1584997  -7.6530012  53.5946541  40.8831374  -7.2024168
  46.6060012  38.8304997  -9.6600012  46.4890012  37.8814997  -9.7150012
  45.7510012  39.1624997  -9.3870012  46.4743733  38.7455409  -9.6306103
  51.5540012  54.2384997 -11.9180012  51.9800012  53.5314997 -12.4030012
  51.8710012  55.0394997 -12.3350012  51.6551019  54.2500994 -12.0406870
  52.7140012  52.1394997 -13.4100012  52.4560012  51.4494997 -14.0210012
  52.7850012  51.6964997 -12.5640012  52.6882856  51.9852124 -13.3793115
  54.4000012  50.7054997  -4.9320012  54.5400012  50.1144997  -5.6720012
  54.5670012  51.5784997  -5.2890012  54.4416778  50.7426426  -5.0813035
  48.8730012  47.6674997 -15.1600012  48.1610012  48.2024997 -15.5120012
  49.5640012  47.7234997 -15.8200012  48.8690132  47.7482543 -15.2973711
  48.9260012  46.1254997 -18.1210012  49.6270012  46.1474997 -17.4700012
  49.2290012  45.4974997 -18.7770012  49.0627830  46.0436566 -18.1206289
  56.2420012  47.0454997  -6.8660012  55.5890012  47.7404997  -6.7770012
  56.7070012  47.2554997  -7.6760012  56.2155390  47.1689425  -6.9633117
  52.2780012  47.8774997 -14.2080012  51.5460012  48.1054997 -13.6350012
  52.7260012  47.1634997 -13.7530012  52.2383095  47.8122571 -14.0680881
  52.1760012  46.0514997  -5.1410012  52.2560012  46.8144997  -4.5690012
  51.5740012  46.3304997  -5.8310012  52.1055756  46.1937134  -5.1559411
  43.9240012  48.5074997 -12.3260012  43.5930012  48.1374997 -13.1440012
  44.5120012  47.8374997 -11.9790012  43.9581873  48.3661156 -12.3911898
  45.2900012  51.9354997  -9.6440012  45.1960012  51.3574997 -10.4010012
  46.0200012  51.5644997  -9.1480012  45.3757981  51.8062390  -9.6805835
  44.2900012  47.2764997  -8.6920012  44.8560012  47.3974997  -9.4550012
  44.6090012  47.9134997  -8.0530012  44.4105786  47.3791884  -8.7099960
  50.5990012  52.7794997  -7.9580012  50.3590012  53.4414997  -7.3100012
  50.4010012  51.9454997  -7.5330012  50.5393808  52.7573134  -7.8118476
  45.1700012  51.6754997  -3.9750012  44.8590012  52.4574997  -3.5200012
  44.5200012  51.5224997  -4.6610012  45.0395558  51.7619105  -4.0054129
  51.1490012  47.0394997 -16.5230012  51.7290012  47.1894997 -15.7760012
  51.5630012  47.5104997 -17.2460012  51.2842830  47.1236841 -16.5185866
  42.0900012  47.8734997  -4.7460012  42.1610012  48.5244997  -4.0480012
  41.2000012  47.9764997  -5.0810012  41.9793117  47.9765936  -4.6957300
  48.8760012  53.7764997 -13.0880012  49.3500012  54.0714997 -12.3100012
  48.3130012  54.5144997 -13.3210012  48.8647653  53.9166932 -13.0129864
  43.4100012  53.7474997  -3.2120012  43.4170012  53.6114997  -4.1590012
  42.4940012  53.6294997  -2.9600012  43.2871714  53.7129430  -3.3075334
  54.8480012  38.7894997 -16.7100012  53.9480012  38.9284997 -16.4150012
  55.1000012  39.6204997 -17.1120012  54.7588702  38.9209074 -16.7239795
  42.9140012  47.5774997 -14.7360012  42.6220012  48.3454997 -15.2270012
  42.2400012  46.9174997 -14.8990012  42.7829081  47.5934406 -14.8252660
  56.0370012  53.1554997 -18.3340012  56.1110012  54.0944997 -18.1630012
  56.9430012  52.8504997 -18.3900012  56.1695100  53.2426722 -18.3181881
  39.0070012  49.9404997  -5.9210012  38.5060012  49.9124997  -6.7360012
  39.0120012  49.0344997  -5.6120012  38.9391526  49.8142278  -5.9907128
  38.7570012  52.7204997  -9.0370012  39.7030012  52.5764997  -9.0560012
  38.6450012  53.5044997  -8.5000012  38.8712727  52.8068046  -8.9669928
  56.9550012  53.3864997  -3.3550012  56.9060012  52.4314997  -3.3920012
  56.1280012  53.6544997  -2.9540012  56.8364940  53.2918998  -3.3058625
  47.9340012  52.9604997  -4.4790012  48.0210012  53.7864997  -4.0040012
  47.0700012  52.6304997  -4.2300012  47.8291964  53.0289878  -4.3803451
  48.3480012  56.7324997 -14.6730012  48.2730012  56.6114997 -15.6190012
  48.3810012  57.6824997 -14.5540012  48.3421848  56.8442500 -14.7865166
  42.0010012  55.5214997 -12.8920012  42.1540012  55.1734997 -12.0130012
  41.1510012  55.1654997 -13.1470012  41.9068962  55.4256650 -12.8061660
  51.4500012  55.8864997 -17.6710012  51.8250012  55.1424997 -18.1410012
  51.4540012  55.6164997 -16.7520012  51.5018915  55.7481486 -17.6112176
  51.1190012  55.8124997 -14.9210012  50.1830012  55.9124997 -14.7430012
  51.3990012  55.1034997 -14.3430012  51.0288255  55.7302711 -14.8184609
  54.1070012  44.8794997  -2.8750012  53.7000012  45.3604997  -3.5960012
  54.1480012  43.9744997  -3.1830012  54.0568437  44.8229374  -3.0153317
  41.2560012  51.2634997  -4.8780012  41.4720012  50.9024997  -4.0190012
  40.4010012  50.8894997  -5.0880012  41.1699292  51.1634111  -4.7886614
  43.8750012  39.7334997  -8.8830012  43.0130012  39.6464997  -9.2900012
  43.8520012  40.5894997  -8.4550012  43.7540330  39.8372765  -8.8808137
  48.5380012  39.4554997  -5.5080012  48.9580012  39.0404997  -4.7550012
  47.6050012  39.2774997  -5.3910012  48.4693644  39.3745900  -5.3890461
  51.8640012  43.2114997  -4.6550012  51.3500012  43.0854997  -3.8570012
  51.7090012  44.1234997  -4.8990012  51.7726852  43.3176132  -4.5787842
  52.6270012  48.0724997 -18.8930012  52.6690012  47.8494997 -19.8230012
  53.4760012  48.4714997 -18.7030012  52.7475396  48.0959155 -18.9946373
  48.1990012  41.9484997 -18.2230012  47.9460012  41.9674997 -17.3000012
  47.9430012  41.0764997 -18.5240012  48.1297790  41.8332437 -18.1373737
  43.9660012  44.6994997  -7.7880012  43.3240012  44.6584997  -7.0790012
  44.0030012  45.6254997  -8.0250012  43.8831324  44.8191559  -7.7230176
  43.9630012  44.9204997 -12.8760012  43.0700012  44.5794997 -12.9340012
  44.4130012  44.5434997 -13.6310012  43.9017305  44.8228484 -12.9860823
  49.4980012  45.3364997 -14.0590012  49.0890012  46.1514997 -14.3500012
  50.2190012  45.1964997 -14.6730012  49.5394537  45.4292018 -14.1818658
  48.6000012  45.5114997  -2.5710012  48.0380012  44.8074997  -2.2500012
  49.4270012  45.3914997  -2.1030012  48.6347095  45.3987883  -2.4637670
  50.5030012  44.7824997 -11.2450012  50.3080012  45.3874997 -11.9600012
  50.6840012  43.9484997 -11.6790012  50.5007614  44.7526300 -11.4015595
  41.7160012  45.0194997  -5.9210012  41.6780012  45.4194997  -5.0520012
  41.2250012  44.2024997  -5.8300012  41.6444684  44.9638069  -5.7898941
  45.0820012  42.3934997 -19.1220012  44.6510012  41.9484997 -18.3920012
  44.3640012  42.7654997 -19.6340012  44.9259438  42.3828940 -19.0913201
  38.3240012  42.1354997 -12.0700012  38.9550012  42.1064997 -11.3510012
  38.7730012  41.7104997 -12.8000012  38.4710774  42.0740492 -12.0703447
  39.5980012  42.8814997 -16.6460012  40.0720012  43.4724997 -17.2310012
  38.8810012  43.4124997 -16.2990012  39.5659341  43.0340867 -16.6791164
  49.7670012  46.4204997  -6.5730012  50.0900012  45.7894997  -7.2160012
  49.3270012  45.8854997  -5.9130012  49.7516895  46.2618441  -6.5717150
  46.5440012  42.3474997 -11.7890012  45.6330012  42.4044997 -11.5010012
  47.0500012  42.2874997 -10.9790012  46.4875413  42.3471985 -11.6399378
  41.3730012  43.9764997 -12.9630012  40.4830012  44.0764997 -13.3030012
  41.6690012  43.1344997 -13.3090012  41.2912823  43.8763545 -13.0562787
  45.0260012  43.9764997 -15.3060012  45.9570012  44.1054997 -15.1280012
  44.8110012  44.6464997 -15.9560012  45.1244247  44.0846565 -15.3694253
  50.9490012  41.5824997  -8.5250012  50.2730012  41.7134997  -7.8610012
  50.4640012  41.4274997  -9.3350012  50.7907145  41.5794905  -8.5435483
  43.7000012  45.1714997 -17.7390012  43.1570012  44.7914997 -18.4310012
  44.5330012  45.3654997 -18.1680012  43.7384399  45.1458124 -17.8915474
  54.2370012  57.2544997  -2.2480012  54.4370012  57.6784997  -3.0830012
  54.8920012  57.5974997  -1.6410012  54.3530051  57.3589648  -2.2802164
  41.8350012  49.7284997  -2.6400012  42.5670012  49.9824997  -2.0790012
  41.0550012  49.9324997  -2.1250012  41.8298232  49.7909177  -2.4934240
  47.8640012  45.1354997  -9.9020012  48.4290012  44.5884997 -10.4490012
  47.7170012  44.6134997  -9.1140012  47.9212918  44.9902024  -9.8701546
  42.8660012  41.2714997 -13.4840012  42.5490012  40.3694997 -13.5190012
  43.6480012  41.2734997 -14.0370012  42.9282284  41.1481628 -13.5635217
  46.4910012  43.5234997  -7.4880012  45.6550012  43.9774997  -7.3780012
  47.0150012  43.7994997  -6.7360012  46.4474414  43.6229376  -7.3712864
  47.0350012  49.7364997 -15.8040012  46.2900012  49.2294997 -16.1260012
  46.9010012  49.7854997 -14.8570012  46.9148776  49.6736940 -15.7201353
  54.1850012  48.8694997  -7.0170012  54.8270012  49.3264997  -7.5610012
  53.3550012  48.9824997  -7.4800012  54.1605963  48.9472704  -7.1539823
  50.9330012  42.5504997 -17.6040012  49.9940012  42.6624997 -17.7560012
  51.2300012  43.4074997 -17.2980012  50.8447666  42.6816443 -17.5834232
  48.5540012  49.9204997  -4.5670012  48.2090012  49.5394997  -3.7600012
  48.3540012  50.8544997  -4.4950012  48.4798061  49.9945228  -4.4469039
  51.6510012  44.4174997 -15.9440012  52.5430012  44.2804997 -15.6250012
  51.7080012  45.2084997 -16.4800012  51.7806285  44.5056660 -15.9728309
  42.1600012  49.0314997 -10.0340012  42.9050012  49.0294997 -10.6350012
  42.2380012  48.2084997  -9.5520012  42.2725518  48.9199315 -10.0511071
  49.1610012  51.1954997 -16.7780012  48.8650012  52.0214997 -16.3970012
  48.4580012  50.5754997 -16.5820012  49.0254914  51.2248199 -16.6993557
  39.1680012  47.4924997  -4.7190012  39.3910012  47.0744997  -3.8870012
  38.5660012  46.8794997  -5.1420012  39.1171759  47.3524668  -4.6622978
  46.1840012  47.0094997  -2.5060012  45.8880012  46.8434997  -3.4010012
  47.1160012  46.7894997  -2.5170012  46.2694166  46.9570640  -2.6299464
  50.8050012  52.3824997  -4.6160012  49.9040012  52.5654997  -4.8840012
  50.8390012  52.6414997  -3.6950012  50.6863041  52.4425512  -4.5281803
  56.5360012  44.6274997 -16.2490012  55.9820012  44.2314997 -16.9210012
  56.6360012  45.5374997 -16.5270012  56.4737059  44.6963586 -16.3785599
  56.4990012  50.4274997  -3.4120012  55.6480012  50.6654997  -3.7790012
  57.0900012  50.4104997  -4.1650012  56.4622487  50.4578258  -3.5641107
  54.8310012  53.4134997 -15.7840012  54.4580012  52.5874997 -15.4750012
  55.1090012  53.2304997 -16.6810012  54.8175630  53.2757303 -15.8630374
  51.9920012  48.2214997  -8.7630012  51.0630012  47.9894997  -8.7900012
  52.4430012  47.4444997  -9.0930012  51.9259216  48.0847238  -8.8113083
  44.5350012  52.5494997 -12.6300012  45.0620012  53.3224997 -12.8300012
  43.6550012  52.7744997 -12.9310012  44.4881773  52.6858005 -12.6980990
  40.2900012  47.4114997 -18.0430012  40.9060012  48.0384997 -17.6630012
  39.4280012  47.7274997 -17.7710012  40.2577698  47.5399430 -17.9542817
  45.9620012  50.2124997 -13.0530012  45.7210012  51.1374997 -13.0120012
  45.2210012  49.7534997 -12.6570012  45.8288409  50.2771421 -12.9938623
  46.4770012  54.3614997  -6.7380012  46.8390012  55.2164997  -6.9720012
  47.0080012  54.0694997  -5.9980012  46.5984473  54.4391060  -6.6699145
  44.6450012  55.2344997 -13.5080012  43.6950012  55.3394997 -13.4570012
  44.9970012  56.0544997 -13.1630012  44.5624203  55.3598314 -13.4543350
  50.0210012  50.4604997  -7.0380012  49.5950012  50.2334997  -6.2110012
  50.6010012  49.7224997  -7.2200012  50.0411868  50.3295299  -6.9494170
  52.2240012  51.3894997 -17.9640012  52.5770012  51.0094997 -17.1590012
  51.2750012  51.2964997 -17.8770012  52.1440441  51.3249596 -17.8421441
  52.6790012  55.0124997  -4.5680012  52.0780012  54.4574997  -5.0640012
  52.9610012  55.6794997  -5.1940012  52.6348519  55.0266841  -4.7205048
  56.7270012  55.8694997 -17.7630012  57.4710012  56.4554997 -17.9030012
  56.0330012  56.4374997 -17.4290012  56.7350292  56.0265582 -17.7370039
  40.8020012  42.2454997  -5.1610012  39.9090012  42.5844997  -5.2290012
  40.7030012  41.3904997  -4.7430012  40.6664164  42.1762588  -5.1137765
  53.0900012  50.0624997 -15.7370012  52.8120012  49.3344997 -15.1810012
  54.0170012  50.1814997 -15.5320012  53.1773124  49.9788802 -15.6331155
  40.4530012  54.0504997  -6.7260012  40.6700012  53.1184997  -6.7570012
  40.6990012  54.3244997  -5.8430012  40.5159549  53.9600636  -6.6108237
  46.3150012  52.5014997 -19.5170012  46.5540012  51.7534997 -20.0640012
  46.0460012  52.1134997 -18.6840012  46.3113675  52.3466638 -19.4793135
  45.2520012  52.0714997 -17.0600012  45.3980012  51.5514997 -16.2700012
  45.2490012  52.9784997 -16.7540012  45.2715989  52.1228853 -16.9103912
  41.7050012  49.3244997 -16.5500012  41.0190012  49.6764997 -15.9830012
  42.2270012  50.0874997 -16.7970012  41.6816852  49.4758578 -16.5057882
  49.5360012  41.9864997  -6.2710012  50.2350012  42.0604997  -5.6210012
  49.1550012  41.1224997  -6.1170012  49.5801767  41.8797624  -6.1611678
  50.3210012  41.6384997 -15.1740012  50.5410012  42.1104997 -15.9770012
  50.8790012  42.0334997 -14.5040012  50.4264968  41.7564285 -15.1932669
  47.9890012  53.7694997 -16.3110012  47.1730012  54.2664997 -16.2590012
  48.5190012  54.2444997 -16.9510012  47.9489161  53.9017722 -16.3904044
  47.5210012  43.3664997 -14.3390012  48.3330012  43.8714997 -14.2930012
  47.2760012  43.2214997 -13.4250012  47.5990520  43.4160375 -14.2091483
  48.0560012  44.3524997  -5.1540012  48.1750012  44.9264997  -4.3970012
  48.7120012  43.6644997  -5.0400012  48.1609757  44.3381079  -5.0349175
  48.4040012  40.4474997 -13.4010012  48.0580012  41.0654997 -12.7560012
  49.0630012  40.9484997 -13.8820012  48.4457826  40.5995802 -13.3779029
  45.3280012  54.8134997 -16.3290012  45.4880012  55.6124997 -16.8300012
  45.1300012  55.1194997 -15.4440012  45.3231649  54.9644469 -16.2780185
  44.0620012  41.5104997 -16.7140012  43.9790012  42.3994997 -16.3670012
  44.9520012  41.2454997 -16.4820012  44.1709469  41.5961430 -16.6352374
  54.2610012  42.2594997  -4.3190012  53.3440012  42.5224997  -4.4070012
  54.5960012  42.2564997  -5.2160012  54.1809900  42.2950224  -4.4522081
  52.8630012  46.0104997 -10.2240012  52.0650012  45.5954997 -10.5520012
  53.3080012  45.3194997  -9.7330012  52.8139885  45.8603543 -10.2025111
  42.3210012  51.9384997 -17.6530012  42.9130012  52.6374997 -17.3770012
  42.7800012  51.5054997 -18.3730012  42.4641142  51.9757049 -17.7125170
  40.6370012  44.6024997 -18.5370012  40.5920012  45.5414997 -18.3590012
  39.7490012  44.3664997 -18.8070012  40.5108574  44.6991892 -18.5491088
  53.9490012  55.2664997  -8.6010012  53.7940012  55.9444997  -9.2580012
  54.8820012  55.3384997  -8.3980012  54.0538500  55.3690170  -8.6634881
  41.4450012  39.3844997  -9.8640012  41.2160012  39.4434997 -10.7920012
  41.0020012  38.5924997  -9.5580012  41.3538530  39.2855753  -9.9495214
  40.3750012  53.3244997 -13.7040012  39.5430012  53.7974997 -13.6760012
  40.9210012  53.8344997 -14.3020012  40.3349739  53.4581871 -13.7810284
  39.6630012  55.9374997  -2.3740012  40.2040012  55.7204997  -1.6140012
  39.1820012  55.1314997  -2.5630012  39.6719345  55.7989514  -2.2956924
  44.2610012  54.8564997  -0.7530012  45.0280012  54.3974997  -0.4120012
  44.2390012  54.6304997  -1.6830012  44.3631434  54.7630409  -0.8319957
  48.3530012  54.3644997 -19.3780012  47.7090012  53.7334997 -19.0570012
  49.1150012  53.8334997 -19.6100012  48.3678077  54.2062920 -19.3653989
  50.8380012  53.2364997  -2.0240012  50.4870012  52.3804997  -1.7810012
  51.5640012  53.3794997  -1.4170012  50.8880769  53.1385636  -1.9086381
  52.9570012  54.1814997 -19.1440012  53.2400012  53.3874997 -18.6920012
  53.6970012  54.4144997 -19.7050012  53.0957486  54.1042803 -19.1579302
  39.5700012  49.7474997  -1.4190012  39.7140012  48.8454997  -1.7060012
  38.7980012  50.0334997  -1.9070012  39.4853322  49.6628261  -1.5242119
  43.9120012  50.0914997 -19.2870012  43.9760012  49.2974997 -18.7560012
  44.5650012  49.9724997 -19.9770012  44.0090241  49.9667148 -19.3075683
  46.2260012  49.7174997  -1.9870012  45.8970012  49.9884997  -2.8440012
  46.3780012  48.7764997  -2.0740012  46.2014809  49.6273862  -2.1161756
  51.9600012  49.6334997  -4.6030012  52.7060012  50.2214997  -4.7230012
  51.2030012  50.2154997  -4.5400012  51.9597554  49.7927011  -4.6109093
  40.4030012  46.9474997  -1.9990012  40.8110012  46.0904997  -2.1200012
  40.1430012  46.9624997  -1.0780012  40.4237568  46.8320807  -1.8910412
  45.0610012  48.0634997 -16.9810012  44.6010012  47.5794997 -16.2950012
  45.3160012  47.3954997 -17.6170012  45.0324902  47.9068731 -16.9730666
  44.3500012  45.9564997  -4.6250012  43.7320012  46.6314997  -4.3450012
  44.6940012  46.2774997  -5.4580012  44.3119615  46.0922721  -4.6993419
  46.1320012  46.3064997 -18.7190012  45.9520012  46.1524997 -19.6460012
  47.0820012  46.4144997 -18.6740012  46.2357776  46.3000175 -18.8398157
  49.3700012  48.4284997  -1.3480012  50.3230012  48.5114997  -1.3750012
  49.2090012  47.7164997  -0.7280012  49.4786426  48.3436746  -1.2679421
  55.5220012  48.6614997 -19.2730012  55.2480012  48.2364997 -20.0860012
  55.5610012  49.5924997 -19.4900012  55.4897699  48.7292484 -19.4136390
  44.6890012  43.3114997  -3.5430012  44.8390012  42.5824997  -4.1450012
  44.6920012  44.0884997  -4.1020012  44.7099302  43.3167851  -3.7009308
  45.1020012  41.6814997  -6.0500012  45.6380012  42.1324997  -6.7020012
  44.2500012  41.5734997  -6.4730012  45.0602178  41.7286390  -6.1964244
  46.6840012  47.1204997  -5.8110012  47.4340012  46.9644997  -6.3840012
  46.3450012  47.9724997  -6.0860012  46.7408921  47.2142968  -5.9266439
  51.0990012  44.9354997  -0.7820012  51.2920012  44.0044997  -0.8940012
  51.9570012  45.3604997  -0.7920012  51.2413020  44.8656389  -0.7986639
  52.4160012  47.7244997  -2.7050012  52.1350012  48.4334997  -3.2820012
  53.3590012  47.6514997  -2.8560012  52.5049027  47.8117646  -2.8044449
  43.1680012  44.5094997  -1.6310012  42.4010012  43.9774997  -1.8410012
  43.8470012  44.1994997  -2.2310012  43.1547022  44.3947506  -1.7408352
  45.9080012  39.1374997  -5.6190012  45.8090012  40.0844997  -5.7240012
  45.1650012  38.7654997  -6.0940012  45.7940564  39.2165902  -5.6975440
  47.1720012  43.4594997  -2.0550012  46.9360012  43.2394997  -1.1530012
  46.3880012  43.2524997  -2.5650012  47.0338628  43.4014760  -2.0006068
  49.8870012  42.5864997  -2.9790012  48.9400012  42.6184997  -2.8470012
  50.2000012  41.9614997  -2.3260012  49.7995475  42.5063207  -2.8725545
  51.5210012  41.2204997  -0.9740012  51.4250012  40.2684997  -0.9800012
  51.2000012  41.4894997  -0.1140012  51.4644070  41.1264035  -0.8584559
  41.3480012  42.4304997  -1.9270012  41.5600012  41.7234997  -2.5370012
  41.2370012  41.9924997  -1.0830012  41.3619721  42.2747084  -1.8963157
  46.1290012  38.4314997  -2.9470012  46.8410012  37.7914997  -2.9610012
  46.0280012  38.6984997  -3.8610012  46.2127939  38.3799938  -3.0724350
  46.4830012  40.1144997  -0.8940012  46.3510012  39.6384997  -1.7140012
  45.8840012  40.8584997  -0.9490012  46.3839071  40.1499618  -1.0137114
  46.0290012  56.9974997 -17.7170012  46.9620012  57.1554997 -17.5740012
  45.7650012  57.6724997 -18.3420012  46.1209510  57.1103611 -17.7819259
  39.5980012  51.6334997 -18.2350012  40.5120012  51.7124997 -17.9610012
  39.6050012  50.9464997 -18.9010012  39.7241131  51.5513961 -18.2875607
  38.2470012  57.0264997 -13.1570012  37.6000012  56.5644997 -13.6900012
  38.6010012  56.3544997 -12.5750012  38.2063849  56.8724723 -13.1512041
  39.1170012  55.1074997 -11.3530012  38.7820012  54.2274997 -11.1810012
  39.3390012  55.4524997 -10.4880012  39.1011783  55.0337500 -11.2125792
  56.6650012  55.9164997  -8.3720012  56.6440012  56.1014997  -7.4330012
  57.3560012  56.4854997  -8.7130012  56.7554618  56.0186606  -8.2896136
  56.2290012  55.4844997  -5.4500012  55.7410012  54.7484997  -5.8210012
  56.7780012  55.0904997  -4.7720012  56.2364872  55.3306249  -5.4090840
  54.6790012  51.2734997  -0.8120012  53.8130012  51.1684997  -0.4180012
  55.0560012  52.0324997  -0.3660012  54.6113308  51.3616900  -0.6977607
  55.9800012  49.5304997 -15.2980012  56.8300012  49.9514997 -15.1710012
  55.9860012  48.7904997 -14.6910012  56.0971372  49.4880803 -15.1985656
  56.3750012  47.5834997 -13.4740012  55.6480012  47.1044997 -13.0770012
  56.9560012  47.7894997 -12.7420012  56.3539375  47.5457090 -13.3205871
  56.1340012  50.3684997  -8.5270012  56.9670012  49.9904997  -8.8070012
  56.2460012  51.3114997  -8.6460012  56.2632647  50.4442218  -8.5814513
  54.6200012  53.2464997  -6.2200012  53.9730012  53.5714997  -5.5940012
  54.1030012  52.8064997  -6.8940012  54.4614029  53.2315004  -6.2254173
  56.6430012  47.4844997 -17.0830012  56.1210012  47.8414997 -17.8020012
  56.6100012  48.1594997 -16.4050012  56.5671634  47.6245413 -17.0896855
  54.9920012  44.7244997 -18.5320012  55.0880012  45.3914997 -19.2130012
  54.8520012  43.9084997 -19.0140012  54.9862135  44.7054500 -18.6901509
  54.1610012  46.1044997 -12.9110012  54.0110012  45.1594997 -12.9320012
  53.8080012  46.3854997 -12.0680012  54.0926625  46.0130441 -12.7997654
  39.1970012  48.1824997  -8.9010012  39.3810012  48.1004997  -9.8370012
  40.0460012  48.0584997  -8.4770012  39.3370139  48.1545003  -8.9718545
  55.0180012  48.0744997  -3.2730012  55.6010012  47.3404997  -3.0810012
  55.5820012  48.8464997  -3.2260012  55.1739769  48.0784227  -3.2403841
  56.5140012  45.9774997  -2.5880012  55.6510012  45.5984997  -2.7540012
  57.1190012  45.2384997  -2.6620012  56.4775979  45.8258023  -2.6207183
  54.2390012  42.1324997 -19.4150012  54.8500012  41.7614997 -18.7780012
  53.4030012  41.7114997 -19.2190012  54.2095032  42.0247554 -19.3012965
  53.8720012  43.6874997 -14.4490012  54.1520012  42.7804997 -14.3250012
  54.6310012  44.1214997 -14.8380012  54.0129277  43.6220942 -14.4846318
  54.4840012  44.2684997  -9.0130012  55.4170012  44.4804997  -9.0470012
  54.2490012  44.3704997  -8.0910012  54.5798036  44.3112769  -8.8930024
  54.5130012  45.0054997  -6.2370012  53.6700012  45.2734997  -5.8710012
  54.9550012  45.8274997  -6.4480012  54.4574158  45.1533291  -6.2154509
  38.7940012  43.4534997  -2.7600012  39.7140012  43.3314997  -2.5240012
  38.3450012  42.7034997  -2.3710012  38.8591580  43.3353727  -2.6750994
  56.7960012  38.9854997  -0.8840012  57.1460012  38.3314997  -1.4890012
  56.9430012  39.8224997  -1.3230012  56.8638419  39.0091591  -1.0262882
  54.4850012  40.9504997 -14.4010012  54.6680012  40.5014997 -13.5750012
  53.8860012  40.3654997 -14.8640012  54.4290202  40.8099975 -14.3506725
  40.0150012  41.7654997  -9.8690012  40.4610012  40.9734997  -9.5670012
  40.4820012  42.4814997  -9.4380012  40.1390172  41.7540624  -9.7695180
  38.3190012  44.7644997  -8.8000012  38.8110012  44.5434997  -9.5910012
  38.6820012  45.6054997  -8.5190012  38.4353126  44.8478357  -8.8702469
  56.3160012  41.0944997  -2.5340012  55.3980012  41.3654997  -2.5700012
  56.4390012  40.5594997  -3.3190012  56.2071066  41.0592892  -2.6449513
  56.3520012  41.0174997 -17.8730012  56.7640012  40.2964997 -18.3480012
  57.0340012  41.6874997 -17.8140012  56.5005885  41.0092368 -17.9301085
  38.6330012  41.0224997 -14.7460012  37.7080012  41.2314997 -14.8750012
  39.0870012  41.5064997 -15.4350012  38.5677368  41.1165993 -14.8568774
  53.4040012  56.0064997 -12.8000012  54.0560012  55.6594997 -13.4080012
  53.9140012  56.4954997 -12.1540012  53.5622637  56.0250597 -12.7959764
  38.5970012  39.7604997  -6.4010012  37.9320012  39.5144997  -5.7580012
  38.1540012  40.3824997  -6.9790012  38.4460956  39.8108632  -6.3910648
  40.7890012  52.9354997  -2.2570012  39.9680012  53.1104997  -2.7170012
  40.5360012  52.8624997  -1.3360012  40.6426164  52.9495622  -2.1955077
  43.7430012  53.9104997  -5.9980012  43.3180012  54.7194997  -6.2810012
  44.6470012  53.9954997  -6.3000012  43.8070271  54.0328469  -6.0776224
  48.0540012  55.3094997  -3.0390012  48.2390012  54.9754997  -2.1610012
  48.9000012  55.6184997  -3.3610012  48.1937539  55.3056047  -2.9624395
  50.3990012  56.5954997  -3.7950012  51.0760012  55.9624997  -4.0350012
  50.7210012  56.9964997  -2.9880012  50.5351637  56.5631154  -3.7187207
  55.3160012  39.1844997  -4.7150012  54.5040012  39.5094997  -5.1030012
  55.5490012  38.4244997  -5.2480012  55.2363423  39.1262436  -4.8401747
  41.1450012  57.1664997  -5.9510012  40.4240012  57.6064997  -6.4020012
  40.7790012  56.9154997  -5.1020012  40.9969804  57.1927698  -5.8980160
  43.6120012  56.7664997  -6.9210012  42.7470012  56.8384997  -6.5170012
  43.5570012  57.3134997  -7.7050012  43.4862085  56.8502685  -6.9716638
  48.3220012  56.6544997  -7.7460012  47.8660012  57.1834997  -8.4000012
  48.4850012  57.2574997  -7.0200012  48.2815585  56.8084468  -7.7374938
  50.6500012  55.5324997  -6.8010012  49.7450012  55.6974997  -7.0660012
  51.0790012  56.3854997  -6.8660012  50.5840799  55.6704483  -6.8460818
  53.2540012  57.1024997  -6.5060012  53.0720012  58.0184997  -6.7160012
  53.4310012  56.6924997  -7.3520012  53.2530210  57.1724822  -6.6492115
  40.5590012  55.7894997  -9.0410012  40.5410012  55.3644997  -8.1830012
  41.3640012  55.4714997  -9.4490012  40.6653875  55.6883812  -8.9788345
  42.7010012  54.4994997 -10.3860012  42.4820012  53.5834997 -10.2160012
  43.5250012  54.6394997  -9.9200012  42.7824420  54.3930520 -10.2997226
  45.2380012  54.9694997  -9.5370012  45.4510012  54.0814997  -9.8240012
  45.3020012  54.9354997  -8.5830012  45.2758232  54.8433102  -9.4472603
  48.7460012  40.6334997 -10.3930012  48.0720012  40.0044997 -10.1370012
  49.3100012  40.1494997 -10.9960012  48.7299230  40.4818744 -10.4394660
  53.8890012  38.7414997 -10.2800012  54.4930012  39.2884997 -10.7820012
  53.0190012  39.0604997 -10.5200012  53.8541241  38.8595806 -10.3812346
  55.6160012  39.8794997 -11.9470012  56.2280012  39.3654997 -12.4730012
  55.9980012  40.7574997 -11.9230012  55.7514540  39.9277140 -12.0158170
  41.0730012  39.2674997 -12.5710012  40.2960012  39.0334997 -13.0780012
  41.6030012  38.4704997 -12.5620012  41.0382330  39.1276988 -12.6392258
  39.9090012  39.0654997 -16.7670012  40.3480012  39.6764997 -17.3590012
  39.2760012  39.6034997 -16.2930012  39.8834514  39.2219257 -16.7839070
  45.6520012  39.1944997 -12.7570012  46.5270012  39.5824997 -12.7870012
  45.5160012  38.9794997 -11.8350012  45.7533695  39.2185184 -12.6363560
  51.2090012  39.2244997 -11.1080012  51.2850012  39.3194997 -12.0580012
  50.9340012  38.3164997 -10.9790012  51.1822321  39.1147867 -11.2204921
  52.5620012  39.2504997 -15.4160012  51.8600012  39.8654997 -15.6250012
  52.1180012  38.4124997 -15.2850012  52.4056330  39.2215783 -15.4269672
  39.8100012  55.0134997 -15.8690012  39.1250012  54.9754997 -16.5370012
  39.8140012  55.9264997 -15.5810012  39.7168193  55.1317016 -15.9214716
  41.7700012  40.9814997 -18.3250012  42.2620012  40.3514997 -18.8520012
  42.3940012  41.2774997 -17.6610012  41.9215446  40.9353199 -18.3074020
  46.7960012  41.2744997 -15.8680012  46.9740012  40.6284997 -15.1850012
  46.7430012  42.1084997 -15.4000012  46.8131829  41.2987985 -15.7114060
  48.6750012  56.2234997 -17.4720012  49.5410012  56.5894997 -17.6500012
  48.4280012  55.7834997 -18.2860012  48.7602392  56.2141756 -17.6063711
  55.3840012  55.7864997 -14.7930012  55.1890012  55.0384997 -15.3580012
  55.3450012  56.5444997 -15.3760012  55.3520380  55.7866099 -14.9491616
  41.0310012  39.7814997  -3.0530012  40.6650012  39.0164997  -2.6100012
  41.9440012  39.8104997  -2.7660012  41.1042790  39.6807224  -2.9535930
  43.0040012  39.1324997  -1.5170012  43.9020012  38.8584997  -1.7020012
  42.6170012  38.3894997  -1.0530012  43.0746612  38.9945914  -1.4796357
  41.6280012  55.9334997 -18.8440012  41.3610012  56.2204997 -17.9710012
  42.4000012  55.3874997 -18.6920012  41.6957488  55.8990294 -18.7038950
  51.4250012  38.4644997  -1.3350012  51.5020012  38.0384997  -0.4810012
  52.3190012  38.4784997  -1.6780012  51.5563428  38.4080879  -1.2644690
  54.6010012  54.5374997  -2.6430012  53.8190012  54.3514997  -3.1620012
  54.5290012  55.4664997  -2.4250012  54.4841777  54.6376492  -2.6845952
  69.0070012  48.4234997 -12.6120012  69.0960012  49.3674997 -12.7440012
  68.3690012  48.1484997 -13.2700012  68.9329081  48.5154830 -12.7190386
  67.9400012  47.6784997  -9.1930012  67.9020012  47.0324997  -8.4880012
  67.6180012  47.2124997  -9.9640012  67.8912333  47.5269408  -9.2007022
  60.3090012  47.2934997  -7.6000012  60.3500012  46.6674997  -6.8770012
  61.0120012  47.9174997  -7.4180012  60.4096363  47.2921196  -7.4763956
  71.6460012  50.6174997 -10.8920012  71.2060012  49.8974997 -10.4410012
  71.6330012  51.3384997 -10.2620012  71.5840226  50.6163731 -10.7451506
  61.2320012  51.7434997  -9.0650012  60.8630012  50.9414997  -9.4350012
  62.1730012  51.5744997  -9.0190012  61.3087289  51.6110153  -9.1093684
  57.8420012  45.4034997 -13.6720012  57.3950012  46.2494997 -13.6910012
  57.2810012  44.8234997 -14.1880012  57.7049900  45.4409916 -13.7443199
  58.5530012  47.5654997 -11.5460012  58.7660012  46.7954997 -11.0190012
  59.2910012  47.6544997 -12.1500012  58.6818496  47.4721394 -11.5554700
  68.7580012  55.7224997 -10.6790012  69.3780012  55.0454997 -10.9530012
  68.5500012  55.5044997  -9.7710012  68.8146904  55.6003870 -10.5936635
  66.3300012  50.1114997  -8.7870012  66.6340012  49.4254997  -9.3820012
  67.0510012  50.2294997  -8.1690012  66.4690671  50.0336305  -8.7848184
  74.9930012  41.7124997  -7.9260012  75.0420012  42.3224997  -7.1900012
  75.4180012  42.1734997  -8.6490012  75.0571824  41.8583741  -7.9229795
  69.4710012  44.5054997  -8.4590012  69.6130012  43.5594997  -8.4390012
  69.3640012  44.7124997  -9.3880012  69.4759864  44.4039534  -8.5817661
  62.6250012  42.6064997 -11.1870012  62.6690012  43.4664997 -11.6050012
  62.1680012  42.0544997 -11.8210012  62.5692185  42.6495799 -11.3299701
  70.3480012  42.7374997 -12.7860012  70.9940012  42.4084997 -12.1610012
  70.8580012  43.2554997 -13.4090012  70.5054264  42.7624611 -12.7846138
  59.2460012  45.0034997 -10.4250012  59.8990012  44.4534997  -9.9930012
  59.2700012  44.7294997 -11.3420012  59.3386683  44.8911466 -10.4897877
  64.4020012  46.5534997 -11.2100012  65.0180012  46.0274997 -10.7000012
  63.8160012  45.9134997 -11.6130012  64.4070810  46.3949208 -11.1946827
  75.3840012  43.1904997  -5.6900012  74.6960012  43.8484997  -5.7860012
  75.4000012  42.9934997  -4.7540012  75.2918525  43.2540462  -5.5765192
  61.4360012  41.5244997  -7.1130012  61.2170012  42.0544997  -7.8790012
  60.7680012  41.7514997  -6.4660012  61.3157600  41.6276906  -7.1303621
  68.8050012  51.0244997 -13.5690012  68.5090012  50.7024997 -14.4200012
  68.4800012  51.9244997 -13.5280012  68.7206371  51.1020215 -13.6798199
  64.0050012  49.2004997  -6.8260012  63.2650012  49.7984997  -6.7220012
  64.7190012  49.7544997  -7.1410012  64.0002237  49.3572831  -6.8543535
  72.1120012  42.0284997 -10.8060012  71.8960012  41.2624997 -10.2730012
  72.7670012  42.5004997 -10.2930012  72.1710632  41.9875889 -10.6637139
  61.0290012  43.4164997  -9.1610012  61.6430012  44.0494997  -8.7870012
  61.5410012  42.9444997  -9.8170012  61.1822296  43.4392370  -9.1985748
  62.4120012  51.1644997  -6.0380012  62.4070012  52.0444997  -6.4160012
  61.5590012  51.0814997  -5.6130012  62.2959464  51.2736117  -6.0322093
  58.5330012  50.8354997 -15.2560012  58.2610012  51.0644997 -16.1450012
  58.5790012  51.6734997 -14.7960012  58.5020094  50.9801213 -15.3154303
  72.1580012  52.4574997  -8.5440012  71.2170012  52.5154997  -8.3820012
  72.4350012  53.3634997  -8.6810012  72.0664679  52.5879443  -8.5403185
  72.4590012  40.7434997  -7.1260012  71.7230012  41.3544997  -7.1640012
  73.1420012  41.1584997  -7.6530012  72.4506541  40.8831374  -7.2024168
  65.4620012  38.8304997  -9.6600012  65.3450012  37.8814997  -9.7150012
  64.6070012  39.1624997  -9.3870012  65.3303733  38.7455409  -9.6306103
  70.4100012  54.2384997 -11.9180012  70.8360012  53.5314997 -12.4030012
  70.7270012  55.0394997 -12.3350012  70.5111019  54.2500994 -12.0406870
  71.5700012  52.1394997 -13.4100012  71.3120012  51.4494997 -14.0210012
  71.6410012  51.6964997 -12.5640012  71.5442856  51.9852124 -13.3793115
  73.2560012  50.7054997  -4.9320012  73.3960012  50.1144997  -5.6720012
  73.4230012  51.5784997  -5.2890012  73.2976778  50.7426426  -5.0813035
  67.7290012  47.6674997 -15.1600012  67.0170012  48.2024997 -15.5120012
  68.4200012  47.7234997 -15.8200012  67.7250132  47.7482543 -15.2973711
  67.7820012  46.1254997 -18.1210012  68.4830012  46.1474997 -17.4700012
  68.0850012  45.4974997 -18.7770012  67.9187830  46.0436566 -18.1206289
  75.0980012  47.0454997  -6.8660012  74.4450012  47.7404997  -6.7770012
  75.5630012  47.2554997  -7.6760012  75.0715390  47.1689425  -6.9633117
  71.1340012  47.8774997 -14.2080012  70.4020012  48.1054997 -13.6350012
  71.5820012  47.1634997 -13.7530012  71.0943095  47.8122571 -14.0680881
  71.0320012  46.0514997  -5.1410012  71.1120012  46.8144997  -4.5690012
  70.4300012  46.3304997  -5.8310012  70.9615756  46.1937134  -5.1559411
  62.7800012  48.5074997 -12.3260012  62.4490012  48.1374997 -13.1440012
  63.3680012  47.8374997 -11.9790012  62.8141873  48.3661156 -12.3911898
  64.1460012  51.9354997  -9.6440012  64.0520012  51.3574997 -10.4010012
  64.8760012  51.5644997  -9.1480012  64.2317981  51.8062390  -9.6805835
  63.1460012  47.2764997  -8.6920012  63.7120012  47.3974997  -9.4550012
  63.4650012  47.9134997  -8.0530012  63.2665786  47.3791884  -8.7099960
  69.4550012  52.7794997  -7.9580012  69.2150012  53.4414997  -7.3100012
  69.2570012  51.9454997  -7.5330012  69.3953808  52.7573134  -7.8118476
  64.0260012  51.6754997  -3.9750012  63.7150012  52.4574997  -3.5200012
  63.3760012  51.5224997  -4.6610012  63.8955558  51.7619105  -4.0054129
  70.0050012  47.0394997 -16.5230012  70.5850012  47.1894997 -15.7760012
  70.4190012  47.5104997 -17.2460012  70.1402830  47.1236841 -16.5185866
  60.9460012  47.8734997  -4.7460012  61.0170012  48.5244997  -4.0480012
  60.0560012  47.9764997  -5.0810012  60.8353117  47.9765936  -4.6957300
  67.7320012  53.7764997 -13.0880012  68.2060012  54.0714997 -12.3100012
  67.1690012  54.5144997 -13.3210012  67.7207653  53.9166932 -13.0129864
  62.2660012  53.7474997  -3.2120012  62.2730012  53.6114997  -4.1590012
  61.3500012  53.6294997  -2.9600012  62.1431714  53.7129430  -3.3075334
  73.7040012  38.7894997 -16.7100012  72.8040012  38.9284997 -16.4150012
  73.9560012  39.6204997 -17.1120012  73.6148702  38.9209074 -16.7239795
  61.7700012  47.5774997 -14.7360012  61.4780012  48.3454997 -15.2270012
  61.0960012  46.9174997 -14.8990012  61.6389081  47.5934406 -14.8252660
  74.8930012  53.1554997 -18.3340012  74.9670012  54.0944997 -18.1630012
  75.7990012  52.8504997 -18.3900012  75.0255100  53.2426722 -18.3181881
  57.8630012  49.9404997  -5.9210012  57.3620012  49.9124997  -6.7360012
  57.8680012  49.0344997  -5.6120012  57.7951526  49.8142278  -5.9907128
  57.6130012  52.7204997  -9.0370012  58.5590012  52.5764997  -9.0560012
  57.5010012  53.5044997  -8.5000012  57.7272727  52.8068046  -8.9669928
  75.8110012  53.3864997  -3.3550012  75.7620012  52.4314997  -3.3920012
  74.9840012  53.6544997  -2.9540012  75.6924940  53.2918998  -3.3058625
  66.7900012  52.9604997  -4.4790012  66.8770012  53.7864997  -4.0040012
  65.9260012  52.6304997  -4.2300012  66.6851964  53.0289878  -4.3803451
  67.2040012  56.7324997 -14.6730012  67.1290012  56.6114997 -15.6190012
  67.2370012  57.6824997 -14.5540012  67.1981848  56.8442500 -14.7865166
  60.8570012  55.5214997 -12.8920012  61.0100012  55.1734997 -12.0130012
  60.0070012  55.1654997 -13.1470012  60.7628962  55.4256650 -12.8061660
  70.3060012  55.8864997 -17.6710012  70.6810012  55.1424997 -18.1410012
  70.3100012  55.6164997 -16.7520012  70.3578915  55.7481486 -17.6112176
  69.9750012  55.8124997 -14.9210012  69.0390012  55.9124997 -14.7430012
  70.2550012  55.1034997 -14.3430012  69.8848255  55.7302711 -14.8184609
  72.9630012  44.8794997  -2.8750012  72.5560012  45.3604997  -3.5960012
  73.0040012  43.9744997  -3.1830012  72.9128437  44.8229374  -3.0153317
  60.1120012  51.2634997  -4.8780012  60.3280012  50.9024997  -4.0190012
  59.2570012  50.8894997  -5.0880012  60.0259292  51.1634111  -4.7886614
  62.7310012  39.7334997  -8.8830012  61.8690012  39.6464997  -9.2900012
  62.7080012  40.5894997  -8.4550012  62.6100330  39.8372765  -8.8808137
  67.3940012  39.4554997  -5.5080012  67.8140012  39.0404997  -4.7550012
  66.4610012  39.2774997  -5.3910012  67.3253644  39.3745900  -5.3890461
  70.7200012  43.2114997  -4.6550012  70.2060012  43.0854997  -3.8570012
  70.5650012  44.1234997  -4.8990012  70.6286852  43.3176132  -4.5787842
  71.4830012  48.0724997 -18.8930012  71.5250012  47.8494997 -19.8230012
  72.3320012  48.4714997 -18.7030012  71.6035396  48.0959155 -18.9946373
  67.0550012  41.9484997 -18.2230012  66.8020012  41.9674997 -17.3000012
  66.7990012  41.0764997 -18.5240012  66.9857790  41.8332437 -18.1373737
  62.8220012  44.6994997  -7.7880012  62.1800012  44.6584997  -7.0790012
  62.8590012  45.6254997  -8.0250012  62.7391324  44.8191559  -7.7230176
  62.8190012  44.9204997 -12.8760012  61.9260012  44.5794997 -12.9340012
  63.2690012  44.5434997 -13.6310012  62.7577305  44.8228484 -12.9860823
  68.3540012  45.3364997 -14.0590012  67.9450012  46.1514997 -14.3500012
  69.0750012  45.1964997 -14.6730012  68.3954537  45.4292018 -14.1818658
  67.4560012  45.5114997  -2.5710012  66.8940012  44.8074997  -2.2500012
  68.2830012  45.3914997  -2.1030012  67.4907095  45.3987883  -2.4637670
  69.3590012  44.7824997 -11.2450012  69.1640012  45.3874997 -11.9600012
  69.5400012  43.9484997 -11.6790012  69.3567614  44.7526300 -11.4015595
  60.5720012  45.0194997  -5.9210012  60.5340012  45.4194997  -5.0520012
  60.0810012  44.2024997  -5.8300012  60.5004684  44.9638069  -5.7898941
  63.9380012  42.3934997 -19.1220012  63.5070012  41.9484997 -18.3920012
  63.2200012  42.7654997 -19.6340012  63.7819438  42.3828940 -19.0913201
  57.1800012  42.1354997 -12.0700012  57.8110012  42.1064997 -11.3510012
  57.6290012  41.7104997 -12.8000012  57.3270774  42.0740492 -12.0703447
  58.4540012  42.8814997 -16.6460012  58.9280012  43.4724997 -17.2310012
  57.7370012  43.4124997 -16.2990012  58.4219341  43.0340867 -16.6791164
  68.6230012  46.4204997  -6.5730012  68.9460012  45.7894997  -7.2160012
  68.1830012  45.8854997  -5.9130012  68.6076895  46.2618441  -6.5717150
  65.4000012  42.3474997 -11.7890012  64.4890012  42.4044997 -11.5010012
  65.9060012  42.2874997 -10.9790012  65.3435413  42.3471985 -11.6399378
  60.2290012  43.9764997 -12.9630012  59.3390012  44.0764997 -13.3030012
  60.5250012  43.1344997 -13.3090012  60.1472823  43.8763545 -13.0562787
  63.8820012  43.9764997 -15.3060012  64.8130012  44.1054997 -15.1280012
  63.6670012  44.6464997 -15.9560012  63.9804247  44.0846565 -15.3694253
  69.8050012  41.5824997  -8.5250012  69.1290012  41.7134997  -7.8610012
  69.3200012  41.4274997  -9.3350012  69.6467145  41.5794905  -8.5435483
  62.5560012  45.1714997 -17.7390012  62.0130012  44.7914997 -18.4310012
  63.3890012  45.3654997 -18.1680012  62.5944399  45.1458124 -17.8915474
  73.0930012  57.2544997  -2.2480012  73.2930012  57.6784997  -3.0830012
  73.7480012  57.5974997  -1.6410012  73.2090051  57.3589648  -2.2802164
  60.6910012  49.7284997  -2.6400012  61.4230012  49.9824997  -2.0790012
  59.9110012  49.9324997  -2.1250012  60.6858232  49.7909177  -2.4934240
  66.7200012  45.1354997  -9.9020012  67.2850012  44.5884997 -10.4490012
  66.5730012  44.6134997  -9.1140012  66.7772918  44.9902024  -9.8701546
  61.7220012  41.2714997 -13.4840012  61.4050012  40.3694997 -13.5190012
  62.5040012  41.2734997 -14.0370012  61.7842284  41.1481628 -13.5635217
  65.3470012  43.5234997  -7.4880012  64.5110012  43.9774997  -7.3780012
  65.8710012  43.7994997  -6.7360012  65.3034414  43.6229376  -7.3712864
  65.8910012  49.7364997 -15.8040012  65.1460012  49.2294997 -16.1260012
  65.7570012  49.7854997 -14.8570012  65.7708776  49.6736940 -15.7201353
  73.0410012  48.8694997  -7.0170012  73.6830012  49.3264997  -7.5610012
  72.2110012  48.9824997  -7.4800012  73.0165963  48.9472704  -7.1539823
  69.7890012  42.5504997 -17.6040012  68.8500012  42.6624997 -17.7560012
  70.0860012  43.4074997 -17.2980012  69.7007666  42.6816443 -17.5834232
  67.4100012  49.9204997  -4.5670012  67.0650012  49.5394997  -3.7600012
  67.2100012  50.8544997  -4.4950012  67.3358061  49.9945228  -4.4469039
  70.5070012  44.4174997 -15.9440012  71.3990012  44.2804997 -15.6250012
  70.5640012  45.2084997 -16.4800012  70.6366285  44.5056660 -15.9728310
  61.0160012  49.0314997 -10.0340012  61.7610012  49.0294997 -10.6350012
  61.0940012  48.2084997  -9.5520012  61.1285518  48.9199315 -10.0511071
  68.0170012  51.1954997 -16.7780012  67.7210012  52.0214997 -16.3970012
  67.3140012  50.5754997 -16.5820012  67.8814914  51.2248199 -16.6993557
  58.0240012  47.4924997  -4.7190012  58.2470012  47.0744997  -3.8870012
  57.4220012  46.8794997  -5.1420012  57.9731759  47.3524668  -4.6622978
  65.0400012  47.0094997  -2.5060012  64.7440012  46.8434997  -3.4010012
  65.9720012  46.7894997  -2.5170012  65.1254166  46.9570640  -2.6299464
  69.6610012  52.3824997  -4.6160012  68.7600012  52.5654997  -4.8840012
  69.6950012  52.6414997  -3.6950012  69.5423041  52.4425512  -4.5281803
  75.3920012  44.6274997 -16.2490012  74.8380012  44.2314997 -16.9210012
  75.4920012  45.5374997 -16.5270012  75.3297059  44.6963586 -16.3785599
  75.3550012  50.4274997  -3.4120012  74.5040012  50.6654997  -3.7790012
  75.9460012  50.4104997  -4.1650012  75.3182487  50.4578258  -3.5641107
  73.6870012  53.4134997 -15.7840012  73.3140012  52.5874997 -15.4750012
  73.9650012  53.2304997 -16.6810012  73.6735630  53.2757303 -15.8630374
  70.8480012  48.2214997  -8.7630012  69.9190012  47.9894997  -8.7900012
  71.2990012  47.4444997  -9.0930012  70.7819216  48.0847238  -8.8113083
  63.3910012  52.5494997 -12.6300012  63.9180012  53.3224997 -12.8300012
  62.5110012  52.7744997 -12.9310012  63.3441773  52.6858005 -12.6980990
  59.1460012  47.4114997 -18.0430012  59.7620012  48.0384997 -17.6630012
  58.2840012  47.7274997 -17.7710012  59.1137698  47.5399430 -17.9542817
  64.8180012  50.2124997 -13.0530012  64.5770012  51.1374997 -13.0120012
  64.0770012  49.7534997 -12.6570012  64.6848409  50.2771421 -12.9938623
  65.3330012  54.3614997  -6.7380012  65.6950012  55.2164997  -6.9720012
  65.8640012  54.0694997  -5.9980012  65.4544473  54.4391060  -6.6699145
  63.5010012  55.2344997 -13.5080012  62.5510012  55.3394997 -13.4570012
  63.8530012  56.0544997 -13.1630012  63.4184203  55.3598314 -13.4543350
  68.8770012  50.4604997  -7.0380012  68.4510012  50.2334997  -6.2110012
  69.4570012  49.7224997  -7.2200012  68.8971868  50.3295299  -6.9494170
  71.0800012  51.3894997 -17.9640012  71.4330012  51.0094997 -17.1590012
  70.1310012  51.2964997 -17.8770012  71.0000441  51.3249596 -17.8421441
  71.5350012  55.0124997  -4.5680012  70.9340012  54.4574997  -5.0640012
  71.8170012  55.6794997  -5.1940012  71.4908519  55.0266841  -4.7205048
  75.5830012  55.8694997 -17.7630012  76.3270012  56.4554997 -17.9030012
  74.8890012  56.4374997 -17.4290012  75.5910292  56.0265582 -17.7370039
  59.6580012  42.2454997  -5.1610012  58.7650012  42.5844997  -5.2290012
  59.5590012  41.3904997  -4.7430012  59.5224164  42.1762588  -5.1137765
  71.9460012  50.0624997 -15.7370012  71.6680012  49.3344997 -15.1810012
  72.8730012  50.1814997 -15.5320012  72.0333124  49.9788802 -15.6331155
  59.3090012  54.0504997  -6.7260012  59.5260012  53.1184997  -6.7570012
  59.5550012  54.3244997  -5.8430012  59.3719549  53.9600636  -6.6108237
  65.1710012  52.5014997 -19.5170012  65.4100012  51.7534997 -20.0640012
  64.9020012  52.1134997 -18.6840012  65.1673675  52.3466638 -19.4793135
  64.1080012  52.0714997 -17.0600012  64.2540012  51.5514997 -16.2700012
  64.1050012  52.9784997 -16.7540012  64.1275989  52.1228853 -16.9103912
  60.5610012  49.3244997 -16.5500012  59.8750012  49.6764997 -15.9830012
  61.0830012  50.0874997 -16.7970012  60.5376852  49.4758578 -16.5057882
  68.3920012  41.9864997  -6.2710012  69.0910012  42.0604997  -5.6210012
  68.0110012  41.1224997  -6.1170012  68.4361767  41.8797624  -6.1611678
  69.1770012  41.6384997 -15.1740012  69.3970012  42.1104997 -15.9770012
  69.7350012  42.0334997 -14.5040012  69.2824968  41.7564285 -15.1932669
  66.8450012  53.7694997 -16.3110012  66.0290012  54.2664997 -16.2590012
  67.3750012  54.2444997 -16.9510012  66.8049161  53.9017722 -16.3904044
  66.3770012  43.3664997 -14.3390012  67.1890012  43.8714997 -14.2930012
  66.1320012  43.2214997 -13.4250012  66.4550520  43.4160375 -14.2091483
  66.9120012  44.3524997  -5.1540012  67.0310012  44.9264997  -4.3970012
  67.5680012  43.6644997  -5.0400012  67.0169757  44.3381079  -5.0349175
  67.2600012  40.4474997 -13.4010012  66.9140012  41.0654997 -12.7560012
  67.9190012  40.9484997 -13.8820012  67.3017826  40.5995802 -13.3779029
  64.1840012  54.8134997 -16.3290012  64.3440012  55.6124997 -16.8300012
  63.9860012  55.1194997 -15.4440012  64.1791649  54.9644469 -16.2780185
  62.9180012  41.5104997 -16.7140012  62.8350012  42.3994997 -16.3670012
  63.8080012  41.2454997 -16.4820012  63.0269469  41.5961430 -16.6352374
  73.1170012  42.2594997  -4.3190012  72.2000012  42.5224997  -4.4070012
  73.4520012  42.2564997  -5.2160012  73.0369900  42.2950224  -4.4522081
  71.7190012  46.0104997 -10.2240012  70.9210012  45.5954997 -10.5520012
  72.1640012  45.3194997  -9.7330012  71.6699885  45.8603543 -10.2025111
  61.1770012  51.9384997 -17.6530012  61.7690012  52.6374997 -17.3770012
  61.6360012  51.5054997 -18.3730012  61.3201142  51.9757049 -17.7125170
  59.4930012  44.6024997 -18.5370012  59.4480012  45.5414997 -18.3590012
  58.6050012  44.3664997 -18.8070012  59.3668574  44.6991892 -18.5491088
  72.8050012  55.2664997  -8.6010012  72.6500012  55.9444997  -9.2580012
  73.7380012  55.3384997  -8.3980012  72.9098500  55.3690170  -8.6634881
  60.3010012  39.3844997  -9.8640012  60.0720012  39.4434997 -10.7920012
  59.8580012  38.5924997  -9.5580012  60.2098530  39.2855753  -9.9495214
  59.2310012  53.3244997 -13.7040012  58.3990012  53.7974997 -13.6760012
  59.7770012  53.8344997 -14.3020012  59.1909739  53.4581871 -13.7810284
  58.5190012  55.9374997  -2.3740012  59.0600012  55.7204997  -1.6140012
  58.0380012  55.1314997  -2.5630012  58.5279345  55.7989514  -2.2956924
  63.1170012  54.8564997  -0.7530012  63.8840012  54.3974997  -0.4120012
  63.0950012  54.6304997  -1.6830012  63.2191434  54.7630409  -0.8319957
  67.2090012  54.3644997 -19.3780012  66.5650012  53.7334997 -19.0570012
  67.9710012  53.8334997 -19.6100012  67.2238077  54.2062920 -19.3653989
  69.6940012  53.2364997  -2.0240012  69.3430012  52.3804997  -1.7810012
  70.4200012  53.3794997  -1.4170012  69.7440769  53.1385636  -1.9086381
  71.8130012  54.1814997 -19.1440012  72.0960012  53.3874997 -18.6920012
  72.5530012  54.4144997 -19.7050012  71.9517486  54.1042803 -19.1579302
  58.4260012  49.7474997  -1.4190012  58.5700012  48.8454997  -1.7060012
  57.6540012  50.0334997  -1.9070012  58.3413322  49.6628261  -1.5242119
  62.7680012  50.0914997 -19.2870012  62.8320012  49.2974997 -18.7560012
  63.4210012  49.9724997 -19.9770012  62.8650241  49.9667148 -19.3075683
  65.0820012  49.7174997  -1.9870012  64.7530012  49.9884997  -2.8440012
  65.2340012  48.7764997  -2.0740012  65.0574809  49.6273862  -2.1161756
  70.8160012  49.6334997  -4.6030012  71.5620012  50.2214997  -4.7230012
  70.0590012  50.2154997  -4.5400012  70.8157554  49.7927011  -4.6109093
  59.2590012  46.9474997  -1.9990012  59.6670012  46.0904997  -2.1200012
  58.9990012  46.9624997  -1.0780012  59.2797568  46.8320807  -1.8910412
  63.9170012  48.0634997 -16.9810012  63.4570012  47.5794997 -16.2950012
  64.1720012  47.3954997 -17.6170012  63.8884902  47.9068731 -16.9730666
  63.2060012  45.9564997  -4.6250012  62.5880012  46.6314997  -4.3450012
  63.5500012  46.2774997  -5.4580012  63.1679615  46.0922721  -4.6993419
  64.9880012  46.3064997 -18.7190012  64.8080012  46.1524997 -19.6460012
  65.9380012  46.4144997 -18.6740012  65.0917776  46.3000175 -18.8398157
  68.2260012  48.4284997  -1.3480012  69.1790012  48.5114997  -1.3750012
  68.0650012  47.7164997  -0.7280012  68.3346426  48.3436746  -1.2679421
  74.3780012  48.6614997 -19.2730012  74.1040012  48.2364997 -20.0860012
  74.4170012  49.5924997 -19.4900012  74.3457699  48.7292484 -19.4136390
  63.5450012  43.3114997  -3.5430012  63.6950012  42.5824997  -4.1450012
  63.5480012  44.0884997  -4.1020012  63.5659302  43.3167851  -3.7009308
  63.9580012  41.6814997  -6.0500012  64.4940012  42.1324997  -6.7020012
  63.1060012  41.5734997  -6.4730012  63.9162178  41.7286390  -6.1964244
  65.5400012  47.1204997  -5.8110012  66.2900012  46.9644997  -6.3840012
  65.2010012  47.9724997  -6.0860012  65.5968921  47.2142968  -5.9266439
  69.9550012  44.9354997  -0.7820012  70.1480012  44.0044997  -0.8940012
  70.8130012  45.3604997  -0.7920012  70.0973020  44.8656389  -0.7986639
  71.2720012  47.7244997  -2.7050012  70.9910012  48.4334997  -3.2820012
  72.2150012  47.6514997  -2.8560012  71.3609027  47.8117646  -2.8044449
  62.0240012  44.5094997  -1.6310012  61.2570012  43.9774997  -1.8410012
  62.7030012  44.1994997  -2.2310012  62.0107022  44.3947506  -1.7408352
  64.7640012  39.1374997  -5.6190012  64.6650012  40.0844997  -5.7240012
  64.0210012  38.7654997  -6.0940012  64.6500564  39.2165902  -5.6975440
  66.0280012  43.4594997  -2.0550012  65.7920012  43.2394997  -1.1530012
  65.2440012  43.2524997  -2.5650012  65.8898628  43.4014760  -2.0006068
  68.7430012  42.5864997  -2.9790012  67.7960012  42.6184997  -2.8470012
  69.0560012  41.9614997  -2.3260012  68.6555475  42.5063207  -2.8725545
  70.3770012  41.2204997  -0.9740012  70.2810012  40.2684997  -0.9800012
  70.0560012  41.4894997  -0.1140012  70.3204070  41.1264035  -0.8584559
  60.2040012  42.4304997  -1.9270012  60.4160012  41.7234997  -2.5370012
  60.0930012  41.9924997  -1.0830012  60.2179721  42.2747084  -1.8963157
  64.9850012  38.4314997  -2.9470012  65.6970012  37.7914997  -2.9610012
  64.8840012  38.6984997  -3.8610012  65.0687939  38.3799938  -3.0724350
  65.3390012  40.1144997  -0.8940012  65.2070012  39.6384997  -1.7140012
  64.7400012  40.8584997  -0.9490012  65.2399071  40.1499618  -1.0137114
  64.8850012  56.9974997 -17.7170012  65.8180012  57.1554997 -17.5740012
  64.6210012  57.6724997 -18.3420012  64.9769510  57.1103611 -17.7819259
  58.4540012  51.6334997 -18.2350012  59.3680012  51.7124997 -17.9610012
  58.4610012  50.9464997 -18.9010012  58.5801131  51.5513961 -18.2875607
  57.1030012  57.0264997 -13.1570012  56.4560012  56.5644997 -13.6900012
  57.4570012  56.3544997 -12.5750012  57.0623849  56.8724723 -13.1512041
  57.9730012  55.1074997 -11.3530012  57.6380012  54.2274997 -11.1810012
  58.1950012  55.4524997 -10.4880012  57.9571783  55.0337500 -11.2125792
  75.5210012  55.9164997  -8.3720012  75.5000012  56.1014997  -7.4330012
  76.2120012  56.4854997  -8.7130012  75.6114618  56.0186606  -8.2896136
  75.0850012  55.4844997  -5.4500012  74.5970012  54.7484997  -5.8210012
  75.6340012  55.0904997  -4.7720012  75.0924872  55.3306249  -5.4090840
  73.5350012  51.2734997  -0.8120012  72.6690012  51.1684997  -0.4180012
  73.9120012  52.0324997  -0.3660012  73.4673308  51.3616900  -0.6977607
  74.8360012  49.5304997 -15.2980012  75.6860012  49.9514997 -15.1710012
  74.8420012  48.7904997 -14.6910012  74.9531372  49.4880803 -15.1985656
  75.2310012  47.5834997 -13.4740012  74.5040012  47.1044997 -13.0770012
  75.8120012  47.7894997 -12.7420012  75.2099375  47.5457090 -13.3205871
  74.9900012  50.3684997  -8.5270012  75.8230012  49.9904997  -8.8070012
  75.1020012  51.3114997  -8.6460012  75.1192647  50.4442218  -8.5814513
  73.4760012  53.2464997  -6.2200012  72.8290012  53.5714997  -5.5940012
  72.9590012  52.8064997  -6.8940012  73.3174029  53.2315004  -6.2254173
  75.4990012  47.4844997 -17.0830012  74.9770012  47.8414997 -17.8020012
  75.4660012  48.1594997 -16.4050012  75.4231634  47.6245413 -17.0896855
  73.8480012  44.7244997 -18.5320012  73.9440012  45.3914997 -19.2130012
  73.7080012  43.9084997 -19.0140012  73.8422135  44.7054500 -18.6901509
  73.0170012  46.1044997 -12.9110012  72.8670012  45.1594997 -12.9320012
  72.6640012  46.3854997 -12.0680012  72.9486625  46.0130441 -12.7997654
  58.0530012  48.1824997  -8.9010012  58.2370012  48.1004997  -9.8370012
  58.9020012  48.0584997  -8.4770012  58.1930139  48.1545003  -8.9718545
  73.8740012  48.0744997  -3.2730012  74.4570012  47.3404997  -3.0810012
  74.4380012  48.8464997  -3.2260012  74.0299769  48.0784227  -3.2403841
  75.3700012  45.9774997  -2.5880012  74.5070012  45.5984997  -2.7540012
  75.9750012  45.2384997  -2.6620012  75.3335979  45.8258023  -2.6207183
  73.0950012  42.1324997 -19.4150012  73.7060012  41.7614997 -18.7780012
  72.2590012  41.7114997 -19.2190012  73.0655032  42.0247554 -19.3012965
  72.7280012  43.6874997 -14.4490012  73.0080012  42.7804997 -14.3250012
  73.4870012  44.1214997 -14.8380012  72.8689277  43.6220942 -14.4846318
  73.3400012  44.2684997  -9.0130012  74.2730012  44.4804997  -9.0470012
  73.1050012  44.3704997  -8.0910012  73.4358036  44.3112769  -8.8930024
  73.3690012  45.0054997  -6.2370012  72.5260012  45.2734997  -5.8710012
  73.8110012  45.8274997  -6.4480012  73.3134158  45.1533291  -6.2154509
  57.6500012  43.4534997  -2.7600012  58.5700012  43.3314997  -2.5240012
  57.2010012  42.7034997  -2.3710012  57.7151580  43.3353727  -2.6750994
  75.6520012  38.9854997  -0.8840012  76.0020012  38.3314997  -1.4890012
  75.7990012  39.8224997  -1.3230012  75.7198419  39.0091591  -1.0262882
  73.3410012  40.9504997 -14.4010012  73.5240012  40.5014997 -13.5750012
  72.7420012  40.3654997 -14.8640012  73.2850202  40.8099975 -14.3506725
  58.8710012  41.7654997  -9.8690012  59.3170012  40.9734997  -9.5670012
  59.3380012  42.4814997  -9.4380012  58.9950172  41.7540624  -9.7695180
  57.1750012  44.7644997  -8.8000012  57.6670012  44.5434997  -9.5910012
  57.5380012  45.6054997  -8.5190012  57.2913126  44.8478357  -8.8702469
  75.1720012  41.0944997  -2.5340012  74.2540012  41.3654997  -2.5700012
  75.2950012  40.5594997  -3.3190012  75.0631066  41.0592892  -2.6449513
  75.2080012  41.0174997 -17.8730012  75.6200012  40.2964997 -18.3480012
  75.8900012  41.6874997 -17.8140012  75.3565885  41.0092368 -17.9301085
  57.4890012  41.0224997 -14.7460012  56.5640012  41.2314997 -14.8750012
  57.9430012  41.5064997 -15.4350012  57.4237368  41.1165993 -14.8568774
  72.2600012  56.0064997 -12.8000012  72.9120012  55.6594997 -13.4080012
  72.7700012  56.4954997 -12.1540012  72.4182637  56.0250597 -12.7959764
  57.4530012  39.7604997  -6.4010012  56.7880012  39.5144997  -5.7580012
  57.0100012  40.3824997  -6.9790012  57.3020956  39.8108632  -6.3910648
  59.6450012  52.9354997  -2.2570012  58.8240012  53.1104997  -2.7170012
  59.3920012  52.8624997  -1.3360012  59.4986164  52.9495622  -2.1955077
  62.5990012  53.9104997  -5.9980012  62.1740012  54.7194997  -6.2810012
  63.5030012  53.9954997  -6.3000012  62.6630271  54.0328469  -6.0776224
  66.9100012  55.3094997  -3.0390012  67.0950012  54.9754997  -2.1610012
  67.7560012  55.6184997  -3.3610012  67.0497539  55.3056047  -2.9624395
  69.2550012  56.5954997  -3.7950012  69.9320012  55.9624997  -4.0350012
  69.5770012  56.9964997  -2.9880012  69.3911637  56.5631154  -3.7187207
  74.1720012  39.1844997  -4.7150012  73.3600012  39.5094997  -5.1030012
  74.4050012  38.4244997  -5.2480012  74.0923423  39.1262436  -4.8401747
  60.0010012  57.1664997  -5.9510012  59.2800012  57.6064997  -6.4020012
  59.6350012  56.9154997  -5.1020012  59.8529804  57.1927698  -5.8980160
  62.4680012  56.7664997  -6.9210012  61.6030012  56.8384997  -6.5170012
  62.4130012  57.3134997  -7.7050012  62.3422085  56.8502685  -6.9716638
  67.1780012  56.6544997  -7.7460012  66.7220012  57.1834997  -8.4000012
  67.3410012  57.2574997  -7.0200012  67.1375585  56.8084468  -7.7374938
  69.5060012  55.5324997  -6.8010012  68.6010012  55.6974997  -7.0660012
  69.9350012  56.3854997  -6.8660012  69.4400799  55.6704483  -6.8460818
  72.1100012  57.1024997  -6.5060012  71.9280012  58.0184997  -6.7160012
  72.2870012  56.6924997  -7.3520012  72.1090210  57.1724822  -6.6492115
  59.4150012  55.7894997  -9.0410012  59.3970012  55.3644997  -8.1830012
  60.2200012  55.4714997  -9.4490012  59.5213875  55.6883812  -8.9788345
  61.5570012  54.4994997 -10.3860012  61.3380012  53.5834997 -10.2160012
  62.3810012  54.6394997  -9.9200012  61.6384420  54.3930520 -10.2997226
  64.0940012  54.9694997  -9.5370012  64.3070012  54.0814997  -9.8240012
  64.1580012  54.9354997  -8.5830012  64.1318232  54.8433102  -9.4472603
  67.6020012  40.6334997 -10.3930012  66.9280012  40.0044997 -10.1370012
  68.1660012  40.1494997 -10.9960012  67.5859230  40.4818744 -10.4394660
  72.7450012  38.7414997 -10.2800012  73.3490012  39.2884997 -10.7820012
  71.8750012  39.0604997 -10.5200012  72.7101241  38.8595806 -10.3812346
  74.4720012  39.8794997 -11.9470012  75.0840012  39.3654997 -12.4730012
  74.8540012  40.7574997 -11.9230012  74.6074540  39.9277140 -12.0158170
  59.9290012  39.2674997 -12.5710012  59.1520012  39.0334997 -13.0780012
  60.4590012  38.4704997 -12.5620012  59.8942330  39.1276988 -12.6392258
  58.7650012  39.0654997 -16.7670012  59.2040012  39.6764997 -17.3590012
  58.1320012  39.6034997 -16.2930012  58.7394514  39.2219257 -16.7839070
  64.5080012  39.1944997 -12.7570012  65.3830012  39.5824997 -12.7870012
  64.3720012  38.9794997 -11.8350012  64.6093695  39.2185184 -12.6363560
  70.0650012  39.2244997 -11.1080012  70.1410012  39.3194997 -12.0580012
  69.7900012  38.3164997 -10.9790012  70.0382321  39.1147867 -11.2204921
  71.4180012  39.2504997 -15.4160012  70.7160012  39.8654997 -15.6250012
  70.9740012  38.4124997 -15.2850012  71.2616330  39.2215783 -15.4269672
  58.6660012  55.0134997 -15.8690012  57.9810012  54.9754997 -16.5370012
  58.6700012  55.9264997 -15.5810012  58.5728193  55.1317016 -15.9214716
  60.6260012  40.9814997 -18.3250012  61.1180012  40.3514997 -18.8520012
  61.2500012  41.2774997 -17.6610012  60.7775446  40.9353199 -18.3074020
  65.6520012  41.2744997 -15.8680012  65.8300012  40.6284997 -15.1850012
  65.5990012  42.1084997 -15.4000012  65.6691829  41.2987985 -15.7114060
  67.5310012  56.2234997 -17.4720012  68.3970012  56.5894997 -17.6500012
  67.2840012  55.7834997 -18.2860012  67.6162392  56.2141756 -17.6063711
  74.2400012  55.7864997 -14.7930012  74.0450012  55.0384997 -15.3580012
  74.2010012  56.5444997 -15.3760012  74.2080380  55.7866099 -14.9491616
  59.8870012  39.7814997  -3.0530012  59.5210012  39.0164997  -2.6100012
  60.8000012  39.8104997  -2.7660012  59.9602790  39.6807224  -2.9535930
  61.8600012  39.1324997  -1.5170012  62.7580012  38.8584997  -1.7020012
  61.4730012  38.3894997  -1.0530012  61.9306612  38.9945914  -1.4796357
  60.4840012  55.9334997 -18.8440012  60.2170012  56.2204997 -17.9710012
  61.2560012  55.3874997 -18.6920012  60.5517488  55.8990294 -18.7038950
  70.2810012  38.4644997  -1.3350012  70.3580012  38.0384997  -0.4810012
  71.1750012  38.4784997  -1.6780012  70.4123428  38.4080879  -1.2644690
  73.4570012  54.5374997  -2.6430012  72.6750012  54.3514997  -3.1620012
  73.3850012  55.4664997  -2.4250012  73.3401777  54.6376492  -2.6845952
  87.8630012  48.4234997 -12.6120012  87.9520012  49.3674997 -12.7440012
  87.2250012  48.1484997 -13.2700012  87.7889081  48.5154830 -12.7190386
  86.7960012  47.6784997  -9.1930012  86.7580012  47.0324997  -8.4880012
  86.4740012  47.2124997  -9.9640012  86.7472333  47.5269408  -9.2007022
  79.1650012  47.2934997  -7.6000012  79.2060012  46.6674997  -6.8770012
  79.8680012  47.9174997  -7.4180012  79.2656363  47.2921196  -7.4763956
  90.5020012  50.6174997 -10.8920012  90.0620012  49.8974997 -10.4410012
  90.4890012  51.3384997 -10.2620012  90.4400226  50.6163731 -10.7451506
  80.0880012  51.7434997  -9.0650012  79.7190012  50.9414997  -9.4350012
  81.0290012  51.5744997  -9.0190012  80.1647289  51.6110153  -9.1093684
  76.6980012  45.4034997 -13.6720012  76.2510012  46.2494997 -13.6910012
  76.1370012  44.8234997 -14.1880012  76.5609900  45.4409916 -13.7443199
  77.4090012  47.5654997 -11.5460012  77.6220012  46.7954997 -11.0190012
  78.1470012  47.6544997 -12.1500012  77.5378496  47.4721394 -11.5554700
  87.6140012  55.7224997 -10.6790012  88.2340012  55.0454997 -10.9530012
  87.4060012  55.5044997  -9.7710012  87.6706904  55.6003870 -10.5936635
  85.1860012  50.1114997  -8.7870012  85.4900012  49.4254997  -9.3820012
  85.9070012  50.2294997  -8.1690012  85.3250671  50.0336305  -8.7848184
  93.8490012  41.7124997  -7.9260012  93.8980012  42.3224997  -7.1900012
  94.2740012  42.1734997  -8.6490012  93.9131824  41.8583741  -7.9229795
  88.3270012  44.5054997  -8.4590012  88.4690012  43.5594997  -8.4390012
  88.2200012  44.7124997  -9.3880012  88.3319864  44.4039534  -8.5817661
  81.4810012  42.6064997 -11.1870012  81.5250012  43.4664997 -11.6050012
  81.0240012  42.0544997 -11.8210012  81.4252185  42.6495799 -11.3299701
  89.2040012  42.7374997 -12.7860012  89.8500012  42.4084997 -12.1610012
  89.7140012  43.2554997 -13.4090012  89.3614264  42.7624611 -12.7846138
  78.1020012  45.0034997 -10.4250012  78.7550012  44.4534997  -9.9930012
  78.1260012  44.7294997 -11.3420012  78.1946683  44.8911466 -10.4897877
  83.2580012  46.5534997 -11.2100012  83.8740012  46.0274997 -10.7000012
  82.6720012  45.9134997 -11.6130012  83.2630810  46.3949208 -11.1946827
  94.2400012  43.1904997  -5.6900012  93.5520012  43.8484997  -5.7860012
  94.2560012  42.9934997  -4.7540012  94.1478525  43.2540462  -5.5765192
  80.2920012  41.5244997  -7.1130012  80.0730012  42.0544997  -7.8790012
  79.6240012  41.7514997  -6.4660012  80.1717600  41.6276906  -7.1303621
  87.6610012  51.0244997 -13.5690012  87.3650012  50.7024997 -14.4200012
  87.3360012  51.9244997 -13.5280012  87.5766371  51.1020215 -13.6798199
  82.8610012  49.2004997  -6.8260012  82.1210012  49.7984997  -6.7220012
  83.5750012  49.7544997  -7.1410012  82.8562237  49.3572831  -6.8543535
  90.9680012  42.0284997 -10.8060012  90.7520012  41.2624997 -10.2730012
  91.6230012  42.5004997 -10.2930012  91.0270632  41.9875889 -10.6637139
  79.8850012  43.4164997  -9.1610012  80.4990012  44.0494997  -8.7870012
  80.3970012  42.9444997  -9.8170012  80.0382296  43.4392370  -9.1985748
  81.2680012  51.1644997  -6.0380012  81.2630012  52.0444997  -6.4160012
  80.4150012  51.0814997  -5.6130012  81.1519464  51.2736117  -6.0322093
  77.3890012  50.8354997 -15.2560012  77.1170012  51.0644997 -16.1450012
  77.4350012  51.6734997 -14.7960012  77.3580094  50.9801213 -15.3154303
  91.0140012  52.4574997  -8.5440012  90.0730012  52.5154997  -8.3820012
  91.2910012  53.3634997  -8.6810012  90.9224679  52.5879443  -8.5403185
  91.3150012  40.7434997  -7.1260012  90.5790012  41.3544997  -7.1640012
  91.9980012  41.1584997  -7.6530012  91.3066541  40.8831374  -7.2024168
  84.3180012  38.8304997  -9.6600012  84.2010012  37.8814997  -9.7150012
  83.4630012  39.1624997  -9.3870012  84.1863733  38.7455409  -9.6306103
  89.2660012  54.2384997 -11.9180012  89.6920012  53.5314997 -12.4030012
  89.5830012  55.0394997 -12.3350012  89.3671019  54.2500994 -12.0406870
  90.4260012  52.1394997 -13.4100012  90.1680012  51.4494997 -14.0210012
  90.4970012  51.6964997 -12.5640012  90.4002856  51.9852124 -13.3793115
  92.1120012  50.7054997  -4.9320012  92.2520012  50.1144997  -5.6720012
  92.2790012  51.5784997  -5.2890012  92.1536778  50.7426426  -5.0813035
  86.5850012  47.6674997 -15.1600012  85.8730012  48.2024997 -15.5120012
  87.2760012  47.7234997 -15.8200012  86.5810132  47.7482543 -15.2973711
  86.6380012  46.1254997 -18.1210012  87.3390012  46.1474997 -17.4700012
  86.9410012  45.4974997 -18.7770012  86.7747830  46.0436566 -18.1206289
  93.9540012  47.0454997  -6.8660012  93.3010012  47.7404997  -6.7770012
  94.4190012  47.2554997  -7.6760012  93.9275390  47.1689425  -6.9633117
  89.9900012  47.8774997 -14.2080012  89.2580012  48.1054997 -13.6350012
  90.4380012  47.1634997 -13.7530012  89.9503095  47.8122571 -14.0680881
  89.8880012  46.0514997  -5.1410012  89.9680012  46.8144997  -4.5690012
  89.2860012  46.3304997  -5.8310012  89.8175756  46.1937134  -5.1559411
  81.6360012  48.5074997 -12.3260012  81.3050012  48.1374997 -13.1440012
  82.2240012  47.8374997 -11.9790012  81.6701873  48.3661156 -12.3911898
  83.0020012  51.9354997  -9.6440012  82.9080012  51.3574997 -10.4010012
  83.7320012  51.5644997  -9.1480012  83.0877981  51.8062390  -9.6805835
  82.0020012  47.2764997  -8.6920012  82.5680012  47.3974997  -9.4550012
  82.3210012  47.9134997  -8.0530012  82.1225786  47.3791884  -8.7099960
  88.3110012  52.7794997  -7.9580012  88.0710012  53.4414997  -7.3100012
  88.1130012  51.9454997  -7.5330012  88.2513808  52.7573134  -7.8118476
  82.8820012  51.6754997  -3.9750012  82.5710012  52.4574997  -3.5200012
  82.2320012  51.5224997  -4.6610012  82.7515558  51.7619105  -4.0054129
  88.8610012  47.0394997 -16.5230012  89.4410012  47.1894997 -15.7760012
  89.2750012  47.5104997 -17.2460012  88.9962830  47.1236841 -16.5185866
  79.8020012  47.8734997  -4.7460012  79.8730012  48.5244997  -4.0480012
  78.9120012  47.9764997  -5.0810012  79.6913117  47.9765936  -4.6957300
  86.5880012  53.7764997 -13.0880012  87.0620012  54.0714997 -12.3100012
  86.0250012  54.5144997 -13.3210012  86.5767653  53.9166932 -13.0129864
  81.1220012  53.7474997  -3.2120012  81.1290012  53.6114997  -4.1590012
  80.2060012  53.6294997  -2.9600012  80.9991714  53.7129430  -3.3075334
  92.5600012  38.7894997 -16.7100012  91.6600012  38.9284997 -16.4150012
  92.8120012  39.6204997 -17.1120012  92.4708702  38.9209074 -16.7239795
  80.6260012  47.5774997 -14.7360012  80.3340012  48.3454997 -15.2270012
  79.9520012  46.9174997 -14.8990012  80.4949081  47.5934406 -14.8252660
  93.7490012  53.1554997 -18.3340012  93.8230012  54.0944997 -18.1630012
  94.6550012  52.8504997 -18.3900012  93.8815100  53.2426722 -18.3181881
  76.7190012  49.9404997  -5.9210012  76.2180012  49.9124997  -6.7360012
  76.7240012  49.0344997  -5.6120012  76.6511526  49.8142278  -5.9907128
  76.4690012  52.7204997  -9.0370012  77.4150012  52.5764997  -9.0560012
  76.3570012  53.5044997  -8.5000012  76.5832727  52.8068046  -8.9669928
  94.6670012  53.3864997  -3.3550012  94.6180012  52.4314997  -3.3920012
  93.8400012  53.6544997  -2.9540012  94.5484940  53.2918998  -3.3058625
  85.6460012  52.9604997  -4.4790012  85.7330012  53.7864997  -4.0040012
  84.7820012  52.6304997  -4.2300012  85.5411964  53.0289878  -4.3803451
  86.0600012  56.7324997 -14.6730012  85.9850012  56.6114997 -15.6190012
  86.0930012  57.6824997 -14.5540012  86.0541848  56.8442500 -14.7865166
  79.7130012  55.5214997 -12.8920012  79.8660012  55.1734997 -12.0130012
  78.8630012  55.1654997 -13.1470012  79.6188962  55.4256650 -12.8061660
  89.1620012  55.8864997 -17.6710012  89.5370012  55.1424997 -18.1410012
  89.1660012  55.6164997 -16.7520012  89.2138915  55.7481486 -17.6112176
  88.8310012  55.8124997 -14.9210012  87.8950012  55.9124997 -14.7430012
  89.1110012  55.1034997 -14.3430012  88.7408255  55.7302711 -14.8184609
  91.8190012  44.8794997  -2.8750012  91.4120012  45.3604997  -3.5960012
  91.8600012  43.9744997  -3.1830012  91.7688437  44.8229374  -3.0153317
  78.9680012  51.2634997  -4.8780012  79.1840012  50.9024997  -4.0190012
  78.1130012  50.8894997  -5.0880012  78.8819292  51.1634111  -4.7886614
  81.5870012  39.7334997  -8.8830012  80.7250012  39.6464997  -9.2900012
  81.5640012  40.5894997  -8.4550012  81.4660330  39.8372765  -8.8808137
  86.2500012  39.4554997  -5.5080012  86.6700012  39.0404997  -4.7550012
  85.3170012  39.2774997  -5.3910012  86.1813644  39.3745900  -5.3890461
  89.5760012  43.2114997  -4.6550012  89.0620012  43.0854997  -3.8570012
  89.4210012  44.1234997  -4.8990012  89.4846852  43.3176132  -4.5787842
  90.3390012  48.0724997 -18.8930012  90.3810012  47.8494997 -19.8230012
  91.1880012  48.4714997 -18.7030012  90.4595396  48.0959155 -18.9946373
  85.9110012  41.9484997 -18.2230012  85.6580012  41.9674997 -17.3000012
  85.6550012  41.0764997 -18.5240012  85.8417790  41.8332437 -18.1373737
  81.6780012  44.6994997  -7.7880012  81.0360012  44.6584997  -7.0790012
  81.7150012  45.6254997  -8.0250012  81.5951324  44.8191559  -7.7230176
  81.6750012  44.9204997 -12.8760012  80.7820012  44.5794997 -12.9340012
  82.1250012  44.5434997 -13.6310012  81.6137305  44.8228484 -12.9860823
  87.2100012  45.3364997 -14.0590012  86.8010012  46.1514997 -14.3500012
  87.9310012  45.1964997 -14.6730012  87.2514537  45.4292018 -14.1818658
  86.3120012  45.5114997  -2.5710012  85.7500012  44.8074997  -2.2500012
  87.1390012  45.3914997  -2.1030012  86.3467095  45.3987883  -2.4637670
  88.2150012  44.7824997 -11.2450012  88.0200012  45.3874997 -11.9600012
  88.3960012  43.9484997 -11.6790012  88.2127614  44.7526300 -11.4015595
  79.4280012  45.0194997  -5.9210012  79.3900012  45.4194997  -5.0520012
  78.9370012  44.2024997  -5.8300012  79.3564684  44.9638069  -5.7898941
  82.7940012  42.3934997 -19.1220012  82.3630012  41.9484997 -18.3920012
  82.0760012  42.7654997 -19.6340012  82.6379438  42.3828940 -19.0913201
  76.0360012  42.1354997 -12.0700012  76.6670012  42.1064997 -11.3510012
  76.4850012  41.7104997 -12.8000012  76.1830774  42.0740492 -12.0703447
  77.3100012  42.8814997 -16.6460012  77.7840012  43.4724997 -17.2310012
  76.5930012  43.4124997 -16.2990012  77.2779341  43.0340867 -16.6791164
  87.4790012  46.4204997  -6.5730012  87.8020012  45.7894997  -7.2160012
  87.0390012  45.8854997  -5.9130012  87.4636895  46.2618441  -6.5717150
  84.2560012  42.3474997 -11.7890012  83.3450012  42.4044997 -11.5010012
  84.7620012  42.2874997 -10.9790012  84.1995413  42.3471985 -11.6399378
  79.0850012  43.9764997 -12.9630012  78.1950012  44.0764997 -13.3030012
  79.3810012  43.1344997 -13.3090012  79.0032823  43.8763545 -13.0562787
  82.7380012  43.9764997 -15.3060012  83.6690012  44.1054997 -15.1280012
  82.5230012  44.6464997 -15.9560012  82.8364247  44.0846565 -15.3694253
  88.6610012  41.5824997  -8.5250012  87.9850012  41.7134997  -7.8610012
  88.1760012  41.4274997  -9.3350012  88.5027145  41.5794905  -8.5435483
  81.4120012  45.1714997 -17.7390012  80.8690012  44.7914997 -18.4310012
  82.2450012  45.3654997 -18.1680012  81.4504399  45.1458124 -17.8915474
  91.9490012  57.2544997  -2.2480012  92.1490012  57.6784997  -3.0830012
  92.6040012  57.5974997  -1.6410012  92.0650051  57.3589648  -2.2802164
  79.5470012  49.7284997  -2.6400012  80.2790012  49.9824997  -2.0790012
  78.7670012  49.9324997  -2.1250012  79.5418232  49.7909177  -2.4934240
  85.5760012  45.1354997  -9.9020012  86.1410012  44.5884997 -10.4490012
  85.4290012  44.6134997  -9.1140012  85.6332918  44.9902024  -9.8701546
  80.5780012  41.2714997 -13.4840012  80.2610012  40.3694997 -13.5190012
  81.3600012  41.2734997 -14.0370012  80.6402284  41.1481628 -13.5635217
  84.2030012  43.5234997  -7.4880012  83.3670012  43.9774997  -7.3780012
  84.7270012  43.7994997  -6.7360012  84.1594414  43.6229376  -7.3712864
  84.7470012  49.7364997 -15.8040012  84.0020012  49.2294997 -16.1260012
  84.6130012  49.7854997 -14.8570012  84.6268776  49.6736940 -15.7201353
  91.8970012  48.8694997  -7.0170012  92.5390012  49.3264997  -7.5610012
  91.0670012  48.9824997  -7.4800012  91.8725963  48.9472704  -7.1539823
  88.6450012  42.5504997 -17.6040012  87.7060012  42.6624997 -17.7560012
  88.9420012  43.4074997 -17.2980012  88.5567666  42.6816443 -17.5834232
  86.2660012  49.9204997  -4.5670012  85.9210012  49.5394997  -3.7600012
  86.0660012  50.8544997  -4.4950012  86.1918061  49.9945228  -4.4469039
  89.3630012  44.4174997 -15.9440012  90.2550012  44.2804997 -15.6250012
  89.4200012  45.2084997 -16.4800012  89.4926285  44.5056660 -15.9728309
  79.8720012  49.0314997 -10.0340012  80.6170012  49.0294997 -10.6350012
  79.9500012  48.2084997  -9.5520012  79.9845518  48.9199315 -10.0511071
  86.8730012  51.1954997 -16.7780012  86.5770012  52.0214997 -16.3970012
  86.1700012  50.5754997 -16.5820012  86.7374914  51.2248199 -16.6993557
  76.8800012  47.4924997  -4.7190012  77.1030012  47.0744997  -3.8870012
  76.2780012  46.8794997  -5.1420012  76.8291759  47.3524668  -4.6622978
  83.8960012  47.0094997  -2.5060012  83.6000012  46.8434997  -3.4010012
  84.8280012  46.7894997  -2.5170012  83.9814166  46.9570640  -2.6299464
  88.5170012  52.3824997  -4.6160012  87.6160012  52.5654997  -4.8840012
  88.5510012  52.6414997  -3.6950012  88.3983041  52.4425512  -4.5281803
  94.2480012  44.6274997 -16.2490012  93.6940012  44.2314997 -16.9210012
  94.3480012  45.5374997 -16.5270012  94.1857059  44.6963586 -16.3785599
  94.2110012  50.4274997  -3.4120012  93.3600012  50.6654997  -3.7790012
  94.8020012  50.4104997  -4.1650012  94.1742487  50.4578258  -3.5641107
  92.5430012  53.4134997 -15.7840012  92.1700012  52.5874997 -15.4750012
  92.8210012  53.2304997 -16.6810012  92.5295630  53.2757303 -15.8630374
  89.7040012  48.2214997  -8.7630012  88.7750012  47.9894997  -8.7900012
  90.1550012  47.4444997  -9.0930012  89.6379216  48.0847238  -8.8113083
  82.2470012  52.5494997 -12.6300012  82.7740012  53.3224997 -12.8300012
  81.3670012  52.7744997 -12.9310012  82.2001773  52.6858005 -12.6980990
  78.0020012  47.4114997 -18.0430012  78.6180012  48.0384997 -17.6630012
  77.1400012  47.7274997 -17.7710012  77.9697698  47.5399430 -17.9542817
  83.6740012  50.2124997 -13.0530012  83.4330012  51.1374997 -13.0120012
  82.9330012  49.7534997 -12.6570012  83.5408409  50.2771421 -12.9938623
  84.1890012  54.3614997  -6.7380012  84.5510012  55.2164997  -6.9720012
  84.7200012  54.0694997  -5.9980012  84.3104473  54.4391060  -6.6699145
  82.3570012  55.2344997 -13.5080012  81.4070012  55.3394997 -13.4570012
  82.7090012  56.0544997 -13.1630012  82.2744203  55.3598314 -13.4543350
  87.7330012  50.4604997  -7.0380012  87.3070012  50.2334997  -6.2110012
  88.3130012  49.7224997  -7.2200012  87.7531868  50.3295299  -6.9494170
  89.9360012  51.3894997 -17.9640012  90.2890012  51.0094997 -17.1590012
  88.9870012  51.2964997 -17.8770012  89.8560441  51.3249596 -17.8421441
  90.3910012  55.0124997  -4.5680012  89.7900012  54.4574997  -5.0640012
  90.6730012  55.6794997  -5.1940012  90.3468519  55.0266841  -4.7205048
  94.4390012  55.8694997 -17.7630012  95.1830012  56.4554997 -17.9030012
  93.7450012  56.4374997 -17.4290012  94.4470292  56.0265582 -17.7370039
  78.5140012  42.2454997  -5.1610012  77.6210012  42.5844997  -5.2290012
  78.4150012  41.3904997  -4.7430012  78.3784164  42.1762588  -5.1137765
  90.8020012  50.0624997 -15.7370012  90.5240012  49.3344997 -15.1810012
  91.7290012  50.1814997 -15.5320012  90.8893124  49.9788802 -15.6331155
  78.1650012  54.0504997  -6.7260012  78.3820012  53.1184997  -6.7570012
  78.4110012  54.3244997  -5.8430012  78.2279549  53.9600636  -6.6108237
  84.0270012  52.5014997 -19.5170012  84.2660012  51.7534997 -20.0640012
  83.7580012  52.1134997 -18.6840012  84.0233675  52.3466638 -19.4793135
  82.9640012  52.0714997 -17.0600012  83.1100012  51.5514997 -16.2700012
  82.9610012  52.9784997 -16.7540012  82.9835989  52.1228853 -16.9103912
  79.4170012  49.3244997 -16.5500012  78.7310012  49.6764997 -15.9830012
  79.9390012  50.0874997 -16.7970012  79.3936852  49.4758578 -16.5057882
  87.2480012  41.9864997  -6.2710012  87.9470012  42.0604997  -5.6210012
  86.8670012  41.1224997  -6.1170012  87.2921767  41.8797624  -6.1611678
  88.0330012  41.6384997 -15.1740012  88.2530012  42.1104997 -15.9770012
  88.5910012  42.0334997 -14.5040012  88.1384968  41.7564285 -15.1932669
  85.7010012  53.7694997 -16.3110012  84.8850012  54.2664997 -16.2590012
  86.2310012  54.2444997 -16.9510012  85.6609161  53.9017722 -16.3904044
  85.2330012  43.3664997 -14.3390012  86.0450012  43.8714997 -14.2930012
  84.9880012  43.2214997 -13.4250012  85.3110520  43.4160375 -14.2091483
  85.7680012  44.3524997  -5.1540012  85.8870012  44.9264997  -4.3970012
  86.4240012  43.6644997  -5.0400012  85.8729757  44.3381079  -5.0349175
  86.1160012  40.4474997 -13.4010012  85.7700012  41.0654997 -12.7560012
  86.7750012  40.9484997 -13.8820012  86.1577826  40.5995802 -13.3779029
  83.0400012  54.8134997 -16.3290012  83.2000012  55.6124997 -16.8300012
  82.8420012  55.1194997 -15.4440012  83.0351649  54.9644469 -16.2780185
  81.7740012  41.5104997 -16.7140012  81.6910012  42.3994997 -16.3670012
  82.6640012  41.2454997 -16.4820012  81.8829469  41.5961430 -16.6352374
  91.9730012  42.2594997  -4.3190012  91.0560012  42.5224997  -4.4070012
  92.3080012  42.2564997  -5.2160012  91.8929900  42.2950224  -4.4522081
  90.5750012  46.0104997 -10.2240012  89.7770012  45.5954997 -10.5520012
  91.0200012  45.3194997  -9.7330012  90.5259885  45.8603543 -10.2025111
  80.0330012  51.9384997 -17.6530012  80.6250012  52.6374997 -17.3770012
  80.4920012  51.5054997 -18.3730012  80.1761142  51.9757049 -17.7125170
  78.3490012  44.6024997 -18.5370012  78.3040012  45.5414997 -18.3590012
  77.4610012  44.3664997 -18.8070012  78.2228574  44.6991892 -18.5491088
  91.6610012  55.2664997  -8.6010012  91.5060012  55.9444997  -9.2580012
  92.5940012  55.3384997  -8.3980012  91.7658500  55.3690170  -8.6634881
  79.1570012  39.3844997  -9.8640012  78.9280012  39.4434997 -10.7920012
  78.7140012  38.5924997  -9.5580012  79.0658530  39.2855753  -9.9495214
  78.0870012  53.3244997 -13.7040012  77.2550012  53.7974997 -13.6760012
  78.6330012  53.8344997 -14.3020012  78.0469739  53.4581871 -13.7810284
  77.3750012  55.9374997  -2.3740012  77.9160012  55.7204997  -1.6140012
  76.8940012  55.1314997  -2.5630012  77.3839345  55.7989514  -2.2956924
  81.9730012  54.8564997  -0.7530012  82.7400012  54.3974997  -0.4120012
  81.9510012  54.6304997  -1.6830012  82.0751434  54.7630409  -0.8319957
  86.0650012  54.3644997 -19.3780012  85.4210012  53.7334997 -19.0570012
  86.8270012  53.8334997 -19.6100012  86.0798077  54.2062920 -19.3653989
  88.5500012  53.2364997  -2.0240012  88.1990012  52.3804997  -1.7810012
  89.2760012  53.3794997  -1.4170012  88.6000769  53.1385636  -1.9086381
  90.6690012  54.1814997 -19.1440012  90.9520012  53.3874997 -18.6920012
  91.4090012  54.4144997 -19.7050012  90.8077486  54.1042803 -19.1579302
  77.2820012  49.7474997  -1.4190012  77.4260012  48.8454997  -1.7060012
  76.5100012  50.0334997  -1.9070012  77.1973322  49.6628261  -1.5242119
  81.6240012  50.0914997 -19.2870012  81.6880012  49.2974997 -18.7560012
  82.2770012  49.9724997 -19.9770012  81.7210241  49.9667148 -19.3075683
  83.9380012  49.7174997  -1.9870012  83.6090012  49.9884997  -2.8440012
  84.0900012  48.7764997  -2.0740012  83.9134809  49.6273862  -2.1161756
  89.6720012  49.6334997  -4.6030012  90.4180012  50.2214997  -4.7230012
  88.9150012  50.2154997  -4.5400012  89.6717554  49.7927011  -4.6109093
  78.1150012  46.9474997  -1.9990012  78.5230012  46.0904997  -2.1200012
  77.8550012  46.9624997  -1.0780012  78.1357568  46.8320807  -1.8910412
  82.7730012  48.0634997 -16.9810012  82.3130012  47.5794997 -16.2950012
  83.0280012  47.3954997 -17.6170012  82.7444902  47.9068731 -16.9730666
  82.0620012  45.9564997  -4.6250012  81.4440012  46.6314997  -4.3450012
  82.4060012  46.2774997  -5.4580012  82.0239615  46.0922721  -4.6993419
  83.8440012  46.3064997 -18.7190012  83.6640012  46.1524997 -19.6460012
  84.7940012  46.4144997 -18.6740012  83.9477776  46.3000175 -18.8398157
  87.0820012  48.4284997  -1.3480012  88.0350012  48.5114997  -1.3750012
  86.9210012  47.7164997  -0.7280012  87.1906426  48.3436746  -1.2679421
  93.2340012  48.6614997 -19.2730012  92.9600012  48.2364997 -20.0860012
  93.2730012  49.5924997 -19.4900012  93.2017699  48.7292484 -19.4136390
  82.4010012  43.3114997  -3.5430012  82.5510012  42.5824997  -4.1450012
  82.4040012  44.0884997  -4.1020012  82.4219302  43.3167851  -3.7009308
  82.8140012  41.6814997  -6.0500012  83.3500012  42.1324997  -6.7020012
  81.9620012  41.5734997  -6.4730012  82.7722178  41.7286390  -6.1964244
  84.3960012  47.1204997  -5.8110012  85.1460012  46.9644997  -6.3840012
  84.0570012  47.9724997  -6.0860012  84.4528921  47.2142968  -5.9266439
  88.8110012  44.9354997  -0.7820012  89.0040012  44.0044997  -0.8940012
  89.6690012  45.3604997  -0.7920012  88.9533020  44.8656389  -0.7986639
  90.1280012  47.7244997  -2.7050012  89.8470012  48.4334997  -3.2820012
  91.0710012  47.6514997  -2.8560012  90.2169027  47.8117646  -2.8044449
  80.8800012  44.5094997  -1.6310012  80.1130012  43.9774997  -1.8410012
  81.5590012  44.1994997  -2.2310012  80.8667022  44.3947506  -1.7408352
  83.6200012  39.1374997  -5.6190012  83.5210012  40.0844997  -5.7240012
  82.8770012  38.7654997  -6.0940012  83.5060564  39.2165902  -5.6975440
  84.8840012  43.4594997  -2.0550012  84.6480012  43.2394997  -1.1530012
  84.1000012  43.2524997  -2.5650012  84.7458628  43.4014760  -2.0006068
  87.5990012  42.5864997  -2.9790012  86.6520012  42.6184997  -2.8470012
  87.9120012  41.9614997  -2.3260012  87.5115475  42.5063207  -2.8725545
  89.2330012  41.2204997  -0.9740012  89.1370012  40.2684997  -0.9800012
  88.9120012  41.4894997  -0.1140012  89.1764070  41.1264035  -0.8584559
  79.0600012  42.4304997  -1.9270012  79.2720012  41.7234997  -2.5370012
  78.9490012  41.9924997  -1.0830012  79.0739721  42.2747084  -1.8963157
  83.8410012  38.4314997  -2.9470012  84.5530012  37.7914997  -2.9610012
  83.7400012  38.6984997  -3.8610012  83.9247939  38.3799938  -3.0724350
  84.1950012  40.1144997  -0.8940012  84.0630012  39.6384997  -1.7140012
  83.5960012  40.8584997  -0.9490012  84.0959071  40.1499618  -1.0137114
  83.7410012  56.9974997 -17.7170012  84.6740012  57.1554997 -17.5740012
  83.4770012  57.6724997 -18.3420012  83.8329510  57.1103611 -17.7819259
  77.3100012  51.6334997 -18.2350012  78.2240012  51.7124997 -17.9610012
  77.3170012  50.9464997 -18.9010012  77.4361131  51.5513961 -18.2875607
  75.9590012  57.0264997 -13.1570012  75.3120012  56.5644997 -13.6900012
  76.3130012  56.3544997 -12.5750012  75.9183849  56.8724723 -13.1512041
  76.8290012  55.1074997 -11.3530012  76.4940012  54.2274997 -11.1810012
  77.0510012  55.4524997 -10.4880012  76.8131783  55.0337500 -11.2125792
  94.3770012  55.9164997  -8.3720012  94.3560012  56.1014997  -7.4330012
  95.0680012  56.4854997  -8.7130012  94.4674618  56.0186606  -8.2896136
  93.9410012  55.4844997  -5.4500012  93.4530012  54.7484997  -5.8210012
  94.4900012  55.0904997  -4.7720012  93.9484872  55.3306249  -5.4090840
  92.3910012  51.2734997  -0.8120012  91.5250012  51.1684997  -0.4180012
  92.7680012  52.0324997  -0.3660012  92.3233308  51.3616900  -0.6977607
  93.6920012  49.5304997 -15.2980012  94.5420012  49.9514997 -15.1710012
  93.6980012  48.7904997 -14.6910012  93.8091372  49.4880803 -15.1985656
  94.0870012  47.5834997 -13.4740012  93.3600012  47.1044997 -13.0770012
  94.6680012  47.7894997 -12.7420012  94.0659375  47.5457090 -13.3205871
  93.8460012  50.3684997  -8.5270012  94.6790012  49.9904997  -8.8070012
  93.9580012  51.3114997  -8.6460012  93.9752647  50.4442218  -8.5814513
  92.3320012  53.2464997  -6.2200012  91.6850012  53.5714997  -5.5940012
  91.8150012  52.8064997  -6.8940012  92.1734029  53.2315004  -6.2254173
  94.3550012  47.4844997 -17.0830012  93.8330012  47.8414997 -17.8020012
  94.3220012  48.1594997 -16.4050012  94.2791634  47.6245413 -17.0896855
  92.7040012  44.7244997 -18.5320012  92.8000012  45.3914997 -19.2130012
  92.5640012  43.9084997 -19.0140012  92.6982135  44.7054500 -18.6901509
  91.8730012  46.1044997 -12.9110012  91.7230012  45.1594997 -12.9320012
  91.5200012  46.3854997 -12.0680012  91.8046625  46.0130441 -12.7997654
  76.9090012  48.1824997  -8.9010012  77.0930012  48.1004997  -9.8370012
  77.7580012  48.0584997  -8.4770012  77.0490139  48.1545003  -8.9718545
  92.7300012  48.0744997  -3.2730012  93.3130012  47.3404997  -3.0810012
  93.2940012  48.8464997  -3.2260012  92.8859769  48.0784227  -3.2403841
  94.2260012  45.9774997  -2.5880012  93.3630012  45.5984997  -2.7540012
  94.8310012  45.2384997  -2.6620012  94.1895979  45.8258023  -2.6207183
  91.9510012  42.1324997 -19.4150012  92.5620012  41.7614997 -18.7780012
  91.1150012  41.7114997 -19.2190012  91.9215032  42.0247554 -19.3012965
  91.5840012  43.6874997 -14.4490012  91.8640012  42.7804997 -14.3250012
  92.3430012  44.1214997 -14.8380012  91.7249277  43.6220942 -14.4846318
  92.1960012  44.2684997  -9.0130012  93.1290012  44.4804997  -9.0470012
  91.9610012  44.3704997  -8.0910012  92.2918036  44.3112769  -8.8930024
  92.2250012  45.0054997  -6.2370012  91.3820012  45.2734997  -5.8710012
  92.6670012  45.8274997  -6.4480012  92.1694158  45.1533291  -6.2154509
  76.5060012  43.4534997  -2.7600012  77.4260012  43.3314997  -2.5240012
  76.0570012  42.7034997  -2.3710012  76.5711580  43.3353727  -2.6750994
  94.5080012  38.9854997  -0.8840012  94.8580012  38.3314997  -1.4890012
  94.6550012  39.8224997  -1.3230012  94.5758419  39.0091591  -1.0262882
  92.1970012  40.9504997 -14.4010012  92.3800012  40.5014997 -13.5750012
  91.5980012  40.3654997 -14.8640012  92.1410202  40.8099975 -14.3506725
  77.7270012  41.7654997  -9.8690012  78.1730012  40.9734997  -9.5670012
  78.1940012  42.4814997  -9.4380012  77.8510172  41.7540624  -9.7695180
  76.0310012  44.7644997  -8.8000012  76.5230012  44.5434997  -9.5910012
  76.3940012  45.6054997  -8.5190012  76.1473126  44.8478357  -8.8702469
  94.0280012  41.0944997  -2.5340012  93.1100012  41.3654997  -2.5700012
  94.1510012  40.5594997  -3.3190012  93.9191066  41.0592892  -2.6449513
  94.0640012  41.0174997 -17.8730012  94.4760012  40.2964997 -18.3480012
  94.7460012  41.6874997 -17.8140012  94.2125885  41.0092368 -17.9301085
  76.3450012  41.0224997 -14.7460012  75.4200012  41.2314997 -14.8750012
  76.7990012  41.5064997 -15.4350012  76.2797368  41.1165993 -14.8568774
  91.1160012  56.0064997 -12.8000012  91.7680012  55.6594997 -13.4080012
  91.6260012  56.4954997 -12.1540012  91.2742637  56.0250597 -12.7959764
  76.3090012  39.7604997  -6.4010012  75.6440012  39.5144997  -5.7580012
  75.8660012  40.3824997  -6.9790012  76.1580956  39.8108632  -6.3910648
  78.5010012  52.9354997  -2.2570012  77.6800012  53.1104997  -2.7170012
  78.2480012  52.8624997  -1.3360012  78.3546164  52.9495622  -2.1955077
  81.4550012  53.9104997  -5.9980012  81.0300012  54.7194997  -6.2810012
  82.3590012  53.9954997  -6.3000012  81.5190271  54.0328469  -6.0776224
  85.7660012  55.3094997  -3.0390012  85.9510012  54.9754997  -2.1610012
  86.6120012  55.6184997  -3.3610012  85.9057539  55.3056047  -2.9624395
  88.1110012  56.5954997  -3.7950012  88.7880012  55.9624997  -4.0350012
  88.4330012  56.9964997  -2.9880012  88.2471637  56.5631154  -3.7187207
  93.0280012  39.1844997  -4.7150012  92.2160012  39.5094997  -5.1030012
  93.2610012  38.4244997  -5.2480012  92.9483423  39.1262436  -4.8401747
  78.8570012  57.1664997  -5.9510012  78.1360012  57.6064997  -6.4020012
  78.4910012  56.9154997  -5.1020012  78.7089804  57.1927698  -5.8980160
  81.3240012  56.7664997  -6.9210012  80.4590012  56.8384997  -6.5170012
  81.2690012  57.3134997  -7.7050012  81.1982085  56.8502685  -6.9716638
  86.0340012  56.6544997  -7.7460012  85.5780012  57.1834997  -8.4000012
  86.1970012  57.2574997  -7.0200012  85.9935585  56.8084468  -7.7374938
  88.3620012  55.5324997  -6.8010012  87.4570012  55.6974997  -7.0660012
  88.7910012  56.3854997  -6.8660012  88.2960799  55.6704483  -6.8460818
  90.9660012  57.1024997  -6.5060012  90.7840012  58.0184997  -6.7160012
  91.1430012  56.6924997  -7.3520012  90.9650210  57.1724822  -6.6492115
  78.2710012  55.7894997  -9.0410012  78.2530012  55.3644997  -8.1830012
  79.0760012  55.4714997  -9.4490012  78.3773875  55.6883812  -8.9788345
  80.4130012  54.4994997 -10.3860012  80.1940012  53.5834997 -10.2160012
  81.2370012  54.6394997  -9.9200012  80.4944420  54.3930520 -10.2997226
  82.9500012  54.9694997  -9.5370012  83.1630012  54.0814997  -9.8240012
  83.0140012  54.9354997  -8.5830012  82.9878232  54.8433102  -9.4472603
  86.4580012  40.6334997 -10.3930012  85.7840012  40.0044997 -10.1370012
  87.0220012  40.1494997 -10.9960012  86.4419230  40.4818744 -10.4394660
  91.6010012  38.7414997 -10.2800012  92.2050012  39.2884997 -10.7820012
  90.7310012  39.0604997 -10.5200012  91.5661241  38.8595806 -10.3812346
  93.3280012  39.8794997 -11.9470012  93.9400012  39.3654997 -12.4730012
  93.7100012  40.7574997 -11.9230012  93.4634540  39.9277140 -12.0158170
  78.7850012  39.2674997 -12.5710012  78.0080012  39.0334997 -13.0780012
  79.3150012  38.4704997 -12.5620012  78.7502330  39.1276988 -12.6392258
  77.6210012  39.0654997 -16.7670012  78.0600012  39.6764997 -17.3590012
  76.9880012  39.6034997 -16.2930012  77.5954514  39.2219257 -16.7839070
  83.3640012  39.1944997 -12.7570012  84.2390012  39.5824997 -12.7870012
  83.2280012  38.9794997 -11.8350012  83.4653695  39.2185184 -12.6363560
  88.9210012  39.2244997 -11.1080012  88.9970012  39.3194997 -12.0580012
  88.6460012  38.3164997 -10.9790012  88.8942321  39.1147867 -11.2204921
  90.2740012  39.2504997 -15.4160012  89.5720012  39.8654997 -15.6250012
  89.8300012  38.4124997 -15.2850012  90.1176330  39.2215783 -15.4269672
  77.5220012  55.0134997 -15.8690012  76.8370012  54.9754997 -16.5370012
  77.5260012  55.9264997 -15.5810012  77.4288193  55.1317016 -15.9214716
  79.4820012  40.9814997 -18.3250012  79.9740012  40.3514997 -18.8520012
  80.1060012  41.2774997 -17.6610012  79.6335446  40.9353199 -18.3074020
  84.5080012  41.2744997 -15.8680012  84.6860012  40.6284997 -15.1850012
  84.4550012  42.1084997 -15.4000012  84.5251829  41.2987985 -15.7114060
  86.3870012  56.2234997 -17.4720012  87.2530012  56.5894997 -17.6500012
  86.1400012  55.7834997 -18.2860012  86.4722392  56.2141756 -17.6063711
  93.0960012  55.7864997 -14.7930012  92.9010012  55.0384997 -15.3580012
  93.0570012  56.5444997 -15.3760012  93.0640380  55.7866099 -14.9491616
  78.7430012  39.7814997  -3.0530012  78.3770012  39.0164997  -2.6100012
  79.6560012  39.8104997  -2.7660012  78.8162790  39.6807224  -2.9535930
  80.7160012  39.1324997  -1.5170012  81.6140012  38.8584997  -1.7020012
  80.3290012  38.3894997  -1.0530012  80.7866612  38.9945914  -1.4796357
  79.3400012  55.9334997 -18.8440012  79.0730012  56.2204997 -17.9710012
  80.1120012  55.3874997 -18.6920012  79.4077488  55.8990294 -18.7038950
  89.1370012  38.4644997  -1.3350012  89.2140012  38.0384997  -0.4810012
  90.0310012  38.4784997  -1.6780012  89.2683428  38.4080879  -1.2644690
  92.3130012  54.5374997  -2.6430012  91.5310012  54.3514997  -3.1620012
  92.2410012  55.4664997  -2.4250012  92.1961777  54.6376492  -2.6845952
 106.7190012  48.4234997 -12.6120012 106.8080012  49.3674997 -12.7440012
 106.0810012  48.1484997 -13.2700012 106.6449081  48.5154830 -12.7190386
 105.6520012  47.6784997  -9.1930012 105.6140012  47.0324997  -8.4880012
 105.3300012  47.2124997  -9.9640012 105.6032333  47.5269408  -9.2007022
  98.0210012  47.2934997  -7.6000012  98.0620012  46.6674997  -6.8770012
  98.7240012  47.9174997  -7.4180012  98.1216363  47.2921196  -7.4763956
 109.3580012  50.6174997 -10.8920012 108.9180012  49.8974997 -10.4410012
 109.3450012  51.3384997 -10.2620012 109.2960226  50.6163731 -10.7451506
  98.9440012  51.7434997  -9.0650012  98.5750012  50.9414997  -9.4350012
  99.8850012  51.5744997  -9.0190012  99.0207289  51.6110153  -9.1093684
  95.5540012  45.4034997 -13.6720012  95.1070012  46.2494997 -13.6910012
  94.9930012  44.8234997 -14.1880012  95.4169900  45.4409916 -13.7443199
  96.2650012  47.5654997 -11.5460012  96.4780012  46.7954997 -11.0190012
  97.0030012  47.6544997 -12.1500012  96.3938496  47.4721394 -11.5554700
 106.4700012  55.7224997 -10.6790012 107.0900012  55.0454997 -10.9530012
 106.2620012  55.5044997  -9.7710012 106.5266904  55.6003870 -10.5936635
 104.0420012  50.1114997  -8.7870012 104.3460012  49.4254997  -9.3820012
 104.7630012  50.2294997  -8.1690012 104.1810671  50.0336305  -8.7848184
 112.7050012  41.7124997  -7.9260012 112.7540012  42.3224997  -7.1900012
 113.1300012  42.1734997  -8.6490012 112.7691824  41.8583741  -7.9229795
 107.1830012  44.5054997  -8.4590012 107.3250012  43.5594997  -8.4390012
 107.0760012  44.7124997  -9.3880012 107.1879864  44.4039534  -8.5817661
 100.3370012  42.6064997 -11.1870012 100.3810012  43.4664997 -11.6050012
  99.8800012  42.0544997 -11.8210012 100.2812185  42.6495799 -11.3299701
 108.0600012  42.7374997 -12.7860012 108.7060012  42.4084997 -12.1610012
 108.5700012  43.2554997 -13.4090012 108.2174264  42.7624611 -12.7846138
  96.9580012  45.0034997 -10.4250012  97.6110012  44.4534997  -9.9930012
  96.9820012  44.7294997 -11.3420012  97.0506683  44.8911466 -10.4897877
 102.1140012  46.5534997 -11.2100012 102.7300012  46.0274997 -10.7000012
 101.5280012  45.9134997 -11.6130012 102.1190810  46.3949208 -11.1946827
 113.0960012  43.1904997  -5.6900012 112.4080012  43.8484997  -5.7860012
 113.1120012  42.9934997  -4.7540012 113.0038525  43.2540462  -5.5765192
  99.1480012  41.5244997  -7.1130012  98.9290012  42.0544997  -7.8790012
  98.4800012  41.7514997  -6.4660012  99.0277600  41.6276906  -7.1303621
 106.5170012  51.0244997 -13.5690012 106.2210012  50.7024997 -14.4200012
 106.1920012  51.9244997 -13.5280012 106.4326371  51.1020215 -13.6798199
 101.7170012  49.2004997  -6.8260012 100.9770012  49.7984997  -6.7220012
 102.4310012  49.7544997  -7.1410012 101.7122237  49.3572831  -6.8543535
 109.8240012  42.0284997 -10.8060012 109.6080012  41.2624997 -10.2730012
 110.4790012  42.5004997 -10.2930012 109.8830632  41.9875889 -10.6637139
  98.7410012  43.4164997  -9.1610012  99.3550012  44.0494997  -8.7870012
  99.2530012  42.9444997  -9.8170012  98.8942296  43.4392370  -9.1985748
 100.1240012  51.1644997  -6.0380012 100.1190012  52.0444997  -6.4160012
  99.2710012  51.0814997  -5.6130012 100.0079464  51.2736117  -6.0322093
  96.2450012  50.8354997 -15.2560012  95.9730012  51.0644997 -16.1450012
  96.2910012  51.6734997 -14.7960012  96.2140094  50.9801213 -15.3154303
 109.8700012  52.4574997  -8.5440012 108.9290012  52.5154997  -8.3820012
 110.1470012  53.3634997  -8.6810012 109.7784679  52.5879443  -8.5403185
 110.1710012  40.7434997  -7.1260012 109.4350012  41.3544997  -7.1640012
 110.8540012  41.1584997  -7.6530012 110.1626541  40.8831374  -7.2024168
 103.1740012  38.8304997  -9.6600012 103.0570012  37.8814997  -9.7150012
 102.3190012  39.1624997  -9.3870012 103.0423733  38.7455409  -9.6306103
 108.1220012  54.2384997 -11.9180012 108.5480012  53.5314997 -12.4030012
 108.4390012  55.0394997 -12.3350012 108.2231019  54.2500994 -12.0406870
 109.2820012  52.1394997 -13.4100012 109.0240012  51.4494997 -14.0210012
 109.3530012  51.6964997 -12.5640012 109.2562856  51.9852124 -13.3793115
 110.9680012  50.7054997  -4.9320012 111.1080012  50.1144997  -5.6720012
 111.1350012  51.5784997  -5.2890012 111.0096778  50.7426426  -5.0813035
 105.4410012  47.6674997 -15.1600012 104.7290012  48.2024997 -15.5120012
 106.1320012  47.7234997 -15.8200012 105.4370132  47.7482543 -15.2973711
 105.4940012  46.1254997 -18.1210012 106.1950012  46.1474997 -17.4700012
 105.7970012  45.4974997 -18.7770012 105.6307830  46.0436566 -18.1206289
 112.8100012  47.0454997  -6.8660012 112.1570012  47.7404997  -6.7770012
 113.2750012  47.2554997  -7.6760012 112.7835390  47.1689425  -6.9633117
 108.8460012  47.8774997 -14.2080012 108.1140012  48.1054997 -13.6350012
 109.2940012  47.1634997 -13.7530012 108.8063095  47.8122571 -14.0680881
 108.7440012  46.0514997  -5.1410012 108.8240012  46.8144997  -4.5690012
 108.1420012  46.3304997  -5.8310012 108.6735756  46.1937134  -5.1559411
 100.4920012  48.5074997 -12.3260012 100.1610012  48.1374997 -13.1440012
 101.0800012  47.8374997 -11.9790012 100.5261873  48.3661156 -12.3911898
 101.8580012  51.9354997  -9.6440012 101.7640012  51.3574997 -10.4010012
 102.5880012  51.5644997  -9.1480012 101.9437981  51.8062390  -9.6805835
 100.8580012  47.2764997  -8.6920012 101.4240012  47.3974997  -9.4550012
 101.1770012  47.9134997  -8.0530012 100.9785786  47.3791884  -8.7099960
 107.1670012  52.7794997  -7.9580012 106.9270012  53.4414997  -7.3100012
 106.9690012  51.9454997  -7.5330012 107.1073808  52.7573134  -7.8118476
 101.7380012  51.6754997  -3.9750012 101.4270012  52.4574997  -3.5200012
 101.0880012  51.5224997  -4.6610012 101.6075558  51.7619105  -4.0054129
 107.7170012  47.0394997 -16.5230012 108.2970012  47.1894997 -15.7760012
 108.1310012  47.5104997 -17.2460012 107.8522831  47.1236841 -16.5185866
  98.6580012  47.8734997  -4.7460012  98.7290012  48.5244997  -4.0480012
  97.7680012  47.9764997  -5.0810012  98.5473117  47.9765936  -4.6957300
 105.4440012  53.7764997 -13.0880012 105.9180012  54.0714997 -12.3100012
 104.8810012  54.5144997 -13.3210012 105.4327653  53.9166932 -13.0129864
  99.9780012  53.7474997  -3.2120012  99.9850012  53.6114997  -4.1590012
  99.0620012  53.6294997  -2.9600012  99.8551714  53.7129430  -3.3075334
 111.4160012  38.7894997 -16.7100012 110.5160012  38.9284997 -16.4150012
 111.6680012  39.6204997 -17.1120012 111.3268702  38.9209074 -16.7239795
  99.4820012  47.5774997 -14.7360012  99.1900012  48.3454997 -15.2270012
  98.8080012  46.9174997 -14.8990012  99.3509081  47.5934406 -14.8252660
 112.6050012  53.1554997 -18.3340012 112.6790012  54.0944997 -18.1630012
 113.5110012  52.8504997 -18.3900012 112.7375100  53.2426722 -18.3181881
  95.5750012  49.9404997  -5.9210012  95.0740012  49.9124997  -6.7360012
  95.5800012  49.0344997  -5.6120012  95.5071526  49.8142278  -5.9907128
  95.3250012  52.7204997  -9.0370012  96.2710012  52.5764997  -9.0560012
  95.2130012  53.5044997  -8.5000012  95.4392727  52.8068046  -8.9669928
 113.5230012  53.3864997  -3.3550012 113.4740012  52.4314997  -3.3920012
 112.6960012  53.6544997  -2.9540012 113.4044940  53.2918998  -3.3058625
 104.5020012  52.9604997  -4.4790012 104.5890012  53.7864997  -4.0040012
 103.6380012  52.6304997  -4.2300012 104.3971964  53.0289878  -4.3803451
 104.9160012  56.7324997 -14.6730012 104.8410012  56.6114997 -15.6190012
 104.9490012  57.6824997 -14.5540012 104.9101848  56.8442500 -14.7865166
  98.5690012  55.5214997 -12.8920012  98.7220012  55.1734997 -12.0130012
  97.7190012  55.1654997 -13.1470012  98.4748962  55.4256650 -12.8061660
 108.0180012  55.8864997 -17.6710012 108.3930012  55.1424997 -18.1410012
 108.0220012  55.6164997 -16.7520012 108.0698915  55.7481486 -17.6112176
 107.6870012  55.8124997 -14.9210012 106.7510012  55.9124997 -14.7430012
 107.9670012  55.1034997 -14.3430012 107.5968255  55.7302711 -14.8184609
 110.6750012  44.8794997  -2.8750012 110.2680012  45.3604997  -3.5960012
 110.7160012  43.9744997  -3.1830012 110.6248437  44.8229374  -3.0153317
  97.8240012  51.2634997  -4.8780012  98.0400012  50.9024997  -4.0190012
  96.9690012  50.8894997  -5.0880012  97.7379292  51.1634111  -4.7886614
 100.4430012  39.7334997  -8.8830012  99.5810012  39.6464997  -9.2900012
 100.4200012  40.5894997  -8.4550012 100.3220330  39.8372765  -8.8808137
 105.1060012  39.4554997  -5.5080012 105.5260012  39.0404997  -4.7550012
 104.1730012  39.2774997  -5.3910012 105.0373644  39.3745900  -5.3890461
 108.4320012  43.2114997  -4.6550012 107.9180012  43.0854997  -3.8570012
 108.2770012  44.1234997  -4.8990012 108.3406852  43.3176132  -4.5787842
 109.1950012  48.0724997 -18.8930012 109.2370012  47.8494997 -19.8230012
 110.0440012  48.4714997 -18.7030012 109.3155396  48.0959155 -18.9946373
 104.7670012  41.9484997 -18.2230012 104.5140012  41.9674997 -17.3000012
 104.5110012  41.0764997 -18.5240012 104.6977790  41.8332437 -18.1373737
 100.5340012  44.6994997  -7.7880012  99.8920012  44.6584997  -7.0790012
 100.5710012  45.6254997  -8.0250012 100.4511324  44.8191559  -7.7230176
 100.5310012  44.9204997 -12.8760012  99.6380012  44.5794997 -12.9340012
 100.9810012  44.5434997 -13.6310012 100.4697305  44.8228484 -12.9860823
 106.0660012  45.3364997 -14.0590012 105.6570012  46.1514997 -14.3500012
 106.7870012  45.1964997 -14.6730012 106.1074537  45.4292018 -14.1818658
 105.1680012  45.5114997  -2.5710012 104.6060012  44.8074997  -2.2500012
 105.9950012  45.3914997  -2.1030012 105.2027095  45.3987883  -2.4637670
 107.0710012  44.7824997 -11.2450012 106.8760012  45.3874997 -11.9600012
 107.2520012  43.9484997 -11.6790012 107.0687614  44.7526300 -11.4015595
  98.2840012  45.0194997  -5.9210012  98.2460012  45.4194997  -5.0520012
  97.7930012  44.2024997  -5.8300012  98.2124684  44.9638069  -5.7898941
 101.6500012  42.3934997 -19.1220012 101.2190012  41.9484997 -18.3920012
 100.9320012  42.7654997 -19.6340012 101.4939438  42.3828940 -19.0913201
  94.8920012  42.1354997 -12.0700012  95.5230012  42.1064997 -11.3510012
  95.3410012  41.7104997 -12.8000012  95.0390774  42.0740492 -12.0703447
  96.1660012  42.8814997 -16.6460012  96.6400012  43.4724997 -17.2310012
  95.4490012  43.4124997 -16.2990012  96.1339341  43.0340867 -16.6791164
 106.3350012  46.4204997  -6.5730012 106.6580012  45.7894997  -7.2160012
 105.8950012  45.8854997  -5.9130012 106.3196895  46.2618441  -6.5717150
 103.1120012  42.3474997 -11.7890012 102.2010012  42.4044997 -11.5010012
 103.6180012  42.2874997 -10.9790012 103.0555413  42.3471985 -11.6399378
  97.9410012  43.9764997 -12.9630012  97.0510012  44.0764997 -13.3030012
  98.2370012  43.1344997 -13.3090012  97.8592823  43.8763545 -13.0562787
 101.5940012  43.9764997 -15.3060012 102.5250012  44.1054997 -15.1280012
 101.3790012  44.6464997 -15.9560012 101.6924247  44.0846565 -15.3694253
 107.5170012  41.5824997  -8.5250012 106.8410012  41.7134997  -7.8610012
 107.0320012  41.4274997  -9.3350012 107.3587145  41.5794905  -8.5435483
 100.2680012  45.1714997 -17.7390012  99.7250012  44.7914997 -18.4310012
 101.1010012  45.3654997 -18.1680012 100.3064399  45.1458124 -17.8915474
 110.8050012  57.2544997  -2.2480012 111.0050012  57.6784997  -3.0830012
 111.4600012  57.5974997  -1.6410012 110.9210051  57.3589648  -2.2802164
  98.4030012  49.7284997  -2.6400012  99.1350012  49.9824997  -2.0790012
  97.6230012  49.9324997  -2.1250012  98.3978232  49.7909177  -2.4934240
 104.4320012  45.1354997  -9.9020012 104.9970012  44.5884997 -10.4490012
 104.2850012  44.6134997  -9.1140012 104.4892918  44.9902024  -9.8701546
  99.4340012  41.2714997 -13.4840012  99.1170012  40.3694997 -13.5190012
 100.2160012  41.2734997 -14.0370012  99.4962284  41.1481628 -13.5635217
 103.0590012  43.5234997  -7.4880012 102.2230012  43.9774997  -7.3780012
 103.5830012  43.7994997  -6.7360012 103.0154414  43.6229376  -7.3712864
 103.6030012  49.7364997 -15.8040012 102.8580012  49.2294997 -16.1260012
 103.4690012  49.7854997 -14.8570012 103.4828776  49.6736940 -15.7201353
 110.7530012  48.8694997  -7.0170012 111.3950012  49.3264997  -7.5610012
 109.9230012  48.9824997  -7.4800012 110.7285963  48.9472704  -7.1539823
 107.5010012  42.5504997 -17.6040012 106.5620012  42.6624997 -17.7560012
 107.7980012  43.4074997 -17.2980012 107.4127666  42.6816443 -17.5834232
 105.1220012  49.9204997  -4.5670012 104.7770012  49.5394997  -3.7600012
 104.9220012  50.8544997  -4.4950012 105.0478061  49.9945228  -4.4469039
 108.2190012  44.4174997 -15.9440012 109.1110012  44.2804997 -15.6250012
 108.2760012  45.2084997 -16.4800012 108.3486285  44.5056660 -15.9728310
  98.7280012  49.0314997 -10.0340012  99.4730012  49.0294997 -10.6350012
  98.8060012  48.2084997  -9.5520012  98.8405518  48.9199315 -10.0511071
 105.7290012  51.1954997 -16.7780012 105.4330012  52.0214997 -16.3970012
 105.0260012  50.5754997 -16.5820012 105.5934914  51.2248199 -16.6993557
  95.7360012  47.4924997  -4.7190012  95.9590012  47.0744997  -3.8870012
  95.1340012  46.8794997  -5.1420012  95.6851759  47.3524668  -4.6622978
 102.7520012  47.0094997  -2.5060012 102.4560012  46.8434997  -3.4010012
 103.6840012  46.7894997  -2.5170012 102.8374166  46.9570640  -2.6299464
 107.3730012  52.3824997  -4.6160012 106.4720012  52.5654997  -4.8840012
 107.4070012  52.6414997  -3.6950012 107.2543041  52.4425512  -4.5281803
 113.1040012  44.6274997 -16.2490012 112.5500012  44.2314997 -16.9210012
 113.2040012  45.5374997 -16.5270012 113.0417059  44.6963586 -16.3785599
 113.0670012  50.4274997  -3.4120012 112.2160012  50.6654997  -3.7790012
 113.6580012  50.4104997  -4.1650012 113.0302487  50.4578258  -3.5641107
 111.3990012  53.4134997 -15.7840012 111.0260012  52.5874997 -15.4750012
 111.6770012  53.2304997 -16.6810012 111.3855630  53.2757303 -15.8630374
 108.5600012  48.2214997  -8.7630012 107.6310012  47.9894997  -8.7900012
 109.0110012  47.4444997  -9.0930012 108.4939216  48.0847238  -8.8113083
 101.1030012  52.5494997 -12.6300012 101.6300012  53.3224997 -12.8300012
 100.2230012  52.7744997 -12.9310012 101.0561773  52.6858005 -12.6980990
  96.8580012  47.4114997 -18.0430012  97.4740012  48.0384997 -17.6630012
  95.9960012  47.7274997 -17.7710012  96.8257698  47.5399430 -17.9542817
 102.5300012  50.2124997 -13.0530012 102.2890012  51.1374997 -13.0120012
 101.7890012  49.7534997 -12.6570012 102.3968409  50.2771421 -12.9938623
 103.0450012  54.3614997  -6.7380012 103.4070012  55.2164997  -6.9720012
 103.5760012  54.0694997  -5.9980012 103.1664473  54.4391060  -6.6699145
 101.2130012  55.2344997 -13.5080012 100.2630012  55.3394997 -13.4570012
 101.5650012  56.0544997 -13.1630012 101.1304203  55.3598314 -13.4543350
 106.5890012  50.4604997  -7.0380012 106.1630012  50.2334997  -6.2110012
 107.1690012  49.7224997  -7.2200012 106.6091868  50.3295299  -6.9494170
 108.7920012  51.3894997 -17.9640012 109.1450012  51.0094997 -17.1590012
 107.8430012  51.2964997 -17.8770012 108.7120441  51.3249596 -17.8421441
 109.2470012  55.0124997  -4.5680012 108.6460012  54.4574997  -5.0640012
 109.5290012  55.6794997  -5.1940012 109.2028519  55.0266841  -4.7205048
 113.2950012  55.8694997 -17.7630012 114.0390012  56.4554997 -17.9030012
 112.6010012  56.4374997 -17.4290012 113.3030292  56.0265582 -17.7370039
  97.3700012  42.2454997  -5.1610012  96.4770012  42.5844997  -5.2290012
  97.2710012  41.3904997  -4.7430012  97.2344164  42.1762588  -5.1137765
 109.6580012  50.0624997 -15.7370012 109.3800012  49.3344997 -15.1810012
 110.5850012  50.1814997 -15.5320012 109.7453124  49.9788802 -15.6331155
  97.0210012  54.0504997  -6.7260012  97.2380012  53.1184997  -6.7570012
  97.2670012  54.3244997  -5.8430012  97.0839549  53.9600636  -6.6108237
 102.8830012  52.5014997 -19.5170012 103.1220012  51.7534997 -20.0640012
 102.6140012  52.1134997 -18.6840012 102.8793675  52.3466638 -19.4793135
 101.8200012  52.0714997 -17.0600012 101.9660012  51.5514997 -16.2700012
 101.8170012  52.9784997 -16.7540012 101.8395989  52.1228853 -16.9103912
  98.2730012  49.3244997 -16.5500012  97.5870012  49.6764997 -15.9830012
  98.7950012  50.0874997 -16.7970012  98.2496852  49.4758578 -16.5057882
 106.1040012  41.9864997  -6.2710012 106.8030012  42.0604997  -5.6210012
 105.7230012  41.1224997  -6.1170012 106.1481767  41.8797624  -6.1611678
 106.8890012  41.6384997 -15.1740012 107.1090012  42.1104997 -15.9770012
 107.4470012  42.0334997 -14.5040012 106.9944968  41.7564285 -15.1932669
 104.5570012  53.7694997 -16.3110012 103.7410012  54.2664997 -16.2590012
 105.0870012  54.2444997 -16.9510012 104.5169161  53.9017722 -16.3904044
 104.0890012  43.3664997 -14.3390012 104.9010012  43.8714997 -14.2930012
 103.8440012  43.2214997 -13.4250012 104.1670520  43.4160375 -14.2091483
 104.6240012  44.3524997  -5.1540012 104.7430012  44.9264997  -4.3970012
 105.2800012  43.6644997  -5.0400012 104.7289757  44.3381079  -5.0349175
 104.9720012  40.4474997 -13.4010012 104.6260012  41.0654997 -12.7560012
 105.6310012  40.9484997 -13.8820012 105.0137826  40.5995802 -13.3779029
 101.8960012  54.8134997 -16.3290012 102.0560012  55.6124997 -16.8300012
 101.6980012  55.1194997 -15.4440012 101.8911649  54.9644469 -16.2780185
 100.6300012  41.5104997 -16.7140012 100.5470012  42.3994997 -16.3670012
 101.5200012  41.2454997 -16.4820012 100.7389469  41.5961430 -16.6352374
 110.8290012  42.2594997  -4.3190012 109.9120012  42.5224997  -4.4070012
 111.1640012  42.2564997  -5.2160012 110.7489900  42.2950224  -4.4522081
 109.4310012  46.0104997 -10.2240012 108.6330012  45.5954997 -10.5520012
 109.8760012  45.3194997  -9.7330012 109.3819885  45.8603543 -10.2025111
  98.8890012  51.9384997 -17.6530012  99.4810012  52.6374997 -17.3770012
  99.3480012  51.5054997 -18.3730012  99.0321142  51.9757049 -17.7125170
  97.2050012  44.6024997 -18.5370012  97.1600012  45.5414997 -18.3590012
  96.3170012  44.3664997 -18.8070012  97.0788574  44.6991892 -18.5491088
 110.5170012  55.2664997  -8.6010012 110.3620012  55.9444997  -9.2580012
 111.4500012  55.3384997  -8.3980012 110.6218500  55.3690170  -8.6634881
  98.0130012  39.3844997  -9.8640012  97.7840012  39.4434997 -10.7920012
  97.5700012  38.5924997  -9.5580012  97.9218530  39.2855753  -9.9495214
  96.9430012  53.3244997 -13.7040012  96.1110012  53.7974997 -13.6760012
  97.4890012  53.8344997 -14.3020012  96.9029739  53.4581871 -13.7810284
  96.2310012  55.9374997  -2.3740012  96.7720012  55.7204997  -1.6140012
  95.7500012  55.1314997  -2.5630012  96.2399345  55.7989514  -2.2956924
 100.8290012  54.8564997  -0.7530012 101.5960012  54.3974997  -0.4120012
 100.8070012  54.6304997  -1.6830012 100.9311434  54.7630409  -0.8319957
 104.9210012  54.3644997 -19.3780012 104.2770012  53.7334997 -19.0570012
 105.6830012  53.8334997 -19.6100012 104.9358077  54.2062920 -19.3653989
 107.4060012  53.2364997  -2.0240012 107.0550012  52.3804997  -1.7810012
 108.1320012  53.3794997  -1.4170012 107.4560769  53.1385636  -1.9086381
 109.5250012  54.1814997 -19.1440012 109.8080012  53.3874997 -18.6920012
 110.2650012  54.4144997 -19.7050012 109.6637486  54.1042803 -19.1579302
  96.1380012  49.7474997  -1.4190012  96.2820012  48.8454997  -1.7060012
  95.3660012  50.0334997  -1.9070012  96.0533322  49.6628261  -1.5242119
 100.4800012  50.0914997 -19.2870012 100.5440012  49.2974997 -18.7560012
 101.1330012  49.9724997 -19.9770012 100.5770241  49.9667148 -19.3075683
 102.7940012  49.7174997  -1.9870012 102.4650012  49.9884997  -2.8440012
 102.9460012  48.7764997  -2.0740012 102.7694809  49.6273862  -2.1161756
 108.5280012  49.6334997  -4.6030012 109.2740012  50.2214997  -4.7230012
 107.7710012  50.2154997  -4.5400012 108.5277554  49.7927011  -4.6109093
  96.9710012  46.9474997  -1.9990012  97.3790012  46.0904997  -2.1200012
  96.7110012  46.9624997  -1.0780012  96.9917568  46.8320807  -1.8910412
 101.6290012  48.0634997 -16.9810012 101.1690012  47.5794997 -16.2950012
 101.8840012  47.3954997 -17.6170012 101.6004902  47.9068731 -16.9730666
 100.9180012  45.9564997  -4.6250012 100.3000012  46.6314997  -4.3450012
 101.2620012  46.2774997  -5.4580012 100.8799615  46.0922721  -4.6993419
 102.7000012  46.3064997 -18.7190012 102.5200012  46.1524997 -19.6460012
 103.6500012  46.4144997 -18.6740012 102.8037776  46.3000175 -18.8398157
 105.9380012  48.4284997  -1.3480012 106.8910012  48.5114997  -1.3750012
 105.7770012  47.7164997  -0.7280012 106.0466426  48.3436746  -1.2679422
 112.0900012  48.6614997 -19.2730012 111.8160012  48.2364997 -20.0860012
 112.1290012  49.5924997 -19.4900012 112.0577699  48.7292484 -19.4136390
 101.2570012  43.3114997  -3.5430012 101.4070012  42.5824997  -4.1450012
 101.2600012  44.0884997  -4.1020012 101.2779302  43.3167851  -3.7009308
 101.6700012  41.6814997  -6.0500012 102.2060012  42.1324997  -6.7020012
 100.8180012  41.5734997  -6.4730012 101.6282178  41.7286390  -6.1964244
 103.2520012  47.1204997  -5.8110012 104.0020012  46.9644997  -6.3840012
 102.9130012  47.9724997  -6.0860012 103.3088921  47.2142968  -5.9266439
 107.6670012  44.9354997  -0.7820012 107.8600012  44.0044997  -0.8940012
 108.5250012  45.3604997  -0.7920012 107.8093020  44.8656389  -0.7986639
 108.9840012  47.7244997  -2.7050012 108.7030012  48.4334997  -3.2820012
 109.9270012  47.6514997  -2.8560012 109.0729027  47.8117646  -2.8044449
  99.7360012  44.5094997  -1.6310012  98.9690012  43.9774997  -1.8410012
 100.4150012  44.1994997  -2.2310012  99.7227022  44.3947506  -1.7408352
 102.4760012  39.1374997  -5.6190012 102.3770012  40.0844997  -5.7240012
 101.7330012  38.7654997  -6.0940012 102.3620564  39.2165902  -5.6975440
 103.7400012  43.4594997  -2.0550012 103.5040012  43.2394997  -1.1530012
 102.9560012  43.2524997  -2.5650012 103.6018628  43.4014760  -2.0006068
 106.4550012  42.5864997  -2.9790012 105.5080012  42.6184997  -2.8470012
 106.7680012  41.9614997  -2.3260012 106.3675475  42.5063207  -2.8725545
 108.0890012  41.2204997  -0.9740012 107.9930012  40.2684997  -0.9800012
 107.7680012  41.4894997  -0.1140012 108.0324070  41.1264035  -0.8584559
  97.9160012  42.4304997  -1.9270012  98.1280012  41.7234997  -2.5370012
  97.8050012  41.9924997  -1.0830012  97.9299721  42.2747084  -1.8963157
 102.6970012  38.4314997  -2.9470012 103.4090012  37.7914997  -2.9610012
 102.5960012  38.6984997  -3.8610012 102.7807939  38.3799938  -3.0724350
 103.0510012  40.1144997  -0.8940012 102.9190012  39.6384997  -1.7140012
 102.4520012  40.8584997  -0.9490012 102.9519071  40.1499618  -1.0137114
 102.5970012  56.9974997 -17.7170012 103.5300012  57.1554997 -17.5740012
 102.3330012  57.6724997 -18.3420012 102.6889510  57.1103611 -17.7819259
  96.1660012  51.6334997 -18.2350012  97.0800012  51.7124997 -17.9610012
  96.1730012  50.9464997 -18.9010012  96.2921131  51.5513961 -18.2875607
  94.8150012  57.0264997 -13.1570012  94.1680012  56.5644997 -13.6900012
  95.1690012  56.3544997 -12.5750012  94.7743849  56.8724723 -13.1512041
  95.6850012  55.1074997 -11.3530012  95.3500012  54.2274997 -11.1810012
  95.9070012  55.4524997 -10.4880012  95.6691783  55.0337500 -11.2125792
 113.2330012  55.9164997  -8.3720012 113.2120012  56.1014997  -7.4330012
 113.9240012  56.4854997  -8.7130012 113.3234618  56.0186606  -8.2896136
 112.7970012  55.4844997  -5.4500012 112.3090012  54.7484997  -5.8210012
 113.3460012  55.0904997  -4.7720012 112.8044872  55.3306249  -5.4090840
 111.2470012  51.2734997  -0.8120012 110.3810012  51.1684997  -0.4180012
 111.6240012  52.0324997  -0.3660012 111.1793308  51.3616900  -0.6977607
 112.5480012  49.5304997 -15.2980012 113.3980012  49.9514997 -15.1710012
 112.5540012  48.7904997 -14.6910012 112.6651372  49.4880803 -15.1985656
 112.9430012  47.5834997 -13.4740012 112.2160012  47.1044997 -13.0770012
 113.5240012  47.7894997 -12.7420012 112.9219375  47.5457090 -13.3205871
 112.7020012  50.3684997  -8.5270012 113.5350012  49.9904997  -8.8070012
 112.8140012  51.3114997  -8.6460012 112.8312647  50.4442218  -8.5814513
 111.1880012  53.2464997  -6.2200012 110.5410012  53.5714997  -5.5940012
 110.6710012  52.8064997  -6.8940012 111.0294029  53.2315004  -6.2254173
 113.2110012  47.4844997 -17.0830012 112.6890012  47.8414997 -17.8020012
 113.1780012  48.1594997 -16.4050012 113.1351634  47.6245413 -17.0896855
 111.5600012  44.7244997 -18.5320012 111.6560012  45.3914997 -19.2130012
 111.4200012  43.9084997 -19.0140012 111.5542135  44.7054500 -18.6901509
 110.7290012  46.1044997 -12.9110012 110.5790012  45.1594997 -12.9320012
 110.3760012  46.3854997 -12.0680012 110.6606625  46.0130441 -12.7997654
  95.7650012  48.1824997  -8.9010012  95.9490012  48.1004997  -9.8370012
  96.6140012  48.0584997  -8.4770012  95.9050139  48.1545003  -8.9718545
 111.5860012  48.0744997  -3.2730012 112.1690012  47.3404997  -3.0810012
 112.1500012  48.8464997  -3.2260012 111.7419769  48.0784227  -3.2403841
 113.0820012  45.9774997  -2.5880012 112.2190012  45.5984997  -2.7540012
 113.6870012  45.2384997  -2.6620012 113.0455979  45.8258023  -2.6207183
 110.8070012  42.1324997 -19.4150012 111.4180012  41.7614997 -18.7780012
 109.9710012  41.7114997 -19.2190012 110.7775032  42.0247554 -19.3012965
 110.4400012  43.6874997 -14.4490012 110.7200012  42.7804997 -14.3250012
 111.1990012  44.1214997 -14.8380012 110.5809277  43.6220942 -14.4846318
 111.0520012  44.2684997  -9.0130012 111.9850012  44.4804997  -9.0470012
 110.8170012  44.3704997  -8.0910012 111.1478036  44.3112769  -8.8930024
 111.0810012  45.0054997  -6.2370012 110.2380012  45.2734997  -5.8710012
 111.5230012  45.8274997  -6.4480012 111.0254158  45.1533291  -6.2154509
  95.3620012  43.4534997  -2.7600012  96.2820012  43.3314997  -2.5240012
  94.9130012  42.7034997  -2.3710012  95.4271580  43.3353727  -2.6750994
 113.3640012  38.9854997  -0.8840012 113.7140012  38.3314997  -1.4890012
 113.5110012  39.8224997  -1.3230012 113.4318419  39.0091591  -1.0262882
 111.0530012  40.9504997 -14.4010012 111.2360012  40.5014997 -13.5750012
 110.4540012  40.3654997 -14.8640012 110.9970202  40.8099975 -14.3506725
  96.5830012  41.7654997  -9.8690012  97.0290012  40.9734997  -9.5670012
  97.0500012  42.4814997  -9.4380012  96.7070172  41.7540624  -9.7695180
  94.8870012  44.7644997  -8.8000012  95.3790012  44.5434997  -9.5910012
  95.2500012  45.6054997  -8.5190012  95.0033126  44.8478357  -8.8702469
 112.8840012  41.0944997  -2.5340012 111.9660012  41.3654997  -2.5700012
 113.0070012  40.5594997  -3.3190012 112.7751066  41.0592892  -2.6449513
 112.9200012  41.0174997 -17.8730012 113.3320012  40.2964997 -18.3480012
 113.6020012  41.6874997 -17.8140012 113.0685885  41.0092368 -17.9301085
  95.2010012  41.0224997 -14.7460012  94.2760012  41.2314997 -14.8750012
  95.6550012  41.5064997 -15.4350012  95.1357368  41.1165993 -14.8568774
 109.9720012  56.0064997 -12.8000012 110.6240012  55.6594997 -13.4080012
 110.4820012  56.4954997 -12.1540012 110.1302637  56.0250597 -12.7959764
  95.1650012  39.7604997  -6.4010012  94.5000012  39.5144997  -5.7580012
  94.7220012  40.3824997  -6.9790012  95.0140956  39.8108632  -6.3910648
  97.3570012  52.9354997  -2.2570012  96.5360012  53.1104997  -2.7170012
  97.1040012  52.8624997  -1.3360012  97.2106164  52.9495622  -2.1955077
 100.3110012  53.9104997  -5.9980012  99.8860012  54.7194997  -6.2810012
 101.2150012  53.9954997  -6.3000012 100.3750271  54.0328469  -6.0776224
 104.6220012  55.3094997  -3.0390012 104.8070012  54.9754997  -2.1610012
 105.4680012  55.6184997  -3.3610012 104.7617539  55.3056047  -2.9624395
 106.9670012  56.5954997  -3.7950012 107.6440012  55.9624997  -4.0350012
 107.2890012  56.9964997  -2.9880012 107.1031637  56.5631154  -3.7187207
 111.8840012  39.1844997  -4.7150012 111.0720012  39.5094997  -5.1030012
 112.1170012  38.4244997  -5.2480012 111.8043423  39.1262436  -4.8401747
  97.7130012  57.1664997  -5.9510012  96.9920012  57.6064997  -6.4020012
  97.3470012  56.9154997  -5.1020012  97.5649804  57.1927698  -5.8980160
 100.1800012  56.7664997  -6.9210012  99.3150012  56.8384997  -6.5170012
 100.1250012  57.3134997  -7.7050012 100.0542085  56.8502685  -6.9716638
 104.8900012  56.6544997  -7.7460012 104.4340012  57.1834997  -8.4000012
 105.0530012  57.2574997  -7.0200012 104.8495585  56.8084468  -7.7374938
 107.2180012  55.5324997  -6.8010012 106.3130012  55.6974997  -7.0660012
 107.6470012  56.3854997  -6.8660012 107.1520799  55.6704483  -6.8460818
 109.8220012  57.1024997  -6.5060012 109.6400012  58.0184997  -6.7160012
 109.9990012  56.6924997  -7.3520012 109.8210210  57.1724822  -6.6492115
  97.1270012  55.7894997  -9.0410012  97.1090012  55.3644997  -8.1830012
  97.9320012  55.4714997  -9.4490012  97.2333875  55.6883812  -8.9788345
  99.2690012  54.4994997 -10.3860012  99.0500012  53.5834997 -10.2160012
 100.0930012  54.6394997  -9.9200012  99.3504420  54.3930520 -10.2997226
 101.8060012  54.9694997  -9.5370012 102.0190012  54.0814997  -9.8240012
 101.8700012  54.9354997  -8.5830012 101.8438232  54.8433102  -9.4472603
 105.3140012  40.6334997 -10.3930012 104.6400012  40.0044997 -10.1370012
 105.8780012  40.1494997 -10.9960012 105.2979230  40.4818744 -10.4394660
 110.4570012  38.7414997 -10.2800012 111.0610012  39.2884997 -10.7820012
 109.5870012  39.0604997 -10.5200012 110.4221241  38.8595806 -10.3812346
 112.1840012  39.8794997 -11.9470012 112.7960012  39.3654997 -12.4730012
 112.5660012  40.7574997 -11.9230012 112.3194540  39.9277140 -12.0158170
  97.6410012  39.2674997 -12.5710012  96.8640012  39.0334997 -13.0780012
  98.1710012  38.4704997 -12.5620012  97.6062330  39.1276988 -12.6392258
  96.4770012  39.0654997 -16.7670012  96.9160012  39.6764997 -17.3590012
  95.8440012  39.6034997 -16.2930012  96.4514514  39.2219257 -16.7839070
 102.2200012  39.1944997 -12.7570012 103.0950012  39.5824997 -12.7870012
 102.0840012  38.9794997 -11.8350012 102.3213695  39.2185184 -12.6363560
 107.7770012  39.2244997 -11.1080012 107.8530012  39.3194997 -12.0580012
 107.5020012  38.3164997 -10.9790012 107.7502321  39.1147867 -11.2204921
 109.1300012  39.2504997 -15.4160012 108.4280012  39.8654997 -15.6250012
 108.6860012  38.4124997 -15.2850012 108.9736330  39.2215783 -15.4269672
  96.3780012  55.0134997 -15.8690012  95.6930012  54.9754997 -16.5370012
  96.3820012  55.9264997 -15.5810012  96.2848193  55.1317016 -15.9214716
  98.3380012  40.9814997 -18.3250012  98.8300012  40.3514997 -18.8520012
  98.9620012  41.2774997 -17.6610012  98.4895446  40.9353199 -18.3074020
 103.3640012  41.2744997 -15.8680012 103.5420012  40.6284997 -15.1850012
 103.3110012  42.1084997 -15.4000012 103.3811829  41.2987985 -15.7114060
 105.2430012  56.2234997 -17.4720012 106.1090012  56.5894997 -17.6500012
 104.9960012  55.7834997 -18.2860012 105.3282392  56.2141756 -17.6063711
 111.9520012  55.7864997 -14.7930012 111.7570012  55.0384997 -15.3580012
 111.9130012  56.5444997 -15.3760012 111.9200380  55.7866099 -14.9491616
  97.5990012  39.7814997  -3.0530012  97.2330012  39.0164997  -2.6100012
  98.5120012  39.8104997  -2.7660012  97.6722790  39.6807224  -2.9535930
  99.5720012  39.1324997  -1.5170012 100.4700012  38.8584997  -1.7020012
  99.1850012  38.3894997  -1.0530012  99.6426612  38.9945914  -1.4796357
  98.1960012  55.9334997 -18.8440012  97.9290012  56.2204997 -17.9710012
  98.9680012  55.3874997 -18.6920012  98.2637488  55.8990294 -18.7038950
 107.9930012  38.4644997  -1.3350012 108.0700012  38.0384997  -0.4810012
 108.8870012  38.4784997  -1.6780012 108.1243428  38.4080879  -1.2644690
 111.1690012  54.5374997  -2.6430012 110.3870012  54.3514997  -3.1620012
 111.0970012  55.4664997  -2.4250012 111.0521777  54.6376492  -2.6845952
 125.5750012  48.4234997 -12.6120012 125.6640012  49.3674997 -12.7440012
 124.9370012  48.1484997 -13.2700012 125.5009081  48.5154830 -12.7190386
 124.5080012  47.6784997  -9.1930012 124.4700012  47.0324997  -8.4880012
 124.1860012  47.2124997  -9.9640012 124.4592333  47.5269408  -9.2007022
 116.8770012  47.2934997  -7.6000012 116.9180012  46.6674997  -6.8770012
 117.5800012  47.9174997  -7.4180012 116.9776363  47.2921196  -7.4763956
 128.2140012  50.6174997 -10.8920012 127.7740012  49.8974997 -10.4410012
 128.2010012  51.3384997 -10.2620012 128.1520226  50.6163731 -10.7451506
 117.8000012  51.7434997  -9.0650012 117.4310012  50.9414997  -9.4350012
 118.7410012  51.5744997  -9.0190012 117.8767289  51.6110153  -9.1093684
 114.4100012  45.4034997 -13.6720012 113.9630012  46.2494997 -13.6910012
 113.8490012  44.8234997 -14.1880012 114.2729900  45.4409916 -13.7443199
 115.1210012  47.5654997 -11.5460012 115.3340012  46.7954997 -11.0190012
 115.8590012  47.6544997 -12.1500012 115.2498496  47.4721394 -11.5554700
 125.3260012  55.7224997 -10.6790012 125.9460012  55.0454997 -10.9530012
 125.1180012  55.5044997  -9.7710012 125.3826904  55.6003870 -10.5936635
 122.8980012  50.1114997  -8.7870012 123.2020012  49.4254997  -9.3820012
 123.6190012  50.2294997  -8.1690012 123.0370671  50.0336305  -8.7848184
 131.5610012  41.7124997  -7.9260012 131.6100012  42.3224997  -7.1900012
 131.9860012  42.1734997  -8.6490012 131.6251824  41.8583741  -7.9229795
 126.0390012  44.5054997  -8.4590012 126.1810012  43.5594997  -8.4390012
 125.9320012  44.7124997  -9.3880012 126.0439864  44.4039534  -8.5817661
 119.1930012  42.6064997 -11.1870012 119.2370012  43.4664997 -11.6050012
 118.7360012  42.0544997 -11.8210012 119.1372185  42.6495799 -11.3299701
 126.9160012  42.7374997 -12.7860012 127.5620012  42.4084997 -12.1610012
 127.4260012  43.2554997 -13.4090012 127.0734264  42.7624611 -12.7846138
 115.8140012  45.0034997 -10.4250012 116.4670012  44.4534997  -9.9930012
 115.8380012  44.7294997 -11.3420012 115.9066683  44.8911466 -10.4897877
 120.9700012  46.5534997 -11.2100012 121.5860012  46.0274997 -10.7000012
 120.3840012  45.9134997 -11.6130012 120.9750810  46.3949208 -11.1946827
 131.9520012  43.1904997  -5.6900012 131.2640012  43.8484997  -5.7860012
 131.9680012  42.9934997  -4.7540012 131.8598525  43.2540462  -5.5765192
 118.0040012  41.5244997  -7.1130012 117.7850012  42.0544997  -7.8790012
 117.3360012  41.7514997  -6.4660012 117.8837600  41.6276906  -7.1303621
 125.3730012  51.0244997 -13.5690012 125.0770012  50.7024997 -14.4200012
 125.0480012  51.9244997 -13.5280012 125.2886371  51.1020215 -13.6798199
 120.5730012  49.2004997  -6.8260012 119.8330012  49.7984997  -6.7220012
 121.2870012  49.7544997  -7.1410012 120.5682237  49.3572831  -6.8543535
 128.6800012  42.0284997 -10.8060012 128.4640012  41.2624997 -10.2730012
 129.3350012  42.5004997 -10.2930012 128.7390632  41.9875889 -10.6637139
 117.5970012  43.4164997  -9.1610012 118.2110012  44.0494997  -8.7870012
 118.1090012  42.9444997  -9.8170012 117.7502296  43.4392370  -9.1985748
 118.9800012  51.1644997  -6.0380012 118.9750012  52.0444997  -6.4160012
 118.1270012  51.0814997  -5.6130012 118.8639464  51.2736117  -6.0322093
 115.1010012  50.8354997 -15.2560012 114.8290012  51.0644997 -16.1450012
 115.1470012  51.6734997 -14.7960012 115.0700094  50.9801213 -15.3154303
 128.7260012  52.4574997  -8.5440012 127.7850012  52.5154997  -8.3820012
 129.0030012  53.3634997  -8.6810012 128.6344679  52.5879443  -8.5403185
 129.0270012  40.7434997  -7.1260012 128.2910012  41.3544997  -7.1640012
 129.7100012  41.1584997  -7.6530012 129.0186541  40.8831374  -7.2024168
 122.0300012  38.8304997  -9.6600012 121.9130012  37.8814997  -9.7150012
 121.1750012  39.1624997  -9.3870012 121.8983733  38.7455409  -9.6306103
 126.9780012  54.2384997 -11.9180012 127.4040012  53.5314997 -12.4030012
 127.2950012  55.0394997 -12.3350012 127.0791019  54.2500994 -12.0406870
 128.1380012  52.1394997 -13.4100012 127.8800012  51.4494997 -14.0210012
 128.2090012  51.6964997 -12.5640012 128.1122856  51.9852124 -13.3793115
 129.8240012  50.7054997  -4.9320012 129.9640012  50.1144997  -5.6720012
 129.9910012  51.5784997  -5.2890012 129.8656778  50.7426426  -5.0813035
 124.2970012  47.6674997 -15.1600012 123.5850012  48.2024997 -15.5120012
 124.9880012  47.7234997 -15.8200012 124.2930132  47.7482543 -15.2973711
 124.3500012  46.1254997 -18.1210012 125.0510012  46.1474997 -17.4700012
 124.6530012  45.4974997 -18.7770012 124.4867830  46.0436566 -18.1206289
 131.6660012  47.0454997  -6.8660012 131.0130012  47.7404997  -6.7770012
 132.1310012  47.2554997  -7.6760012 131.6395390  47.1689425  -6.9633117
 127.7020012  47.8774997 -14.2080012 126.9700012  48.1054997 -13.6350012
 128.1500012  47.1634997 -13.7530012 127.6623095  47.8122571 -14.0680881
 127.6000012  46.0514997  -5.1410012 127.6800012  46.8144997  -4.5690012
 126.9980012  46.3304997  -5.8310012 127.5295756  46.1937134  -5.1559411
 119.3480012  48.5074997 -12.3260012 119.0170012  48.1374997 -13.1440012
 119.9360012  47.8374997 -11.9790012 119.3821873  48.3661156 -12.3911898
 120.7140012  51.9354997  -9.6440012 120.6200012  51.3574997 -10.4010012
 121.4440012  51.5644997  -9.1480012 120.7997981  51.8062390  -9.6805835
 119.7140012  47.2764997  -8.6920012 120.2800012  47.3974997  -9.4550012
 120.0330012  47.9134997  -8.0530012 119.8345786  47.3791884  -8.7099960
 126.0230012  52.7794997  -7.9580012 125.7830012  53.4414997  -7.3100012
 125.8250012  51.9454997  -7.5330012 125.9633808  52.7573134  -7.8118476
 120.5940012  51.6754997  -3.9750012 120.2830012  52.4574997  -3.5200012
 119.9440012  51.5224997  -4.6610012 120.4635558  51.7619105  -4.0054129
 126.5730012  47.0394997 -16.5230012 127.1530012  47.1894997 -15.7760012
 126.9870012  47.5104997 -17.2460012 126.7082830  47.1236841 -16.5185866
 117.5140012  47.8734997  -4.7460012 117.5850012  48.5244997  -4.0480012
 116.6240012  47.9764997  -5.0810012 117.4033117  47.9765936  -4.6957300
 124.3000012  53.7764997 -13.0880012 124.7740012  54.0714997 -12.3100012
 123.7370012  54.5144997 -13.3210012 124.2887653  53.9166932 -13.0129864
 118.8340012  53.7474997  -3.2120012 118.8410012  53.6114997  -4.1590012
 117.9180012  53.6294997  -2.9600012 118.7111714  53.7129430  -3.3075334
 130.2720012  38.7894997 -16.7100012 129.3720012  38.9284997 -16.4150012
 130.5240012  39.6204997 -17.1120012 130.1828702  38.9209074 -16.7239795
 118.3380012  47.5774997 -14.7360012 118.0460012  48.3454997 -15.2270012
 117.6640012  46.9174997 -14.8990012 118.2069081  47.5934406 -14.8252660
 131.4610012  53.1554997 -18.3340012 131.5350012  54.0944997 -18.1630012
 132.3670012  52.8504997 -18.3900012 131.5935100  53.2426722 -18.3181881
 114.4310012  49.9404997  -5.9210012 113.9300012  49.9124997  -6.7360012
 114.4360012  49.0344997  -5.6120012 114.3631526  49.8142278  -5.9907128
 114.1810012  52.7204997  -9.0370012 115.1270012  52.5764997  -9.0560012
 114.0690012  53.5044997  -8.5000012 114.2952727  52.8068046  -8.9669928
 132.3790012  53.3864997  -3.3550012 132.3300012  52.4314997  -3.3920012
 131.5520012  53.6544997  -2.9540012 132.2604940  53.2918998  -3.3058625
 123.3580012  52.9604997  -4.4790012 123.4450012  53.7864997  -4.0040012
 122.4940012  52.6304997  -4.2300012 123.2531964  53.0289878  -4.3803451
 123.7720012  56.7324997 -14.6730012 123.6970012  56.6114997 -15.6190012
 123.8050012  57.6824997 -14.5540012 123.7661848  56.8442500 -14.7865166
 117.4250012  55.5214997 -12.8920012 117.5780012  55.1734997 -12.0130012
 116.5750012  55.1654997 -13.1470012 117.3308962  55.4256650 -12.8061660
 126.8740012  55.8864997 -17.6710012 127.2490012  55.1424997 -18.1410012
 126.8780012  55.6164997 -16.7520012 126.9258915  55.7481486 -17.6112176
 126.5430012  55.8124997 -14.9210012 125.6070012  55.9124997 -14.7430012
 126.8230012  55.1034997 -14.3430012 126.4528255  55.7302711 -14.8184609
 129.5310012  44.8794997  -2.8750012 129.1240012  45.3604997  -3.5960012
 129.5720012  43.9744997  -3.1830012 129.4808437  44.8229374  -3.0153317
 116.6800012  51.2634997  -4.8780012 116.8960012  50.9024997  -4.0190012
 115.8250012  50.8894997  -5.0880012 116.5939292  51.1634111  -4.7886614
 119.2990012  39.7334997  -8.8830012 118.4370012  39.6464997  -9.2900012
 119.2760012  40.5894997  -8.4550012 119.1780330  39.8372765  -8.8808137
 123.9620012  39.4554997  -5.5080012 124.3820012  39.0404997  -4.7550012
 123.0290012  39.2774997  -5.3910012 123.8933644  39.3745900  -5.3890461
 127.2880012  43.2114997  -4.6550012 126.7740012  43.0854997  -3.8570012
 127.1330012  44.1234997  -4.8990012 127.1966852  43.3176132  -4.5787842
 128.0510012  48.0724997 -18.8930012 128.0930012  47.8494997 -19.8230012
 128.9000012  48.4714997 -18.7030012 128.1715396  48.0959155 -18.9946373
 123.6230012  41.9484997 -18.2230012 123.3700012  41.9674997 -17.3000012
 123.3670012  41.0764997 -18.5240012 123.5537790  41.8332437 -18.1373737
 119.3900012  44.6994997  -7.7880012 118.7480012  44.6584997  -7.0790012
 119.4270012  45.6254997  -8.0250012 119.3071324  44.8191559  -7.7230176
 119.3870012  44.9204997 -12.8760012 118.4940012  44.5794997 -12.9340012
 119.8370012  44.5434997 -13.6310012 119.3257305  44.8228484 -12.9860823
 124.9220012  45.3364997 -14.0590012 124.5130012  46.1514997 -14.3500012
 125.6430012  45.1964997 -14.6730012 124.9634537  45.4292018 -14.1818658
 124.0240012  45.5114997  -2.5710012 123.4620012  44.8074997  -2.2500012
 124.8510012  45.3914997  -2.1030012 124.0587095  45.3987883  -2.4637670
 125.9270012  44.7824997 -11.2450012 125.7320012  45.3874997 -11.9600012
 126.1080012  43.9484997 -11.6790012 125.9247614  44.7526300 -11.4015595
 117.1400012  45.0194997  -5.9210012 117.1020012  45.4194997  -5.0520012
 116.6490012  44.2024997  -5.8300012 117.0684684  44.9638069  -5.7898941
 120.5060012  42.3934997 -19.1220012 120.0750012  41.9484997 -18.3920012
 119.7880012  42.7654997 -19.6340012 120.3499438  42.3828940 -19.0913201
 113.7480012  42.1354997 -12.0700012 114.3790012  42.1064997 -11.3510012
 114.1970012  41.7104997 -12.8000012 113.8950774  42.0740492 -12.0703447
 115.0220012  42.8814997 -16.6460012 115.4960012  43.4724997 -17.2310012
 114.3050012  43.4124997 -16.2990012 114.9899341  43.0340867 -16.6791164
 125.1910012  46.4204997  -6.5730012 125.5140012  45.7894997  -7.2160012
 124.7510012  45.8854997  -5.9130012 125.1756895  46.2618441  -6.5717150
 121.9680012  42.3474997 -11.7890012 121.0570012  42.4044997 -11.5010012
 122.4740012  42.2874997 -10.9790012 121.9115413  42.3471985 -11.6399378
 116.7970012  43.9764997 -12.9630012 115.9070012  44.0764997 -13.3030012
 117.0930012  43.1344997 -13.3090012 116.7152823  43.8763545 -13.0562787
 120.4500012  43.9764997 -15.3060012 121.3810012  44.1054997 -15.1280012
 120.2350012  44.6464997 -15.9560012 120.5484247  44.0846565 -15.3694253
 126.3730012  41.5824997  -8.5250012 125.6970012  41.7134997  -7.8610012
 125.8880012  41.4274997  -9.3350012 126.2147145  41.5794905  -8.5435483
 119.1240012  45.1714997 -17.7390012 118.5810012  44.7914997 -18.4310012
 119.9570012  45.3654997 -18.1680012 119.1624399  45.1458124 -17.8915474
 129.6610012  57.2544997  -2.2480012 129.8610012  57.6784997  -3.0830012
 130.3160012  57.5974997  -1.6410012 129.7770051  57.3589648  -2.2802164
 117.2590012  49.7284997  -2.6400012 117.9910012  49.9824997  -2.0790012
 116.4790012  49.9324997  -2.1250012 117.2538232  49.7909177  -2.4934240
 123.2880012  45.1354997  -9.9020012 123.8530012  44.5884997 -10.4490012
 123.1410012  44.6134997  -9.1140012 123.3452918  44.9902024  -9.8701546
 118.2900012  41.2714997 -13.4840012 117.9730012  40.3694997 -13.5190012
 119.0720012  41.2734997 -14.0370012 118.3522284  41.1481628 -13.5635217
 121.9150012  43.5234997  -7.4880012 121.0790012  43.9774997  -7.3780012
 122.4390012  43.7994997  -6.7360012 121.8714414  43.6229376  -7.3712864
 122.4590012  49.7364997 -15.8040012 121.7140012  49.2294997 -16.1260012
 122.3250012  49.7854997 -14.8570012 122.3388776  49.6736940 -15.7201353
 129.6090012  48.8694997  -7.0170012 130.2510012  49.3264997  -7.5610012
 128.7790012  48.9824997  -7.4800012 129.5845963  48.9472704  -7.1539823
 126.3570012  42.5504997 -17.6040012 125.4180012  42.6624997 -17.7560012
 126.6540012  43.4074997 -17.2980012 126.2687666  42.6816443 -17.5834232
 123.9780012  49.9204997  -4.5670012 123.6330012  49.5394997  -3.7600012
 123.7780012  50.8544997  -4.4950012 123.9038061  49.9945228  -4.4469039
 127.0750012  44.4174997 -15.9440012 127.9670012  44.2804997 -15.6250012
 127.1320012  45.2084997 -16.4800012 127.2046285  44.5056660 -15.9728310
 117.5840012  49.0314997 -10.0340012 118.3290012  49.0294997 -10.6350012
 117.6620012  48.2084997  -9.5520012 117.6965518  48.9199315 -10.0511071
 124.5850012  51.1954997 -16.7780012 124.2890012  52.0214997 -16.3970012
 123.8820012  50.5754997 -16.5820012 124.4494914  51.2248199 -16.6993557
 114.5920012  47.4924997  -4.7190012 114.8150012  47.0744997  -3.8870012
 113.9900012  46.8794997  -5.1420012 114.5411759  47.3524668  -4.6622978
 121.6080012  47.0094997  -2.5060012 121.3120012  46.8434997  -3.4010012
 122.5400012  46.7894997  -2.5170012 121.6934166  46.9570640  -2.6299464
 126.2290012  52.3824997  -4.6160012 125.3280012  52.5654997  -4.8840012
 126.2630012  52.6414997  -3.6950012 126.1103041  52.4425512  -4.5281803
 131.9600012  44.6274997 -16.2490012 131.4060012  44.2314997 -16.9210012
 132.0600012  45.5374997 -16.5270012 131.8977059  44.6963586 -16.3785599
 131.9230012  50.4274997  -3.4120012 131.0720012  50.6654997  -3.7790012
 132.5140012  50.4104997  -4.1650012 131.8862487  50.4578258  -3.5641107
 130.2550012  53.4134997 -15.7840012 129.8820012  52.5874997 -15.4750012
 130.5330012  53.2304997 -16.6810012 130.2415630  53.2757303 -15.8630374
 127.4160012  48.2214997  -8.7630012 126.4870012  47.9894997  -8.7900012
 127.8670012  47.4444997  -9.0930012 127.3499216  48.0847238  -8.8113083
 119.9590012  52.5494997 -12.6300012 120.4860012  53.3224997 -12.8300012
 119.0790012  52.7744997 -12.9310012 119.9121773  52.6858005 -12.6980990
 115.7140012  47.4114997 -18.0430012 116.3300012  48.0384997 -17.6630012
 114.8520012  47.7274997 -17.7710012 115.6817698  47.5399430 -17.9542817
 121.3860012  50.2124997 -13.0530012 121.1450012  51.1374997 -13.0120012
 120.6450012  49.7534997 -12.6570012 121.2528409  50.2771421 -12.9938623
 121.9010012  54.3614997  -6.7380012 122.2630012  55.2164997  -6.9720012
 122.4320012  54.0694997  -5.9980012 122.0224473  54.4391060  -6.6699145
 120.0690012  55.2344997 -13.5080012 119.1190012  55.3394997 -13.4570012
 120.4210012  56.0544997 -13.1630012 119.9864203  55.3598314 -13.4543350
 125.4450012  50.4604997  -7.0380012 125.0190012  50.2334997  -6.2110012
 126.0250012  49.7224997  -7.2200012 125.4651868  50.3295299  -6.9494170
 127.6480012  51.3894997 -17.9640012 128.0010012  51.0094997 -17.1590012
 126.6990012  51.2964997 -17.8770012 127.5680441  51.3249596 -17.8421441
 128.1030012  55.0124997  -4.5680012 127.5020012  54.4574997  -5.0640012
 128.3850012  55.6794997  -5.1940012 128.0588519  55.0266841  -4.7205048
 132.1510012  55.8694997 -17.7630012 132.8950012  56.4554997 -17.9030012
 131.4570012  56.4374997 -17.4290012 132.1590292  56.0265582 -17.7370039
 116.2260012  42.2454997  -5.1610012 115.3330012  42.5844997  -5.2290012
 116.1270012  41.3904997  -4.7430012 116.0904164  42.1762588  -5.1137765
 128.5140012  50.0624997 -15.7370012 128.2360012  49.3344997 -15.1810012
 129.4410012  50.1814997 -15.5320012 128.6013124  49.9788802 -15.6331155
 115.8770012  54.0504997  -6.7260012 116.0940012  53.1184997  -6.7570012
 116.1230012  54.3244997  -5.8430012 115.9399549  53.9600636  -6.6108237
 121.7390012  52.5014997 -19.5170012 121.9780012  51.7534997 -20.0640012
 121.4700012  52.1134997 -18.6840012 121.7353675  52.3466638 -19.4793135
 120.6760012  52.0714997 -17.0600012 120.8220012  51.5514997 -16.2700012
 120.6730012  52.9784997 -16.7540012 120.6955989  52.1228853 -16.9103912
 117.1290012  49.3244997 -16.5500012 116.4430012  49.6764997 -15.9830012
 117.6510012  50.0874997 -16.7970012 117.1056852  49.4758578 -16.5057882
 124.9600012  41.9864997  -6.2710012 125.6590012  42.0604997  -5.6210012
 124.5790012  41.1224997  -6.1170012 125.0041767  41.8797624  -6.1611678
 125.7450012  41.6384997 -15.1740012 125.9650012  42.1104997 -15.9770012
 126.3030012  42.0334997 -14.5040012 125.8504968  41.7564285 -15.1932669
 123.4130012  53.7694997 -16.3110012 122.5970012  54.2664997 -16.2590012
 123.9430012  54.2444997 -16.9510012 123.3729161  53.9017722 -16.3904044
 122.9450012  43.3664997 -14.3390012 123.7570012  43.8714997 -14.2930012
 122.7000012  43.2214997 -13.4250012 123.0230520  43.4160375 -14.2091483
 123.4800012  44.3524997  -5.1540012 123.5990012  44.9264997  -4.3970012
 124.1360012  43.6644997  -5.0400012 123.5849757  44.3381079  -5.0349175
 123.8280012  40.4474997 -13.4010012 123.4820012  41.0654997 -12.7560012
 124.4870012  40.9484997 -13.8820012 123.8697826  40.5995802 -13.3779029
 120.7520012  54.8134997 -16.3290012 120.9120012  55.6124997 -16.8300012
 120.5540012  55.1194997 -15.4440012 120.7471649  54.9644469 -16.2780185
 119.4860012  41.5104997 -16.7140012 119.4030012  42.3994997 -16.3670012
 120.3760012  41.2454997 -16.4820012 119.5949469  41.5961430 -16.6352374
 129.6850012  42.2594997  -4.3190012 128.7680012  42.5224997  -4.4070012
 130.0200012  42.2564997  -5.2160012 129.6049900  42.2950224  -4.4522081
 128.2870012  46.0104997 -10.2240012 127.4890012  45.5954997 -10.5520012
 128.7320012  45.3194997  -9.7330012 128.2379885  45.8603543 -10.2025111
 117.7450012  51.9384997 -17.6530012 118.3370012  52.6374997 -17.3770012
 118.2040012  51.5054997 -18.3730012 117.8881142  51.9757049 -17.7125170
 116.0610012  44.6024997 -18.5370012 116.0160012  45.5414997 -18.3590012
 115.1730012  44.3664997 -18.8070012 115.9348574  44.6991892 -18.5491088
 129.3730012  55.2664997  -8.6010012 129.2180012  55.9444997  -9.2580012
 130.3060012  55.3384997  -8.3980012 129.4778500  55.3690170  -8.6634881
 116.8690012  39.3844997  -9.8640012 116.6400012  39.4434997 -10.7920012
 116.4260012  38.5924997  -9.5580012 116.7778530  39.2855753  -9.9495214
 115.7990012  53.3244997 -13.7040012 114.9670012  53.7974997 -13.6760012
 116.3450012  53.8344997 -14.3020012 115.7589739  53.4581871 -13.7810284
 115.0870012  55.9374997  -2.3740012 115.6280012  55.7204997  -1.6140012
 114.6060012  55.1314997  -2.5630012 115.0959345  55.7989514  -2.2956924
 119.6850012  54.8564997  -0.7530012 120.4520012  54.3974997  -0.4120012
 119.6630012  54.6304997  -1.6830012 119.7871434  54.7630409  -0.8319957
 123.7770012  54.3644997 -19.3780012 123.1330012  53.7334997 -19.0570012
 124.5390012  53.8334997 -19.6100012 123.7918077  54.2062920 -19.3653989
 126.2620012  53.2364997  -2.0240012 125.9110012  52.3804997  -1.7810012
 126.9880012  53.3794997  -1.4170012 126.3120769  53.1385636  -1.9086381
 128.3810012  54.1814997 -19.1440012 128.6640012  53.3874997 -18.6920012
 129.1210012  54.4144997 -19.7050012 128.5197486  54.1042803 -19.1579302
 114.9940012  49.7474997  -1.4190012 115.1380012  48.8454997  -1.7060012
 114.2220012  50.0334997  -1.9070012 114.9093322  49.6628261  -1.5242119
 119.3360012  50.0914997 -19.2870012 119.4000012  49.2974997 -18.7560012
 119.9890012  49.9724997 -19.9770012 119.4330241  49.9667148 -19.3075683
 121.6500012  49.7174997  -1.9870012 121.3210012  49.9884997  -2.8440012
 121.8020012  48.7764997  -2.0740012 121.6254809  49.6273862  -2.1161756
 127.3840012  49.6334997  -4.6030012 128.1300012  50.2214997  -4.7230012
 126.6270012  50.2154997  -4.5400012 127.3837554  49.7927011  -4.6109093
 115.8270012  46.9474997  -1.9990012 116.2350012  46.0904997  -2.1200012
 115.5670012  46.9624997  -1.0780012 115.8477568  46.8320807  -1.8910412
 120.4850012  48.0634997 -16.9810012 120.0250012  47.5794997 -16.2950012
 120.7400012  47.3954997 -17.6170012 120.4564902  47.9068731 -16.9730666
 119.7740012  45.9564997  -4.6250012 119.1560012  46.6314997  -4.3450012
 120.1180012  46.2774997  -5.4580012 119.7359615  46.0922721  -4.6993419
 121.5560012  46.3064997 -18.7190012 121.3760012  46.1524997 -19.6460012
 122.5060012  46.4144997 -18.6740012 121.6597776  46.3000175 -18.8398157
 124.7940012  48.4284997  -1.3480012 125.7470012  48.5114997  -1.3750012
 124.6330012  47.7164997  -0.7280012 124.9026426  48.3436746  -1.2679422
 130.9460012  48.6614997 -19.2730012 130.6720012  48.2364997 -20.0860012
 130.9850012  49.5924997 -19.4900012 130.9137699  48.7292484 -19.4136390
 120.1130012  43.3114997  -3.5430012 120.2630012  42.5824997  -4.1450012
 120.1160012  44.0884997  -4.1020012 120.1339302  43.3167851  -3.7009308
 120.5260012  41.6814997  -6.0500012 121.0620012  42.1324997  -6.7020012
 119.6740012  41.5734997  -6.4730012 120.4842178  41.7286390  -6.1964244
 122.1080012  47.1204997  -5.8110012 122.8580012  46.9644997  -6.3840012
 121.7690012  47.9724997  -6.0860012 122.1648921  47.2142968  -5.9266439
 126.5230012  44.9354997  -0.7820012 126.7160012  44.0044997  -0.8940012
 127.3810012  45.3604997  -0.7920012 126.6653020  44.8656389  -0.7986639
 127.8400012  47.7244997  -2.7050012 127.5590012  48.4334997  -3.2820012
 128.7830012  47.6514997  -2.8560012 127.9289027  47.8117646  -2.8044449
 118.5920012  44.5094997  -1.6310012 117.8250012  43.9774997  -1.8410012
 119.2710012  44.1994997  -2.2310012 118.5787022  44.3947506  -1.7408352
 121.3320012  39.1374997  -5.6190012 121.2330012  40.0844997  -5.7240012
 120.5890012  38.7654997  -6.0940012 121.2180564  39.2165902  -5.6975440
 122.5960012  43.4594997  -2.0550012 122.3600012  43.2394997  -1.1530012
 121.8120012  43.2524997  -2.5650012 122.4578628  43.4014760  -2.0006068
 125.3110012  42.5864997  -2.9790012 124.3640012  42.6184997  -2.8470012
 125.6240012  41.9614997  -2.3260012 125.2235475  42.5063207  -2.8725545
 126.9450012  41.2204997  -0.9740012 126.8490012  40.2684997  -0.9800012
 126.6240012  41.4894997  -0.1140012 126.8884070  41.1264035  -0.8584559
 116.7720012  42.4304997  -1.9270012 116.9840012  41.7234997  -2.5370012
 116.6610012  41.9924997  -1.0830012 116.7859721  42.2747084  -1.8963157
 121.5530012  38.4314997  -2.9470012 122.2650012  37.7914997  -2.9610012
 121.4520012  38.6984997  -3.8610012 121.6367939  38.3799938  -3.0724350
 121.9070012  40.1144997  -0.8940012 121.7750012  39.6384997  -1.7140012
 121.3080012  40.8584997  -0.9490012 121.8079071  40.1499618  -1.0137114
 121.4530012  56.9974997 -17.7170012 122.3860012  57.1554997 -17.5740012
 121.1890012  57.6724997 -18.3420012 121.5449510  57.1103611 -17.7819259
 115.0220012  51.6334997 -18.2350012 115.9360012  51.7124997 -17.9610012
 115.0290012  50.9464997 -18.9010012 115.1481131  51.5513961 -18.2875607
 113.6710012  57.0264997 -13.1570012 113.0240012  56.5644997 -13.6900012
 114.0250012  56.3544997 -12.5750012 113.6303849  56.8724723 -13.1512041
 114.5410012  55.1074997 -11.3530012 114.2060012  54.2274997 -11.1810012
 114.7630012  55.4524997 -10.4880012 114.5251783  55.0337500 -11.2125792
 132.0890012  55.9164997  -8.3720012 132.0680012  56.1014997  -7.4330012
 132.7800012  56.4854997  -8.7130012 132.1794618  56.0186606  -8.2896136
 131.6530012  55.4844997  -5.4500012 131.1650012  54.7484997  -5.8210012
 132.2020012  55.0904997  -4.7720012 131.6604872  55.3306249  -5.4090840
 130.1030012  51.2734997  -0.8120012 129.2370012  51.1684997  -0.4180012
 130.4800012  52.0324997  -0.3660012 130.0353308  51.3616900  -0.6977607
 131.4040012  49.5304997 -15.2980012 132.2540012  49.9514997 -15.1710012
 131.4100012  48.7904997 -14.6910012 131.5211372  49.4880803 -15.1985656
 131.7990012  47.5834997 -13.4740012 131.0720012  47.1044997 -13.0770012
 132.3800012  47.7894997 -12.7420012 131.7779375  47.5457090 -13.3205871
 131.5580012  50.3684997  -8.5270012 132.3910012  49.9904997  -8.8070012
 131.6700012  51.3114997  -8.6460012 131.6872647  50.4442218  -8.5814513
 130.0440012  53.2464997  -6.2200012 129.3970012  53.5714997  -5.5940012
 129.5270012  52.8064997  -6.8940012 129.8854029  53.2315004  -6.2254173
 132.0670012  47.4844997 -17.0830012 131.5450012  47.8414997 -17.8020012
 132.0340012  48.1594997 -16.4050012 131.9911634  47.6245413 -17.0896855
 130.4160012  44.7244997 -18.5320012 130.5120012  45.3914997 -19.2130012
 130.2760012  43.9084997 -19.0140012 130.4102135  44.7054500 -18.6901509
 129.5850012  46.1044997 -12.9110012 129.4350012  45.1594997 -12.9320012
 129.2320012  46.3854997 -12.0680012 129.5166625  46.0130441 -12.7997654
 114.6210012  48.1824997  -8.9010012 114.8050012  48.1004997  -9.8370012
 115.4700012  48.0584997  -8.4770012 114.7610139  48.1545003  -8.9718545
 130.4420012  48.0744997  -3.2730012 131.0250012  47.3404997  -3.0810012
 131.0060012  48.8464997  -3.2260012 130.5979769  48.0784227  -3.2403841
 131.9380012  45.9774997  -2.5880012 131.0750012  45.5984997  -2.7540012
 132.5430012  45.2384997  -2.6620012 131.9015979  45.8258023  -2.6207183
 129.6630012  42.1324997 -19.4150012 130.2740012  41.7614997 -18.7780012
 128.8270012  41.7114997 -19.2190012 129.6335032  42.0247554 -19.3012965
 129.2960012  43.6874997 -14.4490012 129.5760012  42.7804997 -14.3250012
 130.0550012  44.1214997 -14.8380012 129.4369277  43.6220942 -14.4846318
 129.9080012  44.2684997  -9.0130012 130.8410012  44.4804997  -9.0470012
 129.6730012  44.3704997  -8.0910012 130.0038036  44.3112769  -8.8930024
 129.9370012  45.0054997  -6.2370012 129.0940012  45.2734997  -5.8710012
 130.3790012  45.8274997  -6.4480012 129.8814158  45.1533291  -6.2154509
 114.2180012  43.4534997  -2.7600012 115.1380012  43.3314997  -2.5240012
 113.7690012  42.7034997  -2.3710012 114.2831580  43.3353727  -2.6750994
 132.2200012  38.9854997  -0.8840012 132.5700012  38.3314997  -1.4890012
 132.3670012  39.8224997  -1.3230012 132.2878419  39.0091591  -1.0262882
 129.9090012  40.9504997 -14.4010012 130.0920012  40.5014997 -13.5750012
 129.3100012  40.3654997 -14.8640012 129.8530202  40.8099975 -14.3506725
 115.4390012  41.7654997  -9.8690012 115.8850012  40.9734997  -9.5670012
 115.9060012  42.4814997  -9.4380012 115.5630172  41.7540624  -9.7695180
 113.7430012  44.7644997  -8.8000012 114.2350012  44.5434997  -9.5910012
 114.1060012  45.6054997  -8.5190012 113.8593126  44.8478357  -8.8702469
 131.7400012  41.0944997  -2.5340012 130.8220012  41.3654997  -2.5700012
 131.8630012  40.5594997  -3.3190012 131.6311066  41.0592892  -2.6449513
 131.7760012  41.0174997 -17.8730012 132.1880012  40.2964997 -18.3480012
 132.4580012  41.6874997 -17.8140012 131.9245885  41.0092368 -17.9301085
 114.0570012  41.0224997 -14.7460012 113.1320012  41.2314997 -14.8750012
 114.5110012  41.5064997 -15.4350012 113.9917368  41.1165993 -14.8568774
 128.8280012  56.0064997 -12.8000012 129.4800012  55.6594997 -13.4080012
 129.3380012  56.4954997 -12.1540012 128.9862637  56.0250597 -12.7959764
 114.0210012  39.7604997  -6.4010012 113.3560012  39.5144997  -5.7580012
 113.5780012  40.3824997  -6.9790012 113.8700956  39.8108632  -6.3910648
 116.2130012  52.9354997  -2.2570012 115.3920012  53.1104997  -2.7170012
 115.9600012  52.8624997  -1.3360012 116.0666164  52.9495622  -2.1955077
 119.1670012  53.9104997  -5.9980012 118.7420012  54.7194997  -6.2810012
 120.0710012  53.9954997  -6.3000012 119.2310271  54.0328469  -6.0776224
 123.4780012  55.3094997  -3.0390012 123.6630012  54.9754997  -2.1610012
 124.3240012  55.6184997  -3.3610012 123.6177539  55.3056047  -2.9624395
 125.8230012  56.5954997  -3.7950012 126.5000012  55.9624997  -4.0350012
 126.1450012  56.9964997  -2.9880012 125.9591637  56.5631154  -3.7187207
 130.7400012  39.1844997  -4.7150012 129.9280012  39.5094997  -5.1030012
 130.9730012  38.4244997  -5.2480012 130.6603423  39.1262436  -4.8401747
 116.5690012  57.1664997  -5.9510012 115.8480012  57.6064997  -6.4020012
 116.2030012  56.9154997  -5.1020012 116.4209804  57.1927698  -5.8980160
 119.0360012  56.7664997  -6.9210012 118.1710012  56.8384997  -6.5170012
 118.9810012  57.3134997  -7.7050012 118.9102085  56.8502685  -6.9716638
 123.7460012  56.6544997  -7.7460012 123.2900012  57.1834997  -8.4000012
 123.9090012  57.2574997  -7.0200012 123.7055585  56.8084468  -7.7374938
 126.0740012  55.5324997  -6.8010012 125.1690012  55.6974997  -7.0660012
 126.5030012  56.3854997  -6.8660012 126.0080799  55.6704483  -6.8460818
 128.6780012  57.1024997  -6.5060012 128.4960012  58.0184997  -6.7160012
 128.8550012  56.6924997  -7.3520012 128.6770210  57.1724822  -6.6492115
 115.9830012  55.7894997  -9.0410012 115.9650012  55.3644997  -8.1830012
 116.7880012  55.4714997  -9.4490012 116.0893875  55.6883812  -8.9788345
 118.1250012  54.4994997 -10.3860012 117.9060012  53.5834997 -10.2160012
 118.9490012  54.6394997  -9.9200012 118.2064420  54.3930520 -10.2997226
 120.6620012  54.9694997  -9.5370012 120.8750012  54.0814997  -9.8240012
 120.7260012  54.9354997  -8.5830012 120.6998232  54.8433102  -9.4472603
 124.1700012  40.6334997 -10.3930012 123.4960012  40.0044997 -10.1370012
 124.7340012  40.1494997 -10.9960012 124.1539230  40.4818744 -10.4394660
 129.3130012  38.7414997 -10.2800012 129.9170012  39.2884997 -10.7820012
 128.4430012  39.0604997 -10.5200012 129.2781241  38.8595806 -10.3812346
 131.0400012  39.8794997 -11.9470012 131.6520012  39.3654997 -12.4730012
 131.4220012  40.7574997 -11.9230012 131.1754540  39.9277140 -12.0158170
 116.4970012  39.2674997 -12.5710012 115.7200012  39.0334997 -13.0780012
 117.0270012  38.4704997 -12.5620012 116.4622330  39.1276988 -12.6392258
 115.3330012  39.0654997 -16.7670012 115.7720012  39.6764997 -17.3590012
 114.7000012  39.6034997 -16.2930012 115.3074514  39.2219257 -16.7839070
 121.0760012  39.1944997 -12.7570012 121.9510012  39.5824997 -12.7870012
 120.9400012  38.9794997 -11.8350012 121.1773695  39.2185184 -12.6363560
 126.6330012  39.2244997 -11.1080012 126.7090012  39.3194997 -12.0580012
 126.3580012  38.3164997 -10.9790012 126.6062321  39.1147867 -11.2204921
 127.9860012  39.2504997 -15.4160012 127.2840012  39.8654997 -15.6250012
 127.5420012  38.4124997 -15.2850012 127.8296330  39.2215783 -15.4269672
 115.2340012  55.0134997 -15.8690012 114.5490012  54.9754997 -16.5370012
 115.2380012  55.9264997 -15.5810012 115.1408193  55.1317016 -15.9214716
 117.1940012  40.9814997 -18.3250012 117.6860012  40.3514997 -18.8520012
 117.8180012  41.2774997 -17.6610012 117.3455446  40.9353199 -18.3074020
 122.2200012  41.2744997 -15.8680012 122.3980012  40.6284997 -15.1850012
 122.1670012  42.1084997 -15.4000012 122.2371829  41.2987985 -15.7114060
 124.0990012  56.2234997 -17.4720012 124.9650012  56.5894997 -17.6500012
 123.8520012  55.7834997 -18.2860012 124.1842392  56.2141756 -17.6063711
 130.8080012  55.7864997 -14.7930012 130.6130012  55.0384997 -15.3580012
 130.7690012  56.5444997 -15.3760012 130.7760380  55.7866099 -14.9491616
 116.4550012  39.7814997  -3.0530012 116.0890012  39.0164997  -2.6100012
 117.3680012  39.8104997  -2.7660012 116.5282790  39.6807224  -2.9535930
 118.4280012  39.1324997  -1.5170012 119.3260012  38.8584997  -1.7020012
 118.0410012  38.3894997  -1.0530012 118.4986612  38.9945914  -1.4796357
 117.0520012  55.9334997 -18.8440012 116.7850012  56.2204997 -17.9710012
 117.8240012  55.3874997 -18.6920012 117.1197488  55.8990294 -18.7038950
 126.8490012  38.4644997  -1.3350012 126.9260012  38.0384997  -0.4810012
 127.7430012  38.4784997  -1.6780012 126.9803428  38.4080879  -1.2644690
 130.0250012  54.5374997  -2.6430012 129.2430012  54.3514997  -3.1620012
 129.9530012  55.4664997  -2.4250012 129.9081777  54.6376492  -2.6845952
 144.4310012  48.4234997 -12.6120012 144.5200012  49.3674997 -12.7440012
 143.7930012  48.1484997 -13.2700012 144.3569081  48.5154830 -12.7190386
 143.3640012  47.6784997  -9.1930012 143.3260012  47.0324997  -8.4880012
 143.0420012  47.2124997  -9.9640012 143.3152333  47.5269408  -9.2007022
 135.7330012  47.2934997  -7.6000012 135.7740012  46.6674997  -6.8770012
 136.4360012  47.9174997  -7.4180012 135.8336363  47.2921196  -7.4763956
 136.6560012  51.7434997  -9.0650012 136.2870012  50.9414997  -9.4350012
 137.5970012  51.5744997  -9.0190012 136.7327289  51.6110153  -9.1093684
 133.2660012  45.4034997 -13.6720012 132.8190012  46.2494997 -13.6910012
 132.7050012  44.8234997 -14.1880012 133.1289900  45.4409916 -13.7443199
 133.9770012  47.5654997 -11.5460012 134.1900012  46.7954997 -11.0190012
 134.7150012  47.6544997 -12.1500012 134.1058496  47.4721394 -11.5554700
 144.1820012  55.7224997 -10.6790012 144.8020012  55.0454997 -10.9530012
 143.9740012  55.5044997  -9.7710012 144.2386904  55.6003870 -10.5936635
 141.7540012  50.1114997  -8.7870012 142.0580012  49.4254997  -9.3820012
 142.4750012  50.2294997  -8.1690012 141.8930671  50.0336305  -8.7848184
 144.8950012  44.5054997  -8.4590012 145.0370012  43.5594997  -8.4390012
 144.7880012  44.7124997  -9.3880012 144.8999864  44.4039534  -8.5817661
 138.0490012  42.6064997 -11.1870012 138.0930012  43.4664997 -11.6050012
 137.5920012  42.0544997 -11.8210012 137.9932185  42.6495799 -11.3299701
 134.6700012  45.0034997 -10.4250012 135.3230012  44.4534997  -9.9930012
 134.6940012  44.7294997 -11.3420012 134.7626683  44.8911466 -10.4897877
 139.8260012  46.5534997 -11.2100012 140.4420012  46.0274997 -10.7000012
 139.2400012  45.9134997 -11.6130012 139.8310810  46.3949208 -11.1946827
 136.8600012  41.5244997  -7.1130012 136.6410012  42.0544997  -7.8790012
 136.1920012  41.7514997  -6.4660012 136.7397600  41.6276906  -7.1303621
 144.2290012  51.0244997 -13.5690012 143.9330012  50.7024997 -14.4200012
 143.9040012  51.9244997 -13.5280012 144.1446371  51.1020215 -13.6798199
 139.4290012  49.2004997  -6.8260012 138.6890012  49.7984997  -6.7220012
 140.1430012  49.7544997  -7.1410012 139.4242237  49.3572831  -6.8543535
 136.4530012  43.4164997  -9.1610012 137.0670012  44.0494997  -8.7870012
 136.9650012  42.9444997  -9.8170012 136.6062296  43.4392370  -9.1985748
 137.8360012  51.1644997  -6.0380012 137.8310012  52.0444997  -6.4160012
 136.9830012  51.0814997  -5.6130012 137.7199464  51.2736117  -6.0322093
 133.9570012  50.8354997 -15.2560012 133.6850012  51.0644997 -16.1450012
 134.0030012  51.6734997 -14.7960012 133.9260094  50.9801213 -15.3154303
 140.8860012  38.8304997  -9.6600012 140.7690012  37.8814997  -9.7150012
 140.0310012  39.1624997  -9.3870012 140.7543733  38.7455409  -9.6306103
 143.1530012  47.6674997 -15.1600012 142.4410012  48.2024997 -15.5120012
 143.8440012  47.7234997 -15.8200012 143.1490132  47.7482543 -15.2973711
 143.2060012  46.1254997 -18.1210012 143.9070012  46.1474997 -17.4700012
 143.5090012  45.4974997 -18.7770012 143.3427830  46.0436566 -18.1206289
 138.2040012  48.5074997 -12.3260012 137.8730012  48.1374997 -13.1440012
 138.7920012  47.8374997 -11.9790012 138.2381873  48.3661156 -12.3911898
 139.5700012  51.9354997  -9.6440012 139.4760012  51.3574997 -10.4010012
 140.3000012  51.5644997  -9.1480012 139.6557981  51.8062390  -9.6805835
 138.5700012  47.2764997  -8.6920012 139.1360012  47.3974997  -9.4550012
 138.8890012  47.9134997  -8.0530012 138.6905786  47.3791884  -8.7099960
 144.8790012  52.7794997  -7.9580012 144.6390012  53.4414997  -7.3100012
 144.6810012  51.9454997  -7.5330012 144.8193808  52.7573134  -7.8118476
 139.4500012  51.6754997  -3.9750012 139.1390012  52.4574997  -3.5200012
 138.8000012  51.5224997  -4.6610012 139.3195558  51.7619105  -4.0054129
 136.3700012  47.8734997  -4.7460012 136.4410012  48.5244997  -4.0480012
 135.4800012  47.9764997  -5.0810012 136.2593117  47.9765936  -4.6957300
 143.1560012  53.7764997 -13.0880012 143.6300012  54.0714997 -12.3100012
 142.5930012  54.5144997 -13.3210012 143.1447653  53.9166932 -13.0129864
 137.6900012  53.7474997  -3.2120012 137.6970012  53.6114997  -4.1590012
 136.7740012  53.6294997  -2.9600012 137.5671714  53.7129430  -3.3075334
 137.1940012  47.5774997 -14.7360012 136.9020012  48.3454997 -15.2270012
 136.5200012  46.9174997 -14.8990012 137.0629081  47.5934406 -14.8252660
 133.2870012  49.9404997  -5.9210012 132.7860012  49.9124997  -6.7360012
 133.2920012  49.0344997  -5.6120012 133.2191526  49.8142278  -5.9907128
 133.0370012  52.7204997  -9.0370012 133.9830012  52.5764997  -9.0560012
 132.9250012  53.5044997  -8.5000012 133.1512727  52.8068046  -8.9669928
 142.2140012  52.9604997  -4.4790012 142.3010012  53.7864997  -4.0040012
 141.3500012  52.6304997  -4.2300012 142.1091964  53.0289878  -4.3803451
 142.6280012  56.7324997 -14.6730012 142.5530012  56.6114997 -15.6190012
 142.6610012  57.6824997 -14.5540012 142.6221848  56.8442500 -14.7865166
 136.2810012  55.5214997 -12.8920012 136.4340012  55.1734997 -12.0130012
 135.4310012  55.1654997 -13.1470012 136.1868962  55.4256650 -12.8061660
 135.5360012  51.2634997  -4.8780012 135.7520012  50.9024997  -4.0190012
 134.6810012  50.8894997  -5.0880012 135.4499292  51.1634111  -4.7886614
 138.1550012  39.7334997  -8.8830012 137.2930012  39.6464997  -9.2900012
 138.1320012  40.5894997  -8.4550012 138.0340330  39.8372765  -8.8808137
 142.8180012  39.4554997  -5.5080012 143.2380012  39.0404997  -4.7550012
 141.8850012  39.2774997  -5.3910012 142.7493644  39.3745900  -5.3890461
 142.4790012  41.9484997 -18.2230012 142.2260012  41.9674997 -17.3000012
 142.2230012  41.0764997 -18.5240012 142.4097790  41.8332437 -18.1373737
 138.2460012  44.6994997  -7.7880012 137.6040012  44.6584997  -7.0790012
 138.2830012  45.6254997  -8.0250012 138.1631324  44.8191559  -7.7230176
 138.2430012  44.9204997 -12.8760012 137.3500012  44.5794997 -12.9340012
 138.6930012  44.5434997 -13.6310012 138.1817305  44.8228484 -12.9860823
 143.7780012  45.3364997 -14.0590012 143.3690012  46.1514997 -14.3500012
 144.4990012  45.1964997 -14.6730012 143.8194537  45.4292018 -14.1818658
 142.8800012  45.5114997  -2.5710012 142.3180012  44.8074997  -2.2500012
 143.7070012  45.3914997  -2.1030012 142.9147095  45.3987883  -2.4637670
 144.7830012  44.7824997 -11.2450012 144.5880012  45.3874997 -11.9600012
 144.9640012  43.9484997 -11.6790012 144.7807614  44.7526300 -11.4015595
 135.9960012  45.0194997  -5.9210012 135.9580012  45.4194997  -5.0520012
 135.5050012  44.2024997  -5.8300012 135.9244684  44.9638069  -5.7898941
 139.3620012  42.3934997 -19.1220012 138.9310012  41.9484997 -18.3920012
 138.6440012  42.7654997 -19.6340012 139.2059438  42.3828940 -19.0913201
 132.6040012  42.1354997 -12.0700012 133.2350012  42.1064997 -11.3510012
 133.0530012  41.7104997 -12.8000012 132.7510774  42.0740492 -12.0703447
 133.8780012  42.8814997 -16.6460012 134.3520012  43.4724997 -17.2310012
 133.1610012  43.4124997 -16.2990012 133.8459341  43.0340867 -16.6791164
 144.0470012  46.4204997  -6.5730012 144.3700012  45.7894997  -7.2160012
 143.6070012  45.8854997  -5.9130012 144.0316895  46.2618441  -6.5717150
 140.8240012  42.3474997 -11.7890012 139.9130012  42.4044997 -11.5010012
 141.3300012  42.2874997 -10.9790012 140.7675413  42.3471985 -11.6399378
 135.6530012  43.9764997 -12.9630012 134.7630012  44.0764997 -13.3030012
 135.9490012  43.1344997 -13.3090012 135.5712823  43.8763545 -13.0562787
 139.3060012  43.9764997 -15.3060012 140.2370012  44.1054997 -15.1280012
 139.0910012  44.6464997 -15.9560012 139.4044247  44.0846565 -15.3694253
 137.9800012  45.1714997 -17.7390012 137.4370012  44.7914997 -18.4310012
 138.8130012  45.3654997 -18.1680012 138.0184399  45.1458124 -17.8915474
 136.1150012  49.7284997  -2.6400012 136.8470012  49.9824997  -2.0790012
 135.3350012  49.9324997  -2.1250012 136.1098232  49.7909177  -2.4934240
 142.1440012  45.1354997  -9.9020012 142.7090012  44.5884997 -10.4490012
 141.9970012  44.6134997  -9.1140012 142.2012918  44.9902024  -9.8701546
 137.1460012  41.2714997 -13.4840012 136.8290012  40.3694997 -13.5190012
 137.9280012  41.2734997 -14.0370012 137.2082284  41.1481628 -13.5635217
 140.7710012  43.5234997  -7.4880012 139.9350012  43.9774997  -7.3780012
 141.2950012  43.7994997  -6.7360012 140.7274414  43.6229376  -7.3712864
 141.3150012  49.7364997 -15.8040012 140.5700012  49.2294997 -16.1260012
 141.1810012  49.7854997 -14.8570012 141.1948776  49.6736940 -15.7201353
 142.8340012  49.9204997  -4.5670012 142.4890012  49.5394997  -3.7600012
 142.6340012  50.8544997  -4.4950012 142.7598061  49.9945228  -4.4469039
 136.4400012  49.0314997 -10.0340012 137.1850012  49.0294997 -10.6350012
 136.5180012  48.2084997  -9.5520012 136.5525518  48.9199315 -10.0511071
 143.4410012  51.1954997 -16.7780012 143.1450012  52.0214997 -16.3970012
 142.7380012  50.5754997 -16.5820012 143.3054914  51.2248199 -16.6993557
 133.4480012  47.4924997  -4.7190012 133.6710012  47.0744997  -3.8870012
 132.8460012  46.8794997  -5.1420012 133.3971759  47.3524668  -4.6622978
 140.4640012  47.0094997  -2.5060012 140.1680012  46.8434997  -3.4010012
 141.3960012  46.7894997  -2.5170012 140.5494166  46.9570640  -2.6299464
 138.8150012  52.5494997 -12.6300012 139.3420012  53.3224997 -12.8300012
 137.9350012  52.7744997 -12.9310012 138.7681773  52.6858005 -12.6980990
 134.5700012  47.4114997 -18.0430012 135.1860012  48.0384997 -17.6630012
 133.7080012  47.7274997 -17.7710012 134.5377698  47.5399430 -17.9542817
 140.2420012  50.2124997 -13.0530012 140.0010012  51.1374997 -13.0120012
 139.5010012  49.7534997 -12.6570012 140.1088409  50.2771421 -12.9938623
 140.7570012  54.3614997  -6.7380012 141.1190012  55.2164997  -6.9720012
 141.2880012  54.0694997  -5.9980012 140.8784473  54.4391060  -6.6699145
 138.9250012  55.2344997 -13.5080012 137.9750012  55.3394997 -13.4570012
 139.2770012  56.0544997 -13.1630012 138.8424203  55.3598314 -13.4543350
 144.3010012  50.4604997  -7.0380012 143.8750012  50.2334997  -6.2110012
 144.8810012  49.7224997  -7.2200012 144.3211868  50.3295299  -6.9494170
 135.0820012  42.2454997  -5.1610012 134.1890012  42.5844997  -5.2290012
 134.9830012  41.3904997  -4.7430012 134.9464164  42.1762588  -5.1137765
 134.7330012  54.0504997  -6.7260012 134.9500012  53.1184997  -6.7570012
 134.9790012  54.3244997  -5.8430012 134.7959549  53.9600636  -6.6108237
 140.5950012  52.5014997 -19.5170012 140.8340012  51.7534997 -20.0640012
 140.3260012  52.1134997 -18.6840012 140.5913675  52.3466638 -19.4793135
 139.5320012  52.0714997 -17.0600012 139.6780012  51.5514997 -16.2700012
 139.5290012  52.9784997 -16.7540012 139.5515989  52.1228853 -16.9103912
 135.9850012  49.3244997 -16.5500012 135.2990012  49.6764997 -15.9830012
 136.5070012  50.0874997 -16.7970012 135.9616852  49.4758578 -16.5057882
 143.8160012  41.9864997  -6.2710012 144.5150012  42.0604997  -5.6210012
 143.4350012  41.1224997  -6.1170012 143.8601767  41.8797624  -6.1611678
 144.6010012  41.6384997 -15.1740012 144.8210012  42.1104997 -15.9770012
 145.1590012  42.0334997 -14.5040012 144.7064968  41.7564285 -15.1932669
 142.2690012  53.7694997 -16.3110012 141.4530012  54.2664997 -16.2590012
 142.7990012  54.2444997 -16.9510012 142.2289161  53.9017722 -16.3904044
 141.8010012  43.3664997 -14.3390012 142.6130012  43.8714997 -14.2930012
 141.5560012  43.2214997 -13.4250012 141.8790520  43.4160375 -14.2091483
 142.3360012  44.3524997  -5.1540012 142.4550012  44.9264997  -4.3970012
 142.9920012  43.6644997  -5.0400012 142.4409757  44.3381079  -5.0349175
 142.6840012  40.4474997 -13.4010012 142.3380012  41.0654997 -12.7560012
 143.3430012  40.9484997 -13.8820012 142.7257826  40.5995802 -13.3779029
 139.6080012  54.8134997 -16.3290012 139.7680012  55.6124997 -16.8300012
 139.4100012  55.1194997 -15.4440012 139.6031649  54.9644469 -16.2780185
 138.3420012  41.5104997 -16.7140012 138.2590012  42.3994997 -16.3670012
 139.2320012  41.2454997 -16.4820012 138.4509469  41.5961430 -16.6352374
 136.6010012  51.9384997 -17.6530012 137.1930012  52.6374997 -17.3770012
 137.0600012  51.5054997 -18.3730012 136.7441142  51.9757049 -17.7125170
 134.9170012  44.6024997 -18.5370012 134.8720012  45.5414997 -18.3590012
 134.0290012  44.3664997 -18.8070012 134.7908574  44.6991892 -18.5491088
 135.7250012  39.3844997  -9.8640012 135.4960012  39.4434997 -10.7920012
 135.2820012  38.5924997  -9.5580012 135.6338530  39.2855753  -9.9495214
 134.6550012  53.3244997 -13.7040012 133.8230012  53.7974997 -13.6760012
 135.2010012  53.8344997 -14.3020012 134.6149739  53.4581871 -13.7810284
 133.9430012  55.9374997  -2.3740012 134.4840012  55.7204997  -1.6140012
 133.4620012  55.1314997  -2.5630012 133.9519345  55.7989514  -2.2956924
 138.5410012  54.8564997  -0.7530012 139.3080012  54.3974997  -0.4120012
 138.5190012  54.6304997  -1.6830012 138.6431434  54.7630409  -0.8319957
 142.6330012  54.3644997 -19.3780012 141.9890012  53.7334997 -19.0570012
 143.3950012  53.8334997 -19.6100012 142.6478077  54.2062920 -19.3653989
 133.8500012  49.7474997  -1.4190012 133.9940012  48.8454997  -1.7060012
 133.0780012  50.0334997  -1.9070012 133.7653322  49.6628261  -1.5242119
 138.1920012  50.0914997 -19.2870012 138.2560012  49.2974997 -18.7560012
 138.8450012  49.9724997 -19.9770012 138.2890241  49.9667148 -19.3075683
 140.5060012  49.7174997  -1.9870012 140.1770012  49.9884997  -2.8440012
 140.6580012  48.7764997  -2.0740012 140.4814809  49.6273862  -2.1161756
 134.6830012  46.9474997  -1.9990012 135.0910012  46.0904997  -2.1200012
 134.4230012  46.9624997  -1.0780012 134.7037568  46.8320807  -1.8910412
 139.3410012  48.0634997 -16.9810012 138.8810012  47.5794997 -16.2950012
 139.5960012  47.3954997 -17.6170012 139.3124902  47.9068731 -16.9730666
 138.6300012  45.9564997  -4.6250012 138.0120012  46.6314997  -4.3450012
 138.9740012  46.2774997  -5.4580012 138.5919615  46.0922721  -4.6993419
 140.4120012  46.3064997 -18.7190012 140.2320012  46.1524997 -19.6460012
 141.3620012  46.4144997 -18.6740012 140.5157776  46.3000175 -18.8398157
 143.6500012  48.4284997  -1.3480012 144.6030012  48.5114997  -1.3750012
 143.4890012  47.7164997  -0.7280012 143.7586426  48.3436746  -1.2679421
 138.9690012  43.3114997  -3.5430012 139.1190012  42.5824997  -4.1450012
 138.9720012  44.0884997  -4.1020012 138.9899302  43.3167851  -3.7009308
 139.3820012  41.6814997  -6.0500012 139.9180012  42.1324997  -6.7020012
 138.5300012  41.5734997  -6.4730012 139.3402178  41.7286390  -6.1964244
 140.9640012  47.1204997  -5.8110012 141.7140012  46.9644997  -6.3840012
 140.6250012  47.9724997  -6.0860012 141.0208921  47.2142968  -5.9266439
 137.4480012  44.5094997  -1.6310012 136.6810012  43.9774997  -1.8410012
 138.1270012  44.1994997  -2.2310012 137.4347022  44.3947506  -1.7408352
 140.1880012  39.1374997  -5.6190012 140.0890012  40.0844997  -5.7240012
 139.4450012  38.7654997  -6.0940012 140.0740564  39.2165902  -5.6975440
 141.4520012  43.4594997  -2.0550012 141.2160012  43.2394997  -1.1530012
 140.6680012  43.2524997  -2.5650012 141.3138628  43.4014760  -2.0006068
 144.1670012  42.5864997  -2.9790012 143.2200012  42.6184997  -2.8470012
 144.4800012  41.9614997  -2.3260012 144.0795475  42.5063207  -2.8725545
 135.6280012  42.4304997  -1.9270012 135.8400012  41.7234997  -2.5370012
 135.5170012  41.9924997  -1.0830012 135.6419721  42.2747084  -1.8963157
 140.4090012  38.4314997  -2.9470012 141.1210012  37.7914997  -2.9610012
 140.3080012  38.6984997  -3.8610012 140.4927939  38.3799938  -3.0724350
 140.7630012  40.1144997  -0.8940012 140.6310012  39.6384997  -1.7140012
 140.1640012  40.8584997  -0.9490012 140.6639071  40.1499618  -1.0137114
 140.3090012  56.9974997 -17.7170012 141.2420012  57.1554997 -17.5740012
 140.0450012  57.6724997 -18.3420012 140.4009510  57.1103611 -17.7819259
 133.8780012  51.6334997 -18.2350012 134.7920012  51.7124997 -17.9610012
 133.8850012  50.9464997 -18.9010012 134.0041131  51.5513961 -18.2875607
 132.5270012  57.0264997 -13.1570012 131.8800012  56.5644997 -13.6900012
 132.8810012  56.3544997 -12.5750012 132.4863849  56.8724723 -13.1512041
 133.3970012  55.1074997 -11.3530012 133.0620012  54.2274997 -11.1810012
 133.6190012  55.4524997 -10.4880012 133.3811783  55.0337501 -11.2125792
 133.4770012  48.1824997  -8.9010012 133.6610012  48.1004997  -9.8370012
 134.3260012  48.0584997  -8.4770012 133.6170139  48.1545003  -8.9718545
 133.0740012  43.4534997  -2.7600012 133.9940012  43.3314997  -2.5240012
 132.6250012  42.7034997  -2.3710012 133.1391580  43.3353727  -2.6750994
 134.2950012  41.7654997  -9.8690012 134.7410012  40.9734997  -9.5670012
 134.7620012  42.4814997  -9.4380012 134.4190172  41.7540624  -9.7695180
 132.5990012  44.7644997  -8.8000012 133.0910012  44.5434997  -9.5910012
 132.9620012  45.6054997  -8.5190012 132.7153126  44.8478357  -8.8702469
 132.9130012  41.0224997 -14.7460012 131.9880012  41.2314997 -14.8750012
 133.3670012  41.5064997 -15.4350012 132.8477368  41.1165993 -14.8568774
 132.8770012  39.7604997  -6.4010012 132.2120012  39.5144997  -5.7580012
 132.4340012  40.3824997  -6.9790012 132.7260956  39.8108632  -6.3910648
 135.0690012  52.9354997  -2.2570012 134.2480012  53.1104997  -2.7170012
 134.8160012  52.8624997  -1.3360012 134.9226164  52.9495622  -2.1955077
 138.0230012  53.9104997  -5.9980012 137.5980012  54.7194997  -6.2810012
 138.9270012  53.9954997  -6.3000012 138.0870271  54.0328469  -6.0776224
 142.3340012  55.3094997  -3.0390012 142.5190012  54.9754997  -2.1610012
 143.1800012  55.6184997  -3.3610012 142.4737539  55.3056047  -2.9624395
 144.6790012  56.5954997  -3.7950012 145.3560012  55.9624997  -4.0350012
 145.0010012  56.9964997  -2.9880012 144.8151637  56.5631154  -3.7187207
 135.4250012  57.1664997  -5.9510012 134.7040012  57.6064997  -6.4020012
 135.0590012  56.9154997  -5.1020012 135.2769804  57.1927698  -5.8980160
 137.8920012  56.7664997  -6.9210012 137.0270012  56.8384997  -6.5170012
 137.8370012  57.3134997  -7.7050012 137.7662085  56.8502685  -6.9716638
 142.6020012  56.6544997  -7.7460012 142.1460012  57.1834997  -8.4000012
 142.7650012  57.2574997  -7.0200012 142.5615585  56.8084468  -7.7374938
 134.8390012  55.7894997  -9.0410012 134.8210012  55.3644997  -8.1830012
 135.6440012  55.4714997  -9.4490012 134.9453875  55.6883812  -8.9788345
 136.9810012  54.4994997 -10.3860012 136.7620012  53.5834997 -10.2160012
 137.8050012  54.6394997  -9.9200012 137.0624420  54.3930520 -10.2997226
 139.5180012  54.9694997  -9.5370012 139.7310012  54.0814997  -9.8240012
 139.5820012  54.9354997  -8.5830012 139.5558231  54.8433102  -9.4472603
 143.0260012  40.6334997 -10.3930012 142.3520012  40.0044997 -10.1370012
 143.5900012  40.1494997 -10.9960012 143.0099230  40.4818744 -10.4394660
 135.3530012  39.2674997 -12.5710012 134.5760012  39.0334997 -13.0780012
 135.8830012  38.4704997 -12.5620012 135.3182330  39.1276988 -12.6392258
 134.1890012  39.0654997 -16.7670012 134.6280012  39.6764997 -17.3590012
 133.5560012  39.6034997 -16.2930012 134.1634514  39.2219257 -16.7839070
 139.9320012  39.1944997 -12.7570012 140.8070012  39.5824997 -12.7870012
 139.7960012  38.9794997 -11.8350012 140.0333695  39.2185184 -12.6363560
 134.0900012  55.0134997 -15.8690012 133.4050012  54.9754997 -16.5370012
 134.0940012  55.9264997 -15.5810012 133.9968193  55.1317016 -15.9214716
 136.0500012  40.9814997 -18.3250012 136.5420012  40.3514997 -18.8520012
 136.6740012  41.2774997 -17.6610012 136.2015446  40.9353199 -18.3074020
 141.0760012  41.2744997 -15.8680012 141.2540012  40.6284997 -15.1850012
 141.0230012  42.1084997 -15.4000012 141.0931829  41.2987985 -15.7114060
 142.9550012  56.2234997 -17.4720012 143.8210012  56.5894997 -17.6500012
 142.7080012  55.7834997 -18.2860012 143.0402392  56.2141756 -17.6063711
 135.3110012  39.7814997  -3.0530012 134.9450012  39.0164997  -2.6100012
 136.2240012  39.8104997  -2.7660012 135.3842790  39.6807224  -2.9535930
 137.2840012  39.1324997  -1.5170012 138.1820012  38.8584997  -1.7020012
 136.8970012  38.3894997  -1.0530012 137.3546612  38.9945914  -1.4796357
 135.9080012  55.9334997 -18.8440012 135.6410012  56.2204997 -17.9710012
 136.6800012  55.3874997 -18.6920012 135.9757488  55.8990294 -18.7038950
  12.4390012  67.2794997 -12.6120012  12.5280012  68.2234997 -12.7440012
  11.8010012  67.0044997 -13.2700012  12.3649081  67.3714830 -12.7190386
  11.3720012  66.5344997  -9.1930012  11.3340012  65.8884997  -8.4880012
  11.0500012  66.0684997  -9.9640012  11.3232333  66.3829408  -9.2007022
   3.7410012  66.1494997  -7.6000012   3.7820012  65.5234997  -6.8770012
   4.4440012  66.7734997  -7.4180012   3.8416363  66.1481196  -7.4763956
  15.0780012  69.4734997 -10.8920012  14.6380012  68.7534997 -10.4410012
  15.0650012  70.1944997 -10.2620012  15.0160226  69.4723731 -10.7451506
   4.6640012  70.5994997  -9.0650012   4.2950012  69.7974997  -9.4350012
   5.6050012  70.4304997  -9.0190012   4.7407289  70.4670153  -9.1093684
   1.2740012  64.2594997 -13.6720012   0.8270012  65.1054997 -13.6910012
   0.7130012  63.6794997 -14.1880012   1.1369900  64.2969916 -13.7443199
   1.9850012  66.4214997 -11.5460012   2.1980012  65.6514997 -11.0190012
   2.7230012  66.5104997 -12.1500012   2.1138496  66.3281394 -11.5554700
  12.1900012  74.5784997 -10.6790012  12.8100012  73.9014997 -10.9530012
  11.9820012  74.3604997  -9.7710012  12.2466904  74.4563870 -10.5936635
   9.7620012  68.9674997  -8.7870012  10.0660012  68.2814997  -9.3820012
  10.4830012  69.0854997  -8.1690012   9.9010671  68.8896305  -8.7848184
  18.4250012  60.5684997  -7.9260012  18.4740012  61.1784997  -7.1900012
  18.8500012  61.0294997  -8.6490012  18.4891824  60.7143741  -7.9229795
  12.9030012  63.3614997  -8.4590012  13.0450012  62.4154997  -8.4390012
  12.7960012  63.5684997  -9.3880012  12.9079864  63.2599534  -8.5817661
   6.0570012  61.4624997 -11.1870012   6.1010012  62.3224997 -11.6050012
   5.6000012  60.9104997 -11.8210012   6.0012185  61.5055799 -11.3299701
  13.7800012  61.5934997 -12.7860012  14.4260012  61.2644997 -12.1610012
  14.2900012  62.1114997 -13.4090012  13.9374264  61.6184611 -12.7846138
   2.6780012  63.8594997 -10.4250012   3.3310012  63.3094997  -9.9930012
   2.7020012  63.5854997 -11.3420012   2.7706683  63.7471466 -10.4897877
   7.8340012  65.4094997 -11.2100012   8.4500012  64.8834997 -10.7000012
   7.2480012  64.7694997 -11.6130012   7.8390810  65.2509208 -11.1946827
  18.8160012  62.0464997  -5.6900012  18.1280012  62.7044997  -5.7860012
  18.8320012  61.8494997  -4.7540012  18.7238525  62.1100462  -5.5765192
   4.8680012  60.3804997  -7.1130012   4.6490012  60.9104997  -7.8790012
   4.2000012  60.6074997  -6.4660012   4.7477600  60.4836906  -7.1303621
  12.2370012  69.8804997 -13.5690012  11.9410012  69.5584997 -14.4200012
  11.9120012  70.7804997 -13.5280012  12.1526371  69.9580215 -13.6798199
   7.4370012  68.0564997  -6.8260012   6.6970012  68.6544997  -6.7220012
   8.1510012  68.6104997  -7.1410012   7.4322237  68.2132831  -6.8543535
  15.5440012  60.8844997 -10.8060012  15.3280012  60.1184997 -10.2730012
  16.1990012  61.3564997 -10.2930012  15.6030632  60.8435889 -10.6637139
   4.4610012  62.2724997  -9.1610012   5.0750012  62.9054997  -8.7870012
   4.9730012  61.8004997  -9.8170012   4.6142296  62.2952370  -9.1985748
   5.8440012  70.0204997  -6.0380012   5.8390012  70.9004997  -6.4160012
   4.9910012  69.9374997  -5.6130012   5.7279464  70.1296117  -6.0322093
   1.9650012  69.6914997 -15.2560012   1.6930012  69.9204997 -16.1450012
   2.0110012  70.5294997 -14.7960012   1.9340094  69.8361213 -15.3154303
  15.5900012  71.3134997  -8.5440012  14.6490012  71.3714997  -8.3820012
  15.8670012  72.2194997  -8.6810012  15.4984679  71.4439443  -8.5403185
  15.8910012  59.5994997  -7.1260012  15.1550012  60.2104997  -7.1640012
  16.5740012  60.0144997  -7.6530012  15.8826541  59.7391374  -7.2024168
   8.8940012  57.6864997  -9.6600012   8.7770012  56.7374997  -9.7150012
   8.0390012  58.0184997  -9.3870012   8.7623733  57.6015409  -9.6306103
  13.8420012  73.0944997 -11.9180012  14.2680012  72.3874997 -12.4030012
  14.1590012  73.8954997 -12.3350012  13.9431019  73.1060994 -12.0406870
  15.0020012  70.9954997 -13.4100012  14.7440012  70.3054997 -14.0210012
  15.0730012  70.5524997 -12.5640012  14.9762856  70.8412124 -13.3793115
  16.6880012  69.5614997  -4.9320012  16.8280012  68.9704997  -5.6720012
  16.8550012  70.4344997  -5.2890012  16.7296778  69.5986426  -5.0813035
  11.1610012  66.5234997 -15.1600012  10.4490012  67.0584997 -15.5120012
  11.8520012  66.5794997 -15.8200012  11.1570132  66.6042543 -15.2973711
  11.2140012  64.9814997 -18.1210012  11.9150012  65.0034997 -17.4700012
  11.5170012  64.3534997 -18.7770012  11.3507830  64.8996566 -18.1206289
  18.5300012  65.9014997  -6.8660012  17.8770012  66.5964997  -6.7770012
  18.9950012  66.1114997  -7.6760012  18.5035390  66.0249425  -6.9633117
  14.5660012  66.7334997 -14.2080012  13.8340012  66.9614997 -13.6350012
  15.0140012  66.0194997 -13.7530012  14.5263095  66.6682571 -14.0680881
  14.4640012  64.9074997  -5.1410012  14.5440012  65.6704997  -4.5690012
  13.8620012  65.1864997  -5.8310012  14.3935756  65.0497134  -5.1559411
   6.2120012  67.3634997 -12.3260012   5.8810012  66.9934997 -13.1440012
   6.8000012  66.6934997 -11.9790012   6.2461873  67.2221156 -12.3911898
   7.5780012  70.7914997  -9.6440012   7.4840012  70.2134997 -10.4010012
   8.3080012  70.4204997  -9.1480012   7.6637981  70.6622390  -9.6805835
   6.5780012  66.1324997  -8.6920012   7.1440012  66.2534997  -9.4550012
   6.8970012  66.7694997  -8.0530012   6.6985786  66.2351884  -8.7099960
  12.8870012  71.6354997  -7.9580012  12.6470012  72.2974997  -7.3100012
  12.6890012  70.8014997  -7.5330012  12.8273808  71.6133134  -7.8118476
   7.4580012  70.5314997  -3.9750012   7.1470012  71.3134997  -3.5200012
   6.8080012  70.3784997  -4.6610012   7.3275558  70.6179105  -4.0054129
  13.4370012  65.8954997 -16.5230012  14.0170012  66.0454997 -15.7760012
  13.8510012  66.3664997 -17.2460012  13.5722830  65.9796841 -16.5185866
   4.3780012  66.7294997  -4.7460012   4.4490012  67.3804997  -4.0480012
   3.4880012  66.8324997  -5.0810012   4.2673117  66.8325936  -4.6957300
  11.1640012  72.6324997 -13.0880012  11.6380012  72.9274997 -12.3100012
  10.6010012  73.3704997 -13.3210012  11.1527653  72.7726932 -13.0129864
   5.6980012  72.6034997  -3.2120012   5.7050012  72.4674997  -4.1590012
   4.7820012  72.4854997  -2.9600012   5.5751714  72.5689430  -3.3075334
  17.1360012  57.6454997 -16.7100012  16.2360012  57.7844997 -16.4150012
  17.3880012  58.4764997 -17.1120012  17.0468702  57.7769074 -16.7239795
   5.2020012  66.4334997 -14.7360012   4.9100012  67.2014997 -15.2270012
   4.5280012  65.7734997 -14.8990012   5.0709081  66.4494406 -14.8252661
  18.3250012  72.0114997 -18.3340012  18.3990012  72.9504997 -18.1630012
  19.2310012  71.7064997 -18.3900012  18.4575100  72.0986722 -18.3181881
   1.2950012  68.7964997  -5.9210012   0.7940012  68.7684997  -6.7360012
   1.3000012  67.8904997  -5.6120012   1.2271526  68.6702278  -5.9907128
   1.0450012  71.5764997  -9.0370012   1.9910012  71.4324997  -9.0560012
   0.9330012  72.3604997  -8.5000012   1.1592727  71.6628046  -8.9669928
  19.2430012  72.2424997  -3.3550012  19.1940012  71.2874997  -3.3920012
  18.4160012  72.5104997  -2.9540012  19.1244940  72.1478998  -3.3058625
  10.2220012  71.8164997  -4.4790012  10.3090012  72.6424997  -4.0040012
   9.3580012  71.4864997  -4.2300012  10.1171964  71.8849878  -4.3803451
  10.6360012  75.5884997 -14.6730012  10.5610012  75.4674997 -15.6190012
  10.6690012  76.5384997 -14.5540012  10.6301848  75.7002500 -14.7865166
   4.2890012  74.3774997 -12.8920012   4.4420012  74.0294997 -12.0130012
   3.4390012  74.0214997 -13.1470012   4.1948962  74.2816650 -12.8061660
  13.7380012  74.7424997 -17.6710012  14.1130012  73.9984997 -18.1410012
  13.7420012  74.4724997 -16.7520012  13.7898915  74.6041486 -17.6112176
  13.4070012  74.6684997 -14.9210012  12.4710012  74.7684997 -14.7430012
  13.6870012  73.9594997 -14.3430012  13.3168255  74.5862711 -14.8184609
  16.3950012  63.7354997  -2.8750012  15.9880012  64.2164997  -3.5960012
  16.4360012  62.8304997  -3.1830012  16.3448437  63.6789374  -3.0153317
   3.5440012  70.1194997  -4.8780012   3.7600012  69.7584997  -4.0190012
   2.6890012  69.7454997  -5.0880012   3.4579292  70.0194111  -4.7886614
   6.1630012  58.5894997  -8.8830012   5.3010012  58.5024997  -9.2900012
   6.1400012  59.4454997  -8.4550012   6.0420330  58.6932765  -8.8808137
  10.8260012  58.3114997  -5.5080012  11.2460012  57.8964997  -4.7550012
   9.8930012  58.1334997  -5.3910012  10.7573644  58.2305900  -5.3890461
  14.1520012  62.0674997  -4.6550012  13.6380012  61.9414997  -3.8570012
  13.9970012  62.9794997  -4.8990012  14.0606852  62.1736132  -4.5787842
  14.9150012  66.9284997 -18.8930012  14.9570012  66.7054997 -19.8230012
  15.7640012  67.3274997 -18.7030012  15.0355396  66.9519155 -18.9946373
  10.4870012  60.8044997 -18.2230012  10.2340012  60.8234997 -17.3000012
  10.2310012  59.9324997 -18.5240012  10.4177790  60.6892437 -18.1373737
   6.2540012  63.5554997  -7.7880012   5.6120012  63.5144997  -7.0790012
   6.2910012  64.4814997  -8.0250012   6.1711324  63.6751559  -7.7230176
   6.2510012  63.7764997 -12.8760012   5.3580012  63.4354997 -12.9340012
   6.7010012  63.3994997 -13.6310012   6.1897305  63.6788484 -12.9860823
  11.7860012  64.1924997 -14.0590012  11.3770012  65.0074997 -14.3500012
  12.5070012  64.0524997 -14.6730012  11.8274537  64.2852018 -14.1818658
  10.8880012  64.3674997  -2.5710012  10.3260012  63.6634997  -2.2500012
  11.7150012  64.2474997  -2.1030012  10.9227095  64.2547883  -2.4637670
  12.7910012  63.6384997 -11.2450012  12.5960012  64.2434997 -11.9600012
  12.9720012  62.8044997 -11.6790012  12.7887614  63.6086300 -11.4015595
   4.0040012  63.8754997  -5.9210012   3.9660012  64.2754997  -5.0520012
   3.5130012  63.0584997  -5.8300012   3.9324684  63.8198069  -5.7898941
   7.3700012  61.2494997 -19.1220012   6.9390012  60.8044997 -18.3920012
   6.6520012  61.6214997 -19.6340012   7.2139438  61.2388940 -19.0913201
   0.6120012  60.9914997 -12.0700012   1.2430012  60.9624997 -11.3510012
   1.0610012  60.5664997 -12.8000012   0.7590774  60.9300492 -12.0703447
   1.8860012  61.7374997 -16.6460012   2.3600012  62.3284997 -17.2310012
   1.1690012  62.2684997 -16.2990012   1.8539341  61.8900867 -16.6791164
  12.0550012  65.2764997  -6.5730012  12.3780012  64.6454997  -7.2160012
  11.6150012  64.7414997  -5.9130012  12.0396895  65.1178441  -6.5717150
   8.8320012  61.2034997 -11.7890012   7.9210012  61.2604997 -11.5010012
   9.3380012  61.1434997 -10.9790012   8.7755413  61.2031985 -11.6399378
   3.6610012  62.8324997 -12.9630012   2.7710012  62.9324997 -13.3030012
   3.9570012  61.9904997 -13.3090012   3.5792823  62.7323545 -13.0562787
   7.3140012  62.8324997 -15.3060012   8.2450012  62.9614997 -15.1280012
   7.0990012  63.5024997 -15.9560012   7.4124247  62.9406565 -15.3694253
  13.2370012  60.4384997  -8.5250012  12.5610012  60.5694997  -7.8610012
  12.7520012  60.2834997  -9.3350012  13.0787145  60.4354905  -8.5435483
   5.9880012  64.0274997 -17.7390012   5.4450012  63.6474997 -18.4310012
   6.8210012  64.2214997 -18.1680012   6.0264399  64.0018124 -17.8915474
  16.5250012  76.1104997  -2.2480012  16.7250012  76.5344997  -3.0830012
  17.1800012  76.4534997  -1.6410012  16.6410051  76.2149648  -2.2802164
   4.1230012  68.5844997  -2.6400012   4.8550012  68.8384997  -2.0790012
   3.3430012  68.7884997  -2.1250012   4.1178232  68.6469177  -2.4934240
  10.1520012  63.9914997  -9.9020012  10.7170012  63.4444997 -10.4490012
  10.0050012  63.4694997  -9.1140012  10.2092918  63.8462024  -9.8701546
   5.1540012  60.1274997 -13.4840012   4.8370012  59.2254997 -13.5190012
   5.9360012  60.1294997 -14.0370012   5.2162284  60.0041628 -13.5635217
   8.7790012  62.3794997  -7.4880012   7.9430012  62.8334997  -7.3780012
   9.3030012  62.6554997  -6.7360012   8.7354414  62.4789376  -7.3712864
   9.3230012  68.5924997 -15.8040012   8.5780012  68.0854997 -16.1260012
   9.1890012  68.6414997 -14.8570012   9.2028776  68.5296940 -15.7201353
  16.4730012  67.7254997  -7.0170012  17.1150012  68.1824997  -7.5610012
  15.6430012  67.8384997  -7.4800012  16.4485963  67.8032704  -7.1539823
  13.2210012  61.4064997 -17.6040012  12.2820012  61.5184997 -17.7560012
  13.5180012  62.2634997 -17.2980012  13.1327666  61.5376443 -17.5834232
  10.8420012  68.7764997  -4.5670012  10.4970012  68.3954997  -3.7600012
  10.6420012  69.7104997  -4.4950012  10.7678061  68.8505228  -4.4469039
  13.9390012  63.2734997 -15.9440012  14.8310012  63.1364997 -15.6250012
  13.9960012  64.0644997 -16.4800012  14.0686285  63.3616660 -15.9728310
   4.4480012  67.8874997 -10.0340012   5.1930012  67.8854997 -10.6350012
   4.5260012  67.0644997  -9.5520012   4.5605518  67.7759315 -10.0511071
  11.4490012  70.0514997 -16.7780012  11.1530012  70.8774997 -16.3970012
  10.7460012  69.4314997 -16.5820012  11.3134914  70.0808199 -16.6993557
   1.4560012  66.3484997  -4.7190012   1.6790012  65.9304997  -3.8870012
   0.8540012  65.7354997  -5.1420012   1.4051759  66.2084668  -4.6622978
   8.4720012  65.8654997  -2.5060012   8.1760012  65.6994997  -3.4010012
   9.4040012  65.6454997  -2.5170012   8.5574166  65.8130640  -2.6299464
  13.0930012  71.2384997  -4.6160012  12.1920012  71.4214997  -4.8840012
  13.1270012  71.4974997  -3.6950012  12.9743041  71.2985512  -4.5281803
  18.8240012  63.4834997 -16.2490012  18.2700012  63.0874997 -16.9210012
  18.9240012  64.3934997 -16.5270012  18.7617059  63.5523586 -16.3785599
  18.7870012  69.2834997  -3.4120012  17.9360012  69.5214997  -3.7790012
  19.3780012  69.2664997  -4.1650012  18.7502487  69.3138258  -3.5641107
  17.1190012  72.2694997 -15.7840012  16.7460012  71.4434997 -15.4750012
  17.3970012  72.0864997 -16.6810012  17.1055630  72.1317303 -15.8630374
  14.2800012  67.0774997  -8.7630012  13.3510012  66.8454997  -8.7900012
  14.7310012  66.3004997  -9.0930012  14.2139216  66.9407238  -8.8113083
   6.8230012  71.4054997 -12.6300012   7.3500012  72.1784997 -12.8300012
   5.9430012  71.6304997 -12.9310012   6.7761773  71.5418005 -12.6980990
   2.5780012  66.2674997 -18.0430012   3.1940012  66.8944997 -17.6630012
   1.7160012  66.5834997 -17.7710012   2.5457698  66.3959430 -17.9542817
   8.2500012  69.0684997 -13.0530012   8.0090012  69.9934997 -13.0120012
   7.5090012  68.6094997 -12.6570012   8.1168409  69.1331421 -12.9938623
   8.7650012  73.2174997  -6.7380012   9.1270012  74.0724997  -6.9720012
   9.2960012  72.9254997  -5.9980012   8.8864473  73.2951060  -6.6699145
   6.9330012  74.0904997 -13.5080012   5.9830012  74.1954997 -13.4570012
   7.2850012  74.9104997 -13.1630012   6.8504203  74.2158314 -13.4543350
  12.3090012  69.3164997  -7.0380012  11.8830012  69.0894997  -6.2110012
  12.8890012  68.5784997  -7.2200012  12.3291868  69.1855299  -6.9494170
  14.5120012  70.2454997 -17.9640012  14.8650012  69.8654997 -17.1590012
  13.5630012  70.1524997 -17.8770012  14.4320441  70.1809596 -17.8421441
  14.9670012  73.8684997  -4.5680012  14.3660012  73.3134997  -5.0640012
  15.2490012  74.5354997  -5.1940012  14.9228519  73.8826841  -4.7205048
  19.0150012  74.7254997 -17.7630012  19.7590012  75.3114997 -17.9030012
  18.3210012  75.2934997 -17.4290012  19.0230292  74.8825582 -17.7370039
   3.0900012  61.1014997  -5.1610012   2.1970012  61.4404997  -5.2290012
   2.9910012  60.2464997  -4.7430012   2.9544164  61.0322588  -5.1137765
  15.3780012  68.9184997 -15.7370012  15.1000012  68.1904997 -15.1810012
  16.3050012  69.0374997 -15.5320012  15.4653124  68.8348802 -15.6331155
   2.7410012  72.9064997  -6.7260012   2.9580012  71.9744997  -6.7570012
   2.9870012  73.1804997  -5.8430012   2.8039549  72.8160636  -6.6108237
   8.6030012  71.3574997 -19.5170012   8.8420012  70.6094997 -20.0640012
   8.3340012  70.9694997 -18.6840012   8.5993675  71.2026638 -19.4793135
   7.5400012  70.9274997 -17.0600012   7.6860012  70.4074997 -16.2700012
   7.5370012  71.8344997 -16.7540012   7.5595989  70.9788853 -16.9103912
   3.9930012  68.1804997 -16.5500012   3.3070012  68.5324997 -15.9830012
   4.5150012  68.9434997 -16.7970012   3.9696852  68.3318578 -16.5057882
  11.8240012  60.8424997  -6.2710012  12.5230012  60.9164997  -5.6210012
  11.4430012  59.9784997  -6.1170012  11.8681767  60.7357624  -6.1611678
  12.6090012  60.4944997 -15.1740012  12.8290012  60.9664997 -15.9770012
  13.1670012  60.8894997 -14.5040012  12.7144968  60.6124285 -15.1932669
  10.2770012  72.6254997 -16.3110012   9.4610012  73.1224997 -16.2590012
  10.8070012  73.1004997 -16.9510012  10.2369161  72.7577722 -16.3904044
   9.8090012  62.2224997 -14.3390012  10.6210012  62.7274997 -14.2930012
   9.5640012  62.0774997 -13.4250012   9.8870520  62.2720375 -14.2091483
  10.3440012  63.2084997  -5.1540012  10.4630012  63.7824997  -4.3970012
  11.0000012  62.5204997  -5.0400012  10.4489757  63.1941079  -5.0349175
  10.6920012  59.3034997 -13.4010012  10.3460012  59.9214997 -12.7560012
  11.3510012  59.8044997 -13.8820012  10.7337826  59.4555802 -13.3779029
   7.6160012  73.6694997 -16.3290012   7.7760012  74.4684997 -16.8300012
   7.4180012  73.9754997 -15.4440012   7.6111649  73.8204469 -16.2780185
   6.3500012  60.3664997 -16.7140012   6.2670012  61.2554997 -16.3670012
   7.2400012  60.1014997 -16.4820012   6.4589469  60.4521430 -16.6352374
  16.5490012  61.1154997  -4.3190012  15.6320012  61.3784997  -4.4070012
  16.8840012  61.1124997  -5.2160012  16.4689900  61.1510224  -4.4522081
  15.1510012  64.8664997 -10.2240012  14.3530012  64.4514997 -10.5520012
  15.5960012  64.1754997  -9.7330012  15.1019885  64.7163543 -10.2025111
   4.6090012  70.7944997 -17.6530012   5.2010012  71.4934997 -17.3770012
   5.0680012  70.3614997 -18.3730012   4.7521142  70.8317049 -17.7125170
   2.9250012  63.4584997 -18.5370012   2.8800012  64.3974997 -18.3590012
   2.0370012  63.2224997 -18.8070012   2.7988574  63.5551892 -18.5491088
  16.2370012  74.1224997  -8.6010012  16.0820012  74.8004997  -9.2580012
  17.1700012  74.1944997  -8.3980012  16.3418500  74.2250170  -8.6634881
   3.7330012  58.2404997  -9.8640012   3.5040012  58.2994997 -10.7920012
   3.2900012  57.4484997  -9.5580012   3.6418530  58.1415753  -9.9495214
   2.6630012  72.1804997 -13.7040012   1.8310012  72.6534997 -13.6760012
   3.2090012  72.6904997 -14.3020012   2.6229739  72.3141871 -13.7810284
   1.9510012  74.7934997  -2.3740012   2.4920012  74.5764997  -1.6140012
   1.4700012  73.9874997  -2.5630012   1.9599345  74.6549514  -2.2956924
   6.5490012  73.7124997  -0.7530012   7.3160012  73.2534997  -0.4120012
   6.5270012  73.4864997  -1.6830012   6.6511434  73.6190409  -0.8319957
  10.6410012  73.2204997 -19.3780012   9.9970012  72.5894997 -19.0570012
  11.4030012  72.6894997 -19.6100012  10.6558077  73.0622920 -19.3653989
  13.1260012  72.0924997  -2.0240012  12.7750012  71.2364997  -1.7810012
  13.8520012  72.2354997  -1.4170012  13.1760769  71.9945636  -1.9086381
  15.2450012  73.0374997 -19.1440012  15.5280012  72.2434997 -18.6920012
  15.9850012  73.2704997 -19.7050012  15.3837486  72.9602803 -19.1579302
   1.8580012  68.6034997  -1.4190012   2.0020012  67.7014997  -1.7060012
   1.0860012  68.8894997  -1.9070012   1.7733322  68.5188261  -1.5242119
   6.2000012  68.9474997 -19.2870012   6.2640012  68.1534997 -18.7560012
   6.8530012  68.8284997 -19.9770012   6.2970241  68.8227148 -19.3075683
   8.5140012  68.5734997  -1.9870012   8.1850012  68.8444997  -2.8440012
   8.6660012  67.6324997  -2.0740012   8.4894809  68.4833862  -2.1161756
  14.2480012  68.4894997  -4.6030012  14.9940012  69.0774997  -4.7230012
  13.4910012  69.0714997  -4.5400012  14.2477554  68.6487011  -4.6109093
   2.6910012  65.8034997  -1.9990012   3.0990012  64.9464997  -2.1200012
   2.4310012  65.8184997  -1.0780012   2.7117568  65.6880807  -1.8910412
   7.3490012  66.9194997 -16.9810012   6.8890012  66.4354997 -16.2950012
   7.6040012  66.2514997 -17.6170012   7.3204902  66.7628731 -16.9730666
   6.6380012  64.8124997  -4.6250012   6.0200012  65.4874997  -4.3450012
   6.9820012  65.1334997  -5.4580012   6.5999615  64.9482721  -4.6993419
   8.4200012  65.1624997 -18.7190012   8.2400012  65.0084997 -19.6460012
   9.3700012  65.2704997 -18.6740012   8.5237776  65.1560175 -18.8398157
  11.6580012  67.2844997  -1.3480012  12.6110012  67.3674997  -1.3750012
  11.4970012  66.5724997  -0.7280012  11.7666426  67.1996746  -1.2679421
  17.8100012  67.5174997 -19.2730012  17.5360012  67.0924997 -20.0860012
  17.8490012  68.4484997 -19.4900012  17.7777699  67.5852484 -19.4136390
   6.9770012  62.1674997  -3.5430012   7.1270012  61.4384997  -4.1450012
   6.9800012  62.9444997  -4.1020012   6.9979302  62.1727851  -3.7009308
   7.3900012  60.5374997  -6.0500012   7.9260012  60.9884997  -6.7020012
   6.5380012  60.4294997  -6.4730012   7.3482178  60.5846390  -6.1964244
   8.9720012  65.9764997  -5.8110012   9.7220012  65.8204997  -6.3840012
   8.6330012  66.8284997  -6.0860012   9.0288921  66.0702968  -5.9266439
  13.3870012  63.7914997  -0.7820012  13.5800012  62.8604997  -0.8940012
  14.2450012  64.2164997  -0.7920012  13.5293020  63.7216389  -0.7986639
  14.7040012  66.5804997  -2.7050012  14.4230012  67.2894997  -3.2820012
  15.6470012  66.5074997  -2.8560012  14.7929027  66.6677646  -2.8044449
   5.4560012  63.3654997  -1.6310012   4.6890012  62.8334997  -1.8410012
   6.1350012  63.0554997  -2.2310012   5.4427022  63.2507506  -1.7408352
   8.1960012  57.9934997  -5.6190012   8.0970012  58.9404997  -5.7240012
   7.4530012  57.6214997  -6.0940012   8.0820564  58.0725902  -5.6975440
   9.4600012  62.3154997  -2.0550012   9.2240012  62.0954997  -1.1530012
   8.6760012  62.1084997  -2.5650012   9.3218628  62.2574760  -2.0006068
  12.1750012  61.4424997  -2.9790012  11.2280012  61.4744997  -2.8470012
  12.4880012  60.8174997  -2.3260012  12.0875475  61.3623207  -2.8725545
  13.8090012  60.0764997  -0.9740012  13.7130012  59.1244997  -0.9800012
  13.4880012  60.3454997  -0.1140012  13.7524070  59.9824035  -0.8584559
   3.6360012  61.2864997  -1.9270012   3.8480012  60.5794997  -2.5370012
   3.5250012  60.8484997  -1.0830012   3.6499721  61.1307084  -1.8963157
   8.4170012  57.2874997  -2.9470012   9.1290012  56.6474997  -2.9610012
   8.3160012  57.5544997  -3.8610012   8.5007939  57.2359938  -3.0724350
   8.7710012  58.9704997  -0.8940012   8.6390012  58.4944997  -1.7140012
   8.1720012  59.7144997  -0.9490012   8.6719071  59.0059618  -1.0137114
   8.3170012  75.8534997 -17.7170012   9.2500012  76.0114997 -17.5740012
   8.0530012  76.5284997 -18.3420012   8.4089510  75.9663611 -17.7819259
   1.8860012  70.4894997 -18.2350012   2.8000012  70.5684997 -17.9610012
   1.8930012  69.8024997 -18.9010012   2.0121131  70.4073961 -18.2875607
   0.5350012  75.8824997 -13.1570012  -0.1119988  75.4204997 -13.6900012
   0.8890012  75.2104997 -12.5750012   0.4943849  75.7284723 -13.1512041
   1.4050012  73.9634997 -11.3530012   1.0700012  73.0834997 -11.1810012
   1.6270012  74.3084997 -10.4880012   1.3891783  73.8897500 -11.2125792
  18.9530012  74.7724997  -8.3720012  18.9320012  74.9574997  -7.4330012
  19.6440012  75.3414997  -8.7130012  19.0434618  74.8746606  -8.2896136
  18.5170012  74.3404997  -5.4500012  18.0290012  73.6044997  -5.8210012
  19.0660012  73.9464997  -4.7720012  18.5244872  74.1866249  -5.4090840
  16.9670012  70.1294997  -0.8120012  16.1010012  70.0244997  -0.4180012
  17.3440012  70.8884997  -0.3660012  16.8993308  70.2176900  -0.6977607
  18.2680012  68.3864997 -15.2980012  19.1180012  68.8074997 -15.1710012
  18.2740012  67.6464997 -14.6910012  18.3851372  68.3440803 -15.1985656
  18.6630012  66.4394997 -13.4740012  17.9360012  65.9604997 -13.0770012
  19.2440012  66.6454997 -12.7420012  18.6419375  66.4017090 -13.3205871
  18.4220012  69.2244997  -8.5270012  19.2550012  68.8464997  -8.8070012
  18.5340012  70.1674997  -8.6460012  18.5512647  69.3002218  -8.5814513
  16.9080012  72.1024997  -6.2200012  16.2610012  72.4274997  -5.5940012
  16.3910012  71.6624997  -6.8940012  16.7494029  72.0875004  -6.2254173
  18.9310012  66.3404997 -17.0830012  18.4090012  66.6974997 -17.8020012
  18.8980012  67.0154997 -16.4050012  18.8551634  66.4805413 -17.0896855
  17.2800012  63.5804997 -18.5320012  17.3760012  64.2474997 -19.2130012
  17.1400012  62.7644997 -19.0140012  17.2742135  63.5614500 -18.6901509
  16.4490012  64.9604997 -12.9110012  16.2990012  64.0154997 -12.9320012
  16.0960012  65.2414997 -12.0680012  16.3806625  64.8690441 -12.7997654
   1.4850012  67.0384997  -8.9010012   1.6690012  66.9564997  -9.8370012
   2.3340012  66.9144997  -8.4770012   1.6250139  67.0105003  -8.9718545
  17.3060012  66.9304997  -3.2730012  17.8890012  66.1964997  -3.0810012
  17.8700012  67.7024997  -3.2260012  17.4619769  66.9344227  -3.2403841
  18.8020012  64.8334997  -2.5880012  17.9390012  64.4544997  -2.7540012
  19.4070012  64.0944997  -2.6620012  18.7655979  64.6818023  -2.6207183
  16.5270012  60.9884997 -19.4150012  17.1380012  60.6174997 -18.7780012
  15.6910012  60.5674997 -19.2190012  16.4975032  60.8807554 -19.3012965
  16.1600012  62.5434997 -14.4490012  16.4400012  61.6364997 -14.3250012
  16.9190012  62.9774997 -14.8380012  16.3009277  62.4780942 -14.4846318
  16.7720012  63.1244997  -9.0130012  17.7050012  63.3364997  -9.0470012
  16.5370012  63.2264997  -8.0910012  16.8678036  63.1672769  -8.8930024
  16.8010012  63.8614997  -6.2370012  15.9580012  64.1294997  -5.8710012
  17.2430012  64.6834997  -6.4480012  16.7454158  64.0093291  -6.2154509
   1.0820012  62.3094997  -2.7600012   2.0020012  62.1874997  -2.5240012
   0.6330012  61.5594997  -2.3710012   1.1471580  62.1913727  -2.6750994
  19.0840012  57.8414997  -0.8840012  19.4340012  57.1874997  -1.4890012
  19.2310012  58.6784997  -1.3230012  19.1518419  57.8651591  -1.0262882
  16.7730012  59.8064997 -14.4010012  16.9560012  59.3574997 -13.5750012
  16.1740012  59.2214997 -14.8640012  16.7170202  59.6659975 -14.3506725
   2.3030012  60.6214997  -9.8690012   2.7490012  59.8294997  -9.5670012
   2.7700012  61.3374997  -9.4380012   2.4270172  60.6100624  -9.7695180
   0.6070012  63.6204997  -8.8000012   1.0990012  63.3994997  -9.5910012
   0.9700012  64.4614997  -8.5190012   0.7233126  63.7038357  -8.8702469
  18.6040012  59.9504997  -2.5340012  17.6860012  60.2214997  -2.5700012
  18.7270012  59.4154997  -3.3190012  18.4951066  59.9152892  -2.6449513
  18.6400012  59.8734997 -17.8730012  19.0520012  59.1524997 -18.3480012
  19.3220012  60.5434997 -17.8140012  18.7885885  59.8652368 -17.9301085
   0.9210012  59.8784997 -14.7460012  -0.0039988  60.0874997 -14.8750012
   1.3750012  60.3624997 -15.4350012   0.8557368  59.9725993 -14.8568774
  15.6920012  74.8624997 -12.8000012  16.3440012  74.5154997 -13.4080012
  16.2020012  75.3514997 -12.1540012  15.8502637  74.8810597 -12.7959764
   0.8850012  58.6164997  -6.4010012   0.2200012  58.3704997  -5.7580012
   0.4420012  59.2384997  -6.9790012   0.7340956  58.6668632  -6.3910648
   3.0770012  71.7914997  -2.2570012   2.2560012  71.9664997  -2.7170012
   2.8240012  71.7184997  -1.3360012   2.9306164  71.8055622  -2.1955077
   6.0310012  72.7664997  -5.9980012   5.6060012  73.5754997  -6.2810012
   6.9350012  72.8514997  -6.3000012   6.0950271  72.8888469  -6.0776224
  10.3420012  74.1654997  -3.0390012  10.5270012  73.8314997  -2.1610012
  11.1880012  74.4744997  -3.3610012  10.4817539  74.1616047  -2.9624395
  12.6870012  75.4514997  -3.7950012  13.3640012  74.8184997  -4.0350012
  13.0090012  75.8524997  -2.9880012  12.8231637  75.4191154  -3.7187207
  17.6040012  58.0404997  -4.7150012  16.7920012  58.3654997  -5.1030012
  17.8370012  57.2804997  -5.2480012  17.5243423  57.9822436  -4.8401747
   3.4330012  76.0224997  -5.9510012   2.7120012  76.4624997  -6.4020012
   3.0670012  75.7714997  -5.1020012   3.2849804  76.0487698  -5.8980160
   5.9000012  75.6224997  -6.9210012   5.0350012  75.6944997  -6.5170012
   5.8450012  76.1694997  -7.7050012   5.7742085  75.7062685  -6.9716638
  10.6100012  75.5104997  -7.7460012  10.1540012  76.0394997  -8.4000012
  10.7730012  76.1134997  -7.0200012  10.5695585  75.6644468  -7.7374938
  12.9380012  74.3884997  -6.8010012  12.0330012  74.5534997  -7.0660012
  13.3670012  75.2414997  -6.8660012  12.8720799  74.5264483  -6.8460818
  15.5420012  75.9584997  -6.5060012  15.3600012  76.8744997  -6.7160012
  15.7190012  75.5484997  -7.3520012  15.5410210  76.0284822  -6.6492115
   2.8470012  74.6454997  -9.0410012   2.8290012  74.2204997  -8.1830012
   3.6520012  74.3274997  -9.4490012   2.9533875  74.5443812  -8.9788345
   4.9890012  73.3554997 -10.3860012   4.7700012  72.4394997 -10.2160012
   5.8130012  73.4954997  -9.9200012   5.0704420  73.2490520 -10.2997226
   7.5260012  73.8254997  -9.5370012   7.7390012  72.9374997  -9.8240012
   7.5900012  73.7914997  -8.5830012   7.5638232  73.6993102  -9.4472603
  11.0340012  59.4894997 -10.3930012  10.3600012  58.8604997 -10.1370012
  11.5980012  59.0054997 -10.9960012  11.0179230  59.3378744 -10.4394660
  16.1770012  57.5974997 -10.2800012  16.7810012  58.1444997 -10.7820012
  15.3070012  57.9164997 -10.5200012  16.1421241  57.7155806 -10.3812346
  17.9040012  58.7354997 -11.9470012  18.5160012  58.2214997 -12.4730012
  18.2860012  59.6134997 -11.9230012  18.0394540  58.7837140 -12.0158170
   3.3610012  58.1234997 -12.5710012   2.5840012  57.8894997 -13.0780012
   3.8910012  57.3264997 -12.5620012   3.3262330  57.9836988 -12.6392258
   2.1970012  57.9214997 -16.7670012   2.6360012  58.5324997 -17.3590012
   1.5640012  58.4594997 -16.2930012   2.1714514  58.0779257 -16.7839070
   7.9400012  58.0504997 -12.7570012   8.8150012  58.4384997 -12.7870012
   7.8040012  57.8354997 -11.8350012   8.0413695  58.0745184 -12.6363560
  13.4970012  58.0804997 -11.1080012  13.5730012  58.1754997 -12.0580012
  13.2220012  57.1724997 -10.9790012  13.4702321  57.9707867 -11.2204921
  14.8500012  58.1064997 -15.4160012  14.1480012  58.7214997 -15.6250012
  14.4060012  57.2684997 -15.2850012  14.6936330  58.0775783 -15.4269672
   2.0980012  73.8694997 -15.8690012   1.4130012  73.8314997 -16.5370012
   2.1020012  74.7824997 -15.5810012   2.0048193  73.9877016 -15.9214716
   4.0580012  59.8374997 -18.3250012   4.5500012  59.2074997 -18.8520012
   4.6820012  60.1334997 -17.6610012   4.2095446  59.7913199 -18.3074020
   9.0840012  60.1304997 -15.8680012   9.2620012  59.4844997 -15.1850012
   9.0310012  60.9644997 -15.4000012   9.1011829  60.1547985 -15.7114060
  10.9630012  75.0794997 -17.4720012  11.8290012  75.4454997 -17.6500012
  10.7160012  74.6394997 -18.2860012  11.0482392  75.0701756 -17.6063711
  17.6720012  74.6424997 -14.7930012  17.4770012  73.8944997 -15.3580012
  17.6330012  75.4004997 -15.3760012  17.6400380  74.6426099 -14.9491616
   3.3190012  58.6374997  -3.0530012   2.9530012  57.8724997  -2.6100012
   4.2320012  58.6664997  -2.7660012   3.3922790  58.5367224  -2.9535930
   5.2920012  57.9884997  -1.5170012   6.1900012  57.7144997  -1.7020012
   4.9050012  57.2454997  -1.0530012   5.3626612  57.8505914  -1.4796357
   3.9160012  74.7894997 -18.8440012   3.6490012  75.0764997 -17.9710012
   4.6880012  74.2434997 -18.6920012   3.9837488  74.7550294 -18.7038950
  13.7130012  57.3204997  -1.3350012  13.7900012  56.8944997  -0.4810012
  14.6070012  57.3344997  -1.6780012  13.8443428  57.2640879  -1.2644690
  16.8890012  73.3934997  -2.6430012  16.1070012  73.2074997  -3.1620012
  16.8170012  74.3224997  -2.4250012  16.7721777  73.4936492  -2.6845952
  31.2950012  67.2794997 -12.6120012  31.3840012  68.2234997 -12.7440012
  30.6570012  67.0044997 -13.2700012  31.2209081  67.3714830 -12.7190386
  30.2280012  66.5344997  -9.1930012  30.1900012  65.8884997  -8.4880012
  29.9060012  66.0684997  -9.9640012  30.1792333  66.3829408  -9.2007022
  22.5970012  66.1494997  -7.6000012  22.6380012  65.5234997  -6.8770012
  23.3000012  66.7734997  -7.4180012  22.6976363  66.1481196  -7.4763956
  33.9340012  69.4734997 -10.8920012  33.4940012  68.7534997 -10.4410012
  33.9210012  70.1944997 -10.2620012  33.8720226  69.4723731 -10.7451506
  23.5200012  70.5994997  -9.0650012  23.1510012  69.7974997  -9.4350012
  24.4610012  70.4304997  -9.0190012  23.5967289  70.4670153  -9.1093684
  20.1300012  64.2594997 -13.6720012  19.6830012  65.1054997 -13.6910012
  19.5690012  63.6794997 -14.1880012  19.9929900  64.2969916 -13.7443199
  20.8410012  66.4214997 -11.5460012  21.0540012  65.6514997 -11.0190012
  21.5790012  66.5104997 -12.1500012  20.9698496  66.3281394 -11.5554700
  31.0460012  74.5784997 -10.6790012  31.6660012  73.9014997 -10.9530012
  30.8380012  74.3604997  -9.7710012  31.1026904  74.4563870 -10.5936635
  28.6180012  68.9674997  -8.7870012  28.9220012  68.2814997  -9.3820012
  29.3390012  69.0854997  -8.1690012  28.7570671  68.8896305  -8.7848184
  37.2810012  60.5684997  -7.9260012  37.3300012  61.1784997  -7.1900012
  37.7060012  61.0294997  -8.6490012  37.3451824  60.7143741  -7.9229795
  31.7590012  63.3614997  -8.4590012  31.9010012  62.4154997  -8.4390012
  31.6520012  63.5684997  -9.3880012  31.7639864  63.2599534  -8.5817661
  24.9130012  61.4624997 -11.1870012  24.9570012  62.3224997 -11.6050012
  24.4560012  60.9104997 -11.8210012  24.8572185  61.5055799 -11.3299701
  32.6360012  61.5934997 -12.7860012  33.2820012  61.2644997 -12.1610012
  33.1460012  62.1114997 -13.4090012  32.7934264  61.6184611 -12.7846138
  21.5340012  63.8594997 -10.4250012  22.1870012  63.3094997  -9.9930012
  21.5580012  63.5854997 -11.3420012  21.6266683  63.7471466 -10.4897877
  26.6900012  65.4094997 -11.2100012  27.3060012  64.8834997 -10.7000012
  26.1040012  64.7694997 -11.6130012  26.6950810  65.2509208 -11.1946827
  37.6720012  62.0464997  -5.6900012  36.9840012  62.7044997  -5.7860012
  37.6880012  61.8494997  -4.7540012  37.5798525  62.1100462  -5.5765192
  23.7240012  60.3804997  -7.1130012  23.5050012  60.9104997  -7.8790012
  23.0560012  60.6074997  -6.4660012  23.6037600  60.4836906  -7.1303621
  31.0930012  69.8804997 -13.5690012  30.7970012  69.5584997 -14.4200012
  30.7680012  70.7804997 -13.5280012  31.0086371  69.9580215 -13.6798199
  26.2930012  68.0564997  -6.8260012  25.5530012  68.6544997  -6.7220012
  27.0070012  68.6104997  -7.1410012  26.2882237  68.2132831  -6.8543535
  34.4000012  60.8844997 -10.8060012  34.1840012  60.1184997 -10.2730012
  35.0550012  61.3564997 -10.2930012  34.4590632  60.8435889 -10.6637139
  23.3170012  62.2724997  -9.1610012  23.9310012  62.9054997  -8.7870012
  23.8290012  61.8004997  -9.8170012  23.4702296  62.2952370  -9.1985748
  24.7000012  70.0204997  -6.0380012  24.6950012  70.9004997  -6.4160012
  23.8470012  69.9374997  -5.6130012  24.5839464  70.1296117  -6.0322093
  20.8210012  69.6914997 -15.2560012  20.5490012  69.9204997 -16.1450012
  20.8670012  70.5294997 -14.7960012  20.7900094  69.8361213 -15.3154303
  34.4460012  71.3134997  -8.5440012  33.5050012  71.3714997  -8.3820012
  34.7230012  72.2194997  -8.6810012  34.3544679  71.4439443  -8.5403185
  34.7470012  59.5994997  -7.1260012  34.0110012  60.2104997  -7.1640012
  35.4300012  60.0144997  -7.6530012  34.7386541  59.7391374  -7.2024168
  27.7500012  57.6864997  -9.6600012  27.6330012  56.7374997  -9.7150012
  26.8950012  58.0184997  -9.3870012  27.6183733  57.6015409  -9.6306103
  32.6980012  73.0944997 -11.9180012  33.1240012  72.3874997 -12.4030012
  33.0150012  73.8954997 -12.3350012  32.7991019  73.1060994 -12.0406870
  33.8580012  70.9954997 -13.4100012  33.6000012  70.3054997 -14.0210012
  33.9290012  70.5524997 -12.5640012  33.8322856  70.8412124 -13.3793115
  35.5440012  69.5614997  -4.9320012  35.6840012  68.9704997  -5.6720012
  35.7110012  70.4344997  -5.2890012  35.5856778  69.5986426  -5.0813035
  30.0170012  66.5234997 -15.1600012  29.3050012  67.0584997 -15.5120012
  30.7080012  66.5794997 -15.8200012  30.0130132  66.6042543 -15.2973711
  30.0700012  64.9814997 -18.1210012  30.7710012  65.0034997 -17.4700012
  30.3730012  64.3534997 -18.7770012  30.2067830  64.8996566 -18.1206289
  37.3860012  65.9014997  -6.8660012  36.7330012  66.5964997  -6.7770012
  37.8510012  66.1114997  -7.6760012  37.3595390  66.0249425  -6.9633117
  33.4220012  66.7334997 -14.2080012  32.6900012  66.9614997 -13.6350012
  33.8700012  66.0194997 -13.7530012  33.3823095  66.6682571 -14.0680881
  33.3200012  64.9074997  -5.1410012  33.4000012  65.6704997  -4.5690012
  32.7180012  65.1864997  -5.8310012  33.2495756  65.0497134  -5.1559411
  25.0680012  67.3634997 -12.3260012  24.7370012  66.9934997 -13.1440012
  25.6560012  66.6934997 -11.9790012  25.1021873  67.2221156 -12.3911898
  26.4340012  70.7914997  -9.6440012  26.3400012  70.2134997 -10.4010012
  27.1640012  70.4204997  -9.1480012  26.5197981  70.6622390  -9.6805835
  25.4340012  66.1324997  -8.6920012  26.0000012  66.2534997  -9.4550012
  25.7530012  66.7694997  -8.0530012  25.5545786  66.2351884  -8.7099960
  31.7430012  71.6354997  -7.9580012  31.5030012  72.2974997  -7.3100012
  31.5450012  70.8014997  -7.5330012  31.6833808  71.6133134  -7.8118476
  26.3140012  70.5314997  -3.9750012  26.0030012  71.3134997  -3.5200012
  25.6640012  70.3784997  -4.6610012  26.1835558  70.6179105  -4.0054129
  32.2930012  65.8954997 -16.5230012  32.8730012  66.0454997 -15.7760012
  32.7070012  66.3664997 -17.2460012  32.4282830  65.9796841 -16.5185866
  23.2340012  66.7294997  -4.7460012  23.3050012  67.3804997  -4.0480012
  22.3440012  66.8324997  -5.0810012  23.1233117  66.8325936  -4.6957300
  30.0200012  72.6324997 -13.0880012  30.4940012  72.9274997 -12.3100012
  29.4570012  73.3704997 -13.3210012  30.0087653  72.7726932 -13.0129864
  24.5540012  72.6034997  -3.2120012  24.5610012  72.4674997  -4.1590012
  23.6380012  72.4854997  -2.9600012  24.4311714  72.5689430  -3.3075334
  35.9920012  57.6454997 -16.7100012  35.0920012  57.7844997 -16.4150012
  36.2440012  58.4764997 -17.1120012  35.9028702  57.7769074 -16.7239795
  24.0580012  66.4334997 -14.7360012  23.7660012  67.2014997 -15.2270012
  23.3840012  65.7734997 -14.8990012  23.9269081  66.4494406 -14.8252660
  37.1810012  72.0114997 -18.3340012  37.2550012  72.9504997 -18.1630012
  38.0870012  71.7064997 -18.3900012  37.3135100  72.0986722 -18.3181881
  20.1510012  68.7964997  -5.9210012  19.6500012  68.7684997  -6.7360012
  20.1560012  67.8904997  -5.6120012  20.0831526  68.6702278  -5.9907128
  19.9010012  71.5764997  -9.0370012  20.8470012  71.4324997  -9.0560012
  19.7890012  72.3604997  -8.5000012  20.0152727  71.6628046  -8.9669928
  38.0990012  72.2424997  -3.3550012  38.0500012  71.2874997  -3.3920012
  37.2720012  72.5104997  -2.9540012  37.9804940  72.1478998  -3.3058625
  29.0780012  71.8164997  -4.4790012  29.1650012  72.6424997  -4.0040012
  28.2140012  71.4864997  -4.2300012  28.9731964  71.8849878  -4.3803451
  29.4920012  75.5884997 -14.6730012  29.4170012  75.4674997 -15.6190012
  29.5250012  76.5384997 -14.5540012  29.4861848  75.7002500 -14.7865166
  23.1450012  74.3774997 -12.8920012  23.2980012  74.0294997 -12.0130012
  22.2950012  74.0214997 -13.1470012  23.0508962  74.2816650 -12.8061660
  32.5940012  74.7424997 -17.6710012  32.9690012  73.9984997 -18.1410012
  32.5980012  74.4724997 -16.7520012  32.6458915  74.6041486 -17.6112176
  32.2630012  74.6684997 -14.9210012  31.3270012  74.7684997 -14.7430012
  32.5430012  73.9594997 -14.3430012  32.1728255  74.5862711 -14.8184609
  35.2510012  63.7354997  -2.8750012  34.8440012  64.2164997  -3.5960012
  35.2920012  62.8304997  -3.1830012  35.2008437  63.6789374  -3.0153317
  22.4000012  70.1194997  -4.8780012  22.6160012  69.7584997  -4.0190012
  21.5450012  69.7454997  -5.0880012  22.3139292  70.0194111  -4.7886614
  25.0190012  58.5894997  -8.8830012  24.1570012  58.5024997  -9.2900012
  24.9960012  59.4454997  -8.4550012  24.8980330  58.6932765  -8.8808137
  29.6820012  58.3114997  -5.5080012  30.1020012  57.8964997  -4.7550012
  28.7490012  58.1334997  -5.3910012  29.6133644  58.2305900  -5.3890461
  33.0080012  62.0674997  -4.6550012  32.4940012  61.9414997  -3.8570012
  32.8530012  62.9794997  -4.8990012  32.9166852  62.1736132  -4.5787842
  33.7710012  66.9284997 -18.8930012  33.8130012  66.7054997 -19.8230012
  34.6200012  67.3274997 -18.7030012  33.8915396  66.9519155 -18.9946373
  29.3430012  60.8044997 -18.2230012  29.0900012  60.8234997 -17.3000012
  29.0870012  59.9324997 -18.5240012  29.2737790  60.6892437 -18.1373737
  25.1100012  63.5554997  -7.7880012  24.4680012  63.5144997  -7.0790012
  25.1470012  64.4814997  -8.0250012  25.0271324  63.6751559  -7.7230176
  25.1070012  63.7764997 -12.8760012  24.2140012  63.4354997 -12.9340012
  25.5570012  63.3994997 -13.6310012  25.0457305  63.6788484 -12.9860823
  30.6420012  64.1924997 -14.0590012  30.2330012  65.0074997 -14.3500012
  31.3630012  64.0524997 -14.6730012  30.6834537  64.2852018 -14.1818658
  29.7440012  64.3674997  -2.5710012  29.1820012  63.6634997  -2.2500012
  30.5710012  64.2474997  -2.1030012  29.7787095  64.2547883  -2.4637670
  31.6470012  63.6384997 -11.2450012  31.4520012  64.2434997 -11.9600012
  31.8280012  62.8044997 -11.6790012  31.6447614  63.6086300 -11.4015595
  22.8600012  63.8754997  -5.9210012  22.8220012  64.2754997  -5.0520012
  22.3690012  63.0584997  -5.8300012  22.7884684  63.8198069  -5.7898941
  26.2260012  61.2494997 -19.1220012  25.7950012  60.8044997 -18.3920012
  25.5080012  61.6214997 -19.6340012  26.0699438  61.2388940 -19.0913201
  19.4680012  60.9914997 -12.0700012  20.0990012  60.9624997 -11.3510012
  19.9170012  60.5664997 -12.8000012  19.6150774  60.9300492 -12.0703447
  20.7420012  61.7374997 -16.6460012  21.2160012  62.3284997 -17.2310012
  20.0250012  62.2684997 -16.2990012  20.7099341  61.8900867 -16.6791164
  30.9110012  65.2764997  -6.5730012  31.2340012  64.6454997  -7.2160012
  30.4710012  64.7414997  -5.9130012  30.8956895  65.1178441  -6.5717150
  27.6880012  61.2034997 -11.7890012  26.7770012  61.2604997 -11.5010012
  28.1940012  61.1434997 -10.9790012  27.6315413  61.2031985 -11.6399378
  22.5170012  62.8324997 -12.9630012  21.6270012  62.9324997 -13.3030012
  22.8130012  61.9904997 -13.3090012  22.4352823  62.7323545 -13.0562787
  26.1700012  62.8324997 -15.3060012  27.1010012  62.9614997 -15.1280012
  25.9550012  63.5024997 -15.9560012  26.2684247  62.9406565 -15.3694253
  32.0930012  60.4384997  -8.5250012  31.4170012  60.5694997  -7.8610012
  31.6080012  60.2834997  -9.3350012  31.9347145  60.4354905  -8.5435483
  24.8440012  64.0274997 -17.7390012  24.3010012  63.6474997 -18.4310012
  25.6770012  64.2214997 -18.1680012  24.8824399  64.0018124 -17.8915474
  35.3810012  76.1104997  -2.2480012  35.5810012  76.5344997  -3.0830012
  36.0360012  76.4534997  -1.6410012  35.4970051  76.2149648  -2.2802164
  22.9790012  68.5844997  -2.6400012  23.7110012  68.8384997  -2.0790012
  22.1990012  68.7884997  -2.1250012  22.9738232  68.6469177  -2.4934240
  29.0080012  63.9914997  -9.9020012  29.5730012  63.4444997 -10.4490012
  28.8610012  63.4694997  -9.1140012  29.0652918  63.8462024  -9.8701546
  24.0100012  60.1274997 -13.4840012  23.6930012  59.2254997 -13.5190012
  24.7920012  60.1294997 -14.0370012  24.0722284  60.0041628 -13.5635217
  27.6350012  62.3794997  -7.4880012  26.7990012  62.8334997  -7.3780012
  28.1590012  62.6554997  -6.7360012  27.5914414  62.4789376  -7.3712864
  28.1790012  68.5924997 -15.8040012  27.4340012  68.0854997 -16.1260012
  28.0450012  68.6414997 -14.8570012  28.0588776  68.5296940 -15.7201353
  35.3290012  67.7254997  -7.0170012  35.9710012  68.1824997  -7.5610012
  34.4990012  67.8384997  -7.4800012  35.3045963  67.8032704  -7.1539823
  32.0770012  61.4064997 -17.6040012  31.1380012  61.5184997 -17.7560012
  32.3740012  62.2634997 -17.2980012  31.9887666  61.5376443 -17.5834232
  29.6980012  68.7764997  -4.5670012  29.3530012  68.3954997  -3.7600012
  29.4980012  69.7104997  -4.4950012  29.6238061  68.8505228  -4.4469039
  32.7950012  63.2734997 -15.9440012  33.6870012  63.1364997 -15.6250012
  32.8520012  64.0644997 -16.4800012  32.9246285  63.3616660 -15.9728310
  23.3040012  67.8874997 -10.0340012  24.0490012  67.8854997 -10.6350012
  23.3820012  67.0644997  -9.5520012  23.4165518  67.7759315 -10.0511071
  30.3050012  70.0514997 -16.7780012  30.0090012  70.8774997 -16.3970012
  29.6020012  69.4314997 -16.5820012  30.1694914  70.0808199 -16.6993557
  20.3120012  66.3484997  -4.7190012  20.5350012  65.9304997  -3.8870012
  19.7100012  65.7354997  -5.1420012  20.2611759  66.2084668  -4.6622978
  27.3280012  65.8654997  -2.5060012  27.0320012  65.6994997  -3.4010012
  28.2600012  65.6454997  -2.5170012  27.4134166  65.8130640  -2.6299464
  31.9490012  71.2384997  -4.6160012  31.0480012  71.4214997  -4.8840012
  31.9830012  71.4974997  -3.6950012  31.8303041  71.2985512  -4.5281803
  37.6800012  63.4834997 -16.2490012  37.1260012  63.0874997 -16.9210012
  37.7800012  64.3934997 -16.5270012  37.6177059  63.5523586 -16.3785599
  37.6430012  69.2834997  -3.4120012  36.7920012  69.5214997  -3.7790012
  38.2340012  69.2664997  -4.1650012  37.6062487  69.3138258  -3.5641107
  35.9750012  72.2694997 -15.7840012  35.6020012  71.4434997 -15.4750012
  36.2530012  72.0864997 -16.6810012  35.9615630  72.1317303 -15.8630374
  33.1360012  67.0774997  -8.7630012  32.2070012  66.8454997  -8.7900012
  33.5870012  66.3004997  -9.0930012  33.0699216  66.9407238  -8.8113083
  25.6790012  71.4054997 -12.6300012  26.2060012  72.1784997 -12.8300012
  24.7990012  71.6304997 -12.9310012  25.6321773  71.5418005 -12.6980990
  21.4340012  66.2674997 -18.0430012  22.0500012  66.8944997 -17.6630012
  20.5720012  66.5834997 -17.7710012  21.4017698  66.3959430 -17.9542817
  27.1060012  69.0684997 -13.0530012  26.8650012  69.9934997 -13.0120012
  26.3650012  68.6094997 -12.6570012  26.9728409  69.1331421 -12.9938623
  27.6210012  73.2174997  -6.7380012  27.9830012  74.0724997  -6.9720012
  28.1520012  72.9254997  -5.9980012  27.7424473  73.2951060  -6.6699145
  25.7890012  74.0904997 -13.5080012  24.8390012  74.1954997 -13.4570012
  26.1410012  74.9104997 -13.1630012  25.7064203  74.2158314 -13.4543350
  31.1650012  69.3164997  -7.0380012  30.7390012  69.0894997  -6.2110012
  31.7450012  68.5784997  -7.2200012  31.1851868  69.1855299  -6.9494170
  33.3680012  70.2454997 -17.9640012  33.7210012  69.8654997 -17.1590012
  32.4190012  70.1524997 -17.8770012  33.2880441  70.1809596 -17.8421441
  33.8230012  73.8684997  -4.5680012  33.2220012  73.3134997  -5.0640012
  34.1050012  74.5354997  -5.1940012  33.7788519  73.8826841  -4.7205048
  37.8710012  74.7254997 -17.7630012  38.6150012  75.3114997 -17.9030012
  37.1770012  75.2934997 -17.4290012  37.8790292  74.8825582 -17.7370039
  21.9460012  61.1014997  -5.1610012  21.0530012  61.4404997  -5.2290012
  21.8470012  60.2464997  -4.7430012  21.8104164  61.0322588  -5.1137765
  34.2340012  68.9184997 -15.7370012  33.9560012  68.1904997 -15.1810012
  35.1610012  69.0374997 -15.5320012  34.3213124  68.8348802 -15.6331155
  21.5970012  72.9064997  -6.7260012  21.8140012  71.9744997  -6.7570012
  21.8430012  73.1804997  -5.8430012  21.6599549  72.8160636  -6.6108237
  27.4590012  71.3574997 -19.5170012  27.6980012  70.6094997 -20.0640012
  27.1900012  70.9694997 -18.6840012  27.4553675  71.2026638 -19.4793135
  26.3960012  70.9274997 -17.0600012  26.5420012  70.4074997 -16.2700012
  26.3930012  71.8344997 -16.7540012  26.4155989  70.9788853 -16.9103912
  22.8490012  68.1804997 -16.5500012  22.1630012  68.5324997 -15.9830012
  23.3710012  68.9434997 -16.7970012  22.8256852  68.3318578 -16.5057882
  30.6800012  60.8424997  -6.2710012  31.3790012  60.9164997  -5.6210012
  30.2990012  59.9784997  -6.1170012  30.7241767  60.7357624  -6.1611678
  31.4650012  60.4944997 -15.1740012  31.6850012  60.9664997 -15.9770012
  32.0230012  60.8894997 -14.5040012  31.5704968  60.6124285 -15.1932669
  29.1330012  72.6254997 -16.3110012  28.3170012  73.1224997 -16.2590012
  29.6630012  73.1004997 -16.9510012  29.0929161  72.7577722 -16.3904044
  28.6650012  62.2224997 -14.3390012  29.4770012  62.7274997 -14.2930012
  28.4200012  62.0774997 -13.4250012  28.7430520  62.2720375 -14.2091483
  29.2000012  63.2084997  -5.1540012  29.3190012  63.7824997  -4.3970012
  29.8560012  62.5204997  -5.0400012  29.3049757  63.1941079  -5.0349175
  29.5480012  59.3034997 -13.4010012  29.2020012  59.9214997 -12.7560012
  30.2070012  59.8044997 -13.8820012  29.5897826  59.4555802 -13.3779029
  26.4720012  73.6694997 -16.3290012  26.6320012  74.4684997 -16.8300012
  26.2740012  73.9754997 -15.4440012  26.4671649  73.8204469 -16.2780185
  25.2060012  60.3664997 -16.7140012  25.1230012  61.2554997 -16.3670012
  26.0960012  60.1014997 -16.4820012  25.3149469  60.4521430 -16.6352374
  35.4050012  61.1154997  -4.3190012  34.4880012  61.3784997  -4.4070012
  35.7400012  61.1124997  -5.2160012  35.3249900  61.1510224  -4.4522081
  34.0070012  64.8664997 -10.2240012  33.2090012  64.4514997 -10.5520012
  34.4520012  64.1754997  -9.7330012  33.9579885  64.7163543 -10.2025111
  23.4650012  70.7944997 -17.6530012  24.0570012  71.4934997 -17.3770012
  23.9240012  70.3614997 -18.3730012  23.6081142  70.8317049 -17.7125170
  21.7810012  63.4584997 -18.5370012  21.7360012  64.3974997 -18.3590012
  20.8930012  63.2224997 -18.8070012  21.6548574  63.5551892 -18.5491088
  35.0930012  74.1224997  -8.6010012  34.9380012  74.8004997  -9.2580012
  36.0260012  74.1944997  -8.3980012  35.1978500  74.2250170  -8.6634881
  22.5890012  58.2404997  -9.8640012  22.3600012  58.2994997 -10.7920012
  22.1460012  57.4484997  -9.5580012  22.4978530  58.1415753  -9.9495214
  21.5190012  72.1804997 -13.7040012  20.6870012  72.6534997 -13.6760012
  22.0650012  72.6904997 -14.3020012  21.4789739  72.3141871 -13.7810284
  20.8070012  74.7934997  -2.3740012  21.3480012  74.5764997  -1.6140012
  20.3260012  73.9874997  -2.5630012  20.8159345  74.6549514  -2.2956924
  25.4050012  73.7124997  -0.7530012  26.1720012  73.2534997  -0.4120012
  25.3830012  73.4864997  -1.6830012  25.5071434  73.6190409  -0.8319957
  29.4970012  73.2204997 -19.3780012  28.8530012  72.5894997 -19.0570012
  30.2590012  72.6894997 -19.6100012  29.5118077  73.0622920 -19.3653989
  31.9820012  72.0924997  -2.0240012  31.6310012  71.2364997  -1.7810012
  32.7080012  72.2354997  -1.4170012  32.0320769  71.9945636  -1.9086381
  34.1010012  73.0374997 -19.1440012  34.3840012  72.2434997 -18.6920012
  34.8410012  73.2704997 -19.7050012  34.2397486  72.9602803 -19.1579302
  20.7140012  68.6034997  -1.4190012  20.8580012  67.7014997  -1.7060012
  19.9420012  68.8894997  -1.9070012  20.6293322  68.5188261  -1.5242119
  25.0560012  68.9474997 -19.2870012  25.1200012  68.1534997 -18.7560012
  25.7090012  68.8284997 -19.9770012  25.1530241  68.8227148 -19.3075683
  27.3700012  68.5734997  -1.9870012  27.0410012  68.8444997  -2.8440012
  27.5220012  67.6324997  -2.0740012  27.3454809  68.4833862  -2.1161756
  33.1040012  68.4894997  -4.6030012  33.8500012  69.0774997  -4.7230012
  32.3470012  69.0714997  -4.5400012  33.1037554  68.6487011  -4.6109093
  21.5470012  65.8034997  -1.9990012  21.9550012  64.9464997  -2.1200012
  21.2870012  65.8184997  -1.0780012  21.5677568  65.6880807  -1.8910412
  26.2050012  66.9194997 -16.9810012  25.7450012  66.4354997 -16.2950012
  26.4600012  66.2514997 -17.6170012  26.1764902  66.7628731 -16.9730666
  25.4940012  64.8124997  -4.6250012  24.8760012  65.4874997  -4.3450012
  25.8380012  65.1334997  -5.4580012  25.4559615  64.9482721  -4.6993419
  27.2760012  65.1624997 -18.7190012  27.0960012  65.0084997 -19.6460012
  28.2260012  65.2704997 -18.6740012  27.3797776  65.1560175 -18.8398157
  30.5140012  67.2844997  -1.3480012  31.4670012  67.3674997  -1.3750012
  30.3530012  66.5724997  -0.7280012  30.6226426  67.1996746  -1.2679421
  36.6660012  67.5174997 -19.2730012  36.3920012  67.0924997 -20.0860012
  36.7050012  68.4484997 -19.4900012  36.6337699  67.5852484 -19.4136390
  25.8330012  62.1674997  -3.5430012  25.9830012  61.4384997  -4.1450012
  25.8360012  62.9444997  -4.1020012  25.8539302  62.1727851  -3.7009308
  26.2460012  60.5374997  -6.0500012  26.7820012  60.9884997  -6.7020012
  25.3940012  60.4294997  -6.4730012  26.2042178  60.5846390  -6.1964244
  27.8280012  65.9764997  -5.8110012  28.5780012  65.8204997  -6.3840012
  27.4890012  66.8284997  -6.0860012  27.8848921  66.0702968  -5.9266439
  32.2430012  63.7914997  -0.7820012  32.4360012  62.8604997  -0.8940012
  33.1010012  64.2164997  -0.7920012  32.3853020  63.7216389  -0.7986639
  33.5600012  66.5804997  -2.7050012  33.2790012  67.2894997  -3.2820012
  34.5030012  66.5074997  -2.8560012  33.6489027  66.6677646  -2.8044449
  24.3120012  63.3654997  -1.6310012  23.5450012  62.8334997  -1.8410012
  24.9910012  63.0554997  -2.2310012  24.2987022  63.2507506  -1.7408352
  27.0520012  57.9934997  -5.6190012  26.9530012  58.9404997  -5.7240012
  26.3090012  57.6214997  -6.0940012  26.9380564  58.0725902  -5.6975440
  28.3160012  62.3154997  -2.0550012  28.0800012  62.0954997  -1.1530012
  27.5320012  62.1084997  -2.5650012  28.1778628  62.2574760  -2.0006068
  31.0310012  61.4424997  -2.9790012  30.0840012  61.4744997  -2.8470012
  31.3440012  60.8174997  -2.3260012  30.9435475  61.3623207  -2.8725545
  32.6650012  60.0764997  -0.9740012  32.5690012  59.1244997  -0.9800012
  32.3440012  60.3454997  -0.1140012  32.6084070  59.9824035  -0.8584559
  22.4920012  61.2864997  -1.9270012  22.7040012  60.5794997  -2.5370012
  22.3810012  60.8484997  -1.0830012  22.5059721  61.1307084  -1.8963157
  27.2730012  57.2874997  -2.9470012  27.9850012  56.6474997  -2.9610012
  27.1720012  57.5544997  -3.8610012  27.3567939  57.2359938  -3.0724350
  27.6270012  58.9704997  -0.8940012  27.4950012  58.4944997  -1.7140012
  27.0280012  59.7144997  -0.9490012  27.5279071  59.0059618  -1.0137114
  27.1730012  75.8534997 -17.7170012  28.1060012  76.0114997 -17.5740012
  26.9090012  76.5284997 -18.3420012  27.2649510  75.9663611 -17.7819259
  20.7420012  70.4894997 -18.2350012  21.6560012  70.5684997 -17.9610012
  20.7490012  69.8024997 -18.9010012  20.8681131  70.4073961 -18.2875607
  19.3910012  75.8824997 -13.1570012  18.7440012  75.4204997 -13.6900012
  19.7450012  75.2104997 -12.5750012  19.3503849  75.7284723 -13.1512041
  20.2610012  73.9634997 -11.3530012  19.9260012  73.0834997 -11.1810012
  20.4830012  74.3084997 -10.4880012  20.2451783  73.8897500 -11.2125792
  37.8090012  74.7724997  -8.3720012  37.7880012  74.9574997  -7.4330012
  38.5000012  75.3414997  -8.7130012  37.8994618  74.8746606  -8.2896136
  37.3730012  74.3404997  -5.4500012  36.8850012  73.6044997  -5.8210012
  37.9220012  73.9464997  -4.7720012  37.3804872  74.1866249  -5.4090840
  35.8230012  70.1294997  -0.8120012  34.9570012  70.0244997  -0.4180012
  36.2000012  70.8884997  -0.3660012  35.7553308  70.2176900  -0.6977607
  37.1240012  68.3864997 -15.2980012  37.9740012  68.8074997 -15.1710012
  37.1300012  67.6464997 -14.6910012  37.2411372  68.3440803 -15.1985656
  37.5190012  66.4394997 -13.4740012  36.7920012  65.9604997 -13.0770012
  38.1000012  66.6454997 -12.7420012  37.4979375  66.4017090 -13.3205871
  37.2780012  69.2244997  -8.5270012  38.1110012  68.8464997  -8.8070012
  37.3900012  70.1674997  -8.6460012  37.4072647  69.3002218  -8.5814513
  35.7640012  72.1024997  -6.2200012  35.1170012  72.4274997  -5.5940012
  35.2470012  71.6624997  -6.8940012  35.6054029  72.0875004  -6.2254173
  37.7870012  66.3404997 -17.0830012  37.2650012  66.6974997 -17.8020012
  37.7540012  67.0154997 -16.4050012  37.7111634  66.4805413 -17.0896855
  36.1360012  63.5804997 -18.5320012  36.2320012  64.2474997 -19.2130012
  35.9960012  62.7644997 -19.0140012  36.1302135  63.5614500 -18.6901509
  35.3050012  64.9604997 -12.9110012  35.1550012  64.0154997 -12.9320012
  34.9520012  65.2414997 -12.0680012  35.2366625  64.8690441 -12.7997654
  20.3410012  67.0384997  -8.9010012  20.5250012  66.9564997  -9.8370012
  21.1900012  66.9144997  -8.4770012  20.4810139  67.0105003  -8.9718545
  36.1620012  66.9304997  -3.2730012  36.7450012  66.1964997  -3.0810012
  36.7260012  67.7024997  -3.2260012  36.3179769  66.9344227  -3.2403841
  37.6580012  64.8334997  -2.5880012  36.7950012  64.4544997  -2.7540012
  38.2630012  64.0944997  -2.6620012  37.6215979  64.6818023  -2.6207183
  35.3830012  60.9884997 -19.4150012  35.9940012  60.6174997 -18.7780012
  34.5470012  60.5674997 -19.2190012  35.3535032  60.8807554 -19.3012965
  35.0160012  62.5434997 -14.4490012  35.2960012  61.6364997 -14.3250012
  35.7750012  62.9774997 -14.8380012  35.1569277  62.4780942 -14.4846318
  35.6280012  63.1244997  -9.0130012  36.5610012  63.3364997  -9.0470012
  35.3930012  63.2264997  -8.0910012  35.7238036  63.1672769  -8.8930024
  35.6570012  63.8614997  -6.2370012  34.8140012  64.1294997  -5.8710012
  36.0990012  64.6834997  -6.4480012  35.6014158  64.0093291  -6.2154509
  19.9380012  62.3094997  -2.7600012  20.8580012  62.1874997  -2.5240012
  19.4890012  61.5594997  -2.3710012  20.0031580  62.1913727  -2.6750994
  37.9400012  57.8414997  -0.8840012  38.2900012  57.1874997  -1.4890012
  38.0870012  58.6784997  -1.3230012  38.0078419  57.8651591  -1.0262882
  35.6290012  59.8064997 -14.4010012  35.8120012  59.3574997 -13.5750012
  35.0300012  59.2214997 -14.8640012  35.5730202  59.6659975 -14.3506725
  21.1590012  60.6214997  -9.8690012  21.6050012  59.8294997  -9.5670012
  21.6260012  61.3374997  -9.4380012  21.2830172  60.6100624  -9.7695180
  19.4630012  63.6204997  -8.8000012  19.9550012  63.3994997  -9.5910012
  19.8260012  64.4614997  -8.5190012  19.5793126  63.7038357  -8.8702469
  37.4600012  59.9504997  -2.5340012  36.5420012  60.2214997  -2.5700012
  37.5830012  59.4154997  -3.3190012  37.3511066  59.9152892  -2.6449513
  37.4960012  59.8734997 -17.8730012  37.9080012  59.1524997 -18.3480012
  38.1780012  60.5434997 -17.8140012  37.6445885  59.8652368 -17.9301085
  19.7770012  59.8784997 -14.7460012  18.8520012  60.0874997 -14.8750012
  20.2310012  60.3624997 -15.4350012  19.7117368  59.9725993 -14.8568774
  34.5480012  74.8624997 -12.8000012  35.2000012  74.5154997 -13.4080012
  35.0580012  75.3514997 -12.1540012  34.7062637  74.8810597 -12.7959764
  19.7410012  58.6164997  -6.4010012  19.0760012  58.3704997  -5.7580012
  19.2980012  59.2384997  -6.9790012  19.5900956  58.6668632  -6.3910648
  21.9330012  71.7914997  -2.2570012  21.1120012  71.9664997  -2.7170012
  21.6800012  71.7184997  -1.3360012  21.7866164  71.8055622  -2.1955077
  24.8870012  72.7664997  -5.9980012  24.4620012  73.5754997  -6.2810012
  25.7910012  72.8514997  -6.3000012  24.9510271  72.8888469  -6.0776224
  29.1980012  74.1654997  -3.0390012  29.3830012  73.8314997  -2.1610012
  30.0440012  74.4744997  -3.3610012  29.3377539  74.1616047  -2.9624395
  31.5430012  75.4514997  -3.7950012  32.2200012  74.8184997  -4.0350012
  31.8650012  75.8524997  -2.9880012  31.6791637  75.4191154  -3.7187207
  36.4600012  58.0404997  -4.7150012  35.6480012  58.3654997  -5.1030012
  36.6930012  57.2804997  -5.2480012  36.3803423  57.9822436  -4.8401747
  22.2890012  76.0224997  -5.9510012  21.5680012  76.4624997  -6.4020012
  21.9230012  75.7714997  -5.1020012  22.1409804  76.0487698  -5.8980160
  24.7560012  75.6224997  -6.9210012  23.8910012  75.6944997  -6.5170012
  24.7010012  76.1694997  -7.7050012  24.6302085  75.7062685  -6.9716638
  29.4660012  75.5104997  -7.7460012  29.0100012  76.0394997  -8.4000012
  29.6290012  76.1134997  -7.0200012  29.4255585  75.6644468  -7.7374938
  31.7940012  74.3884997  -6.8010012  30.8890012  74.5534997  -7.0660012
  32.2230012  75.2414997  -6.8660012  31.7280799  74.5264483  -6.8460818
  34.3980012  75.9584997  -6.5060012  34.2160012  76.8744997  -6.7160012
  34.5750012  75.5484997  -7.3520012  34.3970210  76.0284822  -6.6492115
  21.7030012  74.6454997  -9.0410012  21.6850012  74.2204997  -8.1830012
  22.5080012  74.3274997  -9.4490012  21.8093875  74.5443812  -8.9788345
  23.8450012  73.3554997 -10.3860012  23.6260012  72.4394997 -10.2160012
  24.6690012  73.4954997  -9.9200012  23.9264420  73.2490520 -10.2997226
  26.3820012  73.8254997  -9.5370012  26.5950012  72.9374997  -9.8240012
  26.4460012  73.7914997  -8.5830012  26.4198231  73.6993102  -9.4472603
  29.8900012  59.4894997 -10.3930012  29.2160012  58.8604997 -10.1370012
  30.4540012  59.0054997 -10.9960012  29.8739230  59.3378744 -10.4394660
  35.0330012  57.5974997 -10.2800012  35.6370012  58.1444997 -10.7820012
  34.1630012  57.9164997 -10.5200012  34.9981241  57.7155806 -10.3812346
  36.7600012  58.7354997 -11.9470012  37.3720012  58.2214997 -12.4730012
  37.1420012  59.6134997 -11.9230012  36.8954540  58.7837140 -12.0158170
  22.2170012  58.1234997 -12.5710012  21.4400012  57.8894997 -13.0780012
  22.7470012  57.3264997 -12.5620012  22.1822330  57.9836988 -12.6392258
  21.0530012  57.9214997 -16.7670012  21.4920012  58.5324997 -17.3590012
  20.4200012  58.4594997 -16.2930012  21.0274514  58.0779257 -16.7839070
  26.7960012  58.0504997 -12.7570012  27.6710012  58.4384997 -12.7870012
  26.6600012  57.8354997 -11.8350012  26.8973695  58.0745184 -12.6363560
  32.3530012  58.0804997 -11.1080012  32.4290012  58.1754997 -12.0580012
  32.0780012  57.1724997 -10.9790012  32.3262321  57.9707867 -11.2204921
  33.7060012  58.1064997 -15.4160012  33.0040012  58.7214997 -15.6250012
  33.2620012  57.2684997 -15.2850012  33.5496330  58.0775783 -15.4269672
  20.9540012  73.8694997 -15.8690012  20.2690012  73.8314997 -16.5370012
  20.9580012  74.7824997 -15.5810012  20.8608193  73.9877016 -15.9214716
  22.9140012  59.8374997 -18.3250012  23.4060012  59.2074997 -18.8520012
  23.5380012  60.1334997 -17.6610012  23.0655446  59.7913199 -18.3074020
  27.9400012  60.1304997 -15.8680012  28.1180012  59.4844997 -15.1850012
  27.8870012  60.9644997 -15.4000012  27.9571829  60.1547985 -15.7114060
  29.8190012  75.0794997 -17.4720012  30.6850012  75.4454997 -17.6500012
  29.5720012  74.6394997 -18.2860012  29.9042392  75.0701756 -17.6063711
  36.5280012  74.6424997 -14.7930012  36.3330012  73.8944997 -15.3580012
  36.4890012  75.4004997 -15.3760012  36.4960380  74.6426099 -14.9491616
  22.1750012  58.6374997  -3.0530012  21.8090012  57.8724997  -2.6100012
  23.0880012  58.6664997  -2.7660012  22.2482790  58.5367224  -2.9535930
  24.1480012  57.9884997  -1.5170012  25.0460012  57.7144997  -1.7020012
  23.7610012  57.2454997  -1.0530012  24.2186612  57.8505914  -1.4796357
  22.7720012  74.7894997 -18.8440012  22.5050012  75.0764997 -17.9710012
  23.5440012  74.2434997 -18.6920012  22.8397488  74.7550294 -18.7038950
  32.5690012  57.3204997  -1.3350012  32.6460012  56.8944997  -0.4810012
  33.4630012  57.3344997  -1.6780012  32.7003428  57.2640879  -1.2644690
  35.7450012  73.3934997  -2.6430012  34.9630012  73.2074997  -3.1620012
  35.6730012  74.3224997  -2.4250012  35.6281777  73.4936492  -2.6845952
  50.1510012  67.2794997 -12.6120012  50.2400012  68.2234997 -12.7440012
  49.5130012  67.0044997 -13.2700012  50.0769081  67.3714830 -12.7190386
  49.0840012  66.5344997  -9.1930012  49.0460012  65.8884997  -8.4880012
  48.7620012  66.0684997  -9.9640012  49.0352333  66.3829408  -9.2007022
  41.4530012  66.1494997  -7.6000012  41.4940012  65.5234997  -6.8770012
  42.1560012  66.7734997  -7.4180012  41.5536363  66.1481196  -7.4763956
  52.7900012  69.4734997 -10.8920012  52.3500012  68.7534997 -10.4410012
  52.7770012  70.1944997 -10.2620012  52.7280226  69.4723731 -10.7451506
  42.3760012  70.5994997  -9.0650012  42.0070012  69.7974997  -9.4350012
  43.3170012  70.4304997  -9.0190012  42.4527289  70.4670153  -9.1093684
  38.9860012  64.2594997 -13.6720012  38.5390012  65.1054997 -13.6910012
  38.4250012  63.6794997 -14.1880012  38.8489900  64.2969916 -13.7443199
  39.6970012  66.4214997 -11.5460012  39.9100012  65.6514997 -11.0190012
  40.4350012  66.5104997 -12.1500012  39.8258496  66.3281394 -11.5554700
  49.9020012  74.5784997 -10.6790012  50.5220012  73.9014997 -10.9530012
  49.6940012  74.3604997  -9.7710012  49.9586904  74.4563870 -10.5936635
  47.4740012  68.9674997  -8.7870012  47.7780012  68.2814997  -9.3820012
  48.1950012  69.0854997  -8.1690012  47.6130671  68.8896305  -8.7848184
  56.1370012  60.5684997  -7.9260012  56.1860012  61.1784997  -7.1900012
  56.5620012  61.0294997  -8.6490012  56.2011824  60.7143741  -7.9229795
  50.6150012  63.3614997  -8.4590012  50.7570012  62.4154997  -8.4390012
  50.5080012  63.5684997  -9.3880012  50.6199864  63.2599534  -8.5817661
  43.7690012  61.4624997 -11.1870012  43.8130012  62.3224997 -11.6050012
  43.3120012  60.9104997 -11.8210012  43.7132185  61.5055799 -11.3299701
  51.4920012  61.5934997 -12.7860012  52.1380012  61.2644997 -12.1610012
  52.0020012  62.1114997 -13.4090012  51.6494264  61.6184611 -12.7846138
  40.3900012  63.8594997 -10.4250012  41.0430012  63.3094997  -9.9930012
  40.4140012  63.5854997 -11.3420012  40.4826683  63.7471466 -10.4897877
  45.5460012  65.4094997 -11.2100012  46.1620012  64.8834997 -10.7000012
  44.9600012  64.7694997 -11.6130012  45.5510810  65.2509208 -11.1946827
  56.5280012  62.0464997  -5.6900012  55.8400012  62.7044997  -5.7860012
  56.5440012  61.8494997  -4.7540012  56.4358525  62.1100462  -5.5765192
  42.5800012  60.3804997  -7.1130012  42.3610012  60.9104997  -7.8790012
  41.9120012  60.6074997  -6.4660012  42.4597600  60.4836906  -7.1303621
  49.9490012  69.8804997 -13.5690012  49.6530012  69.5584997 -14.4200012
  49.6240012  70.7804997 -13.5280012  49.8646371  69.9580215 -13.6798199
  45.1490012  68.0564997  -6.8260012  44.4090012  68.6544997  -6.7220012
  45.8630012  68.6104997  -7.1410012  45.1442237  68.2132831  -6.8543535
  53.2560012  60.8844997 -10.8060012  53.0400012  60.1184997 -10.2730012
  53.9110012  61.3564997 -10.2930012  53.3150632  60.8435889 -10.6637139
  42.1730012  62.2724997  -9.1610012  42.7870012  62.9054997  -8.7870012
  42.6850012  61.8004997  -9.8170012  42.3262296  62.2952370  -9.1985748
  43.5560012  70.0204997  -6.0380012  43.5510012  70.9004997  -6.4160012
  42.7030012  69.9374997  -5.6130012  43.4399464  70.1296117  -6.0322093
  39.6770012  69.6914997 -15.2560012  39.4050012  69.9204997 -16.1450012
  39.7230012  70.5294997 -14.7960012  39.6460094  69.8361213 -15.3154303
  53.3020012  71.3134997  -8.5440012  52.3610012  71.3714997  -8.3820012
  53.5790012  72.2194997  -8.6810012  53.2104679  71.4439443  -8.5403185
  53.6030012  59.5994997  -7.1260012  52.8670012  60.2104997  -7.1640012
  54.2860012  60.0144997  -7.6530012  53.5946541  59.7391374  -7.2024168
  46.6060012  57.6864997  -9.6600012  46.4890012  56.7374997  -9.7150012
  45.7510012  58.0184997  -9.3870012  46.4743733  57.6015409  -9.6306103
  51.5540012  73.0944997 -11.9180012  51.9800012  72.3874997 -12.4030012
  51.8710012  73.8954997 -12.3350012  51.6551019  73.1060994 -12.0406870
  52.7140012  70.9954997 -13.4100012  52.4560012  70.3054997 -14.0210012
  52.7850012  70.5524997 -12.5640012  52.6882856  70.8412124 -13.3793115
  54.4000012  69.5614997  -4.9320012  54.5400012  68.9704997  -5.6720012
  54.5670012  70.4344997  -5.2890012  54.4416778  69.5986426  -5.0813035
  48.8730012  66.5234997 -15.1600012  48.1610012  67.0584997 -15.5120012
  49.5640012  66.5794997 -15.8200012  48.8690132  66.6042543 -15.2973711
  48.9260012  64.9814997 -18.1210012  49.6270012  65.0034997 -17.4700012
  49.2290012  64.3534997 -18.7770012  49.0627830  64.8996566 -18.1206289
  56.2420012  65.9014997  -6.8660012  55.5890012  66.5964997  -6.7770012
  56.7070012  66.1114997  -7.6760012  56.2155390  66.0249425  -6.9633117
  52.2780012  66.7334997 -14.2080012  51.5460012  66.9614997 -13.6350012
  52.7260012  66.0194997 -13.7530012  52.2383095  66.6682571 -14.0680881
  52.1760012  64.9074997  -5.1410012  52.2560012  65.6704997  -4.5690012
  51.5740012  65.1864997  -5.8310012  52.1055756  65.0497134  -5.1559411
  43.9240012  67.3634997 -12.3260012  43.5930012  66.9934997 -13.1440012
  44.5120012  66.6934997 -11.9790012  43.9581873  67.2221156 -12.3911898
  45.2900012  70.7914997  -9.6440012  45.1960012  70.2134997 -10.4010012
  46.0200012  70.4204997  -9.1480012  45.3757981  70.6622390  -9.6805835
  44.2900012  66.1324997  -8.6920012  44.8560012  66.2534997  -9.4550012
  44.6090012  66.7694997  -8.0530012  44.4105786  66.2351884  -8.7099960
  50.5990012  71.6354997  -7.9580012  50.3590012  72.2974997  -7.3100012
  50.4010012  70.8014997  -7.5330012  50.5393808  71.6133134  -7.8118476
  45.1700012  70.5314997  -3.9750012  44.8590012  71.3134997  -3.5200012
  44.5200012  70.3784997  -4.6610012  45.0395558  70.6179105  -4.0054129
  51.1490012  65.8954997 -16.5230012  51.7290012  66.0454997 -15.7760012
  51.5630012  66.3664997 -17.2460012  51.2842830  65.9796841 -16.5185866
  42.0900012  66.7294997  -4.7460012  42.1610012  67.3804997  -4.0480012
  41.2000012  66.8324997  -5.0810012  41.9793117  66.8325936  -4.6957300
  48.8760012  72.6324997 -13.0880012  49.3500012  72.9274997 -12.3100012
  48.3130012  73.3704997 -13.3210012  48.8647653  72.7726932 -13.0129864
  43.4100012  72.6034997  -3.2120012  43.4170012  72.4674997  -4.1590012
  42.4940012  72.4854997  -2.9600012  43.2871714  72.5689430  -3.3075334
  54.8480012  57.6454997 -16.7100012  53.9480012  57.7844997 -16.4150012
  55.1000012  58.4764997 -17.1120012  54.7588702  57.7769074 -16.7239795
  42.9140012  66.4334997 -14.7360012  42.6220012  67.2014997 -15.2270012
  42.2400012  65.7734997 -14.8990012  42.7829081  66.4494406 -14.8252660
  56.0370012  72.0114997 -18.3340012  56.1110012  72.9504997 -18.1630012
  56.9430012  71.7064997 -18.3900012  56.1695100  72.0986722 -18.3181881
  39.0070012  68.7964997  -5.9210012  38.5060012  68.7684997  -6.7360012
  39.0120012  67.8904997  -5.6120012  38.9391526  68.6702278  -5.9907128
  38.7570012  71.5764997  -9.0370012  39.7030012  71.4324997  -9.0560012
  38.6450012  72.3604997  -8.5000012  38.8712727  71.6628046  -8.9669928
  56.9550012  72.2424997  -3.3550012  56.9060012  71.2874997  -3.3920012
  56.1280012  72.5104997  -2.9540012  56.8364940  72.1478998  -3.3058625
  47.9340012  71.8164997  -4.4790012  48.0210012  72.6424997  -4.0040012
  47.0700012  71.4864997  -4.2300012  47.8291964  71.8849878  -4.3803451
  48.3480012  75.5884997 -14.6730012  48.2730012  75.4674997 -15.6190012
  48.3810012  76.5384997 -14.5540012  48.3421848  75.7002500 -14.7865166
  42.0010012  74.3774997 -12.8920012  42.1540012  74.0294997 -12.0130012
  41.1510012  74.0214997 -13.1470012  41.9068962  74.2816650 -12.8061660
  51.4500012  74.7424997 -17.6710012  51.8250012  73.9984997 -18.1410012
  51.4540012  74.4724997 -16.7520012  51.5018915  74.6041486 -17.6112176
  51.1190012  74.6684997 -14.9210012  50.1830012  74.7684997 -14.7430012
  51.3990012  73.9594997 -14.3430012  51.0288255  74.5862711 -14.8184609
  54.1070012  63.7354997  -2.8750012  53.7000012  64.2164997  -3.5960012
  54.1480012  62.8304997  -3.1830012  54.0568437  63.6789374  -3.0153317
  41.2560012  70.1194997  -4.8780012  41.4720012  69.7584997  -4.0190012
  40.4010012  69.7454997  -5.0880012  41.1699292  70.0194111  -4.7886614
  43.8750012  58.5894997  -8.8830012  43.0130012  58.5024997  -9.2900012
  43.8520012  59.4454997  -8.4550012  43.7540330  58.6932765  -8.8808137
  48.5380012  58.3114997  -5.5080012  48.9580012  57.8964997  -4.7550012
  47.6050012  58.1334997  -5.3910012  48.4693644  58.2305900  -5.3890461
  51.8640012  62.0674997  -4.6550012  51.3500012  61.9414997  -3.8570012
  51.7090012  62.9794997  -4.8990012  51.7726852  62.1736132  -4.5787842
  52.6270012  66.9284997 -18.8930012  52.6690012  66.7054997 -19.8230012
  53.4760012  67.3274997 -18.7030012  52.7475396  66.9519155 -18.9946373
  48.1990012  60.8044997 -18.2230012  47.9460012  60.8234997 -17.3000012
  47.9430012  59.9324997 -18.5240012  48.1297790  60.6892437 -18.1373737
  43.9660012  63.5554997  -7.7880012  43.3240012  63.5144997  -7.0790012
  44.0030012  64.4814997  -8.0250012  43.8831324  63.6751559  -7.7230176
  43.9630012  63.7764997 -12.8760012  43.0700012  63.4354997 -12.9340012
  44.4130012  63.3994997 -13.6310012  43.9017305  63.6788484 -12.9860823
  49.4980012  64.1924997 -14.0590012  49.0890012  65.0074997 -14.3500012
  50.2190012  64.0524997 -14.6730012  49.5394537  64.2852018 -14.1818658
  48.6000012  64.3674997  -2.5710012  48.0380012  63.6634997  -2.2500012
  49.4270012  64.2474997  -2.1030012  48.6347095  64.2547883  -2.4637670
  50.5030012  63.6384997 -11.2450012  50.3080012  64.2434997 -11.9600012
  50.6840012  62.8044997 -11.6790012  50.5007614  63.6086300 -11.4015595
  41.7160012  63.8754997  -5.9210012  41.6780012  64.2754997  -5.0520012
  41.2250012  63.0584997  -5.8300012  41.6444684  63.8198069  -5.7898941
  45.0820012  61.2494997 -19.1220012  44.6510012  60.8044997 -18.3920012
  44.3640012  61.6214997 -19.6340012  44.9259438  61.2388940 -19.0913201
  38.3240012  60.9914997 -12.0700012  38.9550012  60.9624997 -11.3510012
  38.7730012  60.5664997 -12.8000012  38.4710774  60.9300492 -12.0703447
  39.5980012  61.7374997 -16.6460012  40.0720012  62.3284997 -17.2310012
  38.8810012  62.2684997 -16.2990012  39.5659341  61.8900867 -16.6791164
  49.7670012  65.2764997  -6.5730012  50.0900012  64.6454997  -7.2160012
  49.3270012  64.7414997  -5.9130012  49.7516895  65.1178441  -6.5717150
  46.5440012  61.2034997 -11.7890012  45.6330012  61.2604997 -11.5010012
  47.0500012  61.1434997 -10.9790012  46.4875413  61.2031985 -11.6399378
  41.3730012  62.8324997 -12.9630012  40.4830012  62.9324997 -13.3030012
  41.6690012  61.9904997 -13.3090012  41.2912823  62.7323545 -13.0562787
  45.0260012  62.8324997 -15.3060012  45.9570012  62.9614997 -15.1280012
  44.8110012  63.5024997 -15.9560012  45.1244247  62.9406565 -15.3694253
  50.9490012  60.4384997  -8.5250012  50.2730012  60.5694997  -7.8610012
  50.4640012  60.2834997  -9.3350012  50.7907145  60.4354905  -8.5435483
  43.7000012  64.0274997 -17.7390012  43.1570012  63.6474997 -18.4310012
  44.5330012  64.2214997 -18.1680012  43.7384399  64.0018124 -17.8915474
  54.2370012  76.1104997  -2.2480012  54.4370012  76.5344997  -3.0830012
  54.8920012  76.4534997  -1.6410012  54.3530051  76.2149648  -2.2802164
  41.8350012  68.5844997  -2.6400012  42.5670012  68.8384997  -2.0790012
  41.0550012  68.7884997  -2.1250012  41.8298232  68.6469177  -2.4934240
  47.8640012  63.9914997  -9.9020012  48.4290012  63.4444997 -10.4490012
  47.7170012  63.4694997  -9.1140012  47.9212918  63.8462024  -9.8701546
  42.8660012  60.1274997 -13.4840012  42.5490012  59.2254997 -13.5190012
  43.6480012  60.1294997 -14.0370012  42.9282284  60.0041628 -13.5635217
  46.4910012  62.3794997  -7.4880012  45.6550012  62.8334997  -7.3780012
  47.0150012  62.6554997  -6.7360012  46.4474414  62.4789376  -7.3712864
  47.0350012  68.5924997 -15.8040012  46.2900012  68.0854997 -16.1260012
  46.9010012  68.6414997 -14.8570012  46.9148776  68.5296940 -15.7201353
  54.1850012  67.7254997  -7.0170012  54.8270012  68.1824997  -7.5610012
  53.3550012  67.8384997  -7.4800012  54.1605963  67.8032704  -7.1539823
  50.9330012  61.4064997 -17.6040012  49.9940012  61.5184997 -17.7560012
  51.2300012  62.2634997 -17.2980012  50.8447666  61.5376443 -17.5834232
  48.5540012  68.7764997  -4.5670012  48.2090012  68.3954997  -3.7600012
  48.3540012  69.7104997  -4.4950012  48.4798061  68.8505228  -4.4469039
  51.6510012  63.2734997 -15.9440012  52.5430012  63.1364997 -15.6250012
  51.7080012  64.0644997 -16.4800012  51.7806285  63.3616660 -15.9728309
  42.1600012  67.8874997 -10.0340012  42.9050012  67.8854997 -10.6350012
  42.2380012  67.0644997  -9.5520012  42.2725518  67.7759315 -10.0511071
  49.1610012  70.0514997 -16.7780012  48.8650012  70.8774997 -16.3970012
  48.4580012  69.4314997 -16.5820012  49.0254914  70.0808199 -16.6993557
  39.1680012  66.3484997  -4.7190012  39.3910012  65.9304997  -3.8870012
  38.5660012  65.7354997  -5.1420012  39.1171759  66.2084668  -4.6622978
  46.1840012  65.8654997  -2.5060012  45.8880012  65.6994997  -3.4010012
  47.1160012  65.6454997  -2.5170012  46.2694166  65.8130640  -2.6299464
  50.8050012  71.2384997  -4.6160012  49.9040012  71.4214997  -4.8840012
  50.8390012  71.4974997  -3.6950012  50.6863041  71.2985512  -4.5281803
  56.5360012  63.4834997 -16.2490012  55.9820012  63.0874997 -16.9210012
  56.6360012  64.3934997 -16.5270012  56.4737059  63.5523586 -16.3785599
  56.4990012  69.2834997  -3.4120012  55.6480012  69.5214997  -3.7790012
  57.0900012  69.2664997  -4.1650012  56.4622487  69.3138258  -3.5641107
  54.8310012  72.2694997 -15.7840012  54.4580012  71.4434997 -15.4750012
  55.1090012  72.0864997 -16.6810012  54.8175630  72.1317303 -15.8630374
  51.9920012  67.0774997  -8.7630012  51.0630012  66.8454997  -8.7900012
  52.4430012  66.3004997  -9.0930012  51.9259216  66.9407238  -8.8113083
  44.5350012  71.4054997 -12.6300012  45.0620012  72.1784997 -12.8300012
  43.6550012  71.6304997 -12.9310012  44.4881773  71.5418005 -12.6980990
  40.2900012  66.2674997 -18.0430012  40.9060012  66.8944997 -17.6630012
  39.4280012  66.5834997 -17.7710012  40.2577698  66.3959430 -17.9542817
  45.9620012  69.0684997 -13.0530012  45.7210012  69.9934997 -13.0120012
  45.2210012  68.6094997 -12.6570012  45.8288409  69.1331421 -12.9938623
  46.4770012  73.2174997  -6.7380012  46.8390012  74.0724997  -6.9720012
  47.0080012  72.9254997  -5.9980012  46.5984473  73.2951060  -6.6699145
  44.6450012  74.0904997 -13.5080012  43.6950012  74.1954997 -13.4570012
  44.9970012  74.9104997 -13.1630012  44.5624203  74.2158314 -13.4543350
  50.0210012  69.3164997  -7.0380012  49.5950012  69.0894997  -6.2110012
  50.6010012  68.5784997  -7.2200012  50.0411868  69.1855299  -6.9494170
  52.2240012  70.2454997 -17.9640012  52.5770012  69.8654997 -17.1590012
  51.2750012  70.1524997 -17.8770012  52.1440441  70.1809596 -17.8421441
  52.6790012  73.8684997  -4.5680012  52.0780012  73.3134997  -5.0640012
  52.9610012  74.5354997  -5.1940012  52.6348519  73.8826841  -4.7205048
  56.7270012  74.7254997 -17.7630012  57.4710012  75.3114997 -17.9030012
  56.0330012  75.2934997 -17.4290012  56.7350292  74.8825582 -17.7370039
  40.8020012  61.1014997  -5.1610012  39.9090012  61.4404997  -5.2290012
  40.7030012  60.2464997  -4.7430012  40.6664164  61.0322588  -5.1137765
  53.0900012  68.9184997 -15.7370012  52.8120012  68.1904997 -15.1810012
  54.0170012  69.0374997 -15.5320012  53.1773124  68.8348802 -15.6331155
  40.4530012  72.9064997  -6.7260012  40.6700012  71.9744997  -6.7570012
  40.6990012  73.1804997  -5.8430012  40.5159549  72.8160636  -6.6108237
  46.3150012  71.3574997 -19.5170012  46.5540012  70.6094997 -20.0640012
  46.0460012  70.9694997 -18.6840012  46.3113675  71.2026638 -19.4793135
  45.2520012  70.9274997 -17.0600012  45.3980012  70.4074997 -16.2700012
  45.2490012  71.8344997 -16.7540012  45.2715989  70.9788853 -16.9103912
  41.7050012  68.1804997 -16.5500012  41.0190012  68.5324997 -15.9830012
  42.2270012  68.9434997 -16.7970012  41.6816852  68.3318578 -16.5057882
  49.5360012  60.8424997  -6.2710012  50.2350012  60.9164997  -5.6210012
  49.1550012  59.9784997  -6.1170012  49.5801767  60.7357624  -6.1611678
  50.3210012  60.4944997 -15.1740012  50.5410012  60.9664997 -15.9770012
  50.8790012  60.8894997 -14.5040012  50.4264968  60.6124285 -15.1932669
  47.9890012  72.6254997 -16.3110012  47.1730012  73.1224997 -16.2590012
  48.5190012  73.1004997 -16.9510012  47.9489161  72.7577722 -16.3904044
  47.5210012  62.2224997 -14.3390012  48.3330012  62.7274997 -14.2930012
  47.2760012  62.0774997 -13.4250012  47.5990520  62.2720375 -14.2091483
  48.0560012  63.2084997  -5.1540012  48.1750012  63.7824997  -4.3970012
  48.7120012  62.5204997  -5.0400012  48.1609757  63.1941079  -5.0349175
  48.4040012  59.3034997 -13.4010012  48.0580012  59.9214997 -12.7560012
  49.0630012  59.8044997 -13.8820012  48.4457826  59.4555802 -13.3779029
  45.3280012  73.6694997 -16.3290012  45.4880012  74.4684997 -16.8300012
  45.1300012  73.9754997 -15.4440012  45.3231649  73.8204469 -16.2780185
  44.0620012  60.3664997 -16.7140012  43.9790012  61.2554997 -16.3670012
  44.9520012  60.1014997 -16.4820012  44.1709469  60.4521430 -16.6352374
  54.2610012  61.1154997  -4.3190012  53.3440012  61.3784997  -4.4070012
  54.5960012  61.1124997  -5.2160012  54.1809900  61.1510224  -4.4522081
  52.8630012  64.8664997 -10.2240012  52.0650012  64.4514997 -10.5520012
  53.3080012  64.1754997  -9.7330012  52.8139885  64.7163543 -10.2025111
  42.3210012  70.7944997 -17.6530012  42.9130012  71.4934997 -17.3770012
  42.7800012  70.3614997 -18.3730012  42.4641142  70.8317049 -17.7125170
  40.6370012  63.4584997 -18.5370012  40.5920012  64.3974997 -18.3590012
  39.7490012  63.2224997 -18.8070012  40.5108574  63.5551892 -18.5491088
  53.9490012  74.1224997  -8.6010012  53.7940012  74.8004997  -9.2580012
  54.8820012  74.1944997  -8.3980012  54.0538500  74.2250170  -8.6634881
  41.4450012  58.2404997  -9.8640012  41.2160012  58.2994997 -10.7920012
  41.0020012  57.4484997  -9.5580012  41.3538530  58.1415753  -9.9495214
  40.3750012  72.1804997 -13.7040012  39.5430012  72.6534997 -13.6760012
  40.9210012  72.6904997 -14.3020012  40.3349739  72.3141871 -13.7810284
  39.6630012  74.7934997  -2.3740012  40.2040012  74.5764997  -1.6140012
  39.1820012  73.9874997  -2.5630012  39.6719345  74.6549514  -2.2956924
  44.2610012  73.7124997  -0.7530012  45.0280012  73.2534997  -0.4120012
  44.2390012  73.4864997  -1.6830012  44.3631434  73.6190409  -0.8319957
  48.3530012  73.2204997 -19.3780012  47.7090012  72.5894997 -19.0570012
  49.1150012  72.6894997 -19.6100012  48.3678077  73.0622920 -19.3653989
  50.8380012  72.0924997  -2.0240012  50.4870012  71.2364997  -1.7810012
  51.5640012  72.2354997  -1.4170012  50.8880769  71.9945636  -1.9086381
  52.9570012  73.0374997 -19.1440012  53.2400012  72.2434997 -18.6920012
  53.6970012  73.2704997 -19.7050012  53.0957486  72.9602803 -19.1579302
  39.5700012  68.6034997  -1.4190012  39.7140012  67.7014997  -1.7060012
  38.7980012  68.8894997  -1.9070012  39.4853322  68.5188261  -1.5242119
  43.9120012  68.9474997 -19.2870012  43.9760012  68.1534997 -18.7560012
  44.5650012  68.8284997 -19.9770012  44.0090241  68.8227148 -19.3075683
  46.2260012  68.5734997  -1.9870012  45.8970012  68.8444997  -2.8440012
  46.3780012  67.6324997  -2.0740012  46.2014809  68.4833862  -2.1161756
  51.9600012  68.4894997  -4.6030012  52.7060012  69.0774997  -4.7230012
  51.2030012  69.0714997  -4.5400012  51.9597554  68.6487011  -4.6109093
  40.4030012  65.8034997  -1.9990012  40.8110012  64.9464997  -2.1200012
  40.1430012  65.8184997  -1.0780012  40.4237568  65.6880807  -1.8910412
  45.0610012  66.9194997 -16.9810012  44.6010012  66.4354997 -16.2950012
  45.3160012  66.2514997 -17.6170012  45.0324902  66.7628731 -16.9730666
  44.3500012  64.8124997  -4.6250012  43.7320012  65.4874997  -4.3450012
  44.6940012  65.1334997  -5.4580012  44.3119615  64.9482721  -4.6993419
  46.1320012  65.1624997 -18.7190012  45.9520012  65.0084997 -19.6460012
  47.0820012  65.2704997 -18.6740012  46.2357776  65.1560175 -18.8398157
  49.3700012  67.2844997  -1.3480012  50.3230012  67.3674997  -1.3750012
  49.2090012  66.5724997  -0.7280012  49.4786426  67.1996746  -1.2679421
  55.5220012  67.5174997 -19.2730012  55.2480012  67.0924997 -20.0860012
  55.5610012  68.4484997 -19.4900012  55.4897699  67.5852484 -19.4136390
  44.6890012  62.1674997  -3.5430012  44.8390012  61.4384997  -4.1450012
  44.6920012  62.9444997  -4.1020012  44.7099302  62.1727851  -3.7009308
  45.1020012  60.5374997  -6.0500012  45.6380012  60.9884997  -6.7020012
  44.2500012  60.4294997  -6.4730012  45.0602178  60.5846390  -6.1964244
  46.6840012  65.9764997  -5.8110012  47.4340012  65.8204997  -6.3840012
  46.3450012  66.8284997  -6.0860012  46.7408921  66.0702968  -5.9266439
  51.0990012  63.7914997  -0.7820012  51.2920012  62.8604997  -0.8940012
  51.9570012  64.2164997  -0.7920012  51.2413020  63.7216389  -0.7986639
  52.4160012  66.5804997  -2.7050012  52.1350012  67.2894997  -3.2820012
  53.3590012  66.5074997  -2.8560012  52.5049027  66.6677646  -2.8044449
  43.1680012  63.3654997  -1.6310012  42.4010012  62.8334997  -1.8410012
  43.8470012  63.0554997  -2.2310012  43.1547022  63.2507506  -1.7408352
  45.9080012  57.9934997  -5.6190012  45.8090012  58.9404997  -5.7240012
  45.1650012  57.6214997  -6.0940012  45.7940564  58.0725902  -5.6975440
  47.1720012  62.3154997  -2.0550012  46.9360012  62.0954997  -1.1530012
  46.3880012  62.1084997  -2.5650012  47.0338628  62.2574760  -2.0006068
  49.8870012  61.4424997  -2.9790012  48.9400012  61.4744997  -2.8470012
  50.2000012  60.8174997  -2.3260012  49.7995475  61.3623207  -2.8725545
  51.5210012  60.0764997  -0.9740012  51.4250012  59.1244997  -0.9800012
  51.2000012  60.3454997  -0.1140012  51.4644070  59.9824035  -0.8584559
  41.3480012  61.2864997  -1.9270012  41.5600012  60.5794997  -2.5370012
  41.2370012  60.8484997  -1.0830012  41.3619721  61.1307084  -1.8963157
  46.1290012  57.2874997  -2.9470012  46.8410012  56.6474997  -2.9610012
  46.0280012  57.5544997  -3.8610012  46.2127939  57.2359938  -3.0724350
  46.4830012  58.9704997  -0.8940012  46.3510012  58.4944997  -1.7140012
  45.8840012  59.7144997  -0.9490012  46.3839071  59.0059618  -1.0137114
  46.0290012  75.8534997 -17.7170012  46.9620012  76.0114997 -17.5740012
  45.7650012  76.5284997 -18.3420012  46.1209510  75.9663611 -17.7819259
  39.5980012  70.4894997 -18.2350012  40.5120012  70.5684997 -17.9610012
  39.6050012  69.8024997 -18.9010012  39.7241131  70.4073961 -18.2875607
  38.2470012  75.8824997 -13.1570012  37.6000012  75.4204997 -13.6900012
  38.6010012  75.2104997 -12.5750012  38.2063849  75.7284723 -13.1512041
  39.1170012  73.9634997 -11.3530012  38.7820012  73.0834997 -11.1810012
  39.3390012  74.3084997 -10.4880012  39.1011783  73.8897500 -11.2125792
  56.6650012  74.7724997  -8.3720012  56.6440012  74.9574997  -7.4330012
  57.3560012  75.3414997  -8.7130012  56.7554618  74.8746606  -8.2896136
  56.2290012  74.3404997  -5.4500012  55.7410012  73.6044997  -5.8210012
  56.7780012  73.9464997  -4.7720012  56.2364872  74.1866249  -5.4090840
  54.6790012  70.1294997  -0.8120012  53.8130012  70.0244997  -0.4180012
  55.0560012  70.8884997  -0.3660012  54.6113308  70.2176900  -0.6977607
  55.9800012  68.3864997 -15.2980012  56.8300012  68.8074997 -15.1710012
  55.9860012  67.6464997 -14.6910012  56.0971372  68.3440803 -15.1985656
  56.3750012  66.4394997 -13.4740012  55.6480012  65.9604997 -13.0770012
  56.9560012  66.6454997 -12.7420012  56.3539375  66.4017090 -13.3205871
  56.1340012  69.2244997  -8.5270012  56.9670012  68.8464997  -8.8070012
  56.2460012  70.1674997  -8.6460012  56.2632647  69.3002218  -8.5814513
  54.6200012  72.1024997  -6.2200012  53.9730012  72.4274997  -5.5940012
  54.1030012  71.6624997  -6.8940012  54.4614029  72.0875004  -6.2254173
  56.6430012  66.3404997 -17.0830012  56.1210012  66.6974997 -17.8020012
  56.6100012  67.0154997 -16.4050012  56.5671634  66.4805413 -17.0896855
  54.9920012  63.5804997 -18.5320012  55.0880012  64.2474997 -19.2130012
  54.8520012  62.7644997 -19.0140012  54.9862135  63.5614500 -18.6901509
  54.1610012  64.9604997 -12.9110012  54.0110012  64.0154997 -12.9320012
  53.8080012  65.2414997 -12.0680012  54.0926625  64.8690441 -12.7997654
  39.1970012  67.0384997  -8.9010012  39.3810012  66.9564997  -9.8370012
  40.0460012  66.9144997  -8.4770012  39.3370139  67.0105003  -8.9718545
  55.0180012  66.9304997  -3.2730012  55.6010012  66.1964997  -3.0810012
  55.5820012  67.7024997  -3.2260012  55.1739769  66.9344227  -3.2403841
  56.5140012  64.8334997  -2.5880012  55.6510012  64.4544997  -2.7540012
  57.1190012  64.0944997  -2.6620012  56.4775979  64.6818023  -2.6207183
  54.2390012  60.9884997 -19.4150012  54.8500012  60.6174997 -18.7780012
  53.4030012  60.5674997 -19.2190012  54.2095032  60.8807554 -19.3012965
  53.8720012  62.5434997 -14.4490012  54.1520012  61.6364997 -14.3250012
  54.6310012  62.9774997 -14.8380012  54.0129277  62.4780942 -14.4846318
  54.4840012  63.1244997  -9.0130012  55.4170012  63.3364997  -9.0470012
  54.2490012  63.2264997  -8.0910012  54.5798036  63.1672769  -8.8930024
  54.5130012  63.8614997  -6.2370012  53.6700012  64.1294997  -5.8710012
  54.9550012  64.6834997  -6.4480012  54.4574158  64.0093291  -6.2154509
  38.7940012  62.3094997  -2.7600012  39.7140012  62.1874997  -2.5240012
  38.3450012  61.5594997  -2.3710012  38.8591580  62.1913727  -2.6750994
  56.7960012  57.8414997  -0.8840012  57.1460012  57.1874997  -1.4890012
  56.9430012  58.6784997  -1.3230012  56.8638419  57.8651591  -1.0262882
  54.4850012  59.8064997 -14.4010012  54.6680012  59.3574997 -13.5750012
  53.8860012  59.2214997 -14.8640012  54.4290202  59.6659975 -14.3506725
  40.0150012  60.6214997  -9.8690012  40.4610012  59.8294997  -9.5670012
  40.4820012  61.3374997  -9.4380012  40.1390172  60.6100624  -9.7695180
  38.3190012  63.6204997  -8.8000012  38.8110012  63.3994997  -9.5910012
  38.6820012  64.4614997  -8.5190012  38.4353126  63.7038357  -8.8702469
  56.3160012  59.9504997  -2.5340012  55.3980012  60.2214997  -2.5700012
  56.4390012  59.4154997  -3.3190012  56.2071066  59.9152892  -2.6449513
  56.3520012  59.8734997 -17.8730012  56.7640012  59.1524997 -18.3480012
  57.0340012  60.5434997 -17.8140012  56.5005885  59.8652368 -17.9301085
  38.6330012  59.8784997 -14.7460012  37.7080012  60.0874997 -14.8750012
  39.0870012  60.3624997 -15.4350012  38.5677368  59.9725993 -14.8568774
  53.4040012  74.8624997 -12.8000012  54.0560012  74.5154997 -13.4080012
  53.9140012  75.3514997 -12.1540012  53.5622637  74.8810597 -12.7959764
  38.5970012  58.6164997  -6.4010012  37.9320012  58.3704997  -5.7580012
  38.1540012  59.2384997  -6.9790012  38.4460956  58.6668632  -6.3910648
  40.7890012  71.7914997  -2.2570012  39.9680012  71.9664997  -2.7170012
  40.5360012  71.7184997  -1.3360012  40.6426164  71.8055622  -2.1955077
  43.7430012  72.7664997  -5.9980012  43.3180012  73.5754997  -6.2810012
  44.6470012  72.8514997  -6.3000012  43.8070271  72.8888469  -6.0776224
  48.0540012  74.1654997  -3.0390012  48.2390012  73.8314997  -2.1610012
  48.9000012  74.4744997  -3.3610012  48.1937539  74.1616047  -2.9624395
  50.3990012  75.4514997  -3.7950012  51.0760012  74.8184997  -4.0350012
  50.7210012  75.8524997  -2.9880012  50.5351637  75.4191154  -3.7187207
  55.3160012  58.0404997  -4.7150012  54.5040012  58.3654997  -5.1030012
  55.5490012  57.2804997  -5.2480012  55.2363423  57.9822436  -4.8401747
  41.1450012  76.0224997  -5.9510012  40.4240012  76.4624997  -6.4020012
  40.7790012  75.7714997  -5.1020012  40.9969804  76.0487698  -5.8980160
  43.6120012  75.6224997  -6.9210012  42.7470012  75.6944997  -6.5170012
  43.5570012  76.1694997  -7.7050012  43.4862085  75.7062685  -6.9716638
  48.3220012  75.5104997  -7.7460012  47.8660012  76.0394997  -8.4000012
  48.4850012  76.1134997  -7.0200012  48.2815585  75.6644468  -7.7374938
  50.6500012  74.3884997  -6.8010012  49.7450012  74.5534997  -7.0660012
  51.0790012  75.2414997  -6.8660012  50.5840799  74.5264483  -6.8460818
  53.2540012  75.9584997  -6.5060012  53.0720012  76.8744997  -6.7160012
  53.4310012  75.5484997  -7.3520012  53.2530210  76.0284822  -6.6492115
  40.5590012  74.6454997  -9.0410012  40.5410012  74.2204997  -8.1830012
  41.3640012  74.3274997  -9.4490012  40.6653875  74.5443812  -8.9788345
  42.7010012  73.3554997 -10.3860012  42.4820012  72.4394997 -10.2160012
  43.5250012  73.4954997  -9.9200012  42.7824420  73.2490520 -10.2997226
  45.2380012  73.8254997  -9.5370012  45.4510012  72.9374997  -9.8240012
  45.3020012  73.7914997  -8.5830012  45.2758232  73.6993102  -9.4472603
  48.7460012  59.4894997 -10.3930012  48.0720012  58.8604997 -10.1370012
  49.3100012  59.0054997 -10.9960012  48.7299230  59.3378744 -10.4394660
  53.8890012  57.5974997 -10.2800012  54.4930012  58.1444997 -10.7820012
  53.0190012  57.9164997 -10.5200012  53.8541241  57.7155806 -10.3812346
  55.6160012  58.7354997 -11.9470012  56.2280012  58.2214997 -12.4730012
  55.9980012  59.6134997 -11.9230012  55.7514540  58.7837140 -12.0158170
  41.0730012  58.1234997 -12.5710012  40.2960012  57.8894997 -13.0780012
  41.6030012  57.3264997 -12.5620012  41.0382330  57.9836988 -12.6392258
  39.9090012  57.9214997 -16.7670012  40.3480012  58.5324997 -17.3590012
  39.2760012  58.4594997 -16.2930012  39.8834514  58.0779257 -16.7839070
  45.6520012  58.0504997 -12.7570012  46.5270012  58.4384997 -12.7870012
  45.5160012  57.8354997 -11.8350012  45.7533695  58.0745184 -12.6363560
  51.2090012  58.0804997 -11.1080012  51.2850012  58.1754997 -12.0580012
  50.9340012  57.1724997 -10.9790012  51.1822321  57.9707867 -11.2204921
  52.5620012  58.1064997 -15.4160012  51.8600012  58.7214997 -15.6250012
  52.1180012  57.2684997 -15.2850012  52.4056330  58.0775783 -15.4269672
  39.8100012  73.8694997 -15.8690012  39.1250012  73.8314997 -16.5370012
  39.8140012  74.7824997 -15.5810012  39.7168193  73.9877016 -15.9214716
  41.7700012  59.8374997 -18.3250012  42.2620012  59.2074997 -18.8520012
  42.3940012  60.1334997 -17.6610012  41.9215446  59.7913199 -18.3074020
  46.7960012  60.1304997 -15.8680012  46.9740012  59.4844997 -15.1850012
  46.7430012  60.9644997 -15.4000012  46.8131829  60.1547985 -15.7114060
  48.6750012  75.0794997 -17.4720012  49.5410012  75.4454997 -17.6500012
  48.4280012  74.6394997 -18.2860012  48.7602392  75.0701756 -17.6063711
  55.3840012  74.6424997 -14.7930012  55.1890012  73.8944997 -15.3580012
  55.3450012  75.4004997 -15.3760012  55.3520380  74.6426099 -14.9491616
  41.0310012  58.6374997  -3.0530012  40.6650012  57.8724997  -2.6100012
  41.9440012  58.6664997  -2.7660012  41.1042790  58.5367224  -2.9535930
  43.0040012  57.9884997  -1.5170012  43.9020012  57.7144997  -1.7020012
  42.6170012  57.2454997  -1.0530012  43.0746612  57.8505914  -1.4796357
  41.6280012  74.7894997 -18.8440012  41.3610012  75.0764997 -17.9710012
  42.4000012  74.2434997 -18.6920012  41.6957488  74.7550294 -18.7038950
  51.4250012  57.3204997  -1.3350012  51.5020012  56.8944997  -0.4810012
  52.3190012  57.3344997  -1.6780012  51.5563428  57.2640879  -1.2644690
  54.6010012  73.3934997  -2.6430012  53.8190012  73.2074997  -3.1620012
  54.5290012  74.3224997  -2.4250012  54.4841777  73.4936492  -2.6845952
  69.0070012  67.2794997 -12.6120012  69.0960012  68.2234997 -12.7440012
  68.3690012  67.0044997 -13.2700012  68.9329081  67.3714830 -12.7190386
  67.9400012  66.5344997  -9.1930012  67.9020012  65.8884997  -8.4880012
  67.6180012  66.0684997  -9.9640012  67.8912333  66.3829408  -9.2007022
  60.3090012  66.1494997  -7.6000012  60.3500012  65.5234997  -6.8770012
  61.0120012  66.7734997  -7.4180012  60.4096363  66.1481196  -7.4763956
  71.6460012  69.4734997 -10.8920012  71.2060012  68.7534997 -10.4410012
  71.6330012  70.1944997 -10.2620012  71.5840226  69.4723731 -10.7451506
  61.2320012  70.5994997  -9.0650012  60.8630012  69.7974997  -9.4350012
  62.1730012  70.4304997  -9.0190012  61.3087289  70.4670153  -9.1093684
  57.8420012  64.2594997 -13.6720012  57.3950012  65.1054997 -13.6910012
  57.2810012  63.6794997 -14.1880012  57.7049900  64.2969916 -13.7443199
  58.5530012  66.4214997 -11.5460012  58.7660012  65.6514997 -11.0190012
  59.2910012  66.5104997 -12.1500012  58.6818496  66.3281394 -11.5554700
  68.7580012  74.5784997 -10.6790012  69.3780012  73.9014997 -10.9530012
  68.5500012  74.3604997  -9.7710012  68.8146904  74.4563870 -10.5936635
  66.3300012  68.9674997  -8.7870012  66.6340012  68.2814997  -9.3820012
  67.0510012  69.0854997  -8.1690012  66.4690671  68.8896305  -8.7848184
  74.9930012  60.5684997  -7.9260012  75.0420012  61.1784997  -7.1900012
  75.4180012  61.0294997  -8.6490012  75.0571824  60.7143741  -7.9229795
  69.4710012  63.3614997  -8.4590012  69.6130012  62.4154997  -8.4390012
  69.3640012  63.5684997  -9.3880012  69.4759864  63.2599534  -8.5817661
  62.6250012  61.4624997 -11.1870012  62.6690012  62.3224997 -11.6050012
  62.1680012  60.9104997 -11.8210012  62.5692185  61.5055799 -11.3299701
  70.3480012  61.5934997 -12.7860012  70.9940012  61.2644997 -12.1610012
  70.8580012  62.1114997 -13.4090012  70.5054264  61.6184611 -12.7846138
  59.2460012  63.8594997 -10.4250012  59.8990012  63.3094997  -9.9930012
  59.2700012  63.5854997 -11.3420012  59.3386683  63.7471466 -10.4897877
  64.4020012  65.4094997 -11.2100012  65.0180012  64.8834997 -10.7000012
  63.8160012  64.7694997 -11.6130012  64.4070810  65.2509208 -11.1946827
  75.3840012  62.0464997  -5.6900012  74.6960012  62.7044997  -5.7860012
  75.4000012  61.8494997  -4.7540012  75.2918525  62.1100462  -5.5765192
  61.4360012  60.3804997  -7.1130012  61.2170012  60.9104997  -7.8790012
  60.7680012  60.6074997  -6.4660012  61.3157600  60.4836906  -7.1303621
  68.8050012  69.8804997 -13.5690012  68.5090012  69.5584997 -14.4200012
  68.4800012  70.7804997 -13.5280012  68.7206371  69.9580215 -13.6798199
  64.0050012  68.0564997  -6.8260012  63.2650012  68.6544997  -6.7220012
  64.7190012  68.6104997  -7.1410012  64.0002237  68.2132831  -6.8543535
  72.1120012  60.8844997 -10.8060012  71.8960012  60.1184997 -10.2730012
  72.7670012  61.3564997 -10.2930012  72.1710632  60.8435889 -10.6637139
  61.0290012  62.2724997  -9.1610012  61.6430012  62.9054997  -8.7870012
  61.5410012  61.8004997  -9.8170012  61.1822296  62.2952370  -9.1985748
  62.4120012  70.0204997  -6.0380012  62.4070012  70.9004997  -6.4160012
  61.5590012  69.9374997  -5.6130012  62.2959464  70.1296117  -6.0322093
  58.5330012  69.6914997 -15.2560012  58.2610012  69.9204997 -16.1450012
  58.5790012  70.5294997 -14.7960012  58.5020094  69.8361213 -15.3154303
  72.1580012  71.3134997  -8.5440012  71.2170012  71.3714997  -8.3820012
  72.4350012  72.2194997  -8.6810012  72.0664679  71.4439443  -8.5403185
  72.4590012  59.5994997  -7.1260012  71.7230012  60.2104997  -7.1640012
  73.1420012  60.0144997  -7.6530012  72.4506541  59.7391374  -7.2024168
  65.4620012  57.6864997  -9.6600012  65.3450012  56.7374997  -9.7150012
  64.6070012  58.0184997  -9.3870012  65.3303733  57.6015409  -9.6306103
  70.4100012  73.0944997 -11.9180012  70.8360012  72.3874997 -12.4030012
  70.7270012  73.8954997 -12.3350012  70.5111019  73.1060994 -12.0406870
  71.5700012  70.9954997 -13.4100012  71.3120012  70.3054997 -14.0210012
  71.6410012  70.5524997 -12.5640012  71.5442856  70.8412124 -13.3793115
  73.2560012  69.5614997  -4.9320012  73.3960012  68.9704997  -5.6720012
  73.4230012  70.4344997  -5.2890012  73.2976778  69.5986426  -5.0813035
  67.7290012  66.5234997 -15.1600012  67.0170012  67.0584997 -15.5120012
  68.4200012  66.5794997 -15.8200012  67.7250132  66.6042543 -15.2973711
  67.7820012  64.9814997 -18.1210012  68.4830012  65.0034997 -17.4700012
  68.0850012  64.3534997 -18.7770012  67.9187830  64.8996566 -18.1206289
  75.0980012  65.9014997  -6.8660012  74.4450012  66.5964997  -6.7770012
  75.5630012  66.1114997  -7.6760012  75.0715390  66.0249425  -6.9633117
  71.1340012  66.7334997 -14.2080012  70.4020012  66.9614997 -13.6350012
  71.5820012  66.0194997 -13.7530012  71.0943095  66.6682571 -14.0680881
  71.0320012  64.9074997  -5.1410012  71.1120012  65.6704997  -4.5690012
  70.4300012  65.1864997  -5.8310012  70.9615756  65.0497134  -5.1559411
  62.7800012  67.3634997 -12.3260012  62.4490012  66.9934997 -13.1440012
  63.3680012  66.6934997 -11.9790012  62.8141873  67.2221156 -12.3911898
  64.1460012  70.7914997  -9.6440012  64.0520012  70.2134997 -10.4010012
  64.8760012  70.4204997  -9.1480012  64.2317981  70.6622390  -9.6805835
  63.1460012  66.1324997  -8.6920012  63.7120012  66.2534997  -9.4550012
  63.4650012  66.7694997  -8.0530012  63.2665786  66.2351884  -8.7099960
  69.4550012  71.6354997  -7.9580012  69.2150012  72.2974997  -7.3100012
  69.2570012  70.8014997  -7.5330012  69.3953808  71.6133134  -7.8118476
  64.0260012  70.5314997  -3.9750012  63.7150012  71.3134997  -3.5200012
  63.3760012  70.3784997  -4.6610012  63.8955558  70.6179105  -4.0054129
  70.0050012  65.8954997 -16.5230012  70.5850012  66.0454997 -15.7760012
  70.4190012  66.3664997 -17.2460012  70.1402830  65.9796841 -16.5185866
  60.9460012  66.7294997  -4.7460012  61.0170012  67.3804997  -4.0480012
  60.0560012  66.8324997  -5.0810012  60.8353117  66.8325936  -4.6957300
  67.7320012  72.6324997 -13.0880012  68.2060012  72.9274997 -12.3100012
  67.1690012  73.3704997 -13.3210012  67.7207653  72.7726932 -13.0129864
  62.2660012  72.6034997  -3.2120012  62.2730012  72.4674997  -4.1590012
  61.3500012  72.4854997  -2.9600012  62.1431714  72.5689430  -3.3075334
  73.7040012  57.6454997 -16.7100012  72.8040012  57.7844997 -16.4150012
  73.9560012  58.4764997 -17.1120012  73.6148702  57.7769074 -16.7239795
  61.7700012  66.4334997 -14.7360012  61.4780012  67.2014997 -15.2270012
  61.0960012  65.7734997 -14.8990012  61.6389081  66.4494406 -14.8252660
  74.8930012  72.0114997 -18.3340012  74.9670012  72.9504997 -18.1630012
  75.7990012  71.7064997 -18.3900012  75.0255100  72.0986722 -18.3181881
  57.8630012  68.7964997  -5.9210012  57.3620012  68.7684997  -6.7360012
  57.8680012  67.8904997  -5.6120012  57.7951526  68.6702278  -5.9907128
  57.6130012  71.5764997  -9.0370012  58.5590012  71.4324997  -9.0560012
  57.5010012  72.3604997  -8.5000012  57.7272727  71.6628046  -8.9669928
  75.8110012  72.2424997  -3.3550012  75.7620012  71.2874997  -3.3920012
  74.9840012  72.5104997  -2.9540012  75.6924940  72.1478998  -3.3058625
  66.7900012  71.8164997  -4.4790012  66.8770012  72.6424997  -4.0040012
  65.9260012  71.4864997  -4.2300012  66.6851964  71.8849878  -4.3803451
  67.2040012  75.5884997 -14.6730012  67.1290012  75.4674997 -15.6190012
  67.2370012  76.5384997 -14.5540012  67.1981848  75.7002500 -14.7865166
  60.8570012  74.3774997 -12.8920012  61.0100012  74.0294997 -12.0130012
  60.0070012  74.0214997 -13.1470012  60.7628962  74.2816650 -12.8061660
  70.3060012  74.7424997 -17.6710012  70.6810012  73.9984997 -18.1410012
  70.3100012  74.4724997 -16.7520012  70.3578915  74.6041486 -17.6112176
  69.9750012  74.6684997 -14.9210012  69.0390012  74.7684997 -14.7430012
  70.2550012  73.9594997 -14.3430012  69.8848255  74.5862711 -14.8184609
  72.9630012  63.7354997  -2.8750012  72.5560012  64.2164997  -3.5960012
  73.0040012  62.8304997  -3.1830012  72.9128437  63.6789374  -3.0153317
  60.1120012  70.1194997  -4.8780012  60.3280012  69.7584997  -4.0190012
  59.2570012  69.7454997  -5.0880012  60.0259292  70.0194111  -4.7886614
  62.7310012  58.5894997  -8.8830012  61.8690012  58.5024997  -9.2900012
  62.7080012  59.4454997  -8.4550012  62.6100330  58.6932765  -8.8808137
  67.3940012  58.3114997  -5.5080012  67.8140012  57.8964997  -4.7550012
  66.4610012  58.1334997  -5.3910012  67.3253644  58.2305900  -5.3890461
  70.7200012  62.0674997  -4.6550012  70.2060012  61.9414997  -3.8570012
  70.5650012  62.9794997  -4.8990012  70.6286852  62.1736132  -4.5787842
  71.4830012  66.9284997 -18.8930012  71.5250012  66.7054997 -19.8230012
  72.3320012  67.3274997 -18.7030012  71.6035396  66.9519155 -18.9946373
  67.0550012  60.8044997 -18.2230012  66.8020012  60.8234997 -17.3000012
  66.7990012  59.9324997 -18.5240012  66.9857790  60.6892437 -18.1373737
  62.8220012  63.5554997  -7.7880012  62.1800012  63.5144997  -7.0790012
  62.8590012  64.4814997  -8.0250012  62.7391324  63.6751559  -7.7230176
  62.8190012  63.7764997 -12.8760012  61.9260012  63.4354997 -12.9340012
  63.2690012  63.3994997 -13.6310012  62.7577305  63.6788484 -12.9860823
  68.3540012  64.1924997 -14.0590012  67.9450012  65.0074997 -14.3500012
  69.0750012  64.0524997 -14.6730012  68.3954537  64.2852018 -14.1818658
  67.4560012  64.3674997  -2.5710012  66.8940012  63.6634997  -2.2500012
  68.2830012  64.2474997  -2.1030012  67.4907095  64.2547883  -2.4637670
  69.3590012  63.6384997 -11.2450012  69.1640012  64.2434997 -11.9600012
  69.5400012  62.8044997 -11.6790012  69.3567614  63.6086300 -11.4015595
  60.5720012  63.8754997  -5.9210012  60.5340012  64.2754997  -5.0520012
  60.0810012  63.0584997  -5.8300012  60.5004684  63.8198069  -5.7898941
  63.9380012  61.2494997 -19.1220012  63.5070012  60.8044997 -18.3920012
  63.2200012  61.6214997 -19.6340012  63.7819438  61.2388940 -19.0913201
  57.1800012  60.9914997 -12.0700012  57.8110012  60.9624997 -11.3510012
  57.6290012  60.5664997 -12.8000012  57.3270774  60.9300492 -12.0703447
  58.4540012  61.7374997 -16.6460012  58.9280012  62.3284997 -17.2310012
  57.7370012  62.2684997 -16.2990012  58.4219341  61.8900867 -16.6791164
  68.6230012  65.2764997  -6.5730012  68.9460012  64.6454997  -7.2160012
  68.1830012  64.7414997  -5.9130012  68.6076895  65.1178440  -6.5717150
  65.4000012  61.2034997 -11.7890012  64.4890012  61.2604997 -11.5010012
  65.9060012  61.1434997 -10.9790012  65.3435413  61.2031985 -11.6399378
  60.2290012  62.8324997 -12.9630012  59.3390012  62.9324997 -13.3030012
  60.5250012  61.9904997 -13.3090012  60.1472823  62.7323545 -13.0562787
  63.8820012  62.8324997 -15.3060012  64.8130012  62.9614997 -15.1280012
  63.6670012  63.5024997 -15.9560012  63.9804247  62.9406565 -15.3694253
  69.8050012  60.4384997  -8.5250012  69.1290012  60.5694997  -7.8610012
  69.3200012  60.2834997  -9.3350012  69.6467145  60.4354905  -8.5435483
  62.5560012  64.0274997 -17.7390012  62.0130012  63.6474997 -18.4310012
  63.3890012  64.2214997 -18.1680012  62.5944399  64.0018124 -17.8915474
  73.0930012  76.1104997  -2.2480012  73.2930012  76.5344997  -3.0830012
  73.7480012  76.4534997  -1.6410012  73.2090051  76.2149648  -2.2802164
  60.6910012  68.5844997  -2.6400012  61.4230012  68.8384997  -2.0790012
  59.9110012  68.7884997  -2.1250012  60.6858232  68.6469177  -2.4934240
  66.7200012  63.9914997  -9.9020012  67.2850012  63.4444997 -10.4490012
  66.5730012  63.4694997  -9.1140012  66.7772918  63.8462024  -9.8701546
  61.7220012  60.1274997 -13.4840012  61.4050012  59.2254997 -13.5190012
  62.5040012  60.1294997 -14.0370012  61.7842284  60.0041628 -13.5635217
  65.3470012  62.3794997  -7.4880012  64.5110012  62.8334997  -7.3780012
  65.8710012  62.6554997  -6.7360012  65.3034414  62.4789376  -7.3712864
  65.8910012  68.5924997 -15.8040012  65.1460012  68.0854997 -16.1260012
  65.7570012  68.6414997 -14.8570012  65.7708776  68.5296940 -15.7201353
  73.0410012  67.7254997  -7.0170012  73.6830012  68.1824997  -7.5610012
  72.2110012  67.8384997  -7.4800012  73.0165963  67.8032704  -7.1539823
  69.7890012  61.4064997 -17.6040012  68.8500012  61.5184997 -17.7560012
  70.0860012  62.2634997 -17.2980012  69.7007666  61.5376443 -17.5834232
  67.4100012  68.7764997  -4.5670012  67.0650012  68.3954997  -3.7600012
  67.2100012  69.7104997  -4.4950012  67.3358061  68.8505228  -4.4469039
  70.5070012  63.2734997 -15.9440012  71.3990012  63.1364997 -15.6250012
  70.5640012  64.0644997 -16.4800012  70.6366285  63.3616660 -15.9728310
  61.0160012  67.8874997 -10.0340012  61.7610012  67.8854997 -10.6350012
  61.0940012  67.0644997  -9.5520012  61.1285518  67.7759315 -10.0511071
  68.0170012  70.0514997 -16.7780012  67.7210012  70.8774997 -16.3970012
  67.3140012  69.4314997 -16.5820012  67.8814914  70.0808199 -16.6993557
  58.0240012  66.3484997  -4.7190012  58.2470012  65.9304997  -3.8870012
  57.4220012  65.7354997  -5.1420012  57.9731759  66.2084668  -4.6622978
  65.0400012  65.8654997  -2.5060012  64.7440012  65.6994997  -3.4010012
  65.9720012  65.6454997  -2.5170012  65.1254166  65.8130640  -2.6299464
  69.6610012  71.2384997  -4.6160012  68.7600012  71.4214997  -4.8840012
  69.6950012  71.4974997  -3.6950012  69.5423041  71.2985512  -4.5281803
  75.3920012  63.4834997 -16.2490012  74.8380012  63.0874997 -16.9210012
  75.4920012  64.3934997 -16.5270012  75.3297059  63.5523586 -16.3785599
  75.3550012  69.2834997  -3.4120012  74.5040012  69.5214997  -3.7790012
  75.9460012  69.2664997  -4.1650012  75.3182487  69.3138258  -3.5641107
  73.6870012  72.2694997 -15.7840012  73.3140012  71.4434997 -15.4750012
  73.9650012  72.0864997 -16.6810012  73.6735630  72.1317303 -15.8630374
  70.8480012  67.0774997  -8.7630012  69.9190012  66.8454997  -8.7900012
  71.2990012  66.3004997  -9.0930012  70.7819216  66.9407238  -8.8113083
  63.3910012  71.4054997 -12.6300012  63.9180012  72.1784997 -12.8300012
  62.5110012  71.6304997 -12.9310012  63.3441773  71.5418005 -12.6980990
  59.1460012  66.2674997 -18.0430012  59.7620012  66.8944997 -17.6630012
  58.2840012  66.5834997 -17.7710012  59.1137698  66.3959430 -17.9542817
  64.8180012  69.0684997 -13.0530012  64.5770012  69.9934997 -13.0120012
  64.0770012  68.6094997 -12.6570012  64.6848409  69.1331421 -12.9938623
  65.3330012  73.2174997  -6.7380012  65.6950012  74.0724997  -6.9720012
  65.8640012  72.9254997  -5.9980012  65.4544473  73.2951060  -6.6699145
  63.5010012  74.0904997 -13.5080012  62.5510012  74.1954997 -13.4570012
  63.8530012  74.9104997 -13.1630012  63.4184203  74.2158314 -13.4543350
  68.8770012  69.3164997  -7.0380012  68.4510012  69.0894997  -6.2110012
  69.4570012  68.5784997  -7.2200012  68.8971868  69.1855299  -6.9494170
  71.0800012  70.2454997 -17.9640012  71.4330012  69.8654997 -17.1590012
  70.1310012  70.1524997 -17.8770012  71.0000441  70.1809596 -17.8421441
  71.5350012  73.8684997  -4.5680012  70.9340012  73.3134997  -5.0640012
  71.8170012  74.5354997  -5.1940012  71.4908519  73.8826841  -4.7205048
  75.5830012  74.7254997 -17.7630012  76.3270012  75.3114997 -17.9030012
  74.8890012  75.2934997 -17.4290012  75.5910292  74.8825582 -17.7370039
  59.6580012  61.1014997  -5.1610012  58.7650012  61.4404997  -5.2290012
  59.5590012  60.2464997  -4.7430012  59.5224164  61.0322588  -5.1137765
  71.9460012  68.9184997 -15.7370012  71.6680012  68.1904997 -15.1810012
  72.8730012  69.0374997 -15.5320012  72.0333124  68.8348802 -15.6331155
  59.3090012  72.9064997  -6.7260012  59.5260012  71.9744997  -6.7570012
  59.5550012  73.1804997  -5.8430012  59.3719549  72.8160636  -6.6108237
  65.1710012  71.3574997 -19.5170012  65.4100012  70.6094997 -20.0640012
  64.9020012  70.9694997 -18.6840012  65.1673675  71.2026638 -19.4793135
  64.1080012  70.9274997 -17.0600012  64.2540012  70.4074997 -16.2700012
  64.1050012  71.8344997 -16.7540012  64.1275989  70.9788853 -16.9103912
  60.5610012  68.1804997 -16.5500012  59.8750012  68.5324997 -15.9830012
  61.0830012  68.9434997 -16.7970012  60.5376852  68.3318578 -16.5057882
  68.3920012  60.8424997  -6.2710012  69.0910012  60.9164997  -5.6210012
  68.0110012  59.9784997  -6.1170012  68.4361767  60.7357624  -6.1611678
  69.1770012  60.4944997 -15.1740012  69.3970012  60.9664997 -15.9770012
  69.7350012  60.8894997 -14.5040012  69.2824968  60.6124285 -15.1932669
  66.8450012  72.6254997 -16.3110012  66.0290012  73.1224997 -16.2590012
  67.3750012  73.1004997 -16.9510012  66.8049161  72.7577722 -16.3904044
  66.3770012  62.2224997 -14.3390012  67.1890012  62.7274997 -14.2930012
  66.1320012  62.0774997 -13.4250012  66.4550520  62.2720375 -14.2091483
  66.9120012  63.2084997  -5.1540012  67.0310012  63.7824997  -4.3970012
  67.5680012  62.5204997  -5.0400012  67.0169757  63.1941079  -5.0349175
  67.2600012  59.3034997 -13.4010012  66.9140012  59.9214997 -12.7560012
  67.9190012  59.8044997 -13.8820012  67.3017826  59.4555802 -13.3779029
  64.1840012  73.6694997 -16.3290012  64.3440012  74.4684997 -16.8300012
  63.9860012  73.9754997 -15.4440012  64.1791649  73.8204469 -16.2780185
  62.9180012  60.3664997 -16.7140012  62.8350012  61.2554997 -16.3670012
  63.8080012  60.1014997 -16.4820012  63.0269469  60.4521430 -16.6352374
  73.1170012  61.1154997  -4.3190012  72.2000012  61.3784997  -4.4070012
  73.4520012  61.1124997  -5.2160012  73.0369900  61.1510224  -4.4522081
  71.7190012  64.8664997 -10.2240012  70.9210012  64.4514997 -10.5520012
  72.1640012  64.1754997  -9.7330012  71.6699885  64.7163543 -10.2025111
  61.1770012  70.7944997 -17.6530012  61.7690012  71.4934997 -17.3770012
  61.6360012  70.3614997 -18.3730012  61.3201142  70.8317049 -17.7125170
  59.4930012  63.4584997 -18.5370012  59.4480012  64.3974997 -18.3590012
  58.6050012  63.2224997 -18.8070012  59.3668574  63.5551892 -18.5491088
  72.8050012  74.1224997  -8.6010012  72.6500012  74.8004997  -9.2580012
  73.7380012  74.1944997  -8.3980012  72.9098500  74.2250170  -8.6634881
  60.3010012  58.2404997  -9.8640012  60.0720012  58.2994997 -10.7920012
  59.8580012  57.4484997  -9.5580012  60.2098530  58.1415753  -9.9495214
  59.2310012  72.1804997 -13.7040012  58.3990012  72.6534997 -13.6760012
  59.7770012  72.6904997 -14.3020012  59.1909739  72.3141871 -13.7810284
  58.5190012  74.7934997  -2.3740012  59.0600012  74.5764997  -1.6140012
  58.0380012  73.9874997  -2.5630012  58.5279345  74.6549514  -2.2956924
  63.1170012  73.7124997  -0.7530012  63.8840012  73.2534997  -0.4120012
  63.0950012  73.4864997  -1.6830012  63.2191434  73.6190409  -0.8319957
  67.2090012  73.2204997 -19.3780012  66.5650012  72.5894997 -19.0570012
  67.9710012  72.6894997 -19.6100012  67.2238077  73.0622920 -19.3653989
  69.6940012  72.0924997  -2.0240012  69.3430012  71.2364997  -1.7810012
  70.4200012  72.2354997  -1.4170012  69.7440769  71.9945636  -1.9086381
  71.8130012  73.0374997 -19.1440012  72.0960012  72.2434997 -18.6920012
  72.5530012  73.2704997 -19.7050012  71.9517486  72.9602803 -19.1579302
  58.4260012  68.6034997  -1.4190012  58.5700012  67.7014997  -1.7060012
  57.6540012  68.8894997  -1.9070012  58.3413322  68.5188261  -1.5242119
  62.7680012  68.9474997 -19.2870012  62.8320012  68.1534997 -18.7560012
  63.4210012  68.8284997 -19.9770012  62.8650241  68.8227148 -19.3075683
  65.0820012  68.5734997  -1.9870012  64.7530012  68.8444997  -2.8440012
  65.2340012  67.6324997  -2.0740012  65.0574809  68.4833862  -2.1161756
  70.8160012  68.4894997  -4.6030012  71.5620012  69.0774997  -4.7230012
  70.0590012  69.0714997  -4.5400012  70.8157554  68.6487011  -4.6109093
  59.2590012  65.8034997  -1.9990012  59.6670012  64.9464997  -2.1200012
  58.9990012  65.8184997  -1.0780012  59.2797568  65.6880807  -1.8910412
  63.9170012  66.9194997 -16.9810012  63.4570012  66.4354997 -16.2950012
  64.1720012  66.2514997 -17.6170012  63.8884902  66.7628731 -16.9730666
  63.2060012  64.8124997  -4.6250012  62.5880012  65.4874997  -4.3450012
  63.5500012  65.1334997  -5.4580012  63.1679615  64.9482721  -4.6993419
  64.9880012  65.1624997 -18.7190012  64.8080012  65.0084997 -19.6460012
  65.9380012  65.2704997 -18.6740012  65.0917776  65.1560175 -18.8398157
  68.2260012  67.2844997  -1.3480012  69.1790012  67.3674997  -1.3750012
  68.0650012  66.5724997  -0.7280012  68.3346426  67.1996746  -1.2679421
  74.3780012  67.5174997 -19.2730012  74.1040012  67.0924997 -20.0860012
  74.4170012  68.4484997 -19.4900012  74.3457699  67.5852484 -19.4136390
  63.5450012  62.1674997  -3.5430012  63.6950012  61.4384997  -4.1450012
  63.5480012  62.9444997  -4.1020012  63.5659302  62.1727851  -3.7009308
  63.9580012  60.5374997  -6.0500012  64.4940012  60.9884997  -6.7020012
  63.1060012  60.4294997  -6.4730012  63.9162178  60.5846390  -6.1964244
  65.5400012  65.9764997  -5.8110012  66.2900012  65.8204997  -6.3840012
  65.2010012  66.8284997  -6.0860012  65.5968921  66.0702968  -5.9266439
  69.9550012  63.7914997  -0.7820012  70.1480012  62.8604997  -0.8940012
  70.8130012  64.2164997  -0.7920012  70.0973020  63.7216389  -0.7986639
  71.2720012  66.5804997  -2.7050012  70.9910012  67.2894997  -3.2820012
  72.2150012  66.5074997  -2.8560012  71.3609027  66.6677646  -2.8044449
  62.0240012  63.3654997  -1.6310012  61.2570012  62.8334997  -1.8410012
  62.7030012  63.0554997  -2.2310012  62.0107022  63.2507506  -1.7408352
  64.7640012  57.9934997  -5.6190012  64.6650012  58.9404997  -5.7240012
  64.0210012  57.6214997  -6.0940012  64.6500564  58.0725902  -5.6975440
  66.0280012  62.3154997  -2.0550012  65.7920012  62.0954997  -1.1530012
  65.2440012  62.1084997  -2.5650012  65.8898628  62.2574760  -2.0006068
  68.7430012  61.4424997  -2.9790012  67.7960012  61.4744997  -2.8470012
  69.0560012  60.8174997  -2.3260012  68.6555475  61.3623207  -2.8725545
  70.3770012  60.0764997  -0.9740012  70.2810012  59.1244997  -0.9800012
  70.0560012  60.3454997  -0.1140012  70.3204070  59.9824035  -0.8584559
  60.2040012  61.2864997  -1.9270012  60.4160012  60.5794997  -2.5370012
  60.0930012  60.8484997  -1.0830012  60.2179721  61.1307084  -1.8963157
  64.9850012  57.2874997  -2.9470012  65.6970012  56.6474997  -2.9610012
  64.8840012  57.5544997  -3.8610012  65.0687939  57.2359938  -3.0724350
  65.3390012  58.9704997  -0.8940012  65.2070012  58.4944997  -1.7140012
  64.7400012  59.7144997  -0.9490012  65.2399071  59.0059618  -1.0137114
  64.8850012  75.8534997 -17.7170012  65.8180012  76.0114997 -17.5740012
  64.6210012  76.5284997 -18.3420012  64.9769510  75.9663611 -17.7819259
  58.4540012  70.4894997 -18.2350012  59.3680012  70.5684997 -17.9610012
  58.4610012  69.8024997 -18.9010012  58.5801131  70.4073961 -18.2875607
  57.1030012  75.8824997 -13.1570012  56.4560012  75.4204997 -13.6900012
  57.4570012  75.2104997 -12.5750012  57.0623849  75.7284723 -13.1512041
  57.9730012  73.9634997 -11.3530012  57.6380012  73.0834997 -11.1810012
  58.1950012  74.3084997 -10.4880012  57.9571783  73.8897500 -11.2125792
  75.5210012  74.7724997  -8.3720012  75.5000012  74.9574997  -7.4330012
  76.2120012  75.3414997  -8.7130012  75.6114618  74.8746606  -8.2896136
  75.0850012  74.3404997  -5.4500012  74.5970012  73.6044997  -5.8210012
  75.6340012  73.9464997  -4.7720012  75.0924872  74.1866249  -5.4090840
  73.5350012  70.1294997  -0.8120012  72.6690012  70.0244997  -0.4180012
  73.9120012  70.8884997  -0.3660012  73.4673308  70.2176900  -0.6977607
  74.8360012  68.3864997 -15.2980012  75.6860012  68.8074997 -15.1710012
  74.8420012  67.6464997 -14.6910012  74.9531372  68.3440803 -15.1985656
  75.2310012  66.4394997 -13.4740012  74.5040012  65.9604997 -13.0770012
  75.8120012  66.6454997 -12.7420012  75.2099375  66.4017090 -13.3205871
  74.9900012  69.2244997  -8.5270012  75.8230012  68.8464997  -8.8070012
  75.1020012  70.1674997  -8.6460012  75.1192647  69.3002218  -8.5814513
  73.4760012  72.1024997  -6.2200012  72.8290012  72.4274997  -5.5940012
  72.9590012  71.6624997  -6.8940012  73.3174029  72.0875004  -6.2254173
  75.4990012  66.3404997 -17.0830012  74.9770012  66.6974997 -17.8020012
  75.4660012  67.0154997 -16.4050012  75.4231634  66.4805413 -17.0896855
  73.8480012  63.5804997 -18.5320012  73.9440012  64.2474997 -19.2130012
  73.7080012  62.7644997 -19.0140012  73.8422135  63.5614500 -18.6901509
  73.0170012  64.9604997 -12.9110012  72.8670012  64.0154997 -12.9320012
  72.6640012  65.2414997 -12.0680012  72.9486625  64.8690441 -12.7997654
  58.0530012  67.0384997  -8.9010012  58.2370012  66.9564997  -9.8370012
  58.9020012  66.9144997  -8.4770012  58.1930139  67.0105003  -8.9718545
  73.8740012  66.9304997  -3.2730012  74.4570012  66.1964997  -3.0810012
  74.4380012  67.7024997  -3.2260012  74.0299769  66.9344227  -3.2403841
  75.3700012  64.8334997  -2.5880012  74.5070012  64.4544997  -2.7540012
  75.9750012  64.0944997  -2.6620012  75.3335979  64.6818023  -2.6207183
  73.0950012  60.9884997 -19.4150012  73.7060012  60.6174997 -18.7780012
  72.2590012  60.5674997 -19.2190012  73.0655032  60.8807554 -19.3012965
  72.7280012  62.5434997 -14.4490012  73.0080012  61.6364997 -14.3250012
  73.4870012  62.9774997 -14.8380012  72.8689277  62.4780942 -14.4846318
  73.3400012  63.1244997  -9.0130012  74.2730012  63.3364997  -9.0470012
  73.1050012  63.2264997  -8.0910012  73.4358036  63.1672769  -8.8930024
  73.3690012  63.8614997  -6.2370012  72.5260012  64.1294997  -5.8710012
  73.8110012  64.6834997  -6.4480012  73.3134158  64.0093291  -6.2154509
  57.6500012  62.3094997  -2.7600012  58.5700012  62.1874997  -2.5240012
  57.2010012  61.5594997  -2.3710012  57.7151580  62.1913727  -2.6750994
  75.6520012  57.8414997  -0.8840012  76.0020012  57.1874997  -1.4890012
  75.7990012  58.6784997  -1.3230012  75.7198419  57.8651591  -1.0262882
  73.3410012  59.8064997 -14.4010012  73.5240012  59.3574997 -13.5750012
  72.7420012  59.2214997 -14.8640012  73.2850202  59.6659975 -14.3506725
  58.8710012  60.6214997  -9.8690012  59.3170012  59.8294997  -9.5670012
  59.3380012  61.3374997  -9.4380012  58.9950172  60.6100624  -9.7695180
  57.1750012  63.6204997  -8.8000012  57.6670012  63.3994997  -9.5910012
  57.5380012  64.4614997  -8.5190012  57.2913126  63.7038357  -8.8702469
  75.1720012  59.9504997  -2.5340012  74.2540012  60.2214997  -2.5700012
  75.2950012  59.4154997  -3.3190012  75.0631066  59.9152892  -2.6449513
  75.2080012  59.8734997 -17.8730012  75.6200012  59.1524997 -18.3480012
  75.8900012  60.5434997 -17.8140012  75.3565885  59.8652368 -17.9301085
  57.4890012  59.8784997 -14.7460012  56.5640012  60.0874997 -14.8750012
  57.9430012  60.3624997 -15.4350012  57.4237368  59.9725993 -14.8568774
  72.2600012  74.8624997 -12.8000012  72.9120012  74.5154997 -13.4080012
  72.7700012  75.3514997 -12.1540012  72.4182637  74.8810597 -12.7959764
  57.4530012  58.6164997  -6.4010012  56.7880012  58.3704997  -5.7580012
  57.0100012  59.2384997  -6.9790012  57.3020956  58.6668632  -6.3910648
  59.6450012  71.7914997  -2.2570012  58.8240012  71.9664997  -2.7170012
  59.3920012  71.7184997  -1.3360012  59.4986164  71.8055622  -2.1955077
  62.5990012  72.7664997  -5.9980012  62.1740012  73.5754997  -6.2810012
  63.5030012  72.8514997  -6.3000012  62.6630271  72.8888469  -6.0776224
  66.9100012  74.1654997  -3.0390012  67.0950012  73.8314997  -2.1610012
  67.7560012  74.4744997  -3.3610012  67.0497539  74.1616047  -2.9624395
  69.2550012  75.4514997  -3.7950012  69.9320012  74.8184997  -4.0350012
  69.5770012  75.8524997  -2.9880012  69.3911637  75.4191154  -3.7187207
  74.1720012  58.0404997  -4.7150012  73.3600012  58.3654997  -5.1030012
  74.4050012  57.2804997  -5.2480012  74.0923423  57.9822436  -4.8401747
  60.0010012  76.0224997  -5.9510012  59.2800012  76.4624997  -6.4020012
  59.6350012  75.7714997  -5.1020012  59.8529804  76.0487698  -5.8980160
  62.4680012  75.6224997  -6.9210012  61.6030012  75.6944997  -6.5170012
  62.4130012  76.1694997  -7.7050012  62.3422085  75.7062685  -6.9716638
  67.1780012  75.5104997  -7.7460012  66.7220012  76.0394997  -8.4000012
  67.3410012  76.1134997  -7.0200012  67.1375585  75.6644468  -7.7374938
  69.5060012  74.3884997  -6.8010012  68.6010012  74.5534997  -7.0660012
  69.9350012  75.2414997  -6.8660012  69.4400799  74.5264483  -6.8460818
  72.1100012  75.9584997  -6.5060012  71.9280012  76.8744997  -6.7160012
  72.2870012  75.5484997  -7.3520012  72.1090210  76.0284822  -6.6492115
  59.4150012  74.6454997  -9.0410012  59.3970012  74.2204997  -8.1830012
  60.2200012  74.3274997  -9.4490012  59.5213875  74.5443812  -8.9788345
  61.5570012  73.3554997 -10.3860012  61.3380012  72.4394997 -10.2160012
  62.3810012  73.4954997  -9.9200012  61.6384420  73.2490520 -10.2997226
  64.0940012  73.8254997  -9.5370012  64.3070012  72.9374997  -9.8240012
  64.1580012  73.7914997  -8.5830012  64.1318232  73.6993102  -9.4472603
  67.6020012  59.4894997 -10.3930012  66.9280012  58.8604997 -10.1370012
  68.1660012  59.0054997 -10.9960012  67.5859230  59.3378744 -10.4394660
  72.7450012  57.5974997 -10.2800012  73.3490012  58.1444997 -10.7820012
  71.8750012  57.9164997 -10.5200012  72.7101241  57.7155806 -10.3812346
  74.4720012  58.7354997 -11.9470012  75.0840012  58.2214997 -12.4730012
  74.8540012  59.6134997 -11.9230012  74.6074540  58.7837140 -12.0158170
  59.9290012  58.1234997 -12.5710012  59.1520012  57.8894997 -13.0780012
  60.4590012  57.3264997 -12.5620012  59.8942330  57.9836988 -12.6392258
  58.7650012  57.9214997 -16.7670012  59.2040012  58.5324997 -17.3590012
  58.1320012  58.4594997 -16.2930012  58.7394514  58.0779257 -16.7839070
  64.5080012  58.0504997 -12.7570012  65.3830012  58.4384997 -12.7870012
  64.3720012  57.8354997 -11.8350012  64.6093695  58.0745184 -12.6363560
  70.0650012  58.0804997 -11.1080012  70.1410012  58.1754997 -12.0580012
  69.7900012  57.1724997 -10.9790012  70.0382321  57.9707867 -11.2204921
  71.4180012  58.1064997 -15.4160012  70.7160012  58.7214997 -15.6250012
  70.9740012  57.2684997 -15.2850012  71.2616330  58.0775783 -15.4269672
  58.6660012  73.8694997 -15.8690012  57.9810012  73.8314997 -16.5370012
  58.6700012  74.7824997 -15.5810012  58.5728193  73.9877016 -15.9214716
  60.6260012  59.8374997 -18.3250012  61.1180012  59.2074997 -18.8520012
  61.2500012  60.1334997 -17.6610012  60.7775446  59.7913199 -18.3074020
  65.6520012  60.1304997 -15.8680012  65.8300012  59.4844997 -15.1850012
  65.5990012  60.9644997 -15.4000012  65.6691829  60.1547985 -15.7114060
  67.5310012  75.0794997 -17.4720012  68.3970012  75.4454997 -17.6500012
  67.2840012  74.6394997 -18.2860012  67.6162392  75.0701756 -17.6063711
  74.2400012  74.6424997 -14.7930012  74.0450012  73.8944997 -15.3580012
  74.2010012  75.4004997 -15.3760012  74.2080380  74.6426099 -14.9491616
  59.8870012  58.6374997  -3.0530012  59.5210012  57.8724997  -2.6100012
  60.8000012  58.6664997  -2.7660012  59.9602790  58.5367224  -2.9535930
  61.8600012  57.9884997  -1.5170012  62.7580012  57.7144997  -1.7020012
  61.4730012  57.2454997  -1.0530012  61.9306612  57.8505914  -1.4796357
  60.4840012  74.7894997 -18.8440012  60.2170012  75.0764997 -17.9710012
  61.2560012  74.2434997 -18.6920012  60.5517488  74.7550294 -18.7038950
  70.2810012  57.3204997  -1.3350012  70.3580012  56.8944997  -0.4810012
  71.1750012  57.3344997  -1.6780012  70.4123428  57.2640879  -1.2644690
  73.4570012  73.3934997  -2.6430012  72.6750012  73.2074997  -3.1620012
  73.3850012  74.3224997  -2.4250012  73.3401777  73.4936492  -2.6845952
  87.8630012  67.2794997 -12.6120012  87.9520012  68.2234997 -12.7440012
  87.2250012  67.0044997 -13.2700012  87.7889081  67.3714830 -12.7190386
  86.7960012  66.5344997  -9.1930012  86.7580012  65.8884997  -8.4880012
  86.4740012  66.0684997  -9.9640012  86.7472333  66.3829408  -9.2007022
  79.1650012  66.1494997  -7.6000012  79.2060012  65.5234997  -6.8770012
  79.8680012  66.7734997  -7.4180012  79.2656363  66.1481196  -7.4763956
  90.5020012  69.4734997 -10.8920012  90.0620012  68.7534997 -10.4410012
  90.4890012  70.1944997 -10.2620012  90.4400226  69.4723731 -10.7451506
  80.0880012  70.5994997  -9.0650012  79.7190012  69.7974997  -9.4350012
  81.0290012  70.4304997  -9.0190012  80.1647289  70.4670153  -9.1093684
  76.6980012  64.2594997 -13.6720012  76.2510012  65.1054997 -13.6910012
  76.1370012  63.6794997 -14.1880012  76.5609900  64.2969916 -13.7443199
  77.4090012  66.4214997 -11.5460012  77.6220012  65.6514997 -11.0190012
  78.1470012  66.5104997 -12.1500012  77.5378496  66.3281394 -11.5554700
  87.6140012  74.5784997 -10.6790012  88.2340012  73.9014997 -10.9530012
  87.4060012  74.3604997  -9.7710012  87.6706904  74.4563870 -10.5936635
  85.1860012  68.9674997  -8.7870012  85.4900012  68.2814997  -9.3820012
  85.9070012  69.0854997  -8.1690012  85.3250671  68.8896305  -8.7848184
  93.8490012  60.5684997  -7.9260012  93.8980012  61.1784997  -7.1900012
  94.2740012  61.0294997  -8.6490012  93.9131824  60.7143741  -7.9229795
  88.3270012  63.3614997  -8.4590012  88.4690012  62.4154997  -8.4390012
  88.2200012  63.5684997  -9.3880012  88.3319864  63.2599534  -8.5817661
  81.4810012  61.4624997 -11.1870012  81.5250012  62.3224997 -11.6050012
  81.0240012  60.9104997 -11.8210012  81.4252185  61.5055799 -11.3299701
  89.2040012  61.5934997 -12.7860012  89.8500012  61.2644997 -12.1610012
  89.7140012  62.1114997 -13.4090012  89.3614264  61.6184611 -12.7846138
  78.1020012  63.8594997 -10.4250012  78.7550012  63.3094997  -9.9930012
  78.1260012  63.5854997 -11.3420012  78.1946683  63.7471466 -10.4897877
  83.2580012  65.4094997 -11.2100012  83.8740012  64.8834997 -10.7000012
  82.6720012  64.7694997 -11.6130012  83.2630810  65.2509208 -11.1946827
  94.2400012  62.0464997  -5.6900012  93.5520012  62.7044997  -5.7860012
  94.2560012  61.8494997  -4.7540012  94.1478525  62.1100462  -5.5765192
  80.2920012  60.3804997  -7.1130012  80.0730012  60.9104997  -7.8790012
  79.6240012  60.6074997  -6.4660012  80.1717600  60.4836906  -7.1303621
  87.6610012  69.8804997 -13.5690012  87.3650012  69.5584997 -14.4200012
  87.3360012  70.7804997 -13.5280012  87.5766371  69.9580215 -13.6798199
  82.8610012  68.0564997  -6.8260012  82.1210012  68.6544997  -6.7220012
  83.5750012  68.6104997  -7.1410012  82.8562237  68.2132831  -6.8543535
  90.9680012  60.8844997 -10.8060012  90.7520012  60.1184997 -10.2730012
  91.6230012  61.3564997 -10.2930012  91.0270632  60.8435889 -10.6637139
  79.8850012  62.2724997  -9.1610012  80.4990012  62.9054997  -8.7870012
  80.3970012  61.8004997  -9.8170012  80.0382296  62.2952370  -9.1985748
  81.2680012  70.0204997  -6.0380012  81.2630012  70.9004997  -6.4160012
  80.4150012  69.9374997  -5.6130012  81.1519464  70.1296117  -6.0322093
  77.3890012  69.6914997 -15.2560012  77.1170012  69.9204997 -16.1450012
  77.4350012  70.5294997 -14.7960012  77.3580094  69.8361213 -15.3154303
  91.0140012  71.3134997  -8.5440012  90.0730012  71.3714997  -8.3820012
  91.2910012  72.2194997  -8.6810012  90.9224679  71.4439443  -8.5403185
  91.3150012  59.5994997  -7.1260012  90.5790012  60.2104997  -7.1640012
  91.9980012  60.0144997  -7.6530012  91.3066541  59.7391374  -7.2024168
  84.3180012  57.6864997  -9.6600012  84.2010012  56.7374997  -9.7150012
  83.4630012  58.0184997  -9.3870012  84.1863733  57.6015409  -9.6306103
  89.2660012  73.0944997 -11.9180012  89.6920012  72.3874997 -12.4030012
  89.5830012  73.8954997 -12.3350012  89.3671019  73.1060994 -12.0406870
  90.4260012  70.9954997 -13.4100012  90.1680012  70.3054997 -14.0210012
  90.4970012  70.5524997 -12.5640012  90.4002856  70.8412124 -13.3793115
  92.1120012  69.5614997  -4.9320012  92.2520012  68.9704997  -5.6720012
  92.2790012  70.4344997  -5.2890012  92.1536778  69.5986426  -5.0813035
  86.5850012  66.5234997 -15.1600012  85.8730012  67.0584997 -15.5120012
  87.2760012  66.5794997 -15.8200012  86.5810132  66.6042543 -15.2973711
  86.6380012  64.9814997 -18.1210012  87.3390012  65.0034997 -17.4700012
  86.9410012  64.3534997 -18.7770012  86.7747830  64.8996566 -18.1206289
  93.9540012  65.9014997  -6.8660012  93.3010012  66.5964997  -6.7770012
  94.4190012  66.1114997  -7.6760012  93.9275390  66.0249425  -6.9633117
  89.9900012  66.7334997 -14.2080012  89.2580012  66.9614997 -13.6350012
  90.4380012  66.0194997 -13.7530012  89.9503095  66.6682571 -14.0680881
  89.8880012  64.9074997  -5.1410012  89.9680012  65.6704997  -4.5690012
  89.2860012  65.1864997  -5.8310012  89.8175756  65.0497134  -5.1559411
  81.6360012  67.3634997 -12.3260012  81.3050012  66.9934997 -13.1440012
  82.2240012  66.6934997 -11.9790012  81.6701873  67.2221156 -12.3911898
  83.0020012  70.7914997  -9.6440012  82.9080012  70.2134997 -10.4010012
  83.7320012  70.4204997  -9.1480012  83.0877981  70.6622390  -9.6805835
  82.0020012  66.1324997  -8.6920012  82.5680012  66.2534997  -9.4550012
  82.3210012  66.7694997  -8.0530012  82.1225786  66.2351884  -8.7099960
  88.3110012  71.6354997  -7.9580012  88.0710012  72.2974997  -7.3100012
  88.1130012  70.8014997  -7.5330012  88.2513808  71.6133134  -7.8118476
  82.8820012  70.5314997  -3.9750012  82.5710012  71.3134997  -3.5200012
  82.2320012  70.3784997  -4.6610012  82.7515558  70.6179105  -4.0054129
  88.8610012  65.8954997 -16.5230012  89.4410012  66.0454997 -15.7760012
  89.2750012  66.3664997 -17.2460012  88.9962830  65.9796841 -16.5185866
  79.8020012  66.7294997  -4.7460012  79.8730012  67.3804997  -4.0480012
  78.9120012  66.8324997  -5.0810012  79.6913117  66.8325936  -4.6957300
  86.5880012  72.6324997 -13.0880012  87.0620012  72.9274997 -12.3100012
  86.0250012  73.3704997 -13.3210012  86.5767653  72.7726932 -13.0129864
  81.1220012  72.6034997  -3.2120012  81.1290012  72.4674997  -4.1590012
  80.2060012  72.4854997  -2.9600012  80.9991714  72.5689430  -3.3075334
  92.5600012  57.6454997 -16.7100012  91.6600012  57.7844997 -16.4150012
  92.8120012  58.4764997 -17.1120012  92.4708702  57.7769074 -16.7239795
  80.6260012  66.4334997 -14.7360012  80.3340012  67.2014997 -15.2270012
  79.9520012  65.7734997 -14.8990012  80.4949081  66.4494406 -14.8252660
  93.7490012  72.0114997 -18.3340012  93.8230012  72.9504997 -18.1630012
  94.6550012  71.7064997 -18.3900012  93.8815100  72.0986722 -18.3181881
  76.7190012  68.7964997  -5.9210012  76.2180012  68.7684997  -6.7360012
  76.7240012  67.8904997  -5.6120012  76.6511526  68.6702278  -5.9907128
  76.4690012  71.5764997  -9.0370012  77.4150012  71.4324997  -9.0560012
  76.3570012  72.3604997  -8.5000012  76.5832727  71.6628046  -8.9669928
  94.6670012  72.2424997  -3.3550012  94.6180012  71.2874997  -3.3920012
  93.8400012  72.5104997  -2.9540012  94.5484940  72.1478998  -3.3058625
  85.6460012  71.8164997  -4.4790012  85.7330012  72.6424997  -4.0040012
  84.7820012  71.4864997  -4.2300012  85.5411964  71.8849878  -4.3803451
  86.0600012  75.5884997 -14.6730012  85.9850012  75.4674997 -15.6190012
  86.0930012  76.5384997 -14.5540012  86.0541848  75.7002500 -14.7865166
  79.7130012  74.3774997 -12.8920012  79.8660012  74.0294997 -12.0130012
  78.8630012  74.0214997 -13.1470012  79.6188962  74.2816650 -12.8061660
  89.1620012  74.7424997 -17.6710012  89.5370012  73.9984997 -18.1410012
  89.1660012  74.4724997 -16.7520012  89.2138915  74.6041486 -17.6112176
  88.8310012  74.6684997 -14.9210012  87.8950012  74.7684997 -14.7430012
  89.1110012  73.9594997 -14.3430012  88.7408255  74.5862711 -14.8184609
  91.8190012  63.7354997  -2.8750012  91.4120012  64.2164997  -3.5960012
  91.8600012  62.8304997  -3.1830012  91.7688437  63.6789374  -3.0153317
  78.9680012  70.1194997  -4.8780012  79.1840012  69.7584997  -4.0190012
  78.1130012  69.7454997  -5.0880012  78.8819292  70.0194111  -4.7886614
  81.5870012  58.5894997  -8.8830012  80.7250012  58.5024997  -9.2900012
  81.5640012  59.4454997  -8.4550012  81.4660330  58.6932765  -8.8808137
  86.2500012  58.3114997  -5.5080012  86.6700012  57.8964997  -4.7550012
  85.3170012  58.1334997  -5.3910012  86.1813644  58.2305900  -5.3890461
  89.5760012  62.0674997  -4.6550012  89.0620012  61.9414997  -3.8570012
  89.4210012  62.9794997  -4.8990012  89.4846852  62.1736132  -4.5787842
  90.3390012  66.9284997 -18.8930012  90.3810012  66.7054997 -19.8230012
  91.1880012  67.3274997 -18.7030012  90.4595396  66.9519155 -18.9946373
  85.9110012  60.8044997 -18.2230012  85.6580012  60.8234997 -17.3000012
  85.6550012  59.9324997 -18.5240012  85.8417790  60.6892437 -18.1373737
  81.6780012  63.5554997  -7.7880012  81.0360012  63.5144997  -7.0790012
  81.7150012  64.4814997  -8.0250012  81.5951324  63.6751559  -7.7230176
  81.6750012  63.7764997 -12.8760012  80.7820012  63.4354997 -12.9340012
  82.1250012  63.3994997 -13.6310012  81.6137305  63.6788484 -12.9860823
  87.2100012  64.1924997 -14.0590012  86.8010012  65.0074997 -14.3500012
  87.9310012  64.0524997 -14.6730012  87.2514537  64.2852018 -14.1818658
  86.3120012  64.3674997  -2.5710012  85.7500012  63.6634997  -2.2500012
  87.1390012  64.2474997  -2.1030012  86.3467095  64.2547883  -2.4637670
  88.2150012  63.6384997 -11.2450012  88.0200012  64.2434997 -11.9600012
  88.3960012  62.8044997 -11.6790012  88.2127614  63.6086300 -11.4015595
  79.4280012  63.8754997  -5.9210012  79.3900012  64.2754997  -5.0520012
  78.9370012  63.0584997  -5.8300012  79.3564684  63.8198069  -5.7898941
  82.7940012  61.2494997 -19.1220012  82.3630012  60.8044997 -18.3920012
  82.0760012  61.6214997 -19.6340012  82.6379438  61.2388940 -19.0913201
  76.0360012  60.9914997 -12.0700012  76.6670012  60.9624997 -11.3510012
  76.4850012  60.5664997 -12.8000012  76.1830774  60.9300492 -12.0703447
  77.3100012  61.7374997 -16.6460012  77.7840012  62.3284997 -17.2310012
  76.5930012  62.2684997 -16.2990012  77.2779341  61.8900867 -16.6791164
  87.4790012  65.2764997  -6.5730012  87.8020012  64.6454997  -7.2160012
  87.0390012  64.7414997  -5.9130012  87.4636895  65.1178441  -6.5717150
  84.2560012  61.2034997 -11.7890012  83.3450012  61.2604997 -11.5010012
  84.7620012  61.1434997 -10.9790012  84.1995413  61.2031985 -11.6399378
  79.0850012  62.8324997 -12.9630012  78.1950012  62.9324997 -13.3030012
  79.3810012  61.9904997 -13.3090012  79.0032823  62.7323545 -13.0562787
  82.7380012  62.8324997 -15.3060012  83.6690012  62.9614997 -15.1280012
  82.5230012  63.5024997 -15.9560012  82.8364247  62.9406565 -15.3694253
  88.6610012  60.4384997  -8.5250012  87.9850012  60.5694997  -7.8610012
  88.1760012  60.2834997  -9.3350012  88.5027145  60.4354905  -8.5435483
  81.4120012  64.0274997 -17.7390012  80.8690012  63.6474997 -18.4310012
  82.2450012  64.2214997 -18.1680012  81.4504399  64.0018124 -17.8915474
  91.9490012  76.1104997  -2.2480012  92.1490012  76.5344997  -3.0830012
  92.6040012  76.4534997  -1.6410012  92.0650051  76.2149648  -2.2802164
  79.5470012  68.5844997  -2.6400012  80.2790012  68.8384997  -2.0790012
  78.7670012  68.7884997  -2.1250012  79.5418232  68.6469177  -2.4934240
  85.5760012  63.9914997  -9.9020012  86.1410012  63.4444997 -10.4490012
  85.4290012  63.4694997  -9.1140012  85.6332918  63.8462024  -9.8701546
  80.5780012  60.1274997 -13.4840012  80.2610012  59.2254997 -13.5190012
  81.3600012  60.1294997 -14.0370012  80.6402284  60.0041628 -13.5635217
  84.2030012  62.3794997  -7.4880012  83.3670012  62.8334997  -7.3780012
  84.7270012  62.6554997  -6.7360012  84.1594414  62.4789376  -7.3712864
  84.7470012  68.5924997 -15.8040012  84.0020012  68.0854997 -16.1260012
  84.6130012  68.6414997 -14.8570012  84.6268776  68.5296940 -15.7201353
  91.8970012  67.7254997  -7.0170012  92.5390012  68.1824997  -7.5610012
  91.0670012  67.8384997  -7.4800012  91.8725963  67.8032704  -7.1539823
  88.6450012  61.4064997 -17.6040012  87.7060012  61.5184997 -17.7560012
  88.9420012  62.2634997 -17.2980012  88.5567666  61.5376443 -17.5834232
  86.2660012  68.7764997  -4.5670012  85.9210012  68.3954997  -3.7600012
  86.0660012  69.7104997  -4.4950012  86.1918061  68.8505228  -4.4469039
  89.3630012  63.2734997 -15.9440012  90.2550012  63.1364997 -15.6250012
  89.4200012  64.0644997 -16.4800012  89.4926285  63.3616660 -15.9728309
  79.8720012  67.8874997 -10.0340012  80.6170012  67.8854997 -10.6350012
  79.9500012  67.0644997  -9.5520012  79.9845518  67.7759315 -10.0511071
  86.8730012  70.0514997 -16.7780012  86.5770012  70.8774997 -16.3970012
  86.1700012  69.4314997 -16.5820012  86.7374914  70.0808199 -16.6993557
  76.8800012  66.3484997  -4.7190012  77.1030012  65.9304997  -3.8870012
  76.2780012  65.7354997  -5.1420012  76.8291759  66.2084668  -4.6622978
  83.8960012  65.8654997  -2.5060012  83.6000012  65.6994997  -3.4010012
  84.8280012  65.6454997  -2.5170012  83.9814166  65.8130640  -2.6299464
  88.5170012  71.2384997  -4.6160012  87.6160012  71.4214997  -4.8840012
  88.5510012  71.4974997  -3.6950012  88.3983041  71.2985512  -4.5281803
  94.2480012  63.4834997 -16.2490012  93.6940012  63.0874997 -16.9210012
  94.3480012  64.3934997 -16.5270012  94.1857059  63.5523586 -16.3785599
  94.2110012  69.2834997  -3.4120012  93.3600012  69.5214997  -3.7790012
  94.8020012  69.2664997  -4.1650012  94.1742487  69.3138258  -3.5641107
  92.5430012  72.2694997 -15.7840012  92.1700012  71.4434997 -15.4750012
  92.8210012  72.0864997 -16.6810012  92.5295630  72.1317303 -15.8630374
  89.7040012  67.0774997  -8.7630012  88.7750012  66.8454997  -8.7900012
  90.1550012  66.3004997  -9.0930012  89.6379216  66.9407238  -8.8113083
  82.2470012  71.4054997 -12.6300012  82.7740012  72.1784997 -12.8300012
  81.3670012  71.6304997 -12.9310012  82.2001773  71.5418005 -12.6980990
  78.0020012  66.2674997 -18.0430012  78.6180012  66.8944997 -17.6630012
  77.1400012  66.5834997 -17.7710012  77.9697698  66.3959430 -17.9542817
  83.6740012  69.0684997 -13.0530012  83.4330012  69.9934997 -13.0120012
  82.9330012  68.6094997 -12.6570012  83.5408409  69.1331421 -12.9938623
  84.1890012  73.2174997  -6.7380012  84.5510012  74.0724997  -6.9720012
  84.7200012  72.9254997  -5.9980012  84.3104473  73.2951060  -6.6699145
  82.3570012  74.0904997 -13.5080012  81.4070012  74.1954997 -13.4570012
  82.7090012  74.9104997 -13.1630012  82.2744203  74.2158314 -13.4543350
  87.7330012  69.3164997  -7.0380012  87.3070012  69.0894997  -6.2110012
  88.3130012  68.5784997  -7.2200012  87.7531868  69.1855299  -6.9494170
  89.9360012  70.2454997 -17.9640012  90.2890012  69.8654997 -17.1590012
  88.9870012  70.1524997 -17.8770012  89.8560441  70.1809596 -17.8421441
  90.3910012  73.8684997  -4.5680012  89.7900012  73.3134997  -5.0640012
  90.6730012  74.5354997  -5.1940012  90.3468519  73.8826841  -4.7205048
  94.4390012  74.7254997 -17.7630012  95.1830012  75.3114997 -17.9030012
  93.7450012  75.2934997 -17.4290012  94.4470292  74.8825582 -17.7370039
  78.5140012  61.1014997  -5.1610012  77.6210012  61.4404997  -5.2290012
  78.4150012  60.2464997  -4.7430012  78.3784164  61.0322588  -5.1137765
  90.8020012  68.9184997 -15.7370012  90.5240012  68.1904997 -15.1810012
  91.7290012  69.0374997 -15.5320012  90.8893124  68.8348802 -15.6331155
  78.1650012  72.9064997  -6.7260012  78.3820012  71.9744997  -6.7570012
  78.4110012  73.1804997  -5.8430012  78.2279549  72.8160636  -6.6108237
  84.0270012  71.3574997 -19.5170012  84.2660012  70.6094997 -20.0640012
  83.7580012  70.9694997 -18.6840012  84.0233675  71.2026638 -19.4793135
  82.9640012  70.9274997 -17.0600012  83.1100012  70.4074997 -16.2700012
  82.9610012  71.8344997 -16.7540012  82.9835989  70.9788853 -16.9103912
  79.4170012  68.1804997 -16.5500012  78.7310012  68.5324997 -15.9830012
  79.9390012  68.9434997 -16.7970012  79.3936852  68.3318578 -16.5057882
  87.2480012  60.8424997  -6.2710012  87.9470012  60.9164997  -5.6210012
  86.8670012  59.9784997  -6.1170012  87.2921767  60.7357624  -6.1611678
  88.0330012  60.4944997 -15.1740012  88.2530012  60.9664997 -15.9770012
  88.5910012  60.8894997 -14.5040012  88.1384968  60.6124285 -15.1932669
  85.7010012  72.6254997 -16.3110012  84.8850012  73.1224997 -16.2590012
  86.2310012  73.1004997 -16.9510012  85.6609161  72.7577722 -16.3904044
  85.2330012  62.2224997 -14.3390012  86.0450012  62.7274997 -14.2930012
  84.9880012  62.0774997 -13.4250012  85.3110520  62.2720375 -14.2091483
  85.7680012  63.2084997  -5.1540012  85.8870012  63.7824997  -4.3970012
  86.4240012  62.5204997  -5.0400012  85.8729757  63.1941079  -5.0349175
  86.1160012  59.3034997 -13.4010012  85.7700012  59.9214997 -12.7560012
  86.7750012  59.8044997 -13.8820012  86.1577826  59.4555802 -13.3779029
  83.0400012  73.6694997 -16.3290012  83.2000012  74.4684997 -16.8300012
  82.8420012  73.9754997 -15.4440012  83.0351649  73.8204469 -16.2780185
  81.7740012  60.3664997 -16.7140012  81.6910012  61.2554997 -16.3670012
  82.6640012  60.1014997 -16.4820012  81.8829469  60.4521430 -16.6352374
  91.9730012  61.1154997  -4.3190012  91.0560012  61.3784997  -4.4070012
  92.3080012  61.1124997  -5.2160012  91.8929900  61.1510224  -4.4522081
  90.5750012  64.8664997 -10.2240012  89.7770012  64.4514997 -10.5520012
  91.0200012  64.1754997  -9.7330012  90.5259885  64.7163543 -10.2025111
  80.0330012  70.7944997 -17.6530012  80.6250012  71.4934997 -17.3770012
  80.4920012  70.3614997 -18.3730012  80.1761142  70.8317049 -17.7125170
  78.3490012  63.4584997 -18.5370012  78.3040012  64.3974997 -18.3590012
  77.4610012  63.2224997 -18.8070012  78.2228574  63.5551892 -18.5491088
  91.6610012  74.1224997  -8.6010012  91.5060012  74.8004997  -9.2580012
  92.5940012  74.1944997  -8.3980012  91.7658500  74.2250170  -8.6634881
  79.1570012  58.2404997  -9.8640012  78.9280012  58.2994997 -10.7920012
  78.7140012  57.4484997  -9.5580012  79.0658530  58.1415753  -9.9495214
  78.0870012  72.1804997 -13.7040012  77.2550012  72.6534997 -13.6760012
  78.6330012  72.6904997 -14.3020012  78.0469739  72.3141871 -13.7810284
  77.3750012  74.7934997  -2.3740012  77.9160012  74.5764997  -1.6140012
  76.8940012  73.9874997  -2.5630012  77.3839345  74.6549514  -2.2956924
  81.9730012  73.7124997  -0.7530012  82.7400012  73.2534997  -0.4120012
  81.9510012  73.4864997  -1.6830012  82.0751434  73.6190409  -0.8319957
  86.0650012  73.2204997 -19.3780012  85.4210012  72.5894997 -19.0570012
  86.8270012  72.6894997 -19.6100012  86.0798077  73.0622920 -19.3653989
  88.5500012  72.0924997  -2.0240012  88.1990012  71.2364997  -1.7810012
  89.2760012  72.2354997  -1.4170012  88.6000769  71.9945636  -1.9086381
  90.6690012  73.0374997 -19.1440012  90.9520012  72.2434997 -18.6920012
  91.4090012  73.2704997 -19.7050012  90.8077486  72.9602803 -19.1579302
  77.2820012  68.6034997  -1.4190012  77.4260012  67.7014997  -1.7060012
  76.5100012  68.8894997  -1.9070012  77.1973322  68.5188261  -1.5242119
  81.6240012  68.9474997 -19.2870012  81.6880012  68.1534997 -18.7560012
  82.2770012  68.8284997 -19.9770012  81.7210241  68.8227148 -19.3075683
  83.9380012  68.5734997  -1.9870012  83.6090012  68.8444997  -2.8440012
  84.0900012  67.6324997  -2.0740012  83.9134809  68.4833862  -2.1161756
  89.6720012  68.4894997  -4.6030012  90.4180012  69.0774997  -4.7230012
  88.9150012  69.0714997  -4.5400012  89.6717554  68.6487011  -4.6109093
  78.1150012  65.8034997  -1.9990012  78.5230012  64.9464997  -2.1200012
  77.8550012  65.8184997  -1.0780012  78.1357568  65.6880807  -1.8910412
  82.7730012  66.9194997 -16.9810012  82.3130012  66.4354997 -16.2950012
  83.0280012  66.2514997 -17.6170012  82.7444902  66.7628731 -16.9730666
  82.0620012  64.8124997  -4.6250012  81.4440012  65.4874997  -4.3450012
  82.4060012  65.1334997  -5.4580012  82.0239615  64.9482721  -4.6993419
  83.8440012  65.1624997 -18.7190012  83.6640012  65.0084997 -19.6460012
  84.7940012  65.2704997 -18.6740012  83.9477776  65.1560175 -18.8398157
  87.0820012  67.2844997  -1.3480012  88.0350012  67.3674997  -1.3750012
  86.9210012  66.5724997  -0.7280012  87.1906426  67.1996746  -1.2679421
  93.2340012  67.5174997 -19.2730012  92.9600012  67.0924997 -20.0860012
  93.2730012  68.4484997 -19.4900012  93.2017699  67.5852484 -19.4136390
  82.4010012  62.1674997  -3.5430012  82.5510012  61.4384997  -4.1450012
  82.4040012  62.9444997  -4.1020012  82.4219302  62.1727851  -3.7009308
  82.8140012  60.5374997  -6.0500012  83.3500012  60.9884997  -6.7020012
  81.9620012  60.4294997  -6.4730012  82.7722178  60.5846390  -6.1964244
  84.3960012  65.9764997  -5.8110012  85.1460012  65.8204997  -6.3840012
  84.0570012  66.8284997  -6.0860012  84.4528921  66.0702968  -5.9266439
  88.8110012  63.7914997  -0.7820012  89.0040012  62.8604997  -0.8940012
  89.6690012  64.2164997  -0.7920012  88.9533020  63.7216389  -0.7986639
  90.1280012  66.5804997  -2.7050012  89.8470012  67.2894997  -3.2820012
  91.0710012  66.5074997  -2.8560012  90.2169027  66.6677646  -2.8044449
  80.8800012  63.3654997  -1.6310012  80.1130012  62.8334997  -1.8410012
  81.5590012  63.0554997  -2.2310012  80.8667022  63.2507506  -1.7408352
  83.6200012  57.9934997  -5.6190012  83.5210012  58.9404997  -5.7240012
  82.8770012  57.6214997  -6.0940012  83.5060564  58.0725902  -5.6975440
  84.8840012  62.3154997  -2.0550012  84.6480012  62.0954997  -1.1530012
  84.1000012  62.1084997  -2.5650012  84.7458628  62.2574760  -2.0006068
  87.5990012  61.4424997  -2.9790012  86.6520012  61.4744997  -2.8470012
  87.9120012  60.8174997  -2.3260012  87.5115475  61.3623207  -2.8725545
  89.2330012  60.0764997  -0.9740012  89.1370012  59.1244997  -0.9800012
  88.9120012  60.3454997  -0.1140012  89.1764070  59.9824035  -0.8584559
  79.0600012  61.2864997  -1.9270012  79.2720012  60.5794997  -2.5370012
  78.9490012  60.8484997  -1.0830012  79.0739721  61.1307084  -1.8963157
  83.8410012  57.2874997  -2.9470012  84.5530012  56.6474997  -2.9610012
  83.7400012  57.5544997  -3.8610012  83.9247939  57.2359938  -3.0724350
  84.1950012  58.9704997  -0.8940012  84.0630012  58.4944997  -1.7140012
  83.5960012  59.7144997  -0.9490012  84.0959071  59.0059618  -1.0137114
  83.7410012  75.8534997 -17.7170012  84.6740012  76.0114997 -17.5740012
  83.4770012  76.5284997 -18.3420012  83.8329510  75.9663611 -17.7819259
  77.3100012  70.4894997 -18.2350012  78.2240012  70.5684997 -17.9610012
  77.3170012  69.8024997 -18.9010012  77.4361131  70.4073961 -18.2875607
  75.9590012  75.8824997 -13.1570012  75.3120012  75.4204997 -13.6900012
  76.3130012  75.2104997 -12.5750012  75.9183849  75.7284723 -13.1512041
  76.8290012  73.9634997 -11.3530012  76.4940012  73.0834997 -11.1810012
  77.0510012  74.3084997 -10.4880012  76.8131783  73.8897500 -11.2125792
  94.3770012  74.7724997  -8.3720012  94.3560012  74.9574997  -7.4330012
  95.0680012  75.3414997  -8.7130012  94.4674618  74.8746606  -8.2896136
  93.9410012  74.3404997  -5.4500012  93.4530012  73.6044997  -5.8210012
  94.4900012  73.9464997  -4.7720012  93.9484872  74.1866249  -5.4090840
  92.3910012  70.1294997  -0.8120012  91.5250012  70.0244997  -0.4180012
  92.7680012  70.8884997  -0.3660012  92.3233308  70.2176900  -0.6977607
  93.6920012  68.3864997 -15.2980012  94.5420012  68.8074997 -15.1710012
  93.6980012  67.6464997 -14.6910012  93.8091372  68.3440803 -15.1985656
  94.0870012  66.4394997 -13.4740012  93.3600012  65.9604997 -13.0770012
  94.6680012  66.6454997 -12.7420012  94.0659375  66.4017090 -13.3205871
  93.8460012  69.2244997  -8.5270012  94.6790012  68.8464997  -8.8070012
  93.9580012  70.1674997  -8.6460012  93.9752647  69.3002218  -8.5814513
  92.3320012  72.1024997  -6.2200012  91.6850012  72.4274997  -5.5940012
  91.8150012  71.6624997  -6.8940012  92.1734029  72.0875004  -6.2254173
  94.3550012  66.3404997 -17.0830012  93.8330012  66.6974997 -17.8020012
  94.3220012  67.0154997 -16.4050012  94.2791634  66.4805413 -17.0896855
  92.7040012  63.5804997 -18.5320012  92.8000012  64.2474997 -19.2130012
  92.5640012  62.7644997 -19.0140012  92.6982135  63.5614500 -18.6901509
  91.8730012  64.9604997 -12.9110012  91.7230012  64.0154997 -12.9320012
  91.5200012  65.2414997 -12.0680012  91.8046625  64.8690441 -12.7997654
  76.9090012  67.0384997  -8.9010012  77.0930012  66.9564997  -9.8370012
  77.7580012  66.9144997  -8.4770012  77.0490139  67.0105003  -8.9718545
  92.7300012  66.9304997  -3.2730012  93.3130012  66.1964997  -3.0810012
  93.2940012  67.7024997  -3.2260012  92.8859769  66.9344227  -3.2403841
  94.2260012  64.8334997  -2.5880012  93.3630012  64.4544997  -2.7540012
  94.8310012  64.0944997  -2.6620012  94.1895979  64.6818023  -2.6207183
  91.9510012  60.9884997 -19.4150012  92.5620012  60.6174997 -18.7780012
  91.1150012  60.5674997 -19.2190012  91.9215032  60.8807554 -19.3012965
  91.5840012  62.5434997 -14.4490012  91.8640012  61.6364997 -14.3250012
  92.3430012  62.9774997 -14.8380012  91.7249277  62.4780942 -14.4846318
  92.1960012  63.1244997  -9.0130012  93.1290012  63.3364997  -9.0470012
  91.9610012  63.2264997  -8.0910012  92.2918036  63.1672769  -8.8930024
  92.2250012  63.8614997  -6.2370012  91.3820012  64.1294997  -5.8710012
  92.6670012  64.6834997  -6.4480012  92.1694158  64.0093291  -6.2154509
  76.5060012  62.3094997  -2.7600012  77.4260012  62.1874997  -2.5240012
  76.0570012  61.5594997  -2.3710012  76.5711580  62.1913727  -2.6750994
  94.5080012  57.8414997  -0.8840012  94.8580012  57.1874997  -1.4890012
  94.6550012  58.6784997  -1.3230012  94.5758419  57.8651591  -1.0262882
  92.1970012  59.8064997 -14.4010012  92.3800012  59.3574997 -13.5750012
  91.5980012  59.2214997 -14.8640012  92.1410202  59.6659975 -14.3506725
  77.7270012  60.6214997  -9.8690012  78.1730012  59.8294997  -9.5670012
  78.1940012  61.3374997  -9.4380012  77.8510172  60.6100624  -9.7695180
  76.0310012  63.6204997  -8.8000012  76.5230012  63.3994997  -9.5910012
  76.3940012  64.4614997  -8.5190012  76.1473126  63.7038357  -8.8702469
  94.0280012  59.9504997  -2.5340012  93.1100012  60.2214997  -2.5700012
  94.1510012  59.4154997  -3.3190012  93.9191066  59.9152892  -2.6449513
  94.0640012  59.8734997 -17.8730012  94.4760012  59.1524997 -18.3480012
  94.7460012  60.5434997 -17.8140012  94.2125885  59.8652368 -17.9301085
  76.3450012  59.8784997 -14.7460012  75.4200012  60.0874997 -14.8750012
  76.7990012  60.3624997 -15.4350012  76.2797368  59.9725994 -14.8568774
  91.1160012  74.8624997 -12.8000012  91.7680012  74.5154997 -13.4080012
  91.6260012  75.3514997 -12.1540012  91.2742637  74.8810597 -12.7959764
  76.3090012  58.6164997  -6.4010012  75.6440012  58.3704997  -5.7580012
  75.8660012  59.2384997  -6.9790012  76.1580956  58.6668632  -6.3910648
  78.5010012  71.7914997  -2.2570012  77.6800012  71.9664997  -2.7170012
  78.2480012  71.7184997  -1.3360012  78.3546164  71.8055622  -2.1955077
  81.4550012  72.7664997  -5.9980012  81.0300012  73.5754997  -6.2810012
  82.3590012  72.8514997  -6.3000012  81.5190271  72.8888469  -6.0776224
  85.7660012  74.1654997  -3.0390012  85.9510012  73.8314997  -2.1610012
  86.6120012  74.4744997  -3.3610012  85.9057539  74.1616047  -2.9624395
  88.1110012  75.4514997  -3.7950012  88.7880012  74.8184997  -4.0350012
  88.4330012  75.8524997  -2.9880012  88.2471637  75.4191154  -3.7187207
  93.0280012  58.0404997  -4.7150012  92.2160012  58.3654997  -5.1030012
  93.2610012  57.2804997  -5.2480012  92.9483423  57.9822436  -4.8401747
  78.8570012  76.0224997  -5.9510012  78.1360012  76.4624997  -6.4020012
  78.4910012  75.7714997  -5.1020012  78.7089804  76.0487698  -5.8980160
  81.3240012  75.6224997  -6.9210012  80.4590012  75.6944997  -6.5170012
  81.2690012  76.1694997  -7.7050012  81.1982085  75.7062685  -6.9716638
  86.0340012  75.5104997  -7.7460012  85.5780012  76.0394997  -8.4000012
  86.1970012  76.1134997  -7.0200012  85.9935585  75.6644468  -7.7374938
  88.3620012  74.3884997  -6.8010012  87.4570012  74.5534997  -7.0660012
  88.7910012  75.2414997  -6.8660012  88.2960799  74.5264483  -6.8460818
  90.9660012  75.9584997  -6.5060012  90.7840012  76.8744997  -6.7160012
  91.1430012  75.5484997  -7.3520012  90.9650210  76.0284822  -6.6492115
  78.2710012  74.6454997  -9.0410012  78.2530012  74.2204997  -8.1830012
  79.0760012  74.3274997  -9.4490012  78.3773875  74.5443812  -8.9788345
  80.4130012  73.3554997 -10.3860012  80.1940012  72.4394997 -10.2160012
  81.2370012  73.4954997  -9.9200012  80.4944420  73.2490520 -10.2997226
  82.9500012  73.8254997  -9.5370012  83.1630012  72.9374997  -9.8240012
  83.0140012  73.7914997  -8.5830012  82.9878232  73.6993102  -9.4472603
  86.4580012  59.4894997 -10.3930012  85.7840012  58.8604997 -10.1370012
  87.0220012  59.0054997 -10.9960012  86.4419230  59.3378744 -10.4394660
  91.6010012  57.5974997 -10.2800012  92.2050012  58.1444997 -10.7820012
  90.7310012  57.9164997 -10.5200012  91.5661241  57.7155806 -10.3812346
  93.3280012  58.7354997 -11.9470012  93.9400012  58.2214997 -12.4730012
  93.7100012  59.6134997 -11.9230012  93.4634540  58.7837140 -12.0158170
  78.7850012  58.1234997 -12.5710012  78.0080012  57.8894997 -13.0780012
  79.3150012  57.3264997 -12.5620012  78.7502330  57.9836988 -12.6392258
  77.6210012  57.9214997 -16.7670012  78.0600012  58.5324997 -17.3590012
  76.9880012  58.4594997 -16.2930012  77.5954514  58.0779257 -16.7839070
  83.3640012  58.0504997 -12.7570012  84.2390012  58.4384997 -12.7870012
  83.2280012  57.8354997 -11.8350012  83.4653695  58.0745184 -12.6363560
  88.9210012  58.0804997 -11.1080012  88.9970012  58.1754997 -12.0580012
  88.6460012  57.1724997 -10.9790012  88.8942321  57.9707867 -11.2204921
  90.2740012  58.1064997 -15.4160012  89.5720012  58.7214997 -15.6250012
  89.8300012  57.2684997 -15.2850012  90.1176330  58.0775783 -15.4269672
  77.5220012  73.8694997 -15.8690012  76.8370012  73.8314997 -16.5370012
  77.5260012  74.7824997 -15.5810012  77.4288193  73.9877016 -15.9214716
  79.4820012  59.8374997 -18.3250012  79.9740012  59.2074997 -18.8520012
  80.1060012  60.1334997 -17.6610012  79.6335446  59.7913199 -18.3074020
  84.5080012  60.1304997 -15.8680012  84.6860012  59.4844997 -15.1850012
  84.4550012  60.9644997 -15.4000012  84.5251829  60.1547985 -15.7114060
  86.3870012  75.0794997 -17.4720012  87.2530012  75.4454997 -17.6500012
  86.1400012  74.6394997 -18.2860012  86.4722392  75.0701756 -17.6063711
  93.0960012  74.6424997 -14.7930012  92.9010012  73.8944997 -15.3580012
  93.0570012  75.4004997 -15.3760012  93.0640380  74.6426099 -14.9491616
  78.7430012  58.6374997  -3.0530012  78.3770012  57.8724997  -2.6100012
  79.6560012  58.6664997  -2.7660012  78.8162790  58.5367224  -2.9535930
  80.7160012  57.9884997  -1.5170012  81.6140012  57.7144997  -1.7020012
  80.3290012  57.2454997  -1.0530012  80.7866612  57.8505914  -1.4796357
  79.3400012  74.7894997 -18.8440012  79.0730012  75.0764997 -17.9710012
  80.1120012  74.2434997 -18.6920012  79.4077488  74.7550294 -18.7038950
  89.1370012  57.3204997  -1.3350012  89.2140012  56.8944997  -0.4810012
  90.0310012  57.3344997  -1.6780012  89.2683428  57.2640879  -1.2644690
  92.3130012  73.3934997  -2.6430012  91.5310012  73.2074997  -3.1620012
  92.2410012  74.3224997  -2.4250012  92.1961777  73.4936492  -2.6845952
 106.7190012  67.2794997 -12.6120012 106.8080012  68.2234997 -12.7440012
 106.0810012  67.0044997 -13.2700012 106.6449081  67.3714830 -12.7190386
 105.6520012  66.5344997  -9.1930012 105.6140012  65.8884997  -8.4880012
 105.3300012  66.0684997  -9.9640012 105.6032333  66.3829408  -9.2007022
  98.0210012  66.1494997  -7.6000012  98.0620012  65.5234997  -6.8770012
  98.7240012  66.7734997  -7.4180012  98.1216363  66.1481196  -7.4763956
 109.3580012  69.4734997 -10.8920012 108.9180012  68.7534997 -10.4410012
 109.3450012  70.1944997 -10.2620012 109.2960226  69.4723731 -10.7451506
  98.9440012  70.5994997  -9.0650012  98.5750012  69.7974997  -9.4350012
  99.8850012  70.4304997  -9.0190012  99.0207289  70.4670153  -9.1093684
  95.5540012  64.2594997 -13.6720012  95.1070012  65.1054997 -13.6910012
  94.9930012  63.6794997 -14.1880012  95.4169900  64.2969916 -13.7443199
  96.2650012  66.4214997 -11.5460012  96.4780012  65.6514997 -11.0190012
  97.0030012  66.5104997 -12.1500012  96.3938496  66.3281394 -11.5554700
 106.4700012  74.5784997 -10.6790012 107.0900012  73.9014997 -10.9530012
 106.2620012  74.3604997  -9.7710012 106.5266904  74.4563870 -10.5936635
 104.0420012  68.9674997  -8.7870012 104.3460012  68.2814997  -9.3820012
 104.7630012  69.0854997  -8.1690012 104.1810671  68.8896305  -8.7848184
 112.7050012  60.5684997  -7.9260012 112.7540012  61.1784997  -7.1900012
 113.1300012  61.0294997  -8.6490012 112.7691824  60.7143741  -7.9229795
 107.1830012  63.3614997  -8.4590012 107.3250012  62.4154997  -8.4390012
 107.0760012  63.5684997  -9.3880012 107.1879864  63.2599534  -8.5817661
 100.3370012  61.4624997 -11.1870012 100.3810012  62.3224997 -11.6050012
  99.8800012  60.9104997 -11.8210012 100.2812185  61.5055799 -11.3299701
 108.0600012  61.5934997 -12.7860012 108.7060012  61.2644997 -12.1610012
 108.5700012  62.1114997 -13.4090012 108.2174264  61.6184611 -12.7846138
  96.9580012  63.8594997 -10.4250012  97.6110012  63.3094997  -9.9930012
  96.9820012  63.5854997 -11.3420012  97.0506683  63.7471466 -10.4897877
 102.1140012  65.4094997 -11.2100012 102.7300012  64.8834997 -10.7000012
 101.5280012  64.7694997 -11.6130012 102.1190810  65.2509208 -11.1946827
 113.0960012  62.0464997  -5.6900012 112.4080012  62.7044997  -5.7860012
 113.1120012  61.8494997  -4.7540012 113.0038525  62.1100462  -5.5765192
  99.1480012  60.3804997  -7.1130012  98.9290012  60.9104997  -7.8790012
  98.4800012  60.6074997  -6.4660012  99.0277600  60.4836906  -7.1303621
 106.5170012  69.8804997 -13.5690012 106.2210012  69.5584997 -14.4200012
 106.1920012  70.7804997 -13.5280012 106.4326371  69.9580215 -13.6798199
 101.7170012  68.0564997  -6.8260012 100.9770012  68.6544997  -6.7220012
 102.4310012  68.6104997  -7.1410012 101.7122237  68.2132831  -6.8543535
 109.8240012  60.8844997 -10.8060012 109.6080012  60.1184997 -10.2730012
 110.4790012  61.3564997 -10.2930012 109.8830632  60.8435889 -10.6637139
  98.7410012  62.2724997  -9.1610012  99.3550012  62.9054997  -8.7870012
  99.2530012  61.8004997  -9.8170012  98.8942296  62.2952370  -9.1985748
 100.1240012  70.0204997  -6.0380012 100.1190012  70.9004997  -6.4160012
  99.2710012  69.9374997  -5.6130012 100.0079464  70.1296117  -6.0322093
  96.2450012  69.6914997 -15.2560012  95.9730012  69.9204997 -16.1450012
  96.2910012  70.5294997 -14.7960012  96.2140094  69.8361213 -15.3154303
 109.8700012  71.3134997  -8.5440012 108.9290012  71.3714997  -8.3820012
 110.1470012  72.2194997  -8.6810012 109.7784679  71.4439443  -8.5403185
 110.1710012  59.5994997  -7.1260012 109.4350012  60.2104997  -7.1640012
 110.8540012  60.0144997  -7.6530012 110.1626541  59.7391374  -7.2024168
 103.1740012  57.6864997  -9.6600012 103.0570012  56.7374997  -9.7150012
 102.3190012  58.0184997  -9.3870012 103.0423733  57.6015409  -9.6306103
 108.1220012  73.0944997 -11.9180012 108.5480012  72.3874997 -12.4030012
 108.4390012  73.8954997 -12.3350012 108.2231019  73.1060994 -12.0406870
 109.2820012  70.9954997 -13.4100012 109.0240012  70.3054997 -14.0210012
 109.3530012  70.5524997 -12.5640012 109.2562856  70.8412124 -13.3793115
 110.9680012  69.5614997  -4.9320012 111.1080012  68.9704997  -5.6720012
 111.1350012  70.4344997  -5.2890012 111.0096778  69.5986426  -5.0813035
 105.4410012  66.5234997 -15.1600012 104.7290012  67.0584997 -15.5120012
 106.1320012  66.5794997 -15.8200012 105.4370132  66.6042543 -15.2973711
 105.4940012  64.9814997 -18.1210012 106.1950012  65.0034997 -17.4700012
 105.7970012  64.3534997 -18.7770012 105.6307830  64.8996566 -18.1206289
 112.8100012  65.9014997  -6.8660012 112.1570012  66.5964997  -6.7770012
 113.2750012  66.1114997  -7.6760012 112.7835390  66.0249425  -6.9633117
 108.8460012  66.7334997 -14.2080012 108.1140012  66.9614997 -13.6350012
 109.2940012  66.0194997 -13.7530012 108.8063095  66.6682571 -14.0680881
 108.7440012  64.9074997  -5.1410012 108.8240012  65.6704997  -4.5690012
 108.1420012  65.1864997  -5.8310012 108.6735756  65.0497134  -5.1559411
 100.4920012  67.3634997 -12.3260012 100.1610012  66.9934997 -13.1440012
 101.0800012  66.6934997 -11.9790012 100.5261873  67.2221156 -12.3911898
 101.8580012  70.7914997  -9.6440012 101.7640012  70.2134997 -10.4010012
 102.5880012  70.4204997  -9.1480012 101.9437981  70.6622390  -9.6805835
 100.8580012  66.1324997  -8.6920012 101.4240012  66.2534997  -9.4550012
 101.1770012  66.7694997  -8.0530012 100.9785786  66.2351884  -8.7099960
 107.1670012  71.6354997  -7.9580012 106.9270012  72.2974997  -7.3100012
 106.9690012  70.8014997  -7.5330012 107.1073808  71.6133134  -7.8118476
 101.7380012  70.5314997  -3.9750012 101.4270012  71.3134997  -3.5200012
 101.0880012  70.3784997  -4.6610012 101.6075558  70.6179105  -4.0054129
 107.7170012  65.8954997 -16.5230012 108.2970012  66.0454997 -15.7760012
 108.1310012  66.3664997 -17.2460012 107.8522830  65.9796841 -16.5185866
  98.6580012  66.7294997  -4.7460012  98.7290012  67.3804997  -4.0480012
  97.7680012  66.8324997  -5.0810012  98.5473117  66.8325936  -4.6957300
 105.4440012  72.6324997 -13.0880012 105.9180012  72.9274997 -12.3100012
 104.8810012  73.3704997 -13.3210012 105.4327653  72.7726932 -13.0129864
  99.9780012  72.6034997  -3.2120012  99.9850012  72.4674997  -4.1590012
  99.0620012  72.4854997  -2.9600012  99.8551714  72.5689430  -3.3075334
 111.4160012  57.6454997 -16.7100012 110.5160012  57.7844997 -16.4150012
 111.6680012  58.4764997 -17.1120012 111.3268702  57.7769074 -16.7239795
  99.4820012  66.4334997 -14.7360012  99.1900012  67.2014997 -15.2270012
  98.8080012  65.7734997 -14.8990012  99.3509081  66.4494406 -14.8252660
 112.6050012  72.0114997 -18.3340012 112.6790012  72.9504997 -18.1630012
 113.5110012  71.7064997 -18.3900012 112.7375100  72.0986722 -18.3181881
  95.5750012  68.7964997  -5.9210012  95.0740012  68.7684997  -6.7360012
  95.5800012  67.8904997  -5.6120012  95.5071526  68.6702278  -5.9907128
  95.3250012  71.5764997  -9.0370012  96.2710012  71.4324997  -9.0560012
  95.2130012  72.3604997  -8.5000012  95.4392727  71.6628046  -8.9669928
 113.5230012  72.2424997  -3.3550012 113.4740012  71.2874997  -3.3920012
 112.6960012  72.5104997  -2.9540012 113.4044940  72.1478998  -3.3058625
 104.5020012  71.8164997  -4.4790012 104.5890012  72.6424997  -4.0040012
 103.6380012  71.4864997  -4.2300012 104.3971964  71.8849878  -4.3803451
 104.9160012  75.5884997 -14.6730012 104.8410012  75.4674997 -15.6190012
 104.9490012  76.5384997 -14.5540012 104.9101848  75.7002500 -14.7865166
  98.5690012  74.3774997 -12.8920012  98.7220012  74.0294997 -12.0130012
  97.7190012  74.0214997 -13.1470012  98.4748962  74.2816650 -12.8061660
 108.0180012  74.7424997 -17.6710012 108.3930012  73.9984997 -18.1410012
 108.0220012  74.4724997 -16.7520012 108.0698915  74.6041486 -17.6112176
 107.6870012  74.6684997 -14.9210012 106.7510012  74.7684997 -14.7430012
 107.9670012  73.9594997 -14.3430012 107.5968255  74.5862711 -14.8184609
 110.6750012  63.7354997  -2.8750012 110.2680012  64.2164997  -3.5960012
 110.7160012  62.8304997  -3.1830012 110.6248437  63.6789374  -3.0153317
  97.8240012  70.1194997  -4.8780012  98.0400012  69.7584997  -4.0190012
  96.9690012  69.7454997  -5.0880012  97.7379292  70.0194111  -4.7886614
 100.4430012  58.5894997  -8.8830012  99.5810012  58.5024997  -9.2900012
 100.4200012  59.4454997  -8.4550012 100.3220330  58.6932765  -8.8808137
 105.1060012  58.3114997  -5.5080012 105.5260012  57.8964997  -4.7550012
 104.1730012  58.1334997  -5.3910012 105.0373644  58.2305900  -5.3890461
 108.4320012  62.0674997  -4.6550012 107.9180012  61.9414997  -3.8570012
 108.2770012  62.9794997  -4.8990012 108.3406852  62.1736132  -4.5787842
 109.1950012  66.9284997 -18.8930012 109.2370012  66.7054997 -19.8230012
 110.0440012  67.3274997 -18.7030012 109.3155396  66.9519155 -18.9946373
 104.7670012  60.8044997 -18.2230012 104.5140012  60.8234997 -17.3000012
 104.5110012  59.9324997 -18.5240012 104.6977790  60.6892437 -18.1373737
 100.5340012  63.5554997  -7.7880012  99.8920012  63.5144997  -7.0790012
 100.5710012  64.4814997  -8.0250012 100.4511324  63.6751559  -7.7230176
 100.5310012  63.7764997 -12.8760012  99.6380012  63.4354997 -12.9340012
 100.9810012  63.3994997 -13.6310012 100.4697305  63.6788484 -12.9860823
 106.0660012  64.1924997 -14.0590012 105.6570012  65.0074997 -14.3500012
 106.7870012  64.0524997 -14.6730012 106.1074537  64.2852018 -14.1818658
 105.1680012  64.3674997  -2.5710012 104.6060012  63.6634997  -2.2500012
 105.9950012  64.2474997  -2.1030012 105.2027095  64.2547883  -2.4637670
 107.0710012  63.6384997 -11.2450012 106.8760012  64.2434997 -11.9600012
 107.2520012  62.8044997 -11.6790012 107.0687614  63.6086300 -11.4015595
  98.2840012  63.8754997  -5.9210012  98.2460012  64.2754997  -5.0520012
  97.7930012  63.0584997  -5.8300012  98.2124684  63.8198069  -5.7898941
 101.6500012  61.2494997 -19.1220012 101.2190012  60.8044997 -18.3920012
 100.9320012  61.6214997 -19.6340012 101.4939438  61.2388940 -19.0913201
  94.8920012  60.9914997 -12.0700012  95.5230012  60.9624997 -11.3510012
  95.3410012  60.5664997 -12.8000012  95.0390774  60.9300492 -12.0703447
  96.1660012  61.7374997 -16.6460012  96.6400012  62.3284997 -17.2310012
  95.4490012  62.2684997 -16.2990012  96.1339341  61.8900867 -16.6791164
 106.3350012  65.2764997  -6.5730012 106.6580012  64.6454997  -7.2160012
 105.8950012  64.7414997  -5.9130012 106.3196895  65.1178441  -6.5717150
 103.1120012  61.2034997 -11.7890012 102.2010012  61.2604997 -11.5010012
 103.6180012  61.1434997 -10.9790012 103.0555413  61.2031985 -11.6399378
  97.9410012  62.8324997 -12.9630012  97.0510012  62.9324997 -13.3030012
  98.2370012  61.9904997 -13.3090012  97.8592823  62.7323545 -13.0562787
 101.5940012  62.8324997 -15.3060012 102.5250012  62.9614997 -15.1280012
 101.3790012  63.5024997 -15.9560012 101.6924247  62.9406565 -15.3694253
 107.5170012  60.4384997  -8.5250012 106.8410012  60.5694997  -7.8610012
 107.0320012  60.2834997  -9.3350012 107.3587145  60.4354905  -8.5435483
 100.2680012  64.0274997 -17.7390012  99.7250012  63.6474997 -18.4310012
 101.1010012  64.2214997 -18.1680012 100.3064399  64.0018124 -17.8915474
 110.8050012  76.1104997  -2.2480012 111.0050012  76.5344997  -3.0830012
 111.4600012  76.4534997  -1.6410012 110.9210051  76.2149648  -2.2802164
  98.4030012  68.5844997  -2.6400012  99.1350012  68.8384997  -2.0790012
  97.6230012  68.7884997  -2.1250012  98.3978232  68.6469177  -2.4934240
 104.4320012  63.9914997  -9.9020012 104.9970012  63.4444997 -10.4490012
 104.2850012  63.4694997  -9.1140012 104.4892918  63.8462024  -9.8701546
  99.4340012  60.1274997 -13.4840012  99.1170012  59.2254997 -13.5190012
 100.2160012  60.1294997 -14.0370012  99.4962284  60.0041628 -13.5635217
 103.0590012  62.3794997  -7.4880012 102.2230012  62.8334997  -7.3780012
 103.5830012  62.6554997  -6.7360012 103.0154414  62.4789376  -7.3712864
 103.6030012  68.5924997 -15.8040012 102.8580012  68.0854997 -16.1260012
 103.4690012  68.6414997 -14.8570012 103.4828776  68.5296940 -15.7201353
 110.7530012  67.7254997  -7.0170012 111.3950012  68.1824997  -7.5610012
 109.9230012  67.8384997  -7.4800012 110.7285963  67.8032704  -7.1539823
 107.5010012  61.4064997 -17.6040012 106.5620012  61.5184997 -17.7560012
 107.7980012  62.2634997 -17.2980012 107.4127666  61.5376443 -17.5834232
 105.1220012  68.7764997  -4.5670012 104.7770012  68.3954997  -3.7600012
 104.9220012  69.7104997  -4.4950012 105.0478061  68.8505228  -4.4469039
 108.2190012  63.2734997 -15.9440012 109.1110012  63.1364997 -15.6250012
 108.2760012  64.0644997 -16.4800012 108.3486285  63.3616660 -15.9728310
  98.7280012  67.8874997 -10.0340012  99.4730012  67.8854997 -10.6350012
  98.8060012  67.0644997  -9.5520012  98.8405518  67.7759315 -10.0511071
 105.7290012  70.0514997 -16.7780012 105.4330012  70.8774997 -16.3970012
 105.0260012  69.4314997 -16.5820012 105.5934914  70.0808199 -16.6993557
  95.7360012  66.3484997  -4.7190012  95.9590012  65.9304997  -3.8870012
  95.1340012  65.7354997  -5.1420012  95.6851759  66.2084668  -4.6622978
 102.7520012  65.8654997  -2.5060012 102.4560012  65.6994997  -3.4010012
 103.6840012  65.6454997  -2.5170012 102.8374166  65.8130640  -2.6299464
 107.3730012  71.2384997  -4.6160012 106.4720012  71.4214997  -4.8840012
 107.4070012  71.4974997  -3.6950012 107.2543041  71.2985512  -4.5281803
 113.1040012  63.4834997 -16.2490012 112.5500012  63.0874997 -16.9210012
 113.2040012  64.3934997 -16.5270012 113.0417059  63.5523586 -16.3785599
 113.0670012  69.2834997  -3.4120012 112.2160012  69.5214997  -3.7790012
 113.6580012  69.2664997  -4.1650012 113.0302487  69.3138258  -3.5641107
 111.3990012  72.2694997 -15.7840012 111.0260012  71.4434997 -15.4750012
 111.6770012  72.0864997 -16.6810012 111.3855630  72.1317303 -15.8630374
 108.5600012  67.0774997  -8.7630012 107.6310012  66.8454997  -8.7900012
 109.0110012  66.3004997  -9.0930012 108.4939216  66.9407238  -8.8113083
 101.1030012  71.4054997 -12.6300012 101.6300012  72.1784997 -12.8300012
 100.2230012  71.6304997 -12.9310012 101.0561773  71.5418005 -12.6980990
  96.8580012  66.2674997 -18.0430012  97.4740012  66.8944997 -17.6630012
  95.9960012  66.5834997 -17.7710012  96.8257698  66.3959430 -17.9542817
 102.5300012  69.0684997 -13.0530012 102.2890012  69.9934997 -13.0120012
 101.7890012  68.6094997 -12.6570012 102.3968409  69.1331421 -12.9938623
 103.0450012  73.2174997  -6.7380012 103.4070012  74.0724997  -6.9720012
 103.5760012  72.9254997  -5.9980012 103.1664473  73.2951060  -6.6699145
 101.2130012  74.0904997 -13.5080012 100.2630012  74.1954997 -13.4570012
 101.5650012  74.9104997 -13.1630012 101.1304203  74.2158314 -13.4543350
 106.5890012  69.3164997  -7.0380012 106.1630012  69.0894997  -6.2110012
 107.1690012  68.5784997  -7.2200012 106.6091868  69.1855299  -6.9494170
 108.7920012  70.2454997 -17.9640012 109.1450012  69.8654997 -17.1590012
 107.8430012  70.1524997 -17.8770012 108.7120441  70.1809596 -17.8421441
 109.2470012  73.8684997  -4.5680012 108.6460012  73.3134997  -5.0640012
 109.5290012  74.5354997  -5.1940012 109.2028519  73.8826841  -4.7205048
 113.2950012  74.7254997 -17.7630012 114.0390012  75.3114997 -17.9030012
 112.6010012  75.2934997 -17.4290012 113.3030292  74.8825582 -17.7370039
  97.3700012  61.1014997  -5.1610012  96.4770012  61.4404997  -5.2290012
  97.2710012  60.2464997  -4.7430012  97.2344164  61.0322588  -5.1137765
 109.6580012  68.9184997 -15.7370012 109.3800012  68.1904997 -15.1810012
 110.5850012  69.0374997 -15.5320012 109.7453124  68.8348802 -15.6331155
  97.0210012  72.9064997  -6.7260012  97.2380012  71.9744997  -6.7570012
  97.2670012  73.1804997  -5.8430012  97.0839549  72.8160636  -6.6108237
 102.8830012  71.3574997 -19.5170012 103.1220012  70.6094997 -20.0640012
 102.6140012  70.9694997 -18.6840012 102.8793675  71.2026638 -19.4793135
 101.8200012  70.9274997 -17.0600012 101.9660012  70.4074997 -16.2700012
 101.8170012  71.8344997 -16.7540012 101.8395989  70.9788853 -16.9103912
  98.2730012  68.1804997 -16.5500012  97.5870012  68.5324997 -15.9830012
  98.7950012  68.9434997 -16.7970012  98.2496852  68.3318578 -16.5057882
 106.1040012  60.8424997  -6.2710012 106.8030012  60.9164997  -5.6210012
 105.7230012  59.9784997  -6.1170012 106.1481767  60.7357624  -6.1611678
 106.8890012  60.4944997 -15.1740012 107.1090012  60.9664997 -15.9770012
 107.4470012  60.8894997 -14.5040012 106.9944968  60.6124285 -15.1932669
 104.5570012  72.6254997 -16.3110012 103.7410012  73.1224997 -16.2590012
 105.0870012  73.1004997 -16.9510012 104.5169161  72.7577722 -16.3904044
 104.0890012  62.2224997 -14.3390012 104.9010012  62.7274997 -14.2930012
 103.8440012  62.0774997 -13.4250012 104.1670520  62.2720375 -14.2091483
 104.6240012  63.2084997  -5.1540012 104.7430012  63.7824997  -4.3970012
 105.2800012  62.5204997  -5.0400012 104.7289757  63.1941079  -5.0349175
 104.9720012  59.3034997 -13.4010012 104.6260012  59.9214997 -12.7560012
 105.6310012  59.8044997 -13.8820012 105.0137826  59.4555802 -13.3779029
 101.8960012  73.6694997 -16.3290012 102.0560012  74.4684997 -16.8300012
 101.6980012  73.9754997 -15.4440012 101.8911649  73.8204469 -16.2780185
 100.6300012  60.3664997 -16.7140012 100.5470012  61.2554997 -16.3670012
 101.5200012  60.1014997 -16.4820012 100.7389469  60.4521430 -16.6352374
 110.8290012  61.1154997  -4.3190012 109.9120012  61.3784997  -4.4070012
 111.1640012  61.1124997  -5.2160012 110.7489900  61.1510224  -4.4522081
 109.4310012  64.8664997 -10.2240012 108.6330012  64.4514997 -10.5520012
 109.8760012  64.1754997  -9.7330012 109.3819885  64.7163543 -10.2025111
  98.8890012  70.7944997 -17.6530012  99.4810012  71.4934997 -17.3770012
  99.3480012  70.3614997 -18.3730012  99.0321142  70.8317049 -17.7125170
  97.2050012  63.4584997 -18.5370012  97.1600012  64.3974997 -18.3590012
  96.3170012  63.2224997 -18.8070012  97.0788574  63.5551892 -18.5491088
 110.5170012  74.1224997  -8.6010012 110.3620012  74.8004997  -9.2580012
 111.4500012  74.1944997  -8.3980012 110.6218500  74.2250170  -8.6634881
  98.0130012  58.2404997  -9.8640012  97.7840012  58.2994997 -10.7920012
  97.5700012  57.4484997  -9.5580012  97.9218530  58.1415753  -9.9495214
  96.9430012  72.1804997 -13.7040012  96.1110012  72.6534997 -13.6760012
  97.4890012  72.6904997 -14.3020012  96.9029739  72.3141871 -13.7810284
  96.2310012  74.7934997  -2.3740012  96.7720012  74.5764997  -1.6140012
  95.7500012  73.9874997  -2.5630012  96.2399345  74.6549514  -2.2956924
 100.8290012  73.7124997  -0.7530012 101.5960012  73.2534997  -0.4120012
 100.8070012  73.4864997  -1.6830012 100.9311434  73.6190409  -0.8319957
 104.9210012  73.2204997 -19.3780012 104.2770012  72.5894997 -19.0570012
 105.6830012  72.6894997 -19.6100012 104.9358077  73.0622920 -19.3653989
 107.4060012  72.0924997  -2.0240012 107.0550012  71.2364997  -1.7810012
 108.1320012  72.2354997  -1.4170012 107.4560769  71.9945636  -1.9086381
 109.5250012  73.0374997 -19.1440012 109.8080012  72.2434997 -18.6920012
 110.2650012  73.2704997 -19.7050012 109.6637486  72.9602803 -19.1579302
  96.1380012  68.6034997  -1.4190012  96.2820012  67.7014997  -1.7060012
  95.3660012  68.8894997  -1.9070012  96.0533322  68.5188261  -1.5242119
 100.4800012  68.9474997 -19.2870012 100.5440012  68.1534997 -18.7560012
 101.1330012  68.8284997 -19.9770012 100.5770241  68.8227148 -19.3075683
 102.7940012  68.5734997  -1.9870012 102.4650012  68.8444997  -2.8440012
 102.9460012  67.6324997  -2.0740012 102.7694809  68.4833862  -2.1161756
 108.5280012  68.4894997  -4.6030012 109.2740012  69.0774997  -4.7230012
 107.7710012  69.0714997  -4.5400012 108.5277554  68.6487011  -4.6109093
  96.9710012  65.8034997  -1.9990012  97.3790012  64.9464997  -2.1200012
  96.7110012  65.8184997  -1.0780012  96.9917568  65.6880807  -1.8910412
 101.6290012  66.9194997 -16.9810012 101.1690012  66.4354997 -16.2950012
 101.8840012  66.2514997 -17.6170012 101.6004902  66.7628731 -16.9730666
 100.9180012  64.8124997  -4.6250012 100.3000012  65.4874997  -4.3450012
 101.2620012  65.1334997  -5.4580012 100.8799615  64.9482721  -4.6993419
 102.7000012  65.1624997 -18.7190012 102.5200012  65.0084997 -19.6460012
 103.6500012  65.2704997 -18.6740012 102.8037776  65.1560175 -18.8398157
 105.9380012  67.2844997  -1.3480012 106.8910012  67.3674997  -1.3750012
 105.7770012  66.5724997  -0.7280012 106.0466426  67.1996746  -1.2679421
 112.0900012  67.5174997 -19.2730012 111.8160012  67.0924997 -20.0860012
 112.1290012  68.4484997 -19.4900012 112.0577699  67.5852484 -19.4136390
 101.2570012  62.1674997  -3.5430012 101.4070012  61.4384997  -4.1450012
 101.2600012  62.9444997  -4.1020012 101.2779302  62.1727851  -3.7009308
 101.6700012  60.5374997  -6.0500012 102.2060012  60.9884997  -6.7020012
 100.8180012  60.4294997  -6.4730012 101.6282178  60.5846390  -6.1964244
 103.2520012  65.9764997  -5.8110012 104.0020012  65.8204997  -6.3840012
 102.9130012  66.8284997  -6.0860012 103.3088921  66.0702968  -5.9266439
 107.6670012  63.7914997  -0.7820012 107.8600012  62.8604997  -0.8940012
 108.5250012  64.2164997  -0.7920012 107.8093020  63.7216389  -0.7986639
 108.9840012  66.5804997  -2.7050012 108.7030012  67.2894997  -3.2820012
 109.9270012  66.5074997  -2.8560012 109.0729027  66.6677646  -2.8044449
  99.7360012  63.3654997  -1.6310012  98.9690012  62.8334997  -1.8410012
 100.4150012  63.0554997  -2.2310012  99.7227022  63.2507506  -1.7408352
 102.4760012  57.9934997  -5.6190012 102.3770012  58.9404997  -5.7240012
 101.7330012  57.6214997  -6.0940012 102.3620564  58.0725902  -5.6975440
 103.7400012  62.3154997  -2.0550012 103.5040012  62.0954997  -1.1530012
 102.9560012  62.1084997  -2.5650012 103.6018628  62.2574760  -2.0006068
 106.4550012  61.4424997  -2.9790012 105.5080012  61.4744997  -2.8470012
 106.7680012  60.8174997  -2.3260012 106.3675475  61.3623207  -2.8725545
 108.0890012  60.0764997  -0.9740012 107.9930012  59.1244997  -0.9800012
 107.7680012  60.3454997  -0.1140012 108.0324070  59.9824035  -0.8584559
  97.9160012  61.2864997  -1.9270012  98.1280012  60.5794997  -2.5370012
  97.8050012  60.8484997  -1.0830012  97.9299721  61.1307084  -1.8963157
 102.6970012  57.2874997  -2.9470012 103.4090012  56.6474997  -2.9610012
 102.5960012  57.5544997  -3.8610012 102.7807939  57.2359938  -3.0724350
 103.0510012  58.9704997  -0.8940012 102.9190012  58.4944997  -1.7140012
 102.4520012  59.7144997  -0.9490012 102.9519071  59.0059618  -1.0137114
 102.5970012  75.8534997 -17.7170012 103.5300012  76.0114997 -17.5740012
 102.3330012  76.5284997 -18.3420012 102.6889510  75.9663611 -17.7819259
  96.1660012  70.4894997 -18.2350012  97.0800012  70.5684997 -17.9610012
  96.1730012  69.8024997 -18.9010012  96.2921131  70.4073961 -18.2875607
  94.8150012  75.8824997 -13.1570012  94.1680012  75.4204997 -13.6900012
  95.1690012  75.2104997 -12.5750012  94.7743849  75.7284723 -13.1512041
  95.6850012  73.9634997 -11.3530012  95.3500012  73.0834997 -11.1810012
  95.9070012  74.3084997 -10.4880012  95.6691783  73.8897500 -11.2125792
 113.2330012  74.7724997  -8.3720012 113.2120012  74.9574997  -7.4330012
 113.9240012  75.3414997  -8.7130012 113.3234618  74.8746606  -8.2896136
 112.7970012  74.3404997  -5.4500012 112.3090012  73.6044997  -5.8210012
 113.3460012  73.9464997  -4.7720012 112.8044872  74.1866249  -5.4090840
 111.2470012  70.1294997  -0.8120012 110.3810012  70.0244997  -0.4180012
 111.6240012  70.8884997  -0.3660012 111.1793308  70.2176900  -0.6977607
 112.5480012  68.3864997 -15.2980012 113.3980012  68.8074997 -15.1710012
 112.5540012  67.6464997 -14.6910012 112.6651372  68.3440803 -15.1985656
 112.9430012  66.4394997 -13.4740012 112.2160012  65.9604997 -13.0770012
 113.5240012  66.6454997 -12.7420012 112.9219375  66.4017090 -13.3205871
 112.7020012  69.2244997  -8.5270012 113.5350012  68.8464997  -8.8070012
 112.8140012  70.1674997  -8.6460012 112.8312647  69.3002218  -8.5814513
 111.1880012  72.1024997  -6.2200012 110.5410012  72.4274997  -5.5940012
 110.6710012  71.6624997  -6.8940012 111.0294029  72.0875004  -6.2254173
 113.2110012  66.3404997 -17.0830012 112.6890012  66.6974997 -17.8020012
 113.1780012  67.0154997 -16.4050012 113.1351634  66.4805413 -17.0896855
 111.5600012  63.5804997 -18.5320012 111.6560012  64.2474997 -19.2130012
 111.4200012  62.7644997 -19.0140012 111.5542135  63.5614500 -18.6901509
 110.7290012  64.9604997 -12.9110012 110.5790012  64.0154997 -12.9320012
 110.3760012  65.2414997 -12.0680012 110.6606625  64.8690441 -12.7997654
  95.7650012  67.0384997  -8.9010012  95.9490012  66.9564997  -9.8370012
  96.6140012  66.9144997  -8.4770012  95.9050139  67.0105003  -8.9718545
 111.5860012  66.9304997  -3.2730012 112.1690012  66.1964997  -3.0810012
 112.1500012  67.7024997  -3.2260012 111.7419769  66.9344227  -3.2403841
 113.0820012  64.8334997  -2.5880012 112.2190012  64.4544997  -2.7540012
 113.6870012  64.0944997  -2.6620012 113.0455979  64.6818023  -2.6207183
 110.8070012  60.9884997 -19.4150012 111.4180012  60.6174997 -18.7780012
 109.9710012  60.5674997 -19.2190012 110.7775032  60.8807554 -19.3012965
 110.4400012  62.5434997 -14.4490012 110.7200012  61.6364997 -14.3250012
 111.1990012  62.9774997 -14.8380012 110.5809277  62.4780942 -14.4846318
 111.0520012  63.1244997  -9.0130012 111.9850012  63.3364997  -9.0470012
 110.8170012  63.2264997  -8.0910012 111.1478036  63.1672769  -8.8930024
 111.0810012  63.8614997  -6.2370012 110.2380012  64.1294997  -5.8710012
 111.5230012  64.6834997  -6.4480012 111.0254158  64.0093291  -6.2154509
  95.3620012  62.3094997  -2.7600012  96.2820012  62.1874997  -2.5240012
  94.9130012  61.5594997  -2.3710012  95.4271580  62.1913727  -2.6750994
 113.3640012  57.8414997  -0.8840012 113.7140012  57.1874997  -1.4890012
 113.5110012  58.6784997  -1.3230012 113.4318419  57.8651591  -1.0262882
 111.0530012  59.8064997 -14.4010012 111.2360012  59.3574997 -13.5750012
 110.4540012  59.2214997 -14.8640012 110.9970202  59.6659975 -14.3506725
  96.5830012  60.6214997  -9.8690012  97.0290012  59.8294997  -9.5670012
  97.0500012  61.3374997  -9.4380012  96.7070172  60.6100624  -9.7695180
  94.8870012  63.6204997  -8.8000012  95.3790012  63.3994997  -9.5910012
  95.2500012  64.4614997  -8.5190012  95.0033126  63.7038357  -8.8702469
 112.8840012  59.9504997  -2.5340012 111.9660012  60.2214997  -2.5700012
 113.0070012  59.4154997  -3.3190012 112.7751066  59.9152892  -2.6449513
 112.9200012  59.8734997 -17.8730012 113.3320012  59.1524997 -18.3480012
 113.6020012  60.5434997 -17.8140012 113.0685885  59.8652368 -17.9301085
  95.2010012  59.8784997 -14.7460012  94.2760012  60.0874997 -14.8750012
  95.6550012  60.3624997 -15.4350012  95.1357368  59.9725993 -14.8568774
 109.9720012  74.8624997 -12.8000012 110.6240012  74.5154997 -13.4080012
 110.4820012  75.3514997 -12.1540012 110.1302637  74.8810597 -12.7959764
  95.1650012  58.6164997  -6.4010012  94.5000012  58.3704997  -5.7580012
  94.7220012  59.2384997  -6.9790012  95.0140956  58.6668632  -6.3910648
  97.3570012  71.7914997  -2.2570012  96.5360012  71.9664997  -2.7170012
  97.1040012  71.7184997  -1.3360012  97.2106164  71.8055622  -2.1955077
 100.3110012  72.7664997  -5.9980012  99.8860012  73.5754997  -6.2810012
 101.2150012  72.8514997  -6.3000012 100.3750271  72.8888469  -6.0776224
 104.6220012  74.1654997  -3.0390012 104.8070012  73.8314997  -2.1610012
 105.4680012  74.4744997  -3.3610012 104.7617539  74.1616047  -2.9624395
 106.9670012  75.4514997  -3.7950012 107.6440012  74.8184997  -4.0350012
 107.2890012  75.8524997  -2.9880012 107.1031637  75.4191154  -3.7187207
 111.8840012  58.0404997  -4.7150012 111.0720012  58.3654997  -5.1030012
 112.1170012  57.2804997  -5.2480012 111.8043423  57.9822436  -4.8401747
  97.7130012  76.0224997  -5.9510012  96.9920012  76.4624997  -6.4020012
  97.3470012  75.7714997  -5.1020012  97.5649804  76.0487698  -5.8980160
 100.1800012  75.6224997  -6.9210012  99.3150012  75.6944997  -6.5170012
 100.1250012  76.1694997  -7.7050012 100.0542085  75.7062685  -6.9716638
 104.8900012  75.5104997  -7.7460012 104.4340012  76.0394997  -8.4000012
 105.0530012  76.1134997  -7.0200012 104.8495585  75.6644468  -7.7374938
 107.2180012  74.3884997  -6.8010012 106.3130012  74.5534997  -7.0660012
 107.6470012  75.2414997  -6.8660012 107.1520799  74.5264483  -6.8460818
 109.8220012  75.9584997  -6.5060012 109.6400012  76.8744997  -6.7160012
 109.9990012  75.5484997  -7.3520012 109.8210210  76.0284822  -6.6492115
  97.1270012  74.6454997  -9.0410012  97.1090012  74.2204997  -8.1830012
  97.9320012  74.3274997  -9.4490012  97.2333875  74.5443812  -8.9788345
  99.2690012  73.3554997 -10.3860012  99.0500012  72.4394997 -10.2160012
 100.0930012  73.4954997  -9.9200012  99.3504420  73.2490520 -10.2997226
 101.8060012  73.8254997  -9.5370012 102.0190012  72.9374997  -9.8240012
 101.8700012  73.7914997  -8.5830012 101.8438232  73.6993102  -9.4472603
 105.3140012  59.4894997 -10.3930012 104.6400012  58.8604997 -10.1370012
 105.8780012  59.0054997 -10.9960012 105.2979230  59.3378744 -10.4394660
 110.4570012  57.5974997 -10.2800012 111.0610012  58.1444997 -10.7820012
 109.5870012  57.9164997 -10.5200012 110.4221241  57.7155806 -10.3812346
 112.1840012  58.7354997 -11.9470012 112.7960012  58.2214997 -12.4730012
 112.5660012  59.6134997 -11.9230012 112.3194540  58.7837140 -12.0158170
  97.6410012  58.1234997 -12.5710012  96.8640012  57.8894997 -13.0780012
  98.1710012  57.3264997 -12.5620012  97.6062330  57.9836988 -12.6392258
  96.4770012  57.9214997 -16.7670012  96.9160012  58.5324997 -17.3590012
  95.8440012  58.4594997 -16.2930012  96.4514514  58.0779257 -16.7839070
 102.2200012  58.0504997 -12.7570012 103.0950012  58.4384997 -12.7870012
 102.0840012  57.8354997 -11.8350012 102.3213695  58.0745184 -12.6363560
 107.7770012  58.0804997 -11.1080012 107.8530012  58.1754997 -12.0580012
 107.5020012  57.1724997 -10.9790012 107.7502321  57.9707867 -11.2204921
 109.1300012  58.1064997 -15.4160012 108.4280012  58.7214997 -15.6250012
 108.6860012  57.2684997 -15.2850012 108.9736330  58.0775783 -15.4269672
  96.3780012  73.8694997 -15.8690012  95.6930012  73.8314997 -16.5370012
  96.3820012  74.7824997 -15.5810012  96.2848193  73.9877016 -15.9214716
  98.3380012  59.8374997 -18.3250012  98.8300012  59.2074997 -18.8520012
  98.9620012  60.1334997 -17.6610012  98.4895446  59.7913199 -18.3074020
 103.3640012  60.1304997 -15.8680012 103.5420012  59.4844997 -15.1850012
 103.3110012  60.9644997 -15.4000012 103.3811829  60.1547985 -15.7114060
 105.2430012  75.0794997 -17.4720012 106.1090012  75.4454997 -17.6500012
 104.9960012  74.6394997 -18.2860012 105.3282392  75.0701756 -17.6063711
 111.9520012  74.6424997 -14.7930012 111.7570012  73.8944997 -15.3580012
 111.9130012  75.4004997 -15.3760012 111.9200380  74.6426099 -14.9491616
  97.5990012  58.6374997  -3.0530012  97.2330012  57.8724997  -2.6100012
  98.5120012  58.6664997  -2.7660012  97.6722790  58.5367224  -2.9535930
  99.5720012  57.9884997  -1.5170012 100.4700012  57.7144997  -1.7020012
  99.1850012  57.2454997  -1.0530012  99.6426612  57.8505914  -1.4796357
  98.1960012  74.7894997 -18.8440012  97.9290012  75.0764997 -17.9710012
  98.9680012  74.2434997 -18.6920012  98.2637488  74.7550294 -18.7038950
 107.9930012  57.3204997  -1.3350012 108.0700012  56.8944997  -0.4810012
 108.8870012  57.3344997  -1.6780012 108.1243428  57.2640879  -1.2644690
 111.1690012  73.3934997  -2.6430012 110.3870012  73.2074997  -3.1620012
 111.0970012  74.3224997  -2.4250012 111.0521777  73.4936492  -2.6845952
 125.5750012  67.2794997 -12.6120012 125.6640012  68.2234997 -12.7440012
 124.9370012  67.0044997 -13.2700012 125.5009081  67.3714830 -12.7190386
 124.5080012  66.5344997  -9.1930012 124.4700012  65.8884997  -8.4880012
 124.1860012  66.0684997  -9.9640012 124.4592333  66.3829408  -9.2007022
 116.8770012  66.1494997  -7.6000012 116.9180012  65.5234997  -6.8770012
 117.5800012  66.7734997  -7.4180012 116.9776363  66.1481196  -7.4763956
 128.2140012  69.4734997 -10.8920012 127.7740012  68.7534997 -10.4410012
 128.2010012  70.1944997 -10.2620012 128.1520226  69.4723731 -10.7451506
 117.8000012  70.5994997  -9.0650012 117.4310012  69.7974997  -9.4350012
 118.7410012  70.4304997  -9.0190012 117.8767289  70.4670153  -9.1093684
 114.4100012  64.2594997 -13.6720012 113.9630012  65.1054997 -13.6910012
 113.8490012  63.6794997 -14.1880012 114.2729900  64.2969916 -13.7443199
 115.1210012  66.4214997 -11.5460012 115.3340012  65.6514997 -11.0190012
 115.8590012  66.5104997 -12.1500012 115.2498496  66.3281394 -11.5554700
 125.3260012  74.5784997 -10.6790012 125.9460012  73.9014997 -10.9530012
 125.1180012  74.3604997  -9.7710012 125.3826904  74.4563870 -10.5936635
 122.8980012  68.9674997  -8.7870012 123.2020012  68.2814997  -9.3820012
 123.6190012  69.0854997  -8.1690012 123.0370671  68.8896305  -8.7848184
 131.5610012  60.5684997  -7.9260012 131.6100012  61.1784997  -7.1900012
 131.9860012  61.0294997  -8.6490012 131.6251824  60.7143741  -7.9229795
 126.0390012  63.3614997  -8.4590012 126.1810012  62.4154997  -8.4390012
 125.9320012  63.5684997  -9.3880012 126.0439864  63.2599534  -8.5817661
 119.1930012  61.4624997 -11.1870012 119.2370012  62.3224997 -11.6050012
 118.7360012  60.9104997 -11.8210012 119.1372185  61.5055799 -11.3299701
 126.9160012  61.5934997 -12.7860012 127.5620012  61.2644997 -12.1610012
 127.4260012  62.1114997 -13.4090012 127.0734264  61.6184611 -12.7846138
 115.8140012  63.8594997 -10.4250012 116.4670012  63.3094997  -9.9930012
 115.8380012  63.5854997 -11.3420012 115.9066683  63.7471466 -10.4897877
 120.9700012  65.4094997 -11.2100012 121.5860012  64.8834997 -10.7000012
 120.3840012  64.7694997 -11.6130012 120.9750810  65.2509208 -11.1946827
 131.9520012  62.0464997  -5.6900012 131.2640012  62.7044997  -5.7860012
 131.9680012  61.8494997  -4.7540012 131.8598525  62.1100462  -5.5765192
 118.0040012  60.3804997  -7.1130012 117.7850012  60.9104997  -7.8790012
 117.3360012  60.6074997  -6.4660012 117.8837600  60.4836906  -7.1303621
 125.3730012  69.8804997 -13.5690012 125.0770012  69.5584997 -14.4200012
 125.0480012  70.7804997 -13.5280012 125.2886371  69.9580215 -13.6798199
 120.5730012  68.0564997  -6.8260012 119.8330012  68.6544997  -6.7220012
 121.2870012  68.6104997  -7.1410012 120.5682237  68.2132831  -6.8543535
 128.6800012  60.8844997 -10.8060012 128.4640012  60.1184997 -10.2730012
 129.3350012  61.3564997 -10.2930012 128.7390632  60.8435889 -10.6637139
 117.5970012  62.2724997  -9.1610012 118.2110012  62.9054997  -8.7870012
 118.1090012  61.8004997  -9.8170012 117.7502296  62.2952370  -9.1985748
 118.9800012  70.0204997  -6.0380012 118.9750012  70.9004997  -6.4160012
 118.1270012  69.9374997  -5.6130012 118.8639464  70.1296117  -6.0322093
 115.1010012  69.6914997 -15.2560012 114.8290012  69.9204997 -16.1450012
 115.1470012  70.5294997 -14.7960012 115.0700094  69.8361213 -15.3154303
 128.7260012  71.3134997  -8.5440012 127.7850012  71.3714997  -8.3820012
 129.0030012  72.2194997  -8.6810012 128.6344679  71.4439443  -8.5403185
 129.0270012  59.5994997  -7.1260012 128.2910012  60.2104997  -7.1640012
 129.7100012  60.0144997  -7.6530012 129.0186541  59.7391374  -7.2024168
 122.0300012  57.6864997  -9.6600012 121.9130012  56.7374997  -9.7150012
 121.1750012  58.0184997  -9.3870012 121.8983733  57.6015409  -9.6306103
 126.9780012  73.0944997 -11.9180012 127.4040012  72.3874997 -12.4030012
 127.2950012  73.8954997 -12.3350012 127.0791019  73.1060994 -12.0406870
 128.1380012  70.9954997 -13.4100012 127.8800012  70.3054997 -14.0210012
 128.2090012  70.5524997 -12.5640012 128.1122856  70.8412124 -13.3793115
 129.8240012  69.5614997  -4.9320012 129.9640012  68.9704997  -5.6720012
 129.9910012  70.4344997  -5.2890012 129.8656778  69.5986426  -5.0813035
 124.2970012  66.5234997 -15.1600012 123.5850012  67.0584997 -15.5120012
 124.9880012  66.5794997 -15.8200012 124.2930132  66.6042543 -15.2973711
 124.3500012  64.9814997 -18.1210012 125.0510012  65.0034997 -17.4700012
 124.6530012  64.3534997 -18.7770012 124.4867830  64.8996566 -18.1206289
 131.6660012  65.9014997  -6.8660012 131.0130012  66.5964997  -6.7770012
 132.1310012  66.1114997  -7.6760012 131.6395390  66.0249425  -6.9633117
 127.7020012  66.7334997 -14.2080012 126.9700012  66.9614997 -13.6350012
 128.1500012  66.0194997 -13.7530012 127.6623095  66.6682571 -14.0680881
 127.6000012  64.9074997  -5.1410012 127.6800012  65.6704997  -4.5690012
 126.9980012  65.1864997  -5.8310012 127.5295756  65.0497134  -5.1559411
 119.3480012  67.3634997 -12.3260012 119.0170012  66.9934997 -13.1440012
 119.9360012  66.6934997 -11.9790012 119.3821873  67.2221156 -12.3911898
 120.7140012  70.7914997  -9.6440012 120.6200012  70.2134997 -10.4010012
 121.4440012  70.4204997  -9.1480012 120.7997981  70.6622390  -9.6805835
 119.7140012  66.1324997  -8.6920012 120.2800012  66.2534997  -9.4550012
 120.0330012  66.7694997  -8.0530012 119.8345786  66.2351884  -8.7099960
 126.0230012  71.6354997  -7.9580012 125.7830012  72.2974997  -7.3100012
 125.8250012  70.8014997  -7.5330012 125.9633808  71.6133134  -7.8118476
 120.5940012  70.5314997  -3.9750012 120.2830012  71.3134997  -3.5200012
 119.9440012  70.3784997  -4.6610012 120.4635558  70.6179105  -4.0054129
 126.5730012  65.8954997 -16.5230012 127.1530012  66.0454997 -15.7760012
 126.9870012  66.3664997 -17.2460012 126.7082830  65.9796841 -16.5185866
 117.5140012  66.7294997  -4.7460012 117.5850012  67.3804997  -4.0480012
 116.6240012  66.8324997  -5.0810012 117.4033117  66.8325936  -4.6957300
 124.3000012  72.6324997 -13.0880012 124.7740012  72.9274997 -12.3100012
 123.7370012  73.3704997 -13.3210012 124.2887653  72.7726932 -13.0129864
 118.8340012  72.6034997  -3.2120012 118.8410012  72.4674997  -4.1590012
 117.9180012  72.4854997  -2.9600012 118.7111714  72.5689430  -3.3075334
 130.2720012  57.6454997 -16.7100012 129.3720012  57.7844997 -16.4150012
 130.5240012  58.4764997 -17.1120012 130.1828702  57.7769074 -16.7239795
 118.3380012  66.4334997 -14.7360012 118.0460012  67.2014997 -15.2270012
 117.6640012  65.7734997 -14.8990012 118.2069081  66.4494406 -14.8252660
 131.4610012  72.0114997 -18.3340012 131.5350012  72.9504997 -18.1630012
 132.3670012  71.7064997 -18.3900012 131.5935100  72.0986722 -18.3181881
 114.4310012  68.7964997  -5.9210012 113.9300012  68.7684997  -6.7360012
 114.4360012  67.8904997  -5.6120012 114.3631526  68.6702278  -5.9907128
 114.1810012  71.5764997  -9.0370012 115.1270012  71.4324997  -9.0560012
 114.0690012  72.3604997  -8.5000012 114.2952727  71.6628046  -8.9669928
 132.3790012  72.2424997  -3.3550012 132.3300012  71.2874997  -3.3920012
 131.5520012  72.5104997  -2.9540012 132.2604940  72.1478998  -3.3058625
 123.3580012  71.8164997  -4.4790012 123.4450012  72.6424997  -4.0040012
 122.4940012  71.4864997  -4.2300012 123.2531964  71.8849878  -4.3803451
 123.7720012  75.5884997 -14.6730012 123.6970012  75.4674997 -15.6190012
 123.8050012  76.5384997 -14.5540012 123.7661848  75.7002500 -14.7865166
 117.4250012  74.3774997 -12.8920012 117.5780012  74.0294997 -12.0130012
 116.5750012  74.0214997 -13.1470012 117.3308962  74.2816650 -12.8061660
 126.8740012  74.7424997 -17.6710012 127.2490012  73.9984997 -18.1410012
 126.8780012  74.4724997 -16.7520012 126.9258915  74.6041486 -17.6112176
 126.5430012  74.6684997 -14.9210012 125.6070012  74.7684997 -14.7430012
 126.8230012  73.9594997 -14.3430012 126.4528255  74.5862711 -14.8184609
 129.5310012  63.7354997  -2.8750012 129.1240012  64.2164997  -3.5960012
 129.5720012  62.8304997  -3.1830012 129.4808437  63.6789374  -3.0153317
 116.6800012  70.1194997  -4.8780012 116.8960012  69.7584997  -4.0190012
 115.8250012  69.7454997  -5.0880012 116.5939292  70.0194111  -4.7886614
 119.2990012  58.5894997  -8.8830012 118.4370012  58.5024997  -9.2900012
 119.2760012  59.4454997  -8.4550012 119.1780330  58.6932765  -8.8808137
 123.9620012  58.3114997  -5.5080012 124.3820012  57.8964997  -4.7550012
 123.0290012  58.1334997  -5.3910012 123.8933644  58.2305900  -5.3890461
 127.2880012  62.0674997  -4.6550012 126.7740012  61.9414997  -3.8570012
 127.1330012  62.9794997  -4.8990012 127.1966852  62.1736132  -4.5787842
 128.0510012  66.9284997 -18.8930012 128.0930012  66.7054997 -19.8230012
 128.9000012  67.3274997 -18.7030012 128.1715396  66.9519155 -18.9946373
 123.6230012  60.8044997 -18.2230012 123.3700012  60.8234997 -17.3000012
 123.3670012  59.9324997 -18.5240012 123.5537790  60.6892437 -18.1373737
 119.3900012  63.5554997  -7.7880012 118.7480012  63.5144997  -7.0790012
 119.4270012  64.4814997  -8.0250012 119.3071324  63.6751559  -7.7230176
 119.3870012  63.7764997 -12.8760012 118.4940012  63.4354997 -12.9340012
 119.8370012  63.3994997 -13.6310012 119.3257305  63.6788484 -12.9860823
 124.9220012  64.1924997 -14.0590012 124.5130012  65.0074997 -14.3500012
 125.6430012  64.0524997 -14.6730012 124.9634537  64.2852018 -14.1818658
 124.0240012  64.3674997  -2.5710012 123.4620012  63.6634997  -2.2500012
 124.8510012  64.2474997  -2.1030012 124.0587095  64.2547883  -2.4637670
 125.9270012  63.6384997 -11.2450012 125.7320012  64.2434997 -11.9600012
 126.1080012  62.8044997 -11.6790012 125.9247614  63.6086300 -11.4015595
 117.1400012  63.8754997  -5.9210012 117.1020012  64.2754997  -5.0520012
 116.6490012  63.0584997  -5.8300012 117.0684684  63.8198069  -5.7898941
 120.5060012  61.2494997 -19.1220012 120.0750012  60.8044997 -18.3920012
 119.7880012  61.6214997 -19.6340012 120.3499438  61.2388940 -19.0913201
 113.7480012  60.9914997 -12.0700012 114.3790012  60.9624997 -11.3510012
 114.1970012  60.5664997 -12.8000012 113.8950774  60.9300492 -12.0703447
 115.0220012  61.7374997 -16.6460012 115.4960012  62.3284997 -17.2310012
 114.3050012  62.2684997 -16.2990012 114.9899341  61.8900867 -16.6791164
 125.1910012  65.2764997  -6.5730012 125.5140012  64.6454997  -7.2160012
 124.7510012  64.7414997  -5.9130012 125.1756895  65.1178441  -6.5717150
 121.9680012  61.2034997 -11.7890012 121.0570012  61.2604997 -11.5010012
 122.4740012  61.1434997 -10.9790012 121.9115413  61.2031985 -11.6399378
 116.7970012  62.8324997 -12.9630012 115.9070012  62.9324997 -13.3030012
 117.0930012  61.9904997 -13.3090012 116.7152823  62.7323545 -13.0562787
 120.4500012  62.8324997 -15.3060012 121.3810012  62.9614997 -15.1280012
 120.2350012  63.5024997 -15.9560012 120.5484247  62.9406565 -15.3694253
 126.3730012  60.4384997  -8.5250012 125.6970012  60.5694997  -7.8610012
 125.8880012  60.2834997  -9.3350012 126.2147145  60.4354905  -8.5435483
 119.1240012  64.0274997 -17.7390012 118.5810012  63.6474997 -18.4310012
 119.9570012  64.2214997 -18.1680012 119.1624399  64.0018124 -17.8915474
 129.6610012  76.1104997  -2.2480012 129.8610012  76.5344997  -3.0830012
 130.3160012  76.4534997  -1.6410012 129.7770051  76.2149648  -2.2802164
 117.2590012  68.5844997  -2.6400012 117.9910012  68.8384997  -2.0790012
 116.4790012  68.7884997  -2.1250012 117.2538232  68.6469177  -2.4934240
 123.2880012  63.9914997  -9.9020012 123.8530012  63.4444997 -10.4490012
 123.1410012  63.4694997  -9.1140012 123.3452918  63.8462024  -9.8701546
 118.2900012  60.1274997 -13.4840012 117.9730012  59.2254997 -13.5190012
 119.0720012  60.1294997 -14.0370012 118.3522284  60.0041628 -13.5635217
 121.9150012  62.3794997  -7.4880012 121.0790012  62.8334997  -7.3780012
 122.4390012  62.6554997  -6.7360012 121.8714414  62.4789376  -7.3712864
 122.4590012  68.5924997 -15.8040012 121.7140012  68.0854997 -16.1260012
 122.3250012  68.6414997 -14.8570012 122.3388776  68.5296940 -15.7201353
 129.6090012  67.7254997  -7.0170012 130.2510012  68.1824997  -7.5610012
 128.7790012  67.8384997  -7.4800012 129.5845963  67.8032704  -7.1539823
 126.3570012  61.4064997 -17.6040012 125.4180012  61.5184997 -17.7560012
 126.6540012  62.2634997 -17.2980012 126.2687666  61.5376443 -17.5834232
 123.9780012  68.7764997  -4.5670012 123.6330012  68.3954997  -3.7600012
 123.7780012  69.7104997  -4.4950012 123.9038061  68.8505228  -4.4469039
 127.0750012  63.2734997 -15.9440012 127.9670012  63.1364997 -15.6250012
 127.1320012  64.0644997 -16.4800012 127.2046285  63.3616660 -15.9728310
 117.5840012  67.8874997 -10.0340012 118.3290012  67.8854997 -10.6350012
 117.6620012  67.0644997  -9.5520012 117.6965518  67.7759315 -10.0511071
 124.5850012  70.0514997 -16.7780012 124.2890012  70.8774997 -16.3970012
 123.8820012  69.4314997 -16.5820012 124.4494914  70.0808199 -16.6993557
 114.5920012  66.3484997  -4.7190012 114.8150012  65.9304997  -3.8870012
 113.9900012  65.7354997  -5.1420012 114.5411759  66.2084668  -4.6622978
 121.6080012  65.8654997  -2.5060012 121.3120012  65.6994997  -3.4010012
 122.5400012  65.6454997  -2.5170012 121.6934166  65.8130640  -2.6299464
 126.2290012  71.2384997  -4.6160012 125.3280012  71.4214997  -4.8840012
 126.2630012  71.4974997  -3.6950012 126.1103041  71.2985512  -4.5281803
 131.9600012  63.4834997 -16.2490012 131.4060012  63.0874997 -16.9210012
 132.0600012  64.3934997 -16.5270012 131.8977059  63.5523586 -16.3785599
 131.9230012  69.2834997  -3.4120012 131.0720012  69.5214997  -3.7790012
 132.5140012  69.2664997  -4.1650012 131.8862487  69.3138258  -3.5641107
 130.2550012  72.2694997 -15.7840012 129.8820012  71.4434997 -15.4750012
 130.5330012  72.0864997 -16.6810012 130.2415630  72.1317303 -15.8630374
 127.4160012  67.0774997  -8.7630012 126.4870012  66.8454997  -8.7900012
 127.8670012  66.3004997  -9.0930012 127.3499216  66.9407238  -8.8113083
 119.9590012  71.4054997 -12.6300012 120.4860012  72.1784997 -12.8300012
 119.0790012  71.6304997 -12.9310012 119.9121773  71.5418005 -12.6980990
 115.7140012  66.2674997 -18.0430012 116.3300012  66.8944997 -17.6630012
 114.8520012  66.5834997 -17.7710012 115.6817698  66.3959430 -17.9542817
 121.3860012  69.0684997 -13.0530012 121.1450012  69.9934997 -13.0120012
 120.6450012  68.6094997 -12.6570012 121.2528409  69.1331421 -12.9938623
 121.9010012  73.2174997  -6.7380012 122.2630012  74.0724997  -6.9720012
 122.4320012  72.9254997  -5.9980012 122.0224473  73.2951060  -6.6699145
 120.0690012  74.0904997 -13.5080012 119.1190012  74.1954997 -13.4570012
 120.4210012  74.9104997 -13.1630012 119.9864203  74.2158314 -13.4543350
 125.4450012  69.3164997  -7.0380012 125.0190012  69.0894997  -6.2110012
 126.0250012  68.5784997  -7.2200012 125.4651868  69.1855299  -6.9494170
 127.6480012  70.2454997 -17.9640012 128.0010012  69.8654997 -17.1590012
 126.6990012  70.1524997 -17.8770012 127.5680441  70.1809596 -17.8421441
 128.1030012  73.8684997  -4.5680012 127.5020012  73.3134997  -5.0640012
 128.3850012  74.5354997  -5.1940012 128.0588519  73.8826841  -4.7205048
 132.1510012  74.7254997 -17.7630012 132.8950012  75.3114997 -17.9030012
 131.4570012  75.2934997 -17.4290012 132.1590292  74.8825582 -17.7370039
 116.2260012  61.1014997  -5.1610012 115.3330012  61.4404997  -5.2290012
 116.1270012  60.2464997  -4.7430012 116.0904164  61.0322588  -5.1137765
 128.5140012  68.9184997 -15.7370012 128.2360012  68.1904997 -15.1810012
 129.4410012  69.0374997 -15.5320012 128.6013124  68.8348802 -15.6331155
 115.8770012  72.9064997  -6.7260012 116.0940012  71.9744997  -6.7570012
 116.1230012  73.1804997  -5.8430012 115.9399549  72.8160636  -6.6108237
 121.7390012  71.3574997 -19.5170012 121.9780012  70.6094997 -20.0640012
 121.4700012  70.9694997 -18.6840012 121.7353675  71.2026638 -19.4793135
 120.6760012  70.9274997 -17.0600012 120.8220012  70.4074997 -16.2700012
 120.6730012  71.8344997 -16.7540012 120.6955989  70.9788853 -16.9103912
 117.1290012  68.1804997 -16.5500012 116.4430012  68.5324997 -15.9830012
 117.6510012  68.9434997 -16.7970012 117.1056852  68.3318578 -16.5057882
 124.9600012  60.8424997  -6.2710012 125.6590012  60.9164997  -5.6210012
 124.5790012  59.9784997  -6.1170012 125.0041767  60.7357624  -6.1611678
 125.7450012  60.4944997 -15.1740012 125.9650012  60.9664997 -15.9770012
 126.3030012  60.8894997 -14.5040012 125.8504968  60.6124285 -15.1932669
 123.4130012  72.6254997 -16.3110012 122.5970012  73.1224997 -16.2590012
 123.9430012  73.1004997 -16.9510012 123.3729161  72.7577722 -16.3904044
 122.9450012  62.2224997 -14.3390012 123.7570012  62.7274997 -14.2930012
 122.7000012  62.0774997 -13.4250012 123.0230520  62.2720375 -14.2091483
 123.4800012  63.2084997  -5.1540012 123.5990012  63.7824997  -4.3970012
 124.1360012  62.5204997  -5.0400012 123.5849757  63.1941079  -5.0349175
 123.8280012  59.3034997 -13.4010012 123.4820012  59.9214997 -12.7560012
 124.4870012  59.8044997 -13.8820012 123.8697826  59.4555802 -13.3779029
 120.7520012  73.6694997 -16.3290012 120.9120012  74.4684997 -16.8300012
 120.5540012  73.9754997 -15.4440012 120.7471649  73.8204469 -16.2780185
 119.4860012  60.3664997 -16.7140012 119.4030012  61.2554997 -16.3670012
 120.3760012  60.1014997 -16.4820012 119.5949469  60.4521430 -16.6352374
 129.6850012  61.1154997  -4.3190012 128.7680012  61.3784997  -4.4070012
 130.0200012  61.1124997  -5.2160012 129.6049900  61.1510224  -4.4522081
 128.2870012  64.8664997 -10.2240012 127.4890012  64.4514997 -10.5520012
 128.7320012  64.1754997  -9.7330012 128.2379885  64.7163543 -10.2025111
 117.7450012  70.7944997 -17.6530012 118.3370012  71.4934997 -17.3770012
 118.2040012  70.3614997 -18.3730012 117.8881142  70.8317049 -17.7125170
 116.0610012  63.4584997 -18.5370012 116.0160012  64.3974997 -18.3590012
 115.1730012  63.2224997 -18.8070012 115.9348574  63.5551892 -18.5491088
 129.3730012  74.1224997  -8.6010012 129.2180012  74.8004997  -9.2580012
 130.3060012  74.1944997  -8.3980012 129.4778500  74.2250170  -8.6634881
 116.8690012  58.2404997  -9.8640012 116.6400012  58.2994997 -10.7920012
 116.4260012  57.4484997  -9.5580012 116.7778530  58.1415753  -9.9495214
 115.7990012  72.1804997 -13.7040012 114.9670012  72.6534997 -13.6760012
 116.3450012  72.6904997 -14.3020012 115.7589739  72.3141871 -13.7810284
 115.0870012  74.7934997  -2.3740012 115.6280012  74.5764997  -1.6140012
 114.6060012  73.9874997  -2.5630012 115.0959345  74.6549514  -2.2956924
 119.6850012  73.7124997  -0.7530012 120.4520012  73.2534997  -0.4120012
 119.6630012  73.4864997  -1.6830012 119.7871434  73.6190409  -0.8319957
 123.7770012  73.2204997 -19.3780012 123.1330012  72.5894997 -19.0570012
 124.5390012  72.6894997 -19.6100012 123.7918077  73.0622920 -19.3653989
 126.2620012  72.0924997  -2.0240012 125.9110012  71.2364997  -1.7810012
 126.9880012  72.2354997  -1.4170012 126.3120769  71.9945636  -1.9086381
 128.3810012  73.0374997 -19.1440012 128.6640012  72.2434997 -18.6920012
 129.1210012  73.2704997 -19.7050012 128.5197486  72.9602803 -19.1579302
 114.9940012  68.6034997  -1.4190012 115.1380012  67.7014997  -1.7060012
 114.2220012  68.8894997  -1.9070012 114.9093322  68.5188261  -1.5242119
 119.3360012  68.9474997 -19.2870012 119.4000012  68.1534997 -18.7560012
 119.9890012  68.8284997 -19.9770012 119.4330241  68.8227148 -19.3075683
 121.6500012  68.5734997  -1.9870012 121.3210012  68.8444997  -2.8440012
 121.8020012  67.6324997  -2.0740012 121.6254809  68.4833862  -2.1161756
 127.3840012  68.4894997  -4.6030012 128.1300012  69.0774997  -4.7230012
 126.6270012  69.0714997  -4.5400012 127.3837554  68.6487011  -4.6109093
 115.8270012  65.8034997  -1.9990012 116.2350012  64.9464997  -2.1200012
 115.5670012  65.8184997  -1.0780012 115.8477568  65.6880807  -1.8910412
 120.4850012  66.9194997 -16.9810012 120.0250012  66.4354997 -16.2950012
 120.7400012  66.2514997 -17.6170012 120.4564902  66.7628731 -16.9730666
 119.7740012  64.8124997  -4.6250012 119.1560012  65.4874997  -4.3450012
 120.1180012  65.1334997  -5.4580012 119.7359615  64.9482721  -4.6993419
 121.5560012  65.1624997 -18.7190012 121.3760012  65.0084997 -19.6460012
 122.5060012  65.2704997 -18.6740012 121.6597776  65.1560175 -18.8398157
 124.7940012  67.2844997  -1.3480012 125.7470012  67.3674997  -1.3750012
 124.6330012  66.5724997  -0.7280012 124.9026426  67.1996746  -1.2679421
 130.9460012  67.5174997 -19.2730012 130.6720012  67.0924997 -20.0860012
 130.9850012  68.4484997 -19.4900012 130.9137699  67.5852484 -19.4136390
 120.1130012  62.1674997  -3.5430012 120.2630012  61.4384997  -4.1450012
 120.1160012  62.9444997  -4.1020012 120.1339302  62.1727851  -3.7009308
 120.5260012  60.5374997  -6.0500012 121.0620012  60.9884997  -6.7020012
 119.6740012  60.4294997  -6.4730012 120.4842178  60.5846390  -6.1964244
 122.1080012  65.9764997  -5.8110012 122.8580012  65.8204997  -6.3840012
 121.7690012  66.8284997  -6.0860012 122.1648921  66.0702968  -5.9266439
 126.5230012  63.7914997  -0.7820012 126.7160012  62.8604997  -0.8940012
 127.3810012  64.2164997  -0.7920012 126.6653020  63.7216389  -0.7986639
 127.8400012  66.5804997  -2.7050012 127.5590012  67.2894997  -3.2820012
 128.7830012  66.5074997  -2.8560012 127.9289027  66.6677646  -2.8044449
 118.5920012  63.3654997  -1.6310012 117.8250012  62.8334997  -1.8410012
 119.2710012  63.0554997  -2.2310012 118.5787022  63.2507506  -1.7408352
 121.3320012  57.9934997  -5.6190012 121.2330012  58.9404997  -5.7240012
 120.5890012  57.6214997  -6.0940012 121.2180564  58.0725902  -5.6975440
 122.5960012  62.3154997  -2.0550012 122.3600012  62.0954997  -1.1530012
 121.8120012  62.1084997  -2.5650012 122.4578628  62.2574760  -2.0006068
 125.3110012  61.4424997  -2.9790012 124.3640012  61.4744997  -2.8470012
 125.6240012  60.8174997  -2.3260012 125.2235475  61.3623207  -2.8725545
 126.9450012  60.0764997  -0.9740012 126.8490012  59.1244997  -0.9800012
 126.6240012  60.3454997  -0.1140012 126.8884070  59.9824035  -0.8584559
 116.7720012  61.2864997  -1.9270012 116.9840012  60.5794997  -2.5370012
 116.6610012  60.8484997  -1.0830012 116.7859721  61.1307084  -1.8963157
 121.5530012  57.2874997  -2.9470012 122.2650012  56.6474997  -2.9610012
 121.4520012  57.5544997  -3.8610012 121.6367939  57.2359938  -3.0724350
 121.9070012  58.9704997  -0.8940012 121.7750012  58.4944997  -1.7140012
 121.3080012  59.7144997  -0.9490012 121.8079071  59.0059618  -1.0137114
 121.4530012  75.8534997 -17.7170012 122.3860012  76.0114997 -17.5740012
 121.1890012  76.5284997 -18.3420012 121.5449510  75.9663611 -17.7819259
 115.0220012  70.4894997 -18.2350012 115.9360012  70.5684997 -17.9610012
 115.0290012  69.8024997 -18.9010012 115.1481131  70.4073961 -18.2875607
 113.6710012  75.8824997 -13.1570012 113.0240012  75.4204997 -13.6900012
 114.0250012  75.2104997 -12.5750012 113.6303849  75.7284723 -13.1512041
 114.5410012  73.9634997 -11.3530012 114.2060012  73.0834997 -11.1810012
 114.7630012  74.3084997 -10.4880012 114.5251783  73.8897500 -11.2125792
 132.0890012  74.7724997  -8.3720012 132.0680012  74.9574997  -7.4330012
 132.7800012  75.3414997  -8.7130012 132.1794618  74.8746606  -8.2896136
 131.6530012  74.3404997  -5.4500012 131.1650012  73.6044997  -5.8210012
 132.2020012  73.9464997  -4.7720012 131.6604872  74.1866249  -5.4090840
 130.1030012  70.1294997  -0.8120012 129.2370012  70.0244997  -0.4180012
 130.4800012  70.8884997  -0.3660012 130.0353308  70.2176900  -0.6977607
 131.4040012  68.3864997 -15.2980012 132.2540012  68.8074997 -15.1710012
 131.4100012  67.6464997 -14.6910012 131.5211372  68.3440803 -15.1985656
 131.7990012  66.4394997 -13.4740012 131.0720012  65.9604997 -13.0770012
 132.3800012  66.6454997 -12.7420012 131.7779375  66.4017090 -13.3205871
 131.5580012  69.2244997  -8.5270012 132.3910012  68.8464997  -8.8070012
 131.6700012  70.1674997  -8.6460012 131.6872647  69.3002218  -8.5814513
 130.0440012  72.1024997  -6.2200012 129.3970012  72.4274997  -5.5940012
 129.5270012  71.6624997  -6.8940012 129.8854029  72.0875004  -6.2254173
 132.0670012  66.3404997 -17.0830012 131.5450012  66.6974997 -17.8020012
 132.0340012  67.0154997 -16.4050012 131.9911634  66.4805413 -17.0896855
 130.4160012  63.5804997 -18.5320012 130.5120012  64.2474997 -19.2130012
 130.2760012  62.7644997 -19.0140012 130.4102135  63.5614500 -18.6901509
 129.5850012  64.9604997 -12.9110012 129.4350012  64.0154997 -12.9320012
 129.2320012  65.2414997 -12.0680012 129.5166625  64.8690441 -12.7997654
 114.6210012  67.0384997  -8.9010012 114.8050012  66.9564997  -9.8370012
 115.4700012  66.9144997  -8.4770012 114.7610139  67.0105003  -8.9718545
 130.4420012  66.9304997  -3.2730012 131.0250012  66.1964997  -3.0810012
 131.0060012  67.7024997  -3.2260012 130.5979769  66.9344227  -3.2403841
 131.9380012  64.8334997  -2.5880012 131.0750012  64.4544997  -2.7540012
 132.5430012  64.0944997  -2.6620012 131.9015979  64.6818023  -2.6207183
 129.6630012  60.9884997 -19.4150012 130.2740012  60.6174997 -18.7780012
 128.8270012  60.5674997 -19.2190012 129.6335032  60.8807554 -19.3012965
 129.2960012  62.5434997 -14.4490012 129.5760012  61.6364997 -14.3250012
 130.0550012  62.9774997 -14.8380012 129.4369277  62.4780942 -14.4846318
 129.9080012  63.1244997  -9.0130012 130.8410012  63.3364997  -9.0470012
 129.6730012  63.2264997  -8.0910012 130.0038036  63.1672769  -8.8930024
 129.9370012  63.8614997  -6.2370012 129.0940012  64.1294997  -5.8710012
 130.3790012  64.6834997  -6.4480012 129.8814158  64.0093291  -6.2154509
 114.2180012  62.3094997  -2.7600012 115.1380012  62.1874997  -2.5240012
 113.7690012  61.5594997  -2.3710012 114.2831580  62.1913727  -2.6750994
 132.2200012  57.8414997  -0.8840012 132.5700012  57.1874997  -1.4890012
 132.3670012  58.6784997  -1.3230012 132.2878419  57.8651591  -1.0262882
 129.9090012  59.8064997 -14.4010012 130.0920012  59.3574997 -13.5750012
 129.3100012  59.2214997 -14.8640012 129.8530202  59.6659975 -14.3506725
 115.4390012  60.6214997  -9.8690012 115.8850012  59.8294997  -9.5670012
 115.9060012  61.3374997  -9.4380012 115.5630172  60.6100624  -9.7695180
 113.7430012  63.6204997  -8.8000012 114.2350012  63.3994997  -9.5910012
 114.1060012  64.4614997  -8.5190012 113.8593126  63.7038357  -8.8702469
 131.7400012  59.9504997  -2.5340012 130.8220012  60.2214997  -2.5700012
 131.8630012  59.4154997  -3.3190012 131.6311066  59.9152892  -2.6449513
 131.7760012  59.8734997 -17.8730012 132.1880012  59.1524997 -18.3480012
 132.4580012  60.5434997 -17.8140012 131.9245885  59.8652368 -17.9301085
 114.0570012  59.8784997 -14.7460012 113.1320012  60.0874997 -14.8750012
 114.5110012  60.3624997 -15.4350012 113.9917368  59.9725993 -14.8568774
 128.8280012  74.8624997 -12.8000012 129.4800012  74.5154997 -13.4080012
 129.3380012  75.3514997 -12.1540012 128.9862637  74.8810597 -12.7959764
 114.0210012  58.6164997  -6.4010012 113.3560012  58.3704997  -5.7580012
 113.5780012  59.2384997  -6.9790012 113.8700956  58.6668632  -6.3910648
 116.2130012  71.7914997  -2.2570012 115.3920012  71.9664997  -2.7170012
 115.9600012  71.7184997  -1.3360012 116.0666164  71.8055622  -2.1955077
 119.1670012  72.7664997  -5.9980012 118.7420012  73.5754997  -6.2810012
 120.0710012  72.8514997  -6.3000012 119.2310271  72.8888469  -6.0776224
 123.4780012  74.1654997  -3.0390012 123.6630012  73.8314997  -2.1610012
 124.3240012  74.4744997  -3.3610012 123.6177539  74.1616047  -2.9624395
 125.8230012  75.4514997  -3.7950012 126.5000012  74.8184997  -4.0350012
 126.1450012  75.8524997  -2.9880012 125.9591637  75.4191154  -3.7187207
 130.7400012  58.0404997  -4.7150012 129.9280012  58.3654997  -5.1030012
 130.9730012  57.2804997  -5.2480012 130.6603423  57.9822436  -4.8401747
 116.5690012  76.0224997  -5.9510012 115.8480012  76.4624997  -6.4020012
 116.2030012  75.7714997  -5.1020012 116.4209804  76.0487698  -5.8980160
 119.0360012  75.6224997  -6.9210012 118.1710012  75.6944997  -6.5170012
 118.9810012  76.1694997  -7.7050012 118.9102085  75.7062685  -6.9716638
 123.7460012  75.5104997  -7.7460012 123.2900012  76.0394997  -8.4000012
 123.9090012  76.1134997  -7.0200012 123.7055585  75.6644468  -7.7374938
 126.0740012  74.3884997  -6.8010012 125.1690012  74.5534997  -7.0660012
 126.5030012  75.2414997  -6.8660012 126.0080799  74.5264483  -6.8460818
 128.6780012  75.9584997  -6.5060012 128.4960012  76.8744997  -6.7160012
 128.8550012  75.5484997  -7.3520012 128.6770210  76.0284822  -6.6492115
 115.9830012  74.6454997  -9.0410012 115.9650012  74.2204997  -8.1830012
 116.7880012  74.3274997  -9.4490012 116.0893875  74.5443812  -8.9788345
 118.1250012  73.3554997 -10.3860012 117.9060012  72.4394997 -10.2160012
 118.9490012  73.4954997  -9.9200012 118.2064420  73.2490520 -10.2997226
 120.6620012  73.8254997  -9.5370012 120.8750012  72.9374997  -9.8240012
 120.7260012  73.7914997  -8.5830012 120.6998232  73.6993102  -9.4472603
 124.1700012  59.4894997 -10.3930012 123.4960012  58.8604997 -10.1370012
 124.7340012  59.0054997 -10.9960012 124.1539230  59.3378744 -10.4394660
 129.3130012  57.5974997 -10.2800012 129.9170012  58.1444997 -10.7820012
 128.4430012  57.9164997 -10.5200012 129.2781241  57.7155806 -10.3812346
 131.0400012  58.7354997 -11.9470012 131.6520012  58.2214997 -12.4730012
 131.4220012  59.6134997 -11.9230012 131.1754540  58.7837140 -12.0158170
 116.4970012  58.1234997 -12.5710012 115.7200012  57.8894997 -13.0780012
 117.0270012  57.3264997 -12.5620012 116.4622330  57.9836988 -12.6392258
 115.3330012  57.9214997 -16.7670012 115.7720012  58.5324997 -17.3590012
 114.7000012  58.4594997 -16.2930012 115.3074514  58.0779257 -16.7839070
 121.0760012  58.0504997 -12.7570012 121.9510012  58.4384997 -12.7870012
 120.9400012  57.8354997 -11.8350012 121.1773695  58.0745184 -12.6363560
 126.6330012  58.0804997 -11.1080012 126.7090012  58.1754997 -12.0580012
 126.3580012  57.1724997 -10.9790012 126.6062321  57.9707867 -11.2204921
 127.9860012  58.1064997 -15.4160012 127.2840012  58.7214997 -15.6250012
 127.5420012  57.2684997 -15.2850012 127.8296330  58.0775783 -15.4269672
 115.2340012  73.8694997 -15.8690012 114.5490012  73.8314997 -16.5370012
 115.2380012  74.7824997 -15.5810012 115.1408193  73.9877016 -15.9214716
 117.1940012  59.8374997 -18.3250012 117.6860012  59.2074997 -18.8520012
 117.8180012  60.1334997 -17.6610012 117.3455446  59.7913199 -18.3074020
 122.2200012  60.1304997 -15.8680012 122.3980012  59.4844997 -15.1850012
 122.1670012  60.9644997 -15.4000012 122.2371829  60.1547985 -15.7114060
 124.0990012  75.0794997 -17.4720012 124.9650012  75.4454997 -17.6500012
 123.8520012  74.6394997 -18.2860012 124.1842392  75.0701756 -17.6063711
 130.8080012  74.6424997 -14.7930012 130.6130012  73.8944997 -15.3580012
 130.7690012  75.4004997 -15.3760012 130.7760380  74.6426099 -14.9491616
 116.4550012  58.6374997  -3.0530012 116.0890012  57.8724997  -2.6100012
 117.3680012  58.6664997  -2.7660012 116.5282790  58.5367224  -2.9535930
 118.4280012  57.9884997  -1.5170012 119.3260012  57.7144997  -1.7020012
 118.0410012  57.2454997  -1.0530012 118.4986612  57.8505914  -1.4796357
 117.0520012  74.7894997 -18.8440012 116.7850012  75.0764997 -17.9710012
 117.8240012  74.2434997 -18.6920012 117.1197488  74.7550294 -18.7038950
 126.8490012  57.3204997  -1.3350012 126.9260012  56.8944997  -0.4810012
 127.7430012  57.3344997  -1.6780012 126.9803428  57.2640879  -1.2644690
 130.0250012  73.3934997  -2.6430012 129.2430012  73.2074997  -3.1620012
 129.9530012  74.3224997  -2.4250012 129.9081777  73.4936492  -2.6845952
 144.4310012  67.2794997 -12.6120012 144.5200012  68.2234997 -12.7440012
 143.7930012  67.0044997 -13.2700012 144.3569081  67.3714830 -12.7190386
 143.3640012  66.5344997  -9.1930012 143.3260012  65.8884997  -8.4880012
 143.0420012  66.0684997  -9.9640012 143.3152333  66.3829408  -9.2007022
 135.7330012  66.1494997  -7.6000012 135.7740012  65.5234997  -6.8770012
 136.4360012  66.7734997  -7.4180012 135.8336363  66.1481196  -7.4763956
 136.6560012  70.5994997  -9.0650012 136.2870012  69.7974997  -9.4350012
 137.5970012  70.4304997  -9.0190012 136.7327289  70.4670153  -9.1093684
 133.2660012  64.2594997 -13.6720012 132.8190012  65.1054997 -13.6910012
 132.7050012  63.6794997 -14.1880012 133.1289900  64.2969916 -13.7443199
 133.9770012  66.4214997 -11.5460012 134.1900012  65.6514997 -11.0190012
 134.7150012  66.5104997 -12.1500012 134.1058496  66.3281394 -11.5554700
 144.1820012  74.5784997 -10.6790012 144.8020012  73.9014997 -10.9530012
 143.9740012  74.3604997  -9.7710012 144.2386904  74.4563870 -10.5936635
 141.7540012  68.9674997  -8.7870012 142.0580012  68.2814997  -9.3820012
 142.4750012  69.0854997  -8.1690012 141.8930671  68.8896305  -8.7848184
 144.8950012  63.3614997  -8.4590012 145.0370012  62.4154997  -8.4390012
 144.7880012  63.5684997  -9.3880012 144.8999864  63.2599534  -8.5817661
 138.0490012  61.4624997 -11.1870012 138.0930012  62.3224997 -11.6050012
 137.5920012  60.9104997 -11.8210012 137.9932185  61.5055799 -11.3299701
 134.6700012  63.8594997 -10.4250012 135.3230012  63.3094997  -9.9930012
 134.6940012  63.5854997 -11.3420012 134.7626683  63.7471466 -10.4897877
 139.8260012  65.4094997 -11.2100012 140.4420012  64.8834997 -10.7000012
 139.2400012  64.7694997 -11.6130012 139.8310810  65.2509208 -11.1946827
 136.8600012  60.3804997  -7.1130012 136.6410012  60.9104997  -7.8790012
 136.1920012  60.6074997  -6.4660012 136.7397600  60.4836906  -7.1303621
 144.2290012  69.8804997 -13.5690012 143.9330012  69.5584997 -14.4200012
 143.9040012  70.7804997 -13.5280012 144.1446371  69.9580215 -13.6798199
 139.4290012  68.0564997  -6.8260012 138.6890012  68.6544997  -6.7220012
 140.1430012  68.6104997  -7.1410012 139.4242237  68.2132831  -6.8543535
 136.4530012  62.2724997  -9.1610012 137.0670012  62.9054997  -8.7870012
 136.9650012  61.8004997  -9.8170012 136.6062296  62.2952370  -9.1985748
 137.8360012  70.0204997  -6.0380012 137.8310012  70.9004997  -6.4160012
 136.9830012  69.9374997  -5.6130012 137.7199464  70.1296117  -6.0322093
 133.9570012  69.6914997 -15.2560012 133.6850012  69.9204997 -16.1450012
 134.0030012  70.5294997 -14.7960012 133.9260094  69.8361213 -15.3154303
 140.8860012  57.6864997  -9.6600012 140.7690012  56.7374997  -9.7150012
 140.0310012  58.0184997  -9.3870012 140.7543733  57.6015409  -9.6306103
 143.1530012  66.5234997 -15.1600012 142.4410012  67.0584997 -15.5120012
 143.8440012  66.5794997 -15.8200012 143.1490132  66.6042543 -15.2973711
 143.2060012  64.9814997 -18.1210012 143.9070012  65.0034997 -17.4700012
 143.5090012  64.3534997 -18.7770012 143.3427830  64.8996566 -18.1206289
 138.2040012  67.3634997 -12.3260012 137.8730012  66.9934997 -13.1440012
 138.7920012  66.6934997 -11.9790012 138.2381873  67.2221156 -12.3911898
 139.5700012  70.7914997  -9.6440012 139.4760012  70.2134997 -10.4010012
 140.3000012  70.4204997  -9.1480012 139.6557981  70.6622390  -9.6805835
 138.5700012  66.1324997  -8.6920012 139.1360012  66.2534997  -9.4550012
 138.8890012  66.7694997  -8.0530012 138.6905786  66.2351884  -8.7099960
 144.8790012  71.6354997  -7.9580012 144.6390012  72.2974997  -7.3100012
 144.6810012  70.8014997  -7.5330012 144.8193808  71.6133134  -7.8118476
 139.4500012  70.5314997  -3.9750012 139.1390012  71.3134997  -3.5200012
 138.8000012  70.3784997  -4.6610012 139.3195558  70.6179105  -4.0054129
 136.3700012  66.7294997  -4.7460012 136.4410012  67.3804997  -4.0480012
 135.4800012  66.8324997  -5.0810012 136.2593117  66.8325936  -4.6957300
 143.1560012  72.6324997 -13.0880012 143.6300012  72.9274997 -12.3100012
 142.5930012  73.3704997 -13.3210012 143.1447653  72.7726932 -13.0129864
 137.6900012  72.6034997  -3.2120012 137.6970012  72.4674997  -4.1590012
 136.7740012  72.4854997  -2.9600012 137.5671714  72.5689430  -3.3075334
 137.1940012  66.4334997 -14.7360012 136.9020012  67.2014997 -15.2270012
 136.5200012  65.7734997 -14.8990012 137.0629081  66.4494406 -14.8252660
 133.2870012  68.7964997  -5.9210012 132.7860012  68.7684997  -6.7360012
 133.2920012  67.8904997  -5.6120012 133.2191526  68.6702278  -5.9907128
 133.0370012  71.5764997  -9.0370012 133.9830012  71.4324997  -9.0560012
 132.9250012  72.3604997  -8.5000012 133.1512727  71.6628046  -8.9669928
 142.2140012  71.8164997  -4.4790012 142.3010012  72.6424997  -4.0040012
 141.3500012  71.4864997  -4.2300012 142.1091964  71.8849878  -4.3803451
 142.6280012  75.5884997 -14.6730012 142.5530012  75.4674997 -15.6190012
 142.6610012  76.5384997 -14.5540012 142.6221848  75.7002500 -14.7865166
 136.2810012  74.3774997 -12.8920012 136.4340012  74.0294997 -12.0130012
 135.4310012  74.0214997 -13.1470012 136.1868962  74.2816650 -12.8061660
 135.5360012  70.1194997  -4.8780012 135.7520012  69.7584997  -4.0190012
 134.6810012  69.7454997  -5.0880012 135.4499292  70.0194111  -4.7886614
 138.1550012  58.5894997  -8.8830012 137.2930012  58.5024997  -9.2900012
 138.1320012  59.4454997  -8.4550012 138.0340330  58.6932765  -8.8808137
 142.8180012  58.3114997  -5.5080012 143.2380012  57.8964997  -4.7550012
 141.8850012  58.1334997  -5.3910012 142.7493644  58.2305900  -5.3890461
 142.4790012  60.8044997 -18.2230012 142.2260012  60.8234997 -17.3000012
 142.2230012  59.9324997 -18.5240012 142.4097790  60.6892437 -18.1373737
 138.2460012  63.5554997  -7.7880012 137.6040012  63.5144997  -7.0790012
 138.2830012  64.4814997  -8.0250012 138.1631324  63.6751559  -7.7230176
 138.2430012  63.7764997 -12.8760012 137.3500012  63.4354997 -12.9340012
 138.6930012  63.3994997 -13.6310012 138.1817305  63.6788484 -12.9860823
 143.7780012  64.1924997 -14.0590012 143.3690012  65.0074997 -14.3500012
 144.4990012  64.0524997 -14.6730012 143.8194537  64.2852018 -14.1818658
 142.8800012  64.3674997  -2.5710012 142.3180012  63.6634997  -2.2500012
 143.7070012  64.2474997  -2.1030012 142.9147095  64.2547883  -2.4637670
 144.7830012  63.6384997 -11.2450012 144.5880012  64.2434997 -11.9600012
 144.9640012  62.8044997 -11.6790012 144.7807614  63.6086300 -11.4015595
 135.9960012  63.8754997  -5.9210012 135.9580012  64.2754997  -5.0520012
 135.5050012  63.0584997  -5.8300012 135.9244684  63.8198069  -5.7898941
 139.3620012  61.2494997 -19.1220012 138.9310012  60.8044997 -18.3920012
 138.6440012  61.6214997 -19.6340012 139.2059438  61.2388940 -19.0913201
 132.6040012  60.9914997 -12.0700012 133.2350012  60.9624997 -11.3510012
 133.0530012  60.5664997 -12.8000012 132.7510774  60.9300492 -12.0703447
 133.8780012  61.7374997 -16.6460012 134.3520012  62.3284997 -17.2310012
 133.1610012  62.2684997 -16.2990012 133.8459341  61.8900867 -16.6791164
 144.0470012  65.2764997  -6.5730012 144.3700012  64.6454997  -7.2160012
 143.6070012  64.7414997  -5.9130012 144.0316895  65.1178440  -6.5717150
 140.8240012  61.2034997 -11.7890012 139.9130012  61.2604997 -11.5010012
 141.3300012  61.1434997 -10.9790012 140.7675413  61.2031985 -11.6399378
 135.6530012  62.8324997 -12.9630012 134.7630012  62.9324997 -13.3030012
 135.9490012  61.9904997 -13.3090012 135.5712823  62.7323545 -13.0562787
 139.3060012  62.8324997 -15.3060012 140.2370012  62.9614997 -15.1280012
 139.0910012  63.5024997 -15.9560012 139.4044247  62.9406565 -15.3694253
 137.9800012  64.0274997 -17.7390012 137.4370012  63.6474997 -18.4310012
 138.8130012  64.2214997 -18.1680012 138.0184399  64.0018124 -17.8915474
 136.1150012  68.5844997  -2.6400012 136.8470012  68.8384997  -2.0790012
 135.3350012  68.7884997  -2.1250012 136.1098232  68.6469177  -2.4934240
 142.1440012  63.9914997  -9.9020012 142.7090012  63.4444997 -10.4490012
 141.9970012  63.4694997  -9.1140012 142.2012918  63.8462024  -9.8701546
 137.1460012  60.1274997 -13.4840012 136.8290012  59.2254997 -13.5190012
 137.9280012  60.1294997 -14.0370012 137.2082284  60.0041628 -13.5635217
 140.7710012  62.3794997  -7.4880012 139.9350012  62.8334997  -7.3780012
 141.2950012  62.6554997  -6.7360012 140.7274414  62.4789376  -7.3712864
 141.3150012  68.5924997 -15.8040012 140.5700012  68.0854997 -16.1260012
 141.1810012  68.6414997 -14.8570012 141.1948776  68.5296940 -15.7201353
 142.8340012  68.7764997  -4.5670012 142.4890012  68.3954997  -3.7600012
 142.6340012  69.7104997  -4.4950012 142.7598061  68.8505228  -4.4469039
 136.4400012  67.8874997 -10.0340012 137.1850012  67.8854997 -10.6350012
 136.5180012  67.0644997  -9.5520012 136.5525518  67.7759315 -10.0511071
 143.4410012  70.0514997 -16.7780012 143.1450012  70.8774997 -16.3970012
 142.7380012  69.4314997 -16.5820012 143.3054914  70.0808199 -16.6993557
 133.4480012  66.3484997  -4.7190012 133.6710012  65.9304997  -3.8870012
 132.8460012  65.7354997  -5.1420012 133.3971759  66.2084668  -4.6622978
 140.4640012  65.8654997  -2.5060012 140.1680012  65.6994997  -3.4010012
 141.3960012  65.6454997  -2.5170012 140.5494166  65.8130640  -2.6299464
 138.8150012  71.4054997 -12.6300012 139.3420012  72.1784997 -12.8300012
 137.9350012  71.6304997 -12.9310012 138.7681773  71.5418005 -12.6980990
 134.5700012  66.2674997 -18.0430012 135.1860012  66.8944997 -17.6630012
 133.7080012  66.5834997 -17.7710012 134.5377698  66.3959430 -17.9542817
 140.2420012  69.0684997 -13.0530012 140.0010012  69.9934997 -13.0120012
 139.5010012  68.6094997 -12.6570012 140.1088409  69.1331421 -12.9938623
 140.7570012  73.2174997  -6.7380012 141.1190012  74.0724997  -6.9720012
 141.2880012  72.9254997  -5.9980012 140.8784473  73.2951060  -6.6699145
 138.9250012  74.0904997 -13.5080012 137.9750012  74.1954997 -13.4570012
 139.2770012  74.9104997 -13.1630012 138.8424203  74.2158314 -13.4543350
 144.3010012  69.3164997  -7.0380012 143.8750012  69.0894997  -6.2110012
 144.8810012  68.5784997  -7.2200012 144.3211868  69.1855299  -6.9494170
 135.0820012  61.1014997  -5.1610012 134.1890012  61.4404997  -5.2290012
 134.9830012  60.2464997  -4.7430012 134.9464164  61.0322588  -5.1137765
 134.7330012  72.9064997  -6.7260012 134.9500012  71.9744997  -6.7570012
 134.9790012  73.1804997  -5.8430012 134.7959549  72.8160636  -6.6108237
 140.5950012  71.3574997 -19.5170012 140.8340012  70.6094997 -20.0640012
 140.3260012  70.9694997 -18.6840012 140.5913675  71.2026638 -19.4793135
 139.5320012  70.9274997 -17.0600012 139.6780012  70.4074997 -16.2700012
 139.5290012  71.8344997 -16.7540012 139.5515989  70.9788853 -16.9103912
 135.9850012  68.1804997 -16.5500012 135.2990012  68.5324997 -15.9830012
 136.5070012  68.9434997 -16.7970012 135.9616852  68.3318578 -16.5057882
 143.8160012  60.8424997  -6.2710012 144.5150012  60.9164997  -5.6210012
 143.4350012  59.9784997  -6.1170012 143.8601767  60.7357624  -6.1611678
 144.6010012  60.4944997 -15.1740012 144.8210012  60.9664997 -15.9770012
 145.1590012  60.8894997 -14.5040012 144.7064968  60.6124285 -15.1932669
 142.2690012  72.6254997 -16.3110012 141.4530012  73.1224997 -16.2590012
 142.7990012  73.1004997 -16.9510012 142.2289161  72.7577722 -16.3904044
 141.8010012  62.2224997 -14.3390012 142.6130012  62.7274997 -14.2930012
 141.5560012  62.0774997 -13.4250012 141.8790520  62.2720375 -14.2091483
 142.3360012  63.2084997  -5.1540012 142.4550012  63.7824997  -4.3970012
 142.9920012  62.5204997  -5.0400012 142.4409757  63.1941079  -5.0349175
 142.6840012  59.3034997 -13.4010012 142.3380012  59.9214997 -12.7560012
 143.3430012  59.8044997 -13.8820012 142.7257826  59.4555802 -13.3779029
 139.6080012  73.6694997 -16.3290012 139.7680012  74.4684997 -16.8300012
 139.4100012  73.9754997 -15.4440012 139.6031649  73.8204469 -16.2780185
 138.3420012  60.3664997 -16.7140012 138.2590012  61.2554997 -16.3670012
 139.2320012  60.1014997 -16.4820012 138.4509469  60.4521430 -16.6352374
 136.6010012  70.7944997 -17.6530012 137.1930012  71.4934997 -17.3770012
 137.0600012  70.3614997 -18.3730012 136.7441142  70.8317049 -17.7125170
 134.9170012  63.4584997 -18.5370012 134.8720012  64.3974997 -18.3590012
 134.0290012  63.2224997 -18.8070012 134.7908574  63.5551892 -18.5491088
 135.7250012  58.2404997  -9.8640012 135.4960012  58.2994997 -10.7920012
 135.2820012  57.4484997  -9.5580012 135.6338530  58.1415753  -9.9495214
 134.6550012  72.1804997 -13.7040012 133.8230012  72.6534997 -13.6760012
 135.2010012  72.6904997 -14.3020012 134.6149739  72.3141871 -13.7810284
 133.9430012  74.7934997  -2.3740012 134.4840012  74.5764997  -1.6140012
 133.4620012  73.9874997  -2.5630012 133.9519345  74.6549514  -2.2956924
 138.5410012  73.7124997  -0.7530012 139.3080012  73.2534997  -0.4120012
 138.5190012  73.4864997  -1.6830012 138.6431434  73.6190409  -0.8319957
 142.6330012  73.2204997 -19.3780012 141.9890012  72.5894997 -19.0570012
 143.3950012  72.6894997 -19.6100012 142.6478077  73.0622920 -19.3653989
 133.8500012  68.6034997  -1.4190012 133.9940012  67.7014997  -1.7060012
 133.0780012  68.8894997  -1.9070012 133.7653322  68.5188261  -1.5242119
 138.1920012  68.9474997 -19.2870012 138.2560012  68.1534997 -18.7560012
 138.8450012  68.8284997 -19.9770012 138.2890241  68.8227148 -19.3075683
 140.5060012  68.5734997  -1.9870012 140.1770012  68.8444997  -2.8440012
 140.6580012  67.6324997  -2.0740012 140.4814809  68.4833862  -2.1161756
 134.6830012  65.8034997  -1.9990012 135.0910012  64.9464997  -2.1200012
 134.4230012  65.8184997  -1.0780012 134.7037568  65.6880807  -1.8910412
 139.3410012  66.9194997 -16.9810012 138.8810012  66.4354997 -16.2950012
 139.5960012  66.2514997 -17.6170012 139.3124902  66.7628731 -16.9730666
 138.6300012  64.8124997  -4.6250012 138.0120012  65.4874997  -4.3450012
 138.9740012  65.1334997  -5.4580012 138.5919615  64.9482721  -4.6993419
 140.4120012  65.1624997 -18.7190012 140.2320012  65.0084997 -19.6460012
 141.3620012  65.2704997 -18.6740012 140.5157776  65.1560175 -18.8398157
 143.6500012  67.2844997  -1.3480012 144.6030012  67.3674997  -1.3750012
 143.4890012  66.5724997  -0.7280012 143.7586426  67.1996746  -1.2679421
 138.9690012  62.1674997  -3.5430012 139.1190012  61.4384997  -4.1450012
 138.9720012  62.9444997  -4.1020012 138.9899302  62.1727851  -3.7009308
 139.3820012  60.5374997  -6.0500012 139.9180012  60.9884997  -6.7020012
 138.5300012  60.4294997  -6.4730012 139.3402178  60.5846390  -6.1964244
 140.9640012  65.9764997  -5.8110012 141.7140012  65.8204997  -6.3840012
 140.6250012  66.8284997  -6.0860012 141.0208921  66.0702968  -5.9266439
 137.4480012  63.3654997  -1.6310012 136.6810012  62.8334997  -1.8410012
 138.1270012  63.0554997  -2.2310012 137.4347022  63.2507506  -1.7408352
 140.1880012  57.9934997  -5.6190012 140.0890012  58.9404997  -5.7240012
 139.4450012  57.6214997  -6.0940012 140.0740564  58.0725902  -5.6975440
 141.4520012  62.3154997  -2.0550012 141.2160012  62.0954997  -1.1530012
 140.6680012  62.1084997  -2.5650012 141.3138628  62.2574760  -2.0006068
 144.1670012  61.4424997  -2.9790012 143.2200012  61.4744997  -2.8470012
 144.4800012  60.8174997  -2.3260012 144.0795475  61.3623207  -2.8725545
 135.6280012  61.2864997  -1.9270012 135.8400012  60.5794997  -2.5370012
 135.5170012  60.8484997  -1.0830012 135.6419721  61.1307084  -1.8963157
 140.4090012  57.2874997  -2.9470012 141.1210012  56.6474997  -2.9610012
 140.3080012  57.5544997  -3.8610012 140.4927939  57.2359938  -3.0724350
 140.7630012  58.9704997  -0.8940012 140.6310012  58.4944997  -1.7140012
 140.1640012  59.7144997  -0.9490012 140.6639071  59.0059618  -1.0137114
 140.3090012  75.8534997 -17.7170012 141.2420012  76.0114997 -17.5740012
 140.0450012  76.5284997 -18.3420012 140.4009510  75.9663611 -17.7819259
 133.8780012  70.4894997 -18.2350012 134.7920012  70.5684997 -17.9610012
 133.8850012  69.8024997 -18.9010012 134.0041131  70.4073961 -18.2875607
 132.5270012  75.8824997 -13.1570012 131.8800012  75.4204997 -13.6900012
 132.8810012  75.2104997 -12.5750012 132.4863849  75.7284723 -13.1512041
 133.3970012  73.9634997 -11.3530012 133.0620012  73.0834997 -11.1810012
 133.6190012  74.3084997 -10.4880012 133.3811783  73.8897500 -11.2125792
 133.4770012  67.0384997  -8.9010012 133.6610012  66.9564997  -9.8370012
 134.3260012  66.9144997  -8.4770012 133.6170139  67.0105003  -8.9718545
 133.0740012  62.3094997  -2.7600012 133.9940012  62.1874997  -2.5240012
 132.6250012  61.5594997  -2.3710012 133.1391580  62.1913727  -2.6750994
 134.2950012  60.6214997  -9.8690012 134.7410012  59.8294997  -9.5670012
 134.7620012  61.3374997  -9.4380012 134.4190172  60.6100624  -9.7695180
 132.5990012  63.6204997  -8.8000012 133.0910012  63.3994997  -9.5910012
 132.9620012  64.4614997  -8.5190012 132.7153126  63.7038357  -8.8702469
 132.9130012  59.8784997 -14.7460012 131.9880012  60.0874997 -14.8750012
 133.3670012  60.3624997 -15.4350012 132.8477368  59.9725993 -14.8568774
 132.8770012  58.6164997  -6.4010012 132.2120012  58.3704997  -5.7580012
 132.4340012  59.2384997  -6.9790012 132.7260956  58.6668632  -6.3910648
 135.0690012  71.7914997  -2.2570012 134.2480012  71.9664997  -2.7170012
 134.8160012  71.7184997  -1.3360012 134.9226164  71.8055622  -2.1955077
 138.0230012  72.7664997  -5.9980012 137.5980012  73.5754997  -6.2810012
 138.9270012  72.8514997  -6.3000012 138.0870271  72.8888469  -6.0776224
 142.3340012  74.1654997  -3.0390012 142.5190012  73.8314997  -2.1610012
 143.1800012  74.4744997  -3.3610012 142.4737539  74.1616047  -2.9624395
 144.6790012  75.4514997  -3.7950012 145.3560012  74.8184997  -4.0350012
 145.0010012  75.8524997  -2.9880012 144.8151637  75.4191154  -3.7187207
 135.4250012  76.0224997  -5.9510012 134.7040012  76.4624997  -6.4020012
 135.0590012  75.7714997  -5.1020012 135.2769804  76.0487698  -5.8980160
 137.8920012  75.6224997  -6.9210012 137.0270012  75.6944997  -6.5170012
 137.8370012  76.1694997  -7.7050012 137.7662085  75.7062685  -6.9716638
 142.6020012  75.5104997  -7.7460012 142.1460012  76.0394997  -8.4000012
 142.7650012  76.1134997  -7.0200012 142.5615585  75.6644468  -7.7374938
 134.8390012  74.6454997  -9.0410012 134.8210012  74.2204997  -8.1830012
 135.6440012  74.3274997  -9.4490012 134.9453875  74.5443812  -8.9788345
 136.9810012  73.3554997 -10.3860012 136.7620012  72.4394997 -10.2160012
 137.8050012  73.4954997  -9.9200012 137.0624420  73.2490520 -10.2997226
 139.5180012  73.8254997  -9.5370012 139.7310012  72.9374997  -9.8240012
 139.5820012  73.7914997  -8.5830012 139.5558232  73.6993102  -9.4472603
 143.0260012  59.4894997 -10.3930012 142.3520012  58.8604997 -10.1370012
 143.5900012  59.0054997 -10.9960012 143.0099230  59.3378744 -10.4394660
 135.3530012  58.1234997 -12.5710012 134.5760012  57.8894997 -13.0780012
 135.8830012  57.3264997 -12.5620012 135.3182330  57.9836988 -12.6392258
 134.1890012  57.9214997 -16.7670012 134.6280012  58.5324997 -17.3590012
 133.5560012  58.4594997 -16.2930012 134.1634514  58.0779257 -16.7839070
 139.9320012  58.0504997 -12.7570012 140.8070012  58.4384997 -12.7870012
 139.7960012  57.8354997 -11.8350012 140.0333695  58.0745184 -12.6363560
 134.0900012  73.8694997 -15.8690012 133.4050012  73.8314997 -16.5370012
 134.0940012  74.7824997 -15.5810012 133.9968193  73.9877016 -15.9214716
 136.0500012  59.8374997 -18.3250012 136.5420012  59.2074997 -18.8520012
 136.6740012  60.1334997 -17.6610012 136.2015446  59.7913199 -18.3074020
 141.0760012  60.1304997 -15.8680012 141.2540012  59.4844997 -15.1850012
 141.0230012  60.9644997 -15.4000012 141.0931829  60.1547985 -15.7114060
 142.9550012  75.0794997 -17.4720012 143.8210012  75.4454997 -17.6500012
 142.7080012  74.6394997 -18.2860012 143.0402392  75.0701756 -17.6063711
 135.3110012  58.6374997  -3.0530012 134.9450012  57.8724997  -2.6100012
 136.2240012  58.6664997  -2.7660012 135.3842790  58.5367224  -2.9535930
 137.2840012  57.9884997  -1.5170012 138.1820012  57.7144997  -1.7020012
 136.8970012  57.2454997  -1.0530012 137.3546612  57.8505914  -1.4796357
 135.9080012  74.7894997 -18.8440012 135.6410012  75.0764997 -17.9710012
 136.6800012  74.2434997 -18.6920012 135.9757488  74.7550294 -18.7038950
  12.4390012  86.1354997 -12.6120012  12.5280012  87.0794997 -12.7440012
  11.8010012  85.8604997 -13.2700012  12.3649081  86.2274830 -12.7190386
  11.3720012  85.3904997  -9.1930012  11.3340012  84.7444997  -8.4880012
  11.0500012  84.9244997  -9.9640012  11.3232333  85.2389408  -9.2007022
   3.7410012  85.0054997  -7.6000012   3.7820012  84.3794997  -6.8770012
   4.4440012  85.6294997  -7.4180012   3.8416363  85.0041196  -7.4763956
  15.0780012  88.3294997 -10.8920012  14.6380012  87.6094997 -10.4410012
  15.0650012  89.0504997 -10.2620012  15.0160226  88.3283731 -10.7451506
   4.6640012  89.4554997  -9.0650012   4.2950012  88.6534997  -9.4350012
   5.6050012  89.2864997  -9.0190012   4.7407289  89.3230153  -9.1093684
   1.2740012  83.1154997 -13.6720012   0.8270012  83.9614997 -13.6910012
   0.7130012  82.5354997 -14.1880012   1.1369900  83.1529916 -13.7443199
   1.9850012  85.2774997 -11.5460012   2.1980012  84.5074997 -11.0190012
   2.7230012  85.3664997 -12.1500012   2.1138496  85.1841394 -11.5554700
  12.1900012  93.4344997 -10.6790012  12.8100012  92.7574997 -10.9530012
  11.9820012  93.2164997  -9.7710012  12.2466904  93.3123870 -10.5936635
   9.7620012  87.8234997  -8.7870012  10.0660012  87.1374997  -9.3820012
  10.4830012  87.9414997  -8.1690012   9.9010671  87.7456305  -8.7848184
  18.4250012  79.4244997  -7.9260012  18.4740012  80.0344997  -7.1900012
  18.8500012  79.8854997  -8.6490012  18.4891824  79.5703741  -7.9229795
  12.9030012  82.2174997  -8.4590012  13.0450012  81.2714997  -8.4390012
  12.7960012  82.4244997  -9.3880012  12.9079864  82.1159534  -8.5817661
   6.0570012  80.3184997 -11.1870012   6.1010012  81.1784997 -11.6050012
   5.6000012  79.7664997 -11.8210012   6.0012185  80.3615799 -11.3299701
  13.7800012  80.4494997 -12.7860012  14.4260012  80.1204997 -12.1610012
  14.2900012  80.9674997 -13.4090012  13.9374264  80.4744611 -12.7846138
   2.6780012  82.7154997 -10.4250012   3.3310012  82.1654997  -9.9930012
   2.7020012  82.4414997 -11.3420012   2.7706683  82.6031466 -10.4897877
   7.8340012  84.2654997 -11.2100012   8.4500012  83.7394997 -10.7000012
   7.2480012  83.6254997 -11.6130012   7.8390810  84.1069208 -11.1946827
  18.8160012  80.9024997  -5.6900012  18.1280012  81.5604997  -5.7860012
  18.8320012  80.7054997  -4.7540012  18.7238525  80.9660462  -5.5765192
   4.8680012  79.2364997  -7.1130012   4.6490012  79.7664997  -7.8790012
   4.2000012  79.4634997  -6.4660012   4.7477600  79.3396906  -7.1303621
  12.2370012  88.7364997 -13.5690012  11.9410012  88.4144997 -14.4200012
  11.9120012  89.6364997 -13.5280012  12.1526371  88.8140215 -13.6798199
   7.4370012  86.9124997  -6.8260012   6.6970012  87.5104997  -6.7220012
   8.1510012  87.4664997  -7.1410012   7.4322237  87.0692831  -6.8543535
  15.5440012  79.7404997 -10.8060012  15.3280012  78.9744997 -10.2730012
  16.1990012  80.2124997 -10.2930012  15.6030632  79.6995889 -10.6637139
   4.4610012  81.1284997  -9.1610012   5.0750012  81.7614997  -8.7870012
   4.9730012  80.6564997  -9.8170012   4.6142296  81.1512370  -9.1985748
   5.8440012  88.8764997  -6.0380012   5.8390012  89.7564997  -6.4160012
   4.9910012  88.7934997  -5.6130012   5.7279464  88.9856117  -6.0322093
   1.9650012  88.5474997 -15.2560012   1.6930012  88.7764997 -16.1450012
   2.0110012  89.3854997 -14.7960012   1.9340094  88.6921213 -15.3154303
  15.5900012  90.1694997  -8.5440012  14.6490012  90.2274997  -8.3820012
  15.8670012  91.0754997  -8.6810012  15.4984679  90.2999443  -8.5403185
  15.8910012  78.4554997  -7.1260012  15.1550012  79.0664997  -7.1640012
  16.5740012  78.8704997  -7.6530012  15.8826541  78.5951374  -7.2024168
   8.8940012  76.5424997  -9.6600012   8.7770012  75.5934997  -9.7150012
   8.0390012  76.8744997  -9.3870012   8.7623733  76.4575409  -9.6306103
  13.8420012  91.9504997 -11.9180012  14.2680012  91.2434997 -12.4030012
  14.1590012  92.7514997 -12.3350012  13.9431019  91.9620994 -12.0406870
  15.0020012  89.8514997 -13.4100012  14.7440012  89.1614997 -14.0210012
  15.0730012  89.4084997 -12.5640012  14.9762856  89.6972124 -13.3793115
  16.6880012  88.4174997  -4.9320012  16.8280012  87.8264997  -5.6720012
  16.8550012  89.2904997  -5.2890012  16.7296778  88.4546426  -5.0813035
  11.1610012  85.3794997 -15.1600012  10.4490012  85.9144997 -15.5120012
  11.8520012  85.4354997 -15.8200012  11.1570132  85.4602543 -15.2973711
  11.2140012  83.8374997 -18.1210012  11.9150012  83.8594997 -17.4700012
  11.5170012  83.2094997 -18.7770012  11.3507830  83.7556566 -18.1206289
  18.5300012  84.7574997  -6.8660012  17.8770012  85.4524997  -6.7770012
  18.9950012  84.9674997  -7.6760012  18.5035390  84.8809425  -6.9633117
  14.5660012  85.5894997 -14.2080012  13.8340012  85.8174997 -13.6350012
  15.0140012  84.8754997 -13.7530012  14.5263095  85.5242571 -14.0680881
  14.4640012  83.7634997  -5.1410012  14.5440012  84.5264997  -4.5690012
  13.8620012  84.0424997  -5.8310012  14.3935756  83.9057134  -5.1559411
   6.2120012  86.2194997 -12.3260012   5.8810012  85.8494997 -13.1440012
   6.8000012  85.5494997 -11.9790012   6.2461873  86.0781156 -12.3911898
   7.5780012  89.6474997  -9.6440012   7.4840012  89.0694997 -10.4010012
   8.3080012  89.2764997  -9.1480012   7.6637981  89.5182390  -9.6805835
   6.5780012  84.9884997  -8.6920012   7.1440012  85.1094997  -9.4550012
   6.8970012  85.6254997  -8.0530012   6.6985786  85.0911884  -8.7099960
  12.8870012  90.4914997  -7.9580012  12.6470012  91.1534997  -7.3100012
  12.6890012  89.6574997  -7.5330012  12.8273808  90.4693134  -7.8118476
   7.4580012  89.3874997  -3.9750012   7.1470012  90.1694997  -3.5200012
   6.8080012  89.2344997  -4.6610012   7.3275558  89.4739105  -4.0054129
  13.4370012  84.7514997 -16.5230012  14.0170012  84.9014997 -15.7760012
  13.8510012  85.2224997 -17.2460012  13.5722830  84.8356841 -16.5185866
   4.3780012  85.5854997  -4.7460012   4.4490012  86.2364997  -4.0480012
   3.4880012  85.6884997  -5.0810012   4.2673117  85.6885936  -4.6957300
  11.1640012  91.4884997 -13.0880012  11.6380012  91.7834997 -12.3100012
  10.6010012  92.2264997 -13.3210012  11.1527653  91.6286932 -13.0129864
   5.6980012  91.4594997  -3.2120012   5.7050012  91.3234997  -4.1590012
   4.7820012  91.3414997  -2.9600012   5.5751714  91.4249430  -3.3075334
  17.1360012  76.5014997 -16.7100012  16.2360012  76.6404997 -16.4150012
  17.3880012  77.3324997 -17.1120012  17.0468702  76.6329074 -16.7239795
   5.2020012  85.2894997 -14.7360012   4.9100012  86.0574997 -15.2270012
   4.5280012  84.6294997 -14.8990012   5.0709081  85.3054406 -14.8252660
  18.3250012  90.8674997 -18.3340012  18.3990012  91.8064997 -18.1630012
  19.2310012  90.5624997 -18.3900012  18.4575100  90.9546722 -18.3181881
   1.2950012  87.6524997  -5.9210012   0.7940012  87.6244997  -6.7360012
   1.3000012  86.7464997  -5.6120012   1.2271526  87.5262278  -5.9907128
   1.0450012  90.4324997  -9.0370012   1.9910012  90.2884997  -9.0560012
   0.9330012  91.2164997  -8.5000012   1.1592727  90.5188046  -8.9669928
  19.2430012  91.0984997  -3.3550012  19.1940012  90.1434997  -3.3920012
  18.4160012  91.3664997  -2.9540012  19.1244940  91.0038998  -3.3058625
  10.2220012  90.6724997  -4.4790012  10.3090012  91.4984997  -4.0040012
   9.3580012  90.3424997  -4.2300012  10.1171964  90.7409878  -4.3803451
  10.6360012  94.4444997 -14.6730012  10.5610012  94.3234997 -15.6190012
  10.6690012  95.3944997 -14.5540012  10.6301848  94.5562500 -14.7865166
   4.2890012  93.2334997 -12.8920012   4.4420012  92.8854997 -12.0130012
   3.4390012  92.8774997 -13.1470012   4.1948962  93.1376650 -12.8061660
  13.7380012  93.5984997 -17.6710012  14.1130012  92.8544997 -18.1410012
  13.7420012  93.3284997 -16.7520012  13.7898915  93.4601486 -17.6112176
  13.4070012  93.5244997 -14.9210012  12.4710012  93.6244997 -14.7430012
  13.6870012  92.8154997 -14.3430012  13.3168255  93.4422711 -14.8184609
  16.3950012  82.5914997  -2.8750012  15.9880012  83.0724997  -3.5960012
  16.4360012  81.6864997  -3.1830012  16.3448437  82.5349374  -3.0153317
   3.5440012  88.9754997  -4.8780012   3.7600012  88.6144997  -4.0190012
   2.6890012  88.6014997  -5.0880012   3.4579292  88.8754111  -4.7886614
   6.1630012  77.4454997  -8.8830012   5.3010012  77.3584997  -9.2900012
   6.1400012  78.3014997  -8.4550012   6.0420330  77.5492765  -8.8808137
  10.8260012  77.1674997  -5.5080012  11.2460012  76.7524997  -4.7550012
   9.8930012  76.9894997  -5.3910012  10.7573644  77.0865900  -5.3890461
  14.1520012  80.9234997  -4.6550012  13.6380012  80.7974997  -3.8570012
  13.9970012  81.8354997  -4.8990012  14.0606852  81.0296132  -4.5787842
  14.9150012  85.7844997 -18.8930012  14.9570012  85.5614997 -19.8230012
  15.7640012  86.1834997 -18.7030012  15.0355396  85.8079155 -18.9946373
  10.4870012  79.6604997 -18.2230012  10.2340012  79.6794997 -17.3000012
  10.2310012  78.7884997 -18.5240012  10.4177790  79.5452437 -18.1373737
   6.2540012  82.4114997  -7.7880012   5.6120012  82.3704997  -7.0790012
   6.2910012  83.3374997  -8.0250012   6.1711324  82.5311559  -7.7230176
   6.2510012  82.6324997 -12.8760012   5.3580012  82.2914997 -12.9340012
   6.7010012  82.2554997 -13.6310012   6.1897305  82.5348484 -12.9860823
  11.7860012  83.0484997 -14.0590012  11.3770012  83.8634997 -14.3500012
  12.5070012  82.9084997 -14.6730012  11.8274537  83.1412018 -14.1818658
  10.8880012  83.2234997  -2.5710012  10.3260012  82.5194997  -2.2500012
  11.7150012  83.1034997  -2.1030012  10.9227095  83.1107883  -2.4637670
  12.7910012  82.4944997 -11.2450012  12.5960012  83.0994997 -11.9600012
  12.9720012  81.6604997 -11.6790012  12.7887614  82.4646300 -11.4015595
   4.0040012  82.7314997  -5.9210012   3.9660012  83.1314997  -5.0520012
   3.5130012  81.9144997  -5.8300012   3.9324684  82.6758069  -5.7898941
   7.3700012  80.1054997 -19.1220012   6.9390012  79.6604997 -18.3920012
   6.6520012  80.4774997 -19.6340012   7.2139438  80.0948940 -19.0913201
   0.6120012  79.8474997 -12.0700012   1.2430012  79.8184997 -11.3510012
   1.0610012  79.4224997 -12.8000012   0.7590774  79.7860492 -12.0703447
   1.8860012  80.5934997 -16.6460012   2.3600012  81.1844997 -17.2310012
   1.1690012  81.1244997 -16.2990012   1.8539341  80.7460867 -16.6791164
  12.0550012  84.1324997  -6.5730012  12.3780012  83.5014997  -7.2160012
  11.6150012  83.5974997  -5.9130012  12.0396895  83.9738441  -6.5717150
   8.8320012  80.0594997 -11.7890012   7.9210012  80.1164997 -11.5010012
   9.3380012  79.9994997 -10.9790012   8.7755413  80.0591985 -11.6399378
   3.6610012  81.6884997 -12.9630012   2.7710012  81.7884997 -13.3030012
   3.9570012  80.8464997 -13.3090012   3.5792823  81.5883546 -13.0562787
   7.3140012  81.6884997 -15.3060012   8.2450012  81.8174997 -15.1280012
   7.0990012  82.3584997 -15.9560012   7.4124247  81.7966565 -15.3694253
  13.2370012  79.2944997  -8.5250012  12.5610012  79.4254997  -7.8610012
  12.7520012  79.1394997  -9.3350012  13.0787145  79.2914905  -8.5435483
   5.9880012  82.8834997 -17.7390012   5.4450012  82.5034997 -18.4310012
   6.8210012  83.0774997 -18.1680012   6.0264399  82.8578124 -17.8915474
  16.5250012  94.9664997  -2.2480012  16.7250012  95.3904997  -3.0830012
  17.1800012  95.3094997  -1.6410012  16.6410051  95.0709648  -2.2802164
   4.1230012  87.4404997  -2.6400012   4.8550012  87.6944997  -2.0790012
   3.3430012  87.6444997  -2.1250012   4.1178232  87.5029177  -2.4934240
  10.1520012  82.8474997  -9.9020012  10.7170012  82.3004997 -10.4490012
  10.0050012  82.3254997  -9.1140012  10.2092918  82.7022024  -9.8701546
   5.1540012  78.9834997 -13.4840012   4.8370012  78.0814997 -13.5190012
   5.9360012  78.9854997 -14.0370012   5.2162284  78.8601628 -13.5635217
   8.7790012  81.2354997  -7.4880012   7.9430012  81.6894997  -7.3780012
   9.3030012  81.5114997  -6.7360012   8.7354414  81.3349376  -7.3712864
   9.3230012  87.4484997 -15.8040012   8.5780012  86.9414997 -16.1260012
   9.1890012  87.4974997 -14.8570012   9.2028776  87.3856940 -15.7201353
  16.4730012  86.5814997  -7.0170012  17.1150012  87.0384997  -7.5610012
  15.6430012  86.6944997  -7.4800012  16.4485963  86.6592704  -7.1539823
  13.2210012  80.2624997 -17.6040012  12.2820012  80.3744997 -17.7560012
  13.5180012  81.1194997 -17.2980012  13.1327666  80.3936443 -17.5834232
  10.8420012  87.6324997  -4.5670012  10.4970012  87.2514997  -3.7600012
  10.6420012  88.5664997  -4.4950012  10.7678061  87.7065228  -4.4469039
  13.9390012  82.1294997 -15.9440012  14.8310012  81.9924997 -15.6250012
  13.9960012  82.9204997 -16.4800012  14.0686285  82.2176660 -15.9728310
   4.4480012  86.7434997 -10.0340012   5.1930012  86.7414997 -10.6350012
   4.5260012  85.9204997  -9.5520012   4.5605518  86.6319315 -10.0511071
  11.4490012  88.9074997 -16.7780012  11.1530012  89.7334997 -16.3970012
  10.7460012  88.2874997 -16.5820012  11.3134914  88.9368199 -16.6993557
   1.4560012  85.2044997  -4.7190012   1.6790012  84.7864997  -3.8870012
   0.8540012  84.5914997  -5.1420012   1.4051759  85.0644668  -4.6622978
   8.4720012  84.7214997  -2.5060012   8.1760012  84.5554997  -3.4010012
   9.4040012  84.5014997  -2.5170012   8.5574166  84.6690640  -2.6299464
  13.0930012  90.0944997  -4.6160012  12.1920012  90.2774997  -4.8840012
  13.1270012  90.3534997  -3.6950012  12.9743041  90.1545512  -4.5281803
  18.8240012  82.3394997 -16.2490012  18.2700012  81.9434997 -16.9210012
  18.9240012  83.2494997 -16.5270012  18.7617059  82.4083586 -16.3785599
  18.7870012  88.1394997  -3.4120012  17.9360012  88.3774997  -3.7790012
  19.3780012  88.1224997  -4.1650012  18.7502487  88.1698258  -3.5641107
  17.1190012  91.1254997 -15.7840012  16.7460012  90.2994997 -15.4750012
  17.3970012  90.9424997 -16.6810012  17.1055630  90.9877303 -15.8630374
  14.2800012  85.9334997  -8.7630012  13.3510012  85.7014997  -8.7900012
  14.7310012  85.1564997  -9.0930012  14.2139216  85.7967238  -8.8113083
   6.8230012  90.2614997 -12.6300012   7.3500012  91.0344997 -12.8300012
   5.9430012  90.4864997 -12.9310012   6.7761773  90.3978005 -12.6980990
   2.5780012  85.1234997 -18.0430012   3.1940012  85.7504997 -17.6630012
   1.7160012  85.4394997 -17.7710012   2.5457698  85.2519430 -17.9542817
   8.2500012  87.9244997 -13.0530012   8.0090012  88.8494997 -13.0120012
   7.5090012  87.4654997 -12.6570012   8.1168409  87.9891421 -12.9938623
   8.7650012  92.0734997  -6.7380012   9.1270012  92.9284997  -6.9720012
   9.2960012  91.7814997  -5.9980012   8.8864473  92.1511060  -6.6699145
   6.9330012  92.9464997 -13.5080012   5.9830012  93.0514997 -13.4570012
   7.2850012  93.7664997 -13.1630012   6.8504203  93.0718314 -13.4543350
  12.3090012  88.1724997  -7.0380012  11.8830012  87.9454997  -6.2110012
  12.8890012  87.4344997  -7.2200012  12.3291868  88.0415299  -6.9494170
  14.5120012  89.1014997 -17.9640012  14.8650012  88.7214997 -17.1590012
  13.5630012  89.0084997 -17.8770012  14.4320441  89.0369596 -17.8421441
  14.9670012  92.7244997  -4.5680012  14.3660012  92.1694997  -5.0640012
  15.2490012  93.3914997  -5.1940012  14.9228519  92.7386841  -4.7205048
  19.0150012  93.5814997 -17.7630012  19.7590012  94.1674997 -17.9030012
  18.3210012  94.1494997 -17.4290012  19.0230292  93.7385582 -17.7370039
   3.0900012  79.9574997  -5.1610012   2.1970012  80.2964997  -5.2290012
   2.9910012  79.1024997  -4.7430012   2.9544164  79.8882588  -5.1137765
  15.3780012  87.7744997 -15.7370012  15.1000012  87.0464997 -15.1810012
  16.3050012  87.8934997 -15.5320012  15.4653124  87.6908802 -15.6331155
   2.7410012  91.7624997  -6.7260012   2.9580012  90.8304997  -6.7570012
   2.9870012  92.0364997  -5.8430012   2.8039549  91.6720636  -6.6108237
   8.6030012  90.2134997 -19.5170012   8.8420012  89.4654997 -20.0640012
   8.3340012  89.8254997 -18.6840012   8.5993675  90.0586638 -19.4793135
   7.5400012  89.7834997 -17.0600012   7.6860012  89.2634997 -16.2700012
   7.5370012  90.6904997 -16.7540012   7.5595989  89.8348853 -16.9103912
   3.9930012  87.0364997 -16.5500012   3.3070012  87.3884997 -15.9830012
   4.5150012  87.7994997 -16.7970012   3.9696852  87.1878578 -16.5057882
  11.8240012  79.6984997  -6.2710012  12.5230012  79.7724997  -5.6210012
  11.4430012  78.8344997  -6.1170012  11.8681767  79.5917624  -6.1611678
  12.6090012  79.3504997 -15.1740012  12.8290012  79.8224997 -15.9770012
  13.1670012  79.7454997 -14.5040012  12.7144968  79.4684285 -15.1932669
  10.2770012  91.4814997 -16.3110012   9.4610012  91.9784997 -16.2590012
  10.8070012  91.9564997 -16.9510012  10.2369161  91.6137722 -16.3904044
   9.8090012  81.0784997 -14.3390012  10.6210012  81.5834997 -14.2930012
   9.5640012  80.9334997 -13.4250012   9.8870520  81.1280375 -14.2091483
  10.3440012  82.0644997  -5.1540012  10.4630012  82.6384997  -4.3970012
  11.0000012  81.3764997  -5.0400012  10.4489757  82.0501079  -5.0349175
  10.6920012  78.1594997 -13.4010012  10.3460012  78.7774997 -12.7560012
  11.3510012  78.6604997 -13.8820012  10.7337826  78.3115802 -13.3779029
   7.6160012  92.5254997 -16.3290012   7.7760012  93.3244997 -16.8300012
   7.4180012  92.8314997 -15.4440012   7.6111649  92.6764469 -16.2780185
   6.3500012  79.2224997 -16.7140012   6.2670012  80.1114997 -16.3670012
   7.2400012  78.9574997 -16.4820012   6.4589469  79.3081430 -16.6352374
  16.5490012  79.9714997  -4.3190012  15.6320012  80.2344997  -4.4070012
  16.8840012  79.9684997  -5.2160012  16.4689900  80.0070224  -4.4522081
  15.1510012  83.7224997 -10.2240012  14.3530012  83.3074997 -10.5520012
  15.5960012  83.0314997  -9.7330012  15.1019885  83.5723543 -10.2025111
   4.6090012  89.6504997 -17.6530012   5.2010012  90.3494997 -17.3770012
   5.0680012  89.2174997 -18.3730012   4.7521142  89.6877049 -17.7125170
   2.9250012  82.3144997 -18.5370012   2.8800012  83.2534997 -18.3590012
   2.0370012  82.0784997 -18.8070012   2.7988574  82.4111892 -18.5491088
  16.2370012  92.9784997  -8.6010012  16.0820012  93.6564997  -9.2580012
  17.1700012  93.0504997  -8.3980012  16.3418500  93.0810170  -8.6634881
   3.7330012  77.0964997  -9.8640012   3.5040012  77.1554997 -10.7920012
   3.2900012  76.3044997  -9.5580012   3.6418530  76.9975753  -9.9495214
   2.6630012  91.0364997 -13.7040012   1.8310012  91.5094997 -13.6760012
   3.2090012  91.5464997 -14.3020012   2.6229739  91.1701871 -13.7810284
   1.9510012  93.6494997  -2.3740012   2.4920012  93.4324997  -1.6140012
   1.4700012  92.8434997  -2.5630012   1.9599345  93.5109514  -2.2956924
   6.5490012  92.5684997  -0.7530012   7.3160012  92.1094997  -0.4120012
   6.5270012  92.3424997  -1.6830012   6.6511434  92.4750409  -0.8319957
  10.6410012  92.0764997 -19.3780012   9.9970012  91.4454997 -19.0570012
  11.4030012  91.5454997 -19.6100012  10.6558077  91.9182920 -19.3653989
  13.1260012  90.9484997  -2.0240012  12.7750012  90.0924997  -1.7810012
  13.8520012  91.0914997  -1.4170012  13.1760769  90.8505636  -1.9086381
  15.2450012  91.8934997 -19.1440012  15.5280012  91.0994997 -18.6920012
  15.9850012  92.1264997 -19.7050012  15.3837486  91.8162803 -19.1579302
   1.8580012  87.4594997  -1.4190012   2.0020012  86.5574997  -1.7060012
   1.0860012  87.7454997  -1.9070012   1.7733322  87.3748261  -1.5242119
   6.2000012  87.8034997 -19.2870012   6.2640012  87.0094997 -18.7560012
   6.8530012  87.6844997 -19.9770012   6.2970241  87.6787148 -19.3075683
   8.5140012  87.4294997  -1.9870012   8.1850012  87.7004997  -2.8440012
   8.6660012  86.4884997  -2.0740012   8.4894809  87.3393862  -2.1161756
  14.2480012  87.3454997  -4.6030012  14.9940012  87.9334997  -4.7230012
  13.4910012  87.9274997  -4.5400012  14.2477554  87.5047011  -4.6109093
   2.6910012  84.6594997  -1.9990012   3.0990012  83.8024997  -2.1200012
   2.4310012  84.6744997  -1.0780012   2.7117568  84.5440807  -1.8910412
   7.3490012  85.7754997 -16.9810012   6.8890012  85.2914997 -16.2950012
   7.6040012  85.1074997 -17.6170012   7.3204902  85.6188731 -16.9730666
   6.6380012  83.6684997  -4.6250012   6.0200012  84.3434997  -4.3450012
   6.9820012  83.9894997  -5.4580012   6.5999615  83.8042721  -4.6993419
   8.4200012  84.0184997 -18.7190012   8.2400012  83.8644997 -19.6460012
   9.3700012  84.1264997 -18.6740012   8.5237776  84.0120175 -18.8398157
  11.6580012  86.1404997  -1.3480012  12.6110012  86.2234997  -1.3750012
  11.4970012  85.4284997  -0.7280012  11.7666426  86.0556746  -1.2679421
  17.8100012  86.3734997 -19.2730012  17.5360012  85.9484997 -20.0860012
  17.8490012  87.3044997 -19.4900012  17.7777699  86.4412484 -19.4136390
   6.9770012  81.0234997  -3.5430012   7.1270012  80.2944997  -4.1450012
   6.9800012  81.8004997  -4.1020012   6.9979302  81.0287851  -3.7009308
   7.3900012  79.3934997  -6.0500012   7.9260012  79.8444997  -6.7020012
   6.5380012  79.2854997  -6.4730012   7.3482178  79.4406390  -6.1964244
   8.9720012  84.8324997  -5.8110012   9.7220012  84.6764997  -6.3840012
   8.6330012  85.6844997  -6.0860012   9.0288921  84.9262968  -5.9266439
  13.3870012  82.6474997  -0.7820012  13.5800012  81.7164997  -0.8940012
  14.2450012  83.0724997  -0.7920012  13.5293020  82.5776389  -0.7986639
  14.7040012  85.4364997  -2.7050012  14.4230012  86.1454997  -3.2820012
  15.6470012  85.3634997  -2.8560012  14.7929027  85.5237646  -2.8044449
   5.4560012  82.2214997  -1.6310012   4.6890012  81.6894997  -1.8410012
   6.1350012  81.9114997  -2.2310012   5.4427022  82.1067506  -1.7408352
   8.1960012  76.8494997  -5.6190012   8.0970012  77.7964997  -5.7240012
   7.4530012  76.4774997  -6.0940012   8.0820563  76.9285902  -5.6975440
   9.4600012  81.1714997  -2.0550012   9.2240012  80.9514997  -1.1530012
   8.6760012  80.9644997  -2.5650012   9.3218628  81.1134760  -2.0006068
  12.1750012  80.2984997  -2.9790012  11.2280012  80.3304997  -2.8470012
  12.4880012  79.6734997  -2.3260012  12.0875475  80.2183207  -2.8725545
  13.8090012  78.9324997  -0.9740012  13.7130012  77.9804997  -0.9800012
  13.4880012  79.2014997  -0.1140012  13.7524070  78.8384035  -0.8584559
   3.6360012  80.1424997  -1.9270012   3.8480012  79.4354997  -2.5370012
   3.5250012  79.7044997  -1.0830012   3.6499721  79.9867084  -1.8963157
   8.4170012  76.1434997  -2.9470012   9.1290012  75.5034997  -2.9610012
   8.3160012  76.4104997  -3.8610012   8.5007939  76.0919938  -3.0724350
   8.7710012  77.8264997  -0.8940012   8.6390012  77.3504997  -1.7140012
   8.1720012  78.5704997  -0.9490012   8.6719071  77.8619618  -1.0137114
   8.3170012  94.7094997 -17.7170012   9.2500012  94.8674997 -17.5740012
   8.0530012  95.3844997 -18.3420012   8.4089510  94.8223611 -17.7819259
   1.8860012  89.3454997 -18.2350012   2.8000012  89.4244997 -17.9610012
   1.8930012  88.6584997 -18.9010012   2.0121131  89.2633961 -18.2875607
   0.5350012  94.7384997 -13.1570012  -0.1119988  94.2764997 -13.6900012
   0.8890012  94.0664997 -12.5750012   0.4943849  94.5844723 -13.1512041
   1.4050012  92.8194997 -11.3530012   1.0700012  91.9394997 -11.1810012
   1.6270012  93.1644997 -10.4880012   1.3891783  92.7457500 -11.2125792
  18.9530012  93.6284997  -8.3720012  18.9320012  93.8134997  -7.4330012
  19.6440012  94.1974997  -8.7130012  19.0434618  93.7306606  -8.2896136
  18.5170012  93.1964997  -5.4500012  18.0290012  92.4604997  -5.8210012
  19.0660012  92.8024997  -4.7720012  18.5244872  93.0426249  -5.4090840
  16.9670012  88.9854997  -0.8120012  16.1010012  88.8804997  -0.4180012
  17.3440012  89.7444997  -0.3660012  16.8993308  89.0736900  -0.6977607
  18.2680012  87.2424997 -15.2980012  19.1180012  87.6634997 -15.1710012
  18.2740012  86.5024997 -14.6910012  18.3851372  87.2000803 -15.1985656
  18.6630012  85.2954997 -13.4740012  17.9360012  84.8164997 -13.0770012
  19.2440012  85.5014997 -12.7420012  18.6419375  85.2577090 -13.3205871
  18.4220012  88.0804997  -8.5270012  19.2550012  87.7024997  -8.8070012
  18.5340012  89.0234997  -8.6460012  18.5512647  88.1562218  -8.5814513
  16.9080012  90.9584997  -6.2200012  16.2610012  91.2834997  -5.5940012
  16.3910012  90.5184997  -6.8940012  16.7494029  90.9435004  -6.2254173
  18.9310012  85.1964997 -17.0830012  18.4090012  85.5534997 -17.8020012
  18.8980012  85.8714997 -16.4050012  18.8551634  85.3365413 -17.0896855
  17.2800012  82.4364997 -18.5320012  17.3760012  83.1034997 -19.2130012
  17.1400012  81.6204997 -19.0140012  17.2742135  82.4174500 -18.6901509
  16.4490012  83.8164997 -12.9110012  16.2990012  82.8714997 -12.9320012
  16.0960012  84.0974997 -12.0680012  16.3806625  83.7250441 -12.7997654
   1.4850012  85.8944997  -8.9010012   1.6690012  85.8124997  -9.8370012
   2.3340012  85.7704997  -8.4770012   1.6250139  85.8665003  -8.9718545
  17.3060012  85.7864997  -3.2730012  17.8890012  85.0524997  -3.0810012
  17.8700012  86.5584997  -3.2260012  17.4619769  85.7904227  -3.2403841
  18.8020012  83.6894997  -2.5880012  17.9390012  83.3104997  -2.7540012
  19.4070012  82.9504997  -2.6620012  18.7655979  83.5378023  -2.6207183
  16.5270012  79.8444997 -19.4150012  17.1380012  79.4734997 -18.7780012
  15.6910012  79.4234997 -19.2190012  16.4975032  79.7367554 -19.3012965
  16.1600012  81.3994997 -14.4490012  16.4400012  80.4924997 -14.3250012
  16.9190012  81.8334997 -14.8380012  16.3009277  81.3340942 -14.4846318
  16.7720012  81.9804997  -9.0130012  17.7050012  82.1924997  -9.0470012
  16.5370012  82.0824997  -8.0910012  16.8678036  82.0232769  -8.8930024
  16.8010012  82.7174997  -6.2370012  15.9580012  82.9854997  -5.8710012
  17.2430012  83.5394997  -6.4480012  16.7454158  82.8653291  -6.2154509
   1.0820012  81.1654997  -2.7600012   2.0020012  81.0434997  -2.5240012
   0.6330012  80.4154997  -2.3710012   1.1471580  81.0473727  -2.6750994
  19.0840012  76.6974997  -0.8840012  19.4340012  76.0434997  -1.4890012
  19.2310012  77.5344997  -1.3230012  19.1518419  76.7211591  -1.0262882
  16.7730012  78.6624997 -14.4010012  16.9560012  78.2134997 -13.5750012
  16.1740012  78.0774997 -14.8640012  16.7170202  78.5219975 -14.3506725
   2.3030012  79.4774997  -9.8690012   2.7490012  78.6854997  -9.5670012
   2.7700012  80.1934997  -9.4380012   2.4270172  79.4660624  -9.7695180
   0.6070012  82.4764997  -8.8000012   1.0990012  82.2554997  -9.5910012
   0.9700012  83.3174997  -8.5190012   0.7233126  82.5598357  -8.8702469
  18.6040012  78.8064997  -2.5340012  17.6860012  79.0774997  -2.5700012
  18.7270012  78.2714997  -3.3190012  18.4951066  78.7712892  -2.6449513
  18.6400012  78.7294997 -17.8730012  19.0520012  78.0084997 -18.3480012
  19.3220012  79.3994997 -17.8140012  18.7885885  78.7212368 -17.9301085
   0.9210012  78.7344997 -14.7460012  -0.0039988  78.9434997 -14.8750012
   1.3750012  79.2184997 -15.4350012   0.8557368  78.8285993 -14.8568774
  15.6920012  93.7184997 -12.8000012  16.3440012  93.3714997 -13.4080012
  16.2020012  94.2074997 -12.1540012  15.8502637  93.7370597 -12.7959764
   0.8850012  77.4724997  -6.4010012   0.2200012  77.2264997  -5.7580012
   0.4420012  78.0944997  -6.9790012   0.7340956  77.5228632  -6.3910648
   3.0770012  90.6474997  -2.2570012   2.2560012  90.8224997  -2.7170012
   2.8240012  90.5744997  -1.3360012   2.9306164  90.6615622  -2.1955077
   6.0310012  91.6224997  -5.9980012   5.6060012  92.4314997  -6.2810012
   6.9350012  91.7074997  -6.3000012   6.0950271  91.7448469  -6.0776224
  10.3420012  93.0214997  -3.0390012  10.5270012  92.6874997  -2.1610012
  11.1880012  93.3304997  -3.3610012  10.4817539  93.0176047  -2.9624395
  12.6870012  94.3074997  -3.7950012  13.3640012  93.6744997  -4.0350012
  13.0090012  94.7084997  -2.9880012  12.8231637  94.2751154  -3.7187207
  17.6040012  76.8964997  -4.7150012  16.7920012  77.2214997  -5.1030012
  17.8370012  76.1364997  -5.2480012  17.5243423  76.8382436  -4.8401747
   3.4330012  94.8784997  -5.9510012   2.7120012  95.3184997  -6.4020012
   3.0670012  94.6274997  -5.1020012   3.2849804  94.9047698  -5.8980160
   5.9000012  94.4784997  -6.9210012   5.0350012  94.5504997  -6.5170012
   5.8450012  95.0254997  -7.7050012   5.7742085  94.5622685  -6.9716638
  10.6100012  94.3664997  -7.7460012  10.1540012  94.8954997  -8.4000012
  10.7730012  94.9694997  -7.0200012  10.5695585  94.5204468  -7.7374938
  12.9380012  93.2444997  -6.8010012  12.0330012  93.4094997  -7.0660012
  13.3670012  94.0974997  -6.8660012  12.8720799  93.3824483  -6.8460818
  15.5420012  94.8144997  -6.5060012  15.3600012  95.7304997  -6.7160012
  15.7190012  94.4044997  -7.3520012  15.5410210  94.8844822  -6.6492115
   2.8470012  93.5014997  -9.0410012   2.8290012  93.0764997  -8.1830012
   3.6520012  93.1834997  -9.4490012   2.9533875  93.4003812  -8.9788345
   4.9890012  92.2114997 -10.3860012   4.7700012  91.2954997 -10.2160012
   5.8130012  92.3514997  -9.9200012   5.0704420  92.1050520 -10.2997226
   7.5260012  92.6814997  -9.5370012   7.7390012  91.7934997  -9.8240012
   7.5900012  92.6474997  -8.5830012   7.5638232  92.5553102  -9.4472603
  11.0340012  78.3454997 -10.3930012  10.3600012  77.7164997 -10.1370012
  11.5980012  77.8614997 -10.9960012  11.0179230  78.1938744 -10.4394660
  16.1770012  76.4534997 -10.2800012  16.7810012  77.0004997 -10.7820012
  15.3070012  76.7724997 -10.5200012  16.1421241  76.5715806 -10.3812346
  17.9040012  77.5914997 -11.9470012  18.5160012  77.0774997 -12.4730012
  18.2860012  78.4694997 -11.9230012  18.0394540  77.6397140 -12.0158170
   3.3610012  76.9794997 -12.5710012   2.5840012  76.7454997 -13.0780012
   3.8910012  76.1824997 -12.5620012   3.3262330  76.8396988 -12.6392258
   2.1970012  76.7774997 -16.7670012   2.6360012  77.3884997 -17.3590012
   1.5640012  77.3154997 -16.2930012   2.1714514  76.9339257 -16.7839070
   7.9400012  76.9064997 -12.7570012   8.8150012  77.2944997 -12.7870012
   7.8040012  76.6914997 -11.8350012   8.0413695  76.9305184 -12.6363560
  13.4970012  76.9364997 -11.1080012  13.5730012  77.0314997 -12.0580012
  13.2220012  76.0284997 -10.9790012  13.4702321  76.8267867 -11.2204921
  14.8500012  76.9624997 -15.4160012  14.1480012  77.5774997 -15.6250012
  14.4060012  76.1244997 -15.2850012  14.6936330  76.9335783 -15.4269672
   2.0980012  92.7254997 -15.8690012   1.4130012  92.6874997 -16.5370012
   2.1020012  93.6384997 -15.5810012   2.0048193  92.8437016 -15.9214716
   4.0580012  78.6934997 -18.3250012   4.5500012  78.0634997 -18.8520012
   4.6820012  78.9894997 -17.6610012   4.2095446  78.6473199 -18.3074020
   9.0840012  78.9864997 -15.8680012   9.2620012  78.3404997 -15.1850012
   9.0310012  79.8204997 -15.4000012   9.1011829  79.0107985 -15.7114060
  10.9630012  93.9354997 -17.4720012  11.8290012  94.3014997 -17.6500012
  10.7160012  93.4954997 -18.2860012  11.0482392  93.9261756 -17.6063711
  17.6720012  93.4984997 -14.7930012  17.4770012  92.7504997 -15.3580012
  17.6330012  94.2564997 -15.3760012  17.6400380  93.4986099 -14.9491616
   3.3190012  77.4934997  -3.0530012   2.9530012  76.7284997  -2.6100012
   4.2320012  77.5224997  -2.7660012   3.3922790  77.3927224  -2.9535930
   5.2920012  76.8444997  -1.5170012   6.1900012  76.5704997  -1.7020012
   4.9050012  76.1014997  -1.0530012   5.3626612  76.7065914  -1.4796357
   3.9160012  93.6454997 -18.8440012   3.6490012  93.9324997 -17.9710012
   4.6880012  93.0994997 -18.6920012   3.9837488  93.6110294 -18.7038950
  13.7130012  76.1764997  -1.3350012  13.7900012  75.7504997  -0.4810012
  14.6070012  76.1904997  -1.6780012  13.8443428  76.1200879  -1.2644690
  16.8890012  92.2494997  -2.6430012  16.1070012  92.0634997  -3.1620012
  16.8170012  93.1784997  -2.4250012  16.7721777  92.3496492  -2.6845952
  31.2950012  86.1354997 -12.6120012  31.3840012  87.0794997 -12.7440012
  30.6570012  85.8604997 -13.2700012  31.2209081  86.2274830 -12.7190386
  30.2280012  85.3904997  -9.1930012  30.1900012  84.7444997  -8.4880012
  29.9060012  84.9244997  -9.9640012  30.1792333  85.2389408  -9.2007022
  22.5970012  85.0054997  -7.6000012  22.6380012  84.3794997  -6.8770012
  23.3000012  85.6294997  -7.4180012  22.6976363  85.0041196  -7.4763956
  33.9340012  88.3294997 -10.8920012  33.4940012  87.6094997 -10.4410012
  33.9210012  89.0504997 -10.2620012  33.8720226  88.3283731 -10.7451506
  23.5200012  89.4554997  -9.0650012  23.1510012  88.6534997  -9.4350012
  24.4610012  89.2864997  -9.0190012  23.5967289  89.3230153  -9.1093684
  20.1300012  83.1154997 -13.6720012  19.6830012  83.9614997 -13.6910012
  19.5690012  82.5354997 -14.1880012  19.9929900  83.1529916 -13.7443199
  20.8410012  85.2774997 -11.5460012  21.0540012  84.5074997 -11.0190012
  21.5790012  85.3664997 -12.1500012  20.9698496  85.1841394 -11.5554700
  31.0460012  93.4344997 -10.6790012  31.6660012  92.7574997 -10.9530012
  30.8380012  93.2164997  -9.7710012  31.1026904  93.3123870 -10.5936635
  28.6180012  87.8234997  -8.7870012  28.9220012  87.1374997  -9.3820012
  29.3390012  87.9414997  -8.1690012  28.7570671  87.7456304  -8.7848184
  37.2810012  79.4244997  -7.9260012  37.3300012  80.0344997  -7.1900012
  37.7060012  79.8854997  -8.6490012  37.3451824  79.5703741  -7.9229795
  31.7590012  82.2174997  -8.4590012  31.9010012  81.2714997  -8.4390012
  31.6520012  82.4244997  -9.3880012  31.7639864  82.1159534  -8.5817661
  24.9130012  80.3184997 -11.1870012  24.9570012  81.1784997 -11.6050012
  24.4560012  79.7664997 -11.8210012  24.8572185  80.3615799 -11.3299701
  32.6360012  80.4494997 -12.7860012  33.2820012  80.1204997 -12.1610012
  33.1460012  80.9674997 -13.4090012  32.7934264  80.4744611 -12.7846138
  21.5340012  82.7154997 -10.4250012  22.1870012  82.1654997  -9.9930012
  21.5580012  82.4414997 -11.3420012  21.6266683  82.6031466 -10.4897877
  26.6900012  84.2654997 -11.2100012  27.3060012  83.7394997 -10.7000012
  26.1040012  83.6254997 -11.6130012  26.6950810  84.1069208 -11.1946827
  37.6720012  80.9024997  -5.6900012  36.9840012  81.5604997  -5.7860012
  37.6880012  80.7054997  -4.7540012  37.5798525  80.9660462  -5.5765192
  23.7240012  79.2364997  -7.1130012  23.5050012  79.7664997  -7.8790012
  23.0560012  79.4634997  -6.4660012  23.6037600  79.3396906  -7.1303621
  31.0930012  88.7364997 -13.5690012  30.7970012  88.4144997 -14.4200012
  30.7680012  89.6364997 -13.5280012  31.0086371  88.8140215 -13.6798199
  26.2930012  86.9124997  -6.8260012  25.5530012  87.5104997  -6.7220012
  27.0070012  87.4664997  -7.1410012  26.2882237  87.0692831  -6.8543535
  34.4000012  79.7404997 -10.8060012  34.1840012  78.9744997 -10.2730012
  35.0550012  80.2124997 -10.2930012  34.4590632  79.6995889 -10.6637139
  23.3170012  81.1284997  -9.1610012  23.9310012  81.7614997  -8.7870012
  23.8290012  80.6564997  -9.8170012  23.4702296  81.1512370  -9.1985748
  24.7000012  88.8764997  -6.0380012  24.6950012  89.7564997  -6.4160012
  23.8470012  88.7934997  -5.6130012  24.5839464  88.9856117  -6.0322093
  20.8210012  88.5474997 -15.2560012  20.5490012  88.7764997 -16.1450012
  20.8670012  89.3854997 -14.7960012  20.7900094  88.6921213 -15.3154303
  34.4460012  90.1694997  -8.5440012  33.5050012  90.2274997  -8.3820012
  34.7230012  91.0754997  -8.6810012  34.3544679  90.2999443  -8.5403185
  34.7470012  78.4554997  -7.1260012  34.0110012  79.0664997  -7.1640012
  35.4300012  78.8704997  -7.6530012  34.7386541  78.5951374  -7.2024168
  27.7500012  76.5424997  -9.6600012  27.6330012  75.5934997  -9.7150012
  26.8950012  76.8744997  -9.3870012  27.6183733  76.4575409  -9.6306103
  32.6980012  91.9504997 -11.9180012  33.1240012  91.2434997 -12.4030012
  33.0150012  92.7514997 -12.3350012  32.7991019  91.9620994 -12.0406870
  33.8580012  89.8514997 -13.4100012  33.6000012  89.1614997 -14.0210012
  33.9290012  89.4084997 -12.5640012  33.8322856  89.6972124 -13.3793115
  35.5440012  88.4174997  -4.9320012  35.6840012  87.8264997  -5.6720012
  35.7110012  89.2904997  -5.2890012  35.5856778  88.4546426  -5.0813035
  30.0170012  85.3794997 -15.1600012  29.3050012  85.9144997 -15.5120012
  30.7080012  85.4354997 -15.8200012  30.0130132  85.4602543 -15.2973711
  30.0700012  83.8374997 -18.1210012  30.7710012  83.8594997 -17.4700012
  30.3730012  83.2094997 -18.7770012  30.2067830  83.7556566 -18.1206289
  37.3860012  84.7574997  -6.8660012  36.7330012  85.4524997  -6.7770012
  37.8510012  84.9674997  -7.6760012  37.3595390  84.8809425  -6.9633117
  33.4220012  85.5894997 -14.2080012  32.6900012  85.8174997 -13.6350012
  33.8700012  84.8754997 -13.7530012  33.3823095  85.5242571 -14.0680881
  33.3200012  83.7634997  -5.1410012  33.4000012  84.5264997  -4.5690012
  32.7180012  84.0424997  -5.8310012  33.2495756  83.9057134  -5.1559411
  25.0680012  86.2194997 -12.3260012  24.7370012  85.8494997 -13.1440012
  25.6560012  85.5494997 -11.9790012  25.1021873  86.0781156 -12.3911898
  26.4340012  89.6474997  -9.6440012  26.3400012  89.0694997 -10.4010012
  27.1640012  89.2764997  -9.1480012  26.5197981  89.5182390  -9.6805835
  25.4340012  84.9884997  -8.6920012  26.0000012  85.1094997  -9.4550012
  25.7530012  85.6254997  -8.0530012  25.5545786  85.0911884  -8.7099960
  31.7430012  90.4914997  -7.9580012  31.5030012  91.1534997  -7.3100012
  31.5450012  89.6574997  -7.5330012  31.6833808  90.4693134  -7.8118476
  26.3140012  89.3874997  -3.9750012  26.0030012  90.1694997  -3.5200012
  25.6640012  89.2344997  -4.6610012  26.1835558  89.4739105  -4.0054129
  32.2930012  84.7514997 -16.5230012  32.8730012  84.9014997 -15.7760012
  32.7070012  85.2224997 -17.2460012  32.4282830  84.8356841 -16.5185866
  23.2340012  85.5854997  -4.7460012  23.3050012  86.2364997  -4.0480012
  22.3440012  85.6884997  -5.0810012  23.1233117  85.6885936  -4.6957300
  30.0200012  91.4884997 -13.0880012  30.4940012  91.7834997 -12.3100012
  29.4570012  92.2264997 -13.3210012  30.0087653  91.6286932 -13.0129864
  24.5540012  91.4594997  -3.2120012  24.5610012  91.3234997  -4.1590012
  23.6380012  91.3414997  -2.9600012  24.4311714  91.4249430  -3.3075334
  35.9920012  76.5014997 -16.7100012  35.0920012  76.6404997 -16.4150012
  36.2440012  77.3324997 -17.1120012  35.9028702  76.6329074 -16.7239795
  24.0580012  85.2894997 -14.7360012  23.7660012  86.0574997 -15.2270012
  23.3840012  84.6294997 -14.8990012  23.9269081  85.3054406 -14.8252660
  37.1810012  90.8674997 -18.3340012  37.2550012  91.8064997 -18.1630012
  38.0870012  90.5624997 -18.3900012  37.3135100  90.9546722 -18.3181881
  20.1510012  87.6524997  -5.9210012  19.6500012  87.6244997  -6.7360012
  20.1560012  86.7464997  -5.6120012  20.0831526  87.5262278  -5.9907128
  19.9010012  90.4324997  -9.0370012  20.8470012  90.2884997  -9.0560012
  19.7890012  91.2164997  -8.5000012  20.0152727  90.5188046  -8.9669928
  38.0990012  91.0984997  -3.3550012  38.0500012  90.1434997  -3.3920012
  37.2720012  91.3664997  -2.9540012  37.9804940  91.0038998  -3.3058625
  29.0780012  90.6724997  -4.4790012  29.1650012  91.4984997  -4.0040012
  28.2140012  90.3424997  -4.2300012  28.9731964  90.7409878  -4.3803451
  29.4920012  94.4444997 -14.6730012  29.4170012  94.3234997 -15.6190012
  29.5250012  95.3944997 -14.5540012  29.4861848  94.5562500 -14.7865166
  23.1450012  93.2334997 -12.8920012  23.2980012  92.8854997 -12.0130012
  22.2950012  92.8774997 -13.1470012  23.0508962  93.1376650 -12.8061660
  32.5940012  93.5984997 -17.6710012  32.9690012  92.8544997 -18.1410012
  32.5980012  93.3284997 -16.7520012  32.6458915  93.4601486 -17.6112176
  32.2630012  93.5244997 -14.9210012  31.3270012  93.6244997 -14.7430012
  32.5430012  92.8154997 -14.3430012  32.1728255  93.4422711 -14.8184609
  35.2510012  82.5914997  -2.8750012  34.8440012  83.0724997  -3.5960012
  35.2920012  81.6864997  -3.1830012  35.2008437  82.5349374  -3.0153317
  22.4000012  88.9754997  -4.8780012  22.6160012  88.6144997  -4.0190012
  21.5450012  88.6014997  -5.0880012  22.3139292  88.8754111  -4.7886614
  25.0190012  77.4454997  -8.8830012  24.1570012  77.3584997  -9.2900012
  24.9960012  78.3014997  -8.4550012  24.8980330  77.5492765  -8.8808137
  29.6820012  77.1674997  -5.5080012  30.1020012  76.7524997  -4.7550012
  28.7490012  76.9894997  -5.3910012  29.6133644  77.0865900  -5.3890461
  33.0080012  80.9234997  -4.6550012  32.4940012  80.7974997  -3.8570012
  32.8530012  81.8354997  -4.8990012  32.9166852  81.0296132  -4.5787842
  33.7710012  85.7844997 -18.8930012  33.8130012  85.5614997 -19.8230012
  34.6200012  86.1834997 -18.7030012  33.8915396  85.8079155 -18.9946373
  29.3430012  79.6604997 -18.2230012  29.0900012  79.6794997 -17.3000012
  29.0870012  78.7884997 -18.5240012  29.2737790  79.5452437 -18.1373737
  25.1100012  82.4114997  -7.7880012  24.4680012  82.3704997  -7.0790012
  25.1470012  83.3374997  -8.0250012  25.0271324  82.5311559  -7.7230176
  25.1070012  82.6324997 -12.8760012  24.2140012  82.2914997 -12.9340012
  25.5570012  82.2554997 -13.6310012  25.0457305  82.5348484 -12.9860823
  30.6420012  83.0484997 -14.0590012  30.2330012  83.8634997 -14.3500012
  31.3630012  82.9084997 -14.6730012  30.6834537  83.1412018 -14.1818658
  29.7440012  83.2234997  -2.5710012  29.1820012  82.5194997  -2.2500012
  30.5710012  83.1034997  -2.1030012  29.7787095  83.1107883  -2.4637670
  31.6470012  82.4944997 -11.2450012  31.4520012  83.0994997 -11.9600012
  31.8280012  81.6604997 -11.6790012  31.6447614  82.4646300 -11.4015595
  22.8600012  82.7314997  -5.9210012  22.8220012  83.1314997  -5.0520012
  22.3690012  81.9144997  -5.8300012  22.7884684  82.6758069  -5.7898941
  26.2260012  80.1054997 -19.1220012  25.7950012  79.6604997 -18.3920012
  25.5080012  80.4774997 -19.6340012  26.0699438  80.0948940 -19.0913201
  19.4680012  79.8474997 -12.0700012  20.0990012  79.8184997 -11.3510012
  19.9170012  79.4224997 -12.8000012  19.6150774  79.7860492 -12.0703447
  20.7420012  80.5934997 -16.6460012  21.2160012  81.1844997 -17.2310012
  20.0250012  81.1244997 -16.2990012  20.7099341  80.7460867 -16.6791164
  30.9110012  84.1324997  -6.5730012  31.2340012  83.5014997  -7.2160012
  30.4710012  83.5974997  -5.9130012  30.8956895  83.9738441  -6.5717150
  27.6880012  80.0594997 -11.7890012  26.7770012  80.1164997 -11.5010012
  28.1940012  79.9994997 -10.9790012  27.6315413  80.0591985 -11.6399378
  22.5170012  81.6884997 -12.9630012  21.6270012  81.7884997 -13.3030012
  22.8130012  80.8464997 -13.3090012  22.4352823  81.5883545 -13.0562787
  26.1700012  81.6884997 -15.3060012  27.1010012  81.8174997 -15.1280012
  25.9550012  82.3584997 -15.9560012  26.2684247  81.7966565 -15.3694253
  32.0930012  79.2944997  -8.5250012  31.4170012  79.4254997  -7.8610012
  31.6080012  79.1394997  -9.3350012  31.9347145  79.2914905  -8.5435483
  24.8440012  82.8834997 -17.7390012  24.3010012  82.5034997 -18.4310012
  25.6770012  83.0774997 -18.1680012  24.8824399  82.8578124 -17.8915474
  35.3810012  94.9664997  -2.2480012  35.5810012  95.3904997  -3.0830012
  36.0360012  95.3094997  -1.6410012  35.4970051  95.0709648  -2.2802164
  22.9790012  87.4404997  -2.6400012  23.7110012  87.6944997  -2.0790012
  22.1990012  87.6444997  -2.1250012  22.9738232  87.5029177  -2.4934240
  29.0080012  82.8474997  -9.9020012  29.5730012  82.3004997 -10.4490012
  28.8610012  82.3254997  -9.1140012  29.0652918  82.7022024  -9.8701546
  24.0100012  78.9834997 -13.4840012  23.6930012  78.0814997 -13.5190012
  24.7920012  78.9854997 -14.0370012  24.0722284  78.8601628 -13.5635217
  27.6350012  81.2354997  -7.4880012  26.7990012  81.6894997  -7.3780012
  28.1590012  81.5114997  -6.7360012  27.5914414  81.3349376  -7.3712864
  28.1790012  87.4484997 -15.8040012  27.4340012  86.9414997 -16.1260012
  28.0450012  87.4974997 -14.8570012  28.0588776  87.3856940 -15.7201353
  35.3290012  86.5814997  -7.0170012  35.9710012  87.0384997  -7.5610012
  34.4990012  86.6944997  -7.4800012  35.3045963  86.6592704  -7.1539823
  32.0770012  80.2624997 -17.6040012  31.1380012  80.3744997 -17.7560012
  32.3740012  81.1194997 -17.2980012  31.9887666  80.3936443 -17.5834232
  29.6980012  87.6324997  -4.5670012  29.3530012  87.2514997  -3.7600012
  29.4980012  88.5664997  -4.4950012  29.6238061  87.7065228  -4.4469039
  32.7950012  82.1294997 -15.9440012  33.6870012  81.9924997 -15.6250012
  32.8520012  82.9204997 -16.4800012  32.9246285  82.2176660 -15.9728310
  23.3040012  86.7434997 -10.0340012  24.0490012  86.7414997 -10.6350012
  23.3820012  85.9204997  -9.5520012  23.4165518  86.6319315 -10.0511071
  30.3050012  88.9074997 -16.7780012  30.0090012  89.7334997 -16.3970012
  29.6020012  88.2874997 -16.5820012  30.1694914  88.9368199 -16.6993557
  20.3120012  85.2044997  -4.7190012  20.5350012  84.7864997  -3.8870012
  19.7100012  84.5914997  -5.1420012  20.2611759  85.0644668  -4.6622978
  27.3280012  84.7214997  -2.5060012  27.0320012  84.5554997  -3.4010012
  28.2600012  84.5014997  -2.5170012  27.4134166  84.6690640  -2.6299464
  31.9490012  90.0944997  -4.6160012  31.0480012  90.2774997  -4.8840012
  31.9830012  90.3534997  -3.6950012  31.8303041  90.1545512  -4.5281803
  37.6800012  82.3394997 -16.2490012  37.1260012  81.9434997 -16.9210012
  37.7800012  83.2494997 -16.5270012  37.6177059  82.4083586 -16.3785599
  37.6430012  88.1394997  -3.4120012  36.7920012  88.3774997  -3.7790012
  38.2340012  88.1224997  -4.1650012  37.6062487  88.1698258  -3.5641107
  35.9750012  91.1254997 -15.7840012  35.6020012  90.2994997 -15.4750012
  36.2530012  90.9424997 -16.6810012  35.9615630  90.9877303 -15.8630374
  33.1360012  85.9334997  -8.7630012  32.2070012  85.7014997  -8.7900012
  33.5870012  85.1564997  -9.0930012  33.0699216  85.7967238  -8.8113083
  25.6790012  90.2614997 -12.6300012  26.2060012  91.0344997 -12.8300012
  24.7990012  90.4864997 -12.9310012  25.6321773  90.3978005 -12.6980990
  21.4340012  85.1234997 -18.0430012  22.0500012  85.7504997 -17.6630012
  20.5720012  85.4394997 -17.7710012  21.4017698  85.2519430 -17.9542817
  27.1060012  87.9244997 -13.0530012  26.8650012  88.8494997 -13.0120012
  26.3650012  87.4654997 -12.6570012  26.9728409  87.9891421 -12.9938623
  27.6210012  92.0734997  -6.7380012  27.9830012  92.9284997  -6.9720012
  28.1520012  91.7814997  -5.9980012  27.7424473  92.1511060  -6.6699145
  25.7890012  92.9464997 -13.5080012  24.8390012  93.0514997 -13.4570012
  26.1410012  93.7664997 -13.1630012  25.7064203  93.0718314 -13.4543350
  31.1650012  88.1724997  -7.0380012  30.7390012  87.9454997  -6.2110012
  31.7450012  87.4344997  -7.2200012  31.1851868  88.0415299  -6.9494170
  33.3680012  89.1014997 -17.9640012  33.7210012  88.7214997 -17.1590012
  32.4190012  89.0084997 -17.8770012  33.2880441  89.0369596 -17.8421441
  33.8230012  92.7244997  -4.5680012  33.2220012  92.1694997  -5.0640012
  34.1050012  93.3914997  -5.1940012  33.7788519  92.7386841  -4.7205048
  37.8710012  93.5814997 -17.7630012  38.6150012  94.1674997 -17.9030012
  37.1770012  94.1494997 -17.4290012  37.8790292  93.7385582 -17.7370039
  21.9460012  79.9574997  -5.1610012  21.0530012  80.2964997  -5.2290012
  21.8470012  79.1024997  -4.7430012  21.8104164  79.8882588  -5.1137765
  34.2340012  87.7744997 -15.7370012  33.9560012  87.0464997 -15.1810012
  35.1610012  87.8934997 -15.5320012  34.3213124  87.6908802 -15.6331155
  21.5970012  91.7624997  -6.7260012  21.8140012  90.8304997  -6.7570012
  21.8430012  92.0364997  -5.8430012  21.6599549  91.6720636  -6.6108237
  27.4590012  90.2134997 -19.5170012  27.6980012  89.4654997 -20.0640012
  27.1900012  89.8254997 -18.6840012  27.4553675  90.0586638 -19.4793135
  26.3960012  89.7834997 -17.0600012  26.5420012  89.2634997 -16.2700012
  26.3930012  90.6904997 -16.7540012  26.4155989  89.8348853 -16.9103912
  22.8490012  87.0364997 -16.5500012  22.1630012  87.3884997 -15.9830012
  23.3710012  87.7994997 -16.7970012  22.8256852  87.1878578 -16.5057882
  30.6800012  79.6984997  -6.2710012  31.3790012  79.7724997  -5.6210012
  30.2990012  78.8344997  -6.1170012  30.7241767  79.5917624  -6.1611678
  31.4650012  79.3504997 -15.1740012  31.6850012  79.8224997 -15.9770012
  32.0230012  79.7454997 -14.5040012  31.5704968  79.4684285 -15.1932669
  29.1330012  91.4814997 -16.3110012  28.3170012  91.9784997 -16.2590012
  29.6630012  91.9564997 -16.9510012  29.0929161  91.6137722 -16.3904044
  28.6650012  81.0784997 -14.3390012  29.4770012  81.5834997 -14.2930012
  28.4200012  80.9334997 -13.4250012  28.7430520  81.1280375 -14.2091483
  29.2000012  82.0644997  -5.1540012  29.3190012  82.6384997  -4.3970012
  29.8560012  81.3764997  -5.0400012  29.3049757  82.0501079  -5.0349175
  29.5480012  78.1594997 -13.4010012  29.2020012  78.7774997 -12.7560012
  30.2070012  78.6604997 -13.8820012  29.5897826  78.3115802 -13.3779029
  26.4720012  92.5254997 -16.3290012  26.6320012  93.3244997 -16.8300012
  26.2740012  92.8314997 -15.4440012  26.4671649  92.6764469 -16.2780185
  25.2060012  79.2224997 -16.7140012  25.1230012  80.1114997 -16.3670012
  26.0960012  78.9574997 -16.4820012  25.3149469  79.3081430 -16.6352374
  35.4050012  79.9714997  -4.3190012  34.4880012  80.2344997  -4.4070012
  35.7400012  79.9684997  -5.2160012  35.3249900  80.0070224  -4.4522081
  34.0070012  83.7224997 -10.2240012  33.2090012  83.3074997 -10.5520012
  34.4520012  83.0314997  -9.7330012  33.9579885  83.5723543 -10.2025111
  23.4650012  89.6504997 -17.6530012  24.0570012  90.3494997 -17.3770012
  23.9240012  89.2174997 -18.3730012  23.6081142  89.6877049 -17.7125170
  21.7810012  82.3144997 -18.5370012  21.7360012  83.2534997 -18.3590012
  20.8930012  82.0784997 -18.8070012  21.6548574  82.4111892 -18.5491088
  35.0930012  92.9784997  -8.6010012  34.9380012  93.6564997  -9.2580012
  36.0260012  93.0504997  -8.3980012  35.1978500  93.0810170  -8.6634881
  22.5890012  77.0964997  -9.8640012  22.3600012  77.1554997 -10.7920012
  22.1460012  76.3044997  -9.5580012  22.4978530  76.9975753  -9.9495214
  21.5190012  91.0364997 -13.7040012  20.6870012  91.5094997 -13.6760012
  22.0650012  91.5464997 -14.3020012  21.4789739  91.1701871 -13.7810284
  20.8070012  93.6494997  -2.3740012  21.3480012  93.4324997  -1.6140012
  20.3260012  92.8434997  -2.5630012  20.8159345  93.5109514  -2.2956924
  25.4050012  92.5684997  -0.7530012  26.1720012  92.1094997  -0.4120012
  25.3830012  92.3424997  -1.6830012  25.5071434  92.4750409  -0.8319957
  29.4970012  92.0764997 -19.3780012  28.8530012  91.4454997 -19.0570012
  30.2590012  91.5454997 -19.6100012  29.5118077  91.9182920 -19.3653989
  31.9820012  90.9484997  -2.0240012  31.6310012  90.0924997  -1.7810012
  32.7080012  91.0914997  -1.4170012  32.0320769  90.8505636  -1.9086381
  34.1010012  91.8934997 -19.1440012  34.3840012  91.0994997 -18.6920012
  34.8410012  92.1264997 -19.7050012  34.2397486  91.8162803 -19.1579302
  20.7140012  87.4594997  -1.4190012  20.8580012  86.5574997  -1.7060012
  19.9420012  87.7454997  -1.9070012  20.6293322  87.3748261  -1.5242119
  25.0560012  87.8034997 -19.2870012  25.1200012  87.0094997 -18.7560012
  25.7090012  87.6844997 -19.9770012  25.1530241  87.6787148 -19.3075683
  27.3700012  87.4294997  -1.9870012  27.0410012  87.7004997  -2.8440012
  27.5220012  86.4884997  -2.0740012  27.3454809  87.3393862  -2.1161756
  33.1040012  87.3454997  -4.6030012  33.8500012  87.9334997  -4.7230012
  32.3470012  87.9274997  -4.5400012  33.1037554  87.5047011  -4.6109093
  21.5470012  84.6594997  -1.9990012  21.9550012  83.8024997  -2.1200012
  21.2870012  84.6744997  -1.0780012  21.5677568  84.5440807  -1.8910412
  26.2050012  85.7754997 -16.9810012  25.7450012  85.2914997 -16.2950012
  26.4600012  85.1074997 -17.6170012  26.1764902  85.6188731 -16.9730666
  25.4940012  83.6684997  -4.6250012  24.8760012  84.3434997  -4.3450012
  25.8380012  83.9894997  -5.4580012  25.4559615  83.8042721  -4.6993419
  27.2760012  84.0184997 -18.7190012  27.0960012  83.8644997 -19.6460012
  28.2260012  84.1264997 -18.6740012  27.3797776  84.0120175 -18.8398157
  30.5140012  86.1404997  -1.3480012  31.4670012  86.2234997  -1.3750012
  30.3530012  85.4284997  -0.7280012  30.6226426  86.0556746  -1.2679421
  36.6660012  86.3734997 -19.2730012  36.3920012  85.9484997 -20.0860012
  36.7050012  87.3044997 -19.4900012  36.6337699  86.4412484 -19.4136390
  25.8330012  81.0234997  -3.5430012  25.9830012  80.2944997  -4.1450012
  25.8360012  81.8004997  -4.1020012  25.8539302  81.0287851  -3.7009308
  26.2460012  79.3934997  -6.0500012  26.7820012  79.8444997  -6.7020012
  25.3940012  79.2854997  -6.4730012  26.2042178  79.4406390  -6.1964244
  27.8280012  84.8324997  -5.8110012  28.5780012  84.6764997  -6.3840012
  27.4890012  85.6844997  -6.0860012  27.8848921  84.9262968  -5.9266439
  32.2430012  82.6474997  -0.7820012  32.4360012  81.7164997  -0.8940012
  33.1010012  83.0724997  -0.7920012  32.3853020  82.5776389  -0.7986639
  33.5600012  85.4364997  -2.7050012  33.2790012  86.1454997  -3.2820012
  34.5030012  85.3634997  -2.8560012  33.6489027  85.5237646  -2.8044449
  24.3120012  82.2214997  -1.6310012  23.5450012  81.6894997  -1.8410012
  24.9910012  81.9114997  -2.2310012  24.2987022  82.1067506  -1.7408352
  27.0520012  76.8494997  -5.6190012  26.9530012  77.7964997  -5.7240012
  26.3090012  76.4774997  -6.0940012  26.9380564  76.9285902  -5.6975440
  28.3160012  81.1714997  -2.0550012  28.0800012  80.9514997  -1.1530012
  27.5320012  80.9644997  -2.5650012  28.1778628  81.1134760  -2.0006068
  31.0310012  80.2984997  -2.9790012  30.0840012  80.3304997  -2.8470012
  31.3440012  79.6734997  -2.3260012  30.9435475  80.2183207  -2.8725545
  32.6650012  78.9324997  -0.9740012  32.5690012  77.9804997  -0.9800012
  32.3440012  79.2014997  -0.1140012  32.6084070  78.8384035  -0.8584559
  22.4920012  80.1424997  -1.9270012  22.7040012  79.4354997  -2.5370012
  22.3810012  79.7044997  -1.0830012  22.5059721  79.9867084  -1.8963157
  27.2730012  76.1434997  -2.9470012  27.9850012  75.5034997  -2.9610012
  27.1720012  76.4104997  -3.8610012  27.3567939  76.0919938  -3.0724350
  27.6270012  77.8264997  -0.8940012  27.4950012  77.3504997  -1.7140012
  27.0280012  78.5704997  -0.9490012  27.5279071  77.8619618  -1.0137114
  27.1730012  94.7094997 -17.7170012  28.1060012  94.8674997 -17.5740012
  26.9090012  95.3844997 -18.3420012  27.2649510  94.8223611 -17.7819259
  20.7420012  89.3454997 -18.2350012  21.6560012  89.4244997 -17.9610012
  20.7490012  88.6584997 -18.9010012  20.8681131  89.2633961 -18.2875607
  19.3910012  94.7384997 -13.1570012  18.7440012  94.2764997 -13.6900012
  19.7450012  94.0664997 -12.5750012  19.3503849  94.5844723 -13.1512041
  20.2610012  92.8194997 -11.3530012  19.9260012  91.9394997 -11.1810012
  20.4830012  93.1644997 -10.4880012  20.2451783  92.7457500 -11.2125792
  37.8090012  93.6284997  -8.3720012  37.7880012  93.8134997  -7.4330012
  38.5000012  94.1974997  -8.7130012  37.8994618  93.7306606  -8.2896136
  37.3730012  93.1964997  -5.4500012  36.8850012  92.4604997  -5.8210012
  37.9220012  92.8024997  -4.7720012  37.3804872  93.0426249  -5.4090840
  35.8230012  88.9854997  -0.8120012  34.9570012  88.8804997  -0.4180012
  36.2000012  89.7444997  -0.3660012  35.7553308  89.0736900  -0.6977607
  37.1240012  87.2424997 -15.2980012  37.9740012  87.6634997 -15.1710012
  37.1300012  86.5024997 -14.6910012  37.2411372  87.2000803 -15.1985656
  37.5190012  85.2954997 -13.4740012  36.7920012  84.8164997 -13.0770012
  38.1000012  85.5014997 -12.7420012  37.4979375  85.2577090 -13.3205871
  37.2780012  88.0804997  -8.5270012  38.1110012  87.7024997  -8.8070012
  37.3900012  89.0234997  -8.6460012  37.4072647  88.1562218  -8.5814513
  35.7640012  90.9584997  -6.2200012  35.1170012  91.2834997  -5.5940012
  35.2470012  90.5184997  -6.8940012  35.6054029  90.9435004  -6.2254173
  37.7870012  85.1964997 -17.0830012  37.2650012  85.5534997 -17.8020012
  37.7540012  85.8714997 -16.4050012  37.7111634  85.3365413 -17.0896855
  36.1360012  82.4364997 -18.5320012  36.2320012  83.1034997 -19.2130012
  35.9960012  81.6204997 -19.0140012  36.1302135  82.4174500 -18.6901509
  35.3050012  83.8164997 -12.9110012  35.1550012  82.8714997 -12.9320012
  34.9520012  84.0974997 -12.0680012  35.2366625  83.7250441 -12.7997654
  20.3410012  85.8944997  -8.9010012  20.5250012  85.8124997  -9.8370012
  21.1900012  85.7704997  -8.4770012  20.4810139  85.8665003  -8.9718545
  36.1620012  85.7864997  -3.2730012  36.7450012  85.0524997  -3.0810012
  36.7260012  86.5584997  -3.2260012  36.3179769  85.7904227  -3.2403841
  37.6580012  83.6894997  -2.5880012  36.7950012  83.3104997  -2.7540012
  38.2630012  82.9504997  -2.6620012  37.6215979  83.5378023  -2.6207183
  35.3830012  79.8444997 -19.4150012  35.9940012  79.4734997 -18.7780012
  34.5470012  79.4234997 -19.2190012  35.3535032  79.7367554 -19.3012965
  35.0160012  81.3994997 -14.4490012  35.2960012  80.4924997 -14.3250012
  35.7750012  81.8334997 -14.8380012  35.1569277  81.3340942 -14.4846318
  35.6280012  81.9804997  -9.0130012  36.5610012  82.1924997  -9.0470012
  35.3930012  82.0824997  -8.0910012  35.7238036  82.0232769  -8.8930024
  35.6570012  82.7174997  -6.2370012  34.8140012  82.9854997  -5.8710012
  36.0990012  83.5394997  -6.4480012  35.6014158  82.8653291  -6.2154509
  19.9380012  81.1654997  -2.7600012  20.8580012  81.0434997  -2.5240012
  19.4890012  80.4154997  -2.3710012  20.0031580  81.0473727  -2.6750994
  37.9400012  76.6974997  -0.8840012  38.2900012  76.0434997  -1.4890012
  38.0870012  77.5344997  -1.3230012  38.0078419  76.7211591  -1.0262882
  35.6290012  78.6624997 -14.4010012  35.8120012  78.2134997 -13.5750012
  35.0300012  78.0774997 -14.8640012  35.5730202  78.5219975 -14.3506725
  21.1590012  79.4774997  -9.8690012  21.6050012  78.6854997  -9.5670012
  21.6260012  80.1934997  -9.4380012  21.2830172  79.4660624  -9.7695180
  19.4630012  82.4764997  -8.8000012  19.9550012  82.2554997  -9.5910012
  19.8260012  83.3174997  -8.5190012  19.5793126  82.5598357  -8.8702469
  37.4600012  78.8064997  -2.5340012  36.5420012  79.0774997  -2.5700012
  37.5830012  78.2714997  -3.3190012  37.3511066  78.7712892  -2.6449513
  37.4960012  78.7294997 -17.8730012  37.9080012  78.0084997 -18.3480012
  38.1780012  79.3994997 -17.8140012  37.6445885  78.7212368 -17.9301085
  19.7770012  78.7344997 -14.7460012  18.8520012  78.9434997 -14.8750012
  20.2310012  79.2184997 -15.4350012  19.7117368  78.8285993 -14.8568774
  34.5480012  93.7184997 -12.8000012  35.2000012  93.3714997 -13.4080012
  35.0580012  94.2074997 -12.1540012  34.7062637  93.7370597 -12.7959764
  19.7410012  77.4724997  -6.4010012  19.0760012  77.2264997  -5.7580012
  19.2980012  78.0944997  -6.9790012  19.5900956  77.5228632  -6.3910648
  21.9330012  90.6474997  -2.2570012  21.1120012  90.8224997  -2.7170012
  21.6800012  90.5744997  -1.3360012  21.7866164  90.6615622  -2.1955077
  24.8870012  91.6224997  -5.9980012  24.4620012  92.4314997  -6.2810012
  25.7910012  91.7074997  -6.3000012  24.9510271  91.7448469  -6.0776224
  29.1980012  93.0214997  -3.0390012  29.3830012  92.6874997  -2.1610012
  30.0440012  93.3304997  -3.3610012  29.3377539  93.0176047  -2.9624395
  31.5430012  94.3074997  -3.7950012  32.2200012  93.6744997  -4.0350012
  31.8650012  94.7084997  -2.9880012  31.6791637  94.2751154  -3.7187207
  36.4600012  76.8964997  -4.7150012  35.6480012  77.2214997  -5.1030012
  36.6930012  76.1364997  -5.2480012  36.3803423  76.8382436  -4.8401747
  22.2890012  94.8784997  -5.9510012  21.5680012  95.3184997  -6.4020012
  21.9230012  94.6274997  -5.1020012  22.1409804  94.9047698  -5.8980160
  24.7560012  94.4784997  -6.9210012  23.8910012  94.5504997  -6.5170012
  24.7010012  95.0254997  -7.7050012  24.6302085  94.5622685  -6.9716638
  29.4660012  94.3664997  -7.7460012  29.0100012  94.8954997  -8.4000012
  29.6290012  94.9694997  -7.0200012  29.4255585  94.5204468  -7.7374938
  31.7940012  93.2444997  -6.8010012  30.8890012  93.4094997  -7.0660012
  32.2230012  94.0974997  -6.8660012  31.7280799  93.3824483  -6.8460818
  34.3980012  94.8144997  -6.5060012  34.2160012  95.7304997  -6.7160012
  34.5750012  94.4044997  -7.3520012  34.3970210  94.8844822  -6.6492115
  21.7030012  93.5014997  -9.0410012  21.6850012  93.0764997  -8.1830012
  22.5080012  93.1834997  -9.4490012  21.8093875  93.4003812  -8.9788345
  23.8450012  92.2114997 -10.3860012  23.6260012  91.2954997 -10.2160012
  24.6690012  92.3514997  -9.9200012  23.9264420  92.1050520 -10.2997226
  26.3820012  92.6814997  -9.5370012  26.5950012  91.7934997  -9.8240012
  26.4460012  92.6474997  -8.5830012  26.4198232  92.5553102  -9.4472603
  29.8900012  78.3454997 -10.3930012  29.2160012  77.7164997 -10.1370012
  30.4540012  77.8614997 -10.9960012  29.8739230  78.1938744 -10.4394660
  35.0330012  76.4534997 -10.2800012  35.6370012  77.0004997 -10.7820012
  34.1630012  76.7724997 -10.5200012  34.9981241  76.5715806 -10.3812346
  36.7600012  77.5914997 -11.9470012  37.3720012  77.0774997 -12.4730012
  37.1420012  78.4694997 -11.9230012  36.8954540  77.6397140 -12.0158170
  22.2170012  76.9794997 -12.5710012  21.4400012  76.7454997 -13.0780012
  22.7470012  76.1824997 -12.5620012  22.1822330  76.8396988 -12.6392258
  21.0530012  76.7774997 -16.7670012  21.4920012  77.3884997 -17.3590012
  20.4200012  77.3154997 -16.2930012  21.0274514  76.9339257 -16.7839070
  26.7960012  76.9064997 -12.7570012  27.6710012  77.2944997 -12.7870012
  26.6600012  76.6914997 -11.8350012  26.8973695  76.9305184 -12.6363560
  32.3530012  76.9364997 -11.1080012  32.4290012  77.0314997 -12.0580012
  32.0780012  76.0284997 -10.9790012  32.3262321  76.8267867 -11.2204921
  33.7060012  76.9624997 -15.4160012  33.0040012  77.5774997 -15.6250012
  33.2620012  76.1244997 -15.2850012  33.5496330  76.9335783 -15.4269672
  20.9540012  92.7254997 -15.8690012  20.2690012  92.6874997 -16.5370012
  20.9580012  93.6384997 -15.5810012  20.8608193  92.8437016 -15.9214716
  22.9140012  78.6934997 -18.3250012  23.4060012  78.0634997 -18.8520012
  23.5380012  78.9894997 -17.6610012  23.0655446  78.6473199 -18.3074020
  27.9400012  78.9864997 -15.8680012  28.1180012  78.3404997 -15.1850012
  27.8870012  79.8204997 -15.4000012  27.9571829  79.0107985 -15.7114060
  29.8190012  93.9354997 -17.4720012  30.6850012  94.3014997 -17.6500012
  29.5720012  93.4954997 -18.2860012  29.9042392  93.9261756 -17.6063711
  36.5280012  93.4984997 -14.7930012  36.3330012  92.7504997 -15.3580012
  36.4890012  94.2564997 -15.3760012  36.4960380  93.4986099 -14.9491616
  22.1750012  77.4934997  -3.0530012  21.8090012  76.7284997  -2.6100012
  23.0880012  77.5224997  -2.7660012  22.2482790  77.3927224  -2.9535930
  24.1480012  76.8444997  -1.5170012  25.0460012  76.5704997  -1.7020012
  23.7610012  76.1014997  -1.0530012  24.2186612  76.7065914  -1.4796357
  22.7720012  93.6454997 -18.8440012  22.5050012  93.9324997 -17.9710012
  23.5440012  93.0994997 -18.6920012  22.8397488  93.6110294 -18.7038950
  32.5690012  76.1764997  -1.3350012  32.6460012  75.7504997  -0.4810012
  33.4630012  76.1904997  -1.6780012  32.7003428  76.1200879  -1.2644690
  35.7450012  92.2494997  -2.6430012  34.9630012  92.0634997  -3.1620012
  35.6730012  93.1784997  -2.4250012  35.6281777  92.3496492  -2.6845952
  50.1510012  86.1354997 -12.6120012  50.2400012  87.0794997 -12.7440012
  49.5130012  85.8604997 -13.2700012  50.0769081  86.2274830 -12.7190386
  49.0840012  85.3904997  -9.1930012  49.0460012  84.7444997  -8.4880012
  48.7620012  84.9244997  -9.9640012  49.0352333  85.2389408  -9.2007022
  41.4530012  85.0054997  -7.6000012  41.4940012  84.3794997  -6.8770012
  42.1560012  85.6294997  -7.4180012  41.5536363  85.0041196  -7.4763956
  52.7900012  88.3294997 -10.8920012  52.3500012  87.6094997 -10.4410012
  52.7770012  89.0504997 -10.2620012  52.7280226  88.3283731 -10.7451506
  42.3760012  89.4554997  -9.0650012  42.0070012  88.6534997  -9.4350012
  43.3170012  89.2864997  -9.0190012  42.4527289  89.3230153  -9.1093684
  38.9860012  83.1154997 -13.6720012  38.5390012  83.9614997 -13.6910012
  38.4250012  82.5354997 -14.1880012  38.8489900  83.1529916 -13.7443199
  39.6970012  85.2774997 -11.5460012  39.9100012  84.5074997 -11.0190012
  40.4350012  85.3664997 -12.1500012  39.8258496  85.1841394 -11.5554700
  49.9020012  93.4344997 -10.6790012  50.5220012  92.7574997 -10.9530012
  49.6940012  93.2164997  -9.7710012  49.9586904  93.3123870 -10.5936635
  47.4740012  87.8234997  -8.7870012  47.7780012  87.1374997  -9.3820012
  48.1950012  87.9414997  -8.1690012  47.6130671  87.7456305  -8.7848184
  56.1370012  79.4244997  -7.9260012  56.1860012  80.0344997  -7.1900012
  56.5620012  79.8854997  -8.6490012  56.2011824  79.5703741  -7.9229795
  50.6150012  82.2174997  -8.4590012  50.7570012  81.2714997  -8.4390012
  50.5080012  82.4244997  -9.3880012  50.6199864  82.1159534  -8.5817661
  43.7690012  80.3184997 -11.1870012  43.8130012  81.1784997 -11.6050012
  43.3120012  79.7664997 -11.8210012  43.7132185  80.3615799 -11.3299701
  51.4920012  80.4494997 -12.7860012  52.1380012  80.1204997 -12.1610012
  52.0020012  80.9674997 -13.4090012  51.6494264  80.4744611 -12.7846138
  40.3900012  82.7154997 -10.4250012  41.0430012  82.1654997  -9.9930012
  40.4140012  82.4414997 -11.3420012  40.4826683  82.6031466 -10.4897877
  45.5460012  84.2654997 -11.2100012  46.1620012  83.7394997 -10.7000012
  44.9600012  83.6254997 -11.6130012  45.5510810  84.1069208 -11.1946827
  56.5280012  80.9024997  -5.6900012  55.8400012  81.5604997  -5.7860012
  56.5440012  80.7054997  -4.7540012  56.4358525  80.9660462  -5.5765192
  42.5800012  79.2364997  -7.1130012  42.3610012  79.7664997  -7.8790012
  41.9120012  79.4634997  -6.4660012  42.4597600  79.3396906  -7.1303621
  49.9490012  88.7364997 -13.5690012  49.6530012  88.4144997 -14.4200012
  49.6240012  89.6364997 -13.5280012  49.8646371  88.8140215 -13.6798199
  45.1490012  86.9124997  -6.8260012  44.4090012  87.5104997  -6.7220012
  45.8630012  87.4664997  -7.1410012  45.1442237  87.0692831  -6.8543535
  53.2560012  79.7404997 -10.8060012  53.0400012  78.9744997 -10.2730012
  53.9110012  80.2124997 -10.2930012  53.3150632  79.6995889 -10.6637139
  42.1730012  81.1284997  -9.1610012  42.7870012  81.7614997  -8.7870012
  42.6850012  80.6564997  -9.8170012  42.3262296  81.1512370  -9.1985748
  43.5560012  88.8764997  -6.0380012  43.5510012  89.7564997  -6.4160012
  42.7030012  88.7934997  -5.6130012  43.4399464  88.9856117  -6.0322093
  39.6770012  88.5474997 -15.2560012  39.4050012  88.7764997 -16.1450012
  39.7230012  89.3854997 -14.7960012  39.6460094  88.6921213 -15.3154303
  53.3020012  90.1694997  -8.5440012  52.3610012  90.2274997  -8.3820012
  53.5790012  91.0754997  -8.6810012  53.2104679  90.2999443  -8.5403185
  53.6030012  78.4554997  -7.1260012  52.8670012  79.0664997  -7.1640012
  54.2860012  78.8704997  -7.6530012  53.5946541  78.5951374  -7.2024168
  46.6060012  76.5424997  -9.6600012  46.4890012  75.5934997  -9.7150012
  45.7510012  76.8744997  -9.3870012  46.4743733  76.4575409  -9.6306103
  51.5540012  91.9504997 -11.9180012  51.9800012  91.2434997 -12.4030012
  51.8710012  92.7514997 -12.3350012  51.6551019  91.9620994 -12.0406870
  52.7140012  89.8514997 -13.4100012  52.4560012  89.1614997 -14.0210012
  52.7850012  89.4084997 -12.5640012  52.6882856  89.6972124 -13.3793115
  54.4000012  88.4174997  -4.9320012  54.5400012  87.8264997  -5.6720012
  54.5670012  89.2904997  -5.2890012  54.4416778  88.4546426  -5.0813035
  48.8730012  85.3794997 -15.1600012  48.1610012  85.9144997 -15.5120012
  49.5640012  85.4354997 -15.8200012  48.8690132  85.4602543 -15.2973711
  48.9260012  83.8374997 -18.1210012  49.6270012  83.8594997 -17.4700012
  49.2290012  83.2094997 -18.7770012  49.0627830  83.7556566 -18.1206289
  56.2420012  84.7574997  -6.8660012  55.5890012  85.4524997  -6.7770012
  56.7070012  84.9674997  -7.6760012  56.2155390  84.8809425  -6.9633117
  52.2780012  85.5894997 -14.2080012  51.5460012  85.8174997 -13.6350012
  52.7260012  84.8754997 -13.7530012  52.2383095  85.5242571 -14.0680881
  52.1760012  83.7634997  -5.1410012  52.2560012  84.5264997  -4.5690012
  51.5740012  84.0424997  -5.8310012  52.1055756  83.9057134  -5.1559411
  43.9240012  86.2194997 -12.3260012  43.5930012  85.8494997 -13.1440012
  44.5120012  85.5494997 -11.9790012  43.9581873  86.0781156 -12.3911898
  45.2900012  89.6474997  -9.6440012  45.1960012  89.0694997 -10.4010012
  46.0200012  89.2764997  -9.1480012  45.3757981  89.5182390  -9.6805835
  44.2900012  84.9884997  -8.6920012  44.8560012  85.1094997  -9.4550012
  44.6090012  85.6254997  -8.0530012  44.4105786  85.0911884  -8.7099960
  50.5990012  90.4914997  -7.9580012  50.3590012  91.1534997  -7.3100012
  50.4010012  89.6574997  -7.5330012  50.5393808  90.4693134  -7.8118476
  45.1700012  89.3874997  -3.9750012  44.8590012  90.1694997  -3.5200012
  44.5200012  89.2344997  -4.6610012  45.0395558  89.4739105  -4.0054129
  51.1490012  84.7514997 -16.5230012  51.7290012  84.9014997 -15.7760012
  51.5630012  85.2224997 -17.2460012  51.2842830  84.8356841 -16.5185866
  42.0900012  85.5854997  -4.7460012  42.1610012  86.2364997  -4.0480012
  41.2000012  85.6884997  -5.0810012  41.9793117  85.6885936  -4.6957300
  48.8760012  91.4884997 -13.0880012  49.3500012  91.7834997 -12.3100012
  48.3130012  92.2264997 -13.3210012  48.8647653  91.6286932 -13.0129864
  43.4100012  91.4594997  -3.2120012  43.4170012  91.3234997  -4.1590012
  42.4940012  91.3414997  -2.9600012  43.2871714  91.4249430  -3.3075334
  54.8480012  76.5014997 -16.7100012  53.9480012  76.6404997 -16.4150012
  55.1000012  77.3324997 -17.1120012  54.7588702  76.6329074 -16.7239795
  42.9140012  85.2894997 -14.7360012  42.6220012  86.0574997 -15.2270012
  42.2400012  84.6294997 -14.8990012  42.7829081  85.3054406 -14.8252660
  56.0370012  90.8674997 -18.3340012  56.1110012  91.8064997 -18.1630012
  56.9430012  90.5624997 -18.3900012  56.1695100  90.9546722 -18.3181881
  39.0070012  87.6524997  -5.9210012  38.5060012  87.6244997  -6.7360012
  39.0120012  86.7464997  -5.6120012  38.9391526  87.5262278  -5.9907128
  38.7570012  90.4324997  -9.0370012  39.7030012  90.2884997  -9.0560012
  38.6450012  91.2164997  -8.5000012  38.8712727  90.5188046  -8.9669928
  56.9550012  91.0984997  -3.3550012  56.9060012  90.1434997  -3.3920012
  56.1280012  91.3664997  -2.9540012  56.8364940  91.0038998  -3.3058625
  47.9340012  90.6724997  -4.4790012  48.0210012  91.4984997  -4.0040012
  47.0700012  90.3424997  -4.2300012  47.8291964  90.7409878  -4.3803451
  48.3480012  94.4444997 -14.6730012  48.2730012  94.3234997 -15.6190012
  48.3810012  95.3944997 -14.5540012  48.3421848  94.5562500 -14.7865166
  42.0010012  93.2334997 -12.8920012  42.1540012  92.8854997 -12.0130012
  41.1510012  92.8774997 -13.1470012  41.9068962  93.1376650 -12.8061660
  51.4500012  93.5984997 -17.6710012  51.8250012  92.8544997 -18.1410012
  51.4540012  93.3284997 -16.7520012  51.5018915  93.4601486 -17.6112176
  51.1190012  93.5244997 -14.9210012  50.1830012  93.6244997 -14.7430012
  51.3990012  92.8154997 -14.3430012  51.0288255  93.4422711 -14.8184609
  54.1070012  82.5914997  -2.8750012  53.7000012  83.0724997  -3.5960012
  54.1480012  81.6864997  -3.1830012  54.0568437  82.5349374  -3.0153317
  41.2560012  88.9754997  -4.8780012  41.4720012  88.6144997  -4.0190012
  40.4010012  88.6014997  -5.0880012  41.1699292  88.8754111  -4.7886614
  43.8750012  77.4454997  -8.8830012  43.0130012  77.3584997  -9.2900012
  43.8520012  78.3014997  -8.4550012  43.7540330  77.5492765  -8.8808137
  48.5380012  77.1674997  -5.5080012  48.9580012  76.7524997  -4.7550012
  47.6050012  76.9894997  -5.3910012  48.4693644  77.0865900  -5.3890461
  51.8640012  80.9234997  -4.6550012  51.3500012  80.7974997  -3.8570012
  51.7090012  81.8354997  -4.8990012  51.7726852  81.0296132  -4.5787842
  52.6270012  85.7844997 -18.8930012  52.6690012  85.5614997 -19.8230012
  53.4760012  86.1834997 -18.7030012  52.7475396  85.8079155 -18.9946373
  48.1990012  79.6604997 -18.2230012  47.9460012  79.6794997 -17.3000012
  47.9430012  78.7884997 -18.5240012  48.1297790  79.5452437 -18.1373737
  43.9660012  82.4114997  -7.7880012  43.3240012  82.3704997  -7.0790012
  44.0030012  83.3374997  -8.0250012  43.8831324  82.5311559  -7.7230176
  43.9630012  82.6324997 -12.8760012  43.0700012  82.2914997 -12.9340012
  44.4130012  82.2554997 -13.6310012  43.9017305  82.5348484 -12.9860823
  49.4980012  83.0484997 -14.0590012  49.0890012  83.8634997 -14.3500012
  50.2190012  82.9084997 -14.6730012  49.5394537  83.1412018 -14.1818658
  48.6000012  83.2234997  -2.5710012  48.0380012  82.5194997  -2.2500012
  49.4270012  83.1034997  -2.1030012  48.6347095  83.1107883  -2.4637670
  50.5030012  82.4944997 -11.2450012  50.3080012  83.0994997 -11.9600012
  50.6840012  81.6604997 -11.6790012  50.5007614  82.4646300 -11.4015595
  41.7160012  82.7314997  -5.9210012  41.6780012  83.1314997  -5.0520012
  41.2250012  81.9144997  -5.8300012  41.6444684  82.6758069  -5.7898941
  45.0820012  80.1054997 -19.1220012  44.6510012  79.6604997 -18.3920012
  44.3640012  80.4774997 -19.6340012  44.9259438  80.0948940 -19.0913201
  38.3240012  79.8474997 -12.0700012  38.9550012  79.8184997 -11.3510012
  38.7730012  79.4224997 -12.8000012  38.4710774  79.7860492 -12.0703447
  39.5980012  80.5934997 -16.6460012  40.0720012  81.1844997 -17.2310012
  38.8810012  81.1244997 -16.2990012  39.5659341  80.7460867 -16.6791164
  49.7670012  84.1324997  -6.5730012  50.0900012  83.5014997  -7.2160012
  49.3270012  83.5974997  -5.9130012  49.7516895  83.9738441  -6.5717150
  46.5440012  80.0594997 -11.7890012  45.6330012  80.1164997 -11.5010012
  47.0500012  79.9994997 -10.9790012  46.4875413  80.0591985 -11.6399378
  41.3730012  81.6884997 -12.9630012  40.4830012  81.7884997 -13.3030012
  41.6690012  80.8464997 -13.3090012  41.2912823  81.5883545 -13.0562787
  45.0260012  81.6884997 -15.3060012  45.9570012  81.8174997 -15.1280012
  44.8110012  82.3584997 -15.9560012  45.1244247  81.7966565 -15.3694253
  50.9490012  79.2944997  -8.5250012  50.2730012  79.4254997  -7.8610012
  50.4640012  79.1394997  -9.3350012  50.7907145  79.2914905  -8.5435483
  43.7000012  82.8834997 -17.7390012  43.1570012  82.5034997 -18.4310012
  44.5330012  83.0774997 -18.1680012  43.7384399  82.8578124 -17.8915474
  54.2370012  94.9664997  -2.2480012  54.4370012  95.3904997  -3.0830012
  54.8920012  95.3094997  -1.6410012  54.3530051  95.0709648  -2.2802164
  41.8350012  87.4404997  -2.6400012  42.5670012  87.6944997  -2.0790012
  41.0550012  87.6444997  -2.1250012  41.8298232  87.5029177  -2.4934240
  47.8640012  82.8474997  -9.9020012  48.4290012  82.3004997 -10.4490012
  47.7170012  82.3254997  -9.1140012  47.9212918  82.7022024  -9.8701546
  42.8660012  78.9834997 -13.4840012  42.5490012  78.0814997 -13.5190012
  43.6480012  78.9854997 -14.0370012  42.9282284  78.8601628 -13.5635217
  46.4910012  81.2354997  -7.4880012  45.6550012  81.6894997  -7.3780012
  47.0150012  81.5114997  -6.7360012  46.4474414  81.3349376  -7.3712864
  47.0350012  87.4484997 -15.8040012  46.2900012  86.9414997 -16.1260012
  46.9010012  87.4974997 -14.8570012  46.9148776  87.3856940 -15.7201353
  54.1850012  86.5814997  -7.0170012  54.8270012  87.0384997  -7.5610012
  53.3550012  86.6944997  -7.4800012  54.1605963  86.6592704  -7.1539823
  50.9330012  80.2624997 -17.6040012  49.9940012  80.3744997 -17.7560012
  51.2300012  81.1194997 -17.2980012  50.8447666  80.3936443 -17.5834232
  48.5540012  87.6324997  -4.5670012  48.2090012  87.2514997  -3.7600012
  48.3540012  88.5664997  -4.4950012  48.4798061  87.7065228  -4.4469039
  51.6510012  82.1294997 -15.9440012  52.5430012  81.9924997 -15.6250012
  51.7080012  82.9204997 -16.4800012  51.7806285  82.2176660 -15.9728309
  42.1600012  86.7434997 -10.0340012  42.9050012  86.7414997 -10.6350012
  42.2380012  85.9204997  -9.5520012  42.2725518  86.6319315 -10.0511071
  49.1610012  88.9074997 -16.7780012  48.8650012  89.7334997 -16.3970012
  48.4580012  88.2874997 -16.5820012  49.0254914  88.9368199 -16.6993557
  39.1680012  85.2044997  -4.7190012  39.3910012  84.7864997  -3.8870012
  38.5660012  84.5914997  -5.1420012  39.1171759  85.0644668  -4.6622978
  46.1840012  84.7214997  -2.5060012  45.8880012  84.5554997  -3.4010012
  47.1160012  84.5014997  -2.5170012  46.2694166  84.6690640  -2.6299464
  50.8050012  90.0944997  -4.6160012  49.9040012  90.2774997  -4.8840012
  50.8390012  90.3534997  -3.6950012  50.6863041  90.1545512  -4.5281803
  56.5360012  82.3394997 -16.2490012  55.9820012  81.9434997 -16.9210012
  56.6360012  83.2494997 -16.5270012  56.4737059  82.4083586 -16.3785599
  56.4990012  88.1394997  -3.4120012  55.6480012  88.3774997  -3.7790012
  57.0900012  88.1224997  -4.1650012  56.4622487  88.1698258  -3.5641107
  54.8310012  91.1254997 -15.7840012  54.4580012  90.2994997 -15.4750012
  55.1090012  90.9424997 -16.6810012  54.8175630  90.9877303 -15.8630374
  51.9920012  85.9334997  -8.7630012  51.0630012  85.7014997  -8.7900012
  52.4430012  85.1564997  -9.0930012  51.9259216  85.7967238  -8.8113083
  44.5350012  90.2614997 -12.6300012  45.0620012  91.0344997 -12.8300012
  43.6550012  90.4864997 -12.9310012  44.4881773  90.3978005 -12.6980990
  40.2900012  85.1234997 -18.0430012  40.9060012  85.7504997 -17.6630012
  39.4280012  85.4394997 -17.7710012  40.2577698  85.2519430 -17.9542817
  45.9620012  87.9244997 -13.0530012  45.7210012  88.8494997 -13.0120012
  45.2210012  87.4654997 -12.6570012  45.8288409  87.9891421 -12.9938623
  46.4770012  92.0734997  -6.7380012  46.8390012  92.9284997  -6.9720012
  47.0080012  91.7814997  -5.9980012  46.5984473  92.1511060  -6.6699145
  44.6450012  92.9464997 -13.5080012  43.6950012  93.0514997 -13.4570012
  44.9970012  93.7664997 -13.1630012  44.5624203  93.0718314 -13.4543350
  50.0210012  88.1724997  -7.0380012  49.5950012  87.9454997  -6.2110012
  50.6010012  87.4344997  -7.2200012  50.0411868  88.0415299  -6.9494170
  52.2240012  89.1014997 -17.9640012  52.5770012  88.7214997 -17.1590012
  51.2750012  89.0084997 -17.8770012  52.1440441  89.0369596 -17.8421441
  52.6790012  92.7244997  -4.5680012  52.0780012  92.1694997  -5.0640012
  52.9610012  93.3914997  -5.1940012  52.6348519  92.7386841  -4.7205048
  56.7270012  93.5814997 -17.7630012  57.4710012  94.1674997 -17.9030012
  56.0330012  94.1494997 -17.4290012  56.7350292  93.7385582 -17.7370039
  40.8020012  79.9574997  -5.1610012  39.9090012  80.2964997  -5.2290012
  40.7030012  79.1024997  -4.7430012  40.6664164  79.8882588  -5.1137765
  53.0900012  87.7744997 -15.7370012  52.8120012  87.0464997 -15.1810012
  54.0170012  87.8934997 -15.5320012  53.1773124  87.6908802 -15.6331155
  40.4530012  91.7624997  -6.7260012  40.6700012  90.8304997  -6.7570012
  40.6990012  92.0364997  -5.8430012  40.5159549  91.6720636  -6.6108237
  46.3150012  90.2134997 -19.5170012  46.5540012  89.4654997 -20.0640012
  46.0460012  89.8254997 -18.6840012  46.3113675  90.0586638 -19.4793135
  45.2520012  89.7834997 -17.0600012  45.3980012  89.2634997 -16.2700012
  45.2490012  90.6904997 -16.7540012  45.2715989  89.8348853 -16.9103912
  41.7050012  87.0364997 -16.5500012  41.0190012  87.3884997 -15.9830012
  42.2270012  87.7994997 -16.7970012  41.6816852  87.1878578 -16.5057882
  49.5360012  79.6984997  -6.2710012  50.2350012  79.7724997  -5.6210012
  49.1550012  78.8344997  -6.1170012  49.5801767  79.5917624  -6.1611678
  50.3210012  79.3504997 -15.1740012  50.5410012  79.8224997 -15.9770012
  50.8790012  79.7454997 -14.5040012  50.4264968  79.4684285 -15.1932669
  47.9890012  91.4814997 -16.3110012  47.1730012  91.9784997 -16.2590012
  48.5190012  91.9564997 -16.9510012  47.9489161  91.6137722 -16.3904044
  47.5210012  81.0784997 -14.3390012  48.3330012  81.5834997 -14.2930012
  47.2760012  80.9334997 -13.4250012  47.5990520  81.1280375 -14.2091483
  48.0560012  82.0644997  -5.1540012  48.1750012  82.6384997  -4.3970012
  48.7120012  81.3764997  -5.0400012  48.1609757  82.0501079  -5.0349175
  48.4040012  78.1594997 -13.4010012  48.0580012  78.7774997 -12.7560012
  49.0630012  78.6604997 -13.8820012  48.4457826  78.3115802 -13.3779029
  45.3280012  92.5254997 -16.3290012  45.4880012  93.3244997 -16.8300012
  45.1300012  92.8314997 -15.4440012  45.3231649  92.6764469 -16.2780185
  44.0620012  79.2224997 -16.7140012  43.9790012  80.1114997 -16.3670012
  44.9520012  78.9574997 -16.4820012  44.1709469  79.3081430 -16.6352374
  54.2610012  79.9714997  -4.3190012  53.3440012  80.2344997  -4.4070012
  54.5960012  79.9684997  -5.2160012  54.1809900  80.0070224  -4.4522081
  52.8630012  83.7224997 -10.2240012  52.0650012  83.3074997 -10.5520012
  53.3080012  83.0314997  -9.7330012  52.8139885  83.5723543 -10.2025111
  42.3210012  89.6504997 -17.6530012  42.9130012  90.3494997 -17.3770012
  42.7800012  89.2174997 -18.3730012  42.4641142  89.6877049 -17.7125170
  40.6370012  82.3144997 -18.5370012  40.5920012  83.2534997 -18.3590012
  39.7490012  82.0784997 -18.8070012  40.5108574  82.4111892 -18.5491088
  53.9490012  92.9784997  -8.6010012  53.7940012  93.6564997  -9.2580012
  54.8820012  93.0504997  -8.3980012  54.0538500  93.0810170  -8.6634881
  41.4450012  77.0964997  -9.8640012  41.2160012  77.1554997 -10.7920012
  41.0020012  76.3044997  -9.5580012  41.3538530  76.9975753  -9.9495214
  40.3750012  91.0364997 -13.7040012  39.5430012  91.5094997 -13.6760012
  40.9210012  91.5464997 -14.3020012  40.3349739  91.1701871 -13.7810284
  39.6630012  93.6494997  -2.3740012  40.2040012  93.4324997  -1.6140012
  39.1820012  92.8434997  -2.5630012  39.6719345  93.5109514  -2.2956924
  44.2610012  92.5684997  -0.7530012  45.0280012  92.1094997  -0.4120012
  44.2390012  92.3424997  -1.6830012  44.3631434  92.4750409  -0.8319957
  48.3530012  92.0764997 -19.3780012  47.7090012  91.4454997 -19.0570012
  49.1150012  91.5454997 -19.6100012  48.3678077  91.9182920 -19.3653989
  50.8380012  90.9484997  -2.0240012  50.4870012  90.0924997  -1.7810012
  51.5640012  91.0914997  -1.4170012  50.8880769  90.8505636  -1.9086381
  52.9570012  91.8934997 -19.1440012  53.2400012  91.0994997 -18.6920012
  53.6970012  92.1264997 -19.7050012  53.0957486  91.8162803 -19.1579302
  39.5700012  87.4594997  -1.4190012  39.7140012  86.5574997  -1.7060012
  38.7980012  87.7454997  -1.9070012  39.4853322  87.3748261  -1.5242119
  43.9120012  87.8034997 -19.2870012  43.9760012  87.0094997 -18.7560012
  44.5650012  87.6844997 -19.9770012  44.0090241  87.6787148 -19.3075683
  46.2260012  87.4294997  -1.9870012  45.8970012  87.7004997  -2.8440012
  46.3780012  86.4884997  -2.0740012  46.2014809  87.3393862  -2.1161756
  51.9600012  87.3454997  -4.6030012  52.7060012  87.9334997  -4.7230012
  51.2030012  87.9274997  -4.5400012  51.9597554  87.5047011  -4.6109093
  40.4030012  84.6594997  -1.9990012  40.8110012  83.8024997  -2.1200012
  40.1430012  84.6744997  -1.0780012  40.4237568  84.5440807  -1.8910412
  45.0610012  85.7754997 -16.9810012  44.6010012  85.2914997 -16.2950012
  45.3160012  85.1074997 -17.6170012  45.0324902  85.6188731 -16.9730666
  44.3500012  83.6684997  -4.6250012  43.7320012  84.3434997  -4.3450012
  44.6940012  83.9894997  -5.4580012  44.3119615  83.8042721  -4.6993419
  46.1320012  84.0184997 -18.7190012  45.9520012  83.8644997 -19.6460012
  47.0820012  84.1264997 -18.6740012  46.2357776  84.0120175 -18.8398157
  49.3700012  86.1404997  -1.3480012  50.3230012  86.2234997  -1.3750012
  49.2090012  85.4284997  -0.7280012  49.4786426  86.0556746  -1.2679421
  55.5220012  86.3734997 -19.2730012  55.2480012  85.9484997 -20.0860012
  55.5610012  87.3044997 -19.4900012  55.4897699  86.4412484 -19.4136390
  44.6890012  81.0234997  -3.5430012  44.8390012  80.2944997  -4.1450012
  44.6920012  81.8004997  -4.1020012  44.7099302  81.0287851  -3.7009308
  45.1020012  79.3934997  -6.0500012  45.6380012  79.8444997  -6.7020012
  44.2500012  79.2854997  -6.4730012  45.0602178  79.4406390  -6.1964244
  46.6840012  84.8324997  -5.8110012  47.4340012  84.6764997  -6.3840012
  46.3450012  85.6844997  -6.0860012  46.7408921  84.9262968  -5.9266439
  51.0990012  82.6474997  -0.7820012  51.2920012  81.7164997  -0.8940012
  51.9570012  83.0724997  -0.7920012  51.2413020  82.5776389  -0.7986639
  52.4160012  85.4364997  -2.7050012  52.1350012  86.1454997  -3.2820012
  53.3590012  85.3634997  -2.8560012  52.5049027  85.5237646  -2.8044449
  43.1680012  82.2214997  -1.6310012  42.4010012  81.6894997  -1.8410012
  43.8470012  81.9114997  -2.2310012  43.1547022  82.1067506  -1.7408352
  45.9080012  76.8494997  -5.6190012  45.8090012  77.7964997  -5.7240012
  45.1650012  76.4774997  -6.0940012  45.7940564  76.9285902  -5.6975440
  47.1720012  81.1714997  -2.0550012  46.9360012  80.9514997  -1.1530012
  46.3880012  80.9644997  -2.5650012  47.0338628  81.1134760  -2.0006068
  49.8870012  80.2984997  -2.9790012  48.9400012  80.3304997  -2.8470012
  50.2000012  79.6734997  -2.3260012  49.7995475  80.2183207  -2.8725545
  51.5210012  78.9324997  -0.9740012  51.4250012  77.9804997  -0.9800012
  51.2000012  79.2014997  -0.1140012  51.4644070  78.8384035  -0.8584559
  41.3480012  80.1424997  -1.9270012  41.5600012  79.4354997  -2.5370012
  41.2370012  79.7044997  -1.0830012  41.3619721  79.9867084  -1.8963157
  46.1290012  76.1434997  -2.9470012  46.8410012  75.5034997  -2.9610012
  46.0280012  76.4104997  -3.8610012  46.2127939  76.0919938  -3.0724350
  46.4830012  77.8264997  -0.8940012  46.3510012  77.3504997  -1.7140012
  45.8840012  78.5704997  -0.9490012  46.3839071  77.8619618  -1.0137114
  46.0290012  94.7094997 -17.7170012  46.9620012  94.8674997 -17.5740012
  45.7650012  95.3844997 -18.3420012  46.1209510  94.8223611 -17.7819259
  39.5980012  89.3454997 -18.2350012  40.5120012  89.4244997 -17.9610012
  39.6050012  88.6584997 -18.9010012  39.7241131  89.2633961 -18.2875607
  38.2470012  94.7384997 -13.1570012  37.6000012  94.2764997 -13.6900012
  38.6010012  94.0664997 -12.5750012  38.2063849  94.5844723 -13.1512041
  39.1170012  92.8194997 -11.3530012  38.7820012  91.9394997 -11.1810012
  39.3390012  93.1644997 -10.4880012  39.1011783  92.7457500 -11.2125792
  56.6650012  93.6284997  -8.3720012  56.6440012  93.8134997  -7.4330012
  57.3560012  94.1974997  -8.7130012  56.7554618  93.7306606  -8.2896136
  56.2290012  93.1964997  -5.4500012  55.7410012  92.4604997  -5.8210012
  56.7780012  92.8024997  -4.7720012  56.2364872  93.0426249  -5.4090840
  54.6790012  88.9854997  -0.8120012  53.8130012  88.8804997  -0.4180012
  55.0560012  89.7444997  -0.3660012  54.6113308  89.0736900  -0.6977607
  55.9800012  87.2424997 -15.2980012  56.8300012  87.6634997 -15.1710012
  55.9860012  86.5024997 -14.6910012  56.0971372  87.2000803 -15.1985656
  56.3750012  85.2954997 -13.4740012  55.6480012  84.8164997 -13.0770012
  56.9560012  85.5014997 -12.7420012  56.3539375  85.2577090 -13.3205871
  56.1340012  88.0804997  -8.5270012  56.9670012  87.7024997  -8.8070012
  56.2460012  89.0234997  -8.6460012  56.2632647  88.1562218  -8.5814513
  54.6200012  90.9584997  -6.2200012  53.9730012  91.2834997  -5.5940012
  54.1030012  90.5184997  -6.8940012  54.4614029  90.9435004  -6.2254173
  56.6430012  85.1964997 -17.0830012  56.1210012  85.5534997 -17.8020012
  56.6100012  85.8714997 -16.4050012  56.5671634  85.3365413 -17.0896855
  54.9920012  82.4364997 -18.5320012  55.0880012  83.1034997 -19.2130012
  54.8520012  81.6204997 -19.0140012  54.9862135  82.4174500 -18.6901509
  54.1610012  83.8164997 -12.9110012  54.0110012  82.8714997 -12.9320012
  53.8080012  84.0974997 -12.0680012  54.0926625  83.7250441 -12.7997654
  39.1970012  85.8944997  -8.9010012  39.3810012  85.8124997  -9.8370012
  40.0460012  85.7704997  -8.4770012  39.3370139  85.8665003  -8.9718545
  55.0180012  85.7864997  -3.2730012  55.6010012  85.0524997  -3.0810012
  55.5820012  86.5584997  -3.2260012  55.1739769  85.7904227  -3.2403841
  56.5140012  83.6894997  -2.5880012  55.6510012  83.3104997  -2.7540012
  57.1190012  82.9504997  -2.6620012  56.4775979  83.5378023  -2.6207183
  54.2390012  79.8444997 -19.4150012  54.8500012  79.4734997 -18.7780012
  53.4030012  79.4234997 -19.2190012  54.2095032  79.7367554 -19.3012965
  53.8720012  81.3994997 -14.4490012  54.1520012  80.4924997 -14.3250012
  54.6310012  81.8334997 -14.8380012  54.0129277  81.3340942 -14.4846318
  54.4840012  81.9804997  -9.0130012  55.4170012  82.1924997  -9.0470012
  54.2490012  82.0824997  -8.0910012  54.5798036  82.0232769  -8.8930024
  54.5130012  82.7174997  -6.2370012  53.6700012  82.9854997  -5.8710012
  54.9550012  83.5394997  -6.4480012  54.4574158  82.8653291  -6.2154509
  38.7940012  81.1654997  -2.7600012  39.7140012  81.0434997  -2.5240012
  38.3450012  80.4154997  -2.3710012  38.8591580  81.0473727  -2.6750994
  56.7960012  76.6974997  -0.8840012  57.1460012  76.0434997  -1.4890012
  56.9430012  77.5344997  -1.3230012  56.8638419  76.7211591  -1.0262882
  54.4850012  78.6624997 -14.4010012  54.6680012  78.2134997 -13.5750012
  53.8860012  78.0774997 -14.8640012  54.4290202  78.5219975 -14.3506725
  40.0150012  79.4774997  -9.8690012  40.4610012  78.6854997  -9.5670012
  40.4820012  80.1934997  -9.4380012  40.1390172  79.4660624  -9.7695180
  38.3190012  82.4764997  -8.8000012  38.8110012  82.2554997  -9.5910012
  38.6820012  83.3174997  -8.5190012  38.4353126  82.5598357  -8.8702469
  56.3160012  78.8064997  -2.5340012  55.3980012  79.0774997  -2.5700012
  56.4390012  78.2714997  -3.3190012  56.2071066  78.7712892  -2.6449513
  56.3520012  78.7294997 -17.8730012  56.7640012  78.0084997 -18.3480012
  57.0340012  79.3994997 -17.8140012  56.5005885  78.7212368 -17.9301085
  38.6330012  78.7344997 -14.7460012  37.7080012  78.9434997 -14.8750012
  39.0870012  79.2184997 -15.4350012  38.5677368  78.8285993 -14.8568774
  53.4040012  93.7184997 -12.8000012  54.0560012  93.3714997 -13.4080012
  53.9140012  94.2074997 -12.1540012  53.5622637  93.7370597 -12.7959764
  38.5970012  77.4724997  -6.4010012  37.9320012  77.2264997  -5.7580012
  38.1540012  78.0944997  -6.9790012  38.4460956  77.5228632  -6.3910648
  40.7890012  90.6474997  -2.2570012  39.9680012  90.8224997  -2.7170012
  40.5360012  90.5744997  -1.3360012  40.6426164  90.6615622  -2.1955077
  43.7430012  91.6224997  -5.9980012  43.3180012  92.4314997  -6.2810012
  44.6470012  91.7074997  -6.3000012  43.8070271  91.7448469  -6.0776224
  48.0540012  93.0214997  -3.0390012  48.2390012  92.6874997  -2.1610012
  48.9000012  93.3304997  -3.3610012  48.1937539  93.0176047  -2.9624395
  50.3990012  94.3074997  -3.7950012  51.0760012  93.6744997  -4.0350012
  50.7210012  94.7084997  -2.9880012  50.5351637  94.2751154  -3.7187207
  55.3160012  76.8964997  -4.7150012  54.5040012  77.2214997  -5.1030012
  55.5490012  76.1364997  -5.2480012  55.2363423  76.8382436  -4.8401747
  41.1450012  94.8784997  -5.9510012  40.4240012  95.3184997  -6.4020012
  40.7790012  94.6274997  -5.1020012  40.9969804  94.9047698  -5.8980160
  43.6120012  94.4784997  -6.9210012  42.7470012  94.5504997  -6.5170012
  43.5570012  95.0254997  -7.7050012  43.4862085  94.5622685  -6.9716638
  48.3220012  94.3664997  -7.7460012  47.8660012  94.8954997  -8.4000012
  48.4850012  94.9694997  -7.0200012  48.2815585  94.5204468  -7.7374938
  50.6500012  93.2444997  -6.8010012  49.7450012  93.4094997  -7.0660012
  51.0790012  94.0974997  -6.8660012  50.5840799  93.3824483  -6.8460818
  53.2540012  94.8144997  -6.5060012  53.0720012  95.7304997  -6.7160012
  53.4310012  94.4044997  -7.3520012  53.2530210  94.8844822  -6.6492115
  40.5590012  93.5014997  -9.0410012  40.5410012  93.0764997  -8.1830012
  41.3640012  93.1834997  -9.4490012  40.6653875  93.4003812  -8.9788345
  42.7010012  92.2114997 -10.3860012  42.4820012  91.2954997 -10.2160012
  43.5250012  92.3514997  -9.9200012  42.7824420  92.1050520 -10.2997226
  45.2380012  92.6814997  -9.5370012  45.4510012  91.7934997  -9.8240012
  45.3020012  92.6474997  -8.5830012  45.2758232  92.5553102  -9.4472603
  48.7460012  78.3454997 -10.3930012  48.0720012  77.7164997 -10.1370012
  49.3100012  77.8614997 -10.9960012  48.7299230  78.1938744 -10.4394660
  53.8890012  76.4534997 -10.2800012  54.4930012  77.0004997 -10.7820012
  53.0190012  76.7724997 -10.5200012  53.8541241  76.5715806 -10.3812346
  55.6160012  77.5914997 -11.9470012  56.2280012  77.0774997 -12.4730012
  55.9980012  78.4694997 -11.9230012  55.7514540  77.6397140 -12.0158170
  41.0730012  76.9794997 -12.5710012  40.2960012  76.7454997 -13.0780012
  41.6030012  76.1824997 -12.5620012  41.0382330  76.8396988 -12.6392258
  39.9090012  76.7774997 -16.7670012  40.3480012  77.3884997 -17.3590012
  39.2760012  77.3154997 -16.2930012  39.8834514  76.9339257 -16.7839070
  45.6520012  76.9064997 -12.7570012  46.5270012  77.2944997 -12.7870012
  45.5160012  76.6914997 -11.8350012  45.7533695  76.9305184 -12.6363560
  51.2090012  76.9364997 -11.1080012  51.2850012  77.0314997 -12.0580012
  50.9340012  76.0284997 -10.9790012  51.1822321  76.8267867 -11.2204921
  52.5620012  76.9624997 -15.4160012  51.8600012  77.5774997 -15.6250012
  52.1180012  76.1244997 -15.2850012  52.4056330  76.9335783 -15.4269672
  39.8100012  92.7254997 -15.8690012  39.1250012  92.6874997 -16.5370012
  39.8140012  93.6384997 -15.5810012  39.7168193  92.8437016 -15.9214716
  41.7700012  78.6934997 -18.3250012  42.2620012  78.0634997 -18.8520012
  42.3940012  78.9894997 -17.6610012  41.9215446  78.6473199 -18.3074020
  46.7960012  78.9864997 -15.8680012  46.9740012  78.3404997 -15.1850012
  46.7430012  79.8204997 -15.4000012  46.8131829  79.0107985 -15.7114060
  48.6750012  93.9354997 -17.4720012  49.5410012  94.3014997 -17.6500012
  48.4280012  93.4954997 -18.2860012  48.7602392  93.9261756 -17.6063711
  55.3840012  93.4984997 -14.7930012  55.1890012  92.7504997 -15.3580012
  55.3450012  94.2564997 -15.3760012  55.3520380  93.4986099 -14.9491616
  41.0310012  77.4934997  -3.0530012  40.6650012  76.7284997  -2.6100012
  41.9440012  77.5224997  -2.7660012  41.1042790  77.3927224  -2.9535930
  43.0040012  76.8444997  -1.5170012  43.9020012  76.5704997  -1.7020012
  42.6170012  76.1014997  -1.0530012  43.0746612  76.7065914  -1.4796357
  41.6280012  93.6454997 -18.8440012  41.3610012  93.9324997 -17.9710012
  42.4000012  93.0994997 -18.6920012  41.6957488  93.6110294 -18.7038950
  51.4250012  76.1764997  -1.3350012  51.5020012  75.7504997  -0.4810012
  52.3190012  76.1904997  -1.6780012  51.5563428  76.1200879  -1.2644690
  54.6010012  92.2494997  -2.6430012  53.8190012  92.0634997  -3.1620012
  54.5290012  93.1784997  -2.4250012  54.4841777  92.3496492  -2.6845952
  69.0070012  86.1354997 -12.6120012  69.0960012  87.0794997 -12.7440012
  68.3690012  85.8604997 -13.2700012  68.9329081  86.2274830 -12.7190386
  67.9400012  85.3904997  -9.1930012  67.9020012  84.7444997  -8.4880012
  67.6180012  84.9244997  -9.9640012  67.8912333  85.2389408  -9.2007022
  60.3090012  85.0054997  -7.6000012  60.3500012  84.3794997  -6.8770012
  61.0120012  85.6294997  -7.4180012  60.4096363  85.0041196  -7.4763956
  71.6460012  88.3294997 -10.8920012  71.2060012  87.6094997 -10.4410012
  71.6330012  89.0504997 -10.2620012  71.5840226  88.3283731 -10.7451506
  61.2320012  89.4554997  -9.0650012  60.8630012  88.6534997  -9.4350012
  62.1730012  89.2864997  -9.0190012  61.3087289  89.3230153  -9.1093684
  57.8420012  83.1154997 -13.6720012  57.3950012  83.9614997 -13.6910012
  57.2810012  82.5354997 -14.1880012  57.7049900  83.1529916 -13.7443199
  58.5530012  85.2774997 -11.5460012  58.7660012  84.5074997 -11.0190012
  59.2910012  85.3664997 -12.1500012  58.6818496  85.1841394 -11.5554700
  68.7580012  93.4344997 -10.6790012  69.3780012  92.7574997 -10.9530012
  68.5500012  93.2164997  -9.7710012  68.8146904  93.3123870 -10.5936635
  66.3300012  87.8234997  -8.7870012  66.6340012  87.1374997  -9.3820012
  67.0510012  87.9414997  -8.1690012  66.4690671  87.7456305  -8.7848184
  74.9930012  79.4244997  -7.9260012  75.0420012  80.0344997  -7.1900012
  75.4180012  79.8854997  -8.6490012  75.0571824  79.5703741  -7.9229795
  69.4710012  82.2174997  -8.4590012  69.6130012  81.2714997  -8.4390012
  69.3640012  82.4244997  -9.3880012  69.4759864  82.1159534  -8.5817661
  62.6250012  80.3184997 -11.1870012  62.6690012  81.1784997 -11.6050012
  62.1680012  79.7664997 -11.8210012  62.5692185  80.3615799 -11.3299701
  70.3480012  80.4494997 -12.7860012  70.9940012  80.1204997 -12.1610012
  70.8580012  80.9674997 -13.4090012  70.5054264  80.4744611 -12.7846138
  59.2460012  82.7154997 -10.4250012  59.8990012  82.1654997  -9.9930012
  59.2700012  82.4414997 -11.3420012  59.3386683  82.6031466 -10.4897877
  64.4020012  84.2654997 -11.2100012  65.0180012  83.7394997 -10.7000012
  63.8160012  83.6254997 -11.6130012  64.4070810  84.1069208 -11.1946827
  75.3840012  80.9024997  -5.6900012  74.6960012  81.5604997  -5.7860012
  75.4000012  80.7054997  -4.7540012  75.2918525  80.9660462  -5.5765192
  61.4360012  79.2364997  -7.1130012  61.2170012  79.7664997  -7.8790012
  60.7680012  79.4634997  -6.4660012  61.3157600  79.3396906  -7.1303621
  68.8050012  88.7364997 -13.5690012  68.5090012  88.4144997 -14.4200012
  68.4800012  89.6364997 -13.5280012  68.7206371  88.8140215 -13.6798199
  64.0050012  86.9124997  -6.8260012  63.2650012  87.5104997  -6.7220012
  64.7190012  87.4664997  -7.1410012  64.0002237  87.0692831  -6.8543535
  72.1120012  79.7404997 -10.8060012  71.8960012  78.9744997 -10.2730012
  72.7670012  80.2124997 -10.2930012  72.1710632  79.6995889 -10.6637139
  61.0290012  81.1284997  -9.1610012  61.6430012  81.7614997  -8.7870012
  61.5410012  80.6564997  -9.8170012  61.1822296  81.1512370  -9.1985748
  62.4120012  88.8764997  -6.0380012  62.4070012  89.7564997  -6.4160012
  61.5590012  88.7934997  -5.6130012  62.2959464  88.9856117  -6.0322093
  58.5330012  88.5474997 -15.2560012  58.2610012  88.7764997 -16.1450012
  58.5790012  89.3854997 -14.7960012  58.5020094  88.6921213 -15.3154303
  72.1580012  90.1694997  -8.5440012  71.2170012  90.2274997  -8.3820012
  72.4350012  91.0754997  -8.6810012  72.0664679  90.2999443  -8.5403185
  72.4590012  78.4554997  -7.1260012  71.7230012  79.0664997  -7.1640012
  73.1420012  78.8704997  -7.6530012  72.4506541  78.5951374  -7.2024168
  65.4620012  76.5424997  -9.6600012  65.3450012  75.5934997  -9.7150012
  64.6070012  76.8744997  -9.3870012  65.3303733  76.4575409  -9.6306103
  70.4100012  91.9504997 -11.9180012  70.8360012  91.2434997 -12.4030012
  70.7270012  92.7514997 -12.3350012  70.5111019  91.9620994 -12.0406870
  71.5700012  89.8514997 -13.4100012  71.3120012  89.1614997 -14.0210012
  71.6410012  89.4084997 -12.5640012  71.5442856  89.6972124 -13.3793115
  73.2560012  88.4174997  -4.9320012  73.3960012  87.8264997  -5.6720012
  73.4230012  89.2904997  -5.2890012  73.2976778  88.4546426  -5.0813035
  67.7290012  85.3794997 -15.1600012  67.0170012  85.9144997 -15.5120012
  68.4200012  85.4354997 -15.8200012  67.7250132  85.4602543 -15.2973711
  67.7820012  83.8374997 -18.1210012  68.4830012  83.8594997 -17.4700012
  68.0850012  83.2094997 -18.7770012  67.9187830  83.7556566 -18.1206289
  75.0980012  84.7574997  -6.8660012  74.4450012  85.4524997  -6.7770012
  75.5630012  84.9674997  -7.6760012  75.0715390  84.8809425  -6.9633117
  71.1340012  85.5894997 -14.2080012  70.4020012  85.8174997 -13.6350012
  71.5820012  84.8754997 -13.7530012  71.0943095  85.5242571 -14.0680881
  71.0320012  83.7634997  -5.1410012  71.1120012  84.5264997  -4.5690012
  70.4300012  84.0424997  -5.8310012  70.9615756  83.9057134  -5.1559411
  62.7800012  86.2194997 -12.3260012  62.4490012  85.8494997 -13.1440012
  63.3680012  85.5494997 -11.9790012  62.8141873  86.0781156 -12.3911898
  64.1460012  89.6474997  -9.6440012  64.0520012  89.0694997 -10.4010012
  64.8760012  89.2764997  -9.1480012  64.2317981  89.5182390  -9.6805835
  63.1460012  84.9884997  -8.6920012  63.7120012  85.1094997  -9.4550012
  63.4650012  85.6254997  -8.0530012  63.2665786  85.0911884  -8.7099960
  69.4550012  90.4914997  -7.9580012  69.2150012  91.1534997  -7.3100012
  69.2570012  89.6574997  -7.5330012  69.3953808  90.4693134  -7.8118476
  64.0260012  89.3874997  -3.9750012  63.7150012  90.1694997  -3.5200012
  63.3760012  89.2344997  -4.6610012  63.8955558  89.4739105  -4.0054129
  70.0050012  84.7514997 -16.5230012  70.5850012  84.9014997 -15.7760012
  70.4190012  85.2224997 -17.2460012  70.1402830  84.8356841 -16.5185866
  60.9460012  85.5854997  -4.7460012  61.0170012  86.2364997  -4.0480012
  60.0560012  85.6884997  -5.0810012  60.8353117  85.6885936  -4.6957300
  67.7320012  91.4884997 -13.0880012  68.2060012  91.7834997 -12.3100012
  67.1690012  92.2264997 -13.3210012  67.7207653  91.6286932 -13.0129864
  62.2660012  91.4594997  -3.2120012  62.2730012  91.3234997  -4.1590012
  61.3500012  91.3414997  -2.9600012  62.1431714  91.4249430  -3.3075334
  73.7040012  76.5014997 -16.7100012  72.8040012  76.6404997 -16.4150012
  73.9560012  77.3324997 -17.1120012  73.6148702  76.6329074 -16.7239795
  61.7700012  85.2894997 -14.7360012  61.4780012  86.0574997 -15.2270012
  61.0960012  84.6294997 -14.8990012  61.6389081  85.3054406 -14.8252660
  74.8930012  90.8674997 -18.3340012  74.9670012  91.8064997 -18.1630012
  75.7990012  90.5624997 -18.3900012  75.0255100  90.9546722 -18.3181881
  57.8630012  87.6524997  -5.9210012  57.3620012  87.6244997  -6.7360012
  57.8680012  86.7464997  -5.6120012  57.7951526  87.5262278  -5.9907128
  57.6130012  90.4324997  -9.0370012  58.5590012  90.2884997  -9.0560012
  57.5010012  91.2164997  -8.5000012  57.7272727  90.5188046  -8.9669928
  75.8110012  91.0984997  -3.3550012  75.7620012  90.1434997  -3.3920012
  74.9840012  91.3664997  -2.9540012  75.6924940  91.0038998  -3.3058625
  66.7900012  90.6724997  -4.4790012  66.8770012  91.4984997  -4.0040012
  65.9260012  90.3424997  -4.2300012  66.6851964  90.7409878  -4.3803451
  67.2040012  94.4444997 -14.6730012  67.1290012  94.3234997 -15.6190012
  67.2370012  95.3944997 -14.5540012  67.1981848  94.5562500 -14.7865166
  60.8570012  93.2334997 -12.8920012  61.0100012  92.8854997 -12.0130012
  60.0070012  92.8774997 -13.1470012  60.7628962  93.1376650 -12.8061660
  70.3060012  93.5984997 -17.6710012  70.6810012  92.8544997 -18.1410012
  70.3100012  93.3284997 -16.7520012  70.3578915  93.4601486 -17.6112176
  69.9750012  93.5244997 -14.9210012  69.0390012  93.6244997 -14.7430012
  70.2550012  92.8154997 -14.3430012  69.8848255  93.4422711 -14.8184609
  72.9630012  82.5914997  -2.8750012  72.5560012  83.0724997  -3.5960012
  73.0040012  81.6864997  -3.1830012  72.9128437  82.5349374  -3.0153317
  60.1120012  88.9754997  -4.8780012  60.3280012  88.6144997  -4.0190012
  59.2570012  88.6014997  -5.0880012  60.0259292  88.8754111  -4.7886614
  62.7310012  77.4454997  -8.8830012  61.8690012  77.3584997  -9.2900012
  62.7080012  78.3014997  -8.4550012  62.6100330  77.5492765  -8.8808137
  67.3940012  77.1674997  -5.5080012  67.8140012  76.7524997  -4.7550012
  66.4610012  76.9894997  -5.3910012  67.3253644  77.0865900  -5.3890461
  70.7200012  80.9234997  -4.6550012  70.2060012  80.7974997  -3.8570012
  70.5650012  81.8354997  -4.8990012  70.6286852  81.0296132  -4.5787842
  71.4830012  85.7844997 -18.8930012  71.5250012  85.5614997 -19.8230012
  72.3320012  86.1834997 -18.7030012  71.6035396  85.8079155 -18.9946373
  67.0550012  79.6604997 -18.2230012  66.8020012  79.6794997 -17.3000012
  66.7990012  78.7884997 -18.5240012  66.9857790  79.5452437 -18.1373737
  62.8220012  82.4114997  -7.7880012  62.1800012  82.3704997  -7.0790012
  62.8590012  83.3374997  -8.0250012  62.7391324  82.5311559  -7.7230176
  62.8190012  82.6324997 -12.8760012  61.9260012  82.2914997 -12.9340012
  63.2690012  82.2554997 -13.6310012  62.7577305  82.5348484 -12.9860823
  68.3540012  83.0484997 -14.0590012  67.9450012  83.8634997 -14.3500012
  69.0750012  82.9084997 -14.6730012  68.3954537  83.1412018 -14.1818658
  67.4560012  83.2234997  -2.5710012  66.8940012  82.5194997  -2.2500012
  68.2830012  83.1034997  -2.1030012  67.4907095  83.1107883  -2.4637670
  69.3590012  82.4944997 -11.2450012  69.1640012  83.0994997 -11.9600012
  69.5400012  81.6604997 -11.6790012  69.3567614  82.4646300 -11.4015595
  60.5720012  82.7314997  -5.9210012  60.5340012  83.1314997  -5.0520012
  60.0810012  81.9144997  -5.8300012  60.5004684  82.6758069  -5.7898941
  63.9380012  80.1054997 -19.1220012  63.5070012  79.6604997 -18.3920012
  63.2200012  80.4774997 -19.6340012  63.7819438  80.0948940 -19.0913201
  57.1800012  79.8474997 -12.0700012  57.8110012  79.8184997 -11.3510012
  57.6290012  79.4224997 -12.8000012  57.3270774  79.7860492 -12.0703447
  58.4540012  80.5934997 -16.6460012  58.9280012  81.1844997 -17.2310012
  57.7370012  81.1244997 -16.2990012  58.4219341  80.7460867 -16.6791164
  68.6230012  84.1324997  -6.5730012  68.9460012  83.5014997  -7.2160012
  68.1830012  83.5974997  -5.9130012  68.6076895  83.9738441  -6.5717150
  65.4000012  80.0594997 -11.7890012  64.4890012  80.1164997 -11.5010012
  65.9060012  79.9994997 -10.9790012  65.3435413  80.0591985 -11.6399378
  60.2290012  81.6884997 -12.9630012  59.3390012  81.7884997 -13.3030012
  60.5250012  80.8464997 -13.3090012  60.1472823  81.5883545 -13.0562787
  63.8820012  81.6884997 -15.3060012  64.8130012  81.8174997 -15.1280012
  63.6670012  82.3584997 -15.9560012  63.9804247  81.7966565 -15.3694253
  69.8050012  79.2944997  -8.5250012  69.1290012  79.4254997  -7.8610012
  69.3200012  79.1394997  -9.3350012  69.6467145  79.2914905  -8.5435483
  62.5560012  82.8834997 -17.7390012  62.0130012  82.5034997 -18.4310012
  63.3890012  83.0774997 -18.1680012  62.5944399  82.8578124 -17.8915474
  73.0930012  94.9664997  -2.2480012  73.2930012  95.3904997  -3.0830012
  73.7480012  95.3094997  -1.6410012  73.2090051  95.0709648  -2.2802164
  60.6910012  87.4404997  -2.6400012  61.4230012  87.6944997  -2.0790012
  59.9110012  87.6444997  -2.1250012  60.6858232  87.5029177  -2.4934240
  66.7200012  82.8474997  -9.9020012  67.2850012  82.3004997 -10.4490012
  66.5730012  82.3254997  -9.1140012  66.7772918  82.7022024  -9.8701546
  61.7220012  78.9834997 -13.4840012  61.4050012  78.0814997 -13.5190012
  62.5040012  78.9854997 -14.0370012  61.7842284  78.8601628 -13.5635217
  65.3470012  81.2354997  -7.4880012  64.5110012  81.6894997  -7.3780012
  65.8710012  81.5114997  -6.7360012  65.3034414  81.3349376  -7.3712864
  65.8910012  87.4484997 -15.8040012  65.1460012  86.9414997 -16.1260012
  65.7570012  87.4974997 -14.8570012  65.7708776  87.3856940 -15.7201353
  73.0410012  86.5814997  -7.0170012  73.6830012  87.0384997  -7.5610012
  72.2110012  86.6944997  -7.4800012  73.0165963  86.6592704  -7.1539823
  69.7890012  80.2624997 -17.6040012  68.8500012  80.3744997 -17.7560012
  70.0860012  81.1194997 -17.2980012  69.7007666  80.3936443 -17.5834232
  67.4100012  87.6324997  -4.5670012  67.0650012  87.2514997  -3.7600012
  67.2100012  88.5664997  -4.4950012  67.3358061  87.7065228  -4.4469039
  70.5070012  82.1294997 -15.9440012  71.3990012  81.9924997 -15.6250012
  70.5640012  82.9204997 -16.4800012  70.6366285  82.2176660 -15.9728310
  61.0160012  86.7434997 -10.0340012  61.7610012  86.7414997 -10.6350012
  61.0940012  85.9204997  -9.5520012  61.1285518  86.6319315 -10.0511071
  68.0170012  88.9074997 -16.7780012  67.7210012  89.7334997 -16.3970012
  67.3140012  88.2874997 -16.5820012  67.8814914  88.9368199 -16.6993557
  58.0240012  85.2044997  -4.7190012  58.2470012  84.7864997  -3.8870012
  57.4220012  84.5914997  -5.1420012  57.9731759  85.0644668  -4.6622978
  65.0400012  84.7214997  -2.5060012  64.7440012  84.5554997  -3.4010012
  65.9720012  84.5014997  -2.5170012  65.1254166  84.6690640  -2.6299464
  69.6610012  90.0944997  -4.6160012  68.7600012  90.2774997  -4.8840012
  69.6950012  90.3534997  -3.6950012  69.5423041  90.1545512  -4.5281803
  75.3920012  82.3394997 -16.2490012  74.8380012  81.9434997 -16.9210012
  75.4920012  83.2494997 -16.5270012  75.3297059  82.4083586 -16.3785599
  75.3550012  88.1394997  -3.4120012  74.5040012  88.3774997  -3.7790012
  75.9460012  88.1224997  -4.1650012  75.3182487  88.1698258  -3.5641107
  73.6870012  91.1254997 -15.7840012  73.3140012  90.2994997 -15.4750012
  73.9650012  90.9424997 -16.6810012  73.6735630  90.9877303 -15.8630374
  70.8480012  85.9334997  -8.7630012  69.9190012  85.7014997  -8.7900012
  71.2990012  85.1564997  -9.0930012  70.7819216  85.7967238  -8.8113083
  63.3910012  90.2614997 -12.6300012  63.9180012  91.0344997 -12.8300012
  62.5110012  90.4864997 -12.9310012  63.3441773  90.3978005 -12.6980990
  59.1460012  85.1234997 -18.0430012  59.7620012  85.7504997 -17.6630012
  58.2840012  85.4394997 -17.7710012  59.1137698  85.2519430 -17.9542817
  64.8180012  87.9244997 -13.0530012  64.5770012  88.8494997 -13.0120012
  64.0770012  87.4654997 -12.6570012  64.6848409  87.9891421 -12.9938623
  65.3330012  92.0734997  -6.7380012  65.6950012  92.9284997  -6.9720012
  65.8640012  91.7814997  -5.9980012  65.4544473  92.1511060  -6.6699145
  63.5010012  92.9464997 -13.5080012  62.5510012  93.0514997 -13.4570012
  63.8530012  93.7664997 -13.1630012  63.4184203  93.0718314 -13.4543350
  68.8770012  88.1724997  -7.0380012  68.4510012  87.9454997  -6.2110012
  69.4570012  87.4344997  -7.2200012  68.8971868  88.0415299  -6.9494170
  71.0800012  89.1014997 -17.9640012  71.4330012  88.7214997 -17.1590012
  70.1310012  89.0084997 -17.8770012  71.0000441  89.0369596 -17.8421441
  71.5350012  92.7244997  -4.5680012  70.9340012  92.1694997  -5.0640012
  71.8170012  93.3914997  -5.1940012  71.4908519  92.7386841  -4.7205048
  75.5830012  93.5814997 -17.7630012  76.3270012  94.1674997 -17.9030012
  74.8890012  94.1494997 -17.4290012  75.5910292  93.7385582 -17.7370039
  59.6580012  79.9574997  -5.1610012  58.7650012  80.2964997  -5.2290012
  59.5590012  79.1024997  -4.7430012  59.5224164  79.8882588  -5.1137765
  71.9460012  87.7744997 -15.7370012  71.6680012  87.0464997 -15.1810012
  72.8730012  87.8934997 -15.5320012  72.0333124  87.6908802 -15.6331155
  59.3090012  91.7624997  -6.7260012  59.5260012  90.8304997  -6.7570012
  59.5550012  92.0364997  -5.8430012  59.3719549  91.6720636  -6.6108237
  65.1710012  90.2134997 -19.5170012  65.4100012  89.4654997 -20.0640012
  64.9020012  89.8254997 -18.6840012  65.1673675  90.0586638 -19.4793135
  64.1080012  89.7834997 -17.0600012  64.2540012  89.2634997 -16.2700012
  64.1050012  90.6904997 -16.7540012  64.1275989  89.8348853 -16.9103912
  60.5610012  87.0364997 -16.5500012  59.8750012  87.3884997 -15.9830012
  61.0830012  87.7994997 -16.7970012  60.5376852  87.1878578 -16.5057882
  68.3920012  79.6984997  -6.2710012  69.0910012  79.7724997  -5.6210012
  68.0110012  78.8344997  -6.1170012  68.4361767  79.5917624  -6.1611678
  69.1770012  79.3504997 -15.1740012  69.3970012  79.8224997 -15.9770012
  69.7350012  79.7454997 -14.5040012  69.2824968  79.4684285 -15.1932669
  66.8450012  91.4814997 -16.3110012  66.0290012  91.9784997 -16.2590012
  67.3750012  91.9564997 -16.9510012  66.8049161  91.6137722 -16.3904044
  66.3770012  81.0784997 -14.3390012  67.1890012  81.5834997 -14.2930012
  66.1320012  80.9334997 -13.4250012  66.4550520  81.1280375 -14.2091483
  66.9120012  82.0644997  -5.1540012  67.0310012  82.6384997  -4.3970012
  67.5680012  81.3764997  -5.0400012  67.0169757  82.0501079  -5.0349175
  67.2600012  78.1594997 -13.4010012  66.9140012  78.7774997 -12.7560012
  67.9190012  78.6604997 -13.8820012  67.3017826  78.3115802 -13.3779029
  64.1840012  92.5254997 -16.3290012  64.3440012  93.3244997 -16.8300012
  63.9860012  92.8314997 -15.4440012  64.1791649  92.6764469 -16.2780185
  62.9180012  79.2224997 -16.7140012  62.8350012  80.1114997 -16.3670012
  63.8080012  78.9574997 -16.4820012  63.0269469  79.3081430 -16.6352374
  73.1170012  79.9714997  -4.3190012  72.2000012  80.2344997  -4.4070012
  73.4520012  79.9684997  -5.2160012  73.0369900  80.0070224  -4.4522081
  71.7190012  83.7224997 -10.2240012  70.9210012  83.3074997 -10.5520012
  72.1640012  83.0314997  -9.7330012  71.6699885  83.5723543 -10.2025111
  61.1770012  89.6504997 -17.6530012  61.7690012  90.3494997 -17.3770012
  61.6360012  89.2174997 -18.3730012  61.3201142  89.6877049 -17.7125170
  59.4930012  82.3144997 -18.5370012  59.4480012  83.2534997 -18.3590012
  58.6050012  82.0784997 -18.8070012  59.3668574  82.4111892 -18.5491088
  72.8050012  92.9784997  -8.6010012  72.6500012  93.6564997  -9.2580012
  73.7380012  93.0504997  -8.3980012  72.9098500  93.0810170  -8.6634881
  60.3010012  77.0964997  -9.8640012  60.0720012  77.1554997 -10.7920012
  59.8580012  76.3044997  -9.5580012  60.2098530  76.9975753  -9.9495214
  59.2310012  91.0364997 -13.7040012  58.3990012  91.5094997 -13.6760012
  59.7770012  91.5464997 -14.3020012  59.1909739  91.1701871 -13.7810284
  58.5190012  93.6494997  -2.3740012  59.0600012  93.4324997  -1.6140012
  58.0380012  92.8434997  -2.5630012  58.5279345  93.5109514  -2.2956924
  63.1170012  92.5684997  -0.7530012  63.8840012  92.1094997  -0.4120012
  63.0950012  92.3424997  -1.6830012  63.2191434  92.4750409  -0.8319957
  67.2090012  92.0764997 -19.3780012  66.5650012  91.4454997 -19.0570012
  67.9710012  91.5454997 -19.6100012  67.2238077  91.9182920 -19.3653989
  69.6940012  90.9484997  -2.0240012  69.3430012  90.0924997  -1.7810012
  70.4200012  91.0914997  -1.4170012  69.7440769  90.8505636  -1.9086381
  71.8130012  91.8934997 -19.1440012  72.0960012  91.0994997 -18.6920012
  72.5530012  92.1264997 -19.7050012  71.9517486  91.8162803 -19.1579302
  58.4260012  87.4594997  -1.4190012  58.5700012  86.5574997  -1.7060012
  57.6540012  87.7454997  -1.9070012  58.3413323  87.3748261  -1.5242119
  62.7680012  87.8034997 -19.2870012  62.8320012  87.0094997 -18.7560012
  63.4210012  87.6844997 -19.9770012  62.8650241  87.6787148 -19.3075683
  65.0820012  87.4294997  -1.9870012  64.7530012  87.7004997  -2.8440012
  65.2340012  86.4884997  -2.0740012  65.0574809  87.3393862  -2.1161756
  70.8160012  87.3454997  -4.6030012  71.5620012  87.9334997  -4.7230012
  70.0590012  87.9274997  -4.5400012  70.8157554  87.5047011  -4.6109093
  59.2590012  84.6594997  -1.9990012  59.6670012  83.8024997  -2.1200012
  58.9990012  84.6744997  -1.0780012  59.2797568  84.5440807  -1.8910412
  63.9170012  85.7754997 -16.9810012  63.4570012  85.2914997 -16.2950012
  64.1720012  85.1074997 -17.6170012  63.8884902  85.6188731 -16.9730666
  63.2060012  83.6684997  -4.6250012  62.5880012  84.3434997  -4.3450012
  63.5500012  83.9894997  -5.4580012  63.1679615  83.8042721  -4.6993419
  64.9880012  84.0184997 -18.7190012  64.8080012  83.8644997 -19.6460012
  65.9380012  84.1264997 -18.6740012  65.0917776  84.0120175 -18.8398157
  68.2260012  86.1404997  -1.3480012  69.1790012  86.2234997  -1.3750012
  68.0650012  85.4284997  -0.7280012  68.3346426  86.0556746  -1.2679421
  74.3780012  86.3734997 -19.2730012  74.1040012  85.9484997 -20.0860012
  74.4170012  87.3044997 -19.4900012  74.3457699  86.4412484 -19.4136390
  63.5450012  81.0234997  -3.5430012  63.6950012  80.2944997  -4.1450012
  63.5480012  81.8004997  -4.1020012  63.5659302  81.0287851  -3.7009308
  63.9580012  79.3934997  -6.0500012  64.4940012  79.8444997  -6.7020012
  63.1060012  79.2854997  -6.4730012  63.9162178  79.4406390  -6.1964244
  65.5400012  84.8324997  -5.8110012  66.2900012  84.6764997  -6.3840012
  65.2010012  85.6844997  -6.0860012  65.5968921  84.9262968  -5.9266439
  69.9550012  82.6474997  -0.7820012  70.1480012  81.7164997  -0.8940012
  70.8130012  83.0724997  -0.7920012  70.0973020  82.5776389  -0.7986639
  71.2720012  85.4364997  -2.7050012  70.9910012  86.1454997  -3.2820012
  72.2150012  85.3634997  -2.8560012  71.3609027  85.5237646  -2.8044449
  62.0240012  82.2214997  -1.6310012  61.2570012  81.6894997  -1.8410012
  62.7030012  81.9114997  -2.2310012  62.0107022  82.1067506  -1.7408352
  64.7640012  76.8494997  -5.6190012  64.6650012  77.7964997  -5.7240012
  64.0210012  76.4774997  -6.0940012  64.6500564  76.9285902  -5.6975440
  66.0280012  81.1714997  -2.0550012  65.7920012  80.9514997  -1.1530012
  65.2440012  80.9644997  -2.5650012  65.8898628  81.1134760  -2.0006068
  68.7430012  80.2984997  -2.9790012  67.7960012  80.3304997  -2.8470012
  69.0560012  79.6734997  -2.3260012  68.6555475  80.2183207  -2.8725545
  70.3770012  78.9324997  -0.9740012  70.2810012  77.9804997  -0.9800012
  70.0560012  79.2014997  -0.1140012  70.3204070  78.8384035  -0.8584559
  60.2040012  80.1424997  -1.9270012  60.4160012  79.4354997  -2.5370012
  60.0930012  79.7044997  -1.0830012  60.2179721  79.9867084  -1.8963157
  64.9850012  76.1434997  -2.9470012  65.6970012  75.5034997  -2.9610012
  64.8840012  76.4104997  -3.8610012  65.0687939  76.0919938  -3.0724350
  65.3390012  77.8264997  -0.8940012  65.2070012  77.3504997  -1.7140012
  64.7400012  78.5704997  -0.9490012  65.2399071  77.8619618  -1.0137114
  64.8850012  94.7094997 -17.7170012  65.8180012  94.8674997 -17.5740012
  64.6210012  95.3844997 -18.3420012  64.9769510  94.8223611 -17.7819259
  58.4540012  89.3454997 -18.2350012  59.3680012  89.4244997 -17.9610012
  58.4610012  88.6584997 -18.9010012  58.5801131  89.2633961 -18.2875607
  57.1030012  94.7384997 -13.1570012  56.4560012  94.2764997 -13.6900012
  57.4570012  94.0664997 -12.5750012  57.0623849  94.5844723 -13.1512041
  57.9730012  92.8194997 -11.3530012  57.6380012  91.9394997 -11.1810012
  58.1950012  93.1644997 -10.4880012  57.9571783  92.7457500 -11.2125792
  75.5210012  93.6284997  -8.3720012  75.5000012  93.8134997  -7.4330012
  76.2120012  94.1974997  -8.7130012  75.6114618  93.7306606  -8.2896136
  75.0850012  93.1964997  -5.4500012  74.5970012  92.4604997  -5.8210012
  75.6340012  92.8024997  -4.7720012  75.0924872  93.0426249  -5.4090840
  73.5350012  88.9854997  -0.8120012  72.6690012  88.8804997  -0.4180012
  73.9120012  89.7444997  -0.3660012  73.4673308  89.0736900  -0.6977607
  74.8360012  87.2424997 -15.2980012  75.6860012  87.6634997 -15.1710012
  74.8420012  86.5024997 -14.6910012  74.9531372  87.2000803 -15.1985656
  75.2310012  85.2954997 -13.4740012  74.5040012  84.8164997 -13.0770012
  75.8120012  85.5014997 -12.7420012  75.2099375  85.2577090 -13.3205871
  74.9900012  88.0804997  -8.5270012  75.8230012  87.7024997  -8.8070012
  75.1020012  89.0234997  -8.6460012  75.1192647  88.1562218  -8.5814513
  73.4760012  90.9584997  -6.2200012  72.8290012  91.2834997  -5.5940012
  72.9590012  90.5184997  -6.8940012  73.3174029  90.9435004  -6.2254173
  75.4990012  85.1964997 -17.0830012  74.9770012  85.5534997 -17.8020012
  75.4660012  85.8714997 -16.4050012  75.4231634  85.3365413 -17.0896855
  73.8480012  82.4364997 -18.5320012  73.9440012  83.1034997 -19.2130012
  73.7080012  81.6204997 -19.0140012  73.8422135  82.4174500 -18.6901509
  73.0170012  83.8164997 -12.9110012  72.8670012  82.8714997 -12.9320012
  72.6640012  84.0974997 -12.0680012  72.9486625  83.7250441 -12.7997654
  58.0530012  85.8944997  -8.9010012  58.2370012  85.8124997  -9.8370012
  58.9020012  85.7704997  -8.4770012  58.1930139  85.8665003  -8.9718545
  73.8740012  85.7864997  -3.2730012  74.4570012  85.0524997  -3.0810012
  74.4380012  86.5584997  -3.2260012  74.0299769  85.7904227  -3.2403841
  75.3700012  83.6894997  -2.5880012  74.5070012  83.3104997  -2.7540012
  75.9750012  82.9504997  -2.6620012  75.3335979  83.5378023  -2.6207183
  73.0950012  79.8444997 -19.4150012  73.7060012  79.4734997 -18.7780012
  72.2590012  79.4234997 -19.2190012  73.0655032  79.7367554 -19.3012965
  72.7280012  81.3994997 -14.4490012  73.0080012  80.4924997 -14.3250012
  73.4870012  81.8334997 -14.8380012  72.8689277  81.3340942 -14.4846318
  73.3400012  81.9804997  -9.0130012  74.2730012  82.1924997  -9.0470012
  73.1050012  82.0824997  -8.0910012  73.4358036  82.0232769  -8.8930024
  73.3690012  82.7174997  -6.2370012  72.5260012  82.9854997  -5.8710012
  73.8110012  83.5394997  -6.4480012  73.3134158  82.8653291  -6.2154509
  57.6500012  81.1654997  -2.7600012  58.5700012  81.0434997  -2.5240012
  57.2010012  80.4154997  -2.3710012  57.7151580  81.0473727  -2.6750994
  75.6520012  76.6974997  -0.8840012  76.0020012  76.0434997  -1.4890012
  75.7990012  77.5344997  -1.3230012  75.7198419  76.7211591  -1.0262882
  73.3410012  78.6624997 -14.4010012  73.5240012  78.2134997 -13.5750012
  72.7420012  78.0774997 -14.8640012  73.2850202  78.5219975 -14.3506725
  58.8710012  79.4774997  -9.8690012  59.3170012  78.6854997  -9.5670012
  59.3380012  80.1934997  -9.4380012  58.9950172  79.4660624  -9.7695180
  57.1750012  82.4764997  -8.8000012  57.6670012  82.2554997  -9.5910012
  57.5380012  83.3174997  -8.5190012  57.2913126  82.5598357  -8.8702469
  75.1720012  78.8064997  -2.5340012  74.2540012  79.0774997  -2.5700012
  75.2950012  78.2714997  -3.3190012  75.0631066  78.7712892  -2.6449513
  75.2080012  78.7294997 -17.8730012  75.6200012  78.0084997 -18.3480012
  75.8900012  79.3994997 -17.8140012  75.3565885  78.7212368 -17.9301085
  57.4890012  78.7344997 -14.7460012  56.5640012  78.9434997 -14.8750012
  57.9430012  79.2184997 -15.4350012  57.4237368  78.8285993 -14.8568774
  72.2600012  93.7184997 -12.8000012  72.9120012  93.3714997 -13.4080012
  72.7700012  94.2074997 -12.1540012  72.4182637  93.7370597 -12.7959764
  57.4530012  77.4724997  -6.4010012  56.7880012  77.2264997  -5.7580012
  57.0100012  78.0944997  -6.9790012  57.3020956  77.5228632  -6.3910648
  59.6450012  90.6474997  -2.2570012  58.8240012  90.8224997  -2.7170012
  59.3920012  90.5744997  -1.3360012  59.4986164  90.6615622  -2.1955077
  62.5990012  91.6224997  -5.9980012  62.1740012  92.4314997  -6.2810012
  63.5030012  91.7074997  -6.3000012  62.6630271  91.7448469  -6.0776224
  66.9100012  93.0214997  -3.0390012  67.0950012  92.6874997  -2.1610012
  67.7560012  93.3304997  -3.3610012  67.0497539  93.0176047  -2.9624395
  69.2550012  94.3074997  -3.7950012  69.9320012  93.6744997  -4.0350012
  69.5770012  94.7084997  -2.9880012  69.3911637  94.2751154  -3.7187207
  74.1720012  76.8964997  -4.7150012  73.3600012  77.2214997  -5.1030012
  74.4050012  76.1364997  -5.2480012  74.0923423  76.8382436  -4.8401747
  60.0010012  94.8784997  -5.9510012  59.2800012  95.3184997  -6.4020012
  59.6350012  94.6274997  -5.1020012  59.8529804  94.9047698  -5.8980160
  62.4680012  94.4784997  -6.9210012  61.6030012  94.5504997  -6.5170012
  62.4130012  95.0254997  -7.7050012  62.3422085  94.5622685  -6.9716638
  67.1780012  94.3664997  -7.7460012  66.7220012  94.8954997  -8.4000012
  67.3410012  94.9694997  -7.0200012  67.1375585  94.5204468  -7.7374938
  69.5060012  93.2444997  -6.8010012  68.6010012  93.4094997  -7.0660012
  69.9350012  94.0974997  -6.8660012  69.4400799  93.3824483  -6.8460818
  72.1100012  94.8144997  -6.5060012  71.9280012  95.7304997  -6.7160012
  72.2870012  94.4044997  -7.3520012  72.1090210  94.8844822  -6.6492115
  59.4150012  93.5014997  -9.0410012  59.3970012  93.0764997  -8.1830012
  60.2200012  93.1834997  -9.4490012  59.5213875  93.4003812  -8.9788345
  61.5570012  92.2114997 -10.3860012  61.3380012  91.2954997 -10.2160012
  62.3810012  92.3514997  -9.9200012  61.6384420  92.1050520 -10.2997226
  64.0940012  92.6814997  -9.5370012  64.3070012  91.7934997  -9.8240012
  64.1580012  92.6474997  -8.5830012  64.1318232  92.5553102  -9.4472603
  67.6020012  78.3454997 -10.3930012  66.9280012  77.7164997 -10.1370012
  68.1660012  77.8614997 -10.9960012  67.5859230  78.1938744 -10.4394660
  72.7450012  76.4534997 -10.2800012  73.3490012  77.0004997 -10.7820012
  71.8750012  76.7724997 -10.5200012  72.7101241  76.5715806 -10.3812346
  74.4720012  77.5914997 -11.9470012  75.0840012  77.0774997 -12.4730012
  74.8540012  78.4694997 -11.9230012  74.6074540  77.6397140 -12.0158170
  59.9290012  76.9794997 -12.5710012  59.1520012  76.7454997 -13.0780012
  60.4590012  76.1824997 -12.5620012  59.8942330  76.8396988 -12.6392258
  58.7650012  76.7774997 -16.7670012  59.2040012  77.3884997 -17.3590012
  58.1320012  77.3154997 -16.2930012  58.7394514  76.9339257 -16.7839070
  64.5080012  76.9064997 -12.7570012  65.3830012  77.2944997 -12.7870012
  64.3720012  76.6914997 -11.8350012  64.6093695  76.9305184 -12.6363560
  70.0650012  76.9364997 -11.1080012  70.1410012  77.0314997 -12.0580012
  69.7900012  76.0284997 -10.9790012  70.0382321  76.8267867 -11.2204921
  71.4180012  76.9624997 -15.4160012  70.7160012  77.5774997 -15.6250012
  70.9740012  76.1244997 -15.2850012  71.2616330  76.9335783 -15.4269672
  58.6660012  92.7254997 -15.8690012  57.9810012  92.6874997 -16.5370012
  58.6700012  93.6384997 -15.5810012  58.5728193  92.8437016 -15.9214716
  60.6260012  78.6934997 -18.3250012  61.1180012  78.0634997 -18.8520012
  61.2500012  78.9894997 -17.6610012  60.7775446  78.6473199 -18.3074020
  65.6520012  78.9864997 -15.8680012  65.8300012  78.3404997 -15.1850012
  65.5990012  79.8204997 -15.4000012  65.6691829  79.0107985 -15.7114060
  67.5310012  93.9354997 -17.4720012  68.3970012  94.3014997 -17.6500012
  67.2840012  93.4954997 -18.2860012  67.6162392  93.9261756 -17.6063711
  74.2400012  93.4984997 -14.7930012  74.0450012  92.7504997 -15.3580012
  74.2010012  94.2564997 -15.3760012  74.2080380  93.4986099 -14.9491616
  59.8870012  77.4934997  -3.0530012  59.5210012  76.7284997  -2.6100012
  60.8000012  77.5224997  -2.7660012  59.9602790  77.3927224  -2.9535930
  61.8600012  76.8444997  -1.5170012  62.7580012  76.5704997  -1.7020012
  61.4730012  76.1014997  -1.0530012  61.9306612  76.7065914  -1.4796357
  60.4840012  93.6454997 -18.8440012  60.2170012  93.9324997 -17.9710012
  61.2560012  93.0994997 -18.6920012  60.5517488  93.6110294 -18.7038950
  70.2810012  76.1764997  -1.3350012  70.3580012  75.7504997  -0.4810012
  71.1750012  76.1904997  -1.6780012  70.4123428  76.1200879  -1.2644690
  73.4570012  92.2494997  -2.6430012  72.6750012  92.0634997  -3.1620012
  73.3850012  93.1784997  -2.4250012  73.3401777  92.3496492  -2.6845952
  87.8630012  86.1354997 -12.6120012  87.9520012  87.0794997 -12.7440012
  87.2250012  85.8604997 -13.2700012  87.7889081  86.2274830 -12.7190386
  86.7960012  85.3904997  -9.1930012  86.7580012  84.7444997  -8.4880012
  86.4740012  84.9244997  -9.9640012  86.7472333  85.2389408  -9.2007022
  79.1650012  85.0054997  -7.6000012  79.2060012  84.3794997  -6.8770012
  79.8680012  85.6294997  -7.4180012  79.2656363  85.0041196  -7.4763956
  90.5020012  88.3294997 -10.8920012  90.0620012  87.6094997 -10.4410012
  90.4890012  89.0504997 -10.2620012  90.4400226  88.3283731 -10.7451506
  80.0880012  89.4554997  -9.0650012  79.7190012  88.6534997  -9.4350012
  81.0290012  89.2864997  -9.0190012  80.1647289  89.3230153  -9.1093684
  76.6980012  83.1154997 -13.6720012  76.2510012  83.9614997 -13.6910012
  76.1370012  82.5354997 -14.1880012  76.5609900  83.1529916 -13.7443199
  77.4090012  85.2774997 -11.5460012  77.6220012  84.5074997 -11.0190012
  78.1470012  85.3664997 -12.1500012  77.5378496  85.1841394 -11.5554700
  87.6140012  93.4344997 -10.6790012  88.2340012  92.7574997 -10.9530012
  87.4060012  93.2164997  -9.7710012  87.6706904  93.3123870 -10.5936635
  85.1860012  87.8234997  -8.7870012  85.4900012  87.1374997  -9.3820012
  85.9070012  87.9414997  -8.1690012  85.3250671  87.7456305  -8.7848184
  93.8490012  79.4244997  -7.9260012  93.8980012  80.0344997  -7.1900012
  94.2740012  79.8854997  -8.6490012  93.9131824  79.5703741  -7.9229795
  88.3270012  82.2174997  -8.4590012  88.4690012  81.2714997  -8.4390012
  88.2200012  82.4244997  -9.3880012  88.3319864  82.1159534  -8.5817661
  81.4810012  80.3184997 -11.1870012  81.5250012  81.1784997 -11.6050012
  81.0240012  79.7664997 -11.8210012  81.4252185  80.3615799 -11.3299701
  89.2040012  80.4494997 -12.7860012  89.8500012  80.1204997 -12.1610012
  89.7140012  80.9674997 -13.4090012  89.3614264  80.4744611 -12.7846138
  78.1020012  82.7154997 -10.4250012  78.7550012  82.1654997  -9.9930012
  78.1260012  82.4414997 -11.3420012  78.1946683  82.6031466 -10.4897877
  83.2580012  84.2654997 -11.2100012  83.8740012  83.7394997 -10.7000012
  82.6720012  83.6254997 -11.6130012  83.2630810  84.1069208 -11.1946827
  94.2400012  80.9024997  -5.6900012  93.5520012  81.5604997  -5.7860012
  94.2560012  80.7054997  -4.7540012  94.1478525  80.9660462  -5.5765192
  80.2920012  79.2364997  -7.1130012  80.0730012  79.7664997  -7.8790012
  79.6240012  79.4634997  -6.4660012  80.1717600  79.3396906  -7.1303621
  87.6610012  88.7364997 -13.5690012  87.3650012  88.4144997 -14.4200012
  87.3360012  89.6364997 -13.5280012  87.5766371  88.8140215 -13.6798199
  82.8610012  86.9124997  -6.8260012  82.1210012  87.5104997  -6.7220012
  83.5750012  87.4664997  -7.1410012  82.8562237  87.0692831  -6.8543535
  90.9680012  79.7404997 -10.8060012  90.7520012  78.9744997 -10.2730012
  91.6230012  80.2124997 -10.2930012  91.0270632  79.6995889 -10.6637139
  79.8850012  81.1284997  -9.1610012  80.4990012  81.7614997  -8.7870012
  80.3970012  80.6564997  -9.8170012  80.0382296  81.1512370  -9.1985748
  81.2680012  88.8764997  -6.0380012  81.2630012  89.7564997  -6.4160012
  80.4150012  88.7934997  -5.6130012  81.1519464  88.9856117  -6.0322093
  77.3890012  88.5474997 -15.2560012  77.1170012  88.7764997 -16.1450012
  77.4350012  89.3854997 -14.7960012  77.3580094  88.6921213 -15.3154303
  91.0140012  90.1694997  -8.5440012  90.0730012  90.2274997  -8.3820012
  91.2910012  91.0754997  -8.6810012  90.9224679  90.2999443  -8.5403185
  91.3150012  78.4554997  -7.1260012  90.5790012  79.0664997  -7.1640012
  91.9980012  78.8704997  -7.6530012  91.3066541  78.5951374  -7.2024168
  84.3180012  76.5424997  -9.6600012  84.2010012  75.5934997  -9.7150012
  83.4630012  76.8744997  -9.3870012  84.1863733  76.4575409  -9.6306103
  89.2660012  91.9504997 -11.9180012  89.6920012  91.2434997 -12.4030012
  89.5830012  92.7514997 -12.3350012  89.3671019  91.9620994 -12.0406870
  90.4260012  89.8514997 -13.4100012  90.1680012  89.1614997 -14.0210012
  90.4970012  89.4084997 -12.5640012  90.4002856  89.6972124 -13.3793115
  92.1120012  88.4174997  -4.9320012  92.2520012  87.8264997  -5.6720012
  92.2790012  89.2904997  -5.2890012  92.1536778  88.4546426  -5.0813035
  86.5850012  85.3794997 -15.1600012  85.8730012  85.9144997 -15.5120012
  87.2760012  85.4354997 -15.8200012  86.5810132  85.4602543 -15.2973711
  86.6380012  83.8374997 -18.1210012  87.3390012  83.8594997 -17.4700012
  86.9410012  83.2094997 -18.7770012  86.7747830  83.7556566 -18.1206289
  93.9540012  84.7574997  -6.8660012  93.3010012  85.4524997  -6.7770012
  94.4190012  84.9674997  -7.6760012  93.9275390  84.8809425  -6.9633117
  89.9900012  85.5894997 -14.2080012  89.2580012  85.8174997 -13.6350012
  90.4380012  84.8754997 -13.7530012  89.9503095  85.5242571 -14.0680881
  89.8880012  83.7634997  -5.1410012  89.9680012  84.5264997  -4.5690012
  89.2860012  84.0424997  -5.8310012  89.8175756  83.9057134  -5.1559411
  81.6360012  86.2194997 -12.3260012  81.3050012  85.8494997 -13.1440012
  82.2240012  85.5494997 -11.9790012  81.6701873  86.0781156 -12.3911898
  83.0020012  89.6474997  -9.6440012  82.9080012  89.0694997 -10.4010012
  83.7320012  89.2764997  -9.1480012  83.0877981  89.5182390  -9.6805835
  82.0020012  84.9884997  -8.6920012  82.5680012  85.1094997  -9.4550012
  82.3210012  85.6254997  -8.0530012  82.1225786  85.0911884  -8.7099960
  88.3110012  90.4914997  -7.9580012  88.0710012  91.1534997  -7.3100012
  88.1130012  89.6574997  -7.5330012  88.2513808  90.4693134  -7.8118476
  82.8820012  89.3874997  -3.9750012  82.5710012  90.1694997  -3.5200012
  82.2320012  89.2344997  -4.6610012  82.7515558  89.4739105  -4.0054129
  88.8610012  84.7514997 -16.5230012  89.4410012  84.9014997 -15.7760012
  89.2750012  85.2224997 -17.2460012  88.9962830  84.8356841 -16.5185866
  79.8020012  85.5854997  -4.7460012  79.8730012  86.2364997  -4.0480012
  78.9120012  85.6884997  -5.0810012  79.6913117  85.6885936  -4.6957300
  86.5880012  91.4884997 -13.0880012  87.0620012  91.7834997 -12.3100012
  86.0250012  92.2264997 -13.3210012  86.5767653  91.6286932 -13.0129864
  81.1220012  91.4594997  -3.2120012  81.1290012  91.3234997  -4.1590012
  80.2060012  91.3414997  -2.9600012  80.9991714  91.4249430  -3.3075334
  92.5600012  76.5014997 -16.7100012  91.6600012  76.6404997 -16.4150012
  92.8120012  77.3324997 -17.1120012  92.4708702  76.6329074 -16.7239795
  80.6260012  85.2894997 -14.7360012  80.3340012  86.0574997 -15.2270012
  79.9520012  84.6294997 -14.8990012  80.4949081  85.3054406 -14.8252660
  93.7490012  90.8674997 -18.3340012  93.8230012  91.8064997 -18.1630012
  94.6550012  90.5624997 -18.3900012  93.8815100  90.9546722 -18.3181881
  76.7190012  87.6524997  -5.9210012  76.2180012  87.6244997  -6.7360012
  76.7240012  86.7464997  -5.6120012  76.6511526  87.5262278  -5.9907128
  76.4690012  90.4324997  -9.0370012  77.4150012  90.2884997  -9.0560012
  76.3570012  91.2164997  -8.5000012  76.5832727  90.5188046  -8.9669928
  94.6670012  91.0984997  -3.3550012  94.6180012  90.1434997  -3.3920012
  93.8400012  91.3664997  -2.9540012  94.5484940  91.0038998  -3.3058625
  85.6460012  90.6724997  -4.4790012  85.7330012  91.4984997  -4.0040012
  84.7820012  90.3424997  -4.2300012  85.5411964  90.7409878  -4.3803451
  86.0600012  94.4444997 -14.6730012  85.9850012  94.3234997 -15.6190012
  86.0930012  95.3944997 -14.5540012  86.0541848  94.5562500 -14.7865166
  79.7130012  93.2334997 -12.8920012  79.8660012  92.8854997 -12.0130012
  78.8630012  92.8774997 -13.1470012  79.6188962  93.1376650 -12.8061660
  89.1620012  93.5984997 -17.6710012  89.5370012  92.8544997 -18.1410012
  89.1660012  93.3284997 -16.7520012  89.2138915  93.4601486 -17.6112176
  88.8310012  93.5244997 -14.9210012  87.8950012  93.6244997 -14.7430012
  89.1110012  92.8154997 -14.3430012  88.7408255  93.4422711 -14.8184609
  91.8190012  82.5914997  -2.8750012  91.4120012  83.0724997  -3.5960012
  91.8600012  81.6864997  -3.1830012  91.7688437  82.5349374  -3.0153317
  78.9680012  88.9754997  -4.8780012  79.1840012  88.6144997  -4.0190012
  78.1130012  88.6014997  -5.0880012  78.8819292  88.8754111  -4.7886614
  81.5870012  77.4454997  -8.8830012  80.7250012  77.3584997  -9.2900012
  81.5640012  78.3014997  -8.4550012  81.4660330  77.5492765  -8.8808137
  86.2500012  77.1674997  -5.5080012  86.6700012  76.7524997  -4.7550012
  85.3170012  76.9894997  -5.3910012  86.1813644  77.0865900  -5.3890461
  89.5760012  80.9234997  -4.6550012  89.0620012  80.7974997  -3.8570012
  89.4210012  81.8354997  -4.8990012  89.4846852  81.0296132  -4.5787842
  90.3390012  85.7844997 -18.8930012  90.3810012  85.5614997 -19.8230012
  91.1880012  86.1834997 -18.7030012  90.4595396  85.8079155 -18.9946373
  85.9110012  79.6604997 -18.2230012  85.6580012  79.6794997 -17.3000012
  85.6550012  78.7884997 -18.5240012  85.8417790  79.5452437 -18.1373737
  81.6780012  82.4114997  -7.7880012  81.0360012  82.3704997  -7.0790012
  81.7150012  83.3374997  -8.0250012  81.5951324  82.5311559  -7.7230176
  81.6750012  82.6324997 -12.8760012  80.7820012  82.2914997 -12.9340012
  82.1250012  82.2554997 -13.6310012  81.6137305  82.5348484 -12.9860823
  87.2100012  83.0484997 -14.0590012  86.8010012  83.8634997 -14.3500012
  87.9310012  82.9084997 -14.6730012  87.2514537  83.1412018 -14.1818658
  86.3120012  83.2234997  -2.5710012  85.7500012  82.5194997  -2.2500012
  87.1390012  83.1034997  -2.1030012  86.3467095  83.1107883  -2.4637670
  88.2150012  82.4944997 -11.2450012  88.0200012  83.0994997 -11.9600012
  88.3960012  81.6604997 -11.6790012  88.2127614  82.4646300 -11.4015595
  79.4280012  82.7314997  -5.9210012  79.3900012  83.1314997  -5.0520012
  78.9370012  81.9144997  -5.8300012  79.3564684  82.6758069  -5.7898941
  82.7940012  80.1054997 -19.1220012  82.3630012  79.6604997 -18.3920012
  82.0760012  80.4774997 -19.6340012  82.6379438  80.0948940 -19.0913201
  76.0360012  79.8474997 -12.0700012  76.6670012  79.8184997 -11.3510012
  76.4850012  79.4224997 -12.8000012  76.1830774  79.7860492 -12.0703447
  77.3100012  80.5934997 -16.6460012  77.7840012  81.1844997 -17.2310012
  76.5930012  81.1244997 -16.2990012  77.2779341  80.7460867 -16.6791164
  87.4790012  84.1324997  -6.5730012  87.8020012  83.5014997  -7.2160012
  87.0390012  83.5974997  -5.9130012  87.4636895  83.9738441  -6.5717150
  84.2560012  80.0594997 -11.7890012  83.3450012  80.1164997 -11.5010012
  84.7620012  79.9994997 -10.9790012  84.1995413  80.0591985 -11.6399378
  79.0850012  81.6884997 -12.9630012  78.1950012  81.7884997 -13.3030012
  79.3810012  80.8464997 -13.3090012  79.0032823  81.5883545 -13.0562787
  82.7380012  81.6884997 -15.3060012  83.6690012  81.8174997 -15.1280012
  82.5230012  82.3584997 -15.9560012  82.8364247  81.7966565 -15.3694253
  88.6610012  79.2944997  -8.5250012  87.9850012  79.4254997  -7.8610012
  88.1760012  79.1394997  -9.3350012  88.5027145  79.2914905  -8.5435483
  81.4120012  82.8834997 -17.7390012  80.8690012  82.5034997 -18.4310012
  82.2450012  83.0774997 -18.1680012  81.4504399  82.8578124 -17.8915474
  91.9490012  94.9664997  -2.2480012  92.1490012  95.3904997  -3.0830012
  92.6040012  95.3094997  -1.6410012  92.0650051  95.0709648  -2.2802164
  79.5470012  87.4404997  -2.6400012  80.2790012  87.6944997  -2.0790012
  78.7670012  87.6444997  -2.1250012  79.5418232  87.5029177  -2.4934240
  85.5760012  82.8474997  -9.9020012  86.1410012  82.3004997 -10.4490012
  85.4290012  82.3254997  -9.1140012  85.6332918  82.7022024  -9.8701546
  80.5780012  78.9834997 -13.4840012  80.2610012  78.0814997 -13.5190012
  81.3600012  78.9854997 -14.0370012  80.6402284  78.8601628 -13.5635217
  84.2030012  81.2354997  -7.4880012  83.3670012  81.6894997  -7.3780012
  84.7270012  81.5114997  -6.7360012  84.1594414  81.3349376  -7.3712864
  84.7470012  87.4484997 -15.8040012  84.0020012  86.9414997 -16.1260012
  84.6130012  87.4974997 -14.8570012  84.6268776  87.3856940 -15.7201353
  91.8970012  86.5814997  -7.0170012  92.5390012  87.0384997  -7.5610012
  91.0670012  86.6944997  -7.4800012  91.8725963  86.6592704  -7.1539823
  88.6450012  80.2624997 -17.6040012  87.7060012  80.3744997 -17.7560012
  88.9420012  81.1194997 -17.2980012  88.5567666  80.3936443 -17.5834232
  86.2660012  87.6324997  -4.5670012  85.9210012  87.2514997  -3.7600012
  86.0660012  88.5664997  -4.4950012  86.1918061  87.7065228  -4.4469039
  89.3630012  82.1294997 -15.9440012  90.2550012  81.9924997 -15.6250012
  89.4200012  82.9204997 -16.4800012  89.4926285  82.2176660 -15.9728309
  79.8720012  86.7434997 -10.0340012  80.6170012  86.7414997 -10.6350012
  79.9500012  85.9204997  -9.5520012  79.9845518  86.6319315 -10.0511071
  86.8730012  88.9074997 -16.7780012  86.5770012  89.7334997 -16.3970012
  86.1700012  88.2874997 -16.5820012  86.7374914  88.9368199 -16.6993557
  76.8800012  85.2044997  -4.7190012  77.1030012  84.7864997  -3.8870012
  76.2780012  84.5914997  -5.1420012  76.8291759  85.0644668  -4.6622978
  83.8960012  84.7214997  -2.5060012  83.6000012  84.5554997  -3.4010012
  84.8280012  84.5014997  -2.5170012  83.9814166  84.6690640  -2.6299464
  88.5170012  90.0944997  -4.6160012  87.6160012  90.2774997  -4.8840012
  88.5510012  90.3534997  -3.6950012  88.3983041  90.1545512  -4.5281803
  94.2480012  82.3394997 -16.2490012  93.6940012  81.9434997 -16.9210012
  94.3480012  83.2494997 -16.5270012  94.1857059  82.4083586 -16.3785599
  94.2110012  88.1394997  -3.4120012  93.3600012  88.3774997  -3.7790012
  94.8020012  88.1224997  -4.1650012  94.1742487  88.1698258  -3.5641107
  92.5430012  91.1254997 -15.7840012  92.1700012  90.2994997 -15.4750012
  92.8210012  90.9424997 -16.6810012  92.5295630  90.9877303 -15.8630374
  89.7040012  85.9334997  -8.7630012  88.7750012  85.7014997  -8.7900012
  90.1550012  85.1564997  -9.0930012  89.6379216  85.7967238  -8.8113083
  82.2470012  90.2614997 -12.6300012  82.7740012  91.0344997 -12.8300012
  81.3670012  90.4864997 -12.9310012  82.2001773  90.3978005 -12.6980990
  78.0020012  85.1234997 -18.0430012  78.6180012  85.7504997 -17.6630012
  77.1400012  85.4394997 -17.7710012  77.9697698  85.2519430 -17.9542817
  83.6740012  87.9244997 -13.0530012  83.4330012  88.8494997 -13.0120012
  82.9330012  87.4654997 -12.6570012  83.5408409  87.9891421 -12.9938623
  84.1890012  92.0734997  -6.7380012  84.5510012  92.9284997  -6.9720012
  84.7200012  91.7814997  -5.9980012  84.3104473  92.1511060  -6.6699145
  82.3570012  92.9464997 -13.5080012  81.4070012  93.0514997 -13.4570012
  82.7090012  93.7664997 -13.1630012  82.2744203  93.0718314 -13.4543350
  87.7330012  88.1724997  -7.0380012  87.3070012  87.9454997  -6.2110012
  88.3130012  87.4344997  -7.2200012  87.7531868  88.0415299  -6.9494170
  89.9360012  89.1014997 -17.9640012  90.2890012  88.7214997 -17.1590012
  88.9870012  89.0084997 -17.8770012  89.8560441  89.0369596 -17.8421441
  90.3910012  92.7244997  -4.5680012  89.7900012  92.1694997  -5.0640012
  90.6730012  93.3914997  -5.1940012  90.3468519  92.7386841  -4.7205048
  94.4390012  93.5814997 -17.7630012  95.1830012  94.1674997 -17.9030012
  93.7450012  94.1494997 -17.4290012  94.4470292  93.7385582 -17.7370039
  78.5140012  79.9574997  -5.1610012  77.6210012  80.2964997  -5.2290012
  78.4150012  79.1024997  -4.7430012  78.3784164  79.8882588  -5.1137765
  90.8020012  87.7744997 -15.7370012  90.5240012  87.0464997 -15.1810012
  91.7290012  87.8934997 -15.5320012  90.8893124  87.6908802 -15.6331155
  78.1650012  91.7624997  -6.7260012  78.3820012  90.8304997  -6.7570012
  78.4110012  92.0364997  -5.8430012  78.2279549  91.6720636  -6.6108237
  84.0270012  90.2134997 -19.5170012  84.2660012  89.4654997 -20.0640012
  83.7580012  89.8254997 -18.6840012  84.0233675  90.0586638 -19.4793135
  82.9640012  89.7834997 -17.0600012  83.1100012  89.2634997 -16.2700012
  82.9610012  90.6904997 -16.7540012  82.9835989  89.8348853 -16.9103912
  79.4170012  87.0364997 -16.5500012  78.7310012  87.3884997 -15.9830012
  79.9390012  87.7994997 -16.7970012  79.3936852  87.1878578 -16.5057882
  87.2480012  79.6984997  -6.2710012  87.9470012  79.7724997  -5.6210012
  86.8670012  78.8344997  -6.1170012  87.2921767  79.5917624  -6.1611678
  88.0330012  79.3504997 -15.1740012  88.2530012  79.8224997 -15.9770012
  88.5910012  79.7454997 -14.5040012  88.1384968  79.4684285 -15.1932669
  85.7010012  91.4814997 -16.3110012  84.8850012  91.9784997 -16.2590012
  86.2310012  91.9564997 -16.9510012  85.6609161  91.6137722 -16.3904044
  85.2330012  81.0784997 -14.3390012  86.0450012  81.5834997 -14.2930012
  84.9880012  80.9334997 -13.4250012  85.3110520  81.1280375 -14.2091483
  85.7680012  82.0644997  -5.1540012  85.8870012  82.6384997  -4.3970012
  86.4240012  81.3764997  -5.0400012  85.8729757  82.0501079  -5.0349175
  86.1160012  78.1594997 -13.4010012  85.7700012  78.7774997 -12.7560012
  86.7750012  78.6604997 -13.8820012  86.1577826  78.3115802 -13.3779029
  83.0400012  92.5254997 -16.3290012  83.2000012  93.3244997 -16.8300012
  82.8420012  92.8314997 -15.4440012  83.0351649  92.6764469 -16.2780185
  81.7740012  79.2224997 -16.7140012  81.6910012  80.1114997 -16.3670012
  82.6640012  78.9574997 -16.4820012  81.8829469  79.3081430 -16.6352374
  91.9730012  79.9714997  -4.3190012  91.0560012  80.2344997  -4.4070012
  92.3080012  79.9684997  -5.2160012  91.8929900  80.0070224  -4.4522081
  90.5750012  83.7224997 -10.2240012  89.7770012  83.3074997 -10.5520012
  91.0200012  83.0314997  -9.7330012  90.5259885  83.5723543 -10.2025111
  80.0330012  89.6504997 -17.6530012  80.6250012  90.3494997 -17.3770012
  80.4920012  89.2174997 -18.3730012  80.1761142  89.6877049 -17.7125170
  78.3490012  82.3144997 -18.5370012  78.3040012  83.2534997 -18.3590012
  77.4610012  82.0784997 -18.8070012  78.2228574  82.4111892 -18.5491088
  91.6610012  92.9784997  -8.6010012  91.5060012  93.6564997  -9.2580012
  92.5940012  93.0504997  -8.3980012  91.7658500  93.0810170  -8.6634881
  79.1570012  77.0964997  -9.8640012  78.9280012  77.1554997 -10.7920012
  78.7140012  76.3044997  -9.5580012  79.0658530  76.9975753  -9.9495214
  78.0870012  91.0364997 -13.7040012  77.2550012  91.5094997 -13.6760012
  78.6330012  91.5464997 -14.3020012  78.0469739  91.1701871 -13.7810284
  77.3750012  93.6494997  -2.3740012  77.9160012  93.4324997  -1.6140012
  76.8940012  92.8434997  -2.5630012  77.3839345  93.5109514  -2.2956924
  81.9730012  92.5684997  -0.7530012  82.7400012  92.1094997  -0.4120012
  81.9510012  92.3424997  -1.6830012  82.0751434  92.4750409  -0.8319957
  86.0650012  92.0764997 -19.3780012  85.4210012  91.4454997 -19.0570012
  86.8270012  91.5454997 -19.6100012  86.0798077  91.9182920 -19.3653989
  88.5500012  90.9484997  -2.0240012  88.1990012  90.0924997  -1.7810012
  89.2760012  91.0914997  -1.4170012  88.6000769  90.8505636  -1.9086381
  90.6690012  91.8934997 -19.1440012  90.9520012  91.0994997 -18.6920012
  91.4090012  92.1264997 -19.7050012  90.8077486  91.8162803 -19.1579302
  77.2820012  87.4594997  -1.4190012  77.4260012  86.5574997  -1.7060012
  76.5100012  87.7454997  -1.9070012  77.1973323  87.3748261  -1.5242119
  81.6240012  87.8034997 -19.2870012  81.6880012  87.0094997 -18.7560012
  82.2770012  87.6844997 -19.9770012  81.7210241  87.6787148 -19.3075683
  83.9380012  87.4294997  -1.9870012  83.6090012  87.7004997  -2.8440012
  84.0900012  86.4884997  -2.0740012  83.9134809  87.3393862  -2.1161756
  89.6720012  87.3454997  -4.6030012  90.4180012  87.9334997  -4.7230012
  88.9150012  87.9274997  -4.5400012  89.6717554  87.5047011  -4.6109093
  78.1150012  84.6594997  -1.9990012  78.5230012  83.8024997  -2.1200012
  77.8550012  84.6744997  -1.0780012  78.1357568  84.5440807  -1.8910412
  82.7730012  85.7754997 -16.9810012  82.3130012  85.2914997 -16.2950012
  83.0280012  85.1074997 -17.6170012  82.7444902  85.6188731 -16.9730666
  82.0620012  83.6684997  -4.6250012  81.4440012  84.3434997  -4.3450012
  82.4060012  83.9894997  -5.4580012  82.0239615  83.8042721  -4.6993419
  83.8440012  84.0184997 -18.7190012  83.6640012  83.8644997 -19.6460012
  84.7940012  84.1264997 -18.6740012  83.9477776  84.0120175 -18.8398157
  87.0820012  86.1404997  -1.3480012  88.0350012  86.2234997  -1.3750012
  86.9210012  85.4284997  -0.7280012  87.1906426  86.0556746  -1.2679421
  93.2340012  86.3734997 -19.2730012  92.9600012  85.9484997 -20.0860012
  93.2730012  87.3044997 -19.4900012  93.2017699  86.4412484 -19.4136390
  82.4010012  81.0234997  -3.5430012  82.5510012  80.2944997  -4.1450012
  82.4040012  81.8004997  -4.1020012  82.4219302  81.0287851  -3.7009308
  82.8140012  79.3934997  -6.0500012  83.3500012  79.8444997  -6.7020012
  81.9620012  79.2854997  -6.4730012  82.7722178  79.4406390  -6.1964244
  84.3960012  84.8324997  -5.8110012  85.1460012  84.6764997  -6.3840012
  84.0570012  85.6844997  -6.0860012  84.4528921  84.9262968  -5.9266439
  88.8110012  82.6474997  -0.7820012  89.0040012  81.7164997  -0.8940012
  89.6690012  83.0724997  -0.7920012  88.9533020  82.5776389  -0.7986639
  90.1280012  85.4364997  -2.7050012  89.8470012  86.1454997  -3.2820012
  91.0710012  85.3634997  -2.8560012  90.2169027  85.5237646  -2.8044449
  80.8800012  82.2214997  -1.6310012  80.1130012  81.6894997  -1.8410012
  81.5590012  81.9114997  -2.2310012  80.8667022  82.1067506  -1.7408352
  83.6200012  76.8494997  -5.6190012  83.5210012  77.7964997  -5.7240012
  82.8770012  76.4774997  -6.0940012  83.5060564  76.9285902  -5.6975440
  84.8840012  81.1714997  -2.0550012  84.6480012  80.9514997  -1.1530012
  84.1000012  80.9644997  -2.5650012  84.7458628  81.1134760  -2.0006068
  87.5990012  80.2984997  -2.9790012  86.6520012  80.3304997  -2.8470012
  87.9120012  79.6734997  -2.3260012  87.5115475  80.2183207  -2.8725545
  89.2330012  78.9324997  -0.9740012  89.1370012  77.9804997  -0.9800012
  88.9120012  79.2014997  -0.1140012  89.1764070  78.8384035  -0.8584559
  79.0600012  80.1424997  -1.9270012  79.2720012  79.4354997  -2.5370012
  78.9490012  79.7044997  -1.0830012  79.0739721  79.9867084  -1.8963157
  83.8410012  76.1434997  -2.9470012  84.5530012  75.5034997  -2.9610012
  83.7400012  76.4104997  -3.8610012  83.9247939  76.0919938  -3.0724350
  84.1950012  77.8264997  -0.8940012  84.0630012  77.3504997  -1.7140012
  83.5960012  78.5704997  -0.9490012  84.0959071  77.8619618  -1.0137114
  83.7410012  94.7094997 -17.7170012  84.6740012  94.8674997 -17.5740012
  83.4770012  95.3844997 -18.3420012  83.8329510  94.8223611 -17.7819259
  77.3100012  89.3454997 -18.2350012  78.2240012  89.4244997 -17.9610012
  77.3170012  88.6584997 -18.9010012  77.4361131  89.2633961 -18.2875607
  75.9590012  94.7384997 -13.1570012  75.3120012  94.2764997 -13.6900012
  76.3130012  94.0664997 -12.5750012  75.9183849  94.5844723 -13.1512041
  76.8290012  92.8194997 -11.3530012  76.4940012  91.9394997 -11.1810012
  77.0510012  93.1644997 -10.4880012  76.8131783  92.7457500 -11.2125792
  94.3770012  93.6284997  -8.3720012  94.3560012  93.8134997  -7.4330012
  95.0680012  94.1974997  -8.7130012  94.4674618  93.7306606  -8.2896136
  93.9410012  93.1964997  -5.4500012  93.4530012  92.4604997  -5.8210012
  94.4900012  92.8024997  -4.7720012  93.9484872  93.0426249  -5.4090840
  92.3910012  88.9854997  -0.8120012  91.5250012  88.8804997  -0.4180012
  92.7680012  89.7444997  -0.3660012  92.3233308  89.0736900  -0.6977607
  93.6920012  87.2424997 -15.2980012  94.5420012  87.6634997 -15.1710012
  93.6980012  86.5024997 -14.6910012  93.8091372  87.2000803 -15.1985656
  94.0870012  85.2954997 -13.4740012  93.3600012  84.8164997 -13.0770012
  94.6680012  85.5014997 -12.7420012  94.0659375  85.2577090 -13.3205871
  93.8460012  88.0804997  -8.5270012  94.6790012  87.7024997  -8.8070012
  93.9580012  89.0234997  -8.6460012  93.9752647  88.1562218  -8.5814513
  92.3320012  90.9584997  -6.2200012  91.6850012  91.2834997  -5.5940012
  91.8150012  90.5184997  -6.8940012  92.1734029  90.9435004  -6.2254173
  94.3550012  85.1964997 -17.0830012  93.8330012  85.5534997 -17.8020012
  94.3220012  85.8714997 -16.4050012  94.2791634  85.3365413 -17.0896855
  92.7040012  82.4364997 -18.5320012  92.8000012  83.1034997 -19.2130012
  92.5640012  81.6204997 -19.0140012  92.6982135  82.4174500 -18.6901509
  91.8730012  83.8164997 -12.9110012  91.7230012  82.8714997 -12.9320012
  91.5200012  84.0974997 -12.0680012  91.8046625  83.7250441 -12.7997654
  76.9090012  85.8944997  -8.9010012  77.0930012  85.8124997  -9.8370012
  77.7580012  85.7704997  -8.4770012  77.0490139  85.8665003  -8.9718545
  92.7300012  85.7864997  -3.2730012  93.3130012  85.0524997  -3.0810012
  93.2940012  86.5584997  -3.2260012  92.8859769  85.7904227  -3.2403841
  94.2260012  83.6894997  -2.5880012  93.3630012  83.3104997  -2.7540012
  94.8310012  82.9504997  -2.6620012  94.1895979  83.5378023  -2.6207183
  91.9510012  79.8444997 -19.4150012  92.5620012  79.4734997 -18.7780012
  91.1150012  79.4234997 -19.2190012  91.9215032  79.7367554 -19.3012965
  91.5840012  81.3994997 -14.4490012  91.8640012  80.4924997 -14.3250012
  92.3430012  81.8334997 -14.8380012  91.7249277  81.3340942 -14.4846318
  92.1960012  81.9804997  -9.0130012  93.1290012  82.1924997  -9.0470012
  91.9610012  82.0824997  -8.0910012  92.2918036  82.0232769  -8.8930024
  92.2250012  82.7174997  -6.2370012  91.3820012  82.9854997  -5.8710012
  92.6670012  83.5394997  -6.4480012  92.1694158  82.8653291  -6.2154509
  76.5060012  81.1654997  -2.7600012  77.4260012  81.0434997  -2.5240012
  76.0570012  80.4154997  -2.3710012  76.5711580  81.0473727  -2.6750994
  94.5080012  76.6974997  -0.8840012  94.8580012  76.0434997  -1.4890012
  94.6550012  77.5344997  -1.3230012  94.5758419  76.7211591  -1.0262882
  92.1970012  78.6624997 -14.4010012  92.3800012  78.2134997 -13.5750012
  91.5980012  78.0774997 -14.8640012  92.1410202  78.5219975 -14.3506725
  77.7270012  79.4774997  -9.8690012  78.1730012  78.6854997  -9.5670012
  78.1940012  80.1934997  -9.4380012  77.8510172  79.4660624  -9.7695180
  76.0310012  82.4764997  -8.8000012  76.5230012  82.2554997  -9.5910012
  76.3940012  83.3174997  -8.5190012  76.1473126  82.5598357  -8.8702469
  94.0280012  78.8064997  -2.5340012  93.1100012  79.0774997  -2.5700012
  94.1510012  78.2714997  -3.3190012  93.9191066  78.7712892  -2.6449513
  94.0640012  78.7294997 -17.8730012  94.4760012  78.0084997 -18.3480012
  94.7460012  79.3994997 -17.8140012  94.2125885  78.7212368 -17.9301085
  76.3450012  78.7344997 -14.7460012  75.4200012  78.9434997 -14.8750012
  76.7990012  79.2184997 -15.4350012  76.2797368  78.8285993 -14.8568774
  91.1160012  93.7184997 -12.8000012  91.7680012  93.3714997 -13.4080012
  91.6260012  94.2074997 -12.1540012  91.2742637  93.7370597 -12.7959764
  76.3090012  77.4724997  -6.4010012  75.6440012  77.2264997  -5.7580012
  75.8660012  78.0944997  -6.9790012  76.1580956  77.5228632  -6.3910648
  78.5010012  90.6474997  -2.2570012  77.6800012  90.8224997  -2.7170012
  78.2480012  90.5744997  -1.3360012  78.3546164  90.6615622  -2.1955077
  81.4550012  91.6224997  -5.9980012  81.0300012  92.4314997  -6.2810012
  82.3590012  91.7074997  -6.3000012  81.5190271  91.7448469  -6.0776224
  85.7660012  93.0214997  -3.0390012  85.9510012  92.6874997  -2.1610012
  86.6120012  93.3304997  -3.3610012  85.9057539  93.0176047  -2.9624395
  88.1110012  94.3074997  -3.7950012  88.7880012  93.6744997  -4.0350012
  88.4330012  94.7084997  -2.9880012  88.2471637  94.2751154  -3.7187207
  93.0280012  76.8964997  -4.7150012  92.2160012  77.2214997  -5.1030012
  93.2610012  76.1364997  -5.2480012  92.9483423  76.8382436  -4.8401747
  78.8570012  94.8784997  -5.9510012  78.1360012  95.3184997  -6.4020012
  78.4910012  94.6274997  -5.1020012  78.7089804  94.9047698  -5.8980160
  81.3240012  94.4784997  -6.9210012  80.4590012  94.5504997  -6.5170012
  81.2690012  95.0254997  -7.7050012  81.1982085  94.5622685  -6.9716638
  86.0340012  94.3664997  -7.7460012  85.5780012  94.8954997  -8.4000012
  86.1970012  94.9694997  -7.0200012  85.9935585  94.5204468  -7.7374938
  88.3620012  93.2444997  -6.8010012  87.4570012  93.4094997  -7.0660012
  88.7910012  94.0974997  -6.8660012  88.2960799  93.3824483  -6.8460818
  90.9660012  94.8144997  -6.5060012  90.7840012  95.7304997  -6.7160012
  91.1430012  94.4044997  -7.3520012  90.9650210  94.8844822  -6.6492115
  78.2710012  93.5014997  -9.0410012  78.2530012  93.0764997  -8.1830012
  79.0760012  93.1834997  -9.4490012  78.3773875  93.4003812  -8.9788345
  80.4130012  92.2114997 -10.3860012  80.1940012  91.2954997 -10.2160012
  81.2370012  92.3514997  -9.9200012  80.4944420  92.1050520 -10.2997226
  82.9500012  92.6814997  -9.5370012  83.1630012  91.7934997  -9.8240012
  83.0140012  92.6474997  -8.5830012  82.9878232  92.5553102  -9.4472603
  86.4580012  78.3454997 -10.3930012  85.7840012  77.7164997 -10.1370012
  87.0220012  77.8614997 -10.9960012  86.4419230  78.1938744 -10.4394660
  91.6010012  76.4534997 -10.2800012  92.2050012  77.0004997 -10.7820012
  90.7310012  76.7724997 -10.5200012  91.5661241  76.5715806 -10.3812346
  93.3280012  77.5914997 -11.9470012  93.9400012  77.0774997 -12.4730012
  93.7100012  78.4694997 -11.9230012  93.4634540  77.6397140 -12.0158170
  78.7850012  76.9794997 -12.5710012  78.0080012  76.7454997 -13.0780012
  79.3150012  76.1824997 -12.5620012  78.7502330  76.8396988 -12.6392258
  77.6210012  76.7774997 -16.7670012  78.0600012  77.3884997 -17.3590012
  76.9880012  77.3154997 -16.2930012  77.5954514  76.9339257 -16.7839070
  83.3640012  76.9064997 -12.7570012  84.2390012  77.2944997 -12.7870012
  83.2280012  76.6914997 -11.8350012  83.4653695  76.9305184 -12.6363560
  88.9210012  76.9364997 -11.1080012  88.9970012  77.0314997 -12.0580012
  88.6460012  76.0284997 -10.9790012  88.8942321  76.8267867 -11.2204921
  90.2740012  76.9624997 -15.4160012  89.5720012  77.5774997 -15.6250012
  89.8300012  76.1244997 -15.2850012  90.1176330  76.9335783 -15.4269672
  77.5220012  92.7254997 -15.8690012  76.8370012  92.6874997 -16.5370012
  77.5260012  93.6384997 -15.5810012  77.4288193  92.8437016 -15.9214716
  79.4820012  78.6934997 -18.3250012  79.9740012  78.0634997 -18.8520012
  80.1060012  78.9894997 -17.6610012  79.6335446  78.6473199 -18.3074020
  84.5080012  78.9864997 -15.8680012  84.6860012  78.3404997 -15.1850012
  84.4550012  79.8204997 -15.4000012  84.5251829  79.0107985 -15.7114060
  86.3870012  93.9354997 -17.4720012  87.2530012  94.3014997 -17.6500012
  86.1400012  93.4954997 -18.2860012  86.4722392  93.9261756 -17.6063711
  93.0960012  93.4984997 -14.7930012  92.9010012  92.7504997 -15.3580012
  93.0570012  94.2564997 -15.3760012  93.0640380  93.4986099 -14.9491616
  78.7430012  77.4934997  -3.0530012  78.3770012  76.7284997  -2.6100012
  79.6560012  77.5224997  -2.7660012  78.8162790  77.3927224  -2.9535930
  80.7160012  76.8444997  -1.5170012  81.6140012  76.5704997  -1.7020012
  80.3290012  76.1014997  -1.0530012  80.7866612  76.7065914  -1.4796357
  79.3400012  93.6454997 -18.8440012  79.0730012  93.9324997 -17.9710012
  80.1120012  93.0994997 -18.6920012  79.4077488  93.6110294 -18.7038950
  89.1370012  76.1764997  -1.3350012  89.2140012  75.7504997  -0.4810012
  90.0310012  76.1904997  -1.6780012  89.2683428  76.1200879  -1.2644690
  92.3130012  92.2494997  -2.6430012  91.5310012  92.0634997  -3.1620012
  92.2410012  93.1784997  -2.4250012  92.1961777  92.3496492  -2.6845952
 106.7190012  86.1354997 -12.6120012 106.8080012  87.0794997 -12.7440012
 106.0810012  85.8604997 -13.2700012 106.6449081  86.2274830 -12.7190386
 105.6520012  85.3904997  -9.1930012 105.6140012  84.7444997  -8.4880012
 105.3300012  84.9244997  -9.9640012 105.6032333  85.2389408  -9.2007022
  98.0210012  85.0054997  -7.6000012  98.0620012  84.3794997  -6.8770012
  98.7240012  85.6294997  -7.4180012  98.1216363  85.0041196  -7.4763956
 109.3580012  88.3294997 -10.8920012 108.9180012  87.6094997 -10.4410012
 109.3450012  89.0504997 -10.2620012 109.2960226  88.3283731 -10.7451506
  98.9440012  89.4554997  -9.0650012  98.5750012  88.6534997  -9.4350012
  99.8850012  89.2864997  -9.0190012  99.0207289  89.3230153  -9.1093684
  95.5540012  83.1154997 -13.6720012  95.1070012  83.9614997 -13.6910012
  94.9930012  82.5354997 -14.1880012  95.4169900  83.1529916 -13.7443199
  96.2650012  85.2774997 -11.5460012  96.4780012  84.5074997 -11.0190012
  97.0030012  85.3664997 -12.1500012  96.3938496  85.1841394 -11.5554700
 106.4700012  93.4344997 -10.6790012 107.0900012  92.7574997 -10.9530012
 106.2620012  93.2164997  -9.7710012 106.5266904  93.3123870 -10.5936635
 104.0420012  87.8234997  -8.7870012 104.3460012  87.1374997  -9.3820012
 104.7630012  87.9414997  -8.1690012 104.1810671  87.7456305  -8.7848184
 112.7050012  79.4244997  -7.9260012 112.7540012  80.0344997  -7.1900012
 113.1300012  79.8854997  -8.6490012 112.7691824  79.5703741  -7.9229795
 107.1830012  82.2174997  -8.4590012 107.3250012  81.2714997  -8.4390012
 107.0760012  82.4244997  -9.3880012 107.1879864  82.1159534  -8.5817661
 100.3370012  80.3184997 -11.1870012 100.3810012  81.1784997 -11.6050012
  99.8800012  79.7664997 -11.8210012 100.2812185  80.3615799 -11.3299701
 108.0600012  80.4494997 -12.7860012 108.7060012  80.1204997 -12.1610012
 108.5700012  80.9674997 -13.4090012 108.2174264  80.4744611 -12.7846138
  96.9580012  82.7154997 -10.4250012  97.6110012  82.1654997  -9.9930012
  96.9820012  82.4414997 -11.3420012  97.0506683  82.6031466 -10.4897877
 102.1140012  84.2654997 -11.2100012 102.7300012  83.7394997 -10.7000012
 101.5280012  83.6254997 -11.6130012 102.1190810  84.1069208 -11.1946827
 113.0960012  80.9024997  -5.6900012 112.4080012  81.5604997  -5.7860012
 113.1120012  80.7054997  -4.7540012 113.0038525  80.9660462  -5.5765192
  99.1480012  79.2364997  -7.1130012  98.9290012  79.7664997  -7.8790012
  98.4800012  79.4634997  -6.4660012  99.0277600  79.3396906  -7.1303621
 106.5170012  88.7364997 -13.5690012 106.2210012  88.4144997 -14.4200012
 106.1920012  89.6364997 -13.5280012 106.4326371  88.8140215 -13.6798199
 101.7170012  86.9124997  -6.8260012 100.9770012  87.5104997  -6.7220012
 102.4310012  87.4664997  -7.1410012 101.7122237  87.0692831  -6.8543535
 109.8240012  79.7404997 -10.8060012 109.6080012  78.9744997 -10.2730012
 110.4790012  80.2124997 -10.2930012 109.8830632  79.6995889 -10.6637139
  98.7410012  81.1284997  -9.1610012  99.3550012  81.7614997  -8.7870012
  99.2530012  80.6564997  -9.8170012  98.8942296  81.1512370  -9.1985748
 100.1240012  88.8764997  -6.0380012 100.1190012  89.7564997  -6.4160012
  99.2710012  88.7934997  -5.6130012 100.0079464  88.9856117  -6.0322093
  96.2450012  88.5474997 -15.2560012  95.9730012  88.7764997 -16.1450012
  96.2910012  89.3854997 -14.7960012  96.2140094  88.6921213 -15.3154303
 109.8700012  90.1694997  -8.5440012 108.9290012  90.2274997  -8.3820012
 110.1470012  91.0754997  -8.6810012 109.7784679  90.2999443  -8.5403185
 110.1710012  78.4554997  -7.1260012 109.4350012  79.0664997  -7.1640012
 110.8540012  78.8704997  -7.6530012 110.1626541  78.5951374  -7.2024168
 103.1740012  76.5424997  -9.6600012 103.0570012  75.5934997  -9.7150012
 102.3190012  76.8744997  -9.3870012 103.0423733  76.4575409  -9.6306103
 108.1220012  91.9504997 -11.9180012 108.5480012  91.2434997 -12.4030012
 108.4390012  92.7514997 -12.3350012 108.2231019  91.9620994 -12.0406870
 109.2820012  89.8514997 -13.4100012 109.0240012  89.1614997 -14.0210012
 109.3530012  89.4084997 -12.5640012 109.2562856  89.6972124 -13.3793115
 110.9680012  88.4174997  -4.9320012 111.1080012  87.8264997  -5.6720012
 111.1350012  89.2904997  -5.2890012 111.0096778  88.4546426  -5.0813035
 105.4410012  85.3794997 -15.1600012 104.7290012  85.9144997 -15.5120012
 106.1320012  85.4354997 -15.8200012 105.4370132  85.4602543 -15.2973711
 105.4940012  83.8374997 -18.1210012 106.1950012  83.8594997 -17.4700012
 105.7970012  83.2094997 -18.7770012 105.6307830  83.7556566 -18.1206289
 112.8100012  84.7574997  -6.8660012 112.1570012  85.4524997  -6.7770012
 113.2750012  84.9674997  -7.6760012 112.7835390  84.8809425  -6.9633117
 108.8460012  85.5894997 -14.2080012 108.1140012  85.8174997 -13.6350012
 109.2940012  84.8754997 -13.7530012 108.8063095  85.5242571 -14.0680881
 108.7440012  83.7634997  -5.1410012 108.8240012  84.5264997  -4.5690012
 108.1420012  84.0424997  -5.8310012 108.6735756  83.9057134  -5.1559411
 100.4920012  86.2194997 -12.3260012 100.1610012  85.8494997 -13.1440012
 101.0800012  85.5494997 -11.9790012 100.5261873  86.0781156 -12.3911898
 101.8580012  89.6474997  -9.6440012 101.7640012  89.0694997 -10.4010012
 102.5880012  89.2764997  -9.1480012 101.9437981  89.5182390  -9.6805835
 100.8580012  84.9884997  -8.6920012 101.4240012  85.1094997  -9.4550012
 101.1770012  85.6254997  -8.0530012 100.9785786  85.0911884  -8.7099960
 107.1670012  90.4914997  -7.9580012 106.9270012  91.1534997  -7.3100012
 106.9690012  89.6574997  -7.5330012 107.1073808  90.4693134  -7.8118476
 101.7380012  89.3874997  -3.9750012 101.4270012  90.1694997  -3.5200012
 101.0880012  89.2344997  -4.6610012 101.6075558  89.4739105  -4.0054129
 107.7170012  84.7514997 -16.5230012 108.2970012  84.9014997 -15.7760012
 108.1310012  85.2224997 -17.2460012 107.8522830  84.8356841 -16.5185866
  98.6580012  85.5854997  -4.7460012  98.7290012  86.2364997  -4.0480012
  97.7680012  85.6884997  -5.0810012  98.5473117  85.6885936  -4.6957300
 105.4440012  91.4884997 -13.0880012 105.9180012  91.7834997 -12.3100012
 104.8810012  92.2264997 -13.3210012 105.4327653  91.6286932 -13.0129864
  99.9780012  91.4594997  -3.2120012  99.9850012  91.3234997  -4.1590012
  99.0620012  91.3414997  -2.9600012  99.8551714  91.4249430  -3.3075334
 111.4160012  76.5014997 -16.7100012 110.5160012  76.6404997 -16.4150012
 111.6680012  77.3324997 -17.1120012 111.3268702  76.6329074 -16.7239795
  99.4820012  85.2894997 -14.7360012  99.1900012  86.0574997 -15.2270012
  98.8080012  84.6294997 -14.8990012  99.3509081  85.3054406 -14.8252660
 112.6050012  90.8674997 -18.3340012 112.6790012  91.8064997 -18.1630012
 113.5110012  90.5624997 -18.3900012 112.7375100  90.9546722 -18.3181881
  95.5750012  87.6524997  -5.9210012  95.0740012  87.6244997  -6.7360012
  95.5800012  86.7464997  -5.6120012  95.5071526  87.5262278  -5.9907128
  95.3250012  90.4324997  -9.0370012  96.2710012  90.2884997  -9.0560012
  95.2130012  91.2164997  -8.5000012  95.4392727  90.5188046  -8.9669928
 113.5230012  91.0984997  -3.3550012 113.4740012  90.1434997  -3.3920012
 112.6960012  91.3664997  -2.9540012 113.4044940  91.0038998  -3.3058625
 104.5020012  90.6724997  -4.4790012 104.5890012  91.4984997  -4.0040012
 103.6380012  90.3424997  -4.2300012 104.3971964  90.7409878  -4.3803451
 104.9160012  94.4444997 -14.6730012 104.8410012  94.3234997 -15.6190012
 104.9490012  95.3944997 -14.5540012 104.9101848  94.5562500 -14.7865166
  98.5690012  93.2334997 -12.8920012  98.7220012  92.8854997 -12.0130012
  97.7190012  92.8774997 -13.1470012  98.4748962  93.1376650 -12.8061660
 108.0180012  93.5984997 -17.6710012 108.3930012  92.8544997 -18.1410012
 108.0220012  93.3284997 -16.7520012 108.0698915  93.4601486 -17.6112176
 107.6870012  93.5244997 -14.9210012 106.7510012  93.6244997 -14.7430012
 107.9670012  92.8154997 -14.3430012 107.5968255  93.4422711 -14.8184609
 110.6750012  82.5914997  -2.8750012 110.2680012  83.0724997  -3.5960012
 110.7160012  81.6864997  -3.1830012 110.6248437  82.5349374  -3.0153317
  97.8240012  88.9754997  -4.8780012  98.0400012  88.6144997  -4.0190012
  96.9690012  88.6014997  -5.0880012  97.7379292  88.8754111  -4.7886614
 100.4430012  77.4454997  -8.8830012  99.5810012  77.3584997  -9.2900012
 100.4200012  78.3014997  -8.4550012 100.3220330  77.5492765  -8.8808137
 105.1060012  77.1674997  -5.5080012 105.5260012  76.7524997  -4.7550012
 104.1730012  76.9894997  -5.3910012 105.0373644  77.0865900  -5.3890461
 108.4320012  80.9234997  -4.6550012 107.9180012  80.7974997  -3.8570012
 108.2770012  81.8354997  -4.8990012 108.3406852  81.0296132  -4.5787842
 109.1950012  85.7844997 -18.8930012 109.2370012  85.5614997 -19.8230012
 110.0440012  86.1834997 -18.7030012 109.3155396  85.8079155 -18.9946373
 104.7670012  79.6604997 -18.2230012 104.5140012  79.6794997 -17.3000012
 104.5110012  78.7884997 -18.5240012 104.6977790  79.5452437 -18.1373737
 100.5340012  82.4114997  -7.7880012  99.8920012  82.3704997  -7.0790012
 100.5710012  83.3374997  -8.0250012 100.4511324  82.5311559  -7.7230176
 100.5310012  82.6324997 -12.8760012  99.6380012  82.2914997 -12.9340012
 100.9810012  82.2554997 -13.6310012 100.4697305  82.5348484 -12.9860823
 106.0660012  83.0484997 -14.0590012 105.6570012  83.8634997 -14.3500012
 106.7870012  82.9084997 -14.6730012 106.1074537  83.1412018 -14.1818658
 105.1680012  83.2234997  -2.5710012 104.6060012  82.5194997  -2.2500012
 105.9950012  83.1034997  -2.1030012 105.2027095  83.1107883  -2.4637670
 107.0710012  82.4944997 -11.2450012 106.8760012  83.0994997 -11.9600012
 107.2520012  81.6604997 -11.6790012 107.0687614  82.4646300 -11.4015595
  98.2840012  82.7314997  -5.9210012  98.2460012  83.1314997  -5.0520012
  97.7930012  81.9144997  -5.8300012  98.2124684  82.6758069  -5.7898941
 101.6500012  80.1054997 -19.1220012 101.2190012  79.6604997 -18.3920012
 100.9320012  80.4774997 -19.6340012 101.4939438  80.0948940 -19.0913201
  94.8920012  79.8474997 -12.0700012  95.5230012  79.8184997 -11.3510012
  95.3410012  79.4224997 -12.8000012  95.0390774  79.7860492 -12.0703447
  96.1660012  80.5934997 -16.6460012  96.6400012  81.1844997 -17.2310012
  95.4490012  81.1244997 -16.2990012  96.1339341  80.7460867 -16.6791164
 106.3350012  84.1324997  -6.5730012 106.6580012  83.5014997  -7.2160012
 105.8950012  83.5974997  -5.9130012 106.3196895  83.9738441  -6.5717150
 103.1120012  80.0594997 -11.7890012 102.2010012  80.1164997 -11.5010012
 103.6180012  79.9994997 -10.9790012 103.0555413  80.0591985 -11.6399378
  97.9410012  81.6884997 -12.9630012  97.0510012  81.7884997 -13.3030012
  98.2370012  80.8464997 -13.3090012  97.8592823  81.5883545 -13.0562787
 101.5940012  81.6884997 -15.3060012 102.5250012  81.8174997 -15.1280012
 101.3790012  82.3584997 -15.9560012 101.6924247  81.7966565 -15.3694253
 107.5170012  79.2944997  -8.5250012 106.8410012  79.4254997  -7.8610012
 107.0320012  79.1394997  -9.3350012 107.3587145  79.2914905  -8.5435483
 100.2680012  82.8834997 -17.7390012  99.7250012  82.5034997 -18.4310012
 101.1010012  83.0774997 -18.1680012 100.3064399  82.8578124 -17.8915474
 110.8050012  94.9664997  -2.2480012 111.0050012  95.3904997  -3.0830012
 111.4600012  95.3094997  -1.6410012 110.9210051  95.0709648  -2.2802164
  98.4030012  87.4404997  -2.6400012  99.1350012  87.6944997  -2.0790012
  97.6230012  87.6444997  -2.1250012  98.3978232  87.5029177  -2.4934240
 104.4320012  82.8474997  -9.9020012 104.9970012  82.3004997 -10.4490012
 104.2850012  82.3254997  -9.1140012 104.4892918  82.7022024  -9.8701546
  99.4340012  78.9834997 -13.4840012  99.1170012  78.0814997 -13.5190012
 100.2160012  78.9854997 -14.0370012  99.4962284  78.8601628 -13.5635217
 103.0590012  81.2354997  -7.4880012 102.2230012  81.6894997  -7.3780012
 103.5830012  81.5114997  -6.7360012 103.0154414  81.3349376  -7.3712864
 103.6030012  87.4484997 -15.8040012 102.8580012  86.9414997 -16.1260012
 103.4690012  87.4974997 -14.8570012 103.4828776  87.3856940 -15.7201353
 110.7530012  86.5814997  -7.0170012 111.3950012  87.0384997  -7.5610012
 109.9230012  86.6944997  -7.4800012 110.7285963  86.6592704  -7.1539823
 107.5010012  80.2624997 -17.6040012 106.5620012  80.3744997 -17.7560012
 107.7980012  81.1194997 -17.2980012 107.4127666  80.3936443 -17.5834232
 105.1220012  87.6324997  -4.5670012 104.7770012  87.2514997  -3.7600012
 104.9220012  88.5664997  -4.4950012 105.0478061  87.7065228  -4.4469039
 108.2190012  82.1294997 -15.9440012 109.1110012  81.9924997 -15.6250012
 108.2760012  82.9204997 -16.4800012 108.3486285  82.2176660 -15.9728310
  98.7280012  86.7434997 -10.0340012  99.4730012  86.7414997 -10.6350012
  98.8060012  85.9204997  -9.5520012  98.8405518  86.6319315 -10.0511071
 105.7290012  88.9074997 -16.7780012 105.4330012  89.7334997 -16.3970012
 105.0260012  88.2874997 -16.5820012 105.5934914  88.9368199 -16.6993557
  95.7360012  85.2044997  -4.7190012  95.9590012  84.7864997  -3.8870012
  95.1340012  84.5914997  -5.1420012  95.6851759  85.0644668  -4.6622978
 102.7520012  84.7214997  -2.5060012 102.4560012  84.5554997  -3.4010012
 103.6840012  84.5014997  -2.5170012 102.8374166  84.6690640  -2.6299464
 107.3730012  90.0944997  -4.6160012 106.4720012  90.2774997  -4.8840012
 107.4070012  90.3534997  -3.6950012 107.2543041  90.1545512  -4.5281803
 113.1040012  82.3394997 -16.2490012 112.5500012  81.9434997 -16.9210012
 113.2040012  83.2494997 -16.5270012 113.0417059  82.4083586 -16.3785599
 113.0670012  88.1394997  -3.4120012 112.2160012  88.3774997  -3.7790012
 113.6580012  88.1224997  -4.1650012 113.0302487  88.1698258  -3.5641107
 111.3990012  91.1254997 -15.7840012 111.0260012  90.2994997 -15.4750012
 111.6770012  90.9424997 -16.6810012 111.3855630  90.9877303 -15.8630374
 108.5600012  85.9334997  -8.7630012 107.6310012  85.7014997  -8.7900012
 109.0110012  85.1564997  -9.0930012 108.4939216  85.7967238  -8.8113083
 101.1030012  90.2614997 -12.6300012 101.6300012  91.0344997 -12.8300012
 100.2230012  90.4864997 -12.9310012 101.0561773  90.3978005 -12.6980990
  96.8580012  85.1234997 -18.0430012  97.4740012  85.7504997 -17.6630012
  95.9960012  85.4394997 -17.7710012  96.8257698  85.2519430 -17.9542817
 102.5300012  87.9244997 -13.0530012 102.2890012  88.8494997 -13.0120012
 101.7890012  87.4654997 -12.6570012 102.3968409  87.9891421 -12.9938623
 103.0450012  92.0734997  -6.7380012 103.4070012  92.9284997  -6.9720012
 103.5760012  91.7814997  -5.9980012 103.1664473  92.1511060  -6.6699145
 101.2130012  92.9464997 -13.5080012 100.2630012  93.0514997 -13.4570012
 101.5650012  93.7664997 -13.1630012 101.1304203  93.0718314 -13.4543350
 106.5890012  88.1724997  -7.0380012 106.1630012  87.9454997  -6.2110012
 107.1690012  87.4344997  -7.2200012 106.6091868  88.0415299  -6.9494170
 108.7920012  89.1014997 -17.9640012 109.1450012  88.7214997 -17.1590012
 107.8430012  89.0084997 -17.8770012 108.7120441  89.0369596 -17.8421441
 109.2470012  92.7244997  -4.5680012 108.6460012  92.1694997  -5.0640012
 109.5290012  93.3914997  -5.1940012 109.2028519  92.7386841  -4.7205048
 113.2950012  93.5814997 -17.7630012 114.0390012  94.1674997 -17.9030012
 112.6010012  94.1494997 -17.4290012 113.3030292  93.7385582 -17.7370039
  97.3700012  79.9574997  -5.1610012  96.4770012  80.2964997  -5.2290012
  97.2710012  79.1024997  -4.7430012  97.2344164  79.8882588  -5.1137765
 109.6580012  87.7744997 -15.7370012 109.3800012  87.0464997 -15.1810012
 110.5850012  87.8934997 -15.5320012 109.7453124  87.6908802 -15.6331155
  97.0210012  91.7624997  -6.7260012  97.2380012  90.8304997  -6.7570012
  97.2670012  92.0364997  -5.8430012  97.0839549  91.6720636  -6.6108237
 102.8830012  90.2134997 -19.5170012 103.1220012  89.4654997 -20.0640012
 102.6140012  89.8254997 -18.6840012 102.8793675  90.0586638 -19.4793135
 101.8200012  89.7834997 -17.0600012 101.9660012  89.2634997 -16.2700012
 101.8170012  90.6904997 -16.7540012 101.8395989  89.8348853 -16.9103912
  98.2730012  87.0364997 -16.5500012  97.5870012  87.3884997 -15.9830012
  98.7950012  87.7994997 -16.7970012  98.2496852  87.1878578 -16.5057882
 106.1040012  79.6984997  -6.2710012 106.8030012  79.7724997  -5.6210012
 105.7230012  78.8344997  -6.1170012 106.1481767  79.5917624  -6.1611678
 106.8890012  79.3504997 -15.1740012 107.1090012  79.8224997 -15.9770012
 107.4470012  79.7454997 -14.5040012 106.9944968  79.4684285 -15.1932669
 104.5570012  91.4814997 -16.3110012 103.7410012  91.9784997 -16.2590012
 105.0870012  91.9564997 -16.9510012 104.5169161  91.6137722 -16.3904044
 104.0890012  81.0784997 -14.3390012 104.9010012  81.5834997 -14.2930012
 103.8440012  80.9334997 -13.4250012 104.1670520  81.1280375 -14.2091483
 104.6240012  82.0644997  -5.1540012 104.7430012  82.6384997  -4.3970012
 105.2800012  81.3764997  -5.0400012 104.7289757  82.0501079  -5.0349175
 104.9720012  78.1594997 -13.4010012 104.6260012  78.7774997 -12.7560012
 105.6310012  78.6604997 -13.8820012 105.0137826  78.3115802 -13.3779029
 101.8960012  92.5254997 -16.3290012 102.0560012  93.3244997 -16.8300012
 101.6980012  92.8314997 -15.4440012 101.8911649  92.6764469 -16.2780185
 100.6300012  79.2224997 -16.7140012 100.5470012  80.1114997 -16.3670012
 101.5200012  78.9574997 -16.4820012 100.7389469  79.3081430 -16.6352374
 110.8290012  79.9714997  -4.3190012 109.9120012  80.2344997  -4.4070012
 111.1640012  79.9684997  -5.2160012 110.7489900  80.0070224  -4.4522081
 109.4310012  83.7224997 -10.2240012 108.6330012  83.3074997 -10.5520012
 109.8760012  83.0314997  -9.7330012 109.3819885  83.5723543 -10.2025111
  98.8890012  89.6504997 -17.6530012  99.4810012  90.3494997 -17.3770012
  99.3480012  89.2174997 -18.3730012  99.0321142  89.6877049 -17.7125170
  97.2050012  82.3144997 -18.5370012  97.1600012  83.2534997 -18.3590012
  96.3170012  82.0784997 -18.8070012  97.0788574  82.4111892 -18.5491088
 110.5170012  92.9784997  -8.6010012 110.3620012  93.6564997  -9.2580012
 111.4500012  93.0504997  -8.3980012 110.6218500  93.0810170  -8.6634881
  98.0130012  77.0964997  -9.8640012  97.7840012  77.1554997 -10.7920012
  97.5700012  76.3044997  -9.5580012  97.9218530  76.9975753  -9.9495214
  96.9430012  91.0364997 -13.7040012  96.1110012  91.5094997 -13.6760012
  97.4890012  91.5464997 -14.3020012  96.9029739  91.1701871 -13.7810284
  96.2310012  93.6494997  -2.3740012  96.7720012  93.4324997  -1.6140012
  95.7500012  92.8434997  -2.5630012  96.2399345  93.5109514  -2.2956924
 100.8290012  92.5684997  -0.7530012 101.5960012  92.1094997  -0.4120012
 100.8070012  92.3424997  -1.6830012 100.9311434  92.4750409  -0.8319957
 104.9210012  92.0764997 -19.3780012 104.2770012  91.4454997 -19.0570012
 105.6830012  91.5454997 -19.6100012 104.9358077  91.9182920 -19.3653989
 107.4060012  90.9484997  -2.0240012 107.0550012  90.0924997  -1.7810012
 108.1320012  91.0914997  -1.4170012 107.4560769  90.8505636  -1.9086381
 109.5250012  91.8934997 -19.1440012 109.8080012  91.0994997 -18.6920012
 110.2650012  92.1264997 -19.7050012 109.6637486  91.8162803 -19.1579302
  96.1380012  87.4594997  -1.4190012  96.2820012  86.5574997  -1.7060012
  95.3660012  87.7454997  -1.9070012  96.0533322  87.3748261  -1.5242119
 100.4800012  87.8034997 -19.2870012 100.5440012  87.0094997 -18.7560012
 101.1330012  87.6844997 -19.9770012 100.5770241  87.6787148 -19.3075683
 102.7940012  87.4294997  -1.9870012 102.4650012  87.7004997  -2.8440012
 102.9460012  86.4884997  -2.0740012 102.7694809  87.3393862  -2.1161756
 108.5280012  87.3454997  -4.6030012 109.2740012  87.9334997  -4.7230012
 107.7710012  87.9274997  -4.5400012 108.5277554  87.5047011  -4.6109093
  96.9710012  84.6594997  -1.9990012  97.3790012  83.8024997  -2.1200012
  96.7110012  84.6744997  -1.0780012  96.9917568  84.5440807  -1.8910412
 101.6290012  85.7754997 -16.9810012 101.1690012  85.2914997 -16.2950012
 101.8840012  85.1074997 -17.6170012 101.6004902  85.6188731 -16.9730666
 100.9180012  83.6684997  -4.6250012 100.3000012  84.3434997  -4.3450012
 101.2620012  83.9894997  -5.4580012 100.8799615  83.8042721  -4.6993419
 102.7000012  84.0184997 -18.7190012 102.5200012  83.8644997 -19.6460012
 103.6500012  84.1264997 -18.6740012 102.8037776  84.0120175 -18.8398157
 105.9380012  86.1404997  -1.3480012 106.8910012  86.2234997  -1.3750012
 105.7770012  85.4284997  -0.7280012 106.0466426  86.0556746  -1.2679421
 112.0900012  86.3734997 -19.2730012 111.8160012  85.9484997 -20.0860012
 112.1290012  87.3044997 -19.4900012 112.0577699  86.4412484 -19.4136390
 101.2570012  81.0234997  -3.5430012 101.4070012  80.2944997  -4.1450012
 101.2600012  81.8004997  -4.1020012 101.2779302  81.0287851  -3.7009308
 101.6700012  79.3934997  -6.0500012 102.2060012  79.8444997  -6.7020012
 100.8180012  79.2854997  -6.4730012 101.6282178  79.4406390  -6.1964244
 103.2520012  84.8324997  -5.8110012 104.0020012  84.6764997  -6.3840012
 102.9130012  85.6844997  -6.0860012 103.3088921  84.9262968  -5.9266439
 107.6670012  82.6474997  -0.7820012 107.8600012  81.7164997  -0.8940012
 108.5250012  83.0724997  -0.7920012 107.8093020  82.5776389  -0.7986639
 108.9840012  85.4364997  -2.7050012 108.7030012  86.1454997  -3.2820012
 109.9270012  85.3634997  -2.8560012 109.0729027  85.5237646  -2.8044449
  99.7360012  82.2214997  -1.6310012  98.9690012  81.6894997  -1.8410012
 100.4150012  81.9114997  -2.2310012  99.7227022  82.1067506  -1.7408352
 102.4760012  76.8494997  -5.6190012 102.3770012  77.7964997  -5.7240012
 101.7330012  76.4774997  -6.0940012 102.3620564  76.9285902  -5.6975440
 103.7400012  81.1714997  -2.0550012 103.5040012  80.9514997  -1.1530012
 102.9560012  80.9644997  -2.5650012 103.6018628  81.1134760  -2.0006068
 106.4550012  80.2984997  -2.9790012 105.5080012  80.3304997  -2.8470012
 106.7680012  79.6734997  -2.3260012 106.3675475  80.2183207  -2.8725545
 108.0890012  78.9324997  -0.9740012 107.9930012  77.9804997  -0.9800012
 107.7680012  79.2014997  -0.1140012 108.0324070  78.8384035  -0.8584559
  97.9160012  80.1424997  -1.9270012  98.1280012  79.4354997  -2.5370012
  97.8050012  79.7044997  -1.0830012  97.9299721  79.9867084  -1.8963157
 102.6970012  76.1434997  -2.9470012 103.4090012  75.5034997  -2.9610012
 102.5960012  76.4104997  -3.8610012 102.7807939  76.0919938  -3.0724350
 103.0510012  77.8264997  -0.8940012 102.9190012  77.3504997  -1.7140012
 102.4520012  78.5704997  -0.9490012 102.9519071  77.8619618  -1.0137114
 102.5970012  94.7094997 -17.7170012 103.5300012  94.8674997 -17.5740012
 102.3330012  95.3844997 -18.3420012 102.6889510  94.8223611 -17.7819259
  96.1660012  89.3454997 -18.2350012  97.0800012  89.4244997 -17.9610012
  96.1730012  88.6584997 -18.9010012  96.2921131  89.2633961 -18.2875607
  94.8150012  94.7384997 -13.1570012  94.1680012  94.2764997 -13.6900012
  95.1690012  94.0664997 -12.5750012  94.7743849  94.5844723 -13.1512041
  95.6850012  92.8194997 -11.3530012  95.3500012  91.9394997 -11.1810012
  95.9070012  93.1644997 -10.4880012  95.6691783  92.7457500 -11.2125792
 113.2330012  93.6284997  -8.3720012 113.2120012  93.8134997  -7.4330012
 113.9240012  94.1974997  -8.7130012 113.3234618  93.7306606  -8.2896136
 112.7970012  93.1964997  -5.4500012 112.3090012  92.4604997  -5.8210012
 113.3460012  92.8024997  -4.7720012 112.8044872  93.0426249  -5.4090840
 111.2470012  88.9854997  -0.8120012 110.3810012  88.8804997  -0.4180012
 111.6240012  89.7444997  -0.3660012 111.1793308  89.0736900  -0.6977607
 112.5480012  87.2424997 -15.2980012 113.3980012  87.6634997 -15.1710012
 112.5540012  86.5024997 -14.6910012 112.6651372  87.2000803 -15.1985656
 112.9430012  85.2954997 -13.4740012 112.2160012  84.8164997 -13.0770012
 113.5240012  85.5014997 -12.7420012 112.9219375  85.2577090 -13.3205871
 112.7020012  88.0804997  -8.5270012 113.5350012  87.7024997  -8.8070012
 112.8140012  89.0234997  -8.6460012 112.8312647  88.1562218  -8.5814513
 111.1880012  90.9584997  -6.2200012 110.5410012  91.2834997  -5.5940012
 110.6710012  90.5184997  -6.8940012 111.0294029  90.9435004  -6.2254173
 113.2110012  85.1964997 -17.0830012 112.6890012  85.5534997 -17.8020012
 113.1780012  85.8714997 -16.4050012 113.1351634  85.3365413 -17.0896855
 111.5600012  82.4364997 -18.5320012 111.6560012  83.1034997 -19.2130012
 111.4200012  81.6204997 -19.0140012 111.5542135  82.4174500 -18.6901509
 110.7290012  83.8164997 -12.9110012 110.5790012  82.8714997 -12.9320012
 110.3760012  84.0974997 -12.0680012 110.6606625  83.7250441 -12.7997654
  95.7650012  85.8944997  -8.9010012  95.9490012  85.8124997  -9.8370012
  96.6140012  85.7704997  -8.4770012  95.9050139  85.8665003  -8.9718545
 111.5860012  85.7864997  -3.2730012 112.1690012  85.0524997  -3.0810012
 112.1500012  86.5584997  -3.2260012 111.7419769  85.7904227  -3.2403841
 113.0820012  83.6894997  -2.5880012 112.2190012  83.3104997  -2.7540012
 113.6870012  82.9504997  -2.6620012 113.0455979  83.5378023  -2.6207183
 110.8070012  79.8444997 -19.4150012 111.4180012  79.4734997 -18.7780012
 109.9710012  79.4234997 -19.2190012 110.7775032  79.7367554 -19.3012965
 110.4400012  81.3994997 -14.4490012 110.7200012  80.4924997 -14.3250012
 111.1990012  81.8334997 -14.8380012 110.5809277  81.3340942 -14.4846318
 111.0520012  81.9804997  -9.0130012 111.9850012  82.1924997  -9.0470012
 110.8170012  82.0824997  -8.0910012 111.1478036  82.0232769  -8.8930024
 111.0810012  82.7174997  -6.2370012 110.2380012  82.9854997  -5.8710012
 111.5230012  83.5394997  -6.4480012 111.0254158  82.8653291  -6.2154509
  95.3620012  81.1654997  -2.7600012  96.2820012  81.0434997  -2.5240012
  94.9130012  80.4154997  -2.3710012  95.4271580  81.0473727  -2.6750994
 113.3640012  76.6974997  -0.8840012 113.7140012  76.0434997  -1.4890012
 113.5110012  77.5344997  -1.3230012 113.4318419  76.7211591  -1.0262882
 111.0530012  78.6624997 -14.4010012 111.2360012  78.2134997 -13.5750012
 110.4540012  78.0774997 -14.8640012 110.9970202  78.5219975 -14.3506725
  96.5830012  79.4774997  -9.8690012  97.0290012  78.6854997  -9.5670012
  97.0500012  80.1934997  -9.4380012  96.7070172  79.4660624  -9.7695180
  94.8870012  82.4764997  -8.8000012  95.3790012  82.2554997  -9.5910012
  95.2500012  83.3174997  -8.5190012  95.0033126  82.5598357  -8.8702469
 112.8840012  78.8064997  -2.5340012 111.9660012  79.0774997  -2.5700012
 113.0070012  78.2714997  -3.3190012 112.7751066  78.7712892  -2.6449513
 112.9200012  78.7294997 -17.8730012 113.3320012  78.0084997 -18.3480012
 113.6020012  79.3994997 -17.8140012 113.0685885  78.7212368 -17.9301085
  95.2010012  78.7344997 -14.7460012  94.2760012  78.9434997 -14.8750012
  95.6550012  79.2184997 -15.4350012  95.1357368  78.8285993 -14.8568774
 109.9720012  93.7184997 -12.8000012 110.6240012  93.3714997 -13.4080012
 110.4820012  94.2074997 -12.1540012 110.1302637  93.7370597 -12.7959764
  95.1650012  77.4724997  -6.4010012  94.5000012  77.2264997  -5.7580012
  94.7220012  78.0944997  -6.9790012  95.0140956  77.5228632  -6.3910648
  97.3570012  90.6474997  -2.2570012  96.5360012  90.8224997  -2.7170012
  97.1040012  90.5744997  -1.3360012  97.2106164  90.6615622  -2.1955077
 100.3110012  91.6224997  -5.9980012  99.8860012  92.4314997  -6.2810012
 101.2150012  91.7074997  -6.3000012 100.3750271  91.7448469  -6.0776224
 104.6220012  93.0214997  -3.0390012 104.8070012  92.6874997  -2.1610012
 105.4680012  93.3304997  -3.3610012 104.7617539  93.0176047  -2.9624395
 106.9670012  94.3074997  -3.7950012 107.6440012  93.6744997  -4.0350012
 107.2890012  94.7084997  -2.9880012 107.1031637  94.2751154  -3.7187207
 111.8840012  76.8964997  -4.7150012 111.0720012  77.2214997  -5.1030012
 112.1170012  76.1364997  -5.2480012 111.8043423  76.8382436  -4.8401747
  97.7130012  94.8784997  -5.9510012  96.9920012  95.3184997  -6.4020012
  97.3470012  94.6274997  -5.1020012  97.5649804  94.9047698  -5.8980160
 100.1800012  94.4784997  -6.9210012  99.3150012  94.5504997  -6.5170012
 100.1250012  95.0254997  -7.7050012 100.0542085  94.5622685  -6.9716638
 104.8900012  94.3664997  -7.7460012 104.4340012  94.8954997  -8.4000012
 105.0530012  94.9694997  -7.0200012 104.8495585  94.5204468  -7.7374938
 107.2180012  93.2444997  -6.8010012 106.3130012  93.4094997  -7.0660012
 107.6470012  94.0974997  -6.8660012 107.1520799  93.3824483  -6.8460818
 109.8220012  94.8144997  -6.5060012 109.6400012  95.7304997  -6.7160012
 109.9990012  94.4044997  -7.3520012 109.8210210  94.8844822  -6.6492115
  97.1270012  93.5014997  -9.0410012  97.1090012  93.0764997  -8.1830012
  97.9320012  93.1834997  -9.4490012  97.2333875  93.4003812  -8.9788345
  99.2690012  92.2114997 -10.3860012  99.0500012  91.2954997 -10.2160012
 100.0930012  92.3514997  -9.9200012  99.3504420  92.1050520 -10.2997226
 101.8060012  92.6814997  -9.5370012 102.0190012  91.7934997  -9.8240012
 101.8700012  92.6474997  -8.5830012 101.8438232  92.5553102  -9.4472603
 105.3140012  78.3454997 -10.3930012 104.6400012  77.7164997 -10.1370012
 105.8780012  77.8614997 -10.9960012 105.2979230  78.1938744 -10.4394660
 110.4570012  76.4534997 -10.2800012 111.0610012  77.0004997 -10.7820012
 109.5870012  76.7724997 -10.5200012 110.4221241  76.5715806 -10.3812346
 112.1840012  77.5914997 -11.9470012 112.7960012  77.0774997 -12.4730012
 112.5660012  78.4694997 -11.9230012 112.3194540  77.6397140 -12.0158170
  97.6410012  76.9794997 -12.5710012  96.8640012  76.7454997 -13.0780012
  98.1710012  76.1824997 -12.5620012  97.6062330  76.8396988 -12.6392258
  96.4770012  76.7774997 -16.7670012  96.9160012  77.3884997 -17.3590012
  95.8440012  77.3154997 -16.2930012  96.4514514  76.9339257 -16.7839070
 102.2200012  76.9064997 -12.7570012 103.0950012  77.2944997 -12.7870012
 102.0840012  76.6914997 -11.8350012 102.3213695  76.9305184 -12.6363560
 107.7770012  76.9364997 -11.1080012 107.8530012  77.0314997 -12.0580012
 107.5020012  76.0284997 -10.9790012 107.7502321  76.8267867 -11.2204921
 109.1300012  76.9624997 -15.4160012 108.4280012  77.5774997 -15.6250012
 108.6860012  76.1244997 -15.2850012 108.9736330  76.9335783 -15.4269672
  96.3780012  92.7254997 -15.8690012  95.6930012  92.6874997 -16.5370012
  96.3820012  93.6384997 -15.5810012  96.2848193  92.8437016 -15.9214716
  98.3380012  78.6934997 -18.3250012  98.8300012  78.0634997 -18.8520012
  98.9620012  78.9894997 -17.6610012  98.4895446  78.6473199 -18.3074020
 103.3640012  78.9864997 -15.8680012 103.5420012  78.3404997 -15.1850012
 103.3110012  79.8204997 -15.4000012 103.3811829  79.0107985 -15.7114060
 105.2430012  93.9354997 -17.4720012 106.1090012  94.3014997 -17.6500012
 104.9960012  93.4954997 -18.2860012 105.3282392  93.9261756 -17.6063711
 111.9520012  93.4984997 -14.7930012 111.7570012  92.7504997 -15.3580012
 111.9130012  94.2564997 -15.3760012 111.9200380  93.4986099 -14.9491616
  97.5990012  77.4934997  -3.0530012  97.2330012  76.7284997  -2.6100012
  98.5120012  77.5224997  -2.7660012  97.6722790  77.3927224  -2.9535930
  99.5720012  76.8444997  -1.5170012 100.4700012  76.5704997  -1.7020012
  99.1850012  76.1014997  -1.0530012  99.6426612  76.7065914  -1.4796357
  98.1960012  93.6454997 -18.8440012  97.9290012  93.9324997 -17.9710012
  98.9680012  93.0994997 -18.6920012  98.2637488  93.6110294 -18.7038950
 107.9930012  76.1764997  -1.3350012 108.0700012  75.7504997  -0.4810012
 108.8870012  76.1904997  -1.6780012 108.1243428  76.1200879  -1.2644690
 111.1690012  92.2494997  -2.6430012 110.3870012  92.0634997  -3.1620012
 111.0970012  93.1784997  -2.4250012 111.0521777  92.3496492  -2.6845952
 125.5750012  86.1354997 -12.6120012 125.6640012  87.0794997 -12.7440012
 124.9370012  85.8604997 -13.2700012 125.5009081  86.2274830 -12.7190386
 124.5080012  85.3904997  -9.1930012 124.4700012  84.7444997  -8.4880012
 124.1860012  84.9244997  -9.9640012 124.4592333  85.2389408  -9.2007022
 116.8770012  85.0054997  -7.6000012 116.9180012  84.3794997  -6.8770012
 117.5800012  85.6294997  -7.4180012 116.9776363  85.0041196  -7.4763956
 128.2140012  88.3294997 -10.8920012 127.7740012  87.6094997 -10.4410012
 128.2010012  89.0504997 -10.2620012 128.1520226  88.3283731 -10.7451506
 117.8000012  89.4554997  -9.0650012 117.4310012  88.6534997  -9.4350012
 118.7410012  89.2864997  -9.0190012 117.8767289  89.3230153  -9.1093684
 114.4100012  83.1154997 -13.6720012 113.9630012  83.9614997 -13.6910012
 113.8490012  82.5354997 -14.1880012 114.2729900  83.1529916 -13.7443199
 115.1210012  85.2774997 -11.5460012 115.3340012  84.5074997 -11.0190012
 115.8590012  85.3664997 -12.1500012 115.2498496  85.1841394 -11.5554700
 125.3260012  93.4344997 -10.6790012 125.9460012  92.7574997 -10.9530012
 125.1180012  93.2164997  -9.7710012 125.3826904  93.3123870 -10.5936635
 122.8980012  87.8234997  -8.7870012 123.2020012  87.1374997  -9.3820012
 123.6190012  87.9414997  -8.1690012 123.0370671  87.7456304  -8.7848184
 131.5610012  79.4244997  -7.9260012 131.6100012  80.0344997  -7.1900012
 131.9860012  79.8854997  -8.6490012 131.6251824  79.5703741  -7.9229795
 126.0390012  82.2174997  -8.4590012 126.1810012  81.2714997  -8.4390012
 125.9320012  82.4244997  -9.3880012 126.0439864  82.1159534  -8.5817661
 119.1930012  80.3184997 -11.1870012 119.2370012  81.1784997 -11.6050012
 118.7360012  79.7664997 -11.8210012 119.1372185  80.3615799 -11.3299701
 126.9160012  80.4494997 -12.7860012 127.5620012  80.1204997 -12.1610012
 127.4260012  80.9674997 -13.4090012 127.0734264  80.4744611 -12.7846138
 115.8140012  82.7154997 -10.4250012 116.4670012  82.1654997  -9.9930012
 115.8380012  82.4414997 -11.3420012 115.9066683  82.6031466 -10.4897877
 120.9700012  84.2654997 -11.2100012 121.5860012  83.7394997 -10.7000012
 120.3840012  83.6254997 -11.6130012 120.9750810  84.1069208 -11.1946827
 131.9520012  80.9024997  -5.6900012 131.2640012  81.5604997  -5.7860012
 131.9680012  80.7054997  -4.7540012 131.8598525  80.9660462  -5.5765192
 118.0040012  79.2364997  -7.1130012 117.7850012  79.7664997  -7.8790012
 117.3360012  79.4634997  -6.4660012 117.8837600  79.3396906  -7.1303621
 125.3730012  88.7364997 -13.5690012 125.0770012  88.4144997 -14.4200012
 125.0480012  89.6364997 -13.5280012 125.2886371  88.8140215 -13.6798199
 120.5730012  86.9124997  -6.8260012 119.8330012  87.5104997  -6.7220012
 121.2870012  87.4664997  -7.1410012 120.5682237  87.0692831  -6.8543535
 128.6800012  79.7404997 -10.8060012 128.4640012  78.9744997 -10.2730012
 129.3350012  80.2124997 -10.2930012 128.7390632  79.6995889 -10.6637139
 117.5970012  81.1284997  -9.1610012 118.2110012  81.7614997  -8.7870012
 118.1090012  80.6564997  -9.8170012 117.7502296  81.1512370  -9.1985748
 118.9800012  88.8764997  -6.0380012 118.9750012  89.7564997  -6.4160012
 118.1270012  88.7934997  -5.6130012 118.8639464  88.9856117  -6.0322093
 115.1010012  88.5474997 -15.2560012 114.8290012  88.7764997 -16.1450012
 115.1470012  89.3854997 -14.7960012 115.0700094  88.6921213 -15.3154303
 128.7260012  90.1694997  -8.5440012 127.7850012  90.2274997  -8.3820012
 129.0030012  91.0754997  -8.6810012 128.6344679  90.2999443  -8.5403185
 129.0270012  78.4554997  -7.1260012 128.2910012  79.0664997  -7.1640012
 129.7100012  78.8704997  -7.6530012 129.0186541  78.5951374  -7.2024168
 122.0300012  76.5424997  -9.6600012 121.9130012  75.5934997  -9.7150012
 121.1750012  76.8744997  -9.3870012 121.8983733  76.4575409  -9.6306103
 126.9780012  91.9504997 -11.9180012 127.4040012  91.2434997 -12.4030012
 127.2950012  92.7514997 -12.3350012 127.0791019  91.9620994 -12.0406870
 128.1380012  89.8514997 -13.4100012 127.8800012  89.1614997 -14.0210012
 128.2090012  89.4084997 -12.5640012 128.1122856  89.6972124 -13.3793115
 129.8240012  88.4174997  -4.9320012 129.9640012  87.8264997  -5.6720012
 129.9910012  89.2904997  -5.2890012 129.8656778  88.4546426  -5.0813035
 124.2970012  85.3794997 -15.1600012 123.5850012  85.9144997 -15.5120012
 124.9880012  85.4354997 -15.8200012 124.2930132  85.4602543 -15.2973711
 124.3500012  83.8374997 -18.1210012 125.0510012  83.8594997 -17.4700012
 124.6530012  83.2094997 -18.7770012 124.4867830  83.7556566 -18.1206289
 131.6660012  84.7574997  -6.8660012 131.0130012  85.4524997  -6.7770012
 132.1310012  84.9674997  -7.6760012 131.6395390  84.8809425  -6.9633117
 127.7020012  85.5894997 -14.2080012 126.9700012  85.8174997 -13.6350012
 128.1500012  84.8754997 -13.7530012 127.6623095  85.5242571 -14.0680881
 127.6000012  83.7634997  -5.1410012 127.6800012  84.5264997  -4.5690012
 126.9980012  84.0424997  -5.8310012 127.5295756  83.9057134  -5.1559411
 119.3480012  86.2194997 -12.3260012 119.0170012  85.8494997 -13.1440012
 119.9360012  85.5494997 -11.9790012 119.3821873  86.0781156 -12.3911898
 120.7140012  89.6474997  -9.6440012 120.6200012  89.0694997 -10.4010012
 121.4440012  89.2764997  -9.1480012 120.7997981  89.5182390  -9.6805835
 119.7140012  84.9884997  -8.6920012 120.2800012  85.1094997  -9.4550012
 120.0330012  85.6254997  -8.0530012 119.8345786  85.0911884  -8.7099960
 126.0230012  90.4914997  -7.9580012 125.7830012  91.1534997  -7.3100012
 125.8250012  89.6574997  -7.5330012 125.9633808  90.4693134  -7.8118476
 120.5940012  89.3874997  -3.9750012 120.2830012  90.1694997  -3.5200012
 119.9440012  89.2344997  -4.6610012 120.4635558  89.4739105  -4.0054129
 126.5730012  84.7514997 -16.5230012 127.1530012  84.9014997 -15.7760012
 126.9870012  85.2224997 -17.2460012 126.7082830  84.8356841 -16.5185866
 117.5140012  85.5854997  -4.7460012 117.5850012  86.2364997  -4.0480012
 116.6240012  85.6884997  -5.0810012 117.4033117  85.6885936  -4.6957300
 124.3000012  91.4884997 -13.0880012 124.7740012  91.7834997 -12.3100012
 123.7370012  92.2264997 -13.3210012 124.2887653  91.6286932 -13.0129864
 118.8340012  91.4594997  -3.2120012 118.8410012  91.3234997  -4.1590012
 117.9180012  91.3414997  -2.9600012 118.7111714  91.4249430  -3.3075334
 130.2720012  76.5014997 -16.7100012 129.3720012  76.6404997 -16.4150012
 130.5240012  77.3324997 -17.1120012 130.1828702  76.6329074 -16.7239795
 118.3380012  85.2894997 -14.7360012 118.0460012  86.0574997 -15.2270012
 117.6640012  84.6294997 -14.8990012 118.2069081  85.3054406 -14.8252660
 131.4610012  90.8674997 -18.3340012 131.5350012  91.8064997 -18.1630012
 132.3670012  90.5624997 -18.3900012 131.5935100  90.9546722 -18.3181881
 114.4310012  87.6524997  -5.9210012 113.9300012  87.6244997  -6.7360012
 114.4360012  86.7464997  -5.6120012 114.3631526  87.5262278  -5.9907128
 114.1810012  90.4324997  -9.0370012 115.1270012  90.2884997  -9.0560012
 114.0690012  91.2164997  -8.5000012 114.2952727  90.5188046  -8.9669928
 132.3790012  91.0984997  -3.3550012 132.3300012  90.1434997  -3.3920012
 131.5520012  91.3664997  -2.9540012 132.2604940  91.0038998  -3.3058625
 123.3580012  90.6724997  -4.4790012 123.4450012  91.4984997  -4.0040012
 122.4940012  90.3424997  -4.2300012 123.2531964  90.7409878  -4.3803451
 123.7720012  94.4444997 -14.6730012 123.6970012  94.3234997 -15.6190012
 123.8050012  95.3944997 -14.5540012 123.7661848  94.5562500 -14.7865166
 117.4250012  93.2334997 -12.8920012 117.5780012  92.8854997 -12.0130012
 116.5750012  92.8774997 -13.1470012 117.3308962  93.1376650 -12.8061660
 126.8740012  93.5984997 -17.6710012 127.2490012  92.8544997 -18.1410012
 126.8780012  93.3284997 -16.7520012 126.9258915  93.4601486 -17.6112176
 126.5430012  93.5244997 -14.9210012 125.6070012  93.6244997 -14.7430012
 126.8230012  92.8154997 -14.3430012 126.4528255  93.4422711 -14.8184609
 129.5310012  82.5914997  -2.8750012 129.1240012  83.0724997  -3.5960012
 129.5720012  81.6864997  -3.1830012 129.4808437  82.5349374  -3.0153317
 116.6800012  88.9754997  -4.8780012 116.8960012  88.6144997  -4.0190012
 115.8250012  88.6014997  -5.0880012 116.5939292  88.8754111  -4.7886614
 119.2990012  77.4454997  -8.8830012 118.4370012  77.3584997  -9.2900012
 119.2760012  78.3014997  -8.4550012 119.1780330  77.5492765  -8.8808137
 123.9620012  77.1674997  -5.5080012 124.3820012  76.7524997  -4.7550012
 123.0290012  76.9894997  -5.3910012 123.8933644  77.0865900  -5.3890461
 127.2880012  80.9234997  -4.6550012 126.7740012  80.7974997  -3.8570012
 127.1330012  81.8354997  -4.8990012 127.1966852  81.0296132  -4.5787842
 128.0510012  85.7844997 -18.8930012 128.0930012  85.5614997 -19.8230012
 128.9000012  86.1834997 -18.7030012 128.1715396  85.8079155 -18.9946373
 123.6230012  79.6604997 -18.2230012 123.3700012  79.6794997 -17.3000012
 123.3670012  78.7884997 -18.5240012 123.5537790  79.5452437 -18.1373737
 119.3900012  82.4114997  -7.7880012 118.7480012  82.3704997  -7.0790012
 119.4270012  83.3374997  -8.0250012 119.3071324  82.5311559  -7.7230176
 119.3870012  82.6324997 -12.8760012 118.4940012  82.2914997 -12.9340012
 119.8370012  82.2554997 -13.6310012 119.3257305  82.5348484 -12.9860823
 124.9220012  83.0484997 -14.0590012 124.5130012  83.8634997 -14.3500012
 125.6430012  82.9084997 -14.6730012 124.9634537  83.1412018 -14.1818658
 124.0240012  83.2234997  -2.5710012 123.4620012  82.5194997  -2.2500012
 124.8510012  83.1034997  -2.1030012 124.0587095  83.1107883  -2.4637670
 125.9270012  82.4944997 -11.2450012 125.7320012  83.0994997 -11.9600012
 126.1080012  81.6604997 -11.6790012 125.9247614  82.4646300 -11.4015595
 117.1400012  82.7314997  -5.9210012 117.1020012  83.1314997  -5.0520012
 116.6490012  81.9144997  -5.8300012 117.0684684  82.6758069  -5.7898941
 120.5060012  80.1054997 -19.1220012 120.0750012  79.6604997 -18.3920012
 119.7880012  80.4774997 -19.6340012 120.3499438  80.0948940 -19.0913201
 113.7480012  79.8474997 -12.0700012 114.3790012  79.8184997 -11.3510012
 114.1970012  79.4224997 -12.8000012 113.8950774  79.7860492 -12.0703447
 115.0220012  80.5934997 -16.6460012 115.4960012  81.1844997 -17.2310012
 114.3050012  81.1244997 -16.2990012 114.9899341  80.7460867 -16.6791164
 125.1910012  84.1324997  -6.5730012 125.5140012  83.5014997  -7.2160012
 124.7510012  83.5974997  -5.9130012 125.1756895  83.9738441  -6.5717150
 121.9680012  80.0594997 -11.7890012 121.0570012  80.1164997 -11.5010012
 122.4740012  79.9994997 -10.9790012 121.9115413  80.0591985 -11.6399378
 116.7970012  81.6884997 -12.9630012 115.9070012  81.7884997 -13.3030012
 117.0930012  80.8464997 -13.3090012 116.7152823  81.5883545 -13.0562787
 120.4500012  81.6884997 -15.3060012 121.3810012  81.8174997 -15.1280012
 120.2350012  82.3584997 -15.9560012 120.5484247  81.7966565 -15.3694253
 126.3730012  79.2944997  -8.5250012 125.6970012  79.4254997  -7.8610012
 125.8880012  79.1394997  -9.3350012 126.2147145  79.2914905  -8.5435483
 119.1240012  82.8834997 -17.7390012 118.5810012  82.5034997 -18.4310012
 119.9570012  83.0774997 -18.1680012 119.1624399  82.8578124 -17.8915474
 129.6610012  94.9664997  -2.2480012 129.8610012  95.3904997  -3.0830012
 130.3160012  95.3094997  -1.6410012 129.7770051  95.0709648  -2.2802164
 117.2590012  87.4404997  -2.6400012 117.9910012  87.6944997  -2.0790012
 116.4790012  87.6444997  -2.1250012 117.2538232  87.5029177  -2.4934240
 123.2880012  82.8474997  -9.9020012 123.8530012  82.3004997 -10.4490012
 123.1410012  82.3254997  -9.1140012 123.3452918  82.7022024  -9.8701546
 118.2900012  78.9834997 -13.4840012 117.9730012  78.0814997 -13.5190012
 119.0720012  78.9854997 -14.0370012 118.3522284  78.8601628 -13.5635217
 121.9150012  81.2354997  -7.4880012 121.0790012  81.6894997  -7.3780012
 122.4390012  81.5114997  -6.7360012 121.8714414  81.3349376  -7.3712864
 122.4590012  87.4484997 -15.8040012 121.7140012  86.9414997 -16.1260012
 122.3250012  87.4974997 -14.8570012 122.3388776  87.3856940 -15.7201353
 129.6090012  86.5814997  -7.0170012 130.2510012  87.0384997  -7.5610012
 128.7790012  86.6944997  -7.4800012 129.5845963  86.6592704  -7.1539823
 126.3570012  80.2624997 -17.6040012 125.4180012  80.3744997 -17.7560012
 126.6540012  81.1194997 -17.2980012 126.2687666  80.3936443 -17.5834232
 123.9780012  87.6324997  -4.5670012 123.6330012  87.2514997  -3.7600012
 123.7780012  88.5664997  -4.4950012 123.9038061  87.7065228  -4.4469039
 127.0750012  82.1294997 -15.9440012 127.9670012  81.9924997 -15.6250012
 127.1320012  82.9204997 -16.4800012 127.2046285  82.2176660 -15.9728310
 117.5840012  86.7434997 -10.0340012 118.3290012  86.7414997 -10.6350012
 117.6620012  85.9204997  -9.5520012 117.6965518  86.6319315 -10.0511071
 124.5850012  88.9074997 -16.7780012 124.2890012  89.7334997 -16.3970012
 123.8820012  88.2874997 -16.5820012 124.4494914  88.9368199 -16.6993557
 114.5920012  85.2044997  -4.7190012 114.8150012  84.7864997  -3.8870012
 113.9900012  84.5914997  -5.1420012 114.5411759  85.0644668  -4.6622978
 121.6080012  84.7214997  -2.5060012 121.3120012  84.5554997  -3.4010012
 122.5400012  84.5014997  -2.5170012 121.6934166  84.6690640  -2.6299464
 126.2290012  90.0944997  -4.6160012 125.3280012  90.2774997  -4.8840012
 126.2630012  90.3534997  -3.6950012 126.1103041  90.1545512  -4.5281803
 131.9600012  82.3394997 -16.2490012 131.4060012  81.9434997 -16.9210012
 132.0600012  83.2494997 -16.5270012 131.8977059  82.4083586 -16.3785599
 131.9230012  88.1394997  -3.4120012 131.0720012  88.3774997  -3.7790012
 132.5140012  88.1224997  -4.1650012 131.8862487  88.1698258  -3.5641107
 130.2550012  91.1254997 -15.7840012 129.8820012  90.2994997 -15.4750012
 130.5330012  90.9424997 -16.6810012 130.2415630  90.9877303 -15.8630374
 127.4160012  85.9334997  -8.7630012 126.4870012  85.7014997  -8.7900012
 127.8670012  85.1564997  -9.0930012 127.3499216  85.7967238  -8.8113083
 119.9590012  90.2614997 -12.6300012 120.4860012  91.0344997 -12.8300012
 119.0790012  90.4864997 -12.9310012 119.9121773  90.3978005 -12.6980990
 115.7140012  85.1234997 -18.0430012 116.3300012  85.7504997 -17.6630012
 114.8520012  85.4394997 -17.7710012 115.6817698  85.2519430 -17.9542817
 121.3860012  87.9244997 -13.0530012 121.1450012  88.8494997 -13.0120012
 120.6450012  87.4654997 -12.6570012 121.2528409  87.9891421 -12.9938623
 121.9010012  92.0734997  -6.7380012 122.2630012  92.9284997  -6.9720012
 122.4320012  91.7814997  -5.9980012 122.0224473  92.1511060  -6.6699145
 120.0690012  92.9464997 -13.5080012 119.1190012  93.0514997 -13.4570012
 120.4210012  93.7664997 -13.1630012 119.9864203  93.0718314 -13.4543350
 125.4450012  88.1724997  -7.0380012 125.0190012  87.9454997  -6.2110012
 126.0250012  87.4344997  -7.2200012 125.4651868  88.0415299  -6.9494170
 127.6480012  89.1014997 -17.9640012 128.0010012  88.7214997 -17.1590012
 126.6990012  89.0084997 -17.8770012 127.5680441  89.0369596 -17.8421441
 128.1030012  92.7244997  -4.5680012 127.5020012  92.1694997  -5.0640012
 128.3850012  93.3914997  -5.1940012 128.0588519  92.7386841  -4.7205048
 132.1510012  93.5814997 -17.7630012 132.8950012  94.1674997 -17.9030012
 131.4570012  94.1494997 -17.4290012 132.1590292  93.7385582 -17.7370039
 116.2260012  79.9574997  -5.1610012 115.3330012  80.2964997  -5.2290012
 116.1270012  79.1024997  -4.7430012 116.0904164  79.8882588  -5.1137765
 128.5140012  87.7744997 -15.7370012 128.2360012  87.0464997 -15.1810012
 129.4410012  87.8934997 -15.5320012 128.6013124  87.6908802 -15.6331155
 115.8770012  91.7624997  -6.7260012 116.0940012  90.8304997  -6.7570012
 116.1230012  92.0364997  -5.8430012 115.9399549  91.6720636  -6.6108237
 121.7390012  90.2134997 -19.5170012 121.9780012  89.4654997 -20.0640012
 121.4700012  89.8254997 -18.6840012 121.7353675  90.0586638 -19.4793135
 120.6760012  89.7834997 -17.0600012 120.8220012  89.2634997 -16.2700012
 120.6730012  90.6904997 -16.7540012 120.6955989  89.8348853 -16.9103912
 117.1290012  87.0364997 -16.5500012 116.4430012  87.3884997 -15.9830012
 117.6510012  87.7994997 -16.7970012 117.1056852  87.1878578 -16.5057882
 124.9600012  79.6984997  -6.2710012 125.6590012  79.7724997  -5.6210012
 124.5790012  78.8344997  -6.1170012 125.0041767  79.5917624  -6.1611678
 125.7450012  79.3504997 -15.1740012 125.9650012  79.8224997 -15.9770012
 126.3030012  79.7454997 -14.5040012 125.8504968  79.4684285 -15.1932669
 123.4130012  91.4814997 -16.3110012 122.5970012  91.9784997 -16.2590012
 123.9430012  91.9564997 -16.9510012 123.3729161  91.6137722 -16.3904044
 122.9450012  81.0784997 -14.3390012 123.7570012  81.5834997 -14.2930012
 122.7000012  80.9334997 -13.4250012 123.0230520  81.1280375 -14.2091483
 123.4800012  82.0644997  -5.1540012 123.5990012  82.6384997  -4.3970012
 124.1360012  81.3764997  -5.0400012 123.5849757  82.0501079  -5.0349175
 123.8280012  78.1594997 -13.4010012 123.4820012  78.7774997 -12.7560012
 124.4870012  78.6604997 -13.8820012 123.8697826  78.3115802 -13.3779029
 120.7520012  92.5254997 -16.3290012 120.9120012  93.3244997 -16.8300012
 120.5540012  92.8314997 -15.4440012 120.7471649  92.6764469 -16.2780185
 119.4860012  79.2224997 -16.7140012 119.4030012  80.1114997 -16.3670012
 120.3760012  78.9574997 -16.4820012 119.5949469  79.3081430 -16.6352374
 129.6850012  79.9714997  -4.3190012 128.7680012  80.2344997  -4.4070012
 130.0200012  79.9684997  -5.2160012 129.6049900  80.0070224  -4.4522081
 128.2870012  83.7224997 -10.2240012 127.4890012  83.3074997 -10.5520012
 128.7320012  83.0314997  -9.7330012 128.2379885  83.5723543 -10.2025111
 117.7450012  89.6504997 -17.6530012 118.3370012  90.3494997 -17.3770012
 118.2040012  89.2174997 -18.3730012 117.8881142  89.6877049 -17.7125170
 116.0610012  82.3144997 -18.5370012 116.0160012  83.2534997 -18.3590012
 115.1730012  82.0784997 -18.8070012 115.9348574  82.4111892 -18.5491088
 129.3730012  92.9784997  -8.6010012 129.2180012  93.6564997  -9.2580012
 130.3060012  93.0504997  -8.3980012 129.4778500  93.0810170  -8.6634881
 116.8690012  77.0964997  -9.8640012 116.6400012  77.1554997 -10.7920012
 116.4260012  76.3044997  -9.5580012 116.7778530  76.9975753  -9.9495214
 115.7990012  91.0364997 -13.7040012 114.9670012  91.5094997 -13.6760012
 116.3450012  91.5464997 -14.3020012 115.7589739  91.1701871 -13.7810284
 115.0870012  93.6494997  -2.3740012 115.6280012  93.4324997  -1.6140012
 114.6060012  92.8434997  -2.5630012 115.0959345  93.5109514  -2.2956924
 119.6850012  92.5684997  -0.7530012 120.4520012  92.1094997  -0.4120012
 119.6630012  92.3424997  -1.6830012 119.7871434  92.4750409  -0.8319957
 123.7770012  92.0764997 -19.3780012 123.1330012  91.4454997 -19.0570012
 124.5390012  91.5454997 -19.6100012 123.7918077  91.9182920 -19.3653989
 126.2620012  90.9484997  -2.0240012 125.9110012  90.0924997  -1.7810012
 126.9880012  91.0914997  -1.4170012 126.3120769  90.8505636  -1.9086381
 128.3810012  91.8934997 -19.1440012 128.6640012  91.0994997 -18.6920012
 129.1210012  92.1264997 -19.7050012 128.5197486  91.8162803 -19.1579302
 114.9940012  87.4594997  -1.4190012 115.1380012  86.5574997  -1.7060012
 114.2220012  87.7454997  -1.9070012 114.9093322  87.3748261  -1.5242119
 119.3360012  87.8034997 -19.2870012 119.4000012  87.0094997 -18.7560012
 119.9890012  87.6844997 -19.9770012 119.4330241  87.6787148 -19.3075683
 121.6500012  87.4294997  -1.9870012 121.3210012  87.7004997  -2.8440012
 121.8020012  86.4884997  -2.0740012 121.6254809  87.3393862  -2.1161756
 127.3840012  87.3454997  -4.6030012 128.1300012  87.9334997  -4.7230012
 126.6270012  87.9274997  -4.5400012 127.3837554  87.5047011  -4.6109093
 115.8270012  84.6594997  -1.9990012 116.2350012  83.8024997  -2.1200012
 115.5670012  84.6744997  -1.0780012 115.8477568  84.5440807  -1.8910412
 120.4850012  85.7754997 -16.9810012 120.0250012  85.2914997 -16.2950012
 120.7400012  85.1074997 -17.6170012 120.4564902  85.6188731 -16.9730666
 119.7740012  83.6684997  -4.6250012 119.1560012  84.3434997  -4.3450012
 120.1180012  83.9894997  -5.4580012 119.7359615  83.8042721  -4.6993419
 121.5560012  84.0184997 -18.7190012 121.3760012  83.8644997 -19.6460012
 122.5060012  84.1264997 -18.6740012 121.6597776  84.0120175 -18.8398157
 124.7940012  86.1404997  -1.3480012 125.7470012  86.2234997  -1.3750012
 124.6330012  85.4284997  -0.7280012 124.9026426  86.0556746  -1.2679421
 130.9460012  86.3734997 -19.2730012 130.6720012  85.9484997 -20.0860012
 130.9850012  87.3044997 -19.4900012 130.9137699  86.4412484 -19.4136390
 120.1130012  81.0234997  -3.5430012 120.2630012  80.2944997  -4.1450012
 120.1160012  81.8004997  -4.1020012 120.1339302  81.0287851  -3.7009308
 120.5260012  79.3934997  -6.0500012 121.0620012  79.8444997  -6.7020012
 119.6740012  79.2854997  -6.4730012 120.4842178  79.4406390  -6.1964244
 122.1080012  84.8324997  -5.8110012 122.8580012  84.6764997  -6.3840012
 121.7690012  85.6844997  -6.0860012 122.1648921  84.9262968  -5.9266439
 126.5230012  82.6474997  -0.7820012 126.7160012  81.7164997  -0.8940012
 127.3810012  83.0724997  -0.7920012 126.6653020  82.5776389  -0.7986639
 127.8400012  85.4364997  -2.7050012 127.5590012  86.1454997  -3.2820012
 128.7830012  85.3634997  -2.8560012 127.9289027  85.5237646  -2.8044449
 118.5920012  82.2214997  -1.6310012 117.8250012  81.6894997  -1.8410012
 119.2710012  81.9114997  -2.2310012 118.5787022  82.1067506  -1.7408352
 121.3320012  76.8494997  -5.6190012 121.2330012  77.7964997  -5.7240012
 120.5890012  76.4774997  -6.0940012 121.2180564  76.9285902  -5.6975440
 122.5960012  81.1714997  -2.0550012 122.3600012  80.9514997  -1.1530012
 121.8120012  80.9644997  -2.5650012 122.4578628  81.1134760  -2.0006068
 125.3110012  80.2984997  -2.9790012 124.3640012  80.3304997  -2.8470012
 125.6240012  79.6734997  -2.3260012 125.2235475  80.2183207  -2.8725545
 126.9450012  78.9324997  -0.9740012 126.8490012  77.9804997  -0.9800012
 126.6240012  79.2014997  -0.1140012 126.8884070  78.8384035  -0.8584559
 116.7720012  80.1424997  -1.9270012 116.9840012  79.4354997  -2.5370012
 116.6610012  79.7044997  -1.0830012 116.7859721  79.9867084  -1.8963157
 121.5530012  76.1434997  -2.9470012 122.2650012  75.5034997  -2.9610012
 121.4520012  76.4104997  -3.8610012 121.6367939  76.0919938  -3.0724350
 121.9070012  77.8264997  -0.8940012 121.7750012  77.3504997  -1.7140012
 121.3080012  78.5704997  -0.9490012 121.8079071  77.8619618  -1.0137114
 121.4530012  94.7094997 -17.7170012 122.3860012  94.8674997 -17.5740012
 121.1890012  95.3844997 -18.3420012 121.5449510  94.8223611 -17.7819259
 115.0220012  89.3454997 -18.2350012 115.9360012  89.4244997 -17.9610012
 115.0290012  88.6584997 -18.9010012 115.1481131  89.2633961 -18.2875607
 113.6710012  94.7384997 -13.1570012 113.0240012  94.2764997 -13.6900012
 114.0250012  94.0664997 -12.5750012 113.6303849  94.5844723 -13.1512041
 114.5410012  92.8194997 -11.3530012 114.2060012  91.9394997 -11.1810012
 114.7630012  93.1644997 -10.4880012 114.5251783  92.7457500 -11.2125792
 132.0890012  93.6284997  -8.3720012 132.0680012  93.8134997  -7.4330012
 132.7800012  94.1974997  -8.7130012 132.1794618  93.7306606  -8.2896136
 131.6530012  93.1964997  -5.4500012 131.1650012  92.4604997  -5.8210012
 132.2020012  92.8024997  -4.7720012 131.6604872  93.0426249  -5.4090840
 130.1030012  88.9854997  -0.8120012 129.2370012  88.8804997  -0.4180012
 130.4800012  89.7444997  -0.3660012 130.0353308  89.0736900  -0.6977607
 131.4040012  87.2424997 -15.2980012 132.2540012  87.6634997 -15.1710012
 131.4100012  86.5024997 -14.6910012 131.5211372  87.2000803 -15.1985656
 131.7990012  85.2954997 -13.4740012 131.0720012  84.8164997 -13.0770012
 132.3800012  85.5014997 -12.7420012 131.7779375  85.2577090 -13.3205871
 131.5580012  88.0804997  -8.5270012 132.3910012  87.7024997  -8.8070012
 131.6700012  89.0234997  -8.6460012 131.6872647  88.1562218  -8.5814513
 130.0440012  90.9584997  -6.2200012 129.3970012  91.2834997  -5.5940012
 129.5270012  90.5184997  -6.8940012 129.8854029  90.9435004  -6.2254173
 132.0670012  85.1964997 -17.0830012 131.5450012  85.5534997 -17.8020012
 132.0340012  85.8714997 -16.4050012 131.9911634  85.3365413 -17.0896855
 130.4160012  82.4364997 -18.5320012 130.5120012  83.1034997 -19.2130012
 130.2760012  81.6204997 -19.0140012 130.4102135  82.4174500 -18.6901509
 129.5850012  83.8164997 -12.9110012 129.4350012  82.8714997 -12.9320012
 129.2320012  84.0974997 -12.0680012 129.5166625  83.7250441 -12.7997654
 114.6210012  85.8944997  -8.9010012 114.8050012  85.8124997  -9.8370012
 115.4700012  85.7704997  -8.4770012 114.7610139  85.8665003  -8.9718545
 130.4420012  85.7864997  -3.2730012 131.0250012  85.0524997  -3.0810012
 131.0060012  86.5584997  -3.2260012 130.5979769  85.7904227  -3.2403841
 131.9380012  83.6894997  -2.5880012 131.0750012  83.3104997  -2.7540012
 132.5430012  82.9504997  -2.6620012 131.9015979  83.5378023  -2.6207183
 129.6630012  79.8444997 -19.4150012 130.2740012  79.4734997 -18.7780012
 128.8270012  79.4234997 -19.2190012 129.6335032  79.7367554 -19.3012965
 129.2960012  81.3994997 -14.4490012 129.5760012  80.4924997 -14.3250012
 130.0550012  81.8334997 -14.8380012 129.4369277  81.3340942 -14.4846318
 129.9080012  81.9804997  -9.0130012 130.8410012  82.1924997  -9.0470012
 129.6730012  82.0824997  -8.0910012 130.0038036  82.0232769  -8.8930024
 129.9370012  82.7174997  -6.2370012 129.0940012  82.9854997  -5.8710012
 130.3790012  83.5394997  -6.4480012 129.8814158  82.8653291  -6.2154509
 114.2180012  81.1654997  -2.7600012 115.1380012  81.0434997  -2.5240012
 113.7690012  80.4154997  -2.3710012 114.2831580  81.0473727  -2.6750994
 132.2200012  76.6974997  -0.8840012 132.5700012  76.0434997  -1.4890012
 132.3670012  77.5344997  -1.3230012 132.2878419  76.7211591  -1.0262882
 129.9090012  78.6624997 -14.4010012 130.0920012  78.2134997 -13.5750012
 129.3100012  78.0774997 -14.8640012 129.8530202  78.5219975 -14.3506725
 115.4390012  79.4774997  -9.8690012 115.8850012  78.6854997  -9.5670012
 115.9060012  80.1934997  -9.4380012 115.5630172  79.4660624  -9.7695180
 113.7430012  82.4764997  -8.8000012 114.2350012  82.2554997  -9.5910012
 114.1060012  83.3174997  -8.5190012 113.8593126  82.5598357  -8.8702469
 131.7400012  78.8064997  -2.5340012 130.8220012  79.0774997  -2.5700012
 131.8630012  78.2714997  -3.3190012 131.6311066  78.7712892  -2.6449513
 131.7760012  78.7294997 -17.8730012 132.1880012  78.0084997 -18.3480012
 132.4580012  79.3994997 -17.8140012 131.9245885  78.7212368 -17.9301085
 114.0570012  78.7344997 -14.7460012 113.1320012  78.9434997 -14.8750012
 114.5110012  79.2184997 -15.4350012 113.9917368  78.8285993 -14.8568774
 128.8280012  93.7184997 -12.8000012 129.4800012  93.3714997 -13.4080012
 129.3380012  94.2074997 -12.1540012 128.9862637  93.7370597 -12.7959764
 114.0210012  77.4724997  -6.4010012 113.3560012  77.2264997  -5.7580012
 113.5780012  78.0944997  -6.9790012 113.8700956  77.5228632  -6.3910648
 116.2130012  90.6474997  -2.2570012 115.3920012  90.8224997  -2.7170012
 115.9600012  90.5744997  -1.3360012 116.0666164  90.6615622  -2.1955077
 119.1670012  91.6224997  -5.9980012 118.7420012  92.4314997  -6.2810012
 120.0710012  91.7074997  -6.3000012 119.2310271  91.7448469  -6.0776224
 123.4780012  93.0214997  -3.0390012 123.6630012  92.6874997  -2.1610012
 124.3240012  93.3304997  -3.3610012 123.6177539  93.0176047  -2.9624395
 125.8230012  94.3074997  -3.7950012 126.5000012  93.6744997  -4.0350012
 126.1450012  94.7084997  -2.9880012 125.9591637  94.2751154  -3.7187207
 130.7400012  76.8964997  -4.7150012 129.9280012  77.2214997  -5.1030012
 130.9730012  76.1364997  -5.2480012 130.6603423  76.8382436  -4.8401747
 116.5690012  94.8784997  -5.9510012 115.8480012  95.3184997  -6.4020012
 116.2030012  94.6274997  -5.1020012 116.4209804  94.9047698  -5.8980160
 119.0360012  94.4784997  -6.9210012 118.1710012  94.5504997  -6.5170012
 118.9810012  95.0254997  -7.7050012 118.9102085  94.5622685  -6.9716638
 123.7460012  94.3664997  -7.7460012 123.2900012  94.8954997  -8.4000012
 123.9090012  94.9694997  -7.0200012 123.7055585  94.5204468  -7.7374938
 126.0740012  93.2444997  -6.8010012 125.1690012  93.4094997  -7.0660012
 126.5030012  94.0974997  -6.8660012 126.0080799  93.3824483  -6.8460818
 128.6780012  94.8144997  -6.5060012 128.4960012  95.7304997  -6.7160012
 128.8550012  94.4044997  -7.3520012 128.6770210  94.8844822  -6.6492115
 115.9830012  93.5014997  -9.0410012 115.9650012  93.0764997  -8.1830012
 116.7880012  93.1834997  -9.4490012 116.0893875  93.4003812  -8.9788345
 118.1250012  92.2114997 -10.3860012 117.9060012  91.2954997 -10.2160012
 118.9490012  92.3514997  -9.9200012 118.2064420  92.1050520 -10.2997226
 120.6620012  92.6814997  -9.5370012 120.8750012  91.7934997  -9.8240012
 120.7260012  92.6474997  -8.5830012 120.6998232  92.5553102  -9.4472603
 124.1700012  78.3454997 -10.3930012 123.4960012  77.7164997 -10.1370012
 124.7340012  77.8614997 -10.9960012 124.1539230  78.1938744 -10.4394660
 129.3130012  76.4534997 -10.2800012 129.9170012  77.0004997 -10.7820012
 128.4430012  76.7724997 -10.5200012 129.2781241  76.5715806 -10.3812346
 131.0400012  77.5914997 -11.9470012 131.6520012  77.0774997 -12.4730012
 131.4220012  78.4694997 -11.9230012 131.1754540  77.6397140 -12.0158170
 116.4970012  76.9794997 -12.5710012 115.7200012  76.7454997 -13.0780012
 117.0270012  76.1824997 -12.5620012 116.4622330  76.8396988 -12.6392258
 115.3330012  76.7774997 -16.7670012 115.7720012  77.3884997 -17.3590012
 114.7000012  77.3154997 -16.2930012 115.3074514  76.9339257 -16.7839070
 121.0760012  76.9064997 -12.7570012 121.9510012  77.2944997 -12.7870012
 120.9400012  76.6914997 -11.8350012 121.1773695  76.9305184 -12.6363560
 126.6330012  76.9364997 -11.1080012 126.7090012  77.0314997 -12.0580012
 126.3580012  76.0284997 -10.9790012 126.6062321  76.8267867 -11.2204921
 127.9860012  76.9624997 -15.4160012 127.2840012  77.5774997 -15.6250012
 127.5420012  76.1244997 -15.2850012 127.8296330  76.9335783 -15.4269672
 115.2340012  92.7254997 -15.8690012 114.5490012  92.6874997 -16.5370012
 115.2380012  93.6384997 -15.5810012 115.1408193  92.8437016 -15.9214716
 117.1940012  78.6934997 -18.3250012 117.6860012  78.0634997 -18.8520012
 117.8180012  78.9894997 -17.6610012 117.3455446  78.6473199 -18.3074020
 122.2200012  78.9864997 -15.8680012 122.3980012  78.3404997 -15.1850012
 122.1670012  79.8204997 -15.4000012 122.2371829  79.0107985 -15.7114060
 124.0990012  93.9354997 -17.4720012 124.9650012  94.3014997 -17.6500012
 123.8520012  93.4954997 -18.2860012 124.1842392  93.9261756 -17.6063711
 130.8080012  93.4984997 -14.7930012 130.6130012  92.7504997 -15.3580012
 130.7690012  94.2564997 -15.3760012 130.7760380  93.4986099 -14.9491616
 116.4550012  77.4934997  -3.0530012 116.0890012  76.7284997  -2.6100012
 117.3680012  77.5224997  -2.7660012 116.5282790  77.3927224  -2.9535930
 118.4280012  76.8444997  -1.5170012 119.3260012  76.5704997  -1.7020012
 118.0410012  76.1014997  -1.0530012 118.4986612  76.7065914  -1.4796357
 117.0520012  93.6454997 -18.8440012 116.7850012  93.9324997 -17.9710012
 117.8240012  93.0994997 -18.6920012 117.1197488  93.6110294 -18.7038950
 126.8490012  76.1764997  -1.3350012 126.9260012  75.7504997  -0.4810012
 127.7430012  76.1904997  -1.6780012 126.9803428  76.1200879  -1.2644690
 130.0250012  92.2494997  -2.6430012 129.2430012  92.0634997  -3.1620012
 129.9530012  93.1784997  -2.4250012 129.9081777  92.3496492  -2.6845952
 144.4310012  86.1354997 -12.6120012 144.5200012  87.0794997 -12.7440012
 143.7930012  85.8604997 -13.2700012 144.3569081  86.2274830 -12.7190386
 143.3640012  85.3904997  -9.1930012 143.3260012  84.7444997  -8.4880012
 143.0420012  84.9244997  -9.9640012 143.3152333  85.2389408  -9.2007022
 135.7330012  85.0054997  -7.6000012 135.7740012  84.3794997  -6.8770012
 136.4360012  85.6294997  -7.4180012 135.8336363  85.0041196  -7.4763956
 136.6560012  89.4554997  -9.0650012 136.2870012  88.6534997  -9.4350012
 137.5970012  89.2864997  -9.0190012 136.7327289  89.3230153  -9.1093684
 133.2660012  83.1154997 -13.6720012 132.8190012  83.9614997 -13.6910012
 132.7050012  82.5354997 -14.1880012 133.1289900  83.1529916 -13.7443199
 133.9770012  85.2774997 -11.5460012 134.1900012  84.5074997 -11.0190012
 134.7150012  85.3664997 -12.1500012 134.1058496  85.1841394 -11.5554700
 144.1820012  93.4344997 -10.6790012 144.8020012  92.7574997 -10.9530012
 143.9740012  93.2164997  -9.7710012 144.2386904  93.3123870 -10.5936635
 141.7540012  87.8234997  -8.7870012 142.0580012  87.1374997  -9.3820012
 142.4750012  87.9414997  -8.1690012 141.8930671  87.7456305  -8.7848184
 144.8950012  82.2174997  -8.4590012 145.0370012  81.2714997  -8.4390012
 144.7880012  82.4244997  -9.3880012 144.8999864  82.1159534  -8.5817661
 138.0490012  80.3184997 -11.1870012 138.0930012  81.1784997 -11.6050012
 137.5920012  79.7664997 -11.8210012 137.9932185  80.3615799 -11.3299701
 134.6700012  82.7154997 -10.4250012 135.3230012  82.1654997  -9.9930012
 134.6940012  82.4414997 -11.3420012 134.7626683  82.6031466 -10.4897877
 139.8260012  84.2654997 -11.2100012 140.4420012  83.7394997 -10.7000012
 139.2400012  83.6254997 -11.6130012 139.8310810  84.1069208 -11.1946827
 136.8600012  79.2364997  -7.1130012 136.6410012  79.7664997  -7.8790012
 136.1920012  79.4634997  -6.4660012 136.7397600  79.3396906  -7.1303621
 144.2290012  88.7364997 -13.5690012 143.9330012  88.4144997 -14.4200012
 143.9040012  89.6364997 -13.5280012 144.1446371  88.8140215 -13.6798199
 139.4290012  86.9124997  -6.8260012 138.6890012  87.5104997  -6.7220012
 140.1430012  87.4664997  -7.1410012 139.4242237  87.0692831  -6.8543535
 136.4530012  81.1284997  -9.1610012 137.0670012  81.7614997  -8.7870012
 136.9650012  80.6564997  -9.8170012 136.6062296  81.1512370  -9.1985748
 137.8360012  88.8764997  -6.0380012 137.8310012  89.7564997  -6.4160012
 136.9830012  88.7934997  -5.6130012 137.7199464  88.9856117  -6.0322093
 133.9570012  88.5474997 -15.2560012 133.6850012  88.7764997 -16.1450012
 134.0030012  89.3854997 -14.7960012 133.9260094  88.6921213 -15.3154303
 140.8860012  76.5424997  -9.6600012 140.7690012  75.5934997  -9.7150012
 140.0310012  76.8744997  -9.3870012 140.7543733  76.4575409  -9.6306103
 143.1530012  85.3794997 -15.1600012 142.4410012  85.9144997 -15.5120012
 143.8440012  85.4354997 -15.8200012 143.1490132  85.4602543 -15.2973711
 143.2060012  83.8374997 -18.1210012 143.9070012  83.8594997 -17.4700012
 143.5090012  83.2094997 -18.7770012 143.3427830  83.7556566 -18.1206289
 138.2040012  86.2194997 -12.3260012 137.8730012  85.8494997 -13.1440012
 138.7920012  85.5494997 -11.9790012 138.2381873  86.0781156 -12.3911898
 139.5700012  89.6474997  -9.6440012 139.4760012  89.0694997 -10.4010012
 140.3000012  89.2764997  -9.1480012 139.6557981  89.5182390  -9.6805835
 138.5700012  84.9884997  -8.6920012 139.1360012  85.1094997  -9.4550012
 138.8890012  85.6254997  -8.0530012 138.6905786  85.0911884  -8.7099960
 144.8790012  90.4914997  -7.9580012 144.6390012  91.1534997  -7.3100012
 144.6810012  89.6574997  -7.5330012 144.8193808  90.4693134  -7.8118476
 139.4500012  89.3874997  -3.9750012 139.1390012  90.1694997  -3.5200012
 138.8000012  89.2344997  -4.6610012 139.3195558  89.4739105  -4.0054129
 136.3700012  85.5854997  -4.7460012 136.4410012  86.2364997  -4.0480012
 135.4800012  85.6884997  -5.0810012 136.2593117  85.6885936  -4.6957300
 143.1560012  91.4884997 -13.0880012 143.6300012  91.7834997 -12.3100012
 142.5930012  92.2264997 -13.3210012 143.1447653  91.6286932 -13.0129864
 137.6900012  91.4594997  -3.2120012 137.6970012  91.3234997  -4.1590012
 136.7740012  91.3414997  -2.9600012 137.5671714  91.4249430  -3.3075334
 137.1940012  85.2894997 -14.7360012 136.9020012  86.0574997 -15.2270012
 136.5200012  84.6294997 -14.8990012 137.0629081  85.3054406 -14.8252660
 133.2870012  87.6524997  -5.9210012 132.7860012  87.6244997  -6.7360012
 133.2920012  86.7464997  -5.6120012 133.2191526  87.5262278  -5.9907128
 133.0370012  90.4324997  -9.0370012 133.9830012  90.2884997  -9.0560012
 132.9250012  91.2164997  -8.5000012 133.1512727  90.5188046  -8.9669928
 142.2140012  90.6724997  -4.4790012 142.3010012  91.4984997  -4.0040012
 141.3500012  90.3424997  -4.2300012 142.1091964  90.7409878  -4.3803451
 142.6280012  94.4444997 -14.6730012 142.5530012  94.3234997 -15.6190012
 142.6610012  95.3944997 -14.5540012 142.6221848  94.5562500 -14.7865166
 136.2810012  93.2334997 -12.8920012 136.4340012  92.8854997 -12.0130012
 135.4310012  92.8774997 -13.1470012 136.1868962  93.1376650 -12.8061660
 135.5360012  88.9754997  -4.8780012 135.7520012  88.6144997  -4.0190012
 134.6810012  88.6014997  -5.0880012 135.4499292  88.8754111  -4.7886614
 138.1550012  77.4454997  -8.8830012 137.2930012  77.3584997  -9.2900012
 138.1320012  78.3014997  -8.4550012 138.0340330  77.5492765  -8.8808137
 142.8180012  77.1674997  -5.5080012 143.2380012  76.7524997  -4.7550012
 141.8850012  76.9894997  -5.3910012 142.7493644  77.0865900  -5.3890461
 142.4790012  79.6604997 -18.2230012 142.2260012  79.6794997 -17.3000012
 142.2230012  78.7884997 -18.5240012 142.4097790  79.5452437 -18.1373737
 138.2460012  82.4114997  -7.7880012 137.6040012  82.3704997  -7.0790012
 138.2830012  83.3374997  -8.0250012 138.1631324  82.5311559  -7.7230176
 138.2430012  82.6324997 -12.8760012 137.3500012  82.2914997 -12.9340012
 138.6930012  82.2554997 -13.6310012 138.1817305  82.5348484 -12.9860823
 143.7780012  83.0484997 -14.0590012 143.3690012  83.8634997 -14.3500012
 144.4990012  82.9084997 -14.6730012 143.8194537  83.1412018 -14.1818658
 142.8800012  83.2234997  -2.5710012 142.3180012  82.5194997  -2.2500012
 143.7070012  83.1034997  -2.1030012 142.9147095  83.1107883  -2.4637670
 144.7830012  82.4944997 -11.2450012 144.5880012  83.0994997 -11.9600012
 144.9640012  81.6604997 -11.6790012 144.7807614  82.4646300 -11.4015595
 135.9960012  82.7314997  -5.9210012 135.9580012  83.1314997  -5.0520012
 135.5050012  81.9144997  -5.8300012 135.9244684  82.6758069  -5.7898941
 139.3620012  80.1054997 -19.1220012 138.9310012  79.6604997 -18.3920012
 138.6440012  80.4774997 -19.6340012 139.2059438  80.0948940 -19.0913201
 132.6040012  79.8474997 -12.0700012 133.2350012  79.8184997 -11.3510012
 133.0530012  79.4224997 -12.8000012 132.7510774  79.7860492 -12.0703447
 133.8780012  80.5934997 -16.6460012 134.3520012  81.1844997 -17.2310012
 133.1610012  81.1244997 -16.2990012 133.8459341  80.7460867 -16.6791164
 144.0470012  84.1324997  -6.5730012 144.3700012  83.5014997  -7.2160012
 143.6070012  83.5974997  -5.9130012 144.0316895  83.9738441  -6.5717150
 140.8240012  80.0594997 -11.7890012 139.9130012  80.1164997 -11.5010012
 141.3300012  79.9994997 -10.9790012 140.7675413  80.0591985 -11.6399378
 135.6530012  81.6884997 -12.9630012 134.7630012  81.7884997 -13.3030012
 135.9490012  80.8464997 -13.3090012 135.5712823  81.5883546 -13.0562787
 139.3060012  81.6884997 -15.3060012 140.2370012  81.8174997 -15.1280012
 139.0910012  82.3584997 -15.9560012 139.4044247  81.7966565 -15.3694253
 137.9800012  82.8834997 -17.7390012 137.4370012  82.5034997 -18.4310012
 138.8130012  83.0774997 -18.1680012 138.0184399  82.8578124 -17.8915474
 136.1150012  87.4404997  -2.6400012 136.8470012  87.6944997  -2.0790012
 135.3350012  87.6444997  -2.1250012 136.1098232  87.5029177  -2.4934240
 142.1440012  82.8474997  -9.9020012 142.7090012  82.3004997 -10.4490012
 141.9970012  82.3254997  -9.1140012 142.2012918  82.7022024  -9.8701546
 137.1460012  78.9834997 -13.4840012 136.8290012  78.0814997 -13.5190012
 137.9280012  78.9854997 -14.0370012 137.2082284  78.8601628 -13.5635217
 140.7710012  81.2354997  -7.4880012 139.9350012  81.6894997  -7.3780012
 141.2950012  81.5114997  -6.7360012 140.7274414  81.3349376  -7.3712864
 141.3150012  87.4484997 -15.8040012 140.5700012  86.9414997 -16.1260012
 141.1810012  87.4974997 -14.8570012 141.1948776  87.3856940 -15.7201353
 142.8340012  87.6324997  -4.5670012 142.4890012  87.2514997  -3.7600012
 142.6340012  88.5664997  -4.4950012 142.7598061  87.7065228  -4.4469039
 136.4400012  86.7434997 -10.0340012 137.1850012  86.7414997 -10.6350012
 136.5180012  85.9204997  -9.5520012 136.5525518  86.6319315 -10.0511071
 143.4410012  88.9074997 -16.7780012 143.1450012  89.7334997 -16.3970012
 142.7380012  88.2874997 -16.5820012 143.3054914  88.9368199 -16.6993557
 133.4480012  85.2044997  -4.7190012 133.6710012  84.7864997  -3.8870012
 132.8460012  84.5914997  -5.1420012 133.3971759  85.0644668  -4.6622978
 140.4640012  84.7214997  -2.5060012 140.1680012  84.5554997  -3.4010012
 141.3960012  84.5014997  -2.5170012 140.5494166  84.6690640  -2.6299464
 138.8150012  90.2614997 -12.6300012 139.3420012  91.0344997 -12.8300012
 137.9350012  90.4864997 -12.9310012 138.7681773  90.3978005 -12.6980990
 134.5700012  85.1234997 -18.0430012 135.1860012  85.7504997 -17.6630012
 133.7080012  85.4394997 -17.7710012 134.5377698  85.2519430 -17.9542817
 140.2420012  87.9244997 -13.0530012 140.0010012  88.8494997 -13.0120012
 139.5010012  87.4654997 -12.6570012 140.1088409  87.9891421 -12.9938623
 140.7570012  92.0734997  -6.7380012 141.1190012  92.9284997  -6.9720012
 141.2880012  91.7814997  -5.9980012 140.8784473  92.1511060  -6.6699145
 138.9250012  92.9464997 -13.5080012 137.9750012  93.0514997 -13.4570012
 139.2770012  93.7664997 -13.1630012 138.8424203  93.0718314 -13.4543350
 144.3010012  88.1724997  -7.0380012 143.8750012  87.9454997  -6.2110012
 144.8810012  87.4344997  -7.2200012 144.3211868  88.0415299  -6.9494170
 135.0820012  79.9574997  -5.1610012 134.1890012  80.2964997  -5.2290012
 134.9830012  79.1024997  -4.7430012 134.9464164  79.8882588  -5.1137765
 134.7330012  91.7624997  -6.7260012 134.9500012  90.8304997  -6.7570012
 134.9790012  92.0364997  -5.8430012 134.7959549  91.6720636  -6.6108237
 140.5950012  90.2134997 -19.5170012 140.8340012  89.4654997 -20.0640012
 140.3260012  89.8254997 -18.6840012 140.5913675  90.0586638 -19.4793135
 139.5320012  89.7834997 -17.0600012 139.6780012  89.2634997 -16.2700012
 139.5290012  90.6904997 -16.7540012 139.5515989  89.8348853 -16.9103912
 135.9850012  87.0364997 -16.5500012 135.2990012  87.3884997 -15.9830012
 136.5070012  87.7994997 -16.7970012 135.9616852  87.1878578 -16.5057882
 143.8160012  79.6984997  -6.2710012 144.5150012  79.7724997  -5.6210012
 143.4350012  78.8344997  -6.1170012 143.8601767  79.5917624  -6.1611678
 144.6010012  79.3504997 -15.1740012 144.8210012  79.8224997 -15.9770012
 145.1590012  79.7454997 -14.5040012 144.7064968  79.4684285 -15.1932669
 142.2690012  91.4814997 -16.3110012 141.4530012  91.9784997 -16.2590012
 142.7990012  91.9564997 -16.9510012 142.2289161  91.6137722 -16.3904044
 141.8010012  81.0784997 -14.3390012 142.6130012  81.5834997 -14.2930012
 141.5560012  80.9334997 -13.4250012 141.8790520  81.1280375 -14.2091483
 142.3360012  82.0644997  -5.1540012 142.4550012  82.6384997  -4.3970012
 142.9920012  81.3764997  -5.0400012 142.4409757  82.0501079  -5.0349175
 142.6840012  78.1594997 -13.4010012 142.3380012  78.7774997 -12.7560012
 143.3430012  78.6604997 -13.8820012 142.7257826  78.3115802 -13.3779029
 139.6080012  92.5254997 -16.3290012 139.7680012  93.3244997 -16.8300012
 139.4100012  92.8314997 -15.4440012 139.6031649  92.6764469 -16.2780185
 138.3420012  79.2224997 -16.7140012 138.2590012  80.1114997 -16.3670012
 139.2320012  78.9574997 -16.4820012 138.4509469  79.3081430 -16.6352374
 136.6010012  89.6504997 -17.6530012 137.1930012  90.3494997 -17.3770012
 137.0600012  89.2174997 -18.3730012 136.7441142  89.6877049 -17.7125170
 134.9170012  82.3144997 -18.5370012 134.8720012  83.2534997 -18.3590012
 134.0290012  82.0784997 -18.8070012 134.7908574  82.4111892 -18.5491088
 135.7250012  77.0964997  -9.8640012 135.4960012  77.1554997 -10.7920012
 135.2820012  76.3044997  -9.5580012 135.6338530  76.9975753  -9.9495214
 134.6550012  91.0364997 -13.7040012 133.8230012  91.5094997 -13.6760012
 135.2010012  91.5464997 -14.3020012 134.6149739  91.1701871 -13.7810284
 133.9430012  93.6494997  -2.3740012 134.4840012  93.4324997  -1.6140012
 133.4620012  92.8434997  -2.5630012 133.9519345  93.5109514  -2.2956924
 138.5410012  92.5684997  -0.7530012 139.3080012  92.1094997  -0.4120012
 138.5190012  92.3424997  -1.6830012 138.6431434  92.4750409  -0.8319957
 142.6330012  92.0764997 -19.3780012 141.9890012  91.4454997 -19.0570012
 143.3950012  91.5454997 -19.6100012 142.6478077  91.9182920 -19.3653989
 133.8500012  87.4594997  -1.4190012 133.9940012  86.5574997  -1.7060012
 133.0780012  87.7454997  -1.9070012 133.7653322  87.3748261  -1.5242119
 138.1920012  87.8034997 -19.2870012 138.2560012  87.0094997 -18.7560012
 138.8450012  87.6844997 -19.9770012 138.2890241  87.6787148 -19.3075683
 140.5060012  87.4294997  -1.9870012 140.1770012  87.7004997  -2.8440012
 140.6580012  86.4884997  -2.0740012 140.4814809  87.3393862  -2.1161756
 134.6830012  84.6594997  -1.9990012 135.0910012  83.8024997  -2.1200012
 134.4230012  84.6744997  -1.0780012 134.7037568  84.5440807  -1.8910412
 139.3410012  85.7754997 -16.9810012 138.8810012  85.2914997 -16.2950012
 139.5960012  85.1074997 -17.6170012 139.3124902  85.6188731 -16.9730666
 138.6300012  83.6684997  -4.6250012 138.0120012  84.3434997  -4.3450012
 138.9740012  83.9894997  -5.4580012 138.5919615  83.8042721  -4.6993419
 140.4120012  84.0184997 -18.7190012 140.2320012  83.8644997 -19.6460012
 141.3620012  84.1264997 -18.6740012 140.5157776  84.0120175 -18.8398157
 143.6500012  86.1404997  -1.3480012 144.6030012  86.2234997  -1.3750012
 143.4890012  85.4284997  -0.7280012 143.7586426  86.0556746  -1.2679421
 138.9690012  81.0234997  -3.5430012 139.1190012  80.2944997  -4.1450012
 138.9720012  81.8004997  -4.1020012 138.9899302  81.0287851  -3.7009308
 139.3820012  79.3934997  -6.0500012 139.9180012  79.8444997  -6.7020012
 138.5300012  79.2854997  -6.4730012 139.3402178  79.4406390  -6.1964244
 140.9640012  84.8324997  -5.8110012 141.7140012  84.6764997  -6.3840012
 140.6250012  85.6844997  -6.0860012 141.0208921  84.9262968  -5.9266439
 137.4480012  82.2214997  -1.6310012 136.6810012  81.6894997  -1.8410012
 138.1270012  81.9114997  -2.2310012 137.4347022  82.1067506  -1.7408352
 140.1880012  76.8494997  -5.6190012 140.0890012  77.7964997  -5.7240012
 139.4450012  76.4774997  -6.0940012 140.0740564  76.9285902  -5.6975440
 141.4520012  81.1714997  -2.0550012 141.2160012  80.9514997  -1.1530012
 140.6680012  80.9644997  -2.5650012 141.3138628  81.1134760  -2.0006068
 144.1670012  80.2984997  -2.9790012 143.2200012  80.3304997  -2.8470012
 144.4800012  79.6734997  -2.3260012 144.0795475  80.2183207  -2.8725545
 135.6280012  80.1424997  -1.9270012 135.8400012  79.4354997  -2.5370012
 135.5170012  79.7044997  -1.0830012 135.6419721  79.9867084  -1.8963157
 140.4090012  76.1434997  -2.9470012 141.1210012  75.5034997  -2.9610012
 140.3080012  76.4104997  -3.8610012 140.4927939  76.0919938  -3.0724350
 140.7630012  77.8264997  -0.8940012 140.6310012  77.3504997  -1.7140012
 140.1640012  78.5704997  -0.9490012 140.6639071  77.8619618  -1.0137114
 140.3090012  94.7094997 -17.7170012 141.2420012  94.8674997 -17.5740012
 140.0450012  95.3844997 -18.3420012 140.4009510  94.8223611 -17.7819259
 133.8780012  89.3454997 -18.2350012 134.7920012  89.4244997 -17.9610012
 133.8850012  88.6584997 -18.9010012 134.0041131  89.2633961 -18.2875607
 132.5270012  94.7384997 -13.1570012 131.8800012  94.2764997 -13.6900012
 132.8810012  94.0664997 -12.5750012 132.4863849  94.5844723 -13.1512041
 133.3970012  92.8194997 -11.3530012 133.0620012  91.9394997 -11.1810012
 133.6190012  93.1644997 -10.4880012 133.3811783  92.7457501 -11.2125792
 133.4770012  85.8944997  -8.9010012 133.6610012  85.8124997  -9.8370012
 134.3260012  85.7704997  -8.4770012 133.6170139  85.8665003  -8.9718545
 133.0740012  81.1654997  -2.7600012 133.9940012  81.0434997  -2.5240012
 132.6250012  80.4154997  -2.3710012 133.1391580  81.0473727  -2.6750994
 134.2950012  79.4774997  -9.8690012 134.7410012  78.6854997  -9.5670012
 134.7620012  80.1934997  -9.4380012 134.4190172  79.4660624  -9.7695180
 132.5990012  82.4764997  -8.8000012 133.0910012  82.2554997  -9.5910012
 132.9620012  83.3174997  -8.5190012 132.7153126  82.5598357  -8.8702469
 132.9130012  78.7344997 -14.7460012 131.9880012  78.9434997 -14.8750012
 133.3670012  79.2184997 -15.4350012 132.8477368  78.8285993 -14.8568774
 132.8770012  77.4724997  -6.4010012 132.2120012  77.2264997  -5.7580012
 132.4340012  78.0944997  -6.9790012 132.7260956  77.5228632  -6.3910648
 135.0690012  90.6474997  -2.2570012 134.2480012  90.8224997  -2.7170012
 134.8160012  90.5744997  -1.3360012 134.9226164  90.6615622  -2.1955077
 138.0230012  91.6224997  -5.9980012 137.5980012  92.4314997  -6.2810012
 138.9270012  91.7074997  -6.3000012 138.0870271  91.7448469  -6.0776224
 142.3340012  93.0214997  -3.0390012 142.5190012  92.6874997  -2.1610012
 143.1800012  93.3304997  -3.3610012 142.4737539  93.0176047  -2.9624395
 144.6790012  94.3074997  -3.7950012 145.3560012  93.6744997  -4.0350012
 145.0010012  94.7084997  -2.9880012 144.8151637  94.2751154  -3.7187207
 135.4250012  94.8784997  -5.9510012 134.7040012  95.3184997  -6.4020012
 135.0590012  94.6274997  -5.1020012 135.2769804  94.9047698  -5.8980160
 137.8920012  94.4784997  -6.9210012 137.0270012  94.5504997  -6.5170012
 137.8370012  95.0254997  -7.7050012 137.7662085  94.5622685  -6.9716638
 142.6020012  94.3664997  -7.7460012 142.1460012  94.8954997  -8.4000012
 142.7650012  94.9694997  -7.0200012 142.5615585  94.5204468  -7.7374938
 134.8390012  93.5014997  -9.0410012 134.8210012  93.0764997  -8.1830012
 135.6440012  93.1834997  -9.4490012 134.9453875  93.4003812  -8.9788345
 136.9810012  92.2114997 -10.3860012 136.7620012  91.2954997 -10.2160012
 137.8050012  92.3514997  -9.9200012 137.0624420  92.1050520 -10.2997226
 139.5180012  92.6814997  -9.5370012 139.7310012  91.7934997  -9.8240012
 139.5820012  92.6474997  -8.5830012 139.5558232  92.5553102  -9.4472603
 143.0260012  78.3454997 -10.3930012 142.3520012  77.7164997 -10.1370012
 143.5900012  77.8614997 -10.9960012 143.0099230  78.1938744 -10.4394660
 135.3530012  76.9794997 -12.5710012 134.5760012  76.7454997 -13.0780012
 135.8830012  76.1824997 -12.5620012 135.3182330  76.8396988 -12.6392258
 134.1890012  76.7774997 -16.7670012 134.6280012  77.3884997 -17.3590012
 133.5560012  77.3154997 -16.2930012 134.1634514  76.9339257 -16.7839070
 139.9320012  76.9064997 -12.7570012 140.8070012  77.2944997 -12.7870012
 139.7960012  76.6914997 -11.8350012 140.0333695  76.9305184 -12.6363560
 134.0900012  92.7254997 -15.8690012 133.4050012  92.6874997 -16.5370012
 134.0940012  93.6384997 -15.5810012 133.9968193  92.8437016 -15.9214716
 136.0500012  78.6934997 -18.3250012 136.5420012  78.0634997 -18.8520012
 136.6740012  78.9894997 -17.6610012 136.2015446  78.6473199 -18.3074020
 141.0760012  78.9864997 -15.8680012 141.2540012  78.3404997 -15.1850012
 141.0230012  79.8204997 -15.4000012 141.0931829  79.0107985 -15.7114060
 142.9550012  93.9354997 -17.4720012 143.8210012  94.3014997 -17.6500012
 142.7080012  93.4954997 -18.2860012 143.0402392  93.9261756 -17.6063711
 135.3110012  77.4934997  -3.0530012 134.9450012  76.7284997  -2.6100012
 136.2240012  77.5224997  -2.7660012 135.3842790  77.3927224  -2.9535930
 137.2840012  76.8444997  -1.5170012 138.1820012  76.5704997  -1.7020012
 136.8970012  76.1014997  -1.0530012 137.3546612  76.7065914  -1.4796357
 135.9080012  93.6454997 -18.8440012 135.6410012  93.9324997 -17.9710012
 136.6800012  93.0994997 -18.6920012 135.9757488  93.6110294 -18.7038950
  12.4390012 104.9914997 -12.6120012  12.5280012 105.9354997 -12.7440012
  11.8010012 104.7164997 -13.2700012  12.3649081 105.0834830 -12.7190386
  11.3720012 104.2464997  -9.1930012  11.3340012 103.6004997  -8.4880012
  11.0500012 103.7804997  -9.9640012  11.3232333 104.0949408  -9.2007022
   3.7410012 103.8614997  -7.6000012   3.7820012 103.2354997  -6.8770012
   4.4440012 104.4854997  -7.4180012   3.8416363 103.8601196  -7.4763956
  15.0780012 107.1854997 -10.8920012  14.6380012 106.4654997 -10.4410012
  15.0650012 107.9064997 -10.2620012  15.0160226 107.1843731 -10.7451506
   4.6640012 108.3114997  -9.0650012   4.2950012 107.5094997  -9.4350012
   5.6050012 108.1424997  -9.0190012   4.7407289 108.1790153  -9.1093684
   1.2740012 101.9714997 -13.6720012   0.8270012 102.8174997 -13.6910012
   0.7130012 101.3914997 -14.1880012   1.1369900 102.0089916 -13.7443199
   1.9850012 104.1334997 -11.5460012   2.1980012 103.3634997 -11.0190012
   2.7230012 104.2224997 -12.1500012   2.1138496 104.0401394 -11.5554700
  12.1900012 112.2904997 -10.6790012  12.8100012 111.6134997 -10.9530012
  11.9820012 112.0724997  -9.7710012  12.2466904 112.1683870 -10.5936635
   9.7620012 106.6794997  -8.7870012  10.0660012 105.9934997  -9.3820012
  10.4830012 106.7974997  -8.1690012   9.9010671 106.6016305  -8.7848184
  18.4250012  98.2804997  -7.9260012  18.4740012  98.8904997  -7.1900012
  18.8500012  98.7414997  -8.6490012  18.4891824  98.4263741  -7.9229795
  12.9030012 101.0734997  -8.4590012  13.0450012 100.1274997  -8.4390012
  12.7960012 101.2804997  -9.3880012  12.9079864 100.9719534  -8.5817661
   6.0570012  99.1744997 -11.1870012   6.1010012 100.0344997 -11.6050012
   5.6000012  98.6224997 -11.8210012   6.0012185  99.2175799 -11.3299701
  13.7800012  99.3054997 -12.7860012  14.4260012  98.9764997 -12.1610012
  14.2900012  99.8234997 -13.4090012  13.9374264  99.3304611 -12.7846138
   2.6780012 101.5714997 -10.4250012   3.3310012 101.0214997  -9.9930012
   2.7020012 101.2974997 -11.3420012   2.7706683 101.4591466 -10.4897877
   7.8340012 103.1214997 -11.2100012   8.4500012 102.5954997 -10.7000012
   7.2480012 102.4814997 -11.6130012   7.8390810 102.9629208 -11.1946827
  18.8160012  99.7584997  -5.6900012  18.1280012 100.4164997  -5.7860012
  18.8320012  99.5614997  -4.7540012  18.7238525  99.8220462  -5.5765192
   4.8680012  98.0924997  -7.1130012   4.6490012  98.6224997  -7.8790012
   4.2000012  98.3194997  -6.4660012   4.7477600  98.1956906  -7.1303621
  12.2370012 107.5924997 -13.5690012  11.9410012 107.2704997 -14.4200012
  11.9120012 108.4924997 -13.5280012  12.1526371 107.6700215 -13.6798199
   7.4370012 105.7684997  -6.8260012   6.6970012 106.3664997  -6.7220012
   8.1510012 106.3224997  -7.1410012   7.4322237 105.9252831  -6.8543535
  15.5440012  98.5964997 -10.8060012  15.3280012  97.8304997 -10.2730012
  16.1990012  99.0684997 -10.2930012  15.6030632  98.5555889 -10.6637139
   4.4610012  99.9844997  -9.1610012   5.0750012 100.6174997  -8.7870012
   4.9730012  99.5124997  -9.8170012   4.6142296 100.0072370  -9.1985748
   5.8440012 107.7324997  -6.0380012   5.8390012 108.6124997  -6.4160012
   4.9910012 107.6494997  -5.6130012   5.7279464 107.8416117  -6.0322093
   1.9650012 107.4034997 -15.2560012   1.6930012 107.6324997 -16.1450012
   2.0110012 108.2414997 -14.7960012   1.9340094 107.5481213 -15.3154303
  15.5900012 109.0254997  -8.5440012  14.6490012 109.0834997  -8.3820012
  15.8670012 109.9314997  -8.6810012  15.4984679 109.1559443  -8.5403185
  15.8910012  97.3114997  -7.1260012  15.1550012  97.9224997  -7.1640012
  16.5740012  97.7264997  -7.6530012  15.8826541  97.4511374  -7.2024168
   8.8940012  95.3984997  -9.6600012   8.7770012  94.4494997  -9.7150012
   8.0390012  95.7304997  -9.3870012   8.7623733  95.3135409  -9.6306103
  13.8420012 110.8064997 -11.9180012  14.2680012 110.0994997 -12.4030012
  14.1590012 111.6074997 -12.3350012  13.9431019 110.8180994 -12.0406870
  15.0020012 108.7074997 -13.4100012  14.7440012 108.0174997 -14.0210012
  15.0730012 108.2644997 -12.5640012  14.9762856 108.5532124 -13.3793115
  16.6880012 107.2734997  -4.9320012  16.8280012 106.6824997  -5.6720012
  16.8550012 108.1464997  -5.2890012  16.7296778 107.3106426  -5.0813035
  11.1610012 104.2354997 -15.1600012  10.4490012 104.7704997 -15.5120012
  11.8520012 104.2914997 -15.8200012  11.1570132 104.3162543 -15.2973711
  11.2140012 102.6934997 -18.1210012  11.9150012 102.7154997 -17.4700012
  11.5170012 102.0654997 -18.7770012  11.3507830 102.6116566 -18.1206289
  18.5300012 103.6134997  -6.8660012  17.8770012 104.3084997  -6.7770012
  18.9950012 103.8234997  -7.6760012  18.5035390 103.7369425  -6.9633117
  14.5660012 104.4454997 -14.2080012  13.8340012 104.6734997 -13.6350012
  15.0140012 103.7314997 -13.7530012  14.5263095 104.3802571 -14.0680881
  14.4640012 102.6194997  -5.1410012  14.5440012 103.3824997  -4.5690012
  13.8620012 102.8984997  -5.8310012  14.3935756 102.7617134  -5.1559411
   6.2120012 105.0754997 -12.3260012   5.8810012 104.7054997 -13.1440012
   6.8000012 104.4054997 -11.9790012   6.2461873 104.9341156 -12.3911898
   7.5780012 108.5034997  -9.6440012   7.4840012 107.9254997 -10.4010012
   8.3080012 108.1324997  -9.1480012   7.6637981 108.3742390  -9.6805835
   6.5780012 103.8444997  -8.6920012   7.1440012 103.9654997  -9.4550012
   6.8970012 104.4814997  -8.0530012   6.6985786 103.9471884  -8.7099960
  12.8870012 109.3474997  -7.9580012  12.6470012 110.0094997  -7.3100012
  12.6890012 108.5134997  -7.5330012  12.8273808 109.3253134  -7.8118476
   7.4580012 108.2434997  -3.9750012   7.1470012 109.0254997  -3.5200012
   6.8080012 108.0904997  -4.6610012   7.3275558 108.3299105  -4.0054129
  13.4370012 103.6074997 -16.5230012  14.0170012 103.7574997 -15.7760012
  13.8510012 104.0784997 -17.2460012  13.5722830 103.6916841 -16.5185866
   4.3780012 104.4414997  -4.7460012   4.4490012 105.0924997  -4.0480012
   3.4880012 104.5444997  -5.0810012   4.2673117 104.5445936  -4.6957300
  11.1640012 110.3444997 -13.0880012  11.6380012 110.6394997 -12.3100012
  10.6010012 111.0824997 -13.3210012  11.1527653 110.4846932 -13.0129864
   5.6980012 110.3154997  -3.2120012   5.7050012 110.1794997  -4.1590012
   4.7820012 110.1974997  -2.9600012   5.5751714 110.2809430  -3.3075334
  17.1360012  95.3574997 -16.7100012  16.2360012  95.4964997 -16.4150012
  17.3880012  96.1884997 -17.1120012  17.0468702  95.4889074 -16.7239795
   5.2020012 104.1454997 -14.7360012   4.9100012 104.9134997 -15.2270012
   4.5280012 103.4854997 -14.8990012   5.0709081 104.1614406 -14.8252660
  18.3250012 109.7234997 -18.3340012  18.3990012 110.6624997 -18.1630012
  19.2310012 109.4184997 -18.3900012  18.4575100 109.8106722 -18.3181881
   1.2950012 106.5084997  -5.9210012   0.7940012 106.4804997  -6.7360012
   1.3000012 105.6024997  -5.6120012   1.2271526 106.3822278  -5.9907128
   1.0450012 109.2884997  -9.0370012   1.9910012 109.1444997  -9.0560012
   0.9330012 110.0724997  -8.5000012   1.1592727 109.3748046  -8.9669928
  19.2430012 109.9544997  -3.3550012  19.1940012 108.9994997  -3.3920012
  18.4160012 110.2224997  -2.9540012  19.1244940 109.8598998  -3.3058625
  10.2220012 109.5284997  -4.4790012  10.3090012 110.3544997  -4.0040012
   9.3580012 109.1984997  -4.2300012  10.1171964 109.5969878  -4.3803451
  10.6360012 113.3004997 -14.6730012  10.5610012 113.1794997 -15.6190012
  10.6690012 114.2504997 -14.5540012  10.6301848 113.4122500 -14.7865166
   4.2890012 112.0894997 -12.8920012   4.4420012 111.7414997 -12.0130012
   3.4390012 111.7334997 -13.1470012   4.1948962 111.9936650 -12.8061660
  13.7380012 112.4544997 -17.6710012  14.1130012 111.7104997 -18.1410012
  13.7420012 112.1844997 -16.7520012  13.7898915 112.3161486 -17.6112176
  13.4070012 112.3804997 -14.9210012  12.4710012 112.4804997 -14.7430012
  13.6870012 111.6714997 -14.3430012  13.3168255 112.2982711 -14.8184609
  16.3950012 101.4474997  -2.8750012  15.9880012 101.9284997  -3.5960012
  16.4360012 100.5424997  -3.1830012  16.3448437 101.3909374  -3.0153317
   3.5440012 107.8314997  -4.8780012   3.7600012 107.4704997  -4.0190012
   2.6890012 107.4574997  -5.0880012   3.4579292 107.7314111  -4.7886614
   6.1630012  96.3014997  -8.8830012   5.3010012  96.2144997  -9.2900012
   6.1400012  97.1574997  -8.4550012   6.0420330  96.4052765  -8.8808137
  10.8260012  96.0234997  -5.5080012  11.2460012  95.6084997  -4.7550012
   9.8930012  95.8454997  -5.3910012  10.7573644  95.9425900  -5.3890461
  14.1520012  99.7794997  -4.6550012  13.6380012  99.6534997  -3.8570012
  13.9970012 100.6914997  -4.8990012  14.0606852  99.8856132  -4.5787842
  14.9150012 104.6404997 -18.8930012  14.9570012 104.4174997 -19.8230012
  15.7640012 105.0394997 -18.7030012  15.0355396 104.6639155 -18.9946373
  10.4870012  98.5164997 -18.2230012  10.2340012  98.5354997 -17.3000012
  10.2310012  97.6444997 -18.5240012  10.4177790  98.4012437 -18.1373737
   6.2540012 101.2674997  -7.7880012   5.6120012 101.2264997  -7.0790012
   6.2910012 102.1934997  -8.0250012   6.1711324 101.3871559  -7.7230176
   6.2510012 101.4884997 -12.8760012   5.3580012 101.1474997 -12.9340012
   6.7010012 101.1114997 -13.6310012   6.1897305 101.3908484 -12.9860823
  11.7860012 101.9044997 -14.0590012  11.3770012 102.7194997 -14.3500012
  12.5070012 101.7644997 -14.6730012  11.8274537 101.9972018 -14.1818658
  10.8880012 102.0794997  -2.5710012  10.3260012 101.3754997  -2.2500012
  11.7150012 101.9594997  -2.1030012  10.9227095 101.9667883  -2.4637670
  12.7910012 101.3504997 -11.2450012  12.5960012 101.9554997 -11.9600012
  12.9720012 100.5164997 -11.6790012  12.7887614 101.3206300 -11.4015595
   4.0040012 101.5874997  -5.9210012   3.9660012 101.9874997  -5.0520012
   3.5130012 100.7704997  -5.8300012   3.9324684 101.5318069  -5.7898941
   7.3700012  98.9614997 -19.1220012   6.9390012  98.5164997 -18.3920012
   6.6520012  99.3334997 -19.6340012   7.2139438  98.9508940 -19.0913201
   0.6120012  98.7034997 -12.0700012   1.2430012  98.6744997 -11.3510012
   1.0610012  98.2784997 -12.8000012   0.7590774  98.6420492 -12.0703447
   1.8860012  99.4494997 -16.6460012   2.3600012 100.0404997 -17.2310012
   1.1690012  99.9804997 -16.2990012   1.8539341  99.6020867 -16.6791164
  12.0550012 102.9884997  -6.5730012  12.3780012 102.3574997  -7.2160012
  11.6150012 102.4534997  -5.9130012  12.0396895 102.8298441  -6.5717150
   8.8320012  98.9154997 -11.7890012   7.9210012  98.9724997 -11.5010012
   9.3380012  98.8554997 -10.9790012   8.7755413  98.9151985 -11.6399378
   3.6610012 100.5444997 -12.9630012   2.7710012 100.6444997 -13.3030012
   3.9570012  99.7024997 -13.3090012   3.5792823 100.4443545 -13.0562787
   7.3140012 100.5444997 -15.3060012   8.2450012 100.6734997 -15.1280012
   7.0990012 101.2144997 -15.9560012   7.4124247 100.6526565 -15.3694253
  13.2370012  98.1504997  -8.5250012  12.5610012  98.2814997  -7.8610012
  12.7520012  97.9954997  -9.3350012  13.0787145  98.1474905  -8.5435483
   5.9880012 101.7394997 -17.7390012   5.4450012 101.3594997 -18.4310012
   6.8210012 101.9334997 -18.1680012   6.0264399 101.7138124 -17.8915474
  16.5250012 113.8224997  -2.2480012  16.7250012 114.2464997  -3.0830012
  17.1800012 114.1654997  -1.6410012  16.6410051 113.9269648  -2.2802164
   4.1230012 106.2964997  -2.6400012   4.8550012 106.5504997  -2.0790012
   3.3430012 106.5004997  -2.1250012   4.1178232 106.3589177  -2.4934240
  10.1520012 101.7034997  -9.9020012  10.7170012 101.1564997 -10.4490012
  10.0050012 101.1814997  -9.1140012  10.2092918 101.5582024  -9.8701546
   5.1540012  97.8394997 -13.4840012   4.8370012  96.9374997 -13.5190012
   5.9360012  97.8414997 -14.0370012   5.2162284  97.7161628 -13.5635217
   8.7790012 100.0914997  -7.4880012   7.9430012 100.5454997  -7.3780012
   9.3030012 100.3674997  -6.7360012   8.7354414 100.1909376  -7.3712864
   9.3230012 106.3044997 -15.8040012   8.5780012 105.7974997 -16.1260012
   9.1890012 106.3534997 -14.8570012   9.2028776 106.2416940 -15.7201353
  16.4730012 105.4374997  -7.0170012  17.1150012 105.8944997  -7.5610012
  15.6430012 105.5504997  -7.4800012  16.4485963 105.5152704  -7.1539823
  13.2210012  99.1184997 -17.6040012  12.2820012  99.2304997 -17.7560012
  13.5180012  99.9754997 -17.2980012  13.1327666  99.2496443 -17.5834232
  10.8420012 106.4884997  -4.5670012  10.4970012 106.1074997  -3.7600012
  10.6420012 107.4224997  -4.4950012  10.7678061 106.5625228  -4.4469039
  13.9390012 100.9854997 -15.9440012  14.8310012 100.8484997 -15.6250012
  13.9960012 101.7764997 -16.4800012  14.0686285 101.0736660 -15.9728310
   4.4480012 105.5994997 -10.0340012   5.1930012 105.5974997 -10.6350012
   4.5260012 104.7764997  -9.5520012   4.5605518 105.4879315 -10.0511071
  11.4490012 107.7634997 -16.7780012  11.1530012 108.5894997 -16.3970012
  10.7460012 107.1434997 -16.5820012  11.3134914 107.7928199 -16.6993557
   1.4560012 104.0604997  -4.7190012   1.6790012 103.6424997  -3.8870012
   0.8540012 103.4474997  -5.1420012   1.4051759 103.9204668  -4.6622978
   8.4720012 103.5774997  -2.5060012   8.1760012 103.4114997  -3.4010012
   9.4040012 103.3574997  -2.5170012   8.5574166 103.5250640  -2.6299464
  13.0930012 108.9504997  -4.6160012  12.1920012 109.1334997  -4.8840012
  13.1270012 109.2094997  -3.6950012  12.9743041 109.0105512  -4.5281803
  18.8240012 101.1954997 -16.2490012  18.2700012 100.7994997 -16.9210012
  18.9240012 102.1054997 -16.5270012  18.7617059 101.2643586 -16.3785599
  18.7870012 106.9954997  -3.4120012  17.9360012 107.2334997  -3.7790012
  19.3780012 106.9784997  -4.1650012  18.7502487 107.0258258  -3.5641107
  17.1190012 109.9814997 -15.7840012  16.7460012 109.1554997 -15.4750012
  17.3970012 109.7984997 -16.6810012  17.1055630 109.8437303 -15.8630374
  14.2800012 104.7894997  -8.7630012  13.3510012 104.5574997  -8.7900012
  14.7310012 104.0124997  -9.0930012  14.2139216 104.6527238  -8.8113083
   6.8230012 109.1174997 -12.6300012   7.3500012 109.8904997 -12.8300012
   5.9430012 109.3424997 -12.9310012   6.7761773 109.2538005 -12.6980990
   2.5780012 103.9794997 -18.0430012   3.1940012 104.6064997 -17.6630012
   1.7160012 104.2954997 -17.7710012   2.5457698 104.1079430 -17.9542817
   8.2500012 106.7804997 -13.0530012   8.0090012 107.7054997 -13.0120012
   7.5090012 106.3214997 -12.6570012   8.1168409 106.8451421 -12.9938623
   8.7650012 110.9294997  -6.7380012   9.1270012 111.7844997  -6.9720012
   9.2960012 110.6374997  -5.9980012   8.8864473 111.0071060  -6.6699145
   6.9330012 111.8024997 -13.5080012   5.9830012 111.9074997 -13.4570012
   7.2850012 112.6224997 -13.1630012   6.8504203 111.9278314 -13.4543350
  12.3090012 107.0284997  -7.0380012  11.8830012 106.8014997  -6.2110012
  12.8890012 106.2904997  -7.2200012  12.3291868 106.8975299  -6.9494170
  14.5120012 107.9574997 -17.9640012  14.8650012 107.5774997 -17.1590012
  13.5630012 107.8644997 -17.8770012  14.4320441 107.8929596 -17.8421441
  14.9670012 111.5804997  -4.5680012  14.3660012 111.0254997  -5.0640012
  15.2490012 112.2474997  -5.1940012  14.9228519 111.5946841  -4.7205048
  19.0150012 112.4374997 -17.7630012  19.7590012 113.0234997 -17.9030012
  18.3210012 113.0054997 -17.4290012  19.0230292 112.5945582 -17.7370039
   3.0900012  98.8134997  -5.1610012   2.1970012  99.1524997  -5.2290012
   2.9910012  97.9584997  -4.7430012   2.9544164  98.7442588  -5.1137765
  15.3780012 106.6304997 -15.7370012  15.1000012 105.9024997 -15.1810012
  16.3050012 106.7494997 -15.5320012  15.4653124 106.5468802 -15.6331155
   2.7410012 110.6184997  -6.7260012   2.9580012 109.6864997  -6.7570012
   2.9870012 110.8924997  -5.8430012   2.8039549 110.5280636  -6.6108237
   8.6030012 109.0694997 -19.5170012   8.8420012 108.3214997 -20.0640012
   8.3340012 108.6814997 -18.6840012   8.5993675 108.9146638 -19.4793135
   7.5400012 108.6394997 -17.0600012   7.6860012 108.1194997 -16.2700012
   7.5370012 109.5464997 -16.7540012   7.5595989 108.6908853 -16.9103912
   3.9930012 105.8924997 -16.5500012   3.3070012 106.2444997 -15.9830012
   4.5150012 106.6554997 -16.7970012   3.9696852 106.0438578 -16.5057882
  11.8240012  98.5544997  -6.2710012  12.5230012  98.6284997  -5.6210012
  11.4430012  97.6904997  -6.1170012  11.8681767  98.4477624  -6.1611678
  12.6090012  98.2064997 -15.1740012  12.8290012  98.6784997 -15.9770012
  13.1670012  98.6014997 -14.5040012  12.7144968  98.3244285 -15.1932669
  10.2770012 110.3374997 -16.3110012   9.4610012 110.8344997 -16.2590012
  10.8070012 110.8124997 -16.9510012  10.2369161 110.4697722 -16.3904044
   9.8090012  99.9344997 -14.3390012  10.6210012 100.4394997 -14.2930012
   9.5640012  99.7894997 -13.4250012   9.8870520  99.9840375 -14.2091483
  10.3440012 100.9204997  -5.1540012  10.4630012 101.4944997  -4.3970012
  11.0000012 100.2324997  -5.0400012  10.4489757 100.9061079  -5.0349175
  10.6920012  97.0154997 -13.4010012  10.3460012  97.6334997 -12.7560012
  11.3510012  97.5164997 -13.8820012  10.7337826  97.1675802 -13.3779029
   7.6160012 111.3814997 -16.3290012   7.7760012 112.1804997 -16.8300012
   7.4180012 111.6874997 -15.4440012   7.6111649 111.5324469 -16.2780185
   6.3500012  98.0784997 -16.7140012   6.2670012  98.9674997 -16.3670012
   7.2400012  97.8134997 -16.4820012   6.4589469  98.1641430 -16.6352374
  16.5490012  98.8274997  -4.3190012  15.6320012  99.0904997  -4.4070012
  16.8840012  98.8244997  -5.2160012  16.4689900  98.8630224  -4.4522081
  15.1510012 102.5784997 -10.2240012  14.3530012 102.1634997 -10.5520012
  15.5960012 101.8874997  -9.7330012  15.1019885 102.4283543 -10.2025111
   4.6090012 108.5064997 -17.6530012   5.2010012 109.2054997 -17.3770012
   5.0680012 108.0734997 -18.3730012   4.7521142 108.5437049 -17.7125170
   2.9250012 101.1704997 -18.5370012   2.8800012 102.1094997 -18.3590012
   2.0370012 100.9344997 -18.8070012   2.7988574 101.2671892 -18.5491088
  16.2370012 111.8344997  -8.6010012  16.0820012 112.5124997  -9.2580012
  17.1700012 111.9064997  -8.3980012  16.3418500 111.9370170  -8.6634881
   3.7330012  95.9524997  -9.8640012   3.5040012  96.0114997 -10.7920012
   3.2900012  95.1604997  -9.5580012   3.6418530  95.8535753  -9.9495214
   2.6630012 109.8924997 -13.7040012   1.8310012 110.3654997 -13.6760012
   3.2090012 110.4024997 -14.3020012   2.6229739 110.0261871 -13.7810284
   1.9510012 112.5054997  -2.3740012   2.4920012 112.2884997  -1.6140012
   1.4700012 111.6994997  -2.5630012   1.9599345 112.3669514  -2.2956924
   6.5490012 111.4244997  -0.7530012   7.3160012 110.9654997  -0.4120012
   6.5270012 111.1984997  -1.6830012   6.6511434 111.3310409  -0.8319957
  10.6410012 110.9324997 -19.3780012   9.9970012 110.3014997 -19.0570012
  11.4030012 110.4014997 -19.6100012  10.6558077 110.7742920 -19.3653989
  13.1260012 109.8044997  -2.0240012  12.7750012 108.9484997  -1.7810012
  13.8520012 109.9474997  -1.4170012  13.1760769 109.7065636  -1.9086381
  15.2450012 110.7494997 -19.1440012  15.5280012 109.9554997 -18.6920012
  15.9850012 110.9824997 -19.7050012  15.3837486 110.6722803 -19.1579302
   1.8580012 106.3154997  -1.4190012   2.0020012 105.4134997  -1.7060012
   1.0860012 106.6014997  -1.9070012   1.7733322 106.2308261  -1.5242119
   6.2000012 106.6594997 -19.2870012   6.2640012 105.8654997 -18.7560012
   6.8530012 106.5404997 -19.9770012   6.2970241 106.5347148 -19.3075683
   8.5140012 106.2854997  -1.9870012   8.1850012 106.5564997  -2.8440012
   8.6660012 105.3444997  -2.0740012   8.4894809 106.1953862  -2.1161756
  14.2480012 106.2014997  -4.6030012  14.9940012 106.7894997  -4.7230012
  13.4910012 106.7834997  -4.5400012  14.2477554 106.3607011  -4.6109093
   2.6910012 103.5154997  -1.9990012   3.0990012 102.6584997  -2.1200012
   2.4310012 103.5304997  -1.0780012   2.7117568 103.4000807  -1.8910412
   7.3490012 104.6314997 -16.9810012   6.8890012 104.1474997 -16.2950012
   7.6040012 103.9634997 -17.6170012   7.3204902 104.4748731 -16.9730666
   6.6380012 102.5244997  -4.6250012   6.0200012 103.1994997  -4.3450012
   6.9820012 102.8454997  -5.4580012   6.5999615 102.6602721  -4.6993419
   8.4200012 102.8744997 -18.7190012   8.2400012 102.7204997 -19.6460012
   9.3700012 102.9824997 -18.6740012   8.5237776 102.8680175 -18.8398157
  11.6580012 104.9964997  -1.3480012  12.6110012 105.0794997  -1.3750012
  11.4970012 104.2844997  -0.7280012  11.7666426 104.9116746  -1.2679421
  17.8100012 105.2294997 -19.2730012  17.5360012 104.8044997 -20.0860012
  17.8490012 106.1604997 -19.4900012  17.7777699 105.2972484 -19.4136390
   6.9770012  99.8794997  -3.5430012   7.1270012  99.1504997  -4.1450012
   6.9800012 100.6564997  -4.1020012   6.9979302  99.8847851  -3.7009308
   7.3900012  98.2494997  -6.0500012   7.9260012  98.7004997  -6.7020012
   6.5380012  98.1414997  -6.4730012   7.3482178  98.2966390  -6.1964244
   8.9720012 103.6884997  -5.8110012   9.7220012 103.5324997  -6.3840012
   8.6330012 104.5404997  -6.0860012   9.0288921 103.7822968  -5.9266439
  13.3870012 101.5034997  -0.7820012  13.5800012 100.5724997  -0.8940012
  14.2450012 101.9284997  -0.7920012  13.5293020 101.4336389  -0.7986639
  14.7040012 104.2924997  -2.7050012  14.4230012 105.0014997  -3.2820012
  15.6470012 104.2194997  -2.8560012  14.7929027 104.3797646  -2.8044449
   5.4560012 101.0774997  -1.6310012   4.6890012 100.5454997  -1.8410012
   6.1350012 100.7674997  -2.2310012   5.4427022 100.9627506  -1.7408352
   8.1960012  95.7054997  -5.6190012   8.0970012  96.6524997  -5.7240012
   7.4530012  95.3334997  -6.0940012   8.0820564  95.7845902  -5.6975440
   9.4600012 100.0274997  -2.0550012   9.2240012  99.8074997  -1.1530012
   8.6760012  99.8204997  -2.5650012   9.3218628  99.9694760  -2.0006068
  12.1750012  99.1544997  -2.9790012  11.2280012  99.1864997  -2.8470012
  12.4880012  98.5294997  -2.3260012  12.0875475  99.0743207  -2.8725545
  13.8090012  97.7884997  -0.9740012  13.7130012  96.8364997  -0.9800012
  13.4880012  98.0574997  -0.1140012  13.7524070  97.6944035  -0.8584559
   3.6360012  98.9984997  -1.9270012   3.8480012  98.2914997  -2.5370012
   3.5250012  98.5604997  -1.0830012   3.6499721  98.8427084  -1.8963157
   8.4170012  94.9994997  -2.9470012   9.1290012  94.3594997  -2.9610012
   8.3160012  95.2664997  -3.8610012   8.5007939  94.9479938  -3.0724350
   8.7710012  96.6824997  -0.8940012   8.6390012  96.2064997  -1.7140012
   8.1720012  97.4264997  -0.9490012   8.6719071  96.7179618  -1.0137114
   8.3170012 113.5654997 -17.7170012   9.2500012 113.7234997 -17.5740012
   8.0530012 114.2404997 -18.3420012   8.4089510 113.6783611 -17.7819259
   1.8860012 108.2014997 -18.2350012   2.8000012 108.2804997 -17.9610012
   1.8930012 107.5144997 -18.9010012   2.0121131 108.1193961 -18.2875607
   0.5350012 113.5944997 -13.1570012  -0.1119988 113.1324997 -13.6900012
   0.8890012 112.9224997 -12.5750012   0.4943849 113.4404723 -13.1512041
   1.4050012 111.6754997 -11.3530012   1.0700012 110.7954997 -11.1810012
   1.6270012 112.0204997 -10.4880012   1.3891783 111.6017500 -11.2125792
  18.9530012 112.4844997  -8.3720012  18.9320012 112.6694997  -7.4330012
  19.6440012 113.0534997  -8.7130012  19.0434618 112.5866606  -8.2896136
  18.5170012 112.0524997  -5.4500012  18.0290012 111.3164997  -5.8210012
  19.0660012 111.6584997  -4.7720012  18.5244872 111.8986249  -5.4090840
  16.9670012 107.8414997  -0.8120012  16.1010012 107.7364997  -0.4180012
  17.3440012 108.6004997  -0.3660012  16.8993308 107.9296900  -0.6977607
  18.2680012 106.0984997 -15.2980012  19.1180012 106.5194997 -15.1710012
  18.2740012 105.3584997 -14.6910012  18.3851372 106.0560803 -15.1985656
  18.6630012 104.1514997 -13.4740012  17.9360012 103.6724997 -13.0770012
  19.2440012 104.3574997 -12.7420012  18.6419375 104.1137090 -13.3205871
  18.4220012 106.9364997  -8.5270012  19.2550012 106.5584997  -8.8070012
  18.5340012 107.8794997  -8.6460012  18.5512647 107.0122218  -8.5814513
  16.9080012 109.8144997  -6.2200012  16.2610012 110.1394997  -5.5940012
  16.3910012 109.3744997  -6.8940012  16.7494029 109.7995004  -6.2254173
  18.9310012 104.0524997 -17.0830012  18.4090012 104.4094997 -17.8020012
  18.8980012 104.7274997 -16.4050012  18.8551634 104.1925413 -17.0896855
  17.2800012 101.2924997 -18.5320012  17.3760012 101.9594997 -19.2130012
  17.1400012 100.4764997 -19.0140012  17.2742135 101.2734500 -18.6901509
  16.4490012 102.6724997 -12.9110012  16.2990012 101.7274997 -12.9320012
  16.0960012 102.9534997 -12.0680012  16.3806625 102.5810441 -12.7997654
   1.4850012 104.7504997  -8.9010012   1.6690012 104.6684997  -9.8370012
   2.3340012 104.6264997  -8.4770012   1.6250139 104.7225003  -8.9718545
  17.3060012 104.6424997  -3.2730012  17.8890012 103.9084997  -3.0810012
  17.8700012 105.4144997  -3.2260012  17.4619769 104.6464227  -3.2403841
  18.8020012 102.5454997  -2.5880012  17.9390012 102.1664997  -2.7540012
  19.4070012 101.8064997  -2.6620012  18.7655979 102.3938023  -2.6207183
  16.5270012  98.7004997 -19.4150012  17.1380012  98.3294997 -18.7780012
  15.6910012  98.2794997 -19.2190012  16.4975032  98.5927554 -19.3012965
  16.1600012 100.2554997 -14.4490012  16.4400012  99.3484997 -14.3250012
  16.9190012 100.6894997 -14.8380012  16.3009277 100.1900942 -14.4846318
  16.7720012 100.8364997  -9.0130012  17.7050012 101.0484997  -9.0470012
  16.5370012 100.9384997  -8.0910012  16.8678036 100.8792769  -8.8930024
  16.8010012 101.5734997  -6.2370012  15.9580012 101.8414997  -5.8710012
  17.2430012 102.3954997  -6.4480012  16.7454158 101.7213291  -6.2154509
   1.0820012 100.0214997  -2.7600012   2.0020012  99.8994997  -2.5240012
   0.6330012  99.2714997  -2.3710012   1.1471580  99.9033727  -2.6750994
  19.0840012  95.5534997  -0.8840012  19.4340012  94.8994997  -1.4890012
  19.2310012  96.3904997  -1.3230012  19.1518419  95.5771591  -1.0262882
  16.7730012  97.5184997 -14.4010012  16.9560012  97.0694997 -13.5750012
  16.1740012  96.9334997 -14.8640012  16.7170202  97.3779975 -14.3506725
   2.3030012  98.3334997  -9.8690012   2.7490012  97.5414997  -9.5670012
   2.7700012  99.0494997  -9.4380012   2.4270172  98.3220624  -9.7695180
   0.6070012 101.3324997  -8.8000012   1.0990012 101.1114997  -9.5910012
   0.9700012 102.1734997  -8.5190012   0.7233126 101.4158357  -8.8702469
  18.6040012  97.6624997  -2.5340012  17.6860012  97.9334997  -2.5700012
  18.7270012  97.1274997  -3.3190012  18.4951066  97.6272892  -2.6449513
  18.6400012  97.5854997 -17.8730012  19.0520012  96.8644997 -18.3480012
  19.3220012  98.2554997 -17.8140012  18.7885885  97.5772368 -17.9301085
   0.9210012  97.5904997 -14.7460012  -0.0039988  97.7994997 -14.8750012
   1.3750012  98.0744997 -15.4350012   0.8557368  97.6845993 -14.8568774
  15.6920012 112.5744997 -12.8000012  16.3440012 112.2274997 -13.4080012
  16.2020012 113.0634997 -12.1540012  15.8502637 112.5930597 -12.7959764
   0.8850012  96.3284997  -6.4010012   0.2200012  96.0824997  -5.7580012
   0.4420012  96.9504997  -6.9790012   0.7340956  96.3788632  -6.3910648
   3.0770012 109.5034997  -2.2570012   2.2560012 109.6784997  -2.7170012
   2.8240012 109.4304997  -1.3360012   2.9306164 109.5175622  -2.1955077
   6.0310012 110.4784997  -5.9980012   5.6060012 111.2874997  -6.2810012
   6.9350012 110.5634997  -6.3000012   6.0950271 110.6008469  -6.0776224
  10.3420012 111.8774997  -3.0390012  10.5270012 111.5434997  -2.1610012
  11.1880012 112.1864997  -3.3610012  10.4817539 111.8736047  -2.9624395
  12.6870012 113.1634997  -3.7950012  13.3640012 112.5304997  -4.0350012
  13.0090012 113.5644997  -2.9880012  12.8231637 113.1311154  -3.7187207
  17.6040012  95.7524997  -4.7150012  16.7920012  96.0774997  -5.1030012
  17.8370012  94.9924997  -5.2480012  17.5243423  95.6942436  -4.8401747
   3.4330012 113.7344997  -5.9510012   2.7120012 114.1744997  -6.4020012
   3.0670012 113.4834997  -5.1020012   3.2849804 113.7607698  -5.8980160
   5.9000012 113.3344997  -6.9210012   5.0350012 113.4064997  -6.5170012
   5.8450012 113.8814997  -7.7050012   5.7742085 113.4182685  -6.9716638
  10.6100012 113.2224997  -7.7460012  10.1540012 113.7514997  -8.4000012
  10.7730012 113.8254997  -7.0200012  10.5695585 113.3764468  -7.7374938
  12.9380012 112.1004997  -6.8010012  12.0330012 112.2654997  -7.0660012
  13.3670012 112.9534997  -6.8660012  12.8720799 112.2384483  -6.8460818
  15.5420012 113.6704997  -6.5060012  15.3600012 114.5864997  -6.7160012
  15.7190012 113.2604997  -7.3520012  15.5410210 113.7404822  -6.6492115
   2.8470012 112.3574997  -9.0410012   2.8290012 111.9324997  -8.1830012
   3.6520012 112.0394997  -9.4490012   2.9533875 112.2563812  -8.9788345
   4.9890012 111.0674997 -10.3860012   4.7700012 110.1514997 -10.2160012
   5.8130012 111.2074997  -9.9200012   5.0704420 110.9610520 -10.2997226
   7.5260012 111.5374997  -9.5370012   7.7390012 110.6494997  -9.8240012
   7.5900012 111.5034997  -8.5830012   7.5638232 111.4113102  -9.4472603
  11.0340012  97.2014997 -10.3930012  10.3600012  96.5724997 -10.1370012
  11.5980012  96.7174997 -10.9960012  11.0179230  97.0498744 -10.4394660
  16.1770012  95.3094997 -10.2800012  16.7810012  95.8564997 -10.7820012
  15.3070012  95.6284997 -10.5200012  16.1421241  95.4275806 -10.3812346
  17.9040012  96.4474997 -11.9470012  18.5160012  95.9334997 -12.4730012
  18.2860012  97.3254997 -11.9230012  18.0394540  96.4957140 -12.0158170
   3.3610012  95.8354997 -12.5710012   2.5840012  95.6014997 -13.0780012
   3.8910012  95.0384997 -12.5620012   3.3262330  95.6956988 -12.6392258
   2.1970012  95.6334997 -16.7670012   2.6360012  96.2444997 -17.3590012
   1.5640012  96.1714997 -16.2930012   2.1714514  95.7899257 -16.7839070
   7.9400012  95.7624997 -12.7570012   8.8150012  96.1504997 -12.7870012
   7.8040012  95.5474997 -11.8350012   8.0413695  95.7865184 -12.6363560
  13.4970012  95.7924997 -11.1080012  13.5730012  95.8874997 -12.0580012
  13.2220012  94.8844997 -10.9790012  13.4702321  95.6827867 -11.2204921
  14.8500012  95.8184997 -15.4160012  14.1480012  96.4334997 -15.6250012
  14.4060012  94.9804997 -15.2850012  14.6936330  95.7895783 -15.4269672
   2.0980012 111.5814997 -15.8690012   1.4130012 111.5434997 -16.5370012
   2.1020012 112.4944997 -15.5810012   2.0048193 111.6997016 -15.9214716
   4.0580012  97.5494997 -18.3250012   4.5500012  96.9194997 -18.8520012
   4.6820012  97.8454997 -17.6610012   4.2095446  97.5033199 -18.3074020
   9.0840012  97.8424997 -15.8680012   9.2620012  97.1964997 -15.1850012
   9.0310012  98.6764997 -15.4000012   9.1011829  97.8667985 -15.7114060
  10.9630012 112.7914997 -17.4720012  11.8290012 113.1574997 -17.6500012
  10.7160012 112.3514997 -18.2860012  11.0482392 112.7821756 -17.6063711
  17.6720012 112.3544997 -14.7930012  17.4770012 111.6064997 -15.3580012
  17.6330012 113.1124997 -15.3760012  17.6400380 112.3546099 -14.9491616
   3.3190012  96.3494997  -3.0530012   2.9530012  95.5844997  -2.6100012
   4.2320012  96.3784997  -2.7660012   3.3922790  96.2487224  -2.9535930
   5.2920012  95.7004997  -1.5170012   6.1900012  95.4264997  -1.7020012
   4.9050012  94.9574997  -1.0530012   5.3626612  95.5625914  -1.4796357
   3.9160012 112.5014997 -18.8440012   3.6490012 112.7884997 -17.9710012
   4.6880012 111.9554997 -18.6920012   3.9837488 112.4670294 -18.7038950
  13.7130012  95.0324997  -1.3350012  13.7900012  94.6064997  -0.4810012
  14.6070012  95.0464997  -1.6780012  13.8443428  94.9760879  -1.2644690
  16.8890012 111.1054997  -2.6430012  16.1070012 110.9194997  -3.1620012
  16.8170012 112.0344997  -2.4250012  16.7721777 111.2056492  -2.6845952
  31.2950012 104.9914997 -12.6120012  31.3840012 105.9354997 -12.7440012
  30.6570012 104.7164997 -13.2700012  31.2209081 105.0834830 -12.7190386
  30.2280012 104.2464997  -9.1930012  30.1900012 103.6004997  -8.4880012
  29.9060012 103.7804997  -9.9640012  30.1792333 104.0949408  -9.2007022
  22.5970012 103.8614997  -7.6000012  22.6380012 103.2354997  -6.8770012
  23.3000012 104.4854997  -7.4180012  22.6976363 103.8601196  -7.4763956
  33.9340012 107.1854997 -10.8920012  33.4940012 106.4654997 -10.4410012
  33.9210012 107.9064997 -10.2620012  33.8720226 107.1843731 -10.7451506
  23.5200012 108.3114997  -9.0650012  23.1510012 107.5094997  -9.4350012
  24.4610012 108.1424997  -9.0190012  23.5967289 108.1790153  -9.1093684
  20.1300012 101.9714997 -13.6720012  19.6830012 102.8174997 -13.6910012
  19.5690012 101.3914997 -14.1880012  19.9929900 102.0089916 -13.7443199
  20.8410012 104.1334997 -11.5460012  21.0540012 103.3634997 -11.0190012
  21.5790012 104.2224997 -12.1500012  20.9698496 104.0401394 -11.5554700
  31.0460012 112.2904997 -10.6790012  31.6660012 111.6134997 -10.9530012
  30.8380012 112.0724997  -9.7710012  31.1026904 112.1683870 -10.5936635
  28.6180012 106.6794997  -8.7870012  28.9220012 105.9934997  -9.3820012
  29.3390012 106.7974997  -8.1690012  28.7570671 106.6016305  -8.7848184
  37.2810012  98.2804997  -7.9260012  37.3300012  98.8904997  -7.1900012
  37.7060012  98.7414997  -8.6490012  37.3451824  98.4263741  -7.9229795
  31.7590012 101.0734997  -8.4590012  31.9010012 100.1274997  -8.4390012
  31.6520012 101.2804997  -9.3880012  31.7639864 100.9719534  -8.5817661
  24.9130012  99.1744997 -11.1870012  24.9570012 100.0344997 -11.6050012
  24.4560012  98.6224997 -11.8210012  24.8572185  99.2175799 -11.3299701
  32.6360012  99.3054997 -12.7860012  33.2820012  98.9764997 -12.1610012
  33.1460012  99.8234997 -13.4090012  32.7934264  99.3304611 -12.7846138
  21.5340012 101.5714997 -10.4250012  22.1870012 101.0214997  -9.9930012
  21.5580012 101.2974997 -11.3420012  21.6266683 101.4591466 -10.4897877
  26.6900012 103.1214997 -11.2100012  27.3060012 102.5954997 -10.7000012
  26.1040012 102.4814997 -11.6130012  26.6950810 102.9629208 -11.1946827
  37.6720012  99.7584997  -5.6900012  36.9840012 100.4164997  -5.7860012
  37.6880012  99.5614997  -4.7540012  37.5798525  99.8220462  -5.5765192
  23.7240012  98.0924997  -7.1130012  23.5050012  98.6224997  -7.8790012
  23.0560012  98.3194997  -6.4660012  23.6037600  98.1956906  -7.1303621
  31.0930012 107.5924997 -13.5690012  30.7970012 107.2704997 -14.4200012
  30.7680012 108.4924997 -13.5280012  31.0086371 107.6700215 -13.6798199
  26.2930012 105.7684997  -6.8260012  25.5530012 106.3664997  -6.7220012
  27.0070012 106.3224997  -7.1410012  26.2882237 105.9252831  -6.8543535
  34.4000012  98.5964997 -10.8060012  34.1840012  97.8304997 -10.2730012
  35.0550012  99.0684997 -10.2930012  34.4590632  98.5555889 -10.6637139
  23.3170012  99.9844997  -9.1610012  23.9310012 100.6174997  -8.7870012
  23.8290012  99.5124997  -9.8170012  23.4702296 100.0072370  -9.1985748
  24.7000012 107.7324997  -6.0380012  24.6950012 108.6124997  -6.4160012
  23.8470012 107.6494997  -5.6130012  24.5839464 107.8416117  -6.0322093
  20.8210012 107.4034997 -15.2560012  20.5490012 107.6324997 -16.1450012
  20.8670012 108.2414997 -14.7960012  20.7900094 107.5481213 -15.3154303
  34.4460012 109.0254997  -8.5440012  33.5050012 109.0834997  -8.3820012
  34.7230012 109.9314997  -8.6810012  34.3544679 109.1559443  -8.5403185
  34.7470012  97.3114997  -7.1260012  34.0110012  97.9224997  -7.1640012
  35.4300012  97.7264997  -7.6530012  34.7386541  97.4511374  -7.2024168
  27.7500012  95.3984997  -9.6600012  27.6330012  94.4494997  -9.7150012
  26.8950012  95.7304997  -9.3870012  27.6183733  95.3135409  -9.6306103
  32.6980012 110.8064997 -11.9180012  33.1240012 110.0994997 -12.4030012
  33.0150012 111.6074997 -12.3350012  32.7991019 110.8180994 -12.0406870
  33.8580012 108.7074997 -13.4100012  33.6000012 108.0174997 -14.0210012
  33.9290012 108.2644997 -12.5640012  33.8322856 108.5532124 -13.3793115
  35.5440012 107.2734997  -4.9320012  35.6840012 106.6824997  -5.6720012
  35.7110012 108.1464997  -5.2890012  35.5856778 107.3106426  -5.0813035
  30.0170012 104.2354997 -15.1600012  29.3050012 104.7704997 -15.5120012
  30.7080012 104.2914997 -15.8200012  30.0130132 104.3162543 -15.2973711
  30.0700012 102.6934997 -18.1210012  30.7710012 102.7154997 -17.4700012
  30.3730012 102.0654997 -18.7770012  30.2067830 102.6116566 -18.1206289
  37.3860012 103.6134997  -6.8660012  36.7330012 104.3084997  -6.7770012
  37.8510012 103.8234997  -7.6760012  37.3595390 103.7369425  -6.9633117
  33.4220012 104.4454997 -14.2080012  32.6900012 104.6734997 -13.6350012
  33.8700012 103.7314997 -13.7530012  33.3823095 104.3802571 -14.0680881
  33.3200012 102.6194997  -5.1410012  33.4000012 103.3824997  -4.5690012
  32.7180012 102.8984997  -5.8310012  33.2495756 102.7617134  -5.1559411
  25.0680012 105.0754997 -12.3260012  24.7370012 104.7054997 -13.1440012
  25.6560012 104.4054997 -11.9790012  25.1021873 104.9341156 -12.3911898
  26.4340012 108.5034997  -9.6440012  26.3400012 107.9254997 -10.4010012
  27.1640012 108.1324997  -9.1480012  26.5197981 108.3742390  -9.6805835
  25.4340012 103.8444997  -8.6920012  26.0000012 103.9654997  -9.4550012
  25.7530012 104.4814997  -8.0530012  25.5545786 103.9471884  -8.7099960
  31.7430012 109.3474997  -7.9580012  31.5030012 110.0094997  -7.3100012
  31.5450012 108.5134997  -7.5330012  31.6833808 109.3253134  -7.8118476
  26.3140012 108.2434997  -3.9750012  26.0030012 109.0254997  -3.5200012
  25.6640012 108.0904997  -4.6610012  26.1835558 108.3299105  -4.0054129
  32.2930012 103.6074997 -16.5230012  32.8730012 103.7574997 -15.7760012
  32.7070012 104.0784997 -17.2460012  32.4282830 103.6916841 -16.5185866
  23.2340012 104.4414997  -4.7460012  23.3050012 105.0924997  -4.0480012
  22.3440012 104.5444997  -5.0810012  23.1233117 104.5445936  -4.6957300
  30.0200012 110.3444997 -13.0880012  30.4940012 110.6394997 -12.3100012
  29.4570012 111.0824997 -13.3210012  30.0087653 110.4846932 -13.0129864
  24.5540012 110.3154997  -3.2120012  24.5610012 110.1794997  -4.1590012
  23.6380012 110.1974997  -2.9600012  24.4311714 110.2809430  -3.3075334
  35.9920012  95.3574997 -16.7100012  35.0920012  95.4964997 -16.4150012
  36.2440012  96.1884997 -17.1120012  35.9028702  95.4889074 -16.7239795
  24.0580012 104.1454997 -14.7360012  23.7660012 104.9134997 -15.2270012
  23.3840012 103.4854997 -14.8990012  23.9269081 104.1614406 -14.8252660
  37.1810012 109.7234997 -18.3340012  37.2550012 110.6624997 -18.1630012
  38.0870012 109.4184997 -18.3900012  37.3135100 109.8106722 -18.3181881
  20.1510012 106.5084997  -5.9210012  19.6500012 106.4804997  -6.7360012
  20.1560012 105.6024997  -5.6120012  20.0831526 106.3822278  -5.9907128
  19.9010012 109.2884997  -9.0370012  20.8470012 109.1444997  -9.0560012
  19.7890012 110.0724997  -8.5000012  20.0152727 109.3748046  -8.9669928
  38.0990012 109.9544997  -3.3550012  38.0500012 108.9994997  -3.3920012
  37.2720012 110.2224997  -2.9540012  37.9804940 109.8598998  -3.3058625
  29.0780012 109.5284997  -4.4790012  29.1650012 110.3544997  -4.0040012
  28.2140012 109.1984997  -4.2300012  28.9731964 109.5969878  -4.3803451
  29.4920012 113.3004997 -14.6730012  29.4170012 113.1794997 -15.6190012
  29.5250012 114.2504997 -14.5540012  29.4861848 113.4122500 -14.7865166
  23.1450012 112.0894997 -12.8920012  23.2980012 111.7414997 -12.0130012
  22.2950012 111.7334997 -13.1470012  23.0508962 111.9936650 -12.8061660
  32.5940012 112.4544997 -17.6710012  32.9690012 111.7104997 -18.1410012
  32.5980012 112.1844997 -16.7520012  32.6458915 112.3161486 -17.6112176
  32.2630012 112.3804997 -14.9210012  31.3270012 112.4804997 -14.7430012
  32.5430012 111.6714997 -14.3430012  32.1728255 112.2982711 -14.8184609
  35.2510012 101.4474997  -2.8750012  34.8440012 101.9284997  -3.5960012
  35.2920012 100.5424997  -3.1830012  35.2008437 101.3909374  -3.0153317
  22.4000012 107.8314997  -4.8780012  22.6160012 107.4704997  -4.0190012
  21.5450012 107.4574997  -5.0880012  22.3139292 107.7314111  -4.7886614
  25.0190012  96.3014997  -8.8830012  24.1570012  96.2144997  -9.2900012
  24.9960012  97.1574997  -8.4550012  24.8980330  96.4052765  -8.8808137
  29.6820012  96.0234997  -5.5080012  30.1020012  95.6084997  -4.7550012
  28.7490012  95.8454997  -5.3910012  29.6133644  95.9425900  -5.3890461
  33.0080012  99.7794997  -4.6550012  32.4940012  99.6534997  -3.8570012
  32.8530012 100.6914997  -4.8990012  32.9166852  99.8856132  -4.5787842
  33.7710012 104.6404997 -18.8930012  33.8130012 104.4174997 -19.8230012
  34.6200012 105.0394997 -18.7030012  33.8915396 104.6639155 -18.9946373
  29.3430012  98.5164997 -18.2230012  29.0900012  98.5354997 -17.3000012
  29.0870012  97.6444997 -18.5240012  29.2737790  98.4012437 -18.1373737
  25.1100012 101.2674997  -7.7880012  24.4680012 101.2264997  -7.0790012
  25.1470012 102.1934997  -8.0250012  25.0271324 101.3871559  -7.7230176
  25.1070012 101.4884997 -12.8760012  24.2140012 101.1474997 -12.9340012
  25.5570012 101.1114997 -13.6310012  25.0457305 101.3908484 -12.9860823
  30.6420012 101.9044997 -14.0590012  30.2330012 102.7194997 -14.3500012
  31.3630012 101.7644997 -14.6730012  30.6834537 101.9972018 -14.1818658
  29.7440012 102.0794997  -2.5710012  29.1820012 101.3754997  -2.2500012
  30.5710012 101.9594997  -2.1030012  29.7787095 101.9667883  -2.4637670
  31.6470012 101.3504997 -11.2450012  31.4520012 101.9554997 -11.9600012
  31.8280012 100.5164997 -11.6790012  31.6447614 101.3206300 -11.4015595
  22.8600012 101.5874997  -5.9210012  22.8220012 101.9874997  -5.0520012
  22.3690012 100.7704997  -5.8300012  22.7884684 101.5318069  -5.7898941
  26.2260012  98.9614997 -19.1220012  25.7950012  98.5164997 -18.3920012
  25.5080012  99.3334997 -19.6340012  26.0699438  98.9508940 -19.0913201
  19.4680012  98.7034997 -12.0700012  20.0990012  98.6744997 -11.3510012
  19.9170012  98.2784997 -12.8000012  19.6150774  98.6420492 -12.0703447
  20.7420012  99.4494997 -16.6460012  21.2160012 100.0404997 -17.2310012
  20.0250012  99.9804997 -16.2990012  20.7099341  99.6020867 -16.6791164
  30.9110012 102.9884997  -6.5730012  31.2340012 102.3574997  -7.2160012
  30.4710012 102.4534997  -5.9130012  30.8956895 102.8298441  -6.5717150
  27.6880012  98.9154997 -11.7890012  26.7770012  98.9724997 -11.5010012
  28.1940012  98.8554997 -10.9790012  27.6315413  98.9151985 -11.6399378
  22.5170012 100.5444997 -12.9630012  21.6270012 100.6444997 -13.3030012
  22.8130012  99.7024997 -13.3090012  22.4352823 100.4443546 -13.0562787
  26.1700012 100.5444997 -15.3060012  27.1010012 100.6734997 -15.1280012
  25.9550012 101.2144997 -15.9560012  26.2684247 100.6526565 -15.3694253
  32.0930012  98.1504997  -8.5250012  31.4170012  98.2814997  -7.8610012
  31.6080012  97.9954997  -9.3350012  31.9347145  98.1474905  -8.5435483
  24.8440012 101.7394997 -17.7390012  24.3010012 101.3594997 -18.4310012
  25.6770012 101.9334997 -18.1680012  24.8824399 101.7138124 -17.8915474
  35.3810012 113.8224997  -2.2480012  35.5810012 114.2464997  -3.0830012
  36.0360012 114.1654997  -1.6410012  35.4970051 113.9269648  -2.2802164
  22.9790012 106.2964997  -2.6400012  23.7110012 106.5504997  -2.0790012
  22.1990012 106.5004997  -2.1250012  22.9738232 106.3589177  -2.4934240
  29.0080012 101.7034997  -9.9020012  29.5730012 101.1564997 -10.4490012
  28.8610012 101.1814997  -9.1140012  29.0652918 101.5582024  -9.8701546
  24.0100012  97.8394997 -13.4840012  23.6930012  96.9374997 -13.5190012
  24.7920012  97.8414997 -14.0370012  24.0722284  97.7161628 -13.5635217
  27.6350012 100.0914997  -7.4880012  26.7990012 100.5454997  -7.3780012
  28.1590012 100.3674997  -6.7360012  27.5914414 100.1909376  -7.3712864
  28.1790012 106.3044997 -15.8040012  27.4340012 105.7974997 -16.1260012
  28.0450012 106.3534997 -14.8570012  28.0588776 106.2416940 -15.7201353
  35.3290012 105.4374997  -7.0170012  35.9710012 105.8944997  -7.5610012
  34.4990012 105.5504997  -7.4800012  35.3045963 105.5152704  -7.1539823
  32.0770012  99.1184997 -17.6040012  31.1380012  99.2304997 -17.7560012
  32.3740012  99.9754997 -17.2980012  31.9887666  99.2496443 -17.5834232
  29.6980012 106.4884997  -4.5670012  29.3530012 106.1074997  -3.7600012
  29.4980012 107.4224997  -4.4950012  29.6238061 106.5625228  -4.4469039
  32.7950012 100.9854997 -15.9440012  33.6870012 100.8484997 -15.6250012
  32.8520012 101.7764997 -16.4800012  32.9246285 101.0736660 -15.9728310
  23.3040012 105.5994997 -10.0340012  24.0490012 105.5974997 -10.6350012
  23.3820012 104.7764997  -9.5520012  23.4165518 105.4879315 -10.0511071
  30.3050012 107.7634997 -16.7780012  30.0090012 108.5894997 -16.3970012
  29.6020012 107.1434997 -16.5820012  30.1694914 107.7928199 -16.6993557
  20.3120012 104.0604997  -4.7190012  20.5350012 103.6424997  -3.8870012
  19.7100012 103.4474997  -5.1420012  20.2611759 103.9204668  -4.6622978
  27.3280012 103.5774997  -2.5060012  27.0320012 103.4114997  -3.4010012
  28.2600012 103.3574997  -2.5170012  27.4134166 103.5250640  -2.6299464
  31.9490012 108.9504997  -4.6160012  31.0480012 109.1334997  -4.8840012
  31.9830012 109.2094997  -3.6950012  31.8303041 109.0105512  -4.5281803
  37.6800012 101.1954997 -16.2490012  37.1260012 100.7994997 -16.9210012
  37.7800012 102.1054997 -16.5270012  37.6177059 101.2643586 -16.3785599
  37.6430012 106.9954997  -3.4120012  36.7920012 107.2334997  -3.7790012
  38.2340012 106.9784997  -4.1650012  37.6062487 107.0258258  -3.5641107
  35.9750012 109.9814997 -15.7840012  35.6020012 109.1554997 -15.4750012
  36.2530012 109.7984997 -16.6810012  35.9615630 109.8437303 -15.8630374
  33.1360012 104.7894997  -8.7630012  32.2070012 104.5574997  -8.7900012
  33.5870012 104.0124997  -9.0930012  33.0699216 104.6527238  -8.8113083
  25.6790012 109.1174997 -12.6300012  26.2060012 109.8904997 -12.8300012
  24.7990012 109.3424997 -12.9310012  25.6321773 109.2538005 -12.6980990
  21.4340012 103.9794997 -18.0430012  22.0500012 104.6064997 -17.6630012
  20.5720012 104.2954997 -17.7710012  21.4017698 104.1079430 -17.9542817
  27.1060012 106.7804997 -13.0530012  26.8650012 107.7054997 -13.0120012
  26.3650012 106.3214997 -12.6570012  26.9728409 106.8451421 -12.9938623
  27.6210012 110.9294997  -6.7380012  27.9830012 111.7844997  -6.9720012
  28.1520012 110.6374997  -5.9980012  27.7424473 111.0071060  -6.6699145
  25.7890012 111.8024997 -13.5080012  24.8390012 111.9074997 -13.4570012
  26.1410012 112.6224997 -13.1630012  25.7064203 111.9278314 -13.4543350
  31.1650012 107.0284997  -7.0380012  30.7390012 106.8014997  -6.2110012
  31.7450012 106.2904997  -7.2200012  31.1851868 106.8975299  -6.9494170
  33.3680012 107.9574997 -17.9640012  33.7210012 107.5774997 -17.1590012
  32.4190012 107.8644997 -17.8770012  33.2880441 107.8929596 -17.8421441
  33.8230012 111.5804997  -4.5680012  33.2220012 111.0254997  -5.0640012
  34.1050012 112.2474997  -5.1940012  33.7788519 111.5946841  -4.7205048
  37.8710012 112.4374997 -17.7630012  38.6150012 113.0234997 -17.9030012
  37.1770012 113.0054997 -17.4290012  37.8790292 112.5945582 -17.7370039
  21.9460012  98.8134997  -5.1610012  21.0530012  99.1524997  -5.2290012
  21.8470012  97.9584997  -4.7430012  21.8104164  98.7442588  -5.1137765
  34.2340012 106.6304997 -15.7370012  33.9560012 105.9024997 -15.1810012
  35.1610012 106.7494997 -15.5320012  34.3213124 106.5468802 -15.6331155
  21.5970012 110.6184997  -6.7260012  21.8140012 109.6864997  -6.7570012
  21.8430012 110.8924997  -5.8430012  21.6599549 110.5280636  -6.6108237
  27.4590012 109.0694997 -19.5170012  27.6980012 108.3214997 -20.0640012
  27.1900012 108.6814997 -18.6840012  27.4553675 108.9146638 -19.4793135
  26.3960012 108.6394997 -17.0600012  26.5420012 108.1194997 -16.2700012
  26.3930012 109.5464997 -16.7540012  26.4155989 108.6908853 -16.9103912
  22.8490012 105.8924997 -16.5500012  22.1630012 106.2444997 -15.9830012
  23.3710012 106.6554997 -16.7970012  22.8256852 106.0438578 -16.5057882
  30.6800012  98.5544997  -6.2710012  31.3790012  98.6284997  -5.6210012
  30.2990012  97.6904997  -6.1170012  30.7241767  98.4477624  -6.1611678
  31.4650012  98.2064997 -15.1740012  31.6850012  98.6784997 -15.9770012
  32.0230012  98.6014997 -14.5040012  31.5704968  98.3244285 -15.1932669
  29.1330012 110.3374997 -16.3110012  28.3170012 110.8344997 -16.2590012
  29.6630012 110.8124997 -16.9510012  29.0929161 110.4697722 -16.3904044
  28.6650012  99.9344997 -14.3390012  29.4770012 100.4394997 -14.2930012
  28.4200012  99.7894997 -13.4250012  28.7430520  99.9840375 -14.2091483
  29.2000012 100.9204997  -5.1540012  29.3190012 101.4944997  -4.3970012
  29.8560012 100.2324997  -5.0400012  29.3049757 100.9061079  -5.0349175
  29.5480012  97.0154997 -13.4010012  29.2020012  97.6334997 -12.7560012
  30.2070012  97.5164997 -13.8820012  29.5897826  97.1675802 -13.3779029
  26.4720012 111.3814997 -16.3290012  26.6320012 112.1804997 -16.8300012
  26.2740012 111.6874997 -15.4440012  26.4671649 111.5324469 -16.2780185
  25.2060012  98.0784997 -16.7140012  25.1230012  98.9674997 -16.3670012
  26.0960012  97.8134997 -16.4820012  25.3149469  98.1641430 -16.6352374
  35.4050012  98.8274997  -4.3190012  34.4880012  99.0904997  -4.4070012
  35.7400012  98.8244997  -5.2160012  35.3249900  98.8630224  -4.4522081
  34.0070012 102.5784997 -10.2240012  33.2090012 102.1634997 -10.5520012
  34.4520012 101.8874997  -9.7330012  33.9579885 102.4283543 -10.2025111
  23.4650012 108.5064997 -17.6530012  24.0570012 109.2054997 -17.3770012
  23.9240012 108.0734997 -18.3730012  23.6081142 108.5437049 -17.7125170
  21.7810012 101.1704997 -18.5370012  21.7360012 102.1094997 -18.3590012
  20.8930012 100.9344997 -18.8070012  21.6548574 101.2671892 -18.5491088
  35.0930012 111.8344997  -8.6010012  34.9380012 112.5124997  -9.2580012
  36.0260012 111.9064997  -8.3980012  35.1978500 111.9370170  -8.6634881
  22.5890012  95.9524997  -9.8640012  22.3600012  96.0114997 -10.7920012
  22.1460012  95.1604997  -9.5580012  22.4978530  95.8535753  -9.9495214
  21.5190012 109.8924997 -13.7040012  20.6870012 110.3654997 -13.6760012
  22.0650012 110.4024997 -14.3020012  21.4789739 110.0261871 -13.7810284
  20.8070012 112.5054997  -2.3740012  21.3480012 112.2884997  -1.6140012
  20.3260012 111.6994997  -2.5630012  20.8159345 112.3669514  -2.2956924
  25.4050012 111.4244997  -0.7530012  26.1720012 110.9654997  -0.4120012
  25.3830012 111.1984997  -1.6830012  25.5071434 111.3310409  -0.8319957
  29.4970012 110.9324997 -19.3780012  28.8530012 110.3014997 -19.0570012
  30.2590012 110.4014997 -19.6100012  29.5118077 110.7742920 -19.3653989
  31.9820012 109.8044997  -2.0240012  31.6310012 108.9484997  -1.7810012
  32.7080012 109.9474997  -1.4170012  32.0320769 109.7065636  -1.9086381
  34.1010012 110.7494997 -19.1440012  34.3840012 109.9554997 -18.6920012
  34.8410012 110.9824997 -19.7050012  34.2397486 110.6722803 -19.1579302
  20.7140012 106.3154997  -1.4190012  20.8580012 105.4134997  -1.7060012
  19.9420012 106.6014997  -1.9070012  20.6293322 106.2308261  -1.5242119
  25.0560012 106.6594997 -19.2870012  25.1200012 105.8654997 -18.7560012
  25.7090012 106.5404997 -19.9770012  25.1530241 106.5347148 -19.3075683
  27.3700012 106.2854997  -1.9870012  27.0410012 106.5564997  -2.8440012
  27.5220012 105.3444997  -2.0740012  27.3454809 106.1953862  -2.1161756
  33.1040012 106.2014997  -4.6030012  33.8500012 106.7894997  -4.7230012
  32.3470012 106.7834997  -4.5400012  33.1037554 106.3607011  -4.6109093
  21.5470012 103.5154997  -1.9990012  21.9550012 102.6584997  -2.1200012
  21.2870012 103.5304997  -1.0780012  21.5677568 103.4000807  -1.8910412
  26.2050012 104.6314997 -16.9810012  25.7450012 104.1474997 -16.2950012
  26.4600012 103.9634997 -17.6170012  26.1764902 104.4748731 -16.9730666
  25.4940012 102.5244997  -4.6250012  24.8760012 103.1994997  -4.3450012
  25.8380012 102.8454997  -5.4580012  25.4559615 102.6602721  -4.6993419
  27.2760012 102.8744997 -18.7190012  27.0960012 102.7204997 -19.6460012
  28.2260012 102.9824997 -18.6740012  27.3797776 102.8680175 -18.8398157
  30.5140012 104.9964997  -1.3480012  31.4670012 105.0794997  -1.3750012
  30.3530012 104.2844997  -0.7280012  30.6226426 104.9116746  -1.2679422
  36.6660012 105.2294997 -19.2730012  36.3920012 104.8044997 -20.0860012
  36.7050012 106.1604997 -19.4900012  36.6337699 105.2972484 -19.4136390
  25.8330012  99.8794997  -3.5430012  25.9830012  99.1504997  -4.1450012
  25.8360012 100.6564997  -4.1020012  25.8539302  99.8847851  -3.7009308
  26.2460012  98.2494997  -6.0500012  26.7820012  98.7004997  -6.7020012
  25.3940012  98.1414997  -6.4730012  26.2042178  98.2966390  -6.1964244
  27.8280012 103.6884997  -5.8110012  28.5780012 103.5324997  -6.3840012
  27.4890012 104.5404997  -6.0860012  27.8848921 103.7822968  -5.9266439
  32.2430012 101.5034997  -0.7820012  32.4360012 100.5724997  -0.8940012
  33.1010012 101.9284997  -0.7920012  32.3853020 101.4336389  -0.7986639
  33.5600012 104.2924997  -2.7050012  33.2790012 105.0014997  -3.2820012
  34.5030012 104.2194997  -2.8560012  33.6489027 104.3797646  -2.8044449
  24.3120012 101.0774997  -1.6310012  23.5450012 100.5454997  -1.8410012
  24.9910012 100.7674997  -2.2310012  24.2987022 100.9627506  -1.7408352
  27.0520012  95.7054997  -5.6190012  26.9530012  96.6524997  -5.7240012
  26.3090012  95.3334997  -6.0940012  26.9380564  95.7845902  -5.6975440
  28.3160012 100.0274997  -2.0550012  28.0800012  99.8074997  -1.1530012
  27.5320012  99.8204997  -2.5650012  28.1778628  99.9694760  -2.0006068
  31.0310012  99.1544997  -2.9790012  30.0840012  99.1864997  -2.8470012
  31.3440012  98.5294997  -2.3260012  30.9435475  99.0743207  -2.8725545
  32.6650012  97.7884997  -0.9740012  32.5690012  96.8364997  -0.9800012
  32.3440012  98.0574997  -0.1140012  32.6084070  97.6944035  -0.8584559
  22.4920012  98.9984997  -1.9270012  22.7040012  98.2914997  -2.5370012
  22.3810012  98.5604997  -1.0830012  22.5059721  98.8427084  -1.8963157
  27.2730012  94.9994997  -2.9470012  27.9850012  94.3594997  -2.9610012
  27.1720012  95.2664997  -3.8610012  27.3567939  94.9479938  -3.0724350
  27.6270012  96.6824997  -0.8940012  27.4950012  96.2064997  -1.7140012
  27.0280012  97.4264997  -0.9490012  27.5279071  96.7179618  -1.0137114
  27.1730012 113.5654997 -17.7170012  28.1060012 113.7234997 -17.5740012
  26.9090012 114.2404997 -18.3420012  27.2649510 113.6783611 -17.7819259
  20.7420012 108.2014997 -18.2350012  21.6560012 108.2804997 -17.9610012
  20.7490012 107.5144997 -18.9010012  20.8681131 108.1193961 -18.2875607
  19.3910012 113.5944997 -13.1570012  18.7440012 113.1324997 -13.6900012
  19.7450012 112.9224997 -12.5750012  19.3503849 113.4404723 -13.1512041
  20.2610012 111.6754997 -11.3530012  19.9260012 110.7954997 -11.1810012
  20.4830012 112.0204997 -10.4880012  20.2451783 111.6017500 -11.2125792
  37.8090012 112.4844997  -8.3720012  37.7880012 112.6694997  -7.4330012
  38.5000012 113.0534997  -8.7130012  37.8994618 112.5866606  -8.2896136
  37.3730012 112.0524997  -5.4500012  36.8850012 111.3164997  -5.8210012
  37.9220012 111.6584997  -4.7720012  37.3804872 111.8986249  -5.4090840
  35.8230012 107.8414997  -0.8120012  34.9570012 107.7364997  -0.4180012
  36.2000012 108.6004997  -0.3660012  35.7553308 107.9296900  -0.6977607
  37.1240012 106.0984997 -15.2980012  37.9740012 106.5194997 -15.1710012
  37.1300012 105.3584997 -14.6910012  37.2411372 106.0560803 -15.1985656
  37.5190012 104.1514997 -13.4740012  36.7920012 103.6724997 -13.0770012
  38.1000012 104.3574997 -12.7420012  37.4979375 104.1137090 -13.3205871
  37.2780012 106.9364997  -8.5270012  38.1110012 106.5584997  -8.8070012
  37.3900012 107.8794997  -8.6460012  37.4072647 107.0122218  -8.5814513
  35.7640012 109.8144997  -6.2200012  35.1170012 110.1394997  -5.5940012
  35.2470012 109.3744997  -6.8940012  35.6054029 109.7995004  -6.2254173
  37.7870012 104.0524997 -17.0830012  37.2650012 104.4094997 -17.8020012
  37.7540012 104.7274997 -16.4050012  37.7111634 104.1925413 -17.0896855
  36.1360012 101.2924997 -18.5320012  36.2320012 101.9594997 -19.2130012
  35.9960012 100.4764997 -19.0140012  36.1302135 101.2734500 -18.6901509
  35.3050012 102.6724997 -12.9110012  35.1550012 101.7274997 -12.9320012
  34.9520012 102.9534997 -12.0680012  35.2366625 102.5810441 -12.7997654
  20.3410012 104.7504997  -8.9010012  20.5250012 104.6684997  -9.8370012
  21.1900012 104.6264997  -8.4770012  20.4810139 104.7225003  -8.9718545
  36.1620012 104.6424997  -3.2730012  36.7450012 103.9084997  -3.0810012
  36.7260012 105.4144997  -3.2260012  36.3179769 104.6464227  -3.2403841
  37.6580012 102.5454997  -2.5880012  36.7950012 102.1664997  -2.7540012
  38.2630012 101.8064997  -2.6620012  37.6215979 102.3938023  -2.6207183
  35.3830012  98.7004997 -19.4150012  35.9940012  98.3294997 -18.7780012
  34.5470012  98.2794997 -19.2190012  35.3535032  98.5927554 -19.3012965
  35.0160012 100.2554997 -14.4490012  35.2960012  99.3484997 -14.3250012
  35.7750012 100.6894997 -14.8380012  35.1569277 100.1900942 -14.4846318
  35.6280012 100.8364997  -9.0130012  36.5610012 101.0484997  -9.0470012
  35.3930012 100.9384997  -8.0910012  35.7238036 100.8792769  -8.8930024
  35.6570012 101.5734997  -6.2370012  34.8140012 101.8414997  -5.8710012
  36.0990012 102.3954997  -6.4480012  35.6014158 101.7213291  -6.2154509
  19.9380012 100.0214997  -2.7600012  20.8580012  99.8994997  -2.5240012
  19.4890012  99.2714997  -2.3710012  20.0031580  99.9033727  -2.6750994
  37.9400012  95.5534997  -0.8840012  38.2900012  94.8994997  -1.4890012
  38.0870012  96.3904997  -1.3230012  38.0078419  95.5771591  -1.0262882
  35.6290012  97.5184997 -14.4010012  35.8120012  97.0694997 -13.5750012
  35.0300012  96.9334997 -14.8640012  35.5730202  97.3779975 -14.3506725
  21.1590012  98.3334997  -9.8690012  21.6050012  97.5414997  -9.5670012
  21.6260012  99.0494997  -9.4380012  21.2830172  98.3220624  -9.7695180
  19.4630012 101.3324997  -8.8000012  19.9550012 101.1114997  -9.5910012
  19.8260012 102.1734997  -8.5190012  19.5793126 101.4158357  -8.8702469
  37.4600012  97.6624997  -2.5340012  36.5420012  97.9334997  -2.5700012
  37.5830012  97.1274997  -3.3190012  37.3511066  97.6272892  -2.6449513
  37.4960012  97.5854997 -17.8730012  37.9080012  96.8644997 -18.3480012
  38.1780012  98.2554997 -17.8140012  37.6445885  97.5772368 -17.9301085
  19.7770012  97.5904997 -14.7460012  18.8520012  97.7994997 -14.8750012
  20.2310012  98.0744997 -15.4350012  19.7117368  97.6845993 -14.8568774
  34.5480012 112.5744997 -12.8000012  35.2000012 112.2274997 -13.4080012
  35.0580012 113.0634997 -12.1540012  34.7062637 112.5930597 -12.7959764
  19.7410012  96.3284997  -6.4010012  19.0760012  96.0824997  -5.7580012
  19.2980012  96.9504997  -6.9790012  19.5900956  96.3788632  -6.3910648
  21.9330012 109.5034997  -2.2570012  21.1120012 109.6784997  -2.7170012
  21.6800012 109.4304997  -1.3360012  21.7866164 109.5175622  -2.1955077
  24.8870012 110.4784997  -5.9980012  24.4620012 111.2874997  -6.2810012
  25.7910012 110.5634997  -6.3000012  24.9510271 110.6008469  -6.0776224
  29.1980012 111.8774997  -3.0390012  29.3830012 111.5434997  -2.1610012
  30.0440012 112.1864997  -3.3610012  29.3377539 111.8736047  -2.9624395
  31.5430012 113.1634997  -3.7950012  32.2200012 112.5304997  -4.0350012
  31.8650012 113.5644997  -2.9880012  31.6791637 113.1311154  -3.7187207
  36.4600012  95.7524997  -4.7150012  35.6480012  96.0774997  -5.1030012
  36.6930012  94.9924997  -5.2480012  36.3803423  95.6942436  -4.8401747
  22.2890012 113.7344997  -5.9510012  21.5680012 114.1744997  -6.4020012
  21.9230012 113.4834997  -5.1020012  22.1409804 113.7607698  -5.8980160
  24.7560012 113.3344997  -6.9210012  23.8910012 113.4064997  -6.5170012
  24.7010012 113.8814997  -7.7050012  24.6302085 113.4182685  -6.9716638
  29.4660012 113.2224997  -7.7460012  29.0100012 113.7514997  -8.4000012
  29.6290012 113.8254997  -7.0200012  29.4255585 113.3764468  -7.7374938
  31.7940012 112.1004997  -6.8010012  30.8890012 112.2654997  -7.0660012
  32.2230012 112.9534997  -6.8660012  31.7280799 112.2384483  -6.8460818
  34.3980012 113.6704997  -6.5060012  34.2160012 114.5864997  -6.7160012
  34.5750012 113.2604997  -7.3520012  34.3970210 113.7404822  -6.6492115
  21.7030012 112.3574997  -9.0410012  21.6850012 111.9324997  -8.1830012
  22.5080012 112.0394997  -9.4490012  21.8093875 112.2563812  -8.9788345
  23.8450012 111.0674997 -10.3860012  23.6260012 110.1514997 -10.2160012
  24.6690012 111.2074997  -9.9200012  23.9264420 110.9610520 -10.2997226
  26.3820012 111.5374997  -9.5370012  26.5950012 110.6494997  -9.8240012
  26.4460012 111.5034997  -8.5830012  26.4198232 111.4113102  -9.4472603
  29.8900012  97.2014997 -10.3930012  29.2160012  96.5724997 -10.1370012
  30.4540012  96.7174997 -10.9960012  29.8739230  97.0498744 -10.4394660
  35.0330012  95.3094997 -10.2800012  35.6370012  95.8564997 -10.7820012
  34.1630012  95.6284997 -10.5200012  34.9981241  95.4275806 -10.3812346
  36.7600012  96.4474997 -11.9470012  37.3720012  95.9334997 -12.4730012
  37.1420012  97.3254997 -11.9230012  36.8954540  96.4957140 -12.0158170
  22.2170012  95.8354997 -12.5710012  21.4400012  95.6014997 -13.0780012
  22.7470012  95.0384997 -12.5620012  22.1822330  95.6956988 -12.6392258
  21.0530012  95.6334997 -16.7670012  21.4920012  96.2444997 -17.3590012
  20.4200012  96.1714997 -16.2930012  21.0274514  95.7899257 -16.7839070
  26.7960012  95.7624997 -12.7570012  27.6710012  96.1504997 -12.7870012
  26.6600012  95.5474997 -11.8350012  26.8973695  95.7865184 -12.6363560
  32.3530012  95.7924997 -11.1080012  32.4290012  95.8874997 -12.0580012
  32.0780012  94.8844997 -10.9790012  32.3262321  95.6827867 -11.2204921
  33.7060012  95.8184997 -15.4160012  33.0040012  96.4334997 -15.6250012
  33.2620012  94.9804997 -15.2850012  33.5496330  95.7895783 -15.4269672
  20.9540012 111.5814997 -15.8690012  20.2690012 111.5434997 -16.5370012
  20.9580012 112.4944997 -15.5810012  20.8608193 111.6997016 -15.9214716
  22.9140012  97.5494997 -18.3250012  23.4060012  96.9194997 -18.8520012
  23.5380012  97.8454997 -17.6610012  23.0655446  97.5033199 -18.3074020
  27.9400012  97.8424997 -15.8680012  28.1180012  97.1964997 -15.1850012
  27.8870012  98.6764997 -15.4000012  27.9571829  97.8667985 -15.7114060
  29.8190012 112.7914997 -17.4720012  30.6850012 113.1574997 -17.6500012
  29.5720012 112.3514997 -18.2860012  29.9042392 112.7821756 -17.6063711
  36.5280012 112.3544997 -14.7930012  36.3330012 111.6064997 -15.3580012
  36.4890012 113.1124997 -15.3760012  36.4960380 112.3546099 -14.9491616
  22.1750012  96.3494997  -3.0530012  21.8090012  95.5844997  -2.6100012
  23.0880012  96.3784997  -2.7660012  22.2482790  96.2487224  -2.9535930
  24.1480012  95.7004997  -1.5170012  25.0460012  95.4264997  -1.7020012
  23.7610012  94.9574997  -1.0530012  24.2186612  95.5625914  -1.4796357
  22.7720012 112.5014997 -18.8440012  22.5050012 112.7884997 -17.9710012
  23.5440012 111.9554997 -18.6920012  22.8397488 112.4670294 -18.7038950
  32.5690012  95.0324997  -1.3350012  32.6460012  94.6064997  -0.4810012
  33.4630012  95.0464997  -1.6780012  32.7003428  94.9760879  -1.2644690
  35.7450012 111.1054997  -2.6430012  34.9630012 110.9194997  -3.1620012
  35.6730012 112.0344997  -2.4250012  35.6281777 111.2056492  -2.6845952
  50.1510012 104.9914997 -12.6120012  50.2400012 105.9354997 -12.7440012
  49.5130012 104.7164997 -13.2700012  50.0769081 105.0834830 -12.7190386
  49.0840012 104.2464997  -9.1930012  49.0460012 103.6004997  -8.4880012
  48.7620012 103.7804997  -9.9640012  49.0352333 104.0949408  -9.2007022
  41.4530012 103.8614997  -7.6000012  41.4940012 103.2354997  -6.8770012
  42.1560012 104.4854997  -7.4180012  41.5536363 103.8601196  -7.4763956
  52.7900012 107.1854997 -10.8920012  52.3500012 106.4654997 -10.4410012
  52.7770012 107.9064997 -10.2620012  52.7280226 107.1843731 -10.7451506
  42.3760012 108.3114997  -9.0650012  42.0070012 107.5094997  -9.4350012
  43.3170012 108.1424997  -9.0190012  42.4527289 108.1790153  -9.1093684
  38.9860012 101.9714997 -13.6720012  38.5390012 102.8174997 -13.6910012
  38.4250012 101.3914997 -14.1880012  38.8489900 102.0089916 -13.7443199
  39.6970012 104.1334997 -11.5460012  39.9100012 103.3634997 -11.0190012
  40.4350012 104.2224997 -12.1500012  39.8258496 104.0401394 -11.5554700
  49.9020012 112.2904997 -10.6790012  50.5220012 111.6134997 -10.9530012
  49.6940012 112.0724997  -9.7710012  49.9586904 112.1683870 -10.5936635
  47.4740012 106.6794997  -8.7870012  47.7780012 105.9934997  -9.3820012
  48.1950012 106.7974997  -8.1690012  47.6130671 106.6016305  -8.7848184
  56.1370012  98.2804997  -7.9260012  56.1860012  98.8904997  -7.1900012
  56.5620012  98.7414997  -8.6490012  56.2011824  98.4263741  -7.9229795
  50.6150012 101.0734997  -8.4590012  50.7570012 100.1274997  -8.4390012
  50.5080012 101.2804997  -9.3880012  50.6199864 100.9719534  -8.5817661
  43.7690012  99.1744997 -11.1870012  43.8130012 100.0344997 -11.6050012
  43.3120012  98.6224997 -11.8210012  43.7132185  99.2175799 -11.3299701
  51.4920012  99.3054997 -12.7860012  52.1380012  98.9764997 -12.1610012
  52.0020012  99.8234997 -13.4090012  51.6494264  99.3304611 -12.7846138
  40.3900012 101.5714997 -10.4250012  41.0430012 101.0214997  -9.9930012
  40.4140012 101.2974997 -11.3420012  40.4826683 101.4591466 -10.4897877
  45.5460012 103.1214997 -11.2100012  46.1620012 102.5954997 -10.7000012
  44.9600012 102.4814997 -11.6130012  45.5510810 102.9629208 -11.1946827
  56.5280012  99.7584997  -5.6900012  55.8400012 100.4164997  -5.7860012
  56.5440012  99.5614997  -4.7540012  56.4358525  99.8220462  -5.5765192
  42.5800012  98.0924997  -7.1130012  42.3610012  98.6224997  -7.8790012
  41.9120012  98.3194997  -6.4660012  42.4597600  98.1956906  -7.1303621
  49.9490012 107.5924997 -13.5690012  49.6530012 107.2704997 -14.4200012
  49.6240012 108.4924997 -13.5280012  49.8646371 107.6700215 -13.6798199
  45.1490012 105.7684997  -6.8260012  44.4090012 106.3664997  -6.7220012
  45.8630012 106.3224997  -7.1410012  45.1442237 105.9252831  -6.8543535
  53.2560012  98.5964997 -10.8060012  53.0400012  97.8304997 -10.2730012
  53.9110012  99.0684997 -10.2930012  53.3150632  98.5555889 -10.6637139
  42.1730012  99.9844997  -9.1610012  42.7870012 100.6174997  -8.7870012
  42.6850012  99.5124997  -9.8170012  42.3262296 100.0072370  -9.1985748
  43.5560012 107.7324997  -6.0380012  43.5510012 108.6124997  -6.4160012
  42.7030012 107.6494997  -5.6130012  43.4399464 107.8416117  -6.0322093
  39.6770012 107.4034997 -15.2560012  39.4050012 107.6324997 -16.1450012
  39.7230012 108.2414997 -14.7960012  39.6460094 107.5481213 -15.3154303
  53.3020012 109.0254997  -8.5440012  52.3610012 109.0834997  -8.3820012
  53.5790012 109.9314997  -8.6810012  53.2104679 109.1559443  -8.5403185
  53.6030012  97.3114997  -7.1260012  52.8670012  97.9224997  -7.1640012
  54.2860012  97.7264997  -7.6530012  53.5946541  97.4511374  -7.2024168
  46.6060012  95.3984997  -9.6600012  46.4890012  94.4494997  -9.7150012
  45.7510012  95.7304997  -9.3870012  46.4743733  95.3135409  -9.6306103
  51.5540012 110.8064997 -11.9180012  51.9800012 110.0994997 -12.4030012
  51.8710012 111.6074997 -12.3350012  51.6551019 110.8180994 -12.0406870
  52.7140012 108.7074997 -13.4100012  52.4560012 108.0174997 -14.0210012
  52.7850012 108.2644997 -12.5640012  52.6882856 108.5532124 -13.3793115
  54.4000012 107.2734997  -4.9320012  54.5400012 106.6824997  -5.6720012
  54.5670012 108.1464997  -5.2890012  54.4416778 107.3106426  -5.0813035
  48.8730012 104.2354997 -15.1600012  48.1610012 104.7704997 -15.5120012
  49.5640012 104.2914997 -15.8200012  48.8690132 104.3162543 -15.2973711
  48.9260012 102.6934997 -18.1210012  49.6270012 102.7154997 -17.4700012
  49.2290012 102.0654997 -18.7770012  49.0627830 102.6116566 -18.1206289
  56.2420012 103.6134997  -6.8660012  55.5890012 104.3084997  -6.7770012
  56.7070012 103.8234997  -7.6760012  56.2155390 103.7369425  -6.9633117
  52.2780012 104.4454997 -14.2080012  51.5460012 104.6734997 -13.6350012
  52.7260012 103.7314997 -13.7530012  52.2383095 104.3802571 -14.0680881
  52.1760012 102.6194997  -5.1410012  52.2560012 103.3824997  -4.5690012
  51.5740012 102.8984997  -5.8310012  52.1055756 102.7617134  -5.1559411
  43.9240012 105.0754997 -12.3260012  43.5930012 104.7054997 -13.1440012
  44.5120012 104.4054997 -11.9790012  43.9581873 104.9341156 -12.3911898
  45.2900012 108.5034997  -9.6440012  45.1960012 107.9254997 -10.4010012
  46.0200012 108.1324997  -9.1480012  45.3757981 108.3742390  -9.6805835
  44.2900012 103.8444997  -8.6920012  44.8560012 103.9654997  -9.4550012
  44.6090012 104.4814997  -8.0530012  44.4105786 103.9471884  -8.7099960
  50.5990012 109.3474997  -7.9580012  50.3590012 110.0094997  -7.3100012
  50.4010012 108.5134997  -7.5330012  50.5393808 109.3253134  -7.8118476
  45.1700012 108.2434997  -3.9750012  44.8590012 109.0254997  -3.5200012
  44.5200012 108.0904997  -4.6610012  45.0395558 108.3299105  -4.0054129
  51.1490012 103.6074997 -16.5230012  51.7290012 103.7574997 -15.7760012
  51.5630012 104.0784997 -17.2460012  51.2842830 103.6916841 -16.5185866
  42.0900012 104.4414997  -4.7460012  42.1610012 105.0924997  -4.0480012
  41.2000012 104.5444997  -5.0810012  41.9793117 104.5445936  -4.6957300
  48.8760012 110.3444997 -13.0880012  49.3500012 110.6394997 -12.3100012
  48.3130012 111.0824997 -13.3210012  48.8647653 110.4846932 -13.0129864
  43.4100012 110.3154997  -3.2120012  43.4170012 110.1794997  -4.1590012
  42.4940012 110.1974997  -2.9600012  43.2871714 110.2809430  -3.3075334
  54.8480012  95.3574997 -16.7100012  53.9480012  95.4964997 -16.4150012
  55.1000012  96.1884997 -17.1120012  54.7588702  95.4889074 -16.7239795
  42.9140012 104.1454997 -14.7360012  42.6220012 104.9134997 -15.2270012
  42.2400012 103.4854997 -14.8990012  42.7829081 104.1614406 -14.8252660
  56.0370012 109.7234997 -18.3340012  56.1110012 110.6624997 -18.1630012
  56.9430012 109.4184997 -18.3900012  56.1695100 109.8106722 -18.3181881
  39.0070012 106.5084997  -5.9210012  38.5060012 106.4804997  -6.7360012
  39.0120012 105.6024997  -5.6120012  38.9391526 106.3822278  -5.9907128
  38.7570012 109.2884997  -9.0370012  39.7030012 109.1444997  -9.0560012
  38.6450012 110.0724997  -8.5000012  38.8712727 109.3748046  -8.9669928
  56.9550012 109.9544997  -3.3550012  56.9060012 108.9994997  -3.3920012
  56.1280012 110.2224997  -2.9540012  56.8364940 109.8598998  -3.3058625
  47.9340012 109.5284997  -4.4790012  48.0210012 110.3544997  -4.0040012
  47.0700012 109.1984997  -4.2300012  47.8291964 109.5969878  -4.3803451
  48.3480012 113.3004997 -14.6730012  48.2730012 113.1794997 -15.6190012
  48.3810012 114.2504997 -14.5540012  48.3421848 113.4122500 -14.7865166
  42.0010012 112.0894997 -12.8920012  42.1540012 111.7414997 -12.0130012
  41.1510012 111.7334997 -13.1470012  41.9068962 111.9936650 -12.8061660
  51.4500012 112.4544997 -17.6710012  51.8250012 111.7104997 -18.1410012
  51.4540012 112.1844997 -16.7520012  51.5018915 112.3161486 -17.6112176
  51.1190012 112.3804997 -14.9210012  50.1830012 112.4804997 -14.7430012
  51.3990012 111.6714997 -14.3430012  51.0288255 112.2982711 -14.8184609
  54.1070012 101.4474997  -2.8750012  53.7000012 101.9284997  -3.5960012
  54.1480012 100.5424997  -3.1830012  54.0568437 101.3909374  -3.0153317
  41.2560012 107.8314997  -4.8780012  41.4720012 107.4704997  -4.0190012
  40.4010012 107.4574997  -5.0880012  41.1699292 107.7314111  -4.7886614
  43.8750012  96.3014997  -8.8830012  43.0130012  96.2144997  -9.2900012
  43.8520012  97.1574997  -8.4550012  43.7540330  96.4052765  -8.8808137
  48.5380012  96.0234997  -5.5080012  48.9580012  95.6084997  -4.7550012
  47.6050012  95.8454997  -5.3910012  48.4693644  95.9425900  -5.3890461
  51.8640012  99.7794997  -4.6550012  51.3500012  99.6534997  -3.8570012
  51.7090012 100.6914997  -4.8990012  51.7726852  99.8856132  -4.5787842
  52.6270012 104.6404997 -18.8930012  52.6690012 104.4174997 -19.8230012
  53.4760012 105.0394997 -18.7030012  52.7475396 104.6639155 -18.9946373
  48.1990012  98.5164997 -18.2230012  47.9460012  98.5354997 -17.3000012
  47.9430012  97.6444997 -18.5240012  48.1297790  98.4012437 -18.1373737
  43.9660012 101.2674997  -7.7880012  43.3240012 101.2264997  -7.0790012
  44.0030012 102.1934997  -8.0250012  43.8831324 101.3871559  -7.7230176
  43.9630012 101.4884997 -12.8760012  43.0700012 101.1474997 -12.9340012
  44.4130012 101.1114997 -13.6310012  43.9017305 101.3908484 -12.9860823
  49.4980012 101.9044997 -14.0590012  49.0890012 102.7194997 -14.3500012
  50.2190012 101.7644997 -14.6730012  49.5394537 101.9972018 -14.1818658
  48.6000012 102.0794997  -2.5710012  48.0380012 101.3754997  -2.2500012
  49.4270012 101.9594997  -2.1030012  48.6347095 101.9667883  -2.4637670
  50.5030012 101.3504997 -11.2450012  50.3080012 101.9554997 -11.9600012
  50.6840012 100.5164997 -11.6790012  50.5007614 101.3206300 -11.4015595
  41.7160012 101.5874997  -5.9210012  41.6780012 101.9874997  -5.0520012
  41.2250012 100.7704997  -5.8300012  41.6444684 101.5318069  -5.7898941
  45.0820012  98.9614997 -19.1220012  44.6510012  98.5164997 -18.3920012
  44.3640012  99.3334997 -19.6340012  44.9259438  98.9508940 -19.0913201
  38.3240012  98.7034997 -12.0700012  38.9550012  98.6744997 -11.3510012
  38.7730012  98.2784997 -12.8000012  38.4710774  98.6420492 -12.0703447
  39.5980012  99.4494997 -16.6460012  40.0720012 100.0404997 -17.2310012
  38.8810012  99.9804997 -16.2990012  39.5659341  99.6020867 -16.6791164
  49.7670012 102.9884997  -6.5730012  50.0900012 102.3574997  -7.2160012
  49.3270012 102.4534997  -5.9130012  49.7516895 102.8298441  -6.5717150
  46.5440012  98.9154997 -11.7890012  45.6330012  98.9724997 -11.5010012
  47.0500012  98.8554997 -10.9790012  46.4875413  98.9151985 -11.6399378
  41.3730012 100.5444997 -12.9630012  40.4830012 100.6444997 -13.3030012
  41.6690012  99.7024997 -13.3090012  41.2912823 100.4443546 -13.0562787
  45.0260012 100.5444997 -15.3060012  45.9570012 100.6734997 -15.1280012
  44.8110012 101.2144997 -15.9560012  45.1244247 100.6526565 -15.3694253
  50.9490012  98.1504997  -8.5250012  50.2730012  98.2814997  -7.8610012
  50.4640012  97.9954997  -9.3350012  50.7907145  98.1474905  -8.5435483
  43.7000012 101.7394997 -17.7390012  43.1570012 101.3594997 -18.4310012
  44.5330012 101.9334997 -18.1680012  43.7384399 101.7138124 -17.8915474
  54.2370012 113.8224997  -2.2480012  54.4370012 114.2464997  -3.0830012
  54.8920012 114.1654997  -1.6410012  54.3530051 113.9269648  -2.2802164
  41.8350012 106.2964997  -2.6400012  42.5670012 106.5504997  -2.0790012
  41.0550012 106.5004997  -2.1250012  41.8298232 106.3589177  -2.4934240
  47.8640012 101.7034997  -9.9020012  48.4290012 101.1564997 -10.4490012
  47.7170012 101.1814997  -9.1140012  47.9212918 101.5582024  -9.8701546
  42.8660012  97.8394997 -13.4840012  42.5490012  96.9374997 -13.5190012
  43.6480012  97.8414997 -14.0370012  42.9282284  97.7161628 -13.5635217
  46.4910012 100.0914997  -7.4880012  45.6550012 100.5454997  -7.3780012
  47.0150012 100.3674997  -6.7360012  46.4474414 100.1909376  -7.3712864
  47.0350012 106.3044997 -15.8040012  46.2900012 105.7974997 -16.1260012
  46.9010012 106.3534997 -14.8570012  46.9148776 106.2416940 -15.7201353
  54.1850012 105.4374997  -7.0170012  54.8270012 105.8944997  -7.5610012
  53.3550012 105.5504997  -7.4800012  54.1605963 105.5152704  -7.1539823
  50.9330012  99.1184997 -17.6040012  49.9940012  99.2304997 -17.7560012
  51.2300012  99.9754997 -17.2980012  50.8447666  99.2496443 -17.5834232
  48.5540012 106.4884997  -4.5670012  48.2090012 106.1074997  -3.7600012
  48.3540012 107.4224997  -4.4950012  48.4798061 106.5625228  -4.4469039
  51.6510012 100.9854997 -15.9440012  52.5430012 100.8484997 -15.6250012
  51.7080012 101.7764997 -16.4800012  51.7806285 101.0736660 -15.9728309
  42.1600012 105.5994997 -10.0340012  42.9050012 105.5974997 -10.6350012
  42.2380012 104.7764997  -9.5520012  42.2725518 105.4879315 -10.0511071
  49.1610012 107.7634997 -16.7780012  48.8650012 108.5894997 -16.3970012
  48.4580012 107.1434997 -16.5820012  49.0254914 107.7928199 -16.6993557
  39.1680012 104.0604997  -4.7190012  39.3910012 103.6424997  -3.8870012
  38.5660012 103.4474997  -5.1420012  39.1171759 103.9204668  -4.6622978
  46.1840012 103.5774997  -2.5060012  45.8880012 103.4114997  -3.4010012
  47.1160012 103.3574997  -2.5170012  46.2694166 103.5250640  -2.6299464
  50.8050012 108.9504997  -4.6160012  49.9040012 109.1334997  -4.8840012
  50.8390012 109.2094997  -3.6950012  50.6863041 109.0105512  -4.5281803
  56.5360012 101.1954997 -16.2490012  55.9820012 100.7994997 -16.9210012
  56.6360012 102.1054997 -16.5270012  56.4737059 101.2643586 -16.3785599
  56.4990012 106.9954997  -3.4120012  55.6480012 107.2334997  -3.7790012
  57.0900012 106.9784997  -4.1650012  56.4622487 107.0258258  -3.5641107
  54.8310012 109.9814997 -15.7840012  54.4580012 109.1554997 -15.4750012
  55.1090012 109.7984997 -16.6810012  54.8175630 109.8437303 -15.8630374
  51.9920012 104.7894997  -8.7630012  51.0630012 104.5574997  -8.7900012
  52.4430012 104.0124997  -9.0930012  51.9259216 104.6527238  -8.8113083
  44.5350012 109.1174997 -12.6300012  45.0620012 109.8904997 -12.8300012
  43.6550012 109.3424997 -12.9310012  44.4881773 109.2538005 -12.6980990
  40.2900012 103.9794997 -18.0430012  40.9060012 104.6064997 -17.6630012
  39.4280012 104.2954997 -17.7710012  40.2577698 104.1079430 -17.9542817
  45.9620012 106.7804997 -13.0530012  45.7210012 107.7054997 -13.0120012
  45.2210012 106.3214997 -12.6570012  45.8288409 106.8451421 -12.9938623
  46.4770012 110.9294997  -6.7380012  46.8390012 111.7844997  -6.9720012
  47.0080012 110.6374997  -5.9980012  46.5984473 111.0071060  -6.6699145
  44.6450012 111.8024997 -13.5080012  43.6950012 111.9074997 -13.4570012
  44.9970012 112.6224997 -13.1630012  44.5624203 111.9278314 -13.4543350
  50.0210012 107.0284997  -7.0380012  49.5950012 106.8014997  -6.2110012
  50.6010012 106.2904997  -7.2200012  50.0411868 106.8975299  -6.9494170
  52.2240012 107.9574997 -17.9640012  52.5770012 107.5774997 -17.1590012
  51.2750012 107.8644997 -17.8770012  52.1440441 107.8929596 -17.8421441
  52.6790012 111.5804997  -4.5680012  52.0780012 111.0254997  -5.0640012
  52.9610012 112.2474997  -5.1940012  52.6348519 111.5946841  -4.7205048
  56.7270012 112.4374997 -17.7630012  57.4710012 113.0234997 -17.9030012
  56.0330012 113.0054997 -17.4290012  56.7350292 112.5945582 -17.7370039
  40.8020012  98.8134997  -5.1610012  39.9090012  99.1524997  -5.2290012
  40.7030012  97.9584997  -4.7430012  40.6664164  98.7442588  -5.1137765
  53.0900012 106.6304997 -15.7370012  52.8120012 105.9024997 -15.1810012
  54.0170012 106.7494997 -15.5320012  53.1773124 106.5468802 -15.6331155
  40.4530012 110.6184997  -6.7260012  40.6700012 109.6864997  -6.7570012
  40.6990012 110.8924997  -5.8430012  40.5159549 110.5280636  -6.6108237
  46.3150012 109.0694997 -19.5170012  46.5540012 108.3214997 -20.0640012
  46.0460012 108.6814997 -18.6840012  46.3113675 108.9146638 -19.4793135
  45.2520012 108.6394997 -17.0600012  45.3980012 108.1194997 -16.2700012
  45.2490012 109.5464997 -16.7540012  45.2715989 108.6908853 -16.9103912
  41.7050012 105.8924997 -16.5500012  41.0190012 106.2444997 -15.9830012
  42.2270012 106.6554997 -16.7970012  41.6816852 106.0438578 -16.5057882
  49.5360012  98.5544997  -6.2710012  50.2350012  98.6284997  -5.6210012
  49.1550012  97.6904997  -6.1170012  49.5801767  98.4477624  -6.1611678
  50.3210012  98.2064997 -15.1740012  50.5410012  98.6784997 -15.9770012
  50.8790012  98.6014997 -14.5040012  50.4264968  98.3244285 -15.1932669
  47.9890012 110.3374997 -16.3110012  47.1730012 110.8344997 -16.2590012
  48.5190012 110.8124997 -16.9510012  47.9489161 110.4697722 -16.3904044
  47.5210012  99.9344997 -14.3390012  48.3330012 100.4394997 -14.2930012
  47.2760012  99.7894997 -13.4250012  47.5990520  99.9840375 -14.2091483
  48.0560012 100.9204997  -5.1540012  48.1750012 101.4944997  -4.3970012
  48.7120012 100.2324997  -5.0400012  48.1609757 100.9061079  -5.0349175
  48.4040012  97.0154997 -13.4010012  48.0580012  97.6334997 -12.7560012
  49.0630012  97.5164997 -13.8820012  48.4457826  97.1675802 -13.3779029
  45.3280012 111.3814997 -16.3290012  45.4880012 112.1804997 -16.8300012
  45.1300012 111.6874997 -15.4440012  45.3231649 111.5324469 -16.2780185
  44.0620012  98.0784997 -16.7140012  43.9790012  98.9674997 -16.3670012
  44.9520012  97.8134997 -16.4820012  44.1709469  98.1641430 -16.6352374
  54.2610012  98.8274997  -4.3190012  53.3440012  99.0904997  -4.4070012
  54.5960012  98.8244997  -5.2160012  54.1809900  98.8630224  -4.4522081
  52.8630012 102.5784997 -10.2240012  52.0650012 102.1634997 -10.5520012
  53.3080012 101.8874997  -9.7330012  52.8139885 102.4283543 -10.2025111
  42.3210012 108.5064997 -17.6530012  42.9130012 109.2054997 -17.3770012
  42.7800012 108.0734997 -18.3730012  42.4641142 108.5437049 -17.7125170
  40.6370012 101.1704997 -18.5370012  40.5920012 102.1094997 -18.3590012
  39.7490012 100.9344997 -18.8070012  40.5108574 101.2671892 -18.5491088
  53.9490012 111.8344997  -8.6010012  53.7940012 112.5124997  -9.2580012
  54.8820012 111.9064997  -8.3980012  54.0538500 111.9370170  -8.6634881
  41.4450012  95.9524997  -9.8640012  41.2160012  96.0114997 -10.7920012
  41.0020012  95.1604997  -9.5580012  41.3538530  95.8535753  -9.9495214
  40.3750012 109.8924997 -13.7040012  39.5430012 110.3654997 -13.6760012
  40.9210012 110.4024997 -14.3020012  40.3349739 110.0261871 -13.7810284
  39.6630012 112.5054997  -2.3740012  40.2040012 112.2884997  -1.6140012
  39.1820012 111.6994997  -2.5630012  39.6719345 112.3669514  -2.2956924
  44.2610012 111.4244997  -0.7530012  45.0280012 110.9654997  -0.4120012
  44.2390012 111.1984997  -1.6830012  44.3631434 111.3310409  -0.8319957
  48.3530012 110.9324997 -19.3780012  47.7090012 110.3014997 -19.0570012
  49.1150012 110.4014997 -19.6100012  48.3678077 110.7742920 -19.3653989
  50.8380012 109.8044997  -2.0240012  50.4870012 108.9484997  -1.7810012
  51.5640012 109.9474997  -1.4170012  50.8880769 109.7065636  -1.9086381
  52.9570012 110.7494997 -19.1440012  53.2400012 109.9554997 -18.6920012
  53.6970012 110.9824997 -19.7050012  53.0957486 110.6722803 -19.1579302
  39.5700012 106.3154997  -1.4190012  39.7140012 105.4134997  -1.7060012
  38.7980012 106.6014997  -1.9070012  39.4853322 106.2308261  -1.5242119
  43.9120012 106.6594997 -19.2870012  43.9760012 105.8654997 -18.7560012
  44.5650012 106.5404997 -19.9770012  44.0090241 106.5347148 -19.3075683
  46.2260012 106.2854997  -1.9870012  45.8970012 106.5564997  -2.8440012
  46.3780012 105.3444997  -2.0740012  46.2014809 106.1953862  -2.1161756
  51.9600012 106.2014997  -4.6030012  52.7060012 106.7894997  -4.7230012
  51.2030012 106.7834997  -4.5400012  51.9597554 106.3607011  -4.6109093
  40.4030012 103.5154997  -1.9990012  40.8110012 102.6584997  -2.1200012
  40.1430012 103.5304997  -1.0780012  40.4237568 103.4000807  -1.8910412
  45.0610012 104.6314997 -16.9810012  44.6010012 104.1474997 -16.2950012
  45.3160012 103.9634997 -17.6170012  45.0324902 104.4748731 -16.9730666
  44.3500012 102.5244997  -4.6250012  43.7320012 103.1994997  -4.3450012
  44.6940012 102.8454997  -5.4580012  44.3119615 102.6602721  -4.6993419
  46.1320012 102.8744997 -18.7190012  45.9520012 102.7204997 -19.6460012
  47.0820012 102.9824997 -18.6740012  46.2357776 102.8680175 -18.8398157
  49.3700012 104.9964997  -1.3480012  50.3230012 105.0794997  -1.3750012
  49.2090012 104.2844997  -0.7280012  49.4786426 104.9116746  -1.2679421
  55.5220012 105.2294997 -19.2730012  55.2480012 104.8044997 -20.0860012
  55.5610012 106.1604997 -19.4900012  55.4897699 105.2972484 -19.4136390
  44.6890012  99.8794997  -3.5430012  44.8390012  99.1504997  -4.1450012
  44.6920012 100.6564997  -4.1020012  44.7099302  99.8847851  -3.7009308
  45.1020012  98.2494997  -6.0500012  45.6380012  98.7004997  -6.7020012
  44.2500012  98.1414997  -6.4730012  45.0602178  98.2966390  -6.1964244
  46.6840012 103.6884997  -5.8110012  47.4340012 103.5324997  -6.3840012
  46.3450012 104.5404997  -6.0860012  46.7408921 103.7822968  -5.9266439
  51.0990012 101.5034997  -0.7820012  51.2920012 100.5724997  -0.8940012
  51.9570012 101.9284997  -0.7920012  51.2413020 101.4336389  -0.7986639
  52.4160012 104.2924997  -2.7050012  52.1350012 105.0014997  -3.2820012
  53.3590012 104.2194997  -2.8560012  52.5049027 104.3797646  -2.8044449
  43.1680012 101.0774997  -1.6310012  42.4010012 100.5454997  -1.8410012
  43.8470012 100.7674997  -2.2310012  43.1547022 100.9627506  -1.7408352
  45.9080012  95.7054997  -5.6190012  45.8090012  96.6524997  -5.7240012
  45.1650012  95.3334997  -6.0940012  45.7940564  95.7845902  -5.6975440
  47.1720012 100.0274997  -2.0550012  46.9360012  99.8074997  -1.1530012
  46.3880012  99.8204997  -2.5650012  47.0338628  99.9694760  -2.0006068
  49.8870012  99.1544997  -2.9790012  48.9400012  99.1864997  -2.8470012
  50.2000012  98.5294997  -2.3260012  49.7995475  99.0743207  -2.8725545
  51.5210012  97.7884997  -0.9740012  51.4250012  96.8364997  -0.9800012
  51.2000012  98.0574997  -0.1140012  51.4644070  97.6944035  -0.8584559
  41.3480012  98.9984997  -1.9270012  41.5600012  98.2914997  -2.5370012
  41.2370012  98.5604997  -1.0830012  41.3619721  98.8427084  -1.8963157
  46.1290012  94.9994997  -2.9470012  46.8410012  94.3594997  -2.9610012
  46.0280012  95.2664997  -3.8610012  46.2127939  94.9479938  -3.0724350
  46.4830012  96.6824997  -0.8940012  46.3510012  96.2064997  -1.7140012
  45.8840012  97.4264997  -0.9490012  46.3839071  96.7179618  -1.0137114
  46.0290012 113.5654997 -17.7170012  46.9620012 113.7234997 -17.5740012
  45.7650012 114.2404997 -18.3420012  46.1209510 113.6783611 -17.7819259
  39.5980012 108.2014997 -18.2350012  40.5120012 108.2804997 -17.9610012
  39.6050012 107.5144997 -18.9010012  39.7241131 108.1193961 -18.2875607
  38.2470012 113.5944997 -13.1570012  37.6000012 113.1324997 -13.6900012
  38.6010012 112.9224997 -12.5750012  38.2063849 113.4404723 -13.1512041
  39.1170012 111.6754997 -11.3530012  38.7820012 110.7954997 -11.1810012
  39.3390012 112.0204997 -10.4880012  39.1011783 111.6017501 -11.2125792
  56.6650012 112.4844997  -8.3720012  56.6440012 112.6694997  -7.4330012
  57.3560012 113.0534997  -8.7130012  56.7554618 112.5866606  -8.2896136
  56.2290012 112.0524997  -5.4500012  55.7410012 111.3164997  -5.8210012
  56.7780012 111.6584997  -4.7720012  56.2364872 111.8986249  -5.4090840
  54.6790012 107.8414997  -0.8120012  53.8130012 107.7364997  -0.4180012
  55.0560012 108.6004997  -0.3660012  54.6113308 107.9296900  -0.6977607
  55.9800012 106.0984997 -15.2980012  56.8300012 106.5194997 -15.1710012
  55.9860012 105.3584997 -14.6910012  56.0971372 106.0560803 -15.1985656
  56.3750012 104.1514997 -13.4740012  55.6480012 103.6724997 -13.0770012
  56.9560012 104.3574997 -12.7420012  56.3539375 104.1137090 -13.3205871
  56.1340012 106.9364997  -8.5270012  56.9670012 106.5584997  -8.8070012
  56.2460012 107.8794997  -8.6460012  56.2632647 107.0122218  -8.5814513
  54.6200012 109.8144997  -6.2200012  53.9730012 110.1394997  -5.5940012
  54.1030012 109.3744997  -6.8940012  54.4614029 109.7995004  -6.2254173
  56.6430012 104.0524997 -17.0830012  56.1210012 104.4094997 -17.8020012
  56.6100012 104.7274997 -16.4050012  56.5671634 104.1925413 -17.0896855
  54.9920012 101.2924997 -18.5320012  55.0880012 101.9594997 -19.2130012
  54.8520012 100.4764997 -19.0140012  54.9862135 101.2734500 -18.6901509
  54.1610012 102.6724997 -12.9110012  54.0110012 101.7274997 -12.9320012
  53.8080012 102.9534997 -12.0680012  54.0926625 102.5810441 -12.7997654
  39.1970012 104.7504997  -8.9010012  39.3810012 104.6684997  -9.8370012
  40.0460012 104.6264997  -8.4770012  39.3370139 104.7225003  -8.9718545
  55.0180012 104.6424997  -3.2730012  55.6010012 103.9084997  -3.0810012
  55.5820012 105.4144997  -3.2260012  55.1739769 104.6464227  -3.2403841
  56.5140012 102.5454997  -2.5880012  55.6510012 102.1664997  -2.7540012
  57.1190012 101.8064997  -2.6620012  56.4775979 102.3938023  -2.6207183
  54.2390012  98.7004997 -19.4150012  54.8500012  98.3294997 -18.7780012
  53.4030012  98.2794997 -19.2190012  54.2095032  98.5927554 -19.3012965
  53.8720012 100.2554997 -14.4490012  54.1520012  99.3484997 -14.3250012
  54.6310012 100.6894997 -14.8380012  54.0129277 100.1900942 -14.4846318
  54.4840012 100.8364997  -9.0130012  55.4170012 101.0484997  -9.0470012
  54.2490012 100.9384997  -8.0910012  54.5798036 100.8792769  -8.8930024
  54.5130012 101.5734997  -6.2370012  53.6700012 101.8414997  -5.8710012
  54.9550012 102.3954997  -6.4480012  54.4574158 101.7213291  -6.2154509
  38.7940012 100.0214997  -2.7600012  39.7140012  99.8994997  -2.5240012
  38.3450012  99.2714997  -2.3710012  38.8591580  99.9033727  -2.6750994
  56.7960012  95.5534997  -0.8840012  57.1460012  94.8994997  -1.4890012
  56.9430012  96.3904997  -1.3230012  56.8638419  95.5771591  -1.0262882
  54.4850012  97.5184997 -14.4010012  54.6680012  97.0694997 -13.5750012
  53.8860012  96.9334997 -14.8640012  54.4290202  97.3779975 -14.3506725
  40.0150012  98.3334997  -9.8690012  40.4610012  97.5414997  -9.5670012
  40.4820012  99.0494997  -9.4380012  40.1390172  98.3220624  -9.7695180
  38.3190012 101.3324997  -8.8000012  38.8110012 101.1114997  -9.5910012
  38.6820012 102.1734997  -8.5190012  38.4353126 101.4158357  -8.8702469
  56.3160012  97.6624997  -2.5340012  55.3980012  97.9334997  -2.5700012
  56.4390012  97.1274997  -3.3190012  56.2071066  97.6272892  -2.6449513
  56.3520012  97.5854997 -17.8730012  56.7640012  96.8644997 -18.3480012
  57.0340012  98.2554997 -17.8140012  56.5005885  97.5772368 -17.9301085
  38.6330012  97.5904997 -14.7460012  37.7080012  97.7994997 -14.8750012
  39.0870012  98.0744997 -15.4350012  38.5677368  97.6845993 -14.8568774
  53.4040012 112.5744997 -12.8000012  54.0560012 112.2274997 -13.4080012
  53.9140012 113.0634997 -12.1540012  53.5622637 112.5930597 -12.7959764
  38.5970012  96.3284997  -6.4010012  37.9320012  96.0824997  -5.7580012
  38.1540012  96.9504997  -6.9790012  38.4460956  96.3788632  -6.3910648
  40.7890012 109.5034997  -2.2570012  39.9680012 109.6784997  -2.7170012
  40.5360012 109.4304997  -1.3360012  40.6426164 109.5175622  -2.1955077
  43.7430012 110.4784997  -5.9980012  43.3180012 111.2874997  -6.2810012
  44.6470012 110.5634997  -6.3000012  43.8070271 110.6008469  -6.0776224
  48.0540012 111.8774997  -3.0390012  48.2390012 111.5434997  -2.1610012
  48.9000012 112.1864997  -3.3610012  48.1937539 111.8736047  -2.9624395
  50.3990012 113.1634997  -3.7950012  51.0760012 112.5304997  -4.0350012
  50.7210012 113.5644997  -2.9880012  50.5351637 113.1311154  -3.7187207
  55.3160012  95.7524997  -4.7150012  54.5040012  96.0774997  -5.1030012
  55.5490012  94.9924997  -5.2480012  55.2363423  95.6942436  -4.8401747
  41.1450012 113.7344997  -5.9510012  40.4240012 114.1744997  -6.4020012
  40.7790012 113.4834997  -5.1020012  40.9969804 113.7607698  -5.8980160
  43.6120012 113.3344997  -6.9210012  42.7470012 113.4064997  -6.5170012
  43.5570012 113.8814997  -7.7050012  43.4862085 113.4182685  -6.9716638
  48.3220012 113.2224997  -7.7460012  47.8660012 113.7514997  -8.4000012
  48.4850012 113.8254997  -7.0200012  48.2815585 113.3764468  -7.7374938
  50.6500012 112.1004997  -6.8010012  49.7450012 112.2654997  -7.0660012
  51.0790012 112.9534997  -6.8660012  50.5840799 112.2384483  -6.8460818
  53.2540012 113.6704997  -6.5060012  53.0720012 114.5864997  -6.7160012
  53.4310012 113.2604997  -7.3520012  53.2530210 113.7404822  -6.6492115
  40.5590012 112.3574997  -9.0410012  40.5410012 111.9324997  -8.1830012
  41.3640012 112.0394997  -9.4490012  40.6653875 112.2563812  -8.9788345
  42.7010012 111.0674997 -10.3860012  42.4820012 110.1514997 -10.2160012
  43.5250012 111.2074997  -9.9200012  42.7824420 110.9610520 -10.2997226
  45.2380012 111.5374997  -9.5370012  45.4510012 110.6494997  -9.8240012
  45.3020012 111.5034997  -8.5830012  45.2758231 111.4113102  -9.4472603
  48.7460012  97.2014997 -10.3930012  48.0720012  96.5724997 -10.1370012
  49.3100012  96.7174997 -10.9960012  48.7299230  97.0498744 -10.4394660
  53.8890012  95.3094997 -10.2800012  54.4930012  95.8564997 -10.7820012
  53.0190012  95.6284997 -10.5200012  53.8541241  95.4275806 -10.3812346
  55.6160012  96.4474997 -11.9470012  56.2280012  95.9334997 -12.4730012
  55.9980012  97.3254997 -11.9230012  55.7514540  96.4957140 -12.0158170
  41.0730012  95.8354997 -12.5710012  40.2960012  95.6014997 -13.0780012
  41.6030012  95.0384997 -12.5620012  41.0382330  95.6956988 -12.6392258
  39.9090012  95.6334997 -16.7670012  40.3480012  96.2444997 -17.3590012
  39.2760012  96.1714997 -16.2930012  39.8834514  95.7899257 -16.7839070
  45.6520012  95.7624997 -12.7570012  46.5270012  96.1504997 -12.7870012
  45.5160012  95.5474997 -11.8350012  45.7533695  95.7865184 -12.6363560
  51.2090012  95.7924997 -11.1080012  51.2850012  95.8874997 -12.0580012
  50.9340012  94.8844997 -10.9790012  51.1822321  95.6827867 -11.2204921
  52.5620012  95.8184997 -15.4160012  51.8600012  96.4334997 -15.6250012
  52.1180012  94.9804997 -15.2850012  52.4056330  95.7895783 -15.4269672
  39.8100012 111.5814997 -15.8690012  39.1250012 111.5434997 -16.5370012
  39.8140012 112.4944997 -15.5810012  39.7168193 111.6997016 -15.9214716
  41.7700012  97.5494997 -18.3250012  42.2620012  96.9194997 -18.8520012
  42.3940012  97.8454997 -17.6610012  41.9215446  97.5033199 -18.3074020
  46.7960012  97.8424997 -15.8680012  46.9740012  97.1964997 -15.1850012
  46.7430012  98.6764997 -15.4000012  46.8131829  97.8667985 -15.7114060
  48.6750012 112.7914997 -17.4720012  49.5410012 113.1574997 -17.6500012
  48.4280012 112.3514997 -18.2860012  48.7602392 112.7821756 -17.6063711
  55.3840012 112.3544997 -14.7930012  55.1890012 111.6064997 -15.3580012
  55.3450012 113.1124997 -15.3760012  55.3520380 112.3546099 -14.9491616
  41.0310012  96.3494997  -3.0530012  40.6650012  95.5844997  -2.6100012
  41.9440012  96.3784997  -2.7660012  41.1042790  96.2487224  -2.9535930
  43.0040012  95.7004997  -1.5170012  43.9020012  95.4264997  -1.7020012
  42.6170012  94.9574997  -1.0530012  43.0746612  95.5625914  -1.4796357
  41.6280012 112.5014997 -18.8440012  41.3610012 112.7884997 -17.9710012
  42.4000012 111.9554997 -18.6920012  41.6957488 112.4670294 -18.7038950
  51.4250012  95.0324997  -1.3350012  51.5020012  94.6064997  -0.4810012
  52.3190012  95.0464997  -1.6780012  51.5563428  94.9760879  -1.2644690
  54.6010012 111.1054997  -2.6430012  53.8190012 110.9194997  -3.1620012
  54.5290012 112.0344997  -2.4250012  54.4841777 111.2056492  -2.6845952
  69.0070012 104.9914997 -12.6120012  69.0960012 105.9354997 -12.7440012
  68.3690012 104.7164997 -13.2700012  68.9329081 105.0834830 -12.7190386
  67.9400012 104.2464997  -9.1930012  67.9020012 103.6004997  -8.4880012
  67.6180012 103.7804997  -9.9640012  67.8912333 104.0949408  -9.2007022
  60.3090012 103.8614997  -7.6000012  60.3500012 103.2354997  -6.8770012
  61.0120012 104.4854997  -7.4180012  60.4096363 103.8601196  -7.4763956
  71.6460012 107.1854997 -10.8920012  71.2060012 106.4654997 -10.4410012
  71.6330012 107.9064997 -10.2620012  71.5840226 107.1843731 -10.7451506
  61.2320012 108.3114997  -9.0650012  60.8630012 107.5094997  -9.4350012
  62.1730012 108.1424997  -9.0190012  61.3087289 108.1790153  -9.1093684
  57.8420012 101.9714997 -13.6720012  57.3950012 102.8174997 -13.6910012
  57.2810012 101.3914997 -14.1880012  57.7049900 102.0089916 -13.7443199
  58.5530012 104.1334997 -11.5460012  58.7660012 103.3634997 -11.0190012
  59.2910012 104.2224997 -12.1500012  58.6818496 104.0401394 -11.5554700
  68.7580012 112.2904997 -10.6790012  69.3780012 111.6134997 -10.9530012
  68.5500012 112.0724997  -9.7710012  68.8146904 112.1683870 -10.5936635
  66.3300012 106.6794997  -8.7870012  66.6340012 105.9934997  -9.3820012
  67.0510012 106.7974997  -8.1690012  66.4690671 106.6016305  -8.7848184
  74.9930012  98.2804997  -7.9260012  75.0420012  98.8904997  -7.1900012
  75.4180012  98.7414997  -8.6490012  75.0571824  98.4263741  -7.9229795
  69.4710012 101.0734997  -8.4590012  69.6130012 100.1274997  -8.4390012
  69.3640012 101.2804997  -9.3880012  69.4759863 100.9719534  -8.5817661
  62.6250012  99.1744997 -11.1870012  62.6690012 100.0344997 -11.6050012
  62.1680012  98.6224997 -11.8210012  62.5692185  99.2175799 -11.3299701
  70.3480012  99.3054997 -12.7860012  70.9940012  98.9764997 -12.1610012
  70.8580012  99.8234997 -13.4090012  70.5054264  99.3304611 -12.7846138
  59.2460012 101.5714997 -10.4250012  59.8990012 101.0214997  -9.9930012
  59.2700012 101.2974997 -11.3420012  59.3386683 101.4591466 -10.4897877
  64.4020012 103.1214997 -11.2100012  65.0180012 102.5954997 -10.7000012
  63.8160012 102.4814997 -11.6130012  64.4070810 102.9629208 -11.1946827
  75.3840012  99.7584997  -5.6900012  74.6960012 100.4164997  -5.7860012
  75.4000012  99.5614997  -4.7540012  75.2918525  99.8220462  -5.5765192
  61.4360012  98.0924997  -7.1130012  61.2170012  98.6224997  -7.8790012
  60.7680012  98.3194997  -6.4660012  61.3157600  98.1956906  -7.1303621
  68.8050012 107.5924997 -13.5690012  68.5090012 107.2704997 -14.4200012
  68.4800012 108.4924997 -13.5280012  68.7206371 107.6700215 -13.6798199
  64.0050012 105.7684997  -6.8260012  63.2650012 106.3664997  -6.7220012
  64.7190012 106.3224997  -7.1410012  64.0002237 105.9252831  -6.8543535
  72.1120012  98.5964997 -10.8060012  71.8960012  97.8304997 -10.2730012
  72.7670012  99.0684997 -10.2930012  72.1710632  98.5555889 -10.6637139
  61.0290012  99.9844997  -9.1610012  61.6430012 100.6174997  -8.7870012
  61.5410012  99.5124997  -9.8170012  61.1822296 100.0072370  -9.1985748
  62.4120012 107.7324997  -6.0380012  62.4070012 108.6124997  -6.4160012
  61.5590012 107.6494997  -5.6130012  62.2959464 107.8416117  -6.0322093
  58.5330012 107.4034997 -15.2560012  58.2610012 107.6324997 -16.1450012
  58.5790012 108.2414997 -14.7960012  58.5020094 107.5481213 -15.3154303
  72.1580012 109.0254997  -8.5440012  71.2170012 109.0834997  -8.3820012
  72.4350012 109.9314997  -8.6810012  72.0664679 109.1559443  -8.5403185
  72.4590012  97.3114997  -7.1260012  71.7230012  97.9224997  -7.1640012
  73.1420012  97.7264997  -7.6530012  72.4506541  97.4511374  -7.2024168
  65.4620012  95.3984997  -9.6600012  65.3450012  94.4494997  -9.7150012
  64.6070012  95.7304997  -9.3870012  65.3303733  95.3135409  -9.6306103
  70.4100012 110.8064997 -11.9180012  70.8360012 110.0994997 -12.4030012
  70.7270012 111.6074997 -12.3350012  70.5111019 110.8180994 -12.0406870
  71.5700012 108.7074997 -13.4100012  71.3120012 108.0174997 -14.0210012
  71.6410012 108.2644997 -12.5640012  71.5442856 108.5532124 -13.3793115
  73.2560012 107.2734997  -4.9320012  73.3960012 106.6824997  -5.6720012
  73.4230012 108.1464997  -5.2890012  73.2976778 107.3106426  -5.0813035
  67.7290012 104.2354997 -15.1600012  67.0170012 104.7704997 -15.5120012
  68.4200012 104.2914997 -15.8200012  67.7250132 104.3162543 -15.2973711
  67.7820012 102.6934997 -18.1210012  68.4830012 102.7154997 -17.4700012
  68.0850012 102.0654997 -18.7770012  67.9187830 102.6116566 -18.1206289
  75.0980012 103.6134997  -6.8660012  74.4450012 104.3084997  -6.7770012
  75.5630012 103.8234997  -7.6760012  75.0715390 103.7369425  -6.9633117
  71.1340012 104.4454997 -14.2080012  70.4020012 104.6734997 -13.6350012
  71.5820012 103.7314997 -13.7530012  71.0943095 104.3802571 -14.0680881
  71.0320012 102.6194997  -5.1410012  71.1120012 103.3824997  -4.5690012
  70.4300012 102.8984997  -5.8310012  70.9615756 102.7617134  -5.1559411
  62.7800012 105.0754997 -12.3260012  62.4490012 104.7054997 -13.1440012
  63.3680012 104.4054997 -11.9790012  62.8141873 104.9341156 -12.3911898
  64.1460012 108.5034997  -9.6440012  64.0520012 107.9254997 -10.4010012
  64.8760012 108.1324997  -9.1480012  64.2317981 108.3742390  -9.6805835
  63.1460012 103.8444997  -8.6920012  63.7120012 103.9654997  -9.4550012
  63.4650012 104.4814997  -8.0530012  63.2665786 103.9471884  -8.7099960
  69.4550012 109.3474997  -7.9580012  69.2150012 110.0094997  -7.3100012
  69.2570012 108.5134997  -7.5330012  69.3953808 109.3253134  -7.8118476
  64.0260012 108.2434997  -3.9750012  63.7150012 109.0254997  -3.5200012
  63.3760012 108.0904997  -4.6610012  63.8955558 108.3299105  -4.0054129
  70.0050012 103.6074997 -16.5230012  70.5850012 103.7574997 -15.7760012
  70.4190012 104.0784997 -17.2460012  70.1402830 103.6916841 -16.5185866
  60.9460012 104.4414997  -4.7460012  61.0170012 105.0924997  -4.0480012
  60.0560012 104.5444997  -5.0810012  60.8353117 104.5445936  -4.6957300
  67.7320012 110.3444997 -13.0880012  68.2060012 110.6394997 -12.3100012
  67.1690012 111.0824997 -13.3210012  67.7207653 110.4846932 -13.0129864
  62.2660012 110.3154997  -3.2120012  62.2730012 110.1794997  -4.1590012
  61.3500012 110.1974997  -2.9600012  62.1431714 110.2809430  -3.3075334
  73.7040012  95.3574997 -16.7100012  72.8040012  95.4964997 -16.4150012
  73.9560012  96.1884997 -17.1120012  73.6148702  95.4889074 -16.7239795
  61.7700012 104.1454997 -14.7360012  61.4780012 104.9134997 -15.2270012
  61.0960012 103.4854997 -14.8990012  61.6389081 104.1614406 -14.8252660
  74.8930012 109.7234997 -18.3340012  74.9670012 110.6624997 -18.1630012
  75.7990012 109.4184997 -18.3900012  75.0255100 109.8106722 -18.3181881
  57.8630012 106.5084997  -5.9210012  57.3620012 106.4804997  -6.7360012
  57.8680012 105.6024997  -5.6120012  57.7951526 106.3822278  -5.9907128
  57.6130012 109.2884997  -9.0370012  58.5590012 109.1444997  -9.0560012
  57.5010012 110.0724997  -8.5000012  57.7272727 109.3748046  -8.9669928
  75.8110012 109.9544997  -3.3550012  75.7620012 108.9994997  -3.3920012
  74.9840012 110.2224997  -2.9540012  75.6924940 109.8598998  -3.3058625
  66.7900012 109.5284997  -4.4790012  66.8770012 110.3544997  -4.0040012
  65.9260012 109.1984997  -4.2300012  66.6851964 109.5969878  -4.3803451
  67.2040012 113.3004997 -14.6730012  67.1290012 113.1794997 -15.6190012
  67.2370012 114.2504997 -14.5540012  67.1981848 113.4122500 -14.7865166
  60.8570012 112.0894997 -12.8920012  61.0100012 111.7414997 -12.0130012
  60.0070012 111.7334997 -13.1470012  60.7628962 111.9936650 -12.8061660
  70.3060012 112.4544997 -17.6710012  70.6810012 111.7104997 -18.1410012
  70.3100012 112.1844997 -16.7520012  70.3578915 112.3161486 -17.6112176
  69.9750012 112.3804997 -14.9210012  69.0390012 112.4804997 -14.7430012
  70.2550012 111.6714997 -14.3430012  69.8848255 112.2982711 -14.8184609
  72.9630012 101.4474997  -2.8750012  72.5560012 101.9284997  -3.5960012
  73.0040012 100.5424997  -3.1830012  72.9128437 101.3909374  -3.0153317
  60.1120012 107.8314997  -4.8780012  60.3280012 107.4704997  -4.0190012
  59.2570012 107.4574997  -5.0880012  60.0259292 107.7314111  -4.7886614
  62.7310012  96.3014997  -8.8830012  61.8690012  96.2144997  -9.2900012
  62.7080012  97.1574997  -8.4550012  62.6100330  96.4052765  -8.8808137
  67.3940012  96.0234997  -5.5080012  67.8140012  95.6084997  -4.7550012
  66.4610012  95.8454997  -5.3910012  67.3253644  95.9425900  -5.3890461
  70.7200012  99.7794997  -4.6550012  70.2060012  99.6534997  -3.8570012
  70.5650012 100.6914997  -4.8990012  70.6286852  99.8856132  -4.5787842
  71.4830012 104.6404997 -18.8930012  71.5250012 104.4174997 -19.8230012
  72.3320012 105.0394997 -18.7030012  71.6035396 104.6639155 -18.9946373
  67.0550012  98.5164997 -18.2230012  66.8020012  98.5354997 -17.3000012
  66.7990012  97.6444997 -18.5240012  66.9857790  98.4012437 -18.1373737
  62.8220012 101.2674997  -7.7880012  62.1800012 101.2264997  -7.0790012
  62.8590012 102.1934997  -8.0250012  62.7391324 101.3871559  -7.7230176
  62.8190012 101.4884997 -12.8760012  61.9260012 101.1474997 -12.9340012
  63.2690012 101.1114997 -13.6310012  62.7577305 101.3908484 -12.9860823
  68.3540012 101.9044997 -14.0590012  67.9450012 102.7194997 -14.3500012
  69.0750012 101.7644997 -14.6730012  68.3954537 101.9972018 -14.1818658
  67.4560012 102.0794997  -2.5710012  66.8940012 101.3754997  -2.2500012
  68.2830012 101.9594997  -2.1030012  67.4907095 101.9667883  -2.4637670
  69.3590012 101.3504997 -11.2450012  69.1640012 101.9554997 -11.9600012
  69.5400012 100.5164997 -11.6790012  69.3567614 101.3206300 -11.4015595
  60.5720012 101.5874997  -5.9210012  60.5340012 101.9874997  -5.0520012
  60.0810012 100.7704997  -5.8300012  60.5004684 101.5318069  -5.7898941
  63.9380012  98.9614997 -19.1220012  63.5070012  98.5164997 -18.3920012
  63.2200012  99.3334997 -19.6340012  63.7819438  98.9508940 -19.0913201
  57.1800012  98.7034997 -12.0700012  57.8110012  98.6744997 -11.3510012
  57.6290012  98.2784997 -12.8000012  57.3270774  98.6420492 -12.0703447
  58.4540012  99.4494997 -16.6460012  58.9280012 100.0404997 -17.2310012
  57.7370012  99.9804997 -16.2990012  58.4219341  99.6020867 -16.6791164
  68.6230012 102.9884997  -6.5730012  68.9460012 102.3574997  -7.2160012
  68.1830012 102.4534997  -5.9130012  68.6076895 102.8298441  -6.5717150
  65.4000012  98.9154997 -11.7890012  64.4890012  98.9724997 -11.5010012
  65.9060012  98.8554997 -10.9790012  65.3435413  98.9151985 -11.6399378
  60.2290012 100.5444997 -12.9630012  59.3390012 100.6444997 -13.3030012
  60.5250012  99.7024997 -13.3090012  60.1472823 100.4443545 -13.0562787
  63.8820012 100.5444997 -15.3060012  64.8130012 100.6734997 -15.1280012
  63.6670012 101.2144997 -15.9560012  63.9804247 100.6526565 -15.3694253
  69.8050012  98.1504997  -8.5250012  69.1290012  98.2814997  -7.8610012
  69.3200012  97.9954997  -9.3350012  69.6467145  98.1474905  -8.5435483
  62.5560012 101.7394997 -17.7390012  62.0130012 101.3594997 -18.4310012
  63.3890012 101.9334997 -18.1680012  62.5944399 101.7138124 -17.8915474
  73.0930012 113.8224997  -2.2480012  73.2930012 114.2464997  -3.0830012
  73.7480012 114.1654997  -1.6410012  73.2090051 113.9269648  -2.2802164
  60.6910012 106.2964997  -2.6400012  61.4230012 106.5504997  -2.0790012
  59.9110012 106.5004997  -2.1250012  60.6858232 106.3589177  -2.4934240
  66.7200012 101.7034997  -9.9020012  67.2850012 101.1564997 -10.4490012
  66.5730012 101.1814997  -9.1140012  66.7772918 101.5582024  -9.8701546
  61.7220012  97.8394997 -13.4840012  61.4050012  96.9374997 -13.5190012
  62.5040012  97.8414997 -14.0370012  61.7842284  97.7161628 -13.5635217
  65.3470012 100.0914997  -7.4880012  64.5110012 100.5454997  -7.3780012
  65.8710012 100.3674997  -6.7360012  65.3034414 100.1909376  -7.3712864
  65.8910012 106.3044997 -15.8040012  65.1460012 105.7974997 -16.1260012
  65.7570012 106.3534997 -14.8570012  65.7708776 106.2416940 -15.7201353
  73.0410012 105.4374997  -7.0170012  73.6830012 105.8944997  -7.5610012
  72.2110012 105.5504997  -7.4800012  73.0165963 105.5152704  -7.1539823
  69.7890012  99.1184997 -17.6040012  68.8500012  99.2304997 -17.7560012
  70.0860012  99.9754997 -17.2980012  69.7007666  99.2496443 -17.5834232
  67.4100012 106.4884997  -4.5670012  67.0650012 106.1074997  -3.7600012
  67.2100012 107.4224997  -4.4950012  67.3358061 106.5625228  -4.4469039
  70.5070012 100.9854997 -15.9440012  71.3990012 100.8484997 -15.6250012
  70.5640012 101.7764997 -16.4800012  70.6366285 101.0736660 -15.9728310
  61.0160012 105.5994997 -10.0340012  61.7610012 105.5974997 -10.6350012
  61.0940012 104.7764997  -9.5520012  61.1285518 105.4879315 -10.0511071
  68.0170012 107.7634997 -16.7780012  67.7210012 108.5894997 -16.3970012
  67.3140012 107.1434997 -16.5820012  67.8814914 107.7928199 -16.6993557
  58.0240012 104.0604997  -4.7190012  58.2470012 103.6424997  -3.8870012
  57.4220012 103.4474997  -5.1420012  57.9731759 103.9204668  -4.6622978
  65.0400012 103.5774997  -2.5060012  64.7440012 103.4114997  -3.4010012
  65.9720012 103.3574997  -2.5170012  65.1254166 103.5250640  -2.6299464
  69.6610012 108.9504997  -4.6160012  68.7600012 109.1334997  -4.8840012
  69.6950012 109.2094997  -3.6950012  69.5423041 109.0105512  -4.5281803
  75.3920012 101.1954997 -16.2490012  74.8380012 100.7994997 -16.9210012
  75.4920012 102.1054997 -16.5270012  75.3297059 101.2643586 -16.3785599
  75.3550012 106.9954997  -3.4120012  74.5040012 107.2334997  -3.7790012
  75.9460012 106.9784997  -4.1650012  75.3182487 107.0258258  -3.5641107
  73.6870012 109.9814997 -15.7840012  73.3140012 109.1554997 -15.4750012
  73.9650012 109.7984997 -16.6810012  73.6735630 109.8437303 -15.8630374
  70.8480012 104.7894997  -8.7630012  69.9190012 104.5574997  -8.7900012
  71.2990012 104.0124997  -9.0930012  70.7819216 104.6527238  -8.8113083
  63.3910012 109.1174997 -12.6300012  63.9180012 109.8904997 -12.8300012
  62.5110012 109.3424997 -12.9310012  63.3441773 109.2538005 -12.6980990
  59.1460012 103.9794997 -18.0430012  59.7620012 104.6064997 -17.6630012
  58.2840012 104.2954997 -17.7710012  59.1137698 104.1079430 -17.9542817
  64.8180012 106.7804997 -13.0530012  64.5770012 107.7054997 -13.0120012
  64.0770012 106.3214997 -12.6570012  64.6848409 106.8451421 -12.9938623
  65.3330012 110.9294997  -6.7380012  65.6950012 111.7844997  -6.9720012
  65.8640012 110.6374997  -5.9980012  65.4544473 111.0071060  -6.6699145
  63.5010012 111.8024997 -13.5080012  62.5510012 111.9074997 -13.4570012
  63.8530012 112.6224997 -13.1630012  63.4184203 111.9278314 -13.4543350
  68.8770012 107.0284997  -7.0380012  68.4510012 106.8014997  -6.2110012
  69.4570012 106.2904997  -7.2200012  68.8971868 106.8975299  -6.9494170
  71.0800012 107.9574997 -17.9640012  71.4330012 107.5774997 -17.1590012
  70.1310012 107.8644997 -17.8770012  71.0000441 107.8929596 -17.8421441
  71.5350012 111.5804997  -4.5680012  70.9340012 111.0254997  -5.0640012
  71.8170012 112.2474997  -5.1940012  71.4908519 111.5946841  -4.7205048
  75.5830012 112.4374997 -17.7630012  76.3270012 113.0234997 -17.9030012
  74.8890012 113.0054997 -17.4290012  75.5910292 112.5945582 -17.7370039
  59.6580012  98.8134997  -5.1610012  58.7650012  99.1524997  -5.2290012
  59.5590012  97.9584997  -4.7430012  59.5224164  98.7442588  -5.1137765
  71.9460012 106.6304997 -15.7370012  71.6680012 105.9024997 -15.1810012
  72.8730012 106.7494997 -15.5320012  72.0333124 106.5468802 -15.6331155
  59.3090012 110.6184997  -6.7260012  59.5260012 109.6864997  -6.7570012
  59.5550012 110.8924997  -5.8430012  59.3719549 110.5280636  -6.6108237
  65.1710012 109.0694997 -19.5170012  65.4100012 108.3214997 -20.0640012
  64.9020012 108.6814997 -18.6840012  65.1673675 108.9146638 -19.4793135
  64.1080012 108.6394997 -17.0600012  64.2540012 108.1194997 -16.2700012
  64.1050012 109.5464997 -16.7540012  64.1275989 108.6908853 -16.9103912
  60.5610012 105.8924997 -16.5500012  59.8750012 106.2444997 -15.9830012
  61.0830012 106.6554997 -16.7970012  60.5376852 106.0438578 -16.5057882
  68.3920012  98.5544997  -6.2710012  69.0910012  98.6284997  -5.6210012
  68.0110012  97.6904997  -6.1170012  68.4361767  98.4477624  -6.1611678
  69.1770012  98.2064997 -15.1740012  69.3970012  98.6784997 -15.9770012
  69.7350012  98.6014997 -14.5040012  69.2824968  98.3244285 -15.1932669
  66.8450012 110.3374997 -16.3110012  66.0290012 110.8344997 -16.2590012
  67.3750012 110.8124997 -16.9510012  66.8049161 110.4697722 -16.3904044
  66.3770012  99.9344997 -14.3390012  67.1890012 100.4394997 -14.2930012
  66.1320012  99.7894997 -13.4250012  66.4550520  99.9840375 -14.2091483
  66.9120012 100.9204997  -5.1540012  67.0310012 101.4944997  -4.3970012
  67.5680012 100.2324997  -5.0400012  67.0169757 100.9061079  -5.0349175
  67.2600012  97.0154997 -13.4010012  66.9140012  97.6334997 -12.7560012
  67.9190012  97.5164997 -13.8820012  67.3017826  97.1675802 -13.3779029
  64.1840012 111.3814997 -16.3290012  64.3440012 112.1804997 -16.8300012
  63.9860012 111.6874997 -15.4440012  64.1791649 111.5324469 -16.2780185
  62.9180012  98.0784997 -16.7140012  62.8350012  98.9674997 -16.3670012
  63.8080012  97.8134997 -16.4820012  63.0269469  98.1641430 -16.6352374
  73.1170012  98.8274997  -4.3190012  72.2000012  99.0904997  -4.4070012
  73.4520012  98.8244997  -5.2160012  73.0369900  98.8630224  -4.4522081
  71.7190012 102.5784997 -10.2240012  70.9210012 102.1634997 -10.5520012
  72.1640012 101.8874997  -9.7330012  71.6699885 102.4283543 -10.2025111
  61.1770012 108.5064997 -17.6530012  61.7690012 109.2054997 -17.3770012
  61.6360012 108.0734997 -18.3730012  61.3201142 108.5437049 -17.7125170
  59.4930012 101.1704997 -18.5370012  59.4480012 102.1094997 -18.3590012
  58.6050012 100.9344997 -18.8070012  59.3668574 101.2671892 -18.5491088
  72.8050012 111.8344997  -8.6010012  72.6500012 112.5124997  -9.2580012
  73.7380012 111.9064997  -8.3980012  72.9098500 111.9370170  -8.6634881
  60.3010012  95.9524997  -9.8640012  60.0720012  96.0114997 -10.7920012
  59.8580012  95.1604997  -9.5580012  60.2098530  95.8535753  -9.9495214
  59.2310012 109.8924997 -13.7040012  58.3990012 110.3654997 -13.6760012
  59.7770012 110.4024997 -14.3020012  59.1909739 110.0261871 -13.7810284
  58.5190012 112.5054997  -2.3740012  59.0600012 112.2884997  -1.6140012
  58.0380012 111.6994997  -2.5630012  58.5279345 112.3669514  -2.2956924
  63.1170012 111.4244997  -0.7530012  63.8840012 110.9654997  -0.4120012
  63.0950012 111.1984997  -1.6830012  63.2191434 111.3310409  -0.8319957
  67.2090012 110.9324997 -19.3780012  66.5650012 110.3014997 -19.0570012
  67.9710012 110.4014997 -19.6100012  67.2238077 110.7742920 -19.3653989
  69.6940012 109.8044997  -2.0240012  69.3430012 108.9484997  -1.7810012
  70.4200012 109.9474997  -1.4170012  69.7440769 109.7065636  -1.9086381
  71.8130012 110.7494997 -19.1440012  72.0960012 109.9554997 -18.6920012
  72.5530012 110.9824997 -19.7050012  71.9517486 110.6722803 -19.1579302
  58.4260012 106.3154997  -1.4190012  58.5700012 105.4134997  -1.7060012
  57.6540012 106.6014997  -1.9070012  58.3413322 106.2308261  -1.5242119
  62.7680012 106.6594997 -19.2870012  62.8320012 105.8654997 -18.7560012
  63.4210012 106.5404997 -19.9770012  62.8650241 106.5347148 -19.3075683
  65.0820012 106.2854997  -1.9870012  64.7530012 106.5564997  -2.8440012
  65.2340012 105.3444997  -2.0740012  65.0574809 106.1953862  -2.1161756
  70.8160012 106.2014997  -4.6030012  71.5620012 106.7894997  -4.7230012
  70.0590012 106.7834997  -4.5400012  70.8157554 106.3607011  -4.6109093
  59.2590012 103.5154997  -1.9990012  59.6670012 102.6584997  -2.1200012
  58.9990012 103.5304997  -1.0780012  59.2797568 103.4000807  -1.8910412
  63.9170012 104.6314997 -16.9810012  63.4570012 104.1474997 -16.2950012
  64.1720012 103.9634997 -17.6170012  63.8884902 104.4748731 -16.9730666
  63.2060012 102.5244997  -4.6250012  62.5880012 103.1994997  -4.3450012
  63.5500012 102.8454997  -5.4580012  63.1679615 102.6602721  -4.6993419
  64.9880012 102.8744997 -18.7190012  64.8080012 102.7204997 -19.6460012
  65.9380012 102.9824997 -18.6740012  65.0917776 102.8680175 -18.8398157
  68.2260012 104.9964997  -1.3480012  69.1790012 105.0794997  -1.3750012
  68.0650012 104.2844997  -0.7280012  68.3346426 104.9116746  -1.2679421
  74.3780012 105.2294997 -19.2730012  74.1040012 104.8044997 -20.0860012
  74.4170012 106.1604997 -19.4900012  74.3457699 105.2972484 -19.4136390
  63.5450012  99.8794997  -3.5430012  63.6950012  99.1504997  -4.1450012
  63.5480012 100.6564997  -4.1020012  63.5659302  99.8847851  -3.7009308
  63.9580012  98.2494997  -6.0500012  64.4940012  98.7004997  -6.7020012
  63.1060012  98.1414997  -6.4730012  63.9162178  98.2966390  -6.1964244
  65.5400012 103.6884997  -5.8110012  66.2900012 103.5324997  -6.3840012
  65.2010012 104.5404997  -6.0860012  65.5968921 103.7822968  -5.9266439
  69.9550012 101.5034997  -0.7820012  70.1480012 100.5724997  -0.8940012
  70.8130012 101.9284997  -0.7920012  70.0973020 101.4336389  -0.7986639
  71.2720012 104.2924997  -2.7050012  70.9910012 105.0014997  -3.2820012
  72.2150012 104.2194997  -2.8560012  71.3609027 104.3797646  -2.8044449
  62.0240012 101.0774997  -1.6310012  61.2570012 100.5454997  -1.8410012
  62.7030012 100.7674997  -2.2310012  62.0107022 100.9627506  -1.7408352
  64.7640012  95.7054997  -5.6190012  64.6650012  96.6524997  -5.7240012
  64.0210012  95.3334997  -6.0940012  64.6500564  95.7845902  -5.6975440
  66.0280012 100.0274997  -2.0550012  65.7920012  99.8074997  -1.1530012
  65.2440012  99.8204997  -2.5650012  65.8898628  99.9694760  -2.0006068
  68.7430012  99.1544997  -2.9790012  67.7960012  99.1864997  -2.8470012
  69.0560012  98.5294997  -2.3260012  68.6555475  99.0743207  -2.8725545
  70.3770012  97.7884997  -0.9740012  70.2810012  96.8364997  -0.9800012
  70.0560012  98.0574997  -0.1140012  70.3204070  97.6944035  -0.8584559
  60.2040012  98.9984997  -1.9270012  60.4160012  98.2914997  -2.5370012
  60.0930012  98.5604997  -1.0830012  60.2179721  98.8427084  -1.8963157
  64.9850012  94.9994997  -2.9470012  65.6970012  94.3594997  -2.9610012
  64.8840012  95.2664997  -3.8610012  65.0687939  94.9479938  -3.0724350
  65.3390012  96.6824997  -0.8940012  65.2070012  96.2064997  -1.7140012
  64.7400012  97.4264997  -0.9490012  65.2399071  96.7179618  -1.0137114
  64.8850012 113.5654997 -17.7170012  65.8180012 113.7234997 -17.5740012
  64.6210012 114.2404997 -18.3420012  64.9769510 113.6783611 -17.7819259
  58.4540012 108.2014997 -18.2350012  59.3680012 108.2804997 -17.9610012
  58.4610012 107.5144997 -18.9010012  58.5801131 108.1193961 -18.2875607
  57.1030012 113.5944997 -13.1570012  56.4560012 113.1324997 -13.6900012
  57.4570012 112.9224997 -12.5750012  57.0623849 113.4404723 -13.1512041
  57.9730012 111.6754997 -11.3530012  57.6380012 110.7954997 -11.1810012
  58.1950012 112.0204997 -10.4880012  57.9571783 111.6017500 -11.2125792
  75.5210012 112.4844997  -8.3720012  75.5000012 112.6694997  -7.4330012
  76.2120012 113.0534997  -8.7130012  75.6114618 112.5866606  -8.2896136
  75.0850012 112.0524997  -5.4500012  74.5970012 111.3164997  -5.8210012
  75.6340012 111.6584997  -4.7720012  75.0924872 111.8986249  -5.4090840
  73.5350012 107.8414997  -0.8120012  72.6690012 107.7364997  -0.4180012
  73.9120012 108.6004997  -0.3660012  73.4673308 107.9296900  -0.6977607
  74.8360012 106.0984997 -15.2980012  75.6860012 106.5194997 -15.1710012
  74.8420012 105.3584997 -14.6910012  74.9531372 106.0560803 -15.1985656
  75.2310012 104.1514997 -13.4740012  74.5040012 103.6724997 -13.0770012
  75.8120012 104.3574997 -12.7420012  75.2099375 104.1137090 -13.3205871
  74.9900012 106.9364997  -8.5270012  75.8230012 106.5584997  -8.8070012
  75.1020012 107.8794997  -8.6460012  75.1192647 107.0122218  -8.5814513
  73.4760012 109.8144997  -6.2200012  72.8290012 110.1394997  -5.5940012
  72.9590012 109.3744997  -6.8940012  73.3174029 109.7995004  -6.2254173
  75.4990012 104.0524997 -17.0830012  74.9770012 104.4094997 -17.8020012
  75.4660012 104.7274997 -16.4050012  75.4231634 104.1925413 -17.0896855
  73.8480012 101.2924997 -18.5320012  73.9440012 101.9594997 -19.2130012
  73.7080012 100.4764997 -19.0140012  73.8422135 101.2734500 -18.6901509
  73.0170012 102.6724997 -12.9110012  72.8670012 101.7274997 -12.9320012
  72.6640012 102.9534997 -12.0680012  72.9486625 102.5810441 -12.7997654
  58.0530012 104.7504997  -8.9010012  58.2370012 104.6684997  -9.8370012
  58.9020012 104.6264997  -8.4770012  58.1930139 104.7225003  -8.9718545
  73.8740012 104.6424997  -3.2730012  74.4570012 103.9084997  -3.0810012
  74.4380012 105.4144997  -3.2260012  74.0299769 104.6464227  -3.2403841
  75.3700012 102.5454997  -2.5880012  74.5070012 102.1664997  -2.7540012
  75.9750012 101.8064997  -2.6620012  75.3335979 102.3938023  -2.6207183
  73.0950012  98.7004997 -19.4150012  73.7060012  98.3294997 -18.7780012
  72.2590012  98.2794997 -19.2190012  73.0655032  98.5927554 -19.3012965
  72.7280012 100.2554997 -14.4490012  73.0080012  99.3484997 -14.3250012
  73.4870012 100.6894997 -14.8380012  72.8689277 100.1900942 -14.4846318
  73.3400012 100.8364997  -9.0130012  74.2730012 101.0484997  -9.0470012
  73.1050012 100.9384997  -8.0910012  73.4358036 100.8792769  -8.8930024
  73.3690012 101.5734997  -6.2370012  72.5260012 101.8414997  -5.8710012
  73.8110012 102.3954997  -6.4480012  73.3134158 101.7213291  -6.2154509
  57.6500012 100.0214997  -2.7600012  58.5700012  99.8994997  -2.5240012
  57.2010012  99.2714997  -2.3710012  57.7151580  99.9033727  -2.6750994
  75.6520012  95.5534997  -0.8840012  76.0020012  94.8994997  -1.4890012
  75.7990012  96.3904997  -1.3230012  75.7198419  95.5771591  -1.0262882
  73.3410012  97.5184997 -14.4010012  73.5240012  97.0694997 -13.5750012
  72.7420012  96.9334997 -14.8640012  73.2850202  97.3779975 -14.3506725
  58.8710012  98.3334997  -9.8690012  59.3170012  97.5414997  -9.5670012
  59.3380012  99.0494997  -9.4380012  58.9950172  98.3220624  -9.7695180
  57.1750012 101.3324997  -8.8000012  57.6670012 101.1114997  -9.5910012
  57.5380012 102.1734997  -8.5190012  57.2913126 101.4158357  -8.8702469
  75.1720012  97.6624997  -2.5340012  74.2540012  97.9334997  -2.5700012
  75.2950012  97.1274997  -3.3190012  75.0631066  97.6272892  -2.6449513
  75.2080012  97.5854997 -17.8730012  75.6200012  96.8644997 -18.3480012
  75.8900012  98.2554997 -17.8140012  75.3565885  97.5772368 -17.9301085
  57.4890012  97.5904997 -14.7460012  56.5640012  97.7994997 -14.8750012
  57.9430012  98.0744997 -15.4350012  57.4237368  97.6845993 -14.8568774
  72.2600012 112.5744997 -12.8000012  72.9120012 112.2274997 -13.4080012
  72.7700012 113.0634997 -12.1540012  72.4182637 112.5930597 -12.7959764
  57.4530012  96.3284997  -6.4010012  56.7880012  96.0824997  -5.7580012
  57.0100012  96.9504997  -6.9790012  57.3020956  96.3788632  -6.3910648
  59.6450012 109.5034997  -2.2570012  58.8240012 109.6784997  -2.7170012
  59.3920012 109.4304997  -1.3360012  59.4986164 109.5175622  -2.1955077
  62.5990012 110.4784997  -5.9980012  62.1740012 111.2874997  -6.2810012
  63.5030012 110.5634997  -6.3000012  62.6630271 110.6008469  -6.0776224
  66.9100012 111.8774997  -3.0390012  67.0950012 111.5434997  -2.1610012
  67.7560012 112.1864997  -3.3610012  67.0497539 111.8736047  -2.9624395
  69.2550012 113.1634997  -3.7950012  69.9320012 112.5304997  -4.0350012
  69.5770012 113.5644997  -2.9880012  69.3911637 113.1311154  -3.7187207
  74.1720012  95.7524997  -4.7150012  73.3600012  96.0774997  -5.1030012
  74.4050012  94.9924997  -5.2480012  74.0923423  95.6942436  -4.8401747
  60.0010012 113.7344997  -5.9510012  59.2800012 114.1744997  -6.4020012
  59.6350012 113.4834997  -5.1020012  59.8529804 113.7607698  -5.8980160
  62.4680012 113.3344997  -6.9210012  61.6030012 113.4064997  -6.5170012
  62.4130012 113.8814997  -7.7050012  62.3422085 113.4182685  -6.9716638
  67.1780012 113.2224997  -7.7460012  66.7220012 113.7514997  -8.4000012
  67.3410012 113.8254997  -7.0200012  67.1375585 113.3764468  -7.7374938
  69.5060012 112.1004997  -6.8010012  68.6010012 112.2654997  -7.0660012
  69.9350012 112.9534997  -6.8660012  69.4400799 112.2384483  -6.8460818
  72.1100012 113.6704997  -6.5060012  71.9280012 114.5864997  -6.7160012
  72.2870012 113.2604997  -7.3520012  72.1090210 113.7404822  -6.6492115
  59.4150012 112.3574997  -9.0410012  59.3970012 111.9324997  -8.1830012
  60.2200012 112.0394997  -9.4490012  59.5213875 112.2563812  -8.9788345
  61.5570012 111.0674997 -10.3860012  61.3380012 110.1514997 -10.2160012
  62.3810012 111.2074997  -9.9200012  61.6384420 110.9610520 -10.2997226
  64.0940012 111.5374997  -9.5370012  64.3070012 110.6494997  -9.8240012
  64.1580012 111.5034997  -8.5830012  64.1318231 111.4113102  -9.4472603
  67.6020012  97.2014997 -10.3930012  66.9280012  96.5724997 -10.1370012
  68.1660012  96.7174997 -10.9960012  67.5859230  97.0498744 -10.4394660
  72.7450012  95.3094997 -10.2800012  73.3490012  95.8564997 -10.7820012
  71.8750012  95.6284997 -10.5200012  72.7101241  95.4275806 -10.3812346
  74.4720012  96.4474997 -11.9470012  75.0840012  95.9334997 -12.4730012
  74.8540012  97.3254997 -11.9230012  74.6074540  96.4957140 -12.0158170
  59.9290012  95.8354997 -12.5710012  59.1520012  95.6014997 -13.0780012
  60.4590012  95.0384997 -12.5620012  59.8942330  95.6956988 -12.6392258
  58.7650012  95.6334997 -16.7670012  59.2040012  96.2444997 -17.3590012
  58.1320012  96.1714997 -16.2930012  58.7394514  95.7899257 -16.7839070
  64.5080012  95.7624997 -12.7570012  65.3830012  96.1504997 -12.7870012
  64.3720012  95.5474997 -11.8350012  64.6093695  95.7865184 -12.6363560
  70.0650012  95.7924997 -11.1080012  70.1410012  95.8874997 -12.0580012
  69.7900012  94.8844997 -10.9790012  70.0382321  95.6827867 -11.2204921
  71.4180012  95.8184997 -15.4160012  70.7160012  96.4334997 -15.6250012
  70.9740012  94.9804997 -15.2850012  71.2616330  95.7895783 -15.4269672
  58.6660012 111.5814997 -15.8690012  57.9810012 111.5434997 -16.5370012
  58.6700012 112.4944997 -15.5810012  58.5728193 111.6997016 -15.9214716
  60.6260012  97.5494997 -18.3250012  61.1180012  96.9194997 -18.8520012
  61.2500012  97.8454997 -17.6610012  60.7775446  97.5033199 -18.3074020
  65.6520012  97.8424997 -15.8680012  65.8300012  97.1964997 -15.1850012
  65.5990012  98.6764997 -15.4000012  65.6691829  97.8667985 -15.7114060
  67.5310012 112.7914997 -17.4720012  68.3970012 113.1574997 -17.6500012
  67.2840012 112.3514997 -18.2860012  67.6162392 112.7821756 -17.6063711
  74.2400012 112.3544997 -14.7930012  74.0450012 111.6064997 -15.3580012
  74.2010012 113.1124997 -15.3760012  74.2080380 112.3546099 -14.9491616
  59.8870012  96.3494997  -3.0530012  59.5210012  95.5844997  -2.6100012
  60.8000012  96.3784997  -2.7660012  59.9602790  96.2487224  -2.9535930
  61.8600012  95.7004997  -1.5170012  62.7580012  95.4264997  -1.7020012
  61.4730012  94.9574997  -1.0530012  61.9306612  95.5625914  -1.4796357
  60.4840012 112.5014997 -18.8440012  60.2170012 112.7884997 -17.9710012
  61.2560012 111.9554997 -18.6920012  60.5517488 112.4670294 -18.7038950
  70.2810012  95.0324997  -1.3350012  70.3580012  94.6064997  -0.4810012
  71.1750012  95.0464997  -1.6780012  70.4123428  94.9760879  -1.2644690
  73.4570012 111.1054997  -2.6430012  72.6750012 110.9194997  -3.1620012
  73.3850012 112.0344997  -2.4250012  73.3401777 111.2056492  -2.6845952
  87.8630012 104.9914997 -12.6120012  87.9520012 105.9354997 -12.7440012
  87.2250012 104.7164997 -13.2700012  87.7889081 105.0834830 -12.7190386
  86.7960012 104.2464997  -9.1930012  86.7580012 103.6004997  -8.4880012
  86.4740012 103.7804997  -9.9640012  86.7472333 104.0949408  -9.2007022
  79.1650012 103.8614997  -7.6000012  79.2060012 103.2354997  -6.8770012
  79.8680012 104.4854997  -7.4180012  79.2656363 103.8601196  -7.4763956
  90.5020012 107.1854997 -10.8920012  90.0620012 106.4654997 -10.4410012
  90.4890012 107.9064997 -10.2620012  90.4400226 107.1843731 -10.7451506
  80.0880012 108.3114997  -9.0650012  79.7190012 107.5094997  -9.4350012
  81.0290012 108.1424997  -9.0190012  80.1647289 108.1790153  -9.1093684
  76.6980012 101.9714997 -13.6720012  76.2510012 102.8174997 -13.6910012
  76.1370012 101.3914997 -14.1880012  76.5609900 102.0089916 -13.7443199
  77.4090012 104.1334997 -11.5460012  77.6220012 103.3634997 -11.0190012
  78.1470012 104.2224997 -12.1500012  77.5378496 104.0401394 -11.5554700
  87.6140012 112.2904997 -10.6790012  88.2340012 111.6134997 -10.9530012
  87.4060012 112.0724997  -9.7710012  87.6706904 112.1683870 -10.5936635
  85.1860012 106.6794997  -8.7870012  85.4900012 105.9934997  -9.3820012
  85.9070012 106.7974997  -8.1690012  85.3250671 106.6016305  -8.7848184
  93.8490012  98.2804997  -7.9260012  93.8980012  98.8904997  -7.1900012
  94.2740012  98.7414997  -8.6490012  93.9131824  98.4263741  -7.9229795
  88.3270012 101.0734997  -8.4590012  88.4690012 100.1274997  -8.4390012
  88.2200012 101.2804997  -9.3880012  88.3319864 100.9719534  -8.5817661
  81.4810012  99.1744997 -11.1870012  81.5250012 100.0344997 -11.6050012
  81.0240012  98.6224997 -11.8210012  81.4252185  99.2175799 -11.3299701
  89.2040012  99.3054997 -12.7860012  89.8500012  98.9764997 -12.1610012
  89.7140012  99.8234997 -13.4090012  89.3614264  99.3304611 -12.7846138
  78.1020012 101.5714997 -10.4250012  78.7550012 101.0214997  -9.9930012
  78.1260012 101.2974997 -11.3420012  78.1946683 101.4591466 -10.4897877
  83.2580012 103.1214997 -11.2100012  83.8740012 102.5954997 -10.7000012
  82.6720012 102.4814997 -11.6130012  83.2630810 102.9629208 -11.1946827
  94.2400012  99.7584997  -5.6900012  93.5520012 100.4164997  -5.7860012
  94.2560012  99.5614997  -4.7540012  94.1478525  99.8220462  -5.5765192
  80.2920012  98.0924997  -7.1130012  80.0730012  98.6224997  -7.8790012
  79.6240012  98.3194997  -6.4660012  80.1717600  98.1956906  -7.1303621
  87.6610012 107.5924997 -13.5690012  87.3650012 107.2704997 -14.4200012
  87.3360012 108.4924997 -13.5280012  87.5766371 107.6700215 -13.6798199
  82.8610012 105.7684997  -6.8260012  82.1210012 106.3664997  -6.7220012
  83.5750012 106.3224997  -7.1410012  82.8562237 105.9252831  -6.8543535
  90.9680012  98.5964997 -10.8060012  90.7520012  97.8304997 -10.2730012
  91.6230012  99.0684997 -10.2930012  91.0270632  98.5555889 -10.6637139
  79.8850012  99.9844997  -9.1610012  80.4990012 100.6174997  -8.7870012
  80.3970012  99.5124997  -9.8170012  80.0382296 100.0072370  -9.1985748
  81.2680012 107.7324997  -6.0380012  81.2630012 108.6124997  -6.4160012
  80.4150012 107.6494997  -5.6130012  81.1519464 107.8416117  -6.0322093
  77.3890012 107.4034997 -15.2560012  77.1170012 107.6324997 -16.1450012
  77.4350012 108.2414997 -14.7960012  77.3580094 107.5481213 -15.3154303
  91.0140012 109.0254997  -8.5440012  90.0730012 109.0834997  -8.3820012
  91.2910012 109.9314997  -8.6810012  90.9224679 109.1559443  -8.5403185
  91.3150012  97.3114997  -7.1260012  90.5790012  97.9224997  -7.1640012
  91.9980012  97.7264997  -7.6530012  91.3066541  97.4511374  -7.2024168
  84.3180012  95.3984997  -9.6600012  84.2010012  94.4494997  -9.7150012
  83.4630012  95.7304997  -9.3870012  84.1863733  95.3135409  -9.6306103
  89.2660012 110.8064997 -11.9180012  89.6920012 110.0994997 -12.4030012
  89.5830012 111.6074997 -12.3350012  89.3671019 110.8180994 -12.0406870
  90.4260012 108.7074997 -13.4100012  90.1680012 108.0174997 -14.0210012
  90.4970012 108.2644997 -12.5640012  90.4002856 108.5532124 -13.3793115
  92.1120012 107.2734997  -4.9320012  92.2520012 106.6824997  -5.6720012
  92.2790012 108.1464997  -5.2890012  92.1536778 107.3106426  -5.0813035
  86.5850012 104.2354997 -15.1600012  85.8730012 104.7704997 -15.5120012
  87.2760012 104.2914997 -15.8200012  86.5810132 104.3162543 -15.2973711
  86.6380012 102.6934997 -18.1210012  87.3390012 102.7154997 -17.4700012
  86.9410012 102.0654997 -18.7770012  86.7747830 102.6116566 -18.1206289
  93.9540012 103.6134997  -6.8660012  93.3010012 104.3084997  -6.7770012
  94.4190012 103.8234997  -7.6760012  93.9275390 103.7369425  -6.9633117
  89.9900012 104.4454997 -14.2080012  89.2580012 104.6734997 -13.6350012
  90.4380012 103.7314997 -13.7530012  89.9503095 104.3802571 -14.0680881
  89.8880012 102.6194997  -5.1410012  89.9680012 103.3824997  -4.5690012
  89.2860012 102.8984997  -5.8310012  89.8175756 102.7617134  -5.1559411
  81.6360012 105.0754997 -12.3260012  81.3050012 104.7054997 -13.1440012
  82.2240012 104.4054997 -11.9790012  81.6701873 104.9341156 -12.3911898
  83.0020012 108.5034997  -9.6440012  82.9080012 107.9254997 -10.4010012
  83.7320012 108.1324997  -9.1480012  83.0877981 108.3742390  -9.6805835
  82.0020012 103.8444997  -8.6920012  82.5680012 103.9654997  -9.4550012
  82.3210012 104.4814997  -8.0530012  82.1225786 103.9471884  -8.7099960
  88.3110012 109.3474997  -7.9580012  88.0710012 110.0094997  -7.3100012
  88.1130012 108.5134997  -7.5330012  88.2513808 109.3253134  -7.8118476
  82.8820012 108.2434997  -3.9750012  82.5710012 109.0254997  -3.5200012
  82.2320012 108.0904997  -4.6610012  82.7515558 108.3299105  -4.0054129
  88.8610012 103.6074997 -16.5230012  89.4410012 103.7574997 -15.7760012
  89.2750012 104.0784997 -17.2460012  88.9962830 103.6916841 -16.5185866
  79.8020012 104.4414997  -4.7460012  79.8730012 105.0924997  -4.0480012
  78.9120012 104.5444997  -5.0810012  79.6913117 104.5445936  -4.6957300
  86.5880012 110.3444997 -13.0880012  87.0620012 110.6394997 -12.3100012
  86.0250012 111.0824997 -13.3210012  86.5767653 110.4846932 -13.0129864
  81.1220012 110.3154997  -3.2120012  81.1290012 110.1794997  -4.1590012
  80.2060012 110.1974997  -2.9600012  80.9991714 110.2809430  -3.3075334
  92.5600012  95.3574997 -16.7100012  91.6600012  95.4964997 -16.4150012
  92.8120012  96.1884997 -17.1120012  92.4708702  95.4889074 -16.7239795
  80.6260012 104.1454997 -14.7360012  80.3340012 104.9134997 -15.2270012
  79.9520012 103.4854997 -14.8990012  80.4949081 104.1614406 -14.8252660
  93.7490012 109.7234997 -18.3340012  93.8230012 110.6624997 -18.1630012
  94.6550012 109.4184997 -18.3900012  93.8815100 109.8106722 -18.3181881
  76.7190012 106.5084997  -5.9210012  76.2180012 106.4804997  -6.7360012
  76.7240012 105.6024997  -5.6120012  76.6511526 106.3822278  -5.9907128
  76.4690012 109.2884997  -9.0370012  77.4150012 109.1444997  -9.0560012
  76.3570012 110.0724997  -8.5000012  76.5832727 109.3748046  -8.9669928
  94.6670012 109.9544997  -3.3550012  94.6180012 108.9994997  -3.3920012
  93.8400012 110.2224997  -2.9540012  94.5484940 109.8598998  -3.3058625
  85.6460012 109.5284997  -4.4790012  85.7330012 110.3544997  -4.0040012
  84.7820012 109.1984997  -4.2300012  85.5411964 109.5969878  -4.3803451
  86.0600012 113.3004997 -14.6730012  85.9850012 113.1794997 -15.6190012
  86.0930012 114.2504997 -14.5540012  86.0541848 113.4122500 -14.7865166
  79.7130012 112.0894997 -12.8920012  79.8660012 111.7414997 -12.0130012
  78.8630012 111.7334997 -13.1470012  79.6188962 111.9936650 -12.8061660
  89.1620012 112.4544997 -17.6710012  89.5370012 111.7104997 -18.1410012
  89.1660012 112.1844997 -16.7520012  89.2138915 112.3161486 -17.6112176
  88.8310012 112.3804997 -14.9210012  87.8950012 112.4804997 -14.7430012
  89.1110012 111.6714997 -14.3430012  88.7408255 112.2982711 -14.8184609
  91.8190012 101.4474997  -2.8750012  91.4120012 101.9284997  -3.5960012
  91.8600012 100.5424997  -3.1830012  91.7688437 101.3909374  -3.0153317
  78.9680012 107.8314997  -4.8780012  79.1840012 107.4704997  -4.0190012
  78.1130012 107.4574997  -5.0880012  78.8819292 107.7314111  -4.7886614
  81.5870012  96.3014997  -8.8830012  80.7250012  96.2144997  -9.2900012
  81.5640012  97.1574997  -8.4550012  81.4660330  96.4052765  -8.8808137
  86.2500012  96.0234997  -5.5080012  86.6700012  95.6084997  -4.7550012
  85.3170012  95.8454997  -5.3910012  86.1813644  95.9425900  -5.3890461
  89.5760012  99.7794997  -4.6550012  89.0620012  99.6534997  -3.8570012
  89.4210012 100.6914997  -4.8990012  89.4846852  99.8856132  -4.5787842
  90.3390012 104.6404997 -18.8930012  90.3810012 104.4174997 -19.8230012
  91.1880012 105.0394997 -18.7030012  90.4595396 104.6639155 -18.9946373
  85.9110012  98.5164997 -18.2230012  85.6580012  98.5354997 -17.3000012
  85.6550012  97.6444997 -18.5240012  85.8417790  98.4012437 -18.1373737
  81.6780012 101.2674997  -7.7880012  81.0360012 101.2264997  -7.0790012
  81.7150012 102.1934997  -8.0250012  81.5951324 101.3871559  -7.7230176
  81.6750012 101.4884997 -12.8760012  80.7820012 101.1474997 -12.9340012
  82.1250012 101.1114997 -13.6310012  81.6137305 101.3908484 -12.9860823
  87.2100012 101.9044997 -14.0590012  86.8010012 102.7194997 -14.3500012
  87.9310012 101.7644997 -14.6730012  87.2514537 101.9972018 -14.1818658
  86.3120012 102.0794997  -2.5710012  85.7500012 101.3754997  -2.2500012
  87.1390012 101.9594997  -2.1030012  86.3467095 101.9667883  -2.4637670
  88.2150012 101.3504997 -11.2450012  88.0200012 101.9554997 -11.9600012
  88.3960012 100.5164997 -11.6790012  88.2127614 101.3206300 -11.4015595
  79.4280012 101.5874997  -5.9210012  79.3900012 101.9874997  -5.0520012
  78.9370012 100.7704997  -5.8300012  79.3564684 101.5318069  -5.7898941
  82.7940012  98.9614997 -19.1220012  82.3630012  98.5164997 -18.3920012
  82.0760012  99.3334997 -19.6340012  82.6379438  98.9508940 -19.0913201
  76.0360012  98.7034997 -12.0700012  76.6670012  98.6744997 -11.3510012
  76.4850012  98.2784997 -12.8000012  76.1830774  98.6420492 -12.0703447
  77.3100012  99.4494997 -16.6460012  77.7840012 100.0404997 -17.2310012
  76.5930012  99.9804997 -16.2990012  77.2779341  99.6020867 -16.6791164
  87.4790012 102.9884997  -6.5730012  87.8020012 102.3574997  -7.2160012
  87.0390012 102.4534997  -5.9130012  87.4636895 102.8298441  -6.5717150
  84.2560012  98.9154997 -11.7890012  83.3450012  98.9724997 -11.5010012
  84.7620012  98.8554997 -10.9790012  84.1995413  98.9151985 -11.6399378
  79.0850012 100.5444997 -12.9630012  78.1950012 100.6444997 -13.3030012
  79.3810012  99.7024997 -13.3090012  79.0032823 100.4443545 -13.0562787
  82.7380012 100.5444997 -15.3060012  83.6690012 100.6734997 -15.1280012
  82.5230012 101.2144997 -15.9560012  82.8364247 100.6526565 -15.3694253
  88.6610012  98.1504997  -8.5250012  87.9850012  98.2814997  -7.8610012
  88.1760012  97.9954997  -9.3350012  88.5027145  98.1474905  -8.5435483
  81.4120012 101.7394997 -17.7390012  80.8690012 101.3594997 -18.4310012
  82.2450012 101.9334997 -18.1680012  81.4504399 101.7138124 -17.8915474
  91.9490012 113.8224997  -2.2480012  92.1490012 114.2464997  -3.0830012
  92.6040012 114.1654997  -1.6410012  92.0650051 113.9269648  -2.2802164
  79.5470012 106.2964997  -2.6400012  80.2790012 106.5504997  -2.0790012
  78.7670012 106.5004997  -2.1250012  79.5418232 106.3589177  -2.4934240
  85.5760012 101.7034997  -9.9020012  86.1410012 101.1564997 -10.4490012
  85.4290012 101.1814997  -9.1140012  85.6332918 101.5582024  -9.8701546
  80.5780012  97.8394997 -13.4840012  80.2610012  96.9374997 -13.5190012
  81.3600012  97.8414997 -14.0370012  80.6402284  97.7161628 -13.5635217
  84.2030012 100.0914997  -7.4880012  83.3670012 100.5454997  -7.3780012
  84.7270012 100.3674997  -6.7360012  84.1594414 100.1909376  -7.3712864
  84.7470012 106.3044997 -15.8040012  84.0020012 105.7974997 -16.1260012
  84.6130012 106.3534997 -14.8570012  84.6268776 106.2416940 -15.7201353
  91.8970012 105.4374997  -7.0170012  92.5390012 105.8944997  -7.5610012
  91.0670012 105.5504997  -7.4800012  91.8725963 105.5152704  -7.1539823
  88.6450012  99.1184997 -17.6040012  87.7060012  99.2304997 -17.7560012
  88.9420012  99.9754997 -17.2980012  88.5567666  99.2496443 -17.5834232
  86.2660012 106.4884997  -4.5670012  85.9210012 106.1074997  -3.7600012
  86.0660012 107.4224997  -4.4950012  86.1918061 106.5625228  -4.4469039
  89.3630012 100.9854997 -15.9440012  90.2550012 100.8484997 -15.6250012
  89.4200012 101.7764997 -16.4800012  89.4926285 101.0736660 -15.9728309
  79.8720012 105.5994997 -10.0340012  80.6170012 105.5974997 -10.6350012
  79.9500012 104.7764997  -9.5520012  79.9845518 105.4879315 -10.0511071
  86.8730012 107.7634997 -16.7780012  86.5770012 108.5894997 -16.3970012
  86.1700012 107.1434997 -16.5820012  86.7374914 107.7928199 -16.6993557
  76.8800012 104.0604997  -4.7190012  77.1030012 103.6424997  -3.8870012
  76.2780012 103.4474997  -5.1420012  76.8291759 103.9204668  -4.6622978
  83.8960012 103.5774997  -2.5060012  83.6000012 103.4114997  -3.4010012
  84.8280012 103.3574997  -2.5170012  83.9814166 103.5250640  -2.6299464
  88.5170012 108.9504997  -4.6160012  87.6160012 109.1334997  -4.8840012
  88.5510012 109.2094997  -3.6950012  88.3983041 109.0105512  -4.5281803
  94.2480012 101.1954997 -16.2490012  93.6940012 100.7994997 -16.9210012
  94.3480012 102.1054997 -16.5270012  94.1857059 101.2643586 -16.3785599
  94.2110012 106.9954997  -3.4120012  93.3600012 107.2334997  -3.7790012
  94.8020012 106.9784997  -4.1650012  94.1742487 107.0258258  -3.5641107
  92.5430012 109.9814997 -15.7840012  92.1700012 109.1554997 -15.4750012
  92.8210012 109.7984997 -16.6810012  92.5295630 109.8437303 -15.8630374
  89.7040012 104.7894997  -8.7630012  88.7750012 104.5574997  -8.7900012
  90.1550012 104.0124997  -9.0930012  89.6379216 104.6527238  -8.8113083
  82.2470012 109.1174997 -12.6300012  82.7740012 109.8904997 -12.8300012
  81.3670012 109.3424997 -12.9310012  82.2001773 109.2538005 -12.6980990
  78.0020012 103.9794997 -18.0430012  78.6180012 104.6064997 -17.6630012
  77.1400012 104.2954997 -17.7710012  77.9697698 104.1079430 -17.9542817
  83.6740012 106.7804997 -13.0530012  83.4330012 107.7054997 -13.0120012
  82.9330012 106.3214997 -12.6570012  83.5408409 106.8451421 -12.9938623
  84.1890012 110.9294997  -6.7380012  84.5510012 111.7844997  -6.9720012
  84.7200012 110.6374997  -5.9980012  84.3104473 111.0071060  -6.6699145
  82.3570012 111.8024997 -13.5080012  81.4070012 111.9074997 -13.4570012
  82.7090012 112.6224997 -13.1630012  82.2744203 111.9278314 -13.4543350
  87.7330012 107.0284997  -7.0380012  87.3070012 106.8014997  -6.2110012
  88.3130012 106.2904997  -7.2200012  87.7531868 106.8975299  -6.9494170
  89.9360012 107.9574997 -17.9640012  90.2890012 107.5774997 -17.1590012
  88.9870012 107.8644997 -17.8770012  89.8560441 107.8929596 -17.8421441
  90.3910012 111.5804997  -4.5680012  89.7900012 111.0254997  -5.0640012
  90.6730012 112.2474997  -5.1940012  90.3468519 111.5946841  -4.7205048
  94.4390012 112.4374997 -17.7630012  95.1830012 113.0234997 -17.9030012
  93.7450012 113.0054997 -17.4290012  94.4470292 112.5945582 -17.7370039
  78.5140012  98.8134997  -5.1610012  77.6210012  99.1524997  -5.2290012
  78.4150012  97.9584997  -4.7430012  78.3784164  98.7442588  -5.1137765
  90.8020012 106.6304997 -15.7370012  90.5240012 105.9024997 -15.1810012
  91.7290012 106.7494997 -15.5320012  90.8893124 106.5468802 -15.6331155
  78.1650012 110.6184997  -6.7260012  78.3820012 109.6864997  -6.7570012
  78.4110012 110.8924997  -5.8430012  78.2279549 110.5280636  -6.6108237
  84.0270012 109.0694997 -19.5170012  84.2660012 108.3214997 -20.0640012
  83.7580012 108.6814997 -18.6840012  84.0233675 108.9146638 -19.4793135
  82.9640012 108.6394997 -17.0600012  83.1100012 108.1194997 -16.2700012
  82.9610012 109.5464997 -16.7540012  82.9835989 108.6908853 -16.9103912
  79.4170012 105.8924997 -16.5500012  78.7310012 106.2444997 -15.9830012
  79.9390012 106.6554997 -16.7970012  79.3936852 106.0438578 -16.5057882
  87.2480012  98.5544997  -6.2710012  87.9470012  98.6284997  -5.6210012
  86.8670012  97.6904997  -6.1170012  87.2921767  98.4477624  -6.1611678
  88.0330012  98.2064997 -15.1740012  88.2530012  98.6784997 -15.9770012
  88.5910012  98.6014997 -14.5040012  88.1384968  98.3244285 -15.1932669
  85.7010012 110.3374997 -16.3110012  84.8850012 110.8344997 -16.2590012
  86.2310012 110.8124997 -16.9510012  85.6609161 110.4697722 -16.3904044
  85.2330012  99.9344997 -14.3390012  86.0450012 100.4394997 -14.2930012
  84.9880012  99.7894997 -13.4250012  85.3110520  99.9840375 -14.2091483
  85.7680012 100.9204997  -5.1540012  85.8870012 101.4944997  -4.3970012
  86.4240012 100.2324997  -5.0400012  85.8729757 100.9061079  -5.0349175
  86.1160012  97.0154997 -13.4010012  85.7700012  97.6334997 -12.7560012
  86.7750012  97.5164997 -13.8820012  86.1577826  97.1675802 -13.3779029
  83.0400012 111.3814997 -16.3290012  83.2000012 112.1804997 -16.8300012
  82.8420012 111.6874997 -15.4440012  83.0351649 111.5324469 -16.2780185
  81.7740012  98.0784997 -16.7140012  81.6910012  98.9674997 -16.3670012
  82.6640012  97.8134997 -16.4820012  81.8829469  98.1641430 -16.6352374
  91.9730012  98.8274997  -4.3190012  91.0560012  99.0904997  -4.4070012
  92.3080012  98.8244997  -5.2160012  91.8929900  98.8630224  -4.4522081
  90.5750012 102.5784997 -10.2240012  89.7770012 102.1634997 -10.5520012
  91.0200012 101.8874997  -9.7330012  90.5259885 102.4283543 -10.2025111
  80.0330012 108.5064997 -17.6530012  80.6250012 109.2054997 -17.3770012
  80.4920012 108.0734997 -18.3730012  80.1761142 108.5437049 -17.7125170
  78.3490012 101.1704997 -18.5370012  78.3040012 102.1094997 -18.3590012
  77.4610012 100.9344997 -18.8070012  78.2228574 101.2671892 -18.5491088
  91.6610012 111.8344997  -8.6010012  91.5060012 112.5124997  -9.2580012
  92.5940012 111.9064997  -8.3980012  91.7658500 111.9370170  -8.6634881
  79.1570012  95.9524997  -9.8640012  78.9280012  96.0114997 -10.7920012
  78.7140012  95.1604997  -9.5580012  79.0658530  95.8535753  -9.9495214
  78.0870012 109.8924997 -13.7040012  77.2550012 110.3654997 -13.6760012
  78.6330012 110.4024997 -14.3020012  78.0469739 110.0261871 -13.7810284
  77.3750012 112.5054997  -2.3740012  77.9160012 112.2884997  -1.6140012
  76.8940012 111.6994997  -2.5630012  77.3839345 112.3669514  -2.2956924
  81.9730012 111.4244997  -0.7530012  82.7400012 110.9654997  -0.4120012
  81.9510012 111.1984997  -1.6830012  82.0751434 111.3310409  -0.8319957
  86.0650012 110.9324997 -19.3780012  85.4210012 110.3014997 -19.0570012
  86.8270012 110.4014997 -19.6100012  86.0798077 110.7742920 -19.3653989
  88.5500012 109.8044997  -2.0240012  88.1990012 108.9484997  -1.7810012
  89.2760012 109.9474997  -1.4170012  88.6000769 109.7065636  -1.9086381
  90.6690012 110.7494997 -19.1440012  90.9520012 109.9554997 -18.6920012
  91.4090012 110.9824997 -19.7050012  90.8077486 110.6722803 -19.1579302
  77.2820012 106.3154997  -1.4190012  77.4260012 105.4134997  -1.7060012
  76.5100012 106.6014997  -1.9070012  77.1973322 106.2308261  -1.5242119
  81.6240012 106.6594997 -19.2870012  81.6880012 105.8654997 -18.7560012
  82.2770012 106.5404997 -19.9770012  81.7210241 106.5347148 -19.3075683
  83.9380012 106.2854997  -1.9870012  83.6090012 106.5564997  -2.8440012
  84.0900012 105.3444997  -2.0740012  83.9134809 106.1953862  -2.1161756
  89.6720012 106.2014997  -4.6030012  90.4180012 106.7894997  -4.7230012
  88.9150012 106.7834997  -4.5400012  89.6717554 106.3607011  -4.6109093
  78.1150012 103.5154997  -1.9990012  78.5230012 102.6584997  -2.1200012
  77.8550012 103.5304997  -1.0780012  78.1357568 103.4000807  -1.8910412
  82.7730012 104.6314997 -16.9810012  82.3130012 104.1474997 -16.2950012
  83.0280012 103.9634997 -17.6170012  82.7444902 104.4748731 -16.9730666
  82.0620012 102.5244997  -4.6250012  81.4440012 103.1994997  -4.3450012
  82.4060012 102.8454997  -5.4580012  82.0239615 102.6602721  -4.6993419
  83.8440012 102.8744997 -18.7190012  83.6640012 102.7204997 -19.6460012
  84.7940012 102.9824997 -18.6740012  83.9477776 102.8680175 -18.8398157
  87.0820012 104.9964997  -1.3480012  88.0350012 105.0794997  -1.3750012
  86.9210012 104.2844997  -0.7280012  87.1906426 104.9116746  -1.2679421
  93.2340012 105.2294997 -19.2730012  92.9600012 104.8044997 -20.0860012
  93.2730012 106.1604997 -19.4900012  93.2017699 105.2972484 -19.4136390
  82.4010012  99.8794997  -3.5430012  82.5510012  99.1504997  -4.1450012
  82.4040012 100.6564997  -4.1020012  82.4219302  99.8847851  -3.7009308
  82.8140012  98.2494997  -6.0500012  83.3500012  98.7004997  -6.7020012
  81.9620012  98.1414997  -6.4730012  82.7722178  98.2966390  -6.1964244
  84.3960012 103.6884997  -5.8110012  85.1460012 103.5324997  -6.3840012
  84.0570012 104.5404997  -6.0860012  84.4528921 103.7822968  -5.9266439
  88.8110012 101.5034997  -0.7820012  89.0040012 100.5724997  -0.8940012
  89.6690012 101.9284997  -0.7920012  88.9533020 101.4336389  -0.7986639
  90.1280012 104.2924997  -2.7050012  89.8470012 105.0014997  -3.2820012
  91.0710012 104.2194997  -2.8560012  90.2169027 104.3797646  -2.8044449
  80.8800012 101.0774997  -1.6310012  80.1130012 100.5454997  -1.8410012
  81.5590012 100.7674997  -2.2310012  80.8667022 100.9627506  -1.7408352
  83.6200012  95.7054997  -5.6190012  83.5210012  96.6524997  -5.7240012
  82.8770012  95.3334997  -6.0940012  83.5060564  95.7845902  -5.6975440
  84.8840012 100.0274997  -2.0550012  84.6480012  99.8074997  -1.1530012
  84.1000012  99.8204997  -2.5650012  84.7458628  99.9694760  -2.0006068
  87.5990012  99.1544997  -2.9790012  86.6520012  99.1864997  -2.8470012
  87.9120012  98.5294997  -2.3260012  87.5115475  99.0743207  -2.8725545
  89.2330012  97.7884997  -0.9740012  89.1370012  96.8364997  -0.9800012
  88.9120012  98.0574997  -0.1140012  89.1764070  97.6944035  -0.8584559
  79.0600012  98.9984997  -1.9270012  79.2720012  98.2914997  -2.5370012
  78.9490012  98.5604997  -1.0830012  79.0739721  98.8427084  -1.8963157
  83.8410012  94.9994997  -2.9470012  84.5530012  94.3594997  -2.9610012
  83.7400012  95.2664997  -3.8610012  83.9247939  94.9479938  -3.0724350
  84.1950012  96.6824997  -0.8940012  84.0630012  96.2064997  -1.7140012
  83.5960012  97.4264997  -0.9490012  84.0959071  96.7179618  -1.0137114
  83.7410012 113.5654997 -17.7170012  84.6740012 113.7234997 -17.5740012
  83.4770012 114.2404997 -18.3420012  83.8329510 113.6783611 -17.7819259
  77.3100012 108.2014997 -18.2350012  78.2240012 108.2804997 -17.9610012
  77.3170012 107.5144997 -18.9010012  77.4361131 108.1193961 -18.2875607
  75.9590012 113.5944997 -13.1570012  75.3120012 113.1324997 -13.6900012
  76.3130012 112.9224997 -12.5750012  75.9183849 113.4404723 -13.1512041
  76.8290012 111.6754997 -11.3530012  76.4940012 110.7954997 -11.1810012
  77.0510012 112.0204997 -10.4880012  76.8131783 111.6017500 -11.2125792
  94.3770012 112.4844997  -8.3720012  94.3560012 112.6694997  -7.4330012
  95.0680012 113.0534997  -8.7130012  94.4674618 112.5866606  -8.2896136
  93.9410012 112.0524997  -5.4500012  93.4530012 111.3164997  -5.8210012
  94.4900012 111.6584997  -4.7720012  93.9484872 111.8986249  -5.4090840
  92.3910012 107.8414997  -0.8120012  91.5250012 107.7364997  -0.4180012
  92.7680012 108.6004997  -0.3660012  92.3233308 107.9296900  -0.6977607
  93.6920012 106.0984997 -15.2980012  94.5420012 106.5194997 -15.1710012
  93.6980012 105.3584997 -14.6910012  93.8091372 106.0560803 -15.1985656
  94.0870012 104.1514997 -13.4740012  93.3600012 103.6724997 -13.0770012
  94.6680012 104.3574997 -12.7420012  94.0659375 104.1137090 -13.3205871
  93.8460012 106.9364997  -8.5270012  94.6790012 106.5584997  -8.8070012
  93.9580012 107.8794997  -8.6460012  93.9752647 107.0122218  -8.5814513
  92.3320012 109.8144997  -6.2200012  91.6850012 110.1394997  -5.5940012
  91.8150012 109.3744997  -6.8940012  92.1734029 109.7995004  -6.2254173
  94.3550012 104.0524997 -17.0830012  93.8330012 104.4094997 -17.8020012
  94.3220012 104.7274997 -16.4050012  94.2791634 104.1925413 -17.0896855
  92.7040012 101.2924997 -18.5320012  92.8000012 101.9594997 -19.2130012
  92.5640012 100.4764997 -19.0140012  92.6982135 101.2734500 -18.6901509
  91.8730012 102.6724997 -12.9110012  91.7230012 101.7274997 -12.9320012
  91.5200012 102.9534997 -12.0680012  91.8046625 102.5810441 -12.7997654
  76.9090012 104.7504997  -8.9010012  77.0930012 104.6684997  -9.8370012
  77.7580012 104.6264997  -8.4770012  77.0490139 104.7225003  -8.9718545
  92.7300012 104.6424997  -3.2730012  93.3130012 103.9084997  -3.0810012
  93.2940012 105.4144997  -3.2260012  92.8859769 104.6464227  -3.2403841
  94.2260012 102.5454997  -2.5880012  93.3630012 102.1664997  -2.7540012
  94.8310012 101.8064997  -2.6620012  94.1895979 102.3938023  -2.6207183
  91.9510012  98.7004997 -19.4150012  92.5620012  98.3294997 -18.7780012
  91.1150012  98.2794997 -19.2190012  91.9215032  98.5927554 -19.3012965
  91.5840012 100.2554997 -14.4490012  91.8640012  99.3484997 -14.3250012
  92.3430012 100.6894997 -14.8380012  91.7249277 100.1900942 -14.4846318
  92.1960012 100.8364997  -9.0130012  93.1290012 101.0484997  -9.0470012
  91.9610012 100.9384997  -8.0910012  92.2918036 100.8792769  -8.8930024
  92.2250012 101.5734997  -6.2370012  91.3820012 101.8414997  -5.8710012
  92.6670012 102.3954997  -6.4480012  92.1694158 101.7213291  -6.2154509
  76.5060012 100.0214997  -2.7600012  77.4260012  99.8994997  -2.5240012
  76.0570012  99.2714997  -2.3710012  76.5711580  99.9033727  -2.6750994
  94.5080012  95.5534997  -0.8840012  94.8580012  94.8994997  -1.4890012
  94.6550012  96.3904997  -1.3230012  94.5758419  95.5771591  -1.0262882
  92.1970012  97.5184997 -14.4010012  92.3800012  97.0694997 -13.5750012
  91.5980012  96.9334997 -14.8640012  92.1410202  97.3779975 -14.3506725
  77.7270012  98.3334997  -9.8690012  78.1730012  97.5414997  -9.5670012
  78.1940012  99.0494997  -9.4380012  77.8510172  98.3220624  -9.7695180
  76.0310012 101.3324997  -8.8000012  76.5230012 101.1114997  -9.5910012
  76.3940012 102.1734997  -8.5190012  76.1473126 101.4158357  -8.8702469
  94.0280012  97.6624997  -2.5340012  93.1100012  97.9334997  -2.5700012
  94.1510012  97.1274997  -3.3190012  93.9191066  97.6272892  -2.6449513
  94.0640012  97.5854997 -17.8730012  94.4760012  96.8644997 -18.3480012
  94.7460012  98.2554997 -17.8140012  94.2125885  97.5772368 -17.9301085
  76.3450012  97.5904997 -14.7460012  75.4200012  97.7994997 -14.8750012
  76.7990012  98.0744997 -15.4350012  76.2797368  97.6845993 -14.8568774
  91.1160012 112.5744997 -12.8000012  91.7680012 112.2274997 -13.4080012
  91.6260012 113.0634997 -12.1540012  91.2742637 112.5930597 -12.7959764
  76.3090012  96.3284997  -6.4010012  75.6440012  96.0824997  -5.7580012
  75.8660012  96.9504997  -6.9790012  76.1580956  96.3788632  -6.3910648
  78.5010012 109.5034997  -2.2570012  77.6800012 109.6784997  -2.7170012
  78.2480012 109.4304997  -1.3360012  78.3546164 109.5175622  -2.1955077
  81.4550012 110.4784997  -5.9980012  81.0300012 111.2874997  -6.2810012
  82.3590012 110.5634997  -6.3000012  81.5190271 110.6008469  -6.0776224
  85.7660012 111.8774997  -3.0390012  85.9510012 111.5434997  -2.1610012
  86.6120012 112.1864997  -3.3610012  85.9057539 111.8736047  -2.9624395
  88.1110012 113.1634997  -3.7950012  88.7880012 112.5304997  -4.0350012
  88.4330012 113.5644997  -2.9880012  88.2471637 113.1311154  -3.7187207
  93.0280012  95.7524997  -4.7150012  92.2160012  96.0774997  -5.1030012
  93.2610012  94.9924997  -5.2480012  92.9483423  95.6942436  -4.8401747
  78.8570012 113.7344997  -5.9510012  78.1360012 114.1744997  -6.4020012
  78.4910012 113.4834997  -5.1020012  78.7089804 113.7607698  -5.8980160
  81.3240012 113.3344997  -6.9210012  80.4590012 113.4064997  -6.5170012
  81.2690012 113.8814997  -7.7050012  81.1982085 113.4182685  -6.9716638
  86.0340012 113.2224997  -7.7460012  85.5780012 113.7514997  -8.4000012
  86.1970012 113.8254997  -7.0200012  85.9935585 113.3764468  -7.7374938
  88.3620012 112.1004997  -6.8010012  87.4570012 112.2654997  -7.0660012
  88.7910012 112.9534997  -6.8660012  88.2960799 112.2384483  -6.8460818
  90.9660012 113.6704997  -6.5060012  90.7840012 114.5864997  -6.7160012
  91.1430012 113.2604997  -7.3520012  90.9650210 113.7404822  -6.6492115
  78.2710012 112.3574997  -9.0410012  78.2530012 111.9324997  -8.1830012
  79.0760012 112.0394997  -9.4490012  78.3773875 112.2563812  -8.9788345
  80.4130012 111.0674997 -10.3860012  80.1940012 110.1514997 -10.2160012
  81.2370012 111.2074997  -9.9200012  80.4944420 110.9610520 -10.2997226
  82.9500012 111.5374997  -9.5370012  83.1630012 110.6494997  -9.8240012
  83.0140012 111.5034997  -8.5830012  82.9878231 111.4113102  -9.4472603
  86.4580012  97.2014997 -10.3930012  85.7840012  96.5724997 -10.1370012
  87.0220012  96.7174997 -10.9960012  86.4419230  97.0498744 -10.4394660
  91.6010012  95.3094997 -10.2800012  92.2050012  95.8564997 -10.7820012
  90.7310012  95.6284997 -10.5200012  91.5661241  95.4275806 -10.3812346
  93.3280012  96.4474997 -11.9470012  93.9400012  95.9334997 -12.4730012
  93.7100012  97.3254997 -11.9230012  93.4634540  96.4957140 -12.0158170
  78.7850012  95.8354997 -12.5710012  78.0080012  95.6014997 -13.0780012
  79.3150012  95.0384997 -12.5620012  78.7502330  95.6956988 -12.6392258
  77.6210012  95.6334997 -16.7670012  78.0600012  96.2444997 -17.3590012
  76.9880012  96.1714997 -16.2930012  77.5954514  95.7899257 -16.7839070
  83.3640012  95.7624997 -12.7570012  84.2390012  96.1504997 -12.7870012
  83.2280012  95.5474997 -11.8350012  83.4653695  95.7865184 -12.6363560
  88.9210012  95.7924997 -11.1080012  88.9970012  95.8874997 -12.0580012
  88.6460012  94.8844997 -10.9790012  88.8942321  95.6827867 -11.2204921
  90.2740012  95.8184997 -15.4160012  89.5720012  96.4334997 -15.6250012
  89.8300012  94.9804997 -15.2850012  90.1176330  95.7895783 -15.4269672
  77.5220012 111.5814997 -15.8690012  76.8370012 111.5434997 -16.5370012
  77.5260012 112.4944997 -15.5810012  77.4288193 111.6997016 -15.9214716
  79.4820012  97.5494997 -18.3250012  79.9740012  96.9194997 -18.8520012
  80.1060012  97.8454997 -17.6610012  79.6335446  97.5033199 -18.3074020
  84.5080012  97.8424997 -15.8680012  84.6860012  97.1964997 -15.1850012
  84.4550012  98.6764997 -15.4000012  84.5251829  97.8667985 -15.7114060
  86.3870012 112.7914997 -17.4720012  87.2530012 113.1574997 -17.6500012
  86.1400012 112.3514997 -18.2860012  86.4722392 112.7821756 -17.6063711
  93.0960012 112.3544997 -14.7930012  92.9010012 111.6064997 -15.3580012
  93.0570012 113.1124997 -15.3760012  93.0640380 112.3546099 -14.9491616
  78.7430012  96.3494997  -3.0530012  78.3770012  95.5844997  -2.6100012
  79.6560012  96.3784997  -2.7660012  78.8162790  96.2487224  -2.9535930
  80.7160012  95.7004997  -1.5170012  81.6140012  95.4264997  -1.7020012
  80.3290012  94.9574997  -1.0530012  80.7866612  95.5625914  -1.4796357
  79.3400012 112.5014997 -18.8440012  79.0730012 112.7884997 -17.9710012
  80.1120012 111.9554997 -18.6920012  79.4077488 112.4670294 -18.7038950
  89.1370012  95.0324997  -1.3350012  89.2140012  94.6064997  -0.4810012
  90.0310012  95.0464997  -1.6780012  89.2683428  94.9760879  -1.2644690
  92.3130012 111.1054997  -2.6430012  91.5310012 110.9194997  -3.1620012
  92.2410012 112.0344997  -2.4250012  92.1961777 111.2056492  -2.6845952
 106.7190012 104.9914997 -12.6120012 106.8080012 105.9354997 -12.7440012
 106.0810012 104.7164997 -13.2700012 106.6449081 105.0834830 -12.7190386
 105.6520012 104.2464997  -9.1930012 105.6140012 103.6004997  -8.4880012
 105.3300012 103.7804997  -9.9640012 105.6032333 104.0949408  -9.2007022
  98.0210012 103.8614997  -7.6000012  98.0620012 103.2354997  -6.8770012
  98.7240012 104.4854997  -7.4180012  98.1216363 103.8601196  -7.4763956
 109.3580012 107.1854997 -10.8920012 108.9180012 106.4654997 -10.4410012
 109.3450012 107.9064997 -10.2620012 109.2960226 107.1843731 -10.7451506
  98.9440012 108.3114997  -9.0650012  98.5750012 107.5094997  -9.4350012
  99.8850012 108.1424997  -9.0190012  99.0207289 108.1790153  -9.1093684
  95.5540012 101.9714997 -13.6720012  95.1070012 102.8174997 -13.6910012
  94.9930012 101.3914997 -14.1880012  95.4169900 102.0089916 -13.7443199
  96.2650012 104.1334997 -11.5460012  96.4780012 103.3634997 -11.0190012
  97.0030012 104.2224997 -12.1500012  96.3938496 104.0401394 -11.5554700
 106.4700012 112.2904997 -10.6790012 107.0900012 111.6134997 -10.9530012
 106.2620012 112.0724997  -9.7710012 106.5266904 112.1683870 -10.5936635
 104.0420012 106.6794997  -8.7870012 104.3460012 105.9934997  -9.3820012
 104.7630012 106.7974997  -8.1690012 104.1810671 106.6016304  -8.7848184
 112.7050012  98.2804997  -7.9260012 112.7540012  98.8904997  -7.1900012
 113.1300012  98.7414997  -8.6490012 112.7691824  98.4263741  -7.9229795
 107.1830012 101.0734997  -8.4590012 107.3250012 100.1274997  -8.4390012
 107.0760012 101.2804997  -9.3880012 107.1879864 100.9719534  -8.5817661
 100.3370012  99.1744997 -11.1870012 100.3810012 100.0344997 -11.6050012
  99.8800012  98.6224997 -11.8210012 100.2812185  99.2175799 -11.3299701
 108.0600012  99.3054997 -12.7860012 108.7060012  98.9764997 -12.1610012
 108.5700012  99.8234997 -13.4090012 108.2174264  99.3304611 -12.7846138
  96.9580012 101.5714997 -10.4250012  97.6110012 101.0214997  -9.9930012
  96.9820012 101.2974997 -11.3420012  97.0506683 101.4591466 -10.4897877
 102.1140012 103.1214997 -11.2100012 102.7300012 102.5954997 -10.7000012
 101.5280012 102.4814997 -11.6130012 102.1190810 102.9629208 -11.1946827
 113.0960012  99.7584997  -5.6900012 112.4080012 100.4164997  -5.7860012
 113.1120012  99.5614997  -4.7540012 113.0038525  99.8220462  -5.5765192
  99.1480012  98.0924997  -7.1130012  98.9290012  98.6224997  -7.8790012
  98.4800012  98.3194997  -6.4660012  99.0277600  98.1956906  -7.1303621
 106.5170012 107.5924997 -13.5690012 106.2210012 107.2704997 -14.4200012
 106.1920012 108.4924997 -13.5280012 106.4326371 107.6700215 -13.6798199
 101.7170012 105.7684997  -6.8260012 100.9770012 106.3664997  -6.7220012
 102.4310012 106.3224997  -7.1410012 101.7122237 105.9252831  -6.8543535
 109.8240012  98.5964997 -10.8060012 109.6080012  97.8304997 -10.2730012
 110.4790012  99.0684997 -10.2930012 109.8830632  98.5555889 -10.6637139
  98.7410012  99.9844997  -9.1610012  99.3550012 100.6174997  -8.7870012
  99.2530012  99.5124997  -9.8170012  98.8942296 100.0072370  -9.1985748
 100.1240012 107.7324997  -6.0380012 100.1190012 108.6124997  -6.4160012
  99.2710012 107.6494997  -5.6130012 100.0079464 107.8416117  -6.0322093
  96.2450012 107.4034997 -15.2560012  95.9730012 107.6324997 -16.1450012
  96.2910012 108.2414997 -14.7960012  96.2140094 107.5481213 -15.3154303
 109.8700012 109.0254997  -8.5440012 108.9290012 109.0834997  -8.3820012
 110.1470012 109.9314997  -8.6810012 109.7784679 109.1559443  -8.5403185
 110.1710012  97.3114997  -7.1260012 109.4350012  97.9224997  -7.1640012
 110.8540012  97.7264997  -7.6530012 110.1626541  97.4511374  -7.2024168
 103.1740012  95.3984997  -9.6600012 103.0570012  94.4494997  -9.7150012
 102.3190012  95.7304997  -9.3870012 103.0423733  95.3135409  -9.6306103
 108.1220012 110.8064997 -11.9180012 108.5480012 110.0994997 -12.4030012
 108.4390012 111.6074997 -12.3350012 108.2231019 110.8180994 -12.0406870
 109.2820012 108.7074997 -13.4100012 109.0240012 108.0174997 -14.0210012
 109.3530012 108.2644997 -12.5640012 109.2562856 108.5532124 -13.3793115
 110.9680012 107.2734997  -4.9320012 111.1080012 106.6824997  -5.6720012
 111.1350012 108.1464997  -5.2890012 111.0096778 107.3106426  -5.0813035
 105.4410012 104.2354997 -15.1600012 104.7290012 104.7704997 -15.5120012
 106.1320012 104.2914997 -15.8200012 105.4370132 104.3162543 -15.2973711
 105.4940012 102.6934997 -18.1210012 106.1950012 102.7154997 -17.4700012
 105.7970012 102.0654997 -18.7770012 105.6307830 102.6116566 -18.1206289
 112.8100012 103.6134997  -6.8660012 112.1570012 104.3084997  -6.7770012
 113.2750012 103.8234997  -7.6760012 112.7835390 103.7369425  -6.9633117
 108.8460012 104.4454997 -14.2080012 108.1140012 104.6734997 -13.6350012
 109.2940012 103.7314997 -13.7530012 108.8063095 104.3802571 -14.0680881
 108.7440012 102.6194997  -5.1410012 108.8240012 103.3824997  -4.5690012
 108.1420012 102.8984997  -5.8310012 108.6735756 102.7617134  -5.1559411
 100.4920012 105.0754997 -12.3260012 100.1610012 104.7054997 -13.1440012
 101.0800012 104.4054997 -11.9790012 100.5261873 104.9341156 -12.3911898
 101.8580012 108.5034997  -9.6440012 101.7640012 107.9254997 -10.4010012
 102.5880012 108.1324997  -9.1480012 101.9437981 108.3742390  -9.6805835
 100.8580012 103.8444997  -8.6920012 101.4240012 103.9654997  -9.4550012
 101.1770012 104.4814997  -8.0530012 100.9785786 103.9471884  -8.7099960
 107.1670012 109.3474997  -7.9580012 106.9270012 110.0094997  -7.3100012
 106.9690012 108.5134997  -7.5330012 107.1073808 109.3253134  -7.8118476
 101.7380012 108.2434997  -3.9750012 101.4270012 109.0254997  -3.5200012
 101.0880012 108.0904997  -4.6610012 101.6075558 108.3299105  -4.0054129
 107.7170012 103.6074997 -16.5230012 108.2970012 103.7574997 -15.7760012
 108.1310012 104.0784997 -17.2460012 107.8522830 103.6916841 -16.5185866
  98.6580012 104.4414997  -4.7460012  98.7290012 105.0924997  -4.0480012
  97.7680012 104.5444997  -5.0810012  98.5473117 104.5445936  -4.6957300
 105.4440012 110.3444997 -13.0880012 105.9180012 110.6394997 -12.3100012
 104.8810012 111.0824997 -13.3210012 105.4327653 110.4846932 -13.0129864
  99.9780012 110.3154997  -3.2120012  99.9850012 110.1794997  -4.1590012
  99.0620012 110.1974997  -2.9600012  99.8551714 110.2809430  -3.3075334
 111.4160012  95.3574997 -16.7100012 110.5160012  95.4964997 -16.4150012
 111.6680012  96.1884997 -17.1120012 111.3268702  95.4889074 -16.7239795
  99.4820012 104.1454997 -14.7360012  99.1900012 104.9134997 -15.2270012
  98.8080012 103.4854997 -14.8990012  99.3509081 104.1614406 -14.8252660
 112.6050012 109.7234997 -18.3340012 112.6790012 110.6624997 -18.1630012
 113.5110012 109.4184997 -18.3900012 112.7375100 109.8106722 -18.3181881
  95.5750012 106.5084997  -5.9210012  95.0740012 106.4804997  -6.7360012
  95.5800012 105.6024997  -5.6120012  95.5071526 106.3822278  -5.9907128
  95.3250012 109.2884997  -9.0370012  96.2710012 109.1444997  -9.0560012
  95.2130012 110.0724997  -8.5000012  95.4392727 109.3748046  -8.9669928
 113.5230012 109.9544997  -3.3550012 113.4740012 108.9994997  -3.3920012
 112.6960012 110.2224997  -2.9540012 113.4044940 109.8598998  -3.3058625
 104.5020012 109.5284997  -4.4790012 104.5890012 110.3544997  -4.0040012
 103.6380012 109.1984997  -4.2300012 104.3971964 109.5969878  -4.3803451
 104.9160012 113.3004997 -14.6730012 104.8410012 113.1794997 -15.6190012
 104.9490012 114.2504997 -14.5540012 104.9101848 113.4122500 -14.7865166
  98.5690012 112.0894997 -12.8920012  98.7220012 111.7414997 -12.0130012
  97.7190012 111.7334997 -13.1470012  98.4748962 111.9936650 -12.8061660
 108.0180012 112.4544997 -17.6710012 108.3930012 111.7104997 -18.1410012
 108.0220012 112.1844997 -16.7520012 108.0698915 112.3161486 -17.6112176
 107.6870012 112.3804997 -14.9210012 106.7510012 112.4804997 -14.7430012
 107.9670012 111.6714997 -14.3430012 107.5968255 112.2982711 -14.8184609
 110.6750012 101.4474997  -2.8750012 110.2680012 101.9284997  -3.5960012
 110.7160012 100.5424997  -3.1830012 110.6248437 101.3909374  -3.0153317
  97.8240012 107.8314997  -4.8780012  98.0400012 107.4704997  -4.0190012
  96.9690012 107.4574997  -5.0880012  97.7379292 107.7314111  -4.7886614
 100.4430012  96.3014997  -8.8830012  99.5810012  96.2144997  -9.2900012
 100.4200012  97.1574997  -8.4550012 100.3220330  96.4052765  -8.8808137
 105.1060012  96.0234997  -5.5080012 105.5260012  95.6084997  -4.7550012
 104.1730012  95.8454997  -5.3910012 105.0373644  95.9425900  -5.3890461
 108.4320012  99.7794997  -4.6550012 107.9180012  99.6534997  -3.8570012
 108.2770012 100.6914997  -4.8990012 108.3406852  99.8856132  -4.5787842
 109.1950012 104.6404997 -18.8930012 109.2370012 104.4174997 -19.8230012
 110.0440012 105.0394997 -18.7030012 109.3155396 104.6639155 -18.9946373
 104.7670012  98.5164997 -18.2230012 104.5140012  98.5354997 -17.3000012
 104.5110012  97.6444997 -18.5240012 104.6977790  98.4012437 -18.1373737
 100.5340012 101.2674997  -7.7880012  99.8920012 101.2264997  -7.0790012
 100.5710012 102.1934997  -8.0250012 100.4511324 101.3871559  -7.7230176
 100.5310012 101.4884997 -12.8760012  99.6380012 101.1474997 -12.9340012
 100.9810012 101.1114997 -13.6310012 100.4697305 101.3908484 -12.9860823
 106.0660012 101.9044997 -14.0590012 105.6570012 102.7194997 -14.3500012
 106.7870012 101.7644997 -14.6730012 106.1074537 101.9972018 -14.1818658
 105.1680012 102.0794997  -2.5710012 104.6060012 101.3754997  -2.2500012
 105.9950012 101.9594997  -2.1030012 105.2027095 101.9667883  -2.4637670
 107.0710012 101.3504997 -11.2450012 106.8760012 101.9554997 -11.9600012
 107.2520012 100.5164997 -11.6790012 107.0687614 101.3206300 -11.4015595
  98.2840012 101.5874997  -5.9210012  98.2460012 101.9874997  -5.0520012
  97.7930012 100.7704997  -5.8300012  98.2124684 101.5318069  -5.7898941
 101.6500012  98.9614997 -19.1220012 101.2190012  98.5164997 -18.3920012
 100.9320012  99.3334997 -19.6340012 101.4939438  98.9508940 -19.0913201
  94.8920012  98.7034997 -12.0700012  95.5230012  98.6744997 -11.3510012
  95.3410012  98.2784997 -12.8000012  95.0390774  98.6420492 -12.0703447
  96.1660012  99.4494997 -16.6460012  96.6400012 100.0404997 -17.2310012
  95.4490012  99.9804997 -16.2990012  96.1339341  99.6020867 -16.6791164
 106.3350012 102.9884997  -6.5730012 106.6580012 102.3574997  -7.2160012
 105.8950012 102.4534997  -5.9130012 106.3196895 102.8298441  -6.5717150
 103.1120012  98.9154997 -11.7890012 102.2010012  98.9724997 -11.5010012
 103.6180012  98.8554997 -10.9790012 103.0555413  98.9151985 -11.6399378
  97.9410012 100.5444997 -12.9630012  97.0510012 100.6444997 -13.3030012
  98.2370012  99.7024997 -13.3090012  97.8592823 100.4443546 -13.0562787
 101.5940012 100.5444997 -15.3060012 102.5250012 100.6734997 -15.1280012
 101.3790012 101.2144997 -15.9560012 101.6924247 100.6526565 -15.3694253
 107.5170012  98.1504997  -8.5250012 106.8410012  98.2814997  -7.8610012
 107.0320012  97.9954997  -9.3350012 107.3587145  98.1474905  -8.5435483
 100.2680012 101.7394997 -17.7390012  99.7250012 101.3594997 -18.4310012
 101.1010012 101.9334997 -18.1680012 100.3064399 101.7138124 -17.8915474
 110.8050012 113.8224997  -2.2480012 111.0050012 114.2464997  -3.0830012
 111.4600012 114.1654997  -1.6410012 110.9210051 113.9269648  -2.2802164
  98.4030012 106.2964997  -2.6400012  99.1350012 106.5504997  -2.0790012
  97.6230012 106.5004997  -2.1250012  98.3978232 106.3589177  -2.4934240
 104.4320012 101.7034997  -9.9020012 104.9970012 101.1564997 -10.4490012
 104.2850012 101.1814997  -9.1140012 104.4892918 101.5582024  -9.8701546
  99.4340012  97.8394997 -13.4840012  99.1170012  96.9374997 -13.5190012
 100.2160012  97.8414997 -14.0370012  99.4962284  97.7161628 -13.5635217
 103.0590012 100.0914997  -7.4880012 102.2230012 100.5454997  -7.3780012
 103.5830012 100.3674997  -6.7360012 103.0154414 100.1909376  -7.3712864
 103.6030012 106.3044997 -15.8040012 102.8580012 105.7974997 -16.1260012
 103.4690012 106.3534997 -14.8570012 103.4828776 106.2416940 -15.7201353
 110.7530012 105.4374997  -7.0170012 111.3950012 105.8944997  -7.5610012
 109.9230012 105.5504997  -7.4800012 110.7285963 105.5152704  -7.1539823
 107.5010012  99.1184997 -17.6040012 106.5620012  99.2304997 -17.7560012
 107.7980012  99.9754997 -17.2980012 107.4127666  99.2496443 -17.5834232
 105.1220012 106.4884997  -4.5670012 104.7770012 106.1074997  -3.7600012
 104.9220012 107.4224997  -4.4950012 105.0478061 106.5625228  -4.4469039
 108.2190012 100.9854997 -15.9440012 109.1110012 100.8484997 -15.6250012
 108.2760012 101.7764997 -16.4800012 108.3486285 101.0736660 -15.9728310
  98.7280012 105.5994997 -10.0340012  99.4730012 105.5974997 -10.6350012
  98.8060012 104.7764997  -9.5520012  98.8405518 105.4879315 -10.0511071
 105.7290012 107.7634997 -16.7780012 105.4330012 108.5894997 -16.3970012
 105.0260012 107.1434997 -16.5820012 105.5934914 107.7928199 -16.6993557
  95.7360012 104.0604997  -4.7190012  95.9590012 103.6424997  -3.8870012
  95.1340012 103.4474997  -5.1420012  95.6851759 103.9204668  -4.6622978
 102.7520012 103.5774997  -2.5060012 102.4560012 103.4114997  -3.4010012
 103.6840012 103.3574997  -2.5170012 102.8374166 103.5250640  -2.6299464
 107.3730012 108.9504997  -4.6160012 106.4720012 109.1334997  -4.8840012
 107.4070012 109.2094997  -3.6950012 107.2543041 109.0105512  -4.5281803
 113.1040012 101.1954997 -16.2490012 112.5500012 100.7994997 -16.9210012
 113.2040012 102.1054997 -16.5270012 113.0417059 101.2643586 -16.3785599
 113.0670012 106.9954997  -3.4120012 112.2160012 107.2334997  -3.7790012
 113.6580012 106.9784997  -4.1650012 113.0302487 107.0258258  -3.5641107
 111.3990012 109.9814997 -15.7840012 111.0260012 109.1554997 -15.4750012
 111.6770012 109.7984997 -16.6810012 111.3855630 109.8437303 -15.8630374
 108.5600012 104.7894997  -8.7630012 107.6310012 104.5574997  -8.7900012
 109.0110012 104.0124997  -9.0930012 108.4939216 104.6527238  -8.8113083
 101.1030012 109.1174997 -12.6300012 101.6300012 109.8904997 -12.8300012
 100.2230012 109.3424997 -12.9310012 101.0561773 109.2538005 -12.6980990
  96.8580012 103.9794997 -18.0430012  97.4740012 104.6064997 -17.6630012
  95.9960012 104.2954997 -17.7710012  96.8257698 104.1079430 -17.9542817
 102.5300012 106.7804997 -13.0530012 102.2890012 107.7054997 -13.0120012
 101.7890012 106.3214997 -12.6570012 102.3968409 106.8451421 -12.9938623
 103.0450012 110.9294997  -6.7380012 103.4070012 111.7844997  -6.9720012
 103.5760012 110.6374997  -5.9980012 103.1664473 111.0071060  -6.6699145
 101.2130012 111.8024997 -13.5080012 100.2630012 111.9074997 -13.4570012
 101.5650012 112.6224997 -13.1630012 101.1304203 111.9278314 -13.4543350
 106.5890012 107.0284997  -7.0380012 106.1630012 106.8014997  -6.2110012
 107.1690012 106.2904997  -7.2200012 106.6091868 106.8975299  -6.9494170
 108.7920012 107.9574997 -17.9640012 109.1450012 107.5774997 -17.1590012
 107.8430012 107.8644997 -17.8770012 108.7120441 107.8929596 -17.8421441
 109.2470012 111.5804997  -4.5680012 108.6460012 111.0254997  -5.0640012
 109.5290012 112.2474997  -5.1940012 109.2028519 111.5946841  -4.7205048
 113.2950012 112.4374997 -17.7630012 114.0390012 113.0234997 -17.9030012
 112.6010012 113.0054997 -17.4290012 113.3030292 112.5945582 -17.7370039
  97.3700012  98.8134997  -5.1610012  96.4770012  99.1524997  -5.2290012
  97.2710012  97.9584997  -4.7430012  97.2344164  98.7442588  -5.1137765
 109.6580012 106.6304997 -15.7370012 109.3800012 105.9024997 -15.1810012
 110.5850012 106.7494997 -15.5320012 109.7453124 106.5468802 -15.6331155
  97.0210012 110.6184997  -6.7260012  97.2380012 109.6864997  -6.7570012
  97.2670012 110.8924997  -5.8430012  97.0839549 110.5280636  -6.6108237
 102.8830012 109.0694997 -19.5170012 103.1220012 108.3214997 -20.0640012
 102.6140012 108.6814997 -18.6840012 102.8793675 108.9146638 -19.4793135
 101.8200012 108.6394997 -17.0600012 101.9660012 108.1194997 -16.2700012
 101.8170012 109.5464997 -16.7540012 101.8395989 108.6908853 -16.9103912
  98.2730012 105.8924997 -16.5500012  97.5870012 106.2444997 -15.9830012
  98.7950012 106.6554997 -16.7970012  98.2496852 106.0438578 -16.5057882
 106.1040012  98.5544997  -6.2710012 106.8030012  98.6284997  -5.6210012
 105.7230012  97.6904997  -6.1170012 106.1481767  98.4477624  -6.1611678
 106.8890012  98.2064997 -15.1740012 107.1090012  98.6784997 -15.9770012
 107.4470012  98.6014997 -14.5040012 106.9944968  98.3244285 -15.1932669
 104.5570012 110.3374997 -16.3110012 103.7410012 110.8344997 -16.2590012
 105.0870012 110.8124997 -16.9510012 104.5169161 110.4697722 -16.3904044
 104.0890012  99.9344997 -14.3390012 104.9010012 100.4394997 -14.2930012
 103.8440012  99.7894997 -13.4250012 104.1670520  99.9840375 -14.2091483
 104.6240012 100.9204997  -5.1540012 104.7430012 101.4944997  -4.3970012
 105.2800012 100.2324997  -5.0400012 104.7289757 100.9061079  -5.0349175
 104.9720012  97.0154997 -13.4010012 104.6260012  97.6334997 -12.7560012
 105.6310012  97.5164997 -13.8820012 105.0137826  97.1675802 -13.3779029
 101.8960012 111.3814997 -16.3290012 102.0560012 112.1804997 -16.8300012
 101.6980012 111.6874997 -15.4440012 101.8911649 111.5324469 -16.2780185
 100.6300012  98.0784997 -16.7140012 100.5470012  98.9674997 -16.3670012
 101.5200012  97.8134997 -16.4820012 100.7389469  98.1641430 -16.6352374
 110.8290012  98.8274997  -4.3190012 109.9120012  99.0904997  -4.4070012
 111.1640012  98.8244997  -5.2160012 110.7489900  98.8630224  -4.4522081
 109.4310012 102.5784997 -10.2240012 108.6330012 102.1634997 -10.5520012
 109.8760012 101.8874997  -9.7330012 109.3819885 102.4283543 -10.2025111
  98.8890012 108.5064997 -17.6530012  99.4810012 109.2054997 -17.3770012
  99.3480012 108.0734997 -18.3730012  99.0321142 108.5437049 -17.7125170
  97.2050012 101.1704997 -18.5370012  97.1600012 102.1094997 -18.3590012
  96.3170012 100.9344997 -18.8070012  97.0788574 101.2671892 -18.5491088
 110.5170012 111.8344997  -8.6010012 110.3620012 112.5124997  -9.2580012
 111.4500012 111.9064997  -8.3980012 110.6218500 111.9370170  -8.6634881
  98.0130012  95.9524997  -9.8640012  97.7840012  96.0114997 -10.7920012
  97.5700012  95.1604997  -9.5580012  97.9218530  95.8535753  -9.9495214
  96.9430012 109.8924997 -13.7040012  96.1110012 110.3654997 -13.6760012
  97.4890012 110.4024997 -14.3020012  96.9029739 110.0261871 -13.7810284
  96.2310012 112.5054997  -2.3740012  96.7720012 112.2884997  -1.6140012
  95.7500012 111.6994997  -2.5630012  96.2399345 112.3669514  -2.2956924
 100.8290012 111.4244997  -0.7530012 101.5960012 110.9654997  -0.4120012
 100.8070012 111.1984997  -1.6830012 100.9311434 111.3310409  -0.8319957
 104.9210012 110.9324997 -19.3780012 104.2770012 110.3014997 -19.0570012
 105.6830012 110.4014997 -19.6100012 104.9358077 110.7742920 -19.3653989
 107.4060012 109.8044997  -2.0240012 107.0550012 108.9484997  -1.7810012
 108.1320012 109.9474997  -1.4170012 107.4560769 109.7065636  -1.9086381
 109.5250012 110.7494997 -19.1440012 109.8080012 109.9554997 -18.6920012
 110.2650012 110.9824997 -19.7050012 109.6637486 110.6722803 -19.1579302
  96.1380012 106.3154997  -1.4190012  96.2820012 105.4134997  -1.7060012
  95.3660012 106.6014997  -1.9070012  96.0533322 106.2308261  -1.5242119
 100.4800012 106.6594997 -19.2870012 100.5440012 105.8654997 -18.7560012
 101.1330012 106.5404997 -19.9770012 100.5770241 106.5347148 -19.3075683
 102.7940012 106.2854997  -1.9870012 102.4650012 106.5564997  -2.8440012
 102.9460012 105.3444997  -2.0740012 102.7694809 106.1953862  -2.1161756
 108.5280012 106.2014997  -4.6030012 109.2740012 106.7894997  -4.7230012
 107.7710012 106.7834997  -4.5400012 108.5277554 106.3607011  -4.6109093
  96.9710012 103.5154997  -1.9990012  97.3790012 102.6584997  -2.1200012
  96.7110012 103.5304997  -1.0780012  96.9917568 103.4000807  -1.8910412
 101.6290012 104.6314997 -16.9810012 101.1690012 104.1474997 -16.2950012
 101.8840012 103.9634997 -17.6170012 101.6004902 104.4748731 -16.9730666
 100.9180012 102.5244997  -4.6250012 100.3000012 103.1994997  -4.3450012
 101.2620012 102.8454997  -5.4580012 100.8799615 102.6602721  -4.6993419
 102.7000012 102.8744997 -18.7190012 102.5200012 102.7204997 -19.6460012
 103.6500012 102.9824997 -18.6740012 102.8037776 102.8680175 -18.8398157
 105.9380012 104.9964997  -1.3480012 106.8910012 105.0794997  -1.3750012
 105.7770012 104.2844997  -0.7280012 106.0466426 104.9116746  -1.2679422
 112.0900012 105.2294997 -19.2730012 111.8160012 104.8044997 -20.0860012
 112.1290012 106.1604997 -19.4900012 112.0577699 105.2972484 -19.4136390
 101.2570012  99.8794997  -3.5430012 101.4070012  99.1504997  -4.1450012
 101.2600012 100.6564997  -4.1020012 101.2779302  99.8847851  -3.7009308
 101.6700012  98.2494997  -6.0500012 102.2060012  98.7004997  -6.7020012
 100.8180012  98.1414997  -6.4730012 101.6282178  98.2966390  -6.1964244
 103.2520012 103.6884997  -5.8110012 104.0020012 103.5324997  -6.3840012
 102.9130012 104.5404997  -6.0860012 103.3088921 103.7822968  -5.9266439
 107.6670012 101.5034997  -0.7820012 107.8600012 100.5724997  -0.8940012
 108.5250012 101.9284997  -0.7920012 107.8093020 101.4336389  -0.7986639
 108.9840012 104.2924997  -2.7050012 108.7030012 105.0014997  -3.2820012
 109.9270012 104.2194997  -2.8560012 109.0729027 104.3797646  -2.8044449
  99.7360012 101.0774997  -1.6310012  98.9690012 100.5454997  -1.8410012
 100.4150012 100.7674997  -2.2310012  99.7227022 100.9627506  -1.7408352
 102.4760012  95.7054997  -5.6190012 102.3770012  96.6524997  -5.7240012
 101.7330012  95.3334997  -6.0940012 102.3620564  95.7845902  -5.6975440
 103.7400012 100.0274997  -2.0550012 103.5040012  99.8074997  -1.1530012
 102.9560012  99.8204997  -2.5650012 103.6018628  99.9694760  -2.0006068
 106.4550012  99.1544997  -2.9790012 105.5080012  99.1864997  -2.8470012
 106.7680012  98.5294997  -2.3260012 106.3675475  99.0743207  -2.8725545
 108.0890012  97.7884997  -0.9740012 107.9930012  96.8364997  -0.9800012
 107.7680012  98.0574997  -0.1140012 108.0324070  97.6944035  -0.8584559
  97.9160012  98.9984997  -1.9270012  98.1280012  98.2914997  -2.5370012
  97.8050012  98.5604997  -1.0830012  97.9299721  98.8427084  -1.8963157
 102.6970012  94.9994997  -2.9470012 103.4090012  94.3594997  -2.9610012
 102.5960012  95.2664997  -3.8610012 102.7807939  94.9479938  -3.0724350
 103.0510012  96.6824997  -0.8940012 102.9190012  96.2064997  -1.7140012
 102.4520012  97.4264997  -0.9490012 102.9519071  96.7179618  -1.0137114
 102.5970012 113.5654997 -17.7170012 103.5300012 113.7234997 -17.5740012
 102.3330012 114.2404997 -18.3420012 102.6889510 113.6783611 -17.7819259
  96.1660012 108.2014997 -18.2350012  97.0800012 108.2804997 -17.9610012
  96.1730012 107.5144997 -18.9010012  96.2921131 108.1193961 -18.2875607
  94.8150012 113.5944997 -13.1570012  94.1680012 113.1324997 -13.6900012
  95.1690012 112.9224997 -12.5750012  94.7743849 113.4404723 -13.1512041
  95.6850012 111.6754997 -11.3530012  95.3500012 110.7954997 -11.1810012
  95.9070012 112.0204997 -10.4880012  95.6691783 111.6017500 -11.2125792
 113.2330012 112.4844997  -8.3720012 113.2120012 112.6694997  -7.4330012
 113.9240012 113.0534997  -8.7130012 113.3234618 112.5866606  -8.2896136
 112.7970012 112.0524997  -5.4500012 112.3090012 111.3164997  -5.8210012
 113.3460012 111.6584997  -4.7720012 112.8044872 111.8986249  -5.4090840
 111.2470012 107.8414997  -0.8120012 110.3810012 107.7364997  -0.4180012
 111.6240012 108.6004997  -0.3660012 111.1793308 107.9296900  -0.6977607
 112.5480012 106.0984997 -15.2980012 113.3980012 106.5194997 -15.1710012
 112.5540012 105.3584997 -14.6910012 112.6651372 106.0560803 -15.1985656
 112.9430012 104.1514997 -13.4740012 112.2160012 103.6724997 -13.0770012
 113.5240012 104.3574997 -12.7420012 112.9219375 104.1137090 -13.3205871
 112.7020012 106.9364997  -8.5270012 113.5350012 106.5584997  -8.8070012
 112.8140012 107.8794997  -8.6460012 112.8312647 107.0122218  -8.5814513
 111.1880012 109.8144997  -6.2200012 110.5410012 110.1394997  -5.5940012
 110.6710012 109.3744997  -6.8940012 111.0294029 109.7995004  -6.2254173
 113.2110012 104.0524997 -17.0830012 112.6890012 104.4094997 -17.8020012
 113.1780012 104.7274997 -16.4050012 113.1351634 104.1925413 -17.0896855
 111.5600012 101.2924997 -18.5320012 111.6560012 101.9594997 -19.2130012
 111.4200012 100.4764997 -19.0140012 111.5542135 101.2734500 -18.6901509
 110.7290012 102.6724997 -12.9110012 110.5790012 101.7274997 -12.9320012
 110.3760012 102.9534997 -12.0680012 110.6606625 102.5810441 -12.7997654
  95.7650012 104.7504997  -8.9010012  95.9490012 104.6684997  -9.8370012
  96.6140012 104.6264997  -8.4770012  95.9050139 104.7225003  -8.9718545
 111.5860012 104.6424997  -3.2730012 112.1690012 103.9084997  -3.0810012
 112.1500012 105.4144997  -3.2260012 111.7419769 104.6464227  -3.2403841
 113.0820012 102.5454997  -2.5880012 112.2190012 102.1664997  -2.7540012
 113.6870012 101.8064997  -2.6620012 113.0455979 102.3938023  -2.6207183
 110.8070012  98.7004997 -19.4150012 111.4180012  98.3294997 -18.7780012
 109.9710012  98.2794997 -19.2190012 110.7775032  98.5927554 -19.3012965
 110.4400012 100.2554997 -14.4490012 110.7200012  99.3484997 -14.3250012
 111.1990012 100.6894997 -14.8380012 110.5809277 100.1900942 -14.4846318
 111.0520012 100.8364997  -9.0130012 111.9850012 101.0484997  -9.0470012
 110.8170012 100.9384997  -8.0910012 111.1478036 100.8792769  -8.8930024
 111.0810012 101.5734997  -6.2370012 110.2380012 101.8414997  -5.8710012
 111.5230012 102.3954997  -6.4480012 111.0254158 101.7213291  -6.2154509
  95.3620012 100.0214997  -2.7600012  96.2820012  99.8994997  -2.5240012
  94.9130012  99.2714997  -2.3710012  95.4271580  99.9033727  -2.6750994
 113.3640012  95.5534997  -0.8840012 113.7140012  94.8994997  -1.4890012
 113.5110012  96.3904997  -1.3230012 113.4318419  95.5771591  -1.0262882
 111.0530012  97.5184997 -14.4010012 111.2360012  97.0694997 -13.5750012
 110.4540012  96.9334997 -14.8640012 110.9970202  97.3779975 -14.3506725
  96.5830012  98.3334997  -9.8690012  97.0290012  97.5414997  -9.5670012
  97.0500012  99.0494997  -9.4380012  96.7070172  98.3220624  -9.7695180
  94.8870012 101.3324997  -8.8000012  95.3790012 101.1114997  -9.5910012
  95.2500012 102.1734997  -8.5190012  95.0033126 101.4158357  -8.8702469
 112.8840012  97.6624997  -2.5340012 111.9660012  97.9334997  -2.5700012
 113.0070012  97.1274997  -3.3190012 112.7751066  97.6272892  -2.6449513
 112.9200012  97.5854997 -17.8730012 113.3320012  96.8644997 -18.3480012
 113.6020012  98.2554997 -17.8140012 113.0685885  97.5772368 -17.9301085
  95.2010012  97.5904997 -14.7460012  94.2760012  97.7994997 -14.8750012
  95.6550012  98.0744997 -15.4350012  95.1357368  97.6845993 -14.8568774
 109.9720012 112.5744997 -12.8000012 110.6240012 112.2274997 -13.4080012
 110.4820012 113.0634997 -12.1540012 110.1302637 112.5930597 -12.7959764
  95.1650012  96.3284997  -6.4010012  94.5000012  96.0824997  -5.7580012
  94.7220012  96.9504997  -6.9790012  95.0140956  96.3788632  -6.3910648
  97.3570012 109.5034997  -2.2570012  96.5360012 109.6784997  -2.7170012
  97.1040012 109.4304997  -1.3360012  97.2106164 109.5175622  -2.1955077
 100.3110012 110.4784997  -5.9980012  99.8860012 111.2874997  -6.2810012
 101.2150012 110.5634997  -6.3000012 100.3750271 110.6008469  -6.0776224
 104.6220012 111.8774997  -3.0390012 104.8070012 111.5434997  -2.1610012
 105.4680012 112.1864997  -3.3610012 104.7617539 111.8736047  -2.9624395
 106.9670012 113.1634997  -3.7950012 107.6440012 112.5304997  -4.0350012
 107.2890012 113.5644997  -2.9880012 107.1031637 113.1311154  -3.7187207
 111.8840012  95.7524997  -4.7150012 111.0720012  96.0774997  -5.1030012
 112.1170012  94.9924997  -5.2480012 111.8043423  95.6942436  -4.8401747
  97.7130012 113.7344997  -5.9510012  96.9920012 114.1744997  -6.4020012
  97.3470012 113.4834997  -5.1020012  97.5649804 113.7607698  -5.8980160
 100.1800012 113.3344997  -6.9210012  99.3150012 113.4064997  -6.5170012
 100.1250012 113.8814997  -7.7050012 100.0542085 113.4182685  -6.9716638
 104.8900012 113.2224997  -7.7460012 104.4340012 113.7514997  -8.4000012
 105.0530012 113.8254997  -7.0200012 104.8495585 113.3764468  -7.7374938
 107.2180012 112.1004997  -6.8010012 106.3130012 112.2654997  -7.0660012
 107.6470012 112.9534997  -6.8660012 107.1520799 112.2384483  -6.8460818
 109.8220012 113.6704997  -6.5060012 109.6400012 114.5864997  -6.7160012
 109.9990012 113.2604997  -7.3520012 109.8210210 113.7404822  -6.6492115
  97.1270012 112.3574997  -9.0410012  97.1090012 111.9324997  -8.1830012
  97.9320012 112.0394997  -9.4490012  97.2333875 112.2563812  -8.9788345
  99.2690012 111.0674997 -10.3860012  99.0500012 110.1514997 -10.2160012
 100.0930012 111.2074997  -9.9200012  99.3504420 110.9610520 -10.2997226
 101.8060012 111.5374997  -9.5370012 102.0190012 110.6494997  -9.8240012
 101.8700012 111.5034997  -8.5830012 101.8438231 111.4113102  -9.4472603
 105.3140012  97.2014997 -10.3930012 104.6400012  96.5724997 -10.1370012
 105.8780012  96.7174997 -10.9960012 105.2979230  97.0498744 -10.4394660
 110.4570012  95.3094997 -10.2800012 111.0610012  95.8564997 -10.7820012
 109.5870012  95.6284997 -10.5200012 110.4221241  95.4275806 -10.3812346
 112.1840012  96.4474997 -11.9470012 112.7960012  95.9334997 -12.4730012
 112.5660012  97.3254997 -11.9230012 112.3194540  96.4957140 -12.0158170
  97.6410012  95.8354997 -12.5710012  96.8640012  95.6014997 -13.0780012
  98.1710012  95.0384997 -12.5620012  97.6062330  95.6956988 -12.6392258
  96.4770012  95.6334997 -16.7670012  96.9160012  96.2444997 -17.3590012
  95.8440012  96.1714997 -16.2930012  96.4514514  95.7899257 -16.7839070
 102.2200012  95.7624997 -12.7570012 103.0950012  96.1504997 -12.7870012
 102.0840012  95.5474997 -11.8350012 102.3213695  95.7865184 -12.6363560
 107.7770012  95.7924997 -11.1080012 107.8530012  95.8874997 -12.0580012
 107.5020012  94.8844997 -10.9790012 107.7502321  95.6827867 -11.2204921
 109.1300012  95.8184997 -15.4160012 108.4280012  96.4334997 -15.6250012
 108.6860012  94.9804997 -15.2850012 108.9736330  95.7895783 -15.4269672
  96.3780012 111.5814997 -15.8690012  95.6930012 111.5434997 -16.5370012
  96.3820012 112.4944997 -15.5810012  96.2848193 111.6997016 -15.9214716
  98.3380012  97.5494997 -18.3250012  98.8300012  96.9194997 -18.8520012
  98.9620012  97.8454997 -17.6610012  98.4895446  97.5033199 -18.3074020
 103.3640012  97.8424997 -15.8680012 103.5420012  97.1964997 -15.1850012
 103.3110012  98.6764997 -15.4000012 103.3811829  97.8667985 -15.7114060
 105.2430012 112.7914997 -17.4720012 106.1090012 113.1574997 -17.6500012
 104.9960012 112.3514997 -18.2860012 105.3282392 112.7821756 -17.6063711
 111.9520012 112.3544997 -14.7930012 111.7570012 111.6064997 -15.3580012
 111.9130012 113.1124997 -15.3760012 111.9200380 112.3546099 -14.9491616
  97.5990012  96.3494997  -3.0530012  97.2330012  95.5844997  -2.6100012
  98.5120012  96.3784997  -2.7660012  97.6722790  96.2487224  -2.9535930
  99.5720012  95.7004997  -1.5170012 100.4700012  95.4264997  -1.7020012
  99.1850012  94.9574997  -1.0530012  99.6426612  95.5625914  -1.4796357
  98.1960012 112.5014997 -18.8440012  97.9290012 112.7884997 -17.9710012
  98.9680012 111.9554997 -18.6920012  98.2637488 112.4670294 -18.7038950
 107.9930012  95.0324997  -1.3350012 108.0700012  94.6064997  -0.4810012
 108.8870012  95.0464997  -1.6780012 108.1243428  94.9760879  -1.2644690
 111.1690012 111.1054997  -2.6430012 110.3870012 110.9194997  -3.1620012
 111.0970012 112.0344997  -2.4250012 111.0521777 111.2056492  -2.6845952
 125.5750012 104.9914997 -12.6120012 125.6640012 105.9354997 -12.7440012
 124.9370012 104.7164997 -13.2700012 125.5009081 105.0834830 -12.7190386
 124.5080012 104.2464997  -9.1930012 124.4700012 103.6004997  -8.4880012
 124.1860012 103.7804997  -9.9640012 124.4592333 104.0949408  -9.2007022
 116.8770012 103.8614997  -7.6000012 116.9180012 103.2354997  -6.8770012
 117.5800012 104.4854997  -7.4180012 116.9776363 103.8601196  -7.4763956
 128.2140012 107.1854997 -10.8920012 127.7740012 106.4654997 -10.4410012
 128.2010012 107.9064997 -10.2620012 128.1520226 107.1843731 -10.7451506
 117.8000012 108.3114997  -9.0650012 117.4310012 107.5094997  -9.4350012
 118.7410012 108.1424997  -9.0190012 117.8767289 108.1790153  -9.1093684
 114.4100012 101.9714997 -13.6720012 113.9630012 102.8174997 -13.6910012
 113.8490012 101.3914997 -14.1880012 114.2729900 102.0089916 -13.7443199
 115.1210012 104.1334997 -11.5460012 115.3340012 103.3634997 -11.0190012
 115.8590012 104.2224997 -12.1500012 115.2498496 104.0401394 -11.5554700
 125.3260012 112.2904997 -10.6790012 125.9460012 111.6134997 -10.9530012
 125.1180012 112.0724997  -9.7710012 125.3826904 112.1683870 -10.5936635
 122.8980012 106.6794997  -8.7870012 123.2020012 105.9934997  -9.3820012
 123.6190012 106.7974997  -8.1690012 123.0370671 106.6016305  -8.7848184
 131.5610012  98.2804997  -7.9260012 131.6100012  98.8904997  -7.1900012
 131.9860012  98.7414997  -8.6490012 131.6251824  98.4263741  -7.9229795
 126.0390012 101.0734997  -8.4590012 126.1810012 100.1274997  -8.4390012
 125.9320012 101.2804997  -9.3880012 126.0439864 100.9719534  -8.5817661
 119.1930012  99.1744997 -11.1870012 119.2370012 100.0344997 -11.6050012
 118.7360012  98.6224997 -11.8210012 119.1372185  99.2175799 -11.3299701
 126.9160012  99.3054997 -12.7860012 127.5620012  98.9764997 -12.1610012
 127.4260012  99.8234997 -13.4090012 127.0734264  99.3304611 -12.7846138
 115.8140012 101.5714997 -10.4250012 116.4670012 101.0214997  -9.9930012
 115.8380012 101.2974997 -11.3420012 115.9066683 101.4591466 -10.4897877
 120.9700012 103.1214997 -11.2100012 121.5860012 102.5954997 -10.7000012
 120.3840012 102.4814997 -11.6130012 120.9750810 102.9629208 -11.1946827
 131.9520012  99.7584997  -5.6900012 131.2640012 100.4164997  -5.7860012
 131.9680012  99.5614997  -4.7540012 131.8598525  99.8220462  -5.5765192
 118.0040012  98.0924997  -7.1130012 117.7850012  98.6224997  -7.8790012
 117.3360012  98.3194997  -6.4660012 117.8837600  98.1956906  -7.1303621
 125.3730012 107.5924997 -13.5690012 125.0770012 107.2704997 -14.4200012
 125.0480012 108.4924997 -13.5280012 125.2886371 107.6700215 -13.6798199
 120.5730012 105.7684997  -6.8260012 119.8330012 106.3664997  -6.7220012
 121.2870012 106.3224997  -7.1410012 120.5682237 105.9252831  -6.8543535
 128.6800012  98.5964997 -10.8060012 128.4640012  97.8304997 -10.2730012
 129.3350012  99.0684997 -10.2930012 128.7390632  98.5555889 -10.6637139
 117.5970012  99.9844997  -9.1610012 118.2110012 100.6174997  -8.7870012
 118.1090012  99.5124997  -9.8170012 117.7502296 100.0072370  -9.1985748
 118.9800012 107.7324997  -6.0380012 118.9750012 108.6124997  -6.4160012
 118.1270012 107.6494997  -5.6130012 118.8639464 107.8416117  -6.0322093
 115.1010012 107.4034997 -15.2560012 114.8290012 107.6324997 -16.1450012
 115.1470012 108.2414997 -14.7960012 115.0700094 107.5481213 -15.3154303
 128.7260012 109.0254997  -8.5440012 127.7850012 109.0834997  -8.3820012
 129.0030012 109.9314997  -8.6810012 128.6344679 109.1559443  -8.5403185
 129.0270012  97.3114997  -7.1260012 128.2910012  97.9224997  -7.1640012
 129.7100012  97.7264997  -7.6530012 129.0186541  97.4511374  -7.2024168
 122.0300012  95.3984997  -9.6600012 121.9130012  94.4494997  -9.7150012
 121.1750012  95.7304997  -9.3870012 121.8983733  95.3135409  -9.6306103
 126.9780012 110.8064997 -11.9180012 127.4040012 110.0994997 -12.4030012
 127.2950012 111.6074997 -12.3350012 127.0791019 110.8180994 -12.0406870
 128.1380012 108.7074997 -13.4100012 127.8800012 108.0174997 -14.0210012
 128.2090012 108.2644997 -12.5640012 128.1122856 108.5532124 -13.3793115
 129.8240012 107.2734997  -4.9320012 129.9640012 106.6824997  -5.6720012
 129.9910012 108.1464997  -5.2890012 129.8656778 107.3106426  -5.0813035
 124.2970012 104.2354997 -15.1600012 123.5850012 104.7704997 -15.5120012
 124.9880012 104.2914997 -15.8200012 124.2930132 104.3162543 -15.2973711
 124.3500012 102.6934997 -18.1210012 125.0510012 102.7154997 -17.4700012
 124.6530012 102.0654997 -18.7770012 124.4867830 102.6116566 -18.1206289
 131.6660012 103.6134997  -6.8660012 131.0130012 104.3084997  -6.7770012
 132.1310012 103.8234997  -7.6760012 131.6395390 103.7369425  -6.9633117
 127.7020012 104.4454997 -14.2080012 126.9700012 104.6734997 -13.6350012
 128.1500012 103.7314997 -13.7530012 127.6623095 104.3802571 -14.0680881
 127.6000012 102.6194997  -5.1410012 127.6800012 103.3824997  -4.5690012
 126.9980012 102.8984997  -5.8310012 127.5295756 102.7617134  -5.1559411
 119.3480012 105.0754997 -12.3260012 119.0170012 104.7054997 -13.1440012
 119.9360012 104.4054997 -11.9790012 119.3821873 104.9341156 -12.3911898
 120.7140012 108.5034997  -9.6440012 120.6200012 107.9254997 -10.4010012
 121.4440012 108.1324997  -9.1480012 120.7997981 108.3742390  -9.6805835
 119.7140012 103.8444997  -8.6920012 120.2800012 103.9654997  -9.4550012
 120.0330012 104.4814997  -8.0530012 119.8345786 103.9471884  -8.7099960
 126.0230012 109.3474997  -7.9580012 125.7830012 110.0094997  -7.3100012
 125.8250012 108.5134997  -7.5330012 125.9633808 109.3253134  -7.8118476
 120.5940012 108.2434997  -3.9750012 120.2830012 109.0254997  -3.5200012
 119.9440012 108.0904997  -4.6610012 120.4635558 108.3299105  -4.0054129
 126.5730012 103.6074997 -16.5230012 127.1530012 103.7574997 -15.7760012
 126.9870012 104.0784997 -17.2460012 126.7082830 103.6916841 -16.5185866
 117.5140012 104.4414997  -4.7460012 117.5850012 105.0924997  -4.0480012
 116.6240012 104.5444997  -5.0810012 117.4033117 104.5445936  -4.6957300
 124.3000012 110.3444997 -13.0880012 124.7740012 110.6394997 -12.3100012
 123.7370012 111.0824997 -13.3210012 124.2887653 110.4846932 -13.0129864
 118.8340012 110.3154997  -3.2120012 118.8410012 110.1794997  -4.1590012
 117.9180012 110.1974997  -2.9600012 118.7111714 110.2809430  -3.3075334
 130.2720012  95.3574997 -16.7100012 129.3720012  95.4964997 -16.4150012
 130.5240012  96.1884997 -17.1120012 130.1828702  95.4889074 -16.7239795
 118.3380012 104.1454997 -14.7360012 118.0460012 104.9134997 -15.2270012
 117.6640012 103.4854997 -14.8990012 118.2069081 104.1614406 -14.8252660
 131.4610012 109.7234997 -18.3340012 131.5350012 110.6624997 -18.1630012
 132.3670012 109.4184997 -18.3900012 131.5935100 109.8106722 -18.3181881
 114.4310012 106.5084997  -5.9210012 113.9300012 106.4804997  -6.7360012
 114.4360012 105.6024997  -5.6120012 114.3631526 106.3822278  -5.9907128
 114.1810012 109.2884997  -9.0370012 115.1270012 109.1444997  -9.0560012
 114.0690012 110.0724997  -8.5000012 114.2952727 109.3748046  -8.9669928
 132.3790012 109.9544997  -3.3550012 132.3300012 108.9994997  -3.3920012
 131.5520012 110.2224997  -2.9540012 132.2604940 109.8598998  -3.3058625
 123.3580012 109.5284997  -4.4790012 123.4450012 110.3544997  -4.0040012
 122.4940012 109.1984997  -4.2300012 123.2531964 109.5969878  -4.3803451
 123.7720012 113.3004997 -14.6730012 123.6970012 113.1794997 -15.6190012
 123.8050012 114.2504997 -14.5540012 123.7661848 113.4122500 -14.7865166
 117.4250012 112.0894997 -12.8920012 117.5780012 111.7414997 -12.0130012
 116.5750012 111.7334997 -13.1470012 117.3308962 111.9936650 -12.8061660
 126.8740012 112.4544997 -17.6710012 127.2490012 111.7104997 -18.1410012
 126.8780012 112.1844997 -16.7520012 126.9258915 112.3161486 -17.6112176
 126.5430012 112.3804997 -14.9210012 125.6070012 112.4804997 -14.7430012
 126.8230012 111.6714997 -14.3430012 126.4528255 112.2982711 -14.8184609
 129.5310012 101.4474997  -2.8750012 129.1240012 101.9284997  -3.5960012
 129.5720012 100.5424997  -3.1830012 129.4808437 101.3909374  -3.0153317
 116.6800012 107.8314997  -4.8780012 116.8960012 107.4704997  -4.0190012
 115.8250012 107.4574997  -5.0880012 116.5939292 107.7314111  -4.7886614
 119.2990012  96.3014997  -8.8830012 118.4370012  96.2144997  -9.2900012
 119.2760012  97.1574997  -8.4550012 119.1780330  96.4052765  -8.8808137
 123.9620012  96.0234997  -5.5080012 124.3820012  95.6084997  -4.7550012
 123.0290012  95.8454997  -5.3910012 123.8933644  95.9425900  -5.3890461
 127.2880012  99.7794997  -4.6550012 126.7740012  99.6534997  -3.8570012
 127.1330012 100.6914997  -4.8990012 127.1966852  99.8856132  -4.5787842
 128.0510012 104.6404997 -18.8930012 128.0930012 104.4174997 -19.8230012
 128.9000012 105.0394997 -18.7030012 128.1715396 104.6639155 -18.9946373
 123.6230012  98.5164997 -18.2230012 123.3700012  98.5354997 -17.3000012
 123.3670012  97.6444997 -18.5240012 123.5537790  98.4012437 -18.1373737
 119.3900012 101.2674997  -7.7880012 118.7480012 101.2264997  -7.0790012
 119.4270012 102.1934997  -8.0250012 119.3071324 101.3871559  -7.7230176
 119.3870012 101.4884997 -12.8760012 118.4940012 101.1474997 -12.9340012
 119.8370012 101.1114997 -13.6310012 119.3257305 101.3908484 -12.9860823
 124.9220012 101.9044997 -14.0590012 124.5130012 102.7194997 -14.3500012
 125.6430012 101.7644997 -14.6730012 124.9634537 101.9972018 -14.1818658
 124.0240012 102.0794997  -2.5710012 123.4620012 101.3754997  -2.2500012
 124.8510012 101.9594997  -2.1030012 124.0587095 101.9667883  -2.4637670
 125.9270012 101.3504997 -11.2450012 125.7320012 101.9554997 -11.9600012
 126.1080012 100.5164997 -11.6790012 125.9247614 101.3206300 -11.4015595
 117.1400012 101.5874997  -5.9210012 117.1020012 101.9874997  -5.0520012
 116.6490012 100.7704997  -5.8300012 117.0684684 101.5318069  -5.7898941
 120.5060012  98.9614997 -19.1220012 120.0750012  98.5164997 -18.3920012
 119.7880012  99.3334997 -19.6340012 120.3499438  98.9508940 -19.0913201
 113.7480012  98.7034997 -12.0700012 114.3790012  98.6744997 -11.3510012
 114.1970012  98.2784997 -12.8000012 113.8950774  98.6420492 -12.0703447
 115.0220012  99.4494997 -16.6460012 115.4960012 100.0404997 -17.2310012
 114.3050012  99.9804997 -16.2990012 114.9899341  99.6020867 -16.6791164
 125.1910012 102.9884997  -6.5730012 125.5140012 102.3574997  -7.2160012
 124.7510012 102.4534997  -5.9130012 125.1756895 102.8298441  -6.5717150
 121.9680012  98.9154997 -11.7890012 121.0570012  98.9724997 -11.5010012
 122.4740012  98.8554997 -10.9790012 121.9115413  98.9151985 -11.6399378
 116.7970012 100.5444997 -12.9630012 115.9070012 100.6444997 -13.3030012
 117.0930012  99.7024997 -13.3090012 116.7152823 100.4443546 -13.0562787
 120.4500012 100.5444997 -15.3060012 121.3810012 100.6734997 -15.1280012
 120.2350012 101.2144997 -15.9560012 120.5484247 100.6526565 -15.3694253
 126.3730012  98.1504997  -8.5250012 125.6970012  98.2814997  -7.8610012
 125.8880012  97.9954997  -9.3350012 126.2147145  98.1474905  -8.5435483
 119.1240012 101.7394997 -17.7390012 118.5810012 101.3594997 -18.4310012
 119.9570012 101.9334997 -18.1680012 119.1624399 101.7138124 -17.8915474
 129.6610012 113.8224997  -2.2480012 129.8610012 114.2464997  -3.0830012
 130.3160012 114.1654997  -1.6410012 129.7770051 113.9269648  -2.2802164
 117.2590012 106.2964997  -2.6400012 117.9910012 106.5504997  -2.0790012
 116.4790012 106.5004997  -2.1250012 117.2538232 106.3589177  -2.4934240
 123.2880012 101.7034997  -9.9020012 123.8530012 101.1564997 -10.4490012
 123.1410012 101.1814997  -9.1140012 123.3452918 101.5582024  -9.8701546
 118.2900012  97.8394997 -13.4840012 117.9730012  96.9374997 -13.5190012
 119.0720012  97.8414997 -14.0370012 118.3522284  97.7161628 -13.5635217
 121.9150012 100.0914997  -7.4880012 121.0790012 100.5454997  -7.3780012
 122.4390012 100.3674997  -6.7360012 121.8714414 100.1909376  -7.3712864
 122.4590012 106.3044997 -15.8040012 121.7140012 105.7974997 -16.1260012
 122.3250012 106.3534997 -14.8570012 122.3388776 106.2416940 -15.7201353
 129.6090012 105.4374997  -7.0170012 130.2510012 105.8944997  -7.5610012
 128.7790012 105.5504997  -7.4800012 129.5845963 105.5152704  -7.1539823
 126.3570012  99.1184997 -17.6040012 125.4180012  99.2304997 -17.7560012
 126.6540012  99.9754997 -17.2980012 126.2687666  99.2496443 -17.5834232
 123.9780012 106.4884997  -4.5670012 123.6330012 106.1074997  -3.7600012
 123.7780012 107.4224997  -4.4950012 123.9038061 106.5625228  -4.4469039
 127.0750012 100.9854997 -15.9440012 127.9670012 100.8484997 -15.6250012
 127.1320012 101.7764997 -16.4800012 127.2046285 101.0736660 -15.9728310
 117.5840012 105.5994997 -10.0340012 118.3290012 105.5974997 -10.6350012
 117.6620012 104.7764997  -9.5520012 117.6965518 105.4879315 -10.0511071
 124.5850012 107.7634997 -16.7780012 124.2890012 108.5894997 -16.3970012
 123.8820012 107.1434997 -16.5820012 124.4494914 107.7928199 -16.6993557
 114.5920012 104.0604997  -4.7190012 114.8150012 103.6424997  -3.8870012
 113.9900012 103.4474997  -5.1420012 114.5411759 103.9204668  -4.6622978
 121.6080012 103.5774997  -2.5060012 121.3120012 103.4114997  -3.4010012
 122.5400012 103.3574997  -2.5170012 121.6934166 103.5250640  -2.6299464
 126.2290012 108.9504997  -4.6160012 125.3280012 109.1334997  -4.8840012
 126.2630012 109.2094997  -3.6950012 126.1103041 109.0105512  -4.5281803
 131.9600012 101.1954997 -16.2490012 131.4060012 100.7994997 -16.9210012
 132.0600012 102.1054997 -16.5270012 131.8977059 101.2643586 -16.3785599
 131.9230012 106.9954997  -3.4120012 131.0720012 107.2334997  -3.7790012
 132.5140012 106.9784997  -4.1650012 131.8862487 107.0258258  -3.5641107
 130.2550012 109.9814997 -15.7840012 129.8820012 109.1554997 -15.4750012
 130.5330012 109.7984997 -16.6810012 130.2415630 109.8437303 -15.8630374
 127.4160012 104.7894997  -8.7630012 126.4870012 104.5574997  -8.7900012
 127.8670012 104.0124997  -9.0930012 127.3499216 104.6527238  -8.8113083
 119.9590012 109.1174997 -12.6300012 120.4860012 109.8904997 -12.8300012
 119.0790012 109.3424997 -12.9310012 119.9121773 109.2538005 -12.6980990
 115.7140012 103.9794997 -18.0430012 116.3300012 104.6064997 -17.6630012
 114.8520012 104.2954997 -17.7710012 115.6817698 104.1079430 -17.9542817
 121.3860012 106.7804997 -13.0530012 121.1450012 107.7054997 -13.0120012
 120.6450012 106.3214997 -12.6570012 121.2528409 106.8451421 -12.9938623
 121.9010012 110.9294997  -6.7380012 122.2630012 111.7844997  -6.9720012
 122.4320012 110.6374997  -5.9980012 122.0224473 111.0071060  -6.6699145
 120.0690012 111.8024997 -13.5080012 119.1190012 111.9074997 -13.4570012
 120.4210012 112.6224997 -13.1630012 119.9864203 111.9278314 -13.4543350
 125.4450012 107.0284997  -7.0380012 125.0190012 106.8014997  -6.2110012
 126.0250012 106.2904997  -7.2200012 125.4651868 106.8975299  -6.9494170
 127.6480012 107.9574997 -17.9640012 128.0010012 107.5774997 -17.1590012
 126.6990012 107.8644997 -17.8770012 127.5680441 107.8929596 -17.8421441
 128.1030012 111.5804997  -4.5680012 127.5020012 111.0254997  -5.0640012
 128.3850012 112.2474997  -5.1940012 128.0588519 111.5946841  -4.7205048
 132.1510012 112.4374997 -17.7630012 132.8950012 113.0234997 -17.9030012
 131.4570012 113.0054997 -17.4290012 132.1590292 112.5945582 -17.7370039
 116.2260012  98.8134997  -5.1610012 115.3330012  99.1524997  -5.2290012
 116.1270012  97.9584997  -4.7430012 116.0904164  98.7442588  -5.1137765
 128.5140012 106.6304997 -15.7370012 128.2360012 105.9024997 -15.1810012
 129.4410012 106.7494997 -15.5320012 128.6013124 106.5468802 -15.6331155
 115.8770012 110.6184997  -6.7260012 116.0940012 109.6864997  -6.7570012
 116.1230012 110.8924997  -5.8430012 115.9399549 110.5280636  -6.6108237
 121.7390012 109.0694997 -19.5170012 121.9780012 108.3214997 -20.0640012
 121.4700012 108.6814997 -18.6840012 121.7353675 108.9146638 -19.4793135
 120.6760012 108.6394997 -17.0600012 120.8220012 108.1194997 -16.2700012
 120.6730012 109.5464997 -16.7540012 120.6955989 108.6908853 -16.9103912
 117.1290012 105.8924997 -16.5500012 116.4430012 106.2444997 -15.9830012
 117.6510012 106.6554997 -16.7970012 117.1056852 106.0438578 -16.5057882
 124.9600012  98.5544997  -6.2710012 125.6590012  98.6284997  -5.6210012
 124.5790012  97.6904997  -6.1170012 125.0041767  98.4477624  -6.1611678
 125.7450012  98.2064997 -15.1740012 125.9650012  98.6784997 -15.9770012
 126.3030012  98.6014997 -14.5040012 125.8504968  98.3244285 -15.1932669
 123.4130012 110.3374997 -16.3110012 122.5970012 110.8344997 -16.2590012
 123.9430012 110.8124997 -16.9510012 123.3729161 110.4697722 -16.3904044
 122.9450012  99.9344997 -14.3390012 123.7570012 100.4394997 -14.2930012
 122.7000012  99.7894997 -13.4250012 123.0230520  99.9840375 -14.2091483
 123.4800012 100.9204997  -5.1540012 123.5990012 101.4944997  -4.3970012
 124.1360012 100.2324997  -5.0400012 123.5849757 100.9061079  -5.0349175
 123.8280012  97.0154997 -13.4010012 123.4820012  97.6334997 -12.7560012
 124.4870012  97.5164997 -13.8820012 123.8697826  97.1675802 -13.3779029
 120.7520012 111.3814997 -16.3290012 120.9120012 112.1804997 -16.8300012
 120.5540012 111.6874997 -15.4440012 120.7471649 111.5324469 -16.2780185
 119.4860012  98.0784997 -16.7140012 119.4030012  98.9674997 -16.3670012
 120.3760012  97.8134997 -16.4820012 119.5949469  98.1641430 -16.6352374
 129.6850012  98.8274997  -4.3190012 128.7680012  99.0904997  -4.4070012
 130.0200012  98.8244997  -5.2160012 129.6049900  98.8630224  -4.4522081
 128.2870012 102.5784997 -10.2240012 127.4890012 102.1634997 -10.5520012
 128.7320012 101.8874997  -9.7330012 128.2379885 102.4283543 -10.2025111
 117.7450012 108.5064997 -17.6530012 118.3370012 109.2054997 -17.3770012
 118.2040012 108.0734997 -18.3730012 117.8881142 108.5437049 -17.7125170
 116.0610012 101.1704997 -18.5370012 116.0160012 102.1094997 -18.3590012
 115.1730012 100.9344997 -18.8070012 115.9348574 101.2671892 -18.5491088
 129.3730012 111.8344997  -8.6010012 129.2180012 112.5124997  -9.2580012
 130.3060012 111.9064997  -8.3980012 129.4778500 111.9370170  -8.6634881
 116.8690012  95.9524997  -9.8640012 116.6400012  96.0114997 -10.7920012
 116.4260012  95.1604997  -9.5580012 116.7778530  95.8535753  -9.9495214
 115.7990012 109.8924997 -13.7040012 114.9670012 110.3654997 -13.6760012
 116.3450012 110.4024997 -14.3020012 115.7589739 110.0261871 -13.7810284
 115.0870012 112.5054997  -2.3740012 115.6280012 112.2884997  -1.6140012
 114.6060012 111.6994997  -2.5630012 115.0959345 112.3669514  -2.2956924
 119.6850012 111.4244997  -0.7530012 120.4520012 110.9654997  -0.4120012
 119.6630012 111.1984997  -1.6830012 119.7871434 111.3310409  -0.8319957
 123.7770012 110.9324997 -19.3780012 123.1330012 110.3014997 -19.0570012
 124.5390012 110.4014997 -19.6100012 123.7918077 110.7742920 -19.3653989
 126.2620012 109.8044997  -2.0240012 125.9110012 108.9484997  -1.7810012
 126.9880012 109.9474997  -1.4170012 126.3120769 109.7065636  -1.9086381
 128.3810012 110.7494997 -19.1440012 128.6640012 109.9554997 -18.6920012
 129.1210012 110.9824997 -19.7050012 128.5197486 110.6722803 -19.1579302
 114.9940012 106.3154997  -1.4190012 115.1380012 105.4134997  -1.7060012
 114.2220012 106.6014997  -1.9070012 114.9093322 106.2308261  -1.5242119
 119.3360012 106.6594997 -19.2870012 119.4000012 105.8654997 -18.7560012
 119.9890012 106.5404997 -19.9770012 119.4330241 106.5347148 -19.3075683
 121.6500012 106.2854997  -1.9870012 121.3210012 106.5564997  -2.8440012
 121.8020012 105.3444997  -2.0740012 121.6254809 106.1953862  -2.1161756
 127.3840012 106.2014997  -4.6030012 128.1300012 106.7894997  -4.7230012
 126.6270012 106.7834997  -4.5400012 127.3837554 106.3607011  -4.6109093
 115.8270012 103.5154997  -1.9990012 116.2350012 102.6584997  -2.1200012
 115.5670012 103.5304997  -1.0780012 115.8477568 103.4000807  -1.8910412
 120.4850012 104.6314997 -16.9810012 120.0250012 104.1474997 -16.2950012
 120.7400012 103.9634997 -17.6170012 120.4564902 104.4748731 -16.9730666
 119.7740012 102.5244997  -4.6250012 119.1560012 103.1994997  -4.3450012
 120.1180012 102.8454997  -5.4580012 119.7359615 102.6602721  -4.6993419
 121.5560012 102.8744997 -18.7190012 121.3760012 102.7204997 -19.6460012
 122.5060012 102.9824997 -18.6740012 121.6597776 102.8680175 -18.8398157
 124.7940012 104.9964997  -1.3480012 125.7470012 105.0794997  -1.3750012
 124.6330012 104.2844997  -0.7280012 124.9026426 104.9116746  -1.2679422
 130.9460012 105.2294997 -19.2730012 130.6720012 104.8044997 -20.0860012
 130.9850012 106.1604997 -19.4900012 130.9137699 105.2972484 -19.4136390
 120.1130012  99.8794997  -3.5430012 120.2630012  99.1504997  -4.1450012
 120.1160012 100.6564997  -4.1020012 120.1339302  99.8847851  -3.7009308
 120.5260012  98.2494997  -6.0500012 121.0620012  98.7004997  -6.7020012
 119.6740012  98.1414997  -6.4730012 120.4842178  98.2966390  -6.1964244
 122.1080012 103.6884997  -5.8110012 122.8580012 103.5324997  -6.3840012
 121.7690012 104.5404997  -6.0860012 122.1648921 103.7822968  -5.9266439
 126.5230012 101.5034997  -0.7820012 126.7160012 100.5724997  -0.8940012
 127.3810012 101.9284997  -0.7920012 126.6653020 101.4336389  -0.7986639
 127.8400012 104.2924997  -2.7050012 127.5590012 105.0014997  -3.2820012
 128.7830012 104.2194997  -2.8560012 127.9289027 104.3797646  -2.8044449
 118.5920012 101.0774997  -1.6310012 117.8250012 100.5454997  -1.8410012
 119.2710012 100.7674997  -2.2310012 118.5787022 100.9627506  -1.7408352
 121.3320012  95.7054997  -5.6190012 121.2330012  96.6524997  -5.7240012
 120.5890012  95.3334997  -6.0940012 121.2180564  95.7845902  -5.6975440
 122.5960012 100.0274997  -2.0550012 122.3600012  99.8074997  -1.1530012
 121.8120012  99.8204997  -2.5650012 122.4578628  99.9694760  -2.0006068
 125.3110012  99.1544997  -2.9790012 124.3640012  99.1864997  -2.8470012
 125.6240012  98.5294997  -2.3260012 125.2235475  99.0743207  -2.8725545
 126.9450012  97.7884997  -0.9740012 126.8490012  96.8364997  -0.9800012
 126.6240012  98.0574997  -0.1140012 126.8884070  97.6944035  -0.8584559
 116.7720012  98.9984997  -1.9270012 116.9840012  98.2914997  -2.5370012
 116.6610012  98.5604997  -1.0830012 116.7859721  98.8427084  -1.8963157
 121.5530012  94.9994997  -2.9470012 122.2650012  94.3594997  -2.9610012
 121.4520012  95.2664997  -3.8610012 121.6367939  94.9479938  -3.0724350
 121.9070012  96.6824997  -0.8940012 121.7750012  96.2064997  -1.7140012
 121.3080012  97.4264997  -0.9490012 121.8079071  96.7179618  -1.0137114
 121.4530012 113.5654997 -17.7170012 122.3860012 113.7234997 -17.5740012
 121.1890012 114.2404997 -18.3420012 121.5449510 113.6783611 -17.7819259
 115.0220012 108.2014997 -18.2350012 115.9360012 108.2804997 -17.9610012
 115.0290012 107.5144997 -18.9010012 115.1481131 108.1193961 -18.2875607
 113.6710012 113.5944997 -13.1570012 113.0240012 113.1324997 -13.6900012
 114.0250012 112.9224997 -12.5750012 113.6303849 113.4404723 -13.1512041
 114.5410012 111.6754997 -11.3530012 114.2060012 110.7954997 -11.1810012
 114.7630012 112.0204997 -10.4880012 114.5251783 111.6017500 -11.2125792
 132.0890012 112.4844997  -8.3720012 132.0680012 112.6694997  -7.4330012
 132.7800012 113.0534997  -8.7130012 132.1794618 112.5866606  -8.2896136
 131.6530012 112.0524997  -5.4500012 131.1650012 111.3164997  -5.8210012
 132.2020012 111.6584997  -4.7720012 131.6604872 111.8986249  -5.4090840
 130.1030012 107.8414997  -0.8120012 129.2370012 107.7364997  -0.4180012
 130.4800012 108.6004997  -0.3660012 130.0353308 107.9296900  -0.6977607
 131.4040012 106.0984997 -15.2980012 132.2540012 106.5194997 -15.1710012
 131.4100012 105.3584997 -14.6910012 131.5211372 106.0560803 -15.1985656
 131.7990012 104.1514997 -13.4740012 131.0720012 103.6724997 -13.0770012
 132.3800012 104.3574997 -12.7420012 131.7779375 104.1137090 -13.3205871
 131.5580012 106.9364997  -8.5270012 132.3910012 106.5584997  -8.8070012
 131.6700012 107.8794997  -8.6460012 131.6872647 107.0122218  -8.5814513
 130.0440012 109.8144997  -6.2200012 129.3970012 110.1394997  -5.5940012
 129.5270012 109.3744997  -6.8940012 129.8854029 109.7995004  -6.2254173
 132.0670012 104.0524997 -17.0830012 131.5450012 104.4094997 -17.8020012
 132.0340012 104.7274997 -16.4050012 131.9911634 104.1925413 -17.0896855
 130.4160012 101.2924997 -18.5320012 130.5120012 101.9594997 -19.2130012
 130.2760012 100.4764997 -19.0140012 130.4102135 101.2734500 -18.6901509
 129.5850012 102.6724997 -12.9110012 129.4350012 101.7274997 -12.9320012
 129.2320012 102.9534997 -12.0680012 129.5166625 102.5810441 -12.7997654
 114.6210012 104.7504997  -8.9010012 114.8050012 104.6684997  -9.8370012
 115.4700012 104.6264997  -8.4770012 114.7610139 104.7225003  -8.9718545
 130.4420012 104.6424997  -3.2730012 131.0250012 103.9084997  -3.0810012
 131.0060012 105.4144997  -3.2260012 130.5979769 104.6464227  -3.2403841
 131.9380012 102.5454997  -2.5880012 131.0750012 102.1664997  -2.7540012
 132.5430012 101.8064997  -2.6620012 131.9015979 102.3938023  -2.6207183
 129.6630012  98.7004997 -19.4150012 130.2740012  98.3294997 -18.7780012
 128.8270012  98.2794997 -19.2190012 129.6335032  98.5927554 -19.3012965
 129.2960012 100.2554997 -14.4490012 129.5760012  99.3484997 -14.3250012
 130.0550012 100.6894997 -14.8380012 129.4369277 100.1900942 -14.4846318
 129.9080012 100.8364997  -9.0130012 130.8410012 101.0484997  -9.0470012
 129.6730012 100.9384997  -8.0910012 130.0038036 100.8792769  -8.8930024
 129.9370012 101.5734997  -6.2370012 129.0940012 101.8414997  -5.8710012
 130.3790012 102.3954997  -6.4480012 129.8814158 101.7213291  -6.2154509
 114.2180012 100.0214997  -2.7600012 115.1380012  99.8994997  -2.5240012
 113.7690012  99.2714997  -2.3710012 114.2831580  99.9033727  -2.6750994
 132.2200012  95.5534997  -0.8840012 132.5700012  94.8994997  -1.4890012
 132.3670012  96.3904997  -1.3230012 132.2878419  95.5771591  -1.0262882
 129.9090012  97.5184997 -14.4010012 130.0920012  97.0694997 -13.5750012
 129.3100012  96.9334997 -14.8640012 129.8530202  97.3779975 -14.3506725
 115.4390012  98.3334997  -9.8690012 115.8850012  97.5414997  -9.5670012
 115.9060012  99.0494997  -9.4380012 115.5630172  98.3220624  -9.7695180
 113.7430012 101.3324997  -8.8000012 114.2350012 101.1114997  -9.5910012
 114.1060012 102.1734997  -8.5190012 113.8593126 101.4158357  -8.8702469
 131.7400012  97.6624997  -2.5340012 130.8220012  97.9334997  -2.5700012
 131.8630012  97.1274997  -3.3190012 131.6311066  97.6272892  -2.6449513
 131.7760012  97.5854997 -17.8730012 132.1880012  96.8644997 -18.3480012
 132.4580012  98.2554997 -17.8140012 131.9245885  97.5772368 -17.9301085
 114.0570012  97.5904997 -14.7460012 113.1320012  97.7994997 -14.8750012
 114.5110012  98.0744997 -15.4350012 113.9917368  97.6845993 -14.8568774
 128.8280012 112.5744997 -12.8000012 129.4800012 112.2274997 -13.4080012
 129.3380012 113.0634997 -12.1540012 128.9862637 112.5930597 -12.7959764
 114.0210012  96.3284997  -6.4010012 113.3560012  96.0824997  -5.7580012
 113.5780012  96.9504997  -6.9790012 113.8700956  96.3788632  -6.3910648
 116.2130012 109.5034997  -2.2570012 115.3920012 109.6784997  -2.7170012
 115.9600012 109.4304997  -1.3360012 116.0666164 109.5175622  -2.1955077
 119.1670012 110.4784997  -5.9980012 118.7420012 111.2874997  -6.2810012
 120.0710012 110.5634997  -6.3000012 119.2310271 110.6008469  -6.0776224
 123.4780012 111.8774997  -3.0390012 123.6630012 111.5434997  -2.1610012
 124.3240012 112.1864997  -3.3610012 123.6177539 111.8736047  -2.9624395
 125.8230012 113.1634997  -3.7950012 126.5000012 112.5304997  -4.0350012
 126.1450012 113.5644997  -2.9880012 125.9591637 113.1311154  -3.7187207
 130.7400012  95.7524997  -4.7150012 129.9280012  96.0774997  -5.1030012
 130.9730012  94.9924997  -5.2480012 130.6603423  95.6942436  -4.8401747
 116.5690012 113.7344997  -5.9510012 115.8480012 114.1744997  -6.4020012
 116.2030012 113.4834997  -5.1020012 116.4209804 113.7607698  -5.8980160
 119.0360012 113.3344997  -6.9210012 118.1710012 113.4064997  -6.5170012
 118.9810012 113.8814997  -7.7050012 118.9102085 113.4182685  -6.9716638
 123.7460012 113.2224997  -7.7460012 123.2900012 113.7514997  -8.4000012
 123.9090012 113.8254997  -7.0200012 123.7055585 113.3764468  -7.7374938
 126.0740012 112.1004997  -6.8010012 125.1690012 112.2654997  -7.0660012
 126.5030012 112.9534997  -6.8660012 126.0080799 112.2384483  -6.8460818
 128.6780012 113.6704997  -6.5060012 128.4960012 114.5864997  -6.7160012
 128.8550012 113.2604997  -7.3520012 128.6770210 113.7404822  -6.6492115
 115.9830012 112.3574997  -9.0410012 115.9650012 111.9324997  -8.1830012
 116.7880012 112.0394997  -9.4490012 116.0893875 112.2563812  -8.9788345
 118.1250012 111.0674997 -10.3860012 117.9060012 110.1514997 -10.2160012
 118.9490012 111.2074997  -9.9200012 118.2064420 110.9610520 -10.2997226
 120.6620012 111.5374997  -9.5370012 120.8750012 110.6494997  -9.8240012
 120.7260012 111.5034997  -8.5830012 120.6998231 111.4113102  -9.4472603
 124.1700012  97.2014997 -10.3930012 123.4960012  96.5724997 -10.1370012
 124.7340012  96.7174997 -10.9960012 124.1539230  97.0498744 -10.4394660
 129.3130012  95.3094997 -10.2800012 129.9170012  95.8564997 -10.7820012
 128.4430012  95.6284997 -10.5200012 129.2781241  95.4275806 -10.3812346
 131.0400012  96.4474997 -11.9470012 131.6520012  95.9334997 -12.4730012
 131.4220012  97.3254997 -11.9230012 131.1754540  96.4957140 -12.0158170
 116.4970012  95.8354997 -12.5710012 115.7200012  95.6014997 -13.0780012
 117.0270012  95.0384997 -12.5620012 116.4622330  95.6956988 -12.6392258
 115.3330012  95.6334997 -16.7670012 115.7720012  96.2444997 -17.3590012
 114.7000012  96.1714997 -16.2930012 115.3074514  95.7899257 -16.7839070
 121.0760012  95.7624997 -12.7570012 121.9510012  96.1504997 -12.7870012
 120.9400012  95.5474997 -11.8350012 121.1773695  95.7865184 -12.6363560
 126.6330012  95.7924997 -11.1080012 126.7090012  95.8874997 -12.0580012
 126.3580012  94.8844997 -10.9790012 126.6062321  95.6827867 -11.2204921
 127.9860012  95.8184997 -15.4160012 127.2840012  96.4334997 -15.6250012
 127.5420012  94.9804997 -15.2850012 127.8296330  95.7895783 -15.4269672
 115.2340012 111.5814997 -15.8690012 114.5490012 111.5434997 -16.5370012
 115.2380012 112.4944997 -15.5810012 115.1408193 111.6997016 -15.9214716
 117.1940012  97.5494997 -18.3250012 117.6860012  96.9194997 -18.8520012
 117.8180012  97.8454997 -17.6610012 117.3455446  97.5033199 -18.3074020
 122.2200012  97.8424997 -15.8680012 122.3980012  97.1964997 -15.1850012
 122.1670012  98.6764997 -15.4000012 122.2371829  97.8667985 -15.7114060
 124.0990012 112.7914997 -17.4720012 124.9650012 113.1574997 -17.6500012
 123.8520012 112.3514997 -18.2860012 124.1842392 112.7821756 -17.6063711
 130.8080012 112.3544997 -14.7930012 130.6130012 111.6064997 -15.3580012
 130.7690012 113.1124997 -15.3760012 130.7760380 112.3546099 -14.9491616
 116.4550012  96.3494997  -3.0530012 116.0890012  95.5844997  -2.6100012
 117.3680012  96.3784997  -2.7660012 116.5282790  96.2487224  -2.9535930
 118.4280012  95.7004997  -1.5170012 119.3260012  95.4264997  -1.7020012
 118.0410012  94.9574997  -1.0530012 118.4986612  95.5625914  -1.4796357
 117.0520012 112.5014997 -18.8440012 116.7850012 112.7884997 -17.9710012
 117.8240012 111.9554997 -18.6920012 117.1197488 112.4670294 -18.7038950
 126.8490012  95.0324997  -1.3350012 126.9260012  94.6064997  -0.4810012
 127.7430012  95.0464997  -1.6780012 126.9803428  94.9760879  -1.2644690
 130.0250012 111.1054997  -2.6430012 129.2430012 110.9194997  -3.1620012
 129.9530012 112.0344997  -2.4250012 129.9081777 111.2056492  -2.6845952
 144.4310012 104.9914997 -12.6120012 144.5200012 105.9354997 -12.7440012
 143.7930012 104.7164997 -13.2700012 144.3569081 105.0834830 -12.7190386
 143.3640012 104.2464997  -9.1930012 143.3260012 103.6004997  -8.4880012
 143.0420012 103.7804997  -9.9640012 143.3152333 104.0949408  -9.2007022
 135.7330012 103.8614997  -7.6000012 135.7740012 103.2354997  -6.8770012
 136.4360012 104.4854997  -7.4180012 135.8336363 103.8601196  -7.4763956
 136.6560012 108.3114997  -9.0650012 136.2870012 107.5094997  -9.4350012
 137.5970012 108.1424997  -9.0190012 136.7327289 108.1790153  -9.1093684
 133.2660012 101.9714997 -13.6720012 132.8190012 102.8174997 -13.6910012
 132.7050012 101.3914997 -14.1880012 133.1289900 102.0089916 -13.7443199
 133.9770012 104.1334997 -11.5460012 134.1900012 103.3634997 -11.0190012
 134.7150012 104.2224997 -12.1500012 134.1058496 104.0401394 -11.5554700
 144.1820012 112.2904997 -10.6790012 144.8020012 111.6134997 -10.9530012
 143.9740012 112.0724997  -9.7710012 144.2386904 112.1683870 -10.5936635
 141.7540012 106.6794997  -8.7870012 142.0580012 105.9934997  -9.3820012
 142.4750012 106.7974997  -8.1690012 141.8930671 106.6016305  -8.7848184
 144.8950012 101.0734997  -8.4590012 145.0370012 100.1274997  -8.4390012
 144.7880012 101.2804997  -9.3880012 144.8999863 100.9719534  -8.5817661
 138.0490012  99.1744997 -11.1870012 138.0930012 100.0344997 -11.6050012
 137.5920012  98.6224997 -11.8210012 137.9932185  99.2175799 -11.3299701
 134.6700012 101.5714997 -10.4250012 135.3230012 101.0214997  -9.9930012
 134.6940012 101.2974997 -11.3420012 134.7626683 101.4591466 -10.4897877
 139.8260012 103.1214997 -11.2100012 140.4420012 102.5954997 -10.7000012
 139.2400012 102.4814997 -11.6130012 139.8310810 102.9629208 -11.1946827
 136.8600012  98.0924997  -7.1130012 136.6410012  98.6224997  -7.8790012
 136.1920012  98.3194997  -6.4660012 136.7397600  98.1956906  -7.1303621
 144.2290012 107.5924997 -13.5690012 143.9330012 107.2704997 -14.4200012
 143.9040012 108.4924997 -13.5280012 144.1446371 107.6700215 -13.6798199
 139.4290012 105.7684997  -6.8260012 138.6890012 106.3664997  -6.7220012
 140.1430012 106.3224997  -7.1410012 139.4242237 105.9252831  -6.8543535
 136.4530012  99.9844997  -9.1610012 137.0670012 100.6174997  -8.7870012
 136.9650012  99.5124997  -9.8170012 136.6062296 100.0072370  -9.1985748
 137.8360012 107.7324997  -6.0380012 137.8310012 108.6124997  -6.4160012
 136.9830012 107.6494997  -5.6130012 137.7199464 107.8416117  -6.0322093
 133.9570012 107.4034997 -15.2560012 133.6850012 107.6324997 -16.1450012
 134.0030012 108.2414997 -14.7960012 133.9260094 107.5481213 -15.3154303
 140.8860012  95.3984997  -9.6600012 140.7690012  94.4494997  -9.7150012
 140.0310012  95.7304997  -9.3870012 140.7543733  95.3135409  -9.6306103
 143.1530012 104.2354997 -15.1600012 142.4410012 104.7704997 -15.5120012
 143.8440012 104.2914997 -15.8200012 143.1490132 104.3162543 -15.2973711
 143.2060012 102.6934997 -18.1210012 143.9070012 102.7154997 -17.4700012
 143.5090012 102.0654997 -18.7770012 143.3427830 102.6116566 -18.1206289
 138.2040012 105.0754997 -12.3260012 137.8730012 104.7054997 -13.1440012
 138.7920012 104.4054997 -11.9790012 138.2381873 104.9341156 -12.3911898
 139.5700012 108.5034997  -9.6440012 139.4760012 107.9254997 -10.4010012
 140.3000012 108.1324997  -9.1480012 139.6557981 108.3742390  -9.6805835
 138.5700012 103.8444997  -8.6920012 139.1360012 103.9654997  -9.4550012
 138.8890012 104.4814997  -8.0530012 138.6905786 103.9471884  -8.7099960
 144.8790012 109.3474997  -7.9580012 144.6390012 110.0094997  -7.3100012
 144.6810012 108.5134997  -7.5330012 144.8193808 109.3253134  -7.8118476
 139.4500012 108.2434997  -3.9750012 139.1390012 109.0254997  -3.5200012
 138.8000012 108.0904997  -4.6610012 139.3195558 108.3299105  -4.0054129
 136.3700012 104.4414997  -4.7460012 136.4410012 105.0924997  -4.0480012
 135.4800012 104.5444997  -5.0810012 136.2593117 104.5445936  -4.6957300
 143.1560012 110.3444997 -13.0880012 143.6300012 110.6394997 -12.3100012
 142.5930012 111.0824997 -13.3210012 143.1447653 110.4846932 -13.0129864
 137.6900012 110.3154997  -3.2120012 137.6970012 110.1794997  -4.1590012
 136.7740012 110.1974997  -2.9600012 137.5671714 110.2809430  -3.3075334
 137.1940012 104.1454997 -14.7360012 136.9020012 104.9134997 -15.2270012
 136.5200012 103.4854997 -14.8990012 137.0629081 104.1614406 -14.8252660
 133.2870012 106.5084997  -5.9210012 132.7860012 106.4804997  -6.7360012
 133.2920012 105.6024997  -5.6120012 133.2191526 106.3822278  -5.9907128
 133.0370012 109.2884997  -9.0370012 133.9830012 109.1444997  -9.0560012
 132.9250012 110.0724997  -8.5000012 133.1512727 109.3748046  -8.9669928
 142.2140012 109.5284997  -4.4790012 142.3010012 110.3544997  -4.0040012
 141.3500012 109.1984997  -4.2300012 142.1091964 109.5969878  -4.3803451
 142.6280012 113.3004997 -14.6730012 142.5530012 113.1794997 -15.6190012
 142.6610012 114.2504997 -14.5540012 142.6221848 113.4122500 -14.7865166
 136.2810012 112.0894997 -12.8920012 136.4340012 111.7414997 -12.0130012
 135.4310012 111.7334997 -13.1470012 136.1868962 111.9936650 -12.8061660
 135.5360012 107.8314997  -4.8780012 135.7520012 107.4704997  -4.0190012
 134.6810012 107.4574997  -5.0880012 135.4499292 107.7314111  -4.7886614
 138.1550012  96.3014997  -8.8830012 137.2930012  96.2144997  -9.2900012
 138.1320012  97.1574997  -8.4550012 138.0340330  96.4052765  -8.8808137
 142.8180012  96.0234997  -5.5080012 143.2380012  95.6084997  -4.7550012
 141.8850012  95.8454997  -5.3910012 142.7493644  95.9425900  -5.3890461
 142.4790012  98.5164997 -18.2230012 142.2260012  98.5354997 -17.3000012
 142.2230012  97.6444997 -18.5240012 142.4097790  98.4012437 -18.1373737
 138.2460012 101.2674997  -7.7880012 137.6040012 101.2264997  -7.0790012
 138.2830012 102.1934997  -8.0250012 138.1631324 101.3871559  -7.7230176
 138.2430012 101.4884997 -12.8760012 137.3500012 101.1474997 -12.9340012
 138.6930012 101.1114997 -13.6310012 138.1817305 101.3908484 -12.9860823
 143.7780012 101.9044997 -14.0590012 143.3690012 102.7194997 -14.3500012
 144.4990012 101.7644997 -14.6730012 143.8194537 101.9972018 -14.1818658
 142.8800012 102.0794997  -2.5710012 142.3180012 101.3754997  -2.2500012
 143.7070012 101.9594997  -2.1030012 142.9147095 101.9667883  -2.4637670
 144.7830012 101.3504997 -11.2450012 144.5880012 101.9554997 -11.9600012
 144.9640012 100.5164997 -11.6790012 144.7807614 101.3206300 -11.4015595
 135.9960012 101.5874997  -5.9210012 135.9580012 101.9874997  -5.0520012
 135.5050012 100.7704997  -5.8300012 135.9244684 101.5318069  -5.7898941
 139.3620012  98.9614997 -19.1220012 138.9310012  98.5164997 -18.3920012
 138.6440012  99.3334997 -19.6340012 139.2059438  98.9508940 -19.0913201
 132.6040012  98.7034997 -12.0700012 133.2350012  98.6744997 -11.3510012
 133.0530012  98.2784997 -12.8000012 132.7510774  98.6420492 -12.0703447
 133.8780012  99.4494997 -16.6460012 134.3520012 100.0404997 -17.2310012
 133.1610012  99.9804997 -16.2990012 133.8459341  99.6020867 -16.6791164
 144.0470012 102.9884997  -6.5730012 144.3700012 102.3574997  -7.2160012
 143.6070012 102.4534997  -5.9130012 144.0316895 102.8298441  -6.5717150
 140.8240012  98.9154997 -11.7890012 139.9130012  98.9724997 -11.5010012
 141.3300012  98.8554997 -10.9790012 140.7675413  98.9151985 -11.6399378
 135.6530012 100.5444997 -12.9630012 134.7630012 100.6444997 -13.3030012
 135.9490012  99.7024997 -13.3090012 135.5712823 100.4443546 -13.0562787
 139.3060012 100.5444997 -15.3060012 140.2370012 100.6734997 -15.1280012
 139.0910012 101.2144997 -15.9560012 139.4044247 100.6526565 -15.3694253
 137.9800012 101.7394997 -17.7390012 137.4370012 101.3594997 -18.4310012
 138.8130012 101.9334997 -18.1680012 138.0184399 101.7138124 -17.8915474
 136.1150012 106.2964997  -2.6400012 136.8470012 106.5504997  -2.0790012
 135.3350012 106.5004997  -2.1250012 136.1098232 106.3589177  -2.4934240
 142.1440012 101.7034997  -9.9020012 142.7090012 101.1564997 -10.4490012
 141.9970012 101.1814997  -9.1140012 142.2012918 101.5582024  -9.8701546
 137.1460012  97.8394997 -13.4840012 136.8290012  96.9374997 -13.5190012
 137.9280012  97.8414997 -14.0370012 137.2082284  97.7161628 -13.5635217
 140.7710012 100.0914997  -7.4880012 139.9350012 100.5454997  -7.3780012
 141.2950012 100.3674997  -6.7360012 140.7274414 100.1909376  -7.3712864
 141.3150012 106.3044997 -15.8040012 140.5700012 105.7974997 -16.1260012
 141.1810012 106.3534997 -14.8570012 141.1948776 106.2416940 -15.7201353
 142.8340012 106.4884997  -4.5670012 142.4890012 106.1074997  -3.7600012
 142.6340012 107.4224997  -4.4950012 142.7598061 106.5625228  -4.4469039
 136.4400012 105.5994997 -10.0340012 137.1850012 105.5974997 -10.6350012
 136.5180012 104.7764997  -9.5520012 136.5525518 105.4879315 -10.0511071
 143.4410012 107.7634997 -16.7780012 143.1450012 108.5894997 -16.3970012
 142.7380012 107.1434997 -16.5820012 143.3054914 107.7928199 -16.6993557
 133.4480012 104.0604997  -4.7190012 133.6710012 103.6424997  -3.8870012
 132.8460012 103.4474997  -5.1420012 133.3971759 103.9204668  -4.6622978
 140.4640012 103.5774997  -2.5060012 140.1680012 103.4114997  -3.4010012
 141.3960012 103.3574997  -2.5170012 140.5494166 103.5250640  -2.6299464
 138.8150012 109.1174997 -12.6300012 139.3420012 109.8904997 -12.8300012
 137.9350012 109.3424997 -12.9310012 138.7681773 109.2538005 -12.6980990
 134.5700012 103.9794997 -18.0430012 135.1860012 104.6064997 -17.6630012
 133.7080012 104.2954997 -17.7710012 134.5377698 104.1079430 -17.9542817
 140.2420012 106.7804997 -13.0530012 140.0010012 107.7054997 -13.0120012
 139.5010012 106.3214997 -12.6570012 140.1088409 106.8451421 -12.9938623
 140.7570012 110.9294997  -6.7380012 141.1190012 111.7844997  -6.9720012
 141.2880012 110.6374997  -5.9980012 140.8784473 111.0071060  -6.6699145
 138.9250012 111.8024997 -13.5080012 137.9750012 111.9074997 -13.4570012
 139.2770012 112.6224997 -13.1630012 138.8424203 111.9278314 -13.4543350
 144.3010012 107.0284997  -7.0380012 143.8750012 106.8014997  -6.2110012
 144.8810012 106.2904997  -7.2200012 144.3211868 106.8975299  -6.9494170
 135.0820012  98.8134997  -5.1610012 134.1890012  99.1524997  -5.2290012
 134.9830012  97.9584997  -4.7430012 134.9464164  98.7442588  -5.1137765
 134.7330012 110.6184997  -6.7260012 134.9500012 109.6864997  -6.7570012
 134.9790012 110.8924997  -5.8430012 134.7959549 110.5280636  -6.6108237
 140.5950012 109.0694997 -19.5170012 140.8340012 108.3214997 -20.0640012
 140.3260012 108.6814997 -18.6840012 140.5913675 108.9146638 -19.4793135
 139.5320012 108.6394997 -17.0600012 139.6780012 108.1194997 -16.2700012
 139.5290012 109.5464997 -16.7540012 139.5515989 108.6908853 -16.9103912
 135.9850012 105.8924997 -16.5500012 135.2990012 106.2444997 -15.9830012
 136.5070012 106.6554997 -16.7970012 135.9616852 106.0438578 -16.5057882
 143.8160012  98.5544997  -6.2710012 144.5150012  98.6284997  -5.6210012
 143.4350012  97.6904997  -6.1170012 143.8601767  98.4477624  -6.1611678
 144.6010012  98.2064997 -15.1740012 144.8210012  98.6784997 -15.9770012
 145.1590012  98.6014997 -14.5040012 144.7064968  98.3244285 -15.1932669
 142.2690012 110.3374997 -16.3110012 141.4530012 110.8344997 -16.2590012
 142.7990012 110.8124997 -16.9510012 142.2289161 110.4697722 -16.3904044
 141.8010012  99.9344997 -14.3390012 142.6130012 100.4394997 -14.2930012
 141.5560012  99.7894997 -13.4250012 141.8790520  99.9840375 -14.2091483
 142.3360012 100.9204997  -5.1540012 142.4550012 101.4944997  -4.3970012
 142.9920012 100.2324997  -5.0400012 142.4409757 100.9061079  -5.0349175
 142.6840012  97.0154997 -13.4010012 142.3380012  97.6334997 -12.7560012
 143.3430012  97.5164997 -13.8820012 142.7257826  97.1675802 -13.3779029
 139.6080012 111.3814997 -16.3290012 139.7680012 112.1804997 -16.8300012
 139.4100012 111.6874997 -15.4440012 139.6031649 111.5324469 -16.2780185
 138.3420012  98.0784997 -16.7140012 138.2590012  98.9674997 -16.3670012
 139.2320012  97.8134997 -16.4820012 138.4509469  98.1641430 -16.6352374
 136.6010012 108.5064997 -17.6530012 137.1930012 109.2054997 -17.3770012
 137.0600012 108.0734997 -18.3730012 136.7441142 108.5437049 -17.7125170
 134.9170012 101.1704997 -18.5370012 134.8720012 102.1094997 -18.3590012
 134.0290012 100.9344997 -18.8070012 134.7908574 101.2671892 -18.5491088
 135.7250012  95.9524997  -9.8640012 135.4960012  96.0114997 -10.7920012
 135.2820012  95.1604997  -9.5580012 135.6338530  95.8535753  -9.9495214
 134.6550012 109.8924997 -13.7040012 133.8230012 110.3654997 -13.6760012
 135.2010012 110.4024997 -14.3020012 134.6149739 110.0261871 -13.7810284
 133.9430012 112.5054997  -2.3740012 134.4840012 112.2884997  -1.6140012
 133.4620012 111.6994997  -2.5630012 133.9519345 112.3669514  -2.2956924
 138.5410012 111.4244997  -0.7530012 139.3080012 110.9654997  -0.4120012
 138.5190012 111.1984997  -1.6830012 138.6431434 111.3310409  -0.8319957
 142.6330012 110.9324997 -19.3780012 141.9890012 110.3014997 -19.0570012
 143.3950012 110.4014997 -19.6100012 142.6478077 110.7742920 -19.3653989
 133.8500012 106.3154997  -1.4190012 133.9940012 105.4134997  -1.7060012
 133.0780012 106.6014997  -1.9070012 133.7653322 106.2308261  -1.5242119
 138.1920012 106.6594997 -19.2870012 138.2560012 105.8654997 -18.7560012
 138.8450012 106.5404997 -19.9770012 138.2890241 106.5347148 -19.3075683
 140.5060012 106.2854997  -1.9870012 140.1770012 106.5564997  -2.8440012
 140.6580012 105.3444997  -2.0740012 140.4814809 106.1953862  -2.1161756
 134.6830012 103.5154997  -1.9990012 135.0910012 102.6584997  -2.1200012
 134.4230012 103.5304997  -1.0780012 134.7037568 103.4000807  -1.8910412
 139.3410012 104.6314997 -16.9810012 138.8810012 104.1474997 -16.2950012
 139.5960012 103.9634997 -17.6170012 139.3124902 104.4748731 -16.9730666
 138.6300012 102.5244997  -4.6250012 138.0120012 103.1994997  -4.3450012
 138.9740012 102.8454997  -5.4580012 138.5919615 102.6602721  -4.6993419
 140.4120012 102.8744997 -18.7190012 140.2320012 102.7204997 -19.6460012
 141.3620012 102.9824997 -18.6740012 140.5157776 102.8680175 -18.8398157
 143.6500012 104.9964997  -1.3480012 144.6030012 105.0794997  -1.3750012
 143.4890012 104.2844997  -0.7280012 143.7586426 104.9116746  -1.2679421
 138.9690012  99.8794997  -3.5430012 139.1190012  99.1504997  -4.1450012
 138.9720012 100.6564997  -4.1020012 138.9899302  99.8847851  -3.7009308
 139.3820012  98.2494997  -6.0500012 139.9180012  98.7004997  -6.7020012
 138.5300012  98.1414997  -6.4730012 139.3402178  98.2966390  -6.1964244
 140.9640012 103.6884997  -5.8110012 141.7140012 103.5324997  -6.3840012
 140.6250012 104.5404997  -6.0860012 141.0208921 103.7822968  -5.9266439
 137.4480012 101.0774997  -1.6310012 136.6810012 100.5454997  -1.8410012
 138.1270012 100.7674997  -2.2310012 137.4347022 100.9627506  -1.7408352
 140.1880012  95.7054997  -5.6190012 140.0890012  96.6524997  -5.7240012
 139.4450012  95.3334997  -6.0940012 140.0740564  95.7845902  -5.6975440
 141.4520012 100.0274997  -2.0550012 141.2160012  99.8074997  -1.1530012
 140.6680012  99.8204997  -2.5650012 141.3138628  99.9694760  -2.0006068
 144.1670012  99.1544997  -2.9790012 143.2200012  99.1864997  -2.8470012
 144.4800012  98.5294997  -2.3260012 144.0795475  99.0743207  -2.8725545
 135.6280012  98.9984997  -1.9270012 135.8400012  98.2914997  -2.5370012
 135.5170012  98.5604997  -1.0830012 135.6419721  98.8427084  -1.8963157
 140.4090012  94.9994997  -2.9470012 141.1210012  94.3594997  -2.9610012
 140.3080012  95.2664997  -3.8610012 140.4927939  94.9479938  -3.0724350
 140.7630012  96.6824997  -0.8940012 140.6310012  96.2064997  -1.7140012
 140.1640012  97.4264997  -0.9490012 140.6639071  96.7179618  -1.0137114
 140.3090012 113.5654997 -17.7170012 141.2420012 113.7234997 -17.5740012
 140.0450012 114.2404997 -18.3420012 140.4009510 113.6783611 -17.7819259
 133.8780012 108.2014997 -18.2350012 134.7920012 108.2804997 -17.9610012
 133.8850012 107.5144997 -18.9010012 134.0041131 108.1193961 -18.2875607
 132.5270012 113.5944997 -13.1570012 131.8800012 113.1324997 -13.6900012
 132.8810012 112.9224997 -12.5750012 132.4863849 113.4404723 -13.1512041
 133.3970012 111.6754997 -11.3530012 133.0620012 110.7954997 -11.1810012
 133.6190012 112.0204997 -10.4880012 133.3811783 111.6017500 -11.2125792
 133.4770012 104.7504997  -8.9010012 133.6610012 104.6684997  -9.8370012
 134.3260012 104.6264997  -8.4770012 133.6170139 104.7225003  -8.9718545
 133.0740012 100.0214997  -2.7600012 133.9940012  99.8994997  -2.5240012
 132.6250012  99.2714997  -2.3710012 133.1391580  99.9033727  -2.6750994
 134.2950012  98.3334997  -9.8690012 134.7410012  97.5414997  -9.5670012
 134.7620012  99.0494997  -9.4380012 134.4190172  98.3220624  -9.7695180
 132.5990012 101.3324997  -8.8000012 133.0910012 101.1114997  -9.5910012
 132.9620012 102.1734997  -8.5190012 132.7153126 101.4158357  -8.8702469
 132.9130012  97.5904997 -14.7460012 131.9880012  97.7994997 -14.8750012
 133.3670012  98.0744997 -15.4350012 132.8477368  97.6845993 -14.8568774
 132.8770012  96.3284997  -6.4010012 132.2120012  96.0824997  -5.7580012
 132.4340012  96.9504997  -6.9790012 132.7260956  96.3788632  -6.3910648
 135.0690012 109.5034997  -2.2570012 134.2480012 109.6784997  -2.7170012
 134.8160012 109.4304997  -1.3360012 134.9226164 109.5175622  -2.1955077
 138.0230012 110.4784997  -5.9980012 137.5980012 111.2874997  -6.2810012
 138.9270012 110.5634997  -6.3000012 138.0870271 110.6008469  -6.0776224
 142.3340012 111.8774997  -3.0390012 142.5190012 111.5434997  -2.1610012
 143.1800012 112.1864997  -3.3610012 142.4737539 111.8736047  -2.9624395
 144.6790012 113.1634997  -3.7950012 145.3560012 112.5304997  -4.0350012
 145.0010012 113.5644997  -2.9880012 144.8151637 113.1311154  -3.7187207
 135.4250012 113.7344997  -5.9510012 134.7040012 114.1744997  -6.4020012
 135.0590012 113.4834997  -5.1020012 135.2769804 113.7607698  -5.8980160
 137.8920012 113.3344997  -6.9210012 137.0270012 113.4064997  -6.5170012
 137.8370012 113.8814997  -7.7050012 137.7662085 113.4182685  -6.9716638
 142.6020012 113.2224997  -7.7460012 142.1460012 113.7514997  -8.4000012
 142.7650012 113.8254997  -7.0200012 142.5615585 113.3764468  -7.7374938
 134.8390012 112.3574997  -9.0410012 134.8210012 111.9324997  -8.1830012
 135.6440012 112.0394997  -9.4490012 134.9453875 112.2563812  -8.9788345
 136.9810012 111.0674997 -10.3860012 136.7620012 110.1514997 -10.2160012
 137.8050012 111.2074997  -9.9200012 137.0624420 110.9610520 -10.2997226
 139.5180012 111.5374997  -9.5370012 139.7310012 110.6494997  -9.8240012
 139.5820012 111.5034997  -8.5830012 139.5558232 111.4113102  -9.4472603
 143.0260012  97.2014997 -10.3930012 142.3520012  96.5724997 -10.1370012
 143.5900012  96.7174997 -10.9960012 143.0099230  97.0498744 -10.4394660
 135.3530012  95.8354997 -12.5710012 134.5760012  95.6014997 -13.0780012
 135.8830012  95.0384997 -12.5620012 135.3182330  95.6956988 -12.6392258
 134.1890012  95.6334997 -16.7670012 134.6280012  96.2444997 -17.3590012
 133.5560012  96.1714997 -16.2930012 134.1634514  95.7899257 -16.7839070
 139.9320012  95.7624997 -12.7570012 140.8070012  96.1504997 -12.7870012
 139.7960012  95.5474997 -11.8350012 140.0333695  95.7865184 -12.6363560
 134.0900012 111.5814997 -15.8690012 133.4050012 111.5434997 -16.5370012
 134.0940012 112.4944997 -15.5810012 133.9968193 111.6997016 -15.9214716
 136.0500012  97.5494997 -18.3250012 136.5420012  96.9194997 -18.8520012
 136.6740012  97.8454997 -17.6610012 136.2015446  97.5033199 -18.3074020
 141.0760012  97.8424997 -15.8680012 141.2540012  97.1964997 -15.1850012
 141.0230012  98.6764997 -15.4000012 141.0931829  97.8667985 -15.7114060
 142.9550012 112.7914997 -17.4720012 143.8210012 113.1574997 -17.6500012
 142.7080012 112.3514997 -18.2860012 143.0402392 112.7821756 -17.6063711
 135.3110012  96.3494997  -3.0530012 134.9450012  95.5844997  -2.6100012
 136.2240012  96.3784997  -2.7660012 135.3842790  96.2487224  -2.9535930
 137.2840012  95.7004997  -1.5170012 138.1820012  95.4264997  -1.7020012
 136.8970012  94.9574997  -1.0530012 137.3546612  95.5625914  -1.4796357
 135.9080012 112.5014997 -18.8440012 135.6410012 112.7884997 -17.9710012
 136.6800012 111.9554997 -18.6920012 135.9757488 112.4670294 -18.7038950
  12.4390012 123.8474997 -12.6120012  12.5280012 124.7914997 -12.7440012
  11.8010012 123.5724997 -13.2700012  12.3649081 123.9394830 -12.7190386
  11.3720012 123.1024997  -9.1930012  11.3340012 122.4564997  -8.4880012
  11.0500012 122.6364997  -9.9640012  11.3232333 122.9509408  -9.2007022
   3.7410012 122.7174997  -7.6000012   3.7820012 122.0914997  -6.8770012
   4.4440012 123.3414997  -7.4180012   3.8416363 122.7161196  -7.4763956
  15.0780012 126.0414997 -10.8920012  14.6380012 125.3214997 -10.4410012
  15.0650012 126.7624997 -10.2620012  15.0160226 126.0403731 -10.7451506
   4.6640012 127.1674997  -9.0650012   4.2950012 126.3654997  -9.4350012
   5.6050012 126.9984997  -9.0190012   4.7407289 127.0350153  -9.1093684
   1.2740012 120.8274997 -13.6720012   0.8270012 121.6734997 -13.6910012
   0.7130012 120.2474997 -14.1880012   1.1369900 120.8649916 -13.7443199
   1.9850012 122.9894997 -11.5460012   2.1980012 122.2194997 -11.0190012
   2.7230012 123.0784997 -12.1500012   2.1138496 122.8961394 -11.5554700
  12.1900012 131.1464997 -10.6790012  12.8100012 130.4694997 -10.9530012
  11.9820012 130.9284997  -9.7710012  12.2466904 131.0243870 -10.5936635
   9.7620012 125.5354997  -8.7870012  10.0660012 124.8494997  -9.3820012
  10.4830012 125.6534997  -8.1690012   9.9010671 125.4576305  -8.7848184
  18.4250012 117.1364997  -7.9260012  18.4740012 117.7464997  -7.1900012
  18.8500012 117.5974997  -8.6490012  18.4891824 117.2823741  -7.9229795
  12.9030012 119.9294997  -8.4590012  13.0450012 118.9834997  -8.4390012
  12.7960012 120.1364997  -9.3880012  12.9079864 119.8279534  -8.5817661
   6.0570012 118.0304997 -11.1870012   6.1010012 118.8904997 -11.6050012
   5.6000012 117.4784997 -11.8210012   6.0012185 118.0735799 -11.3299701
  13.7800012 118.1614997 -12.7860012  14.4260012 117.8324997 -12.1610012
  14.2900012 118.6794997 -13.4090012  13.9374264 118.1864611 -12.7846138
   2.6780012 120.4274997 -10.4250012   3.3310012 119.8774997  -9.9930012
   2.7020012 120.1534997 -11.3420012   2.7706683 120.3151466 -10.4897877
   7.8340012 121.9774997 -11.2100012   8.4500012 121.4514997 -10.7000012
   7.2480012 121.3374997 -11.6130012   7.8390810 121.8189208 -11.1946827
  18.8160012 118.6144997  -5.6900012  18.1280012 119.2724997  -5.7860012
  18.8320012 118.4174997  -4.7540012  18.7238525 118.6780462  -5.5765192
   4.8680012 116.9484997  -7.1130012   4.6490012 117.4784997  -7.8790012
   4.2000012 117.1754997  -6.4660012   4.7477600 117.0516906  -7.1303621
  12.2370012 126.4484997 -13.5690012  11.9410012 126.1264997 -14.4200012
  11.9120012 127.3484997 -13.5280012  12.1526371 126.5260215 -13.6798199
   7.4370012 124.6244997  -6.8260012   6.6970012 125.2224997  -6.7220012
   8.1510012 125.1784997  -7.1410012   7.4322237 124.7812831  -6.8543535
  15.5440012 117.4524997 -10.8060012  15.3280012 116.6864997 -10.2730012
  16.1990012 117.9244997 -10.2930012  15.6030632 117.4115889 -10.6637139
   4.4610012 118.8404997  -9.1610012   5.0750012 119.4734997  -8.7870012
   4.9730012 118.3684997  -9.8170012   4.6142296 118.8632370  -9.1985748
   5.8440012 126.5884997  -6.0380012   5.8390012 127.4684997  -6.4160012
   4.9910012 126.5054997  -5.6130012   5.7279464 126.6976117  -6.0322093
   1.9650012 126.2594997 -15.2560012   1.6930012 126.4884997 -16.1450012
   2.0110012 127.0974997 -14.7960012   1.9340094 126.4041213 -15.3154303
  15.5900012 127.8814997  -8.5440012  14.6490012 127.9394997  -8.3820012
  15.8670012 128.7874997  -8.6810012  15.4984679 128.0119443  -8.5403185
  15.8910012 116.1674997  -7.1260012  15.1550012 116.7784997  -7.1640012
  16.5740012 116.5824997  -7.6530012  15.8826541 116.3071374  -7.2024168
   8.8940012 114.2544997  -9.6600012   8.7770012 113.3054997  -9.7150012
   8.0390012 114.5864997  -9.3870012   8.7623733 114.1695409  -9.6306103
  13.8420012 129.6624997 -11.9180012  14.2680012 128.9554997 -12.4030012
  14.1590012 130.4634997 -12.3350012  13.9431019 129.6740994 -12.0406870
  15.0020012 127.5634997 -13.4100012  14.7440012 126.8734997 -14.0210012
  15.0730012 127.1204997 -12.5640012  14.9762856 127.4092124 -13.3793115
  16.6880012 126.1294997  -4.9320012  16.8280012 125.5384997  -5.6720012
  16.8550012 127.0024997  -5.2890012  16.7296778 126.1666426  -5.0813035
  11.1610012 123.0914997 -15.1600012  10.4490012 123.6264997 -15.5120012
  11.8520012 123.1474997 -15.8200012  11.1570132 123.1722543 -15.2973711
  11.2140012 121.5494997 -18.1210012  11.9150012 121.5714997 -17.4700012
  11.5170012 120.9214997 -18.7770012  11.3507830 121.4676566 -18.1206289
  18.5300012 122.4694997  -6.8660012  17.8770012 123.1644997  -6.7770012
  18.9950012 122.6794997  -7.6760012  18.5035390 122.5929425  -6.9633117
  14.5660012 123.3014997 -14.2080012  13.8340012 123.5294997 -13.6350012
  15.0140012 122.5874997 -13.7530012  14.5263095 123.2362571 -14.0680881
  14.4640012 121.4754997  -5.1410012  14.5440012 122.2384997  -4.5690012
  13.8620012 121.7544997  -5.8310012  14.3935756 121.6177134  -5.1559411
   6.2120012 123.9314997 -12.3260012   5.8810012 123.5614997 -13.1440012
   6.8000012 123.2614997 -11.9790012   6.2461873 123.7901156 -12.3911898
   7.5780012 127.3594997  -9.6440012   7.4840012 126.7814997 -10.4010012
   8.3080012 126.9884997  -9.1480012   7.6637981 127.2302390  -9.6805835
   6.5780012 122.7004997  -8.6920012   7.1440012 122.8214997  -9.4550012
   6.8970012 123.3374997  -8.0530012   6.6985786 122.8031884  -8.7099960
  12.8870012 128.2034997  -7.9580012  12.6470012 128.8654997  -7.3100012
  12.6890012 127.3694997  -7.5330012  12.8273808 128.1813134  -7.8118476
   7.4580012 127.0994997  -3.9750012   7.1470012 127.8814997  -3.5200012
   6.8080012 126.9464997  -4.6610012   7.3275558 127.1859105  -4.0054129
  13.4370012 122.4634997 -16.5230012  14.0170012 122.6134997 -15.7760012
  13.8510012 122.9344997 -17.2460012  13.5722831 122.5476841 -16.5185866
   4.3780012 123.2974997  -4.7460012   4.4490012 123.9484997  -4.0480012
   3.4880012 123.4004997  -5.0810012   4.2673117 123.4005936  -4.6957300
  11.1640012 129.2004997 -13.0880012  11.6380012 129.4954997 -12.3100012
  10.6010012 129.9384997 -13.3210012  11.1527653 129.3406932 -13.0129864
   5.6980012 129.1714997  -3.2120012   5.7050012 129.0354997  -4.1590012
   4.7820012 129.0534997  -2.9600012   5.5751714 129.1369430  -3.3075334
  17.1360012 114.2134997 -16.7100012  16.2360012 114.3524997 -16.4150012
  17.3880012 115.0444997 -17.1120012  17.0468702 114.3449074 -16.7239795
   5.2020012 123.0014997 -14.7360012   4.9100012 123.7694997 -15.2270012
   4.5280012 122.3414997 -14.8990012   5.0709081 123.0174406 -14.8252660
  18.3250012 128.5794997 -18.3340012  18.3990012 129.5184997 -18.1630012
  19.2310012 128.2744997 -18.3900012  18.4575100 128.6666722 -18.3181881
   1.2950012 125.3644997  -5.9210012   0.7940012 125.3364997  -6.7360012
   1.3000012 124.4584997  -5.6120012   1.2271526 125.2382278  -5.9907128
   1.0450012 128.1444997  -9.0370012   1.9910012 128.0004997  -9.0560012
   0.9330012 128.9284997  -8.5000012   1.1592727 128.2308046  -8.9669928
  19.2430012 128.8104997  -3.3550012  19.1940012 127.8554997  -3.3920012
  18.4160012 129.0784997  -2.9540012  19.1244940 128.7158998  -3.3058625
  10.2220012 128.3844997  -4.4790012  10.3090012 129.2104997  -4.0040012
   9.3580012 128.0544997  -4.2300012  10.1171964 128.4529878  -4.3803451
  10.6360012 132.1564997 -14.6730012  10.5610012 132.0354997 -15.6190012
  10.6690012 133.1064997 -14.5540012  10.6301848 132.2682500 -14.7865166
   4.2890012 130.9454997 -12.8920012   4.4420012 130.5974997 -12.0130012
   3.4390012 130.5894997 -13.1470012   4.1948962 130.8496650 -12.8061660
  13.7380012 131.3104997 -17.6710012  14.1130012 130.5664997 -18.1410012
  13.7420012 131.0404997 -16.7520012  13.7898915 131.1721486 -17.6112176
  13.4070012 131.2364997 -14.9210012  12.4710012 131.3364997 -14.7430012
  13.6870012 130.5274997 -14.3430012  13.3168255 131.1542711 -14.8184609
  16.3950012 120.3034997  -2.8750012  15.9880012 120.7844997  -3.5960012
  16.4360012 119.3984997  -3.1830012  16.3448437 120.2469374  -3.0153317
   3.5440012 126.6874997  -4.8780012   3.7600012 126.3264997  -4.0190012
   2.6890012 126.3134997  -5.0880012   3.4579292 126.5874111  -4.7886614
   6.1630012 115.1574997  -8.8830012   5.3010012 115.0704997  -9.2900012
   6.1400012 116.0134997  -8.4550012   6.0420330 115.2612765  -8.8808137
  10.8260012 114.8794997  -5.5080012  11.2460012 114.4644997  -4.7550012
   9.8930012 114.7014997  -5.3910012  10.7573644 114.7985900  -5.3890461
  14.1520012 118.6354997  -4.6550012  13.6380012 118.5094997  -3.8570012
  13.9970012 119.5474997  -4.8990012  14.0606852 118.7416132  -4.5787842
  14.9150012 123.4964997 -18.8930012  14.9570012 123.2734997 -19.8230012
  15.7640012 123.8954997 -18.7030012  15.0355396 123.5199155 -18.9946373
  10.4870012 117.3724997 -18.2230012  10.2340012 117.3914997 -17.3000012
  10.2310012 116.5004997 -18.5240012  10.4177790 117.2572437 -18.1373737
   6.2540012 120.1234997  -7.7880012   5.6120012 120.0824997  -7.0790012
   6.2910012 121.0494997  -8.0250012   6.1711324 120.2431559  -7.7230176
   6.2510012 120.3444997 -12.8760012   5.3580012 120.0034997 -12.9340012
   6.7010012 119.9674997 -13.6310012   6.1897305 120.2468484 -12.9860823
  11.7860012 120.7604997 -14.0590012  11.3770012 121.5754997 -14.3500012
  12.5070012 120.6204997 -14.6730012  11.8274537 120.8532018 -14.1818658
  10.8880012 120.9354997  -2.5710012  10.3260012 120.2314997  -2.2500012
  11.7150012 120.8154997  -2.1030012  10.9227095 120.8227883  -2.4637670
  12.7910012 120.2064997 -11.2450012  12.5960012 120.8114997 -11.9600012
  12.9720012 119.3724997 -11.6790012  12.7887614 120.1766300 -11.4015595
   4.0040012 120.4434997  -5.9210012   3.9660012 120.8434997  -5.0520012
   3.5130012 119.6264997  -5.8300012   3.9324684 120.3878069  -5.7898941
   7.3700012 117.8174997 -19.1220012   6.9390012 117.3724997 -18.3920012
   6.6520012 118.1894997 -19.6340012   7.2139438 117.8068940 -19.0913201
   0.6120012 117.5594997 -12.0700012   1.2430012 117.5304997 -11.3510012
   1.0610012 117.1344997 -12.8000012   0.7590774 117.4980492 -12.0703447
   1.8860012 118.3054997 -16.6460012   2.3600012 118.8964997 -17.2310012
   1.1690012 118.8364997 -16.2990012   1.8539341 118.4580867 -16.6791164
  12.0550012 121.8444997  -6.5730012  12.3780012 121.2134997  -7.2160012
  11.6150012 121.3094997  -5.9130012  12.0396895 121.6858441  -6.5717150
   8.8320012 117.7714997 -11.7890012   7.9210012 117.8284997 -11.5010012
   9.3380012 117.7114997 -10.9790012   8.7755413 117.7711985 -11.6399378
   3.6610012 119.4004997 -12.9630012   2.7710012 119.5004997 -13.3030012
   3.9570012 118.5584997 -13.3090012   3.5792823 119.3003545 -13.0562787
   7.3140012 119.4004997 -15.3060012   8.2450012 119.5294997 -15.1280012
   7.0990012 120.0704997 -15.9560012   7.4124247 119.5086565 -15.3694253
  13.2370012 117.0064997  -8.5250012  12.5610012 117.1374997  -7.8610012
  12.7520012 116.8514997  -9.3350012  13.0787145 117.0034905  -8.5435483
   5.9880012 120.5954997 -17.7390012   5.4450012 120.2154997 -18.4310012
   6.8210012 120.7894997 -18.1680012   6.0264399 120.5698124 -17.8915474
  16.5250012 132.6784997  -2.2480012  16.7250012 133.1024997  -3.0830012
  17.1800012 133.0214997  -1.6410012  16.6410051 132.7829648  -2.2802164
   4.1230012 125.1524997  -2.6400012   4.8550012 125.4064997  -2.0790012
   3.3430012 125.3564997  -2.1250012   4.1178232 125.2149177  -2.4934240
  10.1520012 120.5594997  -9.9020012  10.7170012 120.0124997 -10.4490012
  10.0050012 120.0374997  -9.1140012  10.2092918 120.4142024  -9.8701546
   5.1540012 116.6954997 -13.4840012   4.8370012 115.7934997 -13.5190012
   5.9360012 116.6974997 -14.0370012   5.2162284 116.5721628 -13.5635217
   8.7790012 118.9474997  -7.4880012   7.9430012 119.4014997  -7.3780012
   9.3030012 119.2234997  -6.7360012   8.7354414 119.0469376  -7.3712864
   9.3230012 125.1604997 -15.8040012   8.5780012 124.6534997 -16.1260012
   9.1890012 125.2094997 -14.8570012   9.2028776 125.0976940 -15.7201353
  16.4730012 124.2934997  -7.0170012  17.1150012 124.7504997  -7.5610012
  15.6430012 124.4064997  -7.4800012  16.4485963 124.3712704  -7.1539823
  13.2210012 117.9744997 -17.6040012  12.2820012 118.0864997 -17.7560012
  13.5180012 118.8314997 -17.2980012  13.1327666 118.1056443 -17.5834232
  10.8420012 125.3444997  -4.5670012  10.4970012 124.9634997  -3.7600012
  10.6420012 126.2784997  -4.4950012  10.7678061 125.4185228  -4.4469039
  13.9390012 119.8414997 -15.9440012  14.8310012 119.7044997 -15.6250012
  13.9960012 120.6324997 -16.4800012  14.0686285 119.9296660 -15.9728310
   4.4480012 124.4554997 -10.0340012   5.1930012 124.4534997 -10.6350012
   4.5260012 123.6324997  -9.5520012   4.5605518 124.3439315 -10.0511071
  11.4490012 126.6194997 -16.7780012  11.1530012 127.4454997 -16.3970012
  10.7460012 125.9994997 -16.5820012  11.3134914 126.6488199 -16.6993557
   1.4560012 122.9164997  -4.7190012   1.6790012 122.4984997  -3.8870012
   0.8540012 122.3034997  -5.1420012   1.4051759 122.7764668  -4.6622978
   8.4720012 122.4334997  -2.5060012   8.1760012 122.2674997  -3.4010012
   9.4040012 122.2134997  -2.5170012   8.5574166 122.3810640  -2.6299464
  13.0930012 127.8064997  -4.6160012  12.1920012 127.9894997  -4.8840012
  13.1270012 128.0654997  -3.6950012  12.9743041 127.8665512  -4.5281803
  18.8240012 120.0514997 -16.2490012  18.2700012 119.6554997 -16.9210012
  18.9240012 120.9614997 -16.5270012  18.7617059 120.1203586 -16.3785599
  18.7870012 125.8514997  -3.4120012  17.9360012 126.0894997  -3.7790012
  19.3780012 125.8344997  -4.1650012  18.7502487 125.8818258  -3.5641107
  17.1190012 128.8374997 -15.7840012  16.7460012 128.0114997 -15.4750012
  17.3970012 128.6544997 -16.6810012  17.1055630 128.6997303 -15.8630374
  14.2800012 123.6454997  -8.7630012  13.3510012 123.4134997  -8.7900012
  14.7310012 122.8684997  -9.0930012  14.2139216 123.5087238  -8.8113083
   6.8230012 127.9734997 -12.6300012   7.3500012 128.7464997 -12.8300012
   5.9430012 128.1984997 -12.9310012   6.7761773 128.1098005 -12.6980990
   2.5780012 122.8354997 -18.0430012   3.1940012 123.4624997 -17.6630012
   1.7160012 123.1514997 -17.7710012   2.5457698 122.9639430 -17.9542817
   8.2500012 125.6364997 -13.0530012   8.0090012 126.5614997 -13.0120012
   7.5090012 125.1774997 -12.6570012   8.1168409 125.7011421 -12.9938623
   8.7650012 129.7854997  -6.7380012   9.1270012 130.6404997  -6.9720012
   9.2960012 129.4934997  -5.9980012   8.8864473 129.8631060  -6.6699145
   6.9330012 130.6584997 -13.5080012   5.9830012 130.7634997 -13.4570012
   7.2850012 131.4784997 -13.1630012   6.8504203 130.7838314 -13.4543350
  12.3090012 125.8844997  -7.0380012  11.8830012 125.6574997  -6.2110012
  12.8890012 125.1464997  -7.2200012  12.3291868 125.7535299  -6.9494170
  14.5120012 126.8134997 -17.9640012  14.8650012 126.4334997 -17.1590012
  13.5630012 126.7204997 -17.8770012  14.4320441 126.7489596 -17.8421441
  14.9670012 130.4364997  -4.5680012  14.3660012 129.8814997  -5.0640012
  15.2490012 131.1034997  -5.1940012  14.9228519 130.4506841  -4.7205048
  19.0150012 131.2934997 -17.7630012  19.7590012 131.8794997 -17.9030012
  18.3210012 131.8614997 -17.4290012  19.0230292 131.4505582 -17.7370039
   3.0900012 117.6694997  -5.1610012   2.1970012 118.0084997  -5.2290012
   2.9910012 116.8144997  -4.7430012   2.9544164 117.6002588  -5.1137765
  15.3780012 125.4864997 -15.7370012  15.1000012 124.7584997 -15.1810012
  16.3050012 125.6054997 -15.5320012  15.4653124 125.4028802 -15.6331155
   2.7410012 129.4744997  -6.7260012   2.9580012 128.5424997  -6.7570012
   2.9870012 129.7484997  -5.8430012   2.8039549 129.3840636  -6.6108237
   8.6030012 127.9254997 -19.5170012   8.8420012 127.1774997 -20.0640012
   8.3340012 127.5374997 -18.6840012   8.5993675 127.7706638 -19.4793135
   7.5400012 127.4954997 -17.0600012   7.6860012 126.9754997 -16.2700012
   7.5370012 128.4024997 -16.7540012   7.5595989 127.5468853 -16.9103912
   3.9930012 124.7484997 -16.5500012   3.3070012 125.1004997 -15.9830012
   4.5150012 125.5114997 -16.7970012   3.9696852 124.8998578 -16.5057882
  11.8240012 117.4104997  -6.2710012  12.5230012 117.4844997  -5.6210012
  11.4430012 116.5464997  -6.1170012  11.8681767 117.3037624  -6.1611678
  12.6090012 117.0624997 -15.1740012  12.8290012 117.5344997 -15.9770012
  13.1670012 117.4574997 -14.5040012  12.7144968 117.1804285 -15.1932669
  10.2770012 129.1934997 -16.3110012   9.4610012 129.6904997 -16.2590012
  10.8070012 129.6684997 -16.9510012  10.2369161 129.3257722 -16.3904044
   9.8090012 118.7904997 -14.3390012  10.6210012 119.2954997 -14.2930012
   9.5640012 118.6454997 -13.4250012   9.8870520 118.8400375 -14.2091483
  10.3440012 119.7764997  -5.1540012  10.4630012 120.3504997  -4.3970012
  11.0000012 119.0884997  -5.0400012  10.4489757 119.7621079  -5.0349175
  10.6920012 115.8714997 -13.4010012  10.3460012 116.4894997 -12.7560012
  11.3510012 116.3724997 -13.8820012  10.7337826 116.0235802 -13.3779029
   7.6160012 130.2374997 -16.3290012   7.7760012 131.0364997 -16.8300012
   7.4180012 130.5434997 -15.4440012   7.6111649 130.3884469 -16.2780185
   6.3500012 116.9344997 -16.7140012   6.2670012 117.8234997 -16.3670012
   7.2400012 116.6694997 -16.4820012   6.4589469 117.0201430 -16.6352374
  16.5490012 117.6834997  -4.3190012  15.6320012 117.9464997  -4.4070012
  16.8840012 117.6804997  -5.2160012  16.4689900 117.7190224  -4.4522081
  15.1510012 121.4344997 -10.2240012  14.3530012 121.0194997 -10.5520012
  15.5960012 120.7434997  -9.7330012  15.1019885 121.2843543 -10.2025111
   4.6090012 127.3624997 -17.6530012   5.2010012 128.0614997 -17.3770012
   5.0680012 126.9294997 -18.3730012   4.7521142 127.3997049 -17.7125170
   2.9250012 120.0264997 -18.5370012   2.8800012 120.9654997 -18.3590012
   2.0370012 119.7904997 -18.8070012   2.7988574 120.1231892 -18.5491088
  16.2370012 130.6904997  -8.6010012  16.0820012 131.3684997  -9.2580012
  17.1700012 130.7624997  -8.3980012  16.3418500 130.7930170  -8.6634881
   3.7330012 114.8084997  -9.8640012   3.5040012 114.8674997 -10.7920012
   3.2900012 114.0164997  -9.5580012   3.6418530 114.7095753  -9.9495214
   2.6630012 128.7484997 -13.7040012   1.8310012 129.2214997 -13.6760012
   3.2090012 129.2584997 -14.3020012   2.6229739 128.8821871 -13.7810284
   1.9510012 131.3614997  -2.3740012   2.4920012 131.1444997  -1.6140012
   1.4700012 130.5554997  -2.5630012   1.9599345 131.2229514  -2.2956924
   6.5490012 130.2804997  -0.7530012   7.3160012 129.8214997  -0.4120012
   6.5270012 130.0544997  -1.6830012   6.6511434 130.1870409  -0.8319957
  10.6410012 129.7884997 -19.3780012   9.9970012 129.1574997 -19.0570012
  11.4030012 129.2574997 -19.6100012  10.6558077 129.6302920 -19.3653989
  13.1260012 128.6604997  -2.0240012  12.7750012 127.8044997  -1.7810012
  13.8520012 128.8034997  -1.4170012  13.1760769 128.5625636  -1.9086381
  15.2450012 129.6054997 -19.1440012  15.5280012 128.8114997 -18.6920012
  15.9850012 129.8384997 -19.7050012  15.3837486 129.5282803 -19.1579302
   1.8580012 125.1714997  -1.4190012   2.0020012 124.2694997  -1.7060012
   1.0860012 125.4574997  -1.9070012   1.7733322 125.0868261  -1.5242119
   6.2000012 125.5154997 -19.2870012   6.2640012 124.7214997 -18.7560012
   6.8530012 125.3964997 -19.9770012   6.2970241 125.3907148 -19.3075683
   8.5140012 125.1414997  -1.9870012   8.1850012 125.4124997  -2.8440012
   8.6660012 124.2004997  -2.0740012   8.4894809 125.0513862  -2.1161756
  14.2480012 125.0574997  -4.6030012  14.9940012 125.6454997  -4.7230012
  13.4910012 125.6394997  -4.5400012  14.2477554 125.2167011  -4.6109093
   2.6910012 122.3714997  -1.9990012   3.0990012 121.5144997  -2.1200012
   2.4310012 122.3864997  -1.0780012   2.7117568 122.2560807  -1.8910412
   7.3490012 123.4874997 -16.9810012   6.8890012 123.0034997 -16.2950012
   7.6040012 122.8194997 -17.6170012   7.3204902 123.3308731 -16.9730666
   6.6380012 121.3804997  -4.6250012   6.0200012 122.0554997  -4.3450012
   6.9820012 121.7014997  -5.4580012   6.5999615 121.5162721  -4.6993419
   8.4200012 121.7304997 -18.7190012   8.2400012 121.5764997 -19.6460012
   9.3700012 121.8384997 -18.6740012   8.5237776 121.7240175 -18.8398157
  11.6580012 123.8524997  -1.3480012  12.6110012 123.9354997  -1.3750012
  11.4970012 123.1404997  -0.7280012  11.7666426 123.7676746  -1.2679421
  17.8100012 124.0854997 -19.2730012  17.5360012 123.6604997 -20.0860012
  17.8490012 125.0164997 -19.4900012  17.7777699 124.1532484 -19.4136390
   6.9770012 118.7354997  -3.5430012   7.1270012 118.0064997  -4.1450012
   6.9800012 119.5124997  -4.1020012   6.9979302 118.7407851  -3.7009308
   7.3900012 117.1054997  -6.0500012   7.9260012 117.5564997  -6.7020012
   6.5380012 116.9974997  -6.4730012   7.3482178 117.1526390  -6.1964244
   8.9720012 122.5444997  -5.8110012   9.7220012 122.3884997  -6.3840012
   8.6330012 123.3964997  -6.0860012   9.0288921 122.6382968  -5.9266439
  13.3870012 120.3594997  -0.7820012  13.5800012 119.4284997  -0.8940012
  14.2450012 120.7844997  -0.7920012  13.5293020 120.2896389  -0.7986639
  14.7040012 123.1484997  -2.7050012  14.4230012 123.8574997  -3.2820012
  15.6470012 123.0754997  -2.8560012  14.7929027 123.2357646  -2.8044449
   5.4560012 119.9334997  -1.6310012   4.6890012 119.4014997  -1.8410012
   6.1350012 119.6234997  -2.2310012   5.4427022 119.8187506  -1.7408352
   8.1960012 114.5614997  -5.6190012   8.0970012 115.5084997  -5.7240012
   7.4530012 114.1894997  -6.0940012   8.0820564 114.6405902  -5.6975440
   9.4600012 118.8834997  -2.0550012   9.2240012 118.6634997  -1.1530012
   8.6760012 118.6764997  -2.5650012   9.3218628 118.8254760  -2.0006068
  12.1750012 118.0104997  -2.9790012  11.2280012 118.0424997  -2.8470012
  12.4880012 117.3854997  -2.3260012  12.0875475 117.9303207  -2.8725545
  13.8090012 116.6444997  -0.9740012  13.7130012 115.6924997  -0.9800012
  13.4880012 116.9134997  -0.1140012  13.7524070 116.5504035  -0.8584559
   3.6360012 117.8544997  -1.9270012   3.8480012 117.1474997  -2.5370012
   3.5250012 117.4164997  -1.0830012   3.6499721 117.6987084  -1.8963157
   8.4170012 113.8554997  -2.9470012   9.1290012 113.2154997  -2.9610012
   8.3160012 114.1224997  -3.8610012   8.5007939 113.8039938  -3.0724350
   8.7710012 115.5384997  -0.8940012   8.6390012 115.0624997  -1.7140012
   8.1720012 116.2824997  -0.9490012   8.6719071 115.5739618  -1.0137114
   8.3170012 132.4214997 -17.7170012   9.2500012 132.5794997 -17.5740012
   8.0530012 133.0964997 -18.3420012   8.4089510 132.5343611 -17.7819259
   1.8860012 127.0574997 -18.2350012   2.8000012 127.1364997 -17.9610012
   1.8930012 126.3704997 -18.9010012   2.0121131 126.9753961 -18.2875607
   0.5350012 132.4504997 -13.1570012  -0.1119988 131.9884997 -13.6900012
   0.8890012 131.7784997 -12.5750012   0.4943849 132.2964723 -13.1512041
   1.4050012 130.5314997 -11.3530012   1.0700012 129.6514997 -11.1810012
   1.6270012 130.8764997 -10.4880012   1.3891783 130.4577500 -11.2125792
  18.9530012 131.3404997  -8.3720012  18.9320012 131.5254997  -7.4330012
  19.6440012 131.9094997  -8.7130012  19.0434618 131.4426606  -8.2896136
  18.5170012 130.9084997  -5.4500012  18.0290012 130.1724997  -5.8210012
  19.0660012 130.5144997  -4.7720012  18.5244872 130.7546249  -5.4090840
  16.9670012 126.6974997  -0.8120012  16.1010012 126.5924997  -0.4180012
  17.3440012 127.4564997  -0.3660012  16.8993308 126.7856900  -0.6977607
  18.2680012 124.9544997 -15.2980012  19.1180012 125.3754997 -15.1710012
  18.2740012 124.2144997 -14.6910012  18.3851372 124.9120803 -15.1985656
  18.6630012 123.0074997 -13.4740012  17.9360012 122.5284997 -13.0770012
  19.2440012 123.2134997 -12.7420012  18.6419375 122.9697090 -13.3205871
  18.4220012 125.7924997  -8.5270012  19.2550012 125.4144997  -8.8070012
  18.5340012 126.7354997  -8.6460012  18.5512647 125.8682218  -8.5814513
  16.9080012 128.6704997  -6.2200012  16.2610012 128.9954997  -5.5940012
  16.3910012 128.2304997  -6.8940012  16.7494029 128.6555004  -6.2254173
  18.9310012 122.9084997 -17.0830012  18.4090012 123.2654997 -17.8020012
  18.8980012 123.5834997 -16.4050012  18.8551634 123.0485413 -17.0896855
  17.2800012 120.1484997 -18.5320012  17.3760012 120.8154997 -19.2130012
  17.1400012 119.3324997 -19.0140012  17.2742135 120.1294500 -18.6901509
  16.4490012 121.5284997 -12.9110012  16.2990012 120.5834997 -12.9320012
  16.0960012 121.8094997 -12.0680012  16.3806625 121.4370441 -12.7997654
   1.4850012 123.6064997  -8.9010012   1.6690012 123.5244997  -9.8370012
   2.3340012 123.4824997  -8.4770012   1.6250139 123.5785003  -8.9718545
  17.3060012 123.4984997  -3.2730012  17.8890012 122.7644997  -3.0810012
  17.8700012 124.2704997  -3.2260012  17.4619769 123.5024227  -3.2403841
  18.8020012 121.4014997  -2.5880012  17.9390012 121.0224997  -2.7540012
  19.4070012 120.6624997  -2.6620012  18.7655979 121.2498023  -2.6207183
  16.5270012 117.5564997 -19.4150012  17.1380012 117.1854997 -18.7780012
  15.6910012 117.1354997 -19.2190012  16.4975032 117.4487554 -19.3012965
  16.1600012 119.1114997 -14.4490012  16.4400012 118.2044997 -14.3250012
  16.9190012 119.5454997 -14.8380012  16.3009277 119.0460942 -14.4846318
  16.7720012 119.6924997  -9.0130012  17.7050012 119.9044997  -9.0470012
  16.5370012 119.7944997  -8.0910012  16.8678036 119.7352769  -8.8930024
  16.8010012 120.4294997  -6.2370012  15.9580012 120.6974997  -5.8710012
  17.2430012 121.2514997  -6.4480012  16.7454158 120.5773291  -6.2154509
   1.0820012 118.8774997  -2.7600012   2.0020012 118.7554997  -2.5240012
   0.6330012 118.1274997  -2.3710012   1.1471580 118.7593727  -2.6750994
  19.0840012 114.4094997  -0.8840012  19.4340012 113.7554997  -1.4890012
  19.2310012 115.2464997  -1.3230012  19.1518419 114.4331591  -1.0262882
  16.7730012 116.3744997 -14.4010012  16.9560012 115.9254997 -13.5750012
  16.1740012 115.7894997 -14.8640012  16.7170202 116.2339975 -14.3506725
   2.3030012 117.1894997  -9.8690012   2.7490012 116.3974997  -9.5670012
   2.7700012 117.9054997  -9.4380012   2.4270172 117.1780624  -9.7695180
   0.6070012 120.1884997  -8.8000012   1.0990012 119.9674997  -9.5910012
   0.9700012 121.0294997  -8.5190012   0.7233126 120.2718357  -8.8702469
  18.6040012 116.5184997  -2.5340012  17.6860012 116.7894997  -2.5700012
  18.7270012 115.9834997  -3.3190012  18.4951066 116.4832892  -2.6449513
  18.6400012 116.4414997 -17.8730012  19.0520012 115.7204997 -18.3480012
  19.3220012 117.1114997 -17.8140012  18.7885885 116.4332368 -17.9301085
   0.9210012 116.4464997 -14.7460012  -0.0039988 116.6554997 -14.8750012
   1.3750012 116.9304997 -15.4350012   0.8557368 116.5405993 -14.8568774
  15.6920012 131.4304997 -12.8000012  16.3440012 131.0834997 -13.4080012
  16.2020012 131.9194997 -12.1540012  15.8502637 131.4490597 -12.7959764
   0.8850012 115.1844997  -6.4010012   0.2200012 114.9384997  -5.7580012
   0.4420012 115.8064997  -6.9790012   0.7340956 115.2348632  -6.3910648
   3.0770012 128.3594997  -2.2570012   2.2560012 128.5344997  -2.7170012
   2.8240012 128.2864997  -1.3360012   2.9306164 128.3735622  -2.1955077
   6.0310012 129.3344997  -5.9980012   5.6060012 130.1434997  -6.2810012
   6.9350012 129.4194997  -6.3000012   6.0950271 129.4568469  -6.0776224
  10.3420012 130.7334997  -3.0390012  10.5270012 130.3994997  -2.1610012
  11.1880012 131.0424997  -3.3610012  10.4817539 130.7296047  -2.9624395
  12.6870012 132.0194997  -3.7950012  13.3640012 131.3864997  -4.0350012
  13.0090012 132.4204997  -2.9880012  12.8231637 131.9871154  -3.7187207
  17.6040012 114.6084997  -4.7150012  16.7920012 114.9334997  -5.1030012
  17.8370012 113.8484997  -5.2480012  17.5243423 114.5502436  -4.8401747
   3.4330012 132.5904997  -5.9510012   2.7120012 133.0304997  -6.4020012
   3.0670012 132.3394997  -5.1020012   3.2849804 132.6167698  -5.8980160
   5.9000012 132.1904997  -6.9210012   5.0350012 132.2624997  -6.5170012
   5.8450012 132.7374997  -7.7050012   5.7742085 132.2742685  -6.9716638
  10.6100012 132.0784997  -7.7460012  10.1540012 132.6074997  -8.4000012
  10.7730012 132.6814997  -7.0200012  10.5695585 132.2324468  -7.7374938
  12.9380012 130.9564997  -6.8010012  12.0330012 131.1214997  -7.0660012
  13.3670012 131.8094997  -6.8660012  12.8720799 131.0944483  -6.8460818
  15.5420012 132.5264997  -6.5060012  15.3600012 133.4424997  -6.7160012
  15.7190012 132.1164997  -7.3520012  15.5410210 132.5964822  -6.6492115
   2.8470012 131.2134997  -9.0410012   2.8290012 130.7884997  -8.1830012
   3.6520012 130.8954997  -9.4490012   2.9533875 131.1123812  -8.9788345
   4.9890012 129.9234997 -10.3860012   4.7700012 129.0074997 -10.2160012
   5.8130012 130.0634997  -9.9200012   5.0704420 129.8170520 -10.2997226
   7.5260012 130.3934997  -9.5370012   7.7390012 129.5054997  -9.8240012
   7.5900012 130.3594997  -8.5830012   7.5638231 130.2673102  -9.4472603
  11.0340012 116.0574997 -10.3930012  10.3600012 115.4284997 -10.1370012
  11.5980012 115.5734997 -10.9960012  11.0179230 115.9058744 -10.4394660
  16.1770012 114.1654997 -10.2800012  16.7810012 114.7124997 -10.7820012
  15.3070012 114.4844997 -10.5200012  16.1421241 114.2835806 -10.3812346
  17.9040012 115.3034997 -11.9470012  18.5160012 114.7894997 -12.4730012
  18.2860012 116.1814997 -11.9230012  18.0394540 115.3517140 -12.0158170
   3.3610012 114.6914997 -12.5710012   2.5840012 114.4574997 -13.0780012
   3.8910012 113.8944997 -12.5620012   3.3262330 114.5516988 -12.6392258
   2.1970012 114.4894997 -16.7670012   2.6360012 115.1004997 -17.3590012
   1.5640012 115.0274997 -16.2930012   2.1714514 114.6459257 -16.7839070
   7.9400012 114.6184997 -12.7570012   8.8150012 115.0064997 -12.7870012
   7.8040012 114.4034997 -11.8350012   8.0413695 114.6425184 -12.6363560
  13.4970012 114.6484997 -11.1080012  13.5730012 114.7434997 -12.0580012
  13.2220012 113.7404997 -10.9790012  13.4702321 114.5387867 -11.2204921
  14.8500012 114.6744997 -15.4160012  14.1480012 115.2894997 -15.6250012
  14.4060012 113.8364997 -15.2850012  14.6936330 114.6455783 -15.4269672
   2.0980012 130.4374997 -15.8690012   1.4130012 130.3994997 -16.5370012
   2.1020012 131.3504997 -15.5810012   2.0048193 130.5557016 -15.9214716
   4.0580012 116.4054997 -18.3250012   4.5500012 115.7754997 -18.8520012
   4.6820012 116.7014997 -17.6610012   4.2095446 116.3593199 -18.3074020
   9.0840012 116.6984997 -15.8680012   9.2620012 116.0524997 -15.1850012
   9.0310012 117.5324997 -15.4000012   9.1011829 116.7227985 -15.7114060
  10.9630012 131.6474997 -17.4720012  11.8290012 132.0134997 -17.6500012
  10.7160012 131.2074997 -18.2860012  11.0482392 131.6381756 -17.6063711
  17.6720012 131.2104997 -14.7930012  17.4770012 130.4624997 -15.3580012
  17.6330012 131.9684997 -15.3760012  17.6400380 131.2106099 -14.9491616
   3.3190012 115.2054997  -3.0530012   2.9530012 114.4404997  -2.6100012
   4.2320012 115.2344997  -2.7660012   3.3922790 115.1047224  -2.9535930
   5.2920012 114.5564997  -1.5170012   6.1900012 114.2824997  -1.7020012
   4.9050012 113.8134997  -1.0530012   5.3626612 114.4185914  -1.4796357
   3.9160012 131.3574997 -18.8440012   3.6490012 131.6444997 -17.9710012
   4.6880012 130.8114997 -18.6920012   3.9837488 131.3230294 -18.7038950
  13.7130012 113.8884997  -1.3350012  13.7900012 113.4624997  -0.4810012
  14.6070012 113.9024997  -1.6780012  13.8443428 113.8320879  -1.2644690
  16.8890012 129.9614997  -2.6430012  16.1070012 129.7754997  -3.1620012
  16.8170012 130.8904997  -2.4250012  16.7721777 130.0616492  -2.6845952
  31.2950012 123.8474997 -12.6120012  31.3840012 124.7914997 -12.7440012
  30.6570012 123.5724997 -13.2700012  31.2209081 123.9394830 -12.7190386
  30.2280012 123.1024997  -9.1930012  30.1900012 122.4564997  -8.4880012
  29.9060012 122.6364997  -9.9640012  30.1792333 122.9509408  -9.2007022
  22.5970012 122.7174997  -7.6000012  22.6380012 122.0914997  -6.8770012
  23.3000012 123.3414997  -7.4180012  22.6976363 122.7161196  -7.4763956
  33.9340012 126.0414997 -10.8920012  33.4940012 125.3214997 -10.4410012
  33.9210012 126.7624997 -10.2620012  33.8720226 126.0403731 -10.7451506
  23.5200012 127.1674997  -9.0650012  23.1510012 126.3654997  -9.4350012
  24.4610012 126.9984997  -9.0190012  23.5967289 127.0350153  -9.1093684
  20.1300012 120.8274997 -13.6720012  19.6830012 121.6734997 -13.6910012
  19.5690012 120.2474997 -14.1880012  19.9929900 120.8649916 -13.7443199
  20.8410012 122.9894997 -11.5460012  21.0540012 122.2194997 -11.0190012
  21.5790012 123.0784997 -12.1500012  20.9698496 122.8961394 -11.5554700
  31.0460012 131.1464997 -10.6790012  31.6660012 130.4694997 -10.9530012
  30.8380012 130.9284997  -9.7710012  31.1026904 131.0243870 -10.5936635
  28.6180012 125.5354997  -8.7870012  28.9220012 124.8494997  -9.3820012
  29.3390012 125.6534997  -8.1690012  28.7570671 125.4576305  -8.7848184
  37.2810012 117.1364997  -7.9260012  37.3300012 117.7464997  -7.1900012
  37.7060012 117.5974997  -8.6490012  37.3451824 117.2823741  -7.9229795
  31.7590012 119.9294997  -8.4590012  31.9010012 118.9834997  -8.4390012
  31.6520012 120.1364997  -9.3880012  31.7639864 119.8279534  -8.5817661
  24.9130012 118.0304997 -11.1870012  24.9570012 118.8904997 -11.6050012
  24.4560012 117.4784997 -11.8210012  24.8572185 118.0735799 -11.3299701
  32.6360012 118.1614997 -12.7860012  33.2820012 117.8324997 -12.1610012
  33.1460012 118.6794997 -13.4090012  32.7934264 118.1864611 -12.7846138
  21.5340012 120.4274997 -10.4250012  22.1870012 119.8774997  -9.9930012
  21.5580012 120.1534997 -11.3420012  21.6266683 120.3151466 -10.4897877
  26.6900012 121.9774997 -11.2100012  27.3060012 121.4514997 -10.7000012
  26.1040012 121.3374997 -11.6130012  26.6950810 121.8189208 -11.1946827
  37.6720012 118.6144997  -5.6900012  36.9840012 119.2724997  -5.7860012
  37.6880012 118.4174997  -4.7540012  37.5798525 118.6780462  -5.5765192
  23.7240012 116.9484997  -7.1130012  23.5050012 117.4784997  -7.8790012
  23.0560012 117.1754997  -6.4660012  23.6037600 117.0516906  -7.1303621
  31.0930012 126.4484997 -13.5690012  30.7970012 126.1264997 -14.4200012
  30.7680012 127.3484997 -13.5280012  31.0086371 126.5260215 -13.6798199
  26.2930012 124.6244997  -6.8260012  25.5530012 125.2224997  -6.7220012
  27.0070012 125.1784997  -7.1410012  26.2882237 124.7812831  -6.8543535
  34.4000012 117.4524997 -10.8060012  34.1840012 116.6864997 -10.2730012
  35.0550012 117.9244997 -10.2930012  34.4590632 117.4115889 -10.6637139
  23.3170012 118.8404997  -9.1610012  23.9310012 119.4734997  -8.7870012
  23.8290012 118.3684997  -9.8170012  23.4702296 118.8632370  -9.1985748
  24.7000012 126.5884997  -6.0380012  24.6950012 127.4684997  -6.4160012
  23.8470012 126.5054997  -5.6130012  24.5839464 126.6976117  -6.0322093
  20.8210012 126.2594997 -15.2560012  20.5490012 126.4884997 -16.1450012
  20.8670012 127.0974997 -14.7960012  20.7900094 126.4041213 -15.3154303
  34.4460012 127.8814997  -8.5440012  33.5050012 127.9394997  -8.3820012
  34.7230012 128.7874997  -8.6810012  34.3544679 128.0119443  -8.5403185
  34.7470012 116.1674997  -7.1260012  34.0110012 116.7784997  -7.1640012
  35.4300012 116.5824997  -7.6530012  34.7386541 116.3071374  -7.2024168
  27.7500012 114.2544997  -9.6600012  27.6330012 113.3054997  -9.7150012
  26.8950012 114.5864997  -9.3870012  27.6183733 114.1695409  -9.6306103
  32.6980012 129.6624997 -11.9180012  33.1240012 128.9554997 -12.4030012
  33.0150012 130.4634997 -12.3350012  32.7991019 129.6740994 -12.0406870
  33.8580012 127.5634997 -13.4100012  33.6000012 126.8734997 -14.0210012
  33.9290012 127.1204997 -12.5640012  33.8322856 127.4092124 -13.3793115
  35.5440012 126.1294997  -4.9320012  35.6840012 125.5384997  -5.6720012
  35.7110012 127.0024997  -5.2890012  35.5856778 126.1666426  -5.0813035
  30.0170012 123.0914997 -15.1600012  29.3050012 123.6264997 -15.5120012
  30.7080012 123.1474997 -15.8200012  30.0130132 123.1722543 -15.2973711
  30.0700012 121.5494997 -18.1210012  30.7710012 121.5714997 -17.4700012
  30.3730012 120.9214997 -18.7770012  30.2067830 121.4676566 -18.1206289
  37.3860012 122.4694997  -6.8660012  36.7330012 123.1644997  -6.7770012
  37.8510012 122.6794997  -7.6760012  37.3595390 122.5929425  -6.9633117
  33.4220012 123.3014997 -14.2080012  32.6900012 123.5294997 -13.6350012
  33.8700012 122.5874997 -13.7530012  33.3823095 123.2362571 -14.0680881
  33.3200012 121.4754997  -5.1410012  33.4000012 122.2384997  -4.5690012
  32.7180012 121.7544997  -5.8310012  33.2495756 121.6177134  -5.1559411
  25.0680012 123.9314997 -12.3260012  24.7370012 123.5614997 -13.1440012
  25.6560012 123.2614997 -11.9790012  25.1021873 123.7901156 -12.3911898
  26.4340012 127.3594997  -9.6440012  26.3400012 126.7814997 -10.4010012
  27.1640012 126.9884997  -9.1480012  26.5197981 127.2302390  -9.6805835
  25.4340012 122.7004997  -8.6920012  26.0000012 122.8214997  -9.4550012
  25.7530012 123.3374997  -8.0530012  25.5545786 122.8031884  -8.7099960
  31.7430012 128.2034997  -7.9580012  31.5030012 128.8654997  -7.3100012
  31.5450012 127.3694997  -7.5330012  31.6833808 128.1813134  -7.8118476
  26.3140012 127.0994997  -3.9750012  26.0030012 127.8814997  -3.5200012
  25.6640012 126.9464997  -4.6610012  26.1835558 127.1859105  -4.0054129
  32.2930012 122.4634997 -16.5230012  32.8730012 122.6134997 -15.7760012
  32.7070012 122.9344997 -17.2460012  32.4282830 122.5476841 -16.5185866
  23.2340012 123.2974997  -4.7460012  23.3050012 123.9484997  -4.0480012
  22.3440012 123.4004997  -5.0810012  23.1233117 123.4005936  -4.6957300
  30.0200012 129.2004997 -13.0880012  30.4940012 129.4954997 -12.3100012
  29.4570012 129.9384997 -13.3210012  30.0087653 129.3406932 -13.0129864
  24.5540012 129.1714997  -3.2120012  24.5610012 129.0354997  -4.1590012
  23.6380012 129.0534997  -2.9600012  24.4311714 129.1369430  -3.3075334
  35.9920012 114.2134997 -16.7100012  35.0920012 114.3524997 -16.4150012
  36.2440012 115.0444997 -17.1120012  35.9028702 114.3449074 -16.7239795
  24.0580012 123.0014997 -14.7360012  23.7660012 123.7694997 -15.2270012
  23.3840012 122.3414997 -14.8990012  23.9269081 123.0174406 -14.8252660
  37.1810012 128.5794997 -18.3340012  37.2550012 129.5184997 -18.1630012
  38.0870012 128.2744997 -18.3900012  37.3135100 128.6666722 -18.3181881
  20.1510012 125.3644997  -5.9210012  19.6500012 125.3364997  -6.7360012
  20.1560012 124.4584997  -5.6120012  20.0831526 125.2382278  -5.9907128
  19.9010012 128.1444997  -9.0370012  20.8470012 128.0004997  -9.0560012
  19.7890012 128.9284997  -8.5000012  20.0152727 128.2308046  -8.9669928
  38.0990012 128.8104997  -3.3550012  38.0500012 127.8554997  -3.3920012
  37.2720012 129.0784997  -2.9540012  37.9804940 128.7158998  -3.3058625
  29.0780012 128.3844997  -4.4790012  29.1650012 129.2104997  -4.0040012
  28.2140012 128.0544997  -4.2300012  28.9731964 128.4529878  -4.3803451
  29.4920012 132.1564997 -14.6730012  29.4170012 132.0354997 -15.6190012
  29.5250012 133.1064997 -14.5540012  29.4861848 132.2682500 -14.7865166
  23.1450012 130.9454997 -12.8920012  23.2980012 130.5974997 -12.0130012
  22.2950012 130.5894997 -13.1470012  23.0508962 130.8496650 -12.8061660
  32.5940012 131.3104997 -17.6710012  32.9690012 130.5664997 -18.1410012
  32.5980012 131.0404997 -16.7520012  32.6458915 131.1721486 -17.6112176
  32.2630012 131.2364997 -14.9210012  31.3270012 131.3364997 -14.7430012
  32.5430012 130.5274997 -14.3430012  32.1728255 131.1542711 -14.8184609
  35.2510012 120.3034997  -2.8750012  34.8440012 120.7844997  -3.5960012
  35.2920012 119.3984997  -3.1830012  35.2008437 120.2469374  -3.0153317
  22.4000012 126.6874997  -4.8780012  22.6160012 126.3264997  -4.0190012
  21.5450012 126.3134997  -5.0880012  22.3139292 126.5874111  -4.7886614
  25.0190012 115.1574997  -8.8830012  24.1570012 115.0704997  -9.2900012
  24.9960012 116.0134997  -8.4550012  24.8980330 115.2612765  -8.8808137
  29.6820012 114.8794997  -5.5080012  30.1020012 114.4644997  -4.7550012
  28.7490012 114.7014997  -5.3910012  29.6133644 114.7985900  -5.3890461
  33.0080012 118.6354997  -4.6550012  32.4940012 118.5094997  -3.8570012
  32.8530012 119.5474997  -4.8990012  32.9166852 118.7416132  -4.5787842
  33.7710012 123.4964997 -18.8930012  33.8130012 123.2734997 -19.8230012
  34.6200012 123.8954997 -18.7030012  33.8915396 123.5199155 -18.9946373
  29.3430012 117.3724997 -18.2230012  29.0900012 117.3914997 -17.3000012
  29.0870012 116.5004997 -18.5240012  29.2737790 117.2572437 -18.1373737
  25.1100012 120.1234997  -7.7880012  24.4680012 120.0824997  -7.0790012
  25.1470012 121.0494997  -8.0250012  25.0271324 120.2431559  -7.7230176
  25.1070012 120.3444997 -12.8760012  24.2140012 120.0034997 -12.9340012
  25.5570012 119.9674997 -13.6310012  25.0457305 120.2468484 -12.9860823
  30.6420012 120.7604997 -14.0590012  30.2330012 121.5754997 -14.3500012
  31.3630012 120.6204997 -14.6730012  30.6834537 120.8532018 -14.1818658
  29.7440012 120.9354997  -2.5710012  29.1820012 120.2314997  -2.2500012
  30.5710012 120.8154997  -2.1030012  29.7787095 120.8227883  -2.4637670
  31.6470012 120.2064997 -11.2450012  31.4520012 120.8114997 -11.9600012
  31.8280012 119.3724997 -11.6790012  31.6447614 120.1766300 -11.4015595
  22.8600012 120.4434997  -5.9210012  22.8220012 120.8434997  -5.0520012
  22.3690012 119.6264997  -5.8300012  22.7884684 120.3878069  -5.7898941
  26.2260012 117.8174997 -19.1220012  25.7950012 117.3724997 -18.3920012
  25.5080012 118.1894997 -19.6340012  26.0699438 117.8068940 -19.0913201
  19.4680012 117.5594997 -12.0700012  20.0990012 117.5304997 -11.3510012
  19.9170012 117.1344997 -12.8000012  19.6150774 117.4980492 -12.0703447
  20.7420012 118.3054997 -16.6460012  21.2160012 118.8964997 -17.2310012
  20.0250012 118.8364997 -16.2990012  20.7099341 118.4580867 -16.6791164
  30.9110012 121.8444997  -6.5730012  31.2340012 121.2134997  -7.2160012
  30.4710012 121.3094997  -5.9130012  30.8956895 121.6858441  -6.5717150
  27.6880012 117.7714997 -11.7890012  26.7770012 117.8284997 -11.5010012
  28.1940012 117.7114997 -10.9790012  27.6315413 117.7711985 -11.6399378
  22.5170012 119.4004997 -12.9630012  21.6270012 119.5004997 -13.3030012
  22.8130012 118.5584997 -13.3090012  22.4352823 119.3003545 -13.0562787
  26.1700012 119.4004997 -15.3060012  27.1010012 119.5294997 -15.1280012
  25.9550012 120.0704997 -15.9560012  26.2684247 119.5086565 -15.3694253
  32.0930012 117.0064997  -8.5250012  31.4170012 117.1374997  -7.8610012
  31.6080012 116.8514997  -9.3350012  31.9347145 117.0034905  -8.5435483
  24.8440012 120.5954997 -17.7390012  24.3010012 120.2154997 -18.4310012
  25.6770012 120.7894997 -18.1680012  24.8824399 120.5698124 -17.8915474
  35.3810012 132.6784997  -2.2480012  35.5810012 133.1024997  -3.0830012
  36.0360012 133.0214997  -1.6410012  35.4970051 132.7829648  -2.2802164
  22.9790012 125.1524997  -2.6400012  23.7110012 125.4064997  -2.0790012
  22.1990012 125.3564997  -2.1250012  22.9738232 125.2149177  -2.4934240
  29.0080012 120.5594997  -9.9020012  29.5730012 120.0124997 -10.4490012
  28.8610012 120.0374997  -9.1140012  29.0652918 120.4142024  -9.8701546
  24.0100012 116.6954997 -13.4840012  23.6930012 115.7934997 -13.5190012
  24.7920012 116.6974997 -14.0370012  24.0722284 116.5721628 -13.5635217
  27.6350012 118.9474997  -7.4880012  26.7990012 119.4014997  -7.3780012
  28.1590012 119.2234997  -6.7360012  27.5914414 119.0469376  -7.3712864
  28.1790012 125.1604997 -15.8040012  27.4340012 124.6534997 -16.1260012
  28.0450012 125.2094997 -14.8570012  28.0588776 125.0976940 -15.7201353
  35.3290012 124.2934997  -7.0170012  35.9710012 124.7504997  -7.5610012
  34.4990012 124.4064997  -7.4800012  35.3045963 124.3712704  -7.1539823
  32.0770012 117.9744997 -17.6040012  31.1380012 118.0864997 -17.7560012
  32.3740012 118.8314997 -17.2980012  31.9887666 118.1056443 -17.5834232
  29.6980012 125.3444997  -4.5670012  29.3530012 124.9634997  -3.7600012
  29.4980012 126.2784997  -4.4950012  29.6238061 125.4185228  -4.4469039
  32.7950012 119.8414997 -15.9440012  33.6870012 119.7044997 -15.6250012
  32.8520012 120.6324997 -16.4800012  32.9246285 119.9296660 -15.9728310
  23.3040012 124.4554997 -10.0340012  24.0490012 124.4534997 -10.6350012
  23.3820012 123.6324997  -9.5520012  23.4165518 124.3439315 -10.0511071
  30.3050012 126.6194997 -16.7780012  30.0090012 127.4454997 -16.3970012
  29.6020012 125.9994997 -16.5820012  30.1694914 126.6488199 -16.6993557
  20.3120012 122.9164997  -4.7190012  20.5350012 122.4984997  -3.8870012
  19.7100012 122.3034997  -5.1420012  20.2611759 122.7764668  -4.6622978
  27.3280012 122.4334997  -2.5060012  27.0320012 122.2674997  -3.4010012
  28.2600012 122.2134997  -2.5170012  27.4134166 122.3810640  -2.6299464
  31.9490012 127.8064997  -4.6160012  31.0480012 127.9894997  -4.8840012
  31.9830012 128.0654997  -3.6950012  31.8303041 127.8665512  -4.5281803
  37.6800012 120.0514997 -16.2490012  37.1260012 119.6554997 -16.9210012
  37.7800012 120.9614997 -16.5270012  37.6177059 120.1203586 -16.3785599
  37.6430012 125.8514997  -3.4120012  36.7920012 126.0894997  -3.7790012
  38.2340012 125.8344997  -4.1650012  37.6062487 125.8818258  -3.5641107
  35.9750012 128.8374997 -15.7840012  35.6020012 128.0114997 -15.4750012
  36.2530012 128.6544997 -16.6810012  35.9615630 128.6997303 -15.8630374
  33.1360012 123.6454997  -8.7630012  32.2070012 123.4134997  -8.7900012
  33.5870012 122.8684997  -9.0930012  33.0699216 123.5087238  -8.8113083
  25.6790012 127.9734997 -12.6300012  26.2060012 128.7464997 -12.8300012
  24.7990012 128.1984997 -12.9310012  25.6321773 128.1098005 -12.6980990
  21.4340012 122.8354997 -18.0430012  22.0500012 123.4624997 -17.6630012
  20.5720012 123.1514997 -17.7710012  21.4017698 122.9639430 -17.9542817
  27.1060012 125.6364997 -13.0530012  26.8650012 126.5614997 -13.0120012
  26.3650012 125.1774997 -12.6570012  26.9728409 125.7011421 -12.9938623
  27.6210012 129.7854997  -6.7380012  27.9830012 130.6404997  -6.9720012
  28.1520012 129.4934997  -5.9980012  27.7424473 129.8631060  -6.6699145
  25.7890012 130.6584997 -13.5080012  24.8390012 130.7634997 -13.4570012
  26.1410012 131.4784997 -13.1630012  25.7064203 130.7838314 -13.4543350
  31.1650012 125.8844997  -7.0380012  30.7390012 125.6574997  -6.2110012
  31.7450012 125.1464997  -7.2200012  31.1851868 125.7535299  -6.9494170
  33.3680012 126.8134997 -17.9640012  33.7210012 126.4334997 -17.1590012
  32.4190012 126.7204997 -17.8770012  33.2880441 126.7489596 -17.8421441
  33.8230012 130.4364997  -4.5680012  33.2220012 129.8814997  -5.0640012
  34.1050012 131.1034997  -5.1940012  33.7788519 130.4506841  -4.7205048
  37.8710012 131.2934997 -17.7630012  38.6150012 131.8794997 -17.9030012
  37.1770012 131.8614997 -17.4290012  37.8790292 131.4505582 -17.7370039
  21.9460012 117.6694997  -5.1610012  21.0530012 118.0084997  -5.2290012
  21.8470012 116.8144997  -4.7430012  21.8104164 117.6002588  -5.1137765
  34.2340012 125.4864997 -15.7370012  33.9560012 124.7584997 -15.1810012
  35.1610012 125.6054997 -15.5320012  34.3213124 125.4028802 -15.6331155
  21.5970012 129.4744997  -6.7260012  21.8140012 128.5424997  -6.7570012
  21.8430012 129.7484997  -5.8430012  21.6599549 129.3840636  -6.6108237
  27.4590012 127.9254997 -19.5170012  27.6980012 127.1774997 -20.0640012
  27.1900012 127.5374997 -18.6840012  27.4553675 127.7706638 -19.4793135
  26.3960012 127.4954997 -17.0600012  26.5420012 126.9754997 -16.2700012
  26.3930012 128.4024997 -16.7540012  26.4155989 127.5468853 -16.9103912
  22.8490012 124.7484997 -16.5500012  22.1630012 125.1004997 -15.9830012
  23.3710012 125.5114997 -16.7970012  22.8256852 124.8998578 -16.5057882
  30.6800012 117.4104997  -6.2710012  31.3790012 117.4844997  -5.6210012
  30.2990012 116.5464997  -6.1170012  30.7241767 117.3037624  -6.1611678
  31.4650012 117.0624997 -15.1740012  31.6850012 117.5344997 -15.9770012
  32.0230012 117.4574997 -14.5040012  31.5704968 117.1804285 -15.1932669
  29.1330012 129.1934997 -16.3110012  28.3170012 129.6904997 -16.2590012
  29.6630012 129.6684997 -16.9510012  29.0929161 129.3257722 -16.3904044
  28.6650012 118.7904997 -14.3390012  29.4770012 119.2954997 -14.2930012
  28.4200012 118.6454997 -13.4250012  28.7430520 118.8400375 -14.2091483
  29.2000012 119.7764997  -5.1540012  29.3190012 120.3504997  -4.3970012
  29.8560012 119.0884997  -5.0400012  29.3049757 119.7621079  -5.0349175
  29.5480012 115.8714997 -13.4010012  29.2020012 116.4894997 -12.7560012
  30.2070012 116.3724997 -13.8820012  29.5897826 116.0235802 -13.3779029
  26.4720012 130.2374997 -16.3290012  26.6320012 131.0364997 -16.8300012
  26.2740012 130.5434997 -15.4440012  26.4671649 130.3884469 -16.2780185
  25.2060012 116.9344997 -16.7140012  25.1230012 117.8234997 -16.3670012
  26.0960012 116.6694997 -16.4820012  25.3149469 117.0201430 -16.6352374
  35.4050012 117.6834997  -4.3190012  34.4880012 117.9464997  -4.4070012
  35.7400012 117.6804997  -5.2160012  35.3249900 117.7190224  -4.4522081
  34.0070012 121.4344997 -10.2240012  33.2090012 121.0194997 -10.5520012
  34.4520012 120.7434997  -9.7330012  33.9579885 121.2843543 -10.2025111
  23.4650012 127.3624997 -17.6530012  24.0570012 128.0614997 -17.3770012
  23.9240012 126.9294997 -18.3730012  23.6081142 127.3997049 -17.7125170
  21.7810012 120.0264997 -18.5370012  21.7360012 120.9654997 -18.3590012
  20.8930012 119.7904997 -18.8070012  21.6548574 120.1231892 -18.5491088
  35.0930012 130.6904997  -8.6010012  34.9380012 131.3684997  -9.2580012
  36.0260012 130.7624997  -8.3980012  35.1978500 130.7930170  -8.6634881
  22.5890012 114.8084997  -9.8640012  22.3600012 114.8674997 -10.7920012
  22.1460012 114.0164997  -9.5580012  22.4978530 114.7095753  -9.9495214
  21.5190012 128.7484997 -13.7040012  20.6870012 129.2214997 -13.6760012
  22.0650012 129.2584997 -14.3020012  21.4789739 128.8821871 -13.7810284
  20.8070012 131.3614997  -2.3740012  21.3480012 131.1444997  -1.6140012
  20.3260012 130.5554997  -2.5630012  20.8159345 131.2229514  -2.2956924
  25.4050012 130.2804997  -0.7530012  26.1720012 129.8214997  -0.4120012
  25.3830012 130.0544997  -1.6830012  25.5071434 130.1870409  -0.8319957
  29.4970012 129.7884997 -19.3780012  28.8530012 129.1574997 -19.0570012
  30.2590012 129.2574997 -19.6100012  29.5118077 129.6302920 -19.3653989
  31.9820012 128.6604997  -2.0240012  31.6310012 127.8044997  -1.7810012
  32.7080012 128.8034997  -1.4170012  32.0320769 128.5625636  -1.9086381
  34.1010012 129.6054997 -19.1440012  34.3840012 128.8114997 -18.6920012
  34.8410012 129.8384997 -19.7050012  34.2397486 129.5282803 -19.1579302
  20.7140012 125.1714997  -1.4190012  20.8580012 124.2694997  -1.7060012
  19.9420012 125.4574997  -1.9070012  20.6293322 125.0868261  -1.5242119
  25.0560012 125.5154997 -19.2870012  25.1200012 124.7214997 -18.7560012
  25.7090012 125.3964997 -19.9770012  25.1530241 125.3907148 -19.3075683
  27.3700012 125.1414997  -1.9870012  27.0410012 125.4124997  -2.8440012
  27.5220012 124.2004997  -2.0740012  27.3454809 125.0513862  -2.1161756
  33.1040012 125.0574997  -4.6030012  33.8500012 125.6454997  -4.7230012
  32.3470012 125.6394997  -4.5400012  33.1037554 125.2167011  -4.6109093
  21.5470012 122.3714997  -1.9990012  21.9550012 121.5144997  -2.1200012
  21.2870012 122.3864997  -1.0780012  21.5677568 122.2560807  -1.8910412
  26.2050012 123.4874997 -16.9810012  25.7450012 123.0034997 -16.2950012
  26.4600012 122.8194997 -17.6170012  26.1764902 123.3308731 -16.9730666
  25.4940012 121.3804997  -4.6250012  24.8760012 122.0554997  -4.3450012
  25.8380012 121.7014997  -5.4580012  25.4559615 121.5162721  -4.6993419
  27.2760012 121.7304997 -18.7190012  27.0960012 121.5764997 -19.6460012
  28.2260012 121.8384997 -18.6740012  27.3797776 121.7240175 -18.8398157
  30.5140012 123.8524997  -1.3480012  31.4670012 123.9354997  -1.3750012
  30.3530012 123.1404997  -0.7280012  30.6226426 123.7676746  -1.2679421
  36.6660012 124.0854997 -19.2730012  36.3920012 123.6604997 -20.0860012
  36.7050012 125.0164997 -19.4900012  36.6337699 124.1532484 -19.4136390
  25.8330012 118.7354997  -3.5430012  25.9830012 118.0064997  -4.1450012
  25.8360012 119.5124997  -4.1020012  25.8539302 118.7407851  -3.7009308
  26.2460012 117.1054997  -6.0500012  26.7820012 117.5564997  -6.7020012
  25.3940012 116.9974997  -6.4730012  26.2042178 117.1526390  -6.1964244
  27.8280012 122.5444997  -5.8110012  28.5780012 122.3884997  -6.3840012
  27.4890012 123.3964997  -6.0860012  27.8848921 122.6382968  -5.9266439
  32.2430012 120.3594997  -0.7820012  32.4360012 119.4284997  -0.8940012
  33.1010012 120.7844997  -0.7920012  32.3853020 120.2896389  -0.7986639
  33.5600012 123.1484997  -2.7050012  33.2790012 123.8574997  -3.2820012
  34.5030012 123.0754997  -2.8560012  33.6489027 123.2357646  -2.8044449
  24.3120012 119.9334997  -1.6310012  23.5450012 119.4014997  -1.8410012
  24.9910012 119.6234997  -2.2310012  24.2987022 119.8187506  -1.7408352
  27.0520012 114.5614997  -5.6190012  26.9530012 115.5084997  -5.7240012
  26.3090012 114.1894997  -6.0940012  26.9380564 114.6405902  -5.6975440
  28.3160012 118.8834997  -2.0550012  28.0800012 118.6634997  -1.1530012
  27.5320012 118.6764997  -2.5650012  28.1778628 118.8254760  -2.0006068
  31.0310012 118.0104997  -2.9790012  30.0840012 118.0424997  -2.8470012
  31.3440012 117.3854997  -2.3260012  30.9435475 117.9303207  -2.8725545
  32.6650012 116.6444997  -0.9740012  32.5690012 115.6924997  -0.9800012
  32.3440012 116.9134997  -0.1140012  32.6084070 116.5504035  -0.8584559
  22.4920012 117.8544997  -1.9270012  22.7040012 117.1474997  -2.5370012
  22.3810012 117.4164997  -1.0830012  22.5059721 117.6987084  -1.8963157
  27.2730012 113.8554997  -2.9470012  27.9850012 113.2154997  -2.9610012
  27.1720012 114.1224997  -3.8610012  27.3567939 113.8039938  -3.0724350
  27.6270012 115.5384997  -0.8940012  27.4950012 115.0624997  -1.7140012
  27.0280012 116.2824997  -0.9490012  27.5279071 115.5739618  -1.0137114
  27.1730012 132.4214997 -17.7170012  28.1060012 132.5794997 -17.5740012
  26.9090012 133.0964997 -18.3420012  27.2649510 132.5343611 -17.7819259
  20.7420012 127.0574997 -18.2350012  21.6560012 127.1364997 -17.9610012
  20.7490012 126.3704997 -18.9010012  20.8681131 126.9753961 -18.2875607
  19.3910012 132.4504997 -13.1570012  18.7440012 131.9884997 -13.6900012
  19.7450012 131.7784997 -12.5750012  19.3503849 132.2964723 -13.1512041
  20.2610012 130.5314997 -11.3530012  19.9260012 129.6514997 -11.1810012
  20.4830012 130.8764997 -10.4880012  20.2451783 130.4577500 -11.2125792
  37.8090012 131.3404997  -8.3720012  37.7880012 131.5254997  -7.4330012
  38.5000012 131.9094997  -8.7130012  37.8994618 131.4426606  -8.2896136
  37.3730012 130.9084997  -5.4500012  36.8850012 130.1724997  -5.8210012
  37.9220012 130.5144997  -4.7720012  37.3804872 130.7546249  -5.4090840
  35.8230012 126.6974997  -0.8120012  34.9570012 126.5924997  -0.4180012
  36.2000012 127.4564997  -0.3660012  35.7553308 126.7856900  -0.6977607
  37.1240012 124.9544997 -15.2980012  37.9740012 125.3754997 -15.1710012
  37.1300012 124.2144997 -14.6910012  37.2411372 124.9120803 -15.1985656
  37.5190012 123.0074997 -13.4740012  36.7920012 122.5284997 -13.0770012
  38.1000012 123.2134997 -12.7420012  37.4979375 122.9697090 -13.3205871
  37.2780012 125.7924997  -8.5270012  38.1110012 125.4144997  -8.8070012
  37.3900012 126.7354997  -8.6460012  37.4072647 125.8682218  -8.5814513
  35.7640012 128.6704997  -6.2200012  35.1170012 128.9954997  -5.5940012
  35.2470012 128.2304997  -6.8940012  35.6054029 128.6555004  -6.2254173
  37.7870012 122.9084997 -17.0830012  37.2650012 123.2654997 -17.8020012
  37.7540012 123.5834997 -16.4050012  37.7111634 123.0485413 -17.0896855
  36.1360012 120.1484997 -18.5320012  36.2320012 120.8154997 -19.2130012
  35.9960012 119.3324997 -19.0140012  36.1302135 120.1294500 -18.6901509
  35.3050012 121.5284997 -12.9110012  35.1550012 120.5834997 -12.9320012
  34.9520012 121.8094997 -12.0680012  35.2366625 121.4370441 -12.7997654
  20.3410012 123.6064997  -8.9010012  20.5250012 123.5244997  -9.8370012
  21.1900012 123.4824997  -8.4770012  20.4810139 123.5785003  -8.9718545
  36.1620012 123.4984997  -3.2730012  36.7450012 122.7644997  -3.0810012
  36.7260012 124.2704997  -3.2260012  36.3179769 123.5024227  -3.2403841
  37.6580012 121.4014997  -2.5880012  36.7950012 121.0224997  -2.7540012
  38.2630012 120.6624997  -2.6620012  37.6215979 121.2498023  -2.6207183
  35.3830012 117.5564997 -19.4150012  35.9940012 117.1854997 -18.7780012
  34.5470012 117.1354997 -19.2190012  35.3535032 117.4487554 -19.3012965
  35.0160012 119.1114997 -14.4490012  35.2960012 118.2044997 -14.3250012
  35.7750012 119.5454997 -14.8380012  35.1569277 119.0460942 -14.4846318
  35.6280012 119.6924997  -9.0130012  36.5610012 119.9044997  -9.0470012
  35.3930012 119.7944997  -8.0910012  35.7238036 119.7352769  -8.8930024
  35.6570012 120.4294997  -6.2370012  34.8140012 120.6974997  -5.8710012
  36.0990012 121.2514997  -6.4480012  35.6014158 120.5773291  -6.2154509
  19.9380012 118.8774997  -2.7600012  20.8580012 118.7554997  -2.5240012
  19.4890012 118.1274997  -2.3710012  20.0031580 118.7593727  -2.6750994
  37.9400012 114.4094997  -0.8840012  38.2900012 113.7554997  -1.4890012
  38.0870012 115.2464997  -1.3230012  38.0078419 114.4331591  -1.0262882
  35.6290012 116.3744997 -14.4010012  35.8120012 115.9254997 -13.5750012
  35.0300012 115.7894997 -14.8640012  35.5730202 116.2339975 -14.3506725
  21.1590012 117.1894997  -9.8690012  21.6050012 116.3974997  -9.5670012
  21.6260012 117.9054997  -9.4380012  21.2830172 117.1780624  -9.7695180
  19.4630012 120.1884997  -8.8000012  19.9550012 119.9674997  -9.5910012
  19.8260012 121.0294997  -8.5190012  19.5793126 120.2718357  -8.8702469
  37.4600012 116.5184997  -2.5340012  36.5420012 116.7894997  -2.5700012
  37.5830012 115.9834997  -3.3190012  37.3511066 116.4832892  -2.6449513
  37.4960012 116.4414997 -17.8730012  37.9080012 115.7204997 -18.3480012
  38.1780012 117.1114997 -17.8140012  37.6445885 116.4332368 -17.9301085
  19.7770012 116.4464997 -14.7460012  18.8520012 116.6554997 -14.8750012
  20.2310012 116.9304997 -15.4350012  19.7117368 116.5405993 -14.8568774
  34.5480012 131.4304997 -12.8000012  35.2000012 131.0834997 -13.4080012
  35.0580012 131.9194997 -12.1540012  34.7062637 131.4490597 -12.7959764
  19.7410012 115.1844997  -6.4010012  19.0760012 114.9384997  -5.7580012
  19.2980012 115.8064997  -6.9790012  19.5900956 115.2348632  -6.3910648
  21.9330012 128.3594997  -2.2570012  21.1120012 128.5344997  -2.7170012
  21.6800012 128.2864997  -1.3360012  21.7866164 128.3735622  -2.1955077
  24.8870012 129.3344997  -5.9980012  24.4620012 130.1434997  -6.2810012
  25.7910012 129.4194997  -6.3000012  24.9510271 129.4568469  -6.0776224
  29.1980012 130.7334997  -3.0390012  29.3830012 130.3994997  -2.1610012
  30.0440012 131.0424997  -3.3610012  29.3377539 130.7296047  -2.9624395
  31.5430012 132.0194997  -3.7950012  32.2200012 131.3864997  -4.0350012
  31.8650012 132.4204997  -2.9880012  31.6791637 131.9871154  -3.7187207
  36.4600012 114.6084997  -4.7150012  35.6480012 114.9334997  -5.1030012
  36.6930012 113.8484997  -5.2480012  36.3803423 114.5502436  -4.8401747
  22.2890012 132.5904997  -5.9510012  21.5680012 133.0304997  -6.4020012
  21.9230012 132.3394997  -5.1020012  22.1409804 132.6167698  -5.8980160
  24.7560012 132.1904997  -6.9210012  23.8910012 132.2624997  -6.5170012
  24.7010012 132.7374997  -7.7050012  24.6302085 132.2742685  -6.9716638
  29.4660012 132.0784997  -7.7460012  29.0100012 132.6074997  -8.4000012
  29.6290012 132.6814997  -7.0200012  29.4255585 132.2324468  -7.7374938
  31.7940012 130.9564997  -6.8010012  30.8890012 131.1214997  -7.0660012
  32.2230012 131.8094997  -6.8660012  31.7280799 131.0944483  -6.8460818
  34.3980012 132.5264997  -6.5060012  34.2160012 133.4424997  -6.7160012
  34.5750012 132.1164997  -7.3520012  34.3970210 132.5964822  -6.6492115
  21.7030012 131.2134997  -9.0410012  21.6850012 130.7884997  -8.1830012
  22.5080012 130.8954997  -9.4490012  21.8093875 131.1123812  -8.9788345
  23.8450012 129.9234997 -10.3860012  23.6260012 129.0074997 -10.2160012
  24.6690012 130.0634997  -9.9200012  23.9264420 129.8170520 -10.2997226
  26.3820012 130.3934997  -9.5370012  26.5950012 129.5054997  -9.8240012
  26.4460012 130.3594997  -8.5830012  26.4198232 130.2673102  -9.4472603
  29.8900012 116.0574997 -10.3930012  29.2160012 115.4284997 -10.1370012
  30.4540012 115.5734997 -10.9960012  29.8739230 115.9058744 -10.4394660
  35.0330012 114.1654997 -10.2800012  35.6370012 114.7124997 -10.7820012
  34.1630012 114.4844997 -10.5200012  34.9981241 114.2835806 -10.3812346
  36.7600012 115.3034997 -11.9470012  37.3720012 114.7894997 -12.4730012
  37.1420012 116.1814997 -11.9230012  36.8954540 115.3517140 -12.0158170
  22.2170012 114.6914997 -12.5710012  21.4400012 114.4574997 -13.0780012
  22.7470012 113.8944997 -12.5620012  22.1822330 114.5516988 -12.6392258
  21.0530012 114.4894997 -16.7670012  21.4920012 115.1004997 -17.3590012
  20.4200012 115.0274997 -16.2930012  21.0274514 114.6459257 -16.7839070
  26.7960012 114.6184997 -12.7570012  27.6710012 115.0064997 -12.7870012
  26.6600012 114.4034997 -11.8350012  26.8973695 114.6425184 -12.6363560
  32.3530012 114.6484997 -11.1080012  32.4290012 114.7434997 -12.0580012
  32.0780012 113.7404997 -10.9790012  32.3262321 114.5387867 -11.2204921
  33.7060012 114.6744997 -15.4160012  33.0040012 115.2894997 -15.6250012
  33.2620012 113.8364997 -15.2850012  33.5496330 114.6455783 -15.4269672
  20.9540012 130.4374997 -15.8690012  20.2690012 130.3994997 -16.5370012
  20.9580012 131.3504997 -15.5810012  20.8608193 130.5557016 -15.9214716
  22.9140012 116.4054997 -18.3250012  23.4060012 115.7754997 -18.8520012
  23.5380012 116.7014997 -17.6610012  23.0655446 116.3593199 -18.3074020
  27.9400012 116.6984997 -15.8680012  28.1180012 116.0524997 -15.1850012
  27.8870012 117.5324997 -15.4000012  27.9571829 116.7227985 -15.7114060
  29.8190012 131.6474997 -17.4720012  30.6850012 132.0134997 -17.6500012
  29.5720012 131.2074997 -18.2860012  29.9042392 131.6381756 -17.6063711
  36.5280012 131.2104997 -14.7930012  36.3330012 130.4624997 -15.3580012
  36.4890012 131.9684997 -15.3760012  36.4960380 131.2106099 -14.9491616
  22.1750012 115.2054997  -3.0530012  21.8090012 114.4404997  -2.6100012
  23.0880012 115.2344997  -2.7660012  22.2482790 115.1047224  -2.9535930
  24.1480012 114.5564997  -1.5170012  25.0460012 114.2824997  -1.7020012
  23.7610012 113.8134997  -1.0530012  24.2186612 114.4185914  -1.4796357
  22.7720012 131.3574997 -18.8440012  22.5050012 131.6444997 -17.9710012
  23.5440012 130.8114997 -18.6920012  22.8397488 131.3230294 -18.7038950
  32.5690012 113.8884997  -1.3350012  32.6460012 113.4624997  -0.4810012
  33.4630012 113.9024997  -1.6780012  32.7003428 113.8320879  -1.2644690
  35.7450012 129.9614997  -2.6430012  34.9630012 129.7754997  -3.1620012
  35.6730012 130.8904997  -2.4250012  35.6281777 130.0616492  -2.6845952
  50.1510012 123.8474997 -12.6120012  50.2400012 124.7914997 -12.7440012
  49.5130012 123.5724997 -13.2700012  50.0769081 123.9394830 -12.7190386
  49.0840012 123.1024997  -9.1930012  49.0460012 122.4564997  -8.4880012
  48.7620012 122.6364997  -9.9640012  49.0352333 122.9509408  -9.2007022
  41.4530012 122.7174997  -7.6000012  41.4940012 122.0914997  -6.8770012
  42.1560012 123.3414997  -7.4180012  41.5536363 122.7161196  -7.4763956
  52.7900012 126.0414997 -10.8920012  52.3500012 125.3214997 -10.4410012
  52.7770012 126.7624997 -10.2620012  52.7280226 126.0403731 -10.7451506
  42.3760012 127.1674997  -9.0650012  42.0070012 126.3654997  -9.4350012
  43.3170012 126.9984997  -9.0190012  42.4527289 127.0350153  -9.1093684
  38.9860012 120.8274997 -13.6720012  38.5390012 121.6734997 -13.6910012
  38.4250012 120.2474997 -14.1880012  38.8489900 120.8649916 -13.7443199
  39.6970012 122.9894997 -11.5460012  39.9100012 122.2194997 -11.0190012
  40.4350012 123.0784997 -12.1500012  39.8258496 122.8961394 -11.5554700
  49.9020012 131.1464997 -10.6790012  50.5220012 130.4694997 -10.9530012
  49.6940012 130.9284997  -9.7710012  49.9586904 131.0243870 -10.5936635
  47.4740012 125.5354997  -8.7870012  47.7780012 124.8494997  -9.3820012
  48.1950012 125.6534997  -8.1690012  47.6130671 125.4576305  -8.7848184
  56.1370012 117.1364997  -7.9260012  56.1860012 117.7464997  -7.1900012
  56.5620012 117.5974997  -8.6490012  56.2011824 117.2823741  -7.9229795
  50.6150012 119.9294997  -8.4590012  50.7570012 118.9834997  -8.4390012
  50.5080012 120.1364997  -9.3880012  50.6199864 119.8279534  -8.5817661
  43.7690012 118.0304997 -11.1870012  43.8130012 118.8904997 -11.6050012
  43.3120012 117.4784997 -11.8210012  43.7132185 118.0735799 -11.3299701
  51.4920012 118.1614997 -12.7860012  52.1380012 117.8324997 -12.1610012
  52.0020012 118.6794997 -13.4090012  51.6494264 118.1864611 -12.7846138
  40.3900012 120.4274997 -10.4250012  41.0430012 119.8774997  -9.9930012
  40.4140012 120.1534997 -11.3420012  40.4826683 120.3151466 -10.4897877
  45.5460012 121.9774997 -11.2100012  46.1620012 121.4514997 -10.7000012
  44.9600012 121.3374997 -11.6130012  45.5510810 121.8189208 -11.1946827
  56.5280012 118.6144997  -5.6900012  55.8400012 119.2724997  -5.7860012
  56.5440012 118.4174997  -4.7540012  56.4358525 118.6780462  -5.5765192
  42.5800012 116.9484997  -7.1130012  42.3610012 117.4784997  -7.8790012
  41.9120012 117.1754997  -6.4660012  42.4597600 117.0516906  -7.1303621
  49.9490012 126.4484997 -13.5690012  49.6530012 126.1264997 -14.4200012
  49.6240012 127.3484997 -13.5280012  49.8646371 126.5260215 -13.6798199
  45.1490012 124.6244997  -6.8260012  44.4090012 125.2224997  -6.7220012
  45.8630012 125.1784997  -7.1410012  45.1442237 124.7812831  -6.8543535
  53.2560012 117.4524997 -10.8060012  53.0400012 116.6864997 -10.2730012
  53.9110012 117.9244997 -10.2930012  53.3150632 117.4115889 -10.6637139
  42.1730012 118.8404997  -9.1610012  42.7870012 119.4734997  -8.7870012
  42.6850012 118.3684997  -9.8170012  42.3262296 118.8632370  -9.1985748
  43.5560012 126.5884997  -6.0380012  43.5510012 127.4684997  -6.4160012
  42.7030012 126.5054997  -5.6130012  43.4399464 126.6976117  -6.0322093
  39.6770012 126.2594997 -15.2560012  39.4050012 126.4884997 -16.1450012
  39.7230012 127.0974997 -14.7960012  39.6460094 126.4041213 -15.3154303
  53.3020012 127.8814997  -8.5440012  52.3610012 127.9394997  -8.3820012
  53.5790012 128.7874997  -8.6810012  53.2104679 128.0119443  -8.5403185
  53.6030012 116.1674997  -7.1260012  52.8670012 116.7784997  -7.1640012
  54.2860012 116.5824997  -7.6530012  53.5946541 116.3071374  -7.2024168
  46.6060012 114.2544997  -9.6600012  46.4890012 113.3054997  -9.7150012
  45.7510012 114.5864997  -9.3870012  46.4743733 114.1695409  -9.6306103
  51.5540012 129.6624997 -11.9180012  51.9800012 128.9554997 -12.4030012
  51.8710012 130.4634997 -12.3350012  51.6551019 129.6740994 -12.0406870
  52.7140012 127.5634997 -13.4100012  52.4560012 126.8734997 -14.0210012
  52.7850012 127.1204997 -12.5640012  52.6882856 127.4092124 -13.3793115
  54.4000012 126.1294997  -4.9320012  54.5400012 125.5384997  -5.6720012
  54.5670012 127.0024997  -5.2890012  54.4416778 126.1666426  -5.0813035
  48.8730012 123.0914997 -15.1600012  48.1610012 123.6264997 -15.5120012
  49.5640012 123.1474997 -15.8200012  48.8690132 123.1722543 -15.2973711
  48.9260012 121.5494997 -18.1210012  49.6270012 121.5714997 -17.4700012
  49.2290012 120.9214997 -18.7770012  49.0627830 121.4676566 -18.1206289
  56.2420012 122.4694997  -6.8660012  55.5890012 123.1644997  -6.7770012
  56.7070012 122.6794997  -7.6760012  56.2155390 122.5929425  -6.9633117
  52.2780012 123.3014997 -14.2080012  51.5460012 123.5294997 -13.6350012
  52.7260012 122.5874997 -13.7530012  52.2383095 123.2362571 -14.0680881
  52.1760012 121.4754997  -5.1410012  52.2560012 122.2384997  -4.5690012
  51.5740012 121.7544997  -5.8310012  52.1055756 121.6177134  -5.1559411
  43.9240012 123.9314997 -12.3260012  43.5930012 123.5614997 -13.1440012
  44.5120012 123.2614997 -11.9790012  43.9581873 123.7901156 -12.3911898
  45.2900012 127.3594997  -9.6440012  45.1960012 126.7814997 -10.4010012
  46.0200012 126.9884997  -9.1480012  45.3757981 127.2302390  -9.6805835
  44.2900012 122.7004997  -8.6920012  44.8560012 122.8214997  -9.4550012
  44.6090012 123.3374997  -8.0530012  44.4105786 122.8031884  -8.7099960
  50.5990012 128.2034997  -7.9580012  50.3590012 128.8654997  -7.3100012
  50.4010012 127.3694997  -7.5330012  50.5393808 128.1813134  -7.8118476
  45.1700012 127.0994997  -3.9750012  44.8590012 127.8814997  -3.5200012
  44.5200012 126.9464997  -4.6610012  45.0395558 127.1859105  -4.0054129
  51.1490012 122.4634997 -16.5230012  51.7290012 122.6134997 -15.7760012
  51.5630012 122.9344997 -17.2460012  51.2842830 122.5476841 -16.5185866
  42.0900012 123.2974997  -4.7460012  42.1610012 123.9484997  -4.0480012
  41.2000012 123.4004997  -5.0810012  41.9793117 123.4005936  -4.6957300
  48.8760012 129.2004997 -13.0880012  49.3500012 129.4954997 -12.3100012
  48.3130012 129.9384997 -13.3210012  48.8647653 129.3406932 -13.0129864
  43.4100012 129.1714997  -3.2120012  43.4170012 129.0354997  -4.1590012
  42.4940012 129.0534997  -2.9600012  43.2871714 129.1369430  -3.3075334
  54.8480012 114.2134997 -16.7100012  53.9480012 114.3524997 -16.4150012
  55.1000012 115.0444997 -17.1120012  54.7588702 114.3449074 -16.7239795
  42.9140012 123.0014997 -14.7360012  42.6220012 123.7694997 -15.2270012
  42.2400012 122.3414997 -14.8990012  42.7829081 123.0174406 -14.8252660
  56.0370012 128.5794997 -18.3340012  56.1110012 129.5184997 -18.1630012
  56.9430012 128.2744997 -18.3900012  56.1695100 128.6666722 -18.3181881
  39.0070012 125.3644997  -5.9210012  38.5060012 125.3364997  -6.7360012
  39.0120012 124.4584997  -5.6120012  38.9391526 125.2382278  -5.9907128
  38.7570012 128.1444997  -9.0370012  39.7030012 128.0004997  -9.0560012
  38.6450012 128.9284997  -8.5000012  38.8712727 128.2308046  -8.9669928
  56.9550012 128.8104997  -3.3550012  56.9060012 127.8554997  -3.3920012
  56.1280012 129.0784997  -2.9540012  56.8364940 128.7158998  -3.3058625
  47.9340012 128.3844997  -4.4790012  48.0210012 129.2104997  -4.0040012
  47.0700012 128.0544997  -4.2300012  47.8291964 128.4529878  -4.3803451
  48.3480012 132.1564997 -14.6730012  48.2730012 132.0354997 -15.6190012
  48.3810012 133.1064997 -14.5540012  48.3421848 132.2682500 -14.7865166
  42.0010012 130.9454997 -12.8920012  42.1540012 130.5974997 -12.0130012
  41.1510012 130.5894997 -13.1470012  41.9068962 130.8496650 -12.8061660
  51.4500012 131.3104997 -17.6710012  51.8250012 130.5664997 -18.1410012
  51.4540012 131.0404997 -16.7520012  51.5018915 131.1721486 -17.6112176
  51.1190012 131.2364997 -14.9210012  50.1830012 131.3364997 -14.7430012
  51.3990012 130.5274997 -14.3430012  51.0288255 131.1542711 -14.8184609
  54.1070012 120.3034997  -2.8750012  53.7000012 120.7844997  -3.5960012
  54.1480012 119.3984997  -3.1830012  54.0568437 120.2469374  -3.0153317
  41.2560012 126.6874997  -4.8780012  41.4720012 126.3264997  -4.0190012
  40.4010012 126.3134997  -5.0880012  41.1699292 126.5874111  -4.7886614
  43.8750012 115.1574997  -8.8830012  43.0130012 115.0704997  -9.2900012
  43.8520012 116.0134997  -8.4550012  43.7540330 115.2612765  -8.8808137
  48.5380012 114.8794997  -5.5080012  48.9580012 114.4644997  -4.7550012
  47.6050012 114.7014997  -5.3910012  48.4693644 114.7985900  -5.3890461
  51.8640012 118.6354997  -4.6550012  51.3500012 118.5094997  -3.8570012
  51.7090012 119.5474997  -4.8990012  51.7726852 118.7416132  -4.5787842
  52.6270012 123.4964997 -18.8930012  52.6690012 123.2734997 -19.8230012
  53.4760012 123.8954997 -18.7030012  52.7475396 123.5199155 -18.9946373
  48.1990012 117.3724997 -18.2230012  47.9460012 117.3914997 -17.3000012
  47.9430012 116.5004997 -18.5240012  48.1297790 117.2572437 -18.1373737
  43.9660012 120.1234997  -7.7880012  43.3240012 120.0824997  -7.0790012
  44.0030012 121.0494997  -8.0250012  43.8831324 120.2431559  -7.7230176
  43.9630012 120.3444997 -12.8760012  43.0700012 120.0034997 -12.9340012
  44.4130012 119.9674997 -13.6310012  43.9017305 120.2468484 -12.9860823
  49.4980012 120.7604997 -14.0590012  49.0890012 121.5754997 -14.3500012
  50.2190012 120.6204997 -14.6730012  49.5394537 120.8532018 -14.1818658
  48.6000012 120.9354997  -2.5710012  48.0380012 120.2314997  -2.2500012
  49.4270012 120.8154997  -2.1030012  48.6347095 120.8227883  -2.4637670
  50.5030012 120.2064997 -11.2450012  50.3080012 120.8114997 -11.9600012
  50.6840012 119.3724997 -11.6790012  50.5007614 120.1766300 -11.4015595
  41.7160012 120.4434997  -5.9210012  41.6780012 120.8434997  -5.0520012
  41.2250012 119.6264997  -5.8300012  41.6444684 120.3878069  -5.7898941
  45.0820012 117.8174997 -19.1220012  44.6510012 117.3724997 -18.3920012
  44.3640012 118.1894997 -19.6340012  44.9259438 117.8068940 -19.0913201
  38.3240012 117.5594997 -12.0700012  38.9550012 117.5304997 -11.3510012
  38.7730012 117.1344997 -12.8000012  38.4710774 117.4980492 -12.0703447
  39.5980012 118.3054997 -16.6460012  40.0720012 118.8964997 -17.2310012
  38.8810012 118.8364997 -16.2990012  39.5659341 118.4580867 -16.6791164
  49.7670012 121.8444997  -6.5730012  50.0900012 121.2134997  -7.2160012
  49.3270012 121.3094997  -5.9130012  49.7516895 121.6858441  -6.5717150
  46.5440012 117.7714997 -11.7890012  45.6330012 117.8284997 -11.5010012
  47.0500012 117.7114997 -10.9790012  46.4875413 117.7711985 -11.6399378
  41.3730012 119.4004997 -12.9630012  40.4830012 119.5004997 -13.3030012
  41.6690012 118.5584997 -13.3090012  41.2912823 119.3003546 -13.0562787
  45.0260012 119.4004997 -15.3060012  45.9570012 119.5294997 -15.1280012
  44.8110012 120.0704997 -15.9560012  45.1244247 119.5086565 -15.3694253
  50.9490012 117.0064997  -8.5250012  50.2730012 117.1374997  -7.8610012
  50.4640012 116.8514997  -9.3350012  50.7907145 117.0034905  -8.5435483
  43.7000012 120.5954997 -17.7390012  43.1570012 120.2154997 -18.4310012
  44.5330012 120.7894997 -18.1680012  43.7384399 120.5698124 -17.8915474
  54.2370012 132.6784997  -2.2480012  54.4370012 133.1024997  -3.0830012
  54.8920012 133.0214997  -1.6410012  54.3530051 132.7829648  -2.2802164
  41.8350012 125.1524997  -2.6400012  42.5670012 125.4064997  -2.0790012
  41.0550012 125.3564997  -2.1250012  41.8298232 125.2149177  -2.4934240
  47.8640012 120.5594997  -9.9020012  48.4290012 120.0124997 -10.4490012
  47.7170012 120.0374997  -9.1140012  47.9212918 120.4142024  -9.8701546
  42.8660012 116.6954997 -13.4840012  42.5490012 115.7934997 -13.5190012
  43.6480012 116.6974997 -14.0370012  42.9282284 116.5721628 -13.5635217
  46.4910012 118.9474997  -7.4880012  45.6550012 119.4014997  -7.3780012
  47.0150012 119.2234997  -6.7360012  46.4474414 119.0469376  -7.3712864
  47.0350012 125.1604997 -15.8040012  46.2900012 124.6534997 -16.1260012
  46.9010012 125.2094997 -14.8570012  46.9148776 125.0976940 -15.7201353
  54.1850012 124.2934997  -7.0170012  54.8270012 124.7504997  -7.5610012
  53.3550012 124.4064997  -7.4800012  54.1605963 124.3712704  -7.1539823
  50.9330012 117.9744997 -17.6040012  49.9940012 118.0864997 -17.7560012
  51.2300012 118.8314997 -17.2980012  50.8447666 118.1056443 -17.5834232
  48.5540012 125.3444997  -4.5670012  48.2090012 124.9634997  -3.7600012
  48.3540012 126.2784997  -4.4950012  48.4798061 125.4185228  -4.4469039
  51.6510012 119.8414997 -15.9440012  52.5430012 119.7044997 -15.6250012
  51.7080012 120.6324997 -16.4800012  51.7806285 119.9296660 -15.9728309
  42.1600012 124.4554997 -10.0340012  42.9050012 124.4534997 -10.6350012
  42.2380012 123.6324997  -9.5520012  42.2725518 124.3439315 -10.0511071
  49.1610012 126.6194997 -16.7780012  48.8650012 127.4454997 -16.3970012
  48.4580012 125.9994997 -16.5820012  49.0254914 126.6488199 -16.6993557
  39.1680012 122.9164997  -4.7190012  39.3910012 122.4984997  -3.8870012
  38.5660012 122.3034997  -5.1420012  39.1171759 122.7764668  -4.6622978
  46.1840012 122.4334997  -2.5060012  45.8880012 122.2674997  -3.4010012
  47.1160012 122.2134997  -2.5170012  46.2694166 122.3810640  -2.6299464
  50.8050012 127.8064997  -4.6160012  49.9040012 127.9894997  -4.8840012
  50.8390012 128.0654997  -3.6950012  50.6863041 127.8665512  -4.5281803
  56.5360012 120.0514997 -16.2490012  55.9820012 119.6554997 -16.9210012
  56.6360012 120.9614997 -16.5270012  56.4737059 120.1203586 -16.3785599
  56.4990012 125.8514997  -3.4120012  55.6480012 126.0894997  -3.7790012
  57.0900012 125.8344997  -4.1650012  56.4622487 125.8818258  -3.5641107
  54.8310012 128.8374997 -15.7840012  54.4580012 128.0114997 -15.4750012
  55.1090012 128.6544997 -16.6810012  54.8175630 128.6997303 -15.8630374
  51.9920012 123.6454997  -8.7630012  51.0630012 123.4134997  -8.7900012
  52.4430012 122.8684997  -9.0930012  51.9259216 123.5087238  -8.8113083
  44.5350012 127.9734997 -12.6300012  45.0620012 128.7464997 -12.8300012
  43.6550012 128.1984997 -12.9310012  44.4881773 128.1098005 -12.6980990
  40.2900012 122.8354997 -18.0430012  40.9060012 123.4624997 -17.6630012
  39.4280012 123.1514997 -17.7710012  40.2577698 122.9639430 -17.9542817
  45.9620012 125.6364997 -13.0530012  45.7210012 126.5614997 -13.0120012
  45.2210012 125.1774997 -12.6570012  45.8288409 125.7011421 -12.9938623
  46.4770012 129.7854997  -6.7380012  46.8390012 130.6404997  -6.9720012
  47.0080012 129.4934997  -5.9980012  46.5984473 129.8631060  -6.6699145
  44.6450012 130.6584997 -13.5080012  43.6950012 130.7634997 -13.4570012
  44.9970012 131.4784997 -13.1630012  44.5624203 130.7838314 -13.4543350
  50.0210012 125.8844997  -7.0380012  49.5950012 125.6574997  -6.2110012
  50.6010012 125.1464997  -7.2200012  50.0411868 125.7535299  -6.9494170
  52.2240012 126.8134997 -17.9640012  52.5770012 126.4334997 -17.1590012
  51.2750012 126.7204997 -17.8770012  52.1440441 126.7489596 -17.8421441
  52.6790012 130.4364997  -4.5680012  52.0780012 129.8814997  -5.0640012
  52.9610012 131.1034997  -5.1940012  52.6348519 130.4506841  -4.7205048
  56.7270012 131.2934997 -17.7630012  57.4710012 131.8794997 -17.9030012
  56.0330012 131.8614997 -17.4290012  56.7350292 131.4505582 -17.7370039
  40.8020012 117.6694997  -5.1610012  39.9090012 118.0084997  -5.2290012
  40.7030012 116.8144997  -4.7430012  40.6664164 117.6002588  -5.1137765
  53.0900012 125.4864997 -15.7370012  52.8120012 124.7584997 -15.1810012
  54.0170012 125.6054997 -15.5320012  53.1773124 125.4028802 -15.6331155
  40.4530012 129.4744997  -6.7260012  40.6700012 128.5424997  -6.7570012
  40.6990012 129.7484997  -5.8430012  40.5159549 129.3840636  -6.6108237
  46.3150012 127.9254997 -19.5170012  46.5540012 127.1774997 -20.0640012
  46.0460012 127.5374997 -18.6840012  46.3113675 127.7706638 -19.4793135
  45.2520012 127.4954997 -17.0600012  45.3980012 126.9754997 -16.2700012
  45.2490012 128.4024997 -16.7540012  45.2715989 127.5468853 -16.9103912
  41.7050012 124.7484997 -16.5500012  41.0190012 125.1004997 -15.9830012
  42.2270012 125.5114997 -16.7970012  41.6816852 124.8998578 -16.5057882
  49.5360012 117.4104997  -6.2710012  50.2350012 117.4844997  -5.6210012
  49.1550012 116.5464997  -6.1170012  49.5801767 117.3037624  -6.1611678
  50.3210012 117.0624997 -15.1740012  50.5410012 117.5344997 -15.9770012
  50.8790012 117.4574997 -14.5040012  50.4264968 117.1804285 -15.1932669
  47.9890012 129.1934997 -16.3110012  47.1730012 129.6904997 -16.2590012
  48.5190012 129.6684997 -16.9510012  47.9489161 129.3257722 -16.3904044
  47.5210012 118.7904997 -14.3390012  48.3330012 119.2954997 -14.2930012
  47.2760012 118.6454997 -13.4250012  47.5990520 118.8400375 -14.2091483
  48.0560012 119.7764997  -5.1540012  48.1750012 120.3504997  -4.3970012
  48.7120012 119.0884997  -5.0400012  48.1609757 119.7621079  -5.0349175
  48.4040012 115.8714997 -13.4010012  48.0580012 116.4894997 -12.7560012
  49.0630012 116.3724997 -13.8820012  48.4457826 116.0235802 -13.3779029
  45.3280012 130.2374997 -16.3290012  45.4880012 131.0364997 -16.8300012
  45.1300012 130.5434997 -15.4440012  45.3231649 130.3884469 -16.2780185
  44.0620012 116.9344997 -16.7140012  43.9790012 117.8234997 -16.3670012
  44.9520012 116.6694997 -16.4820012  44.1709469 117.0201430 -16.6352374
  54.2610012 117.6834997  -4.3190012  53.3440012 117.9464997  -4.4070012
  54.5960012 117.6804997  -5.2160012  54.1809900 117.7190224  -4.4522081
  52.8630012 121.4344997 -10.2240012  52.0650012 121.0194997 -10.5520012
  53.3080012 120.7434997  -9.7330012  52.8139885 121.2843543 -10.2025111
  42.3210012 127.3624997 -17.6530012  42.9130012 128.0614997 -17.3770012
  42.7800012 126.9294997 -18.3730012  42.4641142 127.3997049 -17.7125170
  40.6370012 120.0264997 -18.5370012  40.5920012 120.9654997 -18.3590012
  39.7490012 119.7904997 -18.8070012  40.5108574 120.1231892 -18.5491088
  53.9490012 130.6904997  -8.6010012  53.7940012 131.3684997  -9.2580012
  54.8820012 130.7624997  -8.3980012  54.0538500 130.7930170  -8.6634881
  41.4450012 114.8084997  -9.8640012  41.2160012 114.8674997 -10.7920012
  41.0020012 114.0164997  -9.5580012  41.3538530 114.7095753  -9.9495214
  40.3750012 128.7484997 -13.7040012  39.5430012 129.2214997 -13.6760012
  40.9210012 129.2584997 -14.3020012  40.3349739 128.8821871 -13.7810284
  39.6630012 131.3614997  -2.3740012  40.2040012 131.1444997  -1.6140012
  39.1820012 130.5554997  -2.5630012  39.6719345 131.2229514  -2.2956924
  44.2610012 130.2804997  -0.7530012  45.0280012 129.8214997  -0.4120012
  44.2390012 130.0544997  -1.6830012  44.3631434 130.1870409  -0.8319957
  48.3530012 129.7884997 -19.3780012  47.7090012 129.1574997 -19.0570012
  49.1150012 129.2574997 -19.6100012  48.3678077 129.6302920 -19.3653989
  50.8380012 128.6604997  -2.0240012  50.4870012 127.8044997  -1.7810012
  51.5640012 128.8034997  -1.4170012  50.8880769 128.5625636  -1.9086381
  52.9570012 129.6054997 -19.1440012  53.2400012 128.8114997 -18.6920012
  53.6970012 129.8384997 -19.7050012  53.0957486 129.5282803 -19.1579302
  39.5700012 125.1714997  -1.4190012  39.7140012 124.2694997  -1.7060012
  38.7980012 125.4574997  -1.9070012  39.4853322 125.0868261  -1.5242119
  43.9120012 125.5154997 -19.2870012  43.9760012 124.7214997 -18.7560012
  44.5650012 125.3964997 -19.9770012  44.0090241 125.3907148 -19.3075683
  46.2260012 125.1414997  -1.9870012  45.8970012 125.4124997  -2.8440012
  46.3780012 124.2004997  -2.0740012  46.2014809 125.0513862  -2.1161756
  51.9600012 125.0574997  -4.6030012  52.7060012 125.6454997  -4.7230012
  51.2030012 125.6394997  -4.5400012  51.9597554 125.2167011  -4.6109093
  40.4030012 122.3714997  -1.9990012  40.8110012 121.5144997  -2.1200012
  40.1430012 122.3864997  -1.0780012  40.4237568 122.2560807  -1.8910412
  45.0610012 123.4874997 -16.9810012  44.6010012 123.0034997 -16.2950012
  45.3160012 122.8194997 -17.6170012  45.0324902 123.3308731 -16.9730666
  44.3500012 121.3804997  -4.6250012  43.7320012 122.0554997  -4.3450012
  44.6940012 121.7014997  -5.4580012  44.3119615 121.5162721  -4.6993419
  46.1320012 121.7304997 -18.7190012  45.9520012 121.5764997 -19.6460012
  47.0820012 121.8384997 -18.6740012  46.2357776 121.7240175 -18.8398157
  49.3700012 123.8524997  -1.3480012  50.3230012 123.9354997  -1.3750012
  49.2090012 123.1404997  -0.7280012  49.4786426 123.7676746  -1.2679421
  55.5220012 124.0854997 -19.2730012  55.2480012 123.6604997 -20.0860012
  55.5610012 125.0164997 -19.4900012  55.4897699 124.1532484 -19.4136390
  44.6890012 118.7354997  -3.5430012  44.8390012 118.0064997  -4.1450012
  44.6920012 119.5124997  -4.1020012  44.7099302 118.7407851  -3.7009308
  45.1020012 117.1054997  -6.0500012  45.6380012 117.5564997  -6.7020012
  44.2500012 116.9974997  -6.4730012  45.0602178 117.1526390  -6.1964244
  46.6840012 122.5444997  -5.8110012  47.4340012 122.3884997  -6.3840012
  46.3450012 123.3964997  -6.0860012  46.7408921 122.6382968  -5.9266439
  51.0990012 120.3594997  -0.7820012  51.2920012 119.4284997  -0.8940012
  51.9570012 120.7844997  -0.7920012  51.2413020 120.2896389  -0.7986639
  52.4160012 123.1484997  -2.7050012  52.1350012 123.8574997  -3.2820012
  53.3590012 123.0754997  -2.8560012  52.5049027 123.2357646  -2.8044449
  43.1680012 119.9334997  -1.6310012  42.4010012 119.4014997  -1.8410012
  43.8470012 119.6234997  -2.2310012  43.1547022 119.8187506  -1.7408352
  45.9080012 114.5614997  -5.6190012  45.8090012 115.5084997  -5.7240012
  45.1650012 114.1894997  -6.0940012  45.7940564 114.6405902  -5.6975440
  47.1720012 118.8834997  -2.0550012  46.9360012 118.6634997  -1.1530012
  46.3880012 118.6764997  -2.5650012  47.0338628 118.8254760  -2.0006068
  49.8870012 118.0104997  -2.9790012  48.9400012 118.0424997  -2.8470012
  50.2000012 117.3854997  -2.3260012  49.7995475 117.9303207  -2.8725545
  51.5210012 116.6444997  -0.9740012  51.4250012 115.6924997  -0.9800012
  51.2000012 116.9134997  -0.1140012  51.4644070 116.5504035  -0.8584559
  41.3480012 117.8544997  -1.9270012  41.5600012 117.1474997  -2.5370012
  41.2370012 117.4164997  -1.0830012  41.3619721 117.6987084  -1.8963157
  46.1290012 113.8554997  -2.9470012  46.8410012 113.2154997  -2.9610012
  46.0280012 114.1224997  -3.8610012  46.2127939 113.8039938  -3.0724350
  46.4830012 115.5384997  -0.8940012  46.3510012 115.0624997  -1.7140012
  45.8840012 116.2824997  -0.9490012  46.3839071 115.5739618  -1.0137114
  46.0290012 132.4214997 -17.7170012  46.9620012 132.5794997 -17.5740012
  45.7650012 133.0964997 -18.3420012  46.1209510 132.5343611 -17.7819259
  39.5980012 127.0574997 -18.2350012  40.5120012 127.1364997 -17.9610012
  39.6050012 126.3704997 -18.9010012  39.7241131 126.9753961 -18.2875607
  38.2470012 132.4504997 -13.1570012  37.6000012 131.9884997 -13.6900012
  38.6010012 131.7784997 -12.5750012  38.2063849 132.2964723 -13.1512041
  39.1170012 130.5314997 -11.3530012  38.7820012 129.6514997 -11.1810012
  39.3390012 130.8764997 -10.4880012  39.1011783 130.4577501 -11.2125792
  56.6650012 131.3404997  -8.3720012  56.6440012 131.5254997  -7.4330012
  57.3560012 131.9094997  -8.7130012  56.7554618 131.4426606  -8.2896136
  56.2290012 130.9084997  -5.4500012  55.7410012 130.1724997  -5.8210012
  56.7780012 130.5144997  -4.7720012  56.2364872 130.7546249  -5.4090840
  54.6790012 126.6974997  -0.8120012  53.8130012 126.5924997  -0.4180012
  55.0560012 127.4564997  -0.3660012  54.6113308 126.7856900  -0.6977607
  55.9800012 124.9544997 -15.2980012  56.8300012 125.3754997 -15.1710012
  55.9860012 124.2144997 -14.6910012  56.0971372 124.9120803 -15.1985656
  56.3750012 123.0074997 -13.4740012  55.6480012 122.5284997 -13.0770012
  56.9560012 123.2134997 -12.7420012  56.3539375 122.9697090 -13.3205871
  56.1340012 125.7924997  -8.5270012  56.9670012 125.4144997  -8.8070012
  56.2460012 126.7354997  -8.6460012  56.2632647 125.8682218  -8.5814513
  54.6200012 128.6704997  -6.2200012  53.9730012 128.9954997  -5.5940012
  54.1030012 128.2304997  -6.8940012  54.4614029 128.6555004  -6.2254173
  56.6430012 122.9084997 -17.0830012  56.1210012 123.2654997 -17.8020012
  56.6100012 123.5834997 -16.4050012  56.5671634 123.0485413 -17.0896855
  54.9920012 120.1484997 -18.5320012  55.0880012 120.8154997 -19.2130012
  54.8520012 119.3324997 -19.0140012  54.9862135 120.1294500 -18.6901509
  54.1610012 121.5284997 -12.9110012  54.0110012 120.5834997 -12.9320012
  53.8080012 121.8094997 -12.0680012  54.0926625 121.4370441 -12.7997654
  39.1970012 123.6064997  -8.9010012  39.3810012 123.5244997  -9.8370012
  40.0460012 123.4824997  -8.4770012  39.3370139 123.5785003  -8.9718545
  55.0180012 123.4984997  -3.2730012  55.6010012 122.7644997  -3.0810012
  55.5820012 124.2704997  -3.2260012  55.1739769 123.5024227  -3.2403841
  56.5140012 121.4014997  -2.5880012  55.6510012 121.0224997  -2.7540012
  57.1190012 120.6624997  -2.6620012  56.4775979 121.2498023  -2.6207183
  54.2390012 117.5564997 -19.4150012  54.8500012 117.1854997 -18.7780012
  53.4030012 117.1354997 -19.2190012  54.2095032 117.4487554 -19.3012965
  53.8720012 119.1114997 -14.4490012  54.1520012 118.2044997 -14.3250012
  54.6310012 119.5454997 -14.8380012  54.0129277 119.0460942 -14.4846318
  54.4840012 119.6924997  -9.0130012  55.4170012 119.9044997  -9.0470012
  54.2490012 119.7944997  -8.0910012  54.5798036 119.7352769  -8.8930024
  54.5130012 120.4294997  -6.2370012  53.6700012 120.6974997  -5.8710012
  54.9550012 121.2514997  -6.4480012  54.4574158 120.5773291  -6.2154509
  38.7940012 118.8774997  -2.7600012  39.7140012 118.7554997  -2.5240012
  38.3450012 118.1274997  -2.3710012  38.8591580 118.7593727  -2.6750994
  56.7960012 114.4094997  -0.8840012  57.1460012 113.7554997  -1.4890012
  56.9430012 115.2464997  -1.3230012  56.8638419 114.4331591  -1.0262882
  54.4850012 116.3744997 -14.4010012  54.6680012 115.9254997 -13.5750012
  53.8860012 115.7894997 -14.8640012  54.4290202 116.2339975 -14.3506725
  40.0150012 117.1894997  -9.8690012  40.4610012 116.3974997  -9.5670012
  40.4820012 117.9054997  -9.4380012  40.1390172 117.1780624  -9.7695180
  38.3190012 120.1884997  -8.8000012  38.8110012 119.9674997  -9.5910012
  38.6820012 121.0294997  -8.5190012  38.4353126 120.2718357  -8.8702469
  56.3160012 116.5184997  -2.5340012  55.3980012 116.7894997  -2.5700012
  56.4390012 115.9834997  -3.3190012  56.2071066 116.4832892  -2.6449513
  56.3520012 116.4414997 -17.8730012  56.7640012 115.7204997 -18.3480012
  57.0340012 117.1114997 -17.8140012  56.5005885 116.4332368 -17.9301085
  38.6330012 116.4464997 -14.7460012  37.7080012 116.6554997 -14.8750012
  39.0870012 116.9304997 -15.4350012  38.5677368 116.5405993 -14.8568774
  53.4040012 131.4304997 -12.8000012  54.0560012 131.0834997 -13.4080012
  53.9140012 131.9194997 -12.1540012  53.5622637 131.4490597 -12.7959764
  38.5970012 115.1844997  -6.4010012  37.9320012 114.9384997  -5.7580012
  38.1540012 115.8064997  -6.9790012  38.4460956 115.2348632  -6.3910648
  40.7890012 128.3594997  -2.2570012  39.9680012 128.5344997  -2.7170012
  40.5360012 128.2864997  -1.3360012  40.6426164 128.3735622  -2.1955077
  43.7430012 129.3344997  -5.9980012  43.3180012 130.1434997  -6.2810012
  44.6470012 129.4194997  -6.3000012  43.8070271 129.4568469  -6.0776224
  48.0540012 130.7334997  -3.0390012  48.2390012 130.3994997  -2.1610012
  48.9000012 131.0424997  -3.3610012  48.1937539 130.7296047  -2.9624395
  50.3990012 132.0194997  -3.7950012  51.0760012 131.3864997  -4.0350012
  50.7210012 132.4204997  -2.9880012  50.5351637 131.9871154  -3.7187207
  55.3160012 114.6084997  -4.7150012  54.5040012 114.9334997  -5.1030012
  55.5490012 113.8484997  -5.2480012  55.2363423 114.5502436  -4.8401747
  41.1450012 132.5904997  -5.9510012  40.4240012 133.0304997  -6.4020012
  40.7790012 132.3394997  -5.1020012  40.9969804 132.6167698  -5.8980160
  43.6120012 132.1904997  -6.9210012  42.7470012 132.2624997  -6.5170012
  43.5570012 132.7374997  -7.7050012  43.4862085 132.2742685  -6.9716638
  48.3220012 132.0784997  -7.7460012  47.8660012 132.6074997  -8.4000012
  48.4850012 132.6814997  -7.0200012  48.2815585 132.2324468  -7.7374938
  50.6500012 130.9564997  -6.8010012  49.7450012 131.1214997  -7.0660012
  51.0790012 131.8094997  -6.8660012  50.5840799 131.0944483  -6.8460818
  53.2540012 132.5264997  -6.5060012  53.0720012 133.4424997  -6.7160012
  53.4310012 132.1164997  -7.3520012  53.2530210 132.5964822  -6.6492115
  40.5590012 131.2134997  -9.0410012  40.5410012 130.7884997  -8.1830012
  41.3640012 130.8954997  -9.4490012  40.6653875 131.1123812  -8.9788345
  42.7010012 129.9234997 -10.3860012  42.4820012 129.0074997 -10.2160012
  43.5250012 130.0634997  -9.9200012  42.7824420 129.8170520 -10.2997226
  45.2380012 130.3934997  -9.5370012  45.4510012 129.5054997  -9.8240012
  45.3020012 130.3594997  -8.5830012  45.2758232 130.2673102  -9.4472603
  48.7460012 116.0574997 -10.3930012  48.0720012 115.4284997 -10.1370012
  49.3100012 115.5734997 -10.9960012  48.7299230 115.9058744 -10.4394660
  53.8890012 114.1654997 -10.2800012  54.4930012 114.7124997 -10.7820012
  53.0190012 114.4844997 -10.5200012  53.8541241 114.2835806 -10.3812346
  55.6160012 115.3034997 -11.9470012  56.2280012 114.7894997 -12.4730012
  55.9980012 116.1814997 -11.9230012  55.7514540 115.3517140 -12.0158170
  41.0730012 114.6914997 -12.5710012  40.2960012 114.4574997 -13.0780012
  41.6030012 113.8944997 -12.5620012  41.0382330 114.5516988 -12.6392258
  39.9090012 114.4894997 -16.7670012  40.3480012 115.1004997 -17.3590012
  39.2760012 115.0274997 -16.2930012  39.8834514 114.6459257 -16.7839070
  45.6520012 114.6184997 -12.7570012  46.5270012 115.0064997 -12.7870012
  45.5160012 114.4034997 -11.8350012  45.7533695 114.6425184 -12.6363560
  51.2090012 114.6484997 -11.1080012  51.2850012 114.7434997 -12.0580012
  50.9340012 113.7404997 -10.9790012  51.1822321 114.5387867 -11.2204921
  52.5620012 114.6744997 -15.4160012  51.8600012 115.2894997 -15.6250012
  52.1180012 113.8364997 -15.2850012  52.4056330 114.6455783 -15.4269672
  39.8100012 130.4374997 -15.8690012  39.1250012 130.3994997 -16.5370012
  39.8140012 131.3504997 -15.5810012  39.7168193 130.5557016 -15.9214716
  41.7700012 116.4054997 -18.3250012  42.2620012 115.7754997 -18.8520012
  42.3940012 116.7014997 -17.6610012  41.9215446 116.3593199 -18.3074020
  46.7960012 116.6984997 -15.8680012  46.9740012 116.0524997 -15.1850012
  46.7430012 117.5324997 -15.4000012  46.8131829 116.7227985 -15.7114060
  48.6750012 131.6474997 -17.4720012  49.5410012 132.0134997 -17.6500012
  48.4280012 131.2074997 -18.2860012  48.7602392 131.6381756 -17.6063711
  55.3840012 131.2104997 -14.7930012  55.1890012 130.4624997 -15.3580012
  55.3450012 131.9684997 -15.3760012  55.3520380 131.2106099 -14.9491616
  41.0310012 115.2054997  -3.0530012  40.6650012 114.4404997  -2.6100012
  41.9440012 115.2344997  -2.7660012  41.1042790 115.1047224  -2.9535930
  43.0040012 114.5564997  -1.5170012  43.9020012 114.2824997  -1.7020012
  42.6170012 113.8134997  -1.0530012  43.0746612 114.4185914  -1.4796357
  41.6280012 131.3574997 -18.8440012  41.3610012 131.6444997 -17.9710012
  42.4000012 130.8114997 -18.6920012  41.6957488 131.3230294 -18.7038950
  51.4250012 113.8884997  -1.3350012  51.5020012 113.4624997  -0.4810012
  52.3190012 113.9024997  -1.6780012  51.5563428 113.8320879  -1.2644690
  54.6010012 129.9614997  -2.6430012  53.8190012 129.7754997  -3.1620012
  54.5290012 130.8904997  -2.4250012  54.4841777 130.0616492  -2.6845952
  69.0070012 123.8474997 -12.6120012  69.0960012 124.7914997 -12.7440012
  68.3690012 123.5724997 -13.2700012  68.9329081 123.9394830 -12.7190386
  67.9400012 123.1024997  -9.1930012  67.9020012 122.4564997  -8.4880012
  67.6180012 122.6364997  -9.9640012  67.8912333 122.9509408  -9.2007022
  60.3090012 122.7174997  -7.6000012  60.3500012 122.0914997  -6.8770012
  61.0120012 123.3414997  -7.4180012  60.4096363 122.7161196  -7.4763956
  71.6460012 126.0414997 -10.8920012  71.2060012 125.3214997 -10.4410012
  71.6330012 126.7624997 -10.2620012  71.5840226 126.0403731 -10.7451506
  61.2320012 127.1674997  -9.0650012  60.8630012 126.3654997  -9.4350012
  62.1730012 126.9984997  -9.0190012  61.3087289 127.0350153  -9.1093684
  57.8420012 120.8274997 -13.6720012  57.3950012 121.6734997 -13.6910012
  57.2810012 120.2474997 -14.1880012  57.7049900 120.8649916 -13.7443199
  58.5530012 122.9894997 -11.5460012  58.7660012 122.2194997 -11.0190012
  59.2910012 123.0784997 -12.1500012  58.6818496 122.8961394 -11.5554700
  68.7580012 131.1464997 -10.6790012  69.3780012 130.4694997 -10.9530012
  68.5500012 130.9284997  -9.7710012  68.8146904 131.0243870 -10.5936635
  66.3300012 125.5354997  -8.7870012  66.6340012 124.8494997  -9.3820012
  67.0510012 125.6534997  -8.1690012  66.4690671 125.4576305  -8.7848184
  74.9930012 117.1364997  -7.9260012  75.0420012 117.7464997  -7.1900012
  75.4180012 117.5974997  -8.6490012  75.0571824 117.2823741  -7.9229795
  69.4710012 119.9294997  -8.4590012  69.6130012 118.9834997  -8.4390012
  69.3640012 120.1364997  -9.3880012  69.4759864 119.8279534  -8.5817661
  62.6250012 118.0304997 -11.1870012  62.6690012 118.8904997 -11.6050012
  62.1680012 117.4784997 -11.8210012  62.5692185 118.0735799 -11.3299701
  70.3480012 118.1614997 -12.7860012  70.9940012 117.8324997 -12.1610012
  70.8580012 118.6794997 -13.4090012  70.5054264 118.1864611 -12.7846138
  59.2460012 120.4274997 -10.4250012  59.8990012 119.8774997  -9.9930012
  59.2700012 120.1534997 -11.3420012  59.3386683 120.3151466 -10.4897877
  64.4020012 121.9774997 -11.2100012  65.0180012 121.4514997 -10.7000012
  63.8160012 121.3374997 -11.6130012  64.4070810 121.8189208 -11.1946827
  75.3840012 118.6144997  -5.6900012  74.6960012 119.2724997  -5.7860012
  75.4000012 118.4174997  -4.7540012  75.2918525 118.6780462  -5.5765192
  61.4360012 116.9484997  -7.1130012  61.2170012 117.4784997  -7.8790012
  60.7680012 117.1754997  -6.4660012  61.3157600 117.0516906  -7.1303621
  68.8050012 126.4484997 -13.5690012  68.5090012 126.1264997 -14.4200012
  68.4800012 127.3484997 -13.5280012  68.7206371 126.5260215 -13.6798199
  64.0050012 124.6244997  -6.8260012  63.2650012 125.2224997  -6.7220012
  64.7190012 125.1784997  -7.1410012  64.0002237 124.7812831  -6.8543535
  72.1120012 117.4524997 -10.8060012  71.8960012 116.6864997 -10.2730012
  72.7670012 117.9244997 -10.2930012  72.1710632 117.4115889 -10.6637139
  61.0290012 118.8404997  -9.1610012  61.6430012 119.4734997  -8.7870012
  61.5410012 118.3684997  -9.8170012  61.1822296 118.8632370  -9.1985748
  62.4120012 126.5884997  -6.0380012  62.4070012 127.4684997  -6.4160012
  61.5590012 126.5054997  -5.6130012  62.2959464 126.6976117  -6.0322093
  58.5330012 126.2594997 -15.2560012  58.2610012 126.4884997 -16.1450012
  58.5790012 127.0974997 -14.7960012  58.5020094 126.4041213 -15.3154303
  72.1580012 127.8814997  -8.5440012  71.2170012 127.9394997  -8.3820012
  72.4350012 128.7874997  -8.6810012  72.0664679 128.0119443  -8.5403185
  72.4590012 116.1674997  -7.1260012  71.7230012 116.7784997  -7.1640012
  73.1420012 116.5824997  -7.6530012  72.4506541 116.3071374  -7.2024168
  65.4620012 114.2544997  -9.6600012  65.3450012 113.3054997  -9.7150012
  64.6070012 114.5864997  -9.3870012  65.3303733 114.1695409  -9.6306103
  70.4100012 129.6624997 -11.9180012  70.8360012 128.9554997 -12.4030012
  70.7270012 130.4634997 -12.3350012  70.5111019 129.6740994 -12.0406870
  71.5700012 127.5634997 -13.4100012  71.3120012 126.8734997 -14.0210012
  71.6410012 127.1204997 -12.5640012  71.5442856 127.4092124 -13.3793115
  73.2560012 126.1294997  -4.9320012  73.3960012 125.5384997  -5.6720012
  73.4230012 127.0024997  -5.2890012  73.2976778 126.1666426  -5.0813035
  67.7290012 123.0914997 -15.1600012  67.0170012 123.6264997 -15.5120012
  68.4200012 123.1474997 -15.8200012  67.7250132 123.1722543 -15.2973711
  67.7820012 121.5494997 -18.1210012  68.4830012 121.5714997 -17.4700012
  68.0850012 120.9214997 -18.7770012  67.9187830 121.4676566 -18.1206289
  75.0980012 122.4694997  -6.8660012  74.4450012 123.1644997  -6.7770012
  75.5630012 122.6794997  -7.6760012  75.0715390 122.5929425  -6.9633117
  71.1340012 123.3014997 -14.2080012  70.4020012 123.5294997 -13.6350012
  71.5820012 122.5874997 -13.7530012  71.0943095 123.2362571 -14.0680881
  71.0320012 121.4754997  -5.1410012  71.1120012 122.2384997  -4.5690012
  70.4300012 121.7544997  -5.8310012  70.9615756 121.6177134  -5.1559411
  62.7800012 123.9314997 -12.3260012  62.4490012 123.5614997 -13.1440012
  63.3680012 123.2614997 -11.9790012  62.8141873 123.7901156 -12.3911898
  64.1460012 127.3594997  -9.6440012  64.0520012 126.7814997 -10.4010012
  64.8760012 126.9884997  -9.1480012  64.2317981 127.2302390  -9.6805835
  63.1460012 122.7004997  -8.6920012  63.7120012 122.8214997  -9.4550012
  63.4650012 123.3374997  -8.0530012  63.2665786 122.8031884  -8.7099960
  69.4550012 128.2034997  -7.9580012  69.2150012 128.8654997  -7.3100012
  69.2570012 127.3694997  -7.5330012  69.3953808 128.1813134  -7.8118476
  64.0260012 127.0994997  -3.9750012  63.7150012 127.8814997  -3.5200012
  63.3760012 126.9464997  -4.6610012  63.8955558 127.1859105  -4.0054129
  70.0050012 122.4634997 -16.5230012  70.5850012 122.6134997 -15.7760012
  70.4190012 122.9344997 -17.2460012  70.1402831 122.5476841 -16.5185866
  60.9460012 123.2974997  -4.7460012  61.0170012 123.9484997  -4.0480012
  60.0560012 123.4004997  -5.0810012  60.8353117 123.4005936  -4.6957300
  67.7320012 129.2004997 -13.0880012  68.2060012 129.4954997 -12.3100012
  67.1690012 129.9384997 -13.3210012  67.7207653 129.3406932 -13.0129864
  62.2660012 129.1714997  -3.2120012  62.2730012 129.0354997  -4.1590012
  61.3500012 129.0534997  -2.9600012  62.1431714 129.1369430  -3.3075334
  73.7040012 114.2134997 -16.7100012  72.8040012 114.3524997 -16.4150012
  73.9560012 115.0444997 -17.1120012  73.6148702 114.3449074 -16.7239795
  61.7700012 123.0014997 -14.7360012  61.4780012 123.7694997 -15.2270012
  61.0960012 122.3414997 -14.8990012  61.6389081 123.0174406 -14.8252660
  74.8930012 128.5794997 -18.3340012  74.9670012 129.5184997 -18.1630012
  75.7990012 128.2744997 -18.3900012  75.0255100 128.6666722 -18.3181881
  57.8630012 125.3644997  -5.9210012  57.3620012 125.3364997  -6.7360012
  57.8680012 124.4584997  -5.6120012  57.7951526 125.2382278  -5.9907128
  57.6130012 128.1444997  -9.0370012  58.5590012 128.0004997  -9.0560012
  57.5010012 128.9284997  -8.5000012  57.7272727 128.2308046  -8.9669928
  75.8110012 128.8104997  -3.3550012  75.7620012 127.8554997  -3.3920012
  74.9840012 129.0784997  -2.9540012  75.6924940 128.7158998  -3.3058625
  66.7900012 128.3844997  -4.4790012  66.8770012 129.2104997  -4.0040012
  65.9260012 128.0544997  -4.2300012  66.6851964 128.4529878  -4.3803451
  67.2040012 132.1564997 -14.6730012  67.1290012 132.0354997 -15.6190012
  67.2370012 133.1064997 -14.5540012  67.1981848 132.2682500 -14.7865166
  60.8570012 130.9454997 -12.8920012  61.0100012 130.5974997 -12.0130012
  60.0070012 130.5894997 -13.1470012  60.7628962 130.8496650 -12.8061660
  70.3060012 131.3104997 -17.6710012  70.6810012 130.5664997 -18.1410012
  70.3100012 131.0404997 -16.7520012  70.3578915 131.1721486 -17.6112176
  69.9750012 131.2364997 -14.9210012  69.0390012 131.3364997 -14.7430012
  70.2550012 130.5274997 -14.3430012  69.8848255 131.1542711 -14.8184609
  72.9630012 120.3034997  -2.8750012  72.5560012 120.7844997  -3.5960012
  73.0040012 119.3984997  -3.1830012  72.9128437 120.2469374  -3.0153317
  60.1120012 126.6874997  -4.8780012  60.3280012 126.3264997  -4.0190012
  59.2570012 126.3134997  -5.0880012  60.0259292 126.5874111  -4.7886614
  62.7310012 115.1574997  -8.8830012  61.8690012 115.0704997  -9.2900012
  62.7080012 116.0134997  -8.4550012  62.6100330 115.2612765  -8.8808137
  67.3940012 114.8794997  -5.5080012  67.8140012 114.4644997  -4.7550012
  66.4610012 114.7014997  -5.3910012  67.3253644 114.7985900  -5.3890461
  70.7200012 118.6354997  -4.6550012  70.2060012 118.5094997  -3.8570012
  70.5650012 119.5474997  -4.8990012  70.6286852 118.7416132  -4.5787842
  71.4830012 123.4964997 -18.8930012  71.5250012 123.2734997 -19.8230012
  72.3320012 123.8954997 -18.7030012  71.6035396 123.5199155 -18.9946373
  67.0550012 117.3724997 -18.2230012  66.8020012 117.3914997 -17.3000012
  66.7990012 116.5004997 -18.5240012  66.9857790 117.2572437 -18.1373737
  62.8220012 120.1234997  -7.7880012  62.1800012 120.0824997  -7.0790012
  62.8590012 121.0494997  -8.0250012  62.7391324 120.2431559  -7.7230176
  62.8190012 120.3444997 -12.8760012  61.9260012 120.0034997 -12.9340012
  63.2690012 119.9674997 -13.6310012  62.7577305 120.2468484 -12.9860823
  68.3540012 120.7604997 -14.0590012  67.9450012 121.5754997 -14.3500012
  69.0750012 120.6204997 -14.6730012  68.3954537 120.8532018 -14.1818658
  67.4560012 120.9354997  -2.5710012  66.8940012 120.2314997  -2.2500012
  68.2830012 120.8154997  -2.1030012  67.4907095 120.8227883  -2.4637670
  69.3590012 120.2064997 -11.2450012  69.1640012 120.8114997 -11.9600012
  69.5400012 119.3724997 -11.6790012  69.3567614 120.1766300 -11.4015595
  60.5720012 120.4434997  -5.9210012  60.5340012 120.8434997  -5.0520012
  60.0810012 119.6264997  -5.8300012  60.5004684 120.3878069  -5.7898941
  63.9380012 117.8174997 -19.1220012  63.5070012 117.3724997 -18.3920012
  63.2200012 118.1894997 -19.6340012  63.7819438 117.8068940 -19.0913201
  57.1800012 117.5594997 -12.0700012  57.8110012 117.5304997 -11.3510012
  57.6290012 117.1344997 -12.8000012  57.3270774 117.4980492 -12.0703447
  58.4540012 118.3054997 -16.6460012  58.9280012 118.8964997 -17.2310012
  57.7370012 118.8364997 -16.2990012  58.4219341 118.4580867 -16.6791164
  68.6230012 121.8444997  -6.5730012  68.9460012 121.2134997  -7.2160012
  68.1830012 121.3094997  -5.9130012  68.6076895 121.6858440  -6.5717150
  65.4000012 117.7714997 -11.7890012  64.4890012 117.8284997 -11.5010012
  65.9060012 117.7114997 -10.9790012  65.3435413 117.7711985 -11.6399378
  60.2290012 119.4004997 -12.9630012  59.3390012 119.5004997 -13.3030012
  60.5250012 118.5584997 -13.3090012  60.1472823 119.3003545 -13.0562787
  63.8820012 119.4004997 -15.3060012  64.8130012 119.5294997 -15.1280012
  63.6670012 120.0704997 -15.9560012  63.9804247 119.5086565 -15.3694253
  69.8050012 117.0064997  -8.5250012  69.1290012 117.1374997  -7.8610012
  69.3200012 116.8514997  -9.3350012  69.6467145 117.0034905  -8.5435483
  62.5560012 120.5954997 -17.7390012  62.0130012 120.2154997 -18.4310012
  63.3890012 120.7894997 -18.1680012  62.5944399 120.5698124 -17.8915474
  73.0930012 132.6784997  -2.2480012  73.2930012 133.1024997  -3.0830012
  73.7480012 133.0214997  -1.6410012  73.2090051 132.7829648  -2.2802164
  60.6910012 125.1524997  -2.6400012  61.4230012 125.4064997  -2.0790012
  59.9110012 125.3564997  -2.1250012  60.6858232 125.2149177  -2.4934240
  66.7200012 120.5594997  -9.9020012  67.2850012 120.0124997 -10.4490012
  66.5730012 120.0374997  -9.1140012  66.7772918 120.4142024  -9.8701546
  61.7220012 116.6954997 -13.4840012  61.4050012 115.7934997 -13.5190012
  62.5040012 116.6974997 -14.0370012  61.7842284 116.5721628 -13.5635217
  65.3470012 118.9474997  -7.4880012  64.5110012 119.4014997  -7.3780012
  65.8710012 119.2234997  -6.7360012  65.3034414 119.0469376  -7.3712864
  65.8910012 125.1604997 -15.8040012  65.1460012 124.6534997 -16.1260012
  65.7570012 125.2094997 -14.8570012  65.7708776 125.0976940 -15.7201353
  73.0410012 124.2934997  -7.0170012  73.6830012 124.7504997  -7.5610012
  72.2110012 124.4064997  -7.4800012  73.0165963 124.3712704  -7.1539823
  69.7890012 117.9744997 -17.6040012  68.8500012 118.0864997 -17.7560012
  70.0860012 118.8314997 -17.2980012  69.7007666 118.1056443 -17.5834232
  67.4100012 125.3444997  -4.5670012  67.0650012 124.9634997  -3.7600012
  67.2100012 126.2784997  -4.4950012  67.3358061 125.4185228  -4.4469039
  70.5070012 119.8414997 -15.9440012  71.3990012 119.7044997 -15.6250012
  70.5640012 120.6324997 -16.4800012  70.6366285 119.9296660 -15.9728309
  61.0160012 124.4554997 -10.0340012  61.7610012 124.4534997 -10.6350012
  61.0940012 123.6324997  -9.5520012  61.1285518 124.3439315 -10.0511071
  68.0170012 126.6194997 -16.7780012  67.7210012 127.4454997 -16.3970012
  67.3140012 125.9994997 -16.5820012  67.8814914 126.6488199 -16.6993557
  58.0240012 122.9164997  -4.7190012  58.2470012 122.4984997  -3.8870012
  57.4220012 122.3034997  -5.1420012  57.9731759 122.7764668  -4.6622978
  65.0400012 122.4334997  -2.5060012  64.7440012 122.2674997  -3.4010012
  65.9720012 122.2134997  -2.5170012  65.1254166 122.3810640  -2.6299464
  69.6610012 127.8064997  -4.6160012  68.7600012 127.9894997  -4.8840012
  69.6950012 128.0654997  -3.6950012  69.5423041 127.8665512  -4.5281803
  75.3920012 120.0514997 -16.2490012  74.8380012 119.6554997 -16.9210012
  75.4920012 120.9614997 -16.5270012  75.3297059 120.1203586 -16.3785599
  75.3550012 125.8514997  -3.4120012  74.5040012 126.0894997  -3.7790012
  75.9460012 125.8344997  -4.1650012  75.3182487 125.8818258  -3.5641107
  73.6870012 128.8374997 -15.7840012  73.3140012 128.0114997 -15.4750012
  73.9650012 128.6544997 -16.6810012  73.6735630 128.6997303 -15.8630374
  70.8480012 123.6454997  -8.7630012  69.9190012 123.4134997  -8.7900012
  71.2990012 122.8684997  -9.0930012  70.7819216 123.5087238  -8.8113083
  63.3910012 127.9734997 -12.6300012  63.9180012 128.7464997 -12.8300012
  62.5110012 128.1984997 -12.9310012  63.3441773 128.1098005 -12.6980990
  59.1460012 122.8354997 -18.0430012  59.7620012 123.4624997 -17.6630012
  58.2840012 123.1514997 -17.7710012  59.1137698 122.9639430 -17.9542817
  64.8180012 125.6364997 -13.0530012  64.5770012 126.5614997 -13.0120012
  64.0770012 125.1774997 -12.6570012  64.6848409 125.7011421 -12.9938623
  65.3330012 129.7854997  -6.7380012  65.6950012 130.6404997  -6.9720012
  65.8640012 129.4934997  -5.9980012  65.4544473 129.8631060  -6.6699145
  63.5010012 130.6584997 -13.5080012  62.5510012 130.7634997 -13.4570012
  63.8530012 131.4784997 -13.1630012  63.4184203 130.7838314 -13.4543350
  68.8770012 125.8844997  -7.0380012  68.4510012 125.6574997  -6.2110012
  69.4570012 125.1464997  -7.2200012  68.8971868 125.7535299  -6.9494170
  71.0800012 126.8134997 -17.9640012  71.4330012 126.4334997 -17.1590012
  70.1310012 126.7204997 -17.8770012  71.0000441 126.7489596 -17.8421441
  71.5350012 130.4364997  -4.5680012  70.9340012 129.8814997  -5.0640012
  71.8170012 131.1034997  -5.1940012  71.4908519 130.4506841  -4.7205048
  75.5830012 131.2934997 -17.7630012  76.3270012 131.8794997 -17.9030012
  74.8890012 131.8614997 -17.4290012  75.5910292 131.4505582 -17.7370039
  59.6580012 117.6694997  -5.1610012  58.7650012 118.0084997  -5.2290012
  59.5590012 116.8144997  -4.7430012  59.5224164 117.6002588  -5.1137765
  71.9460012 125.4864997 -15.7370012  71.6680012 124.7584997 -15.1810012
  72.8730012 125.6054997 -15.5320012  72.0333124 125.4028802 -15.6331155
  59.3090012 129.4744997  -6.7260012  59.5260012 128.5424997  -6.7570012
  59.5550012 129.7484997  -5.8430012  59.3719549 129.3840636  -6.6108237
  65.1710012 127.9254997 -19.5170012  65.4100012 127.1774997 -20.0640012
  64.9020012 127.5374997 -18.6840012  65.1673675 127.7706638 -19.4793135
  64.1080012 127.4954997 -17.0600012  64.2540012 126.9754997 -16.2700012
  64.1050012 128.4024997 -16.7540012  64.1275989 127.5468853 -16.9103912
  60.5610012 124.7484997 -16.5500012  59.8750012 125.1004997 -15.9830012
  61.0830012 125.5114997 -16.7970012  60.5376852 124.8998578 -16.5057882
  68.3920012 117.4104997  -6.2710012  69.0910012 117.4844997  -5.6210012
  68.0110012 116.5464997  -6.1170012  68.4361767 117.3037624  -6.1611678
  69.1770012 117.0624997 -15.1740012  69.3970012 117.5344997 -15.9770012
  69.7350012 117.4574997 -14.5040012  69.2824968 117.1804285 -15.1932669
  66.8450012 129.1934997 -16.3110012  66.0290012 129.6904997 -16.2590012
  67.3750012 129.6684997 -16.9510012  66.8049161 129.3257722 -16.3904044
  66.3770012 118.7904997 -14.3390012  67.1890012 119.2954997 -14.2930012
  66.1320012 118.6454997 -13.4250012  66.4550520 118.8400375 -14.2091483
  66.9120012 119.7764997  -5.1540012  67.0310012 120.3504997  -4.3970012
  67.5680012 119.0884997  -5.0400012  67.0169757 119.7621079  -5.0349175
  67.2600012 115.8714997 -13.4010012  66.9140012 116.4894997 -12.7560012
  67.9190012 116.3724997 -13.8820012  67.3017826 116.0235802 -13.3779029
  64.1840012 130.2374997 -16.3290012  64.3440012 131.0364997 -16.8300012
  63.9860012 130.5434997 -15.4440012  64.1791649 130.3884469 -16.2780185
  62.9180012 116.9344997 -16.7140012  62.8350012 117.8234997 -16.3670012
  63.8080012 116.6694997 -16.4820012  63.0269469 117.0201430 -16.6352374
  73.1170012 117.6834997  -4.3190012  72.2000012 117.9464997  -4.4070012
  73.4520012 117.6804997  -5.2160012  73.0369900 117.7190224  -4.4522081
  71.7190012 121.4344997 -10.2240012  70.9210012 121.0194997 -10.5520012
  72.1640012 120.7434997  -9.7330012  71.6699885 121.2843543 -10.2025111
  61.1770012 127.3624997 -17.6530012  61.7690012 128.0614997 -17.3770012
  61.6360012 126.9294997 -18.3730012  61.3201142 127.3997049 -17.7125170
  59.4930012 120.0264997 -18.5370012  59.4480012 120.9654997 -18.3590012
  58.6050012 119.7904997 -18.8070012  59.3668574 120.1231892 -18.5491088
  72.8050012 130.6904997  -8.6010012  72.6500012 131.3684997  -9.2580012
  73.7380012 130.7624997  -8.3980012  72.9098500 130.7930170  -8.6634881
  60.3010012 114.8084997  -9.8640012  60.0720012 114.8674997 -10.7920012
  59.8580012 114.0164997  -9.5580012  60.2098530 114.7095753  -9.9495214
  59.2310012 128.7484997 -13.7040012  58.3990012 129.2214997 -13.6760012
  59.7770012 129.2584997 -14.3020012  59.1909739 128.8821871 -13.7810284
  58.5190012 131.3614997  -2.3740012  59.0600012 131.1444997  -1.6140012
  58.0380012 130.5554997  -2.5630012  58.5279345 131.2229514  -2.2956924
  63.1170012 130.2804997  -0.7530012  63.8840012 129.8214997  -0.4120012
  63.0950012 130.0544997  -1.6830012  63.2191434 130.1870409  -0.8319957
  67.2090012 129.7884997 -19.3780012  66.5650012 129.1574997 -19.0570012
  67.9710012 129.2574997 -19.6100012  67.2238077 129.6302920 -19.3653989
  69.6940012 128.6604997  -2.0240012  69.3430012 127.8044997  -1.7810012
  70.4200012 128.8034997  -1.4170012  69.7440769 128.5625636  -1.9086381
  71.8130012 129.6054997 -19.1440012  72.0960012 128.8114997 -18.6920012
  72.5530012 129.8384997 -19.7050012  71.9517486 129.5282803 -19.1579302
  58.4260012 125.1714997  -1.4190012  58.5700012 124.2694997  -1.7060012
  57.6540012 125.4574997  -1.9070012  58.3413322 125.0868261  -1.5242119
  62.7680012 125.5154997 -19.2870012  62.8320012 124.7214997 -18.7560012
  63.4210012 125.3964997 -19.9770012  62.8650241 125.3907148 -19.3075683
  65.0820012 125.1414997  -1.9870012  64.7530012 125.4124997  -2.8440012
  65.2340012 124.2004997  -2.0740012  65.0574809 125.0513862  -2.1161756
  70.8160012 125.0574997  -4.6030012  71.5620012 125.6454997  -4.7230012
  70.0590012 125.6394997  -4.5400012  70.8157554 125.2167011  -4.6109093
  59.2590012 122.3714997  -1.9990012  59.6670012 121.5144997  -2.1200012
  58.9990012 122.3864997  -1.0780012  59.2797568 122.2560807  -1.8910412
  63.9170012 123.4874997 -16.9810012  63.4570012 123.0034997 -16.2950012
  64.1720012 122.8194997 -17.6170012  63.8884902 123.3308731 -16.9730666
  63.2060012 121.3804997  -4.6250012  62.5880012 122.0554997  -4.3450012
  63.5500012 121.7014997  -5.4580012  63.1679615 121.5162721  -4.6993419
  64.9880012 121.7304997 -18.7190012  64.8080012 121.5764997 -19.6460012
  65.9380012 121.8384997 -18.6740012  65.0917776 121.7240175 -18.8398157
  68.2260012 123.8524997  -1.3480012  69.1790012 123.9354997  -1.3750012
  68.0650012 123.1404997  -0.7280012  68.3346426 123.7676746  -1.2679421
  74.3780012 124.0854997 -19.2730012  74.1040012 123.6604997 -20.0860012
  74.4170012 125.0164997 -19.4900012  74.3457699 124.1532484 -19.4136390
  63.5450012 118.7354997  -3.5430012  63.6950012 118.0064997  -4.1450012
  63.5480012 119.5124997  -4.1020012  63.5659302 118.7407851  -3.7009308
  63.9580012 117.1054997  -6.0500012  64.4940012 117.5564997  -6.7020012
  63.1060012 116.9974997  -6.4730012  63.9162178 117.1526390  -6.1964244
  65.5400012 122.5444997  -5.8110012  66.2900012 122.3884997  -6.3840012
  65.2010012 123.3964997  -6.0860012  65.5968921 122.6382968  -5.9266439
  69.9550012 120.3594997  -0.7820012  70.1480012 119.4284997  -0.8940012
  70.8130012 120.7844997  -0.7920012  70.0973020 120.2896389  -0.7986639
  71.2720012 123.1484997  -2.7050012  70.9910012 123.8574997  -3.2820012
  72.2150012 123.0754997  -2.8560012  71.3609027 123.2357646  -2.8044449
  62.0240012 119.9334997  -1.6310012  61.2570012 119.4014997  -1.8410012
  62.7030012 119.6234997  -2.2310012  62.0107022 119.8187506  -1.7408352
  64.7640012 114.5614997  -5.6190012  64.6650012 115.5084997  -5.7240012
  64.0210012 114.1894997  -6.0940012  64.6500564 114.6405902  -5.6975440
  66.0280012 118.8834997  -2.0550012  65.7920012 118.6634997  -1.1530012
  65.2440012 118.6764997  -2.5650012  65.8898628 118.8254760  -2.0006068
  68.7430012 118.0104997  -2.9790012  67.7960012 118.0424997  -2.8470012
  69.0560012 117.3854997  -2.3260012  68.6555475 117.9303207  -2.8725545
  70.3770012 116.6444997  -0.9740012  70.2810012 115.6924997  -0.9800012
  70.0560012 116.9134997  -0.1140012  70.3204070 116.5504035  -0.8584559
  60.2040012 117.8544997  -1.9270012  60.4160012 117.1474997  -2.5370012
  60.0930012 117.4164997  -1.0830012  60.2179721 117.6987084  -1.8963157
  64.9850012 113.8554997  -2.9470012  65.6970012 113.2154997  -2.9610012
  64.8840012 114.1224997  -3.8610012  65.0687939 113.8039938  -3.0724350
  65.3390012 115.5384997  -0.8940012  65.2070012 115.0624997  -1.7140012
  64.7400012 116.2824997  -0.9490012  65.2399071 115.5739618  -1.0137114
  64.8850012 132.4214997 -17.7170012  65.8180012 132.5794997 -17.5740012
  64.6210012 133.0964997 -18.3420012  64.9769510 132.5343611 -17.7819259
  58.4540012 127.0574997 -18.2350012  59.3680012 127.1364997 -17.9610012
  58.4610012 126.3704997 -18.9010012  58.5801131 126.9753961 -18.2875607
  57.1030012 132.4504997 -13.1570012  56.4560012 131.9884997 -13.6900012
  57.4570012 131.7784997 -12.5750012  57.0623849 132.2964723 -13.1512041
  57.9730012 130.5314997 -11.3530012  57.6380012 129.6514997 -11.1810012
  58.1950012 130.8764997 -10.4880012  57.9571783 130.4577500 -11.2125792
  75.5210012 131.3404997  -8.3720012  75.5000012 131.5254997  -7.4330012
  76.2120012 131.9094997  -8.7130012  75.6114618 131.4426606  -8.2896136
  75.0850012 130.9084997  -5.4500012  74.5970012 130.1724997  -5.8210012
  75.6340012 130.5144997  -4.7720012  75.0924872 130.7546249  -5.4090840
  73.5350012 126.6974997  -0.8120012  72.6690012 126.5924997  -0.4180012
  73.9120012 127.4564997  -0.3660012  73.4673308 126.7856900  -0.6977607
  74.8360012 124.9544997 -15.2980012  75.6860012 125.3754997 -15.1710012
  74.8420012 124.2144997 -14.6910012  74.9531372 124.9120803 -15.1985656
  75.2310012 123.0074997 -13.4740012  74.5040012 122.5284997 -13.0770012
  75.8120012 123.2134997 -12.7420012  75.2099375 122.9697090 -13.3205871
  74.9900012 125.7924997  -8.5270012  75.8230012 125.4144997  -8.8070012
  75.1020012 126.7354997  -8.6460012  75.1192647 125.8682218  -8.5814513
  73.4760012 128.6704997  -6.2200012  72.8290012 128.9954997  -5.5940012
  72.9590012 128.2304997  -6.8940012  73.3174029 128.6555004  -6.2254173
  75.4990012 122.9084997 -17.0830012  74.9770012 123.2654997 -17.8020012
  75.4660012 123.5834997 -16.4050012  75.4231634 123.0485413 -17.0896855
  73.8480012 120.1484997 -18.5320012  73.9440012 120.8154997 -19.2130012
  73.7080012 119.3324997 -19.0140012  73.8422135 120.1294500 -18.6901509
  73.0170012 121.5284997 -12.9110012  72.8670012 120.5834997 -12.9320012
  72.6640012 121.8094997 -12.0680012  72.9486625 121.4370441 -12.7997654
  58.0530012 123.6064997  -8.9010012  58.2370012 123.5244997  -9.8370012
  58.9020012 123.4824997  -8.4770012  58.1930139 123.5785003  -8.9718545
  73.8740012 123.4984997  -3.2730012  74.4570012 122.7644997  -3.0810012
  74.4380012 124.2704997  -3.2260012  74.0299769 123.5024227  -3.2403841
  75.3700012 121.4014997  -2.5880012  74.5070012 121.0224997  -2.7540012
  75.9750012 120.6624997  -2.6620012  75.3335979 121.2498023  -2.6207183
  73.0950012 117.5564997 -19.4150012  73.7060012 117.1854997 -18.7780012
  72.2590012 117.1354997 -19.2190012  73.0655032 117.4487554 -19.3012965
  72.7280012 119.1114997 -14.4490012  73.0080012 118.2044997 -14.3250012
  73.4870012 119.5454997 -14.8380012  72.8689277 119.0460942 -14.4846318
  73.3400012 119.6924997  -9.0130012  74.2730012 119.9044997  -9.0470012
  73.1050012 119.7944997  -8.0910012  73.4358036 119.7352769  -8.8930024
  73.3690012 120.4294997  -6.2370012  72.5260012 120.6974997  -5.8710012
  73.8110012 121.2514997  -6.4480012  73.3134158 120.5773291  -6.2154509
  57.6500012 118.8774997  -2.7600012  58.5700012 118.7554997  -2.5240012
  57.2010012 118.1274997  -2.3710012  57.7151580 118.7593727  -2.6750994
  75.6520012 114.4094997  -0.8840012  76.0020012 113.7554997  -1.4890012
  75.7990012 115.2464997  -1.3230012  75.7198419 114.4331591  -1.0262882
  73.3410012 116.3744997 -14.4010012  73.5240012 115.9254997 -13.5750012
  72.7420012 115.7894997 -14.8640012  73.2850202 116.2339975 -14.3506725
  58.8710012 117.1894997  -9.8690012  59.3170012 116.3974997  -9.5670012
  59.3380012 117.9054997  -9.4380012  58.9950172 117.1780624  -9.7695180
  57.1750012 120.1884997  -8.8000012  57.6670012 119.9674997  -9.5910012
  57.5380012 121.0294997  -8.5190012  57.2913126 120.2718357  -8.8702469
  75.1720012 116.5184997  -2.5340012  74.2540012 116.7894997  -2.5700012
  75.2950012 115.9834997  -3.3190012  75.0631066 116.4832892  -2.6449513
  75.2080012 116.4414997 -17.8730012  75.6200012 115.7204997 -18.3480012
  75.8900012 117.1114997 -17.8140012  75.3565885 116.4332368 -17.9301085
  57.4890012 116.4464997 -14.7460012  56.5640012 116.6554997 -14.8750012
  57.9430012 116.9304997 -15.4350012  57.4237368 116.5405993 -14.8568774
  72.2600012 131.4304997 -12.8000012  72.9120012 131.0834997 -13.4080012
  72.7700012 131.9194997 -12.1540012  72.4182637 131.4490597 -12.7959764
  57.4530012 115.1844997  -6.4010012  56.7880012 114.9384997  -5.7580012
  57.0100012 115.8064997  -6.9790012  57.3020956 115.2348632  -6.3910648
  59.6450012 128.3594997  -2.2570012  58.8240012 128.5344997  -2.7170012
  59.3920012 128.2864997  -1.3360012  59.4986164 128.3735622  -2.1955077
  62.5990012 129.3344997  -5.9980012  62.1740012 130.1434997  -6.2810012
  63.5030012 129.4194997  -6.3000012  62.6630271 129.4568469  -6.0776224
  66.9100012 130.7334997  -3.0390012  67.0950012 130.3994997  -2.1610012
  67.7560012 131.0424997  -3.3610012  67.0497539 130.7296047  -2.9624395
  69.2550012 132.0194997  -3.7950012  69.9320012 131.3864997  -4.0350012
  69.5770012 132.4204997  -2.9880012  69.3911637 131.9871154  -3.7187207
  74.1720012 114.6084997  -4.7150012  73.3600012 114.9334997  -5.1030012
  74.4050012 113.8484997  -5.2480012  74.0923423 114.5502436  -4.8401747
  60.0010012 132.5904997  -5.9510012  59.2800012 133.0304997  -6.4020012
  59.6350012 132.3394997  -5.1020012  59.8529804 132.6167698  -5.8980160
  62.4680012 132.1904997  -6.9210012  61.6030012 132.2624997  -6.5170012
  62.4130012 132.7374997  -7.7050012  62.3422085 132.2742685  -6.9716638
  67.1780012 132.0784997  -7.7460012  66.7220012 132.6074997  -8.4000012
  67.3410012 132.6814997  -7.0200012  67.1375585 132.2324468  -7.7374938
  69.5060012 130.9564997  -6.8010012  68.6010012 131.1214997  -7.0660012
  69.9350012 131.8094997  -6.8660012  69.4400799 131.0944483  -6.8460818
  72.1100012 132.5264997  -6.5060012  71.9280012 133.4424997  -6.7160012
  72.2870012 132.1164997  -7.3520012  72.1090210 132.5964822  -6.6492115
  59.4150012 131.2134997  -9.0410012  59.3970012 130.7884997  -8.1830012
  60.2200012 130.8954997  -9.4490012  59.5213875 131.1123812  -8.9788345
  61.5570012 129.9234997 -10.3860012  61.3380012 129.0074997 -10.2160012
  62.3810012 130.0634997  -9.9200012  61.6384420 129.8170520 -10.2997226
  64.0940012 130.3934997  -9.5370012  64.3070012 129.5054997  -9.8240012
  64.1580012 130.3594997  -8.5830012  64.1318232 130.2673102  -9.4472603
  67.6020012 116.0574997 -10.3930012  66.9280012 115.4284997 -10.1370012
  68.1660012 115.5734997 -10.9960012  67.5859230 115.9058744 -10.4394660
  72.7450012 114.1654997 -10.2800012  73.3490012 114.7124997 -10.7820012
  71.8750012 114.4844997 -10.5200012  72.7101241 114.2835806 -10.3812346
  74.4720012 115.3034997 -11.9470012  75.0840012 114.7894997 -12.4730012
  74.8540012 116.1814997 -11.9230012  74.6074540 115.3517140 -12.0158170
  59.9290012 114.6914997 -12.5710012  59.1520012 114.4574997 -13.0780012
  60.4590012 113.8944997 -12.5620012  59.8942330 114.5516988 -12.6392258
  58.7650012 114.4894997 -16.7670012  59.2040012 115.1004997 -17.3590012
  58.1320012 115.0274997 -16.2930012  58.7394514 114.6459257 -16.7839070
  64.5080012 114.6184997 -12.7570012  65.3830012 115.0064997 -12.7870012
  64.3720012 114.4034997 -11.8350012  64.6093695 114.6425184 -12.6363560
  70.0650012 114.6484997 -11.1080012  70.1410012 114.7434997 -12.0580012
  69.7900012 113.7404997 -10.9790012  70.0382321 114.5387867 -11.2204921
  71.4180012 114.6744997 -15.4160012  70.7160012 115.2894997 -15.6250012
  70.9740012 113.8364997 -15.2850012  71.2616330 114.6455783 -15.4269672
  58.6660012 130.4374997 -15.8690012  57.9810012 130.3994997 -16.5370012
  58.6700012 131.3504997 -15.5810012  58.5728193 130.5557016 -15.9214716
  60.6260012 116.4054997 -18.3250012  61.1180012 115.7754997 -18.8520012
  61.2500012 116.7014997 -17.6610012  60.7775446 116.3593199 -18.3074020
  65.6520012 116.6984997 -15.8680012  65.8300012 116.0524997 -15.1850012
  65.5990012 117.5324997 -15.4000012  65.6691829 116.7227985 -15.7114060
  67.5310012 131.6474997 -17.4720012  68.3970012 132.0134997 -17.6500012
  67.2840012 131.2074997 -18.2860012  67.6162392 131.6381756 -17.6063711
  74.2400012 131.2104997 -14.7930012  74.0450012 130.4624997 -15.3580012
  74.2010012 131.9684997 -15.3760012  74.2080380 131.2106099 -14.9491616
  59.8870012 115.2054997  -3.0530012  59.5210012 114.4404997  -2.6100012
  60.8000012 115.2344997  -2.7660012  59.9602790 115.1047224  -2.9535930
  61.8600012 114.5564997  -1.5170012  62.7580012 114.2824997  -1.7020012
  61.4730012 113.8134997  -1.0530012  61.9306612 114.4185914  -1.4796357
  60.4840012 131.3574997 -18.8440012  60.2170012 131.6444997 -17.9710012
  61.2560012 130.8114997 -18.6920012  60.5517488 131.3230294 -18.7038950
  70.2810012 113.8884997  -1.3350012  70.3580012 113.4624997  -0.4810012
  71.1750012 113.9024997  -1.6780012  70.4123428 113.8320879  -1.2644690
  73.4570012 129.9614997  -2.6430012  72.6750012 129.7754997  -3.1620012
  73.3850012 130.8904997  -2.4250012  73.3401777 130.0616492  -2.6845952
  87.8630012 123.8474997 -12.6120012  87.9520012 124.7914997 -12.7440012
  87.2250012 123.5724997 -13.2700012  87.7889081 123.9394830 -12.7190386
  86.7960012 123.1024997  -9.1930012  86.7580012 122.4564997  -8.4880012
  86.4740012 122.6364997  -9.9640012  86.7472333 122.9509408  -9.2007022
  79.1650012 122.7174997  -7.6000012  79.2060012 122.0914997  -6.8770012
  79.8680012 123.3414997  -7.4180012  79.2656363 122.7161196  -7.4763956
  90.5020012 126.0414997 -10.8920012  90.0620012 125.3214997 -10.4410012
  90.4890012 126.7624997 -10.2620012  90.4400226 126.0403731 -10.7451506
  80.0880012 127.1674997  -9.0650012  79.7190012 126.3654997  -9.4350012
  81.0290012 126.9984997  -9.0190012  80.1647289 127.0350153  -9.1093684
  76.6980012 120.8274997 -13.6720012  76.2510012 121.6734997 -13.6910012
  76.1370012 120.2474997 -14.1880012  76.5609900 120.8649916 -13.7443199
  77.4090012 122.9894997 -11.5460012  77.6220012 122.2194997 -11.0190012
  78.1470012 123.0784997 -12.1500012  77.5378496 122.8961394 -11.5554700
  87.6140012 131.1464997 -10.6790012  88.2340012 130.4694997 -10.9530012
  87.4060012 130.9284997  -9.7710012  87.6706904 131.0243870 -10.5936635
  85.1860012 125.5354997  -8.7870012  85.4900012 124.8494997  -9.3820012
  85.9070012 125.6534997  -8.1690012  85.3250671 125.4576305  -8.7848184
  93.8490012 117.1364997  -7.9260012  93.8980012 117.7464997  -7.1900012
  94.2740012 117.5974997  -8.6490012  93.9131824 117.2823741  -7.9229795
  88.3270012 119.9294997  -8.4590012  88.4690012 118.9834997  -8.4390012
  88.2200012 120.1364997  -9.3880012  88.3319864 119.8279534  -8.5817661
  81.4810012 118.0304997 -11.1870012  81.5250012 118.8904997 -11.6050012
  81.0240012 117.4784997 -11.8210012  81.4252185 118.0735799 -11.3299701
  89.2040012 118.1614997 -12.7860012  89.8500012 117.8324997 -12.1610012
  89.7140012 118.6794997 -13.4090012  89.3614264 118.1864611 -12.7846138
  78.1020012 120.4274997 -10.4250012  78.7550012 119.8774997  -9.9930012
  78.1260012 120.1534997 -11.3420012  78.1946683 120.3151466 -10.4897877
  83.2580012 121.9774997 -11.2100012  83.8740012 121.4514997 -10.7000012
  82.6720012 121.3374997 -11.6130012  83.2630810 121.8189208 -11.1946827
  94.2400012 118.6144997  -5.6900012  93.5520012 119.2724997  -5.7860012
  94.2560012 118.4174997  -4.7540012  94.1478525 118.6780462  -5.5765192
  80.2920012 116.9484997  -7.1130012  80.0730012 117.4784997  -7.8790012
  79.6240012 117.1754997  -6.4660012  80.1717600 117.0516906  -7.1303621
  87.6610012 126.4484997 -13.5690012  87.3650012 126.1264997 -14.4200012
  87.3360012 127.3484997 -13.5280012  87.5766371 126.5260215 -13.6798199
  82.8610012 124.6244997  -6.8260012  82.1210012 125.2224997  -6.7220012
  83.5750012 125.1784997  -7.1410012  82.8562237 124.7812831  -6.8543535
  90.9680012 117.4524997 -10.8060012  90.7520012 116.6864997 -10.2730012
  91.6230012 117.9244997 -10.2930012  91.0270632 117.4115889 -10.6637139
  79.8850012 118.8404997  -9.1610012  80.4990012 119.4734997  -8.7870012
  80.3970012 118.3684997  -9.8170012  80.0382296 118.8632370  -9.1985748
  81.2680012 126.5884997  -6.0380012  81.2630012 127.4684997  -6.4160012
  80.4150012 126.5054997  -5.6130012  81.1519464 126.6976117  -6.0322093
  77.3890012 126.2594997 -15.2560012  77.1170012 126.4884997 -16.1450012
  77.4350012 127.0974997 -14.7960012  77.3580094 126.4041213 -15.3154303
  91.0140012 127.8814997  -8.5440012  90.0730012 127.9394997  -8.3820012
  91.2910012 128.7874997  -8.6810012  90.9224679 128.0119443  -8.5403185
  91.3150012 116.1674997  -7.1260012  90.5790012 116.7784997  -7.1640012
  91.9980012 116.5824997  -7.6530012  91.3066541 116.3071374  -7.2024168
  84.3180012 114.2544997  -9.6600012  84.2010012 113.3054997  -9.7150012
  83.4630012 114.5864997  -9.3870012  84.1863733 114.1695409  -9.6306103
  89.2660012 129.6624997 -11.9180012  89.6920012 128.9554997 -12.4030012
  89.5830012 130.4634997 -12.3350012  89.3671019 129.6740994 -12.0406870
  90.4260012 127.5634997 -13.4100012  90.1680012 126.8734997 -14.0210012
  90.4970012 127.1204997 -12.5640012  90.4002856 127.4092124 -13.3793115
  92.1120012 126.1294997  -4.9320012  92.2520012 125.5384997  -5.6720012
  92.2790012 127.0024997  -5.2890012  92.1536778 126.1666426  -5.0813035
  86.5850012 123.0914997 -15.1600012  85.8730012 123.6264997 -15.5120012
  87.2760012 123.1474997 -15.8200012  86.5810132 123.1722543 -15.2973711
  86.6380012 121.5494997 -18.1210012  87.3390012 121.5714997 -17.4700012
  86.9410012 120.9214997 -18.7770012  86.7747830 121.4676566 -18.1206289
  93.9540012 122.4694997  -6.8660012  93.3010012 123.1644997  -6.7770012
  94.4190012 122.6794997  -7.6760012  93.9275390 122.5929425  -6.9633117
  89.9900012 123.3014997 -14.2080012  89.2580012 123.5294997 -13.6350012
  90.4380012 122.5874997 -13.7530012  89.9503095 123.2362571 -14.0680881
  89.8880012 121.4754997  -5.1410012  89.9680012 122.2384997  -4.5690012
  89.2860012 121.7544997  -5.8310012  89.8175756 121.6177134  -5.1559411
  81.6360012 123.9314997 -12.3260012  81.3050012 123.5614997 -13.1440012
  82.2240012 123.2614997 -11.9790012  81.6701873 123.7901156 -12.3911898
  83.0020012 127.3594997  -9.6440012  82.9080012 126.7814997 -10.4010012
  83.7320012 126.9884997  -9.1480012  83.0877981 127.2302390  -9.6805835
  82.0020012 122.7004997  -8.6920012  82.5680012 122.8214997  -9.4550012
  82.3210012 123.3374997  -8.0530012  82.1225786 122.8031884  -8.7099960
  88.3110012 128.2034997  -7.9580012  88.0710012 128.8654997  -7.3100012
  88.1130012 127.3694997  -7.5330012  88.2513808 128.1813134  -7.8118476
  82.8820012 127.0994997  -3.9750012  82.5710012 127.8814997  -3.5200012
  82.2320012 126.9464997  -4.6610012  82.7515558 127.1859105  -4.0054129
  88.8610012 122.4634997 -16.5230012  89.4410012 122.6134997 -15.7760012
  89.2750012 122.9344997 -17.2460012  88.9962830 122.5476841 -16.5185866
  79.8020012 123.2974997  -4.7460012  79.8730012 123.9484997  -4.0480012
  78.9120012 123.4004997  -5.0810012  79.6913117 123.4005936  -4.6957300
  86.5880012 129.2004997 -13.0880012  87.0620012 129.4954997 -12.3100012
  86.0250012 129.9384997 -13.3210012  86.5767653 129.3406932 -13.0129864
  81.1220012 129.1714997  -3.2120012  81.1290012 129.0354997  -4.1590012
  80.2060012 129.0534997  -2.9600012  80.9991714 129.1369430  -3.3075334
  92.5600012 114.2134997 -16.7100012  91.6600012 114.3524997 -16.4150012
  92.8120012 115.0444997 -17.1120012  92.4708702 114.3449074 -16.7239795
  80.6260012 123.0014997 -14.7360012  80.3340012 123.7694997 -15.2270012
  79.9520012 122.3414997 -14.8990012  80.4949081 123.0174406 -14.8252660
  93.7490012 128.5794997 -18.3340012  93.8230012 129.5184997 -18.1630012
  94.6550012 128.2744997 -18.3900012  93.8815100 128.6666722 -18.3181881
  76.7190012 125.3644997  -5.9210012  76.2180012 125.3364997  -6.7360012
  76.7240012 124.4584997  -5.6120012  76.6511526 125.2382278  -5.9907128
  76.4690012 128.1444997  -9.0370012  77.4150012 128.0004997  -9.0560012
  76.3570012 128.9284997  -8.5000012  76.5832727 128.2308046  -8.9669928
  94.6670012 128.8104997  -3.3550012  94.6180012 127.8554997  -3.3920012
  93.8400012 129.0784997  -2.9540012  94.5484940 128.7158998  -3.3058625
  85.6460012 128.3844997  -4.4790012  85.7330012 129.2104997  -4.0040012
  84.7820012 128.0544997  -4.2300012  85.5411964 128.4529878  -4.3803451
  86.0600012 132.1564997 -14.6730012  85.9850012 132.0354997 -15.6190012
  86.0930012 133.1064997 -14.5540012  86.0541848 132.2682500 -14.7865166
  79.7130012 130.9454997 -12.8920012  79.8660012 130.5974997 -12.0130012
  78.8630012 130.5894997 -13.1470012  79.6188962 130.8496650 -12.8061660
  89.1620012 131.3104997 -17.6710012  89.5370012 130.5664997 -18.1410012
  89.1660012 131.0404997 -16.7520012  89.2138915 131.1721486 -17.6112176
  88.8310012 131.2364997 -14.9210012  87.8950012 131.3364997 -14.7430012
  89.1110012 130.5274997 -14.3430012  88.7408255 131.1542711 -14.8184609
  91.8190012 120.3034997  -2.8750012  91.4120012 120.7844997  -3.5960012
  91.8600012 119.3984997  -3.1830012  91.7688437 120.2469374  -3.0153317
  78.9680012 126.6874997  -4.8780012  79.1840012 126.3264997  -4.0190012
  78.1130012 126.3134997  -5.0880012  78.8819292 126.5874111  -4.7886614
  81.5870012 115.1574997  -8.8830012  80.7250012 115.0704997  -9.2900012
  81.5640012 116.0134997  -8.4550012  81.4660330 115.2612765  -8.8808137
  86.2500012 114.8794997  -5.5080012  86.6700012 114.4644997  -4.7550012
  85.3170012 114.7014997  -5.3910012  86.1813644 114.7985900  -5.3890461
  89.5760012 118.6354997  -4.6550012  89.0620012 118.5094997  -3.8570012
  89.4210012 119.5474997  -4.8990012  89.4846852 118.7416132  -4.5787842
  90.3390012 123.4964997 -18.8930012  90.3810012 123.2734997 -19.8230012
  91.1880012 123.8954997 -18.7030012  90.4595396 123.5199155 -18.9946373
  85.9110012 117.3724997 -18.2230012  85.6580012 117.3914997 -17.3000012
  85.6550012 116.5004997 -18.5240012  85.8417790 117.2572437 -18.1373737
  81.6780012 120.1234997  -7.7880012  81.0360012 120.0824997  -7.0790012
  81.7150012 121.0494997  -8.0250012  81.5951324 120.2431559  -7.7230176
  81.6750012 120.3444997 -12.8760012  80.7820012 120.0034997 -12.9340012
  82.1250012 119.9674997 -13.6310012  81.6137305 120.2468484 -12.9860823
  87.2100012 120.7604997 -14.0590012  86.8010012 121.5754997 -14.3500012
  87.9310012 120.6204997 -14.6730012  87.2514537 120.8532018 -14.1818658
  86.3120012 120.9354997  -2.5710012  85.7500012 120.2314997  -2.2500012
  87.1390012 120.8154997  -2.1030012  86.3467095 120.8227883  -2.4637670
  88.2150012 120.2064997 -11.2450012  88.0200012 120.8114997 -11.9600012
  88.3960012 119.3724997 -11.6790012  88.2127614 120.1766300 -11.4015595
  79.4280012 120.4434997  -5.9210012  79.3900012 120.8434997  -5.0520012
  78.9370012 119.6264997  -5.8300012  79.3564684 120.3878069  -5.7898941
  82.7940012 117.8174997 -19.1220012  82.3630012 117.3724997 -18.3920012
  82.0760012 118.1894997 -19.6340012  82.6379438 117.8068940 -19.0913201
  76.0360012 117.5594997 -12.0700012  76.6670012 117.5304997 -11.3510012
  76.4850012 117.1344997 -12.8000012  76.1830774 117.4980492 -12.0703447
  77.3100012 118.3054997 -16.6460012  77.7840012 118.8964997 -17.2310012
  76.5930012 118.8364997 -16.2990012  77.2779341 118.4580867 -16.6791164
  87.4790012 121.8444997  -6.5730012  87.8020012 121.2134997  -7.2160012
  87.0390012 121.3094997  -5.9130012  87.4636895 121.6858441  -6.5717150
  84.2560012 117.7714997 -11.7890012  83.3450012 117.8284997 -11.5010012
  84.7620012 117.7114997 -10.9790012  84.1995413 117.7711985 -11.6399378
  79.0850012 119.4004997 -12.9630012  78.1950012 119.5004997 -13.3030012
  79.3810012 118.5584997 -13.3090012  79.0032823 119.3003545 -13.0562787
  82.7380012 119.4004997 -15.3060012  83.6690012 119.5294997 -15.1280012
  82.5230012 120.0704997 -15.9560012  82.8364247 119.5086565 -15.3694253
  88.6610012 117.0064997  -8.5250012  87.9850012 117.1374997  -7.8610012
  88.1760012 116.8514997  -9.3350012  88.5027145 117.0034905  -8.5435483
  81.4120012 120.5954997 -17.7390012  80.8690012 120.2154997 -18.4310012
  82.2450012 120.7894997 -18.1680012  81.4504399 120.5698124 -17.8915474
  91.9490012 132.6784997  -2.2480012  92.1490012 133.1024997  -3.0830012
  92.6040012 133.0214997  -1.6410012  92.0650051 132.7829648  -2.2802164
  79.5470012 125.1524997  -2.6400012  80.2790012 125.4064997  -2.0790012
  78.7670012 125.3564997  -2.1250012  79.5418232 125.2149177  -2.4934240
  85.5760012 120.5594997  -9.9020012  86.1410012 120.0124997 -10.4490012
  85.4290012 120.0374997  -9.1140012  85.6332918 120.4142024  -9.8701546
  80.5780012 116.6954997 -13.4840012  80.2610012 115.7934997 -13.5190012
  81.3600012 116.6974997 -14.0370012  80.6402284 116.5721628 -13.5635217
  84.2030012 118.9474997  -7.4880012  83.3670012 119.4014997  -7.3780012
  84.7270012 119.2234997  -6.7360012  84.1594414 119.0469376  -7.3712864
  84.7470012 125.1604997 -15.8040012  84.0020012 124.6534997 -16.1260012
  84.6130012 125.2094997 -14.8570012  84.6268776 125.0976940 -15.7201353
  91.8970012 124.2934997  -7.0170012  92.5390012 124.7504997  -7.5610012
  91.0670012 124.4064997  -7.4800012  91.8725963 124.3712704  -7.1539823
  88.6450012 117.9744997 -17.6040012  87.7060012 118.0864997 -17.7560012
  88.9420012 118.8314997 -17.2980012  88.5567666 118.1056443 -17.5834232
  86.2660012 125.3444997  -4.5670012  85.9210012 124.9634997  -3.7600012
  86.0660012 126.2784997  -4.4950012  86.1918061 125.4185228  -4.4469039
  89.3630012 119.8414997 -15.9440012  90.2550012 119.7044997 -15.6250012
  89.4200012 120.6324997 -16.4800012  89.4926285 119.9296660 -15.9728309
  79.8720012 124.4554997 -10.0340012  80.6170012 124.4534997 -10.6350012
  79.9500012 123.6324997  -9.5520012  79.9845518 124.3439315 -10.0511071
  86.8730012 126.6194997 -16.7780012  86.5770012 127.4454997 -16.3970012
  86.1700012 125.9994997 -16.5820012  86.7374914 126.6488199 -16.6993557
  76.8800012 122.9164997  -4.7190012  77.1030012 122.4984997  -3.8870012
  76.2780012 122.3034997  -5.1420012  76.8291759 122.7764668  -4.6622978
  83.8960012 122.4334997  -2.5060012  83.6000012 122.2674997  -3.4010012
  84.8280012 122.2134997  -2.5170012  83.9814166 122.3810640  -2.6299464
  88.5170012 127.8064997  -4.6160012  87.6160012 127.9894997  -4.8840012
  88.5510012 128.0654997  -3.6950012  88.3983041 127.8665512  -4.5281803
  94.2480012 120.0514997 -16.2490012  93.6940012 119.6554997 -16.9210012
  94.3480012 120.9614997 -16.5270012  94.1857059 120.1203586 -16.3785599
  94.2110012 125.8514997  -3.4120012  93.3600012 126.0894997  -3.7790012
  94.8020012 125.8344997  -4.1650012  94.1742487 125.8818258  -3.5641107
  92.5430012 128.8374997 -15.7840012  92.1700012 128.0114997 -15.4750012
  92.8210012 128.6544997 -16.6810012  92.5295630 128.6997303 -15.8630374
  89.7040012 123.6454997  -8.7630012  88.7750012 123.4134997  -8.7900012
  90.1550012 122.8684997  -9.0930012  89.6379216 123.5087238  -8.8113083
  82.2470012 127.9734997 -12.6300012  82.7740012 128.7464997 -12.8300012
  81.3670012 128.1984997 -12.9310012  82.2001773 128.1098005 -12.6980990
  78.0020012 122.8354997 -18.0430012  78.6180012 123.4624997 -17.6630012
  77.1400012 123.1514997 -17.7710012  77.9697698 122.9639430 -17.9542817
  83.6740012 125.6364997 -13.0530012  83.4330012 126.5614997 -13.0120012
  82.9330012 125.1774997 -12.6570012  83.5408409 125.7011421 -12.9938623
  84.1890012 129.7854997  -6.7380012  84.5510012 130.6404997  -6.9720012
  84.7200012 129.4934997  -5.9980012  84.3104473 129.8631060  -6.6699145
  82.3570012 130.6584997 -13.5080012  81.4070012 130.7634997 -13.4570012
  82.7090012 131.4784997 -13.1630012  82.2744203 130.7838314 -13.4543350
  87.7330012 125.8844997  -7.0380012  87.3070012 125.6574997  -6.2110012
  88.3130012 125.1464997  -7.2200012  87.7531868 125.7535299  -6.9494170
  89.9360012 126.8134997 -17.9640012  90.2890012 126.4334997 -17.1590012
  88.9870012 126.7204997 -17.8770012  89.8560441 126.7489596 -17.8421441
  90.3910012 130.4364997  -4.5680012  89.7900012 129.8814997  -5.0640012
  90.6730012 131.1034997  -5.1940012  90.3468519 130.4506841  -4.7205048
  94.4390012 131.2934997 -17.7630012  95.1830012 131.8794997 -17.9030012
  93.7450012 131.8614997 -17.4290012  94.4470292 131.4505582 -17.7370039
  78.5140012 117.6694997  -5.1610012  77.6210012 118.0084997  -5.2290012
  78.4150012 116.8144997  -4.7430012  78.3784164 117.6002588  -5.1137765
  90.8020012 125.4864997 -15.7370012  90.5240012 124.7584997 -15.1810012
  91.7290012 125.6054997 -15.5320012  90.8893124 125.4028802 -15.6331155
  78.1650012 129.4744997  -6.7260012  78.3820012 128.5424997  -6.7570012
  78.4110012 129.7484997  -5.8430012  78.2279549 129.3840636  -6.6108237
  84.0270012 127.9254997 -19.5170012  84.2660012 127.1774997 -20.0640012
  83.7580012 127.5374997 -18.6840012  84.0233675 127.7706638 -19.4793135
  82.9640012 127.4954997 -17.0600012  83.1100012 126.9754997 -16.2700012
  82.9610012 128.4024997 -16.7540012  82.9835989 127.5468853 -16.9103912
  79.4170012 124.7484997 -16.5500012  78.7310012 125.1004997 -15.9830012
  79.9390012 125.5114997 -16.7970012  79.3936852 124.8998578 -16.5057882
  87.2480012 117.4104997  -6.2710012  87.9470012 117.4844997  -5.6210012
  86.8670012 116.5464997  -6.1170012  87.2921767 117.3037624  -6.1611678
  88.0330012 117.0624997 -15.1740012  88.2530012 117.5344997 -15.9770012
  88.5910012 117.4574997 -14.5040012  88.1384968 117.1804285 -15.1932669
  85.7010012 129.1934997 -16.3110012  84.8850012 129.6904997 -16.2590012
  86.2310012 129.6684997 -16.9510012  85.6609161 129.3257722 -16.3904044
  85.2330012 118.7904997 -14.3390012  86.0450012 119.2954997 -14.2930012
  84.9880012 118.6454997 -13.4250012  85.3110520 118.8400375 -14.2091483
  85.7680012 119.7764997  -5.1540012  85.8870012 120.3504997  -4.3970012
  86.4240012 119.0884997  -5.0400012  85.8729757 119.7621079  -5.0349175
  86.1160012 115.8714997 -13.4010012  85.7700012 116.4894997 -12.7560012
  86.7750012 116.3724997 -13.8820012  86.1577826 116.0235802 -13.3779029
  83.0400012 130.2374997 -16.3290012  83.2000012 131.0364997 -16.8300012
  82.8420012 130.5434997 -15.4440012  83.0351649 130.3884469 -16.2780185
  81.7740012 116.9344997 -16.7140012  81.6910012 117.8234997 -16.3670012
  82.6640012 116.6694997 -16.4820012  81.8829469 117.0201430 -16.6352374
  91.9730012 117.6834997  -4.3190012  91.0560012 117.9464997  -4.4070012
  92.3080012 117.6804997  -5.2160012  91.8929900 117.7190224  -4.4522081
  90.5750012 121.4344997 -10.2240012  89.7770012 121.0194997 -10.5520012
  91.0200012 120.7434997  -9.7330012  90.5259885 121.2843543 -10.2025111
  80.0330012 127.3624997 -17.6530012  80.6250012 128.0614997 -17.3770012
  80.4920012 126.9294997 -18.3730012  80.1761142 127.3997049 -17.7125170
  78.3490012 120.0264997 -18.5370012  78.3040012 120.9654997 -18.3590012
  77.4610012 119.7904997 -18.8070012  78.2228574 120.1231892 -18.5491088
  91.6610012 130.6904997  -8.6010012  91.5060012 131.3684997  -9.2580012
  92.5940012 130.7624997  -8.3980012  91.7658500 130.7930170  -8.6634881
  79.1570012 114.8084997  -9.8640012  78.9280012 114.8674997 -10.7920012
  78.7140012 114.0164997  -9.5580012  79.0658530 114.7095753  -9.9495214
  78.0870012 128.7484997 -13.7040012  77.2550012 129.2214997 -13.6760012
  78.6330012 129.2584997 -14.3020012  78.0469739 128.8821871 -13.7810284
  77.3750012 131.3614997  -2.3740012  77.9160012 131.1444997  -1.6140012
  76.8940012 130.5554997  -2.5630012  77.3839345 131.2229514  -2.2956924
  81.9730012 130.2804997  -0.7530012  82.7400012 129.8214997  -0.4120012
  81.9510012 130.0544997  -1.6830012  82.0751434 130.1870409  -0.8319957
  86.0650012 129.7884997 -19.3780012  85.4210012 129.1574997 -19.0570012
  86.8270012 129.2574997 -19.6100012  86.0798077 129.6302920 -19.3653989
  88.5500012 128.6604997  -2.0240012  88.1990012 127.8044997  -1.7810012
  89.2760012 128.8034997  -1.4170012  88.6000769 128.5625636  -1.9086381
  90.6690012 129.6054997 -19.1440012  90.9520012 128.8114997 -18.6920012
  91.4090012 129.8384997 -19.7050012  90.8077486 129.5282803 -19.1579302
  77.2820012 125.1714997  -1.4190012  77.4260012 124.2694997  -1.7060012
  76.5100012 125.4574997  -1.9070012  77.1973322 125.0868261  -1.5242119
  81.6240012 125.5154997 -19.2870012  81.6880012 124.7214997 -18.7560012
  82.2770012 125.3964997 -19.9770012  81.7210241 125.3907148 -19.3075683
  83.9380012 125.1414997  -1.9870012  83.6090012 125.4124997  -2.8440012
  84.0900012 124.2004997  -2.0740012  83.9134809 125.0513862  -2.1161756
  89.6720012 125.0574997  -4.6030012  90.4180012 125.6454997  -4.7230012
  88.9150012 125.6394997  -4.5400012  89.6717554 125.2167011  -4.6109093
  78.1150012 122.3714997  -1.9990012  78.5230012 121.5144997  -2.1200012
  77.8550012 122.3864997  -1.0780012  78.1357568 122.2560807  -1.8910412
  82.7730012 123.4874997 -16.9810012  82.3130012 123.0034997 -16.2950012
  83.0280012 122.8194997 -17.6170012  82.7444902 123.3308731 -16.9730666
  82.0620012 121.3804997  -4.6250012  81.4440012 122.0554997  -4.3450012
  82.4060012 121.7014997  -5.4580012  82.0239615 121.5162721  -4.6993419
  83.8440012 121.7304997 -18.7190012  83.6640012 121.5764997 -19.6460012
  84.7940012 121.8384997 -18.6740012  83.9477776 121.7240175 -18.8398157
  87.0820012 123.8524997  -1.3480012  88.0350012 123.9354997  -1.3750012
  86.9210012 123.1404997  -0.7280012  87.1906426 123.7676746  -1.2679421
  93.2340012 124.0854997 -19.2730012  92.9600012 123.6604997 -20.0860012
  93.2730012 125.0164997 -19.4900012  93.2017699 124.1532484 -19.4136390
  82.4010012 118.7354997  -3.5430012  82.5510012 118.0064997  -4.1450012
  82.4040012 119.5124997  -4.1020012  82.4219302 118.7407851  -3.7009308
  82.8140012 117.1054997  -6.0500012  83.3500012 117.5564997  -6.7020012
  81.9620012 116.9974997  -6.4730012  82.7722178 117.1526390  -6.1964244
  84.3960012 122.5444997  -5.8110012  85.1460012 122.3884997  -6.3840012
  84.0570012 123.3964997  -6.0860012  84.4528921 122.6382968  -5.9266439
  88.8110012 120.3594997  -0.7820012  89.0040012 119.4284997  -0.8940012
  89.6690012 120.7844997  -0.7920012  88.9533020 120.2896389  -0.7986639
  90.1280012 123.1484997  -2.7050012  89.8470012 123.8574997  -3.2820012
  91.0710012 123.0754997  -2.8560012  90.2169027 123.2357646  -2.8044449
  80.8800012 119.9334997  -1.6310012  80.1130012 119.4014997  -1.8410012
  81.5590012 119.6234997  -2.2310012  80.8667022 119.8187506  -1.7408352
  83.6200012 114.5614997  -5.6190012  83.5210012 115.5084997  -5.7240012
  82.8770012 114.1894997  -6.0940012  83.5060564 114.6405902  -5.6975440
  84.8840012 118.8834997  -2.0550012  84.6480012 118.6634997  -1.1530012
  84.1000012 118.6764997  -2.5650012  84.7458628 118.8254760  -2.0006068
  87.5990012 118.0104997  -2.9790012  86.6520012 118.0424997  -2.8470012
  87.9120012 117.3854997  -2.3260012  87.5115475 117.9303207  -2.8725545
  89.2330012 116.6444997  -0.9740012  89.1370012 115.6924997  -0.9800012
  88.9120012 116.9134997  -0.1140012  89.1764070 116.5504035  -0.8584559
  79.0600012 117.8544997  -1.9270012  79.2720012 117.1474997  -2.5370012
  78.9490012 117.4164997  -1.0830012  79.0739721 117.6987084  -1.8963157
  83.8410012 113.8554997  -2.9470012  84.5530012 113.2154997  -2.9610012
  83.7400012 114.1224997  -3.8610012  83.9247939 113.8039938  -3.0724350
  84.1950012 115.5384997  -0.8940012  84.0630012 115.0624997  -1.7140012
  83.5960012 116.2824997  -0.9490012  84.0959071 115.5739618  -1.0137114
  83.7410012 132.4214997 -17.7170012  84.6740012 132.5794997 -17.5740012
  83.4770012 133.0964997 -18.3420012  83.8329510 132.5343611 -17.7819259
  77.3100012 127.0574997 -18.2350012  78.2240012 127.1364997 -17.9610012
  77.3170012 126.3704997 -18.9010012  77.4361131 126.9753961 -18.2875607
  75.9590012 132.4504997 -13.1570012  75.3120012 131.9884997 -13.6900012
  76.3130012 131.7784997 -12.5750012  75.9183849 132.2964723 -13.1512041
  76.8290012 130.5314997 -11.3530012  76.4940012 129.6514997 -11.1810012
  77.0510012 130.8764997 -10.4880012  76.8131783 130.4577500 -11.2125792
  94.3770012 131.3404997  -8.3720012  94.3560012 131.5254997  -7.4330012
  95.0680012 131.9094997  -8.7130012  94.4674618 131.4426606  -8.2896136
  93.9410012 130.9084997  -5.4500012  93.4530012 130.1724997  -5.8210012
  94.4900012 130.5144997  -4.7720012  93.9484872 130.7546249  -5.4090840
  92.3910012 126.6974997  -0.8120012  91.5250012 126.5924997  -0.4180012
  92.7680012 127.4564997  -0.3660012  92.3233308 126.7856900  -0.6977607
  93.6920012 124.9544997 -15.2980012  94.5420012 125.3754997 -15.1710012
  93.6980012 124.2144997 -14.6910012  93.8091372 124.9120803 -15.1985656
  94.0870012 123.0074997 -13.4740012  93.3600012 122.5284997 -13.0770012
  94.6680012 123.2134997 -12.7420012  94.0659375 122.9697090 -13.3205871
  93.8460012 125.7924997  -8.5270012  94.6790012 125.4144997  -8.8070012
  93.9580012 126.7354997  -8.6460012  93.9752647 125.8682218  -8.5814513
  92.3320012 128.6704997  -6.2200012  91.6850012 128.9954997  -5.5940012
  91.8150012 128.2304997  -6.8940012  92.1734029 128.6555004  -6.2254173
  94.3550012 122.9084997 -17.0830012  93.8330012 123.2654997 -17.8020012
  94.3220012 123.5834997 -16.4050012  94.2791634 123.0485413 -17.0896855
  92.7040012 120.1484997 -18.5320012  92.8000012 120.8154997 -19.2130012
  92.5640012 119.3324997 -19.0140012  92.6982135 120.1294500 -18.6901509
  91.8730012 121.5284997 -12.9110012  91.7230012 120.5834997 -12.9320012
  91.5200012 121.8094997 -12.0680012  91.8046625 121.4370441 -12.7997654
  76.9090012 123.6064997  -8.9010012  77.0930012 123.5244997  -9.8370012
  77.7580012 123.4824997  -8.4770012  77.0490139 123.5785003  -8.9718545
  92.7300012 123.4984997  -3.2730012  93.3130012 122.7644997  -3.0810012
  93.2940012 124.2704997  -3.2260012  92.8859769 123.5024227  -3.2403841
  94.2260012 121.4014997  -2.5880012  93.3630012 121.0224997  -2.7540012
  94.8310012 120.6624997  -2.6620012  94.1895979 121.2498023  -2.6207183
  91.9510012 117.5564997 -19.4150012  92.5620012 117.1854997 -18.7780012
  91.1150012 117.1354997 -19.2190012  91.9215032 117.4487554 -19.3012965
  91.5840012 119.1114997 -14.4490012  91.8640012 118.2044997 -14.3250012
  92.3430012 119.5454997 -14.8380012  91.7249277 119.0460942 -14.4846318
  92.1960012 119.6924997  -9.0130012  93.1290012 119.9044997  -9.0470012
  91.9610012 119.7944997  -8.0910012  92.2918036 119.7352769  -8.8930024
  92.2250012 120.4294997  -6.2370012  91.3820012 120.6974997  -5.8710012
  92.6670012 121.2514997  -6.4480012  92.1694158 120.5773291  -6.2154509
  76.5060012 118.8774997  -2.7600012  77.4260012 118.7554997  -2.5240012
  76.0570012 118.1274997  -2.3710012  76.5711580 118.7593727  -2.6750994
  94.5080012 114.4094997  -0.8840012  94.8580012 113.7554997  -1.4890012
  94.6550012 115.2464997  -1.3230012  94.5758419 114.4331591  -1.0262882
  92.1970012 116.3744997 -14.4010012  92.3800012 115.9254997 -13.5750012
  91.5980012 115.7894997 -14.8640012  92.1410202 116.2339975 -14.3506725
  77.7270012 117.1894997  -9.8690012  78.1730012 116.3974997  -9.5670012
  78.1940012 117.9054997  -9.4380012  77.8510172 117.1780624  -9.7695180
  76.0310012 120.1884997  -8.8000012  76.5230012 119.9674997  -9.5910012
  76.3940012 121.0294997  -8.5190012  76.1473126 120.2718357  -8.8702469
  94.0280012 116.5184997  -2.5340012  93.1100012 116.7894997  -2.5700012
  94.1510012 115.9834997  -3.3190012  93.9191066 116.4832892  -2.6449513
  94.0640012 116.4414997 -17.8730012  94.4760012 115.7204997 -18.3480012
  94.7460012 117.1114997 -17.8140012  94.2125885 116.4332368 -17.9301085
  76.3450012 116.4464997 -14.7460012  75.4200012 116.6554997 -14.8750012
  76.7990012 116.9304997 -15.4350012  76.2797368 116.5405993 -14.8568774
  91.1160012 131.4304997 -12.8000012  91.7680012 131.0834997 -13.4080012
  91.6260012 131.9194997 -12.1540012  91.2742637 131.4490597 -12.7959764
  76.3090012 115.1844997  -6.4010012  75.6440012 114.9384997  -5.7580012
  75.8660012 115.8064997  -6.9790012  76.1580956 115.2348632  -6.3910648
  78.5010012 128.3594997  -2.2570012  77.6800012 128.5344997  -2.7170012
  78.2480012 128.2864997  -1.3360012  78.3546164 128.3735622  -2.1955077
  81.4550012 129.3344997  -5.9980012  81.0300012 130.1434997  -6.2810012
  82.3590012 129.4194997  -6.3000012  81.5190271 129.4568469  -6.0776224
  85.7660012 130.7334997  -3.0390012  85.9510012 130.3994997  -2.1610012
  86.6120012 131.0424997  -3.3610012  85.9057539 130.7296047  -2.9624395
  88.1110012 132.0194997  -3.7950012  88.7880012 131.3864997  -4.0350012
  88.4330012 132.4204997  -2.9880012  88.2471637 131.9871154  -3.7187207
  93.0280012 114.6084997  -4.7150012  92.2160012 114.9334997  -5.1030012
  93.2610012 113.8484997  -5.2480012  92.9483423 114.5502436  -4.8401747
  78.8570012 132.5904997  -5.9510012  78.1360012 133.0304997  -6.4020012
  78.4910012 132.3394997  -5.1020012  78.7089804 132.6167698  -5.8980160
  81.3240012 132.1904997  -6.9210012  80.4590012 132.2624997  -6.5170012
  81.2690012 132.7374997  -7.7050012  81.1982085 132.2742685  -6.9716638
  86.0340012 132.0784997  -7.7460012  85.5780012 132.6074997  -8.4000012
  86.1970012 132.6814997  -7.0200012  85.9935585 132.2324468  -7.7374938
  88.3620012 130.9564997  -6.8010012  87.4570012 131.1214997  -7.0660012
  88.7910012 131.8094997  -6.8660012  88.2960799 131.0944483  -6.8460818
  90.9660012 132.5264997  -6.5060012  90.7840012 133.4424997  -6.7160012
  91.1430012 132.1164997  -7.3520012  90.9650210 132.5964822  -6.6492115
  78.2710012 131.2134997  -9.0410012  78.2530012 130.7884997  -8.1830012
  79.0760012 130.8954997  -9.4490012  78.3773875 131.1123812  -8.9788345
  80.4130012 129.9234997 -10.3860012  80.1940012 129.0074997 -10.2160012
  81.2370012 130.0634997  -9.9200012  80.4944420 129.8170520 -10.2997226
  82.9500012 130.3934997  -9.5370012  83.1630012 129.5054997  -9.8240012
  83.0140012 130.3594997  -8.5830012  82.9878232 130.2673102  -9.4472603
  86.4580012 116.0574997 -10.3930012  85.7840012 115.4284997 -10.1370012
  87.0220012 115.5734997 -10.9960012  86.4419230 115.9058744 -10.4394660
  91.6010012 114.1654997 -10.2800012  92.2050012 114.7124997 -10.7820012
  90.7310012 114.4844997 -10.5200012  91.5661241 114.2835806 -10.3812346
  93.3280012 115.3034997 -11.9470012  93.9400012 114.7894997 -12.4730012
  93.7100012 116.1814997 -11.9230012  93.4634540 115.3517140 -12.0158170
  78.7850012 114.6914997 -12.5710012  78.0080012 114.4574997 -13.0780012
  79.3150012 113.8944997 -12.5620012  78.7502330 114.5516988 -12.6392258
  77.6210012 114.4894997 -16.7670012  78.0600012 115.1004997 -17.3590012
  76.9880012 115.0274997 -16.2930012  77.5954514 114.6459257 -16.7839070
  83.3640012 114.6184997 -12.7570012  84.2390012 115.0064997 -12.7870012
  83.2280012 114.4034997 -11.8350012  83.4653695 114.6425184 -12.6363560
  88.9210012 114.6484997 -11.1080012  88.9970012 114.7434997 -12.0580012
  88.6460012 113.7404997 -10.9790012  88.8942321 114.5387867 -11.2204921
  90.2740012 114.6744997 -15.4160012  89.5720012 115.2894997 -15.6250012
  89.8300012 113.8364997 -15.2850012  90.1176330 114.6455783 -15.4269672
  77.5220012 130.4374997 -15.8690012  76.8370012 130.3994997 -16.5370012
  77.5260012 131.3504997 -15.5810012  77.4288193 130.5557016 -15.9214716
  79.4820012 116.4054997 -18.3250012  79.9740012 115.7754997 -18.8520012
  80.1060012 116.7014997 -17.6610012  79.6335446 116.3593199 -18.3074020
  84.5080012 116.6984997 -15.8680012  84.6860012 116.0524997 -15.1850012
  84.4550012 117.5324997 -15.4000012  84.5251829 116.7227985 -15.7114060
  86.3870012 131.6474997 -17.4720012  87.2530012 132.0134997 -17.6500012
  86.1400012 131.2074997 -18.2860012  86.4722392 131.6381756 -17.6063711
  93.0960012 131.2104997 -14.7930012  92.9010012 130.4624997 -15.3580012
  93.0570012 131.9684997 -15.3760012  93.0640380 131.2106099 -14.9491616
  78.7430012 115.2054997  -3.0530012  78.3770012 114.4404997  -2.6100012
  79.6560012 115.2344997  -2.7660012  78.8162790 115.1047224  -2.9535930
  80.7160012 114.5564997  -1.5170012  81.6140012 114.2824997  -1.7020012
  80.3290012 113.8134997  -1.0530012  80.7866612 114.4185914  -1.4796357
  79.3400012 131.3574997 -18.8440012  79.0730012 131.6444997 -17.9710012
  80.1120012 130.8114997 -18.6920012  79.4077488 131.3230294 -18.7038950
  89.1370012 113.8884997  -1.3350012  89.2140012 113.4624997  -0.4810012
  90.0310012 113.9024997  -1.6780012  89.2683428 113.8320879  -1.2644690
  92.3130012 129.9614997  -2.6430012  91.5310012 129.7754997  -3.1620012
  92.2410012 130.8904997  -2.4250012  92.1961777 130.0616492  -2.6845952
 106.7190012 123.8474997 -12.6120012 106.8080012 124.7914997 -12.7440012
 106.0810012 123.5724997 -13.2700012 106.6449081 123.9394830 -12.7190386
 105.6520012 123.1024997  -9.1930012 105.6140012 122.4564997  -8.4880012
 105.3300012 122.6364997  -9.9640012 105.6032333 122.9509408  -9.2007022
  98.0210012 122.7174997  -7.6000012  98.0620012 122.0914997  -6.8770012
  98.7240012 123.3414997  -7.4180012  98.1216363 122.7161196  -7.4763956
 109.3580012 126.0414997 -10.8920012 108.9180012 125.3214997 -10.4410012
 109.3450012 126.7624997 -10.2620012 109.2960226 126.0403731 -10.7451506
  98.9440012 127.1674997  -9.0650012  98.5750012 126.3654997  -9.4350012
  99.8850012 126.9984997  -9.0190012  99.0207289 127.0350153  -9.1093684
  95.5540012 120.8274997 -13.6720012  95.1070012 121.6734997 -13.6910012
  94.9930012 120.2474997 -14.1880012  95.4169900 120.8649916 -13.7443199
  96.2650012 122.9894997 -11.5460012  96.4780012 122.2194997 -11.0190012
  97.0030012 123.0784997 -12.1500012  96.3938496 122.8961394 -11.5554700
 106.4700012 131.1464997 -10.6790012 107.0900012 130.4694997 -10.9530012
 106.2620012 130.9284997  -9.7710012 106.5266904 131.0243870 -10.5936635
 104.0420012 125.5354997  -8.7870012 104.3460012 124.8494997  -9.3820012
 104.7630012 125.6534997  -8.1690012 104.1810671 125.4576304  -8.7848184
 112.7050012 117.1364997  -7.9260012 112.7540012 117.7464997  -7.1900012
 113.1300012 117.5974997  -8.6490012 112.7691824 117.2823741  -7.9229795
 107.1830012 119.9294997  -8.4590012 107.3250012 118.9834997  -8.4390012
 107.0760012 120.1364997  -9.3880012 107.1879864 119.8279534  -8.5817661
 100.3370012 118.0304997 -11.1870012 100.3810012 118.8904997 -11.6050012
  99.8800012 117.4784997 -11.8210012 100.2812185 118.0735799 -11.3299701
 108.0600012 118.1614997 -12.7860012 108.7060012 117.8324997 -12.1610012
 108.5700012 118.6794997 -13.4090012 108.2174264 118.1864611 -12.7846138
  96.9580012 120.4274997 -10.4250012  97.6110012 119.8774997  -9.9930012
  96.9820012 120.1534997 -11.3420012  97.0506683 120.3151466 -10.4897877
 102.1140012 121.9774997 -11.2100012 102.7300012 121.4514997 -10.7000012
 101.5280012 121.3374997 -11.6130012 102.1190810 121.8189208 -11.1946827
 113.0960012 118.6144997  -5.6900012 112.4080012 119.2724997  -5.7860012
 113.1120012 118.4174997  -4.7540012 113.0038525 118.6780462  -5.5765192
  99.1480012 116.9484997  -7.1130012  98.9290012 117.4784997  -7.8790012
  98.4800012 117.1754997  -6.4660012  99.0277600 117.0516906  -7.1303621
 106.5170012 126.4484997 -13.5690012 106.2210012 126.1264997 -14.4200012
 106.1920012 127.3484997 -13.5280012 106.4326371 126.5260215 -13.6798199
 101.7170012 124.6244997  -6.8260012 100.9770012 125.2224997  -6.7220012
 102.4310012 125.1784997  -7.1410012 101.7122237 124.7812831  -6.8543535
 109.8240012 117.4524997 -10.8060012 109.6080012 116.6864997 -10.2730012
 110.4790012 117.9244997 -10.2930012 109.8830632 117.4115889 -10.6637139
  98.7410012 118.8404997  -9.1610012  99.3550012 119.4734997  -8.7870012
  99.2530012 118.3684997  -9.8170012  98.8942296 118.8632370  -9.1985748
 100.1240012 126.5884997  -6.0380012 100.1190012 127.4684997  -6.4160012
  99.2710012 126.5054997  -5.6130012 100.0079464 126.6976117  -6.0322093
  96.2450012 126.2594997 -15.2560012  95.9730012 126.4884997 -16.1450012
  96.2910012 127.0974997 -14.7960012  96.2140094 126.4041213 -15.3154303
 109.8700012 127.8814997  -8.5440012 108.9290012 127.9394997  -8.3820012
 110.1470012 128.7874997  -8.6810012 109.7784679 128.0119443  -8.5403185
 110.1710012 116.1674997  -7.1260012 109.4350012 116.7784997  -7.1640012
 110.8540012 116.5824997  -7.6530012 110.1626541 116.3071374  -7.2024168
 103.1740012 114.2544997  -9.6600012 103.0570012 113.3054997  -9.7150012
 102.3190012 114.5864997  -9.3870012 103.0423733 114.1695409  -9.6306103
 108.1220012 129.6624997 -11.9180012 108.5480012 128.9554997 -12.4030012
 108.4390012 130.4634997 -12.3350012 108.2231019 129.6740994 -12.0406870
 109.2820012 127.5634997 -13.4100012 109.0240012 126.8734997 -14.0210012
 109.3530012 127.1204997 -12.5640012 109.2562856 127.4092124 -13.3793115
 110.9680012 126.1294997  -4.9320012 111.1080012 125.5384997  -5.6720012
 111.1350012 127.0024997  -5.2890012 111.0096778 126.1666426  -5.0813035
 105.4410012 123.0914997 -15.1600012 104.7290012 123.6264997 -15.5120012
 106.1320012 123.1474997 -15.8200012 105.4370132 123.1722543 -15.2973711
 105.4940012 121.5494997 -18.1210012 106.1950012 121.5714997 -17.4700012
 105.7970012 120.9214997 -18.7770012 105.6307830 121.4676566 -18.1206289
 112.8100012 122.4694997  -6.8660012 112.1570012 123.1644997  -6.7770012
 113.2750012 122.6794997  -7.6760012 112.7835390 122.5929425  -6.9633117
 108.8460012 123.3014997 -14.2080012 108.1140012 123.5294997 -13.6350012
 109.2940012 122.5874997 -13.7530012 108.8063095 123.2362571 -14.0680881
 108.7440012 121.4754997  -5.1410012 108.8240012 122.2384997  -4.5690012
 108.1420012 121.7544997  -5.8310012 108.6735756 121.6177134  -5.1559411
 100.4920012 123.9314997 -12.3260012 100.1610012 123.5614997 -13.1440012
 101.0800012 123.2614997 -11.9790012 100.5261873 123.7901156 -12.3911898
 101.8580012 127.3594997  -9.6440012 101.7640012 126.7814997 -10.4010012
 102.5880012 126.9884997  -9.1480012 101.9437981 127.2302390  -9.6805835
 100.8580012 122.7004997  -8.6920012 101.4240012 122.8214997  -9.4550012
 101.1770012 123.3374997  -8.0530012 100.9785786 122.8031884  -8.7099960
 107.1670012 128.2034997  -7.9580012 106.9270012 128.8654997  -7.3100012
 106.9690012 127.3694997  -7.5330012 107.1073808 128.1813134  -7.8118476
 101.7380012 127.0994997  -3.9750012 101.4270012 127.8814997  -3.5200012
 101.0880012 126.9464997  -4.6610012 101.6075558 127.1859105  -4.0054129
 107.7170012 122.4634997 -16.5230012 108.2970012 122.6134997 -15.7760012
 108.1310012 122.9344997 -17.2460012 107.8522830 122.5476841 -16.5185866
  98.6580012 123.2974997  -4.7460012  98.7290012 123.9484997  -4.0480012
  97.7680012 123.4004997  -5.0810012  98.5473117 123.4005936  -4.6957300
 105.4440012 129.2004997 -13.0880012 105.9180012 129.4954997 -12.3100012
 104.8810012 129.9384997 -13.3210012 105.4327653 129.3406932 -13.0129864
  99.9780012 129.1714997  -3.2120012  99.9850012 129.0354997  -4.1590012
  99.0620012 129.0534997  -2.9600012  99.8551714 129.1369430  -3.3075334
 111.4160012 114.2134997 -16.7100012 110.5160012 114.3524997 -16.4150012
 111.6680012 115.0444997 -17.1120012 111.3268702 114.3449074 -16.7239795
  99.4820012 123.0014997 -14.7360012  99.1900012 123.7694997 -15.2270012
  98.8080012 122.3414997 -14.8990012  99.3509081 123.0174406 -14.8252660
 112.6050012 128.5794997 -18.3340012 112.6790012 129.5184997 -18.1630012
 113.5110012 128.2744997 -18.3900012 112.7375100 128.6666722 -18.3181881
  95.5750012 125.3644997  -5.9210012  95.0740012 125.3364997  -6.7360012
  95.5800012 124.4584997  -5.6120012  95.5071526 125.2382278  -5.9907128
  95.3250012 128.1444997  -9.0370012  96.2710012 128.0004997  -9.0560012
  95.2130012 128.9284997  -8.5000012  95.4392727 128.2308046  -8.9669928
 113.5230012 128.8104997  -3.3550012 113.4740012 127.8554997  -3.3920012
 112.6960012 129.0784997  -2.9540012 113.4044940 128.7158998  -3.3058625
 104.5020012 128.3844997  -4.4790012 104.5890012 129.2104997  -4.0040012
 103.6380012 128.0544997  -4.2300012 104.3971964 128.4529878  -4.3803451
 104.9160012 132.1564997 -14.6730012 104.8410012 132.0354997 -15.6190012
 104.9490012 133.1064997 -14.5540012 104.9101848 132.2682500 -14.7865166
  98.5690012 130.9454997 -12.8920012  98.7220012 130.5974997 -12.0130012
  97.7190012 130.5894997 -13.1470012  98.4748962 130.8496650 -12.8061660
 108.0180012 131.3104997 -17.6710012 108.3930012 130.5664997 -18.1410012
 108.0220012 131.0404997 -16.7520012 108.0698915 131.1721486 -17.6112176
 107.6870012 131.2364997 -14.9210012 106.7510012 131.3364997 -14.7430012
 107.9670012 130.5274997 -14.3430012 107.5968255 131.1542711 -14.8184609
 110.6750012 120.3034997  -2.8750012 110.2680012 120.7844997  -3.5960012
 110.7160012 119.3984997  -3.1830012 110.6248437 120.2469374  -3.0153317
  97.8240012 126.6874997  -4.8780012  98.0400012 126.3264997  -4.0190012
  96.9690012 126.3134997  -5.0880012  97.7379292 126.5874111  -4.7886614
 100.4430012 115.1574997  -8.8830012  99.5810012 115.0704997  -9.2900012
 100.4200012 116.0134997  -8.4550012 100.3220330 115.2612765  -8.8808137
 105.1060012 114.8794997  -5.5080012 105.5260012 114.4644997  -4.7550012
 104.1730012 114.7014997  -5.3910012 105.0373644 114.7985900  -5.3890461
 108.4320012 118.6354997  -4.6550012 107.9180012 118.5094997  -3.8570012
 108.2770012 119.5474997  -4.8990012 108.3406852 118.7416132  -4.5787842
 109.1950012 123.4964997 -18.8930012 109.2370012 123.2734997 -19.8230012
 110.0440012 123.8954997 -18.7030012 109.3155396 123.5199155 -18.9946373
 104.7670012 117.3724997 -18.2230012 104.5140012 117.3914997 -17.3000012
 104.5110012 116.5004997 -18.5240012 104.6977790 117.2572437 -18.1373737
 100.5340012 120.1234997  -7.7880012  99.8920012 120.0824997  -7.0790012
 100.5710012 121.0494997  -8.0250012 100.4511324 120.2431559  -7.7230176
 100.5310012 120.3444997 -12.8760012  99.6380012 120.0034997 -12.9340012
 100.9810012 119.9674997 -13.6310012 100.4697305 120.2468484 -12.9860823
 106.0660012 120.7604997 -14.0590012 105.6570012 121.5754997 -14.3500012
 106.7870012 120.6204997 -14.6730012 106.1074537 120.8532018 -14.1818658
 105.1680012 120.9354997  -2.5710012 104.6060012 120.2314997  -2.2500012
 105.9950012 120.8154997  -2.1030012 105.2027095 120.8227883  -2.4637670
 107.0710012 120.2064997 -11.2450012 106.8760012 120.8114997 -11.9600012
 107.2520012 119.3724997 -11.6790012 107.0687614 120.1766300 -11.4015595
  98.2840012 120.4434997  -5.9210012  98.2460012 120.8434997  -5.0520012
  97.7930012 119.6264997  -5.8300012  98.2124684 120.3878069  -5.7898941
 101.6500012 117.8174997 -19.1220012 101.2190012 117.3724997 -18.3920012
 100.9320012 118.1894997 -19.6340012 101.4939438 117.8068940 -19.0913201
  94.8920012 117.5594997 -12.0700012  95.5230012 117.5304997 -11.3510012
  95.3410012 117.1344997 -12.8000012  95.0390774 117.4980492 -12.0703447
  96.1660012 118.3054997 -16.6460012  96.6400012 118.8964997 -17.2310012
  95.4490012 118.8364997 -16.2990012  96.1339341 118.4580867 -16.6791164
 106.3350012 121.8444997  -6.5730012 106.6580012 121.2134997  -7.2160012
 105.8950012 121.3094997  -5.9130012 106.3196895 121.6858441  -6.5717150
 103.1120012 117.7714997 -11.7890012 102.2010012 117.8284997 -11.5010012
 103.6180012 117.7114997 -10.9790012 103.0555413 117.7711985 -11.6399378
  97.9410012 119.4004997 -12.9630012  97.0510012 119.5004997 -13.3030012
  98.2370012 118.5584997 -13.3090012  97.8592823 119.3003545 -13.0562787
 101.5940012 119.4004997 -15.3060012 102.5250012 119.5294997 -15.1280012
 101.3790012 120.0704997 -15.9560012 101.6924247 119.5086565 -15.3694253
 107.5170012 117.0064997  -8.5250012 106.8410012 117.1374997  -7.8610012
 107.0320012 116.8514997  -9.3350012 107.3587145 117.0034905  -8.5435483
 100.2680012 120.5954997 -17.7390012  99.7250012 120.2154997 -18.4310012
 101.1010012 120.7894997 -18.1680012 100.3064399 120.5698124 -17.8915474
 110.8050012 132.6784997  -2.2480012 111.0050012 133.1024997  -3.0830012
 111.4600012 133.0214997  -1.6410012 110.9210051 132.7829648  -2.2802164
  98.4030012 125.1524997  -2.6400012  99.1350012 125.4064997  -2.0790012
  97.6230012 125.3564997  -2.1250012  98.3978232 125.2149177  -2.4934240
 104.4320012 120.5594997  -9.9020012 104.9970012 120.0124997 -10.4490012
 104.2850012 120.0374997  -9.1140012 104.4892918 120.4142024  -9.8701546
  99.4340012 116.6954997 -13.4840012  99.1170012 115.7934997 -13.5190012
 100.2160012 116.6974997 -14.0370012  99.4962284 116.5721628 -13.5635217
 103.0590012 118.9474997  -7.4880012 102.2230012 119.4014997  -7.3780012
 103.5830012 119.2234997  -6.7360012 103.0154414 119.0469376  -7.3712864
 103.6030012 125.1604997 -15.8040012 102.8580012 124.6534997 -16.1260012
 103.4690012 125.2094997 -14.8570012 103.4828776 125.0976940 -15.7201353
 110.7530012 124.2934997  -7.0170012 111.3950012 124.7504997  -7.5610012
 109.9230012 124.4064997  -7.4800012 110.7285963 124.3712704  -7.1539823
 107.5010012 117.9744997 -17.6040012 106.5620012 118.0864997 -17.7560012
 107.7980012 118.8314997 -17.2980012 107.4127666 118.1056443 -17.5834232
 105.1220012 125.3444997  -4.5670012 104.7770012 124.9634997  -3.7600012
 104.9220012 126.2784997  -4.4950012 105.0478061 125.4185228  -4.4469039
 108.2190012 119.8414997 -15.9440012 109.1110012 119.7044997 -15.6250012
 108.2760012 120.6324997 -16.4800012 108.3486285 119.9296660 -15.9728310
  98.7280012 124.4554997 -10.0340012  99.4730012 124.4534997 -10.6350012
  98.8060012 123.6324997  -9.5520012  98.8405518 124.3439315 -10.0511071
 105.7290012 126.6194997 -16.7780012 105.4330012 127.4454997 -16.3970012
 105.0260012 125.9994997 -16.5820012 105.5934914 126.6488199 -16.6993557
  95.7360012 122.9164997  -4.7190012  95.9590012 122.4984997  -3.8870012
  95.1340012 122.3034997  -5.1420012  95.6851759 122.7764668  -4.6622978
 102.7520012 122.4334997  -2.5060012 102.4560012 122.2674997  -3.4010012
 103.6840012 122.2134997  -2.5170012 102.8374166 122.3810640  -2.6299464
 107.3730012 127.8064997  -4.6160012 106.4720012 127.9894997  -4.8840012
 107.4070012 128.0654997  -3.6950012 107.2543041 127.8665512  -4.5281803
 113.1040012 120.0514997 -16.2490012 112.5500012 119.6554997 -16.9210012
 113.2040012 120.9614997 -16.5270012 113.0417059 120.1203586 -16.3785599
 113.0670012 125.8514997  -3.4120012 112.2160012 126.0894997  -3.7790012
 113.6580012 125.8344997  -4.1650012 113.0302487 125.8818258  -3.5641107
 111.3990012 128.8374997 -15.7840012 111.0260012 128.0114997 -15.4750012
 111.6770012 128.6544997 -16.6810012 111.3855630 128.6997303 -15.8630374
 108.5600012 123.6454997  -8.7630012 107.6310012 123.4134997  -8.7900012
 109.0110012 122.8684997  -9.0930012 108.4939216 123.5087238  -8.8113083
 101.1030012 127.9734997 -12.6300012 101.6300012 128.7464997 -12.8300012
 100.2230012 128.1984997 -12.9310012 101.0561773 128.1098005 -12.6980990
  96.8580012 122.8354997 -18.0430012  97.4740012 123.4624997 -17.6630012
  95.9960012 123.1514997 -17.7710012  96.8257698 122.9639430 -17.9542817
 102.5300012 125.6364997 -13.0530012 102.2890012 126.5614997 -13.0120012
 101.7890012 125.1774997 -12.6570012 102.3968409 125.7011421 -12.9938623
 103.0450012 129.7854997  -6.7380012 103.4070012 130.6404997  -6.9720012
 103.5760012 129.4934997  -5.9980012 103.1664473 129.8631060  -6.6699145
 101.2130012 130.6584997 -13.5080012 100.2630012 130.7634997 -13.4570012
 101.5650012 131.4784997 -13.1630012 101.1304203 130.7838314 -13.4543350
 106.5890012 125.8844997  -7.0380012 106.1630012 125.6574997  -6.2110012
 107.1690012 125.1464997  -7.2200012 106.6091868 125.7535299  -6.9494170
 108.7920012 126.8134997 -17.9640012 109.1450012 126.4334997 -17.1590012
 107.8430012 126.7204997 -17.8770012 108.7120441 126.7489596 -17.8421441
 109.2470012 130.4364997  -4.5680012 108.6460012 129.8814997  -5.0640012
 109.5290012 131.1034997  -5.1940012 109.2028519 130.4506841  -4.7205048
 113.2950012 131.2934997 -17.7630012 114.0390012 131.8794997 -17.9030012
 112.6010012 131.8614997 -17.4290012 113.3030292 131.4505582 -17.7370039
  97.3700012 117.6694997  -5.1610012  96.4770012 118.0084997  -5.2290012
  97.2710012 116.8144997  -4.7430012  97.2344164 117.6002588  -5.1137765
 109.6580012 125.4864997 -15.7370012 109.3800012 124.7584997 -15.1810012
 110.5850012 125.6054997 -15.5320012 109.7453124 125.4028802 -15.6331155
  97.0210012 129.4744997  -6.7260012  97.2380012 128.5424997  -6.7570012
  97.2670012 129.7484997  -5.8430012  97.0839549 129.3840636  -6.6108237
 102.8830012 127.9254997 -19.5170012 103.1220012 127.1774997 -20.0640012
 102.6140012 127.5374997 -18.6840012 102.8793675 127.7706638 -19.4793135
 101.8200012 127.4954997 -17.0600012 101.9660012 126.9754997 -16.2700012
 101.8170012 128.4024997 -16.7540012 101.8395989 127.5468853 -16.9103912
  98.2730012 124.7484997 -16.5500012  97.5870012 125.1004997 -15.9830012
  98.7950012 125.5114997 -16.7970012  98.2496852 124.8998578 -16.5057882
 106.1040012 117.4104997  -6.2710012 106.8030012 117.4844997  -5.6210012
 105.7230012 116.5464997  -6.1170012 106.1481767 117.3037624  -6.1611678
 106.8890012 117.0624997 -15.1740012 107.1090012 117.5344997 -15.9770012
 107.4470012 117.4574997 -14.5040012 106.9944968 117.1804285 -15.1932669
 104.5570012 129.1934997 -16.3110012 103.7410012 129.6904997 -16.2590012
 105.0870012 129.6684997 -16.9510012 104.5169161 129.3257722 -16.3904044
 104.0890012 118.7904997 -14.3390012 104.9010012 119.2954997 -14.2930012
 103.8440012 118.6454997 -13.4250012 104.1670520 118.8400375 -14.2091483
 104.6240012 119.7764997  -5.1540012 104.7430012 120.3504997  -4.3970012
 105.2800012 119.0884997  -5.0400012 104.7289757 119.7621079  -5.0349175
 104.9720012 115.8714997 -13.4010012 104.6260012 116.4894997 -12.7560012
 105.6310012 116.3724997 -13.8820012 105.0137826 116.0235802 -13.3779029
 101.8960012 130.2374997 -16.3290012 102.0560012 131.0364997 -16.8300012
 101.6980012 130.5434997 -15.4440012 101.8911649 130.3884469 -16.2780185
 100.6300012 116.9344997 -16.7140012 100.5470012 117.8234997 -16.3670012
 101.5200012 116.6694997 -16.4820012 100.7389469 117.0201430 -16.6352374
 110.8290012 117.6834997  -4.3190012 109.9120012 117.9464997  -4.4070012
 111.1640012 117.6804997  -5.2160012 110.7489900 117.7190224  -4.4522081
 109.4310012 121.4344997 -10.2240012 108.6330012 121.0194997 -10.5520012
 109.8760012 120.7434997  -9.7330012 109.3819885 121.2843543 -10.2025111
  98.8890012 127.3624997 -17.6530012  99.4810012 128.0614997 -17.3770012
  99.3480012 126.9294997 -18.3730012  99.0321142 127.3997049 -17.7125170
  97.2050012 120.0264997 -18.5370012  97.1600012 120.9654997 -18.3590012
  96.3170012 119.7904997 -18.8070012  97.0788574 120.1231892 -18.5491088
 110.5170012 130.6904997  -8.6010012 110.3620012 131.3684997  -9.2580012
 111.4500012 130.7624997  -8.3980012 110.6218500 130.7930170  -8.6634881
  98.0130012 114.8084997  -9.8640012  97.7840012 114.8674997 -10.7920012
  97.5700012 114.0164997  -9.5580012  97.9218530 114.7095753  -9.9495214
  96.9430012 128.7484997 -13.7040012  96.1110012 129.2214997 -13.6760012
  97.4890012 129.2584997 -14.3020012  96.9029739 128.8821871 -13.7810284
  96.2310012 131.3614997  -2.3740012  96.7720012 131.1444997  -1.6140012
  95.7500012 130.5554997  -2.5630012  96.2399345 131.2229514  -2.2956924
 100.8290012 130.2804997  -0.7530012 101.5960012 129.8214997  -0.4120012
 100.8070012 130.0544997  -1.6830012 100.9311434 130.1870409  -0.8319957
 104.9210012 129.7884997 -19.3780012 104.2770012 129.1574997 -19.0570012
 105.6830012 129.2574997 -19.6100012 104.9358077 129.6302920 -19.3653989
 107.4060012 128.6604997  -2.0240012 107.0550012 127.8044997  -1.7810012
 108.1320012 128.8034997  -1.4170012 107.4560769 128.5625636  -1.9086381
 109.5250012 129.6054997 -19.1440012 109.8080012 128.8114997 -18.6920012
 110.2650012 129.8384997 -19.7050012 109.6637486 129.5282803 -19.1579302
  96.1380012 125.1714997  -1.4190012  96.2820012 124.2694997  -1.7060012
  95.3660012 125.4574997  -1.9070012  96.0533322 125.0868261  -1.5242119
 100.4800012 125.5154997 -19.2870012 100.5440012 124.7214997 -18.7560012
 101.1330012 125.3964997 -19.9770012 100.5770241 125.3907148 -19.3075683
 102.7940012 125.1414997  -1.9870012 102.4650012 125.4124997  -2.8440012
 102.9460012 124.2004997  -2.0740012 102.7694809 125.0513862  -2.1161756
 108.5280012 125.0574997  -4.6030012 109.2740012 125.6454997  -4.7230012
 107.7710012 125.6394997  -4.5400012 108.5277554 125.2167011  -4.6109093
  96.9710012 122.3714997  -1.9990012  97.3790012 121.5144997  -2.1200012
  96.7110012 122.3864997  -1.0780012  96.9917568 122.2560807  -1.8910412
 101.6290012 123.4874997 -16.9810012 101.1690012 123.0034997 -16.2950012
 101.8840012 122.8194997 -17.6170012 101.6004902 123.3308731 -16.9730666
 100.9180012 121.3804997  -4.6250012 100.3000012 122.0554997  -4.3450012
 101.2620012 121.7014997  -5.4580012 100.8799615 121.5162721  -4.6993419
 102.7000012 121.7304997 -18.7190012 102.5200012 121.5764997 -19.6460012
 103.6500012 121.8384997 -18.6740012 102.8037776 121.7240175 -18.8398157
 105.9380012 123.8524997  -1.3480012 106.8910012 123.9354997  -1.3750012
 105.7770012 123.1404997  -0.7280012 106.0466426 123.7676746  -1.2679421
 112.0900012 124.0854997 -19.2730012 111.8160012 123.6604997 -20.0860012
 112.1290012 125.0164997 -19.4900012 112.0577699 124.1532484 -19.4136390
 101.2570012 118.7354997  -3.5430012 101.4070012 118.0064997  -4.1450012
 101.2600012 119.5124997  -4.1020012 101.2779302 118.7407851  -3.7009308
 101.6700012 117.1054997  -6.0500012 102.2060012 117.5564997  -6.7020012
 100.8180012 116.9974997  -6.4730012 101.6282178 117.1526390  -6.1964244
 103.2520012 122.5444997  -5.8110012 104.0020012 122.3884997  -6.3840012
 102.9130012 123.3964997  -6.0860012 103.3088921 122.6382968  -5.9266439
 107.6670012 120.3594997  -0.7820012 107.8600012 119.4284997  -0.8940012
 108.5250012 120.7844997  -0.7920012 107.8093020 120.2896389  -0.7986639
 108.9840012 123.1484997  -2.7050012 108.7030012 123.8574997  -3.2820012
 109.9270012 123.0754997  -2.8560012 109.0729027 123.2357646  -2.8044449
  99.7360012 119.9334997  -1.6310012  98.9690012 119.4014997  -1.8410012
 100.4150012 119.6234997  -2.2310012  99.7227022 119.8187506  -1.7408352
 102.4760012 114.5614997  -5.6190012 102.3770012 115.5084997  -5.7240012
 101.7330012 114.1894997  -6.0940012 102.3620564 114.6405902  -5.6975440
 103.7400012 118.8834997  -2.0550012 103.5040012 118.6634997  -1.1530012
 102.9560012 118.6764997  -2.5650012 103.6018628 118.8254760  -2.0006068
 106.4550012 118.0104997  -2.9790012 105.5080012 118.0424997  -2.8470012
 106.7680012 117.3854997  -2.3260012 106.3675475 117.9303207  -2.8725545
 108.0890012 116.6444997  -0.9740012 107.9930012 115.6924997  -0.9800012
 107.7680012 116.9134997  -0.1140012 108.0324070 116.5504035  -0.8584559
  97.9160012 117.8544997  -1.9270012  98.1280012 117.1474997  -2.5370012
  97.8050012 117.4164997  -1.0830012  97.9299721 117.6987084  -1.8963157
 102.6970012 113.8554997  -2.9470012 103.4090012 113.2154997  -2.9610012
 102.5960012 114.1224997  -3.8610012 102.7807939 113.8039938  -3.0724350
 103.0510012 115.5384997  -0.8940012 102.9190012 115.0624997  -1.7140012
 102.4520012 116.2824997  -0.9490012 102.9519071 115.5739618  -1.0137114
 102.5970012 132.4214997 -17.7170012 103.5300012 132.5794997 -17.5740012
 102.3330012 133.0964997 -18.3420012 102.6889510 132.5343611 -17.7819259
  96.1660012 127.0574997 -18.2350012  97.0800012 127.1364997 -17.9610012
  96.1730012 126.3704997 -18.9010012  96.2921131 126.9753961 -18.2875607
  94.8150012 132.4504997 -13.1570012  94.1680012 131.9884997 -13.6900012
  95.1690012 131.7784997 -12.5750012  94.7743849 132.2964723 -13.1512041
  95.6850012 130.5314997 -11.3530012  95.3500012 129.6514997 -11.1810012
  95.9070012 130.8764997 -10.4880012  95.6691783 130.4577500 -11.2125792
 113.2330012 131.3404997  -8.3720012 113.2120012 131.5254997  -7.4330012
 113.9240012 131.9094997  -8.7130012 113.3234618 131.4426606  -8.2896136
 112.7970012 130.9084997  -5.4500012 112.3090012 130.1724997  -5.8210012
 113.3460012 130.5144997  -4.7720012 112.8044872 130.7546249  -5.4090840
 111.2470012 126.6974997  -0.8120012 110.3810012 126.5924997  -0.4180012
 111.6240012 127.4564997  -0.3660012 111.1793308 126.7856900  -0.6977607
 112.5480012 124.9544997 -15.2980012 113.3980012 125.3754997 -15.1710012
 112.5540012 124.2144997 -14.6910012 112.6651372 124.9120803 -15.1985656
 112.9430012 123.0074997 -13.4740012 112.2160012 122.5284997 -13.0770012
 113.5240012 123.2134997 -12.7420012 112.9219375 122.9697090 -13.3205871
 112.7020012 125.7924997  -8.5270012 113.5350012 125.4144997  -8.8070012
 112.8140012 126.7354997  -8.6460012 112.8312647 125.8682218  -8.5814513
 111.1880012 128.6704997  -6.2200012 110.5410012 128.9954997  -5.5940012
 110.6710012 128.2304997  -6.8940012 111.0294029 128.6555004  -6.2254173
 113.2110012 122.9084997 -17.0830012 112.6890012 123.2654997 -17.8020012
 113.1780012 123.5834997 -16.4050012 113.1351634 123.0485413 -17.0896855
 111.5600012 120.1484997 -18.5320012 111.6560012 120.8154997 -19.2130012
 111.4200012 119.3324997 -19.0140012 111.5542135 120.1294500 -18.6901509
 110.7290012 121.5284997 -12.9110012 110.5790012 120.5834997 -12.9320012
 110.3760012 121.8094997 -12.0680012 110.6606625 121.4370441 -12.7997654
  95.7650012 123.6064997  -8.9010012  95.9490012 123.5244997  -9.8370012
  96.6140012 123.4824997  -8.4770012  95.9050139 123.5785003  -8.9718545
 111.5860012 123.4984997  -3.2730012 112.1690012 122.7644997  -3.0810012
 112.1500012 124.2704997  -3.2260012 111.7419769 123.5024227  -3.2403841
 113.0820012 121.4014997  -2.5880012 112.2190012 121.0224997  -2.7540012
 113.6870012 120.6624997  -2.6620012 113.0455979 121.2498023  -2.6207183
 110.8070012 117.5564997 -19.4150012 111.4180012 117.1854997 -18.7780012
 109.9710012 117.1354997 -19.2190012 110.7775032 117.4487554 -19.3012965
 110.4400012 119.1114997 -14.4490012 110.7200012 118.2044997 -14.3250012
 111.1990012 119.5454997 -14.8380012 110.5809277 119.0460942 -14.4846318
 111.0520012 119.6924997  -9.0130012 111.9850012 119.9044997  -9.0470012
 110.8170012 119.7944997  -8.0910012 111.1478036 119.7352769  -8.8930024
 111.0810012 120.4294997  -6.2370012 110.2380012 120.6974997  -5.8710012
 111.5230012 121.2514997  -6.4480012 111.0254158 120.5773291  -6.2154509
  95.3620012 118.8774997  -2.7600012  96.2820012 118.7554997  -2.5240012
  94.9130012 118.1274997  -2.3710012  95.4271580 118.7593727  -2.6750994
 113.3640012 114.4094997  -0.8840012 113.7140012 113.7554997  -1.4890012
 113.5110012 115.2464997  -1.3230012 113.4318419 114.4331591  -1.0262882
 111.0530012 116.3744997 -14.4010012 111.2360012 115.9254997 -13.5750012
 110.4540012 115.7894997 -14.8640012 110.9970202 116.2339975 -14.3506725
  96.5830012 117.1894997  -9.8690012  97.0290012 116.3974997  -9.5670012
  97.0500012 117.9054997  -9.4380012  96.7070172 117.1780624  -9.7695180
  94.8870012 120.1884997  -8.8000012  95.3790012 119.9674997  -9.5910012
  95.2500012 121.0294997  -8.5190012  95.0033126 120.2718357  -8.8702469
 112.8840012 116.5184997  -2.5340012 111.9660012 116.7894997  -2.5700012
 113.0070012 115.9834997  -3.3190012 112.7751066 116.4832892  -2.6449513
 112.9200012 116.4414997 -17.8730012 113.3320012 115.7204997 -18.3480012
 113.6020012 117.1114997 -17.8140012 113.0685885 116.4332368 -17.9301085
  95.2010012 116.4464997 -14.7460012  94.2760012 116.6554997 -14.8750012
  95.6550012 116.9304997 -15.4350012  95.1357368 116.5405993 -14.8568774
 109.9720012 131.4304997 -12.8000012 110.6240012 131.0834997 -13.4080012
 110.4820012 131.9194997 -12.1540012 110.1302637 131.4490597 -12.7959764
  95.1650012 115.1844997  -6.4010012  94.5000012 114.9384997  -5.7580012
  94.7220012 115.8064997  -6.9790012  95.0140956 115.2348632  -6.3910648
  97.3570012 128.3594997  -2.2570012  96.5360012 128.5344997  -2.7170012
  97.1040012 128.2864997  -1.3360012  97.2106164 128.3735622  -2.1955077
 100.3110012 129.3344997  -5.9980012  99.8860012 130.1434997  -6.2810012
 101.2150012 129.4194997  -6.3000012 100.3750271 129.4568469  -6.0776224
 104.6220012 130.7334997  -3.0390012 104.8070012 130.3994997  -2.1610012
 105.4680012 131.0424997  -3.3610012 104.7617539 130.7296047  -2.9624395
 106.9670012 132.0194997  -3.7950012 107.6440012 131.3864997  -4.0350012
 107.2890012 132.4204997  -2.9880012 107.1031637 131.9871154  -3.7187207
 111.8840012 114.6084997  -4.7150012 111.0720012 114.9334997  -5.1030012
 112.1170012 113.8484997  -5.2480012 111.8043423 114.5502436  -4.8401747
  97.7130012 132.5904997  -5.9510012  96.9920012 133.0304997  -6.4020012
  97.3470012 132.3394997  -5.1020012  97.5649804 132.6167698  -5.8980160
 100.1800012 132.1904997  -6.9210012  99.3150012 132.2624997  -6.5170012
 100.1250012 132.7374997  -7.7050012 100.0542085 132.2742685  -6.9716638
 104.8900012 132.0784997  -7.7460012 104.4340012 132.6074997  -8.4000012
 105.0530012 132.6814997  -7.0200012 104.8495585 132.2324468  -7.7374938
 107.2180012 130.9564997  -6.8010012 106.3130012 131.1214997  -7.0660012
 107.6470012 131.8094997  -6.8660012 107.1520799 131.0944483  -6.8460818
 109.8220012 132.5264997  -6.5060012 109.6400012 133.4424997  -6.7160012
 109.9990012 132.1164997  -7.3520012 109.8210210 132.5964822  -6.6492115
  97.1270012 131.2134997  -9.0410012  97.1090012 130.7884997  -8.1830012
  97.9320012 130.8954997  -9.4490012  97.2333875 131.1123812  -8.9788345
  99.2690012 129.9234997 -10.3860012  99.0500012 129.0074997 -10.2160012
 100.0930012 130.0634997  -9.9200012  99.3504420 129.8170520 -10.2997226
 101.8060012 130.3934997  -9.5370012 102.0190012 129.5054997  -9.8240012
 101.8700012 130.3594997  -8.5830012 101.8438232 130.2673102  -9.4472603
 105.3140012 116.0574997 -10.3930012 104.6400012 115.4284997 -10.1370012
 105.8780012 115.5734997 -10.9960012 105.2979230 115.9058744 -10.4394660
 110.4570012 114.1654997 -10.2800012 111.0610012 114.7124997 -10.7820012
 109.5870012 114.4844997 -10.5200012 110.4221241 114.2835806 -10.3812346
 112.1840012 115.3034997 -11.9470012 112.7960012 114.7894997 -12.4730012
 112.5660012 116.1814997 -11.9230012 112.3194540 115.3517140 -12.0158170
  97.6410012 114.6914997 -12.5710012  96.8640012 114.4574997 -13.0780012
  98.1710012 113.8944997 -12.5620012  97.6062330 114.5516988 -12.6392258
  96.4770012 114.4894997 -16.7670012  96.9160012 115.1004997 -17.3590012
  95.8440012 115.0274997 -16.2930012  96.4514514 114.6459257 -16.7839070
 102.2200012 114.6184997 -12.7570012 103.0950012 115.0064997 -12.7870012
 102.0840012 114.4034997 -11.8350012 102.3213695 114.6425184 -12.6363560
 107.7770012 114.6484997 -11.1080012 107.8530012 114.7434997 -12.0580012
 107.5020012 113.7404997 -10.9790012 107.7502321 114.5387867 -11.2204921
 109.1300012 114.6744997 -15.4160012 108.4280012 115.2894997 -15.6250012
 108.6860012 113.8364997 -15.2850012 108.9736330 114.6455783 -15.4269672
  96.3780012 130.4374997 -15.8690012  95.6930012 130.3994997 -16.5370012
  96.3820012 131.3504997 -15.5810012  96.2848193 130.5557016 -15.9214716
  98.3380012 116.4054997 -18.3250012  98.8300012 115.7754997 -18.8520012
  98.9620012 116.7014997 -17.6610012  98.4895446 116.3593199 -18.3074020
 103.3640012 116.6984997 -15.8680012 103.5420012 116.0524997 -15.1850012
 103.3110012 117.5324997 -15.4000012 103.3811829 116.7227985 -15.7114060
 105.2430012 131.6474997 -17.4720012 106.1090012 132.0134997 -17.6500012
 104.9960012 131.2074997 -18.2860012 105.3282392 131.6381756 -17.6063711
 111.9520012 131.2104997 -14.7930012 111.7570012 130.4624997 -15.3580012
 111.9130012 131.9684997 -15.3760012 111.9200380 131.2106099 -14.9491616
  97.5990012 115.2054997  -3.0530012  97.2330012 114.4404997  -2.6100012
  98.5120012 115.2344997  -2.7660012  97.6722790 115.1047224  -2.9535930
  99.5720012 114.5564997  -1.5170012 100.4700012 114.2824997  -1.7020012
  99.1850012 113.8134997  -1.0530012  99.6426612 114.4185914  -1.4796357
  98.1960012 131.3574997 -18.8440012  97.9290012 131.6444997 -17.9710012
  98.9680012 130.8114997 -18.6920012  98.2637488 131.3230294 -18.7038950
 107.9930012 113.8884997  -1.3350012 108.0700012 113.4624997  -0.4810012
 108.8870012 113.9024997  -1.6780012 108.1243428 113.8320879  -1.2644690
 111.1690012 129.9614997  -2.6430012 110.3870012 129.7754997  -3.1620012
 111.0970012 130.8904997  -2.4250012 111.0521777 130.0616492  -2.6845952
 125.5750012 123.8474997 -12.6120012 125.6640012 124.7914997 -12.7440012
 124.9370012 123.5724997 -13.2700012 125.5009081 123.9394830 -12.7190386
 124.5080012 123.1024997  -9.1930012 124.4700012 122.4564997  -8.4880012
 124.1860012 122.6364997  -9.9640012 124.4592333 122.9509408  -9.2007022
 116.8770012 122.7174997  -7.6000012 116.9180012 122.0914997  -6.8770012
 117.5800012 123.3414997  -7.4180012 116.9776363 122.7161196  -7.4763956
 128.2140012 126.0414997 -10.8920012 127.7740012 125.3214997 -10.4410012
 128.2010012 126.7624997 -10.2620012 128.1520226 126.0403731 -10.7451506
 117.8000012 127.1674997  -9.0650012 117.4310012 126.3654997  -9.4350012
 118.7410012 126.9984997  -9.0190012 117.8767289 127.0350153  -9.1093684
 114.4100012 120.8274997 -13.6720012 113.9630012 121.6734997 -13.6910012
 113.8490012 120.2474997 -14.1880012 114.2729900 120.8649916 -13.7443199
 115.1210012 122.9894997 -11.5460012 115.3340012 122.2194997 -11.0190012
 115.8590012 123.0784997 -12.1500012 115.2498496 122.8961394 -11.5554700
 125.3260012 131.1464997 -10.6790012 125.9460012 130.4694997 -10.9530012
 125.1180012 130.9284997  -9.7710012 125.3826904 131.0243870 -10.5936635
 122.8980012 125.5354997  -8.7870012 123.2020012 124.8494997  -9.3820012
 123.6190012 125.6534997  -8.1690012 123.0370671 125.4576305  -8.7848184
 131.5610012 117.1364997  -7.9260012 131.6100012 117.7464997  -7.1900012
 131.9860012 117.5974997  -8.6490012 131.6251824 117.2823741  -7.9229795
 126.0390012 119.9294997  -8.4590012 126.1810012 118.9834997  -8.4390012
 125.9320012 120.1364997  -9.3880012 126.0439864 119.8279534  -8.5817661
 119.1930012 118.0304997 -11.1870012 119.2370012 118.8904997 -11.6050012
 118.7360012 117.4784997 -11.8210012 119.1372185 118.0735799 -11.3299701
 126.9160012 118.1614997 -12.7860012 127.5620012 117.8324997 -12.1610012
 127.4260012 118.6794997 -13.4090012 127.0734264 118.1864611 -12.7846138
 115.8140012 120.4274997 -10.4250012 116.4670012 119.8774997  -9.9930012
 115.8380012 120.1534997 -11.3420012 115.9066683 120.3151466 -10.4897877
 120.9700012 121.9774997 -11.2100012 121.5860012 121.4514997 -10.7000012
 120.3840012 121.3374997 -11.6130012 120.9750810 121.8189208 -11.1946827
 131.9520012 118.6144997  -5.6900012 131.2640012 119.2724997  -5.7860012
 131.9680012 118.4174997  -4.7540012 131.8598525 118.6780462  -5.5765192
 118.0040012 116.9484997  -7.1130012 117.7850012 117.4784997  -7.8790012
 117.3360012 117.1754997  -6.4660012 117.8837600 117.0516906  -7.1303621
 125.3730012 126.4484997 -13.5690012 125.0770012 126.1264997 -14.4200012
 125.0480012 127.3484997 -13.5280012 125.2886371 126.5260215 -13.6798199
 120.5730012 124.6244997  -6.8260012 119.8330012 125.2224997  -6.7220012
 121.2870012 125.1784997  -7.1410012 120.5682237 124.7812831  -6.8543535
 128.6800012 117.4524997 -10.8060012 128.4640012 116.6864997 -10.2730012
 129.3350012 117.9244997 -10.2930012 128.7390632 117.4115889 -10.6637139
 117.5970012 118.8404997  -9.1610012 118.2110012 119.4734997  -8.7870012
 118.1090012 118.3684997  -9.8170012 117.7502296 118.8632370  -9.1985748
 118.9800012 126.5884997  -6.0380012 118.9750012 127.4684997  -6.4160012
 118.1270012 126.5054997  -5.6130012 118.8639464 126.6976117  -6.0322093
 115.1010012 126.2594997 -15.2560012 114.8290012 126.4884997 -16.1450012
 115.1470012 127.0974997 -14.7960012 115.0700094 126.4041213 -15.3154303
 128.7260012 127.8814997  -8.5440012 127.7850012 127.9394997  -8.3820012
 129.0030012 128.7874997  -8.6810012 128.6344679 128.0119443  -8.5403185
 129.0270012 116.1674997  -7.1260012 128.2910012 116.7784997  -7.1640012
 129.7100012 116.5824997  -7.6530012 129.0186541 116.3071374  -7.2024168
 122.0300012 114.2544997  -9.6600012 121.9130012 113.3054997  -9.7150012
 121.1750012 114.5864997  -9.3870012 121.8983733 114.1695409  -9.6306103
 126.9780012 129.6624997 -11.9180012 127.4040012 128.9554997 -12.4030012
 127.2950012 130.4634997 -12.3350012 127.0791019 129.6740994 -12.0406870
 128.1380012 127.5634997 -13.4100012 127.8800012 126.8734997 -14.0210012
 128.2090012 127.1204997 -12.5640012 128.1122856 127.4092124 -13.3793115
 129.8240012 126.1294997  -4.9320012 129.9640012 125.5384997  -5.6720012
 129.9910012 127.0024997  -5.2890012 129.8656778 126.1666426  -5.0813035
 124.2970012 123.0914997 -15.1600012 123.5850012 123.6264997 -15.5120012
 124.9880012 123.1474997 -15.8200012 124.2930132 123.1722543 -15.2973711
 124.3500012 121.5494997 -18.1210012 125.0510012 121.5714997 -17.4700012
 124.6530012 120.9214997 -18.7770012 124.4867830 121.4676566 -18.1206289
 131.6660012 122.4694997  -6.8660012 131.0130012 123.1644997  -6.7770012
 132.1310012 122.6794997  -7.6760012 131.6395390 122.5929425  -6.9633117
 127.7020012 123.3014997 -14.2080012 126.9700012 123.5294997 -13.6350012
 128.1500012 122.5874997 -13.7530012 127.6623095 123.2362571 -14.0680881
 127.6000012 121.4754997  -5.1410012 127.6800012 122.2384997  -4.5690012
 126.9980012 121.7544997  -5.8310012 127.5295756 121.6177134  -5.1559411
 119.3480012 123.9314997 -12.3260012 119.0170012 123.5614997 -13.1440012
 119.9360012 123.2614997 -11.9790012 119.3821873 123.7901156 -12.3911898
 120.7140012 127.3594997  -9.6440012 120.6200012 126.7814997 -10.4010012
 121.4440012 126.9884997  -9.1480012 120.7997981 127.2302390  -9.6805835
 119.7140012 122.7004997  -8.6920012 120.2800012 122.8214997  -9.4550012
 120.0330012 123.3374997  -8.0530012 119.8345786 122.8031884  -8.7099960
 126.0230012 128.2034997  -7.9580012 125.7830012 128.8654997  -7.3100012
 125.8250012 127.3694997  -7.5330012 125.9633808 128.1813134  -7.8118476
 120.5940012 127.0994997  -3.9750012 120.2830012 127.8814997  -3.5200012
 119.9440012 126.9464997  -4.6610012 120.4635558 127.1859105  -4.0054129
 126.5730012 122.4634997 -16.5230012 127.1530012 122.6134997 -15.7760012
 126.9870012 122.9344997 -17.2460012 126.7082830 122.5476841 -16.5185866
 117.5140012 123.2974997  -4.7460012 117.5850012 123.9484997  -4.0480012
 116.6240012 123.4004997  -5.0810012 117.4033117 123.4005936  -4.6957300
 124.3000012 129.2004997 -13.0880012 124.7740012 129.4954997 -12.3100012
 123.7370012 129.9384997 -13.3210012 124.2887653 129.3406932 -13.0129864
 118.8340012 129.1714997  -3.2120012 118.8410012 129.0354997  -4.1590012
 117.9180012 129.0534997  -2.9600012 118.7111714 129.1369430  -3.3075334
 130.2720012 114.2134997 -16.7100012 129.3720012 114.3524997 -16.4150012
 130.5240012 115.0444997 -17.1120012 130.1828702 114.3449074 -16.7239795
 118.3380012 123.0014997 -14.7360012 118.0460012 123.7694997 -15.2270012
 117.6640012 122.3414997 -14.8990012 118.2069081 123.0174406 -14.8252660
 131.4610012 128.5794997 -18.3340012 131.5350012 129.5184997 -18.1630012
 132.3670012 128.2744997 -18.3900012 131.5935100 128.6666722 -18.3181881
 114.4310012 125.3644997  -5.9210012 113.9300012 125.3364997  -6.7360012
 114.4360012 124.4584997  -5.6120012 114.3631526 125.2382278  -5.9907128
 114.1810012 128.1444997  -9.0370012 115.1270012 128.0004997  -9.0560012
 114.0690012 128.9284997  -8.5000012 114.2952727 128.2308046  -8.9669928
 132.3790012 128.8104997  -3.3550012 132.3300012 127.8554997  -3.3920012
 131.5520012 129.0784997  -2.9540012 132.2604940 128.7158998  -3.3058625
 123.3580012 128.3844997  -4.4790012 123.4450012 129.2104997  -4.0040012
 122.4940012 128.0544997  -4.2300012 123.2531964 128.4529878  -4.3803451
 123.7720012 132.1564997 -14.6730012 123.6970012 132.0354997 -15.6190012
 123.8050012 133.1064997 -14.5540012 123.7661848 132.2682500 -14.7865166
 117.4250012 130.9454997 -12.8920012 117.5780012 130.5974997 -12.0130012
 116.5750012 130.5894997 -13.1470012 117.3308962 130.8496650 -12.8061660
 126.8740012 131.3104997 -17.6710012 127.2490012 130.5664997 -18.1410012
 126.8780012 131.0404997 -16.7520012 126.9258915 131.1721486 -17.6112176
 126.5430012 131.2364997 -14.9210012 125.6070012 131.3364997 -14.7430012
 126.8230012 130.5274997 -14.3430012 126.4528255 131.1542711 -14.8184609
 129.5310012 120.3034997  -2.8750012 129.1240012 120.7844997  -3.5960012
 129.5720012 119.3984997  -3.1830012 129.4808437 120.2469374  -3.0153317
 116.6800012 126.6874997  -4.8780012 116.8960012 126.3264997  -4.0190012
 115.8250012 126.3134997  -5.0880012 116.5939292 126.5874111  -4.7886614
 119.2990012 115.1574997  -8.8830012 118.4370012 115.0704997  -9.2900012
 119.2760012 116.0134997  -8.4550012 119.1780330 115.2612765  -8.8808137
 123.9620012 114.8794997  -5.5080012 124.3820012 114.4644997  -4.7550012
 123.0290012 114.7014997  -5.3910012 123.8933644 114.7985900  -5.3890461
 127.2880012 118.6354997  -4.6550012 126.7740012 118.5094997  -3.8570012
 127.1330012 119.5474997  -4.8990012 127.1966852 118.7416132  -4.5787842
 128.0510012 123.4964997 -18.8930012 128.0930012 123.2734997 -19.8230012
 128.9000012 123.8954997 -18.7030012 128.1715396 123.5199155 -18.9946373
 123.6230012 117.3724997 -18.2230012 123.3700012 117.3914997 -17.3000012
 123.3670012 116.5004997 -18.5240012 123.5537790 117.2572437 -18.1373737
 119.3900012 120.1234997  -7.7880012 118.7480012 120.0824997  -7.0790012
 119.4270012 121.0494997  -8.0250012 119.3071324 120.2431559  -7.7230176
 119.3870012 120.3444997 -12.8760012 118.4940012 120.0034997 -12.9340012
 119.8370012 119.9674997 -13.6310012 119.3257305 120.2468484 -12.9860823
 124.9220012 120.7604997 -14.0590012 124.5130012 121.5754997 -14.3500012
 125.6430012 120.6204997 -14.6730012 124.9634537 120.8532018 -14.1818658
 124.0240012 120.9354997  -2.5710012 123.4620012 120.2314997  -2.2500012
 124.8510012 120.8154997  -2.1030012 124.0587095 120.8227883  -2.4637670
 125.9270012 120.2064997 -11.2450012 125.7320012 120.8114997 -11.9600012
 126.1080012 119.3724997 -11.6790012 125.9247614 120.1766300 -11.4015595
 117.1400012 120.4434997  -5.9210012 117.1020012 120.8434997  -5.0520012
 116.6490012 119.6264997  -5.8300012 117.0684684 120.3878069  -5.7898941
 120.5060012 117.8174997 -19.1220012 120.0750012 117.3724997 -18.3920012
 119.7880012 118.1894997 -19.6340012 120.3499438 117.8068940 -19.0913201
 113.7480012 117.5594997 -12.0700012 114.3790012 117.5304997 -11.3510012
 114.1970012 117.1344997 -12.8000012 113.8950774 117.4980492 -12.0703447
 115.0220012 118.3054997 -16.6460012 115.4960012 118.8964997 -17.2310012
 114.3050012 118.8364997 -16.2990012 114.9899341 118.4580867 -16.6791164
 125.1910012 121.8444997  -6.5730012 125.5140012 121.2134997  -7.2160012
 124.7510012 121.3094997  -5.9130012 125.1756895 121.6858441  -6.5717150
 121.9680012 117.7714997 -11.7890012 121.0570012 117.8284997 -11.5010012
 122.4740012 117.7114997 -10.9790012 121.9115413 117.7711985 -11.6399378
 116.7970012 119.4004997 -12.9630012 115.9070012 119.5004997 -13.3030012
 117.0930012 118.5584997 -13.3090012 116.7152823 119.3003545 -13.0562787
 120.4500012 119.4004997 -15.3060012 121.3810012 119.5294997 -15.1280012
 120.2350012 120.0704997 -15.9560012 120.5484247 119.5086565 -15.3694253
 126.3730012 117.0064997  -8.5250012 125.6970012 117.1374997  -7.8610012
 125.8880012 116.8514997  -9.3350012 126.2147145 117.0034905  -8.5435483
 119.1240012 120.5954997 -17.7390012 118.5810012 120.2154997 -18.4310012
 119.9570012 120.7894997 -18.1680012 119.1624399 120.5698124 -17.8915474
 129.6610012 132.6784997  -2.2480012 129.8610012 133.1024997  -3.0830012
 130.3160012 133.0214997  -1.6410012 129.7770051 132.7829648  -2.2802164
 117.2590012 125.1524997  -2.6400012 117.9910012 125.4064997  -2.0790012
 116.4790012 125.3564997  -2.1250012 117.2538232 125.2149177  -2.4934240
 123.2880012 120.5594997  -9.9020012 123.8530012 120.0124997 -10.4490012
 123.1410012 120.0374997  -9.1140012 123.3452918 120.4142024  -9.8701546
 118.2900012 116.6954997 -13.4840012 117.9730012 115.7934997 -13.5190012
 119.0720012 116.6974997 -14.0370012 118.3522284 116.5721628 -13.5635217
 121.9150012 118.9474997  -7.4880012 121.0790012 119.4014997  -7.3780012
 122.4390012 119.2234997  -6.7360012 121.8714414 119.0469376  -7.3712864
 122.4590012 125.1604997 -15.8040012 121.7140012 124.6534997 -16.1260012
 122.3250012 125.2094997 -14.8570012 122.3388776 125.0976940 -15.7201353
 129.6090012 124.2934997  -7.0170012 130.2510012 124.7504997  -7.5610012
 128.7790012 124.4064997  -7.4800012 129.5845963 124.3712704  -7.1539823
 126.3570012 117.9744997 -17.6040012 125.4180012 118.0864997 -17.7560012
 126.6540012 118.8314997 -17.2980012 126.2687666 118.1056443 -17.5834232
 123.9780012 125.3444997  -4.5670012 123.6330012 124.9634997  -3.7600012
 123.7780012 126.2784997  -4.4950012 123.9038061 125.4185228  -4.4469039
 127.0750012 119.8414997 -15.9440012 127.9670012 119.7044997 -15.6250012
 127.1320012 120.6324997 -16.4800012 127.2046285 119.9296660 -15.9728309
 117.5840012 124.4554997 -10.0340012 118.3290012 124.4534997 -10.6350012
 117.6620012 123.6324997  -9.5520012 117.6965518 124.3439315 -10.0511071
 124.5850012 126.6194997 -16.7780012 124.2890012 127.4454997 -16.3970012
 123.8820012 125.9994997 -16.5820012 124.4494914 126.6488199 -16.6993557
 114.5920012 122.9164997  -4.7190012 114.8150012 122.4984997  -3.8870012
 113.9900012 122.3034997  -5.1420012 114.5411759 122.7764668  -4.6622978
 121.6080012 122.4334997  -2.5060012 121.3120012 122.2674997  -3.4010012
 122.5400012 122.2134997  -2.5170012 121.6934166 122.3810640  -2.6299464
 126.2290012 127.8064997  -4.6160012 125.3280012 127.9894997  -4.8840012
 126.2630012 128.0654997  -3.6950012 126.1103041 127.8665512  -4.5281803
 131.9600012 120.0514997 -16.2490012 131.4060012 119.6554997 -16.9210012
 132.0600012 120.9614997 -16.5270012 131.8977059 120.1203586 -16.3785599
 131.9230012 125.8514997  -3.4120012 131.0720012 126.0894997  -3.7790012
 132.5140012 125.8344997  -4.1650012 131.8862487 125.8818258  -3.5641107
 130.2550012 128.8374997 -15.7840012 129.8820012 128.0114997 -15.4750012
 130.5330012 128.6544997 -16.6810012 130.2415630 128.6997303 -15.8630374
 127.4160012 123.6454997  -8.7630012 126.4870012 123.4134997  -8.7900012
 127.8670012 122.8684997  -9.0930012 127.3499216 123.5087238  -8.8113083
 119.9590012 127.9734997 -12.6300012 120.4860012 128.7464997 -12.8300012
 119.0790012 128.1984997 -12.9310012 119.9121773 128.1098005 -12.6980990
 115.7140012 122.8354997 -18.0430012 116.3300012 123.4624997 -17.6630012
 114.8520012 123.1514997 -17.7710012 115.6817698 122.9639430 -17.9542817
 121.3860012 125.6364997 -13.0530012 121.1450012 126.5614997 -13.0120012
 120.6450012 125.1774997 -12.6570012 121.2528409 125.7011421 -12.9938623
 121.9010012 129.7854997  -6.7380012 122.2630012 130.6404997  -6.9720012
 122.4320012 129.4934997  -5.9980012 122.0224473 129.8631060  -6.6699145
 120.0690012 130.6584997 -13.5080012 119.1190012 130.7634997 -13.4570012
 120.4210012 131.4784997 -13.1630012 119.9864203 130.7838314 -13.4543350
 125.4450012 125.8844997  -7.0380012 125.0190012 125.6574997  -6.2110012
 126.0250012 125.1464997  -7.2200012 125.4651868 125.7535299  -6.9494170
 127.6480012 126.8134997 -17.9640012 128.0010012 126.4334997 -17.1590012
 126.6990012 126.7204997 -17.8770012 127.5680441 126.7489596 -17.8421441
 128.1030012 130.4364997  -4.5680012 127.5020012 129.8814997  -5.0640012
 128.3850012 131.1034997  -5.1940012 128.0588519 130.4506841  -4.7205048
 132.1510012 131.2934997 -17.7630012 132.8950012 131.8794997 -17.9030012
 131.4570012 131.8614997 -17.4290012 132.1590292 131.4505582 -17.7370039
 116.2260012 117.6694997  -5.1610012 115.3330012 118.0084997  -5.2290012
 116.1270012 116.8144997  -4.7430012 116.0904164 117.6002588  -5.1137765
 128.5140012 125.4864997 -15.7370012 128.2360012 124.7584997 -15.1810012
 129.4410012 125.6054997 -15.5320012 128.6013124 125.4028802 -15.6331155
 115.8770012 129.4744997  -6.7260012 116.0940012 128.5424997  -6.7570012
 116.1230012 129.7484997  -5.8430012 115.9399549 129.3840636  -6.6108237
 121.7390012 127.9254997 -19.5170012 121.9780012 127.1774997 -20.0640012
 121.4700012 127.5374997 -18.6840012 121.7353675 127.7706638 -19.4793135
 120.6760012 127.4954997 -17.0600012 120.8220012 126.9754997 -16.2700012
 120.6730012 128.4024997 -16.7540012 120.6955989 127.5468853 -16.9103912
 117.1290012 124.7484997 -16.5500012 116.4430012 125.1004997 -15.9830012
 117.6510012 125.5114997 -16.7970012 117.1056852 124.8998578 -16.5057882
 124.9600012 117.4104997  -6.2710012 125.6590012 117.4844997  -5.6210012
 124.5790012 116.5464997  -6.1170012 125.0041767 117.3037624  -6.1611678
 125.7450012 117.0624997 -15.1740012 125.9650012 117.5344997 -15.9770012
 126.3030012 117.4574997 -14.5040012 125.8504968 117.1804285 -15.1932669
 123.4130012 129.1934997 -16.3110012 122.5970012 129.6904997 -16.2590012
 123.9430012 129.6684997 -16.9510012 123.3729161 129.3257722 -16.3904044
 122.9450012 118.7904997 -14.3390012 123.7570012 119.2954997 -14.2930012
 122.7000012 118.6454997 -13.4250012 123.0230520 118.8400375 -14.2091483
 123.4800012 119.7764997  -5.1540012 123.5990012 120.3504997  -4.3970012
 124.1360012 119.0884997  -5.0400012 123.5849757 119.7621079  -5.0349175
 123.8280012 115.8714997 -13.4010012 123.4820012 116.4894997 -12.7560012
 124.4870012 116.3724997 -13.8820012 123.8697826 116.0235802 -13.3779029
 120.7520012 130.2374997 -16.3290012 120.9120012 131.0364997 -16.8300012
 120.5540012 130.5434997 -15.4440012 120.7471649 130.3884469 -16.2780185
 119.4860012 116.9344997 -16.7140012 119.4030012 117.8234997 -16.3670012
 120.3760012 116.6694997 -16.4820012 119.5949469 117.0201430 -16.6352374
 129.6850012 117.6834997  -4.3190012 128.7680012 117.9464997  -4.4070012
 130.0200012 117.6804997  -5.2160012 129.6049900 117.7190224  -4.4522081
 128.2870012 121.4344997 -10.2240012 127.4890012 121.0194997 -10.5520012
 128.7320012 120.7434997  -9.7330012 128.2379885 121.2843543 -10.2025111
 117.7450012 127.3624997 -17.6530012 118.3370012 128.0614997 -17.3770012
 118.2040012 126.9294997 -18.3730012 117.8881142 127.3997049 -17.7125170
 116.0610012 120.0264997 -18.5370012 116.0160012 120.9654997 -18.3590012
 115.1730012 119.7904997 -18.8070012 115.9348574 120.1231892 -18.5491088
 129.3730012 130.6904997  -8.6010012 129.2180012 131.3684997  -9.2580012
 130.3060012 130.7624997  -8.3980012 129.4778500 130.7930170  -8.6634881
 116.8690012 114.8084997  -9.8640012 116.6400012 114.8674997 -10.7920012
 116.4260012 114.0164997  -9.5580012 116.7778530 114.7095753  -9.9495214
 115.7990012 128.7484997 -13.7040012 114.9670012 129.2214997 -13.6760012
 116.3450012 129.2584997 -14.3020012 115.7589739 128.8821871 -13.7810284
 115.0870012 131.3614997  -2.3740012 115.6280012 131.1444997  -1.6140012
 114.6060012 130.5554997  -2.5630012 115.0959345 131.2229514  -2.2956924
 119.6850012 130.2804997  -0.7530012 120.4520012 129.8214997  -0.4120012
 119.6630012 130.0544997  -1.6830012 119.7871434 130.1870409  -0.8319957
 123.7770012 129.7884997 -19.3780012 123.1330012 129.1574997 -19.0570012
 124.5390012 129.2574997 -19.6100012 123.7918077 129.6302920 -19.3653989
 126.2620012 128.6604997  -2.0240012 125.9110012 127.8044997  -1.7810012
 126.9880012 128.8034997  -1.4170012 126.3120769 128.5625636  -1.9086381
 128.3810012 129.6054997 -19.1440012 128.6640012 128.8114997 -18.6920012
 129.1210012 129.8384997 -19.7050012 128.5197486 129.5282803 -19.1579302
 114.9940012 125.1714997  -1.4190012 115.1380012 124.2694997  -1.7060012
 114.2220012 125.4574997  -1.9070012 114.9093322 125.0868261  -1.5242119
 119.3360012 125.5154997 -19.2870012 119.4000012 124.7214997 -18.7560012
 119.9890012 125.3964997 -19.9770012 119.4330241 125.3907148 -19.3075683
 121.6500012 125.1414997  -1.9870012 121.3210012 125.4124997  -2.8440012
 121.8020012 124.2004997  -2.0740012 121.6254809 125.0513862  -2.1161756
 127.3840012 125.0574997  -4.6030012 128.1300012 125.6454997  -4.7230012
 126.6270012 125.6394997  -4.5400012 127.3837554 125.2167011  -4.6109093
 115.8270012 122.3714997  -1.9990012 116.2350012 121.5144997  -2.1200012
 115.5670012 122.3864997  -1.0780012 115.8477568 122.2560807  -1.8910412
 120.4850012 123.4874997 -16.9810012 120.0250012 123.0034997 -16.2950012
 120.7400012 122.8194997 -17.6170012 120.4564902 123.3308731 -16.9730666
 119.7740012 121.3804997  -4.6250012 119.1560012 122.0554997  -4.3450012
 120.1180012 121.7014997  -5.4580012 119.7359615 121.5162721  -4.6993419
 121.5560012 121.7304997 -18.7190012 121.3760012 121.5764997 -19.6460012
 122.5060012 121.8384997 -18.6740012 121.6597776 121.7240175 -18.8398157
 124.7940012 123.8524997  -1.3480012 125.7470012 123.9354997  -1.3750012
 124.6330012 123.1404997  -0.7280012 124.9026426 123.7676746  -1.2679421
 130.9460012 124.0854997 -19.2730012 130.6720012 123.6604997 -20.0860012
 130.9850012 125.0164997 -19.4900012 130.9137699 124.1532484 -19.4136390
 120.1130012 118.7354997  -3.5430012 120.2630012 118.0064997  -4.1450012
 120.1160012 119.5124997  -4.1020012 120.1339302 118.7407851  -3.7009308
 120.5260012 117.1054997  -6.0500012 121.0620012 117.5564997  -6.7020012
 119.6740012 116.9974997  -6.4730012 120.4842178 117.1526390  -6.1964244
 122.1080012 122.5444997  -5.8110012 122.8580012 122.3884997  -6.3840012
 121.7690012 123.3964997  -6.0860012 122.1648921 122.6382968  -5.9266439
 126.5230012 120.3594997  -0.7820012 126.7160012 119.4284997  -0.8940012
 127.3810012 120.7844997  -0.7920012 126.6653020 120.2896389  -0.7986639
 127.8400012 123.1484997  -2.7050012 127.5590012 123.8574997  -3.2820012
 128.7830012 123.0754997  -2.8560012 127.9289027 123.2357646  -2.8044449
 118.5920012 119.9334997  -1.6310012 117.8250012 119.4014997  -1.8410012
 119.2710012 119.6234997  -2.2310012 118.5787022 119.8187506  -1.7408352
 121.3320012 114.5614997  -5.6190012 121.2330012 115.5084997  -5.7240012
 120.5890012 114.1894997  -6.0940012 121.2180564 114.6405902  -5.6975440
 122.5960012 118.8834997  -2.0550012 122.3600012 118.6634997  -1.1530012
 121.8120012 118.6764997  -2.5650012 122.4578628 118.8254760  -2.0006068
 125.3110012 118.0104997  -2.9790012 124.3640012 118.0424997  -2.8470012
 125.6240012 117.3854997  -2.3260012 125.2235475 117.9303207  -2.8725545
 126.9450012 116.6444997  -0.9740012 126.8490012 115.6924997  -0.9800012
 126.6240012 116.9134997  -0.1140012 126.8884070 116.5504035  -0.8584559
 116.7720012 117.8544997  -1.9270012 116.9840012 117.1474997  -2.5370012
 116.6610012 117.4164997  -1.0830012 116.7859721 117.6987084  -1.8963157
 121.5530012 113.8554997  -2.9470012 122.2650012 113.2154997  -2.9610012
 121.4520012 114.1224997  -3.8610012 121.6367939 113.8039938  -3.0724350
 121.9070012 115.5384997  -0.8940012 121.7750012 115.0624997  -1.7140012
 121.3080012 116.2824997  -0.9490012 121.8079071 115.5739618  -1.0137114
 121.4530012 132.4214997 -17.7170012 122.3860012 132.5794997 -17.5740012
 121.1890012 133.0964997 -18.3420012 121.5449510 132.5343611 -17.7819259
 115.0220012 127.0574997 -18.2350012 115.9360012 127.1364997 -17.9610012
 115.0290012 126.3704997 -18.9010012 115.1481131 126.9753961 -18.2875607
 113.6710012 132.4504997 -13.1570012 113.0240012 131.9884997 -13.6900012
 114.0250012 131.7784997 -12.5750012 113.6303849 132.2964723 -13.1512041
 114.5410012 130.5314997 -11.3530012 114.2060012 129.6514997 -11.1810012
 114.7630012 130.8764997 -10.4880012 114.5251783 130.4577500 -11.2125792
 132.0890012 131.3404997  -8.3720012 132.0680012 131.5254997  -7.4330012
 132.7800012 131.9094997  -8.7130012 132.1794618 131.4426606  -8.2896136
 131.6530012 130.9084997  -5.4500012 131.1650012 130.1724997  -5.8210012
 132.2020012 130.5144997  -4.7720012 131.6604872 130.7546249  -5.4090840
 130.1030012 126.6974997  -0.8120012 129.2370012 126.5924997  -0.4180012
 130.4800012 127.4564997  -0.3660012 130.0353308 126.7856900  -0.6977607
 131.4040012 124.9544997 -15.2980012 132.2540012 125.3754997 -15.1710012
 131.4100012 124.2144997 -14.6910012 131.5211372 124.9120803 -15.1985656
 131.7990012 123.0074997 -13.4740012 131.0720012 122.5284997 -13.0770012
 132.3800012 123.2134997 -12.7420012 131.7779375 122.9697090 -13.3205871
 131.5580012 125.7924997  -8.5270012 132.3910012 125.4144997  -8.8070012
 131.6700012 126.7354997  -8.6460012 131.6872647 125.8682218  -8.5814513
 130.0440012 128.6704997  -6.2200012 129.3970012 128.9954997  -5.5940012
 129.5270012 128.2304997  -6.8940012 129.8854029 128.6555004  -6.2254173
 132.0670012 122.9084997 -17.0830012 131.5450012 123.2654997 -17.8020012
 132.0340012 123.5834997 -16.4050012 131.9911634 123.0485413 -17.0896855
 130.4160012 120.1484997 -18.5320012 130.5120012 120.8154997 -19.2130012
 130.2760012 119.3324997 -19.0140012 130.4102135 120.1294500 -18.6901509
 129.5850012 121.5284997 -12.9110012 129.4350012 120.5834997 -12.9320012
 129.2320012 121.8094997 -12.0680012 129.5166625 121.4370441 -12.7997654
 114.6210012 123.6064997  -8.9010012 114.8050012 123.5244997  -9.8370012
 115.4700012 123.4824997  -8.4770012 114.7610139 123.5785003  -8.9718545
 130.4420012 123.4984997  -3.2730012 131.0250012 122.7644997  -3.0810012
 131.0060012 124.2704997  -3.2260012 130.5979769 123.5024227  -3.2403841
 131.9380012 121.4014997  -2.5880012 131.0750012 121.0224997  -2.7540012
 132.5430012 120.6624997  -2.6620012 131.9015979 121.2498023  -2.6207183
 129.6630012 117.5564997 -19.4150012 130.2740012 117.1854997 -18.7780012
 128.8270012 117.1354997 -19.2190012 129.6335032 117.4487554 -19.3012965
 129.2960012 119.1114997 -14.4490012 129.5760012 118.2044997 -14.3250012
 130.0550012 119.5454997 -14.8380012 129.4369277 119.0460942 -14.4846318
 129.9080012 119.6924997  -9.0130012 130.8410012 119.9044997  -9.0470012
 129.6730012 119.7944997  -8.0910012 130.0038036 119.7352769  -8.8930024
 129.9370012 120.4294997  -6.2370012 129.0940012 120.6974997  -5.8710012
 130.3790012 121.2514997  -6.4480012 129.8814158 120.5773291  -6.2154509
 114.2180012 118.8774997  -2.7600012 115.1380012 118.7554997  -2.5240012
 113.7690012 118.1274997  -2.3710012 114.2831580 118.7593727  -2.6750994
 132.2200012 114.4094997  -0.8840012 132.5700012 113.7554997  -1.4890012
 132.3670012 115.2464997  -1.3230012 132.2878419 114.4331591  -1.0262882
 129.9090012 116.3744997 -14.4010012 130.0920012 115.9254997 -13.5750012
 129.3100012 115.7894997 -14.8640012 129.8530202 116.2339975 -14.3506725
 115.4390012 117.1894997  -9.8690012 115.8850012 116.3974997  -9.5670012
 115.9060012 117.9054997  -9.4380012 115.5630172 117.1780624  -9.7695180
 113.7430012 120.1884997  -8.8000012 114.2350012 119.9674997  -9.5910012
 114.1060012 121.0294997  -8.5190012 113.8593126 120.2718357  -8.8702469
 131.7400012 116.5184997  -2.5340012 130.8220012 116.7894997  -2.5700012
 131.8630012 115.9834997  -3.3190012 131.6311066 116.4832892  -2.6449513
 131.7760012 116.4414997 -17.8730012 132.1880012 115.7204997 -18.3480012
 132.4580012 117.1114997 -17.8140012 131.9245885 116.4332368 -17.9301085
 114.0570012 116.4464997 -14.7460012 113.1320012 116.6554997 -14.8750012
 114.5110012 116.9304997 -15.4350012 113.9917368 116.5405993 -14.8568774
 128.8280012 131.4304997 -12.8000012 129.4800012 131.0834997 -13.4080012
 129.3380012 131.9194997 -12.1540012 128.9862637 131.4490597 -12.7959764
 114.0210012 115.1844997  -6.4010012 113.3560012 114.9384997  -5.7580012
 113.5780012 115.8064997  -6.9790012 113.8700956 115.2348632  -6.3910648
 116.2130012 128.3594997  -2.2570012 115.3920012 128.5344997  -2.7170012
 115.9600012 128.2864997  -1.3360012 116.0666164 128.3735622  -2.1955077
 119.1670012 129.3344997  -5.9980012 118.7420012 130.1434997  -6.2810012
 120.0710012 129.4194997  -6.3000012 119.2310271 129.4568469  -6.0776224
 123.4780012 130.7334997  -3.0390012 123.6630012 130.3994997  -2.1610012
 124.3240012 131.0424997  -3.3610012 123.6177539 130.7296047  -2.9624395
 125.8230012 132.0194997  -3.7950012 126.5000012 131.3864997  -4.0350012
 126.1450012 132.4204997  -2.9880012 125.9591637 131.9871154  -3.7187207
 130.7400012 114.6084997  -4.7150012 129.9280012 114.9334997  -5.1030012
 130.9730012 113.8484997  -5.2480012 130.6603423 114.5502436  -4.8401747
 116.5690012 132.5904997  -5.9510012 115.8480012 133.0304997  -6.4020012
 116.2030012 132.3394997  -5.1020012 116.4209804 132.6167698  -5.8980160
 119.0360012 132.1904997  -6.9210012 118.1710012 132.2624997  -6.5170012
 118.9810012 132.7374997  -7.7050012 118.9102085 132.2742685  -6.9716638
 123.7460012 132.0784997  -7.7460012 123.2900012 132.6074997  -8.4000012
 123.9090012 132.6814997  -7.0200012 123.7055585 132.2324468  -7.7374938
 126.0740012 130.9564997  -6.8010012 125.1690012 131.1214997  -7.0660012
 126.5030012 131.8094997  -6.8660012 126.0080799 131.0944483  -6.8460818
 128.6780012 132.5264997  -6.5060012 128.4960012 133.4424997  -6.7160012
 128.8550012 132.1164997  -7.3520012 128.6770210 132.5964822  -6.6492115
 115.9830012 131.2134997  -9.0410012 115.9650012 130.7884997  -8.1830012
 116.7880012 130.8954997  -9.4490012 116.0893875 131.1123812  -8.9788345
 118.1250012 129.9234997 -10.3860012 117.9060012 129.0074997 -10.2160012
 118.9490012 130.0634997  -9.9200012 118.2064420 129.8170520 -10.2997226
 120.6620012 130.3934997  -9.5370012 120.8750012 129.5054997  -9.8240012
 120.7260012 130.3594997  -8.5830012 120.6998232 130.2673102  -9.4472603
 124.1700012 116.0574997 -10.3930012 123.4960012 115.4284997 -10.1370012
 124.7340012 115.5734997 -10.9960012 124.1539230 115.9058744 -10.4394660
 129.3130012 114.1654997 -10.2800012 129.9170012 114.7124997 -10.7820012
 128.4430012 114.4844997 -10.5200012 129.2781241 114.2835806 -10.3812346
 131.0400012 115.3034997 -11.9470012 131.6520012 114.7894997 -12.4730012
 131.4220012 116.1814997 -11.9230012 131.1754540 115.3517140 -12.0158170
 116.4970012 114.6914997 -12.5710012 115.7200012 114.4574997 -13.0780012
 117.0270012 113.8944997 -12.5620012 116.4622330 114.5516988 -12.6392258
 115.3330012 114.4894997 -16.7670012 115.7720012 115.1004997 -17.3590012
 114.7000012 115.0274997 -16.2930012 115.3074514 114.6459257 -16.7839070
 121.0760012 114.6184997 -12.7570012 121.9510012 115.0064997 -12.7870012
 120.9400012 114.4034997 -11.8350012 121.1773695 114.6425184 -12.6363560
 126.6330012 114.6484997 -11.1080012 126.7090012 114.7434997 -12.0580012
 126.3580012 113.7404997 -10.9790012 126.6062321 114.5387867 -11.2204921
 127.9860012 114.6744997 -15.4160012 127.2840012 115.2894997 -15.6250012
 127.5420012 113.8364997 -15.2850012 127.8296330 114.6455783 -15.4269672
 115.2340012 130.4374997 -15.8690012 114.5490012 130.3994997 -16.5370012
 115.2380012 131.3504997 -15.5810012 115.1408193 130.5557016 -15.9214716
 117.1940012 116.4054997 -18.3250012 117.6860012 115.7754997 -18.8520012
 117.8180012 116.7014997 -17.6610012 117.3455446 116.3593199 -18.3074020
 122.2200012 116.6984997 -15.8680012 122.3980012 116.0524997 -15.1850012
 122.1670012 117.5324997 -15.4000012 122.2371829 116.7227985 -15.7114060
 124.0990012 131.6474997 -17.4720012 124.9650012 132.0134997 -17.6500012
 123.8520012 131.2074997 -18.2860012 124.1842392 131.6381756 -17.6063711
 130.8080012 131.2104997 -14.7930012 130.6130012 130.4624997 -15.3580012
 130.7690012 131.9684997 -15.3760012 130.7760380 131.2106099 -14.9491616
 116.4550012 115.2054997  -3.0530012 116.0890012 114.4404997  -2.6100012
 117.3680012 115.2344997  -2.7660012 116.5282790 115.1047224  -2.9535930
 118.4280012 114.5564997  -1.5170012 119.3260012 114.2824997  -1.7020012
 118.0410012 113.8134997  -1.0530012 118.4986612 114.4185914  -1.4796357
 117.0520012 131.3574997 -18.8440012 116.7850012 131.6444997 -17.9710012
 117.8240012 130.8114997 -18.6920012 117.1197488 131.3230294 -18.7038950
 126.8490012 113.8884997  -1.3350012 126.9260012 113.4624997  -0.4810012
 127.7430012 113.9024997  -1.6780012 126.9803428 113.8320879  -1.2644690
 130.0250012 129.9614997  -2.6430012 129.2430012 129.7754997  -3.1620012
 129.9530012 130.8904997  -2.4250012 129.9081777 130.0616492  -2.6845952
 144.4310012 123.8474997 -12.6120012 144.5200012 124.7914997 -12.7440012
 143.7930012 123.5724997 -13.2700012 144.3569081 123.9394830 -12.7190386
 143.3640012 123.1024997  -9.1930012 143.3260012 122.4564997  -8.4880012
 143.0420012 122.6364997  -9.9640012 143.3152333 122.9509408  -9.2007022
 135.7330012 122.7174997  -7.6000012 135.7740012 122.0914997  -6.8770012
 136.4360012 123.3414997  -7.4180012 135.8336363 122.7161196  -7.4763956
 136.6560012 127.1674997  -9.0650012 136.2870012 126.3654997  -9.4350012
 137.5970012 126.9984997  -9.0190012 136.7327289 127.0350153  -9.1093684
 133.2660012 120.8274997 -13.6720012 132.8190012 121.6734997 -13.6910012
 132.7050012 120.2474997 -14.1880012 133.1289900 120.8649916 -13.7443199
 133.9770012 122.9894997 -11.5460012 134.1900012 122.2194997 -11.0190012
 134.7150012 123.0784997 -12.1500012 134.1058496 122.8961394 -11.5554700
 144.1820012 131.1464997 -10.6790012 144.8020012 130.4694997 -10.9530012
 143.9740012 130.9284997  -9.7710012 144.2386904 131.0243870 -10.5936635
 141.7540012 125.5354997  -8.7870012 142.0580012 124.8494997  -9.3820012
 142.4750012 125.6534997  -8.1690012 141.8930671 125.4576305  -8.7848184
 144.8950012 119.9294997  -8.4590012 145.0370012 118.9834997  -8.4390012
 144.7880012 120.1364997  -9.3880012 144.8999864 119.8279534  -8.5817661
 138.0490012 118.0304997 -11.1870012 138.0930012 118.8904997 -11.6050012
 137.5920012 117.4784997 -11.8210012 137.9932185 118.0735799 -11.3299701
 134.6700012 120.4274997 -10.4250012 135.3230012 119.8774997  -9.9930012
 134.6940012 120.1534997 -11.3420012 134.7626683 120.3151466 -10.4897877
 139.8260012 121.9774997 -11.2100012 140.4420012 121.4514997 -10.7000012
 139.2400012 121.3374997 -11.6130012 139.8310810 121.8189208 -11.1946827
 136.8600012 116.9484997  -7.1130012 136.6410012 117.4784997  -7.8790012
 136.1920012 117.1754997  -6.4660012 136.7397600 117.0516906  -7.1303621
 144.2290012 126.4484997 -13.5690012 143.9330012 126.1264997 -14.4200012
 143.9040012 127.3484997 -13.5280012 144.1446371 126.5260215 -13.6798199
 139.4290012 124.6244997  -6.8260012 138.6890012 125.2224997  -6.7220012
 140.1430012 125.1784997  -7.1410012 139.4242237 124.7812831  -6.8543535
 136.4530012 118.8404997  -9.1610012 137.0670012 119.4734997  -8.7870012
 136.9650012 118.3684997  -9.8170012 136.6062296 118.8632370  -9.1985748
 137.8360012 126.5884997  -6.0380012 137.8310012 127.4684997  -6.4160012
 136.9830012 126.5054997  -5.6130012 137.7199464 126.6976117  -6.0322093
 133.9570012 126.2594997 -15.2560012 133.6850012 126.4884997 -16.1450012
 134.0030012 127.0974997 -14.7960012 133.9260094 126.4041213 -15.3154303
 140.8860012 114.2544997  -9.6600012 140.7690012 113.3054997  -9.7150012
 140.0310012 114.5864997  -9.3870012 140.7543733 114.1695409  -9.6306103
 143.1530012 123.0914997 -15.1600012 142.4410012 123.6264997 -15.5120012
 143.8440012 123.1474997 -15.8200012 143.1490132 123.1722543 -15.2973711
 143.2060012 121.5494997 -18.1210012 143.9070012 121.5714997 -17.4700012
 143.5090012 120.9214997 -18.7770012 143.3427830 121.4676566 -18.1206289
 138.2040012 123.9314997 -12.3260012 137.8730012 123.5614997 -13.1440012
 138.7920012 123.2614997 -11.9790012 138.2381873 123.7901156 -12.3911898
 139.5700012 127.3594997  -9.6440012 139.4760012 126.7814997 -10.4010012
 140.3000012 126.9884997  -9.1480012 139.6557981 127.2302390  -9.6805835
 138.5700012 122.7004997  -8.6920012 139.1360012 122.8214997  -9.4550012
 138.8890012 123.3374997  -8.0530012 138.6905786 122.8031884  -8.7099960
 144.8790012 128.2034997  -7.9580012 144.6390012 128.8654997  -7.3100012
 144.6810012 127.3694997  -7.5330012 144.8193808 128.1813134  -7.8118476
 139.4500012 127.0994997  -3.9750012 139.1390012 127.8814997  -3.5200012
 138.8000012 126.9464997  -4.6610012 139.3195558 127.1859105  -4.0054129
 136.3700012 123.2974997  -4.7460012 136.4410012 123.9484997  -4.0480012
 135.4800012 123.4004997  -5.0810012 136.2593117 123.4005936  -4.6957300
 143.1560012 129.2004997 -13.0880012 143.6300012 129.4954997 -12.3100012
 142.5930012 129.9384997 -13.3210012 143.1447653 129.3406932 -13.0129864
 137.6900012 129.1714997  -3.2120012 137.6970012 129.0354997  -4.1590012
 136.7740012 129.0534997  -2.9600012 137.5671714 129.1369430  -3.3075334
 137.1940012 123.0014997 -14.7360012 136.9020012 123.7694997 -15.2270012
 136.5200012 122.3414997 -14.8990012 137.0629081 123.0174406 -14.8252660
 133.2870012 125.3644997  -5.9210012 132.7860012 125.3364997  -6.7360012
 133.2920012 124.4584997  -5.6120012 133.2191526 125.2382278  -5.9907128
 133.0370012 128.1444997  -9.0370012 133.9830012 128.0004997  -9.0560012
 132.9250012 128.9284997  -8.5000012 133.1512727 128.2308046  -8.9669928
 142.2140012 128.3844997  -4.4790012 142.3010012 129.2104997  -4.0040012
 141.3500012 128.0544997  -4.2300012 142.1091964 128.4529878  -4.3803451
 142.6280012 132.1564997 -14.6730012 142.5530012 132.0354997 -15.6190012
 142.6610012 133.1064997 -14.5540012 142.6221848 132.2682500 -14.7865166
 136.2810012 130.9454997 -12.8920012 136.4340012 130.5974997 -12.0130012
 135.4310012 130.5894997 -13.1470012 136.1868962 130.8496650 -12.8061660
 135.5360012 126.6874997  -4.8780012 135.7520012 126.3264997  -4.0190012
 134.6810012 126.3134997  -5.0880012 135.4499292 126.5874111  -4.7886614
 138.1550012 115.1574997  -8.8830012 137.2930012 115.0704997  -9.2900012
 138.1320012 116.0134997  -8.4550012 138.0340330 115.2612765  -8.8808137
 142.8180012 114.8794997  -5.5080012 143.2380012 114.4644997  -4.7550012
 141.8850012 114.7014997  -5.3910012 142.7493644 114.7985900  -5.3890461
 142.4790012 117.3724997 -18.2230012 142.2260012 117.3914997 -17.3000012
 142.2230012 116.5004997 -18.5240012 142.4097790 117.2572437 -18.1373737
 138.2460012 120.1234997  -7.7880012 137.6040012 120.0824997  -7.0790012
 138.2830012 121.0494997  -8.0250012 138.1631324 120.2431559  -7.7230176
 138.2430012 120.3444997 -12.8760012 137.3500012 120.0034997 -12.9340012
 138.6930012 119.9674997 -13.6310012 138.1817305 120.2468484 -12.9860823
 143.7780012 120.7604997 -14.0590012 143.3690012 121.5754997 -14.3500012
 144.4990012 120.6204997 -14.6730012 143.8194537 120.8532018 -14.1818658
 142.8800012 120.9354997  -2.5710012 142.3180012 120.2314997  -2.2500012
 143.7070012 120.8154997  -2.1030012 142.9147095 120.8227883  -2.4637670
 144.7830012 120.2064997 -11.2450012 144.5880012 120.8114997 -11.9600012
 144.9640012 119.3724997 -11.6790012 144.7807614 120.1766300 -11.4015595
 135.9960012 120.4434997  -5.9210012 135.9580012 120.8434997  -5.0520012
 135.5050012 119.6264997  -5.8300012 135.9244684 120.3878069  -5.7898941
 139.3620012 117.8174997 -19.1220012 138.9310012 117.3724997 -18.3920012
 138.6440012 118.1894997 -19.6340012 139.2059438 117.8068940 -19.0913201
 132.6040012 117.5594997 -12.0700012 133.2350012 117.5304997 -11.3510012
 133.0530012 117.1344997 -12.8000012 132.7510774 117.4980492 -12.0703447
 133.8780012 118.3054997 -16.6460012 134.3520012 118.8964997 -17.2310012
 133.1610012 118.8364997 -16.2990012 133.8459341 118.4580867 -16.6791164
 144.0470012 121.8444997  -6.5730012 144.3700012 121.2134997  -7.2160012
 143.6070012 121.3094997  -5.9130012 144.0316895 121.6858441  -6.5717150
 140.8240012 117.7714997 -11.7890012 139.9130012 117.8284997 -11.5010012
 141.3300012 117.7114997 -10.9790012 140.7675413 117.7711985 -11.6399378
 135.6530012 119.4004997 -12.9630012 134.7630012 119.5004997 -13.3030012
 135.9490012 118.5584997 -13.3090012 135.5712823 119.3003546 -13.0562787
 139.3060012 119.4004997 -15.3060012 140.2370012 119.5294997 -15.1280012
 139.0910012 120.0704997 -15.9560012 139.4044247 119.5086565 -15.3694253
 137.9800012 120.5954997 -17.7390012 137.4370012 120.2154997 -18.4310012
 138.8130012 120.7894997 -18.1680012 138.0184399 120.5698124 -17.8915474
 136.1150012 125.1524997  -2.6400012 136.8470012 125.4064997  -2.0790012
 135.3350012 125.3564997  -2.1250012 136.1098232 125.2149177  -2.4934240
 142.1440012 120.5594997  -9.9020012 142.7090012 120.0124997 -10.4490012
 141.9970012 120.0374997  -9.1140012 142.2012918 120.4142024  -9.8701546
 137.1460012 116.6954997 -13.4840012 136.8290012 115.7934997 -13.5190012
 137.9280012 116.6974997 -14.0370012 137.2082284 116.5721628 -13.5635217
 140.7710012 118.9474997  -7.4880012 139.9350012 119.4014997  -7.3780012
 141.2950012 119.2234997  -6.7360012 140.7274414 119.0469376  -7.3712864
 141.3150012 125.1604997 -15.8040012 140.5700012 124.6534997 -16.1260012
 141.1810012 125.2094997 -14.8570012 141.1948776 125.0976940 -15.7201353
 142.8340012 125.3444997  -4.5670012 142.4890012 124.9634997  -3.7600012
 142.6340012 126.2784997  -4.4950012 142.7598061 125.4185228  -4.4469039
 136.4400012 124.4554997 -10.0340012 137.1850012 124.4534997 -10.6350012
 136.5180012 123.6324997  -9.5520012 136.5525518 124.3439315 -10.0511071
 143.4410012 126.6194997 -16.7780012 143.1450012 127.4454997 -16.3970012
 142.7380012 125.9994997 -16.5820012 143.3054914 126.6488199 -16.6993557
 133.4480012 122.9164997  -4.7190012 133.6710012 122.4984997  -3.8870012
 132.8460012 122.3034997  -5.1420012 133.3971759 122.7764668  -4.6622978
 140.4640012 122.4334997  -2.5060012 140.1680012 122.2674997  -3.4010012
 141.3960012 122.2134997  -2.5170012 140.5494166 122.3810640  -2.6299464
 138.8150012 127.9734997 -12.6300012 139.3420012 128.7464997 -12.8300012
 137.9350012 128.1984997 -12.9310012 138.7681773 128.1098005 -12.6980990
 134.5700012 122.8354997 -18.0430012 135.1860012 123.4624997 -17.6630012
 133.7080012 123.1514997 -17.7710012 134.5377698 122.9639430 -17.9542817
 140.2420012 125.6364997 -13.0530012 140.0010012 126.5614997 -13.0120012
 139.5010012 125.1774997 -12.6570012 140.1088409 125.7011421 -12.9938623
 140.7570012 129.7854997  -6.7380012 141.1190012 130.6404997  -6.9720012
 141.2880012 129.4934997  -5.9980012 140.8784473 129.8631060  -6.6699145
 138.9250012 130.6584997 -13.5080012 137.9750012 130.7634997 -13.4570012
 139.2770012 131.4784997 -13.1630012 138.8424203 130.7838314 -13.4543350
 144.3010012 125.8844997  -7.0380012 143.8750012 125.6574997  -6.2110012
 144.8810012 125.1464997  -7.2200012 144.3211868 125.7535299  -6.9494170
 135.0820012 117.6694997  -5.1610012 134.1890012 118.0084997  -5.2290012
 134.9830012 116.8144997  -4.7430012 134.9464164 117.6002588  -5.1137765
 134.7330012 129.4744997  -6.7260012 134.9500012 128.5424997  -6.7570012
 134.9790012 129.7484997  -5.8430012 134.7959549 129.3840636  -6.6108237
 140.5950012 127.9254997 -19.5170012 140.8340012 127.1774997 -20.0640012
 140.3260012 127.5374997 -18.6840012 140.5913675 127.7706638 -19.4793135
 139.5320012 127.4954997 -17.0600012 139.6780012 126.9754997 -16.2700012
 139.5290012 128.4024997 -16.7540012 139.5515989 127.5468853 -16.9103912
 135.9850012 124.7484997 -16.5500012 135.2990012 125.1004997 -15.9830012
 136.5070012 125.5114997 -16.7970012 135.9616852 124.8998578 -16.5057882
 143.8160012 117.4104997  -6.2710012 144.5150012 117.4844997  -5.6210012
 143.4350012 116.5464997  -6.1170012 143.8601767 117.3037624  -6.1611678
 144.6010012 117.0624997 -15.1740012 144.8210012 117.5344997 -15.9770012
 145.1590012 117.4574997 -14.5040012 144.7064968 117.1804285 -15.1932669
 142.2690012 129.1934997 -16.3110012 141.4530012 129.6904997 -16.2590012
 142.7990012 129.6684997 -16.9510012 142.2289161 129.3257722 -16.3904044
 141.8010012 118.7904997 -14.3390012 142.6130012 119.2954997 -14.2930012
 141.5560012 118.6454997 -13.4250012 141.8790520 118.8400375 -14.2091483
 142.3360012 119.7764997  -5.1540012 142.4550012 120.3504997  -4.3970012
 142.9920012 119.0884997  -5.0400012 142.4409757 119.7621079  -5.0349175
 142.6840012 115.8714997 -13.4010012 142.3380012 116.4894997 -12.7560012
 143.3430012 116.3724997 -13.8820012 142.7257826 116.0235802 -13.3779029
 139.6080012 130.2374997 -16.3290012 139.7680012 131.0364997 -16.8300012
 139.4100012 130.5434997 -15.4440012 139.6031649 130.3884469 -16.2780185
 138.3420012 116.9344997 -16.7140012 138.2590012 117.8234997 -16.3670012
 139.2320012 116.6694997 -16.4820012 138.4509469 117.0201430 -16.6352374
 136.6010012 127.3624997 -17.6530012 137.1930012 128.0614997 -17.3770012
 137.0600012 126.9294997 -18.3730012 136.7441142 127.3997049 -17.7125170
 134.9170012 120.0264997 -18.5370012 134.8720012 120.9654997 -18.3590012
 134.0290012 119.7904997 -18.8070012 134.7908574 120.1231892 -18.5491088
 135.7250012 114.8084997  -9.8640012 135.4960012 114.8674997 -10.7920012
 135.2820012 114.0164997  -9.5580012 135.6338530 114.7095753  -9.9495214
 134.6550012 128.7484997 -13.7040012 133.8230012 129.2214997 -13.6760012
 135.2010012 129.2584997 -14.3020012 134.6149739 128.8821871 -13.7810284
 133.9430012 131.3614997  -2.3740012 134.4840012 131.1444997  -1.6140012
 133.4620012 130.5554997  -2.5630012 133.9519345 131.2229514  -2.2956924
 138.5410012 130.2804997  -0.7530012 139.3080012 129.8214997  -0.4120012
 138.5190012 130.0544997  -1.6830012 138.6431434 130.1870409  -0.8319957
 142.6330012 129.7884997 -19.3780012 141.9890012 129.1574997 -19.0570012
 143.3950012 129.2574997 -19.6100012 142.6478077 129.6302920 -19.3653989
 133.8500012 125.1714997  -1.4190012 133.9940012 124.2694997  -1.7060012
 133.0780012 125.4574997  -1.9070012 133.7653322 125.0868261  -1.5242119
 138.1920012 125.5154997 -19.2870012 138.2560012 124.7214997 -18.7560012
 138.8450012 125.3964997 -19.9770012 138.2890241 125.3907148 -19.3075683
 140.5060012 125.1414997  -1.9870012 140.1770012 125.4124997  -2.8440012
 140.6580012 124.2004997  -2.0740012 140.4814809 125.0513862  -2.1161756
 134.6830012 122.3714997  -1.9990012 135.0910012 121.5144997  -2.1200012
 134.4230012 122.3864997  -1.0780012 134.7037568 122.2560807  -1.8910412
 139.3410012 123.4874997 -16.9810012 138.8810012 123.0034997 -16.2950012
 139.5960012 122.8194997 -17.6170012 139.3124902 123.3308731 -16.9730666
 138.6300012 121.3804997  -4.6250012 138.0120012 122.0554997  -4.3450012
 138.9740012 121.7014997  -5.4580012 138.5919615 121.5162721  -4.6993419
 140.4120012 121.7304997 -18.7190012 140.2320012 121.5764997 -19.6460012
 141.3620012 121.8384997 -18.6740012 140.5157776 121.7240175 -18.8398157
 143.6500012 123.8524997  -1.3480012 144.6030012 123.9354997  -1.3750012
 143.4890012 123.1404997  -0.7280012 143.7586426 123.7676746  -1.2679421
 138.9690012 118.7354997  -3.5430012 139.1190012 118.0064997  -4.1450012
 138.9720012 119.5124997  -4.1020012 138.9899302 118.7407851  -3.7009308
 139.3820012 117.1054997  -6.0500012 139.9180012 117.5564997  -6.7020012
 138.5300012 116.9974997  -6.4730012 139.3402178 117.1526390  -6.1964244
 140.9640012 122.5444997  -5.8110012 141.7140012 122.3884997  -6.3840012
 140.6250012 123.3964997  -6.0860012 141.0208921 122.6382968  -5.9266439
 137.4480012 119.9334997  -1.6310012 136.6810012 119.4014997  -1.8410012
 138.1270012 119.6234997  -2.2310012 137.4347022 119.8187506  -1.7408352
 140.1880012 114.5614997  -5.6190012 140.0890012 115.5084997  -5.7240012
 139.4450012 114.1894997  -6.0940012 140.0740564 114.6405902  -5.6975440
 141.4520012 118.8834997  -2.0550012 141.2160012 118.6634997  -1.1530012
 140.6680012 118.6764997  -2.5650012 141.3138628 118.8254760  -2.0006068
 144.1670012 118.0104997  -2.9790012 143.2200012 118.0424997  -2.8470012
 144.4800012 117.3854997  -2.3260012 144.0795475 117.9303207  -2.8725545
 135.6280012 117.8544997  -1.9270012 135.8400012 117.1474997  -2.5370012
 135.5170012 117.4164997  -1.0830012 135.6419721 117.6987084  -1.8963157
 140.4090012 113.8554997  -2.9470012 141.1210012 113.2154997  -2.9610012
 140.3080012 114.1224997  -3.8610012 140.4927939 113.8039938  -3.0724350
 140.7630012 115.5384997  -0.8940012 140.6310012 115.0624997  -1.7140012
 140.1640012 116.2824997  -0.9490012 140.6639071 115.5739618  -1.0137114
 140.3090012 132.4214997 -17.7170012 141.2420012 132.5794997 -17.5740012
 140.0450012 133.0964997 -18.3420012 140.4009510 132.5343611 -17.7819259
 133.8780012 127.0574997 -18.2350012 134.7920012 127.1364997 -17.9610012
 133.8850012 126.3704997 -18.9010012 134.0041131 126.9753961 -18.2875607
 132.5270012 132.4504997 -13.1570012 131.8800012 131.9884997 -13.6900012
 132.8810012 131.7784997 -12.5750012 132.4863849 132.2964723 -13.1512041
 133.3970012 130.5314997 -11.3530012 133.0620012 129.6514997 -11.1810012
 133.6190012 130.8764997 -10.4880012 133.3811783 130.4577500 -11.2125792
 133.4770012 123.6064997  -8.9010012 133.6610012 123.5244997  -9.8370012
 134.3260012 123.4824997  -8.4770012 133.6170139 123.5785003  -8.9718545
 133.0740012 118.8774997  -2.7600012 133.9940012 118.7554997  -2.5240012
 132.6250012 118.1274997  -2.3710012 133.1391580 118.7593727  -2.6750994
 134.2950012 117.1894997  -9.8690012 134.7410012 116.3974997  -9.5670012
 134.7620012 117.9054997  -9.4380012 134.4190172 117.1780624  -9.7695180
 132.5990012 120.1884997  -8.8000012 133.0910012 119.9674997  -9.5910012
 132.9620012 121.0294997  -8.5190012 132.7153126 120.2718357  -8.8702469
 132.9130012 116.4464997 -14.7460012 131.9880012 116.6554997 -14.8750012
 133.3670012 116.9304997 -15.4350012 132.8477368 116.5405993 -14.8568774
 132.8770012 115.1844997  -6.4010012 132.2120012 114.9384997  -5.7580012
 132.4340012 115.8064997  -6.9790012 132.7260956 115.2348632  -6.3910648
 135.0690012 128.3594997  -2.2570012 134.2480012 128.5344997  -2.7170012
 134.8160012 128.2864997  -1.3360012 134.9226164 128.3735622  -2.1955077
 138.0230012 129.3344997  -5.9980012 137.5980012 130.1434997  -6.2810012
 138.9270012 129.4194997  -6.3000012 138.0870271 129.4568469  -6.0776224
 142.3340012 130.7334997  -3.0390012 142.5190012 130.3994997  -2.1610012
 143.1800012 131.0424997  -3.3610012 142.4737539 130.7296047  -2.9624395
 144.6790012 132.0194997  -3.7950012 145.3560012 131.3864997  -4.0350012
 145.0010012 132.4204997  -2.9880012 144.8151637 131.9871154  -3.7187207
 135.4250012 132.5904997  -5.9510012 134.7040012 133.0304997  -6.4020012
 135.0590012 132.3394997  -5.1020012 135.2769804 132.6167698  -5.8980160
 137.8920012 132.1904997  -6.9210012 137.0270012 132.2624997  -6.5170012
 137.8370012 132.7374997  -7.7050012 137.7662085 132.2742685  -6.9716638
 142.6020012 132.0784997  -7.7460012 142.1460012 132.6074997  -8.4000012
 142.7650012 132.6814997  -7.0200012 142.5615585 132.2324468  -7.7374938
 134.8390012 131.2134997  -9.0410012 134.8210012 130.7884997  -8.1830012
 135.6440012 130.8954997  -9.4490012 134.9453875 131.1123812  -8.9788345
 136.9810012 129.9234997 -10.3860012 136.7620012 129.0074997 -10.2160012
 137.8050012 130.0634997  -9.9200012 137.0624420 129.8170520 -10.2997226
 139.5180012 130.3934997  -9.5370012 139.7310012 129.5054997  -9.8240012
 139.5820012 130.3594997  -8.5830012 139.5558231 130.2673102  -9.4472603
 143.0260012 116.0574997 -10.3930012 142.3520012 115.4284997 -10.1370012
 143.5900012 115.5734997 -10.9960012 143.0099230 115.9058744 -10.4394660
 135.3530012 114.6914997 -12.5710012 134.5760012 114.4574997 -13.0780012
 135.8830012 113.8944997 -12.5620012 135.3182330 114.5516988 -12.6392258
 134.1890012 114.4894997 -16.7670012 134.6280012 115.1004997 -17.3590012
 133.5560012 115.0274997 -16.2930012 134.1634514 114.6459257 -16.7839070
 139.9320012 114.6184997 -12.7570012 140.8070012 115.0064997 -12.7870012
 139.7960012 114.4034997 -11.8350012 140.0333695 114.6425184 -12.6363560
 134.0900012 130.4374997 -15.8690012 133.4050012 130.3994997 -16.5370012
 134.0940012 131.3504997 -15.5810012 133.9968193 130.5557016 -15.9214716
 136.0500012 116.4054997 -18.3250012 136.5420012 115.7754997 -18.8520012
 136.6740012 116.7014997 -17.6610012 136.2015446 116.3593199 -18.3074020
 141.0760012 116.6984997 -15.8680012 141.2540012 116.0524997 -15.1850012
 141.0230012 117.5324997 -15.4000012 141.0931829 116.7227985 -15.7114060
 142.9550012 131.6474997 -17.4720012 143.8210012 132.0134997 -17.6500012
 142.7080012 131.2074997 -18.2860012 143.0402392 131.6381756 -17.6063711
 135.3110012 115.2054997  -3.0530012 134.9450012 114.4404997  -2.6100012
 136.2240012 115.2344997  -2.7660012 135.3842790 115.1047224  -2.9535930
 137.2840012 114.5564997  -1.5170012 138.1820012 114.2824997  -1.7020012
 136.8970012 113.8134997  -1.0530012 137.3546612 114.4185914  -1.4796357
 135.9080012 131.3574997 -18.8440012 135.6410012 131.6444997 -17.9710012
 136.6800012 130.8114997 -18.6920012 135.9757488 131.3230294 -18.7038950
  12.4390012 142.7034997 -12.6120012  12.5280012 143.6474997 -12.7440012
  11.8010012 142.4284997 -13.2700012  12.3649081 142.7954830 -12.7190386
  11.3720012 141.9584997  -9.1930012  11.3340012 141.3124997  -8.4880012
  11.0500012 141.4924997  -9.9640012  11.3232333 141.8069408  -9.2007022
   3.7410012 141.5734997  -7.6000012   3.7820012 140.9474997  -6.8770012
   4.4440012 142.1974997  -7.4180012   3.8416363 141.5721196  -7.4763956
  15.0780012 144.8974997 -10.8920012  14.6380012 144.1774997 -10.4410012
  15.0650012 145.6184997 -10.2620012  15.0160226 144.8963731 -10.7451506
   1.2740012 139.6834997 -13.6720012   0.8270012 140.5294997 -13.6910012
   0.7130012 139.1034997 -14.1880012   1.1369900 139.7209916 -13.7443199
   1.9850012 141.8454997 -11.5460012   2.1980012 141.0754997 -11.0190012
   2.7230012 141.9344997 -12.1500012   2.1138496 141.7521394 -11.5554700
   9.7620012 144.3914997  -8.7870012  10.0660012 143.7054997  -9.3820012
  10.4830012 144.5094997  -8.1690012   9.9010671 144.3136305  -8.7848184
  18.4250012 135.9924997  -7.9260012  18.4740012 136.6024997  -7.1900012
  18.8500012 136.4534997  -8.6490012  18.4891824 136.1383741  -7.9229795
  12.9030012 138.7854997  -8.4590012  13.0450012 137.8394997  -8.4390012
  12.7960012 138.9924997  -9.3880012  12.9079863 138.6839534  -8.5817661
   6.0570012 136.8864997 -11.1870012   6.1010012 137.7464997 -11.6050012
   5.6000012 136.3344997 -11.8210012   6.0012185 136.9295799 -11.3299701
  13.7800012 137.0174997 -12.7860012  14.4260012 136.6884997 -12.1610012
  14.2900012 137.5354997 -13.4090012  13.9374264 137.0424611 -12.7846138
   2.6780012 139.2834997 -10.4250012   3.3310012 138.7334997  -9.9930012
   2.7020012 139.0094997 -11.3420012   2.7706683 139.1711466 -10.4897877
   7.8340012 140.8334997 -11.2100012   8.4500012 140.3074997 -10.7000012
   7.2480012 140.1934997 -11.6130012   7.8390810 140.6749208 -11.1946827
  18.8160012 137.4704997  -5.6900012  18.1280012 138.1284997  -5.7860012
  18.8320012 137.2734997  -4.7540012  18.7238525 137.5340462  -5.5765192
   4.8680012 135.8044997  -7.1130012   4.6490012 136.3344997  -7.8790012
   4.2000012 136.0314997  -6.4660012   4.7477600 135.9076906  -7.1303621
   7.4370012 143.4804997  -6.8260012   6.6970012 144.0784997  -6.7220012
   8.1510012 144.0344997  -7.1410012   7.4322237 143.6372831  -6.8543535
  15.5440012 136.3084997 -10.8060012  15.3280012 135.5424997 -10.2730012
  16.1990012 136.7804997 -10.2930012  15.6030632 136.2675889 -10.6637139
   4.4610012 137.6964997  -9.1610012   5.0750012 138.3294997  -8.7870012
   4.9730012 137.2244997  -9.8170012   4.6142296 137.7192370  -9.1985748
  15.8910012 135.0234997  -7.1260012  15.1550012 135.6344997  -7.1640012
  16.5740012 135.4384997  -7.6530012  15.8826541 135.1631374  -7.2024168
   8.8940012 133.1104997  -9.6600012   8.7770012 132.1614997  -9.7150012
   8.0390012 133.4424997  -9.3870012   8.7623733 133.0255409  -9.6306103
  16.6880012 144.9854997  -4.9320012  16.8280012 144.3944997  -5.6720012
  16.8550012 145.8584997  -5.2890012  16.7296778 145.0226426  -5.0813035
  11.1610012 141.9474997 -15.1600012  10.4490012 142.4824997 -15.5120012
  11.8520012 142.0034997 -15.8200012  11.1570132 142.0282543 -15.2973711
  11.2140012 140.4054997 -18.1210012  11.9150012 140.4274997 -17.4700012
  11.5170012 139.7774997 -18.7770012  11.3507830 140.3236566 -18.1206289
  18.5300012 141.3254997  -6.8660012  17.8770012 142.0204997  -6.7770012
  18.9950012 141.5354997  -7.6760012  18.5035390 141.4489425  -6.9633117
  14.5660012 142.1574997 -14.2080012  13.8340012 142.3854997 -13.6350012
  15.0140012 141.4434997 -13.7530012  14.5263095 142.0922571 -14.0680881
  14.4640012 140.3314997  -5.1410012  14.5440012 141.0944997  -4.5690012
  13.8620012 140.6104997  -5.8310012  14.3935756 140.4737134  -5.1559411
   6.2120012 142.7874997 -12.3260012   5.8810012 142.4174997 -13.1440012
   6.8000012 142.1174997 -11.9790012   6.2461873 142.6461156 -12.3911898
   6.5780012 141.5564997  -8.6920012   7.1440012 141.6774997  -9.4550012
   6.8970012 142.1934997  -8.0530012   6.6985786 141.6591884  -8.7099960
  13.4370012 141.3194997 -16.5230012  14.0170012 141.4694997 -15.7760012
  13.8510012 141.7904997 -17.2460012  13.5722831 141.4036841 -16.5185866
   4.3780012 142.1534997  -4.7460012   4.4490012 142.8044997  -4.0480012
   3.4880012 142.2564997  -5.0810012   4.2673117 142.2565936  -4.6957300
  17.1360012 133.0694997 -16.7100012  16.2360012 133.2084997 -16.4150012
  17.3880012 133.9004997 -17.1120012  17.0468702 133.2009074 -16.7239795
   5.2020012 141.8574997 -14.7360012   4.9100012 142.6254997 -15.2270012
   4.5280012 141.1974997 -14.8990012   5.0709081 141.8734406 -14.8252660
   1.2950012 144.2204997  -5.9210012   0.7940012 144.1924997  -6.7360012
   1.3000012 143.3144997  -5.6120012   1.2271526 144.0942278  -5.9907128
  16.3950012 139.1594997  -2.8750012  15.9880012 139.6404997  -3.5960012
  16.4360012 138.2544997  -3.1830012  16.3448437 139.1029374  -3.0153317
   6.1630012 134.0134997  -8.8830012   5.3010012 133.9264997  -9.2900012
   6.1400012 134.8694997  -8.4550012   6.0420330 134.1172765  -8.8808137
  10.8260012 133.7354997  -5.5080012  11.2460012 133.3204997  -4.7550012
   9.8930012 133.5574997  -5.3910012  10.7573644 133.6545900  -5.3890461
  14.1520012 137.4914997  -4.6550012  13.6380012 137.3654997  -3.8570012
  13.9970012 138.4034997  -4.8990012  14.0606852 137.5976132  -4.5787842
  14.9150012 142.3524997 -18.8930012  14.9570012 142.1294997 -19.8230012
  15.7640012 142.7514997 -18.7030012  15.0355396 142.3759155 -18.9946373
  10.4870012 136.2284997 -18.2230012  10.2340012 136.2474997 -17.3000012
  10.2310012 135.3564997 -18.5240012  10.4177790 136.1132437 -18.1373737
   6.2540012 138.9794997  -7.7880012   5.6120012 138.9384997  -7.0790012
   6.2910012 139.9054997  -8.0250012   6.1711324 139.0991559  -7.7230176
   6.2510012 139.2004997 -12.8760012   5.3580012 138.8594997 -12.9340012
   6.7010012 138.8234997 -13.6310012   6.1897305 139.1028484 -12.9860823
  11.7860012 139.6164997 -14.0590012  11.3770012 140.4314997 -14.3500012
  12.5070012 139.4764997 -14.6730012  11.8274537 139.7092018 -14.1818658
  10.8880012 139.7914997  -2.5710012  10.3260012 139.0874997  -2.2500012
  11.7150012 139.6714997  -2.1030012  10.9227095 139.6787883  -2.4637670
  12.7910012 139.0624997 -11.2450012  12.5960012 139.6674997 -11.9600012
  12.9720012 138.2284997 -11.6790012  12.7887614 139.0326300 -11.4015595
   4.0040012 139.2994997  -5.9210012   3.9660012 139.6994997  -5.0520012
   3.5130012 138.4824997  -5.8300012   3.9324684 139.2438069  -5.7898941
   7.3700012 136.6734997 -19.1220012   6.9390012 136.2284997 -18.3920012
   6.6520012 137.0454997 -19.6340012   7.2139438 136.6628940 -19.0913201
   0.6120012 136.4154997 -12.0700012   1.2430012 136.3864997 -11.3510012
   1.0610012 135.9904997 -12.8000012   0.7590774 136.3540492 -12.0703447
   1.8860012 137.1614997 -16.6460012   2.3600012 137.7524997 -17.2310012
   1.1690012 137.6924997 -16.2990012   1.8539341 137.3140867 -16.6791164
  12.0550012 140.7004997  -6.5730012  12.3780012 140.0694997  -7.2160012
  11.6150012 140.1654997  -5.9130012  12.0396895 140.5418441  -6.5717150
   8.8320012 136.6274997 -11.7890012   7.9210012 136.6844997 -11.5010012
   9.3380012 136.5674997 -10.9790012   8.7755413 136.6271985 -11.6399378
   3.6610012 138.2564997 -12.9630012   2.7710012 138.3564997 -13.3030012
   3.9570012 137.4144997 -13.3090012   3.5792823 138.1563545 -13.0562787
   7.3140012 138.2564997 -15.3060012   8.2450012 138.3854997 -15.1280012
   7.0990012 138.9264997 -15.9560012   7.4124247 138.3646565 -15.3694253
  13.2370012 135.8624997  -8.5250012  12.5610012 135.9934997  -7.8610012
  12.7520012 135.7074997  -9.3350012  13.0787145 135.8594905  -8.5435483
   5.9880012 139.4514997 -17.7390012   5.4450012 139.0714997 -18.4310012
   6.8210012 139.6454997 -18.1680012   6.0264399 139.4258124 -17.8915474
   4.1230012 144.0084997  -2.6400012   4.8550012 144.2624997  -2.0790012
   3.3430012 144.2124997  -2.1250012   4.1178232 144.0709177  -2.4934240
  10.1520012 139.4154997  -9.9020012  10.7170012 138.8684997 -10.4490012
  10.0050012 138.8934997  -9.1140012  10.2092918 139.2702024  -9.8701546
   5.1540012 135.5514997 -13.4840012   4.8370012 134.6494997 -13.5190012
   5.9360012 135.5534997 -14.0370012   5.2162284 135.4281628 -13.5635217
   8.7790012 137.8034997  -7.4880012   7.9430012 138.2574997  -7.3780012
   9.3030012 138.0794997  -6.7360012   8.7354414 137.9029376  -7.3712864
   9.3230012 144.0164997 -15.8040012   8.5780012 143.5094997 -16.1260012
   9.1890012 144.0654997 -14.8570012   9.2028776 143.9536940 -15.7201353
  16.4730012 143.1494997  -7.0170012  17.1150012 143.6064997  -7.5610012
  15.6430012 143.2624997  -7.4800012  16.4485963 143.2272704  -7.1539823
  13.2210012 136.8304997 -17.6040012  12.2820012 136.9424997 -17.7560012
  13.5180012 137.6874997 -17.2980012  13.1327666 136.9616443 -17.5834232
  10.8420012 144.2004997  -4.5670012  10.4970012 143.8194997  -3.7600012
  10.6420012 145.1344997  -4.4950012  10.7678061 144.2745228  -4.4469039
  13.9390012 138.6974997 -15.9440012  14.8310012 138.5604997 -15.6250012
  13.9960012 139.4884997 -16.4800012  14.0686285 138.7856660 -15.9728309
   4.4480012 143.3114997 -10.0340012   5.1930012 143.3094997 -10.6350012
   4.5260012 142.4884997  -9.5520012   4.5605518 143.1999315 -10.0511071
   1.4560012 141.7724997  -4.7190012   1.6790012 141.3544997  -3.8870012
   0.8540012 141.1594997  -5.1420012   1.4051759 141.6324668  -4.6622978
   8.4720012 141.2894997  -2.5060012   8.1760012 141.1234997  -3.4010012
   9.4040012 141.0694997  -2.5170012   8.5574166 141.2370640  -2.6299464
  18.8240012 138.9074997 -16.2490012  18.2700012 138.5114997 -16.9210012
  18.9240012 139.8174997 -16.5270012  18.7617059 138.9763586 -16.3785599
  18.7870012 144.7074997  -3.4120012  17.9360012 144.9454997  -3.7790012
  19.3780012 144.6904997  -4.1650012  18.7502487 144.7378258  -3.5641107
  14.2800012 142.5014997  -8.7630012  13.3510012 142.2694997  -8.7900012
  14.7310012 141.7244997  -9.0930012  14.2139216 142.3647238  -8.8113083
   2.5780012 141.6914997 -18.0430012   3.1940012 142.3184997 -17.6630012
   1.7160012 142.0074997 -17.7710012   2.5457698 141.8199430 -17.9542817
   8.2500012 144.4924997 -13.0530012   8.0090012 145.4174997 -13.0120012
   7.5090012 144.0334997 -12.6570012   8.1168409 144.5571421 -12.9938623
  12.3090012 144.7404997  -7.0380012  11.8830012 144.5134997  -6.2110012
  12.8890012 144.0024997  -7.2200012  12.3291868 144.6095299  -6.9494170
   3.0900012 136.5254997  -5.1610012   2.1970012 136.8644997  -5.2290012
   2.9910012 135.6704997  -4.7430012   2.9544164 136.4562588  -5.1137765
  15.3780012 144.3424997 -15.7370012  15.1000012 143.6144997 -15.1810012
  16.3050012 144.4614997 -15.5320012  15.4653124 144.2588802 -15.6331155
   3.9930012 143.6044997 -16.5500012   3.3070012 143.9564997 -15.9830012
   4.5150012 144.3674997 -16.7970012   3.9696852 143.7558578 -16.5057882
  11.8240012 136.2664997  -6.2710012  12.5230012 136.3404997  -5.6210012
  11.4430012 135.4024997  -6.1170012  11.8681767 136.1597624  -6.1611678
  12.6090012 135.9184997 -15.1740012  12.8290012 136.3904997 -15.9770012
  13.1670012 136.3134997 -14.5040012  12.7144968 136.0364285 -15.1932669
   9.8090012 137.6464997 -14.3390012  10.6210012 138.1514997 -14.2930012
   9.5640012 137.5014997 -13.4250012   9.8870520 137.6960375 -14.2091483
  10.3440012 138.6324997  -5.1540012  10.4630012 139.2064997  -4.3970012
  11.0000012 137.9444997  -5.0400012  10.4489757 138.6181079  -5.0349175
  10.6920012 134.7274997 -13.4010012  10.3460012 135.3454997 -12.7560012
  11.3510012 135.2284997 -13.8820012  10.7337826 134.8795802 -13.3779029
   6.3500012 135.7904997 -16.7140012   6.2670012 136.6794997 -16.3670012
   7.2400012 135.5254997 -16.4820012   6.4589469 135.8761430 -16.6352374
  16.5490012 136.5394997  -4.3190012  15.6320012 136.8024997  -4.4070012
  16.8840012 136.5364997  -5.2160012  16.4689900 136.5750224  -4.4522081
  15.1510012 140.2904997 -10.2240012  14.3530012 139.8754997 -10.5520012
  15.5960012 139.5994997  -9.7330012  15.1019885 140.1403543 -10.2025111
   2.9250012 138.8824997 -18.5370012   2.8800012 139.8214997 -18.3590012
   2.0370012 138.6464997 -18.8070012   2.7988574 138.9791892 -18.5491088
   3.7330012 133.6644997  -9.8640012   3.5040012 133.7234997 -10.7920012
   3.2900012 132.8724997  -9.5580012   3.6418530 133.5655753  -9.9495214
   1.8580012 144.0274997  -1.4190012   2.0020012 143.1254997  -1.7060012
   1.0860012 144.3134997  -1.9070012   1.7733322 143.9428261  -1.5242119
   6.2000012 144.3714997 -19.2870012   6.2640012 143.5774997 -18.7560012
   6.8530012 144.2524997 -19.9770012   6.2970241 144.2467148 -19.3075683
   8.5140012 143.9974997  -1.9870012   8.1850012 144.2684997  -2.8440012
   8.6660012 143.0564997  -2.0740012   8.4894809 143.9073862  -2.1161756
  14.2480012 143.9134997  -4.6030012  14.9940012 144.5014997  -4.7230012
  13.4910012 144.4954997  -4.5400012  14.2477554 144.0727011  -4.6109093
   2.6910012 141.2274997  -1.9990012   3.0990012 140.3704997  -2.1200012
   2.4310012 141.2424997  -1.0780012   2.7117568 141.1120807  -1.8910412
   7.3490012 142.3434997 -16.9810012   6.8890012 141.8594997 -16.2950012
   7.6040012 141.6754997 -17.6170012   7.3204902 142.1868731 -16.9730666
   6.6380012 140.2364997  -4.6250012   6.0200012 140.9114997  -4.3450012
   6.9820012 140.5574997  -5.4580012   6.5999615 140.3722721  -4.6993419
   8.4200012 140.5864997 -18.7190012   8.2400012 140.4324997 -19.6460012
   9.3700012 140.6944997 -18.6740012   8.5237776 140.5800175 -18.8398157
  11.6580012 142.7084997  -1.3480012  12.6110012 142.7914997  -1.3750012
  11.4970012 141.9964997  -0.7280012  11.7666426 142.6236746  -1.2679421
  17.8100012 142.9414997 -19.2730012  17.5360012 142.5164997 -20.0860012
  17.8490012 143.8724997 -19.4900012  17.7777699 143.0092484 -19.4136390
   6.9770012 137.5914997  -3.5430012   7.1270012 136.8624997  -4.1450012
   6.9800012 138.3684997  -4.1020012   6.9979302 137.5967851  -3.7009308
   7.3900012 135.9614997  -6.0500012   7.9260012 136.4124997  -6.7020012
   6.5380012 135.8534997  -6.4730012   7.3482178 136.0086390  -6.1964244
   8.9720012 141.4004997  -5.8110012   9.7220012 141.2444997  -6.3840012
   8.6330012 142.2524997  -6.0860012   9.0288921 141.4942968  -5.9266439
  13.3870012 139.2154997  -0.7820012  13.5800012 138.2844997  -0.8940012
  14.2450012 139.6404997  -0.7920012  13.5293020 139.1456389  -0.7986639
  14.7040012 142.0044997  -2.7050012  14.4230012 142.7134997  -3.2820012
  15.6470012 141.9314997  -2.8560012  14.7929027 142.0917646  -2.8044449
   5.4560012 138.7894997  -1.6310012   4.6890012 138.2574997  -1.8410012
   6.1350012 138.4794997  -2.2310012   5.4427022 138.6747506  -1.7408352
   8.1960012 133.4174997  -5.6190012   8.0970012 134.3644997  -5.7240012
   7.4530012 133.0454997  -6.0940012   8.0820564 133.4965902  -5.6975440
   9.4600012 137.7394997  -2.0550012   9.2240012 137.5194997  -1.1530012
   8.6760012 137.5324997  -2.5650012   9.3218628 137.6814760  -2.0006068
  12.1750012 136.8664997  -2.9790012  11.2280012 136.8984997  -2.8470012
  12.4880012 136.2414997  -2.3260012  12.0875475 136.7863207  -2.8725545
  13.8090012 135.5004997  -0.9740012  13.7130012 134.5484997  -0.9800012
  13.4880012 135.7694997  -0.1140012  13.7524070 135.4064035  -0.8584559
   3.6360012 136.7104997  -1.9270012   3.8480012 136.0034997  -2.5370012
   3.5250012 136.2724997  -1.0830012   3.6499721 136.5547084  -1.8963157
   8.4170012 132.7114997  -2.9470012   9.1290012 132.0714997  -2.9610012
   8.3160012 132.9784997  -3.8610012   8.5007939 132.6599938  -3.0724350
   8.7710012 134.3944997  -0.8940012   8.6390012 133.9184997  -1.7140012
   8.1720012 135.1384997  -0.9490012   8.6719071 134.4299618  -1.0137114
  18.2680012 143.8104997 -15.2980012  19.1180012 144.2314997 -15.1710012
  18.2740012 143.0704997 -14.6910012  18.3851372 143.7680803 -15.1985656
  18.6630012 141.8634997 -13.4740012  17.9360012 141.3844997 -13.0770012
  19.2440012 142.0694997 -12.7420012  18.6419375 141.8257090 -13.3205871
  18.4220012 144.6484997  -8.5270012  19.2550012 144.2704997  -8.8070012
  18.5340012 145.5914997  -8.6460012  18.5512647 144.7242218  -8.5814513
  18.9310012 141.7644997 -17.0830012  18.4090012 142.1214997 -17.8020012
  18.8980012 142.4394997 -16.4050012  18.8551634 141.9045413 -17.0896855
  17.2800012 139.0044997 -18.5320012  17.3760012 139.6714997 -19.2130012
  17.1400012 138.1884997 -19.0140012  17.2742135 138.9854500 -18.6901509
  16.4490012 140.3844997 -12.9110012  16.2990012 139.4394997 -12.9320012
  16.0960012 140.6654997 -12.0680012  16.3806625 140.2930441 -12.7997654
   1.4850012 142.4624997  -8.9010012   1.6690012 142.3804997  -9.8370012
   2.3340012 142.3384997  -8.4770012   1.6250139 142.4345003  -8.9718545
  17.3060012 142.3544997  -3.2730012  17.8890012 141.6204997  -3.0810012
  17.8700012 143.1264997  -3.2260012  17.4619769 142.3584227  -3.2403841
  18.8020012 140.2574997  -2.5880012  17.9390012 139.8784997  -2.7540012
  19.4070012 139.5184997  -2.6620012  18.7655979 140.1058023  -2.6207183
  16.5270012 136.4124997 -19.4150012  17.1380012 136.0414997 -18.7780012
  15.6910012 135.9914997 -19.2190012  16.4975032 136.3047554 -19.3012965
  16.1600012 137.9674997 -14.4490012  16.4400012 137.0604997 -14.3250012
  16.9190012 138.4014997 -14.8380012  16.3009277 137.9020942 -14.4846318
  16.7720012 138.5484997  -9.0130012  17.7050012 138.7604997  -9.0470012
  16.5370012 138.6504997  -8.0910012  16.8678036 138.5912769  -8.8930024
  16.8010012 139.2854997  -6.2370012  15.9580012 139.5534997  -5.8710012
  17.2430012 140.1074997  -6.4480012  16.7454158 139.4333291  -6.2154509
   1.0820012 137.7334997  -2.7600012   2.0020012 137.6114997  -2.5240012
   0.6330012 136.9834997  -2.3710012   1.1471580 137.6153727  -2.6750994
  19.0840012 133.2654997  -0.8840012  19.4340012 132.6114997  -1.4890012
  19.2310012 134.1024997  -1.3230012  19.1518419 133.2891591  -1.0262882
  16.7730012 135.2304997 -14.4010012  16.9560012 134.7814997 -13.5750012
  16.1740012 134.6454997 -14.8640012  16.7170202 135.0899975 -14.3506725
   2.3030012 136.0454997  -9.8690012   2.7490012 135.2534997  -9.5670012
   2.7700012 136.7614997  -9.4380012   2.4270172 136.0340624  -9.7695180
   0.6070012 139.0444997  -8.8000012   1.0990012 138.8234997  -9.5910012
   0.9700012 139.8854997  -8.5190012   0.7233126 139.1278357  -8.8702469
  18.6040012 135.3744997  -2.5340012  17.6860012 135.6454997  -2.5700012
  18.7270012 134.8394997  -3.3190012  18.4951066 135.3392892  -2.6449513
  18.6400012 135.2974997 -17.8730012  19.0520012 134.5764997 -18.3480012
  19.3220012 135.9674997 -17.8140012  18.7885885 135.2892368 -17.9301085
   0.9210012 135.3024997 -14.7460012  -0.0039988 135.5114997 -14.8750012
   1.3750012 135.7864997 -15.4350012   0.8557368 135.3965993 -14.8568774
   0.8850012 134.0404997  -6.4010012   0.2200012 133.7944997  -5.7580012
   0.4420012 134.6624997  -6.9790012   0.7340956 134.0908632  -6.3910648
  17.6040012 133.4644997  -4.7150012  16.7920012 133.7894997  -5.1030012
  17.8370012 132.7044997  -5.2480012  17.5243423 133.4062436  -4.8401747
  11.0340012 134.9134997 -10.3930012  10.3600012 134.2844997 -10.1370012
  11.5980012 134.4294997 -10.9960012  11.0179230 134.7618744 -10.4394660
  16.1770012 133.0214997 -10.2800012  16.7810012 133.5684997 -10.7820012
  15.3070012 133.3404997 -10.5200012  16.1421241 133.1395806 -10.3812346
  17.9040012 134.1594997 -11.9470012  18.5160012 133.6454997 -12.4730012
  18.2860012 135.0374997 -11.9230012  18.0394540 134.2077140 -12.0158170
   3.3610012 133.5474997 -12.5710012   2.5840012 133.3134997 -13.0780012
   3.8910012 132.7504997 -12.5620012   3.3262330 133.4076988 -12.6392258
   2.1970012 133.3454997 -16.7670012   2.6360012 133.9564997 -17.3590012
   1.5640012 133.8834997 -16.2930012   2.1714514 133.5019257 -16.7839070
   7.9400012 133.4744997 -12.7570012   8.8150012 133.8624997 -12.7870012
   7.8040012 133.2594997 -11.8350012   8.0413695 133.4985184 -12.6363560
  13.4970012 133.5044997 -11.1080012  13.5730012 133.5994997 -12.0580012
  13.2220012 132.5964997 -10.9790012  13.4702321 133.3947867 -11.2204921
  14.8500012 133.5304997 -15.4160012  14.1480012 134.1454997 -15.6250012
  14.4060012 132.6924997 -15.2850012  14.6936330 133.5015783 -15.4269672
   4.0580012 135.2614997 -18.3250012   4.5500012 134.6314997 -18.8520012
   4.6820012 135.5574997 -17.6610012   4.2095446 135.2153199 -18.3074020
   9.0840012 135.5544997 -15.8680012   9.2620012 134.9084997 -15.1850012
   9.0310012 136.3884997 -15.4000012   9.1011829 135.5787985 -15.7114060
   3.3190012 134.0614997  -3.0530012   2.9530012 133.2964997  -2.6100012
   4.2320012 134.0904997  -2.7660012   3.3922790 133.9607224  -2.9535930
   5.2920012 133.4124997  -1.5170012   6.1900012 133.1384997  -1.7020012
   4.9050012 132.6694997  -1.0530012   5.3626612 133.2745914  -1.4796357
  13.7130012 132.7444997  -1.3350012  13.7900012 132.3184997  -0.4810012
  14.6070012 132.7584997  -1.6780012  13.8443428 132.6880880  -1.2644690
  31.2950012 142.7034997 -12.6120012  31.3840012 143.6474997 -12.7440012
  30.6570012 142.4284997 -13.2700012  31.2209081 142.7954830 -12.7190386
  30.2280012 141.9584997  -9.1930012  30.1900012 141.3124997  -8.4880012
  29.9060012 141.4924997  -9.9640012  30.1792333 141.8069408  -9.2007022
  22.5970012 141.5734997  -7.6000012  22.6380012 140.9474997  -6.8770012
  23.3000012 142.1974997  -7.4180012  22.6976363 141.5721196  -7.4763956
  33.9340012 144.8974997 -10.8920012  33.4940012 144.1774997 -10.4410012
  33.9210012 145.6184997 -10.2620012  33.8720226 144.8963731 -10.7451506
  20.1300012 139.6834997 -13.6720012  19.6830012 140.5294997 -13.6910012
  19.5690012 139.1034997 -14.1880012  19.9929900 139.7209916 -13.7443199
  20.8410012 141.8454997 -11.5460012  21.0540012 141.0754997 -11.0190012
  21.5790012 141.9344997 -12.1500012  20.9698496 141.7521394 -11.5554700
  28.6180012 144.3914997  -8.7870012  28.9220012 143.7054997  -9.3820012
  29.3390012 144.5094997  -8.1690012  28.7570671 144.3136305  -8.7848184
  37.2810012 135.9924997  -7.9260012  37.3300012 136.6024997  -7.1900012
  37.7060012 136.4534997  -8.6490012  37.3451824 136.1383741  -7.9229795
  31.7590012 138.7854997  -8.4590012  31.9010012 137.8394997  -8.4390012
  31.6520012 138.9924997  -9.3880012  31.7639863 138.6839534  -8.5817661
  24.9130012 136.8864997 -11.1870012  24.9570012 137.7464997 -11.6050012
  24.4560012 136.3344997 -11.8210012  24.8572185 136.9295799 -11.3299701
  32.6360012 137.0174997 -12.7860012  33.2820012 136.6884997 -12.1610012
  33.1460012 137.5354997 -13.4090012  32.7934264 137.0424611 -12.7846138
  21.5340012 139.2834997 -10.4250012  22.1870012 138.7334997  -9.9930012
  21.5580012 139.0094997 -11.3420012  21.6266683 139.1711466 -10.4897877
  26.6900012 140.8334997 -11.2100012  27.3060012 140.3074997 -10.7000012
  26.1040012 140.1934997 -11.6130012  26.6950810 140.6749208 -11.1946827
  37.6720012 137.4704997  -5.6900012  36.9840012 138.1284997  -5.7860012
  37.6880012 137.2734997  -4.7540012  37.5798525 137.5340462  -5.5765192
  23.7240012 135.8044997  -7.1130012  23.5050012 136.3344997  -7.8790012
  23.0560012 136.0314997  -6.4660012  23.6037600 135.9076906  -7.1303621
  26.2930012 143.4804997  -6.8260012  25.5530012 144.0784997  -6.7220012
  27.0070012 144.0344997  -7.1410012  26.2882237 143.6372831  -6.8543535
  34.4000012 136.3084997 -10.8060012  34.1840012 135.5424997 -10.2730012
  35.0550012 136.7804997 -10.2930012  34.4590632 136.2675889 -10.6637139
  23.3170012 137.6964997  -9.1610012  23.9310012 138.3294997  -8.7870012
  23.8290012 137.2244997  -9.8170012  23.4702296 137.7192370  -9.1985748
  34.7470012 135.0234997  -7.1260012  34.0110012 135.6344997  -7.1640012
  35.4300012 135.4384997  -7.6530012  34.7386541 135.1631374  -7.2024168
  27.7500012 133.1104997  -9.6600012  27.6330012 132.1614997  -9.7150012
  26.8950012 133.4424997  -9.3870012  27.6183733 133.0255409  -9.6306103
  35.5440012 144.9854997  -4.9320012  35.6840012 144.3944997  -5.6720012
  35.7110012 145.8584997  -5.2890012  35.5856778 145.0226426  -5.0813035
  30.0170012 141.9474997 -15.1600012  29.3050012 142.4824997 -15.5120012
  30.7080012 142.0034997 -15.8200012  30.0130132 142.0282543 -15.2973711
  30.0700012 140.4054997 -18.1210012  30.7710012 140.4274997 -17.4700012
  30.3730012 139.7774997 -18.7770012  30.2067830 140.3236566 -18.1206289
  37.3860012 141.3254997  -6.8660012  36.7330012 142.0204997  -6.7770012
  37.8510012 141.5354997  -7.6760012  37.3595390 141.4489425  -6.9633117
  33.4220012 142.1574997 -14.2080012  32.6900012 142.3854997 -13.6350012
  33.8700012 141.4434997 -13.7530012  33.3823095 142.0922571 -14.0680881
  33.3200012 140.3314997  -5.1410012  33.4000012 141.0944997  -4.5690012
  32.7180012 140.6104997  -5.8310012  33.2495756 140.4737134  -5.1559411
  25.0680012 142.7874997 -12.3260012  24.7370012 142.4174997 -13.1440012
  25.6560012 142.1174997 -11.9790012  25.1021873 142.6461156 -12.3911898
  25.4340012 141.5564997  -8.6920012  26.0000012 141.6774997  -9.4550012
  25.7530012 142.1934997  -8.0530012  25.5545786 141.6591884  -8.7099960
  32.2930012 141.3194997 -16.5230012  32.8730012 141.4694997 -15.7760012
  32.7070012 141.7904997 -17.2460012  32.4282830 141.4036841 -16.5185866
  23.2340012 142.1534997  -4.7460012  23.3050012 142.8044997  -4.0480012
  22.3440012 142.2564997  -5.0810012  23.1233117 142.2565936  -4.6957300
  35.9920012 133.0694997 -16.7100012  35.0920012 133.2084997 -16.4150012
  36.2440012 133.9004997 -17.1120012  35.9028702 133.2009074 -16.7239795
  24.0580012 141.8574997 -14.7360012  23.7660012 142.6254997 -15.2270012
  23.3840012 141.1974997 -14.8990012  23.9269081 141.8734406 -14.8252660
  20.1510012 144.2204997  -5.9210012  19.6500012 144.1924997  -6.7360012
  20.1560012 143.3144997  -5.6120012  20.0831526 144.0942278  -5.9907128
  35.2510012 139.1594997  -2.8750012  34.8440012 139.6404997  -3.5960012
  35.2920012 138.2544997  -3.1830012  35.2008437 139.1029374  -3.0153317
  25.0190012 134.0134997  -8.8830012  24.1570012 133.9264997  -9.2900012
  24.9960012 134.8694997  -8.4550012  24.8980330 134.1172765  -8.8808137
  29.6820012 133.7354997  -5.5080012  30.1020012 133.3204997  -4.7550012
  28.7490012 133.5574997  -5.3910012  29.6133644 133.6545900  -5.3890461
  33.0080012 137.4914997  -4.6550012  32.4940012 137.3654997  -3.8570012
  32.8530012 138.4034997  -4.8990012  32.9166852 137.5976132  -4.5787842
  33.7710012 142.3524997 -18.8930012  33.8130012 142.1294997 -19.8230012
  34.6200012 142.7514997 -18.7030012  33.8915396 142.3759155 -18.9946373
  29.3430012 136.2284997 -18.2230012  29.0900012 136.2474997 -17.3000012
  29.0870012 135.3564997 -18.5240012  29.2737790 136.1132437 -18.1373737
  25.1100012 138.9794997  -7.7880012  24.4680012 138.9384997  -7.0790012
  25.1470012 139.9054997  -8.0250012  25.0271324 139.0991559  -7.7230176
  25.1070012 139.2004997 -12.8760012  24.2140012 138.8594997 -12.9340012
  25.5570012 138.8234997 -13.6310012  25.0457305 139.1028484 -12.9860823
  30.6420012 139.6164997 -14.0590012  30.2330012 140.4314997 -14.3500012
  31.3630012 139.4764997 -14.6730012  30.6834537 139.7092018 -14.1818658
  29.7440012 139.7914997  -2.5710012  29.1820012 139.0874997  -2.2500012
  30.5710012 139.6714997  -2.1030012  29.7787095 139.6787883  -2.4637670
  31.6470012 139.0624997 -11.2450012  31.4520012 139.6674997 -11.9600012
  31.8280012 138.2284997 -11.6790012  31.6447614 139.0326300 -11.4015595
  22.8600012 139.2994997  -5.9210012  22.8220012 139.6994997  -5.0520012
  22.3690012 138.4824997  -5.8300012  22.7884684 139.2438069  -5.7898941
  26.2260012 136.6734997 -19.1220012  25.7950012 136.2284997 -18.3920012
  25.5080012 137.0454997 -19.6340012  26.0699438 136.6628940 -19.0913201
  19.4680012 136.4154997 -12.0700012  20.0990012 136.3864997 -11.3510012
  19.9170012 135.9904997 -12.8000012  19.6150774 136.3540492 -12.0703447
  20.7420012 137.1614997 -16.6460012  21.2160012 137.7524997 -17.2310012
  20.0250012 137.6924997 -16.2990012  20.7099341 137.3140867 -16.6791164
  30.9110012 140.7004997  -6.5730012  31.2340012 140.0694997  -7.2160012
  30.4710012 140.1654997  -5.9130012  30.8956895 140.5418441  -6.5717150
  27.6880012 136.6274997 -11.7890012  26.7770012 136.6844997 -11.5010012
  28.1940012 136.5674997 -10.9790012  27.6315413 136.6271985 -11.6399378
  22.5170012 138.2564997 -12.9630012  21.6270012 138.3564997 -13.3030012
  22.8130012 137.4144997 -13.3090012  22.4352823 138.1563545 -13.0562787
  26.1700012 138.2564997 -15.3060012  27.1010012 138.3854997 -15.1280012
  25.9550012 138.9264997 -15.9560012  26.2684247 138.3646565 -15.3694253
  32.0930012 135.8624997  -8.5250012  31.4170012 135.9934997  -7.8610012
  31.6080012 135.7074997  -9.3350012  31.9347145 135.8594905  -8.5435483
  24.8440012 139.4514997 -17.7390012  24.3010012 139.0714997 -18.4310012
  25.6770012 139.6454997 -18.1680012  24.8824399 139.4258124 -17.8915474
  22.9790012 144.0084997  -2.6400012  23.7110012 144.2624997  -2.0790012
  22.1990012 144.2124997  -2.1250012  22.9738232 144.0709177  -2.4934240
  29.0080012 139.4154997  -9.9020012  29.5730012 138.8684997 -10.4490012
  28.8610012 138.8934997  -9.1140012  29.0652918 139.2702024  -9.8701546
  24.0100012 135.5514997 -13.4840012  23.6930012 134.6494997 -13.5190012
  24.7920012 135.5534997 -14.0370012  24.0722284 135.4281628 -13.5635217
  27.6350012 137.8034997  -7.4880012  26.7990012 138.2574997  -7.3780012
  28.1590012 138.0794997  -6.7360012  27.5914414 137.9029376  -7.3712864
  28.1790012 144.0164997 -15.8040012  27.4340012 143.5094997 -16.1260012
  28.0450012 144.0654997 -14.8570012  28.0588776 143.9536940 -15.7201353
  35.3290012 143.1494997  -7.0170012  35.9710012 143.6064997  -7.5610012
  34.4990012 143.2624997  -7.4800012  35.3045963 143.2272704  -7.1539823
  32.0770012 136.8304997 -17.6040012  31.1380012 136.9424997 -17.7560012
  32.3740012 137.6874997 -17.2980012  31.9887666 136.9616443 -17.5834232
  29.6980012 144.2004997  -4.5670012  29.3530012 143.8194997  -3.7600012
  29.4980012 145.1344997  -4.4950012  29.6238061 144.2745228  -4.4469039
  32.7950012 138.6974997 -15.9440012  33.6870012 138.5604997 -15.6250012
  32.8520012 139.4884997 -16.4800012  32.9246285 138.7856660 -15.9728309
  23.3040012 143.3114997 -10.0340012  24.0490012 143.3094997 -10.6350012
  23.3820012 142.4884997  -9.5520012  23.4165518 143.1999315 -10.0511071
  20.3120012 141.7724997  -4.7190012  20.5350012 141.3544997  -3.8870012
  19.7100012 141.1594997  -5.1420012  20.2611759 141.6324668  -4.6622978
  27.3280012 141.2894997  -2.5060012  27.0320012 141.1234997  -3.4010012
  28.2600012 141.0694997  -2.5170012  27.4134166 141.2370640  -2.6299464
  37.6800012 138.9074997 -16.2490012  37.1260012 138.5114997 -16.9210012
  37.7800012 139.8174997 -16.5270012  37.6177059 138.9763586 -16.3785599
  37.6430012 144.7074997  -3.4120012  36.7920012 144.9454997  -3.7790012
  38.2340012 144.6904997  -4.1650012  37.6062487 144.7378258  -3.5641107
  33.1360012 142.5014997  -8.7630012  32.2070012 142.2694997  -8.7900012
  33.5870012 141.7244997  -9.0930012  33.0699216 142.3647238  -8.8113083
  21.4340012 141.6914997 -18.0430012  22.0500012 142.3184997 -17.6630012
  20.5720012 142.0074997 -17.7710012  21.4017698 141.8199430 -17.9542817
  27.1060012 144.4924997 -13.0530012  26.8650012 145.4174997 -13.0120012
  26.3650012 144.0334997 -12.6570012  26.9728409 144.5571421 -12.9938623
  31.1650012 144.7404997  -7.0380012  30.7390012 144.5134997  -6.2110012
  31.7450012 144.0024997  -7.2200012  31.1851868 144.6095299  -6.9494170
  21.9460012 136.5254997  -5.1610012  21.0530012 136.8644997  -5.2290012
  21.8470012 135.6704997  -4.7430012  21.8104164 136.4562588  -5.1137765
  34.2340012 144.3424997 -15.7370012  33.9560012 143.6144997 -15.1810012
  35.1610012 144.4614997 -15.5320012  34.3213124 144.2588802 -15.6331155
  22.8490012 143.6044997 -16.5500012  22.1630012 143.9564997 -15.9830012
  23.3710012 144.3674997 -16.7970012  22.8256852 143.7558578 -16.5057882
  30.6800012 136.2664997  -6.2710012  31.3790012 136.3404997  -5.6210012
  30.2990012 135.4024997  -6.1170012  30.7241767 136.1597624  -6.1611678
  31.4650012 135.9184997 -15.1740012  31.6850012 136.3904997 -15.9770012
  32.0230012 136.3134997 -14.5040012  31.5704968 136.0364285 -15.1932669
  28.6650012 137.6464997 -14.3390012  29.4770012 138.1514997 -14.2930012
  28.4200012 137.5014997 -13.4250012  28.7430520 137.6960375 -14.2091483
  29.2000012 138.6324997  -5.1540012  29.3190012 139.2064997  -4.3970012
  29.8560012 137.9444997  -5.0400012  29.3049757 138.6181079  -5.0349175
  29.5480012 134.7274997 -13.4010012  29.2020012 135.3454997 -12.7560012
  30.2070012 135.2284997 -13.8820012  29.5897826 134.8795802 -13.3779029
  25.2060012 135.7904997 -16.7140012  25.1230012 136.6794997 -16.3670012
  26.0960012 135.5254997 -16.4820012  25.3149469 135.8761430 -16.6352374
  35.4050012 136.5394997  -4.3190012  34.4880012 136.8024997  -4.4070012
  35.7400012 136.5364997  -5.2160012  35.3249900 136.5750224  -4.4522081
  34.0070012 140.2904997 -10.2240012  33.2090012 139.8754997 -10.5520012
  34.4520012 139.5994997  -9.7330012  33.9579885 140.1403543 -10.2025111
  21.7810012 138.8824997 -18.5370012  21.7360012 139.8214997 -18.3590012
  20.8930012 138.6464997 -18.8070012  21.6548574 138.9791892 -18.5491088
  22.5890012 133.6644997  -9.8640012  22.3600012 133.7234997 -10.7920012
  22.1460012 132.8724997  -9.5580012  22.4978530 133.5655753  -9.9495214
  20.7140012 144.0274997  -1.4190012  20.8580012 143.1254997  -1.7060012
  19.9420012 144.3134997  -1.9070012  20.6293322 143.9428261  -1.5242119
  25.0560012 144.3714997 -19.2870012  25.1200012 143.5774997 -18.7560012
  25.7090012 144.2524997 -19.9770012  25.1530241 144.2467148 -19.3075683
  27.3700012 143.9974997  -1.9870012  27.0410012 144.2684997  -2.8440012
  27.5220012 143.0564997  -2.0740012  27.3454809 143.9073862  -2.1161756
  33.1040012 143.9134997  -4.6030012  33.8500012 144.5014997  -4.7230012
  32.3470012 144.4954997  -4.5400012  33.1037554 144.0727011  -4.6109093
  21.5470012 141.2274997  -1.9990012  21.9550012 140.3704997  -2.1200012
  21.2870012 141.2424997  -1.0780012  21.5677568 141.1120807  -1.8910412
  26.2050012 142.3434997 -16.9810012  25.7450012 141.8594997 -16.2950012
  26.4600012 141.6754997 -17.6170012  26.1764902 142.1868731 -16.9730666
  25.4940012 140.2364997  -4.6250012  24.8760012 140.9114997  -4.3450012
  25.8380012 140.5574997  -5.4580012  25.4559615 140.3722721  -4.6993419
  27.2760012 140.5864997 -18.7190012  27.0960012 140.4324997 -19.6460012
  28.2260012 140.6944997 -18.6740012  27.3797776 140.5800175 -18.8398157
  30.5140012 142.7084997  -1.3480012  31.4670012 142.7914997  -1.3750012
  30.3530012 141.9964997  -0.7280012  30.6226426 142.6236746  -1.2679421
  36.6660012 142.9414997 -19.2730012  36.3920012 142.5164997 -20.0860012
  36.7050012 143.8724997 -19.4900012  36.6337699 143.0092484 -19.4136390
  25.8330012 137.5914997  -3.5430012  25.9830012 136.8624997  -4.1450012
  25.8360012 138.3684997  -4.1020012  25.8539302 137.5967851  -3.7009308
  26.2460012 135.9614997  -6.0500012  26.7820012 136.4124997  -6.7020012
  25.3940012 135.8534997  -6.4730012  26.2042178 136.0086390  -6.1964244
  27.8280012 141.4004997  -5.8110012  28.5780012 141.2444997  -6.3840012
  27.4890012 142.2524997  -6.0860012  27.8848921 141.4942968  -5.9266439
  32.2430012 139.2154997  -0.7820012  32.4360012 138.2844997  -0.8940012
  33.1010012 139.6404997  -0.7920012  32.3853020 139.1456389  -0.7986639
  33.5600012 142.0044997  -2.7050012  33.2790012 142.7134997  -3.2820012
  34.5030012 141.9314997  -2.8560012  33.6489027 142.0917646  -2.8044449
  24.3120012 138.7894997  -1.6310012  23.5450012 138.2574997  -1.8410012
  24.9910012 138.4794997  -2.2310012  24.2987022 138.6747506  -1.7408352
  27.0520012 133.4174997  -5.6190012  26.9530012 134.3644997  -5.7240012
  26.3090012 133.0454997  -6.0940012  26.9380564 133.4965902  -5.6975440
  28.3160012 137.7394997  -2.0550012  28.0800012 137.5194997  -1.1530012
  27.5320012 137.5324997  -2.5650012  28.1778628 137.6814760  -2.0006068
  31.0310012 136.8664997  -2.9790012  30.0840012 136.8984997  -2.8470012
  31.3440012 136.2414997  -2.3260012  30.9435475 136.7863207  -2.8725545
  32.6650012 135.5004997  -0.9740012  32.5690012 134.5484997  -0.9800012
  32.3440012 135.7694997  -0.1140012  32.6084070 135.4064035  -0.8584559
  22.4920012 136.7104997  -1.9270012  22.7040012 136.0034997  -2.5370012
  22.3810012 136.2724997  -1.0830012  22.5059721 136.5547084  -1.8963157
  27.2730012 132.7114997  -2.9470012  27.9850012 132.0714997  -2.9610012
  27.1720012 132.9784997  -3.8610012  27.3567939 132.6599938  -3.0724350
  27.6270012 134.3944997  -0.8940012  27.4950012 133.9184997  -1.7140012
  27.0280012 135.1384997  -0.9490012  27.5279071 134.4299618  -1.0137114
  37.1240012 143.8104997 -15.2980012  37.9740012 144.2314997 -15.1710012
  37.1300012 143.0704997 -14.6910012  37.2411372 143.7680803 -15.1985656
  37.5190012 141.8634997 -13.4740012  36.7920012 141.3844997 -13.0770012
  38.1000012 142.0694997 -12.7420012  37.4979375 141.8257090 -13.3205871
  37.2780012 144.6484997  -8.5270012  38.1110012 144.2704997  -8.8070012
  37.3900012 145.5914997  -8.6460012  37.4072647 144.7242218  -8.5814513
  37.7870012 141.7644997 -17.0830012  37.2650012 142.1214997 -17.8020012
  37.7540012 142.4394997 -16.4050012  37.7111634 141.9045413 -17.0896855
  36.1360012 139.0044997 -18.5320012  36.2320012 139.6714997 -19.2130012
  35.9960012 138.1884997 -19.0140012  36.1302135 138.9854500 -18.6901509
  35.3050012 140.3844997 -12.9110012  35.1550012 139.4394997 -12.9320012
  34.9520012 140.6654997 -12.0680012  35.2366625 140.2930441 -12.7997654
  20.3410012 142.4624997  -8.9010012  20.5250012 142.3804997  -9.8370012
  21.1900012 142.3384997  -8.4770012  20.4810139 142.4345003  -8.9718545
  36.1620012 142.3544997  -3.2730012  36.7450012 141.6204997  -3.0810012
  36.7260012 143.1264997  -3.2260012  36.3179769 142.3584227  -3.2403841
  37.6580012 140.2574997  -2.5880012  36.7950012 139.8784997  -2.7540012
  38.2630012 139.5184997  -2.6620012  37.6215979 140.1058023  -2.6207183
  35.3830012 136.4124997 -19.4150012  35.9940012 136.0414997 -18.7780012
  34.5470012 135.9914997 -19.2190012  35.3535032 136.3047554 -19.3012965
  35.0160012 137.9674997 -14.4490012  35.2960012 137.0604997 -14.3250012
  35.7750012 138.4014997 -14.8380012  35.1569277 137.9020942 -14.4846318
  35.6280012 138.5484997  -9.0130012  36.5610012 138.7604997  -9.0470012
  35.3930012 138.6504997  -8.0910012  35.7238036 138.5912769  -8.8930024
  35.6570012 139.2854997  -6.2370012  34.8140012 139.5534997  -5.8710012
  36.0990012 140.1074997  -6.4480012  35.6014158 139.4333291  -6.2154509
  19.9380012 137.7334997  -2.7600012  20.8580012 137.6114997  -2.5240012
  19.4890012 136.9834997  -2.3710012  20.0031580 137.6153727  -2.6750994
  37.9400012 133.2654997  -0.8840012  38.2900012 132.6114997  -1.4890012
  38.0870012 134.1024997  -1.3230012  38.0078419 133.2891591  -1.0262882
  35.6290012 135.2304997 -14.4010012  35.8120012 134.7814997 -13.5750012
  35.0300012 134.6454997 -14.8640012  35.5730202 135.0899975 -14.3506725
  21.1590012 136.0454997  -9.8690012  21.6050012 135.2534997  -9.5670012
  21.6260012 136.7614997  -9.4380012  21.2830172 136.0340624  -9.7695180
  19.4630012 139.0444997  -8.8000012  19.9550012 138.8234997  -9.5910012
  19.8260012 139.8854997  -8.5190012  19.5793126 139.1278357  -8.8702469
  37.4600012 135.3744997  -2.5340012  36.5420012 135.6454997  -2.5700012
  37.5830012 134.8394997  -3.3190012  37.3511066 135.3392892  -2.6449513
  37.4960012 135.2974997 -17.8730012  37.9080012 134.5764997 -18.3480012
  38.1780012 135.9674997 -17.8140012  37.6445885 135.2892368 -17.9301085
  19.7770012 135.3024997 -14.7460012  18.8520012 135.5114997 -14.8750012
  20.2310012 135.7864997 -15.4350012  19.7117368 135.3965993 -14.8568774
  19.7410012 134.0404997  -6.4010012  19.0760012 133.7944997  -5.7580012
  19.2980012 134.6624997  -6.9790012  19.5900956 134.0908632  -6.3910648
  36.4600012 133.4644997  -4.7150012  35.6480012 133.7894997  -5.1030012
  36.6930012 132.7044997  -5.2480012  36.3803423 133.4062436  -4.8401747
  29.8900012 134.9134997 -10.3930012  29.2160012 134.2844997 -10.1370012
  30.4540012 134.4294997 -10.9960012  29.8739230 134.7618744 -10.4394660
  35.0330012 133.0214997 -10.2800012  35.6370012 133.5684997 -10.7820012
  34.1630012 133.3404997 -10.5200012  34.9981241 133.1395806 -10.3812346
  36.7600012 134.1594997 -11.9470012  37.3720012 133.6454997 -12.4730012
  37.1420012 135.0374997 -11.9230012  36.8954540 134.2077140 -12.0158170
  22.2170012 133.5474997 -12.5710012  21.4400012 133.3134997 -13.0780012
  22.7470012 132.7504997 -12.5620012  22.1822330 133.4076988 -12.6392258
  21.0530012 133.3454997 -16.7670012  21.4920012 133.9564997 -17.3590012
  20.4200012 133.8834997 -16.2930012  21.0274514 133.5019257 -16.7839070
  26.7960012 133.4744997 -12.7570012  27.6710012 133.8624997 -12.7870012
  26.6600012 133.2594997 -11.8350012  26.8973695 133.4985184 -12.6363560
  32.3530012 133.5044997 -11.1080012  32.4290012 133.5994997 -12.0580012
  32.0780012 132.5964997 -10.9790012  32.3262321 133.3947867 -11.2204921
  33.7060012 133.5304997 -15.4160012  33.0040012 134.1454997 -15.6250012
  33.2620012 132.6924997 -15.2850012  33.5496330 133.5015783 -15.4269672
  22.9140012 135.2614997 -18.3250012  23.4060012 134.6314997 -18.8520012
  23.5380012 135.5574997 -17.6610012  23.0655446 135.2153199 -18.3074020
  27.9400012 135.5544997 -15.8680012  28.1180012 134.9084997 -15.1850012
  27.8870012 136.3884997 -15.4000012  27.9571829 135.5787985 -15.7114060
  22.1750012 134.0614997  -3.0530012  21.8090012 133.2964997  -2.6100012
  23.0880012 134.0904997  -2.7660012  22.2482790 133.9607224  -2.9535930
  24.1480012 133.4124997  -1.5170012  25.0460012 133.1384997  -1.7020012
  23.7610012 132.6694997  -1.0530012  24.2186612 133.2745914  -1.4796357
  32.5690012 132.7444997  -1.3350012  32.6460012 132.3184997  -0.4810012
  33.4630012 132.7584997  -1.6780012  32.7003428 132.6880880  -1.2644690
  50.1510012 142.7034997 -12.6120012  50.2400012 143.6474997 -12.7440012
  49.5130012 142.4284997 -13.2700012  50.0769081 142.7954830 -12.7190386
  49.0840012 141.9584997  -9.1930012  49.0460012 141.3124997  -8.4880012
  48.7620012 141.4924997  -9.9640012  49.0352333 141.8069408  -9.2007022
  41.4530012 141.5734997  -7.6000012  41.4940012 140.9474997  -6.8770012
  42.1560012 142.1974997  -7.4180012  41.5536363 141.5721196  -7.4763956
  52.7900012 144.8974997 -10.8920012  52.3500012 144.1774997 -10.4410012
  52.7770012 145.6184997 -10.2620012  52.7280226 144.8963731 -10.7451506
  38.9860012 139.6834997 -13.6720012  38.5390012 140.5294997 -13.6910012
  38.4250012 139.1034997 -14.1880012  38.8489900 139.7209916 -13.7443199
  39.6970012 141.8454997 -11.5460012  39.9100012 141.0754997 -11.0190012
  40.4350012 141.9344997 -12.1500012  39.8258496 141.7521394 -11.5554700
  47.4740012 144.3914997  -8.7870012  47.7780012 143.7054997  -9.3820012
  48.1950012 144.5094997  -8.1690012  47.6130671 144.3136305  -8.7848184
  56.1370012 135.9924997  -7.9260012  56.1860012 136.6024997  -7.1900012
  56.5620012 136.4534997  -8.6490012  56.2011824 136.1383741  -7.9229795
  50.6150012 138.7854997  -8.4590012  50.7570012 137.8394997  -8.4390012
  50.5080012 138.9924997  -9.3880012  50.6199864 138.6839534  -8.5817661
  43.7690012 136.8864997 -11.1870012  43.8130012 137.7464997 -11.6050012
  43.3120012 136.3344997 -11.8210012  43.7132185 136.9295799 -11.3299701
  51.4920012 137.0174997 -12.7860012  52.1380012 136.6884997 -12.1610012
  52.0020012 137.5354997 -13.4090012  51.6494264 137.0424611 -12.7846138
  40.3900012 139.2834997 -10.4250012  41.0430012 138.7334997  -9.9930012
  40.4140012 139.0094997 -11.3420012  40.4826683 139.1711466 -10.4897877
  45.5460012 140.8334997 -11.2100012  46.1620012 140.3074997 -10.7000012
  44.9600012 140.1934997 -11.6130012  45.5510810 140.6749208 -11.1946827
  56.5280012 137.4704997  -5.6900012  55.8400012 138.1284997  -5.7860012
  56.5440012 137.2734997  -4.7540012  56.4358525 137.5340462  -5.5765192
  42.5800012 135.8044997  -7.1130012  42.3610012 136.3344997  -7.8790012
  41.9120012 136.0314997  -6.4660012  42.4597600 135.9076906  -7.1303621
  45.1490012 143.4804997  -6.8260012  44.4090012 144.0784997  -6.7220012
  45.8630012 144.0344997  -7.1410012  45.1442237 143.6372831  -6.8543535
  53.2560012 136.3084997 -10.8060012  53.0400012 135.5424997 -10.2730012
  53.9110012 136.7804997 -10.2930012  53.3150632 136.2675889 -10.6637139
  42.1730012 137.6964997  -9.1610012  42.7870012 138.3294997  -8.7870012
  42.6850012 137.2244997  -9.8170012  42.3262296 137.7192370  -9.1985748
  53.6030012 135.0234997  -7.1260012  52.8670012 135.6344997  -7.1640012
  54.2860012 135.4384997  -7.6530012  53.5946541 135.1631374  -7.2024168
  46.6060012 133.1104997  -9.6600012  46.4890012 132.1614997  -9.7150012
  45.7510012 133.4424997  -9.3870012  46.4743733 133.0255409  -9.6306103
  54.4000012 144.9854997  -4.9320012  54.5400012 144.3944997  -5.6720012
  54.5670012 145.8584997  -5.2890012  54.4416778 145.0226426  -5.0813035
  48.8730012 141.9474997 -15.1600012  48.1610012 142.4824997 -15.5120012
  49.5640012 142.0034997 -15.8200012  48.8690132 142.0282543 -15.2973711
  48.9260012 140.4054997 -18.1210012  49.6270012 140.4274997 -17.4700012
  49.2290012 139.7774997 -18.7770012  49.0627830 140.3236566 -18.1206289
  56.2420012 141.3254997  -6.8660012  55.5890012 142.0204997  -6.7770012
  56.7070012 141.5354997  -7.6760012  56.2155390 141.4489425  -6.9633117
  52.2780012 142.1574997 -14.2080012  51.5460012 142.3854997 -13.6350012
  52.7260012 141.4434997 -13.7530012  52.2383095 142.0922571 -14.0680881
  52.1760012 140.3314997  -5.1410012  52.2560012 141.0944997  -4.5690012
  51.5740012 140.6104997  -5.8310012  52.1055756 140.4737134  -5.1559411
  43.9240012 142.7874997 -12.3260012  43.5930012 142.4174997 -13.1440012
  44.5120012 142.1174997 -11.9790012  43.9581873 142.6461156 -12.3911898
  44.2900012 141.5564997  -8.6920012  44.8560012 141.6774997  -9.4550012
  44.6090012 142.1934997  -8.0530012  44.4105786 141.6591884  -8.7099960
  51.1490012 141.3194997 -16.5230012  51.7290012 141.4694997 -15.7760012
  51.5630012 141.7904997 -17.2460012  51.2842830 141.4036841 -16.5185866
  42.0900012 142.1534997  -4.7460012  42.1610012 142.8044997  -4.0480012
  41.2000012 142.2564997  -5.0810012  41.9793117 142.2565936  -4.6957300
  54.8480012 133.0694997 -16.7100012  53.9480012 133.2084997 -16.4150012
  55.1000012 133.9004997 -17.1120012  54.7588702 133.2009074 -16.7239795
  42.9140012 141.8574997 -14.7360012  42.6220012 142.6254997 -15.2270012
  42.2400012 141.1974997 -14.8990012  42.7829081 141.8734406 -14.8252660
  39.0070012 144.2204997  -5.9210012  38.5060012 144.1924997  -6.7360012
  39.0120012 143.3144997  -5.6120012  38.9391526 144.0942278  -5.9907128
  54.1070012 139.1594997  -2.8750012  53.7000012 139.6404997  -3.5960012
  54.1480012 138.2544997  -3.1830012  54.0568437 139.1029374  -3.0153317
  43.8750012 134.0134997  -8.8830012  43.0130012 133.9264997  -9.2900012
  43.8520012 134.8694997  -8.4550012  43.7540330 134.1172765  -8.8808137
  48.5380012 133.7354997  -5.5080012  48.9580012 133.3204997  -4.7550012
  47.6050012 133.5574997  -5.3910012  48.4693644 133.6545900  -5.3890461
  51.8640012 137.4914997  -4.6550012  51.3500012 137.3654997  -3.8570012
  51.7090012 138.4034997  -4.8990012  51.7726852 137.5976132  -4.5787842
  52.6270012 142.3524997 -18.8930012  52.6690012 142.1294997 -19.8230012
  53.4760012 142.7514997 -18.7030012  52.7475396 142.3759155 -18.9946373
  48.1990012 136.2284997 -18.2230012  47.9460012 136.2474997 -17.3000012
  47.9430012 135.3564997 -18.5240012  48.1297790 136.1132437 -18.1373737
  43.9660012 138.9794997  -7.7880012  43.3240012 138.9384997  -7.0790012
  44.0030012 139.9054997  -8.0250012  43.8831324 139.0991559  -7.7230176
  43.9630012 139.2004997 -12.8760012  43.0700012 138.8594997 -12.9340012
  44.4130012 138.8234997 -13.6310012  43.9017305 139.1028484 -12.9860823
  49.4980012 139.6164997 -14.0590012  49.0890012 140.4314997 -14.3500012
  50.2190012 139.4764997 -14.6730012  49.5394537 139.7092018 -14.1818658
  48.6000012 139.7914997  -2.5710012  48.0380012 139.0874997  -2.2500012
  49.4270012 139.6714997  -2.1030012  48.6347095 139.6787883  -2.4637670
  50.5030012 139.0624997 -11.2450012  50.3080012 139.6674997 -11.9600012
  50.6840012 138.2284997 -11.6790012  50.5007614 139.0326300 -11.4015595
  41.7160012 139.2994997  -5.9210012  41.6780012 139.6994997  -5.0520012
  41.2250012 138.4824997  -5.8300012  41.6444684 139.2438069  -5.7898941
  45.0820012 136.6734997 -19.1220012  44.6510012 136.2284997 -18.3920012
  44.3640012 137.0454997 -19.6340012  44.9259438 136.6628940 -19.0913201
  38.3240012 136.4154997 -12.0700012  38.9550012 136.3864997 -11.3510012
  38.7730012 135.9904997 -12.8000012  38.4710774 136.3540492 -12.0703447
  39.5980012 137.1614997 -16.6460012  40.0720012 137.7524997 -17.2310012
  38.8810012 137.6924997 -16.2990012  39.5659341 137.3140867 -16.6791164
  49.7670012 140.7004997  -6.5730012  50.0900012 140.0694997  -7.2160012
  49.3270012 140.1654997  -5.9130012  49.7516895 140.5418441  -6.5717150
  46.5440012 136.6274997 -11.7890012  45.6330012 136.6844997 -11.5010012
  47.0500012 136.5674997 -10.9790012  46.4875413 136.6271985 -11.6399378
  41.3730012 138.2564997 -12.9630012  40.4830012 138.3564997 -13.3030012
  41.6690012 137.4144997 -13.3090012  41.2912823 138.1563545 -13.0562787
  45.0260012 138.2564997 -15.3060012  45.9570012 138.3854997 -15.1280012
  44.8110012 138.9264997 -15.9560012  45.1244247 138.3646565 -15.3694253
  50.9490012 135.8624997  -8.5250012  50.2730012 135.9934997  -7.8610012
  50.4640012 135.7074997  -9.3350012  50.7907145 135.8594905  -8.5435483
  43.7000012 139.4514997 -17.7390012  43.1570012 139.0714997 -18.4310012
  44.5330012 139.6454997 -18.1680012  43.7384399 139.4258124 -17.8915474
  41.8350012 144.0084997  -2.6400012  42.5670012 144.2624997  -2.0790012
  41.0550012 144.2124997  -2.1250012  41.8298232 144.0709177  -2.4934240
  47.8640012 139.4154997  -9.9020012  48.4290012 138.8684997 -10.4490012
  47.7170012 138.8934997  -9.1140012  47.9212918 139.2702024  -9.8701546
  42.8660012 135.5514997 -13.4840012  42.5490012 134.6494997 -13.5190012
  43.6480012 135.5534997 -14.0370012  42.9282284 135.4281628 -13.5635217
  46.4910012 137.8034997  -7.4880012  45.6550012 138.2574997  -7.3780012
  47.0150012 138.0794997  -6.7360012  46.4474414 137.9029376  -7.3712864
  47.0350012 144.0164997 -15.8040012  46.2900012 143.5094997 -16.1260012
  46.9010012 144.0654997 -14.8570012  46.9148776 143.9536940 -15.7201353
  54.1850012 143.1494997  -7.0170012  54.8270012 143.6064997  -7.5610012
  53.3550012 143.2624997  -7.4800012  54.1605963 143.2272704  -7.1539823
  50.9330012 136.8304997 -17.6040012  49.9940012 136.9424997 -17.7560012
  51.2300012 137.6874997 -17.2980012  50.8447666 136.9616443 -17.5834232
  48.5540012 144.2004997  -4.5670012  48.2090012 143.8194997  -3.7600012
  48.3540012 145.1344997  -4.4950012  48.4798061 144.2745228  -4.4469039
  51.6510012 138.6974997 -15.9440012  52.5430012 138.5604997 -15.6250012
  51.7080012 139.4884997 -16.4800012  51.7806285 138.7856660 -15.9728310
  42.1600012 143.3114997 -10.0340012  42.9050012 143.3094997 -10.6350012
  42.2380012 142.4884997  -9.5520012  42.2725518 143.1999315 -10.0511071
  39.1680012 141.7724997  -4.7190012  39.3910012 141.3544997  -3.8870012
  38.5660012 141.1594997  -5.1420012  39.1171759 141.6324668  -4.6622978
  46.1840012 141.2894997  -2.5060012  45.8880012 141.1234997  -3.4010012
  47.1160012 141.0694997  -2.5170012  46.2694166 141.2370640  -2.6299464
  56.5360012 138.9074997 -16.2490012  55.9820012 138.5114997 -16.9210012
  56.6360012 139.8174997 -16.5270012  56.4737059 138.9763586 -16.3785599
  56.4990012 144.7074997  -3.4120012  55.6480012 144.9454997  -3.7790012
  57.0900012 144.6904997  -4.1650012  56.4622487 144.7378258  -3.5641107
  51.9920012 142.5014997  -8.7630012  51.0630012 142.2694997  -8.7900012
  52.4430012 141.7244997  -9.0930012  51.9259216 142.3647238  -8.8113083
  40.2900012 141.6914997 -18.0430012  40.9060012 142.3184997 -17.6630012
  39.4280012 142.0074997 -17.7710012  40.2577698 141.8199430 -17.9542817
  45.9620012 144.4924997 -13.0530012  45.7210012 145.4174997 -13.0120012
  45.2210012 144.0334997 -12.6570012  45.8288409 144.5571421 -12.9938623
  50.0210012 144.7404997  -7.0380012  49.5950012 144.5134997  -6.2110012
  50.6010012 144.0024997  -7.2200012  50.0411868 144.6095299  -6.9494170
  40.8020012 136.5254997  -5.1610012  39.9090012 136.8644997  -5.2290012
  40.7030012 135.6704997  -4.7430012  40.6664164 136.4562588  -5.1137765
  53.0900012 144.3424997 -15.7370012  52.8120012 143.6144997 -15.1810012
  54.0170012 144.4614997 -15.5320012  53.1773124 144.2588802 -15.6331155
  41.7050012 143.6044997 -16.5500012  41.0190012 143.9564997 -15.9830012
  42.2270012 144.3674997 -16.7970012  41.6816852 143.7558578 -16.5057882
  49.5360012 136.2664997  -6.2710012  50.2350012 136.3404997  -5.6210012
  49.1550012 135.4024997  -6.1170012  49.5801767 136.1597624  -6.1611678
  50.3210012 135.9184997 -15.1740012  50.5410012 136.3904997 -15.9770012
  50.8790012 136.3134997 -14.5040012  50.4264968 136.0364285 -15.1932669
  47.5210012 137.6464997 -14.3390012  48.3330012 138.1514997 -14.2930012
  47.2760012 137.5014997 -13.4250012  47.5990520 137.6960375 -14.2091483
  48.0560012 138.6324997  -5.1540012  48.1750012 139.2064997  -4.3970012
  48.7120012 137.9444997  -5.0400012  48.1609757 138.6181079  -5.0349175
  48.4040012 134.7274997 -13.4010012  48.0580012 135.3454997 -12.7560012
  49.0630012 135.2284997 -13.8820012  48.4457826 134.8795802 -13.3779029
  44.0620012 135.7904997 -16.7140012  43.9790012 136.6794997 -16.3670012
  44.9520012 135.5254997 -16.4820012  44.1709469 135.8761430 -16.6352374
  54.2610012 136.5394997  -4.3190012  53.3440012 136.8024997  -4.4070012
  54.5960012 136.5364997  -5.2160012  54.1809900 136.5750224  -4.4522081
  52.8630012 140.2904997 -10.2240012  52.0650012 139.8754997 -10.5520012
  53.3080012 139.5994997  -9.7330012  52.8139885 140.1403543 -10.2025111
  40.6370012 138.8824997 -18.5370012  40.5920012 139.8214997 -18.3590012
  39.7490012 138.6464997 -18.8070012  40.5108574 138.9791892 -18.5491088
  41.4450012 133.6644997  -9.8640012  41.2160012 133.7234997 -10.7920012
  41.0020012 132.8724997  -9.5580012  41.3538530 133.5655753  -9.9495214
  39.5700012 144.0274997  -1.4190012  39.7140012 143.1254997  -1.7060012
  38.7980012 144.3134997  -1.9070012  39.4853322 143.9428261  -1.5242119
  43.9120012 144.3714997 -19.2870012  43.9760012 143.5774997 -18.7560012
  44.5650012 144.2524997 -19.9770012  44.0090241 144.2467148 -19.3075683
  46.2260012 143.9974997  -1.9870012  45.8970012 144.2684997  -2.8440012
  46.3780012 143.0564997  -2.0740012  46.2014809 143.9073862  -2.1161756
  51.9600012 143.9134997  -4.6030012  52.7060012 144.5014997  -4.7230012
  51.2030012 144.4954997  -4.5400012  51.9597554 144.0727011  -4.6109093
  40.4030012 141.2274997  -1.9990012  40.8110012 140.3704997  -2.1200012
  40.1430012 141.2424997  -1.0780012  40.4237568 141.1120807  -1.8910412
  45.0610012 142.3434997 -16.9810012  44.6010012 141.8594997 -16.2950012
  45.3160012 141.6754997 -17.6170012  45.0324902 142.1868731 -16.9730666
  44.3500012 140.2364997  -4.6250012  43.7320012 140.9114997  -4.3450012
  44.6940012 140.5574997  -5.4580012  44.3119615 140.3722721  -4.6993419
  46.1320012 140.5864997 -18.7190012  45.9520012 140.4324997 -19.6460012
  47.0820012 140.6944997 -18.6740012  46.2357776 140.5800175 -18.8398157
  49.3700012 142.7084997  -1.3480012  50.3230012 142.7914997  -1.3750012
  49.2090012 141.9964997  -0.7280012  49.4786426 142.6236746  -1.2679421
  55.5220012 142.9414997 -19.2730012  55.2480012 142.5164997 -20.0860012
  55.5610012 143.8724997 -19.4900012  55.4897699 143.0092484 -19.4136390
  44.6890012 137.5914997  -3.5430012  44.8390012 136.8624997  -4.1450012
  44.6920012 138.3684997  -4.1020012  44.7099302 137.5967851  -3.7009308
  45.1020012 135.9614997  -6.0500012  45.6380012 136.4124997  -6.7020012
  44.2500012 135.8534997  -6.4730012  45.0602178 136.0086390  -6.1964244
  46.6840012 141.4004997  -5.8110012  47.4340012 141.2444997  -6.3840012
  46.3450012 142.2524997  -6.0860012  46.7408921 141.4942968  -5.9266439
  51.0990012 139.2154997  -0.7820012  51.2920012 138.2844997  -0.8940012
  51.9570012 139.6404997  -0.7920012  51.2413020 139.1456389  -0.7986639
  52.4160012 142.0044997  -2.7050012  52.1350012 142.7134997  -3.2820012
  53.3590012 141.9314997  -2.8560012  52.5049027 142.0917646  -2.8044449
  43.1680012 138.7894997  -1.6310012  42.4010012 138.2574997  -1.8410012
  43.8470012 138.4794997  -2.2310012  43.1547022 138.6747506  -1.7408352
  45.9080012 133.4174997  -5.6190012  45.8090012 134.3644997  -5.7240012
  45.1650012 133.0454997  -6.0940012  45.7940564 133.4965902  -5.6975440
  47.1720012 137.7394997  -2.0550012  46.9360012 137.5194997  -1.1530012
  46.3880012 137.5324997  -2.5650012  47.0338628 137.6814760  -2.0006068
  49.8870012 136.8664997  -2.9790012  48.9400012 136.8984997  -2.8470012
  50.2000012 136.2414997  -2.3260012  49.7995475 136.7863207  -2.8725545
  51.5210012 135.5004997  -0.9740012  51.4250012 134.5484997  -0.9800012
  51.2000012 135.7694997  -0.1140012  51.4644070 135.4064035  -0.8584559
  41.3480012 136.7104997  -1.9270012  41.5600012 136.0034997  -2.5370012
  41.2370012 136.2724997  -1.0830012  41.3619721 136.5547084  -1.8963157
  46.1290012 132.7114997  -2.9470012  46.8410012 132.0714997  -2.9610012
  46.0280012 132.9784997  -3.8610012  46.2127939 132.6599938  -3.0724350
  46.4830012 134.3944997  -0.8940012  46.3510012 133.9184997  -1.7140012
  45.8840012 135.1384997  -0.9490012  46.3839071 134.4299618  -1.0137114
  55.9800012 143.8104997 -15.2980012  56.8300012 144.2314997 -15.1710012
  55.9860012 143.0704997 -14.6910012  56.0971372 143.7680803 -15.1985656
  56.3750012 141.8634997 -13.4740012  55.6480012 141.3844997 -13.0770012
  56.9560012 142.0694997 -12.7420012  56.3539375 141.8257090 -13.3205871
  56.1340012 144.6484997  -8.5270012  56.9670012 144.2704997  -8.8070012
  56.2460012 145.5914997  -8.6460012  56.2632647 144.7242218  -8.5814513
  56.6430012 141.7644997 -17.0830012  56.1210012 142.1214997 -17.8020012
  56.6100012 142.4394997 -16.4050012  56.5671634 141.9045413 -17.0896855
  54.9920012 139.0044997 -18.5320012  55.0880012 139.6714997 -19.2130012
  54.8520012 138.1884997 -19.0140012  54.9862135 138.9854500 -18.6901509
  54.1610012 140.3844997 -12.9110012  54.0110012 139.4394997 -12.9320012
  53.8080012 140.6654997 -12.0680012  54.0926625 140.2930441 -12.7997654
  39.1970012 142.4624997  -8.9010012  39.3810012 142.3804997  -9.8370012
  40.0460012 142.3384997  -8.4770012  39.3370139 142.4345003  -8.9718545
  55.0180012 142.3544997  -3.2730012  55.6010012 141.6204997  -3.0810012
  55.5820012 143.1264997  -3.2260012  55.1739769 142.3584227  -3.2403841
  56.5140012 140.2574997  -2.5880012  55.6510012 139.8784997  -2.7540012
  57.1190012 139.5184997  -2.6620012  56.4775979 140.1058023  -2.6207183
  54.2390012 136.4124997 -19.4150012  54.8500012 136.0414997 -18.7780012
  53.4030012 135.9914997 -19.2190012  54.2095032 136.3047554 -19.3012965
  53.8720012 137.9674997 -14.4490012  54.1520012 137.0604997 -14.3250012
  54.6310012 138.4014997 -14.8380012  54.0129277 137.9020942 -14.4846318
  54.4840012 138.5484997  -9.0130012  55.4170012 138.7604997  -9.0470012
  54.2490012 138.6504997  -8.0910012  54.5798036 138.5912769  -8.8930024
  54.5130012 139.2854997  -6.2370012  53.6700012 139.5534997  -5.8710012
  54.9550012 140.1074997  -6.4480012  54.4574158 139.4333291  -6.2154509
  38.7940012 137.7334997  -2.7600012  39.7140012 137.6114997  -2.5240012
  38.3450012 136.9834997  -2.3710012  38.8591580 137.6153727  -2.6750994
  56.7960012 133.2654997  -0.8840012  57.1460012 132.6114997  -1.4890012
  56.9430012 134.1024997  -1.3230012  56.8638419 133.2891591  -1.0262882
  54.4850012 135.2304997 -14.4010012  54.6680012 134.7814997 -13.5750012
  53.8860012 134.6454997 -14.8640012  54.4290202 135.0899975 -14.3506725
  40.0150012 136.0454997  -9.8690012  40.4610012 135.2534997  -9.5670012
  40.4820012 136.7614997  -9.4380012  40.1390172 136.0340624  -9.7695180
  38.3190012 139.0444997  -8.8000012  38.8110012 138.8234997  -9.5910012
  38.6820012 139.8854997  -8.5190012  38.4353126 139.1278357  -8.8702469
  56.3160012 135.3744997  -2.5340012  55.3980012 135.6454997  -2.5700012
  56.4390012 134.8394997  -3.3190012  56.2071066 135.3392892  -2.6449513
  56.3520012 135.2974997 -17.8730012  56.7640012 134.5764997 -18.3480012
  57.0340012 135.9674997 -17.8140012  56.5005885 135.2892368 -17.9301085
  38.6330012 135.3024997 -14.7460012  37.7080012 135.5114997 -14.8750012
  39.0870012 135.7864997 -15.4350012  38.5677368 135.3965993 -14.8568774
  38.5970012 134.0404997  -6.4010012  37.9320012 133.7944997  -5.7580012
  38.1540012 134.6624997  -6.9790012  38.4460956 134.0908632  -6.3910648
  55.3160012 133.4644997  -4.7150012  54.5040012 133.7894997  -5.1030012
  55.5490012 132.7044997  -5.2480012  55.2363423 133.4062436  -4.8401747
  48.7460012 134.9134997 -10.3930012  48.0720012 134.2844997 -10.1370012
  49.3100012 134.4294997 -10.9960012  48.7299230 134.7618744 -10.4394660
  53.8890012 133.0214997 -10.2800012  54.4930012 133.5684997 -10.7820012
  53.0190012 133.3404997 -10.5200012  53.8541241 133.1395806 -10.3812346
  55.6160012 134.1594997 -11.9470012  56.2280012 133.6454997 -12.4730012
  55.9980012 135.0374997 -11.9230012  55.7514540 134.2077140 -12.0158170
  41.0730012 133.5474997 -12.5710012  40.2960012 133.3134997 -13.0780012
  41.6030012 132.7504997 -12.5620012  41.0382330 133.4076988 -12.6392258
  39.9090012 133.3454997 -16.7670012  40.3480012 133.9564997 -17.3590012
  39.2760012 133.8834997 -16.2930012  39.8834514 133.5019257 -16.7839070
  45.6520012 133.4744997 -12.7570012  46.5270012 133.8624997 -12.7870012
  45.5160012 133.2594997 -11.8350012  45.7533695 133.4985184 -12.6363560
  51.2090012 133.5044997 -11.1080012  51.2850012 133.5994997 -12.0580012
  50.9340012 132.5964997 -10.9790012  51.1822321 133.3947867 -11.2204921
  52.5620012 133.5304997 -15.4160012  51.8600012 134.1454997 -15.6250012
  52.1180012 132.6924997 -15.2850012  52.4056330 133.5015783 -15.4269672
  41.7700012 135.2614997 -18.3250012  42.2620012 134.6314997 -18.8520012
  42.3940012 135.5574997 -17.6610012  41.9215446 135.2153199 -18.3074020
  46.7960012 135.5544997 -15.8680012  46.9740012 134.9084997 -15.1850012
  46.7430012 136.3884997 -15.4000012  46.8131829 135.5787985 -15.7114060
  41.0310012 134.0614997  -3.0530012  40.6650012 133.2964997  -2.6100012
  41.9440012 134.0904997  -2.7660012  41.1042790 133.9607224  -2.9535930
  43.0040012 133.4124997  -1.5170012  43.9020012 133.1384997  -1.7020012
  42.6170012 132.6694997  -1.0530012  43.0746612 133.2745914  -1.4796357
  51.4250012 132.7444997  -1.3350012  51.5020012 132.3184997  -0.4810012
  52.3190012 132.7584997  -1.6780012  51.5563428 132.6880880  -1.2644690
  69.0070012 142.7034997 -12.6120012  69.0960012 143.6474997 -12.7440012
  68.3690012 142.4284997 -13.2700012  68.9329081 142.7954830 -12.7190386
  67.9400012 141.9584997  -9.1930012  67.9020012 141.3124997  -8.4880012
  67.6180012 141.4924997  -9.9640012  67.8912333 141.8069408  -9.2007022
  60.3090012 141.5734997  -7.6000012  60.3500012 140.9474997  -6.8770012
  61.0120012 142.1974997  -7.4180012  60.4096363 141.5721196  -7.4763956
  71.6460012 144.8974997 -10.8920012  71.2060012 144.1774997 -10.4410012
  71.6330012 145.6184997 -10.2620012  71.5840226 144.8963731 -10.7451506
  57.8420012 139.6834997 -13.6720012  57.3950012 140.5294997 -13.6910012
  57.2810012 139.1034997 -14.1880012  57.7049900 139.7209916 -13.7443199
  58.5530012 141.8454997 -11.5460012  58.7660012 141.0754997 -11.0190012
  59.2910012 141.9344997 -12.1500012  58.6818496 141.7521394 -11.5554700
  66.3300012 144.3914997  -8.7870012  66.6340012 143.7054997  -9.3820012
  67.0510012 144.5094997  -8.1690012  66.4690671 144.3136305  -8.7848184
  74.9930012 135.9924997  -7.9260012  75.0420012 136.6024997  -7.1900012
  75.4180012 136.4534997  -8.6490012  75.0571824 136.1383741  -7.9229795
  69.4710012 138.7854997  -8.4590012  69.6130012 137.8394997  -8.4390012
  69.3640012 138.9924997  -9.3880012  69.4759864 138.6839534  -8.5817661
  62.6250012 136.8864997 -11.1870012  62.6690012 137.7464997 -11.6050012
  62.1680012 136.3344997 -11.8210012  62.5692185 136.9295799 -11.3299701
  70.3480012 137.0174997 -12.7860012  70.9940012 136.6884997 -12.1610012
  70.8580012 137.5354997 -13.4090012  70.5054264 137.0424611 -12.7846138
  59.2460012 139.2834997 -10.4250012  59.8990012 138.7334997  -9.9930012
  59.2700012 139.0094997 -11.3420012  59.3386683 139.1711466 -10.4897877
  64.4020012 140.8334997 -11.2100012  65.0180012 140.3074997 -10.7000012
  63.8160012 140.1934997 -11.6130012  64.4070810 140.6749208 -11.1946827
  75.3840012 137.4704997  -5.6900012  74.6960012 138.1284997  -5.7860012
  75.4000012 137.2734997  -4.7540012  75.2918525 137.5340462  -5.5765192
  61.4360012 135.8044997  -7.1130012  61.2170012 136.3344997  -7.8790012
  60.7680012 136.0314997  -6.4660012  61.3157600 135.9076906  -7.1303621
  64.0050012 143.4804997  -6.8260012  63.2650012 144.0784997  -6.7220012
  64.7190012 144.0344997  -7.1410012  64.0002237 143.6372831  -6.8543535
  72.1120012 136.3084997 -10.8060012  71.8960012 135.5424997 -10.2730012
  72.7670012 136.7804997 -10.2930012  72.1710632 136.2675889 -10.6637139
  61.0290012 137.6964997  -9.1610012  61.6430012 138.3294997  -8.7870012
  61.5410012 137.2244997  -9.8170012  61.1822296 137.7192370  -9.1985748
  72.4590012 135.0234997  -7.1260012  71.7230012 135.6344997  -7.1640012
  73.1420012 135.4384997  -7.6530012  72.4506541 135.1631374  -7.2024168
  65.4620012 133.1104997  -9.6600012  65.3450012 132.1614997  -9.7150012
  64.6070012 133.4424997  -9.3870012  65.3303733 133.0255409  -9.6306103
  73.2560012 144.9854997  -4.9320012  73.3960012 144.3944997  -5.6720012
  73.4230012 145.8584997  -5.2890012  73.2976778 145.0226426  -5.0813035
  67.7290012 141.9474997 -15.1600012  67.0170012 142.4824997 -15.5120012
  68.4200012 142.0034997 -15.8200012  67.7250132 142.0282543 -15.2973711
  67.7820012 140.4054997 -18.1210012  68.4830012 140.4274997 -17.4700012
  68.0850012 139.7774997 -18.7770012  67.9187830 140.3236566 -18.1206289
  75.0980012 141.3254997  -6.8660012  74.4450012 142.0204997  -6.7770012
  75.5630012 141.5354997  -7.6760012  75.0715390 141.4489425  -6.9633117
  71.1340012 142.1574997 -14.2080012  70.4020012 142.3854997 -13.6350012
  71.5820012 141.4434997 -13.7530012  71.0943095 142.0922571 -14.0680881
  71.0320012 140.3314997  -5.1410012  71.1120012 141.0944997  -4.5690012
  70.4300012 140.6104997  -5.8310012  70.9615756 140.4737134  -5.1559411
  62.7800012 142.7874997 -12.3260012  62.4490012 142.4174997 -13.1440012
  63.3680012 142.1174997 -11.9790012  62.8141873 142.6461156 -12.3911898
  63.1460012 141.5564997  -8.6920012  63.7120012 141.6774997  -9.4550012
  63.4650012 142.1934997  -8.0530012  63.2665786 141.6591884  -8.7099960
  70.0050012 141.3194997 -16.5230012  70.5850012 141.4694997 -15.7760012
  70.4190012 141.7904997 -17.2460012  70.1402830 141.4036841 -16.5185866
  60.9460012 142.1534997  -4.7460012  61.0170012 142.8044997  -4.0480012
  60.0560012 142.2564997  -5.0810012  60.8353117 142.2565936  -4.6957300
  73.7040012 133.0694997 -16.7100012  72.8040012 133.2084997 -16.4150012
  73.9560012 133.9004997 -17.1120012  73.6148702 133.2009074 -16.7239795
  61.7700012 141.8574997 -14.7360012  61.4780012 142.6254997 -15.2270012
  61.0960012 141.1974997 -14.8990012  61.6389081 141.8734406 -14.8252660
  57.8630012 144.2204997  -5.9210012  57.3620012 144.1924997  -6.7360012
  57.8680012 143.3144997  -5.6120012  57.7951526 144.0942278  -5.9907128
  72.9630012 139.1594997  -2.8750012  72.5560012 139.6404997  -3.5960012
  73.0040012 138.2544997  -3.1830012  72.9128437 139.1029374  -3.0153317
  62.7310012 134.0134997  -8.8830012  61.8690012 133.9264997  -9.2900012
  62.7080012 134.8694997  -8.4550012  62.6100330 134.1172765  -8.8808137
  67.3940012 133.7354997  -5.5080012  67.8140012 133.3204997  -4.7550012
  66.4610012 133.5574997  -5.3910012  67.3253644 133.6545900  -5.3890461
  70.7200012 137.4914997  -4.6550012  70.2060012 137.3654997  -3.8570012
  70.5650012 138.4034997  -4.8990012  70.6286852 137.5976132  -4.5787842
  71.4830012 142.3524997 -18.8930012  71.5250012 142.1294997 -19.8230012
  72.3320012 142.7514997 -18.7030012  71.6035396 142.3759155 -18.9946373
  67.0550012 136.2284997 -18.2230012  66.8020012 136.2474997 -17.3000012
  66.7990012 135.3564997 -18.5240012  66.9857790 136.1132437 -18.1373737
  62.8220012 138.9794997  -7.7880012  62.1800012 138.9384997  -7.0790012
  62.8590012 139.9054997  -8.0250012  62.7391324 139.0991559  -7.7230176
  62.8190012 139.2004997 -12.8760012  61.9260012 138.8594997 -12.9340012
  63.2690012 138.8234997 -13.6310012  62.7577305 139.1028484 -12.9860823
  68.3540012 139.6164997 -14.0590012  67.9450012 140.4314997 -14.3500012
  69.0750012 139.4764997 -14.6730012  68.3954537 139.7092018 -14.1818658
  67.4560012 139.7914997  -2.5710012  66.8940012 139.0874997  -2.2500012
  68.2830012 139.6714997  -2.1030012  67.4907095 139.6787883  -2.4637670
  69.3590012 139.0624997 -11.2450012  69.1640012 139.6674997 -11.9600012
  69.5400012 138.2284997 -11.6790012  69.3567614 139.0326300 -11.4015595
  60.5720012 139.2994997  -5.9210012  60.5340012 139.6994997  -5.0520012
  60.0810012 138.4824997  -5.8300012  60.5004684 139.2438069  -5.7898941
  63.9380012 136.6734997 -19.1220012  63.5070012 136.2284997 -18.3920012
  63.2200012 137.0454997 -19.6340012  63.7819438 136.6628940 -19.0913201
  57.1800012 136.4154997 -12.0700012  57.8110012 136.3864997 -11.3510012
  57.6290012 135.9904997 -12.8000012  57.3270774 136.3540492 -12.0703447
  58.4540012 137.1614997 -16.6460012  58.9280012 137.7524997 -17.2310012
  57.7370012 137.6924997 -16.2990012  58.4219341 137.3140867 -16.6791164
  68.6230012 140.7004997  -6.5730012  68.9460012 140.0694997  -7.2160012
  68.1830012 140.1654997  -5.9130012  68.6076895 140.5418441  -6.5717150
  65.4000012 136.6274997 -11.7890012  64.4890012 136.6844997 -11.5010012
  65.9060012 136.5674997 -10.9790012  65.3435413 136.6271985 -11.6399378
  60.2290012 138.2564997 -12.9630012  59.3390012 138.3564997 -13.3030012
  60.5250012 137.4144997 -13.3090012  60.1472823 138.1563545 -13.0562787
  63.8820012 138.2564997 -15.3060012  64.8130012 138.3854997 -15.1280012
  63.6670012 138.9264997 -15.9560012  63.9804247 138.3646565 -15.3694253
  69.8050012 135.8624997  -8.5250012  69.1290012 135.9934997  -7.8610012
  69.3200012 135.7074997  -9.3350012  69.6467145 135.8594905  -8.5435483
  62.5560012 139.4514997 -17.7390012  62.0130012 139.0714997 -18.4310012
  63.3890012 139.6454997 -18.1680012  62.5944399 139.4258124 -17.8915474
  60.6910012 144.0084997  -2.6400012  61.4230012 144.2624997  -2.0790012
  59.9110012 144.2124997  -2.1250012  60.6858232 144.0709177  -2.4934240
  66.7200012 139.4154997  -9.9020012  67.2850012 138.8684997 -10.4490012
  66.5730012 138.8934997  -9.1140012  66.7772918 139.2702024  -9.8701546
  61.7220012 135.5514997 -13.4840012  61.4050012 134.6494997 -13.5190012
  62.5040012 135.5534997 -14.0370012  61.7842284 135.4281628 -13.5635217
  65.3470012 137.8034997  -7.4880012  64.5110012 138.2574997  -7.3780012
  65.8710012 138.0794997  -6.7360012  65.3034414 137.9029376  -7.3712864
  65.8910012 144.0164997 -15.8040012  65.1460012 143.5094997 -16.1260012
  65.7570012 144.0654997 -14.8570012  65.7708776 143.9536940 -15.7201353
  73.0410012 143.1494997  -7.0170012  73.6830012 143.6064997  -7.5610012
  72.2110012 143.2624997  -7.4800012  73.0165963 143.2272704  -7.1539823
  69.7890012 136.8304997 -17.6040012  68.8500012 136.9424997 -17.7560012
  70.0860012 137.6874997 -17.2980012  69.7007666 136.9616443 -17.5834232
  67.4100012 144.2004997  -4.5670012  67.0650012 143.8194997  -3.7600012
  67.2100012 145.1344997  -4.4950012  67.3358061 144.2745228  -4.4469039
  70.5070012 138.6974997 -15.9440012  71.3990012 138.5604997 -15.6250012
  70.5640012 139.4884997 -16.4800012  70.6366285 138.7856660 -15.9728309
  61.0160012 143.3114997 -10.0340012  61.7610012 143.3094997 -10.6350012
  61.0940012 142.4884997  -9.5520012  61.1285518 143.1999315 -10.0511071
  58.0240012 141.7724997  -4.7190012  58.2470012 141.3544997  -3.8870012
  57.4220012 141.1594997  -5.1420012  57.9731759 141.6324668  -4.6622978
  65.0400012 141.2894997  -2.5060012  64.7440012 141.1234997  -3.4010012
  65.9720012 141.0694997  -2.5170012  65.1254166 141.2370640  -2.6299464
  75.3920012 138.9074997 -16.2490012  74.8380012 138.5114997 -16.9210012
  75.4920012 139.8174997 -16.5270012  75.3297059 138.9763586 -16.3785599
  75.3550012 144.7074997  -3.4120012  74.5040012 144.9454997  -3.7790012
  75.9460012 144.6904997  -4.1650012  75.3182487 144.7378258  -3.5641107
  70.8480012 142.5014997  -8.7630012  69.9190012 142.2694997  -8.7900012
  71.2990012 141.7244997  -9.0930012  70.7819216 142.3647238  -8.8113083
  59.1460012 141.6914997 -18.0430012  59.7620012 142.3184997 -17.6630012
  58.2840012 142.0074997 -17.7710012  59.1137698 141.8199430 -17.9542817
  64.8180012 144.4924997 -13.0530012  64.5770012 145.4174997 -13.0120012
  64.0770012 144.0334997 -12.6570012  64.6848409 144.5571421 -12.9938623
  68.8770012 144.7404997  -7.0380012  68.4510012 144.5134997  -6.2110012
  69.4570012 144.0024997  -7.2200012  68.8971868 144.6095299  -6.9494170
  59.6580012 136.5254997  -5.1610012  58.7650012 136.8644997  -5.2290012
  59.5590012 135.6704997  -4.7430012  59.5224164 136.4562588  -5.1137765
  71.9460012 144.3424997 -15.7370012  71.6680012 143.6144997 -15.1810012
  72.8730012 144.4614997 -15.5320012  72.0333124 144.2588802 -15.6331155
  60.5610012 143.6044997 -16.5500012  59.8750012 143.9564997 -15.9830012
  61.0830012 144.3674997 -16.7970012  60.5376852 143.7558578 -16.5057882
  68.3920012 136.2664997  -6.2710012  69.0910012 136.3404997  -5.6210012
  68.0110012 135.4024997  -6.1170012  68.4361767 136.1597624  -6.1611678
  69.1770012 135.9184997 -15.1740012  69.3970012 136.3904997 -15.9770012
  69.7350012 136.3134997 -14.5040012  69.2824968 136.0364285 -15.1932669
  66.3770012 137.6464997 -14.3390012  67.1890012 138.1514997 -14.2930012
  66.1320012 137.5014997 -13.4250012  66.4550520 137.6960375 -14.2091483
  66.9120012 138.6324997  -5.1540012  67.0310012 139.2064997  -4.3970012
  67.5680012 137.9444997  -5.0400012  67.0169757 138.6181079  -5.0349175
  67.2600012 134.7274997 -13.4010012  66.9140012 135.3454997 -12.7560012
  67.9190012 135.2284997 -13.8820012  67.3017826 134.8795802 -13.3779029
  62.9180012 135.7904997 -16.7140012  62.8350012 136.6794997 -16.3670012
  63.8080012 135.5254997 -16.4820012  63.0269469 135.8761430 -16.6352374
  73.1170012 136.5394997  -4.3190012  72.2000012 136.8024997  -4.4070012
  73.4520012 136.5364997  -5.2160012  73.0369900 136.5750224  -4.4522081
  71.7190012 140.2904997 -10.2240012  70.9210012 139.8754997 -10.5520012
  72.1640012 139.5994997  -9.7330012  71.6699885 140.1403543 -10.2025111
  59.4930012 138.8824997 -18.5370012  59.4480012 139.8214997 -18.3590012
  58.6050012 138.6464997 -18.8070012  59.3668574 138.9791892 -18.5491088
  60.3010012 133.6644997  -9.8640012  60.0720012 133.7234997 -10.7920012
  59.8580012 132.8724997  -9.5580012  60.2098530 133.5655753  -9.9495214
  58.4260012 144.0274997  -1.4190012  58.5700012 143.1254997  -1.7060012
  57.6540012 144.3134997  -1.9070012  58.3413322 143.9428261  -1.5242119
  62.7680012 144.3714997 -19.2870012  62.8320012 143.5774997 -18.7560012
  63.4210012 144.2524997 -19.9770012  62.8650241 144.2467148 -19.3075683
  65.0820012 143.9974997  -1.9870012  64.7530012 144.2684997  -2.8440012
  65.2340012 143.0564997  -2.0740012  65.0574809 143.9073862  -2.1161756
  70.8160012 143.9134997  -4.6030012  71.5620012 144.5014997  -4.7230012
  70.0590012 144.4954997  -4.5400012  70.8157554 144.0727011  -4.6109093
  59.2590012 141.2274997  -1.9990012  59.6670012 140.3704997  -2.1200012
  58.9990012 141.2424997  -1.0780012  59.2797568 141.1120807  -1.8910412
  63.9170012 142.3434997 -16.9810012  63.4570012 141.8594997 -16.2950012
  64.1720012 141.6754997 -17.6170012  63.8884902 142.1868731 -16.9730666
  63.2060012 140.2364997  -4.6250012  62.5880012 140.9114997  -4.3450012
  63.5500012 140.5574997  -5.4580012  63.1679615 140.3722721  -4.6993419
  64.9880012 140.5864997 -18.7190012  64.8080012 140.4324997 -19.6460012
  65.9380012 140.6944997 -18.6740012  65.0917776 140.5800175 -18.8398157
  68.2260012 142.7084997  -1.3480012  69.1790012 142.7914997  -1.3750012
  68.0650012 141.9964997  -0.7280012  68.3346426 142.6236746  -1.2679421
  74.3780012 142.9414997 -19.2730012  74.1040012 142.5164997 -20.0860012
  74.4170012 143.8724997 -19.4900012  74.3457699 143.0092484 -19.4136390
  63.5450012 137.5914997  -3.5430012  63.6950012 136.8624997  -4.1450012
  63.5480012 138.3684997  -4.1020012  63.5659302 137.5967851  -3.7009308
  63.9580012 135.9614997  -6.0500012  64.4940012 136.4124997  -6.7020012
  63.1060012 135.8534997  -6.4730012  63.9162178 136.0086390  -6.1964244
  65.5400012 141.4004997  -5.8110012  66.2900012 141.2444997  -6.3840012
  65.2010012 142.2524997  -6.0860012  65.5968921 141.4942968  -5.9266439
  69.9550012 139.2154997  -0.7820012  70.1480012 138.2844997  -0.8940012
  70.8130012 139.6404997  -0.7920012  70.0973020 139.1456389  -0.7986639
  71.2720012 142.0044997  -2.7050012  70.9910012 142.7134997  -3.2820012
  72.2150012 141.9314997  -2.8560012  71.3609027 142.0917646  -2.8044449
  62.0240012 138.7894997  -1.6310012  61.2570012 138.2574997  -1.8410012
  62.7030012 138.4794997  -2.2310012  62.0107022 138.6747506  -1.7408352
  64.7640012 133.4174997  -5.6190012  64.6650012 134.3644997  -5.7240012
  64.0210012 133.0454997  -6.0940012  64.6500564 133.4965902  -5.6975440
  66.0280012 137.7394997  -2.0550012  65.7920012 137.5194997  -1.1530012
  65.2440012 137.5324997  -2.5650012  65.8898628 137.6814760  -2.0006068
  68.7430012 136.8664997  -2.9790012  67.7960012 136.8984997  -2.8470012
  69.0560012 136.2414997  -2.3260012  68.6555475 136.7863207  -2.8725545
  70.3770012 135.5004997  -0.9740012  70.2810012 134.5484997  -0.9800012
  70.0560012 135.7694997  -0.1140012  70.3204070 135.4064035  -0.8584559
  60.2040012 136.7104997  -1.9270012  60.4160012 136.0034997  -2.5370012
  60.0930012 136.2724997  -1.0830012  60.2179721 136.5547084  -1.8963157
  64.9850012 132.7114997  -2.9470012  65.6970012 132.0714997  -2.9610012
  64.8840012 132.9784997  -3.8610012  65.0687939 132.6599938  -3.0724350
  65.3390012 134.3944997  -0.8940012  65.2070012 133.9184997  -1.7140012
  64.7400012 135.1384997  -0.9490012  65.2399071 134.4299618  -1.0137114
  74.8360012 143.8104997 -15.2980012  75.6860012 144.2314997 -15.1710012
  74.8420012 143.0704997 -14.6910012  74.9531372 143.7680803 -15.1985656
  75.2310012 141.8634997 -13.4740012  74.5040012 141.3844997 -13.0770012
  75.8120012 142.0694997 -12.7420012  75.2099375 141.8257090 -13.3205871
  74.9900012 144.6484997  -8.5270012  75.8230012 144.2704997  -8.8070012
  75.1020012 145.5914997  -8.6460012  75.1192647 144.7242218  -8.5814513
  75.4990012 141.7644997 -17.0830012  74.9770012 142.1214997 -17.8020012
  75.4660012 142.4394997 -16.4050012  75.4231634 141.9045413 -17.0896855
  73.8480012 139.0044997 -18.5320012  73.9440012 139.6714997 -19.2130012
  73.7080012 138.1884997 -19.0140012  73.8422135 138.9854500 -18.6901509
  73.0170012 140.3844997 -12.9110012  72.8670012 139.4394997 -12.9320012
  72.6640012 140.6654997 -12.0680012  72.9486625 140.2930441 -12.7997654
  58.0530012 142.4624997  -8.9010012  58.2370012 142.3804997  -9.8370012
  58.9020012 142.3384997  -8.4770012  58.1930139 142.4345003  -8.9718545
  73.8740012 142.3544997  -3.2730012  74.4570012 141.6204997  -3.0810012
  74.4380012 143.1264997  -3.2260012  74.0299769 142.3584227  -3.2403841
  75.3700012 140.2574997  -2.5880012  74.5070012 139.8784997  -2.7540012
  75.9750012 139.5184997  -2.6620012  75.3335979 140.1058023  -2.6207183
  73.0950012 136.4124997 -19.4150012  73.7060012 136.0414997 -18.7780012
  72.2590012 135.9914997 -19.2190012  73.0655032 136.3047554 -19.3012965
  72.7280012 137.9674997 -14.4490012  73.0080012 137.0604997 -14.3250012
  73.4870012 138.4014997 -14.8380012  72.8689277 137.9020942 -14.4846318
  73.3400012 138.5484997  -9.0130012  74.2730012 138.7604997  -9.0470012
  73.1050012 138.6504997  -8.0910012  73.4358036 138.5912769  -8.8930024
  73.3690012 139.2854997  -6.2370012  72.5260012 139.5534997  -5.8710012
  73.8110012 140.1074997  -6.4480012  73.3134158 139.4333291  -6.2154509
  57.6500012 137.7334997  -2.7600012  58.5700012 137.6114997  -2.5240012
  57.2010012 136.9834997  -2.3710012  57.7151580 137.6153727  -2.6750994
  75.6520012 133.2654997  -0.8840012  76.0020012 132.6114997  -1.4890012
  75.7990012 134.1024997  -1.3230012  75.7198419 133.2891591  -1.0262882
  73.3410012 135.2304997 -14.4010012  73.5240012 134.7814997 -13.5750012
  72.7420012 134.6454997 -14.8640012  73.2850202 135.0899975 -14.3506725
  58.8710012 136.0454997  -9.8690012  59.3170012 135.2534997  -9.5670012
  59.3380012 136.7614997  -9.4380012  58.9950172 136.0340624  -9.7695180
  57.1750012 139.0444997  -8.8000012  57.6670012 138.8234997  -9.5910012
  57.5380012 139.8854997  -8.5190012  57.2913126 139.1278357  -8.8702469
  75.1720012 135.3744997  -2.5340012  74.2540012 135.6454997  -2.5700012
  75.2950012 134.8394997  -3.3190012  75.0631066 135.3392892  -2.6449513
  75.2080012 135.2974997 -17.8730012  75.6200012 134.5764997 -18.3480012
  75.8900012 135.9674997 -17.8140012  75.3565885 135.2892368 -17.9301085
  57.4890012 135.3024997 -14.7460012  56.5640012 135.5114997 -14.8750012
  57.9430012 135.7864997 -15.4350012  57.4237368 135.3965993 -14.8568774
  57.4530012 134.0404997  -6.4010012  56.7880012 133.7944997  -5.7580012
  57.0100012 134.6624997  -6.9790012  57.3020956 134.0908632  -6.3910648
  74.1720012 133.4644997  -4.7150012  73.3600012 133.7894997  -5.1030012
  74.4050012 132.7044997  -5.2480012  74.0923423 133.4062436  -4.8401747
  67.6020012 134.9134997 -10.3930012  66.9280012 134.2844997 -10.1370012
  68.1660012 134.4294997 -10.9960012  67.5859230 134.7618744 -10.4394660
  72.7450012 133.0214997 -10.2800012  73.3490012 133.5684997 -10.7820012
  71.8750012 133.3404997 -10.5200012  72.7101241 133.1395806 -10.3812346
  74.4720012 134.1594997 -11.9470012  75.0840012 133.6454997 -12.4730012
  74.8540012 135.0374997 -11.9230012  74.6074540 134.2077140 -12.0158170
  59.9290012 133.5474997 -12.5710012  59.1520012 133.3134997 -13.0780012
  60.4590012 132.7504997 -12.5620012  59.8942330 133.4076988 -12.6392258
  58.7650012 133.3454997 -16.7670012  59.2040012 133.9564997 -17.3590012
  58.1320012 133.8834997 -16.2930012  58.7394514 133.5019257 -16.7839070
  64.5080012 133.4744997 -12.7570012  65.3830012 133.8624997 -12.7870012
  64.3720012 133.2594997 -11.8350012  64.6093695 133.4985184 -12.6363560
  70.0650012 133.5044997 -11.1080012  70.1410012 133.5994997 -12.0580012
  69.7900012 132.5964997 -10.9790012  70.0382321 133.3947867 -11.2204921
  71.4180012 133.5304997 -15.4160012  70.7160012 134.1454997 -15.6250012
  70.9740012 132.6924997 -15.2850012  71.2616330 133.5015783 -15.4269672
  60.6260012 135.2614997 -18.3250012  61.1180012 134.6314997 -18.8520012
  61.2500012 135.5574997 -17.6610012  60.7775446 135.2153199 -18.3074020
  65.6520012 135.5544997 -15.8680012  65.8300012 134.9084997 -15.1850012
  65.5990012 136.3884997 -15.4000012  65.6691829 135.5787985 -15.7114060
  59.8870012 134.0614997  -3.0530012  59.5210012 133.2964997  -2.6100012
  60.8000012 134.0904997  -2.7660012  59.9602790 133.9607224  -2.9535930
  61.8600012 133.4124997  -1.5170012  62.7580012 133.1384997  -1.7020012
  61.4730012 132.6694997  -1.0530012  61.9306612 133.2745914  -1.4796357
  70.2810012 132.7444997  -1.3350012  70.3580012 132.3184997  -0.4810012
  71.1750012 132.7584997  -1.6780012  70.4123428 132.6880879  -1.2644690
  87.8630012 142.7034997 -12.6120012  87.9520012 143.6474997 -12.7440012
  87.2250012 142.4284997 -13.2700012  87.7889081 142.7954830 -12.7190386
  86.7960012 141.9584997  -9.1930012  86.7580012 141.3124997  -8.4880012
  86.4740012 141.4924997  -9.9640012  86.7472333 141.8069408  -9.2007022
  79.1650012 141.5734997  -7.6000012  79.2060012 140.9474997  -6.8770012
  79.8680012 142.1974997  -7.4180012  79.2656363 141.5721196  -7.4763956
  90.5020012 144.8974997 -10.8920012  90.0620012 144.1774997 -10.4410012
  90.4890012 145.6184997 -10.2620012  90.4400226 144.8963731 -10.7451506
  76.6980012 139.6834997 -13.6720012  76.2510012 140.5294997 -13.6910012
  76.1370012 139.1034997 -14.1880012  76.5609900 139.7209916 -13.7443199
  77.4090012 141.8454997 -11.5460012  77.6220012 141.0754997 -11.0190012
  78.1470012 141.9344997 -12.1500012  77.5378496 141.7521394 -11.5554700
  85.1860012 144.3914997  -8.7870012  85.4900012 143.7054997  -9.3820012
  85.9070012 144.5094997  -8.1690012  85.3250671 144.3136305  -8.7848184
  93.8490012 135.9924997  -7.9260012  93.8980012 136.6024997  -7.1900012
  94.2740012 136.4534997  -8.6490012  93.9131824 136.1383741  -7.9229795
  88.3270012 138.7854997  -8.4590012  88.4690012 137.8394997  -8.4390012
  88.2200012 138.9924997  -9.3880012  88.3319864 138.6839534  -8.5817661
  81.4810012 136.8864997 -11.1870012  81.5250012 137.7464997 -11.6050012
  81.0240012 136.3344997 -11.8210012  81.4252185 136.9295799 -11.3299701
  89.2040012 137.0174997 -12.7860012  89.8500012 136.6884997 -12.1610012
  89.7140012 137.5354997 -13.4090012  89.3614264 137.0424611 -12.7846138
  78.1020012 139.2834997 -10.4250012  78.7550012 138.7334997  -9.9930012
  78.1260012 139.0094997 -11.3420012  78.1946683 139.1711466 -10.4897877
  83.2580012 140.8334997 -11.2100012  83.8740012 140.3074997 -10.7000012
  82.6720012 140.1934997 -11.6130012  83.2630810 140.6749208 -11.1946827
  94.2400012 137.4704997  -5.6900012  93.5520012 138.1284997  -5.7860012
  94.2560012 137.2734997  -4.7540012  94.1478525 137.5340462  -5.5765192
  80.2920012 135.8044997  -7.1130012  80.0730012 136.3344997  -7.8790012
  79.6240012 136.0314997  -6.4660012  80.1717600 135.9076906  -7.1303621
  82.8610012 143.4804997  -6.8260012  82.1210012 144.0784997  -6.7220012
  83.5750012 144.0344997  -7.1410012  82.8562237 143.6372831  -6.8543535
  90.9680012 136.3084997 -10.8060012  90.7520012 135.5424997 -10.2730012
  91.6230012 136.7804997 -10.2930012  91.0270632 136.2675889 -10.6637139
  79.8850012 137.6964997  -9.1610012  80.4990012 138.3294997  -8.7870012
  80.3970012 137.2244997  -9.8170012  80.0382296 137.7192370  -9.1985748
  91.3150012 135.0234997  -7.1260012  90.5790012 135.6344997  -7.1640012
  91.9980012 135.4384997  -7.6530012  91.3066541 135.1631374  -7.2024168
  84.3180012 133.1104997  -9.6600012  84.2010012 132.1614997  -9.7150012
  83.4630012 133.4424997  -9.3870012  84.1863733 133.0255409  -9.6306103
  92.1120012 144.9854997  -4.9320012  92.2520012 144.3944997  -5.6720012
  92.2790012 145.8584997  -5.2890012  92.1536778 145.0226426  -5.0813035
  86.5850012 141.9474997 -15.1600012  85.8730012 142.4824997 -15.5120012
  87.2760012 142.0034997 -15.8200012  86.5810132 142.0282543 -15.2973711
  86.6380012 140.4054997 -18.1210012  87.3390012 140.4274997 -17.4700012
  86.9410012 139.7774997 -18.7770012  86.7747830 140.3236566 -18.1206289
  93.9540012 141.3254997  -6.8660012  93.3010012 142.0204997  -6.7770012
  94.4190012 141.5354997  -7.6760012  93.9275390 141.4489425  -6.9633117
  89.9900012 142.1574997 -14.2080012  89.2580012 142.3854997 -13.6350012
  90.4380012 141.4434997 -13.7530012  89.9503095 142.0922571 -14.0680881
  89.8880012 140.3314997  -5.1410012  89.9680012 141.0944997  -4.5690012
  89.2860012 140.6104997  -5.8310012  89.8175756 140.4737134  -5.1559411
  81.6360012 142.7874997 -12.3260012  81.3050012 142.4174997 -13.1440012
  82.2240012 142.1174997 -11.9790012  81.6701873 142.6461156 -12.3911898
  82.0020012 141.5564997  -8.6920012  82.5680012 141.6774997  -9.4550012
  82.3210012 142.1934997  -8.0530012  82.1225786 141.6591884  -8.7099960
  88.8610012 141.3194997 -16.5230012  89.4410012 141.4694997 -15.7760012
  89.2750012 141.7904997 -17.2460012  88.9962830 141.4036841 -16.5185866
  79.8020012 142.1534997  -4.7460012  79.8730012 142.8044997  -4.0480012
  78.9120012 142.2564997  -5.0810012  79.6913117 142.2565936  -4.6957300
  92.5600012 133.0694997 -16.7100012  91.6600012 133.2084997 -16.4150012
  92.8120012 133.9004997 -17.1120012  92.4708702 133.2009074 -16.7239795
  80.6260012 141.8574997 -14.7360012  80.3340012 142.6254997 -15.2270012
  79.9520012 141.1974997 -14.8990012  80.4949081 141.8734406 -14.8252660
  76.7190012 144.2204997  -5.9210012  76.2180012 144.1924997  -6.7360012
  76.7240012 143.3144997  -5.6120012  76.6511526 144.0942278  -5.9907128
  91.8190012 139.1594997  -2.8750012  91.4120012 139.6404997  -3.5960012
  91.8600012 138.2544997  -3.1830012  91.7688437 139.1029374  -3.0153317
  81.5870012 134.0134997  -8.8830012  80.7250012 133.9264997  -9.2900012
  81.5640012 134.8694997  -8.4550012  81.4660330 134.1172765  -8.8808137
  86.2500012 133.7354997  -5.5080012  86.6700012 133.3204997  -4.7550012
  85.3170012 133.5574997  -5.3910012  86.1813644 133.6545900  -5.3890461
  89.5760012 137.4914997  -4.6550012  89.0620012 137.3654997  -3.8570012
  89.4210012 138.4034997  -4.8990012  89.4846852 137.5976132  -4.5787842
  90.3390012 142.3524997 -18.8930012  90.3810012 142.1294997 -19.8230012
  91.1880012 142.7514997 -18.7030012  90.4595396 142.3759155 -18.9946373
  85.9110012 136.2284997 -18.2230012  85.6580012 136.2474997 -17.3000012
  85.6550012 135.3564997 -18.5240012  85.8417790 136.1132437 -18.1373737
  81.6780012 138.9794997  -7.7880012  81.0360012 138.9384997  -7.0790012
  81.7150012 139.9054997  -8.0250012  81.5951324 139.0991559  -7.7230176
  81.6750012 139.2004997 -12.8760012  80.7820012 138.8594997 -12.9340012
  82.1250012 138.8234997 -13.6310012  81.6137305 139.1028484 -12.9860823
  87.2100012 139.6164997 -14.0590012  86.8010012 140.4314997 -14.3500012
  87.9310012 139.4764997 -14.6730012  87.2514537 139.7092018 -14.1818658
  86.3120012 139.7914997  -2.5710012  85.7500012 139.0874997  -2.2500012
  87.1390012 139.6714997  -2.1030012  86.3467095 139.6787883  -2.4637670
  88.2150012 139.0624997 -11.2450012  88.0200012 139.6674997 -11.9600012
  88.3960012 138.2284997 -11.6790012  88.2127614 139.0326300 -11.4015595
  79.4280012 139.2994997  -5.9210012  79.3900012 139.6994997  -5.0520012
  78.9370012 138.4824997  -5.8300012  79.3564684 139.2438069  -5.7898941
  82.7940012 136.6734997 -19.1220012  82.3630012 136.2284997 -18.3920012
  82.0760012 137.0454997 -19.6340012  82.6379438 136.6628940 -19.0913201
  76.0360012 136.4154997 -12.0700012  76.6670012 136.3864997 -11.3510012
  76.4850012 135.9904997 -12.8000012  76.1830774 136.3540492 -12.0703447
  77.3100012 137.1614997 -16.6460012  77.7840012 137.7524997 -17.2310012
  76.5930012 137.6924997 -16.2990012  77.2779341 137.3140867 -16.6791164
  87.4790012 140.7004997  -6.5730012  87.8020012 140.0694997  -7.2160012
  87.0390012 140.1654997  -5.9130012  87.4636895 140.5418441  -6.5717150
  84.2560012 136.6274997 -11.7890012  83.3450012 136.6844997 -11.5010012
  84.7620012 136.5674997 -10.9790012  84.1995413 136.6271985 -11.6399378
  79.0850012 138.2564997 -12.9630012  78.1950012 138.3564997 -13.3030012
  79.3810012 137.4144997 -13.3090012  79.0032823 138.1563545 -13.0562787
  82.7380012 138.2564997 -15.3060012  83.6690012 138.3854997 -15.1280012
  82.5230012 138.9264997 -15.9560012  82.8364247 138.3646565 -15.3694253
  88.6610012 135.8624997  -8.5250012  87.9850012 135.9934997  -7.8610012
  88.1760012 135.7074997  -9.3350012  88.5027145 135.8594905  -8.5435483
  81.4120012 139.4514997 -17.7390012  80.8690012 139.0714997 -18.4310012
  82.2450012 139.6454997 -18.1680012  81.4504399 139.4258124 -17.8915474
  79.5470012 144.0084997  -2.6400012  80.2790012 144.2624997  -2.0790012
  78.7670012 144.2124997  -2.1250012  79.5418232 144.0709177  -2.4934240
  85.5760012 139.4154997  -9.9020012  86.1410012 138.8684997 -10.4490012
  85.4290012 138.8934997  -9.1140012  85.6332918 139.2702024  -9.8701546
  80.5780012 135.5514997 -13.4840012  80.2610012 134.6494997 -13.5190012
  81.3600012 135.5534997 -14.0370012  80.6402284 135.4281628 -13.5635217
  84.2030012 137.8034997  -7.4880012  83.3670012 138.2574997  -7.3780012
  84.7270012 138.0794997  -6.7360012  84.1594414 137.9029376  -7.3712864
  84.7470012 144.0164997 -15.8040012  84.0020012 143.5094997 -16.1260012
  84.6130012 144.0654997 -14.8570012  84.6268776 143.9536940 -15.7201353
  91.8970012 143.1494997  -7.0170012  92.5390012 143.6064997  -7.5610012
  91.0670012 143.2624997  -7.4800012  91.8725963 143.2272704  -7.1539823
  88.6450012 136.8304997 -17.6040012  87.7060012 136.9424997 -17.7560012
  88.9420012 137.6874997 -17.2980012  88.5567666 136.9616443 -17.5834232
  86.2660012 144.2004997  -4.5670012  85.9210012 143.8194997  -3.7600012
  86.0660012 145.1344997  -4.4950012  86.1918061 144.2745228  -4.4469039
  89.3630012 138.6974997 -15.9440012  90.2550012 138.5604997 -15.6250012
  89.4200012 139.4884997 -16.4800012  89.4926285 138.7856660 -15.9728310
  79.8720012 143.3114997 -10.0340012  80.6170012 143.3094997 -10.6350012
  79.9500012 142.4884997  -9.5520012  79.9845518 143.1999315 -10.0511071
  76.8800012 141.7724997  -4.7190012  77.1030012 141.3544997  -3.8870012
  76.2780012 141.1594997  -5.1420012  76.8291759 141.6324668  -4.6622978
  83.8960012 141.2894997  -2.5060012  83.6000012 141.1234997  -3.4010012
  84.8280012 141.0694997  -2.5170012  83.9814166 141.2370640  -2.6299464
  94.2480012 138.9074997 -16.2490012  93.6940012 138.5114997 -16.9210012
  94.3480012 139.8174997 -16.5270012  94.1857059 138.9763586 -16.3785599
  94.2110012 144.7074997  -3.4120012  93.3600012 144.9454997  -3.7790012
  94.8020012 144.6904997  -4.1650012  94.1742487 144.7378258  -3.5641107
  89.7040012 142.5014997  -8.7630012  88.7750012 142.2694997  -8.7900012
  90.1550012 141.7244997  -9.0930012  89.6379216 142.3647238  -8.8113083
  78.0020012 141.6914997 -18.0430012  78.6180012 142.3184997 -17.6630012
  77.1400012 142.0074997 -17.7710012  77.9697698 141.8199430 -17.9542817
  83.6740012 144.4924997 -13.0530012  83.4330012 145.4174997 -13.0120012
  82.9330012 144.0334997 -12.6570012  83.5408409 144.5571421 -12.9938623
  87.7330012 144.7404997  -7.0380012  87.3070012 144.5134997  -6.2110012
  88.3130012 144.0024997  -7.2200012  87.7531868 144.6095299  -6.9494170
  78.5140012 136.5254997  -5.1610012  77.6210012 136.8644997  -5.2290012
  78.4150012 135.6704997  -4.7430012  78.3784164 136.4562588  -5.1137765
  90.8020012 144.3424997 -15.7370012  90.5240012 143.6144997 -15.1810012
  91.7290012 144.4614997 -15.5320012  90.8893124 144.2588802 -15.6331155
  79.4170012 143.6044997 -16.5500012  78.7310012 143.9564997 -15.9830012
  79.9390012 144.3674997 -16.7970012  79.3936852 143.7558578 -16.5057882
  87.2480012 136.2664997  -6.2710012  87.9470012 136.3404997  -5.6210012
  86.8670012 135.4024997  -6.1170012  87.2921767 136.1597624  -6.1611678
  88.0330012 135.9184997 -15.1740012  88.2530012 136.3904997 -15.9770012
  88.5910012 136.3134997 -14.5040012  88.1384968 136.0364285 -15.1932669
  85.2330012 137.6464997 -14.3390012  86.0450012 138.1514997 -14.2930012
  84.9880012 137.5014997 -13.4250012  85.3110520 137.6960375 -14.2091483
  85.7680012 138.6324997  -5.1540012  85.8870012 139.2064997  -4.3970012
  86.4240012 137.9444997  -5.0400012  85.8729757 138.6181079  -5.0349175
  86.1160012 134.7274997 -13.4010012  85.7700012 135.3454997 -12.7560012
  86.7750012 135.2284997 -13.8820012  86.1577826 134.8795802 -13.3779029
  81.7740012 135.7904997 -16.7140012  81.6910012 136.6794997 -16.3670012
  82.6640012 135.5254997 -16.4820012  81.8829469 135.8761430 -16.6352374
  91.9730012 136.5394997  -4.3190012  91.0560012 136.8024997  -4.4070012
  92.3080012 136.5364997  -5.2160012  91.8929900 136.5750224  -4.4522081
  90.5750012 140.2904997 -10.2240012  89.7770012 139.8754997 -10.5520012
  91.0200012 139.5994997  -9.7330012  90.5259885 140.1403543 -10.2025111
  78.3490012 138.8824997 -18.5370012  78.3040012 139.8214997 -18.3590012
  77.4610012 138.6464997 -18.8070012  78.2228574 138.9791892 -18.5491088
  79.1570012 133.6644997  -9.8640012  78.9280012 133.7234997 -10.7920012
  78.7140012 132.8724997  -9.5580012  79.0658530 133.5655753  -9.9495214
  77.2820012 144.0274997  -1.4190012  77.4260012 143.1254997  -1.7060012
  76.5100012 144.3134997  -1.9070012  77.1973322 143.9428261  -1.5242119
  81.6240012 144.3714997 -19.2870012  81.6880012 143.5774997 -18.7560012
  82.2770012 144.2524997 -19.9770012  81.7210241 144.2467148 -19.3075683
  83.9380012 143.9974997  -1.9870012  83.6090012 144.2684997  -2.8440012
  84.0900012 143.0564997  -2.0740012  83.9134809 143.9073862  -2.1161756
  89.6720012 143.9134997  -4.6030012  90.4180012 144.5014997  -4.7230012
  88.9150012 144.4954997  -4.5400012  89.6717554 144.0727011  -4.6109093
  78.1150012 141.2274997  -1.9990012  78.5230012 140.3704997  -2.1200012
  77.8550012 141.2424997  -1.0780012  78.1357568 141.1120807  -1.8910412
  82.7730012 142.3434997 -16.9810012  82.3130012 141.8594997 -16.2950012
  83.0280012 141.6754997 -17.6170012  82.7444902 142.1868731 -16.9730666
  82.0620012 140.2364997  -4.6250012  81.4440012 140.9114997  -4.3450012
  82.4060012 140.5574997  -5.4580012  82.0239615 140.3722721  -4.6993419
  83.8440012 140.5864997 -18.7190012  83.6640012 140.4324997 -19.6460012
  84.7940012 140.6944997 -18.6740012  83.9477776 140.5800175 -18.8398157
  87.0820012 142.7084997  -1.3480012  88.0350012 142.7914997  -1.3750012
  86.9210012 141.9964997  -0.7280012  87.1906426 142.6236746  -1.2679421
  93.2340012 142.9414997 -19.2730012  92.9600012 142.5164997 -20.0860012
  93.2730012 143.8724997 -19.4900012  93.2017699 143.0092484 -19.4136390
  82.4010012 137.5914997  -3.5430012  82.5510012 136.8624997  -4.1450012
  82.4040012 138.3684997  -4.1020012  82.4219302 137.5967851  -3.7009308
  82.8140012 135.9614997  -6.0500012  83.3500012 136.4124997  -6.7020012
  81.9620012 135.8534997  -6.4730012  82.7722178 136.0086390  -6.1964244
  84.3960012 141.4004997  -5.8110012  85.1460012 141.2444997  -6.3840012
  84.0570012 142.2524997  -6.0860012  84.4528921 141.4942968  -5.9266439
  88.8110012 139.2154997  -0.7820012  89.0040012 138.2844997  -0.8940012
  89.6690012 139.6404997  -0.7920012  88.9533020 139.1456389  -0.7986639
  90.1280012 142.0044997  -2.7050012  89.8470012 142.7134997  -3.2820012
  91.0710012 141.9314997  -2.8560012  90.2169027 142.0917646  -2.8044449
  80.8800012 138.7894997  -1.6310012  80.1130012 138.2574997  -1.8410012
  81.5590012 138.4794997  -2.2310012  80.8667022 138.6747506  -1.7408352
  83.6200012 133.4174997  -5.6190012  83.5210012 134.3644997  -5.7240012
  82.8770012 133.0454997  -6.0940012  83.5060564 133.4965902  -5.6975440
  84.8840012 137.7394997  -2.0550012  84.6480012 137.5194997  -1.1530012
  84.1000012 137.5324997  -2.5650012  84.7458628 137.6814760  -2.0006068
  87.5990012 136.8664997  -2.9790012  86.6520012 136.8984997  -2.8470012
  87.9120012 136.2414997  -2.3260012  87.5115475 136.7863207  -2.8725545
  89.2330012 135.5004997  -0.9740012  89.1370012 134.5484997  -0.9800012
  88.9120012 135.7694997  -0.1140012  89.1764070 135.4064035  -0.8584559
  79.0600012 136.7104997  -1.9270012  79.2720012 136.0034997  -2.5370012
  78.9490012 136.2724997  -1.0830012  79.0739721 136.5547084  -1.8963157
  83.8410012 132.7114997  -2.9470012  84.5530012 132.0714997  -2.9610012
  83.7400012 132.9784997  -3.8610012  83.9247939 132.6599938  -3.0724350
  84.1950012 134.3944997  -0.8940012  84.0630012 133.9184997  -1.7140012
  83.5960012 135.1384997  -0.9490012  84.0959071 134.4299618  -1.0137114
  93.6920012 143.8104997 -15.2980012  94.5420012 144.2314997 -15.1710012
  93.6980012 143.0704997 -14.6910012  93.8091372 143.7680803 -15.1985656
  94.0870012 141.8634997 -13.4740012  93.3600012 141.3844997 -13.0770012
  94.6680012 142.0694997 -12.7420012  94.0659375 141.8257090 -13.3205871
  93.8460012 144.6484997  -8.5270012  94.6790012 144.2704997  -8.8070012
  93.9580012 145.5914997  -8.6460012  93.9752647 144.7242218  -8.5814513
  94.3550012 141.7644997 -17.0830012  93.8330012 142.1214997 -17.8020012
  94.3220012 142.4394997 -16.4050012  94.2791634 141.9045413 -17.0896855
  92.7040012 139.0044997 -18.5320012  92.8000012 139.6714997 -19.2130012
  92.5640012 138.1884997 -19.0140012  92.6982135 138.9854500 -18.6901509
  91.8730012 140.3844997 -12.9110012  91.7230012 139.4394997 -12.9320012
  91.5200012 140.6654997 -12.0680012  91.8046625 140.2930441 -12.7997654
  76.9090012 142.4624997  -8.9010012  77.0930012 142.3804997  -9.8370012
  77.7580012 142.3384997  -8.4770012  77.0490139 142.4345003  -8.9718545
  92.7300012 142.3544997  -3.2730012  93.3130012 141.6204997  -3.0810012
  93.2940012 143.1264997  -3.2260012  92.8859769 142.3584227  -3.2403841
  94.2260012 140.2574997  -2.5880012  93.3630012 139.8784997  -2.7540012
  94.8310012 139.5184997  -2.6620012  94.1895979 140.1058023  -2.6207183
  91.9510012 136.4124997 -19.4150012  92.5620012 136.0414997 -18.7780012
  91.1150012 135.9914997 -19.2190012  91.9215032 136.3047554 -19.3012965
  91.5840012 137.9674997 -14.4490012  91.8640012 137.0604997 -14.3250012
  92.3430012 138.4014997 -14.8380012  91.7249277 137.9020942 -14.4846318
  92.1960012 138.5484997  -9.0130012  93.1290012 138.7604997  -9.0470012
  91.9610012 138.6504997  -8.0910012  92.2918036 138.5912769  -8.8930024
  92.2250012 139.2854997  -6.2370012  91.3820012 139.5534997  -5.8710012
  92.6670012 140.1074997  -6.4480012  92.1694158 139.4333291  -6.2154509
  76.5060012 137.7334997  -2.7600012  77.4260012 137.6114997  -2.5240012
  76.0570012 136.9834997  -2.3710012  76.5711580 137.6153727  -2.6750994
  94.5080012 133.2654997  -0.8840012  94.8580012 132.6114997  -1.4890012
  94.6550012 134.1024997  -1.3230012  94.5758419 133.2891591  -1.0262882
  92.1970012 135.2304997 -14.4010012  92.3800012 134.7814997 -13.5750012
  91.5980012 134.6454997 -14.8640012  92.1410202 135.0899975 -14.3506725
  77.7270012 136.0454997  -9.8690012  78.1730012 135.2534997  -9.5670012
  78.1940012 136.7614997  -9.4380012  77.8510172 136.0340624  -9.7695180
  76.0310012 139.0444997  -8.8000012  76.5230012 138.8234997  -9.5910012
  76.3940012 139.8854997  -8.5190012  76.1473126 139.1278357  -8.8702469
  94.0280012 135.3744997  -2.5340012  93.1100012 135.6454997  -2.5700012
  94.1510012 134.8394997  -3.3190012  93.9191066 135.3392892  -2.6449513
  94.0640012 135.2974997 -17.8730012  94.4760012 134.5764997 -18.3480012
  94.7460012 135.9674997 -17.8140012  94.2125885 135.2892368 -17.9301085
  76.3450012 135.3024997 -14.7460012  75.4200012 135.5114997 -14.8750012
  76.7990012 135.7864997 -15.4350012  76.2797368 135.3965993 -14.8568774
  76.3090012 134.0404997  -6.4010012  75.6440012 133.7944997  -5.7580012
  75.8660012 134.6624997  -6.9790012  76.1580956 134.0908632  -6.3910648
  93.0280012 133.4644997  -4.7150012  92.2160012 133.7894997  -5.1030012
  93.2610012 132.7044997  -5.2480012  92.9483423 133.4062436  -4.8401747
  86.4580012 134.9134997 -10.3930012  85.7840012 134.2844997 -10.1370012
  87.0220012 134.4294997 -10.9960012  86.4419230 134.7618744 -10.4394660
  91.6010012 133.0214997 -10.2800012  92.2050012 133.5684997 -10.7820012
  90.7310012 133.3404997 -10.5200012  91.5661241 133.1395806 -10.3812346
  93.3280012 134.1594997 -11.9470012  93.9400012 133.6454997 -12.4730012
  93.7100012 135.0374997 -11.9230012  93.4634540 134.2077140 -12.0158170
  78.7850012 133.5474997 -12.5710012  78.0080012 133.3134997 -13.0780012
  79.3150012 132.7504997 -12.5620012  78.7502330 133.4076988 -12.6392258
  77.6210012 133.3454997 -16.7670012  78.0600012 133.9564997 -17.3590012
  76.9880012 133.8834997 -16.2930012  77.5954514 133.5019257 -16.7839070
  83.3640012 133.4744997 -12.7570012  84.2390012 133.8624997 -12.7870012
  83.2280012 133.2594997 -11.8350012  83.4653695 133.4985184 -12.6363560
  88.9210012 133.5044997 -11.1080012  88.9970012 133.5994997 -12.0580012
  88.6460012 132.5964997 -10.9790012  88.8942321 133.3947867 -11.2204921
  90.2740012 133.5304997 -15.4160012  89.5720012 134.1454997 -15.6250012
  89.8300012 132.6924997 -15.2850012  90.1176330 133.5015783 -15.4269672
  79.4820012 135.2614997 -18.3250012  79.9740012 134.6314997 -18.8520012
  80.1060012 135.5574997 -17.6610012  79.6335446 135.2153199 -18.3074020
  84.5080012 135.5544997 -15.8680012  84.6860012 134.9084997 -15.1850012
  84.4550012 136.3884997 -15.4000012  84.5251829 135.5787985 -15.7114060
  78.7430012 134.0614997  -3.0530012  78.3770012 133.2964997  -2.6100012
  79.6560012 134.0904997  -2.7660012  78.8162790 133.9607224  -2.9535930
  80.7160012 133.4124997  -1.5170012  81.6140012 133.1384997  -1.7020012
  80.3290012 132.6694997  -1.0530012  80.7866612 133.2745914  -1.4796357
  89.1370012 132.7444997  -1.3350012  89.2140012 132.3184997  -0.4810012
  90.0310012 132.7584997  -1.6780012  89.2683428 132.6880880  -1.2644690
 106.7190012 142.7034997 -12.6120012 106.8080012 143.6474997 -12.7440012
 106.0810012 142.4284997 -13.2700012 106.6449081 142.7954830 -12.7190386
 105.6520012 141.9584997  -9.1930012 105.6140012 141.3124997  -8.4880012
 105.3300012 141.4924997  -9.9640012 105.6032333 141.8069408  -9.2007022
  98.0210012 141.5734997  -7.6000012  98.0620012 140.9474997  -6.8770012
  98.7240012 142.1974997  -7.4180012  98.1216363 141.5721196  -7.4763956
 109.3580012 144.8974997 -10.8920012 108.9180012 144.1774997 -10.4410012
 109.3450012 145.6184997 -10.2620012 109.2960226 144.8963731 -10.7451506
  95.5540012 139.6834997 -13.6720012  95.1070012 140.5294997 -13.6910012
  94.9930012 139.1034997 -14.1880012  95.4169900 139.7209916 -13.7443199
  96.2650012 141.8454997 -11.5460012  96.4780012 141.0754997 -11.0190012
  97.0030012 141.9344997 -12.1500012  96.3938496 141.7521394 -11.5554700
 104.0420012 144.3914997  -8.7870012 104.3460012 143.7054997  -9.3820012
 104.7630012 144.5094997  -8.1690012 104.1810671 144.3136305  -8.7848184
 112.7050012 135.9924997  -7.9260012 112.7540012 136.6024997  -7.1900012
 113.1300012 136.4534997  -8.6490012 112.7691824 136.1383741  -7.9229795
 107.1830012 138.7854997  -8.4590012 107.3250012 137.8394997  -8.4390012
 107.0760012 138.9924997  -9.3880012 107.1879863 138.6839534  -8.5817661
 100.3370012 136.8864997 -11.1870012 100.3810012 137.7464997 -11.6050012
  99.8800012 136.3344997 -11.8210012 100.2812185 136.9295799 -11.3299701
 108.0600012 137.0174997 -12.7860012 108.7060012 136.6884997 -12.1610012
 108.5700012 137.5354997 -13.4090012 108.2174264 137.0424611 -12.7846138
  96.9580012 139.2834997 -10.4250012  97.6110012 138.7334997  -9.9930012
  96.9820012 139.0094997 -11.3420012  97.0506683 139.1711466 -10.4897877
 102.1140012 140.8334997 -11.2100012 102.7300012 140.3074997 -10.7000012
 101.5280012 140.1934997 -11.6130012 102.1190810 140.6749208 -11.1946827
 113.0960012 137.4704997  -5.6900012 112.4080012 138.1284997  -5.7860012
 113.1120012 137.2734997  -4.7540012 113.0038525 137.5340462  -5.5765192
  99.1480012 135.8044997  -7.1130012  98.9290012 136.3344997  -7.8790012
  98.4800012 136.0314997  -6.4660012  99.0277600 135.9076906  -7.1303621
 101.7170012 143.4804997  -6.8260012 100.9770012 144.0784997  -6.7220012
 102.4310012 144.0344997  -7.1410012 101.7122237 143.6372831  -6.8543535
 109.8240012 136.3084997 -10.8060012 109.6080012 135.5424997 -10.2730012
 110.4790012 136.7804997 -10.2930012 109.8830632 136.2675889 -10.6637139
  98.7410012 137.6964997  -9.1610012  99.3550012 138.3294997  -8.7870012
  99.2530012 137.2244997  -9.8170012  98.8942296 137.7192370  -9.1985748
 110.1710012 135.0234997  -7.1260012 109.4350012 135.6344997  -7.1640012
 110.8540012 135.4384997  -7.6530012 110.1626541 135.1631374  -7.2024168
 103.1740012 133.1104997  -9.6600012 103.0570012 132.1614997  -9.7150012
 102.3190012 133.4424997  -9.3870012 103.0423733 133.0255409  -9.6306103
 110.9680012 144.9854997  -4.9320012 111.1080012 144.3944997  -5.6720012
 111.1350012 145.8584997  -5.2890012 111.0096778 145.0226426  -5.0813035
 105.4410012 141.9474997 -15.1600012 104.7290012 142.4824997 -15.5120012
 106.1320012 142.0034997 -15.8200012 105.4370132 142.0282543 -15.2973711
 105.4940012 140.4054997 -18.1210012 106.1950012 140.4274997 -17.4700012
 105.7970012 139.7774997 -18.7770012 105.6307830 140.3236566 -18.1206289
 112.8100012 141.3254997  -6.8660012 112.1570012 142.0204997  -6.7770012
 113.2750012 141.5354997  -7.6760012 112.7835390 141.4489425  -6.9633117
 108.8460012 142.1574997 -14.2080012 108.1140012 142.3854997 -13.6350012
 109.2940012 141.4434997 -13.7530012 108.8063095 142.0922571 -14.0680881
 108.7440012 140.3314997  -5.1410012 108.8240012 141.0944997  -4.5690012
 108.1420012 140.6104997  -5.8310012 108.6735756 140.4737134  -5.1559411
 100.4920012 142.7874997 -12.3260012 100.1610012 142.4174997 -13.1440012
 101.0800012 142.1174997 -11.9790012 100.5261873 142.6461156 -12.3911898
 100.8580012 141.5564997  -8.6920012 101.4240012 141.6774997  -9.4550012
 101.1770012 142.1934997  -8.0530012 100.9785786 141.6591884  -8.7099960
 107.7170012 141.3194997 -16.5230012 108.2970012 141.4694997 -15.7760012
 108.1310012 141.7904997 -17.2460012 107.8522830 141.4036841 -16.5185866
  98.6580012 142.1534997  -4.7460012  98.7290012 142.8044997  -4.0480012
  97.7680012 142.2564997  -5.0810012  98.5473117 142.2565936  -4.6957300
 111.4160012 133.0694997 -16.7100012 110.5160012 133.2084997 -16.4150012
 111.6680012 133.9004997 -17.1120012 111.3268702 133.2009074 -16.7239795
  99.4820012 141.8574997 -14.7360012  99.1900012 142.6254997 -15.2270012
  98.8080012 141.1974997 -14.8990012  99.3509081 141.8734406 -14.8252660
  95.5750012 144.2204997  -5.9210012  95.0740012 144.1924997  -6.7360012
  95.5800012 143.3144997  -5.6120012  95.5071526 144.0942278  -5.9907128
 110.6750012 139.1594997  -2.8750012 110.2680012 139.6404997  -3.5960012
 110.7160012 138.2544997  -3.1830012 110.6248437 139.1029374  -3.0153317
 100.4430012 134.0134997  -8.8830012  99.5810012 133.9264997  -9.2900012
 100.4200012 134.8694997  -8.4550012 100.3220330 134.1172765  -8.8808137
 105.1060012 133.7354997  -5.5080012 105.5260012 133.3204997  -4.7550012
 104.1730012 133.5574997  -5.3910012 105.0373644 133.6545900  -5.3890461
 108.4320012 137.4914997  -4.6550012 107.9180012 137.3654997  -3.8570012
 108.2770012 138.4034997  -4.8990012 108.3406852 137.5976132  -4.5787842
 109.1950012 142.3524997 -18.8930012 109.2370012 142.1294997 -19.8230012
 110.0440012 142.7514997 -18.7030012 109.3155396 142.3759155 -18.9946373
 104.7670012 136.2284997 -18.2230012 104.5140012 136.2474997 -17.3000012
 104.5110012 135.3564997 -18.5240012 104.6977790 136.1132437 -18.1373737
 100.5340012 138.9794997  -7.7880012  99.8920012 138.9384997  -7.0790012
 100.5710012 139.9054997  -8.0250012 100.4511324 139.0991559  -7.7230176
 100.5310012 139.2004997 -12.8760012  99.6380012 138.8594997 -12.9340012
 100.9810012 138.8234997 -13.6310012 100.4697305 139.1028484 -12.9860823
 106.0660012 139.6164997 -14.0590012 105.6570012 140.4314997 -14.3500012
 106.7870012 139.4764997 -14.6730012 106.1074537 139.7092018 -14.1818658
 105.1680012 139.7914997  -2.5710012 104.6060012 139.0874997  -2.2500012
 105.9950012 139.6714997  -2.1030012 105.2027095 139.6787883  -2.4637670
 107.0710012 139.0624997 -11.2450012 106.8760012 139.6674997 -11.9600012
 107.2520012 138.2284997 -11.6790012 107.0687614 139.0326300 -11.4015595
  98.2840012 139.2994997  -5.9210012  98.2460012 139.6994997  -5.0520012
  97.7930012 138.4824997  -5.8300012  98.2124684 139.2438069  -5.7898941
 101.6500012 136.6734997 -19.1220012 101.2190012 136.2284997 -18.3920012
 100.9320012 137.0454997 -19.6340012 101.4939438 136.6628940 -19.0913201
  94.8920012 136.4154997 -12.0700012  95.5230012 136.3864997 -11.3510012
  95.3410012 135.9904997 -12.8000012  95.0390774 136.3540492 -12.0703447
  96.1660012 137.1614997 -16.6460012  96.6400012 137.7524997 -17.2310012
  95.4490012 137.6924997 -16.2990012  96.1339341 137.3140867 -16.6791164
 106.3350012 140.7004997  -6.5730012 106.6580012 140.0694997  -7.2160012
 105.8950012 140.1654997  -5.9130012 106.3196895 140.5418441  -6.5717150
 103.1120012 136.6274997 -11.7890012 102.2010012 136.6844997 -11.5010012
 103.6180012 136.5674997 -10.9790012 103.0555413 136.6271985 -11.6399378
  97.9410012 138.2564997 -12.9630012  97.0510012 138.3564997 -13.3030012
  98.2370012 137.4144997 -13.3090012  97.8592823 138.1563545 -13.0562787
 101.5940012 138.2564997 -15.3060012 102.5250012 138.3854997 -15.1280012
 101.3790012 138.9264997 -15.9560012 101.6924247 138.3646565 -15.3694253
 107.5170012 135.8624997  -8.5250012 106.8410012 135.9934997  -7.8610012
 107.0320012 135.7074997  -9.3350012 107.3587145 135.8594905  -8.5435483
 100.2680012 139.4514997 -17.7390012  99.7250012 139.0714997 -18.4310012
 101.1010012 139.6454997 -18.1680012 100.3064399 139.4258124 -17.8915474
  98.4030012 144.0084997  -2.6400012  99.1350012 144.2624997  -2.0790012
  97.6230012 144.2124997  -2.1250012  98.3978232 144.0709177  -2.4934240
 104.4320012 139.4154997  -9.9020012 104.9970012 138.8684997 -10.4490012
 104.2850012 138.8934997  -9.1140012 104.4892918 139.2702024  -9.8701546
  99.4340012 135.5514997 -13.4840012  99.1170012 134.6494997 -13.5190012
 100.2160012 135.5534997 -14.0370012  99.4962284 135.4281628 -13.5635217
 103.0590012 137.8034997  -7.4880012 102.2230012 138.2574997  -7.3780012
 103.5830012 138.0794997  -6.7360012 103.0154414 137.9029376  -7.3712864
 103.6030012 144.0164997 -15.8040012 102.8580012 143.5094997 -16.1260012
 103.4690012 144.0654997 -14.8570012 103.4828776 143.9536940 -15.7201353
 110.7530012 143.1494997  -7.0170012 111.3950012 143.6064997  -7.5610012
 109.9230012 143.2624997  -7.4800012 110.7285963 143.2272704  -7.1539823
 107.5010012 136.8304997 -17.6040012 106.5620012 136.9424997 -17.7560012
 107.7980012 137.6874997 -17.2980012 107.4127666 136.9616443 -17.5834232
 105.1220012 144.2004997  -4.5670012 104.7770012 143.8194997  -3.7600012
 104.9220012 145.1344997  -4.4950012 105.0478061 144.2745228  -4.4469039
 108.2190012 138.6974997 -15.9440012 109.1110012 138.5604997 -15.6250012
 108.2760012 139.4884997 -16.4800012 108.3486285 138.7856660 -15.9728309
  98.7280012 143.3114997 -10.0340012  99.4730012 143.3094997 -10.6350012
  98.8060012 142.4884997  -9.5520012  98.8405518 143.1999315 -10.0511071
  95.7360012 141.7724997  -4.7190012  95.9590012 141.3544997  -3.8870012
  95.1340012 141.1594997  -5.1420012  95.6851759 141.6324668  -4.6622978
 102.7520012 141.2894997  -2.5060012 102.4560012 141.1234997  -3.4010012
 103.6840012 141.0694997  -2.5170012 102.8374166 141.2370640  -2.6299464
 113.1040012 138.9074997 -16.2490012 112.5500012 138.5114997 -16.9210012
 113.2040012 139.8174997 -16.5270012 113.0417059 138.9763586 -16.3785599
 113.0670012 144.7074997  -3.4120012 112.2160012 144.9454997  -3.7790012
 113.6580012 144.6904997  -4.1650012 113.0302487 144.7378258  -3.5641107
 108.5600012 142.5014997  -8.7630012 107.6310012 142.2694997  -8.7900012
 109.0110012 141.7244997  -9.0930012 108.4939216 142.3647238  -8.8113083
  96.8580012 141.6914997 -18.0430012  97.4740012 142.3184997 -17.6630012
  95.9960012 142.0074997 -17.7710012  96.8257698 141.8199430 -17.9542817
 102.5300012 144.4924997 -13.0530012 102.2890012 145.4174997 -13.0120012
 101.7890012 144.0334997 -12.6570012 102.3968409 144.5571421 -12.9938623
 106.5890012 144.7404997  -7.0380012 106.1630012 144.5134997  -6.2110012
 107.1690012 144.0024997  -7.2200012 106.6091868 144.6095299  -6.9494170
  97.3700012 136.5254997  -5.1610012  96.4770012 136.8644997  -5.2290012
  97.2710012 135.6704997  -4.7430012  97.2344164 136.4562588  -5.1137765
 109.6580012 144.3424997 -15.7370012 109.3800012 143.6144997 -15.1810012
 110.5850012 144.4614997 -15.5320012 109.7453124 144.2588802 -15.6331155
  98.2730012 143.6044997 -16.5500012  97.5870012 143.9564997 -15.9830012
  98.7950012 144.3674997 -16.7970012  98.2496852 143.7558578 -16.5057882
 106.1040012 136.2664997  -6.2710012 106.8030012 136.3404997  -5.6210012
 105.7230012 135.4024997  -6.1170012 106.1481767 136.1597624  -6.1611678
 106.8890012 135.9184997 -15.1740012 107.1090012 136.3904997 -15.9770012
 107.4470012 136.3134997 -14.5040012 106.9944968 136.0364285 -15.1932669
 104.0890012 137.6464997 -14.3390012 104.9010012 138.1514997 -14.2930012
 103.8440012 137.5014997 -13.4250012 104.1670520 137.6960375 -14.2091483
 104.6240012 138.6324997  -5.1540012 104.7430012 139.2064997  -4.3970012
 105.2800012 137.9444997  -5.0400012 104.7289757 138.6181079  -5.0349175
 104.9720012 134.7274997 -13.4010012 104.6260012 135.3454997 -12.7560012
 105.6310012 135.2284997 -13.8820012 105.0137826 134.8795802 -13.3779029
 100.6300012 135.7904997 -16.7140012 100.5470012 136.6794997 -16.3670012
 101.5200012 135.5254997 -16.4820012 100.7389469 135.8761430 -16.6352374
 110.8290012 136.5394997  -4.3190012 109.9120012 136.8024997  -4.4070012
 111.1640012 136.5364997  -5.2160012 110.7489900 136.5750224  -4.4522081
 109.4310012 140.2904997 -10.2240012 108.6330012 139.8754997 -10.5520012
 109.8760012 139.5994997  -9.7330012 109.3819885 140.1403543 -10.2025111
  97.2050012 138.8824997 -18.5370012  97.1600012 139.8214997 -18.3590012
  96.3170012 138.6464997 -18.8070012  97.0788574 138.9791892 -18.5491088
  98.0130012 133.6644997  -9.8640012  97.7840012 133.7234997 -10.7920012
  97.5700012 132.8724997  -9.5580012  97.9218530 133.5655753  -9.9495214
  96.1380012 144.0274997  -1.4190012  96.2820012 143.1254997  -1.7060012
  95.3660012 144.3134997  -1.9070012  96.0533322 143.9428261  -1.5242119
 100.4800012 144.3714997 -19.2870012 100.5440012 143.5774997 -18.7560012
 101.1330012 144.2524997 -19.9770012 100.5770241 144.2467148 -19.3075683
 102.7940012 143.9974997  -1.9870012 102.4650012 144.2684997  -2.8440012
 102.9460012 143.0564997  -2.0740012 102.7694809 143.9073862  -2.1161756
 108.5280012 143.9134997  -4.6030012 109.2740012 144.5014997  -4.7230012
 107.7710012 144.4954997  -4.5400012 108.5277554 144.0727011  -4.6109093
  96.9710012 141.2274997  -1.9990012  97.3790012 140.3704997  -2.1200012
  96.7110012 141.2424997  -1.0780012  96.9917568 141.1120807  -1.8910412
 101.6290012 142.3434997 -16.9810012 101.1690012 141.8594997 -16.2950012
 101.8840012 141.6754997 -17.6170012 101.6004902 142.1868731 -16.9730666
 100.9180012 140.2364997  -4.6250012 100.3000012 140.9114997  -4.3450012
 101.2620012 140.5574997  -5.4580012 100.8799615 140.3722721  -4.6993419
 102.7000012 140.5864997 -18.7190012 102.5200012 140.4324997 -19.6460012
 103.6500012 140.6944997 -18.6740012 102.8037776 140.5800175 -18.8398157
 105.9380012 142.7084997  -1.3480012 106.8910012 142.7914997  -1.3750012
 105.7770012 141.9964997  -0.7280012 106.0466426 142.6236746  -1.2679421
 112.0900012 142.9414997 -19.2730012 111.8160012 142.5164997 -20.0860012
 112.1290012 143.8724997 -19.4900012 112.0577699 143.0092484 -19.4136390
 101.2570012 137.5914997  -3.5430012 101.4070012 136.8624997  -4.1450012
 101.2600012 138.3684997  -4.1020012 101.2779302 137.5967851  -3.7009308
 101.6700012 135.9614997  -6.0500012 102.2060012 136.4124997  -6.7020012
 100.8180012 135.8534997  -6.4730012 101.6282178 136.0086390  -6.1964244
 103.2520012 141.4004997  -5.8110012 104.0020012 141.2444997  -6.3840012
 102.9130012 142.2524997  -6.0860012 103.3088921 141.4942968  -5.9266439
 107.6670012 139.2154997  -0.7820012 107.8600012 138.2844997  -0.8940012
 108.5250012 139.6404997  -0.7920012 107.8093020 139.1456389  -0.7986639
 108.9840012 142.0044997  -2.7050012 108.7030012 142.7134997  -3.2820012
 109.9270012 141.9314997  -2.8560012 109.0729027 142.0917646  -2.8044449
  99.7360012 138.7894997  -1.6310012  98.9690012 138.2574997  -1.8410012
 100.4150012 138.4794997  -2.2310012  99.7227022 138.6747506  -1.7408352
 102.4760012 133.4174997  -5.6190012 102.3770012 134.3644997  -5.7240012
 101.7330012 133.0454997  -6.0940012 102.3620564 133.4965902  -5.6975440
 103.7400012 137.7394997  -2.0550012 103.5040012 137.5194997  -1.1530012
 102.9560012 137.5324997  -2.5650012 103.6018628 137.6814760  -2.0006068
 106.4550012 136.8664997  -2.9790012 105.5080012 136.8984997  -2.8470012
 106.7680012 136.2414997  -2.3260012 106.3675475 136.7863207  -2.8725545
 108.0890012 135.5004997  -0.9740012 107.9930012 134.5484997  -0.9800012
 107.7680012 135.7694997  -0.1140012 108.0324070 135.4064035  -0.8584559
  97.9160012 136.7104997  -1.9270012  98.1280012 136.0034997  -2.5370012
  97.8050012 136.2724997  -1.0830012  97.9299721 136.5547084  -1.8963157
 102.6970012 132.7114997  -2.9470012 103.4090012 132.0714997  -2.9610012
 102.5960012 132.9784997  -3.8610012 102.7807939 132.6599938  -3.0724350
 103.0510012 134.3944997  -0.8940012 102.9190012 133.9184997  -1.7140012
 102.4520012 135.1384997  -0.9490012 102.9519071 134.4299618  -1.0137114
 112.5480012 143.8104997 -15.2980012 113.3980012 144.2314997 -15.1710012
 112.5540012 143.0704997 -14.6910012 112.6651372 143.7680803 -15.1985656
 112.9430012 141.8634997 -13.4740012 112.2160012 141.3844997 -13.0770012
 113.5240012 142.0694997 -12.7420012 112.9219375 141.8257090 -13.3205871
 112.7020012 144.6484997  -8.5270012 113.5350012 144.2704997  -8.8070012
 112.8140012 145.5914997  -8.6460012 112.8312647 144.7242218  -8.5814513
 113.2110012 141.7644997 -17.0830012 112.6890012 142.1214997 -17.8020012
 113.1780012 142.4394997 -16.4050012 113.1351634 141.9045413 -17.0896855
 111.5600012 139.0044997 -18.5320012 111.6560012 139.6714997 -19.2130012
 111.4200012 138.1884997 -19.0140012 111.5542135 138.9854500 -18.6901509
 110.7290012 140.3844997 -12.9110012 110.5790012 139.4394997 -12.9320012
 110.3760012 140.6654997 -12.0680012 110.6606625 140.2930441 -12.7997654
  95.7650012 142.4624997  -8.9010012  95.9490012 142.3804997  -9.8370012
  96.6140012 142.3384997  -8.4770012  95.9050139 142.4345003  -8.9718545
 111.5860012 142.3544997  -3.2730012 112.1690012 141.6204997  -3.0810012
 112.1500012 143.1264997  -3.2260012 111.7419769 142.3584227  -3.2403841
 113.0820012 140.2574997  -2.5880012 112.2190012 139.8784997  -2.7540012
 113.6870012 139.5184997  -2.6620012 113.0455979 140.1058023  -2.6207183
 110.8070012 136.4124997 -19.4150012 111.4180012 136.0414997 -18.7780012
 109.9710012 135.9914997 -19.2190012 110.7775032 136.3047554 -19.3012965
 110.4400012 137.9674997 -14.4490012 110.7200012 137.0604997 -14.3250012
 111.1990012 138.4014997 -14.8380012 110.5809277 137.9020942 -14.4846318
 111.0520012 138.5484997  -9.0130012 111.9850012 138.7604997  -9.0470012
 110.8170012 138.6504997  -8.0910012 111.1478036 138.5912769  -8.8930024
 111.0810012 139.2854997  -6.2370012 110.2380012 139.5534997  -5.8710012
 111.5230012 140.1074997  -6.4480012 111.0254158 139.4333291  -6.2154509
  95.3620012 137.7334997  -2.7600012  96.2820012 137.6114997  -2.5240012
  94.9130012 136.9834997  -2.3710012  95.4271580 137.6153727  -2.6750994
 113.3640012 133.2654997  -0.8840012 113.7140012 132.6114997  -1.4890012
 113.5110012 134.1024997  -1.3230012 113.4318419 133.2891591  -1.0262882
 111.0530012 135.2304997 -14.4010012 111.2360012 134.7814997 -13.5750012
 110.4540012 134.6454997 -14.8640012 110.9970202 135.0899975 -14.3506725
  96.5830012 136.0454997  -9.8690012  97.0290012 135.2534997  -9.5670012
  97.0500012 136.7614997  -9.4380012  96.7070172 136.0340624  -9.7695180
  94.8870012 139.0444997  -8.8000012  95.3790012 138.8234997  -9.5910012
  95.2500012 139.8854997  -8.5190012  95.0033126 139.1278357  -8.8702469
 112.8840012 135.3744997  -2.5340012 111.9660012 135.6454997  -2.5700012
 113.0070012 134.8394997  -3.3190012 112.7751066 135.3392892  -2.6449513
 112.9200012 135.2974997 -17.8730012 113.3320012 134.5764997 -18.3480012
 113.6020012 135.9674997 -17.8140012 113.0685885 135.2892368 -17.9301085
  95.2010012 135.3024997 -14.7460012  94.2760012 135.5114997 -14.8750012
  95.6550012 135.7864997 -15.4350012  95.1357368 135.3965993 -14.8568774
  95.1650012 134.0404997  -6.4010012  94.5000012 133.7944997  -5.7580012
  94.7220012 134.6624997  -6.9790012  95.0140956 134.0908632  -6.3910648
 111.8840012 133.4644997  -4.7150012 111.0720012 133.7894997  -5.1030012
 112.1170012 132.7044997  -5.2480012 111.8043423 133.4062436  -4.8401747
 105.3140012 134.9134997 -10.3930012 104.6400012 134.2844997 -10.1370012
 105.8780012 134.4294997 -10.9960012 105.2979230 134.7618744 -10.4394660
 110.4570012 133.0214997 -10.2800012 111.0610012 133.5684997 -10.7820012
 109.5870012 133.3404997 -10.5200012 110.4221241 133.1395806 -10.3812346
 112.1840012 134.1594997 -11.9470012 112.7960012 133.6454997 -12.4730012
 112.5660012 135.0374997 -11.9230012 112.3194540 134.2077140 -12.0158170
  97.6410012 133.5474997 -12.5710012  96.8640012 133.3134997 -13.0780012
  98.1710012 132.7504997 -12.5620012  97.6062330 133.4076988 -12.6392258
  96.4770012 133.3454997 -16.7670012  96.9160012 133.9564997 -17.3590012
  95.8440012 133.8834997 -16.2930012  96.4514514 133.5019257 -16.7839070
 102.2200012 133.4744997 -12.7570012 103.0950012 133.8624997 -12.7870012
 102.0840012 133.2594997 -11.8350012 102.3213695 133.4985184 -12.6363560
 107.7770012 133.5044997 -11.1080012 107.8530012 133.5994997 -12.0580012
 107.5020012 132.5964997 -10.9790012 107.7502321 133.3947867 -11.2204921
 109.1300012 133.5304997 -15.4160012 108.4280012 134.1454997 -15.6250012
 108.6860012 132.6924997 -15.2850012 108.9736330 133.5015783 -15.4269672
  98.3380012 135.2614997 -18.3250012  98.8300012 134.6314997 -18.8520012
  98.9620012 135.5574997 -17.6610012  98.4895446 135.2153199 -18.3074020
 103.3640012 135.5544997 -15.8680012 103.5420012 134.9084997 -15.1850012
 103.3110012 136.3884997 -15.4000012 103.3811829 135.5787985 -15.7114060
  97.5990012 134.0614997  -3.0530012  97.2330012 133.2964997  -2.6100012
  98.5120012 134.0904997  -2.7660012  97.6722790 133.9607224  -2.9535930
  99.5720012 133.4124997  -1.5170012 100.4700012 133.1384997  -1.7020012
  99.1850012 132.6694997  -1.0530012  99.6426612 133.2745914  -1.4796357
 107.9930012 132.7444997  -1.3350012 108.0700012 132.3184997  -0.4810012
 108.8870012 132.7584997  -1.6780012 108.1243428 132.6880880  -1.2644690
 125.5750012 142.7034997 -12.6120012 125.6640012 143.6474997 -12.7440012
 124.9370012 142.4284997 -13.2700012 125.5009081 142.7954830 -12.7190386
 124.5080012 141.9584997  -9.1930012 124.4700012 141.3124997  -8.4880012
 124.1860012 141.4924997  -9.9640012 124.4592333 141.8069408  -9.2007022
 116.8770012 141.5734997  -7.6000012 116.9180012 140.9474997  -6.8770012
 117.5800012 142.1974997  -7.4180012 116.9776363 141.5721196  -7.4763956
 128.2140012 144.8974997 -10.8920012 127.7740012 144.1774997 -10.4410012
 128.2010012 145.6184997 -10.2620012 128.1520226 144.8963731 -10.7451506
 114.4100012 139.6834997 -13.6720012 113.9630012 140.5294997 -13.6910012
 113.8490012 139.1034997 -14.1880012 114.2729900 139.7209916 -13.7443199
 115.1210012 141.8454997 -11.5460012 115.3340012 141.0754997 -11.0190012
 115.8590012 141.9344997 -12.1500012 115.2498496 141.7521394 -11.5554700
 122.8980012 144.3914997  -8.7870012 123.2020012 143.7054997  -9.3820012
 123.6190012 144.5094997  -8.1690012 123.0370671 144.3136305  -8.7848184
 131.5610012 135.9924997  -7.9260012 131.6100012 136.6024997  -7.1900012
 131.9860012 136.4534997  -8.6490012 131.6251824 136.1383741  -7.9229795
 126.0390012 138.7854997  -8.4590012 126.1810012 137.8394997  -8.4390012
 125.9320012 138.9924997  -9.3880012 126.0439863 138.6839534  -8.5817661
 119.1930012 136.8864997 -11.1870012 119.2370012 137.7464997 -11.6050012
 118.7360012 136.3344997 -11.8210012 119.1372185 136.9295799 -11.3299701
 126.9160012 137.0174997 -12.7860012 127.5620012 136.6884997 -12.1610012
 127.4260012 137.5354997 -13.4090012 127.0734264 137.0424611 -12.7846138
 115.8140012 139.2834997 -10.4250012 116.4670012 138.7334997  -9.9930012
 115.8380012 139.0094997 -11.3420012 115.9066683 139.1711466 -10.4897877
 120.9700012 140.8334997 -11.2100012 121.5860012 140.3074997 -10.7000012
 120.3840012 140.1934997 -11.6130012 120.9750810 140.6749208 -11.1946827
 131.9520012 137.4704997  -5.6900012 131.2640012 138.1284997  -5.7860012
 131.9680012 137.2734997  -4.7540012 131.8598525 137.5340462  -5.5765192
 118.0040012 135.8044997  -7.1130012 117.7850012 136.3344997  -7.8790012
 117.3360012 136.0314997  -6.4660012 117.8837600 135.9076906  -7.1303621
 120.5730012 143.4804997  -6.8260012 119.8330012 144.0784997  -6.7220012
 121.2870012 144.0344997  -7.1410012 120.5682237 143.6372831  -6.8543535
 128.6800012 136.3084997 -10.8060012 128.4640012 135.5424997 -10.2730012
 129.3350012 136.7804997 -10.2930012 128.7390632 136.2675889 -10.6637139
 117.5970012 137.6964997  -9.1610012 118.2110012 138.3294997  -8.7870012
 118.1090012 137.2244997  -9.8170012 117.7502296 137.7192370  -9.1985748
 129.0270012 135.0234997  -7.1260012 128.2910012 135.6344997  -7.1640012
 129.7100012 135.4384997  -7.6530012 129.0186541 135.1631374  -7.2024168
 122.0300012 133.1104997  -9.6600012 121.9130012 132.1614997  -9.7150012
 121.1750012 133.4424997  -9.3870012 121.8983733 133.0255409  -9.6306103
 129.8240012 144.9854997  -4.9320012 129.9640012 144.3944997  -5.6720012
 129.9910012 145.8584997  -5.2890012 129.8656778 145.0226426  -5.0813035
 124.2970012 141.9474997 -15.1600012 123.5850012 142.4824997 -15.5120012
 124.9880012 142.0034997 -15.8200012 124.2930132 142.0282543 -15.2973711
 124.3500012 140.4054997 -18.1210012 125.0510012 140.4274997 -17.4700012
 124.6530012 139.7774997 -18.7770012 124.4867830 140.3236566 -18.1206289
 131.6660012 141.3254997  -6.8660012 131.0130012 142.0204997  -6.7770012
 132.1310012 141.5354997  -7.6760012 131.6395390 141.4489425  -6.9633117
 127.7020012 142.1574997 -14.2080012 126.9700012 142.3854997 -13.6350012
 128.1500012 141.4434997 -13.7530012 127.6623095 142.0922571 -14.0680881
 127.6000012 140.3314997  -5.1410012 127.6800012 141.0944997  -4.5690012
 126.9980012 140.6104997  -5.8310012 127.5295756 140.4737134  -5.1559411
 119.3480012 142.7874997 -12.3260012 119.0170012 142.4174997 -13.1440012
 119.9360012 142.1174997 -11.9790012 119.3821873 142.6461156 -12.3911898
 119.7140012 141.5564997  -8.6920012 120.2800012 141.6774997  -9.4550012
 120.0330012 142.1934997  -8.0530012 119.8345786 141.6591884  -8.7099960
 126.5730012 141.3194997 -16.5230012 127.1530012 141.4694997 -15.7760012
 126.9870012 141.7904997 -17.2460012 126.7082830 141.4036841 -16.5185866
 117.5140012 142.1534997  -4.7460012 117.5850012 142.8044997  -4.0480012
 116.6240012 142.2564997  -5.0810012 117.4033117 142.2565936  -4.6957300
 130.2720012 133.0694997 -16.7100012 129.3720012 133.2084997 -16.4150012
 130.5240012 133.9004997 -17.1120012 130.1828702 133.2009074 -16.7239795
 118.3380012 141.8574997 -14.7360012 118.0460012 142.6254997 -15.2270012
 117.6640012 141.1974997 -14.8990012 118.2069081 141.8734406 -14.8252660
 114.4310012 144.2204997  -5.9210012 113.9300012 144.1924997  -6.7360012
 114.4360012 143.3144997  -5.6120012 114.3631526 144.0942278  -5.9907128
 129.5310012 139.1594997  -2.8750012 129.1240012 139.6404997  -3.5960012
 129.5720012 138.2544997  -3.1830012 129.4808437 139.1029374  -3.0153317
 119.2990012 134.0134997  -8.8830012 118.4370012 133.9264997  -9.2900012
 119.2760012 134.8694997  -8.4550012 119.1780330 134.1172765  -8.8808137
 123.9620012 133.7354997  -5.5080012 124.3820012 133.3204997  -4.7550012
 123.0290012 133.5574997  -5.3910012 123.8933644 133.6545900  -5.3890461
 127.2880012 137.4914997  -4.6550012 126.7740012 137.3654997  -3.8570012
 127.1330012 138.4034997  -4.8990012 127.1966852 137.5976132  -4.5787842
 128.0510012 142.3524997 -18.8930012 128.0930012 142.1294997 -19.8230012
 128.9000012 142.7514997 -18.7030012 128.1715396 142.3759155 -18.9946373
 123.6230012 136.2284997 -18.2230012 123.3700012 136.2474997 -17.3000012
 123.3670012 135.3564997 -18.5240012 123.5537790 136.1132437 -18.1373737
 119.3900012 138.9794997  -7.7880012 118.7480012 138.9384997  -7.0790012
 119.4270012 139.9054997  -8.0250012 119.3071324 139.0991559  -7.7230176
 119.3870012 139.2004997 -12.8760012 118.4940012 138.8594997 -12.9340012
 119.8370012 138.8234997 -13.6310012 119.3257305 139.1028484 -12.9860823
 124.9220012 139.6164997 -14.0590012 124.5130012 140.4314997 -14.3500012
 125.6430012 139.4764997 -14.6730012 124.9634537 139.7092018 -14.1818658
 124.0240012 139.7914997  -2.5710012 123.4620012 139.0874997  -2.2500012
 124.8510012 139.6714997  -2.1030012 124.0587095 139.6787883  -2.4637670
 125.9270012 139.0624997 -11.2450012 125.7320012 139.6674997 -11.9600012
 126.1080012 138.2284997 -11.6790012 125.9247614 139.0326300 -11.4015595
 117.1400012 139.2994997  -5.9210012 117.1020012 139.6994997  -5.0520012
 116.6490012 138.4824997  -5.8300012 117.0684684 139.2438069  -5.7898941
 120.5060012 136.6734997 -19.1220012 120.0750012 136.2284997 -18.3920012
 119.7880012 137.0454997 -19.6340012 120.3499438 136.6628940 -19.0913201
 113.7480012 136.4154997 -12.0700012 114.3790012 136.3864997 -11.3510012
 114.1970012 135.9904997 -12.8000012 113.8950774 136.3540492 -12.0703447
 115.0220012 137.1614997 -16.6460012 115.4960012 137.7524997 -17.2310012
 114.3050012 137.6924997 -16.2990012 114.9899341 137.3140867 -16.6791164
 125.1910012 140.7004997  -6.5730012 125.5140012 140.0694997  -7.2160012
 124.7510012 140.1654997  -5.9130012 125.1756895 140.5418441  -6.5717150
 121.9680012 136.6274997 -11.7890012 121.0570012 136.6844997 -11.5010012
 122.4740012 136.5674997 -10.9790012 121.9115413 136.6271985 -11.6399378
 116.7970012 138.2564997 -12.9630012 115.9070012 138.3564997 -13.3030012
 117.0930012 137.4144997 -13.3090012 116.7152823 138.1563545 -13.0562787
 120.4500012 138.2564997 -15.3060012 121.3810012 138.3854997 -15.1280012
 120.2350012 138.9264997 -15.9560012 120.5484247 138.3646565 -15.3694253
 126.3730012 135.8624997  -8.5250012 125.6970012 135.9934997  -7.8610012
 125.8880012 135.7074997  -9.3350012 126.2147145 135.8594905  -8.5435483
 119.1240012 139.4514997 -17.7390012 118.5810012 139.0714997 -18.4310012
 119.9570012 139.6454997 -18.1680012 119.1624399 139.4258124 -17.8915474
 117.2590012 144.0084997  -2.6400012 117.9910012 144.2624997  -2.0790012
 116.4790012 144.2124997  -2.1250012 117.2538232 144.0709177  -2.4934240
 123.2880012 139.4154997  -9.9020012 123.8530012 138.8684997 -10.4490012
 123.1410012 138.8934997  -9.1140012 123.3452918 139.2702024  -9.8701546
 118.2900012 135.5514997 -13.4840012 117.9730012 134.6494997 -13.5190012
 119.0720012 135.5534997 -14.0370012 118.3522284 135.4281628 -13.5635217
 121.9150012 137.8034997  -7.4880012 121.0790012 138.2574997  -7.3780012
 122.4390012 138.0794997  -6.7360012 121.8714414 137.9029376  -7.3712864
 122.4590012 144.0164997 -15.8040012 121.7140012 143.5094997 -16.1260012
 122.3250012 144.0654997 -14.8570012 122.3388776 143.9536940 -15.7201353
 129.6090012 143.1494997  -7.0170012 130.2510012 143.6064997  -7.5610012
 128.7790012 143.2624997  -7.4800012 129.5845963 143.2272704  -7.1539823
 126.3570012 136.8304997 -17.6040012 125.4180012 136.9424997 -17.7560012
 126.6540012 137.6874997 -17.2980012 126.2687666 136.9616443 -17.5834232
 123.9780012 144.2004997  -4.5670012 123.6330012 143.8194997  -3.7600012
 123.7780012 145.1344997  -4.4950012 123.9038061 144.2745228  -4.4469039
 127.0750012 138.6974997 -15.9440012 127.9670012 138.5604997 -15.6250012
 127.1320012 139.4884997 -16.4800012 127.2046285 138.7856660 -15.9728310
 117.5840012 143.3114997 -10.0340012 118.3290012 143.3094997 -10.6350012
 117.6620012 142.4884997  -9.5520012 117.6965518 143.1999315 -10.0511071
 114.5920012 141.7724997  -4.7190012 114.8150012 141.3544997  -3.8870012
 113.9900012 141.1594997  -5.1420012 114.5411759 141.6324668  -4.6622978
 121.6080012 141.2894997  -2.5060012 121.3120012 141.1234997  -3.4010012
 122.5400012 141.0694997  -2.5170012 121.6934166 141.2370640  -2.6299464
 131.9600012 138.9074997 -16.2490012 131.4060012 138.5114997 -16.9210012
 132.0600012 139.8174997 -16.5270012 131.8977059 138.9763586 -16.3785599
 131.9230012 144.7074997  -3.4120012 131.0720012 144.9454997  -3.7790012
 132.5140012 144.6904997  -4.1650012 131.8862487 144.7378258  -3.5641107
 127.4160012 142.5014997  -8.7630012 126.4870012 142.2694997  -8.7900012
 127.8670012 141.7244997  -9.0930012 127.3499216 142.3647238  -8.8113083
 115.7140012 141.6914997 -18.0430012 116.3300012 142.3184997 -17.6630012
 114.8520012 142.0074997 -17.7710012 115.6817698 141.8199430 -17.9542817
 121.3860012 144.4924997 -13.0530012 121.1450012 145.4174997 -13.0120012
 120.6450012 144.0334997 -12.6570012 121.2528409 144.5571421 -12.9938623
 125.4450012 144.7404997  -7.0380012 125.0190012 144.5134997  -6.2110012
 126.0250012 144.0024997  -7.2200012 125.4651868 144.6095299  -6.9494170
 116.2260012 136.5254997  -5.1610012 115.3330012 136.8644997  -5.2290012
 116.1270012 135.6704997  -4.7430012 116.0904164 136.4562588  -5.1137765
 128.5140012 144.3424997 -15.7370012 128.2360012 143.6144997 -15.1810012
 129.4410012 144.4614997 -15.5320012 128.6013124 144.2588802 -15.6331155
 117.1290012 143.6044997 -16.5500012 116.4430012 143.9564997 -15.9830012
 117.6510012 144.3674997 -16.7970012 117.1056852 143.7558578 -16.5057882
 124.9600012 136.2664997  -6.2710012 125.6590012 136.3404997  -5.6210012
 124.5790012 135.4024997  -6.1170012 125.0041767 136.1597624  -6.1611678
 125.7450012 135.9184997 -15.1740012 125.9650012 136.3904997 -15.9770012
 126.3030012 136.3134997 -14.5040012 125.8504968 136.0364285 -15.1932669
 122.9450012 137.6464997 -14.3390012 123.7570012 138.1514997 -14.2930012
 122.7000012 137.5014997 -13.4250012 123.0230520 137.6960375 -14.2091483
 123.4800012 138.6324997  -5.1540012 123.5990012 139.2064997  -4.3970012
 124.1360012 137.9444997  -5.0400012 123.5849757 138.6181079  -5.0349175
 123.8280012 134.7274997 -13.4010012 123.4820012 135.3454997 -12.7560012
 124.4870012 135.2284997 -13.8820012 123.8697826 134.8795802 -13.3779029
 119.4860012 135.7904997 -16.7140012 119.4030012 136.6794997 -16.3670012
 120.3760012 135.5254997 -16.4820012 119.5949469 135.8761430 -16.6352374
 129.6850012 136.5394997  -4.3190012 128.7680012 136.8024997  -4.4070012
 130.0200012 136.5364997  -5.2160012 129.6049900 136.5750224  -4.4522081
 128.2870012 140.2904997 -10.2240012 127.4890012 139.8754997 -10.5520012
 128.7320012 139.5994997  -9.7330012 128.2379885 140.1403543 -10.2025111
 116.0610012 138.8824997 -18.5370012 116.0160012 139.8214997 -18.3590012
 115.1730012 138.6464997 -18.8070012 115.9348574 138.9791892 -18.5491088
 116.8690012 133.6644997  -9.8640012 116.6400012 133.7234997 -10.7920012
 116.4260012 132.8724997  -9.5580012 116.7778530 133.5655753  -9.9495214
 114.9940012 144.0274997  -1.4190012 115.1380012 143.1254997  -1.7060012
 114.2220012 144.3134997  -1.9070012 114.9093322 143.9428261  -1.5242119
 119.3360012 144.3714997 -19.2870012 119.4000012 143.5774997 -18.7560012
 119.9890012 144.2524997 -19.9770012 119.4330241 144.2467148 -19.3075683
 121.6500012 143.9974997  -1.9870012 121.3210012 144.2684997  -2.8440012
 121.8020012 143.0564997  -2.0740012 121.6254809 143.9073862  -2.1161756
 127.3840012 143.9134997  -4.6030012 128.1300012 144.5014997  -4.7230012
 126.6270012 144.4954997  -4.5400012 127.3837554 144.0727011  -4.6109093
 115.8270012 141.2274997  -1.9990012 116.2350012 140.3704997  -2.1200012
 115.5670012 141.2424997  -1.0780012 115.8477568 141.1120807  -1.8910412
 120.4850012 142.3434997 -16.9810012 120.0250012 141.8594997 -16.2950012
 120.7400012 141.6754997 -17.6170012 120.4564902 142.1868731 -16.9730666
 119.7740012 140.2364997  -4.6250012 119.1560012 140.9114997  -4.3450012
 120.1180012 140.5574997  -5.4580012 119.7359615 140.3722721  -4.6993419
 121.5560012 140.5864997 -18.7190012 121.3760012 140.4324997 -19.6460012
 122.5060012 140.6944997 -18.6740012 121.6597776 140.5800175 -18.8398157
 124.7940012 142.7084997  -1.3480012 125.7470012 142.7914997  -1.3750012
 124.6330012 141.9964997  -0.7280012 124.9026426 142.6236746  -1.2679421
 130.9460012 142.9414997 -19.2730012 130.6720012 142.5164997 -20.0860012
 130.9850012 143.8724997 -19.4900012 130.9137699 143.0092484 -19.4136390
 120.1130012 137.5914997  -3.5430012 120.2630012 136.8624997  -4.1450012
 120.1160012 138.3684997  -4.1020012 120.1339302 137.5967851  -3.7009308
 120.5260012 135.9614997  -6.0500012 121.0620012 136.4124997  -6.7020012
 119.6740012 135.8534997  -6.4730012 120.4842178 136.0086390  -6.1964244
 122.1080012 141.4004997  -5.8110012 122.8580012 141.2444997  -6.3840012
 121.7690012 142.2524997  -6.0860012 122.1648921 141.4942968  -5.9266439
 126.5230012 139.2154997  -0.7820012 126.7160012 138.2844997  -0.8940012
 127.3810012 139.6404997  -0.7920012 126.6653020 139.1456389  -0.7986639
 127.8400012 142.0044997  -2.7050012 127.5590012 142.7134997  -3.2820012
 128.7830012 141.9314997  -2.8560012 127.9289027 142.0917646  -2.8044449
 118.5920012 138.7894997  -1.6310012 117.8250012 138.2574997  -1.8410012
 119.2710012 138.4794997  -2.2310012 118.5787022 138.6747506  -1.7408352
 121.3320012 133.4174997  -5.6190012 121.2330012 134.3644997  -5.7240012
 120.5890012 133.0454997  -6.0940012 121.2180564 133.4965902  -5.6975440
 122.5960012 137.7394997  -2.0550012 122.3600012 137.5194997  -1.1530012
 121.8120012 137.5324997  -2.5650012 122.4578628 137.6814760  -2.0006068
 125.3110012 136.8664997  -2.9790012 124.3640012 136.8984997  -2.8470012
 125.6240012 136.2414997  -2.3260012 125.2235475 136.7863207  -2.8725545
 126.9450012 135.5004997  -0.9740012 126.8490012 134.5484997  -0.9800012
 126.6240012 135.7694997  -0.1140012 126.8884070 135.4064035  -0.8584559
 116.7720012 136.7104997  -1.9270012 116.9840012 136.0034997  -2.5370012
 116.6610012 136.2724997  -1.0830012 116.7859721 136.5547084  -1.8963157
 121.5530012 132.7114997  -2.9470012 122.2650012 132.0714997  -2.9610012
 121.4520012 132.9784997  -3.8610012 121.6367939 132.6599938  -3.0724350
 121.9070012 134.3944997  -0.8940012 121.7750012 133.9184997  -1.7140012
 121.3080012 135.1384997  -0.9490012 121.8079071 134.4299618  -1.0137114
 131.4040012 143.8104997 -15.2980012 132.2540012 144.2314997 -15.1710012
 131.4100012 143.0704997 -14.6910012 131.5211372 143.7680803 -15.1985656
 131.7990012 141.8634997 -13.4740012 131.0720012 141.3844997 -13.0770012
 132.3800012 142.0694997 -12.7420012 131.7779375 141.8257090 -13.3205871
 131.5580012 144.6484997  -8.5270012 132.3910012 144.2704997  -8.8070012
 131.6700012 145.5914997  -8.6460012 131.6872647 144.7242218  -8.5814513
 132.0670012 141.7644997 -17.0830012 131.5450012 142.1214997 -17.8020012
 132.0340012 142.4394997 -16.4050012 131.9911634 141.9045413 -17.0896855
 130.4160012 139.0044997 -18.5320012 130.5120012 139.6714997 -19.2130012
 130.2760012 138.1884997 -19.0140012 130.4102135 138.9854500 -18.6901509
 129.5850012 140.3844997 -12.9110012 129.4350012 139.4394997 -12.9320012
 129.2320012 140.6654997 -12.0680012 129.5166625 140.2930441 -12.7997654
 114.6210012 142.4624997  -8.9010012 114.8050012 142.3804997  -9.8370012
 115.4700012 142.3384997  -8.4770012 114.7610139 142.4345003  -8.9718545
 130.4420012 142.3544997  -3.2730012 131.0250012 141.6204997  -3.0810012
 131.0060012 143.1264997  -3.2260012 130.5979769 142.3584227  -3.2403841
 131.9380012 140.2574997  -2.5880012 131.0750012 139.8784997  -2.7540012
 132.5430012 139.5184997  -2.6620012 131.9015979 140.1058023  -2.6207183
 129.6630012 136.4124997 -19.4150012 130.2740012 136.0414997 -18.7780012
 128.8270012 135.9914997 -19.2190012 129.6335032 136.3047554 -19.3012965
 129.2960012 137.9674997 -14.4490012 129.5760012 137.0604997 -14.3250012
 130.0550012 138.4014997 -14.8380012 129.4369277 137.9020942 -14.4846318
 129.9080012 138.5484997  -9.0130012 130.8410012 138.7604997  -9.0470012
 129.6730012 138.6504997  -8.0910012 130.0038036 138.5912769  -8.8930024
 129.9370012 139.2854997  -6.2370012 129.0940012 139.5534997  -5.8710012
 130.3790012 140.1074997  -6.4480012 129.8814158 139.4333291  -6.2154509
 114.2180012 137.7334997  -2.7600012 115.1380012 137.6114997  -2.5240012
 113.7690012 136.9834997  -2.3710012 114.2831580 137.6153727  -2.6750994
 132.2200012 133.2654997  -0.8840012 132.5700012 132.6114997  -1.4890012
 132.3670012 134.1024997  -1.3230012 132.2878419 133.2891591  -1.0262882
 129.9090012 135.2304997 -14.4010012 130.0920012 134.7814997 -13.5750012
 129.3100012 134.6454997 -14.8640012 129.8530202 135.0899975 -14.3506725
 115.4390012 136.0454997  -9.8690012 115.8850012 135.2534997  -9.5670012
 115.9060012 136.7614997  -9.4380012 115.5630172 136.0340624  -9.7695180
 113.7430012 139.0444997  -8.8000012 114.2350012 138.8234997  -9.5910012
 114.1060012 139.8854997  -8.5190012 113.8593126 139.1278357  -8.8702469
 131.7400012 135.3744997  -2.5340012 130.8220012 135.6454997  -2.5700012
 131.8630012 134.8394997  -3.3190012 131.6311066 135.3392892  -2.6449513
 131.7760012 135.2974997 -17.8730012 132.1880012 134.5764997 -18.3480012
 132.4580012 135.9674997 -17.8140012 131.9245885 135.2892368 -17.9301085
 114.0570012 135.3024997 -14.7460012 113.1320012 135.5114997 -14.8750012
 114.5110012 135.7864997 -15.4350012 113.9917368 135.3965993 -14.8568774
 114.0210012 134.0404997  -6.4010012 113.3560012 133.7944997  -5.7580012
 113.5780012 134.6624997  -6.9790012 113.8700956 134.0908632  -6.3910648
 130.7400012 133.4644997  -4.7150012 129.9280012 133.7894997  -5.1030012
 130.9730012 132.7044997  -5.2480012 130.6603423 133.4062436  -4.8401747
 124.1700012 134.9134997 -10.3930012 123.4960012 134.2844997 -10.1370012
 124.7340012 134.4294997 -10.9960012 124.1539230 134.7618744 -10.4394660
 129.3130012 133.0214997 -10.2800012 129.9170012 133.5684997 -10.7820012
 128.4430012 133.3404997 -10.5200012 129.2781241 133.1395806 -10.3812346
 131.0400012 134.1594997 -11.9470012 131.6520012 133.6454997 -12.4730012
 131.4220012 135.0374997 -11.9230012 131.1754540 134.2077140 -12.0158170
 116.4970012 133.5474997 -12.5710012 115.7200012 133.3134997 -13.0780012
 117.0270012 132.7504997 -12.5620012 116.4622330 133.4076988 -12.6392258
 115.3330012 133.3454997 -16.7670012 115.7720012 133.9564997 -17.3590012
 114.7000012 133.8834997 -16.2930012 115.3074514 133.5019257 -16.7839070
 121.0760012 133.4744997 -12.7570012 121.9510012 133.8624997 -12.7870012
 120.9400012 133.2594997 -11.8350012 121.1773695 133.4985184 -12.6363560
 126.6330012 133.5044997 -11.1080012 126.7090012 133.5994997 -12.0580012
 126.3580012 132.5964997 -10.9790012 126.6062321 133.3947867 -11.2204921
 127.9860012 133.5304997 -15.4160012 127.2840012 134.1454997 -15.6250012
 127.5420012 132.6924997 -15.2850012 127.8296330 133.5015783 -15.4269672
 117.1940012 135.2614997 -18.3250012 117.6860012 134.6314997 -18.8520012
 117.8180012 135.5574997 -17.6610012 117.3455446 135.2153199 -18.3074020
 122.2200012 135.5544997 -15.8680012 122.3980012 134.9084997 -15.1850012
 122.1670012 136.3884997 -15.4000012 122.2371829 135.5787985 -15.7114060
 116.4550012 134.0614997  -3.0530012 116.0890012 133.2964997  -2.6100012
 117.3680012 134.0904997  -2.7660012 116.5282790 133.9607224  -2.9535930
 118.4280012 133.4124997  -1.5170012 119.3260012 133.1384997  -1.7020012
 118.0410012 132.6694997  -1.0530012 118.4986612 133.2745914  -1.4796357
 126.8490012 132.7444997  -1.3350012 126.9260012 132.3184997  -0.4810012
 127.7430012 132.7584997  -1.6780012 126.9803428 132.6880880  -1.2644690
 144.4310012 142.7034997 -12.6120012 144.5200012 143.6474997 -12.7440012
 143.7930012 142.4284997 -13.2700012 144.3569081 142.7954830 -12.7190386
 143.3640012 141.9584997  -9.1930012 143.3260012 141.3124997  -8.4880012
 143.0420012 141.4924997  -9.9640012 143.3152333 141.8069408  -9.2007022
 135.7330012 141.5734997  -7.6000012 135.7740012 140.9474997  -6.8770012
 136.4360012 142.1974997  -7.4180012 135.8336363 141.5721196  -7.4763956
 133.2660012 139.6834997 -13.6720012 132.8190012 140.5294997 -13.6910012
 132.7050012 139.1034997 -14.1880012 133.1289900 139.7209916 -13.7443199
 133.9770012 141.8454997 -11.5460012 134.1900012 141.0754997 -11.0190012
 134.7150012 141.9344997 -12.1500012 134.1058496 141.7521394 -11.5554700
 141.7540012 144.3914997  -8.7870012 142.0580012 143.7054997  -9.3820012
 142.4750012 144.5094997  -8.1690012 141.8930671 144.3136305  -8.7848184
 144.8950012 138.7854997  -8.4590012 145.0370012 137.8394997  -8.4390012
 144.7880012 138.9924997  -9.3880012 144.8999863 138.6839534  -8.5817661
 138.0490012 136.8864997 -11.1870012 138.0930012 137.7464997 -11.6050012
 137.5920012 136.3344997 -11.8210012 137.9932185 136.9295799 -11.3299701
 134.6700012 139.2834997 -10.4250012 135.3230012 138.7334997  -9.9930012
 134.6940012 139.0094997 -11.3420012 134.7626683 139.1711466 -10.4897877
 139.8260012 140.8334997 -11.2100012 140.4420012 140.3074997 -10.7000012
 139.2400012 140.1934997 -11.6130012 139.8310810 140.6749208 -11.1946827
 136.8600012 135.8044997  -7.1130012 136.6410012 136.3344997  -7.8790012
 136.1920012 136.0314997  -6.4660012 136.7397600 135.9076906  -7.1303621
 139.4290012 143.4804997  -6.8260012 138.6890012 144.0784997  -6.7220012
 140.1430012 144.0344997  -7.1410012 139.4242237 143.6372831  -6.8543535
 136.4530012 137.6964997  -9.1610012 137.0670012 138.3294997  -8.7870012
 136.9650012 137.2244997  -9.8170012 136.6062296 137.7192370  -9.1985748
 140.8860012 133.1104997  -9.6600012 140.7690012 132.1614997  -9.7150012
 140.0310012 133.4424997  -9.3870012 140.7543733 133.0255409  -9.6306103
 143.1530012 141.9474997 -15.1600012 142.4410012 142.4824997 -15.5120012
 143.8440012 142.0034997 -15.8200012 143.1490132 142.0282543 -15.2973711
 143.2060012 140.4054997 -18.1210012 143.9070012 140.4274997 -17.4700012
 143.5090012 139.7774997 -18.7770012 143.3427830 140.3236566 -18.1206289
 138.2040012 142.7874997 -12.3260012 137.8730012 142.4174997 -13.1440012
 138.7920012 142.1174997 -11.9790012 138.2381873 142.6461156 -12.3911898
 138.5700012 141.5564997  -8.6920012 139.1360012 141.6774997  -9.4550012
 138.8890012 142.1934997  -8.0530012 138.6905786 141.6591884  -8.7099960
 136.3700012 142.1534997  -4.7460012 136.4410012 142.8044997  -4.0480012
 135.4800012 142.2564997  -5.0810012 136.2593117 142.2565936  -4.6957300
 137.1940012 141.8574997 -14.7360012 136.9020012 142.6254997 -15.2270012
 136.5200012 141.1974997 -14.8990012 137.0629081 141.8734406 -14.8252660
 133.2870012 144.2204997  -5.9210012 132.7860012 144.1924997  -6.7360012
 133.2920012 143.3144997  -5.6120012 133.2191526 144.0942278  -5.9907128
 138.1550012 134.0134997  -8.8830012 137.2930012 133.9264997  -9.2900012
 138.1320012 134.8694997  -8.4550012 138.0340330 134.1172765  -8.8808137
 142.8180012 133.7354997  -5.5080012 143.2380012 133.3204997  -4.7550012
 141.8850012 133.5574997  -5.3910012 142.7493644 133.6545900  -5.3890461
 142.4790012 136.2284997 -18.2230012 142.2260012 136.2474997 -17.3000012
 142.2230012 135.3564997 -18.5240012 142.4097790 136.1132437 -18.1373737
 138.2460012 138.9794997  -7.7880012 137.6040012 138.9384997  -7.0790012
 138.2830012 139.9054997  -8.0250012 138.1631324 139.0991559  -7.7230176
 138.2430012 139.2004997 -12.8760012 137.3500012 138.8594997 -12.9340012
 138.6930012 138.8234997 -13.6310012 138.1817305 139.1028484 -12.9860823
 143.7780012 139.6164997 -14.0590012 143.3690012 140.4314997 -14.3500012
 144.4990012 139.4764997 -14.6730012 143.8194537 139.7092018 -14.1818658
 142.8800012 139.7914997  -2.5710012 142.3180012 139.0874997  -2.2500012
 143.7070012 139.6714997  -2.1030012 142.9147095 139.6787883  -2.4637670
 144.7830012 139.0624997 -11.2450012 144.5880012 139.6674997 -11.9600012
 144.9640012 138.2284997 -11.6790012 144.7807614 139.0326300 -11.4015595
 135.9960012 139.2994997  -5.9210012 135.9580012 139.6994997  -5.0520012
 135.5050012 138.4824997  -5.8300012 135.9244684 139.2438069  -5.7898941
 139.3620012 136.6734997 -19.1220012 138.9310012 136.2284997 -18.3920012
 138.6440012 137.0454997 -19.6340012 139.2059438 136.6628940 -19.0913201
 132.6040012 136.4154997 -12.0700012 133.2350012 136.3864997 -11.3510012
 133.0530012 135.9904997 -12.8000012 132.7510774 136.3540492 -12.0703447
 133.8780012 137.1614997 -16.6460012 134.3520012 137.7524997 -17.2310012
 133.1610012 137.6924997 -16.2990012 133.8459341 137.3140867 -16.6791164
 144.0470012 140.7004997  -6.5730012 144.3700012 140.0694997  -7.2160012
 143.6070012 140.1654997  -5.9130012 144.0316895 140.5418441  -6.5717150
 140.8240012 136.6274997 -11.7890012 139.9130012 136.6844997 -11.5010012
 141.3300012 136.5674997 -10.9790012 140.7675413 136.6271985 -11.6399378
 135.6530012 138.2564997 -12.9630012 134.7630012 138.3564997 -13.3030012
 135.9490012 137.4144997 -13.3090012 135.5712823 138.1563545 -13.0562787
 139.3060012 138.2564997 -15.3060012 140.2370012 138.3854997 -15.1280012
 139.0910012 138.9264997 -15.9560012 139.4044247 138.3646565 -15.3694253
 137.9800012 139.4514997 -17.7390012 137.4370012 139.0714997 -18.4310012
 138.8130012 139.6454997 -18.1680012 138.0184399 139.4258124 -17.8915474
 136.1150012 144.0084997  -2.6400012 136.8470012 144.2624997  -2.0790012
 135.3350012 144.2124997  -2.1250012 136.1098232 144.0709177  -2.4934240
 142.1440012 139.4154997  -9.9020012 142.7090012 138.8684997 -10.4490012
 141.9970012 138.8934997  -9.1140012 142.2012918 139.2702024  -9.8701546
 137.1460012 135.5514997 -13.4840012 136.8290012 134.6494997 -13.5190012
 137.9280012 135.5534997 -14.0370012 137.2082284 135.4281628 -13.5635217
 140.7710012 137.8034997  -7.4880012 139.9350012 138.2574997  -7.3780012
 141.2950012 138.0794997  -6.7360012 140.7274414 137.9029376  -7.3712864
 141.3150012 144.0164997 -15.8040012 140.5700012 143.5094997 -16.1260012
 141.1810012 144.0654997 -14.8570012 141.1948776 143.9536940 -15.7201353
 142.8340012 144.2004997  -4.5670012 142.4890012 143.8194997  -3.7600012
 142.6340012 145.1344997  -4.4950012 142.7598061 144.2745228  -4.4469039
 136.4400012 143.3114997 -10.0340012 137.1850012 143.3094997 -10.6350012
 136.5180012 142.4884997  -9.5520012 136.5525518 143.1999315 -10.0511071
 133.4480012 141.7724997  -4.7190012 133.6710012 141.3544997  -3.8870012
 132.8460012 141.1594997  -5.1420012 133.3971759 141.6324668  -4.6622978
 140.4640012 141.2894997  -2.5060012 140.1680012 141.1234997  -3.4010012
 141.3960012 141.0694997  -2.5170012 140.5494166 141.2370640  -2.6299464
 134.5700012 141.6914997 -18.0430012 135.1860012 142.3184997 -17.6630012
 133.7080012 142.0074997 -17.7710012 134.5377698 141.8199430 -17.9542817
 140.2420012 144.4924997 -13.0530012 140.0010012 145.4174997 -13.0120012
 139.5010012 144.0334997 -12.6570012 140.1088409 144.5571421 -12.9938623
 144.3010012 144.7404997  -7.0380012 143.8750012 144.5134997  -6.2110012
 144.8810012 144.0024997  -7.2200012 144.3211868 144.6095299  -6.9494170
 135.0820012 136.5254997  -5.1610012 134.1890012 136.8644997  -5.2290012
 134.9830012 135.6704997  -4.7430012 134.9464164 136.4562588  -5.1137765
 135.9850012 143.6044997 -16.5500012 135.2990012 143.9564997 -15.9830012
 136.5070012 144.3674997 -16.7970012 135.9616852 143.7558578 -16.5057882
 143.8160012 136.2664997  -6.2710012 144.5150012 136.3404997  -5.6210012
 143.4350012 135.4024997  -6.1170012 143.8601767 136.1597624  -6.1611678
 144.6010012 135.9184997 -15.1740012 144.8210012 136.3904997 -15.9770012
 145.1590012 136.3134997 -14.5040012 144.7064968 136.0364285 -15.1932669
 141.8010012 137.6464997 -14.3390012 142.6130012 138.1514997 -14.2930012
 141.5560012 137.5014997 -13.4250012 141.8790520 137.6960375 -14.2091483
 142.3360012 138.6324997  -5.1540012 142.4550012 139.2064997  -4.3970012
 142.9920012 137.9444997  -5.0400012 142.4409757 138.6181079  -5.0349175
 142.6840012 134.7274997 -13.4010012 142.3380012 135.3454997 -12.7560012
 143.3430012 135.2284997 -13.8820012 142.7257826 134.8795802 -13.3779029
 138.3420012 135.7904997 -16.7140012 138.2590012 136.6794997 -16.3670012
 139.2320012 135.5254997 -16.4820012 138.4509469 135.8761430 -16.6352374
 134.9170012 138.8824997 -18.5370012 134.8720012 139.8214997 -18.3590012
 134.0290012 138.6464997 -18.8070012 134.7908574 138.9791892 -18.5491088
 135.7250012 133.6644997  -9.8640012 135.4960012 133.7234997 -10.7920012
 135.2820012 132.8724997  -9.5580012 135.6338530 133.5655753  -9.9495214
 133.8500012 144.0274997  -1.4190012 133.9940012 143.1254997  -1.7060012
 133.0780012 144.3134997  -1.9070012 133.7653322 143.9428261  -1.5242119
 138.1920012 144.3714997 -19.2870012 138.2560012 143.5774997 -18.7560012
 138.8450012 144.2524997 -19.9770012 138.2890241 144.2467148 -19.3075683
 140.5060012 143.9974997  -1.9870012 140.1770012 144.2684997  -2.8440012
 140.6580012 143.0564997  -2.0740012 140.4814809 143.9073862  -2.1161756
 134.6830012 141.2274997  -1.9990012 135.0910012 140.3704997  -2.1200012
 134.4230012 141.2424997  -1.0780012 134.7037568 141.1120807  -1.8910412
 139.3410012 142.3434997 -16.9810012 138.8810012 141.8594997 -16.2950012
 139.5960012 141.6754997 -17.6170012 139.3124902 142.1868731 -16.9730666
 138.6300012 140.2364997  -4.6250012 138.0120012 140.9114997  -4.3450012
 138.9740012 140.5574997  -5.4580012 138.5919615 140.3722721  -4.6993419
 140.4120012 140.5864997 -18.7190012 140.2320012 140.4324997 -19.6460012
 141.3620012 140.6944997 -18.6740012 140.5157776 140.5800175 -18.8398157
 143.6500012 142.7084997  -1.3480012 144.6030012 142.7914997  -1.3750012
 143.4890012 141.9964997  -0.7280012 143.7586426 142.6236746  -1.2679421
 138.9690012 137.5914997  -3.5430012 139.1190012 136.8624997  -4.1450012
 138.9720012 138.3684997  -4.1020012 138.9899302 137.5967851  -3.7009308
 139.3820012 135.9614997  -6.0500012 139.9180012 136.4124997  -6.7020012
 138.5300012 135.8534997  -6.4730012 139.3402178 136.0086390  -6.1964244
 140.9640012 141.4004997  -5.8110012 141.7140012 141.2444997  -6.3840012
 140.6250012 142.2524997  -6.0860012 141.0208921 141.4942968  -5.9266439
 137.4480012 138.7894997  -1.6310012 136.6810012 138.2574997  -1.8410012
 138.1270012 138.4794997  -2.2310012 137.4347022 138.6747506  -1.7408352
 140.1880012 133.4174997  -5.6190012 140.0890012 134.3644997  -5.7240012
 139.4450012 133.0454997  -6.0940012 140.0740564 133.4965902  -5.6975440
 141.4520012 137.7394997  -2.0550012 141.2160012 137.5194997  -1.1530012
 140.6680012 137.5324997  -2.5650012 141.3138628 137.6814760  -2.0006068
 144.1670012 136.8664997  -2.9790012 143.2200012 136.8984997  -2.8470012
 144.4800012 136.2414997  -2.3260012 144.0795475 136.7863207  -2.8725545
 135.6280012 136.7104997  -1.9270012 135.8400012 136.0034997  -2.5370012
 135.5170012 136.2724997  -1.0830012 135.6419721 136.5547084  -1.8963157
 140.4090012 132.7114997  -2.9470012 141.1210012 132.0714997  -2.9610012
 140.3080012 132.9784997  -3.8610012 140.4927939 132.6599938  -3.0724350
 140.7630012 134.3944997  -0.8940012 140.6310012 133.9184997  -1.7140012
 140.1640012 135.1384997  -0.9490012 140.6639071 134.4299618  -1.0137114
 133.4770012 142.4624997  -8.9010012 133.6610012 142.3804997  -9.8370012
 134.3260012 142.3384997  -8.4770012 133.6170139 142.4345003  -8.9718545
 133.0740012 137.7334997  -2.7600012 133.9940012 137.6114997  -2.5240012
 132.6250012 136.9834997  -2.3710012 133.1391580 137.6153727  -2.6750994
 134.2950012 136.0454997  -9.8690012 134.7410012 135.2534997  -9.5670012
 134.7620012 136.7614997  -9.4380012 134.4190172 136.0340624  -9.7695180
 132.5990012 139.0444997  -8.8000012 133.0910012 138.8234997  -9.5910012
 132.9620012 139.8854997  -8.5190012 132.7153126 139.1278357  -8.8702469
 132.9130012 135.3024997 -14.7460012 131.9880012 135.5114997 -14.8750012
 133.3670012 135.7864997 -15.4350012 132.8477368 135.3965993 -14.8568774
 132.8770012 134.0404997  -6.4010012 132.2120012 133.7944997  -5.7580012
 132.4340012 134.6624997  -6.9790012 132.7260956 134.0908632  -6.3910648
 143.0260012 134.9134997 -10.3930012 142.3520012 134.2844997 -10.1370012
 143.5900012 134.4294997 -10.9960012 143.0099230 134.7618744 -10.4394660
 135.3530012 133.5474997 -12.5710012 134.5760012 133.3134997 -13.0780012
 135.8830012 132.7504997 -12.5620012 135.3182330 133.4076988 -12.6392258
 134.1890012 133.3454997 -16.7670012 134.6280012 133.9564997 -17.3590012
 133.5560012 133.8834997 -16.2930012 134.1634514 133.5019257 -16.7839070
 139.9320012 133.4744997 -12.7570012 140.8070012 133.8624997 -12.7870012
 139.7960012 133.2594997 -11.8350012 140.0333695 133.4985184 -12.6363560
 136.0500012 135.2614997 -18.3250012 136.5420012 134.6314997 -18.8520012
 136.6740012 135.5574997 -17.6610012 136.2015446 135.2153199 -18.3074020
 141.0760012 135.5544997 -15.8680012 141.2540012 134.9084997 -15.1850012
 141.0230012 136.3884997 -15.4000012 141.0931829 135.5787985 -15.7114060
 135.3110012 134.0614997  -3.0530012 134.9450012 133.2964997  -2.6100012
 136.2240012 134.0904997  -2.7660012 135.3842790 133.9607224  -2.9535930
 137.2840012 133.4124997  -1.5170012 138.1820012 133.1384997  -1.7020012
 136.8970012 132.6694997  -1.0530012 137.3546612 133.2745914  -1.4796357
  12.4390012  10.7114997   6.2439988  12.5280012  11.6554997   6.1119988
  11.8010012  10.4364997   5.5859988  12.3649081  10.8034830   6.1369614
  11.3720012   9.9664997   9.6629988  11.3340012   9.3204997  10.3679988
  11.0500012   9.5004997   8.8919988  11.3232333   9.8149408   9.6552978
   3.7410012   9.5814997  11.2559988   3.7820012   8.9554997  11.9789988
   4.4440012  10.2054997  11.4379988   3.8416363   9.5801196  11.3796044
  15.0780012  12.9054997   7.9639988  14.6380012  12.1854997   8.4149988
  15.0650012  13.6264997   8.5939988  15.0160226  12.9043731   8.1108494
   4.6640012  14.0314997   9.7909988   4.2950012  13.2294997   9.4209988
   5.6050012  13.8624997   9.8369988   4.7407289  13.8990153   9.7466316
   1.2740012   7.6914997   5.1839988   0.8270012   8.5374997   5.1649988
   0.7130012   7.1114997   4.6679988   1.1369900   7.7289916   5.1116801
   1.9850012   9.8534997   7.3099988   2.1980012   9.0834997   7.8369988
   2.7230012   9.9424997   6.7059988   2.1138496   9.7601394   7.3005300
  12.1900012  18.0104997   8.1769988  12.8100012  17.3334997   7.9029988
  11.9820012  17.7924997   9.0849988  12.2466904  17.8883870   8.2623365
   9.7620012  12.3994997  10.0689988  10.0660012  11.7134997   9.4739988
  10.4830012  12.5174997  10.6869988   9.9010671  12.3216305  10.0711816
  18.4250012   4.0004997  10.9299988  18.4740012   4.6104997  11.6659988
  18.8500012   4.4614997  10.2069988  18.4891824   4.1463741  10.9330205
  12.9030012   6.7934997  10.3969988  13.0450012   5.8474997  10.4169988
  12.7960012   7.0004997   9.4679988  12.9079864   6.6919534  10.2742339
   6.0570012   4.8944997   7.6689988   6.1010012   5.7544997   7.2509988
   5.6000012   4.3424997   7.0349988   6.0012185   4.9375799   7.5260299
  13.7800012   5.0254997   6.0699988  14.4260012   4.6964997   6.6949988
  14.2900012   5.5434997   5.4469988  13.9374264   5.0504611   6.0713862
   2.6780012   7.2914997   8.4309988   3.3310012   6.7414997   8.8629988
   2.7020012   7.0174997   7.5139988   2.7706683   7.1791466   8.3662123
   7.8340012   8.8414997   7.6459988   8.4500012   8.3154997   8.1559988
   7.2480012   8.2014997   7.2429988   7.8390810   8.6829208   7.6613173
  18.8160012   5.4784997  13.1659988  18.1280012   6.1364997  13.0699988
  18.8320012   5.2814997  14.1019988  18.7238525   5.5420462  13.2794808
   4.8680012   3.8124997  11.7429988   4.6490012   4.3424997  10.9769988
   4.2000012   4.0394997  12.3899988   4.7477600   3.9156906  11.7256379
  12.2370012  13.3124997   5.2869988  11.9410012  12.9904997   4.4359988
  11.9120012  14.2124997   5.3279988  12.1526371  13.3900215   5.1761801
   7.4370012  11.4884997  12.0299988   6.6970012  12.0864997  12.1339988
   8.1510012  12.0424997  11.7149988   7.4322237  11.6452831  12.0016465
  15.5440012   4.3164997   8.0499988  15.3280012   3.5504997   8.5829988
  16.1990012   4.7884997   8.5629988  15.6030632   4.2755889   8.1922861
   4.4610012   5.7044997   9.6949988   5.0750012   6.3374997  10.0689988
   4.9730012   5.2324997   9.0389988   4.6142296   5.7272370   9.6574252
   5.8440012  13.4524997  12.8179988   5.8390012  14.3324997  12.4399988
   4.9910012  13.3694997  13.2429988   5.7279464  13.5616117  12.8237907
   1.9650012  13.1234997   3.5999988   1.6930012  13.3524997   2.7109988
   2.0110012  13.9614997   4.0599988   1.9340094  13.2681213   3.5405697
  15.5900012  14.7454997  10.3119988  14.6490012  14.8034997  10.4739988
  15.8670012  15.6514997  10.1749988  15.4984679  14.8759443  10.3156815
  15.8910012   3.0314997  11.7299988  15.1550012   3.6424997  11.6919988
  16.5740012   3.4464997  11.2029988  15.8826541   3.1711374  11.6535832
   8.8940012   1.1184997   9.1959988   8.7770012   0.1694997   9.1409988
   8.0390012   1.4504997   9.4689988   8.7623733   1.0335409   9.2253897
  13.8420012  16.5264997   6.9379988  14.2680012  15.8194997   6.4529988
  14.1590012  17.3274997   6.5209988  13.9431019  16.5380994   6.8153130
  15.0020012  14.4274997   5.4459988  14.7440012  13.7374997   4.8349988
  15.0730012  13.9844997   6.2919988  14.9762856  14.2732124   5.4766885
  16.6880012  12.9934997  13.9239988  16.8280012  12.4024997  13.1839988
  16.8550012  13.8664997  13.5669988  16.7296778  13.0306426  13.7746965
  11.1610012   9.9554997   3.6959988  10.4490012  10.4904997   3.3439988
  11.8520012  10.0114997   3.0359988  11.1570132  10.0362543   3.5586289
  11.2140012   8.4134997   0.7349988  11.9150012   8.4354997   1.3859988
  11.5170012   7.7854997   0.0789988  11.3507830   8.3316566   0.7353711
  18.5300012   9.3334997  11.9899988  17.8770012  10.0284997  12.0789988
  18.9950012   9.5434997  11.1799988  18.5035390   9.4569425  11.8926883
  14.5660012  10.1654997   4.6479988  13.8340012  10.3934997   5.2209988
  15.0140012   9.4514997   5.1029988  14.5263095  10.1002571   4.7879119
  14.4640012   8.3394997  13.7149988  14.5440012   9.1024997  14.2869988
  13.8620012   8.6184997  13.0249988  14.3935756   8.4817134  13.7000589
   6.2120012  10.7954997   6.5299988   5.8810012  10.4254997   5.7119988
   6.8000012  10.1254997   6.8769988   6.2461873  10.6541156   6.4648102
   7.5780012  14.2234997   9.2119988   7.4840012  13.6454997   8.4549988
   8.3080012  13.8524997   9.7079988   7.6637981  14.0942390   9.1754165
   6.5780012   9.5644997  10.1639988   7.1440012   9.6854997   9.4009988
   6.8970012  10.2014997  10.8029988   6.6985786   9.6671884  10.1460040
  12.8870012  15.0674997  10.8979988  12.6470012  15.7294997  11.5459988
  12.6890012  14.2334997  11.3229988  12.8273808  15.0453134  11.0441524
   7.4580012  13.9634997  14.8809988   7.1470012  14.7454997  15.3359988
   6.8080012  13.8104997  14.1949988   7.3275558  14.0499105  14.8505871
  13.4370012   9.3274997   2.3329988  14.0170012   9.4774997   3.0799988
  13.8510012   9.7984997   1.6099988  13.5722830   9.4116841   2.3374134
   4.3780012  10.1614997  14.1099988   4.4490012  10.8124997  14.8079988
   3.4880012  10.2644997  13.7749988   4.2673117  10.2645936  14.1602700
  11.1640012  16.0644997   5.7679988  11.6380012  16.3594997   6.5459988
  10.6010012  16.8024997   5.5349988  11.1527653  16.2046932   5.8430136
   5.6980012  16.0354997  15.6439988   5.7050012  15.8994997  14.6969988
   4.7820012  15.9174997  15.8959988   5.5751714  16.0009430  15.5484666
  17.1360012   1.0774997   2.1459988  16.2360012   1.2164997   2.4409988
  17.3880012   1.9084997   1.7439988  17.0468702   1.2089074   2.1320205
   5.2020012   9.8654997   4.1199988   4.9100012  10.6334997   3.6289988
   4.5280012   9.2054997   3.9569988   5.0709081   9.8814406   4.0307340
  18.3250012  15.4434997   0.5219988  18.3990012  16.3824997   0.6929988
  19.2310012  15.1384997   0.4659988  18.4575100  15.5306722   0.5378119
   1.2950012  12.2284997  12.9349988   0.7940012  12.2004997  12.1199988
   1.3000012  11.3224997  13.2439988   1.2271526  12.1022278  12.8652872
   1.0450012  15.0084997   9.8189988   1.9910012  14.8644997   9.7999988
   0.9330012  15.7924997  10.3559988   1.1592727  15.0948046   9.8890072
  19.2430012  15.6744997  15.5009988  19.1940012  14.7194997  15.4639988
  18.4160012  15.9424997  15.9019988  19.1244940  15.5798998  15.5501375
  10.2220012  15.2484997  14.3769988  10.3090012  16.0744997  14.8519988
   9.3580012  14.9184997  14.6259988  10.1171964  15.3169878  14.4756549
  10.6360012  19.0204997   4.1829988  10.5610012  18.8994997   3.2369988
  10.6690012  19.9704997   4.3019988  10.6301848  19.1322500   4.0694834
   4.2890012  17.8094997   5.9639988   4.4420012  17.4614997   6.8429988
   3.4390012  17.4534997   5.7089988   4.1948962  17.7136650   6.0498340
  13.7380012  18.1744997   1.1849988  14.1130012  17.4304997   0.7149988
  13.7420012  17.9044997   2.1039988  13.7898915  18.0361486   1.2447824
  13.4070012  18.1004997   3.9349988  12.4710012  18.2004997   4.1129988
  13.6870012  17.3914997   4.5129988  13.3168255  18.0182711   4.0375391
  16.3950012   7.1674997  15.9809988  15.9880012   7.6484997  15.2599988
  16.4360012   6.2624997  15.6729988  16.3448437   7.1109374  15.8406683
   3.5440012  13.5514997  13.9779988   3.7600012  13.1904997  14.8369988
   2.6890012  13.1774997  13.7679988   3.4579292  13.4514111  14.0673386
   6.1630012   2.0214997   9.9729988   5.3010012   1.9344997   9.5659988
   6.1400012   2.8774997  10.4009988   6.0420330   2.1252765   9.9751863
  10.8260012   1.7434997  13.3479988  11.2460012   1.3284997  14.1009988
   9.8930012   1.5654997  13.4649988  10.7573644   1.6625900  13.4669539
  14.1520012   5.4994997  14.2009988  13.6380012   5.3734997  14.9989988
  13.9970012   6.4114997  13.9569988  14.0606852   5.6056132  14.2772158
  14.9150012  10.3604997  -0.0370012  14.9570012  10.1374997  -0.9670012
  15.7640012  10.7594997   0.1529988  15.0355396  10.3839155  -0.1386373
  10.4870012   4.2364997   0.6329988  10.2340012   4.2554997   1.5559988
  10.2310012   3.3644997   0.3319988  10.4177790   4.1212437   0.7186263
   6.2540012   6.9874997  11.0679988   5.6120012   6.9464997  11.7769988
   6.2910012   7.9134997  10.8309988   6.1711324   7.1071559  11.1329824
   6.2510012   7.2084997   5.9799988   5.3580012   6.8674997   5.9219988
   6.7010012   6.8314997   5.2249988   6.1897305   7.1108484   5.8699177
  11.7860012   7.6244997   4.7969988  11.3770012   8.4394997   4.5059988
  12.5070012   7.4844997   4.1829988  11.8274537   7.7172018   4.6741342
  10.8880012   7.7994997  16.2849988  10.3260012   7.0954997  16.6059988
  11.7150012   7.6794997  16.7529988  10.9227095   7.6867883  16.3922330
  12.7910012   7.0704997   7.6109988  12.5960012   7.6754997   6.8959988
  12.9720012   6.2364997   7.1769988  12.7887614   7.0406300   7.4544405
   4.0040012   7.3074997  12.9349988   3.9660012   7.7074997  13.8039988
   3.5130012   6.4904997  13.0259988   3.9324684   7.2518069  13.0661059
   7.3700012   4.6814997  -0.2660012   6.9390012   4.2364997   0.4639988
   6.6520012   5.0534997  -0.7780012   7.2139438   4.6708940  -0.2353201
   0.6120012   4.4234997   6.7859988   1.2430012   4.3944997   7.5049988
   1.0610012   3.9984997   6.0559988   0.7590774   4.3620492   6.7856553
   1.8860012   5.1694997   2.2099988   2.3600012   5.7604997   1.6249988
   1.1690012   5.7004997   2.5569988   1.8539341   5.3220867   2.1768836
  12.0550012   8.7084997  12.2829988  12.3780012   8.0774997  11.6399988
  11.6150012   8.1734997  12.9429988  12.0396895   8.5498441  12.2842850
   8.8320012   4.6354997   7.0669988   7.9210012   4.6924997   7.3549988
   9.3380012   4.5754997   7.8769988   8.7755413   4.6351985   7.2160622
   3.6610012   6.2644997   5.8929988   2.7710012   6.3644997   5.5529988
   3.9570012   5.4224997   5.5469988   3.5792823   6.1643545   5.7997213
   7.3140012   6.2644997   3.5499988   8.2450012   6.3934997   3.7279988
   7.0990012   6.9344997   2.8999988   7.4124247   6.3726565   3.4865747
  13.2370012   3.8704997  10.3309988  12.5610012   4.0014997  10.9949988
  12.7520012   3.7154997   9.5209988  13.0787145   3.8674905  10.3124517
   5.9880012   7.4594997   1.1169988   5.4450012   7.0794997   0.4249988
   6.8210012   7.6534997   0.6879988   6.0264399   7.4338124   0.9644526
  16.5250012  19.5424997  16.6079988  16.7250012  19.9664997  15.7729988
  17.1800012  19.8854997  17.2149988  16.6410051  19.6469648  16.5757836
   4.1230012  12.0164997  16.2159988   4.8550012  12.2704997  16.7769988
   3.3430012  12.2204997  16.7309988   4.1178232  12.0789177  16.3625760
  10.1520012   7.4234997   8.9539988  10.7170012   6.8764997   8.4069988
  10.0050012   6.9014997   9.7419988  10.2092918   7.2782024   8.9858454
   5.1540012   3.5594997   5.3719988   4.8370012   2.6574997   5.3369988
   5.9360012   3.5614997   4.8189988   5.2162284   3.4361628   5.2924783
   8.7790012   5.8114997  11.3679988   7.9430012   6.2654997  11.4779988
   9.3030012   6.0874997  12.1199988   8.7354414   5.9109376  11.4847136
   9.3230012  12.0244997   3.0519988   8.5780012  11.5174997   2.7299988
   9.1890012  12.0734997   3.9989988   9.2028776  11.9616940   3.1358647
  16.4730012  11.1574997  11.8389988  17.1150012  11.6144997  11.2949988
  15.6430012  11.2704997  11.3759988  16.4485963  11.2352704  11.7020177
  13.2210012   4.8384997   1.2519988  12.2820012   4.9504997   1.0999988
  13.5180012   5.6954997   1.5579988  13.1327666   4.9696443   1.2725768
  10.8420012  12.2084997  14.2889988  10.4970012  11.8274997  15.0959988
  10.6420012  13.1424997  14.3609988  10.7678061  12.2825228  14.4090961
  13.9390012   6.7054997   2.9119988  14.8310012   6.5684997   3.2309988
  13.9960012   7.4964997   2.3759988  14.0686285   6.7936660   2.8831691
   4.4480012  11.3194997   8.8219988   5.1930012  11.3174997   8.2209988
   4.5260012  10.4964997   9.3039988   4.5605518  11.2079315   8.8048929
  11.4490012  13.4834997   2.0779988  11.1530012  14.3094997   2.4589988
  10.7460012  12.8634997   2.2739988  11.3134914  13.5128199   2.1566443
   1.4560012   9.7804997  14.1369988   1.6790012   9.3624997  14.9689988
   0.8540012   9.1674997  13.7139988   1.4051759   9.6404668  14.1937022
   8.4720012   9.2974997  16.3499988   8.1760012   9.1314997  15.4549988
   9.4040012   9.0774997  16.3389988   8.5574166   9.2450640  16.2260536
  13.0930012  14.6704997  14.2399988  12.1920012  14.8534997  13.9719988
  13.1270012  14.9294997  15.1609988  12.9743041  14.7305512  14.3278197
  18.8240012   6.9154997   2.6069988  18.2700012   6.5194997   1.9349988
  18.9240012   7.8254997   2.3289988  18.7617059   6.9843586   2.4774401
  18.7870012  12.7154997  15.4439988  17.9360012  12.9534997  15.0769988
  19.3780012  12.6984997  14.6909988  18.7502487  12.7458258  15.2918893
  17.1190012  15.7014997   3.0719988  16.7460012  14.8754997   3.3809988
  17.3970012  15.5184997   2.1749988  17.1055630  15.5637303   2.9929626
  14.2800012  10.5094997  10.0929988  13.3510012  10.2774997  10.0659988
  14.7310012   9.7324997   9.7629988  14.2139216  10.3727238  10.0446917
   6.8230012  14.8374997   6.2259988   7.3500012  15.6104997   6.0259988
   5.9430012  15.0624997   5.9249988   6.7761773  14.9738005   6.1579010
   2.5780012   9.6994997   0.8129988   3.1940012  10.3264997   1.1929988
   1.7160012  10.0154997   1.0849988   2.5457698   9.8279430   0.9017183
   8.2500012  12.5004997   5.8029988   8.0090012  13.4254997   5.8439988
   7.5090012  12.0414997   6.1989988   8.1168409  12.5651421   5.8621377
   8.7650012  16.6494997  12.1179988   9.1270012  17.5044997  11.8839988
   9.2960012  16.3574997  12.8579988   8.8864473  16.7271060  12.1860855
   6.9330012  17.5224997   5.3479988   5.9830012  17.6274997   5.3989988
   7.2850012  18.3424997   5.6929988   6.8504203  17.6478314   5.4016650
  12.3090012  12.7484997  11.8179988  11.8830012  12.5214997  12.6449988
  12.8890012  12.0104997  11.6359988  12.3291868  12.6175299  11.9065830
  14.5120012  13.6774997   0.8919988  14.8650012  13.2974997   1.6969988
  13.5630012  13.5844997   0.9789988  14.4320441  13.6129596   1.0138559
  14.9670012  17.3004997  14.2879988  14.3660012  16.7454997  13.7919988
  15.2490012  17.9674997  13.6619988  14.9228519  17.3146841  14.1354952
  19.0150012  18.1574997   1.0929988  19.7590012  18.7434997   0.9529988
  18.3210012  18.7254997   1.4269988  19.0230292  18.3145582   1.1189961
   3.0900012   4.5334997  13.6949988   2.1970012   4.8724997  13.6269988
   2.9910012   3.6784997  14.1129988   2.9544164   4.4642588  13.7422235
  15.3780012  12.3504997   3.1189988  15.1000012  11.6224997   3.6749988
  16.3050012  12.4694997   3.3239988  15.4653124  12.2668802   3.2228845
   2.7410012  16.3384997  12.1299988   2.9580012  15.4064997  12.0989988
   2.9870012  16.6124997  13.0129988   2.8039549  16.2480636  12.2451763
   8.6030012  14.7894997  -0.6610012   8.8420012  14.0414997  -1.2080012
   8.3340012  14.4014997   0.1719988   8.5993675  14.6346638  -0.6233135
   7.5400012  14.3594997   1.7959988   7.6860012  13.8394997   2.5859988
   7.5370012  15.2664997   2.1019988   7.5595989  14.4108853   1.9456088
   3.9930012  11.6124997   2.3059988   3.3070012  11.9644997   2.8729988
   4.5150012  12.3754997   2.0589988   3.9696852  11.7638578   2.3502118
  11.8240012   4.2744997  12.5849988  12.5230012   4.3484997  13.2349988
  11.4430012   3.4104997  12.7389988  11.8681767   4.1677624  12.6948322
  12.6090012   3.9264997   3.6819988  12.8290012   4.3984997   2.8789988
  13.1670012   4.3214997   4.3519988  12.7144968   4.0444285   3.6627331
  10.2770012  16.0574997   2.5449988   9.4610012  16.5544997   2.5969988
  10.8070012  16.5324997   1.9049988  10.2369161  16.1897722   2.4655956
   9.8090012   5.6544997   4.5169988  10.6210012   6.1594997   4.5629988
   9.5640012   5.5094997   5.4309988   9.8870520   5.7040375   4.6468517
  10.3440012   6.6404997  13.7019988  10.4630012   7.2144997  14.4589988
  11.0000012   5.9524997  13.8159988  10.4489757   6.6261079  13.8210825
  10.6920012   2.7354997   5.4549988  10.3460012   3.3534997   6.0999988
  11.3510012   3.2364997   4.9739988  10.7337826   2.8875802   5.4780971
   7.6160012  17.1014997   2.5269988   7.7760012  17.9004997   2.0259988
   7.4180012  17.4074997   3.4119988   7.6111649  17.2524469   2.5779815
   6.3500012   3.7984997   2.1419988   6.2670012   4.6874997   2.4889988
   7.2400012   3.5334997   2.3739988   6.4589469   3.8841430   2.2207626
  16.5490012   4.5474997  14.5369988  15.6320012   4.8104997  14.4489988
  16.8840012   4.5444997  13.6399988  16.4689900   4.5830224  14.4037919
  15.1510012   8.2984997   8.6319988  14.3530012   7.8834997   8.3039988
  15.5960012   7.6074997   9.1229988  15.1019885   8.1483543   8.6534889
   4.6090012  14.2264997   1.2029988   5.2010012  14.9254997   1.4789988
   5.0680012  13.7934997   0.4829988   4.7521142  14.2637049   1.1434830
   2.9250012   6.8904997   0.3189988   2.8800012   7.8294997   0.4969988
   2.0370012   6.6544997   0.0489988   2.7988574   6.9871892   0.3068912
  16.2370012  17.5544997  10.2549988  16.0820012  18.2324997   9.5979988
  17.1700012  17.6264997  10.4579988  16.3418500  17.6570170  10.1925119
   3.7330012   1.6724997   8.9919988   3.5040012   1.7314997   8.0639988
   3.2900012   0.8804997   9.2979988   3.6418530   1.5735753   8.9064786
   2.6630012  15.6124997   5.1519988   1.8310012  16.0854997   5.1799988
   3.2090012  16.1224997   4.5539988   2.6229739  15.7461871   5.0749716
   1.9510012  18.2254997  16.4819988   2.4920012  18.0084997  17.2419988
   1.4700012  17.4194997  16.2929988   1.9599345  18.0869514  16.5603076
   6.5490012  17.1444997  18.1029988   7.3160012  16.6854997  18.4439988
   6.5270012  16.9184997  17.1729988   6.6511434  17.0510409  18.0240043
  10.6410012  16.6524997  -0.5220012   9.9970012  16.0214997  -0.2010012
  11.4030012  16.1214997  -0.7540012  10.6558077  16.4942920  -0.5093989
  13.1260012  15.5244997  16.8319988  12.7750012  14.6684997  17.0749988
  13.8520012  15.6674997  17.4389988  13.1760769  15.4265636  16.9473619
  15.2450012  16.4694997  -0.2880012  15.5280012  15.6754997   0.1639988
  15.9850012  16.7024997  -0.8490012  15.3837486  16.3922803  -0.3019302
   1.8580012  12.0354997  17.4369988   2.0020012  11.1334997  17.1499988
   1.0860012  12.3214997  16.9489988   1.7733323  11.9508261  17.3317881
   6.2000012  12.3794997  -0.4310012   6.2640012  11.5854997   0.0999988
   6.8530012  12.2604997  -1.1210012   6.2970241  12.2547148  -0.4515683
   8.5140012  12.0054997  16.8689988   8.1850012  12.2764997  16.0119988
   8.6660012  11.0644997  16.7819988   8.4894809  11.9153862  16.7398244
  11.5520012  13.4264997  -0.6950012  11.2830012  13.6064997   0.2059988
  11.3460012  12.5004997  -0.8260012  11.4873825  13.3260152  -0.5894786
  14.2480012  11.9214997  14.2529988  14.9940012  12.5094997  14.1329988
  13.4910012  12.5034997  14.3159988  14.2477554  12.0807011  14.2450907
   2.6910012   9.2354997  16.8569988   3.0990012   8.3784997  16.7359988
   2.4310012   9.2504997  17.7779988   2.7117568   9.1200807  16.9649588
   7.3490012  10.3514997   1.8749988   6.8890012   9.8674997   2.5609988
   7.6040012   9.6834997   1.2389988   7.3204902  10.1948731   1.8829334
   6.6380012   8.2444997  14.2309988   6.0200012   8.9194997  14.5109988
   6.9820012   8.5654997  13.3979988   6.5999615   8.3802721  14.1566581
   8.4200012   8.5944997   0.1369988   8.2400012   8.4404997  -0.7900012
   9.3700012   8.7024997   0.1819988   8.5237776   8.5880175   0.0161843
  11.6580012  10.7164997  17.5079988  12.6110012  10.7994997  17.4809988
  11.4970012  10.0044997  18.1279988  11.7666426  10.6316746  17.5880579
  17.8100012  10.9494997  -0.4170012  17.5360012  10.5244997  -1.2300012
  17.8490012  11.8804997  -0.6340012  17.7777699  11.0172484  -0.5576390
   6.9770012   5.5994997  15.3129988   7.1270012   4.8704997  14.7109988
   6.9800012   6.3764997  14.7539988   6.9979302   5.6047851  15.1550692
   7.3900012   3.9694997  12.8059988   7.9260012   4.4204997  12.1539988
   6.5380012   3.8614997  12.3829988   7.3482178   4.0166390  12.6595756
   8.9720012   9.4084997  13.0449988   9.7220012   9.2524997  12.4719988
   8.6330012  10.2604997  12.7699988   9.0288921   9.5022968  12.9293561
  13.3870012   7.2234997  18.0739988  13.5800012   6.2924997  17.9619988
  14.2450012   7.6484997  18.0639988  13.5293020   7.1536389  18.0573361
  14.7040012  10.0124997  16.1509988  14.4230012  10.7214997  15.5739988
  15.6470012   9.9394997  15.9999988  14.7929027  10.0997646  16.0515551
   5.4560012   6.7974997  17.2249988   4.6890012   6.2654997  17.0149988
   6.1350012   6.4874997  16.6249988   5.4427022   6.6827506  17.1151648
   8.1960012   1.4254997  13.2369988   8.0970012   2.3724997  13.1319988
   7.4530012   1.0534997  12.7619988   8.0820564   1.5045902  13.1584560
   9.4600012   5.7474997  16.8009988   9.2240012   5.5274997  17.7029988
   8.6760012   5.5404997  16.2909988   9.3218628   5.6894760  16.8553932
  12.1750012   4.8744997  15.8769988  11.2280012   4.9064997  16.0089988
  12.4880012   4.2494997  16.5299988  12.0875475   4.7943207  15.9834455
  13.8090012   3.5084997  17.8819988  13.7130012   2.5564997  17.8759988
  13.4880012   3.7774997  18.7419988  13.7524070   3.4144035  17.9975441
   3.6360012   4.7184997  16.9289988   3.8480012   4.0114997  16.3189988
   3.5250012   4.2804997  17.7729988   3.6499721   4.5627084  16.9596843
   8.4170012   0.7194997  15.9089988   9.1290012   0.0794997  15.8949988
   8.3160012   0.9864997  14.9949988   8.5007939   0.6679938  15.7835650
   8.7710012   2.4024997  17.9619988   8.6390012   1.9264997  17.1419988
   8.1720012   3.1464997  17.9069988   8.6719071   2.4379618  17.8422886
   8.3170012  19.2854997   1.1389988   9.2500012  19.4434997   1.2819988
   8.0530012  19.9604997   0.5139988   8.4089510  19.3983611   1.0740741
   1.8860012  13.9214997   0.6209988   2.8000012  14.0004997   0.8949988
   1.8930012  13.2344997  -0.0450012   2.0121131  13.8393961   0.5684393
   0.5350012  19.3144997   5.6989988  -0.1119988  18.8524997   5.1659988
   0.8890012  18.6424997   6.2809988   0.4943849  19.1604723   5.7047959
   1.4050012  17.3954997   7.5029988   1.0700012  16.5154997   7.6749988
   1.6270012  17.7404997   8.3679988   1.3891783  17.3217501   7.6434208
  18.9530012  18.2044997  10.4839988  18.9320012  18.3894997  11.4229988
  19.6440012  18.7734997  10.1429988  19.0434618  18.3066606  10.5663864
  18.5170012  17.7724997  13.4059988  18.0290012  17.0364997  13.0349988
  19.0660012  17.3784997  14.0839988  18.5244872  17.6186249  13.4469160
  16.9670012  13.5614997  18.0439988  16.1010012  13.4564997  18.4379988
  17.3440012  14.3204997  18.4899988  16.8993308  13.6496900  18.1582393
  18.2680012  11.8184997   3.5579988  19.1180012  12.2394997   3.6849988
  18.2740012  11.0784997   4.1649988  18.3851372  11.7760803   3.6574344
  18.6630012   9.8714997   5.3819988  17.9360012   9.3924997   5.7789988
  19.2440012  10.0774997   6.1139988  18.6419375   9.8337090   5.5354129
  18.4220012  12.6564997  10.3289988  19.2550012  12.2784997  10.0489988
  18.5340012  13.5994997  10.2099988  18.5512647  12.7322218  10.2745487
  16.9080012  15.5344997  12.6359988  16.2610012  15.8594997  13.2619988
  16.3910012  15.0944997  11.9619988  16.7494029  15.5195004  12.6305827
  18.9310012   9.7724997   1.7729988  18.4090012  10.1294997   1.0539988
  18.8980012  10.4474997   2.4509988  18.8551634   9.9125413   1.7663145
  17.2800012   7.0124997   0.3239988  17.3760012   7.6794997  -0.3570012
  17.1400012   6.1964997  -0.1580012  17.2742135   6.9934500   0.1658491
  16.4490012   8.3924997   5.9449988  16.2990012   7.4474997   5.9239988
  16.0960012   8.6734997   6.7879988  16.3806625   8.3010441   6.0562346
   1.4850012  10.4704997   9.9549988   1.6690012  10.3884997   9.0189988
   2.3340012  10.3464997  10.3789988   1.6250139  10.4425003   9.8841455
  17.3060012  10.3624997  15.5829988  17.8890012   9.6284997  15.7749988
  17.8700012  11.1344997  15.6299988  17.4619769  10.3664227  15.6156159
  18.8020012   8.2654997  16.2679988  17.9390012   7.8864997  16.1019988
  19.4070012   7.5264997  16.1939988  18.7655979   8.1138023  16.2352817
  16.5270012   4.4204997  -0.5590012  17.1380012   4.0494997   0.0779988
  15.6910012   3.9994997  -0.3630012  16.4975032   4.3127554  -0.4452965
  16.1600012   5.9754997   4.4069988  16.4400012   5.0684997   4.5309988
  16.9190012   6.4094997   4.0179988  16.3009277   5.9100942   4.3713682
  16.7720012   6.5564997   9.8429988  17.7050012   6.7684997   9.8089988
  16.5370012   6.6584997  10.7649988  16.8678036   6.5992769   9.9629976
  16.8010012   7.2934997  12.6189988  15.9580012   7.5614997  12.9849988
  17.2430012   8.1154997  12.4079988  16.7454158   7.4413291  12.6405491
   1.0820012   5.7414997  16.0959988   2.0020012   5.6194997  16.3319988
   0.6330012   4.9914997  16.4849988   1.1471580   5.6233727  16.1809006
  19.0840012   1.2734997  17.9719988  19.4340012   0.6194997  17.3669988
  19.2310012   2.1104997  17.5329988  19.1518419   1.2971591  17.8297118
  16.7730012   3.2384997   4.4549988  16.9560012   2.7894997   5.2809988
  16.1740012   2.6534997   3.9919988  16.7170202   3.0979975   4.5053275
   2.3030012   4.0534997   8.9869988   2.7490012   3.2614997   9.2889988
   2.7700012   4.7694997   9.4179988   2.4270172   4.0420624   9.0864820
   0.6070012   7.0524997  10.0559988   1.0990012   6.8314997   9.2649988
   0.9700012   7.8934997  10.3369988   0.7233126   7.1358357   9.9857531
  18.6040012   3.3824997  16.3219988  17.6860012   3.6534997  16.2859988
  18.7270012   2.8474997  15.5369988  18.4951066   3.3472892  16.2110487
  18.6400012   3.3054997   0.9829988  19.0520012   2.5844997   0.5079988
  19.3220012   3.9754997   1.0419988  18.7885885   3.2972368   0.9258915
   0.9210012   3.3104997   4.1099988  -0.0039988   3.5194997   3.9809988
   1.3750012   3.7944997   3.4209988   0.8557368   3.4045994   3.9991226
  15.6920012  18.2944997   6.0559988  16.3440012  17.9474997   5.4479988
  16.2020012  18.7834997   6.7019988  15.8502637  18.3130597   6.0600236
   0.8850012   2.0484997  12.4549988   0.2200012   1.8024997  13.0979988
   0.4420012   2.6704997  11.8769988   0.7340956   2.0988632  12.4649352
   3.0770012  15.2234997  16.5989988   2.2560012  15.3984997  16.1389988
   2.8240012  15.1504997  17.5199988   2.9306164  15.2375622  16.6604923
   6.0310012  16.1984997  12.8579988   5.6060012  17.0074997  12.5749988
   6.9350012  16.2834997  12.5559988   6.0950271  16.3208469  12.7783776
  10.3420012  17.5974997  15.8169988  10.5270012  17.2634997  16.6949988
  11.1880012  17.9064997  15.4949988  10.4817539  17.5936047  15.8935605
  12.6870012  18.8834997  15.0609988  13.3640012  18.2504997  14.8209988
  13.0090012  19.2844997  15.8679988  12.8231637  18.8511154  15.1372793
  17.6040012   1.4724997  14.1409988  16.7920012   1.7974997  13.7529988
  17.8370012   0.7124997  13.6079988  17.5243423   1.4142436  14.0158253
   3.4330012  19.4544997  12.9049988   2.7120012  19.8944997  12.4539988
   3.0670012  19.2034997  13.7539988   3.2849804  19.4807698  12.9579840
   5.9000012  19.0544997  11.9349988   5.0350012  19.1264997  12.3389988
   5.8450012  19.6014997  11.1509988   5.7742085  19.1382685  11.8843362
  10.6100012  18.9424997  11.1099988  10.1540012  19.4714997  10.4559988
  10.7730012  19.5454997  11.8359988  10.5695585  19.0964468  11.1185062
  12.9380012  17.8204997  12.0549988  12.0330012  17.9854997  11.7899988
  13.3670012  18.6734997  11.9899988  12.8720799  17.9584483  12.0099182
  15.5420012  19.3904997  12.3499988  15.3600012  20.3064997  12.1399988
  15.7190012  18.9804997  11.5039988  15.5410210  19.4604822  12.2067885
   2.8470012  18.0774997   9.8149988   2.8290012  17.6524997  10.6729988
   3.6520012  17.7594997   9.4069988   2.9533875  17.9763812   9.8771655
   4.9890012  16.7874997   8.4699988   4.7700012  15.8714997   8.6399988
   5.8130012  16.9274997   8.9359988   5.0704420  16.6810520   8.5562774
   7.5260012  17.2574997   9.3189988   7.7390012  16.3694997   9.0319988
   7.5900012  17.2234997  10.2729988   7.5638232  17.1313102   9.4087397
  11.0340012   2.9214997   8.4629988  10.3600012   2.2924997   8.7189988
  11.5980012   2.4374997   7.8599988  11.0179230   2.7698744   8.4165340
  16.1770012   1.0294997   8.5759988  16.7810012   1.5764997   8.0739988
  15.3070012   1.3484997   8.3359988  16.1421241   1.1475806   8.4747654
  17.9040012   2.1674997   6.9089988  18.5160012   1.6534997   6.3829988
  18.2860012   3.0454997   6.9329988  18.0394540   2.2157140   6.8401830
   3.3610012   1.5554997   6.2849988   2.5840012   1.3214997   5.7779988
   3.8910012   0.7584997   6.2939988   3.3262330   1.4156988   6.2167742
   2.1970012   1.3534997   2.0889988   2.6360012   1.9644997   1.4969988
   1.5640012   1.8914997   2.5629988   2.1714514   1.5099257   2.0720930
   7.9400012   1.4824997   6.0989988   8.8150012   1.8704997   6.0689988
   7.8040012   1.2674997   7.0209988   8.0413695   1.5065184   6.2196440
  13.4970012   1.5124997   7.7479988  13.5730012   1.6074997   6.7979988
  13.2220012   0.6044997   7.8769988  13.4702321   1.4027867   7.6355079
  14.8500012   1.5384997   3.4399988  14.1480012   2.1534997   3.2309988
  14.4060012   0.7004997   3.5709988  14.6936330   1.5095783   3.4290328
   2.0980012  17.3014997   2.9869988   1.4130012  17.2634997   2.3189988
   2.1020012  18.2144997   3.2749988   2.0048193  17.4197016   2.9345284
   4.0580012   3.2694997   0.5309988   4.5500012   2.6394997   0.0039988
   4.6820012   3.5654997   1.1949988   4.2095446   3.2233199   0.5485980
   9.0840012   3.5624997   2.9879988   9.2620012   2.9164997   3.6709988
   9.0310012   4.3964997   3.4559988   9.1011829   3.5867985   3.1445940
  10.9630012  18.5114997   1.3839988  11.8290012  18.8774997   1.2059988
  10.7160012  18.0714997   0.5699988  11.0482392  18.5021756   1.2496289
  17.6720012  18.0744997   4.0629988  17.4770012  17.3264997   3.4979988
  17.6330012  18.8324997   3.4799988  17.6400380  18.0746099   3.9068384
   3.3190012   2.0694997  15.8029988   2.9530012   1.3044997  16.2459988
   4.2320012   2.0984997  16.0899988   3.3922790   1.9687224  15.9024070
   5.2920012   1.4204997  17.3389988   6.1900012   1.1464997  17.1539988
   4.9050012   0.6774997  17.8029988   5.3626612   1.2825914  17.3763643
   3.9160012  18.2214997   0.0119988   3.6490012  18.5084997   0.8849988
   4.6880012  17.6754997   0.1639988   3.9837488  18.1870294   0.1521050
  13.7130012   0.7524997  17.5209988  13.7900012   0.3264997  18.3749988
  14.6070012   0.7664997  17.1779988  13.8443428   0.6960879  17.5915310
  16.8890012  16.8254997  16.2129988  16.1070012  16.6394997  15.6939988
  16.8170012  17.7544997  16.4309988  16.7721777  16.9256492  16.1714048
  31.2950012  10.7114997   6.2439988  31.3840012  11.6554997   6.1119988
  30.6570012  10.4364997   5.5859988  31.2209081  10.8034830   6.1369614
  30.2280012   9.9664997   9.6629988  30.1900012   9.3204997  10.3679988
  29.9060012   9.5004997   8.8919988  30.1792333   9.8149408   9.6552978
  22.5970012   9.5814997  11.2559988  22.6380012   8.9554997  11.9789988
  23.3000012  10.2054997  11.4379988  22.6976363   9.5801196  11.3796044
  33.9340012  12.9054997   7.9639988  33.4940012  12.1854997   8.4149988
  33.9210012  13.6264997   8.5939988  33.8720226  12.9043731   8.1108494
  23.5200012  14.0314997   9.7909988  23.1510012  13.2294997   9.4209988
  24.4610012  13.8624997   9.8369988  23.5967289  13.8990153   9.7466316
  20.1300012   7.6914997   5.1839988  19.6830012   8.5374997   5.1649988
  19.5690012   7.1114997   4.6679988  19.9929900   7.7289916   5.1116801
  20.8410012   9.8534997   7.3099988  21.0540012   9.0834997   7.8369988
  21.5790012   9.9424997   6.7059988  20.9698496   9.7601394   7.3005300
  31.0460012  18.0104997   8.1769988  31.6660012  17.3334997   7.9029988
  30.8380012  17.7924997   9.0849988  31.1026904  17.8883870   8.2623365
  28.6180012  12.3994997  10.0689988  28.9220012  11.7134997   9.4739988
  29.3390012  12.5174997  10.6869988  28.7570671  12.3216305  10.0711816
  37.2810012   4.0004997  10.9299988  37.3300012   4.6104997  11.6659988
  37.7060012   4.4614997  10.2069988  37.3451824   4.1463741  10.9330205
  31.7590012   6.7934997  10.3969988  31.9010012   5.8474997  10.4169988
  31.6520012   7.0004997   9.4679988  31.7639864   6.6919534  10.2742339
  24.9130012   4.8944997   7.6689988  24.9570012   5.7544997   7.2509988
  24.4560012   4.3424997   7.0349988  24.8572185   4.9375799   7.5260299
  32.6360012   5.0254997   6.0699988  33.2820012   4.6964997   6.6949988
  33.1460012   5.5434997   5.4469988  32.7934264   5.0504611   6.0713862
  21.5340012   7.2914997   8.4309988  22.1870012   6.7414997   8.8629988
  21.5580012   7.0174997   7.5139988  21.6266683   7.1791466   8.3662123
  26.6900012   8.8414997   7.6459988  27.3060012   8.3154997   8.1559988
  26.1040012   8.2014997   7.2429988  26.6950810   8.6829208   7.6613173
  37.6720012   5.4784997  13.1659988  36.9840012   6.1364997  13.0699988
  37.6880012   5.2814997  14.1019988  37.5798525   5.5420462  13.2794808
  23.7240012   3.8124997  11.7429988  23.5050012   4.3424997  10.9769988
  23.0560012   4.0394997  12.3899988  23.6037600   3.9156906  11.7256379
  31.0930012  13.3124997   5.2869988  30.7970012  12.9904997   4.4359988
  30.7680012  14.2124997   5.3279988  31.0086371  13.3900215   5.1761801
  26.2930012  11.4884997  12.0299988  25.5530012  12.0864997  12.1339988
  27.0070012  12.0424997  11.7149988  26.2882237  11.6452831  12.0016465
  34.4000012   4.3164997   8.0499988  34.1840012   3.5504997   8.5829988
  35.0550012   4.7884997   8.5629988  34.4590632   4.2755889   8.1922861
  23.3170012   5.7044997   9.6949988  23.9310012   6.3374997  10.0689988
  23.8290012   5.2324997   9.0389988  23.4702296   5.7272370   9.6574252
  24.7000012  13.4524997  12.8179988  24.6950012  14.3324997  12.4399988
  23.8470012  13.3694997  13.2429988  24.5839464  13.5616117  12.8237907
  20.8210012  13.1234997   3.5999988  20.5490012  13.3524997   2.7109988
  20.8670012  13.9614997   4.0599988  20.7900094  13.2681213   3.5405697
  34.4460012  14.7454997  10.3119988  33.5050012  14.8034997  10.4739988
  34.7230012  15.6514997  10.1749988  34.3544679  14.8759443  10.3156815
  34.7470012   3.0314997  11.7299988  34.0110012   3.6424997  11.6919988
  35.4300012   3.4464997  11.2029988  34.7386541   3.1711374  11.6535832
  27.7500012   1.1184997   9.1959988  27.6330012   0.1694997   9.1409988
  26.8950012   1.4504997   9.4689988  27.6183733   1.0335409   9.2253897
  32.6980012  16.5264997   6.9379988  33.1240012  15.8194997   6.4529988
  33.0150012  17.3274997   6.5209988  32.7991019  16.5380994   6.8153130
  33.8580012  14.4274997   5.4459988  33.6000012  13.7374997   4.8349988
  33.9290012  13.9844997   6.2919988  33.8322856  14.2732124   5.4766885
  35.5440012  12.9934997  13.9239988  35.6840012  12.4024997  13.1839988
  35.7110012  13.8664997  13.5669988  35.5856778  13.0306426  13.7746965
  30.0170012   9.9554997   3.6959988  29.3050012  10.4904997   3.3439988
  30.7080012  10.0114997   3.0359988  30.0130132  10.0362543   3.5586289
  30.0700012   8.4134997   0.7349988  30.7710012   8.4354997   1.3859988
  30.3730012   7.7854997   0.0789988  30.2067830   8.3316566   0.7353711
  37.3860012   9.3334997  11.9899988  36.7330012  10.0284997  12.0789988
  37.8510012   9.5434997  11.1799988  37.3595390   9.4569425  11.8926883
  33.4220012  10.1654997   4.6479988  32.6900012  10.3934997   5.2209988
  33.8700012   9.4514997   5.1029988  33.3823095  10.1002571   4.7879119
  33.3200012   8.3394997  13.7149988  33.4000012   9.1024997  14.2869988
  32.7180012   8.6184997  13.0249988  33.2495756   8.4817134  13.7000589
  25.0680012  10.7954997   6.5299988  24.7370012  10.4254997   5.7119988
  25.6560012  10.1254997   6.8769988  25.1021873  10.6541156   6.4648102
  26.4340012  14.2234997   9.2119988  26.3400012  13.6454997   8.4549988
  27.1640012  13.8524997   9.7079988  26.5197981  14.0942390   9.1754165
  25.4340012   9.5644997  10.1639988  26.0000012   9.6854997   9.4009988
  25.7530012  10.2014997  10.8029988  25.5545786   9.6671884  10.1460040
  31.7430012  15.0674997  10.8979988  31.5030012  15.7294997  11.5459988
  31.5450012  14.2334997  11.3229988  31.6833808  15.0453134  11.0441524
  26.3140012  13.9634997  14.8809988  26.0030012  14.7454997  15.3359988
  25.6640012  13.8104997  14.1949988  26.1835558  14.0499105  14.8505871
  32.2930012   9.3274997   2.3329988  32.8730012   9.4774997   3.0799988
  32.7070012   9.7984997   1.6099988  32.4282830   9.4116841   2.3374134
  23.2340012  10.1614997  14.1099988  23.3050012  10.8124997  14.8079988
  22.3440012  10.2644997  13.7749988  23.1233117  10.2645936  14.1602700
  30.0200012  16.0644997   5.7679988  30.4940012  16.3594997   6.5459988
  29.4570012  16.8024997   5.5349988  30.0087653  16.2046932   5.8430136
  24.5540012  16.0354997  15.6439988  24.5610012  15.8994997  14.6969988
  23.6380012  15.9174997  15.8959988  24.4311714  16.0009430  15.5484666
  35.9920012   1.0774997   2.1459988  35.0920012   1.2164997   2.4409988
  36.2440012   1.9084997   1.7439988  35.9028702   1.2089074   2.1320205
  24.0580012   9.8654997   4.1199988  23.7660012  10.6334997   3.6289988
  23.3840012   9.2054997   3.9569988  23.9269081   9.8814406   4.0307340
  37.1810012  15.4434997   0.5219988  37.2550012  16.3824997   0.6929988
  38.0870012  15.1384997   0.4659988  37.3135100  15.5306722   0.5378119
  20.1510012  12.2284997  12.9349988  19.6500012  12.2004997  12.1199988
  20.1560012  11.3224997  13.2439988  20.0831526  12.1022278  12.8652872
  19.9010012  15.0084997   9.8189988  20.8470012  14.8644997   9.7999988
  19.7890012  15.7924997  10.3559988  20.0152727  15.0948046   9.8890072
  38.0990012  15.6744997  15.5009988  38.0500012  14.7194997  15.4639988
  37.2720012  15.9424997  15.9019988  37.9804940  15.5798998  15.5501375
  29.0780012  15.2484997  14.3769988  29.1650012  16.0744997  14.8519988
  28.2140012  14.9184997  14.6259988  28.9731964  15.3169878  14.4756549
  29.4920012  19.0204997   4.1829988  29.4170012  18.8994997   3.2369988
  29.5250012  19.9704997   4.3019988  29.4861848  19.1322500   4.0694834
  23.1450012  17.8094997   5.9639988  23.2980012  17.4614997   6.8429988
  22.2950012  17.4534997   5.7089988  23.0508962  17.7136650   6.0498340
  32.5940012  18.1744997   1.1849988  32.9690012  17.4304997   0.7149988
  32.5980012  17.9044997   2.1039988  32.6458915  18.0361486   1.2447824
  32.2630012  18.1004997   3.9349988  31.3270012  18.2004997   4.1129988
  32.5430012  17.3914997   4.5129988  32.1728255  18.0182711   4.0375391
  35.2510012   7.1674997  15.9809988  34.8440012   7.6484997  15.2599988
  35.2920012   6.2624997  15.6729988  35.2008437   7.1109374  15.8406683
  22.4000012  13.5514997  13.9779988  22.6160012  13.1904997  14.8369988
  21.5450012  13.1774997  13.7679988  22.3139292  13.4514111  14.0673386
  25.0190012   2.0214997   9.9729988  24.1570012   1.9344997   9.5659988
  24.9960012   2.8774997  10.4009988  24.8980330   2.1252765   9.9751863
  29.6820012   1.7434997  13.3479988  30.1020012   1.3284997  14.1009988
  28.7490012   1.5654997  13.4649988  29.6133644   1.6625900  13.4669539
  33.0080012   5.4994997  14.2009988  32.4940012   5.3734997  14.9989988
  32.8530012   6.4114997  13.9569988  32.9166852   5.6056132  14.2772158
  33.7710012  10.3604997  -0.0370012  33.8130012  10.1374997  -0.9670012
  34.6200012  10.7594997   0.1529988  33.8915396  10.3839155  -0.1386373
  29.3430012   4.2364997   0.6329988  29.0900012   4.2554997   1.5559988
  29.0870012   3.3644997   0.3319988  29.2737790   4.1212437   0.7186263
  25.1100012   6.9874997  11.0679988  24.4680012   6.9464997  11.7769988
  25.1470012   7.9134997  10.8309988  25.0271324   7.1071559  11.1329824
  25.1070012   7.2084997   5.9799988  24.2140012   6.8674997   5.9219988
  25.5570012   6.8314997   5.2249988  25.0457305   7.1108484   5.8699177
  30.6420012   7.6244997   4.7969988  30.2330012   8.4394997   4.5059988
  31.3630012   7.4844997   4.1829988  30.6834537   7.7172018   4.6741342
  29.7440012   7.7994997  16.2849988  29.1820012   7.0954997  16.6059988
  30.5710012   7.6794997  16.7529988  29.7787095   7.6867883  16.3922330
  31.6470012   7.0704997   7.6109988  31.4520012   7.6754997   6.8959988
  31.8280012   6.2364997   7.1769988  31.6447614   7.0406300   7.4544405
  22.8600012   7.3074997  12.9349988  22.8220012   7.7074997  13.8039988
  22.3690012   6.4904997  13.0259988  22.7884684   7.2518069  13.0661059
  26.2260012   4.6814997  -0.2660012  25.7950012   4.2364997   0.4639988
  25.5080012   5.0534997  -0.7780012  26.0699438   4.6708940  -0.2353201
  19.4680012   4.4234997   6.7859988  20.0990012   4.3944997   7.5049988
  19.9170012   3.9984997   6.0559988  19.6150774   4.3620492   6.7856553
  20.7420012   5.1694997   2.2099988  21.2160012   5.7604997   1.6249988
  20.0250012   5.7004997   2.5569988  20.7099341   5.3220867   2.1768836
  30.9110012   8.7084997  12.2829988  31.2340012   8.0774997  11.6399988
  30.4710012   8.1734997  12.9429988  30.8956895   8.5498441  12.2842850
  27.6880012   4.6354997   7.0669988  26.7770012   4.6924997   7.3549988
  28.1940012   4.5754997   7.8769988  27.6315413   4.6351985   7.2160622
  22.5170012   6.2644997   5.8929988  21.6270012   6.3644997   5.5529988
  22.8130012   5.4224997   5.5469988  22.4352823   6.1643545   5.7997213
  26.1700012   6.2644997   3.5499988  27.1010012   6.3934997   3.7279988
  25.9550012   6.9344997   2.8999988  26.2684247   6.3726565   3.4865747
  32.0930012   3.8704997  10.3309988  31.4170012   4.0014997  10.9949988
  31.6080012   3.7154997   9.5209988  31.9347145   3.8674905  10.3124517
  24.8440012   7.4594997   1.1169988  24.3010012   7.0794997   0.4249988
  25.6770012   7.6534997   0.6879988  24.8824399   7.4338124   0.9644526
  35.3810012  19.5424997  16.6079988  35.5810012  19.9664997  15.7729988
  36.0360012  19.8854997  17.2149988  35.4970051  19.6469648  16.5757836
  22.9790012  12.0164997  16.2159988  23.7110012  12.2704997  16.7769988
  22.1990012  12.2204997  16.7309988  22.9738232  12.0789177  16.3625760
  29.0080012   7.4234997   8.9539988  29.5730012   6.8764997   8.4069988
  28.8610012   6.9014997   9.7419988  29.0652918   7.2782024   8.9858454
  24.0100012   3.5594997   5.3719988  23.6930012   2.6574997   5.3369988
  24.7920012   3.5614997   4.8189988  24.0722284   3.4361628   5.2924783
  27.6350012   5.8114997  11.3679988  26.7990012   6.2654997  11.4779988
  28.1590012   6.0874997  12.1199988  27.5914414   5.9109376  11.4847136
  28.1790012  12.0244997   3.0519988  27.4340012  11.5174997   2.7299988
  28.0450012  12.0734997   3.9989988  28.0588776  11.9616940   3.1358647
  35.3290012  11.1574997  11.8389988  35.9710012  11.6144997  11.2949988
  34.4990012  11.2704997  11.3759988  35.3045963  11.2352704  11.7020177
  32.0770012   4.8384997   1.2519988  31.1380012   4.9504997   1.0999988
  32.3740012   5.6954997   1.5579988  31.9887666   4.9696443   1.2725768
  29.6980012  12.2084997  14.2889988  29.3530012  11.8274997  15.0959988
  29.4980012  13.1424997  14.3609988  29.6238061  12.2825228  14.4090961
  32.7950012   6.7054997   2.9119988  33.6870012   6.5684997   3.2309988
  32.8520012   7.4964997   2.3759988  32.9246285   6.7936660   2.8831691
  23.3040012  11.3194997   8.8219988  24.0490012  11.3174997   8.2209988
  23.3820012  10.4964997   9.3039988  23.4165518  11.2079315   8.8048929
  30.3050012  13.4834997   2.0779988  30.0090012  14.3094997   2.4589988
  29.6020012  12.8634997   2.2739988  30.1694914  13.5128199   2.1566443
  20.3120012   9.7804997  14.1369988  20.5350012   9.3624997  14.9689988
  19.7100012   9.1674997  13.7139988  20.2611759   9.6404668  14.1937022
  27.3280012   9.2974997  16.3499988  27.0320012   9.1314997  15.4549988
  28.2600012   9.0774997  16.3389988  27.4134166   9.2450640  16.2260536
  31.9490012  14.6704997  14.2399988  31.0480012  14.8534997  13.9719988
  31.9830012  14.9294997  15.1609988  31.8303041  14.7305512  14.3278197
  37.6800012   6.9154997   2.6069988  37.1260012   6.5194997   1.9349988
  37.7800012   7.8254997   2.3289988  37.6177059   6.9843586   2.4774401
  37.6430012  12.7154997  15.4439988  36.7920012  12.9534997  15.0769988
  38.2340012  12.6984997  14.6909988  37.6062487  12.7458258  15.2918893
  35.9750012  15.7014997   3.0719988  35.6020012  14.8754997   3.3809988
  36.2530012  15.5184997   2.1749988  35.9615630  15.5637303   2.9929626
  33.1360012  10.5094997  10.0929988  32.2070012  10.2774997  10.0659988
  33.5870012   9.7324997   9.7629988  33.0699216  10.3727238  10.0446917
  25.6790012  14.8374997   6.2259988  26.2060012  15.6104997   6.0259988
  24.7990012  15.0624997   5.9249988  25.6321773  14.9738005   6.1579010
  21.4340012   9.6994997   0.8129988  22.0500012  10.3264997   1.1929988
  20.5720012  10.0154997   1.0849988  21.4017698   9.8279430   0.9017183
  27.1060012  12.5004997   5.8029988  26.8650012  13.4254997   5.8439988
  26.3650012  12.0414997   6.1989988  26.9728409  12.5651421   5.8621377
  27.6210012  16.6494997  12.1179988  27.9830012  17.5044997  11.8839988
  28.1520012  16.3574997  12.8579988  27.7424473  16.7271060  12.1860855
  25.7890012  17.5224997   5.3479988  24.8390012  17.6274997   5.3989988
  26.1410012  18.3424997   5.6929988  25.7064203  17.6478314   5.4016650
  31.1650012  12.7484997  11.8179988  30.7390012  12.5214997  12.6449988
  31.7450012  12.0104997  11.6359988  31.1851868  12.6175299  11.9065830
  33.3680012  13.6774997   0.8919988  33.7210012  13.2974997   1.6969988
  32.4190012  13.5844997   0.9789988  33.2880441  13.6129596   1.0138559
  33.8230012  17.3004997  14.2879988  33.2220012  16.7454997  13.7919988
  34.1050012  17.9674997  13.6619988  33.7788519  17.3146841  14.1354952
  37.8710012  18.1574997   1.0929988  38.6150012  18.7434997   0.9529988
  37.1770012  18.7254997   1.4269988  37.8790292  18.3145582   1.1189961
  21.9460012   4.5334997  13.6949988  21.0530012   4.8724997  13.6269988
  21.8470012   3.6784997  14.1129988  21.8104164   4.4642588  13.7422235
  34.2340012  12.3504997   3.1189988  33.9560012  11.6224997   3.6749988
  35.1610012  12.4694997   3.3239988  34.3213124  12.2668802   3.2228845
  21.5970012  16.3384997  12.1299988  21.8140012  15.4064997  12.0989988
  21.8430012  16.6124997  13.0129988  21.6599549  16.2480636  12.2451763
  27.4590012  14.7894997  -0.6610012  27.6980012  14.0414997  -1.2080012
  27.1900012  14.4014997   0.1719988  27.4553675  14.6346638  -0.6233135
  26.3960012  14.3594997   1.7959988  26.5420012  13.8394997   2.5859988
  26.3930012  15.2664997   2.1019988  26.4155989  14.4108853   1.9456088
  22.8490012  11.6124997   2.3059988  22.1630012  11.9644997   2.8729988
  23.3710012  12.3754997   2.0589988  22.8256852  11.7638578   2.3502118
  30.6800012   4.2744997  12.5849988  31.3790012   4.3484997  13.2349988
  30.2990012   3.4104997  12.7389988  30.7241767   4.1677624  12.6948322
  31.4650012   3.9264997   3.6819988  31.6850012   4.3984997   2.8789988
  32.0230012   4.3214997   4.3519988  31.5704968   4.0444285   3.6627331
  29.1330012  16.0574997   2.5449988  28.3170012  16.5544997   2.5969988
  29.6630012  16.5324997   1.9049988  29.0929161  16.1897722   2.4655956
  28.6650012   5.6544997   4.5169988  29.4770012   6.1594997   4.5629988
  28.4200012   5.5094997   5.4309988  28.7430520   5.7040375   4.6468517
  29.2000012   6.6404997  13.7019988  29.3190012   7.2144997  14.4589988
  29.8560012   5.9524997  13.8159988  29.3049757   6.6261079  13.8210825
  29.5480012   2.7354997   5.4549988  29.2020012   3.3534997   6.0999988
  30.2070012   3.2364997   4.9739988  29.5897826   2.8875802   5.4780971
  26.4720012  17.1014997   2.5269988  26.6320012  17.9004997   2.0259988
  26.2740012  17.4074997   3.4119988  26.4671649  17.2524469   2.5779815
  25.2060012   3.7984997   2.1419988  25.1230012   4.6874997   2.4889988
  26.0960012   3.5334997   2.3739988  25.3149469   3.8841430   2.2207626
  35.4050012   4.5474997  14.5369988  34.4880012   4.8104997  14.4489988
  35.7400012   4.5444997  13.6399988  35.3249900   4.5830224  14.4037919
  34.0070012   8.2984997   8.6319988  33.2090012   7.8834997   8.3039988
  34.4520012   7.6074997   9.1229988  33.9579885   8.1483543   8.6534889
  23.4650012  14.2264997   1.2029988  24.0570012  14.9254997   1.4789988
  23.9240012  13.7934997   0.4829988  23.6081142  14.2637049   1.1434830
  21.7810012   6.8904997   0.3189988  21.7360012   7.8294997   0.4969988
  20.8930012   6.6544997   0.0489988  21.6548574   6.9871892   0.3068912
  35.0930012  17.5544997  10.2549988  34.9380012  18.2324997   9.5979988
  36.0260012  17.6264997  10.4579988  35.1978500  17.6570170  10.1925119
  22.5890012   1.6724997   8.9919988  22.3600012   1.7314997   8.0639988
  22.1460012   0.8804997   9.2979988  22.4978530   1.5735753   8.9064786
  21.5190012  15.6124997   5.1519988  20.6870012  16.0854997   5.1799988
  22.0650012  16.1224997   4.5539988  21.4789739  15.7461871   5.0749716
  20.8070012  18.2254997  16.4819988  21.3480012  18.0084997  17.2419988
  20.3260012  17.4194997  16.2929988  20.8159345  18.0869514  16.5603076
  25.4050012  17.1444997  18.1029988  26.1720012  16.6854997  18.4439988
  25.3830012  16.9184997  17.1729988  25.5071434  17.0510409  18.0240043
  29.4970012  16.6524997  -0.5220012  28.8530012  16.0214997  -0.2010012
  30.2590012  16.1214997  -0.7540012  29.5118077  16.4942920  -0.5093989
  31.9820012  15.5244997  16.8319988  31.6310012  14.6684997  17.0749988
  32.7080012  15.6674997  17.4389988  32.0320769  15.4265636  16.9473619
  34.1010012  16.4694997  -0.2880012  34.3840012  15.6754997   0.1639988
  34.8410012  16.7024997  -0.8490012  34.2397486  16.3922803  -0.3019302
  20.7140012  12.0354997  17.4369988  20.8580012  11.1334997  17.1499988
  19.9420012  12.3214997  16.9489988  20.6293323  11.9508261  17.3317881
  25.0560012  12.3794997  -0.4310012  25.1200012  11.5854997   0.0999988
  25.7090012  12.2604997  -1.1210012  25.1530241  12.2547148  -0.4515683
  27.3700012  12.0054997  16.8689988  27.0410012  12.2764997  16.0119988
  27.5220012  11.0644997  16.7819988  27.3454809  11.9153862  16.7398244
  30.4080012  13.4264997  -0.6950012  30.1390012  13.6064997   0.2059988
  30.2020012  12.5004997  -0.8260012  30.3433825  13.3260152  -0.5894786
  33.1040012  11.9214997  14.2529988  33.8500012  12.5094997  14.1329988
  32.3470012  12.5034997  14.3159988  33.1037554  12.0807011  14.2450907
  21.5470012   9.2354997  16.8569988  21.9550012   8.3784997  16.7359988
  21.2870012   9.2504997  17.7779988  21.5677568   9.1200807  16.9649588
  26.2050012  10.3514997   1.8749988  25.7450012   9.8674997   2.5609988
  26.4600012   9.6834997   1.2389988  26.1764902  10.1948731   1.8829334
  25.4940012   8.2444997  14.2309988  24.8760012   8.9194997  14.5109988
  25.8380012   8.5654997  13.3979988  25.4559615   8.3802721  14.1566581
  27.2760012   8.5944997   0.1369988  27.0960012   8.4404997  -0.7900012
  28.2260012   8.7024997   0.1819988  27.3797776   8.5880175   0.0161843
  30.5140012  10.7164997  17.5079988  31.4670012  10.7994997  17.4809988
  30.3530012  10.0044997  18.1279988  30.6226426  10.6316746  17.5880579
  36.6660012  10.9494997  -0.4170012  36.3920012  10.5244997  -1.2300012
  36.7050012  11.8804997  -0.6340012  36.6337699  11.0172484  -0.5576390
  25.8330012   5.5994997  15.3129988  25.9830012   4.8704997  14.7109988
  25.8360012   6.3764997  14.7539988  25.8539302   5.6047851  15.1550692
  26.2460012   3.9694997  12.8059988  26.7820012   4.4204997  12.1539988
  25.3940012   3.8614997  12.3829988  26.2042178   4.0166390  12.6595756
  27.8280012   9.4084997  13.0449988  28.5780012   9.2524997  12.4719988
  27.4890012  10.2604997  12.7699988  27.8848921   9.5022968  12.9293561
  32.2430012   7.2234997  18.0739988  32.4360012   6.2924997  17.9619988
  33.1010012   7.6484997  18.0639988  32.3853020   7.1536389  18.0573361
  33.5600012  10.0124997  16.1509988  33.2790012  10.7214997  15.5739988
  34.5030012   9.9394997  15.9999988  33.6489027  10.0997646  16.0515551
  24.3120012   6.7974997  17.2249988  23.5450012   6.2654997  17.0149988
  24.9910012   6.4874997  16.6249988  24.2987022   6.6827506  17.1151648
  27.0520012   1.4254997  13.2369988  26.9530012   2.3724997  13.1319988
  26.3090012   1.0534997  12.7619988  26.9380564   1.5045902  13.1584560
  28.3160012   5.7474997  16.8009988  28.0800012   5.5274997  17.7029988
  27.5320012   5.5404997  16.2909988  28.1778628   5.6894760  16.8553932
  31.0310012   4.8744997  15.8769988  30.0840012   4.9064997  16.0089988
  31.3440012   4.2494997  16.5299988  30.9435475   4.7943207  15.9834455
  32.6650012   3.5084997  17.8819988  32.5690012   2.5564997  17.8759988
  32.3440012   3.7774997  18.7419988  32.6084070   3.4144035  17.9975441
  22.4920012   4.7184997  16.9289988  22.7040012   4.0114997  16.3189988
  22.3810012   4.2804997  17.7729988  22.5059721   4.5627084  16.9596843
  27.2730012   0.7194997  15.9089988  27.9850012   0.0794997  15.8949988
  27.1720012   0.9864997  14.9949988  27.3567939   0.6679938  15.7835650
  27.6270012   2.4024997  17.9619988  27.4950012   1.9264997  17.1419988
  27.0280012   3.1464997  17.9069988  27.5279071   2.4379618  17.8422886
  27.1730012  19.2854997   1.1389988  28.1060012  19.4434997   1.2819988
  26.9090012  19.9604997   0.5139988  27.2649510  19.3983611   1.0740741
  20.7420012  13.9214997   0.6209988  21.6560012  14.0004997   0.8949988
  20.7490012  13.2344997  -0.0450012  20.8681131  13.8393961   0.5684393
  19.3910012  19.3144997   5.6989988  18.7440012  18.8524997   5.1659988
  19.7450012  18.6424997   6.2809988  19.3503849  19.1604723   5.7047959
  20.2610012  17.3954997   7.5029988  19.9260012  16.5154997   7.6749988
  20.4830012  17.7404997   8.3679988  20.2451783  17.3217500   7.6434208
  37.8090012  18.2044997  10.4839988  37.7880012  18.3894997  11.4229988
  38.5000012  18.7734997  10.1429988  37.8994618  18.3066606  10.5663864
  37.3730012  17.7724997  13.4059988  36.8850012  17.0364997  13.0349988
  37.9220012  17.3784997  14.0839988  37.3804872  17.6186249  13.4469160
  35.8230012  13.5614997  18.0439988  34.9570012  13.4564997  18.4379988
  36.2000012  14.3204997  18.4899988  35.7553308  13.6496900  18.1582393
  37.1240012  11.8184997   3.5579988  37.9740012  12.2394997   3.6849988
  37.1300012  11.0784997   4.1649988  37.2411372  11.7760803   3.6574344
  37.5190012   9.8714997   5.3819988  36.7920012   9.3924997   5.7789988
  38.1000012  10.0774997   6.1139988  37.4979375   9.8337090   5.5354129
  37.2780012  12.6564997  10.3289988  38.1110012  12.2784997  10.0489988
  37.3900012  13.5994997  10.2099988  37.4072647  12.7322218  10.2745487
  35.7640012  15.5344997  12.6359988  35.1170012  15.8594997  13.2619988
  35.2470012  15.0944997  11.9619988  35.6054029  15.5195004  12.6305827
  37.7870012   9.7724997   1.7729988  37.2650012  10.1294997   1.0539988
  37.7540012  10.4474997   2.4509988  37.7111634   9.9125413   1.7663145
  36.1360012   7.0124997   0.3239988  36.2320012   7.6794997  -0.3570012
  35.9960012   6.1964997  -0.1580012  36.1302135   6.9934500   0.1658491
  35.3050012   8.3924997   5.9449988  35.1550012   7.4474997   5.9239988
  34.9520012   8.6734997   6.7879988  35.2366625   8.3010441   6.0562346
  20.3410012  10.4704997   9.9549988  20.5250012  10.3884997   9.0189988
  21.1900012  10.3464997  10.3789988  20.4810139  10.4425003   9.8841455
  36.1620012  10.3624997  15.5829988  36.7450012   9.6284997  15.7749988
  36.7260012  11.1344997  15.6299988  36.3179769  10.3664227  15.6156159
  37.6580012   8.2654997  16.2679988  36.7950012   7.8864997  16.1019988
  38.2630012   7.5264997  16.1939988  37.6215979   8.1138023  16.2352817
  35.3830012   4.4204997  -0.5590012  35.9940012   4.0494997   0.0779988
  34.5470012   3.9994997  -0.3630012  35.3535032   4.3127554  -0.4452965
  35.0160012   5.9754997   4.4069988  35.2960012   5.0684997   4.5309988
  35.7750012   6.4094997   4.0179988  35.1569277   5.9100942   4.3713682
  35.6280012   6.5564997   9.8429988  36.5610012   6.7684997   9.8089988
  35.3930012   6.6584997  10.7649988  35.7238036   6.5992769   9.9629976
  35.6570012   7.2934997  12.6189988  34.8140012   7.5614997  12.9849988
  36.0990012   8.1154997  12.4079988  35.6014158   7.4413291  12.6405491
  19.9380012   5.7414997  16.0959988  20.8580012   5.6194997  16.3319988
  19.4890012   4.9914997  16.4849988  20.0031580   5.6233727  16.1809006
  37.9400012   1.2734997  17.9719988  38.2900012   0.6194997  17.3669988
  38.0870012   2.1104997  17.5329988  38.0078419   1.2971591  17.8297118
  35.6290012   3.2384997   4.4549988  35.8120012   2.7894997   5.2809988
  35.0300012   2.6534997   3.9919988  35.5730202   3.0979975   4.5053275
  21.1590012   4.0534997   8.9869988  21.6050012   3.2614997   9.2889988
  21.6260012   4.7694997   9.4179988  21.2830172   4.0420624   9.0864820
  19.4630012   7.0524997  10.0559988  19.9550012   6.8314997   9.2649988
  19.8260012   7.8934997  10.3369988  19.5793126   7.1358357   9.9857531
  37.4600012   3.3824997  16.3219988  36.5420012   3.6534997  16.2859988
  37.5830012   2.8474997  15.5369988  37.3511066   3.3472892  16.2110487
  37.4960012   3.3054997   0.9829988  37.9080012   2.5844997   0.5079988
  38.1780012   3.9754997   1.0419988  37.6445885   3.2972368   0.9258915
  19.7770012   3.3104997   4.1099988  18.8520012   3.5194997   3.9809988
  20.2310012   3.7944997   3.4209988  19.7117368   3.4045993   3.9991226
  34.5480012  18.2944997   6.0559988  35.2000012  17.9474997   5.4479988
  35.0580012  18.7834997   6.7019988  34.7062637  18.3130597   6.0600236
  19.7410012   2.0484997  12.4549988  19.0760012   1.8024997  13.0979988
  19.2980012   2.6704997  11.8769988  19.5900956   2.0988632  12.4649352
  21.9330012  15.2234997  16.5989988  21.1120012  15.3984997  16.1389988
  21.6800012  15.1504997  17.5199988  21.7866164  15.2375622  16.6604923
  24.8870012  16.1984997  12.8579988  24.4620012  17.0074997  12.5749988
  25.7910012  16.2834997  12.5559988  24.9510271  16.3208469  12.7783776
  29.1980012  17.5974997  15.8169988  29.3830012  17.2634997  16.6949988
  30.0440012  17.9064997  15.4949988  29.3377539  17.5936047  15.8935605
  31.5430012  18.8834997  15.0609988  32.2200012  18.2504997  14.8209988
  31.8650012  19.2844997  15.8679988  31.6791637  18.8511154  15.1372793
  36.4600012   1.4724997  14.1409988  35.6480012   1.7974997  13.7529988
  36.6930012   0.7124997  13.6079988  36.3803423   1.4142436  14.0158253
  22.2890012  19.4544997  12.9049988  21.5680012  19.8944997  12.4539988
  21.9230012  19.2034997  13.7539988  22.1409804  19.4807698  12.9579840
  24.7560012  19.0544997  11.9349988  23.8910012  19.1264997  12.3389988
  24.7010012  19.6014997  11.1509988  24.6302085  19.1382685  11.8843362
  29.4660012  18.9424997  11.1099988  29.0100012  19.4714997  10.4559988
  29.6290012  19.5454997  11.8359988  29.4255585  19.0964468  11.1185062
  31.7940012  17.8204997  12.0549988  30.8890012  17.9854997  11.7899988
  32.2230012  18.6734997  11.9899988  31.7280799  17.9584483  12.0099182
  34.3980012  19.3904997  12.3499988  34.2160012  20.3064997  12.1399988
  34.5750012  18.9804997  11.5039988  34.3970210  19.4604822  12.2067885
  21.7030012  18.0774997   9.8149988  21.6850012  17.6524997  10.6729988
  22.5080012  17.7594997   9.4069988  21.8093875  17.9763812   9.8771655
  23.8450012  16.7874997   8.4699988  23.6260012  15.8714997   8.6399988
  24.6690012  16.9274997   8.9359988  23.9264420  16.6810520   8.5562774
  26.3820012  17.2574997   9.3189988  26.5950012  16.3694997   9.0319988
  26.4460012  17.2234997  10.2729988  26.4198232  17.1313102   9.4087397
  29.8900012   2.9214997   8.4629988  29.2160012   2.2924997   8.7189988
  30.4540012   2.4374997   7.8599988  29.8739230   2.7698744   8.4165340
  35.0330012   1.0294997   8.5759988  35.6370012   1.5764997   8.0739988
  34.1630012   1.3484997   8.3359988  34.9981241   1.1475806   8.4747654
  36.7600012   2.1674997   6.9089988  37.3720012   1.6534997   6.3829988
  37.1420012   3.0454997   6.9329988  36.8954540   2.2157140   6.8401830
  22.2170012   1.5554997   6.2849988  21.4400012   1.3214997   5.7779988
  22.7470012   0.7584997   6.2939988  22.1822330   1.4156988   6.2167742
  21.0530012   1.3534997   2.0889988  21.4920012   1.9644997   1.4969988
  20.4200012   1.8914997   2.5629988  21.0274514   1.5099257   2.0720930
  26.7960012   1.4824997   6.0989988  27.6710012   1.8704997   6.0689988
  26.6600012   1.2674997   7.0209988  26.8973695   1.5065184   6.2196440
  32.3530012   1.5124997   7.7479988  32.4290012   1.6074997   6.7979988
  32.0780012   0.6044997   7.8769988  32.3262321   1.4027867   7.6355079
  33.7060012   1.5384997   3.4399988  33.0040012   2.1534997   3.2309988
  33.2620012   0.7004997   3.5709988  33.5496330   1.5095783   3.4290328
  20.9540012  17.3014997   2.9869988  20.2690012  17.2634997   2.3189988
  20.9580012  18.2144997   3.2749988  20.8608193  17.4197016   2.9345284
  22.9140012   3.2694997   0.5309988  23.4060012   2.6394997   0.0039988
  23.5380012   3.5654997   1.1949988  23.0655446   3.2233199   0.5485980
  27.9400012   3.5624997   2.9879988  28.1180012   2.9164997   3.6709988
  27.8870012   4.3964997   3.4559988  27.9571829   3.5867985   3.1445940
  29.8190012  18.5114997   1.3839988  30.6850012  18.8774997   1.2059988
  29.5720012  18.0714997   0.5699988  29.9042392  18.5021756   1.2496289
  36.5280012  18.0744997   4.0629988  36.3330012  17.3264997   3.4979988
  36.4890012  18.8324997   3.4799988  36.4960380  18.0746099   3.9068384
  22.1750012   2.0694997  15.8029988  21.8090012   1.3044997  16.2459988
  23.0880012   2.0984997  16.0899988  22.2482790   1.9687224  15.9024070
  24.1480012   1.4204997  17.3389988  25.0460012   1.1464997  17.1539988
  23.7610012   0.6774997  17.8029988  24.2186612   1.2825914  17.3763643
  22.7720012  18.2214997   0.0119988  22.5050012  18.5084997   0.8849988
  23.5440012  17.6754997   0.1639988  22.8397488  18.1870294   0.1521050
  32.5690012   0.7524997  17.5209988  32.6460012   0.3264997  18.3749988
  33.4630012   0.7664997  17.1779988  32.7003428   0.6960879  17.5915310
  35.7450012  16.8254997  16.2129988  34.9630012  16.6394997  15.6939988
  35.6730012  17.7544997  16.4309988  35.6281777  16.9256492  16.1714048
  50.1510012  10.7114997   6.2439988  50.2400012  11.6554997   6.1119988
  49.5130012  10.4364997   5.5859988  50.0769081  10.8034830   6.1369614
  49.0840012   9.9664997   9.6629988  49.0460012   9.3204997  10.3679988
  48.7620012   9.5004997   8.8919988  49.0352333   9.8149408   9.6552978
  41.4530012   9.5814997  11.2559988  41.4940012   8.9554997  11.9789988
  42.1560012  10.2054997  11.4379988  41.5536363   9.5801196  11.3796044
  52.7900012  12.9054997   7.9639988  52.3500012  12.1854997   8.4149988
  52.7770012  13.6264997   8.5939988  52.7280226  12.9043731   8.1108494
  42.3760012  14.0314997   9.7909988  42.0070012  13.2294997   9.4209988
  43.3170012  13.8624997   9.8369988  42.4527289  13.8990153   9.7466316
  38.9860012   7.6914997   5.1839988  38.5390012   8.5374997   5.1649988
  38.4250012   7.1114997   4.6679988  38.8489900   7.7289916   5.1116801
  39.6970012   9.8534997   7.3099988  39.9100012   9.0834997   7.8369988
  40.4350012   9.9424997   6.7059988  39.8258496   9.7601394   7.3005300
  49.9020012  18.0104997   8.1769988  50.5220012  17.3334997   7.9029988
  49.6940012  17.7924997   9.0849988  49.9586904  17.8883870   8.2623365
  47.4740012  12.3994997  10.0689988  47.7780012  11.7134997   9.4739988
  48.1950012  12.5174997  10.6869988  47.6130671  12.3216305  10.0711816
  56.1370012   4.0004997  10.9299988  56.1860012   4.6104997  11.6659988
  56.5620012   4.4614997  10.2069988  56.2011824   4.1463741  10.9330205
  50.6150012   6.7934997  10.3969988  50.7570012   5.8474997  10.4169988
  50.5080012   7.0004997   9.4679988  50.6199864   6.6919534  10.2742339
  43.7690012   4.8944997   7.6689988  43.8130012   5.7544997   7.2509988
  43.3120012   4.3424997   7.0349988  43.7132185   4.9375799   7.5260299
  51.4920012   5.0254997   6.0699988  52.1380012   4.6964997   6.6949988
  52.0020012   5.5434997   5.4469988  51.6494264   5.0504611   6.0713862
  40.3900012   7.2914997   8.4309988  41.0430012   6.7414997   8.8629988
  40.4140012   7.0174997   7.5139988  40.4826683   7.1791466   8.3662123
  45.5460012   8.8414997   7.6459988  46.1620012   8.3154997   8.1559988
  44.9600012   8.2014997   7.2429988  45.5510810   8.6829208   7.6613173
  56.5280012   5.4784997  13.1659988  55.8400012   6.1364997  13.0699988
  56.5440012   5.2814997  14.1019988  56.4358525   5.5420462  13.2794808
  42.5800012   3.8124997  11.7429988  42.3610012   4.3424997  10.9769988
  41.9120012   4.0394997  12.3899988  42.4597600   3.9156906  11.7256379
  49.9490012  13.3124997   5.2869988  49.6530012  12.9904997   4.4359988
  49.6240012  14.2124997   5.3279988  49.8646371  13.3900215   5.1761801
  45.1490012  11.4884997  12.0299988  44.4090012  12.0864997  12.1339988
  45.8630012  12.0424997  11.7149988  45.1442237  11.6452831  12.0016465
  53.2560012   4.3164997   8.0499988  53.0400012   3.5504997   8.5829988
  53.9110012   4.7884997   8.5629988  53.3150632   4.2755889   8.1922861
  42.1730012   5.7044997   9.6949988  42.7870012   6.3374997  10.0689988
  42.6850012   5.2324997   9.0389988  42.3262296   5.7272370   9.6574252
  43.5560012  13.4524997  12.8179988  43.5510012  14.3324997  12.4399988
  42.7030012  13.3694997  13.2429988  43.4399464  13.5616117  12.8237907
  39.6770012  13.1234997   3.5999988  39.4050012  13.3524997   2.7109988
  39.7230012  13.9614997   4.0599988  39.6460094  13.2681213   3.5405697
  53.3020012  14.7454997  10.3119988  52.3610012  14.8034997  10.4739988
  53.5790012  15.6514997  10.1749988  53.2104679  14.8759443  10.3156815
  53.6030012   3.0314997  11.7299988  52.8670012   3.6424997  11.6919988
  54.2860012   3.4464997  11.2029988  53.5946541   3.1711374  11.6535832
  46.6060012   1.1184997   9.1959988  46.4890012   0.1694997   9.1409988
  45.7510012   1.4504997   9.4689988  46.4743733   1.0335409   9.2253897
  51.5540012  16.5264997   6.9379988  51.9800012  15.8194997   6.4529988
  51.8710012  17.3274997   6.5209988  51.6551019  16.5380994   6.8153130
  52.7140012  14.4274997   5.4459988  52.4560012  13.7374997   4.8349988
  52.7850012  13.9844997   6.2919988  52.6882856  14.2732124   5.4766885
  54.4000012  12.9934997  13.9239988  54.5400012  12.4024997  13.1839988
  54.5670012  13.8664997  13.5669988  54.4416778  13.0306426  13.7746965
  48.8730012   9.9554997   3.6959988  48.1610012  10.4904997   3.3439988
  49.5640012  10.0114997   3.0359988  48.8690132  10.0362543   3.5586289
  48.9260012   8.4134997   0.7349988  49.6270012   8.4354997   1.3859988
  49.2290012   7.7854997   0.0789988  49.0627830   8.3316566   0.7353711
  56.2420012   9.3334997  11.9899988  55.5890012  10.0284997  12.0789988
  56.7070012   9.5434997  11.1799988  56.2155390   9.4569425  11.8926883
  52.2780012  10.1654997   4.6479988  51.5460012  10.3934997   5.2209988
  52.7260012   9.4514997   5.1029988  52.2383095  10.1002571   4.7879119
  52.1760012   8.3394997  13.7149988  52.2560012   9.1024997  14.2869988
  51.5740012   8.6184997  13.0249988  52.1055756   8.4817134  13.7000589
  43.9240012  10.7954997   6.5299988  43.5930012  10.4254997   5.7119988
  44.5120012  10.1254997   6.8769988  43.9581873  10.6541156   6.4648102
  45.2900012  14.2234997   9.2119988  45.1960012  13.6454997   8.4549988
  46.0200012  13.8524997   9.7079988  45.3757981  14.0942390   9.1754165
  44.2900012   9.5644997  10.1639988  44.8560012   9.6854997   9.4009988
  44.6090012  10.2014997  10.8029988  44.4105786   9.6671884  10.1460040
  50.5990012  15.0674997  10.8979988  50.3590012  15.7294997  11.5459988
  50.4010012  14.2334997  11.3229988  50.5393808  15.0453134  11.0441524
  45.1700012  13.9634997  14.8809988  44.8590012  14.7454997  15.3359988
  44.5200012  13.8104997  14.1949988  45.0395558  14.0499105  14.8505871
  51.1490012   9.3274997   2.3329988  51.7290012   9.4774997   3.0799988
  51.5630012   9.7984997   1.6099988  51.2842830   9.4116841   2.3374134
  42.0900012  10.1614997  14.1099988  42.1610012  10.8124997  14.8079988
  41.2000012  10.2644997  13.7749988  41.9793117  10.2645936  14.1602700
  48.8760012  16.0644997   5.7679988  49.3500012  16.3594997   6.5459988
  48.3130012  16.8024997   5.5349988  48.8647653  16.2046932   5.8430136
  43.4100012  16.0354997  15.6439988  43.4170012  15.8994997  14.6969988
  42.4940012  15.9174997  15.8959988  43.2871714  16.0009430  15.5484666
  54.8480012   1.0774997   2.1459988  53.9480012   1.2164997   2.4409988
  55.1000012   1.9084997   1.7439988  54.7588702   1.2089074   2.1320205
  42.9140012   9.8654997   4.1199988  42.6220012  10.6334997   3.6289988
  42.2400012   9.2054997   3.9569988  42.7829081   9.8814406   4.0307340
  56.0370012  15.4434997   0.5219988  56.1110012  16.3824997   0.6929988
  56.9430012  15.1384997   0.4659988  56.1695100  15.5306722   0.5378119
  39.0070012  12.2284997  12.9349988  38.5060012  12.2004997  12.1199988
  39.0120012  11.3224997  13.2439988  38.9391526  12.1022278  12.8652872
  38.7570012  15.0084997   9.8189988  39.7030012  14.8644997   9.7999988
  38.6450012  15.7924997  10.3559988  38.8712727  15.0948046   9.8890072
  56.9550012  15.6744997  15.5009988  56.9060012  14.7194997  15.4639988
  56.1280012  15.9424997  15.9019988  56.8364940  15.5798998  15.5501375
  47.9340012  15.2484997  14.3769988  48.0210012  16.0744997  14.8519988
  47.0700012  14.9184997  14.6259988  47.8291964  15.3169878  14.4756549
  48.3480012  19.0204997   4.1829988  48.2730012  18.8994997   3.2369988
  48.3810012  19.9704997   4.3019988  48.3421848  19.1322500   4.0694834
  42.0010012  17.8094997   5.9639988  42.1540012  17.4614997   6.8429988
  41.1510012  17.4534997   5.7089988  41.9068962  17.7136650   6.0498340
  51.4500012  18.1744997   1.1849988  51.8250012  17.4304997   0.7149988
  51.4540012  17.9044997   2.1039988  51.5018915  18.0361486   1.2447824
  51.1190012  18.1004997   3.9349988  50.1830012  18.2004997   4.1129988
  51.3990012  17.3914997   4.5129988  51.0288255  18.0182711   4.0375391
  54.1070012   7.1674997  15.9809988  53.7000012   7.6484997  15.2599988
  54.1480012   6.2624997  15.6729988  54.0568437   7.1109374  15.8406683
  41.2560012  13.5514997  13.9779988  41.4720012  13.1904997  14.8369988
  40.4010012  13.1774997  13.7679988  41.1699292  13.4514111  14.0673386
  43.8750012   2.0214997   9.9729988  43.0130012   1.9344997   9.5659988
  43.8520012   2.8774997  10.4009988  43.7540330   2.1252765   9.9751863
  48.5380012   1.7434997  13.3479988  48.9580012   1.3284997  14.1009988
  47.6050012   1.5654997  13.4649988  48.4693644   1.6625900  13.4669539
  51.8640012   5.4994997  14.2009988  51.3500012   5.3734997  14.9989988
  51.7090012   6.4114997  13.9569988  51.7726852   5.6056132  14.2772158
  52.6270012  10.3604997  -0.0370012  52.6690012  10.1374997  -0.9670012
  53.4760012  10.7594997   0.1529988  52.7475396  10.3839155  -0.1386373
  48.1990012   4.2364997   0.6329988  47.9460012   4.2554997   1.5559988
  47.9430012   3.3644997   0.3319988  48.1297790   4.1212437   0.7186263
  43.9660012   6.9874997  11.0679988  43.3240012   6.9464997  11.7769988
  44.0030012   7.9134997  10.8309988  43.8831324   7.1071559  11.1329824
  43.9630012   7.2084997   5.9799988  43.0700012   6.8674997   5.9219988
  44.4130012   6.8314997   5.2249988  43.9017305   7.1108484   5.8699177
  49.4980012   7.6244997   4.7969988  49.0890012   8.4394997   4.5059988
  50.2190012   7.4844997   4.1829988  49.5394537   7.7172018   4.6741342
  48.6000012   7.7994997  16.2849988  48.0380012   7.0954997  16.6059988
  49.4270012   7.6794997  16.7529988  48.6347095   7.6867883  16.3922330
  50.5030012   7.0704997   7.6109988  50.3080012   7.6754997   6.8959988
  50.6840012   6.2364997   7.1769988  50.5007614   7.0406300   7.4544405
  41.7160012   7.3074997  12.9349988  41.6780012   7.7074997  13.8039988
  41.2250012   6.4904997  13.0259988  41.6444684   7.2518069  13.0661059
  45.0820012   4.6814997  -0.2660012  44.6510012   4.2364997   0.4639988
  44.3640012   5.0534997  -0.7780012  44.9259438   4.6708940  -0.2353201
  38.3240012   4.4234997   6.7859988  38.9550012   4.3944997   7.5049988
  38.7730012   3.9984997   6.0559988  38.4710774   4.3620492   6.7856553
  39.5980012   5.1694997   2.2099988  40.0720012   5.7604997   1.6249988
  38.8810012   5.7004997   2.5569988  39.5659341   5.3220867   2.1768836
  49.7670012   8.7084997  12.2829988  50.0900012   8.0774997  11.6399988
  49.3270012   8.1734997  12.9429988  49.7516895   8.5498441  12.2842850
  46.5440012   4.6354997   7.0669988  45.6330012   4.6924997   7.3549988
  47.0500012   4.5754997   7.8769988  46.4875413   4.6351985   7.2160622
  41.3730012   6.2644997   5.8929988  40.4830012   6.3644997   5.5529988
  41.6690012   5.4224997   5.5469988  41.2912823   6.1643545   5.7997213
  45.0260012   6.2644997   3.5499988  45.9570012   6.3934997   3.7279988
  44.8110012   6.9344997   2.8999988  45.1244247   6.3726565   3.4865747
  50.9490012   3.8704997  10.3309988  50.2730012   4.0014997  10.9949988
  50.4640012   3.7154997   9.5209988  50.7907145   3.8674905  10.3124517
  43.7000012   7.4594997   1.1169988  43.1570012   7.0794997   0.4249988
  44.5330012   7.6534997   0.6879988  43.7384399   7.4338124   0.9644526
  54.2370012  19.5424997  16.6079988  54.4370012  19.9664997  15.7729988
  54.8920012  19.8854997  17.2149988  54.3530051  19.6469648  16.5757836
  41.8350012  12.0164997  16.2159988  42.5670012  12.2704997  16.7769988
  41.0550012  12.2204997  16.7309988  41.8298232  12.0789177  16.3625760
  47.8640012   7.4234997   8.9539988  48.4290012   6.8764997   8.4069988
  47.7170012   6.9014997   9.7419988  47.9212918   7.2782024   8.9858454
  42.8660012   3.5594997   5.3719988  42.5490012   2.6574997   5.3369988
  43.6480012   3.5614997   4.8189988  42.9282284   3.4361628   5.2924783
  46.4910012   5.8114997  11.3679988  45.6550012   6.2654997  11.4779988
  47.0150012   6.0874997  12.1199988  46.4474414   5.9109376  11.4847136
  47.0350012  12.0244997   3.0519988  46.2900012  11.5174997   2.7299988
  46.9010012  12.0734997   3.9989988  46.9148776  11.9616940   3.1358647
  54.1850012  11.1574997  11.8389988  54.8270012  11.6144997  11.2949988
  53.3550012  11.2704997  11.3759988  54.1605963  11.2352704  11.7020177
  50.9330012   4.8384997   1.2519988  49.9940012   4.9504997   1.0999988
  51.2300012   5.6954997   1.5579988  50.8447666   4.9696443   1.2725768
  48.5540012  12.2084997  14.2889988  48.2090012  11.8274997  15.0959988
  48.3540012  13.1424997  14.3609988  48.4798061  12.2825228  14.4090961
  51.6510012   6.7054997   2.9119988  52.5430012   6.5684997   3.2309988
  51.7080012   7.4964997   2.3759988  51.7806285   6.7936660   2.8831691
  42.1600012  11.3194997   8.8219988  42.9050012  11.3174997   8.2209988
  42.2380012  10.4964997   9.3039988  42.2725518  11.2079315   8.8048929
  49.1610012  13.4834997   2.0779988  48.8650012  14.3094997   2.4589988
  48.4580012  12.8634997   2.2739988  49.0254914  13.5128199   2.1566443
  39.1680012   9.7804997  14.1369988  39.3910012   9.3624997  14.9689988
  38.5660012   9.1674997  13.7139988  39.1171759   9.6404668  14.1937022
  46.1840012   9.2974997  16.3499988  45.8880012   9.1314997  15.4549988
  47.1160012   9.0774997  16.3389988  46.2694166   9.2450640  16.2260536
  50.8050012  14.6704997  14.2399988  49.9040012  14.8534997  13.9719988
  50.8390012  14.9294997  15.1609988  50.6863041  14.7305512  14.3278197
  56.5360012   6.9154997   2.6069988  55.9820012   6.5194997   1.9349988
  56.6360012   7.8254997   2.3289988  56.4737059   6.9843586   2.4774401
  56.4990012  12.7154997  15.4439988  55.6480012  12.9534997  15.0769988
  57.0900012  12.6984997  14.6909988  56.4622487  12.7458258  15.2918893
  54.8310012  15.7014997   3.0719988  54.4580012  14.8754997   3.3809988
  55.1090012  15.5184997   2.1749988  54.8175630  15.5637303   2.9929626
  51.9920012  10.5094997  10.0929988  51.0630012  10.2774997  10.0659988
  52.4430012   9.7324997   9.7629988  51.9259216  10.3727238  10.0446917
  44.5350012  14.8374997   6.2259988  45.0620012  15.6104997   6.0259988
  43.6550012  15.0624997   5.9249988  44.4881773  14.9738005   6.1579010
  40.2900012   9.6994997   0.8129988  40.9060012  10.3264997   1.1929988
  39.4280012  10.0154997   1.0849988  40.2577698   9.8279430   0.9017183
  45.9620012  12.5004997   5.8029988  45.7210012  13.4254997   5.8439988
  45.2210012  12.0414997   6.1989988  45.8288409  12.5651421   5.8621377
  46.4770012  16.6494997  12.1179988  46.8390012  17.5044997  11.8839988
  47.0080012  16.3574997  12.8579988  46.5984473  16.7271060  12.1860855
  44.6450012  17.5224997   5.3479988  43.6950012  17.6274997   5.3989988
  44.9970012  18.3424997   5.6929988  44.5624203  17.6478314   5.4016650
  50.0210012  12.7484997  11.8179988  49.5950012  12.5214997  12.6449988
  50.6010012  12.0104997  11.6359988  50.0411868  12.6175299  11.9065830
  52.2240012  13.6774997   0.8919988  52.5770012  13.2974997   1.6969988
  51.2750012  13.5844997   0.9789988  52.1440441  13.6129596   1.0138559
  52.6790012  17.3004997  14.2879988  52.0780012  16.7454997  13.7919988
  52.9610012  17.9674997  13.6619988  52.6348519  17.3146841  14.1354952
  56.7270012  18.1574997   1.0929988  57.4710012  18.7434997   0.9529988
  56.0330012  18.7254997   1.4269988  56.7350292  18.3145582   1.1189961
  40.8020012   4.5334997  13.6949988  39.9090012   4.8724997  13.6269988
  40.7030012   3.6784997  14.1129988  40.6664164   4.4642588  13.7422235
  53.0900012  12.3504997   3.1189988  52.8120012  11.6224997   3.6749988
  54.0170012  12.4694997   3.3239988  53.1773124  12.2668802   3.2228845
  40.4530012  16.3384997  12.1299988  40.6700012  15.4064997  12.0989988
  40.6990012  16.6124997  13.0129988  40.5159549  16.2480636  12.2451763
  46.3150012  14.7894997  -0.6610012  46.5540012  14.0414997  -1.2080012
  46.0460012  14.4014997   0.1719988  46.3113675  14.6346638  -0.6233135
  45.2520012  14.3594997   1.7959988  45.3980012  13.8394997   2.5859988
  45.2490012  15.2664997   2.1019988  45.2715989  14.4108853   1.9456088
  41.7050012  11.6124997   2.3059988  41.0190012  11.9644997   2.8729988
  42.2270012  12.3754997   2.0589988  41.6816852  11.7638578   2.3502118
  49.5360012   4.2744997  12.5849988  50.2350012   4.3484997  13.2349988
  49.1550012   3.4104997  12.7389988  49.5801767   4.1677624  12.6948322
  50.3210012   3.9264997   3.6819988  50.5410012   4.3984997   2.8789988
  50.8790012   4.3214997   4.3519988  50.4264968   4.0444285   3.6627331
  47.9890012  16.0574997   2.5449988  47.1730012  16.5544997   2.5969988
  48.5190012  16.5324997   1.9049988  47.9489161  16.1897722   2.4655956
  47.5210012   5.6544997   4.5169988  48.3330012   6.1594997   4.5629988
  47.2760012   5.5094997   5.4309988  47.5990520   5.7040375   4.6468517
  48.0560012   6.6404997  13.7019988  48.1750012   7.2144997  14.4589988
  48.7120012   5.9524997  13.8159988  48.1609757   6.6261079  13.8210825
  48.4040012   2.7354997   5.4549988  48.0580012   3.3534997   6.0999988
  49.0630012   3.2364997   4.9739988  48.4457826   2.8875802   5.4780971
  45.3280012  17.1014997   2.5269988  45.4880012  17.9004997   2.0259988
  45.1300012  17.4074997   3.4119988  45.3231649  17.2524469   2.5779815
  44.0620012   3.7984997   2.1419988  43.9790012   4.6874997   2.4889988
  44.9520012   3.5334997   2.3739988  44.1709469   3.8841430   2.2207626
  54.2610012   4.5474997  14.5369988  53.3440012   4.8104997  14.4489988
  54.5960012   4.5444997  13.6399988  54.1809900   4.5830224  14.4037919
  52.8630012   8.2984997   8.6319988  52.0650012   7.8834997   8.3039988
  53.3080012   7.6074997   9.1229988  52.8139885   8.1483543   8.6534889
  42.3210012  14.2264997   1.2029988  42.9130012  14.9254997   1.4789988
  42.7800012  13.7934997   0.4829988  42.4641142  14.2637049   1.1434830
  40.6370012   6.8904997   0.3189988  40.5920012   7.8294997   0.4969988
  39.7490012   6.6544997   0.0489988  40.5108574   6.9871892   0.3068912
  53.9490012  17.5544997  10.2549988  53.7940012  18.2324997   9.5979988
  54.8820012  17.6264997  10.4579988  54.0538500  17.6570170  10.1925119
  41.4450012   1.6724997   8.9919988  41.2160012   1.7314997   8.0639988
  41.0020012   0.8804997   9.2979988  41.3538530   1.5735753   8.9064786
  40.3750012  15.6124997   5.1519988  39.5430012  16.0854997   5.1799988
  40.9210012  16.1224997   4.5539988  40.3349739  15.7461871   5.0749716
  39.6630012  18.2254997  16.4819988  40.2040012  18.0084997  17.2419988
  39.1820012  17.4194997  16.2929988  39.6719345  18.0869514  16.5603076
  44.2610012  17.1444997  18.1029988  45.0280012  16.6854997  18.4439988
  44.2390012  16.9184997  17.1729988  44.3631434  17.0510409  18.0240043
  48.3530012  16.6524997  -0.5220012  47.7090012  16.0214997  -0.2010012
  49.1150012  16.1214997  -0.7540012  48.3678077  16.4942920  -0.5093989
  50.8380012  15.5244997  16.8319988  50.4870012  14.6684997  17.0749988
  51.5640012  15.6674997  17.4389988  50.8880769  15.4265636  16.9473619
  52.9570012  16.4694997  -0.2880012  53.2400012  15.6754997   0.1639988
  53.6970012  16.7024997  -0.8490012  53.0957486  16.3922803  -0.3019302
  39.5700012  12.0354997  17.4369988  39.7140012  11.1334997  17.1499988
  38.7980012  12.3214997  16.9489988  39.4853322  11.9508261  17.3317881
  43.9120012  12.3794997  -0.4310012  43.9760012  11.5854997   0.0999988
  44.5650012  12.2604997  -1.1210012  44.0090241  12.2547148  -0.4515683
  46.2260012  12.0054997  16.8689988  45.8970012  12.2764997  16.0119988
  46.3780012  11.0644997  16.7819988  46.2014809  11.9153862  16.7398244
  49.2640012  13.4264997  -0.6950012  48.9950012  13.6064997   0.2059988
  49.0580012  12.5004997  -0.8260012  49.1993825  13.3260152  -0.5894786
  51.9600012  11.9214997  14.2529988  52.7060012  12.5094997  14.1329988
  51.2030012  12.5034997  14.3159988  51.9597554  12.0807011  14.2450907
  40.4030012   9.2354997  16.8569988  40.8110012   8.3784997  16.7359988
  40.1430012   9.2504997  17.7779988  40.4237568   9.1200807  16.9649588
  45.0610012  10.3514997   1.8749988  44.6010012   9.8674997   2.5609988
  45.3160012   9.6834997   1.2389988  45.0324902  10.1948731   1.8829334
  44.3500012   8.2444997  14.2309988  43.7320012   8.9194997  14.5109988
  44.6940012   8.5654997  13.3979988  44.3119615   8.3802721  14.1566581
  46.1320012   8.5944997   0.1369988  45.9520012   8.4404997  -0.7900012
  47.0820012   8.7024997   0.1819988  46.2357776   8.5880175   0.0161843
  49.3700012  10.7164997  17.5079988  50.3230012  10.7994997  17.4809988
  49.2090012  10.0044997  18.1279988  49.4786426  10.6316746  17.5880579
  55.5220012  10.9494997  -0.4170012  55.2480012  10.5244997  -1.2300012
  55.5610012  11.8804997  -0.6340012  55.4897699  11.0172484  -0.5576390
  44.6890012   5.5994997  15.3129988  44.8390012   4.8704997  14.7109988
  44.6920012   6.3764997  14.7539988  44.7099302   5.6047851  15.1550692
  45.1020012   3.9694997  12.8059988  45.6380012   4.4204997  12.1539988
  44.2500012   3.8614997  12.3829988  45.0602178   4.0166390  12.6595756
  46.6840012   9.4084997  13.0449988  47.4340012   9.2524997  12.4719988
  46.3450012  10.2604997  12.7699988  46.7408921   9.5022968  12.9293561
  51.0990012   7.2234997  18.0739988  51.2920012   6.2924997  17.9619988
  51.9570012   7.6484997  18.0639988  51.2413020   7.1536389  18.0573361
  52.4160012  10.0124997  16.1509988  52.1350012  10.7214997  15.5739988
  53.3590012   9.9394997  15.9999988  52.5049027  10.0997646  16.0515551
  43.1680012   6.7974997  17.2249988  42.4010012   6.2654997  17.0149988
  43.8470012   6.4874997  16.6249988  43.1547022   6.6827506  17.1151648
  45.9080012   1.4254997  13.2369988  45.8090012   2.3724997  13.1319988
  45.1650012   1.0534997  12.7619988  45.7940564   1.5045902  13.1584560
  47.1720012   5.7474997  16.8009988  46.9360012   5.5274997  17.7029988
  46.3880012   5.5404997  16.2909988  47.0338628   5.6894760  16.8553932
  49.8870012   4.8744997  15.8769988  48.9400012   4.9064997  16.0089988
  50.2000012   4.2494997  16.5299988  49.7995475   4.7943207  15.9834455
  51.5210012   3.5084997  17.8819988  51.4250012   2.5564997  17.8759988
  51.2000012   3.7774997  18.7419988  51.4644070   3.4144035  17.9975441
  41.3480012   4.7184997  16.9289988  41.5600012   4.0114997  16.3189988
  41.2370012   4.2804997  17.7729988  41.3619721   4.5627084  16.9596843
  46.1290012   0.7194997  15.9089988  46.8410012   0.0794997  15.8949988
  46.0280012   0.9864997  14.9949988  46.2127939   0.6679938  15.7835650
  46.4830012   2.4024997  17.9619988  46.3510012   1.9264997  17.1419988
  45.8840012   3.1464997  17.9069988  46.3839071   2.4379618  17.8422886
  46.0290012  19.2854997   1.1389988  46.9620012  19.4434997   1.2819988
  45.7650012  19.9604997   0.5139988  46.1209510  19.3983611   1.0740741
  39.5980012  13.9214997   0.6209988  40.5120012  14.0004997   0.8949988
  39.6050012  13.2344997  -0.0450012  39.7241131  13.8393961   0.5684393
  38.2470012  19.3144997   5.6989988  37.6000012  18.8524997   5.1659988
  38.6010012  18.6424997   6.2809988  38.2063849  19.1604723   5.7047959
  39.1170012  17.3954997   7.5029988  38.7820012  16.5154997   7.6749988
  39.3390012  17.7404997   8.3679988  39.1011783  17.3217500   7.6434208
  56.6650012  18.2044997  10.4839988  56.6440012  18.3894997  11.4229988
  57.3560012  18.7734997  10.1429988  56.7554618  18.3066606  10.5663864
  56.2290012  17.7724997  13.4059988  55.7410012  17.0364997  13.0349988
  56.7780012  17.3784997  14.0839988  56.2364872  17.6186249  13.4469160
  54.6790012  13.5614997  18.0439988  53.8130012  13.4564997  18.4379988
  55.0560012  14.3204997  18.4899988  54.6113308  13.6496900  18.1582393
  55.9800012  11.8184997   3.5579988  56.8300012  12.2394997   3.6849988
  55.9860012  11.0784997   4.1649988  56.0971372  11.7760803   3.6574344
  56.3750012   9.8714997   5.3819988  55.6480012   9.3924997   5.7789988
  56.9560012  10.0774997   6.1139988  56.3539375   9.8337090   5.5354129
  56.1340012  12.6564997  10.3289988  56.9670012  12.2784997  10.0489988
  56.2460012  13.5994997  10.2099988  56.2632647  12.7322218  10.2745487
  54.6200012  15.5344997  12.6359988  53.9730012  15.8594997  13.2619988
  54.1030012  15.0944997  11.9619988  54.4614029  15.5195004  12.6305827
  56.6430012   9.7724997   1.7729988  56.1210012  10.1294997   1.0539988
  56.6100012  10.4474997   2.4509988  56.5671634   9.9125413   1.7663145
  54.9920012   7.0124997   0.3239988  55.0880012   7.6794997  -0.3570012
  54.8520012   6.1964997  -0.1580012  54.9862135   6.9934500   0.1658491
  54.1610012   8.3924997   5.9449988  54.0110012   7.4474997   5.9239988
  53.8080012   8.6734997   6.7879988  54.0926625   8.3010441   6.0562346
  39.1970012  10.4704997   9.9549988  39.3810012  10.3884997   9.0189988
  40.0460012  10.3464997  10.3789988  39.3370139  10.4425003   9.8841455
  55.0180012  10.3624997  15.5829988  55.6010012   9.6284997  15.7749988
  55.5820012  11.1344997  15.6299988  55.1739769  10.3664227  15.6156159
  56.5140012   8.2654997  16.2679988  55.6510012   7.8864997  16.1019988
  57.1190012   7.5264997  16.1939988  56.4775979   8.1138023  16.2352817
  54.2390012   4.4204997  -0.5590012  54.8500012   4.0494997   0.0779988
  53.4030012   3.9994997  -0.3630012  54.2095032   4.3127554  -0.4452965
  53.8720012   5.9754997   4.4069988  54.1520012   5.0684997   4.5309988
  54.6310012   6.4094997   4.0179988  54.0129277   5.9100942   4.3713682
  54.4840012   6.5564997   9.8429988  55.4170012   6.7684997   9.8089988
  54.2490012   6.6584997  10.7649988  54.5798036   6.5992769   9.9629976
  54.5130012   7.2934997  12.6189988  53.6700012   7.5614997  12.9849988
  54.9550012   8.1154997  12.4079988  54.4574158   7.4413291  12.6405491
  38.7940012   5.7414997  16.0959988  39.7140012   5.6194997  16.3319988
  38.3450012   4.9914997  16.4849988  38.8591580   5.6233727  16.1809006
  56.7960012   1.2734997  17.9719988  57.1460012   0.6194997  17.3669988
  56.9430012   2.1104997  17.5329988  56.8638419   1.2971591  17.8297118
  54.4850012   3.2384997   4.4549988  54.6680012   2.7894997   5.2809988
  53.8860012   2.6534997   3.9919988  54.4290202   3.0979975   4.5053275
  40.0150012   4.0534997   8.9869988  40.4610012   3.2614997   9.2889988
  40.4820012   4.7694997   9.4179988  40.1390172   4.0420624   9.0864820
  38.3190012   7.0524997  10.0559988  38.8110012   6.8314997   9.2649988
  38.6820012   7.8934997  10.3369988  38.4353126   7.1358357   9.9857531
  56.3160012   3.3824997  16.3219988  55.3980012   3.6534997  16.2859988
  56.4390012   2.8474997  15.5369988  56.2071066   3.3472892  16.2110487
  56.3520012   3.3054997   0.9829988  56.7640012   2.5844997   0.5079988
  57.0340012   3.9754997   1.0419988  56.5005885   3.2972368   0.9258915
  38.6330012   3.3104997   4.1099988  37.7080012   3.5194997   3.9809988
  39.0870012   3.7944997   3.4209988  38.5677368   3.4045993   3.9991226
  53.4040012  18.2944997   6.0559988  54.0560012  17.9474997   5.4479988
  53.9140012  18.7834997   6.7019988  53.5622637  18.3130597   6.0600236
  38.5970012   2.0484997  12.4549988  37.9320012   1.8024997  13.0979988
  38.1540012   2.6704997  11.8769988  38.4460956   2.0988632  12.4649352
  40.7890012  15.2234997  16.5989988  39.9680012  15.3984997  16.1389988
  40.5360012  15.1504997  17.5199988  40.6426164  15.2375622  16.6604923
  43.7430012  16.1984997  12.8579988  43.3180012  17.0074997  12.5749988
  44.6470012  16.2834997  12.5559988  43.8070271  16.3208469  12.7783776
  48.0540012  17.5974997  15.8169988  48.2390012  17.2634997  16.6949988
  48.9000012  17.9064997  15.4949988  48.1937539  17.5936047  15.8935605
  50.3990012  18.8834997  15.0609988  51.0760012  18.2504997  14.8209988
  50.7210012  19.2844997  15.8679988  50.5351637  18.8511154  15.1372793
  55.3160012   1.4724997  14.1409988  54.5040012   1.7974997  13.7529988
  55.5490012   0.7124997  13.6079988  55.2363423   1.4142436  14.0158253
  41.1450012  19.4544997  12.9049988  40.4240012  19.8944997  12.4539988
  40.7790012  19.2034997  13.7539988  40.9969804  19.4807698  12.9579840
  43.6120012  19.0544997  11.9349988  42.7470012  19.1264997  12.3389988
  43.5570012  19.6014997  11.1509988  43.4862085  19.1382685  11.8843362
  48.3220012  18.9424997  11.1099988  47.8660012  19.4714997  10.4559988
  48.4850012  19.5454997  11.8359988  48.2815585  19.0964468  11.1185062
  50.6500012  17.8204997  12.0549988  49.7450012  17.9854997  11.7899988
  51.0790012  18.6734997  11.9899988  50.5840799  17.9584483  12.0099182
  53.2540012  19.3904997  12.3499988  53.0720012  20.3064997  12.1399988
  53.4310012  18.9804997  11.5039988  53.2530210  19.4604822  12.2067885
  40.5590012  18.0774997   9.8149988  40.5410012  17.6524997  10.6729988
  41.3640012  17.7594997   9.4069988  40.6653875  17.9763812   9.8771655
  42.7010012  16.7874997   8.4699988  42.4820012  15.8714997   8.6399988
  43.5250012  16.9274997   8.9359988  42.7824420  16.6810520   8.5562774
  45.2380012  17.2574997   9.3189988  45.4510012  16.3694997   9.0319988
  45.3020012  17.2234997  10.2729988  45.2758232  17.1313102   9.4087397
  48.7460012   2.9214997   8.4629988  48.0720012   2.2924997   8.7189988
  49.3100012   2.4374997   7.8599988  48.7299230   2.7698744   8.4165340
  53.8890012   1.0294997   8.5759988  54.4930012   1.5764997   8.0739988
  53.0190012   1.3484997   8.3359988  53.8541241   1.1475806   8.4747654
  55.6160012   2.1674997   6.9089988  56.2280012   1.6534997   6.3829988
  55.9980012   3.0454997   6.9329988  55.7514540   2.2157140   6.8401830
  41.0730012   1.5554997   6.2849988  40.2960012   1.3214997   5.7779988
  41.6030012   0.7584997   6.2939988  41.0382330   1.4156988   6.2167742
  39.9090012   1.3534997   2.0889988  40.3480012   1.9644997   1.4969988
  39.2760012   1.8914997   2.5629988  39.8834514   1.5099257   2.0720930
  45.6520012   1.4824997   6.0989988  46.5270012   1.8704997   6.0689988
  45.5160012   1.2674997   7.0209988  45.7533695   1.5065184   6.2196440
  51.2090012   1.5124997   7.7479988  51.2850012   1.6074997   6.7979988
  50.9340012   0.6044997   7.8769988  51.1822321   1.4027867   7.6355079
  52.5620012   1.5384997   3.4399988  51.8600012   2.1534997   3.2309988
  52.1180012   0.7004997   3.5709988  52.4056330   1.5095783   3.4290328
  39.8100012  17.3014997   2.9869988  39.1250012  17.2634997   2.3189988
  39.8140012  18.2144997   3.2749988  39.7168193  17.4197016   2.9345284
  41.7700012   3.2694997   0.5309988  42.2620012   2.6394997   0.0039988
  42.3940012   3.5654997   1.1949988  41.9215446   3.2233199   0.5485980
  46.7960012   3.5624997   2.9879988  46.9740012   2.9164997   3.6709988
  46.7430012   4.3964997   3.4559988  46.8131829   3.5867985   3.1445940
  48.6750012  18.5114997   1.3839988  49.5410012  18.8774997   1.2059988
  48.4280012  18.0714997   0.5699988  48.7602392  18.5021756   1.2496289
  55.3840012  18.0744997   4.0629988  55.1890012  17.3264997   3.4979988
  55.3450012  18.8324997   3.4799988  55.3520380  18.0746099   3.9068384
  41.0310012   2.0694997  15.8029988  40.6650012   1.3044997  16.2459988
  41.9440012   2.0984997  16.0899988  41.1042790   1.9687224  15.9024070
  43.0040012   1.4204997  17.3389988  43.9020012   1.1464997  17.1539988
  42.6170012   0.6774997  17.8029988  43.0746612   1.2825914  17.3763643
  41.6280012  18.2214997   0.0119988  41.3610012  18.5084997   0.8849988
  42.4000012  17.6754997   0.1639988  41.6957488  18.1870294   0.1521050
  51.4250012   0.7524997  17.5209988  51.5020012   0.3264997  18.3749988
  52.3190012   0.7664997  17.1779988  51.5563428   0.6960879  17.5915310
  54.6010012  16.8254997  16.2129988  53.8190012  16.6394997  15.6939988
  54.5290012  17.7544997  16.4309988  54.4841777  16.9256492  16.1714048
  69.0070012  10.7114997   6.2439988  69.0960012  11.6554997   6.1119988
  68.3690012  10.4364997   5.5859988  68.9329081  10.8034830   6.1369614
  67.9400012   9.9664997   9.6629988  67.9020012   9.3204997  10.3679988
  67.6180012   9.5004997   8.8919988  67.8912333   9.8149408   9.6552978
  60.3090012   9.5814997  11.2559988  60.3500012   8.9554997  11.9789988
  61.0120012  10.2054997  11.4379988  60.4096363   9.5801196  11.3796044
  71.6460012  12.9054997   7.9639988  71.2060012  12.1854997   8.4149988
  71.6330012  13.6264997   8.5939988  71.5840226  12.9043731   8.1108494
  61.2320012  14.0314997   9.7909988  60.8630012  13.2294997   9.4209988
  62.1730012  13.8624997   9.8369988  61.3087289  13.8990153   9.7466316
  57.8420012   7.6914997   5.1839988  57.3950012   8.5374997   5.1649988
  57.2810012   7.1114997   4.6679988  57.7049900   7.7289916   5.1116801
  58.5530012   9.8534997   7.3099988  58.7660012   9.0834997   7.8369988
  59.2910012   9.9424997   6.7059988  58.6818496   9.7601394   7.3005300
  68.7580012  18.0104997   8.1769988  69.3780012  17.3334997   7.9029988
  68.5500012  17.7924997   9.0849988  68.8146904  17.8883870   8.2623365
  66.3300012  12.3994997  10.0689988  66.6340012  11.7134997   9.4739988
  67.0510012  12.5174997  10.6869988  66.4690671  12.3216305  10.0711816
  74.9930012   4.0004997  10.9299988  75.0420012   4.6104997  11.6659988
  75.4180012   4.4614997  10.2069988  75.0571824   4.1463741  10.9330205
  69.4710012   6.7934997  10.3969988  69.6130012   5.8474997  10.4169988
  69.3640012   7.0004997   9.4679988  69.4759864   6.6919534  10.2742339
  62.6250012   4.8944997   7.6689988  62.6690012   5.7544997   7.2509988
  62.1680012   4.3424997   7.0349988  62.5692185   4.9375799   7.5260299
  70.3480012   5.0254997   6.0699988  70.9940012   4.6964997   6.6949988
  70.8580012   5.5434997   5.4469988  70.5054264   5.0504611   6.0713862
  59.2460012   7.2914997   8.4309988  59.8990012   6.7414997   8.8629988
  59.2700012   7.0174997   7.5139988  59.3386683   7.1791466   8.3662123
  64.4020012   8.8414997   7.6459988  65.0180012   8.3154997   8.1559988
  63.8160012   8.2014997   7.2429988  64.4070810   8.6829208   7.6613173
  75.3840012   5.4784997  13.1659988  74.6960012   6.1364997  13.0699988
  75.4000012   5.2814997  14.1019988  75.2918525   5.5420462  13.2794808
  61.4360012   3.8124997  11.7429988  61.2170012   4.3424997  10.9769988
  60.7680012   4.0394997  12.3899988  61.3157600   3.9156906  11.7256379
  68.8050012  13.3124997   5.2869988  68.5090012  12.9904997   4.4359988
  68.4800012  14.2124997   5.3279988  68.7206371  13.3900215   5.1761801
  64.0050012  11.4884997  12.0299988  63.2650012  12.0864997  12.1339988
  64.7190012  12.0424997  11.7149988  64.0002237  11.6452831  12.0016465
  72.1120012   4.3164997   8.0499988  71.8960012   3.5504997   8.5829988
  72.7670012   4.7884997   8.5629988  72.1710632   4.2755889   8.1922861
  61.0290012   5.7044997   9.6949988  61.6430012   6.3374997  10.0689988
  61.5410012   5.2324997   9.0389988  61.1822296   5.7272370   9.6574252
  62.4120012  13.4524997  12.8179988  62.4070012  14.3324997  12.4399988
  61.5590012  13.3694997  13.2429988  62.2959464  13.5616117  12.8237907
  58.5330012  13.1234997   3.5999988  58.2610012  13.3524997   2.7109988
  58.5790012  13.9614997   4.0599988  58.5020094  13.2681213   3.5405697
  72.1580012  14.7454997  10.3119988  71.2170012  14.8034997  10.4739988
  72.4350012  15.6514997  10.1749988  72.0664679  14.8759443  10.3156815
  72.4590012   3.0314997  11.7299988  71.7230012   3.6424997  11.6919988
  73.1420012   3.4464997  11.2029988  72.4506541   3.1711374  11.6535832
  65.4620012   1.1184997   9.1959988  65.3450012   0.1694997   9.1409988
  64.6070012   1.4504997   9.4689988  65.3303733   1.0335409   9.2253897
  70.4100012  16.5264997   6.9379988  70.8360012  15.8194997   6.4529988
  70.7270012  17.3274997   6.5209988  70.5111019  16.5380994   6.8153130
  71.5700012  14.4274997   5.4459988  71.3120012  13.7374997   4.8349988
  71.6410012  13.9844997   6.2919988  71.5442856  14.2732124   5.4766885
  73.2560012  12.9934997  13.9239988  73.3960012  12.4024997  13.1839988
  73.4230012  13.8664997  13.5669988  73.2976778  13.0306426  13.7746965
  67.7290012   9.9554997   3.6959988  67.0170012  10.4904997   3.3439988
  68.4200012  10.0114997   3.0359988  67.7250132  10.0362543   3.5586289
  67.7820012   8.4134997   0.7349988  68.4830012   8.4354997   1.3859988
  68.0850012   7.7854997   0.0789988  67.9187830   8.3316566   0.7353711
  75.0980012   9.3334997  11.9899988  74.4450012  10.0284997  12.0789988
  75.5630012   9.5434997  11.1799988  75.0715390   9.4569425  11.8926883
  71.1340012  10.1654997   4.6479988  70.4020012  10.3934997   5.2209988
  71.5820012   9.4514997   5.1029988  71.0943095  10.1002571   4.7879119
  71.0320012   8.3394997  13.7149988  71.1120012   9.1024997  14.2869988
  70.4300012   8.6184997  13.0249988  70.9615756   8.4817134  13.7000589
  62.7800012  10.7954997   6.5299988  62.4490012  10.4254997   5.7119988
  63.3680012  10.1254997   6.8769988  62.8141873  10.6541156   6.4648102
  64.1460012  14.2234997   9.2119988  64.0520012  13.6454997   8.4549988
  64.8760012  13.8524997   9.7079988  64.2317981  14.0942390   9.1754165
  63.1460012   9.5644997  10.1639988  63.7120012   9.6854997   9.4009988
  63.4650012  10.2014997  10.8029988  63.2665786   9.6671884  10.1460040
  69.4550012  15.0674997  10.8979988  69.2150012  15.7294997  11.5459988
  69.2570012  14.2334997  11.3229988  69.3953808  15.0453134  11.0441524
  64.0260012  13.9634997  14.8809988  63.7150012  14.7454997  15.3359988
  63.3760012  13.8104997  14.1949988  63.8955558  14.0499105  14.8505871
  70.0050012   9.3274997   2.3329988  70.5850012   9.4774997   3.0799988
  70.4190012   9.7984997   1.6099988  70.1402831   9.4116841   2.3374134
  60.9460012  10.1614997  14.1099988  61.0170012  10.8124997  14.8079988
  60.0560012  10.2644997  13.7749988  60.8353117  10.2645936  14.1602700
  67.7320012  16.0644997   5.7679988  68.2060012  16.3594997   6.5459988
  67.1690012  16.8024997   5.5349988  67.7207653  16.2046932   5.8430136
  62.2660012  16.0354997  15.6439988  62.2730012  15.8994997  14.6969988
  61.3500012  15.9174997  15.8959988  62.1431714  16.0009430  15.5484666
  73.7040012   1.0774997   2.1459988  72.8040012   1.2164997   2.4409988
  73.9560012   1.9084997   1.7439988  73.6148702   1.2089074   2.1320205
  61.7700012   9.8654997   4.1199988  61.4780012  10.6334997   3.6289988
  61.0960012   9.2054997   3.9569988  61.6389081   9.8814406   4.0307340
  74.8930012  15.4434997   0.5219988  74.9670012  16.3824997   0.6929988
  75.7990012  15.1384997   0.4659988  75.0255100  15.5306722   0.5378119
  57.8630012  12.2284997  12.9349988  57.3620012  12.2004997  12.1199988
  57.8680012  11.3224997  13.2439988  57.7951526  12.1022278  12.8652872
  57.6130012  15.0084997   9.8189988  58.5590012  14.8644997   9.7999988
  57.5010012  15.7924997  10.3559988  57.7272727  15.0948046   9.8890072
  75.8110012  15.6744997  15.5009988  75.7620012  14.7194997  15.4639988
  74.9840012  15.9424997  15.9019988  75.6924940  15.5798998  15.5501375
  66.7900012  15.2484997  14.3769988  66.8770012  16.0744997  14.8519988
  65.9260012  14.9184997  14.6259988  66.6851964  15.3169878  14.4756549
  67.2040012  19.0204997   4.1829988  67.1290012  18.8994997   3.2369988
  67.2370012  19.9704997   4.3019988  67.1981848  19.1322500   4.0694834
  60.8570012  17.8094997   5.9639988  61.0100012  17.4614997   6.8429988
  60.0070012  17.4534997   5.7089988  60.7628962  17.7136650   6.0498340
  70.3060012  18.1744997   1.1849988  70.6810012  17.4304997   0.7149988
  70.3100012  17.9044997   2.1039988  70.3578915  18.0361486   1.2447824
  69.9750012  18.1004997   3.9349988  69.0390012  18.2004997   4.1129988
  70.2550012  17.3914997   4.5129988  69.8848255  18.0182711   4.0375391
  72.9630012   7.1674997  15.9809988  72.5560012   7.6484997  15.2599988
  73.0040012   6.2624997  15.6729988  72.9128437   7.1109374  15.8406683
  60.1120012  13.5514997  13.9779988  60.3280012  13.1904997  14.8369988
  59.2570012  13.1774997  13.7679988  60.0259292  13.4514111  14.0673386
  62.7310012   2.0214997   9.9729988  61.8690012   1.9344997   9.5659988
  62.7080012   2.8774997  10.4009988  62.6100330   2.1252765   9.9751863
  67.3940012   1.7434997  13.3479988  67.8140012   1.3284997  14.1009988
  66.4610012   1.5654997  13.4649988  67.3253644   1.6625900  13.4669539
  70.7200012   5.4994997  14.2009988  70.2060012   5.3734997  14.9989988
  70.5650012   6.4114997  13.9569988  70.6286852   5.6056132  14.2772158
  71.4830012  10.3604997  -0.0370012  71.5250012  10.1374997  -0.9670012
  72.3320012  10.7594997   0.1529988  71.6035396  10.3839155  -0.1386373
  67.0550012   4.2364997   0.6329988  66.8020012   4.2554997   1.5559988
  66.7990012   3.3644997   0.3319988  66.9857790   4.1212437   0.7186263
  62.8220012   6.9874997  11.0679988  62.1800012   6.9464997  11.7769988
  62.8590012   7.9134997  10.8309988  62.7391324   7.1071559  11.1329824
  62.8190012   7.2084997   5.9799988  61.9260012   6.8674997   5.9219988
  63.2690012   6.8314997   5.2249988  62.7577305   7.1108484   5.8699177
  68.3540012   7.6244997   4.7969988  67.9450012   8.4394997   4.5059988
  69.0750012   7.4844997   4.1829988  68.3954537   7.7172018   4.6741342
  67.4560012   7.7994997  16.2849988  66.8940012   7.0954997  16.6059988
  68.2830012   7.6794997  16.7529988  67.4907095   7.6867883  16.3922330
  69.3590012   7.0704997   7.6109988  69.1640012   7.6754997   6.8959988
  69.5400012   6.2364997   7.1769988  69.3567614   7.0406300   7.4544405
  60.5720012   7.3074997  12.9349988  60.5340012   7.7074997  13.8039988
  60.0810012   6.4904997  13.0259988  60.5004684   7.2518069  13.0661059
  63.9380012   4.6814997  -0.2660012  63.5070012   4.2364997   0.4639988
  63.2200012   5.0534997  -0.7780012  63.7819438   4.6708940  -0.2353201
  57.1800012   4.4234997   6.7859988  57.8110012   4.3944997   7.5049988
  57.6290012   3.9984997   6.0559988  57.3270774   4.3620492   6.7856553
  58.4540012   5.1694997   2.2099988  58.9280012   5.7604997   1.6249988
  57.7370012   5.7004997   2.5569988  58.4219341   5.3220867   2.1768836
  68.6230012   8.7084997  12.2829988  68.9460012   8.0774997  11.6399988
  68.1830012   8.1734997  12.9429988  68.6076895   8.5498440  12.2842850
  65.4000012   4.6354997   7.0669988  64.4890012   4.6924997   7.3549988
  65.9060012   4.5754997   7.8769988  65.3435413   4.6351985   7.2160622
  60.2290012   6.2644997   5.8929988  59.3390012   6.3644997   5.5529988
  60.5250012   5.4224997   5.5469988  60.1472823   6.1643545   5.7997213
  63.8820012   6.2644997   3.5499988  64.8130012   6.3934997   3.7279988
  63.6670012   6.9344997   2.8999988  63.9804247   6.3726565   3.4865747
  69.8050012   3.8704997  10.3309988  69.1290012   4.0014997  10.9949988
  69.3200012   3.7154997   9.5209988  69.6467145   3.8674905  10.3124517
  62.5560012   7.4594997   1.1169988  62.0130012   7.0794997   0.4249988
  63.3890012   7.6534997   0.6879988  62.5944399   7.4338124   0.9644526
  73.0930012  19.5424997  16.6079988  73.2930012  19.9664997  15.7729988
  73.7480012  19.8854997  17.2149988  73.2090051  19.6469648  16.5757836
  60.6910012  12.0164997  16.2159988  61.4230012  12.2704997  16.7769988
  59.9110012  12.2204997  16.7309988  60.6858232  12.0789177  16.3625760
  66.7200012   7.4234997   8.9539988  67.2850012   6.8764997   8.4069988
  66.5730012   6.9014997   9.7419988  66.7772918   7.2782024   8.9858454
  61.7220012   3.5594997   5.3719988  61.4050012   2.6574997   5.3369988
  62.5040012   3.5614997   4.8189988  61.7842284   3.4361628   5.2924783
  65.3470012   5.8114997  11.3679988  64.5110012   6.2654997  11.4779988
  65.8710012   6.0874997  12.1199988  65.3034414   5.9109376  11.4847136
  65.8910012  12.0244997   3.0519988  65.1460012  11.5174997   2.7299988
  65.7570012  12.0734997   3.9989988  65.7708776  11.9616940   3.1358647
  73.0410012  11.1574997  11.8389988  73.6830012  11.6144997  11.2949988
  72.2110012  11.2704997  11.3759988  73.0165963  11.2352704  11.7020177
  69.7890012   4.8384997   1.2519988  68.8500012   4.9504997   1.0999988
  70.0860012   5.6954997   1.5579988  69.7007666   4.9696443   1.2725768
  67.4100012  12.2084997  14.2889988  67.0650012  11.8274997  15.0959988
  67.2100012  13.1424997  14.3609988  67.3358061  12.2825228  14.4090961
  70.5070012   6.7054997   2.9119988  71.3990012   6.5684997   3.2309988
  70.5640012   7.4964997   2.3759988  70.6366285   6.7936660   2.8831690
  61.0160012  11.3194997   8.8219988  61.7610012  11.3174997   8.2209988
  61.0940012  10.4964997   9.3039988  61.1285518  11.2079315   8.8048929
  68.0170012  13.4834997   2.0779988  67.7210012  14.3094997   2.4589988
  67.3140012  12.8634997   2.2739988  67.8814914  13.5128199   2.1566443
  58.0240012   9.7804997  14.1369988  58.2470012   9.3624997  14.9689988
  57.4220012   9.1674997  13.7139988  57.9731759   9.6404668  14.1937022
  65.0400012   9.2974997  16.3499988  64.7440012   9.1314997  15.4549988
  65.9720012   9.0774997  16.3389988  65.1254166   9.2450640  16.2260536
  69.6610012  14.6704997  14.2399988  68.7600012  14.8534997  13.9719988
  69.6950012  14.9294997  15.1609988  69.5423041  14.7305512  14.3278197
  75.3920012   6.9154997   2.6069988  74.8380012   6.5194997   1.9349988
  75.4920012   7.8254997   2.3289988  75.3297059   6.9843586   2.4774401
  75.3550012  12.7154997  15.4439988  74.5040012  12.9534997  15.0769988
  75.9460012  12.6984997  14.6909988  75.3182487  12.7458258  15.2918893
  73.6870012  15.7014997   3.0719988  73.3140012  14.8754997   3.3809988
  73.9650012  15.5184997   2.1749988  73.6735630  15.5637303   2.9929626
  70.8480012  10.5094997  10.0929988  69.9190012  10.2774997  10.0659988
  71.2990012   9.7324997   9.7629988  70.7819216  10.3727238  10.0446917
  63.3910012  14.8374997   6.2259988  63.9180012  15.6104997   6.0259988
  62.5110012  15.0624997   5.9249988  63.3441773  14.9738005   6.1579010
  59.1460012   9.6994997   0.8129988  59.7620012  10.3264997   1.1929988
  58.2840012  10.0154997   1.0849988  59.1137698   9.8279430   0.9017183
  64.8180012  12.5004997   5.8029988  64.5770012  13.4254997   5.8439988
  64.0770012  12.0414997   6.1989988  64.6848409  12.5651421   5.8621377
  65.3330012  16.6494997  12.1179988  65.6950012  17.5044997  11.8839988
  65.8640012  16.3574997  12.8579988  65.4544473  16.7271060  12.1860855
  63.5010012  17.5224997   5.3479988  62.5510012  17.6274997   5.3989988
  63.8530012  18.3424997   5.6929988  63.4184203  17.6478314   5.4016650
  68.8770012  12.7484997  11.8179988  68.4510012  12.5214997  12.6449988
  69.4570012  12.0104997  11.6359988  68.8971868  12.6175299  11.9065830
  71.0800012  13.6774997   0.8919988  71.4330012  13.2974997   1.6969988
  70.1310012  13.5844997   0.9789988  71.0000441  13.6129596   1.0138559
  71.5350012  17.3004997  14.2879988  70.9340012  16.7454997  13.7919988
  71.8170012  17.9674997  13.6619988  71.4908519  17.3146841  14.1354951
  75.5830012  18.1574997   1.0929988  76.3270012  18.7434997   0.9529988
  74.8890012  18.7254997   1.4269988  75.5910292  18.3145582   1.1189961
  59.6580012   4.5334997  13.6949988  58.7650012   4.8724997  13.6269988
  59.5590012   3.6784997  14.1129988  59.5224164   4.4642588  13.7422235
  71.9460012  12.3504997   3.1189988  71.6680012  11.6224997   3.6749988
  72.8730012  12.4694997   3.3239988  72.0333124  12.2668802   3.2228845
  59.3090012  16.3384997  12.1299988  59.5260012  15.4064997  12.0989988
  59.5550012  16.6124997  13.0129988  59.3719549  16.2480636  12.2451763
  65.1710012  14.7894997  -0.6610012  65.4100012  14.0414997  -1.2080012
  64.9020012  14.4014997   0.1719988  65.1673675  14.6346638  -0.6233135
  64.1080012  14.3594997   1.7959988  64.2540012  13.8394997   2.5859988
  64.1050012  15.2664997   2.1019988  64.1275989  14.4108853   1.9456088
  60.5610012  11.6124997   2.3059988  59.8750012  11.9644997   2.8729988
  61.0830012  12.3754997   2.0589988  60.5376852  11.7638578   2.3502118
  68.3920012   4.2744997  12.5849988  69.0910012   4.3484997  13.2349988
  68.0110012   3.4104997  12.7389988  68.4361767   4.1677624  12.6948322
  69.1770012   3.9264997   3.6819988  69.3970012   4.3984997   2.8789988
  69.7350012   4.3214997   4.3519988  69.2824968   4.0444285   3.6627331
  66.8450012  16.0574997   2.5449988  66.0290012  16.5544997   2.5969988
  67.3750012  16.5324997   1.9049988  66.8049161  16.1897722   2.4655956
  66.3770012   5.6544997   4.5169988  67.1890012   6.1594997   4.5629988
  66.1320012   5.5094997   5.4309988  66.4550520   5.7040375   4.6468517
  66.9120012   6.6404997  13.7019988  67.0310012   7.2144997  14.4589988
  67.5680012   5.9524997  13.8159988  67.0169757   6.6261079  13.8210825
  67.2600012   2.7354997   5.4549988  66.9140012   3.3534997   6.0999988
  67.9190012   3.2364997   4.9739988  67.3017826   2.8875802   5.4780971
  64.1840012  17.1014997   2.5269988  64.3440012  17.9004997   2.0259988
  63.9860012  17.4074997   3.4119988  64.1791649  17.2524469   2.5779815
  62.9180012   3.7984997   2.1419988  62.8350012   4.6874997   2.4889988
  63.8080012   3.5334997   2.3739988  63.0269469   3.8841430   2.2207626
  73.1170012   4.5474997  14.5369988  72.2000012   4.8104997  14.4489988
  73.4520012   4.5444997  13.6399988  73.0369900   4.5830224  14.4037919
  71.7190012   8.2984997   8.6319988  70.9210012   7.8834997   8.3039988
  72.1640012   7.6074997   9.1229988  71.6699885   8.1483543   8.6534889
  61.1770012  14.2264997   1.2029988  61.7690012  14.9254997   1.4789988
  61.6360012  13.7934997   0.4829988  61.3201142  14.2637049   1.1434830
  59.4930012   6.8904997   0.3189988  59.4480012   7.8294997   0.4969988
  58.6050012   6.6544997   0.0489988  59.3668574   6.9871892   0.3068912
  72.8050012  17.5544997  10.2549988  72.6500012  18.2324997   9.5979988
  73.7380012  17.6264997  10.4579988  72.9098500  17.6570170  10.1925119
  60.3010012   1.6724997   8.9919988  60.0720012   1.7314997   8.0639988
  59.8580012   0.8804997   9.2979988  60.2098530   1.5735753   8.9064786
  59.2310012  15.6124997   5.1519988  58.3990012  16.0854997   5.1799988
  59.7770012  16.1224997   4.5539988  59.1909739  15.7461871   5.0749716
  58.5190012  18.2254997  16.4819988  59.0600012  18.0084997  17.2419988
  58.0380012  17.4194997  16.2929988  58.5279345  18.0869514  16.5603076
  63.1170012  17.1444997  18.1029988  63.8840012  16.6854997  18.4439988
  63.0950012  16.9184997  17.1729988  63.2191434  17.0510409  18.0240043
  67.2090012  16.6524997  -0.5220012  66.5650012  16.0214997  -0.2010012
  67.9710012  16.1214997  -0.7540012  67.2238077  16.4942920  -0.5093989
  69.6940012  15.5244997  16.8319988  69.3430012  14.6684997  17.0749988
  70.4200012  15.6674997  17.4389988  69.7440769  15.4265636  16.9473619
  71.8130012  16.4694997  -0.2880012  72.0960012  15.6754997   0.1639988
  72.5530012  16.7024997  -0.8490012  71.9517486  16.3922803  -0.3019302
  58.4260012  12.0354997  17.4369988  58.5700012  11.1334997  17.1499988
  57.6540012  12.3214997  16.9489988  58.3413322  11.9508261  17.3317881
  62.7680012  12.3794997  -0.4310012  62.8320012  11.5854997   0.0999988
  63.4210012  12.2604997  -1.1210012  62.8650241  12.2547148  -0.4515683
  65.0820012  12.0054997  16.8689988  64.7530012  12.2764997  16.0119988
  65.2340012  11.0644997  16.7819988  65.0574809  11.9153862  16.7398244
  68.1200012  13.4264997  -0.6950012  67.8510012  13.6064997   0.2059988
  67.9140012  12.5004997  -0.8260012  68.0553825  13.3260152  -0.5894786
  70.8160012  11.9214997  14.2529988  71.5620012  12.5094997  14.1329988
  70.0590012  12.5034997  14.3159988  70.8157554  12.0807011  14.2450907
  59.2590012   9.2354997  16.8569988  59.6670012   8.3784997  16.7359988
  58.9990012   9.2504997  17.7779988  59.2797568   9.1200807  16.9649588
  63.9170012  10.3514997   1.8749988  63.4570012   9.8674997   2.5609988
  64.1720012   9.6834997   1.2389988  63.8884902  10.1948731   1.8829334
  63.2060012   8.2444997  14.2309988  62.5880012   8.9194997  14.5109988
  63.5500012   8.5654997  13.3979988  63.1679615   8.3802721  14.1566581
  64.9880012   8.5944997   0.1369988  64.8080012   8.4404997  -0.7900012
  65.9380012   8.7024997   0.1819988  65.0917776   8.5880175   0.0161843
  68.2260012  10.7164997  17.5079988  69.1790012  10.7994997  17.4809988
  68.0650012  10.0044997  18.1279988  68.3346426  10.6316746  17.5880579
  74.3780012  10.9494997  -0.4170012  74.1040012  10.5244997  -1.2300012
  74.4170012  11.8804997  -0.6340012  74.3457699  11.0172484  -0.5576390
  63.5450012   5.5994997  15.3129988  63.6950012   4.8704997  14.7109988
  63.5480012   6.3764997  14.7539988  63.5659302   5.6047851  15.1550692
  63.9580012   3.9694997  12.8059988  64.4940012   4.4204997  12.1539988
  63.1060012   3.8614997  12.3829988  63.9162178   4.0166390  12.6595756
  65.5400012   9.4084997  13.0449988  66.2900012   9.2524997  12.4719988
  65.2010012  10.2604997  12.7699988  65.5968921   9.5022968  12.9293561
  69.9550012   7.2234997  18.0739988  70.1480012   6.2924997  17.9619988
  70.8130012   7.6484997  18.0639988  70.0973020   7.1536389  18.0573361
  71.2720012  10.0124997  16.1509988  70.9910012  10.7214997  15.5739988
  72.2150012   9.9394997  15.9999988  71.3609027  10.0997646  16.0515551
  62.0240012   6.7974997  17.2249988  61.2570012   6.2654997  17.0149988
  62.7030012   6.4874997  16.6249988  62.0107022   6.6827506  17.1151648
  64.7640012   1.4254997  13.2369988  64.6650012   2.3724997  13.1319988
  64.0210012   1.0534997  12.7619988  64.6500563   1.5045902  13.1584560
  66.0280012   5.7474997  16.8009988  65.7920012   5.5274997  17.7029988
  65.2440012   5.5404997  16.2909988  65.8898628   5.6894760  16.8553932
  68.7430012   4.8744997  15.8769988  67.7960012   4.9064997  16.0089988
  69.0560012   4.2494997  16.5299988  68.6555475   4.7943207  15.9834455
  70.3770012   3.5084997  17.8819988  70.2810012   2.5564997  17.8759988
  70.0560012   3.7774997  18.7419988  70.3204070   3.4144035  17.9975441
  60.2040012   4.7184997  16.9289988  60.4160012   4.0114997  16.3189988
  60.0930012   4.2804997  17.7729988  60.2179721   4.5627084  16.9596843
  64.9850012   0.7194997  15.9089988  65.6970012   0.0794997  15.8949988
  64.8840012   0.9864997  14.9949988  65.0687939   0.6679938  15.7835650
  65.3390012   2.4024997  17.9619988  65.2070012   1.9264997  17.1419988
  64.7400012   3.1464997  17.9069988  65.2399071   2.4379618  17.8422886
  64.8850012  19.2854997   1.1389988  65.8180012  19.4434997   1.2819988
  64.6210012  19.9604997   0.5139988  64.9769510  19.3983611   1.0740741
  58.4540012  13.9214997   0.6209988  59.3680012  14.0004997   0.8949988
  58.4610012  13.2344997  -0.0450012  58.5801131  13.8393961   0.5684393
  57.1030012  19.3144997   5.6989988  56.4560012  18.8524997   5.1659988
  57.4570012  18.6424997   6.2809988  57.0623849  19.1604723   5.7047959
  57.9730012  17.3954997   7.5029988  57.6380012  16.5154997   7.6749988
  58.1950012  17.7404997   8.3679988  57.9571783  17.3217500   7.6434208
  75.5210012  18.2044997  10.4839988  75.5000012  18.3894997  11.4229988
  76.2120012  18.7734997  10.1429988  75.6114618  18.3066606  10.5663864
  75.0850012  17.7724997  13.4059988  74.5970012  17.0364997  13.0349988
  75.6340012  17.3784997  14.0839988  75.0924872  17.6186249  13.4469160
  73.5350012  13.5614997  18.0439988  72.6690012  13.4564997  18.4379988
  73.9120012  14.3204997  18.4899988  73.4673308  13.6496900  18.1582393
  74.8360012  11.8184997   3.5579988  75.6860012  12.2394997   3.6849988
  74.8420012  11.0784997   4.1649988  74.9531372  11.7760803   3.6574344
  75.2310012   9.8714997   5.3819988  74.5040012   9.3924997   5.7789988
  75.8120012  10.0774997   6.1139988  75.2099375   9.8337090   5.5354129
  74.9900012  12.6564997  10.3289988  75.8230012  12.2784997  10.0489988
  75.1020012  13.5994997  10.2099988  75.1192647  12.7322218  10.2745487
  73.4760012  15.5344997  12.6359988  72.8290012  15.8594997  13.2619988
  72.9590012  15.0944997  11.9619988  73.3174029  15.5195004  12.6305827
  75.4990012   9.7724997   1.7729988  74.9770012  10.1294997   1.0539988
  75.4660012  10.4474997   2.4509988  75.4231634   9.9125413   1.7663145
  73.8480012   7.0124997   0.3239988  73.9440012   7.6794997  -0.3570012
  73.7080012   6.1964997  -0.1580012  73.8422135   6.9934500   0.1658491
  73.0170012   8.3924997   5.9449988  72.8670012   7.4474997   5.9239988
  72.6640012   8.6734997   6.7879988  72.9486625   8.3010441   6.0562346
  58.0530012  10.4704997   9.9549988  58.2370012  10.3884997   9.0189988
  58.9020012  10.3464997  10.3789988  58.1930139  10.4425003   9.8841455
  73.8740012  10.3624997  15.5829988  74.4570012   9.6284997  15.7749988
  74.4380012  11.1344997  15.6299988  74.0299769  10.3664227  15.6156159
  75.3700012   8.2654997  16.2679988  74.5070012   7.8864997  16.1019988
  75.9750012   7.5264997  16.1939988  75.3335979   8.1138023  16.2352817
  73.0950012   4.4204997  -0.5590012  73.7060012   4.0494997   0.0779988
  72.2590012   3.9994997  -0.3630012  73.0655032   4.3127554  -0.4452965
  72.7280012   5.9754997   4.4069988  73.0080012   5.0684997   4.5309988
  73.4870012   6.4094997   4.0179988  72.8689277   5.9100942   4.3713682
  73.3400012   6.5564997   9.8429988  74.2730012   6.7684997   9.8089988
  73.1050012   6.6584997  10.7649988  73.4358036   6.5992769   9.9629976
  73.3690012   7.2934997  12.6189988  72.5260012   7.5614997  12.9849988
  73.8110012   8.1154997  12.4079988  73.3134158   7.4413291  12.6405491
  57.6500012   5.7414997  16.0959988  58.5700012   5.6194997  16.3319988
  57.2010012   4.9914997  16.4849988  57.7151580   5.6233727  16.1809006
  75.6520012   1.2734997  17.9719988  76.0020012   0.6194997  17.3669988
  75.7990012   2.1104997  17.5329988  75.7198419   1.2971591  17.8297118
  73.3410012   3.2384997   4.4549988  73.5240012   2.7894997   5.2809988
  72.7420012   2.6534997   3.9919988  73.2850202   3.0979975   4.5053275
  58.8710012   4.0534997   8.9869988  59.3170012   3.2614997   9.2889988
  59.3380012   4.7694997   9.4179988  58.9950172   4.0420624   9.0864820
  57.1750012   7.0524997  10.0559988  57.6670012   6.8314997   9.2649988
  57.5380012   7.8934997  10.3369988  57.2913126   7.1358357   9.9857531
  75.1720012   3.3824997  16.3219988  74.2540012   3.6534997  16.2859988
  75.2950012   2.8474997  15.5369988  75.0631066   3.3472892  16.2110487
  75.2080012   3.3054997   0.9829988  75.6200012   2.5844997   0.5079988
  75.8900012   3.9754997   1.0419988  75.3565885   3.2972368   0.9258915
  57.4890012   3.3104997   4.1099988  56.5640012   3.5194997   3.9809988
  57.9430012   3.7944997   3.4209988  57.4237368   3.4045994   3.9991226
  72.2600012  18.2944997   6.0559988  72.9120012  17.9474997   5.4479988
  72.7700012  18.7834997   6.7019988  72.4182637  18.3130597   6.0600236
  57.4530012   2.0484997  12.4549988  56.7880012   1.8024997  13.0979988
  57.0100012   2.6704997  11.8769988  57.3020956   2.0988632  12.4649352
  59.6450012  15.2234997  16.5989988  58.8240012  15.3984997  16.1389988
  59.3920012  15.1504997  17.5199988  59.4986164  15.2375622  16.6604923
  62.5990012  16.1984997  12.8579988  62.1740012  17.0074997  12.5749988
  63.5030012  16.2834997  12.5559988  62.6630271  16.3208469  12.7783776
  66.9100012  17.5974997  15.8169988  67.0950012  17.2634997  16.6949988
  67.7560012  17.9064997  15.4949988  67.0497539  17.5936047  15.8935605
  69.2550012  18.8834997  15.0609988  69.9320012  18.2504997  14.8209988
  69.5770012  19.2844997  15.8679988  69.3911637  18.8511154  15.1372793
  74.1720012   1.4724997  14.1409988  73.3600012   1.7974997  13.7529988
  74.4050012   0.7124997  13.6079988  74.0923423   1.4142436  14.0158253
  60.0010012  19.4544997  12.9049988  59.2800012  19.8944997  12.4539988
  59.6350012  19.2034997  13.7539988  59.8529804  19.4807698  12.9579840
  62.4680012  19.0544997  11.9349988  61.6030012  19.1264997  12.3389988
  62.4130012  19.6014997  11.1509988  62.3422085  19.1382685  11.8843362
  67.1780012  18.9424997  11.1099988  66.7220012  19.4714997  10.4559988
  67.3410012  19.5454997  11.8359988  67.1375585  19.0964468  11.1185062
  69.5060012  17.8204997  12.0549988  68.6010012  17.9854997  11.7899988
  69.9350012  18.6734997  11.9899988  69.4400799  17.9584483  12.0099182
  72.1100012  19.3904997  12.3499988  71.9280012  20.3064997  12.1399988
  72.2870012  18.9804997  11.5039988  72.1090210  19.4604822  12.2067885
  59.4150012  18.0774997   9.8149988  59.3970012  17.6524997  10.6729988
  60.2200012  17.7594997   9.4069988  59.5213875  17.9763812   9.8771655
  61.5570012  16.7874997   8.4699988  61.3380012  15.8714997   8.6399988
  62.3810012  16.9274997   8.9359988  61.6384420  16.6810520   8.5562774
  64.0940012  17.2574997   9.3189988  64.3070012  16.3694997   9.0319988
  64.1580012  17.2234997  10.2729988  64.1318232  17.1313102   9.4087397
  67.6020012   2.9214997   8.4629988  66.9280012   2.2924997   8.7189988
  68.1660012   2.4374997   7.8599988  67.5859230   2.7698744   8.4165340
  72.7450012   1.0294997   8.5759988  73.3490012   1.5764997   8.0739988
  71.8750012   1.3484997   8.3359988  72.7101241   1.1475806   8.4747654
  74.4720012   2.1674997   6.9089988  75.0840012   1.6534997   6.3829988
  74.8540012   3.0454997   6.9329988  74.6074540   2.2157140   6.8401830
  59.9290012   1.5554997   6.2849988  59.1520012   1.3214997   5.7779988
  60.4590012   0.7584997   6.2939988  59.8942330   1.4156988   6.2167742
  58.7650012   1.3534997   2.0889988  59.2040012   1.9644997   1.4969988
  58.1320012   1.8914997   2.5629988  58.7394514   1.5099257   2.0720930
  64.5080012   1.4824997   6.0989988  65.3830012   1.8704997   6.0689988
  64.3720012   1.2674997   7.0209988  64.6093695   1.5065184   6.2196440
  70.0650012   1.5124997   7.7479988  70.1410012   1.6074997   6.7979988
  69.7900012   0.6044997   7.8769988  70.0382321   1.4027867   7.6355079
  71.4180012   1.5384997   3.4399988  70.7160012   2.1534997   3.2309988
  70.9740012   0.7004997   3.5709988  71.2616330   1.5095783   3.4290328
  58.6660012  17.3014997   2.9869988  57.9810012  17.2634997   2.3189988
  58.6700012  18.2144997   3.2749988  58.5728193  17.4197016   2.9345284
  60.6260012   3.2694997   0.5309988  61.1180012   2.6394997   0.0039988
  61.2500012   3.5654997   1.1949988  60.7775446   3.2233199   0.5485980
  65.6520012   3.5624997   2.9879988  65.8300012   2.9164997   3.6709988
  65.5990012   4.3964997   3.4559988  65.6691829   3.5867985   3.1445940
  67.5310012  18.5114997   1.3839988  68.3970012  18.8774997   1.2059988
  67.2840012  18.0714997   0.5699988  67.6162392  18.5021756   1.2496289
  74.2400012  18.0744997   4.0629988  74.0450012  17.3264997   3.4979988
  74.2010012  18.8324997   3.4799988  74.2080380  18.0746099   3.9068384
  59.8870012   2.0694997  15.8029988  59.5210012   1.3044997  16.2459988
  60.8000012   2.0984997  16.0899988  59.9602790   1.9687224  15.9024070
  61.8600012   1.4204997  17.3389988  62.7580012   1.1464997  17.1539988
  61.4730012   0.6774997  17.8029988  61.9306612   1.2825914  17.3763643
  60.4840012  18.2214997   0.0119988  60.2170012  18.5084997   0.8849988
  61.2560012  17.6754997   0.1639988  60.5517488  18.1870294   0.1521050
  70.2810012   0.7524997  17.5209988  70.3580012   0.3264997  18.3749988
  71.1750012   0.7664997  17.1779988  70.4123428   0.6960879  17.5915310
  73.4570012  16.8254997  16.2129988  72.6750012  16.6394997  15.6939988
  73.3850012  17.7544997  16.4309988  73.3401777  16.9256492  16.1714048
  87.8630012  10.7114997   6.2439988  87.9520012  11.6554997   6.1119988
  87.2250012  10.4364997   5.5859988  87.7889081  10.8034830   6.1369614
  86.7960012   9.9664997   9.6629988  86.7580012   9.3204997  10.3679988
  86.4740012   9.5004997   8.8919988  86.7472333   9.8149408   9.6552978
  79.1650012   9.5814997  11.2559988  79.2060012   8.9554997  11.9789988
  79.8680012  10.2054997  11.4379988  79.2656363   9.5801196  11.3796044
  90.5020012  12.9054997   7.9639988  90.0620012  12.1854997   8.4149988
  90.4890012  13.6264997   8.5939988  90.4400226  12.9043731   8.1108494
  80.0880012  14.0314997   9.7909988  79.7190012  13.2294997   9.4209988
  81.0290012  13.8624997   9.8369988  80.1647289  13.8990153   9.7466316
  76.6980012   7.6914997   5.1839988  76.2510012   8.5374997   5.1649988
  76.1370012   7.1114997   4.6679988  76.5609900   7.7289916   5.1116801
  77.4090012   9.8534997   7.3099988  77.6220012   9.0834997   7.8369988
  78.1470012   9.9424997   6.7059988  77.5378496   9.7601394   7.3005300
  87.6140012  18.0104997   8.1769988  88.2340012  17.3334997   7.9029988
  87.4060012  17.7924997   9.0849988  87.6706904  17.8883870   8.2623365
  85.1860012  12.3994997  10.0689988  85.4900012  11.7134997   9.4739988
  85.9070012  12.5174997  10.6869988  85.3250671  12.3216305  10.0711816
  93.8490012   4.0004997  10.9299988  93.8980012   4.6104997  11.6659988
  94.2740012   4.4614997  10.2069988  93.9131824   4.1463741  10.9330205
  88.3270012   6.7934997  10.3969988  88.4690012   5.8474997  10.4169988
  88.2200012   7.0004997   9.4679988  88.3319864   6.6919534  10.2742339
  81.4810012   4.8944997   7.6689988  81.5250012   5.7544997   7.2509988
  81.0240012   4.3424997   7.0349988  81.4252185   4.9375799   7.5260299
  89.2040012   5.0254997   6.0699988  89.8500012   4.6964997   6.6949988
  89.7140012   5.5434997   5.4469988  89.3614264   5.0504611   6.0713862
  78.1020012   7.2914997   8.4309988  78.7550012   6.7414997   8.8629988
  78.1260012   7.0174997   7.5139988  78.1946683   7.1791466   8.3662123
  83.2580012   8.8414997   7.6459988  83.8740012   8.3154997   8.1559988
  82.6720012   8.2014997   7.2429988  83.2630810   8.6829208   7.6613173
  94.2400012   5.4784997  13.1659988  93.5520012   6.1364997  13.0699988
  94.2560012   5.2814997  14.1019988  94.1478525   5.5420462  13.2794808
  80.2920012   3.8124997  11.7429988  80.0730012   4.3424997  10.9769988
  79.6240012   4.0394997  12.3899988  80.1717600   3.9156906  11.7256379
  87.6610012  13.3124997   5.2869988  87.3650012  12.9904997   4.4359988
  87.3360012  14.2124997   5.3279988  87.5766371  13.3900215   5.1761801
  82.8610012  11.4884997  12.0299988  82.1210012  12.0864997  12.1339988
  83.5750012  12.0424997  11.7149988  82.8562237  11.6452831  12.0016465
  90.9680012   4.3164997   8.0499988  90.7520012   3.5504997   8.5829988
  91.6230012   4.7884997   8.5629988  91.0270632   4.2755889   8.1922861
  79.8850012   5.7044997   9.6949988  80.4990012   6.3374997  10.0689988
  80.3970012   5.2324997   9.0389988  80.0382296   5.7272370   9.6574252
  81.2680012  13.4524997  12.8179988  81.2630012  14.3324997  12.4399988
  80.4150012  13.3694997  13.2429988  81.1519464  13.5616117  12.8237907
  77.3890012  13.1234997   3.5999988  77.1170012  13.3524997   2.7109988
  77.4350012  13.9614997   4.0599988  77.3580094  13.2681213   3.5405697
  91.0140012  14.7454997  10.3119988  90.0730012  14.8034997  10.4739988
  91.2910012  15.6514997  10.1749988  90.9224679  14.8759443  10.3156815
  91.3150012   3.0314997  11.7299988  90.5790012   3.6424997  11.6919988
  91.9980012   3.4464997  11.2029988  91.3066541   3.1711374  11.6535832
  84.3180012   1.1184997   9.1959988  84.2010012   0.1694997   9.1409988
  83.4630012   1.4504997   9.4689988  84.1863733   1.0335409   9.2253897
  89.2660012  16.5264997   6.9379988  89.6920012  15.8194997   6.4529988
  89.5830012  17.3274997   6.5209988  89.3671019  16.5380994   6.8153130
  90.4260012  14.4274997   5.4459988  90.1680012  13.7374997   4.8349988
  90.4970012  13.9844997   6.2919988  90.4002856  14.2732124   5.4766885
  92.1120012  12.9934997  13.9239988  92.2520012  12.4024997  13.1839988
  92.2790012  13.8664997  13.5669988  92.1536778  13.0306426  13.7746965
  86.5850012   9.9554997   3.6959988  85.8730012  10.4904997   3.3439988
  87.2760012  10.0114997   3.0359988  86.5810132  10.0362543   3.5586289
  86.6380012   8.4134997   0.7349988  87.3390012   8.4354997   1.3859988
  86.9410012   7.7854997   0.0789988  86.7747830   8.3316566   0.7353711
  93.9540012   9.3334997  11.9899988  93.3010012  10.0284997  12.0789988
  94.4190012   9.5434997  11.1799988  93.9275390   9.4569425  11.8926883
  89.9900012  10.1654997   4.6479988  89.2580012  10.3934997   5.2209988
  90.4380012   9.4514997   5.1029988  89.9503095  10.1002571   4.7879119
  89.8880012   8.3394997  13.7149988  89.9680012   9.1024997  14.2869988
  89.2860012   8.6184997  13.0249988  89.8175756   8.4817134  13.7000589
  81.6360012  10.7954997   6.5299988  81.3050012  10.4254997   5.7119988
  82.2240012  10.1254997   6.8769988  81.6701873  10.6541156   6.4648102
  83.0020012  14.2234997   9.2119988  82.9080012  13.6454997   8.4549988
  83.7320012  13.8524997   9.7079988  83.0877981  14.0942390   9.1754165
  82.0020012   9.5644997  10.1639988  82.5680012   9.6854997   9.4009988
  82.3210012  10.2014997  10.8029988  82.1225786   9.6671884  10.1460040
  88.3110012  15.0674997  10.8979988  88.0710012  15.7294997  11.5459988
  88.1130012  14.2334997  11.3229988  88.2513808  15.0453134  11.0441524
  82.8820012  13.9634997  14.8809988  82.5710012  14.7454997  15.3359988
  82.2320012  13.8104997  14.1949988  82.7515558  14.0499105  14.8505871
  88.8610012   9.3274997   2.3329988  89.4410012   9.4774997   3.0799988
  89.2750012   9.7984997   1.6099988  88.9962830   9.4116841   2.3374134
  79.8020012  10.1614997  14.1099988  79.8730012  10.8124997  14.8079988
  78.9120012  10.2644997  13.7749988  79.6913117  10.2645936  14.1602700
  86.5880012  16.0644997   5.7679988  87.0620012  16.3594997   6.5459988
  86.0250012  16.8024997   5.5349988  86.5767653  16.2046932   5.8430136
  81.1220012  16.0354997  15.6439988  81.1290012  15.8994997  14.6969988
  80.2060012  15.9174997  15.8959988  80.9991714  16.0009430  15.5484666
  92.5600012   1.0774997   2.1459988  91.6600012   1.2164997   2.4409988
  92.8120012   1.9084997   1.7439988  92.4708702   1.2089074   2.1320205
  80.6260012   9.8654997   4.1199988  80.3340012  10.6334997   3.6289988
  79.9520012   9.2054997   3.9569988  80.4949081   9.8814406   4.0307340
  93.7490012  15.4434997   0.5219988  93.8230012  16.3824997   0.6929988
  94.6550012  15.1384997   0.4659988  93.8815100  15.5306722   0.5378119
  76.7190012  12.2284997  12.9349988  76.2180012  12.2004997  12.1199988
  76.7240012  11.3224997  13.2439988  76.6511526  12.1022278  12.8652872
  76.4690012  15.0084997   9.8189988  77.4150012  14.8644997   9.7999988
  76.3570012  15.7924997  10.3559988  76.5832727  15.0948046   9.8890072
  94.6670012  15.6744997  15.5009988  94.6180012  14.7194997  15.4639988
  93.8400012  15.9424997  15.9019988  94.5484940  15.5798998  15.5501375
  85.6460012  15.2484997  14.3769988  85.7330012  16.0744997  14.8519988
  84.7820012  14.9184997  14.6259988  85.5411964  15.3169878  14.4756549
  86.0600012  19.0204997   4.1829988  85.9850012  18.8994997   3.2369988
  86.0930012  19.9704997   4.3019988  86.0541848  19.1322500   4.0694834
  79.7130012  17.8094997   5.9639988  79.8660012  17.4614997   6.8429988
  78.8630012  17.4534997   5.7089988  79.6188962  17.7136650   6.0498340
  89.1620012  18.1744997   1.1849988  89.5370012  17.4304997   0.7149988
  89.1660012  17.9044997   2.1039988  89.2138915  18.0361486   1.2447824
  88.8310012  18.1004997   3.9349988  87.8950012  18.2004997   4.1129988
  89.1110012  17.3914997   4.5129988  88.7408255  18.0182711   4.0375391
  91.8190012   7.1674997  15.9809988  91.4120012   7.6484997  15.2599988
  91.8600012   6.2624997  15.6729988  91.7688437   7.1109374  15.8406683
  78.9680012  13.5514997  13.9779988  79.1840012  13.1904997  14.8369988
  78.1130012  13.1774997  13.7679988  78.8819292  13.4514111  14.0673386
  81.5870012   2.0214997   9.9729988  80.7250012   1.9344997   9.5659988
  81.5640012   2.8774997  10.4009988  81.4660330   2.1252765   9.9751863
  86.2500012   1.7434997  13.3479988  86.6700012   1.3284997  14.1009988
  85.3170012   1.5654997  13.4649988  86.1813644   1.6625900  13.4669539
  89.5760012   5.4994997  14.2009988  89.0620012   5.3734997  14.9989988
  89.4210012   6.4114997  13.9569988  89.4846852   5.6056132  14.2772158
  90.3390012  10.3604997  -0.0370012  90.3810012  10.1374997  -0.9670012
  91.1880012  10.7594997   0.1529988  90.4595396  10.3839155  -0.1386373
  85.9110012   4.2364997   0.6329988  85.6580012   4.2554997   1.5559988
  85.6550012   3.3644997   0.3319988  85.8417790   4.1212437   0.7186263
  81.6780012   6.9874997  11.0679988  81.0360012   6.9464997  11.7769988
  81.7150012   7.9134997  10.8309988  81.5951324   7.1071559  11.1329824
  81.6750012   7.2084997   5.9799988  80.7820012   6.8674997   5.9219988
  82.1250012   6.8314997   5.2249988  81.6137305   7.1108484   5.8699177
  87.2100012   7.6244997   4.7969988  86.8010012   8.4394997   4.5059988
  87.9310012   7.4844997   4.1829988  87.2514537   7.7172018   4.6741342
  86.3120012   7.7994997  16.2849988  85.7500012   7.0954997  16.6059988
  87.1390012   7.6794997  16.7529988  86.3467095   7.6867883  16.3922330
  88.2150012   7.0704997   7.6109988  88.0200012   7.6754997   6.8959988
  88.3960012   6.2364997   7.1769988  88.2127614   7.0406300   7.4544405
  79.4280012   7.3074997  12.9349988  79.3900012   7.7074997  13.8039988
  78.9370012   6.4904997  13.0259988  79.3564684   7.2518069  13.0661059
  82.7940012   4.6814997  -0.2660012  82.3630012   4.2364997   0.4639988
  82.0760012   5.0534997  -0.7780012  82.6379438   4.6708940  -0.2353201
  76.0360012   4.4234997   6.7859988  76.6670012   4.3944997   7.5049988
  76.4850012   3.9984997   6.0559988  76.1830774   4.3620492   6.7856553
  77.3100012   5.1694997   2.2099988  77.7840012   5.7604997   1.6249988
  76.5930012   5.7004997   2.5569988  77.2779341   5.3220867   2.1768836
  87.4790012   8.7084997  12.2829988  87.8020012   8.0774997  11.6399988
  87.0390012   8.1734997  12.9429988  87.4636895   8.5498441  12.2842850
  84.2560012   4.6354997   7.0669988  83.3450012   4.6924997   7.3549988
  84.7620012   4.5754997   7.8769988  84.1995413   4.6351985   7.2160622
  79.0850012   6.2644997   5.8929988  78.1950012   6.3644997   5.5529988
  79.3810012   5.4224997   5.5469988  79.0032823   6.1643545   5.7997213
  82.7380012   6.2644997   3.5499988  83.6690012   6.3934997   3.7279988
  82.5230012   6.9344997   2.8999988  82.8364247   6.3726565   3.4865747
  88.6610012   3.8704997  10.3309988  87.9850012   4.0014997  10.9949988
  88.1760012   3.7154997   9.5209988  88.5027145   3.8674905  10.3124517
  81.4120012   7.4594997   1.1169988  80.8690012   7.0794997   0.4249988
  82.2450012   7.6534997   0.6879988  81.4504399   7.4338124   0.9644526
  91.9490012  19.5424997  16.6079988  92.1490012  19.9664997  15.7729988
  92.6040012  19.8854997  17.2149988  92.0650051  19.6469648  16.5757836
  79.5470012  12.0164997  16.2159988  80.2790012  12.2704997  16.7769988
  78.7670012  12.2204997  16.7309988  79.5418232  12.0789177  16.3625760
  85.5760012   7.4234997   8.9539988  86.1410012   6.8764997   8.4069988
  85.4290012   6.9014997   9.7419988  85.6332918   7.2782024   8.9858454
  80.5780012   3.5594997   5.3719988  80.2610012   2.6574997   5.3369988
  81.3600012   3.5614997   4.8189988  80.6402284   3.4361628   5.2924783
  84.2030012   5.8114997  11.3679988  83.3670012   6.2654997  11.4779988
  84.7270012   6.0874997  12.1199988  84.1594414   5.9109376  11.4847136
  84.7470012  12.0244997   3.0519988  84.0020012  11.5174997   2.7299988
  84.6130012  12.0734997   3.9989988  84.6268776  11.9616940   3.1358647
  91.8970012  11.1574997  11.8389988  92.5390012  11.6144997  11.2949988
  91.0670012  11.2704997  11.3759988  91.8725963  11.2352704  11.7020177
  88.6450012   4.8384997   1.2519988  87.7060012   4.9504997   1.0999988
  88.9420012   5.6954997   1.5579988  88.5567666   4.9696443   1.2725768
  86.2660012  12.2084997  14.2889988  85.9210012  11.8274997  15.0959988
  86.0660012  13.1424997  14.3609988  86.1918061  12.2825228  14.4090961
  89.3630012   6.7054997   2.9119988  90.2550012   6.5684997   3.2309988
  89.4200012   7.4964997   2.3759988  89.4926285   6.7936660   2.8831691
  79.8720012  11.3194997   8.8219988  80.6170012  11.3174997   8.2209988
  79.9500012  10.4964997   9.3039988  79.9845518  11.2079315   8.8048929
  86.8730012  13.4834997   2.0779988  86.5770012  14.3094997   2.4589988
  86.1700012  12.8634997   2.2739988  86.7374914  13.5128199   2.1566443
  76.8800012   9.7804997  14.1369988  77.1030012   9.3624997  14.9689988
  76.2780012   9.1674997  13.7139988  76.8291759   9.6404668  14.1937022
  83.8960012   9.2974997  16.3499988  83.6000012   9.1314997  15.4549988
  84.8280012   9.0774997  16.3389988  83.9814166   9.2450640  16.2260536
  88.5170012  14.6704997  14.2399988  87.6160012  14.8534997  13.9719988
  88.5510012  14.9294997  15.1609988  88.3983041  14.7305512  14.3278197
  94.2480012   6.9154997   2.6069988  93.6940012   6.5194997   1.9349988
  94.3480012   7.8254997   2.3289988  94.1857059   6.9843586   2.4774401
  94.2110012  12.7154997  15.4439988  93.3600012  12.9534997  15.0769988
  94.8020012  12.6984997  14.6909988  94.1742487  12.7458258  15.2918893
  92.5430012  15.7014997   3.0719988  92.1700012  14.8754997   3.3809988
  92.8210012  15.5184997   2.1749988  92.5295630  15.5637303   2.9929626
  89.7040012  10.5094997  10.0929988  88.7750012  10.2774997  10.0659988
  90.1550012   9.7324997   9.7629988  89.6379216  10.3727238  10.0446917
  82.2470012  14.8374997   6.2259988  82.7740012  15.6104997   6.0259988
  81.3670012  15.0624997   5.9249988  82.2001773  14.9738005   6.1579010
  78.0020012   9.6994997   0.8129988  78.6180012  10.3264997   1.1929988
  77.1400012  10.0154997   1.0849988  77.9697698   9.8279430   0.9017183
  83.6740012  12.5004997   5.8029988  83.4330012  13.4254997   5.8439988
  82.9330012  12.0414997   6.1989988  83.5408409  12.5651421   5.8621377
  84.1890012  16.6494997  12.1179988  84.5510012  17.5044997  11.8839988
  84.7200012  16.3574997  12.8579988  84.3104473  16.7271060  12.1860855
  82.3570012  17.5224997   5.3479988  81.4070012  17.6274997   5.3989988
  82.7090012  18.3424997   5.6929988  82.2744203  17.6478314   5.4016650
  87.7330012  12.7484997  11.8179988  87.3070012  12.5214997  12.6449988
  88.3130012  12.0104997  11.6359988  87.7531868  12.6175299  11.9065830
  89.9360012  13.6774997   0.8919988  90.2890012  13.2974997   1.6969988
  88.9870012  13.5844997   0.9789988  89.8560441  13.6129596   1.0138559
  90.3910012  17.3004997  14.2879988  89.7900012  16.7454997  13.7919988
  90.6730012  17.9674997  13.6619988  90.3468519  17.3146841  14.1354952
  94.4390012  18.1574997   1.0929988  95.1830012  18.7434997   0.9529988
  93.7450012  18.7254997   1.4269988  94.4470292  18.3145582   1.1189961
  78.5140012   4.5334997  13.6949988  77.6210012   4.8724997  13.6269988
  78.4150012   3.6784997  14.1129988  78.3784164   4.4642588  13.7422235
  90.8020012  12.3504997   3.1189988  90.5240012  11.6224997   3.6749988
  91.7290012  12.4694997   3.3239988  90.8893124  12.2668802   3.2228845
  78.1650012  16.3384997  12.1299988  78.3820012  15.4064997  12.0989988
  78.4110012  16.6124997  13.0129988  78.2279549  16.2480636  12.2451763
  84.0270012  14.7894997  -0.6610012  84.2660012  14.0414997  -1.2080012
  83.7580012  14.4014997   0.1719988  84.0233675  14.6346638  -0.6233135
  82.9640012  14.3594997   1.7959988  83.1100012  13.8394997   2.5859988
  82.9610012  15.2664997   2.1019988  82.9835989  14.4108853   1.9456088
  79.4170012  11.6124997   2.3059988  78.7310012  11.9644997   2.8729988
  79.9390012  12.3754997   2.0589988  79.3936852  11.7638578   2.3502118
  87.2480012   4.2744997  12.5849988  87.9470012   4.3484997  13.2349988
  86.8670012   3.4104997  12.7389988  87.2921767   4.1677624  12.6948322
  88.0330012   3.9264997   3.6819988  88.2530012   4.3984997   2.8789988
  88.5910012   4.3214997   4.3519988  88.1384968   4.0444285   3.6627331
  85.7010012  16.0574997   2.5449988  84.8850012  16.5544997   2.5969988
  86.2310012  16.5324997   1.9049988  85.6609161  16.1897722   2.4655956
  85.2330012   5.6544997   4.5169988  86.0450012   6.1594997   4.5629988
  84.9880012   5.5094997   5.4309988  85.3110520   5.7040375   4.6468517
  85.7680012   6.6404997  13.7019988  85.8870012   7.2144997  14.4589988
  86.4240012   5.9524997  13.8159988  85.8729757   6.6261079  13.8210825
  86.1160012   2.7354997   5.4549988  85.7700012   3.3534997   6.0999988
  86.7750012   3.2364997   4.9739988  86.1577826   2.8875802   5.4780971
  83.0400012  17.1014997   2.5269988  83.2000012  17.9004997   2.0259988
  82.8420012  17.4074997   3.4119988  83.0351649  17.2524469   2.5779815
  81.7740012   3.7984997   2.1419988  81.6910012   4.6874997   2.4889988
  82.6640012   3.5334997   2.3739988  81.8829469   3.8841430   2.2207626
  91.9730012   4.5474997  14.5369988  91.0560012   4.8104997  14.4489988
  92.3080012   4.5444997  13.6399988  91.8929900   4.5830224  14.4037919
  90.5750012   8.2984997   8.6319988  89.7770012   7.8834997   8.3039988
  91.0200012   7.6074997   9.1229988  90.5259885   8.1483543   8.6534889
  80.0330012  14.2264997   1.2029988  80.6250012  14.9254997   1.4789988
  80.4920012  13.7934997   0.4829988  80.1761142  14.2637049   1.1434830
  78.3490012   6.8904997   0.3189988  78.3040012   7.8294997   0.4969988
  77.4610012   6.6544997   0.0489988  78.2228574   6.9871892   0.3068912
  91.6610012  17.5544997  10.2549988  91.5060012  18.2324997   9.5979988
  92.5940012  17.6264997  10.4579988  91.7658500  17.6570170  10.1925119
  79.1570012   1.6724997   8.9919988  78.9280012   1.7314997   8.0639988
  78.7140012   0.8804997   9.2979988  79.0658530   1.5735753   8.9064786
  78.0870012  15.6124997   5.1519988  77.2550012  16.0854997   5.1799988
  78.6330012  16.1224997   4.5539988  78.0469739  15.7461871   5.0749716
  77.3750012  18.2254997  16.4819988  77.9160012  18.0084997  17.2419988
  76.8940012  17.4194997  16.2929988  77.3839345  18.0869514  16.5603076
  81.9730012  17.1444997  18.1029988  82.7400012  16.6854997  18.4439988
  81.9510012  16.9184997  17.1729988  82.0751434  17.0510409  18.0240043
  86.0650012  16.6524997  -0.5220012  85.4210012  16.0214997  -0.2010012
  86.8270012  16.1214997  -0.7540012  86.0798077  16.4942920  -0.5093989
  88.5500012  15.5244997  16.8319988  88.1990012  14.6684997  17.0749988
  89.2760012  15.6674997  17.4389988  88.6000769  15.4265636  16.9473619
  90.6690012  16.4694997  -0.2880012  90.9520012  15.6754997   0.1639988
  91.4090012  16.7024997  -0.8490012  90.8077486  16.3922803  -0.3019302
  77.2820012  12.0354997  17.4369988  77.4260012  11.1334997  17.1499988
  76.5100012  12.3214997  16.9489988  77.1973322  11.9508261  17.3317881
  81.6240012  12.3794997  -0.4310012  81.6880012  11.5854997   0.0999988
  82.2770012  12.2604997  -1.1210012  81.7210241  12.2547148  -0.4515683
  83.9380012  12.0054997  16.8689988  83.6090012  12.2764997  16.0119988
  84.0900012  11.0644997  16.7819988  83.9134809  11.9153862  16.7398244
  86.9760012  13.4264997  -0.6950012  86.7070012  13.6064997   0.2059988
  86.7700012  12.5004997  -0.8260012  86.9113825  13.3260152  -0.5894786
  89.6720012  11.9214997  14.2529988  90.4180012  12.5094997  14.1329988
  88.9150012  12.5034997  14.3159988  89.6717554  12.0807011  14.2450907
  78.1150012   9.2354997  16.8569988  78.5230012   8.3784997  16.7359988
  77.8550012   9.2504997  17.7779988  78.1357568   9.1200807  16.9649588
  82.7730012  10.3514997   1.8749988  82.3130012   9.8674997   2.5609988
  83.0280012   9.6834997   1.2389988  82.7444902  10.1948731   1.8829334
  82.0620012   8.2444997  14.2309988  81.4440012   8.9194997  14.5109988
  82.4060012   8.5654997  13.3979988  82.0239615   8.3802721  14.1566581
  83.8440012   8.5944997   0.1369988  83.6640012   8.4404997  -0.7900012
  84.7940012   8.7024997   0.1819988  83.9477776   8.5880175   0.0161843
  87.0820012  10.7164997  17.5079988  88.0350012  10.7994997  17.4809988
  86.9210012  10.0044997  18.1279988  87.1906426  10.6316746  17.5880579
  93.2340012  10.9494997  -0.4170012  92.9600012  10.5244997  -1.2300012
  93.2730012  11.8804997  -0.6340012  93.2017699  11.0172484  -0.5576390
  82.4010012   5.5994997  15.3129988  82.5510012   4.8704997  14.7109988
  82.4040012   6.3764997  14.7539988  82.4219302   5.6047851  15.1550692
  82.8140012   3.9694997  12.8059988  83.3500012   4.4204997  12.1539988
  81.9620012   3.8614997  12.3829988  82.7722178   4.0166390  12.6595756
  84.3960012   9.4084997  13.0449988  85.1460012   9.2524997  12.4719988
  84.0570012  10.2604997  12.7699988  84.4528921   9.5022968  12.9293561
  88.8110012   7.2234997  18.0739988  89.0040012   6.2924997  17.9619988
  89.6690012   7.6484997  18.0639988  88.9533020   7.1536389  18.0573361
  90.1280012  10.0124997  16.1509988  89.8470012  10.7214997  15.5739988
  91.0710012   9.9394997  15.9999988  90.2169027  10.0997646  16.0515551
  80.8800012   6.7974997  17.2249988  80.1130012   6.2654997  17.0149988
  81.5590012   6.4874997  16.6249988  80.8667022   6.6827506  17.1151648
  83.6200012   1.4254997  13.2369988  83.5210012   2.3724997  13.1319988
  82.8770012   1.0534997  12.7619988  83.5060564   1.5045902  13.1584560
  84.8840012   5.7474997  16.8009988  84.6480012   5.5274997  17.7029988
  84.1000012   5.5404997  16.2909988  84.7458628   5.6894760  16.8553932
  87.5990012   4.8744997  15.8769988  86.6520012   4.9064997  16.0089988
  87.9120012   4.2494997  16.5299988  87.5115475   4.7943207  15.9834455
  89.2330012   3.5084997  17.8819988  89.1370012   2.5564997  17.8759988
  88.9120012   3.7774997  18.7419988  89.1764070   3.4144035  17.9975441
  79.0600012   4.7184997  16.9289988  79.2720012   4.0114997  16.3189988
  78.9490012   4.2804997  17.7729988  79.0739721   4.5627084  16.9596843
  83.8410012   0.7194997  15.9089988  84.5530012   0.0794997  15.8949988
  83.7400012   0.9864997  14.9949988  83.9247939   0.6679938  15.7835650
  84.1950012   2.4024997  17.9619988  84.0630012   1.9264997  17.1419988
  83.5960012   3.1464997  17.9069988  84.0959071   2.4379618  17.8422886
  83.7410012  19.2854997   1.1389988  84.6740012  19.4434997   1.2819988
  83.4770012  19.9604997   0.5139988  83.8329510  19.3983611   1.0740741
  77.3100012  13.9214997   0.6209988  78.2240012  14.0004997   0.8949988
  77.3170012  13.2344997  -0.0450012  77.4361131  13.8393961   0.5684393
  75.9590012  19.3144997   5.6989988  75.3120012  18.8524997   5.1659988
  76.3130012  18.6424997   6.2809988  75.9183849  19.1604723   5.7047959
  76.8290012  17.3954997   7.5029988  76.4940012  16.5154997   7.6749988
  77.0510012  17.7404997   8.3679988  76.8131783  17.3217500   7.6434208
  94.3770012  18.2044997  10.4839988  94.3560012  18.3894997  11.4229988
  95.0680012  18.7734997  10.1429988  94.4674618  18.3066606  10.5663864
  93.9410012  17.7724997  13.4059988  93.4530012  17.0364997  13.0349988
  94.4900012  17.3784997  14.0839988  93.9484872  17.6186249  13.4469160
  92.3910012  13.5614997  18.0439988  91.5250012  13.4564997  18.4379988
  92.7680012  14.3204997  18.4899988  92.3233308  13.6496900  18.1582393
  93.6920012  11.8184997   3.5579988  94.5420012  12.2394997   3.6849988
  93.6980012  11.0784997   4.1649988  93.8091372  11.7760803   3.6574344
  94.0870012   9.8714997   5.3819988  93.3600012   9.3924997   5.7789988
  94.6680012  10.0774997   6.1139988  94.0659375   9.8337090   5.5354129
  93.8460012  12.6564997  10.3289988  94.6790012  12.2784997  10.0489988
  93.9580012  13.5994997  10.2099988  93.9752647  12.7322218  10.2745487
  92.3320012  15.5344997  12.6359988  91.6850012  15.8594997  13.2619988
  91.8150012  15.0944997  11.9619988  92.1734029  15.5195004  12.6305827
  94.3550012   9.7724997   1.7729988  93.8330012  10.1294997   1.0539988
  94.3220012  10.4474997   2.4509988  94.2791634   9.9125413   1.7663145
  92.7040012   7.0124997   0.3239988  92.8000012   7.6794997  -0.3570012
  92.5640012   6.1964997  -0.1580012  92.6982135   6.9934500   0.1658491
  91.8730012   8.3924997   5.9449988  91.7230012   7.4474997   5.9239988
  91.5200012   8.6734997   6.7879988  91.8046625   8.3010441   6.0562346
  76.9090012  10.4704997   9.9549988  77.0930012  10.3884997   9.0189988
  77.7580012  10.3464997  10.3789988  77.0490139  10.4425003   9.8841455
  92.7300012  10.3624997  15.5829988  93.3130012   9.6284997  15.7749988
  93.2940012  11.1344997  15.6299988  92.8859769  10.3664227  15.6156159
  94.2260012   8.2654997  16.2679988  93.3630012   7.8864997  16.1019988
  94.8310012   7.5264997  16.1939988  94.1895979   8.1138023  16.2352817
  91.9510012   4.4204997  -0.5590012  92.5620012   4.0494997   0.0779988
  91.1150012   3.9994997  -0.3630012  91.9215032   4.3127554  -0.4452965
  91.5840012   5.9754997   4.4069988  91.8640012   5.0684997   4.5309988
  92.3430012   6.4094997   4.0179988  91.7249277   5.9100942   4.3713682
  92.1960012   6.5564997   9.8429988  93.1290012   6.7684997   9.8089988
  91.9610012   6.6584997  10.7649988  92.2918036   6.5992769   9.9629976
  92.2250012   7.2934997  12.6189988  91.3820012   7.5614997  12.9849988
  92.6670012   8.1154997  12.4079988  92.1694158   7.4413291  12.6405491
  76.5060012   5.7414997  16.0959988  77.4260012   5.6194997  16.3319988
  76.0570012   4.9914997  16.4849988  76.5711580   5.6233727  16.1809006
  94.5080012   1.2734997  17.9719988  94.8580012   0.6194997  17.3669988
  94.6550012   2.1104997  17.5329988  94.5758419   1.2971591  17.8297118
  92.1970012   3.2384997   4.4549988  92.3800012   2.7894997   5.2809988
  91.5980012   2.6534997   3.9919988  92.1410202   3.0979975   4.5053275
  77.7270012   4.0534997   8.9869988  78.1730012   3.2614997   9.2889988
  78.1940012   4.7694997   9.4179988  77.8510172   4.0420624   9.0864820
  76.0310012   7.0524997  10.0559988  76.5230012   6.8314997   9.2649988
  76.3940012   7.8934997  10.3369988  76.1473126   7.1358357   9.9857531
  94.0280012   3.3824997  16.3219988  93.1100012   3.6534997  16.2859988
  94.1510012   2.8474997  15.5369988  93.9191066   3.3472892  16.2110487
  94.0640012   3.3054997   0.9829988  94.4760012   2.5844997   0.5079988
  94.7460012   3.9754997   1.0419988  94.2125885   3.2972368   0.9258915
  76.3450012   3.3104997   4.1099988  75.4200012   3.5194997   3.9809988
  76.7990012   3.7944997   3.4209988  76.2797368   3.4045993   3.9991226
  91.1160012  18.2944997   6.0559988  91.7680012  17.9474997   5.4479988
  91.6260012  18.7834997   6.7019988  91.2742637  18.3130597   6.0600236
  76.3090012   2.0484997  12.4549988  75.6440012   1.8024997  13.0979988
  75.8660012   2.6704997  11.8769988  76.1580956   2.0988632  12.4649352
  78.5010012  15.2234997  16.5989988  77.6800012  15.3984997  16.1389988
  78.2480012  15.1504997  17.5199988  78.3546164  15.2375622  16.6604923
  81.4550012  16.1984997  12.8579988  81.0300012  17.0074997  12.5749988
  82.3590012  16.2834997  12.5559988  81.5190271  16.3208469  12.7783776
  85.7660012  17.5974997  15.8169988  85.9510012  17.2634997  16.6949988
  86.6120012  17.9064997  15.4949988  85.9057539  17.5936047  15.8935605
  88.1110012  18.8834997  15.0609988  88.7880012  18.2504997  14.8209988
  88.4330012  19.2844997  15.8679988  88.2471637  18.8511154  15.1372793
  93.0280012   1.4724997  14.1409988  92.2160012   1.7974997  13.7529988
  93.2610012   0.7124997  13.6079988  92.9483423   1.4142436  14.0158253
  78.8570012  19.4544997  12.9049988  78.1360012  19.8944997  12.4539988
  78.4910012  19.2034997  13.7539988  78.7089804  19.4807698  12.9579840
  81.3240012  19.0544997  11.9349988  80.4590012  19.1264997  12.3389988
  81.2690012  19.6014997  11.1509988  81.1982085  19.1382685  11.8843362
  86.0340012  18.9424997  11.1099988  85.5780012  19.4714997  10.4559988
  86.1970012  19.5454997  11.8359988  85.9935585  19.0964468  11.1185062
  88.3620012  17.8204997  12.0549988  87.4570012  17.9854997  11.7899988
  88.7910012  18.6734997  11.9899988  88.2960799  17.9584483  12.0099182
  90.9660012  19.3904997  12.3499988  90.7840012  20.3064997  12.1399988
  91.1430012  18.9804997  11.5039988  90.9650210  19.4604822  12.2067885
  78.2710012  18.0774997   9.8149988  78.2530012  17.6524997  10.6729988
  79.0760012  17.7594997   9.4069988  78.3773875  17.9763812   9.8771655
  80.4130012  16.7874997   8.4699988  80.1940012  15.8714997   8.6399988
  81.2370012  16.9274997   8.9359988  80.4944420  16.6810520   8.5562774
  82.9500012  17.2574997   9.3189988  83.1630012  16.3694997   9.0319988
  83.0140012  17.2234997  10.2729988  82.9878232  17.1313102   9.4087397
  86.4580012   2.9214997   8.4629988  85.7840012   2.2924997   8.7189988
  87.0220012   2.4374997   7.8599988  86.4419230   2.7698744   8.4165340
  91.6010012   1.0294997   8.5759988  92.2050012   1.5764997   8.0739988
  90.7310012   1.3484997   8.3359988  91.5661241   1.1475806   8.4747654
  93.3280012   2.1674997   6.9089988  93.9400012   1.6534997   6.3829988
  93.7100012   3.0454997   6.9329988  93.4634540   2.2157140   6.8401830
  78.7850012   1.5554997   6.2849988  78.0080012   1.3214997   5.7779988
  79.3150012   0.7584997   6.2939988  78.7502330   1.4156988   6.2167742
  77.6210012   1.3534997   2.0889988  78.0600012   1.9644997   1.4969988
  76.9880012   1.8914997   2.5629988  77.5954514   1.5099257   2.0720930
  83.3640012   1.4824997   6.0989988  84.2390012   1.8704997   6.0689988
  83.2280012   1.2674997   7.0209988  83.4653695   1.5065184   6.2196440
  88.9210012   1.5124997   7.7479988  88.9970012   1.6074997   6.7979988
  88.6460012   0.6044997   7.8769988  88.8942321   1.4027867   7.6355079
  90.2740012   1.5384997   3.4399988  89.5720012   2.1534997   3.2309988
  89.8300012   0.7004997   3.5709988  90.1176330   1.5095783   3.4290328
  77.5220012  17.3014997   2.9869988  76.8370012  17.2634997   2.3189988
  77.5260012  18.2144997   3.2749988  77.4288193  17.4197016   2.9345284
  79.4820012   3.2694997   0.5309988  79.9740012   2.6394997   0.0039988
  80.1060012   3.5654997   1.1949988  79.6335446   3.2233199   0.5485980
  84.5080012   3.5624997   2.9879988  84.6860012   2.9164997   3.6709988
  84.4550012   4.3964997   3.4559988  84.5251829   3.5867985   3.1445940
  86.3870012  18.5114997   1.3839988  87.2530012  18.8774997   1.2059988
  86.1400012  18.0714997   0.5699988  86.4722392  18.5021756   1.2496289
  93.0960012  18.0744997   4.0629988  92.9010012  17.3264997   3.4979988
  93.0570012  18.8324997   3.4799988  93.0640380  18.0746099   3.9068384
  78.7430012   2.0694997  15.8029988  78.3770012   1.3044997  16.2459988
  79.6560012   2.0984997  16.0899988  78.8162790   1.9687224  15.9024070
  80.7160012   1.4204997  17.3389988  81.6140012   1.1464997  17.1539988
  80.3290012   0.6774997  17.8029988  80.7866612   1.2825914  17.3763643
  79.3400012  18.2214997   0.0119988  79.0730012  18.5084997   0.8849988
  80.1120012  17.6754997   0.1639988  79.4077488  18.1870294   0.1521050
  89.1370012   0.7524997  17.5209988  89.2140012   0.3264997  18.3749988
  90.0310012   0.7664997  17.1779988  89.2683428   0.6960879  17.5915310
  92.3130012  16.8254997  16.2129988  91.5310012  16.6394997  15.6939988
  92.2410012  17.7544997  16.4309988  92.1961777  16.9256492  16.1714048
 106.7190012  10.7114997   6.2439988 106.8080012  11.6554997   6.1119988
 106.0810012  10.4364997   5.5859988 106.6449081  10.8034830   6.1369614
 105.6520012   9.9664997   9.6629988 105.6140012   9.3204997  10.3679988
 105.3300012   9.5004997   8.8919988 105.6032333   9.8149408   9.6552978
  98.0210012   9.5814997  11.2559988  98.0620012   8.9554997  11.9789988
  98.7240012  10.2054997  11.4379988  98.1216363   9.5801196  11.3796044
 109.3580012  12.9054997   7.9639988 108.9180012  12.1854997   8.4149988
 109.3450012  13.6264997   8.5939988 109.2960226  12.9043731   8.1108494
  98.9440012  14.0314997   9.7909988  98.5750012  13.2294997   9.4209988
  99.8850012  13.8624997   9.8369988  99.0207289  13.8990153   9.7466316
  95.5540012   7.6914997   5.1839988  95.1070012   8.5374997   5.1649988
  94.9930012   7.1114997   4.6679988  95.4169900   7.7289916   5.1116801
  96.2650012   9.8534997   7.3099988  96.4780012   9.0834997   7.8369988
  97.0030012   9.9424997   6.7059988  96.3938496   9.7601394   7.3005300
 106.4700012  18.0104997   8.1769988 107.0900012  17.3334997   7.9029988
 106.2620012  17.7924997   9.0849988 106.5266904  17.8883870   8.2623365
 104.0420012  12.3994997  10.0689988 104.3460012  11.7134997   9.4739988
 104.7630012  12.5174997  10.6869988 104.1810671  12.3216304  10.0711816
 112.7050012   4.0004997  10.9299988 112.7540012   4.6104997  11.6659988
 113.1300012   4.4614997  10.2069988 112.7691824   4.1463741  10.9330205
 107.1830012   6.7934997  10.3969988 107.3250012   5.8474997  10.4169988
 107.0760012   7.0004997   9.4679988 107.1879864   6.6919534  10.2742339
 100.3370012   4.8944997   7.6689988 100.3810012   5.7544997   7.2509988
  99.8800012   4.3424997   7.0349988 100.2812185   4.9375799   7.5260299
 108.0600012   5.0254997   6.0699988 108.7060012   4.6964997   6.6949988
 108.5700012   5.5434997   5.4469988 108.2174264   5.0504611   6.0713862
  96.9580012   7.2914997   8.4309988  97.6110012   6.7414997   8.8629988
  96.9820012   7.0174997   7.5139988  97.0506683   7.1791466   8.3662123
 102.1140012   8.8414997   7.6459988 102.7300012   8.3154997   8.1559988
 101.5280012   8.2014997   7.2429988 102.1190810   8.6829208   7.6613173
 113.0960012   5.4784997  13.1659988 112.4080012   6.1364997  13.0699988
 113.1120012   5.2814997  14.1019988 113.0038525   5.5420462  13.2794808
  99.1480012   3.8124997  11.7429988  98.9290012   4.3424997  10.9769988
  98.4800012   4.0394997  12.3899988  99.0277600   3.9156906  11.7256379
 106.5170012  13.3124997   5.2869988 106.2210012  12.9904997   4.4359988
 106.1920012  14.2124997   5.3279988 106.4326371  13.3900215   5.1761801
 101.7170012  11.4884997  12.0299988 100.9770012  12.0864997  12.1339988
 102.4310012  12.0424997  11.7149988 101.7122237  11.6452831  12.0016465
 109.8240012   4.3164997   8.0499988 109.6080012   3.5504997   8.5829988
 110.4790012   4.7884997   8.5629988 109.8830632   4.2755889   8.1922861
  98.7410012   5.7044997   9.6949988  99.3550012   6.3374997  10.0689988
  99.2530012   5.2324997   9.0389988  98.8942296   5.7272370   9.6574252
 100.1240012  13.4524997  12.8179988 100.1190012  14.3324997  12.4399988
  99.2710012  13.3694997  13.2429988 100.0079464  13.5616117  12.8237907
  96.2450012  13.1234997   3.5999988  95.9730012  13.3524997   2.7109988
  96.2910012  13.9614997   4.0599988  96.2140094  13.2681213   3.5405697
 109.8700012  14.7454997  10.3119988 108.9290012  14.8034997  10.4739988
 110.1470012  15.6514997  10.1749988 109.7784679  14.8759443  10.3156815
 110.1710012   3.0314997  11.7299988 109.4350012   3.6424997  11.6919988
 110.8540012   3.4464997  11.2029988 110.1626541   3.1711374  11.6535832
 103.1740012   1.1184997   9.1959988 103.0570012   0.1694997   9.1409988
 102.3190012   1.4504997   9.4689988 103.0423733   1.0335409   9.2253897
 108.1220012  16.5264997   6.9379988 108.5480012  15.8194997   6.4529988
 108.4390012  17.3274997   6.5209988 108.2231019  16.5380994   6.8153130
 109.2820012  14.4274997   5.4459988 109.0240012  13.7374997   4.8349988
 109.3530012  13.9844997   6.2919988 109.2562856  14.2732124   5.4766885
 110.9680012  12.9934997  13.9239988 111.1080012  12.4024997  13.1839988
 111.1350012  13.8664997  13.5669988 111.0096778  13.0306426  13.7746965
 105.4410012   9.9554997   3.6959988 104.7290012  10.4904997   3.3439988
 106.1320012  10.0114997   3.0359988 105.4370132  10.0362543   3.5586289
 105.4940012   8.4134997   0.7349988 106.1950012   8.4354997   1.3859988
 105.7970012   7.7854997   0.0789988 105.6307830   8.3316566   0.7353711
 112.8100012   9.3334997  11.9899988 112.1570012  10.0284997  12.0789988
 113.2750012   9.5434997  11.1799988 112.7835390   9.4569425  11.8926883
 108.8460012  10.1654997   4.6479988 108.1140012  10.3934997   5.2209988
 109.2940012   9.4514997   5.1029988 108.8063095  10.1002571   4.7879119
 108.7440012   8.3394997  13.7149988 108.8240012   9.1024997  14.2869988
 108.1420012   8.6184997  13.0249988 108.6735756   8.4817134  13.7000589
 100.4920012  10.7954997   6.5299988 100.1610012  10.4254997   5.7119988
 101.0800012  10.1254997   6.8769988 100.5261873  10.6541156   6.4648102
 101.8580012  14.2234997   9.2119988 101.7640012  13.6454997   8.4549988
 102.5880012  13.8524997   9.7079988 101.9437981  14.0942390   9.1754165
 100.8580012   9.5644997  10.1639988 101.4240012   9.6854997   9.4009988
 101.1770012  10.2014997  10.8029988 100.9785786   9.6671884  10.1460040
 107.1670012  15.0674997  10.8979988 106.9270012  15.7294997  11.5459988
 106.9690012  14.2334997  11.3229988 107.1073808  15.0453134  11.0441524
 101.7380012  13.9634997  14.8809988 101.4270012  14.7454997  15.3359988
 101.0880012  13.8104997  14.1949988 101.6075558  14.0499105  14.8505871
 107.7170012   9.3274997   2.3329988 108.2970012   9.4774997   3.0799988
 108.1310012   9.7984997   1.6099988 107.8522830   9.4116841   2.3374134
  98.6580012  10.1614997  14.1099988  98.7290012  10.8124997  14.8079988
  97.7680012  10.2644997  13.7749988  98.5473117  10.2645936  14.1602700
 105.4440012  16.0644997   5.7679988 105.9180012  16.3594997   6.5459988
 104.8810012  16.8024997   5.5349988 105.4327653  16.2046932   5.8430136
  99.9780012  16.0354997  15.6439988  99.9850012  15.8994997  14.6969988
  99.0620012  15.9174997  15.8959988  99.8551714  16.0009430  15.5484666
 111.4160012   1.0774997   2.1459988 110.5160012   1.2164997   2.4409988
 111.6680012   1.9084997   1.7439988 111.3268702   1.2089074   2.1320205
  99.4820012   9.8654997   4.1199988  99.1900012  10.6334997   3.6289988
  98.8080012   9.2054997   3.9569988  99.3509081   9.8814406   4.0307340
 112.6050012  15.4434997   0.5219988 112.6790012  16.3824997   0.6929988
 113.5110012  15.1384997   0.4659988 112.7375100  15.5306722   0.5378119
  95.5750012  12.2284997  12.9349988  95.0740012  12.2004997  12.1199988
  95.5800012  11.3224997  13.2439988  95.5071526  12.1022278  12.8652872
  95.3250012  15.0084997   9.8189988  96.2710012  14.8644997   9.7999988
  95.2130012  15.7924997  10.3559988  95.4392727  15.0948046   9.8890072
 113.5230012  15.6744997  15.5009988 113.4740012  14.7194997  15.4639988
 112.6960012  15.9424997  15.9019988 113.4044940  15.5798998  15.5501375
 104.5020012  15.2484997  14.3769988 104.5890012  16.0744997  14.8519988
 103.6380012  14.9184997  14.6259988 104.3971964  15.3169878  14.4756549
 104.9160012  19.0204997   4.1829988 104.8410012  18.8994997   3.2369988
 104.9490012  19.9704997   4.3019988 104.9101848  19.1322500   4.0694834
  98.5690012  17.8094997   5.9639988  98.7220012  17.4614997   6.8429988
  97.7190012  17.4534997   5.7089988  98.4748962  17.7136650   6.0498340
 108.0180012  18.1744997   1.1849988 108.3930012  17.4304997   0.7149988
 108.0220012  17.9044997   2.1039988 108.0698915  18.0361486   1.2447824
 107.6870012  18.1004997   3.9349988 106.7510012  18.2004997   4.1129988
 107.9670012  17.3914997   4.5129988 107.5968255  18.0182711   4.0375391
 110.6750012   7.1674997  15.9809988 110.2680012   7.6484997  15.2599988
 110.7160012   6.2624997  15.6729988 110.6248437   7.1109374  15.8406683
  97.8240012  13.5514997  13.9779988  98.0400012  13.1904997  14.8369988
  96.9690012  13.1774997  13.7679988  97.7379292  13.4514111  14.0673386
 100.4430012   2.0214997   9.9729988  99.5810012   1.9344997   9.5659988
 100.4200012   2.8774997  10.4009988 100.3220330   2.1252765   9.9751863
 105.1060012   1.7434997  13.3479988 105.5260012   1.3284997  14.1009988
 104.1730012   1.5654997  13.4649988 105.0373644   1.6625900  13.4669539
 108.4320012   5.4994997  14.2009988 107.9180012   5.3734997  14.9989988
 108.2770012   6.4114997  13.9569988 108.3406852   5.6056132  14.2772158
 109.1950012  10.3604997  -0.0370012 109.2370012  10.1374997  -0.9670012
 110.0440012  10.7594997   0.1529988 109.3155396  10.3839155  -0.1386373
 104.7670012   4.2364997   0.6329988 104.5140012   4.2554997   1.5559988
 104.5110012   3.3644997   0.3319988 104.6977790   4.1212437   0.7186263
 100.5340012   6.9874997  11.0679988  99.8920012   6.9464997  11.7769988
 100.5710012   7.9134997  10.8309988 100.4511324   7.1071559  11.1329824
 100.5310012   7.2084997   5.9799988  99.6380012   6.8674997   5.9219988
 100.9810012   6.8314997   5.2249988 100.4697305   7.1108484   5.8699177
 106.0660012   7.6244997   4.7969988 105.6570012   8.4394997   4.5059988
 106.7870012   7.4844997   4.1829988 106.1074537   7.7172018   4.6741342
 105.1680012   7.7994997  16.2849988 104.6060012   7.0954997  16.6059988
 105.9950012   7.6794997  16.7529988 105.2027095   7.6867883  16.3922330
 107.0710012   7.0704997   7.6109988 106.8760012   7.6754997   6.8959988
 107.2520012   6.2364997   7.1769988 107.0687614   7.0406300   7.4544405
  98.2840012   7.3074997  12.9349988  98.2460012   7.7074997  13.8039988
  97.7930012   6.4904997  13.0259988  98.2124684   7.2518069  13.0661059
 101.6500012   4.6814997  -0.2660012 101.2190012   4.2364997   0.4639988
 100.9320012   5.0534997  -0.7780012 101.4939438   4.6708940  -0.2353201
  94.8920012   4.4234997   6.7859988  95.5230012   4.3944997   7.5049988
  95.3410012   3.9984997   6.0559988  95.0390774   4.3620492   6.7856553
  96.1660012   5.1694997   2.2099988  96.6400012   5.7604997   1.6249988
  95.4490012   5.7004997   2.5569988  96.1339341   5.3220867   2.1768836
 106.3350012   8.7084997  12.2829988 106.6580012   8.0774997  11.6399988
 105.8950012   8.1734997  12.9429988 106.3196895   8.5498441  12.2842850
 103.1120012   4.6354997   7.0669988 102.2010012   4.6924997   7.3549988
 103.6180012   4.5754997   7.8769988 103.0555413   4.6351985   7.2160622
  97.9410012   6.2644997   5.8929988  97.0510012   6.3644997   5.5529988
  98.2370012   5.4224997   5.5469988  97.8592823   6.1643545   5.7997213
 101.5940012   6.2644997   3.5499988 102.5250012   6.3934997   3.7279988
 101.3790012   6.9344997   2.8999988 101.6924247   6.3726565   3.4865747
 107.5170012   3.8704997  10.3309988 106.8410012   4.0014997  10.9949988
 107.0320012   3.7154997   9.5209988 107.3587145   3.8674905  10.3124517
 100.2680012   7.4594997   1.1169988  99.7250012   7.0794997   0.4249988
 101.1010012   7.6534997   0.6879988 100.3064399   7.4338124   0.9644526
 110.8050012  19.5424997  16.6079988 111.0050012  19.9664997  15.7729988
 111.4600012  19.8854997  17.2149988 110.9210051  19.6469648  16.5757836
  98.4030012  12.0164997  16.2159988  99.1350012  12.2704997  16.7769988
  97.6230012  12.2204997  16.7309988  98.3978232  12.0789177  16.3625760
 104.4320012   7.4234997   8.9539988 104.9970012   6.8764997   8.4069988
 104.2850012   6.9014997   9.7419988 104.4892918   7.2782024   8.9858454
  99.4340012   3.5594997   5.3719988  99.1170012   2.6574997   5.3369988
 100.2160012   3.5614997   4.8189988  99.4962284   3.4361628   5.2924783
 103.0590012   5.8114997  11.3679988 102.2230012   6.2654997  11.4779988
 103.5830012   6.0874997  12.1199988 103.0154414   5.9109376  11.4847136
 103.6030012  12.0244997   3.0519988 102.8580012  11.5174997   2.7299988
 103.4690012  12.0734997   3.9989988 103.4828776  11.9616940   3.1358647
 110.7530012  11.1574997  11.8389988 111.3950012  11.6144997  11.2949988
 109.9230012  11.2704997  11.3759988 110.7285963  11.2352704  11.7020177
 107.5010012   4.8384997   1.2519988 106.5620012   4.9504997   1.0999988
 107.7980012   5.6954997   1.5579988 107.4127666   4.9696443   1.2725768
 105.1220012  12.2084997  14.2889988 104.7770012  11.8274997  15.0959988
 104.9220012  13.1424997  14.3609988 105.0478061  12.2825228  14.4090961
 108.2190012   6.7054997   2.9119988 109.1110012   6.5684997   3.2309988
 108.2760012   7.4964997   2.3759988 108.3486285   6.7936660   2.8831691
  98.7280012  11.3194997   8.8219988  99.4730012  11.3174997   8.2209988
  98.8060012  10.4964997   9.3039988  98.8405518  11.2079315   8.8048929
 105.7290012  13.4834997   2.0779988 105.4330012  14.3094997   2.4589988
 105.0260012  12.8634997   2.2739988 105.5934914  13.5128199   2.1566443
  95.7360012   9.7804997  14.1369988  95.9590012   9.3624997  14.9689988
  95.1340012   9.1674997  13.7139988  95.6851759   9.6404668  14.1937022
 102.7520012   9.2974997  16.3499988 102.4560012   9.1314997  15.4549988
 103.6840012   9.0774997  16.3389988 102.8374166   9.2450640  16.2260536
 107.3730012  14.6704997  14.2399988 106.4720012  14.8534997  13.9719988
 107.4070012  14.9294997  15.1609988 107.2543041  14.7305512  14.3278197
 113.1040012   6.9154997   2.6069988 112.5500012   6.5194997   1.9349988
 113.2040012   7.8254997   2.3289988 113.0417059   6.9843586   2.4774401
 113.0670012  12.7154997  15.4439988 112.2160012  12.9534997  15.0769988
 113.6580012  12.6984997  14.6909988 113.0302487  12.7458258  15.2918893
 111.3990012  15.7014997   3.0719988 111.0260012  14.8754997   3.3809988
 111.6770012  15.5184997   2.1749988 111.3855630  15.5637303   2.9929626
 108.5600012  10.5094997  10.0929988 107.6310012  10.2774997  10.0659988
 109.0110012   9.7324997   9.7629988 108.4939216  10.3727238  10.0446917
 101.1030012  14.8374997   6.2259988 101.6300012  15.6104997   6.0259988
 100.2230012  15.0624997   5.9249988 101.0561773  14.9738005   6.1579010
  96.8580012   9.6994997   0.8129988  97.4740012  10.3264997   1.1929988
  95.9960012  10.0154997   1.0849988  96.8257698   9.8279430   0.9017183
 102.5300012  12.5004997   5.8029988 102.2890012  13.4254997   5.8439988
 101.7890012  12.0414997   6.1989988 102.3968409  12.5651421   5.8621377
 103.0450012  16.6494997  12.1179988 103.4070012  17.5044997  11.8839988
 103.5760012  16.3574997  12.8579988 103.1664473  16.7271060  12.1860855
 101.2130012  17.5224997   5.3479988 100.2630012  17.6274997   5.3989988
 101.5650012  18.3424997   5.6929988 101.1304203  17.6478314   5.4016650
 106.5890012  12.7484997  11.8179988 106.1630012  12.5214997  12.6449988
 107.1690012  12.0104997  11.6359988 106.6091868  12.6175299  11.9065830
 108.7920012  13.6774997   0.8919988 109.1450012  13.2974997   1.6969988
 107.8430012  13.5844997   0.9789988 108.7120441  13.6129596   1.0138559
 109.2470012  17.3004997  14.2879988 108.6460012  16.7454997  13.7919988
 109.5290012  17.9674997  13.6619988 109.2028519  17.3146841  14.1354952
 113.2950012  18.1574997   1.0929988 114.0390012  18.7434997   0.9529988
 112.6010012  18.7254997   1.4269988 113.3030292  18.3145582   1.1189961
  97.3700012   4.5334997  13.6949988  96.4770012   4.8724997  13.6269988
  97.2710012   3.6784997  14.1129988  97.2344164   4.4642588  13.7422235
 109.6580012  12.3504997   3.1189988 109.3800012  11.6224997   3.6749988
 110.5850012  12.4694997   3.3239988 109.7453124  12.2668802   3.2228845
  97.0210012  16.3384997  12.1299988  97.2380012  15.4064997  12.0989988
  97.2670012  16.6124997  13.0129988  97.0839549  16.2480636  12.2451763
 102.8830012  14.7894997  -0.6610012 103.1220012  14.0414997  -1.2080012
 102.6140012  14.4014997   0.1719988 102.8793675  14.6346638  -0.6233135
 101.8200012  14.3594997   1.7959988 101.9660012  13.8394997   2.5859988
 101.8170012  15.2664997   2.1019988 101.8395989  14.4108853   1.9456088
  98.2730012  11.6124997   2.3059988  97.5870012  11.9644997   2.8729988
  98.7950012  12.3754997   2.0589988  98.2496852  11.7638578   2.3502118
 106.1040012   4.2744997  12.5849988 106.8030012   4.3484997  13.2349988
 105.7230012   3.4104997  12.7389988 106.1481767   4.1677624  12.6948322
 106.8890012   3.9264997   3.6819988 107.1090012   4.3984997   2.8789988
 107.4470012   4.3214997   4.3519988 106.9944968   4.0444285   3.6627331
 104.5570012  16.0574997   2.5449988 103.7410012  16.5544997   2.5969988
 105.0870012  16.5324997   1.9049988 104.5169161  16.1897722   2.4655956
 104.0890012   5.6544997   4.5169988 104.9010012   6.1594997   4.5629988
 103.8440012   5.5094997   5.4309988 104.1670520   5.7040375   4.6468517
 104.6240012   6.6404997  13.7019988 104.7430012   7.2144997  14.4589988
 105.2800012   5.9524997  13.8159988 104.7289757   6.6261079  13.8210825
 104.9720012   2.7354997   5.4549988 104.6260012   3.3534997   6.0999988
 105.6310012   3.2364997   4.9739988 105.0137826   2.8875802   5.4780971
 101.8960012  17.1014997   2.5269988 102.0560012  17.9004997   2.0259988
 101.6980012  17.4074997   3.4119988 101.8911649  17.2524469   2.5779815
 100.6300012   3.7984997   2.1419988 100.5470012   4.6874997   2.4889988
 101.5200012   3.5334997   2.3739988 100.7389469   3.8841430   2.2207626
 110.8290012   4.5474997  14.5369988 109.9120012   4.8104997  14.4489988
 111.1640012   4.5444997  13.6399988 110.7489900   4.5830224  14.4037919
 109.4310012   8.2984997   8.6319988 108.6330012   7.8834997   8.3039988
 109.8760012   7.6074997   9.1229988 109.3819885   8.1483543   8.6534889
  98.8890012  14.2264997   1.2029988  99.4810012  14.9254997   1.4789988
  99.3480012  13.7934997   0.4829988  99.0321142  14.2637049   1.1434830
  97.2050012   6.8904997   0.3189988  97.1600012   7.8294997   0.4969988
  96.3170012   6.6544997   0.0489988  97.0788574   6.9871892   0.3068912
 110.5170012  17.5544997  10.2549988 110.3620012  18.2324997   9.5979988
 111.4500012  17.6264997  10.4579988 110.6218500  17.6570170  10.1925119
  98.0130012   1.6724997   8.9919988  97.7840012   1.7314997   8.0639988
  97.5700012   0.8804997   9.2979988  97.9218530   1.5735753   8.9064786
  96.9430012  15.6124997   5.1519988  96.1110012  16.0854997   5.1799988
  97.4890012  16.1224997   4.5539988  96.9029739  15.7461871   5.0749716
  96.2310012  18.2254997  16.4819988  96.7720012  18.0084997  17.2419988
  95.7500012  17.4194997  16.2929988  96.2399345  18.0869514  16.5603076
 100.8290012  17.1444997  18.1029988 101.5960012  16.6854997  18.4439988
 100.8070012  16.9184997  17.1729988 100.9311434  17.0510409  18.0240043
 104.9210012  16.6524997  -0.5220012 104.2770012  16.0214997  -0.2010012
 105.6830012  16.1214997  -0.7540012 104.9358077  16.4942920  -0.5093989
 107.4060012  15.5244997  16.8319988 107.0550012  14.6684997  17.0749988
 108.1320012  15.6674997  17.4389988 107.4560769  15.4265636  16.9473619
 109.5250012  16.4694997  -0.2880012 109.8080012  15.6754997   0.1639988
 110.2650012  16.7024997  -0.8490012 109.6637486  16.3922803  -0.3019302
  96.1380012  12.0354997  17.4369988  96.2820012  11.1334997  17.1499988
  95.3660012  12.3214997  16.9489988  96.0533322  11.9508261  17.3317881
 100.4800012  12.3794997  -0.4310012 100.5440012  11.5854997   0.0999988
 101.1330012  12.2604997  -1.1210012 100.5770241  12.2547148  -0.4515683
 102.7940012  12.0054997  16.8689988 102.4650012  12.2764997  16.0119988
 102.9460012  11.0644997  16.7819988 102.7694809  11.9153862  16.7398244
 105.8320012  13.4264997  -0.6950012 105.5630012  13.6064997   0.2059988
 105.6260012  12.5004997  -0.8260012 105.7673825  13.3260152  -0.5894786
 108.5280012  11.9214997  14.2529988 109.2740012  12.5094997  14.1329988
 107.7710012  12.5034997  14.3159988 108.5277554  12.0807011  14.2450907
  96.9710012   9.2354997  16.8569988  97.3790012   8.3784997  16.7359988
  96.7110012   9.2504997  17.7779988  96.9917568   9.1200807  16.9649588
 101.6290012  10.3514997   1.8749988 101.1690012   9.8674997   2.5609988
 101.8840012   9.6834997   1.2389988 101.6004902  10.1948731   1.8829334
 100.9180012   8.2444997  14.2309988 100.3000012   8.9194997  14.5109988
 101.2620012   8.5654997  13.3979988 100.8799615   8.3802721  14.1566581
 102.7000012   8.5944997   0.1369988 102.5200012   8.4404997  -0.7900012
 103.6500012   8.7024997   0.1819988 102.8037776   8.5880175   0.0161843
 105.9380012  10.7164997  17.5079988 106.8910012  10.7994997  17.4809988
 105.7770012  10.0044997  18.1279988 106.0466426  10.6316746  17.5880579
 112.0900012  10.9494997  -0.4170012 111.8160012  10.5244997  -1.2300012
 112.1290012  11.8804997  -0.6340012 112.0577699  11.0172484  -0.5576390
 101.2570012   5.5994997  15.3129988 101.4070012   4.8704997  14.7109988
 101.2600012   6.3764997  14.7539988 101.2779302   5.6047851  15.1550692
 101.6700012   3.9694997  12.8059988 102.2060012   4.4204997  12.1539988
 100.8180012   3.8614997  12.3829988 101.6282178   4.0166390  12.6595756
 103.2520012   9.4084997  13.0449988 104.0020012   9.2524997  12.4719988
 102.9130012  10.2604997  12.7699988 103.3088921   9.5022968  12.9293561
 107.6670012   7.2234997  18.0739988 107.8600012   6.2924997  17.9619988
 108.5250012   7.6484997  18.0639988 107.8093020   7.1536389  18.0573361
 108.9840012  10.0124997  16.1509988 108.7030012  10.7214997  15.5739988
 109.9270012   9.9394997  15.9999988 109.0729027  10.0997646  16.0515551
  99.7360012   6.7974997  17.2249988  98.9690012   6.2654997  17.0149988
 100.4150012   6.4874997  16.6249988  99.7227022   6.6827506  17.1151648
 102.4760012   1.4254997  13.2369988 102.3770012   2.3724997  13.1319988
 101.7330012   1.0534997  12.7619988 102.3620564   1.5045902  13.1584560
 103.7400012   5.7474997  16.8009988 103.5040012   5.5274997  17.7029988
 102.9560012   5.5404997  16.2909988 103.6018628   5.6894760  16.8553932
 106.4550012   4.8744997  15.8769988 105.5080012   4.9064997  16.0089988
 106.7680012   4.2494997  16.5299988 106.3675475   4.7943207  15.9834455
 108.0890012   3.5084997  17.8819988 107.9930012   2.5564997  17.8759988
 107.7680012   3.7774997  18.7419988 108.0324070   3.4144035  17.9975441
  97.9160012   4.7184997  16.9289988  98.1280012   4.0114997  16.3189988
  97.8050012   4.2804997  17.7729988  97.9299721   4.5627084  16.9596843
 102.6970012   0.7194997  15.9089988 103.4090012   0.0794997  15.8949988
 102.5960012   0.9864997  14.9949988 102.7807939   0.6679938  15.7835650
 103.0510012   2.4024997  17.9619988 102.9190012   1.9264997  17.1419988
 102.4520012   3.1464997  17.9069988 102.9519071   2.4379618  17.8422886
 102.5970012  19.2854997   1.1389988 103.5300012  19.4434997   1.2819988
 102.3330012  19.9604997   0.5139988 102.6889510  19.3983611   1.0740741
  96.1660012  13.9214997   0.6209988  97.0800012  14.0004997   0.8949988
  96.1730012  13.2344997  -0.0450012  96.2921131  13.8393961   0.5684393
  94.8150012  19.3144997   5.6989988  94.1680012  18.8524997   5.1659988
  95.1690012  18.6424997   6.2809988  94.7743849  19.1604723   5.7047959
  95.6850012  17.3954997   7.5029988  95.3500012  16.5154997   7.6749988
  95.9070012  17.7404997   8.3679988  95.6691783  17.3217500   7.6434208
 113.2330012  18.2044997  10.4839988 113.2120012  18.3894997  11.4229988
 113.9240012  18.7734997  10.1429988 113.3234618  18.3066606  10.5663864
 112.7970012  17.7724997  13.4059988 112.3090012  17.0364997  13.0349988
 113.3460012  17.3784997  14.0839988 112.8044872  17.6186249  13.4469160
 111.2470012  13.5614997  18.0439988 110.3810012  13.4564997  18.4379988
 111.6240012  14.3204997  18.4899988 111.1793308  13.6496900  18.1582393
 112.5480012  11.8184997   3.5579988 113.3980012  12.2394997   3.6849988
 112.5540012  11.0784997   4.1649988 112.6651372  11.7760803   3.6574344
 112.9430012   9.8714997   5.3819988 112.2160012   9.3924997   5.7789988
 113.5240012  10.0774997   6.1139988 112.9219375   9.8337090   5.5354129
 112.7020012  12.6564997  10.3289988 113.5350012  12.2784997  10.0489988
 112.8140012  13.5994997  10.2099988 112.8312647  12.7322218  10.2745487
 111.1880012  15.5344997  12.6359988 110.5410012  15.8594997  13.2619988
 110.6710012  15.0944997  11.9619988 111.0294029  15.5195004  12.6305827
 113.2110012   9.7724997   1.7729988 112.6890012  10.1294997   1.0539988
 113.1780012  10.4474997   2.4509988 113.1351634   9.9125413   1.7663145
 111.5600012   7.0124997   0.3239988 111.6560012   7.6794997  -0.3570012
 111.4200012   6.1964997  -0.1580012 111.5542135   6.9934500   0.1658491
 110.7290012   8.3924997   5.9449988 110.5790012   7.4474997   5.9239988
 110.3760012   8.6734997   6.7879988 110.6606625   8.3010441   6.0562346
  95.7650012  10.4704997   9.9549988  95.9490012  10.3884997   9.0189988
  96.6140012  10.3464997  10.3789988  95.9050139  10.4425003   9.8841455
 111.5860012  10.3624997  15.5829988 112.1690012   9.6284997  15.7749988
 112.1500012  11.1344997  15.6299988 111.7419769  10.3664227  15.6156159
 113.0820012   8.2654997  16.2679988 112.2190012   7.8864997  16.1019988
 113.6870012   7.5264997  16.1939988 113.0455979   8.1138023  16.2352817
 110.8070012   4.4204997  -0.5590012 111.4180012   4.0494997   0.0779988
 109.9710012   3.9994997  -0.3630012 110.7775032   4.3127554  -0.4452965
 110.4400012   5.9754997   4.4069988 110.7200012   5.0684997   4.5309988
 111.1990012   6.4094997   4.0179988 110.5809277   5.9100942   4.3713682
 111.0520012   6.5564997   9.8429988 111.9850012   6.7684997   9.8089988
 110.8170012   6.6584997  10.7649988 111.1478036   6.5992769   9.9629976
 111.0810012   7.2934997  12.6189988 110.2380012   7.5614997  12.9849988
 111.5230012   8.1154997  12.4079988 111.0254158   7.4413291  12.6405491
  95.3620012   5.7414997  16.0959988  96.2820012   5.6194997  16.3319988
  94.9130012   4.9914997  16.4849988  95.4271580   5.6233727  16.1809006
 113.3640012   1.2734997  17.9719988 113.7140012   0.6194997  17.3669988
 113.5110012   2.1104997  17.5329988 113.4318419   1.2971591  17.8297118
 111.0530012   3.2384997   4.4549988 111.2360012   2.7894997   5.2809988
 110.4540012   2.6534997   3.9919988 110.9970202   3.0979975   4.5053275
  96.5830012   4.0534997   8.9869988  97.0290012   3.2614997   9.2889988
  97.0500012   4.7694997   9.4179988  96.7070172   4.0420624   9.0864820
  94.8870012   7.0524997  10.0559988  95.3790012   6.8314997   9.2649988
  95.2500012   7.8934997  10.3369988  95.0033126   7.1358357   9.9857531
 112.8840012   3.3824997  16.3219988 111.9660012   3.6534997  16.2859988
 113.0070012   2.8474997  15.5369988 112.7751066   3.3472892  16.2110487
 112.9200012   3.3054997   0.9829988 113.3320012   2.5844997   0.5079988
 113.6020012   3.9754997   1.0419988 113.0685885   3.2972368   0.9258915
  95.2010012   3.3104997   4.1099988  94.2760012   3.5194997   3.9809988
  95.6550012   3.7944997   3.4209988  95.1357368   3.4045993   3.9991226
 109.9720012  18.2944997   6.0559988 110.6240012  17.9474997   5.4479988
 110.4820012  18.7834997   6.7019988 110.1302637  18.3130597   6.0600236
  95.1650012   2.0484997  12.4549988  94.5000012   1.8024997  13.0979988
  94.7220012   2.6704997  11.8769988  95.0140956   2.0988632  12.4649352
  97.3570012  15.2234997  16.5989988  96.5360012  15.3984997  16.1389988
  97.1040012  15.1504997  17.5199988  97.2106164  15.2375622  16.6604923
 100.3110012  16.1984997  12.8579988  99.8860012  17.0074997  12.5749988
 101.2150012  16.2834997  12.5559988 100.3750271  16.3208469  12.7783776
 104.6220012  17.5974997  15.8169988 104.8070012  17.2634997  16.6949988
 105.4680012  17.9064997  15.4949988 104.7617539  17.5936047  15.8935605
 106.9670012  18.8834997  15.0609988 107.6440012  18.2504997  14.8209988
 107.2890012  19.2844997  15.8679988 107.1031637  18.8511154  15.1372793
 111.8840012   1.4724997  14.1409988 111.0720012   1.7974997  13.7529988
 112.1170012   0.7124997  13.6079988 111.8043423   1.4142436  14.0158253
  97.7130012  19.4544997  12.9049988  96.9920012  19.8944997  12.4539988
  97.3470012  19.2034997  13.7539988  97.5649804  19.4807698  12.9579840
 100.1800012  19.0544997  11.9349988  99.3150012  19.1264997  12.3389988
 100.1250012  19.6014997  11.1509988 100.0542085  19.1382685  11.8843362
 104.8900012  18.9424997  11.1099988 104.4340012  19.4714997  10.4559988
 105.0530012  19.5454997  11.8359988 104.8495585  19.0964468  11.1185062
 107.2180012  17.8204997  12.0549988 106.3130012  17.9854997  11.7899988
 107.6470012  18.6734997  11.9899988 107.1520799  17.9584483  12.0099182
 109.8220012  19.3904997  12.3499988 109.6400012  20.3064997  12.1399988
 109.9990012  18.9804997  11.5039988 109.8210210  19.4604822  12.2067885
  97.1270012  18.0774997   9.8149988  97.1090012  17.6524997  10.6729988
  97.9320012  17.7594997   9.4069988  97.2333875  17.9763812   9.8771655
  99.2690012  16.7874997   8.4699988  99.0500012  15.8714997   8.6399988
 100.0930012  16.9274997   8.9359988  99.3504420  16.6810520   8.5562774
 101.8060012  17.2574997   9.3189988 102.0190012  16.3694997   9.0319988
 101.8700012  17.2234997  10.2729988 101.8438232  17.1313102   9.4087397
 105.3140012   2.9214997   8.4629988 104.6400012   2.2924997   8.7189988
 105.8780012   2.4374997   7.8599988 105.2979230   2.7698744   8.4165340
 110.4570012   1.0294997   8.5759988 111.0610012   1.5764997   8.0739988
 109.5870012   1.3484997   8.3359988 110.4221241   1.1475806   8.4747654
 112.1840012   2.1674997   6.9089988 112.7960012   1.6534997   6.3829988
 112.5660012   3.0454997   6.9329988 112.3194540   2.2157140   6.8401830
  97.6410012   1.5554997   6.2849988  96.8640012   1.3214997   5.7779988
  98.1710012   0.7584997   6.2939988  97.6062330   1.4156988   6.2167742
  96.4770012   1.3534997   2.0889988  96.9160012   1.9644997   1.4969988
  95.8440012   1.8914997   2.5629988  96.4514514   1.5099257   2.0720930
 102.2200012   1.4824997   6.0989988 103.0950012   1.8704997   6.0689988
 102.0840012   1.2674997   7.0209988 102.3213695   1.5065184   6.2196440
 107.7770012   1.5124997   7.7479988 107.8530012   1.6074997   6.7979988
 107.5020012   0.6044997   7.8769988 107.7502321   1.4027867   7.6355079
 109.1300012   1.5384997   3.4399988 108.4280012   2.1534997   3.2309988
 108.6860012   0.7004997   3.5709988 108.9736330   1.5095783   3.4290328
  96.3780012  17.3014997   2.9869988  95.6930012  17.2634997   2.3189988
  96.3820012  18.2144997   3.2749988  96.2848193  17.4197016   2.9345284
  98.3380012   3.2694997   0.5309988  98.8300012   2.6394997   0.0039988
  98.9620012   3.5654997   1.1949988  98.4895446   3.2233199   0.5485980
 103.3640012   3.5624997   2.9879988 103.5420012   2.9164997   3.6709988
 103.3110012   4.3964997   3.4559988 103.3811829   3.5867985   3.1445940
 105.2430012  18.5114997   1.3839988 106.1090012  18.8774997   1.2059988
 104.9960012  18.0714997   0.5699988 105.3282392  18.5021756   1.2496289
 111.9520012  18.0744997   4.0629988 111.7570012  17.3264997   3.4979988
 111.9130012  18.8324997   3.4799988 111.9200380  18.0746099   3.9068384
  97.5990012   2.0694997  15.8029988  97.2330012   1.3044997  16.2459988
  98.5120012   2.0984997  16.0899988  97.6722790   1.9687224  15.9024070
  99.5720012   1.4204997  17.3389988 100.4700012   1.1464997  17.1539988
  99.1850012   0.6774997  17.8029988  99.6426612   1.2825914  17.3763643
  98.1960012  18.2214997   0.0119988  97.9290012  18.5084997   0.8849988
  98.9680012  17.6754997   0.1639988  98.2637488  18.1870294   0.1521050
 107.9930012   0.7524997  17.5209988 108.0700012   0.3264997  18.3749988
 108.8870012   0.7664997  17.1779988 108.1243428   0.6960879  17.5915310
 111.1690012  16.8254997  16.2129988 110.3870012  16.6394997  15.6939988
 111.0970012  17.7544997  16.4309988 111.0521777  16.9256492  16.1714048
 125.5750012  10.7114997   6.2439988 125.6640012  11.6554997   6.1119988
 124.9370012  10.4364997   5.5859988 125.5009081  10.8034830   6.1369614
 124.5080012   9.9664997   9.6629988 124.4700012   9.3204997  10.3679988
 124.1860012   9.5004997   8.8919988 124.4592333   9.8149408   9.6552978
 116.8770012   9.5814997  11.2559988 116.9180012   8.9554997  11.9789988
 117.5800012  10.2054997  11.4379988 116.9776363   9.5801196  11.3796044
 128.2140012  12.9054997   7.9639988 127.7740012  12.1854997   8.4149988
 128.2010012  13.6264997   8.5939988 128.1520226  12.9043731   8.1108494
 117.8000012  14.0314997   9.7909988 117.4310012  13.2294997   9.4209988
 118.7410012  13.8624997   9.8369988 117.8767289  13.8990153   9.7466316
 114.4100012   7.6914997   5.1839988 113.9630012   8.5374997   5.1649988
 113.8490012   7.1114997   4.6679988 114.2729900   7.7289916   5.1116801
 115.1210012   9.8534997   7.3099988 115.3340012   9.0834997   7.8369988
 115.8590012   9.9424997   6.7059988 115.2498496   9.7601394   7.3005300
 125.3260012  18.0104997   8.1769988 125.9460012  17.3334997   7.9029988
 125.1180012  17.7924997   9.0849988 125.3826904  17.8883870   8.2623365
 122.8980012  12.3994997  10.0689988 123.2020012  11.7134997   9.4739988
 123.6190012  12.5174997  10.6869988 123.0370671  12.3216305  10.0711816
 131.5610012   4.0004997  10.9299988 131.6100012   4.6104997  11.6659988
 131.9860012   4.4614997  10.2069988 131.6251824   4.1463741  10.9330205
 126.0390012   6.7934997  10.3969988 126.1810012   5.8474997  10.4169988
 125.9320012   7.0004997   9.4679988 126.0439864   6.6919534  10.2742339
 119.1930012   4.8944997   7.6689988 119.2370012   5.7544997   7.2509988
 118.7360012   4.3424997   7.0349988 119.1372185   4.9375799   7.5260299
 126.9160012   5.0254997   6.0699988 127.5620012   4.6964997   6.6949988
 127.4260012   5.5434997   5.4469988 127.0734264   5.0504611   6.0713862
 115.8140012   7.2914997   8.4309988 116.4670012   6.7414997   8.8629988
 115.8380012   7.0174997   7.5139988 115.9066683   7.1791466   8.3662123
 120.9700012   8.8414997   7.6459988 121.5860012   8.3154997   8.1559988
 120.3840012   8.2014997   7.2429988 120.9750810   8.6829208   7.6613173
 131.9520012   5.4784997  13.1659988 131.2640012   6.1364997  13.0699988
 131.9680012   5.2814997  14.1019988 131.8598525   5.5420462  13.2794808
 118.0040012   3.8124997  11.7429988 117.7850012   4.3424997  10.9769988
 117.3360012   4.0394997  12.3899988 117.8837600   3.9156906  11.7256379
 125.3730012  13.3124997   5.2869988 125.0770012  12.9904997   4.4359988
 125.0480012  14.2124997   5.3279988 125.2886371  13.3900215   5.1761801
 120.5730012  11.4884997  12.0299988 119.8330012  12.0864997  12.1339988
 121.2870012  12.0424997  11.7149988 120.5682237  11.6452831  12.0016465
 128.6800012   4.3164997   8.0499988 128.4640012   3.5504997   8.5829988
 129.3350012   4.7884997   8.5629988 128.7390632   4.2755889   8.1922861
 117.5970012   5.7044997   9.6949988 118.2110012   6.3374997  10.0689988
 118.1090012   5.2324997   9.0389988 117.7502296   5.7272370   9.6574252
 118.9800012  13.4524997  12.8179988 118.9750012  14.3324997  12.4399988
 118.1270012  13.3694997  13.2429988 118.8639464  13.5616117  12.8237907
 115.1010012  13.1234997   3.5999988 114.8290012  13.3524997   2.7109988
 115.1470012  13.9614997   4.0599988 115.0700094  13.2681213   3.5405697
 128.7260012  14.7454997  10.3119988 127.7850012  14.8034997  10.4739988
 129.0030012  15.6514997  10.1749988 128.6344679  14.8759443  10.3156815
 129.0270012   3.0314997  11.7299988 128.2910012   3.6424997  11.6919988
 129.7100012   3.4464997  11.2029988 129.0186541   3.1711374  11.6535832
 122.0300012   1.1184997   9.1959988 121.9130012   0.1694997   9.1409988
 121.1750012   1.4504997   9.4689988 121.8983733   1.0335409   9.2253897
 126.9780012  16.5264997   6.9379988 127.4040012  15.8194997   6.4529988
 127.2950012  17.3274997   6.5209988 127.0791019  16.5380994   6.8153130
 128.1380012  14.4274997   5.4459988 127.8800012  13.7374997   4.8349988
 128.2090012  13.9844997   6.2919988 128.1122856  14.2732124   5.4766885
 129.8240012  12.9934997  13.9239988 129.9640012  12.4024997  13.1839988
 129.9910012  13.8664997  13.5669988 129.8656778  13.0306426  13.7746965
 124.2970012   9.9554997   3.6959988 123.5850012  10.4904997   3.3439988
 124.9880012  10.0114997   3.0359988 124.2930132  10.0362543   3.5586289
 124.3500012   8.4134997   0.7349988 125.0510012   8.4354997   1.3859988
 124.6530012   7.7854997   0.0789988 124.4867830   8.3316566   0.7353711
 131.6660012   9.3334997  11.9899988 131.0130012  10.0284997  12.0789988
 132.1310012   9.5434997  11.1799988 131.6395390   9.4569425  11.8926883
 127.7020012  10.1654997   4.6479988 126.9700012  10.3934997   5.2209988
 128.1500012   9.4514997   5.1029988 127.6623095  10.1002571   4.7879119
 127.6000012   8.3394997  13.7149988 127.6800012   9.1024997  14.2869988
 126.9980012   8.6184997  13.0249988 127.5295756   8.4817134  13.7000589
 119.3480012  10.7954997   6.5299988 119.0170012  10.4254997   5.7119988
 119.9360012  10.1254997   6.8769988 119.3821873  10.6541156   6.4648102
 120.7140012  14.2234997   9.2119988 120.6200012  13.6454997   8.4549988
 121.4440012  13.8524997   9.7079988 120.7997981  14.0942390   9.1754165
 119.7140012   9.5644997  10.1639988 120.2800012   9.6854997   9.4009988
 120.0330012  10.2014997  10.8029988 119.8345786   9.6671884  10.1460040
 126.0230012  15.0674997  10.8979988 125.7830012  15.7294997  11.5459988
 125.8250012  14.2334997  11.3229988 125.9633808  15.0453134  11.0441524
 120.5940012  13.9634997  14.8809988 120.2830012  14.7454997  15.3359988
 119.9440012  13.8104997  14.1949988 120.4635558  14.0499105  14.8505871
 126.5730012   9.3274997   2.3329988 127.1530012   9.4774997   3.0799988
 126.9870012   9.7984997   1.6099988 126.7082830   9.4116841   2.3374134
 117.5140012  10.1614997  14.1099988 117.5850012  10.8124997  14.8079988
 116.6240012  10.2644997  13.7749988 117.4033117  10.2645936  14.1602700
 124.3000012  16.0644997   5.7679988 124.7740012  16.3594997   6.5459988
 123.7370012  16.8024997   5.5349988 124.2887653  16.2046932   5.8430136
 118.8340012  16.0354997  15.6439988 118.8410012  15.8994997  14.6969988
 117.9180012  15.9174997  15.8959988 118.7111714  16.0009430  15.5484666
 130.2720012   1.0774997   2.1459988 129.3720012   1.2164997   2.4409988
 130.5240012   1.9084997   1.7439988 130.1828702   1.2089074   2.1320205
 118.3380012   9.8654997   4.1199988 118.0460012  10.6334997   3.6289988
 117.6640012   9.2054997   3.9569988 118.2069081   9.8814406   4.0307340
 131.4610012  15.4434997   0.5219988 131.5350012  16.3824997   0.6929988
 132.3670012  15.1384997   0.4659988 131.5935100  15.5306722   0.5378119
 114.4310012  12.2284997  12.9349988 113.9300012  12.2004997  12.1199988
 114.4360012  11.3224997  13.2439988 114.3631526  12.1022278  12.8652872
 114.1810012  15.0084997   9.8189988 115.1270012  14.8644997   9.7999988
 114.0690012  15.7924997  10.3559988 114.2952727  15.0948046   9.8890072
 132.3790012  15.6744997  15.5009988 132.3300012  14.7194997  15.4639988
 131.5520012  15.9424997  15.9019988 132.2604940  15.5798998  15.5501375
 123.3580012  15.2484997  14.3769988 123.4450012  16.0744997  14.8519988
 122.4940012  14.9184997  14.6259988 123.2531964  15.3169878  14.4756549
 123.7720012  19.0204997   4.1829988 123.6970012  18.8994997   3.2369988
 123.8050012  19.9704997   4.3019988 123.7661848  19.1322500   4.0694834
 117.4250012  17.8094997   5.9639988 117.5780012  17.4614997   6.8429988
 116.5750012  17.4534997   5.7089988 117.3308962  17.7136650   6.0498340
 126.8740012  18.1744997   1.1849988 127.2490012  17.4304997   0.7149988
 126.8780012  17.9044997   2.1039988 126.9258915  18.0361486   1.2447824
 126.5430012  18.1004997   3.9349988 125.6070012  18.2004997   4.1129988
 126.8230012  17.3914997   4.5129988 126.4528255  18.0182711   4.0375391
 129.5310012   7.1674997  15.9809988 129.1240012   7.6484997  15.2599988
 129.5720012   6.2624997  15.6729988 129.4808437   7.1109374  15.8406683
 116.6800012  13.5514997  13.9779988 116.8960012  13.1904997  14.8369988
 115.8250012  13.1774997  13.7679988 116.5939292  13.4514111  14.0673386
 119.2990012   2.0214997   9.9729988 118.4370012   1.9344997   9.5659988
 119.2760012   2.8774997  10.4009988 119.1780330   2.1252765   9.9751863
 123.9620012   1.7434997  13.3479988 124.3820012   1.3284997  14.1009988
 123.0290012   1.5654997  13.4649988 123.8933644   1.6625900  13.4669539
 127.2880012   5.4994997  14.2009988 126.7740012   5.3734997  14.9989988
 127.1330012   6.4114997  13.9569988 127.1966852   5.6056132  14.2772158
 128.0510012  10.3604997  -0.0370012 128.0930012  10.1374997  -0.9670012
 128.9000012  10.7594997   0.1529988 128.1715396  10.3839155  -0.1386373
 123.6230012   4.2364997   0.6329988 123.3700012   4.2554997   1.5559988
 123.3670012   3.3644997   0.3319988 123.5537790   4.1212437   0.7186263
 119.3900012   6.9874997  11.0679988 118.7480012   6.9464997  11.7769988
 119.4270012   7.9134997  10.8309988 119.3071324   7.1071559  11.1329824
 119.3870012   7.2084997   5.9799988 118.4940012   6.8674997   5.9219988
 119.8370012   6.8314997   5.2249988 119.3257305   7.1108484   5.8699177
 124.9220012   7.6244997   4.7969988 124.5130012   8.4394997   4.5059988
 125.6430012   7.4844997   4.1829988 124.9634537   7.7172018   4.6741342
 124.0240012   7.7994997  16.2849988 123.4620012   7.0954997  16.6059988
 124.8510012   7.6794997  16.7529988 124.0587095   7.6867883  16.3922330
 125.9270012   7.0704997   7.6109988 125.7320012   7.6754997   6.8959988
 126.1080012   6.2364997   7.1769988 125.9247614   7.0406300   7.4544405
 117.1400012   7.3074997  12.9349988 117.1020012   7.7074997  13.8039988
 116.6490012   6.4904997  13.0259988 117.0684684   7.2518069  13.0661059
 120.5060012   4.6814997  -0.2660012 120.0750012   4.2364997   0.4639988
 119.7880012   5.0534997  -0.7780012 120.3499438   4.6708940  -0.2353201
 113.7480012   4.4234997   6.7859988 114.3790012   4.3944997   7.5049988
 114.1970012   3.9984997   6.0559988 113.8950774   4.3620492   6.7856553
 115.0220012   5.1694997   2.2099988 115.4960012   5.7604997   1.6249988
 114.3050012   5.7004997   2.5569988 114.9899341   5.3220867   2.1768836
 125.1910012   8.7084997  12.2829988 125.5140012   8.0774997  11.6399988
 124.7510012   8.1734997  12.9429988 125.1756895   8.5498441  12.2842850
 121.9680012   4.6354997   7.0669988 121.0570012   4.6924997   7.3549988
 122.4740012   4.5754997   7.8769988 121.9115413   4.6351985   7.2160622
 116.7970012   6.2644997   5.8929988 115.9070012   6.3644997   5.5529988
 117.0930012   5.4224997   5.5469988 116.7152823   6.1643545   5.7997213
 120.4500012   6.2644997   3.5499988 121.3810012   6.3934997   3.7279988
 120.2350012   6.9344997   2.8999988 120.5484247   6.3726565   3.4865747
 126.3730012   3.8704997  10.3309988 125.6970012   4.0014997  10.9949988
 125.8880012   3.7154997   9.5209988 126.2147145   3.8674905  10.3124517
 119.1240012   7.4594997   1.1169988 118.5810012   7.0794997   0.4249988
 119.9570012   7.6534997   0.6879988 119.1624399   7.4338124   0.9644526
 129.6610012  19.5424997  16.6079988 129.8610012  19.9664997  15.7729988
 130.3160012  19.8854997  17.2149988 129.7770051  19.6469648  16.5757836
 117.2590012  12.0164997  16.2159988 117.9910012  12.2704997  16.7769988
 116.4790012  12.2204997  16.7309988 117.2538232  12.0789177  16.3625760
 123.2880012   7.4234997   8.9539988 123.8530012   6.8764997   8.4069988
 123.1410012   6.9014997   9.7419988 123.3452918   7.2782024   8.9858454
 118.2900012   3.5594997   5.3719988 117.9730012   2.6574997   5.3369988
 119.0720012   3.5614997   4.8189988 118.3522284   3.4361628   5.2924783
 121.9150012   5.8114997  11.3679988 121.0790012   6.2654997  11.4779988
 122.4390012   6.0874997  12.1199988 121.8714414   5.9109376  11.4847136
 122.4590012  12.0244997   3.0519988 121.7140012  11.5174997   2.7299988
 122.3250012  12.0734997   3.9989988 122.3388776  11.9616940   3.1358647
 129.6090012  11.1574997  11.8389988 130.2510012  11.6144997  11.2949988
 128.7790012  11.2704997  11.3759988 129.5845963  11.2352704  11.7020177
 126.3570012   4.8384997   1.2519988 125.4180012   4.9504997   1.0999988
 126.6540012   5.6954997   1.5579988 126.2687666   4.9696443   1.2725768
 123.9780012  12.2084997  14.2889988 123.6330012  11.8274997  15.0959988
 123.7780012  13.1424997  14.3609988 123.9038061  12.2825228  14.4090961
 127.0750012   6.7054997   2.9119988 127.9670012   6.5684997   3.2309988
 127.1320012   7.4964997   2.3759988 127.2046285   6.7936660   2.8831691
 117.5840012  11.3194997   8.8219988 118.3290012  11.3174997   8.2209988
 117.6620012  10.4964997   9.3039988 117.6965518  11.2079315   8.8048929
 124.5850012  13.4834997   2.0779988 124.2890012  14.3094997   2.4589988
 123.8820012  12.8634997   2.2739988 124.4494914  13.5128199   2.1566443
 114.5920012   9.7804997  14.1369988 114.8150012   9.3624997  14.9689988
 113.9900012   9.1674997  13.7139988 114.5411759   9.6404668  14.1937022
 121.6080012   9.2974997  16.3499988 121.3120012   9.1314997  15.4549988
 122.5400012   9.0774997  16.3389988 121.6934166   9.2450640  16.2260536
 126.2290012  14.6704997  14.2399988 125.3280012  14.8534997  13.9719988
 126.2630012  14.9294997  15.1609988 126.1103041  14.7305512  14.3278197
 131.9600012   6.9154997   2.6069988 131.4060012   6.5194997   1.9349988
 132.0600012   7.8254997   2.3289988 131.8977059   6.9843586   2.4774401
 131.9230012  12.7154997  15.4439988 131.0720012  12.9534997  15.0769988
 132.5140012  12.6984997  14.6909988 131.8862487  12.7458258  15.2918893
 130.2550012  15.7014997   3.0719988 129.8820012  14.8754997   3.3809988
 130.5330012  15.5184997   2.1749988 130.2415630  15.5637303   2.9929626
 127.4160012  10.5094997  10.0929988 126.4870012  10.2774997  10.0659988
 127.8670012   9.7324997   9.7629988 127.3499216  10.3727238  10.0446917
 119.9590012  14.8374997   6.2259988 120.4860012  15.6104997   6.0259988
 119.0790012  15.0624997   5.9249988 119.9121773  14.9738005   6.1579010
 115.7140012   9.6994997   0.8129988 116.3300012  10.3264997   1.1929988
 114.8520012  10.0154997   1.0849988 115.6817698   9.8279430   0.9017183
 121.3860012  12.5004997   5.8029988 121.1450012  13.4254997   5.8439988
 120.6450012  12.0414997   6.1989988 121.2528409  12.5651421   5.8621377
 121.9010012  16.6494997  12.1179988 122.2630012  17.5044997  11.8839988
 122.4320012  16.3574997  12.8579988 122.0224473  16.7271060  12.1860855
 120.0690012  17.5224997   5.3479988 119.1190012  17.6274997   5.3989988
 120.4210012  18.3424997   5.6929988 119.9864203  17.6478314   5.4016650
 125.4450012  12.7484997  11.8179988 125.0190012  12.5214997  12.6449988
 126.0250012  12.0104997  11.6359988 125.4651868  12.6175299  11.9065830
 127.6480012  13.6774997   0.8919988 128.0010012  13.2974997   1.6969988
 126.6990012  13.5844997   0.9789988 127.5680441  13.6129596   1.0138559
 128.1030012  17.3004997  14.2879988 127.5020012  16.7454997  13.7919988
 128.3850012  17.9674997  13.6619988 128.0588519  17.3146841  14.1354952
 132.1510012  18.1574997   1.0929988 132.8950012  18.7434997   0.9529988
 131.4570012  18.7254997   1.4269988 132.1590292  18.3145582   1.1189961
 116.2260012   4.5334997  13.6949988 115.3330012   4.8724997  13.6269988
 116.1270012   3.6784997  14.1129988 116.0904164   4.4642588  13.7422235
 128.5140012  12.3504997   3.1189988 128.2360012  11.6224997   3.6749988
 129.4410012  12.4694997   3.3239988 128.6013124  12.2668802   3.2228845
 115.8770012  16.3384997  12.1299988 116.0940012  15.4064997  12.0989988
 116.1230012  16.6124997  13.0129988 115.9399549  16.2480636  12.2451763
 121.7390012  14.7894997  -0.6610012 121.9780012  14.0414997  -1.2080012
 121.4700012  14.4014997   0.1719988 121.7353675  14.6346638  -0.6233135
 120.6760012  14.3594997   1.7959988 120.8220012  13.8394997   2.5859988
 120.6730012  15.2664997   2.1019988 120.6955989  14.4108853   1.9456088
 117.1290012  11.6124997   2.3059988 116.4430012  11.9644997   2.8729988
 117.6510012  12.3754997   2.0589988 117.1056852  11.7638578   2.3502118
 124.9600012   4.2744997  12.5849988 125.6590012   4.3484997  13.2349988
 124.5790012   3.4104997  12.7389988 125.0041767   4.1677624  12.6948322
 125.7450012   3.9264997   3.6819988 125.9650012   4.3984997   2.8789988
 126.3030012   4.3214997   4.3519988 125.8504968   4.0444285   3.6627331
 123.4130012  16.0574997   2.5449988 122.5970012  16.5544997   2.5969988
 123.9430012  16.5324997   1.9049988 123.3729161  16.1897722   2.4655956
 122.9450012   5.6544997   4.5169988 123.7570012   6.1594997   4.5629988
 122.7000012   5.5094997   5.4309988 123.0230520   5.7040375   4.6468517
 123.4800012   6.6404997  13.7019988 123.5990012   7.2144997  14.4589988
 124.1360012   5.9524997  13.8159988 123.5849757   6.6261079  13.8210825
 123.8280012   2.7354997   5.4549988 123.4820012   3.3534997   6.0999988
 124.4870012   3.2364997   4.9739988 123.8697826   2.8875802   5.4780971
 120.7520012  17.1014997   2.5269988 120.9120012  17.9004997   2.0259988
 120.5540012  17.4074997   3.4119988 120.7471649  17.2524469   2.5779815
 119.4860012   3.7984997   2.1419988 119.4030012   4.6874997   2.4889988
 120.3760012   3.5334997   2.3739988 119.5949469   3.8841430   2.2207626
 129.6850012   4.5474997  14.5369988 128.7680012   4.8104997  14.4489988
 130.0200012   4.5444997  13.6399988 129.6049900   4.5830224  14.4037919
 128.2870012   8.2984997   8.6319988 127.4890012   7.8834997   8.3039988
 128.7320012   7.6074997   9.1229988 128.2379885   8.1483543   8.6534889
 117.7450012  14.2264997   1.2029988 118.3370012  14.9254997   1.4789988
 118.2040012  13.7934997   0.4829988 117.8881142  14.2637049   1.1434830
 116.0610012   6.8904997   0.3189988 116.0160012   7.8294997   0.4969988
 115.1730012   6.6544997   0.0489988 115.9348574   6.9871892   0.3068912
 129.3730012  17.5544997  10.2549988 129.2180012  18.2324997   9.5979988
 130.3060012  17.6264997  10.4579988 129.4778500  17.6570170  10.1925119
 116.8690012   1.6724997   8.9919988 116.6400012   1.7314997   8.0639988
 116.4260012   0.8804997   9.2979988 116.7778530   1.5735753   8.9064786
 115.7990012  15.6124997   5.1519988 114.9670012  16.0854997   5.1799988
 116.3450012  16.1224997   4.5539988 115.7589739  15.7461871   5.0749716
 115.0870012  18.2254997  16.4819988 115.6280012  18.0084997  17.2419988
 114.6060012  17.4194997  16.2929988 115.0959345  18.0869514  16.5603076
 119.6850012  17.1444997  18.1029988 120.4520012  16.6854997  18.4439988
 119.6630012  16.9184997  17.1729988 119.7871434  17.0510409  18.0240043
 123.7770012  16.6524997  -0.5220012 123.1330012  16.0214997  -0.2010012
 124.5390012  16.1214997  -0.7540012 123.7918077  16.4942920  -0.5093989
 126.2620012  15.5244997  16.8319988 125.9110012  14.6684997  17.0749988
 126.9880012  15.6674997  17.4389988 126.3120769  15.4265636  16.9473619
 128.3810012  16.4694997  -0.2880012 128.6640012  15.6754997   0.1639988
 129.1210012  16.7024997  -0.8490012 128.5197486  16.3922803  -0.3019302
 114.9940012  12.0354997  17.4369988 115.1380012  11.1334997  17.1499988
 114.2220012  12.3214997  16.9489988 114.9093323  11.9508261  17.3317881
 119.3360012  12.3794997  -0.4310012 119.4000012  11.5854997   0.0999988
 119.9890012  12.2604997  -1.1210012 119.4330241  12.2547148  -0.4515683
 121.6500012  12.0054997  16.8689988 121.3210012  12.2764997  16.0119988
 121.8020012  11.0644997  16.7819988 121.6254809  11.9153862  16.7398244
 124.6880012  13.4264997  -0.6950012 124.4190012  13.6064997   0.2059988
 124.4820012  12.5004997  -0.8260012 124.6233825  13.3260152  -0.5894786
 127.3840012  11.9214997  14.2529988 128.1300012  12.5094997  14.1329988
 126.6270012  12.5034997  14.3159988 127.3837554  12.0807011  14.2450907
 115.8270012   9.2354997  16.8569988 116.2350012   8.3784997  16.7359988
 115.5670012   9.2504997  17.7779988 115.8477568   9.1200807  16.9649588
 120.4850012  10.3514997   1.8749988 120.0250012   9.8674997   2.5609988
 120.7400012   9.6834997   1.2389988 120.4564902  10.1948731   1.8829334
 119.7740012   8.2444997  14.2309988 119.1560012   8.9194997  14.5109988
 120.1180012   8.5654997  13.3979988 119.7359615   8.3802721  14.1566581
 121.5560012   8.5944997   0.1369988 121.3760012   8.4404997  -0.7900012
 122.5060012   8.7024997   0.1819988 121.6597776   8.5880175   0.0161843
 124.7940012  10.7164997  17.5079988 125.7470012  10.7994997  17.4809988
 124.6330012  10.0044997  18.1279988 124.9026426  10.6316746  17.5880579
 130.9460012  10.9494997  -0.4170012 130.6720012  10.5244997  -1.2300012
 130.9850012  11.8804997  -0.6340012 130.9137699  11.0172484  -0.5576390
 120.1130012   5.5994997  15.3129988 120.2630012   4.8704997  14.7109988
 120.1160012   6.3764997  14.7539988 120.1339302   5.6047851  15.1550692
 120.5260012   3.9694997  12.8059988 121.0620012   4.4204997  12.1539988
 119.6740012   3.8614997  12.3829988 120.4842178   4.0166390  12.6595756
 122.1080012   9.4084997  13.0449988 122.8580012   9.2524997  12.4719988
 121.7690012  10.2604997  12.7699988 122.1648921   9.5022968  12.9293561
 126.5230012   7.2234997  18.0739988 126.7160012   6.2924997  17.9619988
 127.3810012   7.6484997  18.0639988 126.6653020   7.1536389  18.0573361
 127.8400012  10.0124997  16.1509988 127.5590012  10.7214997  15.5739988
 128.7830012   9.9394997  15.9999988 127.9289027  10.0997646  16.0515551
 118.5920012   6.7974997  17.2249988 117.8250012   6.2654997  17.0149988
 119.2710012   6.4874997  16.6249988 118.5787022   6.6827506  17.1151648
 121.3320012   1.4254997  13.2369988 121.2330012   2.3724997  13.1319988
 120.5890012   1.0534997  12.7619988 121.2180564   1.5045902  13.1584560
 122.5960012   5.7474997  16.8009988 122.3600012   5.5274997  17.7029988
 121.8120012   5.5404997  16.2909988 122.4578628   5.6894760  16.8553932
 125.3110012   4.8744997  15.8769988 124.3640012   4.9064997  16.0089988
 125.6240012   4.2494997  16.5299988 125.2235475   4.7943207  15.9834455
 126.9450012   3.5084997  17.8819988 126.8490012   2.5564997  17.8759988
 126.6240012   3.7774997  18.7419988 126.8884070   3.4144035  17.9975441
 116.7720012   4.7184997  16.9289988 116.9840012   4.0114997  16.3189988
 116.6610012   4.2804997  17.7729988 116.7859721   4.5627084  16.9596843
 121.5530012   0.7194997  15.9089988 122.2650012   0.0794997  15.8949988
 121.4520012   0.9864997  14.9949988 121.6367939   0.6679938  15.7835650
 121.9070012   2.4024997  17.9619988 121.7750012   1.9264997  17.1419988
 121.3080012   3.1464997  17.9069988 121.8079071   2.4379618  17.8422886
 121.4530012  19.2854997   1.1389988 122.3860012  19.4434997   1.2819988
 121.1890012  19.9604997   0.5139988 121.5449510  19.3983611   1.0740741
 115.0220012  13.9214997   0.6209988 115.9360012  14.0004997   0.8949988
 115.0290012  13.2344997  -0.0450012 115.1481131  13.8393961   0.5684393
 113.6710012  19.3144997   5.6989988 113.0240012  18.8524997   5.1659988
 114.0250012  18.6424997   6.2809988 113.6303849  19.1604723   5.7047959
 114.5410012  17.3954997   7.5029988 114.2060012  16.5154997   7.6749988
 114.7630012  17.7404997   8.3679988 114.5251783  17.3217500   7.6434208
 132.0890012  18.2044997  10.4839988 132.0680012  18.3894997  11.4229988
 132.7800012  18.7734997  10.1429988 132.1794618  18.3066606  10.5663864
 131.6530012  17.7724997  13.4059988 131.1650012  17.0364997  13.0349988
 132.2020012  17.3784997  14.0839988 131.6604872  17.6186249  13.4469160
 130.1030012  13.5614997  18.0439988 129.2370012  13.4564997  18.4379988
 130.4800012  14.3204997  18.4899988 130.0353308  13.6496900  18.1582393
 131.4040012  11.8184997   3.5579988 132.2540012  12.2394997   3.6849988
 131.4100012  11.0784997   4.1649988 131.5211372  11.7760803   3.6574344
 131.7990012   9.8714997   5.3819988 131.0720012   9.3924997   5.7789988
 132.3800012  10.0774997   6.1139988 131.7779375   9.8337090   5.5354129
 131.5580012  12.6564997  10.3289988 132.3910012  12.2784997  10.0489988
 131.6700012  13.5994997  10.2099988 131.6872647  12.7322218  10.2745487
 130.0440012  15.5344997  12.6359988 129.3970012  15.8594997  13.2619988
 129.5270012  15.0944997  11.9619988 129.8854029  15.5195004  12.6305827
 132.0670012   9.7724997   1.7729988 131.5450012  10.1294997   1.0539988
 132.0340012  10.4474997   2.4509988 131.9911634   9.9125413   1.7663145
 130.4160012   7.0124997   0.3239988 130.5120012   7.6794997  -0.3570012
 130.2760012   6.1964997  -0.1580012 130.4102135   6.9934500   0.1658491
 129.5850012   8.3924997   5.9449988 129.4350012   7.4474997   5.9239988
 129.2320012   8.6734997   6.7879988 129.5166625   8.3010441   6.0562346
 114.6210012  10.4704997   9.9549988 114.8050012  10.3884997   9.0189988
 115.4700012  10.3464997  10.3789988 114.7610139  10.4425003   9.8841455
 130.4420012  10.3624997  15.5829988 131.0250012   9.6284997  15.7749988
 131.0060012  11.1344997  15.6299988 130.5979769  10.3664227  15.6156159
 131.9380012   8.2654997  16.2679988 131.0750012   7.8864997  16.1019988
 132.5430012   7.5264997  16.1939988 131.9015979   8.1138023  16.2352817
 129.6630012   4.4204997  -0.5590012 130.2740012   4.0494997   0.0779988
 128.8270012   3.9994997  -0.3630012 129.6335032   4.3127554  -0.4452965
 129.2960012   5.9754997   4.4069988 129.5760012   5.0684997   4.5309988
 130.0550012   6.4094997   4.0179988 129.4369277   5.9100942   4.3713682
 129.9080012   6.5564997   9.8429988 130.8410012   6.7684997   9.8089988
 129.6730012   6.6584997  10.7649988 130.0038036   6.5992769   9.9629976
 129.9370012   7.2934997  12.6189988 129.0940012   7.5614997  12.9849988
 130.3790012   8.1154997  12.4079988 129.8814158   7.4413291  12.6405491
 114.2180012   5.7414997  16.0959988 115.1380012   5.6194997  16.3319988
 113.7690012   4.9914997  16.4849988 114.2831580   5.6233727  16.1809006
 132.2200012   1.2734997  17.9719988 132.5700012   0.6194997  17.3669988
 132.3670012   2.1104997  17.5329988 132.2878419   1.2971591  17.8297118
 129.9090012   3.2384997   4.4549988 130.0920012   2.7894997   5.2809988
 129.3100012   2.6534997   3.9919988 129.8530202   3.0979975   4.5053275
 115.4390012   4.0534997   8.9869988 115.8850012   3.2614997   9.2889988
 115.9060012   4.7694997   9.4179988 115.5630172   4.0420624   9.0864820
 113.7430012   7.0524997  10.0559988 114.2350012   6.8314997   9.2649988
 114.1060012   7.8934997  10.3369988 113.8593126   7.1358357   9.9857531
 131.7400012   3.3824997  16.3219988 130.8220012   3.6534997  16.2859988
 131.8630012   2.8474997  15.5369988 131.6311066   3.3472892  16.2110487
 131.7760012   3.3054997   0.9829988 132.1880012   2.5844997   0.5079988
 132.4580012   3.9754997   1.0419988 131.9245885   3.2972368   0.9258915
 114.0570012   3.3104997   4.1099988 113.1320012   3.5194997   3.9809988
 114.5110012   3.7944997   3.4209988 113.9917368   3.4045993   3.9991226
 128.8280012  18.2944997   6.0559988 129.4800012  17.9474997   5.4479988
 129.3380012  18.7834997   6.7019988 128.9862637  18.3130597   6.0600236
 114.0210012   2.0484997  12.4549988 113.3560012   1.8024997  13.0979988
 113.5780012   2.6704997  11.8769988 113.8700956   2.0988632  12.4649352
 116.2130012  15.2234997  16.5989988 115.3920012  15.3984997  16.1389988
 115.9600012  15.1504997  17.5199988 116.0666164  15.2375622  16.6604923
 119.1670012  16.1984997  12.8579988 118.7420012  17.0074997  12.5749988
 120.0710012  16.2834997  12.5559988 119.2310271  16.3208469  12.7783776
 123.4780012  17.5974997  15.8169988 123.6630012  17.2634997  16.6949988
 124.3240012  17.9064997  15.4949988 123.6177539  17.5936047  15.8935605
 125.8230012  18.8834997  15.0609988 126.5000012  18.2504997  14.8209988
 126.1450012  19.2844997  15.8679988 125.9591637  18.8511154  15.1372793
 130.7400012   1.4724997  14.1409988 129.9280012   1.7974997  13.7529988
 130.9730012   0.7124997  13.6079988 130.6603423   1.4142436  14.0158253
 116.5690012  19.4544997  12.9049988 115.8480012  19.8944997  12.4539988
 116.2030012  19.2034997  13.7539988 116.4209804  19.4807698  12.9579840
 119.0360012  19.0544997  11.9349988 118.1710012  19.1264997  12.3389988
 118.9810012  19.6014997  11.1509988 118.9102085  19.1382685  11.8843362
 123.7460012  18.9424997  11.1099988 123.2900012  19.4714997  10.4559988
 123.9090012  19.5454997  11.8359988 123.7055585  19.0964468  11.1185062
 126.0740012  17.8204997  12.0549988 125.1690012  17.9854997  11.7899988
 126.5030012  18.6734997  11.9899988 126.0080799  17.9584483  12.0099182
 128.6780012  19.3904997  12.3499988 128.4960012  20.3064997  12.1399988
 128.8550012  18.9804997  11.5039988 128.6770210  19.4604822  12.2067885
 115.9830012  18.0774997   9.8149988 115.9650012  17.6524997  10.6729988
 116.7880012  17.7594997   9.4069988 116.0893875  17.9763812   9.8771655
 118.1250012  16.7874997   8.4699988 117.9060012  15.8714997   8.6399988
 118.9490012  16.9274997   8.9359988 118.2064420  16.6810520   8.5562774
 120.6620012  17.2574997   9.3189988 120.8750012  16.3694997   9.0319988
 120.7260012  17.2234997  10.2729988 120.6998232  17.1313102   9.4087397
 124.1700012   2.9214997   8.4629988 123.4960012   2.2924997   8.7189988
 124.7340012   2.4374997   7.8599988 124.1539230   2.7698744   8.4165340
 129.3130012   1.0294997   8.5759988 129.9170012   1.5764997   8.0739988
 128.4430012   1.3484997   8.3359988 129.2781241   1.1475806   8.4747654
 131.0400012   2.1674997   6.9089988 131.6520012   1.6534997   6.3829988
 131.4220012   3.0454997   6.9329988 131.1754540   2.2157140   6.8401830
 116.4970012   1.5554997   6.2849988 115.7200012   1.3214997   5.7779988
 117.0270012   0.7584997   6.2939988 116.4622330   1.4156988   6.2167742
 115.3330012   1.3534997   2.0889988 115.7720012   1.9644997   1.4969988
 114.7000012   1.8914997   2.5629988 115.3074514   1.5099257   2.0720930
 121.0760012   1.4824997   6.0989988 121.9510012   1.8704997   6.0689988
 120.9400012   1.2674997   7.0209988 121.1773695   1.5065184   6.2196440
 126.6330012   1.5124997   7.7479988 126.7090012   1.6074997   6.7979988
 126.3580012   0.6044997   7.8769988 126.6062321   1.4027867   7.6355079
 127.9860012   1.5384997   3.4399988 127.2840012   2.1534997   3.2309988
 127.5420012   0.7004997   3.5709988 127.8296330   1.5095783   3.4290328
 115.2340012  17.3014997   2.9869988 114.5490012  17.2634997   2.3189988
 115.2380012  18.2144997   3.2749988 115.1408193  17.4197016   2.9345284
 117.1940012   3.2694997   0.5309988 117.6860012   2.6394997   0.0039988
 117.8180012   3.5654997   1.1949988 117.3455446   3.2233199   0.5485980
 122.2200012   3.5624997   2.9879988 122.3980012   2.9164997   3.6709988
 122.1670012   4.3964997   3.4559988 122.2371829   3.5867985   3.1445940
 124.0990012  18.5114997   1.3839988 124.9650012  18.8774997   1.2059988
 123.8520012  18.0714997   0.5699988 124.1842392  18.5021756   1.2496289
 130.8080012  18.0744997   4.0629988 130.6130012  17.3264997   3.4979988
 130.7690012  18.8324997   3.4799988 130.7760380  18.0746099   3.9068384
 116.4550012   2.0694997  15.8029988 116.0890012   1.3044997  16.2459988
 117.3680012   2.0984997  16.0899988 116.5282790   1.9687224  15.9024070
 118.4280012   1.4204997  17.3389988 119.3260012   1.1464997  17.1539988
 118.0410012   0.6774997  17.8029988 118.4986612   1.2825914  17.3763643
 117.0520012  18.2214997   0.0119988 116.7850012  18.5084997   0.8849988
 117.8240012  17.6754997   0.1639988 117.1197488  18.1870294   0.1521050
 126.8490012   0.7524997  17.5209988 126.9260012   0.3264997  18.3749988
 127.7430012   0.7664997  17.1779988 126.9803428   0.6960879  17.5915310
 130.0250012  16.8254997  16.2129988 129.2430012  16.6394997  15.6939988
 129.9530012  17.7544997  16.4309988 129.9081777  16.9256492  16.1714048
 144.4310012  10.7114997   6.2439988 144.5200012  11.6554997   6.1119988
 143.7930012  10.4364997   5.5859988 144.3569081  10.8034830   6.1369614
 143.3640012   9.9664997   9.6629988 143.3260012   9.3204997  10.3679988
 143.0420012   9.5004997   8.8919988 143.3152333   9.8149408   9.6552978
 135.7330012   9.5814997  11.2559988 135.7740012   8.9554997  11.9789988
 136.4360012  10.2054997  11.4379988 135.8336363   9.5801196  11.3796044
 136.6560012  14.0314997   9.7909988 136.2870012  13.2294997   9.4209988
 137.5970012  13.8624997   9.8369988 136.7327289  13.8990153   9.7466316
 133.2660012   7.6914997   5.1839988 132.8190012   8.5374997   5.1649988
 132.7050012   7.1114997   4.6679988 133.1289900   7.7289916   5.1116801
 133.9770012   9.8534997   7.3099988 134.1900012   9.0834997   7.8369988
 134.7150012   9.9424997   6.7059988 134.1058496   9.7601394   7.3005300
 144.1820012  18.0104997   8.1769988 144.8020012  17.3334997   7.9029988
 143.9740012  17.7924997   9.0849988 144.2386904  17.8883870   8.2623365
 141.7540012  12.3994997  10.0689988 142.0580012  11.7134997   9.4739988
 142.4750012  12.5174997  10.6869988 141.8930671  12.3216305  10.0711816
 144.8950012   6.7934997  10.3969988 145.0370012   5.8474997  10.4169988
 144.7880012   7.0004997   9.4679988 144.8999864   6.6919534  10.2742339
 138.0490012   4.8944997   7.6689988 138.0930012   5.7544997   7.2509988
 137.5920012   4.3424997   7.0349988 137.9932185   4.9375799   7.5260299
 134.6700012   7.2914997   8.4309988 135.3230012   6.7414997   8.8629988
 134.6940012   7.0174997   7.5139988 134.7626683   7.1791466   8.3662123
 139.8260012   8.8414997   7.6459988 140.4420012   8.3154997   8.1559988
 139.2400012   8.2014997   7.2429988 139.8310810   8.6829208   7.6613173
 136.8600012   3.8124997  11.7429988 136.6410012   4.3424997  10.9769988
 136.1920012   4.0394997  12.3899988 136.7397600   3.9156906  11.7256379
 144.2290012  13.3124997   5.2869988 143.9330012  12.9904997   4.4359988
 143.9040012  14.2124997   5.3279988 144.1446371  13.3900215   5.1761801
 139.4290012  11.4884997  12.0299988 138.6890012  12.0864997  12.1339988
 140.1430012  12.0424997  11.7149988 139.4242237  11.6452831  12.0016465
 136.4530012   5.7044997   9.6949988 137.0670012   6.3374997  10.0689988
 136.9650012   5.2324997   9.0389988 136.6062296   5.7272370   9.6574252
 137.8360012  13.4524997  12.8179988 137.8310012  14.3324997  12.4399988
 136.9830012  13.3694997  13.2429988 137.7199464  13.5616117  12.8237907
 133.9570012  13.1234997   3.5999988 133.6850012  13.3524997   2.7109988
 134.0030012  13.9614997   4.0599988 133.9260094  13.2681213   3.5405697
 140.8860012   1.1184997   9.1959988 140.7690012   0.1694997   9.1409988
 140.0310012   1.4504997   9.4689988 140.7543733   1.0335409   9.2253897
 143.1530012   9.9554997   3.6959988 142.4410012  10.4904997   3.3439988
 143.8440012  10.0114997   3.0359988 143.1490132  10.0362543   3.5586289
 143.2060012   8.4134997   0.7349988 143.9070012   8.4354997   1.3859988
 143.5090012   7.7854997   0.0789988 143.3427830   8.3316566   0.7353711
 138.2040012  10.7954997   6.5299988 137.8730012  10.4254997   5.7119988
 138.7920012  10.1254997   6.8769988 138.2381873  10.6541156   6.4648102
 139.5700012  14.2234997   9.2119988 139.4760012  13.6454997   8.4549988
 140.3000012  13.8524997   9.7079988 139.6557981  14.0942390   9.1754165
 138.5700012   9.5644997  10.1639988 139.1360012   9.6854997   9.4009988
 138.8890012  10.2014997  10.8029988 138.6905786   9.6671884  10.1460040
 144.8790012  15.0674997  10.8979988 144.6390012  15.7294997  11.5459988
 144.6810012  14.2334997  11.3229988 144.8193808  15.0453134  11.0441524
 139.4500012  13.9634997  14.8809988 139.1390012  14.7454997  15.3359988
 138.8000012  13.8104997  14.1949988 139.3195558  14.0499105  14.8505871
 136.3700012  10.1614997  14.1099988 136.4410012  10.8124997  14.8079988
 135.4800012  10.2644997  13.7749988 136.2593117  10.2645936  14.1602700
 143.1560012  16.0644997   5.7679988 143.6300012  16.3594997   6.5459988
 142.5930012  16.8024997   5.5349988 143.1447653  16.2046932   5.8430136
 137.6900012  16.0354997  15.6439988 137.6970012  15.8994997  14.6969988
 136.7740012  15.9174997  15.8959988 137.5671714  16.0009430  15.5484666
 137.1940012   9.8654997   4.1199988 136.9020012  10.6334997   3.6289988
 136.5200012   9.2054997   3.9569988 137.0629081   9.8814406   4.0307340
 133.2870012  12.2284997  12.9349988 132.7860012  12.2004997  12.1199988
 133.2920012  11.3224997  13.2439988 133.2191526  12.1022278  12.8652872
 133.0370012  15.0084997   9.8189988 133.9830012  14.8644997   9.7999988
 132.9250012  15.7924997  10.3559988 133.1512727  15.0948046   9.8890072
 142.2140012  15.2484997  14.3769988 142.3010012  16.0744997  14.8519988
 141.3500012  14.9184997  14.6259988 142.1091964  15.3169878  14.4756549
 142.6280012  19.0204997   4.1829988 142.5530012  18.8994997   3.2369988
 142.6610012  19.9704997   4.3019988 142.6221848  19.1322500   4.0694834
 136.2810012  17.8094997   5.9639988 136.4340012  17.4614997   6.8429988
 135.4310012  17.4534997   5.7089988 136.1868962  17.7136650   6.0498340
 135.5360012  13.5514997  13.9779988 135.7520012  13.1904997  14.8369988
 134.6810012  13.1774997  13.7679988 135.4499292  13.4514111  14.0673386
 138.1550012   2.0214997   9.9729988 137.2930012   1.9344997   9.5659988
 138.1320012   2.8774997  10.4009988 138.0340330   2.1252765   9.9751863
 142.8180012   1.7434997  13.3479988 143.2380012   1.3284997  14.1009988
 141.8850012   1.5654997  13.4649988 142.7493644   1.6625900  13.4669539
 142.4790012   4.2364997   0.6329988 142.2260012   4.2554997   1.5559988
 142.2230012   3.3644997   0.3319988 142.4097790   4.1212437   0.7186263
 138.2460012   6.9874997  11.0679988 137.6040012   6.9464997  11.7769988
 138.2830012   7.9134997  10.8309988 138.1631324   7.1071559  11.1329824
 138.2430012   7.2084997   5.9799988 137.3500012   6.8674997   5.9219988
 138.6930012   6.8314997   5.2249988 138.1817305   7.1108484   5.8699177
 143.7780012   7.6244997   4.7969988 143.3690012   8.4394997   4.5059988
 144.4990012   7.4844997   4.1829988 143.8194537   7.7172018   4.6741342
 142.8800012   7.7994997  16.2849988 142.3180012   7.0954997  16.6059988
 143.7070012   7.6794997  16.7529988 142.9147095   7.6867883  16.3922330
 144.7830012   7.0704997   7.6109988 144.5880012   7.6754997   6.8959988
 144.9640012   6.2364997   7.1769988 144.7807614   7.0406300   7.4544405
 135.9960012   7.3074997  12.9349988 135.9580012   7.7074997  13.8039988
 135.5050012   6.4904997  13.0259988 135.9244684   7.2518069  13.0661059
 139.3620012   4.6814997  -0.2660012 138.9310012   4.2364997   0.4639988
 138.6440012   5.0534997  -0.7780012 139.2059438   4.6708940  -0.2353201
 132.6040012   4.4234997   6.7859988 133.2350012   4.3944997   7.5049988
 133.0530012   3.9984997   6.0559988 132.7510774   4.3620492   6.7856553
 133.8780012   5.1694997   2.2099988 134.3520012   5.7604997   1.6249988
 133.1610012   5.7004997   2.5569988 133.8459341   5.3220867   2.1768836
 144.0470012   8.7084997  12.2829988 144.3700012   8.0774997  11.6399988
 143.6070012   8.1734997  12.9429988 144.0316895   8.5498441  12.2842850
 140.8240012   4.6354997   7.0669988 139.9130012   4.6924997   7.3549988
 141.3300012   4.5754997   7.8769988 140.7675413   4.6351985   7.2160622
 135.6530012   6.2644997   5.8929988 134.7630012   6.3644997   5.5529988
 135.9490012   5.4224997   5.5469988 135.5712823   6.1643545   5.7997213
 139.3060012   6.2644997   3.5499988 140.2370012   6.3934997   3.7279988
 139.0910012   6.9344997   2.8999988 139.4044247   6.3726565   3.4865747
 137.9800012   7.4594997   1.1169988 137.4370012   7.0794997   0.4249988
 138.8130012   7.6534997   0.6879988 138.0184399   7.4338124   0.9644526
 136.1150012  12.0164997  16.2159988 136.8470012  12.2704997  16.7769988
 135.3350012  12.2204997  16.7309988 136.1098232  12.0789177  16.3625760
 142.1440012   7.4234997   8.9539988 142.7090012   6.8764997   8.4069988
 141.9970012   6.9014997   9.7419988 142.2012918   7.2782024   8.9858454
 137.1460012   3.5594997   5.3719988 136.8290012   2.6574997   5.3369988
 137.9280012   3.5614997   4.8189988 137.2082284   3.4361628   5.2924783
 140.7710012   5.8114997  11.3679988 139.9350012   6.2654997  11.4779988
 141.2950012   6.0874997  12.1199988 140.7274414   5.9109376  11.4847136
 141.3150012  12.0244997   3.0519988 140.5700012  11.5174997   2.7299988
 141.1810012  12.0734997   3.9989988 141.1948776  11.9616940   3.1358647
 142.8340012  12.2084997  14.2889988 142.4890012  11.8274997  15.0959988
 142.6340012  13.1424997  14.3609988 142.7598061  12.2825228  14.4090961
 136.4400012  11.3194997   8.8219988 137.1850012  11.3174997   8.2209988
 136.5180012  10.4964997   9.3039988 136.5525518  11.2079315   8.8048929
 143.4410012  13.4834997   2.0779988 143.1450012  14.3094997   2.4589988
 142.7380012  12.8634997   2.2739988 143.3054914  13.5128199   2.1566443
 133.4480012   9.7804997  14.1369988 133.6710012   9.3624997  14.9689988
 132.8460012   9.1674997  13.7139988 133.3971759   9.6404668  14.1937022
 140.4640012   9.2974997  16.3499988 140.1680012   9.1314997  15.4549988
 141.3960012   9.0774997  16.3389988 140.5494166   9.2450640  16.2260536
 138.8150012  14.8374997   6.2259988 139.3420012  15.6104997   6.0259988
 137.9350012  15.0624997   5.9249988 138.7681773  14.9738005   6.1579010
 134.5700012   9.6994997   0.8129988 135.1860012  10.3264997   1.1929988
 133.7080012  10.0154997   1.0849988 134.5377698   9.8279430   0.9017183
 140.2420012  12.5004997   5.8029988 140.0010012  13.4254997   5.8439988
 139.5010012  12.0414997   6.1989988 140.1088409  12.5651421   5.8621377
 140.7570012  16.6494997  12.1179988 141.1190012  17.5044997  11.8839988
 141.2880012  16.3574997  12.8579988 140.8784473  16.7271060  12.1860855
 138.9250012  17.5224997   5.3479988 137.9750012  17.6274997   5.3989988
 139.2770012  18.3424997   5.6929988 138.8424203  17.6478314   5.4016650
 144.3010012  12.7484997  11.8179988 143.8750012  12.5214997  12.6449988
 144.8810012  12.0104997  11.6359988 144.3211868  12.6175299  11.9065830
 135.0820012   4.5334997  13.6949988 134.1890012   4.8724997  13.6269988
 134.9830012   3.6784997  14.1129988 134.9464164   4.4642588  13.7422235
 134.7330012  16.3384997  12.1299988 134.9500012  15.4064997  12.0989988
 134.9790012  16.6124997  13.0129988 134.7959549  16.2480636  12.2451763
 140.5950012  14.7894997  -0.6610012 140.8340012  14.0414997  -1.2080012
 140.3260012  14.4014997   0.1719988 140.5913675  14.6346638  -0.6233135
 139.5320012  14.3594997   1.7959988 139.6780012  13.8394997   2.5859988
 139.5290012  15.2664997   2.1019988 139.5515989  14.4108853   1.9456088
 135.9850012  11.6124997   2.3059988 135.2990012  11.9644997   2.8729988
 136.5070012  12.3754997   2.0589988 135.9616852  11.7638578   2.3502118
 143.8160012   4.2744997  12.5849988 144.5150012   4.3484997  13.2349988
 143.4350012   3.4104997  12.7389988 143.8601767   4.1677624  12.6948322
 144.6010012   3.9264997   3.6819988 144.8210012   4.3984997   2.8789988
 145.1590012   4.3214997   4.3519988 144.7064968   4.0444285   3.6627331
 142.2690012  16.0574997   2.5449988 141.4530012  16.5544997   2.5969988
 142.7990012  16.5324997   1.9049988 142.2289161  16.1897722   2.4655956
 141.8010012   5.6544997   4.5169988 142.6130012   6.1594997   4.5629988
 141.5560012   5.5094997   5.4309988 141.8790520   5.7040375   4.6468517
 142.3360012   6.6404997  13.7019988 142.4550012   7.2144997  14.4589988
 142.9920012   5.9524997  13.8159988 142.4409757   6.6261079  13.8210825
 142.6840012   2.7354997   5.4549988 142.3380012   3.3534997   6.0999988
 143.3430012   3.2364997   4.9739988 142.7257826   2.8875802   5.4780971
 139.6080012  17.1014997   2.5269988 139.7680012  17.9004997   2.0259988
 139.4100012  17.4074997   3.4119988 139.6031649  17.2524469   2.5779815
 138.3420012   3.7984997   2.1419988 138.2590012   4.6874997   2.4889988
 139.2320012   3.5334997   2.3739988 138.4509469   3.8841430   2.2207626
 136.6010012  14.2264997   1.2029988 137.1930012  14.9254997   1.4789988
 137.0600012  13.7934997   0.4829988 136.7441142  14.2637049   1.1434830
 134.9170012   6.8904997   0.3189988 134.8720012   7.8294997   0.4969988
 134.0290012   6.6544997   0.0489988 134.7908574   6.9871892   0.3068912
 135.7250012   1.6724997   8.9919988 135.4960012   1.7314997   8.0639988
 135.2820012   0.8804997   9.2979988 135.6338530   1.5735753   8.9064786
 134.6550012  15.6124997   5.1519988 133.8230012  16.0854997   5.1799988
 135.2010012  16.1224997   4.5539988 134.6149739  15.7461871   5.0749716
 133.9430012  18.2254997  16.4819988 134.4840012  18.0084997  17.2419988
 133.4620012  17.4194997  16.2929988 133.9519345  18.0869514  16.5603076
 138.5410012  17.1444997  18.1029988 139.3080012  16.6854997  18.4439988
 138.5190012  16.9184997  17.1729988 138.6431434  17.0510409  18.0240043
 142.6330012  16.6524997  -0.5220012 141.9890012  16.0214997  -0.2010012
 143.3950012  16.1214997  -0.7540012 142.6478077  16.4942920  -0.5093989
 133.8500012  12.0354997  17.4369988 133.9940012  11.1334997  17.1499988
 133.0780012  12.3214997  16.9489988 133.7653322  11.9508261  17.3317881
 138.1920012  12.3794997  -0.4310012 138.2560012  11.5854997   0.0999988
 138.8450012  12.2604997  -1.1210012 138.2890241  12.2547148  -0.4515683
 140.5060012  12.0054997  16.8689988 140.1770012  12.2764997  16.0119988
 140.6580012  11.0644997  16.7819988 140.4814809  11.9153862  16.7398244
 143.5440012  13.4264997  -0.6950012 143.2750012  13.6064997   0.2059988
 143.3380012  12.5004997  -0.8260012 143.4793825  13.3260152  -0.5894786
 134.6830012   9.2354997  16.8569988 135.0910012   8.3784997  16.7359988
 134.4230012   9.2504997  17.7779988 134.7037568   9.1200807  16.9649588
 139.3410012  10.3514997   1.8749988 138.8810012   9.8674997   2.5609988
 139.5960012   9.6834997   1.2389988 139.3124902  10.1948731   1.8829334
 138.6300012   8.2444997  14.2309988 138.0120012   8.9194997  14.5109988
 138.9740012   8.5654997  13.3979988 138.5919615   8.3802721  14.1566581
 140.4120012   8.5944997   0.1369988 140.2320012   8.4404997  -0.7900012
 141.3620012   8.7024997   0.1819988 140.5157776   8.5880175   0.0161843
 143.6500012  10.7164997  17.5079988 144.6030012  10.7994997  17.4809988
 143.4890012  10.0044997  18.1279988 143.7586426  10.6316746  17.5880579
 138.9690012   5.5994997  15.3129988 139.1190012   4.8704997  14.7109988
 138.9720012   6.3764997  14.7539988 138.9899302   5.6047851  15.1550692
 139.3820012   3.9694997  12.8059988 139.9180012   4.4204997  12.1539988
 138.5300012   3.8614997  12.3829988 139.3402178   4.0166390  12.6595756
 140.9640012   9.4084997  13.0449988 141.7140012   9.2524997  12.4719988
 140.6250012  10.2604997  12.7699988 141.0208921   9.5022968  12.9293561
 137.4480012   6.7974997  17.2249988 136.6810012   6.2654997  17.0149988
 138.1270012   6.4874997  16.6249988 137.4347022   6.6827506  17.1151648
 140.1880012   1.4254997  13.2369988 140.0890012   2.3724997  13.1319988
 139.4450012   1.0534997  12.7619988 140.0740564   1.5045902  13.1584560
 141.4520012   5.7474997  16.8009988 141.2160012   5.5274997  17.7029988
 140.6680012   5.5404997  16.2909988 141.3138628   5.6894760  16.8553932
 144.1670012   4.8744997  15.8769988 143.2200012   4.9064997  16.0089988
 144.4800012   4.2494997  16.5299988 144.0795475   4.7943207  15.9834455
 135.6280012   4.7184997  16.9289988 135.8400012   4.0114997  16.3189988
 135.5170012   4.2804997  17.7729988 135.6419721   4.5627084  16.9596843
 140.4090012   0.7194997  15.9089988 141.1210012   0.0794997  15.8949988
 140.3080012   0.9864997  14.9949988 140.4927939   0.6679938  15.7835650
 140.7630012   2.4024997  17.9619988 140.6310012   1.9264997  17.1419988
 140.1640012   3.1464997  17.9069988 140.6639071   2.4379618  17.8422886
 140.3090012  19.2854997   1.1389988 141.2420012  19.4434997   1.2819988
 140.0450012  19.9604997   0.5139988 140.4009510  19.3983611   1.0740741
 133.8780012  13.9214997   0.6209988 134.7920012  14.0004997   0.8949988
 133.8850012  13.2344997  -0.0450012 134.0041131  13.8393961   0.5684393
 132.5270012  19.3144997   5.6989988 131.8800012  18.8524997   5.1659988
 132.8810012  18.6424997   6.2809988 132.4863849  19.1604723   5.7047959
 133.3970012  17.3954997   7.5029988 133.0620012  16.5154997   7.6749988
 133.6190012  17.7404997   8.3679988 133.3811783  17.3217500   7.6434208
 133.4770012  10.4704997   9.9549988 133.6610012  10.3884997   9.0189988
 134.3260012  10.3464997  10.3789988 133.6170139  10.4425003   9.8841455
 133.0740012   5.7414997  16.0959988 133.9940012   5.6194997  16.3319988
 132.6250012   4.9914997  16.4849988 133.1391580   5.6233727  16.1809006
 134.2950012   4.0534997   8.9869988 134.7410012   3.2614997   9.2889988
 134.7620012   4.7694997   9.4179988 134.4190172   4.0420624   9.0864820
 132.5990012   7.0524997  10.0559988 133.0910012   6.8314997   9.2649988
 132.9620012   7.8934997  10.3369988 132.7153126   7.1358357   9.9857531
 132.9130012   3.3104997   4.1099988 131.9880012   3.5194997   3.9809988
 133.3670012   3.7944997   3.4209988 132.8477368   3.4045993   3.9991226
 132.8770012   2.0484997  12.4549988 132.2120012   1.8024997  13.0979988
 132.4340012   2.6704997  11.8769988 132.7260956   2.0988632  12.4649352
 135.0690012  15.2234997  16.5989988 134.2480012  15.3984997  16.1389988
 134.8160012  15.1504997  17.5199988 134.9226164  15.2375622  16.6604923
 138.0230012  16.1984997  12.8579988 137.5980012  17.0074997  12.5749988
 138.9270012  16.2834997  12.5559988 138.0870271  16.3208469  12.7783776
 142.3340012  17.5974997  15.8169988 142.5190012  17.2634997  16.6949988
 143.1800012  17.9064997  15.4949988 142.4737539  17.5936047  15.8935605
 144.6790012  18.8834997  15.0609988 145.3560012  18.2504997  14.8209988
 145.0010012  19.2844997  15.8679988 144.8151637  18.8511154  15.1372793
 135.4250012  19.4544997  12.9049988 134.7040012  19.8944997  12.4539988
 135.0590012  19.2034997  13.7539988 135.2769804  19.4807698  12.9579840
 137.8920012  19.0544997  11.9349988 137.0270012  19.1264997  12.3389988
 137.8370012  19.6014997  11.1509988 137.7662085  19.1382685  11.8843362
 142.6020012  18.9424997  11.1099988 142.1460012  19.4714997  10.4559988
 142.7650012  19.5454997  11.8359988 142.5615585  19.0964468  11.1185062
 134.8390012  18.0774997   9.8149988 134.8210012  17.6524997  10.6729988
 135.6440012  17.7594997   9.4069988 134.9453875  17.9763812   9.8771655
 136.9810012  16.7874997   8.4699988 136.7620012  15.8714997   8.6399988
 137.8050012  16.9274997   8.9359988 137.0624420  16.6810520   8.5562774
 139.5180012  17.2574997   9.3189988 139.7310012  16.3694997   9.0319988
 139.5820012  17.2234997  10.2729988 139.5558232  17.1313102   9.4087397
 143.0260012   2.9214997   8.4629988 142.3520012   2.2924997   8.7189988
 143.5900012   2.4374997   7.8599988 143.0099230   2.7698744   8.4165340
 135.3530012   1.5554997   6.2849988 134.5760012   1.3214997   5.7779988
 135.8830012   0.7584997   6.2939988 135.3182330   1.4156988   6.2167742
 134.1890012   1.3534997   2.0889988 134.6280012   1.9644997   1.4969988
 133.5560012   1.8914997   2.5629988 134.1634514   1.5099257   2.0720930
 139.9320012   1.4824997   6.0989988 140.8070012   1.8704997   6.0689988
 139.7960012   1.2674997   7.0209988 140.0333695   1.5065184   6.2196440
 134.0900012  17.3014997   2.9869988 133.4050012  17.2634997   2.3189988
 134.0940012  18.2144997   3.2749988 133.9968193  17.4197016   2.9345284
 136.0500012   3.2694997   0.5309988 136.5420012   2.6394997   0.0039988
 136.6740012   3.5654997   1.1949988 136.2015446   3.2233199   0.5485980
 141.0760012   3.5624997   2.9879988 141.2540012   2.9164997   3.6709988
 141.0230012   4.3964997   3.4559988 141.0931829   3.5867985   3.1445940
 142.9550012  18.5114997   1.3839988 143.8210012  18.8774997   1.2059988
 142.7080012  18.0714997   0.5699988 143.0402392  18.5021756   1.2496289
 135.3110012   2.0694997  15.8029988 134.9450012   1.3044997  16.2459988
 136.2240012   2.0984997  16.0899988 135.3842790   1.9687224  15.9024070
 137.2840012   1.4204997  17.3389988 138.1820012   1.1464997  17.1539988
 136.8970012   0.6774997  17.8029988 137.3546612   1.2825914  17.3763643
 135.9080012  18.2214997   0.0119988 135.6410012  18.5084997   0.8849988
 136.6800012  17.6754997   0.1639988 135.9757488  18.1870294   0.1521050
  12.4390012  29.5674997   6.2439988  12.5280012  30.5114997   6.1119988
  11.8010012  29.2924997   5.5859988  12.3649081  29.6594830   6.1369614
  11.3720012  28.8224997   9.6629988  11.3340012  28.1764997  10.3679988
  11.0500012  28.3564997   8.8919988  11.3232333  28.6709408   9.6552978
   3.7410012  28.4374997  11.2559988   3.7820012  27.8114997  11.9789988
   4.4440012  29.0614997  11.4379988   3.8416363  28.4361196  11.3796044
  15.0780012  31.7614997   7.9639988  14.6380012  31.0414997   8.4149988
  15.0650012  32.4824997   8.5939988  15.0160226  31.7603731   8.1108494
   4.6640012  32.8874997   9.7909988   4.2950012  32.0854997   9.4209988
   5.6050012  32.7184997   9.8369988   4.7407289  32.7550153   9.7466316
   1.2740012  26.5474997   5.1839988   0.8270012  27.3934997   5.1649988
   0.7130012  25.9674997   4.6679988   1.1369900  26.5849916   5.1116801
   1.9850012  28.7094997   7.3099988   2.1980012  27.9394997   7.8369988
   2.7230012  28.7984997   6.7059988   2.1138496  28.6161394   7.3005300
  12.1900012  36.8664997   8.1769988  12.8100012  36.1894997   7.9029988
  11.9820012  36.6484997   9.0849988  12.2466904  36.7443870   8.2623365
   9.7620012  31.2554997  10.0689988  10.0660012  30.5694997   9.4739988
  10.4830012  31.3734997  10.6869988   9.9010671  31.1776305  10.0711816
  18.4250012  22.8564997  10.9299988  18.4740012  23.4664997  11.6659988
  18.8500012  23.3174997  10.2069988  18.4891824  23.0023741  10.9330205
  12.9030012  25.6494997  10.3969988  13.0450012  24.7034997  10.4169988
  12.7960012  25.8564997   9.4679988  12.9079864  25.5479534  10.2742339
   6.0570012  23.7504997   7.6689988   6.1010012  24.6104997   7.2509988
   5.6000012  23.1984997   7.0349988   6.0012185  23.7935799   7.5260299
  13.7800012  23.8814997   6.0699988  14.4260012  23.5524997   6.6949988
  14.2900012  24.3994997   5.4469988  13.9374264  23.9064611   6.0713862
   2.6780012  26.1474997   8.4309988   3.3310012  25.5974997   8.8629988
   2.7020012  25.8734997   7.5139988   2.7706683  26.0351466   8.3662123
   7.8340012  27.6974997   7.6459988   8.4500012  27.1714997   8.1559988
   7.2480012  27.0574997   7.2429988   7.8390810  27.5389208   7.6613173
  18.8160012  24.3344997  13.1659988  18.1280012  24.9924997  13.0699988
  18.8320012  24.1374997  14.1019988  18.7238525  24.3980462  13.2794808
   4.8680012  22.6684997  11.7429988   4.6490012  23.1984997  10.9769988
   4.2000012  22.8954997  12.3899988   4.7477600  22.7716906  11.7256379
  12.2370012  32.1684997   5.2869988  11.9410012  31.8464997   4.4359988
  11.9120012  33.0684997   5.3279988  12.1526371  32.2460215   5.1761801
   7.4370012  30.3444997  12.0299988   6.6970012  30.9424997  12.1339988
   8.1510012  30.8984997  11.7149988   7.4322237  30.5012831  12.0016465
  15.5440012  23.1724997   8.0499988  15.3280012  22.4064997   8.5829988
  16.1990012  23.6444997   8.5629988  15.6030632  23.1315889   8.1922861
   4.4610012  24.5604997   9.6949988   5.0750012  25.1934997  10.0689988
   4.9730012  24.0884997   9.0389988   4.6142296  24.5832370   9.6574252
   5.8440012  32.3084997  12.8179988   5.8390012  33.1884997  12.4399988
   4.9910012  32.2254997  13.2429988   5.7279464  32.4176117  12.8237907
   1.9650012  31.9794997   3.5999988   1.6930012  32.2084997   2.7109988
   2.0110012  32.8174997   4.0599988   1.9340094  32.1241213   3.5405697
  15.5900012  33.6014997  10.3119988  14.6490012  33.6594997  10.4739988
  15.8670012  34.5074997  10.1749988  15.4984679  33.7319443  10.3156815
  15.8910012  21.8874997  11.7299988  15.1550012  22.4984997  11.6919988
  16.5740012  22.3024997  11.2029988  15.8826541  22.0271374  11.6535832
   8.8940012  19.9744997   9.1959988   8.7770012  19.0254997   9.1409988
   8.0390012  20.3064997   9.4689988   8.7623733  19.8895409   9.2253897
  13.8420012  35.3824997   6.9379988  14.2680012  34.6754997   6.4529988
  14.1590012  36.1834997   6.5209988  13.9431019  35.3940994   6.8153130
  15.0020012  33.2834997   5.4459988  14.7440012  32.5934997   4.8349988
  15.0730012  32.8404997   6.2919988  14.9762856  33.1292124   5.4766885
  16.6880012  31.8494997  13.9239988  16.8280012  31.2584997  13.1839988
  16.8550012  32.7224997  13.5669988  16.7296778  31.8866426  13.7746965
  11.1610012  28.8114997   3.6959988  10.4490012  29.3464997   3.3439988
  11.8520012  28.8674997   3.0359988  11.1570132  28.8922543   3.5586289
  11.2140012  27.2694997   0.7349988  11.9150012  27.2914997   1.3859988
  11.5170012  26.6414997   0.0789988  11.3507830  27.1876566   0.7353711
  18.5300012  28.1894997  11.9899988  17.8770012  28.8844997  12.0789988
  18.9950012  28.3994997  11.1799988  18.5035390  28.3129425  11.8926883
  14.5660012  29.0214997   4.6479988  13.8340012  29.2494997   5.2209988
  15.0140012  28.3074997   5.1029988  14.5263095  28.9562571   4.7879119
  14.4640012  27.1954997  13.7149988  14.5440012  27.9584997  14.2869988
  13.8620012  27.4744997  13.0249988  14.3935756  27.3377134  13.7000589
   6.2120012  29.6514997   6.5299988   5.8810012  29.2814997   5.7119988
   6.8000012  28.9814997   6.8769988   6.2461873  29.5101156   6.4648102
   7.5780012  33.0794997   9.2119988   7.4840012  32.5014997   8.4549988
   8.3080012  32.7084997   9.7079988   7.6637981  32.9502390   9.1754165
   6.5780012  28.4204997  10.1639988   7.1440012  28.5414997   9.4009988
   6.8970012  29.0574997  10.8029988   6.6985786  28.5231884  10.1460040
  12.8870012  33.9234997  10.8979988  12.6470012  34.5854997  11.5459988
  12.6890012  33.0894997  11.3229988  12.8273808  33.9013134  11.0441524
   7.4580012  32.8194997  14.8809988   7.1470012  33.6014997  15.3359988
   6.8080012  32.6664997  14.1949988   7.3275558  32.9059105  14.8505871
  13.4370012  28.1834997   2.3329988  14.0170012  28.3334997   3.0799988
  13.8510012  28.6544997   1.6099988  13.5722830  28.2676841   2.3374134
   4.3780012  29.0174997  14.1099988   4.4490012  29.6684997  14.8079988
   3.4880012  29.1204997  13.7749988   4.2673117  29.1205936  14.1602700
  11.1640012  34.9204997   5.7679988  11.6380012  35.2154997   6.5459988
  10.6010012  35.6584997   5.5349988  11.1527653  35.0606932   5.8430136
   5.6980012  34.8914997  15.6439988   5.7050012  34.7554997  14.6969988
   4.7820012  34.7734997  15.8959988   5.5751714  34.8569430  15.5484666
  17.1360012  19.9334997   2.1459988  16.2360012  20.0724997   2.4409988
  17.3880012  20.7644997   1.7439988  17.0468702  20.0649074   2.1320205
   5.2020012  28.7214997   4.1199988   4.9100012  29.4894997   3.6289988
   4.5280012  28.0614997   3.9569988   5.0709081  28.7374406   4.0307340
  18.3250012  34.2994997   0.5219988  18.3990012  35.2384997   0.6929988
  19.2310012  33.9944997   0.4659988  18.4575100  34.3866722   0.5378119
   1.2950012  31.0844997  12.9349988   0.7940012  31.0564997  12.1199988
   1.3000012  30.1784997  13.2439988   1.2271526  30.9582278  12.8652872
   1.0450012  33.8644997   9.8189988   1.9910012  33.7204997   9.7999988
   0.9330012  34.6484997  10.3559988   1.1592727  33.9508046   9.8890072
  19.2430012  34.5304997  15.5009988  19.1940012  33.5754997  15.4639988
  18.4160012  34.7984997  15.9019988  19.1244940  34.4358998  15.5501375
  10.2220012  34.1044997  14.3769988  10.3090012  34.9304997  14.8519988
   9.3580012  33.7744997  14.6259988  10.1171964  34.1729878  14.4756549
  10.6360012  37.8764997   4.1829988  10.5610012  37.7554997   3.2369988
  10.6690012  38.8264997   4.3019988  10.6301848  37.9882500   4.0694834
   4.2890012  36.6654997   5.9639988   4.4420012  36.3174997   6.8429988
   3.4390012  36.3094997   5.7089988   4.1948962  36.5696650   6.0498340
  13.7380012  37.0304997   1.1849988  14.1130012  36.2864997   0.7149988
  13.7420012  36.7604997   2.1039988  13.7898915  36.8921486   1.2447824
  13.4070012  36.9564997   3.9349988  12.4710012  37.0564997   4.1129988
  13.6870012  36.2474997   4.5129988  13.3168255  36.8742711   4.0375391
  16.3950012  26.0234997  15.9809988  15.9880012  26.5044997  15.2599988
  16.4360012  25.1184997  15.6729988  16.3448437  25.9669374  15.8406683
   3.5440012  32.4074997  13.9779988   3.7600012  32.0464997  14.8369988
   2.6890012  32.0334997  13.7679988   3.4579292  32.3074111  14.0673386
   6.1630012  20.8774997   9.9729988   5.3010012  20.7904997   9.5659988
   6.1400012  21.7334997  10.4009988   6.0420330  20.9812765   9.9751863
  10.8260012  20.5994997  13.3479988  11.2460012  20.1844997  14.1009988
   9.8930012  20.4214997  13.4649988  10.7573644  20.5185900  13.4669539
  14.1520012  24.3554997  14.2009988  13.6380012  24.2294997  14.9989988
  13.9970012  25.2674997  13.9569988  14.0606852  24.4616132  14.2772158
  14.9150012  29.2164997  -0.0370012  14.9570012  28.9934997  -0.9670012
  15.7640012  29.6154997   0.1529988  15.0355396  29.2399155  -0.1386373
  10.4870012  23.0924997   0.6329988  10.2340012  23.1114997   1.5559988
  10.2310012  22.2204997   0.3319988  10.4177790  22.9772437   0.7186263
   6.2540012  25.8434997  11.0679988   5.6120012  25.8024997  11.7769988
   6.2910012  26.7694997  10.8309988   6.1711324  25.9631559  11.1329824
   6.2510012  26.0644997   5.9799988   5.3580012  25.7234997   5.9219988
   6.7010012  25.6874997   5.2249988   6.1897305  25.9668484   5.8699177
  11.7860012  26.4804997   4.7969988  11.3770012  27.2954997   4.5059988
  12.5070012  26.3404997   4.1829988  11.8274537  26.5732018   4.6741342
  10.8880012  26.6554997  16.2849988  10.3260012  25.9514997  16.6059988
  11.7150012  26.5354997  16.7529988  10.9227095  26.5427883  16.3922330
  12.7910012  25.9264997   7.6109988  12.5960012  26.5314997   6.8959988
  12.9720012  25.0924997   7.1769988  12.7887614  25.8966300   7.4544405
   4.0040012  26.1634997  12.9349988   3.9660012  26.5634997  13.8039988
   3.5130012  25.3464997  13.0259988   3.9324684  26.1078069  13.0661059
   7.3700012  23.5374997  -0.2660012   6.9390012  23.0924997   0.4639988
   6.6520012  23.9094997  -0.7780012   7.2139438  23.5268940  -0.2353201
   0.6120012  23.2794997   6.7859988   1.2430012  23.2504997   7.5049988
   1.0610012  22.8544997   6.0559988   0.7590774  23.2180492   6.7856553
   1.8860012  24.0254997   2.2099988   2.3600012  24.6164997   1.6249988
   1.1690012  24.5564997   2.5569988   1.8539341  24.1780867   2.1768836
  12.0550012  27.5644997  12.2829988  12.3780012  26.9334997  11.6399988
  11.6150012  27.0294997  12.9429988  12.0396895  27.4058441  12.2842850
   8.8320012  23.4914997   7.0669988   7.9210012  23.5484997   7.3549988
   9.3380012  23.4314997   7.8769988   8.7755413  23.4911985   7.2160622
   3.6610012  25.1204997   5.8929988   2.7710012  25.2204997   5.5529988
   3.9570012  24.2784997   5.5469988   3.5792823  25.0203545   5.7997213
   7.3140012  25.1204997   3.5499988   8.2450012  25.2494997   3.7279988
   7.0990012  25.7904997   2.8999988   7.4124247  25.2286565   3.4865747
  13.2370012  22.7264997  10.3309988  12.5610012  22.8574997  10.9949988
  12.7520012  22.5714997   9.5209988  13.0787145  22.7234905  10.3124517
   5.9880012  26.3154997   1.1169988   5.4450012  25.9354997   0.4249988
   6.8210012  26.5094997   0.6879988   6.0264399  26.2898124   0.9644526
  16.5250012  38.3984997  16.6079988  16.7250012  38.8224997  15.7729988
  17.1800012  38.7414997  17.2149988  16.6410051  38.5029648  16.5757836
   4.1230012  30.8724997  16.2159988   4.8550012  31.1264997  16.7769988
   3.3430012  31.0764997  16.7309988   4.1178232  30.9349177  16.3625760
  10.1520012  26.2794997   8.9539988  10.7170012  25.7324997   8.4069988
  10.0050012  25.7574997   9.7419988  10.2092918  26.1342024   8.9858454
   5.1540012  22.4154997   5.3719988   4.8370012  21.5134997   5.3369988
   5.9360012  22.4174997   4.8189988   5.2162284  22.2921628   5.2924783
   8.7790012  24.6674997  11.3679988   7.9430012  25.1214997  11.4779988
   9.3030012  24.9434997  12.1199988   8.7354414  24.7669376  11.4847136
   9.3230012  30.8804997   3.0519988   8.5780012  30.3734997   2.7299988
   9.1890012  30.9294997   3.9989988   9.2028776  30.8176940   3.1358647
  16.4730012  30.0134997  11.8389988  17.1150012  30.4704997  11.2949988
  15.6430012  30.1264997  11.3759988  16.4485963  30.0912704  11.7020177
  13.2210012  23.6944997   1.2519988  12.2820012  23.8064997   1.0999988
  13.5180012  24.5514997   1.5579988  13.1327666  23.8256443   1.2725768
  10.8420012  31.0644997  14.2889988  10.4970012  30.6834997  15.0959988
  10.6420012  31.9984997  14.3609988  10.7678061  31.1385228  14.4090961
  13.9390012  25.5614997   2.9119988  14.8310012  25.4244997   3.2309988
  13.9960012  26.3524997   2.3759988  14.0686285  25.6496660   2.8831691
   4.4480012  30.1754997   8.8219988   5.1930012  30.1734997   8.2209988
   4.5260012  29.3524997   9.3039988   4.5605518  30.0639315   8.8048929
  11.4490012  32.3394997   2.0779988  11.1530012  33.1654997   2.4589988
  10.7460012  31.7194997   2.2739988  11.3134914  32.3688199   2.1566443
   1.4560012  28.6364997  14.1369988   1.6790012  28.2184997  14.9689988
   0.8540012  28.0234997  13.7139988   1.4051759  28.4964668  14.1937022
   8.4720012  28.1534997  16.3499988   8.1760012  27.9874997  15.4549988
   9.4040012  27.9334997  16.3389988   8.5574166  28.1010640  16.2260536
  13.0930012  33.5264997  14.2399988  12.1920012  33.7094997  13.9719988
  13.1270012  33.7854997  15.1609988  12.9743041  33.5865512  14.3278197
  18.8240012  25.7714997   2.6069988  18.2700012  25.3754997   1.9349988
  18.9240012  26.6814997   2.3289988  18.7617059  25.8403586   2.4774401
  18.7870012  31.5714997  15.4439988  17.9360012  31.8094997  15.0769988
  19.3780012  31.5544997  14.6909988  18.7502487  31.6018258  15.2918893
  17.1190012  34.5574997   3.0719988  16.7460012  33.7314997   3.3809988
  17.3970012  34.3744997   2.1749988  17.1055630  34.4197303   2.9929626
  14.2800012  29.3654997  10.0929988  13.3510012  29.1334997  10.0659988
  14.7310012  28.5884997   9.7629988  14.2139216  29.2287238  10.0446917
   6.8230012  33.6934997   6.2259988   7.3500012  34.4664997   6.0259988
   5.9430012  33.9184997   5.9249988   6.7761773  33.8298005   6.1579010
   2.5780012  28.5554997   0.8129988   3.1940012  29.1824997   1.1929988
   1.7160012  28.8714997   1.0849988   2.5457698  28.6839430   0.9017183
   8.2500012  31.3564997   5.8029988   8.0090012  32.2814997   5.8439988
   7.5090012  30.8974997   6.1989988   8.1168409  31.4211421   5.8621377
   8.7650012  35.5054997  12.1179988   9.1270012  36.3604997  11.8839988
   9.2960012  35.2134997  12.8579988   8.8864473  35.5831060  12.1860855
   6.9330012  36.3784997   5.3479988   5.9830012  36.4834997   5.3989988
   7.2850012  37.1984997   5.6929988   6.8504203  36.5038314   5.4016650
  12.3090012  31.6044997  11.8179988  11.8830012  31.3774997  12.6449988
  12.8890012  30.8664997  11.6359988  12.3291868  31.4735299  11.9065830
  14.5120012  32.5334997   0.8919988  14.8650012  32.1534997   1.6969988
  13.5630012  32.4404997   0.9789988  14.4320441  32.4689596   1.0138559
  14.9670012  36.1564997  14.2879988  14.3660012  35.6014997  13.7919988
  15.2490012  36.8234997  13.6619988  14.9228519  36.1706841  14.1354952
  19.0150012  37.0134997   1.0929988  19.7590012  37.5994997   0.9529988
  18.3210012  37.5814997   1.4269988  19.0230292  37.1705582   1.1189961
   3.0900012  23.3894997  13.6949988   2.1970012  23.7284997  13.6269988
   2.9910012  22.5344997  14.1129988   2.9544164  23.3202588  13.7422235
  15.3780012  31.2064997   3.1189988  15.1000012  30.4784997   3.6749988
  16.3050012  31.3254997   3.3239988  15.4653124  31.1228802   3.2228845
   2.7410012  35.1944997  12.1299988   2.9580012  34.2624997  12.0989988
   2.9870012  35.4684997  13.0129988   2.8039549  35.1040636  12.2451763
   8.6030012  33.6454997  -0.6610012   8.8420012  32.8974997  -1.2080012
   8.3340012  33.2574997   0.1719988   8.5993675  33.4906638  -0.6233135
   7.5400012  33.2154997   1.7959988   7.6860012  32.6954997   2.5859988
   7.5370012  34.1224997   2.1019988   7.5595989  33.2668853   1.9456088
   3.9930012  30.4684997   2.3059988   3.3070012  30.8204997   2.8729988
   4.5150012  31.2314997   2.0589988   3.9696852  30.6198578   2.3502118
  11.8240012  23.1304997  12.5849988  12.5230012  23.2044997  13.2349988
  11.4430012  22.2664997  12.7389988  11.8681767  23.0237624  12.6948322
  12.6090012  22.7824997   3.6819988  12.8290012  23.2544997   2.8789988
  13.1670012  23.1774997   4.3519988  12.7144968  22.9004285   3.6627331
  10.2770012  34.9134997   2.5449988   9.4610012  35.4104997   2.5969988
  10.8070012  35.3884997   1.9049988  10.2369161  35.0457722   2.4655956
   9.8090012  24.5104997   4.5169988  10.6210012  25.0154997   4.5629988
   9.5640012  24.3654997   5.4309988   9.8870520  24.5600375   4.6468517
  10.3440012  25.4964997  13.7019988  10.4630012  26.0704997  14.4589988
  11.0000012  24.8084997  13.8159988  10.4489757  25.4821079  13.8210825
  10.6920012  21.5914997   5.4549988  10.3460012  22.2094997   6.0999988
  11.3510012  22.0924997   4.9739988  10.7337826  21.7435802   5.4780971
   7.6160012  35.9574997   2.5269988   7.7760012  36.7564997   2.0259988
   7.4180012  36.2634997   3.4119988   7.6111649  36.1084469   2.5779815
   6.3500012  22.6544997   2.1419988   6.2670012  23.5434997   2.4889988
   7.2400012  22.3894997   2.3739988   6.4589469  22.7401430   2.2207626
  16.5490012  23.4034997  14.5369988  15.6320012  23.6664997  14.4489988
  16.8840012  23.4004997  13.6399988  16.4689900  23.4390224  14.4037919
  15.1510012  27.1544997   8.6319988  14.3530012  26.7394997   8.3039988
  15.5960012  26.4634997   9.1229988  15.1019885  27.0043543   8.6534889
   4.6090012  33.0824997   1.2029988   5.2010012  33.7814997   1.4789988
   5.0680012  32.6494997   0.4829988   4.7521142  33.1197049   1.1434830
   2.9250012  25.7464997   0.3189988   2.8800012  26.6854997   0.4969988
   2.0370012  25.5104997   0.0489988   2.7988574  25.8431892   0.3068912
  16.2370012  36.4104997  10.2549988  16.0820012  37.0884997   9.5979988
  17.1700012  36.4824997  10.4579988  16.3418500  36.5130170  10.1925119
   3.7330012  20.5284997   8.9919988   3.5040012  20.5874997   8.0639988
   3.2900012  19.7364997   9.2979988   3.6418530  20.4295753   8.9064786
   2.6630012  34.4684997   5.1519988   1.8310012  34.9414997   5.1799988
   3.2090012  34.9784997   4.5539988   2.6229739  34.6021871   5.0749716
   1.9510012  37.0814997  16.4819988   2.4920012  36.8644997  17.2419988
   1.4700012  36.2754997  16.2929988   1.9599345  36.9429514  16.5603076
   6.5490012  36.0004997  18.1029988   7.3160012  35.5414997  18.4439988
   6.5270012  35.7744997  17.1729988   6.6511434  35.9070409  18.0240043
  10.6410012  35.5084997  -0.5220012   9.9970012  34.8774997  -0.2010012
  11.4030012  34.9774997  -0.7540012  10.6558077  35.3502920  -0.5093989
  13.1260012  34.3804997  16.8319988  12.7750012  33.5244997  17.0749988
  13.8520012  34.5234997  17.4389988  13.1760769  34.2825636  16.9473619
  15.2450012  35.3254997  -0.2880012  15.5280012  34.5314997   0.1639988
  15.9850012  35.5584997  -0.8490012  15.3837486  35.2482803  -0.3019302
   1.8580012  30.8914997  17.4369988   2.0020012  29.9894997  17.1499988
   1.0860012  31.1774997  16.9489988   1.7733322  30.8068261  17.3317881
   6.2000012  31.2354997  -0.4310012   6.2640012  30.4414997   0.0999988
   6.8530012  31.1164997  -1.1210012   6.2970241  31.1107148  -0.4515683
   8.5140012  30.8614997  16.8689988   8.1850012  31.1324997  16.0119988
   8.6660012  29.9204997  16.7819988   8.4894809  30.7713862  16.7398244
  11.5520012  32.2824997  -0.6950012  11.2830012  32.4624997   0.2059988
  11.3460012  31.3564997  -0.8260012  11.4873825  32.1820152  -0.5894786
  14.2480012  30.7774997  14.2529988  14.9940012  31.3654997  14.1329988
  13.4910012  31.3594997  14.3159988  14.2477554  30.9367011  14.2450907
   2.6910012  28.0914997  16.8569988   3.0990012  27.2344997  16.7359988
   2.4310012  28.1064997  17.7779988   2.7117568  27.9760807  16.9649588
   7.3490012  29.2074997   1.8749988   6.8890012  28.7234997   2.5609988
   7.6040012  28.5394997   1.2389988   7.3204902  29.0508731   1.8829334
   6.6380012  27.1004997  14.2309988   6.0200012  27.7754997  14.5109988
   6.9820012  27.4214997  13.3979988   6.5999615  27.2362721  14.1566581
   8.4200012  27.4504997   0.1369988   8.2400012  27.2964997  -0.7900012
   9.3700012  27.5584997   0.1819988   8.5237776  27.4440175   0.0161843
  11.6580012  29.5724997  17.5079988  12.6110012  29.6554997  17.4809988
  11.4970012  28.8604997  18.1279988  11.7666426  29.4876746  17.5880579
  17.8100012  29.8054997  -0.4170012  17.5360012  29.3804997  -1.2300012
  17.8490012  30.7364997  -0.6340012  17.7777699  29.8732484  -0.5576390
   6.9770012  24.4554997  15.3129988   7.1270012  23.7264997  14.7109988
   6.9800012  25.2324997  14.7539988   6.9979302  24.4607851  15.1550692
   7.3900012  22.8254997  12.8059988   7.9260012  23.2764997  12.1539988
   6.5380012  22.7174997  12.3829988   7.3482178  22.8726390  12.6595756
   8.9720012  28.2644997  13.0449988   9.7220012  28.1084997  12.4719988
   8.6330012  29.1164997  12.7699988   9.0288921  28.3582968  12.9293561
  13.3870012  26.0794997  18.0739988  13.5800012  25.1484997  17.9619988
  14.2450012  26.5044997  18.0639988  13.5293020  26.0096389  18.0573361
  14.7040012  28.8684997  16.1509988  14.4230012  29.5774997  15.5739988
  15.6470012  28.7954997  15.9999988  14.7929027  28.9557646  16.0515551
   5.4560012  25.6534997  17.2249988   4.6890012  25.1214997  17.0149988
   6.1350012  25.3434997  16.6249988   5.4427022  25.5387506  17.1151648
   8.1960012  20.2814997  13.2369988   8.0970012  21.2284997  13.1319988
   7.4530012  19.9094997  12.7619988   8.0820564  20.3605902  13.1584560
   9.4600012  24.6034997  16.8009988   9.2240012  24.3834997  17.7029988
   8.6760012  24.3964997  16.2909988   9.3218628  24.5454760  16.8553932
  12.1750012  23.7304997  15.8769988  11.2280012  23.7624997  16.0089988
  12.4880012  23.1054997  16.5299988  12.0875475  23.6503207  15.9834455
  13.8090012  22.3644997  17.8819988  13.7130012  21.4124997  17.8759988
  13.4880012  22.6334997  18.7419988  13.7524070  22.2704035  17.9975441
   3.6360012  23.5744997  16.9289988   3.8480012  22.8674997  16.3189988
   3.5250012  23.1364997  17.7729988   3.6499721  23.4187084  16.9596843
   8.4170012  19.5754997  15.9089988   9.1290012  18.9354997  15.8949988
   8.3160012  19.8424997  14.9949988   8.5007939  19.5239938  15.7835650
   8.7710012  21.2584997  17.9619988   8.6390012  20.7824997  17.1419988
   8.1720012  22.0024997  17.9069988   8.6719071  21.2939618  17.8422886
   8.3170012  38.1414997   1.1389988   9.2500012  38.2994997   1.2819988
   8.0530012  38.8164997   0.5139988   8.4089510  38.2543611   1.0740741
   1.8860012  32.7774997   0.6209988   2.8000012  32.8564997   0.8949988
   1.8930012  32.0904997  -0.0450012   2.0121131  32.6953961   0.5684393
   0.5350012  38.1704997   5.6989988  -0.1119988  37.7084997   5.1659988
   0.8890012  37.4984997   6.2809988   0.4943849  38.0164723   5.7047959
   1.4050012  36.2514997   7.5029988   1.0700012  35.3714997   7.6749988
   1.6270012  36.5964997   8.3679988   1.3891783  36.1777501   7.6434208
  18.9530012  37.0604997  10.4839988  18.9320012  37.2454997  11.4229988
  19.6440012  37.6294997  10.1429988  19.0434618  37.1626606  10.5663864
  18.5170012  36.6284997  13.4059988  18.0290012  35.8924997  13.0349988
  19.0660012  36.2344997  14.0839988  18.5244872  36.4746249  13.4469160
  16.9670012  32.4174997  18.0439988  16.1010012  32.3124997  18.4379988
  17.3440012  33.1764997  18.4899988  16.8993308  32.5056900  18.1582393
  18.2680012  30.6744997   3.5579988  19.1180012  31.0954997   3.6849988
  18.2740012  29.9344997   4.1649988  18.3851372  30.6320803   3.6574344
  18.6630012  28.7274997   5.3819988  17.9360012  28.2484997   5.7789988
  19.2440012  28.9334997   6.1139988  18.6419375  28.6897090   5.5354129
  18.4220012  31.5124997  10.3289988  19.2550012  31.1344997  10.0489988
  18.5340012  32.4554997  10.2099988  18.5512647  31.5882218  10.2745487
  16.9080012  34.3904997  12.6359988  16.2610012  34.7154997  13.2619988
  16.3910012  33.9504997  11.9619988  16.7494029  34.3755004  12.6305827
  18.9310012  28.6284997   1.7729988  18.4090012  28.9854997   1.0539988
  18.8980012  29.3034997   2.4509988  18.8551634  28.7685413   1.7663145
  17.2800012  25.8684997   0.3239988  17.3760012  26.5354997  -0.3570012
  17.1400012  25.0524997  -0.1580012  17.2742135  25.8494500   0.1658491
  16.4490012  27.2484997   5.9449988  16.2990012  26.3034997   5.9239988
  16.0960012  27.5294997   6.7879988  16.3806625  27.1570441   6.0562346
   1.4850012  29.3264997   9.9549988   1.6690012  29.2444997   9.0189988
   2.3340012  29.2024997  10.3789988   1.6250139  29.2985003   9.8841455
  17.3060012  29.2184997  15.5829988  17.8890012  28.4844997  15.7749988
  17.8700012  29.9904997  15.6299988  17.4619769  29.2224227  15.6156159
  18.8020012  27.1214997  16.2679988  17.9390012  26.7424997  16.1019988
  19.4070012  26.3824997  16.1939988  18.7655979  26.9698023  16.2352817
  16.5270012  23.2764997  -0.5590012  17.1380012  22.9054997   0.0779988
  15.6910012  22.8554997  -0.3630012  16.4975032  23.1687554  -0.4452965
  16.1600012  24.8314997   4.4069988  16.4400012  23.9244997   4.5309988
  16.9190012  25.2654997   4.0179988  16.3009277  24.7660942   4.3713682
  16.7720012  25.4124997   9.8429988  17.7050012  25.6244997   9.8089988
  16.5370012  25.5144997  10.7649988  16.8678036  25.4552769   9.9629976
  16.8010012  26.1494997  12.6189988  15.9580012  26.4174997  12.9849988
  17.2430012  26.9714997  12.4079988  16.7454158  26.2973291  12.6405491
   1.0820012  24.5974997  16.0959988   2.0020012  24.4754997  16.3319988
   0.6330012  23.8474997  16.4849988   1.1471580  24.4793727  16.1809006
  19.0840012  20.1294997  17.9719988  19.4340012  19.4754997  17.3669988
  19.2310012  20.9664997  17.5329988  19.1518419  20.1531591  17.8297118
  16.7730012  22.0944997   4.4549988  16.9560012  21.6454997   5.2809988
  16.1740012  21.5094997   3.9919988  16.7170202  21.9539975   4.5053275
   2.3030012  22.9094997   8.9869988   2.7490012  22.1174997   9.2889988
   2.7700012  23.6254997   9.4179988   2.4270172  22.8980624   9.0864820
   0.6070012  25.9084997  10.0559988   1.0990012  25.6874997   9.2649988
   0.9700012  26.7494997  10.3369988   0.7233126  25.9918357   9.9857531
  18.6040012  22.2384997  16.3219988  17.6860012  22.5094997  16.2859988
  18.7270012  21.7034997  15.5369988  18.4951066  22.2032892  16.2110487
  18.6400012  22.1614997   0.9829988  19.0520012  21.4404997   0.5079988
  19.3220012  22.8314997   1.0419988  18.7885885  22.1532368   0.9258915
   0.9210012  22.1664997   4.1099988  -0.0039988  22.3754997   3.9809988
   1.3750012  22.6504997   3.4209988   0.8557368  22.2605993   3.9991226
  15.6920012  37.1504997   6.0559988  16.3440012  36.8034997   5.4479988
  16.2020012  37.6394997   6.7019988  15.8502637  37.1690597   6.0600236
   0.8850012  20.9044997  12.4549988   0.2200012  20.6584997  13.0979988
   0.4420012  21.5264997  11.8769988   0.7340956  20.9548632  12.4649352
   3.0770012  34.0794997  16.5989988   2.2560012  34.2544997  16.1389988
   2.8240012  34.0064997  17.5199988   2.9306164  34.0935622  16.6604923
   6.0310012  35.0544997  12.8579988   5.6060012  35.8634997  12.5749988
   6.9350012  35.1394997  12.5559988   6.0950271  35.1768469  12.7783776
  10.3420012  36.4534997  15.8169988  10.5270012  36.1194997  16.6949988
  11.1880012  36.7624997  15.4949988  10.4817539  36.4496047  15.8935605
  12.6870012  37.7394997  15.0609988  13.3640012  37.1064997  14.8209988
  13.0090012  38.1404997  15.8679988  12.8231637  37.7071154  15.1372793
  17.6040012  20.3284997  14.1409988  16.7920012  20.6534997  13.7529988
  17.8370012  19.5684997  13.6079988  17.5243423  20.2702436  14.0158253
   3.4330012  38.3104997  12.9049988   2.7120012  38.7504997  12.4539988
   3.0670012  38.0594997  13.7539988   3.2849804  38.3367698  12.9579840
   5.9000012  37.9104997  11.9349988   5.0350012  37.9824997  12.3389988
   5.8450012  38.4574997  11.1509988   5.7742085  37.9942685  11.8843362
  10.6100012  37.7984997  11.1099988  10.1540012  38.3274997  10.4559988
  10.7730012  38.4014997  11.8359988  10.5695585  37.9524468  11.1185062
  12.9380012  36.6764997  12.0549988  12.0330012  36.8414997  11.7899988
  13.3670012  37.5294997  11.9899988  12.8720799  36.8144483  12.0099182
  15.5420012  38.2464997  12.3499988  15.3600012  39.1624997  12.1399988
  15.7190012  37.8364997  11.5039988  15.5410210  38.3164822  12.2067885
   2.8470012  36.9334997   9.8149988   2.8290012  36.5084997  10.6729988
   3.6520012  36.6154997   9.4069988   2.9533875  36.8323812   9.8771655
   4.9890012  35.6434997   8.4699988   4.7700012  34.7274997   8.6399988
   5.8130012  35.7834997   8.9359988   5.0704420  35.5370520   8.5562774
   7.5260012  36.1134997   9.3189988   7.7390012  35.2254997   9.0319988
   7.5900012  36.0794997  10.2729988   7.5638232  35.9873102   9.4087397
  11.0340012  21.7774997   8.4629988  10.3600012  21.1484997   8.7189988
  11.5980012  21.2934997   7.8599988  11.0179230  21.6258744   8.4165340
  16.1770012  19.8854997   8.5759988  16.7810012  20.4324997   8.0739988
  15.3070012  20.2044997   8.3359988  16.1421241  20.0035806   8.4747654
  17.9040012  21.0234997   6.9089988  18.5160012  20.5094997   6.3829988
  18.2860012  21.9014997   6.9329988  18.0394540  21.0717140   6.8401830
   3.3610012  20.4114997   6.2849988   2.5840012  20.1774997   5.7779988
   3.8910012  19.6144997   6.2939988   3.3262330  20.2716988   6.2167742
   2.1970012  20.2094997   2.0889988   2.6360012  20.8204997   1.4969988
   1.5640012  20.7474997   2.5629988   2.1714514  20.3659257   2.0720930
   7.9400012  20.3384997   6.0989988   8.8150012  20.7264997   6.0689988
   7.8040012  20.1234997   7.0209988   8.0413695  20.3625184   6.2196440
  13.4970012  20.3684997   7.7479988  13.5730012  20.4634997   6.7979988
  13.2220012  19.4604997   7.8769988  13.4702321  20.2587867   7.6355079
  14.8500012  20.3944997   3.4399988  14.1480012  21.0094997   3.2309988
  14.4060012  19.5564997   3.5709988  14.6936330  20.3655783   3.4290328
   2.0980012  36.1574997   2.9869988   1.4130012  36.1194997   2.3189988
   2.1020012  37.0704997   3.2749988   2.0048193  36.2757016   2.9345284
   4.0580012  22.1254997   0.5309988   4.5500012  21.4954997   0.0039988
   4.6820012  22.4214997   1.1949988   4.2095446  22.0793199   0.5485980
   9.0840012  22.4184997   2.9879988   9.2620012  21.7724997   3.6709988
   9.0310012  23.2524997   3.4559988   9.1011829  22.4427985   3.1445940
  10.9630012  37.3674997   1.3839988  11.8290012  37.7334997   1.2059988
  10.7160012  36.9274997   0.5699988  11.0482392  37.3581756   1.2496289
  17.6720012  36.9304997   4.0629988  17.4770012  36.1824997   3.4979988
  17.6330012  37.6884997   3.4799988  17.6400380  36.9306099   3.9068384
   3.3190012  20.9254997  15.8029988   2.9530012  20.1604997  16.2459988
   4.2320012  20.9544997  16.0899988   3.3922790  20.8247224  15.9024070
   5.2920012  20.2764997  17.3389988   6.1900012  20.0024997  17.1539988
   4.9050012  19.5334997  17.8029988   5.3626612  20.1385914  17.3763643
   3.9160012  37.0774997   0.0119988   3.6490012  37.3644997   0.8849988
   4.6880012  36.5314997   0.1639988   3.9837488  37.0430294   0.1521050
  13.7130012  19.6084997  17.5209988  13.7900012  19.1824997  18.3749988
  14.6070012  19.6224997  17.1779988  13.8443428  19.5520879  17.5915310
  16.8890012  35.6814997  16.2129988  16.1070012  35.4954997  15.6939988
  16.8170012  36.6104997  16.4309988  16.7721777  35.7816492  16.1714048
  31.2950012  29.5674997   6.2439988  31.3840012  30.5114997   6.1119988
  30.6570012  29.2924997   5.5859988  31.2209081  29.6594830   6.1369614
  30.2280012  28.8224997   9.6629988  30.1900012  28.1764997  10.3679988
  29.9060012  28.3564997   8.8919988  30.1792333  28.6709408   9.6552978
  22.5970012  28.4374997  11.2559988  22.6380012  27.8114997  11.9789988
  23.3000012  29.0614997  11.4379988  22.6976363  28.4361196  11.3796044
  33.9340012  31.7614997   7.9639988  33.4940012  31.0414997   8.4149988
  33.9210012  32.4824997   8.5939988  33.8720226  31.7603731   8.1108494
  23.5200012  32.8874997   9.7909988  23.1510012  32.0854997   9.4209988
  24.4610012  32.7184997   9.8369988  23.5967289  32.7550153   9.7466316
  20.1300012  26.5474997   5.1839988  19.6830012  27.3934997   5.1649988
  19.5690012  25.9674997   4.6679988  19.9929900  26.5849916   5.1116801
  20.8410012  28.7094997   7.3099988  21.0540012  27.9394997   7.8369988
  21.5790012  28.7984997   6.7059988  20.9698496  28.6161394   7.3005300
  31.0460012  36.8664997   8.1769988  31.6660012  36.1894997   7.9029988
  30.8380012  36.6484997   9.0849988  31.1026904  36.7443870   8.2623365
  28.6180012  31.2554997  10.0689988  28.9220012  30.5694997   9.4739988
  29.3390012  31.3734997  10.6869988  28.7570671  31.1776305  10.0711816
  37.2810012  22.8564997  10.9299988  37.3300012  23.4664997  11.6659988
  37.7060012  23.3174997  10.2069988  37.3451824  23.0023741  10.9330205
  31.7590012  25.6494997  10.3969988  31.9010012  24.7034997  10.4169988
  31.6520012  25.8564997   9.4679988  31.7639864  25.5479534  10.2742339
  24.9130012  23.7504997   7.6689988  24.9570012  24.6104997   7.2509988
  24.4560012  23.1984997   7.0349988  24.8572185  23.7935799   7.5260299
  32.6360012  23.8814997   6.0699988  33.2820012  23.5524997   6.6949988
  33.1460012  24.3994997   5.4469988  32.7934264  23.9064611   6.0713862
  21.5340012  26.1474997   8.4309988  22.1870012  25.5974997   8.8629988
  21.5580012  25.8734997   7.5139988  21.6266683  26.0351466   8.3662123
  26.6900012  27.6974997   7.6459988  27.3060012  27.1714997   8.1559988
  26.1040012  27.0574997   7.2429988  26.6950810  27.5389208   7.6613173
  37.6720012  24.3344997  13.1659988  36.9840012  24.9924997  13.0699988
  37.6880012  24.1374997  14.1019988  37.5798525  24.3980462  13.2794808
  23.7240012  22.6684997  11.7429988  23.5050012  23.1984997  10.9769988
  23.0560012  22.8954997  12.3899988  23.6037600  22.7716906  11.7256379
  31.0930012  32.1684997   5.2869988  30.7970012  31.8464997   4.4359988
  30.7680012  33.0684997   5.3279988  31.0086371  32.2460215   5.1761801
  26.2930012  30.3444997  12.0299988  25.5530012  30.9424997  12.1339988
  27.0070012  30.8984997  11.7149988  26.2882237  30.5012831  12.0016465
  34.4000012  23.1724997   8.0499988  34.1840012  22.4064997   8.5829988
  35.0550012  23.6444997   8.5629988  34.4590632  23.1315889   8.1922861
  23.3170012  24.5604997   9.6949988  23.9310012  25.1934997  10.0689988
  23.8290012  24.0884997   9.0389988  23.4702296  24.5832370   9.6574252
  24.7000012  32.3084997  12.8179988  24.6950012  33.1884997  12.4399988
  23.8470012  32.2254997  13.2429988  24.5839464  32.4176117  12.8237907
  20.8210012  31.9794997   3.5999988  20.5490012  32.2084997   2.7109988
  20.8670012  32.8174997   4.0599988  20.7900094  32.1241213   3.5405697
  34.4460012  33.6014997  10.3119988  33.5050012  33.6594997  10.4739988
  34.7230012  34.5074997  10.1749988  34.3544679  33.7319443  10.3156815
  34.7470012  21.8874997  11.7299988  34.0110012  22.4984997  11.6919988
  35.4300012  22.3024997  11.2029988  34.7386541  22.0271374  11.6535832
  27.7500012  19.9744997   9.1959988  27.6330012  19.0254997   9.1409988
  26.8950012  20.3064997   9.4689988  27.6183733  19.8895409   9.2253897
  32.6980012  35.3824997   6.9379988  33.1240012  34.6754997   6.4529988
  33.0150012  36.1834997   6.5209988  32.7991019  35.3940994   6.8153130
  33.8580012  33.2834997   5.4459988  33.6000012  32.5934997   4.8349988
  33.9290012  32.8404997   6.2919988  33.8322856  33.1292124   5.4766885
  35.5440012  31.8494997  13.9239988  35.6840012  31.2584997  13.1839988
  35.7110012  32.7224997  13.5669988  35.5856778  31.8866426  13.7746965
  30.0170012  28.8114997   3.6959988  29.3050012  29.3464997   3.3439988
  30.7080012  28.8674997   3.0359988  30.0130132  28.8922543   3.5586289
  30.0700012  27.2694997   0.7349988  30.7710012  27.2914997   1.3859988
  30.3730012  26.6414997   0.0789988  30.2067830  27.1876566   0.7353711
  37.3860012  28.1894997  11.9899988  36.7330012  28.8844997  12.0789988
  37.8510012  28.3994997  11.1799988  37.3595390  28.3129425  11.8926883
  33.4220012  29.0214997   4.6479988  32.6900012  29.2494997   5.2209988
  33.8700012  28.3074997   5.1029988  33.3823095  28.9562571   4.7879119
  33.3200012  27.1954997  13.7149988  33.4000012  27.9584997  14.2869988
  32.7180012  27.4744997  13.0249988  33.2495756  27.3377134  13.7000589
  25.0680012  29.6514997   6.5299988  24.7370012  29.2814997   5.7119988
  25.6560012  28.9814997   6.8769988  25.1021873  29.5101156   6.4648102
  26.4340012  33.0794997   9.2119988  26.3400012  32.5014997   8.4549988
  27.1640012  32.7084997   9.7079988  26.5197981  32.9502390   9.1754165
  25.4340012  28.4204997  10.1639988  26.0000012  28.5414997   9.4009988
  25.7530012  29.0574997  10.8029988  25.5545786  28.5231884  10.1460040
  31.7430012  33.9234997  10.8979988  31.5030012  34.5854997  11.5459988
  31.5450012  33.0894997  11.3229988  31.6833808  33.9013134  11.0441524
  26.3140012  32.8194997  14.8809988  26.0030012  33.6014997  15.3359988
  25.6640012  32.6664997  14.1949988  26.1835558  32.9059105  14.8505871
  32.2930012  28.1834997   2.3329988  32.8730012  28.3334997   3.0799988
  32.7070012  28.6544997   1.6099988  32.4282830  28.2676841   2.3374134
  23.2340012  29.0174997  14.1099988  23.3050012  29.6684997  14.8079988
  22.3440012  29.1204997  13.7749988  23.1233117  29.1205936  14.1602700
  30.0200012  34.9204997   5.7679988  30.4940012  35.2154997   6.5459988
  29.4570012  35.6584997   5.5349988  30.0087653  35.0606932   5.8430136
  24.5540012  34.8914997  15.6439988  24.5610012  34.7554997  14.6969988
  23.6380012  34.7734997  15.8959988  24.4311714  34.8569430  15.5484666
  35.9920012  19.9334997   2.1459988  35.0920012  20.0724997   2.4409988
  36.2440012  20.7644997   1.7439988  35.9028702  20.0649074   2.1320205
  24.0580012  28.7214997   4.1199988  23.7660012  29.4894997   3.6289988
  23.3840012  28.0614997   3.9569988  23.9269081  28.7374406   4.0307340
  37.1810012  34.2994997   0.5219988  37.2550012  35.2384997   0.6929988
  38.0870012  33.9944997   0.4659988  37.3135100  34.3866722   0.5378119
  20.1510012  31.0844997  12.9349988  19.6500012  31.0564997  12.1199988
  20.1560012  30.1784997  13.2439988  20.0831526  30.9582278  12.8652872
  19.9010012  33.8644997   9.8189988  20.8470012  33.7204997   9.7999988
  19.7890012  34.6484997  10.3559988  20.0152727  33.9508046   9.8890072
  38.0990012  34.5304997  15.5009988  38.0500012  33.5754997  15.4639988
  37.2720012  34.7984997  15.9019988  37.9804940  34.4358998  15.5501375
  29.0780012  34.1044997  14.3769988  29.1650012  34.9304997  14.8519988
  28.2140012  33.7744997  14.6259988  28.9731964  34.1729878  14.4756549
  29.4920012  37.8764997   4.1829988  29.4170012  37.7554997   3.2369988
  29.5250012  38.8264997   4.3019988  29.4861848  37.9882500   4.0694834
  23.1450012  36.6654997   5.9639988  23.2980012  36.3174997   6.8429988
  22.2950012  36.3094997   5.7089988  23.0508962  36.5696650   6.0498340
  32.5940012  37.0304997   1.1849988  32.9690012  36.2864997   0.7149988
  32.5980012  36.7604997   2.1039988  32.6458915  36.8921486   1.2447824
  32.2630012  36.9564997   3.9349988  31.3270012  37.0564997   4.1129988
  32.5430012  36.2474997   4.5129988  32.1728255  36.8742711   4.0375391
  35.2510012  26.0234997  15.9809988  34.8440012  26.5044997  15.2599988
  35.2920012  25.1184997  15.6729988  35.2008437  25.9669374  15.8406683
  22.4000012  32.4074997  13.9779988  22.6160012  32.0464997  14.8369988
  21.5450012  32.0334997  13.7679988  22.3139292  32.3074111  14.0673386
  25.0190012  20.8774997   9.9729988  24.1570012  20.7904997   9.5659988
  24.9960012  21.7334997  10.4009988  24.8980330  20.9812765   9.9751863
  29.6820012  20.5994997  13.3479988  30.1020012  20.1844997  14.1009988
  28.7490012  20.4214997  13.4649988  29.6133644  20.5185900  13.4669539
  33.0080012  24.3554997  14.2009988  32.4940012  24.2294997  14.9989988
  32.8530012  25.2674997  13.9569988  32.9166852  24.4616132  14.2772158
  33.7710012  29.2164997  -0.0370012  33.8130012  28.9934997  -0.9670012
  34.6200012  29.6154997   0.1529988  33.8915396  29.2399155  -0.1386373
  29.3430012  23.0924997   0.6329988  29.0900012  23.1114997   1.5559988
  29.0870012  22.2204997   0.3319988  29.2737790  22.9772437   0.7186263
  25.1100012  25.8434997  11.0679988  24.4680012  25.8024997  11.7769988
  25.1470012  26.7694997  10.8309988  25.0271324  25.9631559  11.1329824
  25.1070012  26.0644997   5.9799988  24.2140012  25.7234997   5.9219988
  25.5570012  25.6874997   5.2249988  25.0457305  25.9668484   5.8699177
  30.6420012  26.4804997   4.7969988  30.2330012  27.2954997   4.5059988
  31.3630012  26.3404997   4.1829988  30.6834537  26.5732018   4.6741342
  29.7440012  26.6554997  16.2849988  29.1820012  25.9514997  16.6059988
  30.5710012  26.5354997  16.7529988  29.7787095  26.5427883  16.3922330
  31.6470012  25.9264997   7.6109988  31.4520012  26.5314997   6.8959988
  31.8280012  25.0924997   7.1769988  31.6447614  25.8966300   7.4544405
  22.8600012  26.1634997  12.9349988  22.8220012  26.5634997  13.8039988
  22.3690012  25.3464997  13.0259988  22.7884684  26.1078069  13.0661059
  26.2260012  23.5374997  -0.2660012  25.7950012  23.0924997   0.4639988
  25.5080012  23.9094997  -0.7780012  26.0699438  23.5268940  -0.2353201
  19.4680012  23.2794997   6.7859988  20.0990012  23.2504997   7.5049988
  19.9170012  22.8544997   6.0559988  19.6150774  23.2180492   6.7856553
  20.7420012  24.0254997   2.2099988  21.2160012  24.6164997   1.6249988
  20.0250012  24.5564997   2.5569988  20.7099341  24.1780867   2.1768836
  30.9110012  27.5644997  12.2829988  31.2340012  26.9334997  11.6399988
  30.4710012  27.0294997  12.9429988  30.8956895  27.4058441  12.2842850
  27.6880012  23.4914997   7.0669988  26.7770012  23.5484997   7.3549988
  28.1940012  23.4314997   7.8769988  27.6315413  23.4911985   7.2160622
  22.5170012  25.1204997   5.8929988  21.6270012  25.2204997   5.5529988
  22.8130012  24.2784997   5.5469988  22.4352823  25.0203545   5.7997213
  26.1700012  25.1204997   3.5499988  27.1010012  25.2494997   3.7279988
  25.9550012  25.7904997   2.8999988  26.2684247  25.2286565   3.4865747
  32.0930012  22.7264997  10.3309988  31.4170012  22.8574997  10.9949988
  31.6080012  22.5714997   9.5209988  31.9347145  22.7234905  10.3124517
  24.8440012  26.3154997   1.1169988  24.3010012  25.9354997   0.4249988
  25.6770012  26.5094997   0.6879988  24.8824399  26.2898124   0.9644526
  35.3810012  38.3984997  16.6079988  35.5810012  38.8224997  15.7729988
  36.0360012  38.7414997  17.2149988  35.4970051  38.5029648  16.5757836
  22.9790012  30.8724997  16.2159988  23.7110012  31.1264997  16.7769988
  22.1990012  31.0764997  16.7309988  22.9738232  30.9349177  16.3625760
  29.0080012  26.2794997   8.9539988  29.5730012  25.7324997   8.4069988
  28.8610012  25.7574997   9.7419988  29.0652918  26.1342024   8.9858454
  24.0100012  22.4154997   5.3719988  23.6930012  21.5134997   5.3369988
  24.7920012  22.4174997   4.8189988  24.0722284  22.2921628   5.2924783
  27.6350012  24.6674997  11.3679988  26.7990012  25.1214997  11.4779988
  28.1590012  24.9434997  12.1199988  27.5914414  24.7669376  11.4847136
  28.1790012  30.8804997   3.0519988  27.4340012  30.3734997   2.7299988
  28.0450012  30.9294997   3.9989988  28.0588776  30.8176940   3.1358647
  35.3290012  30.0134997  11.8389988  35.9710012  30.4704997  11.2949988
  34.4990012  30.1264997  11.3759988  35.3045963  30.0912704  11.7020177
  32.0770012  23.6944997   1.2519988  31.1380012  23.8064997   1.0999988
  32.3740012  24.5514997   1.5579988  31.9887666  23.8256443   1.2725768
  29.6980012  31.0644997  14.2889988  29.3530012  30.6834997  15.0959988
  29.4980012  31.9984997  14.3609988  29.6238061  31.1385228  14.4090961
  32.7950012  25.5614997   2.9119988  33.6870012  25.4244997   3.2309988
  32.8520012  26.3524997   2.3759988  32.9246285  25.6496660   2.8831691
  23.3040012  30.1754997   8.8219988  24.0490012  30.1734997   8.2209988
  23.3820012  29.3524997   9.3039988  23.4165518  30.0639315   8.8048929
  30.3050012  32.3394997   2.0779988  30.0090012  33.1654997   2.4589988
  29.6020012  31.7194997   2.2739988  30.1694914  32.3688199   2.1566443
  20.3120012  28.6364997  14.1369988  20.5350012  28.2184997  14.9689988
  19.7100012  28.0234997  13.7139988  20.2611759  28.4964668  14.1937022
  27.3280012  28.1534997  16.3499988  27.0320012  27.9874997  15.4549988
  28.2600012  27.9334997  16.3389988  27.4134166  28.1010640  16.2260536
  31.9490012  33.5264997  14.2399988  31.0480012  33.7094997  13.9719988
  31.9830012  33.7854997  15.1609988  31.8303041  33.5865512  14.3278197
  37.6800012  25.7714997   2.6069988  37.1260012  25.3754997   1.9349988
  37.7800012  26.6814997   2.3289988  37.6177059  25.8403586   2.4774401
  37.6430012  31.5714997  15.4439988  36.7920012  31.8094997  15.0769988
  38.2340012  31.5544997  14.6909988  37.6062487  31.6018258  15.2918893
  35.9750012  34.5574997   3.0719988  35.6020012  33.7314997   3.3809988
  36.2530012  34.3744997   2.1749988  35.9615630  34.4197303   2.9929626
  33.1360012  29.3654997  10.0929988  32.2070012  29.1334997  10.0659988
  33.5870012  28.5884997   9.7629988  33.0699216  29.2287238  10.0446917
  25.6790012  33.6934997   6.2259988  26.2060012  34.4664997   6.0259988
  24.7990012  33.9184997   5.9249988  25.6321773  33.8298005   6.1579010
  21.4340012  28.5554997   0.8129988  22.0500012  29.1824997   1.1929988
  20.5720012  28.8714997   1.0849988  21.4017698  28.6839430   0.9017183
  27.1060012  31.3564997   5.8029988  26.8650012  32.2814997   5.8439988
  26.3650012  30.8974997   6.1989988  26.9728409  31.4211421   5.8621377
  27.6210012  35.5054997  12.1179988  27.9830012  36.3604997  11.8839988
  28.1520012  35.2134997  12.8579988  27.7424473  35.5831060  12.1860855
  25.7890012  36.3784997   5.3479988  24.8390012  36.4834997   5.3989988
  26.1410012  37.1984997   5.6929988  25.7064203  36.5038314   5.4016650
  31.1650012  31.6044997  11.8179988  30.7390012  31.3774997  12.6449988
  31.7450012  30.8664997  11.6359988  31.1851868  31.4735299  11.9065830
  33.3680012  32.5334997   0.8919988  33.7210012  32.1534997   1.6969988
  32.4190012  32.4404997   0.9789988  33.2880441  32.4689596   1.0138559
  33.8230012  36.1564997  14.2879988  33.2220012  35.6014997  13.7919988
  34.1050012  36.8234997  13.6619988  33.7788519  36.1706841  14.1354952
  37.8710012  37.0134997   1.0929988  38.6150012  37.5994997   0.9529988
  37.1770012  37.5814997   1.4269988  37.8790292  37.1705582   1.1189961
  21.9460012  23.3894997  13.6949988  21.0530012  23.7284997  13.6269988
  21.8470012  22.5344997  14.1129988  21.8104164  23.3202588  13.7422235
  34.2340012  31.2064997   3.1189988  33.9560012  30.4784997   3.6749988
  35.1610012  31.3254997   3.3239988  34.3213124  31.1228802   3.2228845
  21.5970012  35.1944997  12.1299988  21.8140012  34.2624997  12.0989988
  21.8430012  35.4684997  13.0129988  21.6599549  35.1040636  12.2451763
  27.4590012  33.6454997  -0.6610012  27.6980012  32.8974997  -1.2080012
  27.1900012  33.2574997   0.1719988  27.4553675  33.4906638  -0.6233135
  26.3960012  33.2154997   1.7959988  26.5420012  32.6954997   2.5859988
  26.3930012  34.1224997   2.1019988  26.4155989  33.2668853   1.9456088
  22.8490012  30.4684997   2.3059988  22.1630012  30.8204997   2.8729988
  23.3710012  31.2314997   2.0589988  22.8256852  30.6198578   2.3502118
  30.6800012  23.1304997  12.5849988  31.3790012  23.2044997  13.2349988
  30.2990012  22.2664997  12.7389988  30.7241767  23.0237624  12.6948322
  31.4650012  22.7824997   3.6819988  31.6850012  23.2544997   2.8789988
  32.0230012  23.1774997   4.3519988  31.5704968  22.9004285   3.6627331
  29.1330012  34.9134997   2.5449988  28.3170012  35.4104997   2.5969988
  29.6630012  35.3884997   1.9049988  29.0929161  35.0457722   2.4655956
  28.6650012  24.5104997   4.5169988  29.4770012  25.0154997   4.5629988
  28.4200012  24.3654997   5.4309988  28.7430520  24.5600375   4.6468517
  29.2000012  25.4964997  13.7019988  29.3190012  26.0704997  14.4589988
  29.8560012  24.8084997  13.8159988  29.3049757  25.4821079  13.8210825
  29.5480012  21.5914997   5.4549988  29.2020012  22.2094997   6.0999988
  30.2070012  22.0924997   4.9739988  29.5897826  21.7435802   5.4780971
  26.4720012  35.9574997   2.5269988  26.6320012  36.7564997   2.0259988
  26.2740012  36.2634997   3.4119988  26.4671649  36.1084469   2.5779815
  25.2060012  22.6544997   2.1419988  25.1230012  23.5434997   2.4889988
  26.0960012  22.3894997   2.3739988  25.3149469  22.7401430   2.2207626
  35.4050012  23.4034997  14.5369988  34.4880012  23.6664997  14.4489988
  35.7400012  23.4004997  13.6399988  35.3249900  23.4390224  14.4037919
  34.0070012  27.1544997   8.6319988  33.2090012  26.7394997   8.3039988
  34.4520012  26.4634997   9.1229988  33.9579885  27.0043543   8.6534889
  23.4650012  33.0824997   1.2029988  24.0570012  33.7814997   1.4789988
  23.9240012  32.6494997   0.4829988  23.6081142  33.1197049   1.1434830
  21.7810012  25.7464997   0.3189988  21.7360012  26.6854997   0.4969988
  20.8930012  25.5104997   0.0489988  21.6548574  25.8431892   0.3068912
  35.0930012  36.4104997  10.2549988  34.9380012  37.0884997   9.5979988
  36.0260012  36.4824997  10.4579988  35.1978500  36.5130170  10.1925119
  22.5890012  20.5284997   8.9919988  22.3600012  20.5874997   8.0639988
  22.1460012  19.7364997   9.2979988  22.4978530  20.4295753   8.9064786
  21.5190012  34.4684997   5.1519988  20.6870012  34.9414997   5.1799988
  22.0650012  34.9784997   4.5539988  21.4789739  34.6021871   5.0749716
  20.8070012  37.0814997  16.4819988  21.3480012  36.8644997  17.2419988
  20.3260012  36.2754997  16.2929988  20.8159345  36.9429514  16.5603076
  25.4050012  36.0004997  18.1029988  26.1720012  35.5414997  18.4439988
  25.3830012  35.7744997  17.1729988  25.5071434  35.9070409  18.0240043
  29.4970012  35.5084997  -0.5220012  28.8530012  34.8774997  -0.2010012
  30.2590012  34.9774997  -0.7540012  29.5118077  35.3502920  -0.5093989
  31.9820012  34.3804997  16.8319988  31.6310012  33.5244997  17.0749988
  32.7080012  34.5234997  17.4389988  32.0320769  34.2825636  16.9473619
  34.1010012  35.3254997  -0.2880012  34.3840012  34.5314997   0.1639988
  34.8410012  35.5584997  -0.8490012  34.2397486  35.2482803  -0.3019302
  20.7140012  30.8914997  17.4369988  20.8580012  29.9894997  17.1499988
  19.9420012  31.1774997  16.9489988  20.6293322  30.8068261  17.3317881
  25.0560012  31.2354997  -0.4310012  25.1200012  30.4414997   0.0999988
  25.7090012  31.1164997  -1.1210012  25.1530241  31.1107148  -0.4515683
  27.3700012  30.8614997  16.8689988  27.0410012  31.1324997  16.0119988
  27.5220012  29.9204997  16.7819988  27.3454809  30.7713862  16.7398244
  30.4080012  32.2824997  -0.6950012  30.1390012  32.4624997   0.2059988
  30.2020012  31.3564997  -0.8260012  30.3433825  32.1820152  -0.5894786
  33.1040012  30.7774997  14.2529988  33.8500012  31.3654997  14.1329988
  32.3470012  31.3594997  14.3159988  33.1037554  30.9367011  14.2450907
  21.5470012  28.0914997  16.8569988  21.9550012  27.2344997  16.7359988
  21.2870012  28.1064997  17.7779988  21.5677568  27.9760807  16.9649588
  26.2050012  29.2074997   1.8749988  25.7450012  28.7234997   2.5609988
  26.4600012  28.5394997   1.2389988  26.1764902  29.0508731   1.8829334
  25.4940012  27.1004997  14.2309988  24.8760012  27.7754997  14.5109988
  25.8380012  27.4214997  13.3979988  25.4559615  27.2362721  14.1566581
  27.2760012  27.4504997   0.1369988  27.0960012  27.2964997  -0.7900012
  28.2260012  27.5584997   0.1819988  27.3797776  27.4440175   0.0161843
  30.5140012  29.5724997  17.5079988  31.4670012  29.6554997  17.4809988
  30.3530012  28.8604997  18.1279988  30.6226426  29.4876746  17.5880579
  36.6660012  29.8054997  -0.4170012  36.3920012  29.3804997  -1.2300012
  36.7050012  30.7364997  -0.6340012  36.6337699  29.8732484  -0.5576390
  25.8330012  24.4554997  15.3129988  25.9830012  23.7264997  14.7109988
  25.8360012  25.2324997  14.7539988  25.8539302  24.4607851  15.1550692
  26.2460012  22.8254997  12.8059988  26.7820012  23.2764997  12.1539988
  25.3940012  22.7174997  12.3829988  26.2042178  22.8726390  12.6595756
  27.8280012  28.2644997  13.0449988  28.5780012  28.1084997  12.4719988
  27.4890012  29.1164997  12.7699988  27.8848921  28.3582968  12.9293561
  32.2430012  26.0794997  18.0739988  32.4360012  25.1484997  17.9619988
  33.1010012  26.5044997  18.0639988  32.3853020  26.0096389  18.0573361
  33.5600012  28.8684997  16.1509988  33.2790012  29.5774997  15.5739988
  34.5030012  28.7954997  15.9999988  33.6489027  28.9557646  16.0515551
  24.3120012  25.6534997  17.2249988  23.5450012  25.1214997  17.0149988
  24.9910012  25.3434997  16.6249988  24.2987022  25.5387506  17.1151648
  27.0520012  20.2814997  13.2369988  26.9530012  21.2284997  13.1319988
  26.3090012  19.9094997  12.7619988  26.9380564  20.3605902  13.1584560
  28.3160012  24.6034997  16.8009988  28.0800012  24.3834997  17.7029988
  27.5320012  24.3964997  16.2909988  28.1778628  24.5454760  16.8553932
  31.0310012  23.7304997  15.8769988  30.0840012  23.7624997  16.0089988
  31.3440012  23.1054997  16.5299988  30.9435475  23.6503207  15.9834455
  32.6650012  22.3644997  17.8819988  32.5690012  21.4124997  17.8759988
  32.3440012  22.6334997  18.7419988  32.6084070  22.2704035  17.9975441
  22.4920012  23.5744997  16.9289988  22.7040012  22.8674997  16.3189988
  22.3810012  23.1364997  17.7729988  22.5059721  23.4187084  16.9596843
  27.2730012  19.5754997  15.9089988  27.9850012  18.9354997  15.8949988
  27.1720012  19.8424997  14.9949988  27.3567939  19.5239938  15.7835650
  27.6270012  21.2584997  17.9619988  27.4950012  20.7824997  17.1419988
  27.0280012  22.0024997  17.9069988  27.5279071  21.2939618  17.8422886
  27.1730012  38.1414997   1.1389988  28.1060012  38.2994997   1.2819988
  26.9090012  38.8164997   0.5139988  27.2649510  38.2543611   1.0740741
  20.7420012  32.7774997   0.6209988  21.6560012  32.8564997   0.8949988
  20.7490012  32.0904997  -0.0450012  20.8681131  32.6953961   0.5684393
  19.3910012  38.1704997   5.6989988  18.7440012  37.7084997   5.1659988
  19.7450012  37.4984997   6.2809988  19.3503849  38.0164723   5.7047959
  20.2610012  36.2514997   7.5029988  19.9260012  35.3714997   7.6749988
  20.4830012  36.5964997   8.3679988  20.2451783  36.1777500   7.6434208
  37.8090012  37.0604997  10.4839988  37.7880012  37.2454997  11.4229988
  38.5000012  37.6294997  10.1429988  37.8994618  37.1626606  10.5663864
  37.3730012  36.6284997  13.4059988  36.8850012  35.8924997  13.0349988
  37.9220012  36.2344997  14.0839988  37.3804872  36.4746249  13.4469160
  35.8230012  32.4174997  18.0439988  34.9570012  32.3124997  18.4379988
  36.2000012  33.1764997  18.4899988  35.7553308  32.5056900  18.1582393
  37.1240012  30.6744997   3.5579988  37.9740012  31.0954997   3.6849988
  37.1300012  29.9344997   4.1649988  37.2411372  30.6320803   3.6574344
  37.5190012  28.7274997   5.3819988  36.7920012  28.2484997   5.7789988
  38.1000012  28.9334997   6.1139988  37.4979375  28.6897090   5.5354129
  37.2780012  31.5124997  10.3289988  38.1110012  31.1344997  10.0489988
  37.3900012  32.4554997  10.2099988  37.4072647  31.5882218  10.2745487
  35.7640012  34.3904997  12.6359988  35.1170012  34.7154997  13.2619988
  35.2470012  33.9504997  11.9619988  35.6054029  34.3755004  12.6305827
  37.7870012  28.6284997   1.7729988  37.2650012  28.9854997   1.0539988
  37.7540012  29.3034997   2.4509988  37.7111634  28.7685413   1.7663145
  36.1360012  25.8684997   0.3239988  36.2320012  26.5354997  -0.3570012
  35.9960012  25.0524997  -0.1580012  36.1302135  25.8494500   0.1658491
  35.3050012  27.2484997   5.9449988  35.1550012  26.3034997   5.9239988
  34.9520012  27.5294997   6.7879988  35.2366625  27.1570441   6.0562346
  20.3410012  29.3264997   9.9549988  20.5250012  29.2444997   9.0189988
  21.1900012  29.2024997  10.3789988  20.4810139  29.2985003   9.8841455
  36.1620012  29.2184997  15.5829988  36.7450012  28.4844997  15.7749988
  36.7260012  29.9904997  15.6299988  36.3179769  29.2224227  15.6156159
  37.6580012  27.1214997  16.2679988  36.7950012  26.7424997  16.1019988
  38.2630012  26.3824997  16.1939988  37.6215979  26.9698023  16.2352817
  35.3830012  23.2764997  -0.5590012  35.9940012  22.9054997   0.0779988
  34.5470012  22.8554997  -0.3630012  35.3535032  23.1687554  -0.4452965
  35.0160012  24.8314997   4.4069988  35.2960012  23.9244997   4.5309988
  35.7750012  25.2654997   4.0179988  35.1569277  24.7660942   4.3713682
  35.6280012  25.4124997   9.8429988  36.5610012  25.6244997   9.8089988
  35.3930012  25.5144997  10.7649988  35.7238036  25.4552769   9.9629976
  35.6570012  26.1494997  12.6189988  34.8140012  26.4174997  12.9849988
  36.0990012  26.9714997  12.4079988  35.6014158  26.2973291  12.6405491
  19.9380012  24.5974997  16.0959988  20.8580012  24.4754997  16.3319988
  19.4890012  23.8474997  16.4849988  20.0031580  24.4793727  16.1809006
  37.9400012  20.1294997  17.9719988  38.2900012  19.4754997  17.3669988
  38.0870012  20.9664997  17.5329988  38.0078419  20.1531591  17.8297118
  35.6290012  22.0944997   4.4549988  35.8120012  21.6454997   5.2809988
  35.0300012  21.5094997   3.9919988  35.5730202  21.9539975   4.5053275
  21.1590012  22.9094997   8.9869988  21.6050012  22.1174997   9.2889988
  21.6260012  23.6254997   9.4179988  21.2830172  22.8980624   9.0864820
  19.4630012  25.9084997  10.0559988  19.9550012  25.6874997   9.2649988
  19.8260012  26.7494997  10.3369988  19.5793126  25.9918357   9.9857531
  37.4600012  22.2384997  16.3219988  36.5420012  22.5094997  16.2859988
  37.5830012  21.7034997  15.5369988  37.3511066  22.2032892  16.2110487
  37.4960012  22.1614997   0.9829988  37.9080012  21.4404997   0.5079988
  38.1780012  22.8314997   1.0419988  37.6445885  22.1532368   0.9258915
  19.7770012  22.1664997   4.1099988  18.8520012  22.3754997   3.9809988
  20.2310012  22.6504997   3.4209988  19.7117368  22.2605993   3.9991226
  34.5480012  37.1504997   6.0559988  35.2000012  36.8034997   5.4479988
  35.0580012  37.6394997   6.7019988  34.7062637  37.1690597   6.0600236
  19.7410012  20.9044997  12.4549988  19.0760012  20.6584997  13.0979988
  19.2980012  21.5264997  11.8769988  19.5900956  20.9548632  12.4649352
  21.9330012  34.0794997  16.5989988  21.1120012  34.2544997  16.1389988
  21.6800012  34.0064997  17.5199988  21.7866164  34.0935622  16.6604923
  24.8870012  35.0544997  12.8579988  24.4620012  35.8634997  12.5749988
  25.7910012  35.1394997  12.5559988  24.9510271  35.1768469  12.7783776
  29.1980012  36.4534997  15.8169988  29.3830012  36.1194997  16.6949988
  30.0440012  36.7624997  15.4949988  29.3377539  36.4496047  15.8935605
  31.5430012  37.7394997  15.0609988  32.2200012  37.1064997  14.8209988
  31.8650012  38.1404997  15.8679988  31.6791637  37.7071154  15.1372793
  36.4600012  20.3284997  14.1409988  35.6480012  20.6534997  13.7529988
  36.6930012  19.5684997  13.6079988  36.3803423  20.2702436  14.0158253
  22.2890012  38.3104997  12.9049988  21.5680012  38.7504997  12.4539988
  21.9230012  38.0594997  13.7539988  22.1409804  38.3367698  12.9579840
  24.7560012  37.9104997  11.9349988  23.8910012  37.9824997  12.3389988
  24.7010012  38.4574997  11.1509988  24.6302085  37.9942685  11.8843362
  29.4660012  37.7984997  11.1099988  29.0100012  38.3274997  10.4559988
  29.6290012  38.4014997  11.8359988  29.4255585  37.9524468  11.1185062
  31.7940012  36.6764997  12.0549988  30.8890012  36.8414997  11.7899988
  32.2230012  37.5294997  11.9899988  31.7280799  36.8144483  12.0099182
  34.3980012  38.2464997  12.3499988  34.2160012  39.1624997  12.1399988
  34.5750012  37.8364997  11.5039988  34.3970210  38.3164822  12.2067885
  21.7030012  36.9334997   9.8149988  21.6850012  36.5084997  10.6729988
  22.5080012  36.6154997   9.4069988  21.8093875  36.8323812   9.8771655
  23.8450012  35.6434997   8.4699988  23.6260012  34.7274997   8.6399988
  24.6690012  35.7834997   8.9359988  23.9264420  35.5370520   8.5562774
  26.3820012  36.1134997   9.3189988  26.5950012  35.2254997   9.0319988
  26.4460012  36.0794997  10.2729988  26.4198232  35.9873102   9.4087397
  29.8900012  21.7774997   8.4629988  29.2160012  21.1484997   8.7189988
  30.4540012  21.2934997   7.8599988  29.8739230  21.6258744   8.4165340
  35.0330012  19.8854997   8.5759988  35.6370012  20.4324997   8.0739988
  34.1630012  20.2044997   8.3359988  34.9981241  20.0035806   8.4747654
  36.7600012  21.0234997   6.9089988  37.3720012  20.5094997   6.3829988
  37.1420012  21.9014997   6.9329988  36.8954540  21.0717140   6.8401830
  22.2170012  20.4114997   6.2849988  21.4400012  20.1774997   5.7779988
  22.7470012  19.6144997   6.2939988  22.1822330  20.2716988   6.2167742
  21.0530012  20.2094997   2.0889988  21.4920012  20.8204997   1.4969988
  20.4200012  20.7474997   2.5629988  21.0274514  20.3659257   2.0720930
  26.7960012  20.3384997   6.0989988  27.6710012  20.7264997   6.0689988
  26.6600012  20.1234997   7.0209988  26.8973695  20.3625184   6.2196440
  32.3530012  20.3684997   7.7479988  32.4290012  20.4634997   6.7979988
  32.0780012  19.4604997   7.8769988  32.3262321  20.2587867   7.6355079
  33.7060012  20.3944997   3.4399988  33.0040012  21.0094997   3.2309988
  33.2620012  19.5564997   3.5709988  33.5496330  20.3655783   3.4290328
  20.9540012  36.1574997   2.9869988  20.2690012  36.1194997   2.3189988
  20.9580012  37.0704997   3.2749988  20.8608193  36.2757016   2.9345284
  22.9140012  22.1254997   0.5309988  23.4060012  21.4954997   0.0039988
  23.5380012  22.4214997   1.1949988  23.0655446  22.0793199   0.5485980
  27.9400012  22.4184997   2.9879988  28.1180012  21.7724997   3.6709988
  27.8870012  23.2524997   3.4559988  27.9571829  22.4427985   3.1445940
  29.8190012  37.3674997   1.3839988  30.6850012  37.7334997   1.2059988
  29.5720012  36.9274997   0.5699988  29.9042392  37.3581756   1.2496289
  36.5280012  36.9304997   4.0629988  36.3330012  36.1824997   3.4979988
  36.4890012  37.6884997   3.4799988  36.4960380  36.9306099   3.9068384
  22.1750012  20.9254997  15.8029988  21.8090012  20.1604997  16.2459988
  23.0880012  20.9544997  16.0899988  22.2482790  20.8247224  15.9024070
  24.1480012  20.2764997  17.3389988  25.0460012  20.0024997  17.1539988
  23.7610012  19.5334997  17.8029988  24.2186612  20.1385914  17.3763643
  22.7720012  37.0774997   0.0119988  22.5050012  37.3644997   0.8849988
  23.5440012  36.5314997   0.1639988  22.8397488  37.0430294   0.1521050
  32.5690012  19.6084997  17.5209988  32.6460012  19.1824997  18.3749988
  33.4630012  19.6224997  17.1779988  32.7003428  19.5520879  17.5915310
  35.7450012  35.6814997  16.2129988  34.9630012  35.4954997  15.6939988
  35.6730012  36.6104997  16.4309988  35.6281777  35.7816492  16.1714048
  50.1510012  29.5674997   6.2439988  50.2400012  30.5114997   6.1119988
  49.5130012  29.2924997   5.5859988  50.0769081  29.6594830   6.1369614
  49.0840012  28.8224997   9.6629988  49.0460012  28.1764997  10.3679988
  48.7620012  28.3564997   8.8919988  49.0352333  28.6709408   9.6552978
  41.4530012  28.4374997  11.2559988  41.4940012  27.8114997  11.9789988
  42.1560012  29.0614997  11.4379988  41.5536363  28.4361196  11.3796044
  52.7900012  31.7614997   7.9639988  52.3500012  31.0414997   8.4149988
  52.7770012  32.4824997   8.5939988  52.7280226  31.7603731   8.1108494
  42.3760012  32.8874997   9.7909988  42.0070012  32.0854997   9.4209988
  43.3170012  32.7184997   9.8369988  42.4527289  32.7550153   9.7466316
  38.9860012  26.5474997   5.1839988  38.5390012  27.3934997   5.1649988
  38.4250012  25.9674997   4.6679988  38.8489900  26.5849916   5.1116801
  39.6970012  28.7094997   7.3099988  39.9100012  27.9394997   7.8369988
  40.4350012  28.7984997   6.7059988  39.8258496  28.6161394   7.3005300
  49.9020012  36.8664997   8.1769988  50.5220012  36.1894997   7.9029988
  49.6940012  36.6484997   9.0849988  49.9586904  36.7443870   8.2623365
  47.4740012  31.2554997  10.0689988  47.7780012  30.5694997   9.4739988
  48.1950012  31.3734997  10.6869988  47.6130671  31.1776305  10.0711816
  56.1370012  22.8564997  10.9299988  56.1860012  23.4664997  11.6659988
  56.5620012  23.3174997  10.2069988  56.2011824  23.0023741  10.9330205
  50.6150012  25.6494997  10.3969988  50.7570012  24.7034997  10.4169988
  50.5080012  25.8564997   9.4679988  50.6199864  25.5479534  10.2742339
  43.7690012  23.7504997   7.6689988  43.8130012  24.6104997   7.2509988
  43.3120012  23.1984997   7.0349988  43.7132185  23.7935799   7.5260299
  51.4920012  23.8814997   6.0699988  52.1380012  23.5524997   6.6949988
  52.0020012  24.3994997   5.4469988  51.6494264  23.9064611   6.0713862
  40.3900012  26.1474997   8.4309988  41.0430012  25.5974997   8.8629988
  40.4140012  25.8734997   7.5139988  40.4826683  26.0351466   8.3662123
  45.5460012  27.6974997   7.6459988  46.1620012  27.1714997   8.1559988
  44.9600012  27.0574997   7.2429988  45.5510810  27.5389208   7.6613173
  56.5280012  24.3344997  13.1659988  55.8400012  24.9924997  13.0699988
  56.5440012  24.1374997  14.1019988  56.4358525  24.3980462  13.2794808
  42.5800012  22.6684997  11.7429988  42.3610012  23.1984997  10.9769988
  41.9120012  22.8954997  12.3899988  42.4597600  22.7716906  11.7256379
  49.9490012  32.1684997   5.2869988  49.6530012  31.8464997   4.4359988
  49.6240012  33.0684997   5.3279988  49.8646371  32.2460215   5.1761801
  45.1490012  30.3444997  12.0299988  44.4090012  30.9424997  12.1339988
  45.8630012  30.8984997  11.7149988  45.1442237  30.5012831  12.0016465
  53.2560012  23.1724997   8.0499988  53.0400012  22.4064997   8.5829988
  53.9110012  23.6444997   8.5629988  53.3150632  23.1315889   8.1922861
  42.1730012  24.5604997   9.6949988  42.7870012  25.1934997  10.0689988
  42.6850012  24.0884997   9.0389988  42.3262296  24.5832370   9.6574252
  43.5560012  32.3084997  12.8179988  43.5510012  33.1884997  12.4399988
  42.7030012  32.2254997  13.2429988  43.4399464  32.4176117  12.8237907
  39.6770012  31.9794997   3.5999988  39.4050012  32.2084997   2.7109988
  39.7230012  32.8174997   4.0599988  39.6460094  32.1241213   3.5405697
  53.3020012  33.6014997  10.3119988  52.3610012  33.6594997  10.4739988
  53.5790012  34.5074997  10.1749988  53.2104679  33.7319443  10.3156815
  53.6030012  21.8874997  11.7299988  52.8670012  22.4984997  11.6919988
  54.2860012  22.3024997  11.2029988  53.5946541  22.0271374  11.6535832
  46.6060012  19.9744997   9.1959988  46.4890012  19.0254997   9.1409988
  45.7510012  20.3064997   9.4689988  46.4743733  19.8895409   9.2253897
  51.5540012  35.3824997   6.9379988  51.9800012  34.6754997   6.4529988
  51.8710012  36.1834997   6.5209988  51.6551019  35.3940994   6.8153130
  52.7140012  33.2834997   5.4459988  52.4560012  32.5934997   4.8349988
  52.7850012  32.8404997   6.2919988  52.6882856  33.1292124   5.4766885
  54.4000012  31.8494997  13.9239988  54.5400012  31.2584997  13.1839988
  54.5670012  32.7224997  13.5669988  54.4416778  31.8866426  13.7746965
  48.8730012  28.8114997   3.6959988  48.1610012  29.3464997   3.3439988
  49.5640012  28.8674997   3.0359988  48.8690132  28.8922543   3.5586289
  48.9260012  27.2694997   0.7349988  49.6270012  27.2914997   1.3859988
  49.2290012  26.6414997   0.0789988  49.0627830  27.1876566   0.7353711
  56.2420012  28.1894997  11.9899988  55.5890012  28.8844997  12.0789988
  56.7070012  28.3994997  11.1799988  56.2155390  28.3129425  11.8926883
  52.2780012  29.0214997   4.6479988  51.5460012  29.2494997   5.2209988
  52.7260012  28.3074997   5.1029988  52.2383095  28.9562571   4.7879119
  52.1760012  27.1954997  13.7149988  52.2560012  27.9584997  14.2869988
  51.5740012  27.4744997  13.0249988  52.1055756  27.3377134  13.7000589
  43.9240012  29.6514997   6.5299988  43.5930012  29.2814997   5.7119988
  44.5120012  28.9814997   6.8769988  43.9581873  29.5101156   6.4648102
  45.2900012  33.0794997   9.2119988  45.1960012  32.5014997   8.4549988
  46.0200012  32.7084997   9.7079988  45.3757981  32.9502390   9.1754165
  44.2900012  28.4204997  10.1639988  44.8560012  28.5414997   9.4009988
  44.6090012  29.0574997  10.8029988  44.4105786  28.5231884  10.1460040
  50.5990012  33.9234997  10.8979988  50.3590012  34.5854997  11.5459988
  50.4010012  33.0894997  11.3229988  50.5393808  33.9013134  11.0441524
  45.1700012  32.8194997  14.8809988  44.8590012  33.6014997  15.3359988
  44.5200012  32.6664997  14.1949988  45.0395558  32.9059105  14.8505871
  51.1490012  28.1834997   2.3329988  51.7290012  28.3334997   3.0799988
  51.5630012  28.6544997   1.6099988  51.2842830  28.2676841   2.3374134
  42.0900012  29.0174997  14.1099988  42.1610012  29.6684997  14.8079988
  41.2000012  29.1204997  13.7749988  41.9793117  29.1205936  14.1602700
  48.8760012  34.9204997   5.7679988  49.3500012  35.2154997   6.5459988
  48.3130012  35.6584997   5.5349988  48.8647653  35.0606932   5.8430136
  43.4100012  34.8914997  15.6439988  43.4170012  34.7554997  14.6969988
  42.4940012  34.7734997  15.8959988  43.2871714  34.8569430  15.5484666
  54.8480012  19.9334997   2.1459988  53.9480012  20.0724997   2.4409988
  55.1000012  20.7644997   1.7439988  54.7588702  20.0649074   2.1320205
  42.9140012  28.7214997   4.1199988  42.6220012  29.4894997   3.6289988
  42.2400012  28.0614997   3.9569988  42.7829081  28.7374406   4.0307340
  56.0370012  34.2994997   0.5219988  56.1110012  35.2384997   0.6929988
  56.9430012  33.9944997   0.4659988  56.1695100  34.3866722   0.5378119
  39.0070012  31.0844997  12.9349988  38.5060012  31.0564997  12.1199988
  39.0120012  30.1784997  13.2439988  38.9391526  30.9582278  12.8652872
  38.7570012  33.8644997   9.8189988  39.7030012  33.7204997   9.7999988
  38.6450012  34.6484997  10.3559988  38.8712727  33.9508046   9.8890072
  56.9550012  34.5304997  15.5009988  56.9060012  33.5754997  15.4639988
  56.1280012  34.7984997  15.9019988  56.8364940  34.4358998  15.5501375
  47.9340012  34.1044997  14.3769988  48.0210012  34.9304997  14.8519988
  47.0700012  33.7744997  14.6259988  47.8291964  34.1729878  14.4756549
  48.3480012  37.8764997   4.1829988  48.2730012  37.7554997   3.2369988
  48.3810012  38.8264997   4.3019988  48.3421848  37.9882500   4.0694834
  42.0010012  36.6654997   5.9639988  42.1540012  36.3174997   6.8429988
  41.1510012  36.3094997   5.7089988  41.9068962  36.5696650   6.0498340
  51.4500012  37.0304997   1.1849988  51.8250012  36.2864997   0.7149988
  51.4540012  36.7604997   2.1039988  51.5018915  36.8921486   1.2447824
  51.1190012  36.9564997   3.9349988  50.1830012  37.0564997   4.1129988
  51.3990012  36.2474997   4.5129988  51.0288255  36.8742711   4.0375391
  54.1070012  26.0234997  15.9809988  53.7000012  26.5044997  15.2599988
  54.1480012  25.1184997  15.6729988  54.0568437  25.9669374  15.8406683
  41.2560012  32.4074997  13.9779988  41.4720012  32.0464997  14.8369988
  40.4010012  32.0334997  13.7679988  41.1699292  32.3074111  14.0673386
  43.8750012  20.8774997   9.9729988  43.0130012  20.7904997   9.5659988
  43.8520012  21.7334997  10.4009988  43.7540330  20.9812765   9.9751863
  48.5380012  20.5994997  13.3479988  48.9580012  20.1844997  14.1009988
  47.6050012  20.4214997  13.4649988  48.4693644  20.5185900  13.4669539
  51.8640012  24.3554997  14.2009988  51.3500012  24.2294997  14.9989988
  51.7090012  25.2674997  13.9569988  51.7726852  24.4616132  14.2772158
  52.6270012  29.2164997  -0.0370012  52.6690012  28.9934997  -0.9670012
  53.4760012  29.6154997   0.1529988  52.7475396  29.2399155  -0.1386373
  48.1990012  23.0924997   0.6329988  47.9460012  23.1114997   1.5559988
  47.9430012  22.2204997   0.3319988  48.1297790  22.9772437   0.7186263
  43.9660012  25.8434997  11.0679988  43.3240012  25.8024997  11.7769988
  44.0030012  26.7694997  10.8309988  43.8831324  25.9631559  11.1329824
  43.9630012  26.0644997   5.9799988  43.0700012  25.7234997   5.9219988
  44.4130012  25.6874997   5.2249988  43.9017305  25.9668484   5.8699177
  49.4980012  26.4804997   4.7969988  49.0890012  27.2954997   4.5059988
  50.2190012  26.3404997   4.1829988  49.5394537  26.5732018   4.6741342
  48.6000012  26.6554997  16.2849988  48.0380012  25.9514997  16.6059988
  49.4270012  26.5354997  16.7529988  48.6347095  26.5427883  16.3922330
  50.5030012  25.9264997   7.6109988  50.3080012  26.5314997   6.8959988
  50.6840012  25.0924997   7.1769988  50.5007614  25.8966300   7.4544405
  41.7160012  26.1634997  12.9349988  41.6780012  26.5634997  13.8039988
  41.2250012  25.3464997  13.0259988  41.6444684  26.1078069  13.0661059
  45.0820012  23.5374997  -0.2660012  44.6510012  23.0924997   0.4639988
  44.3640012  23.9094997  -0.7780012  44.9259438  23.5268940  -0.2353201
  38.3240012  23.2794997   6.7859988  38.9550012  23.2504997   7.5049988
  38.7730012  22.8544997   6.0559988  38.4710774  23.2180492   6.7856553
  39.5980012  24.0254997   2.2099988  40.0720012  24.6164997   1.6249988
  38.8810012  24.5564997   2.5569988  39.5659341  24.1780867   2.1768836
  49.7670012  27.5644997  12.2829988  50.0900012  26.9334997  11.6399988
  49.3270012  27.0294997  12.9429988  49.7516895  27.4058441  12.2842850
  46.5440012  23.4914997   7.0669988  45.6330012  23.5484997   7.3549988
  47.0500012  23.4314997   7.8769988  46.4875413  23.4911985   7.2160622
  41.3730012  25.1204997   5.8929988  40.4830012  25.2204997   5.5529988
  41.6690012  24.2784997   5.5469988  41.2912823  25.0203545   5.7997213
  45.0260012  25.1204997   3.5499988  45.9570012  25.2494997   3.7279988
  44.8110012  25.7904997   2.8999988  45.1244247  25.2286565   3.4865747
  50.9490012  22.7264997  10.3309988  50.2730012  22.8574997  10.9949988
  50.4640012  22.5714997   9.5209988  50.7907145  22.7234905  10.3124517
  43.7000012  26.3154997   1.1169988  43.1570012  25.9354997   0.4249988
  44.5330012  26.5094997   0.6879988  43.7384399  26.2898124   0.9644526
  54.2370012  38.3984997  16.6079988  54.4370012  38.8224997  15.7729988
  54.8920012  38.7414997  17.2149988  54.3530051  38.5029648  16.5757836
  41.8350012  30.8724997  16.2159988  42.5670012  31.1264997  16.7769988
  41.0550012  31.0764997  16.7309988  41.8298232  30.9349177  16.3625760
  47.8640012  26.2794997   8.9539988  48.4290012  25.7324997   8.4069988
  47.7170012  25.7574997   9.7419988  47.9212918  26.1342024   8.9858454
  42.8660012  22.4154997   5.3719988  42.5490012  21.5134997   5.3369988
  43.6480012  22.4174997   4.8189988  42.9282284  22.2921628   5.2924783
  46.4910012  24.6674997  11.3679988  45.6550012  25.1214997  11.4779988
  47.0150012  24.9434997  12.1199988  46.4474414  24.7669376  11.4847136
  47.0350012  30.8804997   3.0519988  46.2900012  30.3734997   2.7299988
  46.9010012  30.9294997   3.9989988  46.9148776  30.8176940   3.1358647
  54.1850012  30.0134997  11.8389988  54.8270012  30.4704997  11.2949988
  53.3550012  30.1264997  11.3759988  54.1605963  30.0912704  11.7020177
  50.9330012  23.6944997   1.2519988  49.9940012  23.8064997   1.0999988
  51.2300012  24.5514997   1.5579988  50.8447666  23.8256443   1.2725768
  48.5540012  31.0644997  14.2889988  48.2090012  30.6834997  15.0959988
  48.3540012  31.9984997  14.3609988  48.4798061  31.1385228  14.4090961
  51.6510012  25.5614997   2.9119988  52.5430012  25.4244997   3.2309988
  51.7080012  26.3524997   2.3759988  51.7806285  25.6496660   2.8831691
  42.1600012  30.1754997   8.8219988  42.9050012  30.1734997   8.2209988
  42.2380012  29.3524997   9.3039988  42.2725518  30.0639315   8.8048929
  49.1610012  32.3394997   2.0779988  48.8650012  33.1654997   2.4589988
  48.4580012  31.7194997   2.2739988  49.0254914  32.3688199   2.1566443
  39.1680012  28.6364997  14.1369988  39.3910012  28.2184997  14.9689988
  38.5660012  28.0234997  13.7139988  39.1171759  28.4964668  14.1937022
  46.1840012  28.1534997  16.3499988  45.8880012  27.9874997  15.4549988
  47.1160012  27.9334997  16.3389988  46.2694166  28.1010640  16.2260536
  50.8050012  33.5264997  14.2399988  49.9040012  33.7094997  13.9719988
  50.8390012  33.7854997  15.1609988  50.6863041  33.5865512  14.3278197
  56.5360012  25.7714997   2.6069988  55.9820012  25.3754997   1.9349988
  56.6360012  26.6814997   2.3289988  56.4737059  25.8403586   2.4774401
  56.4990012  31.5714997  15.4439988  55.6480012  31.8094997  15.0769988
  57.0900012  31.5544997  14.6909988  56.4622487  31.6018258  15.2918893
  54.8310012  34.5574997   3.0719988  54.4580012  33.7314997   3.3809988
  55.1090012  34.3744997   2.1749988  54.8175630  34.4197303   2.9929626
  51.9920012  29.3654997  10.0929988  51.0630012  29.1334997  10.0659988
  52.4430012  28.5884997   9.7629988  51.9259216  29.2287238  10.0446917
  44.5350012  33.6934997   6.2259988  45.0620012  34.4664997   6.0259988
  43.6550012  33.9184997   5.9249988  44.4881773  33.8298005   6.1579010
  40.2900012  28.5554997   0.8129988  40.9060012  29.1824997   1.1929988
  39.4280012  28.8714997   1.0849988  40.2577698  28.6839430   0.9017183
  45.9620012  31.3564997   5.8029988  45.7210012  32.2814997   5.8439988
  45.2210012  30.8974997   6.1989988  45.8288409  31.4211421   5.8621377
  46.4770012  35.5054997  12.1179988  46.8390012  36.3604997  11.8839988
  47.0080012  35.2134997  12.8579988  46.5984473  35.5831060  12.1860855
  44.6450012  36.3784997   5.3479988  43.6950012  36.4834997   5.3989988
  44.9970012  37.1984997   5.6929988  44.5624203  36.5038314   5.4016650
  50.0210012  31.6044997  11.8179988  49.5950012  31.3774997  12.6449988
  50.6010012  30.8664997  11.6359988  50.0411868  31.4735299  11.9065830
  52.2240012  32.5334997   0.8919988  52.5770012  32.1534997   1.6969988
  51.2750012  32.4404997   0.9789988  52.1440441  32.4689596   1.0138559
  52.6790012  36.1564997  14.2879988  52.0780012  35.6014997  13.7919988
  52.9610012  36.8234997  13.6619988  52.6348519  36.1706841  14.1354952
  56.7270012  37.0134997   1.0929988  57.4710012  37.5994997   0.9529988
  56.0330012  37.5814997   1.4269988  56.7350292  37.1705582   1.1189961
  40.8020012  23.3894997  13.6949988  39.9090012  23.7284997  13.6269988
  40.7030012  22.5344997  14.1129988  40.6664164  23.3202588  13.7422235
  53.0900012  31.2064997   3.1189988  52.8120012  30.4784997   3.6749988
  54.0170012  31.3254997   3.3239988  53.1773124  31.1228802   3.2228845
  40.4530012  35.1944997  12.1299988  40.6700012  34.2624997  12.0989988
  40.6990012  35.4684997  13.0129988  40.5159549  35.1040636  12.2451763
  46.3150012  33.6454997  -0.6610012  46.5540012  32.8974997  -1.2080012
  46.0460012  33.2574997   0.1719988  46.3113675  33.4906638  -0.6233135
  45.2520012  33.2154997   1.7959988  45.3980012  32.6954997   2.5859988
  45.2490012  34.1224997   2.1019988  45.2715989  33.2668853   1.9456088
  41.7050012  30.4684997   2.3059988  41.0190012  30.8204997   2.8729988
  42.2270012  31.2314997   2.0589988  41.6816852  30.6198578   2.3502118
  49.5360012  23.1304997  12.5849988  50.2350012  23.2044997  13.2349988
  49.1550012  22.2664997  12.7389988  49.5801767  23.0237624  12.6948322
  50.3210012  22.7824997   3.6819988  50.5410012  23.2544997   2.8789988
  50.8790012  23.1774997   4.3519988  50.4264968  22.9004285   3.6627331
  47.9890012  34.9134997   2.5449988  47.1730012  35.4104997   2.5969988
  48.5190012  35.3884997   1.9049988  47.9489161  35.0457722   2.4655956
  47.5210012  24.5104997   4.5169988  48.3330012  25.0154997   4.5629988
  47.2760012  24.3654997   5.4309988  47.5990520  24.5600375   4.6468517
  48.0560012  25.4964997  13.7019988  48.1750012  26.0704997  14.4589988
  48.7120012  24.8084997  13.8159988  48.1609757  25.4821079  13.8210825
  48.4040012  21.5914997   5.4549988  48.0580012  22.2094997   6.0999988
  49.0630012  22.0924997   4.9739988  48.4457826  21.7435802   5.4780971
  45.3280012  35.9574997   2.5269988  45.4880012  36.7564997   2.0259988
  45.1300012  36.2634997   3.4119988  45.3231649  36.1084469   2.5779815
  44.0620012  22.6544997   2.1419988  43.9790012  23.5434997   2.4889988
  44.9520012  22.3894997   2.3739988  44.1709469  22.7401430   2.2207626
  54.2610012  23.4034997  14.5369988  53.3440012  23.6664997  14.4489988
  54.5960012  23.4004997  13.6399988  54.1809900  23.4390224  14.4037919
  52.8630012  27.1544997   8.6319988  52.0650012  26.7394997   8.3039988
  53.3080012  26.4634997   9.1229988  52.8139885  27.0043543   8.6534889
  42.3210012  33.0824997   1.2029988  42.9130012  33.7814997   1.4789988
  42.7800012  32.6494997   0.4829988  42.4641142  33.1197049   1.1434830
  40.6370012  25.7464997   0.3189988  40.5920012  26.6854997   0.4969988
  39.7490012  25.5104997   0.0489988  40.5108574  25.8431892   0.3068912
  53.9490012  36.4104997  10.2549988  53.7940012  37.0884997   9.5979988
  54.8820012  36.4824997  10.4579988  54.0538500  36.5130170  10.1925119
  41.4450012  20.5284997   8.9919988  41.2160012  20.5874997   8.0639988
  41.0020012  19.7364997   9.2979988  41.3538530  20.4295753   8.9064786
  40.3750012  34.4684997   5.1519988  39.5430012  34.9414997   5.1799988
  40.9210012  34.9784997   4.5539988  40.3349739  34.6021871   5.0749716
  39.6630012  37.0814997  16.4819988  40.2040012  36.8644997  17.2419988
  39.1820012  36.2754997  16.2929988  39.6719345  36.9429514  16.5603076
  44.2610012  36.0004997  18.1029988  45.0280012  35.5414997  18.4439988
  44.2390012  35.7744997  17.1729988  44.3631434  35.9070409  18.0240043
  48.3530012  35.5084997  -0.5220012  47.7090012  34.8774997  -0.2010012
  49.1150012  34.9774997  -0.7540012  48.3678077  35.3502920  -0.5093989
  50.8380012  34.3804997  16.8319988  50.4870012  33.5244997  17.0749988
  51.5640012  34.5234997  17.4389988  50.8880769  34.2825636  16.9473619
  52.9570012  35.3254997  -0.2880012  53.2400012  34.5314997   0.1639988
  53.6970012  35.5584997  -0.8490012  53.0957486  35.2482803  -0.3019302
  39.5700012  30.8914997  17.4369988  39.7140012  29.9894997  17.1499988
  38.7980012  31.1774997  16.9489988  39.4853322  30.8068261  17.3317881
  43.9120012  31.2354997  -0.4310012  43.9760012  30.4414997   0.0999988
  44.5650012  31.1164997  -1.1210012  44.0090241  31.1107148  -0.4515683
  46.2260012  30.8614997  16.8689988  45.8970012  31.1324997  16.0119988
  46.3780012  29.9204997  16.7819988  46.2014809  30.7713862  16.7398244
  49.2640012  32.2824997  -0.6950012  48.9950012  32.4624997   0.2059988
  49.0580012  31.3564997  -0.8260012  49.1993825  32.1820152  -0.5894786
  51.9600012  30.7774997  14.2529988  52.7060012  31.3654997  14.1329988
  51.2030012  31.3594997  14.3159988  51.9597554  30.9367011  14.2450907
  40.4030012  28.0914997  16.8569988  40.8110012  27.2344997  16.7359988
  40.1430012  28.1064997  17.7779988  40.4237568  27.9760807  16.9649588
  45.0610012  29.2074997   1.8749988  44.6010012  28.7234997   2.5609988
  45.3160012  28.5394997   1.2389988  45.0324902  29.0508731   1.8829334
  44.3500012  27.1004997  14.2309988  43.7320012  27.7754997  14.5109988
  44.6940012  27.4214997  13.3979988  44.3119615  27.2362721  14.1566581
  46.1320012  27.4504997   0.1369988  45.9520012  27.2964997  -0.7900012
  47.0820012  27.5584997   0.1819988  46.2357776  27.4440175   0.0161843
  49.3700012  29.5724997  17.5079988  50.3230012  29.6554997  17.4809988
  49.2090012  28.8604997  18.1279988  49.4786426  29.4876746  17.5880579
  55.5220012  29.8054997  -0.4170012  55.2480012  29.3804997  -1.2300012
  55.5610012  30.7364997  -0.6340012  55.4897699  29.8732484  -0.5576390
  44.6890012  24.4554997  15.3129988  44.8390012  23.7264997  14.7109988
  44.6920012  25.2324997  14.7539988  44.7099302  24.4607851  15.1550692
  45.1020012  22.8254997  12.8059988  45.6380012  23.2764997  12.1539988
  44.2500012  22.7174997  12.3829988  45.0602178  22.8726390  12.6595756
  46.6840012  28.2644997  13.0449988  47.4340012  28.1084997  12.4719988
  46.3450012  29.1164997  12.7699988  46.7408921  28.3582968  12.9293561
  51.0990012  26.0794997  18.0739988  51.2920012  25.1484997  17.9619988
  51.9570012  26.5044997  18.0639988  51.2413020  26.0096389  18.0573361
  52.4160012  28.8684997  16.1509988  52.1350012  29.5774997  15.5739988
  53.3590012  28.7954997  15.9999988  52.5049027  28.9557646  16.0515551
  43.1680012  25.6534997  17.2249988  42.4010012  25.1214997  17.0149988
  43.8470012  25.3434997  16.6249988  43.1547022  25.5387506  17.1151648
  45.9080012  20.2814997  13.2369988  45.8090012  21.2284997  13.1319988
  45.1650012  19.9094997  12.7619988  45.7940564  20.3605902  13.1584560
  47.1720012  24.6034997  16.8009988  46.9360012  24.3834997  17.7029988
  46.3880012  24.3964997  16.2909988  47.0338628  24.5454760  16.8553932
  49.8870012  23.7304997  15.8769988  48.9400012  23.7624997  16.0089988
  50.2000012  23.1054997  16.5299988  49.7995475  23.6503207  15.9834455
  51.5210012  22.3644997  17.8819988  51.4250012  21.4124997  17.8759988
  51.2000012  22.6334997  18.7419988  51.4644070  22.2704035  17.9975441
  41.3480012  23.5744997  16.9289988  41.5600012  22.8674997  16.3189988
  41.2370012  23.1364997  17.7729988  41.3619721  23.4187084  16.9596843
  46.1290012  19.5754997  15.9089988  46.8410012  18.9354997  15.8949988
  46.0280012  19.8424997  14.9949988  46.2127939  19.5239938  15.7835650
  46.4830012  21.2584997  17.9619988  46.3510012  20.7824997  17.1419988
  45.8840012  22.0024997  17.9069988  46.3839071  21.2939618  17.8422886
  46.0290012  38.1414997   1.1389988  46.9620012  38.2994997   1.2819988
  45.7650012  38.8164997   0.5139988  46.1209510  38.2543611   1.0740741
  39.5980012  32.7774997   0.6209988  40.5120012  32.8564997   0.8949988
  39.6050012  32.0904997  -0.0450012  39.7241131  32.6953961   0.5684393
  38.2470012  38.1704997   5.6989988  37.6000012  37.7084997   5.1659988
  38.6010012  37.4984997   6.2809988  38.2063849  38.0164723   5.7047959
  39.1170012  36.2514997   7.5029988  38.7820012  35.3714997   7.6749988
  39.3390012  36.5964997   8.3679988  39.1011783  36.1777500   7.6434208
  56.6650012  37.0604997  10.4839988  56.6440012  37.2454997  11.4229988
  57.3560012  37.6294997  10.1429988  56.7554618  37.1626606  10.5663864
  56.2290012  36.6284997  13.4059988  55.7410012  35.8924997  13.0349988
  56.7780012  36.2344997  14.0839988  56.2364872  36.4746249  13.4469160
  54.6790012  32.4174997  18.0439988  53.8130012  32.3124997  18.4379988
  55.0560012  33.1764997  18.4899988  54.6113308  32.5056900  18.1582393
  55.9800012  30.6744997   3.5579988  56.8300012  31.0954997   3.6849988
  55.9860012  29.9344997   4.1649988  56.0971372  30.6320803   3.6574344
  56.3750012  28.7274997   5.3819988  55.6480012  28.2484997   5.7789988
  56.9560012  28.9334997   6.1139988  56.3539375  28.6897090   5.5354129
  56.1340012  31.5124997  10.3289988  56.9670012  31.1344997  10.0489988
  56.2460012  32.4554997  10.2099988  56.2632647  31.5882218  10.2745487
  54.6200012  34.3904997  12.6359988  53.9730012  34.7154997  13.2619988
  54.1030012  33.9504997  11.9619988  54.4614029  34.3755004  12.6305827
  56.6430012  28.6284997   1.7729988  56.1210012  28.9854997   1.0539988
  56.6100012  29.3034997   2.4509988  56.5671634  28.7685413   1.7663145
  54.9920012  25.8684997   0.3239988  55.0880012  26.5354997  -0.3570012
  54.8520012  25.0524997  -0.1580012  54.9862135  25.8494500   0.1658491
  54.1610012  27.2484997   5.9449988  54.0110012  26.3034997   5.9239988
  53.8080012  27.5294997   6.7879988  54.0926625  27.1570441   6.0562346
  39.1970012  29.3264997   9.9549988  39.3810012  29.2444997   9.0189988
  40.0460012  29.2024997  10.3789988  39.3370139  29.2985003   9.8841455
  55.0180012  29.2184997  15.5829988  55.6010012  28.4844997  15.7749988
  55.5820012  29.9904997  15.6299988  55.1739769  29.2224227  15.6156159
  56.5140012  27.1214997  16.2679988  55.6510012  26.7424997  16.1019988
  57.1190012  26.3824997  16.1939988  56.4775979  26.9698023  16.2352817
  54.2390012  23.2764997  -0.5590012  54.8500012  22.9054997   0.0779988
  53.4030012  22.8554997  -0.3630012  54.2095032  23.1687554  -0.4452965
  53.8720012  24.8314997   4.4069988  54.1520012  23.9244997   4.5309988
  54.6310012  25.2654997   4.0179988  54.0129277  24.7660942   4.3713682
  54.4840012  25.4124997   9.8429988  55.4170012  25.6244997   9.8089988
  54.2490012  25.5144997  10.7649988  54.5798036  25.4552769   9.9629976
  54.5130012  26.1494997  12.6189988  53.6700012  26.4174997  12.9849988
  54.9550012  26.9714997  12.4079988  54.4574158  26.2973291  12.6405491
  38.7940012  24.5974997  16.0959988  39.7140012  24.4754997  16.3319988
  38.3450012  23.8474997  16.4849988  38.8591580  24.4793727  16.1809006
  56.7960012  20.1294997  17.9719988  57.1460012  19.4754997  17.3669988
  56.9430012  20.9664997  17.5329988  56.8638419  20.1531591  17.8297118
  54.4850012  22.0944997   4.4549988  54.6680012  21.6454997   5.2809988
  53.8860012  21.5094997   3.9919988  54.4290202  21.9539975   4.5053275
  40.0150012  22.9094997   8.9869988  40.4610012  22.1174997   9.2889988
  40.4820012  23.6254997   9.4179988  40.1390172  22.8980624   9.0864820
  38.3190012  25.9084997  10.0559988  38.8110012  25.6874997   9.2649988
  38.6820012  26.7494997  10.3369988  38.4353126  25.9918357   9.9857531
  56.3160012  22.2384997  16.3219988  55.3980012  22.5094997  16.2859988
  56.4390012  21.7034997  15.5369988  56.2071066  22.2032892  16.2110487
  56.3520012  22.1614997   0.9829988  56.7640012  21.4404997   0.5079988
  57.0340012  22.8314997   1.0419988  56.5005885  22.1532368   0.9258915
  38.6330012  22.1664997   4.1099988  37.7080012  22.3754997   3.9809988
  39.0870012  22.6504997   3.4209988  38.5677368  22.2605994   3.9991226
  53.4040012  37.1504997   6.0559988  54.0560012  36.8034997   5.4479988
  53.9140012  37.6394997   6.7019988  53.5622637  37.1690597   6.0600236
  38.5970012  20.9044997  12.4549988  37.9320012  20.6584997  13.0979988
  38.1540012  21.5264997  11.8769988  38.4460956  20.9548632  12.4649352
  40.7890012  34.0794997  16.5989988  39.9680012  34.2544997  16.1389988
  40.5360012  34.0064997  17.5199988  40.6426164  34.0935622  16.6604923
  43.7430012  35.0544997  12.8579988  43.3180012  35.8634997  12.5749988
  44.6470012  35.1394997  12.5559988  43.8070271  35.1768469  12.7783776
  48.0540012  36.4534997  15.8169988  48.2390012  36.1194997  16.6949988
  48.9000012  36.7624997  15.4949988  48.1937539  36.4496047  15.8935605
  50.3990012  37.7394997  15.0609988  51.0760012  37.1064997  14.8209988
  50.7210012  38.1404997  15.8679988  50.5351637  37.7071154  15.1372793
  55.3160012  20.3284997  14.1409988  54.5040012  20.6534997  13.7529988
  55.5490012  19.5684997  13.6079988  55.2363423  20.2702436  14.0158253
  41.1450012  38.3104997  12.9049988  40.4240012  38.7504997  12.4539988
  40.7790012  38.0594997  13.7539988  40.9969804  38.3367698  12.9579840
  43.6120012  37.9104997  11.9349988  42.7470012  37.9824997  12.3389988
  43.5570012  38.4574997  11.1509988  43.4862085  37.9942685  11.8843362
  48.3220012  37.7984997  11.1099988  47.8660012  38.3274997  10.4559988
  48.4850012  38.4014997  11.8359988  48.2815585  37.9524468  11.1185062
  50.6500012  36.6764997  12.0549988  49.7450012  36.8414997  11.7899988
  51.0790012  37.5294997  11.9899988  50.5840799  36.8144483  12.0099182
  53.2540012  38.2464997  12.3499988  53.0720012  39.1624997  12.1399988
  53.4310012  37.8364997  11.5039988  53.2530210  38.3164822  12.2067885
  40.5590012  36.9334997   9.8149988  40.5410012  36.5084997  10.6729988
  41.3640012  36.6154997   9.4069988  40.6653875  36.8323812   9.8771655
  42.7010012  35.6434997   8.4699988  42.4820012  34.7274997   8.6399988
  43.5250012  35.7834997   8.9359988  42.7824420  35.5370520   8.5562774
  45.2380012  36.1134997   9.3189988  45.4510012  35.2254997   9.0319988
  45.3020012  36.0794997  10.2729988  45.2758232  35.9873102   9.4087397
  48.7460012  21.7774997   8.4629988  48.0720012  21.1484997   8.7189988
  49.3100012  21.2934997   7.8599988  48.7299230  21.6258744   8.4165340
  53.8890012  19.8854997   8.5759988  54.4930012  20.4324997   8.0739988
  53.0190012  20.2044997   8.3359988  53.8541241  20.0035806   8.4747654
  55.6160012  21.0234997   6.9089988  56.2280012  20.5094997   6.3829988
  55.9980012  21.9014997   6.9329988  55.7514540  21.0717140   6.8401830
  41.0730012  20.4114997   6.2849988  40.2960012  20.1774997   5.7779988
  41.6030012  19.6144997   6.2939988  41.0382330  20.2716988   6.2167742
  39.9090012  20.2094997   2.0889988  40.3480012  20.8204997   1.4969988
  39.2760012  20.7474997   2.5629988  39.8834514  20.3659257   2.0720930
  45.6520012  20.3384997   6.0989988  46.5270012  20.7264997   6.0689988
  45.5160012  20.1234997   7.0209988  45.7533695  20.3625184   6.2196440
  51.2090012  20.3684997   7.7479988  51.2850012  20.4634997   6.7979988
  50.9340012  19.4604997   7.8769988  51.1822321  20.2587867   7.6355079
  52.5620012  20.3944997   3.4399988  51.8600012  21.0094997   3.2309988
  52.1180012  19.5564997   3.5709988  52.4056330  20.3655783   3.4290328
  39.8100012  36.1574997   2.9869988  39.1250012  36.1194997   2.3189988
  39.8140012  37.0704997   3.2749988  39.7168193  36.2757016   2.9345284
  41.7700012  22.1254997   0.5309988  42.2620012  21.4954997   0.0039988
  42.3940012  22.4214997   1.1949988  41.9215446  22.0793199   0.5485980
  46.7960012  22.4184997   2.9879988  46.9740012  21.7724997   3.6709988
  46.7430012  23.2524997   3.4559988  46.8131829  22.4427985   3.1445940
  48.6750012  37.3674997   1.3839988  49.5410012  37.7334997   1.2059988
  48.4280012  36.9274997   0.5699988  48.7602392  37.3581756   1.2496289
  55.3840012  36.9304997   4.0629988  55.1890012  36.1824997   3.4979988
  55.3450012  37.6884997   3.4799988  55.3520380  36.9306099   3.9068384
  41.0310012  20.9254997  15.8029988  40.6650012  20.1604997  16.2459988
  41.9440012  20.9544997  16.0899988  41.1042790  20.8247224  15.9024070
  43.0040012  20.2764997  17.3389988  43.9020012  20.0024997  17.1539988
  42.6170012  19.5334997  17.8029988  43.0746612  20.1385914  17.3763643
  41.6280012  37.0774997   0.0119988  41.3610012  37.3644997   0.8849988
  42.4000012  36.5314997   0.1639988  41.6957488  37.0430294   0.1521050
  51.4250012  19.6084997  17.5209988  51.5020012  19.1824997  18.3749988
  52.3190012  19.6224997  17.1779988  51.5563428  19.5520879  17.5915310
  54.6010012  35.6814997  16.2129988  53.8190012  35.4954997  15.6939988
  54.5290012  36.6104997  16.4309988  54.4841777  35.7816492  16.1714048
  69.0070012  29.5674997   6.2439988  69.0960012  30.5114997   6.1119988
  68.3690012  29.2924997   5.5859988  68.9329081  29.6594830   6.1369614
  67.9400012  28.8224997   9.6629988  67.9020012  28.1764997  10.3679988
  67.6180012  28.3564997   8.8919988  67.8912333  28.6709408   9.6552978
  60.3090012  28.4374997  11.2559988  60.3500012  27.8114997  11.9789988
  61.0120012  29.0614997  11.4379988  60.4096363  28.4361196  11.3796044
  71.6460012  31.7614997   7.9639988  71.2060012  31.0414997   8.4149988
  71.6330012  32.4824997   8.5939988  71.5840226  31.7603731   8.1108494
  61.2320012  32.8874997   9.7909988  60.8630012  32.0854997   9.4209988
  62.1730012  32.7184997   9.8369988  61.3087289  32.7550153   9.7466316
  57.8420012  26.5474997   5.1839988  57.3950012  27.3934997   5.1649988
  57.2810012  25.9674997   4.6679988  57.7049900  26.5849916   5.1116801
  58.5530012  28.7094997   7.3099988  58.7660012  27.9394997   7.8369988
  59.2910012  28.7984997   6.7059988  58.6818496  28.6161394   7.3005300
  68.7580012  36.8664997   8.1769988  69.3780012  36.1894997   7.9029988
  68.5500012  36.6484997   9.0849988  68.8146904  36.7443870   8.2623365
  66.3300012  31.2554997  10.0689988  66.6340012  30.5694997   9.4739988
  67.0510012  31.3734997  10.6869988  66.4690671  31.1776305  10.0711816
  74.9930012  22.8564997  10.9299988  75.0420012  23.4664997  11.6659988
  75.4180012  23.3174997  10.2069988  75.0571824  23.0023741  10.9330205
  69.4710012  25.6494997  10.3969988  69.6130012  24.7034997  10.4169988
  69.3640012  25.8564997   9.4679988  69.4759863  25.5479534  10.2742339
  62.6250012  23.7504997   7.6689988  62.6690012  24.6104997   7.2509988
  62.1680012  23.1984997   7.0349988  62.5692185  23.7935799   7.5260299
  70.3480012  23.8814997   6.0699988  70.9940012  23.5524997   6.6949988
  70.8580012  24.3994997   5.4469988  70.5054264  23.9064611   6.0713862
  59.2460012  26.1474997   8.4309988  59.8990012  25.5974997   8.8629988
  59.2700012  25.8734997   7.5139988  59.3386683  26.0351466   8.3662123
  64.4020012  27.6974997   7.6459988  65.0180012  27.1714997   8.1559988
  63.8160012  27.0574997   7.2429988  64.4070810  27.5389208   7.6613173
  75.3840012  24.3344997  13.1659988  74.6960012  24.9924997  13.0699988
  75.4000012  24.1374997  14.1019988  75.2918525  24.3980462  13.2794808
  61.4360012  22.6684997  11.7429988  61.2170012  23.1984997  10.9769988
  60.7680012  22.8954997  12.3899988  61.3157600  22.7716906  11.7256379
  68.8050012  32.1684997   5.2869988  68.5090012  31.8464997   4.4359988
  68.4800012  33.0684997   5.3279988  68.7206371  32.2460215   5.1761801
  64.0050012  30.3444997  12.0299988  63.2650012  30.9424997  12.1339988
  64.7190012  30.8984997  11.7149988  64.0002237  30.5012831  12.0016465
  72.1120012  23.1724997   8.0499988  71.8960012  22.4064997   8.5829988
  72.7670012  23.6444997   8.5629988  72.1710632  23.1315889   8.1922861
  61.0290012  24.5604997   9.6949988  61.6430012  25.1934997  10.0689988
  61.5410012  24.0884997   9.0389988  61.1822296  24.5832370   9.6574252
  62.4120012  32.3084997  12.8179988  62.4070012  33.1884997  12.4399988
  61.5590012  32.2254997  13.2429988  62.2959464  32.4176117  12.8237907
  58.5330012  31.9794997   3.5999988  58.2610012  32.2084997   2.7109988
  58.5790012  32.8174997   4.0599988  58.5020094  32.1241213   3.5405697
  72.1580012  33.6014997  10.3119988  71.2170012  33.6594997  10.4739988
  72.4350012  34.5074997  10.1749988  72.0664679  33.7319443  10.3156815
  72.4590012  21.8874997  11.7299988  71.7230012  22.4984997  11.6919988
  73.1420012  22.3024997  11.2029988  72.4506541  22.0271374  11.6535832
  65.4620012  19.9744997   9.1959988  65.3450012  19.0254997   9.1409988
  64.6070012  20.3064997   9.4689988  65.3303733  19.8895409   9.2253897
  70.4100012  35.3824997   6.9379988  70.8360012  34.6754997   6.4529988
  70.7270012  36.1834997   6.5209988  70.5111019  35.3940994   6.8153130
  71.5700012  33.2834997   5.4459988  71.3120012  32.5934997   4.8349988
  71.6410012  32.8404997   6.2919988  71.5442856  33.1292124   5.4766885
  73.2560012  31.8494997  13.9239988  73.3960012  31.2584997  13.1839988
  73.4230012  32.7224997  13.5669988  73.2976778  31.8866426  13.7746965
  67.7290012  28.8114997   3.6959988  67.0170012  29.3464997   3.3439988
  68.4200012  28.8674997   3.0359988  67.7250132  28.8922543   3.5586289
  67.7820012  27.2694997   0.7349988  68.4830012  27.2914997   1.3859988
  68.0850012  26.6414997   0.0789988  67.9187830  27.1876566   0.7353711
  75.0980012  28.1894997  11.9899988  74.4450012  28.8844997  12.0789988
  75.5630012  28.3994997  11.1799988  75.0715390  28.3129425  11.8926883
  71.1340012  29.0214997   4.6479988  70.4020012  29.2494997   5.2209988
  71.5820012  28.3074997   5.1029988  71.0943095  28.9562571   4.7879119
  71.0320012  27.1954997  13.7149988  71.1120012  27.9584997  14.2869988
  70.4300012  27.4744997  13.0249988  70.9615756  27.3377134  13.7000589
  62.7800012  29.6514997   6.5299988  62.4490012  29.2814997   5.7119988
  63.3680012  28.9814997   6.8769988  62.8141873  29.5101156   6.4648102
  64.1460012  33.0794997   9.2119988  64.0520012  32.5014997   8.4549988
  64.8760012  32.7084997   9.7079988  64.2317981  32.9502390   9.1754165
  63.1460012  28.4204997  10.1639988  63.7120012  28.5414997   9.4009988
  63.4650012  29.0574997  10.8029988  63.2665786  28.5231884  10.1460040
  69.4550012  33.9234997  10.8979988  69.2150012  34.5854997  11.5459988
  69.2570012  33.0894997  11.3229988  69.3953808  33.9013134  11.0441524
  64.0260012  32.8194997  14.8809988  63.7150012  33.6014997  15.3359988
  63.3760012  32.6664997  14.1949988  63.8955558  32.9059105  14.8505871
  70.0050012  28.1834997   2.3329988  70.5850012  28.3334997   3.0799988
  70.4190012  28.6544997   1.6099988  70.1402830  28.2676841   2.3374134
  60.9460012  29.0174997  14.1099988  61.0170012  29.6684997  14.8079988
  60.0560012  29.1204997  13.7749988  60.8353117  29.1205936  14.1602700
  67.7320012  34.9204997   5.7679988  68.2060012  35.2154997   6.5459988
  67.1690012  35.6584997   5.5349988  67.7207653  35.0606932   5.8430136
  62.2660012  34.8914997  15.6439988  62.2730012  34.7554997  14.6969988
  61.3500012  34.7734997  15.8959988  62.1431714  34.8569430  15.5484666
  73.7040012  19.9334997   2.1459988  72.8040012  20.0724997   2.4409988
  73.9560012  20.7644997   1.7439988  73.6148702  20.0649074   2.1320205
  61.7700012  28.7214997   4.1199988  61.4780012  29.4894997   3.6289988
  61.0960012  28.0614997   3.9569988  61.6389081  28.7374406   4.0307340
  74.8930012  34.2994997   0.5219988  74.9670012  35.2384997   0.6929988
  75.7990012  33.9944997   0.4659988  75.0255100  34.3866722   0.5378119
  57.8630012  31.0844997  12.9349988  57.3620012  31.0564997  12.1199988
  57.8680012  30.1784997  13.2439988  57.7951526  30.9582278  12.8652872
  57.6130012  33.8644997   9.8189988  58.5590012  33.7204997   9.7999988
  57.5010012  34.6484997  10.3559988  57.7272727  33.9508046   9.8890072
  75.8110012  34.5304997  15.5009988  75.7620012  33.5754997  15.4639988
  74.9840012  34.7984997  15.9019988  75.6924940  34.4358998  15.5501375
  66.7900012  34.1044997  14.3769988  66.8770012  34.9304997  14.8519988
  65.9260012  33.7744997  14.6259988  66.6851964  34.1729878  14.4756549
  67.2040012  37.8764997   4.1829988  67.1290012  37.7554997   3.2369988
  67.2370012  38.8264997   4.3019988  67.1981848  37.9882500   4.0694834
  60.8570012  36.6654997   5.9639988  61.0100012  36.3174997   6.8429988
  60.0070012  36.3094997   5.7089988  60.7628962  36.5696650   6.0498340
  70.3060012  37.0304997   1.1849988  70.6810012  36.2864997   0.7149988
  70.3100012  36.7604997   2.1039988  70.3578915  36.8921486   1.2447824
  69.9750012  36.9564997   3.9349988  69.0390012  37.0564997   4.1129988
  70.2550012  36.2474997   4.5129988  69.8848255  36.8742711   4.0375391
  72.9630012  26.0234997  15.9809988  72.5560012  26.5044997  15.2599988
  73.0040012  25.1184997  15.6729988  72.9128437  25.9669374  15.8406683
  60.1120012  32.4074997  13.9779988  60.3280012  32.0464997  14.8369988
  59.2570012  32.0334997  13.7679988  60.0259292  32.3074111  14.0673386
  62.7310012  20.8774997   9.9729988  61.8690012  20.7904997   9.5659988
  62.7080012  21.7334997  10.4009988  62.6100330  20.9812765   9.9751863
  67.3940012  20.5994997  13.3479988  67.8140012  20.1844997  14.1009988
  66.4610012  20.4214997  13.4649988  67.3253644  20.5185900  13.4669539
  70.7200012  24.3554997  14.2009988  70.2060012  24.2294997  14.9989988
  70.5650012  25.2674997  13.9569988  70.6286852  24.4616132  14.2772158
  71.4830012  29.2164997  -0.0370012  71.5250012  28.9934997  -0.9670012
  72.3320012  29.6154997   0.1529988  71.6035396  29.2399155  -0.1386373
  67.0550012  23.0924997   0.6329988  66.8020012  23.1114997   1.5559988
  66.7990012  22.2204997   0.3319988  66.9857790  22.9772437   0.7186263
  62.8220012  25.8434997  11.0679988  62.1800012  25.8024997  11.7769988
  62.8590012  26.7694997  10.8309988  62.7391324  25.9631559  11.1329824
  62.8190012  26.0644997   5.9799988  61.9260012  25.7234997   5.9219988
  63.2690012  25.6874997   5.2249988  62.7577305  25.9668484   5.8699177
  68.3540012  26.4804997   4.7969988  67.9450012  27.2954997   4.5059988
  69.0750012  26.3404997   4.1829988  68.3954537  26.5732018   4.6741342
  67.4560012  26.6554997  16.2849988  66.8940012  25.9514997  16.6059988
  68.2830012  26.5354997  16.7529988  67.4907095  26.5427883  16.3922330
  69.3590012  25.9264997   7.6109988  69.1640012  26.5314997   6.8959988
  69.5400012  25.0924997   7.1769988  69.3567614  25.8966300   7.4544405
  60.5720012  26.1634997  12.9349988  60.5340012  26.5634997  13.8039988
  60.0810012  25.3464997  13.0259988  60.5004684  26.1078069  13.0661059
  63.9380012  23.5374997  -0.2660012  63.5070012  23.0924997   0.4639988
  63.2200012  23.9094997  -0.7780012  63.7819438  23.5268940  -0.2353201
  57.1800012  23.2794997   6.7859988  57.8110012  23.2504997   7.5049988
  57.6290012  22.8544997   6.0559988  57.3270774  23.2180492   6.7856553
  58.4540012  24.0254997   2.2099988  58.9280012  24.6164997   1.6249988
  57.7370012  24.5564997   2.5569988  58.4219341  24.1780867   2.1768836
  68.6230012  27.5644997  12.2829988  68.9460012  26.9334997  11.6399988
  68.1830012  27.0294997  12.9429988  68.6076895  27.4058440  12.2842850
  65.4000012  23.4914997   7.0669988  64.4890012  23.5484997   7.3549988
  65.9060012  23.4314997   7.8769988  65.3435413  23.4911985   7.2160622
  60.2290012  25.1204997   5.8929988  59.3390012  25.2204997   5.5529988
  60.5250012  24.2784997   5.5469988  60.1472823  25.0203545   5.7997213
  63.8820012  25.1204997   3.5499988  64.8130012  25.2494997   3.7279988
  63.6670012  25.7904997   2.8999988  63.9804247  25.2286565   3.4865747
  69.8050012  22.7264997  10.3309988  69.1290012  22.8574997  10.9949988
  69.3200012  22.5714997   9.5209988  69.6467145  22.7234905  10.3124517
  62.5560012  26.3154997   1.1169988  62.0130012  25.9354997   0.4249988
  63.3890012  26.5094997   0.6879988  62.5944399  26.2898124   0.9644526
  73.0930012  38.3984997  16.6079988  73.2930012  38.8224997  15.7729988
  73.7480012  38.7414997  17.2149988  73.2090051  38.5029648  16.5757836
  60.6910012  30.8724997  16.2159988  61.4230012  31.1264997  16.7769988
  59.9110012  31.0764997  16.7309988  60.6858232  30.9349177  16.3625760
  66.7200012  26.2794997   8.9539988  67.2850012  25.7324997   8.4069988
  66.5730012  25.7574997   9.7419988  66.7772918  26.1342024   8.9858454
  61.7220012  22.4154997   5.3719988  61.4050012  21.5134997   5.3369988
  62.5040012  22.4174997   4.8189988  61.7842284  22.2921628   5.2924783
  65.3470012  24.6674997  11.3679988  64.5110012  25.1214997  11.4779988
  65.8710012  24.9434997  12.1199988  65.3034414  24.7669376  11.4847136
  65.8910012  30.8804997   3.0519988  65.1460012  30.3734997   2.7299988
  65.7570012  30.9294997   3.9989988  65.7708776  30.8176940   3.1358647
  73.0410012  30.0134997  11.8389988  73.6830012  30.4704997  11.2949988
  72.2110012  30.1264997  11.3759988  73.0165963  30.0912704  11.7020177
  69.7890012  23.6944997   1.2519988  68.8500012  23.8064997   1.0999988
  70.0860012  24.5514997   1.5579988  69.7007666  23.8256443   1.2725768
  67.4100012  31.0644997  14.2889988  67.0650012  30.6834997  15.0959988
  67.2100012  31.9984997  14.3609988  67.3358061  31.1385228  14.4090961
  70.5070012  25.5614997   2.9119988  71.3990012  25.4244997   3.2309988
  70.5640012  26.3524997   2.3759988  70.6366285  25.6496660   2.8831691
  61.0160012  30.1754997   8.8219988  61.7610012  30.1734997   8.2209988
  61.0940012  29.3524997   9.3039988  61.1285518  30.0639315   8.8048929
  68.0170012  32.3394997   2.0779988  67.7210012  33.1654997   2.4589988
  67.3140012  31.7194997   2.2739988  67.8814914  32.3688199   2.1566443
  58.0240012  28.6364997  14.1369988  58.2470012  28.2184997  14.9689988
  57.4220012  28.0234997  13.7139988  57.9731759  28.4964668  14.1937022
  65.0400012  28.1534997  16.3499988  64.7440012  27.9874997  15.4549988
  65.9720012  27.9334997  16.3389988  65.1254166  28.1010640  16.2260536
  69.6610012  33.5264997  14.2399988  68.7600012  33.7094997  13.9719988
  69.6950012  33.7854997  15.1609988  69.5423041  33.5865512  14.3278197
  75.3920012  25.7714997   2.6069988  74.8380012  25.3754997   1.9349988
  75.4920012  26.6814997   2.3289988  75.3297059  25.8403586   2.4774401
  75.3550012  31.5714997  15.4439988  74.5040012  31.8094997  15.0769988
  75.9460012  31.5544997  14.6909988  75.3182487  31.6018258  15.2918893
  73.6870012  34.5574997   3.0719988  73.3140012  33.7314997   3.3809988
  73.9650012  34.3744997   2.1749988  73.6735630  34.4197303   2.9929626
  70.8480012  29.3654997  10.0929988  69.9190012  29.1334997  10.0659988
  71.2990012  28.5884997   9.7629988  70.7819216  29.2287238  10.0446917
  63.3910012  33.6934997   6.2259988  63.9180012  34.4664997   6.0259988
  62.5110012  33.9184997   5.9249988  63.3441773  33.8298005   6.1579010
  59.1460012  28.5554997   0.8129988  59.7620012  29.1824997   1.1929988
  58.2840012  28.8714997   1.0849988  59.1137698  28.6839430   0.9017183
  64.8180012  31.3564997   5.8029988  64.5770012  32.2814997   5.8439988
  64.0770012  30.8974997   6.1989988  64.6848409  31.4211421   5.8621377
  65.3330012  35.5054997  12.1179988  65.6950012  36.3604997  11.8839988
  65.8640012  35.2134997  12.8579988  65.4544473  35.5831060  12.1860855
  63.5010012  36.3784997   5.3479988  62.5510012  36.4834997   5.3989988
  63.8530012  37.1984997   5.6929988  63.4184203  36.5038314   5.4016650
  68.8770012  31.6044997  11.8179988  68.4510012  31.3774997  12.6449988
  69.4570012  30.8664997  11.6359988  68.8971868  31.4735299  11.9065830
  71.0800012  32.5334997   0.8919988  71.4330012  32.1534997   1.6969988
  70.1310012  32.4404997   0.9789988  71.0000441  32.4689596   1.0138559
  71.5350012  36.1564997  14.2879988  70.9340012  35.6014997  13.7919988
  71.8170012  36.8234997  13.6619988  71.4908519  36.1706841  14.1354952
  75.5830012  37.0134997   1.0929988  76.3270012  37.5994997   0.9529988
  74.8890012  37.5814997   1.4269988  75.5910292  37.1705582   1.1189961
  59.6580012  23.3894997  13.6949988  58.7650012  23.7284997  13.6269988
  59.5590012  22.5344997  14.1129988  59.5224164  23.3202588  13.7422235
  71.9460012  31.2064997   3.1189988  71.6680012  30.4784997   3.6749988
  72.8730012  31.3254997   3.3239988  72.0333124  31.1228802   3.2228845
  59.3090012  35.1944997  12.1299988  59.5260012  34.2624997  12.0989988
  59.5550012  35.4684997  13.0129988  59.3719549  35.1040636  12.2451763
  65.1710012  33.6454997  -0.6610012  65.4100012  32.8974997  -1.2080012
  64.9020012  33.2574997   0.1719988  65.1673675  33.4906638  -0.6233135
  64.1080012  33.2154997   1.7959988  64.2540012  32.6954997   2.5859988
  64.1050012  34.1224997   2.1019988  64.1275989  33.2668853   1.9456088
  60.5610012  30.4684997   2.3059988  59.8750012  30.8204997   2.8729988
  61.0830012  31.2314997   2.0589988  60.5376852  30.6198578   2.3502118
  68.3920012  23.1304997  12.5849988  69.0910012  23.2044997  13.2349988
  68.0110012  22.2664997  12.7389988  68.4361767  23.0237624  12.6948322
  69.1770012  22.7824997   3.6819988  69.3970012  23.2544997   2.8789988
  69.7350012  23.1774997   4.3519988  69.2824968  22.9004285   3.6627331
  66.8450012  34.9134997   2.5449988  66.0290012  35.4104997   2.5969988
  67.3750012  35.3884997   1.9049988  66.8049161  35.0457722   2.4655956
  66.3770012  24.5104997   4.5169988  67.1890012  25.0154997   4.5629988
  66.1320012  24.3654997   5.4309988  66.4550520  24.5600375   4.6468517
  66.9120012  25.4964997  13.7019988  67.0310012  26.0704997  14.4589988
  67.5680012  24.8084997  13.8159988  67.0169757  25.4821079  13.8210825
  67.2600012  21.5914997   5.4549988  66.9140012  22.2094997   6.0999988
  67.9190012  22.0924997   4.9739988  67.3017826  21.7435802   5.4780971
  64.1840012  35.9574997   2.5269988  64.3440012  36.7564997   2.0259988
  63.9860012  36.2634997   3.4119988  64.1791649  36.1084469   2.5779815
  62.9180012  22.6544997   2.1419988  62.8350012  23.5434997   2.4889988
  63.8080012  22.3894997   2.3739988  63.0269469  22.7401430   2.2207626
  73.1170012  23.4034997  14.5369988  72.2000012  23.6664997  14.4489988
  73.4520012  23.4004997  13.6399988  73.0369900  23.4390224  14.4037919
  71.7190012  27.1544997   8.6319988  70.9210012  26.7394997   8.3039988
  72.1640012  26.4634997   9.1229988  71.6699885  27.0043543   8.6534889
  61.1770012  33.0824997   1.2029988  61.7690012  33.7814997   1.4789988
  61.6360012  32.6494997   0.4829988  61.3201142  33.1197049   1.1434830
  59.4930012  25.7464997   0.3189988  59.4480012  26.6854997   0.4969988
  58.6050012  25.5104997   0.0489988  59.3668574  25.8431892   0.3068912
  72.8050012  36.4104997  10.2549988  72.6500012  37.0884997   9.5979988
  73.7380012  36.4824997  10.4579988  72.9098500  36.5130170  10.1925119
  60.3010012  20.5284997   8.9919988  60.0720012  20.5874997   8.0639988
  59.8580012  19.7364997   9.2979988  60.2098530  20.4295753   8.9064786
  59.2310012  34.4684997   5.1519988  58.3990012  34.9414997   5.1799988
  59.7770012  34.9784997   4.5539988  59.1909739  34.6021871   5.0749716
  58.5190012  37.0814997  16.4819988  59.0600012  36.8644997  17.2419988
  58.0380012  36.2754997  16.2929988  58.5279345  36.9429514  16.5603076
  63.1170012  36.0004997  18.1029988  63.8840012  35.5414997  18.4439988
  63.0950012  35.7744997  17.1729988  63.2191434  35.9070409  18.0240043
  67.2090012  35.5084997  -0.5220012  66.5650012  34.8774997  -0.2010012
  67.9710012  34.9774997  -0.7540012  67.2238077  35.3502920  -0.5093989
  69.6940012  34.3804997  16.8319988  69.3430012  33.5244997  17.0749988
  70.4200012  34.5234997  17.4389988  69.7440769  34.2825636  16.9473619
  71.8130012  35.3254997  -0.2880012  72.0960012  34.5314997   0.1639988
  72.5530012  35.5584997  -0.8490012  71.9517486  35.2482803  -0.3019302
  58.4260012  30.8914997  17.4369988  58.5700012  29.9894997  17.1499988
  57.6540012  31.1774997  16.9489988  58.3413322  30.8068261  17.3317881
  62.7680012  31.2354997  -0.4310012  62.8320012  30.4414997   0.0999988
  63.4210012  31.1164997  -1.1210012  62.8650241  31.1107148  -0.4515683
  65.0820012  30.8614997  16.8689988  64.7530012  31.1324997  16.0119988
  65.2340012  29.9204997  16.7819988  65.0574809  30.7713862  16.7398244
  68.1200012  32.2824997  -0.6950012  67.8510012  32.4624997   0.2059988
  67.9140012  31.3564997  -0.8260012  68.0553825  32.1820152  -0.5894786
  70.8160012  30.7774997  14.2529988  71.5620012  31.3654997  14.1329988
  70.0590012  31.3594997  14.3159988  70.8157554  30.9367011  14.2450907
  59.2590012  28.0914997  16.8569988  59.6670012  27.2344997  16.7359988
  58.9990012  28.1064997  17.7779988  59.2797568  27.9760807  16.9649588
  63.9170012  29.2074997   1.8749988  63.4570012  28.7234997   2.5609988
  64.1720012  28.5394997   1.2389988  63.8884902  29.0508731   1.8829334
  63.2060012  27.1004997  14.2309988  62.5880012  27.7754997  14.5109988
  63.5500012  27.4214997  13.3979988  63.1679615  27.2362721  14.1566581
  64.9880012  27.4504997   0.1369988  64.8080012  27.2964997  -0.7900012
  65.9380012  27.5584997   0.1819988  65.0917776  27.4440175   0.0161843
  68.2260012  29.5724997  17.5079988  69.1790012  29.6554997  17.4809988
  68.0650012  28.8604997  18.1279988  68.3346426  29.4876746  17.5880579
  74.3780012  29.8054997  -0.4170012  74.1040012  29.3804997  -1.2300012
  74.4170012  30.7364997  -0.6340012  74.3457699  29.8732484  -0.5576390
  63.5450012  24.4554997  15.3129988  63.6950012  23.7264997  14.7109988
  63.5480012  25.2324997  14.7539988  63.5659302  24.4607851  15.1550692
  63.9580012  22.8254997  12.8059988  64.4940012  23.2764997  12.1539988
  63.1060012  22.7174997  12.3829988  63.9162178  22.8726390  12.6595756
  65.5400012  28.2644997  13.0449988  66.2900012  28.1084997  12.4719988
  65.2010012  29.1164997  12.7699988  65.5968921  28.3582968  12.9293561
  69.9550012  26.0794997  18.0739988  70.1480012  25.1484997  17.9619988
  70.8130012  26.5044997  18.0639988  70.0973020  26.0096389  18.0573361
  71.2720012  28.8684997  16.1509988  70.9910012  29.5774997  15.5739988
  72.2150012  28.7954997  15.9999988  71.3609027  28.9557646  16.0515551
  62.0240012  25.6534997  17.2249988  61.2570012  25.1214997  17.0149988
  62.7030012  25.3434997  16.6249988  62.0107022  25.5387506  17.1151648
  64.7640012  20.2814997  13.2369988  64.6650012  21.2284997  13.1319988
  64.0210012  19.9094997  12.7619988  64.6500563  20.3605902  13.1584560
  66.0280012  24.6034997  16.8009988  65.7920012  24.3834997  17.7029988
  65.2440012  24.3964997  16.2909988  65.8898628  24.5454760  16.8553932
  68.7430012  23.7304997  15.8769988  67.7960012  23.7624997  16.0089988
  69.0560012  23.1054997  16.5299988  68.6555475  23.6503207  15.9834455
  70.3770012  22.3644997  17.8819988  70.2810012  21.4124997  17.8759988
  70.0560012  22.6334997  18.7419988  70.3204070  22.2704035  17.9975441
  60.2040012  23.5744997  16.9289988  60.4160012  22.8674997  16.3189988
  60.0930012  23.1364997  17.7729988  60.2179721  23.4187084  16.9596843
  64.9850012  19.5754997  15.9089988  65.6970012  18.9354997  15.8949988
  64.8840012  19.8424997  14.9949988  65.0687939  19.5239938  15.7835650
  65.3390012  21.2584997  17.9619988  65.2070012  20.7824997  17.1419988
  64.7400012  22.0024997  17.9069988  65.2399071  21.2939618  17.8422886
  64.8850012  38.1414997   1.1389988  65.8180012  38.2994997   1.2819988
  64.6210012  38.8164997   0.5139988  64.9769510  38.2543611   1.0740741
  58.4540012  32.7774997   0.6209988  59.3680012  32.8564997   0.8949988
  58.4610012  32.0904997  -0.0450012  58.5801131  32.6953961   0.5684393
  57.1030012  38.1704997   5.6989988  56.4560012  37.7084997   5.1659988
  57.4570012  37.4984997   6.2809988  57.0623849  38.0164723   5.7047959
  57.9730012  36.2514997   7.5029988  57.6380012  35.3714997   7.6749988
  58.1950012  36.5964997   8.3679988  57.9571783  36.1777500   7.6434208
  75.5210012  37.0604997  10.4839988  75.5000012  37.2454997  11.4229988
  76.2120012  37.6294997  10.1429988  75.6114618  37.1626606  10.5663864
  75.0850012  36.6284997  13.4059988  74.5970012  35.8924997  13.0349988
  75.6340012  36.2344997  14.0839988  75.0924872  36.4746249  13.4469160
  73.5350012  32.4174997  18.0439988  72.6690012  32.3124997  18.4379988
  73.9120012  33.1764997  18.4899988  73.4673308  32.5056900  18.1582393
  74.8360012  30.6744997   3.5579988  75.6860012  31.0954997   3.6849988
  74.8420012  29.9344997   4.1649988  74.9531372  30.6320803   3.6574344
  75.2310012  28.7274997   5.3819988  74.5040012  28.2484997   5.7789988
  75.8120012  28.9334997   6.1139988  75.2099375  28.6897090   5.5354129
  74.9900012  31.5124997  10.3289988  75.8230012  31.1344997  10.0489988
  75.1020012  32.4554997  10.2099988  75.1192647  31.5882218  10.2745487
  73.4760012  34.3904997  12.6359988  72.8290012  34.7154997  13.2619988
  72.9590012  33.9504997  11.9619988  73.3174029  34.3755004  12.6305827
  75.4990012  28.6284997   1.7729988  74.9770012  28.9854997   1.0539988
  75.4660012  29.3034997   2.4509988  75.4231634  28.7685413   1.7663145
  73.8480012  25.8684997   0.3239988  73.9440012  26.5354997  -0.3570012
  73.7080012  25.0524997  -0.1580012  73.8422135  25.8494500   0.1658491
  73.0170012  27.2484997   5.9449988  72.8670012  26.3034997   5.9239988
  72.6640012  27.5294997   6.7879988  72.9486625  27.1570441   6.0562346
  58.0530012  29.3264997   9.9549988  58.2370012  29.2444997   9.0189988
  58.9020012  29.2024997  10.3789988  58.1930139  29.2985003   9.8841455
  73.8740012  29.2184997  15.5829988  74.4570012  28.4844997  15.7749988
  74.4380012  29.9904997  15.6299988  74.0299769  29.2224227  15.6156159
  75.3700012  27.1214997  16.2679988  74.5070012  26.7424997  16.1019988
  75.9750012  26.3824997  16.1939988  75.3335979  26.9698023  16.2352817
  73.0950012  23.2764997  -0.5590012  73.7060012  22.9054997   0.0779988
  72.2590012  22.8554997  -0.3630012  73.0655032  23.1687554  -0.4452965
  72.7280012  24.8314997   4.4069988  73.0080012  23.9244997   4.5309988
  73.4870012  25.2654997   4.0179988  72.8689277  24.7660942   4.3713682
  73.3400012  25.4124997   9.8429988  74.2730012  25.6244997   9.8089988
  73.1050012  25.5144997  10.7649988  73.4358036  25.4552769   9.9629976
  73.3690012  26.1494997  12.6189988  72.5260012  26.4174997  12.9849988
  73.8110012  26.9714997  12.4079988  73.3134158  26.2973291  12.6405491
  57.6500012  24.5974997  16.0959988  58.5700012  24.4754997  16.3319988
  57.2010012  23.8474997  16.4849988  57.7151580  24.4793727  16.1809006
  75.6520012  20.1294997  17.9719988  76.0020012  19.4754997  17.3669988
  75.7990012  20.9664997  17.5329988  75.7198419  20.1531591  17.8297118
  73.3410012  22.0944997   4.4549988  73.5240012  21.6454997   5.2809988
  72.7420012  21.5094997   3.9919988  73.2850202  21.9539975   4.5053275
  58.8710012  22.9094997   8.9869988  59.3170012  22.1174997   9.2889988
  59.3380012  23.6254997   9.4179988  58.9950172  22.8980624   9.0864820
  57.1750012  25.9084997  10.0559988  57.6670012  25.6874997   9.2649988
  57.5380012  26.7494997  10.3369988  57.2913126  25.9918357   9.9857531
  75.1720012  22.2384997  16.3219988  74.2540012  22.5094997  16.2859988
  75.2950012  21.7034997  15.5369988  75.0631066  22.2032892  16.2110487
  75.2080012  22.1614997   0.9829988  75.6200012  21.4404997   0.5079988
  75.8900012  22.8314997   1.0419988  75.3565885  22.1532368   0.9258915
  57.4890012  22.1664997   4.1099988  56.5640012  22.3754997   3.9809988
  57.9430012  22.6504997   3.4209988  57.4237368  22.2605993   3.9991226
  72.2600012  37.1504997   6.0559988  72.9120012  36.8034997   5.4479988
  72.7700012  37.6394997   6.7019988  72.4182637  37.1690597   6.0600236
  57.4530012  20.9044997  12.4549988  56.7880012  20.6584997  13.0979988
  57.0100012  21.5264997  11.8769988  57.3020956  20.9548632  12.4649352
  59.6450012  34.0794997  16.5989988  58.8240012  34.2544997  16.1389988
  59.3920012  34.0064997  17.5199988  59.4986164  34.0935622  16.6604923
  62.5990012  35.0544997  12.8579988  62.1740012  35.8634997  12.5749988
  63.5030012  35.1394997  12.5559988  62.6630271  35.1768469  12.7783776
  66.9100012  36.4534997  15.8169988  67.0950012  36.1194997  16.6949988
  67.7560012  36.7624997  15.4949988  67.0497539  36.4496047  15.8935605
  69.2550012  37.7394997  15.0609988  69.9320012  37.1064997  14.8209988
  69.5770012  38.1404997  15.8679988  69.3911637  37.7071154  15.1372793
  74.1720012  20.3284997  14.1409988  73.3600012  20.6534997  13.7529988
  74.4050012  19.5684997  13.6079988  74.0923423  20.2702436  14.0158253
  60.0010012  38.3104997  12.9049988  59.2800012  38.7504997  12.4539988
  59.6350012  38.0594997  13.7539988  59.8529804  38.3367698  12.9579840
  62.4680012  37.9104997  11.9349988  61.6030012  37.9824997  12.3389988
  62.4130012  38.4574997  11.1509988  62.3422085  37.9942685  11.8843362
  67.1780012  37.7984997  11.1099988  66.7220012  38.3274997  10.4559988
  67.3410012  38.4014997  11.8359988  67.1375585  37.9524468  11.1185062
  69.5060012  36.6764997  12.0549988  68.6010012  36.8414997  11.7899988
  69.9350012  37.5294997  11.9899988  69.4400799  36.8144483  12.0099182
  72.1100012  38.2464997  12.3499988  71.9280012  39.1624997  12.1399988
  72.2870012  37.8364997  11.5039988  72.1090210  38.3164822  12.2067885
  59.4150012  36.9334997   9.8149988  59.3970012  36.5084997  10.6729988
  60.2200012  36.6154997   9.4069988  59.5213875  36.8323812   9.8771655
  61.5570012  35.6434997   8.4699988  61.3380012  34.7274997   8.6399988
  62.3810012  35.7834997   8.9359988  61.6384420  35.5370520   8.5562774
  64.0940012  36.1134997   9.3189988  64.3070012  35.2254997   9.0319988
  64.1580012  36.0794997  10.2729988  64.1318232  35.9873102   9.4087397
  67.6020012  21.7774997   8.4629988  66.9280012  21.1484997   8.7189988
  68.1660012  21.2934997   7.8599988  67.5859230  21.6258744   8.4165340
  72.7450012  19.8854997   8.5759988  73.3490012  20.4324997   8.0739988
  71.8750012  20.2044997   8.3359988  72.7101241  20.0035806   8.4747654
  74.4720012  21.0234997   6.9089988  75.0840012  20.5094997   6.3829988
  74.8540012  21.9014997   6.9329988  74.6074540  21.0717140   6.8401830
  59.9290012  20.4114997   6.2849988  59.1520012  20.1774997   5.7779988
  60.4590012  19.6144997   6.2939988  59.8942330  20.2716988   6.2167742
  58.7650012  20.2094997   2.0889988  59.2040012  20.8204997   1.4969988
  58.1320012  20.7474997   2.5629988  58.7394514  20.3659257   2.0720930
  64.5080012  20.3384997   6.0989988  65.3830012  20.7264997   6.0689988
  64.3720012  20.1234997   7.0209988  64.6093695  20.3625184   6.2196440
  70.0650012  20.3684997   7.7479988  70.1410012  20.4634997   6.7979988
  69.7900012  19.4604997   7.8769988  70.0382321  20.2587867   7.6355079
  71.4180012  20.3944997   3.4399988  70.7160012  21.0094997   3.2309988
  70.9740012  19.5564997   3.5709988  71.2616330  20.3655783   3.4290328
  58.6660012  36.1574997   2.9869988  57.9810012  36.1194997   2.3189988
  58.6700012  37.0704997   3.2749988  58.5728193  36.2757016   2.9345284
  60.6260012  22.1254997   0.5309988  61.1180012  21.4954997   0.0039988
  61.2500012  22.4214997   1.1949988  60.7775446  22.0793199   0.5485980
  65.6520012  22.4184997   2.9879988  65.8300012  21.7724997   3.6709988
  65.5990012  23.2524997   3.4559988  65.6691829  22.4427985   3.1445940
  67.5310012  37.3674997   1.3839988  68.3970012  37.7334997   1.2059988
  67.2840012  36.9274997   0.5699988  67.6162392  37.3581756   1.2496289
  74.2400012  36.9304997   4.0629988  74.0450012  36.1824997   3.4979988
  74.2010012  37.6884997   3.4799988  74.2080380  36.9306099   3.9068384
  59.8870012  20.9254997  15.8029988  59.5210012  20.1604997  16.2459988
  60.8000012  20.9544997  16.0899988  59.9602790  20.8247224  15.9024070
  61.8600012  20.2764997  17.3389988  62.7580012  20.0024997  17.1539988
  61.4730012  19.5334997  17.8029988  61.9306612  20.1385914  17.3763643
  60.4840012  37.0774997   0.0119988  60.2170012  37.3644997   0.8849988
  61.2560012  36.5314997   0.1639988  60.5517488  37.0430294   0.1521050
  70.2810012  19.6084997  17.5209988  70.3580012  19.1824997  18.3749988
  71.1750012  19.6224997  17.1779988  70.4123428  19.5520879  17.5915310
  73.4570012  35.6814997  16.2129988  72.6750012  35.4954997  15.6939988
  73.3850012  36.6104997  16.4309988  73.3401777  35.7816492  16.1714048
  87.8630012  29.5674997   6.2439988  87.9520012  30.5114997   6.1119988
  87.2250012  29.2924997   5.5859988  87.7889081  29.6594830   6.1369614
  86.7960012  28.8224997   9.6629988  86.7580012  28.1764997  10.3679988
  86.4740012  28.3564997   8.8919988  86.7472333  28.6709408   9.6552978
  79.1650012  28.4374997  11.2559988  79.2060012  27.8114997  11.9789988
  79.8680012  29.0614997  11.4379988  79.2656363  28.4361196  11.3796044
  90.5020012  31.7614997   7.9639988  90.0620012  31.0414997   8.4149988
  90.4890012  32.4824997   8.5939988  90.4400226  31.7603731   8.1108494
  80.0880012  32.8874997   9.7909988  79.7190012  32.0854997   9.4209988
  81.0290012  32.7184997   9.8369988  80.1647289  32.7550153   9.7466316
  76.6980012  26.5474997   5.1839988  76.2510012  27.3934997   5.1649988
  76.1370012  25.9674997   4.6679988  76.5609900  26.5849916   5.1116801
  77.4090012  28.7094997   7.3099988  77.6220012  27.9394997   7.8369988
  78.1470012  28.7984997   6.7059988  77.5378496  28.6161394   7.3005300
  87.6140012  36.8664997   8.1769988  88.2340012  36.1894997   7.9029988
  87.4060012  36.6484997   9.0849988  87.6706904  36.7443870   8.2623365
  85.1860012  31.2554997  10.0689988  85.4900012  30.5694997   9.4739988
  85.9070012  31.3734997  10.6869988  85.3250671  31.1776305  10.0711816
  93.8490012  22.8564997  10.9299988  93.8980012  23.4664997  11.6659988
  94.2740012  23.3174997  10.2069988  93.9131824  23.0023741  10.9330205
  88.3270012  25.6494997  10.3969988  88.4690012  24.7034997  10.4169988
  88.2200012  25.8564997   9.4679988  88.3319864  25.5479534  10.2742339
  81.4810012  23.7504997   7.6689988  81.5250012  24.6104997   7.2509988
  81.0240012  23.1984997   7.0349988  81.4252185  23.7935799   7.5260299
  89.2040012  23.8814997   6.0699988  89.8500012  23.5524997   6.6949988
  89.7140012  24.3994997   5.4469988  89.3614264  23.9064611   6.0713862
  78.1020012  26.1474997   8.4309988  78.7550012  25.5974997   8.8629988
  78.1260012  25.8734997   7.5139988  78.1946683  26.0351466   8.3662123
  83.2580012  27.6974997   7.6459988  83.8740012  27.1714997   8.1559988
  82.6720012  27.0574997   7.2429988  83.2630810  27.5389208   7.6613173
  94.2400012  24.3344997  13.1659988  93.5520012  24.9924997  13.0699988
  94.2560012  24.1374997  14.1019988  94.1478525  24.3980462  13.2794808
  80.2920012  22.6684997  11.7429988  80.0730012  23.1984997  10.9769988
  79.6240012  22.8954997  12.3899988  80.1717600  22.7716906  11.7256379
  87.6610012  32.1684997   5.2869988  87.3650012  31.8464997   4.4359988
  87.3360012  33.0684997   5.3279988  87.5766371  32.2460215   5.1761801
  82.8610012  30.3444997  12.0299988  82.1210012  30.9424997  12.1339988
  83.5750012  30.8984997  11.7149988  82.8562237  30.5012831  12.0016465
  90.9680012  23.1724997   8.0499988  90.7520012  22.4064997   8.5829988
  91.6230012  23.6444997   8.5629988  91.0270632  23.1315889   8.1922861
  79.8850012  24.5604997   9.6949988  80.4990012  25.1934997  10.0689988
  80.3970012  24.0884997   9.0389988  80.0382296  24.5832370   9.6574252
  81.2680012  32.3084997  12.8179988  81.2630012  33.1884997  12.4399988
  80.4150012  32.2254997  13.2429988  81.1519464  32.4176117  12.8237907
  77.3890012  31.9794997   3.5999988  77.1170012  32.2084997   2.7109988
  77.4350012  32.8174997   4.0599988  77.3580094  32.1241213   3.5405697
  91.0140012  33.6014997  10.3119988  90.0730012  33.6594997  10.4739988
  91.2910012  34.5074997  10.1749988  90.9224679  33.7319443  10.3156815
  91.3150012  21.8874997  11.7299988  90.5790012  22.4984997  11.6919988
  91.9980012  22.3024997  11.2029988  91.3066541  22.0271374  11.6535832
  84.3180012  19.9744997   9.1959988  84.2010012  19.0254997   9.1409988
  83.4630012  20.3064997   9.4689988  84.1863733  19.8895409   9.2253897
  89.2660012  35.3824997   6.9379988  89.6920012  34.6754997   6.4529988
  89.5830012  36.1834997   6.5209988  89.3671019  35.3940994   6.8153130
  90.4260012  33.2834997   5.4459988  90.1680012  32.5934997   4.8349988
  90.4970012  32.8404997   6.2919988  90.4002856  33.1292124   5.4766885
  92.1120012  31.8494997  13.9239988  92.2520012  31.2584997  13.1839988
  92.2790012  32.7224997  13.5669988  92.1536778  31.8866426  13.7746965
  86.5850012  28.8114997   3.6959988  85.8730012  29.3464997   3.3439988
  87.2760012  28.8674997   3.0359988  86.5810132  28.8922543   3.5586289
  86.6380012  27.2694997   0.7349988  87.3390012  27.2914997   1.3859988
  86.9410012  26.6414997   0.0789988  86.7747830  27.1876566   0.7353711
  93.9540012  28.1894997  11.9899988  93.3010012  28.8844997  12.0789988
  94.4190012  28.3994997  11.1799988  93.9275390  28.3129425  11.8926883
  89.9900012  29.0214997   4.6479988  89.2580012  29.2494997   5.2209988
  90.4380012  28.3074997   5.1029988  89.9503095  28.9562571   4.7879119
  89.8880012  27.1954997  13.7149988  89.9680012  27.9584997  14.2869988
  89.2860012  27.4744997  13.0249988  89.8175756  27.3377134  13.7000589
  81.6360012  29.6514997   6.5299988  81.3050012  29.2814997   5.7119988
  82.2240012  28.9814997   6.8769988  81.6701873  29.5101156   6.4648102
  83.0020012  33.0794997   9.2119988  82.9080012  32.5014997   8.4549988
  83.7320012  32.7084997   9.7079988  83.0877981  32.9502390   9.1754165
  82.0020012  28.4204997  10.1639988  82.5680012  28.5414997   9.4009988
  82.3210012  29.0574997  10.8029988  82.1225786  28.5231884  10.1460040
  88.3110012  33.9234997  10.8979988  88.0710012  34.5854997  11.5459988
  88.1130012  33.0894997  11.3229988  88.2513808  33.9013134  11.0441524
  82.8820012  32.8194997  14.8809988  82.5710012  33.6014997  15.3359988
  82.2320012  32.6664997  14.1949988  82.7515558  32.9059105  14.8505871
  88.8610012  28.1834997   2.3329988  89.4410012  28.3334997   3.0799988
  89.2750012  28.6544997   1.6099988  88.9962830  28.2676841   2.3374134
  79.8020012  29.0174997  14.1099988  79.8730012  29.6684997  14.8079988
  78.9120012  29.1204997  13.7749988  79.6913117  29.1205936  14.1602700
  86.5880012  34.9204997   5.7679988  87.0620012  35.2154997   6.5459988
  86.0250012  35.6584997   5.5349988  86.5767653  35.0606932   5.8430136
  81.1220012  34.8914997  15.6439988  81.1290012  34.7554997  14.6969988
  80.2060012  34.7734997  15.8959988  80.9991714  34.8569430  15.5484666
  92.5600012  19.9334997   2.1459988  91.6600012  20.0724997   2.4409988
  92.8120012  20.7644997   1.7439988  92.4708702  20.0649074   2.1320205
  80.6260012  28.7214997   4.1199988  80.3340012  29.4894997   3.6289988
  79.9520012  28.0614997   3.9569988  80.4949081  28.7374406   4.0307340
  93.7490012  34.2994997   0.5219988  93.8230012  35.2384997   0.6929988
  94.6550012  33.9944997   0.4659988  93.8815100  34.3866722   0.5378119
  76.7190012  31.0844997  12.9349988  76.2180012  31.0564997  12.1199988
  76.7240012  30.1784997  13.2439988  76.6511526  30.9582278  12.8652872
  76.4690012  33.8644997   9.8189988  77.4150012  33.7204997   9.7999988
  76.3570012  34.6484997  10.3559988  76.5832727  33.9508046   9.8890072
  94.6670012  34.5304997  15.5009988  94.6180012  33.5754997  15.4639988
  93.8400012  34.7984997  15.9019988  94.5484940  34.4358998  15.5501375
  85.6460012  34.1044997  14.3769988  85.7330012  34.9304997  14.8519988
  84.7820012  33.7744997  14.6259988  85.5411964  34.1729878  14.4756549
  86.0600012  37.8764997   4.1829988  85.9850012  37.7554997   3.2369988
  86.0930012  38.8264997   4.3019988  86.0541848  37.9882500   4.0694834
  79.7130012  36.6654997   5.9639988  79.8660012  36.3174997   6.8429988
  78.8630012  36.3094997   5.7089988  79.6188962  36.5696650   6.0498340
  89.1620012  37.0304997   1.1849988  89.5370012  36.2864997   0.7149988
  89.1660012  36.7604997   2.1039988  89.2138915  36.8921486   1.2447824
  88.8310012  36.9564997   3.9349988  87.8950012  37.0564997   4.1129988
  89.1110012  36.2474997   4.5129988  88.7408255  36.8742711   4.0375391
  91.8190012  26.0234997  15.9809988  91.4120012  26.5044997  15.2599988
  91.8600012  25.1184997  15.6729988  91.7688437  25.9669374  15.8406683
  78.9680012  32.4074997  13.9779988  79.1840012  32.0464997  14.8369988
  78.1130012  32.0334997  13.7679988  78.8819292  32.3074111  14.0673386
  81.5870012  20.8774997   9.9729988  80.7250012  20.7904997   9.5659988
  81.5640012  21.7334997  10.4009988  81.4660330  20.9812765   9.9751863
  86.2500012  20.5994997  13.3479988  86.6700012  20.1844997  14.1009988
  85.3170012  20.4214997  13.4649988  86.1813644  20.5185900  13.4669539
  89.5760012  24.3554997  14.2009988  89.0620012  24.2294997  14.9989988
  89.4210012  25.2674997  13.9569988  89.4846852  24.4616132  14.2772158
  90.3390012  29.2164997  -0.0370012  90.3810012  28.9934997  -0.9670012
  91.1880012  29.6154997   0.1529988  90.4595396  29.2399155  -0.1386373
  85.9110012  23.0924997   0.6329988  85.6580012  23.1114997   1.5559988
  85.6550012  22.2204997   0.3319988  85.8417790  22.9772437   0.7186263
  81.6780012  25.8434997  11.0679988  81.0360012  25.8024997  11.7769988
  81.7150012  26.7694997  10.8309988  81.5951324  25.9631559  11.1329824
  81.6750012  26.0644997   5.9799988  80.7820012  25.7234997   5.9219988
  82.1250012  25.6874997   5.2249988  81.6137305  25.9668484   5.8699177
  87.2100012  26.4804997   4.7969988  86.8010012  27.2954997   4.5059988
  87.9310012  26.3404997   4.1829988  87.2514537  26.5732018   4.6741342
  86.3120012  26.6554997  16.2849988  85.7500012  25.9514997  16.6059988
  87.1390012  26.5354997  16.7529988  86.3467095  26.5427883  16.3922330
  88.2150012  25.9264997   7.6109988  88.0200012  26.5314997   6.8959988
  88.3960012  25.0924997   7.1769988  88.2127614  25.8966300   7.4544405
  79.4280012  26.1634997  12.9349988  79.3900012  26.5634997  13.8039988
  78.9370012  25.3464997  13.0259988  79.3564684  26.1078069  13.0661059
  82.7940012  23.5374997  -0.2660012  82.3630012  23.0924997   0.4639988
  82.0760012  23.9094997  -0.7780012  82.6379438  23.5268940  -0.2353201
  76.0360012  23.2794997   6.7859988  76.6670012  23.2504997   7.5049988
  76.4850012  22.8544997   6.0559988  76.1830774  23.2180492   6.7856553
  77.3100012  24.0254997   2.2099988  77.7840012  24.6164997   1.6249988
  76.5930012  24.5564997   2.5569988  77.2779341  24.1780867   2.1768836
  87.4790012  27.5644997  12.2829988  87.8020012  26.9334997  11.6399988
  87.0390012  27.0294997  12.9429988  87.4636895  27.4058441  12.2842850
  84.2560012  23.4914997   7.0669988  83.3450012  23.5484997   7.3549988
  84.7620012  23.4314997   7.8769988  84.1995413  23.4911985   7.2160622
  79.0850012  25.1204997   5.8929988  78.1950012  25.2204997   5.5529988
  79.3810012  24.2784997   5.5469988  79.0032823  25.0203545   5.7997213
  82.7380012  25.1204997   3.5499988  83.6690012  25.2494997   3.7279988
  82.5230012  25.7904997   2.8999988  82.8364247  25.2286565   3.4865747
  88.6610012  22.7264997  10.3309988  87.9850012  22.8574997  10.9949988
  88.1760012  22.5714997   9.5209988  88.5027145  22.7234905  10.3124517
  81.4120012  26.3154997   1.1169988  80.8690012  25.9354997   0.4249988
  82.2450012  26.5094997   0.6879988  81.4504399  26.2898124   0.9644526
  91.9490012  38.3984997  16.6079988  92.1490012  38.8224997  15.7729988
  92.6040012  38.7414997  17.2149988  92.0650051  38.5029648  16.5757836
  79.5470012  30.8724997  16.2159988  80.2790012  31.1264997  16.7769988
  78.7670012  31.0764997  16.7309988  79.5418232  30.9349177  16.3625760
  85.5760012  26.2794997   8.9539988  86.1410012  25.7324997   8.4069988
  85.4290012  25.7574997   9.7419988  85.6332918  26.1342024   8.9858454
  80.5780012  22.4154997   5.3719988  80.2610012  21.5134997   5.3369988
  81.3600012  22.4174997   4.8189988  80.6402284  22.2921628   5.2924783
  84.2030012  24.6674997  11.3679988  83.3670012  25.1214997  11.4779988
  84.7270012  24.9434997  12.1199988  84.1594414  24.7669376  11.4847136
  84.7470012  30.8804997   3.0519988  84.0020012  30.3734997   2.7299988
  84.6130012  30.9294997   3.9989988  84.6268776  30.8176940   3.1358647
  91.8970012  30.0134997  11.8389988  92.5390012  30.4704997  11.2949988
  91.0670012  30.1264997  11.3759988  91.8725963  30.0912704  11.7020177
  88.6450012  23.6944997   1.2519988  87.7060012  23.8064997   1.0999988
  88.9420012  24.5514997   1.5579988  88.5567666  23.8256443   1.2725768
  86.2660012  31.0644997  14.2889988  85.9210012  30.6834997  15.0959988
  86.0660012  31.9984997  14.3609988  86.1918061  31.1385228  14.4090961
  89.3630012  25.5614997   2.9119988  90.2550012  25.4244997   3.2309988
  89.4200012  26.3524997   2.3759988  89.4926285  25.6496660   2.8831691
  79.8720012  30.1754997   8.8219988  80.6170012  30.1734997   8.2209988
  79.9500012  29.3524997   9.3039988  79.9845518  30.0639315   8.8048929
  86.8730012  32.3394997   2.0779988  86.5770012  33.1654997   2.4589988
  86.1700012  31.7194997   2.2739988  86.7374914  32.3688199   2.1566443
  76.8800012  28.6364997  14.1369988  77.1030012  28.2184997  14.9689988
  76.2780012  28.0234997  13.7139988  76.8291759  28.4964668  14.1937022
  83.8960012  28.1534997  16.3499988  83.6000012  27.9874997  15.4549988
  84.8280012  27.9334997  16.3389988  83.9814166  28.1010640  16.2260536
  88.5170012  33.5264997  14.2399988  87.6160012  33.7094997  13.9719988
  88.5510012  33.7854997  15.1609988  88.3983041  33.5865512  14.3278197
  94.2480012  25.7714997   2.6069988  93.6940012  25.3754997   1.9349988
  94.3480012  26.6814997   2.3289988  94.1857059  25.8403586   2.4774401
  94.2110012  31.5714997  15.4439988  93.3600012  31.8094997  15.0769988
  94.8020012  31.5544997  14.6909988  94.1742487  31.6018258  15.2918893
  92.5430012  34.5574997   3.0719988  92.1700012  33.7314997   3.3809988
  92.8210012  34.3744997   2.1749988  92.5295630  34.4197303   2.9929626
  89.7040012  29.3654997  10.0929988  88.7750012  29.1334997  10.0659988
  90.1550012  28.5884997   9.7629988  89.6379216  29.2287238  10.0446917
  82.2470012  33.6934997   6.2259988  82.7740012  34.4664997   6.0259988
  81.3670012  33.9184997   5.9249988  82.2001773  33.8298005   6.1579010
  78.0020012  28.5554997   0.8129988  78.6180012  29.1824997   1.1929988
  77.1400012  28.8714997   1.0849988  77.9697698  28.6839430   0.9017183
  83.6740012  31.3564997   5.8029988  83.4330012  32.2814997   5.8439988
  82.9330012  30.8974997   6.1989988  83.5408409  31.4211421   5.8621377
  84.1890012  35.5054997  12.1179988  84.5510012  36.3604997  11.8839988
  84.7200012  35.2134997  12.8579988  84.3104473  35.5831060  12.1860855
  82.3570012  36.3784997   5.3479988  81.4070012  36.4834997   5.3989988
  82.7090012  37.1984997   5.6929988  82.2744203  36.5038314   5.4016650
  87.7330012  31.6044997  11.8179988  87.3070012  31.3774997  12.6449988
  88.3130012  30.8664997  11.6359988  87.7531868  31.4735299  11.9065830
  89.9360012  32.5334997   0.8919988  90.2890012  32.1534997   1.6969988
  88.9870012  32.4404997   0.9789988  89.8560441  32.4689596   1.0138559
  90.3910012  36.1564997  14.2879988  89.7900012  35.6014997  13.7919988
  90.6730012  36.8234997  13.6619988  90.3468519  36.1706841  14.1354952
  94.4390012  37.0134997   1.0929988  95.1830012  37.5994997   0.9529988
  93.7450012  37.5814997   1.4269988  94.4470292  37.1705582   1.1189961
  78.5140012  23.3894997  13.6949988  77.6210012  23.7284997  13.6269988
  78.4150012  22.5344997  14.1129988  78.3784164  23.3202588  13.7422235
  90.8020012  31.2064997   3.1189988  90.5240012  30.4784997   3.6749988
  91.7290012  31.3254997   3.3239988  90.8893124  31.1228802   3.2228845
  78.1650012  35.1944997  12.1299988  78.3820012  34.2624997  12.0989988
  78.4110012  35.4684997  13.0129988  78.2279549  35.1040636  12.2451763
  84.0270012  33.6454997  -0.6610012  84.2660012  32.8974997  -1.2080012
  83.7580012  33.2574997   0.1719988  84.0233675  33.4906638  -0.6233135
  82.9640012  33.2154997   1.7959988  83.1100012  32.6954997   2.5859988
  82.9610012  34.1224997   2.1019988  82.9835989  33.2668853   1.9456088
  79.4170012  30.4684997   2.3059988  78.7310012  30.8204997   2.8729988
  79.9390012  31.2314997   2.0589988  79.3936852  30.6198578   2.3502118
  87.2480012  23.1304997  12.5849988  87.9470012  23.2044997  13.2349988
  86.8670012  22.2664997  12.7389988  87.2921767  23.0237624  12.6948322
  88.0330012  22.7824997   3.6819988  88.2530012  23.2544997   2.8789988
  88.5910012  23.1774997   4.3519988  88.1384968  22.9004285   3.6627331
  85.7010012  34.9134997   2.5449988  84.8850012  35.4104997   2.5969988
  86.2310012  35.3884997   1.9049988  85.6609161  35.0457722   2.4655956
  85.2330012  24.5104997   4.5169988  86.0450012  25.0154997   4.5629988
  84.9880012  24.3654997   5.4309988  85.3110520  24.5600375   4.6468517
  85.7680012  25.4964997  13.7019988  85.8870012  26.0704997  14.4589988
  86.4240012  24.8084997  13.8159988  85.8729757  25.4821079  13.8210825
  86.1160012  21.5914997   5.4549988  85.7700012  22.2094997   6.0999988
  86.7750012  22.0924997   4.9739988  86.1577826  21.7435802   5.4780971
  83.0400012  35.9574997   2.5269988  83.2000012  36.7564997   2.0259988
  82.8420012  36.2634997   3.4119988  83.0351649  36.1084469   2.5779815
  81.7740012  22.6544997   2.1419988  81.6910012  23.5434997   2.4889988
  82.6640012  22.3894997   2.3739988  81.8829469  22.7401430   2.2207626
  91.9730012  23.4034997  14.5369988  91.0560012  23.6664997  14.4489988
  92.3080012  23.4004997  13.6399988  91.8929900  23.4390224  14.4037919
  90.5750012  27.1544997   8.6319988  89.7770012  26.7394997   8.3039988
  91.0200012  26.4634997   9.1229988  90.5259885  27.0043543   8.6534889
  80.0330012  33.0824997   1.2029988  80.6250012  33.7814997   1.4789988
  80.4920012  32.6494997   0.4829988  80.1761142  33.1197049   1.1434830
  78.3490012  25.7464997   0.3189988  78.3040012  26.6854997   0.4969988
  77.4610012  25.5104997   0.0489988  78.2228574  25.8431892   0.3068912
  91.6610012  36.4104997  10.2549988  91.5060012  37.0884997   9.5979988
  92.5940012  36.4824997  10.4579988  91.7658500  36.5130170  10.1925119
  79.1570012  20.5284997   8.9919988  78.9280012  20.5874997   8.0639988
  78.7140012  19.7364997   9.2979988  79.0658530  20.4295753   8.9064786
  78.0870012  34.4684997   5.1519988  77.2550012  34.9414997   5.1799988
  78.6330012  34.9784997   4.5539988  78.0469739  34.6021871   5.0749716
  77.3750012  37.0814997  16.4819988  77.9160012  36.8644997  17.2419988
  76.8940012  36.2754997  16.2929988  77.3839345  36.9429514  16.5603076
  81.9730012  36.0004997  18.1029988  82.7400012  35.5414997  18.4439988
  81.9510012  35.7744997  17.1729988  82.0751434  35.9070409  18.0240043
  86.0650012  35.5084997  -0.5220012  85.4210012  34.8774997  -0.2010012
  86.8270012  34.9774997  -0.7540012  86.0798077  35.3502920  -0.5093989
  88.5500012  34.3804997  16.8319988  88.1990012  33.5244997  17.0749988
  89.2760012  34.5234997  17.4389988  88.6000769  34.2825636  16.9473619
  90.6690012  35.3254997  -0.2880012  90.9520012  34.5314997   0.1639988
  91.4090012  35.5584997  -0.8490012  90.8077486  35.2482803  -0.3019302
  77.2820012  30.8914997  17.4369988  77.4260012  29.9894997  17.1499988
  76.5100012  31.1774997  16.9489988  77.1973322  30.8068261  17.3317881
  81.6240012  31.2354997  -0.4310012  81.6880012  30.4414997   0.0999988
  82.2770012  31.1164997  -1.1210012  81.7210241  31.1107148  -0.4515683
  83.9380012  30.8614997  16.8689988  83.6090012  31.1324997  16.0119988
  84.0900012  29.9204997  16.7819988  83.9134809  30.7713862  16.7398244
  86.9760012  32.2824997  -0.6950012  86.7070012  32.4624997   0.2059988
  86.7700012  31.3564997  -0.8260012  86.9113825  32.1820152  -0.5894786
  89.6720012  30.7774997  14.2529988  90.4180012  31.3654997  14.1329988
  88.9150012  31.3594997  14.3159988  89.6717554  30.9367011  14.2450907
  78.1150012  28.0914997  16.8569988  78.5230012  27.2344997  16.7359988
  77.8550012  28.1064997  17.7779988  78.1357568  27.9760807  16.9649588
  82.7730012  29.2074997   1.8749988  82.3130012  28.7234997   2.5609988
  83.0280012  28.5394997   1.2389988  82.7444902  29.0508731   1.8829334
  82.0620012  27.1004997  14.2309988  81.4440012  27.7754997  14.5109988
  82.4060012  27.4214997  13.3979988  82.0239615  27.2362721  14.1566581
  83.8440012  27.4504997   0.1369988  83.6640012  27.2964997  -0.7900012
  84.7940012  27.5584997   0.1819988  83.9477776  27.4440175   0.0161843
  87.0820012  29.5724997  17.5079988  88.0350012  29.6554997  17.4809988
  86.9210012  28.8604997  18.1279988  87.1906426  29.4876746  17.5880579
  93.2340012  29.8054997  -0.4170012  92.9600012  29.3804997  -1.2300012
  93.2730012  30.7364997  -0.6340012  93.2017699  29.8732484  -0.5576390
  82.4010012  24.4554997  15.3129988  82.5510012  23.7264997  14.7109988
  82.4040012  25.2324997  14.7539988  82.4219302  24.4607851  15.1550692
  82.8140012  22.8254997  12.8059988  83.3500012  23.2764997  12.1539988
  81.9620012  22.7174997  12.3829988  82.7722178  22.8726390  12.6595756
  84.3960012  28.2644997  13.0449988  85.1460012  28.1084997  12.4719988
  84.0570012  29.1164997  12.7699988  84.4528921  28.3582968  12.9293561
  88.8110012  26.0794997  18.0739988  89.0040012  25.1484997  17.9619988
  89.6690012  26.5044997  18.0639988  88.9533020  26.0096389  18.0573361
  90.1280012  28.8684997  16.1509988  89.8470012  29.5774997  15.5739988
  91.0710012  28.7954997  15.9999988  90.2169027  28.9557646  16.0515551
  80.8800012  25.6534997  17.2249988  80.1130012  25.1214997  17.0149988
  81.5590012  25.3434997  16.6249988  80.8667022  25.5387506  17.1151648
  83.6200012  20.2814997  13.2369988  83.5210012  21.2284997  13.1319988
  82.8770012  19.9094997  12.7619988  83.5060564  20.3605902  13.1584560
  84.8840012  24.6034997  16.8009988  84.6480012  24.3834997  17.7029988
  84.1000012  24.3964997  16.2909988  84.7458628  24.5454760  16.8553932
  87.5990012  23.7304997  15.8769988  86.6520012  23.7624997  16.0089988
  87.9120012  23.1054997  16.5299988  87.5115475  23.6503207  15.9834455
  89.2330012  22.3644997  17.8819988  89.1370012  21.4124997  17.8759988
  88.9120012  22.6334997  18.7419988  89.1764070  22.2704035  17.9975441
  79.0600012  23.5744997  16.9289988  79.2720012  22.8674997  16.3189988
  78.9490012  23.1364997  17.7729988  79.0739721  23.4187084  16.9596843
  83.8410012  19.5754997  15.9089988  84.5530012  18.9354997  15.8949988
  83.7400012  19.8424997  14.9949988  83.9247939  19.5239938  15.7835650
  84.1950012  21.2584997  17.9619988  84.0630012  20.7824997  17.1419988
  83.5960012  22.0024997  17.9069988  84.0959071  21.2939618  17.8422886
  83.7410012  38.1414997   1.1389988  84.6740012  38.2994997   1.2819988
  83.4770012  38.8164997   0.5139988  83.8329510  38.2543611   1.0740741
  77.3100012  32.7774997   0.6209988  78.2240012  32.8564997   0.8949988
  77.3170012  32.0904997  -0.0450012  77.4361131  32.6953961   0.5684393
  75.9590012  38.1704997   5.6989988  75.3120012  37.7084997   5.1659988
  76.3130012  37.4984997   6.2809988  75.9183849  38.0164723   5.7047959
  76.8290012  36.2514997   7.5029988  76.4940012  35.3714997   7.6749988
  77.0510012  36.5964997   8.3679988  76.8131783  36.1777500   7.6434208
  94.3770012  37.0604997  10.4839988  94.3560012  37.2454997  11.4229988
  95.0680012  37.6294997  10.1429988  94.4674618  37.1626606  10.5663864
  93.9410012  36.6284997  13.4059988  93.4530012  35.8924997  13.0349988
  94.4900012  36.2344997  14.0839988  93.9484872  36.4746249  13.4469160
  92.3910012  32.4174997  18.0439988  91.5250012  32.3124997  18.4379988
  92.7680012  33.1764997  18.4899988  92.3233308  32.5056900  18.1582393
  93.6920012  30.6744997   3.5579988  94.5420012  31.0954997   3.6849988
  93.6980012  29.9344997   4.1649988  93.8091372  30.6320803   3.6574344
  94.0870012  28.7274997   5.3819988  93.3600012  28.2484997   5.7789988
  94.6680012  28.9334997   6.1139988  94.0659375  28.6897090   5.5354129
  93.8460012  31.5124997  10.3289988  94.6790012  31.1344997  10.0489988
  93.9580012  32.4554997  10.2099988  93.9752647  31.5882218  10.2745487
  92.3320012  34.3904997  12.6359988  91.6850012  34.7154997  13.2619988
  91.8150012  33.9504997  11.9619988  92.1734029  34.3755004  12.6305827
  94.3550012  28.6284997   1.7729988  93.8330012  28.9854997   1.0539988
  94.3220012  29.3034997   2.4509988  94.2791634  28.7685413   1.7663145
  92.7040012  25.8684997   0.3239988  92.8000012  26.5354997  -0.3570012
  92.5640012  25.0524997  -0.1580012  92.6982135  25.8494500   0.1658491
  91.8730012  27.2484997   5.9449988  91.7230012  26.3034997   5.9239988
  91.5200012  27.5294997   6.7879988  91.8046625  27.1570441   6.0562346
  76.9090012  29.3264997   9.9549988  77.0930012  29.2444997   9.0189988
  77.7580012  29.2024997  10.3789988  77.0490139  29.2985003   9.8841455
  92.7300012  29.2184997  15.5829988  93.3130012  28.4844997  15.7749988
  93.2940012  29.9904997  15.6299988  92.8859769  29.2224227  15.6156159
  94.2260012  27.1214997  16.2679988  93.3630012  26.7424997  16.1019988
  94.8310012  26.3824997  16.1939988  94.1895979  26.9698023  16.2352817
  91.9510012  23.2764997  -0.5590012  92.5620012  22.9054997   0.0779988
  91.1150012  22.8554997  -0.3630012  91.9215032  23.1687554  -0.4452965
  91.5840012  24.8314997   4.4069988  91.8640012  23.9244997   4.5309988
  92.3430012  25.2654997   4.0179988  91.7249277  24.7660942   4.3713682
  92.1960012  25.4124997   9.8429988  93.1290012  25.6244997   9.8089988
  91.9610012  25.5144997  10.7649988  92.2918036  25.4552769   9.9629976
  92.2250012  26.1494997  12.6189988  91.3820012  26.4174997  12.9849988
  92.6670012  26.9714997  12.4079988  92.1694158  26.2973291  12.6405491
  76.5060012  24.5974997  16.0959988  77.4260012  24.4754997  16.3319988
  76.0570012  23.8474997  16.4849988  76.5711580  24.4793727  16.1809006
  94.5080012  20.1294997  17.9719988  94.8580012  19.4754997  17.3669988
  94.6550012  20.9664997  17.5329988  94.5758419  20.1531591  17.8297118
  92.1970012  22.0944997   4.4549988  92.3800012  21.6454997   5.2809988
  91.5980012  21.5094997   3.9919988  92.1410202  21.9539975   4.5053275
  77.7270012  22.9094997   8.9869988  78.1730012  22.1174997   9.2889988
  78.1940012  23.6254997   9.4179988  77.8510172  22.8980624   9.0864820
  76.0310012  25.9084997  10.0559988  76.5230012  25.6874997   9.2649988
  76.3940012  26.7494997  10.3369988  76.1473126  25.9918357   9.9857531
  94.0280012  22.2384997  16.3219988  93.1100012  22.5094997  16.2859988
  94.1510012  21.7034997  15.5369988  93.9191066  22.2032892  16.2110487
  94.0640012  22.1614997   0.9829988  94.4760012  21.4404997   0.5079988
  94.7460012  22.8314997   1.0419988  94.2125885  22.1532368   0.9258915
  76.3450012  22.1664997   4.1099988  75.4200012  22.3754997   3.9809988
  76.7990012  22.6504997   3.4209988  76.2797368  22.2605993   3.9991226
  91.1160012  37.1504997   6.0559988  91.7680012  36.8034997   5.4479988
  91.6260012  37.6394997   6.7019988  91.2742637  37.1690597   6.0600236
  76.3090012  20.9044997  12.4549988  75.6440012  20.6584997  13.0979988
  75.8660012  21.5264997  11.8769988  76.1580956  20.9548632  12.4649352
  78.5010012  34.0794997  16.5989988  77.6800012  34.2544997  16.1389988
  78.2480012  34.0064997  17.5199988  78.3546164  34.0935622  16.6604923
  81.4550012  35.0544997  12.8579988  81.0300012  35.8634997  12.5749988
  82.3590012  35.1394997  12.5559988  81.5190271  35.1768469  12.7783776
  85.7660012  36.4534997  15.8169988  85.9510012  36.1194997  16.6949988
  86.6120012  36.7624997  15.4949988  85.9057539  36.4496047  15.8935605
  88.1110012  37.7394997  15.0609988  88.7880012  37.1064997  14.8209988
  88.4330012  38.1404997  15.8679988  88.2471637  37.7071154  15.1372793
  93.0280012  20.3284997  14.1409988  92.2160012  20.6534997  13.7529988
  93.2610012  19.5684997  13.6079988  92.9483423  20.2702436  14.0158253
  78.8570012  38.3104997  12.9049988  78.1360012  38.7504997  12.4539988
  78.4910012  38.0594997  13.7539988  78.7089804  38.3367698  12.9579840
  81.3240012  37.9104997  11.9349988  80.4590012  37.9824997  12.3389988
  81.2690012  38.4574997  11.1509988  81.1982085  37.9942685  11.8843362
  86.0340012  37.7984997  11.1099988  85.5780012  38.3274997  10.4559988
  86.1970012  38.4014997  11.8359988  85.9935585  37.9524468  11.1185062
  88.3620012  36.6764997  12.0549988  87.4570012  36.8414997  11.7899988
  88.7910012  37.5294997  11.9899988  88.2960799  36.8144483  12.0099182
  90.9660012  38.2464997  12.3499988  90.7840012  39.1624997  12.1399988
  91.1430012  37.8364997  11.5039988  90.9650210  38.3164822  12.2067885
  78.2710012  36.9334997   9.8149988  78.2530012  36.5084997  10.6729988
  79.0760012  36.6154997   9.4069988  78.3773875  36.8323812   9.8771655
  80.4130012  35.6434997   8.4699988  80.1940012  34.7274997   8.6399988
  81.2370012  35.7834997   8.9359988  80.4944420  35.5370520   8.5562774
  82.9500012  36.1134997   9.3189988  83.1630012  35.2254997   9.0319988
  83.0140012  36.0794997  10.2729988  82.9878232  35.9873102   9.4087397
  86.4580012  21.7774997   8.4629988  85.7840012  21.1484997   8.7189988
  87.0220012  21.2934997   7.8599988  86.4419230  21.6258744   8.4165340
  91.6010012  19.8854997   8.5759988  92.2050012  20.4324997   8.0739988
  90.7310012  20.2044997   8.3359988  91.5661241  20.0035806   8.4747654
  93.3280012  21.0234997   6.9089988  93.9400012  20.5094997   6.3829988
  93.7100012  21.9014997   6.9329988  93.4634540  21.0717140   6.8401830
  78.7850012  20.4114997   6.2849988  78.0080012  20.1774997   5.7779988
  79.3150012  19.6144997   6.2939988  78.7502330  20.2716988   6.2167742
  77.6210012  20.2094997   2.0889988  78.0600012  20.8204997   1.4969988
  76.9880012  20.7474997   2.5629988  77.5954514  20.3659257   2.0720930
  83.3640012  20.3384997   6.0989988  84.2390012  20.7264997   6.0689988
  83.2280012  20.1234997   7.0209988  83.4653695  20.3625184   6.2196440
  88.9210012  20.3684997   7.7479988  88.9970012  20.4634997   6.7979988
  88.6460012  19.4604997   7.8769988  88.8942321  20.2587867   7.6355079
  90.2740012  20.3944997   3.4399988  89.5720012  21.0094997   3.2309988
  89.8300012  19.5564997   3.5709988  90.1176330  20.3655783   3.4290328
  77.5220012  36.1574997   2.9869988  76.8370012  36.1194997   2.3189988
  77.5260012  37.0704997   3.2749988  77.4288193  36.2757016   2.9345284
  79.4820012  22.1254997   0.5309988  79.9740012  21.4954997   0.0039988
  80.1060012  22.4214997   1.1949988  79.6335446  22.0793199   0.5485980
  84.5080012  22.4184997   2.9879988  84.6860012  21.7724997   3.6709988
  84.4550012  23.2524997   3.4559988  84.5251829  22.4427985   3.1445940
  86.3870012  37.3674997   1.3839988  87.2530012  37.7334997   1.2059988
  86.1400012  36.9274997   0.5699988  86.4722392  37.3581756   1.2496289
  93.0960012  36.9304997   4.0629988  92.9010012  36.1824997   3.4979988
  93.0570012  37.6884997   3.4799988  93.0640380  36.9306099   3.9068384
  78.7430012  20.9254997  15.8029988  78.3770012  20.1604997  16.2459988
  79.6560012  20.9544997  16.0899988  78.8162790  20.8247224  15.9024070
  80.7160012  20.2764997  17.3389988  81.6140012  20.0024997  17.1539988
  80.3290012  19.5334997  17.8029988  80.7866612  20.1385914  17.3763643
  79.3400012  37.0774997   0.0119988  79.0730012  37.3644997   0.8849988
  80.1120012  36.5314997   0.1639988  79.4077488  37.0430294   0.1521050
  89.1370012  19.6084997  17.5209988  89.2140012  19.1824997  18.3749988
  90.0310012  19.6224997  17.1779988  89.2683428  19.5520879  17.5915310
  92.3130012  35.6814997  16.2129988  91.5310012  35.4954997  15.6939988
  92.2410012  36.6104997  16.4309988  92.1961777  35.7816492  16.1714048
 106.7190012  29.5674997   6.2439988 106.8080012  30.5114997   6.1119988
 106.0810012  29.2924997   5.5859988 106.6449081  29.6594830   6.1369614
 105.6520012  28.8224997   9.6629988 105.6140012  28.1764997  10.3679988
 105.3300012  28.3564997   8.8919988 105.6032333  28.6709408   9.6552978
  98.0210012  28.4374997  11.2559988  98.0620012  27.8114997  11.9789988
  98.7240012  29.0614997  11.4379988  98.1216363  28.4361196  11.3796044
 109.3580012  31.7614997   7.9639988 108.9180012  31.0414997   8.4149988
 109.3450012  32.4824997   8.5939988 109.2960226  31.7603731   8.1108494
  98.9440012  32.8874997   9.7909988  98.5750012  32.0854997   9.4209988
  99.8850012  32.7184997   9.8369988  99.0207289  32.7550153   9.7466316
  95.5540012  26.5474997   5.1839988  95.1070012  27.3934997   5.1649988
  94.9930012  25.9674997   4.6679988  95.4169900  26.5849916   5.1116801
  96.2650012  28.7094997   7.3099988  96.4780012  27.9394997   7.8369988
  97.0030012  28.7984997   6.7059988  96.3938496  28.6161394   7.3005300
 106.4700012  36.8664997   8.1769988 107.0900012  36.1894997   7.9029988
 106.2620012  36.6484997   9.0849988 106.5266904  36.7443870   8.2623365
 104.0420012  31.2554997  10.0689988 104.3460012  30.5694997   9.4739988
 104.7630012  31.3734997  10.6869988 104.1810671  31.1776304  10.0711816
 112.7050012  22.8564997  10.9299988 112.7540012  23.4664997  11.6659988
 113.1300012  23.3174997  10.2069988 112.7691824  23.0023741  10.9330205
 107.1830012  25.6494997  10.3969988 107.3250012  24.7034997  10.4169988
 107.0760012  25.8564997   9.4679988 107.1879864  25.5479534  10.2742339
 100.3370012  23.7504997   7.6689988 100.3810012  24.6104997   7.2509988
  99.8800012  23.1984997   7.0349988 100.2812185  23.7935799   7.5260299
 108.0600012  23.8814997   6.0699988 108.7060012  23.5524997   6.6949988
 108.5700012  24.3994997   5.4469988 108.2174264  23.9064611   6.0713862
  96.9580012  26.1474997   8.4309988  97.6110012  25.5974997   8.8629988
  96.9820012  25.8734997   7.5139988  97.0506683  26.0351466   8.3662123
 102.1140012  27.6974997   7.6459988 102.7300012  27.1714997   8.1559988
 101.5280012  27.0574997   7.2429988 102.1190810  27.5389208   7.6613173
 113.0960012  24.3344997  13.1659988 112.4080012  24.9924997  13.0699988
 113.1120012  24.1374997  14.1019988 113.0038525  24.3980462  13.2794808
  99.1480012  22.6684997  11.7429988  98.9290012  23.1984997  10.9769988
  98.4800012  22.8954997  12.3899988  99.0277600  22.7716906  11.7256379
 106.5170012  32.1684997   5.2869988 106.2210012  31.8464997   4.4359988
 106.1920012  33.0684997   5.3279988 106.4326371  32.2460215   5.1761801
 101.7170012  30.3444997  12.0299988 100.9770012  30.9424997  12.1339988
 102.4310012  30.8984997  11.7149988 101.7122237  30.5012831  12.0016465
 109.8240012  23.1724997   8.0499988 109.6080012  22.4064997   8.5829988
 110.4790012  23.6444997   8.5629988 109.8830632  23.1315889   8.1922861
  98.7410012  24.5604997   9.6949988  99.3550012  25.1934997  10.0689988
  99.2530012  24.0884997   9.0389988  98.8942296  24.5832370   9.6574252
 100.1240012  32.3084997  12.8179988 100.1190012  33.1884997  12.4399988
  99.2710012  32.2254997  13.2429988 100.0079464  32.4176117  12.8237907
  96.2450012  31.9794997   3.5999988  95.9730012  32.2084997   2.7109988
  96.2910012  32.8174997   4.0599988  96.2140094  32.1241213   3.5405697
 109.8700012  33.6014997  10.3119988 108.9290012  33.6594997  10.4739988
 110.1470012  34.5074997  10.1749988 109.7784679  33.7319443  10.3156815
 110.1710012  21.8874997  11.7299988 109.4350012  22.4984997  11.6919988
 110.8540012  22.3024997  11.2029988 110.1626541  22.0271374  11.6535832
 103.1740012  19.9744997   9.1959988 103.0570012  19.0254997   9.1409988
 102.3190012  20.3064997   9.4689988 103.0423733  19.8895409   9.2253897
 108.1220012  35.3824997   6.9379988 108.5480012  34.6754997   6.4529988
 108.4390012  36.1834997   6.5209988 108.2231019  35.3940994   6.8153130
 109.2820012  33.2834997   5.4459988 109.0240012  32.5934997   4.8349988
 109.3530012  32.8404997   6.2919988 109.2562856  33.1292124   5.4766885
 110.9680012  31.8494997  13.9239988 111.1080012  31.2584997  13.1839988
 111.1350012  32.7224997  13.5669988 111.0096778  31.8866426  13.7746965
 105.4410012  28.8114997   3.6959988 104.7290012  29.3464997   3.3439988
 106.1320012  28.8674997   3.0359988 105.4370132  28.8922543   3.5586289
 105.4940012  27.2694997   0.7349988 106.1950012  27.2914997   1.3859988
 105.7970012  26.6414997   0.0789988 105.6307830  27.1876566   0.7353711
 112.8100012  28.1894997  11.9899988 112.1570012  28.8844997  12.0789988
 113.2750012  28.3994997  11.1799988 112.7835390  28.3129425  11.8926883
 108.8460012  29.0214997   4.6479988 108.1140012  29.2494997   5.2209988
 109.2940012  28.3074997   5.1029988 108.8063095  28.9562571   4.7879119
 108.7440012  27.1954997  13.7149988 108.8240012  27.9584997  14.2869988
 108.1420012  27.4744997  13.0249988 108.6735756  27.3377134  13.7000589
 100.4920012  29.6514997   6.5299988 100.1610012  29.2814997   5.7119988
 101.0800012  28.9814997   6.8769988 100.5261873  29.5101156   6.4648102
 101.8580012  33.0794997   9.2119988 101.7640012  32.5014997   8.4549988
 102.5880012  32.7084997   9.7079988 101.9437981  32.9502390   9.1754165
 100.8580012  28.4204997  10.1639988 101.4240012  28.5414997   9.4009988
 101.1770012  29.0574997  10.8029988 100.9785786  28.5231884  10.1460040
 107.1670012  33.9234997  10.8979988 106.9270012  34.5854997  11.5459988
 106.9690012  33.0894997  11.3229988 107.1073808  33.9013134  11.0441524
 101.7380012  32.8194997  14.8809988 101.4270012  33.6014997  15.3359988
 101.0880012  32.6664997  14.1949988 101.6075558  32.9059105  14.8505871
 107.7170012  28.1834997   2.3329988 108.2970012  28.3334997   3.0799988
 108.1310012  28.6544997   1.6099988 107.8522830  28.2676841   2.3374134
  98.6580012  29.0174997  14.1099988  98.7290012  29.6684997  14.8079988
  97.7680012  29.1204997  13.7749988  98.5473117  29.1205936  14.1602700
 105.4440012  34.9204997   5.7679988 105.9180012  35.2154997   6.5459988
 104.8810012  35.6584997   5.5349988 105.4327653  35.0606932   5.8430136
  99.9780012  34.8914997  15.6439988  99.9850012  34.7554997  14.6969988
  99.0620012  34.7734997  15.8959988  99.8551714  34.8569430  15.5484666
 111.4160012  19.9334997   2.1459988 110.5160012  20.0724997   2.4409988
 111.6680012  20.7644997   1.7439988 111.3268702  20.0649074   2.1320205
  99.4820012  28.7214997   4.1199988  99.1900012  29.4894997   3.6289988
  98.8080012  28.0614997   3.9569988  99.3509081  28.7374406   4.0307340
 112.6050012  34.2994997   0.5219988 112.6790012  35.2384997   0.6929988
 113.5110012  33.9944997   0.4659988 112.7375100  34.3866722   0.5378119
  95.5750012  31.0844997  12.9349988  95.0740012  31.0564997  12.1199988
  95.5800012  30.1784997  13.2439988  95.5071526  30.9582278  12.8652872
  95.3250012  33.8644997   9.8189988  96.2710012  33.7204997   9.7999988
  95.2130012  34.6484997  10.3559988  95.4392727  33.9508046   9.8890072
 113.5230012  34.5304997  15.5009988 113.4740012  33.5754997  15.4639988
 112.6960012  34.7984997  15.9019988 113.4044940  34.4358998  15.5501375
 104.5020012  34.1044997  14.3769988 104.5890012  34.9304997  14.8519988
 103.6380012  33.7744997  14.6259988 104.3971964  34.1729878  14.4756549
 104.9160012  37.8764997   4.1829988 104.8410012  37.7554997   3.2369988
 104.9490012  38.8264997   4.3019988 104.9101848  37.9882500   4.0694834
  98.5690012  36.6654997   5.9639988  98.7220012  36.3174997   6.8429988
  97.7190012  36.3094997   5.7089988  98.4748962  36.5696650   6.0498340
 108.0180012  37.0304997   1.1849988 108.3930012  36.2864997   0.7149988
 108.0220012  36.7604997   2.1039988 108.0698915  36.8921486   1.2447824
 107.6870012  36.9564997   3.9349988 106.7510012  37.0564997   4.1129988
 107.9670012  36.2474997   4.5129988 107.5968255  36.8742711   4.0375391
 110.6750012  26.0234997  15.9809988 110.2680012  26.5044997  15.2599988
 110.7160012  25.1184997  15.6729988 110.6248437  25.9669374  15.8406683
  97.8240012  32.4074997  13.9779988  98.0400012  32.0464997  14.8369988
  96.9690012  32.0334997  13.7679988  97.7379292  32.3074111  14.0673386
 100.4430012  20.8774997   9.9729988  99.5810012  20.7904997   9.5659988
 100.4200012  21.7334997  10.4009988 100.3220330  20.9812765   9.9751863
 105.1060012  20.5994997  13.3479988 105.5260012  20.1844997  14.1009988
 104.1730012  20.4214997  13.4649988 105.0373644  20.5185900  13.4669539
 108.4320012  24.3554997  14.2009988 107.9180012  24.2294997  14.9989988
 108.2770012  25.2674997  13.9569988 108.3406852  24.4616132  14.2772158
 109.1950012  29.2164997  -0.0370012 109.2370012  28.9934997  -0.9670012
 110.0440012  29.6154997   0.1529988 109.3155396  29.2399155  -0.1386373
 104.7670012  23.0924997   0.6329988 104.5140012  23.1114997   1.5559988
 104.5110012  22.2204997   0.3319988 104.6977790  22.9772437   0.7186263
 100.5340012  25.8434997  11.0679988  99.8920012  25.8024997  11.7769988
 100.5710012  26.7694997  10.8309988 100.4511324  25.9631559  11.1329824
 100.5310012  26.0644997   5.9799988  99.6380012  25.7234997   5.9219988
 100.9810012  25.6874997   5.2249988 100.4697305  25.9668484   5.8699177
 106.0660012  26.4804997   4.7969988 105.6570012  27.2954997   4.5059988
 106.7870012  26.3404997   4.1829988 106.1074537  26.5732018   4.6741342
 105.1680012  26.6554997  16.2849988 104.6060012  25.9514997  16.6059988
 105.9950012  26.5354997  16.7529988 105.2027095  26.5427883  16.3922330
 107.0710012  25.9264997   7.6109988 106.8760012  26.5314997   6.8959988
 107.2520012  25.0924997   7.1769988 107.0687614  25.8966300   7.4544405
  98.2840012  26.1634997  12.9349988  98.2460012  26.5634997  13.8039988
  97.7930012  25.3464997  13.0259988  98.2124684  26.1078069  13.0661059
 101.6500012  23.5374997  -0.2660012 101.2190012  23.0924997   0.4639988
 100.9320012  23.9094997  -0.7780012 101.4939438  23.5268940  -0.2353201
  94.8920012  23.2794997   6.7859988  95.5230012  23.2504997   7.5049988
  95.3410012  22.8544997   6.0559988  95.0390774  23.2180492   6.7856553
  96.1660012  24.0254997   2.2099988  96.6400012  24.6164997   1.6249988
  95.4490012  24.5564997   2.5569988  96.1339341  24.1780867   2.1768836
 106.3350012  27.5644997  12.2829988 106.6580012  26.9334997  11.6399988
 105.8950012  27.0294997  12.9429988 106.3196895  27.4058441  12.2842850
 103.1120012  23.4914997   7.0669988 102.2010012  23.5484997   7.3549988
 103.6180012  23.4314997   7.8769988 103.0555413  23.4911985   7.2160622
  97.9410012  25.1204997   5.8929988  97.0510012  25.2204997   5.5529988
  98.2370012  24.2784997   5.5469988  97.8592823  25.0203545   5.7997213
 101.5940012  25.1204997   3.5499988 102.5250012  25.2494997   3.7279988
 101.3790012  25.7904997   2.8999988 101.6924247  25.2286565   3.4865747
 107.5170012  22.7264997  10.3309988 106.8410012  22.8574997  10.9949988
 107.0320012  22.5714997   9.5209988 107.3587145  22.7234905  10.3124517
 100.2680012  26.3154997   1.1169988  99.7250012  25.9354997   0.4249988
 101.1010012  26.5094997   0.6879988 100.3064399  26.2898124   0.9644526
 110.8050012  38.3984997  16.6079988 111.0050012  38.8224997  15.7729988
 111.4600012  38.7414997  17.2149988 110.9210051  38.5029648  16.5757836
  98.4030012  30.8724997  16.2159988  99.1350012  31.1264997  16.7769988
  97.6230012  31.0764997  16.7309988  98.3978232  30.9349177  16.3625760
 104.4320012  26.2794997   8.9539988 104.9970012  25.7324997   8.4069988
 104.2850012  25.7574997   9.7419988 104.4892918  26.1342024   8.9858454
  99.4340012  22.4154997   5.3719988  99.1170012  21.5134997   5.3369988
 100.2160012  22.4174997   4.8189988  99.4962284  22.2921628   5.2924783
 103.0590012  24.6674997  11.3679988 102.2230012  25.1214997  11.4779988
 103.5830012  24.9434997  12.1199988 103.0154414  24.7669376  11.4847136
 103.6030012  30.8804997   3.0519988 102.8580012  30.3734997   2.7299988
 103.4690012  30.9294997   3.9989988 103.4828776  30.8176940   3.1358647
 110.7530012  30.0134997  11.8389988 111.3950012  30.4704997  11.2949988
 109.9230012  30.1264997  11.3759988 110.7285963  30.0912704  11.7020177
 107.5010012  23.6944997   1.2519988 106.5620012  23.8064997   1.0999988
 107.7980012  24.5514997   1.5579988 107.4127666  23.8256443   1.2725768
 105.1220012  31.0644997  14.2889988 104.7770012  30.6834997  15.0959988
 104.9220012  31.9984997  14.3609988 105.0478061  31.1385228  14.4090961
 108.2190012  25.5614997   2.9119988 109.1110012  25.4244997   3.2309988
 108.2760012  26.3524997   2.3759988 108.3486285  25.6496660   2.8831691
  98.7280012  30.1754997   8.8219988  99.4730012  30.1734997   8.2209988
  98.8060012  29.3524997   9.3039988  98.8405518  30.0639315   8.8048929
 105.7290012  32.3394997   2.0779988 105.4330012  33.1654997   2.4589988
 105.0260012  31.7194997   2.2739988 105.5934914  32.3688199   2.1566443
  95.7360012  28.6364997  14.1369988  95.9590012  28.2184997  14.9689988
  95.1340012  28.0234997  13.7139988  95.6851759  28.4964668  14.1937022
 102.7520012  28.1534997  16.3499988 102.4560012  27.9874997  15.4549988
 103.6840012  27.9334997  16.3389988 102.8374166  28.1010640  16.2260536
 107.3730012  33.5264997  14.2399988 106.4720012  33.7094997  13.9719988
 107.4070012  33.7854997  15.1609988 107.2543041  33.5865512  14.3278197
 113.1040012  25.7714997   2.6069988 112.5500012  25.3754997   1.9349988
 113.2040012  26.6814997   2.3289988 113.0417059  25.8403586   2.4774401
 113.0670012  31.5714997  15.4439988 112.2160012  31.8094997  15.0769988
 113.6580012  31.5544997  14.6909988 113.0302487  31.6018258  15.2918893
 111.3990012  34.5574997   3.0719988 111.0260012  33.7314997   3.3809988
 111.6770012  34.3744997   2.1749988 111.3855630  34.4197303   2.9929626
 108.5600012  29.3654997  10.0929988 107.6310012  29.1334997  10.0659988
 109.0110012  28.5884997   9.7629988 108.4939216  29.2287238  10.0446917
 101.1030012  33.6934997   6.2259988 101.6300012  34.4664997   6.0259988
 100.2230012  33.9184997   5.9249988 101.0561773  33.8298005   6.1579010
  96.8580012  28.5554997   0.8129988  97.4740012  29.1824997   1.1929988
  95.9960012  28.8714997   1.0849988  96.8257698  28.6839430   0.9017183
 102.5300012  31.3564997   5.8029988 102.2890012  32.2814997   5.8439988
 101.7890012  30.8974997   6.1989988 102.3968409  31.4211421   5.8621377
 103.0450012  35.5054997  12.1179988 103.4070012  36.3604997  11.8839988
 103.5760012  35.2134997  12.8579988 103.1664473  35.5831060  12.1860855
 101.2130012  36.3784997   5.3479988 100.2630012  36.4834997   5.3989988
 101.5650012  37.1984997   5.6929988 101.1304203  36.5038314   5.4016650
 106.5890012  31.6044997  11.8179988 106.1630012  31.3774997  12.6449988
 107.1690012  30.8664997  11.6359988 106.6091868  31.4735299  11.9065830
 108.7920012  32.5334997   0.8919988 109.1450012  32.1534997   1.6969988
 107.8430012  32.4404997   0.9789988 108.7120441  32.4689596   1.0138559
 109.2470012  36.1564997  14.2879988 108.6460012  35.6014997  13.7919988
 109.5290012  36.8234997  13.6619988 109.2028519  36.1706841  14.1354952
 113.2950012  37.0134997   1.0929988 114.0390012  37.5994997   0.9529988
 112.6010012  37.5814997   1.4269988 113.3030292  37.1705582   1.1189961
  97.3700012  23.3894997  13.6949988  96.4770012  23.7284997  13.6269988
  97.2710012  22.5344997  14.1129988  97.2344164  23.3202588  13.7422235
 109.6580012  31.2064997   3.1189988 109.3800012  30.4784997   3.6749988
 110.5850012  31.3254997   3.3239988 109.7453124  31.1228802   3.2228845
  97.0210012  35.1944997  12.1299988  97.2380012  34.2624997  12.0989988
  97.2670012  35.4684997  13.0129988  97.0839549  35.1040636  12.2451763
 102.8830012  33.6454997  -0.6610012 103.1220012  32.8974997  -1.2080012
 102.6140012  33.2574997   0.1719988 102.8793675  33.4906638  -0.6233135
 101.8200012  33.2154997   1.7959988 101.9660012  32.6954997   2.5859988
 101.8170012  34.1224997   2.1019988 101.8395989  33.2668853   1.9456088
  98.2730012  30.4684997   2.3059988  97.5870012  30.8204997   2.8729988
  98.7950012  31.2314997   2.0589988  98.2496852  30.6198578   2.3502118
 106.1040012  23.1304997  12.5849988 106.8030012  23.2044997  13.2349988
 105.7230012  22.2664997  12.7389988 106.1481767  23.0237624  12.6948322
 106.8890012  22.7824997   3.6819988 107.1090012  23.2544997   2.8789988
 107.4470012  23.1774997   4.3519988 106.9944968  22.9004285   3.6627331
 104.5570012  34.9134997   2.5449988 103.7410012  35.4104997   2.5969988
 105.0870012  35.3884997   1.9049988 104.5169161  35.0457722   2.4655956
 104.0890012  24.5104997   4.5169988 104.9010012  25.0154997   4.5629988
 103.8440012  24.3654997   5.4309988 104.1670520  24.5600375   4.6468517
 104.6240012  25.4964997  13.7019988 104.7430012  26.0704997  14.4589988
 105.2800012  24.8084997  13.8159988 104.7289757  25.4821079  13.8210825
 104.9720012  21.5914997   5.4549988 104.6260012  22.2094997   6.0999988
 105.6310012  22.0924997   4.9739988 105.0137826  21.7435802   5.4780971
 101.8960012  35.9574997   2.5269988 102.0560012  36.7564997   2.0259988
 101.6980012  36.2634997   3.4119988 101.8911649  36.1084469   2.5779815
 100.6300012  22.6544997   2.1419988 100.5470012  23.5434997   2.4889988
 101.5200012  22.3894997   2.3739988 100.7389469  22.7401430   2.2207626
 110.8290012  23.4034997  14.5369988 109.9120012  23.6664997  14.4489988
 111.1640012  23.4004997  13.6399988 110.7489900  23.4390224  14.4037919
 109.4310012  27.1544997   8.6319988 108.6330012  26.7394997   8.3039988
 109.8760012  26.4634997   9.1229988 109.3819885  27.0043543   8.6534889
  98.8890012  33.0824997   1.2029988  99.4810012  33.7814997   1.4789988
  99.3480012  32.6494997   0.4829988  99.0321142  33.1197049   1.1434830
  97.2050012  25.7464997   0.3189988  97.1600012  26.6854997   0.4969988
  96.3170012  25.5104997   0.0489988  97.0788574  25.8431892   0.3068912
 110.5170012  36.4104997  10.2549988 110.3620012  37.0884997   9.5979988
 111.4500012  36.4824997  10.4579988 110.6218500  36.5130170  10.1925119
  98.0130012  20.5284997   8.9919988  97.7840012  20.5874997   8.0639988
  97.5700012  19.7364997   9.2979988  97.9218530  20.4295753   8.9064786
  96.9430012  34.4684997   5.1519988  96.1110012  34.9414997   5.1799988
  97.4890012  34.9784997   4.5539988  96.9029739  34.6021871   5.0749716
  96.2310012  37.0814997  16.4819988  96.7720012  36.8644997  17.2419988
  95.7500012  36.2754997  16.2929988  96.2399345  36.9429514  16.5603076
 100.8290012  36.0004997  18.1029988 101.5960012  35.5414997  18.4439988
 100.8070012  35.7744997  17.1729988 100.9311434  35.9070409  18.0240043
 104.9210012  35.5084997  -0.5220012 104.2770012  34.8774997  -0.2010012
 105.6830012  34.9774997  -0.7540012 104.9358077  35.3502920  -0.5093989
 107.4060012  34.3804997  16.8319988 107.0550012  33.5244997  17.0749988
 108.1320012  34.5234997  17.4389988 107.4560769  34.2825636  16.9473619
 109.5250012  35.3254997  -0.2880012 109.8080012  34.5314997   0.1639988
 110.2650012  35.5584997  -0.8490012 109.6637486  35.2482803  -0.3019302
  96.1380012  30.8914997  17.4369988  96.2820012  29.9894997  17.1499988
  95.3660012  31.1774997  16.9489988  96.0533322  30.8068261  17.3317881
 100.4800012  31.2354997  -0.4310012 100.5440012  30.4414997   0.0999988
 101.1330012  31.1164997  -1.1210012 100.5770241  31.1107148  -0.4515683
 102.7940012  30.8614997  16.8689988 102.4650012  31.1324997  16.0119988
 102.9460012  29.9204997  16.7819988 102.7694809  30.7713862  16.7398244
 105.8320012  32.2824997  -0.6950012 105.5630012  32.4624997   0.2059988
 105.6260012  31.3564997  -0.8260012 105.7673825  32.1820152  -0.5894786
 108.5280012  30.7774997  14.2529988 109.2740012  31.3654997  14.1329988
 107.7710012  31.3594997  14.3159988 108.5277554  30.9367011  14.2450907
  96.9710012  28.0914997  16.8569988  97.3790012  27.2344997  16.7359988
  96.7110012  28.1064997  17.7779988  96.9917568  27.9760807  16.9649588
 101.6290012  29.2074997   1.8749988 101.1690012  28.7234997   2.5609988
 101.8840012  28.5394997   1.2389988 101.6004902  29.0508731   1.8829334
 100.9180012  27.1004997  14.2309988 100.3000012  27.7754997  14.5109988
 101.2620012  27.4214997  13.3979988 100.8799615  27.2362721  14.1566581
 102.7000012  27.4504997   0.1369988 102.5200012  27.2964997  -0.7900012
 103.6500012  27.5584997   0.1819988 102.8037776  27.4440175   0.0161843
 105.9380012  29.5724997  17.5079988 106.8910012  29.6554997  17.4809988
 105.7770012  28.8604997  18.1279988 106.0466426  29.4876746  17.5880579
 112.0900012  29.8054997  -0.4170012 111.8160012  29.3804997  -1.2300012
 112.1290012  30.7364997  -0.6340012 112.0577699  29.8732484  -0.5576390
 101.2570012  24.4554997  15.3129988 101.4070012  23.7264997  14.7109988
 101.2600012  25.2324997  14.7539988 101.2779302  24.4607851  15.1550692
 101.6700012  22.8254997  12.8059988 102.2060012  23.2764997  12.1539988
 100.8180012  22.7174997  12.3829988 101.6282178  22.8726390  12.6595756
 103.2520012  28.2644997  13.0449988 104.0020012  28.1084997  12.4719988
 102.9130012  29.1164997  12.7699988 103.3088921  28.3582968  12.9293561
 107.6670012  26.0794997  18.0739988 107.8600012  25.1484997  17.9619988
 108.5250012  26.5044997  18.0639988 107.8093020  26.0096389  18.0573361
 108.9840012  28.8684997  16.1509988 108.7030012  29.5774997  15.5739988
 109.9270012  28.7954997  15.9999988 109.0729027  28.9557646  16.0515551
  99.7360012  25.6534997  17.2249988  98.9690012  25.1214997  17.0149988
 100.4150012  25.3434997  16.6249988  99.7227022  25.5387506  17.1151648
 102.4760012  20.2814997  13.2369988 102.3770012  21.2284997  13.1319988
 101.7330012  19.9094997  12.7619988 102.3620564  20.3605902  13.1584560
 103.7400012  24.6034997  16.8009988 103.5040012  24.3834997  17.7029988
 102.9560012  24.3964997  16.2909988 103.6018628  24.5454760  16.8553932
 106.4550012  23.7304997  15.8769988 105.5080012  23.7624997  16.0089988
 106.7680012  23.1054997  16.5299988 106.3675475  23.6503207  15.9834455
 108.0890012  22.3644997  17.8819988 107.9930012  21.4124997  17.8759988
 107.7680012  22.6334997  18.7419988 108.0324070  22.2704035  17.9975441
  97.9160012  23.5744997  16.9289988  98.1280012  22.8674997  16.3189988
  97.8050012  23.1364997  17.7729988  97.9299721  23.4187084  16.9596843
 102.6970012  19.5754997  15.9089988 103.4090012  18.9354997  15.8949988
 102.5960012  19.8424997  14.9949988 102.7807939  19.5239938  15.7835650
 103.0510012  21.2584997  17.9619988 102.9190012  20.7824997  17.1419988
 102.4520012  22.0024997  17.9069988 102.9519071  21.2939618  17.8422886
 102.5970012  38.1414997   1.1389988 103.5300012  38.2994997   1.2819988
 102.3330012  38.8164997   0.5139988 102.6889510  38.2543611   1.0740741
  96.1660012  32.7774997   0.6209988  97.0800012  32.8564997   0.8949988
  96.1730012  32.0904997  -0.0450012  96.2921131  32.6953961   0.5684393
  94.8150012  38.1704997   5.6989988  94.1680012  37.7084997   5.1659988
  95.1690012  37.4984997   6.2809988  94.7743849  38.0164723   5.7047959
  95.6850012  36.2514997   7.5029988  95.3500012  35.3714997   7.6749988
  95.9070012  36.5964997   8.3679988  95.6691783  36.1777500   7.6434208
 113.2330012  37.0604997  10.4839988 113.2120012  37.2454997  11.4229988
 113.9240012  37.6294997  10.1429988 113.3234618  37.1626606  10.5663864
 112.7970012  36.6284997  13.4059988 112.3090012  35.8924997  13.0349988
 113.3460012  36.2344997  14.0839988 112.8044872  36.4746249  13.4469160
 111.2470012  32.4174997  18.0439988 110.3810012  32.3124997  18.4379988
 111.6240012  33.1764997  18.4899988 111.1793308  32.5056900  18.1582393
 112.5480012  30.6744997   3.5579988 113.3980012  31.0954997   3.6849988
 112.5540012  29.9344997   4.1649988 112.6651372  30.6320803   3.6574344
 112.9430012  28.7274997   5.3819988 112.2160012  28.2484997   5.7789988
 113.5240012  28.9334997   6.1139988 112.9219375  28.6897090   5.5354129
 112.7020012  31.5124997  10.3289988 113.5350012  31.1344997  10.0489988
 112.8140012  32.4554997  10.2099988 112.8312647  31.5882218  10.2745487
 111.1880012  34.3904997  12.6359988 110.5410012  34.7154997  13.2619988
 110.6710012  33.9504997  11.9619988 111.0294029  34.3755004  12.6305827
 113.2110012  28.6284997   1.7729988 112.6890012  28.9854997   1.0539988
 113.1780012  29.3034997   2.4509988 113.1351634  28.7685413   1.7663145
 111.5600012  25.8684997   0.3239988 111.6560012  26.5354997  -0.3570012
 111.4200012  25.0524997  -0.1580012 111.5542135  25.8494500   0.1658491
 110.7290012  27.2484997   5.9449988 110.5790012  26.3034997   5.9239988
 110.3760012  27.5294997   6.7879988 110.6606625  27.1570441   6.0562346
  95.7650012  29.3264997   9.9549988  95.9490012  29.2444997   9.0189988
  96.6140012  29.2024997  10.3789988  95.9050139  29.2985003   9.8841455
 111.5860012  29.2184997  15.5829988 112.1690012  28.4844997  15.7749988
 112.1500012  29.9904997  15.6299988 111.7419769  29.2224227  15.6156159
 113.0820012  27.1214997  16.2679988 112.2190012  26.7424997  16.1019988
 113.6870012  26.3824997  16.1939988 113.0455979  26.9698023  16.2352817
 110.8070012  23.2764997  -0.5590012 111.4180012  22.9054997   0.0779988
 109.9710012  22.8554997  -0.3630012 110.7775032  23.1687554  -0.4452965
 110.4400012  24.8314997   4.4069988 110.7200012  23.9244997   4.5309988
 111.1990012  25.2654997   4.0179988 110.5809277  24.7660942   4.3713682
 111.0520012  25.4124997   9.8429988 111.9850012  25.6244997   9.8089988
 110.8170012  25.5144997  10.7649988 111.1478036  25.4552769   9.9629976
 111.0810012  26.1494997  12.6189988 110.2380012  26.4174997  12.9849988
 111.5230012  26.9714997  12.4079988 111.0254158  26.2973291  12.6405491
  95.3620012  24.5974997  16.0959988  96.2820012  24.4754997  16.3319988
  94.9130012  23.8474997  16.4849988  95.4271580  24.4793727  16.1809006
 113.3640012  20.1294997  17.9719988 113.7140012  19.4754997  17.3669988
 113.5110012  20.9664997  17.5329988 113.4318419  20.1531591  17.8297118
 111.0530012  22.0944997   4.4549988 111.2360012  21.6454997   5.2809988
 110.4540012  21.5094997   3.9919988 110.9970202  21.9539975   4.5053275
  96.5830012  22.9094997   8.9869988  97.0290012  22.1174997   9.2889988
  97.0500012  23.6254997   9.4179988  96.7070172  22.8980624   9.0864820
  94.8870012  25.9084997  10.0559988  95.3790012  25.6874997   9.2649988
  95.2500012  26.7494997  10.3369988  95.0033126  25.9918357   9.9857531
 112.8840012  22.2384997  16.3219988 111.9660012  22.5094997  16.2859988
 113.0070012  21.7034997  15.5369988 112.7751066  22.2032892  16.2110487
 112.9200012  22.1614997   0.9829988 113.3320012  21.4404997   0.5079988
 113.6020012  22.8314997   1.0419988 113.0685885  22.1532368   0.9258915
  95.2010012  22.1664997   4.1099988  94.2760012  22.3754997   3.9809988
  95.6550012  22.6504997   3.4209988  95.1357368  22.2605993   3.9991226
 109.9720012  37.1504997   6.0559988 110.6240012  36.8034997   5.4479988
 110.4820012  37.6394997   6.7019988 110.1302637  37.1690597   6.0600236
  95.1650012  20.9044997  12.4549988  94.5000012  20.6584997  13.0979988
  94.7220012  21.5264997  11.8769988  95.0140956  20.9548632  12.4649352
  97.3570012  34.0794997  16.5989988  96.5360012  34.2544997  16.1389988
  97.1040012  34.0064997  17.5199988  97.2106164  34.0935622  16.6604923
 100.3110012  35.0544997  12.8579988  99.8860012  35.8634997  12.5749988
 101.2150012  35.1394997  12.5559988 100.3750271  35.1768469  12.7783776
 104.6220012  36.4534997  15.8169988 104.8070012  36.1194997  16.6949988
 105.4680012  36.7624997  15.4949988 104.7617539  36.4496047  15.8935605
 106.9670012  37.7394997  15.0609988 107.6440012  37.1064997  14.8209988
 107.2890012  38.1404997  15.8679988 107.1031637  37.7071154  15.1372793
 111.8840012  20.3284997  14.1409988 111.0720012  20.6534997  13.7529988
 112.1170012  19.5684997  13.6079988 111.8043423  20.2702436  14.0158253
  97.7130012  38.3104997  12.9049988  96.9920012  38.7504997  12.4539988
  97.3470012  38.0594997  13.7539988  97.5649804  38.3367698  12.9579840
 100.1800012  37.9104997  11.9349988  99.3150012  37.9824997  12.3389988
 100.1250012  38.4574997  11.1509988 100.0542085  37.9942685  11.8843362
 104.8900012  37.7984997  11.1099988 104.4340012  38.3274997  10.4559988
 105.0530012  38.4014997  11.8359988 104.8495585  37.9524468  11.1185062
 107.2180012  36.6764997  12.0549988 106.3130012  36.8414997  11.7899988
 107.6470012  37.5294997  11.9899988 107.1520799  36.8144483  12.0099182
 109.8220012  38.2464997  12.3499988 109.6400012  39.1624997  12.1399988
 109.9990012  37.8364997  11.5039988 109.8210210  38.3164822  12.2067885
  97.1270012  36.9334997   9.8149988  97.1090012  36.5084997  10.6729988
  97.9320012  36.6154997   9.4069988  97.2333875  36.8323812   9.8771655
  99.2690012  35.6434997   8.4699988  99.0500012  34.7274997   8.6399988
 100.0930012  35.7834997   8.9359988  99.3504420  35.5370520   8.5562774
 101.8060012  36.1134997   9.3189988 102.0190012  35.2254997   9.0319988
 101.8700012  36.0794997  10.2729988 101.8438232  35.9873102   9.4087397
 105.3140012  21.7774997   8.4629988 104.6400012  21.1484997   8.7189988
 105.8780012  21.2934997   7.8599988 105.2979230  21.6258744   8.4165340
 110.4570012  19.8854997   8.5759988 111.0610012  20.4324997   8.0739988
 109.5870012  20.2044997   8.3359988 110.4221241  20.0035806   8.4747654
 112.1840012  21.0234997   6.9089988 112.7960012  20.5094997   6.3829988
 112.5660012  21.9014997   6.9329988 112.3194540  21.0717140   6.8401830
  97.6410012  20.4114997   6.2849988  96.8640012  20.1774997   5.7779988
  98.1710012  19.6144997   6.2939988  97.6062330  20.2716988   6.2167742
  96.4770012  20.2094997   2.0889988  96.9160012  20.8204997   1.4969988
  95.8440012  20.7474997   2.5629988  96.4514514  20.3659257   2.0720930
 102.2200012  20.3384997   6.0989988 103.0950012  20.7264997   6.0689988
 102.0840012  20.1234997   7.0209988 102.3213695  20.3625184   6.2196440
 107.7770012  20.3684997   7.7479988 107.8530012  20.4634997   6.7979988
 107.5020012  19.4604997   7.8769988 107.7502321  20.2587867   7.6355079
 109.1300012  20.3944997   3.4399988 108.4280012  21.0094997   3.2309988
 108.6860012  19.5564997   3.5709988 108.9736330  20.3655783   3.4290328
  96.3780012  36.1574997   2.9869988  95.6930012  36.1194997   2.3189988
  96.3820012  37.0704997   3.2749988  96.2848193  36.2757016   2.9345284
  98.3380012  22.1254997   0.5309988  98.8300012  21.4954997   0.0039988
  98.9620012  22.4214997   1.1949988  98.4895446  22.0793199   0.5485980
 103.3640012  22.4184997   2.9879988 103.5420012  21.7724997   3.6709988
 103.3110012  23.2524997   3.4559988 103.3811829  22.4427985   3.1445940
 105.2430012  37.3674997   1.3839988 106.1090012  37.7334997   1.2059988
 104.9960012  36.9274997   0.5699988 105.3282392  37.3581756   1.2496289
 111.9520012  36.9304997   4.0629988 111.7570012  36.1824997   3.4979988
 111.9130012  37.6884997   3.4799988 111.9200380  36.9306099   3.9068384
  97.5990012  20.9254997  15.8029988  97.2330012  20.1604997  16.2459988
  98.5120012  20.9544997  16.0899988  97.6722790  20.8247224  15.9024070
  99.5720012  20.2764997  17.3389988 100.4700012  20.0024997  17.1539988
  99.1850012  19.5334997  17.8029988  99.6426612  20.1385914  17.3763643
  98.1960012  37.0774997   0.0119988  97.9290012  37.3644997   0.8849988
  98.9680012  36.5314997   0.1639988  98.2637488  37.0430294   0.1521050
 107.9930012  19.6084997  17.5209988 108.0700012  19.1824997  18.3749988
 108.8870012  19.6224997  17.1779988 108.1243428  19.5520879  17.5915310
 111.1690012  35.6814997  16.2129988 110.3870012  35.4954997  15.6939988
 111.0970012  36.6104997  16.4309988 111.0521777  35.7816492  16.1714048
 125.5750012  29.5674997   6.2439988 125.6640012  30.5114997   6.1119988
 124.9370012  29.2924997   5.5859988 125.5009081  29.6594830   6.1369614
 124.5080012  28.8224997   9.6629988 124.4700012  28.1764997  10.3679988
 124.1860012  28.3564997   8.8919988 124.4592333  28.6709408   9.6552978
 116.8770012  28.4374997  11.2559988 116.9180012  27.8114997  11.9789988
 117.5800012  29.0614997  11.4379988 116.9776363  28.4361196  11.3796044
 128.2140012  31.7614997   7.9639988 127.7740012  31.0414997   8.4149988
 128.2010012  32.4824997   8.5939988 128.1520226  31.7603731   8.1108494
 117.8000012  32.8874997   9.7909988 117.4310012  32.0854997   9.4209988
 118.7410012  32.7184997   9.8369988 117.8767289  32.7550153   9.7466316
 114.4100012  26.5474997   5.1839988 113.9630012  27.3934997   5.1649988
 113.8490012  25.9674997   4.6679988 114.2729900  26.5849916   5.1116801
 115.1210012  28.7094997   7.3099988 115.3340012  27.9394997   7.8369988
 115.8590012  28.7984997   6.7059988 115.2498496  28.6161394   7.3005300
 125.3260012  36.8664997   8.1769988 125.9460012  36.1894997   7.9029988
 125.1180012  36.6484997   9.0849988 125.3826904  36.7443870   8.2623365
 122.8980012  31.2554997  10.0689988 123.2020012  30.5694997   9.4739988
 123.6190012  31.3734997  10.6869988 123.0370671  31.1776305  10.0711816
 131.5610012  22.8564997  10.9299988 131.6100012  23.4664997  11.6659988
 131.9860012  23.3174997  10.2069988 131.6251824  23.0023741  10.9330205
 126.0390012  25.6494997  10.3969988 126.1810012  24.7034997  10.4169988
 125.9320012  25.8564997   9.4679988 126.0439864  25.5479534  10.2742339
 119.1930012  23.7504997   7.6689988 119.2370012  24.6104997   7.2509988
 118.7360012  23.1984997   7.0349988 119.1372185  23.7935799   7.5260299
 126.9160012  23.8814997   6.0699988 127.5620012  23.5524997   6.6949988
 127.4260012  24.3994997   5.4469988 127.0734264  23.9064611   6.0713862
 115.8140012  26.1474997   8.4309988 116.4670012  25.5974997   8.8629988
 115.8380012  25.8734997   7.5139988 115.9066683  26.0351466   8.3662123
 120.9700012  27.6974997   7.6459988 121.5860012  27.1714997   8.1559988
 120.3840012  27.0574997   7.2429988 120.9750810  27.5389208   7.6613173
 131.9520012  24.3344997  13.1659988 131.2640012  24.9924997  13.0699988
 131.9680012  24.1374997  14.1019988 131.8598525  24.3980462  13.2794808
 118.0040012  22.6684997  11.7429988 117.7850012  23.1984997  10.9769988
 117.3360012  22.8954997  12.3899988 117.8837600  22.7716906  11.7256379
 125.3730012  32.1684997   5.2869988 125.0770012  31.8464997   4.4359988
 125.0480012  33.0684997   5.3279988 125.2886371  32.2460215   5.1761801
 120.5730012  30.3444997  12.0299988 119.8330012  30.9424997  12.1339988
 121.2870012  30.8984997  11.7149988 120.5682237  30.5012831  12.0016465
 128.6800012  23.1724997   8.0499988 128.4640012  22.4064997   8.5829988
 129.3350012  23.6444997   8.5629988 128.7390632  23.1315889   8.1922861
 117.5970012  24.5604997   9.6949988 118.2110012  25.1934997  10.0689988
 118.1090012  24.0884997   9.0389988 117.7502296  24.5832370   9.6574252
 118.9800012  32.3084997  12.8179988 118.9750012  33.1884997  12.4399988
 118.1270012  32.2254997  13.2429988 118.8639464  32.4176117  12.8237907
 115.1010012  31.9794997   3.5999988 114.8290012  32.2084997   2.7109988
 115.1470012  32.8174997   4.0599988 115.0700094  32.1241213   3.5405697
 128.7260012  33.6014997  10.3119988 127.7850012  33.6594997  10.4739988
 129.0030012  34.5074997  10.1749988 128.6344679  33.7319443  10.3156815
 129.0270012  21.8874997  11.7299988 128.2910012  22.4984997  11.6919988
 129.7100012  22.3024997  11.2029988 129.0186541  22.0271374  11.6535832
 122.0300012  19.9744997   9.1959988 121.9130012  19.0254997   9.1409988
 121.1750012  20.3064997   9.4689988 121.8983733  19.8895409   9.2253897
 126.9780012  35.3824997   6.9379988 127.4040012  34.6754997   6.4529988
 127.2950012  36.1834997   6.5209988 127.0791019  35.3940994   6.8153130
 128.1380012  33.2834997   5.4459988 127.8800012  32.5934997   4.8349988
 128.2090012  32.8404997   6.2919988 128.1122856  33.1292124   5.4766885
 129.8240012  31.8494997  13.9239988 129.9640012  31.2584997  13.1839988
 129.9910012  32.7224997  13.5669988 129.8656778  31.8866426  13.7746965
 124.2970012  28.8114997   3.6959988 123.5850012  29.3464997   3.3439988
 124.9880012  28.8674997   3.0359988 124.2930132  28.8922543   3.5586289
 124.3500012  27.2694997   0.7349988 125.0510012  27.2914997   1.3859988
 124.6530012  26.6414997   0.0789988 124.4867830  27.1876566   0.7353711
 131.6660012  28.1894997  11.9899988 131.0130012  28.8844997  12.0789988
 132.1310012  28.3994997  11.1799988 131.6395390  28.3129425  11.8926883
 127.7020012  29.0214997   4.6479988 126.9700012  29.2494997   5.2209988
 128.1500012  28.3074997   5.1029988 127.6623095  28.9562571   4.7879119
 127.6000012  27.1954997  13.7149988 127.6800012  27.9584997  14.2869988
 126.9980012  27.4744997  13.0249988 127.5295756  27.3377134  13.7000589
 119.3480012  29.6514997   6.5299988 119.0170012  29.2814997   5.7119988
 119.9360012  28.9814997   6.8769988 119.3821873  29.5101156   6.4648102
 120.7140012  33.0794997   9.2119988 120.6200012  32.5014997   8.4549988
 121.4440012  32.7084997   9.7079988 120.7997981  32.9502390   9.1754165
 119.7140012  28.4204997  10.1639988 120.2800012  28.5414997   9.4009988
 120.0330012  29.0574997  10.8029988 119.8345786  28.5231884  10.1460040
 126.0230012  33.9234997  10.8979988 125.7830012  34.5854997  11.5459988
 125.8250012  33.0894997  11.3229988 125.9633808  33.9013134  11.0441524
 120.5940012  32.8194997  14.8809988 120.2830012  33.6014997  15.3359988
 119.9440012  32.6664997  14.1949988 120.4635558  32.9059105  14.8505871
 126.5730012  28.1834997   2.3329988 127.1530012  28.3334997   3.0799988
 126.9870012  28.6544997   1.6099988 126.7082830  28.2676841   2.3374134
 117.5140012  29.0174997  14.1099988 117.5850012  29.6684997  14.8079988
 116.6240012  29.1204997  13.7749988 117.4033117  29.1205936  14.1602700
 124.3000012  34.9204997   5.7679988 124.7740012  35.2154997   6.5459988
 123.7370012  35.6584997   5.5349988 124.2887653  35.0606932   5.8430136
 118.8340012  34.8914997  15.6439988 118.8410012  34.7554997  14.6969988
 117.9180012  34.7734997  15.8959988 118.7111714  34.8569430  15.5484666
 130.2720012  19.9334997   2.1459988 129.3720012  20.0724997   2.4409988
 130.5240012  20.7644997   1.7439988 130.1828702  20.0649074   2.1320205
 118.3380012  28.7214997   4.1199988 118.0460012  29.4894997   3.6289988
 117.6640012  28.0614997   3.9569988 118.2069081  28.7374406   4.0307340
 131.4610012  34.2994997   0.5219988 131.5350012  35.2384997   0.6929988
 132.3670012  33.9944997   0.4659988 131.5935100  34.3866722   0.5378119
 114.4310012  31.0844997  12.9349988 113.9300012  31.0564997  12.1199988
 114.4360012  30.1784997  13.2439988 114.3631526  30.9582278  12.8652872
 114.1810012  33.8644997   9.8189988 115.1270012  33.7204997   9.7999988
 114.0690012  34.6484997  10.3559988 114.2952727  33.9508046   9.8890072
 132.3790012  34.5304997  15.5009988 132.3300012  33.5754997  15.4639988
 131.5520012  34.7984997  15.9019988 132.2604940  34.4358998  15.5501375
 123.3580012  34.1044997  14.3769988 123.4450012  34.9304997  14.8519988
 122.4940012  33.7744997  14.6259988 123.2531964  34.1729878  14.4756549
 123.7720012  37.8764997   4.1829988 123.6970012  37.7554997   3.2369988
 123.8050012  38.8264997   4.3019988 123.7661848  37.9882500   4.0694834
 117.4250012  36.6654997   5.9639988 117.5780012  36.3174997   6.8429988
 116.5750012  36.3094997   5.7089988 117.3308962  36.5696650   6.0498340
 126.8740012  37.0304997   1.1849988 127.2490012  36.2864997   0.7149988
 126.8780012  36.7604997   2.1039988 126.9258915  36.8921486   1.2447824
 126.5430012  36.9564997   3.9349988 125.6070012  37.0564997   4.1129988
 126.8230012  36.2474997   4.5129988 126.4528255  36.8742711   4.0375391
 129.5310012  26.0234997  15.9809988 129.1240012  26.5044997  15.2599988
 129.5720012  25.1184997  15.6729988 129.4808437  25.9669374  15.8406683
 116.6800012  32.4074997  13.9779988 116.8960012  32.0464997  14.8369988
 115.8250012  32.0334997  13.7679988 116.5939292  32.3074111  14.0673386
 119.2990012  20.8774997   9.9729988 118.4370012  20.7904997   9.5659988
 119.2760012  21.7334997  10.4009988 119.1780330  20.9812765   9.9751863
 123.9620012  20.5994997  13.3479988 124.3820012  20.1844997  14.1009988
 123.0290012  20.4214997  13.4649988 123.8933644  20.5185900  13.4669539
 127.2880012  24.3554997  14.2009988 126.7740012  24.2294997  14.9989988
 127.1330012  25.2674997  13.9569988 127.1966852  24.4616132  14.2772158
 128.0510012  29.2164997  -0.0370012 128.0930012  28.9934997  -0.9670012
 128.9000012  29.6154997   0.1529988 128.1715396  29.2399155  -0.1386373
 123.6230012  23.0924997   0.6329988 123.3700012  23.1114997   1.5559988
 123.3670012  22.2204997   0.3319988 123.5537790  22.9772437   0.7186263
 119.3900012  25.8434997  11.0679988 118.7480012  25.8024997  11.7769988
 119.4270012  26.7694997  10.8309988 119.3071324  25.9631559  11.1329824
 119.3870012  26.0644997   5.9799988 118.4940012  25.7234997   5.9219988
 119.8370012  25.6874997   5.2249988 119.3257305  25.9668484   5.8699177
 124.9220012  26.4804997   4.7969988 124.5130012  27.2954997   4.5059988
 125.6430012  26.3404997   4.1829988 124.9634537  26.5732018   4.6741342
 124.0240012  26.6554997  16.2849988 123.4620012  25.9514997  16.6059988
 124.8510012  26.5354997  16.7529988 124.0587095  26.5427883  16.3922330
 125.9270012  25.9264997   7.6109988 125.7320012  26.5314997   6.8959988
 126.1080012  25.0924997   7.1769988 125.9247614  25.8966300   7.4544405
 117.1400012  26.1634997  12.9349988 117.1020012  26.5634997  13.8039988
 116.6490012  25.3464997  13.0259988 117.0684684  26.1078069  13.0661059
 120.5060012  23.5374997  -0.2660012 120.0750012  23.0924997   0.4639988
 119.7880012  23.9094997  -0.7780012 120.3499438  23.5268940  -0.2353201
 113.7480012  23.2794997   6.7859988 114.3790012  23.2504997   7.5049988
 114.1970012  22.8544997   6.0559988 113.8950774  23.2180492   6.7856553
 115.0220012  24.0254997   2.2099988 115.4960012  24.6164997   1.6249988
 114.3050012  24.5564997   2.5569988 114.9899341  24.1780867   2.1768836
 125.1910012  27.5644997  12.2829988 125.5140012  26.9334997  11.6399988
 124.7510012  27.0294997  12.9429988 125.1756895  27.4058441  12.2842850
 121.9680012  23.4914997   7.0669988 121.0570012  23.5484997   7.3549988
 122.4740012  23.4314997   7.8769988 121.9115413  23.4911985   7.2160622
 116.7970012  25.1204997   5.8929988 115.9070012  25.2204997   5.5529988
 117.0930012  24.2784997   5.5469988 116.7152823  25.0203545   5.7997213
 120.4500012  25.1204997   3.5499988 121.3810012  25.2494997   3.7279988
 120.2350012  25.7904997   2.8999988 120.5484247  25.2286565   3.4865747
 126.3730012  22.7264997  10.3309988 125.6970012  22.8574997  10.9949988
 125.8880012  22.5714997   9.5209988 126.2147145  22.7234905  10.3124517
 119.1240012  26.3154997   1.1169988 118.5810012  25.9354997   0.4249988
 119.9570012  26.5094997   0.6879988 119.1624399  26.2898124   0.9644526
 129.6610012  38.3984997  16.6079988 129.8610012  38.8224997  15.7729988
 130.3160012  38.7414997  17.2149988 129.7770051  38.5029648  16.5757836
 117.2590012  30.8724997  16.2159988 117.9910012  31.1264997  16.7769988
 116.4790012  31.0764997  16.7309988 117.2538232  30.9349177  16.3625760
 123.2880012  26.2794997   8.9539988 123.8530012  25.7324997   8.4069988
 123.1410012  25.7574997   9.7419988 123.3452918  26.1342024   8.9858454
 118.2900012  22.4154997   5.3719988 117.9730012  21.5134997   5.3369988
 119.0720012  22.4174997   4.8189988 118.3522284  22.2921628   5.2924783
 121.9150012  24.6674997  11.3679988 121.0790012  25.1214997  11.4779988
 122.4390012  24.9434997  12.1199988 121.8714414  24.7669376  11.4847136
 122.4590012  30.8804997   3.0519988 121.7140012  30.3734997   2.7299988
 122.3250012  30.9294997   3.9989988 122.3388776  30.8176940   3.1358647
 129.6090012  30.0134997  11.8389988 130.2510012  30.4704997  11.2949988
 128.7790012  30.1264997  11.3759988 129.5845963  30.0912704  11.7020177
 126.3570012  23.6944997   1.2519988 125.4180012  23.8064997   1.0999988
 126.6540012  24.5514997   1.5579988 126.2687666  23.8256443   1.2725768
 123.9780012  31.0644997  14.2889988 123.6330012  30.6834997  15.0959988
 123.7780012  31.9984997  14.3609988 123.9038061  31.1385228  14.4090961
 127.0750012  25.5614997   2.9119988 127.9670012  25.4244997   3.2309988
 127.1320012  26.3524997   2.3759988 127.2046285  25.6496660   2.8831691
 117.5840012  30.1754997   8.8219988 118.3290012  30.1734997   8.2209988
 117.6620012  29.3524997   9.3039988 117.6965518  30.0639315   8.8048929
 124.5850012  32.3394997   2.0779988 124.2890012  33.1654997   2.4589988
 123.8820012  31.7194997   2.2739988 124.4494914  32.3688199   2.1566443
 114.5920012  28.6364997  14.1369988 114.8150012  28.2184997  14.9689988
 113.9900012  28.0234997  13.7139988 114.5411759  28.4964668  14.1937022
 121.6080012  28.1534997  16.3499988 121.3120012  27.9874997  15.4549988
 122.5400012  27.9334997  16.3389988 121.6934166  28.1010640  16.2260536
 126.2290012  33.5264997  14.2399988 125.3280012  33.7094997  13.9719988
 126.2630012  33.7854997  15.1609988 126.1103041  33.5865512  14.3278197
 131.9600012  25.7714997   2.6069988 131.4060012  25.3754997   1.9349988
 132.0600012  26.6814997   2.3289988 131.8977059  25.8403586   2.4774401
 131.9230012  31.5714997  15.4439988 131.0720012  31.8094997  15.0769988
 132.5140012  31.5544997  14.6909988 131.8862487  31.6018258  15.2918893
 130.2550012  34.5574997   3.0719988 129.8820012  33.7314997   3.3809988
 130.5330012  34.3744997   2.1749988 130.2415630  34.4197303   2.9929626
 127.4160012  29.3654997  10.0929988 126.4870012  29.1334997  10.0659988
 127.8670012  28.5884997   9.7629988 127.3499216  29.2287238  10.0446917
 119.9590012  33.6934997   6.2259988 120.4860012  34.4664997   6.0259988
 119.0790012  33.9184997   5.9249988 119.9121773  33.8298005   6.1579010
 115.7140012  28.5554997   0.8129988 116.3300012  29.1824997   1.1929988
 114.8520012  28.8714997   1.0849988 115.6817698  28.6839430   0.9017183
 121.3860012  31.3564997   5.8029988 121.1450012  32.2814997   5.8439988
 120.6450012  30.8974997   6.1989988 121.2528409  31.4211421   5.8621377
 121.9010012  35.5054997  12.1179988 122.2630012  36.3604997  11.8839988
 122.4320012  35.2134997  12.8579988 122.0224473  35.5831060  12.1860855
 120.0690012  36.3784997   5.3479988 119.1190012  36.4834997   5.3989988
 120.4210012  37.1984997   5.6929988 119.9864203  36.5038314   5.4016650
 125.4450012  31.6044997  11.8179988 125.0190012  31.3774997  12.6449988
 126.0250012  30.8664997  11.6359988 125.4651868  31.4735299  11.9065830
 127.6480012  32.5334997   0.8919988 128.0010012  32.1534997   1.6969988
 126.6990012  32.4404997   0.9789988 127.5680441  32.4689596   1.0138559
 128.1030012  36.1564997  14.2879988 127.5020012  35.6014997  13.7919988
 128.3850012  36.8234997  13.6619988 128.0588519  36.1706841  14.1354952
 132.1510012  37.0134997   1.0929988 132.8950012  37.5994997   0.9529988
 131.4570012  37.5814997   1.4269988 132.1590292  37.1705582   1.1189961
 116.2260012  23.3894997  13.6949988 115.3330012  23.7284997  13.6269988
 116.1270012  22.5344997  14.1129988 116.0904164  23.3202588  13.7422235
 128.5140012  31.2064997   3.1189988 128.2360012  30.4784997   3.6749988
 129.4410012  31.3254997   3.3239988 128.6013124  31.1228802   3.2228845
 115.8770012  35.1944997  12.1299988 116.0940012  34.2624997  12.0989988
 116.1230012  35.4684997  13.0129988 115.9399549  35.1040636  12.2451763
 121.7390012  33.6454997  -0.6610012 121.9780012  32.8974997  -1.2080012
 121.4700012  33.2574997   0.1719988 121.7353675  33.4906638  -0.6233135
 120.6760012  33.2154997   1.7959988 120.8220012  32.6954997   2.5859988
 120.6730012  34.1224997   2.1019988 120.6955989  33.2668853   1.9456088
 117.1290012  30.4684997   2.3059988 116.4430012  30.8204997   2.8729988
 117.6510012  31.2314997   2.0589988 117.1056852  30.6198578   2.3502118
 124.9600012  23.1304997  12.5849988 125.6590012  23.2044997  13.2349988
 124.5790012  22.2664997  12.7389988 125.0041767  23.0237624  12.6948322
 125.7450012  22.7824997   3.6819988 125.9650012  23.2544997   2.8789988
 126.3030012  23.1774997   4.3519988 125.8504968  22.9004285   3.6627331
 123.4130012  34.9134997   2.5449988 122.5970012  35.4104997   2.5969988
 123.9430012  35.3884997   1.9049988 123.3729161  35.0457722   2.4655956
 122.9450012  24.5104997   4.5169988 123.7570012  25.0154997   4.5629988
 122.7000012  24.3654997   5.4309988 123.0230520  24.5600375   4.6468517
 123.4800012  25.4964997  13.7019988 123.5990012  26.0704997  14.4589988
 124.1360012  24.8084997  13.8159988 123.5849757  25.4821079  13.8210825
 123.8280012  21.5914997   5.4549988 123.4820012  22.2094997   6.0999988
 124.4870012  22.0924997   4.9739988 123.8697826  21.7435802   5.4780971
 120.7520012  35.9574997   2.5269988 120.9120012  36.7564997   2.0259988
 120.5540012  36.2634997   3.4119988 120.7471649  36.1084469   2.5779815
 119.4860012  22.6544997   2.1419988 119.4030012  23.5434997   2.4889988
 120.3760012  22.3894997   2.3739988 119.5949469  22.7401430   2.2207626
 129.6850012  23.4034997  14.5369988 128.7680012  23.6664997  14.4489988
 130.0200012  23.4004997  13.6399988 129.6049900  23.4390224  14.4037919
 128.2870012  27.1544997   8.6319988 127.4890012  26.7394997   8.3039988
 128.7320012  26.4634997   9.1229988 128.2379885  27.0043543   8.6534889
 117.7450012  33.0824997   1.2029988 118.3370012  33.7814997   1.4789988
 118.2040012  32.6494997   0.4829988 117.8881142  33.1197049   1.1434830
 116.0610012  25.7464997   0.3189988 116.0160012  26.6854997   0.4969988
 115.1730012  25.5104997   0.0489988 115.9348574  25.8431892   0.3068912
 129.3730012  36.4104997  10.2549988 129.2180012  37.0884997   9.5979988
 130.3060012  36.4824997  10.4579988 129.4778500  36.5130170  10.1925119
 116.8690012  20.5284997   8.9919988 116.6400012  20.5874997   8.0639988
 116.4260012  19.7364997   9.2979988 116.7778530  20.4295753   8.9064786
 115.7990012  34.4684997   5.1519988 114.9670012  34.9414997   5.1799988
 116.3450012  34.9784997   4.5539988 115.7589739  34.6021871   5.0749716
 115.0870012  37.0814997  16.4819988 115.6280012  36.8644997  17.2419988
 114.6060012  36.2754997  16.2929988 115.0959345  36.9429514  16.5603076
 119.6850012  36.0004997  18.1029988 120.4520012  35.5414997  18.4439988
 119.6630012  35.7744997  17.1729988 119.7871434  35.9070409  18.0240043
 123.7770012  35.5084997  -0.5220012 123.1330012  34.8774997  -0.2010012
 124.5390012  34.9774997  -0.7540012 123.7918077  35.3502920  -0.5093989
 126.2620012  34.3804997  16.8319988 125.9110012  33.5244997  17.0749988
 126.9880012  34.5234997  17.4389988 126.3120769  34.2825636  16.9473619
 128.3810012  35.3254997  -0.2880012 128.6640012  34.5314997   0.1639988
 129.1210012  35.5584997  -0.8490012 128.5197486  35.2482803  -0.3019302
 114.9940012  30.8914997  17.4369988 115.1380012  29.9894997  17.1499988
 114.2220012  31.1774997  16.9489988 114.9093322  30.8068261  17.3317881
 119.3360012  31.2354997  -0.4310012 119.4000012  30.4414997   0.0999988
 119.9890012  31.1164997  -1.1210012 119.4330241  31.1107148  -0.4515683
 121.6500012  30.8614997  16.8689988 121.3210012  31.1324997  16.0119988
 121.8020012  29.9204997  16.7819988 121.6254809  30.7713862  16.7398244
 124.6880012  32.2824997  -0.6950012 124.4190012  32.4624997   0.2059988
 124.4820012  31.3564997  -0.8260012 124.6233825  32.1820152  -0.5894786
 127.3840012  30.7774997  14.2529988 128.1300012  31.3654997  14.1329988
 126.6270012  31.3594997  14.3159988 127.3837554  30.9367011  14.2450907
 115.8270012  28.0914997  16.8569988 116.2350012  27.2344997  16.7359988
 115.5670012  28.1064997  17.7779988 115.8477568  27.9760807  16.9649588
 120.4850012  29.2074997   1.8749988 120.0250012  28.7234997   2.5609988
 120.7400012  28.5394997   1.2389988 120.4564902  29.0508731   1.8829334
 119.7740012  27.1004997  14.2309988 119.1560012  27.7754997  14.5109988
 120.1180012  27.4214997  13.3979988 119.7359615  27.2362721  14.1566581
 121.5560012  27.4504997   0.1369988 121.3760012  27.2964997  -0.7900012
 122.5060012  27.5584997   0.1819988 121.6597776  27.4440175   0.0161843
 124.7940012  29.5724997  17.5079988 125.7470012  29.6554997  17.4809988
 124.6330012  28.8604997  18.1279988 124.9026426  29.4876746  17.5880579
 130.9460012  29.8054997  -0.4170012 130.6720012  29.3804997  -1.2300012
 130.9850012  30.7364997  -0.6340012 130.9137699  29.8732484  -0.5576390
 120.1130012  24.4554997  15.3129988 120.2630012  23.7264997  14.7109988
 120.1160012  25.2324997  14.7539988 120.1339302  24.4607851  15.1550692
 120.5260012  22.8254997  12.8059988 121.0620012  23.2764997  12.1539988
 119.6740012  22.7174997  12.3829988 120.4842178  22.8726390  12.6595756
 122.1080012  28.2644997  13.0449988 122.8580012  28.1084997  12.4719988
 121.7690012  29.1164997  12.7699988 122.1648921  28.3582968  12.9293561
 126.5230012  26.0794997  18.0739988 126.7160012  25.1484997  17.9619988
 127.3810012  26.5044997  18.0639988 126.6653020  26.0096389  18.0573361
 127.8400012  28.8684997  16.1509988 127.5590012  29.5774997  15.5739988
 128.7830012  28.7954997  15.9999988 127.9289027  28.9557646  16.0515551
 118.5920012  25.6534997  17.2249988 117.8250012  25.1214997  17.0149988
 119.2710012  25.3434997  16.6249988 118.5787022  25.5387506  17.1151648
 121.3320012  20.2814997  13.2369988 121.2330012  21.2284997  13.1319988
 120.5890012  19.9094997  12.7619988 121.2180564  20.3605902  13.1584560
 122.5960012  24.6034997  16.8009988 122.3600012  24.3834997  17.7029988
 121.8120012  24.3964997  16.2909988 122.4578628  24.5454760  16.8553932
 125.3110012  23.7304997  15.8769988 124.3640012  23.7624997  16.0089988
 125.6240012  23.1054997  16.5299988 125.2235475  23.6503207  15.9834455
 126.9450012  22.3644997  17.8819988 126.8490012  21.4124997  17.8759988
 126.6240012  22.6334997  18.7419988 126.8884070  22.2704035  17.9975441
 116.7720012  23.5744997  16.9289988 116.9840012  22.8674997  16.3189988
 116.6610012  23.1364997  17.7729988 116.7859721  23.4187084  16.9596843
 121.5530012  19.5754997  15.9089988 122.2650012  18.9354997  15.8949988
 121.4520012  19.8424997  14.9949988 121.6367939  19.5239938  15.7835650
 121.9070012  21.2584997  17.9619988 121.7750012  20.7824997  17.1419988
 121.3080012  22.0024997  17.9069988 121.8079071  21.2939618  17.8422886
 121.4530012  38.1414997   1.1389988 122.3860012  38.2994997   1.2819988
 121.1890012  38.8164997   0.5139988 121.5449510  38.2543611   1.0740741
 115.0220012  32.7774997   0.6209988 115.9360012  32.8564997   0.8949988
 115.0290012  32.0904997  -0.0450012 115.1481131  32.6953961   0.5684393
 113.6710012  38.1704997   5.6989988 113.0240012  37.7084997   5.1659988
 114.0250012  37.4984997   6.2809988 113.6303849  38.0164723   5.7047959
 114.5410012  36.2514997   7.5029988 114.2060012  35.3714997   7.6749988
 114.7630012  36.5964997   8.3679988 114.5251783  36.1777500   7.6434208
 132.0890012  37.0604997  10.4839988 132.0680012  37.2454997  11.4229988
 132.7800012  37.6294997  10.1429988 132.1794618  37.1626606  10.5663864
 131.6530012  36.6284997  13.4059988 131.1650012  35.8924997  13.0349988
 132.2020012  36.2344997  14.0839988 131.6604872  36.4746249  13.4469160
 130.1030012  32.4174997  18.0439988 129.2370012  32.3124997  18.4379988
 130.4800012  33.1764997  18.4899988 130.0353308  32.5056900  18.1582393
 131.4040012  30.6744997   3.5579988 132.2540012  31.0954997   3.6849988
 131.4100012  29.9344997   4.1649988 131.5211372  30.6320803   3.6574344
 131.7990012  28.7274997   5.3819988 131.0720012  28.2484997   5.7789988
 132.3800012  28.9334997   6.1139988 131.7779375  28.6897090   5.5354129
 131.5580012  31.5124997  10.3289988 132.3910012  31.1344997  10.0489988
 131.6700012  32.4554997  10.2099988 131.6872647  31.5882218  10.2745487
 130.0440012  34.3904997  12.6359988 129.3970012  34.7154997  13.2619988
 129.5270012  33.9504997  11.9619988 129.8854029  34.3755004  12.6305827
 132.0670012  28.6284997   1.7729988 131.5450012  28.9854997   1.0539988
 132.0340012  29.3034997   2.4509988 131.9911634  28.7685413   1.7663145
 130.4160012  25.8684997   0.3239988 130.5120012  26.5354997  -0.3570012
 130.2760012  25.0524997  -0.1580012 130.4102135  25.8494500   0.1658491
 129.5850012  27.2484997   5.9449988 129.4350012  26.3034997   5.9239988
 129.2320012  27.5294997   6.7879988 129.5166625  27.1570441   6.0562346
 114.6210012  29.3264997   9.9549988 114.8050012  29.2444997   9.0189988
 115.4700012  29.2024997  10.3789988 114.7610139  29.2985003   9.8841455
 130.4420012  29.2184997  15.5829988 131.0250012  28.4844997  15.7749988
 131.0060012  29.9904997  15.6299988 130.5979769  29.2224227  15.6156159
 131.9380012  27.1214997  16.2679988 131.0750012  26.7424997  16.1019988
 132.5430012  26.3824997  16.1939988 131.9015979  26.9698023  16.2352817
 129.6630012  23.2764997  -0.5590012 130.2740012  22.9054997   0.0779988
 128.8270012  22.8554997  -0.3630012 129.6335032  23.1687554  -0.4452965
 129.2960012  24.8314997   4.4069988 129.5760012  23.9244997   4.5309988
 130.0550012  25.2654997   4.0179988 129.4369277  24.7660942   4.3713682
 129.9080012  25.4124997   9.8429988 130.8410012  25.6244997   9.8089988
 129.6730012  25.5144997  10.7649988 130.0038036  25.4552769   9.9629976
 129.9370012  26.1494997  12.6189988 129.0940012  26.4174997  12.9849988
 130.3790012  26.9714997  12.4079988 129.8814158  26.2973291  12.6405491
 114.2180012  24.5974997  16.0959988 115.1380012  24.4754997  16.3319988
 113.7690012  23.8474997  16.4849988 114.2831580  24.4793727  16.1809006
 132.2200012  20.1294997  17.9719988 132.5700012  19.4754997  17.3669988
 132.3670012  20.9664997  17.5329988 132.2878419  20.1531591  17.8297118
 129.9090012  22.0944997   4.4549988 130.0920012  21.6454997   5.2809988
 129.3100012  21.5094997   3.9919988 129.8530202  21.9539975   4.5053275
 115.4390012  22.9094997   8.9869988 115.8850012  22.1174997   9.2889988
 115.9060012  23.6254997   9.4179988 115.5630172  22.8980624   9.0864820
 113.7430012  25.9084997  10.0559988 114.2350012  25.6874997   9.2649988
 114.1060012  26.7494997  10.3369988 113.8593126  25.9918357   9.9857531
 131.7400012  22.2384997  16.3219988 130.8220012  22.5094997  16.2859988
 131.8630012  21.7034997  15.5369988 131.6311066  22.2032892  16.2110487
 131.7760012  22.1614997   0.9829988 132.1880012  21.4404997   0.5079988
 132.4580012  22.8314997   1.0419988 131.9245885  22.1532368   0.9258915
 114.0570012  22.1664997   4.1099988 113.1320012  22.3754997   3.9809988
 114.5110012  22.6504997   3.4209988 113.9917368  22.2605993   3.9991226
 128.8280012  37.1504997   6.0559988 129.4800012  36.8034997   5.4479988
 129.3380012  37.6394997   6.7019988 128.9862637  37.1690597   6.0600236
 114.0210012  20.9044997  12.4549988 113.3560012  20.6584997  13.0979988
 113.5780012  21.5264997  11.8769988 113.8700956  20.9548632  12.4649352
 116.2130012  34.0794997  16.5989988 115.3920012  34.2544997  16.1389988
 115.9600012  34.0064997  17.5199988 116.0666164  34.0935622  16.6604923
 119.1670012  35.0544997  12.8579988 118.7420012  35.8634997  12.5749988
 120.0710012  35.1394997  12.5559988 119.2310271  35.1768469  12.7783776
 123.4780012  36.4534997  15.8169988 123.6630012  36.1194997  16.6949988
 124.3240012  36.7624997  15.4949988 123.6177539  36.4496047  15.8935605
 125.8230012  37.7394997  15.0609988 126.5000012  37.1064997  14.8209988
 126.1450012  38.1404997  15.8679988 125.9591637  37.7071154  15.1372793
 130.7400012  20.3284997  14.1409988 129.9280012  20.6534997  13.7529988
 130.9730012  19.5684997  13.6079988 130.6603423  20.2702436  14.0158253
 116.5690012  38.3104997  12.9049988 115.8480012  38.7504997  12.4539988
 116.2030012  38.0594997  13.7539988 116.4209804  38.3367698  12.9579840
 119.0360012  37.9104997  11.9349988 118.1710012  37.9824997  12.3389988
 118.9810012  38.4574997  11.1509988 118.9102085  37.9942685  11.8843362
 123.7460012  37.7984997  11.1099988 123.2900012  38.3274997  10.4559988
 123.9090012  38.4014997  11.8359988 123.7055585  37.9524468  11.1185062
 126.0740012  36.6764997  12.0549988 125.1690012  36.8414997  11.7899988
 126.5030012  37.5294997  11.9899988 126.0080799  36.8144483  12.0099182
 128.6780012  38.2464997  12.3499988 128.4960012  39.1624997  12.1399988
 128.8550012  37.8364997  11.5039988 128.6770210  38.3164822  12.2067885
 115.9830012  36.9334997   9.8149988 115.9650012  36.5084997  10.6729988
 116.7880012  36.6154997   9.4069988 116.0893875  36.8323812   9.8771655
 118.1250012  35.6434997   8.4699988 117.9060012  34.7274997   8.6399988
 118.9490012  35.7834997   8.9359988 118.2064420  35.5370520   8.5562774
 120.6620012  36.1134997   9.3189988 120.8750012  35.2254997   9.0319988
 120.7260012  36.0794997  10.2729988 120.6998232  35.9873102   9.4087397
 124.1700012  21.7774997   8.4629988 123.4960012  21.1484997   8.7189988
 124.7340012  21.2934997   7.8599988 124.1539230  21.6258744   8.4165340
 129.3130012  19.8854997   8.5759988 129.9170012  20.4324997   8.0739988
 128.4430012  20.2044997   8.3359988 129.2781241  20.0035806   8.4747654
 131.0400012  21.0234997   6.9089988 131.6520012  20.5094997   6.3829988
 131.4220012  21.9014997   6.9329988 131.1754540  21.0717140   6.8401830
 116.4970012  20.4114997   6.2849988 115.7200012  20.1774997   5.7779988
 117.0270012  19.6144997   6.2939988 116.4622330  20.2716988   6.2167742
 115.3330012  20.2094997   2.0889988 115.7720012  20.8204997   1.4969988
 114.7000012  20.7474997   2.5629988 115.3074514  20.3659257   2.0720930
 121.0760012  20.3384997   6.0989988 121.9510012  20.7264997   6.0689988
 120.9400012  20.1234997   7.0209988 121.1773695  20.3625184   6.2196440
 126.6330012  20.3684997   7.7479988 126.7090012  20.4634997   6.7979988
 126.3580012  19.4604997   7.8769988 126.6062321  20.2587867   7.6355079
 127.9860012  20.3944997   3.4399988 127.2840012  21.0094997   3.2309988
 127.5420012  19.5564997   3.5709988 127.8296330  20.3655783   3.4290328
 115.2340012  36.1574997   2.9869988 114.5490012  36.1194997   2.3189988
 115.2380012  37.0704997   3.2749988 115.1408193  36.2757016   2.9345284
 117.1940012  22.1254997   0.5309988 117.6860012  21.4954997   0.0039988
 117.8180012  22.4214997   1.1949988 117.3455446  22.0793199   0.5485980
 122.2200012  22.4184997   2.9879988 122.3980012  21.7724997   3.6709988
 122.1670012  23.2524997   3.4559988 122.2371829  22.4427985   3.1445940
 124.0990012  37.3674997   1.3839988 124.9650012  37.7334997   1.2059988
 123.8520012  36.9274997   0.5699988 124.1842392  37.3581756   1.2496289
 130.8080012  36.9304997   4.0629988 130.6130012  36.1824997   3.4979988
 130.7690012  37.6884997   3.4799988 130.7760380  36.9306099   3.9068384
 116.4550012  20.9254997  15.8029988 116.0890012  20.1604997  16.2459988
 117.3680012  20.9544997  16.0899988 116.5282790  20.8247224  15.9024070
 118.4280012  20.2764997  17.3389988 119.3260012  20.0024997  17.1539988
 118.0410012  19.5334997  17.8029988 118.4986612  20.1385914  17.3763643
 117.0520012  37.0774997   0.0119988 116.7850012  37.3644997   0.8849988
 117.8240012  36.5314997   0.1639988 117.1197488  37.0430294   0.1521050
 126.8490012  19.6084997  17.5209988 126.9260012  19.1824997  18.3749988
 127.7430012  19.6224997  17.1779988 126.9803428  19.5520879  17.5915310
 130.0250012  35.6814997  16.2129988 129.2430012  35.4954997  15.6939988
 129.9530012  36.6104997  16.4309988 129.9081777  35.7816492  16.1714048
 144.4310012  29.5674997   6.2439988 144.5200012  30.5114997   6.1119988
 143.7930012  29.2924997   5.5859988 144.3569081  29.6594830   6.1369614
 143.3640012  28.8224997   9.6629988 143.3260012  28.1764997  10.3679988
 143.0420012  28.3564997   8.8919988 143.3152333  28.6709408   9.6552978
 135.7330012  28.4374997  11.2559988 135.7740012  27.8114997  11.9789988
 136.4360012  29.0614997  11.4379988 135.8336363  28.4361196  11.3796044
 136.6560012  32.8874997   9.7909988 136.2870012  32.0854997   9.4209988
 137.5970012  32.7184997   9.8369988 136.7327289  32.7550153   9.7466316
 133.2660012  26.5474997   5.1839988 132.8190012  27.3934997   5.1649988
 132.7050012  25.9674997   4.6679988 133.1289900  26.5849916   5.1116801
 133.9770012  28.7094997   7.3099988 134.1900012  27.9394997   7.8369988
 134.7150012  28.7984997   6.7059988 134.1058496  28.6161394   7.3005300
 144.1820012  36.8664997   8.1769988 144.8020012  36.1894997   7.9029988
 143.9740012  36.6484997   9.0849988 144.2386904  36.7443870   8.2623365
 141.7540012  31.2554997  10.0689988 142.0580012  30.5694997   9.4739988
 142.4750012  31.3734997  10.6869988 141.8930671  31.1776305  10.0711816
 144.8950012  25.6494997  10.3969988 145.0370012  24.7034997  10.4169988
 144.7880012  25.8564997   9.4679988 144.8999863  25.5479534  10.2742339
 138.0490012  23.7504997   7.6689988 138.0930012  24.6104997   7.2509988
 137.5920012  23.1984997   7.0349988 137.9932185  23.7935799   7.5260299
 134.6700012  26.1474997   8.4309988 135.3230012  25.5974997   8.8629988
 134.6940012  25.8734997   7.5139988 134.7626683  26.0351466   8.3662123
 139.8260012  27.6974997   7.6459988 140.4420012  27.1714997   8.1559988
 139.2400012  27.0574997   7.2429988 139.8310810  27.5389208   7.6613173
 136.8600012  22.6684997  11.7429988 136.6410012  23.1984997  10.9769988
 136.1920012  22.8954997  12.3899988 136.7397600  22.7716906  11.7256379
 144.2290012  32.1684997   5.2869988 143.9330012  31.8464997   4.4359988
 143.9040012  33.0684997   5.3279988 144.1446371  32.2460215   5.1761801
 139.4290012  30.3444997  12.0299988 138.6890012  30.9424997  12.1339988
 140.1430012  30.8984997  11.7149988 139.4242237  30.5012831  12.0016465
 136.4530012  24.5604997   9.6949988 137.0670012  25.1934997  10.0689988
 136.9650012  24.0884997   9.0389988 136.6062296  24.5832370   9.6574252
 137.8360012  32.3084997  12.8179988 137.8310012  33.1884997  12.4399988
 136.9830012  32.2254997  13.2429988 137.7199464  32.4176117  12.8237907
 133.9570012  31.9794997   3.5999988 133.6850012  32.2084997   2.7109988
 134.0030012  32.8174997   4.0599988 133.9260094  32.1241213   3.5405697
 140.8860012  19.9744997   9.1959988 140.7690012  19.0254997   9.1409988
 140.0310012  20.3064997   9.4689988 140.7543733  19.8895409   9.2253897
 143.1530012  28.8114997   3.6959988 142.4410012  29.3464997   3.3439988
 143.8440012  28.8674997   3.0359988 143.1490132  28.8922543   3.5586289
 143.2060012  27.2694997   0.7349988 143.9070012  27.2914997   1.3859988
 143.5090012  26.6414997   0.0789988 143.3427830  27.1876566   0.7353711
 138.2040012  29.6514997   6.5299988 137.8730012  29.2814997   5.7119988
 138.7920012  28.9814997   6.8769988 138.2381873  29.5101156   6.4648102
 139.5700012  33.0794997   9.2119988 139.4760012  32.5014997   8.4549988
 140.3000012  32.7084997   9.7079988 139.6557981  32.9502390   9.1754165
 138.5700012  28.4204997  10.1639988 139.1360012  28.5414997   9.4009988
 138.8890012  29.0574997  10.8029988 138.6905786  28.5231884  10.1460040
 144.8790012  33.9234997  10.8979988 144.6390012  34.5854997  11.5459988
 144.6810012  33.0894997  11.3229988 144.8193808  33.9013134  11.0441524
 139.4500012  32.8194997  14.8809988 139.1390012  33.6014997  15.3359988
 138.8000012  32.6664997  14.1949988 139.3195558  32.9059105  14.8505871
 136.3700012  29.0174997  14.1099988 136.4410012  29.6684997  14.8079988
 135.4800012  29.1204997  13.7749988 136.2593117  29.1205936  14.1602700
 143.1560012  34.9204997   5.7679988 143.6300012  35.2154997   6.5459988
 142.5930012  35.6584997   5.5349988 143.1447653  35.0606932   5.8430136
 137.6900012  34.8914997  15.6439988 137.6970012  34.7554997  14.6969988
 136.7740012  34.7734997  15.8959988 137.5671714  34.8569430  15.5484666
 137.1940012  28.7214997   4.1199988 136.9020012  29.4894997   3.6289988
 136.5200012  28.0614997   3.9569988 137.0629081  28.7374406   4.0307340
 133.2870012  31.0844997  12.9349988 132.7860012  31.0564997  12.1199988
 133.2920012  30.1784997  13.2439988 133.2191526  30.9582278  12.8652872
 133.0370012  33.8644997   9.8189988 133.9830012  33.7204997   9.7999988
 132.9250012  34.6484997  10.3559988 133.1512727  33.9508046   9.8890072
 142.2140012  34.1044997  14.3769988 142.3010012  34.9304997  14.8519988
 141.3500012  33.7744997  14.6259988 142.1091964  34.1729878  14.4756549
 142.6280012  37.8764997   4.1829988 142.5530012  37.7554997   3.2369988
 142.6610012  38.8264997   4.3019988 142.6221848  37.9882500   4.0694834
 136.2810012  36.6654997   5.9639988 136.4340012  36.3174997   6.8429988
 135.4310012  36.3094997   5.7089988 136.1868962  36.5696650   6.0498340
 135.5360012  32.4074997  13.9779988 135.7520012  32.0464997  14.8369988
 134.6810012  32.0334997  13.7679988 135.4499292  32.3074111  14.0673386
 138.1550012  20.8774997   9.9729988 137.2930012  20.7904997   9.5659988
 138.1320012  21.7334997  10.4009988 138.0340330  20.9812765   9.9751863
 142.8180012  20.5994997  13.3479988 143.2380012  20.1844997  14.1009988
 141.8850012  20.4214997  13.4649988 142.7493644  20.5185900  13.4669539
 142.4790012  23.0924997   0.6329988 142.2260012  23.1114997   1.5559988
 142.2230012  22.2204997   0.3319988 142.4097790  22.9772437   0.7186263
 138.2460012  25.8434997  11.0679988 137.6040012  25.8024997  11.7769988
 138.2830012  26.7694997  10.8309988 138.1631324  25.9631559  11.1329824
 138.2430012  26.0644997   5.9799988 137.3500012  25.7234997   5.9219988
 138.6930012  25.6874997   5.2249988 138.1817305  25.9668484   5.8699177
 143.7780012  26.4804997   4.7969988 143.3690012  27.2954997   4.5059988
 144.4990012  26.3404997   4.1829988 143.8194537  26.5732018   4.6741342
 142.8800012  26.6554997  16.2849988 142.3180012  25.9514997  16.6059988
 143.7070012  26.5354997  16.7529988 142.9147095  26.5427883  16.3922330
 144.7830012  25.9264997   7.6109988 144.5880012  26.5314997   6.8959988
 144.9640012  25.0924997   7.1769988 144.7807614  25.8966300   7.4544405
 135.9960012  26.1634997  12.9349988 135.9580012  26.5634997  13.8039988
 135.5050012  25.3464997  13.0259988 135.9244684  26.1078069  13.0661059
 139.3620012  23.5374997  -0.2660012 138.9310012  23.0924997   0.4639988
 138.6440012  23.9094997  -0.7780012 139.2059438  23.5268940  -0.2353201
 132.6040012  23.2794997   6.7859988 133.2350012  23.2504997   7.5049988
 133.0530012  22.8544997   6.0559988 132.7510774  23.2180492   6.7856553
 133.8780012  24.0254997   2.2099988 134.3520012  24.6164997   1.6249988
 133.1610012  24.5564997   2.5569988 133.8459341  24.1780867   2.1768836
 144.0470012  27.5644997  12.2829988 144.3700012  26.9334997  11.6399988
 143.6070012  27.0294997  12.9429988 144.0316895  27.4058441  12.2842850
 140.8240012  23.4914997   7.0669988 139.9130012  23.5484997   7.3549988
 141.3300012  23.4314997   7.8769988 140.7675413  23.4911985   7.2160622
 135.6530012  25.1204997   5.8929988 134.7630012  25.2204997   5.5529988
 135.9490012  24.2784997   5.5469988 135.5712823  25.0203545   5.7997213
 139.3060012  25.1204997   3.5499988 140.2370012  25.2494997   3.7279988
 139.0910012  25.7904997   2.8999988 139.4044247  25.2286565   3.4865747
 137.9800012  26.3154997   1.1169988 137.4370012  25.9354997   0.4249988
 138.8130012  26.5094997   0.6879988 138.0184399  26.2898124   0.9644526
 136.1150012  30.8724997  16.2159988 136.8470012  31.1264997  16.7769988
 135.3350012  31.0764997  16.7309988 136.1098232  30.9349177  16.3625760
 142.1440012  26.2794997   8.9539988 142.7090012  25.7324997   8.4069988
 141.9970012  25.7574997   9.7419988 142.2012918  26.1342024   8.9858454
 137.1460012  22.4154997   5.3719988 136.8290012  21.5134997   5.3369988
 137.9280012  22.4174997   4.8189988 137.2082284  22.2921628   5.2924783
 140.7710012  24.6674997  11.3679988 139.9350012  25.1214997  11.4779988
 141.2950012  24.9434997  12.1199988 140.7274414  24.7669376  11.4847136
 141.3150012  30.8804997   3.0519988 140.5700012  30.3734997   2.7299988
 141.1810012  30.9294997   3.9989988 141.1948776  30.8176940   3.1358647
 142.8340012  31.0644997  14.2889988 142.4890012  30.6834997  15.0959988
 142.6340012  31.9984997  14.3609988 142.7598061  31.1385228  14.4090961
 136.4400012  30.1754997   8.8219988 137.1850012  30.1734997   8.2209988
 136.5180012  29.3524997   9.3039988 136.5525518  30.0639315   8.8048929
 143.4410012  32.3394997   2.0779988 143.1450012  33.1654997   2.4589988
 142.7380012  31.7194997   2.2739988 143.3054914  32.3688199   2.1566443
 133.4480012  28.6364997  14.1369988 133.6710012  28.2184997  14.9689988
 132.8460012  28.0234997  13.7139988 133.3971759  28.4964668  14.1937022
 140.4640012  28.1534997  16.3499988 140.1680012  27.9874997  15.4549988
 141.3960012  27.9334997  16.3389988 140.5494166  28.1010640  16.2260536
 138.8150012  33.6934997   6.2259988 139.3420012  34.4664997   6.0259988
 137.9350012  33.9184997   5.9249988 138.7681773  33.8298005   6.1579010
 134.5700012  28.5554997   0.8129988 135.1860012  29.1824997   1.1929988
 133.7080012  28.8714997   1.0849988 134.5377698  28.6839430   0.9017183
 140.2420012  31.3564997   5.8029988 140.0010012  32.2814997   5.8439988
 139.5010012  30.8974997   6.1989988 140.1088409  31.4211421   5.8621377
 140.7570012  35.5054997  12.1179988 141.1190012  36.3604997  11.8839988
 141.2880012  35.2134997  12.8579988 140.8784473  35.5831060  12.1860855
 138.9250012  36.3784997   5.3479988 137.9750012  36.4834997   5.3989988
 139.2770012  37.1984997   5.6929988 138.8424203  36.5038314   5.4016650
 144.3010012  31.6044997  11.8179988 143.8750012  31.3774997  12.6449988
 144.8810012  30.8664997  11.6359988 144.3211868  31.4735299  11.9065830
 135.0820012  23.3894997  13.6949988 134.1890012  23.7284997  13.6269988
 134.9830012  22.5344997  14.1129988 134.9464164  23.3202588  13.7422235
 134.7330012  35.1944997  12.1299988 134.9500012  34.2624997  12.0989988
 134.9790012  35.4684997  13.0129988 134.7959549  35.1040636  12.2451763
 140.5950012  33.6454997  -0.6610012 140.8340012  32.8974997  -1.2080012
 140.3260012  33.2574997   0.1719988 140.5913675  33.4906638  -0.6233135
 139.5320012  33.2154997   1.7959988 139.6780012  32.6954997   2.5859988
 139.5290012  34.1224997   2.1019988 139.5515989  33.2668853   1.9456088
 135.9850012  30.4684997   2.3059988 135.2990012  30.8204997   2.8729988
 136.5070012  31.2314997   2.0589988 135.9616852  30.6198578   2.3502118
 143.8160012  23.1304997  12.5849988 144.5150012  23.2044997  13.2349988
 143.4350012  22.2664997  12.7389988 143.8601767  23.0237624  12.6948322
 144.6010012  22.7824997   3.6819988 144.8210012  23.2544997   2.8789988
 145.1590012  23.1774997   4.3519988 144.7064968  22.9004285   3.6627331
 142.2690012  34.9134997   2.5449988 141.4530012  35.4104997   2.5969988
 142.7990012  35.3884997   1.9049988 142.2289161  35.0457722   2.4655956
 141.8010012  24.5104997   4.5169988 142.6130012  25.0154997   4.5629988
 141.5560012  24.3654997   5.4309988 141.8790520  24.5600375   4.6468517
 142.3360012  25.4964997  13.7019988 142.4550012  26.0704997  14.4589988
 142.9920012  24.8084997  13.8159988 142.4409757  25.4821079  13.8210825
 142.6840012  21.5914997   5.4549988 142.3380012  22.2094997   6.0999988
 143.3430012  22.0924997   4.9739988 142.7257826  21.7435802   5.4780971
 139.6080012  35.9574997   2.5269988 139.7680012  36.7564997   2.0259988
 139.4100012  36.2634997   3.4119988 139.6031649  36.1084469   2.5779815
 138.3420012  22.6544997   2.1419988 138.2590012  23.5434997   2.4889988
 139.2320012  22.3894997   2.3739988 138.4509469  22.7401430   2.2207626
 136.6010012  33.0824997   1.2029988 137.1930012  33.7814997   1.4789988
 137.0600012  32.6494997   0.4829988 136.7441142  33.1197049   1.1434830
 134.9170012  25.7464997   0.3189988 134.8720012  26.6854997   0.4969988
 134.0290012  25.5104997   0.0489988 134.7908574  25.8431892   0.3068912
 135.7250012  20.5284997   8.9919988 135.4960012  20.5874997   8.0639988
 135.2820012  19.7364997   9.2979988 135.6338530  20.4295753   8.9064786
 134.6550012  34.4684997   5.1519988 133.8230012  34.9414997   5.1799988
 135.2010012  34.9784997   4.5539988 134.6149739  34.6021871   5.0749716
 133.9430012  37.0814997  16.4819988 134.4840012  36.8644997  17.2419988
 133.4620012  36.2754997  16.2929988 133.9519345  36.9429514  16.5603076
 138.5410012  36.0004997  18.1029988 139.3080012  35.5414997  18.4439988
 138.5190012  35.7744997  17.1729988 138.6431434  35.9070409  18.0240043
 142.6330012  35.5084997  -0.5220012 141.9890012  34.8774997  -0.2010012
 143.3950012  34.9774997  -0.7540012 142.6478077  35.3502920  -0.5093989
 133.8500012  30.8914997  17.4369988 133.9940012  29.9894997  17.1499988
 133.0780012  31.1774997  16.9489988 133.7653322  30.8068261  17.3317881
 138.1920012  31.2354997  -0.4310012 138.2560012  30.4414997   0.0999988
 138.8450012  31.1164997  -1.1210012 138.2890241  31.1107148  -0.4515683
 140.5060012  30.8614997  16.8689988 140.1770012  31.1324997  16.0119988
 140.6580012  29.9204997  16.7819988 140.4814809  30.7713862  16.7398244
 143.5440012  32.2824997  -0.6950012 143.2750012  32.4624997   0.2059988
 143.3380012  31.3564997  -0.8260012 143.4793825  32.1820152  -0.5894786
 134.6830012  28.0914997  16.8569988 135.0910012  27.2344997  16.7359988
 134.4230012  28.1064997  17.7779988 134.7037568  27.9760807  16.9649588
 139.3410012  29.2074997   1.8749988 138.8810012  28.7234997   2.5609988
 139.5960012  28.5394997   1.2389988 139.3124902  29.0508731   1.8829334
 138.6300012  27.1004997  14.2309988 138.0120012  27.7754997  14.5109988
 138.9740012  27.4214997  13.3979988 138.5919615  27.2362721  14.1566581
 140.4120012  27.4504997   0.1369988 140.2320012  27.2964997  -0.7900012
 141.3620012  27.5584997   0.1819988 140.5157776  27.4440175   0.0161843
 143.6500012  29.5724997  17.5079988 144.6030012  29.6554997  17.4809988
 143.4890012  28.8604997  18.1279988 143.7586426  29.4876746  17.5880579
 138.9690012  24.4554997  15.3129988 139.1190012  23.7264997  14.7109988
 138.9720012  25.2324997  14.7539988 138.9899302  24.4607851  15.1550692
 139.3820012  22.8254997  12.8059988 139.9180012  23.2764997  12.1539988
 138.5300012  22.7174997  12.3829988 139.3402178  22.8726390  12.6595756
 140.9640012  28.2644997  13.0449988 141.7140012  28.1084997  12.4719988
 140.6250012  29.1164997  12.7699988 141.0208921  28.3582968  12.9293561
 137.4480012  25.6534997  17.2249988 136.6810012  25.1214997  17.0149988
 138.1270012  25.3434997  16.6249988 137.4347022  25.5387506  17.1151648
 140.1880012  20.2814997  13.2369988 140.0890012  21.2284997  13.1319988
 139.4450012  19.9094997  12.7619988 140.0740564  20.3605902  13.1584560
 141.4520012  24.6034997  16.8009988 141.2160012  24.3834997  17.7029988
 140.6680012  24.3964997  16.2909988 141.3138628  24.5454760  16.8553932
 144.1670012  23.7304997  15.8769988 143.2200012  23.7624997  16.0089988
 144.4800012  23.1054997  16.5299988 144.0795475  23.6503207  15.9834455
 135.6280012  23.5744997  16.9289988 135.8400012  22.8674997  16.3189988
 135.5170012  23.1364997  17.7729988 135.6419721  23.4187084  16.9596843
 140.4090012  19.5754997  15.9089988 141.1210012  18.9354997  15.8949988
 140.3080012  19.8424997  14.9949988 140.4927939  19.5239938  15.7835650
 140.7630012  21.2584997  17.9619988 140.6310012  20.7824997  17.1419988
 140.1640012  22.0024997  17.9069988 140.6639071  21.2939618  17.8422886
 140.3090012  38.1414997   1.1389988 141.2420012  38.2994997   1.2819988
 140.0450012  38.8164997   0.5139988 140.4009510  38.2543611   1.0740741
 133.8780012  32.7774997   0.6209988 134.7920012  32.8564997   0.8949988
 133.8850012  32.0904997  -0.0450012 134.0041131  32.6953961   0.5684393
 132.5270012  38.1704997   5.6989988 131.8800012  37.7084997   5.1659988
 132.8810012  37.4984997   6.2809988 132.4863849  38.0164723   5.7047959
 133.3970012  36.2514997   7.5029988 133.0620012  35.3714997   7.6749988
 133.6190012  36.5964997   8.3679988 133.3811783  36.1777500   7.6434208
 133.4770012  29.3264997   9.9549988 133.6610012  29.2444997   9.0189988
 134.3260012  29.2024997  10.3789988 133.6170139  29.2985003   9.8841455
 133.0740012  24.5974997  16.0959988 133.9940012  24.4754997  16.3319988
 132.6250012  23.8474997  16.4849988 133.1391580  24.4793727  16.1809006
 134.2950012  22.9094997   8.9869988 134.7410012  22.1174997   9.2889988
 134.7620012  23.6254997   9.4179988 134.4190172  22.8980624   9.0864820
 132.5990012  25.9084997  10.0559988 133.0910012  25.6874997   9.2649988
 132.9620012  26.7494997  10.3369988 132.7153126  25.9918357   9.9857531
 132.9130012  22.1664997   4.1099988 131.9880012  22.3754997   3.9809988
 133.3670012  22.6504997   3.4209988 132.8477368  22.2605994   3.9991226
 132.8770012  20.9044997  12.4549988 132.2120012  20.6584997  13.0979988
 132.4340012  21.5264997  11.8769988 132.7260956  20.9548632  12.4649352
 135.0690012  34.0794997  16.5989988 134.2480012  34.2544997  16.1389988
 134.8160012  34.0064997  17.5199988 134.9226164  34.0935622  16.6604923
 138.0230012  35.0544997  12.8579988 137.5980012  35.8634997  12.5749988
 138.9270012  35.1394997  12.5559988 138.0870271  35.1768469  12.7783776
 142.3340012  36.4534997  15.8169988 142.5190012  36.1194997  16.6949988
 143.1800012  36.7624997  15.4949988 142.4737539  36.4496047  15.8935605
 144.6790012  37.7394997  15.0609988 145.3560012  37.1064997  14.8209988
 145.0010012  38.1404997  15.8679988 144.8151637  37.7071154  15.1372793
 135.4250012  38.3104997  12.9049988 134.7040012  38.7504997  12.4539988
 135.0590012  38.0594997  13.7539988 135.2769804  38.3367698  12.9579840
 137.8920012  37.9104997  11.9349988 137.0270012  37.9824997  12.3389988
 137.8370012  38.4574997  11.1509988 137.7662085  37.9942685  11.8843362
 142.6020012  37.7984997  11.1099988 142.1460012  38.3274997  10.4559988
 142.7650012  38.4014997  11.8359988 142.5615585  37.9524468  11.1185062
 134.8390012  36.9334997   9.8149988 134.8210012  36.5084997  10.6729988
 135.6440012  36.6154997   9.4069988 134.9453875  36.8323812   9.8771655
 136.9810012  35.6434997   8.4699988 136.7620012  34.7274997   8.6399988
 137.8050012  35.7834997   8.9359988 137.0624420  35.5370520   8.5562774
 139.5180012  36.1134997   9.3189988 139.7310012  35.2254997   9.0319988
 139.5820012  36.0794997  10.2729988 139.5558232  35.9873102   9.4087397
 143.0260012  21.7774997   8.4629988 142.3520012  21.1484997   8.7189988
 143.5900012  21.2934997   7.8599988 143.0099230  21.6258744   8.4165340
 135.3530012  20.4114997   6.2849988 134.5760012  20.1774997   5.7779988
 135.8830012  19.6144997   6.2939988 135.3182330  20.2716988   6.2167742
 134.1890012  20.2094997   2.0889988 134.6280012  20.8204997   1.4969988
 133.5560012  20.7474997   2.5629988 134.1634514  20.3659257   2.0720930
 139.9320012  20.3384997   6.0989988 140.8070012  20.7264997   6.0689988
 139.7960012  20.1234997   7.0209988 140.0333695  20.3625184   6.2196440
 134.0900012  36.1574997   2.9869988 133.4050012  36.1194997   2.3189988
 134.0940012  37.0704997   3.2749988 133.9968193  36.2757016   2.9345284
 136.0500012  22.1254997   0.5309988 136.5420012  21.4954997   0.0039988
 136.6740012  22.4214997   1.1949988 136.2015446  22.0793199   0.5485980
 141.0760012  22.4184997   2.9879988 141.2540012  21.7724997   3.6709988
 141.0230012  23.2524997   3.4559988 141.0931829  22.4427985   3.1445940
 142.9550012  37.3674997   1.3839988 143.8210012  37.7334997   1.2059988
 142.7080012  36.9274997   0.5699988 143.0402392  37.3581756   1.2496289
 135.3110012  20.9254997  15.8029988 134.9450012  20.1604997  16.2459988
 136.2240012  20.9544997  16.0899988 135.3842790  20.8247224  15.9024070
 137.2840012  20.2764997  17.3389988 138.1820012  20.0024997  17.1539988
 136.8970012  19.5334997  17.8029988 137.3546612  20.1385914  17.3763643
 135.9080012  37.0774997   0.0119988 135.6410012  37.3644997   0.8849988
 136.6800012  36.5314997   0.1639988 135.9757488  37.0430294   0.1521050
  12.4390012  48.4234997   6.2439988  12.5280012  49.3674997   6.1119988
  11.8010012  48.1484997   5.5859988  12.3649081  48.5154830   6.1369614
  11.3720012  47.6784997   9.6629988  11.3340012  47.0324997  10.3679988
  11.0500012  47.2124997   8.8919988  11.3232333  47.5269408   9.6552978
   3.7410012  47.2934997  11.2559988   3.7820012  46.6674997  11.9789988
   4.4440012  47.9174997  11.4379988   3.8416363  47.2921196  11.3796044
  15.0780012  50.6174997   7.9639988  14.6380012  49.8974997   8.4149988
  15.0650012  51.3384997   8.5939988  15.0160226  50.6163731   8.1108494
   4.6640012  51.7434997   9.7909988   4.2950012  50.9414997   9.4209988
   5.6050012  51.5744997   9.8369988   4.7407289  51.6110153   9.7466316
   1.2740012  45.4034997   5.1839988   0.8270012  46.2494997   5.1649988
   0.7130012  44.8234997   4.6679988   1.1369900  45.4409916   5.1116801
   1.9850012  47.5654997   7.3099988   2.1980012  46.7954997   7.8369988
   2.7230012  47.6544997   6.7059988   2.1138496  47.4721394   7.3005300
  12.1900012  55.7224997   8.1769988  12.8100012  55.0454997   7.9029988
  11.9820012  55.5044997   9.0849988  12.2466904  55.6003870   8.2623365
   9.7620012  50.1114997  10.0689988  10.0660012  49.4254997   9.4739988
  10.4830012  50.2294997  10.6869988   9.9010671  50.0336305  10.0711816
  18.4250012  41.7124997  10.9299988  18.4740012  42.3224997  11.6659988
  18.8500012  42.1734997  10.2069988  18.4891824  41.8583741  10.9330205
  12.9030012  44.5054997  10.3969988  13.0450012  43.5594997  10.4169988
  12.7960012  44.7124997   9.4679988  12.9079864  44.4039534  10.2742339
   6.0570012  42.6064997   7.6689988   6.1010012  43.4664997   7.2509988
   5.6000012  42.0544997   7.0349988   6.0012185  42.6495799   7.5260299
  13.7800012  42.7374997   6.0699988  14.4260012  42.4084997   6.6949988
  14.2900012  43.2554997   5.4469988  13.9374264  42.7624611   6.0713862
   2.6780012  45.0034997   8.4309988   3.3310012  44.4534997   8.8629988
   2.7020012  44.7294997   7.5139988   2.7706683  44.8911466   8.3662123
   7.8340012  46.5534997   7.6459988   8.4500012  46.0274997   8.1559988
   7.2480012  45.9134997   7.2429988   7.8390810  46.3949208   7.6613173
  18.8160012  43.1904997  13.1659988  18.1280012  43.8484997  13.0699988
  18.8320012  42.9934997  14.1019988  18.7238525  43.2540462  13.2794808
   4.8680012  41.5244997  11.7429988   4.6490012  42.0544997  10.9769988
   4.2000012  41.7514997  12.3899988   4.7477600  41.6276906  11.7256379
  12.2370012  51.0244997   5.2869988  11.9410012  50.7024997   4.4359988
  11.9120012  51.9244997   5.3279988  12.1526371  51.1020215   5.1761801
   7.4370012  49.2004997  12.0299988   6.6970012  49.7984997  12.1339988
   8.1510012  49.7544997  11.7149988   7.4322237  49.3572831  12.0016465
  15.5440012  42.0284997   8.0499988  15.3280012  41.2624997   8.5829988
  16.1990012  42.5004997   8.5629988  15.6030632  41.9875889   8.1922861
   4.4610012  43.4164997   9.6949988   5.0750012  44.0494997  10.0689988
   4.9730012  42.9444997   9.0389988   4.6142296  43.4392370   9.6574252
   5.8440012  51.1644997  12.8179988   5.8390012  52.0444997  12.4399988
   4.9910012  51.0814997  13.2429988   5.7279464  51.2736117  12.8237907
   1.9650012  50.8354997   3.5999988   1.6930012  51.0644997   2.7109988
   2.0110012  51.6734997   4.0599988   1.9340094  50.9801213   3.5405697
  15.5900012  52.4574997  10.3119988  14.6490012  52.5154997  10.4739988
  15.8670012  53.3634997  10.1749988  15.4984679  52.5879443  10.3156815
  15.8910012  40.7434997  11.7299988  15.1550012  41.3544997  11.6919988
  16.5740012  41.1584997  11.2029988  15.8826541  40.8831374  11.6535832
   8.8940012  38.8304997   9.1959988   8.7770012  37.8814997   9.1409988
   8.0390012  39.1624997   9.4689988   8.7623733  38.7455409   9.2253897
  13.8420012  54.2384997   6.9379988  14.2680012  53.5314997   6.4529988
  14.1590012  55.0394997   6.5209988  13.9431019  54.2500994   6.8153130
  15.0020012  52.1394997   5.4459988  14.7440012  51.4494997   4.8349988
  15.0730012  51.6964997   6.2919988  14.9762856  51.9852124   5.4766885
  16.6880012  50.7054997  13.9239988  16.8280012  50.1144997  13.1839988
  16.8550012  51.5784997  13.5669988  16.7296778  50.7426426  13.7746965
  11.1610012  47.6674997   3.6959988  10.4490012  48.2024997   3.3439988
  11.8520012  47.7234997   3.0359988  11.1570132  47.7482543   3.5586289
  11.2140012  46.1254997   0.7349988  11.9150012  46.1474997   1.3859988
  11.5170012  45.4974997   0.0789988  11.3507830  46.0436566   0.7353711
  18.5300012  47.0454997  11.9899988  17.8770012  47.7404997  12.0789988
  18.9950012  47.2554997  11.1799988  18.5035390  47.1689425  11.8926883
  14.5660012  47.8774997   4.6479988  13.8340012  48.1054997   5.2209988
  15.0140012  47.1634997   5.1029988  14.5263095  47.8122571   4.7879119
  14.4640012  46.0514997  13.7149988  14.5440012  46.8144997  14.2869988
  13.8620012  46.3304997  13.0249988  14.3935756  46.1937134  13.7000589
   6.2120012  48.5074997   6.5299988   5.8810012  48.1374997   5.7119988
   6.8000012  47.8374997   6.8769988   6.2461873  48.3661156   6.4648102
   7.5780012  51.9354997   9.2119988   7.4840012  51.3574997   8.4549988
   8.3080012  51.5644997   9.7079988   7.6637981  51.8062390   9.1754165
   6.5780012  47.2764997  10.1639988   7.1440012  47.3974997   9.4009988
   6.8970012  47.9134997  10.8029988   6.6985786  47.3791884  10.1460040
  12.8870012  52.7794997  10.8979988  12.6470012  53.4414997  11.5459988
  12.6890012  51.9454997  11.3229988  12.8273808  52.7573134  11.0441524
   7.4580012  51.6754997  14.8809988   7.1470012  52.4574997  15.3359988
   6.8080012  51.5224997  14.1949988   7.3275558  51.7619105  14.8505871
  13.4370012  47.0394997   2.3329988  14.0170012  47.1894997   3.0799988
  13.8510012  47.5104997   1.6099988  13.5722830  47.1236841   2.3374134
   4.3780012  47.8734997  14.1099988   4.4490012  48.5244997  14.8079988
   3.4880012  47.9764997  13.7749988   4.2673117  47.9765936  14.1602700
  11.1640012  53.7764997   5.7679988  11.6380012  54.0714997   6.5459988
  10.6010012  54.5144997   5.5349988  11.1527653  53.9166932   5.8430136
   5.6980012  53.7474997  15.6439988   5.7050012  53.6114997  14.6969988
   4.7820012  53.6294997  15.8959988   5.5751714  53.7129430  15.5484666
  17.1360012  38.7894997   2.1459988  16.2360012  38.9284997   2.4409988
  17.3880012  39.6204997   1.7439988  17.0468702  38.9209074   2.1320205
   5.2020012  47.5774997   4.1199988   4.9100012  48.3454997   3.6289988
   4.5280012  46.9174997   3.9569988   5.0709081  47.5934406   4.0307340
  18.3250012  53.1554997   0.5219988  18.3990012  54.0944997   0.6929988
  19.2310012  52.8504997   0.4659988  18.4575100  53.2426722   0.5378119
   1.2950012  49.9404997  12.9349988   0.7940012  49.9124997  12.1199988
   1.3000012  49.0344997  13.2439988   1.2271526  49.8142278  12.8652872
   1.0450012  52.7204997   9.8189988   1.9910012  52.5764997   9.7999988
   0.9330012  53.5044997  10.3559988   1.1592727  52.8068046   9.8890072
  19.2430012  53.3864997  15.5009988  19.1940012  52.4314997  15.4639988
  18.4160012  53.6544997  15.9019988  19.1244940  53.2918998  15.5501375
  10.2220012  52.9604997  14.3769988  10.3090012  53.7864997  14.8519988
   9.3580012  52.6304997  14.6259988  10.1171964  53.0289878  14.4756549
  10.6360012  56.7324997   4.1829988  10.5610012  56.6114997   3.2369988
  10.6690012  57.6824997   4.3019988  10.6301848  56.8442500   4.0694834
   4.2890012  55.5214997   5.9639988   4.4420012  55.1734997   6.8429988
   3.4390012  55.1654997   5.7089988   4.1948962  55.4256650   6.0498340
  13.7380012  55.8864997   1.1849988  14.1130012  55.1424997   0.7149988
  13.7420012  55.6164997   2.1039988  13.7898915  55.7481486   1.2447824
  13.4070012  55.8124997   3.9349988  12.4710012  55.9124997   4.1129988
  13.6870012  55.1034997   4.5129988  13.3168255  55.7302711   4.0375391
  16.3950012  44.8794997  15.9809988  15.9880012  45.3604997  15.2599988
  16.4360012  43.9744997  15.6729988  16.3448437  44.8229374  15.8406683
   3.5440012  51.2634997  13.9779988   3.7600012  50.9024997  14.8369988
   2.6890012  50.8894997  13.7679988   3.4579292  51.1634111  14.0673386
   6.1630012  39.7334997   9.9729988   5.3010012  39.6464997   9.5659988
   6.1400012  40.5894997  10.4009988   6.0420330  39.8372765   9.9751863
  10.8260012  39.4554997  13.3479988  11.2460012  39.0404997  14.1009988
   9.8930012  39.2774997  13.4649988  10.7573644  39.3745900  13.4669539
  14.1520012  43.2114997  14.2009988  13.6380012  43.0854997  14.9989988
  13.9970012  44.1234997  13.9569988  14.0606852  43.3176132  14.2772158
  14.9150012  48.0724997  -0.0370012  14.9570012  47.8494997  -0.9670012
  15.7640012  48.4714997   0.1529988  15.0355396  48.0959155  -0.1386373
  10.4870012  41.9484997   0.6329988  10.2340012  41.9674997   1.5559988
  10.2310012  41.0764997   0.3319988  10.4177790  41.8332437   0.7186263
   6.2540012  44.6994997  11.0679988   5.6120012  44.6584997  11.7769988
   6.2910012  45.6254997  10.8309988   6.1711324  44.8191559  11.1329824
   6.2510012  44.9204997   5.9799988   5.3580012  44.5794997   5.9219988
   6.7010012  44.5434997   5.2249988   6.1897305  44.8228484   5.8699177
  11.7860012  45.3364997   4.7969988  11.3770012  46.1514997   4.5059988
  12.5070012  45.1964997   4.1829988  11.8274537  45.4292018   4.6741342
  10.8880012  45.5114997  16.2849988  10.3260012  44.8074997  16.6059988
  11.7150012  45.3914997  16.7529988  10.9227095  45.3987883  16.3922330
  12.7910012  44.7824997   7.6109988  12.5960012  45.3874997   6.8959988
  12.9720012  43.9484997   7.1769988  12.7887614  44.7526300   7.4544405
   4.0040012  45.0194997  12.9349988   3.9660012  45.4194997  13.8039988
   3.5130012  44.2024997  13.0259988   3.9324684  44.9638069  13.0661059
   7.3700012  42.3934997  -0.2660012   6.9390012  41.9484997   0.4639988
   6.6520012  42.7654997  -0.7780012   7.2139438  42.3828940  -0.2353201
   0.6120012  42.1354997   6.7859988   1.2430012  42.1064997   7.5049988
   1.0610012  41.7104997   6.0559988   0.7590774  42.0740492   6.7856553
   1.8860012  42.8814997   2.2099988   2.3600012  43.4724997   1.6249988
   1.1690012  43.4124997   2.5569988   1.8539341  43.0340867   2.1768836
  12.0550012  46.4204997  12.2829988  12.3780012  45.7894997  11.6399988
  11.6150012  45.8854997  12.9429988  12.0396895  46.2618441  12.2842850
   8.8320012  42.3474997   7.0669988   7.9210012  42.4044997   7.3549988
   9.3380012  42.2874997   7.8769988   8.7755413  42.3471985   7.2160622
   3.6610012  43.9764997   5.8929988   2.7710012  44.0764997   5.5529988
   3.9570012  43.1344997   5.5469988   3.5792823  43.8763545   5.7997213
   7.3140012  43.9764997   3.5499988   8.2450012  44.1054997   3.7279988
   7.0990012  44.6464997   2.8999988   7.4124247  44.0846565   3.4865747
  13.2370012  41.5824997  10.3309988  12.5610012  41.7134997  10.9949988
  12.7520012  41.4274997   9.5209988  13.0787145  41.5794905  10.3124517
   5.9880012  45.1714997   1.1169988   5.4450012  44.7914997   0.4249988
   6.8210012  45.3654997   0.6879988   6.0264399  45.1458124   0.9644526
  16.5250012  57.2544997  16.6079988  16.7250012  57.6784997  15.7729988
  17.1800012  57.5974997  17.2149988  16.6410051  57.3589648  16.5757836
   4.1230012  49.7284997  16.2159988   4.8550012  49.9824997  16.7769988
   3.3430012  49.9324997  16.7309988   4.1178232  49.7909177  16.3625760
  10.1520012  45.1354997   8.9539988  10.7170012  44.5884997   8.4069988
  10.0050012  44.6134997   9.7419988  10.2092918  44.9902024   8.9858454
   5.1540012  41.2714997   5.3719988   4.8370012  40.3694997   5.3369988
   5.9360012  41.2734997   4.8189988   5.2162284  41.1481628   5.2924783
   8.7790012  43.5234997  11.3679988   7.9430012  43.9774997  11.4779988
   9.3030012  43.7994997  12.1199988   8.7354414  43.6229376  11.4847136
   9.3230012  49.7364997   3.0519988   8.5780012  49.2294997   2.7299988
   9.1890012  49.7854997   3.9989988   9.2028776  49.6736940   3.1358647
  16.4730012  48.8694997  11.8389988  17.1150012  49.3264997  11.2949988
  15.6430012  48.9824997  11.3759988  16.4485963  48.9472704  11.7020177
  13.2210012  42.5504997   1.2519988  12.2820012  42.6624997   1.0999988
  13.5180012  43.4074997   1.5579988  13.1327666  42.6816443   1.2725768
  10.8420012  49.9204997  14.2889988  10.4970012  49.5394997  15.0959988
  10.6420012  50.8544997  14.3609988  10.7678061  49.9945228  14.4090961
  13.9390012  44.4174997   2.9119988  14.8310012  44.2804997   3.2309988
  13.9960012  45.2084997   2.3759988  14.0686285  44.5056660   2.8831690
   4.4480012  49.0314997   8.8219988   5.1930012  49.0294997   8.2209988
   4.5260012  48.2084997   9.3039988   4.5605518  48.9199315   8.8048929
  11.4490012  51.1954997   2.0779988  11.1530012  52.0214997   2.4589988
  10.7460012  50.5754997   2.2739988  11.3134914  51.2248199   2.1566443
   1.4560012  47.4924997  14.1369988   1.6790012  47.0744997  14.9689988
   0.8540012  46.8794997  13.7139988   1.4051759  47.3524668  14.1937022
   8.4720012  47.0094997  16.3499988   8.1760012  46.8434997  15.4549988
   9.4040012  46.7894997  16.3389988   8.5574166  46.9570640  16.2260536
  13.0930012  52.3824997  14.2399988  12.1920012  52.5654997  13.9719988
  13.1270012  52.6414997  15.1609988  12.9743041  52.4425512  14.3278197
  18.8240012  44.6274997   2.6069988  18.2700012  44.2314997   1.9349988
  18.9240012  45.5374997   2.3289988  18.7617059  44.6963586   2.4774401
  18.7870012  50.4274997  15.4439988  17.9360012  50.6654997  15.0769988
  19.3780012  50.4104997  14.6909988  18.7502487  50.4578258  15.2918893
  17.1190012  53.4134997   3.0719988  16.7460012  52.5874997   3.3809988
  17.3970012  53.2304997   2.1749988  17.1055630  53.2757303   2.9929626
  14.2800012  48.2214997  10.0929988  13.3510012  47.9894997  10.0659988
  14.7310012  47.4444997   9.7629988  14.2139216  48.0847238  10.0446917
   6.8230012  52.5494997   6.2259988   7.3500012  53.3224997   6.0259988
   5.9430012  52.7744997   5.9249988   6.7761773  52.6858005   6.1579010
   2.5780012  47.4114997   0.8129988   3.1940012  48.0384997   1.1929988
   1.7160012  47.7274997   1.0849988   2.5457698  47.5399430   0.9017183
   8.2500012  50.2124997   5.8029988   8.0090012  51.1374997   5.8439988
   7.5090012  49.7534997   6.1989988   8.1168409  50.2771421   5.8621377
   8.7650012  54.3614997  12.1179988   9.1270012  55.2164997  11.8839988
   9.2960012  54.0694997  12.8579988   8.8864473  54.4391060  12.1860855
   6.9330012  55.2344997   5.3479988   5.9830012  55.3394997   5.3989988
   7.2850012  56.0544997   5.6929988   6.8504203  55.3598314   5.4016650
  12.3090012  50.4604997  11.8179988  11.8830012  50.2334997  12.6449988
  12.8890012  49.7224997  11.6359988  12.3291868  50.3295299  11.9065830
  14.5120012  51.3894997   0.8919988  14.8650012  51.0094997   1.6969988
  13.5630012  51.2964997   0.9789988  14.4320441  51.3249596   1.0138559
  14.9670012  55.0124997  14.2879988  14.3660012  54.4574997  13.7919988
  15.2490012  55.6794997  13.6619988  14.9228519  55.0266841  14.1354952
  19.0150012  55.8694997   1.0929988  19.7590012  56.4554997   0.9529988
  18.3210012  56.4374997   1.4269988  19.0230292  56.0265582   1.1189961
   3.0900012  42.2454997  13.6949988   2.1970012  42.5844997  13.6269988
   2.9910012  41.3904997  14.1129988   2.9544164  42.1762588  13.7422235
  15.3780012  50.0624997   3.1189988  15.1000012  49.3344997   3.6749988
  16.3050012  50.1814997   3.3239988  15.4653124  49.9788802   3.2228845
   2.7410012  54.0504997  12.1299988   2.9580012  53.1184997  12.0989988
   2.9870012  54.3244997  13.0129988   2.8039549  53.9600636  12.2451763
   8.6030012  52.5014997  -0.6610012   8.8420012  51.7534997  -1.2080012
   8.3340012  52.1134997   0.1719988   8.5993675  52.3466638  -0.6233135
   7.5400012  52.0714997   1.7959988   7.6860012  51.5514997   2.5859988
   7.5370012  52.9784997   2.1019988   7.5595989  52.1228853   1.9456088
   3.9930012  49.3244997   2.3059988   3.3070012  49.6764997   2.8729988
   4.5150012  50.0874997   2.0589988   3.9696852  49.4758578   2.3502118
  11.8240012  41.9864997  12.5849988  12.5230012  42.0604997  13.2349988
  11.4430012  41.1224997  12.7389988  11.8681767  41.8797624  12.6948322
  12.6090012  41.6384997   3.6819988  12.8290012  42.1104997   2.8789988
  13.1670012  42.0334997   4.3519988  12.7144968  41.7564285   3.6627331
  10.2770012  53.7694997   2.5449988   9.4610012  54.2664997   2.5969988
  10.8070012  54.2444997   1.9049988  10.2369161  53.9017722   2.4655956
   9.8090012  43.3664997   4.5169988  10.6210012  43.8714997   4.5629988
   9.5640012  43.2214997   5.4309988   9.8870520  43.4160375   4.6468517
  10.3440012  44.3524997  13.7019988  10.4630012  44.9264997  14.4589988
  11.0000012  43.6644997  13.8159988  10.4489757  44.3381079  13.8210825
  10.6920012  40.4474997   5.4549988  10.3460012  41.0654997   6.0999988
  11.3510012  40.9484997   4.9739988  10.7337826  40.5995802   5.4780971
   7.6160012  54.8134997   2.5269988   7.7760012  55.6124997   2.0259988
   7.4180012  55.1194997   3.4119988   7.6111649  54.9644469   2.5779815
   6.3500012  41.5104997   2.1419988   6.2670012  42.3994997   2.4889988
   7.2400012  41.2454997   2.3739988   6.4589469  41.5961430   2.2207626
  16.5490012  42.2594997  14.5369988  15.6320012  42.5224997  14.4489988
  16.8840012  42.2564997  13.6399988  16.4689900  42.2950224  14.4037919
  15.1510012  46.0104997   8.6319988  14.3530012  45.5954997   8.3039988
  15.5960012  45.3194997   9.1229988  15.1019885  45.8603543   8.6534889
   4.6090012  51.9384997   1.2029988   5.2010012  52.6374997   1.4789988
   5.0680012  51.5054997   0.4829988   4.7521142  51.9757049   1.1434830
   2.9250012  44.6024997   0.3189988   2.8800012  45.5414997   0.4969988
   2.0370012  44.3664997   0.0489988   2.7988574  44.6991892   0.3068912
  16.2370012  55.2664997  10.2549988  16.0820012  55.9444997   9.5979988
  17.1700012  55.3384997  10.4579988  16.3418500  55.3690170  10.1925119
   3.7330012  39.3844997   8.9919988   3.5040012  39.4434997   8.0639988
   3.2900012  38.5924997   9.2979988   3.6418530  39.2855753   8.9064786
   2.6630012  53.3244997   5.1519988   1.8310012  53.7974997   5.1799988
   3.2090012  53.8344997   4.5539988   2.6229739  53.4581871   5.0749716
   1.9510012  55.9374997  16.4819988   2.4920012  55.7204997  17.2419988
   1.4700012  55.1314997  16.2929988   1.9599345  55.7989514  16.5603076
   6.5490012  54.8564997  18.1029988   7.3160012  54.3974997  18.4439988
   6.5270012  54.6304997  17.1729988   6.6511434  54.7630409  18.0240043
  10.6410012  54.3644997  -0.5220012   9.9970012  53.7334997  -0.2010012
  11.4030012  53.8334997  -0.7540012  10.6558077  54.2062920  -0.5093989
  13.1260012  53.2364997  16.8319988  12.7750012  52.3804997  17.0749988
  13.8520012  53.3794997  17.4389988  13.1760769  53.1385636  16.9473619
  15.2450012  54.1814997  -0.2880012  15.5280012  53.3874997   0.1639988
  15.9850012  54.4144997  -0.8490012  15.3837486  54.1042803  -0.3019302
   1.8580012  49.7474997  17.4369988   2.0020012  48.8454997  17.1499988
   1.0860012  50.0334997  16.9489988   1.7733322  49.6628261  17.3317881
   6.2000012  50.0914997  -0.4310012   6.2640012  49.2974997   0.0999988
   6.8530012  49.9724997  -1.1210012   6.2970241  49.9667148  -0.4515683
   8.5140012  49.7174997  16.8689988   8.1850012  49.9884997  16.0119988
   8.6660012  48.7764997  16.7819988   8.4894809  49.6273862  16.7398244
  11.5520012  51.1384997  -0.6950012  11.2830012  51.3184997   0.2059988
  11.3460012  50.2124997  -0.8260012  11.4873825  51.0380152  -0.5894786
  14.2480012  49.6334997  14.2529988  14.9940012  50.2214997  14.1329988
  13.4910012  50.2154997  14.3159988  14.2477554  49.7927011  14.2450907
   2.6910012  46.9474997  16.8569988   3.0990012  46.0904997  16.7359988
   2.4310012  46.9624997  17.7779988   2.7117568  46.8320807  16.9649588
   7.3490012  48.0634997   1.8749988   6.8890012  47.5794997   2.5609988
   7.6040012  47.3954997   1.2389988   7.3204902  47.9068731   1.8829334
   6.6380012  45.9564997  14.2309988   6.0200012  46.6314997  14.5109988
   6.9820012  46.2774997  13.3979988   6.5999615  46.0922721  14.1566581
   8.4200012  46.3064997   0.1369988   8.2400012  46.1524997  -0.7900012
   9.3700012  46.4144997   0.1819988   8.5237776  46.3000175   0.0161843
  11.6580012  48.4284997  17.5079988  12.6110012  48.5114997  17.4809988
  11.4970012  47.7164997  18.1279988  11.7666426  48.3436746  17.5880579
  17.8100012  48.6614997  -0.4170012  17.5360012  48.2364997  -1.2300012
  17.8490012  49.5924997  -0.6340012  17.7777699  48.7292484  -0.5576390
   6.9770012  43.3114997  15.3129988   7.1270012  42.5824997  14.7109988
   6.9800012  44.0884997  14.7539988   6.9979302  43.3167851  15.1550692
   7.3900012  41.6814997  12.8059988   7.9260012  42.1324997  12.1539988
   6.5380012  41.5734997  12.3829988   7.3482178  41.7286390  12.6595756
   8.9720012  47.1204997  13.0449988   9.7220012  46.9644997  12.4719988
   8.6330012  47.9724997  12.7699988   9.0288921  47.2142968  12.9293561
  13.3870012  44.9354997  18.0739988  13.5800012  44.0044997  17.9619988
  14.2450012  45.3604997  18.0639988  13.5293020  44.8656389  18.0573361
  14.7040012  47.7244997  16.1509988  14.4230012  48.4334997  15.5739988
  15.6470012  47.6514997  15.9999988  14.7929027  47.8117646  16.0515551
   5.4560012  44.5094997  17.2249988   4.6890012  43.9774997  17.0149988
   6.1350012  44.1994997  16.6249988   5.4427022  44.3947506  17.1151648
   8.1960012  39.1374997  13.2369988   8.0970012  40.0844997  13.1319988
   7.4530012  38.7654997  12.7619988   8.0820564  39.2165902  13.1584560
   9.4600012  43.4594997  16.8009988   9.2240012  43.2394997  17.7029988
   8.6760012  43.2524997  16.2909988   9.3218628  43.4014760  16.8553932
  12.1750012  42.5864997  15.8769988  11.2280012  42.6184997  16.0089988
  12.4880012  41.9614997  16.5299988  12.0875475  42.5063207  15.9834455
  13.8090012  41.2204997  17.8819988  13.7130012  40.2684997  17.8759988
  13.4880012  41.4894997  18.7419988  13.7524070  41.1264035  17.9975441
   3.6360012  42.4304997  16.9289988   3.8480012  41.7234997  16.3189988
   3.5250012  41.9924997  17.7729988   3.6499721  42.2747084  16.9596843
   8.4170012  38.4314997  15.9089988   9.1290012  37.7914997  15.8949988
   8.3160012  38.6984997  14.9949988   8.5007939  38.3799938  15.7835650
   8.7710012  40.1144997  17.9619988   8.6390012  39.6384997  17.1419988
   8.1720012  40.8584997  17.9069988   8.6719071  40.1499618  17.8422886
   8.3170012  56.9974997   1.1389988   9.2500012  57.1554997   1.2819988
   8.0530012  57.6724997   0.5139988   8.4089510  57.1103611   1.0740741
   1.8860012  51.6334997   0.6209988   2.8000012  51.7124997   0.8949988
   1.8930012  50.9464997  -0.0450012   2.0121131  51.5513961   0.5684393
   0.5350012  57.0264997   5.6989988  -0.1119988  56.5644997   5.1659988
   0.8890012  56.3544997   6.2809988   0.4943849  56.8724723   5.7047959
   1.4050012  55.1074997   7.5029988   1.0700012  54.2274997   7.6749988
   1.6270012  55.4524997   8.3679988   1.3891783  55.0337500   7.6434208
  18.9530012  55.9164997  10.4839988  18.9320012  56.1014997  11.4229988
  19.6440012  56.4854997  10.1429988  19.0434618  56.0186606  10.5663864
  18.5170012  55.4844997  13.4059988  18.0290012  54.7484997  13.0349988
  19.0660012  55.0904997  14.0839988  18.5244872  55.3306249  13.4469160
  16.9670012  51.2734997  18.0439988  16.1010012  51.1684997  18.4379988
  17.3440012  52.0324997  18.4899988  16.8993308  51.3616900  18.1582393
  18.2680012  49.5304997   3.5579988  19.1180012  49.9514997   3.6849988
  18.2740012  48.7904997   4.1649988  18.3851372  49.4880803   3.6574344
  18.6630012  47.5834997   5.3819988  17.9360012  47.1044997   5.7789988
  19.2440012  47.7894997   6.1139988  18.6419375  47.5457090   5.5354129
  18.4220012  50.3684997  10.3289988  19.2550012  49.9904997  10.0489988
  18.5340012  51.3114997  10.2099988  18.5512647  50.4442218  10.2745487
  16.9080012  53.2464997  12.6359988  16.2610012  53.5714997  13.2619988
  16.3910012  52.8064997  11.9619988  16.7494029  53.2315004  12.6305827
  18.9310012  47.4844997   1.7729988  18.4090012  47.8414997   1.0539988
  18.8980012  48.1594997   2.4509988  18.8551634  47.6245413   1.7663145
  17.2800012  44.7244997   0.3239988  17.3760012  45.3914997  -0.3570012
  17.1400012  43.9084997  -0.1580012  17.2742135  44.7054500   0.1658491
  16.4490012  46.1044997   5.9449988  16.2990012  45.1594997   5.9239988
  16.0960012  46.3854997   6.7879988  16.3806625  46.0130441   6.0562346
   1.4850012  48.1824997   9.9549988   1.6690012  48.1004997   9.0189988
   2.3340012  48.0584997  10.3789988   1.6250139  48.1545003   9.8841455
  17.3060012  48.0744997  15.5829988  17.8890012  47.3404997  15.7749988
  17.8700012  48.8464997  15.6299988  17.4619769  48.0784227  15.6156159
  18.8020012  45.9774997  16.2679988  17.9390012  45.5984997  16.1019988
  19.4070012  45.2384997  16.1939988  18.7655979  45.8258023  16.2352817
  16.5270012  42.1324997  -0.5590012  17.1380012  41.7614997   0.0779988
  15.6910012  41.7114997  -0.3630012  16.4975032  42.0247554  -0.4452965
  16.1600012  43.6874997   4.4069988  16.4400012  42.7804997   4.5309988
  16.9190012  44.1214997   4.0179988  16.3009277  43.6220942   4.3713682
  16.7720012  44.2684997   9.8429988  17.7050012  44.4804997   9.8089988
  16.5370012  44.3704997  10.7649988  16.8678036  44.3112769   9.9629976
  16.8010012  45.0054997  12.6189988  15.9580012  45.2734997  12.9849988
  17.2430012  45.8274997  12.4079988  16.7454158  45.1533291  12.6405491
   1.0820012  43.4534997  16.0959988   2.0020012  43.3314997  16.3319988
   0.6330012  42.7034997  16.4849988   1.1471580  43.3353727  16.1809006
  19.0840012  38.9854997  17.9719988  19.4340012  38.3314997  17.3669988
  19.2310012  39.8224997  17.5329988  19.1518419  39.0091591  17.8297118
  16.7730012  40.9504997   4.4549988  16.9560012  40.5014997   5.2809988
  16.1740012  40.3654997   3.9919988  16.7170202  40.8099975   4.5053275
   2.3030012  41.7654997   8.9869988   2.7490012  40.9734997   9.2889988
   2.7700012  42.4814997   9.4179988   2.4270172  41.7540624   9.0864820
   0.6070012  44.7644997  10.0559988   1.0990012  44.5434997   9.2649988
   0.9700012  45.6054997  10.3369988   0.7233126  44.8478357   9.9857531
  18.6040012  41.0944997  16.3219988  17.6860012  41.3654997  16.2859988
  18.7270012  40.5594997  15.5369988  18.4951066  41.0592892  16.2110487
  18.6400012  41.0174997   0.9829988  19.0520012  40.2964997   0.5079988
  19.3220012  41.6874997   1.0419988  18.7885885  41.0092368   0.9258915
   0.9210012  41.0224997   4.1099988  -0.0039988  41.2314997   3.9809988
   1.3750012  41.5064997   3.4209988   0.8557368  41.1165993   3.9991226
  15.6920012  56.0064997   6.0559988  16.3440012  55.6594997   5.4479988
  16.2020012  56.4954997   6.7019988  15.8502637  56.0250597   6.0600236
   0.8850012  39.7604997  12.4549988   0.2200012  39.5144997  13.0979988
   0.4420012  40.3824997  11.8769988   0.7340956  39.8108632  12.4649352
   3.0770012  52.9354997  16.5989988   2.2560012  53.1104997  16.1389988
   2.8240012  52.8624997  17.5199988   2.9306164  52.9495622  16.6604923
   6.0310012  53.9104997  12.8579988   5.6060012  54.7194997  12.5749988
   6.9350012  53.9954997  12.5559988   6.0950271  54.0328469  12.7783776
  10.3420012  55.3094997  15.8169988  10.5270012  54.9754997  16.6949988
  11.1880012  55.6184997  15.4949988  10.4817539  55.3056047  15.8935605
  12.6870012  56.5954997  15.0609988  13.3640012  55.9624997  14.8209988
  13.0090012  56.9964997  15.8679988  12.8231637  56.5631154  15.1372793
  17.6040012  39.1844997  14.1409988  16.7920012  39.5094997  13.7529988
  17.8370012  38.4244997  13.6079988  17.5243423  39.1262436  14.0158253
   3.4330012  57.1664997  12.9049988   2.7120012  57.6064997  12.4539988
   3.0670012  56.9154997  13.7539988   3.2849804  57.1927698  12.9579840
   5.9000012  56.7664997  11.9349988   5.0350012  56.8384997  12.3389988
   5.8450012  57.3134997  11.1509988   5.7742085  56.8502685  11.8843362
  10.6100012  56.6544997  11.1099988  10.1540012  57.1834997  10.4559988
  10.7730012  57.2574997  11.8359988  10.5695585  56.8084468  11.1185062
  12.9380012  55.5324997  12.0549988  12.0330012  55.6974997  11.7899988
  13.3670012  56.3854997  11.9899988  12.8720799  55.6704483  12.0099182
  15.5420012  57.1024997  12.3499988  15.3600012  58.0184997  12.1399988
  15.7190012  56.6924997  11.5039988  15.5410210  57.1724822  12.2067885
   2.8470012  55.7894997   9.8149988   2.8290012  55.3644997  10.6729988
   3.6520012  55.4714997   9.4069988   2.9533875  55.6883812   9.8771655
   4.9890012  54.4994997   8.4699988   4.7700012  53.5834997   8.6399988
   5.8130012  54.6394997   8.9359988   5.0704420  54.3930520   8.5562774
   7.5260012  54.9694997   9.3189988   7.7390012  54.0814997   9.0319988
   7.5900012  54.9354997  10.2729988   7.5638232  54.8433102   9.4087397
  11.0340012  40.6334997   8.4629988  10.3600012  40.0044997   8.7189988
  11.5980012  40.1494997   7.8599988  11.0179230  40.4818744   8.4165340
  16.1770012  38.7414997   8.5759988  16.7810012  39.2884997   8.0739988
  15.3070012  39.0604997   8.3359988  16.1421241  38.8595806   8.4747654
  17.9040012  39.8794997   6.9089988  18.5160012  39.3654997   6.3829988
  18.2860012  40.7574997   6.9329988  18.0394540  39.9277140   6.8401830
   3.3610012  39.2674997   6.2849988   2.5840012  39.0334997   5.7779988
   3.8910012  38.4704997   6.2939988   3.3262330  39.1276988   6.2167742
   2.1970012  39.0654997   2.0889988   2.6360012  39.6764997   1.4969988
   1.5640012  39.6034997   2.5629988   2.1714514  39.2219257   2.0720930
   7.9400012  39.1944997   6.0989988   8.8150012  39.5824997   6.0689988
   7.8040012  38.9794997   7.0209988   8.0413695  39.2185184   6.2196440
  13.4970012  39.2244997   7.7479988  13.5730012  39.3194997   6.7979988
  13.2220012  38.3164997   7.8769988  13.4702321  39.1147867   7.6355079
  14.8500012  39.2504997   3.4399988  14.1480012  39.8654997   3.2309988
  14.4060012  38.4124997   3.5709988  14.6936330  39.2215783   3.4290328
   2.0980012  55.0134997   2.9869988   1.4130012  54.9754997   2.3189988
   2.1020012  55.9264997   3.2749988   2.0048193  55.1317016   2.9345284
   4.0580012  40.9814997   0.5309988   4.5500012  40.3514997   0.0039988
   4.6820012  41.2774997   1.1949988   4.2095446  40.9353199   0.5485980
   9.0840012  41.2744997   2.9879988   9.2620012  40.6284997   3.6709988
   9.0310012  42.1084997   3.4559988   9.1011829  41.2987985   3.1445940
  10.9630012  56.2234997   1.3839988  11.8290012  56.5894997   1.2059988
  10.7160012  55.7834997   0.5699988  11.0482392  56.2141756   1.2496289
  17.6720012  55.7864997   4.0629988  17.4770012  55.0384997   3.4979988
  17.6330012  56.5444997   3.4799988  17.6400380  55.7866099   3.9068384
   3.3190012  39.7814997  15.8029988   2.9530012  39.0164997  16.2459988
   4.2320012  39.8104997  16.0899988   3.3922790  39.6807224  15.9024070
   5.2920012  39.1324997  17.3389988   6.1900012  38.8584997  17.1539988
   4.9050012  38.3894997  17.8029988   5.3626612  38.9945914  17.3763643
   3.9160012  55.9334997   0.0119988   3.6490012  56.2204997   0.8849988
   4.6880012  55.3874997   0.1639988   3.9837488  55.8990294   0.1521050
  13.7130012  38.4644997  17.5209988  13.7900012  38.0384997  18.3749988
  14.6070012  38.4784997  17.1779988  13.8443428  38.4080879  17.5915310
  16.8890012  54.5374997  16.2129988  16.1070012  54.3514997  15.6939988
  16.8170012  55.4664997  16.4309988  16.7721777  54.6376492  16.1714048
  31.2950012  48.4234997   6.2439988  31.3840012  49.3674997   6.1119988
  30.6570012  48.1484997   5.5859988  31.2209081  48.5154830   6.1369614
  30.2280012  47.6784997   9.6629988  30.1900012  47.0324997  10.3679988
  29.9060012  47.2124997   8.8919988  30.1792333  47.5269408   9.6552978
  22.5970012  47.2934997  11.2559988  22.6380012  46.6674997  11.9789988
  23.3000012  47.9174997  11.4379988  22.6976363  47.2921196  11.3796044
  33.9340012  50.6174997   7.9639988  33.4940012  49.8974997   8.4149988
  33.9210012  51.3384997   8.5939988  33.8720226  50.6163731   8.1108494
  23.5200012  51.7434997   9.7909988  23.1510012  50.9414997   9.4209988
  24.4610012  51.5744997   9.8369988  23.5967289  51.6110153   9.7466316
  20.1300012  45.4034997   5.1839988  19.6830012  46.2494997   5.1649988
  19.5690012  44.8234997   4.6679988  19.9929900  45.4409916   5.1116801
  20.8410012  47.5654997   7.3099988  21.0540012  46.7954997   7.8369988
  21.5790012  47.6544997   6.7059988  20.9698496  47.4721394   7.3005300
  31.0460012  55.7224997   8.1769988  31.6660012  55.0454997   7.9029988
  30.8380012  55.5044997   9.0849988  31.1026904  55.6003870   8.2623365
  28.6180012  50.1114997  10.0689988  28.9220012  49.4254997   9.4739988
  29.3390012  50.2294997  10.6869988  28.7570671  50.0336305  10.0711816
  37.2810012  41.7124997  10.9299988  37.3300012  42.3224997  11.6659988
  37.7060012  42.1734997  10.2069988  37.3451824  41.8583741  10.9330205
  31.7590012  44.5054997  10.3969988  31.9010012  43.5594997  10.4169988
  31.6520012  44.7124997   9.4679988  31.7639864  44.4039534  10.2742339
  24.9130012  42.6064997   7.6689988  24.9570012  43.4664997   7.2509988
  24.4560012  42.0544997   7.0349988  24.8572185  42.6495799   7.5260299
  32.6360012  42.7374997   6.0699988  33.2820012  42.4084997   6.6949988
  33.1460012  43.2554997   5.4469988  32.7934264  42.7624611   6.0713862
  21.5340012  45.0034997   8.4309988  22.1870012  44.4534997   8.8629988
  21.5580012  44.7294997   7.5139988  21.6266683  44.8911466   8.3662123
  26.6900012  46.5534997   7.6459988  27.3060012  46.0274997   8.1559988
  26.1040012  45.9134997   7.2429988  26.6950810  46.3949208   7.6613173
  37.6720012  43.1904997  13.1659988  36.9840012  43.8484997  13.0699988
  37.6880012  42.9934997  14.1019988  37.5798525  43.2540462  13.2794808
  23.7240012  41.5244997  11.7429988  23.5050012  42.0544997  10.9769988
  23.0560012  41.7514997  12.3899988  23.6037600  41.6276906  11.7256379
  31.0930012  51.0244997   5.2869988  30.7970012  50.7024997   4.4359988
  30.7680012  51.9244997   5.3279988  31.0086371  51.1020215   5.1761801
  26.2930012  49.2004997  12.0299988  25.5530012  49.7984997  12.1339988
  27.0070012  49.7544997  11.7149988  26.2882237  49.3572831  12.0016465
  34.4000012  42.0284997   8.0499988  34.1840012  41.2624997   8.5829988
  35.0550012  42.5004997   8.5629988  34.4590632  41.9875889   8.1922861
  23.3170012  43.4164997   9.6949988  23.9310012  44.0494997  10.0689988
  23.8290012  42.9444997   9.0389988  23.4702296  43.4392370   9.6574252
  24.7000012  51.1644997  12.8179988  24.6950012  52.0444997  12.4399988
  23.8470012  51.0814997  13.2429988  24.5839464  51.2736117  12.8237907
  20.8210012  50.8354997   3.5999988  20.5490012  51.0644997   2.7109988
  20.8670012  51.6734997   4.0599988  20.7900094  50.9801213   3.5405697
  34.4460012  52.4574997  10.3119988  33.5050012  52.5154997  10.4739988
  34.7230012  53.3634997  10.1749988  34.3544679  52.5879443  10.3156815
  34.7470012  40.7434997  11.7299988  34.0110012  41.3544997  11.6919988
  35.4300012  41.1584997  11.2029988  34.7386541  40.8831374  11.6535832
  27.7500012  38.8304997   9.1959988  27.6330012  37.8814997   9.1409988
  26.8950012  39.1624997   9.4689988  27.6183733  38.7455409   9.2253897
  32.6980012  54.2384997   6.9379988  33.1240012  53.5314997   6.4529988
  33.0150012  55.0394997   6.5209988  32.7991019  54.2500994   6.8153130
  33.8580012  52.1394997   5.4459988  33.6000012  51.4494997   4.8349988
  33.9290012  51.6964997   6.2919988  33.8322856  51.9852124   5.4766885
  35.5440012  50.7054997  13.9239988  35.6840012  50.1144997  13.1839988
  35.7110012  51.5784997  13.5669988  35.5856778  50.7426426  13.7746965
  30.0170012  47.6674997   3.6959988  29.3050012  48.2024997   3.3439988
  30.7080012  47.7234997   3.0359988  30.0130132  47.7482543   3.5586289
  30.0700012  46.1254997   0.7349988  30.7710012  46.1474997   1.3859988
  30.3730012  45.4974997   0.0789988  30.2067830  46.0436566   0.7353711
  37.3860012  47.0454997  11.9899988  36.7330012  47.7404997  12.0789988
  37.8510012  47.2554997  11.1799988  37.3595390  47.1689425  11.8926883
  33.4220012  47.8774997   4.6479988  32.6900012  48.1054997   5.2209988
  33.8700012  47.1634997   5.1029988  33.3823095  47.8122571   4.7879119
  33.3200012  46.0514997  13.7149988  33.4000012  46.8144997  14.2869988
  32.7180012  46.3304997  13.0249988  33.2495756  46.1937134  13.7000589
  25.0680012  48.5074997   6.5299988  24.7370012  48.1374997   5.7119988
  25.6560012  47.8374997   6.8769988  25.1021873  48.3661156   6.4648102
  26.4340012  51.9354997   9.2119988  26.3400012  51.3574997   8.4549988
  27.1640012  51.5644997   9.7079988  26.5197981  51.8062390   9.1754165
  25.4340012  47.2764997  10.1639988  26.0000012  47.3974997   9.4009988
  25.7530012  47.9134997  10.8029988  25.5545786  47.3791884  10.1460040
  31.7430012  52.7794997  10.8979988  31.5030012  53.4414997  11.5459988
  31.5450012  51.9454997  11.3229988  31.6833808  52.7573134  11.0441524
  26.3140012  51.6754997  14.8809988  26.0030012  52.4574997  15.3359988
  25.6640012  51.5224997  14.1949988  26.1835558  51.7619105  14.8505871
  32.2930012  47.0394997   2.3329988  32.8730012  47.1894997   3.0799988
  32.7070012  47.5104997   1.6099988  32.4282831  47.1236841   2.3374134
  23.2340012  47.8734997  14.1099988  23.3050012  48.5244997  14.8079988
  22.3440012  47.9764997  13.7749988  23.1233117  47.9765936  14.1602700
  30.0200012  53.7764997   5.7679988  30.4940012  54.0714997   6.5459988
  29.4570012  54.5144997   5.5349988  30.0087653  53.9166932   5.8430136
  24.5540012  53.7474997  15.6439988  24.5610012  53.6114997  14.6969988
  23.6380012  53.6294997  15.8959988  24.4311714  53.7129430  15.5484666
  35.9920012  38.7894997   2.1459988  35.0920012  38.9284997   2.4409988
  36.2440012  39.6204997   1.7439988  35.9028702  38.9209074   2.1320205
  24.0580012  47.5774997   4.1199988  23.7660012  48.3454997   3.6289988
  23.3840012  46.9174997   3.9569988  23.9269081  47.5934406   4.0307340
  37.1810012  53.1554997   0.5219988  37.2550012  54.0944997   0.6929988
  38.0870012  52.8504997   0.4659988  37.3135100  53.2426722   0.5378119
  20.1510012  49.9404997  12.9349988  19.6500012  49.9124997  12.1199988
  20.1560012  49.0344997  13.2439988  20.0831526  49.8142278  12.8652872
  19.9010012  52.7204997   9.8189988  20.8470012  52.5764997   9.7999988
  19.7890012  53.5044997  10.3559988  20.0152727  52.8068046   9.8890072
  38.0990012  53.3864997  15.5009988  38.0500012  52.4314997  15.4639988
  37.2720012  53.6544997  15.9019988  37.9804940  53.2918998  15.5501375
  29.0780012  52.9604997  14.3769988  29.1650012  53.7864997  14.8519988
  28.2140012  52.6304997  14.6259988  28.9731964  53.0289878  14.4756549
  29.4920012  56.7324997   4.1829988  29.4170012  56.6114997   3.2369988
  29.5250012  57.6824997   4.3019988  29.4861848  56.8442500   4.0694834
  23.1450012  55.5214997   5.9639988  23.2980012  55.1734997   6.8429988
  22.2950012  55.1654997   5.7089988  23.0508962  55.4256650   6.0498340
  32.5940012  55.8864997   1.1849988  32.9690012  55.1424997   0.7149988
  32.5980012  55.6164997   2.1039988  32.6458915  55.7481486   1.2447824
  32.2630012  55.8124997   3.9349988  31.3270012  55.9124997   4.1129988
  32.5430012  55.1034997   4.5129988  32.1728255  55.7302711   4.0375391
  35.2510012  44.8794997  15.9809988  34.8440012  45.3604997  15.2599988
  35.2920012  43.9744997  15.6729988  35.2008437  44.8229374  15.8406683
  22.4000012  51.2634997  13.9779988  22.6160012  50.9024997  14.8369988
  21.5450012  50.8894997  13.7679988  22.3139292  51.1634111  14.0673386
  25.0190012  39.7334997   9.9729988  24.1570012  39.6464997   9.5659988
  24.9960012  40.5894997  10.4009988  24.8980330  39.8372765   9.9751863
  29.6820012  39.4554997  13.3479988  30.1020012  39.0404997  14.1009988
  28.7490012  39.2774997  13.4649988  29.6133644  39.3745900  13.4669539
  33.0080012  43.2114997  14.2009988  32.4940012  43.0854997  14.9989988
  32.8530012  44.1234997  13.9569988  32.9166852  43.3176132  14.2772158
  33.7710012  48.0724997  -0.0370012  33.8130012  47.8494997  -0.9670012
  34.6200012  48.4714997   0.1529988  33.8915396  48.0959155  -0.1386373
  29.3430012  41.9484997   0.6329988  29.0900012  41.9674997   1.5559988
  29.0870012  41.0764997   0.3319988  29.2737790  41.8332437   0.7186263
  25.1100012  44.6994997  11.0679988  24.4680012  44.6584997  11.7769988
  25.1470012  45.6254997  10.8309988  25.0271324  44.8191559  11.1329824
  25.1070012  44.9204997   5.9799988  24.2140012  44.5794997   5.9219988
  25.5570012  44.5434997   5.2249988  25.0457305  44.8228484   5.8699177
  30.6420012  45.3364997   4.7969988  30.2330012  46.1514997   4.5059988
  31.3630012  45.1964997   4.1829988  30.6834537  45.4292018   4.6741342
  29.7440012  45.5114997  16.2849988  29.1820012  44.8074997  16.6059988
  30.5710012  45.3914997  16.7529988  29.7787095  45.3987883  16.3922330
  31.6470012  44.7824997   7.6109988  31.4520012  45.3874997   6.8959988
  31.8280012  43.9484997   7.1769988  31.6447614  44.7526300   7.4544405
  22.8600012  45.0194997  12.9349988  22.8220012  45.4194997  13.8039988
  22.3690012  44.2024997  13.0259988  22.7884684  44.9638069  13.0661059
  26.2260012  42.3934997  -0.2660012  25.7950012  41.9484997   0.4639988
  25.5080012  42.7654997  -0.7780012  26.0699438  42.3828940  -0.2353201
  19.4680012  42.1354997   6.7859988  20.0990012  42.1064997   7.5049988
  19.9170012  41.7104997   6.0559988  19.6150774  42.0740492   6.7856553
  20.7420012  42.8814997   2.2099988  21.2160012  43.4724997   1.6249988
  20.0250012  43.4124997   2.5569988  20.7099341  43.0340867   2.1768836
  30.9110012  46.4204997  12.2829988  31.2340012  45.7894997  11.6399988
  30.4710012  45.8854997  12.9429988  30.8956895  46.2618441  12.2842850
  27.6880012  42.3474997   7.0669988  26.7770012  42.4044997   7.3549988
  28.1940012  42.2874997   7.8769988  27.6315413  42.3471985   7.2160622
  22.5170012  43.9764997   5.8929988  21.6270012  44.0764997   5.5529988
  22.8130012  43.1344997   5.5469988  22.4352823  43.8763545   5.7997213
  26.1700012  43.9764997   3.5499988  27.1010012  44.1054997   3.7279988
  25.9550012  44.6464997   2.8999988  26.2684247  44.0846565   3.4865747
  32.0930012  41.5824997  10.3309988  31.4170012  41.7134997  10.9949988
  31.6080012  41.4274997   9.5209988  31.9347145  41.5794905  10.3124517
  24.8440012  45.1714997   1.1169988  24.3010012  44.7914997   0.4249988
  25.6770012  45.3654997   0.6879988  24.8824399  45.1458124   0.9644526
  35.3810012  57.2544997  16.6079988  35.5810012  57.6784997  15.7729988
  36.0360012  57.5974997  17.2149988  35.4970051  57.3589648  16.5757836
  22.9790012  49.7284997  16.2159988  23.7110012  49.9824997  16.7769988
  22.1990012  49.9324997  16.7309988  22.9738232  49.7909177  16.3625760
  29.0080012  45.1354997   8.9539988  29.5730012  44.5884997   8.4069988
  28.8610012  44.6134997   9.7419988  29.0652918  44.9902024   8.9858454
  24.0100012  41.2714997   5.3719988  23.6930012  40.3694997   5.3369988
  24.7920012  41.2734997   4.8189988  24.0722284  41.1481628   5.2924783
  27.6350012  43.5234997  11.3679988  26.7990012  43.9774997  11.4779988
  28.1590012  43.7994997  12.1199988  27.5914414  43.6229376  11.4847136
  28.1790012  49.7364997   3.0519988  27.4340012  49.2294997   2.7299988
  28.0450012  49.7854997   3.9989988  28.0588776  49.6736940   3.1358647
  35.3290012  48.8694997  11.8389988  35.9710012  49.3264997  11.2949988
  34.4990012  48.9824997  11.3759988  35.3045963  48.9472704  11.7020177
  32.0770012  42.5504997   1.2519988  31.1380012  42.6624997   1.0999988
  32.3740012  43.4074997   1.5579988  31.9887666  42.6816443   1.2725768
  29.6980012  49.9204997  14.2889988  29.3530012  49.5394997  15.0959988
  29.4980012  50.8544997  14.3609988  29.6238061  49.9945228  14.4090961
  32.7950012  44.4174997   2.9119988  33.6870012  44.2804997   3.2309988
  32.8520012  45.2084997   2.3759988  32.9246285  44.5056660   2.8831690
  23.3040012  49.0314997   8.8219988  24.0490012  49.0294997   8.2209988
  23.3820012  48.2084997   9.3039988  23.4165518  48.9199315   8.8048929
  30.3050012  51.1954997   2.0779988  30.0090012  52.0214997   2.4589988
  29.6020012  50.5754997   2.2739988  30.1694914  51.2248199   2.1566443
  20.3120012  47.4924997  14.1369988  20.5350012  47.0744997  14.9689988
  19.7100012  46.8794997  13.7139988  20.2611759  47.3524668  14.1937022
  27.3280012  47.0094997  16.3499988  27.0320012  46.8434997  15.4549988
  28.2600012  46.7894997  16.3389988  27.4134166  46.9570640  16.2260536
  31.9490012  52.3824997  14.2399988  31.0480012  52.5654997  13.9719988
  31.9830012  52.6414997  15.1609988  31.8303041  52.4425512  14.3278197
  37.6800012  44.6274997   2.6069988  37.1260012  44.2314997   1.9349988
  37.7800012  45.5374997   2.3289988  37.6177059  44.6963586   2.4774401
  37.6430012  50.4274997  15.4439988  36.7920012  50.6654997  15.0769988
  38.2340012  50.4104997  14.6909988  37.6062487  50.4578258  15.2918893
  35.9750012  53.4134997   3.0719988  35.6020012  52.5874997   3.3809988
  36.2530012  53.2304997   2.1749988  35.9615630  53.2757303   2.9929626
  33.1360012  48.2214997  10.0929988  32.2070012  47.9894997  10.0659988
  33.5870012  47.4444997   9.7629988  33.0699216  48.0847238  10.0446917
  25.6790012  52.5494997   6.2259988  26.2060012  53.3224997   6.0259988
  24.7990012  52.7744997   5.9249988  25.6321773  52.6858005   6.1579010
  21.4340012  47.4114997   0.8129988  22.0500012  48.0384997   1.1929988
  20.5720012  47.7274997   1.0849988  21.4017698  47.5399430   0.9017183
  27.1060012  50.2124997   5.8029988  26.8650012  51.1374997   5.8439988
  26.3650012  49.7534997   6.1989988  26.9728409  50.2771421   5.8621377
  27.6210012  54.3614997  12.1179988  27.9830012  55.2164997  11.8839988
  28.1520012  54.0694997  12.8579988  27.7424473  54.4391060  12.1860855
  25.7890012  55.2344997   5.3479988  24.8390012  55.3394997   5.3989988
  26.1410012  56.0544997   5.6929988  25.7064203  55.3598314   5.4016650
  31.1650012  50.4604997  11.8179988  30.7390012  50.2334997  12.6449988
  31.7450012  49.7224997  11.6359988  31.1851868  50.3295299  11.9065830
  33.3680012  51.3894997   0.8919988  33.7210012  51.0094997   1.6969988
  32.4190012  51.2964997   0.9789988  33.2880441  51.3249596   1.0138559
  33.8230012  55.0124997  14.2879988  33.2220012  54.4574997  13.7919988
  34.1050012  55.6794997  13.6619988  33.7788519  55.0266841  14.1354952
  37.8710012  55.8694997   1.0929988  38.6150012  56.4554997   0.9529988
  37.1770012  56.4374997   1.4269988  37.8790292  56.0265582   1.1189961
  21.9460012  42.2454997  13.6949988  21.0530012  42.5844997  13.6269988
  21.8470012  41.3904997  14.1129988  21.8104164  42.1762588  13.7422235
  34.2340012  50.0624997   3.1189988  33.9560012  49.3344997   3.6749988
  35.1610012  50.1814997   3.3239988  34.3213124  49.9788802   3.2228845
  21.5970012  54.0504997  12.1299988  21.8140012  53.1184997  12.0989988
  21.8430012  54.3244997  13.0129988  21.6599549  53.9600636  12.2451763
  27.4590012  52.5014997  -0.6610012  27.6980012  51.7534997  -1.2080012
  27.1900012  52.1134997   0.1719988  27.4553675  52.3466638  -0.6233135
  26.3960012  52.0714997   1.7959988  26.5420012  51.5514997   2.5859988
  26.3930012  52.9784997   2.1019988  26.4155989  52.1228853   1.9456088
  22.8490012  49.3244997   2.3059988  22.1630012  49.6764997   2.8729988
  23.3710012  50.0874997   2.0589988  22.8256852  49.4758578   2.3502118
  30.6800012  41.9864997  12.5849988  31.3790012  42.0604997  13.2349988
  30.2990012  41.1224997  12.7389988  30.7241767  41.8797624  12.6948322
  31.4650012  41.6384997   3.6819988  31.6850012  42.1104997   2.8789988
  32.0230012  42.0334997   4.3519988  31.5704968  41.7564285   3.6627331
  29.1330012  53.7694997   2.5449988  28.3170012  54.2664997   2.5969988
  29.6630012  54.2444997   1.9049988  29.0929161  53.9017722   2.4655956
  28.6650012  43.3664997   4.5169988  29.4770012  43.8714997   4.5629988
  28.4200012  43.2214997   5.4309988  28.7430520  43.4160375   4.6468517
  29.2000012  44.3524997  13.7019988  29.3190012  44.9264997  14.4589988
  29.8560012  43.6644997  13.8159988  29.3049757  44.3381079  13.8210825
  29.5480012  40.4474997   5.4549988  29.2020012  41.0654997   6.0999988
  30.2070012  40.9484997   4.9739988  29.5897826  40.5995802   5.4780971
  26.4720012  54.8134997   2.5269988  26.6320012  55.6124997   2.0259988
  26.2740012  55.1194997   3.4119988  26.4671649  54.9644469   2.5779815
  25.2060012  41.5104997   2.1419988  25.1230012  42.3994997   2.4889988
  26.0960012  41.2454997   2.3739988  25.3149469  41.5961430   2.2207626
  35.4050012  42.2594997  14.5369988  34.4880012  42.5224997  14.4489988
  35.7400012  42.2564997  13.6399988  35.3249900  42.2950224  14.4037919
  34.0070012  46.0104997   8.6319988  33.2090012  45.5954997   8.3039988
  34.4520012  45.3194997   9.1229988  33.9579885  45.8603543   8.6534889
  23.4650012  51.9384997   1.2029988  24.0570012  52.6374997   1.4789988
  23.9240012  51.5054997   0.4829988  23.6081142  51.9757049   1.1434830
  21.7810012  44.6024997   0.3189988  21.7360012  45.5414997   0.4969988
  20.8930012  44.3664997   0.0489988  21.6548574  44.6991892   0.3068912
  35.0930012  55.2664997  10.2549988  34.9380012  55.9444997   9.5979988
  36.0260012  55.3384997  10.4579988  35.1978500  55.3690170  10.1925119
  22.5890012  39.3844997   8.9919988  22.3600012  39.4434997   8.0639988
  22.1460012  38.5924997   9.2979988  22.4978530  39.2855753   8.9064786
  21.5190012  53.3244997   5.1519988  20.6870012  53.7974997   5.1799988
  22.0650012  53.8344997   4.5539988  21.4789739  53.4581871   5.0749716
  20.8070012  55.9374997  16.4819988  21.3480012  55.7204997  17.2419988
  20.3260012  55.1314997  16.2929988  20.8159345  55.7989514  16.5603076
  25.4050012  54.8564997  18.1029988  26.1720012  54.3974997  18.4439988
  25.3830012  54.6304997  17.1729988  25.5071434  54.7630409  18.0240043
  29.4970012  54.3644997  -0.5220012  28.8530012  53.7334997  -0.2010012
  30.2590012  53.8334997  -0.7540012  29.5118077  54.2062920  -0.5093989
  31.9820012  53.2364997  16.8319988  31.6310012  52.3804997  17.0749988
  32.7080012  53.3794997  17.4389988  32.0320769  53.1385636  16.9473619
  34.1010012  54.1814997  -0.2880012  34.3840012  53.3874997   0.1639988
  34.8410012  54.4144997  -0.8490012  34.2397486  54.1042803  -0.3019302
  20.7140012  49.7474997  17.4369988  20.8580012  48.8454997  17.1499988
  19.9420012  50.0334997  16.9489988  20.6293322  49.6628261  17.3317881
  25.0560012  50.0914997  -0.4310012  25.1200012  49.2974997   0.0999988
  25.7090012  49.9724997  -1.1210012  25.1530241  49.9667148  -0.4515683
  27.3700012  49.7174997  16.8689988  27.0410012  49.9884997  16.0119988
  27.5220012  48.7764997  16.7819988  27.3454809  49.6273862  16.7398244
  30.4080012  51.1384997  -0.6950012  30.1390012  51.3184997   0.2059988
  30.2020012  50.2124997  -0.8260012  30.3433825  51.0380152  -0.5894786
  33.1040012  49.6334997  14.2529988  33.8500012  50.2214997  14.1329988
  32.3470012  50.2154997  14.3159988  33.1037554  49.7927011  14.2450907
  21.5470012  46.9474997  16.8569988  21.9550012  46.0904997  16.7359988
  21.2870012  46.9624997  17.7779988  21.5677568  46.8320807  16.9649588
  26.2050012  48.0634997   1.8749988  25.7450012  47.5794997   2.5609988
  26.4600012  47.3954997   1.2389988  26.1764902  47.9068731   1.8829334
  25.4940012  45.9564997  14.2309988  24.8760012  46.6314997  14.5109988
  25.8380012  46.2774997  13.3979988  25.4559615  46.0922721  14.1566581
  27.2760012  46.3064997   0.1369988  27.0960012  46.1524997  -0.7900012
  28.2260012  46.4144997   0.1819988  27.3797776  46.3000175   0.0161843
  30.5140012  48.4284997  17.5079988  31.4670012  48.5114997  17.4809988
  30.3530012  47.7164997  18.1279988  30.6226426  48.3436746  17.5880579
  36.6660012  48.6614997  -0.4170012  36.3920012  48.2364997  -1.2300012
  36.7050012  49.5924997  -0.6340012  36.6337699  48.7292484  -0.5576390
  25.8330012  43.3114997  15.3129988  25.9830012  42.5824997  14.7109988
  25.8360012  44.0884997  14.7539988  25.8539302  43.3167851  15.1550692
  26.2460012  41.6814997  12.8059988  26.7820012  42.1324997  12.1539988
  25.3940012  41.5734997  12.3829988  26.2042178  41.7286390  12.6595756
  27.8280012  47.1204997  13.0449988  28.5780012  46.9644997  12.4719988
  27.4890012  47.9724997  12.7699988  27.8848921  47.2142968  12.9293561
  32.2430012  44.9354997  18.0739988  32.4360012  44.0044997  17.9619988
  33.1010012  45.3604997  18.0639988  32.3853020  44.8656389  18.0573361
  33.5600012  47.7244997  16.1509988  33.2790012  48.4334997  15.5739988
  34.5030012  47.6514997  15.9999988  33.6489027  47.8117646  16.0515551
  24.3120012  44.5094997  17.2249988  23.5450012  43.9774997  17.0149988
  24.9910012  44.1994997  16.6249988  24.2987022  44.3947506  17.1151648
  27.0520012  39.1374997  13.2369988  26.9530012  40.0844997  13.1319988
  26.3090012  38.7654997  12.7619988  26.9380564  39.2165902  13.1584560
  28.3160012  43.4594997  16.8009988  28.0800012  43.2394997  17.7029988
  27.5320012  43.2524997  16.2909988  28.1778628  43.4014760  16.8553932
  31.0310012  42.5864997  15.8769988  30.0840012  42.6184997  16.0089988
  31.3440012  41.9614997  16.5299988  30.9435475  42.5063207  15.9834455
  32.6650012  41.2204997  17.8819988  32.5690012  40.2684997  17.8759988
  32.3440012  41.4894997  18.7419988  32.6084070  41.1264035  17.9975441
  22.4920012  42.4304997  16.9289988  22.7040012  41.7234997  16.3189988
  22.3810012  41.9924997  17.7729988  22.5059721  42.2747084  16.9596843
  27.2730012  38.4314997  15.9089988  27.9850012  37.7914997  15.8949988
  27.1720012  38.6984997  14.9949988  27.3567939  38.3799938  15.7835650
  27.6270012  40.1144997  17.9619988  27.4950012  39.6384997  17.1419988
  27.0280012  40.8584997  17.9069988  27.5279071  40.1499618  17.8422886
  27.1730012  56.9974997   1.1389988  28.1060012  57.1554997   1.2819988
  26.9090012  57.6724997   0.5139988  27.2649510  57.1103611   1.0740741
  20.7420012  51.6334997   0.6209988  21.6560012  51.7124997   0.8949988
  20.7490012  50.9464997  -0.0450012  20.8681131  51.5513961   0.5684393
  19.3910012  57.0264997   5.6989988  18.7440012  56.5644997   5.1659988
  19.7450012  56.3544997   6.2809988  19.3503849  56.8724723   5.7047959
  20.2610012  55.1074997   7.5029988  19.9260012  54.2274997   7.6749988
  20.4830012  55.4524997   8.3679988  20.2451783  55.0337500   7.6434208
  37.8090012  55.9164997  10.4839988  37.7880012  56.1014997  11.4229988
  38.5000012  56.4854997  10.1429988  37.8994618  56.0186606  10.5663864
  37.3730012  55.4844997  13.4059988  36.8850012  54.7484997  13.0349988
  37.9220012  55.0904997  14.0839988  37.3804872  55.3306249  13.4469160
  35.8230012  51.2734997  18.0439988  34.9570012  51.1684997  18.4379988
  36.2000012  52.0324997  18.4899988  35.7553308  51.3616900  18.1582393
  37.1240012  49.5304997   3.5579988  37.9740012  49.9514997   3.6849988
  37.1300012  48.7904997   4.1649988  37.2411372  49.4880803   3.6574344
  37.5190012  47.5834997   5.3819988  36.7920012  47.1044997   5.7789988
  38.1000012  47.7894997   6.1139988  37.4979375  47.5457090   5.5354129
  37.2780012  50.3684997  10.3289988  38.1110012  49.9904997  10.0489988
  37.3900012  51.3114997  10.2099988  37.4072647  50.4442218  10.2745487
  35.7640012  53.2464997  12.6359988  35.1170012  53.5714997  13.2619988
  35.2470012  52.8064997  11.9619988  35.6054029  53.2315004  12.6305827
  37.7870012  47.4844997   1.7729988  37.2650012  47.8414997   1.0539988
  37.7540012  48.1594997   2.4509988  37.7111634  47.6245413   1.7663145
  36.1360012  44.7244997   0.3239988  36.2320012  45.3914997  -0.3570012
  35.9960012  43.9084997  -0.1580012  36.1302135  44.7054500   0.1658491
  35.3050012  46.1044997   5.9449988  35.1550012  45.1594997   5.9239988
  34.9520012  46.3854997   6.7879988  35.2366625  46.0130441   6.0562346
  20.3410012  48.1824997   9.9549988  20.5250012  48.1004997   9.0189988
  21.1900012  48.0584997  10.3789988  20.4810139  48.1545003   9.8841455
  36.1620012  48.0744997  15.5829988  36.7450012  47.3404997  15.7749988
  36.7260012  48.8464997  15.6299988  36.3179769  48.0784227  15.6156159
  37.6580012  45.9774997  16.2679988  36.7950012  45.5984997  16.1019988
  38.2630012  45.2384997  16.1939988  37.6215979  45.8258023  16.2352817
  35.3830012  42.1324997  -0.5590012  35.9940012  41.7614997   0.0779988
  34.5470012  41.7114997  -0.3630012  35.3535032  42.0247554  -0.4452965
  35.0160012  43.6874997   4.4069988  35.2960012  42.7804997   4.5309988
  35.7750012  44.1214997   4.0179988  35.1569277  43.6220942   4.3713682
  35.6280012  44.2684997   9.8429988  36.5610012  44.4804997   9.8089988
  35.3930012  44.3704997  10.7649988  35.7238036  44.3112769   9.9629976
  35.6570012  45.0054997  12.6189988  34.8140012  45.2734997  12.9849988
  36.0990012  45.8274997  12.4079988  35.6014158  45.1533291  12.6405491
  19.9380012  43.4534997  16.0959988  20.8580012  43.3314997  16.3319988
  19.4890012  42.7034997  16.4849988  20.0031580  43.3353727  16.1809006
  37.9400012  38.9854997  17.9719988  38.2900012  38.3314997  17.3669988
  38.0870012  39.8224997  17.5329988  38.0078419  39.0091591  17.8297118
  35.6290012  40.9504997   4.4549988  35.8120012  40.5014997   5.2809988
  35.0300012  40.3654997   3.9919988  35.5730202  40.8099975   4.5053275
  21.1590012  41.7654997   8.9869988  21.6050012  40.9734997   9.2889988
  21.6260012  42.4814997   9.4179988  21.2830172  41.7540624   9.0864820
  19.4630012  44.7644997  10.0559988  19.9550012  44.5434997   9.2649988
  19.8260012  45.6054997  10.3369988  19.5793126  44.8478357   9.9857531
  37.4600012  41.0944997  16.3219988  36.5420012  41.3654997  16.2859988
  37.5830012  40.5594997  15.5369988  37.3511066  41.0592892  16.2110487
  37.4960012  41.0174997   0.9829988  37.9080012  40.2964997   0.5079988
  38.1780012  41.6874997   1.0419988  37.6445885  41.0092368   0.9258915
  19.7770012  41.0224997   4.1099988  18.8520012  41.2314997   3.9809988
  20.2310012  41.5064997   3.4209988  19.7117368  41.1165993   3.9991226
  34.5480012  56.0064997   6.0559988  35.2000012  55.6594997   5.4479988
  35.0580012  56.4954997   6.7019988  34.7062637  56.0250597   6.0600236
  19.7410012  39.7604997  12.4549988  19.0760012  39.5144997  13.0979988
  19.2980012  40.3824997  11.8769988  19.5900956  39.8108632  12.4649352
  21.9330012  52.9354997  16.5989988  21.1120012  53.1104997  16.1389988
  21.6800012  52.8624997  17.5199988  21.7866164  52.9495622  16.6604923
  24.8870012  53.9104997  12.8579988  24.4620012  54.7194997  12.5749988
  25.7910012  53.9954997  12.5559988  24.9510271  54.0328469  12.7783776
  29.1980012  55.3094997  15.8169988  29.3830012  54.9754997  16.6949988
  30.0440012  55.6184997  15.4949988  29.3377539  55.3056047  15.8935605
  31.5430012  56.5954997  15.0609988  32.2200012  55.9624997  14.8209988
  31.8650012  56.9964997  15.8679988  31.6791637  56.5631154  15.1372793
  36.4600012  39.1844997  14.1409988  35.6480012  39.5094997  13.7529988
  36.6930012  38.4244997  13.6079988  36.3803423  39.1262436  14.0158253
  22.2890012  57.1664997  12.9049988  21.5680012  57.6064997  12.4539988
  21.9230012  56.9154997  13.7539988  22.1409804  57.1927698  12.9579840
  24.7560012  56.7664997  11.9349988  23.8910012  56.8384997  12.3389988
  24.7010012  57.3134997  11.1509988  24.6302085  56.8502685  11.8843362
  29.4660012  56.6544997  11.1099988  29.0100012  57.1834997  10.4559988
  29.6290012  57.2574997  11.8359988  29.4255585  56.8084468  11.1185062
  31.7940012  55.5324997  12.0549988  30.8890012  55.6974997  11.7899988
  32.2230012  56.3854997  11.9899988  31.7280799  55.6704483  12.0099182
  34.3980012  57.1024997  12.3499988  34.2160012  58.0184997  12.1399988
  34.5750012  56.6924997  11.5039988  34.3970210  57.1724822  12.2067885
  21.7030012  55.7894997   9.8149988  21.6850012  55.3644997  10.6729988
  22.5080012  55.4714997   9.4069988  21.8093875  55.6883812   9.8771655
  23.8450012  54.4994997   8.4699988  23.6260012  53.5834997   8.6399988
  24.6690012  54.6394997   8.9359988  23.9264420  54.3930520   8.5562774
  26.3820012  54.9694997   9.3189988  26.5950012  54.0814997   9.0319988
  26.4460012  54.9354997  10.2729988  26.4198232  54.8433102   9.4087397
  29.8900012  40.6334997   8.4629988  29.2160012  40.0044997   8.7189988
  30.4540012  40.1494997   7.8599988  29.8739230  40.4818744   8.4165340
  35.0330012  38.7414997   8.5759988  35.6370012  39.2884997   8.0739988
  34.1630012  39.0604997   8.3359988  34.9981241  38.8595806   8.4747654
  36.7600012  39.8794997   6.9089988  37.3720012  39.3654997   6.3829988
  37.1420012  40.7574997   6.9329988  36.8954540  39.9277140   6.8401830
  22.2170012  39.2674997   6.2849988  21.4400012  39.0334997   5.7779988
  22.7470012  38.4704997   6.2939988  22.1822330  39.1276988   6.2167742
  21.0530012  39.0654997   2.0889988  21.4920012  39.6764997   1.4969988
  20.4200012  39.6034997   2.5629988  21.0274514  39.2219257   2.0720930
  26.7960012  39.1944997   6.0989988  27.6710012  39.5824997   6.0689988
  26.6600012  38.9794997   7.0209988  26.8973695  39.2185184   6.2196440
  32.3530012  39.2244997   7.7479988  32.4290012  39.3194997   6.7979988
  32.0780012  38.3164997   7.8769988  32.3262321  39.1147867   7.6355079
  33.7060012  39.2504997   3.4399988  33.0040012  39.8654997   3.2309988
  33.2620012  38.4124997   3.5709988  33.5496330  39.2215783   3.4290328
  20.9540012  55.0134997   2.9869988  20.2690012  54.9754997   2.3189988
  20.9580012  55.9264997   3.2749988  20.8608193  55.1317016   2.9345284
  22.9140012  40.9814997   0.5309988  23.4060012  40.3514997   0.0039988
  23.5380012  41.2774997   1.1949988  23.0655446  40.9353199   0.5485980
  27.9400012  41.2744997   2.9879988  28.1180012  40.6284997   3.6709988
  27.8870012  42.1084997   3.4559988  27.9571829  41.2987985   3.1445940
  29.8190012  56.2234997   1.3839988  30.6850012  56.5894997   1.2059988
  29.5720012  55.7834997   0.5699988  29.9042392  56.2141756   1.2496289
  36.5280012  55.7864997   4.0629988  36.3330012  55.0384997   3.4979988
  36.4890012  56.5444997   3.4799988  36.4960380  55.7866099   3.9068384
  22.1750012  39.7814997  15.8029988  21.8090012  39.0164997  16.2459988
  23.0880012  39.8104997  16.0899988  22.2482790  39.6807224  15.9024070
  24.1480012  39.1324997  17.3389988  25.0460012  38.8584997  17.1539988
  23.7610012  38.3894997  17.8029988  24.2186612  38.9945914  17.3763643
  22.7720012  55.9334997   0.0119988  22.5050012  56.2204997   0.8849988
  23.5440012  55.3874997   0.1639988  22.8397488  55.8990294   0.1521050
  32.5690012  38.4644997  17.5209988  32.6460012  38.0384997  18.3749988
  33.4630012  38.4784997  17.1779988  32.7003428  38.4080879  17.5915310
  35.7450012  54.5374997  16.2129988  34.9630012  54.3514997  15.6939988
  35.6730012  55.4664997  16.4309988  35.6281777  54.6376492  16.1714048
  50.1510012  48.4234997   6.2439988  50.2400012  49.3674997   6.1119988
  49.5130012  48.1484997   5.5859988  50.0769081  48.5154830   6.1369614
  49.0840012  47.6784997   9.6629988  49.0460012  47.0324997  10.3679988
  48.7620012  47.2124997   8.8919988  49.0352333  47.5269408   9.6552978
  41.4530012  47.2934997  11.2559988  41.4940012  46.6674997  11.9789988
  42.1560012  47.9174997  11.4379988  41.5536363  47.2921196  11.3796044
  52.7900012  50.6174997   7.9639988  52.3500012  49.8974997   8.4149988
  52.7770012  51.3384997   8.5939988  52.7280226  50.6163731   8.1108494
  42.3760012  51.7434997   9.7909988  42.0070012  50.9414997   9.4209988
  43.3170012  51.5744997   9.8369988  42.4527289  51.6110153   9.7466316
  38.9860012  45.4034997   5.1839988  38.5390012  46.2494997   5.1649988
  38.4250012  44.8234997   4.6679988  38.8489900  45.4409916   5.1116801
  39.6970012  47.5654997   7.3099988  39.9100012  46.7954997   7.8369988
  40.4350012  47.6544997   6.7059988  39.8258496  47.4721394   7.3005300
  49.9020012  55.7224997   8.1769988  50.5220012  55.0454997   7.9029988
  49.6940012  55.5044997   9.0849988  49.9586904  55.6003870   8.2623365
  47.4740012  50.1114997  10.0689988  47.7780012  49.4254997   9.4739988
  48.1950012  50.2294997  10.6869988  47.6130671  50.0336305  10.0711816
  56.1370012  41.7124997  10.9299988  56.1860012  42.3224997  11.6659988
  56.5620012  42.1734997  10.2069988  56.2011824  41.8583741  10.9330205
  50.6150012  44.5054997  10.3969988  50.7570012  43.5594997  10.4169988
  50.5080012  44.7124997   9.4679988  50.6199864  44.4039534  10.2742339
  43.7690012  42.6064997   7.6689988  43.8130012  43.4664997   7.2509988
  43.3120012  42.0544997   7.0349988  43.7132185  42.6495799   7.5260299
  51.4920012  42.7374997   6.0699988  52.1380012  42.4084997   6.6949988
  52.0020012  43.2554997   5.4469988  51.6494264  42.7624611   6.0713862
  40.3900012  45.0034997   8.4309988  41.0430012  44.4534997   8.8629988
  40.4140012  44.7294997   7.5139988  40.4826683  44.8911466   8.3662123
  45.5460012  46.5534997   7.6459988  46.1620012  46.0274997   8.1559988
  44.9600012  45.9134997   7.2429988  45.5510810  46.3949208   7.6613173
  56.5280012  43.1904997  13.1659988  55.8400012  43.8484997  13.0699988
  56.5440012  42.9934997  14.1019988  56.4358525  43.2540462  13.2794808
  42.5800012  41.5244997  11.7429988  42.3610012  42.0544997  10.9769988
  41.9120012  41.7514997  12.3899988  42.4597600  41.6276906  11.7256379
  49.9490012  51.0244997   5.2869988  49.6530012  50.7024997   4.4359988
  49.6240012  51.9244997   5.3279988  49.8646371  51.1020215   5.1761801
  45.1490012  49.2004997  12.0299988  44.4090012  49.7984997  12.1339988
  45.8630012  49.7544997  11.7149988  45.1442237  49.3572831  12.0016465
  53.2560012  42.0284997   8.0499988  53.0400012  41.2624997   8.5829988
  53.9110012  42.5004997   8.5629988  53.3150632  41.9875889   8.1922861
  42.1730012  43.4164997   9.6949988  42.7870012  44.0494997  10.0689988
  42.6850012  42.9444997   9.0389988  42.3262296  43.4392370   9.6574252
  43.5560012  51.1644997  12.8179988  43.5510012  52.0444997  12.4399988
  42.7030012  51.0814997  13.2429988  43.4399464  51.2736117  12.8237907
  39.6770012  50.8354997   3.5999988  39.4050012  51.0644997   2.7109988
  39.7230012  51.6734997   4.0599988  39.6460094  50.9801213   3.5405697
  53.3020012  52.4574997  10.3119988  52.3610012  52.5154997  10.4739988
  53.5790012  53.3634997  10.1749988  53.2104679  52.5879443  10.3156815
  53.6030012  40.7434997  11.7299988  52.8670012  41.3544997  11.6919988
  54.2860012  41.1584997  11.2029988  53.5946541  40.8831374  11.6535832
  46.6060012  38.8304997   9.1959988  46.4890012  37.8814997   9.1409988
  45.7510012  39.1624997   9.4689988  46.4743733  38.7455409   9.2253897
  51.5540012  54.2384997   6.9379988  51.9800012  53.5314997   6.4529988
  51.8710012  55.0394997   6.5209988  51.6551019  54.2500994   6.8153130
  52.7140012  52.1394997   5.4459988  52.4560012  51.4494997   4.8349988
  52.7850012  51.6964997   6.2919988  52.6882856  51.9852124   5.4766885
  54.4000012  50.7054997  13.9239988  54.5400012  50.1144997  13.1839988
  54.5670012  51.5784997  13.5669988  54.4416778  50.7426426  13.7746965
  48.8730012  47.6674997   3.6959988  48.1610012  48.2024997   3.3439988
  49.5640012  47.7234997   3.0359988  48.8690132  47.7482543   3.5586289
  48.9260012  46.1254997   0.7349988  49.6270012  46.1474997   1.3859988
  49.2290012  45.4974997   0.0789988  49.0627830  46.0436566   0.7353711
  56.2420012  47.0454997  11.9899988  55.5890012  47.7404997  12.0789988
  56.7070012  47.2554997  11.1799988  56.2155390  47.1689425  11.8926883
  52.2780012  47.8774997   4.6479988  51.5460012  48.1054997   5.2209988
  52.7260012  47.1634997   5.1029988  52.2383095  47.8122571   4.7879119
  52.1760012  46.0514997  13.7149988  52.2560012  46.8144997  14.2869988
  51.5740012  46.3304997  13.0249988  52.1055756  46.1937134  13.7000589
  43.9240012  48.5074997   6.5299988  43.5930012  48.1374997   5.7119988
  44.5120012  47.8374997   6.8769988  43.9581873  48.3661156   6.4648102
  45.2900012  51.9354997   9.2119988  45.1960012  51.3574997   8.4549988
  46.0200012  51.5644997   9.7079988  45.3757981  51.8062390   9.1754165
  44.2900012  47.2764997  10.1639988  44.8560012  47.3974997   9.4009988
  44.6090012  47.9134997  10.8029988  44.4105786  47.3791884  10.1460040
  50.5990012  52.7794997  10.8979988  50.3590012  53.4414997  11.5459988
  50.4010012  51.9454997  11.3229988  50.5393808  52.7573134  11.0441524
  45.1700012  51.6754997  14.8809988  44.8590012  52.4574997  15.3359988
  44.5200012  51.5224997  14.1949988  45.0395558  51.7619105  14.8505871
  51.1490012  47.0394997   2.3329988  51.7290012  47.1894997   3.0799988
  51.5630012  47.5104997   1.6099988  51.2842830  47.1236841   2.3374134
  42.0900012  47.8734997  14.1099988  42.1610012  48.5244997  14.8079988
  41.2000012  47.9764997  13.7749988  41.9793117  47.9765936  14.1602700
  48.8760012  53.7764997   5.7679988  49.3500012  54.0714997   6.5459988
  48.3130012  54.5144997   5.5349988  48.8647653  53.9166932   5.8430136
  43.4100012  53.7474997  15.6439988  43.4170012  53.6114997  14.6969988
  42.4940012  53.6294997  15.8959988  43.2871714  53.7129430  15.5484666
  54.8480012  38.7894997   2.1459988  53.9480012  38.9284997   2.4409988
  55.1000012  39.6204997   1.7439988  54.7588702  38.9209074   2.1320205
  42.9140012  47.5774997   4.1199988  42.6220012  48.3454997   3.6289988
  42.2400012  46.9174997   3.9569988  42.7829081  47.5934406   4.0307340
  56.0370012  53.1554997   0.5219988  56.1110012  54.0944997   0.6929988
  56.9430012  52.8504997   0.4659988  56.1695100  53.2426722   0.5378119
  39.0070012  49.9404997  12.9349988  38.5060012  49.9124997  12.1199988
  39.0120012  49.0344997  13.2439988  38.9391526  49.8142278  12.8652872
  38.7570012  52.7204997   9.8189988  39.7030012  52.5764997   9.7999988
  38.6450012  53.5044997  10.3559988  38.8712727  52.8068046   9.8890072
  56.9550012  53.3864997  15.5009988  56.9060012  52.4314997  15.4639988
  56.1280012  53.6544997  15.9019988  56.8364940  53.2918998  15.5501375
  47.9340012  52.9604997  14.3769988  48.0210012  53.7864997  14.8519988
  47.0700012  52.6304997  14.6259988  47.8291964  53.0289878  14.4756549
  48.3480012  56.7324997   4.1829988  48.2730012  56.6114997   3.2369988
  48.3810012  57.6824997   4.3019988  48.3421848  56.8442500   4.0694834
  42.0010012  55.5214997   5.9639988  42.1540012  55.1734997   6.8429988
  41.1510012  55.1654997   5.7089988  41.9068962  55.4256650   6.0498340
  51.4500012  55.8864997   1.1849988  51.8250012  55.1424997   0.7149988
  51.4540012  55.6164997   2.1039988  51.5018915  55.7481486   1.2447824
  51.1190012  55.8124997   3.9349988  50.1830012  55.9124997   4.1129988
  51.3990012  55.1034997   4.5129988  51.0288255  55.7302711   4.0375391
  54.1070012  44.8794997  15.9809988  53.7000012  45.3604997  15.2599988
  54.1480012  43.9744997  15.6729988  54.0568437  44.8229374  15.8406683
  41.2560012  51.2634997  13.9779988  41.4720012  50.9024997  14.8369988
  40.4010012  50.8894997  13.7679988  41.1699292  51.1634111  14.0673386
  43.8750012  39.7334997   9.9729988  43.0130012  39.6464997   9.5659988
  43.8520012  40.5894997  10.4009988  43.7540330  39.8372765   9.9751863
  48.5380012  39.4554997  13.3479988  48.9580012  39.0404997  14.1009988
  47.6050012  39.2774997  13.4649988  48.4693644  39.3745900  13.4669539
  51.8640012  43.2114997  14.2009988  51.3500012  43.0854997  14.9989988
  51.7090012  44.1234997  13.9569988  51.7726852  43.3176132  14.2772158
  52.6270012  48.0724997  -0.0370012  52.6690012  47.8494997  -0.9670012
  53.4760012  48.4714997   0.1529988  52.7475396  48.0959155  -0.1386373
  48.1990012  41.9484997   0.6329988  47.9460012  41.9674997   1.5559988
  47.9430012  41.0764997   0.3319988  48.1297790  41.8332437   0.7186263
  43.9660012  44.6994997  11.0679988  43.3240012  44.6584997  11.7769988
  44.0030012  45.6254997  10.8309988  43.8831324  44.8191559  11.1329824
  43.9630012  44.9204997   5.9799988  43.0700012  44.5794997   5.9219988
  44.4130012  44.5434997   5.2249988  43.9017305  44.8228484   5.8699177
  49.4980012  45.3364997   4.7969988  49.0890012  46.1514997   4.5059988
  50.2190012  45.1964997   4.1829988  49.5394537  45.4292018   4.6741342
  48.6000012  45.5114997  16.2849988  48.0380012  44.8074997  16.6059988
  49.4270012  45.3914997  16.7529988  48.6347095  45.3987883  16.3922330
  50.5030012  44.7824997   7.6109988  50.3080012  45.3874997   6.8959988
  50.6840012  43.9484997   7.1769988  50.5007614  44.7526300   7.4544405
  41.7160012  45.0194997  12.9349988  41.6780012  45.4194997  13.8039988
  41.2250012  44.2024997  13.0259988  41.6444684  44.9638069  13.0661059
  45.0820012  42.3934997  -0.2660012  44.6510012  41.9484997   0.4639988
  44.3640012  42.7654997  -0.7780012  44.9259438  42.3828940  -0.2353201
  38.3240012  42.1354997   6.7859988  38.9550012  42.1064997   7.5049988
  38.7730012  41.7104997   6.0559988  38.4710774  42.0740492   6.7856553
  39.5980012  42.8814997   2.2099988  40.0720012  43.4724997   1.6249988
  38.8810012  43.4124997   2.5569988  39.5659341  43.0340867   2.1768836
  49.7670012  46.4204997  12.2829988  50.0900012  45.7894997  11.6399988
  49.3270012  45.8854997  12.9429988  49.7516895  46.2618441  12.2842850
  46.5440012  42.3474997   7.0669988  45.6330012  42.4044997   7.3549988
  47.0500012  42.2874997   7.8769988  46.4875413  42.3471985   7.2160622
  41.3730012  43.9764997   5.8929988  40.4830012  44.0764997   5.5529988
  41.6690012  43.1344997   5.5469988  41.2912823  43.8763545   5.7997213
  45.0260012  43.9764997   3.5499988  45.9570012  44.1054997   3.7279988
  44.8110012  44.6464997   2.8999988  45.1244247  44.0846565   3.4865747
  50.9490012  41.5824997  10.3309988  50.2730012  41.7134997  10.9949988
  50.4640012  41.4274997   9.5209988  50.7907145  41.5794905  10.3124517
  43.7000012  45.1714997   1.1169988  43.1570012  44.7914997   0.4249988
  44.5330012  45.3654997   0.6879988  43.7384399  45.1458124   0.9644526
  54.2370012  57.2544997  16.6079988  54.4370012  57.6784997  15.7729988
  54.8920012  57.5974997  17.2149988  54.3530051  57.3589648  16.5757836
  41.8350012  49.7284997  16.2159988  42.5670012  49.9824997  16.7769988
  41.0550012  49.9324997  16.7309988  41.8298232  49.7909177  16.3625760
  47.8640012  45.1354997   8.9539988  48.4290012  44.5884997   8.4069988
  47.7170012  44.6134997   9.7419988  47.9212918  44.9902024   8.9858454
  42.8660012  41.2714997   5.3719988  42.5490012  40.3694997   5.3369988
  43.6480012  41.2734997   4.8189988  42.9282284  41.1481628   5.2924783
  46.4910012  43.5234997  11.3679988  45.6550012  43.9774997  11.4779988
  47.0150012  43.7994997  12.1199988  46.4474414  43.6229376  11.4847136
  47.0350012  49.7364997   3.0519988  46.2900012  49.2294997   2.7299988
  46.9010012  49.7854997   3.9989988  46.9148776  49.6736940   3.1358647
  54.1850012  48.8694997  11.8389988  54.8270012  49.3264997  11.2949988
  53.3550012  48.9824997  11.3759988  54.1605963  48.9472704  11.7020177
  50.9330012  42.5504997   1.2519988  49.9940012  42.6624997   1.0999988
  51.2300012  43.4074997   1.5579988  50.8447666  42.6816443   1.2725768
  48.5540012  49.9204997  14.2889988  48.2090012  49.5394997  15.0959988
  48.3540012  50.8544997  14.3609988  48.4798061  49.9945228  14.4090961
  51.6510012  44.4174997   2.9119988  52.5430012  44.2804997   3.2309988
  51.7080012  45.2084997   2.3759988  51.7806285  44.5056660   2.8831691
  42.1600012  49.0314997   8.8219988  42.9050012  49.0294997   8.2209988
  42.2380012  48.2084997   9.3039988  42.2725518  48.9199315   8.8048929
  49.1610012  51.1954997   2.0779988  48.8650012  52.0214997   2.4589988
  48.4580012  50.5754997   2.2739988  49.0254914  51.2248199   2.1566443
  39.1680012  47.4924997  14.1369988  39.3910012  47.0744997  14.9689988
  38.5660012  46.8794997  13.7139988  39.1171759  47.3524668  14.1937022
  46.1840012  47.0094997  16.3499988  45.8880012  46.8434997  15.4549988
  47.1160012  46.7894997  16.3389988  46.2694166  46.9570640  16.2260536
  50.8050012  52.3824997  14.2399988  49.9040012  52.5654997  13.9719988
  50.8390012  52.6414997  15.1609988  50.6863041  52.4425512  14.3278197
  56.5360012  44.6274997   2.6069988  55.9820012  44.2314997   1.9349988
  56.6360012  45.5374997   2.3289988  56.4737059  44.6963586   2.4774401
  56.4990012  50.4274997  15.4439988  55.6480012  50.6654997  15.0769988
  57.0900012  50.4104997  14.6909988  56.4622487  50.4578258  15.2918893
  54.8310012  53.4134997   3.0719988  54.4580012  52.5874997   3.3809988
  55.1090012  53.2304997   2.1749988  54.8175630  53.2757303   2.9929626
  51.9920012  48.2214997  10.0929988  51.0630012  47.9894997  10.0659988
  52.4430012  47.4444997   9.7629988  51.9259216  48.0847238  10.0446917
  44.5350012  52.5494997   6.2259988  45.0620012  53.3224997   6.0259988
  43.6550012  52.7744997   5.9249988  44.4881773  52.6858005   6.1579010
  40.2900012  47.4114997   0.8129988  40.9060012  48.0384997   1.1929988
  39.4280012  47.7274997   1.0849988  40.2577698  47.5399430   0.9017183
  45.9620012  50.2124997   5.8029988  45.7210012  51.1374997   5.8439988
  45.2210012  49.7534997   6.1989988  45.8288409  50.2771421   5.8621377
  46.4770012  54.3614997  12.1179988  46.8390012  55.2164997  11.8839988
  47.0080012  54.0694997  12.8579988  46.5984473  54.4391060  12.1860855
  44.6450012  55.2344997   5.3479988  43.6950012  55.3394997   5.3989988
  44.9970012  56.0544997   5.6929988  44.5624203  55.3598314   5.4016650
  50.0210012  50.4604997  11.8179988  49.5950012  50.2334997  12.6449988
  50.6010012  49.7224997  11.6359988  50.0411868  50.3295299  11.9065830
  52.2240012  51.3894997   0.8919988  52.5770012  51.0094997   1.6969988
  51.2750012  51.2964997   0.9789988  52.1440441  51.3249596   1.0138559
  52.6790012  55.0124997  14.2879988  52.0780012  54.4574997  13.7919988
  52.9610012  55.6794997  13.6619988  52.6348519  55.0266841  14.1354951
  56.7270012  55.8694997   1.0929988  57.4710012  56.4554997   0.9529988
  56.0330012  56.4374997   1.4269988  56.7350292  56.0265582   1.1189961
  40.8020012  42.2454997  13.6949988  39.9090012  42.5844997  13.6269988
  40.7030012  41.3904997  14.1129988  40.6664164  42.1762588  13.7422235
  53.0900012  50.0624997   3.1189988  52.8120012  49.3344997   3.6749988
  54.0170012  50.1814997   3.3239988  53.1773124  49.9788802   3.2228845
  40.4530012  54.0504997  12.1299988  40.6700012  53.1184997  12.0989988
  40.6990012  54.3244997  13.0129988  40.5159549  53.9600636  12.2451763
  46.3150012  52.5014997  -0.6610012  46.5540012  51.7534997  -1.2080012
  46.0460012  52.1134997   0.1719988  46.3113675  52.3466638  -0.6233135
  45.2520012  52.0714997   1.7959988  45.3980012  51.5514997   2.5859988
  45.2490012  52.9784997   2.1019988  45.2715989  52.1228853   1.9456088
  41.7050012  49.3244997   2.3059988  41.0190012  49.6764997   2.8729988
  42.2270012  50.0874997   2.0589988  41.6816852  49.4758578   2.3502118
  49.5360012  41.9864997  12.5849988  50.2350012  42.0604997  13.2349988
  49.1550012  41.1224997  12.7389988  49.5801767  41.8797624  12.6948322
  50.3210012  41.6384997   3.6819988  50.5410012  42.1104997   2.8789988
  50.8790012  42.0334997   4.3519988  50.4264968  41.7564285   3.6627331
  47.9890012  53.7694997   2.5449988  47.1730012  54.2664997   2.5969988
  48.5190012  54.2444997   1.9049988  47.9489161  53.9017722   2.4655956
  47.5210012  43.3664997   4.5169988  48.3330012  43.8714997   4.5629988
  47.2760012  43.2214997   5.4309988  47.5990520  43.4160375   4.6468517
  48.0560012  44.3524997  13.7019988  48.1750012  44.9264997  14.4589988
  48.7120012  43.6644997  13.8159988  48.1609757  44.3381079  13.8210825
  48.4040012  40.4474997   5.4549988  48.0580012  41.0654997   6.0999988
  49.0630012  40.9484997   4.9739988  48.4457826  40.5995802   5.4780971
  45.3280012  54.8134997   2.5269988  45.4880012  55.6124997   2.0259988
  45.1300012  55.1194997   3.4119988  45.3231649  54.9644469   2.5779815
  44.0620012  41.5104997   2.1419988  43.9790012  42.3994997   2.4889988
  44.9520012  41.2454997   2.3739988  44.1709469  41.5961430   2.2207626
  54.2610012  42.2594997  14.5369988  53.3440012  42.5224997  14.4489988
  54.5960012  42.2564997  13.6399988  54.1809900  42.2950224  14.4037919
  52.8630012  46.0104997   8.6319988  52.0650012  45.5954997   8.3039988
  53.3080012  45.3194997   9.1229988  52.8139885  45.8603543   8.6534889
  42.3210012  51.9384997   1.2029988  42.9130012  52.6374997   1.4789988
  42.7800012  51.5054997   0.4829988  42.4641142  51.9757049   1.1434830
  40.6370012  44.6024997   0.3189988  40.5920012  45.5414997   0.4969988
  39.7490012  44.3664997   0.0489988  40.5108574  44.6991892   0.3068912
  53.9490012  55.2664997  10.2549988  53.7940012  55.9444997   9.5979988
  54.8820012  55.3384997  10.4579988  54.0538500  55.3690170  10.1925119
  41.4450012  39.3844997   8.9919988  41.2160012  39.4434997   8.0639988
  41.0020012  38.5924997   9.2979988  41.3538530  39.2855753   8.9064786
  40.3750012  53.3244997   5.1519988  39.5430012  53.7974997   5.1799988
  40.9210012  53.8344997   4.5539988  40.3349739  53.4581871   5.0749716
  39.6630012  55.9374997  16.4819988  40.2040012  55.7204997  17.2419988
  39.1820012  55.1314997  16.2929988  39.6719345  55.7989514  16.5603076
  44.2610012  54.8564997  18.1029988  45.0280012  54.3974997  18.4439988
  44.2390012  54.6304997  17.1729988  44.3631434  54.7630409  18.0240043
  48.3530012  54.3644997  -0.5220012  47.7090012  53.7334997  -0.2010012
  49.1150012  53.8334997  -0.7540012  48.3678077  54.2062920  -0.5093989
  50.8380012  53.2364997  16.8319988  50.4870012  52.3804997  17.0749988
  51.5640012  53.3794997  17.4389988  50.8880769  53.1385636  16.9473619
  52.9570012  54.1814997  -0.2880012  53.2400012  53.3874997   0.1639988
  53.6970012  54.4144997  -0.8490012  53.0957486  54.1042803  -0.3019302
  39.5700012  49.7474997  17.4369988  39.7140012  48.8454997  17.1499988
  38.7980012  50.0334997  16.9489988  39.4853322  49.6628261  17.3317881
  43.9120012  50.0914997  -0.4310012  43.9760012  49.2974997   0.0999988
  44.5650012  49.9724997  -1.1210012  44.0090241  49.9667148  -0.4515683
  46.2260012  49.7174997  16.8689988  45.8970012  49.9884997  16.0119988
  46.3780012  48.7764997  16.7819988  46.2014809  49.6273862  16.7398244
  49.2640012  51.1384997  -0.6950012  48.9950012  51.3184997   0.2059988
  49.0580012  50.2124997  -0.8260012  49.1993825  51.0380152  -0.5894786
  51.9600012  49.6334997  14.2529988  52.7060012  50.2214997  14.1329988
  51.2030012  50.2154997  14.3159988  51.9597554  49.7927011  14.2450907
  40.4030012  46.9474997  16.8569988  40.8110012  46.0904997  16.7359988
  40.1430012  46.9624997  17.7779988  40.4237568  46.8320807  16.9649588
  45.0610012  48.0634997   1.8749988  44.6010012  47.5794997   2.5609988
  45.3160012  47.3954997   1.2389988  45.0324902  47.9068731   1.8829334
  44.3500012  45.9564997  14.2309988  43.7320012  46.6314997  14.5109988
  44.6940012  46.2774997  13.3979988  44.3119615  46.0922721  14.1566581
  46.1320012  46.3064997   0.1369988  45.9520012  46.1524997  -0.7900012
  47.0820012  46.4144997   0.1819988  46.2357776  46.3000175   0.0161843
  49.3700012  48.4284997  17.5079988  50.3230012  48.5114997  17.4809988
  49.2090012  47.7164997  18.1279988  49.4786426  48.3436746  17.5880579
  55.5220012  48.6614997  -0.4170012  55.2480012  48.2364997  -1.2300012
  55.5610012  49.5924997  -0.6340012  55.4897699  48.7292484  -0.5576390
  44.6890012  43.3114997  15.3129988  44.8390012  42.5824997  14.7109988
  44.6920012  44.0884997  14.7539988  44.7099302  43.3167851  15.1550692
  45.1020012  41.6814997  12.8059988  45.6380012  42.1324997  12.1539988
  44.2500012  41.5734997  12.3829988  45.0602178  41.7286390  12.6595756
  46.6840012  47.1204997  13.0449988  47.4340012  46.9644997  12.4719988
  46.3450012  47.9724997  12.7699988  46.7408921  47.2142968  12.9293561
  51.0990012  44.9354997  18.0739988  51.2920012  44.0044997  17.9619988
  51.9570012  45.3604997  18.0639988  51.2413020  44.8656389  18.0573361
  52.4160012  47.7244997  16.1509988  52.1350012  48.4334997  15.5739988
  53.3590012  47.6514997  15.9999988  52.5049027  47.8117646  16.0515551
  43.1680012  44.5094997  17.2249988  42.4010012  43.9774997  17.0149988
  43.8470012  44.1994997  16.6249988  43.1547022  44.3947506  17.1151648
  45.9080012  39.1374997  13.2369988  45.8090012  40.0844997  13.1319988
  45.1650012  38.7654997  12.7619988  45.7940564  39.2165902  13.1584560
  47.1720012  43.4594997  16.8009988  46.9360012  43.2394997  17.7029988
  46.3880012  43.2524997  16.2909988  47.0338628  43.4014760  16.8553932
  49.8870012  42.5864997  15.8769988  48.9400012  42.6184997  16.0089988
  50.2000012  41.9614997  16.5299988  49.7995475  42.5063207  15.9834455
  51.5210012  41.2204997  17.8819988  51.4250012  40.2684997  17.8759988
  51.2000012  41.4894997  18.7419988  51.4644070  41.1264035  17.9975441
  41.3480012  42.4304997  16.9289988  41.5600012  41.7234997  16.3189988
  41.2370012  41.9924997  17.7729988  41.3619721  42.2747084  16.9596843
  46.1290012  38.4314997  15.9089988  46.8410012  37.7914997  15.8949988
  46.0280012  38.6984997  14.9949988  46.2127939  38.3799938  15.7835650
  46.4830012  40.1144997  17.9619988  46.3510012  39.6384997  17.1419988
  45.8840012  40.8584997  17.9069988  46.3839071  40.1499618  17.8422886
  46.0290012  56.9974997   1.1389988  46.9620012  57.1554997   1.2819988
  45.7650012  57.6724997   0.5139988  46.1209510  57.1103611   1.0740741
  39.5980012  51.6334997   0.6209988  40.5120012  51.7124997   0.8949988
  39.6050012  50.9464997  -0.0450012  39.7241131  51.5513961   0.5684393
  38.2470012  57.0264997   5.6989988  37.6000012  56.5644997   5.1659988
  38.6010012  56.3544997   6.2809988  38.2063849  56.8724723   5.7047959
  39.1170012  55.1074997   7.5029988  38.7820012  54.2274997   7.6749988
  39.3390012  55.4524997   8.3679988  39.1011783  55.0337500   7.6434208
  56.6650012  55.9164997  10.4839988  56.6440012  56.1014997  11.4229988
  57.3560012  56.4854997  10.1429988  56.7554618  56.0186606  10.5663864
  56.2290012  55.4844997  13.4059988  55.7410012  54.7484997  13.0349988
  56.7780012  55.0904997  14.0839988  56.2364872  55.3306249  13.4469160
  54.6790012  51.2734997  18.0439988  53.8130012  51.1684997  18.4379988
  55.0560012  52.0324997  18.4899988  54.6113308  51.3616900  18.1582393
  55.9800012  49.5304997   3.5579988  56.8300012  49.9514997   3.6849988
  55.9860012  48.7904997   4.1649988  56.0971372  49.4880803   3.6574344
  56.3750012  47.5834997   5.3819988  55.6480012  47.1044997   5.7789988
  56.9560012  47.7894997   6.1139988  56.3539375  47.5457090   5.5354129
  56.1340012  50.3684997  10.3289988  56.9670012  49.9904997  10.0489988
  56.2460012  51.3114997  10.2099988  56.2632647  50.4442218  10.2745487
  54.6200012  53.2464997  12.6359988  53.9730012  53.5714997  13.2619988
  54.1030012  52.8064997  11.9619988  54.4614029  53.2315004  12.6305827
  56.6430012  47.4844997   1.7729988  56.1210012  47.8414997   1.0539988
  56.6100012  48.1594997   2.4509988  56.5671634  47.6245413   1.7663145
  54.9920012  44.7244997   0.3239988  55.0880012  45.3914997  -0.3570012
  54.8520012  43.9084997  -0.1580012  54.9862135  44.7054500   0.1658491
  54.1610012  46.1044997   5.9449988  54.0110012  45.1594997   5.9239988
  53.8080012  46.3854997   6.7879988  54.0926625  46.0130441   6.0562346
  39.1970012  48.1824997   9.9549988  39.3810012  48.1004997   9.0189988
  40.0460012  48.0584997  10.3789988  39.3370139  48.1545003   9.8841455
  55.0180012  48.0744997  15.5829988  55.6010012  47.3404997  15.7749988
  55.5820012  48.8464997  15.6299988  55.1739769  48.0784227  15.6156159
  56.5140012  45.9774997  16.2679988  55.6510012  45.5984997  16.1019988
  57.1190012  45.2384997  16.1939988  56.4775979  45.8258023  16.2352817
  54.2390012  42.1324997  -0.5590012  54.8500012  41.7614997   0.0779988
  53.4030012  41.7114997  -0.3630012  54.2095032  42.0247554  -0.4452965
  53.8720012  43.6874997   4.4069988  54.1520012  42.7804997   4.5309988
  54.6310012  44.1214997   4.0179988  54.0129277  43.6220942   4.3713682
  54.4840012  44.2684997   9.8429988  55.4170012  44.4804997   9.8089988
  54.2490012  44.3704997  10.7649988  54.5798036  44.3112769   9.9629976
  54.5130012  45.0054997  12.6189988  53.6700012  45.2734997  12.9849988
  54.9550012  45.8274997  12.4079988  54.4574158  45.1533291  12.6405491
  38.7940012  43.4534997  16.0959988  39.7140012  43.3314997  16.3319988
  38.3450012  42.7034997  16.4849988  38.8591580  43.3353727  16.1809006
  56.7960012  38.9854997  17.9719988  57.1460012  38.3314997  17.3669988
  56.9430012  39.8224997  17.5329988  56.8638419  39.0091591  17.8297118
  54.4850012  40.9504997   4.4549988  54.6680012  40.5014997   5.2809988
  53.8860012  40.3654997   3.9919988  54.4290202  40.8099975   4.5053275
  40.0150012  41.7654997   8.9869988  40.4610012  40.9734997   9.2889988
  40.4820012  42.4814997   9.4179988  40.1390172  41.7540624   9.0864820
  38.3190012  44.7644997  10.0559988  38.8110012  44.5434997   9.2649988
  38.6820012  45.6054997  10.3369988  38.4353126  44.8478357   9.9857531
  56.3160012  41.0944997  16.3219988  55.3980012  41.3654997  16.2859988
  56.4390012  40.5594997  15.5369988  56.2071066  41.0592892  16.2110487
  56.3520012  41.0174997   0.9829988  56.7640012  40.2964997   0.5079988
  57.0340012  41.6874997   1.0419988  56.5005885  41.0092368   0.9258915
  38.6330012  41.0224997   4.1099988  37.7080012  41.2314997   3.9809988
  39.0870012  41.5064997   3.4209988  38.5677368  41.1165993   3.9991226
  53.4040012  56.0064997   6.0559988  54.0560012  55.6594997   5.4479988
  53.9140012  56.4954997   6.7019988  53.5622637  56.0250597   6.0600236
  38.5970012  39.7604997  12.4549988  37.9320012  39.5144997  13.0979988
  38.1540012  40.3824997  11.8769988  38.4460956  39.8108632  12.4649352
  40.7890012  52.9354997  16.5989988  39.9680012  53.1104997  16.1389988
  40.5360012  52.8624997  17.5199988  40.6426164  52.9495622  16.6604923
  43.7430012  53.9104997  12.8579988  43.3180012  54.7194997  12.5749988
  44.6470012  53.9954997  12.5559988  43.8070271  54.0328469  12.7783776
  48.0540012  55.3094997  15.8169988  48.2390012  54.9754997  16.6949988
  48.9000012  55.6184997  15.4949988  48.1937539  55.3056047  15.8935605
  50.3990012  56.5954997  15.0609988  51.0760012  55.9624997  14.8209988
  50.7210012  56.9964997  15.8679988  50.5351637  56.5631154  15.1372793
  55.3160012  39.1844997  14.1409988  54.5040012  39.5094997  13.7529988
  55.5490012  38.4244997  13.6079988  55.2363423  39.1262436  14.0158253
  41.1450012  57.1664997  12.9049988  40.4240012  57.6064997  12.4539988
  40.7790012  56.9154997  13.7539988  40.9969804  57.1927698  12.9579840
  43.6120012  56.7664997  11.9349988  42.7470012  56.8384997  12.3389988
  43.5570012  57.3134997  11.1509988  43.4862085  56.8502685  11.8843362
  48.3220012  56.6544997  11.1099988  47.8660012  57.1834997  10.4559988
  48.4850012  57.2574997  11.8359988  48.2815585  56.8084468  11.1185062
  50.6500012  55.5324997  12.0549988  49.7450012  55.6974997  11.7899988
  51.0790012  56.3854997  11.9899988  50.5840799  55.6704483  12.0099182
  53.2540012  57.1024997  12.3499988  53.0720012  58.0184997  12.1399988
  53.4310012  56.6924997  11.5039988  53.2530210  57.1724822  12.2067885
  40.5590012  55.7894997   9.8149988  40.5410012  55.3644997  10.6729988
  41.3640012  55.4714997   9.4069988  40.6653875  55.6883812   9.8771655
  42.7010012  54.4994997   8.4699988  42.4820012  53.5834997   8.6399988
  43.5250012  54.6394997   8.9359988  42.7824420  54.3930520   8.5562774
  45.2380012  54.9694997   9.3189988  45.4510012  54.0814997   9.0319988
  45.3020012  54.9354997  10.2729988  45.2758232  54.8433102   9.4087397
  48.7460012  40.6334997   8.4629988  48.0720012  40.0044997   8.7189988
  49.3100012  40.1494997   7.8599988  48.7299230  40.4818744   8.4165340
  53.8890012  38.7414997   8.5759988  54.4930012  39.2884997   8.0739988
  53.0190012  39.0604997   8.3359988  53.8541241  38.8595806   8.4747654
  55.6160012  39.8794997   6.9089988  56.2280012  39.3654997   6.3829988
  55.9980012  40.7574997   6.9329988  55.7514540  39.9277140   6.8401830
  41.0730012  39.2674997   6.2849988  40.2960012  39.0334997   5.7779988
  41.6030012  38.4704997   6.2939988  41.0382330  39.1276988   6.2167742
  39.9090012  39.0654997   2.0889988  40.3480012  39.6764997   1.4969988
  39.2760012  39.6034997   2.5629988  39.8834514  39.2219257   2.0720930
  45.6520012  39.1944997   6.0989988  46.5270012  39.5824997   6.0689988
  45.5160012  38.9794997   7.0209988  45.7533695  39.2185184   6.2196440
  51.2090012  39.2244997   7.7479988  51.2850012  39.3194997   6.7979988
  50.9340012  38.3164997   7.8769988  51.1822321  39.1147867   7.6355079
  52.5620012  39.2504997   3.4399988  51.8600012  39.8654997   3.2309988
  52.1180012  38.4124997   3.5709988  52.4056330  39.2215783   3.4290328
  39.8100012  55.0134997   2.9869988  39.1250012  54.9754997   2.3189988
  39.8140012  55.9264997   3.2749988  39.7168193  55.1317016   2.9345284
  41.7700012  40.9814997   0.5309988  42.2620012  40.3514997   0.0039988
  42.3940012  41.2774997   1.1949988  41.9215446  40.9353199   0.5485980
  46.7960012  41.2744997   2.9879988  46.9740012  40.6284997   3.6709988
  46.7430012  42.1084997   3.4559988  46.8131829  41.2987985   3.1445940
  48.6750012  56.2234997   1.3839988  49.5410012  56.5894997   1.2059988
  48.4280012  55.7834997   0.5699988  48.7602392  56.2141756   1.2496289
  55.3840012  55.7864997   4.0629988  55.1890012  55.0384997   3.4979988
  55.3450012  56.5444997   3.4799988  55.3520380  55.7866099   3.9068384
  41.0310012  39.7814997  15.8029988  40.6650012  39.0164997  16.2459988
  41.9440012  39.8104997  16.0899988  41.1042790  39.6807224  15.9024070
  43.0040012  39.1324997  17.3389988  43.9020012  38.8584997  17.1539988
  42.6170012  38.3894997  17.8029988  43.0746612  38.9945914  17.3763643
  41.6280012  55.9334997   0.0119988  41.3610012  56.2204997   0.8849988
  42.4000012  55.3874997   0.1639988  41.6957488  55.8990294   0.1521050
  51.4250012  38.4644997  17.5209988  51.5020012  38.0384997  18.3749988
  52.3190012  38.4784997  17.1779988  51.5563428  38.4080879  17.5915310
  54.6010012  54.5374997  16.2129988  53.8190012  54.3514997  15.6939988
  54.5290012  55.4664997  16.4309988  54.4841777  54.6376492  16.1714048
  69.0070012  48.4234997   6.2439988  69.0960012  49.3674997   6.1119988
  68.3690012  48.1484997   5.5859988  68.9329081  48.5154830   6.1369614
  67.9400012  47.6784997   9.6629988  67.9020012  47.0324997  10.3679988
  67.6180012  47.2124997   8.8919988  67.8912333  47.5269408   9.6552978
  60.3090012  47.2934997  11.2559988  60.3500012  46.6674997  11.9789988
  61.0120012  47.9174997  11.4379988  60.4096363  47.2921196  11.3796044
  71.6460012  50.6174997   7.9639988  71.2060012  49.8974997   8.4149988
  71.6330012  51.3384997   8.5939988  71.5840226  50.6163731   8.1108494
  61.2320012  51.7434997   9.7909988  60.8630012  50.9414997   9.4209988
  62.1730012  51.5744997   9.8369988  61.3087289  51.6110153   9.7466316
  57.8420012  45.4034997   5.1839988  57.3950012  46.2494997   5.1649988
  57.2810012  44.8234997   4.6679988  57.7049900  45.4409916   5.1116801
  58.5530012  47.5654997   7.3099988  58.7660012  46.7954997   7.8369988
  59.2910012  47.6544997   6.7059988  58.6818496  47.4721394   7.3005300
  68.7580012  55.7224997   8.1769988  69.3780012  55.0454997   7.9029988
  68.5500012  55.5044997   9.0849988  68.8146904  55.6003870   8.2623365
  66.3300012  50.1114997  10.0689988  66.6340012  49.4254997   9.4739988
  67.0510012  50.2294997  10.6869988  66.4690671  50.0336305  10.0711816
  74.9930012  41.7124997  10.9299988  75.0420012  42.3224997  11.6659988
  75.4180012  42.1734997  10.2069988  75.0571824  41.8583741  10.9330205
  69.4710012  44.5054997  10.3969988  69.6130012  43.5594997  10.4169988
  69.3640012  44.7124997   9.4679988  69.4759863  44.4039534  10.2742339
  62.6250012  42.6064997   7.6689988  62.6690012  43.4664997   7.2509988
  62.1680012  42.0544997   7.0349988  62.5692185  42.6495799   7.5260299
  70.3480012  42.7374997   6.0699988  70.9940012  42.4084997   6.6949988
  70.8580012  43.2554997   5.4469988  70.5054264  42.7624611   6.0713862
  59.2460012  45.0034997   8.4309988  59.8990012  44.4534997   8.8629988
  59.2700012  44.7294997   7.5139988  59.3386683  44.8911466   8.3662123
  64.4020012  46.5534997   7.6459988  65.0180012  46.0274997   8.1559988
  63.8160012  45.9134997   7.2429988  64.4070810  46.3949208   7.6613173
  75.3840012  43.1904997  13.1659988  74.6960012  43.8484997  13.0699988
  75.4000012  42.9934997  14.1019988  75.2918525  43.2540462  13.2794808
  61.4360012  41.5244997  11.7429988  61.2170012  42.0544997  10.9769988
  60.7680012  41.7514997  12.3899988  61.3157600  41.6276906  11.7256379
  68.8050012  51.0244997   5.2869988  68.5090012  50.7024997   4.4359988
  68.4800012  51.9244997   5.3279988  68.7206371  51.1020215   5.1761801
  64.0050012  49.2004997  12.0299988  63.2650012  49.7984997  12.1339988
  64.7190012  49.7544997  11.7149988  64.0002237  49.3572831  12.0016465
  72.1120012  42.0284997   8.0499988  71.8960012  41.2624997   8.5829988
  72.7670012  42.5004997   8.5629988  72.1710632  41.9875889   8.1922861
  61.0290012  43.4164997   9.6949988  61.6430012  44.0494997  10.0689988
  61.5410012  42.9444997   9.0389988  61.1822296  43.4392370   9.6574252
  62.4120012  51.1644997  12.8179988  62.4070012  52.0444997  12.4399988
  61.5590012  51.0814997  13.2429988  62.2959464  51.2736117  12.8237907
  58.5330012  50.8354997   3.5999988  58.2610012  51.0644997   2.7109988
  58.5790012  51.6734997   4.0599988  58.5020094  50.9801213   3.5405697
  72.1580012  52.4574997  10.3119988  71.2170012  52.5154997  10.4739988
  72.4350012  53.3634997  10.1749988  72.0664679  52.5879443  10.3156815
  72.4590012  40.7434997  11.7299988  71.7230012  41.3544997  11.6919988
  73.1420012  41.1584997  11.2029988  72.4506541  40.8831374  11.6535832
  65.4620012  38.8304997   9.1959988  65.3450012  37.8814997   9.1409988
  64.6070012  39.1624997   9.4689988  65.3303733  38.7455409   9.2253897
  70.4100012  54.2384997   6.9379988  70.8360012  53.5314997   6.4529988
  70.7270012  55.0394997   6.5209988  70.5111019  54.2500994   6.8153130
  71.5700012  52.1394997   5.4459988  71.3120012  51.4494997   4.8349988
  71.6410012  51.6964997   6.2919988  71.5442856  51.9852124   5.4766885
  73.2560012  50.7054997  13.9239988  73.3960012  50.1144997  13.1839988
  73.4230012  51.5784997  13.5669988  73.2976778  50.7426426  13.7746965
  67.7290012  47.6674997   3.6959988  67.0170012  48.2024997   3.3439988
  68.4200012  47.7234997   3.0359988  67.7250132  47.7482543   3.5586289
  67.7820012  46.1254997   0.7349988  68.4830012  46.1474997   1.3859988
  68.0850012  45.4974997   0.0789988  67.9187830  46.0436566   0.7353711
  75.0980012  47.0454997  11.9899988  74.4450012  47.7404997  12.0789988
  75.5630012  47.2554997  11.1799988  75.0715390  47.1689425  11.8926883
  71.1340012  47.8774997   4.6479988  70.4020012  48.1054997   5.2209988
  71.5820012  47.1634997   5.1029988  71.0943095  47.8122571   4.7879119
  71.0320012  46.0514997  13.7149988  71.1120012  46.8144997  14.2869988
  70.4300012  46.3304997  13.0249988  70.9615756  46.1937134  13.7000589
  62.7800012  48.5074997   6.5299988  62.4490012  48.1374997   5.7119988
  63.3680012  47.8374997   6.8769988  62.8141873  48.3661156   6.4648102
  64.1460012  51.9354997   9.2119988  64.0520012  51.3574997   8.4549988
  64.8760012  51.5644997   9.7079988  64.2317981  51.8062390   9.1754165
  63.1460012  47.2764997  10.1639988  63.7120012  47.3974997   9.4009988
  63.4650012  47.9134997  10.8029988  63.2665786  47.3791884  10.1460040
  69.4550012  52.7794997  10.8979988  69.2150012  53.4414997  11.5459988
  69.2570012  51.9454997  11.3229988  69.3953808  52.7573134  11.0441524
  64.0260012  51.6754997  14.8809988  63.7150012  52.4574997  15.3359988
  63.3760012  51.5224997  14.1949988  63.8955558  51.7619105  14.8505871
  70.0050012  47.0394997   2.3329988  70.5850012  47.1894997   3.0799988
  70.4190012  47.5104997   1.6099988  70.1402830  47.1236841   2.3374134
  60.9460012  47.8734997  14.1099988  61.0170012  48.5244997  14.8079988
  60.0560012  47.9764997  13.7749988  60.8353117  47.9765936  14.1602700
  67.7320012  53.7764997   5.7679988  68.2060012  54.0714997   6.5459988
  67.1690012  54.5144997   5.5349988  67.7207653  53.9166932   5.8430136
  62.2660012  53.7474997  15.6439988  62.2730012  53.6114997  14.6969988
  61.3500012  53.6294997  15.8959988  62.1431714  53.7129430  15.5484666
  73.7040012  38.7894997   2.1459988  72.8040012  38.9284997   2.4409988
  73.9560012  39.6204997   1.7439988  73.6148702  38.9209074   2.1320205
  61.7700012  47.5774997   4.1199988  61.4780012  48.3454997   3.6289988
  61.0960012  46.9174997   3.9569988  61.6389081  47.5934406   4.0307340
  74.8930012  53.1554997   0.5219988  74.9670012  54.0944997   0.6929988
  75.7990012  52.8504997   0.4659988  75.0255100  53.2426722   0.5378119
  57.8630012  49.9404997  12.9349988  57.3620012  49.9124997  12.1199988
  57.8680012  49.0344997  13.2439988  57.7951526  49.8142278  12.8652872
  57.6130012  52.7204997   9.8189988  58.5590012  52.5764997   9.7999988
  57.5010012  53.5044997  10.3559988  57.7272727  52.8068046   9.8890072
  75.8110012  53.3864997  15.5009988  75.7620012  52.4314997  15.4639988
  74.9840012  53.6544997  15.9019988  75.6924940  53.2918998  15.5501375
  66.7900012  52.9604997  14.3769988  66.8770012  53.7864997  14.8519988
  65.9260012  52.6304997  14.6259988  66.6851964  53.0289878  14.4756549
  67.2040012  56.7324997   4.1829988  67.1290012  56.6114997   3.2369988
  67.2370012  57.6824997   4.3019988  67.1981848  56.8442500   4.0694834
  60.8570012  55.5214997   5.9639988  61.0100012  55.1734997   6.8429988
  60.0070012  55.1654997   5.7089988  60.7628962  55.4256650   6.0498340
  70.3060012  55.8864997   1.1849988  70.6810012  55.1424997   0.7149988
  70.3100012  55.6164997   2.1039988  70.3578915  55.7481486   1.2447824
  69.9750012  55.8124997   3.9349988  69.0390012  55.9124997   4.1129988
  70.2550012  55.1034997   4.5129988  69.8848255  55.7302711   4.0375391
  72.9630012  44.8794997  15.9809988  72.5560012  45.3604997  15.2599988
  73.0040012  43.9744997  15.6729988  72.9128437  44.8229374  15.8406683
  60.1120012  51.2634997  13.9779988  60.3280012  50.9024997  14.8369988
  59.2570012  50.8894997  13.7679988  60.0259292  51.1634111  14.0673386
  62.7310012  39.7334997   9.9729988  61.8690012  39.6464997   9.5659988
  62.7080012  40.5894997  10.4009988  62.6100330  39.8372765   9.9751863
  67.3940012  39.4554997  13.3479988  67.8140012  39.0404997  14.1009988
  66.4610012  39.2774997  13.4649988  67.3253644  39.3745900  13.4669539
  70.7200012  43.2114997  14.2009988  70.2060012  43.0854997  14.9989988
  70.5650012  44.1234997  13.9569988  70.6286852  43.3176132  14.2772158
  71.4830012  48.0724997  -0.0370012  71.5250012  47.8494997  -0.9670012
  72.3320012  48.4714997   0.1529988  71.6035396  48.0959155  -0.1386373
  67.0550012  41.9484997   0.6329988  66.8020012  41.9674997   1.5559988
  66.7990012  41.0764997   0.3319988  66.9857790  41.8332437   0.7186263
  62.8220012  44.6994997  11.0679988  62.1800012  44.6584997  11.7769988
  62.8590012  45.6254997  10.8309988  62.7391324  44.8191559  11.1329824
  62.8190012  44.9204997   5.9799988  61.9260012  44.5794997   5.9219988
  63.2690012  44.5434997   5.2249988  62.7577305  44.8228484   5.8699177
  68.3540012  45.3364997   4.7969988  67.9450012  46.1514997   4.5059988
  69.0750012  45.1964997   4.1829988  68.3954537  45.4292018   4.6741342
  67.4560012  45.5114997  16.2849988  66.8940012  44.8074997  16.6059988
  68.2830012  45.3914997  16.7529988  67.4907095  45.3987883  16.3922330
  69.3590012  44.7824997   7.6109988  69.1640012  45.3874997   6.8959988
  69.5400012  43.9484997   7.1769988  69.3567614  44.7526300   7.4544405
  60.5720012  45.0194997  12.9349988  60.5340012  45.4194997  13.8039988
  60.0810012  44.2024997  13.0259988  60.5004684  44.9638069  13.0661059
  63.9380012  42.3934997  -0.2660012  63.5070012  41.9484997   0.4639988
  63.2200012  42.7654997  -0.7780012  63.7819438  42.3828940  -0.2353201
  57.1800012  42.1354997   6.7859988  57.8110012  42.1064997   7.5049988
  57.6290012  41.7104997   6.0559988  57.3270774  42.0740492   6.7856553
  58.4540012  42.8814997   2.2099988  58.9280012  43.4724997   1.6249988
  57.7370012  43.4124997   2.5569988  58.4219341  43.0340867   2.1768836
  68.6230012  46.4204997  12.2829988  68.9460012  45.7894997  11.6399988
  68.1830012  45.8854997  12.9429988  68.6076895  46.2618441  12.2842850
  65.4000012  42.3474997   7.0669988  64.4890012  42.4044997   7.3549988
  65.9060012  42.2874997   7.8769988  65.3435413  42.3471985   7.2160622
  60.2290012  43.9764997   5.8929988  59.3390012  44.0764997   5.5529988
  60.5250012  43.1344997   5.5469988  60.1472823  43.8763545   5.7997213
  63.8820012  43.9764997   3.5499988  64.8130012  44.1054997   3.7279988
  63.6670012  44.6464997   2.8999988  63.9804247  44.0846565   3.4865747
  69.8050012  41.5824997  10.3309988  69.1290012  41.7134997  10.9949988
  69.3200012  41.4274997   9.5209988  69.6467145  41.5794905  10.3124517
  62.5560012  45.1714997   1.1169988  62.0130012  44.7914997   0.4249988
  63.3890012  45.3654997   0.6879988  62.5944399  45.1458124   0.9644526
  73.0930012  57.2544997  16.6079988  73.2930012  57.6784997  15.7729988
  73.7480012  57.5974997  17.2149988  73.2090051  57.3589648  16.5757836
  60.6910012  49.7284997  16.2159988  61.4230012  49.9824997  16.7769988
  59.9110012  49.9324997  16.7309988  60.6858232  49.7909177  16.3625760
  66.7200012  45.1354997   8.9539988  67.2850012  44.5884997   8.4069988
  66.5730012  44.6134997   9.7419988  66.7772918  44.9902024   8.9858454
  61.7220012  41.2714997   5.3719988  61.4050012  40.3694997   5.3369988
  62.5040012  41.2734997   4.8189988  61.7842284  41.1481628   5.2924783
  65.3470012  43.5234997  11.3679988  64.5110012  43.9774997  11.4779988
  65.8710012  43.7994997  12.1199988  65.3034414  43.6229376  11.4847136
  65.8910012  49.7364997   3.0519988  65.1460012  49.2294997   2.7299988
  65.7570012  49.7854997   3.9989988  65.7708776  49.6736940   3.1358647
  73.0410012  48.8694997  11.8389988  73.6830012  49.3264997  11.2949988
  72.2110012  48.9824997  11.3759988  73.0165963  48.9472704  11.7020177
  69.7890012  42.5504997   1.2519988  68.8500012  42.6624997   1.0999988
  70.0860012  43.4074997   1.5579988  69.7007666  42.6816443   1.2725768
  67.4100012  49.9204997  14.2889988  67.0650012  49.5394997  15.0959988
  67.2100012  50.8544997  14.3609988  67.3358061  49.9945228  14.4090961
  70.5070012  44.4174997   2.9119988  71.3990012  44.2804997   3.2309988
  70.5640012  45.2084997   2.3759988  70.6366285  44.5056660   2.8831691
  61.0160012  49.0314997   8.8219988  61.7610012  49.0294997   8.2209988
  61.0940012  48.2084997   9.3039988  61.1285518  48.9199315   8.8048929
  68.0170012  51.1954997   2.0779988  67.7210012  52.0214997   2.4589988
  67.3140012  50.5754997   2.2739988  67.8814914  51.2248199   2.1566443
  58.0240012  47.4924997  14.1369988  58.2470012  47.0744997  14.9689988
  57.4220012  46.8794997  13.7139988  57.9731759  47.3524668  14.1937022
  65.0400012  47.0094997  16.3499988  64.7440012  46.8434997  15.4549988
  65.9720012  46.7894997  16.3389988  65.1254166  46.9570640  16.2260536
  69.6610012  52.3824997  14.2399988  68.7600012  52.5654997  13.9719988
  69.6950012  52.6414997  15.1609988  69.5423041  52.4425512  14.3278197
  75.3920012  44.6274997   2.6069988  74.8380012  44.2314997   1.9349988
  75.4920012  45.5374997   2.3289988  75.3297059  44.6963586   2.4774401
  75.3550012  50.4274997  15.4439988  74.5040012  50.6654997  15.0769988
  75.9460012  50.4104997  14.6909988  75.3182487  50.4578258  15.2918893
  73.6870012  53.4134997   3.0719988  73.3140012  52.5874997   3.3809988
  73.9650012  53.2304997   2.1749988  73.6735630  53.2757303   2.9929626
  70.8480012  48.2214997  10.0929988  69.9190012  47.9894997  10.0659988
  71.2990012  47.4444997   9.7629988  70.7819216  48.0847238  10.0446917
  63.3910012  52.5494997   6.2259988  63.9180012  53.3224997   6.0259988
  62.5110012  52.7744997   5.9249988  63.3441773  52.6858005   6.1579010
  59.1460012  47.4114997   0.8129988  59.7620012  48.0384997   1.1929988
  58.2840012  47.7274997   1.0849988  59.1137698  47.5399430   0.9017183
  64.8180012  50.2124997   5.8029988  64.5770012  51.1374997   5.8439988
  64.0770012  49.7534997   6.1989988  64.6848409  50.2771421   5.8621377
  65.3330012  54.3614997  12.1179988  65.6950012  55.2164997  11.8839988
  65.8640012  54.0694997  12.8579988  65.4544473  54.4391060  12.1860855
  63.5010012  55.2344997   5.3479988  62.5510012  55.3394997   5.3989988
  63.8530012  56.0544997   5.6929988  63.4184203  55.3598314   5.4016650
  68.8770012  50.4604997  11.8179988  68.4510012  50.2334997  12.6449988
  69.4570012  49.7224997  11.6359988  68.8971868  50.3295299  11.9065830
  71.0800012  51.3894997   0.8919988  71.4330012  51.0094997   1.6969988
  70.1310012  51.2964997   0.9789988  71.0000441  51.3249596   1.0138559
  71.5350012  55.0124997  14.2879988  70.9340012  54.4574997  13.7919988
  71.8170012  55.6794997  13.6619988  71.4908519  55.0266841  14.1354952
  75.5830012  55.8694997   1.0929988  76.3270012  56.4554997   0.9529988
  74.8890012  56.4374997   1.4269988  75.5910292  56.0265582   1.1189961
  59.6580012  42.2454997  13.6949988  58.7650012  42.5844997  13.6269988
  59.5590012  41.3904997  14.1129988  59.5224164  42.1762588  13.7422235
  71.9460012  50.0624997   3.1189988  71.6680012  49.3344997   3.6749988
  72.8730012  50.1814997   3.3239988  72.0333124  49.9788802   3.2228845
  59.3090012  54.0504997  12.1299988  59.5260012  53.1184997  12.0989988
  59.5550012  54.3244997  13.0129988  59.3719549  53.9600636  12.2451763
  65.1710012  52.5014997  -0.6610012  65.4100012  51.7534997  -1.2080012
  64.9020012  52.1134997   0.1719988  65.1673675  52.3466638  -0.6233135
  64.1080012  52.0714997   1.7959988  64.2540012  51.5514997   2.5859988
  64.1050012  52.9784997   2.1019988  64.1275989  52.1228853   1.9456088
  60.5610012  49.3244997   2.3059988  59.8750012  49.6764997   2.8729988
  61.0830012  50.0874997   2.0589988  60.5376852  49.4758578   2.3502118
  68.3920012  41.9864997  12.5849988  69.0910012  42.0604997  13.2349988
  68.0110012  41.1224997  12.7389988  68.4361767  41.8797624  12.6948322
  69.1770012  41.6384997   3.6819988  69.3970012  42.1104997   2.8789988
  69.7350012  42.0334997   4.3519988  69.2824968  41.7564285   3.6627331
  66.8450012  53.7694997   2.5449988  66.0290012  54.2664997   2.5969988
  67.3750012  54.2444997   1.9049988  66.8049161  53.9017722   2.4655956
  66.3770012  43.3664997   4.5169988  67.1890012  43.8714997   4.5629988
  66.1320012  43.2214997   5.4309988  66.4550520  43.4160375   4.6468517
  66.9120012  44.3524997  13.7019988  67.0310012  44.9264997  14.4589988
  67.5680012  43.6644997  13.8159988  67.0169757  44.3381079  13.8210825
  67.2600012  40.4474997   5.4549988  66.9140012  41.0654997   6.0999988
  67.9190012  40.9484997   4.9739988  67.3017826  40.5995802   5.4780971
  64.1840012  54.8134997   2.5269988  64.3440012  55.6124997   2.0259988
  63.9860012  55.1194997   3.4119988  64.1791649  54.9644469   2.5779815
  62.9180012  41.5104997   2.1419988  62.8350012  42.3994997   2.4889988
  63.8080012  41.2454997   2.3739988  63.0269469  41.5961430   2.2207626
  73.1170012  42.2594997  14.5369988  72.2000012  42.5224997  14.4489988
  73.4520012  42.2564997  13.6399988  73.0369900  42.2950224  14.4037919
  71.7190012  46.0104997   8.6319988  70.9210012  45.5954997   8.3039988
  72.1640012  45.3194997   9.1229988  71.6699885  45.8603543   8.6534889
  61.1770012  51.9384997   1.2029988  61.7690012  52.6374997   1.4789988
  61.6360012  51.5054997   0.4829988  61.3201142  51.9757049   1.1434830
  59.4930012  44.6024997   0.3189988  59.4480012  45.5414997   0.4969988
  58.6050012  44.3664997   0.0489988  59.3668574  44.6991892   0.3068912
  72.8050012  55.2664997  10.2549988  72.6500012  55.9444997   9.5979988
  73.7380012  55.3384997  10.4579988  72.9098500  55.3690170  10.1925119
  60.3010012  39.3844997   8.9919988  60.0720012  39.4434997   8.0639988
  59.8580012  38.5924997   9.2979988  60.2098530  39.2855753   8.9064786
  59.2310012  53.3244997   5.1519988  58.3990012  53.7974997   5.1799988
  59.7770012  53.8344997   4.5539988  59.1909739  53.4581871   5.0749716
  58.5190012  55.9374997  16.4819988  59.0600012  55.7204997  17.2419988
  58.0380012  55.1314997  16.2929988  58.5279345  55.7989514  16.5603076
  63.1170012  54.8564997  18.1029988  63.8840012  54.3974997  18.4439988
  63.0950012  54.6304997  17.1729988  63.2191434  54.7630409  18.0240043
  67.2090012  54.3644997  -0.5220012  66.5650012  53.7334997  -0.2010012
  67.9710012  53.8334997  -0.7540012  67.2238077  54.2062920  -0.5093989
  69.6940012  53.2364997  16.8319988  69.3430012  52.3804997  17.0749988
  70.4200012  53.3794997  17.4389988  69.7440769  53.1385636  16.9473619
  71.8130012  54.1814997  -0.2880012  72.0960012  53.3874997   0.1639988
  72.5530012  54.4144997  -0.8490012  71.9517486  54.1042803  -0.3019302
  58.4260012  49.7474997  17.4369988  58.5700012  48.8454997  17.1499988
  57.6540012  50.0334997  16.9489988  58.3413322  49.6628261  17.3317881
  62.7680012  50.0914997  -0.4310012  62.8320012  49.2974997   0.0999988
  63.4210012  49.9724997  -1.1210012  62.8650241  49.9667148  -0.4515683
  65.0820012  49.7174997  16.8689988  64.7530012  49.9884997  16.0119988
  65.2340012  48.7764997  16.7819988  65.0574809  49.6273862  16.7398244
  68.1200012  51.1384997  -0.6950012  67.8510012  51.3184997   0.2059988
  67.9140012  50.2124997  -0.8260012  68.0553825  51.0380152  -0.5894786
  70.8160012  49.6334997  14.2529988  71.5620012  50.2214997  14.1329988
  70.0590012  50.2154997  14.3159988  70.8157554  49.7927011  14.2450907
  59.2590012  46.9474997  16.8569988  59.6670012  46.0904997  16.7359988
  58.9990012  46.9624997  17.7779988  59.2797568  46.8320807  16.9649588
  63.9170012  48.0634997   1.8749988  63.4570012  47.5794997   2.5609988
  64.1720012  47.3954997   1.2389988  63.8884902  47.9068731   1.8829334
  63.2060012  45.9564997  14.2309988  62.5880012  46.6314997  14.5109988
  63.5500012  46.2774997  13.3979988  63.1679615  46.0922721  14.1566581
  64.9880012  46.3064997   0.1369988  64.8080012  46.1524997  -0.7900012
  65.9380012  46.4144997   0.1819988  65.0917776  46.3000175   0.0161843
  68.2260012  48.4284997  17.5079988  69.1790012  48.5114997  17.4809988
  68.0650012  47.7164997  18.1279988  68.3346426  48.3436746  17.5880579
  74.3780012  48.6614997  -0.4170012  74.1040012  48.2364997  -1.2300012
  74.4170012  49.5924997  -0.6340012  74.3457699  48.7292484  -0.5576390
  63.5450012  43.3114997  15.3129988  63.6950012  42.5824997  14.7109988
  63.5480012  44.0884997  14.7539988  63.5659302  43.3167851  15.1550692
  63.9580012  41.6814997  12.8059988  64.4940012  42.1324997  12.1539988
  63.1060012  41.5734997  12.3829988  63.9162178  41.7286390  12.6595756
  65.5400012  47.1204997  13.0449988  66.2900012  46.9644997  12.4719988
  65.2010012  47.9724997  12.7699988  65.5968921  47.2142968  12.9293561
  69.9550012  44.9354997  18.0739988  70.1480012  44.0044997  17.9619988
  70.8130012  45.3604997  18.0639988  70.0973020  44.8656389  18.0573361
  71.2720012  47.7244997  16.1509988  70.9910012  48.4334997  15.5739988
  72.2150012  47.6514997  15.9999988  71.3609027  47.8117646  16.0515551
  62.0240012  44.5094997  17.2249988  61.2570012  43.9774997  17.0149988
  62.7030012  44.1994997  16.6249988  62.0107022  44.3947506  17.1151648
  64.7640012  39.1374997  13.2369988  64.6650012  40.0844997  13.1319988
  64.0210012  38.7654997  12.7619988  64.6500563  39.2165902  13.1584560
  66.0280012  43.4594997  16.8009988  65.7920012  43.2394997  17.7029988
  65.2440012  43.2524997  16.2909988  65.8898628  43.4014760  16.8553932
  68.7430012  42.5864997  15.8769988  67.7960012  42.6184997  16.0089988
  69.0560012  41.9614997  16.5299988  68.6555475  42.5063207  15.9834455
  70.3770012  41.2204997  17.8819988  70.2810012  40.2684997  17.8759988
  70.0560012  41.4894997  18.7419988  70.3204070  41.1264035  17.9975441
  60.2040012  42.4304997  16.9289988  60.4160012  41.7234997  16.3189988
  60.0930012  41.9924997  17.7729988  60.2179721  42.2747084  16.9596843
  64.9850012  38.4314997  15.9089988  65.6970012  37.7914997  15.8949988
  64.8840012  38.6984997  14.9949988  65.0687939  38.3799938  15.7835650
  65.3390012  40.1144997  17.9619988  65.2070012  39.6384997  17.1419988
  64.7400012  40.8584997  17.9069988  65.2399071  40.1499618  17.8422886
  64.8850012  56.9974997   1.1389988  65.8180012  57.1554997   1.2819988
  64.6210012  57.6724997   0.5139988  64.9769510  57.1103611   1.0740741
  58.4540012  51.6334997   0.6209988  59.3680012  51.7124997   0.8949988
  58.4610012  50.9464997  -0.0450012  58.5801131  51.5513961   0.5684393
  57.1030012  57.0264997   5.6989988  56.4560012  56.5644997   5.1659988
  57.4570012  56.3544997   6.2809988  57.0623849  56.8724723   5.7047959
  57.9730012  55.1074997   7.5029988  57.6380012  54.2274997   7.6749988
  58.1950012  55.4524997   8.3679988  57.9571783  55.0337500   7.6434208
  75.5210012  55.9164997  10.4839988  75.5000012  56.1014997  11.4229988
  76.2120012  56.4854997  10.1429988  75.6114618  56.0186606  10.5663864
  75.0850012  55.4844997  13.4059988  74.5970012  54.7484997  13.0349988
  75.6340012  55.0904997  14.0839988  75.0924872  55.3306249  13.4469160
  73.5350012  51.2734997  18.0439988  72.6690012  51.1684997  18.4379988
  73.9120012  52.0324997  18.4899988  73.4673308  51.3616900  18.1582393
  74.8360012  49.5304997   3.5579988  75.6860012  49.9514997   3.6849988
  74.8420012  48.7904997   4.1649988  74.9531372  49.4880803   3.6574344
  75.2310012  47.5834997   5.3819988  74.5040012  47.1044997   5.7789988
  75.8120012  47.7894997   6.1139988  75.2099375  47.5457090   5.5354129
  74.9900012  50.3684997  10.3289988  75.8230012  49.9904997  10.0489988
  75.1020012  51.3114997  10.2099988  75.1192647  50.4442218  10.2745487
  73.4760012  53.2464997  12.6359988  72.8290012  53.5714997  13.2619988
  72.9590012  52.8064997  11.9619988  73.3174029  53.2315004  12.6305827
  75.4990012  47.4844997   1.7729988  74.9770012  47.8414997   1.0539988
  75.4660012  48.1594997   2.4509988  75.4231634  47.6245413   1.7663145
  73.8480012  44.7244997   0.3239988  73.9440012  45.3914997  -0.3570012
  73.7080012  43.9084997  -0.1580012  73.8422135  44.7054500   0.1658491
  73.0170012  46.1044997   5.9449988  72.8670012  45.1594997   5.9239988
  72.6640012  46.3854997   6.7879988  72.9486625  46.0130441   6.0562346
  58.0530012  48.1824997   9.9549988  58.2370012  48.1004997   9.0189988
  58.9020012  48.0584997  10.3789988  58.1930139  48.1545003   9.8841455
  73.8740012  48.0744997  15.5829988  74.4570012  47.3404997  15.7749988
  74.4380012  48.8464997  15.6299988  74.0299769  48.0784227  15.6156159
  75.3700012  45.9774997  16.2679988  74.5070012  45.5984997  16.1019988
  75.9750012  45.2384997  16.1939988  75.3335979  45.8258023  16.2352817
  73.0950012  42.1324997  -0.5590012  73.7060012  41.7614997   0.0779988
  72.2590012  41.7114997  -0.3630012  73.0655032  42.0247554  -0.4452965
  72.7280012  43.6874997   4.4069988  73.0080012  42.7804997   4.5309988
  73.4870012  44.1214997   4.0179988  72.8689277  43.6220942   4.3713682
  73.3400012  44.2684997   9.8429988  74.2730012  44.4804997   9.8089988
  73.1050012  44.3704997  10.7649988  73.4358036  44.3112769   9.9629976
  73.3690012  45.0054997  12.6189988  72.5260012  45.2734997  12.9849988
  73.8110012  45.8274997  12.4079988  73.3134158  45.1533291  12.6405491
  57.6500012  43.4534997  16.0959988  58.5700012  43.3314997  16.3319988
  57.2010012  42.7034997  16.4849988  57.7151580  43.3353727  16.1809006
  75.6520012  38.9854997  17.9719988  76.0020012  38.3314997  17.3669988
  75.7990012  39.8224997  17.5329988  75.7198419  39.0091591  17.8297118
  73.3410012  40.9504997   4.4549988  73.5240012  40.5014997   5.2809988
  72.7420012  40.3654997   3.9919988  73.2850202  40.8099975   4.5053275
  58.8710012  41.7654997   8.9869988  59.3170012  40.9734997   9.2889988
  59.3380012  42.4814997   9.4179988  58.9950172  41.7540624   9.0864820
  57.1750012  44.7644997  10.0559988  57.6670012  44.5434997   9.2649988
  57.5380012  45.6054997  10.3369988  57.2913126  44.8478357   9.9857531
  75.1720012  41.0944997  16.3219988  74.2540012  41.3654997  16.2859988
  75.2950012  40.5594997  15.5369988  75.0631066  41.0592892  16.2110487
  75.2080012  41.0174997   0.9829988  75.6200012  40.2964997   0.5079988
  75.8900012  41.6874997   1.0419988  75.3565885  41.0092368   0.9258915
  57.4890012  41.0224997   4.1099988  56.5640012  41.2314997   3.9809988
  57.9430012  41.5064997   3.4209988  57.4237368  41.1165993   3.9991226
  72.2600012  56.0064997   6.0559988  72.9120012  55.6594997   5.4479988
  72.7700012  56.4954997   6.7019988  72.4182637  56.0250597   6.0600236
  57.4530012  39.7604997  12.4549988  56.7880012  39.5144997  13.0979988
  57.0100012  40.3824997  11.8769988  57.3020956  39.8108632  12.4649352
  59.6450012  52.9354997  16.5989988  58.8240012  53.1104997  16.1389988
  59.3920012  52.8624997  17.5199988  59.4986164  52.9495622  16.6604923
  62.5990012  53.9104997  12.8579988  62.1740012  54.7194997  12.5749988
  63.5030012  53.9954997  12.5559988  62.6630271  54.0328469  12.7783776
  66.9100012  55.3094997  15.8169988  67.0950012  54.9754997  16.6949988
  67.7560012  55.6184997  15.4949988  67.0497539  55.3056047  15.8935605
  69.2550012  56.5954997  15.0609988  69.9320012  55.9624997  14.8209988
  69.5770012  56.9964997  15.8679988  69.3911637  56.5631154  15.1372793
  74.1720012  39.1844997  14.1409988  73.3600012  39.5094997  13.7529988
  74.4050012  38.4244997  13.6079988  74.0923423  39.1262436  14.0158253
  60.0010012  57.1664997  12.9049988  59.2800012  57.6064997  12.4539988
  59.6350012  56.9154997  13.7539988  59.8529804  57.1927698  12.9579840
  62.4680012  56.7664997  11.9349988  61.6030012  56.8384997  12.3389988
  62.4130012  57.3134997  11.1509988  62.3422085  56.8502685  11.8843362
  67.1780012  56.6544997  11.1099988  66.7220012  57.1834997  10.4559988
  67.3410012  57.2574997  11.8359988  67.1375585  56.8084468  11.1185062
  69.5060012  55.5324997  12.0549988  68.6010012  55.6974997  11.7899988
  69.9350012  56.3854997  11.9899988  69.4400799  55.6704483  12.0099182
  72.1100012  57.1024997  12.3499988  71.9280012  58.0184997  12.1399988
  72.2870012  56.6924997  11.5039988  72.1090210  57.1724822  12.2067885
  59.4150012  55.7894997   9.8149988  59.3970012  55.3644997  10.6729988
  60.2200012  55.4714997   9.4069988  59.5213875  55.6883812   9.8771655
  61.5570012  54.4994997   8.4699988  61.3380012  53.5834997   8.6399988
  62.3810012  54.6394997   8.9359988  61.6384420  54.3930520   8.5562774
  64.0940012  54.9694997   9.3189988  64.3070012  54.0814997   9.0319988
  64.1580012  54.9354997  10.2729988  64.1318232  54.8433102   9.4087397
  67.6020012  40.6334997   8.4629988  66.9280012  40.0044997   8.7189988
  68.1660012  40.1494997   7.8599988  67.5859230  40.4818744   8.4165340
  72.7450012  38.7414997   8.5759988  73.3490012  39.2884997   8.0739988
  71.8750012  39.0604997   8.3359988  72.7101241  38.8595806   8.4747654
  74.4720012  39.8794997   6.9089988  75.0840012  39.3654997   6.3829988
  74.8540012  40.7574997   6.9329988  74.6074540  39.9277140   6.8401830
  59.9290012  39.2674997   6.2849988  59.1520012  39.0334997   5.7779988
  60.4590012  38.4704997   6.2939988  59.8942330  39.1276988   6.2167742
  58.7650012  39.0654997   2.0889988  59.2040012  39.6764997   1.4969988
  58.1320012  39.6034997   2.5629988  58.7394514  39.2219257   2.0720930
  64.5080012  39.1944997   6.0989988  65.3830012  39.5824997   6.0689988
  64.3720012  38.9794997   7.0209988  64.6093695  39.2185184   6.2196440
  70.0650012  39.2244997   7.7479988  70.1410012  39.3194997   6.7979988
  69.7900012  38.3164997   7.8769988  70.0382321  39.1147867   7.6355079
  71.4180012  39.2504997   3.4399988  70.7160012  39.8654997   3.2309988
  70.9740012  38.4124997   3.5709988  71.2616330  39.2215783   3.4290328
  58.6660012  55.0134997   2.9869988  57.9810012  54.9754997   2.3189988
  58.6700012  55.9264997   3.2749988  58.5728193  55.1317016   2.9345284
  60.6260012  40.9814997   0.5309988  61.1180012  40.3514997   0.0039988
  61.2500012  41.2774997   1.1949988  60.7775446  40.9353199   0.5485980
  65.6520012  41.2744997   2.9879988  65.8300012  40.6284997   3.6709988
  65.5990012  42.1084997   3.4559988  65.6691829  41.2987985   3.1445940
  67.5310012  56.2234997   1.3839988  68.3970012  56.5894997   1.2059988
  67.2840012  55.7834997   0.5699988  67.6162392  56.2141756   1.2496289
  74.2400012  55.7864997   4.0629988  74.0450012  55.0384997   3.4979988
  74.2010012  56.5444997   3.4799988  74.2080380  55.7866099   3.9068384
  59.8870012  39.7814997  15.8029988  59.5210012  39.0164997  16.2459988
  60.8000012  39.8104997  16.0899988  59.9602790  39.6807224  15.9024070
  61.8600012  39.1324997  17.3389988  62.7580012  38.8584997  17.1539988
  61.4730012  38.3894997  17.8029988  61.9306612  38.9945914  17.3763643
  60.4840012  55.9334997   0.0119988  60.2170012  56.2204997   0.8849988
  61.2560012  55.3874997   0.1639988  60.5517488  55.8990294   0.1521050
  70.2810012  38.4644997  17.5209988  70.3580012  38.0384997  18.3749988
  71.1750012  38.4784997  17.1779988  70.4123428  38.4080879  17.5915310
  73.4570012  54.5374997  16.2129988  72.6750012  54.3514997  15.6939988
  73.3850012  55.4664997  16.4309988  73.3401777  54.6376492  16.1714048
  87.8630012  48.4234997   6.2439988  87.9520012  49.3674997   6.1119988
  87.2250012  48.1484997   5.5859988  87.7889081  48.5154830   6.1369614
  86.7960012  47.6784997   9.6629988  86.7580012  47.0324997  10.3679988
  86.4740012  47.2124997   8.8919988  86.7472333  47.5269408   9.6552978
  79.1650012  47.2934997  11.2559988  79.2060012  46.6674997  11.9789988
  79.8680012  47.9174997  11.4379988  79.2656363  47.2921196  11.3796044
  90.5020012  50.6174997   7.9639988  90.0620012  49.8974997   8.4149988
  90.4890012  51.3384997   8.5939988  90.4400226  50.6163731   8.1108494
  80.0880012  51.7434997   9.7909988  79.7190012  50.9414997   9.4209988
  81.0290012  51.5744997   9.8369988  80.1647289  51.6110153   9.7466316
  76.6980012  45.4034997   5.1839988  76.2510012  46.2494997   5.1649988
  76.1370012  44.8234997   4.6679988  76.5609900  45.4409916   5.1116801
  77.4090012  47.5654997   7.3099988  77.6220012  46.7954997   7.8369988
  78.1470012  47.6544997   6.7059988  77.5378496  47.4721394   7.3005300
  87.6140012  55.7224997   8.1769988  88.2340012  55.0454997   7.9029988
  87.4060012  55.5044997   9.0849988  87.6706904  55.6003870   8.2623365
  85.1860012  50.1114997  10.0689988  85.4900012  49.4254997   9.4739988
  85.9070012  50.2294997  10.6869988  85.3250671  50.0336305  10.0711816
  93.8490012  41.7124997  10.9299988  93.8980012  42.3224997  11.6659988
  94.2740012  42.1734997  10.2069988  93.9131824  41.8583741  10.9330205
  88.3270012  44.5054997  10.3969988  88.4690012  43.5594997  10.4169988
  88.2200012  44.7124997   9.4679988  88.3319864  44.4039534  10.2742339
  81.4810012  42.6064997   7.6689988  81.5250012  43.4664997   7.2509988
  81.0240012  42.0544997   7.0349988  81.4252185  42.6495799   7.5260299
  89.2040012  42.7374997   6.0699988  89.8500012  42.4084997   6.6949988
  89.7140012  43.2554997   5.4469988  89.3614264  42.7624611   6.0713862
  78.1020012  45.0034997   8.4309988  78.7550012  44.4534997   8.8629988
  78.1260012  44.7294997   7.5139988  78.1946683  44.8911466   8.3662123
  83.2580012  46.5534997   7.6459988  83.8740012  46.0274997   8.1559988
  82.6720012  45.9134997   7.2429988  83.2630810  46.3949208   7.6613173
  94.2400012  43.1904997  13.1659988  93.5520012  43.8484997  13.0699988
  94.2560012  42.9934997  14.1019988  94.1478525  43.2540462  13.2794808
  80.2920012  41.5244997  11.7429988  80.0730012  42.0544997  10.9769988
  79.6240012  41.7514997  12.3899988  80.1717600  41.6276906  11.7256379
  87.6610012  51.0244997   5.2869988  87.3650012  50.7024997   4.4359988
  87.3360012  51.9244997   5.3279988  87.5766371  51.1020215   5.1761801
  82.8610012  49.2004997  12.0299988  82.1210012  49.7984997  12.1339988
  83.5750012  49.7544997  11.7149988  82.8562237  49.3572831  12.0016465
  90.9680012  42.0284997   8.0499988  90.7520012  41.2624997   8.5829988
  91.6230012  42.5004997   8.5629988  91.0270632  41.9875889   8.1922861
  79.8850012  43.4164997   9.6949988  80.4990012  44.0494997  10.0689988
  80.3970012  42.9444997   9.0389988  80.0382296  43.4392370   9.6574252
  81.2680012  51.1644997  12.8179988  81.2630012  52.0444997  12.4399988
  80.4150012  51.0814997  13.2429988  81.1519464  51.2736117  12.8237907
  77.3890012  50.8354997   3.5999988  77.1170012  51.0644997   2.7109988
  77.4350012  51.6734997   4.0599988  77.3580094  50.9801213   3.5405697
  91.0140012  52.4574997  10.3119988  90.0730012  52.5154997  10.4739988
  91.2910012  53.3634997  10.1749988  90.9224679  52.5879443  10.3156815
  91.3150012  40.7434997  11.7299988  90.5790012  41.3544997  11.6919988
  91.9980012  41.1584997  11.2029988  91.3066541  40.8831374  11.6535832
  84.3180012  38.8304997   9.1959988  84.2010012  37.8814997   9.1409988
  83.4630012  39.1624997   9.4689988  84.1863733  38.7455409   9.2253897
  89.2660012  54.2384997   6.9379988  89.6920012  53.5314997   6.4529988
  89.5830012  55.0394997   6.5209988  89.3671019  54.2500994   6.8153130
  90.4260012  52.1394997   5.4459988  90.1680012  51.4494997   4.8349988
  90.4970012  51.6964997   6.2919988  90.4002856  51.9852124   5.4766885
  92.1120012  50.7054997  13.9239988  92.2520012  50.1144997  13.1839988
  92.2790012  51.5784997  13.5669988  92.1536778  50.7426426  13.7746965
  86.5850012  47.6674997   3.6959988  85.8730012  48.2024997   3.3439988
  87.2760012  47.7234997   3.0359988  86.5810132  47.7482543   3.5586289
  86.6380012  46.1254997   0.7349988  87.3390012  46.1474997   1.3859988
  86.9410012  45.4974997   0.0789988  86.7747830  46.0436566   0.7353711
  93.9540012  47.0454997  11.9899988  93.3010012  47.7404997  12.0789988
  94.4190012  47.2554997  11.1799988  93.9275390  47.1689425  11.8926883
  89.9900012  47.8774997   4.6479988  89.2580012  48.1054997   5.2209988
  90.4380012  47.1634997   5.1029988  89.9503095  47.8122571   4.7879119
  89.8880012  46.0514997  13.7149988  89.9680012  46.8144997  14.2869988
  89.2860012  46.3304997  13.0249988  89.8175756  46.1937134  13.7000589
  81.6360012  48.5074997   6.5299988  81.3050012  48.1374997   5.7119988
  82.2240012  47.8374997   6.8769988  81.6701873  48.3661156   6.4648102
  83.0020012  51.9354997   9.2119988  82.9080012  51.3574997   8.4549988
  83.7320012  51.5644997   9.7079988  83.0877981  51.8062390   9.1754165
  82.0020012  47.2764997  10.1639988  82.5680012  47.3974997   9.4009988
  82.3210012  47.9134997  10.8029988  82.1225786  47.3791884  10.1460040
  88.3110012  52.7794997  10.8979988  88.0710012  53.4414997  11.5459988
  88.1130012  51.9454997  11.3229988  88.2513808  52.7573134  11.0441524
  82.8820012  51.6754997  14.8809988  82.5710012  52.4574997  15.3359988
  82.2320012  51.5224997  14.1949988  82.7515558  51.7619105  14.8505871
  88.8610012  47.0394997   2.3329988  89.4410012  47.1894997   3.0799988
  89.2750012  47.5104997   1.6099988  88.9962830  47.1236841   2.3374134
  79.8020012  47.8734997  14.1099988  79.8730012  48.5244997  14.8079988
  78.9120012  47.9764997  13.7749988  79.6913117  47.9765936  14.1602700
  86.5880012  53.7764997   5.7679988  87.0620012  54.0714997   6.5459988
  86.0250012  54.5144997   5.5349988  86.5767653  53.9166932   5.8430136
  81.1220012  53.7474997  15.6439988  81.1290012  53.6114997  14.6969988
  80.2060012  53.6294997  15.8959988  80.9991714  53.7129430  15.5484666
  92.5600012  38.7894997   2.1459988  91.6600012  38.9284997   2.4409988
  92.8120012  39.6204997   1.7439988  92.4708702  38.9209074   2.1320205
  80.6260012  47.5774997   4.1199988  80.3340012  48.3454997   3.6289988
  79.9520012  46.9174997   3.9569988  80.4949081  47.5934406   4.0307340
  93.7490012  53.1554997   0.5219988  93.8230012  54.0944997   0.6929988
  94.6550012  52.8504997   0.4659988  93.8815100  53.2426722   0.5378119
  76.7190012  49.9404997  12.9349988  76.2180012  49.9124997  12.1199988
  76.7240012  49.0344997  13.2439988  76.6511526  49.8142278  12.8652872
  76.4690012  52.7204997   9.8189988  77.4150012  52.5764997   9.7999988
  76.3570012  53.5044997  10.3559988  76.5832727  52.8068046   9.8890072
  94.6670012  53.3864997  15.5009988  94.6180012  52.4314997  15.4639988
  93.8400012  53.6544997  15.9019988  94.5484940  53.2918998  15.5501375
  85.6460012  52.9604997  14.3769988  85.7330012  53.7864997  14.8519988
  84.7820012  52.6304997  14.6259988  85.5411964  53.0289878  14.4756549
  86.0600012  56.7324997   4.1829988  85.9850012  56.6114997   3.2369988
  86.0930012  57.6824997   4.3019988  86.0541848  56.8442500   4.0694834
  79.7130012  55.5214997   5.9639988  79.8660012  55.1734997   6.8429988
  78.8630012  55.1654997   5.7089988  79.6188962  55.4256650   6.0498340
  89.1620012  55.8864997   1.1849988  89.5370012  55.1424997   0.7149988
  89.1660012  55.6164997   2.1039988  89.2138915  55.7481486   1.2447824
  88.8310012  55.8124997   3.9349988  87.8950012  55.9124997   4.1129988
  89.1110012  55.1034997   4.5129988  88.7408255  55.7302711   4.0375391
  91.8190012  44.8794997  15.9809988  91.4120012  45.3604997  15.2599988
  91.8600012  43.9744997  15.6729988  91.7688437  44.8229374  15.8406683
  78.9680012  51.2634997  13.9779988  79.1840012  50.9024997  14.8369988
  78.1130012  50.8894997  13.7679988  78.8819292  51.1634111  14.0673386
  81.5870012  39.7334997   9.9729988  80.7250012  39.6464997   9.5659988
  81.5640012  40.5894997  10.4009988  81.4660330  39.8372765   9.9751863
  86.2500012  39.4554997  13.3479988  86.6700012  39.0404997  14.1009988
  85.3170012  39.2774997  13.4649988  86.1813644  39.3745900  13.4669539
  89.5760012  43.2114997  14.2009988  89.0620012  43.0854997  14.9989988
  89.4210012  44.1234997  13.9569988  89.4846852  43.3176132  14.2772158
  90.3390012  48.0724997  -0.0370012  90.3810012  47.8494997  -0.9670012
  91.1880012  48.4714997   0.1529988  90.4595396  48.0959155  -0.1386373
  85.9110012  41.9484997   0.6329988  85.6580012  41.9674997   1.5559988
  85.6550012  41.0764997   0.3319988  85.8417790  41.8332437   0.7186263
  81.6780012  44.6994997  11.0679988  81.0360012  44.6584997  11.7769988
  81.7150012  45.6254997  10.8309988  81.5951324  44.8191559  11.1329824
  81.6750012  44.9204997   5.9799988  80.7820012  44.5794997   5.9219988
  82.1250012  44.5434997   5.2249988  81.6137305  44.8228484   5.8699177
  87.2100012  45.3364997   4.7969988  86.8010012  46.1514997   4.5059988
  87.9310012  45.1964997   4.1829988  87.2514537  45.4292018   4.6741342
  86.3120012  45.5114997  16.2849988  85.7500012  44.8074997  16.6059988
  87.1390012  45.3914997  16.7529988  86.3467095  45.3987883  16.3922330
  88.2150012  44.7824997   7.6109988  88.0200012  45.3874997   6.8959988
  88.3960012  43.9484997   7.1769988  88.2127614  44.7526300   7.4544405
  79.4280012  45.0194997  12.9349988  79.3900012  45.4194997  13.8039988
  78.9370012  44.2024997  13.0259988  79.3564684  44.9638069  13.0661059
  82.7940012  42.3934997  -0.2660012  82.3630012  41.9484997   0.4639988
  82.0760012  42.7654997  -0.7780012  82.6379438  42.3828940  -0.2353201
  76.0360012  42.1354997   6.7859988  76.6670012  42.1064997   7.5049988
  76.4850012  41.7104997   6.0559988  76.1830774  42.0740492   6.7856553
  77.3100012  42.8814997   2.2099988  77.7840012  43.4724997   1.6249988
  76.5930012  43.4124997   2.5569988  77.2779341  43.0340867   2.1768836
  87.4790012  46.4204997  12.2829988  87.8020012  45.7894997  11.6399988
  87.0390012  45.8854997  12.9429988  87.4636895  46.2618441  12.2842850
  84.2560012  42.3474997   7.0669988  83.3450012  42.4044997   7.3549988
  84.7620012  42.2874997   7.8769988  84.1995413  42.3471985   7.2160622
  79.0850012  43.9764997   5.8929988  78.1950012  44.0764997   5.5529988
  79.3810012  43.1344997   5.5469988  79.0032823  43.8763545   5.7997213
  82.7380012  43.9764997   3.5499988  83.6690012  44.1054997   3.7279988
  82.5230012  44.6464997   2.8999988  82.8364247  44.0846565   3.4865747
  88.6610012  41.5824997  10.3309988  87.9850012  41.7134997  10.9949988
  88.1760012  41.4274997   9.5209988  88.5027145  41.5794905  10.3124517
  81.4120012  45.1714997   1.1169988  80.8690012  44.7914997   0.4249988
  82.2450012  45.3654997   0.6879988  81.4504399  45.1458124   0.9644526
  91.9490012  57.2544997  16.6079988  92.1490012  57.6784997  15.7729988
  92.6040012  57.5974997  17.2149988  92.0650051  57.3589648  16.5757836
  79.5470012  49.7284997  16.2159988  80.2790012  49.9824997  16.7769988
  78.7670012  49.9324997  16.7309988  79.5418232  49.7909177  16.3625760
  85.5760012  45.1354997   8.9539988  86.1410012  44.5884997   8.4069988
  85.4290012  44.6134997   9.7419988  85.6332918  44.9902024   8.9858454
  80.5780012  41.2714997   5.3719988  80.2610012  40.3694997   5.3369988
  81.3600012  41.2734997   4.8189988  80.6402284  41.1481628   5.2924783
  84.2030012  43.5234997  11.3679988  83.3670012  43.9774997  11.4779988
  84.7270012  43.7994997  12.1199988  84.1594414  43.6229376  11.4847136
  84.7470012  49.7364997   3.0519988  84.0020012  49.2294997   2.7299988
  84.6130012  49.7854997   3.9989988  84.6268776  49.6736940   3.1358647
  91.8970012  48.8694997  11.8389988  92.5390012  49.3264997  11.2949988
  91.0670012  48.9824997  11.3759988  91.8725963  48.9472704  11.7020177
  88.6450012  42.5504997   1.2519988  87.7060012  42.6624997   1.0999988
  88.9420012  43.4074997   1.5579988  88.5567666  42.6816443   1.2725768
  86.2660012  49.9204997  14.2889988  85.9210012  49.5394997  15.0959988
  86.0660012  50.8544997  14.3609988  86.1918061  49.9945228  14.4090961
  89.3630012  44.4174997   2.9119988  90.2550012  44.2804997   3.2309988
  89.4200012  45.2084997   2.3759988  89.4926285  44.5056660   2.8831691
  79.8720012  49.0314997   8.8219988  80.6170012  49.0294997   8.2209988
  79.9500012  48.2084997   9.3039988  79.9845518  48.9199315   8.8048929
  86.8730012  51.1954997   2.0779988  86.5770012  52.0214997   2.4589988
  86.1700012  50.5754997   2.2739988  86.7374914  51.2248199   2.1566443
  76.8800012  47.4924997  14.1369988  77.1030012  47.0744997  14.9689988
  76.2780012  46.8794997  13.7139988  76.8291759  47.3524668  14.1937022
  83.8960012  47.0094997  16.3499988  83.6000012  46.8434997  15.4549988
  84.8280012  46.7894997  16.3389988  83.9814166  46.9570640  16.2260536
  88.5170012  52.3824997  14.2399988  87.6160012  52.5654997  13.9719988
  88.5510012  52.6414997  15.1609988  88.3983041  52.4425512  14.3278197
  94.2480012  44.6274997   2.6069988  93.6940012  44.2314997   1.9349988
  94.3480012  45.5374997   2.3289988  94.1857059  44.6963586   2.4774401
  94.2110012  50.4274997  15.4439988  93.3600012  50.6654997  15.0769988
  94.8020012  50.4104997  14.6909988  94.1742487  50.4578258  15.2918893
  92.5430012  53.4134997   3.0719988  92.1700012  52.5874997   3.3809988
  92.8210012  53.2304997   2.1749988  92.5295630  53.2757303   2.9929626
  89.7040012  48.2214997  10.0929988  88.7750012  47.9894997  10.0659988
  90.1550012  47.4444997   9.7629988  89.6379216  48.0847238  10.0446917
  82.2470012  52.5494997   6.2259988  82.7740012  53.3224997   6.0259988
  81.3670012  52.7744997   5.9249988  82.2001773  52.6858005   6.1579010
  78.0020012  47.4114997   0.8129988  78.6180012  48.0384997   1.1929988
  77.1400012  47.7274997   1.0849988  77.9697698  47.5399430   0.9017183
  83.6740012  50.2124997   5.8029988  83.4330012  51.1374997   5.8439988
  82.9330012  49.7534997   6.1989988  83.5408409  50.2771421   5.8621377
  84.1890012  54.3614997  12.1179988  84.5510012  55.2164997  11.8839988
  84.7200012  54.0694997  12.8579988  84.3104473  54.4391060  12.1860855
  82.3570012  55.2344997   5.3479988  81.4070012  55.3394997   5.3989988
  82.7090012  56.0544997   5.6929988  82.2744203  55.3598314   5.4016650
  87.7330012  50.4604997  11.8179988  87.3070012  50.2334997  12.6449988
  88.3130012  49.7224997  11.6359988  87.7531868  50.3295299  11.9065830
  89.9360012  51.3894997   0.8919988  90.2890012  51.0094997   1.6969988
  88.9870012  51.2964997   0.9789988  89.8560441  51.3249596   1.0138559
  90.3910012  55.0124997  14.2879988  89.7900012  54.4574997  13.7919988
  90.6730012  55.6794997  13.6619988  90.3468519  55.0266841  14.1354951
  94.4390012  55.8694997   1.0929988  95.1830012  56.4554997   0.9529988
  93.7450012  56.4374997   1.4269988  94.4470292  56.0265582   1.1189961
  78.5140012  42.2454997  13.6949988  77.6210012  42.5844997  13.6269988
  78.4150012  41.3904997  14.1129988  78.3784164  42.1762588  13.7422235
  90.8020012  50.0624997   3.1189988  90.5240012  49.3344997   3.6749988
  91.7290012  50.1814997   3.3239988  90.8893124  49.9788802   3.2228845
  78.1650012  54.0504997  12.1299988  78.3820012  53.1184997  12.0989988
  78.4110012  54.3244997  13.0129988  78.2279549  53.9600636  12.2451763
  84.0270012  52.5014997  -0.6610012  84.2660012  51.7534997  -1.2080012
  83.7580012  52.1134997   0.1719988  84.0233675  52.3466638  -0.6233135
  82.9640012  52.0714997   1.7959988  83.1100012  51.5514997   2.5859988
  82.9610012  52.9784997   2.1019988  82.9835989  52.1228853   1.9456088
  79.4170012  49.3244997   2.3059988  78.7310012  49.6764997   2.8729988
  79.9390012  50.0874997   2.0589988  79.3936852  49.4758578   2.3502118
  87.2480012  41.9864997  12.5849988  87.9470012  42.0604997  13.2349988
  86.8670012  41.1224997  12.7389988  87.2921767  41.8797624  12.6948322
  88.0330012  41.6384997   3.6819988  88.2530012  42.1104997   2.8789988
  88.5910012  42.0334997   4.3519988  88.1384968  41.7564285   3.6627331
  85.7010012  53.7694997   2.5449988  84.8850012  54.2664997   2.5969988
  86.2310012  54.2444997   1.9049988  85.6609161  53.9017722   2.4655956
  85.2330012  43.3664997   4.5169988  86.0450012  43.8714997   4.5629988
  84.9880012  43.2214997   5.4309988  85.3110520  43.4160375   4.6468517
  85.7680012  44.3524997  13.7019988  85.8870012  44.9264997  14.4589988
  86.4240012  43.6644997  13.8159988  85.8729757  44.3381079  13.8210825
  86.1160012  40.4474997   5.4549988  85.7700012  41.0654997   6.0999988
  86.7750012  40.9484997   4.9739988  86.1577826  40.5995802   5.4780971
  83.0400012  54.8134997   2.5269988  83.2000012  55.6124997   2.0259988
  82.8420012  55.1194997   3.4119988  83.0351649  54.9644469   2.5779815
  81.7740012  41.5104997   2.1419988  81.6910012  42.3994997   2.4889988
  82.6640012  41.2454997   2.3739988  81.8829469  41.5961430   2.2207626
  91.9730012  42.2594997  14.5369988  91.0560012  42.5224997  14.4489988
  92.3080012  42.2564997  13.6399988  91.8929900  42.2950224  14.4037919
  90.5750012  46.0104997   8.6319988  89.7770012  45.5954997   8.3039988
  91.0200012  45.3194997   9.1229988  90.5259885  45.8603543   8.6534889
  80.0330012  51.9384997   1.2029988  80.6250012  52.6374997   1.4789988
  80.4920012  51.5054997   0.4829988  80.1761142  51.9757049   1.1434830
  78.3490012  44.6024997   0.3189988  78.3040012  45.5414997   0.4969988
  77.4610012  44.3664997   0.0489988  78.2228574  44.6991892   0.3068912
  91.6610012  55.2664997  10.2549988  91.5060012  55.9444997   9.5979988
  92.5940012  55.3384997  10.4579988  91.7658500  55.3690170  10.1925119
  79.1570012  39.3844997   8.9919988  78.9280012  39.4434997   8.0639988
  78.7140012  38.5924997   9.2979988  79.0658530  39.2855753   8.9064786
  78.0870012  53.3244997   5.1519988  77.2550012  53.7974997   5.1799988
  78.6330012  53.8344997   4.5539988  78.0469739  53.4581871   5.0749716
  77.3750012  55.9374997  16.4819988  77.9160012  55.7204997  17.2419988
  76.8940012  55.1314997  16.2929988  77.3839345  55.7989514  16.5603076
  81.9730012  54.8564997  18.1029988  82.7400012  54.3974997  18.4439988
  81.9510012  54.6304997  17.1729988  82.0751434  54.7630409  18.0240043
  86.0650012  54.3644997  -0.5220012  85.4210012  53.7334997  -0.2010012
  86.8270012  53.8334997  -0.7540012  86.0798077  54.2062920  -0.5093989
  88.5500012  53.2364997  16.8319988  88.1990012  52.3804997  17.0749988
  89.2760012  53.3794997  17.4389988  88.6000769  53.1385636  16.9473619
  90.6690012  54.1814997  -0.2880012  90.9520012  53.3874997   0.1639988
  91.4090012  54.4144997  -0.8490012  90.8077486  54.1042803  -0.3019302
  77.2820012  49.7474997  17.4369988  77.4260012  48.8454997  17.1499988
  76.5100012  50.0334997  16.9489988  77.1973322  49.6628261  17.3317881
  81.6240012  50.0914997  -0.4310012  81.6880012  49.2974997   0.0999988
  82.2770012  49.9724997  -1.1210012  81.7210241  49.9667148  -0.4515683
  83.9380012  49.7174997  16.8689988  83.6090012  49.9884997  16.0119988
  84.0900012  48.7764997  16.7819988  83.9134809  49.6273862  16.7398244
  86.9760012  51.1384997  -0.6950012  86.7070012  51.3184997   0.2059988
  86.7700012  50.2124997  -0.8260012  86.9113825  51.0380152  -0.5894786
  89.6720012  49.6334997  14.2529988  90.4180012  50.2214997  14.1329988
  88.9150012  50.2154997  14.3159988  89.6717554  49.7927011  14.2450907
  78.1150012  46.9474997  16.8569988  78.5230012  46.0904997  16.7359988
  77.8550012  46.9624997  17.7779988  78.1357568  46.8320807  16.9649588
  82.7730012  48.0634997   1.8749988  82.3130012  47.5794997   2.5609988
  83.0280012  47.3954997   1.2389988  82.7444902  47.9068731   1.8829334
  82.0620012  45.9564997  14.2309988  81.4440012  46.6314997  14.5109988
  82.4060012  46.2774997  13.3979988  82.0239615  46.0922721  14.1566581
  83.8440012  46.3064997   0.1369988  83.6640012  46.1524997  -0.7900012
  84.7940012  46.4144997   0.1819988  83.9477776  46.3000175   0.0161843
  87.0820012  48.4284997  17.5079988  88.0350012  48.5114997  17.4809988
  86.9210012  47.7164997  18.1279988  87.1906426  48.3436746  17.5880579
  93.2340012  48.6614997  -0.4170012  92.9600012  48.2364997  -1.2300012
  93.2730012  49.5924997  -0.6340012  93.2017699  48.7292484  -0.5576390
  82.4010012  43.3114997  15.3129988  82.5510012  42.5824997  14.7109988
  82.4040012  44.0884997  14.7539988  82.4219302  43.3167851  15.1550692
  82.8140012  41.6814997  12.8059988  83.3500012  42.1324997  12.1539988
  81.9620012  41.5734997  12.3829988  82.7722178  41.7286390  12.6595756
  84.3960012  47.1204997  13.0449988  85.1460012  46.9644997  12.4719988
  84.0570012  47.9724997  12.7699988  84.4528921  47.2142968  12.9293561
  88.8110012  44.9354997  18.0739988  89.0040012  44.0044997  17.9619988
  89.6690012  45.3604997  18.0639988  88.9533020  44.8656389  18.0573361
  90.1280012  47.7244997  16.1509988  89.8470012  48.4334997  15.5739988
  91.0710012  47.6514997  15.9999988  90.2169027  47.8117646  16.0515551
  80.8800012  44.5094997  17.2249988  80.1130012  43.9774997  17.0149988
  81.5590012  44.1994997  16.6249988  80.8667022  44.3947506  17.1151648
  83.6200012  39.1374997  13.2369988  83.5210012  40.0844997  13.1319988
  82.8770012  38.7654997  12.7619988  83.5060564  39.2165902  13.1584560
  84.8840012  43.4594997  16.8009988  84.6480012  43.2394997  17.7029988
  84.1000012  43.2524997  16.2909988  84.7458628  43.4014760  16.8553932
  87.5990012  42.5864997  15.8769988  86.6520012  42.6184997  16.0089988
  87.9120012  41.9614997  16.5299988  87.5115475  42.5063207  15.9834455
  89.2330012  41.2204997  17.8819988  89.1370012  40.2684997  17.8759988
  88.9120012  41.4894997  18.7419988  89.1764070  41.1264035  17.9975441
  79.0600012  42.4304997  16.9289988  79.2720012  41.7234997  16.3189988
  78.9490012  41.9924997  17.7729988  79.0739721  42.2747084  16.9596843
  83.8410012  38.4314997  15.9089988  84.5530012  37.7914997  15.8949988
  83.7400012  38.6984997  14.9949988  83.9247939  38.3799938  15.7835650
  84.1950012  40.1144997  17.9619988  84.0630012  39.6384997  17.1419988
  83.5960012  40.8584997  17.9069988  84.0959071  40.1499618  17.8422886
  83.7410012  56.9974997   1.1389988  84.6740012  57.1554997   1.2819988
  83.4770012  57.6724997   0.5139988  83.8329510  57.1103611   1.0740741
  77.3100012  51.6334997   0.6209988  78.2240012  51.7124997   0.8949988
  77.3170012  50.9464997  -0.0450012  77.4361131  51.5513961   0.5684393
  75.9590012  57.0264997   5.6989988  75.3120012  56.5644997   5.1659988
  76.3130012  56.3544997   6.2809988  75.9183849  56.8724723   5.7047959
  76.8290012  55.1074997   7.5029988  76.4940012  54.2274997   7.6749988
  77.0510012  55.4524997   8.3679988  76.8131783  55.0337500   7.6434208
  94.3770012  55.9164997  10.4839988  94.3560012  56.1014997  11.4229988
  95.0680012  56.4854997  10.1429988  94.4674618  56.0186606  10.5663864
  93.9410012  55.4844997  13.4059988  93.4530012  54.7484997  13.0349988
  94.4900012  55.0904997  14.0839988  93.9484872  55.3306249  13.4469160
  92.3910012  51.2734997  18.0439988  91.5250012  51.1684997  18.4379988
  92.7680012  52.0324997  18.4899988  92.3233308  51.3616900  18.1582393
  93.6920012  49.5304997   3.5579988  94.5420012  49.9514997   3.6849988
  93.6980012  48.7904997   4.1649988  93.8091372  49.4880803   3.6574344
  94.0870012  47.5834997   5.3819988  93.3600012  47.1044997   5.7789988
  94.6680012  47.7894997   6.1139988  94.0659375  47.5457090   5.5354129
  93.8460012  50.3684997  10.3289988  94.6790012  49.9904997  10.0489988
  93.9580012  51.3114997  10.2099988  93.9752647  50.4442218  10.2745487
  92.3320012  53.2464997  12.6359988  91.6850012  53.5714997  13.2619988
  91.8150012  52.8064997  11.9619988  92.1734029  53.2315004  12.6305827
  94.3550012  47.4844997   1.7729988  93.8330012  47.8414997   1.0539988
  94.3220012  48.1594997   2.4509988  94.2791634  47.6245413   1.7663145
  92.7040012  44.7244997   0.3239988  92.8000012  45.3914997  -0.3570012
  92.5640012  43.9084997  -0.1580012  92.6982135  44.7054500   0.1658491
  91.8730012  46.1044997   5.9449988  91.7230012  45.1594997   5.9239988
  91.5200012  46.3854997   6.7879988  91.8046625  46.0130441   6.0562346
  76.9090012  48.1824997   9.9549988  77.0930012  48.1004997   9.0189988
  77.7580012  48.0584997  10.3789988  77.0490139  48.1545003   9.8841455
  92.7300012  48.0744997  15.5829988  93.3130012  47.3404997  15.7749988
  93.2940012  48.8464997  15.6299988  92.8859769  48.0784227  15.6156159
  94.2260012  45.9774997  16.2679988  93.3630012  45.5984997  16.1019988
  94.8310012  45.2384997  16.1939988  94.1895979  45.8258023  16.2352817
  91.9510012  42.1324997  -0.5590012  92.5620012  41.7614997   0.0779988
  91.1150012  41.7114997  -0.3630012  91.9215032  42.0247554  -0.4452965
  91.5840012  43.6874997   4.4069988  91.8640012  42.7804997   4.5309988
  92.3430012  44.1214997   4.0179988  91.7249277  43.6220942   4.3713682
  92.1960012  44.2684997   9.8429988  93.1290012  44.4804997   9.8089988
  91.9610012  44.3704997  10.7649988  92.2918036  44.3112769   9.9629976
  92.2250012  45.0054997  12.6189988  91.3820012  45.2734997  12.9849988
  92.6670012  45.8274997  12.4079988  92.1694158  45.1533291  12.6405491
  76.5060012  43.4534997  16.0959988  77.4260012  43.3314997  16.3319988
  76.0570012  42.7034997  16.4849988  76.5711580  43.3353727  16.1809006
  94.5080012  38.9854997  17.9719988  94.8580012  38.3314997  17.3669988
  94.6550012  39.8224997  17.5329988  94.5758419  39.0091591  17.8297118
  92.1970012  40.9504997   4.4549988  92.3800012  40.5014997   5.2809988
  91.5980012  40.3654997   3.9919988  92.1410202  40.8099975   4.5053275
  77.7270012  41.7654997   8.9869988  78.1730012  40.9734997   9.2889988
  78.1940012  42.4814997   9.4179988  77.8510172  41.7540624   9.0864820
  76.0310012  44.7644997  10.0559988  76.5230012  44.5434997   9.2649988
  76.3940012  45.6054997  10.3369988  76.1473126  44.8478357   9.9857531
  94.0280012  41.0944997  16.3219988  93.1100012  41.3654997  16.2859988
  94.1510012  40.5594997  15.5369988  93.9191066  41.0592892  16.2110487
  94.0640012  41.0174997   0.9829988  94.4760012  40.2964997   0.5079988
  94.7460012  41.6874997   1.0419988  94.2125885  41.0092368   0.9258915
  76.3450012  41.0224997   4.1099988  75.4200012  41.2314997   3.9809988
  76.7990012  41.5064997   3.4209988  76.2797368  41.1165993   3.9991226
  91.1160012  56.0064997   6.0559988  91.7680012  55.6594997   5.4479988
  91.6260012  56.4954997   6.7019988  91.2742637  56.0250597   6.0600236
  76.3090012  39.7604997  12.4549988  75.6440012  39.5144997  13.0979988
  75.8660012  40.3824997  11.8769988  76.1580956  39.8108632  12.4649352
  78.5010012  52.9354997  16.5989988  77.6800012  53.1104997  16.1389988
  78.2480012  52.8624997  17.5199988  78.3546164  52.9495622  16.6604923
  81.4550012  53.9104997  12.8579988  81.0300012  54.7194997  12.5749988
  82.3590012  53.9954997  12.5559988  81.5190271  54.0328469  12.7783776
  85.7660012  55.3094997  15.8169988  85.9510012  54.9754997  16.6949988
  86.6120012  55.6184997  15.4949988  85.9057539  55.3056047  15.8935605
  88.1110012  56.5954997  15.0609988  88.7880012  55.9624997  14.8209988
  88.4330012  56.9964997  15.8679988  88.2471637  56.5631154  15.1372793
  93.0280012  39.1844997  14.1409988  92.2160012  39.5094997  13.7529988
  93.2610012  38.4244997  13.6079988  92.9483423  39.1262436  14.0158253
  78.8570012  57.1664997  12.9049988  78.1360012  57.6064997  12.4539988
  78.4910012  56.9154997  13.7539988  78.7089804  57.1927698  12.9579840
  81.3240012  56.7664997  11.9349988  80.4590012  56.8384997  12.3389988
  81.2690012  57.3134997  11.1509988  81.1982085  56.8502685  11.8843362
  86.0340012  56.6544997  11.1099988  85.5780012  57.1834997  10.4559988
  86.1970012  57.2574997  11.8359988  85.9935585  56.8084468  11.1185062
  88.3620012  55.5324997  12.0549988  87.4570012  55.6974997  11.7899988
  88.7910012  56.3854997  11.9899988  88.2960799  55.6704483  12.0099182
  90.9660012  57.1024997  12.3499988  90.7840012  58.0184997  12.1399988
  91.1430012  56.6924997  11.5039988  90.9650210  57.1724822  12.2067885
  78.2710012  55.7894997   9.8149988  78.2530012  55.3644997  10.6729988
  79.0760012  55.4714997   9.4069988  78.3773875  55.6883812   9.8771655
  80.4130012  54.4994997   8.4699988  80.1940012  53.5834997   8.6399988
  81.2370012  54.6394997   8.9359988  80.4944420  54.3930520   8.5562774
  82.9500012  54.9694997   9.3189988  83.1630012  54.0814997   9.0319988
  83.0140012  54.9354997  10.2729988  82.9878232  54.8433102   9.4087397
  86.4580012  40.6334997   8.4629988  85.7840012  40.0044997   8.7189988
  87.0220012  40.1494997   7.8599988  86.4419230  40.4818744   8.4165340
  91.6010012  38.7414997   8.5759988  92.2050012  39.2884997   8.0739988
  90.7310012  39.0604997   8.3359988  91.5661241  38.8595806   8.4747654
  93.3280012  39.8794997   6.9089988  93.9400012  39.3654997   6.3829988
  93.7100012  40.7574997   6.9329988  93.4634540  39.9277140   6.8401830
  78.7850012  39.2674997   6.2849988  78.0080012  39.0334997   5.7779988
  79.3150012  38.4704997   6.2939988  78.7502330  39.1276988   6.2167742
  77.6210012  39.0654997   2.0889988  78.0600012  39.6764997   1.4969988
  76.9880012  39.6034997   2.5629988  77.5954514  39.2219257   2.0720930
  83.3640012  39.1944997   6.0989988  84.2390012  39.5824997   6.0689988
  83.2280012  38.9794997   7.0209988  83.4653695  39.2185184   6.2196440
  88.9210012  39.2244997   7.7479988  88.9970012  39.3194997   6.7979988
  88.6460012  38.3164997   7.8769988  88.8942321  39.1147867   7.6355079
  90.2740012  39.2504997   3.4399988  89.5720012  39.8654997   3.2309988
  89.8300012  38.4124997   3.5709988  90.1176330  39.2215783   3.4290328
  77.5220012  55.0134997   2.9869988  76.8370012  54.9754997   2.3189988
  77.5260012  55.9264997   3.2749988  77.4288193  55.1317016   2.9345284
  79.4820012  40.9814997   0.5309988  79.9740012  40.3514997   0.0039988
  80.1060012  41.2774997   1.1949988  79.6335446  40.9353199   0.5485980
  84.5080012  41.2744997   2.9879988  84.6860012  40.6284997   3.6709988
  84.4550012  42.1084997   3.4559988  84.5251829  41.2987985   3.1445940
  86.3870012  56.2234997   1.3839988  87.2530012  56.5894997   1.2059988
  86.1400012  55.7834997   0.5699988  86.4722392  56.2141756   1.2496289
  93.0960012  55.7864997   4.0629988  92.9010012  55.0384997   3.4979988
  93.0570012  56.5444997   3.4799988  93.0640380  55.7866099   3.9068384
  78.7430012  39.7814997  15.8029988  78.3770012  39.0164997  16.2459988
  79.6560012  39.8104997  16.0899988  78.8162790  39.6807224  15.9024070
  80.7160012  39.1324997  17.3389988  81.6140012  38.8584997  17.1539988
  80.3290012  38.3894997  17.8029988  80.7866612  38.9945914  17.3763643
  79.3400012  55.9334997   0.0119988  79.0730012  56.2204997   0.8849988
  80.1120012  55.3874997   0.1639988  79.4077488  55.8990294   0.1521050
  89.1370012  38.4644997  17.5209988  89.2140012  38.0384997  18.3749988
  90.0310012  38.4784997  17.1779988  89.2683428  38.4080879  17.5915310
  92.3130012  54.5374997  16.2129988  91.5310012  54.3514997  15.6939988
  92.2410012  55.4664997  16.4309988  92.1961777  54.6376492  16.1714048
 106.7190012  48.4234997   6.2439988 106.8080012  49.3674997   6.1119988
 106.0810012  48.1484997   5.5859988 106.6449081  48.5154830   6.1369614
 105.6520012  47.6784997   9.6629988 105.6140012  47.0324997  10.3679988
 105.3300012  47.2124997   8.8919988 105.6032333  47.5269408   9.6552978
  98.0210012  47.2934997  11.2559988  98.0620012  46.6674997  11.9789988
  98.7240012  47.9174997  11.4379988  98.1216363  47.2921196  11.3796044
 109.3580012  50.6174997   7.9639988 108.9180012  49.8974997   8.4149988
 109.3450012  51.3384997   8.5939988 109.2960226  50.6163731   8.1108494
  98.9440012  51.7434997   9.7909988  98.5750012  50.9414997   9.4209988
  99.8850012  51.5744997   9.8369988  99.0207289  51.6110153   9.7466316
  95.5540012  45.4034997   5.1839988  95.1070012  46.2494997   5.1649988
  94.9930012  44.8234997   4.6679988  95.4169900  45.4409916   5.1116801
  96.2650012  47.5654997   7.3099988  96.4780012  46.7954997   7.8369988
  97.0030012  47.6544997   6.7059988  96.3938496  47.4721394   7.3005300
 106.4700012  55.7224997   8.1769988 107.0900012  55.0454997   7.9029988
 106.2620012  55.5044997   9.0849988 106.5266904  55.6003870   8.2623365
 104.0420012  50.1114997  10.0689988 104.3460012  49.4254997   9.4739988
 104.7630012  50.2294997  10.6869988 104.1810671  50.0336305  10.0711816
 112.7050012  41.7124997  10.9299988 112.7540012  42.3224997  11.6659988
 113.1300012  42.1734997  10.2069988 112.7691824  41.8583741  10.9330205
 107.1830012  44.5054997  10.3969988 107.3250012  43.5594997  10.4169988
 107.0760012  44.7124997   9.4679988 107.1879864  44.4039534  10.2742339
 100.3370012  42.6064997   7.6689988 100.3810012  43.4664997   7.2509988
  99.8800012  42.0544997   7.0349988 100.2812185  42.6495799   7.5260299
 108.0600012  42.7374997   6.0699988 108.7060012  42.4084997   6.6949988
 108.5700012  43.2554997   5.4469988 108.2174264  42.7624611   6.0713862
  96.9580012  45.0034997   8.4309988  97.6110012  44.4534997   8.8629988
  96.9820012  44.7294997   7.5139988  97.0506683  44.8911466   8.3662123
 102.1140012  46.5534997   7.6459988 102.7300012  46.0274997   8.1559988
 101.5280012  45.9134997   7.2429988 102.1190810  46.3949208   7.6613173
 113.0960012  43.1904997  13.1659988 112.4080012  43.8484997  13.0699988
 113.1120012  42.9934997  14.1019988 113.0038525  43.2540462  13.2794808
  99.1480012  41.5244997  11.7429988  98.9290012  42.0544997  10.9769988
  98.4800012  41.7514997  12.3899988  99.0277600  41.6276906  11.7256379
 106.5170012  51.0244997   5.2869988 106.2210012  50.7024997   4.4359988
 106.1920012  51.9244997   5.3279988 106.4326371  51.1020215   5.1761801
 101.7170012  49.2004997  12.0299988 100.9770012  49.7984997  12.1339988
 102.4310012  49.7544997  11.7149988 101.7122237  49.3572831  12.0016465
 109.8240012  42.0284997   8.0499988 109.6080012  41.2624997   8.5829988
 110.4790012  42.5004997   8.5629988 109.8830632  41.9875889   8.1922861
  98.7410012  43.4164997   9.6949988  99.3550012  44.0494997  10.0689988
  99.2530012  42.9444997   9.0389988  98.8942296  43.4392370   9.6574252
 100.1240012  51.1644997  12.8179988 100.1190012  52.0444997  12.4399988
  99.2710012  51.0814997  13.2429988 100.0079464  51.2736117  12.8237907
  96.2450012  50.8354997   3.5999988  95.9730012  51.0644997   2.7109988
  96.2910012  51.6734997   4.0599988  96.2140094  50.9801213   3.5405697
 109.8700012  52.4574997  10.3119988 108.9290012  52.5154997  10.4739988
 110.1470012  53.3634997  10.1749988 109.7784679  52.5879443  10.3156815
 110.1710012  40.7434997  11.7299988 109.4350012  41.3544997  11.6919988
 110.8540012  41.1584997  11.2029988 110.1626541  40.8831374  11.6535832
 103.1740012  38.8304997   9.1959988 103.0570012  37.8814997   9.1409988
 102.3190012  39.1624997   9.4689988 103.0423733  38.7455409   9.2253897
 108.1220012  54.2384997   6.9379988 108.5480012  53.5314997   6.4529988
 108.4390012  55.0394997   6.5209988 108.2231019  54.2500994   6.8153130
 109.2820012  52.1394997   5.4459988 109.0240012  51.4494997   4.8349988
 109.3530012  51.6964997   6.2919988 109.2562856  51.9852124   5.4766885
 110.9680012  50.7054997  13.9239988 111.1080012  50.1144997  13.1839988
 111.1350012  51.5784997  13.5669988 111.0096778  50.7426426  13.7746965
 105.4410012  47.6674997   3.6959988 104.7290012  48.2024997   3.3439988
 106.1320012  47.7234997   3.0359988 105.4370132  47.7482543   3.5586289
 105.4940012  46.1254997   0.7349988 106.1950012  46.1474997   1.3859988
 105.7970012  45.4974997   0.0789988 105.6307830  46.0436566   0.7353711
 112.8100012  47.0454997  11.9899988 112.1570012  47.7404997  12.0789988
 113.2750012  47.2554997  11.1799988 112.7835390  47.1689425  11.8926883
 108.8460012  47.8774997   4.6479988 108.1140012  48.1054997   5.2209988
 109.2940012  47.1634997   5.1029988 108.8063095  47.8122571   4.7879119
 108.7440012  46.0514997  13.7149988 108.8240012  46.8144997  14.2869988
 108.1420012  46.3304997  13.0249988 108.6735756  46.1937134  13.7000589
 100.4920012  48.5074997   6.5299988 100.1610012  48.1374997   5.7119988
 101.0800012  47.8374997   6.8769988 100.5261873  48.3661156   6.4648102
 101.8580012  51.9354997   9.2119988 101.7640012  51.3574997   8.4549988
 102.5880012  51.5644997   9.7079988 101.9437981  51.8062390   9.1754165
 100.8580012  47.2764997  10.1639988 101.4240012  47.3974997   9.4009988
 101.1770012  47.9134997  10.8029988 100.9785786  47.3791884  10.1460040
 107.1670012  52.7794997  10.8979988 106.9270012  53.4414997  11.5459988
 106.9690012  51.9454997  11.3229988 107.1073808  52.7573134  11.0441524
 101.7380012  51.6754997  14.8809988 101.4270012  52.4574997  15.3359988
 101.0880012  51.5224997  14.1949988 101.6075558  51.7619105  14.8505871
 107.7170012  47.0394997   2.3329988 108.2970012  47.1894997   3.0799988
 108.1310012  47.5104997   1.6099988 107.8522831  47.1236841   2.3374134
  98.6580012  47.8734997  14.1099988  98.7290012  48.5244997  14.8079988
  97.7680012  47.9764997  13.7749988  98.5473117  47.9765936  14.1602700
 105.4440012  53.7764997   5.7679988 105.9180012  54.0714997   6.5459988
 104.8810012  54.5144997   5.5349988 105.4327653  53.9166932   5.8430136
  99.9780012  53.7474997  15.6439988  99.9850012  53.6114997  14.6969988
  99.0620012  53.6294997  15.8959988  99.8551714  53.7129430  15.5484666
 111.4160012  38.7894997   2.1459988 110.5160012  38.9284997   2.4409988
 111.6680012  39.6204997   1.7439988 111.3268702  38.9209074   2.1320205
  99.4820012  47.5774997   4.1199988  99.1900012  48.3454997   3.6289988
  98.8080012  46.9174997   3.9569988  99.3509081  47.5934406   4.0307340
 112.6050012  53.1554997   0.5219988 112.6790012  54.0944997   0.6929988
 113.5110012  52.8504997   0.4659988 112.7375100  53.2426722   0.5378119
  95.5750012  49.9404997  12.9349988  95.0740012  49.9124997  12.1199988
  95.5800012  49.0344997  13.2439988  95.5071526  49.8142278  12.8652872
  95.3250012  52.7204997   9.8189988  96.2710012  52.5764997   9.7999988
  95.2130012  53.5044997  10.3559988  95.4392727  52.8068046   9.8890072
 113.5230012  53.3864997  15.5009988 113.4740012  52.4314997  15.4639988
 112.6960012  53.6544997  15.9019988 113.4044940  53.2918998  15.5501375
 104.5020012  52.9604997  14.3769988 104.5890012  53.7864997  14.8519988
 103.6380012  52.6304997  14.6259988 104.3971964  53.0289878  14.4756549
 104.9160012  56.7324997   4.1829988 104.8410012  56.6114997   3.2369988
 104.9490012  57.6824997   4.3019988 104.9101848  56.8442500   4.0694834
  98.5690012  55.5214997   5.9639988  98.7220012  55.1734997   6.8429988
  97.7190012  55.1654997   5.7089988  98.4748962  55.4256650   6.0498340
 108.0180012  55.8864997   1.1849988 108.3930012  55.1424997   0.7149988
 108.0220012  55.6164997   2.1039988 108.0698915  55.7481486   1.2447824
 107.6870012  55.8124997   3.9349988 106.7510012  55.9124997   4.1129988
 107.9670012  55.1034997   4.5129988 107.5968255  55.7302711   4.0375391
 110.6750012  44.8794997  15.9809988 110.2680012  45.3604997  15.2599988
 110.7160012  43.9744997  15.6729988 110.6248437  44.8229374  15.8406683
  97.8240012  51.2634997  13.9779988  98.0400012  50.9024997  14.8369988
  96.9690012  50.8894997  13.7679988  97.7379292  51.1634111  14.0673386
 100.4430012  39.7334997   9.9729988  99.5810012  39.6464997   9.5659988
 100.4200012  40.5894997  10.4009988 100.3220330  39.8372765   9.9751863
 105.1060012  39.4554997  13.3479988 105.5260012  39.0404997  14.1009988
 104.1730012  39.2774997  13.4649988 105.0373644  39.3745900  13.4669539
 108.4320012  43.2114997  14.2009988 107.9180012  43.0854997  14.9989988
 108.2770012  44.1234997  13.9569988 108.3406852  43.3176132  14.2772158
 109.1950012  48.0724997  -0.0370012 109.2370012  47.8494997  -0.9670012
 110.0440012  48.4714997   0.1529988 109.3155396  48.0959155  -0.1386373
 104.7670012  41.9484997   0.6329988 104.5140012  41.9674997   1.5559988
 104.5110012  41.0764997   0.3319988 104.6977790  41.8332437   0.7186263
 100.5340012  44.6994997  11.0679988  99.8920012  44.6584997  11.7769988
 100.5710012  45.6254997  10.8309988 100.4511324  44.8191559  11.1329824
 100.5310012  44.9204997   5.9799988  99.6380012  44.5794997   5.9219988
 100.9810012  44.5434997   5.2249988 100.4697305  44.8228484   5.8699177
 106.0660012  45.3364997   4.7969988 105.6570012  46.1514997   4.5059988
 106.7870012  45.1964997   4.1829988 106.1074537  45.4292018   4.6741342
 105.1680012  45.5114997  16.2849988 104.6060012  44.8074997  16.6059988
 105.9950012  45.3914997  16.7529988 105.2027095  45.3987883  16.3922330
 107.0710012  44.7824997   7.6109988 106.8760012  45.3874997   6.8959988
 107.2520012  43.9484997   7.1769988 107.0687614  44.7526300   7.4544405
  98.2840012  45.0194997  12.9349988  98.2460012  45.4194997  13.8039988
  97.7930012  44.2024997  13.0259988  98.2124684  44.9638069  13.0661059
 101.6500012  42.3934997  -0.2660012 101.2190012  41.9484997   0.4639988
 100.9320012  42.7654997  -0.7780012 101.4939438  42.3828940  -0.2353201
  94.8920012  42.1354997   6.7859988  95.5230012  42.1064997   7.5049988
  95.3410012  41.7104997   6.0559988  95.0390774  42.0740492   6.7856553
  96.1660012  42.8814997   2.2099988  96.6400012  43.4724997   1.6249988
  95.4490012  43.4124997   2.5569988  96.1339341  43.0340867   2.1768836
 106.3350012  46.4204997  12.2829988 106.6580012  45.7894997  11.6399988
 105.8950012  45.8854997  12.9429988 106.3196895  46.2618441  12.2842850
 103.1120012  42.3474997   7.0669988 102.2010012  42.4044997   7.3549988
 103.6180012  42.2874997   7.8769988 103.0555413  42.3471985   7.2160622
  97.9410012  43.9764997   5.8929988  97.0510012  44.0764997   5.5529988
  98.2370012  43.1344997   5.5469988  97.8592823  43.8763545   5.7997213
 101.5940012  43.9764997   3.5499988 102.5250012  44.1054997   3.7279988
 101.3790012  44.6464997   2.8999988 101.6924247  44.0846565   3.4865747
 107.5170012  41.5824997  10.3309988 106.8410012  41.7134997  10.9949988
 107.0320012  41.4274997   9.5209988 107.3587145  41.5794905  10.3124517
 100.2680012  45.1714997   1.1169988  99.7250012  44.7914997   0.4249988
 101.1010012  45.3654997   0.6879988 100.3064399  45.1458124   0.9644526
 110.8050012  57.2544997  16.6079988 111.0050012  57.6784997  15.7729988
 111.4600012  57.5974997  17.2149988 110.9210051  57.3589648  16.5757836
  98.4030012  49.7284997  16.2159988  99.1350012  49.9824997  16.7769988
  97.6230012  49.9324997  16.7309988  98.3978232  49.7909177  16.3625760
 104.4320012  45.1354997   8.9539988 104.9970012  44.5884997   8.4069988
 104.2850012  44.6134997   9.7419988 104.4892918  44.9902024   8.9858454
  99.4340012  41.2714997   5.3719988  99.1170012  40.3694997   5.3369988
 100.2160012  41.2734997   4.8189988  99.4962284  41.1481628   5.2924783
 103.0590012  43.5234997  11.3679988 102.2230012  43.9774997  11.4779988
 103.5830012  43.7994997  12.1199988 103.0154414  43.6229376  11.4847136
 103.6030012  49.7364997   3.0519988 102.8580012  49.2294997   2.7299988
 103.4690012  49.7854997   3.9989988 103.4828776  49.6736940   3.1358647
 110.7530012  48.8694997  11.8389988 111.3950012  49.3264997  11.2949988
 109.9230012  48.9824997  11.3759988 110.7285963  48.9472704  11.7020177
 107.5010012  42.5504997   1.2519988 106.5620012  42.6624997   1.0999988
 107.7980012  43.4074997   1.5579988 107.4127666  42.6816443   1.2725768
 105.1220012  49.9204997  14.2889988 104.7770012  49.5394997  15.0959988
 104.9220012  50.8544997  14.3609988 105.0478061  49.9945228  14.4090961
 108.2190012  44.4174997   2.9119988 109.1110012  44.2804997   3.2309988
 108.2760012  45.2084997   2.3759988 108.3486285  44.5056660   2.8831690
  98.7280012  49.0314997   8.8219988  99.4730012  49.0294997   8.2209988
  98.8060012  48.2084997   9.3039988  98.8405518  48.9199315   8.8048929
 105.7290012  51.1954997   2.0779988 105.4330012  52.0214997   2.4589988
 105.0260012  50.5754997   2.2739988 105.5934914  51.2248199   2.1566443
  95.7360012  47.4924997  14.1369988  95.9590012  47.0744997  14.9689988
  95.1340012  46.8794997  13.7139988  95.6851759  47.3524668  14.1937022
 102.7520012  47.0094997  16.3499988 102.4560012  46.8434997  15.4549988
 103.6840012  46.7894997  16.3389988 102.8374166  46.9570640  16.2260536
 107.3730012  52.3824997  14.2399988 106.4720012  52.5654997  13.9719988
 107.4070012  52.6414997  15.1609988 107.2543041  52.4425512  14.3278197
 113.1040012  44.6274997   2.6069988 112.5500012  44.2314997   1.9349988
 113.2040012  45.5374997   2.3289988 113.0417059  44.6963586   2.4774401
 113.0670012  50.4274997  15.4439988 112.2160012  50.6654997  15.0769988
 113.6580012  50.4104997  14.6909988 113.0302487  50.4578258  15.2918893
 111.3990012  53.4134997   3.0719988 111.0260012  52.5874997   3.3809988
 111.6770012  53.2304997   2.1749988 111.3855630  53.2757303   2.9929626
 108.5600012  48.2214997  10.0929988 107.6310012  47.9894997  10.0659988
 109.0110012  47.4444997   9.7629988 108.4939216  48.0847238  10.0446917
 101.1030012  52.5494997   6.2259988 101.6300012  53.3224997   6.0259988
 100.2230012  52.7744997   5.9249988 101.0561773  52.6858005   6.1579010
  96.8580012  47.4114997   0.8129988  97.4740012  48.0384997   1.1929988
  95.9960012  47.7274997   1.0849988  96.8257698  47.5399430   0.9017183
 102.5300012  50.2124997   5.8029988 102.2890012  51.1374997   5.8439988
 101.7890012  49.7534997   6.1989988 102.3968409  50.2771421   5.8621377
 103.0450012  54.3614997  12.1179988 103.4070012  55.2164997  11.8839988
 103.5760012  54.0694997  12.8579988 103.1664473  54.4391060  12.1860855
 101.2130012  55.2344997   5.3479988 100.2630012  55.3394997   5.3989988
 101.5650012  56.0544997   5.6929988 101.1304203  55.3598314   5.4016650
 106.5890012  50.4604997  11.8179988 106.1630012  50.2334997  12.6449988
 107.1690012  49.7224997  11.6359988 106.6091868  50.3295299  11.9065830
 108.7920012  51.3894997   0.8919988 109.1450012  51.0094997   1.6969988
 107.8430012  51.2964997   0.9789988 108.7120441  51.3249596   1.0138559
 109.2470012  55.0124997  14.2879988 108.6460012  54.4574997  13.7919988
 109.5290012  55.6794997  13.6619988 109.2028519  55.0266841  14.1354952
 113.2950012  55.8694997   1.0929988 114.0390012  56.4554997   0.9529988
 112.6010012  56.4374997   1.4269988 113.3030292  56.0265582   1.1189961
  97.3700012  42.2454997  13.6949988  96.4770012  42.5844997  13.6269988
  97.2710012  41.3904997  14.1129988  97.2344164  42.1762588  13.7422235
 109.6580012  50.0624997   3.1189988 109.3800012  49.3344997   3.6749988
 110.5850012  50.1814997   3.3239988 109.7453124  49.9788802   3.2228845
  97.0210012  54.0504997  12.1299988  97.2380012  53.1184997  12.0989988
  97.2670012  54.3244997  13.0129988  97.0839549  53.9600636  12.2451763
 102.8830012  52.5014997  -0.6610012 103.1220012  51.7534997  -1.2080012
 102.6140012  52.1134997   0.1719988 102.8793675  52.3466638  -0.6233135
 101.8200012  52.0714997   1.7959988 101.9660012  51.5514997   2.5859988
 101.8170012  52.9784997   2.1019988 101.8395989  52.1228853   1.9456088
  98.2730012  49.3244997   2.3059988  97.5870012  49.6764997   2.8729988
  98.7950012  50.0874997   2.0589988  98.2496852  49.4758578   2.3502118
 106.1040012  41.9864997  12.5849988 106.8030012  42.0604997  13.2349988
 105.7230012  41.1224997  12.7389988 106.1481767  41.8797624  12.6948322
 106.8890012  41.6384997   3.6819988 107.1090012  42.1104997   2.8789988
 107.4470012  42.0334997   4.3519988 106.9944968  41.7564285   3.6627331
 104.5570012  53.7694997   2.5449988 103.7410012  54.2664997   2.5969988
 105.0870012  54.2444997   1.9049988 104.5169161  53.9017722   2.4655956
 104.0890012  43.3664997   4.5169988 104.9010012  43.8714997   4.5629988
 103.8440012  43.2214997   5.4309988 104.1670520  43.4160375   4.6468517
 104.6240012  44.3524997  13.7019988 104.7430012  44.9264997  14.4589988
 105.2800012  43.6644997  13.8159988 104.7289757  44.3381079  13.8210825
 104.9720012  40.4474997   5.4549988 104.6260012  41.0654997   6.0999988
 105.6310012  40.9484997   4.9739988 105.0137826  40.5995802   5.4780971
 101.8960012  54.8134997   2.5269988 102.0560012  55.6124997   2.0259988
 101.6980012  55.1194997   3.4119988 101.8911649  54.9644469   2.5779815
 100.6300012  41.5104997   2.1419988 100.5470012  42.3994997   2.4889988
 101.5200012  41.2454997   2.3739988 100.7389469  41.5961430   2.2207626
 110.8290012  42.2594997  14.5369988 109.9120012  42.5224997  14.4489988
 111.1640012  42.2564997  13.6399988 110.7489900  42.2950224  14.4037919
 109.4310012  46.0104997   8.6319988 108.6330012  45.5954997   8.3039988
 109.8760012  45.3194997   9.1229988 109.3819885  45.8603543   8.6534889
  98.8890012  51.9384997   1.2029988  99.4810012  52.6374997   1.4789988
  99.3480012  51.5054997   0.4829988  99.0321142  51.9757049   1.1434830
  97.2050012  44.6024997   0.3189988  97.1600012  45.5414997   0.4969988
  96.3170012  44.3664997   0.0489988  97.0788574  44.6991892   0.3068912
 110.5170012  55.2664997  10.2549988 110.3620012  55.9444997   9.5979988
 111.4500012  55.3384997  10.4579988 110.6218500  55.3690170  10.1925119
  98.0130012  39.3844997   8.9919988  97.7840012  39.4434997   8.0639988
  97.5700012  38.5924997   9.2979988  97.9218530  39.2855753   8.9064786
  96.9430012  53.3244997   5.1519988  96.1110012  53.7974997   5.1799988
  97.4890012  53.8344997   4.5539988  96.9029739  53.4581871   5.0749716
  96.2310012  55.9374997  16.4819988  96.7720012  55.7204997  17.2419988
  95.7500012  55.1314997  16.2929988  96.2399345  55.7989514  16.5603076
 100.8290012  54.8564997  18.1029988 101.5960012  54.3974997  18.4439988
 100.8070012  54.6304997  17.1729988 100.9311434  54.7630409  18.0240043
 104.9210012  54.3644997  -0.5220012 104.2770012  53.7334997  -0.2010012
 105.6830012  53.8334997  -0.7540012 104.9358077  54.2062920  -0.5093989
 107.4060012  53.2364997  16.8319988 107.0550012  52.3804997  17.0749988
 108.1320012  53.3794997  17.4389988 107.4560769  53.1385636  16.9473619
 109.5250012  54.1814997  -0.2880012 109.8080012  53.3874997   0.1639988
 110.2650012  54.4144997  -0.8490012 109.6637486  54.1042803  -0.3019302
  96.1380012  49.7474997  17.4369988  96.2820012  48.8454997  17.1499988
  95.3660012  50.0334997  16.9489988  96.0533322  49.6628261  17.3317881
 100.4800012  50.0914997  -0.4310012 100.5440012  49.2974997   0.0999988
 101.1330012  49.9724997  -1.1210012 100.5770241  49.9667148  -0.4515683
 102.7940012  49.7174997  16.8689988 102.4650012  49.9884997  16.0119988
 102.9460012  48.7764997  16.7819988 102.7694809  49.6273862  16.7398244
 105.8320012  51.1384997  -0.6950012 105.5630012  51.3184997   0.2059988
 105.6260012  50.2124997  -0.8260012 105.7673825  51.0380152  -0.5894786
 108.5280012  49.6334997  14.2529988 109.2740012  50.2214997  14.1329988
 107.7710012  50.2154997  14.3159988 108.5277554  49.7927011  14.2450907
  96.9710012  46.9474997  16.8569988  97.3790012  46.0904997  16.7359988
  96.7110012  46.9624997  17.7779988  96.9917568  46.8320807  16.9649588
 101.6290012  48.0634997   1.8749988 101.1690012  47.5794997   2.5609988
 101.8840012  47.3954997   1.2389988 101.6004902  47.9068731   1.8829334
 100.9180012  45.9564997  14.2309988 100.3000012  46.6314997  14.5109988
 101.2620012  46.2774997  13.3979988 100.8799615  46.0922721  14.1566581
 102.7000012  46.3064997   0.1369988 102.5200012  46.1524997  -0.7900012
 103.6500012  46.4144997   0.1819988 102.8037776  46.3000175   0.0161843
 105.9380012  48.4284997  17.5079988 106.8910012  48.5114997  17.4809988
 105.7770012  47.7164997  18.1279988 106.0466426  48.3436746  17.5880579
 112.0900012  48.6614997  -0.4170012 111.8160012  48.2364997  -1.2300012
 112.1290012  49.5924997  -0.6340012 112.0577699  48.7292484  -0.5576390
 101.2570012  43.3114997  15.3129988 101.4070012  42.5824997  14.7109988
 101.2600012  44.0884997  14.7539988 101.2779302  43.3167851  15.1550692
 101.6700012  41.6814997  12.8059988 102.2060012  42.1324997  12.1539988
 100.8180012  41.5734997  12.3829988 101.6282178  41.7286390  12.6595756
 103.2520012  47.1204997  13.0449988 104.0020012  46.9644997  12.4719988
 102.9130012  47.9724997  12.7699988 103.3088921  47.2142968  12.9293561
 107.6670012  44.9354997  18.0739988 107.8600012  44.0044997  17.9619988
 108.5250012  45.3604997  18.0639988 107.8093020  44.8656389  18.0573361
 108.9840012  47.7244997  16.1509988 108.7030012  48.4334997  15.5739988
 109.9270012  47.6514997  15.9999988 109.0729027  47.8117646  16.0515551
  99.7360012  44.5094997  17.2249988  98.9690012  43.9774997  17.0149988
 100.4150012  44.1994997  16.6249988  99.7227022  44.3947506  17.1151648
 102.4760012  39.1374997  13.2369988 102.3770012  40.0844997  13.1319988
 101.7330012  38.7654997  12.7619988 102.3620564  39.2165902  13.1584560
 103.7400012  43.4594997  16.8009988 103.5040012  43.2394997  17.7029988
 102.9560012  43.2524997  16.2909988 103.6018628  43.4014760  16.8553932
 106.4550012  42.5864997  15.8769988 105.5080012  42.6184997  16.0089988
 106.7680012  41.9614997  16.5299988 106.3675475  42.5063207  15.9834455
 108.0890012  41.2204997  17.8819988 107.9930012  40.2684997  17.8759988
 107.7680012  41.4894997  18.7419988 108.0324070  41.1264035  17.9975441
  97.9160012  42.4304997  16.9289988  98.1280012  41.7234997  16.3189988
  97.8050012  41.9924997  17.7729988  97.9299721  42.2747084  16.9596843
 102.6970012  38.4314997  15.9089988 103.4090012  37.7914997  15.8949988
 102.5960012  38.6984997  14.9949988 102.7807939  38.3799938  15.7835650
 103.0510012  40.1144997  17.9619988 102.9190012  39.6384997  17.1419988
 102.4520012  40.8584997  17.9069988 102.9519071  40.1499618  17.8422886
 102.5970012  56.9974997   1.1389988 103.5300012  57.1554997   1.2819988
 102.3330012  57.6724997   0.5139988 102.6889510  57.1103611   1.0740741
  96.1660012  51.6334997   0.6209988  97.0800012  51.7124997   0.8949988
  96.1730012  50.9464997  -0.0450012  96.2921131  51.5513961   0.5684393
  94.8150012  57.0264997   5.6989988  94.1680012  56.5644997   5.1659988
  95.1690012  56.3544997   6.2809988  94.7743849  56.8724723   5.7047959
  95.6850012  55.1074997   7.5029988  95.3500012  54.2274997   7.6749988
  95.9070012  55.4524997   8.3679988  95.6691783  55.0337500   7.6434208
 113.2330012  55.9164997  10.4839988 113.2120012  56.1014997  11.4229988
 113.9240012  56.4854997  10.1429988 113.3234618  56.0186606  10.5663864
 112.7970012  55.4844997  13.4059988 112.3090012  54.7484997  13.0349988
 113.3460012  55.0904997  14.0839988 112.8044872  55.3306249  13.4469160
 111.2470012  51.2734997  18.0439988 110.3810012  51.1684997  18.4379988
 111.6240012  52.0324997  18.4899988 111.1793308  51.3616900  18.1582393
 112.5480012  49.5304997   3.5579988 113.3980012  49.9514997   3.6849988
 112.5540012  48.7904997   4.1649988 112.6651372  49.4880803   3.6574344
 112.9430012  47.5834997   5.3819988 112.2160012  47.1044997   5.7789988
 113.5240012  47.7894997   6.1139988 112.9219375  47.5457090   5.5354129
 112.7020012  50.3684997  10.3289988 113.5350012  49.9904997  10.0489988
 112.8140012  51.3114997  10.2099988 112.8312647  50.4442218  10.2745487
 111.1880012  53.2464997  12.6359988 110.5410012  53.5714997  13.2619988
 110.6710012  52.8064997  11.9619988 111.0294029  53.2315004  12.6305827
 113.2110012  47.4844997   1.7729988 112.6890012  47.8414997   1.0539988
 113.1780012  48.1594997   2.4509988 113.1351634  47.6245413   1.7663145
 111.5600012  44.7244997   0.3239988 111.6560012  45.3914997  -0.3570012
 111.4200012  43.9084997  -0.1580012 111.5542135  44.7054500   0.1658491
 110.7290012  46.1044997   5.9449988 110.5790012  45.1594997   5.9239988
 110.3760012  46.3854997   6.7879988 110.6606625  46.0130441   6.0562346
  95.7650012  48.1824997   9.9549988  95.9490012  48.1004997   9.0189988
  96.6140012  48.0584997  10.3789988  95.9050139  48.1545003   9.8841455
 111.5860012  48.0744997  15.5829988 112.1690012  47.3404997  15.7749988
 112.1500012  48.8464997  15.6299988 111.7419769  48.0784227  15.6156159
 113.0820012  45.9774997  16.2679988 112.2190012  45.5984997  16.1019988
 113.6870012  45.2384997  16.1939988 113.0455979  45.8258023  16.2352817
 110.8070012  42.1324997  -0.5590012 111.4180012  41.7614997   0.0779988
 109.9710012  41.7114997  -0.3630012 110.7775032  42.0247554  -0.4452965
 110.4400012  43.6874997   4.4069988 110.7200012  42.7804997   4.5309988
 111.1990012  44.1214997   4.0179988 110.5809277  43.6220942   4.3713682
 111.0520012  44.2684997   9.8429988 111.9850012  44.4804997   9.8089988
 110.8170012  44.3704997  10.7649988 111.1478036  44.3112769   9.9629976
 111.0810012  45.0054997  12.6189988 110.2380012  45.2734997  12.9849988
 111.5230012  45.8274997  12.4079988 111.0254158  45.1533291  12.6405491
  95.3620012  43.4534997  16.0959988  96.2820012  43.3314997  16.3319988
  94.9130012  42.7034997  16.4849988  95.4271580  43.3353727  16.1809006
 113.3640012  38.9854997  17.9719988 113.7140012  38.3314997  17.3669988
 113.5110012  39.8224997  17.5329988 113.4318419  39.0091591  17.8297118
 111.0530012  40.9504997   4.4549988 111.2360012  40.5014997   5.2809988
 110.4540012  40.3654997   3.9919988 110.9970202  40.8099975   4.5053275
  96.5830012  41.7654997   8.9869988  97.0290012  40.9734997   9.2889988
  97.0500012  42.4814997   9.4179988  96.7070172  41.7540624   9.0864820
  94.8870012  44.7644997  10.0559988  95.3790012  44.5434997   9.2649988
  95.2500012  45.6054997  10.3369988  95.0033126  44.8478357   9.9857531
 112.8840012  41.0944997  16.3219988 111.9660012  41.3654997  16.2859988
 113.0070012  40.5594997  15.5369988 112.7751066  41.0592892  16.2110487
 112.9200012  41.0174997   0.9829988 113.3320012  40.2964997   0.5079988
 113.6020012  41.6874997   1.0419988 113.0685885  41.0092368   0.9258915
  95.2010012  41.0224997   4.1099988  94.2760012  41.2314997   3.9809988
  95.6550012  41.5064997   3.4209988  95.1357368  41.1165993   3.9991226
 109.9720012  56.0064997   6.0559988 110.6240012  55.6594997   5.4479988
 110.4820012  56.4954997   6.7019988 110.1302637  56.0250597   6.0600236
  95.1650012  39.7604997  12.4549988  94.5000012  39.5144997  13.0979988
  94.7220012  40.3824997  11.8769988  95.0140956  39.8108632  12.4649352
  97.3570012  52.9354997  16.5989988  96.5360012  53.1104997  16.1389988
  97.1040012  52.8624997  17.5199988  97.2106164  52.9495622  16.6604923
 100.3110012  53.9104997  12.8579988  99.8860012  54.7194997  12.5749988
 101.2150012  53.9954997  12.5559988 100.3750271  54.0328469  12.7783776
 104.6220012  55.3094997  15.8169988 104.8070012  54.9754997  16.6949988
 105.4680012  55.6184997  15.4949988 104.7617539  55.3056047  15.8935605
 106.9670012  56.5954997  15.0609988 107.6440012  55.9624997  14.8209988
 107.2890012  56.9964997  15.8679988 107.1031637  56.5631154  15.1372793
 111.8840012  39.1844997  14.1409988 111.0720012  39.5094997  13.7529988
 112.1170012  38.4244997  13.6079988 111.8043423  39.1262436  14.0158253
  97.7130012  57.1664997  12.9049988  96.9920012  57.6064997  12.4539988
  97.3470012  56.9154997  13.7539988  97.5649804  57.1927698  12.9579840
 100.1800012  56.7664997  11.9349988  99.3150012  56.8384997  12.3389988
 100.1250012  57.3134997  11.1509988 100.0542085  56.8502685  11.8843362
 104.8900012  56.6544997  11.1099988 104.4340012  57.1834997  10.4559988
 105.0530012  57.2574997  11.8359988 104.8495585  56.8084468  11.1185062
 107.2180012  55.5324997  12.0549988 106.3130012  55.6974997  11.7899988
 107.6470012  56.3854997  11.9899988 107.1520799  55.6704483  12.0099182
 109.8220012  57.1024997  12.3499988 109.6400012  58.0184997  12.1399988
 109.9990012  56.6924997  11.5039988 109.8210210  57.1724822  12.2067885
  97.1270012  55.7894997   9.8149988  97.1090012  55.3644997  10.6729988
  97.9320012  55.4714997   9.4069988  97.2333875  55.6883812   9.8771655
  99.2690012  54.4994997   8.4699988  99.0500012  53.5834997   8.6399988
 100.0930012  54.6394997   8.9359988  99.3504420  54.3930520   8.5562774
 101.8060012  54.9694997   9.3189988 102.0190012  54.0814997   9.0319988
 101.8700012  54.9354997  10.2729988 101.8438232  54.8433102   9.4087397
 105.3140012  40.6334997   8.4629988 104.6400012  40.0044997   8.7189988
 105.8780012  40.1494997   7.8599988 105.2979230  40.4818744   8.4165340
 110.4570012  38.7414997   8.5759988 111.0610012  39.2884997   8.0739988
 109.5870012  39.0604997   8.3359988 110.4221241  38.8595806   8.4747654
 112.1840012  39.8794997   6.9089988 112.7960012  39.3654997   6.3829988
 112.5660012  40.7574997   6.9329988 112.3194540  39.9277140   6.8401830
  97.6410012  39.2674997   6.2849988  96.8640012  39.0334997   5.7779988
  98.1710012  38.4704997   6.2939988  97.6062330  39.1276988   6.2167742
  96.4770012  39.0654997   2.0889988  96.9160012  39.6764997   1.4969988
  95.8440012  39.6034997   2.5629988  96.4514514  39.2219257   2.0720930
 102.2200012  39.1944997   6.0989988 103.0950012  39.5824997   6.0689988
 102.0840012  38.9794997   7.0209988 102.3213695  39.2185184   6.2196440
 107.7770012  39.2244997   7.7479988 107.8530012  39.3194997   6.7979988
 107.5020012  38.3164997   7.8769988 107.7502321  39.1147867   7.6355079
 109.1300012  39.2504997   3.4399988 108.4280012  39.8654997   3.2309988
 108.6860012  38.4124997   3.5709988 108.9736330  39.2215783   3.4290328
  96.3780012  55.0134997   2.9869988  95.6930012  54.9754997   2.3189988
  96.3820012  55.9264997   3.2749988  96.2848193  55.1317016   2.9345284
  98.3380012  40.9814997   0.5309988  98.8300012  40.3514997   0.0039988
  98.9620012  41.2774997   1.1949988  98.4895446  40.9353199   0.5485980
 103.3640012  41.2744997   2.9879988 103.5420012  40.6284997   3.6709988
 103.3110012  42.1084997   3.4559988 103.3811829  41.2987985   3.1445940
 105.2430012  56.2234997   1.3839988 106.1090012  56.5894997   1.2059988
 104.9960012  55.7834997   0.5699988 105.3282392  56.2141756   1.2496289
 111.9520012  55.7864997   4.0629988 111.7570012  55.0384997   3.4979988
 111.9130012  56.5444997   3.4799988 111.9200380  55.7866099   3.9068384
  97.5990012  39.7814997  15.8029988  97.2330012  39.0164997  16.2459988
  98.5120012  39.8104997  16.0899988  97.6722790  39.6807224  15.9024070
  99.5720012  39.1324997  17.3389988 100.4700012  38.8584997  17.1539988
  99.1850012  38.3894997  17.8029988  99.6426612  38.9945914  17.3763643
  98.1960012  55.9334997   0.0119988  97.9290012  56.2204997   0.8849988
  98.9680012  55.3874997   0.1639988  98.2637488  55.8990294   0.1521050
 107.9930012  38.4644997  17.5209988 108.0700012  38.0384997  18.3749988
 108.8870012  38.4784997  17.1779988 108.1243428  38.4080879  17.5915310
 111.1690012  54.5374997  16.2129988 110.3870012  54.3514997  15.6939988
 111.0970012  55.4664997  16.4309988 111.0521777  54.6376492  16.1714048
 125.5750012  48.4234997   6.2439988 125.6640012  49.3674997   6.1119988
 124.9370012  48.1484997   5.5859988 125.5009081  48.5154830   6.1369614
 124.5080012  47.6784997   9.6629988 124.4700012  47.0324997  10.3679988
 124.1860012  47.2124997   8.8919988 124.4592333  47.5269408   9.6552978
 116.8770012  47.2934997  11.2559988 116.9180012  46.6674997  11.9789988
 117.5800012  47.9174997  11.4379988 116.9776363  47.2921196  11.3796044
 128.2140012  50.6174997   7.9639988 127.7740012  49.8974997   8.4149988
 128.2010012  51.3384997   8.5939988 128.1520226  50.6163731   8.1108494
 117.8000012  51.7434997   9.7909988 117.4310012  50.9414997   9.4209988
 118.7410012  51.5744997   9.8369988 117.8767289  51.6110153   9.7466316
 114.4100012  45.4034997   5.1839988 113.9630012  46.2494997   5.1649988
 113.8490012  44.8234997   4.6679988 114.2729900  45.4409916   5.1116801
 115.1210012  47.5654997   7.3099988 115.3340012  46.7954997   7.8369988
 115.8590012  47.6544997   6.7059988 115.2498496  47.4721394   7.3005300
 125.3260012  55.7224997   8.1769988 125.9460012  55.0454997   7.9029988
 125.1180012  55.5044997   9.0849988 125.3826904  55.6003870   8.2623365
 122.8980012  50.1114997  10.0689988 123.2020012  49.4254997   9.4739988
 123.6190012  50.2294997  10.6869988 123.0370671  50.0336305  10.0711816
 131.5610012  41.7124997  10.9299988 131.6100012  42.3224997  11.6659988
 131.9860012  42.1734997  10.2069988 131.6251824  41.8583741  10.9330205
 126.0390012  44.5054997  10.3969988 126.1810012  43.5594997  10.4169988
 125.9320012  44.7124997   9.4679988 126.0439864  44.4039534  10.2742339
 119.1930012  42.6064997   7.6689988 119.2370012  43.4664997   7.2509988
 118.7360012  42.0544997   7.0349988 119.1372185  42.6495799   7.5260299
 126.9160012  42.7374997   6.0699988 127.5620012  42.4084997   6.6949988
 127.4260012  43.2554997   5.4469988 127.0734264  42.7624611   6.0713862
 115.8140012  45.0034997   8.4309988 116.4670012  44.4534997   8.8629988
 115.8380012  44.7294997   7.5139988 115.9066683  44.8911466   8.3662123
 120.9700012  46.5534997   7.6459988 121.5860012  46.0274997   8.1559988
 120.3840012  45.9134997   7.2429988 120.9750810  46.3949208   7.6613173
 131.9520012  43.1904997  13.1659988 131.2640012  43.8484997  13.0699988
 131.9680012  42.9934997  14.1019988 131.8598525  43.2540462  13.2794808
 118.0040012  41.5244997  11.7429988 117.7850012  42.0544997  10.9769988
 117.3360012  41.7514997  12.3899988 117.8837600  41.6276906  11.7256379
 125.3730012  51.0244997   5.2869988 125.0770012  50.7024997   4.4359988
 125.0480012  51.9244997   5.3279988 125.2886371  51.1020215   5.1761801
 120.5730012  49.2004997  12.0299988 119.8330012  49.7984997  12.1339988
 121.2870012  49.7544997  11.7149988 120.5682237  49.3572831  12.0016465
 128.6800012  42.0284997   8.0499988 128.4640012  41.2624997   8.5829988
 129.3350012  42.5004997   8.5629988 128.7390632  41.9875889   8.1922861
 117.5970012  43.4164997   9.6949988 118.2110012  44.0494997  10.0689988
 118.1090012  42.9444997   9.0389988 117.7502296  43.4392370   9.6574252
 118.9800012  51.1644997  12.8179988 118.9750012  52.0444997  12.4399988
 118.1270012  51.0814997  13.2429988 118.8639464  51.2736117  12.8237907
 115.1010012  50.8354997   3.5999988 114.8290012  51.0644997   2.7109988
 115.1470012  51.6734997   4.0599988 115.0700094  50.9801213   3.5405697
 128.7260012  52.4574997  10.3119988 127.7850012  52.5154997  10.4739988
 129.0030012  53.3634997  10.1749988 128.6344679  52.5879443  10.3156815
 129.0270012  40.7434997  11.7299988 128.2910012  41.3544997  11.6919988
 129.7100012  41.1584997  11.2029988 129.0186541  40.8831374  11.6535832
 122.0300012  38.8304997   9.1959988 121.9130012  37.8814997   9.1409988
 121.1750012  39.1624997   9.4689988 121.8983733  38.7455409   9.2253897
 126.9780012  54.2384997   6.9379988 127.4040012  53.5314997   6.4529988
 127.2950012  55.0394997   6.5209988 127.0791019  54.2500994   6.8153130
 128.1380012  52.1394997   5.4459988 127.8800012  51.4494997   4.8349988
 128.2090012  51.6964997   6.2919988 128.1122856  51.9852124   5.4766885
 129.8240012  50.7054997  13.9239988 129.9640012  50.1144997  13.1839988
 129.9910012  51.5784997  13.5669988 129.8656778  50.7426426  13.7746965
 124.2970012  47.6674997   3.6959988 123.5850012  48.2024997   3.3439988
 124.9880012  47.7234997   3.0359988 124.2930132  47.7482543   3.5586289
 124.3500012  46.1254997   0.7349988 125.0510012  46.1474997   1.3859988
 124.6530012  45.4974997   0.0789988 124.4867830  46.0436566   0.7353711
 131.6660012  47.0454997  11.9899988 131.0130012  47.7404997  12.0789988
 132.1310012  47.2554997  11.1799988 131.6395390  47.1689425  11.8926883
 127.7020012  47.8774997   4.6479988 126.9700012  48.1054997   5.2209988
 128.1500012  47.1634997   5.1029988 127.6623095  47.8122571   4.7879119
 127.6000012  46.0514997  13.7149988 127.6800012  46.8144997  14.2869988
 126.9980012  46.3304997  13.0249988 127.5295756  46.1937134  13.7000589
 119.3480012  48.5074997   6.5299988 119.0170012  48.1374997   5.7119988
 119.9360012  47.8374997   6.8769988 119.3821873  48.3661156   6.4648102
 120.7140012  51.9354997   9.2119988 120.6200012  51.3574997   8.4549988
 121.4440012  51.5644997   9.7079988 120.7997981  51.8062390   9.1754165
 119.7140012  47.2764997  10.1639988 120.2800012  47.3974997   9.4009988
 120.0330012  47.9134997  10.8029988 119.8345786  47.3791884  10.1460040
 126.0230012  52.7794997  10.8979988 125.7830012  53.4414997  11.5459988
 125.8250012  51.9454997  11.3229988 125.9633808  52.7573134  11.0441524
 120.5940012  51.6754997  14.8809988 120.2830012  52.4574997  15.3359988
 119.9440012  51.5224997  14.1949988 120.4635558  51.7619105  14.8505871
 126.5730012  47.0394997   2.3329988 127.1530012  47.1894997   3.0799988
 126.9870012  47.5104997   1.6099988 126.7082830  47.1236841   2.3374134
 117.5140012  47.8734997  14.1099988 117.5850012  48.5244997  14.8079988
 116.6240012  47.9764997  13.7749988 117.4033117  47.9765936  14.1602700
 124.3000012  53.7764997   5.7679988 124.7740012  54.0714997   6.5459988
 123.7370012  54.5144997   5.5349988 124.2887653  53.9166932   5.8430136
 118.8340012  53.7474997  15.6439988 118.8410012  53.6114997  14.6969988
 117.9180012  53.6294997  15.8959988 118.7111714  53.7129430  15.5484666
 130.2720012  38.7894997   2.1459988 129.3720012  38.9284997   2.4409988
 130.5240012  39.6204997   1.7439988 130.1828702  38.9209074   2.1320205
 118.3380012  47.5774997   4.1199988 118.0460012  48.3454997   3.6289988
 117.6640012  46.9174997   3.9569988 118.2069081  47.5934406   4.0307340
 131.4610012  53.1554997   0.5219988 131.5350012  54.0944997   0.6929988
 132.3670012  52.8504997   0.4659988 131.5935100  53.2426722   0.5378119
 114.4310012  49.9404997  12.9349988 113.9300012  49.9124997  12.1199988
 114.4360012  49.0344997  13.2439988 114.3631526  49.8142278  12.8652872
 114.1810012  52.7204997   9.8189988 115.1270012  52.5764997   9.7999988
 114.0690012  53.5044997  10.3559988 114.2952727  52.8068046   9.8890072
 132.3790012  53.3864997  15.5009988 132.3300012  52.4314997  15.4639988
 131.5520012  53.6544997  15.9019988 132.2604940  53.2918998  15.5501375
 123.3580012  52.9604997  14.3769988 123.4450012  53.7864997  14.8519988
 122.4940012  52.6304997  14.6259988 123.2531964  53.0289878  14.4756549
 123.7720012  56.7324997   4.1829988 123.6970012  56.6114997   3.2369988
 123.8050012  57.6824997   4.3019988 123.7661848  56.8442500   4.0694834
 117.4250012  55.5214997   5.9639988 117.5780012  55.1734997   6.8429988
 116.5750012  55.1654997   5.7089988 117.3308962  55.4256650   6.0498340
 126.8740012  55.8864997   1.1849988 127.2490012  55.1424997   0.7149988
 126.8780012  55.6164997   2.1039988 126.9258915  55.7481486   1.2447824
 126.5430012  55.8124997   3.9349988 125.6070012  55.9124997   4.1129988
 126.8230012  55.1034997   4.5129988 126.4528255  55.7302711   4.0375391
 129.5310012  44.8794997  15.9809988 129.1240012  45.3604997  15.2599988
 129.5720012  43.9744997  15.6729988 129.4808437  44.8229374  15.8406683
 116.6800012  51.2634997  13.9779988 116.8960012  50.9024997  14.8369988
 115.8250012  50.8894997  13.7679988 116.5939292  51.1634111  14.0673386
 119.2990012  39.7334997   9.9729988 118.4370012  39.6464997   9.5659988
 119.2760012  40.5894997  10.4009988 119.1780330  39.8372765   9.9751863
 123.9620012  39.4554997  13.3479988 124.3820012  39.0404997  14.1009988
 123.0290012  39.2774997  13.4649988 123.8933644  39.3745900  13.4669539
 127.2880012  43.2114997  14.2009988 126.7740012  43.0854997  14.9989988
 127.1330012  44.1234997  13.9569988 127.1966852  43.3176132  14.2772158
 128.0510012  48.0724997  -0.0370012 128.0930012  47.8494997  -0.9670012
 128.9000012  48.4714997   0.1529988 128.1715396  48.0959155  -0.1386373
 123.6230012  41.9484997   0.6329988 123.3700012  41.9674997   1.5559988
 123.3670012  41.0764997   0.3319988 123.5537790  41.8332437   0.7186263
 119.3900012  44.6994997  11.0679988 118.7480012  44.6584997  11.7769988
 119.4270012  45.6254997  10.8309988 119.3071324  44.8191559  11.1329824
 119.3870012  44.9204997   5.9799988 118.4940012  44.5794997   5.9219988
 119.8370012  44.5434997   5.2249988 119.3257305  44.8228484   5.8699177
 124.9220012  45.3364997   4.7969988 124.5130012  46.1514997   4.5059988
 125.6430012  45.1964997   4.1829988 124.9634537  45.4292018   4.6741342
 124.0240012  45.5114997  16.2849988 123.4620012  44.8074997  16.6059988
 124.8510012  45.3914997  16.7529988 124.0587095  45.3987883  16.3922330
 125.9270012  44.7824997   7.6109988 125.7320012  45.3874997   6.8959988
 126.1080012  43.9484997   7.1769988 125.9247614  44.7526300   7.4544405
 117.1400012  45.0194997  12.9349988 117.1020012  45.4194997  13.8039988
 116.6490012  44.2024997  13.0259988 117.0684684  44.9638069  13.0661059
 120.5060012  42.3934997  -0.2660012 120.0750012  41.9484997   0.4639988
 119.7880012  42.7654997  -0.7780012 120.3499438  42.3828940  -0.2353201
 113.7480012  42.1354997   6.7859988 114.3790012  42.1064997   7.5049988
 114.1970012  41.7104997   6.0559988 113.8950774  42.0740492   6.7856553
 115.0220012  42.8814997   2.2099988 115.4960012  43.4724997   1.6249988
 114.3050012  43.4124997   2.5569988 114.9899341  43.0340867   2.1768836
 125.1910012  46.4204997  12.2829988 125.5140012  45.7894997  11.6399988
 124.7510012  45.8854997  12.9429988 125.1756895  46.2618441  12.2842850
 121.9680012  42.3474997   7.0669988 121.0570012  42.4044997   7.3549988
 122.4740012  42.2874997   7.8769988 121.9115413  42.3471985   7.2160622
 116.7970012  43.9764997   5.8929988 115.9070012  44.0764997   5.5529988
 117.0930012  43.1344997   5.5469988 116.7152823  43.8763545   5.7997213
 120.4500012  43.9764997   3.5499988 121.3810012  44.1054997   3.7279988
 120.2350012  44.6464997   2.8999988 120.5484247  44.0846565   3.4865747
 126.3730012  41.5824997  10.3309988 125.6970012  41.7134997  10.9949988
 125.8880012  41.4274997   9.5209988 126.2147145  41.5794905  10.3124517
 119.1240012  45.1714997   1.1169988 118.5810012  44.7914997   0.4249988
 119.9570012  45.3654997   0.6879988 119.1624399  45.1458124   0.9644526
 129.6610012  57.2544997  16.6079988 129.8610012  57.6784997  15.7729988
 130.3160012  57.5974997  17.2149988 129.7770051  57.3589648  16.5757836
 117.2590012  49.7284997  16.2159988 117.9910012  49.9824997  16.7769988
 116.4790012  49.9324997  16.7309988 117.2538232  49.7909177  16.3625760
 123.2880012  45.1354997   8.9539988 123.8530012  44.5884997   8.4069988
 123.1410012  44.6134997   9.7419988 123.3452918  44.9902024   8.9858454
 118.2900012  41.2714997   5.3719988 117.9730012  40.3694997   5.3369988
 119.0720012  41.2734997   4.8189988 118.3522284  41.1481628   5.2924783
 121.9150012  43.5234997  11.3679988 121.0790012  43.9774997  11.4779988
 122.4390012  43.7994997  12.1199988 121.8714414  43.6229376  11.4847136
 122.4590012  49.7364997   3.0519988 121.7140012  49.2294997   2.7299988
 122.3250012  49.7854997   3.9989988 122.3388776  49.6736940   3.1358647
 129.6090012  48.8694997  11.8389988 130.2510012  49.3264997  11.2949988
 128.7790012  48.9824997  11.3759988 129.5845963  48.9472704  11.7020177
 126.3570012  42.5504997   1.2519988 125.4180012  42.6624997   1.0999988
 126.6540012  43.4074997   1.5579988 126.2687666  42.6816443   1.2725768
 123.9780012  49.9204997  14.2889988 123.6330012  49.5394997  15.0959988
 123.7780012  50.8544997  14.3609988 123.9038061  49.9945228  14.4090961
 127.0750012  44.4174997   2.9119988 127.9670012  44.2804997   3.2309988
 127.1320012  45.2084997   2.3759988 127.2046285  44.5056660   2.8831691
 117.5840012  49.0314997   8.8219988 118.3290012  49.0294997   8.2209988
 117.6620012  48.2084997   9.3039988 117.6965518  48.9199315   8.8048929
 124.5850012  51.1954997   2.0779988 124.2890012  52.0214997   2.4589988
 123.8820012  50.5754997   2.2739988 124.4494914  51.2248199   2.1566443
 114.5920012  47.4924997  14.1369988 114.8150012  47.0744997  14.9689988
 113.9900012  46.8794997  13.7139988 114.5411759  47.3524668  14.1937022
 121.6080012  47.0094997  16.3499988 121.3120012  46.8434997  15.4549988
 122.5400012  46.7894997  16.3389988 121.6934166  46.9570640  16.2260536
 126.2290012  52.3824997  14.2399988 125.3280012  52.5654997  13.9719988
 126.2630012  52.6414997  15.1609988 126.1103041  52.4425512  14.3278197
 131.9600012  44.6274997   2.6069988 131.4060012  44.2314997   1.9349988
 132.0600012  45.5374997   2.3289988 131.8977059  44.6963586   2.4774401
 131.9230012  50.4274997  15.4439988 131.0720012  50.6654997  15.0769988
 132.5140012  50.4104997  14.6909988 131.8862487  50.4578258  15.2918893
 130.2550012  53.4134997   3.0719988 129.8820012  52.5874997   3.3809988
 130.5330012  53.2304997   2.1749988 130.2415630  53.2757303   2.9929626
 127.4160012  48.2214997  10.0929988 126.4870012  47.9894997  10.0659988
 127.8670012  47.4444997   9.7629988 127.3499216  48.0847238  10.0446917
 119.9590012  52.5494997   6.2259988 120.4860012  53.3224997   6.0259988
 119.0790012  52.7744997   5.9249988 119.9121773  52.6858005   6.1579010
 115.7140012  47.4114997   0.8129988 116.3300012  48.0384997   1.1929988
 114.8520012  47.7274997   1.0849988 115.6817698  47.5399430   0.9017183
 121.3860012  50.2124997   5.8029988 121.1450012  51.1374997   5.8439988
 120.6450012  49.7534997   6.1989988 121.2528409  50.2771421   5.8621377
 121.9010012  54.3614997  12.1179988 122.2630012  55.2164997  11.8839988
 122.4320012  54.0694997  12.8579988 122.0224473  54.4391060  12.1860855
 120.0690012  55.2344997   5.3479988 119.1190012  55.3394997   5.3989988
 120.4210012  56.0544997   5.6929988 119.9864203  55.3598314   5.4016650
 125.4450012  50.4604997  11.8179988 125.0190012  50.2334997  12.6449988
 126.0250012  49.7224997  11.6359988 125.4651868  50.3295299  11.9065830
 127.6480012  51.3894997   0.8919988 128.0010012  51.0094997   1.6969988
 126.6990012  51.2964997   0.9789988 127.5680441  51.3249596   1.0138559
 128.1030012  55.0124997  14.2879988 127.5020012  54.4574997  13.7919988
 128.3850012  55.6794997  13.6619988 128.0588519  55.0266841  14.1354952
 132.1510012  55.8694997   1.0929988 132.8950012  56.4554997   0.9529988
 131.4570012  56.4374997   1.4269988 132.1590292  56.0265582   1.1189961
 116.2260012  42.2454997  13.6949988 115.3330012  42.5844997  13.6269988
 116.1270012  41.3904997  14.1129988 116.0904164  42.1762588  13.7422235
 128.5140012  50.0624997   3.1189988 128.2360012  49.3344997   3.6749988
 129.4410012  50.1814997   3.3239988 128.6013124  49.9788802   3.2228845
 115.8770012  54.0504997  12.1299988 116.0940012  53.1184997  12.0989988
 116.1230012  54.3244997  13.0129988 115.9399549  53.9600636  12.2451763
 121.7390012  52.5014997  -0.6610012 121.9780012  51.7534997  -1.2080012
 121.4700012  52.1134997   0.1719988 121.7353675  52.3466638  -0.6233135
 120.6760012  52.0714997   1.7959988 120.8220012  51.5514997   2.5859988
 120.6730012  52.9784997   2.1019988 120.6955989  52.1228853   1.9456088
 117.1290012  49.3244997   2.3059988 116.4430012  49.6764997   2.8729988
 117.6510012  50.0874997   2.0589988 117.1056852  49.4758578   2.3502118
 124.9600012  41.9864997  12.5849988 125.6590012  42.0604997  13.2349988
 124.5790012  41.1224997  12.7389988 125.0041767  41.8797624  12.6948322
 125.7450012  41.6384997   3.6819988 125.9650012  42.1104997   2.8789988
 126.3030012  42.0334997   4.3519988 125.8504968  41.7564285   3.6627331
 123.4130012  53.7694997   2.5449988 122.5970012  54.2664997   2.5969988
 123.9430012  54.2444997   1.9049988 123.3729161  53.9017722   2.4655956
 122.9450012  43.3664997   4.5169988 123.7570012  43.8714997   4.5629988
 122.7000012  43.2214997   5.4309988 123.0230520  43.4160375   4.6468517
 123.4800012  44.3524997  13.7019988 123.5990012  44.9264997  14.4589988
 124.1360012  43.6644997  13.8159988 123.5849757  44.3381079  13.8210825
 123.8280012  40.4474997   5.4549988 123.4820012  41.0654997   6.0999988
 124.4870012  40.9484997   4.9739988 123.8697826  40.5995802   5.4780971
 120.7520012  54.8134997   2.5269988 120.9120012  55.6124997   2.0259988
 120.5540012  55.1194997   3.4119988 120.7471649  54.9644469   2.5779815
 119.4860012  41.5104997   2.1419988 119.4030012  42.3994997   2.4889988
 120.3760012  41.2454997   2.3739988 119.5949469  41.5961430   2.2207626
 129.6850012  42.2594997  14.5369988 128.7680012  42.5224997  14.4489988
 130.0200012  42.2564997  13.6399988 129.6049900  42.2950224  14.4037919
 128.2870012  46.0104997   8.6319988 127.4890012  45.5954997   8.3039988
 128.7320012  45.3194997   9.1229988 128.2379885  45.8603543   8.6534889
 117.7450012  51.9384997   1.2029988 118.3370012  52.6374997   1.4789988
 118.2040012  51.5054997   0.4829988 117.8881142  51.9757049   1.1434830
 116.0610012  44.6024997   0.3189988 116.0160012  45.5414997   0.4969988
 115.1730012  44.3664997   0.0489988 115.9348574  44.6991892   0.3068912
 129.3730012  55.2664997  10.2549988 129.2180012  55.9444997   9.5979988
 130.3060012  55.3384997  10.4579988 129.4778500  55.3690170  10.1925119
 116.8690012  39.3844997   8.9919988 116.6400012  39.4434997   8.0639988
 116.4260012  38.5924997   9.2979988 116.7778530  39.2855753   8.9064786
 115.7990012  53.3244997   5.1519988 114.9670012  53.7974997   5.1799988
 116.3450012  53.8344997   4.5539988 115.7589739  53.4581871   5.0749716
 115.0870012  55.9374997  16.4819988 115.6280012  55.7204997  17.2419988
 114.6060012  55.1314997  16.2929988 115.0959345  55.7989514  16.5603076
 119.6850012  54.8564997  18.1029988 120.4520012  54.3974997  18.4439988
 119.6630012  54.6304997  17.1729988 119.7871434  54.7630409  18.0240043
 123.7770012  54.3644997  -0.5220012 123.1330012  53.7334997  -0.2010012
 124.5390012  53.8334997  -0.7540012 123.7918077  54.2062920  -0.5093989
 126.2620012  53.2364997  16.8319988 125.9110012  52.3804997  17.0749988
 126.9880012  53.3794997  17.4389988 126.3120769  53.1385636  16.9473619
 128.3810012  54.1814997  -0.2880012 128.6640012  53.3874997   0.1639988
 129.1210012  54.4144997  -0.8490012 128.5197486  54.1042803  -0.3019302
 114.9940012  49.7474997  17.4369988 115.1380012  48.8454997  17.1499988
 114.2220012  50.0334997  16.9489988 114.9093322  49.6628261  17.3317881
 119.3360012  50.0914997  -0.4310012 119.4000012  49.2974997   0.0999988
 119.9890012  49.9724997  -1.1210012 119.4330241  49.9667148  -0.4515683
 121.6500012  49.7174997  16.8689988 121.3210012  49.9884997  16.0119988
 121.8020012  48.7764997  16.7819988 121.6254809  49.6273862  16.7398244
 124.6880012  51.1384997  -0.6950012 124.4190012  51.3184997   0.2059988
 124.4820012  50.2124997  -0.8260012 124.6233825  51.0380152  -0.5894786
 127.3840012  49.6334997  14.2529988 128.1300012  50.2214997  14.1329988
 126.6270012  50.2154997  14.3159988 127.3837554  49.7927011  14.2450907
 115.8270012  46.9474997  16.8569988 116.2350012  46.0904997  16.7359988
 115.5670012  46.9624997  17.7779988 115.8477568  46.8320807  16.9649588
 120.4850012  48.0634997   1.8749988 120.0250012  47.5794997   2.5609988
 120.7400012  47.3954997   1.2389988 120.4564902  47.9068731   1.8829334
 119.7740012  45.9564997  14.2309988 119.1560012  46.6314997  14.5109988
 120.1180012  46.2774997  13.3979988 119.7359615  46.0922721  14.1566581
 121.5560012  46.3064997   0.1369988 121.3760012  46.1524997  -0.7900012
 122.5060012  46.4144997   0.1819988 121.6597776  46.3000175   0.0161843
 124.7940012  48.4284997  17.5079988 125.7470012  48.5114997  17.4809988
 124.6330012  47.7164997  18.1279988 124.9026426  48.3436746  17.5880579
 130.9460012  48.6614997  -0.4170012 130.6720012  48.2364997  -1.2300012
 130.9850012  49.5924997  -0.6340012 130.9137699  48.7292484  -0.5576390
 120.1130012  43.3114997  15.3129988 120.2630012  42.5824997  14.7109988
 120.1160012  44.0884997  14.7539988 120.1339302  43.3167851  15.1550692
 120.5260012  41.6814997  12.8059988 121.0620012  42.1324997  12.1539988
 119.6740012  41.5734997  12.3829988 120.4842178  41.7286390  12.6595756
 122.1080012  47.1204997  13.0449988 122.8580012  46.9644997  12.4719988
 121.7690012  47.9724997  12.7699988 122.1648921  47.2142968  12.9293561
 126.5230012  44.9354997  18.0739988 126.7160012  44.0044997  17.9619988
 127.3810012  45.3604997  18.0639988 126.6653020  44.8656389  18.0573361
 127.8400012  47.7244997  16.1509988 127.5590012  48.4334997  15.5739988
 128.7830012  47.6514997  15.9999988 127.9289027  47.8117646  16.0515551
 118.5920012  44.5094997  17.2249988 117.8250012  43.9774997  17.0149988
 119.2710012  44.1994997  16.6249988 118.5787022  44.3947506  17.1151648
 121.3320012  39.1374997  13.2369988 121.2330012  40.0844997  13.1319988
 120.5890012  38.7654997  12.7619988 121.2180564  39.2165902  13.1584560
 122.5960012  43.4594997  16.8009988 122.3600012  43.2394997  17.7029988
 121.8120012  43.2524997  16.2909988 122.4578628  43.4014760  16.8553932
 125.3110012  42.5864997  15.8769988 124.3640012  42.6184997  16.0089988
 125.6240012  41.9614997  16.5299988 125.2235475  42.5063207  15.9834455
 126.9450012  41.2204997  17.8819988 126.8490012  40.2684997  17.8759988
 126.6240012  41.4894997  18.7419988 126.8884070  41.1264035  17.9975441
 116.7720012  42.4304997  16.9289988 116.9840012  41.7234997  16.3189988
 116.6610012  41.9924997  17.7729988 116.7859721  42.2747084  16.9596843
 121.5530012  38.4314997  15.9089988 122.2650012  37.7914997  15.8949988
 121.4520012  38.6984997  14.9949988 121.6367939  38.3799938  15.7835650
 121.9070012  40.1144997  17.9619988 121.7750012  39.6384997  17.1419988
 121.3080012  40.8584997  17.9069988 121.8079071  40.1499618  17.8422886
 121.4530012  56.9974997   1.1389988 122.3860012  57.1554997   1.2819988
 121.1890012  57.6724997   0.5139988 121.5449510  57.1103611   1.0740741
 115.0220012  51.6334997   0.6209988 115.9360012  51.7124997   0.8949988
 115.0290012  50.9464997  -0.0450012 115.1481131  51.5513961   0.5684393
 113.6710012  57.0264997   5.6989988 113.0240012  56.5644997   5.1659988
 114.0250012  56.3544997   6.2809988 113.6303849  56.8724723   5.7047959
 114.5410012  55.1074997   7.5029988 114.2060012  54.2274997   7.6749988
 114.7630012  55.4524997   8.3679988 114.5251783  55.0337500   7.6434208
 132.0890012  55.9164997  10.4839988 132.0680012  56.1014997  11.4229988
 132.7800012  56.4854997  10.1429988 132.1794618  56.0186606  10.5663864
 131.6530012  55.4844997  13.4059988 131.1650012  54.7484997  13.0349988
 132.2020012  55.0904997  14.0839988 131.6604872  55.3306249  13.4469160
 130.1030012  51.2734997  18.0439988 129.2370012  51.1684997  18.4379988
 130.4800012  52.0324997  18.4899988 130.0353308  51.3616900  18.1582393
 131.4040012  49.5304997   3.5579988 132.2540012  49.9514997   3.6849988
 131.4100012  48.7904997   4.1649988 131.5211372  49.4880803   3.6574344
 131.7990012  47.5834997   5.3819988 131.0720012  47.1044997   5.7789988
 132.3800012  47.7894997   6.1139988 131.7779375  47.5457090   5.5354129
 131.5580012  50.3684997  10.3289988 132.3910012  49.9904997  10.0489988
 131.6700012  51.3114997  10.2099988 131.6872647  50.4442218  10.2745487
 130.0440012  53.2464997  12.6359988 129.3970012  53.5714997  13.2619988
 129.5270012  52.8064997  11.9619988 129.8854029  53.2315004  12.6305827
 132.0670012  47.4844997   1.7729988 131.5450012  47.8414997   1.0539988
 132.0340012  48.1594997   2.4509988 131.9911634  47.6245413   1.7663145
 130.4160012  44.7244997   0.3239988 130.5120012  45.3914997  -0.3570012
 130.2760012  43.9084997  -0.1580012 130.4102135  44.7054500   0.1658491
 129.5850012  46.1044997   5.9449988 129.4350012  45.1594997   5.9239988
 129.2320012  46.3854997   6.7879988 129.5166625  46.0130441   6.0562346
 114.6210012  48.1824997   9.9549988 114.8050012  48.1004997   9.0189988
 115.4700012  48.0584997  10.3789988 114.7610139  48.1545003   9.8841455
 130.4420012  48.0744997  15.5829988 131.0250012  47.3404997  15.7749988
 131.0060012  48.8464997  15.6299988 130.5979769  48.0784227  15.6156159
 131.9380012  45.9774997  16.2679988 131.0750012  45.5984997  16.1019988
 132.5430012  45.2384997  16.1939988 131.9015979  45.8258023  16.2352817
 129.6630012  42.1324997  -0.5590012 130.2740012  41.7614997   0.0779988
 128.8270012  41.7114997  -0.3630012 129.6335032  42.0247554  -0.4452965
 129.2960012  43.6874997   4.4069988 129.5760012  42.7804997   4.5309988
 130.0550012  44.1214997   4.0179988 129.4369277  43.6220942   4.3713682
 129.9080012  44.2684997   9.8429988 130.8410012  44.4804997   9.8089988
 129.6730012  44.3704997  10.7649988 130.0038036  44.3112769   9.9629976
 129.9370012  45.0054997  12.6189988 129.0940012  45.2734997  12.9849988
 130.3790012  45.8274997  12.4079988 129.8814158  45.1533291  12.6405491
 114.2180012  43.4534997  16.0959988 115.1380012  43.3314997  16.3319988
 113.7690012  42.7034997  16.4849988 114.2831580  43.3353727  16.1809006
 132.2200012  38.9854997  17.9719988 132.5700012  38.3314997  17.3669988
 132.3670012  39.8224997  17.5329988 132.2878419  39.0091591  17.8297118
 129.9090012  40.9504997   4.4549988 130.0920012  40.5014997   5.2809988
 129.3100012  40.3654997   3.9919988 129.8530202  40.8099975   4.5053275
 115.4390012  41.7654997   8.9869988 115.8850012  40.9734997   9.2889988
 115.9060012  42.4814997   9.4179988 115.5630172  41.7540624   9.0864820
 113.7430012  44.7644997  10.0559988 114.2350012  44.5434997   9.2649988
 114.1060012  45.6054997  10.3369988 113.8593126  44.8478357   9.9857531
 131.7400012  41.0944997  16.3219988 130.8220012  41.3654997  16.2859988
 131.8630012  40.5594997  15.5369988 131.6311066  41.0592892  16.2110487
 131.7760012  41.0174997   0.9829988 132.1880012  40.2964997   0.5079988
 132.4580012  41.6874997   1.0419988 131.9245885  41.0092368   0.9258915
 114.0570012  41.0224997   4.1099988 113.1320012  41.2314997   3.9809988
 114.5110012  41.5064997   3.4209988 113.9917368  41.1165993   3.9991226
 128.8280012  56.0064997   6.0559988 129.4800012  55.6594997   5.4479988
 129.3380012  56.4954997   6.7019988 128.9862637  56.0250597   6.0600236
 114.0210012  39.7604997  12.4549988 113.3560012  39.5144997  13.0979988
 113.5780012  40.3824997  11.8769988 113.8700956  39.8108632  12.4649352
 116.2130012  52.9354997  16.5989988 115.3920012  53.1104997  16.1389988
 115.9600012  52.8624997  17.5199988 116.0666164  52.9495622  16.6604923
 119.1670012  53.9104997  12.8579988 118.7420012  54.7194997  12.5749988
 120.0710012  53.9954997  12.5559988 119.2310271  54.0328469  12.7783776
 123.4780012  55.3094997  15.8169988 123.6630012  54.9754997  16.6949988
 124.3240012  55.6184997  15.4949988 123.6177539  55.3056047  15.8935605
 125.8230012  56.5954997  15.0609988 126.5000012  55.9624997  14.8209988
 126.1450012  56.9964997  15.8679988 125.9591637  56.5631154  15.1372793
 130.7400012  39.1844997  14.1409988 129.9280012  39.5094997  13.7529988
 130.9730012  38.4244997  13.6079988 130.6603423  39.1262436  14.0158253
 116.5690012  57.1664997  12.9049988 115.8480012  57.6064997  12.4539988
 116.2030012  56.9154997  13.7539988 116.4209804  57.1927698  12.9579840
 119.0360012  56.7664997  11.9349988 118.1710012  56.8384997  12.3389988
 118.9810012  57.3134997  11.1509988 118.9102085  56.8502685  11.8843362
 123.7460012  56.6544997  11.1099988 123.2900012  57.1834997  10.4559988
 123.9090012  57.2574997  11.8359988 123.7055585  56.8084468  11.1185062
 126.0740012  55.5324997  12.0549988 125.1690012  55.6974997  11.7899988
 126.5030012  56.3854997  11.9899988 126.0080799  55.6704483  12.0099182
 128.6780012  57.1024997  12.3499988 128.4960012  58.0184997  12.1399988
 128.8550012  56.6924997  11.5039988 128.6770210  57.1724822  12.2067885
 115.9830012  55.7894997   9.8149988 115.9650012  55.3644997  10.6729988
 116.7880012  55.4714997   9.4069988 116.0893875  55.6883812   9.8771655
 118.1250012  54.4994997   8.4699988 117.9060012  53.5834997   8.6399988
 118.9490012  54.6394997   8.9359988 118.2064420  54.3930520   8.5562774
 120.6620012  54.9694997   9.3189988 120.8750012  54.0814997   9.0319988
 120.7260012  54.9354997  10.2729988 120.6998232  54.8433102   9.4087397
 124.1700012  40.6334997   8.4629988 123.4960012  40.0044997   8.7189988
 124.7340012  40.1494997   7.8599988 124.1539230  40.4818744   8.4165340
 129.3130012  38.7414997   8.5759988 129.9170012  39.2884997   8.0739988
 128.4430012  39.0604997   8.3359988 129.2781241  38.8595806   8.4747654
 131.0400012  39.8794997   6.9089988 131.6520012  39.3654997   6.3829988
 131.4220012  40.7574997   6.9329988 131.1754540  39.9277140   6.8401830
 116.4970012  39.2674997   6.2849988 115.7200012  39.0334997   5.7779988
 117.0270012  38.4704997   6.2939988 116.4622330  39.1276988   6.2167742
 115.3330012  39.0654997   2.0889988 115.7720012  39.6764997   1.4969988
 114.7000012  39.6034997   2.5629988 115.3074514  39.2219257   2.0720930
 121.0760012  39.1944997   6.0989988 121.9510012  39.5824997   6.0689988
 120.9400012  38.9794997   7.0209988 121.1773695  39.2185184   6.2196440
 126.6330012  39.2244997   7.7479988 126.7090012  39.3194997   6.7979988
 126.3580012  38.3164997   7.8769988 126.6062321  39.1147867   7.6355079
 127.9860012  39.2504997   3.4399988 127.2840012  39.8654997   3.2309988
 127.5420012  38.4124997   3.5709988 127.8296330  39.2215783   3.4290328
 115.2340012  55.0134997   2.9869988 114.5490012  54.9754997   2.3189988
 115.2380012  55.9264997   3.2749988 115.1408193  55.1317016   2.9345284
 117.1940012  40.9814997   0.5309988 117.6860012  40.3514997   0.0039988
 117.8180012  41.2774997   1.1949988 117.3455446  40.9353199   0.5485980
 122.2200012  41.2744997   2.9879988 122.3980012  40.6284997   3.6709988
 122.1670012  42.1084997   3.4559988 122.2371829  41.2987985   3.1445940
 124.0990012  56.2234997   1.3839988 124.9650012  56.5894997   1.2059988
 123.8520012  55.7834997   0.5699988 124.1842392  56.2141756   1.2496289
 130.8080012  55.7864997   4.0629988 130.6130012  55.0384997   3.4979988
 130.7690012  56.5444997   3.4799988 130.7760380  55.7866099   3.9068384
 116.4550012  39.7814997  15.8029988 116.0890012  39.0164997  16.2459988
 117.3680012  39.8104997  16.0899988 116.5282790  39.6807224  15.9024070
 118.4280012  39.1324997  17.3389988 119.3260012  38.8584997  17.1539988
 118.0410012  38.3894997  17.8029988 118.4986612  38.9945914  17.3763643
 117.0520012  55.9334997   0.0119988 116.7850012  56.2204997   0.8849988
 117.8240012  55.3874997   0.1639988 117.1197488  55.8990294   0.1521050
 126.8490012  38.4644997  17.5209988 126.9260012  38.0384997  18.3749988
 127.7430012  38.4784997  17.1779988 126.9803428  38.4080879  17.5915310
 130.0250012  54.5374997  16.2129988 129.2430012  54.3514997  15.6939988
 129.9530012  55.4664997  16.4309988 129.9081777  54.6376492  16.1714048
 144.4310012  48.4234997   6.2439988 144.5200012  49.3674997   6.1119988
 143.7930012  48.1484997   5.5859988 144.3569081  48.5154830   6.1369614
 143.3640012  47.6784997   9.6629988 143.3260012  47.0324997  10.3679988
 143.0420012  47.2124997   8.8919988 143.3152333  47.5269408   9.6552978
 135.7330012  47.2934997  11.2559988 135.7740012  46.6674997  11.9789988
 136.4360012  47.9174997  11.4379988 135.8336363  47.2921196  11.3796044
 136.6560012  51.7434997   9.7909988 136.2870012  50.9414997   9.4209988
 137.5970012  51.5744997   9.8369988 136.7327289  51.6110153   9.7466316
 133.2660012  45.4034997   5.1839988 132.8190012  46.2494997   5.1649988
 132.7050012  44.8234997   4.6679988 133.1289900  45.4409916   5.1116801
 133.9770012  47.5654997   7.3099988 134.1900012  46.7954997   7.8369988
 134.7150012  47.6544997   6.7059988 134.1058496  47.4721394   7.3005300
 144.1820012  55.7224997   8.1769988 144.8020012  55.0454997   7.9029988
 143.9740012  55.5044997   9.0849988 144.2386904  55.6003870   8.2623365
 141.7540012  50.1114997  10.0689988 142.0580012  49.4254997   9.4739988
 142.4750012  50.2294997  10.6869988 141.8930671  50.0336305  10.0711816
 144.8950012  44.5054997  10.3969988 145.0370012  43.5594997  10.4169988
 144.7880012  44.7124997   9.4679988 144.8999863  44.4039534  10.2742339
 138.0490012  42.6064997   7.6689988 138.0930012  43.4664997   7.2509988
 137.5920012  42.0544997   7.0349988 137.9932185  42.6495799   7.5260299
 134.6700012  45.0034997   8.4309988 135.3230012  44.4534997   8.8629988
 134.6940012  44.7294997   7.5139988 134.7626683  44.8911466   8.3662123
 139.8260012  46.5534997   7.6459988 140.4420012  46.0274997   8.1559988
 139.2400012  45.9134997   7.2429988 139.8310810  46.3949208   7.6613173
 136.8600012  41.5244997  11.7429988 136.6410012  42.0544997  10.9769988
 136.1920012  41.7514997  12.3899988 136.7397600  41.6276906  11.7256379
 144.2290012  51.0244997   5.2869988 143.9330012  50.7024997   4.4359988
 143.9040012  51.9244997   5.3279988 144.1446371  51.1020215   5.1761801
 139.4290012  49.2004997  12.0299988 138.6890012  49.7984997  12.1339988
 140.1430012  49.7544997  11.7149988 139.4242237  49.3572831  12.0016465
 136.4530012  43.4164997   9.6949988 137.0670012  44.0494997  10.0689988
 136.9650012  42.9444997   9.0389988 136.6062296  43.4392370   9.6574252
 137.8360012  51.1644997  12.8179988 137.8310012  52.0444997  12.4399988
 136.9830012  51.0814997  13.2429988 137.7199464  51.2736117  12.8237907
 133.9570012  50.8354997   3.5999988 133.6850012  51.0644997   2.7109988
 134.0030012  51.6734997   4.0599988 133.9260094  50.9801213   3.5405697
 140.8860012  38.8304997   9.1959988 140.7690012  37.8814997   9.1409988
 140.0310012  39.1624997   9.4689988 140.7543733  38.7455409   9.2253897
 143.1530012  47.6674997   3.6959988 142.4410012  48.2024997   3.3439988
 143.8440012  47.7234997   3.0359988 143.1490132  47.7482543   3.5586289
 143.2060012  46.1254997   0.7349988 143.9070012  46.1474997   1.3859988
 143.5090012  45.4974997   0.0789988 143.3427830  46.0436566   0.7353711
 138.2040012  48.5074997   6.5299988 137.8730012  48.1374997   5.7119988
 138.7920012  47.8374997   6.8769988 138.2381873  48.3661156   6.4648102
 139.5700012  51.9354997   9.2119988 139.4760012  51.3574997   8.4549988
 140.3000012  51.5644997   9.7079988 139.6557981  51.8062390   9.1754165
 138.5700012  47.2764997  10.1639988 139.1360012  47.3974997   9.4009988
 138.8890012  47.9134997  10.8029988 138.6905786  47.3791884  10.1460040
 144.8790012  52.7794997  10.8979988 144.6390012  53.4414997  11.5459988
 144.6810012  51.9454997  11.3229988 144.8193808  52.7573134  11.0441524
 139.4500012  51.6754997  14.8809988 139.1390012  52.4574997  15.3359988
 138.8000012  51.5224997  14.1949988 139.3195558  51.7619105  14.8505871
 136.3700012  47.8734997  14.1099988 136.4410012  48.5244997  14.8079988
 135.4800012  47.9764997  13.7749988 136.2593117  47.9765936  14.1602700
 143.1560012  53.7764997   5.7679988 143.6300012  54.0714997   6.5459988
 142.5930012  54.5144997   5.5349988 143.1447653  53.9166932   5.8430136
 137.6900012  53.7474997  15.6439988 137.6970012  53.6114997  14.6969988
 136.7740012  53.6294997  15.8959988 137.5671714  53.7129430  15.5484666
 137.1940012  47.5774997   4.1199988 136.9020012  48.3454997   3.6289988
 136.5200012  46.9174997   3.9569988 137.0629081  47.5934406   4.0307340
 133.2870012  49.9404997  12.9349988 132.7860012  49.9124997  12.1199988
 133.2920012  49.0344997  13.2439988 133.2191526  49.8142278  12.8652872
 133.0370012  52.7204997   9.8189988 133.9830012  52.5764997   9.7999988
 132.9250012  53.5044997  10.3559988 133.1512727  52.8068046   9.8890072
 142.2140012  52.9604997  14.3769988 142.3010012  53.7864997  14.8519988
 141.3500012  52.6304997  14.6259988 142.1091964  53.0289878  14.4756549
 142.6280012  56.7324997   4.1829988 142.5530012  56.6114997   3.2369988
 142.6610012  57.6824997   4.3019988 142.6221848  56.8442500   4.0694834
 136.2810012  55.5214997   5.9639988 136.4340012  55.1734997   6.8429988
 135.4310012  55.1654997   5.7089988 136.1868962  55.4256650   6.0498340
 135.5360012  51.2634997  13.9779988 135.7520012  50.9024997  14.8369988
 134.6810012  50.8894997  13.7679988 135.4499292  51.1634111  14.0673386
 138.1550012  39.7334997   9.9729988 137.2930012  39.6464997   9.5659988
 138.1320012  40.5894997  10.4009988 138.0340330  39.8372765   9.9751863
 142.8180012  39.4554997  13.3479988 143.2380012  39.0404997  14.1009988
 141.8850012  39.2774997  13.4649988 142.7493644  39.3745900  13.4669539
 142.4790012  41.9484997   0.6329988 142.2260012  41.9674997   1.5559988
 142.2230012  41.0764997   0.3319988 142.4097790  41.8332437   0.7186263
 138.2460012  44.6994997  11.0679988 137.6040012  44.6584997  11.7769988
 138.2830012  45.6254997  10.8309988 138.1631324  44.8191559  11.1329824
 138.2430012  44.9204997   5.9799988 137.3500012  44.5794997   5.9219988
 138.6930012  44.5434997   5.2249988 138.1817305  44.8228484   5.8699177
 143.7780012  45.3364997   4.7969988 143.3690012  46.1514997   4.5059988
 144.4990012  45.1964997   4.1829988 143.8194537  45.4292018   4.6741342
 142.8800012  45.5114997  16.2849988 142.3180012  44.8074997  16.6059988
 143.7070012  45.3914997  16.7529988 142.9147095  45.3987883  16.3922330
 144.7830012  44.7824997   7.6109988 144.5880012  45.3874997   6.8959988
 144.9640012  43.9484997   7.1769988 144.7807614  44.7526300   7.4544405
 135.9960012  45.0194997  12.9349988 135.9580012  45.4194997  13.8039988
 135.5050012  44.2024997  13.0259988 135.9244684  44.9638069  13.0661059
 139.3620012  42.3934997  -0.2660012 138.9310012  41.9484997   0.4639988
 138.6440012  42.7654997  -0.7780012 139.2059438  42.3828940  -0.2353201
 132.6040012  42.1354997   6.7859988 133.2350012  42.1064997   7.5049988
 133.0530012  41.7104997   6.0559988 132.7510774  42.0740492   6.7856553
 133.8780012  42.8814997   2.2099988 134.3520012  43.4724997   1.6249988
 133.1610012  43.4124997   2.5569988 133.8459341  43.0340867   2.1768836
 144.0470012  46.4204997  12.2829988 144.3700012  45.7894997  11.6399988
 143.6070012  45.8854997  12.9429988 144.0316895  46.2618441  12.2842850
 140.8240012  42.3474997   7.0669988 139.9130012  42.4044997   7.3549988
 141.3300012  42.2874997   7.8769988 140.7675413  42.3471985   7.2160622
 135.6530012  43.9764997   5.8929988 134.7630012  44.0764997   5.5529988
 135.9490012  43.1344997   5.5469988 135.5712823  43.8763545   5.7997213
 139.3060012  43.9764997   3.5499988 140.2370012  44.1054997   3.7279988
 139.0910012  44.6464997   2.8999988 139.4044247  44.0846565   3.4865747
 137.9800012  45.1714997   1.1169988 137.4370012  44.7914997   0.4249988
 138.8130012  45.3654997   0.6879988 138.0184399  45.1458124   0.9644526
 136.1150012  49.7284997  16.2159988 136.8470012  49.9824997  16.7769988
 135.3350012  49.9324997  16.7309988 136.1098232  49.7909177  16.3625760
 142.1440012  45.1354997   8.9539988 142.7090012  44.5884997   8.4069988
 141.9970012  44.6134997   9.7419988 142.2012918  44.9902024   8.9858454
 137.1460012  41.2714997   5.3719988 136.8290012  40.3694997   5.3369988
 137.9280012  41.2734997   4.8189988 137.2082284  41.1481628   5.2924783
 140.7710012  43.5234997  11.3679988 139.9350012  43.9774997  11.4779988
 141.2950012  43.7994997  12.1199988 140.7274414  43.6229376  11.4847136
 141.3150012  49.7364997   3.0519988 140.5700012  49.2294997   2.7299988
 141.1810012  49.7854997   3.9989988 141.1948776  49.6736940   3.1358647
 142.8340012  49.9204997  14.2889988 142.4890012  49.5394997  15.0959988
 142.6340012  50.8544997  14.3609988 142.7598061  49.9945228  14.4090961
 136.4400012  49.0314997   8.8219988 137.1850012  49.0294997   8.2209988
 136.5180012  48.2084997   9.3039988 136.5525518  48.9199315   8.8048929
 143.4410012  51.1954997   2.0779988 143.1450012  52.0214997   2.4589988
 142.7380012  50.5754997   2.2739988 143.3054914  51.2248199   2.1566443
 133.4480012  47.4924997  14.1369988 133.6710012  47.0744997  14.9689988
 132.8460012  46.8794997  13.7139988 133.3971759  47.3524668  14.1937022
 140.4640012  47.0094997  16.3499988 140.1680012  46.8434997  15.4549988
 141.3960012  46.7894997  16.3389988 140.5494166  46.9570640  16.2260536
 138.8150012  52.5494997   6.2259988 139.3420012  53.3224997   6.0259988
 137.9350012  52.7744997   5.9249988 138.7681773  52.6858005   6.1579010
 134.5700012  47.4114997   0.8129988 135.1860012  48.0384997   1.1929988
 133.7080012  47.7274997   1.0849988 134.5377698  47.5399430   0.9017183
 140.2420012  50.2124997   5.8029988 140.0010012  51.1374997   5.8439988
 139.5010012  49.7534997   6.1989988 140.1088409  50.2771421   5.8621377
 140.7570012  54.3614997  12.1179988 141.1190012  55.2164997  11.8839988
 141.2880012  54.0694997  12.8579988 140.8784473  54.4391060  12.1860855
 138.9250012  55.2344997   5.3479988 137.9750012  55.3394997   5.3989988
 139.2770012  56.0544997   5.6929988 138.8424203  55.3598314   5.4016650
 144.3010012  50.4604997  11.8179988 143.8750012  50.2334997  12.6449988
 144.8810012  49.7224997  11.6359988 144.3211868  50.3295299  11.9065830
 135.0820012  42.2454997  13.6949988 134.1890012  42.5844997  13.6269988
 134.9830012  41.3904997  14.1129988 134.9464164  42.1762588  13.7422235
 134.7330012  54.0504997  12.1299988 134.9500012  53.1184997  12.0989988
 134.9790012  54.3244997  13.0129988 134.7959549  53.9600636  12.2451763
 140.5950012  52.5014997  -0.6610012 140.8340012  51.7534997  -1.2080012
 140.3260012  52.1134997   0.1719988 140.5913675  52.3466638  -0.6233135
 139.5320012  52.0714997   1.7959988 139.6780012  51.5514997   2.5859988
 139.5290012  52.9784997   2.1019988 139.5515989  52.1228853   1.9456088
 135.9850012  49.3244997   2.3059988 135.2990012  49.6764997   2.8729988
 136.5070012  50.0874997   2.0589988 135.9616852  49.4758578   2.3502118
 143.8160012  41.9864997  12.5849988 144.5150012  42.0604997  13.2349988
 143.4350012  41.1224997  12.7389988 143.8601767  41.8797624  12.6948322
 144.6010012  41.6384997   3.6819988 144.8210012  42.1104997   2.8789988
 145.1590012  42.0334997   4.3519988 144.7064968  41.7564285   3.6627331
 142.2690012  53.7694997   2.5449988 141.4530012  54.2664997   2.5969988
 142.7990012  54.2444997   1.9049988 142.2289161  53.9017722   2.4655956
 141.8010012  43.3664997   4.5169988 142.6130012  43.8714997   4.5629988
 141.5560012  43.2214997   5.4309988 141.8790520  43.4160375   4.6468517
 142.3360012  44.3524997  13.7019988 142.4550012  44.9264997  14.4589988
 142.9920012  43.6644997  13.8159988 142.4409757  44.3381079  13.8210825
 142.6840012  40.4474997   5.4549988 142.3380012  41.0654997   6.0999988
 143.3430012  40.9484997   4.9739988 142.7257826  40.5995802   5.4780971
 139.6080012  54.8134997   2.5269988 139.7680012  55.6124997   2.0259988
 139.4100012  55.1194997   3.4119988 139.6031649  54.9644469   2.5779815
 138.3420012  41.5104997   2.1419988 138.2590012  42.3994997   2.4889988
 139.2320012  41.2454997   2.3739988 138.4509469  41.5961430   2.2207626
 136.6010012  51.9384997   1.2029988 137.1930012  52.6374997   1.4789988
 137.0600012  51.5054997   0.4829988 136.7441142  51.9757049   1.1434830
 134.9170012  44.6024997   0.3189988 134.8720012  45.5414997   0.4969988
 134.0290012  44.3664997   0.0489988 134.7908574  44.6991892   0.3068912
 135.7250012  39.3844997   8.9919988 135.4960012  39.4434997   8.0639988
 135.2820012  38.5924997   9.2979988 135.6338530  39.2855753   8.9064786
 134.6550012  53.3244997   5.1519988 133.8230012  53.7974997   5.1799988
 135.2010012  53.8344997   4.5539988 134.6149739  53.4581871   5.0749716
 133.9430012  55.9374997  16.4819988 134.4840012  55.7204997  17.2419988
 133.4620012  55.1314997  16.2929988 133.9519345  55.7989514  16.5603076
 138.5410012  54.8564997  18.1029988 139.3080012  54.3974997  18.4439988
 138.5190012  54.6304997  17.1729988 138.6431434  54.7630409  18.0240043
 142.6330012  54.3644997  -0.5220012 141.9890012  53.7334997  -0.2010012
 143.3950012  53.8334997  -0.7540012 142.6478077  54.2062920  -0.5093989
 133.8500012  49.7474997  17.4369988 133.9940012  48.8454997  17.1499988
 133.0780012  50.0334997  16.9489988 133.7653322  49.6628261  17.3317881
 138.1920012  50.0914997  -0.4310012 138.2560012  49.2974997   0.0999988
 138.8450012  49.9724997  -1.1210012 138.2890241  49.9667148  -0.4515683
 140.5060012  49.7174997  16.8689988 140.1770012  49.9884997  16.0119988
 140.6580012  48.7764997  16.7819988 140.4814809  49.6273862  16.7398244
 143.5440012  51.1384997  -0.6950012 143.2750012  51.3184997   0.2059988
 143.3380012  50.2124997  -0.8260012 143.4793825  51.0380152  -0.5894786
 134.6830012  46.9474997  16.8569988 135.0910012  46.0904997  16.7359988
 134.4230012  46.9624997  17.7779988 134.7037568  46.8320807  16.9649588
 139.3410012  48.0634997   1.8749988 138.8810012  47.5794997   2.5609988
 139.5960012  47.3954997   1.2389988 139.3124902  47.9068731   1.8829334
 138.6300012  45.9564997  14.2309988 138.0120012  46.6314997  14.5109988
 138.9740012  46.2774997  13.3979988 138.5919615  46.0922721  14.1566581
 140.4120012  46.3064997   0.1369988 140.2320012  46.1524997  -0.7900012
 141.3620012  46.4144997   0.1819988 140.5157776  46.3000175   0.0161843
 143.6500012  48.4284997  17.5079988 144.6030012  48.5114997  17.4809988
 143.4890012  47.7164997  18.1279988 143.7586426  48.3436746  17.5880579
 138.9690012  43.3114997  15.3129988 139.1190012  42.5824997  14.7109988
 138.9720012  44.0884997  14.7539988 138.9899302  43.3167851  15.1550692
 139.3820012  41.6814997  12.8059988 139.9180012  42.1324997  12.1539988
 138.5300012  41.5734997  12.3829988 139.3402178  41.7286390  12.6595756
 140.9640012  47.1204997  13.0449988 141.7140012  46.9644997  12.4719988
 140.6250012  47.9724997  12.7699988 141.0208921  47.2142968  12.9293561
 137.4480012  44.5094997  17.2249988 136.6810012  43.9774997  17.0149988
 138.1270012  44.1994997  16.6249988 137.4347022  44.3947506  17.1151648
 140.1880012  39.1374997  13.2369988 140.0890012  40.0844997  13.1319988
 139.4450012  38.7654997  12.7619988 140.0740564  39.2165902  13.1584560
 141.4520012  43.4594997  16.8009988 141.2160012  43.2394997  17.7029988
 140.6680012  43.2524997  16.2909988 141.3138628  43.4014760  16.8553932
 144.1670012  42.5864997  15.8769988 143.2200012  42.6184997  16.0089988
 144.4800012  41.9614997  16.5299988 144.0795475  42.5063207  15.9834455
 135.6280012  42.4304997  16.9289988 135.8400012  41.7234997  16.3189988
 135.5170012  41.9924997  17.7729988 135.6419721  42.2747084  16.9596843
 140.4090012  38.4314997  15.9089988 141.1210012  37.7914997  15.8949988
 140.3080012  38.6984997  14.9949988 140.4927939  38.3799938  15.7835650
 140.7630012  40.1144997  17.9619988 140.6310012  39.6384997  17.1419988
 140.1640012  40.8584997  17.9069988 140.6639071  40.1499618  17.8422886
 140.3090012  56.9974997   1.1389988 141.2420012  57.1554997   1.2819988
 140.0450012  57.6724997   0.5139988 140.4009510  57.1103611   1.0740741
 133.8780012  51.6334997   0.6209988 134.7920012  51.7124997   0.8949988
 133.8850012  50.9464997  -0.0450012 134.0041131  51.5513961   0.5684393
 132.5270012  57.0264997   5.6989988 131.8800012  56.5644997   5.1659988
 132.8810012  56.3544997   6.2809988 132.4863849  56.8724723   5.7047959
 133.3970012  55.1074997   7.5029988 133.0620012  54.2274997   7.6749988
 133.6190012  55.4524997   8.3679988 133.3811783  55.0337500   7.6434208
 133.4770012  48.1824997   9.9549988 133.6610012  48.1004997   9.0189988
 134.3260012  48.0584997  10.3789988 133.6170139  48.1545003   9.8841455
 133.0740012  43.4534997  16.0959988 133.9940012  43.3314997  16.3319988
 132.6250012  42.7034997  16.4849988 133.1391580  43.3353727  16.1809006
 134.2950012  41.7654997   8.9869988 134.7410012  40.9734997   9.2889988
 134.7620012  42.4814997   9.4179988 134.4190172  41.7540624   9.0864820
 132.5990012  44.7644997  10.0559988 133.0910012  44.5434997   9.2649988
 132.9620012  45.6054997  10.3369988 132.7153126  44.8478357   9.9857531
 132.9130012  41.0224997   4.1099988 131.9880012  41.2314997   3.9809988
 133.3670012  41.5064997   3.4209988 132.8477368  41.1165993   3.9991226
 132.8770012  39.7604997  12.4549988 132.2120012  39.5144997  13.0979988
 132.4340012  40.3824997  11.8769988 132.7260956  39.8108632  12.4649352
 135.0690012  52.9354997  16.5989988 134.2480012  53.1104997  16.1389988
 134.8160012  52.8624997  17.5199988 134.9226164  52.9495622  16.6604923
 138.0230012  53.9104997  12.8579988 137.5980012  54.7194997  12.5749988
 138.9270012  53.9954997  12.5559988 138.0870271  54.0328469  12.7783776
 142.3340012  55.3094997  15.8169988 142.5190012  54.9754997  16.6949988
 143.1800012  55.6184997  15.4949988 142.4737539  55.3056047  15.8935605
 144.6790012  56.5954997  15.0609988 145.3560012  55.9624997  14.8209988
 145.0010012  56.9964997  15.8679988 144.8151637  56.5631154  15.1372793
 135.4250012  57.1664997  12.9049988 134.7040012  57.6064997  12.4539988
 135.0590012  56.9154997  13.7539988 135.2769804  57.1927698  12.9579840
 137.8920012  56.7664997  11.9349988 137.0270012  56.8384997  12.3389988
 137.8370012  57.3134997  11.1509988 137.7662085  56.8502685  11.8843362
 142.6020012  56.6544997  11.1099988 142.1460012  57.1834997  10.4559988
 142.7650012  57.2574997  11.8359988 142.5615585  56.8084468  11.1185062
 134.8390012  55.7894997   9.8149988 134.8210012  55.3644997  10.6729988
 135.6440012  55.4714997   9.4069988 134.9453875  55.6883812   9.8771655
 136.9810012  54.4994997   8.4699988 136.7620012  53.5834997   8.6399988
 137.8050012  54.6394997   8.9359988 137.0624420  54.3930520   8.5562774
 139.5180012  54.9694997   9.3189988 139.7310012  54.0814997   9.0319988
 139.5820012  54.9354997  10.2729988 139.5558232  54.8433102   9.4087397
 143.0260012  40.6334997   8.4629988 142.3520012  40.0044997   8.7189988
 143.5900012  40.1494997   7.8599988 143.0099230  40.4818744   8.4165340
 135.3530012  39.2674997   6.2849988 134.5760012  39.0334997   5.7779988
 135.8830012  38.4704997   6.2939988 135.3182330  39.1276988   6.2167742
 134.1890012  39.0654997   2.0889988 134.6280012  39.6764997   1.4969988
 133.5560012  39.6034997   2.5629988 134.1634514  39.2219257   2.0720930
 139.9320012  39.1944997   6.0989988 140.8070012  39.5824997   6.0689988
 139.7960012  38.9794997   7.0209988 140.0333695  39.2185184   6.2196440
 134.0900012  55.0134997   2.9869988 133.4050012  54.9754997   2.3189988
 134.0940012  55.9264997   3.2749988 133.9968193  55.1317016   2.9345284
 136.0500012  40.9814997   0.5309988 136.5420012  40.3514997   0.0039988
 136.6740012  41.2774997   1.1949988 136.2015446  40.9353199   0.5485980
 141.0760012  41.2744997   2.9879988 141.2540012  40.6284997   3.6709988
 141.0230012  42.1084997   3.4559988 141.0931829  41.2987985   3.1445940
 142.9550012  56.2234997   1.3839988 143.8210012  56.5894997   1.2059988
 142.7080012  55.7834997   0.5699988 143.0402392  56.2141756   1.2496289
 135.3110012  39.7814997  15.8029988 134.9450012  39.0164997  16.2459988
 136.2240012  39.8104997  16.0899988 135.3842790  39.6807224  15.9024070
 137.2840012  39.1324997  17.3389988 138.1820012  38.8584997  17.1539988
 136.8970012  38.3894997  17.8029988 137.3546612  38.9945914  17.3763643
 135.9080012  55.9334997   0.0119988 135.6410012  56.2204997   0.8849988
 136.6800012  55.3874997   0.1639988 135.9757488  55.8990294   0.1521050
  12.4390012  67.2794997   6.2439988  12.5280012  68.2234997   6.1119988
  11.8010012  67.0044997   5.5859988  12.3649081  67.3714830   6.1369614
  11.3720012  66.5344997   9.6629988  11.3340012  65.8884997  10.3679988
  11.0500012  66.0684997   8.8919988  11.3232333  66.3829408   9.6552978
   3.7410012  66.1494997  11.2559988   3.7820012  65.5234997  11.9789988
   4.4440012  66.7734997  11.4379988   3.8416363  66.1481196  11.3796044
  15.0780012  69.4734997   7.9639988  14.6380012  68.7534997   8.4149988
  15.0650012  70.1944997   8.5939988  15.0160226  69.4723731   8.1108494
   4.6640012  70.5994997   9.7909988   4.2950012  69.7974997   9.4209988
   5.6050012  70.4304997   9.8369988   4.7407289  70.4670153   9.7466316
   1.2740012  64.2594997   5.1839988   0.8270012  65.1054997   5.1649988
   0.7130012  63.6794997   4.6679988   1.1369900  64.2969916   5.1116801
   1.9850012  66.4214997   7.3099988   2.1980012  65.6514997   7.8369988
   2.7230012  66.5104997   6.7059988   2.1138496  66.3281394   7.3005300
  12.1900012  74.5784997   8.1769988  12.8100012  73.9014997   7.9029988
  11.9820012  74.3604997   9.0849988  12.2466904  74.4563870   8.2623365
   9.7620012  68.9674997  10.0689988  10.0660012  68.2814997   9.4739988
  10.4830012  69.0854997  10.6869988   9.9010671  68.8896305  10.0711816
  18.4250012  60.5684997  10.9299988  18.4740012  61.1784997  11.6659988
  18.8500012  61.0294997  10.2069988  18.4891824  60.7143741  10.9330205
  12.9030012  63.3614997  10.3969988  13.0450012  62.4154997  10.4169988
  12.7960012  63.5684997   9.4679988  12.9079864  63.2599534  10.2742339
   6.0570012  61.4624997   7.6689988   6.1010012  62.3224997   7.2509988
   5.6000012  60.9104997   7.0349988   6.0012185  61.5055799   7.5260299
  13.7800012  61.5934997   6.0699988  14.4260012  61.2644997   6.6949988
  14.2900012  62.1114997   5.4469988  13.9374264  61.6184611   6.0713862
   2.6780012  63.8594997   8.4309988   3.3310012  63.3094997   8.8629988
   2.7020012  63.5854997   7.5139988   2.7706683  63.7471466   8.3662123
   7.8340012  65.4094997   7.6459988   8.4500012  64.8834997   8.1559988
   7.2480012  64.7694997   7.2429988   7.8390810  65.2509208   7.6613173
  18.8160012  62.0464997  13.1659988  18.1280012  62.7044997  13.0699988
  18.8320012  61.8494997  14.1019988  18.7238525  62.1100462  13.2794808
   4.8680012  60.3804997  11.7429988   4.6490012  60.9104997  10.9769988
   4.2000012  60.6074997  12.3899988   4.7477600  60.4836906  11.7256379
  12.2370012  69.8804997   5.2869988  11.9410012  69.5584997   4.4359988
  11.9120012  70.7804997   5.3279988  12.1526371  69.9580215   5.1761801
   7.4370012  68.0564997  12.0299988   6.6970012  68.6544997  12.1339988
   8.1510012  68.6104997  11.7149988   7.4322237  68.2132831  12.0016465
  15.5440012  60.8844997   8.0499988  15.3280012  60.1184997   8.5829988
  16.1990012  61.3564997   8.5629988  15.6030632  60.8435889   8.1922861
   4.4610012  62.2724997   9.6949988   5.0750012  62.9054997  10.0689988
   4.9730012  61.8004997   9.0389988   4.6142296  62.2952370   9.6574252
   5.8440012  70.0204997  12.8179988   5.8390012  70.9004997  12.4399988
   4.9910012  69.9374997  13.2429988   5.7279464  70.1296117  12.8237907
   1.9650012  69.6914997   3.5999988   1.6930012  69.9204997   2.7109988
   2.0110012  70.5294997   4.0599988   1.9340094  69.8361213   3.5405697
  15.5900012  71.3134997  10.3119988  14.6490012  71.3714997  10.4739988
  15.8670012  72.2194997  10.1749988  15.4984679  71.4439443  10.3156815
  15.8910012  59.5994997  11.7299988  15.1550012  60.2104997  11.6919988
  16.5740012  60.0144997  11.2029988  15.8826541  59.7391374  11.6535832
   8.8940012  57.6864997   9.1959988   8.7770012  56.7374997   9.1409988
   8.0390012  58.0184997   9.4689988   8.7623733  57.6015409   9.2253897
  13.8420012  73.0944997   6.9379988  14.2680012  72.3874997   6.4529988
  14.1590012  73.8954997   6.5209988  13.9431019  73.1060994   6.8153130
  15.0020012  70.9954997   5.4459988  14.7440012  70.3054997   4.8349988
  15.0730012  70.5524997   6.2919988  14.9762856  70.8412124   5.4766885
  16.6880012  69.5614997  13.9239988  16.8280012  68.9704997  13.1839988
  16.8550012  70.4344997  13.5669988  16.7296778  69.5986426  13.7746965
  11.1610012  66.5234997   3.6959988  10.4490012  67.0584997   3.3439988
  11.8520012  66.5794997   3.0359988  11.1570132  66.6042543   3.5586289
  11.2140012  64.9814997   0.7349988  11.9150012  65.0034997   1.3859988
  11.5170012  64.3534997   0.0789988  11.3507830  64.8996566   0.7353711
  18.5300012  65.9014997  11.9899988  17.8770012  66.5964997  12.0789988
  18.9950012  66.1114997  11.1799988  18.5035390  66.0249425  11.8926883
  14.5660012  66.7334997   4.6479988  13.8340012  66.9614997   5.2209988
  15.0140012  66.0194997   5.1029988  14.5263095  66.6682571   4.7879119
  14.4640012  64.9074997  13.7149988  14.5440012  65.6704997  14.2869988
  13.8620012  65.1864997  13.0249988  14.3935756  65.0497134  13.7000589
   6.2120012  67.3634997   6.5299988   5.8810012  66.9934997   5.7119988
   6.8000012  66.6934997   6.8769988   6.2461873  67.2221156   6.4648102
   7.5780012  70.7914997   9.2119988   7.4840012  70.2134997   8.4549988
   8.3080012  70.4204997   9.7079988   7.6637981  70.6622390   9.1754165
   6.5780012  66.1324997  10.1639988   7.1440012  66.2534997   9.4009988
   6.8970012  66.7694997  10.8029988   6.6985786  66.2351884  10.1460040
  12.8870012  71.6354997  10.8979988  12.6470012  72.2974997  11.5459988
  12.6890012  70.8014997  11.3229988  12.8273808  71.6133134  11.0441524
   7.4580012  70.5314997  14.8809988   7.1470012  71.3134997  15.3359988
   6.8080012  70.3784997  14.1949988   7.3275558  70.6179105  14.8505871
  13.4370012  65.8954997   2.3329988  14.0170012  66.0454997   3.0799988
  13.8510012  66.3664997   1.6099988  13.5722830  65.9796841   2.3374134
   4.3780012  66.7294997  14.1099988   4.4490012  67.3804997  14.8079988
   3.4880012  66.8324997  13.7749988   4.2673117  66.8325936  14.1602700
  11.1640012  72.6324997   5.7679988  11.6380012  72.9274997   6.5459988
  10.6010012  73.3704997   5.5349988  11.1527653  72.7726932   5.8430136
   5.6980012  72.6034997  15.6439988   5.7050012  72.4674997  14.6969988
   4.7820012  72.4854997  15.8959988   5.5751714  72.5689430  15.5484666
  17.1360012  57.6454997   2.1459988  16.2360012  57.7844997   2.4409988
  17.3880012  58.4764997   1.7439988  17.0468702  57.7769074   2.1320205
   5.2020012  66.4334997   4.1199988   4.9100012  67.2014997   3.6289988
   4.5280012  65.7734997   3.9569988   5.0709081  66.4494406   4.0307340
  18.3250012  72.0114997   0.5219988  18.3990012  72.9504997   0.6929988
  19.2310012  71.7064997   0.4659988  18.4575100  72.0986722   0.5378119
   1.2950012  68.7964997  12.9349988   0.7940012  68.7684997  12.1199988
   1.3000012  67.8904997  13.2439988   1.2271526  68.6702278  12.8652872
   1.0450012  71.5764997   9.8189988   1.9910012  71.4324997   9.7999988
   0.9330012  72.3604997  10.3559988   1.1592727  71.6628046   9.8890072
  19.2430012  72.2424997  15.5009988  19.1940012  71.2874997  15.4639988
  18.4160012  72.5104997  15.9019988  19.1244940  72.1478998  15.5501375
  10.2220012  71.8164997  14.3769988  10.3090012  72.6424997  14.8519988
   9.3580012  71.4864997  14.6259988  10.1171964  71.8849878  14.4756549
  10.6360012  75.5884997   4.1829988  10.5610012  75.4674997   3.2369988
  10.6690012  76.5384997   4.3019988  10.6301848  75.7002500   4.0694834
   4.2890012  74.3774997   5.9639988   4.4420012  74.0294997   6.8429988
   3.4390012  74.0214997   5.7089988   4.1948962  74.2816650   6.0498340
  13.7380012  74.7424997   1.1849988  14.1130012  73.9984997   0.7149988
  13.7420012  74.4724997   2.1039988  13.7898915  74.6041486   1.2447824
  13.4070012  74.6684997   3.9349988  12.4710012  74.7684997   4.1129988
  13.6870012  73.9594997   4.5129988  13.3168255  74.5862711   4.0375391
  16.3950012  63.7354997  15.9809988  15.9880012  64.2164997  15.2599988
  16.4360012  62.8304997  15.6729988  16.3448437  63.6789374  15.8406683
   3.5440012  70.1194997  13.9779988   3.7600012  69.7584997  14.8369988
   2.6890012  69.7454997  13.7679988   3.4579292  70.0194111  14.0673386
   6.1630012  58.5894997   9.9729988   5.3010012  58.5024997   9.5659988
   6.1400012  59.4454997  10.4009988   6.0420330  58.6932765   9.9751863
  10.8260012  58.3114997  13.3479988  11.2460012  57.8964997  14.1009988
   9.8930012  58.1334997  13.4649988  10.7573644  58.2305900  13.4669539
  14.1520012  62.0674997  14.2009988  13.6380012  61.9414997  14.9989988
  13.9970012  62.9794997  13.9569988  14.0606852  62.1736132  14.2772158
  14.9150012  66.9284997  -0.0370012  14.9570012  66.7054997  -0.9670012
  15.7640012  67.3274997   0.1529988  15.0355396  66.9519155  -0.1386373
  10.4870012  60.8044997   0.6329988  10.2340012  60.8234997   1.5559988
  10.2310012  59.9324997   0.3319988  10.4177790  60.6892437   0.7186263
   6.2540012  63.5554997  11.0679988   5.6120012  63.5144997  11.7769988
   6.2910012  64.4814997  10.8309988   6.1711324  63.6751559  11.1329824
   6.2510012  63.7764997   5.9799988   5.3580012  63.4354997   5.9219988
   6.7010012  63.3994997   5.2249988   6.1897305  63.6788484   5.8699177
  11.7860012  64.1924997   4.7969988  11.3770012  65.0074997   4.5059988
  12.5070012  64.0524997   4.1829988  11.8274537  64.2852018   4.6741342
  10.8880012  64.3674997  16.2849988  10.3260012  63.6634997  16.6059988
  11.7150012  64.2474997  16.7529988  10.9227095  64.2547883  16.3922330
  12.7910012  63.6384997   7.6109988  12.5960012  64.2434997   6.8959988
  12.9720012  62.8044997   7.1769988  12.7887614  63.6086300   7.4544405
   4.0040012  63.8754997  12.9349988   3.9660012  64.2754997  13.8039988
   3.5130012  63.0584997  13.0259988   3.9324684  63.8198069  13.0661059
   7.3700012  61.2494997  -0.2660012   6.9390012  60.8044997   0.4639988
   6.6520012  61.6214997  -0.7780012   7.2139438  61.2388940  -0.2353201
   0.6120012  60.9914997   6.7859988   1.2430012  60.9624997   7.5049988
   1.0610012  60.5664997   6.0559988   0.7590774  60.9300492   6.7856553
   1.8860012  61.7374997   2.2099988   2.3600012  62.3284997   1.6249988
   1.1690012  62.2684997   2.5569988   1.8539341  61.8900867   2.1768836
  12.0550012  65.2764997  12.2829988  12.3780012  64.6454997  11.6399988
  11.6150012  64.7414997  12.9429988  12.0396895  65.1178441  12.2842850
   8.8320012  61.2034997   7.0669988   7.9210012  61.2604997   7.3549988
   9.3380012  61.1434997   7.8769988   8.7755413  61.2031985   7.2160622
   3.6610012  62.8324997   5.8929988   2.7710012  62.9324997   5.5529988
   3.9570012  61.9904997   5.5469988   3.5792823  62.7323545   5.7997213
   7.3140012  62.8324997   3.5499988   8.2450012  62.9614997   3.7279988
   7.0990012  63.5024997   2.8999988   7.4124247  62.9406565   3.4865747
  13.2370012  60.4384997  10.3309988  12.5610012  60.5694997  10.9949988
  12.7520012  60.2834997   9.5209988  13.0787145  60.4354905  10.3124517
   5.9880012  64.0274997   1.1169988   5.4450012  63.6474997   0.4249988
   6.8210012  64.2214997   0.6879988   6.0264399  64.0018124   0.9644526
  16.5250012  76.1104997  16.6079988  16.7250012  76.5344997  15.7729988
  17.1800012  76.4534997  17.2149988  16.6410051  76.2149648  16.5757836
   4.1230012  68.5844997  16.2159988   4.8550012  68.8384997  16.7769988
   3.3430012  68.7884997  16.7309988   4.1178232  68.6469177  16.3625760
  10.1520012  63.9914997   8.9539988  10.7170012  63.4444997   8.4069988
  10.0050012  63.4694997   9.7419988  10.2092918  63.8462024   8.9858454
   5.1540012  60.1274997   5.3719988   4.8370012  59.2254997   5.3369988
   5.9360012  60.1294997   4.8189988   5.2162284  60.0041628   5.2924783
   8.7790012  62.3794997  11.3679988   7.9430012  62.8334997  11.4779988
   9.3030012  62.6554997  12.1199988   8.7354414  62.4789376  11.4847136
   9.3230012  68.5924997   3.0519988   8.5780012  68.0854997   2.7299988
   9.1890012  68.6414997   3.9989988   9.2028776  68.5296940   3.1358647
  16.4730012  67.7254997  11.8389988  17.1150012  68.1824997  11.2949988
  15.6430012  67.8384997  11.3759988  16.4485963  67.8032704  11.7020177
  13.2210012  61.4064997   1.2519988  12.2820012  61.5184997   1.0999988
  13.5180012  62.2634997   1.5579988  13.1327666  61.5376443   1.2725768
  10.8420012  68.7764997  14.2889988  10.4970012  68.3954997  15.0959988
  10.6420012  69.7104997  14.3609988  10.7678061  68.8505228  14.4090961
  13.9390012  63.2734997   2.9119988  14.8310012  63.1364997   3.2309988
  13.9960012  64.0644997   2.3759988  14.0686285  63.3616660   2.8831690
   4.4480012  67.8874997   8.8219988   5.1930012  67.8854997   8.2209988
   4.5260012  67.0644997   9.3039988   4.5605518  67.7759315   8.8048929
  11.4490012  70.0514997   2.0779988  11.1530012  70.8774997   2.4589988
  10.7460012  69.4314997   2.2739988  11.3134914  70.0808199   2.1566443
   1.4560012  66.3484997  14.1369988   1.6790012  65.9304997  14.9689988
   0.8540012  65.7354997  13.7139988   1.4051759  66.2084668  14.1937022
   8.4720012  65.8654997  16.3499988   8.1760012  65.6994997  15.4549988
   9.4040012  65.6454997  16.3389988   8.5574166  65.8130640  16.2260536
  13.0930012  71.2384997  14.2399988  12.1920012  71.4214997  13.9719988
  13.1270012  71.4974997  15.1609988  12.9743041  71.2985512  14.3278197
  18.8240012  63.4834997   2.6069988  18.2700012  63.0874997   1.9349988
  18.9240012  64.3934997   2.3289988  18.7617059  63.5523586   2.4774401
  18.7870012  69.2834997  15.4439988  17.9360012  69.5214997  15.0769988
  19.3780012  69.2664997  14.6909988  18.7502487  69.3138258  15.2918893
  17.1190012  72.2694997   3.0719988  16.7460012  71.4434997   3.3809988
  17.3970012  72.0864997   2.1749988  17.1055630  72.1317303   2.9929626
  14.2800012  67.0774997  10.0929988  13.3510012  66.8454997  10.0659988
  14.7310012  66.3004997   9.7629988  14.2139216  66.9407238  10.0446917
   6.8230012  71.4054997   6.2259988   7.3500012  72.1784997   6.0259988
   5.9430012  71.6304997   5.9249988   6.7761773  71.5418005   6.1579010
   2.5780012  66.2674997   0.8129988   3.1940012  66.8944997   1.1929988
   1.7160012  66.5834997   1.0849988   2.5457698  66.3959430   0.9017183
   8.2500012  69.0684997   5.8029988   8.0090012  69.9934997   5.8439988
   7.5090012  68.6094997   6.1989988   8.1168409  69.1331421   5.8621377
   8.7650012  73.2174997  12.1179988   9.1270012  74.0724997  11.8839988
   9.2960012  72.9254997  12.8579988   8.8864473  73.2951060  12.1860855
   6.9330012  74.0904997   5.3479988   5.9830012  74.1954997   5.3989988
   7.2850012  74.9104997   5.6929988   6.8504203  74.2158314   5.4016650
  12.3090012  69.3164997  11.8179988  11.8830012  69.0894997  12.6449988
  12.8890012  68.5784997  11.6359988  12.3291868  69.1855299  11.9065830
  14.5120012  70.2454997   0.8919988  14.8650012  69.8654997   1.6969988
  13.5630012  70.1524997   0.9789988  14.4320441  70.1809596   1.0138559
  14.9670012  73.8684997  14.2879988  14.3660012  73.3134997  13.7919988
  15.2490012  74.5354997  13.6619988  14.9228519  73.8826841  14.1354952
  19.0150012  74.7254997   1.0929988  19.7590012  75.3114997   0.9529988
  18.3210012  75.2934997   1.4269988  19.0230292  74.8825582   1.1189961
   3.0900012  61.1014997  13.6949988   2.1970012  61.4404997  13.6269988
   2.9910012  60.2464997  14.1129988   2.9544164  61.0322588  13.7422235
  15.3780012  68.9184997   3.1189988  15.1000012  68.1904997   3.6749988
  16.3050012  69.0374997   3.3239988  15.4653124  68.8348802   3.2228845
   2.7410012  72.9064997  12.1299988   2.9580012  71.9744997  12.0989988
   2.9870012  73.1804997  13.0129988   2.8039549  72.8160636  12.2451763
   8.6030012  71.3574997  -0.6610012   8.8420012  70.6094997  -1.2080012
   8.3340012  70.9694997   0.1719988   8.5993675  71.2026638  -0.6233135
   7.5400012  70.9274997   1.7959988   7.6860012  70.4074997   2.5859988
   7.5370012  71.8344997   2.1019988   7.5595989  70.9788853   1.9456088
   3.9930012  68.1804997   2.3059988   3.3070012  68.5324997   2.8729988
   4.5150012  68.9434997   2.0589988   3.9696852  68.3318578   2.3502118
  11.8240012  60.8424997  12.5849988  12.5230012  60.9164997  13.2349988
  11.4430012  59.9784997  12.7389988  11.8681767  60.7357624  12.6948322
  12.6090012  60.4944997   3.6819988  12.8290012  60.9664997   2.8789988
  13.1670012  60.8894997   4.3519988  12.7144968  60.6124285   3.6627331
  10.2770012  72.6254997   2.5449988   9.4610012  73.1224997   2.5969988
  10.8070012  73.1004997   1.9049988  10.2369161  72.7577722   2.4655956
   9.8090012  62.2224997   4.5169988  10.6210012  62.7274997   4.5629988
   9.5640012  62.0774997   5.4309988   9.8870520  62.2720375   4.6468517
  10.3440012  63.2084997  13.7019988  10.4630012  63.7824997  14.4589988
  11.0000012  62.5204997  13.8159988  10.4489757  63.1941079  13.8210825
  10.6920012  59.3034997   5.4549988  10.3460012  59.9214997   6.0999988
  11.3510012  59.8044997   4.9739988  10.7337826  59.4555802   5.4780971
   7.6160012  73.6694997   2.5269988   7.7760012  74.4684997   2.0259988
   7.4180012  73.9754997   3.4119988   7.6111649  73.8204469   2.5779815
   6.3500012  60.3664997   2.1419988   6.2670012  61.2554997   2.4889988
   7.2400012  60.1014997   2.3739988   6.4589469  60.4521430   2.2207626
  16.5490012  61.1154997  14.5369988  15.6320012  61.3784997  14.4489988
  16.8840012  61.1124997  13.6399988  16.4689900  61.1510224  14.4037919
  15.1510012  64.8664997   8.6319988  14.3530012  64.4514997   8.3039988
  15.5960012  64.1754997   9.1229988  15.1019885  64.7163543   8.6534889
   4.6090012  70.7944997   1.2029988   5.2010012  71.4934997   1.4789988
   5.0680012  70.3614997   0.4829988   4.7521142  70.8317049   1.1434830
   2.9250012  63.4584997   0.3189988   2.8800012  64.3974997   0.4969988
   2.0370012  63.2224997   0.0489988   2.7988574  63.5551892   0.3068912
  16.2370012  74.1224997  10.2549988  16.0820012  74.8004997   9.5979988
  17.1700012  74.1944997  10.4579988  16.3418500  74.2250170  10.1925119
   3.7330012  58.2404997   8.9919988   3.5040012  58.2994997   8.0639988
   3.2900012  57.4484997   9.2979988   3.6418530  58.1415753   8.9064786
   2.6630012  72.1804997   5.1519988   1.8310012  72.6534997   5.1799988
   3.2090012  72.6904997   4.5539988   2.6229739  72.3141871   5.0749716
   1.9510012  74.7934997  16.4819988   2.4920012  74.5764997  17.2419988
   1.4700012  73.9874997  16.2929988   1.9599345  74.6549514  16.5603076
   6.5490012  73.7124997  18.1029988   7.3160012  73.2534997  18.4439988
   6.5270012  73.4864997  17.1729988   6.6511434  73.6190409  18.0240043
  10.6410012  73.2204997  -0.5220012   9.9970012  72.5894997  -0.2010012
  11.4030012  72.6894997  -0.7540012  10.6558077  73.0622920  -0.5093989
  13.1260012  72.0924997  16.8319988  12.7750012  71.2364997  17.0749988
  13.8520012  72.2354997  17.4389988  13.1760769  71.9945636  16.9473619
  15.2450012  73.0374997  -0.2880012  15.5280012  72.2434997   0.1639988
  15.9850012  73.2704997  -0.8490012  15.3837486  72.9602803  -0.3019302
   1.8580012  68.6034997  17.4369988   2.0020012  67.7014997  17.1499988
   1.0860012  68.8894997  16.9489988   1.7733322  68.5188261  17.3317881
   6.2000012  68.9474997  -0.4310012   6.2640012  68.1534997   0.0999988
   6.8530012  68.8284997  -1.1210012   6.2970241  68.8227148  -0.4515683
   8.5140012  68.5734997  16.8689988   8.1850012  68.8444997  16.0119988
   8.6660012  67.6324997  16.7819988   8.4894809  68.4833862  16.7398244
  11.5520012  69.9944997  -0.6950012  11.2830012  70.1744997   0.2059988
  11.3460012  69.0684997  -0.8260012  11.4873825  69.8940152  -0.5894786
  14.2480012  68.4894997  14.2529988  14.9940012  69.0774997  14.1329988
  13.4910012  69.0714997  14.3159988  14.2477554  68.6487011  14.2450907
   2.6910012  65.8034997  16.8569988   3.0990012  64.9464997  16.7359988
   2.4310012  65.8184997  17.7779988   2.7117568  65.6880807  16.9649588
   7.3490012  66.9194997   1.8749988   6.8890012  66.4354997   2.5609988
   7.6040012  66.2514997   1.2389988   7.3204902  66.7628731   1.8829334
   6.6380012  64.8124997  14.2309988   6.0200012  65.4874997  14.5109988
   6.9820012  65.1334997  13.3979988   6.5999615  64.9482721  14.1566581
   8.4200012  65.1624997   0.1369988   8.2400012  65.0084997  -0.7900012
   9.3700012  65.2704997   0.1819988   8.5237776  65.1560175   0.0161843
  11.6580012  67.2844997  17.5079988  12.6110012  67.3674997  17.4809988
  11.4970012  66.5724997  18.1279988  11.7666426  67.1996746  17.5880578
  17.8100012  67.5174997  -0.4170012  17.5360012  67.0924997  -1.2300012
  17.8490012  68.4484997  -0.6340012  17.7777699  67.5852484  -0.5576390
   6.9770012  62.1674997  15.3129988   7.1270012  61.4384997  14.7109988
   6.9800012  62.9444997  14.7539988   6.9979302  62.1727851  15.1550692
   7.3900012  60.5374997  12.8059988   7.9260012  60.9884997  12.1539988
   6.5380012  60.4294997  12.3829988   7.3482178  60.5846390  12.6595756
   8.9720012  65.9764997  13.0449988   9.7220012  65.8204997  12.4719988
   8.6330012  66.8284997  12.7699988   9.0288921  66.0702968  12.9293561
  13.3870012  63.7914997  18.0739988  13.5800012  62.8604997  17.9619988
  14.2450012  64.2164997  18.0639988  13.5293020  63.7216389  18.0573361
  14.7040012  66.5804997  16.1509988  14.4230012  67.2894997  15.5739988
  15.6470012  66.5074997  15.9999988  14.7929027  66.6677646  16.0515551
   5.4560012  63.3654997  17.2249988   4.6890012  62.8334997  17.0149988
   6.1350012  63.0554997  16.6249988   5.4427022  63.2507506  17.1151648
   8.1960012  57.9934997  13.2369988   8.0970012  58.9404997  13.1319988
   7.4530012  57.6214997  12.7619988   8.0820564  58.0725902  13.1584560
   9.4600012  62.3154997  16.8009988   9.2240012  62.0954997  17.7029988
   8.6760012  62.1084997  16.2909988   9.3218628  62.2574760  16.8553932
  12.1750012  61.4424997  15.8769988  11.2280012  61.4744997  16.0089988
  12.4880012  60.8174997  16.5299988  12.0875475  61.3623207  15.9834455
  13.8090012  60.0764997  17.8819988  13.7130012  59.1244997  17.8759988
  13.4880012  60.3454997  18.7419988  13.7524070  59.9824035  17.9975441
   3.6360012  61.2864997  16.9289988   3.8480012  60.5794997  16.3189988
   3.5250012  60.8484997  17.7729988   3.6499721  61.1307084  16.9596843
   8.4170012  57.2874997  15.9089988   9.1290012  56.6474997  15.8949988
   8.3160012  57.5544997  14.9949988   8.5007939  57.2359938  15.7835650
   8.7710012  58.9704997  17.9619988   8.6390012  58.4944997  17.1419988
   8.1720012  59.7144997  17.9069988   8.6719071  59.0059618  17.8422886
   8.3170012  75.8534997   1.1389988   9.2500012  76.0114997   1.2819988
   8.0530012  76.5284997   0.5139988   8.4089510  75.9663611   1.0740741
   1.8860012  70.4894997   0.6209988   2.8000012  70.5684997   0.8949988
   1.8930012  69.8024997  -0.0450012   2.0121131  70.4073961   0.5684393
   0.5350012  75.8824997   5.6989988  -0.1119988  75.4204997   5.1659988
   0.8890012  75.2104997   6.2809988   0.4943849  75.7284723   5.7047959
   1.4050012  73.9634997   7.5029988   1.0700012  73.0834997   7.6749988
   1.6270012  74.3084997   8.3679988   1.3891783  73.8897500   7.6434208
  18.9530012  74.7724997  10.4839988  18.9320012  74.9574997  11.4229988
  19.6440012  75.3414997  10.1429988  19.0434618  74.8746606  10.5663864
  18.5170012  74.3404997  13.4059988  18.0290012  73.6044997  13.0349988
  19.0660012  73.9464997  14.0839988  18.5244872  74.1866249  13.4469160
  16.9670012  70.1294997  18.0439988  16.1010012  70.0244997  18.4379988
  17.3440012  70.8884997  18.4899988  16.8993308  70.2176900  18.1582393
  18.2680012  68.3864997   3.5579988  19.1180012  68.8074997   3.6849988
  18.2740012  67.6464997   4.1649988  18.3851372  68.3440803   3.6574344
  18.6630012  66.4394997   5.3819988  17.9360012  65.9604997   5.7789988
  19.2440012  66.6454997   6.1139988  18.6419375  66.4017090   5.5354129
  18.4220012  69.2244997  10.3289988  19.2550012  68.8464997  10.0489988
  18.5340012  70.1674997  10.2099988  18.5512647  69.3002218  10.2745487
  16.9080012  72.1024997  12.6359988  16.2610012  72.4274997  13.2619988
  16.3910012  71.6624997  11.9619988  16.7494029  72.0875004  12.6305827
  18.9310012  66.3404997   1.7729988  18.4090012  66.6974997   1.0539988
  18.8980012  67.0154997   2.4509988  18.8551634  66.4805413   1.7663145
  17.2800012  63.5804997   0.3239988  17.3760012  64.2474997  -0.3570012
  17.1400012  62.7644997  -0.1580012  17.2742135  63.5614500   0.1658491
  16.4490012  64.9604997   5.9449988  16.2990012  64.0154997   5.9239988
  16.0960012  65.2414997   6.7879988  16.3806625  64.8690441   6.0562346
   1.4850012  67.0384997   9.9549988   1.6690012  66.9564997   9.0189988
   2.3340012  66.9144997  10.3789988   1.6250139  67.0105003   9.8841455
  17.3060012  66.9304997  15.5829988  17.8890012  66.1964997  15.7749988
  17.8700012  67.7024997  15.6299988  17.4619769  66.9344227  15.6156159
  18.8020012  64.8334997  16.2679988  17.9390012  64.4544997  16.1019988
  19.4070012  64.0944997  16.1939988  18.7655979  64.6818023  16.2352817
  16.5270012  60.9884997  -0.5590012  17.1380012  60.6174997   0.0779988
  15.6910012  60.5674997  -0.3630012  16.4975032  60.8807554  -0.4452965
  16.1600012  62.5434997   4.4069988  16.4400012  61.6364997   4.5309988
  16.9190012  62.9774997   4.0179988  16.3009277  62.4780942   4.3713682
  16.7720012  63.1244997   9.8429988  17.7050012  63.3364997   9.8089988
  16.5370012  63.2264997  10.7649988  16.8678036  63.1672769   9.9629976
  16.8010012  63.8614997  12.6189988  15.9580012  64.1294997  12.9849988
  17.2430012  64.6834997  12.4079988  16.7454158  64.0093291  12.6405491
   1.0820012  62.3094997  16.0959988   2.0020012  62.1874997  16.3319988
   0.6330012  61.5594997  16.4849988   1.1471580  62.1913727  16.1809006
  19.0840012  57.8414997  17.9719988  19.4340012  57.1874997  17.3669988
  19.2310012  58.6784997  17.5329988  19.1518419  57.8651591  17.8297118
  16.7730012  59.8064997   4.4549988  16.9560012  59.3574997   5.2809988
  16.1740012  59.2214997   3.9919988  16.7170202  59.6659975   4.5053275
   2.3030012  60.6214997   8.9869988   2.7490012  59.8294997   9.2889988
   2.7700012  61.3374997   9.4179988   2.4270172  60.6100624   9.0864820
   0.6070012  63.6204997  10.0559988   1.0990012  63.3994997   9.2649988
   0.9700012  64.4614997  10.3369988   0.7233126  63.7038357   9.9857531
  18.6040012  59.9504997  16.3219988  17.6860012  60.2214997  16.2859988
  18.7270012  59.4154997  15.5369988  18.4951066  59.9152892  16.2110487
  18.6400012  59.8734997   0.9829988  19.0520012  59.1524997   0.5079988
  19.3220012  60.5434997   1.0419988  18.7885885  59.8652368   0.9258915
   0.9210012  59.8784997   4.1099988  -0.0039988  60.0874997   3.9809988
   1.3750012  60.3624997   3.4209988   0.8557368  59.9725993   3.9991226
  15.6920012  74.8624997   6.0559988  16.3440012  74.5154997   5.4479988
  16.2020012  75.3514997   6.7019988  15.8502637  74.8810597   6.0600236
   0.8850012  58.6164997  12.4549988   0.2200012  58.3704997  13.0979988
   0.4420012  59.2384997  11.8769988   0.7340956  58.6668632  12.4649352
   3.0770012  71.7914997  16.5989988   2.2560012  71.9664997  16.1389988
   2.8240012  71.7184997  17.5199988   2.9306164  71.8055622  16.6604923
   6.0310012  72.7664997  12.8579988   5.6060012  73.5754997  12.5749988
   6.9350012  72.8514997  12.5559988   6.0950271  72.8888469  12.7783776
  10.3420012  74.1654997  15.8169988  10.5270012  73.8314997  16.6949988
  11.1880012  74.4744997  15.4949988  10.4817539  74.1616047  15.8935605
  12.6870012  75.4514997  15.0609988  13.3640012  74.8184997  14.8209988
  13.0090012  75.8524997  15.8679988  12.8231637  75.4191154  15.1372793
  17.6040012  58.0404997  14.1409988  16.7920012  58.3654997  13.7529988
  17.8370012  57.2804997  13.6079988  17.5243423  57.9822436  14.0158253
   3.4330012  76.0224997  12.9049988   2.7120012  76.4624997  12.4539988
   3.0670012  75.7714997  13.7539988   3.2849804  76.0487698  12.9579840
   5.9000012  75.6224997  11.9349988   5.0350012  75.6944997  12.3389988
   5.8450012  76.1694997  11.1509988   5.7742085  75.7062685  11.8843362
  10.6100012  75.5104997  11.1099988  10.1540012  76.0394997  10.4559988
  10.7730012  76.1134997  11.8359988  10.5695585  75.6644468  11.1185062
  12.9380012  74.3884997  12.0549988  12.0330012  74.5534997  11.7899988
  13.3670012  75.2414997  11.9899988  12.8720799  74.5264483  12.0099182
  15.5420012  75.9584997  12.3499988  15.3600012  76.8744997  12.1399988
  15.7190012  75.5484997  11.5039988  15.5410210  76.0284822  12.2067885
   2.8470012  74.6454997   9.8149988   2.8290012  74.2204997  10.6729988
   3.6520012  74.3274997   9.4069988   2.9533875  74.5443812   9.8771655
   4.9890012  73.3554997   8.4699988   4.7700012  72.4394997   8.6399988
   5.8130012  73.4954997   8.9359988   5.0704420  73.2490520   8.5562774
   7.5260012  73.8254997   9.3189988   7.7390012  72.9374997   9.0319988
   7.5900012  73.7914997  10.2729988   7.5638231  73.6993102   9.4087397
  11.0340012  59.4894997   8.4629988  10.3600012  58.8604997   8.7189988
  11.5980012  59.0054997   7.8599988  11.0179230  59.3378744   8.4165340
  16.1770012  57.5974997   8.5759988  16.7810012  58.1444997   8.0739988
  15.3070012  57.9164997   8.3359988  16.1421241  57.7155806   8.4747654
  17.9040012  58.7354997   6.9089988  18.5160012  58.2214997   6.3829988
  18.2860012  59.6134997   6.9329988  18.0394540  58.7837140   6.8401830
   3.3610012  58.1234997   6.2849988   2.5840012  57.8894997   5.7779988
   3.8910012  57.3264997   6.2939988   3.3262330  57.9836988   6.2167742
   2.1970012  57.9214997   2.0889988   2.6360012  58.5324997   1.4969988
   1.5640012  58.4594997   2.5629988   2.1714514  58.0779257   2.0720930
   7.9400012  58.0504997   6.0989988   8.8150012  58.4384997   6.0689988
   7.8040012  57.8354997   7.0209988   8.0413695  58.0745184   6.2196440
  13.4970012  58.0804997   7.7479988  13.5730012  58.1754997   6.7979988
  13.2220012  57.1724997   7.8769988  13.4702321  57.9707867   7.6355079
  14.8500012  58.1064997   3.4399988  14.1480012  58.7214997   3.2309988
  14.4060012  57.2684997   3.5709988  14.6936330  58.0775783   3.4290328
   2.0980012  73.8694997   2.9869988   1.4130012  73.8314997   2.3189988
   2.1020012  74.7824997   3.2749988   2.0048193  73.9877016   2.9345284
   4.0580012  59.8374997   0.5309988   4.5500012  59.2074997   0.0039988
   4.6820012  60.1334997   1.1949988   4.2095446  59.7913199   0.5485980
   9.0840012  60.1304997   2.9879988   9.2620012  59.4844997   3.6709988
   9.0310012  60.9644997   3.4559988   9.1011829  60.1547985   3.1445940
  10.9630012  75.0794997   1.3839988  11.8290012  75.4454997   1.2059988
  10.7160012  74.6394997   0.5699988  11.0482392  75.0701756   1.2496289
  17.6720012  74.6424997   4.0629988  17.4770012  73.8944997   3.4979988
  17.6330012  75.4004997   3.4799988  17.6400380  74.6426099   3.9068384
   3.3190012  58.6374997  15.8029988   2.9530012  57.8724997  16.2459988
   4.2320012  58.6664997  16.0899988   3.3922790  58.5367224  15.9024070
   5.2920012  57.9884997  17.3389988   6.1900012  57.7144997  17.1539988
   4.9050012  57.2454997  17.8029988   5.3626612  57.8505914  17.3763643
   3.9160012  74.7894997   0.0119988   3.6490012  75.0764997   0.8849988
   4.6880012  74.2434997   0.1639988   3.9837488  74.7550294   0.1521050
  13.7130012  57.3204997  17.5209988  13.7900012  56.8944997  18.3749988
  14.6070012  57.3344997  17.1779988  13.8443428  57.2640879  17.5915310
  16.8890012  73.3934997  16.2129988  16.1070012  73.2074997  15.6939988
  16.8170012  74.3224997  16.4309988  16.7721777  73.4936492  16.1714048
  31.2950012  67.2794997   6.2439988  31.3840012  68.2234997   6.1119988
  30.6570012  67.0044997   5.5859988  31.2209081  67.3714830   6.1369614
  30.2280012  66.5344997   9.6629988  30.1900012  65.8884997  10.3679988
  29.9060012  66.0684997   8.8919988  30.1792333  66.3829408   9.6552978
  22.5970012  66.1494997  11.2559988  22.6380012  65.5234997  11.9789988
  23.3000012  66.7734997  11.4379988  22.6976363  66.1481196  11.3796044
  33.9340012  69.4734997   7.9639988  33.4940012  68.7534997   8.4149988
  33.9210012  70.1944997   8.5939988  33.8720226  69.4723731   8.1108494
  23.5200012  70.5994997   9.7909988  23.1510012  69.7974997   9.4209988
  24.4610012  70.4304997   9.8369988  23.5967289  70.4670153   9.7466316
  20.1300012  64.2594997   5.1839988  19.6830012  65.1054997   5.1649988
  19.5690012  63.6794997   4.6679988  19.9929900  64.2969916   5.1116801
  20.8410012  66.4214997   7.3099988  21.0540012  65.6514997   7.8369988
  21.5790012  66.5104997   6.7059988  20.9698496  66.3281394   7.3005300
  31.0460012  74.5784997   8.1769988  31.6660012  73.9014997   7.9029988
  30.8380012  74.3604997   9.0849988  31.1026904  74.4563870   8.2623365
  28.6180012  68.9674997  10.0689988  28.9220012  68.2814997   9.4739988
  29.3390012  69.0854997  10.6869988  28.7570671  68.8896305  10.0711816
  37.2810012  60.5684997  10.9299988  37.3300012  61.1784997  11.6659988
  37.7060012  61.0294997  10.2069988  37.3451824  60.7143741  10.9330205
  31.7590012  63.3614997  10.3969988  31.9010012  62.4154997  10.4169988
  31.6520012  63.5684997   9.4679988  31.7639864  63.2599534  10.2742339
  24.9130012  61.4624997   7.6689988  24.9570012  62.3224997   7.2509988
  24.4560012  60.9104997   7.0349988  24.8572185  61.5055799   7.5260299
  32.6360012  61.5934997   6.0699988  33.2820012  61.2644997   6.6949988
  33.1460012  62.1114997   5.4469988  32.7934264  61.6184611   6.0713862
  21.5340012  63.8594997   8.4309988  22.1870012  63.3094997   8.8629988
  21.5580012  63.5854997   7.5139988  21.6266683  63.7471466   8.3662123
  26.6900012  65.4094997   7.6459988  27.3060012  64.8834997   8.1559988
  26.1040012  64.7694997   7.2429988  26.6950810  65.2509208   7.6613173
  37.6720012  62.0464997  13.1659988  36.9840012  62.7044997  13.0699988
  37.6880012  61.8494997  14.1019988  37.5798525  62.1100462  13.2794808
  23.7240012  60.3804997  11.7429988  23.5050012  60.9104997  10.9769988
  23.0560012  60.6074997  12.3899988  23.6037600  60.4836906  11.7256379
  31.0930012  69.8804997   5.2869988  30.7970012  69.5584997   4.4359988
  30.7680012  70.7804997   5.3279988  31.0086371  69.9580215   5.1761801
  26.2930012  68.0564997  12.0299988  25.5530012  68.6544997  12.1339988
  27.0070012  68.6104997  11.7149988  26.2882237  68.2132831  12.0016465
  34.4000012  60.8844997   8.0499988  34.1840012  60.1184997   8.5829988
  35.0550012  61.3564997   8.5629988  34.4590632  60.8435889   8.1922861
  23.3170012  62.2724997   9.6949988  23.9310012  62.9054997  10.0689988
  23.8290012  61.8004997   9.0389988  23.4702296  62.2952370   9.6574252
  24.7000012  70.0204997  12.8179988  24.6950012  70.9004997  12.4399988
  23.8470012  69.9374997  13.2429988  24.5839464  70.1296117  12.8237907
  20.8210012  69.6914997   3.5999988  20.5490012  69.9204997   2.7109988
  20.8670012  70.5294997   4.0599988  20.7900094  69.8361213   3.5405697
  34.4460012  71.3134997  10.3119988  33.5050012  71.3714997  10.4739988
  34.7230012  72.2194997  10.1749988  34.3544679  71.4439443  10.3156815
  34.7470012  59.5994997  11.7299988  34.0110012  60.2104997  11.6919988
  35.4300012  60.0144997  11.2029988  34.7386541  59.7391374  11.6535832
  27.7500012  57.6864997   9.1959988  27.6330012  56.7374997   9.1409988
  26.8950012  58.0184997   9.4689988  27.6183733  57.6015409   9.2253897
  32.6980012  73.0944997   6.9379988  33.1240012  72.3874997   6.4529988
  33.0150012  73.8954997   6.5209988  32.7991019  73.1060994   6.8153130
  33.8580012  70.9954997   5.4459988  33.6000012  70.3054997   4.8349988
  33.9290012  70.5524997   6.2919988  33.8322856  70.8412124   5.4766885
  35.5440012  69.5614997  13.9239988  35.6840012  68.9704997  13.1839988
  35.7110012  70.4344997  13.5669988  35.5856778  69.5986426  13.7746965
  30.0170012  66.5234997   3.6959988  29.3050012  67.0584997   3.3439988
  30.7080012  66.5794997   3.0359988  30.0130132  66.6042543   3.5586289
  30.0700012  64.9814997   0.7349988  30.7710012  65.0034997   1.3859988
  30.3730012  64.3534997   0.0789988  30.2067830  64.8996566   0.7353711
  37.3860012  65.9014997  11.9899988  36.7330012  66.5964997  12.0789988
  37.8510012  66.1114997  11.1799988  37.3595390  66.0249425  11.8926883
  33.4220012  66.7334997   4.6479988  32.6900012  66.9614997   5.2209988
  33.8700012  66.0194997   5.1029988  33.3823095  66.6682571   4.7879119
  33.3200012  64.9074997  13.7149988  33.4000012  65.6704997  14.2869988
  32.7180012  65.1864997  13.0249988  33.2495756  65.0497134  13.7000589
  25.0680012  67.3634997   6.5299988  24.7370012  66.9934997   5.7119988
  25.6560012  66.6934997   6.8769988  25.1021873  67.2221156   6.4648102
  26.4340012  70.7914997   9.2119988  26.3400012  70.2134997   8.4549988
  27.1640012  70.4204997   9.7079988  26.5197981  70.6622390   9.1754165
  25.4340012  66.1324997  10.1639988  26.0000012  66.2534997   9.4009988
  25.7530012  66.7694997  10.8029988  25.5545786  66.2351884  10.1460040
  31.7430012  71.6354997  10.8979988  31.5030012  72.2974997  11.5459988
  31.5450012  70.8014997  11.3229988  31.6833808  71.6133134  11.0441524
  26.3140012  70.5314997  14.8809988  26.0030012  71.3134997  15.3359988
  25.6640012  70.3784997  14.1949988  26.1835558  70.6179105  14.8505871
  32.2930012  65.8954997   2.3329988  32.8730012  66.0454997   3.0799988
  32.7070012  66.3664997   1.6099988  32.4282830  65.9796841   2.3374134
  23.2340012  66.7294997  14.1099988  23.3050012  67.3804997  14.8079988
  22.3440012  66.8324997  13.7749988  23.1233117  66.8325936  14.1602700
  30.0200012  72.6324997   5.7679988  30.4940012  72.9274997   6.5459988
  29.4570012  73.3704997   5.5349988  30.0087653  72.7726932   5.8430136
  24.5540012  72.6034997  15.6439988  24.5610012  72.4674997  14.6969988
  23.6380012  72.4854997  15.8959988  24.4311714  72.5689430  15.5484666
  35.9920012  57.6454997   2.1459988  35.0920012  57.7844997   2.4409988
  36.2440012  58.4764997   1.7439988  35.9028702  57.7769074   2.1320205
  24.0580012  66.4334997   4.1199988  23.7660012  67.2014997   3.6289988
  23.3840012  65.7734997   3.9569988  23.9269081  66.4494406   4.0307340
  37.1810012  72.0114997   0.5219988  37.2550012  72.9504997   0.6929988
  38.0870012  71.7064997   0.4659988  37.3135100  72.0986722   0.5378119
  20.1510012  68.7964997  12.9349988  19.6500012  68.7684997  12.1199988
  20.1560012  67.8904997  13.2439988  20.0831526  68.6702278  12.8652872
  19.9010012  71.5764997   9.8189988  20.8470012  71.4324997   9.7999988
  19.7890012  72.3604997  10.3559988  20.0152727  71.6628046   9.8890072
  38.0990012  72.2424997  15.5009988  38.0500012  71.2874997  15.4639988
  37.2720012  72.5104997  15.9019988  37.9804940  72.1478998  15.5501375
  29.0780012  71.8164997  14.3769988  29.1650012  72.6424997  14.8519988
  28.2140012  71.4864997  14.6259988  28.9731964  71.8849878  14.4756549
  29.4920012  75.5884997   4.1829988  29.4170012  75.4674997   3.2369988
  29.5250012  76.5384997   4.3019988  29.4861848  75.7002500   4.0694834
  23.1450012  74.3774997   5.9639988  23.2980012  74.0294997   6.8429988
  22.2950012  74.0214997   5.7089988  23.0508962  74.2816650   6.0498340
  32.5940012  74.7424997   1.1849988  32.9690012  73.9984997   0.7149988
  32.5980012  74.4724997   2.1039988  32.6458915  74.6041486   1.2447824
  32.2630012  74.6684997   3.9349988  31.3270012  74.7684997   4.1129988
  32.5430012  73.9594997   4.5129988  32.1728255  74.5862711   4.0375391
  35.2510012  63.7354997  15.9809988  34.8440012  64.2164997  15.2599988
  35.2920012  62.8304997  15.6729988  35.2008437  63.6789374  15.8406683
  22.4000012  70.1194997  13.9779988  22.6160012  69.7584997  14.8369988
  21.5450012  69.7454997  13.7679988  22.3139292  70.0194111  14.0673386
  25.0190012  58.5894997   9.9729988  24.1570012  58.5024997   9.5659988
  24.9960012  59.4454997  10.4009988  24.8980330  58.6932765   9.9751863
  29.6820012  58.3114997  13.3479988  30.1020012  57.8964997  14.1009988
  28.7490012  58.1334997  13.4649988  29.6133644  58.2305900  13.4669539
  33.0080012  62.0674997  14.2009988  32.4940012  61.9414997  14.9989988
  32.8530012  62.9794997  13.9569988  32.9166852  62.1736132  14.2772158
  33.7710012  66.9284997  -0.0370012  33.8130012  66.7054997  -0.9670012
  34.6200012  67.3274997   0.1529988  33.8915396  66.9519155  -0.1386373
  29.3430012  60.8044997   0.6329988  29.0900012  60.8234997   1.5559988
  29.0870012  59.9324997   0.3319988  29.2737790  60.6892437   0.7186263
  25.1100012  63.5554997  11.0679988  24.4680012  63.5144997  11.7769988
  25.1470012  64.4814997  10.8309988  25.0271324  63.6751559  11.1329824
  25.1070012  63.7764997   5.9799988  24.2140012  63.4354997   5.9219988
  25.5570012  63.3994997   5.2249988  25.0457305  63.6788484   5.8699177
  30.6420012  64.1924997   4.7969988  30.2330012  65.0074997   4.5059988
  31.3630012  64.0524997   4.1829988  30.6834537  64.2852018   4.6741342
  29.7440012  64.3674997  16.2849988  29.1820012  63.6634997  16.6059988
  30.5710012  64.2474997  16.7529988  29.7787095  64.2547883  16.3922330
  31.6470012  63.6384997   7.6109988  31.4520012  64.2434997   6.8959988
  31.8280012  62.8044997   7.1769988  31.6447614  63.6086300   7.4544405
  22.8600012  63.8754997  12.9349988  22.8220012  64.2754997  13.8039988
  22.3690012  63.0584997  13.0259988  22.7884684  63.8198069  13.0661059
  26.2260012  61.2494997  -0.2660012  25.7950012  60.8044997   0.4639988
  25.5080012  61.6214997  -0.7780012  26.0699438  61.2388940  -0.2353201
  19.4680012  60.9914997   6.7859988  20.0990012  60.9624997   7.5049988
  19.9170012  60.5664997   6.0559988  19.6150774  60.9300492   6.7856553
  20.7420012  61.7374997   2.2099988  21.2160012  62.3284997   1.6249988
  20.0250012  62.2684997   2.5569988  20.7099341  61.8900867   2.1768836
  30.9110012  65.2764997  12.2829988  31.2340012  64.6454997  11.6399988
  30.4710012  64.7414997  12.9429988  30.8956895  65.1178441  12.2842850
  27.6880012  61.2034997   7.0669988  26.7770012  61.2604997   7.3549988
  28.1940012  61.1434997   7.8769988  27.6315413  61.2031985   7.2160622
  22.5170012  62.8324997   5.8929988  21.6270012  62.9324997   5.5529988
  22.8130012  61.9904997   5.5469988  22.4352823  62.7323545   5.7997213
  26.1700012  62.8324997   3.5499988  27.1010012  62.9614997   3.7279988
  25.9550012  63.5024997   2.8999988  26.2684247  62.9406565   3.4865747
  32.0930012  60.4384997  10.3309988  31.4170012  60.5694997  10.9949988
  31.6080012  60.2834997   9.5209988  31.9347145  60.4354905  10.3124517
  24.8440012  64.0274997   1.1169988  24.3010012  63.6474997   0.4249988
  25.6770012  64.2214997   0.6879988  24.8824399  64.0018124   0.9644526
  35.3810012  76.1104997  16.6079988  35.5810012  76.5344997  15.7729988
  36.0360012  76.4534997  17.2149988  35.4970051  76.2149648  16.5757836
  22.9790012  68.5844997  16.2159988  23.7110012  68.8384997  16.7769988
  22.1990012  68.7884997  16.7309988  22.9738232  68.6469177  16.3625760
  29.0080012  63.9914997   8.9539988  29.5730012  63.4444997   8.4069988
  28.8610012  63.4694997   9.7419988  29.0652918  63.8462024   8.9858454
  24.0100012  60.1274997   5.3719988  23.6930012  59.2254997   5.3369988
  24.7920012  60.1294997   4.8189988  24.0722284  60.0041628   5.2924783
  27.6350012  62.3794997  11.3679988  26.7990012  62.8334997  11.4779988
  28.1590012  62.6554997  12.1199988  27.5914414  62.4789376  11.4847136
  28.1790012  68.5924997   3.0519988  27.4340012  68.0854997   2.7299988
  28.0450012  68.6414997   3.9989988  28.0588776  68.5296940   3.1358647
  35.3290012  67.7254997  11.8389988  35.9710012  68.1824997  11.2949988
  34.4990012  67.8384997  11.3759988  35.3045963  67.8032704  11.7020177
  32.0770012  61.4064997   1.2519988  31.1380012  61.5184997   1.0999988
  32.3740012  62.2634997   1.5579988  31.9887666  61.5376443   1.2725768
  29.6980012  68.7764997  14.2889988  29.3530012  68.3954997  15.0959988
  29.4980012  69.7104997  14.3609988  29.6238061  68.8505228  14.4090961
  32.7950012  63.2734997   2.9119988  33.6870012  63.1364997   3.2309988
  32.8520012  64.0644997   2.3759988  32.9246285  63.3616660   2.8831690
  23.3040012  67.8874997   8.8219988  24.0490012  67.8854997   8.2209988
  23.3820012  67.0644997   9.3039988  23.4165518  67.7759315   8.8048929
  30.3050012  70.0514997   2.0779988  30.0090012  70.8774997   2.4589988
  29.6020012  69.4314997   2.2739988  30.1694914  70.0808199   2.1566443
  20.3120012  66.3484997  14.1369988  20.5350012  65.9304997  14.9689988
  19.7100012  65.7354997  13.7139988  20.2611759  66.2084668  14.1937022
  27.3280012  65.8654997  16.3499988  27.0320012  65.6994997  15.4549988
  28.2600012  65.6454997  16.3389988  27.4134166  65.8130640  16.2260536
  31.9490012  71.2384997  14.2399988  31.0480012  71.4214997  13.9719988
  31.9830012  71.4974997  15.1609988  31.8303041  71.2985512  14.3278197
  37.6800012  63.4834997   2.6069988  37.1260012  63.0874997   1.9349988
  37.7800012  64.3934997   2.3289988  37.6177059  63.5523586   2.4774401
  37.6430012  69.2834997  15.4439988  36.7920012  69.5214997  15.0769988
  38.2340012  69.2664997  14.6909988  37.6062487  69.3138258  15.2918893
  35.9750012  72.2694997   3.0719988  35.6020012  71.4434997   3.3809988
  36.2530012  72.0864997   2.1749988  35.9615630  72.1317303   2.9929626
  33.1360012  67.0774997  10.0929988  32.2070012  66.8454997  10.0659988
  33.5870012  66.3004997   9.7629988  33.0699216  66.9407238  10.0446917
  25.6790012  71.4054997   6.2259988  26.2060012  72.1784997   6.0259988
  24.7990012  71.6304997   5.9249988  25.6321773  71.5418005   6.1579010
  21.4340012  66.2674997   0.8129988  22.0500012  66.8944997   1.1929988
  20.5720012  66.5834997   1.0849988  21.4017698  66.3959430   0.9017183
  27.1060012  69.0684997   5.8029988  26.8650012  69.9934997   5.8439988
  26.3650012  68.6094997   6.1989988  26.9728409  69.1331421   5.8621377
  27.6210012  73.2174997  12.1179988  27.9830012  74.0724997  11.8839988
  28.1520012  72.9254997  12.8579988  27.7424473  73.2951060  12.1860855
  25.7890012  74.0904997   5.3479988  24.8390012  74.1954997   5.3989988
  26.1410012  74.9104997   5.6929988  25.7064203  74.2158314   5.4016650
  31.1650012  69.3164997  11.8179988  30.7390012  69.0894997  12.6449988
  31.7450012  68.5784997  11.6359988  31.1851868  69.1855299  11.9065830
  33.3680012  70.2454997   0.8919988  33.7210012  69.8654997   1.6969988
  32.4190012  70.1524997   0.9789988  33.2880441  70.1809596   1.0138559
  33.8230012  73.8684997  14.2879988  33.2220012  73.3134997  13.7919988
  34.1050012  74.5354997  13.6619988  33.7788519  73.8826841  14.1354952
  37.8710012  74.7254997   1.0929988  38.6150012  75.3114997   0.9529988
  37.1770012  75.2934997   1.4269988  37.8790292  74.8825582   1.1189961
  21.9460012  61.1014997  13.6949988  21.0530012  61.4404997  13.6269988
  21.8470012  60.2464997  14.1129988  21.8104164  61.0322588  13.7422235
  34.2340012  68.9184997   3.1189988  33.9560012  68.1904997   3.6749988
  35.1610012  69.0374997   3.3239988  34.3213124  68.8348802   3.2228845
  21.5970012  72.9064997  12.1299988  21.8140012  71.9744997  12.0989988
  21.8430012  73.1804997  13.0129988  21.6599549  72.8160636  12.2451763
  27.4590012  71.3574997  -0.6610012  27.6980012  70.6094997  -1.2080012
  27.1900012  70.9694997   0.1719988  27.4553675  71.2026638  -0.6233135
  26.3960012  70.9274997   1.7959988  26.5420012  70.4074997   2.5859988
  26.3930012  71.8344997   2.1019988  26.4155989  70.9788853   1.9456088
  22.8490012  68.1804997   2.3059988  22.1630012  68.5324997   2.8729988
  23.3710012  68.9434997   2.0589988  22.8256852  68.3318578   2.3502118
  30.6800012  60.8424997  12.5849988  31.3790012  60.9164997  13.2349988
  30.2990012  59.9784997  12.7389988  30.7241767  60.7357624  12.6948322
  31.4650012  60.4944997   3.6819988  31.6850012  60.9664997   2.8789988
  32.0230012  60.8894997   4.3519988  31.5704968  60.6124285   3.6627331
  29.1330012  72.6254997   2.5449988  28.3170012  73.1224997   2.5969988
  29.6630012  73.1004997   1.9049988  29.0929161  72.7577722   2.4655956
  28.6650012  62.2224997   4.5169988  29.4770012  62.7274997   4.5629988
  28.4200012  62.0774997   5.4309988  28.7430520  62.2720375   4.6468517
  29.2000012  63.2084997  13.7019988  29.3190012  63.7824997  14.4589988
  29.8560012  62.5204997  13.8159988  29.3049757  63.1941079  13.8210825
  29.5480012  59.3034997   5.4549988  29.2020012  59.9214997   6.0999988
  30.2070012  59.8044997   4.9739988  29.5897826  59.4555802   5.4780971
  26.4720012  73.6694997   2.5269988  26.6320012  74.4684997   2.0259988
  26.2740012  73.9754997   3.4119988  26.4671649  73.8204469   2.5779815
  25.2060012  60.3664997   2.1419988  25.1230012  61.2554997   2.4889988
  26.0960012  60.1014997   2.3739988  25.3149469  60.4521430   2.2207626
  35.4050012  61.1154997  14.5369988  34.4880012  61.3784997  14.4489988
  35.7400012  61.1124997  13.6399988  35.3249900  61.1510224  14.4037919
  34.0070012  64.8664997   8.6319988  33.2090012  64.4514997   8.3039988
  34.4520012  64.1754997   9.1229988  33.9579885  64.7163543   8.6534889
  23.4650012  70.7944997   1.2029988  24.0570012  71.4934997   1.4789988
  23.9240012  70.3614997   0.4829988  23.6081142  70.8317049   1.1434830
  21.7810012  63.4584997   0.3189988  21.7360012  64.3974997   0.4969988
  20.8930012  63.2224997   0.0489988  21.6548574  63.5551892   0.3068912
  35.0930012  74.1224997  10.2549988  34.9380012  74.8004997   9.5979988
  36.0260012  74.1944997  10.4579988  35.1978500  74.2250170  10.1925119
  22.5890012  58.2404997   8.9919988  22.3600012  58.2994997   8.0639988
  22.1460012  57.4484997   9.2979988  22.4978530  58.1415753   8.9064786
  21.5190012  72.1804997   5.1519988  20.6870012  72.6534997   5.1799988
  22.0650012  72.6904997   4.5539988  21.4789739  72.3141871   5.0749716
  20.8070012  74.7934997  16.4819988  21.3480012  74.5764997  17.2419988
  20.3260012  73.9874997  16.2929988  20.8159345  74.6549514  16.5603076
  25.4050012  73.7124997  18.1029988  26.1720012  73.2534997  18.4439988
  25.3830012  73.4864997  17.1729988  25.5071434  73.6190409  18.0240043
  29.4970012  73.2204997  -0.5220012  28.8530012  72.5894997  -0.2010012
  30.2590012  72.6894997  -0.7540012  29.5118077  73.0622920  -0.5093989
  31.9820012  72.0924997  16.8319988  31.6310012  71.2364997  17.0749988
  32.7080012  72.2354997  17.4389988  32.0320769  71.9945636  16.9473619
  34.1010012  73.0374997  -0.2880012  34.3840012  72.2434997   0.1639988
  34.8410012  73.2704997  -0.8490012  34.2397486  72.9602803  -0.3019302
  20.7140012  68.6034997  17.4369988  20.8580012  67.7014997  17.1499988
  19.9420012  68.8894997  16.9489988  20.6293322  68.5188261  17.3317881
  25.0560012  68.9474997  -0.4310012  25.1200012  68.1534997   0.0999988
  25.7090012  68.8284997  -1.1210012  25.1530241  68.8227148  -0.4515683
  27.3700012  68.5734997  16.8689988  27.0410012  68.8444997  16.0119988
  27.5220012  67.6324997  16.7819988  27.3454809  68.4833862  16.7398244
  30.4080012  69.9944997  -0.6950012  30.1390012  70.1744997   0.2059988
  30.2020012  69.0684997  -0.8260012  30.3433825  69.8940152  -0.5894786
  33.1040012  68.4894997  14.2529988  33.8500012  69.0774997  14.1329988
  32.3470012  69.0714997  14.3159988  33.1037554  68.6487011  14.2450907
  21.5470012  65.8034997  16.8569988  21.9550012  64.9464997  16.7359988
  21.2870012  65.8184997  17.7779988  21.5677568  65.6880807  16.9649588
  26.2050012  66.9194997   1.8749988  25.7450012  66.4354997   2.5609988
  26.4600012  66.2514997   1.2389988  26.1764902  66.7628731   1.8829334
  25.4940012  64.8124997  14.2309988  24.8760012  65.4874997  14.5109988
  25.8380012  65.1334997  13.3979988  25.4559615  64.9482721  14.1566581
  27.2760012  65.1624997   0.1369988  27.0960012  65.0084997  -0.7900012
  28.2260012  65.2704997   0.1819988  27.3797776  65.1560175   0.0161843
  30.5140012  67.2844997  17.5079988  31.4670012  67.3674997  17.4809988
  30.3530012  66.5724997  18.1279988  30.6226426  67.1996746  17.5880578
  36.6660012  67.5174997  -0.4170012  36.3920012  67.0924997  -1.2300012
  36.7050012  68.4484997  -0.6340012  36.6337699  67.5852484  -0.5576390
  25.8330012  62.1674997  15.3129988  25.9830012  61.4384997  14.7109988
  25.8360012  62.9444997  14.7539988  25.8539302  62.1727851  15.1550692
  26.2460012  60.5374997  12.8059988  26.7820012  60.9884997  12.1539988
  25.3940012  60.4294997  12.3829988  26.2042178  60.5846390  12.6595756
  27.8280012  65.9764997  13.0449988  28.5780012  65.8204997  12.4719988
  27.4890012  66.8284997  12.7699988  27.8848921  66.0702968  12.9293561
  32.2430012  63.7914997  18.0739988  32.4360012  62.8604997  17.9619988
  33.1010012  64.2164997  18.0639988  32.3853020  63.7216389  18.0573361
  33.5600012  66.5804997  16.1509988  33.2790012  67.2894997  15.5739988
  34.5030012  66.5074997  15.9999988  33.6489027  66.6677646  16.0515551
  24.3120012  63.3654997  17.2249988  23.5450012  62.8334997  17.0149988
  24.9910012  63.0554997  16.6249988  24.2987022  63.2507506  17.1151648
  27.0520012  57.9934997  13.2369988  26.9530012  58.9404997  13.1319988
  26.3090012  57.6214997  12.7619988  26.9380564  58.0725902  13.1584560
  28.3160012  62.3154997  16.8009988  28.0800012  62.0954997  17.7029988
  27.5320012  62.1084997  16.2909988  28.1778628  62.2574760  16.8553932
  31.0310012  61.4424997  15.8769988  30.0840012  61.4744997  16.0089988
  31.3440012  60.8174997  16.5299988  30.9435475  61.3623207  15.9834455
  32.6650012  60.0764997  17.8819988  32.5690012  59.1244997  17.8759988
  32.3440012  60.3454997  18.7419988  32.6084070  59.9824035  17.9975441
  22.4920012  61.2864997  16.9289988  22.7040012  60.5794997  16.3189988
  22.3810012  60.8484997  17.7729988  22.5059721  61.1307084  16.9596843
  27.2730012  57.2874997  15.9089988  27.9850012  56.6474997  15.8949988
  27.1720012  57.5544997  14.9949988  27.3567939  57.2359938  15.7835650
  27.6270012  58.9704997  17.9619988  27.4950012  58.4944997  17.1419988
  27.0280012  59.7144997  17.9069988  27.5279071  59.0059618  17.8422886
  27.1730012  75.8534997   1.1389988  28.1060012  76.0114997   1.2819988
  26.9090012  76.5284997   0.5139988  27.2649510  75.9663611   1.0740741
  20.7420012  70.4894997   0.6209988  21.6560012  70.5684997   0.8949988
  20.7490012  69.8024997  -0.0450012  20.8681131  70.4073961   0.5684393
  19.3910012  75.8824997   5.6989988  18.7440012  75.4204997   5.1659988
  19.7450012  75.2104997   6.2809988  19.3503849  75.7284723   5.7047959
  20.2610012  73.9634997   7.5029988  19.9260012  73.0834997   7.6749988
  20.4830012  74.3084997   8.3679988  20.2451783  73.8897500   7.6434208
  37.8090012  74.7724997  10.4839988  37.7880012  74.9574997  11.4229988
  38.5000012  75.3414997  10.1429988  37.8994618  74.8746606  10.5663864
  37.3730012  74.3404997  13.4059988  36.8850012  73.6044997  13.0349988
  37.9220012  73.9464997  14.0839988  37.3804872  74.1866249  13.4469160
  35.8230012  70.1294997  18.0439988  34.9570012  70.0244997  18.4379988
  36.2000012  70.8884997  18.4899988  35.7553308  70.2176900  18.1582393
  37.1240012  68.3864997   3.5579988  37.9740012  68.8074997   3.6849988
  37.1300012  67.6464997   4.1649988  37.2411372  68.3440803   3.6574344
  37.5190012  66.4394997   5.3819988  36.7920012  65.9604997   5.7789988
  38.1000012  66.6454997   6.1139988  37.4979375  66.4017090   5.5354129
  37.2780012  69.2244997  10.3289988  38.1110012  68.8464997  10.0489988
  37.3900012  70.1674997  10.2099988  37.4072647  69.3002218  10.2745487
  35.7640012  72.1024997  12.6359988  35.1170012  72.4274997  13.2619988
  35.2470012  71.6624997  11.9619988  35.6054029  72.0875004  12.6305827
  37.7870012  66.3404997   1.7729988  37.2650012  66.6974997   1.0539988
  37.7540012  67.0154997   2.4509988  37.7111634  66.4805413   1.7663145
  36.1360012  63.5804997   0.3239988  36.2320012  64.2474997  -0.3570012
  35.9960012  62.7644997  -0.1580012  36.1302135  63.5614500   0.1658491
  35.3050012  64.9604997   5.9449988  35.1550012  64.0154997   5.9239988
  34.9520012  65.2414997   6.7879988  35.2366625  64.8690441   6.0562346
  20.3410012  67.0384997   9.9549988  20.5250012  66.9564997   9.0189988
  21.1900012  66.9144997  10.3789988  20.4810139  67.0105003   9.8841455
  36.1620012  66.9304997  15.5829988  36.7450012  66.1964997  15.7749988
  36.7260012  67.7024997  15.6299988  36.3179769  66.9344227  15.6156159
  37.6580012  64.8334997  16.2679988  36.7950012  64.4544997  16.1019988
  38.2630012  64.0944997  16.1939988  37.6215979  64.6818023  16.2352817
  35.3830012  60.9884997  -0.5590012  35.9940012  60.6174997   0.0779988
  34.5470012  60.5674997  -0.3630012  35.3535032  60.8807554  -0.4452965
  35.0160012  62.5434997   4.4069988  35.2960012  61.6364997   4.5309988
  35.7750012  62.9774997   4.0179988  35.1569277  62.4780942   4.3713682
  35.6280012  63.1244997   9.8429988  36.5610012  63.3364997   9.8089988
  35.3930012  63.2264997  10.7649988  35.7238036  63.1672769   9.9629976
  35.6570012  63.8614997  12.6189988  34.8140012  64.1294997  12.9849988
  36.0990012  64.6834997  12.4079988  35.6014158  64.0093291  12.6405491
  19.9380012  62.3094997  16.0959988  20.8580012  62.1874997  16.3319988
  19.4890012  61.5594997  16.4849988  20.0031580  62.1913727  16.1809006
  37.9400012  57.8414997  17.9719988  38.2900012  57.1874997  17.3669988
  38.0870012  58.6784997  17.5329988  38.0078419  57.8651591  17.8297118
  35.6290012  59.8064997   4.4549988  35.8120012  59.3574997   5.2809988
  35.0300012  59.2214997   3.9919988  35.5730202  59.6659975   4.5053275
  21.1590012  60.6214997   8.9869988  21.6050012  59.8294997   9.2889988
  21.6260012  61.3374997   9.4179988  21.2830172  60.6100624   9.0864820
  19.4630012  63.6204997  10.0559988  19.9550012  63.3994997   9.2649988
  19.8260012  64.4614997  10.3369988  19.5793126  63.7038357   9.9857531
  37.4600012  59.9504997  16.3219988  36.5420012  60.2214997  16.2859988
  37.5830012  59.4154997  15.5369988  37.3511066  59.9152892  16.2110487
  37.4960012  59.8734997   0.9829988  37.9080012  59.1524997   0.5079988
  38.1780012  60.5434997   1.0419988  37.6445885  59.8652368   0.9258915
  19.7770012  59.8784997   4.1099988  18.8520012  60.0874997   3.9809988
  20.2310012  60.3624997   3.4209988  19.7117368  59.9725993   3.9991226
  34.5480012  74.8624997   6.0559988  35.2000012  74.5154997   5.4479988
  35.0580012  75.3514997   6.7019988  34.7062637  74.8810597   6.0600236
  19.7410012  58.6164997  12.4549988  19.0760012  58.3704997  13.0979988
  19.2980012  59.2384997  11.8769988  19.5900956  58.6668632  12.4649352
  21.9330012  71.7914997  16.5989988  21.1120012  71.9664997  16.1389988
  21.6800012  71.7184997  17.5199988  21.7866164  71.8055622  16.6604923
  24.8870012  72.7664997  12.8579988  24.4620012  73.5754997  12.5749988
  25.7910012  72.8514997  12.5559988  24.9510271  72.8888469  12.7783776
  29.1980012  74.1654997  15.8169988  29.3830012  73.8314997  16.6949988
  30.0440012  74.4744997  15.4949988  29.3377539  74.1616047  15.8935605
  31.5430012  75.4514997  15.0609988  32.2200012  74.8184997  14.8209988
  31.8650012  75.8524997  15.8679988  31.6791637  75.4191154  15.1372793
  36.4600012  58.0404997  14.1409988  35.6480012  58.3654997  13.7529988
  36.6930012  57.2804997  13.6079988  36.3803423  57.9822436  14.0158253
  22.2890012  76.0224997  12.9049988  21.5680012  76.4624997  12.4539988
  21.9230012  75.7714997  13.7539988  22.1409804  76.0487698  12.9579840
  24.7560012  75.6224997  11.9349988  23.8910012  75.6944997  12.3389988
  24.7010012  76.1694997  11.1509988  24.6302085  75.7062685  11.8843362
  29.4660012  75.5104997  11.1099988  29.0100012  76.0394997  10.4559988
  29.6290012  76.1134997  11.8359988  29.4255585  75.6644468  11.1185062
  31.7940012  74.3884997  12.0549988  30.8890012  74.5534997  11.7899988
  32.2230012  75.2414997  11.9899988  31.7280799  74.5264483  12.0099182
  34.3980012  75.9584997  12.3499988  34.2160012  76.8744997  12.1399988
  34.5750012  75.5484997  11.5039988  34.3970210  76.0284822  12.2067885
  21.7030012  74.6454997   9.8149988  21.6850012  74.2204997  10.6729988
  22.5080012  74.3274997   9.4069988  21.8093875  74.5443812   9.8771655
  23.8450012  73.3554997   8.4699988  23.6260012  72.4394997   8.6399988
  24.6690012  73.4954997   8.9359988  23.9264420  73.2490520   8.5562774
  26.3820012  73.8254997   9.3189988  26.5950012  72.9374997   9.0319988
  26.4460012  73.7914997  10.2729988  26.4198231  73.6993102   9.4087397
  29.8900012  59.4894997   8.4629988  29.2160012  58.8604997   8.7189988
  30.4540012  59.0054997   7.8599988  29.8739230  59.3378744   8.4165340
  35.0330012  57.5974997   8.5759988  35.6370012  58.1444997   8.0739988
  34.1630012  57.9164997   8.3359988  34.9981241  57.7155806   8.4747654
  36.7600012  58.7354997   6.9089988  37.3720012  58.2214997   6.3829988
  37.1420012  59.6134997   6.9329988  36.8954540  58.7837140   6.8401830
  22.2170012  58.1234997   6.2849988  21.4400012  57.8894997   5.7779988
  22.7470012  57.3264997   6.2939988  22.1822330  57.9836988   6.2167742
  21.0530012  57.9214997   2.0889988  21.4920012  58.5324997   1.4969988
  20.4200012  58.4594997   2.5629988  21.0274514  58.0779257   2.0720930
  26.7960012  58.0504997   6.0989988  27.6710012  58.4384997   6.0689988
  26.6600012  57.8354997   7.0209988  26.8973695  58.0745184   6.2196440
  32.3530012  58.0804997   7.7479988  32.4290012  58.1754997   6.7979988
  32.0780012  57.1724997   7.8769988  32.3262321  57.9707867   7.6355079
  33.7060012  58.1064997   3.4399988  33.0040012  58.7214997   3.2309988
  33.2620012  57.2684997   3.5709988  33.5496330  58.0775783   3.4290328
  20.9540012  73.8694997   2.9869988  20.2690012  73.8314997   2.3189988
  20.9580012  74.7824997   3.2749988  20.8608193  73.9877016   2.9345284
  22.9140012  59.8374997   0.5309988  23.4060012  59.2074997   0.0039988
  23.5380012  60.1334997   1.1949988  23.0655446  59.7913199   0.5485980
  27.9400012  60.1304997   2.9879988  28.1180012  59.4844997   3.6709988
  27.8870012  60.9644997   3.4559988  27.9571829  60.1547985   3.1445940
  29.8190012  75.0794997   1.3839988  30.6850012  75.4454997   1.2059988
  29.5720012  74.6394997   0.5699988  29.9042392  75.0701756   1.2496289
  36.5280012  74.6424997   4.0629988  36.3330012  73.8944997   3.4979988
  36.4890012  75.4004997   3.4799988  36.4960380  74.6426099   3.9068384
  22.1750012  58.6374997  15.8029988  21.8090012  57.8724997  16.2459988
  23.0880012  58.6664997  16.0899988  22.2482790  58.5367224  15.9024070
  24.1480012  57.9884997  17.3389988  25.0460012  57.7144997  17.1539988
  23.7610012  57.2454997  17.8029988  24.2186612  57.8505914  17.3763643
  22.7720012  74.7894997   0.0119988  22.5050012  75.0764997   0.8849988
  23.5440012  74.2434997   0.1639988  22.8397488  74.7550294   0.1521050
  32.5690012  57.3204997  17.5209988  32.6460012  56.8944997  18.3749988
  33.4630012  57.3344997  17.1779988  32.7003428  57.2640879  17.5915310
  35.7450012  73.3934997  16.2129988  34.9630012  73.2074997  15.6939988
  35.6730012  74.3224997  16.4309988  35.6281777  73.4936492  16.1714048
  50.1510012  67.2794997   6.2439988  50.2400012  68.2234997   6.1119988
  49.5130012  67.0044997   5.5859988  50.0769081  67.3714830   6.1369614
  49.0840012  66.5344997   9.6629988  49.0460012  65.8884997  10.3679988
  48.7620012  66.0684997   8.8919988  49.0352333  66.3829408   9.6552978
  41.4530012  66.1494997  11.2559988  41.4940012  65.5234997  11.9789988
  42.1560012  66.7734997  11.4379988  41.5536363  66.1481196  11.3796044
  52.7900012  69.4734997   7.9639988  52.3500012  68.7534997   8.4149988
  52.7770012  70.1944997   8.5939988  52.7280226  69.4723731   8.1108494
  42.3760012  70.5994997   9.7909988  42.0070012  69.7974997   9.4209988
  43.3170012  70.4304997   9.8369988  42.4527289  70.4670153   9.7466316
  38.9860012  64.2594997   5.1839988  38.5390012  65.1054997   5.1649988
  38.4250012  63.6794997   4.6679988  38.8489900  64.2969916   5.1116801
  39.6970012  66.4214997   7.3099988  39.9100012  65.6514997   7.8369988
  40.4350012  66.5104997   6.7059988  39.8258496  66.3281394   7.3005300
  49.9020012  74.5784997   8.1769988  50.5220012  73.9014997   7.9029988
  49.6940012  74.3604997   9.0849988  49.9586904  74.4563870   8.2623365
  47.4740012  68.9674997  10.0689988  47.7780012  68.2814997   9.4739988
  48.1950012  69.0854997  10.6869988  47.6130671  68.8896305  10.0711816
  56.1370012  60.5684997  10.9299988  56.1860012  61.1784997  11.6659988
  56.5620012  61.0294997  10.2069988  56.2011824  60.7143741  10.9330205
  50.6150012  63.3614997  10.3969988  50.7570012  62.4154997  10.4169988
  50.5080012  63.5684997   9.4679988  50.6199864  63.2599534  10.2742339
  43.7690012  61.4624997   7.6689988  43.8130012  62.3224997   7.2509988
  43.3120012  60.9104997   7.0349988  43.7132185  61.5055799   7.5260299
  51.4920012  61.5934997   6.0699988  52.1380012  61.2644997   6.6949988
  52.0020012  62.1114997   5.4469988  51.6494264  61.6184611   6.0713862
  40.3900012  63.8594997   8.4309988  41.0430012  63.3094997   8.8629988
  40.4140012  63.5854997   7.5139988  40.4826683  63.7471466   8.3662123
  45.5460012  65.4094997   7.6459988  46.1620012  64.8834997   8.1559988
  44.9600012  64.7694997   7.2429988  45.5510810  65.2509208   7.6613173
  56.5280012  62.0464997  13.1659988  55.8400012  62.7044997  13.0699988
  56.5440012  61.8494997  14.1019988  56.4358525  62.1100462  13.2794808
  42.5800012  60.3804997  11.7429988  42.3610012  60.9104997  10.9769988
  41.9120012  60.6074997  12.3899988  42.4597600  60.4836906  11.7256379
  49.9490012  69.8804997   5.2869988  49.6530012  69.5584997   4.4359988
  49.6240012  70.7804997   5.3279988  49.8646371  69.9580215   5.1761801
  45.1490012  68.0564997  12.0299988  44.4090012  68.6544997  12.1339988
  45.8630012  68.6104997  11.7149988  45.1442237  68.2132831  12.0016465
  53.2560012  60.8844997   8.0499988  53.0400012  60.1184997   8.5829988
  53.9110012  61.3564997   8.5629988  53.3150632  60.8435889   8.1922861
  42.1730012  62.2724997   9.6949988  42.7870012  62.9054997  10.0689988
  42.6850012  61.8004997   9.0389988  42.3262296  62.2952370   9.6574252
  43.5560012  70.0204997  12.8179988  43.5510012  70.9004997  12.4399988
  42.7030012  69.9374997  13.2429988  43.4399464  70.1296117  12.8237907
  39.6770012  69.6914997   3.5999988  39.4050012  69.9204997   2.7109988
  39.7230012  70.5294997   4.0599988  39.6460094  69.8361213   3.5405697
  53.3020012  71.3134997  10.3119988  52.3610012  71.3714997  10.4739988
  53.5790012  72.2194997  10.1749988  53.2104679  71.4439443  10.3156815
  53.6030012  59.5994997  11.7299988  52.8670012  60.2104997  11.6919988
  54.2860012  60.0144997  11.2029988  53.5946541  59.7391374  11.6535832
  46.6060012  57.6864997   9.1959988  46.4890012  56.7374997   9.1409988
  45.7510012  58.0184997   9.4689988  46.4743733  57.6015409   9.2253897
  51.5540012  73.0944997   6.9379988  51.9800012  72.3874997   6.4529988
  51.8710012  73.8954997   6.5209988  51.6551019  73.1060994   6.8153130
  52.7140012  70.9954997   5.4459988  52.4560012  70.3054997   4.8349988
  52.7850012  70.5524997   6.2919988  52.6882856  70.8412124   5.4766885
  54.4000012  69.5614997  13.9239988  54.5400012  68.9704997  13.1839988
  54.5670012  70.4344997  13.5669988  54.4416778  69.5986426  13.7746965
  48.8730012  66.5234997   3.6959988  48.1610012  67.0584997   3.3439988
  49.5640012  66.5794997   3.0359988  48.8690132  66.6042543   3.5586289
  48.9260012  64.9814997   0.7349988  49.6270012  65.0034997   1.3859988
  49.2290012  64.3534997   0.0789988  49.0627830  64.8996566   0.7353711
  56.2420012  65.9014997  11.9899988  55.5890012  66.5964997  12.0789988
  56.7070012  66.1114997  11.1799988  56.2155390  66.0249425  11.8926883
  52.2780012  66.7334997   4.6479988  51.5460012  66.9614997   5.2209988
  52.7260012  66.0194997   5.1029988  52.2383095  66.6682571   4.7879119
  52.1760012  64.9074997  13.7149988  52.2560012  65.6704997  14.2869988
  51.5740012  65.1864997  13.0249988  52.1055756  65.0497134  13.7000589
  43.9240012  67.3634997   6.5299988  43.5930012  66.9934997   5.7119988
  44.5120012  66.6934997   6.8769988  43.9581873  67.2221156   6.4648102
  45.2900012  70.7914997   9.2119988  45.1960012  70.2134997   8.4549988
  46.0200012  70.4204997   9.7079988  45.3757981  70.6622390   9.1754165
  44.2900012  66.1324997  10.1639988  44.8560012  66.2534997   9.4009988
  44.6090012  66.7694997  10.8029988  44.4105786  66.2351884  10.1460040
  50.5990012  71.6354997  10.8979988  50.3590012  72.2974997  11.5459988
  50.4010012  70.8014997  11.3229988  50.5393808  71.6133134  11.0441524
  45.1700012  70.5314997  14.8809988  44.8590012  71.3134997  15.3359988
  44.5200012  70.3784997  14.1949988  45.0395558  70.6179105  14.8505871
  51.1490012  65.8954997   2.3329988  51.7290012  66.0454997   3.0799988
  51.5630012  66.3664997   1.6099988  51.2842830  65.9796841   2.3374134
  42.0900012  66.7294997  14.1099988  42.1610012  67.3804997  14.8079988
  41.2000012  66.8324997  13.7749988  41.9793117  66.8325936  14.1602700
  48.8760012  72.6324997   5.7679988  49.3500012  72.9274997   6.5459988
  48.3130012  73.3704997   5.5349988  48.8647653  72.7726932   5.8430136
  43.4100012  72.6034997  15.6439988  43.4170012  72.4674997  14.6969988
  42.4940012  72.4854997  15.8959988  43.2871714  72.5689430  15.5484666
  54.8480012  57.6454997   2.1459988  53.9480012  57.7844997   2.4409988
  55.1000012  58.4764997   1.7439988  54.7588702  57.7769074   2.1320205
  42.9140012  66.4334997   4.1199988  42.6220012  67.2014997   3.6289988
  42.2400012  65.7734997   3.9569988  42.7829081  66.4494406   4.0307340
  56.0370012  72.0114997   0.5219988  56.1110012  72.9504997   0.6929988
  56.9430012  71.7064997   0.4659988  56.1695100  72.0986722   0.5378119
  39.0070012  68.7964997  12.9349988  38.5060012  68.7684997  12.1199988
  39.0120012  67.8904997  13.2439988  38.9391526  68.6702278  12.8652872
  38.7570012  71.5764997   9.8189988  39.7030012  71.4324997   9.7999988
  38.6450012  72.3604997  10.3559988  38.8712727  71.6628046   9.8890072
  56.9550012  72.2424997  15.5009988  56.9060012  71.2874997  15.4639988
  56.1280012  72.5104997  15.9019988  56.8364940  72.1478998  15.5501375
  47.9340012  71.8164997  14.3769988  48.0210012  72.6424997  14.8519988
  47.0700012  71.4864997  14.6259988  47.8291964  71.8849878  14.4756549
  48.3480012  75.5884997   4.1829988  48.2730012  75.4674997   3.2369988
  48.3810012  76.5384997   4.3019988  48.3421848  75.7002500   4.0694834
  42.0010012  74.3774997   5.9639988  42.1540012  74.0294997   6.8429988
  41.1510012  74.0214997   5.7089988  41.9068962  74.2816650   6.0498340
  51.4500012  74.7424997   1.1849988  51.8250012  73.9984997   0.7149988
  51.4540012  74.4724997   2.1039988  51.5018915  74.6041486   1.2447824
  51.1190012  74.6684997   3.9349988  50.1830012  74.7684997   4.1129988
  51.3990012  73.9594997   4.5129988  51.0288255  74.5862711   4.0375391
  54.1070012  63.7354997  15.9809988  53.7000012  64.2164997  15.2599988
  54.1480012  62.8304997  15.6729988  54.0568437  63.6789374  15.8406683
  41.2560012  70.1194997  13.9779988  41.4720012  69.7584997  14.8369988
  40.4010012  69.7454997  13.7679988  41.1699292  70.0194111  14.0673386
  43.8750012  58.5894997   9.9729988  43.0130012  58.5024997   9.5659988
  43.8520012  59.4454997  10.4009988  43.7540330  58.6932765   9.9751863
  48.5380012  58.3114997  13.3479988  48.9580012  57.8964997  14.1009988
  47.6050012  58.1334997  13.4649988  48.4693644  58.2305900  13.4669539
  51.8640012  62.0674997  14.2009988  51.3500012  61.9414997  14.9989988
  51.7090012  62.9794997  13.9569988  51.7726852  62.1736132  14.2772158
  52.6270012  66.9284997  -0.0370012  52.6690012  66.7054997  -0.9670012
  53.4760012  67.3274997   0.1529988  52.7475396  66.9519155  -0.1386373
  48.1990012  60.8044997   0.6329988  47.9460012  60.8234997   1.5559988
  47.9430012  59.9324997   0.3319988  48.1297790  60.6892437   0.7186263
  43.9660012  63.5554997  11.0679988  43.3240012  63.5144997  11.7769988
  44.0030012  64.4814997  10.8309988  43.8831324  63.6751559  11.1329824
  43.9630012  63.7764997   5.9799988  43.0700012  63.4354997   5.9219988
  44.4130012  63.3994997   5.2249988  43.9017305  63.6788484   5.8699177
  49.4980012  64.1924997   4.7969988  49.0890012  65.0074997   4.5059988
  50.2190012  64.0524997   4.1829988  49.5394537  64.2852018   4.6741342
  48.6000012  64.3674997  16.2849988  48.0380012  63.6634997  16.6059988
  49.4270012  64.2474997  16.7529988  48.6347095  64.2547883  16.3922330
  50.5030012  63.6384997   7.6109988  50.3080012  64.2434997   6.8959988
  50.6840012  62.8044997   7.1769988  50.5007614  63.6086300   7.4544405
  41.7160012  63.8754997  12.9349988  41.6780012  64.2754997  13.8039988
  41.2250012  63.0584997  13.0259988  41.6444684  63.8198069  13.0661059
  45.0820012  61.2494997  -0.2660012  44.6510012  60.8044997   0.4639988
  44.3640012  61.6214997  -0.7780012  44.9259438  61.2388940  -0.2353201
  38.3240012  60.9914997   6.7859988  38.9550012  60.9624997   7.5049988
  38.7730012  60.5664997   6.0559988  38.4710774  60.9300492   6.7856553
  39.5980012  61.7374997   2.2099988  40.0720012  62.3284997   1.6249988
  38.8810012  62.2684997   2.5569988  39.5659341  61.8900867   2.1768836
  49.7670012  65.2764997  12.2829988  50.0900012  64.6454997  11.6399988
  49.3270012  64.7414997  12.9429988  49.7516895  65.1178441  12.2842850
  46.5440012  61.2034997   7.0669988  45.6330012  61.2604997   7.3549988
  47.0500012  61.1434997   7.8769988  46.4875413  61.2031985   7.2160622
  41.3730012  62.8324997   5.8929988  40.4830012  62.9324997   5.5529988
  41.6690012  61.9904997   5.5469988  41.2912823  62.7323545   5.7997213
  45.0260012  62.8324997   3.5499988  45.9570012  62.9614997   3.7279988
  44.8110012  63.5024997   2.8999988  45.1244247  62.9406565   3.4865747
  50.9490012  60.4384997  10.3309988  50.2730012  60.5694997  10.9949988
  50.4640012  60.2834997   9.5209988  50.7907145  60.4354905  10.3124517
  43.7000012  64.0274997   1.1169988  43.1570012  63.6474997   0.4249988
  44.5330012  64.2214997   0.6879988  43.7384399  64.0018124   0.9644526
  54.2370012  76.1104997  16.6079988  54.4370012  76.5344997  15.7729988
  54.8920012  76.4534997  17.2149988  54.3530051  76.2149648  16.5757836
  41.8350012  68.5844997  16.2159988  42.5670012  68.8384997  16.7769988
  41.0550012  68.7884997  16.7309988  41.8298232  68.6469177  16.3625760
  47.8640012  63.9914997   8.9539988  48.4290012  63.4444997   8.4069988
  47.7170012  63.4694997   9.7419988  47.9212918  63.8462024   8.9858454
  42.8660012  60.1274997   5.3719988  42.5490012  59.2254997   5.3369988
  43.6480012  60.1294997   4.8189988  42.9282284  60.0041628   5.2924783
  46.4910012  62.3794997  11.3679988  45.6550012  62.8334997  11.4779988
  47.0150012  62.6554997  12.1199988  46.4474414  62.4789376  11.4847136
  47.0350012  68.5924997   3.0519988  46.2900012  68.0854997   2.7299988
  46.9010012  68.6414997   3.9989988  46.9148776  68.5296940   3.1358647
  54.1850012  67.7254997  11.8389988  54.8270012  68.1824997  11.2949988
  53.3550012  67.8384997  11.3759988  54.1605963  67.8032704  11.7020177
  50.9330012  61.4064997   1.2519988  49.9940012  61.5184997   1.0999988
  51.2300012  62.2634997   1.5579988  50.8447666  61.5376443   1.2725768
  48.5540012  68.7764997  14.2889988  48.2090012  68.3954997  15.0959988
  48.3540012  69.7104997  14.3609988  48.4798061  68.8505228  14.4090961
  51.6510012  63.2734997   2.9119988  52.5430012  63.1364997   3.2309988
  51.7080012  64.0644997   2.3759988  51.7806285  63.3616660   2.8831691
  42.1600012  67.8874997   8.8219988  42.9050012  67.8854997   8.2209988
  42.2380012  67.0644997   9.3039988  42.2725518  67.7759315   8.8048929
  49.1610012  70.0514997   2.0779988  48.8650012  70.8774997   2.4589988
  48.4580012  69.4314997   2.2739988  49.0254914  70.0808199   2.1566443
  39.1680012  66.3484997  14.1369988  39.3910012  65.9304997  14.9689988
  38.5660012  65.7354997  13.7139988  39.1171759  66.2084668  14.1937022
  46.1840012  65.8654997  16.3499988  45.8880012  65.6994997  15.4549988
  47.1160012  65.6454997  16.3389988  46.2694166  65.8130640  16.2260536
  50.8050012  71.2384997  14.2399988  49.9040012  71.4214997  13.9719988
  50.8390012  71.4974997  15.1609988  50.6863041  71.2985512  14.3278197
  56.5360012  63.4834997   2.6069988  55.9820012  63.0874997   1.9349988
  56.6360012  64.3934997   2.3289988  56.4737059  63.5523586   2.4774401
  56.4990012  69.2834997  15.4439988  55.6480012  69.5214997  15.0769988
  57.0900012  69.2664997  14.6909988  56.4622487  69.3138258  15.2918893
  54.8310012  72.2694997   3.0719988  54.4580012  71.4434997   3.3809988
  55.1090012  72.0864997   2.1749988  54.8175630  72.1317303   2.9929626
  51.9920012  67.0774997  10.0929988  51.0630012  66.8454997  10.0659988
  52.4430012  66.3004997   9.7629988  51.9259216  66.9407238  10.0446917
  44.5350012  71.4054997   6.2259988  45.0620012  72.1784997   6.0259988
  43.6550012  71.6304997   5.9249988  44.4881773  71.5418005   6.1579010
  40.2900012  66.2674997   0.8129988  40.9060012  66.8944997   1.1929988
  39.4280012  66.5834997   1.0849988  40.2577698  66.3959430   0.9017183
  45.9620012  69.0684997   5.8029988  45.7210012  69.9934997   5.8439988
  45.2210012  68.6094997   6.1989988  45.8288409  69.1331421   5.8621377
  46.4770012  73.2174997  12.1179988  46.8390012  74.0724997  11.8839988
  47.0080012  72.9254997  12.8579988  46.5984473  73.2951060  12.1860855
  44.6450012  74.0904997   5.3479988  43.6950012  74.1954997   5.3989988
  44.9970012  74.9104997   5.6929988  44.5624203  74.2158314   5.4016650
  50.0210012  69.3164997  11.8179988  49.5950012  69.0894997  12.6449988
  50.6010012  68.5784997  11.6359988  50.0411868  69.1855299  11.9065830
  52.2240012  70.2454997   0.8919988  52.5770012  69.8654997   1.6969988
  51.2750012  70.1524997   0.9789988  52.1440441  70.1809596   1.0138559
  52.6790012  73.8684997  14.2879988  52.0780012  73.3134997  13.7919988
  52.9610012  74.5354997  13.6619988  52.6348519  73.8826841  14.1354951
  56.7270012  74.7254997   1.0929988  57.4710012  75.3114997   0.9529988
  56.0330012  75.2934997   1.4269988  56.7350292  74.8825582   1.1189961
  40.8020012  61.1014997  13.6949988  39.9090012  61.4404997  13.6269988
  40.7030012  60.2464997  14.1129988  40.6664164  61.0322588  13.7422235
  53.0900012  68.9184997   3.1189988  52.8120012  68.1904997   3.6749988
  54.0170012  69.0374997   3.3239988  53.1773124  68.8348802   3.2228845
  40.4530012  72.9064997  12.1299988  40.6700012  71.9744997  12.0989988
  40.6990012  73.1804997  13.0129988  40.5159549  72.8160636  12.2451763
  46.3150012  71.3574997  -0.6610012  46.5540012  70.6094997  -1.2080012
  46.0460012  70.9694997   0.1719988  46.3113675  71.2026638  -0.6233135
  45.2520012  70.9274997   1.7959988  45.3980012  70.4074997   2.5859988
  45.2490012  71.8344997   2.1019988  45.2715989  70.9788853   1.9456088
  41.7050012  68.1804997   2.3059988  41.0190012  68.5324997   2.8729988
  42.2270012  68.9434997   2.0589988  41.6816852  68.3318578   2.3502118
  49.5360012  60.8424997  12.5849988  50.2350012  60.9164997  13.2349988
  49.1550012  59.9784997  12.7389988  49.5801767  60.7357624  12.6948322
  50.3210012  60.4944997   3.6819988  50.5410012  60.9664997   2.8789988
  50.8790012  60.8894997   4.3519988  50.4264968  60.6124285   3.6627331
  47.9890012  72.6254997   2.5449988  47.1730012  73.1224997   2.5969988
  48.5190012  73.1004997   1.9049988  47.9489161  72.7577722   2.4655956
  47.5210012  62.2224997   4.5169988  48.3330012  62.7274997   4.5629988
  47.2760012  62.0774997   5.4309988  47.5990520  62.2720375   4.6468517
  48.0560012  63.2084997  13.7019988  48.1750012  63.7824997  14.4589988
  48.7120012  62.5204997  13.8159988  48.1609757  63.1941079  13.8210825
  48.4040012  59.3034997   5.4549988  48.0580012  59.9214997   6.0999988
  49.0630012  59.8044997   4.9739988  48.4457826  59.4555802   5.4780971
  45.3280012  73.6694997   2.5269988  45.4880012  74.4684997   2.0259988
  45.1300012  73.9754997   3.4119988  45.3231649  73.8204469   2.5779815
  44.0620012  60.3664997   2.1419988  43.9790012  61.2554997   2.4889988
  44.9520012  60.1014997   2.3739988  44.1709469  60.4521430   2.2207626
  54.2610012  61.1154997  14.5369988  53.3440012  61.3784997  14.4489988
  54.5960012  61.1124997  13.6399988  54.1809900  61.1510224  14.4037919
  52.8630012  64.8664997   8.6319988  52.0650012  64.4514997   8.3039988
  53.3080012  64.1754997   9.1229988  52.8139885  64.7163543   8.6534889
  42.3210012  70.7944997   1.2029988  42.9130012  71.4934997   1.4789988
  42.7800012  70.3614997   0.4829988  42.4641142  70.8317049   1.1434830
  40.6370012  63.4584997   0.3189988  40.5920012  64.3974997   0.4969988
  39.7490012  63.2224997   0.0489988  40.5108574  63.5551892   0.3068912
  53.9490012  74.1224997  10.2549988  53.7940012  74.8004997   9.5979988
  54.8820012  74.1944997  10.4579988  54.0538500  74.2250170  10.1925119
  41.4450012  58.2404997   8.9919988  41.2160012  58.2994997   8.0639988
  41.0020012  57.4484997   9.2979988  41.3538530  58.1415753   8.9064786
  40.3750012  72.1804997   5.1519988  39.5430012  72.6534997   5.1799988
  40.9210012  72.6904997   4.5539988  40.3349739  72.3141871   5.0749716
  39.6630012  74.7934997  16.4819988  40.2040012  74.5764997  17.2419988
  39.1820012  73.9874997  16.2929988  39.6719345  74.6549514  16.5603076
  44.2610012  73.7124997  18.1029988  45.0280012  73.2534997  18.4439988
  44.2390012  73.4864997  17.1729988  44.3631434  73.6190409  18.0240043
  48.3530012  73.2204997  -0.5220012  47.7090012  72.5894997  -0.2010012
  49.1150012  72.6894997  -0.7540012  48.3678077  73.0622920  -0.5093989
  50.8380012  72.0924997  16.8319988  50.4870012  71.2364997  17.0749988
  51.5640012  72.2354997  17.4389988  50.8880769  71.9945636  16.9473619
  52.9570012  73.0374997  -0.2880012  53.2400012  72.2434997   0.1639988
  53.6970012  73.2704997  -0.8490012  53.0957486  72.9602803  -0.3019302
  39.5700012  68.6034997  17.4369988  39.7140012  67.7014997  17.1499988
  38.7980012  68.8894997  16.9489988  39.4853322  68.5188261  17.3317881
  43.9120012  68.9474997  -0.4310012  43.9760012  68.1534997   0.0999988
  44.5650012  68.8284997  -1.1210012  44.0090241  68.8227148  -0.4515683
  46.2260012  68.5734997  16.8689988  45.8970012  68.8444997  16.0119988
  46.3780012  67.6324997  16.7819988  46.2014809  68.4833862  16.7398244
  49.2640012  69.9944997  -0.6950012  48.9950012  70.1744997   0.2059988
  49.0580012  69.0684997  -0.8260012  49.1993825  69.8940152  -0.5894786
  51.9600012  68.4894997  14.2529988  52.7060012  69.0774997  14.1329988
  51.2030012  69.0714997  14.3159988  51.9597554  68.6487011  14.2450907
  40.4030012  65.8034997  16.8569988  40.8110012  64.9464997  16.7359988
  40.1430012  65.8184997  17.7779988  40.4237568  65.6880807  16.9649588
  45.0610012  66.9194997   1.8749988  44.6010012  66.4354997   2.5609988
  45.3160012  66.2514997   1.2389988  45.0324902  66.7628731   1.8829334
  44.3500012  64.8124997  14.2309988  43.7320012  65.4874997  14.5109988
  44.6940012  65.1334997  13.3979988  44.3119615  64.9482721  14.1566581
  46.1320012  65.1624997   0.1369988  45.9520012  65.0084997  -0.7900012
  47.0820012  65.2704997   0.1819988  46.2357776  65.1560175   0.0161843
  49.3700012  67.2844997  17.5079988  50.3230012  67.3674997  17.4809988
  49.2090012  66.5724997  18.1279988  49.4786426  67.1996746  17.5880579
  55.5220012  67.5174997  -0.4170012  55.2480012  67.0924997  -1.2300012
  55.5610012  68.4484997  -0.6340012  55.4897699  67.5852484  -0.5576390
  44.6890012  62.1674997  15.3129988  44.8390012  61.4384997  14.7109988
  44.6920012  62.9444997  14.7539988  44.7099302  62.1727851  15.1550692
  45.1020012  60.5374997  12.8059988  45.6380012  60.9884997  12.1539988
  44.2500012  60.4294997  12.3829988  45.0602178  60.5846390  12.6595756
  46.6840012  65.9764997  13.0449988  47.4340012  65.8204997  12.4719988
  46.3450012  66.8284997  12.7699988  46.7408921  66.0702968  12.9293561
  51.0990012  63.7914997  18.0739988  51.2920012  62.8604997  17.9619988
  51.9570012  64.2164997  18.0639988  51.2413020  63.7216389  18.0573361
  52.4160012  66.5804997  16.1509988  52.1350012  67.2894997  15.5739988
  53.3590012  66.5074997  15.9999988  52.5049027  66.6677646  16.0515551
  43.1680012  63.3654997  17.2249988  42.4010012  62.8334997  17.0149988
  43.8470012  63.0554997  16.6249988  43.1547022  63.2507506  17.1151648
  45.9080012  57.9934997  13.2369988  45.8090012  58.9404997  13.1319988
  45.1650012  57.6214997  12.7619988  45.7940564  58.0725902  13.1584560
  47.1720012  62.3154997  16.8009988  46.9360012  62.0954997  17.7029988
  46.3880012  62.1084997  16.2909988  47.0338628  62.2574760  16.8553932
  49.8870012  61.4424997  15.8769988  48.9400012  61.4744997  16.0089988
  50.2000012  60.8174997  16.5299988  49.7995475  61.3623207  15.9834455
  51.5210012  60.0764997  17.8819988  51.4250012  59.1244997  17.8759988
  51.2000012  60.3454997  18.7419988  51.4644070  59.9824035  17.9975441
  41.3480012  61.2864997  16.9289988  41.5600012  60.5794997  16.3189988
  41.2370012  60.8484997  17.7729988  41.3619721  61.1307084  16.9596843
  46.1290012  57.2874997  15.9089988  46.8410012  56.6474997  15.8949988
  46.0280012  57.5544997  14.9949988  46.2127939  57.2359938  15.7835650
  46.4830012  58.9704997  17.9619988  46.3510012  58.4944997  17.1419988
  45.8840012  59.7144997  17.9069988  46.3839071  59.0059618  17.8422886
  46.0290012  75.8534997   1.1389988  46.9620012  76.0114997   1.2819988
  45.7650012  76.5284997   0.5139988  46.1209510  75.9663611   1.0740741
  39.5980012  70.4894997   0.6209988  40.5120012  70.5684997   0.8949988
  39.6050012  69.8024997  -0.0450012  39.7241131  70.4073961   0.5684393
  38.2470012  75.8824997   5.6989988  37.6000012  75.4204997   5.1659988
  38.6010012  75.2104997   6.2809988  38.2063849  75.7284723   5.7047959
  39.1170012  73.9634997   7.5029988  38.7820012  73.0834997   7.6749988
  39.3390012  74.3084997   8.3679988  39.1011783  73.8897500   7.6434208
  56.6650012  74.7724997  10.4839988  56.6440012  74.9574997  11.4229988
  57.3560012  75.3414997  10.1429988  56.7554618  74.8746606  10.5663864
  56.2290012  74.3404997  13.4059988  55.7410012  73.6044997  13.0349988
  56.7780012  73.9464997  14.0839988  56.2364872  74.1866249  13.4469160
  54.6790012  70.1294997  18.0439988  53.8130012  70.0244997  18.4379988
  55.0560012  70.8884997  18.4899988  54.6113308  70.2176900  18.1582393
  55.9800012  68.3864997   3.5579988  56.8300012  68.8074997   3.6849988
  55.9860012  67.6464997   4.1649988  56.0971372  68.3440803   3.6574344
  56.3750012  66.4394997   5.3819988  55.6480012  65.9604997   5.7789988
  56.9560012  66.6454997   6.1139988  56.3539375  66.4017090   5.5354129
  56.1340012  69.2244997  10.3289988  56.9670012  68.8464997  10.0489988
  56.2460012  70.1674997  10.2099988  56.2632647  69.3002218  10.2745487
  54.6200012  72.1024997  12.6359988  53.9730012  72.4274997  13.2619988
  54.1030012  71.6624997  11.9619988  54.4614029  72.0875004  12.6305827
  56.6430012  66.3404997   1.7729988  56.1210012  66.6974997   1.0539988
  56.6100012  67.0154997   2.4509988  56.5671634  66.4805413   1.7663145
  54.9920012  63.5804997   0.3239988  55.0880012  64.2474997  -0.3570012
  54.8520012  62.7644997  -0.1580012  54.9862135  63.5614500   0.1658491
  54.1610012  64.9604997   5.9449988  54.0110012  64.0154997   5.9239988
  53.8080012  65.2414997   6.7879988  54.0926625  64.8690441   6.0562346
  39.1970012  67.0384997   9.9549988  39.3810012  66.9564997   9.0189988
  40.0460012  66.9144997  10.3789988  39.3370139  67.0105003   9.8841455
  55.0180012  66.9304997  15.5829988  55.6010012  66.1964997  15.7749988
  55.5820012  67.7024997  15.6299988  55.1739769  66.9344227  15.6156159
  56.5140012  64.8334997  16.2679988  55.6510012  64.4544997  16.1019988
  57.1190012  64.0944997  16.1939988  56.4775979  64.6818023  16.2352817
  54.2390012  60.9884997  -0.5590012  54.8500012  60.6174997   0.0779988
  53.4030012  60.5674997  -0.3630012  54.2095032  60.8807554  -0.4452965
  53.8720012  62.5434997   4.4069988  54.1520012  61.6364997   4.5309988
  54.6310012  62.9774997   4.0179988  54.0129277  62.4780942   4.3713682
  54.4840012  63.1244997   9.8429988  55.4170012  63.3364997   9.8089988
  54.2490012  63.2264997  10.7649988  54.5798036  63.1672769   9.9629976
  54.5130012  63.8614997  12.6189988  53.6700012  64.1294997  12.9849988
  54.9550012  64.6834997  12.4079988  54.4574158  64.0093291  12.6405491
  38.7940012  62.3094997  16.0959988  39.7140012  62.1874997  16.3319988
  38.3450012  61.5594997  16.4849988  38.8591580  62.1913727  16.1809006
  56.7960012  57.8414997  17.9719988  57.1460012  57.1874997  17.3669988
  56.9430012  58.6784997  17.5329988  56.8638419  57.8651591  17.8297118
  54.4850012  59.8064997   4.4549988  54.6680012  59.3574997   5.2809988
  53.8860012  59.2214997   3.9919988  54.4290202  59.6659975   4.5053275
  40.0150012  60.6214997   8.9869988  40.4610012  59.8294997   9.2889988
  40.4820012  61.3374997   9.4179988  40.1390172  60.6100624   9.0864820
  38.3190012  63.6204997  10.0559988  38.8110012  63.3994997   9.2649988
  38.6820012  64.4614997  10.3369988  38.4353126  63.7038357   9.9857531
  56.3160012  59.9504997  16.3219988  55.3980012  60.2214997  16.2859988
  56.4390012  59.4154997  15.5369988  56.2071066  59.9152892  16.2110487
  56.3520012  59.8734997   0.9829988  56.7640012  59.1524997   0.5079988
  57.0340012  60.5434997   1.0419988  56.5005885  59.8652368   0.9258915
  38.6330012  59.8784997   4.1099988  37.7080012  60.0874997   3.9809988
  39.0870012  60.3624997   3.4209988  38.5677368  59.9725993   3.9991226
  53.4040012  74.8624997   6.0559988  54.0560012  74.5154997   5.4479988
  53.9140012  75.3514997   6.7019988  53.5622637  74.8810597   6.0600236
  38.5970012  58.6164997  12.4549988  37.9320012  58.3704997  13.0979988
  38.1540012  59.2384997  11.8769988  38.4460956  58.6668632  12.4649352
  40.7890012  71.7914997  16.5989988  39.9680012  71.9664997  16.1389988
  40.5360012  71.7184997  17.5199988  40.6426164  71.8055622  16.6604923
  43.7430012  72.7664997  12.8579988  43.3180012  73.5754997  12.5749988
  44.6470012  72.8514997  12.5559988  43.8070271  72.8888469  12.7783776
  48.0540012  74.1654997  15.8169988  48.2390012  73.8314997  16.6949988
  48.9000012  74.4744997  15.4949988  48.1937539  74.1616047  15.8935605
  50.3990012  75.4514997  15.0609988  51.0760012  74.8184997  14.8209988
  50.7210012  75.8524997  15.8679988  50.5351637  75.4191154  15.1372793
  55.3160012  58.0404997  14.1409988  54.5040012  58.3654997  13.7529988
  55.5490012  57.2804997  13.6079988  55.2363423  57.9822436  14.0158253
  41.1450012  76.0224997  12.9049988  40.4240012  76.4624997  12.4539988
  40.7790012  75.7714997  13.7539988  40.9969804  76.0487698  12.9579840
  43.6120012  75.6224997  11.9349988  42.7470012  75.6944997  12.3389988
  43.5570012  76.1694997  11.1509988  43.4862085  75.7062685  11.8843362
  48.3220012  75.5104997  11.1099988  47.8660012  76.0394997  10.4559988
  48.4850012  76.1134997  11.8359988  48.2815585  75.6644468  11.1185062
  50.6500012  74.3884997  12.0549988  49.7450012  74.5534997  11.7899988
  51.0790012  75.2414997  11.9899988  50.5840799  74.5264483  12.0099182
  53.2540012  75.9584997  12.3499988  53.0720012  76.8744997  12.1399988
  53.4310012  75.5484997  11.5039988  53.2530210  76.0284822  12.2067885
  40.5590012  74.6454997   9.8149988  40.5410012  74.2204997  10.6729988
  41.3640012  74.3274997   9.4069988  40.6653875  74.5443812   9.8771655
  42.7010012  73.3554997   8.4699988  42.4820012  72.4394997   8.6399988
  43.5250012  73.4954997   8.9359988  42.7824420  73.2490520   8.5562774
  45.2380012  73.8254997   9.3189988  45.4510012  72.9374997   9.0319988
  45.3020012  73.7914997  10.2729988  45.2758232  73.6993102   9.4087397
  48.7460012  59.4894997   8.4629988  48.0720012  58.8604997   8.7189988
  49.3100012  59.0054997   7.8599988  48.7299230  59.3378744   8.4165340
  53.8890012  57.5974997   8.5759988  54.4930012  58.1444997   8.0739988
  53.0190012  57.9164997   8.3359988  53.8541241  57.7155806   8.4747654
  55.6160012  58.7354997   6.9089988  56.2280012  58.2214997   6.3829988
  55.9980012  59.6134997   6.9329988  55.7514540  58.7837140   6.8401830
  41.0730012  58.1234997   6.2849988  40.2960012  57.8894997   5.7779988
  41.6030012  57.3264997   6.2939988  41.0382330  57.9836988   6.2167742
  39.9090012  57.9214997   2.0889988  40.3480012  58.5324997   1.4969988
  39.2760012  58.4594997   2.5629988  39.8834514  58.0779257   2.0720930
  45.6520012  58.0504997   6.0989988  46.5270012  58.4384997   6.0689988
  45.5160012  57.8354997   7.0209988  45.7533695  58.0745184   6.2196440
  51.2090012  58.0804997   7.7479988  51.2850012  58.1754997   6.7979988
  50.9340012  57.1724997   7.8769988  51.1822321  57.9707867   7.6355079
  52.5620012  58.1064997   3.4399988  51.8600012  58.7214997   3.2309988
  52.1180012  57.2684997   3.5709988  52.4056330  58.0775783   3.4290328
  39.8100012  73.8694997   2.9869988  39.1250012  73.8314997   2.3189988
  39.8140012  74.7824997   3.2749988  39.7168193  73.9877016   2.9345284
  41.7700012  59.8374997   0.5309988  42.2620012  59.2074997   0.0039988
  42.3940012  60.1334997   1.1949988  41.9215446  59.7913199   0.5485980
  46.7960012  60.1304997   2.9879988  46.9740012  59.4844997   3.6709988
  46.7430012  60.9644997   3.4559988  46.8131829  60.1547985   3.1445940
  48.6750012  75.0794997   1.3839988  49.5410012  75.4454997   1.2059988
  48.4280012  74.6394997   0.5699988  48.7602392  75.0701756   1.2496289
  55.3840012  74.6424997   4.0629988  55.1890012  73.8944997   3.4979988
  55.3450012  75.4004997   3.4799988  55.3520380  74.6426099   3.9068384
  41.0310012  58.6374997  15.8029988  40.6650012  57.8724997  16.2459988
  41.9440012  58.6664997  16.0899988  41.1042790  58.5367224  15.9024070
  43.0040012  57.9884997  17.3389988  43.9020012  57.7144997  17.1539988
  42.6170012  57.2454997  17.8029988  43.0746612  57.8505914  17.3763643
  41.6280012  74.7894997   0.0119988  41.3610012  75.0764997   0.8849988
  42.4000012  74.2434997   0.1639988  41.6957488  74.7550294   0.1521050
  51.4250012  57.3204997  17.5209988  51.5020012  56.8944997  18.3749988
  52.3190012  57.3344997  17.1779988  51.5563428  57.2640879  17.5915310
  54.6010012  73.3934997  16.2129988  53.8190012  73.2074997  15.6939988
  54.5290012  74.3224997  16.4309988  54.4841777  73.4936492  16.1714048
  69.0070012  67.2794997   6.2439988  69.0960012  68.2234997   6.1119988
  68.3690012  67.0044997   5.5859988  68.9329081  67.3714830   6.1369614
  67.9400012  66.5344997   9.6629988  67.9020012  65.8884997  10.3679988
  67.6180012  66.0684997   8.8919988  67.8912333  66.3829408   9.6552978
  60.3090012  66.1494997  11.2559988  60.3500012  65.5234997  11.9789988
  61.0120012  66.7734997  11.4379988  60.4096363  66.1481196  11.3796044
  71.6460012  69.4734997   7.9639988  71.2060012  68.7534997   8.4149988
  71.6330012  70.1944997   8.5939988  71.5840226  69.4723731   8.1108494
  61.2320012  70.5994997   9.7909988  60.8630012  69.7974997   9.4209988
  62.1730012  70.4304997   9.8369988  61.3087289  70.4670153   9.7466316
  57.8420012  64.2594997   5.1839988  57.3950012  65.1054997   5.1649988
  57.2810012  63.6794997   4.6679988  57.7049900  64.2969916   5.1116801
  58.5530012  66.4214997   7.3099988  58.7660012  65.6514997   7.8369988
  59.2910012  66.5104997   6.7059988  58.6818496  66.3281394   7.3005300
  68.7580012  74.5784997   8.1769988  69.3780012  73.9014997   7.9029988
  68.5500012  74.3604997   9.0849988  68.8146904  74.4563870   8.2623365
  66.3300012  68.9674997  10.0689988  66.6340012  68.2814997   9.4739988
  67.0510012  69.0854997  10.6869988  66.4690671  68.8896305  10.0711816
  74.9930012  60.5684997  10.9299988  75.0420012  61.1784997  11.6659988
  75.4180012  61.0294997  10.2069988  75.0571824  60.7143741  10.9330205
  69.4710012  63.3614997  10.3969988  69.6130012  62.4154997  10.4169988
  69.3640012  63.5684997   9.4679988  69.4759864  63.2599534  10.2742339
  62.6250012  61.4624997   7.6689988  62.6690012  62.3224997   7.2509988
  62.1680012  60.9104997   7.0349988  62.5692185  61.5055799   7.5260299
  70.3480012  61.5934997   6.0699988  70.9940012  61.2644997   6.6949988
  70.8580012  62.1114997   5.4469988  70.5054264  61.6184611   6.0713862
  59.2460012  63.8594997   8.4309988  59.8990012  63.3094997   8.8629988
  59.2700012  63.5854997   7.5139988  59.3386683  63.7471466   8.3662123
  64.4020012  65.4094997   7.6459988  65.0180012  64.8834997   8.1559988
  63.8160012  64.7694997   7.2429988  64.4070810  65.2509208   7.6613173
  75.3840012  62.0464997  13.1659988  74.6960012  62.7044997  13.0699988
  75.4000012  61.8494997  14.1019988  75.2918525  62.1100462  13.2794808
  61.4360012  60.3804997  11.7429988  61.2170012  60.9104997  10.9769988
  60.7680012  60.6074997  12.3899988  61.3157600  60.4836906  11.7256379
  68.8050012  69.8804997   5.2869988  68.5090012  69.5584997   4.4359988
  68.4800012  70.7804997   5.3279988  68.7206371  69.9580215   5.1761801
  64.0050012  68.0564997  12.0299988  63.2650012  68.6544997  12.1339988
  64.7190012  68.6104997  11.7149988  64.0002237  68.2132831  12.0016465
  72.1120012  60.8844997   8.0499988  71.8960012  60.1184997   8.5829988
  72.7670012  61.3564997   8.5629988  72.1710632  60.8435889   8.1922861
  61.0290012  62.2724997   9.6949988  61.6430012  62.9054997  10.0689988
  61.5410012  61.8004997   9.0389988  61.1822296  62.2952370   9.6574252
  62.4120012  70.0204997  12.8179988  62.4070012  70.9004997  12.4399988
  61.5590012  69.9374997  13.2429988  62.2959464  70.1296117  12.8237907
  58.5330012  69.6914997   3.5999988  58.2610012  69.9204997   2.7109988
  58.5790012  70.5294997   4.0599988  58.5020094  69.8361213   3.5405697
  72.1580012  71.3134997  10.3119988  71.2170012  71.3714997  10.4739988
  72.4350012  72.2194997  10.1749988  72.0664679  71.4439443  10.3156815
  72.4590012  59.5994997  11.7299988  71.7230012  60.2104997  11.6919988
  73.1420012  60.0144997  11.2029988  72.4506541  59.7391374  11.6535832
  65.4620012  57.6864997   9.1959988  65.3450012  56.7374997   9.1409988
  64.6070012  58.0184997   9.4689988  65.3303733  57.6015409   9.2253897
  70.4100012  73.0944997   6.9379988  70.8360012  72.3874997   6.4529988
  70.7270012  73.8954997   6.5209988  70.5111019  73.1060994   6.8153130
  71.5700012  70.9954997   5.4459988  71.3120012  70.3054997   4.8349988
  71.6410012  70.5524997   6.2919988  71.5442856  70.8412124   5.4766885
  67.7290012  66.5234997   3.6959988  67.0170012  67.0584997   3.3439988
  68.4200012  66.5794997   3.0359988  67.7250132  66.6042543   3.5586289
  67.7820012  64.9814997   0.7349988  68.4830012  65.0034997   1.3859988
  68.0850012  64.3534997   0.0789988  67.9187830  64.8996566   0.7353711
  75.0980012  65.9014997  11.9899988  74.4450012  66.5964997  12.0789988
  75.5630012  66.1114997  11.1799988  75.0715390  66.0249425  11.8926883
  71.1340012  66.7334997   4.6479988  70.4020012  66.9614997   5.2209988
  71.5820012  66.0194997   5.1029988  71.0943095  66.6682571   4.7879119
  71.0320012  64.9074997  13.7149988  71.1120012  65.6704997  14.2869988
  70.4300012  65.1864997  13.0249988  70.9615756  65.0497134  13.7000589
  62.7800012  67.3634997   6.5299988  62.4490012  66.9934997   5.7119988
  63.3680012  66.6934997   6.8769988  62.8141873  67.2221156   6.4648102
  64.1460012  70.7914997   9.2119988  64.0520012  70.2134997   8.4549988
  64.8760012  70.4204997   9.7079988  64.2317981  70.6622390   9.1754165
  63.1460012  66.1324997  10.1639988  63.7120012  66.2534997   9.4009988
  63.4650012  66.7694997  10.8029988  63.2665786  66.2351884  10.1460040
  69.4550012  71.6354997  10.8979988  69.2150012  72.2974997  11.5459988
  69.2570012  70.8014997  11.3229988  69.3953808  71.6133134  11.0441524
  64.0260012  70.5314997  14.8809988  63.7150012  71.3134997  15.3359988
  63.3760012  70.3784997  14.1949988  63.8955558  70.6179105  14.8505871
  70.0050012  65.8954997   2.3329988  70.5850012  66.0454997   3.0799988
  70.4190012  66.3664997   1.6099988  70.1402830  65.9796841   2.3374134
  60.9460012  66.7294997  14.1099988  61.0170012  67.3804997  14.8079988
  60.0560012  66.8324997  13.7749988  60.8353117  66.8325936  14.1602700
  67.7320012  72.6324997   5.7679988  68.2060012  72.9274997   6.5459988
  67.1690012  73.3704997   5.5349988  67.7207653  72.7726932   5.8430136
  62.2660012  72.6034997  15.6439988  62.2730012  72.4674997  14.6969988
  61.3500012  72.4854997  15.8959988  62.1431714  72.5689430  15.5484666
  73.7040012  57.6454997   2.1459988  72.8040012  57.7844997   2.4409988
  73.9560012  58.4764997   1.7439988  73.6148702  57.7769074   2.1320205
  61.7700012  66.4334997   4.1199988  61.4780012  67.2014997   3.6289988
  61.0960012  65.7734997   3.9569988  61.6389081  66.4494406   4.0307340
  74.8930012  72.0114997   0.5219988  74.9670012  72.9504997   0.6929988
  75.7990012  71.7064997   0.4659988  75.0255100  72.0986722   0.5378119
  57.8630012  68.7964997  12.9349988  57.3620012  68.7684997  12.1199988
  57.8680012  67.8904997  13.2439988  57.7951526  68.6702278  12.8652872
  57.6130012  71.5764997   9.8189988  58.5590012  71.4324997   9.7999988
  57.5010012  72.3604997  10.3559988  57.7272727  71.6628046   9.8890072
  66.7900012  71.8164997  14.3769988  66.8770012  72.6424997  14.8519988
  65.9260012  71.4864997  14.6259988  66.6851964  71.8849878  14.4756549
  67.2040012  75.5884997   4.1829988  67.1290012  75.4674997   3.2369988
  67.2370012  76.5384997   4.3019988  67.1981848  75.7002500   4.0694834
  60.8570012  74.3774997   5.9639988  61.0100012  74.0294997   6.8429988
  60.0070012  74.0214997   5.7089988  60.7628962  74.2816650   6.0498340
  70.3060012  74.7424997   1.1849988  70.6810012  73.9984997   0.7149988
  70.3100012  74.4724997   2.1039988  70.3578915  74.6041486   1.2447824
  69.9750012  74.6684997   3.9349988  69.0390012  74.7684997   4.1129988
  70.2550012  73.9594997   4.5129988  69.8848255  74.5862711   4.0375391
  72.9630012  63.7354997  15.9809988  72.5560012  64.2164997  15.2599988
  73.0040012  62.8304997  15.6729988  72.9128437  63.6789374  15.8406683
  60.1120012  70.1194997  13.9779988  60.3280012  69.7584997  14.8369988
  59.2570012  69.7454997  13.7679988  60.0259292  70.0194111  14.0673386
  62.7310012  58.5894997   9.9729988  61.8690012  58.5024997   9.5659988
  62.7080012  59.4454997  10.4009988  62.6100330  58.6932765   9.9751863
  67.3940012  58.3114997  13.3479988  67.8140012  57.8964997  14.1009988
  66.4610012  58.1334997  13.4649988  67.3253644  58.2305900  13.4669539
  70.7200012  62.0674997  14.2009988  70.2060012  61.9414997  14.9989988
  70.5650012  62.9794997  13.9569988  70.6286852  62.1736132  14.2772158
  71.4830012  66.9284997  -0.0370012  71.5250012  66.7054997  -0.9670012
  72.3320012  67.3274997   0.1529988  71.6035396  66.9519155  -0.1386373
  67.0550012  60.8044997   0.6329988  66.8020012  60.8234997   1.5559988
  66.7990012  59.9324997   0.3319988  66.9857790  60.6892437   0.7186263
  62.8220012  63.5554997  11.0679988  62.1800012  63.5144997  11.7769988
  62.8590012  64.4814997  10.8309988  62.7391324  63.6751559  11.1329824
  62.8190012  63.7764997   5.9799988  61.9260012  63.4354997   5.9219988
  63.2690012  63.3994997   5.2249988  62.7577305  63.6788484   5.8699177
  68.3540012  64.1924997   4.7969988  67.9450012  65.0074997   4.5059988
  69.0750012  64.0524997   4.1829988  68.3954537  64.2852018   4.6741342
  67.4560012  64.3674997  16.2849988  66.8940012  63.6634997  16.6059988
  68.2830012  64.2474997  16.7529988  67.4907095  64.2547883  16.3922330
  69.3590012  63.6384997   7.6109988  69.1640012  64.2434997   6.8959988
  69.5400012  62.8044997   7.1769988  69.3567614  63.6086300   7.4544405
  60.5720012  63.8754997  12.9349988  60.5340012  64.2754997  13.8039988
  60.0810012  63.0584997  13.0259988  60.5004684  63.8198069  13.0661059
  63.9380012  61.2494997  -0.2660012  63.5070012  60.8044997   0.4639988
  63.2200012  61.6214997  -0.7780012  63.7819438  61.2388940  -0.2353201
  57.1800012  60.9914997   6.7859988  57.8110012  60.9624997   7.5049988
  57.6290012  60.5664997   6.0559988  57.3270774  60.9300492   6.7856553
  58.4540012  61.7374997   2.2099988  58.9280012  62.3284997   1.6249988
  57.7370012  62.2684997   2.5569988  58.4219341  61.8900867   2.1768836
  68.6230012  65.2764997  12.2829988  68.9460012  64.6454997  11.6399988
  68.1830012  64.7414997  12.9429988  68.6076895  65.1178440  12.2842850
  65.4000012  61.2034997   7.0669988  64.4890012  61.2604997   7.3549988
  65.9060012  61.1434997   7.8769988  65.3435413  61.2031985   7.2160622
  60.2290012  62.8324997   5.8929988  59.3390012  62.9324997   5.5529988
  60.5250012  61.9904997   5.5469988  60.1472823  62.7323545   5.7997213
  63.8820012  62.8324997   3.5499988  64.8130012  62.9614997   3.7279988
  63.6670012  63.5024997   2.8999988  63.9804247  62.9406565   3.4865747
  69.8050012  60.4384997  10.3309988  69.1290012  60.5694997  10.9949988
  69.3200012  60.2834997   9.5209988  69.6467145  60.4354905  10.3124517
  62.5560012  64.0274997   1.1169988  62.0130012  63.6474997   0.4249988
  63.3890012  64.2214997   0.6879988  62.5944399  64.0018124   0.9644526
  60.6910012  68.5844997  16.2159988  61.4230012  68.8384997  16.7769988
  59.9110012  68.7884997  16.7309988  60.6858232  68.6469177  16.3625760
  66.7200012  63.9914997   8.9539988  67.2850012  63.4444997   8.4069988
  66.5730012  63.4694997   9.7419988  66.7772918  63.8462024   8.9858454
  61.7220012  60.1274997   5.3719988  61.4050012  59.2254997   5.3369988
  62.5040012  60.1294997   4.8189988  61.7842284  60.0041628   5.2924783
  65.3470012  62.3794997  11.3679988  64.5110012  62.8334997  11.4779988
  65.8710012  62.6554997  12.1199988  65.3034414  62.4789376  11.4847136
  65.8910012  68.5924997   3.0519988  65.1460012  68.0854997   2.7299988
  65.7570012  68.6414997   3.9989988  65.7708776  68.5296940   3.1358647
  73.0410012  67.7254997  11.8389988  73.6830012  68.1824997  11.2949988
  72.2110012  67.8384997  11.3759988  73.0165963  67.8032704  11.7020177
  69.7890012  61.4064997   1.2519988  68.8500012  61.5184997   1.0999988
  70.0860012  62.2634997   1.5579988  69.7007666  61.5376443   1.2725768
  67.4100012  68.7764997  14.2889988  67.0650012  68.3954997  15.0959988
  67.2100012  69.7104997  14.3609988  67.3358061  68.8505228  14.4090961
  70.5070012  63.2734997   2.9119988  71.3990012  63.1364997   3.2309988
  70.5640012  64.0644997   2.3759988  70.6366285  63.3616660   2.8831691
  61.0160012  67.8874997   8.8219988  61.7610012  67.8854997   8.2209988
  61.0940012  67.0644997   9.3039988  61.1285518  67.7759315   8.8048929
  68.0170012  70.0514997   2.0779988  67.7210012  70.8774997   2.4589988
  67.3140012  69.4314997   2.2739988  67.8814914  70.0808199   2.1566443
  58.0240012  66.3484997  14.1369988  58.2470012  65.9304997  14.9689988
  57.4220012  65.7354997  13.7139988  57.9731759  66.2084668  14.1937022
  65.0400012  65.8654997  16.3499988  64.7440012  65.6994997  15.4549988
  65.9720012  65.6454997  16.3389988  65.1254166  65.8130640  16.2260536
  69.6610012  71.2384997  14.2399988  68.7600012  71.4214997  13.9719988
  69.6950012  71.4974997  15.1609988  69.5423041  71.2985512  14.3278197
  75.3920012  63.4834997   2.6069988  74.8380012  63.0874997   1.9349988
  75.4920012  64.3934997   2.3289988  75.3297059  63.5523586   2.4774401
  73.6870012  72.2694997   3.0719988  73.3140012  71.4434997   3.3809988
  73.9650012  72.0864997   2.1749988  73.6735630  72.1317303   2.9929626
  70.8480012  67.0774997  10.0929988  69.9190012  66.8454997  10.0659988
  71.2990012  66.3004997   9.7629988  70.7819216  66.9407238  10.0446917
  63.3910012  71.4054997   6.2259988  63.9180012  72.1784997   6.0259988
  62.5110012  71.6304997   5.9249988  63.3441773  71.5418005   6.1579010
  59.1460012  66.2674997   0.8129988  59.7620012  66.8944997   1.1929988
  58.2840012  66.5834997   1.0849988  59.1137698  66.3959430   0.9017183
  64.8180012  69.0684997   5.8029988  64.5770012  69.9934997   5.8439988
  64.0770012  68.6094997   6.1989988  64.6848409  69.1331421   5.8621377
  65.3330012  73.2174997  12.1179988  65.6950012  74.0724997  11.8839988
  65.8640012  72.9254997  12.8579988  65.4544473  73.2951060  12.1860855
  63.5010012  74.0904997   5.3479988  62.5510012  74.1954997   5.3989988
  63.8530012  74.9104997   5.6929988  63.4184203  74.2158314   5.4016650
  68.8770012  69.3164997  11.8179988  68.4510012  69.0894997  12.6449988
  69.4570012  68.5784997  11.6359988  68.8971868  69.1855299  11.9065830
  71.0800012  70.2454997   0.8919988  71.4330012  69.8654997   1.6969988
  70.1310012  70.1524997   0.9789988  71.0000441  70.1809596   1.0138559
  71.5350012  73.8684997  14.2879988  70.9340012  73.3134997  13.7919988
  71.8170012  74.5354997  13.6619988  71.4908519  73.8826841  14.1354952
  75.5830012  74.7254997   1.0929988  76.3270012  75.3114997   0.9529988
  74.8890012  75.2934997   1.4269988  75.5910292  74.8825582   1.1189961
  59.6580012  61.1014997  13.6949988  58.7650012  61.4404997  13.6269988
  59.5590012  60.2464997  14.1129988  59.5224164  61.0322588  13.7422235
  71.9460012  68.9184997   3.1189988  71.6680012  68.1904997   3.6749988
  72.8730012  69.0374997   3.3239988  72.0333124  68.8348802   3.2228845
  59.3090012  72.9064997  12.1299988  59.5260012  71.9744997  12.0989988
  59.5550012  73.1804997  13.0129988  59.3719549  72.8160636  12.2451763
  65.1710012  71.3574997  -0.6610012  65.4100012  70.6094997  -1.2080012
  64.9020012  70.9694997   0.1719988  65.1673675  71.2026638  -0.6233135
  64.1080012  70.9274997   1.7959988  64.2540012  70.4074997   2.5859988
  64.1050012  71.8344997   2.1019988  64.1275989  70.9788853   1.9456088
  60.5610012  68.1804997   2.3059988  59.8750012  68.5324997   2.8729988
  61.0830012  68.9434997   2.0589988  60.5376852  68.3318578   2.3502118
  68.3920012  60.8424997  12.5849988  69.0910012  60.9164997  13.2349988
  68.0110012  59.9784997  12.7389988  68.4361767  60.7357624  12.6948322
  69.1770012  60.4944997   3.6819988  69.3970012  60.9664997   2.8789988
  69.7350012  60.8894997   4.3519988  69.2824968  60.6124285   3.6627331
  66.8450012  72.6254997   2.5449988  66.0290012  73.1224997   2.5969988
  67.3750012  73.1004997   1.9049988  66.8049161  72.7577722   2.4655956
  66.3770012  62.2224997   4.5169988  67.1890012  62.7274997   4.5629988
  66.1320012  62.0774997   5.4309988  66.4550520  62.2720375   4.6468517
  66.9120012  63.2084997  13.7019988  67.0310012  63.7824997  14.4589988
  67.5680012  62.5204997  13.8159988  67.0169757  63.1941079  13.8210825
  67.2600012  59.3034997   5.4549988  66.9140012  59.9214997   6.0999988
  67.9190012  59.8044997   4.9739988  67.3017826  59.4555802   5.4780971
  64.1840012  73.6694997   2.5269988  64.3440012  74.4684997   2.0259988
  63.9860012  73.9754997   3.4119988  64.1791649  73.8204469   2.5779815
  62.9180012  60.3664997   2.1419988  62.8350012  61.2554997   2.4889988
  63.8080012  60.1014997   2.3739988  63.0269469  60.4521430   2.2207626
  73.1170012  61.1154997  14.5369988  72.2000012  61.3784997  14.4489988
  73.4520012  61.1124997  13.6399988  73.0369900  61.1510224  14.4037919
  71.7190012  64.8664997   8.6319988  70.9210012  64.4514997   8.3039988
  72.1640012  64.1754997   9.1229988  71.6699885  64.7163543   8.6534889
  61.1770012  70.7944997   1.2029988  61.7690012  71.4934997   1.4789988
  61.6360012  70.3614997   0.4829988  61.3201142  70.8317049   1.1434830
  59.4930012  63.4584997   0.3189988  59.4480012  64.3974997   0.4969988
  58.6050012  63.2224997   0.0489988  59.3668574  63.5551892   0.3068912
  72.8050012  74.1224997  10.2549988  72.6500012  74.8004997   9.5979988
  73.7380012  74.1944997  10.4579988  72.9098500  74.2250170  10.1925119
  60.3010012  58.2404997   8.9919988  60.0720012  58.2994997   8.0639988
  59.8580012  57.4484997   9.2979988  60.2098530  58.1415753   8.9064786
  59.2310012  72.1804997   5.1519988  58.3990012  72.6534997   5.1799988
  59.7770012  72.6904997   4.5539988  59.1909739  72.3141871   5.0749716
  58.5190012  74.7934997  16.4819988  59.0600012  74.5764997  17.2419988
  58.0380012  73.9874997  16.2929988  58.5279345  74.6549514  16.5603076
  63.1170012  73.7124997  18.1029988  63.8840012  73.2534997  18.4439988
  63.0950012  73.4864997  17.1729988  63.2191434  73.6190409  18.0240043
  67.2090012  73.2204997  -0.5220012  66.5650012  72.5894997  -0.2010012
  67.9710012  72.6894997  -0.7540012  67.2238077  73.0622920  -0.5093989
  69.6940012  72.0924997  16.8319988  69.3430012  71.2364997  17.0749988
  70.4200012  72.2354997  17.4389988  69.7440769  71.9945636  16.9473619
  71.8130012  73.0374997  -0.2880012  72.0960012  72.2434997   0.1639988
  72.5530012  73.2704997  -0.8490012  71.9517486  72.9602803  -0.3019302
  58.4260012  68.6034997  17.4369988  58.5700012  67.7014997  17.1499988
  57.6540012  68.8894997  16.9489988  58.3413322  68.5188261  17.3317881
  62.7680012  68.9474997  -0.4310012  62.8320012  68.1534997   0.0999988
  63.4210012  68.8284997  -1.1210012  62.8650241  68.8227148  -0.4515683
  65.0820012  68.5734997  16.8689988  64.7530012  68.8444997  16.0119988
  65.2340012  67.6324997  16.7819988  65.0574809  68.4833862  16.7398244
  68.1200012  69.9944997  -0.6950012  67.8510012  70.1744997   0.2059988
  67.9140012  69.0684997  -0.8260012  68.0553825  69.8940152  -0.5894786
  59.2590012  65.8034997  16.8569988  59.6670012  64.9464997  16.7359988
  58.9990012  65.8184997  17.7779988  59.2797568  65.6880807  16.9649588
  63.9170012  66.9194997   1.8749988  63.4570012  66.4354997   2.5609988
  64.1720012  66.2514997   1.2389988  63.8884902  66.7628731   1.8829334
  63.2060012  64.8124997  14.2309988  62.5880012  65.4874997  14.5109988
  63.5500012  65.1334997  13.3979988  63.1679615  64.9482721  14.1566581
  64.9880012  65.1624997   0.1369988  64.8080012  65.0084997  -0.7900012
  65.9380012  65.2704997   0.1819988  65.0917776  65.1560175   0.0161843
  68.2260012  67.2844997  17.5079988  69.1790012  67.3674997  17.4809988
  68.0650012  66.5724997  18.1279988  68.3346426  67.1996746  17.5880579
  74.3780012  67.5174997  -0.4170012  74.1040012  67.0924997  -1.2300012
  74.4170012  68.4484997  -0.6340012  74.3457699  67.5852484  -0.5576390
  63.5450012  62.1674997  15.3129988  63.6950012  61.4384997  14.7109988
  63.5480012  62.9444997  14.7539988  63.5659302  62.1727851  15.1550692
  63.9580012  60.5374997  12.8059988  64.4940012  60.9884997  12.1539988
  63.1060012  60.4294997  12.3829988  63.9162178  60.5846390  12.6595756
  65.5400012  65.9764997  13.0449988  66.2900012  65.8204997  12.4719988
  65.2010012  66.8284997  12.7699988  65.5968921  66.0702968  12.9293561
  69.9550012  63.7914997  18.0739988  70.1480012  62.8604997  17.9619988
  70.8130012  64.2164997  18.0639988  70.0973020  63.7216389  18.0573361
  62.0240012  63.3654997  17.2249988  61.2570012  62.8334997  17.0149988
  62.7030012  63.0554997  16.6249988  62.0107022  63.2507506  17.1151648
  64.7640012  57.9934997  13.2369988  64.6650012  58.9404997  13.1319988
  64.0210012  57.6214997  12.7619988  64.6500564  58.0725902  13.1584560
  66.0280012  62.3154997  16.8009988  65.7920012  62.0954997  17.7029988
  65.2440012  62.1084997  16.2909988  65.8898628  62.2574760  16.8553932
  68.7430012  61.4424997  15.8769988  67.7960012  61.4744997  16.0089988
  69.0560012  60.8174997  16.5299988  68.6555475  61.3623207  15.9834455
  70.3770012  60.0764997  17.8819988  70.2810012  59.1244997  17.8759988
  70.0560012  60.3454997  18.7419988  70.3204070  59.9824035  17.9975441
  60.2040012  61.2864997  16.9289988  60.4160012  60.5794997  16.3189988
  60.0930012  60.8484997  17.7729988  60.2179721  61.1307084  16.9596843
  64.9850012  57.2874997  15.9089988  65.6970012  56.6474997  15.8949988
  64.8840012  57.5544997  14.9949988  65.0687939  57.2359938  15.7835650
  65.3390012  58.9704997  17.9619988  65.2070012  58.4944997  17.1419988
  64.7400012  59.7144997  17.9069988  65.2399071  59.0059618  17.8422886
  64.8850012  75.8534997   1.1389988  65.8180012  76.0114997   1.2819988
  64.6210012  76.5284997   0.5139988  64.9769510  75.9663611   1.0740741
  58.4540012  70.4894997   0.6209988  59.3680012  70.5684997   0.8949988
  58.4610012  69.8024997  -0.0450012  58.5801131  70.4073961   0.5684393
  57.1030012  75.8824997   5.6989988  56.4560012  75.4204997   5.1659988
  57.4570012  75.2104997   6.2809988  57.0623849  75.7284723   5.7047959
  57.9730012  73.9634997   7.5029988  57.6380012  73.0834997   7.6749988
  58.1950012  74.3084997   8.3679988  57.9571783  73.8897500   7.6434208
  75.5210012  74.7724997  10.4839988  75.5000012  74.9574997  11.4229988
  76.2120012  75.3414997  10.1429988  75.6114618  74.8746606  10.5663864
  75.0850012  74.3404997  13.4059988  74.5970012  73.6044997  13.0349988
  75.6340012  73.9464997  14.0839988  75.0924872  74.1866249  13.4469160
  74.8360012  68.3864997   3.5579988  75.6860012  68.8074997   3.6849988
  74.8420012  67.6464997   4.1649988  74.9531372  68.3440803   3.6574344
  75.2310012  66.4394997   5.3819988  74.5040012  65.9604997   5.7789988
  75.8120012  66.6454997   6.1139988  75.2099375  66.4017090   5.5354129
  74.9900012  69.2244997  10.3289988  75.8230012  68.8464997  10.0489988
  75.1020012  70.1674997  10.2099988  75.1192647  69.3002218  10.2745487
  75.4990012  66.3404997   1.7729988  74.9770012  66.6974997   1.0539988
  75.4660012  67.0154997   2.4509988  75.4231634  66.4805413   1.7663145
  73.8480012  63.5804997   0.3239988  73.9440012  64.2474997  -0.3570012
  73.7080012  62.7644997  -0.1580012  73.8422135  63.5614500   0.1658491
  73.0170012  64.9604997   5.9449988  72.8670012  64.0154997   5.9239988
  72.6640012  65.2414997   6.7879988  72.9486625  64.8690441   6.0562346
  58.0530012  67.0384997   9.9549988  58.2370012  66.9564997   9.0189988
  58.9020012  66.9144997  10.3789988  58.1930139  67.0105003   9.8841455
  73.0950012  60.9884997  -0.5590012  73.7060012  60.6174997   0.0779988
  72.2590012  60.5674997  -0.3630012  73.0655032  60.8807554  -0.4452965
  72.7280012  62.5434997   4.4069988  73.0080012  61.6364997   4.5309988
  73.4870012  62.9774997   4.0179988  72.8689277  62.4780942   4.3713682
  73.3400012  63.1244997   9.8429988  74.2730012  63.3364997   9.8089988
  73.1050012  63.2264997  10.7649988  73.4358036  63.1672769   9.9629976
  73.3690012  63.8614997  12.6189988  72.5260012  64.1294997  12.9849988
  73.8110012  64.6834997  12.4079988  73.3134158  64.0093291  12.6405491
  57.6500012  62.3094997  16.0959988  58.5700012  62.1874997  16.3319988
  57.2010012  61.5594997  16.4849988  57.7151580  62.1913727  16.1809006
  75.6520012  57.8414997  17.9719988  76.0020012  57.1874997  17.3669988
  75.7990012  58.6784997  17.5329988  75.7198419  57.8651591  17.8297118
  73.3410012  59.8064997   4.4549988  73.5240012  59.3574997   5.2809988
  72.7420012  59.2214997   3.9919988  73.2850202  59.6659975   4.5053275
  58.8710012  60.6214997   8.9869988  59.3170012  59.8294997   9.2889988
  59.3380012  61.3374997   9.4179988  58.9950172  60.6100624   9.0864820
  57.1750012  63.6204997  10.0559988  57.6670012  63.3994997   9.2649988
  57.5380012  64.4614997  10.3369988  57.2913126  63.7038357   9.9857531
  75.1720012  59.9504997  16.3219988  74.2540012  60.2214997  16.2859988
  75.2950012  59.4154997  15.5369988  75.0631066  59.9152892  16.2110487
  75.2080012  59.8734997   0.9829988  75.6200012  59.1524997   0.5079988
  75.8900012  60.5434997   1.0419988  75.3565885  59.8652368   0.9258915
  57.4890012  59.8784997   4.1099988  56.5640012  60.0874997   3.9809988
  57.9430012  60.3624997   3.4209988  57.4237368  59.9725993   3.9991226
  72.2600012  74.8624997   6.0559988  72.9120012  74.5154997   5.4479988
  72.7700012  75.3514997   6.7019988  72.4182637  74.8810597   6.0600236
  57.4530012  58.6164997  12.4549988  56.7880012  58.3704997  13.0979988
  57.0100012  59.2384997  11.8769988  57.3020956  58.6668632  12.4649352
  59.6450012  71.7914997  16.5989988  58.8240012  71.9664997  16.1389988
  59.3920012  71.7184997  17.5199988  59.4986164  71.8055622  16.6604923
  62.5990012  72.7664997  12.8579988  62.1740012  73.5754997  12.5749988
  63.5030012  72.8514997  12.5559988  62.6630271  72.8888469  12.7783776
  66.9100012  74.1654997  15.8169988  67.0950012  73.8314997  16.6949988
  67.7560012  74.4744997  15.4949988  67.0497539  74.1616047  15.8935605
  69.2550012  75.4514997  15.0609988  69.9320012  74.8184997  14.8209988
  69.5770012  75.8524997  15.8679988  69.3911637  75.4191154  15.1372793
  74.1720012  58.0404997  14.1409988  73.3600012  58.3654997  13.7529988
  74.4050012  57.2804997  13.6079988  74.0923423  57.9822436  14.0158253
  60.0010012  76.0224997  12.9049988  59.2800012  76.4624997  12.4539988
  59.6350012  75.7714997  13.7539988  59.8529804  76.0487698  12.9579840
  62.4680012  75.6224997  11.9349988  61.6030012  75.6944997  12.3389988
  62.4130012  76.1694997  11.1509988  62.3422085  75.7062685  11.8843362
  67.1780012  75.5104997  11.1099988  66.7220012  76.0394997  10.4559988
  67.3410012  76.1134997  11.8359988  67.1375585  75.6644468  11.1185062
  69.5060012  74.3884997  12.0549988  68.6010012  74.5534997  11.7899988
  69.9350012  75.2414997  11.9899988  69.4400799  74.5264483  12.0099182
  72.1100012  75.9584997  12.3499988  71.9280012  76.8744997  12.1399988
  72.2870012  75.5484997  11.5039988  72.1090210  76.0284822  12.2067885
  59.4150012  74.6454997   9.8149988  59.3970012  74.2204997  10.6729988
  60.2200012  74.3274997   9.4069988  59.5213875  74.5443812   9.8771655
  61.5570012  73.3554997   8.4699988  61.3380012  72.4394997   8.6399988
  62.3810012  73.4954997   8.9359988  61.6384420  73.2490520   8.5562774
  64.0940012  73.8254997   9.3189988  64.3070012  72.9374997   9.0319988
  64.1580012  73.7914997  10.2729988  64.1318231  73.6993102   9.4087397
  67.6020012  59.4894997   8.4629988  66.9280012  58.8604997   8.7189988
  68.1660012  59.0054997   7.8599988  67.5859230  59.3378744   8.4165340
  72.7450012  57.5974997   8.5759988  73.3490012  58.1444997   8.0739988
  71.8750012  57.9164997   8.3359988  72.7101241  57.7155806   8.4747654
  74.4720012  58.7354997   6.9089988  75.0840012  58.2214997   6.3829988
  74.8540012  59.6134997   6.9329988  74.6074540  58.7837140   6.8401830
  59.9290012  58.1234997   6.2849988  59.1520012  57.8894997   5.7779988
  60.4590012  57.3264997   6.2939988  59.8942330  57.9836988   6.2167742
  58.7650012  57.9214997   2.0889988  59.2040012  58.5324997   1.4969988
  58.1320012  58.4594997   2.5629988  58.7394514  58.0779257   2.0720930
  64.5080012  58.0504997   6.0989988  65.3830012  58.4384997   6.0689988
  64.3720012  57.8354997   7.0209988  64.6093695  58.0745184   6.2196440
  70.0650012  58.0804997   7.7479988  70.1410012  58.1754997   6.7979988
  69.7900012  57.1724997   7.8769988  70.0382321  57.9707867   7.6355079
  71.4180012  58.1064997   3.4399988  70.7160012  58.7214997   3.2309988
  70.9740012  57.2684997   3.5709988  71.2616330  58.0775783   3.4290328
  58.6660012  73.8694997   2.9869988  57.9810012  73.8314997   2.3189988
  58.6700012  74.7824997   3.2749988  58.5728193  73.9877016   2.9345284
  60.6260012  59.8374997   0.5309988  61.1180012  59.2074997   0.0039988
  61.2500012  60.1334997   1.1949988  60.7775446  59.7913199   0.5485980
  65.6520012  60.1304997   2.9879988  65.8300012  59.4844997   3.6709988
  65.5990012  60.9644997   3.4559988  65.6691829  60.1547985   3.1445940
  67.5310012  75.0794997   1.3839988  68.3970012  75.4454997   1.2059988
  67.2840012  74.6394997   0.5699988  67.6162392  75.0701756   1.2496289
  74.2400012  74.6424997   4.0629988  74.0450012  73.8944997   3.4979988
  74.2010012  75.4004997   3.4799988  74.2080380  74.6426099   3.9068384
  59.8870012  58.6374997  15.8029988  59.5210012  57.8724997  16.2459988
  60.8000012  58.6664997  16.0899988  59.9602790  58.5367224  15.9024070
  61.8600012  57.9884997  17.3389988  62.7580012  57.7144997  17.1539988
  61.4730012  57.2454997  17.8029988  61.9306612  57.8505914  17.3763643
  60.4840012  74.7894997   0.0119988  60.2170012  75.0764997   0.8849988
  61.2560012  74.2434997   0.1639988  60.5517488  74.7550294   0.1521050
  70.2810012  57.3204997  17.5209988  70.3580012  56.8944997  18.3749988
  71.1750012  57.3344997  17.1779988  70.4123428  57.2640879  17.5915310
  87.8630012  67.2794997   6.2439988  87.9520012  68.2234997   6.1119988
  87.2250012  67.0044997   5.5859988  87.7889081  67.3714830   6.1369614
  86.7960012  66.5344997   9.6629988  86.7580012  65.8884997  10.3679988
  86.4740012  66.0684997   8.8919988  86.7472333  66.3829408   9.6552978
  79.1650012  66.1494997  11.2559988  79.2060012  65.5234997  11.9789988
  79.8680012  66.7734997  11.4379988  79.2656363  66.1481196  11.3796044
  90.5020012  69.4734997   7.9639988  90.0620012  68.7534997   8.4149988
  90.4890012  70.1944997   8.5939988  90.4400226  69.4723731   8.1108494
  80.0880012  70.5994997   9.7909988  79.7190012  69.7974997   9.4209988
  81.0290012  70.4304997   9.8369988  80.1647289  70.4670153   9.7466316
  76.6980012  64.2594997   5.1839988  76.2510012  65.1054997   5.1649988
  76.1370012  63.6794997   4.6679988  76.5609900  64.2969916   5.1116801
  77.4090012  66.4214997   7.3099988  77.6220012  65.6514997   7.8369988
  78.1470012  66.5104997   6.7059988  77.5378496  66.3281394   7.3005300
  87.6140012  74.5784997   8.1769988  88.2340012  73.9014997   7.9029988
  87.4060012  74.3604997   9.0849988  87.6706904  74.4563870   8.2623365
  85.1860012  68.9674997  10.0689988  85.4900012  68.2814997   9.4739988
  85.9070012  69.0854997  10.6869988  85.3250671  68.8896305  10.0711816
  93.8490012  60.5684997  10.9299988  93.8980012  61.1784997  11.6659988
  94.2740012  61.0294997  10.2069988  93.9131824  60.7143741  10.9330205
  88.3270012  63.3614997  10.3969988  88.4690012  62.4154997  10.4169988
  88.2200012  63.5684997   9.4679988  88.3319864  63.2599534  10.2742339
  81.4810012  61.4624997   7.6689988  81.5250012  62.3224997   7.2509988
  81.0240012  60.9104997   7.0349988  81.4252185  61.5055799   7.5260299
  89.2040012  61.5934997   6.0699988  89.8500012  61.2644997   6.6949988
  89.7140012  62.1114997   5.4469988  89.3614264  61.6184611   6.0713862
  78.1020012  63.8594997   8.4309988  78.7550012  63.3094997   8.8629988
  78.1260012  63.5854997   7.5139988  78.1946683  63.7471466   8.3662123
  83.2580012  65.4094997   7.6459988  83.8740012  64.8834997   8.1559988
  82.6720012  64.7694997   7.2429988  83.2630810  65.2509208   7.6613173
  94.2400012  62.0464997  13.1659988  93.5520012  62.7044997  13.0699988
  94.2560012  61.8494997  14.1019988  94.1478525  62.1100462  13.2794808
  80.2920012  60.3804997  11.7429988  80.0730012  60.9104997  10.9769988
  79.6240012  60.6074997  12.3899988  80.1717600  60.4836906  11.7256379
  87.6610012  69.8804997   5.2869988  87.3650012  69.5584997   4.4359988
  87.3360012  70.7804997   5.3279988  87.5766371  69.9580215   5.1761801
  82.8610012  68.0564997  12.0299988  82.1210012  68.6544997  12.1339988
  83.5750012  68.6104997  11.7149988  82.8562237  68.2132831  12.0016465
  90.9680012  60.8844997   8.0499988  90.7520012  60.1184997   8.5829988
  91.6230012  61.3564997   8.5629988  91.0270632  60.8435889   8.1922861
  79.8850012  62.2724997   9.6949988  80.4990012  62.9054997  10.0689988
  80.3970012  61.8004997   9.0389988  80.0382296  62.2952370   9.6574252
  81.2680012  70.0204997  12.8179988  81.2630012  70.9004997  12.4399988
  80.4150012  69.9374997  13.2429988  81.1519464  70.1296117  12.8237907
  77.3890012  69.6914997   3.5999988  77.1170012  69.9204997   2.7109988
  77.4350012  70.5294997   4.0599988  77.3580094  69.8361213   3.5405697
  91.0140012  71.3134997  10.3119988  90.0730012  71.3714997  10.4739988
  91.2910012  72.2194997  10.1749988  90.9224679  71.4439443  10.3156815
  91.3150012  59.5994997  11.7299988  90.5790012  60.2104997  11.6919988
  91.9980012  60.0144997  11.2029988  91.3066541  59.7391374  11.6535832
  84.3180012  57.6864997   9.1959988  84.2010012  56.7374997   9.1409988
  83.4630012  58.0184997   9.4689988  84.1863733  57.6015409   9.2253897
  89.2660012  73.0944997   6.9379988  89.6920012  72.3874997   6.4529988
  89.5830012  73.8954997   6.5209988  89.3671019  73.1060994   6.8153130
  90.4260012  70.9954997   5.4459988  90.1680012  70.3054997   4.8349988
  90.4970012  70.5524997   6.2919988  90.4002856  70.8412124   5.4766885
  92.1120012  69.5614997  13.9239988  92.2520012  68.9704997  13.1839988
  92.2790012  70.4344997  13.5669988  92.1536778  69.5986426  13.7746965
  86.5850012  66.5234997   3.6959988  85.8730012  67.0584997   3.3439988
  87.2760012  66.5794997   3.0359988  86.5810132  66.6042543   3.5586289
  86.6380012  64.9814997   0.7349988  87.3390012  65.0034997   1.3859988
  86.9410012  64.3534997   0.0789988  86.7747830  64.8996566   0.7353711
  93.9540012  65.9014997  11.9899988  93.3010012  66.5964997  12.0789988
  94.4190012  66.1114997  11.1799988  93.9275390  66.0249425  11.8926883
  89.9900012  66.7334997   4.6479988  89.2580012  66.9614997   5.2209988
  90.4380012  66.0194997   5.1029988  89.9503095  66.6682571   4.7879119
  89.8880012  64.9074997  13.7149988  89.9680012  65.6704997  14.2869988
  89.2860012  65.1864997  13.0249988  89.8175756  65.0497134  13.7000589
  81.6360012  67.3634997   6.5299988  81.3050012  66.9934997   5.7119988
  82.2240012  66.6934997   6.8769988  81.6701873  67.2221156   6.4648102
  83.0020012  70.7914997   9.2119988  82.9080012  70.2134997   8.4549988
  83.7320012  70.4204997   9.7079988  83.0877981  70.6622390   9.1754165
  82.0020012  66.1324997  10.1639988  82.5680012  66.2534997   9.4009988
  82.3210012  66.7694997  10.8029988  82.1225786  66.2351884  10.1460040
  88.3110012  71.6354997  10.8979988  88.0710012  72.2974997  11.5459988
  88.1130012  70.8014997  11.3229988  88.2513808  71.6133134  11.0441524
  88.8610012  65.8954997   2.3329988  89.4410012  66.0454997   3.0799988
  89.2750012  66.3664997   1.6099988  88.9962830  65.9796841   2.3374134
  79.8020012  66.7294997  14.1099988  79.8730012  67.3804997  14.8079988
  78.9120012  66.8324997  13.7749988  79.6913117  66.8325936  14.1602700
  86.5880012  72.6324997   5.7679988  87.0620012  72.9274997   6.5459988
  86.0250012  73.3704997   5.5349988  86.5767653  72.7726932   5.8430136
  92.5600012  57.6454997   2.1459988  91.6600012  57.7844997   2.4409988
  92.8120012  58.4764997   1.7439988  92.4708702  57.7769074   2.1320205
  80.6260012  66.4334997   4.1199988  80.3340012  67.2014997   3.6289988
  79.9520012  65.7734997   3.9569988  80.4949081  66.4494406   4.0307340
  93.7490012  72.0114997   0.5219988  93.8230012  72.9504997   0.6929988
  94.6550012  71.7064997   0.4659988  93.8815100  72.0986722   0.5378119
  76.7190012  68.7964997  12.9349988  76.2180012  68.7684997  12.1199988
  76.7240012  67.8904997  13.2439988  76.6511526  68.6702278  12.8652872
  76.4690012  71.5764997   9.8189988  77.4150012  71.4324997   9.7999988
  76.3570012  72.3604997  10.3559988  76.5832727  71.6628046   9.8890072
  94.6670012  72.2424997  15.5009988  94.6180012  71.2874997  15.4639988
  93.8400012  72.5104997  15.9019988  94.5484940  72.1478998  15.5501375
  85.6460012  71.8164997  14.3769988  85.7330012  72.6424997  14.8519988
  84.7820012  71.4864997  14.6259988  85.5411964  71.8849878  14.4756549
  86.0600012  75.5884997   4.1829988  85.9850012  75.4674997   3.2369988
  86.0930012  76.5384997   4.3019988  86.0541848  75.7002500   4.0694834
  79.7130012  74.3774997   5.9639988  79.8660012  74.0294997   6.8429988
  78.8630012  74.0214997   5.7089988  79.6188962  74.2816650   6.0498340
  89.1620012  74.7424997   1.1849988  89.5370012  73.9984997   0.7149988
  89.1660012  74.4724997   2.1039988  89.2138915  74.6041486   1.2447824
  88.8310012  74.6684997   3.9349988  87.8950012  74.7684997   4.1129988
  89.1110012  73.9594997   4.5129988  88.7408255  74.5862711   4.0375391
  91.8190012  63.7354997  15.9809988  91.4120012  64.2164997  15.2599988
  91.8600012  62.8304997  15.6729988  91.7688437  63.6789374  15.8406683
  81.5870012  58.5894997   9.9729988  80.7250012  58.5024997   9.5659988
  81.5640012  59.4454997  10.4009988  81.4660330  58.6932765   9.9751863
  86.2500012  58.3114997  13.3479988  86.6700012  57.8964997  14.1009988
  85.3170012  58.1334997  13.4649988  86.1813644  58.2305900  13.4669539
  89.5760012  62.0674997  14.2009988  89.0620012  61.9414997  14.9989988
  89.4210012  62.9794997  13.9569988  89.4846852  62.1736132  14.2772158
  90.3390012  66.9284997  -0.0370012  90.3810012  66.7054997  -0.9670012
  91.1880012  67.3274997   0.1529988  90.4595396  66.9519155  -0.1386373
  85.9110012  60.8044997   0.6329988  85.6580012  60.8234997   1.5559988
  85.6550012  59.9324997   0.3319988  85.8417790  60.6892437   0.7186263
  81.6780012  63.5554997  11.0679988  81.0360012  63.5144997  11.7769988
  81.7150012  64.4814997  10.8309988  81.5951324  63.6751559  11.1329824
  81.6750012  63.7764997   5.9799988  80.7820012  63.4354997   5.9219988
  82.1250012  63.3994997   5.2249988  81.6137305  63.6788484   5.8699177
  87.2100012  64.1924997   4.7969988  86.8010012  65.0074997   4.5059988
  87.9310012  64.0524997   4.1829988  87.2514537  64.2852018   4.6741342
  86.3120012  64.3674997  16.2849988  85.7500012  63.6634997  16.6059988
  87.1390012  64.2474997  16.7529988  86.3467095  64.2547883  16.3922330
  88.2150012  63.6384997   7.6109988  88.0200012  64.2434997   6.8959988
  88.3960012  62.8044997   7.1769988  88.2127614  63.6086300   7.4544405
  79.4280012  63.8754997  12.9349988  79.3900012  64.2754997  13.8039988
  78.9370012  63.0584997  13.0259988  79.3564684  63.8198069  13.0661059
  82.7940012  61.2494997  -0.2660012  82.3630012  60.8044997   0.4639988
  82.0760012  61.6214997  -0.7780012  82.6379438  61.2388940  -0.2353201
  76.0360012  60.9914997   6.7859988  76.6670012  60.9624997   7.5049988
  76.4850012  60.5664997   6.0559988  76.1830774  60.9300492   6.7856553
  77.3100012  61.7374997   2.2099988  77.7840012  62.3284997   1.6249988
  76.5930012  62.2684997   2.5569988  77.2779341  61.8900867   2.1768836
  87.4790012  65.2764997  12.2829988  87.8020012  64.6454997  11.6399988
  87.0390012  64.7414997  12.9429988  87.4636895  65.1178441  12.2842850
  84.2560012  61.2034997   7.0669988  83.3450012  61.2604997   7.3549988
  84.7620012  61.1434997   7.8769988  84.1995413  61.2031985   7.2160622
  79.0850012  62.8324997   5.8929988  78.1950012  62.9324997   5.5529988
  79.3810012  61.9904997   5.5469988  79.0032823  62.7323545   5.7997213
  82.7380012  62.8324997   3.5499988  83.6690012  62.9614997   3.7279988
  82.5230012  63.5024997   2.8999988  82.8364247  62.9406565   3.4865747
  88.6610012  60.4384997  10.3309988  87.9850012  60.5694997  10.9949988
  88.1760012  60.2834997   9.5209988  88.5027145  60.4354905  10.3124517
  81.4120012  64.0274997   1.1169988  80.8690012  63.6474997   0.4249988
  82.2450012  64.2214997   0.6879988  81.4504399  64.0018124   0.9644526
  91.9490012  76.1104997  16.6079988  92.1490012  76.5344997  15.7729988
  92.6040012  76.4534997  17.2149988  92.0650051  76.2149648  16.5757836
  85.5760012  63.9914997   8.9539988  86.1410012  63.4444997   8.4069988
  85.4290012  63.4694997   9.7419988  85.6332918  63.8462024   8.9858454
  80.5780012  60.1274997   5.3719988  80.2610012  59.2254997   5.3369988
  81.3600012  60.1294997   4.8189988  80.6402284  60.0041628   5.2924783
  84.2030012  62.3794997  11.3679988  83.3670012  62.8334997  11.4779988
  84.7270012  62.6554997  12.1199988  84.1594414  62.4789376  11.4847136
  84.7470012  68.5924997   3.0519988  84.0020012  68.0854997   2.7299988
  84.6130012  68.6414997   3.9989988  84.6268776  68.5296940   3.1358647
  91.8970012  67.7254997  11.8389988  92.5390012  68.1824997  11.2949988
  91.0670012  67.8384997  11.3759988  91.8725963  67.8032704  11.7020177
  88.6450012  61.4064997   1.2519988  87.7060012  61.5184997   1.0999988
  88.9420012  62.2634997   1.5579988  88.5567666  61.5376443   1.2725768
  86.2660012  68.7764997  14.2889988  85.9210012  68.3954997  15.0959988
  86.0660012  69.7104997  14.3609988  86.1918061  68.8505228  14.4090961
  89.3630012  63.2734997   2.9119988  90.2550012  63.1364997   3.2309988
  89.4200012  64.0644997   2.3759988  89.4926285  63.3616660   2.8831691
  79.8720012  67.8874997   8.8219988  80.6170012  67.8854997   8.2209988
  79.9500012  67.0644997   9.3039988  79.9845518  67.7759315   8.8048929
  86.8730012  70.0514997   2.0779988  86.5770012  70.8774997   2.4589988
  86.1700012  69.4314997   2.2739988  86.7374914  70.0808199   2.1566443
  83.8960012  65.8654997  16.3499988  83.6000012  65.6994997  15.4549988
  84.8280012  65.6454997  16.3389988  83.9814166  65.8130640  16.2260536
  88.5170012  71.2384997  14.2399988  87.6160012  71.4214997  13.9719988
  88.5510012  71.4974997  15.1609988  88.3983041  71.2985512  14.3278197
  94.2480012  63.4834997   2.6069988  93.6940012  63.0874997   1.9349988
  94.3480012  64.3934997   2.3289988  94.1857059  63.5523586   2.4774401
  94.2110012  69.2834997  15.4439988  93.3600012  69.5214997  15.0769988
  94.8020012  69.2664997  14.6909988  94.1742487  69.3138258  15.2918893
  92.5430012  72.2694997   3.0719988  92.1700012  71.4434997   3.3809988
  92.8210012  72.0864997   2.1749988  92.5295630  72.1317303   2.9929626
  89.7040012  67.0774997  10.0929988  88.7750012  66.8454997  10.0659988
  90.1550012  66.3004997   9.7629988  89.6379216  66.9407238  10.0446917
  82.2470012  71.4054997   6.2259988  82.7740012  72.1784997   6.0259988
  81.3670012  71.6304997   5.9249988  82.2001773  71.5418005   6.1579010
  78.0020012  66.2674997   0.8129988  78.6180012  66.8944997   1.1929988
  77.1400012  66.5834997   1.0849988  77.9697698  66.3959430   0.9017183
  83.6740012  69.0684997   5.8029988  83.4330012  69.9934997   5.8439988
  82.9330012  68.6094997   6.1989988  83.5408409  69.1331421   5.8621377
  84.1890012  73.2174997  12.1179988  84.5510012  74.0724997  11.8839988
  84.7200012  72.9254997  12.8579988  84.3104473  73.2951060  12.1860855
  82.3570012  74.0904997   5.3479988  81.4070012  74.1954997   5.3989988
  82.7090012  74.9104997   5.6929988  82.2744203  74.2158314   5.4016650
  87.7330012  69.3164997  11.8179988  87.3070012  69.0894997  12.6449988
  88.3130012  68.5784997  11.6359988  87.7531868  69.1855299  11.9065830
  89.9360012  70.2454997   0.8919988  90.2890012  69.8654997   1.6969988
  88.9870012  70.1524997   0.9789988  89.8560441  70.1809596   1.0138559
  90.3910012  73.8684997  14.2879988  89.7900012  73.3134997  13.7919988
  90.6730012  74.5354997  13.6619988  90.3468519  73.8826841  14.1354951
  94.4390012  74.7254997   1.0929988  95.1830012  75.3114997   0.9529988
  93.7450012  75.2934997   1.4269988  94.4470292  74.8825582   1.1189961
  78.5140012  61.1014997  13.6949988  77.6210012  61.4404997  13.6269988
  78.4150012  60.2464997  14.1129988  78.3784164  61.0322588  13.7422235
  90.8020012  68.9184997   3.1189988  90.5240012  68.1904997   3.6749988
  91.7290012  69.0374997   3.3239988  90.8893124  68.8348802   3.2228845
  78.1650012  72.9064997  12.1299988  78.3820012  71.9744997  12.0989988
  78.4110012  73.1804997  13.0129988  78.2279549  72.8160636  12.2451763
  84.0270012  71.3574997  -0.6610012  84.2660012  70.6094997  -1.2080012
  83.7580012  70.9694997   0.1719988  84.0233675  71.2026638  -0.6233135
  82.9640012  70.9274997   1.7959988  83.1100012  70.4074997   2.5859988
  82.9610012  71.8344997   2.1019988  82.9835989  70.9788853   1.9456088
  79.4170012  68.1804997   2.3059988  78.7310012  68.5324997   2.8729988
  79.9390012  68.9434997   2.0589988  79.3936852  68.3318578   2.3502118
  87.2480012  60.8424997  12.5849988  87.9470012  60.9164997  13.2349988
  86.8670012  59.9784997  12.7389988  87.2921767  60.7357624  12.6948322
  88.0330012  60.4944997   3.6819988  88.2530012  60.9664997   2.8789988
  88.5910012  60.8894997   4.3519988  88.1384968  60.6124285   3.6627331
  85.7010012  72.6254997   2.5449988  84.8850012  73.1224997   2.5969988
  86.2310012  73.1004997   1.9049988  85.6609161  72.7577722   2.4655956
  85.2330012  62.2224997   4.5169988  86.0450012  62.7274997   4.5629988
  84.9880012  62.0774997   5.4309988  85.3110520  62.2720375   4.6468517
  85.7680012  63.2084997  13.7019988  85.8870012  63.7824997  14.4589988
  86.4240012  62.5204997  13.8159988  85.8729757  63.1941079  13.8210825
  86.1160012  59.3034997   5.4549988  85.7700012  59.9214997   6.0999988
  86.7750012  59.8044997   4.9739988  86.1577826  59.4555802   5.4780971
  83.0400012  73.6694997   2.5269988  83.2000012  74.4684997   2.0259988
  82.8420012  73.9754997   3.4119988  83.0351649  73.8204469   2.5779815
  81.7740012  60.3664997   2.1419988  81.6910012  61.2554997   2.4889988
  82.6640012  60.1014997   2.3739988  81.8829469  60.4521430   2.2207626
  91.9730012  61.1154997  14.5369988  91.0560012  61.3784997  14.4489988
  92.3080012  61.1124997  13.6399988  91.8929900  61.1510224  14.4037919
  90.5750012  64.8664997   8.6319988  89.7770012  64.4514997   8.3039988
  91.0200012  64.1754997   9.1229988  90.5259885  64.7163543   8.6534889
  80.0330012  70.7944997   1.2029988  80.6250012  71.4934997   1.4789988
  80.4920012  70.3614997   0.4829988  80.1761142  70.8317049   1.1434830
  78.3490012  63.4584997   0.3189988  78.3040012  64.3974997   0.4969988
  77.4610012  63.2224997   0.0489988  78.2228574  63.5551892   0.3068912
  91.6610012  74.1224997  10.2549988  91.5060012  74.8004997   9.5979988
  92.5940012  74.1944997  10.4579988  91.7658500  74.2250170  10.1925119
  79.1570012  58.2404997   8.9919988  78.9280012  58.2994997   8.0639988
  78.7140012  57.4484997   9.2979988  79.0658530  58.1415753   8.9064786
  78.0870012  72.1804997   5.1519988  77.2550012  72.6534997   5.1799988
  78.6330012  72.6904997   4.5539988  78.0469739  72.3141871   5.0749716
  86.0650012  73.2204997  -0.5220012  85.4210012  72.5894997  -0.2010012
  86.8270012  72.6894997  -0.7540012  86.0798077  73.0622920  -0.5093989
  88.5500012  72.0924997  16.8319988  88.1990012  71.2364997  17.0749988
  89.2760012  72.2354997  17.4389988  88.6000769  71.9945636  16.9473619
  90.6690012  73.0374997  -0.2880012  90.9520012  72.2434997   0.1639988
  91.4090012  73.2704997  -0.8490012  90.8077486  72.9602803  -0.3019302
  81.6240012  68.9474997  -0.4310012  81.6880012  68.1534997   0.0999988
  82.2770012  68.8284997  -1.1210012  81.7210241  68.8227148  -0.4515683
  86.9760012  69.9944997  -0.6950012  86.7070012  70.1744997   0.2059988
  86.7700012  69.0684997  -0.8260012  86.9113825  69.8940152  -0.5894786
  89.6720012  68.4894997  14.2529988  90.4180012  69.0774997  14.1329988
  88.9150012  69.0714997  14.3159988  89.6717554  68.6487011  14.2450907
  82.7730012  66.9194997   1.8749988  82.3130012  66.4354997   2.5609988
  83.0280012  66.2514997   1.2389988  82.7444902  66.7628731   1.8829334
  82.0620012  64.8124997  14.2309988  81.4440012  65.4874997  14.5109988
  82.4060012  65.1334997  13.3979988  82.0239615  64.9482721  14.1566581
  83.8440012  65.1624997   0.1369988  83.6640012  65.0084997  -0.7900012
  84.7940012  65.2704997   0.1819988  83.9477776  65.1560175   0.0161843
  87.0820012  67.2844997  17.5079988  88.0350012  67.3674997  17.4809988
  86.9210012  66.5724997  18.1279988  87.1906426  67.1996746  17.5880579
  93.2340012  67.5174997  -0.4170012  92.9600012  67.0924997  -1.2300012
  93.2730012  68.4484997  -0.6340012  93.2017699  67.5852484  -0.5576390
  82.4010012  62.1674997  15.3129988  82.5510012  61.4384997  14.7109988
  82.4040012  62.9444997  14.7539988  82.4219302  62.1727851  15.1550692
  82.8140012  60.5374997  12.8059988  83.3500012  60.9884997  12.1539988
  81.9620012  60.4294997  12.3829988  82.7722178  60.5846390  12.6595756
  84.3960012  65.9764997  13.0449988  85.1460012  65.8204997  12.4719988
  84.0570012  66.8284997  12.7699988  84.4528921  66.0702968  12.9293561
  88.8110012  63.7914997  18.0739988  89.0040012  62.8604997  17.9619988
  89.6690012  64.2164997  18.0639988  88.9533020  63.7216389  18.0573361
  90.1280012  66.5804997  16.1509988  89.8470012  67.2894997  15.5739988
  91.0710012  66.5074997  15.9999988  90.2169027  66.6677646  16.0515551
  80.8800012  63.3654997  17.2249988  80.1130012  62.8334997  17.0149988
  81.5590012  63.0554997  16.6249988  80.8667022  63.2507506  17.1151648
  83.6200012  57.9934997  13.2369988  83.5210012  58.9404997  13.1319988
  82.8770012  57.6214997  12.7619988  83.5060564  58.0725902  13.1584560
  84.8840012  62.3154997  16.8009988  84.6480012  62.0954997  17.7029988
  84.1000012  62.1084997  16.2909988  84.7458628  62.2574760  16.8553932
  87.5990012  61.4424997  15.8769988  86.6520012  61.4744997  16.0089988
  87.9120012  60.8174997  16.5299988  87.5115475  61.3623207  15.9834455
  89.2330012  60.0764997  17.8819988  89.1370012  59.1244997  17.8759988
  88.9120012  60.3454997  18.7419988  89.1764070  59.9824035  17.9975441
  79.0600012  61.2864997  16.9289988  79.2720012  60.5794997  16.3189988
  78.9490012  60.8484997  17.7729988  79.0739721  61.1307084  16.9596843
  83.8410012  57.2874997  15.9089988  84.5530012  56.6474997  15.8949988
  83.7400012  57.5544997  14.9949988  83.9247939  57.2359938  15.7835650
  84.1950012  58.9704997  17.9619988  84.0630012  58.4944997  17.1419988
  83.5960012  59.7144997  17.9069988  84.0959071  59.0059618  17.8422886
  83.7410012  75.8534997   1.1389988  84.6740012  76.0114997   1.2819988
  83.4770012  76.5284997   0.5139988  83.8329510  75.9663611   1.0740741
  77.3100012  70.4894997   0.6209988  78.2240012  70.5684997   0.8949988
  77.3170012  69.8024997  -0.0450012  77.4361131  70.4073961   0.5684393
  75.9590012  75.8824997   5.6989988  75.3120012  75.4204997   5.1659988
  76.3130012  75.2104997   6.2809988  75.9183849  75.7284723   5.7047959
  76.8290012  73.9634997   7.5029988  76.4940012  73.0834997   7.6749988
  77.0510012  74.3084997   8.3679988  76.8131783  73.8897500   7.6434208
  94.3770012  74.7724997  10.4839988  94.3560012  74.9574997  11.4229988
  95.0680012  75.3414997  10.1429988  94.4674618  74.8746606  10.5663864
  93.9410012  74.3404997  13.4059988  93.4530012  73.6044997  13.0349988
  94.4900012  73.9464997  14.0839988  93.9484872  74.1866249  13.4469160
  92.3910012  70.1294997  18.0439988  91.5250012  70.0244997  18.4379988
  92.7680012  70.8884997  18.4899988  92.3233308  70.2176900  18.1582393
  93.6920012  68.3864997   3.5579988  94.5420012  68.8074997   3.6849988
  93.6980012  67.6464997   4.1649988  93.8091372  68.3440803   3.6574344
  94.0870012  66.4394997   5.3819988  93.3600012  65.9604997   5.7789988
  94.6680012  66.6454997   6.1139988  94.0659375  66.4017090   5.5354129
  93.8460012  69.2244997  10.3289988  94.6790012  68.8464997  10.0489988
  93.9580012  70.1674997  10.2099988  93.9752647  69.3002218  10.2745487
  92.3320012  72.1024997  12.6359988  91.6850012  72.4274997  13.2619988
  91.8150012  71.6624997  11.9619988  92.1734029  72.0875004  12.6305827
  94.3550012  66.3404997   1.7729988  93.8330012  66.6974997   1.0539988
  94.3220012  67.0154997   2.4509988  94.2791634  66.4805413   1.7663145
  92.7040012  63.5804997   0.3239988  92.8000012  64.2474997  -0.3570012
  92.5640012  62.7644997  -0.1580012  92.6982135  63.5614500   0.1658491
  91.8730012  64.9604997   5.9449988  91.7230012  64.0154997   5.9239988
  91.5200012  65.2414997   6.7879988  91.8046625  64.8690441   6.0562346
  76.9090012  67.0384997   9.9549988  77.0930012  66.9564997   9.0189988
  77.7580012  66.9144997  10.3789988  77.0490139  67.0105003   9.8841455
  92.7300012  66.9304997  15.5829988  93.3130012  66.1964997  15.7749988
  93.2940012  67.7024997  15.6299988  92.8859769  66.9344227  15.6156159
  94.2260012  64.8334997  16.2679988  93.3630012  64.4544997  16.1019988
  94.8310012  64.0944997  16.1939988  94.1895979  64.6818023  16.2352817
  91.9510012  60.9884997  -0.5590012  92.5620012  60.6174997   0.0779988
  91.1150012  60.5674997  -0.3630012  91.9215032  60.8807554  -0.4452965
  91.5840012  62.5434997   4.4069988  91.8640012  61.6364997   4.5309988
  92.3430012  62.9774997   4.0179988  91.7249277  62.4780942   4.3713682
  92.1960012  63.1244997   9.8429988  93.1290012  63.3364997   9.8089988
  91.9610012  63.2264997  10.7649988  92.2918036  63.1672769   9.9629976
  92.2250012  63.8614997  12.6189988  91.3820012  64.1294997  12.9849988
  92.6670012  64.6834997  12.4079988  92.1694158  64.0093291  12.6405491
  76.5060012  62.3094997  16.0959988  77.4260012  62.1874997  16.3319988
  76.0570012  61.5594997  16.4849988  76.5711580  62.1913727  16.1809006
  94.5080012  57.8414997  17.9719988  94.8580012  57.1874997  17.3669988
  94.6550012  58.6784997  17.5329988  94.5758419  57.8651591  17.8297118
  92.1970012  59.8064997   4.4549988  92.3800012  59.3574997   5.2809988
  91.5980012  59.2214997   3.9919988  92.1410202  59.6659975   4.5053275
  77.7270012  60.6214997   8.9869988  78.1730012  59.8294997   9.2889988
  78.1940012  61.3374997   9.4179988  77.8510172  60.6100624   9.0864820
  76.0310012  63.6204997  10.0559988  76.5230012  63.3994997   9.2649988
  76.3940012  64.4614997  10.3369988  76.1473126  63.7038357   9.9857531
  94.0280012  59.9504997  16.3219988  93.1100012  60.2214997  16.2859988
  94.1510012  59.4154997  15.5369988  93.9191066  59.9152892  16.2110487
  94.0640012  59.8734997   0.9829988  94.4760012  59.1524997   0.5079988
  94.7460012  60.5434997   1.0419988  94.2125885  59.8652368   0.9258915
  76.3450012  59.8784997   4.1099988  75.4200012  60.0874997   3.9809988
  76.7990012  60.3624997   3.4209988  76.2797368  59.9725993   3.9991226
  91.1160012  74.8624997   6.0559988  91.7680012  74.5154997   5.4479988
  91.6260012  75.3514997   6.7019988  91.2742637  74.8810597   6.0600236
  76.3090012  58.6164997  12.4549988  75.6440012  58.3704997  13.0979988
  75.8660012  59.2384997  11.8769988  76.1580956  58.6668632  12.4649352
  81.4550012  72.7664997  12.8579988  81.0300012  73.5754997  12.5749988
  82.3590012  72.8514997  12.5559988  81.5190271  72.8888469  12.7783776
  85.7660012  74.1654997  15.8169988  85.9510012  73.8314997  16.6949988
  86.6120012  74.4744997  15.4949988  85.9057539  74.1616047  15.8935605
  88.1110012  75.4514997  15.0609988  88.7880012  74.8184997  14.8209988
  88.4330012  75.8524997  15.8679988  88.2471637  75.4191154  15.1372793
  93.0280012  58.0404997  14.1409988  92.2160012  58.3654997  13.7529988
  93.2610012  57.2804997  13.6079988  92.9483423  57.9822436  14.0158253
  78.8570012  76.0224997  12.9049988  78.1360012  76.4624997  12.4539988
  78.4910012  75.7714997  13.7539988  78.7089804  76.0487698  12.9579840
  81.3240012  75.6224997  11.9349988  80.4590012  75.6944997  12.3389988
  81.2690012  76.1694997  11.1509988  81.1982085  75.7062685  11.8843362
  86.0340012  75.5104997  11.1099988  85.5780012  76.0394997  10.4559988
  86.1970012  76.1134997  11.8359988  85.9935585  75.6644468  11.1185062
  88.3620012  74.3884997  12.0549988  87.4570012  74.5534997  11.7899988
  88.7910012  75.2414997  11.9899988  88.2960799  74.5264483  12.0099182
  90.9660012  75.9584997  12.3499988  90.7840012  76.8744997  12.1399988
  91.1430012  75.5484997  11.5039988  90.9650210  76.0284822  12.2067885
  78.2710012  74.6454997   9.8149988  78.2530012  74.2204997  10.6729988
  79.0760012  74.3274997   9.4069988  78.3773875  74.5443812   9.8771655
  80.4130012  73.3554997   8.4699988  80.1940012  72.4394997   8.6399988
  81.2370012  73.4954997   8.9359988  80.4944420  73.2490520   8.5562774
  82.9500012  73.8254997   9.3189988  83.1630012  72.9374997   9.0319988
  83.0140012  73.7914997  10.2729988  82.9878231  73.6993102   9.4087397
  86.4580012  59.4894997   8.4629988  85.7840012  58.8604997   8.7189988
  87.0220012  59.0054997   7.8599988  86.4419230  59.3378744   8.4165340
  91.6010012  57.5974997   8.5759988  92.2050012  58.1444997   8.0739988
  90.7310012  57.9164997   8.3359988  91.5661241  57.7155806   8.4747654
  93.3280012  58.7354997   6.9089988  93.9400012  58.2214997   6.3829988
  93.7100012  59.6134997   6.9329988  93.4634540  58.7837140   6.8401830
  78.7850012  58.1234997   6.2849988  78.0080012  57.8894997   5.7779988
  79.3150012  57.3264997   6.2939988  78.7502330  57.9836988   6.2167742
  77.6210012  57.9214997   2.0889988  78.0600012  58.5324997   1.4969988
  76.9880012  58.4594997   2.5629988  77.5954514  58.0779257   2.0720930
  83.3640012  58.0504997   6.0989988  84.2390012  58.4384997   6.0689988
  83.2280012  57.8354997   7.0209988  83.4653695  58.0745184   6.2196440
  88.9210012  58.0804997   7.7479988  88.9970012  58.1754997   6.7979988
  88.6460012  57.1724997   7.8769988  88.8942321  57.9707867   7.6355079
  90.2740012  58.1064997   3.4399988  89.5720012  58.7214997   3.2309988
  89.8300012  57.2684997   3.5709988  90.1176330  58.0775783   3.4290328
  77.5220012  73.8694997   2.9869988  76.8370012  73.8314997   2.3189988
  77.5260012  74.7824997   3.2749988  77.4288193  73.9877016   2.9345284
  79.4820012  59.8374997   0.5309988  79.9740012  59.2074997   0.0039988
  80.1060012  60.1334997   1.1949988  79.6335446  59.7913199   0.5485980
  84.5080012  60.1304997   2.9879988  84.6860012  59.4844997   3.6709988
  84.4550012  60.9644997   3.4559988  84.5251829  60.1547985   3.1445940
  86.3870012  75.0794997   1.3839988  87.2530012  75.4454997   1.2059988
  86.1400012  74.6394997   0.5699988  86.4722392  75.0701756   1.2496289
  93.0960012  74.6424997   4.0629988  92.9010012  73.8944997   3.4979988
  93.0570012  75.4004997   3.4799988  93.0640380  74.6426099   3.9068384
  78.7430012  58.6374997  15.8029988  78.3770012  57.8724997  16.2459988
  79.6560012  58.6664997  16.0899988  78.8162790  58.5367224  15.9024070
  80.7160012  57.9884997  17.3389988  81.6140012  57.7144997  17.1539988
  80.3290012  57.2454997  17.8029988  80.7866612  57.8505914  17.3763643
  79.3400012  74.7894997   0.0119988  79.0730012  75.0764997   0.8849988
  80.1120012  74.2434997   0.1639988  79.4077488  74.7550294   0.1521050
  89.1370012  57.3204997  17.5209988  89.2140012  56.8944997  18.3749988
  90.0310012  57.3344997  17.1779988  89.2683428  57.2640879  17.5915310
  92.3130012  73.3934997  16.2129988  91.5310012  73.2074997  15.6939988
  92.2410012  74.3224997  16.4309988  92.1961777  73.4936492  16.1714048
 106.7190012  67.2794997   6.2439988 106.8080012  68.2234997   6.1119988
 106.0810012  67.0044997   5.5859988 106.6449081  67.3714830   6.1369614
 105.6520012  66.5344997   9.6629988 105.6140012  65.8884997  10.3679988
 105.3300012  66.0684997   8.8919988 105.6032333  66.3829408   9.6552978
  98.0210012  66.1494997  11.2559988  98.0620012  65.5234997  11.9789988
  98.7240012  66.7734997  11.4379988  98.1216363  66.1481196  11.3796044
 109.3580012  69.4734997   7.9639988 108.9180012  68.7534997   8.4149988
 109.3450012  70.1944997   8.5939988 109.2960226  69.4723731   8.1108494
  98.9440012  70.5994997   9.7909988  98.5750012  69.7974997   9.4209988
  99.8850012  70.4304997   9.8369988  99.0207289  70.4670153   9.7466316
  95.5540012  64.2594997   5.1839988  95.1070012  65.1054997   5.1649988
  94.9930012  63.6794997   4.6679988  95.4169900  64.2969916   5.1116801
  96.2650012  66.4214997   7.3099988  96.4780012  65.6514997   7.8369988
  97.0030012  66.5104997   6.7059988  96.3938496  66.3281394   7.3005300
 106.4700012  74.5784997   8.1769988 107.0900012  73.9014997   7.9029988
 106.2620012  74.3604997   9.0849988 106.5266904  74.4563870   8.2623365
 104.0420012  68.9674997  10.0689988 104.3460012  68.2814997   9.4739988
 104.7630012  69.0854997  10.6869988 104.1810671  68.8896305  10.0711816
 112.7050012  60.5684997  10.9299988 112.7540012  61.1784997  11.6659988
 113.1300012  61.0294997  10.2069988 112.7691824  60.7143741  10.9330205
 107.1830012  63.3614997  10.3969988 107.3250012  62.4154997  10.4169988
 107.0760012  63.5684997   9.4679988 107.1879864  63.2599534  10.2742339
 100.3370012  61.4624997   7.6689988 100.3810012  62.3224997   7.2509988
  99.8800012  60.9104997   7.0349988 100.2812185  61.5055799   7.5260299
 108.0600012  61.5934997   6.0699988 108.7060012  61.2644997   6.6949988
 108.5700012  62.1114997   5.4469988 108.2174264  61.6184611   6.0713862
  96.9580012  63.8594997   8.4309988  97.6110012  63.3094997   8.8629988
  96.9820012  63.5854997   7.5139988  97.0506683  63.7471466   8.3662123
 102.1140012  65.4094997   7.6459988 102.7300012  64.8834997   8.1559988
 101.5280012  64.7694997   7.2429988 102.1190810  65.2509208   7.6613173
 113.0960012  62.0464997  13.1659988 112.4080012  62.7044997  13.0699988
 113.1120012  61.8494997  14.1019988 113.0038525  62.1100462  13.2794808
  99.1480012  60.3804997  11.7429988  98.9290012  60.9104997  10.9769988
  98.4800012  60.6074997  12.3899988  99.0277600  60.4836906  11.7256379
 106.5170012  69.8804997   5.2869988 106.2210012  69.5584997   4.4359988
 106.1920012  70.7804997   5.3279988 106.4326371  69.9580215   5.1761801
 101.7170012  68.0564997  12.0299988 100.9770012  68.6544997  12.1339988
 102.4310012  68.6104997  11.7149988 101.7122237  68.2132831  12.0016465
 109.8240012  60.8844997   8.0499988 109.6080012  60.1184997   8.5829988
 110.4790012  61.3564997   8.5629988 109.8830632  60.8435889   8.1922861
  98.7410012  62.2724997   9.6949988  99.3550012  62.9054997  10.0689988
  99.2530012  61.8004997   9.0389988  98.8942296  62.2952370   9.6574252
 100.1240012  70.0204997  12.8179988 100.1190012  70.9004997  12.4399988
  99.2710012  69.9374997  13.2429988 100.0079464  70.1296117  12.8237907
  96.2450012  69.6914997   3.5999988  95.9730012  69.9204997   2.7109988
  96.2910012  70.5294997   4.0599988  96.2140094  69.8361213   3.5405697
 109.8700012  71.3134997  10.3119988 108.9290012  71.3714997  10.4739988
 110.1470012  72.2194997  10.1749988 109.7784679  71.4439443  10.3156815
 110.1710012  59.5994997  11.7299988 109.4350012  60.2104997  11.6919988
 110.8540012  60.0144997  11.2029988 110.1626541  59.7391374  11.6535832
 103.1740012  57.6864997   9.1959988 103.0570012  56.7374997   9.1409988
 102.3190012  58.0184997   9.4689988 103.0423733  57.6015409   9.2253897
 108.1220012  73.0944997   6.9379988 108.5480012  72.3874997   6.4529988
 108.4390012  73.8954997   6.5209988 108.2231019  73.1060994   6.8153130
 109.2820012  70.9954997   5.4459988 109.0240012  70.3054997   4.8349988
 109.3530012  70.5524997   6.2919988 109.2562856  70.8412124   5.4766885
 110.9680012  69.5614997  13.9239988 111.1080012  68.9704997  13.1839988
 111.1350012  70.4344997  13.5669988 111.0096778  69.5986426  13.7746965
 105.4410012  66.5234997   3.6959988 104.7290012  67.0584997   3.3439988
 106.1320012  66.5794997   3.0359988 105.4370132  66.6042543   3.5586289
 105.4940012  64.9814997   0.7349988 106.1950012  65.0034997   1.3859988
 105.7970012  64.3534997   0.0789988 105.6307830  64.8996566   0.7353711
 112.8100012  65.9014997  11.9899988 112.1570012  66.5964997  12.0789988
 113.2750012  66.1114997  11.1799988 112.7835390  66.0249425  11.8926883
 108.8460012  66.7334997   4.6479988 108.1140012  66.9614997   5.2209988
 109.2940012  66.0194997   5.1029988 108.8063095  66.6682571   4.7879119
 108.7440012  64.9074997  13.7149988 108.8240012  65.6704997  14.2869988
 108.1420012  65.1864997  13.0249988 108.6735756  65.0497134  13.7000589
 100.4920012  67.3634997   6.5299988 100.1610012  66.9934997   5.7119988
 101.0800012  66.6934997   6.8769988 100.5261873  67.2221156   6.4648102
 101.8580012  70.7914997   9.2119988 101.7640012  70.2134997   8.4549988
 102.5880012  70.4204997   9.7079988 101.9437981  70.6622390   9.1754165
 100.8580012  66.1324997  10.1639988 101.4240012  66.2534997   9.4009988
 101.1770012  66.7694997  10.8029988 100.9785786  66.2351884  10.1460040
 107.1670012  71.6354997  10.8979988 106.9270012  72.2974997  11.5459988
 106.9690012  70.8014997  11.3229988 107.1073808  71.6133134  11.0441524
 101.7380012  70.5314997  14.8809988 101.4270012  71.3134997  15.3359988
 101.0880012  70.3784997  14.1949988 101.6075558  70.6179105  14.8505871
 107.7170012  65.8954997   2.3329988 108.2970012  66.0454997   3.0799988
 108.1310012  66.3664997   1.6099988 107.8522830  65.9796841   2.3374134
  98.6580012  66.7294997  14.1099988  98.7290012  67.3804997  14.8079988
  97.7680012  66.8324997  13.7749988  98.5473117  66.8325936  14.1602700
 105.4440012  72.6324997   5.7679988 105.9180012  72.9274997   6.5459988
 104.8810012  73.3704997   5.5349988 105.4327653  72.7726932   5.8430136
  99.9780012  72.6034997  15.6439988  99.9850012  72.4674997  14.6969988
  99.0620012  72.4854997  15.8959988  99.8551714  72.5689430  15.5484666
 111.4160012  57.6454997   2.1459988 110.5160012  57.7844997   2.4409988
 111.6680012  58.4764997   1.7439988 111.3268702  57.7769074   2.1320205
  99.4820012  66.4334997   4.1199988  99.1900012  67.2014997   3.6289988
  98.8080012  65.7734997   3.9569988  99.3509081  66.4494406   4.0307340
 112.6050012  72.0114997   0.5219988 112.6790012  72.9504997   0.6929988
 113.5110012  71.7064997   0.4659988 112.7375100  72.0986722   0.5378119
  95.5750012  68.7964997  12.9349988  95.0740012  68.7684997  12.1199988
  95.5800012  67.8904997  13.2439988  95.5071526  68.6702278  12.8652872
  95.3250012  71.5764997   9.8189988  96.2710012  71.4324997   9.7999988
  95.2130012  72.3604997  10.3559988  95.4392727  71.6628046   9.8890072
 113.5230012  72.2424997  15.5009988 113.4740012  71.2874997  15.4639988
 112.6960012  72.5104997  15.9019988 113.4044940  72.1478998  15.5501375
 104.5020012  71.8164997  14.3769988 104.5890012  72.6424997  14.8519988
 103.6380012  71.4864997  14.6259988 104.3971964  71.8849878  14.4756549
 104.9160012  75.5884997   4.1829988 104.8410012  75.4674997   3.2369988
 104.9490012  76.5384997   4.3019988 104.9101848  75.7002500   4.0694834
  98.5690012  74.3774997   5.9639988  98.7220012  74.0294997   6.8429988
  97.7190012  74.0214997   5.7089988  98.4748962  74.2816650   6.0498340
 108.0180012  74.7424997   1.1849988 108.3930012  73.9984997   0.7149988
 108.0220012  74.4724997   2.1039988 108.0698915  74.6041486   1.2447824
 107.6870012  74.6684997   3.9349988 106.7510012  74.7684997   4.1129988
 107.9670012  73.9594997   4.5129988 107.5968255  74.5862711   4.0375391
 110.6750012  63.7354997  15.9809988 110.2680012  64.2164997  15.2599988
 110.7160012  62.8304997  15.6729988 110.6248437  63.6789374  15.8406683
  97.8240012  70.1194997  13.9779988  98.0400012  69.7584997  14.8369988
  96.9690012  69.7454997  13.7679988  97.7379292  70.0194111  14.0673386
 100.4430012  58.5894997   9.9729988  99.5810012  58.5024997   9.5659988
 100.4200012  59.4454997  10.4009988 100.3220330  58.6932765   9.9751863
 105.1060012  58.3114997  13.3479988 105.5260012  57.8964997  14.1009988
 104.1730012  58.1334997  13.4649988 105.0373644  58.2305900  13.4669539
 108.4320012  62.0674997  14.2009988 107.9180012  61.9414997  14.9989988
 108.2770012  62.9794997  13.9569988 108.3406852  62.1736132  14.2772158
 109.1950012  66.9284997  -0.0370012 109.2370012  66.7054997  -0.9670012
 110.0440012  67.3274997   0.1529988 109.3155396  66.9519155  -0.1386373
 104.7670012  60.8044997   0.6329988 104.5140012  60.8234997   1.5559988
 104.5110012  59.9324997   0.3319988 104.6977790  60.6892437   0.7186263
 100.5340012  63.5554997  11.0679988  99.8920012  63.5144997  11.7769988
 100.5710012  64.4814997  10.8309988 100.4511324  63.6751559  11.1329824
 100.5310012  63.7764997   5.9799988  99.6380012  63.4354997   5.9219988
 100.9810012  63.3994997   5.2249988 100.4697305  63.6788484   5.8699177
 106.0660012  64.1924997   4.7969988 105.6570012  65.0074997   4.5059988
 106.7870012  64.0524997   4.1829988 106.1074537  64.2852018   4.6741342
 105.1680012  64.3674997  16.2849988 104.6060012  63.6634997  16.6059988
 105.9950012  64.2474997  16.7529988 105.2027095  64.2547883  16.3922330
 107.0710012  63.6384997   7.6109988 106.8760012  64.2434997   6.8959988
 107.2520012  62.8044997   7.1769988 107.0687614  63.6086300   7.4544405
  98.2840012  63.8754997  12.9349988  98.2460012  64.2754997  13.8039988
  97.7930012  63.0584997  13.0259988  98.2124684  63.8198069  13.0661059
 101.6500012  61.2494997  -0.2660012 101.2190012  60.8044997   0.4639988
 100.9320012  61.6214997  -0.7780012 101.4939438  61.2388940  -0.2353201
  94.8920012  60.9914997   6.7859988  95.5230012  60.9624997   7.5049988
  95.3410012  60.5664997   6.0559988  95.0390774  60.9300492   6.7856553
  96.1660012  61.7374997   2.2099988  96.6400012  62.3284997   1.6249988
  95.4490012  62.2684997   2.5569988  96.1339341  61.8900867   2.1768836
 106.3350012  65.2764997  12.2829988 106.6580012  64.6454997  11.6399988
 105.8950012  64.7414997  12.9429988 106.3196895  65.1178441  12.2842850
 103.1120012  61.2034997   7.0669988 102.2010012  61.2604997   7.3549988
 103.6180012  61.1434997   7.8769988 103.0555413  61.2031985   7.2160622
  97.9410012  62.8324997   5.8929988  97.0510012  62.9324997   5.5529988
  98.2370012  61.9904997   5.5469988  97.8592823  62.7323545   5.7997213
 101.5940012  62.8324997   3.5499988 102.5250012  62.9614997   3.7279988
 101.3790012  63.5024997   2.8999988 101.6924247  62.9406565   3.4865747
 107.5170012  60.4384997  10.3309988 106.8410012  60.5694997  10.9949988
 107.0320012  60.2834997   9.5209988 107.3587145  60.4354905  10.3124517
 100.2680012  64.0274997   1.1169988  99.7250012  63.6474997   0.4249988
 101.1010012  64.2214997   0.6879988 100.3064399  64.0018124   0.9644526
 110.8050012  76.1104997  16.6079988 111.0050012  76.5344997  15.7729988
 111.4600012  76.4534997  17.2149988 110.9210051  76.2149648  16.5757836
  98.4030012  68.5844997  16.2159988  99.1350012  68.8384997  16.7769988
  97.6230012  68.7884997  16.7309988  98.3978232  68.6469177  16.3625760
 104.4320012  63.9914997   8.9539988 104.9970012  63.4444997   8.4069988
 104.2850012  63.4694997   9.7419988 104.4892918  63.8462024   8.9858454
  99.4340012  60.1274997   5.3719988  99.1170012  59.2254997   5.3369988
 100.2160012  60.1294997   4.8189988  99.4962284  60.0041628   5.2924783
 103.0590012  62.3794997  11.3679988 102.2230012  62.8334997  11.4779988
 103.5830012  62.6554997  12.1199988 103.0154414  62.4789376  11.4847136
 103.6030012  68.5924997   3.0519988 102.8580012  68.0854997   2.7299988
 103.4690012  68.6414997   3.9989988 103.4828776  68.5296940   3.1358647
 110.7530012  67.7254997  11.8389988 111.3950012  68.1824997  11.2949988
 109.9230012  67.8384997  11.3759988 110.7285963  67.8032704  11.7020177
 107.5010012  61.4064997   1.2519988 106.5620012  61.5184997   1.0999988
 107.7980012  62.2634997   1.5579988 107.4127666  61.5376443   1.2725768
 105.1220012  68.7764997  14.2889988 104.7770012  68.3954997  15.0959988
 104.9220012  69.7104997  14.3609988 105.0478061  68.8505228  14.4090961
 108.2190012  63.2734997   2.9119988 109.1110012  63.1364997   3.2309988
 108.2760012  64.0644997   2.3759988 108.3486285  63.3616660   2.8831690
  98.7280012  67.8874997   8.8219988  99.4730012  67.8854997   8.2209988
  98.8060012  67.0644997   9.3039988  98.8405518  67.7759315   8.8048929
 105.7290012  70.0514997   2.0779988 105.4330012  70.8774997   2.4589988
 105.0260012  69.4314997   2.2739988 105.5934914  70.0808199   2.1566443
  95.7360012  66.3484997  14.1369988  95.9590012  65.9304997  14.9689988
  95.1340012  65.7354997  13.7139988  95.6851759  66.2084668  14.1937022
 102.7520012  65.8654997  16.3499988 102.4560012  65.6994997  15.4549988
 103.6840012  65.6454997  16.3389988 102.8374166  65.8130640  16.2260536
 107.3730012  71.2384997  14.2399988 106.4720012  71.4214997  13.9719988
 107.4070012  71.4974997  15.1609988 107.2543041  71.2985512  14.3278197
 113.1040012  63.4834997   2.6069988 112.5500012  63.0874997   1.9349988
 113.2040012  64.3934997   2.3289988 113.0417059  63.5523586   2.4774401
 113.0670012  69.2834997  15.4439988 112.2160012  69.5214997  15.0769988
 113.6580012  69.2664997  14.6909988 113.0302487  69.3138258  15.2918893
 111.3990012  72.2694997   3.0719988 111.0260012  71.4434997   3.3809988
 111.6770012  72.0864997   2.1749988 111.3855630  72.1317303   2.9929626
 108.5600012  67.0774997  10.0929988 107.6310012  66.8454997  10.0659988
 109.0110012  66.3004997   9.7629988 108.4939216  66.9407238  10.0446917
 101.1030012  71.4054997   6.2259988 101.6300012  72.1784997   6.0259988
 100.2230012  71.6304997   5.9249988 101.0561773  71.5418005   6.1579010
  96.8580012  66.2674997   0.8129988  97.4740012  66.8944997   1.1929988
  95.9960012  66.5834997   1.0849988  96.8257698  66.3959430   0.9017183
 102.5300012  69.0684997   5.8029988 102.2890012  69.9934997   5.8439988
 101.7890012  68.6094997   6.1989988 102.3968409  69.1331421   5.8621377
 103.0450012  73.2174997  12.1179988 103.4070012  74.0724997  11.8839988
 103.5760012  72.9254997  12.8579988 103.1664473  73.2951060  12.1860855
 101.2130012  74.0904997   5.3479988 100.2630012  74.1954997   5.3989988
 101.5650012  74.9104997   5.6929988 101.1304203  74.2158314   5.4016650
 106.5890012  69.3164997  11.8179988 106.1630012  69.0894997  12.6449988
 107.1690012  68.5784997  11.6359988 106.6091868  69.1855299  11.9065830
 108.7920012  70.2454997   0.8919988 109.1450012  69.8654997   1.6969988
 107.8430012  70.1524997   0.9789988 108.7120441  70.1809596   1.0138559
 109.2470012  73.8684997  14.2879988 108.6460012  73.3134997  13.7919988
 109.5290012  74.5354997  13.6619988 109.2028519  73.8826841  14.1354952
 113.2950012  74.7254997   1.0929988 114.0390012  75.3114997   0.9529988
 112.6010012  75.2934997   1.4269988 113.3030292  74.8825582   1.1189961
  97.3700012  61.1014997  13.6949988  96.4770012  61.4404997  13.6269988
  97.2710012  60.2464997  14.1129988  97.2344164  61.0322588  13.7422235
 109.6580012  68.9184997   3.1189988 109.3800012  68.1904997   3.6749988
 110.5850012  69.0374997   3.3239988 109.7453124  68.8348802   3.2228845
  97.0210012  72.9064997  12.1299988  97.2380012  71.9744997  12.0989988
  97.2670012  73.1804997  13.0129988  97.0839549  72.8160636  12.2451763
 102.8830012  71.3574997  -0.6610012 103.1220012  70.6094997  -1.2080012
 102.6140012  70.9694997   0.1719988 102.8793675  71.2026638  -0.6233135
 101.8200012  70.9274997   1.7959988 101.9660012  70.4074997   2.5859988
 101.8170012  71.8344997   2.1019988 101.8395989  70.9788853   1.9456088
  98.2730012  68.1804997   2.3059988  97.5870012  68.5324997   2.8729988
  98.7950012  68.9434997   2.0589988  98.2496852  68.3318578   2.3502118
 106.1040012  60.8424997  12.5849988 106.8030012  60.9164997  13.2349988
 105.7230012  59.9784997  12.7389988 106.1481767  60.7357624  12.6948322
 106.8890012  60.4944997   3.6819988 107.1090012  60.9664997   2.8789988
 107.4470012  60.8894997   4.3519988 106.9944968  60.6124285   3.6627331
 104.5570012  72.6254997   2.5449988 103.7410012  73.1224997   2.5969988
 105.0870012  73.1004997   1.9049988 104.5169161  72.7577722   2.4655956
 104.0890012  62.2224997   4.5169988 104.9010012  62.7274997   4.5629988
 103.8440012  62.0774997   5.4309988 104.1670520  62.2720375   4.6468517
 104.6240012  63.2084997  13.7019988 104.7430012  63.7824997  14.4589988
 105.2800012  62.5204997  13.8159988 104.7289757  63.1941079  13.8210825
 104.9720012  59.3034997   5.4549988 104.6260012  59.9214997   6.0999988
 105.6310012  59.8044997   4.9739988 105.0137826  59.4555802   5.4780971
 101.8960012  73.6694997   2.5269988 102.0560012  74.4684997   2.0259988
 101.6980012  73.9754997   3.4119988 101.8911649  73.8204469   2.5779815
 100.6300012  60.3664997   2.1419988 100.5470012  61.2554997   2.4889988
 101.5200012  60.1014997   2.3739988 100.7389469  60.4521430   2.2207626
 110.8290012  61.1154997  14.5369988 109.9120012  61.3784997  14.4489988
 111.1640012  61.1124997  13.6399988 110.7489900  61.1510224  14.4037919
 109.4310012  64.8664997   8.6319988 108.6330012  64.4514997   8.3039988
 109.8760012  64.1754997   9.1229988 109.3819885  64.7163543   8.6534889
  98.8890012  70.7944997   1.2029988  99.4810012  71.4934997   1.4789988
  99.3480012  70.3614997   0.4829988  99.0321142  70.8317049   1.1434830
  97.2050012  63.4584997   0.3189988  97.1600012  64.3974997   0.4969988
  96.3170012  63.2224997   0.0489988  97.0788574  63.5551892   0.3068912
 110.5170012  74.1224997  10.2549988 110.3620012  74.8004997   9.5979988
 111.4500012  74.1944997  10.4579988 110.6218500  74.2250170  10.1925119
  98.0130012  58.2404997   8.9919988  97.7840012  58.2994997   8.0639988
  97.5700012  57.4484997   9.2979988  97.9218530  58.1415753   8.9064786
  96.9430012  72.1804997   5.1519988  96.1110012  72.6534997   5.1799988
  97.4890012  72.6904997   4.5539988  96.9029739  72.3141871   5.0749716
  96.2310012  74.7934997  16.4819988  96.7720012  74.5764997  17.2419988
  95.7500012  73.9874997  16.2929988  96.2399345  74.6549514  16.5603076
 100.8290012  73.7124997  18.1029988 101.5960012  73.2534997  18.4439988
 100.8070012  73.4864997  17.1729988 100.9311434  73.6190409  18.0240043
 104.9210012  73.2204997  -0.5220012 104.2770012  72.5894997  -0.2010012
 105.6830012  72.6894997  -0.7540012 104.9358077  73.0622920  -0.5093989
 107.4060012  72.0924997  16.8319988 107.0550012  71.2364997  17.0749988
 108.1320012  72.2354997  17.4389988 107.4560769  71.9945636  16.9473619
 109.5250012  73.0374997  -0.2880012 109.8080012  72.2434997   0.1639988
 110.2650012  73.2704997  -0.8490012 109.6637486  72.9602803  -0.3019302
  96.1380012  68.6034997  17.4369988  96.2820012  67.7014997  17.1499988
  95.3660012  68.8894997  16.9489988  96.0533322  68.5188261  17.3317881
 100.4800012  68.9474997  -0.4310012 100.5440012  68.1534997   0.0999988
 101.1330012  68.8284997  -1.1210012 100.5770241  68.8227148  -0.4515683
 102.7940012  68.5734997  16.8689988 102.4650012  68.8444997  16.0119988
 102.9460012  67.6324997  16.7819988 102.7694809  68.4833862  16.7398244
 105.8320012  69.9944997  -0.6950012 105.5630012  70.1744997   0.2059988
 105.6260012  69.0684997  -0.8260012 105.7673825  69.8940152  -0.5894786
 108.5280012  68.4894997  14.2529988 109.2740012  69.0774997  14.1329988
 107.7710012  69.0714997  14.3159988 108.5277554  68.6487011  14.2450907
  96.9710012  65.8034997  16.8569988  97.3790012  64.9464997  16.7359988
  96.7110012  65.8184997  17.7779988  96.9917568  65.6880807  16.9649588
 101.6290012  66.9194997   1.8749988 101.1690012  66.4354997   2.5609988
 101.8840012  66.2514997   1.2389988 101.6004902  66.7628731   1.8829334
 100.9180012  64.8124997  14.2309988 100.3000012  65.4874997  14.5109988
 101.2620012  65.1334997  13.3979988 100.8799615  64.9482721  14.1566581
 102.7000012  65.1624997   0.1369988 102.5200012  65.0084997  -0.7900012
 103.6500012  65.2704997   0.1819988 102.8037776  65.1560175   0.0161843
 105.9380012  67.2844997  17.5079988 106.8910012  67.3674997  17.4809988
 105.7770012  66.5724997  18.1279988 106.0466426  67.1996746  17.5880578
 112.0900012  67.5174997  -0.4170012 111.8160012  67.0924997  -1.2300012
 112.1290012  68.4484997  -0.6340012 112.0577699  67.5852484  -0.5576390
 101.2570012  62.1674997  15.3129988 101.4070012  61.4384997  14.7109988
 101.2600012  62.9444997  14.7539988 101.2779302  62.1727851  15.1550692
 101.6700012  60.5374997  12.8059988 102.2060012  60.9884997  12.1539988
 100.8180012  60.4294997  12.3829988 101.6282178  60.5846390  12.6595756
 103.2520012  65.9764997  13.0449988 104.0020012  65.8204997  12.4719988
 102.9130012  66.8284997  12.7699988 103.3088921  66.0702968  12.9293561
 107.6670012  63.7914997  18.0739988 107.8600012  62.8604997  17.9619988
 108.5250012  64.2164997  18.0639988 107.8093020  63.7216389  18.0573361
 108.9840012  66.5804997  16.1509988 108.7030012  67.2894997  15.5739988
 109.9270012  66.5074997  15.9999988 109.0729027  66.6677646  16.0515551
  99.7360012  63.3654997  17.2249988  98.9690012  62.8334997  17.0149988
 100.4150012  63.0554997  16.6249988  99.7227022  63.2507506  17.1151648
 102.4760012  57.9934997  13.2369988 102.3770012  58.9404997  13.1319988
 101.7330012  57.6214997  12.7619988 102.3620564  58.0725902  13.1584560
 103.7400012  62.3154997  16.8009988 103.5040012  62.0954997  17.7029988
 102.9560012  62.1084997  16.2909988 103.6018628  62.2574760  16.8553932
 106.4550012  61.4424997  15.8769988 105.5080012  61.4744997  16.0089988
 106.7680012  60.8174997  16.5299988 106.3675475  61.3623207  15.9834455
 108.0890012  60.0764997  17.8819988 107.9930012  59.1244997  17.8759988
 107.7680012  60.3454997  18.7419988 108.0324070  59.9824035  17.9975441
  97.9160012  61.2864997  16.9289988  98.1280012  60.5794997  16.3189988
  97.8050012  60.8484997  17.7729988  97.9299721  61.1307084  16.9596843
 102.6970012  57.2874997  15.9089988 103.4090012  56.6474997  15.8949988
 102.5960012  57.5544997  14.9949988 102.7807939  57.2359938  15.7835650
 103.0510012  58.9704997  17.9619988 102.9190012  58.4944997  17.1419988
 102.4520012  59.7144997  17.9069988 102.9519071  59.0059618  17.8422886
 102.5970012  75.8534997   1.1389988 103.5300012  76.0114997   1.2819988
 102.3330012  76.5284997   0.5139988 102.6889510  75.9663611   1.0740741
  96.1660012  70.4894997   0.6209988  97.0800012  70.5684997   0.8949988
  96.1730012  69.8024997  -0.0450012  96.2921131  70.4073961   0.5684393
  94.8150012  75.8824997   5.6989988  94.1680012  75.4204997   5.1659988
  95.1690012  75.2104997   6.2809988  94.7743849  75.7284723   5.7047959
  95.6850012  73.9634997   7.5029988  95.3500012  73.0834997   7.6749988
  95.9070012  74.3084997   8.3679988  95.6691783  73.8897500   7.6434208
 113.2330012  74.7724997  10.4839988 113.2120012  74.9574997  11.4229988
 113.9240012  75.3414997  10.1429988 113.3234618  74.8746606  10.5663864
 112.7970012  74.3404997  13.4059988 112.3090012  73.6044997  13.0349988
 113.3460012  73.9464997  14.0839988 112.8044872  74.1866249  13.4469160
 111.2470012  70.1294997  18.0439988 110.3810012  70.0244997  18.4379988
 111.6240012  70.8884997  18.4899988 111.1793308  70.2176900  18.1582393
 112.5480012  68.3864997   3.5579988 113.3980012  68.8074997   3.6849988
 112.5540012  67.6464997   4.1649988 112.6651372  68.3440803   3.6574344
 112.9430012  66.4394997   5.3819988 112.2160012  65.9604997   5.7789988
 113.5240012  66.6454997   6.1139988 112.9219375  66.4017090   5.5354129
 112.7020012  69.2244997  10.3289988 113.5350012  68.8464997  10.0489988
 112.8140012  70.1674997  10.2099988 112.8312647  69.3002218  10.2745487
 111.1880012  72.1024997  12.6359988 110.5410012  72.4274997  13.2619988
 110.6710012  71.6624997  11.9619988 111.0294029  72.0875004  12.6305827
 113.2110012  66.3404997   1.7729988 112.6890012  66.6974997   1.0539988
 113.1780012  67.0154997   2.4509988 113.1351634  66.4805413   1.7663145
 111.5600012  63.5804997   0.3239988 111.6560012  64.2474997  -0.3570012
 111.4200012  62.7644997  -0.1580012 111.5542135  63.5614500   0.1658491
 110.7290012  64.9604997   5.9449988 110.5790012  64.0154997   5.9239988
 110.3760012  65.2414997   6.7879988 110.6606625  64.8690441   6.0562346
  95.7650012  67.0384997   9.9549988  95.9490012  66.9564997   9.0189988
  96.6140012  66.9144997  10.3789988  95.9050139  67.0105003   9.8841455
 111.5860012  66.9304997  15.5829988 112.1690012  66.1964997  15.7749988
 112.1500012  67.7024997  15.6299988 111.7419769  66.9344227  15.6156159
 113.0820012  64.8334997  16.2679988 112.2190012  64.4544997  16.1019988
 113.6870012  64.0944997  16.1939988 113.0455979  64.6818023  16.2352817
 110.8070012  60.9884997  -0.5590012 111.4180012  60.6174997   0.0779988
 109.9710012  60.5674997  -0.3630012 110.7775032  60.8807554  -0.4452965
 110.4400012  62.5434997   4.4069988 110.7200012  61.6364997   4.5309988
 111.1990012  62.9774997   4.0179988 110.5809277  62.4780942   4.3713682
 111.0520012  63.1244997   9.8429988 111.9850012  63.3364997   9.8089988
 110.8170012  63.2264997  10.7649988 111.1478036  63.1672769   9.9629976
 111.0810012  63.8614997  12.6189988 110.2380012  64.1294997  12.9849988
 111.5230012  64.6834997  12.4079988 111.0254158  64.0093291  12.6405491
  95.3620012  62.3094997  16.0959988  96.2820012  62.1874997  16.3319988
  94.9130012  61.5594997  16.4849988  95.4271580  62.1913727  16.1809006
 113.3640012  57.8414997  17.9719988 113.7140012  57.1874997  17.3669988
 113.5110012  58.6784997  17.5329988 113.4318419  57.8651591  17.8297118
 111.0530012  59.8064997   4.4549988 111.2360012  59.3574997   5.2809988
 110.4540012  59.2214997   3.9919988 110.9970202  59.6659975   4.5053275
  96.5830012  60.6214997   8.9869988  97.0290012  59.8294997   9.2889988
  97.0500012  61.3374997   9.4179988  96.7070172  60.6100624   9.0864820
  94.8870012  63.6204997  10.0559988  95.3790012  63.3994997   9.2649988
  95.2500012  64.4614997  10.3369988  95.0033126  63.7038357   9.9857531
 112.8840012  59.9504997  16.3219988 111.9660012  60.2214997  16.2859988
 113.0070012  59.4154997  15.5369988 112.7751066  59.9152892  16.2110487
 112.9200012  59.8734997   0.9829988 113.3320012  59.1524997   0.5079988
 113.6020012  60.5434997   1.0419988 113.0685885  59.8652368   0.9258915
  95.2010012  59.8784997   4.1099988  94.2760012  60.0874997   3.9809988
  95.6550012  60.3624997   3.4209988  95.1357368  59.9725993   3.9991226
 109.9720012  74.8624997   6.0559988 110.6240012  74.5154997   5.4479988
 110.4820012  75.3514997   6.7019988 110.1302637  74.8810597   6.0600236
  95.1650012  58.6164997  12.4549988  94.5000012  58.3704997  13.0979988
  94.7220012  59.2384997  11.8769988  95.0140956  58.6668632  12.4649352
  97.3570012  71.7914997  16.5989988  96.5360012  71.9664997  16.1389988
  97.1040012  71.7184997  17.5199988  97.2106164  71.8055622  16.6604923
 100.3110012  72.7664997  12.8579988  99.8860012  73.5754997  12.5749988
 101.2150012  72.8514997  12.5559988 100.3750271  72.8888469  12.7783776
 104.6220012  74.1654997  15.8169988 104.8070012  73.8314997  16.6949988
 105.4680012  74.4744997  15.4949988 104.7617539  74.1616047  15.8935605
 106.9670012  75.4514997  15.0609988 107.6440012  74.8184997  14.8209988
 107.2890012  75.8524997  15.8679988 107.1031637  75.4191154  15.1372793
 111.8840012  58.0404997  14.1409988 111.0720012  58.3654997  13.7529988
 112.1170012  57.2804997  13.6079988 111.8043423  57.9822436  14.0158253
  97.7130012  76.0224997  12.9049988  96.9920012  76.4624997  12.4539988
  97.3470012  75.7714997  13.7539988  97.5649804  76.0487698  12.9579840
 100.1800012  75.6224997  11.9349988  99.3150012  75.6944997  12.3389988
 100.1250012  76.1694997  11.1509988 100.0542085  75.7062685  11.8843362
 104.8900012  75.5104997  11.1099988 104.4340012  76.0394997  10.4559988
 105.0530012  76.1134997  11.8359988 104.8495585  75.6644468  11.1185062
 107.2180012  74.3884997  12.0549988 106.3130012  74.5534997  11.7899988
 107.6470012  75.2414997  11.9899988 107.1520799  74.5264483  12.0099182
 109.8220012  75.9584997  12.3499988 109.6400012  76.8744997  12.1399988
 109.9990012  75.5484997  11.5039988 109.8210210  76.0284822  12.2067885
  97.1270012  74.6454997   9.8149988  97.1090012  74.2204997  10.6729988
  97.9320012  74.3274997   9.4069988  97.2333875  74.5443812   9.8771655
  99.2690012  73.3554997   8.4699988  99.0500012  72.4394997   8.6399988
 100.0930012  73.4954997   8.9359988  99.3504420  73.2490520   8.5562774
 101.8060012  73.8254997   9.3189988 102.0190012  72.9374997   9.0319988
 101.8700012  73.7914997  10.2729988 101.8438231  73.6993102   9.4087397
 105.3140012  59.4894997   8.4629988 104.6400012  58.8604997   8.7189988
 105.8780012  59.0054997   7.8599988 105.2979230  59.3378744   8.4165340
 110.4570012  57.5974997   8.5759988 111.0610012  58.1444997   8.0739988
 109.5870012  57.9164997   8.3359988 110.4221241  57.7155806   8.4747654
 112.1840012  58.7354997   6.9089988 112.7960012  58.2214997   6.3829988
 112.5660012  59.6134997   6.9329988 112.3194540  58.7837140   6.8401830
  97.6410012  58.1234997   6.2849988  96.8640012  57.8894997   5.7779988
  98.1710012  57.3264997   6.2939988  97.6062330  57.9836988   6.2167742
  96.4770012  57.9214997   2.0889988  96.9160012  58.5324997   1.4969988
  95.8440012  58.4594997   2.5629988  96.4514514  58.0779257   2.0720930
 102.2200012  58.0504997   6.0989988 103.0950012  58.4384997   6.0689988
 102.0840012  57.8354997   7.0209988 102.3213695  58.0745184   6.2196440
 107.7770012  58.0804997   7.7479988 107.8530012  58.1754997   6.7979988
 107.5020012  57.1724997   7.8769988 107.7502321  57.9707867   7.6355079
 109.1300012  58.1064997   3.4399988 108.4280012  58.7214997   3.2309988
 108.6860012  57.2684997   3.5709988 108.9736330  58.0775783   3.4290328
  96.3780012  73.8694997   2.9869988  95.6930012  73.8314997   2.3189988
  96.3820012  74.7824997   3.2749988  96.2848193  73.9877016   2.9345284
  98.3380012  59.8374997   0.5309988  98.8300012  59.2074997   0.0039988
  98.9620012  60.1334997   1.1949988  98.4895446  59.7913199   0.5485980
 103.3640012  60.1304997   2.9879988 103.5420012  59.4844997   3.6709988
 103.3110012  60.9644997   3.4559988 103.3811829  60.1547985   3.1445940
 105.2430012  75.0794997   1.3839988 106.1090012  75.4454997   1.2059988
 104.9960012  74.6394997   0.5699988 105.3282392  75.0701756   1.2496289
 111.9520012  74.6424997   4.0629988 111.7570012  73.8944997   3.4979988
 111.9130012  75.4004997   3.4799988 111.9200380  74.6426099   3.9068384
  97.5990012  58.6374997  15.8029988  97.2330012  57.8724997  16.2459988
  98.5120012  58.6664997  16.0899988  97.6722790  58.5367224  15.9024070
  99.5720012  57.9884997  17.3389988 100.4700012  57.7144997  17.1539988
  99.1850012  57.2454997  17.8029988  99.6426612  57.8505914  17.3763643
  98.1960012  74.7894997   0.0119988  97.9290012  75.0764997   0.8849988
  98.9680012  74.2434997   0.1639988  98.2637488  74.7550294   0.1521050
 107.9930012  57.3204997  17.5209988 108.0700012  56.8944997  18.3749988
 108.8870012  57.3344997  17.1779988 108.1243428  57.2640879  17.5915310
 111.1690012  73.3934997  16.2129988 110.3870012  73.2074997  15.6939988
 111.0970012  74.3224997  16.4309988 111.0521777  73.4936492  16.1714048
 125.5750012  67.2794997   6.2439988 125.6640012  68.2234997   6.1119988
 124.9370012  67.0044997   5.5859988 125.5009081  67.3714830   6.1369614
 124.5080012  66.5344997   9.6629988 124.4700012  65.8884997  10.3679988
 124.1860012  66.0684997   8.8919988 124.4592333  66.3829408   9.6552978
 116.8770012  66.1494997  11.2559988 116.9180012  65.5234997  11.9789988
 117.5800012  66.7734997  11.4379988 116.9776363  66.1481196  11.3796044
 128.2140012  69.4734997   7.9639988 127.7740012  68.7534997   8.4149988
 128.2010012  70.1944997   8.5939988 128.1520226  69.4723731   8.1108494
 117.8000012  70.5994997   9.7909988 117.4310012  69.7974997   9.4209988
 118.7410012  70.4304997   9.8369988 117.8767289  70.4670153   9.7466316
 114.4100012  64.2594997   5.1839988 113.9630012  65.1054997   5.1649988
 113.8490012  63.6794997   4.6679988 114.2729900  64.2969916   5.1116801
 115.1210012  66.4214997   7.3099988 115.3340012  65.6514997   7.8369988
 115.8590012  66.5104997   6.7059988 115.2498496  66.3281394   7.3005300
 125.3260012  74.5784997   8.1769988 125.9460012  73.9014997   7.9029988
 125.1180012  74.3604997   9.0849988 125.3826904  74.4563870   8.2623365
 122.8980012  68.9674997  10.0689988 123.2020012  68.2814997   9.4739988
 123.6190012  69.0854997  10.6869988 123.0370671  68.8896305  10.0711816
 131.5610012  60.5684997  10.9299988 131.6100012  61.1784997  11.6659988
 131.9860012  61.0294997  10.2069988 131.6251824  60.7143741  10.9330205
 126.0390012  63.3614997  10.3969988 126.1810012  62.4154997  10.4169988
 125.9320012  63.5684997   9.4679988 126.0439864  63.2599534  10.2742339
 119.1930012  61.4624997   7.6689988 119.2370012  62.3224997   7.2509988
 118.7360012  60.9104997   7.0349988 119.1372185  61.5055799   7.5260299
 126.9160012  61.5934997   6.0699988 127.5620012  61.2644997   6.6949988
 127.4260012  62.1114997   5.4469988 127.0734264  61.6184611   6.0713862
 115.8140012  63.8594997   8.4309988 116.4670012  63.3094997   8.8629988
 115.8380012  63.5854997   7.5139988 115.9066683  63.7471466   8.3662123
 120.9700012  65.4094997   7.6459988 121.5860012  64.8834997   8.1559988
 120.3840012  64.7694997   7.2429988 120.9750810  65.2509208   7.6613173
 131.9520012  62.0464997  13.1659988 131.2640012  62.7044997  13.0699988
 131.9680012  61.8494997  14.1019988 131.8598525  62.1100462  13.2794808
 118.0040012  60.3804997  11.7429988 117.7850012  60.9104997  10.9769988
 117.3360012  60.6074997  12.3899988 117.8837600  60.4836906  11.7256379
 125.3730012  69.8804997   5.2869988 125.0770012  69.5584997   4.4359988
 125.0480012  70.7804997   5.3279988 125.2886371  69.9580215   5.1761801
 120.5730012  68.0564997  12.0299988 119.8330012  68.6544997  12.1339988
 121.2870012  68.6104997  11.7149988 120.5682237  68.2132831  12.0016465
 128.6800012  60.8844997   8.0499988 128.4640012  60.1184997   8.5829988
 129.3350012  61.3564997   8.5629988 128.7390632  60.8435889   8.1922861
 117.5970012  62.2724997   9.6949988 118.2110012  62.9054997  10.0689988
 118.1090012  61.8004997   9.0389988 117.7502296  62.2952370   9.6574252
 118.9800012  70.0204997  12.8179988 118.9750012  70.9004997  12.4399988
 118.1270012  69.9374997  13.2429988 118.8639464  70.1296117  12.8237907
 115.1010012  69.6914997   3.5999988 114.8290012  69.9204997   2.7109988
 115.1470012  70.5294997   4.0599988 115.0700094  69.8361213   3.5405697
 128.7260012  71.3134997  10.3119988 127.7850012  71.3714997  10.4739988
 129.0030012  72.2194997  10.1749988 128.6344679  71.4439443  10.3156815
 129.0270012  59.5994997  11.7299988 128.2910012  60.2104997  11.6919988
 129.7100012  60.0144997  11.2029988 129.0186541  59.7391374  11.6535832
 122.0300012  57.6864997   9.1959988 121.9130012  56.7374997   9.1409988
 121.1750012  58.0184997   9.4689988 121.8983733  57.6015409   9.2253897
 126.9780012  73.0944997   6.9379988 127.4040012  72.3874997   6.4529988
 127.2950012  73.8954997   6.5209988 127.0791019  73.1060994   6.8153130
 128.1380012  70.9954997   5.4459988 127.8800012  70.3054997   4.8349988
 128.2090012  70.5524997   6.2919988 128.1122856  70.8412124   5.4766885
 129.8240012  69.5614997  13.9239988 129.9640012  68.9704997  13.1839988
 129.9910012  70.4344997  13.5669988 129.8656778  69.5986426  13.7746965
 124.2970012  66.5234997   3.6959988 123.5850012  67.0584997   3.3439988
 124.9880012  66.5794997   3.0359988 124.2930132  66.6042543   3.5586289
 124.3500012  64.9814997   0.7349988 125.0510012  65.0034997   1.3859988
 124.6530012  64.3534997   0.0789988 124.4867830  64.8996566   0.7353711
 131.6660012  65.9014997  11.9899988 131.0130012  66.5964997  12.0789988
 132.1310012  66.1114997  11.1799988 131.6395390  66.0249425  11.8926883
 127.7020012  66.7334997   4.6479988 126.9700012  66.9614997   5.2209988
 128.1500012  66.0194997   5.1029988 127.6623095  66.6682571   4.7879119
 127.6000012  64.9074997  13.7149988 127.6800012  65.6704997  14.2869988
 126.9980012  65.1864997  13.0249988 127.5295756  65.0497134  13.7000589
 119.3480012  67.3634997   6.5299988 119.0170012  66.9934997   5.7119988
 119.9360012  66.6934997   6.8769988 119.3821873  67.2221156   6.4648102
 120.7140012  70.7914997   9.2119988 120.6200012  70.2134997   8.4549988
 121.4440012  70.4204997   9.7079988 120.7997981  70.6622390   9.1754165
 119.7140012  66.1324997  10.1639988 120.2800012  66.2534997   9.4009988
 120.0330012  66.7694997  10.8029988 119.8345786  66.2351884  10.1460040
 126.0230012  71.6354997  10.8979988 125.7830012  72.2974997  11.5459988
 125.8250012  70.8014997  11.3229988 125.9633808  71.6133134  11.0441524
 120.5940012  70.5314997  14.8809988 120.2830012  71.3134997  15.3359988
 119.9440012  70.3784997  14.1949988 120.4635558  70.6179105  14.8505871
 126.5730012  65.8954997   2.3329988 127.1530012  66.0454997   3.0799988
 126.9870012  66.3664997   1.6099988 126.7082830  65.9796841   2.3374134
 117.5140012  66.7294997  14.1099988 117.5850012  67.3804997  14.8079988
 116.6240012  66.8324997  13.7749988 117.4033117  66.8325936  14.1602700
 124.3000012  72.6324997   5.7679988 124.7740012  72.9274997   6.5459988
 123.7370012  73.3704997   5.5349988 124.2887653  72.7726932   5.8430136
 118.8340012  72.6034997  15.6439988 118.8410012  72.4674997  14.6969988
 117.9180012  72.4854997  15.8959988 118.7111714  72.5689430  15.5484666
 130.2720012  57.6454997   2.1459988 129.3720012  57.7844997   2.4409988
 130.5240012  58.4764997   1.7439988 130.1828702  57.7769074   2.1320205
 118.3380012  66.4334997   4.1199988 118.0460012  67.2014997   3.6289988
 117.6640012  65.7734997   3.9569988 118.2069081  66.4494406   4.0307340
 131.4610012  72.0114997   0.5219988 131.5350012  72.9504997   0.6929988
 132.3670012  71.7064997   0.4659988 131.5935100  72.0986722   0.5378119
 114.4310012  68.7964997  12.9349988 113.9300012  68.7684997  12.1199988
 114.4360012  67.8904997  13.2439988 114.3631526  68.6702278  12.8652872
 114.1810012  71.5764997   9.8189988 115.1270012  71.4324997   9.7999988
 114.0690012  72.3604997  10.3559988 114.2952727  71.6628046   9.8890072
 132.3790012  72.2424997  15.5009988 132.3300012  71.2874997  15.4639988
 131.5520012  72.5104997  15.9019988 132.2604940  72.1478998  15.5501375
 123.3580012  71.8164997  14.3769988 123.4450012  72.6424997  14.8519988
 122.4940012  71.4864997  14.6259988 123.2531964  71.8849878  14.4756549
 123.7720012  75.5884997   4.1829988 123.6970012  75.4674997   3.2369988
 123.8050012  76.5384997   4.3019988 123.7661848  75.7002500   4.0694834
 117.4250012  74.3774997   5.9639988 117.5780012  74.0294997   6.8429988
 116.5750012  74.0214997   5.7089988 117.3308962  74.2816650   6.0498340
 126.8740012  74.7424997   1.1849988 127.2490012  73.9984997   0.7149988
 126.8780012  74.4724997   2.1039988 126.9258915  74.6041486   1.2447824
 126.5430012  74.6684997   3.9349988 125.6070012  74.7684997   4.1129988
 126.8230012  73.9594997   4.5129988 126.4528255  74.5862711   4.0375391
 129.5310012  63.7354997  15.9809988 129.1240012  64.2164997  15.2599988
 129.5720012  62.8304997  15.6729988 129.4808437  63.6789374  15.8406683
 116.6800012  70.1194997  13.9779988 116.8960012  69.7584997  14.8369988
 115.8250012  69.7454997  13.7679988 116.5939292  70.0194111  14.0673386
 119.2990012  58.5894997   9.9729988 118.4370012  58.5024997   9.5659988
 119.2760012  59.4454997  10.4009988 119.1780330  58.6932765   9.9751863
 123.9620012  58.3114997  13.3479988 124.3820012  57.8964997  14.1009988
 123.0290012  58.1334997  13.4649988 123.8933644  58.2305900  13.4669539
 127.2880012  62.0674997  14.2009988 126.7740012  61.9414997  14.9989988
 127.1330012  62.9794997  13.9569988 127.1966852  62.1736132  14.2772158
 128.0510012  66.9284997  -0.0370012 128.0930012  66.7054997  -0.9670012
 128.9000012  67.3274997   0.1529988 128.1715396  66.9519155  -0.1386373
 123.6230012  60.8044997   0.6329988 123.3700012  60.8234997   1.5559988
 123.3670012  59.9324997   0.3319988 123.5537790  60.6892437   0.7186263
 119.3900012  63.5554997  11.0679988 118.7480012  63.5144997  11.7769988
 119.4270012  64.4814997  10.8309988 119.3071324  63.6751559  11.1329824
 119.3870012  63.7764997   5.9799988 118.4940012  63.4354997   5.9219988
 119.8370012  63.3994997   5.2249988 119.3257305  63.6788484   5.8699177
 124.9220012  64.1924997   4.7969988 124.5130012  65.0074997   4.5059988
 125.6430012  64.0524997   4.1829988 124.9634537  64.2852018   4.6741342
 124.0240012  64.3674997  16.2849988 123.4620012  63.6634997  16.6059988
 124.8510012  64.2474997  16.7529988 124.0587095  64.2547883  16.3922330
 125.9270012  63.6384997   7.6109988 125.7320012  64.2434997   6.8959988
 126.1080012  62.8044997   7.1769988 125.9247614  63.6086300   7.4544405
 117.1400012  63.8754997  12.9349988 117.1020012  64.2754997  13.8039988
 116.6490012  63.0584997  13.0259988 117.0684684  63.8198069  13.0661059
 120.5060012  61.2494997  -0.2660012 120.0750012  60.8044997   0.4639988
 119.7880012  61.6214997  -0.7780012 120.3499438  61.2388940  -0.2353201
 113.7480012  60.9914997   6.7859988 114.3790012  60.9624997   7.5049988
 114.1970012  60.5664997   6.0559988 113.8950774  60.9300492   6.7856553
 115.0220012  61.7374997   2.2099988 115.4960012  62.3284997   1.6249988
 114.3050012  62.2684997   2.5569988 114.9899341  61.8900867   2.1768836
 125.1910012  65.2764997  12.2829988 125.5140012  64.6454997  11.6399988
 124.7510012  64.7414997  12.9429988 125.1756895  65.1178441  12.2842850
 121.9680012  61.2034997   7.0669988 121.0570012  61.2604997   7.3549988
 122.4740012  61.1434997   7.8769988 121.9115413  61.2031985   7.2160622
 116.7970012  62.8324997   5.8929988 115.9070012  62.9324997   5.5529988
 117.0930012  61.9904997   5.5469988 116.7152823  62.7323545   5.7997213
 120.4500012  62.8324997   3.5499988 121.3810012  62.9614997   3.7279988
 120.2350012  63.5024997   2.8999988 120.5484247  62.9406565   3.4865747
 126.3730012  60.4384997  10.3309988 125.6970012  60.5694997  10.9949988
 125.8880012  60.2834997   9.5209988 126.2147145  60.4354905  10.3124517
 119.1240012  64.0274997   1.1169988 118.5810012  63.6474997   0.4249988
 119.9570012  64.2214997   0.6879988 119.1624399  64.0018124   0.9644526
 129.6610012  76.1104997  16.6079988 129.8610012  76.5344997  15.7729988
 130.3160012  76.4534997  17.2149988 129.7770051  76.2149648  16.5757836
 117.2590012  68.5844997  16.2159988 117.9910012  68.8384997  16.7769988
 116.4790012  68.7884997  16.7309988 117.2538232  68.6469177  16.3625760
 123.2880012  63.9914997   8.9539988 123.8530012  63.4444997   8.4069988
 123.1410012  63.4694997   9.7419988 123.3452918  63.8462024   8.9858454
 118.2900012  60.1274997   5.3719988 117.9730012  59.2254997   5.3369988
 119.0720012  60.1294997   4.8189988 118.3522284  60.0041628   5.2924783
 121.9150012  62.3794997  11.3679988 121.0790012  62.8334997  11.4779988
 122.4390012  62.6554997  12.1199988 121.8714414  62.4789376  11.4847136
 122.4590012  68.5924997   3.0519988 121.7140012  68.0854997   2.7299988
 122.3250012  68.6414997   3.9989988 122.3388776  68.5296940   3.1358647
 129.6090012  67.7254997  11.8389988 130.2510012  68.1824997  11.2949988
 128.7790012  67.8384997  11.3759988 129.5845963  67.8032704  11.7020177
 126.3570012  61.4064997   1.2519988 125.4180012  61.5184997   1.0999988
 126.6540012  62.2634997   1.5579988 126.2687666  61.5376443   1.2725768
 123.9780012  68.7764997  14.2889988 123.6330012  68.3954997  15.0959988
 123.7780012  69.7104997  14.3609988 123.9038061  68.8505228  14.4090961
 127.0750012  63.2734997   2.9119988 127.9670012  63.1364997   3.2309988
 127.1320012  64.0644997   2.3759988 127.2046285  63.3616660   2.8831691
 117.5840012  67.8874997   8.8219988 118.3290012  67.8854997   8.2209988
 117.6620012  67.0644997   9.3039988 117.6965518  67.7759315   8.8048929
 124.5850012  70.0514997   2.0779988 124.2890012  70.8774997   2.4589988
 123.8820012  69.4314997   2.2739988 124.4494914  70.0808199   2.1566443
 114.5920012  66.3484997  14.1369988 114.8150012  65.9304997  14.9689988
 113.9900012  65.7354997  13.7139988 114.5411759  66.2084668  14.1937022
 121.6080012  65.8654997  16.3499988 121.3120012  65.6994997  15.4549988
 122.5400012  65.6454997  16.3389988 121.6934166  65.8130640  16.2260536
 126.2290012  71.2384997  14.2399988 125.3280012  71.4214997  13.9719988
 126.2630012  71.4974997  15.1609988 126.1103041  71.2985512  14.3278197
 131.9600012  63.4834997   2.6069988 131.4060012  63.0874997   1.9349988
 132.0600012  64.3934997   2.3289988 131.8977059  63.5523586   2.4774401
 131.9230012  69.2834997  15.4439988 131.0720012  69.5214997  15.0769988
 132.5140012  69.2664997  14.6909988 131.8862487  69.3138258  15.2918893
 130.2550012  72.2694997   3.0719988 129.8820012  71.4434997   3.3809988
 130.5330012  72.0864997   2.1749988 130.2415630  72.1317303   2.9929626
 127.4160012  67.0774997  10.0929988 126.4870012  66.8454997  10.0659988
 127.8670012  66.3004997   9.7629988 127.3499216  66.9407238  10.0446917
 119.9590012  71.4054997   6.2259988 120.4860012  72.1784997   6.0259988
 119.0790012  71.6304997   5.9249988 119.9121773  71.5418005   6.1579010
 115.7140012  66.2674997   0.8129988 116.3300012  66.8944997   1.1929988
 114.8520012  66.5834997   1.0849988 115.6817698  66.3959430   0.9017183
 121.3860012  69.0684997   5.8029988 121.1450012  69.9934997   5.8439988
 120.6450012  68.6094997   6.1989988 121.2528409  69.1331421   5.8621377
 121.9010012  73.2174997  12.1179988 122.2630012  74.0724997  11.8839988
 122.4320012  72.9254997  12.8579988 122.0224473  73.2951060  12.1860855
 120.0690012  74.0904997   5.3479988 119.1190012  74.1954997   5.3989988
 120.4210012  74.9104997   5.6929988 119.9864203  74.2158314   5.4016650
 125.4450012  69.3164997  11.8179988 125.0190012  69.0894997  12.6449988
 126.0250012  68.5784997  11.6359988 125.4651868  69.1855299  11.9065830
 127.6480012  70.2454997   0.8919988 128.0010012  69.8654997   1.6969988
 126.6990012  70.1524997   0.9789988 127.5680441  70.1809596   1.0138559
 128.1030012  73.8684997  14.2879988 127.5020012  73.3134997  13.7919988
 128.3850012  74.5354997  13.6619988 128.0588519  73.8826841  14.1354952
 132.1510012  74.7254997   1.0929988 132.8950012  75.3114997   0.9529988
 131.4570012  75.2934997   1.4269988 132.1590292  74.8825582   1.1189961
 116.2260012  61.1014997  13.6949988 115.3330012  61.4404997  13.6269988
 116.1270012  60.2464997  14.1129988 116.0904164  61.0322588  13.7422235
 128.5140012  68.9184997   3.1189988 128.2360012  68.1904997   3.6749988
 129.4410012  69.0374997   3.3239988 128.6013124  68.8348802   3.2228845
 115.8770012  72.9064997  12.1299988 116.0940012  71.9744997  12.0989988
 116.1230012  73.1804997  13.0129988 115.9399549  72.8160636  12.2451763
 121.7390012  71.3574997  -0.6610012 121.9780012  70.6094997  -1.2080012
 121.4700012  70.9694997   0.1719988 121.7353675  71.2026638  -0.6233135
 120.6760012  70.9274997   1.7959988 120.8220012  70.4074997   2.5859988
 120.6730012  71.8344997   2.1019988 120.6955989  70.9788853   1.9456088
 117.1290012  68.1804997   2.3059988 116.4430012  68.5324997   2.8729988
 117.6510012  68.9434997   2.0589988 117.1056852  68.3318578   2.3502118
 124.9600012  60.8424997  12.5849988 125.6590012  60.9164997  13.2349988
 124.5790012  59.9784997  12.7389988 125.0041767  60.7357624  12.6948322
 125.7450012  60.4944997   3.6819988 125.9650012  60.9664997   2.8789988
 126.3030012  60.8894997   4.3519988 125.8504968  60.6124285   3.6627331
 123.4130012  72.6254997   2.5449988 122.5970012  73.1224997   2.5969988
 123.9430012  73.1004997   1.9049988 123.3729161  72.7577722   2.4655956
 122.9450012  62.2224997   4.5169988 123.7570012  62.7274997   4.5629988
 122.7000012  62.0774997   5.4309988 123.0230520  62.2720375   4.6468517
 123.4800012  63.2084997  13.7019988 123.5990012  63.7824997  14.4589988
 124.1360012  62.5204997  13.8159988 123.5849757  63.1941079  13.8210825
 123.8280012  59.3034997   5.4549988 123.4820012  59.9214997   6.0999988
 124.4870012  59.8044997   4.9739988 123.8697826  59.4555802   5.4780971
 120.7520012  73.6694997   2.5269988 120.9120012  74.4684997   2.0259988
 120.5540012  73.9754997   3.4119988 120.7471649  73.8204469   2.5779815
 119.4860012  60.3664997   2.1419988 119.4030012  61.2554997   2.4889988
 120.3760012  60.1014997   2.3739988 119.5949469  60.4521430   2.2207626
 129.6850012  61.1154997  14.5369988 128.7680012  61.3784997  14.4489988
 130.0200012  61.1124997  13.6399988 129.6049900  61.1510224  14.4037919
 128.2870012  64.8664997   8.6319988 127.4890012  64.4514997   8.3039988
 128.7320012  64.1754997   9.1229988 128.2379885  64.7163543   8.6534889
 117.7450012  70.7944997   1.2029988 118.3370012  71.4934997   1.4789988
 118.2040012  70.3614997   0.4829988 117.8881142  70.8317049   1.1434830
 116.0610012  63.4584997   0.3189988 116.0160012  64.3974997   0.4969988
 115.1730012  63.2224997   0.0489988 115.9348574  63.5551892   0.3068912
 129.3730012  74.1224997  10.2549988 129.2180012  74.8004997   9.5979988
 130.3060012  74.1944997  10.4579988 129.4778500  74.2250170  10.1925119
 116.8690012  58.2404997   8.9919988 116.6400012  58.2994997   8.0639988
 116.4260012  57.4484997   9.2979988 116.7778530  58.1415753   8.9064786
 115.7990012  72.1804997   5.1519988 114.9670012  72.6534997   5.1799988
 116.3450012  72.6904997   4.5539988 115.7589739  72.3141871   5.0749716
 115.0870012  74.7934997  16.4819988 115.6280012  74.5764997  17.2419988
 114.6060012  73.9874997  16.2929988 115.0959345  74.6549514  16.5603076
 119.6850012  73.7124997  18.1029988 120.4520012  73.2534997  18.4439988
 119.6630012  73.4864997  17.1729988 119.7871434  73.6190409  18.0240043
 123.7770012  73.2204997  -0.5220012 123.1330012  72.5894997  -0.2010012
 124.5390012  72.6894997  -0.7540012 123.7918077  73.0622920  -0.5093989
 126.2620012  72.0924997  16.8319988 125.9110012  71.2364997  17.0749988
 126.9880012  72.2354997  17.4389988 126.3120769  71.9945636  16.9473619
 128.3810012  73.0374997  -0.2880012 128.6640012  72.2434997   0.1639988
 129.1210012  73.2704997  -0.8490012 128.5197486  72.9602803  -0.3019302
 114.9940012  68.6034997  17.4369988 115.1380012  67.7014997  17.1499988
 114.2220012  68.8894997  16.9489988 114.9093322  68.5188261  17.3317881
 119.3360012  68.9474997  -0.4310012 119.4000012  68.1534997   0.0999988
 119.9890012  68.8284997  -1.1210012 119.4330241  68.8227148  -0.4515683
 121.6500012  68.5734997  16.8689988 121.3210012  68.8444997  16.0119988
 121.8020012  67.6324997  16.7819988 121.6254809  68.4833862  16.7398244
 124.6880012  69.9944997  -0.6950012 124.4190012  70.1744997   0.2059988
 124.4820012  69.0684997  -0.8260012 124.6233825  69.8940152  -0.5894786
 127.3840012  68.4894997  14.2529988 128.1300012  69.0774997  14.1329988
 126.6270012  69.0714997  14.3159988 127.3837554  68.6487011  14.2450907
 115.8270012  65.8034997  16.8569988 116.2350012  64.9464997  16.7359988
 115.5670012  65.8184997  17.7779988 115.8477568  65.6880807  16.9649588
 120.4850012  66.9194997   1.8749988 120.0250012  66.4354997   2.5609988
 120.7400012  66.2514997   1.2389988 120.4564902  66.7628731   1.8829334
 119.7740012  64.8124997  14.2309988 119.1560012  65.4874997  14.5109988
 120.1180012  65.1334997  13.3979988 119.7359615  64.9482721  14.1566581
 121.5560012  65.1624997   0.1369988 121.3760012  65.0084997  -0.7900012
 122.5060012  65.2704997   0.1819988 121.6597776  65.1560175   0.0161843
 124.7940012  67.2844997  17.5079988 125.7470012  67.3674997  17.4809988
 124.6330012  66.5724997  18.1279988 124.9026426  67.1996746  17.5880578
 130.9460012  67.5174997  -0.4170012 130.6720012  67.0924997  -1.2300012
 130.9850012  68.4484997  -0.6340012 130.9137699  67.5852484  -0.5576390
 120.1130012  62.1674997  15.3129988 120.2630012  61.4384997  14.7109988
 120.1160012  62.9444997  14.7539988 120.1339302  62.1727851  15.1550692
 120.5260012  60.5374997  12.8059988 121.0620012  60.9884997  12.1539988
 119.6740012  60.4294997  12.3829988 120.4842178  60.5846390  12.6595756
 122.1080012  65.9764997  13.0449988 122.8580012  65.8204997  12.4719988
 121.7690012  66.8284997  12.7699988 122.1648921  66.0702968  12.9293561
 126.5230012  63.7914997  18.0739988 126.7160012  62.8604997  17.9619988
 127.3810012  64.2164997  18.0639988 126.6653020  63.7216389  18.0573361
 127.8400012  66.5804997  16.1509988 127.5590012  67.2894997  15.5739988
 128.7830012  66.5074997  15.9999988 127.9289027  66.6677646  16.0515551
 118.5920012  63.3654997  17.2249988 117.8250012  62.8334997  17.0149988
 119.2710012  63.0554997  16.6249988 118.5787022  63.2507506  17.1151648
 121.3320012  57.9934997  13.2369988 121.2330012  58.9404997  13.1319988
 120.5890012  57.6214997  12.7619988 121.2180564  58.0725902  13.1584560
 122.5960012  62.3154997  16.8009988 122.3600012  62.0954997  17.7029988
 121.8120012  62.1084997  16.2909988 122.4578628  62.2574760  16.8553932
 125.3110012  61.4424997  15.8769988 124.3640012  61.4744997  16.0089988
 125.6240012  60.8174997  16.5299988 125.2235475  61.3623207  15.9834455
 126.9450012  60.0764997  17.8819988 126.8490012  59.1244997  17.8759988
 126.6240012  60.3454997  18.7419988 126.8884070  59.9824035  17.9975441
 116.7720012  61.2864997  16.9289988 116.9840012  60.5794997  16.3189988
 116.6610012  60.8484997  17.7729988 116.7859721  61.1307084  16.9596843
 121.5530012  57.2874997  15.9089988 122.2650012  56.6474997  15.8949988
 121.4520012  57.5544997  14.9949988 121.6367939  57.2359938  15.7835650
 121.9070012  58.9704997  17.9619988 121.7750012  58.4944997  17.1419988
 121.3080012  59.7144997  17.9069988 121.8079071  59.0059618  17.8422886
 121.4530012  75.8534997   1.1389988 122.3860012  76.0114997   1.2819988
 121.1890012  76.5284997   0.5139988 121.5449510  75.9663611   1.0740741
 115.0220012  70.4894997   0.6209988 115.9360012  70.5684997   0.8949988
 115.0290012  69.8024997  -0.0450012 115.1481131  70.4073961   0.5684393
 113.6710012  75.8824997   5.6989988 113.0240012  75.4204997   5.1659988
 114.0250012  75.2104997   6.2809988 113.6303849  75.7284723   5.7047959
 114.5410012  73.9634997   7.5029988 114.2060012  73.0834997   7.6749988
 114.7630012  74.3084997   8.3679988 114.5251783  73.8897500   7.6434208
 132.0890012  74.7724997  10.4839988 132.0680012  74.9574997  11.4229988
 132.7800012  75.3414997  10.1429988 132.1794618  74.8746606  10.5663864
 131.6530012  74.3404997  13.4059988 131.1650012  73.6044997  13.0349988
 132.2020012  73.9464997  14.0839988 131.6604872  74.1866249  13.4469160
 130.1030012  70.1294997  18.0439988 129.2370012  70.0244997  18.4379988
 130.4800012  70.8884997  18.4899988 130.0353308  70.2176900  18.1582393
 131.4040012  68.3864997   3.5579988 132.2540012  68.8074997   3.6849988
 131.4100012  67.6464997   4.1649988 131.5211372  68.3440803   3.6574344
 131.7990012  66.4394997   5.3819988 131.0720012  65.9604997   5.7789988
 132.3800012  66.6454997   6.1139988 131.7779375  66.4017090   5.5354129
 131.5580012  69.2244997  10.3289988 132.3910012  68.8464997  10.0489988
 131.6700012  70.1674997  10.2099988 131.6872647  69.3002218  10.2745487
 130.0440012  72.1024997  12.6359988 129.3970012  72.4274997  13.2619988
 129.5270012  71.6624997  11.9619988 129.8854029  72.0875004  12.6305827
 132.0670012  66.3404997   1.7729988 131.5450012  66.6974997   1.0539988
 132.0340012  67.0154997   2.4509988 131.9911634  66.4805413   1.7663145
 130.4160012  63.5804997   0.3239988 130.5120012  64.2474997  -0.3570012
 130.2760012  62.7644997  -0.1580012 130.4102135  63.5614500   0.1658491
 129.5850012  64.9604997   5.9449988 129.4350012  64.0154997   5.9239988
 129.2320012  65.2414997   6.7879988 129.5166625  64.8690441   6.0562346
 114.6210012  67.0384997   9.9549988 114.8050012  66.9564997   9.0189988
 115.4700012  66.9144997  10.3789988 114.7610139  67.0105003   9.8841455
 130.4420012  66.9304997  15.5829988 131.0250012  66.1964997  15.7749988
 131.0060012  67.7024997  15.6299988 130.5979769  66.9344227  15.6156159
 131.9380012  64.8334997  16.2679988 131.0750012  64.4544997  16.1019988
 132.5430012  64.0944997  16.1939988 131.9015979  64.6818023  16.2352817
 129.6630012  60.9884997  -0.5590012 130.2740012  60.6174997   0.0779988
 128.8270012  60.5674997  -0.3630012 129.6335032  60.8807554  -0.4452965
 129.2960012  62.5434997   4.4069988 129.5760012  61.6364997   4.5309988
 130.0550012  62.9774997   4.0179988 129.4369277  62.4780942   4.3713682
 129.9080012  63.1244997   9.8429988 130.8410012  63.3364997   9.8089988
 129.6730012  63.2264997  10.7649988 130.0038036  63.1672769   9.9629976
 129.9370012  63.8614997  12.6189988 129.0940012  64.1294997  12.9849988
 130.3790012  64.6834997  12.4079988 129.8814158  64.0093291  12.6405491
 114.2180012  62.3094997  16.0959988 115.1380012  62.1874997  16.3319988
 113.7690012  61.5594997  16.4849988 114.2831580  62.1913727  16.1809006
 132.2200012  57.8414997  17.9719988 132.5700012  57.1874997  17.3669988
 132.3670012  58.6784997  17.5329988 132.2878419  57.8651591  17.8297118
 129.9090012  59.8064997   4.4549988 130.0920012  59.3574997   5.2809988
 129.3100012  59.2214997   3.9919988 129.8530202  59.6659975   4.5053275
 115.4390012  60.6214997   8.9869988 115.8850012  59.8294997   9.2889988
 115.9060012  61.3374997   9.4179988 115.5630172  60.6100624   9.0864820
 113.7430012  63.6204997  10.0559988 114.2350012  63.3994997   9.2649988
 114.1060012  64.4614997  10.3369988 113.8593126  63.7038357   9.9857531
 131.7400012  59.9504997  16.3219988 130.8220012  60.2214997  16.2859988
 131.8630012  59.4154997  15.5369988 131.6311066  59.9152892  16.2110487
 131.7760012  59.8734997   0.9829988 132.1880012  59.1524997   0.5079988
 132.4580012  60.5434997   1.0419988 131.9245885  59.8652368   0.9258915
 114.0570012  59.8784997   4.1099988 113.1320012  60.0874997   3.9809988
 114.5110012  60.3624997   3.4209988 113.9917368  59.9725993   3.9991226
 128.8280012  74.8624997   6.0559988 129.4800012  74.5154997   5.4479988
 129.3380012  75.3514997   6.7019988 128.9862637  74.8810597   6.0600236
 114.0210012  58.6164997  12.4549988 113.3560012  58.3704997  13.0979988
 113.5780012  59.2384997  11.8769988 113.8700956  58.6668632  12.4649352
 116.2130012  71.7914997  16.5989988 115.3920012  71.9664997  16.1389988
 115.9600012  71.7184997  17.5199988 116.0666164  71.8055622  16.6604923
 119.1670012  72.7664997  12.8579988 118.7420012  73.5754997  12.5749988
 120.0710012  72.8514997  12.5559988 119.2310271  72.8888469  12.7783776
 123.4780012  74.1654997  15.8169988 123.6630012  73.8314997  16.6949988
 124.3240012  74.4744997  15.4949988 123.6177539  74.1616047  15.8935605
 125.8230012  75.4514997  15.0609988 126.5000012  74.8184997  14.8209988
 126.1450012  75.8524997  15.8679988 125.9591637  75.4191154  15.1372793
 130.7400012  58.0404997  14.1409988 129.9280012  58.3654997  13.7529988
 130.9730012  57.2804997  13.6079988 130.6603423  57.9822436  14.0158253
 116.5690012  76.0224997  12.9049988 115.8480012  76.4624997  12.4539988
 116.2030012  75.7714997  13.7539988 116.4209804  76.0487698  12.9579840
 119.0360012  75.6224997  11.9349988 118.1710012  75.6944997  12.3389988
 118.9810012  76.1694997  11.1509988 118.9102085  75.7062685  11.8843362
 123.7460012  75.5104997  11.1099988 123.2900012  76.0394997  10.4559988
 123.9090012  76.1134997  11.8359988 123.7055585  75.6644468  11.1185062
 126.0740012  74.3884997  12.0549988 125.1690012  74.5534997  11.7899988
 126.5030012  75.2414997  11.9899988 126.0080799  74.5264483  12.0099182
 128.6780012  75.9584997  12.3499988 128.4960012  76.8744997  12.1399988
 128.8550012  75.5484997  11.5039988 128.6770210  76.0284822  12.2067885
 115.9830012  74.6454997   9.8149988 115.9650012  74.2204997  10.6729988
 116.7880012  74.3274997   9.4069988 116.0893875  74.5443812   9.8771655
 118.1250012  73.3554997   8.4699988 117.9060012  72.4394997   8.6399988
 118.9490012  73.4954997   8.9359988 118.2064420  73.2490520   8.5562774
 120.6620012  73.8254997   9.3189988 120.8750012  72.9374997   9.0319988
 120.7260012  73.7914997  10.2729988 120.6998231  73.6993102   9.4087397
 124.1700012  59.4894997   8.4629988 123.4960012  58.8604997   8.7189988
 124.7340012  59.0054997   7.8599988 124.1539230  59.3378744   8.4165340
 129.3130012  57.5974997   8.5759988 129.9170012  58.1444997   8.0739988
 128.4430012  57.9164997   8.3359988 129.2781241  57.7155806   8.4747654
 131.0400012  58.7354997   6.9089988 131.6520012  58.2214997   6.3829988
 131.4220012  59.6134997   6.9329988 131.1754540  58.7837140   6.8401830
 116.4970012  58.1234997   6.2849988 115.7200012  57.8894997   5.7779988
 117.0270012  57.3264997   6.2939988 116.4622330  57.9836988   6.2167742
 115.3330012  57.9214997   2.0889988 115.7720012  58.5324997   1.4969988
 114.7000012  58.4594997   2.5629988 115.3074514  58.0779257   2.0720930
 121.0760012  58.0504997   6.0989988 121.9510012  58.4384997   6.0689988
 120.9400012  57.8354997   7.0209988 121.1773695  58.0745184   6.2196440
 126.6330012  58.0804997   7.7479988 126.7090012  58.1754997   6.7979988
 126.3580012  57.1724997   7.8769988 126.6062321  57.9707867   7.6355079
 127.9860012  58.1064997   3.4399988 127.2840012  58.7214997   3.2309988
 127.5420012  57.2684997   3.5709988 127.8296330  58.0775783   3.4290328
 115.2340012  73.8694997   2.9869988 114.5490012  73.8314997   2.3189988
 115.2380012  74.7824997   3.2749988 115.1408193  73.9877016   2.9345284
 117.1940012  59.8374997   0.5309988 117.6860012  59.2074997   0.0039988
 117.8180012  60.1334997   1.1949988 117.3455446  59.7913199   0.5485980
 122.2200012  60.1304997   2.9879988 122.3980012  59.4844997   3.6709988
 122.1670012  60.9644997   3.4559988 122.2371829  60.1547985   3.1445940
 124.0990012  75.0794997   1.3839988 124.9650012  75.4454997   1.2059988
 123.8520012  74.6394997   0.5699988 124.1842392  75.0701756   1.2496289
 130.8080012  74.6424997   4.0629988 130.6130012  73.8944997   3.4979988
 130.7690012  75.4004997   3.4799988 130.7760380  74.6426099   3.9068384
 116.4550012  58.6374997  15.8029988 116.0890012  57.8724997  16.2459988
 117.3680012  58.6664997  16.0899988 116.5282790  58.5367224  15.9024070
 118.4280012  57.9884997  17.3389988 119.3260012  57.7144997  17.1539988
 118.0410012  57.2454997  17.8029988 118.4986612  57.8505914  17.3763643
 117.0520012  74.7894997   0.0119988 116.7850012  75.0764997   0.8849988
 117.8240012  74.2434997   0.1639988 117.1197488  74.7550294   0.1521050
 126.8490012  57.3204997  17.5209988 126.9260012  56.8944997  18.3749988
 127.7430012  57.3344997  17.1779988 126.9803428  57.2640879  17.5915310
 130.0250012  73.3934997  16.2129988 129.2430012  73.2074997  15.6939988
 129.9530012  74.3224997  16.4309988 129.9081777  73.4936492  16.1714048
 144.4310012  67.2794997   6.2439988 144.5200012  68.2234997   6.1119988
 143.7930012  67.0044997   5.5859988 144.3569081  67.3714830   6.1369614
 143.3640012  66.5344997   9.6629988 143.3260012  65.8884997  10.3679988
 143.0420012  66.0684997   8.8919988 143.3152333  66.3829408   9.6552978
 135.7330012  66.1494997  11.2559988 135.7740012  65.5234997  11.9789988
 136.4360012  66.7734997  11.4379988 135.8336363  66.1481196  11.3796044
 136.6560012  70.5994997   9.7909988 136.2870012  69.7974997   9.4209988
 137.5970012  70.4304997   9.8369988 136.7327289  70.4670153   9.7466316
 133.2660012  64.2594997   5.1839988 132.8190012  65.1054997   5.1649988
 132.7050012  63.6794997   4.6679988 133.1289900  64.2969916   5.1116801
 133.9770012  66.4214997   7.3099988 134.1900012  65.6514997   7.8369988
 134.7150012  66.5104997   6.7059988 134.1058496  66.3281394   7.3005300
 144.1820012  74.5784997   8.1769988 144.8020012  73.9014997   7.9029988
 143.9740012  74.3604997   9.0849988 144.2386904  74.4563870   8.2623365
 141.7540012  68.9674997  10.0689988 142.0580012  68.2814997   9.4739988
 142.4750012  69.0854997  10.6869988 141.8930671  68.8896305  10.0711816
 144.8950012  63.3614997  10.3969988 145.0370012  62.4154997  10.4169988
 144.7880012  63.5684997   9.4679988 144.8999864  63.2599534  10.2742339
 138.0490012  61.4624997   7.6689988 138.0930012  62.3224997   7.2509988
 137.5920012  60.9104997   7.0349988 137.9932185  61.5055799   7.5260299
 134.6700012  63.8594997   8.4309988 135.3230012  63.3094997   8.8629988
 134.6940012  63.5854997   7.5139988 134.7626683  63.7471466   8.3662123
 139.8260012  65.4094997   7.6459988 140.4420012  64.8834997   8.1559988
 139.2400012  64.7694997   7.2429988 139.8310810  65.2509208   7.6613173
 136.8600012  60.3804997  11.7429988 136.6410012  60.9104997  10.9769988
 136.1920012  60.6074997  12.3899988 136.7397600  60.4836906  11.7256379
 144.2290012  69.8804997   5.2869988 143.9330012  69.5584997   4.4359988
 143.9040012  70.7804997   5.3279988 144.1446371  69.9580215   5.1761801
 139.4290012  68.0564997  12.0299988 138.6890012  68.6544997  12.1339988
 140.1430012  68.6104997  11.7149988 139.4242237  68.2132831  12.0016465
 136.4530012  62.2724997   9.6949988 137.0670012  62.9054997  10.0689988
 136.9650012  61.8004997   9.0389988 136.6062296  62.2952370   9.6574252
 137.8360012  70.0204997  12.8179988 137.8310012  70.9004997  12.4399988
 136.9830012  69.9374997  13.2429988 137.7199464  70.1296117  12.8237907
 133.9570012  69.6914997   3.5999988 133.6850012  69.9204997   2.7109988
 134.0030012  70.5294997   4.0599988 133.9260094  69.8361213   3.5405697
 140.8860012  57.6864997   9.1959988 140.7690012  56.7374997   9.1409988
 140.0310012  58.0184997   9.4689988 140.7543733  57.6015409   9.2253897
 143.1530012  66.5234997   3.6959988 142.4410012  67.0584997   3.3439988
 143.8440012  66.5794997   3.0359988 143.1490132  66.6042543   3.5586289
 143.2060012  64.9814997   0.7349988 143.9070012  65.0034997   1.3859988
 143.5090012  64.3534997   0.0789988 143.3427830  64.8996566   0.7353711
 138.2040012  67.3634997   6.5299988 137.8730012  66.9934997   5.7119988
 138.7920012  66.6934997   6.8769988 138.2381873  67.2221156   6.4648102
 139.5700012  70.7914997   9.2119988 139.4760012  70.2134997   8.4549988
 140.3000012  70.4204997   9.7079988 139.6557981  70.6622390   9.1754165
 138.5700012  66.1324997  10.1639988 139.1360012  66.2534997   9.4009988
 138.8890012  66.7694997  10.8029988 138.6905786  66.2351884  10.1460040
 144.8790012  71.6354997  10.8979988 144.6390012  72.2974997  11.5459988
 144.6810012  70.8014997  11.3229988 144.8193808  71.6133134  11.0441524
 139.4500012  70.5314997  14.8809988 139.1390012  71.3134997  15.3359988
 138.8000012  70.3784997  14.1949988 139.3195558  70.6179105  14.8505871
 136.3700012  66.7294997  14.1099988 136.4410012  67.3804997  14.8079988
 135.4800012  66.8324997  13.7749988 136.2593117  66.8325936  14.1602700
 143.1560012  72.6324997   5.7679988 143.6300012  72.9274997   6.5459988
 142.5930012  73.3704997   5.5349988 143.1447653  72.7726932   5.8430136
 137.6900012  72.6034997  15.6439988 137.6970012  72.4674997  14.6969988
 136.7740012  72.4854997  15.8959988 137.5671714  72.5689430  15.5484666
 137.1940012  66.4334997   4.1199988 136.9020012  67.2014997   3.6289988
 136.5200012  65.7734997   3.9569988 137.0629081  66.4494406   4.0307340
 133.2870012  68.7964997  12.9349988 132.7860012  68.7684997  12.1199988
 133.2920012  67.8904997  13.2439988 133.2191526  68.6702278  12.8652872
 133.0370012  71.5764997   9.8189988 133.9830012  71.4324997   9.7999988
 132.9250012  72.3604997  10.3559988 133.1512727  71.6628046   9.8890072
 142.2140012  71.8164997  14.3769988 142.3010012  72.6424997  14.8519988
 141.3500012  71.4864997  14.6259988 142.1091964  71.8849878  14.4756549
 142.6280012  75.5884997   4.1829988 142.5530012  75.4674997   3.2369988
 142.6610012  76.5384997   4.3019988 142.6221848  75.7002500   4.0694834
 136.2810012  74.3774997   5.9639988 136.4340012  74.0294997   6.8429988
 135.4310012  74.0214997   5.7089988 136.1868962  74.2816650   6.0498340
 135.5360012  70.1194997  13.9779988 135.7520012  69.7584997  14.8369988
 134.6810012  69.7454997  13.7679988 135.4499292  70.0194111  14.0673386
 138.1550012  58.5894997   9.9729988 137.2930012  58.5024997   9.5659988
 138.1320012  59.4454997  10.4009988 138.0340330  58.6932765   9.9751863
 142.8180012  58.3114997  13.3479988 143.2380012  57.8964997  14.1009988
 141.8850012  58.1334997  13.4649988 142.7493644  58.2305900  13.4669539
 142.4790012  60.8044997   0.6329988 142.2260012  60.8234997   1.5559988
 142.2230012  59.9324997   0.3319988 142.4097790  60.6892437   0.7186263
 138.2460012  63.5554997  11.0679988 137.6040012  63.5144997  11.7769988
 138.2830012  64.4814997  10.8309988 138.1631324  63.6751559  11.1329824
 138.2430012  63.7764997   5.9799988 137.3500012  63.4354997   5.9219988
 138.6930012  63.3994997   5.2249988 138.1817305  63.6788484   5.8699177
 143.7780012  64.1924997   4.7969988 143.3690012  65.0074997   4.5059988
 144.4990012  64.0524997   4.1829988 143.8194537  64.2852018   4.6741342
 142.8800012  64.3674997  16.2849988 142.3180012  63.6634997  16.6059988
 143.7070012  64.2474997  16.7529988 142.9147095  64.2547883  16.3922330
 144.7830012  63.6384997   7.6109988 144.5880012  64.2434997   6.8959988
 144.9640012  62.8044997   7.1769988 144.7807614  63.6086300   7.4544405
 135.9960012  63.8754997  12.9349988 135.9580012  64.2754997  13.8039988
 135.5050012  63.0584997  13.0259988 135.9244684  63.8198069  13.0661059
 139.3620012  61.2494997  -0.2660012 138.9310012  60.8044997   0.4639988
 138.6440012  61.6214997  -0.7780012 139.2059438  61.2388940  -0.2353201
 132.6040012  60.9914997   6.7859988 133.2350012  60.9624997   7.5049988
 133.0530012  60.5664997   6.0559988 132.7510774  60.9300492   6.7856553
 133.8780012  61.7374997   2.2099988 134.3520012  62.3284997   1.6249988
 133.1610012  62.2684997   2.5569988 133.8459341  61.8900867   2.1768836
 144.0470012  65.2764997  12.2829988 144.3700012  64.6454997  11.6399988
 143.6070012  64.7414997  12.9429988 144.0316895  65.1178440  12.2842850
 140.8240012  61.2034997   7.0669988 139.9130012  61.2604997   7.3549988
 141.3300012  61.1434997   7.8769988 140.7675413  61.2031985   7.2160622
 135.6530012  62.8324997   5.8929988 134.7630012  62.9324997   5.5529988
 135.9490012  61.9904997   5.5469988 135.5712823  62.7323545   5.7997213
 139.3060012  62.8324997   3.5499988 140.2370012  62.9614997   3.7279988
 139.0910012  63.5024997   2.8999988 139.4044247  62.9406565   3.4865747
 137.9800012  64.0274997   1.1169988 137.4370012  63.6474997   0.4249988
 138.8130012  64.2214997   0.6879988 138.0184399  64.0018124   0.9644526
 136.1150012  68.5844997  16.2159988 136.8470012  68.8384997  16.7769988
 135.3350012  68.7884997  16.7309988 136.1098232  68.6469177  16.3625760
 142.1440012  63.9914997   8.9539988 142.7090012  63.4444997   8.4069988
 141.9970012  63.4694997   9.7419988 142.2012918  63.8462024   8.9858454
 137.1460012  60.1274997   5.3719988 136.8290012  59.2254997   5.3369988
 137.9280012  60.1294997   4.8189988 137.2082284  60.0041628   5.2924783
 140.7710012  62.3794997  11.3679988 139.9350012  62.8334997  11.4779988
 141.2950012  62.6554997  12.1199988 140.7274414  62.4789376  11.4847136
 141.3150012  68.5924997   3.0519988 140.5700012  68.0854997   2.7299988
 141.1810012  68.6414997   3.9989988 141.1948776  68.5296940   3.1358647
 142.8340012  68.7764997  14.2889988 142.4890012  68.3954997  15.0959988
 142.6340012  69.7104997  14.3609988 142.7598061  68.8505228  14.4090961
 136.4400012  67.8874997   8.8219988 137.1850012  67.8854997   8.2209988
 136.5180012  67.0644997   9.3039988 136.5525518  67.7759315   8.8048929
 143.4410012  70.0514997   2.0779988 143.1450012  70.8774997   2.4589988
 142.7380012  69.4314997   2.2739988 143.3054914  70.0808199   2.1566443
 133.4480012  66.3484997  14.1369988 133.6710012  65.9304997  14.9689988
 132.8460012  65.7354997  13.7139988 133.3971759  66.2084668  14.1937022
 140.4640012  65.8654997  16.3499988 140.1680012  65.6994997  15.4549988
 141.3960012  65.6454997  16.3389988 140.5494166  65.8130640  16.2260536
 138.8150012  71.4054997   6.2259988 139.3420012  72.1784997   6.0259988
 137.9350012  71.6304997   5.9249988 138.7681773  71.5418005   6.1579010
 134.5700012  66.2674997   0.8129988 135.1860012  66.8944997   1.1929988
 133.7080012  66.5834997   1.0849988 134.5377698  66.3959430   0.9017183
 140.2420012  69.0684997   5.8029988 140.0010012  69.9934997   5.8439988
 139.5010012  68.6094997   6.1989988 140.1088409  69.1331421   5.8621377
 140.7570012  73.2174997  12.1179988 141.1190012  74.0724997  11.8839988
 141.2880012  72.9254997  12.8579988 140.8784473  73.2951060  12.1860855
 138.9250012  74.0904997   5.3479988 137.9750012  74.1954997   5.3989988
 139.2770012  74.9104997   5.6929988 138.8424203  74.2158314   5.4016650
 144.3010012  69.3164997  11.8179988 143.8750012  69.0894997  12.6449988
 144.8810012  68.5784997  11.6359988 144.3211868  69.1855299  11.9065830
 135.0820012  61.1014997  13.6949988 134.1890012  61.4404997  13.6269988
 134.9830012  60.2464997  14.1129988 134.9464164  61.0322588  13.7422235
 134.7330012  72.9064997  12.1299988 134.9500012  71.9744997  12.0989988
 134.9790012  73.1804997  13.0129988 134.7959549  72.8160636  12.2451763
 140.5950012  71.3574997  -0.6610012 140.8340012  70.6094997  -1.2080012
 140.3260012  70.9694997   0.1719988 140.5913675  71.2026638  -0.6233135
 139.5320012  70.9274997   1.7959988 139.6780012  70.4074997   2.5859988
 139.5290012  71.8344997   2.1019988 139.5515989  70.9788853   1.9456088
 135.9850012  68.1804997   2.3059988 135.2990012  68.5324997   2.8729988
 136.5070012  68.9434997   2.0589988 135.9616852  68.3318578   2.3502118
 143.8160012  60.8424997  12.5849988 144.5150012  60.9164997  13.2349988
 143.4350012  59.9784997  12.7389988 143.8601767  60.7357624  12.6948322
 144.6010012  60.4944997   3.6819988 144.8210012  60.9664997   2.8789988
 145.1590012  60.8894997   4.3519988 144.7064968  60.6124285   3.6627331
 142.2690012  72.6254997   2.5449988 141.4530012  73.1224997   2.5969988
 142.7990012  73.1004997   1.9049988 142.2289161  72.7577722   2.4655956
 141.8010012  62.2224997   4.5169988 142.6130012  62.7274997   4.5629988
 141.5560012  62.0774997   5.4309988 141.8790520  62.2720375   4.6468517
 142.3360012  63.2084997  13.7019988 142.4550012  63.7824997  14.4589988
 142.9920012  62.5204997  13.8159988 142.4409757  63.1941079  13.8210825
 142.6840012  59.3034997   5.4549988 142.3380012  59.9214997   6.0999988
 143.3430012  59.8044997   4.9739988 142.7257826  59.4555802   5.4780971
 139.6080012  73.6694997   2.5269988 139.7680012  74.4684997   2.0259988
 139.4100012  73.9754997   3.4119988 139.6031649  73.8204469   2.5779815
 138.3420012  60.3664997   2.1419988 138.2590012  61.2554997   2.4889988
 139.2320012  60.1014997   2.3739988 138.4509469  60.4521430   2.2207626
 136.6010012  70.7944997   1.2029988 137.1930012  71.4934997   1.4789988
 137.0600012  70.3614997   0.4829988 136.7441142  70.8317049   1.1434830
 134.9170012  63.4584997   0.3189988 134.8720012  64.3974997   0.4969988
 134.0290012  63.2224997   0.0489988 134.7908574  63.5551892   0.3068912
 135.7250012  58.2404997   8.9919988 135.4960012  58.2994997   8.0639988
 135.2820012  57.4484997   9.2979988 135.6338530  58.1415753   8.9064786
 134.6550012  72.1804997   5.1519988 133.8230012  72.6534997   5.1799988
 135.2010012  72.6904997   4.5539988 134.6149739  72.3141871   5.0749716
 133.9430012  74.7934997  16.4819988 134.4840012  74.5764997  17.2419988
 133.4620012  73.9874997  16.2929988 133.9519345  74.6549514  16.5603076
 138.5410012  73.7124997  18.1029988 139.3080012  73.2534997  18.4439988
 138.5190012  73.4864997  17.1729988 138.6431434  73.6190409  18.0240043
 142.6330012  73.2204997  -0.5220012 141.9890012  72.5894997  -0.2010012
 143.3950012  72.6894997  -0.7540012 142.6478077  73.0622920  -0.5093989
 133.8500012  68.6034997  17.4369988 133.9940012  67.7014997  17.1499988
 133.0780012  68.8894997  16.9489988 133.7653322  68.5188261  17.3317881
 138.1920012  68.9474997  -0.4310012 138.2560012  68.1534997   0.0999988
 138.8450012  68.8284997  -1.1210012 138.2890241  68.8227148  -0.4515683
 140.5060012  68.5734997  16.8689988 140.1770012  68.8444997  16.0119988
 140.6580012  67.6324997  16.7819988 140.4814809  68.4833862  16.7398244
 143.5440012  69.9944997  -0.6950012 143.2750012  70.1744997   0.2059988
 143.3380012  69.0684997  -0.8260012 143.4793825  69.8940152  -0.5894786
 134.6830012  65.8034997  16.8569988 135.0910012  64.9464997  16.7359988
 134.4230012  65.8184997  17.7779988 134.7037568  65.6880807  16.9649588
 139.3410012  66.9194997   1.8749988 138.8810012  66.4354997   2.5609988
 139.5960012  66.2514997   1.2389988 139.3124902  66.7628731   1.8829334
 138.6300012  64.8124997  14.2309988 138.0120012  65.4874997  14.5109988
 138.9740012  65.1334997  13.3979988 138.5919615  64.9482721  14.1566581
 140.4120012  65.1624997   0.1369988 140.2320012  65.0084997  -0.7900012
 141.3620012  65.2704997   0.1819988 140.5157776  65.1560175   0.0161843
 143.6500012  67.2844997  17.5079988 144.6030012  67.3674997  17.4809988
 143.4890012  66.5724997  18.1279988 143.7586426  67.1996746  17.5880578
 138.9690012  62.1674997  15.3129988 139.1190012  61.4384997  14.7109988
 138.9720012  62.9444997  14.7539988 138.9899302  62.1727851  15.1550692
 139.3820012  60.5374997  12.8059988 139.9180012  60.9884997  12.1539988
 138.5300012  60.4294997  12.3829988 139.3402178  60.5846390  12.6595756
 140.9640012  65.9764997  13.0449988 141.7140012  65.8204997  12.4719988
 140.6250012  66.8284997  12.7699988 141.0208921  66.0702968  12.9293561
 137.4480012  63.3654997  17.2249988 136.6810012  62.8334997  17.0149988
 138.1270012  63.0554997  16.6249988 137.4347022  63.2507506  17.1151648
 140.1880012  57.9934997  13.2369988 140.0890012  58.9404997  13.1319988
 139.4450012  57.6214997  12.7619988 140.0740564  58.0725902  13.1584560
 141.4520012  62.3154997  16.8009988 141.2160012  62.0954997  17.7029988
 140.6680012  62.1084997  16.2909988 141.3138628  62.2574760  16.8553932
 144.1670012  61.4424997  15.8769988 143.2200012  61.4744997  16.0089988
 144.4800012  60.8174997  16.5299988 144.0795475  61.3623207  15.9834455
 135.6280012  61.2864997  16.9289988 135.8400012  60.5794997  16.3189988
 135.5170012  60.8484997  17.7729988 135.6419721  61.1307084  16.9596843
 140.4090012  57.2874997  15.9089988 141.1210012  56.6474997  15.8949988
 140.3080012  57.5544997  14.9949988 140.4927939  57.2359938  15.7835650
 140.7630012  58.9704997  17.9619988 140.6310012  58.4944997  17.1419988
 140.1640012  59.7144997  17.9069988 140.6639071  59.0059618  17.8422886
 140.3090012  75.8534997   1.1389988 141.2420012  76.0114997   1.2819988
 140.0450012  76.5284997   0.5139988 140.4009510  75.9663611   1.0740741
 133.8780012  70.4894997   0.6209988 134.7920012  70.5684997   0.8949988
 133.8850012  69.8024997  -0.0450012 134.0041131  70.4073961   0.5684393
 132.5270012  75.8824997   5.6989988 131.8800012  75.4204997   5.1659988
 132.8810012  75.2104997   6.2809988 132.4863849  75.7284723   5.7047959
 133.3970012  73.9634997   7.5029988 133.0620012  73.0834997   7.6749988
 133.6190012  74.3084997   8.3679988 133.3811783  73.8897500   7.6434208
 133.4770012  67.0384997   9.9549988 133.6610012  66.9564997   9.0189988
 134.3260012  66.9144997  10.3789988 133.6170139  67.0105003   9.8841455
 133.0740012  62.3094997  16.0959988 133.9940012  62.1874997  16.3319988
 132.6250012  61.5594997  16.4849988 133.1391580  62.1913727  16.1809006
 134.2950012  60.6214997   8.9869988 134.7410012  59.8294997   9.2889988
 134.7620012  61.3374997   9.4179988 134.4190172  60.6100624   9.0864820
 132.5990012  63.6204997  10.0559988 133.0910012  63.3994997   9.2649988
 132.9620012  64.4614997  10.3369988 132.7153126  63.7038357   9.9857531
 132.9130012  59.8784997   4.1099988 131.9880012  60.0874997   3.9809988
 133.3670012  60.3624997   3.4209988 132.8477368  59.9725993   3.9991226
 132.8770012  58.6164997  12.4549988 132.2120012  58.3704997  13.0979988
 132.4340012  59.2384997  11.8769988 132.7260956  58.6668632  12.4649352
 135.0690012  71.7914997  16.5989988 134.2480012  71.9664997  16.1389988
 134.8160012  71.7184997  17.5199988 134.9226164  71.8055622  16.6604923
 138.0230012  72.7664997  12.8579988 137.5980012  73.5754997  12.5749988
 138.9270012  72.8514997  12.5559988 138.0870271  72.8888469  12.7783776
 142.3340012  74.1654997  15.8169988 142.5190012  73.8314997  16.6949988
 143.1800012  74.4744997  15.4949988 142.4737539  74.1616047  15.8935605
 144.6790012  75.4514997  15.0609988 145.3560012  74.8184997  14.8209988
 145.0010012  75.8524997  15.8679988 144.8151637  75.4191154  15.1372793
 135.4250012  76.0224997  12.9049988 134.7040012  76.4624997  12.4539988
 135.0590012  75.7714997  13.7539988 135.2769804  76.0487698  12.9579840
 137.8920012  75.6224997  11.9349988 137.0270012  75.6944997  12.3389988
 137.8370012  76.1694997  11.1509988 137.7662085  75.7062685  11.8843362
 142.6020012  75.5104997  11.1099988 142.1460012  76.0394997  10.4559988
 142.7650012  76.1134997  11.8359988 142.5615585  75.6644468  11.1185062
 134.8390012  74.6454997   9.8149988 134.8210012  74.2204997  10.6729988
 135.6440012  74.3274997   9.4069988 134.9453875  74.5443812   9.8771655
 136.9810012  73.3554997   8.4699988 136.7620012  72.4394997   8.6399988
 137.8050012  73.4954997   8.9359988 137.0624420  73.2490520   8.5562774
 139.5180012  73.8254997   9.3189988 139.7310012  72.9374997   9.0319988
 139.5820012  73.7914997  10.2729988 139.5558231  73.6993102   9.4087397
 143.0260012  59.4894997   8.4629988 142.3520012  58.8604997   8.7189988
 143.5900012  59.0054997   7.8599988 143.0099230  59.3378744   8.4165340
 135.3530012  58.1234997   6.2849988 134.5760012  57.8894997   5.7779988
 135.8830012  57.3264997   6.2939988 135.3182330  57.9836988   6.2167742
 134.1890012  57.9214997   2.0889988 134.6280012  58.5324997   1.4969988
 133.5560012  58.4594997   2.5629988 134.1634514  58.0779257   2.0720930
 139.9320012  58.0504997   6.0989988 140.8070012  58.4384997   6.0689988
 139.7960012  57.8354997   7.0209988 140.0333695  58.0745184   6.2196440
 134.0900012  73.8694997   2.9869988 133.4050012  73.8314997   2.3189988
 134.0940012  74.7824997   3.2749988 133.9968193  73.9877016   2.9345284
 136.0500012  59.8374997   0.5309988 136.5420012  59.2074997   0.0039988
 136.6740012  60.1334997   1.1949988 136.2015446  59.7913199   0.5485980
 141.0760012  60.1304997   2.9879988 141.2540012  59.4844997   3.6709988
 141.0230012  60.9644997   3.4559988 141.0931829  60.1547985   3.1445940
 142.9550012  75.0794997   1.3839988 143.8210012  75.4454997   1.2059988
 142.7080012  74.6394997   0.5699988 143.0402392  75.0701756   1.2496289
 135.3110012  58.6374997  15.8029988 134.9450012  57.8724997  16.2459988
 136.2240012  58.6664997  16.0899988 135.3842790  58.5367224  15.9024070
 137.2840012  57.9884997  17.3389988 138.1820012  57.7144997  17.1539988
 136.8970012  57.2454997  17.8029988 137.3546612  57.8505914  17.3763643
 135.9080012  74.7894997   0.0119988 135.6410012  75.0764997   0.8849988
 136.6800012  74.2434997   0.1639988 135.9757488  74.7550294   0.1521050
  12.4390012  86.1354997   6.2439988  12.5280012  87.0794997   6.1119988
  11.8010012  85.8604997   5.5859988  12.3649081  86.2274830   6.1369614
  11.3720012  85.3904997   9.6629988  11.3340012  84.7444997  10.3679988
  11.0500012  84.9244997   8.8919988  11.3232333  85.2389408   9.6552978
   3.7410012  85.0054997  11.2559988   3.7820012  84.3794997  11.9789988
   4.4440012  85.6294997  11.4379988   3.8416363  85.0041196  11.3796044
  15.0780012  88.3294997   7.9639988  14.6380012  87.6094997   8.4149988
  15.0650012  89.0504997   8.5939988  15.0160226  88.3283731   8.1108494
   4.6640012  89.4554997   9.7909988   4.2950012  88.6534997   9.4209988
   5.6050012  89.2864997   9.8369988   4.7407289  89.3230153   9.7466316
   1.2740012  83.1154997   5.1839988   0.8270012  83.9614997   5.1649988
   0.7130012  82.5354997   4.6679988   1.1369900  83.1529916   5.1116801
   1.9850012  85.2774997   7.3099988   2.1980012  84.5074997   7.8369988
   2.7230012  85.3664997   6.7059988   2.1138496  85.1841394   7.3005300
  12.1900012  93.4344997   8.1769988  12.8100012  92.7574997   7.9029988
  11.9820012  93.2164997   9.0849988  12.2466904  93.3123870   8.2623365
   9.7620012  87.8234997  10.0689988  10.0660012  87.1374997   9.4739988
  10.4830012  87.9414997  10.6869988   9.9010671  87.7456305  10.0711816
  18.4250012  79.4244997  10.9299988  18.4740012  80.0344997  11.6659988
  18.8500012  79.8854997  10.2069988  18.4891824  79.5703741  10.9330205
  12.9030012  82.2174997  10.3969988  13.0450012  81.2714997  10.4169988
  12.7960012  82.4244997   9.4679988  12.9079864  82.1159534  10.2742339
   6.0570012  80.3184997   7.6689988   6.1010012  81.1784997   7.2509988
   5.6000012  79.7664997   7.0349988   6.0012185  80.3615799   7.5260299
  13.7800012  80.4494997   6.0699988  14.4260012  80.1204997   6.6949988
  14.2900012  80.9674997   5.4469988  13.9374264  80.4744611   6.0713862
   2.6780012  82.7154997   8.4309988   3.3310012  82.1654997   8.8629988
   2.7020012  82.4414997   7.5139988   2.7706683  82.6031466   8.3662123
   7.8340012  84.2654997   7.6459988   8.4500012  83.7394997   8.1559988
   7.2480012  83.6254997   7.2429988   7.8390810  84.1069208   7.6613173
  18.8160012  80.9024997  13.1659988  18.1280012  81.5604997  13.0699988
  18.8320012  80.7054997  14.1019988  18.7238525  80.9660462  13.2794808
   4.8680012  79.2364997  11.7429988   4.6490012  79.7664997  10.9769988
   4.2000012  79.4634997  12.3899988   4.7477600  79.3396906  11.7256379
  12.2370012  88.7364997   5.2869988  11.9410012  88.4144997   4.4359988
  11.9120012  89.6364997   5.3279988  12.1526371  88.8140215   5.1761801
   7.4370012  86.9124997  12.0299988   6.6970012  87.5104997  12.1339988
   8.1510012  87.4664997  11.7149988   7.4322237  87.0692831  12.0016465
  15.5440012  79.7404997   8.0499988  15.3280012  78.9744997   8.5829988
  16.1990012  80.2124997   8.5629988  15.6030632  79.6995889   8.1922861
   4.4610012  81.1284997   9.6949988   5.0750012  81.7614997  10.0689988
   4.9730012  80.6564997   9.0389988   4.6142296  81.1512370   9.6574252
   5.8440012  88.8764997  12.8179988   5.8390012  89.7564997  12.4399988
   4.9910012  88.7934997  13.2429988   5.7279464  88.9856117  12.8237907
   1.9650012  88.5474997   3.5999988   1.6930012  88.7764997   2.7109988
   2.0110012  89.3854997   4.0599988   1.9340094  88.6921213   3.5405697
  15.5900012  90.1694997  10.3119988  14.6490012  90.2274997  10.4739988
  15.8670012  91.0754997  10.1749988  15.4984679  90.2999443  10.3156815
  15.8910012  78.4554997  11.7299988  15.1550012  79.0664997  11.6919988
  16.5740012  78.8704997  11.2029988  15.8826541  78.5951374  11.6535832
   8.8940012  76.5424997   9.1959988   8.7770012  75.5934997   9.1409988
   8.0390012  76.8744997   9.4689988   8.7623733  76.4575409   9.2253897
  13.8420012  91.9504997   6.9379988  14.2680012  91.2434997   6.4529988
  14.1590012  92.7514997   6.5209988  13.9431019  91.9620994   6.8153130
  15.0020012  89.8514997   5.4459988  14.7440012  89.1614997   4.8349988
  15.0730012  89.4084997   6.2919988  14.9762856  89.6972124   5.4766885
  16.6880012  88.4174997  13.9239988  16.8280012  87.8264997  13.1839988
  16.8550012  89.2904997  13.5669988  16.7296778  88.4546426  13.7746965
  11.1610012  85.3794997   3.6959988  10.4490012  85.9144997   3.3439988
  11.8520012  85.4354997   3.0359988  11.1570132  85.4602543   3.5586289
  11.2140012  83.8374997   0.7349988  11.9150012  83.8594997   1.3859988
  11.5170012  83.2094997   0.0789988  11.3507830  83.7556566   0.7353711
  18.5300012  84.7574997  11.9899988  17.8770012  85.4524997  12.0789988
  18.9950012  84.9674997  11.1799988  18.5035390  84.8809425  11.8926883
  14.5660012  85.5894997   4.6479988  13.8340012  85.8174997   5.2209988
  15.0140012  84.8754997   5.1029988  14.5263095  85.5242571   4.7879119
  14.4640012  83.7634997  13.7149988  14.5440012  84.5264997  14.2869988
  13.8620012  84.0424997  13.0249988  14.3935756  83.9057134  13.7000589
   6.2120012  86.2194997   6.5299988   5.8810012  85.8494997   5.7119988
   6.8000012  85.5494997   6.8769988   6.2461873  86.0781156   6.4648102
   7.5780012  89.6474997   9.2119988   7.4840012  89.0694997   8.4549988
   8.3080012  89.2764997   9.7079988   7.6637981  89.5182390   9.1754165
   6.5780012  84.9884997  10.1639988   7.1440012  85.1094997   9.4009988
   6.8970012  85.6254997  10.8029988   6.6985786  85.0911884  10.1460040
  12.8870012  90.4914997  10.8979988  12.6470012  91.1534997  11.5459988
  12.6890012  89.6574997  11.3229988  12.8273808  90.4693134  11.0441524
   7.4580012  89.3874997  14.8809988   7.1470012  90.1694997  15.3359988
   6.8080012  89.2344997  14.1949988   7.3275558  89.4739105  14.8505871
  13.4370012  84.7514997   2.3329988  14.0170012  84.9014997   3.0799988
  13.8510012  85.2224997   1.6099988  13.5722830  84.8356841   2.3374134
   4.3780012  85.5854997  14.1099988   4.4490012  86.2364997  14.8079988
   3.4880012  85.6884997  13.7749988   4.2673117  85.6885936  14.1602700
  11.1640012  91.4884997   5.7679988  11.6380012  91.7834997   6.5459988
  10.6010012  92.2264997   5.5349988  11.1527653  91.6286932   5.8430136
   5.6980012  91.4594997  15.6439988   5.7050012  91.3234997  14.6969988
   4.7820012  91.3414997  15.8959988   5.5751714  91.4249430  15.5484666
  17.1360012  76.5014997   2.1459988  16.2360012  76.6404997   2.4409988
  17.3880012  77.3324997   1.7439988  17.0468702  76.6329074   2.1320205
   5.2020012  85.2894997   4.1199988   4.9100012  86.0574997   3.6289988
   4.5280012  84.6294997   3.9569988   5.0709081  85.3054406   4.0307340
  18.3250012  90.8674997   0.5219988  18.3990012  91.8064997   0.6929988
  19.2310012  90.5624997   0.4659988  18.4575100  90.9546722   0.5378119
   1.2950012  87.6524997  12.9349988   0.7940012  87.6244997  12.1199988
   1.3000012  86.7464997  13.2439988   1.2271526  87.5262278  12.8652872
   1.0450012  90.4324997   9.8189988   1.9910012  90.2884997   9.7999988
   0.9330012  91.2164997  10.3559988   1.1592727  90.5188046   9.8890072
  19.2430012  91.0984997  15.5009988  19.1940012  90.1434997  15.4639988
  18.4160012  91.3664997  15.9019988  19.1244940  91.0038998  15.5501375
  10.2220012  90.6724997  14.3769988  10.3090012  91.4984997  14.8519988
   9.3580012  90.3424997  14.6259988  10.1171964  90.7409878  14.4756549
  10.6360012  94.4444997   4.1829988  10.5610012  94.3234997   3.2369988
  10.6690012  95.3944997   4.3019988  10.6301848  94.5562500   4.0694834
   4.2890012  93.2334997   5.9639988   4.4420012  92.8854997   6.8429988
   3.4390012  92.8774997   5.7089988   4.1948962  93.1376650   6.0498340
  13.7380012  93.5984997   1.1849988  14.1130012  92.8544997   0.7149988
  13.7420012  93.3284997   2.1039988  13.7898915  93.4601486   1.2447824
  13.4070012  93.5244997   3.9349988  12.4710012  93.6244997   4.1129988
  13.6870012  92.8154997   4.5129988  13.3168255  93.4422711   4.0375391
  16.3950012  82.5914997  15.9809988  15.9880012  83.0724997  15.2599988
  16.4360012  81.6864997  15.6729988  16.3448437  82.5349374  15.8406683
   3.5440012  88.9754997  13.9779988   3.7600012  88.6144997  14.8369988
   2.6890012  88.6014997  13.7679988   3.4579292  88.8754111  14.0673386
   6.1630012  77.4454997   9.9729988   5.3010012  77.3584997   9.5659988
   6.1400012  78.3014997  10.4009988   6.0420330  77.5492765   9.9751863
  10.8260012  77.1674997  13.3479988  11.2460012  76.7524997  14.1009988
   9.8930012  76.9894997  13.4649988  10.7573644  77.0865900  13.4669539
  14.1520012  80.9234997  14.2009988  13.6380012  80.7974997  14.9989988
  13.9970012  81.8354997  13.9569988  14.0606852  81.0296132  14.2772158
  14.9150012  85.7844997  -0.0370012  14.9570012  85.5614997  -0.9670012
  15.7640012  86.1834997   0.1529988  15.0355396  85.8079155  -0.1386373
  10.4870012  79.6604997   0.6329988  10.2340012  79.6794997   1.5559988
  10.2310012  78.7884997   0.3319988  10.4177790  79.5452437   0.7186263
   6.2540012  82.4114997  11.0679988   5.6120012  82.3704997  11.7769988
   6.2910012  83.3374997  10.8309988   6.1711324  82.5311559  11.1329824
   6.2510012  82.6324997   5.9799988   5.3580012  82.2914997   5.9219988
   6.7010012  82.2554997   5.2249988   6.1897305  82.5348484   5.8699177
  11.7860012  83.0484997   4.7969988  11.3770012  83.8634997   4.5059988
  12.5070012  82.9084997   4.1829988  11.8274537  83.1412018   4.6741342
  10.8880012  83.2234997  16.2849988  10.3260012  82.5194997  16.6059988
  11.7150012  83.1034997  16.7529988  10.9227095  83.1107883  16.3922330
  12.7910012  82.4944997   7.6109988  12.5960012  83.0994997   6.8959988
  12.9720012  81.6604997   7.1769988  12.7887614  82.4646300   7.4544405
   4.0040012  82.7314997  12.9349988   3.9660012  83.1314997  13.8039988
   3.5130012  81.9144997  13.0259988   3.9324684  82.6758069  13.0661059
   7.3700012  80.1054997  -0.2660012   6.9390012  79.6604997   0.4639988
   6.6520012  80.4774997  -0.7780012   7.2139438  80.0948940  -0.2353201
   0.6120012  79.8474997   6.7859988   1.2430012  79.8184997   7.5049988
   1.0610012  79.4224997   6.0559988   0.7590774  79.7860492   6.7856553
   1.8860012  80.5934997   2.2099988   2.3600012  81.1844997   1.6249988
   1.1690012  81.1244997   2.5569988   1.8539341  80.7460867   2.1768836
  12.0550012  84.1324997  12.2829988  12.3780012  83.5014997  11.6399988
  11.6150012  83.5974997  12.9429988  12.0396895  83.9738441  12.2842850
   8.8320012  80.0594997   7.0669988   7.9210012  80.1164997   7.3549988
   9.3380012  79.9994997   7.8769988   8.7755413  80.0591985   7.2160622
   3.6610012  81.6884997   5.8929988   2.7710012  81.7884997   5.5529988
   3.9570012  80.8464997   5.5469988   3.5792823  81.5883546   5.7997213
   7.3140012  81.6884997   3.5499988   8.2450012  81.8174997   3.7279988
   7.0990012  82.3584997   2.8999988   7.4124247  81.7966565   3.4865747
  13.2370012  79.2944997  10.3309988  12.5610012  79.4254997  10.9949988
  12.7520012  79.1394997   9.5209988  13.0787145  79.2914905  10.3124517
   5.9880012  82.8834997   1.1169988   5.4450012  82.5034997   0.4249988
   6.8210012  83.0774997   0.6879988   6.0264399  82.8578124   0.9644526
  16.5250012  94.9664997  16.6079988  16.7250012  95.3904997  15.7729988
  17.1800012  95.3094997  17.2149988  16.6410051  95.0709648  16.5757836
   4.1230012  87.4404997  16.2159988   4.8550012  87.6944997  16.7769988
   3.3430012  87.6444997  16.7309988   4.1178232  87.5029177  16.3625760
  10.1520012  82.8474997   8.9539988  10.7170012  82.3004997   8.4069988
  10.0050012  82.3254997   9.7419988  10.2092918  82.7022024   8.9858454
   5.1540012  78.9834997   5.3719988   4.8370012  78.0814997   5.3369988
   5.9360012  78.9854997   4.8189988   5.2162284  78.8601628   5.2924783
   8.7790012  81.2354997  11.3679988   7.9430012  81.6894997  11.4779988
   9.3030012  81.5114997  12.1199988   8.7354414  81.3349376  11.4847136
   9.3230012  87.4484997   3.0519988   8.5780012  86.9414997   2.7299988
   9.1890012  87.4974997   3.9989988   9.2028776  87.3856940   3.1358647
  16.4730012  86.5814997  11.8389988  17.1150012  87.0384997  11.2949988
  15.6430012  86.6944997  11.3759988  16.4485963  86.6592704  11.7020177
  13.2210012  80.2624997   1.2519988  12.2820012  80.3744997   1.0999988
  13.5180012  81.1194997   1.5579988  13.1327666  80.3936443   1.2725768
  10.8420012  87.6324997  14.2889988  10.4970012  87.2514997  15.0959988
  10.6420012  88.5664997  14.3609988  10.7678061  87.7065228  14.4090961
  13.9390012  82.1294997   2.9119988  14.8310012  81.9924997   3.2309988
  13.9960012  82.9204997   2.3759988  14.0686285  82.2176660   2.8831690
   4.4480012  86.7434997   8.8219988   5.1930012  86.7414997   8.2209988
   4.5260012  85.9204997   9.3039988   4.5605518  86.6319315   8.8048929
  11.4490012  88.9074997   2.0779988  11.1530012  89.7334997   2.4589988
  10.7460012  88.2874997   2.2739988  11.3134914  88.9368199   2.1566443
   1.4560012  85.2044997  14.1369988   1.6790012  84.7864997  14.9689988
   0.8540012  84.5914997  13.7139988   1.4051759  85.0644668  14.1937022
   8.4720012  84.7214997  16.3499988   8.1760012  84.5554997  15.4549988
   9.4040012  84.5014997  16.3389988   8.5574166  84.6690640  16.2260536
  13.0930012  90.0944997  14.2399988  12.1920012  90.2774997  13.9719988
  13.1270012  90.3534997  15.1609988  12.9743041  90.1545512  14.3278197
  18.8240012  82.3394997   2.6069988  18.2700012  81.9434997   1.9349988
  18.9240012  83.2494997   2.3289988  18.7617059  82.4083586   2.4774401
  18.7870012  88.1394997  15.4439988  17.9360012  88.3774997  15.0769988
  19.3780012  88.1224997  14.6909988  18.7502487  88.1698258  15.2918893
  17.1190012  91.1254997   3.0719988  16.7460012  90.2994997   3.3809988
  17.3970012  90.9424997   2.1749988  17.1055630  90.9877303   2.9929626
  14.2800012  85.9334997  10.0929988  13.3510012  85.7014997  10.0659988
  14.7310012  85.1564997   9.7629988  14.2139216  85.7967238  10.0446917
   6.8230012  90.2614997   6.2259988   7.3500012  91.0344997   6.0259988
   5.9430012  90.4864997   5.9249988   6.7761773  90.3978005   6.1579010
   2.5780012  85.1234997   0.8129988   3.1940012  85.7504997   1.1929988
   1.7160012  85.4394997   1.0849988   2.5457698  85.2519430   0.9017183
   8.2500012  87.9244997   5.8029988   8.0090012  88.8494997   5.8439988
   7.5090012  87.4654997   6.1989988   8.1168409  87.9891421   5.8621377
   8.7650012  92.0734997  12.1179988   9.1270012  92.9284997  11.8839988
   9.2960012  91.7814997  12.8579988   8.8864473  92.1511060  12.1860855
   6.9330012  92.9464997   5.3479988   5.9830012  93.0514997   5.3989988
   7.2850012  93.7664997   5.6929988   6.8504203  93.0718314   5.4016650
  12.3090012  88.1724997  11.8179988  11.8830012  87.9454997  12.6449988
  12.8890012  87.4344997  11.6359988  12.3291868  88.0415299  11.9065830
  14.5120012  89.1014997   0.8919988  14.8650012  88.7214997   1.6969988
  13.5630012  89.0084997   0.9789988  14.4320441  89.0369596   1.0138559
  14.9670012  92.7244997  14.2879988  14.3660012  92.1694997  13.7919988
  15.2490012  93.3914997  13.6619988  14.9228519  92.7386841  14.1354952
  19.0150012  93.5814997   1.0929988  19.7590012  94.1674997   0.9529988
  18.3210012  94.1494997   1.4269988  19.0230292  93.7385582   1.1189961
   3.0900012  79.9574997  13.6949988   2.1970012  80.2964997  13.6269988
   2.9910012  79.1024997  14.1129988   2.9544164  79.8882588  13.7422235
  15.3780012  87.7744997   3.1189988  15.1000012  87.0464997   3.6749988
  16.3050012  87.8934997   3.3239988  15.4653124  87.6908802   3.2228845
   2.7410012  91.7624997  12.1299988   2.9580012  90.8304997  12.0989988
   2.9870012  92.0364997  13.0129988   2.8039549  91.6720636  12.2451763
   8.6030012  90.2134997  -0.6610012   8.8420012  89.4654997  -1.2080012
   8.3340012  89.8254997   0.1719988   8.5993675  90.0586638  -0.6233135
   7.5400012  89.7834997   1.7959988   7.6860012  89.2634997   2.5859988
   7.5370012  90.6904997   2.1019988   7.5595989  89.8348853   1.9456088
   3.9930012  87.0364997   2.3059988   3.3070012  87.3884997   2.8729988
   4.5150012  87.7994997   2.0589988   3.9696852  87.1878578   2.3502118
  11.8240012  79.6984997  12.5849988  12.5230012  79.7724997  13.2349988
  11.4430012  78.8344997  12.7389988  11.8681767  79.5917624  12.6948322
  12.6090012  79.3504997   3.6819988  12.8290012  79.8224997   2.8789988
  13.1670012  79.7454997   4.3519988  12.7144968  79.4684285   3.6627331
  10.2770012  91.4814997   2.5449988   9.4610012  91.9784997   2.5969988
  10.8070012  91.9564997   1.9049988  10.2369161  91.6137722   2.4655956
   9.8090012  81.0784997   4.5169988  10.6210012  81.5834997   4.5629988
   9.5640012  80.9334997   5.4309988   9.8870520  81.1280375   4.6468517
  10.3440012  82.0644997  13.7019988  10.4630012  82.6384997  14.4589988
  11.0000012  81.3764997  13.8159988  10.4489757  82.0501079  13.8210825
  10.6920012  78.1594997   5.4549988  10.3460012  78.7774997   6.0999988
  11.3510012  78.6604997   4.9739988  10.7337826  78.3115802   5.4780971
   7.6160012  92.5254997   2.5269988   7.7760012  93.3244997   2.0259988
   7.4180012  92.8314997   3.4119988   7.6111649  92.6764469   2.5779815
   6.3500012  79.2224997   2.1419988   6.2670012  80.1114997   2.4889988
   7.2400012  78.9574997   2.3739988   6.4589469  79.3081430   2.2207626
  16.5490012  79.9714997  14.5369988  15.6320012  80.2344997  14.4489988
  16.8840012  79.9684997  13.6399988  16.4689900  80.0070224  14.4037919
  15.1510012  83.7224997   8.6319988  14.3530012  83.3074997   8.3039988
  15.5960012  83.0314997   9.1229988  15.1019885  83.5723543   8.6534889
   4.6090012  89.6504997   1.2029988   5.2010012  90.3494997   1.4789988
   5.0680012  89.2174997   0.4829988   4.7521142  89.6877049   1.1434830
   2.9250012  82.3144997   0.3189988   2.8800012  83.2534997   0.4969988
   2.0370012  82.0784997   0.0489988   2.7988574  82.4111892   0.3068912
  16.2370012  92.9784997  10.2549988  16.0820012  93.6564997   9.5979988
  17.1700012  93.0504997  10.4579988  16.3418500  93.0810170  10.1925119
   3.7330012  77.0964997   8.9919988   3.5040012  77.1554997   8.0639988
   3.2900012  76.3044997   9.2979988   3.6418530  76.9975753   8.9064786
   2.6630012  91.0364997   5.1519988   1.8310012  91.5094997   5.1799988
   3.2090012  91.5464997   4.5539988   2.6229739  91.1701871   5.0749716
   1.9510012  93.6494997  16.4819988   2.4920012  93.4324997  17.2419988
   1.4700012  92.8434997  16.2929988   1.9599345  93.5109514  16.5603076
   6.5490012  92.5684997  18.1029988   7.3160012  92.1094997  18.4439988
   6.5270012  92.3424997  17.1729988   6.6511434  92.4750409  18.0240043
  10.6410012  92.0764997  -0.5220012   9.9970012  91.4454997  -0.2010012
  11.4030012  91.5454997  -0.7540012  10.6558077  91.9182920  -0.5093989
  13.1260012  90.9484997  16.8319988  12.7750012  90.0924997  17.0749988
  13.8520012  91.0914997  17.4389988  13.1760769  90.8505636  16.9473619
  15.2450012  91.8934997  -0.2880012  15.5280012  91.0994997   0.1639988
  15.9850012  92.1264997  -0.8490012  15.3837486  91.8162803  -0.3019302
   1.8580012  87.4594997  17.4369988   2.0020012  86.5574997  17.1499988
   1.0860012  87.7454997  16.9489988   1.7733322  87.3748261  17.3317881
   6.2000012  87.8034997  -0.4310012   6.2640012  87.0094997   0.0999988
   6.8530012  87.6844997  -1.1210012   6.2970241  87.6787148  -0.4515683
   8.5140012  87.4294997  16.8689988   8.1850012  87.7004997  16.0119988
   8.6660012  86.4884997  16.7819988   8.4894809  87.3393862  16.7398244
  11.5520012  88.8504997  -0.6950012  11.2830012  89.0304997   0.2059988
  11.3460012  87.9244997  -0.8260012  11.4873825  88.7500152  -0.5894786
  14.2480012  87.3454997  14.2529988  14.9940012  87.9334997  14.1329988
  13.4910012  87.9274997  14.3159988  14.2477554  87.5047011  14.2450907
   2.6910012  84.6594997  16.8569988   3.0990012  83.8024997  16.7359988
   2.4310012  84.6744997  17.7779988   2.7117568  84.5440807  16.9649588
   7.3490012  85.7754997   1.8749988   6.8890012  85.2914997   2.5609988
   7.6040012  85.1074997   1.2389988   7.3204902  85.6188731   1.8829334
   6.6380012  83.6684997  14.2309988   6.0200012  84.3434997  14.5109988
   6.9820012  83.9894997  13.3979988   6.5999615  83.8042721  14.1566581
   8.4200012  84.0184997   0.1369988   8.2400012  83.8644997  -0.7900012
   9.3700012  84.1264997   0.1819988   8.5237776  84.0120175   0.0161843
  11.6580012  86.1404997  17.5079988  12.6110012  86.2234997  17.4809988
  11.4970012  85.4284997  18.1279988  11.7666426  86.0556746  17.5880578
  17.8100012  86.3734997  -0.4170012  17.5360012  85.9484997  -1.2300012
  17.8490012  87.3044997  -0.6340012  17.7777699  86.4412484  -0.5576390
   6.9770012  81.0234997  15.3129988   7.1270012  80.2944997  14.7109988
   6.9800012  81.8004997  14.7539988   6.9979302  81.0287851  15.1550692
   7.3900012  79.3934997  12.8059988   7.9260012  79.8444997  12.1539988
   6.5380012  79.2854997  12.3829988   7.3482178  79.4406390  12.6595756
   8.9720012  84.8324997  13.0449988   9.7220012  84.6764997  12.4719988
   8.6330012  85.6844997  12.7699988   9.0288921  84.9262968  12.9293561
  13.3870012  82.6474997  18.0739988  13.5800012  81.7164997  17.9619988
  14.2450012  83.0724997  18.0639988  13.5293020  82.5776389  18.0573361
  14.7040012  85.4364997  16.1509988  14.4230012  86.1454997  15.5739988
  15.6470012  85.3634997  15.9999988  14.7929027  85.5237646  16.0515551
   5.4560012  82.2214997  17.2249988   4.6890012  81.6894997  17.0149988
   6.1350012  81.9114997  16.6249988   5.4427022  82.1067506  17.1151648
   8.1960012  76.8494997  13.2369988   8.0970012  77.7964997  13.1319988
   7.4530012  76.4774997  12.7619988   8.0820564  76.9285902  13.1584560
   9.4600012  81.1714997  16.8009988   9.2240012  80.9514997  17.7029988
   8.6760012  80.9644997  16.2909988   9.3218628  81.1134760  16.8553932
  12.1750012  80.2984997  15.8769988  11.2280012  80.3304997  16.0089988
  12.4880012  79.6734997  16.5299988  12.0875475  80.2183207  15.9834455
  13.8090012  78.9324997  17.8819988  13.7130012  77.9804997  17.8759988
  13.4880012  79.2014997  18.7419988  13.7524070  78.8384035  17.9975441
   3.6360012  80.1424997  16.9289988   3.8480012  79.4354997  16.3189988
   3.5250012  79.7044997  17.7729988   3.6499721  79.9867084  16.9596843
   8.4170012  76.1434997  15.9089988   9.1290012  75.5034997  15.8949988
   8.3160012  76.4104997  14.9949988   8.5007939  76.0919938  15.7835650
   8.7710012  77.8264997  17.9619988   8.6390012  77.3504997  17.1419988
   8.1720012  78.5704997  17.9069988   8.6719071  77.8619618  17.8422886
   8.3170012  94.7094997   1.1389988   9.2500012  94.8674997   1.2819988
   8.0530012  95.3844997   0.5139988   8.4089510  94.8223611   1.0740741
   1.8860012  89.3454997   0.6209988   2.8000012  89.4244997   0.8949988
   1.8930012  88.6584997  -0.0450012   2.0121131  89.2633961   0.5684393
   0.5350012  94.7384997   5.6989988  -0.1119988  94.2764997   5.1659988
   0.8890012  94.0664997   6.2809988   0.4943849  94.5844723   5.7047959
   1.4050012  92.8194997   7.5029988   1.0700012  91.9394997   7.6749988
   1.6270012  93.1644997   8.3679988   1.3891783  92.7457500   7.6434208
  18.9530012  93.6284997  10.4839988  18.9320012  93.8134997  11.4229988
  19.6440012  94.1974997  10.1429988  19.0434618  93.7306606  10.5663864
  18.5170012  93.1964997  13.4059988  18.0290012  92.4604997  13.0349988
  19.0660012  92.8024997  14.0839988  18.5244872  93.0426249  13.4469160
  16.9670012  88.9854997  18.0439988  16.1010012  88.8804997  18.4379988
  17.3440012  89.7444997  18.4899988  16.8993308  89.0736900  18.1582393
  18.2680012  87.2424997   3.5579988  19.1180012  87.6634997   3.6849988
  18.2740012  86.5024997   4.1649988  18.3851372  87.2000803   3.6574344
  18.6630012  85.2954997   5.3819988  17.9360012  84.8164997   5.7789988
  19.2440012  85.5014997   6.1139988  18.6419375  85.2577090   5.5354129
  18.4220012  88.0804997  10.3289988  19.2550012  87.7024997  10.0489988
  18.5340012  89.0234997  10.2099988  18.5512647  88.1562218  10.2745487
  16.9080012  90.9584997  12.6359988  16.2610012  91.2834997  13.2619988
  16.3910012  90.5184997  11.9619988  16.7494029  90.9435004  12.6305827
  18.9310012  85.1964997   1.7729988  18.4090012  85.5534997   1.0539988
  18.8980012  85.8714997   2.4509988  18.8551634  85.3365413   1.7663145
  17.2800012  82.4364997   0.3239988  17.3760012  83.1034997  -0.3570012
  17.1400012  81.6204997  -0.1580012  17.2742135  82.4174500   0.1658491
  16.4490012  83.8164997   5.9449988  16.2990012  82.8714997   5.9239988
  16.0960012  84.0974997   6.7879988  16.3806625  83.7250441   6.0562346
   1.4850012  85.8944997   9.9549988   1.6690012  85.8124997   9.0189988
   2.3340012  85.7704997  10.3789988   1.6250139  85.8665003   9.8841455
  17.3060012  85.7864997  15.5829988  17.8890012  85.0524997  15.7749988
  17.8700012  86.5584997  15.6299988  17.4619769  85.7904227  15.6156159
  18.8020012  83.6894997  16.2679988  17.9390012  83.3104997  16.1019988
  19.4070012  82.9504997  16.1939988  18.7655979  83.5378023  16.2352817
  16.5270012  79.8444997  -0.5590012  17.1380012  79.4734997   0.0779988
  15.6910012  79.4234997  -0.3630012  16.4975032  79.7367554  -0.4452965
  16.1600012  81.3994997   4.4069988  16.4400012  80.4924997   4.5309988
  16.9190012  81.8334997   4.0179988  16.3009277  81.3340942   4.3713682
  16.7720012  81.9804997   9.8429988  17.7050012  82.1924997   9.8089988
  16.5370012  82.0824997  10.7649988  16.8678036  82.0232769   9.9629976
  16.8010012  82.7174997  12.6189988  15.9580012  82.9854997  12.9849988
  17.2430012  83.5394997  12.4079988  16.7454158  82.8653291  12.6405491
   1.0820012  81.1654997  16.0959988   2.0020012  81.0434997  16.3319988
   0.6330012  80.4154997  16.4849988   1.1471580  81.0473727  16.1809006
  19.0840012  76.6974997  17.9719988  19.4340012  76.0434997  17.3669988
  19.2310012  77.5344997  17.5329988  19.1518419  76.7211591  17.8297118
  16.7730012  78.6624997   4.4549988  16.9560012  78.2134997   5.2809988
  16.1740012  78.0774997   3.9919988  16.7170202  78.5219975   4.5053275
   2.3030012  79.4774997   8.9869988   2.7490012  78.6854997   9.2889988
   2.7700012  80.1934997   9.4179988   2.4270172  79.4660624   9.0864820
   0.6070012  82.4764997  10.0559988   1.0990012  82.2554997   9.2649988
   0.9700012  83.3174997  10.3369988   0.7233126  82.5598357   9.9857531
  18.6040012  78.8064997  16.3219988  17.6860012  79.0774997  16.2859988
  18.7270012  78.2714997  15.5369988  18.4951066  78.7712892  16.2110487
  18.6400012  78.7294997   0.9829988  19.0520012  78.0084997   0.5079988
  19.3220012  79.3994997   1.0419988  18.7885885  78.7212368   0.9258915
   0.9210012  78.7344997   4.1099988  -0.0039988  78.9434997   3.9809988
   1.3750012  79.2184997   3.4209988   0.8557368  78.8285993   3.9991226
  15.6920012  93.7184997   6.0559988  16.3440012  93.3714997   5.4479988
  16.2020012  94.2074997   6.7019988  15.8502637  93.7370597   6.0600236
   0.8850012  77.4724997  12.4549988   0.2200012  77.2264997  13.0979988
   0.4420012  78.0944997  11.8769988   0.7340956  77.5228632  12.4649352
   3.0770012  90.6474997  16.5989988   2.2560012  90.8224997  16.1389988
   2.8240012  90.5744997  17.5199988   2.9306164  90.6615622  16.6604923
   6.0310012  91.6224997  12.8579988   5.6060012  92.4314997  12.5749988
   6.9350012  91.7074997  12.5559988   6.0950271  91.7448469  12.7783776
  10.3420012  93.0214997  15.8169988  10.5270012  92.6874997  16.6949988
  11.1880012  93.3304997  15.4949988  10.4817539  93.0176047  15.8935605
  12.6870012  94.3074997  15.0609988  13.3640012  93.6744997  14.8209988
  13.0090012  94.7084997  15.8679988  12.8231637  94.2751154  15.1372793
  17.6040012  76.8964997  14.1409988  16.7920012  77.2214997  13.7529988
  17.8370012  76.1364997  13.6079988  17.5243423  76.8382436  14.0158253
   3.4330012  94.8784997  12.9049988   2.7120012  95.3184997  12.4539988
   3.0670012  94.6274997  13.7539988   3.2849804  94.9047698  12.9579840
   5.9000012  94.4784997  11.9349988   5.0350012  94.5504997  12.3389988
   5.8450012  95.0254997  11.1509988   5.7742085  94.5622685  11.8843362
  10.6100012  94.3664997  11.1099988  10.1540012  94.8954997  10.4559988
  10.7730012  94.9694997  11.8359988  10.5695585  94.5204468  11.1185062
  12.9380012  93.2444997  12.0549988  12.0330012  93.4094997  11.7899988
  13.3670012  94.0974997  11.9899988  12.8720799  93.3824483  12.0099182
  15.5420012  94.8144997  12.3499988  15.3600012  95.7304997  12.1399988
  15.7190012  94.4044997  11.5039988  15.5410210  94.8844822  12.2067885
   2.8470012  93.5014997   9.8149988   2.8290012  93.0764997  10.6729988
   3.6520012  93.1834997   9.4069988   2.9533875  93.4003812   9.8771655
   4.9890012  92.2114997   8.4699988   4.7700012  91.2954997   8.6399988
   5.8130012  92.3514997   8.9359988   5.0704420  92.1050520   8.5562774
   7.5260012  92.6814997   9.3189988   7.7390012  91.7934997   9.0319988
   7.5900012  92.6474997  10.2729988   7.5638232  92.5553102   9.4087397
  11.0340012  78.3454997   8.4629988  10.3600012  77.7164997   8.7189988
  11.5980012  77.8614997   7.8599988  11.0179230  78.1938744   8.4165340
  16.1770012  76.4534997   8.5759988  16.7810012  77.0004997   8.0739988
  15.3070012  76.7724997   8.3359988  16.1421241  76.5715806   8.4747654
  17.9040012  77.5914997   6.9089988  18.5160012  77.0774997   6.3829988
  18.2860012  78.4694997   6.9329988  18.0394540  77.6397140   6.8401830
   3.3610012  76.9794997   6.2849988   2.5840012  76.7454997   5.7779988
   3.8910012  76.1824997   6.2939988   3.3262330  76.8396988   6.2167742
   2.1970012  76.7774997   2.0889988   2.6360012  77.3884997   1.4969988
   1.5640012  77.3154997   2.5629988   2.1714514  76.9339257   2.0720930
   7.9400012  76.9064997   6.0989988   8.8150012  77.2944997   6.0689988
   7.8040012  76.6914997   7.0209988   8.0413695  76.9305184   6.2196440
  13.4970012  76.9364997   7.7479988  13.5730012  77.0314997   6.7979988
  13.2220012  76.0284997   7.8769988  13.4702321  76.8267867   7.6355079
  14.8500012  76.9624997   3.4399988  14.1480012  77.5774997   3.2309988
  14.4060012  76.1244997   3.5709988  14.6936330  76.9335783   3.4290328
   2.0980012  92.7254997   2.9869988   1.4130012  92.6874997   2.3189988
   2.1020012  93.6384997   3.2749988   2.0048193  92.8437016   2.9345284
   4.0580012  78.6934997   0.5309988   4.5500012  78.0634997   0.0039988
   4.6820012  78.9894997   1.1949988   4.2095446  78.6473199   0.5485980
   9.0840012  78.9864997   2.9879988   9.2620012  78.3404997   3.6709988
   9.0310012  79.8204997   3.4559988   9.1011829  79.0107985   3.1445940
  10.9630012  93.9354997   1.3839988  11.8290012  94.3014997   1.2059988
  10.7160012  93.4954997   0.5699988  11.0482392  93.9261756   1.2496289
  17.6720012  93.4984997   4.0629988  17.4770012  92.7504997   3.4979988
  17.6330012  94.2564997   3.4799988  17.6400380  93.4986099   3.9068384
   3.3190012  77.4934997  15.8029988   2.9530012  76.7284997  16.2459988
   4.2320012  77.5224997  16.0899988   3.3922790  77.3927224  15.9024070
   5.2920012  76.8444997  17.3389988   6.1900012  76.5704997  17.1539988
   4.9050012  76.1014997  17.8029988   5.3626612  76.7065914  17.3763643
   3.9160012  93.6454997   0.0119988   3.6490012  93.9324997   0.8849988
   4.6880012  93.0994997   0.1639988   3.9837488  93.6110294   0.1521050
  13.7130012  76.1764997  17.5209988  13.7900012  75.7504997  18.3749988
  14.6070012  76.1904997  17.1779988  13.8443428  76.1200879  17.5915310
  16.8890012  92.2494997  16.2129988  16.1070012  92.0634997  15.6939988
  16.8170012  93.1784997  16.4309988  16.7721777  92.3496492  16.1714048
  31.2950012  86.1354997   6.2439988  31.3840012  87.0794997   6.1119988
  30.6570012  85.8604997   5.5859988  31.2209081  86.2274830   6.1369614
  30.2280012  85.3904997   9.6629988  30.1900012  84.7444997  10.3679988
  29.9060012  84.9244997   8.8919988  30.1792333  85.2389408   9.6552978
  22.5970012  85.0054997  11.2559988  22.6380012  84.3794997  11.9789988
  23.3000012  85.6294997  11.4379988  22.6976363  85.0041196  11.3796044
  33.9340012  88.3294997   7.9639988  33.4940012  87.6094997   8.4149988
  33.9210012  89.0504997   8.5939988  33.8720226  88.3283731   8.1108494
  23.5200012  89.4554997   9.7909988  23.1510012  88.6534997   9.4209988
  24.4610012  89.2864997   9.8369988  23.5967289  89.3230153   9.7466316
  20.1300012  83.1154997   5.1839988  19.6830012  83.9614997   5.1649988
  19.5690012  82.5354997   4.6679988  19.9929900  83.1529916   5.1116801
  20.8410012  85.2774997   7.3099988  21.0540012  84.5074997   7.8369988
  21.5790012  85.3664997   6.7059988  20.9698496  85.1841394   7.3005300
  31.0460012  93.4344997   8.1769988  31.6660012  92.7574997   7.9029988
  30.8380012  93.2164997   9.0849988  31.1026904  93.3123870   8.2623365
  28.6180012  87.8234997  10.0689988  28.9220012  87.1374997   9.4739988
  29.3390012  87.9414997  10.6869988  28.7570671  87.7456304  10.0711816
  37.2810012  79.4244997  10.9299988  37.3300012  80.0344997  11.6659988
  37.7060012  79.8854997  10.2069988  37.3451824  79.5703741  10.9330205
  31.7590012  82.2174997  10.3969988  31.9010012  81.2714997  10.4169988
  31.6520012  82.4244997   9.4679988  31.7639864  82.1159534  10.2742339
  24.9130012  80.3184997   7.6689988  24.9570012  81.1784997   7.2509988
  24.4560012  79.7664997   7.0349988  24.8572185  80.3615799   7.5260299
  32.6360012  80.4494997   6.0699988  33.2820012  80.1204997   6.6949988
  33.1460012  80.9674997   5.4469988  32.7934264  80.4744611   6.0713862
  21.5340012  82.7154997   8.4309988  22.1870012  82.1654997   8.8629988
  21.5580012  82.4414997   7.5139988  21.6266683  82.6031466   8.3662123
  26.6900012  84.2654997   7.6459988  27.3060012  83.7394997   8.1559988
  26.1040012  83.6254997   7.2429988  26.6950810  84.1069208   7.6613173
  37.6720012  80.9024997  13.1659988  36.9840012  81.5604997  13.0699988
  37.6880012  80.7054997  14.1019988  37.5798525  80.9660462  13.2794808
  23.7240012  79.2364997  11.7429988  23.5050012  79.7664997  10.9769988
  23.0560012  79.4634997  12.3899988  23.6037600  79.3396906  11.7256379
  31.0930012  88.7364997   5.2869988  30.7970012  88.4144997   4.4359988
  30.7680012  89.6364997   5.3279988  31.0086371  88.8140215   5.1761801
  26.2930012  86.9124997  12.0299988  25.5530012  87.5104997  12.1339988
  27.0070012  87.4664997  11.7149988  26.2882237  87.0692831  12.0016465
  34.4000012  79.7404997   8.0499988  34.1840012  78.9744997   8.5829988
  35.0550012  80.2124997   8.5629988  34.4590632  79.6995889   8.1922861
  23.3170012  81.1284997   9.6949988  23.9310012  81.7614997  10.0689988
  23.8290012  80.6564997   9.0389988  23.4702296  81.1512370   9.6574252
  24.7000012  88.8764997  12.8179988  24.6950012  89.7564997  12.4399988
  23.8470012  88.7934997  13.2429988  24.5839464  88.9856117  12.8237907
  20.8210012  88.5474997   3.5999988  20.5490012  88.7764997   2.7109988
  20.8670012  89.3854997   4.0599988  20.7900094  88.6921213   3.5405697
  34.4460012  90.1694997  10.3119988  33.5050012  90.2274997  10.4739988
  34.7230012  91.0754997  10.1749988  34.3544679  90.2999443  10.3156815
  34.7470012  78.4554997  11.7299988  34.0110012  79.0664997  11.6919988
  35.4300012  78.8704997  11.2029988  34.7386541  78.5951374  11.6535832
  27.7500012  76.5424997   9.1959988  27.6330012  75.5934997   9.1409988
  26.8950012  76.8744997   9.4689988  27.6183733  76.4575409   9.2253897
  32.6980012  91.9504997   6.9379988  33.1240012  91.2434997   6.4529988
  33.0150012  92.7514997   6.5209988  32.7991019  91.9620994   6.8153130
  33.8580012  89.8514997   5.4459988  33.6000012  89.1614997   4.8349988
  33.9290012  89.4084997   6.2919988  33.8322856  89.6972124   5.4766885
  35.5440012  88.4174997  13.9239988  35.6840012  87.8264997  13.1839988
  35.7110012  89.2904997  13.5669988  35.5856778  88.4546426  13.7746965
  30.0170012  85.3794997   3.6959988  29.3050012  85.9144997   3.3439988
  30.7080012  85.4354997   3.0359988  30.0130132  85.4602543   3.5586289
  30.0700012  83.8374997   0.7349988  30.7710012  83.8594997   1.3859988
  30.3730012  83.2094997   0.0789988  30.2067830  83.7556566   0.7353711
  37.3860012  84.7574997  11.9899988  36.7330012  85.4524997  12.0789988
  37.8510012  84.9674997  11.1799988  37.3595390  84.8809425  11.8926883
  33.4220012  85.5894997   4.6479988  32.6900012  85.8174997   5.2209988
  33.8700012  84.8754997   5.1029988  33.3823095  85.5242571   4.7879119
  33.3200012  83.7634997  13.7149988  33.4000012  84.5264997  14.2869988
  32.7180012  84.0424997  13.0249988  33.2495756  83.9057134  13.7000589
  25.0680012  86.2194997   6.5299988  24.7370012  85.8494997   5.7119988
  25.6560012  85.5494997   6.8769988  25.1021873  86.0781156   6.4648102
  26.4340012  89.6474997   9.2119988  26.3400012  89.0694997   8.4549988
  27.1640012  89.2764997   9.7079988  26.5197981  89.5182390   9.1754165
  25.4340012  84.9884997  10.1639988  26.0000012  85.1094997   9.4009988
  25.7530012  85.6254997  10.8029988  25.5545786  85.0911884  10.1460040
  31.7430012  90.4914997  10.8979988  31.5030012  91.1534997  11.5459988
  31.5450012  89.6574997  11.3229988  31.6833808  90.4693134  11.0441524
  26.3140012  89.3874997  14.8809988  26.0030012  90.1694997  15.3359988
  25.6640012  89.2344997  14.1949988  26.1835558  89.4739105  14.8505871
  32.2930012  84.7514997   2.3329988  32.8730012  84.9014997   3.0799988
  32.7070012  85.2224997   1.6099988  32.4282830  84.8356841   2.3374134
  23.2340012  85.5854997  14.1099988  23.3050012  86.2364997  14.8079988
  22.3440012  85.6884997  13.7749988  23.1233117  85.6885936  14.1602700
  30.0200012  91.4884997   5.7679988  30.4940012  91.7834997   6.5459988
  29.4570012  92.2264997   5.5349988  30.0087653  91.6286932   5.8430136
  24.5540012  91.4594997  15.6439988  24.5610012  91.3234997  14.6969988
  23.6380012  91.3414997  15.8959988  24.4311714  91.4249430  15.5484666
  35.9920012  76.5014997   2.1459988  35.0920012  76.6404997   2.4409988
  36.2440012  77.3324997   1.7439988  35.9028702  76.6329074   2.1320205
  24.0580012  85.2894997   4.1199988  23.7660012  86.0574997   3.6289988
  23.3840012  84.6294997   3.9569988  23.9269081  85.3054406   4.0307339
  37.1810012  90.8674997   0.5219988  37.2550012  91.8064997   0.6929988
  38.0870012  90.5624997   0.4659988  37.3135100  90.9546722   0.5378119
  20.1510012  87.6524997  12.9349988  19.6500012  87.6244997  12.1199988
  20.1560012  86.7464997  13.2439988  20.0831526  87.5262278  12.8652872
  19.9010012  90.4324997   9.8189988  20.8470012  90.2884997   9.7999988
  19.7890012  91.2164997  10.3559988  20.0152727  90.5188046   9.8890072
  38.0990012  91.0984997  15.5009988  38.0500012  90.1434997  15.4639988
  37.2720012  91.3664997  15.9019988  37.9804940  91.0038998  15.5501375
  29.0780012  90.6724997  14.3769988  29.1650012  91.4984997  14.8519988
  28.2140012  90.3424997  14.6259988  28.9731964  90.7409878  14.4756549
  29.4920012  94.4444997   4.1829988  29.4170012  94.3234997   3.2369988
  29.5250012  95.3944997   4.3019988  29.4861848  94.5562500   4.0694834
  23.1450012  93.2334997   5.9639988  23.2980012  92.8854997   6.8429988
  22.2950012  92.8774997   5.7089988  23.0508962  93.1376650   6.0498340
  32.5940012  93.5984997   1.1849988  32.9690012  92.8544997   0.7149988
  32.5980012  93.3284997   2.1039988  32.6458915  93.4601486   1.2447824
  32.2630012  93.5244997   3.9349988  31.3270012  93.6244997   4.1129988
  32.5430012  92.8154997   4.5129988  32.1728255  93.4422711   4.0375391
  35.2510012  82.5914997  15.9809988  34.8440012  83.0724997  15.2599988
  35.2920012  81.6864997  15.6729988  35.2008437  82.5349374  15.8406683
  22.4000012  88.9754997  13.9779988  22.6160012  88.6144997  14.8369988
  21.5450012  88.6014997  13.7679988  22.3139292  88.8754111  14.0673386
  25.0190012  77.4454997   9.9729988  24.1570012  77.3584997   9.5659988
  24.9960012  78.3014997  10.4009988  24.8980330  77.5492765   9.9751863
  29.6820012  77.1674997  13.3479988  30.1020012  76.7524997  14.1009988
  28.7490012  76.9894997  13.4649988  29.6133644  77.0865900  13.4669539
  33.0080012  80.9234997  14.2009988  32.4940012  80.7974997  14.9989988
  32.8530012  81.8354997  13.9569988  32.9166852  81.0296132  14.2772158
  33.7710012  85.7844997  -0.0370012  33.8130012  85.5614997  -0.9670012
  34.6200012  86.1834997   0.1529988  33.8915396  85.8079155  -0.1386373
  29.3430012  79.6604997   0.6329988  29.0900012  79.6794997   1.5559988
  29.0870012  78.7884997   0.3319988  29.2737790  79.5452437   0.7186263
  25.1100012  82.4114997  11.0679988  24.4680012  82.3704997  11.7769988
  25.1470012  83.3374997  10.8309988  25.0271324  82.5311559  11.1329824
  25.1070012  82.6324997   5.9799988  24.2140012  82.2914997   5.9219988
  25.5570012  82.2554997   5.2249988  25.0457305  82.5348484   5.8699177
  30.6420012  83.0484997   4.7969988  30.2330012  83.8634997   4.5059988
  31.3630012  82.9084997   4.1829988  30.6834537  83.1412018   4.6741342
  29.7440012  83.2234997  16.2849988  29.1820012  82.5194997  16.6059988
  30.5710012  83.1034997  16.7529988  29.7787095  83.1107883  16.3922330
  31.6470012  82.4944997   7.6109988  31.4520012  83.0994997   6.8959988
  31.8280012  81.6604997   7.1769988  31.6447614  82.4646300   7.4544405
  22.8600012  82.7314997  12.9349988  22.8220012  83.1314997  13.8039988
  22.3690012  81.9144997  13.0259988  22.7884684  82.6758069  13.0661059
  26.2260012  80.1054997  -0.2660012  25.7950012  79.6604997   0.4639988
  25.5080012  80.4774997  -0.7780012  26.0699438  80.0948940  -0.2353201
  19.4680012  79.8474997   6.7859988  20.0990012  79.8184997   7.5049988
  19.9170012  79.4224997   6.0559988  19.6150774  79.7860492   6.7856553
  20.7420012  80.5934997   2.2099988  21.2160012  81.1844997   1.6249988
  20.0250012  81.1244997   2.5569988  20.7099341  80.7460867   2.1768836
  30.9110012  84.1324997  12.2829988  31.2340012  83.5014997  11.6399988
  30.4710012  83.5974997  12.9429988  30.8956895  83.9738441  12.2842850
  27.6880012  80.0594997   7.0669988  26.7770012  80.1164997   7.3549988
  28.1940012  79.9994997   7.8769988  27.6315413  80.0591985   7.2160622
  22.5170012  81.6884997   5.8929988  21.6270012  81.7884997   5.5529988
  22.8130012  80.8464997   5.5469988  22.4352823  81.5883545   5.7997213
  26.1700012  81.6884997   3.5499988  27.1010012  81.8174997   3.7279988
  25.9550012  82.3584997   2.8999988  26.2684247  81.7966565   3.4865747
  32.0930012  79.2944997  10.3309988  31.4170012  79.4254997  10.9949988
  31.6080012  79.1394997   9.5209988  31.9347145  79.2914905  10.3124517
  24.8440012  82.8834997   1.1169988  24.3010012  82.5034997   0.4249988
  25.6770012  83.0774997   0.6879988  24.8824399  82.8578124   0.9644526
  35.3810012  94.9664997  16.6079988  35.5810012  95.3904997  15.7729988
  36.0360012  95.3094997  17.2149988  35.4970051  95.0709648  16.5757836
  22.9790012  87.4404997  16.2159988  23.7110012  87.6944997  16.7769988
  22.1990012  87.6444997  16.7309988  22.9738232  87.5029177  16.3625760
  29.0080012  82.8474997   8.9539988  29.5730012  82.3004997   8.4069988
  28.8610012  82.3254997   9.7419988  29.0652918  82.7022024   8.9858454
  24.0100012  78.9834997   5.3719988  23.6930012  78.0814997   5.3369988
  24.7920012  78.9854997   4.8189988  24.0722284  78.8601628   5.2924783
  27.6350012  81.2354997  11.3679988  26.7990012  81.6894997  11.4779988
  28.1590012  81.5114997  12.1199988  27.5914414  81.3349376  11.4847136
  28.1790012  87.4484997   3.0519988  27.4340012  86.9414997   2.7299988
  28.0450012  87.4974997   3.9989988  28.0588776  87.3856940   3.1358647
  35.3290012  86.5814997  11.8389988  35.9710012  87.0384997  11.2949988
  34.4990012  86.6944997  11.3759988  35.3045963  86.6592704  11.7020177
  32.0770012  80.2624997   1.2519988  31.1380012  80.3744997   1.0999988
  32.3740012  81.1194997   1.5579988  31.9887666  80.3936443   1.2725768
  29.6980012  87.6324997  14.2889988  29.3530012  87.2514997  15.0959988
  29.4980012  88.5664997  14.3609988  29.6238061  87.7065228  14.4090961
  32.7950012  82.1294997   2.9119988  33.6870012  81.9924997   3.2309988
  32.8520012  82.9204997   2.3759988  32.9246285  82.2176660   2.8831690
  23.3040012  86.7434997   8.8219988  24.0490012  86.7414997   8.2209988
  23.3820012  85.9204997   9.3039988  23.4165518  86.6319315   8.8048929
  30.3050012  88.9074997   2.0779988  30.0090012  89.7334997   2.4589988
  29.6020012  88.2874997   2.2739988  30.1694914  88.9368199   2.1566443
  20.3120012  85.2044997  14.1369988  20.5350012  84.7864997  14.9689988
  19.7100012  84.5914997  13.7139988  20.2611759  85.0644668  14.1937022
  27.3280012  84.7214997  16.3499988  27.0320012  84.5554997  15.4549988
  28.2600012  84.5014997  16.3389988  27.4134166  84.6690640  16.2260536
  31.9490012  90.0944997  14.2399988  31.0480012  90.2774997  13.9719988
  31.9830012  90.3534997  15.1609988  31.8303041  90.1545512  14.3278197
  37.6800012  82.3394997   2.6069988  37.1260012  81.9434997   1.9349988
  37.7800012  83.2494997   2.3289988  37.6177059  82.4083586   2.4774401
  37.6430012  88.1394997  15.4439988  36.7920012  88.3774997  15.0769988
  38.2340012  88.1224997  14.6909988  37.6062487  88.1698258  15.2918893
  35.9750012  91.1254997   3.0719988  35.6020012  90.2994997   3.3809988
  36.2530012  90.9424997   2.1749988  35.9615630  90.9877303   2.9929626
  33.1360012  85.9334997  10.0929988  32.2070012  85.7014997  10.0659988
  33.5870012  85.1564997   9.7629988  33.0699216  85.7967238  10.0446917
  25.6790012  90.2614997   6.2259988  26.2060012  91.0344997   6.0259988
  24.7990012  90.4864997   5.9249988  25.6321773  90.3978005   6.1579010
  21.4340012  85.1234997   0.8129988  22.0500012  85.7504997   1.1929988
  20.5720012  85.4394997   1.0849988  21.4017698  85.2519430   0.9017183
  27.1060012  87.9244997   5.8029988  26.8650012  88.8494997   5.8439988
  26.3650012  87.4654997   6.1989988  26.9728409  87.9891421   5.8621377
  27.6210012  92.0734997  12.1179988  27.9830012  92.9284997  11.8839988
  28.1520012  91.7814997  12.8579988  27.7424473  92.1511060  12.1860855
  25.7890012  92.9464997   5.3479988  24.8390012  93.0514997   5.3989988
  26.1410012  93.7664997   5.6929988  25.7064203  93.0718314   5.4016650
  31.1650012  88.1724997  11.8179988  30.7390012  87.9454997  12.6449988
  31.7450012  87.4344997  11.6359988  31.1851868  88.0415299  11.9065830
  33.3680012  89.1014997   0.8919988  33.7210012  88.7214997   1.6969988
  32.4190012  89.0084997   0.9789988  33.2880441  89.0369596   1.0138559
  33.8230012  92.7244997  14.2879988  33.2220012  92.1694997  13.7919988
  34.1050012  93.3914997  13.6619988  33.7788519  92.7386841  14.1354952
  37.8710012  93.5814997   1.0929988  38.6150012  94.1674997   0.9529988
  37.1770012  94.1494997   1.4269988  37.8790292  93.7385582   1.1189961
  21.9460012  79.9574997  13.6949988  21.0530012  80.2964997  13.6269988
  21.8470012  79.1024997  14.1129988  21.8104164  79.8882588  13.7422235
  34.2340012  87.7744997   3.1189988  33.9560012  87.0464997   3.6749988
  35.1610012  87.8934997   3.3239988  34.3213124  87.6908802   3.2228845
  21.5970012  91.7624997  12.1299988  21.8140012  90.8304997  12.0989988
  21.8430012  92.0364997  13.0129988  21.6599549  91.6720636  12.2451763
  27.4590012  90.2134997  -0.6610012  27.6980012  89.4654997  -1.2080012
  27.1900012  89.8254997   0.1719988  27.4553675  90.0586638  -0.6233135
  26.3960012  89.7834997   1.7959988  26.5420012  89.2634997   2.5859988
  26.3930012  90.6904997   2.1019988  26.4155989  89.8348853   1.9456088
  22.8490012  87.0364997   2.3059988  22.1630012  87.3884997   2.8729988
  23.3710012  87.7994997   2.0589988  22.8256852  87.1878578   2.3502118
  30.6800012  79.6984997  12.5849988  31.3790012  79.7724997  13.2349988
  30.2990012  78.8344997  12.7389988  30.7241767  79.5917624  12.6948322
  31.4650012  79.3504997   3.6819988  31.6850012  79.8224997   2.8789988
  32.0230012  79.7454997   4.3519988  31.5704968  79.4684285   3.6627331
  29.1330012  91.4814997   2.5449988  28.3170012  91.9784997   2.5969988
  29.6630012  91.9564997   1.9049988  29.0929161  91.6137722   2.4655956
  28.6650012  81.0784997   4.5169988  29.4770012  81.5834997   4.5629988
  28.4200012  80.9334997   5.4309988  28.7430520  81.1280375   4.6468517
  29.2000012  82.0644997  13.7019988  29.3190012  82.6384997  14.4589988
  29.8560012  81.3764997  13.8159988  29.3049757  82.0501079  13.8210825
  29.5480012  78.1594997   5.4549988  29.2020012  78.7774997   6.0999988
  30.2070012  78.6604997   4.9739988  29.5897826  78.3115802   5.4780971
  26.4720012  92.5254997   2.5269988  26.6320012  93.3244997   2.0259988
  26.2740012  92.8314997   3.4119988  26.4671649  92.6764469   2.5779815
  25.2060012  79.2224997   2.1419988  25.1230012  80.1114997   2.4889988
  26.0960012  78.9574997   2.3739988  25.3149469  79.3081430   2.2207626
  35.4050012  79.9714997  14.5369988  34.4880012  80.2344997  14.4489988
  35.7400012  79.9684997  13.6399988  35.3249900  80.0070224  14.4037919
  34.0070012  83.7224997   8.6319988  33.2090012  83.3074997   8.3039988
  34.4520012  83.0314997   9.1229988  33.9579885  83.5723543   8.6534889
  23.4650012  89.6504997   1.2029988  24.0570012  90.3494997   1.4789988
  23.9240012  89.2174997   0.4829988  23.6081142  89.6877049   1.1434830
  21.7810012  82.3144997   0.3189988  21.7360012  83.2534997   0.4969988
  20.8930012  82.0784997   0.0489988  21.6548574  82.4111892   0.3068912
  35.0930012  92.9784997  10.2549988  34.9380012  93.6564997   9.5979988
  36.0260012  93.0504997  10.4579988  35.1978500  93.0810170  10.1925119
  22.5890012  77.0964997   8.9919988  22.3600012  77.1554997   8.0639988
  22.1460012  76.3044997   9.2979988  22.4978530  76.9975753   8.9064786
  21.5190012  91.0364997   5.1519988  20.6870012  91.5094997   5.1799988
  22.0650012  91.5464997   4.5539988  21.4789739  91.1701871   5.0749716
  20.8070012  93.6494997  16.4819988  21.3480012  93.4324997  17.2419988
  20.3260012  92.8434997  16.2929988  20.8159345  93.5109514  16.5603076
  25.4050012  92.5684997  18.1029988  26.1720012  92.1094997  18.4439988
  25.3830012  92.3424997  17.1729988  25.5071434  92.4750409  18.0240043
  29.4970012  92.0764997  -0.5220012  28.8530012  91.4454997  -0.2010012
  30.2590012  91.5454997  -0.7540012  29.5118077  91.9182920  -0.5093989
  31.9820012  90.9484997  16.8319988  31.6310012  90.0924997  17.0749988
  32.7080012  91.0914997  17.4389988  32.0320769  90.8505636  16.9473619
  34.1010012  91.8934997  -0.2880012  34.3840012  91.0994997   0.1639988
  34.8410012  92.1264997  -0.8490012  34.2397486  91.8162803  -0.3019302
  20.7140012  87.4594997  17.4369988  20.8580012  86.5574997  17.1499988
  19.9420012  87.7454997  16.9489988  20.6293322  87.3748261  17.3317881
  25.0560012  87.8034997  -0.4310012  25.1200012  87.0094997   0.0999988
  25.7090012  87.6844997  -1.1210012  25.1530241  87.6787148  -0.4515683
  27.3700012  87.4294997  16.8689988  27.0410012  87.7004997  16.0119988
  27.5220012  86.4884997  16.7819988  27.3454809  87.3393862  16.7398244
  30.4080012  88.8504997  -0.6950012  30.1390012  89.0304997   0.2059988
  30.2020012  87.9244997  -0.8260012  30.3433825  88.7500152  -0.5894786
  33.1040012  87.3454997  14.2529988  33.8500012  87.9334997  14.1329988
  32.3470012  87.9274997  14.3159988  33.1037554  87.5047011  14.2450907
  21.5470012  84.6594997  16.8569988  21.9550012  83.8024997  16.7359988
  21.2870012  84.6744997  17.7779988  21.5677568  84.5440807  16.9649588
  26.2050012  85.7754997   1.8749988  25.7450012  85.2914997   2.5609988
  26.4600012  85.1074997   1.2389988  26.1764902  85.6188731   1.8829334
  25.4940012  83.6684997  14.2309988  24.8760012  84.3434997  14.5109988
  25.8380012  83.9894997  13.3979988  25.4559615  83.8042721  14.1566581
  27.2760012  84.0184997   0.1369988  27.0960012  83.8644997  -0.7900012
  28.2260012  84.1264997   0.1819988  27.3797776  84.0120175   0.0161843
  30.5140012  86.1404997  17.5079988  31.4670012  86.2234997  17.4809988
  30.3530012  85.4284997  18.1279988  30.6226426  86.0556746  17.5880578
  36.6660012  86.3734997  -0.4170012  36.3920012  85.9484997  -1.2300012
  36.7050012  87.3044997  -0.6340012  36.6337699  86.4412484  -0.5576390
  25.8330012  81.0234997  15.3129988  25.9830012  80.2944997  14.7109988
  25.8360012  81.8004997  14.7539988  25.8539302  81.0287851  15.1550692
  26.2460012  79.3934997  12.8059988  26.7820012  79.8444997  12.1539988
  25.3940012  79.2854997  12.3829988  26.2042178  79.4406390  12.6595756
  27.8280012  84.8324997  13.0449988  28.5780012  84.6764997  12.4719988
  27.4890012  85.6844997  12.7699988  27.8848921  84.9262968  12.9293561
  32.2430012  82.6474997  18.0739988  32.4360012  81.7164997  17.9619988
  33.1010012  83.0724997  18.0639988  32.3853020  82.5776389  18.0573361
  33.5600012  85.4364997  16.1509988  33.2790012  86.1454997  15.5739988
  34.5030012  85.3634997  15.9999988  33.6489027  85.5237646  16.0515551
  24.3120012  82.2214997  17.2249988  23.5450012  81.6894997  17.0149988
  24.9910012  81.9114997  16.6249988  24.2987022  82.1067506  17.1151648
  27.0520012  76.8494997  13.2369988  26.9530012  77.7964997  13.1319988
  26.3090012  76.4774997  12.7619988  26.9380564  76.9285902  13.1584560
  28.3160012  81.1714997  16.8009988  28.0800012  80.9514997  17.7029988
  27.5320012  80.9644997  16.2909988  28.1778628  81.1134760  16.8553932
  31.0310012  80.2984997  15.8769988  30.0840012  80.3304997  16.0089988
  31.3440012  79.6734997  16.5299988  30.9435475  80.2183207  15.9834455
  32.6650012  78.9324997  17.8819988  32.5690012  77.9804997  17.8759988
  32.3440012  79.2014997  18.7419988  32.6084070  78.8384035  17.9975441
  22.4920012  80.1424997  16.9289988  22.7040012  79.4354997  16.3189988
  22.3810012  79.7044997  17.7729988  22.5059721  79.9867084  16.9596843
  27.2730012  76.1434997  15.9089988  27.9850012  75.5034997  15.8949988
  27.1720012  76.4104997  14.9949988  27.3567939  76.0919938  15.7835650
  27.6270012  77.8264997  17.9619988  27.4950012  77.3504997  17.1419988
  27.0280012  78.5704997  17.9069988  27.5279071  77.8619618  17.8422886
  27.1730012  94.7094997   1.1389988  28.1060012  94.8674997   1.2819988
  26.9090012  95.3844997   0.5139988  27.2649510  94.8223611   1.0740741
  20.7420012  89.3454997   0.6209988  21.6560012  89.4244997   0.8949988
  20.7490012  88.6584997  -0.0450012  20.8681131  89.2633961   0.5684393
  19.3910012  94.7384997   5.6989988  18.7440012  94.2764997   5.1659988
  19.7450012  94.0664997   6.2809988  19.3503849  94.5844723   5.7047959
  20.2610012  92.8194997   7.5029988  19.9260012  91.9394997   7.6749988
  20.4830012  93.1644997   8.3679988  20.2451783  92.7457500   7.6434208
  37.8090012  93.6284997  10.4839988  37.7880012  93.8134997  11.4229988
  38.5000012  94.1974997  10.1429988  37.8994618  93.7306606  10.5663864
  37.3730012  93.1964997  13.4059988  36.8850012  92.4604997  13.0349988
  37.9220012  92.8024997  14.0839988  37.3804872  93.0426249  13.4469160
  35.8230012  88.9854997  18.0439988  34.9570012  88.8804997  18.4379988
  36.2000012  89.7444997  18.4899988  35.7553308  89.0736900  18.1582393
  37.1240012  87.2424997   3.5579988  37.9740012  87.6634997   3.6849988
  37.1300012  86.5024997   4.1649988  37.2411372  87.2000803   3.6574344
  37.5190012  85.2954997   5.3819988  36.7920012  84.8164997   5.7789988
  38.1000012  85.5014997   6.1139988  37.4979375  85.2577090   5.5354129
  37.2780012  88.0804997  10.3289988  38.1110012  87.7024997  10.0489988
  37.3900012  89.0234997  10.2099988  37.4072647  88.1562218  10.2745487
  35.7640012  90.9584997  12.6359988  35.1170012  91.2834997  13.2619988
  35.2470012  90.5184997  11.9619988  35.6054029  90.9435004  12.6305827
  37.7870012  85.1964997   1.7729988  37.2650012  85.5534997   1.0539988
  37.7540012  85.8714997   2.4509988  37.7111634  85.3365413   1.7663145
  36.1360012  82.4364997   0.3239988  36.2320012  83.1034997  -0.3570012
  35.9960012  81.6204997  -0.1580012  36.1302135  82.4174500   0.1658491
  35.3050012  83.8164997   5.9449988  35.1550012  82.8714997   5.9239988
  34.9520012  84.0974997   6.7879988  35.2366625  83.7250441   6.0562346
  20.3410012  85.8944997   9.9549988  20.5250012  85.8124997   9.0189988
  21.1900012  85.7704997  10.3789988  20.4810139  85.8665003   9.8841455
  36.1620012  85.7864997  15.5829988  36.7450012  85.0524997  15.7749988
  36.7260012  86.5584997  15.6299988  36.3179769  85.7904227  15.6156159
  37.6580012  83.6894997  16.2679988  36.7950012  83.3104997  16.1019988
  38.2630012  82.9504997  16.1939988  37.6215979  83.5378023  16.2352817
  35.3830012  79.8444997  -0.5590012  35.9940012  79.4734997   0.0779988
  34.5470012  79.4234997  -0.3630012  35.3535032  79.7367554  -0.4452965
  35.0160012  81.3994997   4.4069988  35.2960012  80.4924997   4.5309988
  35.7750012  81.8334997   4.0179988  35.1569277  81.3340942   4.3713682
  35.6280012  81.9804997   9.8429988  36.5610012  82.1924997   9.8089988
  35.3930012  82.0824997  10.7649988  35.7238036  82.0232769   9.9629976
  35.6570012  82.7174997  12.6189988  34.8140012  82.9854997  12.9849988
  36.0990012  83.5394997  12.4079988  35.6014158  82.8653291  12.6405491
  19.9380012  81.1654997  16.0959988  20.8580012  81.0434997  16.3319988
  19.4890012  80.4154997  16.4849988  20.0031580  81.0473727  16.1809006
  37.9400012  76.6974997  17.9719988  38.2900012  76.0434997  17.3669988
  38.0870012  77.5344997  17.5329988  38.0078419  76.7211591  17.8297118
  35.6290012  78.6624997   4.4549988  35.8120012  78.2134997   5.2809988
  35.0300012  78.0774997   3.9919988  35.5730202  78.5219975   4.5053275
  21.1590012  79.4774997   8.9869988  21.6050012  78.6854997   9.2889988
  21.6260012  80.1934997   9.4179988  21.2830172  79.4660624   9.0864820
  19.4630012  82.4764997  10.0559988  19.9550012  82.2554997   9.2649988
  19.8260012  83.3174997  10.3369988  19.5793126  82.5598357   9.9857531
  37.4600012  78.8064997  16.3219988  36.5420012  79.0774997  16.2859988
  37.5830012  78.2714997  15.5369988  37.3511066  78.7712892  16.2110487
  37.4960012  78.7294997   0.9829988  37.9080012  78.0084997   0.5079988
  38.1780012  79.3994997   1.0419988  37.6445885  78.7212368   0.9258915
  19.7770012  78.7344997   4.1099988  18.8520012  78.9434997   3.9809988
  20.2310012  79.2184997   3.4209988  19.7117368  78.8285993   3.9991226
  34.5480012  93.7184997   6.0559988  35.2000012  93.3714997   5.4479988
  35.0580012  94.2074997   6.7019988  34.7062637  93.7370597   6.0600236
  19.7410012  77.4724997  12.4549988  19.0760012  77.2264997  13.0979988
  19.2980012  78.0944997  11.8769988  19.5900956  77.5228632  12.4649352
  21.9330012  90.6474997  16.5989988  21.1120012  90.8224997  16.1389988
  21.6800012  90.5744997  17.5199988  21.7866164  90.6615622  16.6604923
  24.8870012  91.6224997  12.8579988  24.4620012  92.4314997  12.5749988
  25.7910012  91.7074997  12.5559988  24.9510271  91.7448469  12.7783776
  29.1980012  93.0214997  15.8169988  29.3830012  92.6874997  16.6949988
  30.0440012  93.3304997  15.4949988  29.3377539  93.0176047  15.8935605
  31.5430012  94.3074997  15.0609988  32.2200012  93.6744997  14.8209988
  31.8650012  94.7084997  15.8679988  31.6791637  94.2751154  15.1372793
  36.4600012  76.8964997  14.1409988  35.6480012  77.2214997  13.7529988
  36.6930012  76.1364997  13.6079988  36.3803423  76.8382436  14.0158253
  22.2890012  94.8784997  12.9049988  21.5680012  95.3184997  12.4539988
  21.9230012  94.6274997  13.7539988  22.1409804  94.9047698  12.9579840
  24.7560012  94.4784997  11.9349988  23.8910012  94.5504997  12.3389988
  24.7010012  95.0254997  11.1509988  24.6302085  94.5622685  11.8843362
  29.4660012  94.3664997  11.1099988  29.0100012  94.8954997  10.4559988
  29.6290012  94.9694997  11.8359988  29.4255585  94.5204468  11.1185062
  31.7940012  93.2444997  12.0549988  30.8890012  93.4094997  11.7899988
  32.2230012  94.0974997  11.9899988  31.7280799  93.3824483  12.0099182
  34.3980012  94.8144997  12.3499988  34.2160012  95.7304997  12.1399988
  34.5750012  94.4044997  11.5039988  34.3970210  94.8844822  12.2067885
  21.7030012  93.5014997   9.8149988  21.6850012  93.0764997  10.6729988
  22.5080012  93.1834997   9.4069988  21.8093875  93.4003812   9.8771655
  23.8450012  92.2114997   8.4699988  23.6260012  91.2954997   8.6399988
  24.6690012  92.3514997   8.9359988  23.9264420  92.1050520   8.5562774
  26.3820012  92.6814997   9.3189988  26.5950012  91.7934997   9.0319988
  26.4460012  92.6474997  10.2729988  26.4198232  92.5553102   9.4087397
  29.8900012  78.3454997   8.4629988  29.2160012  77.7164997   8.7189988
  30.4540012  77.8614997   7.8599988  29.8739230  78.1938744   8.4165340
  35.0330012  76.4534997   8.5759988  35.6370012  77.0004997   8.0739988
  34.1630012  76.7724997   8.3359988  34.9981241  76.5715806   8.4747654
  36.7600012  77.5914997   6.9089988  37.3720012  77.0774997   6.3829988
  37.1420012  78.4694997   6.9329988  36.8954540  77.6397140   6.8401830
  22.2170012  76.9794997   6.2849988  21.4400012  76.7454997   5.7779988
  22.7470012  76.1824997   6.2939988  22.1822330  76.8396988   6.2167742
  21.0530012  76.7774997   2.0889988  21.4920012  77.3884997   1.4969988
  20.4200012  77.3154997   2.5629988  21.0274514  76.9339257   2.0720930
  26.7960012  76.9064997   6.0989988  27.6710012  77.2944997   6.0689988
  26.6600012  76.6914997   7.0209988  26.8973695  76.9305184   6.2196440
  32.3530012  76.9364997   7.7479988  32.4290012  77.0314997   6.7979988
  32.0780012  76.0284997   7.8769988  32.3262321  76.8267867   7.6355079
  33.7060012  76.9624997   3.4399988  33.0040012  77.5774997   3.2309988
  33.2620012  76.1244997   3.5709988  33.5496330  76.9335783   3.4290328
  20.9540012  92.7254997   2.9869988  20.2690012  92.6874997   2.3189988
  20.9580012  93.6384997   3.2749988  20.8608193  92.8437016   2.9345284
  22.9140012  78.6934997   0.5309988  23.4060012  78.0634997   0.0039988
  23.5380012  78.9894997   1.1949988  23.0655446  78.6473199   0.5485980
  27.9400012  78.9864997   2.9879988  28.1180012  78.3404997   3.6709988
  27.8870012  79.8204997   3.4559988  27.9571829  79.0107985   3.1445940
  29.8190012  93.9354997   1.3839988  30.6850012  94.3014997   1.2059988
  29.5720012  93.4954997   0.5699988  29.9042392  93.9261756   1.2496289
  36.5280012  93.4984997   4.0629988  36.3330012  92.7504997   3.4979988
  36.4890012  94.2564997   3.4799988  36.4960380  93.4986099   3.9068384
  22.1750012  77.4934997  15.8029988  21.8090012  76.7284997  16.2459988
  23.0880012  77.5224997  16.0899988  22.2482790  77.3927224  15.9024070
  24.1480012  76.8444997  17.3389988  25.0460012  76.5704997  17.1539988
  23.7610012  76.1014997  17.8029988  24.2186612  76.7065914  17.3763643
  22.7720012  93.6454997   0.0119988  22.5050012  93.9324997   0.8849988
  23.5440012  93.0994997   0.1639988  22.8397488  93.6110294   0.1521050
  32.5690012  76.1764997  17.5209988  32.6460012  75.7504997  18.3749988
  33.4630012  76.1904997  17.1779988  32.7003428  76.1200879  17.5915310
  35.7450012  92.2494997  16.2129988  34.9630012  92.0634997  15.6939988
  35.6730012  93.1784997  16.4309988  35.6281777  92.3496492  16.1714048
  50.1510012  86.1354997   6.2439988  50.2400012  87.0794997   6.1119988
  49.5130012  85.8604997   5.5859988  50.0769081  86.2274830   6.1369614
  49.0840012  85.3904997   9.6629988  49.0460012  84.7444997  10.3679988
  48.7620012  84.9244997   8.8919988  49.0352333  85.2389408   9.6552978
  41.4530012  85.0054997  11.2559988  41.4940012  84.3794997  11.9789988
  42.1560012  85.6294997  11.4379988  41.5536363  85.0041196  11.3796044
  52.7900012  88.3294997   7.9639988  52.3500012  87.6094997   8.4149988
  52.7770012  89.0504997   8.5939988  52.7280226  88.3283731   8.1108494
  42.3760012  89.4554997   9.7909988  42.0070012  88.6534997   9.4209988
  43.3170012  89.2864997   9.8369988  42.4527289  89.3230153   9.7466316
  38.9860012  83.1154997   5.1839988  38.5390012  83.9614997   5.1649988
  38.4250012  82.5354997   4.6679988  38.8489900  83.1529916   5.1116801
  39.6970012  85.2774997   7.3099988  39.9100012  84.5074997   7.8369988
  40.4350012  85.3664997   6.7059988  39.8258496  85.1841394   7.3005300
  49.9020012  93.4344997   8.1769988  50.5220012  92.7574997   7.9029988
  49.6940012  93.2164997   9.0849988  49.9586904  93.3123870   8.2623365
  47.4740012  87.8234997  10.0689988  47.7780012  87.1374997   9.4739988
  48.1950012  87.9414997  10.6869988  47.6130671  87.7456305  10.0711816
  56.1370012  79.4244997  10.9299988  56.1860012  80.0344997  11.6659988
  56.5620012  79.8854997  10.2069988  56.2011824  79.5703741  10.9330205
  50.6150012  82.2174997  10.3969988  50.7570012  81.2714997  10.4169988
  50.5080012  82.4244997   9.4679988  50.6199864  82.1159534  10.2742339
  43.7690012  80.3184997   7.6689988  43.8130012  81.1784997   7.2509988
  43.3120012  79.7664997   7.0349988  43.7132185  80.3615799   7.5260299
  51.4920012  80.4494997   6.0699988  52.1380012  80.1204997   6.6949988
  52.0020012  80.9674997   5.4469988  51.6494264  80.4744611   6.0713862
  40.3900012  82.7154997   8.4309988  41.0430012  82.1654997   8.8629988
  40.4140012  82.4414997   7.5139988  40.4826683  82.6031466   8.3662123
  45.5460012  84.2654997   7.6459988  46.1620012  83.7394997   8.1559988
  44.9600012  83.6254997   7.2429988  45.5510810  84.1069208   7.6613173
  56.5280012  80.9024997  13.1659988  55.8400012  81.5604997  13.0699988
  56.5440012  80.7054997  14.1019988  56.4358525  80.9660462  13.2794808
  42.5800012  79.2364997  11.7429988  42.3610012  79.7664997  10.9769988
  41.9120012  79.4634997  12.3899988  42.4597600  79.3396906  11.7256379
  49.9490012  88.7364997   5.2869988  49.6530012  88.4144997   4.4359988
  49.6240012  89.6364997   5.3279988  49.8646371  88.8140215   5.1761801
  45.1490012  86.9124997  12.0299988  44.4090012  87.5104997  12.1339988
  45.8630012  87.4664997  11.7149988  45.1442237  87.0692831  12.0016465
  53.2560012  79.7404997   8.0499988  53.0400012  78.9744997   8.5829988
  53.9110012  80.2124997   8.5629988  53.3150632  79.6995889   8.1922861
  42.1730012  81.1284997   9.6949988  42.7870012  81.7614997  10.0689988
  42.6850012  80.6564997   9.0389988  42.3262296  81.1512370   9.6574252
  43.5560012  88.8764997  12.8179988  43.5510012  89.7564997  12.4399988
  42.7030012  88.7934997  13.2429988  43.4399464  88.9856117  12.8237907
  39.6770012  88.5474997   3.5999988  39.4050012  88.7764997   2.7109988
  39.7230012  89.3854997   4.0599988  39.6460094  88.6921213   3.5405697
  53.3020012  90.1694997  10.3119988  52.3610012  90.2274997  10.4739988
  53.5790012  91.0754997  10.1749988  53.2104679  90.2999443  10.3156815
  53.6030012  78.4554997  11.7299988  52.8670012  79.0664997  11.6919988
  54.2860012  78.8704997  11.2029988  53.5946541  78.5951374  11.6535832
  46.6060012  76.5424997   9.1959988  46.4890012  75.5934997   9.1409988
  45.7510012  76.8744997   9.4689988  46.4743733  76.4575409   9.2253897
  51.5540012  91.9504997   6.9379988  51.9800012  91.2434997   6.4529988
  51.8710012  92.7514997   6.5209988  51.6551019  91.9620994   6.8153130
  52.7140012  89.8514997   5.4459988  52.4560012  89.1614997   4.8349988
  52.7850012  89.4084997   6.2919988  52.6882856  89.6972124   5.4766885
  54.4000012  88.4174997  13.9239988  54.5400012  87.8264997  13.1839988
  54.5670012  89.2904997  13.5669988  54.4416778  88.4546426  13.7746965
  48.8730012  85.3794997   3.6959988  48.1610012  85.9144997   3.3439988
  49.5640012  85.4354997   3.0359988  48.8690132  85.4602543   3.5586289
  48.9260012  83.8374997   0.7349988  49.6270012  83.8594997   1.3859988
  49.2290012  83.2094997   0.0789988  49.0627830  83.7556566   0.7353711
  56.2420012  84.7574997  11.9899988  55.5890012  85.4524997  12.0789988
  56.7070012  84.9674997  11.1799988  56.2155390  84.8809425  11.8926883
  52.2780012  85.5894997   4.6479988  51.5460012  85.8174997   5.2209988
  52.7260012  84.8754997   5.1029988  52.2383095  85.5242571   4.7879119
  52.1760012  83.7634997  13.7149988  52.2560012  84.5264997  14.2869988
  51.5740012  84.0424997  13.0249988  52.1055756  83.9057134  13.7000589
  43.9240012  86.2194997   6.5299988  43.5930012  85.8494997   5.7119988
  44.5120012  85.5494997   6.8769988  43.9581873  86.0781156   6.4648102
  45.2900012  89.6474997   9.2119988  45.1960012  89.0694997   8.4549988
  46.0200012  89.2764997   9.7079988  45.3757981  89.5182390   9.1754165
  44.2900012  84.9884997  10.1639988  44.8560012  85.1094997   9.4009988
  44.6090012  85.6254997  10.8029988  44.4105786  85.0911884  10.1460040
  50.5990012  90.4914997  10.8979988  50.3590012  91.1534997  11.5459988
  50.4010012  89.6574997  11.3229988  50.5393808  90.4693134  11.0441524
  45.1700012  89.3874997  14.8809988  44.8590012  90.1694997  15.3359988
  44.5200012  89.2344997  14.1949988  45.0395558  89.4739105  14.8505871
  51.1490012  84.7514997   2.3329988  51.7290012  84.9014997   3.0799988
  51.5630012  85.2224997   1.6099988  51.2842830  84.8356841   2.3374134
  42.0900012  85.5854997  14.1099988  42.1610012  86.2364997  14.8079988
  41.2000012  85.6884997  13.7749988  41.9793117  85.6885936  14.1602700
  48.8760012  91.4884997   5.7679988  49.3500012  91.7834997   6.5459988
  48.3130012  92.2264997   5.5349988  48.8647653  91.6286932   5.8430136
  43.4100012  91.4594997  15.6439988  43.4170012  91.3234997  14.6969988
  42.4940012  91.3414997  15.8959988  43.2871714  91.4249430  15.5484666
  54.8480012  76.5014997   2.1459988  53.9480012  76.6404997   2.4409988
  55.1000012  77.3324997   1.7439988  54.7588702  76.6329074   2.1320205
  42.9140012  85.2894997   4.1199988  42.6220012  86.0574997   3.6289988
  42.2400012  84.6294997   3.9569988  42.7829081  85.3054406   4.0307340
  56.0370012  90.8674997   0.5219988  56.1110012  91.8064997   0.6929988
  56.9430012  90.5624997   0.4659988  56.1695100  90.9546722   0.5378119
  39.0070012  87.6524997  12.9349988  38.5060012  87.6244997  12.1199988
  39.0120012  86.7464997  13.2439988  38.9391526  87.5262278  12.8652872
  38.7570012  90.4324997   9.8189988  39.7030012  90.2884997   9.7999988
  38.6450012  91.2164997  10.3559988  38.8712727  90.5188046   9.8890072
  56.9550012  91.0984997  15.5009988  56.9060012  90.1434997  15.4639988
  56.1280012  91.3664997  15.9019988  56.8364940  91.0038998  15.5501375
  47.9340012  90.6724997  14.3769988  48.0210012  91.4984997  14.8519988
  47.0700012  90.3424997  14.6259988  47.8291964  90.7409878  14.4756549
  48.3480012  94.4444997   4.1829988  48.2730012  94.3234997   3.2369988
  48.3810012  95.3944997   4.3019988  48.3421848  94.5562500   4.0694834
  42.0010012  93.2334997   5.9639988  42.1540012  92.8854997   6.8429988
  41.1510012  92.8774997   5.7089988  41.9068962  93.1376650   6.0498340
  51.4500012  93.5984997   1.1849988  51.8250012  92.8544997   0.7149988
  51.4540012  93.3284997   2.1039988  51.5018915  93.4601486   1.2447824
  51.1190012  93.5244997   3.9349988  50.1830012  93.6244997   4.1129988
  51.3990012  92.8154997   4.5129988  51.0288255  93.4422711   4.0375391
  54.1070012  82.5914997  15.9809988  53.7000012  83.0724997  15.2599988
  54.1480012  81.6864997  15.6729988  54.0568437  82.5349374  15.8406683
  41.2560012  88.9754997  13.9779988  41.4720012  88.6144997  14.8369988
  40.4010012  88.6014997  13.7679988  41.1699292  88.8754111  14.0673386
  43.8750012  77.4454997   9.9729988  43.0130012  77.3584997   9.5659988
  43.8520012  78.3014997  10.4009988  43.7540330  77.5492765   9.9751863
  48.5380012  77.1674997  13.3479988  48.9580012  76.7524997  14.1009988
  47.6050012  76.9894997  13.4649988  48.4693644  77.0865900  13.4669539
  51.8640012  80.9234997  14.2009988  51.3500012  80.7974997  14.9989988
  51.7090012  81.8354997  13.9569988  51.7726852  81.0296132  14.2772158
  52.6270012  85.7844997  -0.0370012  52.6690012  85.5614997  -0.9670012
  53.4760012  86.1834997   0.1529988  52.7475396  85.8079155  -0.1386373
  48.1990012  79.6604997   0.6329988  47.9460012  79.6794997   1.5559988
  47.9430012  78.7884997   0.3319988  48.1297790  79.5452437   0.7186263
  43.9660012  82.4114997  11.0679988  43.3240012  82.3704997  11.7769988
  44.0030012  83.3374997  10.8309988  43.8831324  82.5311559  11.1329824
  43.9630012  82.6324997   5.9799988  43.0700012  82.2914997   5.9219988
  44.4130012  82.2554997   5.2249988  43.9017305  82.5348484   5.8699177
  49.4980012  83.0484997   4.7969988  49.0890012  83.8634997   4.5059988
  50.2190012  82.9084997   4.1829988  49.5394537  83.1412018   4.6741342
  48.6000012  83.2234997  16.2849988  48.0380012  82.5194997  16.6059988
  49.4270012  83.1034997  16.7529988  48.6347095  83.1107883  16.3922330
  50.5030012  82.4944997   7.6109988  50.3080012  83.0994997   6.8959988
  50.6840012  81.6604997   7.1769988  50.5007614  82.4646300   7.4544405
  41.7160012  82.7314997  12.9349988  41.6780012  83.1314997  13.8039988
  41.2250012  81.9144997  13.0259988  41.6444684  82.6758069  13.0661059
  45.0820012  80.1054997  -0.2660012  44.6510012  79.6604997   0.4639988
  44.3640012  80.4774997  -0.7780012  44.9259438  80.0948940  -0.2353201
  38.3240012  79.8474997   6.7859988  38.9550012  79.8184997   7.5049988
  38.7730012  79.4224997   6.0559988  38.4710774  79.7860492   6.7856553
  39.5980012  80.5934997   2.2099988  40.0720012  81.1844997   1.6249988
  38.8810012  81.1244997   2.5569988  39.5659341  80.7460867   2.1768836
  49.7670012  84.1324997  12.2829988  50.0900012  83.5014997  11.6399988
  49.3270012  83.5974997  12.9429988  49.7516895  83.9738441  12.2842850
  46.5440012  80.0594997   7.0669988  45.6330012  80.1164997   7.3549988
  47.0500012  79.9994997   7.8769988  46.4875413  80.0591985   7.2160622
  41.3730012  81.6884997   5.8929988  40.4830012  81.7884997   5.5529988
  41.6690012  80.8464997   5.5469988  41.2912823  81.5883545   5.7997213
  45.0260012  81.6884997   3.5499988  45.9570012  81.8174997   3.7279988
  44.8110012  82.3584997   2.8999988  45.1244247  81.7966565   3.4865747
  50.9490012  79.2944997  10.3309988  50.2730012  79.4254997  10.9949988
  50.4640012  79.1394997   9.5209988  50.7907145  79.2914905  10.3124517
  43.7000012  82.8834997   1.1169988  43.1570012  82.5034997   0.4249988
  44.5330012  83.0774997   0.6879988  43.7384399  82.8578124   0.9644526
  54.2370012  94.9664997  16.6079988  54.4370012  95.3904997  15.7729988
  54.8920012  95.3094997  17.2149988  54.3530051  95.0709648  16.5757836
  41.8350012  87.4404997  16.2159988  42.5670012  87.6944997  16.7769988
  41.0550012  87.6444997  16.7309988  41.8298232  87.5029177  16.3625760
  47.8640012  82.8474997   8.9539988  48.4290012  82.3004997   8.4069988
  47.7170012  82.3254997   9.7419988  47.9212918  82.7022024   8.9858454
  42.8660012  78.9834997   5.3719988  42.5490012  78.0814997   5.3369988
  43.6480012  78.9854997   4.8189988  42.9282284  78.8601628   5.2924783
  46.4910012  81.2354997  11.3679988  45.6550012  81.6894997  11.4779988
  47.0150012  81.5114997  12.1199988  46.4474414  81.3349376  11.4847136
  47.0350012  87.4484997   3.0519988  46.2900012  86.9414997   2.7299988
  46.9010012  87.4974997   3.9989988  46.9148776  87.3856940   3.1358647
  54.1850012  86.5814997  11.8389988  54.8270012  87.0384997  11.2949988
  53.3550012  86.6944997  11.3759988  54.1605963  86.6592704  11.7020177
  50.9330012  80.2624997   1.2519988  49.9940012  80.3744997   1.0999988
  51.2300012  81.1194997   1.5579988  50.8447666  80.3936443   1.2725768
  48.5540012  87.6324997  14.2889988  48.2090012  87.2514997  15.0959988
  48.3540012  88.5664997  14.3609988  48.4798061  87.7065228  14.4090961
  51.6510012  82.1294997   2.9119988  52.5430012  81.9924997   3.2309988
  51.7080012  82.9204997   2.3759988  51.7806285  82.2176660   2.8831691
  42.1600012  86.7434997   8.8219988  42.9050012  86.7414997   8.2209988
  42.2380012  85.9204997   9.3039988  42.2725518  86.6319315   8.8048929
  49.1610012  88.9074997   2.0779988  48.8650012  89.7334997   2.4589988
  48.4580012  88.2874997   2.2739988  49.0254914  88.9368199   2.1566443
  39.1680012  85.2044997  14.1369988  39.3910012  84.7864997  14.9689988
  38.5660012  84.5914997  13.7139988  39.1171759  85.0644668  14.1937022
  46.1840012  84.7214997  16.3499988  45.8880012  84.5554997  15.4549988
  47.1160012  84.5014997  16.3389988  46.2694166  84.6690640  16.2260536
  50.8050012  90.0944997  14.2399988  49.9040012  90.2774997  13.9719988
  50.8390012  90.3534997  15.1609988  50.6863041  90.1545512  14.3278197
  56.5360012  82.3394997   2.6069988  55.9820012  81.9434997   1.9349988
  56.6360012  83.2494997   2.3289988  56.4737059  82.4083586   2.4774401
  56.4990012  88.1394997  15.4439988  55.6480012  88.3774997  15.0769988
  57.0900012  88.1224997  14.6909988  56.4622487  88.1698258  15.2918893
  54.8310012  91.1254997   3.0719988  54.4580012  90.2994997   3.3809988
  55.1090012  90.9424997   2.1749988  54.8175630  90.9877303   2.9929626
  51.9920012  85.9334997  10.0929988  51.0630012  85.7014997  10.0659988
  52.4430012  85.1564997   9.7629988  51.9259216  85.7967238  10.0446917
  44.5350012  90.2614997   6.2259988  45.0620012  91.0344997   6.0259988
  43.6550012  90.4864997   5.9249988  44.4881773  90.3978005   6.1579010
  40.2900012  85.1234997   0.8129988  40.9060012  85.7504997   1.1929988
  39.4280012  85.4394997   1.0849988  40.2577698  85.2519430   0.9017183
  45.9620012  87.9244997   5.8029988  45.7210012  88.8494997   5.8439988
  45.2210012  87.4654997   6.1989988  45.8288409  87.9891421   5.8621377
  46.4770012  92.0734997  12.1179988  46.8390012  92.9284997  11.8839988
  47.0080012  91.7814997  12.8579988  46.5984473  92.1511060  12.1860855
  44.6450012  92.9464997   5.3479988  43.6950012  93.0514997   5.3989988
  44.9970012  93.7664997   5.6929988  44.5624203  93.0718314   5.4016650
  50.0210012  88.1724997  11.8179988  49.5950012  87.9454997  12.6449988
  50.6010012  87.4344997  11.6359988  50.0411868  88.0415299  11.9065830
  52.2240012  89.1014997   0.8919988  52.5770012  88.7214997   1.6969988
  51.2750012  89.0084997   0.9789988  52.1440441  89.0369596   1.0138559
  52.6790012  92.7244997  14.2879988  52.0780012  92.1694997  13.7919988
  52.9610012  93.3914997  13.6619988  52.6348519  92.7386841  14.1354951
  56.7270012  93.5814997   1.0929988  57.4710012  94.1674997   0.9529988
  56.0330012  94.1494997   1.4269988  56.7350292  93.7385582   1.1189961
  40.8020012  79.9574997  13.6949988  39.9090012  80.2964997  13.6269988
  40.7030012  79.1024997  14.1129988  40.6664164  79.8882588  13.7422235
  53.0900012  87.7744997   3.1189988  52.8120012  87.0464997   3.6749988
  54.0170012  87.8934997   3.3239988  53.1773124  87.6908802   3.2228845
  40.4530012  91.7624997  12.1299988  40.6700012  90.8304997  12.0989988
  40.6990012  92.0364997  13.0129988  40.5159549  91.6720636  12.2451763
  46.3150012  90.2134997  -0.6610012  46.5540012  89.4654997  -1.2080012
  46.0460012  89.8254997   0.1719988  46.3113675  90.0586638  -0.6233135
  45.2520012  89.7834997   1.7959988  45.3980012  89.2634997   2.5859988
  45.2490012  90.6904997   2.1019988  45.2715989  89.8348853   1.9456088
  41.7050012  87.0364997   2.3059988  41.0190012  87.3884997   2.8729988
  42.2270012  87.7994997   2.0589988  41.6816852  87.1878578   2.3502118
  49.5360012  79.6984997  12.5849988  50.2350012  79.7724997  13.2349988
  49.1550012  78.8344997  12.7389988  49.5801767  79.5917624  12.6948322
  50.3210012  79.3504997   3.6819988  50.5410012  79.8224997   2.8789988
  50.8790012  79.7454997   4.3519988  50.4264968  79.4684285   3.6627331
  47.9890012  91.4814997   2.5449988  47.1730012  91.9784997   2.5969988
  48.5190012  91.9564997   1.9049988  47.9489161  91.6137722   2.4655956
  47.5210012  81.0784997   4.5169988  48.3330012  81.5834997   4.5629988
  47.2760012  80.9334997   5.4309988  47.5990520  81.1280375   4.6468517
  48.0560012  82.0644997  13.7019988  48.1750012  82.6384997  14.4589988
  48.7120012  81.3764997  13.8159988  48.1609757  82.0501079  13.8210825
  48.4040012  78.1594997   5.4549988  48.0580012  78.7774997   6.0999988
  49.0630012  78.6604997   4.9739988  48.4457826  78.3115802   5.4780971
  45.3280012  92.5254997   2.5269988  45.4880012  93.3244997   2.0259988
  45.1300012  92.8314997   3.4119988  45.3231649  92.6764469   2.5779815
  44.0620012  79.2224997   2.1419988  43.9790012  80.1114997   2.4889988
  44.9520012  78.9574997   2.3739988  44.1709469  79.3081430   2.2207626
  54.2610012  79.9714997  14.5369988  53.3440012  80.2344997  14.4489988
  54.5960012  79.9684997  13.6399988  54.1809900  80.0070224  14.4037919
  52.8630012  83.7224997   8.6319988  52.0650012  83.3074997   8.3039988
  53.3080012  83.0314997   9.1229988  52.8139885  83.5723543   8.6534889
  42.3210012  89.6504997   1.2029988  42.9130012  90.3494997   1.4789988
  42.7800012  89.2174997   0.4829988  42.4641142  89.6877049   1.1434830
  40.6370012  82.3144997   0.3189988  40.5920012  83.2534997   0.4969988
  39.7490012  82.0784997   0.0489988  40.5108574  82.4111892   0.3068912
  53.9490012  92.9784997  10.2549988  53.7940012  93.6564997   9.5979988
  54.8820012  93.0504997  10.4579988  54.0538500  93.0810170  10.1925119
  41.4450012  77.0964997   8.9919988  41.2160012  77.1554997   8.0639988
  41.0020012  76.3044997   9.2979988  41.3538530  76.9975753   8.9064786
  40.3750012  91.0364997   5.1519988  39.5430012  91.5094997   5.1799988
  40.9210012  91.5464997   4.5539988  40.3349739  91.1701871   5.0749716
  39.6630012  93.6494997  16.4819988  40.2040012  93.4324997  17.2419988
  39.1820012  92.8434997  16.2929988  39.6719345  93.5109514  16.5603076
  44.2610012  92.5684997  18.1029988  45.0280012  92.1094997  18.4439988
  44.2390012  92.3424997  17.1729988  44.3631434  92.4750409  18.0240043
  48.3530012  92.0764997  -0.5220012  47.7090012  91.4454997  -0.2010012
  49.1150012  91.5454997  -0.7540012  48.3678077  91.9182920  -0.5093989
  50.8380012  90.9484997  16.8319988  50.4870012  90.0924997  17.0749988
  51.5640012  91.0914997  17.4389988  50.8880769  90.8505636  16.9473619
  52.9570012  91.8934997  -0.2880012  53.2400012  91.0994997   0.1639988
  53.6970012  92.1264997  -0.8490012  53.0957486  91.8162803  -0.3019302
  39.5700012  87.4594997  17.4369988  39.7140012  86.5574997  17.1499988
  38.7980012  87.7454997  16.9489988  39.4853322  87.3748261  17.3317881
  43.9120012  87.8034997  -0.4310012  43.9760012  87.0094997   0.0999988
  44.5650012  87.6844997  -1.1210012  44.0090241  87.6787148  -0.4515683
  46.2260012  87.4294997  16.8689988  45.8970012  87.7004997  16.0119988
  46.3780012  86.4884997  16.7819988  46.2014809  87.3393862  16.7398244
  49.2640012  88.8504997  -0.6950012  48.9950012  89.0304997   0.2059988
  49.0580012  87.9244997  -0.8260012  49.1993825  88.7500152  -0.5894786
  51.9600012  87.3454997  14.2529988  52.7060012  87.9334997  14.1329988
  51.2030012  87.9274997  14.3159988  51.9597554  87.5047011  14.2450907
  40.4030012  84.6594997  16.8569988  40.8110012  83.8024997  16.7359988
  40.1430012  84.6744997  17.7779988  40.4237568  84.5440807  16.9649588
  45.0610012  85.7754997   1.8749988  44.6010012  85.2914997   2.5609988
  45.3160012  85.1074997   1.2389988  45.0324902  85.6188731   1.8829334
  44.3500012  83.6684997  14.2309988  43.7320012  84.3434997  14.5109988
  44.6940012  83.9894997  13.3979988  44.3119615  83.8042721  14.1566581
  46.1320012  84.0184997   0.1369988  45.9520012  83.8644997  -0.7900012
  47.0820012  84.1264997   0.1819988  46.2357776  84.0120175   0.0161843
  49.3700012  86.1404997  17.5079988  50.3230012  86.2234997  17.4809988
  49.2090012  85.4284997  18.1279988  49.4786426  86.0556746  17.5880579
  55.5220012  86.3734997  -0.4170012  55.2480012  85.9484997  -1.2300012
  55.5610012  87.3044997  -0.6340012  55.4897699  86.4412484  -0.5576390
  44.6890012  81.0234997  15.3129988  44.8390012  80.2944997  14.7109988
  44.6920012  81.8004997  14.7539988  44.7099302  81.0287851  15.1550692
  45.1020012  79.3934997  12.8059988  45.6380012  79.8444997  12.1539988
  44.2500012  79.2854997  12.3829988  45.0602178  79.4406390  12.6595756
  46.6840012  84.8324997  13.0449988  47.4340012  84.6764997  12.4719988
  46.3450012  85.6844997  12.7699988  46.7408921  84.9262968  12.9293561
  51.0990012  82.6474997  18.0739988  51.2920012  81.7164997  17.9619988
  51.9570012  83.0724997  18.0639988  51.2413020  82.5776389  18.0573361
  52.4160012  85.4364997  16.1509988  52.1350012  86.1454997  15.5739988
  53.3590012  85.3634997  15.9999988  52.5049027  85.5237646  16.0515551
  43.1680012  82.2214997  17.2249988  42.4010012  81.6894997  17.0149988
  43.8470012  81.9114997  16.6249988  43.1547022  82.1067506  17.1151648
  45.9080012  76.8494997  13.2369988  45.8090012  77.7964997  13.1319988
  45.1650012  76.4774997  12.7619988  45.7940564  76.9285902  13.1584560
  47.1720012  81.1714997  16.8009988  46.9360012  80.9514997  17.7029988
  46.3880012  80.9644997  16.2909988  47.0338628  81.1134760  16.8553932
  49.8870012  80.2984997  15.8769988  48.9400012  80.3304997  16.0089988
  50.2000012  79.6734997  16.5299988  49.7995475  80.2183207  15.9834455
  51.5210012  78.9324997  17.8819988  51.4250012  77.9804997  17.8759988
  51.2000012  79.2014997  18.7419988  51.4644070  78.8384035  17.9975441
  41.3480012  80.1424997  16.9289988  41.5600012  79.4354997  16.3189988
  41.2370012  79.7044997  17.7729988  41.3619721  79.9867084  16.9596843
  46.1290012  76.1434997  15.9089988  46.8410012  75.5034997  15.8949988
  46.0280012  76.4104997  14.9949988  46.2127939  76.0919938  15.7835650
  46.4830012  77.8264997  17.9619988  46.3510012  77.3504997  17.1419988
  45.8840012  78.5704997  17.9069988  46.3839071  77.8619618  17.8422886
  46.0290012  94.7094997   1.1389988  46.9620012  94.8674997   1.2819988
  45.7650012  95.3844997   0.5139988  46.1209510  94.8223611   1.0740741
  39.5980012  89.3454997   0.6209988  40.5120012  89.4244997   0.8949988
  39.6050012  88.6584997  -0.0450012  39.7241131  89.2633961   0.5684393
  38.2470012  94.7384997   5.6989988  37.6000012  94.2764997   5.1659988
  38.6010012  94.0664997   6.2809988  38.2063849  94.5844723   5.7047959
  39.1170012  92.8194997   7.5029988  38.7820012  91.9394997   7.6749988
  39.3390012  93.1644997   8.3679988  39.1011783  92.7457500   7.6434208
  56.6650012  93.6284997  10.4839988  56.6440012  93.8134997  11.4229988
  57.3560012  94.1974997  10.1429988  56.7554618  93.7306606  10.5663864
  56.2290012  93.1964997  13.4059988  55.7410012  92.4604997  13.0349988
  56.7780012  92.8024997  14.0839988  56.2364872  93.0426249  13.4469160
  54.6790012  88.9854997  18.0439988  53.8130012  88.8804997  18.4379988
  55.0560012  89.7444997  18.4899988  54.6113308  89.0736900  18.1582393
  55.9800012  87.2424997   3.5579988  56.8300012  87.6634997   3.6849988
  55.9860012  86.5024997   4.1649988  56.0971372  87.2000803   3.6574344
  56.3750012  85.2954997   5.3819988  55.6480012  84.8164997   5.7789988
  56.9560012  85.5014997   6.1139988  56.3539375  85.2577090   5.5354129
  56.1340012  88.0804997  10.3289988  56.9670012  87.7024997  10.0489988
  56.2460012  89.0234997  10.2099988  56.2632647  88.1562218  10.2745487
  54.6200012  90.9584997  12.6359988  53.9730012  91.2834997  13.2619988
  54.1030012  90.5184997  11.9619988  54.4614029  90.9435004  12.6305827
  56.6430012  85.1964997   1.7729988  56.1210012  85.5534997   1.0539988
  56.6100012  85.8714997   2.4509988  56.5671634  85.3365413   1.7663145
  54.9920012  82.4364997   0.3239988  55.0880012  83.1034997  -0.3570012
  54.8520012  81.6204997  -0.1580012  54.9862135  82.4174500   0.1658491
  54.1610012  83.8164997   5.9449988  54.0110012  82.8714997   5.9239988
  53.8080012  84.0974997   6.7879988  54.0926625  83.7250441   6.0562346
  39.1970012  85.8944997   9.9549988  39.3810012  85.8124997   9.0189988
  40.0460012  85.7704997  10.3789988  39.3370139  85.8665003   9.8841455
  55.0180012  85.7864997  15.5829988  55.6010012  85.0524997  15.7749988
  55.5820012  86.5584997  15.6299988  55.1739769  85.7904227  15.6156159
  56.5140012  83.6894997  16.2679988  55.6510012  83.3104997  16.1019988
  57.1190012  82.9504997  16.1939988  56.4775979  83.5378023  16.2352817
  54.2390012  79.8444997  -0.5590012  54.8500012  79.4734997   0.0779988
  53.4030012  79.4234997  -0.3630012  54.2095032  79.7367554  -0.4452965
  53.8720012  81.3994997   4.4069988  54.1520012  80.4924997   4.5309988
  54.6310012  81.8334997   4.0179988  54.0129277  81.3340942   4.3713682
  54.4840012  81.9804997   9.8429988  55.4170012  82.1924997   9.8089988
  54.2490012  82.0824997  10.7649988  54.5798036  82.0232769   9.9629976
  54.5130012  82.7174997  12.6189988  53.6700012  82.9854997  12.9849988
  54.9550012  83.5394997  12.4079988  54.4574158  82.8653291  12.6405491
  38.7940012  81.1654997  16.0959988  39.7140012  81.0434997  16.3319988
  38.3450012  80.4154997  16.4849988  38.8591580  81.0473727  16.1809006
  56.7960012  76.6974997  17.9719988  57.1460012  76.0434997  17.3669988
  56.9430012  77.5344997  17.5329988  56.8638419  76.7211591  17.8297118
  54.4850012  78.6624997   4.4549988  54.6680012  78.2134997   5.2809988
  53.8860012  78.0774997   3.9919988  54.4290202  78.5219975   4.5053275
  40.0150012  79.4774997   8.9869988  40.4610012  78.6854997   9.2889988
  40.4820012  80.1934997   9.4179988  40.1390172  79.4660624   9.0864820
  38.3190012  82.4764997  10.0559988  38.8110012  82.2554997   9.2649988
  38.6820012  83.3174997  10.3369988  38.4353126  82.5598357   9.9857531
  56.3160012  78.8064997  16.3219988  55.3980012  79.0774997  16.2859988
  56.4390012  78.2714997  15.5369988  56.2071066  78.7712892  16.2110487
  56.3520012  78.7294997   0.9829988  56.7640012  78.0084997   0.5079988
  57.0340012  79.3994997   1.0419988  56.5005885  78.7212368   0.9258915
  38.6330012  78.7344997   4.1099988  37.7080012  78.9434997   3.9809988
  39.0870012  79.2184997   3.4209988  38.5677368  78.8285993   3.9991226
  53.4040012  93.7184997   6.0559988  54.0560012  93.3714997   5.4479988
  53.9140012  94.2074997   6.7019988  53.5622637  93.7370597   6.0600236
  38.5970012  77.4724997  12.4549988  37.9320012  77.2264997  13.0979988
  38.1540012  78.0944997  11.8769988  38.4460956  77.5228632  12.4649352
  40.7890012  90.6474997  16.5989988  39.9680012  90.8224997  16.1389988
  40.5360012  90.5744997  17.5199988  40.6426164  90.6615622  16.6604923
  43.7430012  91.6224997  12.8579988  43.3180012  92.4314997  12.5749988
  44.6470012  91.7074997  12.5559988  43.8070271  91.7448469  12.7783776
  48.0540012  93.0214997  15.8169988  48.2390012  92.6874997  16.6949988
  48.9000012  93.3304997  15.4949988  48.1937539  93.0176047  15.8935605
  50.3990012  94.3074997  15.0609988  51.0760012  93.6744997  14.8209988
  50.7210012  94.7084997  15.8679988  50.5351637  94.2751154  15.1372793
  55.3160012  76.8964997  14.1409988  54.5040012  77.2214997  13.7529988
  55.5490012  76.1364997  13.6079988  55.2363423  76.8382436  14.0158253
  41.1450012  94.8784997  12.9049988  40.4240012  95.3184997  12.4539988
  40.7790012  94.6274997  13.7539988  40.9969804  94.9047698  12.9579840
  43.6120012  94.4784997  11.9349988  42.7470012  94.5504997  12.3389988
  43.5570012  95.0254997  11.1509988  43.4862085  94.5622685  11.8843362
  48.3220012  94.3664997  11.1099988  47.8660012  94.8954997  10.4559988
  48.4850012  94.9694997  11.8359988  48.2815585  94.5204468  11.1185062
  50.6500012  93.2444997  12.0549988  49.7450012  93.4094997  11.7899988
  51.0790012  94.0974997  11.9899988  50.5840799  93.3824483  12.0099182
  53.2540012  94.8144997  12.3499988  53.0720012  95.7304997  12.1399988
  53.4310012  94.4044997  11.5039988  53.2530210  94.8844822  12.2067885
  40.5590012  93.5014997   9.8149988  40.5410012  93.0764997  10.6729988
  41.3640012  93.1834997   9.4069988  40.6653875  93.4003812   9.8771655
  42.7010012  92.2114997   8.4699988  42.4820012  91.2954997   8.6399988
  43.5250012  92.3514997   8.9359988  42.7824420  92.1050520   8.5562774
  45.2380012  92.6814997   9.3189988  45.4510012  91.7934997   9.0319988
  45.3020012  92.6474997  10.2729988  45.2758232  92.5553102   9.4087397
  48.7460012  78.3454997   8.4629988  48.0720012  77.7164997   8.7189988
  49.3100012  77.8614997   7.8599988  48.7299230  78.1938744   8.4165340
  53.8890012  76.4534997   8.5759988  54.4930012  77.0004997   8.0739988
  53.0190012  76.7724997   8.3359988  53.8541241  76.5715806   8.4747654
  55.6160012  77.5914997   6.9089988  56.2280012  77.0774997   6.3829988
  55.9980012  78.4694997   6.9329988  55.7514540  77.6397140   6.8401830
  41.0730012  76.9794997   6.2849988  40.2960012  76.7454997   5.7779988
  41.6030012  76.1824997   6.2939988  41.0382330  76.8396988   6.2167742
  39.9090012  76.7774997   2.0889988  40.3480012  77.3884997   1.4969988
  39.2760012  77.3154997   2.5629988  39.8834514  76.9339257   2.0720930
  45.6520012  76.9064997   6.0989988  46.5270012  77.2944997   6.0689988
  45.5160012  76.6914997   7.0209988  45.7533695  76.9305184   6.2196440
  51.2090012  76.9364997   7.7479988  51.2850012  77.0314997   6.7979988
  50.9340012  76.0284997   7.8769988  51.1822321  76.8267867   7.6355079
  52.5620012  76.9624997   3.4399988  51.8600012  77.5774997   3.2309988
  52.1180012  76.1244997   3.5709988  52.4056330  76.9335783   3.4290328
  39.8100012  92.7254997   2.9869988  39.1250012  92.6874997   2.3189988
  39.8140012  93.6384997   3.2749988  39.7168193  92.8437016   2.9345284
  41.7700012  78.6934997   0.5309988  42.2620012  78.0634997   0.0039988
  42.3940012  78.9894997   1.1949988  41.9215446  78.6473199   0.5485980
  46.7960012  78.9864997   2.9879988  46.9740012  78.3404997   3.6709988
  46.7430012  79.8204997   3.4559988  46.8131829  79.0107985   3.1445940
  48.6750012  93.9354997   1.3839988  49.5410012  94.3014997   1.2059988
  48.4280012  93.4954997   0.5699988  48.7602392  93.9261756   1.2496289
  55.3840012  93.4984997   4.0629988  55.1890012  92.7504997   3.4979988
  55.3450012  94.2564997   3.4799988  55.3520380  93.4986099   3.9068384
  41.0310012  77.4934997  15.8029988  40.6650012  76.7284997  16.2459988
  41.9440012  77.5224997  16.0899988  41.1042790  77.3927224  15.9024070
  43.0040012  76.8444997  17.3389988  43.9020012  76.5704997  17.1539988
  42.6170012  76.1014997  17.8029988  43.0746612  76.7065914  17.3763643
  41.6280012  93.6454997   0.0119988  41.3610012  93.9324997   0.8849988
  42.4000012  93.0994997   0.1639988  41.6957488  93.6110294   0.1521050
  51.4250012  76.1764997  17.5209988  51.5020012  75.7504997  18.3749988
  52.3190012  76.1904997  17.1779988  51.5563428  76.1200879  17.5915310
  54.6010012  92.2494997  16.2129988  53.8190012  92.0634997  15.6939988
  54.5290012  93.1784997  16.4309988  54.4841777  92.3496492  16.1714048
  69.0070012  86.1354997   6.2439988  69.0960012  87.0794997   6.1119988
  68.3690012  85.8604997   5.5859988  68.9329081  86.2274830   6.1369614
  67.9400012  85.3904997   9.6629988  67.9020012  84.7444997  10.3679988
  67.6180012  84.9244997   8.8919988  67.8912333  85.2389408   9.6552978
  60.3090012  85.0054997  11.2559988  60.3500012  84.3794997  11.9789988
  61.0120012  85.6294997  11.4379988  60.4096363  85.0041196  11.3796044
  71.6460012  88.3294997   7.9639988  71.2060012  87.6094997   8.4149988
  71.6330012  89.0504997   8.5939988  71.5840226  88.3283731   8.1108494
  61.2320012  89.4554997   9.7909988  60.8630012  88.6534997   9.4209988
  62.1730012  89.2864997   9.8369988  61.3087289  89.3230153   9.7466316
  57.8420012  83.1154997   5.1839988  57.3950012  83.9614997   5.1649988
  57.2810012  82.5354997   4.6679988  57.7049900  83.1529916   5.1116801
  58.5530012  85.2774997   7.3099988  58.7660012  84.5074997   7.8369988
  59.2910012  85.3664997   6.7059988  58.6818496  85.1841394   7.3005300
  68.7580012  93.4344997   8.1769988  69.3780012  92.7574997   7.9029988
  68.5500012  93.2164997   9.0849988  68.8146904  93.3123870   8.2623365
  66.3300012  87.8234997  10.0689988  66.6340012  87.1374997   9.4739988
  67.0510012  87.9414997  10.6869988  66.4690671  87.7456305  10.0711816
  74.9930012  79.4244997  10.9299988  75.0420012  80.0344997  11.6659988
  75.4180012  79.8854997  10.2069988  75.0571824  79.5703741  10.9330205
  69.4710012  82.2174997  10.3969988  69.6130012  81.2714997  10.4169988
  69.3640012  82.4244997   9.4679988  69.4759864  82.1159534  10.2742339
  62.6250012  80.3184997   7.6689988  62.6690012  81.1784997   7.2509988
  62.1680012  79.7664997   7.0349988  62.5692185  80.3615799   7.5260299
  70.3480012  80.4494997   6.0699988  70.9940012  80.1204997   6.6949988
  70.8580012  80.9674997   5.4469988  70.5054264  80.4744611   6.0713862
  59.2460012  82.7154997   8.4309988  59.8990012  82.1654997   8.8629988
  59.2700012  82.4414997   7.5139988  59.3386683  82.6031466   8.3662123
  64.4020012  84.2654997   7.6459988  65.0180012  83.7394997   8.1559988
  63.8160012  83.6254997   7.2429988  64.4070810  84.1069208   7.6613173
  75.3840012  80.9024997  13.1659988  74.6960012  81.5604997  13.0699988
  75.4000012  80.7054997  14.1019988  75.2918525  80.9660462  13.2794808
  61.4360012  79.2364997  11.7429988  61.2170012  79.7664997  10.9769988
  60.7680012  79.4634997  12.3899988  61.3157600  79.3396906  11.7256379
  68.8050012  88.7364997   5.2869988  68.5090012  88.4144997   4.4359988
  68.4800012  89.6364997   5.3279988  68.7206371  88.8140215   5.1761801
  64.0050012  86.9124997  12.0299988  63.2650012  87.5104997  12.1339988
  64.7190012  87.4664997  11.7149988  64.0002237  87.0692831  12.0016465
  72.1120012  79.7404997   8.0499988  71.8960012  78.9744997   8.5829988
  72.7670012  80.2124997   8.5629988  72.1710632  79.6995889   8.1922861
  61.0290012  81.1284997   9.6949988  61.6430012  81.7614997  10.0689988
  61.5410012  80.6564997   9.0389988  61.1822296  81.1512370   9.6574252
  62.4120012  88.8764997  12.8179988  62.4070012  89.7564997  12.4399988
  61.5590012  88.7934997  13.2429988  62.2959464  88.9856117  12.8237907
  58.5330012  88.5474997   3.5999988  58.2610012  88.7764997   2.7109988
  58.5790012  89.3854997   4.0599988  58.5020094  88.6921213   3.5405697
  72.1580012  90.1694997  10.3119988  71.2170012  90.2274997  10.4739988
  72.4350012  91.0754997  10.1749988  72.0664679  90.2999443  10.3156815
  72.4590012  78.4554997  11.7299988  71.7230012  79.0664997  11.6919988
  73.1420012  78.8704997  11.2029988  72.4506541  78.5951374  11.6535832
  65.4620012  76.5424997   9.1959988  65.3450012  75.5934997   9.1409988
  64.6070012  76.8744997   9.4689988  65.3303733  76.4575409   9.2253897
  70.4100012  91.9504997   6.9379988  70.8360012  91.2434997   6.4529988
  70.7270012  92.7514997   6.5209988  70.5111019  91.9620994   6.8153130
  71.5700012  89.8514997   5.4459988  71.3120012  89.1614997   4.8349988
  71.6410012  89.4084997   6.2919988  71.5442856  89.6972124   5.4766885
  73.2560012  88.4174997  13.9239988  73.3960012  87.8264997  13.1839988
  73.4230012  89.2904997  13.5669988  73.2976778  88.4546426  13.7746965
  67.7290012  85.3794997   3.6959988  67.0170012  85.9144997   3.3439988
  68.4200012  85.4354997   3.0359988  67.7250132  85.4602543   3.5586289
  67.7820012  83.8374997   0.7349988  68.4830012  83.8594997   1.3859988
  68.0850012  83.2094997   0.0789988  67.9187830  83.7556566   0.7353711
  75.0980012  84.7574997  11.9899988  74.4450012  85.4524997  12.0789988
  75.5630012  84.9674997  11.1799988  75.0715390  84.8809425  11.8926883
  71.1340012  85.5894997   4.6479988  70.4020012  85.8174997   5.2209988
  71.5820012  84.8754997   5.1029988  71.0943095  85.5242571   4.7879119
  71.0320012  83.7634997  13.7149988  71.1120012  84.5264997  14.2869988
  70.4300012  84.0424997  13.0249988  70.9615756  83.9057134  13.7000589
  62.7800012  86.2194997   6.5299988  62.4490012  85.8494997   5.7119988
  63.3680012  85.5494997   6.8769988  62.8141873  86.0781156   6.4648102
  64.1460012  89.6474997   9.2119988  64.0520012  89.0694997   8.4549988
  64.8760012  89.2764997   9.7079988  64.2317981  89.5182390   9.1754165
  63.1460012  84.9884997  10.1639988  63.7120012  85.1094997   9.4009988
  63.4650012  85.6254997  10.8029988  63.2665786  85.0911884  10.1460040
  69.4550012  90.4914997  10.8979988  69.2150012  91.1534997  11.5459988
  69.2570012  89.6574997  11.3229988  69.3953808  90.4693134  11.0441524
  64.0260012  89.3874997  14.8809988  63.7150012  90.1694997  15.3359988
  63.3760012  89.2344997  14.1949988  63.8955558  89.4739105  14.8505871
  70.0050012  84.7514997   2.3329988  70.5850012  84.9014997   3.0799988
  70.4190012  85.2224997   1.6099988  70.1402830  84.8356841   2.3374134
  60.9460012  85.5854997  14.1099988  61.0170012  86.2364997  14.8079988
  60.0560012  85.6884997  13.7749988  60.8353117  85.6885936  14.1602700
  67.7320012  91.4884997   5.7679988  68.2060012  91.7834997   6.5459988
  67.1690012  92.2264997   5.5349988  67.7207653  91.6286932   5.8430136
  62.2660012  91.4594997  15.6439988  62.2730012  91.3234997  14.6969988
  61.3500012  91.3414997  15.8959988  62.1431714  91.4249430  15.5484666
  73.7040012  76.5014997   2.1459988  72.8040012  76.6404997   2.4409988
  73.9560012  77.3324997   1.7439988  73.6148702  76.6329074   2.1320205
  61.7700012  85.2894997   4.1199988  61.4780012  86.0574997   3.6289988
  61.0960012  84.6294997   3.9569988  61.6389081  85.3054406   4.0307340
  74.8930012  90.8674997   0.5219988  74.9670012  91.8064997   0.6929988
  75.7990012  90.5624997   0.4659988  75.0255100  90.9546722   0.5378119
  57.8630012  87.6524997  12.9349988  57.3620012  87.6244997  12.1199988
  57.8680012  86.7464997  13.2439988  57.7951526  87.5262278  12.8652872
  57.6130012  90.4324997   9.8189988  58.5590012  90.2884997   9.7999988
  57.5010012  91.2164997  10.3559988  57.7272727  90.5188046   9.8890072
  75.8110012  91.0984997  15.5009988  75.7620012  90.1434997  15.4639988
  74.9840012  91.3664997  15.9019988  75.6924940  91.0038998  15.5501375
  66.7900012  90.6724997  14.3769988  66.8770012  91.4984997  14.8519988
  65.9260012  90.3424997  14.6259988  66.6851964  90.7409878  14.4756549
  67.2040012  94.4444997   4.1829988  67.1290012  94.3234997   3.2369988
  67.2370012  95.3944997   4.3019988  67.1981848  94.5562500   4.0694834
  60.8570012  93.2334997   5.9639988  61.0100012  92.8854997   6.8429988
  60.0070012  92.8774997   5.7089988  60.7628962  93.1376650   6.0498340
  70.3060012  93.5984997   1.1849988  70.6810012  92.8544997   0.7149988
  70.3100012  93.3284997   2.1039988  70.3578915  93.4601486   1.2447824
  69.9750012  93.5244997   3.9349988  69.0390012  93.6244997   4.1129988
  70.2550012  92.8154997   4.5129988  69.8848255  93.4422711   4.0375391
  72.9630012  82.5914997  15.9809988  72.5560012  83.0724997  15.2599988
  73.0040012  81.6864997  15.6729988  72.9128437  82.5349374  15.8406683
  60.1120012  88.9754997  13.9779988  60.3280012  88.6144997  14.8369988
  59.2570012  88.6014997  13.7679988  60.0259292  88.8754111  14.0673386
  62.7310012  77.4454997   9.9729988  61.8690012  77.3584997   9.5659988
  62.7080012  78.3014997  10.4009988  62.6100330  77.5492765   9.9751863
  67.3940012  77.1674997  13.3479988  67.8140012  76.7524997  14.1009988
  66.4610012  76.9894997  13.4649988  67.3253644  77.0865900  13.4669539
  70.7200012  80.9234997  14.2009988  70.2060012  80.7974997  14.9989988
  70.5650012  81.8354997  13.9569988  70.6286852  81.0296132  14.2772158
  71.4830012  85.7844997  -0.0370012  71.5250012  85.5614997  -0.9670012
  72.3320012  86.1834997   0.1529988  71.6035396  85.8079155  -0.1386373
  67.0550012  79.6604997   0.6329988  66.8020012  79.6794997   1.5559988
  66.7990012  78.7884997   0.3319988  66.9857790  79.5452437   0.7186263
  62.8220012  82.4114997  11.0679988  62.1800012  82.3704997  11.7769988
  62.8590012  83.3374997  10.8309988  62.7391324  82.5311559  11.1329824
  62.8190012  82.6324997   5.9799988  61.9260012  82.2914997   5.9219988
  63.2690012  82.2554997   5.2249988  62.7577305  82.5348484   5.8699177
  68.3540012  83.0484997   4.7969988  67.9450012  83.8634997   4.5059988
  69.0750012  82.9084997   4.1829988  68.3954537  83.1412018   4.6741342
  67.4560012  83.2234997  16.2849988  66.8940012  82.5194997  16.6059988
  68.2830012  83.1034997  16.7529988  67.4907095  83.1107883  16.3922330
  69.3590012  82.4944997   7.6109988  69.1640012  83.0994997   6.8959988
  69.5400012  81.6604997   7.1769988  69.3567614  82.4646300   7.4544405
  60.5720012  82.7314997  12.9349988  60.5340012  83.1314997  13.8039988
  60.0810012  81.9144997  13.0259988  60.5004684  82.6758069  13.0661059
  63.9380012  80.1054997  -0.2660012  63.5070012  79.6604997   0.4639988
  63.2200012  80.4774997  -0.7780012  63.7819438  80.0948940  -0.2353201
  57.1800012  79.8474997   6.7859988  57.8110012  79.8184997   7.5049988
  57.6290012  79.4224997   6.0559988  57.3270774  79.7860492   6.7856553
  58.4540012  80.5934997   2.2099988  58.9280012  81.1844997   1.6249988
  57.7370012  81.1244997   2.5569988  58.4219341  80.7460867   2.1768836
  68.6230012  84.1324997  12.2829988  68.9460012  83.5014997  11.6399988
  68.1830012  83.5974997  12.9429988  68.6076895  83.9738441  12.2842850
  65.4000012  80.0594997   7.0669988  64.4890012  80.1164997   7.3549988
  65.9060012  79.9994997   7.8769988  65.3435413  80.0591985   7.2160622
  60.2290012  81.6884997   5.8929988  59.3390012  81.7884997   5.5529988
  60.5250012  80.8464997   5.5469988  60.1472823  81.5883545   5.7997213
  63.8820012  81.6884997   3.5499988  64.8130012  81.8174997   3.7279988
  63.6670012  82.3584997   2.8999988  63.9804247  81.7966565   3.4865747
  69.8050012  79.2944997  10.3309988  69.1290012  79.4254997  10.9949988
  69.3200012  79.1394997   9.5209988  69.6467145  79.2914905  10.3124517
  62.5560012  82.8834997   1.1169988  62.0130012  82.5034997   0.4249988
  63.3890012  83.0774997   0.6879988  62.5944399  82.8578124   0.9644526
  73.0930012  94.9664997  16.6079988  73.2930012  95.3904997  15.7729988
  73.7480012  95.3094997  17.2149988  73.2090051  95.0709648  16.5757836
  60.6910012  87.4404997  16.2159988  61.4230012  87.6944997  16.7769988
  59.9110012  87.6444997  16.7309988  60.6858232  87.5029177  16.3625760
  66.7200012  82.8474997   8.9539988  67.2850012  82.3004997   8.4069988
  66.5730012  82.3254997   9.7419988  66.7772918  82.7022024   8.9858454
  61.7220012  78.9834997   5.3719988  61.4050012  78.0814997   5.3369988
  62.5040012  78.9854997   4.8189988  61.7842284  78.8601628   5.2924783
  65.3470012  81.2354997  11.3679988  64.5110012  81.6894997  11.4779988
  65.8710012  81.5114997  12.1199988  65.3034414  81.3349376  11.4847136
  65.8910012  87.4484997   3.0519988  65.1460012  86.9414997   2.7299988
  65.7570012  87.4974997   3.9989988  65.7708776  87.3856940   3.1358647
  73.0410012  86.5814997  11.8389988  73.6830012  87.0384997  11.2949988
  72.2110012  86.6944997  11.3759988  73.0165963  86.6592704  11.7020177
  69.7890012  80.2624997   1.2519988  68.8500012  80.3744997   1.0999988
  70.0860012  81.1194997   1.5579988  69.7007666  80.3936443   1.2725768
  67.4100012  87.6324997  14.2889988  67.0650012  87.2514997  15.0959988
  67.2100012  88.5664997  14.3609988  67.3358061  87.7065228  14.4090961
  70.5070012  82.1294997   2.9119988  71.3990012  81.9924997   3.2309988
  70.5640012  82.9204997   2.3759988  70.6366285  82.2176660   2.8831691
  61.0160012  86.7434997   8.8219988  61.7610012  86.7414997   8.2209988
  61.0940012  85.9204997   9.3039988  61.1285518  86.6319315   8.8048929
  68.0170012  88.9074997   2.0779988  67.7210012  89.7334997   2.4589988
  67.3140012  88.2874997   2.2739988  67.8814914  88.9368199   2.1566443
  58.0240012  85.2044997  14.1369988  58.2470012  84.7864997  14.9689988
  57.4220012  84.5914997  13.7139988  57.9731759  85.0644668  14.1937022
  65.0400012  84.7214997  16.3499988  64.7440012  84.5554997  15.4549988
  65.9720012  84.5014997  16.3389988  65.1254166  84.6690640  16.2260536
  69.6610012  90.0944997  14.2399988  68.7600012  90.2774997  13.9719988
  69.6950012  90.3534997  15.1609988  69.5423041  90.1545512  14.3278197
  75.3920012  82.3394997   2.6069988  74.8380012  81.9434997   1.9349988
  75.4920012  83.2494997   2.3289988  75.3297059  82.4083586   2.4774401
  75.3550012  88.1394997  15.4439988  74.5040012  88.3774997  15.0769988
  75.9460012  88.1224997  14.6909988  75.3182487  88.1698258  15.2918893
  73.6870012  91.1254997   3.0719988  73.3140012  90.2994997   3.3809988
  73.9650012  90.9424997   2.1749988  73.6735630  90.9877303   2.9929626
  70.8480012  85.9334997  10.0929988  69.9190012  85.7014997  10.0659988
  71.2990012  85.1564997   9.7629988  70.7819216  85.7967238  10.0446917
  63.3910012  90.2614997   6.2259988  63.9180012  91.0344997   6.0259988
  62.5110012  90.4864997   5.9249988  63.3441773  90.3978005   6.1579010
  59.1460012  85.1234997   0.8129988  59.7620012  85.7504997   1.1929988
  58.2840012  85.4394997   1.0849988  59.1137698  85.2519430   0.9017183
  64.8180012  87.9244997   5.8029988  64.5770012  88.8494997   5.8439988
  64.0770012  87.4654997   6.1989988  64.6848409  87.9891421   5.8621377
  65.3330012  92.0734997  12.1179988  65.6950012  92.9284997  11.8839988
  65.8640012  91.7814997  12.8579988  65.4544473  92.1511060  12.1860855
  63.5010012  92.9464997   5.3479988  62.5510012  93.0514997   5.3989988
  63.8530012  93.7664997   5.6929988  63.4184203  93.0718314   5.4016650
  68.8770012  88.1724997  11.8179988  68.4510012  87.9454997  12.6449988
  69.4570012  87.4344997  11.6359988  68.8971868  88.0415299  11.9065830
  71.0800012  89.1014997   0.8919988  71.4330012  88.7214997   1.6969988
  70.1310012  89.0084997   0.9789988  71.0000441  89.0369596   1.0138559
  71.5350012  92.7244997  14.2879988  70.9340012  92.1694997  13.7919988
  71.8170012  93.3914997  13.6619988  71.4908519  92.7386841  14.1354952
  75.5830012  93.5814997   1.0929988  76.3270012  94.1674997   0.9529988
  74.8890012  94.1494997   1.4269988  75.5910292  93.7385582   1.1189961
  59.6580012  79.9574997  13.6949988  58.7650012  80.2964997  13.6269988
  59.5590012  79.1024997  14.1129988  59.5224164  79.8882588  13.7422235
  71.9460012  87.7744997   3.1189988  71.6680012  87.0464997   3.6749988
  72.8730012  87.8934997   3.3239988  72.0333124  87.6908802   3.2228845
  59.3090012  91.7624997  12.1299988  59.5260012  90.8304997  12.0989988
  59.5550012  92.0364997  13.0129988  59.3719549  91.6720636  12.2451763
  65.1710012  90.2134997  -0.6610012  65.4100012  89.4654997  -1.2080012
  64.9020012  89.8254997   0.1719988  65.1673675  90.0586638  -0.6233135
  64.1080012  89.7834997   1.7959988  64.2540012  89.2634997   2.5859988
  64.1050012  90.6904997   2.1019988  64.1275989  89.8348853   1.9456088
  60.5610012  87.0364997   2.3059988  59.8750012  87.3884997   2.8729988
  61.0830012  87.7994997   2.0589988  60.5376852  87.1878578   2.3502118
  68.3920012  79.6984997  12.5849988  69.0910012  79.7724997  13.2349988
  68.0110012  78.8344997  12.7389988  68.4361767  79.5917624  12.6948322
  69.1770012  79.3504997   3.6819988  69.3970012  79.8224997   2.8789988
  69.7350012  79.7454997   4.3519988  69.2824968  79.4684285   3.6627331
  66.8450012  91.4814997   2.5449988  66.0290012  91.9784997   2.5969988
  67.3750012  91.9564997   1.9049988  66.8049161  91.6137722   2.4655956
  66.3770012  81.0784997   4.5169988  67.1890012  81.5834997   4.5629988
  66.1320012  80.9334997   5.4309988  66.4550520  81.1280375   4.6468517
  66.9120012  82.0644997  13.7019988  67.0310012  82.6384997  14.4589988
  67.5680012  81.3764997  13.8159988  67.0169757  82.0501079  13.8210825
  67.2600012  78.1594997   5.4549988  66.9140012  78.7774997   6.0999988
  67.9190012  78.6604997   4.9739988  67.3017826  78.3115802   5.4780971
  64.1840012  92.5254997   2.5269988  64.3440012  93.3244997   2.0259988
  63.9860012  92.8314997   3.4119988  64.1791649  92.6764469   2.5779815
  62.9180012  79.2224997   2.1419988  62.8350012  80.1114997   2.4889988
  63.8080012  78.9574997   2.3739988  63.0269469  79.3081430   2.2207626
  73.1170012  79.9714997  14.5369988  72.2000012  80.2344997  14.4489988
  73.4520012  79.9684997  13.6399988  73.0369900  80.0070224  14.4037919
  71.7190012  83.7224997   8.6319988  70.9210012  83.3074997   8.3039988
  72.1640012  83.0314997   9.1229988  71.6699885  83.5723543   8.6534889
  61.1770012  89.6504997   1.2029988  61.7690012  90.3494997   1.4789988
  61.6360012  89.2174997   0.4829988  61.3201142  89.6877049   1.1434830
  59.4930012  82.3144997   0.3189988  59.4480012  83.2534997   0.4969988
  58.6050012  82.0784997   0.0489988  59.3668574  82.4111892   0.3068912
  72.8050012  92.9784997  10.2549988  72.6500012  93.6564997   9.5979988
  73.7380012  93.0504997  10.4579988  72.9098500  93.0810170  10.1925119
  60.3010012  77.0964997   8.9919988  60.0720012  77.1554997   8.0639988
  59.8580012  76.3044997   9.2979988  60.2098530  76.9975753   8.9064786
  59.2310012  91.0364997   5.1519988  58.3990012  91.5094997   5.1799988
  59.7770012  91.5464997   4.5539988  59.1909739  91.1701871   5.0749716
  58.5190012  93.6494997  16.4819988  59.0600012  93.4324997  17.2419988
  58.0380012  92.8434997  16.2929988  58.5279345  93.5109514  16.5603076
  63.1170012  92.5684997  18.1029988  63.8840012  92.1094997  18.4439988
  63.0950012  92.3424997  17.1729988  63.2191434  92.4750409  18.0240043
  67.2090012  92.0764997  -0.5220012  66.5650012  91.4454997  -0.2010012
  67.9710012  91.5454997  -0.7540012  67.2238077  91.9182920  -0.5093989
  69.6940012  90.9484997  16.8319988  69.3430012  90.0924997  17.0749988
  70.4200012  91.0914997  17.4389988  69.7440769  90.8505636  16.9473619
  71.8130012  91.8934997  -0.2880012  72.0960012  91.0994997   0.1639988
  72.5530012  92.1264997  -0.8490012  71.9517486  91.8162803  -0.3019302
  58.4260012  87.4594997  17.4369988  58.5700012  86.5574997  17.1499988
  57.6540012  87.7454997  16.9489988  58.3413322  87.3748261  17.3317881
  62.7680012  87.8034997  -0.4310012  62.8320012  87.0094997   0.0999988
  63.4210012  87.6844997  -1.1210012  62.8650241  87.6787148  -0.4515683
  65.0820012  87.4294997  16.8689988  64.7530012  87.7004997  16.0119988
  65.2340012  86.4884997  16.7819988  65.0574809  87.3393862  16.7398244
  68.1200012  88.8504997  -0.6950012  67.8510012  89.0304997   0.2059988
  67.9140012  87.9244997  -0.8260012  68.0553825  88.7500152  -0.5894786
  70.8160012  87.3454997  14.2529988  71.5620012  87.9334997  14.1329988
  70.0590012  87.9274997  14.3159988  70.8157554  87.5047011  14.2450907
  59.2590012  84.6594997  16.8569988  59.6670012  83.8024997  16.7359988
  58.9990012  84.6744997  17.7779988  59.2797568  84.5440807  16.9649588
  63.9170012  85.7754997   1.8749988  63.4570012  85.2914997   2.5609988
  64.1720012  85.1074997   1.2389988  63.8884902  85.6188731   1.8829334
  63.2060012  83.6684997  14.2309988  62.5880012  84.3434997  14.5109988
  63.5500012  83.9894997  13.3979988  63.1679615  83.8042721  14.1566581
  64.9880012  84.0184997   0.1369988  64.8080012  83.8644997  -0.7900012
  65.9380012  84.1264997   0.1819988  65.0917776  84.0120175   0.0161843
  68.2260012  86.1404997  17.5079988  69.1790012  86.2234997  17.4809988
  68.0650012  85.4284997  18.1279988  68.3346426  86.0556746  17.5880579
  74.3780012  86.3734997  -0.4170012  74.1040012  85.9484997  -1.2300012
  74.4170012  87.3044997  -0.6340012  74.3457699  86.4412484  -0.5576390
  63.5450012  81.0234997  15.3129988  63.6950012  80.2944997  14.7109988
  63.5480012  81.8004997  14.7539988  63.5659302  81.0287851  15.1550692
  63.9580012  79.3934997  12.8059988  64.4940012  79.8444997  12.1539988
  63.1060012  79.2854997  12.3829988  63.9162178  79.4406390  12.6595756
  65.5400012  84.8324997  13.0449988  66.2900012  84.6764997  12.4719988
  65.2010012  85.6844997  12.7699988  65.5968921  84.9262968  12.9293561
  69.9550012  82.6474997  18.0739988  70.1480012  81.7164997  17.9619988
  70.8130012  83.0724997  18.0639988  70.0973020  82.5776389  18.0573361
  71.2720012  85.4364997  16.1509988  70.9910012  86.1454997  15.5739988
  72.2150012  85.3634997  15.9999988  71.3609027  85.5237646  16.0515551
  62.0240012  82.2214997  17.2249988  61.2570012  81.6894997  17.0149988
  62.7030012  81.9114997  16.6249988  62.0107022  82.1067506  17.1151648
  64.7640012  76.8494997  13.2369988  64.6650012  77.7964997  13.1319988
  64.0210012  76.4774997  12.7619988  64.6500564  76.9285902  13.1584560
  66.0280012  81.1714997  16.8009988  65.7920012  80.9514997  17.7029988
  65.2440012  80.9644997  16.2909988  65.8898628  81.1134760  16.8553932
  68.7430012  80.2984997  15.8769988  67.7960012  80.3304997  16.0089988
  69.0560012  79.6734997  16.5299988  68.6555475  80.2183207  15.9834455
  60.2040012  80.1424997  16.9289988  60.4160012  79.4354997  16.3189988
  60.0930012  79.7044997  17.7729988  60.2179721  79.9867084  16.9596843
  64.9850012  76.1434997  15.9089988  65.6970012  75.5034997  15.8949988
  64.8840012  76.4104997  14.9949988  65.0687939  76.0919938  15.7835650
  65.3390012  77.8264997  17.9619988  65.2070012  77.3504997  17.1419988
  64.7400012  78.5704997  17.9069988  65.2399071  77.8619618  17.8422886
  64.8850012  94.7094997   1.1389988  65.8180012  94.8674997   1.2819988
  64.6210012  95.3844997   0.5139988  64.9769510  94.8223611   1.0740741
  58.4540012  89.3454997   0.6209988  59.3680012  89.4244997   0.8949988
  58.4610012  88.6584997  -0.0450012  58.5801131  89.2633961   0.5684393
  57.1030012  94.7384997   5.6989988  56.4560012  94.2764997   5.1659988
  57.4570012  94.0664997   6.2809988  57.0623849  94.5844723   5.7047959
  57.9730012  92.8194997   7.5029988  57.6380012  91.9394997   7.6749988
  58.1950012  93.1644997   8.3679988  57.9571783  92.7457500   7.6434208
  75.5210012  93.6284997  10.4839988  75.5000012  93.8134997  11.4229988
  76.2120012  94.1974997  10.1429988  75.6114618  93.7306606  10.5663864
  75.0850012  93.1964997  13.4059988  74.5970012  92.4604997  13.0349988
  75.6340012  92.8024997  14.0839988  75.0924872  93.0426249  13.4469160
  73.5350012  88.9854997  18.0439988  72.6690012  88.8804997  18.4379988
  73.9120012  89.7444997  18.4899988  73.4673308  89.0736900  18.1582393
  74.8360012  87.2424997   3.5579988  75.6860012  87.6634997   3.6849988
  74.8420012  86.5024997   4.1649988  74.9531372  87.2000803   3.6574344
  75.2310012  85.2954997   5.3819988  74.5040012  84.8164997   5.7789988
  75.8120012  85.5014997   6.1139988  75.2099375  85.2577090   5.5354129
  74.9900012  88.0804997  10.3289988  75.8230012  87.7024997  10.0489988
  75.1020012  89.0234997  10.2099988  75.1192647  88.1562218  10.2745487
  73.4760012  90.9584997  12.6359988  72.8290012  91.2834997  13.2619988
  72.9590012  90.5184997  11.9619988  73.3174029  90.9435004  12.6305827
  75.4990012  85.1964997   1.7729988  74.9770012  85.5534997   1.0539988
  75.4660012  85.8714997   2.4509988  75.4231634  85.3365413   1.7663145
  73.8480012  82.4364997   0.3239988  73.9440012  83.1034997  -0.3570012
  73.7080012  81.6204997  -0.1580012  73.8422135  82.4174500   0.1658491
  73.0170012  83.8164997   5.9449988  72.8670012  82.8714997   5.9239988
  72.6640012  84.0974997   6.7879988  72.9486625  83.7250441   6.0562346
  58.0530012  85.8944997   9.9549988  58.2370012  85.8124997   9.0189988
  58.9020012  85.7704997  10.3789988  58.1930139  85.8665003   9.8841455
  73.8740012  85.7864997  15.5829988  74.4570012  85.0524997  15.7749988
  74.4380012  86.5584997  15.6299988  74.0299769  85.7904227  15.6156159
  75.3700012  83.6894997  16.2679988  74.5070012  83.3104997  16.1019988
  75.9750012  82.9504997  16.1939988  75.3335979  83.5378023  16.2352817
  73.0950012  79.8444997  -0.5590012  73.7060012  79.4734997   0.0779988
  72.2590012  79.4234997  -0.3630012  73.0655032  79.7367554  -0.4452965
  72.7280012  81.3994997   4.4069988  73.0080012  80.4924997   4.5309988
  73.4870012  81.8334997   4.0179988  72.8689277  81.3340942   4.3713682
  73.3400012  81.9804997   9.8429988  74.2730012  82.1924997   9.8089988
  73.1050012  82.0824997  10.7649988  73.4358036  82.0232769   9.9629976
  73.3690012  82.7174997  12.6189988  72.5260012  82.9854997  12.9849988
  73.8110012  83.5394997  12.4079988  73.3134158  82.8653291  12.6405491
  57.6500012  81.1654997  16.0959988  58.5700012  81.0434997  16.3319988
  57.2010012  80.4154997  16.4849988  57.7151580  81.0473727  16.1809006
  73.3410012  78.6624997   4.4549988  73.5240012  78.2134997   5.2809988
  72.7420012  78.0774997   3.9919988  73.2850202  78.5219975   4.5053275
  58.8710012  79.4774997   8.9869988  59.3170012  78.6854997   9.2889988
  59.3380012  80.1934997   9.4179988  58.9950172  79.4660624   9.0864820
  57.1750012  82.4764997  10.0559988  57.6670012  82.2554997   9.2649988
  57.5380012  83.3174997  10.3369988  57.2913126  82.5598357   9.9857531
  75.1720012  78.8064997  16.3219988  74.2540012  79.0774997  16.2859988
  75.2950012  78.2714997  15.5369988  75.0631066  78.7712892  16.2110487
  75.2080012  78.7294997   0.9829988  75.6200012  78.0084997   0.5079988
  75.8900012  79.3994997   1.0419988  75.3565885  78.7212368   0.9258915
  57.4890012  78.7344997   4.1099988  56.5640012  78.9434997   3.9809988
  57.9430012  79.2184997   3.4209988  57.4237368  78.8285993   3.9991226
  72.2600012  93.7184997   6.0559988  72.9120012  93.3714997   5.4479988
  72.7700012  94.2074997   6.7019988  72.4182637  93.7370597   6.0600236
  57.4530012  77.4724997  12.4549988  56.7880012  77.2264997  13.0979988
  57.0100012  78.0944997  11.8769988  57.3020956  77.5228632  12.4649352
  59.6450012  90.6474997  16.5989988  58.8240012  90.8224997  16.1389988
  59.3920012  90.5744997  17.5199988  59.4986164  90.6615622  16.6604923
  62.5990012  91.6224997  12.8579988  62.1740012  92.4314997  12.5749988
  63.5030012  91.7074997  12.5559988  62.6630271  91.7448469  12.7783776
  66.9100012  93.0214997  15.8169988  67.0950012  92.6874997  16.6949988
  67.7560012  93.3304997  15.4949988  67.0497539  93.0176047  15.8935605
  69.2550012  94.3074997  15.0609988  69.9320012  93.6744997  14.8209988
  69.5770012  94.7084997  15.8679988  69.3911637  94.2751154  15.1372793
  74.1720012  76.8964997  14.1409988  73.3600012  77.2214997  13.7529988
  74.4050012  76.1364997  13.6079988  74.0923423  76.8382436  14.0158253
  60.0010012  94.8784997  12.9049988  59.2800012  95.3184997  12.4539988
  59.6350012  94.6274997  13.7539988  59.8529804  94.9047698  12.9579840
  62.4680012  94.4784997  11.9349988  61.6030012  94.5504997  12.3389988
  62.4130012  95.0254997  11.1509988  62.3422085  94.5622685  11.8843362
  67.1780012  94.3664997  11.1099988  66.7220012  94.8954997  10.4559988
  67.3410012  94.9694997  11.8359988  67.1375585  94.5204468  11.1185062
  69.5060012  93.2444997  12.0549988  68.6010012  93.4094997  11.7899988
  69.9350012  94.0974997  11.9899988  69.4400799  93.3824483  12.0099182
  72.1100012  94.8144997  12.3499988  71.9280012  95.7304997  12.1399988
  72.2870012  94.4044997  11.5039988  72.1090210  94.8844822  12.2067885
  59.4150012  93.5014997   9.8149988  59.3970012  93.0764997  10.6729988
  60.2200012  93.1834997   9.4069988  59.5213875  93.4003812   9.8771655
  61.5570012  92.2114997   8.4699988  61.3380012  91.2954997   8.6399988
  62.3810012  92.3514997   8.9359988  61.6384420  92.1050520   8.5562774
  64.0940012  92.6814997   9.3189988  64.3070012  91.7934997   9.0319988
  64.1580012  92.6474997  10.2729988  64.1318232  92.5553102   9.4087397
  67.6020012  78.3454997   8.4629988  66.9280012  77.7164997   8.7189988
  68.1660012  77.8614997   7.8599988  67.5859230  78.1938744   8.4165340
  72.7450012  76.4534997   8.5759988  73.3490012  77.0004997   8.0739988
  71.8750012  76.7724997   8.3359988  72.7101241  76.5715806   8.4747654
  74.4720012  77.5914997   6.9089988  75.0840012  77.0774997   6.3829988
  74.8540012  78.4694997   6.9329988  74.6074540  77.6397140   6.8401830
  59.9290012  76.9794997   6.2849988  59.1520012  76.7454997   5.7779988
  60.4590012  76.1824997   6.2939988  59.8942330  76.8396988   6.2167742
  58.7650012  76.7774997   2.0889988  59.2040012  77.3884997   1.4969988
  58.1320012  77.3154997   2.5629988  58.7394514  76.9339257   2.0720930
  64.5080012  76.9064997   6.0989988  65.3830012  77.2944997   6.0689988
  64.3720012  76.6914997   7.0209988  64.6093695  76.9305184   6.2196440
  70.0650012  76.9364997   7.7479988  70.1410012  77.0314997   6.7979988
  69.7900012  76.0284997   7.8769988  70.0382321  76.8267867   7.6355079
  71.4180012  76.9624997   3.4399988  70.7160012  77.5774997   3.2309988
  70.9740012  76.1244997   3.5709988  71.2616330  76.9335783   3.4290328
  58.6660012  92.7254997   2.9869988  57.9810012  92.6874997   2.3189988
  58.6700012  93.6384997   3.2749988  58.5728193  92.8437016   2.9345284
  60.6260012  78.6934997   0.5309988  61.1180012  78.0634997   0.0039988
  61.2500012  78.9894997   1.1949988  60.7775446  78.6473199   0.5485980
  65.6520012  78.9864997   2.9879988  65.8300012  78.3404997   3.6709988
  65.5990012  79.8204997   3.4559988  65.6691829  79.0107985   3.1445940
  67.5310012  93.9354997   1.3839988  68.3970012  94.3014997   1.2059988
  67.2840012  93.4954997   0.5699988  67.6162392  93.9261756   1.2496289
  74.2400012  93.4984997   4.0629988  74.0450012  92.7504997   3.4979988
  74.2010012  94.2564997   3.4799988  74.2080380  93.4986099   3.9068384
  59.8870012  77.4934997  15.8029988  59.5210012  76.7284997  16.2459988
  60.8000012  77.5224997  16.0899988  59.9602790  77.3927224  15.9024070
  61.8600012  76.8444997  17.3389988  62.7580012  76.5704997  17.1539988
  61.4730012  76.1014997  17.8029988  61.9306612  76.7065914  17.3763643
  60.4840012  93.6454997   0.0119988  60.2170012  93.9324997   0.8849988
  61.2560012  93.0994997   0.1639988  60.5517488  93.6110294   0.1521050
  73.4570012  92.2494997  16.2129988  72.6750012  92.0634997  15.6939988
  73.3850012  93.1784997  16.4309988  73.3401777  92.3496492  16.1714048
  87.8630012  86.1354997   6.2439988  87.9520012  87.0794997   6.1119988
  87.2250012  85.8604997   5.5859988  87.7889081  86.2274830   6.1369614
  86.7960012  85.3904997   9.6629988  86.7580012  84.7444997  10.3679988
  86.4740012  84.9244997   8.8919988  86.7472333  85.2389408   9.6552978
  79.1650012  85.0054997  11.2559988  79.2060012  84.3794997  11.9789988
  79.8680012  85.6294997  11.4379988  79.2656363  85.0041196  11.3796044
  90.5020012  88.3294997   7.9639988  90.0620012  87.6094997   8.4149988
  90.4890012  89.0504997   8.5939988  90.4400226  88.3283731   8.1108494
  80.0880012  89.4554997   9.7909988  79.7190012  88.6534997   9.4209988
  81.0290012  89.2864997   9.8369988  80.1647289  89.3230153   9.7466316
  76.6980012  83.1154997   5.1839988  76.2510012  83.9614997   5.1649988
  76.1370012  82.5354997   4.6679988  76.5609900  83.1529916   5.1116801
  77.4090012  85.2774997   7.3099988  77.6220012  84.5074997   7.8369988
  78.1470012  85.3664997   6.7059988  77.5378496  85.1841394   7.3005300
  87.6140012  93.4344997   8.1769988  88.2340012  92.7574997   7.9029988
  87.4060012  93.2164997   9.0849988  87.6706904  93.3123870   8.2623365
  85.1860012  87.8234997  10.0689988  85.4900012  87.1374997   9.4739988
  85.9070012  87.9414997  10.6869988  85.3250671  87.7456305  10.0711816
  93.8490012  79.4244997  10.9299988  93.8980012  80.0344997  11.6659988
  94.2740012  79.8854997  10.2069988  93.9131824  79.5703741  10.9330205
  88.3270012  82.2174997  10.3969988  88.4690012  81.2714997  10.4169988
  88.2200012  82.4244997   9.4679988  88.3319864  82.1159534  10.2742339
  81.4810012  80.3184997   7.6689988  81.5250012  81.1784997   7.2509988
  81.0240012  79.7664997   7.0349988  81.4252185  80.3615799   7.5260299
  89.2040012  80.4494997   6.0699988  89.8500012  80.1204997   6.6949988
  89.7140012  80.9674997   5.4469988  89.3614264  80.4744611   6.0713862
  78.1020012  82.7154997   8.4309988  78.7550012  82.1654997   8.8629988
  78.1260012  82.4414997   7.5139988  78.1946683  82.6031466   8.3662123
  83.2580012  84.2654997   7.6459988  83.8740012  83.7394997   8.1559988
  82.6720012  83.6254997   7.2429988  83.2630810  84.1069208   7.6613173
  94.2400012  80.9024997  13.1659988  93.5520012  81.5604997  13.0699988
  94.2560012  80.7054997  14.1019988  94.1478525  80.9660462  13.2794808
  80.2920012  79.2364997  11.7429988  80.0730012  79.7664997  10.9769988
  79.6240012  79.4634997  12.3899988  80.1717600  79.3396906  11.7256379
  87.6610012  88.7364997   5.2869988  87.3650012  88.4144997   4.4359988
  87.3360012  89.6364997   5.3279988  87.5766371  88.8140215   5.1761801
  82.8610012  86.9124997  12.0299988  82.1210012  87.5104997  12.1339988
  83.5750012  87.4664997  11.7149988  82.8562237  87.0692831  12.0016465
  90.9680012  79.7404997   8.0499988  90.7520012  78.9744997   8.5829988
  91.6230012  80.2124997   8.5629988  91.0270632  79.6995889   8.1922861
  79.8850012  81.1284997   9.6949988  80.4990012  81.7614997  10.0689988
  80.3970012  80.6564997   9.0389988  80.0382296  81.1512370   9.6574252
  81.2680012  88.8764997  12.8179988  81.2630012  89.7564997  12.4399988
  80.4150012  88.7934997  13.2429988  81.1519464  88.9856117  12.8237907
  77.3890012  88.5474997   3.5999988  77.1170012  88.7764997   2.7109988
  77.4350012  89.3854997   4.0599988  77.3580094  88.6921213   3.5405697
  91.0140012  90.1694997  10.3119988  90.0730012  90.2274997  10.4739988
  91.2910012  91.0754997  10.1749988  90.9224679  90.2999443  10.3156815
  91.3150012  78.4554997  11.7299988  90.5790012  79.0664997  11.6919988
  91.9980012  78.8704997  11.2029988  91.3066541  78.5951374  11.6535832
  84.3180012  76.5424997   9.1959988  84.2010012  75.5934997   9.1409988
  83.4630012  76.8744997   9.4689988  84.1863733  76.4575409   9.2253897
  89.2660012  91.9504997   6.9379988  89.6920012  91.2434997   6.4529988
  89.5830012  92.7514997   6.5209988  89.3671019  91.9620994   6.8153130
  90.4260012  89.8514997   5.4459988  90.1680012  89.1614997   4.8349988
  90.4970012  89.4084997   6.2919988  90.4002856  89.6972124   5.4766885
  92.1120012  88.4174997  13.9239988  92.2520012  87.8264997  13.1839988
  92.2790012  89.2904997  13.5669988  92.1536778  88.4546426  13.7746965
  86.5850012  85.3794997   3.6959988  85.8730012  85.9144997   3.3439988
  87.2760012  85.4354997   3.0359988  86.5810132  85.4602543   3.5586289
  86.6380012  83.8374997   0.7349988  87.3390012  83.8594997   1.3859988
  86.9410012  83.2094997   0.0789988  86.7747830  83.7556566   0.7353711
  93.9540012  84.7574997  11.9899988  93.3010012  85.4524997  12.0789988
  94.4190012  84.9674997  11.1799988  93.9275390  84.8809425  11.8926883
  89.9900012  85.5894997   4.6479988  89.2580012  85.8174997   5.2209988
  90.4380012  84.8754997   5.1029988  89.9503095  85.5242571   4.7879119
  89.8880012  83.7634997  13.7149988  89.9680012  84.5264997  14.2869988
  89.2860012  84.0424997  13.0249988  89.8175756  83.9057134  13.7000589
  81.6360012  86.2194997   6.5299988  81.3050012  85.8494997   5.7119988
  82.2240012  85.5494997   6.8769988  81.6701873  86.0781156   6.4648102
  83.0020012  89.6474997   9.2119988  82.9080012  89.0694997   8.4549988
  83.7320012  89.2764997   9.7079988  83.0877981  89.5182390   9.1754165
  82.0020012  84.9884997  10.1639988  82.5680012  85.1094997   9.4009988
  82.3210012  85.6254997  10.8029988  82.1225786  85.0911884  10.1460040
  88.3110012  90.4914997  10.8979988  88.0710012  91.1534997  11.5459988
  88.1130012  89.6574997  11.3229988  88.2513808  90.4693134  11.0441524
  82.8820012  89.3874997  14.8809988  82.5710012  90.1694997  15.3359988
  82.2320012  89.2344997  14.1949988  82.7515558  89.4739105  14.8505871
  88.8610012  84.7514997   2.3329988  89.4410012  84.9014997   3.0799988
  89.2750012  85.2224997   1.6099988  88.9962830  84.8356841   2.3374134
  79.8020012  85.5854997  14.1099988  79.8730012  86.2364997  14.8079988
  78.9120012  85.6884997  13.7749988  79.6913117  85.6885936  14.1602700
  86.5880012  91.4884997   5.7679988  87.0620012  91.7834997   6.5459988
  86.0250012  92.2264997   5.5349988  86.5767653  91.6286932   5.8430136
  81.1220012  91.4594997  15.6439988  81.1290012  91.3234997  14.6969988
  80.2060012  91.3414997  15.8959988  80.9991714  91.4249430  15.5484666
  92.5600012  76.5014997   2.1459988  91.6600012  76.6404997   2.4409988
  92.8120012  77.3324997   1.7439988  92.4708702  76.6329074   2.1320205
  80.6260012  85.2894997   4.1199988  80.3340012  86.0574997   3.6289988
  79.9520012  84.6294997   3.9569988  80.4949081  85.3054406   4.0307340
  93.7490012  90.8674997   0.5219988  93.8230012  91.8064997   0.6929988
  94.6550012  90.5624997   0.4659988  93.8815100  90.9546722   0.5378119
  76.7190012  87.6524997  12.9349988  76.2180012  87.6244997  12.1199988
  76.7240012  86.7464997  13.2439988  76.6511526  87.5262278  12.8652872
  76.4690012  90.4324997   9.8189988  77.4150012  90.2884997   9.7999988
  76.3570012  91.2164997  10.3559988  76.5832727  90.5188046   9.8890072
  94.6670012  91.0984997  15.5009988  94.6180012  90.1434997  15.4639988
  93.8400012  91.3664997  15.9019988  94.5484940  91.0038998  15.5501375
  85.6460012  90.6724997  14.3769988  85.7330012  91.4984997  14.8519988
  84.7820012  90.3424997  14.6259988  85.5411964  90.7409878  14.4756549
  86.0600012  94.4444997   4.1829988  85.9850012  94.3234997   3.2369988
  86.0930012  95.3944997   4.3019988  86.0541848  94.5562500   4.0694834
  79.7130012  93.2334997   5.9639988  79.8660012  92.8854997   6.8429988
  78.8630012  92.8774997   5.7089988  79.6188962  93.1376650   6.0498340
  89.1620012  93.5984997   1.1849988  89.5370012  92.8544997   0.7149988
  89.1660012  93.3284997   2.1039988  89.2138915  93.4601486   1.2447824
  88.8310012  93.5244997   3.9349988  87.8950012  93.6244997   4.1129988
  89.1110012  92.8154997   4.5129988  88.7408255  93.4422711   4.0375391
  91.8190012  82.5914997  15.9809988  91.4120012  83.0724997  15.2599988
  91.8600012  81.6864997  15.6729988  91.7688437  82.5349374  15.8406683
  78.9680012  88.9754997  13.9779988  79.1840012  88.6144997  14.8369988
  78.1130012  88.6014997  13.7679988  78.8819292  88.8754111  14.0673386
  81.5870012  77.4454997   9.9729988  80.7250012  77.3584997   9.5659988
  81.5640012  78.3014997  10.4009988  81.4660330  77.5492765   9.9751863
  86.2500012  77.1674997  13.3479988  86.6700012  76.7524997  14.1009988
  85.3170012  76.9894997  13.4649988  86.1813644  77.0865900  13.4669539
  89.5760012  80.9234997  14.2009988  89.0620012  80.7974997  14.9989988
  89.4210012  81.8354997  13.9569988  89.4846852  81.0296132  14.2772158
  90.3390012  85.7844997  -0.0370012  90.3810012  85.5614997  -0.9670012
  91.1880012  86.1834997   0.1529988  90.4595396  85.8079155  -0.1386373
  85.9110012  79.6604997   0.6329988  85.6580012  79.6794997   1.5559988
  85.6550012  78.7884997   0.3319988  85.8417790  79.5452437   0.7186263
  81.6780012  82.4114997  11.0679988  81.0360012  82.3704997  11.7769988
  81.7150012  83.3374997  10.8309988  81.5951324  82.5311559  11.1329824
  81.6750012  82.6324997   5.9799988  80.7820012  82.2914997   5.9219988
  82.1250012  82.2554997   5.2249988  81.6137305  82.5348484   5.8699177
  87.2100012  83.0484997   4.7969988  86.8010012  83.8634997   4.5059988
  87.9310012  82.9084997   4.1829988  87.2514537  83.1412018   4.6741342
  86.3120012  83.2234997  16.2849988  85.7500012  82.5194997  16.6059988
  87.1390012  83.1034997  16.7529988  86.3467095  83.1107883  16.3922330
  88.2150012  82.4944997   7.6109988  88.0200012  83.0994997   6.8959988
  88.3960012  81.6604997   7.1769988  88.2127614  82.4646300   7.4544405
  79.4280012  82.7314997  12.9349988  79.3900012  83.1314997  13.8039988
  78.9370012  81.9144997  13.0259988  79.3564684  82.6758069  13.0661059
  82.7940012  80.1054997  -0.2660012  82.3630012  79.6604997   0.4639988
  82.0760012  80.4774997  -0.7780012  82.6379438  80.0948940  -0.2353201
  76.0360012  79.8474997   6.7859988  76.6670012  79.8184997   7.5049988
  76.4850012  79.4224997   6.0559988  76.1830774  79.7860492   6.7856553
  77.3100012  80.5934997   2.2099988  77.7840012  81.1844997   1.6249988
  76.5930012  81.1244997   2.5569988  77.2779341  80.7460867   2.1768836
  87.4790012  84.1324997  12.2829988  87.8020012  83.5014997  11.6399988
  87.0390012  83.5974997  12.9429988  87.4636895  83.9738441  12.2842850
  84.2560012  80.0594997   7.0669988  83.3450012  80.1164997   7.3549988
  84.7620012  79.9994997   7.8769988  84.1995413  80.0591985   7.2160622
  79.0850012  81.6884997   5.8929988  78.1950012  81.7884997   5.5529988
  79.3810012  80.8464997   5.5469988  79.0032823  81.5883545   5.7997213
  82.7380012  81.6884997   3.5499988  83.6690012  81.8174997   3.7279988
  82.5230012  82.3584997   2.8999988  82.8364247  81.7966565   3.4865747
  88.6610012  79.2944997  10.3309988  87.9850012  79.4254997  10.9949988
  88.1760012  79.1394997   9.5209988  88.5027145  79.2914905  10.3124517
  81.4120012  82.8834997   1.1169988  80.8690012  82.5034997   0.4249988
  82.2450012  83.0774997   0.6879988  81.4504399  82.8578124   0.9644526
  91.9490012  94.9664997  16.6079988  92.1490012  95.3904997  15.7729988
  92.6040012  95.3094997  17.2149988  92.0650051  95.0709648  16.5757836
  79.5470012  87.4404997  16.2159988  80.2790012  87.6944997  16.7769988
  78.7670012  87.6444997  16.7309988  79.5418232  87.5029177  16.3625760
  85.5760012  82.8474997   8.9539988  86.1410012  82.3004997   8.4069988
  85.4290012  82.3254997   9.7419988  85.6332918  82.7022024   8.9858454
  80.5780012  78.9834997   5.3719988  80.2610012  78.0814997   5.3369988
  81.3600012  78.9854997   4.8189988  80.6402284  78.8601628   5.2924783
  84.2030012  81.2354997  11.3679988  83.3670012  81.6894997  11.4779988
  84.7270012  81.5114997  12.1199988  84.1594414  81.3349376  11.4847136
  84.7470012  87.4484997   3.0519988  84.0020012  86.9414997   2.7299988
  84.6130012  87.4974997   3.9989988  84.6268776  87.3856940   3.1358647
  91.8970012  86.5814997  11.8389988  92.5390012  87.0384997  11.2949988
  91.0670012  86.6944997  11.3759988  91.8725963  86.6592704  11.7020177
  88.6450012  80.2624997   1.2519988  87.7060012  80.3744997   1.0999988
  88.9420012  81.1194997   1.5579988  88.5567666  80.3936443   1.2725768
  86.2660012  87.6324997  14.2889988  85.9210012  87.2514997  15.0959988
  86.0660012  88.5664997  14.3609988  86.1918061  87.7065228  14.4090961
  89.3630012  82.1294997   2.9119988  90.2550012  81.9924997   3.2309988
  89.4200012  82.9204997   2.3759988  89.4926285  82.2176660   2.8831691
  79.8720012  86.7434997   8.8219988  80.6170012  86.7414997   8.2209988
  79.9500012  85.9204997   9.3039988  79.9845518  86.6319315   8.8048929
  86.8730012  88.9074997   2.0779988  86.5770012  89.7334997   2.4589988
  86.1700012  88.2874997   2.2739988  86.7374914  88.9368199   2.1566443
  76.8800012  85.2044997  14.1369988  77.1030012  84.7864997  14.9689988
  76.2780012  84.5914997  13.7139988  76.8291759  85.0644668  14.1937022
  83.8960012  84.7214997  16.3499988  83.6000012  84.5554997  15.4549988
  84.8280012  84.5014997  16.3389988  83.9814166  84.6690640  16.2260536
  88.5170012  90.0944997  14.2399988  87.6160012  90.2774997  13.9719988
  88.5510012  90.3534997  15.1609988  88.3983041  90.1545512  14.3278197
  94.2480012  82.3394997   2.6069988  93.6940012  81.9434997   1.9349988
  94.3480012  83.2494997   2.3289988  94.1857059  82.4083586   2.4774401
  94.2110012  88.1394997  15.4439988  93.3600012  88.3774997  15.0769988
  94.8020012  88.1224997  14.6909988  94.1742487  88.1698258  15.2918893
  92.5430012  91.1254997   3.0719988  92.1700012  90.2994997   3.3809988
  92.8210012  90.9424997   2.1749988  92.5295630  90.9877303   2.9929626
  89.7040012  85.9334997  10.0929988  88.7750012  85.7014997  10.0659988
  90.1550012  85.1564997   9.7629988  89.6379216  85.7967238  10.0446917
  82.2470012  90.2614997   6.2259988  82.7740012  91.0344997   6.0259988
  81.3670012  90.4864997   5.9249988  82.2001773  90.3978005   6.1579010
  78.0020012  85.1234997   0.8129988  78.6180012  85.7504997   1.1929988
  77.1400012  85.4394997   1.0849988  77.9697698  85.2519430   0.9017183
  83.6740012  87.9244997   5.8029988  83.4330012  88.8494997   5.8439988
  82.9330012  87.4654997   6.1989988  83.5408409  87.9891421   5.8621377
  84.1890012  92.0734997  12.1179988  84.5510012  92.9284997  11.8839988
  84.7200012  91.7814997  12.8579988  84.3104473  92.1511060  12.1860855
  82.3570012  92.9464997   5.3479988  81.4070012  93.0514997   5.3989988
  82.7090012  93.7664997   5.6929988  82.2744203  93.0718314   5.4016650
  87.7330012  88.1724997  11.8179988  87.3070012  87.9454997  12.6449988
  88.3130012  87.4344997  11.6359988  87.7531868  88.0415299  11.9065830
  89.9360012  89.1014997   0.8919988  90.2890012  88.7214997   1.6969988
  88.9870012  89.0084997   0.9789988  89.8560441  89.0369596   1.0138559
  90.3910012  92.7244997  14.2879988  89.7900012  92.1694997  13.7919988
  90.6730012  93.3914997  13.6619988  90.3468519  92.7386841  14.1354951
  94.4390012  93.5814997   1.0929988  95.1830012  94.1674997   0.9529988
  93.7450012  94.1494997   1.4269988  94.4470292  93.7385582   1.1189961
  78.5140012  79.9574997  13.6949988  77.6210012  80.2964997  13.6269988
  78.4150012  79.1024997  14.1129988  78.3784164  79.8882588  13.7422235
  90.8020012  87.7744997   3.1189988  90.5240012  87.0464997   3.6749988
  91.7290012  87.8934997   3.3239988  90.8893124  87.6908802   3.2228845
  78.1650012  91.7624997  12.1299988  78.3820012  90.8304997  12.0989988
  78.4110012  92.0364997  13.0129988  78.2279549  91.6720636  12.2451763
  84.0270012  90.2134997  -0.6610012  84.2660012  89.4654997  -1.2080012
  83.7580012  89.8254997   0.1719988  84.0233675  90.0586638  -0.6233135
  82.9640012  89.7834997   1.7959988  83.1100012  89.2634997   2.5859988
  82.9610012  90.6904997   2.1019988  82.9835989  89.8348853   1.9456088
  79.4170012  87.0364997   2.3059988  78.7310012  87.3884997   2.8729988
  79.9390012  87.7994997   2.0589988  79.3936852  87.1878578   2.3502118
  87.2480012  79.6984997  12.5849988  87.9470012  79.7724997  13.2349988
  86.8670012  78.8344997  12.7389988  87.2921767  79.5917624  12.6948322
  88.0330012  79.3504997   3.6819988  88.2530012  79.8224997   2.8789988
  88.5910012  79.7454997   4.3519988  88.1384968  79.4684285   3.6627331
  85.7010012  91.4814997   2.5449988  84.8850012  91.9784997   2.5969988
  86.2310012  91.9564997   1.9049988  85.6609161  91.6137722   2.4655956
  85.2330012  81.0784997   4.5169988  86.0450012  81.5834997   4.5629988
  84.9880012  80.9334997   5.4309988  85.3110520  81.1280375   4.6468517
  85.7680012  82.0644997  13.7019988  85.8870012  82.6384997  14.4589988
  86.4240012  81.3764997  13.8159988  85.8729757  82.0501079  13.8210825
  86.1160012  78.1594997   5.4549988  85.7700012  78.7774997   6.0999988
  86.7750012  78.6604997   4.9739988  86.1577826  78.3115802   5.4780971
  83.0400012  92.5254997   2.5269988  83.2000012  93.3244997   2.0259988
  82.8420012  92.8314997   3.4119988  83.0351649  92.6764469   2.5779815
  81.7740012  79.2224997   2.1419988  81.6910012  80.1114997   2.4889988
  82.6640012  78.9574997   2.3739988  81.8829469  79.3081430   2.2207626
  91.9730012  79.9714997  14.5369988  91.0560012  80.2344997  14.4489988
  92.3080012  79.9684997  13.6399988  91.8929900  80.0070224  14.4037919
  90.5750012  83.7224997   8.6319988  89.7770012  83.3074997   8.3039988
  91.0200012  83.0314997   9.1229988  90.5259885  83.5723543   8.6534889
  80.0330012  89.6504997   1.2029988  80.6250012  90.3494997   1.4789988
  80.4920012  89.2174997   0.4829988  80.1761142  89.6877049   1.1434830
  78.3490012  82.3144997   0.3189988  78.3040012  83.2534997   0.4969988
  77.4610012  82.0784997   0.0489988  78.2228574  82.4111892   0.3068912
  91.6610012  92.9784997  10.2549988  91.5060012  93.6564997   9.5979988
  92.5940012  93.0504997  10.4579988  91.7658500  93.0810170  10.1925119
  79.1570012  77.0964997   8.9919988  78.9280012  77.1554997   8.0639988
  78.7140012  76.3044997   9.2979988  79.0658530  76.9975753   8.9064786
  78.0870012  91.0364997   5.1519988  77.2550012  91.5094997   5.1799988
  78.6330012  91.5464997   4.5539988  78.0469739  91.1701871   5.0749716
  77.3750012  93.6494997  16.4819988  77.9160012  93.4324997  17.2419988
  76.8940012  92.8434997  16.2929988  77.3839345  93.5109514  16.5603076
  81.9730012  92.5684997  18.1029988  82.7400012  92.1094997  18.4439988
  81.9510012  92.3424997  17.1729988  82.0751434  92.4750409  18.0240043
  86.0650012  92.0764997  -0.5220012  85.4210012  91.4454997  -0.2010012
  86.8270012  91.5454997  -0.7540012  86.0798077  91.9182920  -0.5093989
  88.5500012  90.9484997  16.8319988  88.1990012  90.0924997  17.0749988
  89.2760012  91.0914997  17.4389988  88.6000769  90.8505636  16.9473619
  90.6690012  91.8934997  -0.2880012  90.9520012  91.0994997   0.1639988
  91.4090012  92.1264997  -0.8490012  90.8077486  91.8162803  -0.3019302
  77.2820012  87.4594997  17.4369988  77.4260012  86.5574997  17.1499988
  76.5100012  87.7454997  16.9489988  77.1973322  87.3748261  17.3317881
  81.6240012  87.8034997  -0.4310012  81.6880012  87.0094997   0.0999988
  82.2770012  87.6844997  -1.1210012  81.7210241  87.6787148  -0.4515683
  83.9380012  87.4294997  16.8689988  83.6090012  87.7004997  16.0119988
  84.0900012  86.4884997  16.7819988  83.9134809  87.3393862  16.7398244
  86.9760012  88.8504997  -0.6950012  86.7070012  89.0304997   0.2059988
  86.7700012  87.9244997  -0.8260012  86.9113825  88.7500152  -0.5894786
  89.6720012  87.3454997  14.2529988  90.4180012  87.9334997  14.1329988
  88.9150012  87.9274997  14.3159988  89.6717554  87.5047011  14.2450907
  78.1150012  84.6594997  16.8569988  78.5230012  83.8024997  16.7359988
  77.8550012  84.6744997  17.7779988  78.1357568  84.5440807  16.9649588
  82.7730012  85.7754997   1.8749988  82.3130012  85.2914997   2.5609988
  83.0280012  85.1074997   1.2389988  82.7444902  85.6188731   1.8829334
  82.0620012  83.6684997  14.2309988  81.4440012  84.3434997  14.5109988
  82.4060012  83.9894997  13.3979988  82.0239615  83.8042721  14.1566581
  83.8440012  84.0184997   0.1369988  83.6640012  83.8644997  -0.7900012
  84.7940012  84.1264997   0.1819988  83.9477776  84.0120175   0.0161843
  87.0820012  86.1404997  17.5079988  88.0350012  86.2234997  17.4809988
  86.9210012  85.4284997  18.1279988  87.1906426  86.0556746  17.5880579
  93.2340012  86.3734997  -0.4170012  92.9600012  85.9484997  -1.2300012
  93.2730012  87.3044997  -0.6340012  93.2017699  86.4412484  -0.5576390
  82.4010012  81.0234997  15.3129988  82.5510012  80.2944997  14.7109988
  82.4040012  81.8004997  14.7539988  82.4219302  81.0287851  15.1550692
  82.8140012  79.3934997  12.8059988  83.3500012  79.8444997  12.1539988
  81.9620012  79.2854997  12.3829988  82.7722178  79.4406390  12.6595756
  84.3960012  84.8324997  13.0449988  85.1460012  84.6764997  12.4719988
  84.0570012  85.6844997  12.7699988  84.4528921  84.9262968  12.9293561
  88.8110012  82.6474997  18.0739988  89.0040012  81.7164997  17.9619988
  89.6690012  83.0724997  18.0639988  88.9533020  82.5776389  18.0573361
  90.1280012  85.4364997  16.1509988  89.8470012  86.1454997  15.5739988
  91.0710012  85.3634997  15.9999988  90.2169027  85.5237646  16.0515551
  80.8800012  82.2214997  17.2249988  80.1130012  81.6894997  17.0149988
  81.5590012  81.9114997  16.6249988  80.8667022  82.1067506  17.1151648
  83.6200012  76.8494997  13.2369988  83.5210012  77.7964997  13.1319988
  82.8770012  76.4774997  12.7619988  83.5060564  76.9285902  13.1584560
  84.8840012  81.1714997  16.8009988  84.6480012  80.9514997  17.7029988
  84.1000012  80.9644997  16.2909988  84.7458628  81.1134760  16.8553932
  87.5990012  80.2984997  15.8769988  86.6520012  80.3304997  16.0089988
  87.9120012  79.6734997  16.5299988  87.5115475  80.2183207  15.9834455
  89.2330012  78.9324997  17.8819988  89.1370012  77.9804997  17.8759988
  88.9120012  79.2014997  18.7419988  89.1764070  78.8384035  17.9975441
  79.0600012  80.1424997  16.9289988  79.2720012  79.4354997  16.3189988
  78.9490012  79.7044997  17.7729988  79.0739721  79.9867084  16.9596843
  83.7410012  94.7094997   1.1389988  84.6740012  94.8674997   1.2819988
  83.4770012  95.3844997   0.5139988  83.8329510  94.8223611   1.0740741
  77.3100012  89.3454997   0.6209988  78.2240012  89.4244997   0.8949988
  77.3170012  88.6584997  -0.0450012  77.4361131  89.2633961   0.5684393
  75.9590012  94.7384997   5.6989988  75.3120012  94.2764997   5.1659988
  76.3130012  94.0664997   6.2809988  75.9183849  94.5844723   5.7047959
  76.8290012  92.8194997   7.5029988  76.4940012  91.9394997   7.6749988
  77.0510012  93.1644997   8.3679988  76.8131783  92.7457500   7.6434208
  94.3770012  93.6284997  10.4839988  94.3560012  93.8134997  11.4229988
  95.0680012  94.1974997  10.1429988  94.4674618  93.7306606  10.5663864
  93.9410012  93.1964997  13.4059988  93.4530012  92.4604997  13.0349988
  94.4900012  92.8024997  14.0839988  93.9484872  93.0426249  13.4469160
  92.3910012  88.9854997  18.0439988  91.5250012  88.8804997  18.4379988
  92.7680012  89.7444997  18.4899988  92.3233308  89.0736900  18.1582393
  93.6920012  87.2424997   3.5579988  94.5420012  87.6634997   3.6849988
  93.6980012  86.5024997   4.1649988  93.8091372  87.2000803   3.6574344
  94.0870012  85.2954997   5.3819988  93.3600012  84.8164997   5.7789988
  94.6680012  85.5014997   6.1139988  94.0659375  85.2577090   5.5354129
  93.8460012  88.0804997  10.3289988  94.6790012  87.7024997  10.0489988
  93.9580012  89.0234997  10.2099988  93.9752647  88.1562218  10.2745487
  92.3320012  90.9584997  12.6359988  91.6850012  91.2834997  13.2619988
  91.8150012  90.5184997  11.9619988  92.1734029  90.9435004  12.6305827
  94.3550012  85.1964997   1.7729988  93.8330012  85.5534997   1.0539988
  94.3220012  85.8714997   2.4509988  94.2791634  85.3365413   1.7663145
  92.7040012  82.4364997   0.3239988  92.8000012  83.1034997  -0.3570012
  92.5640012  81.6204997  -0.1580012  92.6982135  82.4174500   0.1658491
  91.8730012  83.8164997   5.9449988  91.7230012  82.8714997   5.9239988
  91.5200012  84.0974997   6.7879988  91.8046625  83.7250441   6.0562346
  76.9090012  85.8944997   9.9549988  77.0930012  85.8124997   9.0189988
  77.7580012  85.7704997  10.3789988  77.0490139  85.8665003   9.8841455
  92.7300012  85.7864997  15.5829988  93.3130012  85.0524997  15.7749988
  93.2940012  86.5584997  15.6299988  92.8859769  85.7904227  15.6156159
  94.2260012  83.6894997  16.2679988  93.3630012  83.3104997  16.1019988
  94.8310012  82.9504997  16.1939988  94.1895979  83.5378023  16.2352817
  91.9510012  79.8444997  -0.5590012  92.5620012  79.4734997   0.0779988
  91.1150012  79.4234997  -0.3630012  91.9215032  79.7367554  -0.4452965
  91.5840012  81.3994997   4.4069988  91.8640012  80.4924997   4.5309988
  92.3430012  81.8334997   4.0179988  91.7249277  81.3340942   4.3713682
  92.1960012  81.9804997   9.8429988  93.1290012  82.1924997   9.8089988
  91.9610012  82.0824997  10.7649988  92.2918036  82.0232769   9.9629976
  92.2250012  82.7174997  12.6189988  91.3820012  82.9854997  12.9849988
  92.6670012  83.5394997  12.4079988  92.1694158  82.8653291  12.6405491
  76.5060012  81.1654997  16.0959988  77.4260012  81.0434997  16.3319988
  76.0570012  80.4154997  16.4849988  76.5711580  81.0473727  16.1809006
  94.5080012  76.6974997  17.9719988  94.8580012  76.0434997  17.3669988
  94.6550012  77.5344997  17.5329988  94.5758419  76.7211591  17.8297118
  92.1970012  78.6624997   4.4549988  92.3800012  78.2134997   5.2809988
  91.5980012  78.0774997   3.9919988  92.1410202  78.5219975   4.5053275
  77.7270012  79.4774997   8.9869988  78.1730012  78.6854997   9.2889988
  78.1940012  80.1934997   9.4179988  77.8510172  79.4660624   9.0864820
  76.0310012  82.4764997  10.0559988  76.5230012  82.2554997   9.2649988
  76.3940012  83.3174997  10.3369988  76.1473126  82.5598357   9.9857531
  94.0280012  78.8064997  16.3219988  93.1100012  79.0774997  16.2859988
  94.1510012  78.2714997  15.5369988  93.9191066  78.7712892  16.2110487
  94.0640012  78.7294997   0.9829988  94.4760012  78.0084997   0.5079988
  94.7460012  79.3994997   1.0419988  94.2125885  78.7212368   0.9258915
  76.3450012  78.7344997   4.1099988  75.4200012  78.9434997   3.9809988
  76.7990012  79.2184997   3.4209988  76.2797368  78.8285993   3.9991226
  91.1160012  93.7184997   6.0559988  91.7680012  93.3714997   5.4479988
  91.6260012  94.2074997   6.7019988  91.2742637  93.7370597   6.0600236
  76.3090012  77.4724997  12.4549988  75.6440012  77.2264997  13.0979988
  75.8660012  78.0944997  11.8769988  76.1580956  77.5228632  12.4649352
  78.5010012  90.6474997  16.5989988  77.6800012  90.8224997  16.1389988
  78.2480012  90.5744997  17.5199988  78.3546164  90.6615622  16.6604923
  81.4550012  91.6224997  12.8579988  81.0300012  92.4314997  12.5749988
  82.3590012  91.7074997  12.5559988  81.5190271  91.7448469  12.7783776
  85.7660012  93.0214997  15.8169988  85.9510012  92.6874997  16.6949988
  86.6120012  93.3304997  15.4949988  85.9057539  93.0176047  15.8935605
  88.1110012  94.3074997  15.0609988  88.7880012  93.6744997  14.8209988
  88.4330012  94.7084997  15.8679988  88.2471637  94.2751154  15.1372793
  93.0280012  76.8964997  14.1409988  92.2160012  77.2214997  13.7529988
  93.2610012  76.1364997  13.6079988  92.9483423  76.8382436  14.0158253
  78.8570012  94.8784997  12.9049988  78.1360012  95.3184997  12.4539988
  78.4910012  94.6274997  13.7539988  78.7089804  94.9047698  12.9579840
  81.3240012  94.4784997  11.9349988  80.4590012  94.5504997  12.3389988
  81.2690012  95.0254997  11.1509988  81.1982085  94.5622685  11.8843362
  86.0340012  94.3664997  11.1099988  85.5780012  94.8954997  10.4559988
  86.1970012  94.9694997  11.8359988  85.9935585  94.5204468  11.1185062
  88.3620012  93.2444997  12.0549988  87.4570012  93.4094997  11.7899988
  88.7910012  94.0974997  11.9899988  88.2960799  93.3824483  12.0099182
  90.9660012  94.8144997  12.3499988  90.7840012  95.7304997  12.1399988
  91.1430012  94.4044997  11.5039988  90.9650210  94.8844822  12.2067885
  78.2710012  93.5014997   9.8149988  78.2530012  93.0764997  10.6729988
  79.0760012  93.1834997   9.4069988  78.3773875  93.4003812   9.8771655
  80.4130012  92.2114997   8.4699988  80.1940012  91.2954997   8.6399988
  81.2370012  92.3514997   8.9359988  80.4944420  92.1050520   8.5562774
  82.9500012  92.6814997   9.3189988  83.1630012  91.7934997   9.0319988
  83.0140012  92.6474997  10.2729988  82.9878232  92.5553102   9.4087397
  86.4580012  78.3454997   8.4629988  85.7840012  77.7164997   8.7189988
  87.0220012  77.8614997   7.8599988  86.4419230  78.1938744   8.4165340
  91.6010012  76.4534997   8.5759988  92.2050012  77.0004997   8.0739988
  90.7310012  76.7724997   8.3359988  91.5661241  76.5715806   8.4747654
  93.3280012  77.5914997   6.9089988  93.9400012  77.0774997   6.3829988
  93.7100012  78.4694997   6.9329988  93.4634540  77.6397140   6.8401830
  78.7850012  76.9794997   6.2849988  78.0080012  76.7454997   5.7779988
  79.3150012  76.1824997   6.2939988  78.7502330  76.8396988   6.2167742
  77.6210012  76.7774997   2.0889988  78.0600012  77.3884997   1.4969988
  76.9880012  77.3154997   2.5629988  77.5954514  76.9339257   2.0720930
  83.3640012  76.9064997   6.0989988  84.2390012  77.2944997   6.0689988
  83.2280012  76.6914997   7.0209988  83.4653695  76.9305184   6.2196440
  88.9210012  76.9364997   7.7479988  88.9970012  77.0314997   6.7979988
  88.6460012  76.0284997   7.8769988  88.8942321  76.8267867   7.6355079
  90.2740012  76.9624997   3.4399988  89.5720012  77.5774997   3.2309988
  89.8300012  76.1244997   3.5709988  90.1176330  76.9335783   3.4290328
  77.5220012  92.7254997   2.9869988  76.8370012  92.6874997   2.3189988
  77.5260012  93.6384997   3.2749988  77.4288193  92.8437016   2.9345284
  79.4820012  78.6934997   0.5309988  79.9740012  78.0634997   0.0039988
  80.1060012  78.9894997   1.1949988  79.6335446  78.6473199   0.5485980
  84.5080012  78.9864997   2.9879988  84.6860012  78.3404997   3.6709988
  84.4550012  79.8204997   3.4559988  84.5251829  79.0107985   3.1445940
  86.3870012  93.9354997   1.3839988  87.2530012  94.3014997   1.2059988
  86.1400012  93.4954997   0.5699988  86.4722392  93.9261756   1.2496289
  93.0960012  93.4984997   4.0629988  92.9010012  92.7504997   3.4979988
  93.0570012  94.2564997   3.4799988  93.0640380  93.4986099   3.9068384
  79.3400012  93.6454997   0.0119988  79.0730012  93.9324997   0.8849988
  80.1120012  93.0994997   0.1639988  79.4077488  93.6110294   0.1521050
  89.1370012  76.1764997  17.5209988  89.2140012  75.7504997  18.3749988
  90.0310012  76.1904997  17.1779988  89.2683428  76.1200879  17.5915310
  92.3130012  92.2494997  16.2129988  91.5310012  92.0634997  15.6939988
  92.2410012  93.1784997  16.4309988  92.1961777  92.3496492  16.1714048
 106.7190012  86.1354997   6.2439988 106.8080012  87.0794997   6.1119988
 106.0810012  85.8604997   5.5859988 106.6449081  86.2274830   6.1369614
 105.6520012  85.3904997   9.6629988 105.6140012  84.7444997  10.3679988
 105.3300012  84.9244997   8.8919988 105.6032333  85.2389408   9.6552978
  98.0210012  85.0054997  11.2559988  98.0620012  84.3794997  11.9789988
  98.7240012  85.6294997  11.4379988  98.1216363  85.0041196  11.3796044
 109.3580012  88.3294997   7.9639988 108.9180012  87.6094997   8.4149988
 109.3450012  89.0504997   8.5939988 109.2960226  88.3283731   8.1108494
  98.9440012  89.4554997   9.7909988  98.5750012  88.6534997   9.4209988
  99.8850012  89.2864997   9.8369988  99.0207289  89.3230153   9.7466316
  95.5540012  83.1154997   5.1839988  95.1070012  83.9614997   5.1649988
  94.9930012  82.5354997   4.6679988  95.4169900  83.1529916   5.1116801
  96.2650012  85.2774997   7.3099988  96.4780012  84.5074997   7.8369988
  97.0030012  85.3664997   6.7059988  96.3938496  85.1841394   7.3005300
 106.4700012  93.4344997   8.1769988 107.0900012  92.7574997   7.9029988
 106.2620012  93.2164997   9.0849988 106.5266904  93.3123870   8.2623365
 104.0420012  87.8234997  10.0689988 104.3460012  87.1374997   9.4739988
 104.7630012  87.9414997  10.6869988 104.1810671  87.7456305  10.0711816
 112.7050012  79.4244997  10.9299988 112.7540012  80.0344997  11.6659988
 113.1300012  79.8854997  10.2069988 112.7691824  79.5703741  10.9330205
 107.1830012  82.2174997  10.3969988 107.3250012  81.2714997  10.4169988
 107.0760012  82.4244997   9.4679988 107.1879864  82.1159534  10.2742339
 100.3370012  80.3184997   7.6689988 100.3810012  81.1784997   7.2509988
  99.8800012  79.7664997   7.0349988 100.2812185  80.3615799   7.5260299
 108.0600012  80.4494997   6.0699988 108.7060012  80.1204997   6.6949988
 108.5700012  80.9674997   5.4469988 108.2174264  80.4744611   6.0713862
  96.9580012  82.7154997   8.4309988  97.6110012  82.1654997   8.8629988
  96.9820012  82.4414997   7.5139988  97.0506683  82.6031466   8.3662123
 102.1140012  84.2654997   7.6459988 102.7300012  83.7394997   8.1559988
 101.5280012  83.6254997   7.2429988 102.1190810  84.1069208   7.6613173
 113.0960012  80.9024997  13.1659988 112.4080012  81.5604997  13.0699988
 113.1120012  80.7054997  14.1019988 113.0038525  80.9660462  13.2794808
  99.1480012  79.2364997  11.7429988  98.9290012  79.7664997  10.9769988
  98.4800012  79.4634997  12.3899988  99.0277600  79.3396906  11.7256379
 106.5170012  88.7364997   5.2869988 106.2210012  88.4144997   4.4359988
 106.1920012  89.6364997   5.3279988 106.4326371  88.8140215   5.1761801
 101.7170012  86.9124997  12.0299988 100.9770012  87.5104997  12.1339988
 102.4310012  87.4664997  11.7149988 101.7122237  87.0692831  12.0016465
 109.8240012  79.7404997   8.0499988 109.6080012  78.9744997   8.5829988
 110.4790012  80.2124997   8.5629988 109.8830632  79.6995889   8.1922861
  98.7410012  81.1284997   9.6949988  99.3550012  81.7614997  10.0689988
  99.2530012  80.6564997   9.0389988  98.8942296  81.1512370   9.6574252
 100.1240012  88.8764997  12.8179988 100.1190012  89.7564997  12.4399988
  99.2710012  88.7934997  13.2429988 100.0079464  88.9856117  12.8237907
  96.2450012  88.5474997   3.5999988  95.9730012  88.7764997   2.7109988
  96.2910012  89.3854997   4.0599988  96.2140094  88.6921213   3.5405697
 109.8700012  90.1694997  10.3119988 108.9290012  90.2274997  10.4739988
 110.1470012  91.0754997  10.1749988 109.7784679  90.2999443  10.3156815
 110.1710012  78.4554997  11.7299988 109.4350012  79.0664997  11.6919988
 110.8540012  78.8704997  11.2029988 110.1626541  78.5951374  11.6535832
 103.1740012  76.5424997   9.1959988 103.0570012  75.5934997   9.1409988
 102.3190012  76.8744997   9.4689988 103.0423733  76.4575409   9.2253897
 108.1220012  91.9504997   6.9379988 108.5480012  91.2434997   6.4529988
 108.4390012  92.7514997   6.5209988 108.2231019  91.9620994   6.8153130
 109.2820012  89.8514997   5.4459988 109.0240012  89.1614997   4.8349988
 109.3530012  89.4084997   6.2919988 109.2562856  89.6972124   5.4766885
 110.9680012  88.4174997  13.9239988 111.1080012  87.8264997  13.1839988
 111.1350012  89.2904997  13.5669988 111.0096778  88.4546426  13.7746965
 105.4410012  85.3794997   3.6959988 104.7290012  85.9144997   3.3439988
 106.1320012  85.4354997   3.0359988 105.4370132  85.4602543   3.5586289
 105.4940012  83.8374997   0.7349988 106.1950012  83.8594997   1.3859988
 105.7970012  83.2094997   0.0789988 105.6307830  83.7556566   0.7353711
 112.8100012  84.7574997  11.9899988 112.1570012  85.4524997  12.0789988
 113.2750012  84.9674997  11.1799988 112.7835390  84.8809425  11.8926883
 108.8460012  85.5894997   4.6479988 108.1140012  85.8174997   5.2209988
 109.2940012  84.8754997   5.1029988 108.8063095  85.5242571   4.7879119
 108.7440012  83.7634997  13.7149988 108.8240012  84.5264997  14.2869988
 108.1420012  84.0424997  13.0249988 108.6735756  83.9057134  13.7000589
 100.4920012  86.2194997   6.5299988 100.1610012  85.8494997   5.7119988
 101.0800012  85.5494997   6.8769988 100.5261873  86.0781156   6.4648102
 101.8580012  89.6474997   9.2119988 101.7640012  89.0694997   8.4549988
 102.5880012  89.2764997   9.7079988 101.9437981  89.5182390   9.1754165
 100.8580012  84.9884997  10.1639988 101.4240012  85.1094997   9.4009988
 101.1770012  85.6254997  10.8029988 100.9785786  85.0911884  10.1460040
 107.1670012  90.4914997  10.8979988 106.9270012  91.1534997  11.5459988
 106.9690012  89.6574997  11.3229988 107.1073808  90.4693134  11.0441524
 101.7380012  89.3874997  14.8809988 101.4270012  90.1694997  15.3359988
 101.0880012  89.2344997  14.1949988 101.6075558  89.4739105  14.8505871
 107.7170012  84.7514997   2.3329988 108.2970012  84.9014997   3.0799988
 108.1310012  85.2224997   1.6099988 107.8522830  84.8356841   2.3374134
  98.6580012  85.5854997  14.1099988  98.7290012  86.2364997  14.8079988
  97.7680012  85.6884997  13.7749988  98.5473117  85.6885936  14.1602700
 105.4440012  91.4884997   5.7679988 105.9180012  91.7834997   6.5459988
 104.8810012  92.2264997   5.5349988 105.4327653  91.6286932   5.8430136
  99.9780012  91.4594997  15.6439988  99.9850012  91.3234997  14.6969988
  99.0620012  91.3414997  15.8959988  99.8551714  91.4249430  15.5484666
 111.4160012  76.5014997   2.1459988 110.5160012  76.6404997   2.4409988
 111.6680012  77.3324997   1.7439988 111.3268702  76.6329074   2.1320205
  99.4820012  85.2894997   4.1199988  99.1900012  86.0574997   3.6289988
  98.8080012  84.6294997   3.9569988  99.3509081  85.3054406   4.0307339
 112.6050012  90.8674997   0.5219988 112.6790012  91.8064997   0.6929988
 113.5110012  90.5624997   0.4659988 112.7375100  90.9546722   0.5378119
  95.5750012  87.6524997  12.9349988  95.0740012  87.6244997  12.1199988
  95.5800012  86.7464997  13.2439988  95.5071526  87.5262278  12.8652872
  95.3250012  90.4324997   9.8189988  96.2710012  90.2884997   9.7999988
  95.2130012  91.2164997  10.3559988  95.4392727  90.5188046   9.8890072
 113.5230012  91.0984997  15.5009988 113.4740012  90.1434997  15.4639988
 112.6960012  91.3664997  15.9019988 113.4044940  91.0038998  15.5501375
 104.5020012  90.6724997  14.3769988 104.5890012  91.4984997  14.8519988
 103.6380012  90.3424997  14.6259988 104.3971964  90.7409878  14.4756549
 104.9160012  94.4444997   4.1829988 104.8410012  94.3234997   3.2369988
 104.9490012  95.3944997   4.3019988 104.9101848  94.5562500   4.0694834
  98.5690012  93.2334997   5.9639988  98.7220012  92.8854997   6.8429988
  97.7190012  92.8774997   5.7089988  98.4748962  93.1376650   6.0498340
 108.0180012  93.5984997   1.1849988 108.3930012  92.8544997   0.7149988
 108.0220012  93.3284997   2.1039988 108.0698915  93.4601486   1.2447824
 107.6870012  93.5244997   3.9349988 106.7510012  93.6244997   4.1129988
 107.9670012  92.8154997   4.5129988 107.5968255  93.4422711   4.0375391
 110.6750012  82.5914997  15.9809988 110.2680012  83.0724997  15.2599988
 110.7160012  81.6864997  15.6729988 110.6248437  82.5349374  15.8406683
  97.8240012  88.9754997  13.9779988  98.0400012  88.6144997  14.8369988
  96.9690012  88.6014997  13.7679988  97.7379292  88.8754111  14.0673386
 100.4430012  77.4454997   9.9729988  99.5810012  77.3584997   9.5659988
 100.4200012  78.3014997  10.4009988 100.3220330  77.5492765   9.9751863
 105.1060012  77.1674997  13.3479988 105.5260012  76.7524997  14.1009988
 104.1730012  76.9894997  13.4649988 105.0373644  77.0865900  13.4669539
 108.4320012  80.9234997  14.2009988 107.9180012  80.7974997  14.9989988
 108.2770012  81.8354997  13.9569988 108.3406852  81.0296132  14.2772158
 109.1950012  85.7844997  -0.0370012 109.2370012  85.5614997  -0.9670012
 110.0440012  86.1834997   0.1529988 109.3155396  85.8079155  -0.1386373
 104.7670012  79.6604997   0.6329988 104.5140012  79.6794997   1.5559988
 104.5110012  78.7884997   0.3319988 104.6977790  79.5452437   0.7186263
 100.5340012  82.4114997  11.0679988  99.8920012  82.3704997  11.7769988
 100.5710012  83.3374997  10.8309988 100.4511324  82.5311559  11.1329824
 100.5310012  82.6324997   5.9799988  99.6380012  82.2914997   5.9219988
 100.9810012  82.2554997   5.2249988 100.4697305  82.5348484   5.8699177
 106.0660012  83.0484997   4.7969988 105.6570012  83.8634997   4.5059988
 106.7870012  82.9084997   4.1829988 106.1074537  83.1412018   4.6741342
 105.1680012  83.2234997  16.2849988 104.6060012  82.5194997  16.6059988
 105.9950012  83.1034997  16.7529988 105.2027095  83.1107883  16.3922330
 107.0710012  82.4944997   7.6109988 106.8760012  83.0994997   6.8959988
 107.2520012  81.6604997   7.1769988 107.0687614  82.4646300   7.4544405
  98.2840012  82.7314997  12.9349988  98.2460012  83.1314997  13.8039988
  97.7930012  81.9144997  13.0259988  98.2124684  82.6758069  13.0661059
 101.6500012  80.1054997  -0.2660012 101.2190012  79.6604997   0.4639988
 100.9320012  80.4774997  -0.7780012 101.4939438  80.0948940  -0.2353201
  94.8920012  79.8474997   6.7859988  95.5230012  79.8184997   7.5049988
  95.3410012  79.4224997   6.0559988  95.0390774  79.7860492   6.7856553
  96.1660012  80.5934997   2.2099988  96.6400012  81.1844997   1.6249988
  95.4490012  81.1244997   2.5569988  96.1339341  80.7460867   2.1768836
 106.3350012  84.1324997  12.2829988 106.6580012  83.5014997  11.6399988
 105.8950012  83.5974997  12.9429988 106.3196895  83.9738441  12.2842850
 103.1120012  80.0594997   7.0669988 102.2010012  80.1164997   7.3549988
 103.6180012  79.9994997   7.8769988 103.0555413  80.0591985   7.2160622
  97.9410012  81.6884997   5.8929988  97.0510012  81.7884997   5.5529988
  98.2370012  80.8464997   5.5469988  97.8592823  81.5883545   5.7997213
 101.5940012  81.6884997   3.5499988 102.5250012  81.8174997   3.7279988
 101.3790012  82.3584997   2.8999988 101.6924247  81.7966565   3.4865747
 107.5170012  79.2944997  10.3309988 106.8410012  79.4254997  10.9949988
 107.0320012  79.1394997   9.5209988 107.3587145  79.2914905  10.3124517
 100.2680012  82.8834997   1.1169988  99.7250012  82.5034997   0.4249988
 101.1010012  83.0774997   0.6879988 100.3064399  82.8578124   0.9644526
 110.8050012  94.9664997  16.6079988 111.0050012  95.3904997  15.7729988
 111.4600012  95.3094997  17.2149988 110.9210051  95.0709648  16.5757836
  98.4030012  87.4404997  16.2159988  99.1350012  87.6944997  16.7769988
  97.6230012  87.6444997  16.7309988  98.3978232  87.5029177  16.3625760
 104.4320012  82.8474997   8.9539988 104.9970012  82.3004997   8.4069988
 104.2850012  82.3254997   9.7419988 104.4892918  82.7022024   8.9858454
  99.4340012  78.9834997   5.3719988  99.1170012  78.0814997   5.3369988
 100.2160012  78.9854997   4.8189988  99.4962284  78.8601628   5.2924783
 103.0590012  81.2354997  11.3679988 102.2230012  81.6894997  11.4779988
 103.5830012  81.5114997  12.1199988 103.0154414  81.3349376  11.4847136
 103.6030012  87.4484997   3.0519988 102.8580012  86.9414997   2.7299988
 103.4690012  87.4974997   3.9989988 103.4828776  87.3856940   3.1358647
 110.7530012  86.5814997  11.8389988 111.3950012  87.0384997  11.2949988
 109.9230012  86.6944997  11.3759988 110.7285963  86.6592704  11.7020177
 107.5010012  80.2624997   1.2519988 106.5620012  80.3744997   1.0999988
 107.7980012  81.1194997   1.5579988 107.4127666  80.3936443   1.2725768
 105.1220012  87.6324997  14.2889988 104.7770012  87.2514997  15.0959988
 104.9220012  88.5664997  14.3609988 105.0478061  87.7065228  14.4090961
 108.2190012  82.1294997   2.9119988 109.1110012  81.9924997   3.2309988
 108.2760012  82.9204997   2.3759988 108.3486285  82.2176660   2.8831690
  98.7280012  86.7434997   8.8219988  99.4730012  86.7414997   8.2209988
  98.8060012  85.9204997   9.3039988  98.8405518  86.6319315   8.8048929
 105.7290012  88.9074997   2.0779988 105.4330012  89.7334997   2.4589988
 105.0260012  88.2874997   2.2739988 105.5934914  88.9368199   2.1566443
  95.7360012  85.2044997  14.1369988  95.9590012  84.7864997  14.9689988
  95.1340012  84.5914997  13.7139988  95.6851759  85.0644668  14.1937022
 102.7520012  84.7214997  16.3499988 102.4560012  84.5554997  15.4549988
 103.6840012  84.5014997  16.3389988 102.8374166  84.6690640  16.2260536
 107.3730012  90.0944997  14.2399988 106.4720012  90.2774997  13.9719988
 107.4070012  90.3534997  15.1609988 107.2543041  90.1545512  14.3278197
 113.1040012  82.3394997   2.6069988 112.5500012  81.9434997   1.9349988
 113.2040012  83.2494997   2.3289988 113.0417059  82.4083586   2.4774401
 113.0670012  88.1394997  15.4439988 112.2160012  88.3774997  15.0769988
 113.6580012  88.1224997  14.6909988 113.0302487  88.1698258  15.2918893
 111.3990012  91.1254997   3.0719988 111.0260012  90.2994997   3.3809988
 111.6770012  90.9424997   2.1749988 111.3855630  90.9877303   2.9929626
 108.5600012  85.9334997  10.0929988 107.6310012  85.7014997  10.0659988
 109.0110012  85.1564997   9.7629988 108.4939216  85.7967238  10.0446917
 101.1030012  90.2614997   6.2259988 101.6300012  91.0344997   6.0259988
 100.2230012  90.4864997   5.9249988 101.0561773  90.3978005   6.1579010
  96.8580012  85.1234997   0.8129988  97.4740012  85.7504997   1.1929988
  95.9960012  85.4394997   1.0849988  96.8257698  85.2519430   0.9017183
 102.5300012  87.9244997   5.8029988 102.2890012  88.8494997   5.8439988
 101.7890012  87.4654997   6.1989988 102.3968409  87.9891421   5.8621377
 103.0450012  92.0734997  12.1179988 103.4070012  92.9284997  11.8839988
 103.5760012  91.7814997  12.8579988 103.1664473  92.1511060  12.1860855
 101.2130012  92.9464997   5.3479988 100.2630012  93.0514997   5.3989988
 101.5650012  93.7664997   5.6929988 101.1304203  93.0718314   5.4016650
 106.5890012  88.1724997  11.8179988 106.1630012  87.9454997  12.6449988
 107.1690012  87.4344997  11.6359988 106.6091868  88.0415299  11.9065830
 108.7920012  89.1014997   0.8919988 109.1450012  88.7214997   1.6969988
 107.8430012  89.0084997   0.9789988 108.7120441  89.0369596   1.0138559
 109.2470012  92.7244997  14.2879988 108.6460012  92.1694997  13.7919988
 109.5290012  93.3914997  13.6619988 109.2028519  92.7386841  14.1354952
 113.2950012  93.5814997   1.0929988 114.0390012  94.1674997   0.9529988
 112.6010012  94.1494997   1.4269988 113.3030292  93.7385582   1.1189961
  97.3700012  79.9574997  13.6949988  96.4770012  80.2964997  13.6269988
  97.2710012  79.1024997  14.1129988  97.2344164  79.8882588  13.7422235
 109.6580012  87.7744997   3.1189988 109.3800012  87.0464997   3.6749988
 110.5850012  87.8934997   3.3239988 109.7453124  87.6908802   3.2228845
  97.0210012  91.7624997  12.1299988  97.2380012  90.8304997  12.0989988
  97.2670012  92.0364997  13.0129988  97.0839549  91.6720636  12.2451763
 102.8830012  90.2134997  -0.6610012 103.1220012  89.4654997  -1.2080012
 102.6140012  89.8254997   0.1719988 102.8793675  90.0586638  -0.6233135
 101.8200012  89.7834997   1.7959988 101.9660012  89.2634997   2.5859988
 101.8170012  90.6904997   2.1019988 101.8395989  89.8348853   1.9456088
  98.2730012  87.0364997   2.3059988  97.5870012  87.3884997   2.8729988
  98.7950012  87.7994997   2.0589988  98.2496852  87.1878578   2.3502118
 106.1040012  79.6984997  12.5849988 106.8030012  79.7724997  13.2349988
 105.7230012  78.8344997  12.7389988 106.1481767  79.5917624  12.6948322
 106.8890012  79.3504997   3.6819988 107.1090012  79.8224997   2.8789988
 107.4470012  79.7454997   4.3519988 106.9944968  79.4684285   3.6627331
 104.5570012  91.4814997   2.5449988 103.7410012  91.9784997   2.5969988
 105.0870012  91.9564997   1.9049988 104.5169161  91.6137722   2.4655956
 104.0890012  81.0784997   4.5169988 104.9010012  81.5834997   4.5629988
 103.8440012  80.9334997   5.4309988 104.1670520  81.1280375   4.6468517
 104.6240012  82.0644997  13.7019988 104.7430012  82.6384997  14.4589988
 105.2800012  81.3764997  13.8159988 104.7289757  82.0501079  13.8210825
 104.9720012  78.1594997   5.4549988 104.6260012  78.7774997   6.0999988
 105.6310012  78.6604997   4.9739988 105.0137826  78.3115802   5.4780971
 101.8960012  92.5254997   2.5269988 102.0560012  93.3244997   2.0259988
 101.6980012  92.8314997   3.4119988 101.8911649  92.6764469   2.5779815
 100.6300012  79.2224997   2.1419988 100.5470012  80.1114997   2.4889988
 101.5200012  78.9574997   2.3739988 100.7389469  79.3081430   2.2207626
 110.8290012  79.9714997  14.5369988 109.9120012  80.2344997  14.4489988
 111.1640012  79.9684997  13.6399988 110.7489900  80.0070224  14.4037919
 109.4310012  83.7224997   8.6319988 108.6330012  83.3074997   8.3039988
 109.8760012  83.0314997   9.1229988 109.3819885  83.5723543   8.6534889
  98.8890012  89.6504997   1.2029988  99.4810012  90.3494997   1.4789988
  99.3480012  89.2174997   0.4829988  99.0321142  89.6877049   1.1434830
  97.2050012  82.3144997   0.3189988  97.1600012  83.2534997   0.4969988
  96.3170012  82.0784997   0.0489988  97.0788574  82.4111892   0.3068912
 110.5170012  92.9784997  10.2549988 110.3620012  93.6564997   9.5979988
 111.4500012  93.0504997  10.4579988 110.6218500  93.0810170  10.1925119
  98.0130012  77.0964997   8.9919988  97.7840012  77.1554997   8.0639988
  97.5700012  76.3044997   9.2979988  97.9218530  76.9975753   8.9064786
  96.9430012  91.0364997   5.1519988  96.1110012  91.5094997   5.1799988
  97.4890012  91.5464997   4.5539988  96.9029739  91.1701871   5.0749716
  96.2310012  93.6494997  16.4819988  96.7720012  93.4324997  17.2419988
  95.7500012  92.8434997  16.2929988  96.2399345  93.5109514  16.5603076
 100.8290012  92.5684997  18.1029988 101.5960012  92.1094997  18.4439988
 100.8070012  92.3424997  17.1729988 100.9311434  92.4750409  18.0240043
 104.9210012  92.0764997  -0.5220012 104.2770012  91.4454997  -0.2010012
 105.6830012  91.5454997  -0.7540012 104.9358077  91.9182920  -0.5093989
 107.4060012  90.9484997  16.8319988 107.0550012  90.0924997  17.0749988
 108.1320012  91.0914997  17.4389988 107.4560769  90.8505636  16.9473619
 109.5250012  91.8934997  -0.2880012 109.8080012  91.0994997   0.1639988
 110.2650012  92.1264997  -0.8490012 109.6637486  91.8162803  -0.3019302
  96.1380012  87.4594997  17.4369988  96.2820012  86.5574997  17.1499988
  95.3660012  87.7454997  16.9489988  96.0533322  87.3748261  17.3317881
 100.4800012  87.8034997  -0.4310012 100.5440012  87.0094997   0.0999988
 101.1330012  87.6844997  -1.1210012 100.5770241  87.6787148  -0.4515683
 102.7940012  87.4294997  16.8689988 102.4650012  87.7004997  16.0119988
 102.9460012  86.4884997  16.7819988 102.7694809  87.3393862  16.7398244
 105.8320012  88.8504997  -0.6950012 105.5630012  89.0304997   0.2059988
 105.6260012  87.9244997  -0.8260012 105.7673825  88.7500152  -0.5894786
 108.5280012  87.3454997  14.2529988 109.2740012  87.9334997  14.1329988
 107.7710012  87.9274997  14.3159988 108.5277554  87.5047011  14.2450907
  96.9710012  84.6594997  16.8569988  97.3790012  83.8024997  16.7359988
  96.7110012  84.6744997  17.7779988  96.9917568  84.5440807  16.9649588
 101.6290012  85.7754997   1.8749988 101.1690012  85.2914997   2.5609988
 101.8840012  85.1074997   1.2389988 101.6004902  85.6188731   1.8829334
 100.9180012  83.6684997  14.2309988 100.3000012  84.3434997  14.5109988
 101.2620012  83.9894997  13.3979988 100.8799615  83.8042721  14.1566581
 102.7000012  84.0184997   0.1369988 102.5200012  83.8644997  -0.7900012
 103.6500012  84.1264997   0.1819988 102.8037776  84.0120175   0.0161843
 105.9380012  86.1404997  17.5079988 106.8910012  86.2234997  17.4809988
 105.7770012  85.4284997  18.1279988 106.0466426  86.0556746  17.5880578
 112.0900012  86.3734997  -0.4170012 111.8160012  85.9484997  -1.2300012
 112.1290012  87.3044997  -0.6340012 112.0577699  86.4412484  -0.5576390
 101.2570012  81.0234997  15.3129988 101.4070012  80.2944997  14.7109988
 101.2600012  81.8004997  14.7539988 101.2779302  81.0287851  15.1550692
 101.6700012  79.3934997  12.8059988 102.2060012  79.8444997  12.1539988
 100.8180012  79.2854997  12.3829988 101.6282178  79.4406390  12.6595756
 103.2520012  84.8324997  13.0449988 104.0020012  84.6764997  12.4719988
 102.9130012  85.6844997  12.7699988 103.3088921  84.9262968  12.9293561
 107.6670012  82.6474997  18.0739988 107.8600012  81.7164997  17.9619988
 108.5250012  83.0724997  18.0639988 107.8093020  82.5776389  18.0573361
 108.9840012  85.4364997  16.1509988 108.7030012  86.1454997  15.5739988
 109.9270012  85.3634997  15.9999988 109.0729027  85.5237646  16.0515551
  99.7360012  82.2214997  17.2249988  98.9690012  81.6894997  17.0149988
 100.4150012  81.9114997  16.6249988  99.7227022  82.1067506  17.1151648
 102.4760012  76.8494997  13.2369988 102.3770012  77.7964997  13.1319988
 101.7330012  76.4774997  12.7619988 102.3620564  76.9285902  13.1584560
 103.7400012  81.1714997  16.8009988 103.5040012  80.9514997  17.7029988
 102.9560012  80.9644997  16.2909988 103.6018628  81.1134760  16.8553932
 106.4550012  80.2984997  15.8769988 105.5080012  80.3304997  16.0089988
 106.7680012  79.6734997  16.5299988 106.3675475  80.2183207  15.9834455
 108.0890012  78.9324997  17.8819988 107.9930012  77.9804997  17.8759988
 107.7680012  79.2014997  18.7419988 108.0324070  78.8384035  17.9975441
  97.9160012  80.1424997  16.9289988  98.1280012  79.4354997  16.3189988
  97.8050012  79.7044997  17.7729988  97.9299721  79.9867084  16.9596843
 102.6970012  76.1434997  15.9089988 103.4090012  75.5034997  15.8949988
 102.5960012  76.4104997  14.9949988 102.7807939  76.0919938  15.7835650
 103.0510012  77.8264997  17.9619988 102.9190012  77.3504997  17.1419988
 102.4520012  78.5704997  17.9069988 102.9519071  77.8619618  17.8422886
 102.5970012  94.7094997   1.1389988 103.5300012  94.8674997   1.2819988
 102.3330012  95.3844997   0.5139988 102.6889510  94.8223611   1.0740741
  96.1660012  89.3454997   0.6209988  97.0800012  89.4244997   0.8949988
  96.1730012  88.6584997  -0.0450012  96.2921131  89.2633961   0.5684393
  94.8150012  94.7384997   5.6989988  94.1680012  94.2764997   5.1659988
  95.1690012  94.0664997   6.2809988  94.7743849  94.5844723   5.7047959
  95.6850012  92.8194997   7.5029988  95.3500012  91.9394997   7.6749988
  95.9070012  93.1644997   8.3679988  95.6691783  92.7457500   7.6434208
 113.2330012  93.6284997  10.4839988 113.2120012  93.8134997  11.4229988
 113.9240012  94.1974997  10.1429988 113.3234618  93.7306606  10.5663864
 112.7970012  93.1964997  13.4059988 112.3090012  92.4604997  13.0349988
 113.3460012  92.8024997  14.0839988 112.8044872  93.0426249  13.4469160
 111.2470012  88.9854997  18.0439988 110.3810012  88.8804997  18.4379988
 111.6240012  89.7444997  18.4899988 111.1793308  89.0736900  18.1582393
 112.5480012  87.2424997   3.5579988 113.3980012  87.6634997   3.6849988
 112.5540012  86.5024997   4.1649988 112.6651372  87.2000803   3.6574344
 112.9430012  85.2954997   5.3819988 112.2160012  84.8164997   5.7789988
 113.5240012  85.5014997   6.1139988 112.9219375  85.2577090   5.5354129
 112.7020012  88.0804997  10.3289988 113.5350012  87.7024997  10.0489988
 112.8140012  89.0234997  10.2099988 112.8312647  88.1562218  10.2745487
 111.1880012  90.9584997  12.6359988 110.5410012  91.2834997  13.2619988
 110.6710012  90.5184997  11.9619988 111.0294029  90.9435004  12.6305827
 113.2110012  85.1964997   1.7729988 112.6890012  85.5534997   1.0539988
 113.1780012  85.8714997   2.4509988 113.1351634  85.3365413   1.7663145
 111.5600012  82.4364997   0.3239988 111.6560012  83.1034997  -0.3570012
 111.4200012  81.6204997  -0.1580012 111.5542135  82.4174500   0.1658491
 110.7290012  83.8164997   5.9449988 110.5790012  82.8714997   5.9239988
 110.3760012  84.0974997   6.7879988 110.6606625  83.7250441   6.0562346
  95.7650012  85.8944997   9.9549988  95.9490012  85.8124997   9.0189988
  96.6140012  85.7704997  10.3789988  95.9050139  85.8665003   9.8841455
 111.5860012  85.7864997  15.5829988 112.1690012  85.0524997  15.7749988
 112.1500012  86.5584997  15.6299988 111.7419769  85.7904227  15.6156159
 113.0820012  83.6894997  16.2679988 112.2190012  83.3104997  16.1019988
 113.6870012  82.9504997  16.1939988 113.0455979  83.5378023  16.2352817
 110.8070012  79.8444997  -0.5590012 111.4180012  79.4734997   0.0779988
 109.9710012  79.4234997  -0.3630012 110.7775032  79.7367554  -0.4452965
 110.4400012  81.3994997   4.4069988 110.7200012  80.4924997   4.5309988
 111.1990012  81.8334997   4.0179988 110.5809277  81.3340942   4.3713682
 111.0520012  81.9804997   9.8429988 111.9850012  82.1924997   9.8089988
 110.8170012  82.0824997  10.7649988 111.1478036  82.0232769   9.9629976
 111.0810012  82.7174997  12.6189988 110.2380012  82.9854997  12.9849988
 111.5230012  83.5394997  12.4079988 111.0254158  82.8653291  12.6405491
  95.3620012  81.1654997  16.0959988  96.2820012  81.0434997  16.3319988
  94.9130012  80.4154997  16.4849988  95.4271580  81.0473727  16.1809006
 113.3640012  76.6974997  17.9719988 113.7140012  76.0434997  17.3669988
 113.5110012  77.5344997  17.5329988 113.4318419  76.7211591  17.8297118
 111.0530012  78.6624997   4.4549988 111.2360012  78.2134997   5.2809988
 110.4540012  78.0774997   3.9919988 110.9970202  78.5219975   4.5053275
  96.5830012  79.4774997   8.9869988  97.0290012  78.6854997   9.2889988
  97.0500012  80.1934997   9.4179988  96.7070172  79.4660624   9.0864820
  94.8870012  82.4764997  10.0559988  95.3790012  82.2554997   9.2649988
  95.2500012  83.3174997  10.3369988  95.0033126  82.5598357   9.9857531
 112.8840012  78.8064997  16.3219988 111.9660012  79.0774997  16.2859988
 113.0070012  78.2714997  15.5369988 112.7751066  78.7712892  16.2110487
 112.9200012  78.7294997   0.9829988 113.3320012  78.0084997   0.5079988
 113.6020012  79.3994997   1.0419988 113.0685885  78.7212368   0.9258915
  95.2010012  78.7344997   4.1099988  94.2760012  78.9434997   3.9809988
  95.6550012  79.2184997   3.4209988  95.1357368  78.8285993   3.9991226
 109.9720012  93.7184997   6.0559988 110.6240012  93.3714997   5.4479988
 110.4820012  94.2074997   6.7019988 110.1302637  93.7370597   6.0600236
  95.1650012  77.4724997  12.4549988  94.5000012  77.2264997  13.0979988
  94.7220012  78.0944997  11.8769988  95.0140956  77.5228632  12.4649352
  97.3570012  90.6474997  16.5989988  96.5360012  90.8224997  16.1389988
  97.1040012  90.5744997  17.5199988  97.2106164  90.6615622  16.6604923
 100.3110012  91.6224997  12.8579988  99.8860012  92.4314997  12.5749988
 101.2150012  91.7074997  12.5559988 100.3750271  91.7448469  12.7783776
 104.6220012  93.0214997  15.8169988 104.8070012  92.6874997  16.6949988
 105.4680012  93.3304997  15.4949988 104.7617539  93.0176047  15.8935605
 106.9670012  94.3074997  15.0609988 107.6440012  93.6744997  14.8209988
 107.2890012  94.7084997  15.8679988 107.1031637  94.2751154  15.1372793
 111.8840012  76.8964997  14.1409988 111.0720012  77.2214997  13.7529988
 112.1170012  76.1364997  13.6079988 111.8043423  76.8382436  14.0158253
  97.7130012  94.8784997  12.9049988  96.9920012  95.3184997  12.4539988
  97.3470012  94.6274997  13.7539988  97.5649804  94.9047698  12.9579840
 100.1800012  94.4784997  11.9349988  99.3150012  94.5504997  12.3389988
 100.1250012  95.0254997  11.1509988 100.0542085  94.5622685  11.8843362
 104.8900012  94.3664997  11.1099988 104.4340012  94.8954997  10.4559988
 105.0530012  94.9694997  11.8359988 104.8495585  94.5204468  11.1185062
 107.2180012  93.2444997  12.0549988 106.3130012  93.4094997  11.7899988
 107.6470012  94.0974997  11.9899988 107.1520799  93.3824483  12.0099182
 109.8220012  94.8144997  12.3499988 109.6400012  95.7304997  12.1399988
 109.9990012  94.4044997  11.5039988 109.8210210  94.8844822  12.2067885
  97.1270012  93.5014997   9.8149988  97.1090012  93.0764997  10.6729988
  97.9320012  93.1834997   9.4069988  97.2333875  93.4003812   9.8771655
  99.2690012  92.2114997   8.4699988  99.0500012  91.2954997   8.6399988
 100.0930012  92.3514997   8.9359988  99.3504420  92.1050520   8.5562774
 101.8060012  92.6814997   9.3189988 102.0190012  91.7934997   9.0319988
 101.8700012  92.6474997  10.2729988 101.8438232  92.5553102   9.4087397
 105.3140012  78.3454997   8.4629988 104.6400012  77.7164997   8.7189988
 105.8780012  77.8614997   7.8599988 105.2979230  78.1938744   8.4165340
 110.4570012  76.4534997   8.5759988 111.0610012  77.0004997   8.0739988
 109.5870012  76.7724997   8.3359988 110.4221241  76.5715806   8.4747654
 112.1840012  77.5914997   6.9089988 112.7960012  77.0774997   6.3829988
 112.5660012  78.4694997   6.9329988 112.3194540  77.6397140   6.8401830
  97.6410012  76.9794997   6.2849988  96.8640012  76.7454997   5.7779988
  98.1710012  76.1824997   6.2939988  97.6062330  76.8396988   6.2167742
  96.4770012  76.7774997   2.0889988  96.9160012  77.3884997   1.4969988
  95.8440012  77.3154997   2.5629988  96.4514514  76.9339257   2.0720930
 102.2200012  76.9064997   6.0989988 103.0950012  77.2944997   6.0689988
 102.0840012  76.6914997   7.0209988 102.3213695  76.9305184   6.2196440
 107.7770012  76.9364997   7.7479988 107.8530012  77.0314997   6.7979988
 107.5020012  76.0284997   7.8769988 107.7502321  76.8267867   7.6355079
 109.1300012  76.9624997   3.4399988 108.4280012  77.5774997   3.2309988
 108.6860012  76.1244997   3.5709988 108.9736330  76.9335783   3.4290328
  96.3780012  92.7254997   2.9869988  95.6930012  92.6874997   2.3189988
  96.3820012  93.6384997   3.2749988  96.2848193  92.8437016   2.9345284
  98.3380012  78.6934997   0.5309988  98.8300012  78.0634997   0.0039988
  98.9620012  78.9894997   1.1949988  98.4895446  78.6473199   0.5485980
 103.3640012  78.9864997   2.9879988 103.5420012  78.3404997   3.6709988
 103.3110012  79.8204997   3.4559988 103.3811829  79.0107985   3.1445940
 105.2430012  93.9354997   1.3839988 106.1090012  94.3014997   1.2059988
 104.9960012  93.4954997   0.5699988 105.3282392  93.9261756   1.2496289
 111.9520012  93.4984997   4.0629988 111.7570012  92.7504997   3.4979988
 111.9130012  94.2564997   3.4799988 111.9200380  93.4986099   3.9068384
  97.5990012  77.4934997  15.8029988  97.2330012  76.7284997  16.2459988
  98.5120012  77.5224997  16.0899988  97.6722790  77.3927224  15.9024070
  99.5720012  76.8444997  17.3389988 100.4700012  76.5704997  17.1539988
  99.1850012  76.1014997  17.8029988  99.6426612  76.7065914  17.3763643
  98.1960012  93.6454997   0.0119988  97.9290012  93.9324997   0.8849988
  98.9680012  93.0994997   0.1639988  98.2637488  93.6110294   0.1521050
 107.9930012  76.1764997  17.5209988 108.0700012  75.7504997  18.3749988
 108.8870012  76.1904997  17.1779988 108.1243428  76.1200879  17.5915310
 111.1690012  92.2494997  16.2129988 110.3870012  92.0634997  15.6939988
 111.0970012  93.1784997  16.4309988 111.0521777  92.3496492  16.1714048
 125.5750012  86.1354997   6.2439988 125.6640012  87.0794997   6.1119988
 124.9370012  85.8604997   5.5859988 125.5009081  86.2274830   6.1369614
 124.5080012  85.3904997   9.6629988 124.4700012  84.7444997  10.3679988
 124.1860012  84.9244997   8.8919988 124.4592333  85.2389408   9.6552978
 116.8770012  85.0054997  11.2559988 116.9180012  84.3794997  11.9789988
 117.5800012  85.6294997  11.4379988 116.9776363  85.0041196  11.3796044
 128.2140012  88.3294997   7.9639988 127.7740012  87.6094997   8.4149988
 128.2010012  89.0504997   8.5939988 128.1520226  88.3283731   8.1108494
 117.8000012  89.4554997   9.7909988 117.4310012  88.6534997   9.4209988
 118.7410012  89.2864997   9.8369988 117.8767289  89.3230153   9.7466316
 114.4100012  83.1154997   5.1839988 113.9630012  83.9614997   5.1649988
 113.8490012  82.5354997   4.6679988 114.2729900  83.1529916   5.1116801
 115.1210012  85.2774997   7.3099988 115.3340012  84.5074997   7.8369988
 115.8590012  85.3664997   6.7059988 115.2498496  85.1841394   7.3005300
 125.3260012  93.4344997   8.1769988 125.9460012  92.7574997   7.9029988
 125.1180012  93.2164997   9.0849988 125.3826904  93.3123870   8.2623365
 122.8980012  87.8234997  10.0689988 123.2020012  87.1374997   9.4739988
 123.6190012  87.9414997  10.6869988 123.0370671  87.7456304  10.0711816
 131.5610012  79.4244997  10.9299988 131.6100012  80.0344997  11.6659988
 131.9860012  79.8854997  10.2069988 131.6251824  79.5703741  10.9330205
 126.0390012  82.2174997  10.3969988 126.1810012  81.2714997  10.4169988
 125.9320012  82.4244997   9.4679988 126.0439864  82.1159534  10.2742339
 119.1930012  80.3184997   7.6689988 119.2370012  81.1784997   7.2509988
 118.7360012  79.7664997   7.0349988 119.1372185  80.3615799   7.5260299
 126.9160012  80.4494997   6.0699988 127.5620012  80.1204997   6.6949988
 127.4260012  80.9674997   5.4469988 127.0734264  80.4744611   6.0713862
 115.8140012  82.7154997   8.4309988 116.4670012  82.1654997   8.8629988
 115.8380012  82.4414997   7.5139988 115.9066683  82.6031466   8.3662123
 120.9700012  84.2654997   7.6459988 121.5860012  83.7394997   8.1559988
 120.3840012  83.6254997   7.2429988 120.9750810  84.1069208   7.6613173
 131.9520012  80.9024997  13.1659988 131.2640012  81.5604997  13.0699988
 131.9680012  80.7054997  14.1019988 131.8598525  80.9660462  13.2794808
 118.0040012  79.2364997  11.7429988 117.7850012  79.7664997  10.9769988
 117.3360012  79.4634997  12.3899988 117.8837600  79.3396906  11.7256379
 125.3730012  88.7364997   5.2869988 125.0770012  88.4144997   4.4359988
 125.0480012  89.6364997   5.3279988 125.2886371  88.8140215   5.1761801
 120.5730012  86.9124997  12.0299988 119.8330012  87.5104997  12.1339988
 121.2870012  87.4664997  11.7149988 120.5682237  87.0692831  12.0016465
 128.6800012  79.7404997   8.0499988 128.4640012  78.9744997   8.5829988
 129.3350012  80.2124997   8.5629988 128.7390632  79.6995889   8.1922861
 117.5970012  81.1284997   9.6949988 118.2110012  81.7614997  10.0689988
 118.1090012  80.6564997   9.0389988 117.7502296  81.1512370   9.6574252
 118.9800012  88.8764997  12.8179988 118.9750012  89.7564997  12.4399988
 118.1270012  88.7934997  13.2429988 118.8639464  88.9856117  12.8237907
 115.1010012  88.5474997   3.5999988 114.8290012  88.7764997   2.7109988
 115.1470012  89.3854997   4.0599988 115.0700094  88.6921213   3.5405697
 128.7260012  90.1694997  10.3119988 127.7850012  90.2274997  10.4739988
 129.0030012  91.0754997  10.1749988 128.6344679  90.2999443  10.3156815
 129.0270012  78.4554997  11.7299988 128.2910012  79.0664997  11.6919988
 129.7100012  78.8704997  11.2029988 129.0186541  78.5951374  11.6535832
 122.0300012  76.5424997   9.1959988 121.9130012  75.5934997   9.1409988
 121.1750012  76.8744997   9.4689988 121.8983733  76.4575409   9.2253897
 126.9780012  91.9504997   6.9379988 127.4040012  91.2434997   6.4529988
 127.2950012  92.7514997   6.5209988 127.0791019  91.9620994   6.8153130
 128.1380012  89.8514997   5.4459988 127.8800012  89.1614997   4.8349988
 128.2090012  89.4084997   6.2919988 128.1122856  89.6972124   5.4766885
 129.8240012  88.4174997  13.9239988 129.9640012  87.8264997  13.1839988
 129.9910012  89.2904997  13.5669988 129.8656778  88.4546426  13.7746965
 124.2970012  85.3794997   3.6959988 123.5850012  85.9144997   3.3439988
 124.9880012  85.4354997   3.0359988 124.2930132  85.4602543   3.5586289
 124.3500012  83.8374997   0.7349988 125.0510012  83.8594997   1.3859988
 124.6530012  83.2094997   0.0789988 124.4867830  83.7556566   0.7353711
 131.6660012  84.7574997  11.9899988 131.0130012  85.4524997  12.0789988
 132.1310012  84.9674997  11.1799988 131.6395390  84.8809425  11.8926883
 127.7020012  85.5894997   4.6479988 126.9700012  85.8174997   5.2209988
 128.1500012  84.8754997   5.1029988 127.6623095  85.5242571   4.7879119
 127.6000012  83.7634997  13.7149988 127.6800012  84.5264997  14.2869988
 126.9980012  84.0424997  13.0249988 127.5295756  83.9057134  13.7000589
 119.3480012  86.2194997   6.5299988 119.0170012  85.8494997   5.7119988
 119.9360012  85.5494997   6.8769988 119.3821873  86.0781156   6.4648102
 120.7140012  89.6474997   9.2119988 120.6200012  89.0694997   8.4549988
 121.4440012  89.2764997   9.7079988 120.7997981  89.5182390   9.1754165
 119.7140012  84.9884997  10.1639988 120.2800012  85.1094997   9.4009988
 120.0330012  85.6254997  10.8029988 119.8345786  85.0911884  10.1460040
 126.0230012  90.4914997  10.8979988 125.7830012  91.1534997  11.5459988
 125.8250012  89.6574997  11.3229988 125.9633808  90.4693134  11.0441524
 120.5940012  89.3874997  14.8809988 120.2830012  90.1694997  15.3359988
 119.9440012  89.2344997  14.1949988 120.4635558  89.4739105  14.8505871
 126.5730012  84.7514997   2.3329988 127.1530012  84.9014997   3.0799988
 126.9870012  85.2224997   1.6099988 126.7082830  84.8356841   2.3374134
 117.5140012  85.5854997  14.1099988 117.5850012  86.2364997  14.8079988
 116.6240012  85.6884997  13.7749988 117.4033117  85.6885936  14.1602700
 124.3000012  91.4884997   5.7679988 124.7740012  91.7834997   6.5459988
 123.7370012  92.2264997   5.5349988 124.2887653  91.6286932   5.8430136
 118.8340012  91.4594997  15.6439988 118.8410012  91.3234997  14.6969988
 117.9180012  91.3414997  15.8959988 118.7111714  91.4249430  15.5484666
 130.2720012  76.5014997   2.1459988 129.3720012  76.6404997   2.4409988
 130.5240012  77.3324997   1.7439988 130.1828702  76.6329074   2.1320205
 118.3380012  85.2894997   4.1199988 118.0460012  86.0574997   3.6289988
 117.6640012  84.6294997   3.9569988 118.2069081  85.3054406   4.0307339
 131.4610012  90.8674997   0.5219988 131.5350012  91.8064997   0.6929988
 132.3670012  90.5624997   0.4659988 131.5935100  90.9546722   0.5378119
 114.4310012  87.6524997  12.9349988 113.9300012  87.6244997  12.1199988
 114.4360012  86.7464997  13.2439988 114.3631526  87.5262278  12.8652872
 114.1810012  90.4324997   9.8189988 115.1270012  90.2884997   9.7999988
 114.0690012  91.2164997  10.3559988 114.2952727  90.5188046   9.8890072
 132.3790012  91.0984997  15.5009988 132.3300012  90.1434997  15.4639988
 131.5520012  91.3664997  15.9019988 132.2604940  91.0038998  15.5501375
 123.3580012  90.6724997  14.3769988 123.4450012  91.4984997  14.8519988
 122.4940012  90.3424997  14.6259988 123.2531964  90.7409878  14.4756549
 123.7720012  94.4444997   4.1829988 123.6970012  94.3234997   3.2369988
 123.8050012  95.3944997   4.3019988 123.7661848  94.5562500   4.0694834
 117.4250012  93.2334997   5.9639988 117.5780012  92.8854997   6.8429988
 116.5750012  92.8774997   5.7089988 117.3308962  93.1376650   6.0498340
 126.8740012  93.5984997   1.1849988 127.2490012  92.8544997   0.7149988
 126.8780012  93.3284997   2.1039988 126.9258915  93.4601486   1.2447824
 126.5430012  93.5244997   3.9349988 125.6070012  93.6244997   4.1129988
 126.8230012  92.8154997   4.5129988 126.4528255  93.4422711   4.0375391
 129.5310012  82.5914997  15.9809988 129.1240012  83.0724997  15.2599988
 129.5720012  81.6864997  15.6729988 129.4808437  82.5349374  15.8406683
 116.6800012  88.9754997  13.9779988 116.8960012  88.6144997  14.8369988
 115.8250012  88.6014997  13.7679988 116.5939292  88.8754111  14.0673386
 119.2990012  77.4454997   9.9729988 118.4370012  77.3584997   9.5659988
 119.2760012  78.3014997  10.4009988 119.1780330  77.5492765   9.9751863
 123.9620012  77.1674997  13.3479988 124.3820012  76.7524997  14.1009988
 123.0290012  76.9894997  13.4649988 123.8933644  77.0865900  13.4669539
 127.2880012  80.9234997  14.2009988 126.7740012  80.7974997  14.9989988
 127.1330012  81.8354997  13.9569988 127.1966852  81.0296132  14.2772158
 128.0510012  85.7844997  -0.0370012 128.0930012  85.5614997  -0.9670012
 128.9000012  86.1834997   0.1529988 128.1715396  85.8079155  -0.1386373
 123.6230012  79.6604997   0.6329988 123.3700012  79.6794997   1.5559988
 123.3670012  78.7884997   0.3319988 123.5537790  79.5452437   0.7186263
 119.3900012  82.4114997  11.0679988 118.7480012  82.3704997  11.7769988
 119.4270012  83.3374997  10.8309988 119.3071324  82.5311559  11.1329824
 119.3870012  82.6324997   5.9799988 118.4940012  82.2914997   5.9219988
 119.8370012  82.2554997   5.2249988 119.3257305  82.5348484   5.8699177
 124.9220012  83.0484997   4.7969988 124.5130012  83.8634997   4.5059988
 125.6430012  82.9084997   4.1829988 124.9634537  83.1412018   4.6741342
 124.0240012  83.2234997  16.2849988 123.4620012  82.5194997  16.6059988
 124.8510012  83.1034997  16.7529988 124.0587095  83.1107883  16.3922330
 125.9270012  82.4944997   7.6109988 125.7320012  83.0994997   6.8959988
 126.1080012  81.6604997   7.1769988 125.9247614  82.4646300   7.4544405
 117.1400012  82.7314997  12.9349988 117.1020012  83.1314997  13.8039988
 116.6490012  81.9144997  13.0259988 117.0684684  82.6758069  13.0661059
 120.5060012  80.1054997  -0.2660012 120.0750012  79.6604997   0.4639988
 119.7880012  80.4774997  -0.7780012 120.3499438  80.0948940  -0.2353201
 113.7480012  79.8474997   6.7859988 114.3790012  79.8184997   7.5049988
 114.1970012  79.4224997   6.0559988 113.8950774  79.7860492   6.7856553
 115.0220012  80.5934997   2.2099988 115.4960012  81.1844997   1.6249988
 114.3050012  81.1244997   2.5569988 114.9899341  80.7460867   2.1768836
 125.1910012  84.1324997  12.2829988 125.5140012  83.5014997  11.6399988
 124.7510012  83.5974997  12.9429988 125.1756895  83.9738441  12.2842850
 121.9680012  80.0594997   7.0669988 121.0570012  80.1164997   7.3549988
 122.4740012  79.9994997   7.8769988 121.9115413  80.0591985   7.2160622
 116.7970012  81.6884997   5.8929988 115.9070012  81.7884997   5.5529988
 117.0930012  80.8464997   5.5469988 116.7152823  81.5883545   5.7997213
 120.4500012  81.6884997   3.5499988 121.3810012  81.8174997   3.7279988
 120.2350012  82.3584997   2.8999988 120.5484247  81.7966565   3.4865747
 126.3730012  79.2944997  10.3309988 125.6970012  79.4254997  10.9949988
 125.8880012  79.1394997   9.5209988 126.2147145  79.2914905  10.3124517
 119.1240012  82.8834997   1.1169988 118.5810012  82.5034997   0.4249988
 119.9570012  83.0774997   0.6879988 119.1624399  82.8578124   0.9644526
 129.6610012  94.9664997  16.6079988 129.8610012  95.3904997  15.7729988
 130.3160012  95.3094997  17.2149988 129.7770051  95.0709648  16.5757836
 117.2590012  87.4404997  16.2159988 117.9910012  87.6944997  16.7769988
 116.4790012  87.6444997  16.7309988 117.2538232  87.5029177  16.3625760
 123.2880012  82.8474997   8.9539988 123.8530012  82.3004997   8.4069988
 123.1410012  82.3254997   9.7419988 123.3452918  82.7022024   8.9858454
 118.2900012  78.9834997   5.3719988 117.9730012  78.0814997   5.3369988
 119.0720012  78.9854997   4.8189988 118.3522284  78.8601628   5.2924783
 121.9150012  81.2354997  11.3679988 121.0790012  81.6894997  11.4779988
 122.4390012  81.5114997  12.1199988 121.8714414  81.3349376  11.4847136
 122.4590012  87.4484997   3.0519988 121.7140012  86.9414997   2.7299988
 122.3250012  87.4974997   3.9989988 122.3388776  87.3856940   3.1358647
 129.6090012  86.5814997  11.8389988 130.2510012  87.0384997  11.2949988
 128.7790012  86.6944997  11.3759988 129.5845963  86.6592704  11.7020177
 126.3570012  80.2624997   1.2519988 125.4180012  80.3744997   1.0999988
 126.6540012  81.1194997   1.5579988 126.2687666  80.3936443   1.2725768
 123.9780012  87.6324997  14.2889988 123.6330012  87.2514997  15.0959988
 123.7780012  88.5664997  14.3609988 123.9038061  87.7065228  14.4090961
 127.0750012  82.1294997   2.9119988 127.9670012  81.9924997   3.2309988
 127.1320012  82.9204997   2.3759988 127.2046285  82.2176660   2.8831691
 117.5840012  86.7434997   8.8219988 118.3290012  86.7414997   8.2209988
 117.6620012  85.9204997   9.3039988 117.6965518  86.6319315   8.8048929
 124.5850012  88.9074997   2.0779988 124.2890012  89.7334997   2.4589988
 123.8820012  88.2874997   2.2739988 124.4494914  88.9368199   2.1566443
 114.5920012  85.2044997  14.1369988 114.8150012  84.7864997  14.9689988
 113.9900012  84.5914997  13.7139988 114.5411759  85.0644668  14.1937022
 121.6080012  84.7214997  16.3499988 121.3120012  84.5554997  15.4549988
 122.5400012  84.5014997  16.3389988 121.6934166  84.6690640  16.2260536
 126.2290012  90.0944997  14.2399988 125.3280012  90.2774997  13.9719988
 126.2630012  90.3534997  15.1609988 126.1103041  90.1545512  14.3278197
 131.9600012  82.3394997   2.6069988 131.4060012  81.9434997   1.9349988
 132.0600012  83.2494997   2.3289988 131.8977059  82.4083586   2.4774401
 131.9230012  88.1394997  15.4439988 131.0720012  88.3774997  15.0769988
 132.5140012  88.1224997  14.6909988 131.8862487  88.1698258  15.2918893
 130.2550012  91.1254997   3.0719988 129.8820012  90.2994997   3.3809988
 130.5330012  90.9424997   2.1749988 130.2415630  90.9877303   2.9929626
 127.4160012  85.9334997  10.0929988 126.4870012  85.7014997  10.0659988
 127.8670012  85.1564997   9.7629988 127.3499216  85.7967238  10.0446917
 119.9590012  90.2614997   6.2259988 120.4860012  91.0344997   6.0259988
 119.0790012  90.4864997   5.9249988 119.9121773  90.3978005   6.1579010
 115.7140012  85.1234997   0.8129988 116.3300012  85.7504997   1.1929988
 114.8520012  85.4394997   1.0849988 115.6817698  85.2519430   0.9017183
 121.3860012  87.9244997   5.8029988 121.1450012  88.8494997   5.8439988
 120.6450012  87.4654997   6.1989988 121.2528409  87.9891421   5.8621377
 121.9010012  92.0734997  12.1179988 122.2630012  92.9284997  11.8839988
 122.4320012  91.7814997  12.8579988 122.0224473  92.1511060  12.1860855
 120.0690012  92.9464997   5.3479988 119.1190012  93.0514997   5.3989988
 120.4210012  93.7664997   5.6929988 119.9864203  93.0718314   5.4016650
 125.4450012  88.1724997  11.8179988 125.0190012  87.9454997  12.6449988
 126.0250012  87.4344997  11.6359988 125.4651868  88.0415299  11.9065830
 127.6480012  89.1014997   0.8919988 128.0010012  88.7214997   1.6969988
 126.6990012  89.0084997   0.9789988 127.5680441  89.0369596   1.0138559
 128.1030012  92.7244997  14.2879988 127.5020012  92.1694997  13.7919988
 128.3850012  93.3914997  13.6619988 128.0588519  92.7386841  14.1354952
 132.1510012  93.5814997   1.0929988 132.8950012  94.1674997   0.9529988
 131.4570012  94.1494997   1.4269988 132.1590292  93.7385582   1.1189961
 116.2260012  79.9574997  13.6949988 115.3330012  80.2964997  13.6269988
 116.1270012  79.1024997  14.1129988 116.0904164  79.8882588  13.7422235
 128.5140012  87.7744997   3.1189988 128.2360012  87.0464997   3.6749988
 129.4410012  87.8934997   3.3239988 128.6013124  87.6908802   3.2228845
 115.8770012  91.7624997  12.1299988 116.0940012  90.8304997  12.0989988
 116.1230012  92.0364997  13.0129988 115.9399549  91.6720636  12.2451763
 121.7390012  90.2134997  -0.6610012 121.9780012  89.4654997  -1.2080012
 121.4700012  89.8254997   0.1719988 121.7353675  90.0586638  -0.6233135
 120.6760012  89.7834997   1.7959988 120.8220012  89.2634997   2.5859988
 120.6730012  90.6904997   2.1019988 120.6955989  89.8348853   1.9456088
 117.1290012  87.0364997   2.3059988 116.4430012  87.3884997   2.8729988
 117.6510012  87.7994997   2.0589988 117.1056852  87.1878578   2.3502118
 124.9600012  79.6984997  12.5849988 125.6590012  79.7724997  13.2349988
 124.5790012  78.8344997  12.7389988 125.0041767  79.5917624  12.6948322
 125.7450012  79.3504997   3.6819988 125.9650012  79.8224997   2.8789988
 126.3030012  79.7454997   4.3519988 125.8504968  79.4684285   3.6627331
 123.4130012  91.4814997   2.5449988 122.5970012  91.9784997   2.5969988
 123.9430012  91.9564997   1.9049988 123.3729161  91.6137722   2.4655956
 122.9450012  81.0784997   4.5169988 123.7570012  81.5834997   4.5629988
 122.7000012  80.9334997   5.4309988 123.0230520  81.1280375   4.6468517
 123.4800012  82.0644997  13.7019988 123.5990012  82.6384997  14.4589988
 124.1360012  81.3764997  13.8159988 123.5849757  82.0501079  13.8210825
 123.8280012  78.1594997   5.4549988 123.4820012  78.7774997   6.0999988
 124.4870012  78.6604997   4.9739988 123.8697826  78.3115802   5.4780971
 120.7520012  92.5254997   2.5269988 120.9120012  93.3244997   2.0259988
 120.5540012  92.8314997   3.4119988 120.7471649  92.6764469   2.5779815
 119.4860012  79.2224997   2.1419988 119.4030012  80.1114997   2.4889988
 120.3760012  78.9574997   2.3739988 119.5949469  79.3081430   2.2207626
 129.6850012  79.9714997  14.5369988 128.7680012  80.2344997  14.4489988
 130.0200012  79.9684997  13.6399988 129.6049900  80.0070224  14.4037919
 128.2870012  83.7224997   8.6319988 127.4890012  83.3074997   8.3039988
 128.7320012  83.0314997   9.1229988 128.2379885  83.5723543   8.6534889
 117.7450012  89.6504997   1.2029988 118.3370012  90.3494997   1.4789988
 118.2040012  89.2174997   0.4829988 117.8881142  89.6877049   1.1434830
 116.0610012  82.3144997   0.3189988 116.0160012  83.2534997   0.4969988
 115.1730012  82.0784997   0.0489988 115.9348574  82.4111892   0.3068912
 129.3730012  92.9784997  10.2549988 129.2180012  93.6564997   9.5979988
 130.3060012  93.0504997  10.4579988 129.4778500  93.0810170  10.1925119
 116.8690012  77.0964997   8.9919988 116.6400012  77.1554997   8.0639988
 116.4260012  76.3044997   9.2979988 116.7778530  76.9975753   8.9064786
 115.7990012  91.0364997   5.1519988 114.9670012  91.5094997   5.1799988
 116.3450012  91.5464997   4.5539988 115.7589739  91.1701871   5.0749716
 115.0870012  93.6494997  16.4819988 115.6280012  93.4324997  17.2419988
 114.6060012  92.8434997  16.2929988 115.0959345  93.5109514  16.5603076
 119.6850012  92.5684997  18.1029988 120.4520012  92.1094997  18.4439988
 119.6630012  92.3424997  17.1729988 119.7871434  92.4750409  18.0240043
 123.7770012  92.0764997  -0.5220012 123.1330012  91.4454997  -0.2010012
 124.5390012  91.5454997  -0.7540012 123.7918077  91.9182920  -0.5093989
 126.2620012  90.9484997  16.8319988 125.9110012  90.0924997  17.0749988
 126.9880012  91.0914997  17.4389988 126.3120769  90.8505636  16.9473619
 128.3810012  91.8934997  -0.2880012 128.6640012  91.0994997   0.1639988
 129.1210012  92.1264997  -0.8490012 128.5197486  91.8162803  -0.3019302
 114.9940012  87.4594997  17.4369988 115.1380012  86.5574997  17.1499988
 114.2220012  87.7454997  16.9489988 114.9093322  87.3748261  17.3317881
 119.3360012  87.8034997  -0.4310012 119.4000012  87.0094997   0.0999988
 119.9890012  87.6844997  -1.1210012 119.4330241  87.6787148  -0.4515683
 121.6500012  87.4294997  16.8689988 121.3210012  87.7004997  16.0119988
 121.8020012  86.4884997  16.7819988 121.6254809  87.3393862  16.7398244
 124.6880012  88.8504997  -0.6950012 124.4190012  89.0304997   0.2059988
 124.4820012  87.9244997  -0.8260012 124.6233825  88.7500152  -0.5894786
 127.3840012  87.3454997  14.2529988 128.1300012  87.9334997  14.1329988
 126.6270012  87.9274997  14.3159988 127.3837554  87.5047011  14.2450907
 115.8270012  84.6594997  16.8569988 116.2350012  83.8024997  16.7359988
 115.5670012  84.6744997  17.7779988 115.8477568  84.5440807  16.9649588
 120.4850012  85.7754997   1.8749988 120.0250012  85.2914997   2.5609988
 120.7400012  85.1074997   1.2389988 120.4564902  85.6188731   1.8829334
 119.7740012  83.6684997  14.2309988 119.1560012  84.3434997  14.5109988
 120.1180012  83.9894997  13.3979988 119.7359615  83.8042721  14.1566581
 121.5560012  84.0184997   0.1369988 121.3760012  83.8644997  -0.7900012
 122.5060012  84.1264997   0.1819988 121.6597776  84.0120175   0.0161843
 124.7940012  86.1404997  17.5079988 125.7470012  86.2234997  17.4809988
 124.6330012  85.4284997  18.1279988 124.9026426  86.0556746  17.5880578
 130.9460012  86.3734997  -0.4170012 130.6720012  85.9484997  -1.2300012
 130.9850012  87.3044997  -0.6340012 130.9137699  86.4412484  -0.5576390
 120.1130012  81.0234997  15.3129988 120.2630012  80.2944997  14.7109988
 120.1160012  81.8004997  14.7539988 120.1339302  81.0287851  15.1550692
 120.5260012  79.3934997  12.8059988 121.0620012  79.8444997  12.1539988
 119.6740012  79.2854997  12.3829988 120.4842178  79.4406390  12.6595756
 122.1080012  84.8324997  13.0449988 122.8580012  84.6764997  12.4719988
 121.7690012  85.6844997  12.7699988 122.1648921  84.9262968  12.9293561
 126.5230012  82.6474997  18.0739988 126.7160012  81.7164997  17.9619988
 127.3810012  83.0724997  18.0639988 126.6653020  82.5776389  18.0573361
 127.8400012  85.4364997  16.1509988 127.5590012  86.1454997  15.5739988
 128.7830012  85.3634997  15.9999988 127.9289027  85.5237646  16.0515551
 118.5920012  82.2214997  17.2249988 117.8250012  81.6894997  17.0149988
 119.2710012  81.9114997  16.6249988 118.5787022  82.1067506  17.1151648
 121.3320012  76.8494997  13.2369988 121.2330012  77.7964997  13.1319988
 120.5890012  76.4774997  12.7619988 121.2180564  76.9285902  13.1584560
 122.5960012  81.1714997  16.8009988 122.3600012  80.9514997  17.7029988
 121.8120012  80.9644997  16.2909988 122.4578628  81.1134760  16.8553932
 125.3110012  80.2984997  15.8769988 124.3640012  80.3304997  16.0089988
 125.6240012  79.6734997  16.5299988 125.2235475  80.2183207  15.9834455
 126.9450012  78.9324997  17.8819988 126.8490012  77.9804997  17.8759988
 126.6240012  79.2014997  18.7419988 126.8884070  78.8384035  17.9975441
 116.7720012  80.1424997  16.9289988 116.9840012  79.4354997  16.3189988
 116.6610012  79.7044997  17.7729988 116.7859721  79.9867084  16.9596843
 121.5530012  76.1434997  15.9089988 122.2650012  75.5034997  15.8949988
 121.4520012  76.4104997  14.9949988 121.6367939  76.0919938  15.7835650
 121.9070012  77.8264997  17.9619988 121.7750012  77.3504997  17.1419988
 121.3080012  78.5704997  17.9069988 121.8079071  77.8619618  17.8422886
 121.4530012  94.7094997   1.1389988 122.3860012  94.8674997   1.2819988
 121.1890012  95.3844997   0.5139988 121.5449510  94.8223611   1.0740741
 115.0220012  89.3454997   0.6209988 115.9360012  89.4244997   0.8949988
 115.0290012  88.6584997  -0.0450012 115.1481131  89.2633961   0.5684393
 113.6710012  94.7384997   5.6989988 113.0240012  94.2764997   5.1659988
 114.0250012  94.0664997   6.2809988 113.6303849  94.5844723   5.7047959
 114.5410012  92.8194997   7.5029988 114.2060012  91.9394997   7.6749988
 114.7630012  93.1644997   8.3679988 114.5251783  92.7457500   7.6434208
 132.0890012  93.6284997  10.4839988 132.0680012  93.8134997  11.4229988
 132.7800012  94.1974997  10.1429988 132.1794618  93.7306606  10.5663864
 131.6530012  93.1964997  13.4059988 131.1650012  92.4604997  13.0349988
 132.2020012  92.8024997  14.0839988 131.6604872  93.0426249  13.4469160
 130.1030012  88.9854997  18.0439988 129.2370012  88.8804997  18.4379988
 130.4800012  89.7444997  18.4899988 130.0353308  89.0736900  18.1582393
 131.4040012  87.2424997   3.5579988 132.2540012  87.6634997   3.6849988
 131.4100012  86.5024997   4.1649988 131.5211372  87.2000803   3.6574344
 131.7990012  85.2954997   5.3819988 131.0720012  84.8164997   5.7789988
 132.3800012  85.5014997   6.1139988 131.7779375  85.2577090   5.5354129
 131.5580012  88.0804997  10.3289988 132.3910012  87.7024997  10.0489988
 131.6700012  89.0234997  10.2099988 131.6872647  88.1562218  10.2745487
 130.0440012  90.9584997  12.6359988 129.3970012  91.2834997  13.2619988
 129.5270012  90.5184997  11.9619988 129.8854029  90.9435004  12.6305827
 132.0670012  85.1964997   1.7729988 131.5450012  85.5534997   1.0539988
 132.0340012  85.8714997   2.4509988 131.9911634  85.3365413   1.7663145
 130.4160012  82.4364997   0.3239988 130.5120012  83.1034997  -0.3570012
 130.2760012  81.6204997  -0.1580012 130.4102135  82.4174500   0.1658491
 129.5850012  83.8164997   5.9449988 129.4350012  82.8714997   5.9239988
 129.2320012  84.0974997   6.7879988 129.5166625  83.7250441   6.0562346
 114.6210012  85.8944997   9.9549988 114.8050012  85.8124997   9.0189988
 115.4700012  85.7704997  10.3789988 114.7610139  85.8665003   9.8841455
 130.4420012  85.7864997  15.5829988 131.0250012  85.0524997  15.7749988
 131.0060012  86.5584997  15.6299988 130.5979769  85.7904227  15.6156159
 131.9380012  83.6894997  16.2679988 131.0750012  83.3104997  16.1019988
 132.5430012  82.9504997  16.1939988 131.9015979  83.5378023  16.2352817
 129.6630012  79.8444997  -0.5590012 130.2740012  79.4734997   0.0779988
 128.8270012  79.4234997  -0.3630012 129.6335032  79.7367554  -0.4452965
 129.2960012  81.3994997   4.4069988 129.5760012  80.4924997   4.5309988
 130.0550012  81.8334997   4.0179988 129.4369277  81.3340942   4.3713682
 129.9080012  81.9804997   9.8429988 130.8410012  82.1924997   9.8089988
 129.6730012  82.0824997  10.7649988 130.0038036  82.0232769   9.9629976
 129.9370012  82.7174997  12.6189988 129.0940012  82.9854997  12.9849988
 130.3790012  83.5394997  12.4079988 129.8814158  82.8653291  12.6405491
 114.2180012  81.1654997  16.0959988 115.1380012  81.0434997  16.3319988
 113.7690012  80.4154997  16.4849988 114.2831580  81.0473727  16.1809006
 132.2200012  76.6974997  17.9719988 132.5700012  76.0434997  17.3669988
 132.3670012  77.5344997  17.5329988 132.2878419  76.7211591  17.8297118
 129.9090012  78.6624997   4.4549988 130.0920012  78.2134997   5.2809988
 129.3100012  78.0774997   3.9919988 129.8530202  78.5219975   4.5053275
 115.4390012  79.4774997   8.9869988 115.8850012  78.6854997   9.2889988
 115.9060012  80.1934997   9.4179988 115.5630172  79.4660624   9.0864820
 113.7430012  82.4764997  10.0559988 114.2350012  82.2554997   9.2649988
 114.1060012  83.3174997  10.3369988 113.8593126  82.5598357   9.9857531
 131.7400012  78.8064997  16.3219988 130.8220012  79.0774997  16.2859988
 131.8630012  78.2714997  15.5369988 131.6311066  78.7712892  16.2110487
 131.7760012  78.7294997   0.9829988 132.1880012  78.0084997   0.5079988
 132.4580012  79.3994997   1.0419988 131.9245885  78.7212368   0.9258915
 114.0570012  78.7344997   4.1099988 113.1320012  78.9434997   3.9809988
 114.5110012  79.2184997   3.4209988 113.9917368  78.8285993   3.9991226
 128.8280012  93.7184997   6.0559988 129.4800012  93.3714997   5.4479988
 129.3380012  94.2074997   6.7019988 128.9862637  93.7370597   6.0600236
 114.0210012  77.4724997  12.4549988 113.3560012  77.2264997  13.0979988
 113.5780012  78.0944997  11.8769988 113.8700956  77.5228632  12.4649352
 116.2130012  90.6474997  16.5989988 115.3920012  90.8224997  16.1389988
 115.9600012  90.5744997  17.5199988 116.0666164  90.6615622  16.6604923
 119.1670012  91.6224997  12.8579988 118.7420012  92.4314997  12.5749988
 120.0710012  91.7074997  12.5559988 119.2310271  91.7448469  12.7783776
 123.4780012  93.0214997  15.8169988 123.6630012  92.6874997  16.6949988
 124.3240012  93.3304997  15.4949988 123.6177539  93.0176047  15.8935605
 125.8230012  94.3074997  15.0609988 126.5000012  93.6744997  14.8209988
 126.1450012  94.7084997  15.8679988 125.9591637  94.2751154  15.1372793
 130.7400012  76.8964997  14.1409988 129.9280012  77.2214997  13.7529988
 130.9730012  76.1364997  13.6079988 130.6603423  76.8382436  14.0158253
 116.5690012  94.8784997  12.9049988 115.8480012  95.3184997  12.4539988
 116.2030012  94.6274997  13.7539988 116.4209804  94.9047698  12.9579840
 119.0360012  94.4784997  11.9349988 118.1710012  94.5504997  12.3389988
 118.9810012  95.0254997  11.1509988 118.9102085  94.5622685  11.8843362
 123.7460012  94.3664997  11.1099988 123.2900012  94.8954997  10.4559988
 123.9090012  94.9694997  11.8359988 123.7055585  94.5204468  11.1185062
 126.0740012  93.2444997  12.0549988 125.1690012  93.4094997  11.7899988
 126.5030012  94.0974997  11.9899988 126.0080799  93.3824483  12.0099182
 128.6780012  94.8144997  12.3499988 128.4960012  95.7304997  12.1399988
 128.8550012  94.4044997  11.5039988 128.6770210  94.8844822  12.2067885
 115.9830012  93.5014997   9.8149988 115.9650012  93.0764997  10.6729988
 116.7880012  93.1834997   9.4069988 116.0893875  93.4003812   9.8771655
 118.1250012  92.2114997   8.4699988 117.9060012  91.2954997   8.6399988
 118.9490012  92.3514997   8.9359988 118.2064420  92.1050520   8.5562774
 120.6620012  92.6814997   9.3189988 120.8750012  91.7934997   9.0319988
 120.7260012  92.6474997  10.2729988 120.6998232  92.5553102   9.4087397
 124.1700012  78.3454997   8.4629988 123.4960012  77.7164997   8.7189988
 124.7340012  77.8614997   7.8599988 124.1539230  78.1938744   8.4165340
 129.3130012  76.4534997   8.5759988 129.9170012  77.0004997   8.0739988
 128.4430012  76.7724997   8.3359988 129.2781241  76.5715806   8.4747654
 131.0400012  77.5914997   6.9089988 131.6520012  77.0774997   6.3829988
 131.4220012  78.4694997   6.9329988 131.1754540  77.6397140   6.8401830
 116.4970012  76.9794997   6.2849988 115.7200012  76.7454997   5.7779988
 117.0270012  76.1824997   6.2939988 116.4622330  76.8396988   6.2167742
 115.3330012  76.7774997   2.0889988 115.7720012  77.3884997   1.4969988
 114.7000012  77.3154997   2.5629988 115.3074514  76.9339257   2.0720930
 121.0760012  76.9064997   6.0989988 121.9510012  77.2944997   6.0689988
 120.9400012  76.6914997   7.0209988 121.1773695  76.9305184   6.2196440
 126.6330012  76.9364997   7.7479988 126.7090012  77.0314997   6.7979988
 126.3580012  76.0284997   7.8769988 126.6062321  76.8267867   7.6355079
 127.9860012  76.9624997   3.4399988 127.2840012  77.5774997   3.2309988
 127.5420012  76.1244997   3.5709988 127.8296330  76.9335783   3.4290328
 115.2340012  92.7254997   2.9869988 114.5490012  92.6874997   2.3189988
 115.2380012  93.6384997   3.2749988 115.1408193  92.8437016   2.9345284
 117.1940012  78.6934997   0.5309988 117.6860012  78.0634997   0.0039988
 117.8180012  78.9894997   1.1949988 117.3455446  78.6473199   0.5485980
 122.2200012  78.9864997   2.9879988 122.3980012  78.3404997   3.6709988
 122.1670012  79.8204997   3.4559988 122.2371829  79.0107985   3.1445940
 124.0990012  93.9354997   1.3839988 124.9650012  94.3014997   1.2059988
 123.8520012  93.4954997   0.5699988 124.1842392  93.9261756   1.2496289
 130.8080012  93.4984997   4.0629988 130.6130012  92.7504997   3.4979988
 130.7690012  94.2564997   3.4799988 130.7760380  93.4986099   3.9068384
 116.4550012  77.4934997  15.8029988 116.0890012  76.7284997  16.2459988
 117.3680012  77.5224997  16.0899988 116.5282790  77.3927224  15.9024070
 118.4280012  76.8444997  17.3389988 119.3260012  76.5704997  17.1539988
 118.0410012  76.1014997  17.8029988 118.4986612  76.7065914  17.3763643
 117.0520012  93.6454997   0.0119988 116.7850012  93.9324997   0.8849988
 117.8240012  93.0994997   0.1639988 117.1197488  93.6110294   0.1521050
 126.8490012  76.1764997  17.5209988 126.9260012  75.7504997  18.3749988
 127.7430012  76.1904997  17.1779988 126.9803428  76.1200879  17.5915310
 130.0250012  92.2494997  16.2129988 129.2430012  92.0634997  15.6939988
 129.9530012  93.1784997  16.4309988 129.9081777  92.3496492  16.1714048
 144.4310012  86.1354997   6.2439988 144.5200012  87.0794997   6.1119988
 143.7930012  85.8604997   5.5859988 144.3569081  86.2274830   6.1369614
 143.3640012  85.3904997   9.6629988 143.3260012  84.7444997  10.3679988
 143.0420012  84.9244997   8.8919988 143.3152333  85.2389408   9.6552978
 135.7330012  85.0054997  11.2559988 135.7740012  84.3794997  11.9789988
 136.4360012  85.6294997  11.4379988 135.8336363  85.0041196  11.3796044
 136.6560012  89.4554997   9.7909988 136.2870012  88.6534997   9.4209988
 137.5970012  89.2864997   9.8369988 136.7327289  89.3230153   9.7466316
 133.2660012  83.1154997   5.1839988 132.8190012  83.9614997   5.1649988
 132.7050012  82.5354997   4.6679988 133.1289900  83.1529916   5.1116801
 133.9770012  85.2774997   7.3099988 134.1900012  84.5074997   7.8369988
 134.7150012  85.3664997   6.7059988 134.1058496  85.1841394   7.3005300
 144.1820012  93.4344997   8.1769988 144.8020012  92.7574997   7.9029988
 143.9740012  93.2164997   9.0849988 144.2386904  93.3123870   8.2623365
 141.7540012  87.8234997  10.0689988 142.0580012  87.1374997   9.4739988
 142.4750012  87.9414997  10.6869988 141.8930671  87.7456305  10.0711816
 144.8950012  82.2174997  10.3969988 145.0370012  81.2714997  10.4169988
 144.7880012  82.4244997   9.4679988 144.8999864  82.1159534  10.2742339
 138.0490012  80.3184997   7.6689988 138.0930012  81.1784997   7.2509988
 137.5920012  79.7664997   7.0349988 137.9932185  80.3615799   7.5260299
 134.6700012  82.7154997   8.4309988 135.3230012  82.1654997   8.8629988
 134.6940012  82.4414997   7.5139988 134.7626683  82.6031466   8.3662123
 139.8260012  84.2654997   7.6459988 140.4420012  83.7394997   8.1559988
 139.2400012  83.6254997   7.2429988 139.8310810  84.1069208   7.6613173
 136.8600012  79.2364997  11.7429988 136.6410012  79.7664997  10.9769988
 136.1920012  79.4634997  12.3899988 136.7397600  79.3396906  11.7256379
 144.2290012  88.7364997   5.2869988 143.9330012  88.4144997   4.4359988
 143.9040012  89.6364997   5.3279988 144.1446371  88.8140215   5.1761801
 139.4290012  86.9124997  12.0299988 138.6890012  87.5104997  12.1339988
 140.1430012  87.4664997  11.7149988 139.4242237  87.0692831  12.0016465
 136.4530012  81.1284997   9.6949988 137.0670012  81.7614997  10.0689988
 136.9650012  80.6564997   9.0389988 136.6062296  81.1512370   9.6574252
 137.8360012  88.8764997  12.8179988 137.8310012  89.7564997  12.4399988
 136.9830012  88.7934997  13.2429988 137.7199464  88.9856117  12.8237907
 133.9570012  88.5474997   3.5999988 133.6850012  88.7764997   2.7109988
 134.0030012  89.3854997   4.0599988 133.9260094  88.6921213   3.5405697
 140.8860012  76.5424997   9.1959988 140.7690012  75.5934997   9.1409988
 140.0310012  76.8744997   9.4689988 140.7543733  76.4575409   9.2253897
 143.1530012  85.3794997   3.6959988 142.4410012  85.9144997   3.3439988
 143.8440012  85.4354997   3.0359988 143.1490132  85.4602543   3.5586289
 143.2060012  83.8374997   0.7349988 143.9070012  83.8594997   1.3859988
 143.5090012  83.2094997   0.0789988 143.3427830  83.7556566   0.7353711
 138.2040012  86.2194997   6.5299988 137.8730012  85.8494997   5.7119988
 138.7920012  85.5494997   6.8769988 138.2381873  86.0781156   6.4648102
 139.5700012  89.6474997   9.2119988 139.4760012  89.0694997   8.4549988
 140.3000012  89.2764997   9.7079988 139.6557981  89.5182390   9.1754165
 138.5700012  84.9884997  10.1639988 139.1360012  85.1094997   9.4009988
 138.8890012  85.6254997  10.8029988 138.6905786  85.0911884  10.1460040
 144.8790012  90.4914997  10.8979988 144.6390012  91.1534997  11.5459988
 144.6810012  89.6574997  11.3229988 144.8193808  90.4693134  11.0441524
 139.4500012  89.3874997  14.8809988 139.1390012  90.1694997  15.3359988
 138.8000012  89.2344997  14.1949988 139.3195558  89.4739105  14.8505871
 136.3700012  85.5854997  14.1099988 136.4410012  86.2364997  14.8079988
 135.4800012  85.6884997  13.7749988 136.2593117  85.6885936  14.1602700
 143.1560012  91.4884997   5.7679988 143.6300012  91.7834997   6.5459988
 142.5930012  92.2264997   5.5349988 143.1447653  91.6286932   5.8430136
 137.6900012  91.4594997  15.6439988 137.6970012  91.3234997  14.6969988
 136.7740012  91.3414997  15.8959988 137.5671714  91.4249430  15.5484666
 137.1940012  85.2894997   4.1199988 136.9020012  86.0574997   3.6289988
 136.5200012  84.6294997   3.9569988 137.0629081  85.3054406   4.0307340
 133.2870012  87.6524997  12.9349988 132.7860012  87.6244997  12.1199988
 133.2920012  86.7464997  13.2439988 133.2191526  87.5262278  12.8652872
 133.0370012  90.4324997   9.8189988 133.9830012  90.2884997   9.7999988
 132.9250012  91.2164997  10.3559988 133.1512727  90.5188046   9.8890072
 142.2140012  90.6724997  14.3769988 142.3010012  91.4984997  14.8519988
 141.3500012  90.3424997  14.6259988 142.1091964  90.7409878  14.4756549
 142.6280012  94.4444997   4.1829988 142.5530012  94.3234997   3.2369988
 142.6610012  95.3944997   4.3019988 142.6221848  94.5562500   4.0694834
 136.2810012  93.2334997   5.9639988 136.4340012  92.8854997   6.8429988
 135.4310012  92.8774997   5.7089988 136.1868962  93.1376650   6.0498340
 135.5360012  88.9754997  13.9779988 135.7520012  88.6144997  14.8369988
 134.6810012  88.6014997  13.7679988 135.4499292  88.8754111  14.0673386
 138.1550012  77.4454997   9.9729988 137.2930012  77.3584997   9.5659988
 138.1320012  78.3014997  10.4009988 138.0340330  77.5492765   9.9751863
 142.8180012  77.1674997  13.3479988 143.2380012  76.7524997  14.1009988
 141.8850012  76.9894997  13.4649988 142.7493644  77.0865900  13.4669539
 142.4790012  79.6604997   0.6329988 142.2260012  79.6794997   1.5559988
 142.2230012  78.7884997   0.3319988 142.4097790  79.5452437   0.7186263
 138.2460012  82.4114997  11.0679988 137.6040012  82.3704997  11.7769988
 138.2830012  83.3374997  10.8309988 138.1631324  82.5311559  11.1329824
 138.2430012  82.6324997   5.9799988 137.3500012  82.2914997   5.9219988
 138.6930012  82.2554997   5.2249988 138.1817305  82.5348484   5.8699177
 143.7780012  83.0484997   4.7969988 143.3690012  83.8634997   4.5059988
 144.4990012  82.9084997   4.1829988 143.8194537  83.1412018   4.6741342
 142.8800012  83.2234997  16.2849988 142.3180012  82.5194997  16.6059988
 143.7070012  83.1034997  16.7529988 142.9147095  83.1107883  16.3922330
 144.7830012  82.4944997   7.6109988 144.5880012  83.0994997   6.8959988
 144.9640012  81.6604997   7.1769988 144.7807614  82.4646300   7.4544405
 135.9960012  82.7314997  12.9349988 135.9580012  83.1314997  13.8039988
 135.5050012  81.9144997  13.0259988 135.9244684  82.6758069  13.0661059
 139.3620012  80.1054997  -0.2660012 138.9310012  79.6604997   0.4639988
 138.6440012  80.4774997  -0.7780012 139.2059438  80.0948940  -0.2353201
 132.6040012  79.8474997   6.7859988 133.2350012  79.8184997   7.5049988
 133.0530012  79.4224997   6.0559988 132.7510774  79.7860492   6.7856553
 133.8780012  80.5934997   2.2099988 134.3520012  81.1844997   1.6249988
 133.1610012  81.1244997   2.5569988 133.8459341  80.7460867   2.1768836
 144.0470012  84.1324997  12.2829988 144.3700012  83.5014997  11.6399988
 143.6070012  83.5974997  12.9429988 144.0316895  83.9738441  12.2842850
 140.8240012  80.0594997   7.0669988 139.9130012  80.1164997   7.3549988
 141.3300012  79.9994997   7.8769988 140.7675413  80.0591985   7.2160622
 135.6530012  81.6884997   5.8929988 134.7630012  81.7884997   5.5529988
 135.9490012  80.8464997   5.5469988 135.5712823  81.5883546   5.7997213
 139.3060012  81.6884997   3.5499988 140.2370012  81.8174997   3.7279988
 139.0910012  82.3584997   2.8999988 139.4044247  81.7966565   3.4865747
 137.9800012  82.8834997   1.1169988 137.4370012  82.5034997   0.4249988
 138.8130012  83.0774997   0.6879988 138.0184399  82.8578124   0.9644526
 136.1150012  87.4404997  16.2159988 136.8470012  87.6944997  16.7769988
 135.3350012  87.6444997  16.7309988 136.1098232  87.5029177  16.3625760
 142.1440012  82.8474997   8.9539988 142.7090012  82.3004997   8.4069988
 141.9970012  82.3254997   9.7419988 142.2012918  82.7022024   8.9858454
 137.1460012  78.9834997   5.3719988 136.8290012  78.0814997   5.3369988
 137.9280012  78.9854997   4.8189988 137.2082284  78.8601628   5.2924783
 140.7710012  81.2354997  11.3679988 139.9350012  81.6894997  11.4779988
 141.2950012  81.5114997  12.1199988 140.7274414  81.3349376  11.4847136
 141.3150012  87.4484997   3.0519988 140.5700012  86.9414997   2.7299988
 141.1810012  87.4974997   3.9989988 141.1948776  87.3856940   3.1358647
 142.8340012  87.6324997  14.2889988 142.4890012  87.2514997  15.0959988
 142.6340012  88.5664997  14.3609988 142.7598061  87.7065228  14.4090961
 136.4400012  86.7434997   8.8219988 137.1850012  86.7414997   8.2209988
 136.5180012  85.9204997   9.3039988 136.5525518  86.6319315   8.8048929
 143.4410012  88.9074997   2.0779988 143.1450012  89.7334997   2.4589988
 142.7380012  88.2874997   2.2739988 143.3054914  88.9368199   2.1566443
 133.4480012  85.2044997  14.1369988 133.6710012  84.7864997  14.9689988
 132.8460012  84.5914997  13.7139988 133.3971759  85.0644668  14.1937022
 140.4640012  84.7214997  16.3499988 140.1680012  84.5554997  15.4549988
 141.3960012  84.5014997  16.3389988 140.5494166  84.6690640  16.2260536
 138.8150012  90.2614997   6.2259988 139.3420012  91.0344997   6.0259988
 137.9350012  90.4864997   5.9249988 138.7681773  90.3978005   6.1579010
 134.5700012  85.1234997   0.8129988 135.1860012  85.7504997   1.1929988
 133.7080012  85.4394997   1.0849988 134.5377698  85.2519430   0.9017183
 140.2420012  87.9244997   5.8029988 140.0010012  88.8494997   5.8439988
 139.5010012  87.4654997   6.1989988 140.1088409  87.9891421   5.8621377
 140.7570012  92.0734997  12.1179988 141.1190012  92.9284997  11.8839988
 141.2880012  91.7814997  12.8579988 140.8784473  92.1511060  12.1860855
 138.9250012  92.9464997   5.3479988 137.9750012  93.0514997   5.3989988
 139.2770012  93.7664997   5.6929988 138.8424203  93.0718314   5.4016650
 144.3010012  88.1724997  11.8179988 143.8750012  87.9454997  12.6449988
 144.8810012  87.4344997  11.6359988 144.3211868  88.0415299  11.9065830
 135.0820012  79.9574997  13.6949988 134.1890012  80.2964997  13.6269988
 134.9830012  79.1024997  14.1129988 134.9464164  79.8882588  13.7422235
 134.7330012  91.7624997  12.1299988 134.9500012  90.8304997  12.0989988
 134.9790012  92.0364997  13.0129988 134.7959549  91.6720636  12.2451763
 140.5950012  90.2134997  -0.6610012 140.8340012  89.4654997  -1.2080012
 140.3260012  89.8254997   0.1719988 140.5913675  90.0586638  -0.6233135
 139.5320012  89.7834997   1.7959988 139.6780012  89.2634997   2.5859988
 139.5290012  90.6904997   2.1019988 139.5515989  89.8348853   1.9456088
 135.9850012  87.0364997   2.3059988 135.2990012  87.3884997   2.8729988
 136.5070012  87.7994997   2.0589988 135.9616852  87.1878578   2.3502118
 143.8160012  79.6984997  12.5849988 144.5150012  79.7724997  13.2349988
 143.4350012  78.8344997  12.7389988 143.8601767  79.5917624  12.6948322
 144.6010012  79.3504997   3.6819988 144.8210012  79.8224997   2.8789988
 145.1590012  79.7454997   4.3519988 144.7064968  79.4684285   3.6627331
 142.2690012  91.4814997   2.5449988 141.4530012  91.9784997   2.5969988
 142.7990012  91.9564997   1.9049988 142.2289161  91.6137722   2.4655956
 141.8010012  81.0784997   4.5169988 142.6130012  81.5834997   4.5629988
 141.5560012  80.9334997   5.4309988 141.8790520  81.1280375   4.6468517
 142.3360012  82.0644997  13.7019988 142.4550012  82.6384997  14.4589988
 142.9920012  81.3764997  13.8159988 142.4409757  82.0501079  13.8210825
 142.6840012  78.1594997   5.4549988 142.3380012  78.7774997   6.0999988
 143.3430012  78.6604997   4.9739988 142.7257826  78.3115802   5.4780971
 139.6080012  92.5254997   2.5269988 139.7680012  93.3244997   2.0259988
 139.4100012  92.8314997   3.4119988 139.6031649  92.6764469   2.5779815
 138.3420012  79.2224997   2.1419988 138.2590012  80.1114997   2.4889988
 139.2320012  78.9574997   2.3739988 138.4509469  79.3081430   2.2207626
 136.6010012  89.6504997   1.2029988 137.1930012  90.3494997   1.4789988
 137.0600012  89.2174997   0.4829988 136.7441142  89.6877049   1.1434830
 134.9170012  82.3144997   0.3189988 134.8720012  83.2534997   0.4969988
 134.0290012  82.0784997   0.0489988 134.7908574  82.4111892   0.3068912
 135.7250012  77.0964997   8.9919988 135.4960012  77.1554997   8.0639988
 135.2820012  76.3044997   9.2979988 135.6338530  76.9975753   8.9064786
 134.6550012  91.0364997   5.1519988 133.8230012  91.5094997   5.1799988
 135.2010012  91.5464997   4.5539988 134.6149739  91.1701871   5.0749716
 133.9430012  93.6494997  16.4819988 134.4840012  93.4324997  17.2419988
 133.4620012  92.8434997  16.2929988 133.9519345  93.5109514  16.5603076
 138.5410012  92.5684997  18.1029988 139.3080012  92.1094997  18.4439988
 138.5190012  92.3424997  17.1729988 138.6431434  92.4750409  18.0240043
 142.6330012  92.0764997  -0.5220012 141.9890012  91.4454997  -0.2010012
 143.3950012  91.5454997  -0.7540012 142.6478077  91.9182920  -0.5093989
 133.8500012  87.4594997  17.4369988 133.9940012  86.5574997  17.1499988
 133.0780012  87.7454997  16.9489988 133.7653322  87.3748261  17.3317881
 138.1920012  87.8034997  -0.4310012 138.2560012  87.0094997   0.0999988
 138.8450012  87.6844997  -1.1210012 138.2890241  87.6787148  -0.4515683
 140.5060012  87.4294997  16.8689988 140.1770012  87.7004997  16.0119988
 140.6580012  86.4884997  16.7819988 140.4814809  87.3393862  16.7398244
 143.5440012  88.8504997  -0.6950012 143.2750012  89.0304997   0.2059988
 143.3380012  87.9244997  -0.8260012 143.4793825  88.7500152  -0.5894786
 134.6830012  84.6594997  16.8569988 135.0910012  83.8024997  16.7359988
 134.4230012  84.6744997  17.7779988 134.7037568  84.5440807  16.9649588
 139.3410012  85.7754997   1.8749988 138.8810012  85.2914997   2.5609988
 139.5960012  85.1074997   1.2389988 139.3124902  85.6188731   1.8829334
 138.6300012  83.6684997  14.2309988 138.0120012  84.3434997  14.5109988
 138.9740012  83.9894997  13.3979988 138.5919615  83.8042721  14.1566581
 140.4120012  84.0184997   0.1369988 140.2320012  83.8644997  -0.7900012
 141.3620012  84.1264997   0.1819988 140.5157776  84.0120175   0.0161843
 143.6500012  86.1404997  17.5079988 144.6030012  86.2234997  17.4809988
 143.4890012  85.4284997  18.1279988 143.7586426  86.0556746  17.5880578
 138.9690012  81.0234997  15.3129988 139.1190012  80.2944997  14.7109988
 138.9720012  81.8004997  14.7539988 138.9899302  81.0287851  15.1550692
 139.3820012  79.3934997  12.8059988 139.9180012  79.8444997  12.1539988
 138.5300012  79.2854997  12.3829988 139.3402178  79.4406390  12.6595756
 140.9640012  84.8324997  13.0449988 141.7140012  84.6764997  12.4719988
 140.6250012  85.6844997  12.7699988 141.0208921  84.9262968  12.9293561
 137.4480012  82.2214997  17.2249988 136.6810012  81.6894997  17.0149988
 138.1270012  81.9114997  16.6249988 137.4347022  82.1067506  17.1151648
 140.1880012  76.8494997  13.2369988 140.0890012  77.7964997  13.1319988
 139.4450012  76.4774997  12.7619988 140.0740564  76.9285902  13.1584560
 141.4520012  81.1714997  16.8009988 141.2160012  80.9514997  17.7029988
 140.6680012  80.9644997  16.2909988 141.3138628  81.1134760  16.8553932
 144.1670012  80.2984997  15.8769988 143.2200012  80.3304997  16.0089988
 144.4800012  79.6734997  16.5299988 144.0795475  80.2183207  15.9834455
 135.6280012  80.1424997  16.9289988 135.8400012  79.4354997  16.3189988
 135.5170012  79.7044997  17.7729988 135.6419721  79.9867084  16.9596843
 140.4090012  76.1434997  15.9089988 141.1210012  75.5034997  15.8949988
 140.3080012  76.4104997  14.9949988 140.4927939  76.0919938  15.7835650
 140.7630012  77.8264997  17.9619988 140.6310012  77.3504997  17.1419988
 140.1640012  78.5704997  17.9069988 140.6639071  77.8619618  17.8422886
 140.3090012  94.7094997   1.1389988 141.2420012  94.8674997   1.2819988
 140.0450012  95.3844997   0.5139988 140.4009510  94.8223611   1.0740741
 133.8780012  89.3454997   0.6209988 134.7920012  89.4244997   0.8949988
 133.8850012  88.6584997  -0.0450012 134.0041131  89.2633961   0.5684393
 132.5270012  94.7384997   5.6989988 131.8800012  94.2764997   5.1659988
 132.8810012  94.0664997   6.2809988 132.4863849  94.5844723   5.7047959
 133.3970012  92.8194997   7.5029988 133.0620012  91.9394997   7.6749988
 133.6190012  93.1644997   8.3679988 133.3811783  92.7457500   7.6434208
 133.4770012  85.8944997   9.9549988 133.6610012  85.8124997   9.0189988
 134.3260012  85.7704997  10.3789988 133.6170139  85.8665003   9.8841455
 133.0740012  81.1654997  16.0959988 133.9940012  81.0434997  16.3319988
 132.6250012  80.4154997  16.4849988 133.1391580  81.0473727  16.1809006
 134.2950012  79.4774997   8.9869988 134.7410012  78.6854997   9.2889988
 134.7620012  80.1934997   9.4179988 134.4190172  79.4660624   9.0864820
 132.5990012  82.4764997  10.0559988 133.0910012  82.2554997   9.2649988
 132.9620012  83.3174997  10.3369988 132.7153126  82.5598357   9.9857531
 132.9130012  78.7344997   4.1099988 131.9880012  78.9434997   3.9809988
 133.3670012  79.2184997   3.4209988 132.8477368  78.8285993   3.9991226
 132.8770012  77.4724997  12.4549988 132.2120012  77.2264997  13.0979988
 132.4340012  78.0944997  11.8769988 132.7260956  77.5228632  12.4649352
 135.0690012  90.6474997  16.5989988 134.2480012  90.8224997  16.1389988
 134.8160012  90.5744997  17.5199988 134.9226164  90.6615622  16.6604923
 138.0230012  91.6224997  12.8579988 137.5980012  92.4314997  12.5749988
 138.9270012  91.7074997  12.5559988 138.0870271  91.7448469  12.7783776
 142.3340012  93.0214997  15.8169988 142.5190012  92.6874997  16.6949988
 143.1800012  93.3304997  15.4949988 142.4737539  93.0176047  15.8935605
 144.6790012  94.3074997  15.0609988 145.3560012  93.6744997  14.8209988
 145.0010012  94.7084997  15.8679988 144.8151637  94.2751154  15.1372793
 135.4250012  94.8784997  12.9049988 134.7040012  95.3184997  12.4539988
 135.0590012  94.6274997  13.7539988 135.2769804  94.9047698  12.9579840
 137.8920012  94.4784997  11.9349988 137.0270012  94.5504997  12.3389988
 137.8370012  95.0254997  11.1509988 137.7662085  94.5622685  11.8843362
 142.6020012  94.3664997  11.1099988 142.1460012  94.8954997  10.4559988
 142.7650012  94.9694997  11.8359988 142.5615585  94.5204468  11.1185062
 134.8390012  93.5014997   9.8149988 134.8210012  93.0764997  10.6729988
 135.6440012  93.1834997   9.4069988 134.9453875  93.4003812   9.8771655
 136.9810012  92.2114997   8.4699988 136.7620012  91.2954997   8.6399988
 137.8050012  92.3514997   8.9359988 137.0624420  92.1050520   8.5562774
 139.5180012  92.6814997   9.3189988 139.7310012  91.7934997   9.0319988
 139.5820012  92.6474997  10.2729988 139.5558232  92.5553102   9.4087397
 143.0260012  78.3454997   8.4629988 142.3520012  77.7164997   8.7189988
 143.5900012  77.8614997   7.8599988 143.0099230  78.1938744   8.4165340
 135.3530012  76.9794997   6.2849988 134.5760012  76.7454997   5.7779988
 135.8830012  76.1824997   6.2939988 135.3182330  76.8396988   6.2167742
 134.1890012  76.7774997   2.0889988 134.6280012  77.3884997   1.4969988
 133.5560012  77.3154997   2.5629988 134.1634514  76.9339257   2.0720930
 139.9320012  76.9064997   6.0989988 140.8070012  77.2944997   6.0689988
 139.7960012  76.6914997   7.0209988 140.0333695  76.9305184   6.2196440
 134.0900012  92.7254997   2.9869988 133.4050012  92.6874997   2.3189988
 134.0940012  93.6384997   3.2749988 133.9968193  92.8437016   2.9345284
 136.0500012  78.6934997   0.5309988 136.5420012  78.0634997   0.0039988
 136.6740012  78.9894997   1.1949988 136.2015446  78.6473199   0.5485980
 141.0760012  78.9864997   2.9879988 141.2540012  78.3404997   3.6709988
 141.0230012  79.8204997   3.4559988 141.0931829  79.0107985   3.1445940
 142.9550012  93.9354997   1.3839988 143.8210012  94.3014997   1.2059988
 142.7080012  93.4954997   0.5699988 143.0402392  93.9261756   1.2496289
 135.3110012  77.4934997  15.8029988 134.9450012  76.7284997  16.2459988
 136.2240012  77.5224997  16.0899988 135.3842790  77.3927224  15.9024070
 137.2840012  76.8444997  17.3389988 138.1820012  76.5704997  17.1539988
 136.8970012  76.1014997  17.8029988 137.3546612  76.7065914  17.3763643
 135.9080012  93.6454997   0.0119988 135.6410012  93.9324997   0.8849988
 136.6800012  93.0994997   0.1639988 135.9757488  93.6110294   0.1521050
  12.4390012 104.9914997   6.2439988  12.5280012 105.9354997   6.1119988
  11.8010012 104.7164997   5.5859988  12.3649081 105.0834830   6.1369614
  11.3720012 104.2464997   9.6629988  11.3340012 103.6004997  10.3679988
  11.0500012 103.7804997   8.8919988  11.3232333 104.0949408   9.6552978
   3.7410012 103.8614997  11.2559988   3.7820012 103.2354997  11.9789988
   4.4440012 104.4854997  11.4379988   3.8416363 103.8601196  11.3796044
  15.0780012 107.1854997   7.9639988  14.6380012 106.4654997   8.4149988
  15.0650012 107.9064997   8.5939988  15.0160226 107.1843731   8.1108494
   4.6640012 108.3114997   9.7909988   4.2950012 107.5094997   9.4209988
   5.6050012 108.1424997   9.8369988   4.7407289 108.1790153   9.7466316
   1.2740012 101.9714997   5.1839988   0.8270012 102.8174997   5.1649988
   0.7130012 101.3914997   4.6679988   1.1369900 102.0089916   5.1116801
   1.9850012 104.1334997   7.3099988   2.1980012 103.3634997   7.8369988
   2.7230012 104.2224997   6.7059988   2.1138496 104.0401394   7.3005300
  12.1900012 112.2904997   8.1769988  12.8100012 111.6134997   7.9029988
  11.9820012 112.0724997   9.0849988  12.2466904 112.1683870   8.2623365
   9.7620012 106.6794997  10.0689988  10.0660012 105.9934997   9.4739988
  10.4830012 106.7974997  10.6869988   9.9010671 106.6016305  10.0711816
  18.4250012  98.2804997  10.9299988  18.4740012  98.8904997  11.6659988
  18.8500012  98.7414997  10.2069988  18.4891824  98.4263741  10.9330205
  12.9030012 101.0734997  10.3969988  13.0450012 100.1274997  10.4169988
  12.7960012 101.2804997   9.4679988  12.9079863 100.9719534  10.2742339
   6.0570012  99.1744997   7.6689988   6.1010012 100.0344997   7.2509988
   5.6000012  98.6224997   7.0349988   6.0012185  99.2175799   7.5260299
  13.7800012  99.3054997   6.0699988  14.4260012  98.9764997   6.6949988
  14.2900012  99.8234997   5.4469988  13.9374264  99.3304611   6.0713862
   2.6780012 101.5714997   8.4309988   3.3310012 101.0214997   8.8629988
   2.7020012 101.2974997   7.5139988   2.7706683 101.4591466   8.3662123
   7.8340012 103.1214997   7.6459988   8.4500012 102.5954997   8.1559988
   7.2480012 102.4814997   7.2429988   7.8390810 102.9629208   7.6613173
  18.8160012  99.7584997  13.1659988  18.1280012 100.4164997  13.0699988
  18.8320012  99.5614997  14.1019988  18.7238525  99.8220462  13.2794808
   4.8680012  98.0924997  11.7429988   4.6490012  98.6224997  10.9769988
   4.2000012  98.3194997  12.3899988   4.7477600  98.1956906  11.7256379
  12.2370012 107.5924997   5.2869988  11.9410012 107.2704997   4.4359988
  11.9120012 108.4924997   5.3279988  12.1526371 107.6700215   5.1761801
   7.4370012 105.7684997  12.0299988   6.6970012 106.3664997  12.1339988
   8.1510012 106.3224997  11.7149988   7.4322237 105.9252831  12.0016465
  15.5440012  98.5964997   8.0499988  15.3280012  97.8304997   8.5829988
  16.1990012  99.0684997   8.5629988  15.6030632  98.5555889   8.1922861
   4.4610012  99.9844997   9.6949988   5.0750012 100.6174997  10.0689988
   4.9730012  99.5124997   9.0389988   4.6142296 100.0072370   9.6574252
   5.8440012 107.7324997  12.8179988   5.8390012 108.6124997  12.4399988
   4.9910012 107.6494997  13.2429988   5.7279464 107.8416117  12.8237907
   1.9650012 107.4034997   3.5999988   1.6930012 107.6324997   2.7109988
   2.0110012 108.2414997   4.0599988   1.9340094 107.5481213   3.5405697
  15.5900012 109.0254997  10.3119988  14.6490012 109.0834997  10.4739988
  15.8670012 109.9314997  10.1749988  15.4984679 109.1559443  10.3156815
  15.8910012  97.3114997  11.7299988  15.1550012  97.9224997  11.6919988
  16.5740012  97.7264997  11.2029988  15.8826541  97.4511374  11.6535832
   8.8940012  95.3984997   9.1959988   8.7770012  94.4494997   9.1409988
   8.0390012  95.7304997   9.4689988   8.7623733  95.3135409   9.2253897
  13.8420012 110.8064997   6.9379988  14.2680012 110.0994997   6.4529988
  14.1590012 111.6074997   6.5209988  13.9431019 110.8180994   6.8153130
  15.0020012 108.7074997   5.4459988  14.7440012 108.0174997   4.8349988
  15.0730012 108.2644997   6.2919988  14.9762856 108.5532124   5.4766885
  16.6880012 107.2734997  13.9239988  16.8280012 106.6824997  13.1839988
  16.8550012 108.1464997  13.5669988  16.7296778 107.3106426  13.7746965
  11.1610012 104.2354997   3.6959988  10.4490012 104.7704997   3.3439988
  11.8520012 104.2914997   3.0359988  11.1570132 104.3162543   3.5586289
  11.2140012 102.6934997   0.7349988  11.9150012 102.7154997   1.3859988
  11.5170012 102.0654997   0.0789988  11.3507830 102.6116566   0.7353711
  18.5300012 103.6134997  11.9899988  17.8770012 104.3084997  12.0789988
  18.9950012 103.8234997  11.1799988  18.5035390 103.7369425  11.8926883
  14.5660012 104.4454997   4.6479988  13.8340012 104.6734997   5.2209988
  15.0140012 103.7314997   5.1029988  14.5263095 104.3802571   4.7879119
  14.4640012 102.6194997  13.7149988  14.5440012 103.3824997  14.2869988
  13.8620012 102.8984997  13.0249988  14.3935756 102.7617134  13.7000589
   6.2120012 105.0754997   6.5299988   5.8810012 104.7054997   5.7119988
   6.8000012 104.4054997   6.8769988   6.2461873 104.9341156   6.4648102
   7.5780012 108.5034997   9.2119988   7.4840012 107.9254997   8.4549988
   8.3080012 108.1324997   9.7079988   7.6637981 108.3742390   9.1754165
   6.5780012 103.8444997  10.1639988   7.1440012 103.9654997   9.4009988
   6.8970012 104.4814997  10.8029988   6.6985786 103.9471884  10.1460040
  12.8870012 109.3474997  10.8979988  12.6470012 110.0094997  11.5459988
  12.6890012 108.5134997  11.3229988  12.8273808 109.3253134  11.0441524
   7.4580012 108.2434997  14.8809988   7.1470012 109.0254997  15.3359988
   6.8080012 108.0904997  14.1949988   7.3275558 108.3299105  14.8505871
  13.4370012 103.6074997   2.3329988  14.0170012 103.7574997   3.0799988
  13.8510012 104.0784997   1.6099988  13.5722830 103.6916841   2.3374134
   4.3780012 104.4414997  14.1099988   4.4490012 105.0924997  14.8079988
   3.4880012 104.5444997  13.7749988   4.2673117 104.5445936  14.1602700
  11.1640012 110.3444997   5.7679988  11.6380012 110.6394997   6.5459988
  10.6010012 111.0824997   5.5349988  11.1527653 110.4846932   5.8430136
   5.6980012 110.3154997  15.6439988   5.7050012 110.1794997  14.6969988
   4.7820012 110.1974997  15.8959988   5.5751714 110.2809430  15.5484666
  17.1360012  95.3574997   2.1459988  16.2360012  95.4964997   2.4409988
  17.3880012  96.1884997   1.7439988  17.0468702  95.4889074   2.1320205
   5.2020012 104.1454997   4.1199988   4.9100012 104.9134997   3.6289988
   4.5280012 103.4854997   3.9569988   5.0709081 104.1614406   4.0307340
  18.3250012 109.7234997   0.5219988  18.3990012 110.6624997   0.6929988
  19.2310012 109.4184997   0.4659988  18.4575100 109.8106722   0.5378119
   1.2950012 106.5084997  12.9349988   0.7940012 106.4804997  12.1199988
   1.3000012 105.6024997  13.2439988   1.2271526 106.3822278  12.8652872
   1.0450012 109.2884997   9.8189988   1.9910012 109.1444997   9.7999988
   0.9330012 110.0724997  10.3559988   1.1592727 109.3748046   9.8890072
  19.2430012 109.9544997  15.5009988  19.1940012 108.9994997  15.4639988
  18.4160012 110.2224997  15.9019988  19.1244940 109.8598998  15.5501375
  10.2220012 109.5284997  14.3769988  10.3090012 110.3544997  14.8519988
   9.3580012 109.1984997  14.6259988  10.1171964 109.5969878  14.4756549
  10.6360012 113.3004997   4.1829988  10.5610012 113.1794997   3.2369988
  10.6690012 114.2504997   4.3019988  10.6301848 113.4122500   4.0694834
   4.2890012 112.0894997   5.9639988   4.4420012 111.7414997   6.8429988
   3.4390012 111.7334997   5.7089988   4.1948962 111.9936650   6.0498340
  13.7380012 112.4544997   1.1849988  14.1130012 111.7104997   0.7149988
  13.7420012 112.1844997   2.1039988  13.7898915 112.3161486   1.2447824
  13.4070012 112.3804997   3.9349988  12.4710012 112.4804997   4.1129988
  13.6870012 111.6714997   4.5129988  13.3168255 112.2982711   4.0375391
  16.3950012 101.4474997  15.9809988  15.9880012 101.9284997  15.2599988
  16.4360012 100.5424997  15.6729988  16.3448437 101.3909374  15.8406683
   3.5440012 107.8314997  13.9779988   3.7600012 107.4704997  14.8369988
   2.6890012 107.4574997  13.7679988   3.4579292 107.7314111  14.0673386
   6.1630012  96.3014997   9.9729988   5.3010012  96.2144997   9.5659988
   6.1400012  97.1574997  10.4009988   6.0420330  96.4052765   9.9751863
  10.8260012  96.0234997  13.3479988  11.2460012  95.6084997  14.1009988
   9.8930012  95.8454997  13.4649988  10.7573644  95.9425900  13.4669539
  14.1520012  99.7794997  14.2009988  13.6380012  99.6534997  14.9989988
  13.9970012 100.6914997  13.9569988  14.0606852  99.8856132  14.2772158
  14.9150012 104.6404997  -0.0370012  14.9570012 104.4174997  -0.9670012
  15.7640012 105.0394997   0.1529988  15.0355396 104.6639155  -0.1386373
  10.4870012  98.5164997   0.6329988  10.2340012  98.5354997   1.5559988
  10.2310012  97.6444997   0.3319988  10.4177790  98.4012437   0.7186263
   6.2540012 101.2674997  11.0679988   5.6120012 101.2264997  11.7769988
   6.2910012 102.1934997  10.8309988   6.1711324 101.3871559  11.1329824
   6.2510012 101.4884997   5.9799988   5.3580012 101.1474997   5.9219988
   6.7010012 101.1114997   5.2249988   6.1897305 101.3908484   5.8699177
  11.7860012 101.9044997   4.7969988  11.3770012 102.7194997   4.5059988
  12.5070012 101.7644997   4.1829988  11.8274537 101.9972018   4.6741342
  10.8880012 102.0794997  16.2849988  10.3260012 101.3754997  16.6059988
  11.7150012 101.9594997  16.7529988  10.9227095 101.9667883  16.3922330
  12.7910012 101.3504997   7.6109988  12.5960012 101.9554997   6.8959988
  12.9720012 100.5164997   7.1769988  12.7887614 101.3206300   7.4544405
   4.0040012 101.5874997  12.9349988   3.9660012 101.9874997  13.8039988
   3.5130012 100.7704997  13.0259988   3.9324684 101.5318069  13.0661059
   7.3700012  98.9614997  -0.2660012   6.9390012  98.5164997   0.4639988
   6.6520012  99.3334997  -0.7780012   7.2139438  98.9508940  -0.2353201
   0.6120012  98.7034997   6.7859988   1.2430012  98.6744997   7.5049988
   1.0610012  98.2784997   6.0559988   0.7590774  98.6420492   6.7856553
   1.8860012  99.4494997   2.2099988   2.3600012 100.0404997   1.6249988
   1.1690012  99.9804997   2.5569988   1.8539341  99.6020867   2.1768836
  12.0550012 102.9884997  12.2829988  12.3780012 102.3574997  11.6399988
  11.6150012 102.4534997  12.9429988  12.0396895 102.8298441  12.2842850
   8.8320012  98.9154997   7.0669988   7.9210012  98.9724997   7.3549988
   9.3380012  98.8554997   7.8769988   8.7755413  98.9151985   7.2160622
   3.6610012 100.5444997   5.8929988   2.7710012 100.6444997   5.5529988
   3.9570012  99.7024997   5.5469988   3.5792823 100.4443545   5.7997213
   7.3140012 100.5444997   3.5499988   8.2450012 100.6734997   3.7279988
   7.0990012 101.2144997   2.8999988   7.4124247 100.6526565   3.4865747
  13.2370012  98.1504997  10.3309988  12.5610012  98.2814997  10.9949988
  12.7520012  97.9954997   9.5209988  13.0787145  98.1474905  10.3124517
   5.9880012 101.7394997   1.1169988   5.4450012 101.3594997   0.4249988
   6.8210012 101.9334997   0.6879988   6.0264399 101.7138124   0.9644526
  16.5250012 113.8224997  16.6079988  16.7250012 114.2464997  15.7729988
  17.1800012 114.1654997  17.2149988  16.6410051 113.9269648  16.5757836
   4.1230012 106.2964997  16.2159988   4.8550012 106.5504997  16.7769988
   3.3430012 106.5004997  16.7309988   4.1178232 106.3589177  16.3625760
  10.1520012 101.7034997   8.9539988  10.7170012 101.1564997   8.4069988
  10.0050012 101.1814997   9.7419988  10.2092918 101.5582024   8.9858454
   5.1540012  97.8394997   5.3719988   4.8370012  96.9374997   5.3369988
   5.9360012  97.8414997   4.8189988   5.2162284  97.7161628   5.2924783
   8.7790012 100.0914997  11.3679988   7.9430012 100.5454997  11.4779988
   9.3030012 100.3674997  12.1199988   8.7354414 100.1909376  11.4847136
   9.3230012 106.3044997   3.0519988   8.5780012 105.7974997   2.7299988
   9.1890012 106.3534997   3.9989988   9.2028776 106.2416940   3.1358647
  16.4730012 105.4374997  11.8389988  17.1150012 105.8944997  11.2949988
  15.6430012 105.5504997  11.3759988  16.4485963 105.5152704  11.7020177
  13.2210012  99.1184997   1.2519988  12.2820012  99.2304997   1.0999988
  13.5180012  99.9754997   1.5579988  13.1327666  99.2496443   1.2725768
  10.8420012 106.4884997  14.2889988  10.4970012 106.1074997  15.0959988
  10.6420012 107.4224997  14.3609988  10.7678061 106.5625228  14.4090961
  13.9390012 100.9854997   2.9119988  14.8310012 100.8484997   3.2309988
  13.9960012 101.7764997   2.3759988  14.0686285 101.0736660   2.8831690
   4.4480012 105.5994997   8.8219988   5.1930012 105.5974997   8.2209988
   4.5260012 104.7764997   9.3039988   4.5605518 105.4879315   8.8048929
  11.4490012 107.7634997   2.0779988  11.1530012 108.5894997   2.4589988
  10.7460012 107.1434997   2.2739988  11.3134914 107.7928199   2.1566443
   1.4560012 104.0604997  14.1369988   1.6790012 103.6424997  14.9689988
   0.8540012 103.4474997  13.7139988   1.4051759 103.9204668  14.1937022
   8.4720012 103.5774997  16.3499988   8.1760012 103.4114997  15.4549988
   9.4040012 103.3574997  16.3389988   8.5574166 103.5250640  16.2260536
  13.0930012 108.9504997  14.2399988  12.1920012 109.1334997  13.9719988
  13.1270012 109.2094997  15.1609988  12.9743041 109.0105512  14.3278197
  18.8240012 101.1954997   2.6069988  18.2700012 100.7994997   1.9349988
  18.9240012 102.1054997   2.3289988  18.7617059 101.2643586   2.4774401
  18.7870012 106.9954997  15.4439988  17.9360012 107.2334997  15.0769988
  19.3780012 106.9784997  14.6909988  18.7502487 107.0258258  15.2918893
  17.1190012 109.9814997   3.0719988  16.7460012 109.1554997   3.3809988
  17.3970012 109.7984997   2.1749988  17.1055630 109.8437303   2.9929626
  14.2800012 104.7894997  10.0929988  13.3510012 104.5574997  10.0659988
  14.7310012 104.0124997   9.7629988  14.2139216 104.6527238  10.0446917
   6.8230012 109.1174997   6.2259988   7.3500012 109.8904997   6.0259988
   5.9430012 109.3424997   5.9249988   6.7761773 109.2538005   6.1579010
   2.5780012 103.9794997   0.8129988   3.1940012 104.6064997   1.1929988
   1.7160012 104.2954997   1.0849988   2.5457698 104.1079430   0.9017183
   8.2500012 106.7804997   5.8029988   8.0090012 107.7054997   5.8439988
   7.5090012 106.3214997   6.1989988   8.1168409 106.8451421   5.8621377
   8.7650012 110.9294997  12.1179988   9.1270012 111.7844997  11.8839988
   9.2960012 110.6374997  12.8579988   8.8864473 111.0071060  12.1860855
   6.9330012 111.8024997   5.3479988   5.9830012 111.9074997   5.3989988
   7.2850012 112.6224997   5.6929988   6.8504203 111.9278314   5.4016650
  12.3090012 107.0284997  11.8179988  11.8830012 106.8014997  12.6449988
  12.8890012 106.2904997  11.6359988  12.3291868 106.8975299  11.9065830
  14.5120012 107.9574997   0.8919988  14.8650012 107.5774997   1.6969988
  13.5630012 107.8644997   0.9789988  14.4320441 107.8929596   1.0138559
  14.9670012 111.5804997  14.2879988  14.3660012 111.0254997  13.7919988
  15.2490012 112.2474997  13.6619988  14.9228519 111.5946841  14.1354952
  19.0150012 112.4374997   1.0929988  19.7590012 113.0234997   0.9529988
  18.3210012 113.0054997   1.4269988  19.0230292 112.5945582   1.1189961
   3.0900012  98.8134997  13.6949988   2.1970012  99.1524997  13.6269988
   2.9910012  97.9584997  14.1129988   2.9544164  98.7442588  13.7422235
  15.3780012 106.6304997   3.1189988  15.1000012 105.9024997   3.6749988
  16.3050012 106.7494997   3.3239988  15.4653124 106.5468802   3.2228845
   2.7410012 110.6184997  12.1299988   2.9580012 109.6864997  12.0989988
   2.9870012 110.8924997  13.0129988   2.8039549 110.5280636  12.2451763
   8.6030012 109.0694997  -0.6610012   8.8420012 108.3214997  -1.2080012
   8.3340012 108.6814997   0.1719988   8.5993675 108.9146638  -0.6233135
   7.5400012 108.6394997   1.7959988   7.6860012 108.1194997   2.5859988
   7.5370012 109.5464997   2.1019988   7.5595989 108.6908853   1.9456088
   3.9930012 105.8924997   2.3059988   3.3070012 106.2444997   2.8729988
   4.5150012 106.6554997   2.0589988   3.9696852 106.0438578   2.3502118
  11.8240012  98.5544997  12.5849988  12.5230012  98.6284997  13.2349988
  11.4430012  97.6904997  12.7389988  11.8681767  98.4477624  12.6948322
  12.6090012  98.2064997   3.6819988  12.8290012  98.6784997   2.8789988
  13.1670012  98.6014997   4.3519988  12.7144968  98.3244285   3.6627331
  10.2770012 110.3374997   2.5449988   9.4610012 110.8344997   2.5969988
  10.8070012 110.8124997   1.9049988  10.2369161 110.4697722   2.4655956
   9.8090012  99.9344997   4.5169988  10.6210012 100.4394997   4.5629988
   9.5640012  99.7894997   5.4309988   9.8870520  99.9840375   4.6468517
  10.3440012 100.9204997  13.7019988  10.4630012 101.4944997  14.4589988
  11.0000012 100.2324997  13.8159988  10.4489757 100.9061079  13.8210825
  10.6920012  97.0154997   5.4549988  10.3460012  97.6334997   6.0999988
  11.3510012  97.5164997   4.9739988  10.7337826  97.1675802   5.4780971
   7.6160012 111.3814997   2.5269988   7.7760012 112.1804997   2.0259988
   7.4180012 111.6874997   3.4119988   7.6111649 111.5324469   2.5779815
   6.3500012  98.0784997   2.1419988   6.2670012  98.9674997   2.4889988
   7.2400012  97.8134997   2.3739988   6.4589469  98.1641430   2.2207626
  16.5490012  98.8274997  14.5369988  15.6320012  99.0904997  14.4489988
  16.8840012  98.8244997  13.6399988  16.4689900  98.8630224  14.4037919
  15.1510012 102.5784997   8.6319988  14.3530012 102.1634997   8.3039988
  15.5960012 101.8874997   9.1229988  15.1019885 102.4283543   8.6534889
   4.6090012 108.5064997   1.2029988   5.2010012 109.2054997   1.4789988
   5.0680012 108.0734997   0.4829988   4.7521142 108.5437049   1.1434830
   2.9250012 101.1704997   0.3189988   2.8800012 102.1094997   0.4969988
   2.0370012 100.9344997   0.0489988   2.7988574 101.2671892   0.3068912
  16.2370012 111.8344997  10.2549988  16.0820012 112.5124997   9.5979988
  17.1700012 111.9064997  10.4579988  16.3418500 111.9370170  10.1925119
   3.7330012  95.9524997   8.9919988   3.5040012  96.0114997   8.0639988
   3.2900012  95.1604997   9.2979988   3.6418530  95.8535753   8.9064786
   2.6630012 109.8924997   5.1519988   1.8310012 110.3654997   5.1799988
   3.2090012 110.4024997   4.5539988   2.6229739 110.0261871   5.0749716
   1.9510012 112.5054997  16.4819988   2.4920012 112.2884997  17.2419988
   1.4700012 111.6994997  16.2929988   1.9599345 112.3669514  16.5603076
   6.5490012 111.4244997  18.1029988   7.3160012 110.9654997  18.4439988
   6.5270012 111.1984997  17.1729988   6.6511434 111.3310409  18.0240043
  10.6410012 110.9324997  -0.5220012   9.9970012 110.3014997  -0.2010012
  11.4030012 110.4014997  -0.7540012  10.6558077 110.7742920  -0.5093989
  13.1260012 109.8044997  16.8319988  12.7750012 108.9484997  17.0749988
  13.8520012 109.9474997  17.4389988  13.1760769 109.7065636  16.9473619
  15.2450012 110.7494997  -0.2880012  15.5280012 109.9554997   0.1639988
  15.9850012 110.9824997  -0.8490012  15.3837486 110.6722803  -0.3019302
   1.8580012 106.3154997  17.4369988   2.0020012 105.4134997  17.1499988
   1.0860012 106.6014997  16.9489988   1.7733323 106.2308261  17.3317881
   6.2000012 106.6594997  -0.4310012   6.2640012 105.8654997   0.0999988
   6.8530012 106.5404997  -1.1210012   6.2970241 106.5347148  -0.4515683
   8.5140012 106.2854997  16.8689988   8.1850012 106.5564997  16.0119988
   8.6660012 105.3444997  16.7819988   8.4894809 106.1953862  16.7398244
  11.5520012 107.7064997  -0.6950012  11.2830012 107.8864997   0.2059988
  11.3460012 106.7804997  -0.8260012  11.4873825 107.6060152  -0.5894786
  14.2480012 106.2014997  14.2529988  14.9940012 106.7894997  14.1329988
  13.4910012 106.7834997  14.3159988  14.2477554 106.3607011  14.2450907
   2.6910012 103.5154997  16.8569988   3.0990012 102.6584997  16.7359988
   2.4310012 103.5304997  17.7779988   2.7117568 103.4000807  16.9649588
   7.3490012 104.6314997   1.8749988   6.8890012 104.1474997   2.5609988
   7.6040012 103.9634997   1.2389988   7.3204902 104.4748731   1.8829334
   6.6380012 102.5244997  14.2309988   6.0200012 103.1994997  14.5109988
   6.9820012 102.8454997  13.3979988   6.5999615 102.6602721  14.1566581
   8.4200012 102.8744997   0.1369988   8.2400012 102.7204997  -0.7900012
   9.3700012 102.9824997   0.1819988   8.5237776 102.8680175   0.0161843
  11.6580012 104.9964997  17.5079988  12.6110012 105.0794997  17.4809988
  11.4970012 104.2844997  18.1279988  11.7666426 104.9116746  17.5880579
  17.8100012 105.2294997  -0.4170012  17.5360012 104.8044997  -1.2300012
  17.8490012 106.1604997  -0.6340012  17.7777699 105.2972484  -0.5576390
   6.9770012  99.8794997  15.3129988   7.1270012  99.1504997  14.7109988
   6.9800012 100.6564997  14.7539988   6.9979302  99.8847851  15.1550692
   7.3900012  98.2494997  12.8059988   7.9260012  98.7004997  12.1539988
   6.5380012  98.1414997  12.3829988   7.3482178  98.2966390  12.6595756
   8.9720012 103.6884997  13.0449988   9.7220012 103.5324997  12.4719988
   8.6330012 104.5404997  12.7699988   9.0288921 103.7822968  12.9293561
  13.3870012 101.5034997  18.0739988  13.5800012 100.5724997  17.9619988
  14.2450012 101.9284997  18.0639988  13.5293020 101.4336389  18.0573361
  14.7040012 104.2924997  16.1509988  14.4230012 105.0014997  15.5739988
  15.6470012 104.2194997  15.9999988  14.7929027 104.3797646  16.0515551
   5.4560012 101.0774997  17.2249988   4.6890012 100.5454997  17.0149988
   6.1350012 100.7674997  16.6249988   5.4427022 100.9627506  17.1151648
   8.1960012  95.7054997  13.2369988   8.0970012  96.6524997  13.1319988
   7.4530012  95.3334997  12.7619988   8.0820564  95.7845902  13.1584560
   9.4600012 100.0274997  16.8009988   9.2240012  99.8074997  17.7029988
   8.6760012  99.8204997  16.2909988   9.3218628  99.9694760  16.8553932
  12.1750012  99.1544997  15.8769988  11.2280012  99.1864997  16.0089988
  12.4880012  98.5294997  16.5299988  12.0875475  99.0743207  15.9834455
  13.8090012  97.7884997  17.8819988  13.7130012  96.8364997  17.8759988
  13.4880012  98.0574997  18.7419988  13.7524070  97.6944035  17.9975441
   3.6360012  98.9984997  16.9289988   3.8480012  98.2914997  16.3189988
   3.5250012  98.5604997  17.7729988   3.6499721  98.8427084  16.9596843
   8.4170012  94.9994997  15.9089988   9.1290012  94.3594997  15.8949988
   8.3160012  95.2664997  14.9949988   8.5007939  94.9479938  15.7835650
   8.7710012  96.6824997  17.9619988   8.6390012  96.2064997  17.1419988
   8.1720012  97.4264997  17.9069988   8.6719071  96.7179618  17.8422886
   8.3170012 113.5654997   1.1389988   9.2500012 113.7234997   1.2819988
   8.0530012 114.2404997   0.5139988   8.4089510 113.6783611   1.0740741
   1.8860012 108.2014997   0.6209988   2.8000012 108.2804997   0.8949988
   1.8930012 107.5144997  -0.0450012   2.0121131 108.1193961   0.5684393
   0.5350012 113.5944997   5.6989988  -0.1119988 113.1324997   5.1659988
   0.8890012 112.9224997   6.2809988   0.4943849 113.4404723   5.7047959
   1.4050012 111.6754997   7.5029988   1.0700012 110.7954997   7.6749988
   1.6270012 112.0204997   8.3679988   1.3891783 111.6017501   7.6434208
  18.9530012 112.4844997  10.4839988  18.9320012 112.6694997  11.4229988
  19.6440012 113.0534997  10.1429988  19.0434618 112.5866606  10.5663864
  18.5170012 112.0524997  13.4059988  18.0290012 111.3164997  13.0349988
  19.0660012 111.6584997  14.0839988  18.5244872 111.8986249  13.4469160
  16.9670012 107.8414997  18.0439988  16.1010012 107.7364997  18.4379988
  17.3440012 108.6004997  18.4899988  16.8993308 107.9296900  18.1582393
  18.2680012 106.0984997   3.5579988  19.1180012 106.5194997   3.6849988
  18.2740012 105.3584997   4.1649988  18.3851372 106.0560803   3.6574344
  18.6630012 104.1514997   5.3819988  17.9360012 103.6724997   5.7789988
  19.2440012 104.3574997   6.1139988  18.6419375 104.1137090   5.5354129
  18.4220012 106.9364997  10.3289988  19.2550012 106.5584997  10.0489988
  18.5340012 107.8794997  10.2099988  18.5512647 107.0122218  10.2745487
  16.9080012 109.8144997  12.6359988  16.2610012 110.1394997  13.2619988
  16.3910012 109.3744997  11.9619988  16.7494029 109.7995004  12.6305827
  18.9310012 104.0524997   1.7729988  18.4090012 104.4094997   1.0539988
  18.8980012 104.7274997   2.4509988  18.8551634 104.1925413   1.7663145
  17.2800012 101.2924997   0.3239988  17.3760012 101.9594997  -0.3570012
  17.1400012 100.4764997  -0.1580012  17.2742135 101.2734500   0.1658491
  16.4490012 102.6724997   5.9449988  16.2990012 101.7274997   5.9239988
  16.0960012 102.9534997   6.7879988  16.3806625 102.5810441   6.0562346
   1.4850012 104.7504997   9.9549988   1.6690012 104.6684997   9.0189988
   2.3340012 104.6264997  10.3789988   1.6250139 104.7225003   9.8841455
  17.3060012 104.6424997  15.5829988  17.8890012 103.9084997  15.7749988
  17.8700012 105.4144997  15.6299988  17.4619769 104.6464227  15.6156159
  18.8020012 102.5454997  16.2679988  17.9390012 102.1664997  16.1019988
  19.4070012 101.8064997  16.1939988  18.7655979 102.3938023  16.2352817
  16.5270012  98.7004997  -0.5590012  17.1380012  98.3294997   0.0779988
  15.6910012  98.2794997  -0.3630012  16.4975032  98.5927554  -0.4452965
  16.1600012 100.2554997   4.4069988  16.4400012  99.3484997   4.5309988
  16.9190012 100.6894997   4.0179988  16.3009277 100.1900942   4.3713682
  16.7720012 100.8364997   9.8429988  17.7050012 101.0484997   9.8089988
  16.5370012 100.9384997  10.7649988  16.8678036 100.8792769   9.9629976
  16.8010012 101.5734997  12.6189988  15.9580012 101.8414997  12.9849988
  17.2430012 102.3954997  12.4079988  16.7454158 101.7213291  12.6405491
   1.0820012 100.0214997  16.0959988   2.0020012  99.8994997  16.3319988
   0.6330012  99.2714997  16.4849988   1.1471580  99.9033727  16.1809006
  19.0840012  95.5534997  17.9719988  19.4340012  94.8994997  17.3669988
  19.2310012  96.3904997  17.5329988  19.1518419  95.5771591  17.8297118
  16.7730012  97.5184997   4.4549988  16.9560012  97.0694997   5.2809988
  16.1740012  96.9334997   3.9919988  16.7170202  97.3779975   4.5053275
   2.3030012  98.3334997   8.9869988   2.7490012  97.5414997   9.2889988
   2.7700012  99.0494997   9.4179988   2.4270172  98.3220624   9.0864820
   0.6070012 101.3324997  10.0559988   1.0990012 101.1114997   9.2649988
   0.9700012 102.1734997  10.3369988   0.7233126 101.4158357   9.9857531
  18.6040012  97.6624997  16.3219988  17.6860012  97.9334997  16.2859988
  18.7270012  97.1274997  15.5369988  18.4951066  97.6272892  16.2110487
  18.6400012  97.5854997   0.9829988  19.0520012  96.8644997   0.5079988
  19.3220012  98.2554997   1.0419988  18.7885885  97.5772368   0.9258915
   0.9210012  97.5904997   4.1099988  -0.0039988  97.7994997   3.9809988
   1.3750012  98.0744997   3.4209988   0.8557368  97.6845994   3.9991226
  15.6920012 112.5744997   6.0559988  16.3440012 112.2274997   5.4479988
  16.2020012 113.0634997   6.7019988  15.8502637 112.5930597   6.0600236
   0.8850012  96.3284997  12.4549988   0.2200012  96.0824997  13.0979988
   0.4420012  96.9504997  11.8769988   0.7340956  96.3788632  12.4649352
   3.0770012 109.5034997  16.5989988   2.2560012 109.6784997  16.1389988
   2.8240012 109.4304997  17.5199988   2.9306164 109.5175622  16.6604923
   6.0310012 110.4784997  12.8579988   5.6060012 111.2874997  12.5749988
   6.9350012 110.5634997  12.5559988   6.0950271 110.6008469  12.7783776
  10.3420012 111.8774997  15.8169988  10.5270012 111.5434997  16.6949988
  11.1880012 112.1864997  15.4949988  10.4817539 111.8736047  15.8935605
  12.6870012 113.1634997  15.0609988  13.3640012 112.5304997  14.8209988
  13.0090012 113.5644997  15.8679988  12.8231637 113.1311154  15.1372793
  17.6040012  95.7524997  14.1409988  16.7920012  96.0774997  13.7529988
  17.8370012  94.9924997  13.6079988  17.5243423  95.6942436  14.0158253
   3.4330012 113.7344997  12.9049988   2.7120012 114.1744997  12.4539988
   3.0670012 113.4834997  13.7539988   3.2849804 113.7607698  12.9579840
   5.9000012 113.3344997  11.9349988   5.0350012 113.4064997  12.3389988
   5.8450012 113.8814997  11.1509988   5.7742085 113.4182685  11.8843362
  10.6100012 113.2224997  11.1099988  10.1540012 113.7514997  10.4559988
  10.7730012 113.8254997  11.8359988  10.5695585 113.3764468  11.1185062
  12.9380012 112.1004997  12.0549988  12.0330012 112.2654997  11.7899988
  13.3670012 112.9534997  11.9899988  12.8720799 112.2384483  12.0099182
  15.5420012 113.6704997  12.3499988  15.3600012 114.5864997  12.1399988
  15.7190012 113.2604997  11.5039988  15.5410210 113.7404822  12.2067885
   2.8470012 112.3574997   9.8149988   2.8290012 111.9324997  10.6729988
   3.6520012 112.0394997   9.4069988   2.9533875 112.2563812   9.8771655
   4.9890012 111.0674997   8.4699988   4.7700012 110.1514997   8.6399988
   5.8130012 111.2074997   8.9359988   5.0704420 110.9610520   8.5562774
   7.5260012 111.5374997   9.3189988   7.7390012 110.6494997   9.0319988
   7.5900012 111.5034997  10.2729988   7.5638232 111.4113102   9.4087397
  11.0340012  97.2014997   8.4629988  10.3600012  96.5724997   8.7189988
  11.5980012  96.7174997   7.8599988  11.0179230  97.0498744   8.4165340
  16.1770012  95.3094997   8.5759988  16.7810012  95.8564997   8.0739988
  15.3070012  95.6284997   8.3359988  16.1421241  95.4275806   8.4747654
  17.9040012  96.4474997   6.9089988  18.5160012  95.9334997   6.3829988
  18.2860012  97.3254997   6.9329988  18.0394540  96.4957140   6.8401830
   3.3610012  95.8354997   6.2849988   2.5840012  95.6014997   5.7779988
   3.8910012  95.0384997   6.2939988   3.3262330  95.6956988   6.2167742
   2.1970012  95.6334997   2.0889988   2.6360012  96.2444997   1.4969988
   1.5640012  96.1714997   2.5629988   2.1714514  95.7899257   2.0720930
   7.9400012  95.7624997   6.0989988   8.8150012  96.1504997   6.0689988
   7.8040012  95.5474997   7.0209988   8.0413695  95.7865184   6.2196440
  13.4970012  95.7924997   7.7479988  13.5730012  95.8874997   6.7979988
  13.2220012  94.8844997   7.8769988  13.4702321  95.6827867   7.6355079
  14.8500012  95.8184997   3.4399988  14.1480012  96.4334997   3.2309988
  14.4060012  94.9804997   3.5709988  14.6936330  95.7895783   3.4290328
   2.0980012 111.5814997   2.9869988   1.4130012 111.5434997   2.3189988
   2.1020012 112.4944997   3.2749988   2.0048193 111.6997016   2.9345284
   4.0580012  97.5494997   0.5309988   4.5500012  96.9194997   0.0039988
   4.6820012  97.8454997   1.1949988   4.2095446  97.5033199   0.5485980
   9.0840012  97.8424997   2.9879988   9.2620012  97.1964997   3.6709988
   9.0310012  98.6764997   3.4559988   9.1011829  97.8667985   3.1445940
  10.9630012 112.7914997   1.3839988  11.8290012 113.1574997   1.2059988
  10.7160012 112.3514997   0.5699988  11.0482392 112.7821756   1.2496289
  17.6720012 112.3544997   4.0629988  17.4770012 111.6064997   3.4979988
  17.6330012 113.1124997   3.4799988  17.6400380 112.3546099   3.9068384
   3.3190012  96.3494997  15.8029988   2.9530012  95.5844997  16.2459988
   4.2320012  96.3784997  16.0899988   3.3922790  96.2487224  15.9024070
   5.2920012  95.7004997  17.3389988   6.1900012  95.4264997  17.1539988
   4.9050012  94.9574997  17.8029988   5.3626612  95.5625914  17.3763643
   3.9160012 112.5014997   0.0119988   3.6490012 112.7884997   0.8849988
   4.6880012 111.9554997   0.1639988   3.9837488 112.4670294   0.1521050
  13.7130012  95.0324997  17.5209988  13.7900012  94.6064997  18.3749988
  14.6070012  95.0464997  17.1779988  13.8443428  94.9760879  17.5915310
  16.8890012 111.1054997  16.2129988  16.1070012 110.9194997  15.6939988
  16.8170012 112.0344997  16.4309988  16.7721777 111.2056492  16.1714048
  31.2950012 104.9914997   6.2439988  31.3840012 105.9354997   6.1119988
  30.6570012 104.7164997   5.5859988  31.2209081 105.0834830   6.1369614
  30.2280012 104.2464997   9.6629988  30.1900012 103.6004997  10.3679988
  29.9060012 103.7804997   8.8919988  30.1792333 104.0949408   9.6552978
  22.5970012 103.8614997  11.2559988  22.6380012 103.2354997  11.9789988
  23.3000012 104.4854997  11.4379988  22.6976363 103.8601196  11.3796044
  33.9340012 107.1854997   7.9639988  33.4940012 106.4654997   8.4149988
  33.9210012 107.9064997   8.5939988  33.8720226 107.1843731   8.1108494
  23.5200012 108.3114997   9.7909988  23.1510012 107.5094997   9.4209988
  24.4610012 108.1424997   9.8369988  23.5967289 108.1790153   9.7466316
  20.1300012 101.9714997   5.1839988  19.6830012 102.8174997   5.1649988
  19.5690012 101.3914997   4.6679988  19.9929900 102.0089916   5.1116801
  20.8410012 104.1334997   7.3099988  21.0540012 103.3634997   7.8369988
  21.5790012 104.2224997   6.7059988  20.9698496 104.0401394   7.3005300
  31.0460012 112.2904997   8.1769988  31.6660012 111.6134997   7.9029988
  30.8380012 112.0724997   9.0849988  31.1026904 112.1683870   8.2623365
  28.6180012 106.6794997  10.0689988  28.9220012 105.9934997   9.4739988
  29.3390012 106.7974997  10.6869988  28.7570671 106.6016305  10.0711816
  37.2810012  98.2804997  10.9299988  37.3300012  98.8904997  11.6659988
  37.7060012  98.7414997  10.2069988  37.3451824  98.4263741  10.9330205
  31.7590012 101.0734997  10.3969988  31.9010012 100.1274997  10.4169988
  31.6520012 101.2804997   9.4679988  31.7639863 100.9719534  10.2742339
  24.9130012  99.1744997   7.6689988  24.9570012 100.0344997   7.2509988
  24.4560012  98.6224997   7.0349988  24.8572185  99.2175799   7.5260299
  32.6360012  99.3054997   6.0699988  33.2820012  98.9764997   6.6949988
  33.1460012  99.8234997   5.4469988  32.7934264  99.3304611   6.0713862
  21.5340012 101.5714997   8.4309988  22.1870012 101.0214997   8.8629988
  21.5580012 101.2974997   7.5139988  21.6266683 101.4591466   8.3662123
  26.6900012 103.1214997   7.6459988  27.3060012 102.5954997   8.1559988
  26.1040012 102.4814997   7.2429988  26.6950810 102.9629208   7.6613173
  37.6720012  99.7584997  13.1659988  36.9840012 100.4164997  13.0699988
  37.6880012  99.5614997  14.1019988  37.5798525  99.8220462  13.2794808
  23.7240012  98.0924997  11.7429988  23.5050012  98.6224997  10.9769988
  23.0560012  98.3194997  12.3899988  23.6037600  98.1956906  11.7256379
  31.0930012 107.5924997   5.2869988  30.7970012 107.2704997   4.4359988
  30.7680012 108.4924997   5.3279988  31.0086371 107.6700215   5.1761801
  26.2930012 105.7684997  12.0299988  25.5530012 106.3664997  12.1339988
  27.0070012 106.3224997  11.7149988  26.2882237 105.9252831  12.0016465
  34.4000012  98.5964997   8.0499988  34.1840012  97.8304997   8.5829988
  35.0550012  99.0684997   8.5629988  34.4590632  98.5555889   8.1922861
  23.3170012  99.9844997   9.6949988  23.9310012 100.6174997  10.0689988
  23.8290012  99.5124997   9.0389988  23.4702296 100.0072370   9.6574252
  24.7000012 107.7324997  12.8179988  24.6950012 108.6124997  12.4399988
  23.8470012 107.6494997  13.2429988  24.5839464 107.8416117  12.8237907
  20.8210012 107.4034997   3.5999988  20.5490012 107.6324997   2.7109988
  20.8670012 108.2414997   4.0599988  20.7900094 107.5481213   3.5405697
  34.4460012 109.0254997  10.3119988  33.5050012 109.0834997  10.4739988
  34.7230012 109.9314997  10.1749988  34.3544679 109.1559443  10.3156815
  34.7470012  97.3114997  11.7299988  34.0110012  97.9224997  11.6919988
  35.4300012  97.7264997  11.2029988  34.7386541  97.4511374  11.6535832
  27.7500012  95.3984997   9.1959988  27.6330012  94.4494997   9.1409988
  26.8950012  95.7304997   9.4689988  27.6183733  95.3135409   9.2253897
  32.6980012 110.8064997   6.9379988  33.1240012 110.0994997   6.4529988
  33.0150012 111.6074997   6.5209988  32.7991019 110.8180994   6.8153130
  33.8580012 108.7074997   5.4459988  33.6000012 108.0174997   4.8349988
  33.9290012 108.2644997   6.2919988  33.8322856 108.5532124   5.4766885
  35.5440012 107.2734997  13.9239988  35.6840012 106.6824997  13.1839988
  35.7110012 108.1464997  13.5669988  35.5856778 107.3106426  13.7746965
  30.0170012 104.2354997   3.6959988  29.3050012 104.7704997   3.3439988
  30.7080012 104.2914997   3.0359988  30.0130132 104.3162543   3.5586289
  30.0700012 102.6934997   0.7349988  30.7710012 102.7154997   1.3859988
  30.3730012 102.0654997   0.0789988  30.2067830 102.6116566   0.7353711
  37.3860012 103.6134997  11.9899988  36.7330012 104.3084997  12.0789988
  37.8510012 103.8234997  11.1799988  37.3595390 103.7369425  11.8926883
  33.4220012 104.4454997   4.6479988  32.6900012 104.6734997   5.2209988
  33.8700012 103.7314997   5.1029988  33.3823095 104.3802571   4.7879119
  33.3200012 102.6194997  13.7149988  33.4000012 103.3824997  14.2869988
  32.7180012 102.8984997  13.0249988  33.2495756 102.7617134  13.7000589
  25.0680012 105.0754997   6.5299988  24.7370012 104.7054997   5.7119988
  25.6560012 104.4054997   6.8769988  25.1021873 104.9341156   6.4648102
  26.4340012 108.5034997   9.2119988  26.3400012 107.9254997   8.4549988
  27.1640012 108.1324997   9.7079988  26.5197981 108.3742390   9.1754165
  25.4340012 103.8444997  10.1639988  26.0000012 103.9654997   9.4009988
  25.7530012 104.4814997  10.8029988  25.5545786 103.9471884  10.1460040
  31.7430012 109.3474997  10.8979988  31.5030012 110.0094997  11.5459988
  31.5450012 108.5134997  11.3229988  31.6833808 109.3253134  11.0441524
  26.3140012 108.2434997  14.8809988  26.0030012 109.0254997  15.3359988
  25.6640012 108.0904997  14.1949988  26.1835558 108.3299105  14.8505871
  32.2930012 103.6074997   2.3329988  32.8730012 103.7574997   3.0799988
  32.7070012 104.0784997   1.6099988  32.4282830 103.6916841   2.3374134
  23.2340012 104.4414997  14.1099988  23.3050012 105.0924997  14.8079988
  22.3440012 104.5444997  13.7749988  23.1233117 104.5445936  14.1602700
  30.0200012 110.3444997   5.7679988  30.4940012 110.6394997   6.5459988
  29.4570012 111.0824997   5.5349988  30.0087653 110.4846932   5.8430136
  24.5540012 110.3154997  15.6439988  24.5610012 110.1794997  14.6969988
  23.6380012 110.1974997  15.8959988  24.4311714 110.2809430  15.5484666
  35.9920012  95.3574997   2.1459988  35.0920012  95.4964997   2.4409988
  36.2440012  96.1884997   1.7439988  35.9028702  95.4889074   2.1320205
  24.0580012 104.1454997   4.1199988  23.7660012 104.9134997   3.6289988
  23.3840012 103.4854997   3.9569988  23.9269081 104.1614406   4.0307340
  37.1810012 109.7234997   0.5219988  37.2550012 110.6624997   0.6929988
  38.0870012 109.4184997   0.4659988  37.3135100 109.8106722   0.5378119
  20.1510012 106.5084997  12.9349988  19.6500012 106.4804997  12.1199988
  20.1560012 105.6024997  13.2439988  20.0831526 106.3822278  12.8652872
  19.9010012 109.2884997   9.8189988  20.8470012 109.1444997   9.7999988
  19.7890012 110.0724997  10.3559988  20.0152727 109.3748046   9.8890072
  38.0990012 109.9544997  15.5009988  38.0500012 108.9994997  15.4639988
  37.2720012 110.2224997  15.9019988  37.9804940 109.8598998  15.5501375
  29.0780012 109.5284997  14.3769988  29.1650012 110.3544997  14.8519988
  28.2140012 109.1984997  14.6259988  28.9731964 109.5969878  14.4756549
  29.4920012 113.3004997   4.1829988  29.4170012 113.1794997   3.2369988
  29.5250012 114.2504997   4.3019988  29.4861848 113.4122500   4.0694834
  23.1450012 112.0894997   5.9639988  23.2980012 111.7414997   6.8429988
  22.2950012 111.7334997   5.7089988  23.0508962 111.9936650   6.0498340
  32.5940012 112.4544997   1.1849988  32.9690012 111.7104997   0.7149988
  32.5980012 112.1844997   2.1039988  32.6458915 112.3161486   1.2447824
  32.2630012 112.3804997   3.9349988  31.3270012 112.4804997   4.1129988
  32.5430012 111.6714997   4.5129988  32.1728255 112.2982711   4.0375391
  35.2510012 101.4474997  15.9809988  34.8440012 101.9284997  15.2599988
  35.2920012 100.5424997  15.6729988  35.2008437 101.3909374  15.8406683
  22.4000012 107.8314997  13.9779988  22.6160012 107.4704997  14.8369988
  21.5450012 107.4574997  13.7679988  22.3139292 107.7314111  14.0673386
  25.0190012  96.3014997   9.9729988  24.1570012  96.2144997   9.5659988
  24.9960012  97.1574997  10.4009988  24.8980330  96.4052765   9.9751863
  29.6820012  96.0234997  13.3479988  30.1020012  95.6084997  14.1009988
  28.7490012  95.8454997  13.4649988  29.6133644  95.9425900  13.4669539
  33.0080012  99.7794997  14.2009988  32.4940012  99.6534997  14.9989988
  32.8530012 100.6914997  13.9569988  32.9166852  99.8856132  14.2772158
  33.7710012 104.6404997  -0.0370012  33.8130012 104.4174997  -0.9670012
  34.6200012 105.0394997   0.1529988  33.8915396 104.6639155  -0.1386373
  29.3430012  98.5164997   0.6329988  29.0900012  98.5354997   1.5559988
  29.0870012  97.6444997   0.3319988  29.2737790  98.4012437   0.7186263
  25.1100012 101.2674997  11.0679988  24.4680012 101.2264997  11.7769988
  25.1470012 102.1934997  10.8309988  25.0271324 101.3871559  11.1329824
  25.1070012 101.4884997   5.9799988  24.2140012 101.1474997   5.9219988
  25.5570012 101.1114997   5.2249988  25.0457305 101.3908484   5.8699177
  30.6420012 101.9044997   4.7969988  30.2330012 102.7194997   4.5059988
  31.3630012 101.7644997   4.1829988  30.6834537 101.9972018   4.6741342
  29.7440012 102.0794997  16.2849988  29.1820012 101.3754997  16.6059988
  30.5710012 101.9594997  16.7529988  29.7787095 101.9667883  16.3922330
  31.6470012 101.3504997   7.6109988  31.4520012 101.9554997   6.8959988
  31.8280012 100.5164997   7.1769988  31.6447614 101.3206300   7.4544405
  22.8600012 101.5874997  12.9349988  22.8220012 101.9874997  13.8039988
  22.3690012 100.7704997  13.0259988  22.7884684 101.5318069  13.0661059
  26.2260012  98.9614997  -0.2660012  25.7950012  98.5164997   0.4639988
  25.5080012  99.3334997  -0.7780012  26.0699438  98.9508940  -0.2353201
  19.4680012  98.7034997   6.7859988  20.0990012  98.6744997   7.5049988
  19.9170012  98.2784997   6.0559988  19.6150774  98.6420492   6.7856553
  20.7420012  99.4494997   2.2099988  21.2160012 100.0404997   1.6249988
  20.0250012  99.9804997   2.5569988  20.7099341  99.6020867   2.1768836
  30.9110012 102.9884997  12.2829988  31.2340012 102.3574997  11.6399988
  30.4710012 102.4534997  12.9429988  30.8956895 102.8298441  12.2842850
  27.6880012  98.9154997   7.0669988  26.7770012  98.9724997   7.3549988
  28.1940012  98.8554997   7.8769988  27.6315413  98.9151985   7.2160622
  22.5170012 100.5444997   5.8929988  21.6270012 100.6444997   5.5529988
  22.8130012  99.7024997   5.5469988  22.4352823 100.4443546   5.7997213
  26.1700012 100.5444997   3.5499988  27.1010012 100.6734997   3.7279988
  25.9550012 101.2144997   2.8999988  26.2684247 100.6526565   3.4865747
  32.0930012  98.1504997  10.3309988  31.4170012  98.2814997  10.9949988
  31.6080012  97.9954997   9.5209988  31.9347145  98.1474905  10.3124517
  24.8440012 101.7394997   1.1169988  24.3010012 101.3594997   0.4249988
  25.6770012 101.9334997   0.6879988  24.8824399 101.7138124   0.9644526
  35.3810012 113.8224997  16.6079988  35.5810012 114.2464997  15.7729988
  36.0360012 114.1654997  17.2149988  35.4970051 113.9269648  16.5757836
  22.9790012 106.2964997  16.2159988  23.7110012 106.5504997  16.7769988
  22.1990012 106.5004997  16.7309988  22.9738232 106.3589177  16.3625760
  29.0080012 101.7034997   8.9539988  29.5730012 101.1564997   8.4069988
  28.8610012 101.1814997   9.7419988  29.0652918 101.5582024   8.9858454
  24.0100012  97.8394997   5.3719988  23.6930012  96.9374997   5.3369988
  24.7920012  97.8414997   4.8189988  24.0722284  97.7161628   5.2924783
  27.6350012 100.0914997  11.3679988  26.7990012 100.5454997  11.4779988
  28.1590012 100.3674997  12.1199988  27.5914414 100.1909376  11.4847136
  28.1790012 106.3044997   3.0519988  27.4340012 105.7974997   2.7299988
  28.0450012 106.3534997   3.9989988  28.0588776 106.2416940   3.1358647
  35.3290012 105.4374997  11.8389988  35.9710012 105.8944997  11.2949988
  34.4990012 105.5504997  11.3759988  35.3045963 105.5152704  11.7020177
  32.0770012  99.1184997   1.2519988  31.1380012  99.2304997   1.0999988
  32.3740012  99.9754997   1.5579988  31.9887666  99.2496443   1.2725768
  29.6980012 106.4884997  14.2889988  29.3530012 106.1074997  15.0959988
  29.4980012 107.4224997  14.3609988  29.6238061 106.5625228  14.4090961
  32.7950012 100.9854997   2.9119988  33.6870012 100.8484997   3.2309988
  32.8520012 101.7764997   2.3759988  32.9246285 101.0736660   2.8831690
  23.3040012 105.5994997   8.8219988  24.0490012 105.5974997   8.2209988
  23.3820012 104.7764997   9.3039988  23.4165518 105.4879315   8.8048929
  30.3050012 107.7634997   2.0779988  30.0090012 108.5894997   2.4589988
  29.6020012 107.1434997   2.2739988  30.1694914 107.7928199   2.1566443
  20.3120012 104.0604997  14.1369988  20.5350012 103.6424997  14.9689988
  19.7100012 103.4474997  13.7139988  20.2611759 103.9204668  14.1937022
  27.3280012 103.5774997  16.3499988  27.0320012 103.4114997  15.4549988
  28.2600012 103.3574997  16.3389988  27.4134166 103.5250640  16.2260536
  31.9490012 108.9504997  14.2399988  31.0480012 109.1334997  13.9719988
  31.9830012 109.2094997  15.1609988  31.8303041 109.0105512  14.3278197
  37.6800012 101.1954997   2.6069988  37.1260012 100.7994997   1.9349988
  37.7800012 102.1054997   2.3289988  37.6177059 101.2643586   2.4774401
  37.6430012 106.9954997  15.4439988  36.7920012 107.2334997  15.0769988
  38.2340012 106.9784997  14.6909988  37.6062487 107.0258258  15.2918893
  35.9750012 109.9814997   3.0719988  35.6020012 109.1554997   3.3809988
  36.2530012 109.7984997   2.1749988  35.9615630 109.8437303   2.9929626
  33.1360012 104.7894997  10.0929988  32.2070012 104.5574997  10.0659988
  33.5870012 104.0124997   9.7629988  33.0699216 104.6527238  10.0446917
  25.6790012 109.1174997   6.2259988  26.2060012 109.8904997   6.0259988
  24.7990012 109.3424997   5.9249988  25.6321773 109.2538005   6.1579010
  21.4340012 103.9794997   0.8129988  22.0500012 104.6064997   1.1929988
  20.5720012 104.2954997   1.0849988  21.4017698 104.1079430   0.9017183
  27.1060012 106.7804997   5.8029988  26.8650012 107.7054997   5.8439988
  26.3650012 106.3214997   6.1989988  26.9728409 106.8451421   5.8621377
  27.6210012 110.9294997  12.1179988  27.9830012 111.7844997  11.8839988
  28.1520012 110.6374997  12.8579988  27.7424473 111.0071060  12.1860855
  25.7890012 111.8024997   5.3479988  24.8390012 111.9074997   5.3989988
  26.1410012 112.6224997   5.6929988  25.7064203 111.9278314   5.4016650
  31.1650012 107.0284997  11.8179988  30.7390012 106.8014997  12.6449988
  31.7450012 106.2904997  11.6359988  31.1851868 106.8975299  11.9065830
  33.3680012 107.9574997   0.8919988  33.7210012 107.5774997   1.6969988
  32.4190012 107.8644997   0.9789988  33.2880441 107.8929596   1.0138559
  33.8230012 111.5804997  14.2879988  33.2220012 111.0254997  13.7919988
  34.1050012 112.2474997  13.6619988  33.7788519 111.5946841  14.1354952
  37.8710012 112.4374997   1.0929988  38.6150012 113.0234997   0.9529988
  37.1770012 113.0054997   1.4269988  37.8790292 112.5945582   1.1189961
  21.9460012  98.8134997  13.6949988  21.0530012  99.1524997  13.6269988
  21.8470012  97.9584997  14.1129988  21.8104164  98.7442588  13.7422235
  34.2340012 106.6304997   3.1189988  33.9560012 105.9024997   3.6749988
  35.1610012 106.7494997   3.3239988  34.3213124 106.5468802   3.2228845
  21.5970012 110.6184997  12.1299988  21.8140012 109.6864997  12.0989988
  21.8430012 110.8924997  13.0129988  21.6599549 110.5280636  12.2451763
  27.4590012 109.0694997  -0.6610012  27.6980012 108.3214997  -1.2080012
  27.1900012 108.6814997   0.1719988  27.4553675 108.9146638  -0.6233135
  26.3960012 108.6394997   1.7959988  26.5420012 108.1194997   2.5859988
  26.3930012 109.5464997   2.1019988  26.4155989 108.6908853   1.9456088
  22.8490012 105.8924997   2.3059988  22.1630012 106.2444997   2.8729988
  23.3710012 106.6554997   2.0589988  22.8256852 106.0438578   2.3502118
  30.6800012  98.5544997  12.5849988  31.3790012  98.6284997  13.2349988
  30.2990012  97.6904997  12.7389988  30.7241767  98.4477624  12.6948322
  31.4650012  98.2064997   3.6819988  31.6850012  98.6784997   2.8789988
  32.0230012  98.6014997   4.3519988  31.5704968  98.3244285   3.6627331
  29.1330012 110.3374997   2.5449988  28.3170012 110.8344997   2.5969988
  29.6630012 110.8124997   1.9049988  29.0929161 110.4697722   2.4655956
  28.6650012  99.9344997   4.5169988  29.4770012 100.4394997   4.5629988
  28.4200012  99.7894997   5.4309988  28.7430520  99.9840375   4.6468517
  29.2000012 100.9204997  13.7019988  29.3190012 101.4944997  14.4589988
  29.8560012 100.2324997  13.8159988  29.3049757 100.9061079  13.8210825
  29.5480012  97.0154997   5.4549988  29.2020012  97.6334997   6.0999988
  30.2070012  97.5164997   4.9739988  29.5897826  97.1675802   5.4780971
  26.4720012 111.3814997   2.5269988  26.6320012 112.1804997   2.0259988
  26.2740012 111.6874997   3.4119988  26.4671649 111.5324469   2.5779815
  25.2060012  98.0784997   2.1419988  25.1230012  98.9674997   2.4889988
  26.0960012  97.8134997   2.3739988  25.3149469  98.1641430   2.2207626
  35.4050012  98.8274997  14.5369988  34.4880012  99.0904997  14.4489988
  35.7400012  98.8244997  13.6399988  35.3249900  98.8630224  14.4037919
  34.0070012 102.5784997   8.6319988  33.2090012 102.1634997   8.3039988
  34.4520012 101.8874997   9.1229988  33.9579885 102.4283543   8.6534889
  23.4650012 108.5064997   1.2029988  24.0570012 109.2054997   1.4789988
  23.9240012 108.0734997   0.4829988  23.6081142 108.5437049   1.1434830
  21.7810012 101.1704997   0.3189988  21.7360012 102.1094997   0.4969988
  20.8930012 100.9344997   0.0489988  21.6548574 101.2671892   0.3068912
  35.0930012 111.8344997  10.2549988  34.9380012 112.5124997   9.5979988
  36.0260012 111.9064997  10.4579988  35.1978500 111.9370170  10.1925119
  22.5890012  95.9524997   8.9919988  22.3600012  96.0114997   8.0639988
  22.1460012  95.1604997   9.2979988  22.4978530  95.8535753   8.9064786
  21.5190012 109.8924997   5.1519988  20.6870012 110.3654997   5.1799988
  22.0650012 110.4024997   4.5539988  21.4789739 110.0261871   5.0749716
  20.8070012 112.5054997  16.4819988  21.3480012 112.2884997  17.2419988
  20.3260012 111.6994997  16.2929988  20.8159345 112.3669514  16.5603076
  25.4050012 111.4244997  18.1029988  26.1720012 110.9654997  18.4439988
  25.3830012 111.1984997  17.1729988  25.5071434 111.3310409  18.0240043
  29.4970012 110.9324997  -0.5220012  28.8530012 110.3014997  -0.2010012
  30.2590012 110.4014997  -0.7540012  29.5118077 110.7742920  -0.5093989
  31.9820012 109.8044997  16.8319988  31.6310012 108.9484997  17.0749988
  32.7080012 109.9474997  17.4389988  32.0320769 109.7065636  16.9473619
  34.1010012 110.7494997  -0.2880012  34.3840012 109.9554997   0.1639988
  34.8410012 110.9824997  -0.8490012  34.2397486 110.6722803  -0.3019302
  20.7140012 106.3154997  17.4369988  20.8580012 105.4134997  17.1499988
  19.9420012 106.6014997  16.9489988  20.6293323 106.2308261  17.3317881
  25.0560012 106.6594997  -0.4310012  25.1200012 105.8654997   0.0999988
  25.7090012 106.5404997  -1.1210012  25.1530241 106.5347148  -0.4515683
  27.3700012 106.2854997  16.8689988  27.0410012 106.5564997  16.0119988
  27.5220012 105.3444997  16.7819988  27.3454809 106.1953862  16.7398244
  30.4080012 107.7064997  -0.6950012  30.1390012 107.8864997   0.2059988
  30.2020012 106.7804997  -0.8260012  30.3433825 107.6060152  -0.5894786
  33.1040012 106.2014997  14.2529988  33.8500012 106.7894997  14.1329988
  32.3470012 106.7834997  14.3159988  33.1037554 106.3607011  14.2450907
  21.5470012 103.5154997  16.8569988  21.9550012 102.6584997  16.7359988
  21.2870012 103.5304997  17.7779988  21.5677568 103.4000807  16.9649588
  26.2050012 104.6314997   1.8749988  25.7450012 104.1474997   2.5609988
  26.4600012 103.9634997   1.2389988  26.1764902 104.4748731   1.8829334
  25.4940012 102.5244997  14.2309988  24.8760012 103.1994997  14.5109988
  25.8380012 102.8454997  13.3979988  25.4559615 102.6602721  14.1566581
  27.2760012 102.8744997   0.1369988  27.0960012 102.7204997  -0.7900012
  28.2260012 102.9824997   0.1819988  27.3797776 102.8680175   0.0161843
  30.5140012 104.9964997  17.5079988  31.4670012 105.0794997  17.4809988
  30.3530012 104.2844997  18.1279988  30.6226426 104.9116746  17.5880579
  36.6660012 105.2294997  -0.4170012  36.3920012 104.8044997  -1.2300012
  36.7050012 106.1604997  -0.6340012  36.6337699 105.2972484  -0.5576390
  25.8330012  99.8794997  15.3129988  25.9830012  99.1504997  14.7109988
  25.8360012 100.6564997  14.7539988  25.8539302  99.8847851  15.1550692
  26.2460012  98.2494997  12.8059988  26.7820012  98.7004997  12.1539988
  25.3940012  98.1414997  12.3829988  26.2042178  98.2966390  12.6595756
  27.8280012 103.6884997  13.0449988  28.5780012 103.5324997  12.4719988
  27.4890012 104.5404997  12.7699988  27.8848921 103.7822968  12.9293561
  32.2430012 101.5034997  18.0739988  32.4360012 100.5724997  17.9619988
  33.1010012 101.9284997  18.0639988  32.3853020 101.4336389  18.0573361
  33.5600012 104.2924997  16.1509988  33.2790012 105.0014997  15.5739988
  34.5030012 104.2194997  15.9999988  33.6489027 104.3797646  16.0515551
  24.3120012 101.0774997  17.2249988  23.5450012 100.5454997  17.0149988
  24.9910012 100.7674997  16.6249988  24.2987022 100.9627506  17.1151648
  27.0520012  95.7054997  13.2369988  26.9530012  96.6524997  13.1319988
  26.3090012  95.3334997  12.7619988  26.9380564  95.7845902  13.1584560
  28.3160012 100.0274997  16.8009988  28.0800012  99.8074997  17.7029988
  27.5320012  99.8204997  16.2909988  28.1778628  99.9694760  16.8553932
  31.0310012  99.1544997  15.8769988  30.0840012  99.1864997  16.0089988
  31.3440012  98.5294997  16.5299988  30.9435475  99.0743207  15.9834455
  32.6650012  97.7884997  17.8819988  32.5690012  96.8364997  17.8759988
  32.3440012  98.0574997  18.7419988  32.6084070  97.6944035  17.9975441
  22.4920012  98.9984997  16.9289988  22.7040012  98.2914997  16.3189988
  22.3810012  98.5604997  17.7729988  22.5059721  98.8427084  16.9596843
  27.2730012  94.9994997  15.9089988  27.9850012  94.3594997  15.8949988
  27.1720012  95.2664997  14.9949988  27.3567939  94.9479938  15.7835650
  27.6270012  96.6824997  17.9619988  27.4950012  96.2064997  17.1419988
  27.0280012  97.4264997  17.9069988  27.5279071  96.7179618  17.8422886
  27.1730012 113.5654997   1.1389988  28.1060012 113.7234997   1.2819988
  26.9090012 114.2404997   0.5139988  27.2649510 113.6783611   1.0740741
  20.7420012 108.2014997   0.6209988  21.6560012 108.2804997   0.8949988
  20.7490012 107.5144997  -0.0450012  20.8681131 108.1193961   0.5684393
  19.3910012 113.5944997   5.6989988  18.7440012 113.1324997   5.1659988
  19.7450012 112.9224997   6.2809988  19.3503849 113.4404723   5.7047959
  20.2610012 111.6754997   7.5029988  19.9260012 110.7954997   7.6749988
  20.4830012 112.0204997   8.3679988  20.2451783 111.6017500   7.6434208
  37.8090012 112.4844997  10.4839988  37.7880012 112.6694997  11.4229988
  38.5000012 113.0534997  10.1429988  37.8994618 112.5866606  10.5663864
  37.3730012 112.0524997  13.4059988  36.8850012 111.3164997  13.0349988
  37.9220012 111.6584997  14.0839988  37.3804872 111.8986249  13.4469160
  35.8230012 107.8414997  18.0439988  34.9570012 107.7364997  18.4379988
  36.2000012 108.6004997  18.4899988  35.7553308 107.9296900  18.1582393
  37.1240012 106.0984997   3.5579988  37.9740012 106.5194997   3.6849988
  37.1300012 105.3584997   4.1649988  37.2411372 106.0560803   3.6574344
  37.5190012 104.1514997   5.3819988  36.7920012 103.6724997   5.7789988
  38.1000012 104.3574997   6.1139988  37.4979375 104.1137090   5.5354129
  37.2780012 106.9364997  10.3289988  38.1110012 106.5584997  10.0489988
  37.3900012 107.8794997  10.2099988  37.4072647 107.0122218  10.2745487
  35.7640012 109.8144997  12.6359988  35.1170012 110.1394997  13.2619988
  35.2470012 109.3744997  11.9619988  35.6054029 109.7995004  12.6305827
  37.7870012 104.0524997   1.7729988  37.2650012 104.4094997   1.0539988
  37.7540012 104.7274997   2.4509988  37.7111634 104.1925413   1.7663145
  36.1360012 101.2924997   0.3239988  36.2320012 101.9594997  -0.3570012
  35.9960012 100.4764997  -0.1580012  36.1302135 101.2734500   0.1658491
  35.3050012 102.6724997   5.9449988  35.1550012 101.7274997   5.9239988
  34.9520012 102.9534997   6.7879988  35.2366625 102.5810441   6.0562346
  20.3410012 104.7504997   9.9549988  20.5250012 104.6684997   9.0189988
  21.1900012 104.6264997  10.3789988  20.4810139 104.7225003   9.8841455
  36.1620012 104.6424997  15.5829988  36.7450012 103.9084997  15.7749988
  36.7260012 105.4144997  15.6299988  36.3179769 104.6464227  15.6156159
  37.6580012 102.5454997  16.2679988  36.7950012 102.1664997  16.1019988
  38.2630012 101.8064997  16.1939988  37.6215979 102.3938023  16.2352817
  35.3830012  98.7004997  -0.5590012  35.9940012  98.3294997   0.0779988
  34.5470012  98.2794997  -0.3630012  35.3535032  98.5927554  -0.4452965
  35.0160012 100.2554997   4.4069988  35.2960012  99.3484997   4.5309988
  35.7750012 100.6894997   4.0179988  35.1569277 100.1900942   4.3713682
  35.6280012 100.8364997   9.8429988  36.5610012 101.0484997   9.8089988
  35.3930012 100.9384997  10.7649988  35.7238036 100.8792769   9.9629976
  35.6570012 101.5734997  12.6189988  34.8140012 101.8414997  12.9849988
  36.0990012 102.3954997  12.4079988  35.6014158 101.7213291  12.6405491
  19.9380012 100.0214997  16.0959988  20.8580012  99.8994997  16.3319988
  19.4890012  99.2714997  16.4849988  20.0031580  99.9033727  16.1809006
  37.9400012  95.5534997  17.9719988  38.2900012  94.8994997  17.3669988
  38.0870012  96.3904997  17.5329988  38.0078419  95.5771591  17.8297118
  35.6290012  97.5184997   4.4549988  35.8120012  97.0694997   5.2809988
  35.0300012  96.9334997   3.9919988  35.5730202  97.3779975   4.5053275
  21.1590012  98.3334997   8.9869988  21.6050012  97.5414997   9.2889988
  21.6260012  99.0494997   9.4179988  21.2830172  98.3220624   9.0864820
  19.4630012 101.3324997  10.0559988  19.9550012 101.1114997   9.2649988
  19.8260012 102.1734997  10.3369988  19.5793126 101.4158357   9.9857531
  37.4600012  97.6624997  16.3219988  36.5420012  97.9334997  16.2859988
  37.5830012  97.1274997  15.5369988  37.3511066  97.6272892  16.2110487
  37.4960012  97.5854997   0.9829988  37.9080012  96.8644997   0.5079988
  38.1780012  98.2554997   1.0419988  37.6445885  97.5772368   0.9258915
  19.7770012  97.5904997   4.1099988  18.8520012  97.7994997   3.9809988
  20.2310012  98.0744997   3.4209988  19.7117368  97.6845993   3.9991226
  34.5480012 112.5744997   6.0559988  35.2000012 112.2274997   5.4479988
  35.0580012 113.0634997   6.7019988  34.7062637 112.5930597   6.0600236
  19.7410012  96.3284997  12.4549988  19.0760012  96.0824997  13.0979988
  19.2980012  96.9504997  11.8769988  19.5900956  96.3788632  12.4649352
  21.9330012 109.5034997  16.5989988  21.1120012 109.6784997  16.1389988
  21.6800012 109.4304997  17.5199988  21.7866164 109.5175622  16.6604923
  24.8870012 110.4784997  12.8579988  24.4620012 111.2874997  12.5749988
  25.7910012 110.5634997  12.5559988  24.9510271 110.6008469  12.7783776
  29.1980012 111.8774997  15.8169988  29.3830012 111.5434997  16.6949988
  30.0440012 112.1864997  15.4949988  29.3377539 111.8736047  15.8935605
  31.5430012 113.1634997  15.0609988  32.2200012 112.5304997  14.8209988
  31.8650012 113.5644997  15.8679988  31.6791637 113.1311154  15.1372793
  36.4600012  95.7524997  14.1409988  35.6480012  96.0774997  13.7529988
  36.6930012  94.9924997  13.6079988  36.3803423  95.6942436  14.0158253
  22.2890012 113.7344997  12.9049988  21.5680012 114.1744997  12.4539988
  21.9230012 113.4834997  13.7539988  22.1409804 113.7607698  12.9579840
  24.7560012 113.3344997  11.9349988  23.8910012 113.4064997  12.3389988
  24.7010012 113.8814997  11.1509988  24.6302085 113.4182685  11.8843362
  29.4660012 113.2224997  11.1099988  29.0100012 113.7514997  10.4559988
  29.6290012 113.8254997  11.8359988  29.4255585 113.3764468  11.1185062
  31.7940012 112.1004997  12.0549988  30.8890012 112.2654997  11.7899988
  32.2230012 112.9534997  11.9899988  31.7280799 112.2384483  12.0099182
  34.3980012 113.6704997  12.3499988  34.2160012 114.5864997  12.1399988
  34.5750012 113.2604997  11.5039988  34.3970210 113.7404822  12.2067885
  21.7030012 112.3574997   9.8149988  21.6850012 111.9324997  10.6729988
  22.5080012 112.0394997   9.4069988  21.8093875 112.2563812   9.8771655
  23.8450012 111.0674997   8.4699988  23.6260012 110.1514997   8.6399988
  24.6690012 111.2074997   8.9359988  23.9264420 110.9610520   8.5562774
  26.3820012 111.5374997   9.3189988  26.5950012 110.6494997   9.0319988
  26.4460012 111.5034997  10.2729988  26.4198232 111.4113102   9.4087397
  29.8900012  97.2014997   8.4629988  29.2160012  96.5724997   8.7189988
  30.4540012  96.7174997   7.8599988  29.8739230  97.0498744   8.4165340
  35.0330012  95.3094997   8.5759988  35.6370012  95.8564997   8.0739988
  34.1630012  95.6284997   8.3359988  34.9981241  95.4275806   8.4747654
  36.7600012  96.4474997   6.9089988  37.3720012  95.9334997   6.3829988
  37.1420012  97.3254997   6.9329988  36.8954540  96.4957140   6.8401830
  22.2170012  95.8354997   6.2849988  21.4400012  95.6014997   5.7779988
  22.7470012  95.0384997   6.2939988  22.1822330  95.6956988   6.2167742
  21.0530012  95.6334997   2.0889988  21.4920012  96.2444997   1.4969988
  20.4200012  96.1714997   2.5629988  21.0274514  95.7899257   2.0720930
  26.7960012  95.7624997   6.0989988  27.6710012  96.1504997   6.0689988
  26.6600012  95.5474997   7.0209988  26.8973695  95.7865184   6.2196440
  32.3530012  95.7924997   7.7479988  32.4290012  95.8874997   6.7979988
  32.0780012  94.8844997   7.8769988  32.3262321  95.6827867   7.6355079
  33.7060012  95.8184997   3.4399988  33.0040012  96.4334997   3.2309988
  33.2620012  94.9804997   3.5709988  33.5496330  95.7895783   3.4290328
  20.9540012 111.5814997   2.9869988  20.2690012 111.5434997   2.3189988
  20.9580012 112.4944997   3.2749988  20.8608193 111.6997016   2.9345284
  22.9140012  97.5494997   0.5309988  23.4060012  96.9194997   0.0039988
  23.5380012  97.8454997   1.1949988  23.0655446  97.5033199   0.5485980
  27.9400012  97.8424997   2.9879988  28.1180012  97.1964997   3.6709988
  27.8870012  98.6764997   3.4559988  27.9571829  97.8667985   3.1445940
  29.8190012 112.7914997   1.3839988  30.6850012 113.1574997   1.2059988
  29.5720012 112.3514997   0.5699988  29.9042392 112.7821756   1.2496289
  36.5280012 112.3544997   4.0629988  36.3330012 111.6064997   3.4979988
  36.4890012 113.1124997   3.4799988  36.4960380 112.3546099   3.9068384
  22.1750012  96.3494997  15.8029988  21.8090012  95.5844997  16.2459988
  23.0880012  96.3784997  16.0899988  22.2482790  96.2487224  15.9024070
  24.1480012  95.7004997  17.3389988  25.0460012  95.4264997  17.1539988
  23.7610012  94.9574997  17.8029988  24.2186612  95.5625914  17.3763643
  22.7720012 112.5014997   0.0119988  22.5050012 112.7884997   0.8849988
  23.5440012 111.9554997   0.1639988  22.8397488 112.4670294   0.1521050
  32.5690012  95.0324997  17.5209988  32.6460012  94.6064997  18.3749988
  33.4630012  95.0464997  17.1779988  32.7003428  94.9760879  17.5915310
  35.7450012 111.1054997  16.2129988  34.9630012 110.9194997  15.6939988
  35.6730012 112.0344997  16.4309988  35.6281777 111.2056492  16.1714048
  50.1510012 104.9914997   6.2439988  50.2400012 105.9354997   6.1119988
  49.5130012 104.7164997   5.5859988  50.0769081 105.0834830   6.1369614
  49.0840012 104.2464997   9.6629988  49.0460012 103.6004997  10.3679988
  48.7620012 103.7804997   8.8919988  49.0352333 104.0949408   9.6552978
  41.4530012 103.8614997  11.2559988  41.4940012 103.2354997  11.9789988
  42.1560012 104.4854997  11.4379988  41.5536363 103.8601196  11.3796044
  52.7900012 107.1854997   7.9639988  52.3500012 106.4654997   8.4149988
  52.7770012 107.9064997   8.5939988  52.7280226 107.1843731   8.1108494
  42.3760012 108.3114997   9.7909988  42.0070012 107.5094997   9.4209988
  43.3170012 108.1424997   9.8369988  42.4527289 108.1790153   9.7466316
  38.9860012 101.9714997   5.1839988  38.5390012 102.8174997   5.1649988
  38.4250012 101.3914997   4.6679988  38.8489900 102.0089916   5.1116801
  39.6970012 104.1334997   7.3099988  39.9100012 103.3634997   7.8369988
  40.4350012 104.2224997   6.7059988  39.8258496 104.0401394   7.3005300
  49.9020012 112.2904997   8.1769988  50.5220012 111.6134997   7.9029988
  49.6940012 112.0724997   9.0849988  49.9586904 112.1683870   8.2623365
  47.4740012 106.6794997  10.0689988  47.7780012 105.9934997   9.4739988
  48.1950012 106.7974997  10.6869988  47.6130671 106.6016305  10.0711816
  56.1370012  98.2804997  10.9299988  56.1860012  98.8904997  11.6659988
  56.5620012  98.7414997  10.2069988  56.2011824  98.4263741  10.9330205
  50.6150012 101.0734997  10.3969988  50.7570012 100.1274997  10.4169988
  50.5080012 101.2804997   9.4679988  50.6199864 100.9719534  10.2742339
  43.7690012  99.1744997   7.6689988  43.8130012 100.0344997   7.2509988
  43.3120012  98.6224997   7.0349988  43.7132185  99.2175799   7.5260299
  51.4920012  99.3054997   6.0699988  52.1380012  98.9764997   6.6949988
  52.0020012  99.8234997   5.4469988  51.6494264  99.3304611   6.0713862
  40.3900012 101.5714997   8.4309988  41.0430012 101.0214997   8.8629988
  40.4140012 101.2974997   7.5139988  40.4826683 101.4591466   8.3662123
  45.5460012 103.1214997   7.6459988  46.1620012 102.5954997   8.1559988
  44.9600012 102.4814997   7.2429988  45.5510810 102.9629208   7.6613173
  56.5280012  99.7584997  13.1659988  55.8400012 100.4164997  13.0699988
  56.5440012  99.5614997  14.1019988  56.4358525  99.8220462  13.2794808
  42.5800012  98.0924997  11.7429988  42.3610012  98.6224997  10.9769988
  41.9120012  98.3194997  12.3899988  42.4597600  98.1956906  11.7256379
  49.9490012 107.5924997   5.2869988  49.6530012 107.2704997   4.4359988
  49.6240012 108.4924997   5.3279988  49.8646371 107.6700215   5.1761801
  45.1490012 105.7684997  12.0299988  44.4090012 106.3664997  12.1339988
  45.8630012 106.3224997  11.7149988  45.1442237 105.9252831  12.0016465
  53.2560012  98.5964997   8.0499988  53.0400012  97.8304997   8.5829988
  53.9110012  99.0684997   8.5629988  53.3150632  98.5555889   8.1922861
  42.1730012  99.9844997   9.6949988  42.7870012 100.6174997  10.0689988
  42.6850012  99.5124997   9.0389988  42.3262296 100.0072370   9.6574252
  43.5560012 107.7324997  12.8179988  43.5510012 108.6124997  12.4399988
  42.7030012 107.6494997  13.2429988  43.4399464 107.8416117  12.8237907
  39.6770012 107.4034997   3.5999988  39.4050012 107.6324997   2.7109988
  39.7230012 108.2414997   4.0599988  39.6460094 107.5481213   3.5405697
  53.3020012 109.0254997  10.3119988  52.3610012 109.0834997  10.4739988
  53.5790012 109.9314997  10.1749988  53.2104679 109.1559443  10.3156815
  53.6030012  97.3114997  11.7299988  52.8670012  97.9224997  11.6919988
  54.2860012  97.7264997  11.2029988  53.5946541  97.4511374  11.6535832
  46.6060012  95.3984997   9.1959988  46.4890012  94.4494997   9.1409988
  45.7510012  95.7304997   9.4689988  46.4743733  95.3135409   9.2253897
  51.5540012 110.8064997   6.9379988  51.9800012 110.0994997   6.4529988
  51.8710012 111.6074997   6.5209988  51.6551019 110.8180994   6.8153130
  52.7140012 108.7074997   5.4459988  52.4560012 108.0174997   4.8349988
  52.7850012 108.2644997   6.2919988  52.6882856 108.5532124   5.4766885
  54.4000012 107.2734997  13.9239988  54.5400012 106.6824997  13.1839988
  54.5670012 108.1464997  13.5669988  54.4416778 107.3106426  13.7746965
  48.8730012 104.2354997   3.6959988  48.1610012 104.7704997   3.3439988
  49.5640012 104.2914997   3.0359988  48.8690132 104.3162543   3.5586289
  48.9260012 102.6934997   0.7349988  49.6270012 102.7154997   1.3859988
  49.2290012 102.0654997   0.0789988  49.0627830 102.6116566   0.7353711
  56.2420012 103.6134997  11.9899988  55.5890012 104.3084997  12.0789988
  56.7070012 103.8234997  11.1799988  56.2155390 103.7369425  11.8926883
  52.2780012 104.4454997   4.6479988  51.5460012 104.6734997   5.2209988
  52.7260012 103.7314997   5.1029988  52.2383095 104.3802571   4.7879119
  52.1760012 102.6194997  13.7149988  52.2560012 103.3824997  14.2869988
  51.5740012 102.8984997  13.0249988  52.1055756 102.7617134  13.7000589
  43.9240012 105.0754997   6.5299988  43.5930012 104.7054997   5.7119988
  44.5120012 104.4054997   6.8769988  43.9581873 104.9341156   6.4648102
  45.2900012 108.5034997   9.2119988  45.1960012 107.9254997   8.4549988
  46.0200012 108.1324997   9.7079988  45.3757981 108.3742390   9.1754165
  44.2900012 103.8444997  10.1639988  44.8560012 103.9654997   9.4009988
  44.6090012 104.4814997  10.8029988  44.4105786 103.9471884  10.1460040
  50.5990012 109.3474997  10.8979988  50.3590012 110.0094997  11.5459988
  50.4010012 108.5134997  11.3229988  50.5393808 109.3253134  11.0441524
  45.1700012 108.2434997  14.8809988  44.8590012 109.0254997  15.3359988
  44.5200012 108.0904997  14.1949988  45.0395558 108.3299105  14.8505871
  51.1490012 103.6074997   2.3329988  51.7290012 103.7574997   3.0799988
  51.5630012 104.0784997   1.6099988  51.2842830 103.6916841   2.3374134
  42.0900012 104.4414997  14.1099988  42.1610012 105.0924997  14.8079988
  41.2000012 104.5444997  13.7749988  41.9793117 104.5445936  14.1602700
  48.8760012 110.3444997   5.7679988  49.3500012 110.6394997   6.5459988
  48.3130012 111.0824997   5.5349988  48.8647653 110.4846932   5.8430136
  43.4100012 110.3154997  15.6439988  43.4170012 110.1794997  14.6969988
  42.4940012 110.1974997  15.8959988  43.2871714 110.2809430  15.5484666
  54.8480012  95.3574997   2.1459988  53.9480012  95.4964997   2.4409988
  55.1000012  96.1884997   1.7439988  54.7588702  95.4889074   2.1320205
  42.9140012 104.1454997   4.1199988  42.6220012 104.9134997   3.6289988
  42.2400012 103.4854997   3.9569988  42.7829081 104.1614406   4.0307340
  56.0370012 109.7234997   0.5219988  56.1110012 110.6624997   0.6929988
  56.9430012 109.4184997   0.4659988  56.1695100 109.8106722   0.5378119
  39.0070012 106.5084997  12.9349988  38.5060012 106.4804997  12.1199988
  39.0120012 105.6024997  13.2439988  38.9391526 106.3822278  12.8652872
  38.7570012 109.2884997   9.8189988  39.7030012 109.1444997   9.7999988
  38.6450012 110.0724997  10.3559988  38.8712727 109.3748046   9.8890072
  56.9550012 109.9544997  15.5009988  56.9060012 108.9994997  15.4639988
  56.1280012 110.2224997  15.9019988  56.8364940 109.8598998  15.5501375
  47.9340012 109.5284997  14.3769988  48.0210012 110.3544997  14.8519988
  47.0700012 109.1984997  14.6259988  47.8291964 109.5969878  14.4756549
  48.3480012 113.3004997   4.1829988  48.2730012 113.1794997   3.2369988
  48.3810012 114.2504997   4.3019988  48.3421848 113.4122500   4.0694834
  42.0010012 112.0894997   5.9639988  42.1540012 111.7414997   6.8429988
  41.1510012 111.7334997   5.7089988  41.9068962 111.9936650   6.0498340
  51.4500012 112.4544997   1.1849988  51.8250012 111.7104997   0.7149988
  51.4540012 112.1844997   2.1039988  51.5018915 112.3161486   1.2447824
  51.1190012 112.3804997   3.9349988  50.1830012 112.4804997   4.1129988
  51.3990012 111.6714997   4.5129988  51.0288255 112.2982711   4.0375391
  54.1070012 101.4474997  15.9809988  53.7000012 101.9284997  15.2599988
  54.1480012 100.5424997  15.6729988  54.0568437 101.3909374  15.8406683
  41.2560012 107.8314997  13.9779988  41.4720012 107.4704997  14.8369988
  40.4010012 107.4574997  13.7679988  41.1699292 107.7314111  14.0673386
  43.8750012  96.3014997   9.9729988  43.0130012  96.2144997   9.5659988
  43.8520012  97.1574997  10.4009988  43.7540330  96.4052765   9.9751863
  48.5380012  96.0234997  13.3479988  48.9580012  95.6084997  14.1009988
  47.6050012  95.8454997  13.4649988  48.4693644  95.9425900  13.4669539
  51.8640012  99.7794997  14.2009988  51.3500012  99.6534997  14.9989988
  51.7090012 100.6914997  13.9569988  51.7726852  99.8856132  14.2772158
  52.6270012 104.6404997  -0.0370012  52.6690012 104.4174997  -0.9670012
  53.4760012 105.0394997   0.1529988  52.7475396 104.6639155  -0.1386373
  48.1990012  98.5164997   0.6329988  47.9460012  98.5354997   1.5559988
  47.9430012  97.6444997   0.3319988  48.1297790  98.4012437   0.7186263
  43.9660012 101.2674997  11.0679988  43.3240012 101.2264997  11.7769988
  44.0030012 102.1934997  10.8309988  43.8831324 101.3871559  11.1329824
  43.9630012 101.4884997   5.9799988  43.0700012 101.1474997   5.9219988
  44.4130012 101.1114997   5.2249988  43.9017305 101.3908484   5.8699177
  49.4980012 101.9044997   4.7969988  49.0890012 102.7194997   4.5059988
  50.2190012 101.7644997   4.1829988  49.5394537 101.9972018   4.6741342
  48.6000012 102.0794997  16.2849988  48.0380012 101.3754997  16.6059988
  49.4270012 101.9594997  16.7529988  48.6347095 101.9667883  16.3922330
  50.5030012 101.3504997   7.6109988  50.3080012 101.9554997   6.8959988
  50.6840012 100.5164997   7.1769988  50.5007614 101.3206300   7.4544405
  41.7160012 101.5874997  12.9349988  41.6780012 101.9874997  13.8039988
  41.2250012 100.7704997  13.0259988  41.6444684 101.5318069  13.0661059
  45.0820012  98.9614997  -0.2660012  44.6510012  98.5164997   0.4639988
  44.3640012  99.3334997  -0.7780012  44.9259438  98.9508940  -0.2353201
  38.3240012  98.7034997   6.7859988  38.9550012  98.6744997   7.5049988
  38.7730012  98.2784997   6.0559988  38.4710774  98.6420492   6.7856553
  39.5980012  99.4494997   2.2099988  40.0720012 100.0404997   1.6249988
  38.8810012  99.9804997   2.5569988  39.5659341  99.6020867   2.1768836
  49.7670012 102.9884997  12.2829988  50.0900012 102.3574997  11.6399988
  49.3270012 102.4534997  12.9429988  49.7516895 102.8298441  12.2842850
  46.5440012  98.9154997   7.0669988  45.6330012  98.9724997   7.3549988
  47.0500012  98.8554997   7.8769988  46.4875413  98.9151985   7.2160622
  41.3730012 100.5444997   5.8929988  40.4830012 100.6444997   5.5529988
  41.6690012  99.7024997   5.5469988  41.2912823 100.4443546   5.7997213
  45.0260012 100.5444997   3.5499988  45.9570012 100.6734997   3.7279988
  44.8110012 101.2144997   2.8999988  45.1244247 100.6526565   3.4865747
  50.9490012  98.1504997  10.3309988  50.2730012  98.2814997  10.9949988
  50.4640012  97.9954997   9.5209988  50.7907145  98.1474905  10.3124517
  43.7000012 101.7394997   1.1169988  43.1570012 101.3594997   0.4249988
  44.5330012 101.9334997   0.6879988  43.7384399 101.7138124   0.9644526
  54.2370012 113.8224997  16.6079988  54.4370012 114.2464997  15.7729988
  54.8920012 114.1654997  17.2149988  54.3530051 113.9269648  16.5757836
  41.8350012 106.2964997  16.2159988  42.5670012 106.5504997  16.7769988
  41.0550012 106.5004997  16.7309988  41.8298232 106.3589177  16.3625760
  47.8640012 101.7034997   8.9539988  48.4290012 101.1564997   8.4069988
  47.7170012 101.1814997   9.7419988  47.9212918 101.5582024   8.9858454
  42.8660012  97.8394997   5.3719988  42.5490012  96.9374997   5.3369988
  43.6480012  97.8414997   4.8189988  42.9282284  97.7161628   5.2924783
  46.4910012 100.0914997  11.3679988  45.6550012 100.5454997  11.4779988
  47.0150012 100.3674997  12.1199988  46.4474414 100.1909376  11.4847136
  47.0350012 106.3044997   3.0519988  46.2900012 105.7974997   2.7299988
  46.9010012 106.3534997   3.9989988  46.9148776 106.2416940   3.1358647
  54.1850012 105.4374997  11.8389988  54.8270012 105.8944997  11.2949988
  53.3550012 105.5504997  11.3759988  54.1605963 105.5152704  11.7020177
  50.9330012  99.1184997   1.2519988  49.9940012  99.2304997   1.0999988
  51.2300012  99.9754997   1.5579988  50.8447666  99.2496443   1.2725768
  48.5540012 106.4884997  14.2889988  48.2090012 106.1074997  15.0959988
  48.3540012 107.4224997  14.3609988  48.4798061 106.5625228  14.4090961
  51.6510012 100.9854997   2.9119988  52.5430012 100.8484997   3.2309988
  51.7080012 101.7764997   2.3759988  51.7806285 101.0736660   2.8831691
  42.1600012 105.5994997   8.8219988  42.9050012 105.5974997   8.2209988
  42.2380012 104.7764997   9.3039988  42.2725518 105.4879315   8.8048929
  49.1610012 107.7634997   2.0779988  48.8650012 108.5894997   2.4589988
  48.4580012 107.1434997   2.2739988  49.0254914 107.7928199   2.1566443
  39.1680012 104.0604997  14.1369988  39.3910012 103.6424997  14.9689988
  38.5660012 103.4474997  13.7139988  39.1171759 103.9204668  14.1937022
  46.1840012 103.5774997  16.3499988  45.8880012 103.4114997  15.4549988
  47.1160012 103.3574997  16.3389988  46.2694166 103.5250640  16.2260536
  50.8050012 108.9504997  14.2399988  49.9040012 109.1334997  13.9719988
  50.8390012 109.2094997  15.1609988  50.6863041 109.0105512  14.3278197
  56.5360012 101.1954997   2.6069988  55.9820012 100.7994997   1.9349988
  56.6360012 102.1054997   2.3289988  56.4737059 101.2643586   2.4774401
  56.4990012 106.9954997  15.4439988  55.6480012 107.2334997  15.0769988
  57.0900012 106.9784997  14.6909988  56.4622487 107.0258258  15.2918893
  54.8310012 109.9814997   3.0719988  54.4580012 109.1554997   3.3809988
  55.1090012 109.7984997   2.1749988  54.8175630 109.8437303   2.9929626
  51.9920012 104.7894997  10.0929988  51.0630012 104.5574997  10.0659988
  52.4430012 104.0124997   9.7629988  51.9259216 104.6527238  10.0446917
  44.5350012 109.1174997   6.2259988  45.0620012 109.8904997   6.0259988
  43.6550012 109.3424997   5.9249988  44.4881773 109.2538005   6.1579010
  40.2900012 103.9794997   0.8129988  40.9060012 104.6064997   1.1929988
  39.4280012 104.2954997   1.0849988  40.2577698 104.1079430   0.9017183
  45.9620012 106.7804997   5.8029988  45.7210012 107.7054997   5.8439988
  45.2210012 106.3214997   6.1989988  45.8288409 106.8451421   5.8621377
  46.4770012 110.9294997  12.1179988  46.8390012 111.7844997  11.8839988
  47.0080012 110.6374997  12.8579988  46.5984473 111.0071060  12.1860855
  44.6450012 111.8024997   5.3479988  43.6950012 111.9074997   5.3989988
  44.9970012 112.6224997   5.6929988  44.5624203 111.9278314   5.4016650
  50.0210012 107.0284997  11.8179988  49.5950012 106.8014997  12.6449988
  50.6010012 106.2904997  11.6359988  50.0411868 106.8975299  11.9065830
  52.2240012 107.9574997   0.8919988  52.5770012 107.5774997   1.6969988
  51.2750012 107.8644997   0.9789988  52.1440441 107.8929596   1.0138559
  52.6790012 111.5804997  14.2879988  52.0780012 111.0254997  13.7919988
  52.9610012 112.2474997  13.6619988  52.6348519 111.5946841  14.1354952
  56.7270012 112.4374997   1.0929988  57.4710012 113.0234997   0.9529988
  56.0330012 113.0054997   1.4269988  56.7350292 112.5945582   1.1189961
  40.8020012  98.8134997  13.6949988  39.9090012  99.1524997  13.6269988
  40.7030012  97.9584997  14.1129988  40.6664164  98.7442588  13.7422235
  53.0900012 106.6304997   3.1189988  52.8120012 105.9024997   3.6749988
  54.0170012 106.7494997   3.3239988  53.1773124 106.5468802   3.2228845
  40.4530012 110.6184997  12.1299988  40.6700012 109.6864997  12.0989988
  40.6990012 110.8924997  13.0129988  40.5159549 110.5280636  12.2451763
  46.3150012 109.0694997  -0.6610012  46.5540012 108.3214997  -1.2080012
  46.0460012 108.6814997   0.1719988  46.3113675 108.9146638  -0.6233135
  45.2520012 108.6394997   1.7959988  45.3980012 108.1194997   2.5859988
  45.2490012 109.5464997   2.1019988  45.2715989 108.6908853   1.9456088
  41.7050012 105.8924997   2.3059988  41.0190012 106.2444997   2.8729988
  42.2270012 106.6554997   2.0589988  41.6816852 106.0438578   2.3502118
  49.5360012  98.5544997  12.5849988  50.2350012  98.6284997  13.2349988
  49.1550012  97.6904997  12.7389988  49.5801767  98.4477624  12.6948322
  50.3210012  98.2064997   3.6819988  50.5410012  98.6784997   2.8789988
  50.8790012  98.6014997   4.3519988  50.4264968  98.3244285   3.6627331
  47.9890012 110.3374997   2.5449988  47.1730012 110.8344997   2.5969988
  48.5190012 110.8124997   1.9049988  47.9489161 110.4697722   2.4655956
  47.5210012  99.9344997   4.5169988  48.3330012 100.4394997   4.5629988
  47.2760012  99.7894997   5.4309988  47.5990520  99.9840375   4.6468517
  48.0560012 100.9204997  13.7019988  48.1750012 101.4944997  14.4589988
  48.7120012 100.2324997  13.8159988  48.1609757 100.9061079  13.8210825
  48.4040012  97.0154997   5.4549988  48.0580012  97.6334997   6.0999988
  49.0630012  97.5164997   4.9739988  48.4457826  97.1675802   5.4780971
  45.3280012 111.3814997   2.5269988  45.4880012 112.1804997   2.0259988
  45.1300012 111.6874997   3.4119988  45.3231649 111.5324469   2.5779815
  44.0620012  98.0784997   2.1419988  43.9790012  98.9674997   2.4889988
  44.9520012  97.8134997   2.3739988  44.1709469  98.1641430   2.2207626
  54.2610012  98.8274997  14.5369988  53.3440012  99.0904997  14.4489988
  54.5960012  98.8244997  13.6399988  54.1809900  98.8630224  14.4037919
  52.8630012 102.5784997   8.6319988  52.0650012 102.1634997   8.3039988
  53.3080012 101.8874997   9.1229988  52.8139885 102.4283543   8.6534889
  42.3210012 108.5064997   1.2029988  42.9130012 109.2054997   1.4789988
  42.7800012 108.0734997   0.4829988  42.4641142 108.5437049   1.1434830
  40.6370012 101.1704997   0.3189988  40.5920012 102.1094997   0.4969988
  39.7490012 100.9344997   0.0489988  40.5108574 101.2671892   0.3068912
  53.9490012 111.8344997  10.2549988  53.7940012 112.5124997   9.5979988
  54.8820012 111.9064997  10.4579988  54.0538500 111.9370170  10.1925119
  41.4450012  95.9524997   8.9919988  41.2160012  96.0114997   8.0639988
  41.0020012  95.1604997   9.2979988  41.3538530  95.8535753   8.9064786
  40.3750012 109.8924997   5.1519988  39.5430012 110.3654997   5.1799988
  40.9210012 110.4024997   4.5539988  40.3349739 110.0261871   5.0749716
  39.6630012 112.5054997  16.4819988  40.2040012 112.2884997  17.2419988
  39.1820012 111.6994997  16.2929988  39.6719345 112.3669514  16.5603076
  44.2610012 111.4244997  18.1029988  45.0280012 110.9654997  18.4439988
  44.2390012 111.1984997  17.1729988  44.3631434 111.3310409  18.0240043
  48.3530012 110.9324997  -0.5220012  47.7090012 110.3014997  -0.2010012
  49.1150012 110.4014997  -0.7540012  48.3678077 110.7742920  -0.5093989
  50.8380012 109.8044997  16.8319988  50.4870012 108.9484997  17.0749988
  51.5640012 109.9474997  17.4389988  50.8880769 109.7065636  16.9473619
  52.9570012 110.7494997  -0.2880012  53.2400012 109.9554997   0.1639988
  53.6970012 110.9824997  -0.8490012  53.0957486 110.6722803  -0.3019302
  39.5700012 106.3154997  17.4369988  39.7140012 105.4134997  17.1499988
  38.7980012 106.6014997  16.9489988  39.4853322 106.2308261  17.3317881
  43.9120012 106.6594997  -0.4310012  43.9760012 105.8654997   0.0999988
  44.5650012 106.5404997  -1.1210012  44.0090241 106.5347148  -0.4515683
  46.2260012 106.2854997  16.8689988  45.8970012 106.5564997  16.0119988
  46.3780012 105.3444997  16.7819988  46.2014809 106.1953862  16.7398244
  49.2640012 107.7064997  -0.6950012  48.9950012 107.8864997   0.2059988
  49.0580012 106.7804997  -0.8260012  49.1993825 107.6060152  -0.5894786
  51.9600012 106.2014997  14.2529988  52.7060012 106.7894997  14.1329988
  51.2030012 106.7834997  14.3159988  51.9597554 106.3607011  14.2450907
  40.4030012 103.5154997  16.8569988  40.8110012 102.6584997  16.7359988
  40.1430012 103.5304997  17.7779988  40.4237568 103.4000807  16.9649588
  45.0610012 104.6314997   1.8749988  44.6010012 104.1474997   2.5609988
  45.3160012 103.9634997   1.2389988  45.0324902 104.4748731   1.8829334
  44.3500012 102.5244997  14.2309988  43.7320012 103.1994997  14.5109988
  44.6940012 102.8454997  13.3979988  44.3119615 102.6602721  14.1566581
  46.1320012 102.8744997   0.1369988  45.9520012 102.7204997  -0.7900012
  47.0820012 102.9824997   0.1819988  46.2357776 102.8680175   0.0161843
  49.3700012 104.9964997  17.5079988  50.3230012 105.0794997  17.4809988
  49.2090012 104.2844997  18.1279988  49.4786426 104.9116746  17.5880579
  55.5220012 105.2294997  -0.4170012  55.2480012 104.8044997  -1.2300012
  55.5610012 106.1604997  -0.6340012  55.4897699 105.2972484  -0.5576390
  44.6890012  99.8794997  15.3129988  44.8390012  99.1504997  14.7109988
  44.6920012 100.6564997  14.7539988  44.7099302  99.8847851  15.1550692
  45.1020012  98.2494997  12.8059988  45.6380012  98.7004997  12.1539988
  44.2500012  98.1414997  12.3829988  45.0602178  98.2966390  12.6595756
  46.6840012 103.6884997  13.0449988  47.4340012 103.5324997  12.4719988
  46.3450012 104.5404997  12.7699988  46.7408921 103.7822968  12.9293561
  51.0990012 101.5034997  18.0739988  51.2920012 100.5724997  17.9619988
  51.9570012 101.9284997  18.0639988  51.2413020 101.4336389  18.0573361
  52.4160012 104.2924997  16.1509988  52.1350012 105.0014997  15.5739988
  53.3590012 104.2194997  15.9999988  52.5049027 104.3797646  16.0515551
  43.1680012 101.0774997  17.2249988  42.4010012 100.5454997  17.0149988
  43.8470012 100.7674997  16.6249988  43.1547022 100.9627506  17.1151648
  45.9080012  95.7054997  13.2369988  45.8090012  96.6524997  13.1319988
  45.1650012  95.3334997  12.7619988  45.7940564  95.7845902  13.1584560
  47.1720012 100.0274997  16.8009988  46.9360012  99.8074997  17.7029988
  46.3880012  99.8204997  16.2909988  47.0338628  99.9694760  16.8553932
  49.8870012  99.1544997  15.8769988  48.9400012  99.1864997  16.0089988
  50.2000012  98.5294997  16.5299988  49.7995475  99.0743207  15.9834455
  51.5210012  97.7884997  17.8819988  51.4250012  96.8364997  17.8759988
  51.2000012  98.0574997  18.7419988  51.4644070  97.6944035  17.9975441
  41.3480012  98.9984997  16.9289988  41.5600012  98.2914997  16.3189988
  41.2370012  98.5604997  17.7729988  41.3619721  98.8427084  16.9596843
  46.1290012  94.9994997  15.9089988  46.8410012  94.3594997  15.8949988
  46.0280012  95.2664997  14.9949988  46.2127939  94.9479938  15.7835650
  46.4830012  96.6824997  17.9619988  46.3510012  96.2064997  17.1419988
  45.8840012  97.4264997  17.9069988  46.3839071  96.7179618  17.8422886
  46.0290012 113.5654997   1.1389988  46.9620012 113.7234997   1.2819988
  45.7650012 114.2404997   0.5139988  46.1209510 113.6783611   1.0740741
  39.5980012 108.2014997   0.6209988  40.5120012 108.2804997   0.8949988
  39.6050012 107.5144997  -0.0450012  39.7241131 108.1193961   0.5684393
  38.2470012 113.5944997   5.6989988  37.6000012 113.1324997   5.1659988
  38.6010012 112.9224997   6.2809988  38.2063849 113.4404723   5.7047959
  39.1170012 111.6754997   7.5029988  38.7820012 110.7954997   7.6749988
  39.3390012 112.0204997   8.3679988  39.1011783 111.6017500   7.6434208
  56.6650012 112.4844997  10.4839988  56.6440012 112.6694997  11.4229988
  57.3560012 113.0534997  10.1429988  56.7554618 112.5866606  10.5663864
  56.2290012 112.0524997  13.4059988  55.7410012 111.3164997  13.0349988
  56.7780012 111.6584997  14.0839988  56.2364872 111.8986249  13.4469160
  54.6790012 107.8414997  18.0439988  53.8130012 107.7364997  18.4379988
  55.0560012 108.6004997  18.4899988  54.6113308 107.9296900  18.1582393
  55.9800012 106.0984997   3.5579988  56.8300012 106.5194997   3.6849988
  55.9860012 105.3584997   4.1649988  56.0971372 106.0560803   3.6574344
  56.3750012 104.1514997   5.3819988  55.6480012 103.6724997   5.7789988
  56.9560012 104.3574997   6.1139988  56.3539375 104.1137090   5.5354129
  56.1340012 106.9364997  10.3289988  56.9670012 106.5584997  10.0489988
  56.2460012 107.8794997  10.2099988  56.2632647 107.0122218  10.2745487
  54.6200012 109.8144997  12.6359988  53.9730012 110.1394997  13.2619988
  54.1030012 109.3744997  11.9619988  54.4614029 109.7995004  12.6305827
  56.6430012 104.0524997   1.7729988  56.1210012 104.4094997   1.0539988
  56.6100012 104.7274997   2.4509988  56.5671634 104.1925413   1.7663145
  54.9920012 101.2924997   0.3239988  55.0880012 101.9594997  -0.3570012
  54.8520012 100.4764997  -0.1580012  54.9862135 101.2734500   0.1658491
  54.1610012 102.6724997   5.9449988  54.0110012 101.7274997   5.9239988
  53.8080012 102.9534997   6.7879988  54.0926625 102.5810441   6.0562346
  39.1970012 104.7504997   9.9549988  39.3810012 104.6684997   9.0189988
  40.0460012 104.6264997  10.3789988  39.3370139 104.7225003   9.8841455
  55.0180012 104.6424997  15.5829988  55.6010012 103.9084997  15.7749988
  55.5820012 105.4144997  15.6299988  55.1739769 104.6464227  15.6156159
  56.5140012 102.5454997  16.2679988  55.6510012 102.1664997  16.1019988
  57.1190012 101.8064997  16.1939988  56.4775979 102.3938023  16.2352817
  54.2390012  98.7004997  -0.5590012  54.8500012  98.3294997   0.0779988
  53.4030012  98.2794997  -0.3630012  54.2095032  98.5927554  -0.4452965
  53.8720012 100.2554997   4.4069988  54.1520012  99.3484997   4.5309988
  54.6310012 100.6894997   4.0179988  54.0129277 100.1900942   4.3713682
  54.4840012 100.8364997   9.8429988  55.4170012 101.0484997   9.8089988
  54.2490012 100.9384997  10.7649988  54.5798036 100.8792769   9.9629976
  54.5130012 101.5734997  12.6189988  53.6700012 101.8414997  12.9849988
  54.9550012 102.3954997  12.4079988  54.4574158 101.7213291  12.6405491
  38.7940012 100.0214997  16.0959988  39.7140012  99.8994997  16.3319988
  38.3450012  99.2714997  16.4849988  38.8591580  99.9033727  16.1809006
  56.7960012  95.5534997  17.9719988  57.1460012  94.8994997  17.3669988
  56.9430012  96.3904997  17.5329988  56.8638419  95.5771591  17.8297118
  54.4850012  97.5184997   4.4549988  54.6680012  97.0694997   5.2809988
  53.8860012  96.9334997   3.9919988  54.4290202  97.3779975   4.5053275
  40.0150012  98.3334997   8.9869988  40.4610012  97.5414997   9.2889988
  40.4820012  99.0494997   9.4179988  40.1390172  98.3220624   9.0864820
  38.3190012 101.3324997  10.0559988  38.8110012 101.1114997   9.2649988
  38.6820012 102.1734997  10.3369988  38.4353126 101.4158357   9.9857531
  56.3160012  97.6624997  16.3219988  55.3980012  97.9334997  16.2859988
  56.4390012  97.1274997  15.5369988  56.2071066  97.6272892  16.2110487
  56.3520012  97.5854997   0.9829988  56.7640012  96.8644997   0.5079988
  57.0340012  98.2554997   1.0419988  56.5005885  97.5772368   0.9258915
  38.6330012  97.5904997   4.1099988  37.7080012  97.7994997   3.9809988
  39.0870012  98.0744997   3.4209988  38.5677368  97.6845993   3.9991226
  53.4040012 112.5744997   6.0559988  54.0560012 112.2274997   5.4479988
  53.9140012 113.0634997   6.7019988  53.5622637 112.5930597   6.0600236
  38.5970012  96.3284997  12.4549988  37.9320012  96.0824997  13.0979988
  38.1540012  96.9504997  11.8769988  38.4460956  96.3788632  12.4649352
  40.7890012 109.5034997  16.5989988  39.9680012 109.6784997  16.1389988
  40.5360012 109.4304997  17.5199988  40.6426164 109.5175622  16.6604923
  43.7430012 110.4784997  12.8579988  43.3180012 111.2874997  12.5749988
  44.6470012 110.5634997  12.5559988  43.8070271 110.6008469  12.7783776
  48.0540012 111.8774997  15.8169988  48.2390012 111.5434997  16.6949988
  48.9000012 112.1864997  15.4949988  48.1937539 111.8736047  15.8935605
  50.3990012 113.1634997  15.0609988  51.0760012 112.5304997  14.8209988
  50.7210012 113.5644997  15.8679988  50.5351637 113.1311154  15.1372793
  55.3160012  95.7524997  14.1409988  54.5040012  96.0774997  13.7529988
  55.5490012  94.9924997  13.6079988  55.2363423  95.6942436  14.0158253
  41.1450012 113.7344997  12.9049988  40.4240012 114.1744997  12.4539988
  40.7790012 113.4834997  13.7539988  40.9969804 113.7607698  12.9579840
  43.6120012 113.3344997  11.9349988  42.7470012 113.4064997  12.3389988
  43.5570012 113.8814997  11.1509988  43.4862085 113.4182685  11.8843362
  48.3220012 113.2224997  11.1099988  47.8660012 113.7514997  10.4559988
  48.4850012 113.8254997  11.8359988  48.2815585 113.3764468  11.1185062
  50.6500012 112.1004997  12.0549988  49.7450012 112.2654997  11.7899988
  51.0790012 112.9534997  11.9899988  50.5840799 112.2384483  12.0099182
  53.2540012 113.6704997  12.3499988  53.0720012 114.5864997  12.1399988
  53.4310012 113.2604997  11.5039988  53.2530210 113.7404822  12.2067885
  40.5590012 112.3574997   9.8149988  40.5410012 111.9324997  10.6729988
  41.3640012 112.0394997   9.4069988  40.6653875 112.2563812   9.8771655
  42.7010012 111.0674997   8.4699988  42.4820012 110.1514997   8.6399988
  43.5250012 111.2074997   8.9359988  42.7824420 110.9610520   8.5562774
  45.2380012 111.5374997   9.3189988  45.4510012 110.6494997   9.0319988
  45.3020012 111.5034997  10.2729988  45.2758232 111.4113102   9.4087397
  48.7460012  97.2014997   8.4629988  48.0720012  96.5724997   8.7189988
  49.3100012  96.7174997   7.8599988  48.7299230  97.0498744   8.4165340
  53.8890012  95.3094997   8.5759988  54.4930012  95.8564997   8.0739988
  53.0190012  95.6284997   8.3359988  53.8541241  95.4275806   8.4747654
  55.6160012  96.4474997   6.9089988  56.2280012  95.9334997   6.3829988
  55.9980012  97.3254997   6.9329988  55.7514540  96.4957140   6.8401830
  41.0730012  95.8354997   6.2849988  40.2960012  95.6014997   5.7779988
  41.6030012  95.0384997   6.2939988  41.0382330  95.6956988   6.2167742
  39.9090012  95.6334997   2.0889988  40.3480012  96.2444997   1.4969988
  39.2760012  96.1714997   2.5629988  39.8834514  95.7899257   2.0720930
  45.6520012  95.7624997   6.0989988  46.5270012  96.1504997   6.0689988
  45.5160012  95.5474997   7.0209988  45.7533695  95.7865184   6.2196440
  51.2090012  95.7924997   7.7479988  51.2850012  95.8874997   6.7979988
  50.9340012  94.8844997   7.8769988  51.1822321  95.6827867   7.6355079
  52.5620012  95.8184997   3.4399988  51.8600012  96.4334997   3.2309988
  52.1180012  94.9804997   3.5709988  52.4056330  95.7895783   3.4290328
  39.8100012 111.5814997   2.9869988  39.1250012 111.5434997   2.3189988
  39.8140012 112.4944997   3.2749988  39.7168193 111.6997016   2.9345284
  41.7700012  97.5494997   0.5309988  42.2620012  96.9194997   0.0039988
  42.3940012  97.8454997   1.1949988  41.9215446  97.5033199   0.5485980
  46.7960012  97.8424997   2.9879988  46.9740012  97.1964997   3.6709988
  46.7430012  98.6764997   3.4559988  46.8131829  97.8667985   3.1445940
  48.6750012 112.7914997   1.3839988  49.5410012 113.1574997   1.2059988
  48.4280012 112.3514997   0.5699988  48.7602392 112.7821756   1.2496289
  55.3840012 112.3544997   4.0629988  55.1890012 111.6064997   3.4979988
  55.3450012 113.1124997   3.4799988  55.3520380 112.3546099   3.9068384
  41.0310012  96.3494997  15.8029988  40.6650012  95.5844997  16.2459988
  41.9440012  96.3784997  16.0899988  41.1042790  96.2487224  15.9024070
  43.0040012  95.7004997  17.3389988  43.9020012  95.4264997  17.1539988
  42.6170012  94.9574997  17.8029988  43.0746612  95.5625914  17.3763643
  41.6280012 112.5014997   0.0119988  41.3610012 112.7884997   0.8849988
  42.4000012 111.9554997   0.1639988  41.6957488 112.4670294   0.1521050
  51.4250012  95.0324997  17.5209988  51.5020012  94.6064997  18.3749988
  52.3190012  95.0464997  17.1779988  51.5563428  94.9760879  17.5915310
  54.6010012 111.1054997  16.2129988  53.8190012 110.9194997  15.6939988
  54.5290012 112.0344997  16.4309988  54.4841777 111.2056492  16.1714048
  69.0070012 104.9914997   6.2439988  69.0960012 105.9354997   6.1119988
  68.3690012 104.7164997   5.5859988  68.9329081 105.0834830   6.1369614
  67.9400012 104.2464997   9.6629988  67.9020012 103.6004997  10.3679988
  67.6180012 103.7804997   8.8919988  67.8912333 104.0949408   9.6552978
  60.3090012 103.8614997  11.2559988  60.3500012 103.2354997  11.9789988
  61.0120012 104.4854997  11.4379988  60.4096363 103.8601196  11.3796044
  71.6460012 107.1854997   7.9639988  71.2060012 106.4654997   8.4149988
  71.6330012 107.9064997   8.5939988  71.5840226 107.1843731   8.1108494
  61.2320012 108.3114997   9.7909988  60.8630012 107.5094997   9.4209988
  62.1730012 108.1424997   9.8369988  61.3087289 108.1790153   9.7466316
  57.8420012 101.9714997   5.1839988  57.3950012 102.8174997   5.1649988
  57.2810012 101.3914997   4.6679988  57.7049900 102.0089916   5.1116801
  58.5530012 104.1334997   7.3099988  58.7660012 103.3634997   7.8369988
  59.2910012 104.2224997   6.7059988  58.6818496 104.0401394   7.3005300
  68.7580012 112.2904997   8.1769988  69.3780012 111.6134997   7.9029988
  68.5500012 112.0724997   9.0849988  68.8146904 112.1683870   8.2623365
  66.3300012 106.6794997  10.0689988  66.6340012 105.9934997   9.4739988
  67.0510012 106.7974997  10.6869988  66.4690671 106.6016305  10.0711816
  74.9930012  98.2804997  10.9299988  75.0420012  98.8904997  11.6659988
  75.4180012  98.7414997  10.2069988  75.0571824  98.4263741  10.9330205
  69.4710012 101.0734997  10.3969988  69.6130012 100.1274997  10.4169988
  69.3640012 101.2804997   9.4679988  69.4759864 100.9719534  10.2742339
  62.6250012  99.1744997   7.6689988  62.6690012 100.0344997   7.2509988
  62.1680012  98.6224997   7.0349988  62.5692185  99.2175799   7.5260299
  70.3480012  99.3054997   6.0699988  70.9940012  98.9764997   6.6949988
  70.8580012  99.8234997   5.4469988  70.5054264  99.3304611   6.0713862
  59.2460012 101.5714997   8.4309988  59.8990012 101.0214997   8.8629988
  59.2700012 101.2974997   7.5139988  59.3386683 101.4591466   8.3662123
  64.4020012 103.1214997   7.6459988  65.0180012 102.5954997   8.1559988
  63.8160012 102.4814997   7.2429988  64.4070810 102.9629208   7.6613173
  75.3840012  99.7584997  13.1659988  74.6960012 100.4164997  13.0699988
  75.4000012  99.5614997  14.1019988  75.2918525  99.8220462  13.2794808
  61.4360012  98.0924997  11.7429988  61.2170012  98.6224997  10.9769988
  60.7680012  98.3194997  12.3899988  61.3157600  98.1956906  11.7256379
  68.8050012 107.5924997   5.2869988  68.5090012 107.2704997   4.4359988
  68.4800012 108.4924997   5.3279988  68.7206371 107.6700215   5.1761801
  64.0050012 105.7684997  12.0299988  63.2650012 106.3664997  12.1339988
  64.7190012 106.3224997  11.7149988  64.0002237 105.9252831  12.0016465
  72.1120012  98.5964997   8.0499988  71.8960012  97.8304997   8.5829988
  72.7670012  99.0684997   8.5629988  72.1710632  98.5555889   8.1922861
  61.0290012  99.9844997   9.6949988  61.6430012 100.6174997  10.0689988
  61.5410012  99.5124997   9.0389988  61.1822296 100.0072370   9.6574252
  62.4120012 107.7324997  12.8179988  62.4070012 108.6124997  12.4399988
  61.5590012 107.6494997  13.2429988  62.2959464 107.8416117  12.8237907
  58.5330012 107.4034997   3.5999988  58.2610012 107.6324997   2.7109988
  58.5790012 108.2414997   4.0599988  58.5020094 107.5481213   3.5405697
  72.1580012 109.0254997  10.3119988  71.2170012 109.0834997  10.4739988
  72.4350012 109.9314997  10.1749988  72.0664679 109.1559443  10.3156815
  72.4590012  97.3114997  11.7299988  71.7230012  97.9224997  11.6919988
  73.1420012  97.7264997  11.2029988  72.4506541  97.4511374  11.6535832
  65.4620012  95.3984997   9.1959988  65.3450012  94.4494997   9.1409988
  64.6070012  95.7304997   9.4689988  65.3303733  95.3135409   9.2253897
  70.4100012 110.8064997   6.9379988  70.8360012 110.0994997   6.4529988
  70.7270012 111.6074997   6.5209988  70.5111019 110.8180994   6.8153130
  71.5700012 108.7074997   5.4459988  71.3120012 108.0174997   4.8349988
  71.6410012 108.2644997   6.2919988  71.5442856 108.5532124   5.4766885
  73.2560012 107.2734997  13.9239988  73.3960012 106.6824997  13.1839988
  73.4230012 108.1464997  13.5669988  73.2976778 107.3106426  13.7746965
  67.7290012 104.2354997   3.6959988  67.0170012 104.7704997   3.3439988
  68.4200012 104.2914997   3.0359988  67.7250132 104.3162543   3.5586289
  67.7820012 102.6934997   0.7349988  68.4830012 102.7154997   1.3859988
  68.0850012 102.0654997   0.0789988  67.9187830 102.6116566   0.7353711
  75.0980012 103.6134997  11.9899988  74.4450012 104.3084997  12.0789988
  75.5630012 103.8234997  11.1799988  75.0715390 103.7369425  11.8926883
  71.1340012 104.4454997   4.6479988  70.4020012 104.6734997   5.2209988
  71.5820012 103.7314997   5.1029988  71.0943095 104.3802571   4.7879119
  71.0320012 102.6194997  13.7149988  71.1120012 103.3824997  14.2869988
  70.4300012 102.8984997  13.0249988  70.9615756 102.7617134  13.7000589
  62.7800012 105.0754997   6.5299988  62.4490012 104.7054997   5.7119988
  63.3680012 104.4054997   6.8769988  62.8141873 104.9341156   6.4648102
  64.1460012 108.5034997   9.2119988  64.0520012 107.9254997   8.4549988
  64.8760012 108.1324997   9.7079988  64.2317981 108.3742390   9.1754165
  63.1460012 103.8444997  10.1639988  63.7120012 103.9654997   9.4009988
  63.4650012 104.4814997  10.8029988  63.2665786 103.9471884  10.1460040
  69.4550012 109.3474997  10.8979988  69.2150012 110.0094997  11.5459988
  69.2570012 108.5134997  11.3229988  69.3953808 109.3253134  11.0441524
  64.0260012 108.2434997  14.8809988  63.7150012 109.0254997  15.3359988
  63.3760012 108.0904997  14.1949988  63.8955558 108.3299105  14.8505871
  70.0050012 103.6074997   2.3329988  70.5850012 103.7574997   3.0799988
  70.4190012 104.0784997   1.6099988  70.1402830 103.6916841   2.3374134
  60.9460012 104.4414997  14.1099988  61.0170012 105.0924997  14.8079988
  60.0560012 104.5444997  13.7749988  60.8353117 104.5445936  14.1602700
  67.7320012 110.3444997   5.7679988  68.2060012 110.6394997   6.5459988
  67.1690012 111.0824997   5.5349988  67.7207653 110.4846932   5.8430136
  62.2660012 110.3154997  15.6439988  62.2730012 110.1794997  14.6969988
  61.3500012 110.1974997  15.8959988  62.1431714 110.2809430  15.5484666
  73.7040012  95.3574997   2.1459988  72.8040012  95.4964997   2.4409988
  73.9560012  96.1884997   1.7439988  73.6148702  95.4889074   2.1320205
  61.7700012 104.1454997   4.1199988  61.4780012 104.9134997   3.6289988
  61.0960012 103.4854997   3.9569988  61.6389081 104.1614406   4.0307340
  74.8930012 109.7234997   0.5219988  74.9670012 110.6624997   0.6929988
  75.7990012 109.4184997   0.4659988  75.0255100 109.8106722   0.5378119
  57.8630012 106.5084997  12.9349988  57.3620012 106.4804997  12.1199988
  57.8680012 105.6024997  13.2439988  57.7951526 106.3822278  12.8652872
  57.6130012 109.2884997   9.8189988  58.5590012 109.1444997   9.7999988
  57.5010012 110.0724997  10.3559988  57.7272727 109.3748046   9.8890072
  75.8110012 109.9544997  15.5009988  75.7620012 108.9994997  15.4639988
  74.9840012 110.2224997  15.9019988  75.6924940 109.8598998  15.5501375
  66.7900012 109.5284997  14.3769988  66.8770012 110.3544997  14.8519988
  65.9260012 109.1984997  14.6259988  66.6851964 109.5969878  14.4756549
  67.2040012 113.3004997   4.1829988  67.1290012 113.1794997   3.2369988
  67.2370012 114.2504997   4.3019988  67.1981848 113.4122500   4.0694834
  60.8570012 112.0894997   5.9639988  61.0100012 111.7414997   6.8429988
  60.0070012 111.7334997   5.7089988  60.7628962 111.9936650   6.0498340
  70.3060012 112.4544997   1.1849988  70.6810012 111.7104997   0.7149988
  70.3100012 112.1844997   2.1039988  70.3578915 112.3161486   1.2447824
  69.9750012 112.3804997   3.9349988  69.0390012 112.4804997   4.1129988
  70.2550012 111.6714997   4.5129988  69.8848255 112.2982711   4.0375391
  72.9630012 101.4474997  15.9809988  72.5560012 101.9284997  15.2599988
  73.0040012 100.5424997  15.6729988  72.9128437 101.3909374  15.8406683
  60.1120012 107.8314997  13.9779988  60.3280012 107.4704997  14.8369988
  59.2570012 107.4574997  13.7679988  60.0259292 107.7314111  14.0673386
  62.7310012  96.3014997   9.9729988  61.8690012  96.2144997   9.5659988
  62.7080012  97.1574997  10.4009988  62.6100330  96.4052765   9.9751863
  67.3940012  96.0234997  13.3479988  67.8140012  95.6084997  14.1009988
  66.4610012  95.8454997  13.4649988  67.3253644  95.9425900  13.4669539
  70.7200012  99.7794997  14.2009988  70.2060012  99.6534997  14.9989988
  70.5650012 100.6914997  13.9569988  70.6286852  99.8856132  14.2772158
  71.4830012 104.6404997  -0.0370012  71.5250012 104.4174997  -0.9670012
  72.3320012 105.0394997   0.1529988  71.6035396 104.6639155  -0.1386373
  67.0550012  98.5164997   0.6329988  66.8020012  98.5354997   1.5559988
  66.7990012  97.6444997   0.3319988  66.9857790  98.4012437   0.7186263
  62.8220012 101.2674997  11.0679988  62.1800012 101.2264997  11.7769988
  62.8590012 102.1934997  10.8309988  62.7391324 101.3871559  11.1329824
  62.8190012 101.4884997   5.9799988  61.9260012 101.1474997   5.9219988
  63.2690012 101.1114997   5.2249988  62.7577305 101.3908484   5.8699177
  68.3540012 101.9044997   4.7969988  67.9450012 102.7194997   4.5059988
  69.0750012 101.7644997   4.1829988  68.3954537 101.9972018   4.6741342
  67.4560012 102.0794997  16.2849988  66.8940012 101.3754997  16.6059988
  68.2830012 101.9594997  16.7529988  67.4907095 101.9667883  16.3922330
  69.3590012 101.3504997   7.6109988  69.1640012 101.9554997   6.8959988
  69.5400012 100.5164997   7.1769988  69.3567614 101.3206300   7.4544405
  60.5720012 101.5874997  12.9349988  60.5340012 101.9874997  13.8039988
  60.0810012 100.7704997  13.0259988  60.5004684 101.5318069  13.0661059
  63.9380012  98.9614997  -0.2660012  63.5070012  98.5164997   0.4639988
  63.2200012  99.3334997  -0.7780012  63.7819438  98.9508940  -0.2353201
  57.1800012  98.7034997   6.7859988  57.8110012  98.6744997   7.5049988
  57.6290012  98.2784997   6.0559988  57.3270774  98.6420492   6.7856553
  58.4540012  99.4494997   2.2099988  58.9280012 100.0404997   1.6249988
  57.7370012  99.9804997   2.5569988  58.4219341  99.6020867   2.1768836
  68.6230012 102.9884997  12.2829988  68.9460012 102.3574997  11.6399988
  68.1830012 102.4534997  12.9429988  68.6076895 102.8298441  12.2842850
  65.4000012  98.9154997   7.0669988  64.4890012  98.9724997   7.3549988
  65.9060012  98.8554997   7.8769988  65.3435413  98.9151985   7.2160622
  60.2290012 100.5444997   5.8929988  59.3390012 100.6444997   5.5529988
  60.5250012  99.7024997   5.5469988  60.1472823 100.4443545   5.7997213
  63.8820012 100.5444997   3.5499988  64.8130012 100.6734997   3.7279988
  63.6670012 101.2144997   2.8999988  63.9804247 100.6526565   3.4865747
  69.8050012  98.1504997  10.3309988  69.1290012  98.2814997  10.9949988
  69.3200012  97.9954997   9.5209988  69.6467145  98.1474905  10.3124517
  62.5560012 101.7394997   1.1169988  62.0130012 101.3594997   0.4249988
  63.3890012 101.9334997   0.6879988  62.5944399 101.7138124   0.9644526
  73.0930012 113.8224997  16.6079988  73.2930012 114.2464997  15.7729988
  73.7480012 114.1654997  17.2149988  73.2090051 113.9269648  16.5757836
  60.6910012 106.2964997  16.2159988  61.4230012 106.5504997  16.7769988
  59.9110012 106.5004997  16.7309988  60.6858232 106.3589177  16.3625760
  66.7200012 101.7034997   8.9539988  67.2850012 101.1564997   8.4069988
  66.5730012 101.1814997   9.7419988  66.7772918 101.5582024   8.9858454
  61.7220012  97.8394997   5.3719988  61.4050012  96.9374997   5.3369988
  62.5040012  97.8414997   4.8189988  61.7842284  97.7161628   5.2924783
  65.3470012 100.0914997  11.3679988  64.5110012 100.5454997  11.4779988
  65.8710012 100.3674997  12.1199988  65.3034414 100.1909376  11.4847136
  65.8910012 106.3044997   3.0519988  65.1460012 105.7974997   2.7299988
  65.7570012 106.3534997   3.9989988  65.7708776 106.2416940   3.1358647
  73.0410012 105.4374997  11.8389988  73.6830012 105.8944997  11.2949988
  72.2110012 105.5504997  11.3759988  73.0165963 105.5152704  11.7020177
  69.7890012  99.1184997   1.2519988  68.8500012  99.2304997   1.0999988
  70.0860012  99.9754997   1.5579988  69.7007666  99.2496443   1.2725768
  67.4100012 106.4884997  14.2889988  67.0650012 106.1074997  15.0959988
  67.2100012 107.4224997  14.3609988  67.3358061 106.5625228  14.4090961
  70.5070012 100.9854997   2.9119988  71.3990012 100.8484997   3.2309988
  70.5640012 101.7764997   2.3759988  70.6366285 101.0736660   2.8831691
  61.0160012 105.5994997   8.8219988  61.7610012 105.5974997   8.2209988
  61.0940012 104.7764997   9.3039988  61.1285518 105.4879315   8.8048929
  68.0170012 107.7634997   2.0779988  67.7210012 108.5894997   2.4589988
  67.3140012 107.1434997   2.2739988  67.8814914 107.7928199   2.1566443
  58.0240012 104.0604997  14.1369988  58.2470012 103.6424997  14.9689988
  57.4220012 103.4474997  13.7139988  57.9731759 103.9204668  14.1937022
  65.0400012 103.5774997  16.3499988  64.7440012 103.4114997  15.4549988
  65.9720012 103.3574997  16.3389988  65.1254166 103.5250640  16.2260536
  69.6610012 108.9504997  14.2399988  68.7600012 109.1334997  13.9719988
  69.6950012 109.2094997  15.1609988  69.5423041 109.0105512  14.3278197
  75.3920012 101.1954997   2.6069988  74.8380012 100.7994997   1.9349988
  75.4920012 102.1054997   2.3289988  75.3297059 101.2643586   2.4774401
  75.3550012 106.9954997  15.4439988  74.5040012 107.2334997  15.0769988
  75.9460012 106.9784997  14.6909988  75.3182487 107.0258258  15.2918893
  73.6870012 109.9814997   3.0719988  73.3140012 109.1554997   3.3809988
  73.9650012 109.7984997   2.1749988  73.6735630 109.8437303   2.9929626
  70.8480012 104.7894997  10.0929988  69.9190012 104.5574997  10.0659988
  71.2990012 104.0124997   9.7629988  70.7819216 104.6527238  10.0446917
  63.3910012 109.1174997   6.2259988  63.9180012 109.8904997   6.0259988
  62.5110012 109.3424997   5.9249988  63.3441773 109.2538005   6.1579010
  59.1460012 103.9794997   0.8129988  59.7620012 104.6064997   1.1929988
  58.2840012 104.2954997   1.0849988  59.1137698 104.1079430   0.9017183
  64.8180012 106.7804997   5.8029988  64.5770012 107.7054997   5.8439988
  64.0770012 106.3214997   6.1989988  64.6848409 106.8451421   5.8621377
  65.3330012 110.9294997  12.1179988  65.6950012 111.7844997  11.8839988
  65.8640012 110.6374997  12.8579988  65.4544473 111.0071060  12.1860855
  63.5010012 111.8024997   5.3479988  62.5510012 111.9074997   5.3989988
  63.8530012 112.6224997   5.6929988  63.4184203 111.9278314   5.4016650
  68.8770012 107.0284997  11.8179988  68.4510012 106.8014997  12.6449988
  69.4570012 106.2904997  11.6359988  68.8971868 106.8975299  11.9065830
  71.0800012 107.9574997   0.8919988  71.4330012 107.5774997   1.6969988
  70.1310012 107.8644997   0.9789988  71.0000441 107.8929596   1.0138559
  71.5350012 111.5804997  14.2879988  70.9340012 111.0254997  13.7919988
  71.8170012 112.2474997  13.6619988  71.4908519 111.5946841  14.1354952
  75.5830012 112.4374997   1.0929988  76.3270012 113.0234997   0.9529988
  74.8890012 113.0054997   1.4269988  75.5910292 112.5945582   1.1189961
  59.6580012  98.8134997  13.6949988  58.7650012  99.1524997  13.6269988
  59.5590012  97.9584997  14.1129988  59.5224164  98.7442588  13.7422235
  71.9460012 106.6304997   3.1189988  71.6680012 105.9024997   3.6749988
  72.8730012 106.7494997   3.3239988  72.0333124 106.5468802   3.2228845
  59.3090012 110.6184997  12.1299988  59.5260012 109.6864997  12.0989988
  59.5550012 110.8924997  13.0129988  59.3719549 110.5280636  12.2451763
  65.1710012 109.0694997  -0.6610012  65.4100012 108.3214997  -1.2080012
  64.9020012 108.6814997   0.1719988  65.1673675 108.9146638  -0.6233135
  64.1080012 108.6394997   1.7959988  64.2540012 108.1194997   2.5859988
  64.1050012 109.5464997   2.1019988  64.1275989 108.6908853   1.9456088
  60.5610012 105.8924997   2.3059988  59.8750012 106.2444997   2.8729988
  61.0830012 106.6554997   2.0589988  60.5376852 106.0438578   2.3502118
  68.3920012  98.5544997  12.5849988  69.0910012  98.6284997  13.2349988
  68.0110012  97.6904997  12.7389988  68.4361767  98.4477624  12.6948322
  69.1770012  98.2064997   3.6819988  69.3970012  98.6784997   2.8789988
  69.7350012  98.6014997   4.3519988  69.2824968  98.3244285   3.6627331
  66.8450012 110.3374997   2.5449988  66.0290012 110.8344997   2.5969988
  67.3750012 110.8124997   1.9049988  66.8049161 110.4697722   2.4655956
  66.3770012  99.9344997   4.5169988  67.1890012 100.4394997   4.5629988
  66.1320012  99.7894997   5.4309988  66.4550520  99.9840375   4.6468517
  66.9120012 100.9204997  13.7019988  67.0310012 101.4944997  14.4589988
  67.5680012 100.2324997  13.8159988  67.0169757 100.9061079  13.8210825
  67.2600012  97.0154997   5.4549988  66.9140012  97.6334997   6.0999988
  67.9190012  97.5164997   4.9739988  67.3017826  97.1675802   5.4780971
  64.1840012 111.3814997   2.5269988  64.3440012 112.1804997   2.0259988
  63.9860012 111.6874997   3.4119988  64.1791649 111.5324469   2.5779815
  62.9180012  98.0784997   2.1419988  62.8350012  98.9674997   2.4889988
  63.8080012  97.8134997   2.3739988  63.0269469  98.1641430   2.2207626
  73.1170012  98.8274997  14.5369988  72.2000012  99.0904997  14.4489988
  73.4520012  98.8244997  13.6399988  73.0369900  98.8630224  14.4037919
  71.7190012 102.5784997   8.6319988  70.9210012 102.1634997   8.3039988
  72.1640012 101.8874997   9.1229988  71.6699885 102.4283543   8.6534889
  61.1770012 108.5064997   1.2029988  61.7690012 109.2054997   1.4789988
  61.6360012 108.0734997   0.4829988  61.3201142 108.5437049   1.1434830
  59.4930012 101.1704997   0.3189988  59.4480012 102.1094997   0.4969988
  58.6050012 100.9344997   0.0489988  59.3668574 101.2671892   0.3068912
  72.8050012 111.8344997  10.2549988  72.6500012 112.5124997   9.5979988
  73.7380012 111.9064997  10.4579988  72.9098500 111.9370170  10.1925119
  60.3010012  95.9524997   8.9919988  60.0720012  96.0114997   8.0639988
  59.8580012  95.1604997   9.2979988  60.2098530  95.8535753   8.9064786
  59.2310012 109.8924997   5.1519988  58.3990012 110.3654997   5.1799988
  59.7770012 110.4024997   4.5539988  59.1909739 110.0261871   5.0749716
  58.5190012 112.5054997  16.4819988  59.0600012 112.2884997  17.2419988
  58.0380012 111.6994997  16.2929988  58.5279345 112.3669514  16.5603076
  63.1170012 111.4244997  18.1029988  63.8840012 110.9654997  18.4439988
  63.0950012 111.1984997  17.1729988  63.2191434 111.3310409  18.0240043
  67.2090012 110.9324997  -0.5220012  66.5650012 110.3014997  -0.2010012
  67.9710012 110.4014997  -0.7540012  67.2238077 110.7742920  -0.5093989
  69.6940012 109.8044997  16.8319988  69.3430012 108.9484997  17.0749988
  70.4200012 109.9474997  17.4389988  69.7440769 109.7065636  16.9473619
  71.8130012 110.7494997  -0.2880012  72.0960012 109.9554997   0.1639988
  72.5530012 110.9824997  -0.8490012  71.9517486 110.6722803  -0.3019302
  58.4260012 106.3154997  17.4369988  58.5700012 105.4134997  17.1499988
  57.6540012 106.6014997  16.9489988  58.3413322 106.2308261  17.3317881
  62.7680012 106.6594997  -0.4310012  62.8320012 105.8654997   0.0999988
  63.4210012 106.5404997  -1.1210012  62.8650241 106.5347148  -0.4515683
  65.0820012 106.2854997  16.8689988  64.7530012 106.5564997  16.0119988
  65.2340012 105.3444997  16.7819988  65.0574809 106.1953862  16.7398244
  68.1200012 107.7064997  -0.6950012  67.8510012 107.8864997   0.2059988
  67.9140012 106.7804997  -0.8260012  68.0553825 107.6060152  -0.5894786
  70.8160012 106.2014997  14.2529988  71.5620012 106.7894997  14.1329988
  70.0590012 106.7834997  14.3159988  70.8157554 106.3607011  14.2450907
  59.2590012 103.5154997  16.8569988  59.6670012 102.6584997  16.7359988
  58.9990012 103.5304997  17.7779988  59.2797568 103.4000807  16.9649588
  63.9170012 104.6314997   1.8749988  63.4570012 104.1474997   2.5609988
  64.1720012 103.9634997   1.2389988  63.8884902 104.4748731   1.8829334
  63.2060012 102.5244997  14.2309988  62.5880012 103.1994997  14.5109988
  63.5500012 102.8454997  13.3979988  63.1679615 102.6602721  14.1566581
  64.9880012 102.8744997   0.1369988  64.8080012 102.7204997  -0.7900012
  65.9380012 102.9824997   0.1819988  65.0917776 102.8680175   0.0161843
  68.2260012 104.9964997  17.5079988  69.1790012 105.0794997  17.4809988
  68.0650012 104.2844997  18.1279988  68.3346426 104.9116746  17.5880579
  74.3780012 105.2294997  -0.4170012  74.1040012 104.8044997  -1.2300012
  74.4170012 106.1604997  -0.6340012  74.3457699 105.2972484  -0.5576390
  63.5450012  99.8794997  15.3129988  63.6950012  99.1504997  14.7109988
  63.5480012 100.6564997  14.7539988  63.5659302  99.8847851  15.1550692
  63.9580012  98.2494997  12.8059988  64.4940012  98.7004997  12.1539988
  63.1060012  98.1414997  12.3829988  63.9162178  98.2966390  12.6595756
  65.5400012 103.6884997  13.0449988  66.2900012 103.5324997  12.4719988
  65.2010012 104.5404997  12.7699988  65.5968921 103.7822968  12.9293561
  69.9550012 101.5034997  18.0739988  70.1480012 100.5724997  17.9619988
  70.8130012 101.9284997  18.0639988  70.0973020 101.4336389  18.0573361
  71.2720012 104.2924997  16.1509988  70.9910012 105.0014997  15.5739988
  72.2150012 104.2194997  15.9999988  71.3609027 104.3797646  16.0515551
  62.0240012 101.0774997  17.2249988  61.2570012 100.5454997  17.0149988
  62.7030012 100.7674997  16.6249988  62.0107022 100.9627506  17.1151648
  64.7640012  95.7054997  13.2369988  64.6650012  96.6524997  13.1319988
  64.0210012  95.3334997  12.7619988  64.6500563  95.7845902  13.1584560
  66.0280012 100.0274997  16.8009988  65.7920012  99.8074997  17.7029988
  65.2440012  99.8204997  16.2909988  65.8898628  99.9694760  16.8553932
  68.7430012  99.1544997  15.8769988  67.7960012  99.1864997  16.0089988
  69.0560012  98.5294997  16.5299988  68.6555475  99.0743207  15.9834455
  70.3770012  97.7884997  17.8819988  70.2810012  96.8364997  17.8759988
  70.0560012  98.0574997  18.7419988  70.3204070  97.6944035  17.9975441
  60.2040012  98.9984997  16.9289988  60.4160012  98.2914997  16.3189988
  60.0930012  98.5604997  17.7729988  60.2179721  98.8427084  16.9596843
  64.9850012  94.9994997  15.9089988  65.6970012  94.3594997  15.8949988
  64.8840012  95.2664997  14.9949988  65.0687939  94.9479938  15.7835650
  65.3390012  96.6824997  17.9619988  65.2070012  96.2064997  17.1419988
  64.7400012  97.4264997  17.9069988  65.2399071  96.7179618  17.8422886
  64.8850012 113.5654997   1.1389988  65.8180012 113.7234997   1.2819988
  64.6210012 114.2404997   0.5139988  64.9769510 113.6783611   1.0740741
  58.4540012 108.2014997   0.6209988  59.3680012 108.2804997   0.8949988
  58.4610012 107.5144997  -0.0450012  58.5801131 108.1193961   0.5684393
  57.1030012 113.5944997   5.6989988  56.4560012 113.1324997   5.1659988
  57.4570012 112.9224997   6.2809988  57.0623849 113.4404723   5.7047959
  57.9730012 111.6754997   7.5029988  57.6380012 110.7954997   7.6749988
  58.1950012 112.0204997   8.3679988  57.9571783 111.6017500   7.6434208
  75.5210012 112.4844997  10.4839988  75.5000012 112.6694997  11.4229988
  76.2120012 113.0534997  10.1429988  75.6114618 112.5866606  10.5663864
  75.0850012 112.0524997  13.4059988  74.5970012 111.3164997  13.0349988
  75.6340012 111.6584997  14.0839988  75.0924872 111.8986249  13.4469160
  73.5350012 107.8414997  18.0439988  72.6690012 107.7364997  18.4379988
  73.9120012 108.6004997  18.4899988  73.4673308 107.9296900  18.1582393
  74.8360012 106.0984997   3.5579988  75.6860012 106.5194997   3.6849988
  74.8420012 105.3584997   4.1649988  74.9531372 106.0560803   3.6574344
  75.2310012 104.1514997   5.3819988  74.5040012 103.6724997   5.7789988
  75.8120012 104.3574997   6.1139988  75.2099375 104.1137090   5.5354129
  74.9900012 106.9364997  10.3289988  75.8230012 106.5584997  10.0489988
  75.1020012 107.8794997  10.2099988  75.1192647 107.0122218  10.2745487
  73.4760012 109.8144997  12.6359988  72.8290012 110.1394997  13.2619988
  72.9590012 109.3744997  11.9619988  73.3174029 109.7995004  12.6305827
  75.4990012 104.0524997   1.7729988  74.9770012 104.4094997   1.0539988
  75.4660012 104.7274997   2.4509988  75.4231634 104.1925413   1.7663145
  73.8480012 101.2924997   0.3239988  73.9440012 101.9594997  -0.3570012
  73.7080012 100.4764997  -0.1580012  73.8422135 101.2734500   0.1658491
  73.0170012 102.6724997   5.9449988  72.8670012 101.7274997   5.9239988
  72.6640012 102.9534997   6.7879988  72.9486625 102.5810441   6.0562346
  58.0530012 104.7504997   9.9549988  58.2370012 104.6684997   9.0189988
  58.9020012 104.6264997  10.3789988  58.1930139 104.7225003   9.8841455
  73.8740012 104.6424997  15.5829988  74.4570012 103.9084997  15.7749988
  74.4380012 105.4144997  15.6299988  74.0299769 104.6464227  15.6156159
  75.3700012 102.5454997  16.2679988  74.5070012 102.1664997  16.1019988
  75.9750012 101.8064997  16.1939988  75.3335979 102.3938023  16.2352817
  73.0950012  98.7004997  -0.5590012  73.7060012  98.3294997   0.0779988
  72.2590012  98.2794997  -0.3630012  73.0655032  98.5927554  -0.4452965
  72.7280012 100.2554997   4.4069988  73.0080012  99.3484997   4.5309988
  73.4870012 100.6894997   4.0179988  72.8689277 100.1900942   4.3713682
  73.3400012 100.8364997   9.8429988  74.2730012 101.0484997   9.8089988
  73.1050012 100.9384997  10.7649988  73.4358036 100.8792769   9.9629976
  73.3690012 101.5734997  12.6189988  72.5260012 101.8414997  12.9849988
  73.8110012 102.3954997  12.4079988  73.3134158 101.7213291  12.6405491
  57.6500012 100.0214997  16.0959988  58.5700012  99.8994997  16.3319988
  57.2010012  99.2714997  16.4849988  57.7151580  99.9033727  16.1809006
  75.6520012  95.5534997  17.9719988  76.0020012  94.8994997  17.3669988
  75.7990012  96.3904997  17.5329988  75.7198419  95.5771591  17.8297118
  73.3410012  97.5184997   4.4549988  73.5240012  97.0694997   5.2809988
  72.7420012  96.9334997   3.9919988  73.2850202  97.3779975   4.5053275
  58.8710012  98.3334997   8.9869988  59.3170012  97.5414997   9.2889988
  59.3380012  99.0494997   9.4179988  58.9950172  98.3220624   9.0864820
  57.1750012 101.3324997  10.0559988  57.6670012 101.1114997   9.2649988
  57.5380012 102.1734997  10.3369988  57.2913126 101.4158357   9.9857531
  75.1720012  97.6624997  16.3219988  74.2540012  97.9334997  16.2859988
  75.2950012  97.1274997  15.5369988  75.0631066  97.6272892  16.2110487
  75.2080012  97.5854997   0.9829988  75.6200012  96.8644997   0.5079988
  75.8900012  98.2554997   1.0419988  75.3565885  97.5772368   0.9258915
  57.4890012  97.5904997   4.1099988  56.5640012  97.7994997   3.9809988
  57.9430012  98.0744997   3.4209988  57.4237368  97.6845993   3.9991226
  72.2600012 112.5744997   6.0559988  72.9120012 112.2274997   5.4479988
  72.7700012 113.0634997   6.7019988  72.4182637 112.5930597   6.0600236
  57.4530012  96.3284997  12.4549988  56.7880012  96.0824997  13.0979988
  57.0100012  96.9504997  11.8769988  57.3020956  96.3788632  12.4649352
  59.6450012 109.5034997  16.5989988  58.8240012 109.6784997  16.1389988
  59.3920012 109.4304997  17.5199988  59.4986164 109.5175622  16.6604923
  62.5990012 110.4784997  12.8579988  62.1740012 111.2874997  12.5749988
  63.5030012 110.5634997  12.5559988  62.6630271 110.6008469  12.7783776
  66.9100012 111.8774997  15.8169988  67.0950012 111.5434997  16.6949988
  67.7560012 112.1864997  15.4949988  67.0497539 111.8736047  15.8935605
  69.2550012 113.1634997  15.0609988  69.9320012 112.5304997  14.8209988
  69.5770012 113.5644997  15.8679988  69.3911637 113.1311154  15.1372793
  74.1720012  95.7524997  14.1409988  73.3600012  96.0774997  13.7529988
  74.4050012  94.9924997  13.6079988  74.0923423  95.6942436  14.0158253
  60.0010012 113.7344997  12.9049988  59.2800012 114.1744997  12.4539988
  59.6350012 113.4834997  13.7539988  59.8529804 113.7607698  12.9579840
  62.4680012 113.3344997  11.9349988  61.6030012 113.4064997  12.3389988
  62.4130012 113.8814997  11.1509988  62.3422085 113.4182685  11.8843362
  67.1780012 113.2224997  11.1099988  66.7220012 113.7514997  10.4559988
  67.3410012 113.8254997  11.8359988  67.1375585 113.3764468  11.1185062
  69.5060012 112.1004997  12.0549988  68.6010012 112.2654997  11.7899988
  69.9350012 112.9534997  11.9899988  69.4400799 112.2384483  12.0099182
  72.1100012 113.6704997  12.3499988  71.9280012 114.5864997  12.1399988
  72.2870012 113.2604997  11.5039988  72.1090210 113.7404822  12.2067885
  59.4150012 112.3574997   9.8149988  59.3970012 111.9324997  10.6729988
  60.2200012 112.0394997   9.4069988  59.5213875 112.2563812   9.8771655
  61.5570012 111.0674997   8.4699988  61.3380012 110.1514997   8.6399988
  62.3810012 111.2074997   8.9359988  61.6384420 110.9610520   8.5562774
  64.0940012 111.5374997   9.3189988  64.3070012 110.6494997   9.0319988
  64.1580012 111.5034997  10.2729988  64.1318232 111.4113102   9.4087397
  67.6020012  97.2014997   8.4629988  66.9280012  96.5724997   8.7189988
  68.1660012  96.7174997   7.8599988  67.5859230  97.0498744   8.4165340
  72.7450012  95.3094997   8.5759988  73.3490012  95.8564997   8.0739988
  71.8750012  95.6284997   8.3359988  72.7101241  95.4275806   8.4747654
  74.4720012  96.4474997   6.9089988  75.0840012  95.9334997   6.3829988
  74.8540012  97.3254997   6.9329988  74.6074540  96.4957140   6.8401830
  59.9290012  95.8354997   6.2849988  59.1520012  95.6014997   5.7779988
  60.4590012  95.0384997   6.2939988  59.8942330  95.6956988   6.2167742
  58.7650012  95.6334997   2.0889988  59.2040012  96.2444997   1.4969988
  58.1320012  96.1714997   2.5629988  58.7394514  95.7899257   2.0720930
  64.5080012  95.7624997   6.0989988  65.3830012  96.1504997   6.0689988
  64.3720012  95.5474997   7.0209988  64.6093695  95.7865184   6.2196440
  70.0650012  95.7924997   7.7479988  70.1410012  95.8874997   6.7979988
  69.7900012  94.8844997   7.8769988  70.0382321  95.6827867   7.6355079
  71.4180012  95.8184997   3.4399988  70.7160012  96.4334997   3.2309988
  70.9740012  94.9804997   3.5709988  71.2616330  95.7895783   3.4290328
  58.6660012 111.5814997   2.9869988  57.9810012 111.5434997   2.3189988
  58.6700012 112.4944997   3.2749988  58.5728193 111.6997016   2.9345284
  60.6260012  97.5494997   0.5309988  61.1180012  96.9194997   0.0039988
  61.2500012  97.8454997   1.1949988  60.7775446  97.5033199   0.5485980
  65.6520012  97.8424997   2.9879988  65.8300012  97.1964997   3.6709988
  65.5990012  98.6764997   3.4559988  65.6691829  97.8667985   3.1445940
  67.5310012 112.7914997   1.3839988  68.3970012 113.1574997   1.2059988
  67.2840012 112.3514997   0.5699988  67.6162392 112.7821756   1.2496289
  74.2400012 112.3544997   4.0629988  74.0450012 111.6064997   3.4979988
  74.2010012 113.1124997   3.4799988  74.2080380 112.3546099   3.9068384
  59.8870012  96.3494997  15.8029988  59.5210012  95.5844997  16.2459988
  60.8000012  96.3784997  16.0899988  59.9602790  96.2487224  15.9024070
  61.8600012  95.7004997  17.3389988  62.7580012  95.4264997  17.1539988
  61.4730012  94.9574997  17.8029988  61.9306612  95.5625914  17.3763643
  60.4840012 112.5014997   0.0119988  60.2170012 112.7884997   0.8849988
  61.2560012 111.9554997   0.1639988  60.5517488 112.4670294   0.1521050
  70.2810012  95.0324997  17.5209988  70.3580012  94.6064997  18.3749988
  71.1750012  95.0464997  17.1779988  70.4123428  94.9760879  17.5915310
  73.4570012 111.1054997  16.2129988  72.6750012 110.9194997  15.6939988
  73.3850012 112.0344997  16.4309988  73.3401777 111.2056492  16.1714048
  87.8630012 104.9914997   6.2439988  87.9520012 105.9354997   6.1119988
  87.2250012 104.7164997   5.5859988  87.7889081 105.0834830   6.1369614
  86.7960012 104.2464997   9.6629988  86.7580012 103.6004997  10.3679988
  86.4740012 103.7804997   8.8919988  86.7472333 104.0949408   9.6552978
  79.1650012 103.8614997  11.2559988  79.2060012 103.2354997  11.9789988
  79.8680012 104.4854997  11.4379988  79.2656363 103.8601196  11.3796044
  90.5020012 107.1854997   7.9639988  90.0620012 106.4654997   8.4149988
  90.4890012 107.9064997   8.5939988  90.4400226 107.1843731   8.1108494
  80.0880012 108.3114997   9.7909988  79.7190012 107.5094997   9.4209988
  81.0290012 108.1424997   9.8369988  80.1647289 108.1790153   9.7466316
  76.6980012 101.9714997   5.1839988  76.2510012 102.8174997   5.1649988
  76.1370012 101.3914997   4.6679988  76.5609900 102.0089916   5.1116801
  77.4090012 104.1334997   7.3099988  77.6220012 103.3634997   7.8369988
  78.1470012 104.2224997   6.7059988  77.5378496 104.0401394   7.3005300
  87.6140012 112.2904997   8.1769988  88.2340012 111.6134997   7.9029988
  87.4060012 112.0724997   9.0849988  87.6706904 112.1683870   8.2623365
  85.1860012 106.6794997  10.0689988  85.4900012 105.9934997   9.4739988
  85.9070012 106.7974997  10.6869988  85.3250671 106.6016305  10.0711816
  93.8490012  98.2804997  10.9299988  93.8980012  98.8904997  11.6659988
  94.2740012  98.7414997  10.2069988  93.9131824  98.4263741  10.9330205
  88.3270012 101.0734997  10.3969988  88.4690012 100.1274997  10.4169988
  88.2200012 101.2804997   9.4679988  88.3319864 100.9719534  10.2742339
  81.4810012  99.1744997   7.6689988  81.5250012 100.0344997   7.2509988
  81.0240012  98.6224997   7.0349988  81.4252185  99.2175799   7.5260299
  89.2040012  99.3054997   6.0699988  89.8500012  98.9764997   6.6949988
  89.7140012  99.8234997   5.4469988  89.3614264  99.3304611   6.0713862
  78.1020012 101.5714997   8.4309988  78.7550012 101.0214997   8.8629988
  78.1260012 101.2974997   7.5139988  78.1946683 101.4591466   8.3662123
  83.2580012 103.1214997   7.6459988  83.8740012 102.5954997   8.1559988
  82.6720012 102.4814997   7.2429988  83.2630810 102.9629208   7.6613173
  94.2400012  99.7584997  13.1659988  93.5520012 100.4164997  13.0699988
  94.2560012  99.5614997  14.1019988  94.1478525  99.8220462  13.2794808
  80.2920012  98.0924997  11.7429988  80.0730012  98.6224997  10.9769988
  79.6240012  98.3194997  12.3899988  80.1717600  98.1956906  11.7256379
  87.6610012 107.5924997   5.2869988  87.3650012 107.2704997   4.4359988
  87.3360012 108.4924997   5.3279988  87.5766371 107.6700215   5.1761801
  82.8610012 105.7684997  12.0299988  82.1210012 106.3664997  12.1339988
  83.5750012 106.3224997  11.7149988  82.8562237 105.9252831  12.0016465
  90.9680012  98.5964997   8.0499988  90.7520012  97.8304997   8.5829988
  91.6230012  99.0684997   8.5629988  91.0270632  98.5555889   8.1922861
  79.8850012  99.9844997   9.6949988  80.4990012 100.6174997  10.0689988
  80.3970012  99.5124997   9.0389988  80.0382296 100.0072370   9.6574252
  81.2680012 107.7324997  12.8179988  81.2630012 108.6124997  12.4399988
  80.4150012 107.6494997  13.2429988  81.1519464 107.8416117  12.8237907
  77.3890012 107.4034997   3.5999988  77.1170012 107.6324997   2.7109988
  77.4350012 108.2414997   4.0599988  77.3580094 107.5481213   3.5405697
  91.0140012 109.0254997  10.3119988  90.0730012 109.0834997  10.4739988
  91.2910012 109.9314997  10.1749988  90.9224679 109.1559443  10.3156815
  91.3150012  97.3114997  11.7299988  90.5790012  97.9224997  11.6919988
  91.9980012  97.7264997  11.2029988  91.3066541  97.4511374  11.6535832
  84.3180012  95.3984997   9.1959988  84.2010012  94.4494997   9.1409988
  83.4630012  95.7304997   9.4689988  84.1863733  95.3135409   9.2253897
  89.2660012 110.8064997   6.9379988  89.6920012 110.0994997   6.4529988
  89.5830012 111.6074997   6.5209988  89.3671019 110.8180994   6.8153130
  90.4260012 108.7074997   5.4459988  90.1680012 108.0174997   4.8349988
  90.4970012 108.2644997   6.2919988  90.4002856 108.5532124   5.4766885
  92.1120012 107.2734997  13.9239988  92.2520012 106.6824997  13.1839988
  92.2790012 108.1464997  13.5669988  92.1536778 107.3106426  13.7746965
  86.5850012 104.2354997   3.6959988  85.8730012 104.7704997   3.3439988
  87.2760012 104.2914997   3.0359988  86.5810132 104.3162543   3.5586289
  86.6380012 102.6934997   0.7349988  87.3390012 102.7154997   1.3859988
  86.9410012 102.0654997   0.0789988  86.7747830 102.6116566   0.7353711
  93.9540012 103.6134997  11.9899988  93.3010012 104.3084997  12.0789988
  94.4190012 103.8234997  11.1799988  93.9275390 103.7369425  11.8926883
  89.9900012 104.4454997   4.6479988  89.2580012 104.6734997   5.2209988
  90.4380012 103.7314997   5.1029988  89.9503095 104.3802571   4.7879119
  89.8880012 102.6194997  13.7149988  89.9680012 103.3824997  14.2869988
  89.2860012 102.8984997  13.0249988  89.8175756 102.7617134  13.7000589
  81.6360012 105.0754997   6.5299988  81.3050012 104.7054997   5.7119988
  82.2240012 104.4054997   6.8769988  81.6701873 104.9341156   6.4648102
  83.0020012 108.5034997   9.2119988  82.9080012 107.9254997   8.4549988
  83.7320012 108.1324997   9.7079988  83.0877981 108.3742390   9.1754165
  82.0020012 103.8444997  10.1639988  82.5680012 103.9654997   9.4009988
  82.3210012 104.4814997  10.8029988  82.1225786 103.9471884  10.1460040
  88.3110012 109.3474997  10.8979988  88.0710012 110.0094997  11.5459988
  88.1130012 108.5134997  11.3229988  88.2513808 109.3253134  11.0441524
  82.8820012 108.2434997  14.8809988  82.5710012 109.0254997  15.3359988
  82.2320012 108.0904997  14.1949988  82.7515558 108.3299105  14.8505871
  88.8610012 103.6074997   2.3329988  89.4410012 103.7574997   3.0799988
  89.2750012 104.0784997   1.6099988  88.9962830 103.6916841   2.3374134
  79.8020012 104.4414997  14.1099988  79.8730012 105.0924997  14.8079988
  78.9120012 104.5444997  13.7749988  79.6913117 104.5445936  14.1602700
  86.5880012 110.3444997   5.7679988  87.0620012 110.6394997   6.5459988
  86.0250012 111.0824997   5.5349988  86.5767653 110.4846932   5.8430136
  81.1220012 110.3154997  15.6439988  81.1290012 110.1794997  14.6969988
  80.2060012 110.1974997  15.8959988  80.9991714 110.2809430  15.5484666
  92.5600012  95.3574997   2.1459988  91.6600012  95.4964997   2.4409988
  92.8120012  96.1884997   1.7439988  92.4708702  95.4889074   2.1320205
  80.6260012 104.1454997   4.1199988  80.3340012 104.9134997   3.6289988
  79.9520012 103.4854997   3.9569988  80.4949081 104.1614406   4.0307340
  93.7490012 109.7234997   0.5219988  93.8230012 110.6624997   0.6929988
  94.6550012 109.4184997   0.4659988  93.8815100 109.8106722   0.5378119
  76.7190012 106.5084997  12.9349988  76.2180012 106.4804997  12.1199988
  76.7240012 105.6024997  13.2439988  76.6511526 106.3822278  12.8652872
  76.4690012 109.2884997   9.8189988  77.4150012 109.1444997   9.7999988
  76.3570012 110.0724997  10.3559988  76.5832727 109.3748046   9.8890072
  94.6670012 109.9544997  15.5009988  94.6180012 108.9994997  15.4639988
  93.8400012 110.2224997  15.9019988  94.5484940 109.8598998  15.5501375
  85.6460012 109.5284997  14.3769988  85.7330012 110.3544997  14.8519988
  84.7820012 109.1984997  14.6259988  85.5411964 109.5969878  14.4756549
  86.0600012 113.3004997   4.1829988  85.9850012 113.1794997   3.2369988
  86.0930012 114.2504997   4.3019988  86.0541848 113.4122500   4.0694834
  79.7130012 112.0894997   5.9639988  79.8660012 111.7414997   6.8429988
  78.8630012 111.7334997   5.7089988  79.6188962 111.9936650   6.0498340
  89.1620012 112.4544997   1.1849988  89.5370012 111.7104997   0.7149988
  89.1660012 112.1844997   2.1039988  89.2138915 112.3161486   1.2447824
  88.8310012 112.3804997   3.9349988  87.8950012 112.4804997   4.1129988
  89.1110012 111.6714997   4.5129988  88.7408255 112.2982711   4.0375391
  91.8190012 101.4474997  15.9809988  91.4120012 101.9284997  15.2599988
  91.8600012 100.5424997  15.6729988  91.7688437 101.3909374  15.8406683
  78.9680012 107.8314997  13.9779988  79.1840012 107.4704997  14.8369988
  78.1130012 107.4574997  13.7679988  78.8819292 107.7314111  14.0673386
  81.5870012  96.3014997   9.9729988  80.7250012  96.2144997   9.5659988
  81.5640012  97.1574997  10.4009988  81.4660330  96.4052765   9.9751863
  86.2500012  96.0234997  13.3479988  86.6700012  95.6084997  14.1009988
  85.3170012  95.8454997  13.4649988  86.1813644  95.9425900  13.4669539
  89.5760012  99.7794997  14.2009988  89.0620012  99.6534997  14.9989988
  89.4210012 100.6914997  13.9569988  89.4846852  99.8856132  14.2772158
  90.3390012 104.6404997  -0.0370012  90.3810012 104.4174997  -0.9670012
  91.1880012 105.0394997   0.1529988  90.4595396 104.6639155  -0.1386373
  85.9110012  98.5164997   0.6329988  85.6580012  98.5354997   1.5559988
  85.6550012  97.6444997   0.3319988  85.8417790  98.4012437   0.7186263
  81.6780012 101.2674997  11.0679988  81.0360012 101.2264997  11.7769988
  81.7150012 102.1934997  10.8309988  81.5951324 101.3871559  11.1329824
  81.6750012 101.4884997   5.9799988  80.7820012 101.1474997   5.9219988
  82.1250012 101.1114997   5.2249988  81.6137305 101.3908484   5.8699177
  87.2100012 101.9044997   4.7969988  86.8010012 102.7194997   4.5059988
  87.9310012 101.7644997   4.1829988  87.2514537 101.9972018   4.6741342
  86.3120012 102.0794997  16.2849988  85.7500012 101.3754997  16.6059988
  87.1390012 101.9594997  16.7529988  86.3467095 101.9667883  16.3922330
  88.2150012 101.3504997   7.6109988  88.0200012 101.9554997   6.8959988
  88.3960012 100.5164997   7.1769988  88.2127614 101.3206300   7.4544405
  79.4280012 101.5874997  12.9349988  79.3900012 101.9874997  13.8039988
  78.9370012 100.7704997  13.0259988  79.3564684 101.5318069  13.0661059
  82.7940012  98.9614997  -0.2660012  82.3630012  98.5164997   0.4639988
  82.0760012  99.3334997  -0.7780012  82.6379438  98.9508940  -0.2353201
  76.0360012  98.7034997   6.7859988  76.6670012  98.6744997   7.5049988
  76.4850012  98.2784997   6.0559988  76.1830774  98.6420492   6.7856553
  77.3100012  99.4494997   2.2099988  77.7840012 100.0404997   1.6249988
  76.5930012  99.9804997   2.5569988  77.2779341  99.6020867   2.1768836
  87.4790012 102.9884997  12.2829988  87.8020012 102.3574997  11.6399988
  87.0390012 102.4534997  12.9429988  87.4636895 102.8298441  12.2842850
  84.2560012  98.9154997   7.0669988  83.3450012  98.9724997   7.3549988
  84.7620012  98.8554997   7.8769988  84.1995413  98.9151985   7.2160622
  79.0850012 100.5444997   5.8929988  78.1950012 100.6444997   5.5529988
  79.3810012  99.7024997   5.5469988  79.0032823 100.4443545   5.7997213
  82.7380012 100.5444997   3.5499988  83.6690012 100.6734997   3.7279988
  82.5230012 101.2144997   2.8999988  82.8364247 100.6526565   3.4865747
  88.6610012  98.1504997  10.3309988  87.9850012  98.2814997  10.9949988
  88.1760012  97.9954997   9.5209988  88.5027145  98.1474905  10.3124517
  81.4120012 101.7394997   1.1169988  80.8690012 101.3594997   0.4249988
  82.2450012 101.9334997   0.6879988  81.4504399 101.7138124   0.9644526
  91.9490012 113.8224997  16.6079988  92.1490012 114.2464997  15.7729988
  92.6040012 114.1654997  17.2149988  92.0650051 113.9269648  16.5757836
  79.5470012 106.2964997  16.2159988  80.2790012 106.5504997  16.7769988
  78.7670012 106.5004997  16.7309988  79.5418232 106.3589177  16.3625760
  85.5760012 101.7034997   8.9539988  86.1410012 101.1564997   8.4069988
  85.4290012 101.1814997   9.7419988  85.6332918 101.5582024   8.9858454
  80.5780012  97.8394997   5.3719988  80.2610012  96.9374997   5.3369988
  81.3600012  97.8414997   4.8189988  80.6402284  97.7161628   5.2924783
  84.2030012 100.0914997  11.3679988  83.3670012 100.5454997  11.4779988
  84.7270012 100.3674997  12.1199988  84.1594414 100.1909376  11.4847136
  84.7470012 106.3044997   3.0519988  84.0020012 105.7974997   2.7299988
  84.6130012 106.3534997   3.9989988  84.6268776 106.2416940   3.1358647
  91.8970012 105.4374997  11.8389988  92.5390012 105.8944997  11.2949988
  91.0670012 105.5504997  11.3759988  91.8725963 105.5152704  11.7020177
  88.6450012  99.1184997   1.2519988  87.7060012  99.2304997   1.0999988
  88.9420012  99.9754997   1.5579988  88.5567666  99.2496443   1.2725768
  86.2660012 106.4884997  14.2889988  85.9210012 106.1074997  15.0959988
  86.0660012 107.4224997  14.3609988  86.1918061 106.5625228  14.4090961
  89.3630012 100.9854997   2.9119988  90.2550012 100.8484997   3.2309988
  89.4200012 101.7764997   2.3759988  89.4926285 101.0736660   2.8831691
  79.8720012 105.5994997   8.8219988  80.6170012 105.5974997   8.2209988
  79.9500012 104.7764997   9.3039988  79.9845518 105.4879315   8.8048929
  86.8730012 107.7634997   2.0779988  86.5770012 108.5894997   2.4589988
  86.1700012 107.1434997   2.2739988  86.7374914 107.7928199   2.1566443
  76.8800012 104.0604997  14.1369988  77.1030012 103.6424997  14.9689988
  76.2780012 103.4474997  13.7139988  76.8291759 103.9204668  14.1937022
  83.8960012 103.5774997  16.3499988  83.6000012 103.4114997  15.4549988
  84.8280012 103.3574997  16.3389988  83.9814166 103.5250640  16.2260536
  88.5170012 108.9504997  14.2399988  87.6160012 109.1334997  13.9719988
  88.5510012 109.2094997  15.1609988  88.3983041 109.0105512  14.3278197
  94.2480012 101.1954997   2.6069988  93.6940012 100.7994997   1.9349988
  94.3480012 102.1054997   2.3289988  94.1857059 101.2643586   2.4774401
  94.2110012 106.9954997  15.4439988  93.3600012 107.2334997  15.0769988
  94.8020012 106.9784997  14.6909988  94.1742487 107.0258258  15.2918893
  92.5430012 109.9814997   3.0719988  92.1700012 109.1554997   3.3809988
  92.8210012 109.7984997   2.1749988  92.5295630 109.8437303   2.9929626
  89.7040012 104.7894997  10.0929988  88.7750012 104.5574997  10.0659988
  90.1550012 104.0124997   9.7629988  89.6379216 104.6527238  10.0446917
  82.2470012 109.1174997   6.2259988  82.7740012 109.8904997   6.0259988
  81.3670012 109.3424997   5.9249988  82.2001773 109.2538005   6.1579010
  78.0020012 103.9794997   0.8129988  78.6180012 104.6064997   1.1929988
  77.1400012 104.2954997   1.0849988  77.9697698 104.1079430   0.9017183
  83.6740012 106.7804997   5.8029988  83.4330012 107.7054997   5.8439988
  82.9330012 106.3214997   6.1989988  83.5408409 106.8451421   5.8621377
  84.1890012 110.9294997  12.1179988  84.5510012 111.7844997  11.8839988
  84.7200012 110.6374997  12.8579988  84.3104473 111.0071060  12.1860855
  82.3570012 111.8024997   5.3479988  81.4070012 111.9074997   5.3989988
  82.7090012 112.6224997   5.6929988  82.2744203 111.9278314   5.4016650
  87.7330012 107.0284997  11.8179988  87.3070012 106.8014997  12.6449988
  88.3130012 106.2904997  11.6359988  87.7531868 106.8975299  11.9065830
  89.9360012 107.9574997   0.8919988  90.2890012 107.5774997   1.6969988
  88.9870012 107.8644997   0.9789988  89.8560441 107.8929596   1.0138559
  90.3910012 111.5804997  14.2879988  89.7900012 111.0254997  13.7919988
  90.6730012 112.2474997  13.6619988  90.3468519 111.5946841  14.1354952
  94.4390012 112.4374997   1.0929988  95.1830012 113.0234997   0.9529988
  93.7450012 113.0054997   1.4269988  94.4470292 112.5945582   1.1189961
  78.5140012  98.8134997  13.6949988  77.6210012  99.1524997  13.6269988
  78.4150012  97.9584997  14.1129988  78.3784164  98.7442588  13.7422235
  90.8020012 106.6304997   3.1189988  90.5240012 105.9024997   3.6749988
  91.7290012 106.7494997   3.3239988  90.8893124 106.5468802   3.2228845
  78.1650012 110.6184997  12.1299988  78.3820012 109.6864997  12.0989988
  78.4110012 110.8924997  13.0129988  78.2279549 110.5280636  12.2451763
  84.0270012 109.0694997  -0.6610012  84.2660012 108.3214997  -1.2080012
  83.7580012 108.6814997   0.1719988  84.0233675 108.9146638  -0.6233135
  82.9640012 108.6394997   1.7959988  83.1100012 108.1194997   2.5859988
  82.9610012 109.5464997   2.1019988  82.9835989 108.6908853   1.9456088
  79.4170012 105.8924997   2.3059988  78.7310012 106.2444997   2.8729988
  79.9390012 106.6554997   2.0589988  79.3936852 106.0438578   2.3502118
  87.2480012  98.5544997  12.5849988  87.9470012  98.6284997  13.2349988
  86.8670012  97.6904997  12.7389988  87.2921767  98.4477624  12.6948322
  88.0330012  98.2064997   3.6819988  88.2530012  98.6784997   2.8789988
  88.5910012  98.6014997   4.3519988  88.1384968  98.3244285   3.6627331
  85.7010012 110.3374997   2.5449988  84.8850012 110.8344997   2.5969988
  86.2310012 110.8124997   1.9049988  85.6609161 110.4697722   2.4655956
  85.2330012  99.9344997   4.5169988  86.0450012 100.4394997   4.5629988
  84.9880012  99.7894997   5.4309988  85.3110520  99.9840375   4.6468517
  85.7680012 100.9204997  13.7019988  85.8870012 101.4944997  14.4589988
  86.4240012 100.2324997  13.8159988  85.8729757 100.9061079  13.8210825
  86.1160012  97.0154997   5.4549988  85.7700012  97.6334997   6.0999988
  86.7750012  97.5164997   4.9739988  86.1577826  97.1675802   5.4780971
  83.0400012 111.3814997   2.5269988  83.2000012 112.1804997   2.0259988
  82.8420012 111.6874997   3.4119988  83.0351649 111.5324469   2.5779815
  81.7740012  98.0784997   2.1419988  81.6910012  98.9674997   2.4889988
  82.6640012  97.8134997   2.3739988  81.8829469  98.1641430   2.2207626
  91.9730012  98.8274997  14.5369988  91.0560012  99.0904997  14.4489988
  92.3080012  98.8244997  13.6399988  91.8929900  98.8630224  14.4037919
  90.5750012 102.5784997   8.6319988  89.7770012 102.1634997   8.3039988
  91.0200012 101.8874997   9.1229988  90.5259885 102.4283543   8.6534889
  80.0330012 108.5064997   1.2029988  80.6250012 109.2054997   1.4789988
  80.4920012 108.0734997   0.4829988  80.1761142 108.5437049   1.1434830
  78.3490012 101.1704997   0.3189988  78.3040012 102.1094997   0.4969988
  77.4610012 100.9344997   0.0489988  78.2228574 101.2671892   0.3068912
  91.6610012 111.8344997  10.2549988  91.5060012 112.5124997   9.5979988
  92.5940012 111.9064997  10.4579988  91.7658500 111.9370170  10.1925119
  79.1570012  95.9524997   8.9919988  78.9280012  96.0114997   8.0639988
  78.7140012  95.1604997   9.2979988  79.0658530  95.8535753   8.9064786
  78.0870012 109.8924997   5.1519988  77.2550012 110.3654997   5.1799988
  78.6330012 110.4024997   4.5539988  78.0469739 110.0261871   5.0749716
  77.3750012 112.5054997  16.4819988  77.9160012 112.2884997  17.2419988
  76.8940012 111.6994997  16.2929988  77.3839345 112.3669514  16.5603076
  81.9730012 111.4244997  18.1029988  82.7400012 110.9654997  18.4439988
  81.9510012 111.1984997  17.1729988  82.0751434 111.3310409  18.0240043
  86.0650012 110.9324997  -0.5220012  85.4210012 110.3014997  -0.2010012
  86.8270012 110.4014997  -0.7540012  86.0798077 110.7742920  -0.5093989
  88.5500012 109.8044997  16.8319988  88.1990012 108.9484997  17.0749988
  89.2760012 109.9474997  17.4389988  88.6000769 109.7065636  16.9473619
  90.6690012 110.7494997  -0.2880012  90.9520012 109.9554997   0.1639988
  91.4090012 110.9824997  -0.8490012  90.8077486 110.6722803  -0.3019302
  77.2820012 106.3154997  17.4369988  77.4260012 105.4134997  17.1499988
  76.5100012 106.6014997  16.9489988  77.1973322 106.2308261  17.3317881
  81.6240012 106.6594997  -0.4310012  81.6880012 105.8654997   0.0999988
  82.2770012 106.5404997  -1.1210012  81.7210241 106.5347148  -0.4515683
  83.9380012 106.2854997  16.8689988  83.6090012 106.5564997  16.0119988
  84.0900012 105.3444997  16.7819988  83.9134809 106.1953862  16.7398244
  86.9760012 107.7064997  -0.6950012  86.7070012 107.8864997   0.2059988
  86.7700012 106.7804997  -0.8260012  86.9113825 107.6060152  -0.5894786
  89.6720012 106.2014997  14.2529988  90.4180012 106.7894997  14.1329988
  88.9150012 106.7834997  14.3159988  89.6717554 106.3607011  14.2450907
  78.1150012 103.5154997  16.8569988  78.5230012 102.6584997  16.7359988
  77.8550012 103.5304997  17.7779988  78.1357568 103.4000807  16.9649588
  82.7730012 104.6314997   1.8749988  82.3130012 104.1474997   2.5609988
  83.0280012 103.9634997   1.2389988  82.7444902 104.4748731   1.8829334
  82.0620012 102.5244997  14.2309988  81.4440012 103.1994997  14.5109988
  82.4060012 102.8454997  13.3979988  82.0239615 102.6602721  14.1566581
  83.8440012 102.8744997   0.1369988  83.6640012 102.7204997  -0.7900012
  84.7940012 102.9824997   0.1819988  83.9477776 102.8680175   0.0161843
  87.0820012 104.9964997  17.5079988  88.0350012 105.0794997  17.4809988
  86.9210012 104.2844997  18.1279988  87.1906426 104.9116746  17.5880579
  93.2340012 105.2294997  -0.4170012  92.9600012 104.8044997  -1.2300012
  93.2730012 106.1604997  -0.6340012  93.2017699 105.2972484  -0.5576390
  82.4010012  99.8794997  15.3129988  82.5510012  99.1504997  14.7109988
  82.4040012 100.6564997  14.7539988  82.4219302  99.8847851  15.1550692
  82.8140012  98.2494997  12.8059988  83.3500012  98.7004997  12.1539988
  81.9620012  98.1414997  12.3829988  82.7722178  98.2966390  12.6595756
  84.3960012 103.6884997  13.0449988  85.1460012 103.5324997  12.4719988
  84.0570012 104.5404997  12.7699988  84.4528921 103.7822968  12.9293561
  88.8110012 101.5034997  18.0739988  89.0040012 100.5724997  17.9619988
  89.6690012 101.9284997  18.0639988  88.9533020 101.4336389  18.0573361
  90.1280012 104.2924997  16.1509988  89.8470012 105.0014997  15.5739988
  91.0710012 104.2194997  15.9999988  90.2169027 104.3797646  16.0515551
  80.8800012 101.0774997  17.2249988  80.1130012 100.5454997  17.0149988
  81.5590012 100.7674997  16.6249988  80.8667022 100.9627506  17.1151648
  83.6200012  95.7054997  13.2369988  83.5210012  96.6524997  13.1319988
  82.8770012  95.3334997  12.7619988  83.5060564  95.7845902  13.1584560
  84.8840012 100.0274997  16.8009988  84.6480012  99.8074997  17.7029988
  84.1000012  99.8204997  16.2909988  84.7458628  99.9694760  16.8553932
  87.5990012  99.1544997  15.8769988  86.6520012  99.1864997  16.0089988
  87.9120012  98.5294997  16.5299988  87.5115475  99.0743207  15.9834455
  89.2330012  97.7884997  17.8819988  89.1370012  96.8364997  17.8759988
  88.9120012  98.0574997  18.7419988  89.1764070  97.6944035  17.9975441
  79.0600012  98.9984997  16.9289988  79.2720012  98.2914997  16.3189988
  78.9490012  98.5604997  17.7729988  79.0739721  98.8427084  16.9596843
  83.8410012  94.9994997  15.9089988  84.5530012  94.3594997  15.8949988
  83.7400012  95.2664997  14.9949988  83.9247939  94.9479938  15.7835650
  84.1950012  96.6824997  17.9619988  84.0630012  96.2064997  17.1419988
  83.5960012  97.4264997  17.9069988  84.0959071  96.7179618  17.8422886
  83.7410012 113.5654997   1.1389988  84.6740012 113.7234997   1.2819988
  83.4770012 114.2404997   0.5139988  83.8329510 113.6783611   1.0740741
  77.3100012 108.2014997   0.6209988  78.2240012 108.2804997   0.8949988
  77.3170012 107.5144997  -0.0450012  77.4361131 108.1193961   0.5684393
  75.9590012 113.5944997   5.6989988  75.3120012 113.1324997   5.1659988
  76.3130012 112.9224997   6.2809988  75.9183849 113.4404723   5.7047959
  76.8290012 111.6754997   7.5029988  76.4940012 110.7954997   7.6749988
  77.0510012 112.0204997   8.3679988  76.8131783 111.6017500   7.6434208
  94.3770012 112.4844997  10.4839988  94.3560012 112.6694997  11.4229988
  95.0680012 113.0534997  10.1429988  94.4674618 112.5866606  10.5663864
  93.9410012 112.0524997  13.4059988  93.4530012 111.3164997  13.0349988
  94.4900012 111.6584997  14.0839988  93.9484872 111.8986249  13.4469160
  92.3910012 107.8414997  18.0439988  91.5250012 107.7364997  18.4379988
  92.7680012 108.6004997  18.4899988  92.3233308 107.9296900  18.1582393
  93.6920012 106.0984997   3.5579988  94.5420012 106.5194997   3.6849988
  93.6980012 105.3584997   4.1649988  93.8091372 106.0560803   3.6574344
  94.0870012 104.1514997   5.3819988  93.3600012 103.6724997   5.7789988
  94.6680012 104.3574997   6.1139988  94.0659375 104.1137090   5.5354129
  93.8460012 106.9364997  10.3289988  94.6790012 106.5584997  10.0489988
  93.9580012 107.8794997  10.2099988  93.9752647 107.0122218  10.2745487
  92.3320012 109.8144997  12.6359988  91.6850012 110.1394997  13.2619988
  91.8150012 109.3744997  11.9619988  92.1734029 109.7995004  12.6305827
  94.3550012 104.0524997   1.7729988  93.8330012 104.4094997   1.0539988
  94.3220012 104.7274997   2.4509988  94.2791634 104.1925413   1.7663145
  92.7040012 101.2924997   0.3239988  92.8000012 101.9594997  -0.3570012
  92.5640012 100.4764997  -0.1580012  92.6982135 101.2734500   0.1658491
  91.8730012 102.6724997   5.9449988  91.7230012 101.7274997   5.9239988
  91.5200012 102.9534997   6.7879988  91.8046625 102.5810441   6.0562346
  76.9090012 104.7504997   9.9549988  77.0930012 104.6684997   9.0189988
  77.7580012 104.6264997  10.3789988  77.0490139 104.7225003   9.8841455
  92.7300012 104.6424997  15.5829988  93.3130012 103.9084997  15.7749988
  93.2940012 105.4144997  15.6299988  92.8859769 104.6464227  15.6156159
  94.2260012 102.5454997  16.2679988  93.3630012 102.1664997  16.1019988
  94.8310012 101.8064997  16.1939988  94.1895979 102.3938023  16.2352817
  91.9510012  98.7004997  -0.5590012  92.5620012  98.3294997   0.0779988
  91.1150012  98.2794997  -0.3630012  91.9215032  98.5927554  -0.4452965
  91.5840012 100.2554997   4.4069988  91.8640012  99.3484997   4.5309988
  92.3430012 100.6894997   4.0179988  91.7249277 100.1900942   4.3713682
  92.1960012 100.8364997   9.8429988  93.1290012 101.0484997   9.8089988
  91.9610012 100.9384997  10.7649988  92.2918036 100.8792769   9.9629976
  92.2250012 101.5734997  12.6189988  91.3820012 101.8414997  12.9849988
  92.6670012 102.3954997  12.4079988  92.1694158 101.7213291  12.6405491
  76.5060012 100.0214997  16.0959988  77.4260012  99.8994997  16.3319988
  76.0570012  99.2714997  16.4849988  76.5711580  99.9033727  16.1809006
  94.5080012  95.5534997  17.9719988  94.8580012  94.8994997  17.3669988
  94.6550012  96.3904997  17.5329988  94.5758419  95.5771591  17.8297118
  92.1970012  97.5184997   4.4549988  92.3800012  97.0694997   5.2809988
  91.5980012  96.9334997   3.9919988  92.1410202  97.3779975   4.5053275
  77.7270012  98.3334997   8.9869988  78.1730012  97.5414997   9.2889988
  78.1940012  99.0494997   9.4179988  77.8510172  98.3220624   9.0864820
  76.0310012 101.3324997  10.0559988  76.5230012 101.1114997   9.2649988
  76.3940012 102.1734997  10.3369988  76.1473126 101.4158357   9.9857531
  94.0280012  97.6624997  16.3219988  93.1100012  97.9334997  16.2859988
  94.1510012  97.1274997  15.5369988  93.9191066  97.6272892  16.2110487
  94.0640012  97.5854997   0.9829988  94.4760012  96.8644997   0.5079988
  94.7460012  98.2554997   1.0419988  94.2125885  97.5772368   0.9258915
  76.3450012  97.5904997   4.1099988  75.4200012  97.7994997   3.9809988
  76.7990012  98.0744997   3.4209988  76.2797368  97.6845993   3.9991226
  91.1160012 112.5744997   6.0559988  91.7680012 112.2274997   5.4479988
  91.6260012 113.0634997   6.7019988  91.2742637 112.5930597   6.0600236
  76.3090012  96.3284997  12.4549988  75.6440012  96.0824997  13.0979988
  75.8660012  96.9504997  11.8769988  76.1580956  96.3788632  12.4649352
  78.5010012 109.5034997  16.5989988  77.6800012 109.6784997  16.1389988
  78.2480012 109.4304997  17.5199988  78.3546164 109.5175622  16.6604923
  81.4550012 110.4784997  12.8579988  81.0300012 111.2874997  12.5749988
  82.3590012 110.5634997  12.5559988  81.5190271 110.6008469  12.7783776
  85.7660012 111.8774997  15.8169988  85.9510012 111.5434997  16.6949988
  86.6120012 112.1864997  15.4949988  85.9057539 111.8736047  15.8935605
  88.1110012 113.1634997  15.0609988  88.7880012 112.5304997  14.8209988
  88.4330012 113.5644997  15.8679988  88.2471637 113.1311154  15.1372793
  93.0280012  95.7524997  14.1409988  92.2160012  96.0774997  13.7529988
  93.2610012  94.9924997  13.6079988  92.9483423  95.6942436  14.0158253
  78.8570012 113.7344997  12.9049988  78.1360012 114.1744997  12.4539988
  78.4910012 113.4834997  13.7539988  78.7089804 113.7607698  12.9579840
  81.3240012 113.3344997  11.9349988  80.4590012 113.4064997  12.3389988
  81.2690012 113.8814997  11.1509988  81.1982085 113.4182685  11.8843362
  86.0340012 113.2224997  11.1099988  85.5780012 113.7514997  10.4559988
  86.1970012 113.8254997  11.8359988  85.9935585 113.3764468  11.1185062
  88.3620012 112.1004997  12.0549988  87.4570012 112.2654997  11.7899988
  88.7910012 112.9534997  11.9899988  88.2960799 112.2384483  12.0099182
  90.9660012 113.6704997  12.3499988  90.7840012 114.5864997  12.1399988
  91.1430012 113.2604997  11.5039988  90.9650210 113.7404822  12.2067885
  78.2710012 112.3574997   9.8149988  78.2530012 111.9324997  10.6729988
  79.0760012 112.0394997   9.4069988  78.3773875 112.2563812   9.8771655
  80.4130012 111.0674997   8.4699988  80.1940012 110.1514997   8.6399988
  81.2370012 111.2074997   8.9359988  80.4944420 110.9610520   8.5562774
  82.9500012 111.5374997   9.3189988  83.1630012 110.6494997   9.0319988
  83.0140012 111.5034997  10.2729988  82.9878232 111.4113102   9.4087397
  86.4580012  97.2014997   8.4629988  85.7840012  96.5724997   8.7189988
  87.0220012  96.7174997   7.8599988  86.4419230  97.0498744   8.4165340
  91.6010012  95.3094997   8.5759988  92.2050012  95.8564997   8.0739988
  90.7310012  95.6284997   8.3359988  91.5661241  95.4275806   8.4747654
  93.3280012  96.4474997   6.9089988  93.9400012  95.9334997   6.3829988
  93.7100012  97.3254997   6.9329988  93.4634540  96.4957140   6.8401830
  78.7850012  95.8354997   6.2849988  78.0080012  95.6014997   5.7779988
  79.3150012  95.0384997   6.2939988  78.7502330  95.6956988   6.2167742
  77.6210012  95.6334997   2.0889988  78.0600012  96.2444997   1.4969988
  76.9880012  96.1714997   2.5629988  77.5954514  95.7899257   2.0720930
  83.3640012  95.7624997   6.0989988  84.2390012  96.1504997   6.0689988
  83.2280012  95.5474997   7.0209988  83.4653695  95.7865184   6.2196440
  88.9210012  95.7924997   7.7479988  88.9970012  95.8874997   6.7979988
  88.6460012  94.8844997   7.8769988  88.8942321  95.6827867   7.6355079
  90.2740012  95.8184997   3.4399988  89.5720012  96.4334997   3.2309988
  89.8300012  94.9804997   3.5709988  90.1176330  95.7895783   3.4290328
  77.5220012 111.5814997   2.9869988  76.8370012 111.5434997   2.3189988
  77.5260012 112.4944997   3.2749988  77.4288193 111.6997016   2.9345284
  79.4820012  97.5494997   0.5309988  79.9740012  96.9194997   0.0039988
  80.1060012  97.8454997   1.1949988  79.6335446  97.5033199   0.5485980
  84.5080012  97.8424997   2.9879988  84.6860012  97.1964997   3.6709988
  84.4550012  98.6764997   3.4559988  84.5251829  97.8667985   3.1445940
  86.3870012 112.7914997   1.3839988  87.2530012 113.1574997   1.2059988
  86.1400012 112.3514997   0.5699988  86.4722392 112.7821756   1.2496289
  93.0960012 112.3544997   4.0629988  92.9010012 111.6064997   3.4979988
  93.0570012 113.1124997   3.4799988  93.0640380 112.3546099   3.9068384
  78.7430012  96.3494997  15.8029988  78.3770012  95.5844997  16.2459988
  79.6560012  96.3784997  16.0899988  78.8162790  96.2487224  15.9024070
  80.7160012  95.7004997  17.3389988  81.6140012  95.4264997  17.1539988
  80.3290012  94.9574997  17.8029988  80.7866612  95.5625914  17.3763643
  79.3400012 112.5014997   0.0119988  79.0730012 112.7884997   0.8849988
  80.1120012 111.9554997   0.1639988  79.4077488 112.4670294   0.1521050
  89.1370012  95.0324997  17.5209988  89.2140012  94.6064997  18.3749988
  90.0310012  95.0464997  17.1779988  89.2683428  94.9760879  17.5915310
  92.3130012 111.1054997  16.2129988  91.5310012 110.9194997  15.6939988
  92.2410012 112.0344997  16.4309988  92.1961777 111.2056492  16.1714048
 106.7190012 104.9914997   6.2439988 106.8080012 105.9354997   6.1119988
 106.0810012 104.7164997   5.5859988 106.6449081 105.0834830   6.1369614
 105.6520012 104.2464997   9.6629988 105.6140012 103.6004997  10.3679988
 105.3300012 103.7804997   8.8919988 105.6032333 104.0949408   9.6552978
  98.0210012 103.8614997  11.2559988  98.0620012 103.2354997  11.9789988
  98.7240012 104.4854997  11.4379988  98.1216363 103.8601196  11.3796044
 109.3580012 107.1854997   7.9639988 108.9180012 106.4654997   8.4149988
 109.3450012 107.9064997   8.5939988 109.2960226 107.1843731   8.1108494
  98.9440012 108.3114997   9.7909988  98.5750012 107.5094997   9.4209988
  99.8850012 108.1424997   9.8369988  99.0207289 108.1790153   9.7466316
  95.5540012 101.9714997   5.1839988  95.1070012 102.8174997   5.1649988
  94.9930012 101.3914997   4.6679988  95.4169900 102.0089916   5.1116801
  96.2650012 104.1334997   7.3099988  96.4780012 103.3634997   7.8369988
  97.0030012 104.2224997   6.7059988  96.3938496 104.0401394   7.3005300
 106.4700012 112.2904997   8.1769988 107.0900012 111.6134997   7.9029988
 106.2620012 112.0724997   9.0849988 106.5266904 112.1683870   8.2623365
 104.0420012 106.6794997  10.0689988 104.3460012 105.9934997   9.4739988
 104.7630012 106.7974997  10.6869988 104.1810671 106.6016304  10.0711816
 112.7050012  98.2804997  10.9299988 112.7540012  98.8904997  11.6659988
 113.1300012  98.7414997  10.2069988 112.7691824  98.4263741  10.9330205
 107.1830012 101.0734997  10.3969988 107.3250012 100.1274997  10.4169988
 107.0760012 101.2804997   9.4679988 107.1879863 100.9719534  10.2742339
 100.3370012  99.1744997   7.6689988 100.3810012 100.0344997   7.2509988
  99.8800012  98.6224997   7.0349988 100.2812185  99.2175799   7.5260299
 108.0600012  99.3054997   6.0699988 108.7060012  98.9764997   6.6949988
 108.5700012  99.8234997   5.4469988 108.2174264  99.3304611   6.0713862
  96.9580012 101.5714997   8.4309988  97.6110012 101.0214997   8.8629988
  96.9820012 101.2974997   7.5139988  97.0506683 101.4591466   8.3662123
 102.1140012 103.1214997   7.6459988 102.7300012 102.5954997   8.1559988
 101.5280012 102.4814997   7.2429988 102.1190810 102.9629208   7.6613173
 113.0960012  99.7584997  13.1659988 112.4080012 100.4164997  13.0699988
 113.1120012  99.5614997  14.1019988 113.0038525  99.8220462  13.2794808
  99.1480012  98.0924997  11.7429988  98.9290012  98.6224997  10.9769988
  98.4800012  98.3194997  12.3899988  99.0277600  98.1956906  11.7256379
 106.5170012 107.5924997   5.2869988 106.2210012 107.2704997   4.4359988
 106.1920012 108.4924997   5.3279988 106.4326371 107.6700215   5.1761801
 101.7170012 105.7684997  12.0299988 100.9770012 106.3664997  12.1339988
 102.4310012 106.3224997  11.7149988 101.7122237 105.9252831  12.0016465
 109.8240012  98.5964997   8.0499988 109.6080012  97.8304997   8.5829988
 110.4790012  99.0684997   8.5629988 109.8830632  98.5555889   8.1922861
  98.7410012  99.9844997   9.6949988  99.3550012 100.6174997  10.0689988
  99.2530012  99.5124997   9.0389988  98.8942296 100.0072370   9.6574252
 100.1240012 107.7324997  12.8179988 100.1190012 108.6124997  12.4399988
  99.2710012 107.6494997  13.2429988 100.0079464 107.8416117  12.8237907
  96.2450012 107.4034997   3.5999988  95.9730012 107.6324997   2.7109988
  96.2910012 108.2414997   4.0599988  96.2140094 107.5481213   3.5405697
 109.8700012 109.0254997  10.3119988 108.9290012 109.0834997  10.4739988
 110.1470012 109.9314997  10.1749988 109.7784679 109.1559443  10.3156815
 110.1710012  97.3114997  11.7299988 109.4350012  97.9224997  11.6919988
 110.8540012  97.7264997  11.2029988 110.1626541  97.4511374  11.6535832
 103.1740012  95.3984997   9.1959988 103.0570012  94.4494997   9.1409988
 102.3190012  95.7304997   9.4689988 103.0423733  95.3135409   9.2253897
 108.1220012 110.8064997   6.9379988 108.5480012 110.0994997   6.4529988
 108.4390012 111.6074997   6.5209988 108.2231019 110.8180994   6.8153130
 109.2820012 108.7074997   5.4459988 109.0240012 108.0174997   4.8349988
 109.3530012 108.2644997   6.2919988 109.2562856 108.5532124   5.4766885
 110.9680012 107.2734997  13.9239988 111.1080012 106.6824997  13.1839988
 111.1350012 108.1464997  13.5669988 111.0096778 107.3106426  13.7746965
 105.4410012 104.2354997   3.6959988 104.7290012 104.7704997   3.3439988
 106.1320012 104.2914997   3.0359988 105.4370132 104.3162543   3.5586289
 105.4940012 102.6934997   0.7349988 106.1950012 102.7154997   1.3859988
 105.7970012 102.0654997   0.0789988 105.6307830 102.6116566   0.7353711
 112.8100012 103.6134997  11.9899988 112.1570012 104.3084997  12.0789988
 113.2750012 103.8234997  11.1799988 112.7835390 103.7369425  11.8926883
 108.8460012 104.4454997   4.6479988 108.1140012 104.6734997   5.2209988
 109.2940012 103.7314997   5.1029988 108.8063095 104.3802571   4.7879119
 108.7440012 102.6194997  13.7149988 108.8240012 103.3824997  14.2869988
 108.1420012 102.8984997  13.0249988 108.6735756 102.7617134  13.7000589
 100.4920012 105.0754997   6.5299988 100.1610012 104.7054997   5.7119988
 101.0800012 104.4054997   6.8769988 100.5261873 104.9341156   6.4648102
 101.8580012 108.5034997   9.2119988 101.7640012 107.9254997   8.4549988
 102.5880012 108.1324997   9.7079988 101.9437981 108.3742390   9.1754165
 100.8580012 103.8444997  10.1639988 101.4240012 103.9654997   9.4009988
 101.1770012 104.4814997  10.8029988 100.9785786 103.9471884  10.1460040
 107.1670012 109.3474997  10.8979988 106.9270012 110.0094997  11.5459988
 106.9690012 108.5134997  11.3229988 107.1073808 109.3253134  11.0441524
 101.7380012 108.2434997  14.8809988 101.4270012 109.0254997  15.3359988
 101.0880012 108.0904997  14.1949988 101.6075558 108.3299105  14.8505871
 107.7170012 103.6074997   2.3329988 108.2970012 103.7574997   3.0799988
 108.1310012 104.0784997   1.6099988 107.8522830 103.6916841   2.3374134
  98.6580012 104.4414997  14.1099988  98.7290012 105.0924997  14.8079988
  97.7680012 104.5444997  13.7749988  98.5473117 104.5445936  14.1602700
 105.4440012 110.3444997   5.7679988 105.9180012 110.6394997   6.5459988
 104.8810012 111.0824997   5.5349988 105.4327653 110.4846932   5.8430136
  99.9780012 110.3154997  15.6439988  99.9850012 110.1794997  14.6969988
  99.0620012 110.1974997  15.8959988  99.8551714 110.2809430  15.5484666
 111.4160012  95.3574997   2.1459988 110.5160012  95.4964997   2.4409988
 111.6680012  96.1884997   1.7439988 111.3268702  95.4889074   2.1320205
  99.4820012 104.1454997   4.1199988  99.1900012 104.9134997   3.6289988
  98.8080012 103.4854997   3.9569988  99.3509081 104.1614406   4.0307340
 112.6050012 109.7234997   0.5219988 112.6790012 110.6624997   0.6929988
 113.5110012 109.4184997   0.4659988 112.7375100 109.8106722   0.5378119
  95.5750012 106.5084997  12.9349988  95.0740012 106.4804997  12.1199988
  95.5800012 105.6024997  13.2439988  95.5071526 106.3822278  12.8652872
  95.3250012 109.2884997   9.8189988  96.2710012 109.1444997   9.7999988
  95.2130012 110.0724997  10.3559988  95.4392727 109.3748046   9.8890072
 113.5230012 109.9544997  15.5009988 113.4740012 108.9994997  15.4639988
 112.6960012 110.2224997  15.9019988 113.4044940 109.8598998  15.5501375
 104.5020012 109.5284997  14.3769988 104.5890012 110.3544997  14.8519988
 103.6380012 109.1984997  14.6259988 104.3971964 109.5969878  14.4756549
 104.9160012 113.3004997   4.1829988 104.8410012 113.1794997   3.2369988
 104.9490012 114.2504997   4.3019988 104.9101848 113.4122500   4.0694834
  98.5690012 112.0894997   5.9639988  98.7220012 111.7414997   6.8429988
  97.7190012 111.7334997   5.7089988  98.4748962 111.9936650   6.0498340
 108.0180012 112.4544997   1.1849988 108.3930012 111.7104997   0.7149988
 108.0220012 112.1844997   2.1039988 108.0698915 112.3161486   1.2447824
 107.6870012 112.3804997   3.9349988 106.7510012 112.4804997   4.1129988
 107.9670012 111.6714997   4.5129988 107.5968255 112.2982711   4.0375391
 110.6750012 101.4474997  15.9809988 110.2680012 101.9284997  15.2599988
 110.7160012 100.5424997  15.6729988 110.6248437 101.3909374  15.8406683
  97.8240012 107.8314997  13.9779988  98.0400012 107.4704997  14.8369988
  96.9690012 107.4574997  13.7679988  97.7379292 107.7314111  14.0673386
 100.4430012  96.3014997   9.9729988  99.5810012  96.2144997   9.5659988
 100.4200012  97.1574997  10.4009988 100.3220330  96.4052765   9.9751863
 105.1060012  96.0234997  13.3479988 105.5260012  95.6084997  14.1009988
 104.1730012  95.8454997  13.4649988 105.0373644  95.9425900  13.4669539
 108.4320012  99.7794997  14.2009988 107.9180012  99.6534997  14.9989988
 108.2770012 100.6914997  13.9569988 108.3406852  99.8856132  14.2772158
 109.1950012 104.6404997  -0.0370012 109.2370012 104.4174997  -0.9670012
 110.0440012 105.0394997   0.1529988 109.3155396 104.6639155  -0.1386373
 104.7670012  98.5164997   0.6329988 104.5140012  98.5354997   1.5559988
 104.5110012  97.6444997   0.3319988 104.6977790  98.4012437   0.7186263
 100.5340012 101.2674997  11.0679988  99.8920012 101.2264997  11.7769988
 100.5710012 102.1934997  10.8309988 100.4511324 101.3871559  11.1329824
 100.5310012 101.4884997   5.9799988  99.6380012 101.1474997   5.9219988
 100.9810012 101.1114997   5.2249988 100.4697305 101.3908484   5.8699177
 106.0660012 101.9044997   4.7969988 105.6570012 102.7194997   4.5059988
 106.7870012 101.7644997   4.1829988 106.1074537 101.9972018   4.6741342
 105.1680012 102.0794997  16.2849988 104.6060012 101.3754997  16.6059988
 105.9950012 101.9594997  16.7529988 105.2027095 101.9667883  16.3922330
 107.0710012 101.3504997   7.6109988 106.8760012 101.9554997   6.8959988
 107.2520012 100.5164997   7.1769988 107.0687614 101.3206300   7.4544405
  98.2840012 101.5874997  12.9349988  98.2460012 101.9874997  13.8039988
  97.7930012 100.7704997  13.0259988  98.2124684 101.5318069  13.0661059
 101.6500012  98.9614997  -0.2660012 101.2190012  98.5164997   0.4639988
 100.9320012  99.3334997  -0.7780012 101.4939438  98.9508940  -0.2353201
  94.8920012  98.7034997   6.7859988  95.5230012  98.6744997   7.5049988
  95.3410012  98.2784997   6.0559988  95.0390774  98.6420492   6.7856553
  96.1660012  99.4494997   2.2099988  96.6400012 100.0404997   1.6249988
  95.4490012  99.9804997   2.5569988  96.1339341  99.6020867   2.1768836
 106.3350012 102.9884997  12.2829988 106.6580012 102.3574997  11.6399988
 105.8950012 102.4534997  12.9429988 106.3196895 102.8298441  12.2842850
 103.1120012  98.9154997   7.0669988 102.2010012  98.9724997   7.3549988
 103.6180012  98.8554997   7.8769988 103.0555413  98.9151985   7.2160622
  97.9410012 100.5444997   5.8929988  97.0510012 100.6444997   5.5529988
  98.2370012  99.7024997   5.5469988  97.8592823 100.4443546   5.7997213
 101.5940012 100.5444997   3.5499988 102.5250012 100.6734997   3.7279988
 101.3790012 101.2144997   2.8999988 101.6924247 100.6526565   3.4865747
 107.5170012  98.1504997  10.3309988 106.8410012  98.2814997  10.9949988
 107.0320012  97.9954997   9.5209988 107.3587145  98.1474905  10.3124517
 100.2680012 101.7394997   1.1169988  99.7250012 101.3594997   0.4249988
 101.1010012 101.9334997   0.6879988 100.3064399 101.7138124   0.9644526
 110.8050012 113.8224997  16.6079988 111.0050012 114.2464997  15.7729988
 111.4600012 114.1654997  17.2149988 110.9210051 113.9269648  16.5757836
  98.4030012 106.2964997  16.2159988  99.1350012 106.5504997  16.7769988
  97.6230012 106.5004997  16.7309988  98.3978232 106.3589177  16.3625760
 104.4320012 101.7034997   8.9539988 104.9970012 101.1564997   8.4069988
 104.2850012 101.1814997   9.7419988 104.4892918 101.5582024   8.9858454
  99.4340012  97.8394997   5.3719988  99.1170012  96.9374997   5.3369988
 100.2160012  97.8414997   4.8189988  99.4962284  97.7161628   5.2924783
 103.0590012 100.0914997  11.3679988 102.2230012 100.5454997  11.4779988
 103.5830012 100.3674997  12.1199988 103.0154414 100.1909376  11.4847136
 103.6030012 106.3044997   3.0519988 102.8580012 105.7974997   2.7299988
 103.4690012 106.3534997   3.9989988 103.4828776 106.2416940   3.1358647
 110.7530012 105.4374997  11.8389988 111.3950012 105.8944997  11.2949988
 109.9230012 105.5504997  11.3759988 110.7285963 105.5152704  11.7020177
 107.5010012  99.1184997   1.2519988 106.5620012  99.2304997   1.0999988
 107.7980012  99.9754997   1.5579988 107.4127666  99.2496443   1.2725768
 105.1220012 106.4884997  14.2889988 104.7770012 106.1074997  15.0959988
 104.9220012 107.4224997  14.3609988 105.0478061 106.5625228  14.4090961
 108.2190012 100.9854997   2.9119988 109.1110012 100.8484997   3.2309988
 108.2760012 101.7764997   2.3759988 108.3486285 101.0736660   2.8831690
  98.7280012 105.5994997   8.8219988  99.4730012 105.5974997   8.2209988
  98.8060012 104.7764997   9.3039988  98.8405518 105.4879315   8.8048929
 105.7290012 107.7634997   2.0779988 105.4330012 108.5894997   2.4589988
 105.0260012 107.1434997   2.2739988 105.5934914 107.7928199   2.1566443
  95.7360012 104.0604997  14.1369988  95.9590012 103.6424997  14.9689988
  95.1340012 103.4474997  13.7139988  95.6851759 103.9204668  14.1937022
 102.7520012 103.5774997  16.3499988 102.4560012 103.4114997  15.4549988
 103.6840012 103.3574997  16.3389988 102.8374166 103.5250640  16.2260536
 107.3730012 108.9504997  14.2399988 106.4720012 109.1334997  13.9719988
 107.4070012 109.2094997  15.1609988 107.2543041 109.0105512  14.3278197
 113.1040012 101.1954997   2.6069988 112.5500012 100.7994997   1.9349988
 113.2040012 102.1054997   2.3289988 113.0417059 101.2643586   2.4774401
 113.0670012 106.9954997  15.4439988 112.2160012 107.2334997  15.0769988
 113.6580012 106.9784997  14.6909988 113.0302487 107.0258258  15.2918893
 111.3990012 109.9814997   3.0719988 111.0260012 109.1554997   3.3809988
 111.6770012 109.7984997   2.1749988 111.3855630 109.8437303   2.9929626
 108.5600012 104.7894997  10.0929988 107.6310012 104.5574997  10.0659988
 109.0110012 104.0124997   9.7629988 108.4939216 104.6527238  10.0446917
 101.1030012 109.1174997   6.2259988 101.6300012 109.8904997   6.0259988
 100.2230012 109.3424997   5.9249988 101.0561773 109.2538005   6.1579010
  96.8580012 103.9794997   0.8129988  97.4740012 104.6064997   1.1929988
  95.9960012 104.2954997   1.0849988  96.8257698 104.1079430   0.9017183
 102.5300012 106.7804997   5.8029988 102.2890012 107.7054997   5.8439988
 101.7890012 106.3214997   6.1989988 102.3968409 106.8451421   5.8621377
 103.0450012 110.9294997  12.1179988 103.4070012 111.7844997  11.8839988
 103.5760012 110.6374997  12.8579988 103.1664473 111.0071060  12.1860855
 101.2130012 111.8024997   5.3479988 100.2630012 111.9074997   5.3989988
 101.5650012 112.6224997   5.6929988 101.1304203 111.9278314   5.4016650
 106.5890012 107.0284997  11.8179988 106.1630012 106.8014997  12.6449988
 107.1690012 106.2904997  11.6359988 106.6091868 106.8975299  11.9065830
 108.7920012 107.9574997   0.8919988 109.1450012 107.5774997   1.6969988
 107.8430012 107.8644997   0.9789988 108.7120441 107.8929596   1.0138559
 109.2470012 111.5804997  14.2879988 108.6460012 111.0254997  13.7919988
 109.5290012 112.2474997  13.6619988 109.2028519 111.5946841  14.1354952
 113.2950012 112.4374997   1.0929988 114.0390012 113.0234997   0.9529988
 112.6010012 113.0054997   1.4269988 113.3030292 112.5945582   1.1189961
  97.3700012  98.8134997  13.6949988  96.4770012  99.1524997  13.6269988
  97.2710012  97.9584997  14.1129988  97.2344164  98.7442588  13.7422235
 109.6580012 106.6304997   3.1189988 109.3800012 105.9024997   3.6749988
 110.5850012 106.7494997   3.3239988 109.7453124 106.5468802   3.2228845
  97.0210012 110.6184997  12.1299988  97.2380012 109.6864997  12.0989988
  97.2670012 110.8924997  13.0129988  97.0839549 110.5280636  12.2451763
 102.8830012 109.0694997  -0.6610012 103.1220012 108.3214997  -1.2080012
 102.6140012 108.6814997   0.1719988 102.8793675 108.9146638  -0.6233135
 101.8200012 108.6394997   1.7959988 101.9660012 108.1194997   2.5859988
 101.8170012 109.5464997   2.1019988 101.8395989 108.6908853   1.9456088
  98.2730012 105.8924997   2.3059988  97.5870012 106.2444997   2.8729988
  98.7950012 106.6554997   2.0589988  98.2496852 106.0438578   2.3502118
 106.1040012  98.5544997  12.5849988 106.8030012  98.6284997  13.2349988
 105.7230012  97.6904997  12.7389988 106.1481767  98.4477624  12.6948322
 106.8890012  98.2064997   3.6819988 107.1090012  98.6784997   2.8789988
 107.4470012  98.6014997   4.3519988 106.9944968  98.3244285   3.6627331
 104.5570012 110.3374997   2.5449988 103.7410012 110.8344997   2.5969988
 105.0870012 110.8124997   1.9049988 104.5169161 110.4697722   2.4655956
 104.0890012  99.9344997   4.5169988 104.9010012 100.4394997   4.5629988
 103.8440012  99.7894997   5.4309988 104.1670520  99.9840375   4.6468517
 104.6240012 100.9204997  13.7019988 104.7430012 101.4944997  14.4589988
 105.2800012 100.2324997  13.8159988 104.7289757 100.9061079  13.8210825
 104.9720012  97.0154997   5.4549988 104.6260012  97.6334997   6.0999988
 105.6310012  97.5164997   4.9739988 105.0137826  97.1675802   5.4780971
 101.8960012 111.3814997   2.5269988 102.0560012 112.1804997   2.0259988
 101.6980012 111.6874997   3.4119988 101.8911649 111.5324469   2.5779815
 100.6300012  98.0784997   2.1419988 100.5470012  98.9674997   2.4889988
 101.5200012  97.8134997   2.3739988 100.7389469  98.1641430   2.2207626
 110.8290012  98.8274997  14.5369988 109.9120012  99.0904997  14.4489988
 111.1640012  98.8244997  13.6399988 110.7489900  98.8630224  14.4037919
 109.4310012 102.5784997   8.6319988 108.6330012 102.1634997   8.3039988
 109.8760012 101.8874997   9.1229988 109.3819885 102.4283543   8.6534889
  98.8890012 108.5064997   1.2029988  99.4810012 109.2054997   1.4789988
  99.3480012 108.0734997   0.4829988  99.0321142 108.5437049   1.1434830
  97.2050012 101.1704997   0.3189988  97.1600012 102.1094997   0.4969988
  96.3170012 100.9344997   0.0489988  97.0788574 101.2671892   0.3068912
 110.5170012 111.8344997  10.2549988 110.3620012 112.5124997   9.5979988
 111.4500012 111.9064997  10.4579988 110.6218500 111.9370170  10.1925119
  98.0130012  95.9524997   8.9919988  97.7840012  96.0114997   8.0639988
  97.5700012  95.1604997   9.2979988  97.9218530  95.8535753   8.9064786
  96.9430012 109.8924997   5.1519988  96.1110012 110.3654997   5.1799988
  97.4890012 110.4024997   4.5539988  96.9029739 110.0261871   5.0749716
  96.2310012 112.5054997  16.4819988  96.7720012 112.2884997  17.2419988
  95.7500012 111.6994997  16.2929988  96.2399345 112.3669514  16.5603076
 100.8290012 111.4244997  18.1029988 101.5960012 110.9654997  18.4439988
 100.8070012 111.1984997  17.1729988 100.9311434 111.3310409  18.0240043
 104.9210012 110.9324997  -0.5220012 104.2770012 110.3014997  -0.2010012
 105.6830012 110.4014997  -0.7540012 104.9358077 110.7742920  -0.5093989
 107.4060012 109.8044997  16.8319988 107.0550012 108.9484997  17.0749988
 108.1320012 109.9474997  17.4389988 107.4560769 109.7065636  16.9473619
 109.5250012 110.7494997  -0.2880012 109.8080012 109.9554997   0.1639988
 110.2650012 110.9824997  -0.8490012 109.6637486 110.6722803  -0.3019302
  96.1380012 106.3154997  17.4369988  96.2820012 105.4134997  17.1499988
  95.3660012 106.6014997  16.9489988  96.0533322 106.2308261  17.3317881
 100.4800012 106.6594997  -0.4310012 100.5440012 105.8654997   0.0999988
 101.1330012 106.5404997  -1.1210012 100.5770241 106.5347148  -0.4515683
 102.7940012 106.2854997  16.8689988 102.4650012 106.5564997  16.0119988
 102.9460012 105.3444997  16.7819988 102.7694809 106.1953862  16.7398244
 105.8320012 107.7064997  -0.6950012 105.5630012 107.8864997   0.2059988
 105.6260012 106.7804997  -0.8260012 105.7673825 107.6060152  -0.5894786
 108.5280012 106.2014997  14.2529988 109.2740012 106.7894997  14.1329988
 107.7710012 106.7834997  14.3159988 108.5277554 106.3607011  14.2450907
  96.9710012 103.5154997  16.8569988  97.3790012 102.6584997  16.7359988
  96.7110012 103.5304997  17.7779988  96.9917568 103.4000807  16.9649588
 101.6290012 104.6314997   1.8749988 101.1690012 104.1474997   2.5609988
 101.8840012 103.9634997   1.2389988 101.6004902 104.4748731   1.8829334
 100.9180012 102.5244997  14.2309988 100.3000012 103.1994997  14.5109988
 101.2620012 102.8454997  13.3979988 100.8799615 102.6602721  14.1566581
 102.7000012 102.8744997   0.1369988 102.5200012 102.7204997  -0.7900012
 103.6500012 102.9824997   0.1819988 102.8037776 102.8680175   0.0161843
 105.9380012 104.9964997  17.5079988 106.8910012 105.0794997  17.4809988
 105.7770012 104.2844997  18.1279988 106.0466426 104.9116746  17.5880579
 112.0900012 105.2294997  -0.4170012 111.8160012 104.8044997  -1.2300012
 112.1290012 106.1604997  -0.6340012 112.0577699 105.2972484  -0.5576390
 101.2570012  99.8794997  15.3129988 101.4070012  99.1504997  14.7109988
 101.2600012 100.6564997  14.7539988 101.2779302  99.8847851  15.1550692
 101.6700012  98.2494997  12.8059988 102.2060012  98.7004997  12.1539988
 100.8180012  98.1414997  12.3829988 101.6282178  98.2966390  12.6595756
 103.2520012 103.6884997  13.0449988 104.0020012 103.5324997  12.4719988
 102.9130012 104.5404997  12.7699988 103.3088921 103.7822968  12.9293561
 107.6670012 101.5034997  18.0739988 107.8600012 100.5724997  17.9619988
 108.5250012 101.9284997  18.0639988 107.8093020 101.4336389  18.0573361
 108.9840012 104.2924997  16.1509988 108.7030012 105.0014997  15.5739988
 109.9270012 104.2194997  15.9999988 109.0729027 104.3797646  16.0515551
  99.7360012 101.0774997  17.2249988  98.9690012 100.5454997  17.0149988
 100.4150012 100.7674997  16.6249988  99.7227022 100.9627506  17.1151648
 102.4760012  95.7054997  13.2369988 102.3770012  96.6524997  13.1319988
 101.7330012  95.3334997  12.7619988 102.3620564  95.7845902  13.1584560
 103.7400012 100.0274997  16.8009988 103.5040012  99.8074997  17.7029988
 102.9560012  99.8204997  16.2909988 103.6018628  99.9694760  16.8553932
 106.4550012  99.1544997  15.8769988 105.5080012  99.1864997  16.0089988
 106.7680012  98.5294997  16.5299988 106.3675475  99.0743207  15.9834455
 108.0890012  97.7884997  17.8819988 107.9930012  96.8364997  17.8759988
 107.7680012  98.0574997  18.7419988 108.0324070  97.6944035  17.9975441
  97.9160012  98.9984997  16.9289988  98.1280012  98.2914997  16.3189988
  97.8050012  98.5604997  17.7729988  97.9299721  98.8427084  16.9596843
 102.6970012  94.9994997  15.9089988 103.4090012  94.3594997  15.8949988
 102.5960012  95.2664997  14.9949988 102.7807939  94.9479938  15.7835650
 103.0510012  96.6824997  17.9619988 102.9190012  96.2064997  17.1419988
 102.4520012  97.4264997  17.9069988 102.9519071  96.7179618  17.8422886
 102.5970012 113.5654997   1.1389988 103.5300012 113.7234997   1.2819988
 102.3330012 114.2404997   0.5139988 102.6889510 113.6783611   1.0740741
  96.1660012 108.2014997   0.6209988  97.0800012 108.2804997   0.8949988
  96.1730012 107.5144997  -0.0450012  96.2921131 108.1193961   0.5684393
  94.8150012 113.5944997   5.6989988  94.1680012 113.1324997   5.1659988
  95.1690012 112.9224997   6.2809988  94.7743849 113.4404723   5.7047959
  95.6850012 111.6754997   7.5029988  95.3500012 110.7954997   7.6749988
  95.9070012 112.0204997   8.3679988  95.6691783 111.6017500   7.6434208
 113.2330012 112.4844997  10.4839988 113.2120012 112.6694997  11.4229988
 113.9240012 113.0534997  10.1429988 113.3234618 112.5866606  10.5663864
 112.7970012 112.0524997  13.4059988 112.3090012 111.3164997  13.0349988
 113.3460012 111.6584997  14.0839988 112.8044872 111.8986249  13.4469160
 111.2470012 107.8414997  18.0439988 110.3810012 107.7364997  18.4379988
 111.6240012 108.6004997  18.4899988 111.1793308 107.9296900  18.1582393
 112.5480012 106.0984997   3.5579988 113.3980012 106.5194997   3.6849988
 112.5540012 105.3584997   4.1649988 112.6651372 106.0560803   3.6574344
 112.9430012 104.1514997   5.3819988 112.2160012 103.6724997   5.7789988
 113.5240012 104.3574997   6.1139988 112.9219375 104.1137090   5.5354129
 112.7020012 106.9364997  10.3289988 113.5350012 106.5584997  10.0489988
 112.8140012 107.8794997  10.2099988 112.8312647 107.0122218  10.2745487
 111.1880012 109.8144997  12.6359988 110.5410012 110.1394997  13.2619988
 110.6710012 109.3744997  11.9619988 111.0294029 109.7995004  12.6305827
 113.2110012 104.0524997   1.7729988 112.6890012 104.4094997   1.0539988
 113.1780012 104.7274997   2.4509988 113.1351634 104.1925413   1.7663145
 111.5600012 101.2924997   0.3239988 111.6560012 101.9594997  -0.3570012
 111.4200012 100.4764997  -0.1580012 111.5542135 101.2734500   0.1658491
 110.7290012 102.6724997   5.9449988 110.5790012 101.7274997   5.9239988
 110.3760012 102.9534997   6.7879988 110.6606625 102.5810441   6.0562346
  95.7650012 104.7504997   9.9549988  95.9490012 104.6684997   9.0189988
  96.6140012 104.6264997  10.3789988  95.9050139 104.7225003   9.8841455
 111.5860012 104.6424997  15.5829988 112.1690012 103.9084997  15.7749988
 112.1500012 105.4144997  15.6299988 111.7419769 104.6464227  15.6156159
 113.0820012 102.5454997  16.2679988 112.2190012 102.1664997  16.1019988
 113.6870012 101.8064997  16.1939988 113.0455979 102.3938023  16.2352817
 110.8070012  98.7004997  -0.5590012 111.4180012  98.3294997   0.0779988
 109.9710012  98.2794997  -0.3630012 110.7775032  98.5927554  -0.4452965
 110.4400012 100.2554997   4.4069988 110.7200012  99.3484997   4.5309988
 111.1990012 100.6894997   4.0179988 110.5809277 100.1900942   4.3713682
 111.0520012 100.8364997   9.8429988 111.9850012 101.0484997   9.8089988
 110.8170012 100.9384997  10.7649988 111.1478036 100.8792769   9.9629976
 111.0810012 101.5734997  12.6189988 110.2380012 101.8414997  12.9849988
 111.5230012 102.3954997  12.4079988 111.0254158 101.7213291  12.6405491
  95.3620012 100.0214997  16.0959988  96.2820012  99.8994997  16.3319988
  94.9130012  99.2714997  16.4849988  95.4271580  99.9033727  16.1809006
 113.3640012  95.5534997  17.9719988 113.7140012  94.8994997  17.3669988
 113.5110012  96.3904997  17.5329988 113.4318419  95.5771591  17.8297118
 111.0530012  97.5184997   4.4549988 111.2360012  97.0694997   5.2809988
 110.4540012  96.9334997   3.9919988 110.9970202  97.3779975   4.5053275
  96.5830012  98.3334997   8.9869988  97.0290012  97.5414997   9.2889988
  97.0500012  99.0494997   9.4179988  96.7070172  98.3220624   9.0864820
  94.8870012 101.3324997  10.0559988  95.3790012 101.1114997   9.2649988
  95.2500012 102.1734997  10.3369988  95.0033126 101.4158357   9.9857531
 112.8840012  97.6624997  16.3219988 111.9660012  97.9334997  16.2859988
 113.0070012  97.1274997  15.5369988 112.7751066  97.6272892  16.2110487
 112.9200012  97.5854997   0.9829988 113.3320012  96.8644997   0.5079988
 113.6020012  98.2554997   1.0419988 113.0685885  97.5772368   0.9258915
  95.2010012  97.5904997   4.1099988  94.2760012  97.7994997   3.9809988
  95.6550012  98.0744997   3.4209988  95.1357368  97.6845993   3.9991226
 109.9720012 112.5744997   6.0559988 110.6240012 112.2274997   5.4479988
 110.4820012 113.0634997   6.7019988 110.1302637 112.5930597   6.0600236
  95.1650012  96.3284997  12.4549988  94.5000012  96.0824997  13.0979988
  94.7220012  96.9504997  11.8769988  95.0140956  96.3788632  12.4649352
  97.3570012 109.5034997  16.5989988  96.5360012 109.6784997  16.1389988
  97.1040012 109.4304997  17.5199988  97.2106164 109.5175622  16.6604923
 100.3110012 110.4784997  12.8579988  99.8860012 111.2874997  12.5749988
 101.2150012 110.5634997  12.5559988 100.3750271 110.6008469  12.7783776
 104.6220012 111.8774997  15.8169988 104.8070012 111.5434997  16.6949988
 105.4680012 112.1864997  15.4949988 104.7617539 111.8736047  15.8935605
 106.9670012 113.1634997  15.0609988 107.6440012 112.5304997  14.8209988
 107.2890012 113.5644997  15.8679988 107.1031637 113.1311154  15.1372793
 111.8840012  95.7524997  14.1409988 111.0720012  96.0774997  13.7529988
 112.1170012  94.9924997  13.6079988 111.8043423  95.6942436  14.0158253
  97.7130012 113.7344997  12.9049988  96.9920012 114.1744997  12.4539988
  97.3470012 113.4834997  13.7539988  97.5649804 113.7607698  12.9579840
 100.1800012 113.3344997  11.9349988  99.3150012 113.4064997  12.3389988
 100.1250012 113.8814997  11.1509988 100.0542085 113.4182685  11.8843362
 104.8900012 113.2224997  11.1099988 104.4340012 113.7514997  10.4559988
 105.0530012 113.8254997  11.8359988 104.8495585 113.3764468  11.1185062
 107.2180012 112.1004997  12.0549988 106.3130012 112.2654997  11.7899988
 107.6470012 112.9534997  11.9899988 107.1520799 112.2384483  12.0099182
 109.8220012 113.6704997  12.3499988 109.6400012 114.5864997  12.1399988
 109.9990012 113.2604997  11.5039988 109.8210210 113.7404822  12.2067885
  97.1270012 112.3574997   9.8149988  97.1090012 111.9324997  10.6729988
  97.9320012 112.0394997   9.4069988  97.2333875 112.2563812   9.8771655
  99.2690012 111.0674997   8.4699988  99.0500012 110.1514997   8.6399988
 100.0930012 111.2074997   8.9359988  99.3504420 110.9610520   8.5562774
 101.8060012 111.5374997   9.3189988 102.0190012 110.6494997   9.0319988
 101.8700012 111.5034997  10.2729988 101.8438232 111.4113102   9.4087397
 105.3140012  97.2014997   8.4629988 104.6400012  96.5724997   8.7189988
 105.8780012  96.7174997   7.8599988 105.2979230  97.0498744   8.4165340
 110.4570012  95.3094997   8.5759988 111.0610012  95.8564997   8.0739988
 109.5870012  95.6284997   8.3359988 110.4221241  95.4275806   8.4747654
 112.1840012  96.4474997   6.9089988 112.7960012  95.9334997   6.3829988
 112.5660012  97.3254997   6.9329988 112.3194540  96.4957140   6.8401830
  97.6410012  95.8354997   6.2849988  96.8640012  95.6014997   5.7779988
  98.1710012  95.0384997   6.2939988  97.6062330  95.6956988   6.2167742
  96.4770012  95.6334997   2.0889988  96.9160012  96.2444997   1.4969988
  95.8440012  96.1714997   2.5629988  96.4514514  95.7899257   2.0720930
 102.2200012  95.7624997   6.0989988 103.0950012  96.1504997   6.0689988
 102.0840012  95.5474997   7.0209988 102.3213695  95.7865184   6.2196440
 107.7770012  95.7924997   7.7479988 107.8530012  95.8874997   6.7979988
 107.5020012  94.8844997   7.8769988 107.7502321  95.6827867   7.6355079
 109.1300012  95.8184997   3.4399988 108.4280012  96.4334997   3.2309988
 108.6860012  94.9804997   3.5709988 108.9736330  95.7895783   3.4290328
  96.3780012 111.5814997   2.9869988  95.6930012 111.5434997   2.3189988
  96.3820012 112.4944997   3.2749988  96.2848193 111.6997016   2.9345284
  98.3380012  97.5494997   0.5309988  98.8300012  96.9194997   0.0039988
  98.9620012  97.8454997   1.1949988  98.4895446  97.5033199   0.5485980
 103.3640012  97.8424997   2.9879988 103.5420012  97.1964997   3.6709988
 103.3110012  98.6764997   3.4559988 103.3811829  97.8667985   3.1445940
 105.2430012 112.7914997   1.3839988 106.1090012 113.1574997   1.2059988
 104.9960012 112.3514997   0.5699988 105.3282392 112.7821756   1.2496289
 111.9520012 112.3544997   4.0629988 111.7570012 111.6064997   3.4979988
 111.9130012 113.1124997   3.4799988 111.9200380 112.3546099   3.9068384
  97.5990012  96.3494997  15.8029988  97.2330012  95.5844997  16.2459988
  98.5120012  96.3784997  16.0899988  97.6722790  96.2487224  15.9024070
  99.5720012  95.7004997  17.3389988 100.4700012  95.4264997  17.1539988
  99.1850012  94.9574997  17.8029988  99.6426612  95.5625914  17.3763643
  98.1960012 112.5014997   0.0119988  97.9290012 112.7884997   0.8849988
  98.9680012 111.9554997   0.1639988  98.2637488 112.4670294   0.1521050
 107.9930012  95.0324997  17.5209988 108.0700012  94.6064997  18.3749988
 108.8870012  95.0464997  17.1779988 108.1243428  94.9760879  17.5915310
 111.1690012 111.1054997  16.2129988 110.3870012 110.9194997  15.6939988
 111.0970012 112.0344997  16.4309988 111.0521777 111.2056492  16.1714048
 125.5750012 104.9914997   6.2439988 125.6640012 105.9354997   6.1119988
 124.9370012 104.7164997   5.5859988 125.5009081 105.0834830   6.1369614
 124.5080012 104.2464997   9.6629988 124.4700012 103.6004997  10.3679988
 124.1860012 103.7804997   8.8919988 124.4592333 104.0949408   9.6552978
 116.8770012 103.8614997  11.2559988 116.9180012 103.2354997  11.9789988
 117.5800012 104.4854997  11.4379988 116.9776363 103.8601196  11.3796044
 128.2140012 107.1854997   7.9639988 127.7740012 106.4654997   8.4149988
 128.2010012 107.9064997   8.5939988 128.1520226 107.1843731   8.1108494
 117.8000012 108.3114997   9.7909988 117.4310012 107.5094997   9.4209988
 118.7410012 108.1424997   9.8369988 117.8767289 108.1790153   9.7466316
 114.4100012 101.9714997   5.1839988 113.9630012 102.8174997   5.1649988
 113.8490012 101.3914997   4.6679988 114.2729900 102.0089916   5.1116801
 115.1210012 104.1334997   7.3099988 115.3340012 103.3634997   7.8369988
 115.8590012 104.2224997   6.7059988 115.2498496 104.0401394   7.3005300
 125.3260012 112.2904997   8.1769988 125.9460012 111.6134997   7.9029988
 125.1180012 112.0724997   9.0849988 125.3826904 112.1683870   8.2623365
 122.8980012 106.6794997  10.0689988 123.2020012 105.9934997   9.4739988
 123.6190012 106.7974997  10.6869988 123.0370671 106.6016305  10.0711816
 131.5610012  98.2804997  10.9299988 131.6100012  98.8904997  11.6659988
 131.9860012  98.7414997  10.2069988 131.6251824  98.4263741  10.9330205
 126.0390012 101.0734997  10.3969988 126.1810012 100.1274997  10.4169988
 125.9320012 101.2804997   9.4679988 126.0439863 100.9719534  10.2742339
 119.1930012  99.1744997   7.6689988 119.2370012 100.0344997   7.2509988
 118.7360012  98.6224997   7.0349988 119.1372185  99.2175799   7.5260299
 126.9160012  99.3054997   6.0699988 127.5620012  98.9764997   6.6949988
 127.4260012  99.8234997   5.4469988 127.0734264  99.3304611   6.0713862
 115.8140012 101.5714997   8.4309988 116.4670012 101.0214997   8.8629988
 115.8380012 101.2974997   7.5139988 115.9066683 101.4591466   8.3662123
 120.9700012 103.1214997   7.6459988 121.5860012 102.5954997   8.1559988
 120.3840012 102.4814997   7.2429988 120.9750810 102.9629208   7.6613173
 131.9520012  99.7584997  13.1659988 131.2640012 100.4164997  13.0699988
 131.9680012  99.5614997  14.1019988 131.8598525  99.8220462  13.2794808
 118.0040012  98.0924997  11.7429988 117.7850012  98.6224997  10.9769988
 117.3360012  98.3194997  12.3899988 117.8837600  98.1956906  11.7256379
 125.3730012 107.5924997   5.2869988 125.0770012 107.2704997   4.4359988
 125.0480012 108.4924997   5.3279988 125.2886371 107.6700215   5.1761801
 120.5730012 105.7684997  12.0299988 119.8330012 106.3664997  12.1339988
 121.2870012 106.3224997  11.7149988 120.5682237 105.9252831  12.0016465
 128.6800012  98.5964997   8.0499988 128.4640012  97.8304997   8.5829988
 129.3350012  99.0684997   8.5629988 128.7390632  98.5555889   8.1922861
 117.5970012  99.9844997   9.6949988 118.2110012 100.6174997  10.0689988
 118.1090012  99.5124997   9.0389988 117.7502296 100.0072370   9.6574252
 118.9800012 107.7324997  12.8179988 118.9750012 108.6124997  12.4399988
 118.1270012 107.6494997  13.2429988 118.8639464 107.8416117  12.8237907
 115.1010012 107.4034997   3.5999988 114.8290012 107.6324997   2.7109988
 115.1470012 108.2414997   4.0599988 115.0700094 107.5481213   3.5405697
 128.7260012 109.0254997  10.3119988 127.7850012 109.0834997  10.4739988
 129.0030012 109.9314997  10.1749988 128.6344679 109.1559443  10.3156815
 129.0270012  97.3114997  11.7299988 128.2910012  97.9224997  11.6919988
 129.7100012  97.7264997  11.2029988 129.0186541  97.4511374  11.6535832
 122.0300012  95.3984997   9.1959988 121.9130012  94.4494997   9.1409988
 121.1750012  95.7304997   9.4689988 121.8983733  95.3135409   9.2253897
 126.9780012 110.8064997   6.9379988 127.4040012 110.0994997   6.4529988
 127.2950012 111.6074997   6.5209988 127.0791019 110.8180994   6.8153130
 128.1380012 108.7074997   5.4459988 127.8800012 108.0174997   4.8349988
 128.2090012 108.2644997   6.2919988 128.1122856 108.5532124   5.4766885
 129.8240012 107.2734997  13.9239988 129.9640012 106.6824997  13.1839988
 129.9910012 108.1464997  13.5669988 129.8656778 107.3106426  13.7746965
 124.2970012 104.2354997   3.6959988 123.5850012 104.7704997   3.3439988
 124.9880012 104.2914997   3.0359988 124.2930132 104.3162543   3.5586289
 124.3500012 102.6934997   0.7349988 125.0510012 102.7154997   1.3859988
 124.6530012 102.0654997   0.0789988 124.4867830 102.6116566   0.7353711
 131.6660012 103.6134997  11.9899988 131.0130012 104.3084997  12.0789988
 132.1310012 103.8234997  11.1799988 131.6395390 103.7369425  11.8926883
 127.7020012 104.4454997   4.6479988 126.9700012 104.6734997   5.2209988
 128.1500012 103.7314997   5.1029988 127.6623095 104.3802571   4.7879119
 127.6000012 102.6194997  13.7149988 127.6800012 103.3824997  14.2869988
 126.9980012 102.8984997  13.0249988 127.5295756 102.7617134  13.7000589
 119.3480012 105.0754997   6.5299988 119.0170012 104.7054997   5.7119988
 119.9360012 104.4054997   6.8769988 119.3821873 104.9341156   6.4648102
 120.7140012 108.5034997   9.2119988 120.6200012 107.9254997   8.4549988
 121.4440012 108.1324997   9.7079988 120.7997981 108.3742390   9.1754165
 119.7140012 103.8444997  10.1639988 120.2800012 103.9654997   9.4009988
 120.0330012 104.4814997  10.8029988 119.8345786 103.9471884  10.1460040
 126.0230012 109.3474997  10.8979988 125.7830012 110.0094997  11.5459988
 125.8250012 108.5134997  11.3229988 125.9633808 109.3253134  11.0441524
 120.5940012 108.2434997  14.8809988 120.2830012 109.0254997  15.3359988
 119.9440012 108.0904997  14.1949988 120.4635558 108.3299105  14.8505871
 126.5730012 103.6074997   2.3329988 127.1530012 103.7574997   3.0799988
 126.9870012 104.0784997   1.6099988 126.7082830 103.6916841   2.3374134
 117.5140012 104.4414997  14.1099988 117.5850012 105.0924997  14.8079988
 116.6240012 104.5444997  13.7749988 117.4033117 104.5445936  14.1602700
 124.3000012 110.3444997   5.7679988 124.7740012 110.6394997   6.5459988
 123.7370012 111.0824997   5.5349988 124.2887653 110.4846932   5.8430136
 118.8340012 110.3154997  15.6439988 118.8410012 110.1794997  14.6969988
 117.9180012 110.1974997  15.8959988 118.7111714 110.2809430  15.5484666
 130.2720012  95.3574997   2.1459988 129.3720012  95.4964997   2.4409988
 130.5240012  96.1884997   1.7439988 130.1828702  95.4889074   2.1320205
 118.3380012 104.1454997   4.1199988 118.0460012 104.9134997   3.6289988
 117.6640012 103.4854997   3.9569988 118.2069081 104.1614406   4.0307340
 131.4610012 109.7234997   0.5219988 131.5350012 110.6624997   0.6929988
 132.3670012 109.4184997   0.4659988 131.5935100 109.8106722   0.5378119
 114.4310012 106.5084997  12.9349988 113.9300012 106.4804997  12.1199988
 114.4360012 105.6024997  13.2439988 114.3631526 106.3822278  12.8652872
 114.1810012 109.2884997   9.8189988 115.1270012 109.1444997   9.7999988
 114.0690012 110.0724997  10.3559988 114.2952727 109.3748046   9.8890072
 132.3790012 109.9544997  15.5009988 132.3300012 108.9994997  15.4639988
 131.5520012 110.2224997  15.9019988 132.2604940 109.8598998  15.5501375
 123.3580012 109.5284997  14.3769988 123.4450012 110.3544997  14.8519988
 122.4940012 109.1984997  14.6259988 123.2531964 109.5969878  14.4756549
 123.7720012 113.3004997   4.1829988 123.6970012 113.1794997   3.2369988
 123.8050012 114.2504997   4.3019988 123.7661848 113.4122500   4.0694834
 117.4250012 112.0894997   5.9639988 117.5780012 111.7414997   6.8429988
 116.5750012 111.7334997   5.7089988 117.3308962 111.9936650   6.0498340
 126.8740012 112.4544997   1.1849988 127.2490012 111.7104997   0.7149988
 126.8780012 112.1844997   2.1039988 126.9258915 112.3161486   1.2447824
 126.5430012 112.3804997   3.9349988 125.6070012 112.4804997   4.1129988
 126.8230012 111.6714997   4.5129988 126.4528255 112.2982711   4.0375391
 129.5310012 101.4474997  15.9809988 129.1240012 101.9284997  15.2599988
 129.5720012 100.5424997  15.6729988 129.4808437 101.3909374  15.8406683
 116.6800012 107.8314997  13.9779988 116.8960012 107.4704997  14.8369988
 115.8250012 107.4574997  13.7679988 116.5939292 107.7314111  14.0673386
 119.2990012  96.3014997   9.9729988 118.4370012  96.2144997   9.5659988
 119.2760012  97.1574997  10.4009988 119.1780330  96.4052765   9.9751863
 123.9620012  96.0234997  13.3479988 124.3820012  95.6084997  14.1009988
 123.0290012  95.8454997  13.4649988 123.8933644  95.9425900  13.4669539
 127.2880012  99.7794997  14.2009988 126.7740012  99.6534997  14.9989988
 127.1330012 100.6914997  13.9569988 127.1966852  99.8856132  14.2772158
 128.0510012 104.6404997  -0.0370012 128.0930012 104.4174997  -0.9670012
 128.9000012 105.0394997   0.1529988 128.1715396 104.6639155  -0.1386373
 123.6230012  98.5164997   0.6329988 123.3700012  98.5354997   1.5559988
 123.3670012  97.6444997   0.3319988 123.5537790  98.4012437   0.7186263
 119.3900012 101.2674997  11.0679988 118.7480012 101.2264997  11.7769988
 119.4270012 102.1934997  10.8309988 119.3071324 101.3871559  11.1329824
 119.3870012 101.4884997   5.9799988 118.4940012 101.1474997   5.9219988
 119.8370012 101.1114997   5.2249988 119.3257305 101.3908484   5.8699177
 124.9220012 101.9044997   4.7969988 124.5130012 102.7194997   4.5059988
 125.6430012 101.7644997   4.1829988 124.9634537 101.9972018   4.6741342
 124.0240012 102.0794997  16.2849988 123.4620012 101.3754997  16.6059988
 124.8510012 101.9594997  16.7529988 124.0587095 101.9667883  16.3922330
 125.9270012 101.3504997   7.6109988 125.7320012 101.9554997   6.8959988
 126.1080012 100.5164997   7.1769988 125.9247614 101.3206300   7.4544405
 117.1400012 101.5874997  12.9349988 117.1020012 101.9874997  13.8039988
 116.6490012 100.7704997  13.0259988 117.0684684 101.5318069  13.0661059
 120.5060012  98.9614997  -0.2660012 120.0750012  98.5164997   0.4639988
 119.7880012  99.3334997  -0.7780012 120.3499438  98.9508940  -0.2353201
 113.7480012  98.7034997   6.7859988 114.3790012  98.6744997   7.5049988
 114.1970012  98.2784997   6.0559988 113.8950774  98.6420492   6.7856553
 115.0220012  99.4494997   2.2099988 115.4960012 100.0404997   1.6249988
 114.3050012  99.9804997   2.5569988 114.9899341  99.6020867   2.1768836
 125.1910012 102.9884997  12.2829988 125.5140012 102.3574997  11.6399988
 124.7510012 102.4534997  12.9429988 125.1756895 102.8298441  12.2842850
 121.9680012  98.9154997   7.0669988 121.0570012  98.9724997   7.3549988
 122.4740012  98.8554997   7.8769988 121.9115413  98.9151985   7.2160622
 116.7970012 100.5444997   5.8929988 115.9070012 100.6444997   5.5529988
 117.0930012  99.7024997   5.5469988 116.7152823 100.4443546   5.7997213
 120.4500012 100.5444997   3.5499988 121.3810012 100.6734997   3.7279988
 120.2350012 101.2144997   2.8999988 120.5484247 100.6526565   3.4865747
 126.3730012  98.1504997  10.3309988 125.6970012  98.2814997  10.9949988
 125.8880012  97.9954997   9.5209988 126.2147145  98.1474905  10.3124517
 119.1240012 101.7394997   1.1169988 118.5810012 101.3594997   0.4249988
 119.9570012 101.9334997   0.6879988 119.1624399 101.7138124   0.9644526
 129.6610012 113.8224997  16.6079988 129.8610012 114.2464997  15.7729988
 130.3160012 114.1654997  17.2149988 129.7770051 113.9269648  16.5757836
 117.2590012 106.2964997  16.2159988 117.9910012 106.5504997  16.7769988
 116.4790012 106.5004997  16.7309988 117.2538232 106.3589177  16.3625760
 123.2880012 101.7034997   8.9539988 123.8530012 101.1564997   8.4069988
 123.1410012 101.1814997   9.7419988 123.3452918 101.5582024   8.9858454
 118.2900012  97.8394997   5.3719988 117.9730012  96.9374997   5.3369988
 119.0720012  97.8414997   4.8189988 118.3522284  97.7161628   5.2924783
 121.9150012 100.0914997  11.3679988 121.0790012 100.5454997  11.4779988
 122.4390012 100.3674997  12.1199988 121.8714414 100.1909376  11.4847136
 122.4590012 106.3044997   3.0519988 121.7140012 105.7974997   2.7299988
 122.3250012 106.3534997   3.9989988 122.3388776 106.2416940   3.1358647
 129.6090012 105.4374997  11.8389988 130.2510012 105.8944997  11.2949988
 128.7790012 105.5504997  11.3759988 129.5845963 105.5152704  11.7020177
 126.3570012  99.1184997   1.2519988 125.4180012  99.2304997   1.0999988
 126.6540012  99.9754997   1.5579988 126.2687666  99.2496443   1.2725768
 123.9780012 106.4884997  14.2889988 123.6330012 106.1074997  15.0959988
 123.7780012 107.4224997  14.3609988 123.9038061 106.5625228  14.4090961
 127.0750012 100.9854997   2.9119988 127.9670012 100.8484997   3.2309988
 127.1320012 101.7764997   2.3759988 127.2046285 101.0736660   2.8831691
 117.5840012 105.5994997   8.8219988 118.3290012 105.5974997   8.2209988
 117.6620012 104.7764997   9.3039988 117.6965518 105.4879315   8.8048929
 124.5850012 107.7634997   2.0779988 124.2890012 108.5894997   2.4589988
 123.8820012 107.1434997   2.2739988 124.4494914 107.7928199   2.1566443
 114.5920012 104.0604997  14.1369988 114.8150012 103.6424997  14.9689988
 113.9900012 103.4474997  13.7139988 114.5411759 103.9204668  14.1937022
 121.6080012 103.5774997  16.3499988 121.3120012 103.4114997  15.4549988
 122.5400012 103.3574997  16.3389988 121.6934166 103.5250640  16.2260536
 126.2290012 108.9504997  14.2399988 125.3280012 109.1334997  13.9719988
 126.2630012 109.2094997  15.1609988 126.1103041 109.0105512  14.3278197
 131.9600012 101.1954997   2.6069988 131.4060012 100.7994997   1.9349988
 132.0600012 102.1054997   2.3289988 131.8977059 101.2643586   2.4774401
 131.9230012 106.9954997  15.4439988 131.0720012 107.2334997  15.0769988
 132.5140012 106.9784997  14.6909988 131.8862487 107.0258258  15.2918893
 130.2550012 109.9814997   3.0719988 129.8820012 109.1554997   3.3809988
 130.5330012 109.7984997   2.1749988 130.2415630 109.8437303   2.9929626
 127.4160012 104.7894997  10.0929988 126.4870012 104.5574997  10.0659988
 127.8670012 104.0124997   9.7629988 127.3499216 104.6527238  10.0446917
 119.9590012 109.1174997   6.2259988 120.4860012 109.8904997   6.0259988
 119.0790012 109.3424997   5.9249988 119.9121773 109.2538005   6.1579010
 115.7140012 103.9794997   0.8129988 116.3300012 104.6064997   1.1929988
 114.8520012 104.2954997   1.0849988 115.6817698 104.1079430   0.9017183
 121.3860012 106.7804997   5.8029988 121.1450012 107.7054997   5.8439988
 120.6450012 106.3214997   6.1989988 121.2528409 106.8451421   5.8621377
 121.9010012 110.9294997  12.1179988 122.2630012 111.7844997  11.8839988
 122.4320012 110.6374997  12.8579988 122.0224473 111.0071060  12.1860855
 120.0690012 111.8024997   5.3479988 119.1190012 111.9074997   5.3989988
 120.4210012 112.6224997   5.6929988 119.9864203 111.9278314   5.4016650
 125.4450012 107.0284997  11.8179988 125.0190012 106.8014997  12.6449988
 126.0250012 106.2904997  11.6359988 125.4651868 106.8975299  11.9065830
 127.6480012 107.9574997   0.8919988 128.0010012 107.5774997   1.6969988
 126.6990012 107.8644997   0.9789988 127.5680441 107.8929596   1.0138559
 128.1030012 111.5804997  14.2879988 127.5020012 111.0254997  13.7919988
 128.3850012 112.2474997  13.6619988 128.0588519 111.5946841  14.1354952
 132.1510012 112.4374997   1.0929988 132.8950012 113.0234997   0.9529988
 131.4570012 113.0054997   1.4269988 132.1590292 112.5945582   1.1189961
 116.2260012  98.8134997  13.6949988 115.3330012  99.1524997  13.6269988
 116.1270012  97.9584997  14.1129988 116.0904164  98.7442588  13.7422235
 128.5140012 106.6304997   3.1189988 128.2360012 105.9024997   3.6749988
 129.4410012 106.7494997   3.3239988 128.6013124 106.5468802   3.2228845
 115.8770012 110.6184997  12.1299988 116.0940012 109.6864997  12.0989988
 116.1230012 110.8924997  13.0129988 115.9399549 110.5280636  12.2451763
 121.7390012 109.0694997  -0.6610012 121.9780012 108.3214997  -1.2080012
 121.4700012 108.6814997   0.1719988 121.7353675 108.9146638  -0.6233135
 120.6760012 108.6394997   1.7959988 120.8220012 108.1194997   2.5859988
 120.6730012 109.5464997   2.1019988 120.6955989 108.6908853   1.9456088
 117.1290012 105.8924997   2.3059988 116.4430012 106.2444997   2.8729988
 117.6510012 106.6554997   2.0589988 117.1056852 106.0438578   2.3502118
 124.9600012  98.5544997  12.5849988 125.6590012  98.6284997  13.2349988
 124.5790012  97.6904997  12.7389988 125.0041767  98.4477624  12.6948322
 125.7450012  98.2064997   3.6819988 125.9650012  98.6784997   2.8789988
 126.3030012  98.6014997   4.3519988 125.8504968  98.3244285   3.6627331
 123.4130012 110.3374997   2.5449988 122.5970012 110.8344997   2.5969988
 123.9430012 110.8124997   1.9049988 123.3729161 110.4697722   2.4655956
 122.9450012  99.9344997   4.5169988 123.7570012 100.4394997   4.5629988
 122.7000012  99.7894997   5.4309988 123.0230520  99.9840375   4.6468517
 123.4800012 100.9204997  13.7019988 123.5990012 101.4944997  14.4589988
 124.1360012 100.2324997  13.8159988 123.5849757 100.9061079  13.8210825
 123.8280012  97.0154997   5.4549988 123.4820012  97.6334997   6.0999988
 124.4870012  97.5164997   4.9739988 123.8697826  97.1675802   5.4780971
 120.7520012 111.3814997   2.5269988 120.9120012 112.1804997   2.0259988
 120.5540012 111.6874997   3.4119988 120.7471649 111.5324469   2.5779815
 119.4860012  98.0784997   2.1419988 119.4030012  98.9674997   2.4889988
 120.3760012  97.8134997   2.3739988 119.5949469  98.1641430   2.2207626
 129.6850012  98.8274997  14.5369988 128.7680012  99.0904997  14.4489988
 130.0200012  98.8244997  13.6399988 129.6049900  98.8630224  14.4037919
 128.2870012 102.5784997   8.6319988 127.4890012 102.1634997   8.3039988
 128.7320012 101.8874997   9.1229988 128.2379885 102.4283543   8.6534889
 117.7450012 108.5064997   1.2029988 118.3370012 109.2054997   1.4789988
 118.2040012 108.0734997   0.4829988 117.8881142 108.5437049   1.1434830
 116.0610012 101.1704997   0.3189988 116.0160012 102.1094997   0.4969988
 115.1730012 100.9344997   0.0489988 115.9348574 101.2671892   0.3068912
 129.3730012 111.8344997  10.2549988 129.2180012 112.5124997   9.5979988
 130.3060012 111.9064997  10.4579988 129.4778500 111.9370170  10.1925119
 116.8690012  95.9524997   8.9919988 116.6400012  96.0114997   8.0639988
 116.4260012  95.1604997   9.2979988 116.7778530  95.8535753   8.9064786
 115.7990012 109.8924997   5.1519988 114.9670012 110.3654997   5.1799988
 116.3450012 110.4024997   4.5539988 115.7589739 110.0261871   5.0749716
 115.0870012 112.5054997  16.4819988 115.6280012 112.2884997  17.2419988
 114.6060012 111.6994997  16.2929988 115.0959345 112.3669514  16.5603076
 119.6850012 111.4244997  18.1029988 120.4520012 110.9654997  18.4439988
 119.6630012 111.1984997  17.1729988 119.7871434 111.3310409  18.0240043
 123.7770012 110.9324997  -0.5220012 123.1330012 110.3014997  -0.2010012
 124.5390012 110.4014997  -0.7540012 123.7918077 110.7742920  -0.5093989
 126.2620012 109.8044997  16.8319988 125.9110012 108.9484997  17.0749988
 126.9880012 109.9474997  17.4389988 126.3120769 109.7065636  16.9473619
 128.3810012 110.7494997  -0.2880012 128.6640012 109.9554997   0.1639988
 129.1210012 110.9824997  -0.8490012 128.5197486 110.6722803  -0.3019302
 114.9940012 106.3154997  17.4369988 115.1380012 105.4134997  17.1499988
 114.2220012 106.6014997  16.9489988 114.9093323 106.2308261  17.3317881
 119.3360012 106.6594997  -0.4310012 119.4000012 105.8654997   0.0999988
 119.9890012 106.5404997  -1.1210012 119.4330241 106.5347148  -0.4515683
 121.6500012 106.2854997  16.8689988 121.3210012 106.5564997  16.0119988
 121.8020012 105.3444997  16.7819988 121.6254809 106.1953862  16.7398244
 124.6880012 107.7064997  -0.6950012 124.4190012 107.8864997   0.2059988
 124.4820012 106.7804997  -0.8260012 124.6233825 107.6060152  -0.5894786
 127.3840012 106.2014997  14.2529988 128.1300012 106.7894997  14.1329988
 126.6270012 106.7834997  14.3159988 127.3837554 106.3607011  14.2450907
 115.8270012 103.5154997  16.8569988 116.2350012 102.6584997  16.7359988
 115.5670012 103.5304997  17.7779988 115.8477568 103.4000807  16.9649588
 120.4850012 104.6314997   1.8749988 120.0250012 104.1474997   2.5609988
 120.7400012 103.9634997   1.2389988 120.4564902 104.4748731   1.8829334
 119.7740012 102.5244997  14.2309988 119.1560012 103.1994997  14.5109988
 120.1180012 102.8454997  13.3979988 119.7359615 102.6602721  14.1566581
 121.5560012 102.8744997   0.1369988 121.3760012 102.7204997  -0.7900012
 122.5060012 102.9824997   0.1819988 121.6597776 102.8680175   0.0161843
 124.7940012 104.9964997  17.5079988 125.7470012 105.0794997  17.4809988
 124.6330012 104.2844997  18.1279988 124.9026426 104.9116746  17.5880579
 130.9460012 105.2294997  -0.4170012 130.6720012 104.8044997  -1.2300012
 130.9850012 106.1604997  -0.6340012 130.9137699 105.2972484  -0.5576390
 120.1130012  99.8794997  15.3129988 120.2630012  99.1504997  14.7109988
 120.1160012 100.6564997  14.7539988 120.1339302  99.8847851  15.1550692
 120.5260012  98.2494997  12.8059988 121.0620012  98.7004997  12.1539988
 119.6740012  98.1414997  12.3829988 120.4842178  98.2966390  12.6595756
 122.1080012 103.6884997  13.0449988 122.8580012 103.5324997  12.4719988
 121.7690012 104.5404997  12.7699988 122.1648921 103.7822968  12.9293561
 126.5230012 101.5034997  18.0739988 126.7160012 100.5724997  17.9619988
 127.3810012 101.9284997  18.0639988 126.6653020 101.4336389  18.0573361
 127.8400012 104.2924997  16.1509988 127.5590012 105.0014997  15.5739988
 128.7830012 104.2194997  15.9999988 127.9289027 104.3797646  16.0515551
 118.5920012 101.0774997  17.2249988 117.8250012 100.5454997  17.0149988
 119.2710012 100.7674997  16.6249988 118.5787022 100.9627506  17.1151648
 121.3320012  95.7054997  13.2369988 121.2330012  96.6524997  13.1319988
 120.5890012  95.3334997  12.7619988 121.2180564  95.7845902  13.1584560
 122.5960012 100.0274997  16.8009988 122.3600012  99.8074997  17.7029988
 121.8120012  99.8204997  16.2909988 122.4578628  99.9694760  16.8553932
 125.3110012  99.1544997  15.8769988 124.3640012  99.1864997  16.0089988
 125.6240012  98.5294997  16.5299988 125.2235475  99.0743207  15.9834455
 126.9450012  97.7884997  17.8819988 126.8490012  96.8364997  17.8759988
 126.6240012  98.0574997  18.7419988 126.8884070  97.6944035  17.9975441
 116.7720012  98.9984997  16.9289988 116.9840012  98.2914997  16.3189988
 116.6610012  98.5604997  17.7729988 116.7859721  98.8427084  16.9596843
 121.5530012  94.9994997  15.9089988 122.2650012  94.3594997  15.8949988
 121.4520012  95.2664997  14.9949988 121.6367939  94.9479938  15.7835650
 121.9070012  96.6824997  17.9619988 121.7750012  96.2064997  17.1419988
 121.3080012  97.4264997  17.9069988 121.8079071  96.7179618  17.8422886
 121.4530012 113.5654997   1.1389988 122.3860012 113.7234997   1.2819988
 121.1890012 114.2404997   0.5139988 121.5449510 113.6783611   1.0740741
 115.0220012 108.2014997   0.6209988 115.9360012 108.2804997   0.8949988
 115.0290012 107.5144997  -0.0450012 115.1481131 108.1193961   0.5684393
 113.6710012 113.5944997   5.6989988 113.0240012 113.1324997   5.1659988
 114.0250012 112.9224997   6.2809988 113.6303849 113.4404723   5.7047959
 114.5410012 111.6754997   7.5029988 114.2060012 110.7954997   7.6749988
 114.7630012 112.0204997   8.3679988 114.5251783 111.6017500   7.6434208
 132.0890012 112.4844997  10.4839988 132.0680012 112.6694997  11.4229988
 132.7800012 113.0534997  10.1429988 132.1794618 112.5866606  10.5663864
 131.6530012 112.0524997  13.4059988 131.1650012 111.3164997  13.0349988
 132.2020012 111.6584997  14.0839988 131.6604872 111.8986249  13.4469160
 130.1030012 107.8414997  18.0439988 129.2370012 107.7364997  18.4379988
 130.4800012 108.6004997  18.4899988 130.0353308 107.9296900  18.1582393
 131.4040012 106.0984997   3.5579988 132.2540012 106.5194997   3.6849988
 131.4100012 105.3584997   4.1649988 131.5211372 106.0560803   3.6574344
 131.7990012 104.1514997   5.3819988 131.0720012 103.6724997   5.7789988
 132.3800012 104.3574997   6.1139988 131.7779375 104.1137090   5.5354129
 131.5580012 106.9364997  10.3289988 132.3910012 106.5584997  10.0489988
 131.6700012 107.8794997  10.2099988 131.6872647 107.0122218  10.2745487
 130.0440012 109.8144997  12.6359988 129.3970012 110.1394997  13.2619988
 129.5270012 109.3744997  11.9619988 129.8854029 109.7995004  12.6305827
 132.0670012 104.0524997   1.7729988 131.5450012 104.4094997   1.0539988
 132.0340012 104.7274997   2.4509988 131.9911634 104.1925413   1.7663145
 130.4160012 101.2924997   0.3239988 130.5120012 101.9594997  -0.3570012
 130.2760012 100.4764997  -0.1580012 130.4102135 101.2734500   0.1658491
 129.5850012 102.6724997   5.9449988 129.4350012 101.7274997   5.9239988
 129.2320012 102.9534997   6.7879988 129.5166625 102.5810441   6.0562346
 114.6210012 104.7504997   9.9549988 114.8050012 104.6684997   9.0189988
 115.4700012 104.6264997  10.3789988 114.7610139 104.7225003   9.8841455
 130.4420012 104.6424997  15.5829988 131.0250012 103.9084997  15.7749988
 131.0060012 105.4144997  15.6299988 130.5979769 104.6464227  15.6156159
 131.9380012 102.5454997  16.2679988 131.0750012 102.1664997  16.1019988
 132.5430012 101.8064997  16.1939988 131.9015979 102.3938023  16.2352817
 129.6630012  98.7004997  -0.5590012 130.2740012  98.3294997   0.0779988
 128.8270012  98.2794997  -0.3630012 129.6335032  98.5927554  -0.4452965
 129.2960012 100.2554997   4.4069988 129.5760012  99.3484997   4.5309988
 130.0550012 100.6894997   4.0179988 129.4369277 100.1900942   4.3713682
 129.9080012 100.8364997   9.8429988 130.8410012 101.0484997   9.8089988
 129.6730012 100.9384997  10.7649988 130.0038036 100.8792769   9.9629976
 129.9370012 101.5734997  12.6189988 129.0940012 101.8414997  12.9849988
 130.3790012 102.3954997  12.4079988 129.8814158 101.7213291  12.6405491
 114.2180012 100.0214997  16.0959988 115.1380012  99.8994997  16.3319988
 113.7690012  99.2714997  16.4849988 114.2831580  99.9033727  16.1809006
 132.2200012  95.5534997  17.9719988 132.5700012  94.8994997  17.3669988
 132.3670012  96.3904997  17.5329988 132.2878419  95.5771591  17.8297118
 129.9090012  97.5184997   4.4549988 130.0920012  97.0694997   5.2809988
 129.3100012  96.9334997   3.9919988 129.8530202  97.3779975   4.5053275
 115.4390012  98.3334997   8.9869988 115.8850012  97.5414997   9.2889988
 115.9060012  99.0494997   9.4179988 115.5630172  98.3220624   9.0864820
 113.7430012 101.3324997  10.0559988 114.2350012 101.1114997   9.2649988
 114.1060012 102.1734997  10.3369988 113.8593126 101.4158357   9.9857531
 131.7400012  97.6624997  16.3219988 130.8220012  97.9334997  16.2859988
 131.8630012  97.1274997  15.5369988 131.6311066  97.6272892  16.2110487
 131.7760012  97.5854997   0.9829988 132.1880012  96.8644997   0.5079988
 132.4580012  98.2554997   1.0419988 131.9245885  97.5772368   0.9258915
 114.0570012  97.5904997   4.1099988 113.1320012  97.7994997   3.9809988
 114.5110012  98.0744997   3.4209988 113.9917368  97.6845993   3.9991226
 128.8280012 112.5744997   6.0559988 129.4800012 112.2274997   5.4479988
 129.3380012 113.0634997   6.7019988 128.9862637 112.5930597   6.0600236
 114.0210012  96.3284997  12.4549988 113.3560012  96.0824997  13.0979988
 113.5780012  96.9504997  11.8769988 113.8700956  96.3788632  12.4649352
 116.2130012 109.5034997  16.5989988 115.3920012 109.6784997  16.1389988
 115.9600012 109.4304997  17.5199988 116.0666164 109.5175622  16.6604923
 119.1670012 110.4784997  12.8579988 118.7420012 111.2874997  12.5749988
 120.0710012 110.5634997  12.5559988 119.2310271 110.6008469  12.7783776
 123.4780012 111.8774997  15.8169988 123.6630012 111.5434997  16.6949988
 124.3240012 112.1864997  15.4949988 123.6177539 111.8736047  15.8935605
 125.8230012 113.1634997  15.0609988 126.5000012 112.5304997  14.8209988
 126.1450012 113.5644997  15.8679988 125.9591637 113.1311154  15.1372793
 130.7400012  95.7524997  14.1409988 129.9280012  96.0774997  13.7529988
 130.9730012  94.9924997  13.6079988 130.6603423  95.6942436  14.0158253
 116.5690012 113.7344997  12.9049988 115.8480012 114.1744997  12.4539988
 116.2030012 113.4834997  13.7539988 116.4209804 113.7607698  12.9579840
 119.0360012 113.3344997  11.9349988 118.1710012 113.4064997  12.3389988
 118.9810012 113.8814997  11.1509988 118.9102085 113.4182685  11.8843362
 123.7460012 113.2224997  11.1099988 123.2900012 113.7514997  10.4559988
 123.9090012 113.8254997  11.8359988 123.7055585 113.3764468  11.1185062
 126.0740012 112.1004997  12.0549988 125.1690012 112.2654997  11.7899988
 126.5030012 112.9534997  11.9899988 126.0080799 112.2384483  12.0099182
 128.6780012 113.6704997  12.3499988 128.4960012 114.5864997  12.1399988
 128.8550012 113.2604997  11.5039988 128.6770210 113.7404822  12.2067885
 115.9830012 112.3574997   9.8149988 115.9650012 111.9324997  10.6729988
 116.7880012 112.0394997   9.4069988 116.0893875 112.2563812   9.8771655
 118.1250012 111.0674997   8.4699988 117.9060012 110.1514997   8.6399988
 118.9490012 111.2074997   8.9359988 118.2064420 110.9610520   8.5562774
 120.6620012 111.5374997   9.3189988 120.8750012 110.6494997   9.0319988
 120.7260012 111.5034997  10.2729988 120.6998232 111.4113102   9.4087397
 124.1700012  97.2014997   8.4629988 123.4960012  96.5724997   8.7189988
 124.7340012  96.7174997   7.8599988 124.1539230  97.0498744   8.4165340
 129.3130012  95.3094997   8.5759988 129.9170012  95.8564997   8.0739988
 128.4430012  95.6284997   8.3359988 129.2781241  95.4275806   8.4747654
 131.0400012  96.4474997   6.9089988 131.6520012  95.9334997   6.3829988
 131.4220012  97.3254997   6.9329988 131.1754540  96.4957140   6.8401830
 116.4970012  95.8354997   6.2849988 115.7200012  95.6014997   5.7779988
 117.0270012  95.0384997   6.2939988 116.4622330  95.6956988   6.2167742
 115.3330012  95.6334997   2.0889988 115.7720012  96.2444997   1.4969988
 114.7000012  96.1714997   2.5629988 115.3074514  95.7899257   2.0720930
 121.0760012  95.7624997   6.0989988 121.9510012  96.1504997   6.0689988
 120.9400012  95.5474997   7.0209988 121.1773695  95.7865184   6.2196440
 126.6330012  95.7924997   7.7479988 126.7090012  95.8874997   6.7979988
 126.3580012  94.8844997   7.8769988 126.6062321  95.6827867   7.6355079
 127.9860012  95.8184997   3.4399988 127.2840012  96.4334997   3.2309988
 127.5420012  94.9804997   3.5709988 127.8296330  95.7895783   3.4290328
 115.2340012 111.5814997   2.9869988 114.5490012 111.5434997   2.3189988
 115.2380012 112.4944997   3.2749988 115.1408193 111.6997016   2.9345284
 117.1940012  97.5494997   0.5309988 117.6860012  96.9194997   0.0039988
 117.8180012  97.8454997   1.1949988 117.3455446  97.5033199   0.5485980
 122.2200012  97.8424997   2.9879988 122.3980012  97.1964997   3.6709988
 122.1670012  98.6764997   3.4559988 122.2371829  97.8667985   3.1445940
 124.0990012 112.7914997   1.3839988 124.9650012 113.1574997   1.2059988
 123.8520012 112.3514997   0.5699988 124.1842392 112.7821756   1.2496289
 130.8080012 112.3544997   4.0629988 130.6130012 111.6064997   3.4979988
 130.7690012 113.1124997   3.4799988 130.7760380 112.3546099   3.9068384
 116.4550012  96.3494997  15.8029988 116.0890012  95.5844997  16.2459988
 117.3680012  96.3784997  16.0899988 116.5282790  96.2487224  15.9024070
 118.4280012  95.7004997  17.3389988 119.3260012  95.4264997  17.1539988
 118.0410012  94.9574997  17.8029988 118.4986612  95.5625914  17.3763643
 117.0520012 112.5014997   0.0119988 116.7850012 112.7884997   0.8849988
 117.8240012 111.9554997   0.1639988 117.1197488 112.4670294   0.1521050
 126.8490012  95.0324997  17.5209988 126.9260012  94.6064997  18.3749988
 127.7430012  95.0464997  17.1779988 126.9803428  94.9760879  17.5915310
 130.0250012 111.1054997  16.2129988 129.2430012 110.9194997  15.6939988
 129.9530012 112.0344997  16.4309988 129.9081777 111.2056492  16.1714048
 144.4310012 104.9914997   6.2439988 144.5200012 105.9354997   6.1119988
 143.7930012 104.7164997   5.5859988 144.3569081 105.0834830   6.1369614
 143.3640012 104.2464997   9.6629988 143.3260012 103.6004997  10.3679988
 143.0420012 103.7804997   8.8919988 143.3152333 104.0949408   9.6552978
 135.7330012 103.8614997  11.2559988 135.7740012 103.2354997  11.9789988
 136.4360012 104.4854997  11.4379988 135.8336363 103.8601196  11.3796044
 136.6560012 108.3114997   9.7909988 136.2870012 107.5094997   9.4209988
 137.5970012 108.1424997   9.8369988 136.7327289 108.1790153   9.7466316
 133.2660012 101.9714997   5.1839988 132.8190012 102.8174997   5.1649988
 132.7050012 101.3914997   4.6679988 133.1289900 102.0089916   5.1116801
 133.9770012 104.1334997   7.3099988 134.1900012 103.3634997   7.8369988
 134.7150012 104.2224997   6.7059988 134.1058496 104.0401394   7.3005300
 144.1820012 112.2904997   8.1769988 144.8020012 111.6134997   7.9029988
 143.9740012 112.0724997   9.0849988 144.2386904 112.1683870   8.2623365
 141.7540012 106.6794997  10.0689988 142.0580012 105.9934997   9.4739988
 142.4750012 106.7974997  10.6869988 141.8930671 106.6016305  10.0711816
 144.8950012 101.0734997  10.3969988 145.0370012 100.1274997  10.4169988
 144.7880012 101.2804997   9.4679988 144.8999863 100.9719534  10.2742339
 138.0490012  99.1744997   7.6689988 138.0930012 100.0344997   7.2509988
 137.5920012  98.6224997   7.0349988 137.9932185  99.2175799   7.5260299
 134.6700012 101.5714997   8.4309988 135.3230012 101.0214997   8.8629988
 134.6940012 101.2974997   7.5139988 134.7626683 101.4591466   8.3662123
 139.8260012 103.1214997   7.6459988 140.4420012 102.5954997   8.1559988
 139.2400012 102.4814997   7.2429988 139.8310810 102.9629208   7.6613173
 136.8600012  98.0924997  11.7429988 136.6410012  98.6224997  10.9769988
 136.1920012  98.3194997  12.3899988 136.7397600  98.1956906  11.7256379
 144.2290012 107.5924997   5.2869988 143.9330012 107.2704997   4.4359988
 143.9040012 108.4924997   5.3279988 144.1446371 107.6700215   5.1761801
 139.4290012 105.7684997  12.0299988 138.6890012 106.3664997  12.1339988
 140.1430012 106.3224997  11.7149988 139.4242237 105.9252831  12.0016465
 136.4530012  99.9844997   9.6949988 137.0670012 100.6174997  10.0689988
 136.9650012  99.5124997   9.0389988 136.6062296 100.0072370   9.6574252
 137.8360012 107.7324997  12.8179988 137.8310012 108.6124997  12.4399988
 136.9830012 107.6494997  13.2429988 137.7199464 107.8416117  12.8237907
 133.9570012 107.4034997   3.5999988 133.6850012 107.6324997   2.7109988
 134.0030012 108.2414997   4.0599988 133.9260094 107.5481213   3.5405697
 140.8860012  95.3984997   9.1959988 140.7690012  94.4494997   9.1409988
 140.0310012  95.7304997   9.4689988 140.7543733  95.3135409   9.2253897
 143.1530012 104.2354997   3.6959988 142.4410012 104.7704997   3.3439988
 143.8440012 104.2914997   3.0359988 143.1490132 104.3162543   3.5586289
 143.2060012 102.6934997   0.7349988 143.9070012 102.7154997   1.3859988
 143.5090012 102.0654997   0.0789988 143.3427830 102.6116566   0.7353711
 138.2040012 105.0754997   6.5299988 137.8730012 104.7054997   5.7119988
 138.7920012 104.4054997   6.8769988 138.2381873 104.9341156   6.4648102
 139.5700012 108.5034997   9.2119988 139.4760012 107.9254997   8.4549988
 140.3000012 108.1324997   9.7079988 139.6557981 108.3742390   9.1754165
 138.5700012 103.8444997  10.1639988 139.1360012 103.9654997   9.4009988
 138.8890012 104.4814997  10.8029988 138.6905786 103.9471884  10.1460040
 144.8790012 109.3474997  10.8979988 144.6390012 110.0094997  11.5459988
 144.6810012 108.5134997  11.3229988 144.8193808 109.3253134  11.0441524
 139.4500012 108.2434997  14.8809988 139.1390012 109.0254997  15.3359988
 138.8000012 108.0904997  14.1949988 139.3195558 108.3299105  14.8505871
 136.3700012 104.4414997  14.1099988 136.4410012 105.0924997  14.8079988
 135.4800012 104.5444997  13.7749988 136.2593117 104.5445936  14.1602700
 143.1560012 110.3444997   5.7679988 143.6300012 110.6394997   6.5459988
 142.5930012 111.0824997   5.5349988 143.1447653 110.4846932   5.8430136
 137.6900012 110.3154997  15.6439988 137.6970012 110.1794997  14.6969988
 136.7740012 110.1974997  15.8959988 137.5671714 110.2809430  15.5484666
 137.1940012 104.1454997   4.1199988 136.9020012 104.9134997   3.6289988
 136.5200012 103.4854997   3.9569988 137.0629081 104.1614406   4.0307340
 133.2870012 106.5084997  12.9349988 132.7860012 106.4804997  12.1199988
 133.2920012 105.6024997  13.2439988 133.2191526 106.3822278  12.8652872
 133.0370012 109.2884997   9.8189988 133.9830012 109.1444997   9.7999988
 132.9250012 110.0724997  10.3559988 133.1512727 109.3748046   9.8890072
 142.2140012 109.5284997  14.3769988 142.3010012 110.3544997  14.8519988
 141.3500012 109.1984997  14.6259988 142.1091964 109.5969878  14.4756549
 142.6280012 113.3004997   4.1829988 142.5530012 113.1794997   3.2369988
 142.6610012 114.2504997   4.3019988 142.6221848 113.4122500   4.0694834
 136.2810012 112.0894997   5.9639988 136.4340012 111.7414997   6.8429988
 135.4310012 111.7334997   5.7089988 136.1868962 111.9936650   6.0498340
 135.5360012 107.8314997  13.9779988 135.7520012 107.4704997  14.8369988
 134.6810012 107.4574997  13.7679988 135.4499292 107.7314111  14.0673386
 138.1550012  96.3014997   9.9729988 137.2930012  96.2144997   9.5659988
 138.1320012  97.1574997  10.4009988 138.0340330  96.4052765   9.9751863
 142.8180012  96.0234997  13.3479988 143.2380012  95.6084997  14.1009988
 141.8850012  95.8454997  13.4649988 142.7493644  95.9425900  13.4669539
 142.4790012  98.5164997   0.6329988 142.2260012  98.5354997   1.5559988
 142.2230012  97.6444997   0.3319988 142.4097790  98.4012437   0.7186263
 138.2460012 101.2674997  11.0679988 137.6040012 101.2264997  11.7769988
 138.2830012 102.1934997  10.8309988 138.1631324 101.3871559  11.1329824
 138.2430012 101.4884997   5.9799988 137.3500012 101.1474997   5.9219988
 138.6930012 101.1114997   5.2249988 138.1817305 101.3908484   5.8699177
 143.7780012 101.9044997   4.7969988 143.3690012 102.7194997   4.5059988
 144.4990012 101.7644997   4.1829988 143.8194537 101.9972018   4.6741342
 142.8800012 102.0794997  16.2849988 142.3180012 101.3754997  16.6059988
 143.7070012 101.9594997  16.7529988 142.9147095 101.9667883  16.3922330
 144.7830012 101.3504997   7.6109988 144.5880012 101.9554997   6.8959988
 144.9640012 100.5164997   7.1769988 144.7807614 101.3206300   7.4544405
 135.9960012 101.5874997  12.9349988 135.9580012 101.9874997  13.8039988
 135.5050012 100.7704997  13.0259988 135.9244684 101.5318069  13.0661059
 139.3620012  98.9614997  -0.2660012 138.9310012  98.5164997   0.4639988
 138.6440012  99.3334997  -0.7780012 139.2059438  98.9508940  -0.2353201
 132.6040012  98.7034997   6.7859988 133.2350012  98.6744997   7.5049988
 133.0530012  98.2784997   6.0559988 132.7510774  98.6420492   6.7856553
 133.8780012  99.4494997   2.2099988 134.3520012 100.0404997   1.6249988
 133.1610012  99.9804997   2.5569988 133.8459341  99.6020867   2.1768836
 144.0470012 102.9884997  12.2829988 144.3700012 102.3574997  11.6399988
 143.6070012 102.4534997  12.9429988 144.0316895 102.8298441  12.2842850
 140.8240012  98.9154997   7.0669988 139.9130012  98.9724997   7.3549988
 141.3300012  98.8554997   7.8769988 140.7675413  98.9151985   7.2160622
 135.6530012 100.5444997   5.8929988 134.7630012 100.6444997   5.5529988
 135.9490012  99.7024997   5.5469988 135.5712823 100.4443546   5.7997213
 139.3060012 100.5444997   3.5499988 140.2370012 100.6734997   3.7279988
 139.0910012 101.2144997   2.8999988 139.4044247 100.6526565   3.4865747
 137.9800012 101.7394997   1.1169988 137.4370012 101.3594997   0.4249988
 138.8130012 101.9334997   0.6879988 138.0184399 101.7138124   0.9644526
 136.1150012 106.2964997  16.2159988 136.8470012 106.5504997  16.7769988
 135.3350012 106.5004997  16.7309988 136.1098232 106.3589177  16.3625760
 142.1440012 101.7034997   8.9539988 142.7090012 101.1564997   8.4069988
 141.9970012 101.1814997   9.7419988 142.2012918 101.5582024   8.9858454
 137.1460012  97.8394997   5.3719988 136.8290012  96.9374997   5.3369988
 137.9280012  97.8414997   4.8189988 137.2082284  97.7161628   5.2924783
 140.7710012 100.0914997  11.3679988 139.9350012 100.5454997  11.4779988
 141.2950012 100.3674997  12.1199988 140.7274414 100.1909376  11.4847136
 141.3150012 106.3044997   3.0519988 140.5700012 105.7974997   2.7299988
 141.1810012 106.3534997   3.9989988 141.1948776 106.2416940   3.1358647
 142.8340012 106.4884997  14.2889988 142.4890012 106.1074997  15.0959988
 142.6340012 107.4224997  14.3609988 142.7598061 106.5625228  14.4090961
 136.4400012 105.5994997   8.8219988 137.1850012 105.5974997   8.2209988
 136.5180012 104.7764997   9.3039988 136.5525518 105.4879315   8.8048929
 143.4410012 107.7634997   2.0779988 143.1450012 108.5894997   2.4589988
 142.7380012 107.1434997   2.2739988 143.3054914 107.7928199   2.1566443
 133.4480012 104.0604997  14.1369988 133.6710012 103.6424997  14.9689988
 132.8460012 103.4474997  13.7139988 133.3971759 103.9204668  14.1937022
 140.4640012 103.5774997  16.3499988 140.1680012 103.4114997  15.4549988
 141.3960012 103.3574997  16.3389988 140.5494166 103.5250640  16.2260536
 138.8150012 109.1174997   6.2259988 139.3420012 109.8904997   6.0259988
 137.9350012 109.3424997   5.9249988 138.7681773 109.2538005   6.1579010
 134.5700012 103.9794997   0.8129988 135.1860012 104.6064997   1.1929988
 133.7080012 104.2954997   1.0849988 134.5377698 104.1079430   0.9017183
 140.2420012 106.7804997   5.8029988 140.0010012 107.7054997   5.8439988
 139.5010012 106.3214997   6.1989988 140.1088409 106.8451421   5.8621377
 140.7570012 110.9294997  12.1179988 141.1190012 111.7844997  11.8839988
 141.2880012 110.6374997  12.8579988 140.8784473 111.0071060  12.1860855
 138.9250012 111.8024997   5.3479988 137.9750012 111.9074997   5.3989988
 139.2770012 112.6224997   5.6929988 138.8424203 111.9278314   5.4016650
 144.3010012 107.0284997  11.8179988 143.8750012 106.8014997  12.6449988
 144.8810012 106.2904997  11.6359988 144.3211868 106.8975299  11.9065830
 135.0820012  98.8134997  13.6949988 134.1890012  99.1524997  13.6269988
 134.9830012  97.9584997  14.1129988 134.9464164  98.7442588  13.7422235
 134.7330012 110.6184997  12.1299988 134.9500012 109.6864997  12.0989988
 134.9790012 110.8924997  13.0129988 134.7959549 110.5280636  12.2451763
 140.5950012 109.0694997  -0.6610012 140.8340012 108.3214997  -1.2080012
 140.3260012 108.6814997   0.1719988 140.5913675 108.9146638  -0.6233135
 139.5320012 108.6394997   1.7959988 139.6780012 108.1194997   2.5859988
 139.5290012 109.5464997   2.1019988 139.5515989 108.6908853   1.9456088
 135.9850012 105.8924997   2.3059988 135.2990012 106.2444997   2.8729988
 136.5070012 106.6554997   2.0589988 135.9616852 106.0438578   2.3502118
 143.8160012  98.5544997  12.5849988 144.5150012  98.6284997  13.2349988
 143.4350012  97.6904997  12.7389988 143.8601767  98.4477624  12.6948322
 144.6010012  98.2064997   3.6819988 144.8210012  98.6784997   2.8789988
 145.1590012  98.6014997   4.3519988 144.7064968  98.3244285   3.6627331
 142.2690012 110.3374997   2.5449988 141.4530012 110.8344997   2.5969988
 142.7990012 110.8124997   1.9049988 142.2289161 110.4697722   2.4655956
 141.8010012  99.9344997   4.5169988 142.6130012 100.4394997   4.5629988
 141.5560012  99.7894997   5.4309988 141.8790520  99.9840375   4.6468517
 142.3360012 100.9204997  13.7019988 142.4550012 101.4944997  14.4589988
 142.9920012 100.2324997  13.8159988 142.4409757 100.9061079  13.8210825
 142.6840012  97.0154997   5.4549988 142.3380012  97.6334997   6.0999988
 143.3430012  97.5164997   4.9739988 142.7257826  97.1675802   5.4780971
 139.6080012 111.3814997   2.5269988 139.7680012 112.1804997   2.0259988
 139.4100012 111.6874997   3.4119988 139.6031649 111.5324469   2.5779815
 138.3420012  98.0784997   2.1419988 138.2590012  98.9674997   2.4889988
 139.2320012  97.8134997   2.3739988 138.4509469  98.1641430   2.2207626
 136.6010012 108.5064997   1.2029988 137.1930012 109.2054997   1.4789988
 137.0600012 108.0734997   0.4829988 136.7441142 108.5437049   1.1434830
 134.9170012 101.1704997   0.3189988 134.8720012 102.1094997   0.4969988
 134.0290012 100.9344997   0.0489988 134.7908574 101.2671892   0.3068912
 135.7250012  95.9524997   8.9919988 135.4960012  96.0114997   8.0639988
 135.2820012  95.1604997   9.2979988 135.6338530  95.8535753   8.9064786
 134.6550012 109.8924997   5.1519988 133.8230012 110.3654997   5.1799988
 135.2010012 110.4024997   4.5539988 134.6149739 110.0261871   5.0749716
 133.9430012 112.5054997  16.4819988 134.4840012 112.2884997  17.2419988
 133.4620012 111.6994997  16.2929988 133.9519345 112.3669514  16.5603076
 138.5410012 111.4244997  18.1029988 139.3080012 110.9654997  18.4439988
 138.5190012 111.1984997  17.1729988 138.6431434 111.3310409  18.0240043
 142.6330012 110.9324997  -0.5220012 141.9890012 110.3014997  -0.2010012
 143.3950012 110.4014997  -0.7540012 142.6478077 110.7742920  -0.5093989
 133.8500012 106.3154997  17.4369988 133.9940012 105.4134997  17.1499988
 133.0780012 106.6014997  16.9489988 133.7653322 106.2308261  17.3317881
 138.1920012 106.6594997  -0.4310012 138.2560012 105.8654997   0.0999988
 138.8450012 106.5404997  -1.1210012 138.2890241 106.5347148  -0.4515683
 140.5060012 106.2854997  16.8689988 140.1770012 106.5564997  16.0119988
 140.6580012 105.3444997  16.7819988 140.4814809 106.1953862  16.7398244
 143.5440012 107.7064997  -0.6950012 143.2750012 107.8864997   0.2059988
 143.3380012 106.7804997  -0.8260012 143.4793825 107.6060152  -0.5894786
 134.6830012 103.5154997  16.8569988 135.0910012 102.6584997  16.7359988
 134.4230012 103.5304997  17.7779988 134.7037568 103.4000807  16.9649588
 139.3410012 104.6314997   1.8749988 138.8810012 104.1474997   2.5609988
 139.5960012 103.9634997   1.2389988 139.3124902 104.4748731   1.8829334
 138.6300012 102.5244997  14.2309988 138.0120012 103.1994997  14.5109988
 138.9740012 102.8454997  13.3979988 138.5919615 102.6602721  14.1566581
 140.4120012 102.8744997   0.1369988 140.2320012 102.7204997  -0.7900012
 141.3620012 102.9824997   0.1819988 140.5157776 102.8680175   0.0161843
 143.6500012 104.9964997  17.5079988 144.6030012 105.0794997  17.4809988
 143.4890012 104.2844997  18.1279988 143.7586426 104.9116746  17.5880579
 138.9690012  99.8794997  15.3129988 139.1190012  99.1504997  14.7109988
 138.9720012 100.6564997  14.7539988 138.9899302  99.8847851  15.1550692
 139.3820012  98.2494997  12.8059988 139.9180012  98.7004997  12.1539988
 138.5300012  98.1414997  12.3829988 139.3402178  98.2966390  12.6595756
 140.9640012 103.6884997  13.0449988 141.7140012 103.5324997  12.4719988
 140.6250012 104.5404997  12.7699988 141.0208921 103.7822968  12.9293561
 137.4480012 101.0774997  17.2249988 136.6810012 100.5454997  17.0149988
 138.1270012 100.7674997  16.6249988 137.4347022 100.9627506  17.1151648
 140.1880012  95.7054997  13.2369988 140.0890012  96.6524997  13.1319988
 139.4450012  95.3334997  12.7619988 140.0740564  95.7845902  13.1584560
 141.4520012 100.0274997  16.8009988 141.2160012  99.8074997  17.7029988
 140.6680012  99.8204997  16.2909988 141.3138628  99.9694760  16.8553932
 144.1670012  99.1544997  15.8769988 143.2200012  99.1864997  16.0089988
 144.4800012  98.5294997  16.5299988 144.0795475  99.0743207  15.9834455
 135.6280012  98.9984997  16.9289988 135.8400012  98.2914997  16.3189988
 135.5170012  98.5604997  17.7729988 135.6419721  98.8427084  16.9596843
 140.4090012  94.9994997  15.9089988 141.1210012  94.3594997  15.8949988
 140.3080012  95.2664997  14.9949988 140.4927939  94.9479938  15.7835650
 140.7630012  96.6824997  17.9619988 140.6310012  96.2064997  17.1419988
 140.1640012  97.4264997  17.9069988 140.6639071  96.7179618  17.8422886
 140.3090012 113.5654997   1.1389988 141.2420012 113.7234997   1.2819988
 140.0450012 114.2404997   0.5139988 140.4009510 113.6783611   1.0740741
 133.8780012 108.2014997   0.6209988 134.7920012 108.2804997   0.8949988
 133.8850012 107.5144997  -0.0450012 134.0041131 108.1193961   0.5684393
 132.5270012 113.5944997   5.6989988 131.8800012 113.1324997   5.1659988
 132.8810012 112.9224997   6.2809988 132.4863849 113.4404723   5.7047959
 133.3970012 111.6754997   7.5029988 133.0620012 110.7954997   7.6749988
 133.6190012 112.0204997   8.3679988 133.3811783 111.6017500   7.6434208
 133.4770012 104.7504997   9.9549988 133.6610012 104.6684997   9.0189988
 134.3260012 104.6264997  10.3789988 133.6170139 104.7225003   9.8841455
 133.0740012 100.0214997  16.0959988 133.9940012  99.8994997  16.3319988
 132.6250012  99.2714997  16.4849988 133.1391580  99.9033727  16.1809006
 134.2950012  98.3334997   8.9869988 134.7410012  97.5414997   9.2889988
 134.7620012  99.0494997   9.4179988 134.4190172  98.3220624   9.0864820
 132.5990012 101.3324997  10.0559988 133.0910012 101.1114997   9.2649988
 132.9620012 102.1734997  10.3369988 132.7153126 101.4158357   9.9857531
 132.9130012  97.5904997   4.1099988 131.9880012  97.7994997   3.9809988
 133.3670012  98.0744997   3.4209988 132.8477368  97.6845993   3.9991226
 132.8770012  96.3284997  12.4549988 132.2120012  96.0824997  13.0979988
 132.4340012  96.9504997  11.8769988 132.7260956  96.3788632  12.4649352
 135.0690012 109.5034997  16.5989988 134.2480012 109.6784997  16.1389988
 134.8160012 109.4304997  17.5199988 134.9226164 109.5175622  16.6604923
 138.0230012 110.4784997  12.8579988 137.5980012 111.2874997  12.5749988
 138.9270012 110.5634997  12.5559988 138.0870271 110.6008469  12.7783776
 142.3340012 111.8774997  15.8169988 142.5190012 111.5434997  16.6949988
 143.1800012 112.1864997  15.4949988 142.4737539 111.8736047  15.8935605
 144.6790012 113.1634997  15.0609988 145.3560012 112.5304997  14.8209988
 145.0010012 113.5644997  15.8679988 144.8151637 113.1311154  15.1372793
 135.4250012 113.7344997  12.9049988 134.7040012 114.1744997  12.4539988
 135.0590012 113.4834997  13.7539988 135.2769804 113.7607698  12.9579840
 137.8920012 113.3344997  11.9349988 137.0270012 113.4064997  12.3389988
 137.8370012 113.8814997  11.1509988 137.7662085 113.4182685  11.8843362
 142.6020012 113.2224997  11.1099988 142.1460012 113.7514997  10.4559988
 142.7650012 113.8254997  11.8359988 142.5615585 113.3764468  11.1185062
 134.8390012 112.3574997   9.8149988 134.8210012 111.9324997  10.6729988
 135.6440012 112.0394997   9.4069988 134.9453875 112.2563812   9.8771655
 136.9810012 111.0674997   8.4699988 136.7620012 110.1514997   8.6399988
 137.8050012 111.2074997   8.9359988 137.0624420 110.9610520   8.5562774
 139.5180012 111.5374997   9.3189988 139.7310012 110.6494997   9.0319988
 139.5820012 111.5034997  10.2729988 139.5558232 111.4113102   9.4087397
 143.0260012  97.2014997   8.4629988 142.3520012  96.5724997   8.7189988
 143.5900012  96.7174997   7.8599988 143.0099230  97.0498744   8.4165340
 135.3530012  95.8354997   6.2849988 134.5760012  95.6014997   5.7779988
 135.8830012  95.0384997   6.2939988 135.3182330  95.6956988   6.2167742
 134.1890012  95.6334997   2.0889988 134.6280012  96.2444997   1.4969988
 133.5560012  96.1714997   2.5629988 134.1634514  95.7899257   2.0720930
 139.9320012  95.7624997   6.0989988 140.8070012  96.1504997   6.0689988
 139.7960012  95.5474997   7.0209988 140.0333695  95.7865184   6.2196440
 134.0900012 111.5814997   2.9869988 133.4050012 111.5434997   2.3189988
 134.0940012 112.4944997   3.2749988 133.9968193 111.6997016   2.9345284
 136.0500012  97.5494997   0.5309988 136.5420012  96.9194997   0.0039988
 136.6740012  97.8454997   1.1949988 136.2015446  97.5033199   0.5485980
 141.0760012  97.8424997   2.9879988 141.2540012  97.1964997   3.6709988
 141.0230012  98.6764997   3.4559988 141.0931829  97.8667985   3.1445940
 142.9550012 112.7914997   1.3839988 143.8210012 113.1574997   1.2059988
 142.7080012 112.3514997   0.5699988 143.0402392 112.7821756   1.2496289
 135.3110012  96.3494997  15.8029988 134.9450012  95.5844997  16.2459988
 136.2240012  96.3784997  16.0899988 135.3842790  96.2487224  15.9024070
 137.2840012  95.7004997  17.3389988 138.1820012  95.4264997  17.1539988
 136.8970012  94.9574997  17.8029988 137.3546612  95.5625914  17.3763643
 135.9080012 112.5014997   0.0119988 135.6410012 112.7884997   0.8849988
 136.6800012 111.9554997   0.1639988 135.9757488 112.4670294   0.1521050
  12.4390012 123.8474997   6.2439988  12.5280012 124.7914997   6.1119988
  11.8010012 123.5724997   5.5859988  12.3649081 123.9394830   6.1369614
  11.3720012 123.1024997   9.6629988  11.3340012 122.4564997  10.3679988
  11.0500012 122.6364997   8.8919988  11.3232333 122.9509408   9.6552978
   3.7410012 122.7174997  11.2559988   3.7820012 122.0914997  11.9789988
   4.4440012 123.3414997  11.4379988   3.8416363 122.7161196  11.3796044
  15.0780012 126.0414997   7.9639988  14.6380012 125.3214997   8.4149988
  15.0650012 126.7624997   8.5939988  15.0160226 126.0403731   8.1108494
   4.6640012 127.1674997   9.7909988   4.2950012 126.3654997   9.4209988
   5.6050012 126.9984997   9.8369988   4.7407289 127.0350153   9.7466316
   1.2740012 120.8274997   5.1839988   0.8270012 121.6734997   5.1649988
   0.7130012 120.2474997   4.6679988   1.1369900 120.8649916   5.1116801
   1.9850012 122.9894997   7.3099988   2.1980012 122.2194997   7.8369988
   2.7230012 123.0784997   6.7059988   2.1138496 122.8961394   7.3005300
  12.1900012 131.1464997   8.1769988  12.8100012 130.4694997   7.9029988
  11.9820012 130.9284997   9.0849988  12.2466904 131.0243870   8.2623365
   9.7620012 125.5354997  10.0689988  10.0660012 124.8494997   9.4739988
  10.4830012 125.6534997  10.6869988   9.9010671 125.4576305  10.0711816
  18.4250012 117.1364997  10.9299988  18.4740012 117.7464997  11.6659988
  18.8500012 117.5974997  10.2069988  18.4891824 117.2823741  10.9330205
  12.9030012 119.9294997  10.3969988  13.0450012 118.9834997  10.4169988
  12.7960012 120.1364997   9.4679988  12.9079864 119.8279534  10.2742339
   6.0570012 118.0304997   7.6689988   6.1010012 118.8904997   7.2509988
   5.6000012 117.4784997   7.0349988   6.0012185 118.0735799   7.5260299
  13.7800012 118.1614997   6.0699988  14.4260012 117.8324997   6.6949988
  14.2900012 118.6794997   5.4469988  13.9374264 118.1864611   6.0713862
   2.6780012 120.4274997   8.4309988   3.3310012 119.8774997   8.8629988
   2.7020012 120.1534997   7.5139988   2.7706683 120.3151466   8.3662123
   7.8340012 121.9774997   7.6459988   8.4500012 121.4514997   8.1559988
   7.2480012 121.3374997   7.2429988   7.8390810 121.8189208   7.6613173
  18.8160012 118.6144997  13.1659988  18.1280012 119.2724997  13.0699988
  18.8320012 118.4174997  14.1019988  18.7238525 118.6780462  13.2794808
   4.8680012 116.9484997  11.7429988   4.6490012 117.4784997  10.9769988
   4.2000012 117.1754997  12.3899988   4.7477600 117.0516906  11.7256379
  12.2370012 126.4484997   5.2869988  11.9410012 126.1264997   4.4359988
  11.9120012 127.3484997   5.3279988  12.1526371 126.5260215   5.1761801
   7.4370012 124.6244997  12.0299988   6.6970012 125.2224997  12.1339988
   8.1510012 125.1784997  11.7149988   7.4322237 124.7812831  12.0016465
  15.5440012 117.4524997   8.0499988  15.3280012 116.6864997   8.5829988
  16.1990012 117.9244997   8.5629988  15.6030632 117.4115889   8.1922861
   4.4610012 118.8404997   9.6949988   5.0750012 119.4734997  10.0689988
   4.9730012 118.3684997   9.0389988   4.6142296 118.8632370   9.6574252
   5.8440012 126.5884997  12.8179988   5.8390012 127.4684997  12.4399988
   4.9910012 126.5054997  13.2429988   5.7279464 126.6976117  12.8237907
   1.9650012 126.2594997   3.5999988   1.6930012 126.4884997   2.7109988
   2.0110012 127.0974997   4.0599988   1.9340094 126.4041213   3.5405697
  15.5900012 127.8814997  10.3119988  14.6490012 127.9394997  10.4739988
  15.8670012 128.7874997  10.1749988  15.4984679 128.0119443  10.3156815
  15.8910012 116.1674997  11.7299988  15.1550012 116.7784997  11.6919988
  16.5740012 116.5824997  11.2029988  15.8826541 116.3071374  11.6535832
   8.8940012 114.2544997   9.1959988   8.7770012 113.3054997   9.1409988
   8.0390012 114.5864997   9.4689988   8.7623733 114.1695409   9.2253897
  13.8420012 129.6624997   6.9379988  14.2680012 128.9554997   6.4529988
  14.1590012 130.4634997   6.5209988  13.9431019 129.6740994   6.8153130
  15.0020012 127.5634997   5.4459988  14.7440012 126.8734997   4.8349988
  15.0730012 127.1204997   6.2919988  14.9762856 127.4092124   5.4766885
  16.6880012 126.1294997  13.9239988  16.8280012 125.5384997  13.1839988
  16.8550012 127.0024997  13.5669988  16.7296778 126.1666426  13.7746965
  11.1610012 123.0914997   3.6959988  10.4490012 123.6264997   3.3439988
  11.8520012 123.1474997   3.0359988  11.1570132 123.1722543   3.5586289
  11.2140012 121.5494997   0.7349988  11.9150012 121.5714997   1.3859988
  11.5170012 120.9214997   0.0789988  11.3507830 121.4676566   0.7353711
  18.5300012 122.4694997  11.9899988  17.8770012 123.1644997  12.0789988
  18.9950012 122.6794997  11.1799988  18.5035390 122.5929425  11.8926883
  14.5660012 123.3014997   4.6479988  13.8340012 123.5294997   5.2209988
  15.0140012 122.5874997   5.1029988  14.5263095 123.2362571   4.7879119
  14.4640012 121.4754997  13.7149988  14.5440012 122.2384997  14.2869988
  13.8620012 121.7544997  13.0249988  14.3935756 121.6177134  13.7000589
   6.2120012 123.9314997   6.5299988   5.8810012 123.5614997   5.7119988
   6.8000012 123.2614997   6.8769988   6.2461873 123.7901156   6.4648102
   7.5780012 127.3594997   9.2119988   7.4840012 126.7814997   8.4549988
   8.3080012 126.9884997   9.7079988   7.6637981 127.2302390   9.1754165
   6.5780012 122.7004997  10.1639988   7.1440012 122.8214997   9.4009988
   6.8970012 123.3374997  10.8029988   6.6985786 122.8031884  10.1460040
  12.8870012 128.2034997  10.8979988  12.6470012 128.8654997  11.5459988
  12.6890012 127.3694997  11.3229988  12.8273808 128.1813134  11.0441524
   7.4580012 127.0994997  14.8809988   7.1470012 127.8814997  15.3359988
   6.8080012 126.9464997  14.1949988   7.3275558 127.1859105  14.8505871
  13.4370012 122.4634997   2.3329988  14.0170012 122.6134997   3.0799988
  13.8510012 122.9344997   1.6099988  13.5722831 122.5476841   2.3374134
   4.3780012 123.2974997  14.1099988   4.4490012 123.9484997  14.8079988
   3.4880012 123.4004997  13.7749988   4.2673117 123.4005936  14.1602700
  11.1640012 129.2004997   5.7679988  11.6380012 129.4954997   6.5459988
  10.6010012 129.9384997   5.5349988  11.1527653 129.3406932   5.8430136
   5.6980012 129.1714997  15.6439988   5.7050012 129.0354997  14.6969988
   4.7820012 129.0534997  15.8959988   5.5751714 129.1369430  15.5484666
  17.1360012 114.2134997   2.1459988  16.2360012 114.3524997   2.4409988
  17.3880012 115.0444997   1.7439988  17.0468702 114.3449074   2.1320205
   5.2020012 123.0014997   4.1199988   4.9100012 123.7694997   3.6289988
   4.5280012 122.3414997   3.9569988   5.0709081 123.0174406   4.0307340
  18.3250012 128.5794997   0.5219988  18.3990012 129.5184997   0.6929988
  19.2310012 128.2744997   0.4659988  18.4575100 128.6666722   0.5378119
   1.2950012 125.3644997  12.9349988   0.7940012 125.3364997  12.1199988
   1.3000012 124.4584997  13.2439988   1.2271526 125.2382278  12.8652872
   1.0450012 128.1444997   9.8189988   1.9910012 128.0004997   9.7999988
   0.9330012 128.9284997  10.3559988   1.1592727 128.2308046   9.8890072
  19.2430012 128.8104997  15.5009988  19.1940012 127.8554997  15.4639988
  18.4160012 129.0784997  15.9019988  19.1244940 128.7158998  15.5501375
  10.2220012 128.3844997  14.3769988  10.3090012 129.2104997  14.8519988
   9.3580012 128.0544997  14.6259988  10.1171964 128.4529878  14.4756549
  10.6360012 132.1564997   4.1829988  10.5610012 132.0354997   3.2369988
  10.6690012 133.1064997   4.3019988  10.6301848 132.2682500   4.0694834
   4.2890012 130.9454997   5.9639988   4.4420012 130.5974997   6.8429988
   3.4390012 130.5894997   5.7089988   4.1948962 130.8496650   6.0498340
  13.7380012 131.3104997   1.1849988  14.1130012 130.5664997   0.7149988
  13.7420012 131.0404997   2.1039988  13.7898915 131.1721486   1.2447824
  13.4070012 131.2364997   3.9349988  12.4710012 131.3364997   4.1129988
  13.6870012 130.5274997   4.5129988  13.3168255 131.1542711   4.0375391
  16.3950012 120.3034997  15.9809988  15.9880012 120.7844997  15.2599988
  16.4360012 119.3984997  15.6729988  16.3448437 120.2469374  15.8406683
   3.5440012 126.6874997  13.9779988   3.7600012 126.3264997  14.8369988
   2.6890012 126.3134997  13.7679988   3.4579292 126.5874111  14.0673386
   6.1630012 115.1574997   9.9729988   5.3010012 115.0704997   9.5659988
   6.1400012 116.0134997  10.4009988   6.0420330 115.2612765   9.9751863
  10.8260012 114.8794997  13.3479988  11.2460012 114.4644997  14.1009988
   9.8930012 114.7014997  13.4649988  10.7573644 114.7985900  13.4669539
  14.1520012 118.6354997  14.2009988  13.6380012 118.5094997  14.9989988
  13.9970012 119.5474997  13.9569988  14.0606852 118.7416132  14.2772158
  14.9150012 123.4964997  -0.0370012  14.9570012 123.2734997  -0.9670012
  15.7640012 123.8954997   0.1529988  15.0355396 123.5199155  -0.1386373
  10.4870012 117.3724997   0.6329988  10.2340012 117.3914997   1.5559988
  10.2310012 116.5004997   0.3319988  10.4177790 117.2572437   0.7186263
   6.2540012 120.1234997  11.0679988   5.6120012 120.0824997  11.7769988
   6.2910012 121.0494997  10.8309988   6.1711324 120.2431559  11.1329824
   6.2510012 120.3444997   5.9799988   5.3580012 120.0034997   5.9219988
   6.7010012 119.9674997   5.2249988   6.1897305 120.2468484   5.8699177
  11.7860012 120.7604997   4.7969988  11.3770012 121.5754997   4.5059988
  12.5070012 120.6204997   4.1829988  11.8274537 120.8532018   4.6741342
  10.8880012 120.9354997  16.2849988  10.3260012 120.2314997  16.6059988
  11.7150012 120.8154997  16.7529988  10.9227095 120.8227883  16.3922330
  12.7910012 120.2064997   7.6109988  12.5960012 120.8114997   6.8959988
  12.9720012 119.3724997   7.1769988  12.7887614 120.1766300   7.4544405
   4.0040012 120.4434997  12.9349988   3.9660012 120.8434997  13.8039988
   3.5130012 119.6264997  13.0259988   3.9324684 120.3878069  13.0661059
   7.3700012 117.8174997  -0.2660012   6.9390012 117.3724997   0.4639988
   6.6520012 118.1894997  -0.7780012   7.2139438 117.8068940  -0.2353201
   0.6120012 117.5594997   6.7859988   1.2430012 117.5304997   7.5049988
   1.0610012 117.1344997   6.0559988   0.7590774 117.4980492   6.7856553
   1.8860012 118.3054997   2.2099988   2.3600012 118.8964997   1.6249988
   1.1690012 118.8364997   2.5569988   1.8539341 118.4580867   2.1768836
  12.0550012 121.8444997  12.2829988  12.3780012 121.2134997  11.6399988
  11.6150012 121.3094997  12.9429988  12.0396895 121.6858441  12.2842850
   8.8320012 117.7714997   7.0669988   7.9210012 117.8284997   7.3549988
   9.3380012 117.7114997   7.8769988   8.7755413 117.7711985   7.2160622
   3.6610012 119.4004997   5.8929988   2.7710012 119.5004997   5.5529988
   3.9570012 118.5584997   5.5469988   3.5792823 119.3003545   5.7997213
   7.3140012 119.4004997   3.5499988   8.2450012 119.5294997   3.7279988
   7.0990012 120.0704997   2.8999988   7.4124247 119.5086565   3.4865747
  13.2370012 117.0064997  10.3309988  12.5610012 117.1374997  10.9949988
  12.7520012 116.8514997   9.5209988  13.0787145 117.0034905  10.3124517
   5.9880012 120.5954997   1.1169988   5.4450012 120.2154997   0.4249988
   6.8210012 120.7894997   0.6879988   6.0264399 120.5698124   0.9644526
  16.5250012 132.6784997  16.6079988  16.7250012 133.1024997  15.7729988
  17.1800012 133.0214997  17.2149988  16.6410051 132.7829648  16.5757836
   4.1230012 125.1524997  16.2159988   4.8550012 125.4064997  16.7769988
   3.3430012 125.3564997  16.7309988   4.1178232 125.2149177  16.3625760
  10.1520012 120.5594997   8.9539988  10.7170012 120.0124997   8.4069988
  10.0050012 120.0374997   9.7419988  10.2092918 120.4142024   8.9858454
   5.1540012 116.6954997   5.3719988   4.8370012 115.7934997   5.3369988
   5.9360012 116.6974997   4.8189988   5.2162284 116.5721628   5.2924783
   8.7790012 118.9474997  11.3679988   7.9430012 119.4014997  11.4779988
   9.3030012 119.2234997  12.1199988   8.7354414 119.0469376  11.4847136
   9.3230012 125.1604997   3.0519988   8.5780012 124.6534997   2.7299988
   9.1890012 125.2094997   3.9989988   9.2028776 125.0976940   3.1358647
  16.4730012 124.2934997  11.8389988  17.1150012 124.7504997  11.2949988
  15.6430012 124.4064997  11.3759988  16.4485963 124.3712704  11.7020177
  13.2210012 117.9744997   1.2519988  12.2820012 118.0864997   1.0999988
  13.5180012 118.8314997   1.5579988  13.1327666 118.1056443   1.2725768
  10.8420012 125.3444997  14.2889988  10.4970012 124.9634997  15.0959988
  10.6420012 126.2784997  14.3609988  10.7678061 125.4185228  14.4090961
  13.9390012 119.8414997   2.9119988  14.8310012 119.7044997   3.2309988
  13.9960012 120.6324997   2.3759988  14.0686285 119.9296660   2.8831691
   4.4480012 124.4554997   8.8219988   5.1930012 124.4534997   8.2209988
   4.5260012 123.6324997   9.3039988   4.5605518 124.3439315   8.8048929
  11.4490012 126.6194997   2.0779988  11.1530012 127.4454997   2.4589988
  10.7460012 125.9994997   2.2739988  11.3134914 126.6488199   2.1566443
   1.4560012 122.9164997  14.1369988   1.6790012 122.4984997  14.9689988
   0.8540012 122.3034997  13.7139988   1.4051759 122.7764668  14.1937022
   8.4720012 122.4334997  16.3499988   8.1760012 122.2674997  15.4549988
   9.4040012 122.2134997  16.3389988   8.5574166 122.3810640  16.2260536
  13.0930012 127.8064997  14.2399988  12.1920012 127.9894997  13.9719988
  13.1270012 128.0654997  15.1609988  12.9743041 127.8665512  14.3278197
  18.8240012 120.0514997   2.6069988  18.2700012 119.6554997   1.9349988
  18.9240012 120.9614997   2.3289988  18.7617059 120.1203586   2.4774401
  18.7870012 125.8514997  15.4439988  17.9360012 126.0894997  15.0769988
  19.3780012 125.8344997  14.6909988  18.7502487 125.8818258  15.2918893
  17.1190012 128.8374997   3.0719988  16.7460012 128.0114997   3.3809988
  17.3970012 128.6544997   2.1749988  17.1055630 128.6997303   2.9929626
  14.2800012 123.6454997  10.0929988  13.3510012 123.4134997  10.0659988
  14.7310012 122.8684997   9.7629988  14.2139216 123.5087238  10.0446917
   6.8230012 127.9734997   6.2259988   7.3500012 128.7464997   6.0259988
   5.9430012 128.1984997   5.9249988   6.7761773 128.1098005   6.1579010
   2.5780012 122.8354997   0.8129988   3.1940012 123.4624997   1.1929988
   1.7160012 123.1514997   1.0849988   2.5457698 122.9639430   0.9017183
   8.2500012 125.6364997   5.8029988   8.0090012 126.5614997   5.8439988
   7.5090012 125.1774997   6.1989988   8.1168409 125.7011421   5.8621377
   8.7650012 129.7854997  12.1179988   9.1270012 130.6404997  11.8839988
   9.2960012 129.4934997  12.8579988   8.8864473 129.8631060  12.1860855
   6.9330012 130.6584997   5.3479988   5.9830012 130.7634997   5.3989988
   7.2850012 131.4784997   5.6929988   6.8504203 130.7838314   5.4016650
  12.3090012 125.8844997  11.8179988  11.8830012 125.6574997  12.6449988
  12.8890012 125.1464997  11.6359988  12.3291868 125.7535299  11.9065830
  14.5120012 126.8134997   0.8919988  14.8650012 126.4334997   1.6969988
  13.5630012 126.7204997   0.9789988  14.4320441 126.7489596   1.0138559
  14.9670012 130.4364997  14.2879988  14.3660012 129.8814997  13.7919988
  15.2490012 131.1034997  13.6619988  14.9228519 130.4506841  14.1354952
  19.0150012 131.2934997   1.0929988  19.7590012 131.8794997   0.9529988
  18.3210012 131.8614997   1.4269988  19.0230292 131.4505582   1.1189961
   3.0900012 117.6694997  13.6949988   2.1970012 118.0084997  13.6269988
   2.9910012 116.8144997  14.1129988   2.9544164 117.6002588  13.7422235
  15.3780012 125.4864997   3.1189988  15.1000012 124.7584997   3.6749988
  16.3050012 125.6054997   3.3239988  15.4653124 125.4028802   3.2228845
   2.7410012 129.4744997  12.1299988   2.9580012 128.5424997  12.0989988
   2.9870012 129.7484997  13.0129988   2.8039549 129.3840636  12.2451763
   8.6030012 127.9254997  -0.6610012   8.8420012 127.1774997  -1.2080012
   8.3340012 127.5374997   0.1719988   8.5993675 127.7706638  -0.6233135
   7.5400012 127.4954997   1.7959988   7.6860012 126.9754997   2.5859988
   7.5370012 128.4024997   2.1019988   7.5595989 127.5468853   1.9456088
   3.9930012 124.7484997   2.3059988   3.3070012 125.1004997   2.8729988
   4.5150012 125.5114997   2.0589988   3.9696852 124.8998578   2.3502118
  11.8240012 117.4104997  12.5849988  12.5230012 117.4844997  13.2349988
  11.4430012 116.5464997  12.7389988  11.8681767 117.3037624  12.6948322
  12.6090012 117.0624997   3.6819988  12.8290012 117.5344997   2.8789988
  13.1670012 117.4574997   4.3519988  12.7144968 117.1804285   3.6627331
  10.2770012 129.1934997   2.5449988   9.4610012 129.6904997   2.5969988
  10.8070012 129.6684997   1.9049988  10.2369161 129.3257722   2.4655956
   9.8090012 118.7904997   4.5169988  10.6210012 119.2954997   4.5629988
   9.5640012 118.6454997   5.4309988   9.8870520 118.8400375   4.6468517
  10.3440012 119.7764997  13.7019988  10.4630012 120.3504997  14.4589988
  11.0000012 119.0884997  13.8159988  10.4489757 119.7621079  13.8210825
  10.6920012 115.8714997   5.4549988  10.3460012 116.4894997   6.0999988
  11.3510012 116.3724997   4.9739988  10.7337826 116.0235802   5.4780971
   7.6160012 130.2374997   2.5269988   7.7760012 131.0364997   2.0259988
   7.4180012 130.5434997   3.4119988   7.6111649 130.3884469   2.5779815
   6.3500012 116.9344997   2.1419988   6.2670012 117.8234997   2.4889988
   7.2400012 116.6694997   2.3739988   6.4589469 117.0201430   2.2207626
  16.5490012 117.6834997  14.5369988  15.6320012 117.9464997  14.4489988
  16.8840012 117.6804997  13.6399988  16.4689900 117.7190224  14.4037919
  15.1510012 121.4344997   8.6319988  14.3530012 121.0194997   8.3039988
  15.5960012 120.7434997   9.1229988  15.1019885 121.2843543   8.6534889
   4.6090012 127.3624997   1.2029988   5.2010012 128.0614997   1.4789988
   5.0680012 126.9294997   0.4829988   4.7521142 127.3997049   1.1434830
   2.9250012 120.0264997   0.3189988   2.8800012 120.9654997   0.4969988
   2.0370012 119.7904997   0.0489988   2.7988574 120.1231892   0.3068912
  16.2370012 130.6904997  10.2549988  16.0820012 131.3684997   9.5979988
  17.1700012 130.7624997  10.4579988  16.3418500 130.7930170  10.1925119
   3.7330012 114.8084997   8.9919988   3.5040012 114.8674997   8.0639988
   3.2900012 114.0164997   9.2979988   3.6418530 114.7095753   8.9064786
   2.6630012 128.7484997   5.1519988   1.8310012 129.2214997   5.1799988
   3.2090012 129.2584997   4.5539988   2.6229739 128.8821871   5.0749716
   1.9510012 131.3614997  16.4819988   2.4920012 131.1444997  17.2419988
   1.4700012 130.5554997  16.2929988   1.9599345 131.2229514  16.5603076
   6.5490012 130.2804997  18.1029988   7.3160012 129.8214997  18.4439988
   6.5270012 130.0544997  17.1729988   6.6511434 130.1870409  18.0240043
  10.6410012 129.7884997  -0.5220012   9.9970012 129.1574997  -0.2010012
  11.4030012 129.2574997  -0.7540012  10.6558077 129.6302920  -0.5093989
  13.1260012 128.6604997  16.8319988  12.7750012 127.8044997  17.0749988
  13.8520012 128.8034997  17.4389988  13.1760769 128.5625636  16.9473619
  15.2450012 129.6054997  -0.2880012  15.5280012 128.8114997   0.1639988
  15.9850012 129.8384997  -0.8490012  15.3837486 129.5282803  -0.3019302
   1.8580012 125.1714997  17.4369988   2.0020012 124.2694997  17.1499988
   1.0860012 125.4574997  16.9489988   1.7733322 125.0868261  17.3317881
   6.2000012 125.5154997  -0.4310012   6.2640012 124.7214997   0.0999988
   6.8530012 125.3964997  -1.1210012   6.2970241 125.3907148  -0.4515683
   8.5140012 125.1414997  16.8689988   8.1850012 125.4124997  16.0119988
   8.6660012 124.2004997  16.7819988   8.4894809 125.0513862  16.7398244
  11.5520012 126.5624997  -0.6950012  11.2830012 126.7424997   0.2059988
  11.3460012 125.6364997  -0.8260012  11.4873825 126.4620152  -0.5894786
  14.2480012 125.0574997  14.2529988  14.9940012 125.6454997  14.1329988
  13.4910012 125.6394997  14.3159988  14.2477554 125.2167011  14.2450907
   2.6910012 122.3714997  16.8569988   3.0990012 121.5144997  16.7359988
   2.4310012 122.3864997  17.7779988   2.7117568 122.2560807  16.9649588
   7.3490012 123.4874997   1.8749988   6.8890012 123.0034997   2.5609988
   7.6040012 122.8194997   1.2389988   7.3204902 123.3308731   1.8829334
   6.6380012 121.3804997  14.2309988   6.0200012 122.0554997  14.5109988
   6.9820012 121.7014997  13.3979988   6.5999615 121.5162721  14.1566581
   8.4200012 121.7304997   0.1369988   8.2400012 121.5764997  -0.7900012
   9.3700012 121.8384997   0.1819988   8.5237776 121.7240175   0.0161843
  11.6580012 123.8524997  17.5079988  12.6110012 123.9354997  17.4809988
  11.4970012 123.1404997  18.1279988  11.7666426 123.7676746  17.5880579
  17.8100012 124.0854997  -0.4170012  17.5360012 123.6604997  -1.2300012
  17.8490012 125.0164997  -0.6340012  17.7777699 124.1532484  -0.5576390
   6.9770012 118.7354997  15.3129988   7.1270012 118.0064997  14.7109988
   6.9800012 119.5124997  14.7539988   6.9979302 118.7407851  15.1550692
   7.3900012 117.1054997  12.8059988   7.9260012 117.5564997  12.1539988
   6.5380012 116.9974997  12.3829988   7.3482178 117.1526390  12.6595756
   8.9720012 122.5444997  13.0449988   9.7220012 122.3884997  12.4719988
   8.6330012 123.3964997  12.7699988   9.0288921 122.6382968  12.9293561
  13.3870012 120.3594997  18.0739988  13.5800012 119.4284997  17.9619988
  14.2450012 120.7844997  18.0639988  13.5293020 120.2896389  18.0573361
  14.7040012 123.1484997  16.1509988  14.4230012 123.8574997  15.5739988
  15.6470012 123.0754997  15.9999988  14.7929027 123.2357646  16.0515551
   5.4560012 119.9334997  17.2249988   4.6890012 119.4014997  17.0149988
   6.1350012 119.6234997  16.6249988   5.4427022 119.8187506  17.1151648
   8.1960012 114.5614997  13.2369988   8.0970012 115.5084997  13.1319988
   7.4530012 114.1894997  12.7619988   8.0820564 114.6405902  13.1584560
   9.4600012 118.8834997  16.8009988   9.2240012 118.6634997  17.7029988
   8.6760012 118.6764997  16.2909988   9.3218628 118.8254760  16.8553932
  12.1750012 118.0104997  15.8769988  11.2280012 118.0424997  16.0089988
  12.4880012 117.3854997  16.5299988  12.0875475 117.9303207  15.9834455
  13.8090012 116.6444997  17.8819988  13.7130012 115.6924997  17.8759988
  13.4880012 116.9134997  18.7419988  13.7524070 116.5504035  17.9975441
   3.6360012 117.8544997  16.9289988   3.8480012 117.1474997  16.3189988
   3.5250012 117.4164997  17.7729988   3.6499721 117.6987084  16.9596843
   8.4170012 113.8554997  15.9089988   9.1290012 113.2154997  15.8949988
   8.3160012 114.1224997  14.9949988   8.5007939 113.8039938  15.7835650
   8.7710012 115.5384997  17.9619988   8.6390012 115.0624997  17.1419988
   8.1720012 116.2824997  17.9069988   8.6719071 115.5739618  17.8422886
   8.3170012 132.4214997   1.1389988   9.2500012 132.5794997   1.2819988
   8.0530012 133.0964997   0.5139988   8.4089510 132.5343611   1.0740741
   1.8860012 127.0574997   0.6209988   2.8000012 127.1364997   0.8949988
   1.8930012 126.3704997  -0.0450012   2.0121131 126.9753961   0.5684393
   0.5350012 132.4504997   5.6989988  -0.1119988 131.9884997   5.1659988
   0.8890012 131.7784997   6.2809988   0.4943849 132.2964723   5.7047959
   1.4050012 130.5314997   7.5029988   1.0700012 129.6514997   7.6749988
   1.6270012 130.8764997   8.3679988   1.3891783 130.4577501   7.6434208
  18.9530012 131.3404997  10.4839988  18.9320012 131.5254997  11.4229988
  19.6440012 131.9094997  10.1429988  19.0434618 131.4426606  10.5663864
  18.5170012 130.9084997  13.4059988  18.0290012 130.1724997  13.0349988
  19.0660012 130.5144997  14.0839988  18.5244872 130.7546249  13.4469160
  16.9670012 126.6974997  18.0439988  16.1010012 126.5924997  18.4379988
  17.3440012 127.4564997  18.4899988  16.8993308 126.7856900  18.1582393
  18.2680012 124.9544997   3.5579988  19.1180012 125.3754997   3.6849988
  18.2740012 124.2144997   4.1649988  18.3851372 124.9120803   3.6574344
  18.6630012 123.0074997   5.3819988  17.9360012 122.5284997   5.7789988
  19.2440012 123.2134997   6.1139988  18.6419375 122.9697090   5.5354129
  18.4220012 125.7924997  10.3289988  19.2550012 125.4144997  10.0489988
  18.5340012 126.7354997  10.2099988  18.5512647 125.8682218  10.2745487
  16.9080012 128.6704997  12.6359988  16.2610012 128.9954997  13.2619988
  16.3910012 128.2304997  11.9619988  16.7494029 128.6555004  12.6305827
  18.9310012 122.9084997   1.7729988  18.4090012 123.2654997   1.0539988
  18.8980012 123.5834997   2.4509988  18.8551634 123.0485413   1.7663145
  17.2800012 120.1484997   0.3239988  17.3760012 120.8154997  -0.3570012
  17.1400012 119.3324997  -0.1580012  17.2742135 120.1294500   0.1658491
  16.4490012 121.5284997   5.9449988  16.2990012 120.5834997   5.9239988
  16.0960012 121.8094997   6.7879988  16.3806625 121.4370441   6.0562346
   1.4850012 123.6064997   9.9549988   1.6690012 123.5244997   9.0189988
   2.3340012 123.4824997  10.3789988   1.6250139 123.5785003   9.8841455
  17.3060012 123.4984997  15.5829988  17.8890012 122.7644997  15.7749988
  17.8700012 124.2704997  15.6299988  17.4619769 123.5024227  15.6156159
  18.8020012 121.4014997  16.2679988  17.9390012 121.0224997  16.1019988
  19.4070012 120.6624997  16.1939988  18.7655979 121.2498023  16.2352817
  16.5270012 117.5564997  -0.5590012  17.1380012 117.1854997   0.0779988
  15.6910012 117.1354997  -0.3630012  16.4975032 117.4487554  -0.4452965
  16.1600012 119.1114997   4.4069988  16.4400012 118.2044997   4.5309988
  16.9190012 119.5454997   4.0179988  16.3009277 119.0460942   4.3713682
  16.7720012 119.6924997   9.8429988  17.7050012 119.9044997   9.8089988
  16.5370012 119.7944997  10.7649988  16.8678036 119.7352769   9.9629976
  16.8010012 120.4294997  12.6189988  15.9580012 120.6974997  12.9849988
  17.2430012 121.2514997  12.4079988  16.7454158 120.5773291  12.6405491
   1.0820012 118.8774997  16.0959988   2.0020012 118.7554997  16.3319988
   0.6330012 118.1274997  16.4849988   1.1471580 118.7593727  16.1809006
  19.0840012 114.4094997  17.9719988  19.4340012 113.7554997  17.3669988
  19.2310012 115.2464997  17.5329988  19.1518419 114.4331591  17.8297118
  16.7730012 116.3744997   4.4549988  16.9560012 115.9254997   5.2809988
  16.1740012 115.7894997   3.9919988  16.7170202 116.2339975   4.5053275
   2.3030012 117.1894997   8.9869988   2.7490012 116.3974997   9.2889988
   2.7700012 117.9054997   9.4179988   2.4270172 117.1780624   9.0864820
   0.6070012 120.1884997  10.0559988   1.0990012 119.9674997   9.2649988
   0.9700012 121.0294997  10.3369988   0.7233126 120.2718357   9.9857531
  18.6040012 116.5184997  16.3219988  17.6860012 116.7894997  16.2859988
  18.7270012 115.9834997  15.5369988  18.4951066 116.4832892  16.2110487
  18.6400012 116.4414997   0.9829988  19.0520012 115.7204997   0.5079988
  19.3220012 117.1114997   1.0419988  18.7885885 116.4332368   0.9258915
   0.9210012 116.4464997   4.1099988  -0.0039988 116.6554997   3.9809988
   1.3750012 116.9304997   3.4209988   0.8557368 116.5405993   3.9991226
  15.6920012 131.4304997   6.0559988  16.3440012 131.0834997   5.4479988
  16.2020012 131.9194997   6.7019988  15.8502637 131.4490597   6.0600236
   0.8850012 115.1844997  12.4549988   0.2200012 114.9384997  13.0979988
   0.4420012 115.8064997  11.8769988   0.7340956 115.2348632  12.4649352
   3.0770012 128.3594997  16.5989988   2.2560012 128.5344997  16.1389988
   2.8240012 128.2864997  17.5199988   2.9306164 128.3735622  16.6604923
   6.0310012 129.3344997  12.8579988   5.6060012 130.1434997  12.5749988
   6.9350012 129.4194997  12.5559988   6.0950271 129.4568469  12.7783776
  10.3420012 130.7334997  15.8169988  10.5270012 130.3994997  16.6949988
  11.1880012 131.0424997  15.4949988  10.4817539 130.7296047  15.8935605
  12.6870012 132.0194997  15.0609988  13.3640012 131.3864997  14.8209988
  13.0090012 132.4204997  15.8679988  12.8231637 131.9871154  15.1372793
  17.6040012 114.6084997  14.1409988  16.7920012 114.9334997  13.7529988
  17.8370012 113.8484997  13.6079988  17.5243423 114.5502436  14.0158253
   3.4330012 132.5904997  12.9049988   2.7120012 133.0304997  12.4539988
   3.0670012 132.3394997  13.7539988   3.2849804 132.6167698  12.9579840
   5.9000012 132.1904997  11.9349988   5.0350012 132.2624997  12.3389988
   5.8450012 132.7374997  11.1509988   5.7742085 132.2742685  11.8843362
  10.6100012 132.0784997  11.1099988  10.1540012 132.6074997  10.4559988
  10.7730012 132.6814997  11.8359988  10.5695585 132.2324468  11.1185062
  12.9380012 130.9564997  12.0549988  12.0330012 131.1214997  11.7899988
  13.3670012 131.8094997  11.9899988  12.8720799 131.0944483  12.0099182
  15.5420012 132.5264997  12.3499988  15.3600012 133.4424997  12.1399988
  15.7190012 132.1164997  11.5039988  15.5410210 132.5964822  12.2067885
   2.8470012 131.2134997   9.8149988   2.8290012 130.7884997  10.6729988
   3.6520012 130.8954997   9.4069988   2.9533875 131.1123812   9.8771655
   4.9890012 129.9234997   8.4699988   4.7700012 129.0074997   8.6399988
   5.8130012 130.0634997   8.9359988   5.0704420 129.8170520   8.5562774
   7.5260012 130.3934997   9.3189988   7.7390012 129.5054997   9.0319988
   7.5900012 130.3594997  10.2729988   7.5638232 130.2673102   9.4087397
  11.0340012 116.0574997   8.4629988  10.3600012 115.4284997   8.7189988
  11.5980012 115.5734997   7.8599988  11.0179230 115.9058744   8.4165340
  16.1770012 114.1654997   8.5759988  16.7810012 114.7124997   8.0739988
  15.3070012 114.4844997   8.3359988  16.1421241 114.2835806   8.4747654
  17.9040012 115.3034997   6.9089988  18.5160012 114.7894997   6.3829988
  18.2860012 116.1814997   6.9329988  18.0394540 115.3517140   6.8401830
   3.3610012 114.6914997   6.2849988   2.5840012 114.4574997   5.7779988
   3.8910012 113.8944997   6.2939988   3.3262330 114.5516988   6.2167742
   2.1970012 114.4894997   2.0889988   2.6360012 115.1004997   1.4969988
   1.5640012 115.0274997   2.5629988   2.1714514 114.6459257   2.0720930
   7.9400012 114.6184997   6.0989988   8.8150012 115.0064997   6.0689988
   7.8040012 114.4034997   7.0209988   8.0413695 114.6425184   6.2196440
  13.4970012 114.6484997   7.7479988  13.5730012 114.7434997   6.7979988
  13.2220012 113.7404997   7.8769988  13.4702321 114.5387867   7.6355079
  14.8500012 114.6744997   3.4399988  14.1480012 115.2894997   3.2309988
  14.4060012 113.8364997   3.5709988  14.6936330 114.6455783   3.4290328
   2.0980012 130.4374997   2.9869988   1.4130012 130.3994997   2.3189988
   2.1020012 131.3504997   3.2749988   2.0048193 130.5557016   2.9345284
   4.0580012 116.4054997   0.5309988   4.5500012 115.7754997   0.0039988
   4.6820012 116.7014997   1.1949988   4.2095446 116.3593199   0.5485980
   9.0840012 116.6984997   2.9879988   9.2620012 116.0524997   3.6709988
   9.0310012 117.5324997   3.4559988   9.1011829 116.7227985   3.1445940
  10.9630012 131.6474997   1.3839988  11.8290012 132.0134997   1.2059988
  10.7160012 131.2074997   0.5699988  11.0482392 131.6381756   1.2496289
  17.6720012 131.2104997   4.0629988  17.4770012 130.4624997   3.4979988
  17.6330012 131.9684997   3.4799988  17.6400380 131.2106099   3.9068384
   3.3190012 115.2054997  15.8029988   2.9530012 114.4404997  16.2459988
   4.2320012 115.2344997  16.0899988   3.3922790 115.1047224  15.9024070
   5.2920012 114.5564997  17.3389988   6.1900012 114.2824997  17.1539988
   4.9050012 113.8134997  17.8029988   5.3626612 114.4185914  17.3763643
   3.9160012 131.3574997   0.0119988   3.6490012 131.6444997   0.8849988
   4.6880012 130.8114997   0.1639988   3.9837488 131.3230294   0.1521050
  13.7130012 113.8884997  17.5209988  13.7900012 113.4624997  18.3749988
  14.6070012 113.9024997  17.1779988  13.8443428 113.8320879  17.5915310
  16.8890012 129.9614997  16.2129988  16.1070012 129.7754997  15.6939988
  16.8170012 130.8904997  16.4309988  16.7721777 130.0616492  16.1714048
  31.2950012 123.8474997   6.2439988  31.3840012 124.7914997   6.1119988
  30.6570012 123.5724997   5.5859988  31.2209081 123.9394830   6.1369614
  30.2280012 123.1024997   9.6629988  30.1900012 122.4564997  10.3679988
  29.9060012 122.6364997   8.8919988  30.1792333 122.9509408   9.6552978
  22.5970012 122.7174997  11.2559988  22.6380012 122.0914997  11.9789988
  23.3000012 123.3414997  11.4379988  22.6976363 122.7161196  11.3796044
  33.9340012 126.0414997   7.9639988  33.4940012 125.3214997   8.4149988
  33.9210012 126.7624997   8.5939988  33.8720226 126.0403731   8.1108494
  23.5200012 127.1674997   9.7909988  23.1510012 126.3654997   9.4209988
  24.4610012 126.9984997   9.8369988  23.5967289 127.0350153   9.7466316
  20.1300012 120.8274997   5.1839988  19.6830012 121.6734997   5.1649988
  19.5690012 120.2474997   4.6679988  19.9929900 120.8649916   5.1116801
  20.8410012 122.9894997   7.3099988  21.0540012 122.2194997   7.8369988
  21.5790012 123.0784997   6.7059988  20.9698496 122.8961394   7.3005300
  31.0460012 131.1464997   8.1769988  31.6660012 130.4694997   7.9029988
  30.8380012 130.9284997   9.0849988  31.1026904 131.0243870   8.2623365
  28.6180012 125.5354997  10.0689988  28.9220012 124.8494997   9.4739988
  29.3390012 125.6534997  10.6869988  28.7570671 125.4576305  10.0711816
  37.2810012 117.1364997  10.9299988  37.3300012 117.7464997  11.6659988
  37.7060012 117.5974997  10.2069988  37.3451824 117.2823741  10.9330205
  31.7590012 119.9294997  10.3969988  31.9010012 118.9834997  10.4169988
  31.6520012 120.1364997   9.4679988  31.7639864 119.8279534  10.2742339
  24.9130012 118.0304997   7.6689988  24.9570012 118.8904997   7.2509988
  24.4560012 117.4784997   7.0349988  24.8572185 118.0735799   7.5260299
  32.6360012 118.1614997   6.0699988  33.2820012 117.8324997   6.6949988
  33.1460012 118.6794997   5.4469988  32.7934264 118.1864611   6.0713862
  21.5340012 120.4274997   8.4309988  22.1870012 119.8774997   8.8629988
  21.5580012 120.1534997   7.5139988  21.6266683 120.3151466   8.3662123
  26.6900012 121.9774997   7.6459988  27.3060012 121.4514997   8.1559988
  26.1040012 121.3374997   7.2429988  26.6950810 121.8189208   7.6613173
  37.6720012 118.6144997  13.1659988  36.9840012 119.2724997  13.0699988
  37.6880012 118.4174997  14.1019988  37.5798525 118.6780462  13.2794808
  23.7240012 116.9484997  11.7429988  23.5050012 117.4784997  10.9769988
  23.0560012 117.1754997  12.3899988  23.6037600 117.0516906  11.7256379
  31.0930012 126.4484997   5.2869988  30.7970012 126.1264997   4.4359988
  30.7680012 127.3484997   5.3279988  31.0086371 126.5260215   5.1761801
  26.2930012 124.6244997  12.0299988  25.5530012 125.2224997  12.1339988
  27.0070012 125.1784997  11.7149988  26.2882237 124.7812831  12.0016465
  34.4000012 117.4524997   8.0499988  34.1840012 116.6864997   8.5829988
  35.0550012 117.9244997   8.5629988  34.4590632 117.4115889   8.1922861
  23.3170012 118.8404997   9.6949988  23.9310012 119.4734997  10.0689988
  23.8290012 118.3684997   9.0389988  23.4702296 118.8632370   9.6574252
  24.7000012 126.5884997  12.8179988  24.6950012 127.4684997  12.4399988
  23.8470012 126.5054997  13.2429988  24.5839464 126.6976117  12.8237907
  20.8210012 126.2594997   3.5999988  20.5490012 126.4884997   2.7109988
  20.8670012 127.0974997   4.0599988  20.7900094 126.4041213   3.5405697
  34.4460012 127.8814997  10.3119988  33.5050012 127.9394997  10.4739988
  34.7230012 128.7874997  10.1749988  34.3544679 128.0119443  10.3156815
  34.7470012 116.1674997  11.7299988  34.0110012 116.7784997  11.6919988
  35.4300012 116.5824997  11.2029988  34.7386541 116.3071374  11.6535832
  27.7500012 114.2544997   9.1959988  27.6330012 113.3054997   9.1409988
  26.8950012 114.5864997   9.4689988  27.6183733 114.1695409   9.2253897
  32.6980012 129.6624997   6.9379988  33.1240012 128.9554997   6.4529988
  33.0150012 130.4634997   6.5209988  32.7991019 129.6740994   6.8153130
  33.8580012 127.5634997   5.4459988  33.6000012 126.8734997   4.8349988
  33.9290012 127.1204997   6.2919988  33.8322856 127.4092124   5.4766885
  35.5440012 126.1294997  13.9239988  35.6840012 125.5384997  13.1839988
  35.7110012 127.0024997  13.5669988  35.5856778 126.1666426  13.7746965
  30.0170012 123.0914997   3.6959988  29.3050012 123.6264997   3.3439988
  30.7080012 123.1474997   3.0359988  30.0130132 123.1722543   3.5586289
  30.0700012 121.5494997   0.7349988  30.7710012 121.5714997   1.3859988
  30.3730012 120.9214997   0.0789988  30.2067830 121.4676566   0.7353711
  37.3860012 122.4694997  11.9899988  36.7330012 123.1644997  12.0789988
  37.8510012 122.6794997  11.1799988  37.3595390 122.5929425  11.8926883
  33.4220012 123.3014997   4.6479988  32.6900012 123.5294997   5.2209988
  33.8700012 122.5874997   5.1029988  33.3823095 123.2362571   4.7879119
  33.3200012 121.4754997  13.7149988  33.4000012 122.2384997  14.2869988
  32.7180012 121.7544997  13.0249988  33.2495756 121.6177134  13.7000589
  25.0680012 123.9314997   6.5299988  24.7370012 123.5614997   5.7119988
  25.6560012 123.2614997   6.8769988  25.1021873 123.7901156   6.4648102
  26.4340012 127.3594997   9.2119988  26.3400012 126.7814997   8.4549988
  27.1640012 126.9884997   9.7079988  26.5197981 127.2302390   9.1754165
  25.4340012 122.7004997  10.1639988  26.0000012 122.8214997   9.4009988
  25.7530012 123.3374997  10.8029988  25.5545786 122.8031884  10.1460040
  31.7430012 128.2034997  10.8979988  31.5030012 128.8654997  11.5459988
  31.5450012 127.3694997  11.3229988  31.6833808 128.1813134  11.0441524
  26.3140012 127.0994997  14.8809988  26.0030012 127.8814997  15.3359988
  25.6640012 126.9464997  14.1949988  26.1835558 127.1859105  14.8505871
  32.2930012 122.4634997   2.3329988  32.8730012 122.6134997   3.0799988
  32.7070012 122.9344997   1.6099988  32.4282830 122.5476841   2.3374134
  23.2340012 123.2974997  14.1099988  23.3050012 123.9484997  14.8079988
  22.3440012 123.4004997  13.7749988  23.1233117 123.4005936  14.1602700
  30.0200012 129.2004997   5.7679988  30.4940012 129.4954997   6.5459988
  29.4570012 129.9384997   5.5349988  30.0087653 129.3406932   5.8430136
  24.5540012 129.1714997  15.6439988  24.5610012 129.0354997  14.6969988
  23.6380012 129.0534997  15.8959988  24.4311714 129.1369430  15.5484666
  35.9920012 114.2134997   2.1459988  35.0920012 114.3524997   2.4409988
  36.2440012 115.0444997   1.7439988  35.9028702 114.3449074   2.1320205
  24.0580012 123.0014997   4.1199988  23.7660012 123.7694997   3.6289988
  23.3840012 122.3414997   3.9569988  23.9269081 123.0174406   4.0307340
  37.1810012 128.5794997   0.5219988  37.2550012 129.5184997   0.6929988
  38.0870012 128.2744997   0.4659988  37.3135100 128.6666722   0.5378119
  20.1510012 125.3644997  12.9349988  19.6500012 125.3364997  12.1199988
  20.1560012 124.4584997  13.2439988  20.0831526 125.2382278  12.8652872
  19.9010012 128.1444997   9.8189988  20.8470012 128.0004997   9.7999988
  19.7890012 128.9284997  10.3559988  20.0152727 128.2308046   9.8890072
  38.0990012 128.8104997  15.5009988  38.0500012 127.8554997  15.4639988
  37.2720012 129.0784997  15.9019988  37.9804940 128.7158998  15.5501375
  29.0780012 128.3844997  14.3769988  29.1650012 129.2104997  14.8519988
  28.2140012 128.0544997  14.6259988  28.9731964 128.4529878  14.4756549
  29.4920012 132.1564997   4.1829988  29.4170012 132.0354997   3.2369988
  29.5250012 133.1064997   4.3019988  29.4861848 132.2682500   4.0694834
  23.1450012 130.9454997   5.9639988  23.2980012 130.5974997   6.8429988
  22.2950012 130.5894997   5.7089988  23.0508962 130.8496650   6.0498340
  32.5940012 131.3104997   1.1849988  32.9690012 130.5664997   0.7149988
  32.5980012 131.0404997   2.1039988  32.6458915 131.1721486   1.2447824
  32.2630012 131.2364997   3.9349988  31.3270012 131.3364997   4.1129988
  32.5430012 130.5274997   4.5129988  32.1728255 131.1542711   4.0375391
  35.2510012 120.3034997  15.9809988  34.8440012 120.7844997  15.2599988
  35.2920012 119.3984997  15.6729988  35.2008437 120.2469374  15.8406683
  22.4000012 126.6874997  13.9779988  22.6160012 126.3264997  14.8369988
  21.5450012 126.3134997  13.7679988  22.3139292 126.5874111  14.0673386
  25.0190012 115.1574997   9.9729988  24.1570012 115.0704997   9.5659988
  24.9960012 116.0134997  10.4009988  24.8980330 115.2612765   9.9751863
  29.6820012 114.8794997  13.3479988  30.1020012 114.4644997  14.1009988
  28.7490012 114.7014997  13.4649988  29.6133644 114.7985900  13.4669539
  33.0080012 118.6354997  14.2009988  32.4940012 118.5094997  14.9989988
  32.8530012 119.5474997  13.9569988  32.9166852 118.7416132  14.2772158
  33.7710012 123.4964997  -0.0370012  33.8130012 123.2734997  -0.9670012
  34.6200012 123.8954997   0.1529988  33.8915396 123.5199155  -0.1386373
  29.3430012 117.3724997   0.6329988  29.0900012 117.3914997   1.5559988
  29.0870012 116.5004997   0.3319988  29.2737790 117.2572437   0.7186263
  25.1100012 120.1234997  11.0679988  24.4680012 120.0824997  11.7769988
  25.1470012 121.0494997  10.8309988  25.0271324 120.2431559  11.1329824
  25.1070012 120.3444997   5.9799988  24.2140012 120.0034997   5.9219988
  25.5570012 119.9674997   5.2249988  25.0457305 120.2468484   5.8699177
  30.6420012 120.7604997   4.7969988  30.2330012 121.5754997   4.5059988
  31.3630012 120.6204997   4.1829988  30.6834537 120.8532018   4.6741342
  29.7440012 120.9354997  16.2849988  29.1820012 120.2314997  16.6059988
  30.5710012 120.8154997  16.7529988  29.7787095 120.8227883  16.3922330
  31.6470012 120.2064997   7.6109988  31.4520012 120.8114997   6.8959988
  31.8280012 119.3724997   7.1769988  31.6447614 120.1766300   7.4544405
  22.8600012 120.4434997  12.9349988  22.8220012 120.8434997  13.8039988
  22.3690012 119.6264997  13.0259988  22.7884684 120.3878069  13.0661059
  26.2260012 117.8174997  -0.2660012  25.7950012 117.3724997   0.4639988
  25.5080012 118.1894997  -0.7780012  26.0699438 117.8068940  -0.2353201
  19.4680012 117.5594997   6.7859988  20.0990012 117.5304997   7.5049988
  19.9170012 117.1344997   6.0559988  19.6150774 117.4980492   6.7856553
  20.7420012 118.3054997   2.2099988  21.2160012 118.8964997   1.6249988
  20.0250012 118.8364997   2.5569988  20.7099341 118.4580867   2.1768836
  30.9110012 121.8444997  12.2829988  31.2340012 121.2134997  11.6399988
  30.4710012 121.3094997  12.9429988  30.8956895 121.6858441  12.2842850
  27.6880012 117.7714997   7.0669988  26.7770012 117.8284997   7.3549988
  28.1940012 117.7114997   7.8769988  27.6315413 117.7711985   7.2160622
  22.5170012 119.4004997   5.8929988  21.6270012 119.5004997   5.5529988
  22.8130012 118.5584997   5.5469988  22.4352823 119.3003545   5.7997213
  26.1700012 119.4004997   3.5499988  27.1010012 119.5294997   3.7279988
  25.9550012 120.0704997   2.8999988  26.2684247 119.5086565   3.4865747
  32.0930012 117.0064997  10.3309988  31.4170012 117.1374997  10.9949988
  31.6080012 116.8514997   9.5209988  31.9347145 117.0034905  10.3124517
  24.8440012 120.5954997   1.1169988  24.3010012 120.2154997   0.4249988
  25.6770012 120.7894997   0.6879988  24.8824399 120.5698124   0.9644526
  35.3810012 132.6784997  16.6079988  35.5810012 133.1024997  15.7729988
  36.0360012 133.0214997  17.2149988  35.4970051 132.7829648  16.5757836
  22.9790012 125.1524997  16.2159988  23.7110012 125.4064997  16.7769988
  22.1990012 125.3564997  16.7309988  22.9738232 125.2149177  16.3625760
  29.0080012 120.5594997   8.9539988  29.5730012 120.0124997   8.4069988
  28.8610012 120.0374997   9.7419988  29.0652918 120.4142024   8.9858454
  24.0100012 116.6954997   5.3719988  23.6930012 115.7934997   5.3369988
  24.7920012 116.6974997   4.8189988  24.0722284 116.5721628   5.2924783
  27.6350012 118.9474997  11.3679988  26.7990012 119.4014997  11.4779988
  28.1590012 119.2234997  12.1199988  27.5914414 119.0469376  11.4847136
  28.1790012 125.1604997   3.0519988  27.4340012 124.6534997   2.7299988
  28.0450012 125.2094997   3.9989988  28.0588776 125.0976940   3.1358647
  35.3290012 124.2934997  11.8389988  35.9710012 124.7504997  11.2949988
  34.4990012 124.4064997  11.3759988  35.3045963 124.3712704  11.7020177
  32.0770012 117.9744997   1.2519988  31.1380012 118.0864997   1.0999988
  32.3740012 118.8314997   1.5579988  31.9887666 118.1056443   1.2725768
  29.6980012 125.3444997  14.2889988  29.3530012 124.9634997  15.0959988
  29.4980012 126.2784997  14.3609988  29.6238061 125.4185228  14.4090961
  32.7950012 119.8414997   2.9119988  33.6870012 119.7044997   3.2309988
  32.8520012 120.6324997   2.3759988  32.9246285 119.9296660   2.8831691
  23.3040012 124.4554997   8.8219988  24.0490012 124.4534997   8.2209988
  23.3820012 123.6324997   9.3039988  23.4165518 124.3439315   8.8048929
  30.3050012 126.6194997   2.0779988  30.0090012 127.4454997   2.4589988
  29.6020012 125.9994997   2.2739988  30.1694914 126.6488199   2.1566443
  20.3120012 122.9164997  14.1369988  20.5350012 122.4984997  14.9689988
  19.7100012 122.3034997  13.7139988  20.2611759 122.7764668  14.1937022
  27.3280012 122.4334997  16.3499988  27.0320012 122.2674997  15.4549988
  28.2600012 122.2134997  16.3389988  27.4134166 122.3810640  16.2260536
  31.9490012 127.8064997  14.2399988  31.0480012 127.9894997  13.9719988
  31.9830012 128.0654997  15.1609988  31.8303041 127.8665512  14.3278197
  37.6800012 120.0514997   2.6069988  37.1260012 119.6554997   1.9349988
  37.7800012 120.9614997   2.3289988  37.6177059 120.1203586   2.4774401
  37.6430012 125.8514997  15.4439988  36.7920012 126.0894997  15.0769988
  38.2340012 125.8344997  14.6909988  37.6062487 125.8818258  15.2918893
  35.9750012 128.8374997   3.0719988  35.6020012 128.0114997   3.3809988
  36.2530012 128.6544997   2.1749988  35.9615630 128.6997303   2.9929626
  33.1360012 123.6454997  10.0929988  32.2070012 123.4134997  10.0659988
  33.5870012 122.8684997   9.7629988  33.0699216 123.5087238  10.0446917
  25.6790012 127.9734997   6.2259988  26.2060012 128.7464997   6.0259988
  24.7990012 128.1984997   5.9249988  25.6321773 128.1098005   6.1579010
  21.4340012 122.8354997   0.8129988  22.0500012 123.4624997   1.1929988
  20.5720012 123.1514997   1.0849988  21.4017698 122.9639430   0.9017183
  27.1060012 125.6364997   5.8029988  26.8650012 126.5614997   5.8439988
  26.3650012 125.1774997   6.1989988  26.9728409 125.7011421   5.8621377
  27.6210012 129.7854997  12.1179988  27.9830012 130.6404997  11.8839988
  28.1520012 129.4934997  12.8579988  27.7424473 129.8631060  12.1860855
  25.7890012 130.6584997   5.3479988  24.8390012 130.7634997   5.3989988
  26.1410012 131.4784997   5.6929988  25.7064203 130.7838314   5.4016650
  31.1650012 125.8844997  11.8179988  30.7390012 125.6574997  12.6449988
  31.7450012 125.1464997  11.6359988  31.1851868 125.7535299  11.9065830
  33.3680012 126.8134997   0.8919988  33.7210012 126.4334997   1.6969988
  32.4190012 126.7204997   0.9789988  33.2880441 126.7489596   1.0138559
  33.8230012 130.4364997  14.2879988  33.2220012 129.8814997  13.7919988
  34.1050012 131.1034997  13.6619988  33.7788519 130.4506841  14.1354952
  37.8710012 131.2934997   1.0929988  38.6150012 131.8794997   0.9529988
  37.1770012 131.8614997   1.4269988  37.8790292 131.4505582   1.1189961
  21.9460012 117.6694997  13.6949988  21.0530012 118.0084997  13.6269988
  21.8470012 116.8144997  14.1129988  21.8104164 117.6002588  13.7422235
  34.2340012 125.4864997   3.1189988  33.9560012 124.7584997   3.6749988
  35.1610012 125.6054997   3.3239988  34.3213124 125.4028802   3.2228845
  21.5970012 129.4744997  12.1299988  21.8140012 128.5424997  12.0989988
  21.8430012 129.7484997  13.0129988  21.6599549 129.3840636  12.2451763
  27.4590012 127.9254997  -0.6610012  27.6980012 127.1774997  -1.2080012
  27.1900012 127.5374997   0.1719988  27.4553675 127.7706638  -0.6233135
  26.3960012 127.4954997   1.7959988  26.5420012 126.9754997   2.5859988
  26.3930012 128.4024997   2.1019988  26.4155989 127.5468853   1.9456088
  22.8490012 124.7484997   2.3059988  22.1630012 125.1004997   2.8729988
  23.3710012 125.5114997   2.0589988  22.8256852 124.8998578   2.3502118
  30.6800012 117.4104997  12.5849988  31.3790012 117.4844997  13.2349988
  30.2990012 116.5464997  12.7389988  30.7241767 117.3037624  12.6948322
  31.4650012 117.0624997   3.6819988  31.6850012 117.5344997   2.8789988
  32.0230012 117.4574997   4.3519988  31.5704968 117.1804285   3.6627331
  29.1330012 129.1934997   2.5449988  28.3170012 129.6904997   2.5969988
  29.6630012 129.6684997   1.9049988  29.0929161 129.3257722   2.4655956
  28.6650012 118.7904997   4.5169988  29.4770012 119.2954997   4.5629988
  28.4200012 118.6454997   5.4309988  28.7430520 118.8400375   4.6468517
  29.2000012 119.7764997  13.7019988  29.3190012 120.3504997  14.4589988
  29.8560012 119.0884997  13.8159988  29.3049757 119.7621079  13.8210825
  29.5480012 115.8714997   5.4549988  29.2020012 116.4894997   6.0999988
  30.2070012 116.3724997   4.9739988  29.5897826 116.0235802   5.4780971
  26.4720012 130.2374997   2.5269988  26.6320012 131.0364997   2.0259988
  26.2740012 130.5434997   3.4119988  26.4671649 130.3884469   2.5779815
  25.2060012 116.9344997   2.1419988  25.1230012 117.8234997   2.4889988
  26.0960012 116.6694997   2.3739988  25.3149469 117.0201430   2.2207626
  35.4050012 117.6834997  14.5369988  34.4880012 117.9464997  14.4489988
  35.7400012 117.6804997  13.6399988  35.3249900 117.7190224  14.4037919
  34.0070012 121.4344997   8.6319988  33.2090012 121.0194997   8.3039988
  34.4520012 120.7434997   9.1229988  33.9579885 121.2843543   8.6534889
  23.4650012 127.3624997   1.2029988  24.0570012 128.0614997   1.4789988
  23.9240012 126.9294997   0.4829988  23.6081142 127.3997049   1.1434830
  21.7810012 120.0264997   0.3189988  21.7360012 120.9654997   0.4969988
  20.8930012 119.7904997   0.0489988  21.6548574 120.1231892   0.3068912
  35.0930012 130.6904997  10.2549988  34.9380012 131.3684997   9.5979988
  36.0260012 130.7624997  10.4579988  35.1978500 130.7930170  10.1925119
  22.5890012 114.8084997   8.9919988  22.3600012 114.8674997   8.0639988
  22.1460012 114.0164997   9.2979988  22.4978530 114.7095753   8.9064786
  21.5190012 128.7484997   5.1519988  20.6870012 129.2214997   5.1799988
  22.0650012 129.2584997   4.5539988  21.4789739 128.8821871   5.0749716
  20.8070012 131.3614997  16.4819988  21.3480012 131.1444997  17.2419988
  20.3260012 130.5554997  16.2929988  20.8159345 131.2229514  16.5603076
  25.4050012 130.2804997  18.1029988  26.1720012 129.8214997  18.4439988
  25.3830012 130.0544997  17.1729988  25.5071434 130.1870409  18.0240043
  29.4970012 129.7884997  -0.5220012  28.8530012 129.1574997  -0.2010012
  30.2590012 129.2574997  -0.7540012  29.5118077 129.6302920  -0.5093989
  31.9820012 128.6604997  16.8319988  31.6310012 127.8044997  17.0749988
  32.7080012 128.8034997  17.4389988  32.0320769 128.5625636  16.9473619
  34.1010012 129.6054997  -0.2880012  34.3840012 128.8114997   0.1639988
  34.8410012 129.8384997  -0.8490012  34.2397486 129.5282803  -0.3019302
  20.7140012 125.1714997  17.4369988  20.8580012 124.2694997  17.1499988
  19.9420012 125.4574997  16.9489988  20.6293322 125.0868261  17.3317881
  25.0560012 125.5154997  -0.4310012  25.1200012 124.7214997   0.0999988
  25.7090012 125.3964997  -1.1210012  25.1530241 125.3907148  -0.4515683
  27.3700012 125.1414997  16.8689988  27.0410012 125.4124997  16.0119988
  27.5220012 124.2004997  16.7819988  27.3454809 125.0513862  16.7398244
  30.4080012 126.5624997  -0.6950012  30.1390012 126.7424997   0.2059988
  30.2020012 125.6364997  -0.8260012  30.3433825 126.4620152  -0.5894786
  33.1040012 125.0574997  14.2529988  33.8500012 125.6454997  14.1329988
  32.3470012 125.6394997  14.3159988  33.1037554 125.2167011  14.2450907
  21.5470012 122.3714997  16.8569988  21.9550012 121.5144997  16.7359988
  21.2870012 122.3864997  17.7779988  21.5677568 122.2560807  16.9649588
  26.2050012 123.4874997   1.8749988  25.7450012 123.0034997   2.5609988
  26.4600012 122.8194997   1.2389988  26.1764902 123.3308731   1.8829334
  25.4940012 121.3804997  14.2309988  24.8760012 122.0554997  14.5109988
  25.8380012 121.7014997  13.3979988  25.4559615 121.5162721  14.1566581
  27.2760012 121.7304997   0.1369988  27.0960012 121.5764997  -0.7900012
  28.2260012 121.8384997   0.1819988  27.3797776 121.7240175   0.0161843
  30.5140012 123.8524997  17.5079988  31.4670012 123.9354997  17.4809988
  30.3530012 123.1404997  18.1279988  30.6226426 123.7676746  17.5880579
  36.6660012 124.0854997  -0.4170012  36.3920012 123.6604997  -1.2300012
  36.7050012 125.0164997  -0.6340012  36.6337699 124.1532484  -0.5576390
  25.8330012 118.7354997  15.3129988  25.9830012 118.0064997  14.7109988
  25.8360012 119.5124997  14.7539988  25.8539302 118.7407851  15.1550692
  26.2460012 117.1054997  12.8059988  26.7820012 117.5564997  12.1539988
  25.3940012 116.9974997  12.3829988  26.2042178 117.1526390  12.6595756
  27.8280012 122.5444997  13.0449988  28.5780012 122.3884997  12.4719988
  27.4890012 123.3964997  12.7699988  27.8848921 122.6382968  12.9293561
  32.2430012 120.3594997  18.0739988  32.4360012 119.4284997  17.9619988
  33.1010012 120.7844997  18.0639988  32.3853020 120.2896389  18.0573361
  33.5600012 123.1484997  16.1509988  33.2790012 123.8574997  15.5739988
  34.5030012 123.0754997  15.9999988  33.6489027 123.2357646  16.0515551
  24.3120012 119.9334997  17.2249988  23.5450012 119.4014997  17.0149988
  24.9910012 119.6234997  16.6249988  24.2987022 119.8187506  17.1151648
  27.0520012 114.5614997  13.2369988  26.9530012 115.5084997  13.1319988
  26.3090012 114.1894997  12.7619988  26.9380564 114.6405902  13.1584560
  28.3160012 118.8834997  16.8009988  28.0800012 118.6634997  17.7029988
  27.5320012 118.6764997  16.2909988  28.1778628 118.8254760  16.8553932
  31.0310012 118.0104997  15.8769988  30.0840012 118.0424997  16.0089988
  31.3440012 117.3854997  16.5299988  30.9435475 117.9303207  15.9834455
  32.6650012 116.6444997  17.8819988  32.5690012 115.6924997  17.8759988
  32.3440012 116.9134997  18.7419988  32.6084070 116.5504035  17.9975441
  22.4920012 117.8544997  16.9289988  22.7040012 117.1474997  16.3189988
  22.3810012 117.4164997  17.7729988  22.5059721 117.6987084  16.9596843
  27.2730012 113.8554997  15.9089988  27.9850012 113.2154997  15.8949988
  27.1720012 114.1224997  14.9949988  27.3567939 113.8039938  15.7835650
  27.6270012 115.5384997  17.9619988  27.4950012 115.0624997  17.1419988
  27.0280012 116.2824997  17.9069988  27.5279071 115.5739618  17.8422886
  27.1730012 132.4214997   1.1389988  28.1060012 132.5794997   1.2819988
  26.9090012 133.0964997   0.5139988  27.2649510 132.5343611   1.0740741
  20.7420012 127.0574997   0.6209988  21.6560012 127.1364997   0.8949988
  20.7490012 126.3704997  -0.0450012  20.8681131 126.9753961   0.5684393
  19.3910012 132.4504997   5.6989988  18.7440012 131.9884997   5.1659988
  19.7450012 131.7784997   6.2809988  19.3503849 132.2964723   5.7047959
  20.2610012 130.5314997   7.5029988  19.9260012 129.6514997   7.6749988
  20.4830012 130.8764997   8.3679988  20.2451783 130.4577500   7.6434208
  37.8090012 131.3404997  10.4839988  37.7880012 131.5254997  11.4229988
  38.5000012 131.9094997  10.1429988  37.8994618 131.4426606  10.5663864
  37.3730012 130.9084997  13.4059988  36.8850012 130.1724997  13.0349988
  37.9220012 130.5144997  14.0839988  37.3804872 130.7546249  13.4469160
  35.8230012 126.6974997  18.0439988  34.9570012 126.5924997  18.4379988
  36.2000012 127.4564997  18.4899988  35.7553308 126.7856900  18.1582393
  37.1240012 124.9544997   3.5579988  37.9740012 125.3754997   3.6849988
  37.1300012 124.2144997   4.1649988  37.2411372 124.9120803   3.6574344
  37.5190012 123.0074997   5.3819988  36.7920012 122.5284997   5.7789988
  38.1000012 123.2134997   6.1139988  37.4979375 122.9697090   5.5354129
  37.2780012 125.7924997  10.3289988  38.1110012 125.4144997  10.0489988
  37.3900012 126.7354997  10.2099988  37.4072647 125.8682218  10.2745487
  35.7640012 128.6704997  12.6359988  35.1170012 128.9954997  13.2619988
  35.2470012 128.2304997  11.9619988  35.6054029 128.6555004  12.6305827
  37.7870012 122.9084997   1.7729988  37.2650012 123.2654997   1.0539988
  37.7540012 123.5834997   2.4509988  37.7111634 123.0485413   1.7663145
  36.1360012 120.1484997   0.3239988  36.2320012 120.8154997  -0.3570012
  35.9960012 119.3324997  -0.1580012  36.1302135 120.1294500   0.1658491
  35.3050012 121.5284997   5.9449988  35.1550012 120.5834997   5.9239988
  34.9520012 121.8094997   6.7879988  35.2366625 121.4370441   6.0562346
  20.3410012 123.6064997   9.9549988  20.5250012 123.5244997   9.0189988
  21.1900012 123.4824997  10.3789988  20.4810139 123.5785003   9.8841455
  36.1620012 123.4984997  15.5829988  36.7450012 122.7644997  15.7749988
  36.7260012 124.2704997  15.6299988  36.3179769 123.5024227  15.6156159
  37.6580012 121.4014997  16.2679988  36.7950012 121.0224997  16.1019988
  38.2630012 120.6624997  16.1939988  37.6215979 121.2498023  16.2352817
  35.3830012 117.5564997  -0.5590012  35.9940012 117.1854997   0.0779988
  34.5470012 117.1354997  -0.3630012  35.3535032 117.4487554  -0.4452965
  35.0160012 119.1114997   4.4069988  35.2960012 118.2044997   4.5309988
  35.7750012 119.5454997   4.0179988  35.1569277 119.0460942   4.3713682
  35.6280012 119.6924997   9.8429988  36.5610012 119.9044997   9.8089988
  35.3930012 119.7944997  10.7649988  35.7238036 119.7352769   9.9629976
  35.6570012 120.4294997  12.6189988  34.8140012 120.6974997  12.9849988
  36.0990012 121.2514997  12.4079988  35.6014158 120.5773291  12.6405491
  19.9380012 118.8774997  16.0959988  20.8580012 118.7554997  16.3319988
  19.4890012 118.1274997  16.4849988  20.0031580 118.7593727  16.1809006
  37.9400012 114.4094997  17.9719988  38.2900012 113.7554997  17.3669988
  38.0870012 115.2464997  17.5329988  38.0078419 114.4331591  17.8297118
  35.6290012 116.3744997   4.4549988  35.8120012 115.9254997   5.2809988
  35.0300012 115.7894997   3.9919988  35.5730202 116.2339975   4.5053275
  21.1590012 117.1894997   8.9869988  21.6050012 116.3974997   9.2889988
  21.6260012 117.9054997   9.4179988  21.2830172 117.1780624   9.0864820
  19.4630012 120.1884997  10.0559988  19.9550012 119.9674997   9.2649988
  19.8260012 121.0294997  10.3369988  19.5793126 120.2718357   9.9857531
  37.4600012 116.5184997  16.3219988  36.5420012 116.7894997  16.2859988
  37.5830012 115.9834997  15.5369988  37.3511066 116.4832892  16.2110487
  37.4960012 116.4414997   0.9829988  37.9080012 115.7204997   0.5079988
  38.1780012 117.1114997   1.0419988  37.6445885 116.4332368   0.9258915
  19.7770012 116.4464997   4.1099988  18.8520012 116.6554997   3.9809988
  20.2310012 116.9304997   3.4209988  19.7117368 116.5405993   3.9991226
  34.5480012 131.4304997   6.0559988  35.2000012 131.0834997   5.4479988
  35.0580012 131.9194997   6.7019988  34.7062637 131.4490597   6.0600236
  19.7410012 115.1844997  12.4549988  19.0760012 114.9384997  13.0979988
  19.2980012 115.8064997  11.8769988  19.5900956 115.2348632  12.4649352
  21.9330012 128.3594997  16.5989988  21.1120012 128.5344997  16.1389988
  21.6800012 128.2864997  17.5199988  21.7866164 128.3735622  16.6604923
  24.8870012 129.3344997  12.8579988  24.4620012 130.1434997  12.5749988
  25.7910012 129.4194997  12.5559988  24.9510271 129.4568469  12.7783776
  29.1980012 130.7334997  15.8169988  29.3830012 130.3994997  16.6949988
  30.0440012 131.0424997  15.4949988  29.3377539 130.7296047  15.8935605
  31.5430012 132.0194997  15.0609988  32.2200012 131.3864997  14.8209988
  31.8650012 132.4204997  15.8679988  31.6791637 131.9871154  15.1372793
  36.4600012 114.6084997  14.1409988  35.6480012 114.9334997  13.7529988
  36.6930012 113.8484997  13.6079988  36.3803423 114.5502436  14.0158253
  22.2890012 132.5904997  12.9049988  21.5680012 133.0304997  12.4539988
  21.9230012 132.3394997  13.7539988  22.1409804 132.6167698  12.9579840
  24.7560012 132.1904997  11.9349988  23.8910012 132.2624997  12.3389988
  24.7010012 132.7374997  11.1509988  24.6302085 132.2742685  11.8843362
  29.4660012 132.0784997  11.1099988  29.0100012 132.6074997  10.4559988
  29.6290012 132.6814997  11.8359988  29.4255585 132.2324468  11.1185062
  31.7940012 130.9564997  12.0549988  30.8890012 131.1214997  11.7899988
  32.2230012 131.8094997  11.9899988  31.7280799 131.0944483  12.0099182
  34.3980012 132.5264997  12.3499988  34.2160012 133.4424997  12.1399988
  34.5750012 132.1164997  11.5039988  34.3970210 132.5964822  12.2067885
  21.7030012 131.2134997   9.8149988  21.6850012 130.7884997  10.6729988
  22.5080012 130.8954997   9.4069988  21.8093875 131.1123812   9.8771655
  23.8450012 129.9234997   8.4699988  23.6260012 129.0074997   8.6399988
  24.6690012 130.0634997   8.9359988  23.9264420 129.8170520   8.5562774
  26.3820012 130.3934997   9.3189988  26.5950012 129.5054997   9.0319988
  26.4460012 130.3594997  10.2729988  26.4198232 130.2673102   9.4087397
  29.8900012 116.0574997   8.4629988  29.2160012 115.4284997   8.7189988
  30.4540012 115.5734997   7.8599988  29.8739230 115.9058744   8.4165340
  35.0330012 114.1654997   8.5759988  35.6370012 114.7124997   8.0739988
  34.1630012 114.4844997   8.3359988  34.9981241 114.2835806   8.4747654
  36.7600012 115.3034997   6.9089988  37.3720012 114.7894997   6.3829988
  37.1420012 116.1814997   6.9329988  36.8954540 115.3517140   6.8401830
  22.2170012 114.6914997   6.2849988  21.4400012 114.4574997   5.7779988
  22.7470012 113.8944997   6.2939988  22.1822330 114.5516988   6.2167742
  21.0530012 114.4894997   2.0889988  21.4920012 115.1004997   1.4969988
  20.4200012 115.0274997   2.5629988  21.0274514 114.6459257   2.0720930
  26.7960012 114.6184997   6.0989988  27.6710012 115.0064997   6.0689988
  26.6600012 114.4034997   7.0209988  26.8973695 114.6425184   6.2196440
  32.3530012 114.6484997   7.7479988  32.4290012 114.7434997   6.7979988
  32.0780012 113.7404997   7.8769988  32.3262321 114.5387867   7.6355079
  33.7060012 114.6744997   3.4399988  33.0040012 115.2894997   3.2309988
  33.2620012 113.8364997   3.5709988  33.5496330 114.6455783   3.4290328
  20.9540012 130.4374997   2.9869988  20.2690012 130.3994997   2.3189988
  20.9580012 131.3504997   3.2749988  20.8608193 130.5557016   2.9345284
  22.9140012 116.4054997   0.5309988  23.4060012 115.7754997   0.0039988
  23.5380012 116.7014997   1.1949988  23.0655446 116.3593199   0.5485980
  27.9400012 116.6984997   2.9879988  28.1180012 116.0524997   3.6709988
  27.8870012 117.5324997   3.4559988  27.9571829 116.7227985   3.1445940
  29.8190012 131.6474997   1.3839988  30.6850012 132.0134997   1.2059988
  29.5720012 131.2074997   0.5699988  29.9042392 131.6381756   1.2496289
  36.5280012 131.2104997   4.0629988  36.3330012 130.4624997   3.4979988
  36.4890012 131.9684997   3.4799988  36.4960380 131.2106099   3.9068384
  22.1750012 115.2054997  15.8029988  21.8090012 114.4404997  16.2459988
  23.0880012 115.2344997  16.0899988  22.2482790 115.1047224  15.9024070
  24.1480012 114.5564997  17.3389988  25.0460012 114.2824997  17.1539988
  23.7610012 113.8134997  17.8029988  24.2186612 114.4185914  17.3763643
  22.7720012 131.3574997   0.0119988  22.5050012 131.6444997   0.8849988
  23.5440012 130.8114997   0.1639988  22.8397488 131.3230294   0.1521050
  32.5690012 113.8884997  17.5209988  32.6460012 113.4624997  18.3749988
  33.4630012 113.9024997  17.1779988  32.7003428 113.8320879  17.5915310
  35.7450012 129.9614997  16.2129988  34.9630012 129.7754997  15.6939988
  35.6730012 130.8904997  16.4309988  35.6281777 130.0616492  16.1714048
  50.1510012 123.8474997   6.2439988  50.2400012 124.7914997   6.1119988
  49.5130012 123.5724997   5.5859988  50.0769081 123.9394830   6.1369614
  49.0840012 123.1024997   9.6629988  49.0460012 122.4564997  10.3679988
  48.7620012 122.6364997   8.8919988  49.0352333 122.9509408   9.6552978
  41.4530012 122.7174997  11.2559988  41.4940012 122.0914997  11.9789988
  42.1560012 123.3414997  11.4379988  41.5536363 122.7161196  11.3796044
  52.7900012 126.0414997   7.9639988  52.3500012 125.3214997   8.4149988
  52.7770012 126.7624997   8.5939988  52.7280226 126.0403731   8.1108494
  42.3760012 127.1674997   9.7909988  42.0070012 126.3654997   9.4209988
  43.3170012 126.9984997   9.8369988  42.4527289 127.0350153   9.7466316
  38.9860012 120.8274997   5.1839988  38.5390012 121.6734997   5.1649988
  38.4250012 120.2474997   4.6679988  38.8489900 120.8649916   5.1116801
  39.6970012 122.9894997   7.3099988  39.9100012 122.2194997   7.8369988
  40.4350012 123.0784997   6.7059988  39.8258496 122.8961394   7.3005300
  49.9020012 131.1464997   8.1769988  50.5220012 130.4694997   7.9029988
  49.6940012 130.9284997   9.0849988  49.9586904 131.0243870   8.2623365
  47.4740012 125.5354997  10.0689988  47.7780012 124.8494997   9.4739988
  48.1950012 125.6534997  10.6869988  47.6130671 125.4576305  10.0711816
  56.1370012 117.1364997  10.9299988  56.1860012 117.7464997  11.6659988
  56.5620012 117.5974997  10.2069988  56.2011824 117.2823741  10.9330205
  50.6150012 119.9294997  10.3969988  50.7570012 118.9834997  10.4169988
  50.5080012 120.1364997   9.4679988  50.6199864 119.8279534  10.2742339
  43.7690012 118.0304997   7.6689988  43.8130012 118.8904997   7.2509988
  43.3120012 117.4784997   7.0349988  43.7132185 118.0735799   7.5260299
  51.4920012 118.1614997   6.0699988  52.1380012 117.8324997   6.6949988
  52.0020012 118.6794997   5.4469988  51.6494264 118.1864611   6.0713862
  40.3900012 120.4274997   8.4309988  41.0430012 119.8774997   8.8629988
  40.4140012 120.1534997   7.5139988  40.4826683 120.3151466   8.3662123
  45.5460012 121.9774997   7.6459988  46.1620012 121.4514997   8.1559988
  44.9600012 121.3374997   7.2429988  45.5510810 121.8189208   7.6613173
  56.5280012 118.6144997  13.1659988  55.8400012 119.2724997  13.0699988
  56.5440012 118.4174997  14.1019988  56.4358525 118.6780462  13.2794808
  42.5800012 116.9484997  11.7429988  42.3610012 117.4784997  10.9769988
  41.9120012 117.1754997  12.3899988  42.4597600 117.0516906  11.7256379
  49.9490012 126.4484997   5.2869988  49.6530012 126.1264997   4.4359988
  49.6240012 127.3484997   5.3279988  49.8646371 126.5260215   5.1761801
  45.1490012 124.6244997  12.0299988  44.4090012 125.2224997  12.1339988
  45.8630012 125.1784997  11.7149988  45.1442237 124.7812831  12.0016465
  53.2560012 117.4524997   8.0499988  53.0400012 116.6864997   8.5829988
  53.9110012 117.9244997   8.5629988  53.3150632 117.4115889   8.1922861
  42.1730012 118.8404997   9.6949988  42.7870012 119.4734997  10.0689988
  42.6850012 118.3684997   9.0389988  42.3262296 118.8632370   9.6574252
  43.5560012 126.5884997  12.8179988  43.5510012 127.4684997  12.4399988
  42.7030012 126.5054997  13.2429988  43.4399464 126.6976117  12.8237907
  39.6770012 126.2594997   3.5999988  39.4050012 126.4884997   2.7109988
  39.7230012 127.0974997   4.0599988  39.6460094 126.4041213   3.5405697
  53.3020012 127.8814997  10.3119988  52.3610012 127.9394997  10.4739988
  53.5790012 128.7874997  10.1749988  53.2104679 128.0119443  10.3156815
  53.6030012 116.1674997  11.7299988  52.8670012 116.7784997  11.6919988
  54.2860012 116.5824997  11.2029988  53.5946541 116.3071374  11.6535832
  46.6060012 114.2544997   9.1959988  46.4890012 113.3054997   9.1409988
  45.7510012 114.5864997   9.4689988  46.4743733 114.1695409   9.2253897
  51.5540012 129.6624997   6.9379988  51.9800012 128.9554997   6.4529988
  51.8710012 130.4634997   6.5209988  51.6551019 129.6740994   6.8153130
  52.7140012 127.5634997   5.4459988  52.4560012 126.8734997   4.8349988
  52.7850012 127.1204997   6.2919988  52.6882856 127.4092124   5.4766885
  54.4000012 126.1294997  13.9239988  54.5400012 125.5384997  13.1839988
  54.5670012 127.0024997  13.5669988  54.4416778 126.1666426  13.7746965
  48.8730012 123.0914997   3.6959988  48.1610012 123.6264997   3.3439988
  49.5640012 123.1474997   3.0359988  48.8690132 123.1722543   3.5586289
  48.9260012 121.5494997   0.7349988  49.6270012 121.5714997   1.3859988
  49.2290012 120.9214997   0.0789988  49.0627830 121.4676566   0.7353711
  56.2420012 122.4694997  11.9899988  55.5890012 123.1644997  12.0789988
  56.7070012 122.6794997  11.1799988  56.2155390 122.5929425  11.8926883
  52.2780012 123.3014997   4.6479988  51.5460012 123.5294997   5.2209988
  52.7260012 122.5874997   5.1029988  52.2383095 123.2362571   4.7879119
  52.1760012 121.4754997  13.7149988  52.2560012 122.2384997  14.2869988
  51.5740012 121.7544997  13.0249988  52.1055756 121.6177134  13.7000589
  43.9240012 123.9314997   6.5299988  43.5930012 123.5614997   5.7119988
  44.5120012 123.2614997   6.8769988  43.9581873 123.7901156   6.4648102
  45.2900012 127.3594997   9.2119988  45.1960012 126.7814997   8.4549988
  46.0200012 126.9884997   9.7079988  45.3757981 127.2302390   9.1754165
  44.2900012 122.7004997  10.1639988  44.8560012 122.8214997   9.4009988
  44.6090012 123.3374997  10.8029988  44.4105786 122.8031884  10.1460040
  50.5990012 128.2034997  10.8979988  50.3590012 128.8654997  11.5459988
  50.4010012 127.3694997  11.3229988  50.5393808 128.1813134  11.0441524
  45.1700012 127.0994997  14.8809988  44.8590012 127.8814997  15.3359988
  44.5200012 126.9464997  14.1949988  45.0395558 127.1859105  14.8505871
  51.1490012 122.4634997   2.3329988  51.7290012 122.6134997   3.0799988
  51.5630012 122.9344997   1.6099988  51.2842830 122.5476841   2.3374134
  42.0900012 123.2974997  14.1099988  42.1610012 123.9484997  14.8079988
  41.2000012 123.4004997  13.7749988  41.9793117 123.4005936  14.1602700
  48.8760012 129.2004997   5.7679988  49.3500012 129.4954997   6.5459988
  48.3130012 129.9384997   5.5349988  48.8647653 129.3406932   5.8430136
  43.4100012 129.1714997  15.6439988  43.4170012 129.0354997  14.6969988
  42.4940012 129.0534997  15.8959988  43.2871714 129.1369430  15.5484666
  54.8480012 114.2134997   2.1459988  53.9480012 114.3524997   2.4409988
  55.1000012 115.0444997   1.7439988  54.7588702 114.3449074   2.1320205
  42.9140012 123.0014997   4.1199988  42.6220012 123.7694997   3.6289988
  42.2400012 122.3414997   3.9569988  42.7829081 123.0174406   4.0307340
  56.0370012 128.5794997   0.5219988  56.1110012 129.5184997   0.6929988
  56.9430012 128.2744997   0.4659988  56.1695100 128.6666722   0.5378119
  39.0070012 125.3644997  12.9349988  38.5060012 125.3364997  12.1199988
  39.0120012 124.4584997  13.2439988  38.9391526 125.2382278  12.8652872
  38.7570012 128.1444997   9.8189988  39.7030012 128.0004997   9.7999988
  38.6450012 128.9284997  10.3559988  38.8712727 128.2308046   9.8890072
  56.9550012 128.8104997  15.5009988  56.9060012 127.8554997  15.4639988
  56.1280012 129.0784997  15.9019988  56.8364940 128.7158998  15.5501375
  47.9340012 128.3844997  14.3769988  48.0210012 129.2104997  14.8519988
  47.0700012 128.0544997  14.6259988  47.8291964 128.4529878  14.4756549
  48.3480012 132.1564997   4.1829988  48.2730012 132.0354997   3.2369988
  48.3810012 133.1064997   4.3019988  48.3421848 132.2682500   4.0694834
  42.0010012 130.9454997   5.9639988  42.1540012 130.5974997   6.8429988
  41.1510012 130.5894997   5.7089988  41.9068962 130.8496650   6.0498340
  51.4500012 131.3104997   1.1849988  51.8250012 130.5664997   0.7149988
  51.4540012 131.0404997   2.1039988  51.5018915 131.1721486   1.2447824
  51.1190012 131.2364997   3.9349988  50.1830012 131.3364997   4.1129988
  51.3990012 130.5274997   4.5129988  51.0288255 131.1542711   4.0375391
  54.1070012 120.3034997  15.9809988  53.7000012 120.7844997  15.2599988
  54.1480012 119.3984997  15.6729988  54.0568437 120.2469374  15.8406683
  41.2560012 126.6874997  13.9779988  41.4720012 126.3264997  14.8369988
  40.4010012 126.3134997  13.7679988  41.1699292 126.5874111  14.0673386
  43.8750012 115.1574997   9.9729988  43.0130012 115.0704997   9.5659988
  43.8520012 116.0134997  10.4009988  43.7540330 115.2612765   9.9751863
  48.5380012 114.8794997  13.3479988  48.9580012 114.4644997  14.1009988
  47.6050012 114.7014997  13.4649988  48.4693644 114.7985900  13.4669539
  51.8640012 118.6354997  14.2009988  51.3500012 118.5094997  14.9989988
  51.7090012 119.5474997  13.9569988  51.7726852 118.7416132  14.2772158
  52.6270012 123.4964997  -0.0370012  52.6690012 123.2734997  -0.9670012
  53.4760012 123.8954997   0.1529988  52.7475396 123.5199155  -0.1386373
  48.1990012 117.3724997   0.6329988  47.9460012 117.3914997   1.5559988
  47.9430012 116.5004997   0.3319988  48.1297790 117.2572437   0.7186263
  43.9660012 120.1234997  11.0679988  43.3240012 120.0824997  11.7769988
  44.0030012 121.0494997  10.8309988  43.8831324 120.2431559  11.1329824
  43.9630012 120.3444997   5.9799988  43.0700012 120.0034997   5.9219988
  44.4130012 119.9674997   5.2249988  43.9017305 120.2468484   5.8699177
  49.4980012 120.7604997   4.7969988  49.0890012 121.5754997   4.5059988
  50.2190012 120.6204997   4.1829988  49.5394537 120.8532018   4.6741342
  48.6000012 120.9354997  16.2849988  48.0380012 120.2314997  16.6059988
  49.4270012 120.8154997  16.7529988  48.6347095 120.8227883  16.3922330
  50.5030012 120.2064997   7.6109988  50.3080012 120.8114997   6.8959988
  50.6840012 119.3724997   7.1769988  50.5007614 120.1766300   7.4544405
  41.7160012 120.4434997  12.9349988  41.6780012 120.8434997  13.8039988
  41.2250012 119.6264997  13.0259988  41.6444684 120.3878069  13.0661059
  45.0820012 117.8174997  -0.2660012  44.6510012 117.3724997   0.4639988
  44.3640012 118.1894997  -0.7780012  44.9259438 117.8068940  -0.2353201
  38.3240012 117.5594997   6.7859988  38.9550012 117.5304997   7.5049988
  38.7730012 117.1344997   6.0559988  38.4710774 117.4980492   6.7856553
  39.5980012 118.3054997   2.2099988  40.0720012 118.8964997   1.6249988
  38.8810012 118.8364997   2.5569988  39.5659341 118.4580867   2.1768836
  49.7670012 121.8444997  12.2829988  50.0900012 121.2134997  11.6399988
  49.3270012 121.3094997  12.9429988  49.7516895 121.6858441  12.2842850
  46.5440012 117.7714997   7.0669988  45.6330012 117.8284997   7.3549988
  47.0500012 117.7114997   7.8769988  46.4875413 117.7711985   7.2160622
  41.3730012 119.4004997   5.8929988  40.4830012 119.5004997   5.5529988
  41.6690012 118.5584997   5.5469988  41.2912823 119.3003546   5.7997213
  45.0260012 119.4004997   3.5499988  45.9570012 119.5294997   3.7279988
  44.8110012 120.0704997   2.8999988  45.1244247 119.5086565   3.4865747
  50.9490012 117.0064997  10.3309988  50.2730012 117.1374997  10.9949988
  50.4640012 116.8514997   9.5209988  50.7907145 117.0034905  10.3124517
  43.7000012 120.5954997   1.1169988  43.1570012 120.2154997   0.4249988
  44.5330012 120.7894997   0.6879988  43.7384399 120.5698124   0.9644526
  54.2370012 132.6784997  16.6079988  54.4370012 133.1024997  15.7729988
  54.8920012 133.0214997  17.2149988  54.3530051 132.7829648  16.5757836
  41.8350012 125.1524997  16.2159988  42.5670012 125.4064997  16.7769988
  41.0550012 125.3564997  16.7309988  41.8298232 125.2149177  16.3625760
  47.8640012 120.5594997   8.9539988  48.4290012 120.0124997   8.4069988
  47.7170012 120.0374997   9.7419988  47.9212918 120.4142024   8.9858454
  42.8660012 116.6954997   5.3719988  42.5490012 115.7934997   5.3369988
  43.6480012 116.6974997   4.8189988  42.9282284 116.5721628   5.2924783
  46.4910012 118.9474997  11.3679988  45.6550012 119.4014997  11.4779988
  47.0150012 119.2234997  12.1199988  46.4474414 119.0469376  11.4847136
  47.0350012 125.1604997   3.0519988  46.2900012 124.6534997   2.7299988
  46.9010012 125.2094997   3.9989988  46.9148776 125.0976940   3.1358647
  54.1850012 124.2934997  11.8389988  54.8270012 124.7504997  11.2949988
  53.3550012 124.4064997  11.3759988  54.1605963 124.3712704  11.7020177
  50.9330012 117.9744997   1.2519988  49.9940012 118.0864997   1.0999988
  51.2300012 118.8314997   1.5579988  50.8447666 118.1056443   1.2725768
  48.5540012 125.3444997  14.2889988  48.2090012 124.9634997  15.0959988
  48.3540012 126.2784997  14.3609988  48.4798061 125.4185228  14.4090961
  51.6510012 119.8414997   2.9119988  52.5430012 119.7044997   3.2309988
  51.7080012 120.6324997   2.3759988  51.7806285 119.9296660   2.8831691
  42.1600012 124.4554997   8.8219988  42.9050012 124.4534997   8.2209988
  42.2380012 123.6324997   9.3039988  42.2725518 124.3439315   8.8048929
  49.1610012 126.6194997   2.0779988  48.8650012 127.4454997   2.4589988
  48.4580012 125.9994997   2.2739988  49.0254914 126.6488199   2.1566443
  39.1680012 122.9164997  14.1369988  39.3910012 122.4984997  14.9689988
  38.5660012 122.3034997  13.7139988  39.1171759 122.7764668  14.1937022
  46.1840012 122.4334997  16.3499988  45.8880012 122.2674997  15.4549988
  47.1160012 122.2134997  16.3389988  46.2694166 122.3810640  16.2260536
  50.8050012 127.8064997  14.2399988  49.9040012 127.9894997  13.9719988
  50.8390012 128.0654997  15.1609988  50.6863041 127.8665512  14.3278197
  56.5360012 120.0514997   2.6069988  55.9820012 119.6554997   1.9349988
  56.6360012 120.9614997   2.3289988  56.4737059 120.1203586   2.4774401
  56.4990012 125.8514997  15.4439988  55.6480012 126.0894997  15.0769988
  57.0900012 125.8344997  14.6909988  56.4622487 125.8818258  15.2918893
  54.8310012 128.8374997   3.0719988  54.4580012 128.0114997   3.3809988
  55.1090012 128.6544997   2.1749988  54.8175630 128.6997303   2.9929626
  51.9920012 123.6454997  10.0929988  51.0630012 123.4134997  10.0659988
  52.4430012 122.8684997   9.7629988  51.9259216 123.5087238  10.0446917
  44.5350012 127.9734997   6.2259988  45.0620012 128.7464997   6.0259988
  43.6550012 128.1984997   5.9249988  44.4881773 128.1098005   6.1579010
  40.2900012 122.8354997   0.8129988  40.9060012 123.4624997   1.1929988
  39.4280012 123.1514997   1.0849988  40.2577698 122.9639430   0.9017183
  45.9620012 125.6364997   5.8029988  45.7210012 126.5614997   5.8439988
  45.2210012 125.1774997   6.1989988  45.8288409 125.7011421   5.8621377
  46.4770012 129.7854997  12.1179988  46.8390012 130.6404997  11.8839988
  47.0080012 129.4934997  12.8579988  46.5984473 129.8631060  12.1860855
  44.6450012 130.6584997   5.3479988  43.6950012 130.7634997   5.3989988
  44.9970012 131.4784997   5.6929988  44.5624203 130.7838314   5.4016650
  50.0210012 125.8844997  11.8179988  49.5950012 125.6574997  12.6449988
  50.6010012 125.1464997  11.6359988  50.0411868 125.7535299  11.9065830
  52.2240012 126.8134997   0.8919988  52.5770012 126.4334997   1.6969988
  51.2750012 126.7204997   0.9789988  52.1440441 126.7489596   1.0138559
  52.6790012 130.4364997  14.2879988  52.0780012 129.8814997  13.7919988
  52.9610012 131.1034997  13.6619988  52.6348519 130.4506841  14.1354952
  56.7270012 131.2934997   1.0929988  57.4710012 131.8794997   0.9529988
  56.0330012 131.8614997   1.4269988  56.7350292 131.4505582   1.1189961
  40.8020012 117.6694997  13.6949988  39.9090012 118.0084997  13.6269988
  40.7030012 116.8144997  14.1129988  40.6664164 117.6002588  13.7422235
  53.0900012 125.4864997   3.1189988  52.8120012 124.7584997   3.6749988
  54.0170012 125.6054997   3.3239988  53.1773124 125.4028802   3.2228845
  40.4530012 129.4744997  12.1299988  40.6700012 128.5424997  12.0989988
  40.6990012 129.7484997  13.0129988  40.5159549 129.3840636  12.2451763
  46.3150012 127.9254997  -0.6610012  46.5540012 127.1774997  -1.2080012
  46.0460012 127.5374997   0.1719988  46.3113675 127.7706638  -0.6233135
  45.2520012 127.4954997   1.7959988  45.3980012 126.9754997   2.5859988
  45.2490012 128.4024997   2.1019988  45.2715989 127.5468853   1.9456088
  41.7050012 124.7484997   2.3059988  41.0190012 125.1004997   2.8729988
  42.2270012 125.5114997   2.0589988  41.6816852 124.8998578   2.3502118
  49.5360012 117.4104997  12.5849988  50.2350012 117.4844997  13.2349988
  49.1550012 116.5464997  12.7389988  49.5801767 117.3037624  12.6948322
  50.3210012 117.0624997   3.6819988  50.5410012 117.5344997   2.8789988
  50.8790012 117.4574997   4.3519988  50.4264968 117.1804285   3.6627331
  47.9890012 129.1934997   2.5449988  47.1730012 129.6904997   2.5969988
  48.5190012 129.6684997   1.9049988  47.9489161 129.3257722   2.4655956
  47.5210012 118.7904997   4.5169988  48.3330012 119.2954997   4.5629988
  47.2760012 118.6454997   5.4309988  47.5990520 118.8400375   4.6468517
  48.0560012 119.7764997  13.7019988  48.1750012 120.3504997  14.4589988
  48.7120012 119.0884997  13.8159988  48.1609757 119.7621079  13.8210825
  48.4040012 115.8714997   5.4549988  48.0580012 116.4894997   6.0999988
  49.0630012 116.3724997   4.9739988  48.4457826 116.0235802   5.4780971
  45.3280012 130.2374997   2.5269988  45.4880012 131.0364997   2.0259988
  45.1300012 130.5434997   3.4119988  45.3231649 130.3884469   2.5779815
  44.0620012 116.9344997   2.1419988  43.9790012 117.8234997   2.4889988
  44.9520012 116.6694997   2.3739988  44.1709469 117.0201430   2.2207626
  54.2610012 117.6834997  14.5369988  53.3440012 117.9464997  14.4489988
  54.5960012 117.6804997  13.6399988  54.1809900 117.7190224  14.4037919
  52.8630012 121.4344997   8.6319988  52.0650012 121.0194997   8.3039988
  53.3080012 120.7434997   9.1229988  52.8139885 121.2843543   8.6534889
  42.3210012 127.3624997   1.2029988  42.9130012 128.0614997   1.4789988
  42.7800012 126.9294997   0.4829988  42.4641142 127.3997049   1.1434830
  40.6370012 120.0264997   0.3189988  40.5920012 120.9654997   0.4969988
  39.7490012 119.7904997   0.0489988  40.5108574 120.1231892   0.3068912
  53.9490012 130.6904997  10.2549988  53.7940012 131.3684997   9.5979988
  54.8820012 130.7624997  10.4579988  54.0538500 130.7930170  10.1925119
  41.4450012 114.8084997   8.9919988  41.2160012 114.8674997   8.0639988
  41.0020012 114.0164997   9.2979988  41.3538530 114.7095753   8.9064786
  40.3750012 128.7484997   5.1519988  39.5430012 129.2214997   5.1799988
  40.9210012 129.2584997   4.5539988  40.3349739 128.8821871   5.0749716
  39.6630012 131.3614997  16.4819988  40.2040012 131.1444997  17.2419988
  39.1820012 130.5554997  16.2929988  39.6719345 131.2229514  16.5603076
  44.2610012 130.2804997  18.1029988  45.0280012 129.8214997  18.4439988
  44.2390012 130.0544997  17.1729988  44.3631434 130.1870409  18.0240043
  48.3530012 129.7884997  -0.5220012  47.7090012 129.1574997  -0.2010012
  49.1150012 129.2574997  -0.7540012  48.3678077 129.6302920  -0.5093989
  50.8380012 128.6604997  16.8319988  50.4870012 127.8044997  17.0749988
  51.5640012 128.8034997  17.4389988  50.8880769 128.5625636  16.9473619
  52.9570012 129.6054997  -0.2880012  53.2400012 128.8114997   0.1639988
  53.6970012 129.8384997  -0.8490012  53.0957486 129.5282803  -0.3019302
  39.5700012 125.1714997  17.4369988  39.7140012 124.2694997  17.1499988
  38.7980012 125.4574997  16.9489988  39.4853322 125.0868261  17.3317881
  43.9120012 125.5154997  -0.4310012  43.9760012 124.7214997   0.0999988
  44.5650012 125.3964997  -1.1210012  44.0090241 125.3907148  -0.4515683
  46.2260012 125.1414997  16.8689988  45.8970012 125.4124997  16.0119988
  46.3780012 124.2004997  16.7819988  46.2014809 125.0513862  16.7398244
  49.2640012 126.5624997  -0.6950012  48.9950012 126.7424997   0.2059988
  49.0580012 125.6364997  -0.8260012  49.1993825 126.4620152  -0.5894786
  51.9600012 125.0574997  14.2529988  52.7060012 125.6454997  14.1329988
  51.2030012 125.6394997  14.3159988  51.9597554 125.2167011  14.2450907
  40.4030012 122.3714997  16.8569988  40.8110012 121.5144997  16.7359988
  40.1430012 122.3864997  17.7779988  40.4237568 122.2560807  16.9649588
  45.0610012 123.4874997   1.8749988  44.6010012 123.0034997   2.5609988
  45.3160012 122.8194997   1.2389988  45.0324902 123.3308731   1.8829334
  44.3500012 121.3804997  14.2309988  43.7320012 122.0554997  14.5109988
  44.6940012 121.7014997  13.3979988  44.3119615 121.5162721  14.1566581
  46.1320012 121.7304997   0.1369988  45.9520012 121.5764997  -0.7900012
  47.0820012 121.8384997   0.1819988  46.2357776 121.7240175   0.0161843
  49.3700012 123.8524997  17.5079988  50.3230012 123.9354997  17.4809988
  49.2090012 123.1404997  18.1279988  49.4786426 123.7676746  17.5880579
  55.5220012 124.0854997  -0.4170012  55.2480012 123.6604997  -1.2300012
  55.5610012 125.0164997  -0.6340012  55.4897699 124.1532484  -0.5576390
  44.6890012 118.7354997  15.3129988  44.8390012 118.0064997  14.7109988
  44.6920012 119.5124997  14.7539988  44.7099302 118.7407851  15.1550692
  45.1020012 117.1054997  12.8059988  45.6380012 117.5564997  12.1539988
  44.2500012 116.9974997  12.3829988  45.0602178 117.1526390  12.6595756
  46.6840012 122.5444997  13.0449988  47.4340012 122.3884997  12.4719988
  46.3450012 123.3964997  12.7699988  46.7408921 122.6382968  12.9293561
  51.0990012 120.3594997  18.0739988  51.2920012 119.4284997  17.9619988
  51.9570012 120.7844997  18.0639988  51.2413020 120.2896389  18.0573361
  52.4160012 123.1484997  16.1509988  52.1350012 123.8574997  15.5739988
  53.3590012 123.0754997  15.9999988  52.5049027 123.2357646  16.0515551
  43.1680012 119.9334997  17.2249988  42.4010012 119.4014997  17.0149988
  43.8470012 119.6234997  16.6249988  43.1547022 119.8187506  17.1151648
  45.9080012 114.5614997  13.2369988  45.8090012 115.5084997  13.1319988
  45.1650012 114.1894997  12.7619988  45.7940564 114.6405902  13.1584560
  47.1720012 118.8834997  16.8009988  46.9360012 118.6634997  17.7029988
  46.3880012 118.6764997  16.2909988  47.0338628 118.8254760  16.8553932
  49.8870012 118.0104997  15.8769988  48.9400012 118.0424997  16.0089988
  50.2000012 117.3854997  16.5299988  49.7995475 117.9303207  15.9834455
  51.5210012 116.6444997  17.8819988  51.4250012 115.6924997  17.8759988
  51.2000012 116.9134997  18.7419988  51.4644070 116.5504035  17.9975441
  41.3480012 117.8544997  16.9289988  41.5600012 117.1474997  16.3189988
  41.2370012 117.4164997  17.7729988  41.3619721 117.6987084  16.9596843
  46.1290012 113.8554997  15.9089988  46.8410012 113.2154997  15.8949988
  46.0280012 114.1224997  14.9949988  46.2127939 113.8039938  15.7835650
  46.4830012 115.5384997  17.9619988  46.3510012 115.0624997  17.1419988
  45.8840012 116.2824997  17.9069988  46.3839071 115.5739618  17.8422886
  46.0290012 132.4214997   1.1389988  46.9620012 132.5794997   1.2819988
  45.7650012 133.0964997   0.5139988  46.1209510 132.5343611   1.0740741
  39.5980012 127.0574997   0.6209988  40.5120012 127.1364997   0.8949988
  39.6050012 126.3704997  -0.0450012  39.7241131 126.9753961   0.5684393
  38.2470012 132.4504997   5.6989988  37.6000012 131.9884997   5.1659988
  38.6010012 131.7784997   6.2809988  38.2063849 132.2964723   5.7047959
  39.1170012 130.5314997   7.5029988  38.7820012 129.6514997   7.6749988
  39.3390012 130.8764997   8.3679988  39.1011783 130.4577500   7.6434208
  56.6650012 131.3404997  10.4839988  56.6440012 131.5254997  11.4229988
  57.3560012 131.9094997  10.1429988  56.7554618 131.4426606  10.5663864
  56.2290012 130.9084997  13.4059988  55.7410012 130.1724997  13.0349988
  56.7780012 130.5144997  14.0839988  56.2364872 130.7546249  13.4469160
  54.6790012 126.6974997  18.0439988  53.8130012 126.5924997  18.4379988
  55.0560012 127.4564997  18.4899988  54.6113308 126.7856900  18.1582393
  55.9800012 124.9544997   3.5579988  56.8300012 125.3754997   3.6849988
  55.9860012 124.2144997   4.1649988  56.0971372 124.9120803   3.6574344
  56.3750012 123.0074997   5.3819988  55.6480012 122.5284997   5.7789988
  56.9560012 123.2134997   6.1139988  56.3539375 122.9697090   5.5354129
  56.1340012 125.7924997  10.3289988  56.9670012 125.4144997  10.0489988
  56.2460012 126.7354997  10.2099988  56.2632647 125.8682218  10.2745487
  54.6200012 128.6704997  12.6359988  53.9730012 128.9954997  13.2619988
  54.1030012 128.2304997  11.9619988  54.4614029 128.6555004  12.6305827
  56.6430012 122.9084997   1.7729988  56.1210012 123.2654997   1.0539988
  56.6100012 123.5834997   2.4509988  56.5671634 123.0485413   1.7663145
  54.9920012 120.1484997   0.3239988  55.0880012 120.8154997  -0.3570012
  54.8520012 119.3324997  -0.1580012  54.9862135 120.1294500   0.1658491
  54.1610012 121.5284997   5.9449988  54.0110012 120.5834997   5.9239988
  53.8080012 121.8094997   6.7879988  54.0926625 121.4370441   6.0562346
  39.1970012 123.6064997   9.9549988  39.3810012 123.5244997   9.0189988
  40.0460012 123.4824997  10.3789988  39.3370139 123.5785003   9.8841455
  55.0180012 123.4984997  15.5829988  55.6010012 122.7644997  15.7749988
  55.5820012 124.2704997  15.6299988  55.1739769 123.5024227  15.6156159
  56.5140012 121.4014997  16.2679988  55.6510012 121.0224997  16.1019988
  57.1190012 120.6624997  16.1939988  56.4775979 121.2498023  16.2352817
  54.2390012 117.5564997  -0.5590012  54.8500012 117.1854997   0.0779988
  53.4030012 117.1354997  -0.3630012  54.2095032 117.4487554  -0.4452965
  53.8720012 119.1114997   4.4069988  54.1520012 118.2044997   4.5309988
  54.6310012 119.5454997   4.0179988  54.0129277 119.0460942   4.3713682
  54.4840012 119.6924997   9.8429988  55.4170012 119.9044997   9.8089988
  54.2490012 119.7944997  10.7649988  54.5798036 119.7352769   9.9629976
  54.5130012 120.4294997  12.6189988  53.6700012 120.6974997  12.9849988
  54.9550012 121.2514997  12.4079988  54.4574158 120.5773291  12.6405491
  38.7940012 118.8774997  16.0959988  39.7140012 118.7554997  16.3319988
  38.3450012 118.1274997  16.4849988  38.8591580 118.7593727  16.1809006
  56.7960012 114.4094997  17.9719988  57.1460012 113.7554997  17.3669988
  56.9430012 115.2464997  17.5329988  56.8638419 114.4331591  17.8297118
  54.4850012 116.3744997   4.4549988  54.6680012 115.9254997   5.2809988
  53.8860012 115.7894997   3.9919988  54.4290202 116.2339975   4.5053275
  40.0150012 117.1894997   8.9869988  40.4610012 116.3974997   9.2889988
  40.4820012 117.9054997   9.4179988  40.1390172 117.1780624   9.0864820
  38.3190012 120.1884997  10.0559988  38.8110012 119.9674997   9.2649988
  38.6820012 121.0294997  10.3369988  38.4353126 120.2718357   9.9857531
  56.3160012 116.5184997  16.3219988  55.3980012 116.7894997  16.2859988
  56.4390012 115.9834997  15.5369988  56.2071066 116.4832892  16.2110487
  56.3520012 116.4414997   0.9829988  56.7640012 115.7204997   0.5079988
  57.0340012 117.1114997   1.0419988  56.5005885 116.4332368   0.9258915
  38.6330012 116.4464997   4.1099988  37.7080012 116.6554997   3.9809988
  39.0870012 116.9304997   3.4209988  38.5677368 116.5405993   3.9991226
  53.4040012 131.4304997   6.0559988  54.0560012 131.0834997   5.4479988
  53.9140012 131.9194997   6.7019988  53.5622637 131.4490597   6.0600236
  38.5970012 115.1844997  12.4549988  37.9320012 114.9384997  13.0979988
  38.1540012 115.8064997  11.8769988  38.4460956 115.2348632  12.4649352
  40.7890012 128.3594997  16.5989988  39.9680012 128.5344997  16.1389988
  40.5360012 128.2864997  17.5199988  40.6426164 128.3735622  16.6604923
  43.7430012 129.3344997  12.8579988  43.3180012 130.1434997  12.5749988
  44.6470012 129.4194997  12.5559988  43.8070271 129.4568469  12.7783776
  48.0540012 130.7334997  15.8169988  48.2390012 130.3994997  16.6949988
  48.9000012 131.0424997  15.4949988  48.1937539 130.7296047  15.8935605
  50.3990012 132.0194997  15.0609988  51.0760012 131.3864997  14.8209988
  50.7210012 132.4204997  15.8679988  50.5351637 131.9871154  15.1372793
  55.3160012 114.6084997  14.1409988  54.5040012 114.9334997  13.7529988
  55.5490012 113.8484997  13.6079988  55.2363423 114.5502436  14.0158253
  41.1450012 132.5904997  12.9049988  40.4240012 133.0304997  12.4539988
  40.7790012 132.3394997  13.7539988  40.9969804 132.6167698  12.9579840
  43.6120012 132.1904997  11.9349988  42.7470012 132.2624997  12.3389988
  43.5570012 132.7374997  11.1509988  43.4862085 132.2742685  11.8843362
  48.3220012 132.0784997  11.1099988  47.8660012 132.6074997  10.4559988
  48.4850012 132.6814997  11.8359988  48.2815585 132.2324468  11.1185062
  50.6500012 130.9564997  12.0549988  49.7450012 131.1214997  11.7899988
  51.0790012 131.8094997  11.9899988  50.5840799 131.0944483  12.0099182
  53.2540012 132.5264997  12.3499988  53.0720012 133.4424997  12.1399988
  53.4310012 132.1164997  11.5039988  53.2530210 132.5964822  12.2067885
  40.5590012 131.2134997   9.8149988  40.5410012 130.7884997  10.6729988
  41.3640012 130.8954997   9.4069988  40.6653875 131.1123812   9.8771655
  42.7010012 129.9234997   8.4699988  42.4820012 129.0074997   8.6399988
  43.5250012 130.0634997   8.9359988  42.7824420 129.8170520   8.5562774
  45.2380012 130.3934997   9.3189988  45.4510012 129.5054997   9.0319988
  45.3020012 130.3594997  10.2729988  45.2758232 130.2673102   9.4087397
  48.7460012 116.0574997   8.4629988  48.0720012 115.4284997   8.7189988
  49.3100012 115.5734997   7.8599988  48.7299230 115.9058744   8.4165340
  53.8890012 114.1654997   8.5759988  54.4930012 114.7124997   8.0739988
  53.0190012 114.4844997   8.3359988  53.8541241 114.2835806   8.4747654
  55.6160012 115.3034997   6.9089988  56.2280012 114.7894997   6.3829988
  55.9980012 116.1814997   6.9329988  55.7514540 115.3517140   6.8401830
  41.0730012 114.6914997   6.2849988  40.2960012 114.4574997   5.7779988
  41.6030012 113.8944997   6.2939988  41.0382330 114.5516988   6.2167742
  39.9090012 114.4894997   2.0889988  40.3480012 115.1004997   1.4969988
  39.2760012 115.0274997   2.5629988  39.8834514 114.6459257   2.0720930
  45.6520012 114.6184997   6.0989988  46.5270012 115.0064997   6.0689988
  45.5160012 114.4034997   7.0209988  45.7533695 114.6425184   6.2196440
  51.2090012 114.6484997   7.7479988  51.2850012 114.7434997   6.7979988
  50.9340012 113.7404997   7.8769988  51.1822321 114.5387867   7.6355079
  52.5620012 114.6744997   3.4399988  51.8600012 115.2894997   3.2309988
  52.1180012 113.8364997   3.5709988  52.4056330 114.6455783   3.4290328
  39.8100012 130.4374997   2.9869988  39.1250012 130.3994997   2.3189988
  39.8140012 131.3504997   3.2749988  39.7168193 130.5557016   2.9345284
  41.7700012 116.4054997   0.5309988  42.2620012 115.7754997   0.0039988
  42.3940012 116.7014997   1.1949988  41.9215446 116.3593199   0.5485980
  46.7960012 116.6984997   2.9879988  46.9740012 116.0524997   3.6709988
  46.7430012 117.5324997   3.4559988  46.8131829 116.7227985   3.1445940
  48.6750012 131.6474997   1.3839988  49.5410012 132.0134997   1.2059988
  48.4280012 131.2074997   0.5699988  48.7602392 131.6381756   1.2496289
  55.3840012 131.2104997   4.0629988  55.1890012 130.4624997   3.4979988
  55.3450012 131.9684997   3.4799988  55.3520380 131.2106099   3.9068384
  41.0310012 115.2054997  15.8029988  40.6650012 114.4404997  16.2459988
  41.9440012 115.2344997  16.0899988  41.1042790 115.1047224  15.9024070
  43.0040012 114.5564997  17.3389988  43.9020012 114.2824997  17.1539988
  42.6170012 113.8134997  17.8029988  43.0746612 114.4185914  17.3763643
  41.6280012 131.3574997   0.0119988  41.3610012 131.6444997   0.8849988
  42.4000012 130.8114997   0.1639988  41.6957488 131.3230294   0.1521050
  51.4250012 113.8884997  17.5209988  51.5020012 113.4624997  18.3749988
  52.3190012 113.9024997  17.1779988  51.5563428 113.8320879  17.5915310
  54.6010012 129.9614997  16.2129988  53.8190012 129.7754997  15.6939988
  54.5290012 130.8904997  16.4309988  54.4841777 130.0616492  16.1714048
  69.0070012 123.8474997   6.2439988  69.0960012 124.7914997   6.1119988
  68.3690012 123.5724997   5.5859988  68.9329081 123.9394830   6.1369614
  67.9400012 123.1024997   9.6629988  67.9020012 122.4564997  10.3679988
  67.6180012 122.6364997   8.8919988  67.8912333 122.9509408   9.6552978
  60.3090012 122.7174997  11.2559988  60.3500012 122.0914997  11.9789988
  61.0120012 123.3414997  11.4379988  60.4096363 122.7161196  11.3796044
  71.6460012 126.0414997   7.9639988  71.2060012 125.3214997   8.4149988
  71.6330012 126.7624997   8.5939988  71.5840226 126.0403731   8.1108494
  61.2320012 127.1674997   9.7909988  60.8630012 126.3654997   9.4209988
  62.1730012 126.9984997   9.8369988  61.3087289 127.0350153   9.7466316
  57.8420012 120.8274997   5.1839988  57.3950012 121.6734997   5.1649988
  57.2810012 120.2474997   4.6679988  57.7049900 120.8649916   5.1116801
  58.5530012 122.9894997   7.3099988  58.7660012 122.2194997   7.8369988
  59.2910012 123.0784997   6.7059988  58.6818496 122.8961394   7.3005300
  68.7580012 131.1464997   8.1769988  69.3780012 130.4694997   7.9029988
  68.5500012 130.9284997   9.0849988  68.8146904 131.0243870   8.2623365
  66.3300012 125.5354997  10.0689988  66.6340012 124.8494997   9.4739988
  67.0510012 125.6534997  10.6869988  66.4690671 125.4576305  10.0711816
  74.9930012 117.1364997  10.9299988  75.0420012 117.7464997  11.6659988
  75.4180012 117.5974997  10.2069988  75.0571824 117.2823741  10.9330205
  69.4710012 119.9294997  10.3969988  69.6130012 118.9834997  10.4169988
  69.3640012 120.1364997   9.4679988  69.4759863 119.8279534  10.2742339
  62.6250012 118.0304997   7.6689988  62.6690012 118.8904997   7.2509988
  62.1680012 117.4784997   7.0349988  62.5692185 118.0735799   7.5260299
  70.3480012 118.1614997   6.0699988  70.9940012 117.8324997   6.6949988
  70.8580012 118.6794997   5.4469988  70.5054264 118.1864611   6.0713862
  59.2460012 120.4274997   8.4309988  59.8990012 119.8774997   8.8629988
  59.2700012 120.1534997   7.5139988  59.3386683 120.3151466   8.3662123
  64.4020012 121.9774997   7.6459988  65.0180012 121.4514997   8.1559988
  63.8160012 121.3374997   7.2429988  64.4070810 121.8189208   7.6613173
  75.3840012 118.6144997  13.1659988  74.6960012 119.2724997  13.0699988
  75.4000012 118.4174997  14.1019988  75.2918525 118.6780462  13.2794808
  61.4360012 116.9484997  11.7429988  61.2170012 117.4784997  10.9769988
  60.7680012 117.1754997  12.3899988  61.3157600 117.0516906  11.7256379
  68.8050012 126.4484997   5.2869988  68.5090012 126.1264997   4.4359988
  68.4800012 127.3484997   5.3279988  68.7206371 126.5260215   5.1761801
  64.0050012 124.6244997  12.0299988  63.2650012 125.2224997  12.1339988
  64.7190012 125.1784997  11.7149988  64.0002237 124.7812831  12.0016465
  72.1120012 117.4524997   8.0499988  71.8960012 116.6864997   8.5829988
  72.7670012 117.9244997   8.5629988  72.1710632 117.4115889   8.1922861
  61.0290012 118.8404997   9.6949988  61.6430012 119.4734997  10.0689988
  61.5410012 118.3684997   9.0389988  61.1822296 118.8632370   9.6574252
  62.4120012 126.5884997  12.8179988  62.4070012 127.4684997  12.4399988
  61.5590012 126.5054997  13.2429988  62.2959464 126.6976117  12.8237907
  58.5330012 126.2594997   3.5999988  58.2610012 126.4884997   2.7109988
  58.5790012 127.0974997   4.0599988  58.5020094 126.4041213   3.5405697
  72.1580012 127.8814997  10.3119988  71.2170012 127.9394997  10.4739988
  72.4350012 128.7874997  10.1749988  72.0664679 128.0119443  10.3156815
  72.4590012 116.1674997  11.7299988  71.7230012 116.7784997  11.6919988
  73.1420012 116.5824997  11.2029988  72.4506541 116.3071374  11.6535832
  65.4620012 114.2544997   9.1959988  65.3450012 113.3054997   9.1409988
  64.6070012 114.5864997   9.4689988  65.3303733 114.1695409   9.2253897
  70.4100012 129.6624997   6.9379988  70.8360012 128.9554997   6.4529988
  70.7270012 130.4634997   6.5209988  70.5111019 129.6740994   6.8153130
  71.5700012 127.5634997   5.4459988  71.3120012 126.8734997   4.8349988
  71.6410012 127.1204997   6.2919988  71.5442856 127.4092124   5.4766885
  73.2560012 126.1294997  13.9239988  73.3960012 125.5384997  13.1839988
  73.4230012 127.0024997  13.5669988  73.2976778 126.1666426  13.7746965
  67.7290012 123.0914997   3.6959988  67.0170012 123.6264997   3.3439988
  68.4200012 123.1474997   3.0359988  67.7250132 123.1722543   3.5586289
  67.7820012 121.5494997   0.7349988  68.4830012 121.5714997   1.3859988
  68.0850012 120.9214997   0.0789988  67.9187830 121.4676566   0.7353711
  75.0980012 122.4694997  11.9899988  74.4450012 123.1644997  12.0789988
  75.5630012 122.6794997  11.1799988  75.0715390 122.5929425  11.8926883
  71.1340012 123.3014997   4.6479988  70.4020012 123.5294997   5.2209988
  71.5820012 122.5874997   5.1029988  71.0943095 123.2362571   4.7879119
  71.0320012 121.4754997  13.7149988  71.1120012 122.2384997  14.2869988
  70.4300012 121.7544997  13.0249988  70.9615756 121.6177134  13.7000589
  62.7800012 123.9314997   6.5299988  62.4490012 123.5614997   5.7119988
  63.3680012 123.2614997   6.8769988  62.8141873 123.7901156   6.4648102
  64.1460012 127.3594997   9.2119988  64.0520012 126.7814997   8.4549988
  64.8760012 126.9884997   9.7079988  64.2317981 127.2302390   9.1754165
  63.1460012 122.7004997  10.1639988  63.7120012 122.8214997   9.4009988
  63.4650012 123.3374997  10.8029988  63.2665786 122.8031884  10.1460040
  69.4550012 128.2034997  10.8979988  69.2150012 128.8654997  11.5459988
  69.2570012 127.3694997  11.3229988  69.3953808 128.1813134  11.0441524
  64.0260012 127.0994997  14.8809988  63.7150012 127.8814997  15.3359988
  63.3760012 126.9464997  14.1949988  63.8955558 127.1859105  14.8505871
  70.0050012 122.4634997   2.3329988  70.5850012 122.6134997   3.0799988
  70.4190012 122.9344997   1.6099988  70.1402831 122.5476841   2.3374134
  60.9460012 123.2974997  14.1099988  61.0170012 123.9484997  14.8079988
  60.0560012 123.4004997  13.7749988  60.8353117 123.4005936  14.1602700
  67.7320012 129.2004997   5.7679988  68.2060012 129.4954997   6.5459988
  67.1690012 129.9384997   5.5349988  67.7207653 129.3406932   5.8430136
  62.2660012 129.1714997  15.6439988  62.2730012 129.0354997  14.6969988
  61.3500012 129.0534997  15.8959988  62.1431714 129.1369430  15.5484666
  73.7040012 114.2134997   2.1459988  72.8040012 114.3524997   2.4409988
  73.9560012 115.0444997   1.7439988  73.6148702 114.3449074   2.1320205
  61.7700012 123.0014997   4.1199988  61.4780012 123.7694997   3.6289988
  61.0960012 122.3414997   3.9569988  61.6389081 123.0174406   4.0307340
  74.8930012 128.5794997   0.5219988  74.9670012 129.5184997   0.6929988
  75.7990012 128.2744997   0.4659988  75.0255100 128.6666722   0.5378119
  57.8630012 125.3644997  12.9349988  57.3620012 125.3364997  12.1199988
  57.8680012 124.4584997  13.2439988  57.7951526 125.2382278  12.8652872
  57.6130012 128.1444997   9.8189988  58.5590012 128.0004997   9.7999988
  57.5010012 128.9284997  10.3559988  57.7272727 128.2308046   9.8890072
  75.8110012 128.8104997  15.5009988  75.7620012 127.8554997  15.4639988
  74.9840012 129.0784997  15.9019988  75.6924940 128.7158998  15.5501375
  66.7900012 128.3844997  14.3769988  66.8770012 129.2104997  14.8519988
  65.9260012 128.0544997  14.6259988  66.6851964 128.4529878  14.4756549
  67.2040012 132.1564997   4.1829988  67.1290012 132.0354997   3.2369988
  67.2370012 133.1064997   4.3019988  67.1981848 132.2682500   4.0694834
  60.8570012 130.9454997   5.9639988  61.0100012 130.5974997   6.8429988
  60.0070012 130.5894997   5.7089988  60.7628962 130.8496650   6.0498340
  70.3060012 131.3104997   1.1849988  70.6810012 130.5664997   0.7149988
  70.3100012 131.0404997   2.1039988  70.3578915 131.1721486   1.2447824
  69.9750012 131.2364997   3.9349988  69.0390012 131.3364997   4.1129988
  70.2550012 130.5274997   4.5129988  69.8848255 131.1542711   4.0375391
  72.9630012 120.3034997  15.9809988  72.5560012 120.7844997  15.2599988
  73.0040012 119.3984997  15.6729988  72.9128437 120.2469374  15.8406683
  60.1120012 126.6874997  13.9779988  60.3280012 126.3264997  14.8369988
  59.2570012 126.3134997  13.7679988  60.0259292 126.5874111  14.0673386
  62.7310012 115.1574997   9.9729988  61.8690012 115.0704997   9.5659988
  62.7080012 116.0134997  10.4009988  62.6100330 115.2612765   9.9751863
  67.3940012 114.8794997  13.3479988  67.8140012 114.4644997  14.1009988
  66.4610012 114.7014997  13.4649988  67.3253644 114.7985900  13.4669539
  70.7200012 118.6354997  14.2009988  70.2060012 118.5094997  14.9989988
  70.5650012 119.5474997  13.9569988  70.6286852 118.7416132  14.2772158
  71.4830012 123.4964997  -0.0370012  71.5250012 123.2734997  -0.9670012
  72.3320012 123.8954997   0.1529988  71.6035396 123.5199155  -0.1386373
  67.0550012 117.3724997   0.6329988  66.8020012 117.3914997   1.5559988
  66.7990012 116.5004997   0.3319988  66.9857790 117.2572437   0.7186263
  62.8220012 120.1234997  11.0679988  62.1800012 120.0824997  11.7769988
  62.8590012 121.0494997  10.8309988  62.7391324 120.2431559  11.1329824
  62.8190012 120.3444997   5.9799988  61.9260012 120.0034997   5.9219988
  63.2690012 119.9674997   5.2249988  62.7577305 120.2468484   5.8699177
  68.3540012 120.7604997   4.7969988  67.9450012 121.5754997   4.5059988
  69.0750012 120.6204997   4.1829988  68.3954537 120.8532018   4.6741342
  67.4560012 120.9354997  16.2849988  66.8940012 120.2314997  16.6059988
  68.2830012 120.8154997  16.7529988  67.4907095 120.8227883  16.3922330
  69.3590012 120.2064997   7.6109988  69.1640012 120.8114997   6.8959988
  69.5400012 119.3724997   7.1769988  69.3567614 120.1766300   7.4544405
  60.5720012 120.4434997  12.9349988  60.5340012 120.8434997  13.8039988
  60.0810012 119.6264997  13.0259988  60.5004684 120.3878069  13.0661059
  63.9380012 117.8174997  -0.2660012  63.5070012 117.3724997   0.4639988
  63.2200012 118.1894997  -0.7780012  63.7819438 117.8068940  -0.2353201
  57.1800012 117.5594997   6.7859988  57.8110012 117.5304997   7.5049988
  57.6290012 117.1344997   6.0559988  57.3270774 117.4980492   6.7856553
  58.4540012 118.3054997   2.2099988  58.9280012 118.8964997   1.6249988
  57.7370012 118.8364997   2.5569988  58.4219341 118.4580867   2.1768836
  68.6230012 121.8444997  12.2829988  68.9460012 121.2134997  11.6399988
  68.1830012 121.3094997  12.9429988  68.6076895 121.6858440  12.2842850
  65.4000012 117.7714997   7.0669988  64.4890012 117.8284997   7.3549988
  65.9060012 117.7114997   7.8769988  65.3435413 117.7711985   7.2160622
  60.2290012 119.4004997   5.8929988  59.3390012 119.5004997   5.5529988
  60.5250012 118.5584997   5.5469988  60.1472823 119.3003545   5.7997213
  63.8820012 119.4004997   3.5499988  64.8130012 119.5294997   3.7279988
  63.6670012 120.0704997   2.8999988  63.9804247 119.5086565   3.4865747
  69.8050012 117.0064997  10.3309988  69.1290012 117.1374997  10.9949988
  69.3200012 116.8514997   9.5209988  69.6467145 117.0034905  10.3124517
  62.5560012 120.5954997   1.1169988  62.0130012 120.2154997   0.4249988
  63.3890012 120.7894997   0.6879988  62.5944399 120.5698124   0.9644526
  73.0930012 132.6784997  16.6079988  73.2930012 133.1024997  15.7729988
  73.7480012 133.0214997  17.2149988  73.2090051 132.7829648  16.5757836
  60.6910012 125.1524997  16.2159988  61.4230012 125.4064997  16.7769988
  59.9110012 125.3564997  16.7309988  60.6858232 125.2149177  16.3625760
  66.7200012 120.5594997   8.9539988  67.2850012 120.0124997   8.4069988
  66.5730012 120.0374997   9.7419988  66.7772918 120.4142024   8.9858454
  61.7220012 116.6954997   5.3719988  61.4050012 115.7934997   5.3369988
  62.5040012 116.6974997   4.8189988  61.7842284 116.5721628   5.2924783
  65.3470012 118.9474997  11.3679988  64.5110012 119.4014997  11.4779988
  65.8710012 119.2234997  12.1199988  65.3034414 119.0469376  11.4847136
  65.8910012 125.1604997   3.0519988  65.1460012 124.6534997   2.7299988
  65.7570012 125.2094997   3.9989988  65.7708776 125.0976940   3.1358647
  73.0410012 124.2934997  11.8389988  73.6830012 124.7504997  11.2949988
  72.2110012 124.4064997  11.3759988  73.0165963 124.3712704  11.7020177
  69.7890012 117.9744997   1.2519988  68.8500012 118.0864997   1.0999988
  70.0860012 118.8314997   1.5579988  69.7007666 118.1056443   1.2725768
  67.4100012 125.3444997  14.2889988  67.0650012 124.9634997  15.0959988
  67.2100012 126.2784997  14.3609988  67.3358061 125.4185228  14.4090961
  70.5070012 119.8414997   2.9119988  71.3990012 119.7044997   3.2309988
  70.5640012 120.6324997   2.3759988  70.6366285 119.9296660   2.8831691
  61.0160012 124.4554997   8.8219988  61.7610012 124.4534997   8.2209988
  61.0940012 123.6324997   9.3039988  61.1285518 124.3439315   8.8048929
  68.0170012 126.6194997   2.0779988  67.7210012 127.4454997   2.4589988
  67.3140012 125.9994997   2.2739988  67.8814914 126.6488199   2.1566443
  58.0240012 122.9164997  14.1369988  58.2470012 122.4984997  14.9689988
  57.4220012 122.3034997  13.7139988  57.9731759 122.7764668  14.1937022
  65.0400012 122.4334997  16.3499988  64.7440012 122.2674997  15.4549988
  65.9720012 122.2134997  16.3389988  65.1254166 122.3810640  16.2260536
  69.6610012 127.8064997  14.2399988  68.7600012 127.9894997  13.9719988
  69.6950012 128.0654997  15.1609988  69.5423041 127.8665512  14.3278197
  75.3920012 120.0514997   2.6069988  74.8380012 119.6554997   1.9349988
  75.4920012 120.9614997   2.3289988  75.3297059 120.1203586   2.4774401
  75.3550012 125.8514997  15.4439988  74.5040012 126.0894997  15.0769988
  75.9460012 125.8344997  14.6909988  75.3182487 125.8818258  15.2918893
  73.6870012 128.8374997   3.0719988  73.3140012 128.0114997   3.3809988
  73.9650012 128.6544997   2.1749988  73.6735630 128.6997303   2.9929626
  70.8480012 123.6454997  10.0929988  69.9190012 123.4134997  10.0659988
  71.2990012 122.8684997   9.7629988  70.7819216 123.5087238  10.0446917
  63.3910012 127.9734997   6.2259988  63.9180012 128.7464997   6.0259988
  62.5110012 128.1984997   5.9249988  63.3441773 128.1098005   6.1579010
  59.1460012 122.8354997   0.8129988  59.7620012 123.4624997   1.1929988
  58.2840012 123.1514997   1.0849988  59.1137698 122.9639430   0.9017183
  64.8180012 125.6364997   5.8029988  64.5770012 126.5614997   5.8439988
  64.0770012 125.1774997   6.1989988  64.6848409 125.7011421   5.8621377
  65.3330012 129.7854997  12.1179988  65.6950012 130.6404997  11.8839988
  65.8640012 129.4934997  12.8579988  65.4544473 129.8631060  12.1860855
  63.5010012 130.6584997   5.3479988  62.5510012 130.7634997   5.3989988
  63.8530012 131.4784997   5.6929988  63.4184203 130.7838314   5.4016650
  68.8770012 125.8844997  11.8179988  68.4510012 125.6574997  12.6449988
  69.4570012 125.1464997  11.6359988  68.8971868 125.7535299  11.9065830
  71.0800012 126.8134997   0.8919988  71.4330012 126.4334997   1.6969988
  70.1310012 126.7204997   0.9789988  71.0000441 126.7489596   1.0138559
  71.5350012 130.4364997  14.2879988  70.9340012 129.8814997  13.7919988
  71.8170012 131.1034997  13.6619988  71.4908519 130.4506841  14.1354951
  75.5830012 131.2934997   1.0929988  76.3270012 131.8794997   0.9529988
  74.8890012 131.8614997   1.4269988  75.5910292 131.4505582   1.1189961
  59.6580012 117.6694997  13.6949988  58.7650012 118.0084997  13.6269988
  59.5590012 116.8144997  14.1129988  59.5224164 117.6002588  13.7422235
  71.9460012 125.4864997   3.1189988  71.6680012 124.7584997   3.6749988
  72.8730012 125.6054997   3.3239988  72.0333124 125.4028802   3.2228845
  59.3090012 129.4744997  12.1299988  59.5260012 128.5424997  12.0989988
  59.5550012 129.7484997  13.0129988  59.3719549 129.3840636  12.2451763
  65.1710012 127.9254997  -0.6610012  65.4100012 127.1774997  -1.2080012
  64.9020012 127.5374997   0.1719988  65.1673675 127.7706638  -0.6233135
  64.1080012 127.4954997   1.7959988  64.2540012 126.9754997   2.5859988
  64.1050012 128.4024997   2.1019988  64.1275989 127.5468853   1.9456088
  60.5610012 124.7484997   2.3059988  59.8750012 125.1004997   2.8729988
  61.0830012 125.5114997   2.0589988  60.5376852 124.8998578   2.3502118
  68.3920012 117.4104997  12.5849988  69.0910012 117.4844997  13.2349988
  68.0110012 116.5464997  12.7389988  68.4361767 117.3037624  12.6948322
  69.1770012 117.0624997   3.6819988  69.3970012 117.5344997   2.8789988
  69.7350012 117.4574997   4.3519988  69.2824968 117.1804285   3.6627331
  66.8450012 129.1934997   2.5449988  66.0290012 129.6904997   2.5969988
  67.3750012 129.6684997   1.9049988  66.8049161 129.3257722   2.4655956
  66.3770012 118.7904997   4.5169988  67.1890012 119.2954997   4.5629988
  66.1320012 118.6454997   5.4309988  66.4550520 118.8400375   4.6468517
  66.9120012 119.7764997  13.7019988  67.0310012 120.3504997  14.4589988
  67.5680012 119.0884997  13.8159988  67.0169757 119.7621079  13.8210825
  67.2600012 115.8714997   5.4549988  66.9140012 116.4894997   6.0999988
  67.9190012 116.3724997   4.9739988  67.3017826 116.0235802   5.4780971
  64.1840012 130.2374997   2.5269988  64.3440012 131.0364997   2.0259988
  63.9860012 130.5434997   3.4119988  64.1791649 130.3884469   2.5779815
  62.9180012 116.9344997   2.1419988  62.8350012 117.8234997   2.4889988
  63.8080012 116.6694997   2.3739988  63.0269469 117.0201430   2.2207626
  73.1170012 117.6834997  14.5369988  72.2000012 117.9464997  14.4489988
  73.4520012 117.6804997  13.6399988  73.0369900 117.7190224  14.4037919
  71.7190012 121.4344997   8.6319988  70.9210012 121.0194997   8.3039988
  72.1640012 120.7434997   9.1229988  71.6699885 121.2843543   8.6534889
  61.1770012 127.3624997   1.2029988  61.7690012 128.0614997   1.4789988
  61.6360012 126.9294997   0.4829988  61.3201142 127.3997049   1.1434830
  59.4930012 120.0264997   0.3189988  59.4480012 120.9654997   0.4969988
  58.6050012 119.7904997   0.0489988  59.3668574 120.1231892   0.3068912
  72.8050012 130.6904997  10.2549988  72.6500012 131.3684997   9.5979988
  73.7380012 130.7624997  10.4579988  72.9098500 130.7930170  10.1925119
  60.3010012 114.8084997   8.9919988  60.0720012 114.8674997   8.0639988
  59.8580012 114.0164997   9.2979988  60.2098530 114.7095753   8.9064786
  59.2310012 128.7484997   5.1519988  58.3990012 129.2214997   5.1799988
  59.7770012 129.2584997   4.5539988  59.1909739 128.8821871   5.0749716
  58.5190012 131.3614997  16.4819988  59.0600012 131.1444997  17.2419988
  58.0380012 130.5554997  16.2929988  58.5279345 131.2229514  16.5603076
  63.1170012 130.2804997  18.1029988  63.8840012 129.8214997  18.4439988
  63.0950012 130.0544997  17.1729988  63.2191434 130.1870409  18.0240043
  67.2090012 129.7884997  -0.5220012  66.5650012 129.1574997  -0.2010012
  67.9710012 129.2574997  -0.7540012  67.2238077 129.6302920  -0.5093989
  69.6940012 128.6604997  16.8319988  69.3430012 127.8044997  17.0749988
  70.4200012 128.8034997  17.4389988  69.7440769 128.5625636  16.9473619
  71.8130012 129.6054997  -0.2880012  72.0960012 128.8114997   0.1639988
  72.5530012 129.8384997  -0.8490012  71.9517486 129.5282803  -0.3019302
  58.4260012 125.1714997  17.4369988  58.5700012 124.2694997  17.1499988
  57.6540012 125.4574997  16.9489988  58.3413322 125.0868261  17.3317881
  62.7680012 125.5154997  -0.4310012  62.8320012 124.7214997   0.0999988
  63.4210012 125.3964997  -1.1210012  62.8650241 125.3907148  -0.4515683
  65.0820012 125.1414997  16.8689988  64.7530012 125.4124997  16.0119988
  65.2340012 124.2004997  16.7819988  65.0574809 125.0513862  16.7398244
  68.1200012 126.5624997  -0.6950012  67.8510012 126.7424997   0.2059988
  67.9140012 125.6364997  -0.8260012  68.0553825 126.4620152  -0.5894786
  70.8160012 125.0574997  14.2529988  71.5620012 125.6454997  14.1329988
  70.0590012 125.6394997  14.3159988  70.8157554 125.2167011  14.2450907
  59.2590012 122.3714997  16.8569988  59.6670012 121.5144997  16.7359988
  58.9990012 122.3864997  17.7779988  59.2797568 122.2560807  16.9649588
  63.9170012 123.4874997   1.8749988  63.4570012 123.0034997   2.5609988
  64.1720012 122.8194997   1.2389988  63.8884902 123.3308731   1.8829334
  63.2060012 121.3804997  14.2309988  62.5880012 122.0554997  14.5109988
  63.5500012 121.7014997  13.3979988  63.1679615 121.5162721  14.1566581
  64.9880012 121.7304997   0.1369988  64.8080012 121.5764997  -0.7900012
  65.9380012 121.8384997   0.1819988  65.0917776 121.7240175   0.0161843
  68.2260012 123.8524997  17.5079988  69.1790012 123.9354997  17.4809988
  68.0650012 123.1404997  18.1279988  68.3346426 123.7676746  17.5880579
  74.3780012 124.0854997  -0.4170012  74.1040012 123.6604997  -1.2300012
  74.4170012 125.0164997  -0.6340012  74.3457699 124.1532484  -0.5576390
  63.5450012 118.7354997  15.3129988  63.6950012 118.0064997  14.7109988
  63.5480012 119.5124997  14.7539988  63.5659302 118.7407851  15.1550692
  63.9580012 117.1054997  12.8059988  64.4940012 117.5564997  12.1539988
  63.1060012 116.9974997  12.3829988  63.9162178 117.1526390  12.6595756
  65.5400012 122.5444997  13.0449988  66.2900012 122.3884997  12.4719988
  65.2010012 123.3964997  12.7699988  65.5968921 122.6382968  12.9293561
  69.9550012 120.3594997  18.0739988  70.1480012 119.4284997  17.9619988
  70.8130012 120.7844997  18.0639988  70.0973020 120.2896389  18.0573361
  71.2720012 123.1484997  16.1509988  70.9910012 123.8574997  15.5739988
  72.2150012 123.0754997  15.9999988  71.3609027 123.2357646  16.0515551
  62.0240012 119.9334997  17.2249988  61.2570012 119.4014997  17.0149988
  62.7030012 119.6234997  16.6249988  62.0107022 119.8187506  17.1151648
  64.7640012 114.5614997  13.2369988  64.6650012 115.5084997  13.1319988
  64.0210012 114.1894997  12.7619988  64.6500563 114.6405902  13.1584560
  66.0280012 118.8834997  16.8009988  65.7920012 118.6634997  17.7029988
  65.2440012 118.6764997  16.2909988  65.8898628 118.8254760  16.8553932
  68.7430012 118.0104997  15.8769988  67.7960012 118.0424997  16.0089988
  69.0560012 117.3854997  16.5299988  68.6555475 117.9303207  15.9834455
  70.3770012 116.6444997  17.8819988  70.2810012 115.6924997  17.8759988
  70.0560012 116.9134997  18.7419988  70.3204070 116.5504035  17.9975441
  60.2040012 117.8544997  16.9289988  60.4160012 117.1474997  16.3189988
  60.0930012 117.4164997  17.7729988  60.2179721 117.6987084  16.9596843
  64.9850012 113.8554997  15.9089988  65.6970012 113.2154997  15.8949988
  64.8840012 114.1224997  14.9949988  65.0687939 113.8039938  15.7835650
  65.3390012 115.5384997  17.9619988  65.2070012 115.0624997  17.1419988
  64.7400012 116.2824997  17.9069988  65.2399071 115.5739618  17.8422886
  64.8850012 132.4214997   1.1389988  65.8180012 132.5794997   1.2819988
  64.6210012 133.0964997   0.5139988  64.9769510 132.5343611   1.0740741
  58.4540012 127.0574997   0.6209988  59.3680012 127.1364997   0.8949988
  58.4610012 126.3704997  -0.0450012  58.5801131 126.9753961   0.5684393
  57.1030012 132.4504997   5.6989988  56.4560012 131.9884997   5.1659988
  57.4570012 131.7784997   6.2809988  57.0623849 132.2964723   5.7047959
  57.9730012 130.5314997   7.5029988  57.6380012 129.6514997   7.6749988
  58.1950012 130.8764997   8.3679988  57.9571783 130.4577500   7.6434208
  75.5210012 131.3404997  10.4839988  75.5000012 131.5254997  11.4229988
  76.2120012 131.9094997  10.1429988  75.6114618 131.4426606  10.5663864
  75.0850012 130.9084997  13.4059988  74.5970012 130.1724997  13.0349988
  75.6340012 130.5144997  14.0839988  75.0924872 130.7546249  13.4469160
  73.5350012 126.6974997  18.0439988  72.6690012 126.5924997  18.4379988
  73.9120012 127.4564997  18.4899988  73.4673308 126.7856900  18.1582393
  74.8360012 124.9544997   3.5579988  75.6860012 125.3754997   3.6849988
  74.8420012 124.2144997   4.1649988  74.9531372 124.9120803   3.6574344
  75.2310012 123.0074997   5.3819988  74.5040012 122.5284997   5.7789988
  75.8120012 123.2134997   6.1139988  75.2099375 122.9697090   5.5354129
  74.9900012 125.7924997  10.3289988  75.8230012 125.4144997  10.0489988
  75.1020012 126.7354997  10.2099988  75.1192647 125.8682218  10.2745487
  73.4760012 128.6704997  12.6359988  72.8290012 128.9954997  13.2619988
  72.9590012 128.2304997  11.9619988  73.3174029 128.6555004  12.6305827
  75.4990012 122.9084997   1.7729988  74.9770012 123.2654997   1.0539988
  75.4660012 123.5834997   2.4509988  75.4231634 123.0485413   1.7663145
  73.8480012 120.1484997   0.3239988  73.9440012 120.8154997  -0.3570012
  73.7080012 119.3324997  -0.1580012  73.8422135 120.1294500   0.1658491
  73.0170012 121.5284997   5.9449988  72.8670012 120.5834997   5.9239988
  72.6640012 121.8094997   6.7879988  72.9486625 121.4370441   6.0562346
  58.0530012 123.6064997   9.9549988  58.2370012 123.5244997   9.0189988
  58.9020012 123.4824997  10.3789988  58.1930139 123.5785003   9.8841455
  73.8740012 123.4984997  15.5829988  74.4570012 122.7644997  15.7749988
  74.4380012 124.2704997  15.6299988  74.0299769 123.5024227  15.6156159
  75.3700012 121.4014997  16.2679988  74.5070012 121.0224997  16.1019988
  75.9750012 120.6624997  16.1939988  75.3335979 121.2498023  16.2352817
  73.0950012 117.5564997  -0.5590012  73.7060012 117.1854997   0.0779988
  72.2590012 117.1354997  -0.3630012  73.0655032 117.4487554  -0.4452965
  72.7280012 119.1114997   4.4069988  73.0080012 118.2044997   4.5309988
  73.4870012 119.5454997   4.0179988  72.8689277 119.0460942   4.3713682
  73.3400012 119.6924997   9.8429988  74.2730012 119.9044997   9.8089988
  73.1050012 119.7944997  10.7649988  73.4358036 119.7352769   9.9629976
  73.3690012 120.4294997  12.6189988  72.5260012 120.6974997  12.9849988
  73.8110012 121.2514997  12.4079988  73.3134158 120.5773291  12.6405491
  57.6500012 118.8774997  16.0959988  58.5700012 118.7554997  16.3319988
  57.2010012 118.1274997  16.4849988  57.7151580 118.7593727  16.1809006
  75.6520012 114.4094997  17.9719988  76.0020012 113.7554997  17.3669988
  75.7990012 115.2464997  17.5329988  75.7198419 114.4331591  17.8297118
  73.3410012 116.3744997   4.4549988  73.5240012 115.9254997   5.2809988
  72.7420012 115.7894997   3.9919988  73.2850202 116.2339975   4.5053275
  58.8710012 117.1894997   8.9869988  59.3170012 116.3974997   9.2889988
  59.3380012 117.9054997   9.4179988  58.9950172 117.1780624   9.0864820
  57.1750012 120.1884997  10.0559988  57.6670012 119.9674997   9.2649988
  57.5380012 121.0294997  10.3369988  57.2913126 120.2718357   9.9857531
  75.1720012 116.5184997  16.3219988  74.2540012 116.7894997  16.2859988
  75.2950012 115.9834997  15.5369988  75.0631066 116.4832892  16.2110487
  75.2080012 116.4414997   0.9829988  75.6200012 115.7204997   0.5079988
  75.8900012 117.1114997   1.0419988  75.3565885 116.4332368   0.9258915
  57.4890012 116.4464997   4.1099988  56.5640012 116.6554997   3.9809988
  57.9430012 116.9304997   3.4209988  57.4237368 116.5405993   3.9991226
  72.2600012 131.4304997   6.0559988  72.9120012 131.0834997   5.4479988
  72.7700012 131.9194997   6.7019988  72.4182637 131.4490597   6.0600236
  57.4530012 115.1844997  12.4549988  56.7880012 114.9384997  13.0979988
  57.0100012 115.8064997  11.8769988  57.3020956 115.2348632  12.4649352
  59.6450012 128.3594997  16.5989988  58.8240012 128.5344997  16.1389988
  59.3920012 128.2864997  17.5199988  59.4986164 128.3735622  16.6604923
  62.5990012 129.3344997  12.8579988  62.1740012 130.1434997  12.5749988
  63.5030012 129.4194997  12.5559988  62.6630271 129.4568469  12.7783776
  66.9100012 130.7334997  15.8169988  67.0950012 130.3994997  16.6949988
  67.7560012 131.0424997  15.4949988  67.0497539 130.7296047  15.8935605
  69.2550012 132.0194997  15.0609988  69.9320012 131.3864997  14.8209988
  69.5770012 132.4204997  15.8679988  69.3911637 131.9871154  15.1372793
  74.1720012 114.6084997  14.1409988  73.3600012 114.9334997  13.7529988
  74.4050012 113.8484997  13.6079988  74.0923423 114.5502436  14.0158253
  60.0010012 132.5904997  12.9049988  59.2800012 133.0304997  12.4539988
  59.6350012 132.3394997  13.7539988  59.8529804 132.6167698  12.9579840
  62.4680012 132.1904997  11.9349988  61.6030012 132.2624997  12.3389988
  62.4130012 132.7374997  11.1509988  62.3422085 132.2742685  11.8843362
  67.1780012 132.0784997  11.1099988  66.7220012 132.6074997  10.4559988
  67.3410012 132.6814997  11.8359988  67.1375585 132.2324468  11.1185062
  69.5060012 130.9564997  12.0549988  68.6010012 131.1214997  11.7899988
  69.9350012 131.8094997  11.9899988  69.4400799 131.0944483  12.0099182
  72.1100012 132.5264997  12.3499988  71.9280012 133.4424997  12.1399988
  72.2870012 132.1164997  11.5039988  72.1090210 132.5964822  12.2067885
  59.4150012 131.2134997   9.8149988  59.3970012 130.7884997  10.6729988
  60.2200012 130.8954997   9.4069988  59.5213875 131.1123812   9.8771655
  61.5570012 129.9234997   8.4699988  61.3380012 129.0074997   8.6399988
  62.3810012 130.0634997   8.9359988  61.6384420 129.8170520   8.5562774
  64.0940012 130.3934997   9.3189988  64.3070012 129.5054997   9.0319988
  64.1580012 130.3594997  10.2729988  64.1318232 130.2673102   9.4087397
  67.6020012 116.0574997   8.4629988  66.9280012 115.4284997   8.7189988
  68.1660012 115.5734997   7.8599988  67.5859230 115.9058744   8.4165340
  72.7450012 114.1654997   8.5759988  73.3490012 114.7124997   8.0739988
  71.8750012 114.4844997   8.3359988  72.7101241 114.2835806   8.4747654
  74.4720012 115.3034997   6.9089988  75.0840012 114.7894997   6.3829988
  74.8540012 116.1814997   6.9329988  74.6074540 115.3517140   6.8401830
  59.9290012 114.6914997   6.2849988  59.1520012 114.4574997   5.7779988
  60.4590012 113.8944997   6.2939988  59.8942330 114.5516988   6.2167742
  58.7650012 114.4894997   2.0889988  59.2040012 115.1004997   1.4969988
  58.1320012 115.0274997   2.5629988  58.7394514 114.6459257   2.0720930
  64.5080012 114.6184997   6.0989988  65.3830012 115.0064997   6.0689988
  64.3720012 114.4034997   7.0209988  64.6093695 114.6425184   6.2196440
  70.0650012 114.6484997   7.7479988  70.1410012 114.7434997   6.7979988
  69.7900012 113.7404997   7.8769988  70.0382321 114.5387867   7.6355079
  71.4180012 114.6744997   3.4399988  70.7160012 115.2894997   3.2309988
  70.9740012 113.8364997   3.5709988  71.2616330 114.6455783   3.4290328
  58.6660012 130.4374997   2.9869988  57.9810012 130.3994997   2.3189988
  58.6700012 131.3504997   3.2749988  58.5728193 130.5557016   2.9345284
  60.6260012 116.4054997   0.5309988  61.1180012 115.7754997   0.0039988
  61.2500012 116.7014997   1.1949988  60.7775446 116.3593199   0.5485980
  65.6520012 116.6984997   2.9879988  65.8300012 116.0524997   3.6709988
  65.5990012 117.5324997   3.4559988  65.6691829 116.7227985   3.1445940
  67.5310012 131.6474997   1.3839988  68.3970012 132.0134997   1.2059988
  67.2840012 131.2074997   0.5699988  67.6162392 131.6381756   1.2496289
  74.2400012 131.2104997   4.0629988  74.0450012 130.4624997   3.4979988
  74.2010012 131.9684997   3.4799988  74.2080380 131.2106099   3.9068384
  59.8870012 115.2054997  15.8029988  59.5210012 114.4404997  16.2459988
  60.8000012 115.2344997  16.0899988  59.9602790 115.1047224  15.9024070
  61.8600012 114.5564997  17.3389988  62.7580012 114.2824997  17.1539988
  61.4730012 113.8134997  17.8029988  61.9306612 114.4185914  17.3763643
  60.4840012 131.3574997   0.0119988  60.2170012 131.6444997   0.8849988
  61.2560012 130.8114997   0.1639988  60.5517488 131.3230294   0.1521050
  70.2810012 113.8884997  17.5209988  70.3580012 113.4624997  18.3749988
  71.1750012 113.9024997  17.1779988  70.4123428 113.8320879  17.5915310
  73.4570012 129.9614997  16.2129988  72.6750012 129.7754997  15.6939988
  73.3850012 130.8904997  16.4309988  73.3401777 130.0616492  16.1714048
  87.8630012 123.8474997   6.2439988  87.9520012 124.7914997   6.1119988
  87.2250012 123.5724997   5.5859988  87.7889081 123.9394830   6.1369614
  86.7960012 123.1024997   9.6629988  86.7580012 122.4564997  10.3679988
  86.4740012 122.6364997   8.8919988  86.7472333 122.9509408   9.6552978
  79.1650012 122.7174997  11.2559988  79.2060012 122.0914997  11.9789988
  79.8680012 123.3414997  11.4379988  79.2656363 122.7161196  11.3796044
  90.5020012 126.0414997   7.9639988  90.0620012 125.3214997   8.4149988
  90.4890012 126.7624997   8.5939988  90.4400226 126.0403731   8.1108494
  80.0880012 127.1674997   9.7909988  79.7190012 126.3654997   9.4209988
  81.0290012 126.9984997   9.8369988  80.1647289 127.0350153   9.7466316
  76.6980012 120.8274997   5.1839988  76.2510012 121.6734997   5.1649988
  76.1370012 120.2474997   4.6679988  76.5609900 120.8649916   5.1116801
  77.4090012 122.9894997   7.3099988  77.6220012 122.2194997   7.8369988
  78.1470012 123.0784997   6.7059988  77.5378496 122.8961394   7.3005300
  87.6140012 131.1464997   8.1769988  88.2340012 130.4694997   7.9029988
  87.4060012 130.9284997   9.0849988  87.6706904 131.0243870   8.2623365
  85.1860012 125.5354997  10.0689988  85.4900012 124.8494997   9.4739988
  85.9070012 125.6534997  10.6869988  85.3250671 125.4576305  10.0711816
  93.8490012 117.1364997  10.9299988  93.8980012 117.7464997  11.6659988
  94.2740012 117.5974997  10.2069988  93.9131824 117.2823741  10.9330205
  88.3270012 119.9294997  10.3969988  88.4690012 118.9834997  10.4169988
  88.2200012 120.1364997   9.4679988  88.3319864 119.8279534  10.2742339
  81.4810012 118.0304997   7.6689988  81.5250012 118.8904997   7.2509988
  81.0240012 117.4784997   7.0349988  81.4252185 118.0735799   7.5260299
  89.2040012 118.1614997   6.0699988  89.8500012 117.8324997   6.6949988
  89.7140012 118.6794997   5.4469988  89.3614264 118.1864611   6.0713862
  78.1020012 120.4274997   8.4309988  78.7550012 119.8774997   8.8629988
  78.1260012 120.1534997   7.5139988  78.1946683 120.3151466   8.3662123
  83.2580012 121.9774997   7.6459988  83.8740012 121.4514997   8.1559988
  82.6720012 121.3374997   7.2429988  83.2630810 121.8189208   7.6613173
  94.2400012 118.6144997  13.1659988  93.5520012 119.2724997  13.0699988
  94.2560012 118.4174997  14.1019988  94.1478525 118.6780462  13.2794808
  80.2920012 116.9484997  11.7429988  80.0730012 117.4784997  10.9769988
  79.6240012 117.1754997  12.3899988  80.1717600 117.0516906  11.7256379
  87.6610012 126.4484997   5.2869988  87.3650012 126.1264997   4.4359988
  87.3360012 127.3484997   5.3279988  87.5766371 126.5260215   5.1761801
  82.8610012 124.6244997  12.0299988  82.1210012 125.2224997  12.1339988
  83.5750012 125.1784997  11.7149988  82.8562237 124.7812831  12.0016465
  90.9680012 117.4524997   8.0499988  90.7520012 116.6864997   8.5829988
  91.6230012 117.9244997   8.5629988  91.0270632 117.4115889   8.1922861
  79.8850012 118.8404997   9.6949988  80.4990012 119.4734997  10.0689988
  80.3970012 118.3684997   9.0389988  80.0382296 118.8632370   9.6574252
  81.2680012 126.5884997  12.8179988  81.2630012 127.4684997  12.4399988
  80.4150012 126.5054997  13.2429988  81.1519464 126.6976117  12.8237907
  77.3890012 126.2594997   3.5999988  77.1170012 126.4884997   2.7109988
  77.4350012 127.0974997   4.0599988  77.3580094 126.4041213   3.5405697
  91.0140012 127.8814997  10.3119988  90.0730012 127.9394997  10.4739988
  91.2910012 128.7874997  10.1749988  90.9224679 128.0119443  10.3156815
  91.3150012 116.1674997  11.7299988  90.5790012 116.7784997  11.6919988
  91.9980012 116.5824997  11.2029988  91.3066541 116.3071374  11.6535832
  84.3180012 114.2544997   9.1959988  84.2010012 113.3054997   9.1409988
  83.4630012 114.5864997   9.4689988  84.1863733 114.1695409   9.2253897
  89.2660012 129.6624997   6.9379988  89.6920012 128.9554997   6.4529988
  89.5830012 130.4634997   6.5209988  89.3671019 129.6740994   6.8153130
  90.4260012 127.5634997   5.4459988  90.1680012 126.8734997   4.8349988
  90.4970012 127.1204997   6.2919988  90.4002856 127.4092124   5.4766885
  92.1120012 126.1294997  13.9239988  92.2520012 125.5384997  13.1839988
  92.2790012 127.0024997  13.5669988  92.1536778 126.1666426  13.7746965
  86.5850012 123.0914997   3.6959988  85.8730012 123.6264997   3.3439988
  87.2760012 123.1474997   3.0359988  86.5810132 123.1722543   3.5586289
  86.6380012 121.5494997   0.7349988  87.3390012 121.5714997   1.3859988
  86.9410012 120.9214997   0.0789988  86.7747830 121.4676566   0.7353711
  93.9540012 122.4694997  11.9899988  93.3010012 123.1644997  12.0789988
  94.4190012 122.6794997  11.1799988  93.9275390 122.5929425  11.8926883
  89.9900012 123.3014997   4.6479988  89.2580012 123.5294997   5.2209988
  90.4380012 122.5874997   5.1029988  89.9503095 123.2362571   4.7879119
  89.8880012 121.4754997  13.7149988  89.9680012 122.2384997  14.2869988
  89.2860012 121.7544997  13.0249988  89.8175756 121.6177134  13.7000589
  81.6360012 123.9314997   6.5299988  81.3050012 123.5614997   5.7119988
  82.2240012 123.2614997   6.8769988  81.6701873 123.7901156   6.4648102
  83.0020012 127.3594997   9.2119988  82.9080012 126.7814997   8.4549988
  83.7320012 126.9884997   9.7079988  83.0877981 127.2302390   9.1754165
  82.0020012 122.7004997  10.1639988  82.5680012 122.8214997   9.4009988
  82.3210012 123.3374997  10.8029988  82.1225786 122.8031884  10.1460040
  88.3110012 128.2034997  10.8979988  88.0710012 128.8654997  11.5459988
  88.1130012 127.3694997  11.3229988  88.2513808 128.1813134  11.0441524
  82.8820012 127.0994997  14.8809988  82.5710012 127.8814997  15.3359988
  82.2320012 126.9464997  14.1949988  82.7515558 127.1859105  14.8505871
  88.8610012 122.4634997   2.3329988  89.4410012 122.6134997   3.0799988
  89.2750012 122.9344997   1.6099988  88.9962830 122.5476841   2.3374134
  79.8020012 123.2974997  14.1099988  79.8730012 123.9484997  14.8079988
  78.9120012 123.4004997  13.7749988  79.6913117 123.4005936  14.1602700
  86.5880012 129.2004997   5.7679988  87.0620012 129.4954997   6.5459988
  86.0250012 129.9384997   5.5349988  86.5767653 129.3406932   5.8430136
  81.1220012 129.1714997  15.6439988  81.1290012 129.0354997  14.6969988
  80.2060012 129.0534997  15.8959988  80.9991714 129.1369430  15.5484666
  92.5600012 114.2134997   2.1459988  91.6600012 114.3524997   2.4409988
  92.8120012 115.0444997   1.7439988  92.4708702 114.3449074   2.1320205
  80.6260012 123.0014997   4.1199988  80.3340012 123.7694997   3.6289988
  79.9520012 122.3414997   3.9569988  80.4949081 123.0174406   4.0307340
  93.7490012 128.5794997   0.5219988  93.8230012 129.5184997   0.6929988
  94.6550012 128.2744997   0.4659988  93.8815100 128.6666722   0.5378119
  76.7190012 125.3644997  12.9349988  76.2180012 125.3364997  12.1199988
  76.7240012 124.4584997  13.2439988  76.6511526 125.2382278  12.8652872
  76.4690012 128.1444997   9.8189988  77.4150012 128.0004997   9.7999988
  76.3570012 128.9284997  10.3559988  76.5832727 128.2308046   9.8890072
  94.6670012 128.8104997  15.5009988  94.6180012 127.8554997  15.4639988
  93.8400012 129.0784997  15.9019988  94.5484940 128.7158998  15.5501375
  85.6460012 128.3844997  14.3769988  85.7330012 129.2104997  14.8519988
  84.7820012 128.0544997  14.6259988  85.5411964 128.4529878  14.4756549
  86.0600012 132.1564997   4.1829988  85.9850012 132.0354997   3.2369988
  86.0930012 133.1064997   4.3019988  86.0541848 132.2682500   4.0694834
  79.7130012 130.9454997   5.9639988  79.8660012 130.5974997   6.8429988
  78.8630012 130.5894997   5.7089988  79.6188962 130.8496650   6.0498340
  89.1620012 131.3104997   1.1849988  89.5370012 130.5664997   0.7149988
  89.1660012 131.0404997   2.1039988  89.2138915 131.1721486   1.2447824
  88.8310012 131.2364997   3.9349988  87.8950012 131.3364997   4.1129988
  89.1110012 130.5274997   4.5129988  88.7408255 131.1542711   4.0375391
  91.8190012 120.3034997  15.9809988  91.4120012 120.7844997  15.2599988
  91.8600012 119.3984997  15.6729988  91.7688437 120.2469374  15.8406683
  78.9680012 126.6874997  13.9779988  79.1840012 126.3264997  14.8369988
  78.1130012 126.3134997  13.7679988  78.8819292 126.5874111  14.0673386
  81.5870012 115.1574997   9.9729988  80.7250012 115.0704997   9.5659988
  81.5640012 116.0134997  10.4009988  81.4660330 115.2612765   9.9751863
  86.2500012 114.8794997  13.3479988  86.6700012 114.4644997  14.1009988
  85.3170012 114.7014997  13.4649988  86.1813644 114.7985900  13.4669539
  89.5760012 118.6354997  14.2009988  89.0620012 118.5094997  14.9989988
  89.4210012 119.5474997  13.9569988  89.4846852 118.7416132  14.2772158
  90.3390012 123.4964997  -0.0370012  90.3810012 123.2734997  -0.9670012
  91.1880012 123.8954997   0.1529988  90.4595396 123.5199155  -0.1386373
  85.9110012 117.3724997   0.6329988  85.6580012 117.3914997   1.5559988
  85.6550012 116.5004997   0.3319988  85.8417790 117.2572437   0.7186263
  81.6780012 120.1234997  11.0679988  81.0360012 120.0824997  11.7769988
  81.7150012 121.0494997  10.8309988  81.5951324 120.2431559  11.1329824
  81.6750012 120.3444997   5.9799988  80.7820012 120.0034997   5.9219988
  82.1250012 119.9674997   5.2249988  81.6137305 120.2468484   5.8699177
  87.2100012 120.7604997   4.7969988  86.8010012 121.5754997   4.5059988
  87.9310012 120.6204997   4.1829988  87.2514537 120.8532018   4.6741342
  86.3120012 120.9354997  16.2849988  85.7500012 120.2314997  16.6059988
  87.1390012 120.8154997  16.7529988  86.3467095 120.8227883  16.3922330
  88.2150012 120.2064997   7.6109988  88.0200012 120.8114997   6.8959988
  88.3960012 119.3724997   7.1769988  88.2127614 120.1766300   7.4544405
  79.4280012 120.4434997  12.9349988  79.3900012 120.8434997  13.8039988
  78.9370012 119.6264997  13.0259988  79.3564684 120.3878069  13.0661059
  82.7940012 117.8174997  -0.2660012  82.3630012 117.3724997   0.4639988
  82.0760012 118.1894997  -0.7780012  82.6379438 117.8068940  -0.2353201
  76.0360012 117.5594997   6.7859988  76.6670012 117.5304997   7.5049988
  76.4850012 117.1344997   6.0559988  76.1830774 117.4980492   6.7856553
  77.3100012 118.3054997   2.2099988  77.7840012 118.8964997   1.6249988
  76.5930012 118.8364997   2.5569988  77.2779341 118.4580867   2.1768836
  87.4790012 121.8444997  12.2829988  87.8020012 121.2134997  11.6399988
  87.0390012 121.3094997  12.9429988  87.4636895 121.6858441  12.2842850
  84.2560012 117.7714997   7.0669988  83.3450012 117.8284997   7.3549988
  84.7620012 117.7114997   7.8769988  84.1995413 117.7711985   7.2160622
  79.0850012 119.4004997   5.8929988  78.1950012 119.5004997   5.5529988
  79.3810012 118.5584997   5.5469988  79.0032823 119.3003545   5.7997213
  82.7380012 119.4004997   3.5499988  83.6690012 119.5294997   3.7279988
  82.5230012 120.0704997   2.8999988  82.8364247 119.5086565   3.4865747
  88.6610012 117.0064997  10.3309988  87.9850012 117.1374997  10.9949988
  88.1760012 116.8514997   9.5209988  88.5027145 117.0034905  10.3124517
  81.4120012 120.5954997   1.1169988  80.8690012 120.2154997   0.4249988
  82.2450012 120.7894997   0.6879988  81.4504399 120.5698124   0.9644526
  91.9490012 132.6784997  16.6079988  92.1490012 133.1024997  15.7729988
  92.6040012 133.0214997  17.2149988  92.0650051 132.7829648  16.5757836
  79.5470012 125.1524997  16.2159988  80.2790012 125.4064997  16.7769988
  78.7670012 125.3564997  16.7309988  79.5418232 125.2149177  16.3625760
  85.5760012 120.5594997   8.9539988  86.1410012 120.0124997   8.4069988
  85.4290012 120.0374997   9.7419988  85.6332918 120.4142024   8.9858454
  80.5780012 116.6954997   5.3719988  80.2610012 115.7934997   5.3369988
  81.3600012 116.6974997   4.8189988  80.6402284 116.5721628   5.2924783
  84.2030012 118.9474997  11.3679988  83.3670012 119.4014997  11.4779988
  84.7270012 119.2234997  12.1199988  84.1594414 119.0469376  11.4847136
  84.7470012 125.1604997   3.0519988  84.0020012 124.6534997   2.7299988
  84.6130012 125.2094997   3.9989988  84.6268776 125.0976940   3.1358647
  91.8970012 124.2934997  11.8389988  92.5390012 124.7504997  11.2949988
  91.0670012 124.4064997  11.3759988  91.8725963 124.3712704  11.7020177
  88.6450012 117.9744997   1.2519988  87.7060012 118.0864997   1.0999988
  88.9420012 118.8314997   1.5579988  88.5567666 118.1056443   1.2725768
  86.2660012 125.3444997  14.2889988  85.9210012 124.9634997  15.0959988
  86.0660012 126.2784997  14.3609988  86.1918061 125.4185228  14.4090961
  89.3630012 119.8414997   2.9119988  90.2550012 119.7044997   3.2309988
  89.4200012 120.6324997   2.3759988  89.4926285 119.9296660   2.8831691
  79.8720012 124.4554997   8.8219988  80.6170012 124.4534997   8.2209988
  79.9500012 123.6324997   9.3039988  79.9845518 124.3439315   8.8048929
  86.8730012 126.6194997   2.0779988  86.5770012 127.4454997   2.4589988
  86.1700012 125.9994997   2.2739988  86.7374914 126.6488199   2.1566443
  76.8800012 122.9164997  14.1369988  77.1030012 122.4984997  14.9689988
  76.2780012 122.3034997  13.7139988  76.8291759 122.7764668  14.1937022
  83.8960012 122.4334997  16.3499988  83.6000012 122.2674997  15.4549988
  84.8280012 122.2134997  16.3389988  83.9814166 122.3810640  16.2260536
  88.5170012 127.8064997  14.2399988  87.6160012 127.9894997  13.9719988
  88.5510012 128.0654997  15.1609988  88.3983041 127.8665512  14.3278197
  94.2480012 120.0514997   2.6069988  93.6940012 119.6554997   1.9349988
  94.3480012 120.9614997   2.3289988  94.1857059 120.1203586   2.4774401
  94.2110012 125.8514997  15.4439988  93.3600012 126.0894997  15.0769988
  94.8020012 125.8344997  14.6909988  94.1742487 125.8818258  15.2918893
  92.5430012 128.8374997   3.0719988  92.1700012 128.0114997   3.3809988
  92.8210012 128.6544997   2.1749988  92.5295630 128.6997303   2.9929626
  89.7040012 123.6454997  10.0929988  88.7750012 123.4134997  10.0659988
  90.1550012 122.8684997   9.7629988  89.6379216 123.5087238  10.0446917
  82.2470012 127.9734997   6.2259988  82.7740012 128.7464997   6.0259988
  81.3670012 128.1984997   5.9249988  82.2001773 128.1098005   6.1579010
  78.0020012 122.8354997   0.8129988  78.6180012 123.4624997   1.1929988
  77.1400012 123.1514997   1.0849988  77.9697698 122.9639430   0.9017183
  83.6740012 125.6364997   5.8029988  83.4330012 126.5614997   5.8439988
  82.9330012 125.1774997   6.1989988  83.5408409 125.7011421   5.8621377
  84.1890012 129.7854997  12.1179988  84.5510012 130.6404997  11.8839988
  84.7200012 129.4934997  12.8579988  84.3104473 129.8631060  12.1860855
  82.3570012 130.6584997   5.3479988  81.4070012 130.7634997   5.3989988
  82.7090012 131.4784997   5.6929988  82.2744203 130.7838314   5.4016650
  87.7330012 125.8844997  11.8179988  87.3070012 125.6574997  12.6449988
  88.3130012 125.1464997  11.6359988  87.7531868 125.7535299  11.9065830
  89.9360012 126.8134997   0.8919988  90.2890012 126.4334997   1.6969988
  88.9870012 126.7204997   0.9789988  89.8560441 126.7489596   1.0138559
  90.3910012 130.4364997  14.2879988  89.7900012 129.8814997  13.7919988
  90.6730012 131.1034997  13.6619988  90.3468519 130.4506841  14.1354952
  94.4390012 131.2934997   1.0929988  95.1830012 131.8794997   0.9529988
  93.7450012 131.8614997   1.4269988  94.4470292 131.4505582   1.1189961
  78.5140012 117.6694997  13.6949988  77.6210012 118.0084997  13.6269988
  78.4150012 116.8144997  14.1129988  78.3784164 117.6002588  13.7422235
  90.8020012 125.4864997   3.1189988  90.5240012 124.7584997   3.6749988
  91.7290012 125.6054997   3.3239988  90.8893124 125.4028802   3.2228845
  78.1650012 129.4744997  12.1299988  78.3820012 128.5424997  12.0989988
  78.4110012 129.7484997  13.0129988  78.2279549 129.3840636  12.2451763
  84.0270012 127.9254997  -0.6610012  84.2660012 127.1774997  -1.2080012
  83.7580012 127.5374997   0.1719988  84.0233675 127.7706638  -0.6233135
  82.9640012 127.4954997   1.7959988  83.1100012 126.9754997   2.5859988
  82.9610012 128.4024997   2.1019988  82.9835989 127.5468853   1.9456088
  79.4170012 124.7484997   2.3059988  78.7310012 125.1004997   2.8729988
  79.9390012 125.5114997   2.0589988  79.3936852 124.8998578   2.3502118
  87.2480012 117.4104997  12.5849988  87.9470012 117.4844997  13.2349988
  86.8670012 116.5464997  12.7389988  87.2921767 117.3037624  12.6948322
  88.0330012 117.0624997   3.6819988  88.2530012 117.5344997   2.8789988
  88.5910012 117.4574997   4.3519988  88.1384968 117.1804285   3.6627331
  85.7010012 129.1934997   2.5449988  84.8850012 129.6904997   2.5969988
  86.2310012 129.6684997   1.9049988  85.6609161 129.3257722   2.4655956
  85.2330012 118.7904997   4.5169988  86.0450012 119.2954997   4.5629988
  84.9880012 118.6454997   5.4309988  85.3110520 118.8400375   4.6468517
  85.7680012 119.7764997  13.7019988  85.8870012 120.3504997  14.4589988
  86.4240012 119.0884997  13.8159988  85.8729757 119.7621079  13.8210825
  86.1160012 115.8714997   5.4549988  85.7700012 116.4894997   6.0999988
  86.7750012 116.3724997   4.9739988  86.1577826 116.0235802   5.4780971
  83.0400012 130.2374997   2.5269988  83.2000012 131.0364997   2.0259988
  82.8420012 130.5434997   3.4119988  83.0351649 130.3884469   2.5779815
  81.7740012 116.9344997   2.1419988  81.6910012 117.8234997   2.4889988
  82.6640012 116.6694997   2.3739988  81.8829469 117.0201430   2.2207626
  91.9730012 117.6834997  14.5369988  91.0560012 117.9464997  14.4489988
  92.3080012 117.6804997  13.6399988  91.8929900 117.7190224  14.4037919
  90.5750012 121.4344997   8.6319988  89.7770012 121.0194997   8.3039988
  91.0200012 120.7434997   9.1229988  90.5259885 121.2843543   8.6534889
  80.0330012 127.3624997   1.2029988  80.6250012 128.0614997   1.4789988
  80.4920012 126.9294997   0.4829988  80.1761142 127.3997049   1.1434830
  78.3490012 120.0264997   0.3189988  78.3040012 120.9654997   0.4969988
  77.4610012 119.7904997   0.0489988  78.2228574 120.1231892   0.3068912
  91.6610012 130.6904997  10.2549988  91.5060012 131.3684997   9.5979988
  92.5940012 130.7624997  10.4579988  91.7658500 130.7930170  10.1925119
  79.1570012 114.8084997   8.9919988  78.9280012 114.8674997   8.0639988
  78.7140012 114.0164997   9.2979988  79.0658530 114.7095753   8.9064786
  78.0870012 128.7484997   5.1519988  77.2550012 129.2214997   5.1799988
  78.6330012 129.2584997   4.5539988  78.0469739 128.8821871   5.0749716
  77.3750012 131.3614997  16.4819988  77.9160012 131.1444997  17.2419988
  76.8940012 130.5554997  16.2929988  77.3839345 131.2229514  16.5603076
  81.9730012 130.2804997  18.1029988  82.7400012 129.8214997  18.4439988
  81.9510012 130.0544997  17.1729988  82.0751434 130.1870409  18.0240043
  86.0650012 129.7884997  -0.5220012  85.4210012 129.1574997  -0.2010012
  86.8270012 129.2574997  -0.7540012  86.0798077 129.6302920  -0.5093989
  88.5500012 128.6604997  16.8319988  88.1990012 127.8044997  17.0749988
  89.2760012 128.8034997  17.4389988  88.6000769 128.5625636  16.9473619
  90.6690012 129.6054997  -0.2880012  90.9520012 128.8114997   0.1639988
  91.4090012 129.8384997  -0.8490012  90.8077486 129.5282803  -0.3019302
  77.2820012 125.1714997  17.4369988  77.4260012 124.2694997  17.1499988
  76.5100012 125.4574997  16.9489988  77.1973322 125.0868261  17.3317881
  81.6240012 125.5154997  -0.4310012  81.6880012 124.7214997   0.0999988
  82.2770012 125.3964997  -1.1210012  81.7210241 125.3907148  -0.4515683
  83.9380012 125.1414997  16.8689988  83.6090012 125.4124997  16.0119988
  84.0900012 124.2004997  16.7819988  83.9134809 125.0513862  16.7398244
  86.9760012 126.5624997  -0.6950012  86.7070012 126.7424997   0.2059988
  86.7700012 125.6364997  -0.8260012  86.9113825 126.4620152  -0.5894786
  89.6720012 125.0574997  14.2529988  90.4180012 125.6454997  14.1329988
  88.9150012 125.6394997  14.3159988  89.6717554 125.2167011  14.2450907
  78.1150012 122.3714997  16.8569988  78.5230012 121.5144997  16.7359988
  77.8550012 122.3864997  17.7779988  78.1357568 122.2560807  16.9649588
  82.7730012 123.4874997   1.8749988  82.3130012 123.0034997   2.5609988
  83.0280012 122.8194997   1.2389988  82.7444902 123.3308731   1.8829334
  82.0620012 121.3804997  14.2309988  81.4440012 122.0554997  14.5109988
  82.4060012 121.7014997  13.3979988  82.0239615 121.5162721  14.1566581
  83.8440012 121.7304997   0.1369988  83.6640012 121.5764997  -0.7900012
  84.7940012 121.8384997   0.1819988  83.9477776 121.7240175   0.0161843
  87.0820012 123.8524997  17.5079988  88.0350012 123.9354997  17.4809988
  86.9210012 123.1404997  18.1279988  87.1906426 123.7676746  17.5880579
  93.2340012 124.0854997  -0.4170012  92.9600012 123.6604997  -1.2300012
  93.2730012 125.0164997  -0.6340012  93.2017699 124.1532484  -0.5576390
  82.4010012 118.7354997  15.3129988  82.5510012 118.0064997  14.7109988
  82.4040012 119.5124997  14.7539988  82.4219302 118.7407851  15.1550692
  82.8140012 117.1054997  12.8059988  83.3500012 117.5564997  12.1539988
  81.9620012 116.9974997  12.3829988  82.7722178 117.1526390  12.6595756
  84.3960012 122.5444997  13.0449988  85.1460012 122.3884997  12.4719988
  84.0570012 123.3964997  12.7699988  84.4528921 122.6382968  12.9293561
  88.8110012 120.3594997  18.0739988  89.0040012 119.4284997  17.9619988
  89.6690012 120.7844997  18.0639988  88.9533020 120.2896389  18.0573361
  90.1280012 123.1484997  16.1509988  89.8470012 123.8574997  15.5739988
  91.0710012 123.0754997  15.9999988  90.2169027 123.2357646  16.0515551
  80.8800012 119.9334997  17.2249988  80.1130012 119.4014997  17.0149988
  81.5590012 119.6234997  16.6249988  80.8667022 119.8187506  17.1151648
  83.6200012 114.5614997  13.2369988  83.5210012 115.5084997  13.1319988
  82.8770012 114.1894997  12.7619988  83.5060564 114.6405902  13.1584560
  84.8840012 118.8834997  16.8009988  84.6480012 118.6634997  17.7029988
  84.1000012 118.6764997  16.2909988  84.7458628 118.8254760  16.8553932
  87.5990012 118.0104997  15.8769988  86.6520012 118.0424997  16.0089988
  87.9120012 117.3854997  16.5299988  87.5115475 117.9303207  15.9834455
  89.2330012 116.6444997  17.8819988  89.1370012 115.6924997  17.8759988
  88.9120012 116.9134997  18.7419988  89.1764070 116.5504035  17.9975441
  79.0600012 117.8544997  16.9289988  79.2720012 117.1474997  16.3189988
  78.9490012 117.4164997  17.7729988  79.0739721 117.6987084  16.9596843
  83.8410012 113.8554997  15.9089988  84.5530012 113.2154997  15.8949988
  83.7400012 114.1224997  14.9949988  83.9247939 113.8039938  15.7835650
  84.1950012 115.5384997  17.9619988  84.0630012 115.0624997  17.1419988
  83.5960012 116.2824997  17.9069988  84.0959071 115.5739618  17.8422886
  83.7410012 132.4214997   1.1389988  84.6740012 132.5794997   1.2819988
  83.4770012 133.0964997   0.5139988  83.8329510 132.5343611   1.0740741
  77.3100012 127.0574997   0.6209988  78.2240012 127.1364997   0.8949988
  77.3170012 126.3704997  -0.0450012  77.4361131 126.9753961   0.5684393
  75.9590012 132.4504997   5.6989988  75.3120012 131.9884997   5.1659988
  76.3130012 131.7784997   6.2809988  75.9183849 132.2964723   5.7047959
  76.8290012 130.5314997   7.5029988  76.4940012 129.6514997   7.6749988
  77.0510012 130.8764997   8.3679988  76.8131783 130.4577500   7.6434208
  94.3770012 131.3404997  10.4839988  94.3560012 131.5254997  11.4229988
  95.0680012 131.9094997  10.1429988  94.4674618 131.4426606  10.5663864
  93.9410012 130.9084997  13.4059988  93.4530012 130.1724997  13.0349988
  94.4900012 130.5144997  14.0839988  93.9484872 130.7546249  13.4469160
  92.3910012 126.6974997  18.0439988  91.5250012 126.5924997  18.4379988
  92.7680012 127.4564997  18.4899988  92.3233308 126.7856900  18.1582393
  93.6920012 124.9544997   3.5579988  94.5420012 125.3754997   3.6849988
  93.6980012 124.2144997   4.1649988  93.8091372 124.9120803   3.6574344
  94.0870012 123.0074997   5.3819988  93.3600012 122.5284997   5.7789988
  94.6680012 123.2134997   6.1139988  94.0659375 122.9697090   5.5354129
  93.8460012 125.7924997  10.3289988  94.6790012 125.4144997  10.0489988
  93.9580012 126.7354997  10.2099988  93.9752647 125.8682218  10.2745487
  92.3320012 128.6704997  12.6359988  91.6850012 128.9954997  13.2619988
  91.8150012 128.2304997  11.9619988  92.1734029 128.6555004  12.6305827
  94.3550012 122.9084997   1.7729988  93.8330012 123.2654997   1.0539988
  94.3220012 123.5834997   2.4509988  94.2791634 123.0485413   1.7663145
  92.7040012 120.1484997   0.3239988  92.8000012 120.8154997  -0.3570012
  92.5640012 119.3324997  -0.1580012  92.6982135 120.1294500   0.1658491
  91.8730012 121.5284997   5.9449988  91.7230012 120.5834997   5.9239988
  91.5200012 121.8094997   6.7879988  91.8046625 121.4370441   6.0562346
  76.9090012 123.6064997   9.9549988  77.0930012 123.5244997   9.0189988
  77.7580012 123.4824997  10.3789988  77.0490139 123.5785003   9.8841455
  92.7300012 123.4984997  15.5829988  93.3130012 122.7644997  15.7749988
  93.2940012 124.2704997  15.6299988  92.8859769 123.5024227  15.6156159
  94.2260012 121.4014997  16.2679988  93.3630012 121.0224997  16.1019988
  94.8310012 120.6624997  16.1939988  94.1895979 121.2498023  16.2352817
  91.9510012 117.5564997  -0.5590012  92.5620012 117.1854997   0.0779988
  91.1150012 117.1354997  -0.3630012  91.9215032 117.4487554  -0.4452965
  91.5840012 119.1114997   4.4069988  91.8640012 118.2044997   4.5309988
  92.3430012 119.5454997   4.0179988  91.7249277 119.0460942   4.3713682
  92.1960012 119.6924997   9.8429988  93.1290012 119.9044997   9.8089988
  91.9610012 119.7944997  10.7649988  92.2918036 119.7352769   9.9629976
  92.2250012 120.4294997  12.6189988  91.3820012 120.6974997  12.9849988
  92.6670012 121.2514997  12.4079988  92.1694158 120.5773291  12.6405491
  76.5060012 118.8774997  16.0959988  77.4260012 118.7554997  16.3319988
  76.0570012 118.1274997  16.4849988  76.5711580 118.7593727  16.1809006
  94.5080012 114.4094997  17.9719988  94.8580012 113.7554997  17.3669988
  94.6550012 115.2464997  17.5329988  94.5758419 114.4331591  17.8297118
  92.1970012 116.3744997   4.4549988  92.3800012 115.9254997   5.2809988
  91.5980012 115.7894997   3.9919988  92.1410202 116.2339975   4.5053275
  77.7270012 117.1894997   8.9869988  78.1730012 116.3974997   9.2889988
  78.1940012 117.9054997   9.4179988  77.8510172 117.1780624   9.0864820
  76.0310012 120.1884997  10.0559988  76.5230012 119.9674997   9.2649988
  76.3940012 121.0294997  10.3369988  76.1473126 120.2718357   9.9857531
  94.0280012 116.5184997  16.3219988  93.1100012 116.7894997  16.2859988
  94.1510012 115.9834997  15.5369988  93.9191066 116.4832892  16.2110487
  94.0640012 116.4414997   0.9829988  94.4760012 115.7204997   0.5079988
  94.7460012 117.1114997   1.0419988  94.2125885 116.4332368   0.9258915
  76.3450012 116.4464997   4.1099988  75.4200012 116.6554997   3.9809988
  76.7990012 116.9304997   3.4209988  76.2797368 116.5405993   3.9991226
  91.1160012 131.4304997   6.0559988  91.7680012 131.0834997   5.4479988
  91.6260012 131.9194997   6.7019988  91.2742637 131.4490597   6.0600236
  76.3090012 115.1844997  12.4549988  75.6440012 114.9384997  13.0979988
  75.8660012 115.8064997  11.8769988  76.1580956 115.2348632  12.4649352
  78.5010012 128.3594997  16.5989988  77.6800012 128.5344997  16.1389988
  78.2480012 128.2864997  17.5199988  78.3546164 128.3735622  16.6604923
  81.4550012 129.3344997  12.8579988  81.0300012 130.1434997  12.5749988
  82.3590012 129.4194997  12.5559988  81.5190271 129.4568469  12.7783776
  85.7660012 130.7334997  15.8169988  85.9510012 130.3994997  16.6949988
  86.6120012 131.0424997  15.4949988  85.9057539 130.7296047  15.8935605
  88.1110012 132.0194997  15.0609988  88.7880012 131.3864997  14.8209988
  88.4330012 132.4204997  15.8679988  88.2471637 131.9871154  15.1372793
  93.0280012 114.6084997  14.1409988  92.2160012 114.9334997  13.7529988
  93.2610012 113.8484997  13.6079988  92.9483423 114.5502436  14.0158253
  78.8570012 132.5904997  12.9049988  78.1360012 133.0304997  12.4539988
  78.4910012 132.3394997  13.7539988  78.7089804 132.6167698  12.9579840
  81.3240012 132.1904997  11.9349988  80.4590012 132.2624997  12.3389988
  81.2690012 132.7374997  11.1509988  81.1982085 132.2742685  11.8843362
  86.0340012 132.0784997  11.1099988  85.5780012 132.6074997  10.4559988
  86.1970012 132.6814997  11.8359988  85.9935585 132.2324468  11.1185062
  88.3620012 130.9564997  12.0549988  87.4570012 131.1214997  11.7899988
  88.7910012 131.8094997  11.9899988  88.2960799 131.0944483  12.0099182
  90.9660012 132.5264997  12.3499988  90.7840012 133.4424997  12.1399988
  91.1430012 132.1164997  11.5039988  90.9650210 132.5964822  12.2067885
  78.2710012 131.2134997   9.8149988  78.2530012 130.7884997  10.6729988
  79.0760012 130.8954997   9.4069988  78.3773875 131.1123812   9.8771655
  80.4130012 129.9234997   8.4699988  80.1940012 129.0074997   8.6399988
  81.2370012 130.0634997   8.9359988  80.4944420 129.8170520   8.5562774
  82.9500012 130.3934997   9.3189988  83.1630012 129.5054997   9.0319988
  83.0140012 130.3594997  10.2729988  82.9878232 130.2673102   9.4087397
  86.4580012 116.0574997   8.4629988  85.7840012 115.4284997   8.7189988
  87.0220012 115.5734997   7.8599988  86.4419230 115.9058744   8.4165340
  91.6010012 114.1654997   8.5759988  92.2050012 114.7124997   8.0739988
  90.7310012 114.4844997   8.3359988  91.5661241 114.2835806   8.4747654
  93.3280012 115.3034997   6.9089988  93.9400012 114.7894997   6.3829988
  93.7100012 116.1814997   6.9329988  93.4634540 115.3517140   6.8401830
  78.7850012 114.6914997   6.2849988  78.0080012 114.4574997   5.7779988
  79.3150012 113.8944997   6.2939988  78.7502330 114.5516988   6.2167742
  77.6210012 114.4894997   2.0889988  78.0600012 115.1004997   1.4969988
  76.9880012 115.0274997   2.5629988  77.5954514 114.6459257   2.0720930
  83.3640012 114.6184997   6.0989988  84.2390012 115.0064997   6.0689988
  83.2280012 114.4034997   7.0209988  83.4653695 114.6425184   6.2196440
  88.9210012 114.6484997   7.7479988  88.9970012 114.7434997   6.7979988
  88.6460012 113.7404997   7.8769988  88.8942321 114.5387867   7.6355079
  90.2740012 114.6744997   3.4399988  89.5720012 115.2894997   3.2309988
  89.8300012 113.8364997   3.5709988  90.1176330 114.6455783   3.4290328
  77.5220012 130.4374997   2.9869988  76.8370012 130.3994997   2.3189988
  77.5260012 131.3504997   3.2749988  77.4288193 130.5557016   2.9345284
  79.4820012 116.4054997   0.5309988  79.9740012 115.7754997   0.0039988
  80.1060012 116.7014997   1.1949988  79.6335446 116.3593199   0.5485980
  84.5080012 116.6984997   2.9879988  84.6860012 116.0524997   3.6709988
  84.4550012 117.5324997   3.4559988  84.5251829 116.7227985   3.1445940
  86.3870012 131.6474997   1.3839988  87.2530012 132.0134997   1.2059988
  86.1400012 131.2074997   0.5699988  86.4722392 131.6381756   1.2496289
  93.0960012 131.2104997   4.0629988  92.9010012 130.4624997   3.4979988
  93.0570012 131.9684997   3.4799988  93.0640380 131.2106099   3.9068384
  78.7430012 115.2054997  15.8029988  78.3770012 114.4404997  16.2459988
  79.6560012 115.2344997  16.0899988  78.8162790 115.1047224  15.9024070
  80.7160012 114.5564997  17.3389988  81.6140012 114.2824997  17.1539988
  80.3290012 113.8134997  17.8029988  80.7866612 114.4185914  17.3763643
  79.3400012 131.3574997   0.0119988  79.0730012 131.6444997   0.8849988
  80.1120012 130.8114997   0.1639988  79.4077488 131.3230294   0.1521050
  89.1370012 113.8884997  17.5209988  89.2140012 113.4624997  18.3749988
  90.0310012 113.9024997  17.1779988  89.2683428 113.8320879  17.5915310
  92.3130012 129.9614997  16.2129988  91.5310012 129.7754997  15.6939988
  92.2410012 130.8904997  16.4309988  92.1961777 130.0616492  16.1714048
 106.7190012 123.8474997   6.2439988 106.8080012 124.7914997   6.1119988
 106.0810012 123.5724997   5.5859988 106.6449081 123.9394830   6.1369614
 105.6520012 123.1024997   9.6629988 105.6140012 122.4564997  10.3679988
 105.3300012 122.6364997   8.8919988 105.6032333 122.9509408   9.6552978
  98.0210012 122.7174997  11.2559988  98.0620012 122.0914997  11.9789988
  98.7240012 123.3414997  11.4379988  98.1216363 122.7161196  11.3796044
 109.3580012 126.0414997   7.9639988 108.9180012 125.3214997   8.4149988
 109.3450012 126.7624997   8.5939988 109.2960226 126.0403731   8.1108494
  98.9440012 127.1674997   9.7909988  98.5750012 126.3654997   9.4209988
  99.8850012 126.9984997   9.8369988  99.0207289 127.0350153   9.7466316
  95.5540012 120.8274997   5.1839988  95.1070012 121.6734997   5.1649988
  94.9930012 120.2474997   4.6679988  95.4169900 120.8649916   5.1116801
  96.2650012 122.9894997   7.3099988  96.4780012 122.2194997   7.8369988
  97.0030012 123.0784997   6.7059988  96.3938496 122.8961394   7.3005300
 106.4700012 131.1464997   8.1769988 107.0900012 130.4694997   7.9029988
 106.2620012 130.9284997   9.0849988 106.5266904 131.0243870   8.2623365
 104.0420012 125.5354997  10.0689988 104.3460012 124.8494997   9.4739988
 104.7630012 125.6534997  10.6869988 104.1810671 125.4576304  10.0711816
 112.7050012 117.1364997  10.9299988 112.7540012 117.7464997  11.6659988
 113.1300012 117.5974997  10.2069988 112.7691824 117.2823741  10.9330205
 107.1830012 119.9294997  10.3969988 107.3250012 118.9834997  10.4169988
 107.0760012 120.1364997   9.4679988 107.1879864 119.8279534  10.2742339
 100.3370012 118.0304997   7.6689988 100.3810012 118.8904997   7.2509988
  99.8800012 117.4784997   7.0349988 100.2812185 118.0735799   7.5260299
 108.0600012 118.1614997   6.0699988 108.7060012 117.8324997   6.6949988
 108.5700012 118.6794997   5.4469988 108.2174264 118.1864611   6.0713862
  96.9580012 120.4274997   8.4309988  97.6110012 119.8774997   8.8629988
  96.9820012 120.1534997   7.5139988  97.0506683 120.3151466   8.3662123
 102.1140012 121.9774997   7.6459988 102.7300012 121.4514997   8.1559988
 101.5280012 121.3374997   7.2429988 102.1190810 121.8189208   7.6613173
 113.0960012 118.6144997  13.1659988 112.4080012 119.2724997  13.0699988
 113.1120012 118.4174997  14.1019988 113.0038525 118.6780462  13.2794808
  99.1480012 116.9484997  11.7429988  98.9290012 117.4784997  10.9769988
  98.4800012 117.1754997  12.3899988  99.0277600 117.0516906  11.7256379
 106.5170012 126.4484997   5.2869988 106.2210012 126.1264997   4.4359988
 106.1920012 127.3484997   5.3279988 106.4326371 126.5260215   5.1761801
 101.7170012 124.6244997  12.0299988 100.9770012 125.2224997  12.1339988
 102.4310012 125.1784997  11.7149988 101.7122237 124.7812831  12.0016465
 109.8240012 117.4524997   8.0499988 109.6080012 116.6864997   8.5829988
 110.4790012 117.9244997   8.5629988 109.8830632 117.4115889   8.1922861
  98.7410012 118.8404997   9.6949988  99.3550012 119.4734997  10.0689988
  99.2530012 118.3684997   9.0389988  98.8942296 118.8632370   9.6574252
 100.1240012 126.5884997  12.8179988 100.1190012 127.4684997  12.4399988
  99.2710012 126.5054997  13.2429988 100.0079464 126.6976117  12.8237907
  96.2450012 126.2594997   3.5999988  95.9730012 126.4884997   2.7109988
  96.2910012 127.0974997   4.0599988  96.2140094 126.4041213   3.5405697
 109.8700012 127.8814997  10.3119988 108.9290012 127.9394997  10.4739988
 110.1470012 128.7874997  10.1749988 109.7784679 128.0119443  10.3156815
 110.1710012 116.1674997  11.7299988 109.4350012 116.7784997  11.6919988
 110.8540012 116.5824997  11.2029988 110.1626541 116.3071374  11.6535832
 103.1740012 114.2544997   9.1959988 103.0570012 113.3054997   9.1409988
 102.3190012 114.5864997   9.4689988 103.0423733 114.1695409   9.2253897
 108.1220012 129.6624997   6.9379988 108.5480012 128.9554997   6.4529988
 108.4390012 130.4634997   6.5209988 108.2231019 129.6740994   6.8153130
 109.2820012 127.5634997   5.4459988 109.0240012 126.8734997   4.8349988
 109.3530012 127.1204997   6.2919988 109.2562856 127.4092124   5.4766885
 110.9680012 126.1294997  13.9239988 111.1080012 125.5384997  13.1839988
 111.1350012 127.0024997  13.5669988 111.0096778 126.1666426  13.7746965
 105.4410012 123.0914997   3.6959988 104.7290012 123.6264997   3.3439988
 106.1320012 123.1474997   3.0359988 105.4370132 123.1722543   3.5586289
 105.4940012 121.5494997   0.7349988 106.1950012 121.5714997   1.3859988
 105.7970012 120.9214997   0.0789988 105.6307830 121.4676566   0.7353711
 112.8100012 122.4694997  11.9899988 112.1570012 123.1644997  12.0789988
 113.2750012 122.6794997  11.1799988 112.7835390 122.5929425  11.8926883
 108.8460012 123.3014997   4.6479988 108.1140012 123.5294997   5.2209988
 109.2940012 122.5874997   5.1029988 108.8063095 123.2362571   4.7879119
 108.7440012 121.4754997  13.7149988 108.8240012 122.2384997  14.2869988
 108.1420012 121.7544997  13.0249988 108.6735756 121.6177134  13.7000589
 100.4920012 123.9314997   6.5299988 100.1610012 123.5614997   5.7119988
 101.0800012 123.2614997   6.8769988 100.5261873 123.7901156   6.4648102
 101.8580012 127.3594997   9.2119988 101.7640012 126.7814997   8.4549988
 102.5880012 126.9884997   9.7079988 101.9437981 127.2302390   9.1754165
 100.8580012 122.7004997  10.1639988 101.4240012 122.8214997   9.4009988
 101.1770012 123.3374997  10.8029988 100.9785786 122.8031884  10.1460040
 107.1670012 128.2034997  10.8979988 106.9270012 128.8654997  11.5459988
 106.9690012 127.3694997  11.3229988 107.1073808 128.1813134  11.0441524
 101.7380012 127.0994997  14.8809988 101.4270012 127.8814997  15.3359988
 101.0880012 126.9464997  14.1949988 101.6075558 127.1859105  14.8505871
 107.7170012 122.4634997   2.3329988 108.2970012 122.6134997   3.0799988
 108.1310012 122.9344997   1.6099988 107.8522830 122.5476841   2.3374134
  98.6580012 123.2974997  14.1099988  98.7290012 123.9484997  14.8079988
  97.7680012 123.4004997  13.7749988  98.5473117 123.4005936  14.1602700
 105.4440012 129.2004997   5.7679988 105.9180012 129.4954997   6.5459988
 104.8810012 129.9384997   5.5349988 105.4327653 129.3406932   5.8430136
  99.9780012 129.1714997  15.6439988  99.9850012 129.0354997  14.6969988
  99.0620012 129.0534997  15.8959988  99.8551714 129.1369430  15.5484666
 111.4160012 114.2134997   2.1459988 110.5160012 114.3524997   2.4409988
 111.6680012 115.0444997   1.7439988 111.3268702 114.3449074   2.1320205
  99.4820012 123.0014997   4.1199988  99.1900012 123.7694997   3.6289988
  98.8080012 122.3414997   3.9569988  99.3509081 123.0174406   4.0307340
 112.6050012 128.5794997   0.5219988 112.6790012 129.5184997   0.6929988
 113.5110012 128.2744997   0.4659988 112.7375100 128.6666722   0.5378119
  95.5750012 125.3644997  12.9349988  95.0740012 125.3364997  12.1199988
  95.5800012 124.4584997  13.2439988  95.5071526 125.2382278  12.8652872
  95.3250012 128.1444997   9.8189988  96.2710012 128.0004997   9.7999988
  95.2130012 128.9284997  10.3559988  95.4392727 128.2308046   9.8890072
 113.5230012 128.8104997  15.5009988 113.4740012 127.8554997  15.4639988
 112.6960012 129.0784997  15.9019988 113.4044940 128.7158998  15.5501375
 104.5020012 128.3844997  14.3769988 104.5890012 129.2104997  14.8519988
 103.6380012 128.0544997  14.6259988 104.3971964 128.4529878  14.4756549
 104.9160012 132.1564997   4.1829988 104.8410012 132.0354997   3.2369988
 104.9490012 133.1064997   4.3019988 104.9101848 132.2682500   4.0694834
  98.5690012 130.9454997   5.9639988  98.7220012 130.5974997   6.8429988
  97.7190012 130.5894997   5.7089988  98.4748962 130.8496650   6.0498340
 108.0180012 131.3104997   1.1849988 108.3930012 130.5664997   0.7149988
 108.0220012 131.0404997   2.1039988 108.0698915 131.1721486   1.2447824
 107.6870012 131.2364997   3.9349988 106.7510012 131.3364997   4.1129988
 107.9670012 130.5274997   4.5129988 107.5968255 131.1542711   4.0375391
 110.6750012 120.3034997  15.9809988 110.2680012 120.7844997  15.2599988
 110.7160012 119.3984997  15.6729988 110.6248437 120.2469374  15.8406683
  97.8240012 126.6874997  13.9779988  98.0400012 126.3264997  14.8369988
  96.9690012 126.3134997  13.7679988  97.7379292 126.5874111  14.0673386
 100.4430012 115.1574997   9.9729988  99.5810012 115.0704997   9.5659988
 100.4200012 116.0134997  10.4009988 100.3220330 115.2612765   9.9751863
 105.1060012 114.8794997  13.3479988 105.5260012 114.4644997  14.1009988
 104.1730012 114.7014997  13.4649988 105.0373644 114.7985900  13.4669539
 108.4320012 118.6354997  14.2009988 107.9180012 118.5094997  14.9989988
 108.2770012 119.5474997  13.9569988 108.3406852 118.7416132  14.2772158
 109.1950012 123.4964997  -0.0370012 109.2370012 123.2734997  -0.9670012
 110.0440012 123.8954997   0.1529988 109.3155396 123.5199155  -0.1386373
 104.7670012 117.3724997   0.6329988 104.5140012 117.3914997   1.5559988
 104.5110012 116.5004997   0.3319988 104.6977790 117.2572437   0.7186263
 100.5340012 120.1234997  11.0679988  99.8920012 120.0824997  11.7769988
 100.5710012 121.0494997  10.8309988 100.4511324 120.2431559  11.1329824
 100.5310012 120.3444997   5.9799988  99.6380012 120.0034997   5.9219988
 100.9810012 119.9674997   5.2249988 100.4697305 120.2468484   5.8699177
 106.0660012 120.7604997   4.7969988 105.6570012 121.5754997   4.5059988
 106.7870012 120.6204997   4.1829988 106.1074537 120.8532018   4.6741342
 105.1680012 120.9354997  16.2849988 104.6060012 120.2314997  16.6059988
 105.9950012 120.8154997  16.7529988 105.2027095 120.8227883  16.3922330
 107.0710012 120.2064997   7.6109988 106.8760012 120.8114997   6.8959988
 107.2520012 119.3724997   7.1769988 107.0687614 120.1766300   7.4544405
  98.2840012 120.4434997  12.9349988  98.2460012 120.8434997  13.8039988
  97.7930012 119.6264997  13.0259988  98.2124684 120.3878069  13.0661059
 101.6500012 117.8174997  -0.2660012 101.2190012 117.3724997   0.4639988
 100.9320012 118.1894997  -0.7780012 101.4939438 117.8068940  -0.2353201
  94.8920012 117.5594997   6.7859988  95.5230012 117.5304997   7.5049988
  95.3410012 117.1344997   6.0559988  95.0390774 117.4980492   6.7856553
  96.1660012 118.3054997   2.2099988  96.6400012 118.8964997   1.6249988
  95.4490012 118.8364997   2.5569988  96.1339341 118.4580867   2.1768836
 106.3350012 121.8444997  12.2829988 106.6580012 121.2134997  11.6399988
 105.8950012 121.3094997  12.9429988 106.3196895 121.6858441  12.2842850
 103.1120012 117.7714997   7.0669988 102.2010012 117.8284997   7.3549988
 103.6180012 117.7114997   7.8769988 103.0555413 117.7711985   7.2160622
  97.9410012 119.4004997   5.8929988  97.0510012 119.5004997   5.5529988
  98.2370012 118.5584997   5.5469988  97.8592823 119.3003545   5.7997213
 101.5940012 119.4004997   3.5499988 102.5250012 119.5294997   3.7279988
 101.3790012 120.0704997   2.8999988 101.6924247 119.5086565   3.4865747
 107.5170012 117.0064997  10.3309988 106.8410012 117.1374997  10.9949988
 107.0320012 116.8514997   9.5209988 107.3587145 117.0034905  10.3124517
 100.2680012 120.5954997   1.1169988  99.7250012 120.2154997   0.4249988
 101.1010012 120.7894997   0.6879988 100.3064399 120.5698124   0.9644526
 110.8050012 132.6784997  16.6079988 111.0050012 133.1024997  15.7729988
 111.4600012 133.0214997  17.2149988 110.9210051 132.7829648  16.5757836
  98.4030012 125.1524997  16.2159988  99.1350012 125.4064997  16.7769988
  97.6230012 125.3564997  16.7309988  98.3978232 125.2149177  16.3625760
 104.4320012 120.5594997   8.9539988 104.9970012 120.0124997   8.4069988
 104.2850012 120.0374997   9.7419988 104.4892918 120.4142024   8.9858454
  99.4340012 116.6954997   5.3719988  99.1170012 115.7934997   5.3369988
 100.2160012 116.6974997   4.8189988  99.4962284 116.5721628   5.2924783
 103.0590012 118.9474997  11.3679988 102.2230012 119.4014997  11.4779988
 103.5830012 119.2234997  12.1199988 103.0154414 119.0469376  11.4847136
 103.6030012 125.1604997   3.0519988 102.8580012 124.6534997   2.7299988
 103.4690012 125.2094997   3.9989988 103.4828776 125.0976940   3.1358647
 110.7530012 124.2934997  11.8389988 111.3950012 124.7504997  11.2949988
 109.9230012 124.4064997  11.3759988 110.7285963 124.3712704  11.7020177
 107.5010012 117.9744997   1.2519988 106.5620012 118.0864997   1.0999988
 107.7980012 118.8314997   1.5579988 107.4127666 118.1056443   1.2725768
 105.1220012 125.3444997  14.2889988 104.7770012 124.9634997  15.0959988
 104.9220012 126.2784997  14.3609988 105.0478061 125.4185228  14.4090961
 108.2190012 119.8414997   2.9119988 109.1110012 119.7044997   3.2309988
 108.2760012 120.6324997   2.3759988 108.3486285 119.9296660   2.8831691
  98.7280012 124.4554997   8.8219988  99.4730012 124.4534997   8.2209988
  98.8060012 123.6324997   9.3039988  98.8405518 124.3439315   8.8048929
 105.7290012 126.6194997   2.0779988 105.4330012 127.4454997   2.4589988
 105.0260012 125.9994997   2.2739988 105.5934914 126.6488199   2.1566443
  95.7360012 122.9164997  14.1369988  95.9590012 122.4984997  14.9689988
  95.1340012 122.3034997  13.7139988  95.6851759 122.7764668  14.1937022
 102.7520012 122.4334997  16.3499988 102.4560012 122.2674997  15.4549988
 103.6840012 122.2134997  16.3389988 102.8374166 122.3810640  16.2260536
 107.3730012 127.8064997  14.2399988 106.4720012 127.9894997  13.9719988
 107.4070012 128.0654997  15.1609988 107.2543041 127.8665512  14.3278197
 113.1040012 120.0514997   2.6069988 112.5500012 119.6554997   1.9349988
 113.2040012 120.9614997   2.3289988 113.0417059 120.1203586   2.4774401
 113.0670012 125.8514997  15.4439988 112.2160012 126.0894997  15.0769988
 113.6580012 125.8344997  14.6909988 113.0302487 125.8818258  15.2918893
 111.3990012 128.8374997   3.0719988 111.0260012 128.0114997   3.3809988
 111.6770012 128.6544997   2.1749988 111.3855630 128.6997303   2.9929626
 108.5600012 123.6454997  10.0929988 107.6310012 123.4134997  10.0659988
 109.0110012 122.8684997   9.7629988 108.4939216 123.5087238  10.0446917
 101.1030012 127.9734997   6.2259988 101.6300012 128.7464997   6.0259988
 100.2230012 128.1984997   5.9249988 101.0561773 128.1098005   6.1579010
  96.8580012 122.8354997   0.8129988  97.4740012 123.4624997   1.1929988
  95.9960012 123.1514997   1.0849988  96.8257698 122.9639430   0.9017183
 102.5300012 125.6364997   5.8029988 102.2890012 126.5614997   5.8439988
 101.7890012 125.1774997   6.1989988 102.3968409 125.7011421   5.8621377
 103.0450012 129.7854997  12.1179988 103.4070012 130.6404997  11.8839988
 103.5760012 129.4934997  12.8579988 103.1664473 129.8631060  12.1860855
 101.2130012 130.6584997   5.3479988 100.2630012 130.7634997   5.3989988
 101.5650012 131.4784997   5.6929988 101.1304203 130.7838314   5.4016650
 106.5890012 125.8844997  11.8179988 106.1630012 125.6574997  12.6449988
 107.1690012 125.1464997  11.6359988 106.6091868 125.7535299  11.9065830
 108.7920012 126.8134997   0.8919988 109.1450012 126.4334997   1.6969988
 107.8430012 126.7204997   0.9789988 108.7120441 126.7489596   1.0138559
 109.2470012 130.4364997  14.2879988 108.6460012 129.8814997  13.7919988
 109.5290012 131.1034997  13.6619988 109.2028519 130.4506841  14.1354952
 113.2950012 131.2934997   1.0929988 114.0390012 131.8794997   0.9529988
 112.6010012 131.8614997   1.4269988 113.3030292 131.4505582   1.1189961
  97.3700012 117.6694997  13.6949988  96.4770012 118.0084997  13.6269988
  97.2710012 116.8144997  14.1129988  97.2344164 117.6002588  13.7422235
 109.6580012 125.4864997   3.1189988 109.3800012 124.7584997   3.6749988
 110.5850012 125.6054997   3.3239988 109.7453124 125.4028802   3.2228845
  97.0210012 129.4744997  12.1299988  97.2380012 128.5424997  12.0989988
  97.2670012 129.7484997  13.0129988  97.0839549 129.3840636  12.2451763
 102.8830012 127.9254997  -0.6610012 103.1220012 127.1774997  -1.2080012
 102.6140012 127.5374997   0.1719988 102.8793675 127.7706638  -0.6233135
 101.8200012 127.4954997   1.7959988 101.9660012 126.9754997   2.5859988
 101.8170012 128.4024997   2.1019988 101.8395989 127.5468853   1.9456088
  98.2730012 124.7484997   2.3059988  97.5870012 125.1004997   2.8729988
  98.7950012 125.5114997   2.0589988  98.2496852 124.8998578   2.3502118
 106.1040012 117.4104997  12.5849988 106.8030012 117.4844997  13.2349988
 105.7230012 116.5464997  12.7389988 106.1481767 117.3037624  12.6948322
 106.8890012 117.0624997   3.6819988 107.1090012 117.5344997   2.8789988
 107.4470012 117.4574997   4.3519988 106.9944968 117.1804285   3.6627331
 104.5570012 129.1934997   2.5449988 103.7410012 129.6904997   2.5969988
 105.0870012 129.6684997   1.9049988 104.5169161 129.3257722   2.4655956
 104.0890012 118.7904997   4.5169988 104.9010012 119.2954997   4.5629988
 103.8440012 118.6454997   5.4309988 104.1670520 118.8400375   4.6468517
 104.6240012 119.7764997  13.7019988 104.7430012 120.3504997  14.4589988
 105.2800012 119.0884997  13.8159988 104.7289757 119.7621079  13.8210825
 104.9720012 115.8714997   5.4549988 104.6260012 116.4894997   6.0999988
 105.6310012 116.3724997   4.9739988 105.0137826 116.0235802   5.4780971
 101.8960012 130.2374997   2.5269988 102.0560012 131.0364997   2.0259988
 101.6980012 130.5434997   3.4119988 101.8911649 130.3884469   2.5779815
 100.6300012 116.9344997   2.1419988 100.5470012 117.8234997   2.4889988
 101.5200012 116.6694997   2.3739988 100.7389469 117.0201430   2.2207626
 110.8290012 117.6834997  14.5369988 109.9120012 117.9464997  14.4489988
 111.1640012 117.6804997  13.6399988 110.7489900 117.7190224  14.4037919
 109.4310012 121.4344997   8.6319988 108.6330012 121.0194997   8.3039988
 109.8760012 120.7434997   9.1229988 109.3819885 121.2843543   8.6534889
  98.8890012 127.3624997   1.2029988  99.4810012 128.0614997   1.4789988
  99.3480012 126.9294997   0.4829988  99.0321142 127.3997049   1.1434830
  97.2050012 120.0264997   0.3189988  97.1600012 120.9654997   0.4969988
  96.3170012 119.7904997   0.0489988  97.0788574 120.1231892   0.3068912
 110.5170012 130.6904997  10.2549988 110.3620012 131.3684997   9.5979988
 111.4500012 130.7624997  10.4579988 110.6218500 130.7930170  10.1925119
  98.0130012 114.8084997   8.9919988  97.7840012 114.8674997   8.0639988
  97.5700012 114.0164997   9.2979988  97.9218530 114.7095753   8.9064786
  96.9430012 128.7484997   5.1519988  96.1110012 129.2214997   5.1799988
  97.4890012 129.2584997   4.5539988  96.9029739 128.8821871   5.0749716
  96.2310012 131.3614997  16.4819988  96.7720012 131.1444997  17.2419988
  95.7500012 130.5554997  16.2929988  96.2399345 131.2229514  16.5603076
 100.8290012 130.2804997  18.1029988 101.5960012 129.8214997  18.4439988
 100.8070012 130.0544997  17.1729988 100.9311434 130.1870409  18.0240043
 104.9210012 129.7884997  -0.5220012 104.2770012 129.1574997  -0.2010012
 105.6830012 129.2574997  -0.7540012 104.9358077 129.6302920  -0.5093989
 107.4060012 128.6604997  16.8319988 107.0550012 127.8044997  17.0749988
 108.1320012 128.8034997  17.4389988 107.4560769 128.5625636  16.9473619
 109.5250012 129.6054997  -0.2880012 109.8080012 128.8114997   0.1639988
 110.2650012 129.8384997  -0.8490012 109.6637486 129.5282803  -0.3019302
  96.1380012 125.1714997  17.4369988  96.2820012 124.2694997  17.1499988
  95.3660012 125.4574997  16.9489988  96.0533322 125.0868261  17.3317881
 100.4800012 125.5154997  -0.4310012 100.5440012 124.7214997   0.0999988
 101.1330012 125.3964997  -1.1210012 100.5770241 125.3907148  -0.4515683
 102.7940012 125.1414997  16.8689988 102.4650012 125.4124997  16.0119988
 102.9460012 124.2004997  16.7819988 102.7694809 125.0513862  16.7398244
 105.8320012 126.5624997  -0.6950012 105.5630012 126.7424997   0.2059988
 105.6260012 125.6364997  -0.8260012 105.7673825 126.4620152  -0.5894786
 108.5280012 125.0574997  14.2529988 109.2740012 125.6454997  14.1329988
 107.7710012 125.6394997  14.3159988 108.5277554 125.2167011  14.2450907
  96.9710012 122.3714997  16.8569988  97.3790012 121.5144997  16.7359988
  96.7110012 122.3864997  17.7779988  96.9917568 122.2560807  16.9649588
 101.6290012 123.4874997   1.8749988 101.1690012 123.0034997   2.5609988
 101.8840012 122.8194997   1.2389988 101.6004902 123.3308731   1.8829334
 100.9180012 121.3804997  14.2309988 100.3000012 122.0554997  14.5109988
 101.2620012 121.7014997  13.3979988 100.8799615 121.5162721  14.1566581
 102.7000012 121.7304997   0.1369988 102.5200012 121.5764997  -0.7900012
 103.6500012 121.8384997   0.1819988 102.8037776 121.7240175   0.0161843
 105.9380012 123.8524997  17.5079988 106.8910012 123.9354997  17.4809988
 105.7770012 123.1404997  18.1279988 106.0466426 123.7676746  17.5880579
 112.0900012 124.0854997  -0.4170012 111.8160012 123.6604997  -1.2300012
 112.1290012 125.0164997  -0.6340012 112.0577699 124.1532484  -0.5576390
 101.2570012 118.7354997  15.3129988 101.4070012 118.0064997  14.7109988
 101.2600012 119.5124997  14.7539988 101.2779302 118.7407851  15.1550692
 101.6700012 117.1054997  12.8059988 102.2060012 117.5564997  12.1539988
 100.8180012 116.9974997  12.3829988 101.6282178 117.1526390  12.6595756
 103.2520012 122.5444997  13.0449988 104.0020012 122.3884997  12.4719988
 102.9130012 123.3964997  12.7699988 103.3088921 122.6382968  12.9293561
 107.6670012 120.3594997  18.0739988 107.8600012 119.4284997  17.9619988
 108.5250012 120.7844997  18.0639988 107.8093020 120.2896389  18.0573361
 108.9840012 123.1484997  16.1509988 108.7030012 123.8574997  15.5739988
 109.9270012 123.0754997  15.9999988 109.0729027 123.2357646  16.0515551
  99.7360012 119.9334997  17.2249988  98.9690012 119.4014997  17.0149988
 100.4150012 119.6234997  16.6249988  99.7227022 119.8187506  17.1151648
 102.4760012 114.5614997  13.2369988 102.3770012 115.5084997  13.1319988
 101.7330012 114.1894997  12.7619988 102.3620564 114.6405902  13.1584560
 103.7400012 118.8834997  16.8009988 103.5040012 118.6634997  17.7029988
 102.9560012 118.6764997  16.2909988 103.6018628 118.8254760  16.8553932
 106.4550012 118.0104997  15.8769988 105.5080012 118.0424997  16.0089988
 106.7680012 117.3854997  16.5299988 106.3675475 117.9303207  15.9834455
 108.0890012 116.6444997  17.8819988 107.9930012 115.6924997  17.8759988
 107.7680012 116.9134997  18.7419988 108.0324070 116.5504035  17.9975441
  97.9160012 117.8544997  16.9289988  98.1280012 117.1474997  16.3189988
  97.8050012 117.4164997  17.7729988  97.9299721 117.6987084  16.9596843
 102.6970012 113.8554997  15.9089988 103.4090012 113.2154997  15.8949988
 102.5960012 114.1224997  14.9949988 102.7807939 113.8039938  15.7835650
 103.0510012 115.5384997  17.9619988 102.9190012 115.0624997  17.1419988
 102.4520012 116.2824997  17.9069988 102.9519071 115.5739618  17.8422886
 102.5970012 132.4214997   1.1389988 103.5300012 132.5794997   1.2819988
 102.3330012 133.0964997   0.5139988 102.6889510 132.5343611   1.0740741
  96.1660012 127.0574997   0.6209988  97.0800012 127.1364997   0.8949988
  96.1730012 126.3704997  -0.0450012  96.2921131 126.9753961   0.5684393
  94.8150012 132.4504997   5.6989988  94.1680012 131.9884997   5.1659988
  95.1690012 131.7784997   6.2809988  94.7743849 132.2964723   5.7047959
  95.6850012 130.5314997   7.5029988  95.3500012 129.6514997   7.6749988
  95.9070012 130.8764997   8.3679988  95.6691783 130.4577500   7.6434208
 113.2330012 131.3404997  10.4839988 113.2120012 131.5254997  11.4229988
 113.9240012 131.9094997  10.1429988 113.3234618 131.4426606  10.5663864
 112.7970012 130.9084997  13.4059988 112.3090012 130.1724997  13.0349988
 113.3460012 130.5144997  14.0839988 112.8044872 130.7546249  13.4469160
 111.2470012 126.6974997  18.0439988 110.3810012 126.5924997  18.4379988
 111.6240012 127.4564997  18.4899988 111.1793308 126.7856900  18.1582393
 112.5480012 124.9544997   3.5579988 113.3980012 125.3754997   3.6849988
 112.5540012 124.2144997   4.1649988 112.6651372 124.9120803   3.6574344
 112.9430012 123.0074997   5.3819988 112.2160012 122.5284997   5.7789988
 113.5240012 123.2134997   6.1139988 112.9219375 122.9697090   5.5354129
 112.7020012 125.7924997  10.3289988 113.5350012 125.4144997  10.0489988
 112.8140012 126.7354997  10.2099988 112.8312647 125.8682218  10.2745487
 111.1880012 128.6704997  12.6359988 110.5410012 128.9954997  13.2619988
 110.6710012 128.2304997  11.9619988 111.0294029 128.6555004  12.6305827
 113.2110012 122.9084997   1.7729988 112.6890012 123.2654997   1.0539988
 113.1780012 123.5834997   2.4509988 113.1351634 123.0485413   1.7663145
 111.5600012 120.1484997   0.3239988 111.6560012 120.8154997  -0.3570012
 111.4200012 119.3324997  -0.1580012 111.5542135 120.1294500   0.1658491
 110.7290012 121.5284997   5.9449988 110.5790012 120.5834997   5.9239988
 110.3760012 121.8094997   6.7879988 110.6606625 121.4370441   6.0562346
  95.7650012 123.6064997   9.9549988  95.9490012 123.5244997   9.0189988
  96.6140012 123.4824997  10.3789988  95.9050139 123.5785003   9.8841455
 111.5860012 123.4984997  15.5829988 112.1690012 122.7644997  15.7749988
 112.1500012 124.2704997  15.6299988 111.7419769 123.5024227  15.6156159
 113.0820012 121.4014997  16.2679988 112.2190012 121.0224997  16.1019988
 113.6870012 120.6624997  16.1939988 113.0455979 121.2498023  16.2352817
 110.8070012 117.5564997  -0.5590012 111.4180012 117.1854997   0.0779988
 109.9710012 117.1354997  -0.3630012 110.7775032 117.4487554  -0.4452965
 110.4400012 119.1114997   4.4069988 110.7200012 118.2044997   4.5309988
 111.1990012 119.5454997   4.0179988 110.5809277 119.0460942   4.3713682
 111.0520012 119.6924997   9.8429988 111.9850012 119.9044997   9.8089988
 110.8170012 119.7944997  10.7649988 111.1478036 119.7352769   9.9629976
 111.0810012 120.4294997  12.6189988 110.2380012 120.6974997  12.9849988
 111.5230012 121.2514997  12.4079988 111.0254158 120.5773291  12.6405491
  95.3620012 118.8774997  16.0959988  96.2820012 118.7554997  16.3319988
  94.9130012 118.1274997  16.4849988  95.4271580 118.7593727  16.1809006
 113.3640012 114.4094997  17.9719988 113.7140012 113.7554997  17.3669988
 113.5110012 115.2464997  17.5329988 113.4318419 114.4331591  17.8297118
 111.0530012 116.3744997   4.4549988 111.2360012 115.9254997   5.2809988
 110.4540012 115.7894997   3.9919988 110.9970202 116.2339975   4.5053275
  96.5830012 117.1894997   8.9869988  97.0290012 116.3974997   9.2889988
  97.0500012 117.9054997   9.4179988  96.7070172 117.1780624   9.0864820
  94.8870012 120.1884997  10.0559988  95.3790012 119.9674997   9.2649988
  95.2500012 121.0294997  10.3369988  95.0033126 120.2718357   9.9857531
 112.8840012 116.5184997  16.3219988 111.9660012 116.7894997  16.2859988
 113.0070012 115.9834997  15.5369988 112.7751066 116.4832892  16.2110487
 112.9200012 116.4414997   0.9829988 113.3320012 115.7204997   0.5079988
 113.6020012 117.1114997   1.0419988 113.0685885 116.4332368   0.9258915
  95.2010012 116.4464997   4.1099988  94.2760012 116.6554997   3.9809988
  95.6550012 116.9304997   3.4209988  95.1357368 116.5405993   3.9991226
 109.9720012 131.4304997   6.0559988 110.6240012 131.0834997   5.4479988
 110.4820012 131.9194997   6.7019988 110.1302637 131.4490597   6.0600236
  95.1650012 115.1844997  12.4549988  94.5000012 114.9384997  13.0979988
  94.7220012 115.8064997  11.8769988  95.0140956 115.2348632  12.4649352
  97.3570012 128.3594997  16.5989988  96.5360012 128.5344997  16.1389988
  97.1040012 128.2864997  17.5199988  97.2106164 128.3735622  16.6604923
 100.3110012 129.3344997  12.8579988  99.8860012 130.1434997  12.5749988
 101.2150012 129.4194997  12.5559988 100.3750271 129.4568469  12.7783776
 104.6220012 130.7334997  15.8169988 104.8070012 130.3994997  16.6949988
 105.4680012 131.0424997  15.4949988 104.7617539 130.7296047  15.8935605
 106.9670012 132.0194997  15.0609988 107.6440012 131.3864997  14.8209988
 107.2890012 132.4204997  15.8679988 107.1031637 131.9871154  15.1372793
 111.8840012 114.6084997  14.1409988 111.0720012 114.9334997  13.7529988
 112.1170012 113.8484997  13.6079988 111.8043423 114.5502436  14.0158253
  97.7130012 132.5904997  12.9049988  96.9920012 133.0304997  12.4539988
  97.3470012 132.3394997  13.7539988  97.5649804 132.6167698  12.9579840
 100.1800012 132.1904997  11.9349988  99.3150012 132.2624997  12.3389988
 100.1250012 132.7374997  11.1509988 100.0542085 132.2742685  11.8843362
 104.8900012 132.0784997  11.1099988 104.4340012 132.6074997  10.4559988
 105.0530012 132.6814997  11.8359988 104.8495585 132.2324468  11.1185062
 107.2180012 130.9564997  12.0549988 106.3130012 131.1214997  11.7899988
 107.6470012 131.8094997  11.9899988 107.1520799 131.0944483  12.0099182
 109.8220012 132.5264997  12.3499988 109.6400012 133.4424997  12.1399988
 109.9990012 132.1164997  11.5039988 109.8210210 132.5964822  12.2067885
  97.1270012 131.2134997   9.8149988  97.1090012 130.7884997  10.6729988
  97.9320012 130.8954997   9.4069988  97.2333875 131.1123812   9.8771655
  99.2690012 129.9234997   8.4699988  99.0500012 129.0074997   8.6399988
 100.0930012 130.0634997   8.9359988  99.3504420 129.8170520   8.5562774
 101.8060012 130.3934997   9.3189988 102.0190012 129.5054997   9.0319988
 101.8700012 130.3594997  10.2729988 101.8438232 130.2673102   9.4087397
 105.3140012 116.0574997   8.4629988 104.6400012 115.4284997   8.7189988
 105.8780012 115.5734997   7.8599988 105.2979230 115.9058744   8.4165340
 110.4570012 114.1654997   8.5759988 111.0610012 114.7124997   8.0739988
 109.5870012 114.4844997   8.3359988 110.4221241 114.2835806   8.4747654
 112.1840012 115.3034997   6.9089988 112.7960012 114.7894997   6.3829988
 112.5660012 116.1814997   6.9329988 112.3194540 115.3517140   6.8401830
  97.6410012 114.6914997   6.2849988  96.8640012 114.4574997   5.7779988
  98.1710012 113.8944997   6.2939988  97.6062330 114.5516988   6.2167742
  96.4770012 114.4894997   2.0889988  96.9160012 115.1004997   1.4969988
  95.8440012 115.0274997   2.5629988  96.4514514 114.6459257   2.0720930
 102.2200012 114.6184997   6.0989988 103.0950012 115.0064997   6.0689988
 102.0840012 114.4034997   7.0209988 102.3213695 114.6425184   6.2196440
 107.7770012 114.6484997   7.7479988 107.8530012 114.7434997   6.7979988
 107.5020012 113.7404997   7.8769988 107.7502321 114.5387867   7.6355079
 109.1300012 114.6744997   3.4399988 108.4280012 115.2894997   3.2309988
 108.6860012 113.8364997   3.5709988 108.9736330 114.6455783   3.4290328
  96.3780012 130.4374997   2.9869988  95.6930012 130.3994997   2.3189988
  96.3820012 131.3504997   3.2749988  96.2848193 130.5557016   2.9345284
  98.3380012 116.4054997   0.5309988  98.8300012 115.7754997   0.0039988
  98.9620012 116.7014997   1.1949988  98.4895446 116.3593199   0.5485980
 103.3640012 116.6984997   2.9879988 103.5420012 116.0524997   3.6709988
 103.3110012 117.5324997   3.4559988 103.3811829 116.7227985   3.1445940
 105.2430012 131.6474997   1.3839988 106.1090012 132.0134997   1.2059988
 104.9960012 131.2074997   0.5699988 105.3282392 131.6381756   1.2496289
 111.9520012 131.2104997   4.0629988 111.7570012 130.4624997   3.4979988
 111.9130012 131.9684997   3.4799988 111.9200380 131.2106099   3.9068384
  97.5990012 115.2054997  15.8029988  97.2330012 114.4404997  16.2459988
  98.5120012 115.2344997  16.0899988  97.6722790 115.1047224  15.9024070
  99.5720012 114.5564997  17.3389988 100.4700012 114.2824997  17.1539988
  99.1850012 113.8134997  17.8029988  99.6426612 114.4185914  17.3763643
  98.1960012 131.3574997   0.0119988  97.9290012 131.6444997   0.8849988
  98.9680012 130.8114997   0.1639988  98.2637488 131.3230294   0.1521050
 107.9930012 113.8884997  17.5209988 108.0700012 113.4624997  18.3749988
 108.8870012 113.9024997  17.1779988 108.1243428 113.8320879  17.5915310
 111.1690012 129.9614997  16.2129988 110.3870012 129.7754997  15.6939988
 111.0970012 130.8904997  16.4309988 111.0521777 130.0616492  16.1714048
 125.5750012 123.8474997   6.2439988 125.6640012 124.7914997   6.1119988
 124.9370012 123.5724997   5.5859988 125.5009081 123.9394830   6.1369614
 124.5080012 123.1024997   9.6629988 124.4700012 122.4564997  10.3679988
 124.1860012 122.6364997   8.8919988 124.4592333 122.9509408   9.6552978
 116.8770012 122.7174997  11.2559988 116.9180012 122.0914997  11.9789988
 117.5800012 123.3414997  11.4379988 116.9776363 122.7161196  11.3796044
 128.2140012 126.0414997   7.9639988 127.7740012 125.3214997   8.4149988
 128.2010012 126.7624997   8.5939988 128.1520226 126.0403731   8.1108494
 117.8000012 127.1674997   9.7909988 117.4310012 126.3654997   9.4209988
 118.7410012 126.9984997   9.8369988 117.8767289 127.0350153   9.7466316
 114.4100012 120.8274997   5.1839988 113.9630012 121.6734997   5.1649988
 113.8490012 120.2474997   4.6679988 114.2729900 120.8649916   5.1116801
 115.1210012 122.9894997   7.3099988 115.3340012 122.2194997   7.8369988
 115.8590012 123.0784997   6.7059988 115.2498496 122.8961394   7.3005300
 125.3260012 131.1464997   8.1769988 125.9460012 130.4694997   7.9029988
 125.1180012 130.9284997   9.0849988 125.3826904 131.0243870   8.2623365
 122.8980012 125.5354997  10.0689988 123.2020012 124.8494997   9.4739988
 123.6190012 125.6534997  10.6869988 123.0370671 125.4576305  10.0711816
 131.5610012 117.1364997  10.9299988 131.6100012 117.7464997  11.6659988
 131.9860012 117.5974997  10.2069988 131.6251824 117.2823741  10.9330205
 126.0390012 119.9294997  10.3969988 126.1810012 118.9834997  10.4169988
 125.9320012 120.1364997   9.4679988 126.0439864 119.8279534  10.2742339
 119.1930012 118.0304997   7.6689988 119.2370012 118.8904997   7.2509988
 118.7360012 117.4784997   7.0349988 119.1372185 118.0735799   7.5260299
 126.9160012 118.1614997   6.0699988 127.5620012 117.8324997   6.6949988
 127.4260012 118.6794997   5.4469988 127.0734264 118.1864611   6.0713862
 115.8140012 120.4274997   8.4309988 116.4670012 119.8774997   8.8629988
 115.8380012 120.1534997   7.5139988 115.9066683 120.3151466   8.3662123
 120.9700012 121.9774997   7.6459988 121.5860012 121.4514997   8.1559988
 120.3840012 121.3374997   7.2429988 120.9750810 121.8189208   7.6613173
 131.9520012 118.6144997  13.1659988 131.2640012 119.2724997  13.0699988
 131.9680012 118.4174997  14.1019988 131.8598525 118.6780462  13.2794808
 118.0040012 116.9484997  11.7429988 117.7850012 117.4784997  10.9769988
 117.3360012 117.1754997  12.3899988 117.8837600 117.0516906  11.7256379
 125.3730012 126.4484997   5.2869988 125.0770012 126.1264997   4.4359988
 125.0480012 127.3484997   5.3279988 125.2886371 126.5260215   5.1761801
 120.5730012 124.6244997  12.0299988 119.8330012 125.2224997  12.1339988
 121.2870012 125.1784997  11.7149988 120.5682237 124.7812831  12.0016465
 128.6800012 117.4524997   8.0499988 128.4640012 116.6864997   8.5829988
 129.3350012 117.9244997   8.5629988 128.7390632 117.4115889   8.1922861
 117.5970012 118.8404997   9.6949988 118.2110012 119.4734997  10.0689988
 118.1090012 118.3684997   9.0389988 117.7502296 118.8632370   9.6574252
 118.9800012 126.5884997  12.8179988 118.9750012 127.4684997  12.4399988
 118.1270012 126.5054997  13.2429988 118.8639464 126.6976117  12.8237907
 115.1010012 126.2594997   3.5999988 114.8290012 126.4884997   2.7109988
 115.1470012 127.0974997   4.0599988 115.0700094 126.4041213   3.5405697
 128.7260012 127.8814997  10.3119988 127.7850012 127.9394997  10.4739988
 129.0030012 128.7874997  10.1749988 128.6344679 128.0119443  10.3156815
 129.0270012 116.1674997  11.7299988 128.2910012 116.7784997  11.6919988
 129.7100012 116.5824997  11.2029988 129.0186541 116.3071374  11.6535832
 122.0300012 114.2544997   9.1959988 121.9130012 113.3054997   9.1409988
 121.1750012 114.5864997   9.4689988 121.8983733 114.1695409   9.2253897
 126.9780012 129.6624997   6.9379988 127.4040012 128.9554997   6.4529988
 127.2950012 130.4634997   6.5209988 127.0791019 129.6740994   6.8153130
 128.1380012 127.5634997   5.4459988 127.8800012 126.8734997   4.8349988
 128.2090012 127.1204997   6.2919988 128.1122856 127.4092124   5.4766885
 129.8240012 126.1294997  13.9239988 129.9640012 125.5384997  13.1839988
 129.9910012 127.0024997  13.5669988 129.8656778 126.1666426  13.7746965
 124.2970012 123.0914997   3.6959988 123.5850012 123.6264997   3.3439988
 124.9880012 123.1474997   3.0359988 124.2930132 123.1722543   3.5586289
 124.3500012 121.5494997   0.7349988 125.0510012 121.5714997   1.3859988
 124.6530012 120.9214997   0.0789988 124.4867830 121.4676566   0.7353711
 131.6660012 122.4694997  11.9899988 131.0130012 123.1644997  12.0789988
 132.1310012 122.6794997  11.1799988 131.6395390 122.5929425  11.8926883
 127.7020012 123.3014997   4.6479988 126.9700012 123.5294997   5.2209988
 128.1500012 122.5874997   5.1029988 127.6623095 123.2362571   4.7879119
 127.6000012 121.4754997  13.7149988 127.6800012 122.2384997  14.2869988
 126.9980012 121.7544997  13.0249988 127.5295756 121.6177134  13.7000589
 119.3480012 123.9314997   6.5299988 119.0170012 123.5614997   5.7119988
 119.9360012 123.2614997   6.8769988 119.3821873 123.7901156   6.4648102
 120.7140012 127.3594997   9.2119988 120.6200012 126.7814997   8.4549988
 121.4440012 126.9884997   9.7079988 120.7997981 127.2302390   9.1754165
 119.7140012 122.7004997  10.1639988 120.2800012 122.8214997   9.4009988
 120.0330012 123.3374997  10.8029988 119.8345786 122.8031884  10.1460040
 126.0230012 128.2034997  10.8979988 125.7830012 128.8654997  11.5459988
 125.8250012 127.3694997  11.3229988 125.9633808 128.1813134  11.0441524
 120.5940012 127.0994997  14.8809988 120.2830012 127.8814997  15.3359988
 119.9440012 126.9464997  14.1949988 120.4635558 127.1859105  14.8505871
 126.5730012 122.4634997   2.3329988 127.1530012 122.6134997   3.0799988
 126.9870012 122.9344997   1.6099988 126.7082830 122.5476841   2.3374134
 117.5140012 123.2974997  14.1099988 117.5850012 123.9484997  14.8079988
 116.6240012 123.4004997  13.7749988 117.4033117 123.4005936  14.1602700
 124.3000012 129.2004997   5.7679988 124.7740012 129.4954997   6.5459988
 123.7370012 129.9384997   5.5349988 124.2887653 129.3406932   5.8430136
 118.8340012 129.1714997  15.6439988 118.8410012 129.0354997  14.6969988
 117.9180012 129.0534997  15.8959988 118.7111714 129.1369430  15.5484666
 130.2720012 114.2134997   2.1459988 129.3720012 114.3524997   2.4409988
 130.5240012 115.0444997   1.7439988 130.1828702 114.3449074   2.1320205
 118.3380012 123.0014997   4.1199988 118.0460012 123.7694997   3.6289988
 117.6640012 122.3414997   3.9569988 118.2069081 123.0174406   4.0307340
 131.4610012 128.5794997   0.5219988 131.5350012 129.5184997   0.6929988
 132.3670012 128.2744997   0.4659988 131.5935100 128.6666722   0.5378119
 114.4310012 125.3644997  12.9349988 113.9300012 125.3364997  12.1199988
 114.4360012 124.4584997  13.2439988 114.3631526 125.2382278  12.8652872
 114.1810012 128.1444997   9.8189988 115.1270012 128.0004997   9.7999988
 114.0690012 128.9284997  10.3559988 114.2952727 128.2308046   9.8890072
 132.3790012 128.8104997  15.5009988 132.3300012 127.8554997  15.4639988
 131.5520012 129.0784997  15.9019988 132.2604940 128.7158998  15.5501375
 123.3580012 128.3844997  14.3769988 123.4450012 129.2104997  14.8519988
 122.4940012 128.0544997  14.6259988 123.2531964 128.4529878  14.4756549
 123.7720012 132.1564997   4.1829988 123.6970012 132.0354997   3.2369988
 123.8050012 133.1064997   4.3019988 123.7661848 132.2682500   4.0694834
 117.4250012 130.9454997   5.9639988 117.5780012 130.5974997   6.8429988
 116.5750012 130.5894997   5.7089988 117.3308962 130.8496650   6.0498340
 126.8740012 131.3104997   1.1849988 127.2490012 130.5664997   0.7149988
 126.8780012 131.0404997   2.1039988 126.9258915 131.1721486   1.2447824
 126.5430012 131.2364997   3.9349988 125.6070012 131.3364997   4.1129988
 126.8230012 130.5274997   4.5129988 126.4528255 131.1542711   4.0375391
 129.5310012 120.3034997  15.9809988 129.1240012 120.7844997  15.2599988
 129.5720012 119.3984997  15.6729988 129.4808437 120.2469374  15.8406683
 116.6800012 126.6874997  13.9779988 116.8960012 126.3264997  14.8369988
 115.8250012 126.3134997  13.7679988 116.5939292 126.5874111  14.0673386
 119.2990012 115.1574997   9.9729988 118.4370012 115.0704997   9.5659988
 119.2760012 116.0134997  10.4009988 119.1780330 115.2612765   9.9751863
 123.9620012 114.8794997  13.3479988 124.3820012 114.4644997  14.1009988
 123.0290012 114.7014997  13.4649988 123.8933644 114.7985900  13.4669539
 127.2880012 118.6354997  14.2009988 126.7740012 118.5094997  14.9989988
 127.1330012 119.5474997  13.9569988 127.1966852 118.7416132  14.2772158
 128.0510012 123.4964997  -0.0370012 128.0930012 123.2734997  -0.9670012
 128.9000012 123.8954997   0.1529988 128.1715396 123.5199155  -0.1386373
 123.6230012 117.3724997   0.6329988 123.3700012 117.3914997   1.5559988
 123.3670012 116.5004997   0.3319988 123.5537790 117.2572437   0.7186263
 119.3900012 120.1234997  11.0679988 118.7480012 120.0824997  11.7769988
 119.4270012 121.0494997  10.8309988 119.3071324 120.2431559  11.1329824
 119.3870012 120.3444997   5.9799988 118.4940012 120.0034997   5.9219988
 119.8370012 119.9674997   5.2249988 119.3257305 120.2468484   5.8699177
 124.9220012 120.7604997   4.7969988 124.5130012 121.5754997   4.5059988
 125.6430012 120.6204997   4.1829988 124.9634537 120.8532018   4.6741342
 124.0240012 120.9354997  16.2849988 123.4620012 120.2314997  16.6059988
 124.8510012 120.8154997  16.7529988 124.0587095 120.8227883  16.3922330
 125.9270012 120.2064997   7.6109988 125.7320012 120.8114997   6.8959988
 126.1080012 119.3724997   7.1769988 125.9247614 120.1766300   7.4544405
 117.1400012 120.4434997  12.9349988 117.1020012 120.8434997  13.8039988
 116.6490012 119.6264997  13.0259988 117.0684684 120.3878069  13.0661059
 120.5060012 117.8174997  -0.2660012 120.0750012 117.3724997   0.4639988
 119.7880012 118.1894997  -0.7780012 120.3499438 117.8068940  -0.2353201
 113.7480012 117.5594997   6.7859988 114.3790012 117.5304997   7.5049988
 114.1970012 117.1344997   6.0559988 113.8950774 117.4980492   6.7856553
 115.0220012 118.3054997   2.2099988 115.4960012 118.8964997   1.6249988
 114.3050012 118.8364997   2.5569988 114.9899341 118.4580867   2.1768836
 125.1910012 121.8444997  12.2829988 125.5140012 121.2134997  11.6399988
 124.7510012 121.3094997  12.9429988 125.1756895 121.6858441  12.2842850
 121.9680012 117.7714997   7.0669988 121.0570012 117.8284997   7.3549988
 122.4740012 117.7114997   7.8769988 121.9115413 117.7711985   7.2160622
 116.7970012 119.4004997   5.8929988 115.9070012 119.5004997   5.5529988
 117.0930012 118.5584997   5.5469988 116.7152823 119.3003545   5.7997213
 120.4500012 119.4004997   3.5499988 121.3810012 119.5294997   3.7279988
 120.2350012 120.0704997   2.8999988 120.5484247 119.5086565   3.4865747
 126.3730012 117.0064997  10.3309988 125.6970012 117.1374997  10.9949988
 125.8880012 116.8514997   9.5209988 126.2147145 117.0034905  10.3124517
 119.1240012 120.5954997   1.1169988 118.5810012 120.2154997   0.4249988
 119.9570012 120.7894997   0.6879988 119.1624399 120.5698124   0.9644526
 129.6610012 132.6784997  16.6079988 129.8610012 133.1024997  15.7729988
 130.3160012 133.0214997  17.2149988 129.7770051 132.7829648  16.5757836
 117.2590012 125.1524997  16.2159988 117.9910012 125.4064997  16.7769988
 116.4790012 125.3564997  16.7309988 117.2538232 125.2149177  16.3625760
 123.2880012 120.5594997   8.9539988 123.8530012 120.0124997   8.4069988
 123.1410012 120.0374997   9.7419988 123.3452918 120.4142024   8.9858454
 118.2900012 116.6954997   5.3719988 117.9730012 115.7934997   5.3369988
 119.0720012 116.6974997   4.8189988 118.3522284 116.5721628   5.2924783
 121.9150012 118.9474997  11.3679988 121.0790012 119.4014997  11.4779988
 122.4390012 119.2234997  12.1199988 121.8714414 119.0469376  11.4847136
 122.4590012 125.1604997   3.0519988 121.7140012 124.6534997   2.7299988
 122.3250012 125.2094997   3.9989988 122.3388776 125.0976940   3.1358647
 129.6090012 124.2934997  11.8389988 130.2510012 124.7504997  11.2949988
 128.7790012 124.4064997  11.3759988 129.5845963 124.3712704  11.7020177
 126.3570012 117.9744997   1.2519988 125.4180012 118.0864997   1.0999988
 126.6540012 118.8314997   1.5579988 126.2687666 118.1056443   1.2725768
 123.9780012 125.3444997  14.2889988 123.6330012 124.9634997  15.0959988
 123.7780012 126.2784997  14.3609988 123.9038061 125.4185228  14.4090961
 127.0750012 119.8414997   2.9119988 127.9670012 119.7044997   3.2309988
 127.1320012 120.6324997   2.3759988 127.2046285 119.9296660   2.8831691
 117.5840012 124.4554997   8.8219988 118.3290012 124.4534997   8.2209988
 117.6620012 123.6324997   9.3039988 117.6965518 124.3439315   8.8048929
 124.5850012 126.6194997   2.0779988 124.2890012 127.4454997   2.4589988
 123.8820012 125.9994997   2.2739988 124.4494914 126.6488199   2.1566443
 114.5920012 122.9164997  14.1369988 114.8150012 122.4984997  14.9689988
 113.9900012 122.3034997  13.7139988 114.5411759 122.7764668  14.1937022
 121.6080012 122.4334997  16.3499988 121.3120012 122.2674997  15.4549988
 122.5400012 122.2134997  16.3389988 121.6934166 122.3810640  16.2260536
 126.2290012 127.8064997  14.2399988 125.3280012 127.9894997  13.9719988
 126.2630012 128.0654997  15.1609988 126.1103041 127.8665512  14.3278197
 131.9600012 120.0514997   2.6069988 131.4060012 119.6554997   1.9349988
 132.0600012 120.9614997   2.3289988 131.8977059 120.1203586   2.4774401
 131.9230012 125.8514997  15.4439988 131.0720012 126.0894997  15.0769988
 132.5140012 125.8344997  14.6909988 131.8862487 125.8818258  15.2918893
 130.2550012 128.8374997   3.0719988 129.8820012 128.0114997   3.3809988
 130.5330012 128.6544997   2.1749988 130.2415630 128.6997303   2.9929626
 127.4160012 123.6454997  10.0929988 126.4870012 123.4134997  10.0659988
 127.8670012 122.8684997   9.7629988 127.3499216 123.5087238  10.0446917
 119.9590012 127.9734997   6.2259988 120.4860012 128.7464997   6.0259988
 119.0790012 128.1984997   5.9249988 119.9121773 128.1098005   6.1579010
 115.7140012 122.8354997   0.8129988 116.3300012 123.4624997   1.1929988
 114.8520012 123.1514997   1.0849988 115.6817698 122.9639430   0.9017183
 121.3860012 125.6364997   5.8029988 121.1450012 126.5614997   5.8439988
 120.6450012 125.1774997   6.1989988 121.2528409 125.7011421   5.8621377
 121.9010012 129.7854997  12.1179988 122.2630012 130.6404997  11.8839988
 122.4320012 129.4934997  12.8579988 122.0224473 129.8631060  12.1860855
 120.0690012 130.6584997   5.3479988 119.1190012 130.7634997   5.3989988
 120.4210012 131.4784997   5.6929988 119.9864203 130.7838314   5.4016650
 125.4450012 125.8844997  11.8179988 125.0190012 125.6574997  12.6449988
 126.0250012 125.1464997  11.6359988 125.4651868 125.7535299  11.9065830
 127.6480012 126.8134997   0.8919988 128.0010012 126.4334997   1.6969988
 126.6990012 126.7204997   0.9789988 127.5680441 126.7489596   1.0138559
 128.1030012 130.4364997  14.2879988 127.5020012 129.8814997  13.7919988
 128.3850012 131.1034997  13.6619988 128.0588519 130.4506841  14.1354952
 132.1510012 131.2934997   1.0929988 132.8950012 131.8794997   0.9529988
 131.4570012 131.8614997   1.4269988 132.1590292 131.4505582   1.1189961
 116.2260012 117.6694997  13.6949988 115.3330012 118.0084997  13.6269988
 116.1270012 116.8144997  14.1129988 116.0904164 117.6002588  13.7422235
 128.5140012 125.4864997   3.1189988 128.2360012 124.7584997   3.6749988
 129.4410012 125.6054997   3.3239988 128.6013124 125.4028802   3.2228845
 115.8770012 129.4744997  12.1299988 116.0940012 128.5424997  12.0989988
 116.1230012 129.7484997  13.0129988 115.9399549 129.3840636  12.2451763
 121.7390012 127.9254997  -0.6610012 121.9780012 127.1774997  -1.2080012
 121.4700012 127.5374997   0.1719988 121.7353675 127.7706638  -0.6233135
 120.6760012 127.4954997   1.7959988 120.8220012 126.9754997   2.5859988
 120.6730012 128.4024997   2.1019988 120.6955989 127.5468853   1.9456088
 117.1290012 124.7484997   2.3059988 116.4430012 125.1004997   2.8729988
 117.6510012 125.5114997   2.0589988 117.1056852 124.8998578   2.3502118
 124.9600012 117.4104997  12.5849988 125.6590012 117.4844997  13.2349988
 124.5790012 116.5464997  12.7389988 125.0041767 117.3037624  12.6948322
 125.7450012 117.0624997   3.6819988 125.9650012 117.5344997   2.8789988
 126.3030012 117.4574997   4.3519988 125.8504968 117.1804285   3.6627331
 123.4130012 129.1934997   2.5449988 122.5970012 129.6904997   2.5969988
 123.9430012 129.6684997   1.9049988 123.3729161 129.3257722   2.4655956
 122.9450012 118.7904997   4.5169988 123.7570012 119.2954997   4.5629988
 122.7000012 118.6454997   5.4309988 123.0230520 118.8400375   4.6468517
 123.4800012 119.7764997  13.7019988 123.5990012 120.3504997  14.4589988
 124.1360012 119.0884997  13.8159988 123.5849757 119.7621079  13.8210825
 123.8280012 115.8714997   5.4549988 123.4820012 116.4894997   6.0999988
 124.4870012 116.3724997   4.9739988 123.8697826 116.0235802   5.4780971
 120.7520012 130.2374997   2.5269988 120.9120012 131.0364997   2.0259988
 120.5540012 130.5434997   3.4119988 120.7471649 130.3884469   2.5779815
 119.4860012 116.9344997   2.1419988 119.4030012 117.8234997   2.4889988
 120.3760012 116.6694997   2.3739988 119.5949469 117.0201430   2.2207626
 129.6850012 117.6834997  14.5369988 128.7680012 117.9464997  14.4489988
 130.0200012 117.6804997  13.6399988 129.6049900 117.7190224  14.4037919
 128.2870012 121.4344997   8.6319988 127.4890012 121.0194997   8.3039988
 128.7320012 120.7434997   9.1229988 128.2379885 121.2843543   8.6534889
 117.7450012 127.3624997   1.2029988 118.3370012 128.0614997   1.4789988
 118.2040012 126.9294997   0.4829988 117.8881142 127.3997049   1.1434830
 116.0610012 120.0264997   0.3189988 116.0160012 120.9654997   0.4969988
 115.1730012 119.7904997   0.0489988 115.9348574 120.1231892   0.3068912
 129.3730012 130.6904997  10.2549988 129.2180012 131.3684997   9.5979988
 130.3060012 130.7624997  10.4579988 129.4778500 130.7930170  10.1925119
 116.8690012 114.8084997   8.9919988 116.6400012 114.8674997   8.0639988
 116.4260012 114.0164997   9.2979988 116.7778530 114.7095753   8.9064786
 115.7990012 128.7484997   5.1519988 114.9670012 129.2214997   5.1799988
 116.3450012 129.2584997   4.5539988 115.7589739 128.8821871   5.0749716
 115.0870012 131.3614997  16.4819988 115.6280012 131.1444997  17.2419988
 114.6060012 130.5554997  16.2929988 115.0959345 131.2229514  16.5603076
 119.6850012 130.2804997  18.1029988 120.4520012 129.8214997  18.4439988
 119.6630012 130.0544997  17.1729988 119.7871434 130.1870409  18.0240043
 123.7770012 129.7884997  -0.5220012 123.1330012 129.1574997  -0.2010012
 124.5390012 129.2574997  -0.7540012 123.7918077 129.6302920  -0.5093989
 126.2620012 128.6604997  16.8319988 125.9110012 127.8044997  17.0749988
 126.9880012 128.8034997  17.4389988 126.3120769 128.5625636  16.9473619
 128.3810012 129.6054997  -0.2880012 128.6640012 128.8114997   0.1639988
 129.1210012 129.8384997  -0.8490012 128.5197486 129.5282803  -0.3019302
 114.9940012 125.1714997  17.4369988 115.1380012 124.2694997  17.1499988
 114.2220012 125.4574997  16.9489988 114.9093322 125.0868261  17.3317881
 119.3360012 125.5154997  -0.4310012 119.4000012 124.7214997   0.0999988
 119.9890012 125.3964997  -1.1210012 119.4330241 125.3907148  -0.4515683
 121.6500012 125.1414997  16.8689988 121.3210012 125.4124997  16.0119988
 121.8020012 124.2004997  16.7819988 121.6254809 125.0513862  16.7398244
 124.6880012 126.5624997  -0.6950012 124.4190012 126.7424997   0.2059988
 124.4820012 125.6364997  -0.8260012 124.6233825 126.4620152  -0.5894786
 127.3840012 125.0574997  14.2529988 128.1300012 125.6454997  14.1329988
 126.6270012 125.6394997  14.3159988 127.3837554 125.2167011  14.2450907
 115.8270012 122.3714997  16.8569988 116.2350012 121.5144997  16.7359988
 115.5670012 122.3864997  17.7779988 115.8477568 122.2560807  16.9649588
 120.4850012 123.4874997   1.8749988 120.0250012 123.0034997   2.5609988
 120.7400012 122.8194997   1.2389988 120.4564902 123.3308731   1.8829334
 119.7740012 121.3804997  14.2309988 119.1560012 122.0554997  14.5109988
 120.1180012 121.7014997  13.3979988 119.7359615 121.5162721  14.1566581
 121.5560012 121.7304997   0.1369988 121.3760012 121.5764997  -0.7900012
 122.5060012 121.8384997   0.1819988 121.6597776 121.7240175   0.0161843
 124.7940012 123.8524997  17.5079988 125.7470012 123.9354997  17.4809988
 124.6330012 123.1404997  18.1279988 124.9026426 123.7676746  17.5880579
 130.9460012 124.0854997  -0.4170012 130.6720012 123.6604997  -1.2300012
 130.9850012 125.0164997  -0.6340012 130.9137699 124.1532484  -0.5576390
 120.1130012 118.7354997  15.3129988 120.2630012 118.0064997  14.7109988
 120.1160012 119.5124997  14.7539988 120.1339302 118.7407851  15.1550692
 120.5260012 117.1054997  12.8059988 121.0620012 117.5564997  12.1539988
 119.6740012 116.9974997  12.3829988 120.4842178 117.1526390  12.6595756
 122.1080012 122.5444997  13.0449988 122.8580012 122.3884997  12.4719988
 121.7690012 123.3964997  12.7699988 122.1648921 122.6382968  12.9293561
 126.5230012 120.3594997  18.0739988 126.7160012 119.4284997  17.9619988
 127.3810012 120.7844997  18.0639988 126.6653020 120.2896389  18.0573361
 127.8400012 123.1484997  16.1509988 127.5590012 123.8574997  15.5739988
 128.7830012 123.0754997  15.9999988 127.9289027 123.2357646  16.0515551
 118.5920012 119.9334997  17.2249988 117.8250012 119.4014997  17.0149988
 119.2710012 119.6234997  16.6249988 118.5787022 119.8187506  17.1151648
 121.3320012 114.5614997  13.2369988 121.2330012 115.5084997  13.1319988
 120.5890012 114.1894997  12.7619988 121.2180564 114.6405902  13.1584560
 122.5960012 118.8834997  16.8009988 122.3600012 118.6634997  17.7029988
 121.8120012 118.6764997  16.2909988 122.4578628 118.8254760  16.8553932
 125.3110012 118.0104997  15.8769988 124.3640012 118.0424997  16.0089988
 125.6240012 117.3854997  16.5299988 125.2235475 117.9303207  15.9834455
 126.9450012 116.6444997  17.8819988 126.8490012 115.6924997  17.8759988
 126.6240012 116.9134997  18.7419988 126.8884070 116.5504035  17.9975441
 116.7720012 117.8544997  16.9289988 116.9840012 117.1474997  16.3189988
 116.6610012 117.4164997  17.7729988 116.7859721 117.6987084  16.9596843
 121.5530012 113.8554997  15.9089988 122.2650012 113.2154997  15.8949988
 121.4520012 114.1224997  14.9949988 121.6367939 113.8039938  15.7835650
 121.9070012 115.5384997  17.9619988 121.7750012 115.0624997  17.1419988
 121.3080012 116.2824997  17.9069988 121.8079071 115.5739618  17.8422886
 121.4530012 132.4214997   1.1389988 122.3860012 132.5794997   1.2819988
 121.1890012 133.0964997   0.5139988 121.5449510 132.5343611   1.0740741
 115.0220012 127.0574997   0.6209988 115.9360012 127.1364997   0.8949988
 115.0290012 126.3704997  -0.0450012 115.1481131 126.9753961   0.5684393
 113.6710012 132.4504997   5.6989988 113.0240012 131.9884997   5.1659988
 114.0250012 131.7784997   6.2809988 113.6303849 132.2964723   5.7047959
 114.5410012 130.5314997   7.5029988 114.2060012 129.6514997   7.6749988
 114.7630012 130.8764997   8.3679988 114.5251783 130.4577500   7.6434208
 132.0890012 131.3404997  10.4839988 132.0680012 131.5254997  11.4229988
 132.7800012 131.9094997  10.1429988 132.1794618 131.4426606  10.5663864
 131.6530012 130.9084997  13.4059988 131.1650012 130.1724997  13.0349988
 132.2020012 130.5144997  14.0839988 131.6604872 130.7546249  13.4469160
 130.1030012 126.6974997  18.0439988 129.2370012 126.5924997  18.4379988
 130.4800012 127.4564997  18.4899988 130.0353308 126.7856900  18.1582393
 131.4040012 124.9544997   3.5579988 132.2540012 125.3754997   3.6849988
 131.4100012 124.2144997   4.1649988 131.5211372 124.9120803   3.6574344
 131.7990012 123.0074997   5.3819988 131.0720012 122.5284997   5.7789988
 132.3800012 123.2134997   6.1139988 131.7779375 122.9697090   5.5354129
 131.5580012 125.7924997  10.3289988 132.3910012 125.4144997  10.0489988
 131.6700012 126.7354997  10.2099988 131.6872647 125.8682218  10.2745487
 130.0440012 128.6704997  12.6359988 129.3970012 128.9954997  13.2619988
 129.5270012 128.2304997  11.9619988 129.8854029 128.6555004  12.6305827
 132.0670012 122.9084997   1.7729988 131.5450012 123.2654997   1.0539988
 132.0340012 123.5834997   2.4509988 131.9911634 123.0485413   1.7663145
 130.4160012 120.1484997   0.3239988 130.5120012 120.8154997  -0.3570012
 130.2760012 119.3324997  -0.1580012 130.4102135 120.1294500   0.1658491
 129.5850012 121.5284997   5.9449988 129.4350012 120.5834997   5.9239988
 129.2320012 121.8094997   6.7879988 129.5166625 121.4370441   6.0562346
 114.6210012 123.6064997   9.9549988 114.8050012 123.5244997   9.0189988
 115.4700012 123.4824997  10.3789988 114.7610139 123.5785003   9.8841455
 130.4420012 123.4984997  15.5829988 131.0250012 122.7644997  15.7749988
 131.0060012 124.2704997  15.6299988 130.5979769 123.5024227  15.6156159
 131.9380012 121.4014997  16.2679988 131.0750012 121.0224997  16.1019988
 132.5430012 120.6624997  16.1939988 131.9015979 121.2498023  16.2352817
 129.6630012 117.5564997  -0.5590012 130.2740012 117.1854997   0.0779988
 128.8270012 117.1354997  -0.3630012 129.6335032 117.4487554  -0.4452965
 129.2960012 119.1114997   4.4069988 129.5760012 118.2044997   4.5309988
 130.0550012 119.5454997   4.0179988 129.4369277 119.0460942   4.3713682
 129.9080012 119.6924997   9.8429988 130.8410012 119.9044997   9.8089988
 129.6730012 119.7944997  10.7649988 130.0038036 119.7352769   9.9629976
 129.9370012 120.4294997  12.6189988 129.0940012 120.6974997  12.9849988
 130.3790012 121.2514997  12.4079988 129.8814158 120.5773291  12.6405491
 114.2180012 118.8774997  16.0959988 115.1380012 118.7554997  16.3319988
 113.7690012 118.1274997  16.4849988 114.2831580 118.7593727  16.1809006
 132.2200012 114.4094997  17.9719988 132.5700012 113.7554997  17.3669988
 132.3670012 115.2464997  17.5329988 132.2878419 114.4331591  17.8297118
 129.9090012 116.3744997   4.4549988 130.0920012 115.9254997   5.2809988
 129.3100012 115.7894997   3.9919988 129.8530202 116.2339975   4.5053275
 115.4390012 117.1894997   8.9869988 115.8850012 116.3974997   9.2889988
 115.9060012 117.9054997   9.4179988 115.5630172 117.1780624   9.0864820
 113.7430012 120.1884997  10.0559988 114.2350012 119.9674997   9.2649988
 114.1060012 121.0294997  10.3369988 113.8593126 120.2718357   9.9857531
 131.7400012 116.5184997  16.3219988 130.8220012 116.7894997  16.2859988
 131.8630012 115.9834997  15.5369988 131.6311066 116.4832892  16.2110487
 131.7760012 116.4414997   0.9829988 132.1880012 115.7204997   0.5079988
 132.4580012 117.1114997   1.0419988 131.9245885 116.4332368   0.9258915
 114.0570012 116.4464997   4.1099988 113.1320012 116.6554997   3.9809988
 114.5110012 116.9304997   3.4209988 113.9917368 116.5405993   3.9991226
 128.8280012 131.4304997   6.0559988 129.4800012 131.0834997   5.4479988
 129.3380012 131.9194997   6.7019988 128.9862637 131.4490597   6.0600236
 114.0210012 115.1844997  12.4549988 113.3560012 114.9384997  13.0979988
 113.5780012 115.8064997  11.8769988 113.8700956 115.2348632  12.4649352
 116.2130012 128.3594997  16.5989988 115.3920012 128.5344997  16.1389988
 115.9600012 128.2864997  17.5199988 116.0666164 128.3735622  16.6604923
 119.1670012 129.3344997  12.8579988 118.7420012 130.1434997  12.5749988
 120.0710012 129.4194997  12.5559988 119.2310271 129.4568469  12.7783776
 123.4780012 130.7334997  15.8169988 123.6630012 130.3994997  16.6949988
 124.3240012 131.0424997  15.4949988 123.6177539 130.7296047  15.8935605
 125.8230012 132.0194997  15.0609988 126.5000012 131.3864997  14.8209988
 126.1450012 132.4204997  15.8679988 125.9591637 131.9871154  15.1372793
 130.7400012 114.6084997  14.1409988 129.9280012 114.9334997  13.7529988
 130.9730012 113.8484997  13.6079988 130.6603423 114.5502436  14.0158253
 116.5690012 132.5904997  12.9049988 115.8480012 133.0304997  12.4539988
 116.2030012 132.3394997  13.7539988 116.4209804 132.6167698  12.9579840
 119.0360012 132.1904997  11.9349988 118.1710012 132.2624997  12.3389988
 118.9810012 132.7374997  11.1509988 118.9102085 132.2742685  11.8843362
 123.7460012 132.0784997  11.1099988 123.2900012 132.6074997  10.4559988
 123.9090012 132.6814997  11.8359988 123.7055585 132.2324468  11.1185062
 126.0740012 130.9564997  12.0549988 125.1690012 131.1214997  11.7899988
 126.5030012 131.8094997  11.9899988 126.0080799 131.0944483  12.0099182
 128.6780012 132.5264997  12.3499988 128.4960012 133.4424997  12.1399988
 128.8550012 132.1164997  11.5039988 128.6770210 132.5964822  12.2067885
 115.9830012 131.2134997   9.8149988 115.9650012 130.7884997  10.6729988
 116.7880012 130.8954997   9.4069988 116.0893875 131.1123812   9.8771655
 118.1250012 129.9234997   8.4699988 117.9060012 129.0074997   8.6399988
 118.9490012 130.0634997   8.9359988 118.2064420 129.8170520   8.5562774
 120.6620012 130.3934997   9.3189988 120.8750012 129.5054997   9.0319988
 120.7260012 130.3594997  10.2729988 120.6998232 130.2673102   9.4087397
 124.1700012 116.0574997   8.4629988 123.4960012 115.4284997   8.7189988
 124.7340012 115.5734997   7.8599988 124.1539230 115.9058744   8.4165340
 129.3130012 114.1654997   8.5759988 129.9170012 114.7124997   8.0739988
 128.4430012 114.4844997   8.3359988 129.2781241 114.2835806   8.4747654
 131.0400012 115.3034997   6.9089988 131.6520012 114.7894997   6.3829988
 131.4220012 116.1814997   6.9329988 131.1754540 115.3517140   6.8401830
 116.4970012 114.6914997   6.2849988 115.7200012 114.4574997   5.7779988
 117.0270012 113.8944997   6.2939988 116.4622330 114.5516988   6.2167742
 115.3330012 114.4894997   2.0889988 115.7720012 115.1004997   1.4969988
 114.7000012 115.0274997   2.5629988 115.3074514 114.6459257   2.0720930
 121.0760012 114.6184997   6.0989988 121.9510012 115.0064997   6.0689988
 120.9400012 114.4034997   7.0209988 121.1773695 114.6425184   6.2196440
 126.6330012 114.6484997   7.7479988 126.7090012 114.7434997   6.7979988
 126.3580012 113.7404997   7.8769988 126.6062321 114.5387867   7.6355079
 127.9860012 114.6744997   3.4399988 127.2840012 115.2894997   3.2309988
 127.5420012 113.8364997   3.5709988 127.8296330 114.6455783   3.4290328
 115.2340012 130.4374997   2.9869988 114.5490012 130.3994997   2.3189988
 115.2380012 131.3504997   3.2749988 115.1408193 130.5557016   2.9345284
 117.1940012 116.4054997   0.5309988 117.6860012 115.7754997   0.0039988
 117.8180012 116.7014997   1.1949988 117.3455446 116.3593199   0.5485980
 122.2200012 116.6984997   2.9879988 122.3980012 116.0524997   3.6709988
 122.1670012 117.5324997   3.4559988 122.2371829 116.7227985   3.1445940
 124.0990012 131.6474997   1.3839988 124.9650012 132.0134997   1.2059988
 123.8520012 131.2074997   0.5699988 124.1842392 131.6381756   1.2496289
 130.8080012 131.2104997   4.0629988 130.6130012 130.4624997   3.4979988
 130.7690012 131.9684997   3.4799988 130.7760380 131.2106099   3.9068384
 116.4550012 115.2054997  15.8029988 116.0890012 114.4404997  16.2459988
 117.3680012 115.2344997  16.0899988 116.5282790 115.1047224  15.9024070
 118.4280012 114.5564997  17.3389988 119.3260012 114.2824997  17.1539988
 118.0410012 113.8134997  17.8029988 118.4986612 114.4185914  17.3763643
 117.0520012 131.3574997   0.0119988 116.7850012 131.6444997   0.8849988
 117.8240012 130.8114997   0.1639988 117.1197488 131.3230294   0.1521050
 126.8490012 113.8884997  17.5209988 126.9260012 113.4624997  18.3749988
 127.7430012 113.9024997  17.1779988 126.9803428 113.8320879  17.5915310
 130.0250012 129.9614997  16.2129988 129.2430012 129.7754997  15.6939988
 129.9530012 130.8904997  16.4309988 129.9081777 130.0616492  16.1714048
 144.4310012 123.8474997   6.2439988 144.5200012 124.7914997   6.1119988
 143.7930012 123.5724997   5.5859988 144.3569081 123.9394830   6.1369614
 143.3640012 123.1024997   9.6629988 143.3260012 122.4564997  10.3679988
 143.0420012 122.6364997   8.8919988 143.3152333 122.9509408   9.6552978
 135.7330012 122.7174997  11.2559988 135.7740012 122.0914997  11.9789988
 136.4360012 123.3414997  11.4379988 135.8336363 122.7161196  11.3796044
 136.6560012 127.1674997   9.7909988 136.2870012 126.3654997   9.4209988
 137.5970012 126.9984997   9.8369988 136.7327289 127.0350153   9.7466316
 133.2660012 120.8274997   5.1839988 132.8190012 121.6734997   5.1649988
 132.7050012 120.2474997   4.6679988 133.1289900 120.8649916   5.1116801
 133.9770012 122.9894997   7.3099988 134.1900012 122.2194997   7.8369988
 134.7150012 123.0784997   6.7059988 134.1058496 122.8961394   7.3005300
 144.1820012 131.1464997   8.1769988 144.8020012 130.4694997   7.9029988
 143.9740012 130.9284997   9.0849988 144.2386904 131.0243870   8.2623365
 141.7540012 125.5354997  10.0689988 142.0580012 124.8494997   9.4739988
 142.4750012 125.6534997  10.6869988 141.8930671 125.4576305  10.0711816
 144.8950012 119.9294997  10.3969988 145.0370012 118.9834997  10.4169988
 144.7880012 120.1364997   9.4679988 144.8999863 119.8279534  10.2742339
 138.0490012 118.0304997   7.6689988 138.0930012 118.8904997   7.2509988
 137.5920012 117.4784997   7.0349988 137.9932185 118.0735799   7.5260299
 134.6700012 120.4274997   8.4309988 135.3230012 119.8774997   8.8629988
 134.6940012 120.1534997   7.5139988 134.7626683 120.3151466   8.3662123
 139.8260012 121.9774997   7.6459988 140.4420012 121.4514997   8.1559988
 139.2400012 121.3374997   7.2429988 139.8310810 121.8189208   7.6613173
 136.8600012 116.9484997  11.7429988 136.6410012 117.4784997  10.9769988
 136.1920012 117.1754997  12.3899988 136.7397600 117.0516906  11.7256379
 144.2290012 126.4484997   5.2869988 143.9330012 126.1264997   4.4359988
 143.9040012 127.3484997   5.3279988 144.1446371 126.5260215   5.1761801
 139.4290012 124.6244997  12.0299988 138.6890012 125.2224997  12.1339988
 140.1430012 125.1784997  11.7149988 139.4242237 124.7812831  12.0016465
 136.4530012 118.8404997   9.6949988 137.0670012 119.4734997  10.0689988
 136.9650012 118.3684997   9.0389988 136.6062296 118.8632370   9.6574252
 137.8360012 126.5884997  12.8179988 137.8310012 127.4684997  12.4399988
 136.9830012 126.5054997  13.2429988 137.7199464 126.6976117  12.8237907
 133.9570012 126.2594997   3.5999988 133.6850012 126.4884997   2.7109988
 134.0030012 127.0974997   4.0599988 133.9260094 126.4041213   3.5405697
 140.8860012 114.2544997   9.1959988 140.7690012 113.3054997   9.1409988
 140.0310012 114.5864997   9.4689988 140.7543733 114.1695409   9.2253897
 143.1530012 123.0914997   3.6959988 142.4410012 123.6264997   3.3439988
 143.8440012 123.1474997   3.0359988 143.1490132 123.1722543   3.5586289
 143.2060012 121.5494997   0.7349988 143.9070012 121.5714997   1.3859988
 143.5090012 120.9214997   0.0789988 143.3427830 121.4676566   0.7353711
 138.2040012 123.9314997   6.5299988 137.8730012 123.5614997   5.7119988
 138.7920012 123.2614997   6.8769988 138.2381873 123.7901156   6.4648102
 139.5700012 127.3594997   9.2119988 139.4760012 126.7814997   8.4549988
 140.3000012 126.9884997   9.7079988 139.6557981 127.2302390   9.1754165
 138.5700012 122.7004997  10.1639988 139.1360012 122.8214997   9.4009988
 138.8890012 123.3374997  10.8029988 138.6905786 122.8031884  10.1460040
 144.8790012 128.2034997  10.8979988 144.6390012 128.8654997  11.5459988
 144.6810012 127.3694997  11.3229988 144.8193808 128.1813134  11.0441524
 139.4500012 127.0994997  14.8809988 139.1390012 127.8814997  15.3359988
 138.8000012 126.9464997  14.1949988 139.3195558 127.1859105  14.8505871
 136.3700012 123.2974997  14.1099988 136.4410012 123.9484997  14.8079988
 135.4800012 123.4004997  13.7749988 136.2593117 123.4005936  14.1602700
 143.1560012 129.2004997   5.7679988 143.6300012 129.4954997   6.5459988
 142.5930012 129.9384997   5.5349988 143.1447653 129.3406932   5.8430136
 137.6900012 129.1714997  15.6439988 137.6970012 129.0354997  14.6969988
 136.7740012 129.0534997  15.8959988 137.5671714 129.1369430  15.5484666
 137.1940012 123.0014997   4.1199988 136.9020012 123.7694997   3.6289988
 136.5200012 122.3414997   3.9569988 137.0629081 123.0174406   4.0307340
 133.2870012 125.3644997  12.9349988 132.7860012 125.3364997  12.1199988
 133.2920012 124.4584997  13.2439988 133.2191526 125.2382278  12.8652872
 133.0370012 128.1444997   9.8189988 133.9830012 128.0004997   9.7999988
 132.9250012 128.9284997  10.3559988 133.1512727 128.2308046   9.8890072
 142.2140012 128.3844997  14.3769988 142.3010012 129.2104997  14.8519988
 141.3500012 128.0544997  14.6259988 142.1091964 128.4529878  14.4756549
 142.6280012 132.1564997   4.1829988 142.5530012 132.0354997   3.2369988
 142.6610012 133.1064997   4.3019988 142.6221848 132.2682500   4.0694834
 136.2810012 130.9454997   5.9639988 136.4340012 130.5974997   6.8429988
 135.4310012 130.5894997   5.7089988 136.1868962 130.8496650   6.0498340
 135.5360012 126.6874997  13.9779988 135.7520012 126.3264997  14.8369988
 134.6810012 126.3134997  13.7679988 135.4499292 126.5874111  14.0673386
 138.1550012 115.1574997   9.9729988 137.2930012 115.0704997   9.5659988
 138.1320012 116.0134997  10.4009988 138.0340330 115.2612765   9.9751863
 142.8180012 114.8794997  13.3479988 143.2380012 114.4644997  14.1009988
 141.8850012 114.7014997  13.4649988 142.7493644 114.7985900  13.4669539
 142.4790012 117.3724997   0.6329988 142.2260012 117.3914997   1.5559988
 142.2230012 116.5004997   0.3319988 142.4097790 117.2572437   0.7186263
 138.2460012 120.1234997  11.0679988 137.6040012 120.0824997  11.7769988
 138.2830012 121.0494997  10.8309988 138.1631324 120.2431559  11.1329824
 138.2430012 120.3444997   5.9799988 137.3500012 120.0034997   5.9219988
 138.6930012 119.9674997   5.2249988 138.1817305 120.2468484   5.8699177
 143.7780012 120.7604997   4.7969988 143.3690012 121.5754997   4.5059988
 144.4990012 120.6204997   4.1829988 143.8194537 120.8532018   4.6741342
 142.8800012 120.9354997  16.2849988 142.3180012 120.2314997  16.6059988
 143.7070012 120.8154997  16.7529988 142.9147095 120.8227883  16.3922330
 144.7830012 120.2064997   7.6109988 144.5880012 120.8114997   6.8959988
 144.9640012 119.3724997   7.1769988 144.7807614 120.1766300   7.4544405
 135.9960012 120.4434997  12.9349988 135.9580012 120.8434997  13.8039988
 135.5050012 119.6264997  13.0259988 135.9244684 120.3878069  13.0661059
 139.3620012 117.8174997  -0.2660012 138.9310012 117.3724997   0.4639988
 138.6440012 118.1894997  -0.7780012 139.2059438 117.8068940  -0.2353201
 132.6040012 117.5594997   6.7859988 133.2350012 117.5304997   7.5049988
 133.0530012 117.1344997   6.0559988 132.7510774 117.4980492   6.7856553
 133.8780012 118.3054997   2.2099988 134.3520012 118.8964997   1.6249988
 133.1610012 118.8364997   2.5569988 133.8459341 118.4580867   2.1768836
 144.0470012 121.8444997  12.2829988 144.3700012 121.2134997  11.6399988
 143.6070012 121.3094997  12.9429988 144.0316895 121.6858441  12.2842850
 140.8240012 117.7714997   7.0669988 139.9130012 117.8284997   7.3549988
 141.3300012 117.7114997   7.8769988 140.7675413 117.7711985   7.2160622
 135.6530012 119.4004997   5.8929988 134.7630012 119.5004997   5.5529988
 135.9490012 118.5584997   5.5469988 135.5712823 119.3003546   5.7997213
 139.3060012 119.4004997   3.5499988 140.2370012 119.5294997   3.7279988
 139.0910012 120.0704997   2.8999988 139.4044247 119.5086565   3.4865747
 137.9800012 120.5954997   1.1169988 137.4370012 120.2154997   0.4249988
 138.8130012 120.7894997   0.6879988 138.0184399 120.5698124   0.9644526
 136.1150012 125.1524997  16.2159988 136.8470012 125.4064997  16.7769988
 135.3350012 125.3564997  16.7309988 136.1098232 125.2149177  16.3625760
 142.1440012 120.5594997   8.9539988 142.7090012 120.0124997   8.4069988
 141.9970012 120.0374997   9.7419988 142.2012918 120.4142024   8.9858454
 137.1460012 116.6954997   5.3719988 136.8290012 115.7934997   5.3369988
 137.9280012 116.6974997   4.8189988 137.2082284 116.5721628   5.2924783
 140.7710012 118.9474997  11.3679988 139.9350012 119.4014997  11.4779988
 141.2950012 119.2234997  12.1199988 140.7274414 119.0469376  11.4847136
 141.3150012 125.1604997   3.0519988 140.5700012 124.6534997   2.7299988
 141.1810012 125.2094997   3.9989988 141.1948776 125.0976940   3.1358647
 142.8340012 125.3444997  14.2889988 142.4890012 124.9634997  15.0959988
 142.6340012 126.2784997  14.3609988 142.7598061 125.4185228  14.4090961
 136.4400012 124.4554997   8.8219988 137.1850012 124.4534997   8.2209988
 136.5180012 123.6324997   9.3039988 136.5525518 124.3439315   8.8048929
 143.4410012 126.6194997   2.0779988 143.1450012 127.4454997   2.4589988
 142.7380012 125.9994997   2.2739988 143.3054914 126.6488199   2.1566443
 133.4480012 122.9164997  14.1369988 133.6710012 122.4984997  14.9689988
 132.8460012 122.3034997  13.7139988 133.3971759 122.7764668  14.1937022
 140.4640012 122.4334997  16.3499988 140.1680012 122.2674997  15.4549988
 141.3960012 122.2134997  16.3389988 140.5494166 122.3810640  16.2260536
 138.8150012 127.9734997   6.2259988 139.3420012 128.7464997   6.0259988
 137.9350012 128.1984997   5.9249988 138.7681773 128.1098005   6.1579010
 134.5700012 122.8354997   0.8129988 135.1860012 123.4624997   1.1929988
 133.7080012 123.1514997   1.0849988 134.5377698 122.9639430   0.9017183
 140.2420012 125.6364997   5.8029988 140.0010012 126.5614997   5.8439988
 139.5010012 125.1774997   6.1989988 140.1088409 125.7011421   5.8621377
 140.7570012 129.7854997  12.1179988 141.1190012 130.6404997  11.8839988
 141.2880012 129.4934997  12.8579988 140.8784473 129.8631060  12.1860855
 138.9250012 130.6584997   5.3479988 137.9750012 130.7634997   5.3989988
 139.2770012 131.4784997   5.6929988 138.8424203 130.7838314   5.4016650
 144.3010012 125.8844997  11.8179988 143.8750012 125.6574997  12.6449988
 144.8810012 125.1464997  11.6359988 144.3211868 125.7535299  11.9065830
 135.0820012 117.6694997  13.6949988 134.1890012 118.0084997  13.6269988
 134.9830012 116.8144997  14.1129988 134.9464164 117.6002588  13.7422235
 134.7330012 129.4744997  12.1299988 134.9500012 128.5424997  12.0989988
 134.9790012 129.7484997  13.0129988 134.7959549 129.3840636  12.2451763
 140.5950012 127.9254997  -0.6610012 140.8340012 127.1774997  -1.2080012
 140.3260012 127.5374997   0.1719988 140.5913675 127.7706638  -0.6233135
 139.5320012 127.4954997   1.7959988 139.6780012 126.9754997   2.5859988
 139.5290012 128.4024997   2.1019988 139.5515989 127.5468853   1.9456088
 135.9850012 124.7484997   2.3059988 135.2990012 125.1004997   2.8729988
 136.5070012 125.5114997   2.0589988 135.9616852 124.8998578   2.3502118
 143.8160012 117.4104997  12.5849988 144.5150012 117.4844997  13.2349988
 143.4350012 116.5464997  12.7389988 143.8601767 117.3037624  12.6948322
 144.6010012 117.0624997   3.6819988 144.8210012 117.5344997   2.8789988
 145.1590012 117.4574997   4.3519988 144.7064968 117.1804285   3.6627331
 142.2690012 129.1934997   2.5449988 141.4530012 129.6904997   2.5969988
 142.7990012 129.6684997   1.9049988 142.2289161 129.3257722   2.4655956
 141.8010012 118.7904997   4.5169988 142.6130012 119.2954997   4.5629988
 141.5560012 118.6454997   5.4309988 141.8790520 118.8400375   4.6468517
 142.3360012 119.7764997  13.7019988 142.4550012 120.3504997  14.4589988
 142.9920012 119.0884997  13.8159988 142.4409757 119.7621079  13.8210825
 142.6840012 115.8714997   5.4549988 142.3380012 116.4894997   6.0999988
 143.3430012 116.3724997   4.9739988 142.7257826 116.0235802   5.4780971
 139.6080012 130.2374997   2.5269988 139.7680012 131.0364997   2.0259988
 139.4100012 130.5434997   3.4119988 139.6031649 130.3884469   2.5779815
 138.3420012 116.9344997   2.1419988 138.2590012 117.8234997   2.4889988
 139.2320012 116.6694997   2.3739988 138.4509469 117.0201430   2.2207626
 136.6010012 127.3624997   1.2029988 137.1930012 128.0614997   1.4789988
 137.0600012 126.9294997   0.4829988 136.7441142 127.3997049   1.1434830
 134.9170012 120.0264997   0.3189988 134.8720012 120.9654997   0.4969988
 134.0290012 119.7904997   0.0489988 134.7908574 120.1231892   0.3068912
 135.7250012 114.8084997   8.9919988 135.4960012 114.8674997   8.0639988
 135.2820012 114.0164997   9.2979988 135.6338530 114.7095753   8.9064786
 134.6550012 128.7484997   5.1519988 133.8230012 129.2214997   5.1799988
 135.2010012 129.2584997   4.5539988 134.6149739 128.8821871   5.0749716
 133.9430012 131.3614997  16.4819988 134.4840012 131.1444997  17.2419988
 133.4620012 130.5554997  16.2929988 133.9519345 131.2229514  16.5603076
 138.5410012 130.2804997  18.1029988 139.3080012 129.8214997  18.4439988
 138.5190012 130.0544997  17.1729988 138.6431434 130.1870409  18.0240043
 142.6330012 129.7884997  -0.5220012 141.9890012 129.1574997  -0.2010012
 143.3950012 129.2574997  -0.7540012 142.6478077 129.6302920  -0.5093989
 133.8500012 125.1714997  17.4369988 133.9940012 124.2694997  17.1499988
 133.0780012 125.4574997  16.9489988 133.7653322 125.0868261  17.3317881
 138.1920012 125.5154997  -0.4310012 138.2560012 124.7214997   0.0999988
 138.8450012 125.3964997  -1.1210012 138.2890241 125.3907148  -0.4515683
 140.5060012 125.1414997  16.8689988 140.1770012 125.4124997  16.0119988
 140.6580012 124.2004997  16.7819988 140.4814809 125.0513862  16.7398244
 143.5440012 126.5624997  -0.6950012 143.2750012 126.7424997   0.2059988
 143.3380012 125.6364997  -0.8260012 143.4793825 126.4620152  -0.5894786
 134.6830012 122.3714997  16.8569988 135.0910012 121.5144997  16.7359988
 134.4230012 122.3864997  17.7779988 134.7037568 122.2560807  16.9649588
 139.3410012 123.4874997   1.8749988 138.8810012 123.0034997   2.5609988
 139.5960012 122.8194997   1.2389988 139.3124902 123.3308731   1.8829334
 138.6300012 121.3804997  14.2309988 138.0120012 122.0554997  14.5109988
 138.9740012 121.7014997  13.3979988 138.5919615 121.5162721  14.1566581
 140.4120012 121.7304997   0.1369988 140.2320012 121.5764997  -0.7900012
 141.3620012 121.8384997   0.1819988 140.5157776 121.7240175   0.0161843
 143.6500012 123.8524997  17.5079988 144.6030012 123.9354997  17.4809988
 143.4890012 123.1404997  18.1279988 143.7586426 123.7676746  17.5880579
 138.9690012 118.7354997  15.3129988 139.1190012 118.0064997  14.7109988
 138.9720012 119.5124997  14.7539988 138.9899302 118.7407851  15.1550692
 139.3820012 117.1054997  12.8059988 139.9180012 117.5564997  12.1539988
 138.5300012 116.9974997  12.3829988 139.3402178 117.1526390  12.6595756
 140.9640012 122.5444997  13.0449988 141.7140012 122.3884997  12.4719988
 140.6250012 123.3964997  12.7699988 141.0208921 122.6382968  12.9293561
 137.4480012 119.9334997  17.2249988 136.6810012 119.4014997  17.0149988
 138.1270012 119.6234997  16.6249988 137.4347022 119.8187506  17.1151648
 140.1880012 114.5614997  13.2369988 140.0890012 115.5084997  13.1319988
 139.4450012 114.1894997  12.7619988 140.0740564 114.6405902  13.1584560
 141.4520012 118.8834997  16.8009988 141.2160012 118.6634997  17.7029988
 140.6680012 118.6764997  16.2909988 141.3138628 118.8254760  16.8553932
 144.1670012 118.0104997  15.8769988 143.2200012 118.0424997  16.0089988
 144.4800012 117.3854997  16.5299988 144.0795475 117.9303207  15.9834455
 135.6280012 117.8544997  16.9289988 135.8400012 117.1474997  16.3189988
 135.5170012 117.4164997  17.7729988 135.6419721 117.6987084  16.9596843
 140.4090012 113.8554997  15.9089988 141.1210012 113.2154997  15.8949988
 140.3080012 114.1224997  14.9949988 140.4927939 113.8039938  15.7835650
 140.7630012 115.5384997  17.9619988 140.6310012 115.0624997  17.1419988
 140.1640012 116.2824997  17.9069988 140.6639071 115.5739618  17.8422886
 140.3090012 132.4214997   1.1389988 141.2420012 132.5794997   1.2819988
 140.0450012 133.0964997   0.5139988 140.4009510 132.5343611   1.0740741
 133.8780012 127.0574997   0.6209988 134.7920012 127.1364997   0.8949988
 133.8850012 126.3704997  -0.0450012 134.0041131 126.9753961   0.5684393
 132.5270012 132.4504997   5.6989988 131.8800012 131.9884997   5.1659988
 132.8810012 131.7784997   6.2809988 132.4863849 132.2964723   5.7047959
 133.3970012 130.5314997   7.5029988 133.0620012 129.6514997   7.6749988
 133.6190012 130.8764997   8.3679988 133.3811783 130.4577500   7.6434208
 133.4770012 123.6064997   9.9549988 133.6610012 123.5244997   9.0189988
 134.3260012 123.4824997  10.3789988 133.6170139 123.5785003   9.8841455
 133.0740012 118.8774997  16.0959988 133.9940012 118.7554997  16.3319988
 132.6250012 118.1274997  16.4849988 133.1391580 118.7593727  16.1809006
 134.2950012 117.1894997   8.9869988 134.7410012 116.3974997   9.2889988
 134.7620012 117.9054997   9.4179988 134.4190172 117.1780624   9.0864820
 132.5990012 120.1884997  10.0559988 133.0910012 119.9674997   9.2649988
 132.9620012 121.0294997  10.3369988 132.7153126 120.2718357   9.9857531
 132.9130012 116.4464997   4.1099988 131.9880012 116.6554997   3.9809988
 133.3670012 116.9304997   3.4209988 132.8477368 116.5405993   3.9991226
 132.8770012 115.1844997  12.4549988 132.2120012 114.9384997  13.0979988
 132.4340012 115.8064997  11.8769988 132.7260956 115.2348632  12.4649352
 135.0690012 128.3594997  16.5989988 134.2480012 128.5344997  16.1389988
 134.8160012 128.2864997  17.5199988 134.9226164 128.3735622  16.6604923
 138.0230012 129.3344997  12.8579988 137.5980012 130.1434997  12.5749988
 138.9270012 129.4194997  12.5559988 138.0870271 129.4568469  12.7783776
 142.3340012 130.7334997  15.8169988 142.5190012 130.3994997  16.6949988
 143.1800012 131.0424997  15.4949988 142.4737539 130.7296047  15.8935605
 144.6790012 132.0194997  15.0609988 145.3560012 131.3864997  14.8209988
 145.0010012 132.4204997  15.8679988 144.8151637 131.9871154  15.1372793
 135.4250012 132.5904997  12.9049988 134.7040012 133.0304997  12.4539988
 135.0590012 132.3394997  13.7539988 135.2769804 132.6167698  12.9579840
 137.8920012 132.1904997  11.9349988 137.0270012 132.2624997  12.3389988
 137.8370012 132.7374997  11.1509988 137.7662085 132.2742685  11.8843362
 142.6020012 132.0784997  11.1099988 142.1460012 132.6074997  10.4559988
 142.7650012 132.6814997  11.8359988 142.5615585 132.2324468  11.1185062
 134.8390012 131.2134997   9.8149988 134.8210012 130.7884997  10.6729988
 135.6440012 130.8954997   9.4069988 134.9453875 131.1123812   9.8771655
 136.9810012 129.9234997   8.4699988 136.7620012 129.0074997   8.6399988
 137.8050012 130.0634997   8.9359988 137.0624420 129.8170520   8.5562774
 139.5180012 130.3934997   9.3189988 139.7310012 129.5054997   9.0319988
 139.5820012 130.3594997  10.2729988 139.5558232 130.2673102   9.4087397
 143.0260012 116.0574997   8.4629988 142.3520012 115.4284997   8.7189988
 143.5900012 115.5734997   7.8599988 143.0099230 115.9058744   8.4165340
 135.3530012 114.6914997   6.2849988 134.5760012 114.4574997   5.7779988
 135.8830012 113.8944997   6.2939988 135.3182330 114.5516988   6.2167742
 134.1890012 114.4894997   2.0889988 134.6280012 115.1004997   1.4969988
 133.5560012 115.0274997   2.5629988 134.1634514 114.6459257   2.0720930
 139.9320012 114.6184997   6.0989988 140.8070012 115.0064997   6.0689988
 139.7960012 114.4034997   7.0209988 140.0333695 114.6425184   6.2196440
 134.0900012 130.4374997   2.9869988 133.4050012 130.3994997   2.3189988
 134.0940012 131.3504997   3.2749988 133.9968193 130.5557016   2.9345284
 136.0500012 116.4054997   0.5309988 136.5420012 115.7754997   0.0039988
 136.6740012 116.7014997   1.1949988 136.2015446 116.3593199   0.5485980
 141.0760012 116.6984997   2.9879988 141.2540012 116.0524997   3.6709988
 141.0230012 117.5324997   3.4559988 141.0931829 116.7227985   3.1445940
 142.9550012 131.6474997   1.3839988 143.8210012 132.0134997   1.2059988
 142.7080012 131.2074997   0.5699988 143.0402392 131.6381756   1.2496289
 135.3110012 115.2054997  15.8029988 134.9450012 114.4404997  16.2459988
 136.2240012 115.2344997  16.0899988 135.3842790 115.1047224  15.9024070
 137.2840012 114.5564997  17.3389988 138.1820012 114.2824997  17.1539988
 136.8970012 113.8134997  17.8029988 137.3546612 114.4185914  17.3763643
 135.9080012 131.3574997   0.0119988 135.6410012 131.6444997   0.8849988
 136.6800012 130.8114997   0.1639988 135.9757488 131.3230294   0.1521050
  12.4390012 142.7034997   6.2439988  12.5280012 143.6474997   6.1119988
  11.8010012 142.4284997   5.5859988  12.3649081 142.7954830   6.1369614
  11.3720012 141.9584997   9.6629988  11.3340012 141.3124997  10.3679988
  11.0500012 141.4924997   8.8919988  11.3232333 141.8069408   9.6552978
   3.7410012 141.5734997  11.2559988   3.7820012 140.9474997  11.9789988
   4.4440012 142.1974997  11.4379988   3.8416363 141.5721196  11.3796044
  15.0780012 144.8974997   7.9639988  14.6380012 144.1774997   8.4149988
  15.0650012 145.6184997   8.5939988  15.0160226 144.8963731   8.1108494
   1.2740012 139.6834997   5.1839988   0.8270012 140.5294997   5.1649988
   0.7130012 139.1034997   4.6679988   1.1369900 139.7209916   5.1116801
   1.9850012 141.8454997   7.3099988   2.1980012 141.0754997   7.8369988
   2.7230012 141.9344997   6.7059988   2.1138496 141.7521394   7.3005300
   9.7620012 144.3914997  10.0689988  10.0660012 143.7054997   9.4739988
  10.4830012 144.5094997  10.6869988   9.9010671 144.3136305  10.0711816
  18.4250012 135.9924997  10.9299988  18.4740012 136.6024997  11.6659988
  18.8500012 136.4534997  10.2069988  18.4891824 136.1383741  10.9330205
  12.9030012 138.7854997  10.3969988  13.0450012 137.8394997  10.4169988
  12.7960012 138.9924997   9.4679988  12.9079864 138.6839534  10.2742339
   6.0570012 136.8864997   7.6689988   6.1010012 137.7464997   7.2509988
   5.6000012 136.3344997   7.0349988   6.0012185 136.9295799   7.5260299
  13.7800012 137.0174997   6.0699988  14.4260012 136.6884997   6.6949988
  14.2900012 137.5354997   5.4469988  13.9374264 137.0424611   6.0713862
   2.6780012 139.2834997   8.4309988   3.3310012 138.7334997   8.8629988
   2.7020012 139.0094997   7.5139988   2.7706683 139.1711466   8.3662123
   7.8340012 140.8334997   7.6459988   8.4500012 140.3074997   8.1559988
   7.2480012 140.1934997   7.2429988   7.8390810 140.6749208   7.6613173
  18.8160012 137.4704997  13.1659988  18.1280012 138.1284997  13.0699988
  18.8320012 137.2734997  14.1019988  18.7238525 137.5340462  13.2794808
   4.8680012 135.8044997  11.7429988   4.6490012 136.3344997  10.9769988
   4.2000012 136.0314997  12.3899988   4.7477600 135.9076906  11.7256379
   7.4370012 143.4804997  12.0299988   6.6970012 144.0784997  12.1339988
   8.1510012 144.0344997  11.7149988   7.4322237 143.6372831  12.0016465
  15.5440012 136.3084997   8.0499988  15.3280012 135.5424997   8.5829988
  16.1990012 136.7804997   8.5629988  15.6030632 136.2675889   8.1922861
   4.4610012 137.6964997   9.6949988   5.0750012 138.3294997  10.0689988
   4.9730012 137.2244997   9.0389988   4.6142296 137.7192370   9.6574252
  15.8910012 135.0234997  11.7299988  15.1550012 135.6344997  11.6919988
  16.5740012 135.4384997  11.2029988  15.8826541 135.1631374  11.6535832
   8.8940012 133.1104997   9.1959988   8.7770012 132.1614997   9.1409988
   8.0390012 133.4424997   9.4689988   8.7623733 133.0255409   9.2253897
  16.6880012 144.9854997  13.9239988  16.8280012 144.3944997  13.1839988
  16.8550012 145.8584997  13.5669988  16.7296778 145.0226426  13.7746965
  11.1610012 141.9474997   3.6959988  10.4490012 142.4824997   3.3439988
  11.8520012 142.0034997   3.0359988  11.1570132 142.0282543   3.5586289
  11.2140012 140.4054997   0.7349988  11.9150012 140.4274997   1.3859988
  11.5170012 139.7774997   0.0789988  11.3507830 140.3236566   0.7353711
  18.5300012 141.3254997  11.9899988  17.8770012 142.0204997  12.0789988
  18.9950012 141.5354997  11.1799988  18.5035390 141.4489425  11.8926883
  14.5660012 142.1574997   4.6479988  13.8340012 142.3854997   5.2209988
  15.0140012 141.4434997   5.1029988  14.5263095 142.0922571   4.7879119
  14.4640012 140.3314997  13.7149988  14.5440012 141.0944997  14.2869988
  13.8620012 140.6104997  13.0249988  14.3935756 140.4737134  13.7000589
   6.2120012 142.7874997   6.5299988   5.8810012 142.4174997   5.7119988
   6.8000012 142.1174997   6.8769988   6.2461873 142.6461156   6.4648102
   6.5780012 141.5564997  10.1639988   7.1440012 141.6774997   9.4009988
   6.8970012 142.1934997  10.8029988   6.6985786 141.6591884  10.1460040
  13.4370012 141.3194997   2.3329988  14.0170012 141.4694997   3.0799988
  13.8510012 141.7904997   1.6099988  13.5722831 141.4036841   2.3374134
   4.3780012 142.1534997  14.1099988   4.4490012 142.8044997  14.8079988
   3.4880012 142.2564997  13.7749988   4.2673117 142.2565936  14.1602700
  17.1360012 133.0694997   2.1459988  16.2360012 133.2084997   2.4409988
  17.3880012 133.9004997   1.7439988  17.0468702 133.2009074   2.1320205
   5.2020012 141.8574997   4.1199988   4.9100012 142.6254997   3.6289988
   4.5280012 141.1974997   3.9569988   5.0709081 141.8734406   4.0307340
   1.2950012 144.2204997  12.9349988   0.7940012 144.1924997  12.1199988
   1.3000012 143.3144997  13.2439988   1.2271526 144.0942278  12.8652872
  16.3950012 139.1594997  15.9809988  15.9880012 139.6404997  15.2599988
  16.4360012 138.2544997  15.6729988  16.3448437 139.1029374  15.8406683
   6.1630012 134.0134997   9.9729988   5.3010012 133.9264997   9.5659988
   6.1400012 134.8694997  10.4009988   6.0420330 134.1172765   9.9751863
  10.8260012 133.7354997  13.3479988  11.2460012 133.3204997  14.1009988
   9.8930012 133.5574997  13.4649988  10.7573644 133.6545900  13.4669539
  14.1520012 137.4914997  14.2009988  13.6380012 137.3654997  14.9989988
  13.9970012 138.4034997  13.9569988  14.0606852 137.5976132  14.2772158
  14.9150012 142.3524997  -0.0370012  14.9570012 142.1294997  -0.9670012
  15.7640012 142.7514997   0.1529988  15.0355396 142.3759155  -0.1386373
  10.4870012 136.2284997   0.6329988  10.2340012 136.2474997   1.5559988
  10.2310012 135.3564997   0.3319988  10.4177790 136.1132437   0.7186263
   6.2540012 138.9794997  11.0679988   5.6120012 138.9384997  11.7769988
   6.2910012 139.9054997  10.8309988   6.1711324 139.0991559  11.1329824
   6.2510012 139.2004997   5.9799988   5.3580012 138.8594997   5.9219988
   6.7010012 138.8234997   5.2249988   6.1897305 139.1028484   5.8699177
  11.7860012 139.6164997   4.7969988  11.3770012 140.4314997   4.5059988
  12.5070012 139.4764997   4.1829988  11.8274537 139.7092018   4.6741342
  10.8880012 139.7914997  16.2849988  10.3260012 139.0874997  16.6059988
  11.7150012 139.6714997  16.7529988  10.9227095 139.6787883  16.3922330
  12.7910012 139.0624997   7.6109988  12.5960012 139.6674997   6.8959988
  12.9720012 138.2284997   7.1769988  12.7887614 139.0326300   7.4544405
   4.0040012 139.2994997  12.9349988   3.9660012 139.6994997  13.8039988
   3.5130012 138.4824997  13.0259988   3.9324684 139.2438069  13.0661059
   7.3700012 136.6734997  -0.2660012   6.9390012 136.2284997   0.4639988
   6.6520012 137.0454997  -0.7780012   7.2139438 136.6628940  -0.2353201
   0.6120012 136.4154997   6.7859988   1.2430012 136.3864997   7.5049988
   1.0610012 135.9904997   6.0559988   0.7590774 136.3540492   6.7856553
   1.8860012 137.1614997   2.2099988   2.3600012 137.7524997   1.6249988
   1.1690012 137.6924997   2.5569988   1.8539341 137.3140867   2.1768836
  12.0550012 140.7004997  12.2829988  12.3780012 140.0694997  11.6399988
  11.6150012 140.1654997  12.9429988  12.0396895 140.5418441  12.2842850
   8.8320012 136.6274997   7.0669988   7.9210012 136.6844997   7.3549988
   9.3380012 136.5674997   7.8769988   8.7755413 136.6271985   7.2160622
   3.6610012 138.2564997   5.8929988   2.7710012 138.3564997   5.5529988
   3.9570012 137.4144997   5.5469988   3.5792823 138.1563545   5.7997213
   7.3140012 138.2564997   3.5499988   8.2450012 138.3854997   3.7279988
   7.0990012 138.9264997   2.8999988   7.4124247 138.3646565   3.4865747
  13.2370012 135.8624997  10.3309988  12.5610012 135.9934997  10.9949988
  12.7520012 135.7074997   9.5209988  13.0787145 135.8594905  10.3124517
   5.9880012 139.4514997   1.1169988   5.4450012 139.0714997   0.4249988
   6.8210012 139.6454997   0.6879988   6.0264399 139.4258124   0.9644526
   4.1230012 144.0084997  16.2159988   4.8550012 144.2624997  16.7769988
   3.3430012 144.2124997  16.7309988   4.1178232 144.0709177  16.3625760
  10.1520012 139.4154997   8.9539988  10.7170012 138.8684997   8.4069988
  10.0050012 138.8934997   9.7419988  10.2092918 139.2702024   8.9858454
   5.1540012 135.5514997   5.3719988   4.8370012 134.6494997   5.3369988
   5.9360012 135.5534997   4.8189988   5.2162284 135.4281628   5.2924783
   8.7790012 137.8034997  11.3679988   7.9430012 138.2574997  11.4779988
   9.3030012 138.0794997  12.1199988   8.7354414 137.9029376  11.4847136
   9.3230012 144.0164997   3.0519988   8.5780012 143.5094997   2.7299988
   9.1890012 144.0654997   3.9989988   9.2028776 143.9536940   3.1358647
  16.4730012 143.1494997  11.8389988  17.1150012 143.6064997  11.2949988
  15.6430012 143.2624997  11.3759988  16.4485963 143.2272704  11.7020177
  13.2210012 136.8304997   1.2519988  12.2820012 136.9424997   1.0999988
  13.5180012 137.6874997   1.5579988  13.1327666 136.9616443   1.2725768
  10.8420012 144.2004997  14.2889988  10.4970012 143.8194997  15.0959988
  10.6420012 145.1344997  14.3609988  10.7678061 144.2745228  14.4090961
  13.9390012 138.6974997   2.9119988  14.8310012 138.5604997   3.2309988
  13.9960012 139.4884997   2.3759988  14.0686285 138.7856660   2.8831691
   4.4480012 143.3114997   8.8219988   5.1930012 143.3094997   8.2209988
   4.5260012 142.4884997   9.3039988   4.5605518 143.1999315   8.8048929
   1.4560012 141.7724997  14.1369988   1.6790012 141.3544997  14.9689988
   0.8540012 141.1594997  13.7139988   1.4051759 141.6324668  14.1937022
   8.4720012 141.2894997  16.3499988   8.1760012 141.1234997  15.4549988
   9.4040012 141.0694997  16.3389988   8.5574166 141.2370640  16.2260536
  18.8240012 138.9074997   2.6069988  18.2700012 138.5114997   1.9349988
  18.9240012 139.8174997   2.3289988  18.7617059 138.9763586   2.4774401
  18.7870012 144.7074997  15.4439988  17.9360012 144.9454997  15.0769988
  19.3780012 144.6904997  14.6909988  18.7502487 144.7378258  15.2918893
  14.2800012 142.5014997  10.0929988  13.3510012 142.2694997  10.0659988
  14.7310012 141.7244997   9.7629988  14.2139216 142.3647238  10.0446917
   2.5780012 141.6914997   0.8129988   3.1940012 142.3184997   1.1929988
   1.7160012 142.0074997   1.0849988   2.5457698 141.8199430   0.9017183
   8.2500012 144.4924997   5.8029988   8.0090012 145.4174997   5.8439988
   7.5090012 144.0334997   6.1989988   8.1168409 144.5571421   5.8621377
  12.3090012 144.7404997  11.8179988  11.8830012 144.5134997  12.6449988
  12.8890012 144.0024997  11.6359988  12.3291868 144.6095299  11.9065830
   3.0900012 136.5254997  13.6949988   2.1970012 136.8644997  13.6269988
   2.9910012 135.6704997  14.1129988   2.9544164 136.4562588  13.7422235
  15.3780012 144.3424997   3.1189988  15.1000012 143.6144997   3.6749988
  16.3050012 144.4614997   3.3239988  15.4653124 144.2588802   3.2228845
   3.9930012 143.6044997   2.3059988   3.3070012 143.9564997   2.8729988
   4.5150012 144.3674997   2.0589988   3.9696852 143.7558578   2.3502118
  11.8240012 136.2664997  12.5849988  12.5230012 136.3404997  13.2349988
  11.4430012 135.4024997  12.7389988  11.8681767 136.1597624  12.6948322
  12.6090012 135.9184997   3.6819988  12.8290012 136.3904997   2.8789988
  13.1670012 136.3134997   4.3519988  12.7144968 136.0364285   3.6627331
   9.8090012 137.6464997   4.5169988  10.6210012 138.1514997   4.5629988
   9.5640012 137.5014997   5.4309988   9.8870520 137.6960375   4.6468517
  10.3440012 138.6324997  13.7019988  10.4630012 139.2064997  14.4589988
  11.0000012 137.9444997  13.8159988  10.4489757 138.6181079  13.8210825
  10.6920012 134.7274997   5.4549988  10.3460012 135.3454997   6.0999988
  11.3510012 135.2284997   4.9739988  10.7337826 134.8795802   5.4780971
   6.3500012 135.7904997   2.1419988   6.2670012 136.6794997   2.4889988
   7.2400012 135.5254997   2.3739988   6.4589469 135.8761430   2.2207626
  16.5490012 136.5394997  14.5369988  15.6320012 136.8024997  14.4489988
  16.8840012 136.5364997  13.6399988  16.4689900 136.5750224  14.4037919
  15.1510012 140.2904997   8.6319988  14.3530012 139.8754997   8.3039988
  15.5960012 139.5994997   9.1229988  15.1019885 140.1403543   8.6534889
   2.9250012 138.8824997   0.3189988   2.8800012 139.8214997   0.4969988
   2.0370012 138.6464997   0.0489988   2.7988574 138.9791892   0.3068912
   3.7330012 133.6644997   8.9919988   3.5040012 133.7234997   8.0639988
   3.2900012 132.8724997   9.2979988   3.6418530 133.5655753   8.9064786
   1.8580012 144.0274997  17.4369988   2.0020012 143.1254997  17.1499988
   1.0860012 144.3134997  16.9489988   1.7733323 143.9428261  17.3317881
   6.2000012 144.3714997  -0.4310012   6.2640012 143.5774997   0.0999988
   6.8530012 144.2524997  -1.1210012   6.2970241 144.2467148  -0.4515683
   8.5140012 143.9974997  16.8689988   8.1850012 144.2684997  16.0119988
   8.6660012 143.0564997  16.7819988   8.4894809 143.9073862  16.7398244
  14.2480012 143.9134997  14.2529988  14.9940012 144.5014997  14.1329988
  13.4910012 144.4954997  14.3159988  14.2477554 144.0727011  14.2450907
   2.6910012 141.2274997  16.8569988   3.0990012 140.3704997  16.7359988
   2.4310012 141.2424997  17.7779988   2.7117568 141.1120807  16.9649588
   7.3490012 142.3434997   1.8749988   6.8890012 141.8594997   2.5609988
   7.6040012 141.6754997   1.2389988   7.3204902 142.1868731   1.8829334
   6.6380012 140.2364997  14.2309988   6.0200012 140.9114997  14.5109988
   6.9820012 140.5574997  13.3979988   6.5999615 140.3722721  14.1566581
   8.4200012 140.5864997   0.1369988   8.2400012 140.4324997  -0.7900012
   9.3700012 140.6944997   0.1819988   8.5237776 140.5800175   0.0161843
  11.6580012 142.7084997  17.5079988  12.6110012 142.7914997  17.4809988
  11.4970012 141.9964997  18.1279988  11.7666426 142.6236746  17.5880579
  17.8100012 142.9414997  -0.4170012  17.5360012 142.5164997  -1.2300012
  17.8490012 143.8724997  -0.6340012  17.7777699 143.0092484  -0.5576390
   6.9770012 137.5914997  15.3129988   7.1270012 136.8624997  14.7109988
   6.9800012 138.3684997  14.7539988   6.9979302 137.5967851  15.1550692
   7.3900012 135.9614997  12.8059988   7.9260012 136.4124997  12.1539988
   6.5380012 135.8534997  12.3829988   7.3482178 136.0086390  12.6595756
   8.9720012 141.4004997  13.0449988   9.7220012 141.2444997  12.4719988
   8.6330012 142.2524997  12.7699988   9.0288921 141.4942968  12.9293561
  13.3870012 139.2154997  18.0739988  13.5800012 138.2844997  17.9619988
  14.2450012 139.6404997  18.0639988  13.5293020 139.1456389  18.0573361
  14.7040012 142.0044997  16.1509988  14.4230012 142.7134997  15.5739988
  15.6470012 141.9314997  15.9999988  14.7929027 142.0917646  16.0515551
   5.4560012 138.7894997  17.2249988   4.6890012 138.2574997  17.0149988
   6.1350012 138.4794997  16.6249988   5.4427022 138.6747506  17.1151648
   8.1960012 133.4174997  13.2369988   8.0970012 134.3644997  13.1319988
   7.4530012 133.0454997  12.7619988   8.0820564 133.4965902  13.1584560
   9.4600012 137.7394997  16.8009988   9.2240012 137.5194997  17.7029988
   8.6760012 137.5324997  16.2909988   9.3218628 137.6814760  16.8553932
  12.1750012 136.8664997  15.8769988  11.2280012 136.8984997  16.0089988
  12.4880012 136.2414997  16.5299988  12.0875475 136.7863207  15.9834455
  13.8090012 135.5004997  17.8819988  13.7130012 134.5484997  17.8759988
  13.4880012 135.7694997  18.7419988  13.7524070 135.4064035  17.9975441
   3.6360012 136.7104997  16.9289988   3.8480012 136.0034997  16.3189988
   3.5250012 136.2724997  17.7729988   3.6499721 136.5547084  16.9596843
   8.4170012 132.7114997  15.9089988   9.1290012 132.0714997  15.8949988
   8.3160012 132.9784997  14.9949988   8.5007939 132.6599938  15.7835650
   8.7710012 134.3944997  17.9619988   8.6390012 133.9184997  17.1419988
   8.1720012 135.1384997  17.9069988   8.6719071 134.4299618  17.8422886
  18.2680012 143.8104997   3.5579988  19.1180012 144.2314997   3.6849988
  18.2740012 143.0704997   4.1649988  18.3851372 143.7680803   3.6574344
  18.6630012 141.8634997   5.3819988  17.9360012 141.3844997   5.7789988
  19.2440012 142.0694997   6.1139988  18.6419375 141.8257090   5.5354129
  18.4220012 144.6484997  10.3289988  19.2550012 144.2704997  10.0489988
  18.5340012 145.5914997  10.2099988  18.5512647 144.7242218  10.2745487
  18.9310012 141.7644997   1.7729988  18.4090012 142.1214997   1.0539988
  18.8980012 142.4394997   2.4509988  18.8551634 141.9045413   1.7663145
  17.2800012 139.0044997   0.3239988  17.3760012 139.6714997  -0.3570012
  17.1400012 138.1884997  -0.1580012  17.2742135 138.9854500   0.1658491
  16.4490012 140.3844997   5.9449988  16.2990012 139.4394997   5.9239988
  16.0960012 140.6654997   6.7879988  16.3806625 140.2930441   6.0562346
   1.4850012 142.4624997   9.9549988   1.6690012 142.3804997   9.0189988
   2.3340012 142.3384997  10.3789988   1.6250139 142.4345003   9.8841455
  17.3060012 142.3544997  15.5829988  17.8890012 141.6204997  15.7749988
  17.8700012 143.1264997  15.6299988  17.4619769 142.3584227  15.6156159
  18.8020012 140.2574997  16.2679988  17.9390012 139.8784997  16.1019988
  19.4070012 139.5184997  16.1939988  18.7655979 140.1058023  16.2352817
  16.5270012 136.4124997  -0.5590012  17.1380012 136.0414997   0.0779988
  15.6910012 135.9914997  -0.3630012  16.4975032 136.3047554  -0.4452965
  16.1600012 137.9674997   4.4069988  16.4400012 137.0604997   4.5309988
  16.9190012 138.4014997   4.0179988  16.3009277 137.9020942   4.3713682
  16.7720012 138.5484997   9.8429988  17.7050012 138.7604997   9.8089988
  16.5370012 138.6504997  10.7649988  16.8678036 138.5912769   9.9629976
  16.8010012 139.2854997  12.6189988  15.9580012 139.5534997  12.9849988
  17.2430012 140.1074997  12.4079988  16.7454158 139.4333291  12.6405491
   1.0820012 137.7334997  16.0959988   2.0020012 137.6114997  16.3319988
   0.6330012 136.9834997  16.4849988   1.1471580 137.6153727  16.1809006
  19.0840012 133.2654997  17.9719988  19.4340012 132.6114997  17.3669988
  19.2310012 134.1024997  17.5329988  19.1518419 133.2891591  17.8297118
  16.7730012 135.2304997   4.4549988  16.9560012 134.7814997   5.2809988
  16.1740012 134.6454997   3.9919988  16.7170202 135.0899975   4.5053275
   2.3030012 136.0454997   8.9869988   2.7490012 135.2534997   9.2889988
   2.7700012 136.7614997   9.4179988   2.4270172 136.0340624   9.0864820
   0.6070012 139.0444997  10.0559988   1.0990012 138.8234997   9.2649988
   0.9700012 139.8854997  10.3369988   0.7233126 139.1278357   9.9857531
  18.6040012 135.3744997  16.3219988  17.6860012 135.6454997  16.2859988
  18.7270012 134.8394997  15.5369988  18.4951066 135.3392892  16.2110487
  18.6400012 135.2974997   0.9829988  19.0520012 134.5764997   0.5079988
  19.3220012 135.9674997   1.0419988  18.7885885 135.2892368   0.9258915
   0.9210012 135.3024997   4.1099988  -0.0039988 135.5114997   3.9809988
   1.3750012 135.7864997   3.4209988   0.8557368 135.3965993   3.9991226
   0.8850012 134.0404997  12.4549988   0.2200012 133.7944997  13.0979988
   0.4420012 134.6624997  11.8769988   0.7340956 134.0908632  12.4649352
  17.6040012 133.4644997  14.1409988  16.7920012 133.7894997  13.7529988
  17.8370012 132.7044997  13.6079988  17.5243423 133.4062436  14.0158253
  11.0340012 134.9134997   8.4629988  10.3600012 134.2844997   8.7189988
  11.5980012 134.4294997   7.8599988  11.0179230 134.7618744   8.4165340
  16.1770012 133.0214997   8.5759988  16.7810012 133.5684997   8.0739988
  15.3070012 133.3404997   8.3359988  16.1421241 133.1395806   8.4747654
  17.9040012 134.1594997   6.9089988  18.5160012 133.6454997   6.3829988
  18.2860012 135.0374997   6.9329988  18.0394540 134.2077140   6.8401830
   3.3610012 133.5474997   6.2849988   2.5840012 133.3134997   5.7779988
   3.8910012 132.7504997   6.2939988   3.3262330 133.4076988   6.2167742
   2.1970012 133.3454997   2.0889988   2.6360012 133.9564997   1.4969988
   1.5640012 133.8834997   2.5629988   2.1714514 133.5019257   2.0720930
   7.9400012 133.4744997   6.0989988   8.8150012 133.8624997   6.0689988
   7.8040012 133.2594997   7.0209988   8.0413695 133.4985184   6.2196440
  13.4970012 133.5044997   7.7479988  13.5730012 133.5994997   6.7979988
  13.2220012 132.5964997   7.8769988  13.4702321 133.3947867   7.6355079
  14.8500012 133.5304997   3.4399988  14.1480012 134.1454997   3.2309988
  14.4060012 132.6924997   3.5709988  14.6936330 133.5015783   3.4290328
   4.0580012 135.2614997   0.5309988   4.5500012 134.6314997   0.0039988
   4.6820012 135.5574997   1.1949988   4.2095446 135.2153199   0.5485980
   9.0840012 135.5544997   2.9879988   9.2620012 134.9084997   3.6709988
   9.0310012 136.3884997   3.4559988   9.1011829 135.5787985   3.1445940
   3.3190012 134.0614997  15.8029988   2.9530012 133.2964997  16.2459988
   4.2320012 134.0904997  16.0899988   3.3922790 133.9607224  15.9024070
   5.2920012 133.4124997  17.3389988   6.1900012 133.1384997  17.1539988
   4.9050012 132.6694997  17.8029988   5.3626612 133.2745914  17.3763643
  13.7130012 132.7444997  17.5209988  13.7900012 132.3184997  18.3749988
  14.6070012 132.7584997  17.1779988  13.8443428 132.6880880  17.5915310
  31.2950012 142.7034997   6.2439988  31.3840012 143.6474997   6.1119988
  30.6570012 142.4284997   5.5859988  31.2209081 142.7954830   6.1369614
  30.2280012 141.9584997   9.6629988  30.1900012 141.3124997  10.3679988
  29.9060012 141.4924997   8.8919988  30.1792333 141.8069408   9.6552978
  22.5970012 141.5734997  11.2559988  22.6380012 140.9474997  11.9789988
  23.3000012 142.1974997  11.4379988  22.6976363 141.5721196  11.3796044
  33.9340012 144.8974997   7.9639988  33.4940012 144.1774997   8.4149988
  33.9210012 145.6184997   8.5939988  33.8720226 144.8963731   8.1108494
  20.1300012 139.6834997   5.1839988  19.6830012 140.5294997   5.1649988
  19.5690012 139.1034997   4.6679988  19.9929900 139.7209916   5.1116801
  20.8410012 141.8454997   7.3099988  21.0540012 141.0754997   7.8369988
  21.5790012 141.9344997   6.7059988  20.9698496 141.7521394   7.3005300
  28.6180012 144.3914997  10.0689988  28.9220012 143.7054997   9.4739988
  29.3390012 144.5094997  10.6869988  28.7570671 144.3136305  10.0711816
  37.2810012 135.9924997  10.9299988  37.3300012 136.6024997  11.6659988
  37.7060012 136.4534997  10.2069988  37.3451824 136.1383741  10.9330205
  31.7590012 138.7854997  10.3969988  31.9010012 137.8394997  10.4169988
  31.6520012 138.9924997   9.4679988  31.7639864 138.6839534  10.2742339
  24.9130012 136.8864997   7.6689988  24.9570012 137.7464997   7.2509988
  24.4560012 136.3344997   7.0349988  24.8572185 136.9295799   7.5260299
  32.6360012 137.0174997   6.0699988  33.2820012 136.6884997   6.6949988
  33.1460012 137.5354997   5.4469988  32.7934264 137.0424611   6.0713862
  21.5340012 139.2834997   8.4309988  22.1870012 138.7334997   8.8629988
  21.5580012 139.0094997   7.5139988  21.6266683 139.1711466   8.3662123
  26.6900012 140.8334997   7.6459988  27.3060012 140.3074997   8.1559988
  26.1040012 140.1934997   7.2429988  26.6950810 140.6749208   7.6613173
  37.6720012 137.4704997  13.1659988  36.9840012 138.1284997  13.0699988
  37.6880012 137.2734997  14.1019988  37.5798525 137.5340462  13.2794808
  23.7240012 135.8044997  11.7429988  23.5050012 136.3344997  10.9769988
  23.0560012 136.0314997  12.3899988  23.6037600 135.9076906  11.7256379
  26.2930012 143.4804997  12.0299988  25.5530012 144.0784997  12.1339988
  27.0070012 144.0344997  11.7149988  26.2882237 143.6372831  12.0016465
  34.4000012 136.3084997   8.0499988  34.1840012 135.5424997   8.5829988
  35.0550012 136.7804997   8.5629988  34.4590632 136.2675889   8.1922861
  23.3170012 137.6964997   9.6949988  23.9310012 138.3294997  10.0689988
  23.8290012 137.2244997   9.0389988  23.4702296 137.7192370   9.6574252
  34.7470012 135.0234997  11.7299988  34.0110012 135.6344997  11.6919988
  35.4300012 135.4384997  11.2029988  34.7386541 135.1631374  11.6535832
  27.7500012 133.1104997   9.1959988  27.6330012 132.1614997   9.1409988
  26.8950012 133.4424997   9.4689988  27.6183733 133.0255409   9.2253897
  35.5440012 144.9854997  13.9239988  35.6840012 144.3944997  13.1839988
  35.7110012 145.8584997  13.5669988  35.5856778 145.0226426  13.7746965
  30.0170012 141.9474997   3.6959988  29.3050012 142.4824997   3.3439988
  30.7080012 142.0034997   3.0359988  30.0130132 142.0282543   3.5586289
  30.0700012 140.4054997   0.7349988  30.7710012 140.4274997   1.3859988
  30.3730012 139.7774997   0.0789988  30.2067830 140.3236566   0.7353711
  37.3860012 141.3254997  11.9899988  36.7330012 142.0204997  12.0789988
  37.8510012 141.5354997  11.1799988  37.3595390 141.4489425  11.8926883
  33.4220012 142.1574997   4.6479988  32.6900012 142.3854997   5.2209988
  33.8700012 141.4434997   5.1029988  33.3823095 142.0922571   4.7879119
  33.3200012 140.3314997  13.7149988  33.4000012 141.0944997  14.2869988
  32.7180012 140.6104997  13.0249988  33.2495756 140.4737134  13.7000589
  25.0680012 142.7874997   6.5299988  24.7370012 142.4174997   5.7119988
  25.6560012 142.1174997   6.8769988  25.1021873 142.6461156   6.4648102
  25.4340012 141.5564997  10.1639988  26.0000012 141.6774997   9.4009988
  25.7530012 142.1934997  10.8029988  25.5545786 141.6591884  10.1460040
  32.2930012 141.3194997   2.3329988  32.8730012 141.4694997   3.0799988
  32.7070012 141.7904997   1.6099988  32.4282830 141.4036841   2.3374134
  23.2340012 142.1534997  14.1099988  23.3050012 142.8044997  14.8079988
  22.3440012 142.2564997  13.7749988  23.1233117 142.2565936  14.1602700
  35.9920012 133.0694997   2.1459988  35.0920012 133.2084997   2.4409988
  36.2440012 133.9004997   1.7439988  35.9028702 133.2009074   2.1320205
  24.0580012 141.8574997   4.1199988  23.7660012 142.6254997   3.6289988
  23.3840012 141.1974997   3.9569988  23.9269081 141.8734406   4.0307340
  20.1510012 144.2204997  12.9349988  19.6500012 144.1924997  12.1199988
  20.1560012 143.3144997  13.2439988  20.0831526 144.0942278  12.8652872
  35.2510012 139.1594997  15.9809988  34.8440012 139.6404997  15.2599988
  35.2920012 138.2544997  15.6729988  35.2008437 139.1029374  15.8406683
  25.0190012 134.0134997   9.9729988  24.1570012 133.9264997   9.5659988
  24.9960012 134.8694997  10.4009988  24.8980330 134.1172765   9.9751863
  29.6820012 133.7354997  13.3479988  30.1020012 133.3204997  14.1009988
  28.7490012 133.5574997  13.4649988  29.6133644 133.6545900  13.4669539
  33.0080012 137.4914997  14.2009988  32.4940012 137.3654997  14.9989988
  32.8530012 138.4034997  13.9569988  32.9166852 137.5976132  14.2772158
  33.7710012 142.3524997  -0.0370012  33.8130012 142.1294997  -0.9670012
  34.6200012 142.7514997   0.1529988  33.8915396 142.3759155  -0.1386373
  29.3430012 136.2284997   0.6329988  29.0900012 136.2474997   1.5559988
  29.0870012 135.3564997   0.3319988  29.2737790 136.1132437   0.7186263
  25.1100012 138.9794997  11.0679988  24.4680012 138.9384997  11.7769988
  25.1470012 139.9054997  10.8309988  25.0271324 139.0991559  11.1329824
  25.1070012 139.2004997   5.9799988  24.2140012 138.8594997   5.9219988
  25.5570012 138.8234997   5.2249988  25.0457305 139.1028484   5.8699177
  30.6420012 139.6164997   4.7969988  30.2330012 140.4314997   4.5059988
  31.3630012 139.4764997   4.1829988  30.6834537 139.7092018   4.6741342
  29.7440012 139.7914997  16.2849988  29.1820012 139.0874997  16.6059988
  30.5710012 139.6714997  16.7529988  29.7787095 139.6787883  16.3922330
  31.6470012 139.0624997   7.6109988  31.4520012 139.6674997   6.8959988
  31.8280012 138.2284997   7.1769988  31.6447614 139.0326300   7.4544405
  22.8600012 139.2994997  12.9349988  22.8220012 139.6994997  13.8039988
  22.3690012 138.4824997  13.0259988  22.7884684 139.2438069  13.0661059
  26.2260012 136.6734997  -0.2660012  25.7950012 136.2284997   0.4639988
  25.5080012 137.0454997  -0.7780012  26.0699438 136.6628940  -0.2353201
  19.4680012 136.4154997   6.7859988  20.0990012 136.3864997   7.5049988
  19.9170012 135.9904997   6.0559988  19.6150774 136.3540492   6.7856553
  20.7420012 137.1614997   2.2099988  21.2160012 137.7524997   1.6249988
  20.0250012 137.6924997   2.5569988  20.7099341 137.3140867   2.1768836
  30.9110012 140.7004997  12.2829988  31.2340012 140.0694997  11.6399988
  30.4710012 140.1654997  12.9429988  30.8956895 140.5418441  12.2842850
  27.6880012 136.6274997   7.0669988  26.7770012 136.6844997   7.3549988
  28.1940012 136.5674997   7.8769988  27.6315413 136.6271985   7.2160622
  22.5170012 138.2564997   5.8929988  21.6270012 138.3564997   5.5529988
  22.8130012 137.4144997   5.5469988  22.4352823 138.1563545   5.7997213
  26.1700012 138.2564997   3.5499988  27.1010012 138.3854997   3.7279988
  25.9550012 138.9264997   2.8999988  26.2684247 138.3646565   3.4865747
  32.0930012 135.8624997  10.3309988  31.4170012 135.9934997  10.9949988
  31.6080012 135.7074997   9.5209988  31.9347145 135.8594905  10.3124517
  24.8440012 139.4514997   1.1169988  24.3010012 139.0714997   0.4249988
  25.6770012 139.6454997   0.6879988  24.8824399 139.4258124   0.9644526
  22.9790012 144.0084997  16.2159988  23.7110012 144.2624997  16.7769988
  22.1990012 144.2124997  16.7309988  22.9738232 144.0709177  16.3625760
  29.0080012 139.4154997   8.9539988  29.5730012 138.8684997   8.4069988
  28.8610012 138.8934997   9.7419988  29.0652918 139.2702024   8.9858454
  24.0100012 135.5514997   5.3719988  23.6930012 134.6494997   5.3369988
  24.7920012 135.5534997   4.8189988  24.0722284 135.4281628   5.2924783
  27.6350012 137.8034997  11.3679988  26.7990012 138.2574997  11.4779988
  28.1590012 138.0794997  12.1199988  27.5914414 137.9029376  11.4847136
  28.1790012 144.0164997   3.0519988  27.4340012 143.5094997   2.7299988
  28.0450012 144.0654997   3.9989988  28.0588776 143.9536940   3.1358647
  35.3290012 143.1494997  11.8389988  35.9710012 143.6064997  11.2949988
  34.4990012 143.2624997  11.3759988  35.3045963 143.2272704  11.7020177
  32.0770012 136.8304997   1.2519988  31.1380012 136.9424997   1.0999988
  32.3740012 137.6874997   1.5579988  31.9887666 136.9616443   1.2725768
  29.6980012 144.2004997  14.2889988  29.3530012 143.8194997  15.0959988
  29.4980012 145.1344997  14.3609988  29.6238061 144.2745228  14.4090961
  32.7950012 138.6974997   2.9119988  33.6870012 138.5604997   3.2309988
  32.8520012 139.4884997   2.3759988  32.9246285 138.7856660   2.8831691
  23.3040012 143.3114997   8.8219988  24.0490012 143.3094997   8.2209988
  23.3820012 142.4884997   9.3039988  23.4165518 143.1999315   8.8048929
  20.3120012 141.7724997  14.1369988  20.5350012 141.3544997  14.9689988
  19.7100012 141.1594997  13.7139988  20.2611759 141.6324668  14.1937022
  27.3280012 141.2894997  16.3499988  27.0320012 141.1234997  15.4549988
  28.2600012 141.0694997  16.3389988  27.4134166 141.2370640  16.2260536
  37.6800012 138.9074997   2.6069988  37.1260012 138.5114997   1.9349988
  37.7800012 139.8174997   2.3289988  37.6177059 138.9763586   2.4774401
  37.6430012 144.7074997  15.4439988  36.7920012 144.9454997  15.0769988
  38.2340012 144.6904997  14.6909988  37.6062487 144.7378258  15.2918893
  33.1360012 142.5014997  10.0929988  32.2070012 142.2694997  10.0659988
  33.5870012 141.7244997   9.7629988  33.0699216 142.3647238  10.0446917
  21.4340012 141.6914997   0.8129988  22.0500012 142.3184997   1.1929988
  20.5720012 142.0074997   1.0849988  21.4017698 141.8199430   0.9017183
  27.1060012 144.4924997   5.8029988  26.8650012 145.4174997   5.8439988
  26.3650012 144.0334997   6.1989988  26.9728409 144.5571421   5.8621377
  31.1650012 144.7404997  11.8179988  30.7390012 144.5134997  12.6449988
  31.7450012 144.0024997  11.6359988  31.1851868 144.6095299  11.9065830
  21.9460012 136.5254997  13.6949988  21.0530012 136.8644997  13.6269988
  21.8470012 135.6704997  14.1129988  21.8104164 136.4562588  13.7422235
  34.2340012 144.3424997   3.1189988  33.9560012 143.6144997   3.6749988
  35.1610012 144.4614997   3.3239988  34.3213124 144.2588802   3.2228845
  22.8490012 143.6044997   2.3059988  22.1630012 143.9564997   2.8729988
  23.3710012 144.3674997   2.0589988  22.8256852 143.7558578   2.3502118
  30.6800012 136.2664997  12.5849988  31.3790012 136.3404997  13.2349988
  30.2990012 135.4024997  12.7389988  30.7241767 136.1597624  12.6948322
  31.4650012 135.9184997   3.6819988  31.6850012 136.3904997   2.8789988
  32.0230012 136.3134997   4.3519988  31.5704968 136.0364285   3.6627331
  28.6650012 137.6464997   4.5169988  29.4770012 138.1514997   4.5629988
  28.4200012 137.5014997   5.4309988  28.7430520 137.6960375   4.6468517
  29.2000012 138.6324997  13.7019988  29.3190012 139.2064997  14.4589988
  29.8560012 137.9444997  13.8159988  29.3049757 138.6181079  13.8210825
  29.5480012 134.7274997   5.4549988  29.2020012 135.3454997   6.0999988
  30.2070012 135.2284997   4.9739988  29.5897826 134.8795802   5.4780971
  25.2060012 135.7904997   2.1419988  25.1230012 136.6794997   2.4889988
  26.0960012 135.5254997   2.3739988  25.3149469 135.8761430   2.2207626
  35.4050012 136.5394997  14.5369988  34.4880012 136.8024997  14.4489988
  35.7400012 136.5364997  13.6399988  35.3249900 136.5750224  14.4037919
  34.0070012 140.2904997   8.6319988  33.2090012 139.8754997   8.3039988
  34.4520012 139.5994997   9.1229988  33.9579885 140.1403543   8.6534889
  21.7810012 138.8824997   0.3189988  21.7360012 139.8214997   0.4969988
  20.8930012 138.6464997   0.0489988  21.6548574 138.9791892   0.3068912
  22.5890012 133.6644997   8.9919988  22.3600012 133.7234997   8.0639988
  22.1460012 132.8724997   9.2979988  22.4978530 133.5655753   8.9064786
  20.7140012 144.0274997  17.4369988  20.8580012 143.1254997  17.1499988
  19.9420012 144.3134997  16.9489988  20.6293323 143.9428261  17.3317881
  25.0560012 144.3714997  -0.4310012  25.1200012 143.5774997   0.0999988
  25.7090012 144.2524997  -1.1210012  25.1530241 144.2467148  -0.4515683
  27.3700012 143.9974997  16.8689988  27.0410012 144.2684997  16.0119988
  27.5220012 143.0564997  16.7819988  27.3454809 143.9073862  16.7398244
  33.1040012 143.9134997  14.2529988  33.8500012 144.5014997  14.1329988
  32.3470012 144.4954997  14.3159988  33.1037554 144.0727011  14.2450907
  21.5470012 141.2274997  16.8569988  21.9550012 140.3704997  16.7359988
  21.2870012 141.2424997  17.7779988  21.5677568 141.1120807  16.9649588
  26.2050012 142.3434997   1.8749988  25.7450012 141.8594997   2.5609988
  26.4600012 141.6754997   1.2389988  26.1764902 142.1868731   1.8829334
  25.4940012 140.2364997  14.2309988  24.8760012 140.9114997  14.5109988
  25.8380012 140.5574997  13.3979988  25.4559615 140.3722721  14.1566581
  27.2760012 140.5864997   0.1369988  27.0960012 140.4324997  -0.7900012
  28.2260012 140.6944997   0.1819988  27.3797776 140.5800175   0.0161843
  30.5140012 142.7084997  17.5079988  31.4670012 142.7914997  17.4809988
  30.3530012 141.9964997  18.1279988  30.6226426 142.6236746  17.5880579
  36.6660012 142.9414997  -0.4170012  36.3920012 142.5164997  -1.2300012
  36.7050012 143.8724997  -0.6340012  36.6337699 143.0092484  -0.5576390
  25.8330012 137.5914997  15.3129988  25.9830012 136.8624997  14.7109988
  25.8360012 138.3684997  14.7539988  25.8539302 137.5967851  15.1550692
  26.2460012 135.9614997  12.8059988  26.7820012 136.4124997  12.1539988
  25.3940012 135.8534997  12.3829988  26.2042178 136.0086390  12.6595756
  27.8280012 141.4004997  13.0449988  28.5780012 141.2444997  12.4719988
  27.4890012 142.2524997  12.7699988  27.8848921 141.4942968  12.9293561
  32.2430012 139.2154997  18.0739988  32.4360012 138.2844997  17.9619988
  33.1010012 139.6404997  18.0639988  32.3853020 139.1456389  18.0573361
  33.5600012 142.0044997  16.1509988  33.2790012 142.7134997  15.5739988
  34.5030012 141.9314997  15.9999988  33.6489027 142.0917646  16.0515551
  24.3120012 138.7894997  17.2249988  23.5450012 138.2574997  17.0149988
  24.9910012 138.4794997  16.6249988  24.2987022 138.6747506  17.1151648
  27.0520012 133.4174997  13.2369988  26.9530012 134.3644997  13.1319988
  26.3090012 133.0454997  12.7619988  26.9380564 133.4965902  13.1584560
  28.3160012 137.7394997  16.8009988  28.0800012 137.5194997  17.7029988
  27.5320012 137.5324997  16.2909988  28.1778628 137.6814760  16.8553932
  31.0310012 136.8664997  15.8769988  30.0840012 136.8984997  16.0089988
  31.3440012 136.2414997  16.5299988  30.9435475 136.7863207  15.9834455
  32.6650012 135.5004997  17.8819988  32.5690012 134.5484997  17.8759988
  32.3440012 135.7694997  18.7419988  32.6084070 135.4064035  17.9975441
  22.4920012 136.7104997  16.9289988  22.7040012 136.0034997  16.3189988
  22.3810012 136.2724997  17.7729988  22.5059721 136.5547084  16.9596843
  27.2730012 132.7114997  15.9089988  27.9850012 132.0714997  15.8949988
  27.1720012 132.9784997  14.9949988  27.3567939 132.6599938  15.7835650
  27.6270012 134.3944997  17.9619988  27.4950012 133.9184997  17.1419988
  27.0280012 135.1384997  17.9069988  27.5279071 134.4299618  17.8422886
  37.1240012 143.8104997   3.5579988  37.9740012 144.2314997   3.6849988
  37.1300012 143.0704997   4.1649988  37.2411372 143.7680803   3.6574344
  37.5190012 141.8634997   5.3819988  36.7920012 141.3844997   5.7789988
  38.1000012 142.0694997   6.1139988  37.4979375 141.8257090   5.5354129
  37.2780012 144.6484997  10.3289988  38.1110012 144.2704997  10.0489988
  37.3900012 145.5914997  10.2099988  37.4072647 144.7242218  10.2745487
  37.7870012 141.7644997   1.7729988  37.2650012 142.1214997   1.0539988
  37.7540012 142.4394997   2.4509988  37.7111634 141.9045413   1.7663145
  36.1360012 139.0044997   0.3239988  36.2320012 139.6714997  -0.3570012
  35.9960012 138.1884997  -0.1580012  36.1302135 138.9854500   0.1658491
  35.3050012 140.3844997   5.9449988  35.1550012 139.4394997   5.9239988
  34.9520012 140.6654997   6.7879988  35.2366625 140.2930441   6.0562346
  20.3410012 142.4624997   9.9549988  20.5250012 142.3804997   9.0189988
  21.1900012 142.3384997  10.3789988  20.4810139 142.4345003   9.8841455
  36.1620012 142.3544997  15.5829988  36.7450012 141.6204997  15.7749988
  36.7260012 143.1264997  15.6299988  36.3179769 142.3584227  15.6156159
  37.6580012 140.2574997  16.2679988  36.7950012 139.8784997  16.1019988
  38.2630012 139.5184997  16.1939988  37.6215979 140.1058023  16.2352817
  35.3830012 136.4124997  -0.5590012  35.9940012 136.0414997   0.0779988
  34.5470012 135.9914997  -0.3630012  35.3535032 136.3047554  -0.4452965
  35.0160012 137.9674997   4.4069988  35.2960012 137.0604997   4.5309988
  35.7750012 138.4014997   4.0179988  35.1569277 137.9020942   4.3713682
  35.6280012 138.5484997   9.8429988  36.5610012 138.7604997   9.8089988
  35.3930012 138.6504997  10.7649988  35.7238036 138.5912769   9.9629976
  35.6570012 139.2854997  12.6189988  34.8140012 139.5534997  12.9849988
  36.0990012 140.1074997  12.4079988  35.6014158 139.4333291  12.6405491
  19.9380012 137.7334997  16.0959988  20.8580012 137.6114997  16.3319988
  19.4890012 136.9834997  16.4849988  20.0031580 137.6153727  16.1809006
  37.9400012 133.2654997  17.9719988  38.2900012 132.6114997  17.3669988
  38.0870012 134.1024997  17.5329988  38.0078419 133.2891591  17.8297118
  35.6290012 135.2304997   4.4549988  35.8120012 134.7814997   5.2809988
  35.0300012 134.6454997   3.9919988  35.5730202 135.0899975   4.5053275
  21.1590012 136.0454997   8.9869988  21.6050012 135.2534997   9.2889988
  21.6260012 136.7614997   9.4179988  21.2830172 136.0340624   9.0864820
  19.4630012 139.0444997  10.0559988  19.9550012 138.8234997   9.2649988
  19.8260012 139.8854997  10.3369988  19.5793126 139.1278357   9.9857531
  37.4600012 135.3744997  16.3219988  36.5420012 135.6454997  16.2859988
  37.5830012 134.8394997  15.5369988  37.3511066 135.3392892  16.2110487
  37.4960012 135.2974997   0.9829988  37.9080012 134.5764997   0.5079988
  38.1780012 135.9674997   1.0419988  37.6445885 135.2892368   0.9258915
  19.7770012 135.3024997   4.1099988  18.8520012 135.5114997   3.9809988
  20.2310012 135.7864997   3.4209988  19.7117368 135.3965993   3.9991226
  19.7410012 134.0404997  12.4549988  19.0760012 133.7944997  13.0979988
  19.2980012 134.6624997  11.8769988  19.5900956 134.0908632  12.4649352
  36.4600012 133.4644997  14.1409988  35.6480012 133.7894997  13.7529988
  36.6930012 132.7044997  13.6079988  36.3803423 133.4062436  14.0158253
  29.8900012 134.9134997   8.4629988  29.2160012 134.2844997   8.7189988
  30.4540012 134.4294997   7.8599988  29.8739230 134.7618744   8.4165340
  35.0330012 133.0214997   8.5759988  35.6370012 133.5684997   8.0739988
  34.1630012 133.3404997   8.3359988  34.9981241 133.1395806   8.4747654
  36.7600012 134.1594997   6.9089988  37.3720012 133.6454997   6.3829988
  37.1420012 135.0374997   6.9329988  36.8954540 134.2077140   6.8401830
  22.2170012 133.5474997   6.2849988  21.4400012 133.3134997   5.7779988
  22.7470012 132.7504997   6.2939988  22.1822330 133.4076988   6.2167742
  21.0530012 133.3454997   2.0889988  21.4920012 133.9564997   1.4969988
  20.4200012 133.8834997   2.5629988  21.0274514 133.5019257   2.0720930
  26.7960012 133.4744997   6.0989988  27.6710012 133.8624997   6.0689988
  26.6600012 133.2594997   7.0209988  26.8973695 133.4985184   6.2196440
  32.3530012 133.5044997   7.7479988  32.4290012 133.5994997   6.7979988
  32.0780012 132.5964997   7.8769988  32.3262321 133.3947867   7.6355079
  33.7060012 133.5304997   3.4399988  33.0040012 134.1454997   3.2309988
  33.2620012 132.6924997   3.5709988  33.5496330 133.5015783   3.4290328
  22.9140012 135.2614997   0.5309988  23.4060012 134.6314997   0.0039988
  23.5380012 135.5574997   1.1949988  23.0655446 135.2153199   0.5485980
  27.9400012 135.5544997   2.9879988  28.1180012 134.9084997   3.6709988
  27.8870012 136.3884997   3.4559988  27.9571829 135.5787985   3.1445940
  22.1750012 134.0614997  15.8029988  21.8090012 133.2964997  16.2459988
  23.0880012 134.0904997  16.0899988  22.2482790 133.9607224  15.9024070
  24.1480012 133.4124997  17.3389988  25.0460012 133.1384997  17.1539988
  23.7610012 132.6694997  17.8029988  24.2186612 133.2745914  17.3763643
  32.5690012 132.7444997  17.5209988  32.6460012 132.3184997  18.3749988
  33.4630012 132.7584997  17.1779988  32.7003428 132.6880880  17.5915310
  50.1510012 142.7034997   6.2439988  50.2400012 143.6474997   6.1119988
  49.5130012 142.4284997   5.5859988  50.0769081 142.7954830   6.1369614
  49.0840012 141.9584997   9.6629988  49.0460012 141.3124997  10.3679988
  48.7620012 141.4924997   8.8919988  49.0352333 141.8069408   9.6552978
  41.4530012 141.5734997  11.2559988  41.4940012 140.9474997  11.9789988
  42.1560012 142.1974997  11.4379988  41.5536363 141.5721196  11.3796044
  52.7900012 144.8974997   7.9639988  52.3500012 144.1774997   8.4149988
  52.7770012 145.6184997   8.5939988  52.7280226 144.8963731   8.1108494
  38.9860012 139.6834997   5.1839988  38.5390012 140.5294997   5.1649988
  38.4250012 139.1034997   4.6679988  38.8489900 139.7209916   5.1116801
  39.6970012 141.8454997   7.3099988  39.9100012 141.0754997   7.8369988
  40.4350012 141.9344997   6.7059988  39.8258496 141.7521394   7.3005300
  47.4740012 144.3914997  10.0689988  47.7780012 143.7054997   9.4739988
  48.1950012 144.5094997  10.6869988  47.6130671 144.3136305  10.0711816
  56.1370012 135.9924997  10.9299988  56.1860012 136.6024997  11.6659988
  56.5620012 136.4534997  10.2069988  56.2011824 136.1383741  10.9330205
  50.6150012 138.7854997  10.3969988  50.7570012 137.8394997  10.4169988
  50.5080012 138.9924997   9.4679988  50.6199864 138.6839534  10.2742339
  43.7690012 136.8864997   7.6689988  43.8130012 137.7464997   7.2509988
  43.3120012 136.3344997   7.0349988  43.7132185 136.9295799   7.5260299
  51.4920012 137.0174997   6.0699988  52.1380012 136.6884997   6.6949988
  52.0020012 137.5354997   5.4469988  51.6494264 137.0424611   6.0713862
  40.3900012 139.2834997   8.4309988  41.0430012 138.7334997   8.8629988
  40.4140012 139.0094997   7.5139988  40.4826683 139.1711466   8.3662123
  45.5460012 140.8334997   7.6459988  46.1620012 140.3074997   8.1559988
  44.9600012 140.1934997   7.2429988  45.5510810 140.6749208   7.6613173
  56.5280012 137.4704997  13.1659988  55.8400012 138.1284997  13.0699988
  56.5440012 137.2734997  14.1019988  56.4358525 137.5340462  13.2794808
  42.5800012 135.8044997  11.7429988  42.3610012 136.3344997  10.9769988
  41.9120012 136.0314997  12.3899988  42.4597600 135.9076906  11.7256379
  45.1490012 143.4804997  12.0299988  44.4090012 144.0784997  12.1339988
  45.8630012 144.0344997  11.7149988  45.1442237 143.6372831  12.0016465
  53.2560012 136.3084997   8.0499988  53.0400012 135.5424997   8.5829988
  53.9110012 136.7804997   8.5629988  53.3150632 136.2675889   8.1922861
  42.1730012 137.6964997   9.6949988  42.7870012 138.3294997  10.0689988
  42.6850012 137.2244997   9.0389988  42.3262296 137.7192370   9.6574252
  53.6030012 135.0234997  11.7299988  52.8670012 135.6344997  11.6919988
  54.2860012 135.4384997  11.2029988  53.5946541 135.1631374  11.6535832
  46.6060012 133.1104997   9.1959988  46.4890012 132.1614997   9.1409988
  45.7510012 133.4424997   9.4689988  46.4743733 133.0255409   9.2253897
  54.4000012 144.9854997  13.9239988  54.5400012 144.3944997  13.1839988
  54.5670012 145.8584997  13.5669988  54.4416778 145.0226426  13.7746965
  48.8730012 141.9474997   3.6959988  48.1610012 142.4824997   3.3439988
  49.5640012 142.0034997   3.0359988  48.8690132 142.0282543   3.5586289
  48.9260012 140.4054997   0.7349988  49.6270012 140.4274997   1.3859988
  49.2290012 139.7774997   0.0789988  49.0627830 140.3236566   0.7353711
  56.2420012 141.3254997  11.9899988  55.5890012 142.0204997  12.0789988
  56.7070012 141.5354997  11.1799988  56.2155390 141.4489425  11.8926883
  52.2780012 142.1574997   4.6479988  51.5460012 142.3854997   5.2209988
  52.7260012 141.4434997   5.1029988  52.2383095 142.0922571   4.7879119
  52.1760012 140.3314997  13.7149988  52.2560012 141.0944997  14.2869988
  51.5740012 140.6104997  13.0249988  52.1055756 140.4737134  13.7000589
  43.9240012 142.7874997   6.5299988  43.5930012 142.4174997   5.7119988
  44.5120012 142.1174997   6.8769988  43.9581873 142.6461156   6.4648102
  44.2900012 141.5564997  10.1639988  44.8560012 141.6774997   9.4009988
  44.6090012 142.1934997  10.8029988  44.4105786 141.6591884  10.1460040
  51.1490012 141.3194997   2.3329988  51.7290012 141.4694997   3.0799988
  51.5630012 141.7904997   1.6099988  51.2842830 141.4036841   2.3374134
  42.0900012 142.1534997  14.1099988  42.1610012 142.8044997  14.8079988
  41.2000012 142.2564997  13.7749988  41.9793117 142.2565936  14.1602700
  54.8480012 133.0694997   2.1459988  53.9480012 133.2084997   2.4409988
  55.1000012 133.9004997   1.7439988  54.7588702 133.2009074   2.1320205
  42.9140012 141.8574997   4.1199988  42.6220012 142.6254997   3.6289988
  42.2400012 141.1974997   3.9569988  42.7829081 141.8734406   4.0307340
  39.0070012 144.2204997  12.9349988  38.5060012 144.1924997  12.1199988
  39.0120012 143.3144997  13.2439988  38.9391526 144.0942278  12.8652872
  54.1070012 139.1594997  15.9809988  53.7000012 139.6404997  15.2599988
  54.1480012 138.2544997  15.6729988  54.0568437 139.1029374  15.8406683
  43.8750012 134.0134997   9.9729988  43.0130012 133.9264997   9.5659988
  43.8520012 134.8694997  10.4009988  43.7540330 134.1172765   9.9751863
  48.5380012 133.7354997  13.3479988  48.9580012 133.3204997  14.1009988
  47.6050012 133.5574997  13.4649988  48.4693644 133.6545900  13.4669539
  51.8640012 137.4914997  14.2009988  51.3500012 137.3654997  14.9989988
  51.7090012 138.4034997  13.9569988  51.7726852 137.5976132  14.2772158
  52.6270012 142.3524997  -0.0370012  52.6690012 142.1294997  -0.9670012
  53.4760012 142.7514997   0.1529988  52.7475396 142.3759155  -0.1386373
  48.1990012 136.2284997   0.6329988  47.9460012 136.2474997   1.5559988
  47.9430012 135.3564997   0.3319988  48.1297790 136.1132437   0.7186263
  43.9660012 138.9794997  11.0679988  43.3240012 138.9384997  11.7769988
  44.0030012 139.9054997  10.8309988  43.8831324 139.0991559  11.1329824
  43.9630012 139.2004997   5.9799988  43.0700012 138.8594997   5.9219988
  44.4130012 138.8234997   5.2249988  43.9017305 139.1028484   5.8699177
  49.4980012 139.6164997   4.7969988  49.0890012 140.4314997   4.5059988
  50.2190012 139.4764997   4.1829988  49.5394537 139.7092018   4.6741342
  48.6000012 139.7914997  16.2849988  48.0380012 139.0874997  16.6059988
  49.4270012 139.6714997  16.7529988  48.6347095 139.6787883  16.3922330
  50.5030012 139.0624997   7.6109988  50.3080012 139.6674997   6.8959988
  50.6840012 138.2284997   7.1769988  50.5007614 139.0326300   7.4544405
  41.7160012 139.2994997  12.9349988  41.6780012 139.6994997  13.8039988
  41.2250012 138.4824997  13.0259988  41.6444684 139.2438069  13.0661059
  45.0820012 136.6734997  -0.2660012  44.6510012 136.2284997   0.4639988
  44.3640012 137.0454997  -0.7780012  44.9259438 136.6628940  -0.2353201
  38.3240012 136.4154997   6.7859988  38.9550012 136.3864997   7.5049988
  38.7730012 135.9904997   6.0559988  38.4710774 136.3540492   6.7856553
  39.5980012 137.1614997   2.2099988  40.0720012 137.7524997   1.6249988
  38.8810012 137.6924997   2.5569988  39.5659341 137.3140867   2.1768836
  49.7670012 140.7004997  12.2829988  50.0900012 140.0694997  11.6399988
  49.3270012 140.1654997  12.9429988  49.7516895 140.5418441  12.2842850
  46.5440012 136.6274997   7.0669988  45.6330012 136.6844997   7.3549988
  47.0500012 136.5674997   7.8769988  46.4875413 136.6271985   7.2160622
  41.3730012 138.2564997   5.8929988  40.4830012 138.3564997   5.5529988
  41.6690012 137.4144997   5.5469988  41.2912823 138.1563545   5.7997213
  45.0260012 138.2564997   3.5499988  45.9570012 138.3854997   3.7279988
  44.8110012 138.9264997   2.8999988  45.1244247 138.3646565   3.4865747
  50.9490012 135.8624997  10.3309988  50.2730012 135.9934997  10.9949988
  50.4640012 135.7074997   9.5209988  50.7907145 135.8594905  10.3124517
  43.7000012 139.4514997   1.1169988  43.1570012 139.0714997   0.4249988
  44.5330012 139.6454997   0.6879988  43.7384399 139.4258124   0.9644526
  41.8350012 144.0084997  16.2159988  42.5670012 144.2624997  16.7769988
  41.0550012 144.2124997  16.7309988  41.8298232 144.0709177  16.3625760
  47.8640012 139.4154997   8.9539988  48.4290012 138.8684997   8.4069988
  47.7170012 138.8934997   9.7419988  47.9212918 139.2702024   8.9858454
  42.8660012 135.5514997   5.3719988  42.5490012 134.6494997   5.3369988
  43.6480012 135.5534997   4.8189988  42.9282284 135.4281628   5.2924783
  46.4910012 137.8034997  11.3679988  45.6550012 138.2574997  11.4779988
  47.0150012 138.0794997  12.1199988  46.4474414 137.9029376  11.4847136
  47.0350012 144.0164997   3.0519988  46.2900012 143.5094997   2.7299988
  46.9010012 144.0654997   3.9989988  46.9148776 143.9536940   3.1358647
  54.1850012 143.1494997  11.8389988  54.8270012 143.6064997  11.2949988
  53.3550012 143.2624997  11.3759988  54.1605963 143.2272704  11.7020177
  50.9330012 136.8304997   1.2519988  49.9940012 136.9424997   1.0999988
  51.2300012 137.6874997   1.5579988  50.8447666 136.9616443   1.2725768
  48.5540012 144.2004997  14.2889988  48.2090012 143.8194997  15.0959988
  48.3540012 145.1344997  14.3609988  48.4798061 144.2745228  14.4090961
  51.6510012 138.6974997   2.9119988  52.5430012 138.5604997   3.2309988
  51.7080012 139.4884997   2.3759988  51.7806285 138.7856660   2.8831691
  42.1600012 143.3114997   8.8219988  42.9050012 143.3094997   8.2209988
  42.2380012 142.4884997   9.3039988  42.2725518 143.1999315   8.8048929
  39.1680012 141.7724997  14.1369988  39.3910012 141.3544997  14.9689988
  38.5660012 141.1594997  13.7139988  39.1171759 141.6324668  14.1937022
  46.1840012 141.2894997  16.3499988  45.8880012 141.1234997  15.4549988
  47.1160012 141.0694997  16.3389988  46.2694166 141.2370640  16.2260536
  56.5360012 138.9074997   2.6069988  55.9820012 138.5114997   1.9349988
  56.6360012 139.8174997   2.3289988  56.4737059 138.9763586   2.4774401
  56.4990012 144.7074997  15.4439988  55.6480012 144.9454997  15.0769988
  57.0900012 144.6904997  14.6909988  56.4622487 144.7378258  15.2918893
  51.9920012 142.5014997  10.0929988  51.0630012 142.2694997  10.0659988
  52.4430012 141.7244997   9.7629988  51.9259216 142.3647238  10.0446917
  40.2900012 141.6914997   0.8129988  40.9060012 142.3184997   1.1929988
  39.4280012 142.0074997   1.0849988  40.2577698 141.8199430   0.9017183
  45.9620012 144.4924997   5.8029988  45.7210012 145.4174997   5.8439988
  45.2210012 144.0334997   6.1989988  45.8288409 144.5571421   5.8621377
  50.0210012 144.7404997  11.8179988  49.5950012 144.5134997  12.6449988
  50.6010012 144.0024997  11.6359988  50.0411868 144.6095299  11.9065830
  40.8020012 136.5254997  13.6949988  39.9090012 136.8644997  13.6269988
  40.7030012 135.6704997  14.1129988  40.6664164 136.4562588  13.7422235
  53.0900012 144.3424997   3.1189988  52.8120012 143.6144997   3.6749988
  54.0170012 144.4614997   3.3239988  53.1773124 144.2588802   3.2228845
  41.7050012 143.6044997   2.3059988  41.0190012 143.9564997   2.8729988
  42.2270012 144.3674997   2.0589988  41.6816852 143.7558578   2.3502118
  49.5360012 136.2664997  12.5849988  50.2350012 136.3404997  13.2349988
  49.1550012 135.4024997  12.7389988  49.5801767 136.1597624  12.6948322
  50.3210012 135.9184997   3.6819988  50.5410012 136.3904997   2.8789988
  50.8790012 136.3134997   4.3519988  50.4264968 136.0364285   3.6627331
  47.5210012 137.6464997   4.5169988  48.3330012 138.1514997   4.5629988
  47.2760012 137.5014997   5.4309988  47.5990520 137.6960375   4.6468517
  48.0560012 138.6324997  13.7019988  48.1750012 139.2064997  14.4589988
  48.7120012 137.9444997  13.8159988  48.1609757 138.6181079  13.8210825
  48.4040012 134.7274997   5.4549988  48.0580012 135.3454997   6.0999988
  49.0630012 135.2284997   4.9739988  48.4457826 134.8795802   5.4780971
  44.0620012 135.7904997   2.1419988  43.9790012 136.6794997   2.4889988
  44.9520012 135.5254997   2.3739988  44.1709469 135.8761430   2.2207626
  54.2610012 136.5394997  14.5369988  53.3440012 136.8024997  14.4489988
  54.5960012 136.5364997  13.6399988  54.1809900 136.5750224  14.4037919
  52.8630012 140.2904997   8.6319988  52.0650012 139.8754997   8.3039988
  53.3080012 139.5994997   9.1229988  52.8139885 140.1403543   8.6534889
  40.6370012 138.8824997   0.3189988  40.5920012 139.8214997   0.4969988
  39.7490012 138.6464997   0.0489988  40.5108574 138.9791892   0.3068912
  41.4450012 133.6644997   8.9919988  41.2160012 133.7234997   8.0639988
  41.0020012 132.8724997   9.2979988  41.3538530 133.5655753   8.9064786
  39.5700012 144.0274997  17.4369988  39.7140012 143.1254997  17.1499988
  38.7980012 144.3134997  16.9489988  39.4853322 143.9428261  17.3317881
  43.9120012 144.3714997  -0.4310012  43.9760012 143.5774997   0.0999988
  44.5650012 144.2524997  -1.1210012  44.0090241 144.2467148  -0.4515683
  46.2260012 143.9974997  16.8689988  45.8970012 144.2684997  16.0119988
  46.3780012 143.0564997  16.7819988  46.2014809 143.9073862  16.7398244
  51.9600012 143.9134997  14.2529988  52.7060012 144.5014997  14.1329988
  51.2030012 144.4954997  14.3159988  51.9597554 144.0727011  14.2450907
  40.4030012 141.2274997  16.8569988  40.8110012 140.3704997  16.7359988
  40.1430012 141.2424997  17.7779988  40.4237568 141.1120807  16.9649588
  45.0610012 142.3434997   1.8749988  44.6010012 141.8594997   2.5609988
  45.3160012 141.6754997   1.2389988  45.0324902 142.1868731   1.8829334
  44.3500012 140.2364997  14.2309988  43.7320012 140.9114997  14.5109988
  44.6940012 140.5574997  13.3979988  44.3119615 140.3722721  14.1566581
  46.1320012 140.5864997   0.1369988  45.9520012 140.4324997  -0.7900012
  47.0820012 140.6944997   0.1819988  46.2357776 140.5800175   0.0161843
  49.3700012 142.7084997  17.5079988  50.3230012 142.7914997  17.4809988
  49.2090012 141.9964997  18.1279988  49.4786426 142.6236746  17.5880579
  55.5220012 142.9414997  -0.4170012  55.2480012 142.5164997  -1.2300012
  55.5610012 143.8724997  -0.6340012  55.4897699 143.0092484  -0.5576390
  44.6890012 137.5914997  15.3129988  44.8390012 136.8624997  14.7109988
  44.6920012 138.3684997  14.7539988  44.7099302 137.5967851  15.1550692
  45.1020012 135.9614997  12.8059988  45.6380012 136.4124997  12.1539988
  44.2500012 135.8534997  12.3829988  45.0602178 136.0086390  12.6595756
  46.6840012 141.4004997  13.0449988  47.4340012 141.2444997  12.4719988
  46.3450012 142.2524997  12.7699988  46.7408921 141.4942968  12.9293561
  51.0990012 139.2154997  18.0739988  51.2920012 138.2844997  17.9619988
  51.9570012 139.6404997  18.0639988  51.2413020 139.1456389  18.0573361
  52.4160012 142.0044997  16.1509988  52.1350012 142.7134997  15.5739988
  53.3590012 141.9314997  15.9999988  52.5049027 142.0917646  16.0515551
  43.1680012 138.7894997  17.2249988  42.4010012 138.2574997  17.0149988
  43.8470012 138.4794997  16.6249988  43.1547022 138.6747506  17.1151648
  45.9080012 133.4174997  13.2369988  45.8090012 134.3644997  13.1319988
  45.1650012 133.0454997  12.7619988  45.7940564 133.4965902  13.1584560
  47.1720012 137.7394997  16.8009988  46.9360012 137.5194997  17.7029988
  46.3880012 137.5324997  16.2909988  47.0338628 137.6814760  16.8553932
  49.8870012 136.8664997  15.8769988  48.9400012 136.8984997  16.0089988
  50.2000012 136.2414997  16.5299988  49.7995475 136.7863207  15.9834455
  51.5210012 135.5004997  17.8819988  51.4250012 134.5484997  17.8759988
  51.2000012 135.7694997  18.7419988  51.4644070 135.4064035  17.9975441
  41.3480012 136.7104997  16.9289988  41.5600012 136.0034997  16.3189988
  41.2370012 136.2724997  17.7729988  41.3619721 136.5547084  16.9596843
  46.1290012 132.7114997  15.9089988  46.8410012 132.0714997  15.8949988
  46.0280012 132.9784997  14.9949988  46.2127939 132.6599938  15.7835650
  46.4830012 134.3944997  17.9619988  46.3510012 133.9184997  17.1419988
  45.8840012 135.1384997  17.9069988  46.3839071 134.4299618  17.8422886
  55.9800012 143.8104997   3.5579988  56.8300012 144.2314997   3.6849988
  55.9860012 143.0704997   4.1649988  56.0971372 143.7680803   3.6574344
  56.3750012 141.8634997   5.3819988  55.6480012 141.3844997   5.7789988
  56.9560012 142.0694997   6.1139988  56.3539375 141.8257090   5.5354129
  56.1340012 144.6484997  10.3289988  56.9670012 144.2704997  10.0489988
  56.2460012 145.5914997  10.2099988  56.2632647 144.7242218  10.2745487
  56.6430012 141.7644997   1.7729988  56.1210012 142.1214997   1.0539988
  56.6100012 142.4394997   2.4509988  56.5671634 141.9045413   1.7663145
  54.9920012 139.0044997   0.3239988  55.0880012 139.6714997  -0.3570012
  54.8520012 138.1884997  -0.1580012  54.9862135 138.9854500   0.1658491
  54.1610012 140.3844997   5.9449988  54.0110012 139.4394997   5.9239988
  53.8080012 140.6654997   6.7879988  54.0926625 140.2930441   6.0562346
  39.1970012 142.4624997   9.9549988  39.3810012 142.3804997   9.0189988
  40.0460012 142.3384997  10.3789988  39.3370139 142.4345003   9.8841455
  55.0180012 142.3544997  15.5829988  55.6010012 141.6204997  15.7749988
  55.5820012 143.1264997  15.6299988  55.1739769 142.3584227  15.6156159
  56.5140012 140.2574997  16.2679988  55.6510012 139.8784997  16.1019988
  57.1190012 139.5184997  16.1939988  56.4775979 140.1058023  16.2352817
  54.2390012 136.4124997  -0.5590012  54.8500012 136.0414997   0.0779988
  53.4030012 135.9914997  -0.3630012  54.2095032 136.3047554  -0.4452965
  53.8720012 137.9674997   4.4069988  54.1520012 137.0604997   4.5309988
  54.6310012 138.4014997   4.0179988  54.0129277 137.9020942   4.3713682
  54.4840012 138.5484997   9.8429988  55.4170012 138.7604997   9.8089988
  54.2490012 138.6504997  10.7649988  54.5798036 138.5912769   9.9629976
  54.5130012 139.2854997  12.6189988  53.6700012 139.5534997  12.9849988
  54.9550012 140.1074997  12.4079988  54.4574158 139.4333291  12.6405491
  38.7940012 137.7334997  16.0959988  39.7140012 137.6114997  16.3319988
  38.3450012 136.9834997  16.4849988  38.8591580 137.6153727  16.1809006
  56.7960012 133.2654997  17.9719988  57.1460012 132.6114997  17.3669988
  56.9430012 134.1024997  17.5329988  56.8638419 133.2891591  17.8297118
  54.4850012 135.2304997   4.4549988  54.6680012 134.7814997   5.2809988
  53.8860012 134.6454997   3.9919988  54.4290202 135.0899975   4.5053275
  40.0150012 136.0454997   8.9869988  40.4610012 135.2534997   9.2889988
  40.4820012 136.7614997   9.4179988  40.1390172 136.0340624   9.0864820
  38.3190012 139.0444997  10.0559988  38.8110012 138.8234997   9.2649988
  38.6820012 139.8854997  10.3369988  38.4353126 139.1278357   9.9857531
  56.3160012 135.3744997  16.3219988  55.3980012 135.6454997  16.2859988
  56.4390012 134.8394997  15.5369988  56.2071066 135.3392892  16.2110487
  56.3520012 135.2974997   0.9829988  56.7640012 134.5764997   0.5079988
  57.0340012 135.9674997   1.0419988  56.5005885 135.2892368   0.9258915
  38.6330012 135.3024997   4.1099988  37.7080012 135.5114997   3.9809988
  39.0870012 135.7864997   3.4209988  38.5677368 135.3965993   3.9991226
  38.5970012 134.0404997  12.4549988  37.9320012 133.7944997  13.0979988
  38.1540012 134.6624997  11.8769988  38.4460956 134.0908632  12.4649352
  55.3160012 133.4644997  14.1409988  54.5040012 133.7894997  13.7529988
  55.5490012 132.7044997  13.6079988  55.2363423 133.4062436  14.0158253
  48.7460012 134.9134997   8.4629988  48.0720012 134.2844997   8.7189988
  49.3100012 134.4294997   7.8599988  48.7299230 134.7618744   8.4165340
  53.8890012 133.0214997   8.5759988  54.4930012 133.5684997   8.0739988
  53.0190012 133.3404997   8.3359988  53.8541241 133.1395806   8.4747654
  55.6160012 134.1594997   6.9089988  56.2280012 133.6454997   6.3829988
  55.9980012 135.0374997   6.9329988  55.7514540 134.2077140   6.8401830
  41.0730012 133.5474997   6.2849988  40.2960012 133.3134997   5.7779988
  41.6030012 132.7504997   6.2939988  41.0382330 133.4076988   6.2167742
  39.9090012 133.3454997   2.0889988  40.3480012 133.9564997   1.4969988
  39.2760012 133.8834997   2.5629988  39.8834514 133.5019257   2.0720930
  45.6520012 133.4744997   6.0989988  46.5270012 133.8624997   6.0689988
  45.5160012 133.2594997   7.0209988  45.7533695 133.4985184   6.2196440
  51.2090012 133.5044997   7.7479988  51.2850012 133.5994997   6.7979988
  50.9340012 132.5964997   7.8769988  51.1822321 133.3947867   7.6355079
  52.5620012 133.5304997   3.4399988  51.8600012 134.1454997   3.2309988
  52.1180012 132.6924997   3.5709988  52.4056330 133.5015783   3.4290328
  41.7700012 135.2614997   0.5309988  42.2620012 134.6314997   0.0039988
  42.3940012 135.5574997   1.1949988  41.9215446 135.2153199   0.5485980
  46.7960012 135.5544997   2.9879988  46.9740012 134.9084997   3.6709988
  46.7430012 136.3884997   3.4559988  46.8131829 135.5787985   3.1445940
  41.0310012 134.0614997  15.8029988  40.6650012 133.2964997  16.2459988
  41.9440012 134.0904997  16.0899988  41.1042790 133.9607224  15.9024070
  43.0040012 133.4124997  17.3389988  43.9020012 133.1384997  17.1539988
  42.6170012 132.6694997  17.8029988  43.0746612 133.2745914  17.3763643
  51.4250012 132.7444997  17.5209988  51.5020012 132.3184997  18.3749988
  52.3190012 132.7584997  17.1779988  51.5563428 132.6880880  17.5915310
  69.0070012 142.7034997   6.2439988  69.0960012 143.6474997   6.1119988
  68.3690012 142.4284997   5.5859988  68.9329081 142.7954830   6.1369614
  67.9400012 141.9584997   9.6629988  67.9020012 141.3124997  10.3679988
  67.6180012 141.4924997   8.8919988  67.8912333 141.8069408   9.6552978
  60.3090012 141.5734997  11.2559988  60.3500012 140.9474997  11.9789988
  61.0120012 142.1974997  11.4379988  60.4096363 141.5721196  11.3796044
  71.6460012 144.8974997   7.9639988  71.2060012 144.1774997   8.4149988
  71.6330012 145.6184997   8.5939988  71.5840226 144.8963731   8.1108494
  57.8420012 139.6834997   5.1839988  57.3950012 140.5294997   5.1649988
  57.2810012 139.1034997   4.6679988  57.7049900 139.7209916   5.1116801
  58.5530012 141.8454997   7.3099988  58.7660012 141.0754997   7.8369988
  59.2910012 141.9344997   6.7059988  58.6818496 141.7521394   7.3005300
  66.3300012 144.3914997  10.0689988  66.6340012 143.7054997   9.4739988
  67.0510012 144.5094997  10.6869988  66.4690671 144.3136305  10.0711816
  74.9930012 135.9924997  10.9299988  75.0420012 136.6024997  11.6659988
  75.4180012 136.4534997  10.2069988  75.0571824 136.1383741  10.9330205
  69.4710012 138.7854997  10.3969988  69.6130012 137.8394997  10.4169988
  69.3640012 138.9924997   9.4679988  69.4759863 138.6839534  10.2742339
  62.6250012 136.8864997   7.6689988  62.6690012 137.7464997   7.2509988
  62.1680012 136.3344997   7.0349988  62.5692185 136.9295799   7.5260299
  70.3480012 137.0174997   6.0699988  70.9940012 136.6884997   6.6949988
  70.8580012 137.5354997   5.4469988  70.5054264 137.0424611   6.0713862
  59.2460012 139.2834997   8.4309988  59.8990012 138.7334997   8.8629988
  59.2700012 139.0094997   7.5139988  59.3386683 139.1711466   8.3662123
  64.4020012 140.8334997   7.6459988  65.0180012 140.3074997   8.1559988
  63.8160012 140.1934997   7.2429988  64.4070810 140.6749208   7.6613173
  75.3840012 137.4704997  13.1659988  74.6960012 138.1284997  13.0699988
  75.4000012 137.2734997  14.1019988  75.2918525 137.5340462  13.2794808
  61.4360012 135.8044997  11.7429988  61.2170012 136.3344997  10.9769988
  60.7680012 136.0314997  12.3899988  61.3157600 135.9076906  11.7256379
  64.0050012 143.4804997  12.0299988  63.2650012 144.0784997  12.1339988
  64.7190012 144.0344997  11.7149988  64.0002237 143.6372831  12.0016465
  72.1120012 136.3084997   8.0499988  71.8960012 135.5424997   8.5829988
  72.7670012 136.7804997   8.5629988  72.1710632 136.2675889   8.1922861
  61.0290012 137.6964997   9.6949988  61.6430012 138.3294997  10.0689988
  61.5410012 137.2244997   9.0389988  61.1822296 137.7192370   9.6574252
  72.4590012 135.0234997  11.7299988  71.7230012 135.6344997  11.6919988
  73.1420012 135.4384997  11.2029988  72.4506541 135.1631374  11.6535832
  65.4620012 133.1104997   9.1959988  65.3450012 132.1614997   9.1409988
  64.6070012 133.4424997   9.4689988  65.3303733 133.0255409   9.2253897
  73.2560012 144.9854997  13.9239988  73.3960012 144.3944997  13.1839988
  73.4230012 145.8584997  13.5669988  73.2976778 145.0226426  13.7746965
  67.7290012 141.9474997   3.6959988  67.0170012 142.4824997   3.3439988
  68.4200012 142.0034997   3.0359988  67.7250132 142.0282543   3.5586289
  67.7820012 140.4054997   0.7349988  68.4830012 140.4274997   1.3859988
  68.0850012 139.7774997   0.0789988  67.9187830 140.3236566   0.7353711
  75.0980012 141.3254997  11.9899988  74.4450012 142.0204997  12.0789988
  75.5630012 141.5354997  11.1799988  75.0715390 141.4489425  11.8926883
  71.1340012 142.1574997   4.6479988  70.4020012 142.3854997   5.2209988
  71.5820012 141.4434997   5.1029988  71.0943095 142.0922571   4.7879119
  71.0320012 140.3314997  13.7149988  71.1120012 141.0944997  14.2869988
  70.4300012 140.6104997  13.0249988  70.9615756 140.4737134  13.7000589
  62.7800012 142.7874997   6.5299988  62.4490012 142.4174997   5.7119988
  63.3680012 142.1174997   6.8769988  62.8141873 142.6461156   6.4648102
  63.1460012 141.5564997  10.1639988  63.7120012 141.6774997   9.4009988
  63.4650012 142.1934997  10.8029988  63.2665786 141.6591884  10.1460040
  70.0050012 141.3194997   2.3329988  70.5850012 141.4694997   3.0799988
  70.4190012 141.7904997   1.6099988  70.1402830 141.4036841   2.3374134
  60.9460012 142.1534997  14.1099988  61.0170012 142.8044997  14.8079988
  60.0560012 142.2564997  13.7749988  60.8353117 142.2565936  14.1602700
  73.7040012 133.0694997   2.1459988  72.8040012 133.2084997   2.4409988
  73.9560012 133.9004997   1.7439988  73.6148702 133.2009074   2.1320205
  61.7700012 141.8574997   4.1199988  61.4780012 142.6254997   3.6289988
  61.0960012 141.1974997   3.9569988  61.6389081 141.8734406   4.0307340
  57.8630012 144.2204997  12.9349988  57.3620012 144.1924997  12.1199988
  57.8680012 143.3144997  13.2439988  57.7951526 144.0942278  12.8652872
  72.9630012 139.1594997  15.9809988  72.5560012 139.6404997  15.2599988
  73.0040012 138.2544997  15.6729988  72.9128437 139.1029374  15.8406683
  62.7310012 134.0134997   9.9729988  61.8690012 133.9264997   9.5659988
  62.7080012 134.8694997  10.4009988  62.6100330 134.1172765   9.9751863
  67.3940012 133.7354997  13.3479988  67.8140012 133.3204997  14.1009988
  66.4610012 133.5574997  13.4649988  67.3253644 133.6545900  13.4669539
  70.7200012 137.4914997  14.2009988  70.2060012 137.3654997  14.9989988
  70.5650012 138.4034997  13.9569988  70.6286852 137.5976132  14.2772158
  71.4830012 142.3524997  -0.0370012  71.5250012 142.1294997  -0.9670012
  72.3320012 142.7514997   0.1529988  71.6035396 142.3759155  -0.1386373
  67.0550012 136.2284997   0.6329988  66.8020012 136.2474997   1.5559988
  66.7990012 135.3564997   0.3319988  66.9857790 136.1132437   0.7186263
  62.8220012 138.9794997  11.0679988  62.1800012 138.9384997  11.7769988
  62.8590012 139.9054997  10.8309988  62.7391324 139.0991559  11.1329824
  62.8190012 139.2004997   5.9799988  61.9260012 138.8594997   5.9219988
  63.2690012 138.8234997   5.2249988  62.7577305 139.1028484   5.8699177
  68.3540012 139.6164997   4.7969988  67.9450012 140.4314997   4.5059988
  69.0750012 139.4764997   4.1829988  68.3954537 139.7092018   4.6741342
  67.4560012 139.7914997  16.2849988  66.8940012 139.0874997  16.6059988
  68.2830012 139.6714997  16.7529988  67.4907095 139.6787883  16.3922330
  69.3590012 139.0624997   7.6109988  69.1640012 139.6674997   6.8959988
  69.5400012 138.2284997   7.1769988  69.3567614 139.0326300   7.4544405
  60.5720012 139.2994997  12.9349988  60.5340012 139.6994997  13.8039988
  60.0810012 138.4824997  13.0259988  60.5004684 139.2438069  13.0661059
  63.9380012 136.6734997  -0.2660012  63.5070012 136.2284997   0.4639988
  63.2200012 137.0454997  -0.7780012  63.7819438 136.6628940  -0.2353201
  57.1800012 136.4154997   6.7859988  57.8110012 136.3864997   7.5049988
  57.6290012 135.9904997   6.0559988  57.3270774 136.3540492   6.7856553
  58.4540012 137.1614997   2.2099988  58.9280012 137.7524997   1.6249988
  57.7370012 137.6924997   2.5569988  58.4219341 137.3140867   2.1768836
  68.6230012 140.7004997  12.2829988  68.9460012 140.0694997  11.6399988
  68.1830012 140.1654997  12.9429988  68.6076895 140.5418441  12.2842850
  65.4000012 136.6274997   7.0669988  64.4890012 136.6844997   7.3549988
  65.9060012 136.5674997   7.8769988  65.3435413 136.6271985   7.2160622
  60.2290012 138.2564997   5.8929988  59.3390012 138.3564997   5.5529988
  60.5250012 137.4144997   5.5469988  60.1472823 138.1563545   5.7997213
  63.8820012 138.2564997   3.5499988  64.8130012 138.3854997   3.7279988
  63.6670012 138.9264997   2.8999988  63.9804247 138.3646565   3.4865747
  69.8050012 135.8624997  10.3309988  69.1290012 135.9934997  10.9949988
  69.3200012 135.7074997   9.5209988  69.6467145 135.8594905  10.3124517
  62.5560012 139.4514997   1.1169988  62.0130012 139.0714997   0.4249988
  63.3890012 139.6454997   0.6879988  62.5944399 139.4258124   0.9644526
  60.6910012 144.0084997  16.2159988  61.4230012 144.2624997  16.7769988
  59.9110012 144.2124997  16.7309988  60.6858232 144.0709177  16.3625760
  66.7200012 139.4154997   8.9539988  67.2850012 138.8684997   8.4069988
  66.5730012 138.8934997   9.7419988  66.7772918 139.2702024   8.9858454
  61.7220012 135.5514997   5.3719988  61.4050012 134.6494997   5.3369988
  62.5040012 135.5534997   4.8189988  61.7842284 135.4281628   5.2924783
  65.3470012 137.8034997  11.3679988  64.5110012 138.2574997  11.4779988
  65.8710012 138.0794997  12.1199988  65.3034414 137.9029376  11.4847136
  65.8910012 144.0164997   3.0519988  65.1460012 143.5094997   2.7299988
  65.7570012 144.0654997   3.9989988  65.7708776 143.9536940   3.1358647
  73.0410012 143.1494997  11.8389988  73.6830012 143.6064997  11.2949988
  72.2110012 143.2624997  11.3759988  73.0165963 143.2272704  11.7020177
  69.7890012 136.8304997   1.2519988  68.8500012 136.9424997   1.0999988
  70.0860012 137.6874997   1.5579988  69.7007666 136.9616443   1.2725768
  67.4100012 144.2004997  14.2889988  67.0650012 143.8194997  15.0959988
  67.2100012 145.1344997  14.3609988  67.3358061 144.2745228  14.4090961
  70.5070012 138.6974997   2.9119988  71.3990012 138.5604997   3.2309988
  70.5640012 139.4884997   2.3759988  70.6366285 138.7856660   2.8831690
  61.0160012 143.3114997   8.8219988  61.7610012 143.3094997   8.2209988
  61.0940012 142.4884997   9.3039988  61.1285518 143.1999315   8.8048929
  58.0240012 141.7724997  14.1369988  58.2470012 141.3544997  14.9689988
  57.4220012 141.1594997  13.7139988  57.9731759 141.6324668  14.1937022
  65.0400012 141.2894997  16.3499988  64.7440012 141.1234997  15.4549988
  65.9720012 141.0694997  16.3389988  65.1254166 141.2370640  16.2260536
  75.3920012 138.9074997   2.6069988  74.8380012 138.5114997   1.9349988
  75.4920012 139.8174997   2.3289988  75.3297059 138.9763586   2.4774401
  75.3550012 144.7074997  15.4439988  74.5040012 144.9454997  15.0769988
  75.9460012 144.6904997  14.6909988  75.3182487 144.7378258  15.2918893
  70.8480012 142.5014997  10.0929988  69.9190012 142.2694997  10.0659988
  71.2990012 141.7244997   9.7629988  70.7819216 142.3647238  10.0446917
  59.1460012 141.6914997   0.8129988  59.7620012 142.3184997   1.1929988
  58.2840012 142.0074997   1.0849988  59.1137698 141.8199430   0.9017183
  64.8180012 144.4924997   5.8029988  64.5770012 145.4174997   5.8439988
  64.0770012 144.0334997   6.1989988  64.6848409 144.5571421   5.8621377
  68.8770012 144.7404997  11.8179988  68.4510012 144.5134997  12.6449988
  69.4570012 144.0024997  11.6359988  68.8971868 144.6095299  11.9065830
  59.6580012 136.5254997  13.6949988  58.7650012 136.8644997  13.6269988
  59.5590012 135.6704997  14.1129988  59.5224164 136.4562588  13.7422235
  71.9460012 144.3424997   3.1189988  71.6680012 143.6144997   3.6749988
  72.8730012 144.4614997   3.3239988  72.0333124 144.2588802   3.2228845
  60.5610012 143.6044997   2.3059988  59.8750012 143.9564997   2.8729988
  61.0830012 144.3674997   2.0589988  60.5376852 143.7558578   2.3502118
  68.3920012 136.2664997  12.5849988  69.0910012 136.3404997  13.2349988
  68.0110012 135.4024997  12.7389988  68.4361767 136.1597624  12.6948322
  69.1770012 135.9184997   3.6819988  69.3970012 136.3904997   2.8789988
  69.7350012 136.3134997   4.3519988  69.2824968 136.0364285   3.6627331
  66.3770012 137.6464997   4.5169988  67.1890012 138.1514997   4.5629988
  66.1320012 137.5014997   5.4309988  66.4550520 137.6960375   4.6468517
  66.9120012 138.6324997  13.7019988  67.0310012 139.2064997  14.4589988
  67.5680012 137.9444997  13.8159988  67.0169757 138.6181079  13.8210825
  67.2600012 134.7274997   5.4549988  66.9140012 135.3454997   6.0999988
  67.9190012 135.2284997   4.9739988  67.3017826 134.8795802   5.4780971
  62.9180012 135.7904997   2.1419988  62.8350012 136.6794997   2.4889988
  63.8080012 135.5254997   2.3739988  63.0269469 135.8761430   2.2207626
  73.1170012 136.5394997  14.5369988  72.2000012 136.8024997  14.4489988
  73.4520012 136.5364997  13.6399988  73.0369900 136.5750224  14.4037919
  71.7190012 140.2904997   8.6319988  70.9210012 139.8754997   8.3039988
  72.1640012 139.5994997   9.1229988  71.6699885 140.1403543   8.6534889
  59.4930012 138.8824997   0.3189988  59.4480012 139.8214997   0.4969988
  58.6050012 138.6464997   0.0489988  59.3668574 138.9791892   0.3068912
  60.3010012 133.6644997   8.9919988  60.0720012 133.7234997   8.0639988
  59.8580012 132.8724997   9.2979988  60.2098530 133.5655753   8.9064786
  58.4260012 144.0274997  17.4369988  58.5700012 143.1254997  17.1499988
  57.6540012 144.3134997  16.9489988  58.3413322 143.9428261  17.3317881
  62.7680012 144.3714997  -0.4310012  62.8320012 143.5774997   0.0999988
  63.4210012 144.2524997  -1.1210012  62.8650241 144.2467148  -0.4515683
  65.0820012 143.9974997  16.8689988  64.7530012 144.2684997  16.0119988
  65.2340012 143.0564997  16.7819988  65.0574809 143.9073862  16.7398244
  70.8160012 143.9134997  14.2529988  71.5620012 144.5014997  14.1329988
  70.0590012 144.4954997  14.3159988  70.8157554 144.0727011  14.2450907
  59.2590012 141.2274997  16.8569988  59.6670012 140.3704997  16.7359988
  58.9990012 141.2424997  17.7779988  59.2797568 141.1120807  16.9649588
  63.9170012 142.3434997   1.8749988  63.4570012 141.8594997   2.5609988
  64.1720012 141.6754997   1.2389988  63.8884902 142.1868731   1.8829334
  63.2060012 140.2364997  14.2309988  62.5880012 140.9114997  14.5109988
  63.5500012 140.5574997  13.3979988  63.1679615 140.3722721  14.1566581
  64.9880012 140.5864997   0.1369988  64.8080012 140.4324997  -0.7900012
  65.9380012 140.6944997   0.1819988  65.0917776 140.5800175   0.0161843
  68.2260012 142.7084997  17.5079988  69.1790012 142.7914997  17.4809988
  68.0650012 141.9964997  18.1279988  68.3346426 142.6236746  17.5880579
  74.3780012 142.9414997  -0.4170012  74.1040012 142.5164997  -1.2300012
  74.4170012 143.8724997  -0.6340012  74.3457699 143.0092484  -0.5576390
  63.5450012 137.5914997  15.3129988  63.6950012 136.8624997  14.7109988
  63.5480012 138.3684997  14.7539988  63.5659302 137.5967851  15.1550692
  63.9580012 135.9614997  12.8059988  64.4940012 136.4124997  12.1539988
  63.1060012 135.8534997  12.3829988  63.9162178 136.0086390  12.6595756
  65.5400012 141.4004997  13.0449988  66.2900012 141.2444997  12.4719988
  65.2010012 142.2524997  12.7699988  65.5968921 141.4942968  12.9293561
  69.9550012 139.2154997  18.0739988  70.1480012 138.2844997  17.9619988
  70.8130012 139.6404997  18.0639988  70.0973020 139.1456389  18.0573361
  71.2720012 142.0044997  16.1509988  70.9910012 142.7134997  15.5739988
  72.2150012 141.9314997  15.9999988  71.3609027 142.0917646  16.0515551
  62.0240012 138.7894997  17.2249988  61.2570012 138.2574997  17.0149988
  62.7030012 138.4794997  16.6249988  62.0107022 138.6747506  17.1151648
  64.7640012 133.4174997  13.2369988  64.6650012 134.3644997  13.1319988
  64.0210012 133.0454997  12.7619988  64.6500563 133.4965902  13.1584560
  66.0280012 137.7394997  16.8009988  65.7920012 137.5194997  17.7029988
  65.2440012 137.5324997  16.2909988  65.8898628 137.6814760  16.8553932
  68.7430012 136.8664997  15.8769988  67.7960012 136.8984997  16.0089988
  69.0560012 136.2414997  16.5299988  68.6555475 136.7863207  15.9834455
  70.3770012 135.5004997  17.8819988  70.2810012 134.5484997  17.8759988
  70.0560012 135.7694997  18.7419988  70.3204070 135.4064035  17.9975441
  60.2040012 136.7104997  16.9289988  60.4160012 136.0034997  16.3189988
  60.0930012 136.2724997  17.7729988  60.2179721 136.5547084  16.9596843
  64.9850012 132.7114997  15.9089988  65.6970012 132.0714997  15.8949988
  64.8840012 132.9784997  14.9949988  65.0687939 132.6599938  15.7835650
  65.3390012 134.3944997  17.9619988  65.2070012 133.9184997  17.1419988
  64.7400012 135.1384997  17.9069988  65.2399071 134.4299618  17.8422886
  74.8360012 143.8104997   3.5579988  75.6860012 144.2314997   3.6849988
  74.8420012 143.0704997   4.1649988  74.9531372 143.7680803   3.6574344
  75.2310012 141.8634997   5.3819988  74.5040012 141.3844997   5.7789988
  75.8120012 142.0694997   6.1139988  75.2099375 141.8257090   5.5354129
  74.9900012 144.6484997  10.3289988  75.8230012 144.2704997  10.0489988
  75.1020012 145.5914997  10.2099988  75.1192647 144.7242218  10.2745487
  75.4990012 141.7644997   1.7729988  74.9770012 142.1214997   1.0539988
  75.4660012 142.4394997   2.4509988  75.4231634 141.9045413   1.7663145
  73.8480012 139.0044997   0.3239988  73.9440012 139.6714997  -0.3570012
  73.7080012 138.1884997  -0.1580012  73.8422135 138.9854500   0.1658491
  73.0170012 140.3844997   5.9449988  72.8670012 139.4394997   5.9239988
  72.6640012 140.6654997   6.7879988  72.9486625 140.2930441   6.0562346
  58.0530012 142.4624997   9.9549988  58.2370012 142.3804997   9.0189988
  58.9020012 142.3384997  10.3789988  58.1930139 142.4345003   9.8841455
  73.8740012 142.3544997  15.5829988  74.4570012 141.6204997  15.7749988
  74.4380012 143.1264997  15.6299988  74.0299769 142.3584227  15.6156159
  75.3700012 140.2574997  16.2679988  74.5070012 139.8784997  16.1019988
  75.9750012 139.5184997  16.1939988  75.3335979 140.1058023  16.2352817
  73.0950012 136.4124997  -0.5590012  73.7060012 136.0414997   0.0779988
  72.2590012 135.9914997  -0.3630012  73.0655032 136.3047554  -0.4452965
  72.7280012 137.9674997   4.4069988  73.0080012 137.0604997   4.5309988
  73.4870012 138.4014997   4.0179988  72.8689277 137.9020942   4.3713682
  73.3400012 138.5484997   9.8429988  74.2730012 138.7604997   9.8089988
  73.1050012 138.6504997  10.7649988  73.4358036 138.5912769   9.9629976
  73.3690012 139.2854997  12.6189988  72.5260012 139.5534997  12.9849988
  73.8110012 140.1074997  12.4079988  73.3134158 139.4333291  12.6405491
  57.6500012 137.7334997  16.0959988  58.5700012 137.6114997  16.3319988
  57.2010012 136.9834997  16.4849988  57.7151580 137.6153727  16.1809006
  75.6520012 133.2654997  17.9719988  76.0020012 132.6114997  17.3669988
  75.7990012 134.1024997  17.5329988  75.7198419 133.2891591  17.8297118
  73.3410012 135.2304997   4.4549988  73.5240012 134.7814997   5.2809988
  72.7420012 134.6454997   3.9919988  73.2850202 135.0899975   4.5053275
  58.8710012 136.0454997   8.9869988  59.3170012 135.2534997   9.2889988
  59.3380012 136.7614997   9.4179988  58.9950172 136.0340624   9.0864820
  57.1750012 139.0444997  10.0559988  57.6670012 138.8234997   9.2649988
  57.5380012 139.8854997  10.3369988  57.2913126 139.1278357   9.9857531
  75.1720012 135.3744997  16.3219988  74.2540012 135.6454997  16.2859988
  75.2950012 134.8394997  15.5369988  75.0631066 135.3392892  16.2110487
  75.2080012 135.2974997   0.9829988  75.6200012 134.5764997   0.5079988
  75.8900012 135.9674997   1.0419988  75.3565885 135.2892368   0.9258915
  57.4890012 135.3024997   4.1099988  56.5640012 135.5114997   3.9809988
  57.9430012 135.7864997   3.4209988  57.4237368 135.3965994   3.9991226
  57.4530012 134.0404997  12.4549988  56.7880012 133.7944997  13.0979988
  57.0100012 134.6624997  11.8769988  57.3020956 134.0908632  12.4649352
  74.1720012 133.4644997  14.1409988  73.3600012 133.7894997  13.7529988
  74.4050012 132.7044997  13.6079988  74.0923423 133.4062436  14.0158253
  67.6020012 134.9134997   8.4629988  66.9280012 134.2844997   8.7189988
  68.1660012 134.4294997   7.8599988  67.5859230 134.7618744   8.4165340
  72.7450012 133.0214997   8.5759988  73.3490012 133.5684997   8.0739988
  71.8750012 133.3404997   8.3359988  72.7101241 133.1395806   8.4747654
  74.4720012 134.1594997   6.9089988  75.0840012 133.6454997   6.3829988
  74.8540012 135.0374997   6.9329988  74.6074540 134.2077140   6.8401830
  59.9290012 133.5474997   6.2849988  59.1520012 133.3134997   5.7779988
  60.4590012 132.7504997   6.2939988  59.8942330 133.4076988   6.2167742
  58.7650012 133.3454997   2.0889988  59.2040012 133.9564997   1.4969988
  58.1320012 133.8834997   2.5629988  58.7394514 133.5019257   2.0720930
  64.5080012 133.4744997   6.0989988  65.3830012 133.8624997   6.0689988
  64.3720012 133.2594997   7.0209988  64.6093695 133.4985184   6.2196440
  70.0650012 133.5044997   7.7479988  70.1410012 133.5994997   6.7979988
  69.7900012 132.5964997   7.8769988  70.0382321 133.3947867   7.6355079
  71.4180012 133.5304997   3.4399988  70.7160012 134.1454997   3.2309988
  70.9740012 132.6924997   3.5709988  71.2616330 133.5015783   3.4290328
  60.6260012 135.2614997   0.5309988  61.1180012 134.6314997   0.0039988
  61.2500012 135.5574997   1.1949988  60.7775446 135.2153199   0.5485980
  65.6520012 135.5544997   2.9879988  65.8300012 134.9084997   3.6709988
  65.5990012 136.3884997   3.4559988  65.6691829 135.5787985   3.1445940
  59.8870012 134.0614997  15.8029988  59.5210012 133.2964997  16.2459988
  60.8000012 134.0904997  16.0899988  59.9602790 133.9607224  15.9024070
  61.8600012 133.4124997  17.3389988  62.7580012 133.1384997  17.1539988
  61.4730012 132.6694997  17.8029988  61.9306612 133.2745914  17.3763643
  70.2810012 132.7444997  17.5209988  70.3580012 132.3184997  18.3749988
  71.1750012 132.7584997  17.1779988  70.4123428 132.6880879  17.5915310
  87.8630012 142.7034997   6.2439988  87.9520012 143.6474997   6.1119988
  87.2250012 142.4284997   5.5859988  87.7889081 142.7954830   6.1369614
  86.7960012 141.9584997   9.6629988  86.7580012 141.3124997  10.3679988
  86.4740012 141.4924997   8.8919988  86.7472333 141.8069408   9.6552978
  79.1650012 141.5734997  11.2559988  79.2060012 140.9474997  11.9789988
  79.8680012 142.1974997  11.4379988  79.2656363 141.5721196  11.3796044
  90.5020012 144.8974997   7.9639988  90.0620012 144.1774997   8.4149988
  90.4890012 145.6184997   8.5939988  90.4400226 144.8963731   8.1108494
  76.6980012 139.6834997   5.1839988  76.2510012 140.5294997   5.1649988
  76.1370012 139.1034997   4.6679988  76.5609900 139.7209916   5.1116801
  77.4090012 141.8454997   7.3099988  77.6220012 141.0754997   7.8369988
  78.1470012 141.9344997   6.7059988  77.5378496 141.7521394   7.3005300
  85.1860012 144.3914997  10.0689988  85.4900012 143.7054997   9.4739988
  85.9070012 144.5094997  10.6869988  85.3250671 144.3136305  10.0711816
  93.8490012 135.9924997  10.9299988  93.8980012 136.6024997  11.6659988
  94.2740012 136.4534997  10.2069988  93.9131824 136.1383741  10.9330205
  88.3270012 138.7854997  10.3969988  88.4690012 137.8394997  10.4169988
  88.2200012 138.9924997   9.4679988  88.3319864 138.6839534  10.2742339
  81.4810012 136.8864997   7.6689988  81.5250012 137.7464997   7.2509988
  81.0240012 136.3344997   7.0349988  81.4252185 136.9295799   7.5260299
  89.2040012 137.0174997   6.0699988  89.8500012 136.6884997   6.6949988
  89.7140012 137.5354997   5.4469988  89.3614264 137.0424611   6.0713862
  78.1020012 139.2834997   8.4309988  78.7550012 138.7334997   8.8629988
  78.1260012 139.0094997   7.5139988  78.1946683 139.1711466   8.3662123
  83.2580012 140.8334997   7.6459988  83.8740012 140.3074997   8.1559988
  82.6720012 140.1934997   7.2429988  83.2630810 140.6749208   7.6613173
  94.2400012 137.4704997  13.1659988  93.5520012 138.1284997  13.0699988
  94.2560012 137.2734997  14.1019988  94.1478525 137.5340462  13.2794808
  80.2920012 135.8044997  11.7429988  80.0730012 136.3344997  10.9769988
  79.6240012 136.0314997  12.3899988  80.1717600 135.9076906  11.7256379
  82.8610012 143.4804997  12.0299988  82.1210012 144.0784997  12.1339988
  83.5750012 144.0344997  11.7149988  82.8562237 143.6372831  12.0016465
  90.9680012 136.3084997   8.0499988  90.7520012 135.5424997   8.5829988
  91.6230012 136.7804997   8.5629988  91.0270632 136.2675889   8.1922861
  79.8850012 137.6964997   9.6949988  80.4990012 138.3294997  10.0689988
  80.3970012 137.2244997   9.0389988  80.0382296 137.7192370   9.6574252
  91.3150012 135.0234997  11.7299988  90.5790012 135.6344997  11.6919988
  91.9980012 135.4384997  11.2029988  91.3066541 135.1631374  11.6535832
  84.3180012 133.1104997   9.1959988  84.2010012 132.1614997   9.1409988
  83.4630012 133.4424997   9.4689988  84.1863733 133.0255409   9.2253897
  92.1120012 144.9854997  13.9239988  92.2520012 144.3944997  13.1839988
  92.2790012 145.8584997  13.5669988  92.1536778 145.0226426  13.7746965
  86.5850012 141.9474997   3.6959988  85.8730012 142.4824997   3.3439988
  87.2760012 142.0034997   3.0359988  86.5810132 142.0282543   3.5586289
  86.6380012 140.4054997   0.7349988  87.3390012 140.4274997   1.3859988
  86.9410012 139.7774997   0.0789988  86.7747830 140.3236566   0.7353711
  93.9540012 141.3254997  11.9899988  93.3010012 142.0204997  12.0789988
  94.4190012 141.5354997  11.1799988  93.9275390 141.4489425  11.8926883
  89.9900012 142.1574997   4.6479988  89.2580012 142.3854997   5.2209988
  90.4380012 141.4434997   5.1029988  89.9503095 142.0922571   4.7879119
  89.8880012 140.3314997  13.7149988  89.9680012 141.0944997  14.2869988
  89.2860012 140.6104997  13.0249988  89.8175756 140.4737134  13.7000589
  81.6360012 142.7874997   6.5299988  81.3050012 142.4174997   5.7119988
  82.2240012 142.1174997   6.8769988  81.6701873 142.6461156   6.4648102
  82.0020012 141.5564997  10.1639988  82.5680012 141.6774997   9.4009988
  82.3210012 142.1934997  10.8029988  82.1225786 141.6591884  10.1460040
  88.8610012 141.3194997   2.3329988  89.4410012 141.4694997   3.0799988
  89.2750012 141.7904997   1.6099988  88.9962830 141.4036841   2.3374134
  79.8020012 142.1534997  14.1099988  79.8730012 142.8044997  14.8079988
  78.9120012 142.2564997  13.7749988  79.6913117 142.2565936  14.1602700
  92.5600012 133.0694997   2.1459988  91.6600012 133.2084997   2.4409988
  92.8120012 133.9004997   1.7439988  92.4708702 133.2009074   2.1320205
  80.6260012 141.8574997   4.1199988  80.3340012 142.6254997   3.6289988
  79.9520012 141.1974997   3.9569988  80.4949081 141.8734406   4.0307340
  76.7190012 144.2204997  12.9349988  76.2180012 144.1924997  12.1199988
  76.7240012 143.3144997  13.2439988  76.6511526 144.0942278  12.8652872
  91.8190012 139.1594997  15.9809988  91.4120012 139.6404997  15.2599988
  91.8600012 138.2544997  15.6729988  91.7688437 139.1029374  15.8406683
  81.5870012 134.0134997   9.9729988  80.7250012 133.9264997   9.5659988
  81.5640012 134.8694997  10.4009988  81.4660330 134.1172765   9.9751863
  86.2500012 133.7354997  13.3479988  86.6700012 133.3204997  14.1009988
  85.3170012 133.5574997  13.4649988  86.1813644 133.6545900  13.4669539
  89.5760012 137.4914997  14.2009988  89.0620012 137.3654997  14.9989988
  89.4210012 138.4034997  13.9569988  89.4846852 137.5976132  14.2772158
  90.3390012 142.3524997  -0.0370012  90.3810012 142.1294997  -0.9670012
  91.1880012 142.7514997   0.1529988  90.4595396 142.3759155  -0.1386373
  85.9110012 136.2284997   0.6329988  85.6580012 136.2474997   1.5559988
  85.6550012 135.3564997   0.3319988  85.8417790 136.1132437   0.7186263
  81.6780012 138.9794997  11.0679988  81.0360012 138.9384997  11.7769988
  81.7150012 139.9054997  10.8309988  81.5951324 139.0991559  11.1329824
  81.6750012 139.2004997   5.9799988  80.7820012 138.8594997   5.9219988
  82.1250012 138.8234997   5.2249988  81.6137305 139.1028484   5.8699177
  87.2100012 139.6164997   4.7969988  86.8010012 140.4314997   4.5059988
  87.9310012 139.4764997   4.1829988  87.2514537 139.7092018   4.6741342
  86.3120012 139.7914997  16.2849988  85.7500012 139.0874997  16.6059988
  87.1390012 139.6714997  16.7529988  86.3467095 139.6787883  16.3922330
  88.2150012 139.0624997   7.6109988  88.0200012 139.6674997   6.8959988
  88.3960012 138.2284997   7.1769988  88.2127614 139.0326300   7.4544405
  79.4280012 139.2994997  12.9349988  79.3900012 139.6994997  13.8039988
  78.9370012 138.4824997  13.0259988  79.3564684 139.2438069  13.0661059
  82.7940012 136.6734997  -0.2660012  82.3630012 136.2284997   0.4639988
  82.0760012 137.0454997  -0.7780012  82.6379438 136.6628940  -0.2353201
  76.0360012 136.4154997   6.7859988  76.6670012 136.3864997   7.5049988
  76.4850012 135.9904997   6.0559988  76.1830774 136.3540492   6.7856553
  77.3100012 137.1614997   2.2099988  77.7840012 137.7524997   1.6249988
  76.5930012 137.6924997   2.5569988  77.2779341 137.3140867   2.1768836
  87.4790012 140.7004997  12.2829988  87.8020012 140.0694997  11.6399988
  87.0390012 140.1654997  12.9429988  87.4636895 140.5418441  12.2842850
  84.2560012 136.6274997   7.0669988  83.3450012 136.6844997   7.3549988
  84.7620012 136.5674997   7.8769988  84.1995413 136.6271985   7.2160622
  79.0850012 138.2564997   5.8929988  78.1950012 138.3564997   5.5529988
  79.3810012 137.4144997   5.5469988  79.0032823 138.1563545   5.7997213
  82.7380012 138.2564997   3.5499988  83.6690012 138.3854997   3.7279988
  82.5230012 138.9264997   2.8999988  82.8364247 138.3646565   3.4865747
  88.6610012 135.8624997  10.3309988  87.9850012 135.9934997  10.9949988
  88.1760012 135.7074997   9.5209988  88.5027145 135.8594905  10.3124517
  81.4120012 139.4514997   1.1169988  80.8690012 139.0714997   0.4249988
  82.2450012 139.6454997   0.6879988  81.4504399 139.4258124   0.9644526
  79.5470012 144.0084997  16.2159988  80.2790012 144.2624997  16.7769988
  78.7670012 144.2124997  16.7309988  79.5418232 144.0709177  16.3625760
  85.5760012 139.4154997   8.9539988  86.1410012 138.8684997   8.4069988
  85.4290012 138.8934997   9.7419988  85.6332918 139.2702024   8.9858454
  80.5780012 135.5514997   5.3719988  80.2610012 134.6494997   5.3369988
  81.3600012 135.5534997   4.8189988  80.6402284 135.4281628   5.2924783
  84.2030012 137.8034997  11.3679988  83.3670012 138.2574997  11.4779988
  84.7270012 138.0794997  12.1199988  84.1594414 137.9029376  11.4847136
  84.7470012 144.0164997   3.0519988  84.0020012 143.5094997   2.7299988
  84.6130012 144.0654997   3.9989988  84.6268776 143.9536940   3.1358647
  91.8970012 143.1494997  11.8389988  92.5390012 143.6064997  11.2949988
  91.0670012 143.2624997  11.3759988  91.8725963 143.2272704  11.7020177
  88.6450012 136.8304997   1.2519988  87.7060012 136.9424997   1.0999988
  88.9420012 137.6874997   1.5579988  88.5567666 136.9616443   1.2725768
  86.2660012 144.2004997  14.2889988  85.9210012 143.8194997  15.0959988
  86.0660012 145.1344997  14.3609988  86.1918061 144.2745228  14.4090961
  89.3630012 138.6974997   2.9119988  90.2550012 138.5604997   3.2309988
  89.4200012 139.4884997   2.3759988  89.4926285 138.7856660   2.8831691
  79.8720012 143.3114997   8.8219988  80.6170012 143.3094997   8.2209988
  79.9500012 142.4884997   9.3039988  79.9845518 143.1999315   8.8048929
  76.8800012 141.7724997  14.1369988  77.1030012 141.3544997  14.9689988
  76.2780012 141.1594997  13.7139988  76.8291759 141.6324668  14.1937022
  83.8960012 141.2894997  16.3499988  83.6000012 141.1234997  15.4549988
  84.8280012 141.0694997  16.3389988  83.9814166 141.2370640  16.2260536
  94.2480012 138.9074997   2.6069988  93.6940012 138.5114997   1.9349988
  94.3480012 139.8174997   2.3289988  94.1857059 138.9763586   2.4774401
  94.2110012 144.7074997  15.4439988  93.3600012 144.9454997  15.0769988
  94.8020012 144.6904997  14.6909988  94.1742487 144.7378258  15.2918893
  89.7040012 142.5014997  10.0929988  88.7750012 142.2694997  10.0659988
  90.1550012 141.7244997   9.7629988  89.6379216 142.3647238  10.0446917
  78.0020012 141.6914997   0.8129988  78.6180012 142.3184997   1.1929988
  77.1400012 142.0074997   1.0849988  77.9697698 141.8199430   0.9017183
  83.6740012 144.4924997   5.8029988  83.4330012 145.4174997   5.8439988
  82.9330012 144.0334997   6.1989988  83.5408409 144.5571421   5.8621377
  87.7330012 144.7404997  11.8179988  87.3070012 144.5134997  12.6449988
  88.3130012 144.0024997  11.6359988  87.7531868 144.6095299  11.9065830
  78.5140012 136.5254997  13.6949988  77.6210012 136.8644997  13.6269988
  78.4150012 135.6704997  14.1129988  78.3784164 136.4562588  13.7422235
  90.8020012 144.3424997   3.1189988  90.5240012 143.6144997   3.6749988
  91.7290012 144.4614997   3.3239988  90.8893124 144.2588802   3.2228845
  79.4170012 143.6044997   2.3059988  78.7310012 143.9564997   2.8729988
  79.9390012 144.3674997   2.0589988  79.3936852 143.7558578   2.3502118
  87.2480012 136.2664997  12.5849988  87.9470012 136.3404997  13.2349988
  86.8670012 135.4024997  12.7389988  87.2921767 136.1597624  12.6948322
  88.0330012 135.9184997   3.6819988  88.2530012 136.3904997   2.8789988
  88.5910012 136.3134997   4.3519988  88.1384968 136.0364285   3.6627331
  85.2330012 137.6464997   4.5169988  86.0450012 138.1514997   4.5629988
  84.9880012 137.5014997   5.4309988  85.3110520 137.6960375   4.6468517
  85.7680012 138.6324997  13.7019988  85.8870012 139.2064997  14.4589988
  86.4240012 137.9444997  13.8159988  85.8729757 138.6181079  13.8210825
  86.1160012 134.7274997   5.4549988  85.7700012 135.3454997   6.0999988
  86.7750012 135.2284997   4.9739988  86.1577826 134.8795802   5.4780971
  81.7740012 135.7904997   2.1419988  81.6910012 136.6794997   2.4889988
  82.6640012 135.5254997   2.3739988  81.8829469 135.8761430   2.2207626
  91.9730012 136.5394997  14.5369988  91.0560012 136.8024997  14.4489988
  92.3080012 136.5364997  13.6399988  91.8929900 136.5750224  14.4037919
  90.5750012 140.2904997   8.6319988  89.7770012 139.8754997   8.3039988
  91.0200012 139.5994997   9.1229988  90.5259885 140.1403543   8.6534889
  78.3490012 138.8824997   0.3189988  78.3040012 139.8214997   0.4969988
  77.4610012 138.6464997   0.0489988  78.2228574 138.9791892   0.3068912
  79.1570012 133.6644997   8.9919988  78.9280012 133.7234997   8.0639988
  78.7140012 132.8724997   9.2979988  79.0658530 133.5655753   8.9064786
  77.2820012 144.0274997  17.4369988  77.4260012 143.1254997  17.1499988
  76.5100012 144.3134997  16.9489988  77.1973322 143.9428261  17.3317881
  81.6240012 144.3714997  -0.4310012  81.6880012 143.5774997   0.0999988
  82.2770012 144.2524997  -1.1210012  81.7210241 144.2467148  -0.4515683
  83.9380012 143.9974997  16.8689988  83.6090012 144.2684997  16.0119988
  84.0900012 143.0564997  16.7819988  83.9134809 143.9073862  16.7398244
  89.6720012 143.9134997  14.2529988  90.4180012 144.5014997  14.1329988
  88.9150012 144.4954997  14.3159988  89.6717554 144.0727011  14.2450907
  78.1150012 141.2274997  16.8569988  78.5230012 140.3704997  16.7359988
  77.8550012 141.2424997  17.7779988  78.1357568 141.1120807  16.9649588
  82.7730012 142.3434997   1.8749988  82.3130012 141.8594997   2.5609988
  83.0280012 141.6754997   1.2389988  82.7444902 142.1868731   1.8829334
  82.0620012 140.2364997  14.2309988  81.4440012 140.9114997  14.5109988
  82.4060012 140.5574997  13.3979988  82.0239615 140.3722721  14.1566581
  83.8440012 140.5864997   0.1369988  83.6640012 140.4324997  -0.7900012
  84.7940012 140.6944997   0.1819988  83.9477776 140.5800175   0.0161843
  87.0820012 142.7084997  17.5079988  88.0350012 142.7914997  17.4809988
  86.9210012 141.9964997  18.1279988  87.1906426 142.6236746  17.5880579
  93.2340012 142.9414997  -0.4170012  92.9600012 142.5164997  -1.2300012
  93.2730012 143.8724997  -0.6340012  93.2017699 143.0092484  -0.5576390
  82.4010012 137.5914997  15.3129988  82.5510012 136.8624997  14.7109988
  82.4040012 138.3684997  14.7539988  82.4219302 137.5967851  15.1550692
  82.8140012 135.9614997  12.8059988  83.3500012 136.4124997  12.1539988
  81.9620012 135.8534997  12.3829988  82.7722178 136.0086390  12.6595756
  84.3960012 141.4004997  13.0449988  85.1460012 141.2444997  12.4719988
  84.0570012 142.2524997  12.7699988  84.4528921 141.4942968  12.9293561
  88.8110012 139.2154997  18.0739988  89.0040012 138.2844997  17.9619988
  89.6690012 139.6404997  18.0639988  88.9533020 139.1456389  18.0573361
  90.1280012 142.0044997  16.1509988  89.8470012 142.7134997  15.5739988
  91.0710012 141.9314997  15.9999988  90.2169027 142.0917646  16.0515551
  80.8800012 138.7894997  17.2249988  80.1130012 138.2574997  17.0149988
  81.5590012 138.4794997  16.6249988  80.8667022 138.6747506  17.1151648
  83.6200012 133.4174997  13.2369988  83.5210012 134.3644997  13.1319988
  82.8770012 133.0454997  12.7619988  83.5060564 133.4965902  13.1584560
  84.8840012 137.7394997  16.8009988  84.6480012 137.5194997  17.7029988
  84.1000012 137.5324997  16.2909988  84.7458628 137.6814760  16.8553932
  87.5990012 136.8664997  15.8769988  86.6520012 136.8984997  16.0089988
  87.9120012 136.2414997  16.5299988  87.5115475 136.7863207  15.9834455
  89.2330012 135.5004997  17.8819988  89.1370012 134.5484997  17.8759988
  88.9120012 135.7694997  18.7419988  89.1764070 135.4064035  17.9975441
  79.0600012 136.7104997  16.9289988  79.2720012 136.0034997  16.3189988
  78.9490012 136.2724997  17.7729988  79.0739721 136.5547084  16.9596843
  83.8410012 132.7114997  15.9089988  84.5530012 132.0714997  15.8949988
  83.7400012 132.9784997  14.9949988  83.9247939 132.6599938  15.7835650
  84.1950012 134.3944997  17.9619988  84.0630012 133.9184997  17.1419988
  83.5960012 135.1384997  17.9069988  84.0959071 134.4299618  17.8422886
  93.6920012 143.8104997   3.5579988  94.5420012 144.2314997   3.6849988
  93.6980012 143.0704997   4.1649988  93.8091372 143.7680803   3.6574344
  94.0870012 141.8634997   5.3819988  93.3600012 141.3844997   5.7789988
  94.6680012 142.0694997   6.1139988  94.0659375 141.8257090   5.5354129
  93.8460012 144.6484997  10.3289988  94.6790012 144.2704997  10.0489988
  93.9580012 145.5914997  10.2099988  93.9752647 144.7242218  10.2745487
  94.3550012 141.7644997   1.7729988  93.8330012 142.1214997   1.0539988
  94.3220012 142.4394997   2.4509988  94.2791634 141.9045413   1.7663145
  92.7040012 139.0044997   0.3239988  92.8000012 139.6714997  -0.3570012
  92.5640012 138.1884997  -0.1580012  92.6982135 138.9854500   0.1658491
  91.8730012 140.3844997   5.9449988  91.7230012 139.4394997   5.9239988
  91.5200012 140.6654997   6.7879988  91.8046625 140.2930441   6.0562346
  76.9090012 142.4624997   9.9549988  77.0930012 142.3804997   9.0189988
  77.7580012 142.3384997  10.3789988  77.0490139 142.4345003   9.8841455
  92.7300012 142.3544997  15.5829988  93.3130012 141.6204997  15.7749988
  93.2940012 143.1264997  15.6299988  92.8859769 142.3584227  15.6156159
  94.2260012 140.2574997  16.2679988  93.3630012 139.8784997  16.1019988
  94.8310012 139.5184997  16.1939988  94.1895979 140.1058023  16.2352817
  91.9510012 136.4124997  -0.5590012  92.5620012 136.0414997   0.0779988
  91.1150012 135.9914997  -0.3630012  91.9215032 136.3047554  -0.4452965
  91.5840012 137.9674997   4.4069988  91.8640012 137.0604997   4.5309988
  92.3430012 138.4014997   4.0179988  91.7249277 137.9020942   4.3713682
  92.1960012 138.5484997   9.8429988  93.1290012 138.7604997   9.8089988
  91.9610012 138.6504997  10.7649988  92.2918036 138.5912769   9.9629976
  92.2250012 139.2854997  12.6189988  91.3820012 139.5534997  12.9849988
  92.6670012 140.1074997  12.4079988  92.1694158 139.4333291  12.6405491
  76.5060012 137.7334997  16.0959988  77.4260012 137.6114997  16.3319988
  76.0570012 136.9834997  16.4849988  76.5711580 137.6153727  16.1809006
  94.5080012 133.2654997  17.9719988  94.8580012 132.6114997  17.3669988
  94.6550012 134.1024997  17.5329988  94.5758419 133.2891591  17.8297118
  92.1970012 135.2304997   4.4549988  92.3800012 134.7814997   5.2809988
  91.5980012 134.6454997   3.9919988  92.1410202 135.0899975   4.5053275
  77.7270012 136.0454997   8.9869988  78.1730012 135.2534997   9.2889988
  78.1940012 136.7614997   9.4179988  77.8510172 136.0340624   9.0864820
  76.0310012 139.0444997  10.0559988  76.5230012 138.8234997   9.2649988
  76.3940012 139.8854997  10.3369988  76.1473126 139.1278357   9.9857531
  94.0280012 135.3744997  16.3219988  93.1100012 135.6454997  16.2859988
  94.1510012 134.8394997  15.5369988  93.9191066 135.3392892  16.2110487
  94.0640012 135.2974997   0.9829988  94.4760012 134.5764997   0.5079988
  94.7460012 135.9674997   1.0419988  94.2125885 135.2892368   0.9258915
  76.3450012 135.3024997   4.1099988  75.4200012 135.5114997   3.9809988
  76.7990012 135.7864997   3.4209988  76.2797368 135.3965993   3.9991226
  76.3090012 134.0404997  12.4549988  75.6440012 133.7944997  13.0979988
  75.8660012 134.6624997  11.8769988  76.1580956 134.0908632  12.4649352
  93.0280012 133.4644997  14.1409988  92.2160012 133.7894997  13.7529988
  93.2610012 132.7044997  13.6079988  92.9483423 133.4062436  14.0158253
  86.4580012 134.9134997   8.4629988  85.7840012 134.2844997   8.7189988
  87.0220012 134.4294997   7.8599988  86.4419230 134.7618744   8.4165340
  91.6010012 133.0214997   8.5759988  92.2050012 133.5684997   8.0739988
  90.7310012 133.3404997   8.3359988  91.5661241 133.1395806   8.4747654
  93.3280012 134.1594997   6.9089988  93.9400012 133.6454997   6.3829988
  93.7100012 135.0374997   6.9329988  93.4634540 134.2077140   6.8401830
  78.7850012 133.5474997   6.2849988  78.0080012 133.3134997   5.7779988
  79.3150012 132.7504997   6.2939988  78.7502330 133.4076988   6.2167742
  77.6210012 133.3454997   2.0889988  78.0600012 133.9564997   1.4969988
  76.9880012 133.8834997   2.5629988  77.5954514 133.5019257   2.0720930
  83.3640012 133.4744997   6.0989988  84.2390012 133.8624997   6.0689988
  83.2280012 133.2594997   7.0209988  83.4653695 133.4985184   6.2196440
  88.9210012 133.5044997   7.7479988  88.9970012 133.5994997   6.7979988
  88.6460012 132.5964997   7.8769988  88.8942321 133.3947867   7.6355079
  90.2740012 133.5304997   3.4399988  89.5720012 134.1454997   3.2309988
  89.8300012 132.6924997   3.5709988  90.1176330 133.5015783   3.4290328
  79.4820012 135.2614997   0.5309988  79.9740012 134.6314997   0.0039988
  80.1060012 135.5574997   1.1949988  79.6335446 135.2153199   0.5485980
  84.5080012 135.5544997   2.9879988  84.6860012 134.9084997   3.6709988
  84.4550012 136.3884997   3.4559988  84.5251829 135.5787985   3.1445940
  78.7430012 134.0614997  15.8029988  78.3770012 133.2964997  16.2459988
  79.6560012 134.0904997  16.0899988  78.8162790 133.9607224  15.9024070
  80.7160012 133.4124997  17.3389988  81.6140012 133.1384997  17.1539988
  80.3290012 132.6694997  17.8029988  80.7866612 133.2745914  17.3763643
  89.1370012 132.7444997  17.5209988  89.2140012 132.3184997  18.3749988
  90.0310012 132.7584997  17.1779988  89.2683428 132.6880880  17.5915310
 106.7190012 142.7034997   6.2439988 106.8080012 143.6474997   6.1119988
 106.0810012 142.4284997   5.5859988 106.6449081 142.7954830   6.1369614
 105.6520012 141.9584997   9.6629988 105.6140012 141.3124997  10.3679988
 105.3300012 141.4924997   8.8919988 105.6032333 141.8069408   9.6552978
  98.0210012 141.5734997  11.2559988  98.0620012 140.9474997  11.9789988
  98.7240012 142.1974997  11.4379988  98.1216363 141.5721196  11.3796044
 109.3580012 144.8974997   7.9639988 108.9180012 144.1774997   8.4149988
 109.3450012 145.6184997   8.5939988 109.2960226 144.8963731   8.1108494
  95.5540012 139.6834997   5.1839988  95.1070012 140.5294997   5.1649988
  94.9930012 139.1034997   4.6679988  95.4169900 139.7209916   5.1116801
  96.2650012 141.8454997   7.3099988  96.4780012 141.0754997   7.8369988
  97.0030012 141.9344997   6.7059988  96.3938496 141.7521394   7.3005300
 104.0420012 144.3914997  10.0689988 104.3460012 143.7054997   9.4739988
 104.7630012 144.5094997  10.6869988 104.1810671 144.3136305  10.0711816
 112.7050012 135.9924997  10.9299988 112.7540012 136.6024997  11.6659988
 113.1300012 136.4534997  10.2069988 112.7691824 136.1383741  10.9330205
 107.1830012 138.7854997  10.3969988 107.3250012 137.8394997  10.4169988
 107.0760012 138.9924997   9.4679988 107.1879864 138.6839534  10.2742339
 100.3370012 136.8864997   7.6689988 100.3810012 137.7464997   7.2509988
  99.8800012 136.3344997   7.0349988 100.2812185 136.9295799   7.5260299
 108.0600012 137.0174997   6.0699988 108.7060012 136.6884997   6.6949988
 108.5700012 137.5354997   5.4469988 108.2174264 137.0424611   6.0713862
  96.9580012 139.2834997   8.4309988  97.6110012 138.7334997   8.8629988
  96.9820012 139.0094997   7.5139988  97.0506683 139.1711466   8.3662123
 102.1140012 140.8334997   7.6459988 102.7300012 140.3074997   8.1559988
 101.5280012 140.1934997   7.2429988 102.1190810 140.6749208   7.6613173
 113.0960012 137.4704997  13.1659988 112.4080012 138.1284997  13.0699988
 113.1120012 137.2734997  14.1019988 113.0038525 137.5340462  13.2794808
  99.1480012 135.8044997  11.7429988  98.9290012 136.3344997  10.9769988
  98.4800012 136.0314997  12.3899988  99.0277600 135.9076906  11.7256379
 101.7170012 143.4804997  12.0299988 100.9770012 144.0784997  12.1339988
 102.4310012 144.0344997  11.7149988 101.7122237 143.6372831  12.0016465
 109.8240012 136.3084997   8.0499988 109.6080012 135.5424997   8.5829988
 110.4790012 136.7804997   8.5629988 109.8830632 136.2675889   8.1922861
  98.7410012 137.6964997   9.6949988  99.3550012 138.3294997  10.0689988
  99.2530012 137.2244997   9.0389988  98.8942296 137.7192370   9.6574252
 110.1710012 135.0234997  11.7299988 109.4350012 135.6344997  11.6919988
 110.8540012 135.4384997  11.2029988 110.1626541 135.1631374  11.6535832
 103.1740012 133.1104997   9.1959988 103.0570012 132.1614997   9.1409988
 102.3190012 133.4424997   9.4689988 103.0423733 133.0255409   9.2253897
 110.9680012 144.9854997  13.9239988 111.1080012 144.3944997  13.1839988
 111.1350012 145.8584997  13.5669988 111.0096778 145.0226426  13.7746965
 105.4410012 141.9474997   3.6959988 104.7290012 142.4824997   3.3439988
 106.1320012 142.0034997   3.0359988 105.4370132 142.0282543   3.5586289
 105.4940012 140.4054997   0.7349988 106.1950012 140.4274997   1.3859988
 105.7970012 139.7774997   0.0789988 105.6307830 140.3236566   0.7353711
 112.8100012 141.3254997  11.9899988 112.1570012 142.0204997  12.0789988
 113.2750012 141.5354997  11.1799988 112.7835390 141.4489425  11.8926883
 108.8460012 142.1574997   4.6479988 108.1140012 142.3854997   5.2209988
 109.2940012 141.4434997   5.1029988 108.8063095 142.0922571   4.7879119
 108.7440012 140.3314997  13.7149988 108.8240012 141.0944997  14.2869988
 108.1420012 140.6104997  13.0249988 108.6735756 140.4737134  13.7000589
 100.4920012 142.7874997   6.5299988 100.1610012 142.4174997   5.7119988
 101.0800012 142.1174997   6.8769988 100.5261873 142.6461156   6.4648102
 100.8580012 141.5564997  10.1639988 101.4240012 141.6774997   9.4009988
 101.1770012 142.1934997  10.8029988 100.9785786 141.6591884  10.1460040
 107.7170012 141.3194997   2.3329988 108.2970012 141.4694997   3.0799988
 108.1310012 141.7904997   1.6099988 107.8522830 141.4036841   2.3374134
  98.6580012 142.1534997  14.1099988  98.7290012 142.8044997  14.8079988
  97.7680012 142.2564997  13.7749988  98.5473117 142.2565936  14.1602700
 111.4160012 133.0694997   2.1459988 110.5160012 133.2084997   2.4409988
 111.6680012 133.9004997   1.7439988 111.3268702 133.2009074   2.1320205
  99.4820012 141.8574997   4.1199988  99.1900012 142.6254997   3.6289988
  98.8080012 141.1974997   3.9569988  99.3509081 141.8734406   4.0307340
  95.5750012 144.2204997  12.9349988  95.0740012 144.1924997  12.1199988
  95.5800012 143.3144997  13.2439988  95.5071526 144.0942278  12.8652872
 110.6750012 139.1594997  15.9809988 110.2680012 139.6404997  15.2599988
 110.7160012 138.2544997  15.6729988 110.6248437 139.1029374  15.8406683
 100.4430012 134.0134997   9.9729988  99.5810012 133.9264997   9.5659988
 100.4200012 134.8694997  10.4009988 100.3220330 134.1172765   9.9751863
 105.1060012 133.7354997  13.3479988 105.5260012 133.3204997  14.1009988
 104.1730012 133.5574997  13.4649988 105.0373644 133.6545900  13.4669539
 108.4320012 137.4914997  14.2009988 107.9180012 137.3654997  14.9989988
 108.2770012 138.4034997  13.9569988 108.3406852 137.5976132  14.2772158
 109.1950012 142.3524997  -0.0370012 109.2370012 142.1294997  -0.9670012
 110.0440012 142.7514997   0.1529988 109.3155396 142.3759155  -0.1386373
 104.7670012 136.2284997   0.6329988 104.5140012 136.2474997   1.5559988
 104.5110012 135.3564997   0.3319988 104.6977790 136.1132437   0.7186263
 100.5340012 138.9794997  11.0679988  99.8920012 138.9384997  11.7769988
 100.5710012 139.9054997  10.8309988 100.4511324 139.0991559  11.1329824
 100.5310012 139.2004997   5.9799988  99.6380012 138.8594997   5.9219988
 100.9810012 138.8234997   5.2249988 100.4697305 139.1028484   5.8699177
 106.0660012 139.6164997   4.7969988 105.6570012 140.4314997   4.5059988
 106.7870012 139.4764997   4.1829988 106.1074537 139.7092018   4.6741342
 105.1680012 139.7914997  16.2849988 104.6060012 139.0874997  16.6059988
 105.9950012 139.6714997  16.7529988 105.2027095 139.6787883  16.3922330
 107.0710012 139.0624997   7.6109988 106.8760012 139.6674997   6.8959988
 107.2520012 138.2284997   7.1769988 107.0687614 139.0326300   7.4544405
  98.2840012 139.2994997  12.9349988  98.2460012 139.6994997  13.8039988
  97.7930012 138.4824997  13.0259988  98.2124684 139.2438069  13.0661059
 101.6500012 136.6734997  -0.2660012 101.2190012 136.2284997   0.4639988
 100.9320012 137.0454997  -0.7780012 101.4939438 136.6628940  -0.2353201
  94.8920012 136.4154997   6.7859988  95.5230012 136.3864997   7.5049988
  95.3410012 135.9904997   6.0559988  95.0390774 136.3540492   6.7856553
  96.1660012 137.1614997   2.2099988  96.6400012 137.7524997   1.6249988
  95.4490012 137.6924997   2.5569988  96.1339341 137.3140867   2.1768836
 106.3350012 140.7004997  12.2829988 106.6580012 140.0694997  11.6399988
 105.8950012 140.1654997  12.9429988 106.3196895 140.5418441  12.2842850
 103.1120012 136.6274997   7.0669988 102.2010012 136.6844997   7.3549988
 103.6180012 136.5674997   7.8769988 103.0555413 136.6271985   7.2160622
  97.9410012 138.2564997   5.8929988  97.0510012 138.3564997   5.5529988
  98.2370012 137.4144997   5.5469988  97.8592823 138.1563545   5.7997213
 101.5940012 138.2564997   3.5499988 102.5250012 138.3854997   3.7279988
 101.3790012 138.9264997   2.8999988 101.6924247 138.3646565   3.4865747
 107.5170012 135.8624997  10.3309988 106.8410012 135.9934997  10.9949988
 107.0320012 135.7074997   9.5209988 107.3587145 135.8594905  10.3124517
 100.2680012 139.4514997   1.1169988  99.7250012 139.0714997   0.4249988
 101.1010012 139.6454997   0.6879988 100.3064399 139.4258124   0.9644526
  98.4030012 144.0084997  16.2159988  99.1350012 144.2624997  16.7769988
  97.6230012 144.2124997  16.7309988  98.3978232 144.0709177  16.3625760
 104.4320012 139.4154997   8.9539988 104.9970012 138.8684997   8.4069988
 104.2850012 138.8934997   9.7419988 104.4892918 139.2702024   8.9858454
  99.4340012 135.5514997   5.3719988  99.1170012 134.6494997   5.3369988
 100.2160012 135.5534997   4.8189988  99.4962284 135.4281628   5.2924783
 103.0590012 137.8034997  11.3679988 102.2230012 138.2574997  11.4779988
 103.5830012 138.0794997  12.1199988 103.0154414 137.9029376  11.4847136
 103.6030012 144.0164997   3.0519988 102.8580012 143.5094997   2.7299988
 103.4690012 144.0654997   3.9989988 103.4828776 143.9536940   3.1358647
 110.7530012 143.1494997  11.8389988 111.3950012 143.6064997  11.2949988
 109.9230012 143.2624997  11.3759988 110.7285963 143.2272704  11.7020177
 107.5010012 136.8304997   1.2519988 106.5620012 136.9424997   1.0999988
 107.7980012 137.6874997   1.5579988 107.4127666 136.9616443   1.2725768
 105.1220012 144.2004997  14.2889988 104.7770012 143.8194997  15.0959988
 104.9220012 145.1344997  14.3609988 105.0478061 144.2745228  14.4090961
 108.2190012 138.6974997   2.9119988 109.1110012 138.5604997   3.2309988
 108.2760012 139.4884997   2.3759988 108.3486285 138.7856660   2.8831691
  98.7280012 143.3114997   8.8219988  99.4730012 143.3094997   8.2209988
  98.8060012 142.4884997   9.3039988  98.8405518 143.1999315   8.8048929
  95.7360012 141.7724997  14.1369988  95.9590012 141.3544997  14.9689988
  95.1340012 141.1594997  13.7139988  95.6851759 141.6324668  14.1937022
 102.7520012 141.2894997  16.3499988 102.4560012 141.1234997  15.4549988
 103.6840012 141.0694997  16.3389988 102.8374166 141.2370640  16.2260536
 113.1040012 138.9074997   2.6069988 112.5500012 138.5114997   1.9349988
 113.2040012 139.8174997   2.3289988 113.0417059 138.9763586   2.4774401
 113.0670012 144.7074997  15.4439988 112.2160012 144.9454997  15.0769988
 113.6580012 144.6904997  14.6909988 113.0302487 144.7378258  15.2918893
 108.5600012 142.5014997  10.0929988 107.6310012 142.2694997  10.0659988
 109.0110012 141.7244997   9.7629988 108.4939216 142.3647238  10.0446917
  96.8580012 141.6914997   0.8129988  97.4740012 142.3184997   1.1929988
  95.9960012 142.0074997   1.0849988  96.8257698 141.8199430   0.9017183
 102.5300012 144.4924997   5.8029988 102.2890012 145.4174997   5.8439988
 101.7890012 144.0334997   6.1989988 102.3968409 144.5571421   5.8621377
 106.5890012 144.7404997  11.8179988 106.1630012 144.5134997  12.6449988
 107.1690012 144.0024997  11.6359988 106.6091868 144.6095299  11.9065830
  97.3700012 136.5254997  13.6949988  96.4770012 136.8644997  13.6269988
  97.2710012 135.6704997  14.1129988  97.2344164 136.4562588  13.7422235
 109.6580012 144.3424997   3.1189988 109.3800012 143.6144997   3.6749988
 110.5850012 144.4614997   3.3239988 109.7453124 144.2588802   3.2228845
  98.2730012 143.6044997   2.3059988  97.5870012 143.9564997   2.8729988
  98.7950012 144.3674997   2.0589988  98.2496852 143.7558578   2.3502118
 106.1040012 136.2664997  12.5849988 106.8030012 136.3404997  13.2349988
 105.7230012 135.4024997  12.7389988 106.1481767 136.1597624  12.6948322
 106.8890012 135.9184997   3.6819988 107.1090012 136.3904997   2.8789988
 107.4470012 136.3134997   4.3519988 106.9944968 136.0364285   3.6627331
 104.0890012 137.6464997   4.5169988 104.9010012 138.1514997   4.5629988
 103.8440012 137.5014997   5.4309988 104.1670520 137.6960375   4.6468517
 104.6240012 138.6324997  13.7019988 104.7430012 139.2064997  14.4589988
 105.2800012 137.9444997  13.8159988 104.7289757 138.6181079  13.8210825
 104.9720012 134.7274997   5.4549988 104.6260012 135.3454997   6.0999988
 105.6310012 135.2284997   4.9739988 105.0137826 134.8795802   5.4780971
 100.6300012 135.7904997   2.1419988 100.5470012 136.6794997   2.4889988
 101.5200012 135.5254997   2.3739988 100.7389469 135.8761430   2.2207626
 110.8290012 136.5394997  14.5369988 109.9120012 136.8024997  14.4489988
 111.1640012 136.5364997  13.6399988 110.7489900 136.5750224  14.4037919
 109.4310012 140.2904997   8.6319988 108.6330012 139.8754997   8.3039988
 109.8760012 139.5994997   9.1229988 109.3819885 140.1403543   8.6534889
  97.2050012 138.8824997   0.3189988  97.1600012 139.8214997   0.4969988
  96.3170012 138.6464997   0.0489988  97.0788574 138.9791892   0.3068912
  98.0130012 133.6644997   8.9919988  97.7840012 133.7234997   8.0639988
  97.5700012 132.8724997   9.2979988  97.9218530 133.5655753   8.9064786
  96.1380012 144.0274997  17.4369988  96.2820012 143.1254997  17.1499988
  95.3660012 144.3134997  16.9489988  96.0533322 143.9428261  17.3317881
 100.4800012 144.3714997  -0.4310012 100.5440012 143.5774997   0.0999988
 101.1330012 144.2524997  -1.1210012 100.5770241 144.2467148  -0.4515683
 102.7940012 143.9974997  16.8689988 102.4650012 144.2684997  16.0119988
 102.9460012 143.0564997  16.7819988 102.7694809 143.9073862  16.7398244
 108.5280012 143.9134997  14.2529988 109.2740012 144.5014997  14.1329988
 107.7710012 144.4954997  14.3159988 108.5277554 144.0727011  14.2450907
  96.9710012 141.2274997  16.8569988  97.3790012 140.3704997  16.7359988
  96.7110012 141.2424997  17.7779988  96.9917568 141.1120807  16.9649588
 101.6290012 142.3434997   1.8749988 101.1690012 141.8594997   2.5609988
 101.8840012 141.6754997   1.2389988 101.6004902 142.1868731   1.8829334
 100.9180012 140.2364997  14.2309988 100.3000012 140.9114997  14.5109988
 101.2620012 140.5574997  13.3979988 100.8799615 140.3722721  14.1566581
 102.7000012 140.5864997   0.1369988 102.5200012 140.4324997  -0.7900012
 103.6500012 140.6944997   0.1819988 102.8037776 140.5800175   0.0161843
 105.9380012 142.7084997  17.5079988 106.8910012 142.7914997  17.4809988
 105.7770012 141.9964997  18.1279988 106.0466426 142.6236746  17.5880579
 112.0900012 142.9414997  -0.4170012 111.8160012 142.5164997  -1.2300012
 112.1290012 143.8724997  -0.6340012 112.0577699 143.0092484  -0.5576390
 101.2570012 137.5914997  15.3129988 101.4070012 136.8624997  14.7109988
 101.2600012 138.3684997  14.7539988 101.2779302 137.5967851  15.1550692
 101.6700012 135.9614997  12.8059988 102.2060012 136.4124997  12.1539988
 100.8180012 135.8534997  12.3829988 101.6282178 136.0086390  12.6595756
 103.2520012 141.4004997  13.0449988 104.0020012 141.2444997  12.4719988
 102.9130012 142.2524997  12.7699988 103.3088921 141.4942968  12.9293561
 107.6670012 139.2154997  18.0739988 107.8600012 138.2844997  17.9619988
 108.5250012 139.6404997  18.0639988 107.8093020 139.1456389  18.0573361
 108.9840012 142.0044997  16.1509988 108.7030012 142.7134997  15.5739988
 109.9270012 141.9314997  15.9999988 109.0729027 142.0917646  16.0515551
  99.7360012 138.7894997  17.2249988  98.9690012 138.2574997  17.0149988
 100.4150012 138.4794997  16.6249988  99.7227022 138.6747506  17.1151648
 102.4760012 133.4174997  13.2369988 102.3770012 134.3644997  13.1319988
 101.7330012 133.0454997  12.7619988 102.3620564 133.4965902  13.1584560
 103.7400012 137.7394997  16.8009988 103.5040012 137.5194997  17.7029988
 102.9560012 137.5324997  16.2909988 103.6018628 137.6814760  16.8553932
 106.4550012 136.8664997  15.8769988 105.5080012 136.8984997  16.0089988
 106.7680012 136.2414997  16.5299988 106.3675475 136.7863207  15.9834455
 108.0890012 135.5004997  17.8819988 107.9930012 134.5484997  17.8759988
 107.7680012 135.7694997  18.7419988 108.0324070 135.4064035  17.9975441
  97.9160012 136.7104997  16.9289988  98.1280012 136.0034997  16.3189988
  97.8050012 136.2724997  17.7729988  97.9299721 136.5547084  16.9596843
 102.6970012 132.7114997  15.9089988 103.4090012 132.0714997  15.8949988
 102.5960012 132.9784997  14.9949988 102.7807939 132.6599938  15.7835650
 103.0510012 134.3944997  17.9619988 102.9190012 133.9184997  17.1419988
 102.4520012 135.1384997  17.9069988 102.9519071 134.4299618  17.8422886
 112.9430012 141.8634997   5.3819988 112.2160012 141.3844997   5.7789988
 113.5240012 142.0694997   6.1139988 112.9219375 141.8257090   5.5354129
 112.7020012 144.6484997  10.3289988 113.5350012 144.2704997  10.0489988
 112.8140012 145.5914997  10.2099988 112.8312647 144.7242218  10.2745487
 113.2110012 141.7644997   1.7729988 112.6890012 142.1214997   1.0539988
 113.1780012 142.4394997   2.4509988 113.1351634 141.9045413   1.7663145
 111.5600012 139.0044997   0.3239988 111.6560012 139.6714997  -0.3570012
 111.4200012 138.1884997  -0.1580012 111.5542135 138.9854500   0.1658491
 110.7290012 140.3844997   5.9449988 110.5790012 139.4394997   5.9239988
 110.3760012 140.6654997   6.7879988 110.6606625 140.2930441   6.0562346
  95.7650012 142.4624997   9.9549988  95.9490012 142.3804997   9.0189988
  96.6140012 142.3384997  10.3789988  95.9050139 142.4345003   9.8841455
 111.5860012 142.3544997  15.5829988 112.1690012 141.6204997  15.7749988
 112.1500012 143.1264997  15.6299988 111.7419769 142.3584227  15.6156159
 113.0820012 140.2574997  16.2679988 112.2190012 139.8784997  16.1019988
 113.6870012 139.5184997  16.1939988 113.0455979 140.1058023  16.2352817
 110.8070012 136.4124997  -0.5590012 111.4180012 136.0414997   0.0779988
 109.9710012 135.9914997  -0.3630012 110.7775032 136.3047554  -0.4452965
 110.4400012 137.9674997   4.4069988 110.7200012 137.0604997   4.5309988
 111.1990012 138.4014997   4.0179988 110.5809277 137.9020942   4.3713682
 111.0520012 138.5484997   9.8429988 111.9850012 138.7604997   9.8089988
 110.8170012 138.6504997  10.7649988 111.1478036 138.5912769   9.9629976
 111.0810012 139.2854997  12.6189988 110.2380012 139.5534997  12.9849988
 111.5230012 140.1074997  12.4079988 111.0254158 139.4333291  12.6405491
  95.3620012 137.7334997  16.0959988  96.2820012 137.6114997  16.3319988
  94.9130012 136.9834997  16.4849988  95.4271580 137.6153727  16.1809006
 113.3640012 133.2654997  17.9719988 113.7140012 132.6114997  17.3669988
 113.5110012 134.1024997  17.5329988 113.4318419 133.2891591  17.8297118
 111.0530012 135.2304997   4.4549988 111.2360012 134.7814997   5.2809988
 110.4540012 134.6454997   3.9919988 110.9970202 135.0899975   4.5053275
  96.5830012 136.0454997   8.9869988  97.0290012 135.2534997   9.2889988
  97.0500012 136.7614997   9.4179988  96.7070172 136.0340624   9.0864820
  94.8870012 139.0444997  10.0559988  95.3790012 138.8234997   9.2649988
  95.2500012 139.8854997  10.3369988  95.0033126 139.1278357   9.9857531
 112.8840012 135.3744997  16.3219988 111.9660012 135.6454997  16.2859988
 113.0070012 134.8394997  15.5369988 112.7751066 135.3392892  16.2110487
 112.9200012 135.2974997   0.9829988 113.3320012 134.5764997   0.5079988
 113.6020012 135.9674997   1.0419988 113.0685885 135.2892368   0.9258915
  95.2010012 135.3024997   4.1099988  94.2760012 135.5114997   3.9809988
  95.6550012 135.7864997   3.4209988  95.1357368 135.3965993   3.9991226
  95.1650012 134.0404997  12.4549988  94.5000012 133.7944997  13.0979988
  94.7220012 134.6624997  11.8769988  95.0140956 134.0908632  12.4649352
 111.8840012 133.4644997  14.1409988 111.0720012 133.7894997  13.7529988
 112.1170012 132.7044997  13.6079988 111.8043423 133.4062436  14.0158253
 105.3140012 134.9134997   8.4629988 104.6400012 134.2844997   8.7189988
 105.8780012 134.4294997   7.8599988 105.2979230 134.7618744   8.4165340
 110.4570012 133.0214997   8.5759988 111.0610012 133.5684997   8.0739988
 109.5870012 133.3404997   8.3359988 110.4221241 133.1395806   8.4747654
 112.1840012 134.1594997   6.9089988 112.7960012 133.6454997   6.3829988
 112.5660012 135.0374997   6.9329988 112.3194540 134.2077140   6.8401830
  97.6410012 133.5474997   6.2849988  96.8640012 133.3134997   5.7779988
  98.1710012 132.7504997   6.2939988  97.6062330 133.4076988   6.2167742
  96.4770012 133.3454997   2.0889988  96.9160012 133.9564997   1.4969988
  95.8440012 133.8834997   2.5629988  96.4514514 133.5019257   2.0720930
 102.2200012 133.4744997   6.0989988 103.0950012 133.8624997   6.0689988
 102.0840012 133.2594997   7.0209988 102.3213695 133.4985184   6.2196440
 107.7770012 133.5044997   7.7479988 107.8530012 133.5994997   6.7979988
 107.5020012 132.5964997   7.8769988 107.7502321 133.3947867   7.6355079
 109.1300012 133.5304997   3.4399988 108.4280012 134.1454997   3.2309988
 108.6860012 132.6924997   3.5709988 108.9736330 133.5015783   3.4290328
  98.3380012 135.2614997   0.5309988  98.8300012 134.6314997   0.0039988
  98.9620012 135.5574997   1.1949988  98.4895446 135.2153199   0.5485980
 103.3640012 135.5544997   2.9879988 103.5420012 134.9084997   3.6709988
 103.3110012 136.3884997   3.4559988 103.3811829 135.5787985   3.1445940
  97.5990012 134.0614997  15.8029988  97.2330012 133.2964997  16.2459988
  98.5120012 134.0904997  16.0899988  97.6722790 133.9607224  15.9024070
  99.5720012 133.4124997  17.3389988 100.4700012 133.1384997  17.1539988
  99.1850012 132.6694997  17.8029988  99.6426612 133.2745914  17.3763643
 107.9930012 132.7444997  17.5209988 108.0700012 132.3184997  18.3749988
 108.8870012 132.7584997  17.1779988 108.1243428 132.6880880  17.5915310
 125.5750012 142.7034997   6.2439988 125.6640012 143.6474997   6.1119988
 124.9370012 142.4284997   5.5859988 125.5009081 142.7954830   6.1369614
 124.5080012 141.9584997   9.6629988 124.4700012 141.3124997  10.3679988
 124.1860012 141.4924997   8.8919988 124.4592333 141.8069408   9.6552978
 116.8770012 141.5734997  11.2559988 116.9180012 140.9474997  11.9789988
 117.5800012 142.1974997  11.4379988 116.9776363 141.5721196  11.3796044
 128.2140012 144.8974997   7.9639988 127.7740012 144.1774997   8.4149988
 128.2010012 145.6184997   8.5939988 128.1520226 144.8963731   8.1108494
 114.4100012 139.6834997   5.1839988 113.9630012 140.5294997   5.1649988
 113.8490012 139.1034997   4.6679988 114.2729900 139.7209916   5.1116801
 115.1210012 141.8454997   7.3099988 115.3340012 141.0754997   7.8369988
 115.8590012 141.9344997   6.7059988 115.2498496 141.7521394   7.3005300
 122.8980012 144.3914997  10.0689988 123.2020012 143.7054997   9.4739988
 123.6190012 144.5094997  10.6869988 123.0370671 144.3136305  10.0711816
 131.5610012 135.9924997  10.9299988 131.6100012 136.6024997  11.6659988
 131.9860012 136.4534997  10.2069988 131.6251824 136.1383741  10.9330205
 126.0390012 138.7854997  10.3969988 126.1810012 137.8394997  10.4169988
 125.9320012 138.9924997   9.4679988 126.0439864 138.6839534  10.2742339
 119.1930012 136.8864997   7.6689988 119.2370012 137.7464997   7.2509988
 118.7360012 136.3344997   7.0349988 119.1372185 136.9295799   7.5260299
 126.9160012 137.0174997   6.0699988 127.5620012 136.6884997   6.6949988
 127.4260012 137.5354997   5.4469988 127.0734264 137.0424611   6.0713862
 115.8140012 139.2834997   8.4309988 116.4670012 138.7334997   8.8629988
 115.8380012 139.0094997   7.5139988 115.9066683 139.1711466   8.3662123
 120.9700012 140.8334997   7.6459988 121.5860012 140.3074997   8.1559988
 120.3840012 140.1934997   7.2429988 120.9750810 140.6749208   7.6613173
 131.9520012 137.4704997  13.1659988 131.2640012 138.1284997  13.0699988
 131.9680012 137.2734997  14.1019988 131.8598525 137.5340462  13.2794808
 118.0040012 135.8044997  11.7429988 117.7850012 136.3344997  10.9769988
 117.3360012 136.0314997  12.3899988 117.8837600 135.9076906  11.7256379
 120.5730012 143.4804997  12.0299988 119.8330012 144.0784997  12.1339988
 121.2870012 144.0344997  11.7149988 120.5682237 143.6372831  12.0016465
 128.6800012 136.3084997   8.0499988 128.4640012 135.5424997   8.5829988
 129.3350012 136.7804997   8.5629988 128.7390632 136.2675889   8.1922861
 117.5970012 137.6964997   9.6949988 118.2110012 138.3294997  10.0689988
 118.1090012 137.2244997   9.0389988 117.7502296 137.7192370   9.6574252
 129.0270012 135.0234997  11.7299988 128.2910012 135.6344997  11.6919988
 129.7100012 135.4384997  11.2029988 129.0186541 135.1631374  11.6535832
 122.0300012 133.1104997   9.1959988 121.9130012 132.1614997   9.1409988
 121.1750012 133.4424997   9.4689988 121.8983733 133.0255409   9.2253897
 129.8240012 144.9854997  13.9239988 129.9640012 144.3944997  13.1839988
 129.9910012 145.8584997  13.5669988 129.8656778 145.0226426  13.7746965
 124.2970012 141.9474997   3.6959988 123.5850012 142.4824997   3.3439988
 124.9880012 142.0034997   3.0359988 124.2930132 142.0282543   3.5586289
 124.3500012 140.4054997   0.7349988 125.0510012 140.4274997   1.3859988
 124.6530012 139.7774997   0.0789988 124.4867830 140.3236566   0.7353711
 131.6660012 141.3254997  11.9899988 131.0130012 142.0204997  12.0789988
 132.1310012 141.5354997  11.1799988 131.6395390 141.4489425  11.8926883
 127.7020012 142.1574997   4.6479988 126.9700012 142.3854997   5.2209988
 128.1500012 141.4434997   5.1029988 127.6623095 142.0922571   4.7879119
 127.6000012 140.3314997  13.7149988 127.6800012 141.0944997  14.2869988
 126.9980012 140.6104997  13.0249988 127.5295756 140.4737134  13.7000589
 119.3480012 142.7874997   6.5299988 119.0170012 142.4174997   5.7119988
 119.9360012 142.1174997   6.8769988 119.3821873 142.6461156   6.4648102
 119.7140012 141.5564997  10.1639988 120.2800012 141.6774997   9.4009988
 120.0330012 142.1934997  10.8029988 119.8345786 141.6591884  10.1460040
 126.5730012 141.3194997   2.3329988 127.1530012 141.4694997   3.0799988
 126.9870012 141.7904997   1.6099988 126.7082830 141.4036841   2.3374134
 117.5140012 142.1534997  14.1099988 117.5850012 142.8044997  14.8079988
 116.6240012 142.2564997  13.7749988 117.4033117 142.2565936  14.1602700
 130.2720012 133.0694997   2.1459988 129.3720012 133.2084997   2.4409988
 130.5240012 133.9004997   1.7439988 130.1828702 133.2009074   2.1320205
 118.3380012 141.8574997   4.1199988 118.0460012 142.6254997   3.6289988
 117.6640012 141.1974997   3.9569988 118.2069081 141.8734406   4.0307340
 114.4310012 144.2204997  12.9349988 113.9300012 144.1924997  12.1199988
 114.4360012 143.3144997  13.2439988 114.3631526 144.0942278  12.8652872
 129.5310012 139.1594997  15.9809988 129.1240012 139.6404997  15.2599988
 129.5720012 138.2544997  15.6729988 129.4808437 139.1029374  15.8406683
 119.2990012 134.0134997   9.9729988 118.4370012 133.9264997   9.5659988
 119.2760012 134.8694997  10.4009988 119.1780330 134.1172765   9.9751863
 123.9620012 133.7354997  13.3479988 124.3820012 133.3204997  14.1009988
 123.0290012 133.5574997  13.4649988 123.8933644 133.6545900  13.4669539
 127.2880012 137.4914997  14.2009988 126.7740012 137.3654997  14.9989988
 127.1330012 138.4034997  13.9569988 127.1966852 137.5976132  14.2772158
 128.0510012 142.3524997  -0.0370012 128.0930012 142.1294997  -0.9670012
 128.9000012 142.7514997   0.1529988 128.1715396 142.3759155  -0.1386373
 123.6230012 136.2284997   0.6329988 123.3700012 136.2474997   1.5559988
 123.3670012 135.3564997   0.3319988 123.5537790 136.1132437   0.7186263
 119.3900012 138.9794997  11.0679988 118.7480012 138.9384997  11.7769988
 119.4270012 139.9054997  10.8309988 119.3071324 139.0991559  11.1329824
 119.3870012 139.2004997   5.9799988 118.4940012 138.8594997   5.9219988
 119.8370012 138.8234997   5.2249988 119.3257305 139.1028484   5.8699177
 124.9220012 139.6164997   4.7969988 124.5130012 140.4314997   4.5059988
 125.6430012 139.4764997   4.1829988 124.9634537 139.7092018   4.6741342
 124.0240012 139.7914997  16.2849988 123.4620012 139.0874997  16.6059988
 124.8510012 139.6714997  16.7529988 124.0587095 139.6787883  16.3922330
 125.9270012 139.0624997   7.6109988 125.7320012 139.6674997   6.8959988
 126.1080012 138.2284997   7.1769988 125.9247614 139.0326300   7.4544405
 117.1400012 139.2994997  12.9349988 117.1020012 139.6994997  13.8039988
 116.6490012 138.4824997  13.0259988 117.0684684 139.2438069  13.0661059
 120.5060012 136.6734997  -0.2660012 120.0750012 136.2284997   0.4639988
 119.7880012 137.0454997  -0.7780012 120.3499438 136.6628940  -0.2353201
 113.7480012 136.4154997   6.7859988 114.3790012 136.3864997   7.5049988
 114.1970012 135.9904997   6.0559988 113.8950774 136.3540492   6.7856553
 115.0220012 137.1614997   2.2099988 115.4960012 137.7524997   1.6249988
 114.3050012 137.6924997   2.5569988 114.9899341 137.3140867   2.1768836
 125.1910012 140.7004997  12.2829988 125.5140012 140.0694997  11.6399988
 124.7510012 140.1654997  12.9429988 125.1756895 140.5418441  12.2842850
 121.9680012 136.6274997   7.0669988 121.0570012 136.6844997   7.3549988
 122.4740012 136.5674997   7.8769988 121.9115413 136.6271985   7.2160622
 116.7970012 138.2564997   5.8929988 115.9070012 138.3564997   5.5529988
 117.0930012 137.4144997   5.5469988 116.7152823 138.1563545   5.7997213
 120.4500012 138.2564997   3.5499988 121.3810012 138.3854997   3.7279988
 120.2350012 138.9264997   2.8999988 120.5484247 138.3646565   3.4865747
 126.3730012 135.8624997  10.3309988 125.6970012 135.9934997  10.9949988
 125.8880012 135.7074997   9.5209988 126.2147145 135.8594905  10.3124517
 119.1240012 139.4514997   1.1169988 118.5810012 139.0714997   0.4249988
 119.9570012 139.6454997   0.6879988 119.1624399 139.4258124   0.9644526
 117.2590012 144.0084997  16.2159988 117.9910012 144.2624997  16.7769988
 116.4790012 144.2124997  16.7309988 117.2538232 144.0709177  16.3625760
 123.2880012 139.4154997   8.9539988 123.8530012 138.8684997   8.4069988
 123.1410012 138.8934997   9.7419988 123.3452918 139.2702024   8.9858454
 118.2900012 135.5514997   5.3719988 117.9730012 134.6494997   5.3369988
 119.0720012 135.5534997   4.8189988 118.3522284 135.4281628   5.2924783
 121.9150012 137.8034997  11.3679988 121.0790012 138.2574997  11.4779988
 122.4390012 138.0794997  12.1199988 121.8714414 137.9029376  11.4847136
 122.4590012 144.0164997   3.0519988 121.7140012 143.5094997   2.7299988
 122.3250012 144.0654997   3.9989988 122.3388776 143.9536940   3.1358647
 129.6090012 143.1494997  11.8389988 130.2510012 143.6064997  11.2949988
 128.7790012 143.2624997  11.3759988 129.5845963 143.2272704  11.7020177
 126.3570012 136.8304997   1.2519988 125.4180012 136.9424997   1.0999988
 126.6540012 137.6874997   1.5579988 126.2687666 136.9616443   1.2725768
 123.9780012 144.2004997  14.2889988 123.6330012 143.8194997  15.0959988
 123.7780012 145.1344997  14.3609988 123.9038061 144.2745228  14.4090961
 127.0750012 138.6974997   2.9119988 127.9670012 138.5604997   3.2309988
 127.1320012 139.4884997   2.3759988 127.2046285 138.7856660   2.8831691
 117.5840012 143.3114997   8.8219988 118.3290012 143.3094997   8.2209988
 117.6620012 142.4884997   9.3039988 117.6965518 143.1999315   8.8048929
 114.5920012 141.7724997  14.1369988 114.8150012 141.3544997  14.9689988
 113.9900012 141.1594997  13.7139988 114.5411759 141.6324668  14.1937022
 121.6080012 141.2894997  16.3499988 121.3120012 141.1234997  15.4549988
 122.5400012 141.0694997  16.3389988 121.6934166 141.2370640  16.2260536
 131.9600012 138.9074997   2.6069988 131.4060012 138.5114997   1.9349988
 132.0600012 139.8174997   2.3289988 131.8977059 138.9763586   2.4774401
 131.9230012 144.7074997  15.4439988 131.0720012 144.9454997  15.0769988
 132.5140012 144.6904997  14.6909988 131.8862487 144.7378258  15.2918893
 127.4160012 142.5014997  10.0929988 126.4870012 142.2694997  10.0659988
 127.8670012 141.7244997   9.7629988 127.3499216 142.3647238  10.0446917
 115.7140012 141.6914997   0.8129988 116.3300012 142.3184997   1.1929988
 114.8520012 142.0074997   1.0849988 115.6817698 141.8199430   0.9017183
 121.3860012 144.4924997   5.8029988 121.1450012 145.4174997   5.8439988
 120.6450012 144.0334997   6.1989988 121.2528409 144.5571421   5.8621377
 125.4450012 144.7404997  11.8179988 125.0190012 144.5134997  12.6449988
 126.0250012 144.0024997  11.6359988 125.4651868 144.6095299  11.9065830
 116.2260012 136.5254997  13.6949988 115.3330012 136.8644997  13.6269988
 116.1270012 135.6704997  14.1129988 116.0904164 136.4562588  13.7422235
 128.5140012 144.3424997   3.1189988 128.2360012 143.6144997   3.6749988
 129.4410012 144.4614997   3.3239988 128.6013124 144.2588802   3.2228845
 117.1290012 143.6044997   2.3059988 116.4430012 143.9564997   2.8729988
 117.6510012 144.3674997   2.0589988 117.1056852 143.7558578   2.3502118
 124.9600012 136.2664997  12.5849988 125.6590012 136.3404997  13.2349988
 124.5790012 135.4024997  12.7389988 125.0041767 136.1597624  12.6948322
 125.7450012 135.9184997   3.6819988 125.9650012 136.3904997   2.8789988
 126.3030012 136.3134997   4.3519988 125.8504968 136.0364285   3.6627331
 122.9450012 137.6464997   4.5169988 123.7570012 138.1514997   4.5629988
 122.7000012 137.5014997   5.4309988 123.0230520 137.6960375   4.6468517
 123.4800012 138.6324997  13.7019988 123.5990012 139.2064997  14.4589988
 124.1360012 137.9444997  13.8159988 123.5849757 138.6181079  13.8210825
 123.8280012 134.7274997   5.4549988 123.4820012 135.3454997   6.0999988
 124.4870012 135.2284997   4.9739988 123.8697826 134.8795802   5.4780971
 119.4860012 135.7904997   2.1419988 119.4030012 136.6794997   2.4889988
 120.3760012 135.5254997   2.3739988 119.5949469 135.8761430   2.2207626
 129.6850012 136.5394997  14.5369988 128.7680012 136.8024997  14.4489988
 130.0200012 136.5364997  13.6399988 129.6049900 136.5750224  14.4037919
 128.2870012 140.2904997   8.6319988 127.4890012 139.8754997   8.3039988
 128.7320012 139.5994997   9.1229988 128.2379885 140.1403543   8.6534889
 116.0610012 138.8824997   0.3189988 116.0160012 139.8214997   0.4969988
 115.1730012 138.6464997   0.0489988 115.9348574 138.9791892   0.3068912
 116.8690012 133.6644997   8.9919988 116.6400012 133.7234997   8.0639988
 116.4260012 132.8724997   9.2979988 116.7778530 133.5655753   8.9064786
 114.9940012 144.0274997  17.4369988 115.1380012 143.1254997  17.1499988
 114.2220012 144.3134997  16.9489988 114.9093323 143.9428261  17.3317881
 119.3360012 144.3714997  -0.4310012 119.4000012 143.5774997   0.0999988
 119.9890012 144.2524997  -1.1210012 119.4330241 144.2467148  -0.4515683
 121.6500012 143.9974997  16.8689988 121.3210012 144.2684997  16.0119988
 121.8020012 143.0564997  16.7819988 121.6254809 143.9073862  16.7398244
 127.3840012 143.9134997  14.2529988 128.1300012 144.5014997  14.1329988
 126.6270012 144.4954997  14.3159988 127.3837554 144.0727011  14.2450907
 115.8270012 141.2274997  16.8569988 116.2350012 140.3704997  16.7359988
 115.5670012 141.2424997  17.7779988 115.8477568 141.1120807  16.9649588
 120.4850012 142.3434997   1.8749988 120.0250012 141.8594997   2.5609988
 120.7400012 141.6754997   1.2389988 120.4564902 142.1868731   1.8829334
 119.7740012 140.2364997  14.2309988 119.1560012 140.9114997  14.5109988
 120.1180012 140.5574997  13.3979988 119.7359615 140.3722721  14.1566581
 121.5560012 140.5864997   0.1369988 121.3760012 140.4324997  -0.7900012
 122.5060012 140.6944997   0.1819988 121.6597776 140.5800175   0.0161843
 124.7940012 142.7084997  17.5079988 125.7470012 142.7914997  17.4809988
 124.6330012 141.9964997  18.1279988 124.9026426 142.6236746  17.5880579
 130.9460012 142.9414997  -0.4170012 130.6720012 142.5164997  -1.2300012
 130.9850012 143.8724997  -0.6340012 130.9137699 143.0092484  -0.5576390
 120.1130012 137.5914997  15.3129988 120.2630012 136.8624997  14.7109988
 120.1160012 138.3684997  14.7539988 120.1339302 137.5967851  15.1550692
 120.5260012 135.9614997  12.8059988 121.0620012 136.4124997  12.1539988
 119.6740012 135.8534997  12.3829988 120.4842178 136.0086390  12.6595756
 122.1080012 141.4004997  13.0449988 122.8580012 141.2444997  12.4719988
 121.7690012 142.2524997  12.7699988 122.1648921 141.4942968  12.9293561
 126.5230012 139.2154997  18.0739988 126.7160012 138.2844997  17.9619988
 127.3810012 139.6404997  18.0639988 126.6653020 139.1456389  18.0573361
 127.8400012 142.0044997  16.1509988 127.5590012 142.7134997  15.5739988
 128.7830012 141.9314997  15.9999988 127.9289027 142.0917646  16.0515551
 118.5920012 138.7894997  17.2249988 117.8250012 138.2574997  17.0149988
 119.2710012 138.4794997  16.6249988 118.5787022 138.6747506  17.1151648
 121.3320012 133.4174997  13.2369988 121.2330012 134.3644997  13.1319988
 120.5890012 133.0454997  12.7619988 121.2180564 133.4965902  13.1584560
 122.5960012 137.7394997  16.8009988 122.3600012 137.5194997  17.7029988
 121.8120012 137.5324997  16.2909988 122.4578628 137.6814760  16.8553932
 125.3110012 136.8664997  15.8769988 124.3640012 136.8984997  16.0089988
 125.6240012 136.2414997  16.5299988 125.2235475 136.7863207  15.9834455
 126.9450012 135.5004997  17.8819988 126.8490012 134.5484997  17.8759988
 126.6240012 135.7694997  18.7419988 126.8884070 135.4064035  17.9975441
 116.7720012 136.7104997  16.9289988 116.9840012 136.0034997  16.3189988
 116.6610012 136.2724997  17.7729988 116.7859721 136.5547084  16.9596843
 121.5530012 132.7114997  15.9089988 122.2650012 132.0714997  15.8949988
 121.4520012 132.9784997  14.9949988 121.6367939 132.6599938  15.7835650
 121.9070012 134.3944997  17.9619988 121.7750012 133.9184997  17.1419988
 121.3080012 135.1384997  17.9069988 121.8079071 134.4299618  17.8422886
 131.4040012 143.8104997   3.5579988 132.2540012 144.2314997   3.6849988
 131.4100012 143.0704997   4.1649988 131.5211372 143.7680803   3.6574344
 131.7990012 141.8634997   5.3819988 131.0720012 141.3844997   5.7789988
 132.3800012 142.0694997   6.1139988 131.7779375 141.8257090   5.5354129
 131.5580012 144.6484997  10.3289988 132.3910012 144.2704997  10.0489988
 131.6700012 145.5914997  10.2099988 131.6872647 144.7242218  10.2745487
 132.0670012 141.7644997   1.7729988 131.5450012 142.1214997   1.0539988
 132.0340012 142.4394997   2.4509988 131.9911634 141.9045413   1.7663145
 130.4160012 139.0044997   0.3239988 130.5120012 139.6714997  -0.3570012
 130.2760012 138.1884997  -0.1580012 130.4102135 138.9854500   0.1658491
 129.5850012 140.3844997   5.9449988 129.4350012 139.4394997   5.9239988
 129.2320012 140.6654997   6.7879988 129.5166625 140.2930441   6.0562346
 114.6210012 142.4624997   9.9549988 114.8050012 142.3804997   9.0189988
 115.4700012 142.3384997  10.3789988 114.7610139 142.4345003   9.8841455
 130.4420012 142.3544997  15.5829988 131.0250012 141.6204997  15.7749988
 131.0060012 143.1264997  15.6299988 130.5979769 142.3584227  15.6156159
 131.9380012 140.2574997  16.2679988 131.0750012 139.8784997  16.1019988
 132.5430012 139.5184997  16.1939988 131.9015979 140.1058023  16.2352817
 129.6630012 136.4124997  -0.5590012 130.2740012 136.0414997   0.0779988
 128.8270012 135.9914997  -0.3630012 129.6335032 136.3047554  -0.4452965
 129.2960012 137.9674997   4.4069988 129.5760012 137.0604997   4.5309988
 130.0550012 138.4014997   4.0179988 129.4369277 137.9020942   4.3713682
 129.9080012 138.5484997   9.8429988 130.8410012 138.7604997   9.8089988
 129.6730012 138.6504997  10.7649988 130.0038036 138.5912769   9.9629976
 129.9370012 139.2854997  12.6189988 129.0940012 139.5534997  12.9849988
 130.3790012 140.1074997  12.4079988 129.8814158 139.4333291  12.6405491
 114.2180012 137.7334997  16.0959988 115.1380012 137.6114997  16.3319988
 113.7690012 136.9834997  16.4849988 114.2831580 137.6153727  16.1809006
 132.2200012 133.2654997  17.9719988 132.5700012 132.6114997  17.3669988
 132.3670012 134.1024997  17.5329988 132.2878419 133.2891591  17.8297118
 129.9090012 135.2304997   4.4549988 130.0920012 134.7814997   5.2809988
 129.3100012 134.6454997   3.9919988 129.8530202 135.0899975   4.5053275
 115.4390012 136.0454997   8.9869988 115.8850012 135.2534997   9.2889988
 115.9060012 136.7614997   9.4179988 115.5630172 136.0340624   9.0864820
 113.7430012 139.0444997  10.0559988 114.2350012 138.8234997   9.2649988
 114.1060012 139.8854997  10.3369988 113.8593126 139.1278357   9.9857531
 131.7400012 135.3744997  16.3219988 130.8220012 135.6454997  16.2859988
 131.8630012 134.8394997  15.5369988 131.6311066 135.3392892  16.2110487
 131.7760012 135.2974997   0.9829988 132.1880012 134.5764997   0.5079988
 132.4580012 135.9674997   1.0419988 131.9245885 135.2892368   0.9258915
 114.0570012 135.3024997   4.1099988 113.1320012 135.5114997   3.9809988
 114.5110012 135.7864997   3.4209988 113.9917368 135.3965993   3.9991226
 114.0210012 134.0404997  12.4549988 113.3560012 133.7944997  13.0979988
 113.5780012 134.6624997  11.8769988 113.8700956 134.0908632  12.4649352
 130.7400012 133.4644997  14.1409988 129.9280012 133.7894997  13.7529988
 130.9730012 132.7044997  13.6079988 130.6603423 133.4062436  14.0158253
 124.1700012 134.9134997   8.4629988 123.4960012 134.2844997   8.7189988
 124.7340012 134.4294997   7.8599988 124.1539230 134.7618744   8.4165340
 129.3130012 133.0214997   8.5759988 129.9170012 133.5684997   8.0739988
 128.4430012 133.3404997   8.3359988 129.2781241 133.1395806   8.4747654
 131.0400012 134.1594997   6.9089988 131.6520012 133.6454997   6.3829988
 131.4220012 135.0374997   6.9329988 131.1754540 134.2077140   6.8401830
 116.4970012 133.5474997   6.2849988 115.7200012 133.3134997   5.7779988
 117.0270012 132.7504997   6.2939988 116.4622330 133.4076988   6.2167742
 115.3330012 133.3454997   2.0889988 115.7720012 133.9564997   1.4969988
 114.7000012 133.8834997   2.5629988 115.3074514 133.5019257   2.0720930
 121.0760012 133.4744997   6.0989988 121.9510012 133.8624997   6.0689988
 120.9400012 133.2594997   7.0209988 121.1773695 133.4985184   6.2196440
 126.6330012 133.5044997   7.7479988 126.7090012 133.5994997   6.7979988
 126.3580012 132.5964997   7.8769988 126.6062321 133.3947867   7.6355079
 127.9860012 133.5304997   3.4399988 127.2840012 134.1454997   3.2309988
 127.5420012 132.6924997   3.5709988 127.8296330 133.5015783   3.4290328
 117.1940012 135.2614997   0.5309988 117.6860012 134.6314997   0.0039988
 117.8180012 135.5574997   1.1949988 117.3455446 135.2153199   0.5485980
 122.2200012 135.5544997   2.9879988 122.3980012 134.9084997   3.6709988
 122.1670012 136.3884997   3.4559988 122.2371829 135.5787985   3.1445940
 116.4550012 134.0614997  15.8029988 116.0890012 133.2964997  16.2459988
 117.3680012 134.0904997  16.0899988 116.5282790 133.9607224  15.9024070
 118.4280012 133.4124997  17.3389988 119.3260012 133.1384997  17.1539988
 118.0410012 132.6694997  17.8029988 118.4986612 133.2745914  17.3763643
 126.8490012 132.7444997  17.5209988 126.9260012 132.3184997  18.3749988
 127.7430012 132.7584997  17.1779988 126.9803428 132.6880880  17.5915310
 144.4310012 142.7034997   6.2439988 144.5200012 143.6474997   6.1119988
 143.7930012 142.4284997   5.5859988 144.3569081 142.7954830   6.1369614
 143.3640012 141.9584997   9.6629988 143.3260012 141.3124997  10.3679988
 143.0420012 141.4924997   8.8919988 143.3152333 141.8069408   9.6552978
 135.7330012 141.5734997  11.2559988 135.7740012 140.9474997  11.9789988
 136.4360012 142.1974997  11.4379988 135.8336363 141.5721196  11.3796044
 133.2660012 139.6834997   5.1839988 132.8190012 140.5294997   5.1649988
 132.7050012 139.1034997   4.6679988 133.1289900 139.7209916   5.1116801
 133.9770012 141.8454997   7.3099988 134.1900012 141.0754997   7.8369988
 134.7150012 141.9344997   6.7059988 134.1058496 141.7521394   7.3005300
 141.7540012 144.3914997  10.0689988 142.0580012 143.7054997   9.4739988
 142.4750012 144.5094997  10.6869988 141.8930671 144.3136305  10.0711816
 144.8950012 138.7854997  10.3969988 145.0370012 137.8394997  10.4169988
 144.7880012 138.9924997   9.4679988 144.8999863 138.6839534  10.2742339
 138.0490012 136.8864997   7.6689988 138.0930012 137.7464997   7.2509988
 137.5920012 136.3344997   7.0349988 137.9932185 136.9295799   7.5260299
 134.6700012 139.2834997   8.4309988 135.3230012 138.7334997   8.8629988
 134.6940012 139.0094997   7.5139988 134.7626683 139.1711466   8.3662123
 139.8260012 140.8334997   7.6459988 140.4420012 140.3074997   8.1559988
 139.2400012 140.1934997   7.2429988 139.8310810 140.6749208   7.6613173
 136.8600012 135.8044997  11.7429988 136.6410012 136.3344997  10.9769988
 136.1920012 136.0314997  12.3899988 136.7397600 135.9076906  11.7256379
 139.4290012 143.4804997  12.0299988 138.6890012 144.0784997  12.1339988
 140.1430012 144.0344997  11.7149988 139.4242237 143.6372831  12.0016465
 136.4530012 137.6964997   9.6949988 137.0670012 138.3294997  10.0689988
 136.9650012 137.2244997   9.0389988 136.6062296 137.7192370   9.6574252
 140.8860012 133.1104997   9.1959988 140.7690012 132.1614997   9.1409988
 140.0310012 133.4424997   9.4689988 140.7543733 133.0255409   9.2253897
 143.1530012 141.9474997   3.6959988 142.4410012 142.4824997   3.3439988
 143.8440012 142.0034997   3.0359988 143.1490132 142.0282543   3.5586289
 143.2060012 140.4054997   0.7349988 143.9070012 140.4274997   1.3859988
 143.5090012 139.7774997   0.0789988 143.3427830 140.3236566   0.7353711
 138.2040012 142.7874997   6.5299988 137.8730012 142.4174997   5.7119988
 138.7920012 142.1174997   6.8769988 138.2381873 142.6461156   6.4648102
 138.5700012 141.5564997  10.1639988 139.1360012 141.6774997   9.4009988
 138.8890012 142.1934997  10.8029988 138.6905786 141.6591884  10.1460040
 136.3700012 142.1534997  14.1099988 136.4410012 142.8044997  14.8079988
 135.4800012 142.2564997  13.7749988 136.2593117 142.2565936  14.1602700
 137.1940012 141.8574997   4.1199988 136.9020012 142.6254997   3.6289988
 136.5200012 141.1974997   3.9569988 137.0629081 141.8734406   4.0307340
 133.2870012 144.2204997  12.9349988 132.7860012 144.1924997  12.1199988
 133.2920012 143.3144997  13.2439988 133.2191526 144.0942278  12.8652872
 138.1550012 134.0134997   9.9729988 137.2930012 133.9264997   9.5659988
 138.1320012 134.8694997  10.4009988 138.0340330 134.1172765   9.9751863
 142.8180012 133.7354997  13.3479988 143.2380012 133.3204997  14.1009988
 141.8850012 133.5574997  13.4649988 142.7493644 133.6545900  13.4669539
 142.4790012 136.2284997   0.6329988 142.2260012 136.2474997   1.5559988
 142.2230012 135.3564997   0.3319988 142.4097790 136.1132437   0.7186263
 138.2460012 138.9794997  11.0679988 137.6040012 138.9384997  11.7769988
 138.2830012 139.9054997  10.8309988 138.1631324 139.0991559  11.1329824
 138.2430012 139.2004997   5.9799988 137.3500012 138.8594997   5.9219988
 138.6930012 138.8234997   5.2249988 138.1817305 139.1028484   5.8699177
 143.7780012 139.6164997   4.7969988 143.3690012 140.4314997   4.5059988
 144.4990012 139.4764997   4.1829988 143.8194537 139.7092018   4.6741342
 142.8800012 139.7914997  16.2849988 142.3180012 139.0874997  16.6059988
 143.7070012 139.6714997  16.7529988 142.9147095 139.6787883  16.3922330
 144.7830012 139.0624997   7.6109988 144.5880012 139.6674997   6.8959988
 144.9640012 138.2284997   7.1769988 144.7807614 139.0326300   7.4544405
 135.9960012 139.2994997  12.9349988 135.9580012 139.6994997  13.8039988
 135.5050012 138.4824997  13.0259988 135.9244684 139.2438069  13.0661059
 139.3620012 136.6734997  -0.2660012 138.9310012 136.2284997   0.4639988
 138.6440012 137.0454997  -0.7780012 139.2059438 136.6628940  -0.2353201
 132.6040012 136.4154997   6.7859988 133.2350012 136.3864997   7.5049988
 133.0530012 135.9904997   6.0559988 132.7510774 136.3540492   6.7856553
 133.8780012 137.1614997   2.2099988 134.3520012 137.7524997   1.6249988
 133.1610012 137.6924997   2.5569988 133.8459341 137.3140867   2.1768836
 144.0470012 140.7004997  12.2829988 144.3700012 140.0694997  11.6399988
 143.6070012 140.1654997  12.9429988 144.0316895 140.5418441  12.2842850
 140.8240012 136.6274997   7.0669988 139.9130012 136.6844997   7.3549988
 141.3300012 136.5674997   7.8769988 140.7675413 136.6271985   7.2160622
 135.6530012 138.2564997   5.8929988 134.7630012 138.3564997   5.5529988
 135.9490012 137.4144997   5.5469988 135.5712823 138.1563545   5.7997213
 139.3060012 138.2564997   3.5499988 140.2370012 138.3854997   3.7279988
 139.0910012 138.9264997   2.8999988 139.4044247 138.3646565   3.4865747
 137.9800012 139.4514997   1.1169988 137.4370012 139.0714997   0.4249988
 138.8130012 139.6454997   0.6879988 138.0184399 139.4258124   0.9644526
 136.1150012 144.0084997  16.2159988 136.8470012 144.2624997  16.7769988
 135.3350012 144.2124997  16.7309988 136.1098232 144.0709177  16.3625760
 142.1440012 139.4154997   8.9539988 142.7090012 138.8684997   8.4069988
 141.9970012 138.8934997   9.7419988 142.2012918 139.2702024   8.9858454
 137.1460012 135.5514997   5.3719988 136.8290012 134.6494997   5.3369988
 137.9280012 135.5534997   4.8189988 137.2082284 135.4281628   5.2924783
 140.7710012 137.8034997  11.3679988 139.9350012 138.2574997  11.4779988
 141.2950012 138.0794997  12.1199988 140.7274414 137.9029376  11.4847136
 141.3150012 144.0164997   3.0519988 140.5700012 143.5094997   2.7299988
 141.1810012 144.0654997   3.9989988 141.1948776 143.9536940   3.1358647
 142.8340012 144.2004997  14.2889988 142.4890012 143.8194997  15.0959988
 142.6340012 145.1344997  14.3609988 142.7598061 144.2745228  14.4090961
 136.4400012 143.3114997   8.8219988 137.1850012 143.3094997   8.2209988
 136.5180012 142.4884997   9.3039988 136.5525518 143.1999315   8.8048929
 133.4480012 141.7724997  14.1369988 133.6710012 141.3544997  14.9689988
 132.8460012 141.1594997  13.7139988 133.3971759 141.6324668  14.1937022
 140.4640012 141.2894997  16.3499988 140.1680012 141.1234997  15.4549988
 141.3960012 141.0694997  16.3389988 140.5494166 141.2370640  16.2260536
 134.5700012 141.6914997   0.8129988 135.1860012 142.3184997   1.1929988
 133.7080012 142.0074997   1.0849988 134.5377698 141.8199430   0.9017183
 140.2420012 144.4924997   5.8029988 140.0010012 145.4174997   5.8439988
 139.5010012 144.0334997   6.1989988 140.1088409 144.5571421   5.8621377
 144.3010012 144.7404997  11.8179988 143.8750012 144.5134997  12.6449988
 144.8810012 144.0024997  11.6359988 144.3211868 144.6095299  11.9065830
 135.0820012 136.5254997  13.6949988 134.1890012 136.8644997  13.6269988
 134.9830012 135.6704997  14.1129988 134.9464164 136.4562588  13.7422235
 135.9850012 143.6044997   2.3059988 135.2990012 143.9564997   2.8729988
 136.5070012 144.3674997   2.0589988 135.9616852 143.7558578   2.3502118
 143.8160012 136.2664997  12.5849988 144.5150012 136.3404997  13.2349988
 143.4350012 135.4024997  12.7389988 143.8601767 136.1597624  12.6948322
 144.6010012 135.9184997   3.6819988 144.8210012 136.3904997   2.8789988
 145.1590012 136.3134997   4.3519988 144.7064968 136.0364285   3.6627331
 141.8010012 137.6464997   4.5169988 142.6130012 138.1514997   4.5629988
 141.5560012 137.5014997   5.4309988 141.8790520 137.6960375   4.6468517
 142.3360012 138.6324997  13.7019988 142.4550012 139.2064997  14.4589988
 142.9920012 137.9444997  13.8159988 142.4409757 138.6181079  13.8210825
 142.6840012 134.7274997   5.4549988 142.3380012 135.3454997   6.0999988
 143.3430012 135.2284997   4.9739988 142.7257826 134.8795802   5.4780971
 138.3420012 135.7904997   2.1419988 138.2590012 136.6794997   2.4889988
 139.2320012 135.5254997   2.3739988 138.4509469 135.8761430   2.2207626
 134.9170012 138.8824997   0.3189988 134.8720012 139.8214997   0.4969988
 134.0290012 138.6464997   0.0489988 134.7908574 138.9791892   0.3068912
 135.7250012 133.6644997   8.9919988 135.4960012 133.7234997   8.0639988
 135.2820012 132.8724997   9.2979988 135.6338530 133.5655753   8.9064786
 133.8500012 144.0274997  17.4369988 133.9940012 143.1254997  17.1499988
 133.0780012 144.3134997  16.9489988 133.7653322 143.9428261  17.3317881
 138.1920012 144.3714997  -0.4310012 138.2560012 143.5774997   0.0999988
 138.8450012 144.2524997  -1.1210012 138.2890241 144.2467148  -0.4515683
 140.5060012 143.9974997  16.8689988 140.1770012 144.2684997  16.0119988
 140.6580012 143.0564997  16.7819988 140.4814809 143.9073862  16.7398244
 134.6830012 141.2274997  16.8569988 135.0910012 140.3704997  16.7359988
 134.4230012 141.2424997  17.7779988 134.7037568 141.1120807  16.9649588
 139.3410012 142.3434997   1.8749988 138.8810012 141.8594997   2.5609988
 139.5960012 141.6754997   1.2389988 139.3124902 142.1868731   1.8829334
 138.6300012 140.2364997  14.2309988 138.0120012 140.9114997  14.5109988
 138.9740012 140.5574997  13.3979988 138.5919615 140.3722721  14.1566581
 140.4120012 140.5864997   0.1369988 140.2320012 140.4324997  -0.7900012
 141.3620012 140.6944997   0.1819988 140.5157776 140.5800175   0.0161843
 143.6500012 142.7084997  17.5079988 144.6030012 142.7914997  17.4809988
 143.4890012 141.9964997  18.1279988 143.7586426 142.6236746  17.5880579
 138.9690012 137.5914997  15.3129988 139.1190012 136.8624997  14.7109988
 138.9720012 138.3684997  14.7539988 138.9899302 137.5967851  15.1550692
 139.3820012 135.9614997  12.8059988 139.9180012 136.4124997  12.1539988
 138.5300012 135.8534997  12.3829988 139.3402178 136.0086390  12.6595756
 140.9640012 141.4004997  13.0449988 141.7140012 141.2444997  12.4719988
 140.6250012 142.2524997  12.7699988 141.0208921 141.4942968  12.9293561
 137.4480012 138.7894997  17.2249988 136.6810012 138.2574997  17.0149988
 138.1270012 138.4794997  16.6249988 137.4347022 138.6747506  17.1151648
 140.1880012 133.4174997  13.2369988 140.0890012 134.3644997  13.1319988
 139.4450012 133.0454997  12.7619988 140.0740564 133.4965902  13.1584560
 141.4520012 137.7394997  16.8009988 141.2160012 137.5194997  17.7029988
 140.6680012 137.5324997  16.2909988 141.3138628 137.6814760  16.8553932
 144.1670012 136.8664997  15.8769988 143.2200012 136.8984997  16.0089988
 144.4800012 136.2414997  16.5299988 144.0795475 136.7863207  15.9834455
 135.6280012 136.7104997  16.9289988 135.8400012 136.0034997  16.3189988
 135.5170012 136.2724997  17.7729988 135.6419721 136.5547084  16.9596843
 140.4090012 132.7114997  15.9089988 141.1210012 132.0714997  15.8949988
 140.3080012 132.9784997  14.9949988 140.4927939 132.6599938  15.7835650
 140.7630012 134.3944997  17.9619988 140.6310012 133.9184997  17.1419988
 140.1640012 135.1384997  17.9069988 140.6639071 134.4299618  17.8422886
 133.4770012 142.4624997   9.9549988 133.6610012 142.3804997   9.0189988
 134.3260012 142.3384997  10.3789988 133.6170139 142.4345003   9.8841455
 133.0740012 137.7334997  16.0959988 133.9940012 137.6114997  16.3319988
 132.6250012 136.9834997  16.4849988 133.1391580 137.6153727  16.1809006
 134.2950012 136.0454997   8.9869988 134.7410012 135.2534997   9.2889988
 134.7620012 136.7614997   9.4179988 134.4190172 136.0340624   9.0864820
 132.5990012 139.0444997  10.0559988 133.0910012 138.8234997   9.2649988
 132.9620012 139.8854997  10.3369988 132.7153126 139.1278357   9.9857531
 132.9130012 135.3024997   4.1099988 131.9880012 135.5114997   3.9809988
 133.3670012 135.7864997   3.4209988 132.8477368 135.3965993   3.9991226
 132.8770012 134.0404997  12.4549988 132.2120012 133.7944997  13.0979988
 132.4340012 134.6624997  11.8769988 132.7260956 134.0908632  12.4649352
 143.0260012 134.9134997   8.4629988 142.3520012 134.2844997   8.7189988
 143.5900012 134.4294997   7.8599988 143.0099230 134.7618744   8.4165340
 135.3530012 133.5474997   6.2849988 134.5760012 133.3134997   5.7779988
 135.8830012 132.7504997   6.2939988 135.3182330 133.4076988   6.2167742
 134.1890012 133.3454997   2.0889988 134.6280012 133.9564997   1.4969988
 133.5560012 133.8834997   2.5629988 134.1634514 133.5019257   2.0720930
 139.9320012 133.4744997   6.0989988 140.8070012 133.8624997   6.0689988
 139.7960012 133.2594997   7.0209988 140.0333695 133.4985184   6.2196440
 136.0500012 135.2614997   0.5309988 136.5420012 134.6314997   0.0039988
 136.6740012 135.5574997   1.1949988 136.2015446 135.2153199   0.5485980
 141.0760012 135.5544997   2.9879988 141.2540012 134.9084997   3.6709988
 141.0230012 136.3884997   3.4559988 141.0931829 135.5787985   3.1445940
 135.3110012 134.0614997  15.8029988 134.9450012 133.2964997  16.2459988
 136.2240012 134.0904997  16.0899988 135.3842790 133.9607224  15.9024070
 137.2840012 133.4124997  17.3389988 138.1820012 133.1384997  17.1539988
 136.8970012 132.6694997  17.8029988 137.3546612 133.2745914  17.3763643
  12.4390012  10.7114997  25.0999988  12.5280012  11.6554997  24.9679988
  11.8010012  10.4364997  24.4419988  12.3649081  10.8034830  24.9929614
  11.3720012   9.9664997  28.5189988  11.3340012   9.3204997  29.2239988
  11.0500012   9.5004997  27.7479988  11.3232333   9.8149408  28.5112978
   3.7410012   9.5814997  30.1119988   3.7820012   8.9554997  30.8349988
   4.4440012  10.2054997  30.2939988   3.8416363   9.5801196  30.2356044
  15.0780012  12.9054997  26.8199988  14.6380012  12.1854997  27.2709988
  15.0650012  13.6264997  27.4499988  15.0160226  12.9043731  26.9668494
   4.6640012  14.0314997  28.6469988   4.2950012  13.2294997  28.2769988
   5.6050012  13.8624997  28.6929988   4.7407289  13.8990153  28.6026316
   1.2740012   7.6914997  24.0399988   0.8270012   8.5374997  24.0209988
   0.7130012   7.1114997  23.5239988   1.1369900   7.7289916  23.9676801
   1.9850012   9.8534997  26.1659988   2.1980012   9.0834997  26.6929988
   2.7230012   9.9424997  25.5619988   2.1138496   9.7601394  26.1565300
  12.1900012  18.0104997  27.0329988  12.8100012  17.3334997  26.7589988
  11.9820012  17.7924997  27.9409988  12.2466904  17.8883870  27.1183365
   9.7620012  12.3994997  28.9249988  10.0660012  11.7134997  28.3299988
  10.4830012  12.5174997  29.5429988   9.9010671  12.3216304  28.9271816
  18.4250012   4.0004997  29.7859988  18.4740012   4.6104997  30.5219988
  18.8500012   4.4614997  29.0629988  18.4891824   4.1463741  29.7890205
  12.9030012   6.7934997  29.2529988  13.0450012   5.8474997  29.2729988
  12.7960012   7.0004997  28.3239988  12.9079864   6.6919534  29.1302339
   6.0570012   4.8944997  26.5249988   6.1010012   5.7544997  26.1069988
   5.6000012   4.3424997  25.8909988   6.0012185   4.9375799  26.3820299
  13.7800012   5.0254997  24.9259988  14.4260012   4.6964997  25.5509988
  14.2900012   5.5434997  24.3029988  13.9374264   5.0504611  24.9273862
   2.6780012   7.2914997  27.2869988   3.3310012   6.7414997  27.7189988
   2.7020012   7.0174997  26.3699988   2.7706683   7.1791466  27.2222123
   7.8340012   8.8414997  26.5019988   8.4500012   8.3154997  27.0119988
   7.2480012   8.2014997  26.0989988   7.8390810   8.6829208  26.5173173
  18.8160012   5.4784997  32.0219988  18.1280012   6.1364997  31.9259988
  18.8320012   5.2814997  32.9579988  18.7238525   5.5420462  32.1354808
   4.8680012   3.8124997  30.5989988   4.6490012   4.3424997  29.8329988
   4.2000012   4.0394997  31.2459988   4.7477600   3.9156906  30.5816379
  12.2370012  13.3124997  24.1429988  11.9410012  12.9904997  23.2919988
  11.9120012  14.2124997  24.1839988  12.1526371  13.3900215  24.0321801
   7.4370012  11.4884997  30.8859988   6.6970012  12.0864997  30.9899988
   8.1510012  12.0424997  30.5709988   7.4322237  11.6452831  30.8576465
  15.5440012   4.3164997  26.9059988  15.3280012   3.5504997  27.4389988
  16.1990012   4.7884997  27.4189988  15.6030632   4.2755889  27.0482861
   4.4610012   5.7044997  28.5509988   5.0750012   6.3374997  28.9249988
   4.9730012   5.2324997  27.8949988   4.6142296   5.7272370  28.5134252
   5.8440012  13.4524997  31.6739988   5.8390012  14.3324997  31.2959988
   4.9910012  13.3694997  32.0989988   5.7279464  13.5616117  31.6797907
   1.9650012  13.1234997  22.4559988   1.6930012  13.3524997  21.5669988
   2.0110012  13.9614997  22.9159988   1.9340094  13.2681213  22.3965697
  15.5900012  14.7454997  29.1679988  14.6490012  14.8034997  29.3299988
  15.8670012  15.6514997  29.0309988  15.4984679  14.8759443  29.1716815
  15.8910012   3.0314997  30.5859988  15.1550012   3.6424997  30.5479988
  16.5740012   3.4464997  30.0589988  15.8826541   3.1711374  30.5095832
   8.8940012   1.1184997  28.0519988   8.7770012   0.1694997  27.9969988
   8.0390012   1.4504997  28.3249988   8.7623733   1.0335409  28.0813897
  13.8420012  16.5264997  25.7939988  14.2680012  15.8194997  25.3089988
  14.1590012  17.3274997  25.3769988  13.9431019  16.5380994  25.6713130
  15.0020012  14.4274997  24.3019988  14.7440012  13.7374997  23.6909988
  15.0730012  13.9844997  25.1479988  14.9762856  14.2732124  24.3326885
  16.6880012  12.9934997  32.7799988  16.8280012  12.4024997  32.0399988
  16.8550012  13.8664997  32.4229988  16.7296778  13.0306426  32.6306965
  11.1610012   9.9554997  22.5519988  10.4490012  10.4904997  22.1999988
  11.8520012  10.0114997  21.8919988  11.1570132  10.0362543  22.4146289
  11.2140012   8.4134997  19.5909988  11.9150012   8.4354997  20.2419988
  11.5170012   7.7854997  18.9349988  11.3507830   8.3316566  19.5913711
  18.5300012   9.3334997  30.8459988  17.8770012  10.0284997  30.9349988
  18.9950012   9.5434997  30.0359988  18.5035390   9.4569425  30.7486883
  14.5660012  10.1654997  23.5039988  13.8340012  10.3934997  24.0769988
  15.0140012   9.4514997  23.9589988  14.5263095  10.1002571  23.6439119
  14.4640012   8.3394997  32.5709988  14.5440012   9.1024997  33.1429988
  13.8620012   8.6184997  31.8809988  14.3935756   8.4817134  32.5560589
   6.2120012  10.7954997  25.3859988   5.8810012  10.4254997  24.5679988
   6.8000012  10.1254997  25.7329988   6.2461873  10.6541156  25.3208102
   7.5780012  14.2234997  28.0679988   7.4840012  13.6454997  27.3109988
   8.3080012  13.8524997  28.5639988   7.6637981  14.0942390  28.0314165
   6.5780012   9.5644997  29.0199988   7.1440012   9.6854997  28.2569988
   6.8970012  10.2014997  29.6589988   6.6985786   9.6671884  29.0020040
  12.8870012  15.0674997  29.7539988  12.6470012  15.7294997  30.4019988
  12.6890012  14.2334997  30.1789988  12.8273808  15.0453134  29.9001524
   7.4580012  13.9634997  33.7369988   7.1470012  14.7454997  34.1919988
   6.8080012  13.8104997  33.0509988   7.3275558  14.0499105  33.7065871
  13.4370012   9.3274997  21.1889988  14.0170012   9.4774997  21.9359988
  13.8510012   9.7984997  20.4659988  13.5722830   9.4116841  21.1934134
   4.3780012  10.1614997  32.9659988   4.4490012  10.8124997  33.6639988
   3.4880012  10.2644997  32.6309988   4.2673117  10.2645936  33.0162700
  11.1640012  16.0644997  24.6239988  11.6380012  16.3594997  25.4019988
  10.6010012  16.8024997  24.3909988  11.1527653  16.2046932  24.6990136
   5.6980012  16.0354997  34.4999988   5.7050012  15.8994997  33.5529988
   4.7820012  15.9174997  34.7519988   5.5751714  16.0009430  34.4044666
  17.1360012   1.0774997  21.0019988  16.2360012   1.2164997  21.2969988
  17.3880012   1.9084997  20.5999988  17.0468702   1.2089074  20.9880205
   5.2020012   9.8654997  22.9759988   4.9100012  10.6334997  22.4849988
   4.5280012   9.2054997  22.8129988   5.0709081   9.8814406  22.8867340
  18.3250012  15.4434997  19.3779988  18.3990012  16.3824997  19.5489988
  19.2310012  15.1384997  19.3219988  18.4575100  15.5306722  19.3938119
   1.2950012  12.2284997  31.7909988   0.7940012  12.2004997  30.9759988
   1.3000012  11.3224997  32.0999988   1.2271526  12.1022278  31.7212872
   1.0450012  15.0084997  28.6749988   1.9910012  14.8644997  28.6559988
   0.9330012  15.7924997  29.2119988   1.1592727  15.0948046  28.7450072
  19.2430012  15.6744997  34.3569988  19.1940012  14.7194997  34.3199988
  18.4160012  15.9424997  34.7579988  19.1244940  15.5798998  34.4061375
  10.2220012  15.2484997  33.2329988  10.3090012  16.0744997  33.7079988
   9.3580012  14.9184997  33.4819988  10.1171964  15.3169878  33.3316549
  10.6360012  19.0204997  23.0389988  10.5610012  18.8994997  22.0929988
  10.6690012  19.9704997  23.1579988  10.6301848  19.1322500  22.9254834
   4.2890012  17.8094997  24.8199988   4.4420012  17.4614997  25.6989988
   3.4390012  17.4534997  24.5649988   4.1948962  17.7136650  24.9058340
  13.7380012  18.1744997  20.0409988  14.1130012  17.4304997  19.5709988
  13.7420012  17.9044997  20.9599988  13.7898915  18.0361486  20.1007824
  13.4070012  18.1004997  22.7909988  12.4710012  18.2004997  22.9689988
  13.6870012  17.3914997  23.3689988  13.3168255  18.0182711  22.8935391
  16.3950012   7.1674997  34.8369988  15.9880012   7.6484997  34.1159988
  16.4360012   6.2624997  34.5289988  16.3448437   7.1109374  34.6966683
   3.5440012  13.5514997  32.8339988   3.7600012  13.1904997  33.6929988
   2.6890012  13.1774997  32.6239988   3.4579292  13.4514111  32.9233386
   6.1630012   2.0214997  28.8289988   5.3010012   1.9344997  28.4219988
   6.1400012   2.8774997  29.2569988   6.0420330   2.1252765  28.8311863
  10.8260012   1.7434997  32.2039988  11.2460012   1.3284997  32.9569988
   9.8930012   1.5654997  32.3209988  10.7573644   1.6625900  32.3229539
  14.1520012   5.4994997  33.0569988  13.6380012   5.3734997  33.8549988
  13.9970012   6.4114997  32.8129988  14.0606852   5.6056132  33.1332158
  14.9150012  10.3604997  18.8189988  14.9570012  10.1374997  17.8889988
  15.7640012  10.7594997  19.0089988  15.0355396  10.3839155  18.7173627
  10.4870012   4.2364997  19.4889988  10.2340012   4.2554997  20.4119988
  10.2310012   3.3644997  19.1879988  10.4177790   4.1212437  19.5746263
   6.2540012   6.9874997  29.9239988   5.6120012   6.9464997  30.6329988
   6.2910012   7.9134997  29.6869988   6.1711324   7.1071559  29.9889824
   6.2510012   7.2084997  24.8359988   5.3580012   6.8674997  24.7779988
   6.7010012   6.8314997  24.0809988   6.1897305   7.1108484  24.7259177
  11.7860012   7.6244997  23.6529988  11.3770012   8.4394997  23.3619988
  12.5070012   7.4844997  23.0389988  11.8274537   7.7172018  23.5301342
  10.8880012   7.7994997  35.1409988  10.3260012   7.0954997  35.4619988
  11.7150012   7.6794997  35.6089988  10.9227095   7.6867883  35.2482330
  12.7910012   7.0704997  26.4669988  12.5960012   7.6754997  25.7519988
  12.9720012   6.2364997  26.0329988  12.7887614   7.0406300  26.3104405
   4.0040012   7.3074997  31.7909988   3.9660012   7.7074997  32.6599988
   3.5130012   6.4904997  31.8819988   3.9324684   7.2518069  31.9221059
   7.3700012   4.6814997  18.5899988   6.9390012   4.2364997  19.3199988
   6.6520012   5.0534997  18.0779988   7.2139438   4.6708940  18.6206799
   0.6120012   4.4234997  25.6419988   1.2430012   4.3944997  26.3609988
   1.0610012   3.9984997  24.9119988   0.7590774   4.3620492  25.6416553
   1.8860012   5.1694997  21.0659988   2.3600012   5.7604997  20.4809988
   1.1690012   5.7004997  21.4129988   1.8539341   5.3220867  21.0328836
  12.0550012   8.7084997  31.1389988  12.3780012   8.0774997  30.4959988
  11.6150012   8.1734997  31.7989988  12.0396895   8.5498441  31.1402850
   8.8320012   4.6354997  25.9229988   7.9210012   4.6924997  26.2109988
   9.3380012   4.5754997  26.7329988   8.7755413   4.6351985  26.0720622
   3.6610012   6.2644997  24.7489988   2.7710012   6.3644997  24.4089988
   3.9570012   5.4224997  24.4029988   3.5792823   6.1643546  24.6557213
   7.3140012   6.2644997  22.4059988   8.2450012   6.3934997  22.5839988
   7.0990012   6.9344997  21.7559988   7.4124247   6.3726565  22.3425747
  13.2370012   3.8704997  29.1869988  12.5610012   4.0014997  29.8509988
  12.7520012   3.7154997  28.3769988  13.0787145   3.8674905  29.1684517
   5.9880012   7.4594997  19.9729988   5.4450012   7.0794997  19.2809988
   6.8210012   7.6534997  19.5439988   6.0264399   7.4338124  19.8204526
  16.5250012  19.5424997  35.4639988  16.7250012  19.9664997  34.6289988
  17.1800012  19.8854997  36.0709988  16.6410051  19.6469648  35.4317836
   4.1230012  12.0164997  35.0719988   4.8550012  12.2704997  35.6329988
   3.3430012  12.2204997  35.5869988   4.1178232  12.0789177  35.2185760
  10.1520012   7.4234997  27.8099988  10.7170012   6.8764997  27.2629988
  10.0050012   6.9014997  28.5979988  10.2092918   7.2782024  27.8418454
   5.1540012   3.5594997  24.2279988   4.8370012   2.6574997  24.1929988
   5.9360012   3.5614997  23.6749988   5.2162284   3.4361628  24.1484783
   8.7790012   5.8114997  30.2239988   7.9430012   6.2654997  30.3339988
   9.3030012   6.0874997  30.9759988   8.7354414   5.9109376  30.3407136
   9.3230012  12.0244997  21.9079988   8.5780012  11.5174997  21.5859988
   9.1890012  12.0734997  22.8549988   9.2028776  11.9616940  21.9918647
  16.4730012  11.1574997  30.6949988  17.1150012  11.6144997  30.1509988
  15.6430012  11.2704997  30.2319988  16.4485963  11.2352704  30.5580177
  13.2210012   4.8384997  20.1079988  12.2820012   4.9504997  19.9559988
  13.5180012   5.6954997  20.4139988  13.1327666   4.9696443  20.1285768
  10.8420012  12.2084997  33.1449988  10.4970012  11.8274997  33.9519988
  10.6420012  13.1424997  33.2169988  10.7678061  12.2825228  33.2650961
  13.9390012   6.7054997  21.7679988  14.8310012   6.5684997  22.0869988
  13.9960012   7.4964997  21.2319988  14.0686285   6.7936660  21.7391691
   4.4480012  11.3194997  27.6779988   5.1930012  11.3174997  27.0769988
   4.5260012  10.4964997  28.1599988   4.5605518  11.2079315  27.6608929
  11.4490012  13.4834997  20.9339988  11.1530012  14.3094997  21.3149988
  10.7460012  12.8634997  21.1299988  11.3134914  13.5128199  21.0126443
   1.4560012   9.7804997  32.9929988   1.6790012   9.3624997  33.8249988
   0.8540012   9.1674997  32.5699988   1.4051759   9.6404668  33.0497022
   8.4720012   9.2974997  35.2059988   8.1760012   9.1314997  34.3109988
   9.4040012   9.0774997  35.1949988   8.5574166   9.2450640  35.0820536
  13.0930012  14.6704997  33.0959988  12.1920012  14.8534997  32.8279988
  13.1270012  14.9294997  34.0169988  12.9743041  14.7305512  33.1838197
  18.8240012   6.9154997  21.4629988  18.2700012   6.5194997  20.7909988
  18.9240012   7.8254997  21.1849988  18.7617059   6.9843586  21.3334401
  18.7870012  12.7154997  34.2999988  17.9360012  12.9534997  33.9329988
  19.3780012  12.6984997  33.5469988  18.7502487  12.7458258  34.1478893
  17.1190012  15.7014997  21.9279988  16.7460012  14.8754997  22.2369988
  17.3970012  15.5184997  21.0309988  17.1055630  15.5637303  21.8489626
  14.2800012  10.5094997  28.9489988  13.3510012  10.2774997  28.9219988
  14.7310012   9.7324997  28.6189988  14.2139216  10.3727238  28.9006917
   6.8230012  14.8374997  25.0819988   7.3500012  15.6104997  24.8819988
   5.9430012  15.0624997  24.7809988   6.7761773  14.9738005  25.0139010
   2.5780012   9.6994997  19.6689988   3.1940012  10.3264997  20.0489988
   1.7160012  10.0154997  19.9409988   2.5457698   9.8279430  19.7577183
   8.2500012  12.5004997  24.6589988   8.0090012  13.4254997  24.6999988
   7.5090012  12.0414997  25.0549988   8.1168409  12.5651421  24.7181377
   8.7650012  16.6494997  30.9739988   9.1270012  17.5044997  30.7399988
   9.2960012  16.3574997  31.7139988   8.8864473  16.7271060  31.0420855
   6.9330012  17.5224997  24.2039988   5.9830012  17.6274997  24.2549988
   7.2850012  18.3424997  24.5489988   6.8504203  17.6478314  24.2576650
  12.3090012  12.7484997  30.6739988  11.8830012  12.5214997  31.5009988
  12.8890012  12.0104997  30.4919988  12.3291868  12.6175299  30.7625830
  14.5120012  13.6774997  19.7479988  14.8650012  13.2974997  20.5529988
  13.5630012  13.5844997  19.8349988  14.4320441  13.6129596  19.8698559
  14.9670012  17.3004997  33.1439988  14.3660012  16.7454997  32.6479988
  15.2490012  17.9674997  32.5179988  14.9228519  17.3146841  32.9914952
  19.0150012  18.1574997  19.9489988  19.7590012  18.7434997  19.8089988
  18.3210012  18.7254997  20.2829988  19.0230292  18.3145582  19.9749961
   3.0900012   4.5334997  32.5509988   2.1970012   4.8724997  32.4829988
   2.9910012   3.6784997  32.9689988   2.9544164   4.4642588  32.5982235
  15.3780012  12.3504997  21.9749988  15.1000012  11.6224997  22.5309988
  16.3050012  12.4694997  22.1799988  15.4653124  12.2668802  22.0788845
   2.7410012  16.3384997  30.9859988   2.9580012  15.4064997  30.9549988
   2.9870012  16.6124997  31.8689988   2.8039549  16.2480636  31.1011763
   8.6030012  14.7894997  18.1949988   8.8420012  14.0414997  17.6479988
   8.3340012  14.4014997  19.0279988   8.5993675  14.6346638  18.2326865
   7.5400012  14.3594997  20.6519988   7.6860012  13.8394997  21.4419988
   7.5370012  15.2664997  20.9579988   7.5595989  14.4108853  20.8016088
   3.9930012  11.6124997  21.1619988   3.3070012  11.9644997  21.7289988
   4.5150012  12.3754997  20.9149988   3.9696852  11.7638578  21.2062118
  11.8240012   4.2744997  31.4409988  12.5230012   4.3484997  32.0909988
  11.4430012   3.4104997  31.5949988  11.8681767   4.1677624  31.5508322
  12.6090012   3.9264997  22.5379988  12.8290012   4.3984997  21.7349988
  13.1670012   4.3214997  23.2079988  12.7144968   4.0444285  22.5187331
  10.2770012  16.0574997  21.4009988   9.4610012  16.5544997  21.4529988
  10.8070012  16.5324997  20.7609988  10.2369161  16.1897722  21.3215956
   9.8090012   5.6544997  23.3729988  10.6210012   6.1594997  23.4189988
   9.5640012   5.5094997  24.2869988   9.8870520   5.7040375  23.5028517
  10.3440012   6.6404997  32.5579988  10.4630012   7.2144997  33.3149988
  11.0000012   5.9524997  32.6719988  10.4489757   6.6261079  32.6770825
  10.6920012   2.7354997  24.3109988  10.3460012   3.3534997  24.9559988
  11.3510012   3.2364997  23.8299988  10.7337826   2.8875802  24.3340971
   7.6160012  17.1014997  21.3829988   7.7760012  17.9004997  20.8819988
   7.4180012  17.4074997  22.2679988   7.6111649  17.2524469  21.4339815
   6.3500012   3.7984997  20.9979988   6.2670012   4.6874997  21.3449988
   7.2400012   3.5334997  21.2299988   6.4589469   3.8841430  21.0767626
  16.5490012   4.5474997  33.3929988  15.6320012   4.8104997  33.3049988
  16.8840012   4.5444997  32.4959988  16.4689900   4.5830224  33.2597919
  15.1510012   8.2984997  27.4879988  14.3530012   7.8834997  27.1599988
  15.5960012   7.6074997  27.9789988  15.1019885   8.1483543  27.5094889
   4.6090012  14.2264997  20.0589988   5.2010012  14.9254997  20.3349988
   5.0680012  13.7934997  19.3389988   4.7521142  14.2637049  19.9994830
   2.9250012   6.8904997  19.1749988   2.8800012   7.8294997  19.3529988
   2.0370012   6.6544997  18.9049988   2.7988574   6.9871892  19.1628912
  16.2370012  17.5544997  29.1109988  16.0820012  18.2324997  28.4539988
  17.1700012  17.6264997  29.3139988  16.3418500  17.6570170  29.0485119
   3.7330012   1.6724997  27.8479988   3.5040012   1.7314997  26.9199988
   3.2900012   0.8804997  28.1539988   3.6418530   1.5735753  27.7624786
   2.6630012  15.6124997  24.0079988   1.8310012  16.0854997  24.0359988
   3.2090012  16.1224997  23.4099988   2.6229739  15.7461871  23.9309716
   1.9510012  18.2254997  35.3379988   2.4920012  18.0084997  36.0979988
   1.4700012  17.4194997  35.1489988   1.9599345  18.0869514  35.4163076
   6.5490012  17.1444997  36.9589988   7.3160012  16.6854997  37.2999988
   6.5270012  16.9184997  36.0289988   6.6511434  17.0510409  36.8800043
  10.6410012  16.6524997  18.3339988   9.9970012  16.0214997  18.6549988
  11.4030012  16.1214997  18.1019988  10.6558077  16.4942920  18.3466011
  13.1260012  15.5244997  35.6879988  12.7750012  14.6684997  35.9309988
  13.8520012  15.6674997  36.2949988  13.1760769  15.4265636  35.8033619
  15.2450012  16.4694997  18.5679988  15.5280012  15.6754997  19.0199988
  15.9850012  16.7024997  18.0069988  15.3837486  16.3922803  18.5540698
   1.8580012  12.0354997  36.2929988   2.0020012  11.1334997  36.0059988
   1.0860012  12.3214997  35.8049988   1.7733322  11.9508261  36.1877881
   6.2000012  12.3794997  18.4249988   6.2640012  11.5854997  18.9559988
   6.8530012  12.2604997  17.7349988   6.2970241  12.2547148  18.4044317
   8.5140012  12.0054997  35.7249988   8.1850012  12.2764997  34.8679988
   8.6660012  11.0644997  35.6379988   8.4894809  11.9153862  35.5958244
  11.5520012  13.4264997  18.1609988  11.2830012  13.6064997  19.0619988
  11.3460012  12.5004997  18.0299988  11.4873825  13.3260152  18.2665214
  14.2480012  11.9214997  33.1089988  14.9940012  12.5094997  32.9889988
  13.4910012  12.5034997  33.1719988  14.2477554  12.0807011  33.1010907
   2.6910012   9.2354997  35.7129988   3.0990012   8.3784997  35.5919988
   2.4310012   9.2504997  36.6339988   2.7117568   9.1200807  35.8209588
   7.3490012  10.3514997  20.7309988   6.8890012   9.8674997  21.4169988
   7.6040012   9.6834997  20.0949988   7.3204902  10.1948731  20.7389334
   6.6380012   8.2444997  33.0869988   6.0200012   8.9194997  33.3669988
   6.9820012   8.5654997  32.2539988   6.5999615   8.3802721  33.0126581
   8.4200012   8.5944997  18.9929988   8.2400012   8.4404997  18.0659988
   9.3700012   8.7024997  19.0379988   8.5237776   8.5880175  18.8721843
  11.6580012  10.7164997  36.3639988  12.6110012  10.7994997  36.3369988
  11.4970012  10.0044997  36.9839988  11.7666426  10.6316746  36.4440579
  17.8100012  10.9494997  18.4389988  17.5360012  10.5244997  17.6259988
  17.8490012  11.8804997  18.2219988  17.7777699  11.0172484  18.2983610
   6.9770012   5.5994997  34.1689988   7.1270012   4.8704997  33.5669988
   6.9800012   6.3764997  33.6099988   6.9979302   5.6047851  34.0110692
   7.3900012   3.9694997  31.6619988   7.9260012   4.4204997  31.0099988
   6.5380012   3.8614997  31.2389988   7.3482178   4.0166390  31.5155756
   8.9720012   9.4084997  31.9009988   9.7220012   9.2524997  31.3279988
   8.6330012  10.2604997  31.6259988   9.0288921   9.5022968  31.7853561
  13.3870012   7.2234997  36.9299988  13.5800012   6.2924997  36.8179988
  14.2450012   7.6484997  36.9199988  13.5293020   7.1536389  36.9133361
  14.7040012  10.0124997  35.0069988  14.4230012  10.7214997  34.4299988
  15.6470012   9.9394997  34.8559988  14.7929027  10.0997646  34.9075551
   5.4560012   6.7974997  36.0809988   4.6890012   6.2654997  35.8709988
   6.1350012   6.4874997  35.4809988   5.4427022   6.6827506  35.9711648
   8.1960012   1.4254997  32.0929988   8.0970012   2.3724997  31.9879988
   7.4530012   1.0534997  31.6179988   8.0820563   1.5045902  32.0144560
   9.4600012   5.7474997  35.6569988   9.2240012   5.5274997  36.5589988
   8.6760012   5.5404997  35.1469988   9.3218628   5.6894760  35.7113932
  12.1750012   4.8744997  34.7329988  11.2280012   4.9064997  34.8649988
  12.4880012   4.2494997  35.3859988  12.0875475   4.7943207  34.8394455
  13.8090012   3.5084997  36.7379988  13.7130012   2.5564997  36.7319988
  13.4880012   3.7774997  37.5979988  13.7524070   3.4144035  36.8535441
   3.6360012   4.7184997  35.7849988   3.8480012   4.0114997  35.1749988
   3.5250012   4.2804997  36.6289988   3.6499721   4.5627084  35.8156843
   8.4170012   0.7194997  34.7649988   9.1290012   0.0794997  34.7509988
   8.3160012   0.9864997  33.8509988   8.5007939   0.6679938  34.6395650
   8.7710012   2.4024997  36.8179988   8.6390012   1.9264997  35.9979988
   8.1720012   3.1464997  36.7629988   8.6719071   2.4379618  36.6982886
   8.3170012  19.2854997  19.9949988   9.2500012  19.4434997  20.1379988
   8.0530012  19.9604997  19.3699988   8.4089510  19.3983611  19.9300741
   1.8860012  13.9214997  19.4769988   2.8000012  14.0004997  19.7509988
   1.8930012  13.2344997  18.8109988   2.0121131  13.8393961  19.4244393
   0.5350012  19.3144997  24.5549988  -0.1119988  18.8524997  24.0219988
   0.8890012  18.6424997  25.1369988   0.4943849  19.1604723  24.5607959
   1.4050012  17.3954997  26.3589988   1.0700012  16.5154997  26.5309988
   1.6270012  17.7404997  27.2239988   1.3891783  17.3217501  26.4994208
  18.9530012  18.2044997  29.3399988  18.9320012  18.3894997  30.2789988
  19.6440012  18.7734997  28.9989988  19.0434618  18.3066606  29.4223864
  18.5170012  17.7724997  32.2619988  18.0290012  17.0364997  31.8909988
  19.0660012  17.3784997  32.9399988  18.5244872  17.6186249  32.3029160
  16.9670012  13.5614997  36.8999988  16.1010012  13.4564997  37.2939988
  17.3440012  14.3204997  37.3459988  16.8993308  13.6496900  37.0142393
  18.2680012  11.8184997  22.4139988  19.1180012  12.2394997  22.5409988
  18.2740012  11.0784997  23.0209988  18.3851372  11.7760803  22.5134344
  18.6630012   9.8714997  24.2379988  17.9360012   9.3924997  24.6349988
  19.2440012  10.0774997  24.9699988  18.6419375   9.8337090  24.3914129
  18.4220012  12.6564997  29.1849988  19.2550012  12.2784997  28.9049988
  18.5340012  13.5994997  29.0659988  18.5512647  12.7322218  29.1305487
  16.9080012  15.5344997  31.4919988  16.2610012  15.8594997  32.1179988
  16.3910012  15.0944997  30.8179988  16.7494029  15.5195004  31.4865827
  18.9310012   9.7724997  20.6289988  18.4090012  10.1294997  19.9099988
  18.8980012  10.4474997  21.3069988  18.8551634   9.9125413  20.6223145
  17.2800012   7.0124997  19.1799988  17.3760012   7.6794997  18.4989988
  17.1400012   6.1964997  18.6979988  17.2742135   6.9934500  19.0218491
  16.4490012   8.3924997  24.8009988  16.2990012   7.4474997  24.7799988
  16.0960012   8.6734997  25.6439988  16.3806625   8.3010441  24.9122346
   1.4850012  10.4704997  28.8109988   1.6690012  10.3884997  27.8749988
   2.3340012  10.3464997  29.2349988   1.6250139  10.4425003  28.7401455
  17.3060012  10.3624997  34.4389988  17.8890012   9.6284997  34.6309988
  17.8700012  11.1344997  34.4859988  17.4619769  10.3664227  34.4716159
  18.8020012   8.2654997  35.1239988  17.9390012   7.8864997  34.9579988
  19.4070012   7.5264997  35.0499988  18.7655979   8.1138023  35.0912817
  16.5270012   4.4204997  18.2969988  17.1380012   4.0494997  18.9339988
  15.6910012   3.9994997  18.4929988  16.4975032   4.3127554  18.4107035
  16.1600012   5.9754997  23.2629988  16.4400012   5.0684997  23.3869988
  16.9190012   6.4094997  22.8739988  16.3009277   5.9100942  23.2273682
  16.7720012   6.5564997  28.6989988  17.7050012   6.7684997  28.6649988
  16.5370012   6.6584997  29.6209988  16.8678036   6.5992769  28.8189976
  16.8010012   7.2934997  31.4749988  15.9580012   7.5614997  31.8409988
  17.2430012   8.1154997  31.2639988  16.7454158   7.4413291  31.4965491
   1.0820012   5.7414997  34.9519988   2.0020012   5.6194997  35.1879988
   0.6330012   4.9914997  35.3409988   1.1471580   5.6233727  35.0369006
  19.0840012   1.2734997  36.8279988  19.4340012   0.6194997  36.2229988
  19.2310012   2.1104997  36.3889988  19.1518419   1.2971591  36.6857118
  16.7730012   3.2384997  23.3109988  16.9560012   2.7894997  24.1369988
  16.1740012   2.6534997  22.8479988  16.7170202   3.0979975  23.3613275
   2.3030012   4.0534997  27.8429988   2.7490012   3.2614997  28.1449988
   2.7700012   4.7694997  28.2739988   2.4270172   4.0420624  27.9424820
   0.6070012   7.0524997  28.9119988   1.0990012   6.8314997  28.1209988
   0.9700012   7.8934997  29.1929988   0.7233126   7.1358357  28.8417531
  18.6040012   3.3824997  35.1779988  17.6860012   3.6534997  35.1419988
  18.7270012   2.8474997  34.3929988  18.4951066   3.3472892  35.0670487
  18.6400012   3.3054997  19.8389988  19.0520012   2.5844997  19.3639988
  19.3220012   3.9754997  19.8979988  18.7885885   3.2972368  19.7818915
   0.9210012   3.3104997  22.9659988  -0.0039988   3.5194997  22.8369988
   1.3750012   3.7944997  22.2769988   0.8557368   3.4045993  22.8551226
  15.6920012  18.2944997  24.9119988  16.3440012  17.9474997  24.3039988
  16.2020012  18.7834997  25.5579988  15.8502637  18.3130597  24.9160236
   0.8850012   2.0484997  31.3109988   0.2200012   1.8024997  31.9539988
   0.4420012   2.6704997  30.7329988   0.7340956   2.0988632  31.3209352
   3.0770012  15.2234997  35.4549988   2.2560012  15.3984997  34.9949988
   2.8240012  15.1504997  36.3759988   2.9306164  15.2375622  35.5164923
   6.0310012  16.1984997  31.7139988   5.6060012  17.0074997  31.4309988
   6.9350012  16.2834997  31.4119988   6.0950271  16.3208469  31.6343776
  10.3420012  17.5974997  34.6729988  10.5270012  17.2634997  35.5509988
  11.1880012  17.9064997  34.3509988  10.4817539  17.5936047  34.7495605
  12.6870012  18.8834997  33.9169988  13.3640012  18.2504997  33.6769988
  13.0090012  19.2844997  34.7239988  12.8231637  18.8511154  33.9932793
  17.6040012   1.4724997  32.9969988  16.7920012   1.7974997  32.6089988
  17.8370012   0.7124997  32.4639988  17.5243423   1.4142436  32.8718253
   3.4330012  19.4544997  31.7609988   2.7120012  19.8944997  31.3099988
   3.0670012  19.2034997  32.6099988   3.2849804  19.4807698  31.8139840
   5.9000012  19.0544997  30.7909988   5.0350012  19.1264997  31.1949988
   5.8450012  19.6014997  30.0069988   5.7742085  19.1382685  30.7403362
  10.6100012  18.9424997  29.9659988  10.1540012  19.4714997  29.3119988
  10.7730012  19.5454997  30.6919988  10.5695585  19.0964468  29.9745062
  12.9380012  17.8204997  30.9109988  12.0330012  17.9854997  30.6459988
  13.3670012  18.6734997  30.8459988  12.8720799  17.9584483  30.8659182
  15.5420012  19.3904997  31.2059988  15.3600012  20.3064997  30.9959988
  15.7190012  18.9804997  30.3599988  15.5410210  19.4604822  31.0627885
   2.8470012  18.0774997  28.6709988   2.8290012  17.6524997  29.5289988
   3.6520012  17.7594997  28.2629988   2.9533875  17.9763812  28.7331655
   4.9890012  16.7874997  27.3259988   4.7700012  15.8714997  27.4959988
   5.8130012  16.9274997  27.7919988   5.0704420  16.6810520  27.4122774
   7.5260012  17.2574997  28.1749988   7.7390012  16.3694997  27.8879988
   7.5900012  17.2234997  29.1289988   7.5638232  17.1313102  28.2647397
  11.0340012   2.9214997  27.3189988  10.3600012   2.2924997  27.5749988
  11.5980012   2.4374997  26.7159988  11.0179230   2.7698744  27.2725340
  16.1770012   1.0294997  27.4319988  16.7810012   1.5764997  26.9299988
  15.3070012   1.3484997  27.1919988  16.1421241   1.1475806  27.3307654
  17.9040012   2.1674997  25.7649988  18.5160012   1.6534997  25.2389988
  18.2860012   3.0454997  25.7889988  18.0394540   2.2157140  25.6961830
   3.3610012   1.5554997  25.1409988   2.5840012   1.3214997  24.6339988
   3.8910012   0.7584997  25.1499988   3.3262330   1.4156988  25.0727742
   2.1970012   1.3534997  20.9449988   2.6360012   1.9644997  20.3529988
   1.5640012   1.8914997  21.4189988   2.1714514   1.5099257  20.9280930
   7.9400012   1.4824997  24.9549988   8.8150012   1.8704997  24.9249988
   7.8040012   1.2674997  25.8769988   8.0413695   1.5065184  25.0756440
  13.4970012   1.5124997  26.6039988  13.5730012   1.6074997  25.6539988
  13.2220012   0.6044997  26.7329988  13.4702321   1.4027867  26.4915079
  14.8500012   1.5384997  22.2959988  14.1480012   2.1534997  22.0869988
  14.4060012   0.7004997  22.4269988  14.6936330   1.5095783  22.2850328
   2.0980012  17.3014997  21.8429988   1.4130012  17.2634997  21.1749988
   2.1020012  18.2144997  22.1309988   2.0048193  17.4197016  21.7905284
   4.0580012   3.2694997  19.3869988   4.5500012   2.6394997  18.8599988
   4.6820012   3.5654997  20.0509988   4.2095446   3.2233199  19.4045980
   9.0840012   3.5624997  21.8439988   9.2620012   2.9164997  22.5269988
   9.0310012   4.3964997  22.3119988   9.1011829   3.5867985  22.0005940
  10.9630012  18.5114997  20.2399988  11.8290012  18.8774997  20.0619988
  10.7160012  18.0714997  19.4259988  11.0482392  18.5021756  20.1056289
  17.6720012  18.0744997  22.9189988  17.4770012  17.3264997  22.3539988
  17.6330012  18.8324997  22.3359988  17.6400380  18.0746099  22.7628384
   3.3190012   2.0694997  34.6589988   2.9530012   1.3044997  35.1019988
   4.2320012   2.0984997  34.9459988   3.3922790   1.9687224  34.7584070
   5.2920012   1.4204997  36.1949988   6.1900012   1.1464997  36.0099988
   4.9050012   0.6774997  36.6589988   5.3626612   1.2825914  36.2323643
   3.9160012  18.2214997  18.8679988   3.6490012  18.5084997  19.7409988
   4.6880012  17.6754997  19.0199988   3.9837488  18.1870294  19.0081050
  13.7130012   0.7524997  36.3769988  13.7900012   0.3264997  37.2309988
  14.6070012   0.7664997  36.0339988  13.8443428   0.6960879  36.4475310
  16.8890012  16.8254997  35.0689988  16.1070012  16.6394997  34.5499988
  16.8170012  17.7544997  35.2869988  16.7721777  16.9256492  35.0274048
  31.2950012  10.7114997  25.0999988  31.3840012  11.6554997  24.9679988
  30.6570012  10.4364997  24.4419988  31.2209081  10.8034830  24.9929614
  30.2280012   9.9664997  28.5189988  30.1900012   9.3204997  29.2239988
  29.9060012   9.5004997  27.7479988  30.1792333   9.8149408  28.5112978
  22.5970012   9.5814997  30.1119988  22.6380012   8.9554997  30.8349988
  23.3000012  10.2054997  30.2939988  22.6976363   9.5801196  30.2356044
  33.9340012  12.9054997  26.8199988  33.4940012  12.1854997  27.2709988
  33.9210012  13.6264997  27.4499988  33.8720226  12.9043731  26.9668494
  23.5200012  14.0314997  28.6469988  23.1510012  13.2294997  28.2769988
  24.4610012  13.8624997  28.6929988  23.5967289  13.8990153  28.6026316
  20.1300012   7.6914997  24.0399988  19.6830012   8.5374997  24.0209988
  19.5690012   7.1114997  23.5239988  19.9929900   7.7289916  23.9676801
  20.8410012   9.8534997  26.1659988  21.0540012   9.0834997  26.6929988
  21.5790012   9.9424997  25.5619988  20.9698496   9.7601394  26.1565300
  31.0460012  18.0104997  27.0329988  31.6660012  17.3334997  26.7589988
  30.8380012  17.7924997  27.9409988  31.1026904  17.8883870  27.1183365
  28.6180012  12.3994997  28.9249988  28.9220012  11.7134997  28.3299988
  29.3390012  12.5174997  29.5429988  28.7570671  12.3216305  28.9271816
  37.2810012   4.0004997  29.7859988  37.3300012   4.6104997  30.5219988
  37.7060012   4.4614997  29.0629988  37.3451824   4.1463741  29.7890205
  31.7590012   6.7934997  29.2529988  31.9010012   5.8474997  29.2729988
  31.6520012   7.0004997  28.3239988  31.7639864   6.6919534  29.1302339
  24.9130012   4.8944997  26.5249988  24.9570012   5.7544997  26.1069988
  24.4560012   4.3424997  25.8909988  24.8572185   4.9375799  26.3820299
  32.6360012   5.0254997  24.9259988  33.2820012   4.6964997  25.5509988
  33.1460012   5.5434997  24.3029988  32.7934264   5.0504611  24.9273862
  21.5340012   7.2914997  27.2869988  22.1870012   6.7414997  27.7189988
  21.5580012   7.0174997  26.3699988  21.6266683   7.1791466  27.2222123
  26.6900012   8.8414997  26.5019988  27.3060012   8.3154997  27.0119988
  26.1040012   8.2014997  26.0989988  26.6950810   8.6829208  26.5173173
  37.6720012   5.4784997  32.0219988  36.9840012   6.1364997  31.9259988
  37.6880012   5.2814997  32.9579988  37.5798525   5.5420462  32.1354808
  23.7240012   3.8124997  30.5989988  23.5050012   4.3424997  29.8329988
  23.0560012   4.0394997  31.2459988  23.6037600   3.9156906  30.5816379
  31.0930012  13.3124997  24.1429988  30.7970012  12.9904997  23.2919988
  30.7680012  14.2124997  24.1839988  31.0086371  13.3900215  24.0321801
  26.2930012  11.4884997  30.8859988  25.5530012  12.0864997  30.9899988
  27.0070012  12.0424997  30.5709988  26.2882237  11.6452831  30.8576465
  34.4000012   4.3164997  26.9059988  34.1840012   3.5504997  27.4389988
  35.0550012   4.7884997  27.4189988  34.4590632   4.2755889  27.0482861
  23.3170012   5.7044997  28.5509988  23.9310012   6.3374997  28.9249988
  23.8290012   5.2324997  27.8949988  23.4702296   5.7272370  28.5134252
  24.7000012  13.4524997  31.6739988  24.6950012  14.3324997  31.2959988
  23.8470012  13.3694997  32.0989988  24.5839464  13.5616117  31.6797907
  20.8210012  13.1234997  22.4559988  20.5490012  13.3524997  21.5669988
  20.8670012  13.9614997  22.9159988  20.7900094  13.2681213  22.3965697
  34.4460012  14.7454997  29.1679988  33.5050012  14.8034997  29.3299988
  34.7230012  15.6514997  29.0309988  34.3544679  14.8759443  29.1716815
  34.7470012   3.0314997  30.5859988  34.0110012   3.6424997  30.5479988
  35.4300012   3.4464997  30.0589988  34.7386541   3.1711374  30.5095832
  27.7500012   1.1184997  28.0519988  27.6330012   0.1694997  27.9969988
  26.8950012   1.4504997  28.3249988  27.6183733   1.0335409  28.0813897
  32.6980012  16.5264997  25.7939988  33.1240012  15.8194997  25.3089988
  33.0150012  17.3274997  25.3769988  32.7991019  16.5380994  25.6713130
  33.8580012  14.4274997  24.3019988  33.6000012  13.7374997  23.6909988
  33.9290012  13.9844997  25.1479988  33.8322856  14.2732124  24.3326885
  35.5440012  12.9934997  32.7799988  35.6840012  12.4024997  32.0399988
  35.7110012  13.8664997  32.4229988  35.5856778  13.0306426  32.6306965
  30.0170012   9.9554997  22.5519988  29.3050012  10.4904997  22.1999988
  30.7080012  10.0114997  21.8919988  30.0130132  10.0362543  22.4146289
  30.0700012   8.4134997  19.5909988  30.7710012   8.4354997  20.2419988
  30.3730012   7.7854997  18.9349988  30.2067830   8.3316566  19.5913711
  37.3860012   9.3334997  30.8459988  36.7330012  10.0284997  30.9349988
  37.8510012   9.5434997  30.0359988  37.3595390   9.4569425  30.7486883
  33.4220012  10.1654997  23.5039988  32.6900012  10.3934997  24.0769988
  33.8700012   9.4514997  23.9589988  33.3823095  10.1002571  23.6439119
  33.3200012   8.3394997  32.5709988  33.4000012   9.1024997  33.1429988
  32.7180012   8.6184997  31.8809988  33.2495756   8.4817134  32.5560589
  25.0680012  10.7954997  25.3859988  24.7370012  10.4254997  24.5679988
  25.6560012  10.1254997  25.7329988  25.1021873  10.6541156  25.3208102
  26.4340012  14.2234997  28.0679988  26.3400012  13.6454997  27.3109988
  27.1640012  13.8524997  28.5639988  26.5197981  14.0942390  28.0314165
  25.4340012   9.5644997  29.0199988  26.0000012   9.6854997  28.2569988
  25.7530012  10.2014997  29.6589988  25.5545786   9.6671884  29.0020040
  31.7430012  15.0674997  29.7539988  31.5030012  15.7294997  30.4019988
  31.5450012  14.2334997  30.1789988  31.6833808  15.0453134  29.9001524
  26.3140012  13.9634997  33.7369988  26.0030012  14.7454997  34.1919988
  25.6640012  13.8104997  33.0509988  26.1835558  14.0499105  33.7065871
  32.2930012   9.3274997  21.1889988  32.8730012   9.4774997  21.9359988
  32.7070012   9.7984997  20.4659988  32.4282830   9.4116841  21.1934134
  23.2340012  10.1614997  32.9659988  23.3050012  10.8124997  33.6639988
  22.3440012  10.2644997  32.6309988  23.1233117  10.2645936  33.0162700
  30.0200012  16.0644997  24.6239988  30.4940012  16.3594997  25.4019988
  29.4570012  16.8024997  24.3909988  30.0087653  16.2046932  24.6990136
  24.5540012  16.0354997  34.4999988  24.5610012  15.8994997  33.5529988
  23.6380012  15.9174997  34.7519988  24.4311714  16.0009430  34.4044666
  35.9920012   1.0774997  21.0019988  35.0920012   1.2164997  21.2969988
  36.2440012   1.9084997  20.5999988  35.9028702   1.2089074  20.9880205
  24.0580012   9.8654997  22.9759988  23.7660012  10.6334997  22.4849988
  23.3840012   9.2054997  22.8129988  23.9269081   9.8814406  22.8867340
  37.1810012  15.4434997  19.3779988  37.2550012  16.3824997  19.5489988
  38.0870012  15.1384997  19.3219988  37.3135100  15.5306722  19.3938119
  20.1510012  12.2284997  31.7909988  19.6500012  12.2004997  30.9759988
  20.1560012  11.3224997  32.0999988  20.0831526  12.1022278  31.7212872
  19.9010012  15.0084997  28.6749988  20.8470012  14.8644997  28.6559988
  19.7890012  15.7924997  29.2119988  20.0152727  15.0948046  28.7450072
  38.0990012  15.6744997  34.3569988  38.0500012  14.7194997  34.3199988
  37.2720012  15.9424997  34.7579988  37.9804940  15.5798998  34.4061375
  29.0780012  15.2484997  33.2329988  29.1650012  16.0744997  33.7079988
  28.2140012  14.9184997  33.4819988  28.9731964  15.3169878  33.3316549
  29.4920012  19.0204997  23.0389988  29.4170012  18.8994997  22.0929988
  29.5250012  19.9704997  23.1579988  29.4861848  19.1322500  22.9254834
  23.1450012  17.8094997  24.8199988  23.2980012  17.4614997  25.6989988
  22.2950012  17.4534997  24.5649988  23.0508962  17.7136650  24.9058340
  32.5940012  18.1744997  20.0409988  32.9690012  17.4304997  19.5709988
  32.5980012  17.9044997  20.9599988  32.6458915  18.0361486  20.1007824
  32.2630012  18.1004997  22.7909988  31.3270012  18.2004997  22.9689988
  32.5430012  17.3914997  23.3689988  32.1728255  18.0182711  22.8935391
  35.2510012   7.1674997  34.8369988  34.8440012   7.6484997  34.1159988
  35.2920012   6.2624997  34.5289988  35.2008437   7.1109374  34.6966683
  22.4000012  13.5514997  32.8339988  22.6160012  13.1904997  33.6929988
  21.5450012  13.1774997  32.6239988  22.3139292  13.4514111  32.9233386
  25.0190012   2.0214997  28.8289988  24.1570012   1.9344997  28.4219988
  24.9960012   2.8774997  29.2569988  24.8980330   2.1252765  28.8311863
  29.6820012   1.7434997  32.2039988  30.1020012   1.3284997  32.9569988
  28.7490012   1.5654997  32.3209988  29.6133644   1.6625900  32.3229539
  33.0080012   5.4994997  33.0569988  32.4940012   5.3734997  33.8549988
  32.8530012   6.4114997  32.8129988  32.9166852   5.6056132  33.1332158
  33.7710012  10.3604997  18.8189988  33.8130012  10.1374997  17.8889988
  34.6200012  10.7594997  19.0089988  33.8915396  10.3839155  18.7173627
  29.3430012   4.2364997  19.4889988  29.0900012   4.2554997  20.4119988
  29.0870012   3.3644997  19.1879988  29.2737790   4.1212437  19.5746263
  25.1100012   6.9874997  29.9239988  24.4680012   6.9464997  30.6329988
  25.1470012   7.9134997  29.6869988  25.0271324   7.1071559  29.9889824
  25.1070012   7.2084997  24.8359988  24.2140012   6.8674997  24.7779988
  25.5570012   6.8314997  24.0809988  25.0457305   7.1108484  24.7259177
  30.6420012   7.6244997  23.6529988  30.2330012   8.4394997  23.3619988
  31.3630012   7.4844997  23.0389988  30.6834537   7.7172018  23.5301342
  29.7440012   7.7994997  35.1409988  29.1820012   7.0954997  35.4619988
  30.5710012   7.6794997  35.6089988  29.7787095   7.6867883  35.2482330
  31.6470012   7.0704997  26.4669988  31.4520012   7.6754997  25.7519988
  31.8280012   6.2364997  26.0329988  31.6447614   7.0406300  26.3104405
  22.8600012   7.3074997  31.7909988  22.8220012   7.7074997  32.6599988
  22.3690012   6.4904997  31.8819988  22.7884684   7.2518069  31.9221059
  26.2260012   4.6814997  18.5899988  25.7950012   4.2364997  19.3199988
  25.5080012   5.0534997  18.0779988  26.0699438   4.6708940  18.6206799
  19.4680012   4.4234997  25.6419988  20.0990012   4.3944997  26.3609988
  19.9170012   3.9984997  24.9119988  19.6150774   4.3620492  25.6416553
  20.7420012   5.1694997  21.0659988  21.2160012   5.7604997  20.4809988
  20.0250012   5.7004997  21.4129988  20.7099341   5.3220867  21.0328836
  30.9110012   8.7084997  31.1389988  31.2340012   8.0774997  30.4959988
  30.4710012   8.1734997  31.7989988  30.8956895   8.5498441  31.1402850
  27.6880012   4.6354997  25.9229988  26.7770012   4.6924997  26.2109988
  28.1940012   4.5754997  26.7329988  27.6315413   4.6351985  26.0720622
  22.5170012   6.2644997  24.7489988  21.6270012   6.3644997  24.4089988
  22.8130012   5.4224997  24.4029988  22.4352823   6.1643545  24.6557213
  26.1700012   6.2644997  22.4059988  27.1010012   6.3934997  22.5839988
  25.9550012   6.9344997  21.7559988  26.2684247   6.3726565  22.3425747
  32.0930012   3.8704997  29.1869988  31.4170012   4.0014997  29.8509988
  31.6080012   3.7154997  28.3769988  31.9347145   3.8674905  29.1684517
  24.8440012   7.4594997  19.9729988  24.3010012   7.0794997  19.2809988
  25.6770012   7.6534997  19.5439988  24.8824399   7.4338124  19.8204526
  35.3810012  19.5424997  35.4639988  35.5810012  19.9664997  34.6289988
  36.0360012  19.8854997  36.0709988  35.4970051  19.6469648  35.4317836
  22.9790012  12.0164997  35.0719988  23.7110012  12.2704997  35.6329988
  22.1990012  12.2204997  35.5869988  22.9738232  12.0789177  35.2185760
  29.0080012   7.4234997  27.8099988  29.5730012   6.8764997  27.2629988
  28.8610012   6.9014997  28.5979988  29.0652918   7.2782024  27.8418454
  24.0100012   3.5594997  24.2279988  23.6930012   2.6574997  24.1929988
  24.7920012   3.5614997  23.6749988  24.0722284   3.4361628  24.1484783
  27.6350012   5.8114997  30.2239988  26.7990012   6.2654997  30.3339988
  28.1590012   6.0874997  30.9759988  27.5914414   5.9109376  30.3407136
  28.1790012  12.0244997  21.9079988  27.4340012  11.5174997  21.5859988
  28.0450012  12.0734997  22.8549988  28.0588776  11.9616940  21.9918647
  35.3290012  11.1574997  30.6949988  35.9710012  11.6144997  30.1509988
  34.4990012  11.2704997  30.2319988  35.3045963  11.2352704  30.5580177
  32.0770012   4.8384997  20.1079988  31.1380012   4.9504997  19.9559988
  32.3740012   5.6954997  20.4139988  31.9887666   4.9696443  20.1285768
  29.6980012  12.2084997  33.1449988  29.3530012  11.8274997  33.9519988
  29.4980012  13.1424997  33.2169988  29.6238061  12.2825228  33.2650961
  32.7950012   6.7054997  21.7679988  33.6870012   6.5684997  22.0869988
  32.8520012   7.4964997  21.2319988  32.9246285   6.7936660  21.7391691
  23.3040012  11.3194997  27.6779988  24.0490012  11.3174997  27.0769988
  23.3820012  10.4964997  28.1599988  23.4165518  11.2079315  27.6608929
  30.3050012  13.4834997  20.9339988  30.0090012  14.3094997  21.3149988
  29.6020012  12.8634997  21.1299988  30.1694914  13.5128199  21.0126443
  20.3120012   9.7804997  32.9929988  20.5350012   9.3624997  33.8249988
  19.7100012   9.1674997  32.5699988  20.2611759   9.6404668  33.0497022
  27.3280012   9.2974997  35.2059988  27.0320012   9.1314997  34.3109988
  28.2600012   9.0774997  35.1949988  27.4134166   9.2450640  35.0820536
  31.9490012  14.6704997  33.0959988  31.0480012  14.8534997  32.8279988
  31.9830012  14.9294997  34.0169988  31.8303041  14.7305512  33.1838197
  37.6800012   6.9154997  21.4629988  37.1260012   6.5194997  20.7909988
  37.7800012   7.8254997  21.1849988  37.6177059   6.9843586  21.3334401
  37.6430012  12.7154997  34.2999988  36.7920012  12.9534997  33.9329988
  38.2340012  12.6984997  33.5469988  37.6062487  12.7458258  34.1478893
  35.9750012  15.7014997  21.9279988  35.6020012  14.8754997  22.2369988
  36.2530012  15.5184997  21.0309988  35.9615630  15.5637303  21.8489626
  33.1360012  10.5094997  28.9489988  32.2070012  10.2774997  28.9219988
  33.5870012   9.7324997  28.6189988  33.0699216  10.3727238  28.9006917
  25.6790012  14.8374997  25.0819988  26.2060012  15.6104997  24.8819988
  24.7990012  15.0624997  24.7809988  25.6321773  14.9738005  25.0139010
  21.4340012   9.6994997  19.6689988  22.0500012  10.3264997  20.0489988
  20.5720012  10.0154997  19.9409988  21.4017698   9.8279430  19.7577183
  27.1060012  12.5004997  24.6589988  26.8650012  13.4254997  24.6999988
  26.3650012  12.0414997  25.0549988  26.9728409  12.5651421  24.7181377
  27.6210012  16.6494997  30.9739988  27.9830012  17.5044997  30.7399988
  28.1520012  16.3574997  31.7139988  27.7424473  16.7271060  31.0420855
  25.7890012  17.5224997  24.2039988  24.8390012  17.6274997  24.2549988
  26.1410012  18.3424997  24.5489988  25.7064203  17.6478314  24.2576650
  31.1650012  12.7484997  30.6739988  30.7390012  12.5214997  31.5009988
  31.7450012  12.0104997  30.4919988  31.1851868  12.6175299  30.7625830
  33.3680012  13.6774997  19.7479988  33.7210012  13.2974997  20.5529988
  32.4190012  13.5844997  19.8349988  33.2880441  13.6129596  19.8698559
  33.8230012  17.3004997  33.1439988  33.2220012  16.7454997  32.6479988
  34.1050012  17.9674997  32.5179988  33.7788519  17.3146841  32.9914952
  37.8710012  18.1574997  19.9489988  38.6150012  18.7434997  19.8089988
  37.1770012  18.7254997  20.2829988  37.8790292  18.3145582  19.9749961
  21.9460012   4.5334997  32.5509988  21.0530012   4.8724997  32.4829988
  21.8470012   3.6784997  32.9689988  21.8104164   4.4642588  32.5982235
  34.2340012  12.3504997  21.9749988  33.9560012  11.6224997  22.5309988
  35.1610012  12.4694997  22.1799988  34.3213124  12.2668802  22.0788845
  21.5970012  16.3384997  30.9859988  21.8140012  15.4064997  30.9549988
  21.8430012  16.6124997  31.8689988  21.6599549  16.2480636  31.1011763
  27.4590012  14.7894997  18.1949988  27.6980012  14.0414997  17.6479988
  27.1900012  14.4014997  19.0279988  27.4553675  14.6346638  18.2326865
  26.3960012  14.3594997  20.6519988  26.5420012  13.8394997  21.4419988
  26.3930012  15.2664997  20.9579988  26.4155989  14.4108853  20.8016088
  22.8490012  11.6124997  21.1619988  22.1630012  11.9644997  21.7289988
  23.3710012  12.3754997  20.9149988  22.8256852  11.7638578  21.2062118
  30.6800012   4.2744997  31.4409988  31.3790012   4.3484997  32.0909988
  30.2990012   3.4104997  31.5949988  30.7241767   4.1677624  31.5508322
  31.4650012   3.9264997  22.5379988  31.6850012   4.3984997  21.7349988
  32.0230012   4.3214997  23.2079988  31.5704968   4.0444285  22.5187331
  29.1330012  16.0574997  21.4009988  28.3170012  16.5544997  21.4529988
  29.6630012  16.5324997  20.7609988  29.0929161  16.1897722  21.3215956
  28.6650012   5.6544997  23.3729988  29.4770012   6.1594997  23.4189988
  28.4200012   5.5094997  24.2869988  28.7430520   5.7040375  23.5028517
  29.2000012   6.6404997  32.5579988  29.3190012   7.2144997  33.3149988
  29.8560012   5.9524997  32.6719988  29.3049757   6.6261079  32.6770825
  29.5480012   2.7354997  24.3109988  29.2020012   3.3534997  24.9559988
  30.2070012   3.2364997  23.8299988  29.5897826   2.8875802  24.3340971
  26.4720012  17.1014997  21.3829988  26.6320012  17.9004997  20.8819988
  26.2740012  17.4074997  22.2679988  26.4671649  17.2524469  21.4339815
  25.2060012   3.7984997  20.9979988  25.1230012   4.6874997  21.3449988
  26.0960012   3.5334997  21.2299988  25.3149469   3.8841430  21.0767626
  35.4050012   4.5474997  33.3929988  34.4880012   4.8104997  33.3049988
  35.7400012   4.5444997  32.4959988  35.3249900   4.5830224  33.2597919
  34.0070012   8.2984997  27.4879988  33.2090012   7.8834997  27.1599988
  34.4520012   7.6074997  27.9789988  33.9579885   8.1483543  27.5094889
  23.4650012  14.2264997  20.0589988  24.0570012  14.9254997  20.3349988
  23.9240012  13.7934997  19.3389988  23.6081142  14.2637049  19.9994830
  21.7810012   6.8904997  19.1749988  21.7360012   7.8294997  19.3529988
  20.8930012   6.6544997  18.9049988  21.6548574   6.9871892  19.1628912
  35.0930012  17.5544997  29.1109988  34.9380012  18.2324997  28.4539988
  36.0260012  17.6264997  29.3139988  35.1978500  17.6570170  29.0485119
  22.5890012   1.6724997  27.8479988  22.3600012   1.7314997  26.9199988
  22.1460012   0.8804997  28.1539988  22.4978530   1.5735753  27.7624786
  21.5190012  15.6124997  24.0079988  20.6870012  16.0854997  24.0359988
  22.0650012  16.1224997  23.4099988  21.4789739  15.7461871  23.9309716
  20.8070012  18.2254997  35.3379988  21.3480012  18.0084997  36.0979988
  20.3260012  17.4194997  35.1489988  20.8159345  18.0869514  35.4163076
  25.4050012  17.1444997  36.9589988  26.1720012  16.6854997  37.2999988
  25.3830012  16.9184997  36.0289988  25.5071434  17.0510409  36.8800043
  29.4970012  16.6524997  18.3339988  28.8530012  16.0214997  18.6549988
  30.2590012  16.1214997  18.1019988  29.5118077  16.4942920  18.3466011
  31.9820012  15.5244997  35.6879988  31.6310012  14.6684997  35.9309988
  32.7080012  15.6674997  36.2949988  32.0320769  15.4265636  35.8033619
  34.1010012  16.4694997  18.5679988  34.3840012  15.6754997  19.0199988
  34.8410012  16.7024997  18.0069988  34.2397486  16.3922803  18.5540698
  20.7140012  12.0354997  36.2929988  20.8580012  11.1334997  36.0059988
  19.9420012  12.3214997  35.8049988  20.6293322  11.9508261  36.1877881
  25.0560012  12.3794997  18.4249988  25.1200012  11.5854997  18.9559988
  25.7090012  12.2604997  17.7349988  25.1530241  12.2547148  18.4044317
  27.3700012  12.0054997  35.7249988  27.0410012  12.2764997  34.8679988
  27.5220012  11.0644997  35.6379988  27.3454809  11.9153862  35.5958244
  30.4080012  13.4264997  18.1609988  30.1390012  13.6064997  19.0619988
  30.2020012  12.5004997  18.0299988  30.3433825  13.3260152  18.2665214
  33.1040012  11.9214997  33.1089988  33.8500012  12.5094997  32.9889988
  32.3470012  12.5034997  33.1719988  33.1037554  12.0807011  33.1010907
  21.5470012   9.2354997  35.7129988  21.9550012   8.3784997  35.5919988
  21.2870012   9.2504997  36.6339988  21.5677568   9.1200807  35.8209588
  26.2050012  10.3514997  20.7309988  25.7450012   9.8674997  21.4169988
  26.4600012   9.6834997  20.0949988  26.1764902  10.1948731  20.7389334
  25.4940012   8.2444997  33.0869988  24.8760012   8.9194997  33.3669988
  25.8380012   8.5654997  32.2539988  25.4559615   8.3802721  33.0126581
  27.2760012   8.5944997  18.9929988  27.0960012   8.4404997  18.0659988
  28.2260012   8.7024997  19.0379988  27.3797776   8.5880175  18.8721843
  30.5140012  10.7164997  36.3639988  31.4670012  10.7994997  36.3369988
  30.3530012  10.0044997  36.9839988  30.6226426  10.6316746  36.4440579
  36.6660012  10.9494997  18.4389988  36.3920012  10.5244997  17.6259988
  36.7050012  11.8804997  18.2219988  36.6337699  11.0172484  18.2983610
  25.8330012   5.5994997  34.1689988  25.9830012   4.8704997  33.5669988
  25.8360012   6.3764997  33.6099988  25.8539302   5.6047851  34.0110692
  26.2460012   3.9694997  31.6619988  26.7820012   4.4204997  31.0099988
  25.3940012   3.8614997  31.2389988  26.2042178   4.0166390  31.5155756
  27.8280012   9.4084997  31.9009988  28.5780012   9.2524997  31.3279988
  27.4890012  10.2604997  31.6259988  27.8848921   9.5022968  31.7853561
  32.2430012   7.2234997  36.9299988  32.4360012   6.2924997  36.8179988
  33.1010012   7.6484997  36.9199988  32.3853020   7.1536389  36.9133361
  33.5600012  10.0124997  35.0069988  33.2790012  10.7214997  34.4299988
  34.5030012   9.9394997  34.8559988  33.6489027  10.0997646  34.9075551
  24.3120012   6.7974997  36.0809988  23.5450012   6.2654997  35.8709988
  24.9910012   6.4874997  35.4809988  24.2987022   6.6827506  35.9711648
  27.0520012   1.4254997  32.0929988  26.9530012   2.3724997  31.9879988
  26.3090012   1.0534997  31.6179988  26.9380563   1.5045902  32.0144560
  28.3160012   5.7474997  35.6569988  28.0800012   5.5274997  36.5589988
  27.5320012   5.5404997  35.1469988  28.1778628   5.6894760  35.7113932
  31.0310012   4.8744997  34.7329988  30.0840012   4.9064997  34.8649988
  31.3440012   4.2494997  35.3859988  30.9435475   4.7943207  34.8394455
  32.6650012   3.5084997  36.7379988  32.5690012   2.5564997  36.7319988
  32.3440012   3.7774997  37.5979988  32.6084070   3.4144035  36.8535441
  22.4920012   4.7184997  35.7849988  22.7040012   4.0114997  35.1749988
  22.3810012   4.2804997  36.6289988  22.5059721   4.5627084  35.8156843
  27.2730012   0.7194997  34.7649988  27.9850012   0.0794997  34.7509988
  27.1720012   0.9864997  33.8509988  27.3567939   0.6679938  34.6395650
  27.6270012   2.4024997  36.8179988  27.4950012   1.9264997  35.9979988
  27.0280012   3.1464997  36.7629988  27.5279071   2.4379618  36.6982886
  27.1730012  19.2854997  19.9949988  28.1060012  19.4434997  20.1379988
  26.9090012  19.9604997  19.3699988  27.2649510  19.3983611  19.9300741
  20.7420012  13.9214997  19.4769988  21.6560012  14.0004997  19.7509988
  20.7490012  13.2344997  18.8109988  20.8681131  13.8393961  19.4244393
  19.3910012  19.3144997  24.5549988  18.7440012  18.8524997  24.0219988
  19.7450012  18.6424997  25.1369988  19.3503849  19.1604723  24.5607959
  20.2610012  17.3954997  26.3589988  19.9260012  16.5154997  26.5309988
  20.4830012  17.7404997  27.2239988  20.2451783  17.3217500  26.4994208
  37.8090012  18.2044997  29.3399988  37.7880012  18.3894997  30.2789988
  38.5000012  18.7734997  28.9989988  37.8994618  18.3066606  29.4223864
  37.3730012  17.7724997  32.2619988  36.8850012  17.0364997  31.8909988
  37.9220012  17.3784997  32.9399988  37.3804872  17.6186249  32.3029160
  35.8230012  13.5614997  36.8999988  34.9570012  13.4564997  37.2939988
  36.2000012  14.3204997  37.3459988  35.7553308  13.6496900  37.0142393
  37.1240012  11.8184997  22.4139988  37.9740012  12.2394997  22.5409988
  37.1300012  11.0784997  23.0209988  37.2411372  11.7760803  22.5134344
  37.5190012   9.8714997  24.2379988  36.7920012   9.3924997  24.6349988
  38.1000012  10.0774997  24.9699988  37.4979375   9.8337090  24.3914129
  37.2780012  12.6564997  29.1849988  38.1110012  12.2784997  28.9049988
  37.3900012  13.5994997  29.0659988  37.4072647  12.7322218  29.1305487
  35.7640012  15.5344997  31.4919988  35.1170012  15.8594997  32.1179988
  35.2470012  15.0944997  30.8179988  35.6054029  15.5195004  31.4865827
  37.7870012   9.7724997  20.6289988  37.2650012  10.1294997  19.9099988
  37.7540012  10.4474997  21.3069988  37.7111634   9.9125413  20.6223145
  36.1360012   7.0124997  19.1799988  36.2320012   7.6794997  18.4989988
  35.9960012   6.1964997  18.6979988  36.1302135   6.9934500  19.0218491
  35.3050012   8.3924997  24.8009988  35.1550012   7.4474997  24.7799988
  34.9520012   8.6734997  25.6439988  35.2366625   8.3010441  24.9122346
  20.3410012  10.4704997  28.8109988  20.5250012  10.3884997  27.8749988
  21.1900012  10.3464997  29.2349988  20.4810139  10.4425003  28.7401455
  36.1620012  10.3624997  34.4389988  36.7450012   9.6284997  34.6309988
  36.7260012  11.1344997  34.4859988  36.3179769  10.3664227  34.4716159
  37.6580012   8.2654997  35.1239988  36.7950012   7.8864997  34.9579988
  38.2630012   7.5264997  35.0499988  37.6215979   8.1138023  35.0912817
  35.3830012   4.4204997  18.2969988  35.9940012   4.0494997  18.9339988
  34.5470012   3.9994997  18.4929988  35.3535032   4.3127554  18.4107035
  35.0160012   5.9754997  23.2629988  35.2960012   5.0684997  23.3869988
  35.7750012   6.4094997  22.8739988  35.1569277   5.9100942  23.2273682
  35.6280012   6.5564997  28.6989988  36.5610012   6.7684997  28.6649988
  35.3930012   6.6584997  29.6209988  35.7238036   6.5992769  28.8189976
  35.6570012   7.2934997  31.4749988  34.8140012   7.5614997  31.8409988
  36.0990012   8.1154997  31.2639988  35.6014158   7.4413291  31.4965491
  19.9380012   5.7414997  34.9519988  20.8580012   5.6194997  35.1879988
  19.4890012   4.9914997  35.3409988  20.0031580   5.6233727  35.0369006
  37.9400012   1.2734997  36.8279988  38.2900012   0.6194997  36.2229988
  38.0870012   2.1104997  36.3889988  38.0078419   1.2971591  36.6857118
  35.6290012   3.2384997  23.3109988  35.8120012   2.7894997  24.1369988
  35.0300012   2.6534997  22.8479988  35.5730202   3.0979975  23.3613275
  21.1590012   4.0534997  27.8429988  21.6050012   3.2614997  28.1449988
  21.6260012   4.7694997  28.2739988  21.2830172   4.0420624  27.9424820
  19.4630012   7.0524997  28.9119988  19.9550012   6.8314997  28.1209988
  19.8260012   7.8934997  29.1929988  19.5793126   7.1358357  28.8417531
  37.4600012   3.3824997  35.1779988  36.5420012   3.6534997  35.1419988
  37.5830012   2.8474997  34.3929988  37.3511066   3.3472892  35.0670487
  37.4960012   3.3054997  19.8389988  37.9080012   2.5844997  19.3639988
  38.1780012   3.9754997  19.8979988  37.6445885   3.2972368  19.7818915
  19.7770012   3.3104997  22.9659988  18.8520012   3.5194997  22.8369988
  20.2310012   3.7944997  22.2769988  19.7117368   3.4045993  22.8551226
  34.5480012  18.2944997  24.9119988  35.2000012  17.9474997  24.3039988
  35.0580012  18.7834997  25.5579988  34.7062637  18.3130597  24.9160236
  19.7410012   2.0484997  31.3109988  19.0760012   1.8024997  31.9539988
  19.2980012   2.6704997  30.7329988  19.5900956   2.0988632  31.3209352
  21.9330012  15.2234997  35.4549988  21.1120012  15.3984997  34.9949988
  21.6800012  15.1504997  36.3759988  21.7866164  15.2375622  35.5164923
  24.8870012  16.1984997  31.7139988  24.4620012  17.0074997  31.4309988
  25.7910012  16.2834997  31.4119988  24.9510271  16.3208469  31.6343776
  29.1980012  17.5974997  34.6729988  29.3830012  17.2634997  35.5509988
  30.0440012  17.9064997  34.3509988  29.3377539  17.5936047  34.7495605
  31.5430012  18.8834997  33.9169988  32.2200012  18.2504997  33.6769988
  31.8650012  19.2844997  34.7239988  31.6791637  18.8511154  33.9932793
  36.4600012   1.4724997  32.9969988  35.6480012   1.7974997  32.6089988
  36.6930012   0.7124997  32.4639988  36.3803423   1.4142436  32.8718253
  22.2890012  19.4544997  31.7609988  21.5680012  19.8944997  31.3099988
  21.9230012  19.2034997  32.6099988  22.1409804  19.4807698  31.8139840
  24.7560012  19.0544997  30.7909988  23.8910012  19.1264997  31.1949988
  24.7010012  19.6014997  30.0069988  24.6302085  19.1382685  30.7403362
  29.4660012  18.9424997  29.9659988  29.0100012  19.4714997  29.3119988
  29.6290012  19.5454997  30.6919988  29.4255585  19.0964468  29.9745062
  31.7940012  17.8204997  30.9109988  30.8890012  17.9854997  30.6459988
  32.2230012  18.6734997  30.8459988  31.7280799  17.9584483  30.8659182
  34.3980012  19.3904997  31.2059988  34.2160012  20.3064997  30.9959988
  34.5750012  18.9804997  30.3599988  34.3970210  19.4604822  31.0627885
  21.7030012  18.0774997  28.6709988  21.6850012  17.6524997  29.5289988
  22.5080012  17.7594997  28.2629988  21.8093875  17.9763812  28.7331655
  23.8450012  16.7874997  27.3259988  23.6260012  15.8714997  27.4959988
  24.6690012  16.9274997  27.7919988  23.9264420  16.6810520  27.4122774
  26.3820012  17.2574997  28.1749988  26.5950012  16.3694997  27.8879988
  26.4460012  17.2234997  29.1289988  26.4198232  17.1313102  28.2647397
  29.8900012   2.9214997  27.3189988  29.2160012   2.2924997  27.5749988
  30.4540012   2.4374997  26.7159988  29.8739230   2.7698744  27.2725340
  35.0330012   1.0294997  27.4319988  35.6370012   1.5764997  26.9299988
  34.1630012   1.3484997  27.1919988  34.9981241   1.1475806  27.3307654
  36.7600012   2.1674997  25.7649988  37.3720012   1.6534997  25.2389988
  37.1420012   3.0454997  25.7889988  36.8954540   2.2157140  25.6961830
  22.2170012   1.5554997  25.1409988  21.4400012   1.3214997  24.6339988
  22.7470012   0.7584997  25.1499988  22.1822330   1.4156988  25.0727742
  21.0530012   1.3534997  20.9449988  21.4920012   1.9644997  20.3529988
  20.4200012   1.8914997  21.4189988  21.0274514   1.5099257  20.9280930
  26.7960012   1.4824997  24.9549988  27.6710012   1.8704997  24.9249988
  26.6600012   1.2674997  25.8769988  26.8973695   1.5065184  25.0756440
  32.3530012   1.5124997  26.6039988  32.4290012   1.6074997  25.6539988
  32.0780012   0.6044997  26.7329988  32.3262321   1.4027867  26.4915079
  33.7060012   1.5384997  22.2959988  33.0040012   2.1534997  22.0869988
  33.2620012   0.7004997  22.4269988  33.5496330   1.5095783  22.2850328
  20.9540012  17.3014997  21.8429988  20.2690012  17.2634997  21.1749988
  20.9580012  18.2144997  22.1309988  20.8608193  17.4197016  21.7905284
  22.9140012   3.2694997  19.3869988  23.4060012   2.6394997  18.8599988
  23.5380012   3.5654997  20.0509988  23.0655446   3.2233199  19.4045980
  27.9400012   3.5624997  21.8439988  28.1180012   2.9164997  22.5269988
  27.8870012   4.3964997  22.3119988  27.9571829   3.5867985  22.0005940
  29.8190012  18.5114997  20.2399988  30.6850012  18.8774997  20.0619988
  29.5720012  18.0714997  19.4259988  29.9042392  18.5021756  20.1056289
  36.5280012  18.0744997  22.9189988  36.3330012  17.3264997  22.3539988
  36.4890012  18.8324997  22.3359988  36.4960380  18.0746099  22.7628384
  22.1750012   2.0694997  34.6589988  21.8090012   1.3044997  35.1019988
  23.0880012   2.0984997  34.9459988  22.2482790   1.9687224  34.7584070
  24.1480012   1.4204997  36.1949988  25.0460012   1.1464997  36.0099988
  23.7610012   0.6774997  36.6589988  24.2186612   1.2825914  36.2323643
  22.7720012  18.2214997  18.8679988  22.5050012  18.5084997  19.7409988
  23.5440012  17.6754997  19.0199988  22.8397488  18.1870294  19.0081050
  32.5690012   0.7524997  36.3769988  32.6460012   0.3264997  37.2309988
  33.4630012   0.7664997  36.0339988  32.7003428   0.6960879  36.4475310
  35.7450012  16.8254997  35.0689988  34.9630012  16.6394997  34.5499988
  35.6730012  17.7544997  35.2869988  35.6281777  16.9256492  35.0274048
  50.1510012  10.7114997  25.0999988  50.2400012  11.6554997  24.9679988
  49.5130012  10.4364997  24.4419988  50.0769081  10.8034830  24.9929614
  49.0840012   9.9664997  28.5189988  49.0460012   9.3204997  29.2239988
  48.7620012   9.5004997  27.7479988  49.0352333   9.8149408  28.5112978
  41.4530012   9.5814997  30.1119988  41.4940012   8.9554997  30.8349988
  42.1560012  10.2054997  30.2939988  41.5536363   9.5801196  30.2356044
  52.7900012  12.9054997  26.8199988  52.3500012  12.1854997  27.2709988
  52.7770012  13.6264997  27.4499988  52.7280226  12.9043731  26.9668494
  42.3760012  14.0314997  28.6469988  42.0070012  13.2294997  28.2769988
  43.3170012  13.8624997  28.6929988  42.4527289  13.8990153  28.6026316
  38.9860012   7.6914997  24.0399988  38.5390012   8.5374997  24.0209988
  38.4250012   7.1114997  23.5239988  38.8489900   7.7289916  23.9676801
  39.6970012   9.8534997  26.1659988  39.9100012   9.0834997  26.6929988
  40.4350012   9.9424997  25.5619988  39.8258496   9.7601394  26.1565300
  49.9020012  18.0104997  27.0329988  50.5220012  17.3334997  26.7589988
  49.6940012  17.7924997  27.9409988  49.9586904  17.8883870  27.1183365
  47.4740012  12.3994997  28.9249988  47.7780012  11.7134997  28.3299988
  48.1950012  12.5174997  29.5429988  47.6130671  12.3216304  28.9271816
  56.1370012   4.0004997  29.7859988  56.1860012   4.6104997  30.5219988
  56.5620012   4.4614997  29.0629988  56.2011824   4.1463741  29.7890205
  50.6150012   6.7934997  29.2529988  50.7570012   5.8474997  29.2729988
  50.5080012   7.0004997  28.3239988  50.6199864   6.6919534  29.1302339
  43.7690012   4.8944997  26.5249988  43.8130012   5.7544997  26.1069988
  43.3120012   4.3424997  25.8909988  43.7132185   4.9375799  26.3820299
  51.4920012   5.0254997  24.9259988  52.1380012   4.6964997  25.5509988
  52.0020012   5.5434997  24.3029988  51.6494264   5.0504611  24.9273862
  40.3900012   7.2914997  27.2869988  41.0430012   6.7414997  27.7189988
  40.4140012   7.0174997  26.3699988  40.4826683   7.1791466  27.2222123
  45.5460012   8.8414997  26.5019988  46.1620012   8.3154997  27.0119988
  44.9600012   8.2014997  26.0989988  45.5510810   8.6829208  26.5173173
  56.5280012   5.4784997  32.0219988  55.8400012   6.1364997  31.9259988
  56.5440012   5.2814997  32.9579988  56.4358525   5.5420462  32.1354808
  42.5800012   3.8124997  30.5989988  42.3610012   4.3424997  29.8329988
  41.9120012   4.0394997  31.2459988  42.4597600   3.9156906  30.5816379
  49.9490012  13.3124997  24.1429988  49.6530012  12.9904997  23.2919988
  49.6240012  14.2124997  24.1839988  49.8646371  13.3900215  24.0321801
  45.1490012  11.4884997  30.8859988  44.4090012  12.0864997  30.9899988
  45.8630012  12.0424997  30.5709988  45.1442237  11.6452831  30.8576465
  53.2560012   4.3164997  26.9059988  53.0400012   3.5504997  27.4389988
  53.9110012   4.7884997  27.4189988  53.3150632   4.2755889  27.0482861
  42.1730012   5.7044997  28.5509988  42.7870012   6.3374997  28.9249988
  42.6850012   5.2324997  27.8949988  42.3262296   5.7272370  28.5134252
  43.5560012  13.4524997  31.6739988  43.5510012  14.3324997  31.2959988
  42.7030012  13.3694997  32.0989988  43.4399464  13.5616117  31.6797907
  39.6770012  13.1234997  22.4559988  39.4050012  13.3524997  21.5669988
  39.7230012  13.9614997  22.9159988  39.6460094  13.2681213  22.3965697
  53.3020012  14.7454997  29.1679988  52.3610012  14.8034997  29.3299988
  53.5790012  15.6514997  29.0309988  53.2104679  14.8759443  29.1716815
  53.6030012   3.0314997  30.5859988  52.8670012   3.6424997  30.5479988
  54.2860012   3.4464997  30.0589988  53.5946541   3.1711374  30.5095832
  46.6060012   1.1184997  28.0519988  46.4890012   0.1694997  27.9969988
  45.7510012   1.4504997  28.3249988  46.4743733   1.0335409  28.0813897
  51.5540012  16.5264997  25.7939988  51.9800012  15.8194997  25.3089988
  51.8710012  17.3274997  25.3769988  51.6551019  16.5380994  25.6713130
  52.7140012  14.4274997  24.3019988  52.4560012  13.7374997  23.6909988
  52.7850012  13.9844997  25.1479988  52.6882856  14.2732124  24.3326885
  54.4000012  12.9934997  32.7799988  54.5400012  12.4024997  32.0399988
  54.5670012  13.8664997  32.4229988  54.4416778  13.0306426  32.6306965
  48.8730012   9.9554997  22.5519988  48.1610012  10.4904997  22.1999988
  49.5640012  10.0114997  21.8919988  48.8690132  10.0362543  22.4146289
  48.9260012   8.4134997  19.5909988  49.6270012   8.4354997  20.2419988
  49.2290012   7.7854997  18.9349988  49.0627830   8.3316566  19.5913711
  56.2420012   9.3334997  30.8459988  55.5890012  10.0284997  30.9349988
  56.7070012   9.5434997  30.0359988  56.2155390   9.4569425  30.7486883
  52.2780012  10.1654997  23.5039988  51.5460012  10.3934997  24.0769988
  52.7260012   9.4514997  23.9589988  52.2383095  10.1002571  23.6439119
  52.1760012   8.3394997  32.5709988  52.2560012   9.1024997  33.1429988
  51.5740012   8.6184997  31.8809988  52.1055756   8.4817134  32.5560589
  43.9240012  10.7954997  25.3859988  43.5930012  10.4254997  24.5679988
  44.5120012  10.1254997  25.7329988  43.9581873  10.6541156  25.3208102
  45.2900012  14.2234997  28.0679988  45.1960012  13.6454997  27.3109988
  46.0200012  13.8524997  28.5639988  45.3757981  14.0942390  28.0314165
  44.2900012   9.5644997  29.0199988  44.8560012   9.6854997  28.2569988
  44.6090012  10.2014997  29.6589988  44.4105786   9.6671884  29.0020040
  50.5990012  15.0674997  29.7539988  50.3590012  15.7294997  30.4019988
  50.4010012  14.2334997  30.1789988  50.5393808  15.0453134  29.9001524
  45.1700012  13.9634997  33.7369988  44.8590012  14.7454997  34.1919988
  44.5200012  13.8104997  33.0509988  45.0395558  14.0499105  33.7065871
  51.1490012   9.3274997  21.1889988  51.7290012   9.4774997  21.9359988
  51.5630012   9.7984997  20.4659988  51.2842830   9.4116841  21.1934134
  42.0900012  10.1614997  32.9659988  42.1610012  10.8124997  33.6639988
  41.2000012  10.2644997  32.6309988  41.9793117  10.2645936  33.0162700
  48.8760012  16.0644997  24.6239988  49.3500012  16.3594997  25.4019988
  48.3130012  16.8024997  24.3909988  48.8647653  16.2046932  24.6990136
  43.4100012  16.0354997  34.4999988  43.4170012  15.8994997  33.5529988
  42.4940012  15.9174997  34.7519988  43.2871714  16.0009430  34.4044666
  54.8480012   1.0774997  21.0019988  53.9480012   1.2164997  21.2969988
  55.1000012   1.9084997  20.5999988  54.7588702   1.2089074  20.9880205
  42.9140012   9.8654997  22.9759988  42.6220012  10.6334997  22.4849988
  42.2400012   9.2054997  22.8129988  42.7829081   9.8814406  22.8867340
  56.0370012  15.4434997  19.3779988  56.1110012  16.3824997  19.5489988
  56.9430012  15.1384997  19.3219988  56.1695100  15.5306722  19.3938119
  39.0070012  12.2284997  31.7909988  38.5060012  12.2004997  30.9759988
  39.0120012  11.3224997  32.0999988  38.9391526  12.1022278  31.7212872
  38.7570012  15.0084997  28.6749988  39.7030012  14.8644997  28.6559988
  38.6450012  15.7924997  29.2119988  38.8712727  15.0948046  28.7450072
  56.9550012  15.6744997  34.3569988  56.9060012  14.7194997  34.3199988
  56.1280012  15.9424997  34.7579988  56.8364940  15.5798998  34.4061375
  47.9340012  15.2484997  33.2329988  48.0210012  16.0744997  33.7079988
  47.0700012  14.9184997  33.4819988  47.8291964  15.3169878  33.3316549
  48.3480012  19.0204997  23.0389988  48.2730012  18.8994997  22.0929988
  48.3810012  19.9704997  23.1579988  48.3421848  19.1322500  22.9254834
  42.0010012  17.8094997  24.8199988  42.1540012  17.4614997  25.6989988
  41.1510012  17.4534997  24.5649988  41.9068962  17.7136650  24.9058340
  51.4500012  18.1744997  20.0409988  51.8250012  17.4304997  19.5709988
  51.4540012  17.9044997  20.9599988  51.5018915  18.0361486  20.1007824
  51.1190012  18.1004997  22.7909988  50.1830012  18.2004997  22.9689988
  51.3990012  17.3914997  23.3689988  51.0288255  18.0182711  22.8935391
  54.1070012   7.1674997  34.8369988  53.7000012   7.6484997  34.1159988
  54.1480012   6.2624997  34.5289988  54.0568437   7.1109374  34.6966683
  41.2560012  13.5514997  32.8339988  41.4720012  13.1904997  33.6929988
  40.4010012  13.1774997  32.6239988  41.1699292  13.4514111  32.9233386
  43.8750012   2.0214997  28.8289988  43.0130012   1.9344997  28.4219988
  43.8520012   2.8774997  29.2569988  43.7540330   2.1252765  28.8311863
  48.5380012   1.7434997  32.2039988  48.9580012   1.3284997  32.9569988
  47.6050012   1.5654997  32.3209988  48.4693644   1.6625900  32.3229539
  51.8640012   5.4994997  33.0569988  51.3500012   5.3734997  33.8549988
  51.7090012   6.4114997  32.8129988  51.7726852   5.6056132  33.1332158
  52.6270012  10.3604997  18.8189988  52.6690012  10.1374997  17.8889988
  53.4760012  10.7594997  19.0089988  52.7475396  10.3839155  18.7173627
  48.1990012   4.2364997  19.4889988  47.9460012   4.2554997  20.4119988
  47.9430012   3.3644997  19.1879988  48.1297790   4.1212437  19.5746263
  43.9660012   6.9874997  29.9239988  43.3240012   6.9464997  30.6329988
  44.0030012   7.9134997  29.6869988  43.8831324   7.1071559  29.9889824
  43.9630012   7.2084997  24.8359988  43.0700012   6.8674997  24.7779988
  44.4130012   6.8314997  24.0809988  43.9017305   7.1108484  24.7259177
  49.4980012   7.6244997  23.6529988  49.0890012   8.4394997  23.3619988
  50.2190012   7.4844997  23.0389988  49.5394537   7.7172018  23.5301342
  48.6000012   7.7994997  35.1409988  48.0380012   7.0954997  35.4619988
  49.4270012   7.6794997  35.6089988  48.6347095   7.6867883  35.2482330
  50.5030012   7.0704997  26.4669988  50.3080012   7.6754997  25.7519988
  50.6840012   6.2364997  26.0329988  50.5007614   7.0406300  26.3104405
  41.7160012   7.3074997  31.7909988  41.6780012   7.7074997  32.6599988
  41.2250012   6.4904997  31.8819988  41.6444684   7.2518069  31.9221059
  45.0820012   4.6814997  18.5899988  44.6510012   4.2364997  19.3199988
  44.3640012   5.0534997  18.0779988  44.9259438   4.6708940  18.6206799
  38.3240012   4.4234997  25.6419988  38.9550012   4.3944997  26.3609988
  38.7730012   3.9984997  24.9119988  38.4710774   4.3620492  25.6416553
  39.5980012   5.1694997  21.0659988  40.0720012   5.7604997  20.4809988
  38.8810012   5.7004997  21.4129988  39.5659341   5.3220867  21.0328836
  49.7670012   8.7084997  31.1389988  50.0900012   8.0774997  30.4959988
  49.3270012   8.1734997  31.7989988  49.7516895   8.5498440  31.1402850
  46.5440012   4.6354997  25.9229988  45.6330012   4.6924997  26.2109988
  47.0500012   4.5754997  26.7329988  46.4875413   4.6351985  26.0720622
  41.3730012   6.2644997  24.7489988  40.4830012   6.3644997  24.4089988
  41.6690012   5.4224997  24.4029988  41.2912823   6.1643546  24.6557213
  45.0260012   6.2644997  22.4059988  45.9570012   6.3934997  22.5839988
  44.8110012   6.9344997  21.7559988  45.1244247   6.3726565  22.3425747
  50.9490012   3.8704997  29.1869988  50.2730012   4.0014997  29.8509988
  50.4640012   3.7154997  28.3769988  50.7907145   3.8674905  29.1684517
  43.7000012   7.4594997  19.9729988  43.1570012   7.0794997  19.2809988
  44.5330012   7.6534997  19.5439988  43.7384399   7.4338124  19.8204526
  54.2370012  19.5424997  35.4639988  54.4370012  19.9664997  34.6289988
  54.8920012  19.8854997  36.0709988  54.3530051  19.6469648  35.4317836
  41.8350012  12.0164997  35.0719988  42.5670012  12.2704997  35.6329988
  41.0550012  12.2204997  35.5869988  41.8298232  12.0789177  35.2185760
  47.8640012   7.4234997  27.8099988  48.4290012   6.8764997  27.2629988
  47.7170012   6.9014997  28.5979988  47.9212918   7.2782024  27.8418454
  42.8660012   3.5594997  24.2279988  42.5490012   2.6574997  24.1929988
  43.6480012   3.5614997  23.6749988  42.9282284   3.4361628  24.1484783
  46.4910012   5.8114997  30.2239988  45.6550012   6.2654997  30.3339988
  47.0150012   6.0874997  30.9759988  46.4474414   5.9109376  30.3407136
  47.0350012  12.0244997  21.9079988  46.2900012  11.5174997  21.5859988
  46.9010012  12.0734997  22.8549988  46.9148776  11.9616940  21.9918647
  54.1850012  11.1574997  30.6949988  54.8270012  11.6144997  30.1509988
  53.3550012  11.2704997  30.2319988  54.1605963  11.2352704  30.5580177
  50.9330012   4.8384997  20.1079988  49.9940012   4.9504997  19.9559988
  51.2300012   5.6954997  20.4139988  50.8447666   4.9696443  20.1285768
  48.5540012  12.2084997  33.1449988  48.2090012  11.8274997  33.9519988
  48.3540012  13.1424997  33.2169988  48.4798061  12.2825228  33.2650961
  51.6510012   6.7054997  21.7679988  52.5430012   6.5684997  22.0869988
  51.7080012   7.4964997  21.2319988  51.7806285   6.7936660  21.7391691
  42.1600012  11.3194997  27.6779988  42.9050012  11.3174997  27.0769988
  42.2380012  10.4964997  28.1599988  42.2725518  11.2079315  27.6608929
  49.1610012  13.4834997  20.9339988  48.8650012  14.3094997  21.3149988
  48.4580012  12.8634997  21.1299988  49.0254914  13.5128199  21.0126443
  39.1680012   9.7804997  32.9929988  39.3910012   9.3624997  33.8249988
  38.5660012   9.1674997  32.5699988  39.1171759   9.6404668  33.0497022
  46.1840012   9.2974997  35.2059988  45.8880012   9.1314997  34.3109988
  47.1160012   9.0774997  35.1949988  46.2694166   9.2450640  35.0820536
  50.8050012  14.6704997  33.0959988  49.9040012  14.8534997  32.8279988
  50.8390012  14.9294997  34.0169988  50.6863041  14.7305512  33.1838197
  56.5360012   6.9154997  21.4629988  55.9820012   6.5194997  20.7909988
  56.6360012   7.8254997  21.1849988  56.4737059   6.9843586  21.3334401
  56.4990012  12.7154997  34.2999988  55.6480012  12.9534997  33.9329988
  57.0900012  12.6984997  33.5469988  56.4622487  12.7458258  34.1478893
  54.8310012  15.7014997  21.9279988  54.4580012  14.8754997  22.2369988
  55.1090012  15.5184997  21.0309988  54.8175630  15.5637303  21.8489626
  51.9920012  10.5094997  28.9489988  51.0630012  10.2774997  28.9219988
  52.4430012   9.7324997  28.6189988  51.9259216  10.3727238  28.9006917
  44.5350012  14.8374997  25.0819988  45.0620012  15.6104997  24.8819988
  43.6550012  15.0624997  24.7809988  44.4881773  14.9738005  25.0139010
  40.2900012   9.6994997  19.6689988  40.9060012  10.3264997  20.0489988
  39.4280012  10.0154997  19.9409988  40.2577698   9.8279430  19.7577183
  45.9620012  12.5004997  24.6589988  45.7210012  13.4254997  24.6999988
  45.2210012  12.0414997  25.0549988  45.8288409  12.5651421  24.7181377
  46.4770012  16.6494997  30.9739988  46.8390012  17.5044997  30.7399988
  47.0080012  16.3574997  31.7139988  46.5984473  16.7271060  31.0420855
  44.6450012  17.5224997  24.2039988  43.6950012  17.6274997  24.2549988
  44.9970012  18.3424997  24.5489988  44.5624203  17.6478314  24.2576650
  50.0210012  12.7484997  30.6739988  49.5950012  12.5214997  31.5009988
  50.6010012  12.0104997  30.4919988  50.0411868  12.6175299  30.7625830
  52.2240012  13.6774997  19.7479988  52.5770012  13.2974997  20.5529988
  51.2750012  13.5844997  19.8349988  52.1440441  13.6129596  19.8698559
  52.6790012  17.3004997  33.1439988  52.0780012  16.7454997  32.6479988
  52.9610012  17.9674997  32.5179988  52.6348519  17.3146841  32.9914952
  56.7270012  18.1574997  19.9489988  57.4710012  18.7434997  19.8089988
  56.0330012  18.7254997  20.2829988  56.7350292  18.3145582  19.9749961
  40.8020012   4.5334997  32.5509988  39.9090012   4.8724997  32.4829988
  40.7030012   3.6784997  32.9689988  40.6664164   4.4642588  32.5982235
  53.0900012  12.3504997  21.9749988  52.8120012  11.6224997  22.5309988
  54.0170012  12.4694997  22.1799988  53.1773124  12.2668802  22.0788845
  40.4530012  16.3384997  30.9859988  40.6700012  15.4064997  30.9549988
  40.6990012  16.6124997  31.8689988  40.5159549  16.2480636  31.1011763
  46.3150012  14.7894997  18.1949988  46.5540012  14.0414997  17.6479988
  46.0460012  14.4014997  19.0279988  46.3113675  14.6346638  18.2326865
  45.2520012  14.3594997  20.6519988  45.3980012  13.8394997  21.4419988
  45.2490012  15.2664997  20.9579988  45.2715989  14.4108853  20.8016088
  41.7050012  11.6124997  21.1619988  41.0190012  11.9644997  21.7289988
  42.2270012  12.3754997  20.9149988  41.6816852  11.7638578  21.2062118
  49.5360012   4.2744997  31.4409988  50.2350012   4.3484997  32.0909988
  49.1550012   3.4104997  31.5949988  49.5801767   4.1677624  31.5508322
  50.3210012   3.9264997  22.5379988  50.5410012   4.3984997  21.7349988
  50.8790012   4.3214997  23.2079988  50.4264968   4.0444285  22.5187331
  47.9890012  16.0574997  21.4009988  47.1730012  16.5544997  21.4529988
  48.5190012  16.5324997  20.7609988  47.9489161  16.1897722  21.3215956
  47.5210012   5.6544997  23.3729988  48.3330012   6.1594997  23.4189988
  47.2760012   5.5094997  24.2869988  47.5990520   5.7040375  23.5028517
  48.0560012   6.6404997  32.5579988  48.1750012   7.2144997  33.3149988
  48.7120012   5.9524997  32.6719988  48.1609757   6.6261079  32.6770825
  48.4040012   2.7354997  24.3109988  48.0580012   3.3534997  24.9559988
  49.0630012   3.2364997  23.8299988  48.4457826   2.8875802  24.3340971
  45.3280012  17.1014997  21.3829988  45.4880012  17.9004997  20.8819988
  45.1300012  17.4074997  22.2679988  45.3231649  17.2524469  21.4339815
  44.0620012   3.7984997  20.9979988  43.9790012   4.6874997  21.3449988
  44.9520012   3.5334997  21.2299988  44.1709469   3.8841430  21.0767626
  54.2610012   4.5474997  33.3929988  53.3440012   4.8104997  33.3049988
  54.5960012   4.5444997  32.4959988  54.1809900   4.5830224  33.2597919
  52.8630012   8.2984997  27.4879988  52.0650012   7.8834997  27.1599988
  53.3080012   7.6074997  27.9789988  52.8139885   8.1483543  27.5094889
  42.3210012  14.2264997  20.0589988  42.9130012  14.9254997  20.3349988
  42.7800012  13.7934997  19.3389988  42.4641142  14.2637049  19.9994830
  40.6370012   6.8904997  19.1749988  40.5920012   7.8294997  19.3529988
  39.7490012   6.6544997  18.9049988  40.5108574   6.9871892  19.1628912
  53.9490012  17.5544997  29.1109988  53.7940012  18.2324997  28.4539988
  54.8820012  17.6264997  29.3139988  54.0538500  17.6570170  29.0485119
  41.4450012   1.6724997  27.8479988  41.2160012   1.7314997  26.9199988
  41.0020012   0.8804997  28.1539988  41.3538530   1.5735753  27.7624786
  40.3750012  15.6124997  24.0079988  39.5430012  16.0854997  24.0359988
  40.9210012  16.1224997  23.4099988  40.3349739  15.7461871  23.9309716
  39.6630012  18.2254997  35.3379988  40.2040012  18.0084997  36.0979988
  39.1820012  17.4194997  35.1489988  39.6719345  18.0869514  35.4163076
  44.2610012  17.1444997  36.9589988  45.0280012  16.6854997  37.2999988
  44.2390012  16.9184997  36.0289988  44.3631434  17.0510409  36.8800043
  48.3530012  16.6524997  18.3339988  47.7090012  16.0214997  18.6549988
  49.1150012  16.1214997  18.1019988  48.3678077  16.4942920  18.3466011
  50.8380012  15.5244997  35.6879988  50.4870012  14.6684997  35.9309988
  51.5640012  15.6674997  36.2949988  50.8880769  15.4265636  35.8033619
  52.9570012  16.4694997  18.5679988  53.2400012  15.6754997  19.0199988
  53.6970012  16.7024997  18.0069988  53.0957486  16.3922803  18.5540698
  39.5700012  12.0354997  36.2929988  39.7140012  11.1334997  36.0059988
  38.7980012  12.3214997  35.8049988  39.4853322  11.9508261  36.1877881
  43.9120012  12.3794997  18.4249988  43.9760012  11.5854997  18.9559988
  44.5650012  12.2604997  17.7349988  44.0090241  12.2547148  18.4044317
  46.2260012  12.0054997  35.7249988  45.8970012  12.2764997  34.8679988
  46.3780012  11.0644997  35.6379988  46.2014809  11.9153862  35.5958244
  49.2640012  13.4264997  18.1609988  48.9950012  13.6064997  19.0619988
  49.0580012  12.5004997  18.0299988  49.1993825  13.3260152  18.2665214
  51.9600012  11.9214997  33.1089988  52.7060012  12.5094997  32.9889988
  51.2030012  12.5034997  33.1719988  51.9597554  12.0807011  33.1010907
  40.4030012   9.2354997  35.7129988  40.8110012   8.3784997  35.5919988
  40.1430012   9.2504997  36.6339988  40.4237568   9.1200807  35.8209588
  45.0610012  10.3514997  20.7309988  44.6010012   9.8674997  21.4169988
  45.3160012   9.6834997  20.0949988  45.0324902  10.1948731  20.7389334
  44.3500012   8.2444997  33.0869988  43.7320012   8.9194997  33.3669988
  44.6940012   8.5654997  32.2539988  44.3119615   8.3802721  33.0126581
  46.1320012   8.5944997  18.9929988  45.9520012   8.4404997  18.0659988
  47.0820012   8.7024997  19.0379988  46.2357776   8.5880175  18.8721843
  49.3700012  10.7164997  36.3639988  50.3230012  10.7994997  36.3369988
  49.2090012  10.0044997  36.9839988  49.4786426  10.6316746  36.4440579
  55.5220012  10.9494997  18.4389988  55.2480012  10.5244997  17.6259988
  55.5610012  11.8804997  18.2219988  55.4897699  11.0172484  18.2983610
  44.6890012   5.5994997  34.1689988  44.8390012   4.8704997  33.5669988
  44.6920012   6.3764997  33.6099988  44.7099302   5.6047851  34.0110692
  45.1020012   3.9694997  31.6619988  45.6380012   4.4204997  31.0099988
  44.2500012   3.8614997  31.2389988  45.0602178   4.0166390  31.5155756
  46.6840012   9.4084997  31.9009988  47.4340012   9.2524997  31.3279988
  46.3450012  10.2604997  31.6259988  46.7408921   9.5022968  31.7853561
  51.0990012   7.2234997  36.9299988  51.2920012   6.2924997  36.8179988
  51.9570012   7.6484997  36.9199988  51.2413020   7.1536389  36.9133361
  52.4160012  10.0124997  35.0069988  52.1350012  10.7214997  34.4299988
  53.3590012   9.9394997  34.8559988  52.5049027  10.0997646  34.9075551
  43.1680012   6.7974997  36.0809988  42.4010012   6.2654997  35.8709988
  43.8470012   6.4874997  35.4809988  43.1547022   6.6827506  35.9711648
  45.9080012   1.4254997  32.0929988  45.8090012   2.3724997  31.9879988
  45.1650012   1.0534997  31.6179988  45.7940563   1.5045902  32.0144560
  47.1720012   5.7474997  35.6569988  46.9360012   5.5274997  36.5589988
  46.3880012   5.5404997  35.1469988  47.0338628   5.6894760  35.7113932
  49.8870012   4.8744997  34.7329988  48.9400012   4.9064997  34.8649988
  50.2000012   4.2494997  35.3859988  49.7995475   4.7943207  34.8394455
  51.5210012   3.5084997  36.7379988  51.4250012   2.5564997  36.7319988
  51.2000012   3.7774997  37.5979988  51.4644070   3.4144035  36.8535441
  41.3480012   4.7184997  35.7849988  41.5600012   4.0114997  35.1749988
  41.2370012   4.2804997  36.6289988  41.3619721   4.5627084  35.8156843
  46.1290012   0.7194997  34.7649988  46.8410012   0.0794997  34.7509988
  46.0280012   0.9864997  33.8509988  46.2127939   0.6679938  34.6395650
  46.4830012   2.4024997  36.8179988  46.3510012   1.9264997  35.9979988
  45.8840012   3.1464997  36.7629988  46.3839071   2.4379618  36.6982886
  46.0290012  19.2854997  19.9949988  46.9620012  19.4434997  20.1379988
  45.7650012  19.9604997  19.3699988  46.1209510  19.3983611  19.9300741
  39.5980012  13.9214997  19.4769988  40.5120012  14.0004997  19.7509988
  39.6050012  13.2344997  18.8109988  39.7241131  13.8393961  19.4244393
  38.2470012  19.3144997  24.5549988  37.6000012  18.8524997  24.0219988
  38.6010012  18.6424997  25.1369988  38.2063849  19.1604723  24.5607959
  39.1170012  17.3954997  26.3589988  38.7820012  16.5154997  26.5309988
  39.3390012  17.7404997  27.2239988  39.1011783  17.3217500  26.4994208
  56.6650012  18.2044997  29.3399988  56.6440012  18.3894997  30.2789988
  57.3560012  18.7734997  28.9989988  56.7554618  18.3066606  29.4223864
  56.2290012  17.7724997  32.2619988  55.7410012  17.0364997  31.8909988
  56.7780012  17.3784997  32.9399988  56.2364872  17.6186249  32.3029160
  54.6790012  13.5614997  36.8999988  53.8130012  13.4564997  37.2939988
  55.0560012  14.3204997  37.3459988  54.6113308  13.6496900  37.0142393
  55.9800012  11.8184997  22.4139988  56.8300012  12.2394997  22.5409988
  55.9860012  11.0784997  23.0209988  56.0971372  11.7760803  22.5134344
  56.3750012   9.8714997  24.2379988  55.6480012   9.3924997  24.6349988
  56.9560012  10.0774997  24.9699988  56.3539375   9.8337090  24.3914129
  56.1340012  12.6564997  29.1849988  56.9670012  12.2784997  28.9049988
  56.2460012  13.5994997  29.0659988  56.2632647  12.7322218  29.1305487
  54.6200012  15.5344997  31.4919988  53.9730012  15.8594997  32.1179988
  54.1030012  15.0944997  30.8179988  54.4614029  15.5195004  31.4865827
  56.6430012   9.7724997  20.6289988  56.1210012  10.1294997  19.9099988
  56.6100012  10.4474997  21.3069988  56.5671634   9.9125413  20.6223145
  54.9920012   7.0124997  19.1799988  55.0880012   7.6794997  18.4989988
  54.8520012   6.1964997  18.6979988  54.9862135   6.9934500  19.0218491
  54.1610012   8.3924997  24.8009988  54.0110012   7.4474997  24.7799988
  53.8080012   8.6734997  25.6439988  54.0926625   8.3010441  24.9122346
  39.1970012  10.4704997  28.8109988  39.3810012  10.3884997  27.8749988
  40.0460012  10.3464997  29.2349988  39.3370139  10.4425003  28.7401455
  55.0180012  10.3624997  34.4389988  55.6010012   9.6284997  34.6309988
  55.5820012  11.1344997  34.4859988  55.1739769  10.3664227  34.4716159
  56.5140012   8.2654997  35.1239988  55.6510012   7.8864997  34.9579988
  57.1190012   7.5264997  35.0499988  56.4775979   8.1138023  35.0912817
  54.2390012   4.4204997  18.2969988  54.8500012   4.0494997  18.9339988
  53.4030012   3.9994997  18.4929988  54.2095032   4.3127554  18.4107035
  53.8720012   5.9754997  23.2629988  54.1520012   5.0684997  23.3869988
  54.6310012   6.4094997  22.8739988  54.0129277   5.9100942  23.2273682
  54.4840012   6.5564997  28.6989988  55.4170012   6.7684997  28.6649988
  54.2490012   6.6584997  29.6209988  54.5798036   6.5992769  28.8189976
  54.5130012   7.2934997  31.4749988  53.6700012   7.5614997  31.8409988
  54.9550012   8.1154997  31.2639988  54.4574158   7.4413291  31.4965491
  38.7940012   5.7414997  34.9519988  39.7140012   5.6194997  35.1879988
  38.3450012   4.9914997  35.3409988  38.8591580   5.6233727  35.0369006
  56.7960012   1.2734997  36.8279988  57.1460012   0.6194997  36.2229988
  56.9430012   2.1104997  36.3889988  56.8638419   1.2971591  36.6857118
  54.4850012   3.2384997  23.3109988  54.6680012   2.7894997  24.1369988
  53.8860012   2.6534997  22.8479988  54.4290202   3.0979975  23.3613275
  40.0150012   4.0534997  27.8429988  40.4610012   3.2614997  28.1449988
  40.4820012   4.7694997  28.2739988  40.1390172   4.0420624  27.9424820
  38.3190012   7.0524997  28.9119988  38.8110012   6.8314997  28.1209988
  38.6820012   7.8934997  29.1929988  38.4353126   7.1358357  28.8417531
  56.3160012   3.3824997  35.1779988  55.3980012   3.6534997  35.1419988
  56.4390012   2.8474997  34.3929988  56.2071066   3.3472892  35.0670487
  56.3520012   3.3054997  19.8389988  56.7640012   2.5844997  19.3639988
  57.0340012   3.9754997  19.8979988  56.5005885   3.2972368  19.7818915
  38.6330012   3.3104997  22.9659988  37.7080012   3.5194997  22.8369988
  39.0870012   3.7944997  22.2769988  38.5677368   3.4045993  22.8551226
  53.4040012  18.2944997  24.9119988  54.0560012  17.9474997  24.3039988
  53.9140012  18.7834997  25.5579988  53.5622637  18.3130597  24.9160236
  38.5970012   2.0484997  31.3109988  37.9320012   1.8024997  31.9539988
  38.1540012   2.6704997  30.7329988  38.4460956   2.0988632  31.3209352
  40.7890012  15.2234997  35.4549988  39.9680012  15.3984997  34.9949988
  40.5360012  15.1504997  36.3759988  40.6426164  15.2375622  35.5164923
  43.7430012  16.1984997  31.7139988  43.3180012  17.0074997  31.4309988
  44.6470012  16.2834997  31.4119988  43.8070271  16.3208469  31.6343776
  48.0540012  17.5974997  34.6729988  48.2390012  17.2634997  35.5509988
  48.9000012  17.9064997  34.3509988  48.1937539  17.5936047  34.7495605
  50.3990012  18.8834997  33.9169988  51.0760012  18.2504997  33.6769988
  50.7210012  19.2844997  34.7239988  50.5351637  18.8511154  33.9932793
  55.3160012   1.4724997  32.9969988  54.5040012   1.7974997  32.6089988
  55.5490012   0.7124997  32.4639988  55.2363423   1.4142436  32.8718253
  41.1450012  19.4544997  31.7609988  40.4240012  19.8944997  31.3099988
  40.7790012  19.2034997  32.6099988  40.9969804  19.4807698  31.8139840
  43.6120012  19.0544997  30.7909988  42.7470012  19.1264997  31.1949988
  43.5570012  19.6014997  30.0069988  43.4862085  19.1382685  30.7403362
  48.3220012  18.9424997  29.9659988  47.8660012  19.4714997  29.3119988
  48.4850012  19.5454997  30.6919988  48.2815585  19.0964468  29.9745062
  50.6500012  17.8204997  30.9109988  49.7450012  17.9854997  30.6459988
  51.0790012  18.6734997  30.8459988  50.5840799  17.9584483  30.8659182
  53.2540012  19.3904997  31.2059988  53.0720012  20.3064997  30.9959988
  53.4310012  18.9804997  30.3599988  53.2530210  19.4604822  31.0627885
  40.5590012  18.0774997  28.6709988  40.5410012  17.6524997  29.5289988
  41.3640012  17.7594997  28.2629988  40.6653875  17.9763812  28.7331655
  42.7010012  16.7874997  27.3259988  42.4820012  15.8714997  27.4959988
  43.5250012  16.9274997  27.7919988  42.7824420  16.6810520  27.4122774
  45.2380012  17.2574997  28.1749988  45.4510012  16.3694997  27.8879988
  45.3020012  17.2234997  29.1289988  45.2758232  17.1313102  28.2647397
  48.7460012   2.9214997  27.3189988  48.0720012   2.2924997  27.5749988
  49.3100012   2.4374997  26.7159988  48.7299230   2.7698744  27.2725340
  53.8890012   1.0294997  27.4319988  54.4930012   1.5764997  26.9299988
  53.0190012   1.3484997  27.1919988  53.8541241   1.1475806  27.3307654
  55.6160012   2.1674997  25.7649988  56.2280012   1.6534997  25.2389988
  55.9980012   3.0454997  25.7889988  55.7514540   2.2157140  25.6961830
  41.0730012   1.5554997  25.1409988  40.2960012   1.3214997  24.6339988
  41.6030012   0.7584997  25.1499988  41.0382330   1.4156988  25.0727742
  39.9090012   1.3534997  20.9449988  40.3480012   1.9644997  20.3529988
  39.2760012   1.8914997  21.4189988  39.8834514   1.5099257  20.9280930
  45.6520012   1.4824997  24.9549988  46.5270012   1.8704997  24.9249988
  45.5160012   1.2674997  25.8769988  45.7533695   1.5065184  25.0756440
  51.2090012   1.5124997  26.6039988  51.2850012   1.6074997  25.6539988
  50.9340012   0.6044997  26.7329988  51.1822321   1.4027867  26.4915079
  52.5620012   1.5384997  22.2959988  51.8600012   2.1534997  22.0869988
  52.1180012   0.7004997  22.4269988  52.4056330   1.5095783  22.2850328
  39.8100012  17.3014997  21.8429988  39.1250012  17.2634997  21.1749988
  39.8140012  18.2144997  22.1309988  39.7168193  17.4197016  21.7905284
  41.7700012   3.2694997  19.3869988  42.2620012   2.6394997  18.8599988
  42.3940012   3.5654997  20.0509988  41.9215446   3.2233199  19.4045980
  46.7960012   3.5624997  21.8439988  46.9740012   2.9164997  22.5269988
  46.7430012   4.3964997  22.3119988  46.8131829   3.5867985  22.0005940
  48.6750012  18.5114997  20.2399988  49.5410012  18.8774997  20.0619988
  48.4280012  18.0714997  19.4259988  48.7602392  18.5021756  20.1056289
  55.3840012  18.0744997  22.9189988  55.1890012  17.3264997  22.3539988
  55.3450012  18.8324997  22.3359988  55.3520380  18.0746099  22.7628384
  41.0310012   2.0694997  34.6589988  40.6650012   1.3044997  35.1019988
  41.9440012   2.0984997  34.9459988  41.1042790   1.9687224  34.7584070
  43.0040012   1.4204997  36.1949988  43.9020012   1.1464997  36.0099988
  42.6170012   0.6774997  36.6589988  43.0746612   1.2825914  36.2323643
  41.6280012  18.2214997  18.8679988  41.3610012  18.5084997  19.7409988
  42.4000012  17.6754997  19.0199988  41.6957488  18.1870294  19.0081050
  51.4250012   0.7524997  36.3769988  51.5020012   0.3264997  37.2309988
  52.3190012   0.7664997  36.0339988  51.5563428   0.6960879  36.4475310
  54.6010012  16.8254997  35.0689988  53.8190012  16.6394997  34.5499988
  54.5290012  17.7544997  35.2869988  54.4841777  16.9256492  35.0274048
  69.0070012  10.7114997  25.0999988  69.0960012  11.6554997  24.9679988
  68.3690012  10.4364997  24.4419988  68.9329081  10.8034830  24.9929614
  67.9400012   9.9664997  28.5189988  67.9020012   9.3204997  29.2239988
  67.6180012   9.5004997  27.7479988  67.8912333   9.8149408  28.5112978
  60.3090012   9.5814997  30.1119988  60.3500012   8.9554997  30.8349988
  61.0120012  10.2054997  30.2939988  60.4096363   9.5801196  30.2356044
  71.6460012  12.9054997  26.8199988  71.2060012  12.1854997  27.2709988
  71.6330012  13.6264997  27.4499988  71.5840226  12.9043731  26.9668494
  61.2320012  14.0314997  28.6469988  60.8630012  13.2294997  28.2769988
  62.1730012  13.8624997  28.6929988  61.3087289  13.8990153  28.6026316
  57.8420012   7.6914997  24.0399988  57.3950012   8.5374997  24.0209988
  57.2810012   7.1114997  23.5239988  57.7049900   7.7289916  23.9676801
  58.5530012   9.8534997  26.1659988  58.7660012   9.0834997  26.6929988
  59.2910012   9.9424997  25.5619988  58.6818496   9.7601394  26.1565300
  68.7580012  18.0104997  27.0329988  69.3780012  17.3334997  26.7589988
  68.5500012  17.7924997  27.9409988  68.8146904  17.8883870  27.1183365
  66.3300012  12.3994997  28.9249988  66.6340012  11.7134997  28.3299988
  67.0510012  12.5174997  29.5429988  66.4690671  12.3216305  28.9271816
  74.9930012   4.0004997  29.7859988  75.0420012   4.6104997  30.5219988
  75.4180012   4.4614997  29.0629988  75.0571824   4.1463741  29.7890205
  69.4710012   6.7934997  29.2529988  69.6130012   5.8474997  29.2729988
  69.3640012   7.0004997  28.3239988  69.4759864   6.6919534  29.1302339
  62.6250012   4.8944997  26.5249988  62.6690012   5.7544997  26.1069988
  62.1680012   4.3424997  25.8909988  62.5692185   4.9375799  26.3820299
  70.3480012   5.0254997  24.9259988  70.9940012   4.6964997  25.5509988
  70.8580012   5.5434997  24.3029988  70.5054264   5.0504611  24.9273862
  59.2460012   7.2914997  27.2869988  59.8990012   6.7414997  27.7189988
  59.2700012   7.0174997  26.3699988  59.3386683   7.1791466  27.2222123
  64.4020012   8.8414997  26.5019988  65.0180012   8.3154997  27.0119988
  63.8160012   8.2014997  26.0989988  64.4070810   8.6829208  26.5173173
  75.3840012   5.4784997  32.0219988  74.6960012   6.1364997  31.9259988
  75.4000012   5.2814997  32.9579988  75.2918525   5.5420462  32.1354808
  61.4360012   3.8124997  30.5989988  61.2170012   4.3424997  29.8329988
  60.7680012   4.0394997  31.2459988  61.3157600   3.9156906  30.5816379
  68.8050012  13.3124997  24.1429988  68.5090012  12.9904997  23.2919988
  68.4800012  14.2124997  24.1839988  68.7206371  13.3900215  24.0321801
  64.0050012  11.4884997  30.8859988  63.2650012  12.0864997  30.9899988
  64.7190012  12.0424997  30.5709988  64.0002237  11.6452831  30.8576465
  72.1120012   4.3164997  26.9059988  71.8960012   3.5504997  27.4389988
  72.7670012   4.7884997  27.4189988  72.1710632   4.2755889  27.0482861
  61.0290012   5.7044997  28.5509988  61.6430012   6.3374997  28.9249988
  61.5410012   5.2324997  27.8949988  61.1822296   5.7272370  28.5134252
  62.4120012  13.4524997  31.6739988  62.4070012  14.3324997  31.2959988
  61.5590012  13.3694997  32.0989988  62.2959464  13.5616117  31.6797907
  58.5330012  13.1234997  22.4559988  58.2610012  13.3524997  21.5669988
  58.5790012  13.9614997  22.9159988  58.5020094  13.2681213  22.3965697
  72.1580012  14.7454997  29.1679988  71.2170012  14.8034997  29.3299988
  72.4350012  15.6514997  29.0309988  72.0664679  14.8759443  29.1716815
  72.4590012   3.0314997  30.5859988  71.7230012   3.6424997  30.5479988
  73.1420012   3.4464997  30.0589988  72.4506541   3.1711374  30.5095832
  65.4620012   1.1184997  28.0519988  65.3450012   0.1694997  27.9969988
  64.6070012   1.4504997  28.3249988  65.3303733   1.0335409  28.0813897
  70.4100012  16.5264997  25.7939988  70.8360012  15.8194997  25.3089988
  70.7270012  17.3274997  25.3769988  70.5111019  16.5380994  25.6713130
  71.5700012  14.4274997  24.3019988  71.3120012  13.7374997  23.6909988
  71.6410012  13.9844997  25.1479988  71.5442856  14.2732124  24.3326885
  73.2560012  12.9934997  32.7799988  73.3960012  12.4024997  32.0399988
  73.4230012  13.8664997  32.4229988  73.2976778  13.0306426  32.6306965
  67.7290012   9.9554997  22.5519988  67.0170012  10.4904997  22.1999988
  68.4200012  10.0114997  21.8919988  67.7250132  10.0362543  22.4146289
  67.7820012   8.4134997  19.5909988  68.4830012   8.4354997  20.2419988
  68.0850012   7.7854997  18.9349988  67.9187830   8.3316566  19.5913711
  75.0980012   9.3334997  30.8459988  74.4450012  10.0284997  30.9349988
  75.5630012   9.5434997  30.0359988  75.0715390   9.4569425  30.7486883
  71.1340012  10.1654997  23.5039988  70.4020012  10.3934997  24.0769988
  71.5820012   9.4514997  23.9589988  71.0943095  10.1002571  23.6439119
  71.0320012   8.3394997  32.5709988  71.1120012   9.1024997  33.1429988
  70.4300012   8.6184997  31.8809988  70.9615756   8.4817134  32.5560589
  62.7800012  10.7954997  25.3859988  62.4490012  10.4254997  24.5679988
  63.3680012  10.1254997  25.7329988  62.8141873  10.6541156  25.3208102
  64.1460012  14.2234997  28.0679988  64.0520012  13.6454997  27.3109988
  64.8760012  13.8524997  28.5639988  64.2317981  14.0942390  28.0314165
  63.1460012   9.5644997  29.0199988  63.7120012   9.6854997  28.2569988
  63.4650012  10.2014997  29.6589988  63.2665786   9.6671884  29.0020040
  69.4550012  15.0674997  29.7539988  69.2150012  15.7294997  30.4019988
  69.2570012  14.2334997  30.1789988  69.3953808  15.0453134  29.9001524
  64.0260012  13.9634997  33.7369988  63.7150012  14.7454997  34.1919988
  63.3760012  13.8104997  33.0509988  63.8955558  14.0499105  33.7065871
  70.0050012   9.3274997  21.1889988  70.5850012   9.4774997  21.9359988
  70.4190012   9.7984997  20.4659988  70.1402831   9.4116841  21.1934134
  60.9460012  10.1614997  32.9659988  61.0170012  10.8124997  33.6639988
  60.0560012  10.2644997  32.6309988  60.8353117  10.2645936  33.0162700
  67.7320012  16.0644997  24.6239988  68.2060012  16.3594997  25.4019988
  67.1690012  16.8024997  24.3909988  67.7207653  16.2046932  24.6990136
  62.2660012  16.0354997  34.4999988  62.2730012  15.8994997  33.5529988
  61.3500012  15.9174997  34.7519988  62.1431714  16.0009430  34.4044666
  73.7040012   1.0774997  21.0019988  72.8040012   1.2164997  21.2969988
  73.9560012   1.9084997  20.5999988  73.6148702   1.2089074  20.9880205
  61.7700012   9.8654997  22.9759988  61.4780012  10.6334997  22.4849988
  61.0960012   9.2054997  22.8129988  61.6389081   9.8814406  22.8867340
  74.8930012  15.4434997  19.3779988  74.9670012  16.3824997  19.5489988
  75.7990012  15.1384997  19.3219988  75.0255100  15.5306722  19.3938119
  57.8630012  12.2284997  31.7909988  57.3620012  12.2004997  30.9759988
  57.8680012  11.3224997  32.0999988  57.7951526  12.1022278  31.7212872
  57.6130012  15.0084997  28.6749988  58.5590012  14.8644997  28.6559988
  57.5010012  15.7924997  29.2119988  57.7272727  15.0948046  28.7450072
  75.8110012  15.6744997  34.3569988  75.7620012  14.7194997  34.3199988
  74.9840012  15.9424997  34.7579988  75.6924940  15.5798998  34.4061375
  66.7900012  15.2484997  33.2329988  66.8770012  16.0744997  33.7079988
  65.9260012  14.9184997  33.4819988  66.6851964  15.3169878  33.3316549
  67.2040012  19.0204997  23.0389988  67.1290012  18.8994997  22.0929988
  67.2370012  19.9704997  23.1579988  67.1981848  19.1322500  22.9254834
  60.8570012  17.8094997  24.8199988  61.0100012  17.4614997  25.6989988
  60.0070012  17.4534997  24.5649988  60.7628962  17.7136650  24.9058340
  70.3060012  18.1744997  20.0409988  70.6810012  17.4304997  19.5709988
  70.3100012  17.9044997  20.9599988  70.3578915  18.0361486  20.1007824
  69.9750012  18.1004997  22.7909988  69.0390012  18.2004997  22.9689988
  70.2550012  17.3914997  23.3689988  69.8848255  18.0182711  22.8935391
  72.9630012   7.1674997  34.8369988  72.5560012   7.6484997  34.1159988
  73.0040012   6.2624997  34.5289988  72.9128437   7.1109374  34.6966683
  60.1120012  13.5514997  32.8339988  60.3280012  13.1904997  33.6929988
  59.2570012  13.1774997  32.6239988  60.0259292  13.4514111  32.9233386
  62.7310012   2.0214997  28.8289988  61.8690012   1.9344997  28.4219988
  62.7080012   2.8774997  29.2569988  62.6100330   2.1252765  28.8311863
  67.3940012   1.7434997  32.2039988  67.8140012   1.3284997  32.9569988
  66.4610012   1.5654997  32.3209988  67.3253644   1.6625900  32.3229539
  70.7200012   5.4994997  33.0569988  70.2060012   5.3734997  33.8549988
  70.5650012   6.4114997  32.8129988  70.6286852   5.6056132  33.1332158
  71.4830012  10.3604997  18.8189988  71.5250012  10.1374997  17.8889988
  72.3320012  10.7594997  19.0089988  71.6035396  10.3839155  18.7173627
  67.0550012   4.2364997  19.4889988  66.8020012   4.2554997  20.4119988
  66.7990012   3.3644997  19.1879988  66.9857790   4.1212437  19.5746263
  62.8220012   6.9874997  29.9239988  62.1800012   6.9464997  30.6329988
  62.8590012   7.9134997  29.6869988  62.7391324   7.1071559  29.9889824
  62.8190012   7.2084997  24.8359988  61.9260012   6.8674997  24.7779988
  63.2690012   6.8314997  24.0809988  62.7577305   7.1108484  24.7259177
  68.3540012   7.6244997  23.6529988  67.9450012   8.4394997  23.3619988
  69.0750012   7.4844997  23.0389988  68.3954537   7.7172018  23.5301342
  67.4560012   7.7994997  35.1409988  66.8940012   7.0954997  35.4619988
  68.2830012   7.6794997  35.6089988  67.4907095   7.6867883  35.2482330
  69.3590012   7.0704997  26.4669988  69.1640012   7.6754997  25.7519988
  69.5400012   6.2364997  26.0329988  69.3567614   7.0406300  26.3104405
  60.5720012   7.3074997  31.7909988  60.5340012   7.7074997  32.6599988
  60.0810012   6.4904997  31.8819988  60.5004684   7.2518069  31.9221059
  63.9380012   4.6814997  18.5899988  63.5070012   4.2364997  19.3199988
  63.2200012   5.0534997  18.0779988  63.7819438   4.6708940  18.6206799
  57.1800012   4.4234997  25.6419988  57.8110012   4.3944997  26.3609988
  57.6290012   3.9984997  24.9119988  57.3270774   4.3620492  25.6416553
  58.4540012   5.1694997  21.0659988  58.9280012   5.7604997  20.4809988
  57.7370012   5.7004997  21.4129988  58.4219341   5.3220867  21.0328836
  68.6230012   8.7084997  31.1389988  68.9460012   8.0774997  30.4959988
  68.1830012   8.1734997  31.7989988  68.6076895   8.5498440  31.1402850
  65.4000012   4.6354997  25.9229988  64.4890012   4.6924997  26.2109988
  65.9060012   4.5754997  26.7329988  65.3435413   4.6351985  26.0720622
  60.2290012   6.2644997  24.7489988  59.3390012   6.3644997  24.4089988
  60.5250012   5.4224997  24.4029988  60.1472823   6.1643546  24.6557213
  63.8820012   6.2644997  22.4059988  64.8130012   6.3934997  22.5839988
  63.6670012   6.9344997  21.7559988  63.9804247   6.3726565  22.3425747
  69.8050012   3.8704997  29.1869988  69.1290012   4.0014997  29.8509988
  69.3200012   3.7154997  28.3769988  69.6467145   3.8674905  29.1684517
  62.5560012   7.4594997  19.9729988  62.0130012   7.0794997  19.2809988
  63.3890012   7.6534997  19.5439988  62.5944399   7.4338124  19.8204526
  73.0930012  19.5424997  35.4639988  73.2930012  19.9664997  34.6289988
  73.7480012  19.8854997  36.0709988  73.2090051  19.6469648  35.4317836
  60.6910012  12.0164997  35.0719988  61.4230012  12.2704997  35.6329988
  59.9110012  12.2204997  35.5869988  60.6858232  12.0789177  35.2185760
  66.7200012   7.4234997  27.8099988  67.2850012   6.8764997  27.2629988
  66.5730012   6.9014997  28.5979988  66.7772918   7.2782024  27.8418454
  61.7220012   3.5594997  24.2279988  61.4050012   2.6574997  24.1929988
  62.5040012   3.5614997  23.6749988  61.7842284   3.4361628  24.1484783
  65.3470012   5.8114997  30.2239988  64.5110012   6.2654997  30.3339988
  65.8710012   6.0874997  30.9759988  65.3034414   5.9109376  30.3407136
  65.8910012  12.0244997  21.9079988  65.1460012  11.5174997  21.5859988
  65.7570012  12.0734997  22.8549988  65.7708776  11.9616940  21.9918647
  73.0410012  11.1574997  30.6949988  73.6830012  11.6144997  30.1509988
  72.2110012  11.2704997  30.2319988  73.0165963  11.2352704  30.5580177
  69.7890012   4.8384997  20.1079988  68.8500012   4.9504997  19.9559988
  70.0860012   5.6954997  20.4139988  69.7007666   4.9696443  20.1285768
  67.4100012  12.2084997  33.1449988  67.0650012  11.8274997  33.9519988
  67.2100012  13.1424997  33.2169988  67.3358061  12.2825228  33.2650961
  70.5070012   6.7054997  21.7679988  71.3990012   6.5684997  22.0869988
  70.5640012   7.4964997  21.2319988  70.6366285   6.7936660  21.7391691
  61.0160012  11.3194997  27.6779988  61.7610012  11.3174997  27.0769988
  61.0940012  10.4964997  28.1599988  61.1285518  11.2079315  27.6608929
  68.0170012  13.4834997  20.9339988  67.7210012  14.3094997  21.3149988
  67.3140012  12.8634997  21.1299988  67.8814914  13.5128199  21.0126443
  58.0240012   9.7804997  32.9929988  58.2470012   9.3624997  33.8249988
  57.4220012   9.1674997  32.5699988  57.9731759   9.6404668  33.0497022
  65.0400012   9.2974997  35.2059988  64.7440012   9.1314997  34.3109988
  65.9720012   9.0774997  35.1949988  65.1254166   9.2450640  35.0820536
  69.6610012  14.6704997  33.0959988  68.7600012  14.8534997  32.8279988
  69.6950012  14.9294997  34.0169988  69.5423041  14.7305512  33.1838197
  75.3920012   6.9154997  21.4629988  74.8380012   6.5194997  20.7909988
  75.4920012   7.8254997  21.1849988  75.3297059   6.9843586  21.3334401
  75.3550012  12.7154997  34.2999988  74.5040012  12.9534997  33.9329988
  75.9460012  12.6984997  33.5469988  75.3182487  12.7458258  34.1478893
  73.6870012  15.7014997  21.9279988  73.3140012  14.8754997  22.2369988
  73.9650012  15.5184997  21.0309988  73.6735630  15.5637303  21.8489626
  70.8480012  10.5094997  28.9489988  69.9190012  10.2774997  28.9219988
  71.2990012   9.7324997  28.6189988  70.7819216  10.3727238  28.9006917
  63.3910012  14.8374997  25.0819988  63.9180012  15.6104997  24.8819988
  62.5110012  15.0624997  24.7809988  63.3441773  14.9738005  25.0139010
  59.1460012   9.6994997  19.6689988  59.7620012  10.3264997  20.0489988
  58.2840012  10.0154997  19.9409988  59.1137698   9.8279430  19.7577183
  64.8180012  12.5004997  24.6589988  64.5770012  13.4254997  24.6999988
  64.0770012  12.0414997  25.0549988  64.6848409  12.5651421  24.7181377
  65.3330012  16.6494997  30.9739988  65.6950012  17.5044997  30.7399988
  65.8640012  16.3574997  31.7139988  65.4544473  16.7271060  31.0420855
  63.5010012  17.5224997  24.2039988  62.5510012  17.6274997  24.2549988
  63.8530012  18.3424997  24.5489988  63.4184203  17.6478314  24.2576650
  68.8770012  12.7484997  30.6739988  68.4510012  12.5214997  31.5009988
  69.4570012  12.0104997  30.4919988  68.8971868  12.6175299  30.7625830
  71.0800012  13.6774997  19.7479988  71.4330012  13.2974997  20.5529988
  70.1310012  13.5844997  19.8349988  71.0000441  13.6129596  19.8698559
  71.5350012  17.3004997  33.1439988  70.9340012  16.7454997  32.6479988
  71.8170012  17.9674997  32.5179988  71.4908519  17.3146841  32.9914952
  75.5830012  18.1574997  19.9489988  76.3270012  18.7434997  19.8089988
  74.8890012  18.7254997  20.2829988  75.5910292  18.3145582  19.9749961
  59.6580012   4.5334997  32.5509988  58.7650012   4.8724997  32.4829988
  59.5590012   3.6784997  32.9689988  59.5224164   4.4642588  32.5982235
  71.9460012  12.3504997  21.9749988  71.6680012  11.6224997  22.5309988
  72.8730012  12.4694997  22.1799988  72.0333124  12.2668802  22.0788845
  59.3090012  16.3384997  30.9859988  59.5260012  15.4064997  30.9549988
  59.5550012  16.6124997  31.8689988  59.3719549  16.2480636  31.1011763
  65.1710012  14.7894997  18.1949988  65.4100012  14.0414997  17.6479988
  64.9020012  14.4014997  19.0279988  65.1673675  14.6346638  18.2326865
  64.1080012  14.3594997  20.6519988  64.2540012  13.8394997  21.4419988
  64.1050012  15.2664997  20.9579988  64.1275989  14.4108853  20.8016088
  60.5610012  11.6124997  21.1619988  59.8750012  11.9644997  21.7289988
  61.0830012  12.3754997  20.9149988  60.5376852  11.7638578  21.2062118
  68.3920012   4.2744997  31.4409988  69.0910012   4.3484997  32.0909988
  68.0110012   3.4104997  31.5949988  68.4361767   4.1677624  31.5508322
  69.1770012   3.9264997  22.5379988  69.3970012   4.3984997  21.7349988
  69.7350012   4.3214997  23.2079988  69.2824968   4.0444285  22.5187331
  66.8450012  16.0574997  21.4009988  66.0290012  16.5544997  21.4529988
  67.3750012  16.5324997  20.7609988  66.8049161  16.1897722  21.3215956
  66.3770012   5.6544997  23.3729988  67.1890012   6.1594997  23.4189988
  66.1320012   5.5094997  24.2869988  66.4550520   5.7040375  23.5028517
  66.9120012   6.6404997  32.5579988  67.0310012   7.2144997  33.3149988
  67.5680012   5.9524997  32.6719988  67.0169757   6.6261079  32.6770825
  67.2600012   2.7354997  24.3109988  66.9140012   3.3534997  24.9559988
  67.9190012   3.2364997  23.8299988  67.3017826   2.8875802  24.3340971
  64.1840012  17.1014997  21.3829988  64.3440012  17.9004997  20.8819988
  63.9860012  17.4074997  22.2679988  64.1791649  17.2524469  21.4339815
  62.9180012   3.7984997  20.9979988  62.8350012   4.6874997  21.3449988
  63.8080012   3.5334997  21.2299988  63.0269469   3.8841430  21.0767626
  73.1170012   4.5474997  33.3929988  72.2000012   4.8104997  33.3049988
  73.4520012   4.5444997  32.4959988  73.0369900   4.5830224  33.2597919
  71.7190012   8.2984997  27.4879988  70.9210012   7.8834997  27.1599988
  72.1640012   7.6074997  27.9789988  71.6699885   8.1483543  27.5094889
  61.1770012  14.2264997  20.0589988  61.7690012  14.9254997  20.3349988
  61.6360012  13.7934997  19.3389988  61.3201142  14.2637049  19.9994830
  59.4930012   6.8904997  19.1749988  59.4480012   7.8294997  19.3529988
  58.6050012   6.6544997  18.9049988  59.3668574   6.9871892  19.1628912
  72.8050012  17.5544997  29.1109988  72.6500012  18.2324997  28.4539988
  73.7380012  17.6264997  29.3139988  72.9098500  17.6570170  29.0485119
  60.3010012   1.6724997  27.8479988  60.0720012   1.7314997  26.9199988
  59.8580012   0.8804997  28.1539988  60.2098530   1.5735753  27.7624786
  59.2310012  15.6124997  24.0079988  58.3990012  16.0854997  24.0359988
  59.7770012  16.1224997  23.4099988  59.1909739  15.7461871  23.9309716
  58.5190012  18.2254997  35.3379988  59.0600012  18.0084997  36.0979988
  58.0380012  17.4194997  35.1489988  58.5279345  18.0869514  35.4163076
  63.1170012  17.1444997  36.9589988  63.8840012  16.6854997  37.2999988
  63.0950012  16.9184997  36.0289988  63.2191434  17.0510409  36.8800043
  67.2090012  16.6524997  18.3339988  66.5650012  16.0214997  18.6549988
  67.9710012  16.1214997  18.1019988  67.2238077  16.4942920  18.3466011
  69.6940012  15.5244997  35.6879988  69.3430012  14.6684997  35.9309988
  70.4200012  15.6674997  36.2949988  69.7440769  15.4265636  35.8033619
  71.8130012  16.4694997  18.5679988  72.0960012  15.6754997  19.0199988
  72.5530012  16.7024997  18.0069988  71.9517486  16.3922803  18.5540698
  58.4260012  12.0354997  36.2929988  58.5700012  11.1334997  36.0059988
  57.6540012  12.3214997  35.8049988  58.3413322  11.9508261  36.1877881
  62.7680012  12.3794997  18.4249988  62.8320012  11.5854997  18.9559988
  63.4210012  12.2604997  17.7349988  62.8650241  12.2547148  18.4044317
  65.0820012  12.0054997  35.7249988  64.7530012  12.2764997  34.8679988
  65.2340012  11.0644997  35.6379988  65.0574809  11.9153862  35.5958244
  68.1200012  13.4264997  18.1609988  67.8510012  13.6064997  19.0619988
  67.9140012  12.5004997  18.0299988  68.0553825  13.3260152  18.2665214
  70.8160012  11.9214997  33.1089988  71.5620012  12.5094997  32.9889988
  70.0590012  12.5034997  33.1719988  70.8157554  12.0807011  33.1010907
  59.2590012   9.2354997  35.7129988  59.6670012   8.3784997  35.5919988
  58.9990012   9.2504997  36.6339988  59.2797568   9.1200807  35.8209588
  63.9170012  10.3514997  20.7309988  63.4570012   9.8674997  21.4169988
  64.1720012   9.6834997  20.0949988  63.8884902  10.1948731  20.7389334
  63.2060012   8.2444997  33.0869988  62.5880012   8.9194997  33.3669988
  63.5500012   8.5654997  32.2539988  63.1679615   8.3802721  33.0126581
  64.9880012   8.5944997  18.9929988  64.8080012   8.4404997  18.0659988
  65.9380012   8.7024997  19.0379988  65.0917776   8.5880175  18.8721843
  68.2260012  10.7164997  36.3639988  69.1790012  10.7994997  36.3369988
  68.0650012  10.0044997  36.9839988  68.3346426  10.6316746  36.4440579
  74.3780012  10.9494997  18.4389988  74.1040012  10.5244997  17.6259988
  74.4170012  11.8804997  18.2219988  74.3457699  11.0172484  18.2983610
  63.5450012   5.5994997  34.1689988  63.6950012   4.8704997  33.5669988
  63.5480012   6.3764997  33.6099988  63.5659302   5.6047851  34.0110692
  63.9580012   3.9694997  31.6619988  64.4940012   4.4204997  31.0099988
  63.1060012   3.8614997  31.2389988  63.9162178   4.0166390  31.5155756
  65.5400012   9.4084997  31.9009988  66.2900012   9.2524997  31.3279988
  65.2010012  10.2604997  31.6259988  65.5968921   9.5022968  31.7853561
  69.9550012   7.2234997  36.9299988  70.1480012   6.2924997  36.8179988
  70.8130012   7.6484997  36.9199988  70.0973020   7.1536389  36.9133361
  71.2720012  10.0124997  35.0069988  70.9910012  10.7214997  34.4299988
  72.2150012   9.9394997  34.8559988  71.3609027  10.0997646  34.9075551
  62.0240012   6.7974997  36.0809988  61.2570012   6.2654997  35.8709988
  62.7030012   6.4874997  35.4809988  62.0107022   6.6827506  35.9711648
  64.7640012   1.4254997  32.0929988  64.6650012   2.3724997  31.9879988
  64.0210012   1.0534997  31.6179988  64.6500564   1.5045902  32.0144560
  66.0280012   5.7474997  35.6569988  65.7920012   5.5274997  36.5589988
  65.2440012   5.5404997  35.1469988  65.8898628   5.6894760  35.7113932
  68.7430012   4.8744997  34.7329988  67.7960012   4.9064997  34.8649988
  69.0560012   4.2494997  35.3859988  68.6555475   4.7943207  34.8394455
  70.3770012   3.5084997  36.7379988  70.2810012   2.5564997  36.7319988
  70.0560012   3.7774997  37.5979988  70.3204070   3.4144035  36.8535441
  60.2040012   4.7184997  35.7849988  60.4160012   4.0114997  35.1749988
  60.0930012   4.2804997  36.6289988  60.2179721   4.5627084  35.8156843
  64.9850012   0.7194997  34.7649988  65.6970012   0.0794997  34.7509988
  64.8840012   0.9864997  33.8509988  65.0687939   0.6679938  34.6395650
  65.3390012   2.4024997  36.8179988  65.2070012   1.9264997  35.9979988
  64.7400012   3.1464997  36.7629988  65.2399071   2.4379618  36.6982886
  64.8850012  19.2854997  19.9949988  65.8180012  19.4434997  20.1379988
  64.6210012  19.9604997  19.3699988  64.9769510  19.3983611  19.9300741
  58.4540012  13.9214997  19.4769988  59.3680012  14.0004997  19.7509988
  58.4610012  13.2344997  18.8109988  58.5801131  13.8393961  19.4244393
  57.1030012  19.3144997  24.5549988  56.4560012  18.8524997  24.0219988
  57.4570012  18.6424997  25.1369988  57.0623849  19.1604723  24.5607959
  57.9730012  17.3954997  26.3589988  57.6380012  16.5154997  26.5309988
  58.1950012  17.7404997  27.2239988  57.9571783  17.3217500  26.4994208
  75.5210012  18.2044997  29.3399988  75.5000012  18.3894997  30.2789988
  76.2120012  18.7734997  28.9989988  75.6114618  18.3066606  29.4223864
  75.0850012  17.7724997  32.2619988  74.5970012  17.0364997  31.8909988
  75.6340012  17.3784997  32.9399988  75.0924872  17.6186249  32.3029160
  73.5350012  13.5614997  36.8999988  72.6690012  13.4564997  37.2939988
  73.9120012  14.3204997  37.3459988  73.4673308  13.6496900  37.0142393
  74.8360012  11.8184997  22.4139988  75.6860012  12.2394997  22.5409988
  74.8420012  11.0784997  23.0209988  74.9531372  11.7760803  22.5134344
  75.2310012   9.8714997  24.2379988  74.5040012   9.3924997  24.6349988
  75.8120012  10.0774997  24.9699988  75.2099375   9.8337090  24.3914129
  74.9900012  12.6564997  29.1849988  75.8230012  12.2784997  28.9049988
  75.1020012  13.5994997  29.0659988  75.1192647  12.7322218  29.1305487
  73.4760012  15.5344997  31.4919988  72.8290012  15.8594997  32.1179988
  72.9590012  15.0944997  30.8179988  73.3174029  15.5195004  31.4865827
  75.4990012   9.7724997  20.6289988  74.9770012  10.1294997  19.9099988
  75.4660012  10.4474997  21.3069988  75.4231634   9.9125413  20.6223145
  73.8480012   7.0124997  19.1799988  73.9440012   7.6794997  18.4989988
  73.7080012   6.1964997  18.6979988  73.8422135   6.9934500  19.0218491
  73.0170012   8.3924997  24.8009988  72.8670012   7.4474997  24.7799988
  72.6640012   8.6734997  25.6439988  72.9486625   8.3010441  24.9122346
  58.0530012  10.4704997  28.8109988  58.2370012  10.3884997  27.8749988
  58.9020012  10.3464997  29.2349988  58.1930139  10.4425003  28.7401455
  73.8740012  10.3624997  34.4389988  74.4570012   9.6284997  34.6309988
  74.4380012  11.1344997  34.4859988  74.0299769  10.3664227  34.4716159
  75.3700012   8.2654997  35.1239988  74.5070012   7.8864997  34.9579988
  75.9750012   7.5264997  35.0499988  75.3335979   8.1138023  35.0912817
  73.0950012   4.4204997  18.2969988  73.7060012   4.0494997  18.9339988
  72.2590012   3.9994997  18.4929988  73.0655032   4.3127554  18.4107035
  72.7280012   5.9754997  23.2629988  73.0080012   5.0684997  23.3869988
  73.4870012   6.4094997  22.8739988  72.8689277   5.9100942  23.2273682
  73.3400012   6.5564997  28.6989988  74.2730012   6.7684997  28.6649988
  73.1050012   6.6584997  29.6209988  73.4358036   6.5992769  28.8189976
  73.3690012   7.2934997  31.4749988  72.5260012   7.5614997  31.8409988
  73.8110012   8.1154997  31.2639988  73.3134158   7.4413291  31.4965491
  57.6500012   5.7414997  34.9519988  58.5700012   5.6194997  35.1879988
  57.2010012   4.9914997  35.3409988  57.7151580   5.6233727  35.0369006
  75.6520012   1.2734997  36.8279988  76.0020012   0.6194997  36.2229988
  75.7990012   2.1104997  36.3889988  75.7198419   1.2971591  36.6857118
  73.3410012   3.2384997  23.3109988  73.5240012   2.7894997  24.1369988
  72.7420012   2.6534997  22.8479988  73.2850202   3.0979975  23.3613275
  58.8710012   4.0534997  27.8429988  59.3170012   3.2614997  28.1449988
  59.3380012   4.7694997  28.2739988  58.9950172   4.0420624  27.9424820
  57.1750012   7.0524997  28.9119988  57.6670012   6.8314997  28.1209988
  57.5380012   7.8934997  29.1929988  57.2913126   7.1358357  28.8417531
  75.1720012   3.3824997  35.1779988  74.2540012   3.6534997  35.1419988
  75.2950012   2.8474997  34.3929988  75.0631066   3.3472892  35.0670487
  75.2080012   3.3054997  19.8389988  75.6200012   2.5844997  19.3639988
  75.8900012   3.9754997  19.8979988  75.3565885   3.2972368  19.7818915
  57.4890012   3.3104997  22.9659988  56.5640012   3.5194997  22.8369988
  57.9430012   3.7944997  22.2769988  57.4237368   3.4045993  22.8551226
  72.2600012  18.2944997  24.9119988  72.9120012  17.9474997  24.3039988
  72.7700012  18.7834997  25.5579988  72.4182637  18.3130597  24.9160236
  57.4530012   2.0484997  31.3109988  56.7880012   1.8024997  31.9539988
  57.0100012   2.6704997  30.7329988  57.3020956   2.0988632  31.3209352
  59.6450012  15.2234997  35.4549988  58.8240012  15.3984997  34.9949988
  59.3920012  15.1504997  36.3759988  59.4986164  15.2375622  35.5164923
  62.5990012  16.1984997  31.7139988  62.1740012  17.0074997  31.4309988
  63.5030012  16.2834997  31.4119988  62.6630271  16.3208469  31.6343776
  66.9100012  17.5974997  34.6729988  67.0950012  17.2634997  35.5509988
  67.7560012  17.9064997  34.3509988  67.0497539  17.5936047  34.7495605
  69.2550012  18.8834997  33.9169988  69.9320012  18.2504997  33.6769988
  69.5770012  19.2844997  34.7239988  69.3911637  18.8511154  33.9932793
  74.1720012   1.4724997  32.9969988  73.3600012   1.7974997  32.6089988
  74.4050012   0.7124997  32.4639988  74.0923423   1.4142436  32.8718253
  60.0010012  19.4544997  31.7609988  59.2800012  19.8944997  31.3099988
  59.6350012  19.2034997  32.6099988  59.8529804  19.4807698  31.8139840
  62.4680012  19.0544997  30.7909988  61.6030012  19.1264997  31.1949988
  62.4130012  19.6014997  30.0069988  62.3422085  19.1382685  30.7403362
  67.1780012  18.9424997  29.9659988  66.7220012  19.4714997  29.3119988
  67.3410012  19.5454997  30.6919988  67.1375585  19.0964468  29.9745062
  69.5060012  17.8204997  30.9109988  68.6010012  17.9854997  30.6459988
  69.9350012  18.6734997  30.8459988  69.4400799  17.9584483  30.8659182
  72.1100012  19.3904997  31.2059988  71.9280012  20.3064997  30.9959988
  72.2870012  18.9804997  30.3599988  72.1090210  19.4604822  31.0627885
  59.4150012  18.0774997  28.6709988  59.3970012  17.6524997  29.5289988
  60.2200012  17.7594997  28.2629988  59.5213875  17.9763812  28.7331655
  61.5570012  16.7874997  27.3259988  61.3380012  15.8714997  27.4959988
  62.3810012  16.9274997  27.7919988  61.6384420  16.6810520  27.4122774
  64.0940012  17.2574997  28.1749988  64.3070012  16.3694997  27.8879988
  64.1580012  17.2234997  29.1289988  64.1318232  17.1313102  28.2647397
  67.6020012   2.9214997  27.3189988  66.9280012   2.2924997  27.5749988
  68.1660012   2.4374997  26.7159988  67.5859230   2.7698744  27.2725340
  72.7450012   1.0294997  27.4319988  73.3490012   1.5764997  26.9299988
  71.8750012   1.3484997  27.1919988  72.7101241   1.1475806  27.3307654
  74.4720012   2.1674997  25.7649988  75.0840012   1.6534997  25.2389988
  74.8540012   3.0454997  25.7889988  74.6074540   2.2157140  25.6961830
  59.9290012   1.5554997  25.1409988  59.1520012   1.3214997  24.6339988
  60.4590012   0.7584997  25.1499988  59.8942330   1.4156988  25.0727742
  58.7650012   1.3534997  20.9449988  59.2040012   1.9644997  20.3529988
  58.1320012   1.8914997  21.4189988  58.7394514   1.5099257  20.9280930
  64.5080012   1.4824997  24.9549988  65.3830012   1.8704997  24.9249988
  64.3720012   1.2674997  25.8769988  64.6093695   1.5065184  25.0756440
  70.0650012   1.5124997  26.6039988  70.1410012   1.6074997  25.6539988
  69.7900012   0.6044997  26.7329988  70.0382321   1.4027867  26.4915079
  71.4180012   1.5384997  22.2959988  70.7160012   2.1534997  22.0869988
  70.9740012   0.7004997  22.4269988  71.2616330   1.5095783  22.2850328
  58.6660012  17.3014997  21.8429988  57.9810012  17.2634997  21.1749988
  58.6700012  18.2144997  22.1309988  58.5728193  17.4197016  21.7905284
  60.6260012   3.2694997  19.3869988  61.1180012   2.6394997  18.8599988
  61.2500012   3.5654997  20.0509988  60.7775446   3.2233199  19.4045980
  65.6520012   3.5624997  21.8439988  65.8300012   2.9164997  22.5269988
  65.5990012   4.3964997  22.3119988  65.6691829   3.5867985  22.0005940
  67.5310012  18.5114997  20.2399988  68.3970012  18.8774997  20.0619988
  67.2840012  18.0714997  19.4259988  67.6162392  18.5021756  20.1056289
  74.2400012  18.0744997  22.9189988  74.0450012  17.3264997  22.3539988
  74.2010012  18.8324997  22.3359988  74.2080380  18.0746099  22.7628384
  59.8870012   2.0694997  34.6589988  59.5210012   1.3044997  35.1019988
  60.8000012   2.0984997  34.9459988  59.9602790   1.9687224  34.7584070
  61.8600012   1.4204997  36.1949988  62.7580012   1.1464997  36.0099988
  61.4730012   0.6774997  36.6589988  61.9306612   1.2825914  36.2323643
  60.4840012  18.2214997  18.8679988  60.2170012  18.5084997  19.7409988
  61.2560012  17.6754997  19.0199988  60.5517488  18.1870294  19.0081050
  70.2810012   0.7524997  36.3769988  70.3580012   0.3264997  37.2309988
  71.1750012   0.7664997  36.0339988  70.4123428   0.6960879  36.4475310
  73.4570012  16.8254997  35.0689988  72.6750012  16.6394997  34.5499988
  73.3850012  17.7544997  35.2869988  73.3401777  16.9256492  35.0274048
  87.8630012  10.7114997  25.0999988  87.9520012  11.6554997  24.9679988
  87.2250012  10.4364997  24.4419988  87.7889081  10.8034830  24.9929614
  86.7960012   9.9664997  28.5189988  86.7580012   9.3204997  29.2239988
  86.4740012   9.5004997  27.7479988  86.7472333   9.8149408  28.5112978
  79.1650012   9.5814997  30.1119988  79.2060012   8.9554997  30.8349988
  79.8680012  10.2054997  30.2939988  79.2656363   9.5801196  30.2356044
  90.5020012  12.9054997  26.8199988  90.0620012  12.1854997  27.2709988
  90.4890012  13.6264997  27.4499988  90.4400226  12.9043731  26.9668494
  80.0880012  14.0314997  28.6469988  79.7190012  13.2294997  28.2769988
  81.0290012  13.8624997  28.6929988  80.1647289  13.8990153  28.6026316
  76.6980012   7.6914997  24.0399988  76.2510012   8.5374997  24.0209988
  76.1370012   7.1114997  23.5239988  76.5609900   7.7289916  23.9676801
  77.4090012   9.8534997  26.1659988  77.6220012   9.0834997  26.6929988
  78.1470012   9.9424997  25.5619988  77.5378496   9.7601394  26.1565300
  87.6140012  18.0104997  27.0329988  88.2340012  17.3334997  26.7589988
  87.4060012  17.7924997  27.9409988  87.6706904  17.8883870  27.1183365
  85.1860012  12.3994997  28.9249988  85.4900012  11.7134997  28.3299988
  85.9070012  12.5174997  29.5429988  85.3250671  12.3216305  28.9271816
  93.8490012   4.0004997  29.7859988  93.8980012   4.6104997  30.5219988
  94.2740012   4.4614997  29.0629988  93.9131824   4.1463741  29.7890205
  88.3270012   6.7934997  29.2529988  88.4690012   5.8474997  29.2729988
  88.2200012   7.0004997  28.3239988  88.3319864   6.6919534  29.1302339
  81.4810012   4.8944997  26.5249988  81.5250012   5.7544997  26.1069988
  81.0240012   4.3424997  25.8909988  81.4252185   4.9375799  26.3820299
  89.2040012   5.0254997  24.9259988  89.8500012   4.6964997  25.5509988
  89.7140012   5.5434997  24.3029988  89.3614264   5.0504611  24.9273862
  78.1020012   7.2914997  27.2869988  78.7550012   6.7414997  27.7189988
  78.1260012   7.0174997  26.3699988  78.1946683   7.1791466  27.2222123
  83.2580012   8.8414997  26.5019988  83.8740012   8.3154997  27.0119988
  82.6720012   8.2014997  26.0989988  83.2630810   8.6829208  26.5173173
  94.2400012   5.4784997  32.0219988  93.5520012   6.1364997  31.9259988
  94.2560012   5.2814997  32.9579988  94.1478525   5.5420462  32.1354808
  80.2920012   3.8124997  30.5989988  80.0730012   4.3424997  29.8329988
  79.6240012   4.0394997  31.2459988  80.1717600   3.9156906  30.5816379
  87.6610012  13.3124997  24.1429988  87.3650012  12.9904997  23.2919988
  87.3360012  14.2124997  24.1839988  87.5766371  13.3900215  24.0321801
  82.8610012  11.4884997  30.8859988  82.1210012  12.0864997  30.9899988
  83.5750012  12.0424997  30.5709988  82.8562237  11.6452831  30.8576465
  90.9680012   4.3164997  26.9059988  90.7520012   3.5504997  27.4389988
  91.6230012   4.7884997  27.4189988  91.0270632   4.2755889  27.0482861
  79.8850012   5.7044997  28.5509988  80.4990012   6.3374997  28.9249988
  80.3970012   5.2324997  27.8949988  80.0382296   5.7272370  28.5134252
  81.2680012  13.4524997  31.6739988  81.2630012  14.3324997  31.2959988
  80.4150012  13.3694997  32.0989988  81.1519464  13.5616117  31.6797907
  77.3890012  13.1234997  22.4559988  77.1170012  13.3524997  21.5669988
  77.4350012  13.9614997  22.9159988  77.3580094  13.2681213  22.3965697
  91.0140012  14.7454997  29.1679988  90.0730012  14.8034997  29.3299988
  91.2910012  15.6514997  29.0309988  90.9224679  14.8759443  29.1716815
  91.3150012   3.0314997  30.5859988  90.5790012   3.6424997  30.5479988
  91.9980012   3.4464997  30.0589988  91.3066541   3.1711374  30.5095832
  84.3180012   1.1184997  28.0519988  84.2010012   0.1694997  27.9969988
  83.4630012   1.4504997  28.3249988  84.1863733   1.0335409  28.0813897
  89.2660012  16.5264997  25.7939988  89.6920012  15.8194997  25.3089988
  89.5830012  17.3274997  25.3769988  89.3671019  16.5380994  25.6713130
  90.4260012  14.4274997  24.3019988  90.1680012  13.7374997  23.6909988
  90.4970012  13.9844997  25.1479988  90.4002856  14.2732124  24.3326885
  92.1120012  12.9934997  32.7799988  92.2520012  12.4024997  32.0399988
  92.2790012  13.8664997  32.4229988  92.1536778  13.0306426  32.6306965
  86.5850012   9.9554997  22.5519988  85.8730012  10.4904997  22.1999988
  87.2760012  10.0114997  21.8919988  86.5810132  10.0362543  22.4146289
  86.6380012   8.4134997  19.5909988  87.3390012   8.4354997  20.2419988
  86.9410012   7.7854997  18.9349988  86.7747830   8.3316566  19.5913711
  93.9540012   9.3334997  30.8459988  93.3010012  10.0284997  30.9349988
  94.4190012   9.5434997  30.0359988  93.9275390   9.4569425  30.7486883
  89.9900012  10.1654997  23.5039988  89.2580012  10.3934997  24.0769988
  90.4380012   9.4514997  23.9589988  89.9503095  10.1002571  23.6439119
  89.8880012   8.3394997  32.5709988  89.9680012   9.1024997  33.1429988
  89.2860012   8.6184997  31.8809988  89.8175756   8.4817134  32.5560589
  81.6360012  10.7954997  25.3859988  81.3050012  10.4254997  24.5679988
  82.2240012  10.1254997  25.7329988  81.6701873  10.6541156  25.3208102
  83.0020012  14.2234997  28.0679988  82.9080012  13.6454997  27.3109988
  83.7320012  13.8524997  28.5639988  83.0877981  14.0942390  28.0314165
  82.0020012   9.5644997  29.0199988  82.5680012   9.6854997  28.2569988
  82.3210012  10.2014997  29.6589988  82.1225786   9.6671884  29.0020040
  88.3110012  15.0674997  29.7539988  88.0710012  15.7294997  30.4019988
  88.1130012  14.2334997  30.1789988  88.2513808  15.0453134  29.9001524
  82.8820012  13.9634997  33.7369988  82.5710012  14.7454997  34.1919988
  82.2320012  13.8104997  33.0509988  82.7515558  14.0499105  33.7065871
  88.8610012   9.3274997  21.1889988  89.4410012   9.4774997  21.9359988
  89.2750012   9.7984997  20.4659988  88.9962830   9.4116841  21.1934134
  79.8020012  10.1614997  32.9659988  79.8730012  10.8124997  33.6639988
  78.9120012  10.2644997  32.6309988  79.6913117  10.2645936  33.0162700
  86.5880012  16.0644997  24.6239988  87.0620012  16.3594997  25.4019988
  86.0250012  16.8024997  24.3909988  86.5767653  16.2046932  24.6990136
  81.1220012  16.0354997  34.4999988  81.1290012  15.8994997  33.5529988
  80.2060012  15.9174997  34.7519988  80.9991714  16.0009430  34.4044666
  92.5600012   1.0774997  21.0019988  91.6600012   1.2164997  21.2969988
  92.8120012   1.9084997  20.5999988  92.4708702   1.2089074  20.9880205
  80.6260012   9.8654997  22.9759988  80.3340012  10.6334997  22.4849988
  79.9520012   9.2054997  22.8129988  80.4949081   9.8814406  22.8867340
  93.7490012  15.4434997  19.3779988  93.8230012  16.3824997  19.5489988
  94.6550012  15.1384997  19.3219988  93.8815100  15.5306722  19.3938119
  76.7190012  12.2284997  31.7909988  76.2180012  12.2004997  30.9759988
  76.7240012  11.3224997  32.0999988  76.6511526  12.1022278  31.7212872
  76.4690012  15.0084997  28.6749988  77.4150012  14.8644997  28.6559988
  76.3570012  15.7924997  29.2119988  76.5832727  15.0948046  28.7450072
  94.6670012  15.6744997  34.3569988  94.6180012  14.7194997  34.3199988
  93.8400012  15.9424997  34.7579988  94.5484940  15.5798998  34.4061375
  85.6460012  15.2484997  33.2329988  85.7330012  16.0744997  33.7079988
  84.7820012  14.9184997  33.4819988  85.5411964  15.3169878  33.3316549
  86.0600012  19.0204997  23.0389988  85.9850012  18.8994997  22.0929988
  86.0930012  19.9704997  23.1579988  86.0541848  19.1322500  22.9254834
  79.7130012  17.8094997  24.8199988  79.8660012  17.4614997  25.6989988
  78.8630012  17.4534997  24.5649988  79.6188962  17.7136650  24.9058340
  89.1620012  18.1744997  20.0409988  89.5370012  17.4304997  19.5709988
  89.1660012  17.9044997  20.9599988  89.2138915  18.0361486  20.1007824
  88.8310012  18.1004997  22.7909988  87.8950012  18.2004997  22.9689988
  89.1110012  17.3914997  23.3689988  88.7408255  18.0182711  22.8935391
  91.8190012   7.1674997  34.8369988  91.4120012   7.6484997  34.1159988
  91.8600012   6.2624997  34.5289988  91.7688437   7.1109374  34.6966683
  78.9680012  13.5514997  32.8339988  79.1840012  13.1904997  33.6929988
  78.1130012  13.1774997  32.6239988  78.8819292  13.4514111  32.9233386
  81.5870012   2.0214997  28.8289988  80.7250012   1.9344997  28.4219988
  81.5640012   2.8774997  29.2569988  81.4660330   2.1252765  28.8311863
  86.2500012   1.7434997  32.2039988  86.6700012   1.3284997  32.9569988
  85.3170012   1.5654997  32.3209988  86.1813644   1.6625900  32.3229539
  89.5760012   5.4994997  33.0569988  89.0620012   5.3734997  33.8549988
  89.4210012   6.4114997  32.8129988  89.4846852   5.6056132  33.1332158
  90.3390012  10.3604997  18.8189988  90.3810012  10.1374997  17.8889988
  91.1880012  10.7594997  19.0089988  90.4595396  10.3839155  18.7173627
  85.9110012   4.2364997  19.4889988  85.6580012   4.2554997  20.4119988
  85.6550012   3.3644997  19.1879988  85.8417790   4.1212437  19.5746263
  81.6780012   6.9874997  29.9239988  81.0360012   6.9464997  30.6329988
  81.7150012   7.9134997  29.6869988  81.5951324   7.1071559  29.9889824
  81.6750012   7.2084997  24.8359988  80.7820012   6.8674997  24.7779988
  82.1250012   6.8314997  24.0809988  81.6137305   7.1108484  24.7259177
  87.2100012   7.6244997  23.6529988  86.8010012   8.4394997  23.3619988
  87.9310012   7.4844997  23.0389988  87.2514537   7.7172018  23.5301342
  86.3120012   7.7994997  35.1409988  85.7500012   7.0954997  35.4619988
  87.1390012   7.6794997  35.6089988  86.3467095   7.6867883  35.2482330
  88.2150012   7.0704997  26.4669988  88.0200012   7.6754997  25.7519988
  88.3960012   6.2364997  26.0329988  88.2127614   7.0406300  26.3104405
  79.4280012   7.3074997  31.7909988  79.3900012   7.7074997  32.6599988
  78.9370012   6.4904997  31.8819988  79.3564684   7.2518069  31.9221059
  82.7940012   4.6814997  18.5899988  82.3630012   4.2364997  19.3199988
  82.0760012   5.0534997  18.0779988  82.6379438   4.6708940  18.6206799
  76.0360012   4.4234997  25.6419988  76.6670012   4.3944997  26.3609988
  76.4850012   3.9984997  24.9119988  76.1830774   4.3620492  25.6416553
  77.3100012   5.1694997  21.0659988  77.7840012   5.7604997  20.4809988
  76.5930012   5.7004997  21.4129988  77.2779341   5.3220867  21.0328836
  87.4790012   8.7084997  31.1389988  87.8020012   8.0774997  30.4959988
  87.0390012   8.1734997  31.7989988  87.4636895   8.5498441  31.1402850
  84.2560012   4.6354997  25.9229988  83.3450012   4.6924997  26.2109988
  84.7620012   4.5754997  26.7329988  84.1995413   4.6351985  26.0720622
  79.0850012   6.2644997  24.7489988  78.1950012   6.3644997  24.4089988
  79.3810012   5.4224997  24.4029988  79.0032823   6.1643545  24.6557213
  82.7380012   6.2644997  22.4059988  83.6690012   6.3934997  22.5839988
  82.5230012   6.9344997  21.7559988  82.8364247   6.3726565  22.3425747
  88.6610012   3.8704997  29.1869988  87.9850012   4.0014997  29.8509988
  88.1760012   3.7154997  28.3769988  88.5027145   3.8674905  29.1684517
  81.4120012   7.4594997  19.9729988  80.8690012   7.0794997  19.2809988
  82.2450012   7.6534997  19.5439988  81.4504399   7.4338124  19.8204526
  91.9490012  19.5424997  35.4639988  92.1490012  19.9664997  34.6289988
  92.6040012  19.8854997  36.0709988  92.0650051  19.6469648  35.4317836
  79.5470012  12.0164997  35.0719988  80.2790012  12.2704997  35.6329988
  78.7670012  12.2204997  35.5869988  79.5418232  12.0789177  35.2185760
  85.5760012   7.4234997  27.8099988  86.1410012   6.8764997  27.2629988
  85.4290012   6.9014997  28.5979988  85.6332918   7.2782024  27.8418454
  80.5780012   3.5594997  24.2279988  80.2610012   2.6574997  24.1929988
  81.3600012   3.5614997  23.6749988  80.6402284   3.4361628  24.1484783
  84.2030012   5.8114997  30.2239988  83.3670012   6.2654997  30.3339988
  84.7270012   6.0874997  30.9759988  84.1594414   5.9109376  30.3407136
  84.7470012  12.0244997  21.9079988  84.0020012  11.5174997  21.5859988
  84.6130012  12.0734997  22.8549988  84.6268776  11.9616940  21.9918647
  91.8970012  11.1574997  30.6949988  92.5390012  11.6144997  30.1509988
  91.0670012  11.2704997  30.2319988  91.8725963  11.2352704  30.5580177
  88.6450012   4.8384997  20.1079988  87.7060012   4.9504997  19.9559988
  88.9420012   5.6954997  20.4139988  88.5567666   4.9696443  20.1285768
  86.2660012  12.2084997  33.1449988  85.9210012  11.8274997  33.9519988
  86.0660012  13.1424997  33.2169988  86.1918061  12.2825228  33.2650961
  89.3630012   6.7054997  21.7679988  90.2550012   6.5684997  22.0869988
  89.4200012   7.4964997  21.2319988  89.4926285   6.7936660  21.7391691
  79.8720012  11.3194997  27.6779988  80.6170012  11.3174997  27.0769988
  79.9500012  10.4964997  28.1599988  79.9845518  11.2079315  27.6608929
  86.8730012  13.4834997  20.9339988  86.5770012  14.3094997  21.3149988
  86.1700012  12.8634997  21.1299988  86.7374914  13.5128199  21.0126443
  76.8800012   9.7804997  32.9929988  77.1030012   9.3624997  33.8249988
  76.2780012   9.1674997  32.5699988  76.8291759   9.6404668  33.0497022
  83.8960012   9.2974997  35.2059988  83.6000012   9.1314997  34.3109988
  84.8280012   9.0774997  35.1949988  83.9814166   9.2450640  35.0820536
  88.5170012  14.6704997  33.0959988  87.6160012  14.8534997  32.8279988
  88.5510012  14.9294997  34.0169988  88.3983041  14.7305512  33.1838197
  94.2480012   6.9154997  21.4629988  93.6940012   6.5194997  20.7909988
  94.3480012   7.8254997  21.1849988  94.1857059   6.9843586  21.3334401
  94.2110012  12.7154997  34.2999988  93.3600012  12.9534997  33.9329988
  94.8020012  12.6984997  33.5469988  94.1742487  12.7458258  34.1478893
  92.5430012  15.7014997  21.9279988  92.1700012  14.8754997  22.2369988
  92.8210012  15.5184997  21.0309988  92.5295630  15.5637303  21.8489626
  89.7040012  10.5094997  28.9489988  88.7750012  10.2774997  28.9219988
  90.1550012   9.7324997  28.6189988  89.6379216  10.3727238  28.9006917
  82.2470012  14.8374997  25.0819988  82.7740012  15.6104997  24.8819988
  81.3670012  15.0624997  24.7809988  82.2001773  14.9738005  25.0139010
  78.0020012   9.6994997  19.6689988  78.6180012  10.3264997  20.0489988
  77.1400012  10.0154997  19.9409988  77.9697698   9.8279430  19.7577183
  83.6740012  12.5004997  24.6589988  83.4330012  13.4254997  24.6999988
  82.9330012  12.0414997  25.0549988  83.5408409  12.5651421  24.7181377
  84.1890012  16.6494997  30.9739988  84.5510012  17.5044997  30.7399988
  84.7200012  16.3574997  31.7139988  84.3104473  16.7271060  31.0420855
  82.3570012  17.5224997  24.2039988  81.4070012  17.6274997  24.2549988
  82.7090012  18.3424997  24.5489988  82.2744203  17.6478314  24.2576650
  87.7330012  12.7484997  30.6739988  87.3070012  12.5214997  31.5009988
  88.3130012  12.0104997  30.4919988  87.7531868  12.6175299  30.7625830
  89.9360012  13.6774997  19.7479988  90.2890012  13.2974997  20.5529988
  88.9870012  13.5844997  19.8349988  89.8560441  13.6129596  19.8698559
  90.3910012  17.3004997  33.1439988  89.7900012  16.7454997  32.6479988
  90.6730012  17.9674997  32.5179988  90.3468519  17.3146841  32.9914952
  94.4390012  18.1574997  19.9489988  95.1830012  18.7434997  19.8089988
  93.7450012  18.7254997  20.2829988  94.4470292  18.3145582  19.9749961
  78.5140012   4.5334997  32.5509988  77.6210012   4.8724997  32.4829988
  78.4150012   3.6784997  32.9689988  78.3784164   4.4642588  32.5982235
  90.8020012  12.3504997  21.9749988  90.5240012  11.6224997  22.5309988
  91.7290012  12.4694997  22.1799988  90.8893124  12.2668802  22.0788845
  78.1650012  16.3384997  30.9859988  78.3820012  15.4064997  30.9549988
  78.4110012  16.6124997  31.8689988  78.2279549  16.2480636  31.1011763
  84.0270012  14.7894997  18.1949988  84.2660012  14.0414997  17.6479988
  83.7580012  14.4014997  19.0279988  84.0233675  14.6346638  18.2326865
  82.9640012  14.3594997  20.6519988  83.1100012  13.8394997  21.4419988
  82.9610012  15.2664997  20.9579988  82.9835989  14.4108853  20.8016088
  79.4170012  11.6124997  21.1619988  78.7310012  11.9644997  21.7289988
  79.9390012  12.3754997  20.9149988  79.3936852  11.7638578  21.2062118
  87.2480012   4.2744997  31.4409988  87.9470012   4.3484997  32.0909988
  86.8670012   3.4104997  31.5949988  87.2921767   4.1677624  31.5508322
  88.0330012   3.9264997  22.5379988  88.2530012   4.3984997  21.7349988
  88.5910012   4.3214997  23.2079988  88.1384968   4.0444285  22.5187331
  85.7010012  16.0574997  21.4009988  84.8850012  16.5544997  21.4529988
  86.2310012  16.5324997  20.7609988  85.6609161  16.1897722  21.3215956
  85.2330012   5.6544997  23.3729988  86.0450012   6.1594997  23.4189988
  84.9880012   5.5094997  24.2869988  85.3110520   5.7040375  23.5028517
  85.7680012   6.6404997  32.5579988  85.8870012   7.2144997  33.3149988
  86.4240012   5.9524997  32.6719988  85.8729757   6.6261079  32.6770825
  86.1160012   2.7354997  24.3109988  85.7700012   3.3534997  24.9559988
  86.7750012   3.2364997  23.8299988  86.1577826   2.8875802  24.3340971
  83.0400012  17.1014997  21.3829988  83.2000012  17.9004997  20.8819988
  82.8420012  17.4074997  22.2679988  83.0351649  17.2524469  21.4339815
  81.7740012   3.7984997  20.9979988  81.6910012   4.6874997  21.3449988
  82.6640012   3.5334997  21.2299988  81.8829469   3.8841430  21.0767626
  91.9730012   4.5474997  33.3929988  91.0560012   4.8104997  33.3049988
  92.3080012   4.5444997  32.4959988  91.8929900   4.5830224  33.2597919
  90.5750012   8.2984997  27.4879988  89.7770012   7.8834997  27.1599988
  91.0200012   7.6074997  27.9789988  90.5259885   8.1483543  27.5094889
  80.0330012  14.2264997  20.0589988  80.6250012  14.9254997  20.3349988
  80.4920012  13.7934997  19.3389988  80.1761142  14.2637049  19.9994830
  78.3490012   6.8904997  19.1749988  78.3040012   7.8294997  19.3529988
  77.4610012   6.6544997  18.9049988  78.2228574   6.9871892  19.1628912
  91.6610012  17.5544997  29.1109988  91.5060012  18.2324997  28.4539988
  92.5940012  17.6264997  29.3139988  91.7658500  17.6570170  29.0485119
  79.1570012   1.6724997  27.8479988  78.9280012   1.7314997  26.9199988
  78.7140012   0.8804997  28.1539988  79.0658530   1.5735753  27.7624786
  78.0870012  15.6124997  24.0079988  77.2550012  16.0854997  24.0359988
  78.6330012  16.1224997  23.4099988  78.0469739  15.7461871  23.9309716
  77.3750012  18.2254997  35.3379988  77.9160012  18.0084997  36.0979988
  76.8940012  17.4194997  35.1489988  77.3839345  18.0869514  35.4163076
  81.9730012  17.1444997  36.9589988  82.7400012  16.6854997  37.2999988
  81.9510012  16.9184997  36.0289988  82.0751434  17.0510409  36.8800043
  86.0650012  16.6524997  18.3339988  85.4210012  16.0214997  18.6549988
  86.8270012  16.1214997  18.1019988  86.0798077  16.4942920  18.3466011
  88.5500012  15.5244997  35.6879988  88.1990012  14.6684997  35.9309988
  89.2760012  15.6674997  36.2949988  88.6000769  15.4265636  35.8033619
  90.6690012  16.4694997  18.5679988  90.9520012  15.6754997  19.0199988
  91.4090012  16.7024997  18.0069988  90.8077486  16.3922803  18.5540698
  77.2820012  12.0354997  36.2929988  77.4260012  11.1334997  36.0059988
  76.5100012  12.3214997  35.8049988  77.1973322  11.9508261  36.1877881
  81.6240012  12.3794997  18.4249988  81.6880012  11.5854997  18.9559988
  82.2770012  12.2604997  17.7349988  81.7210241  12.2547148  18.4044317
  83.9380012  12.0054997  35.7249988  83.6090012  12.2764997  34.8679988
  84.0900012  11.0644997  35.6379988  83.9134809  11.9153862  35.5958244
  86.9760012  13.4264997  18.1609988  86.7070012  13.6064997  19.0619988
  86.7700012  12.5004997  18.0299988  86.9113825  13.3260152  18.2665214
  89.6720012  11.9214997  33.1089988  90.4180012  12.5094997  32.9889988
  88.9150012  12.5034997  33.1719988  89.6717554  12.0807011  33.1010907
  78.1150012   9.2354997  35.7129988  78.5230012   8.3784997  35.5919988
  77.8550012   9.2504997  36.6339988  78.1357568   9.1200807  35.8209588
  82.7730012  10.3514997  20.7309988  82.3130012   9.8674997  21.4169988
  83.0280012   9.6834997  20.0949988  82.7444902  10.1948731  20.7389334
  82.0620012   8.2444997  33.0869988  81.4440012   8.9194997  33.3669988
  82.4060012   8.5654997  32.2539988  82.0239615   8.3802721  33.0126581
  83.8440012   8.5944997  18.9929988  83.6640012   8.4404997  18.0659988
  84.7940012   8.7024997  19.0379988  83.9477776   8.5880175  18.8721843
  87.0820012  10.7164997  36.3639988  88.0350012  10.7994997  36.3369988
  86.9210012  10.0044997  36.9839988  87.1906426  10.6316746  36.4440579
  93.2340012  10.9494997  18.4389988  92.9600012  10.5244997  17.6259988
  93.2730012  11.8804997  18.2219988  93.2017699  11.0172484  18.2983610
  82.4010012   5.5994997  34.1689988  82.5510012   4.8704997  33.5669988
  82.4040012   6.3764997  33.6099988  82.4219302   5.6047851  34.0110692
  82.8140012   3.9694997  31.6619988  83.3500012   4.4204997  31.0099988
  81.9620012   3.8614997  31.2389988  82.7722178   4.0166390  31.5155756
  84.3960012   9.4084997  31.9009988  85.1460012   9.2524997  31.3279988
  84.0570012  10.2604997  31.6259988  84.4528921   9.5022968  31.7853561
  88.8110012   7.2234997  36.9299988  89.0040012   6.2924997  36.8179988
  89.6690012   7.6484997  36.9199988  88.9533020   7.1536389  36.9133361
  90.1280012  10.0124997  35.0069988  89.8470012  10.7214997  34.4299988
  91.0710012   9.9394997  34.8559988  90.2169027  10.0997646  34.9075551
  80.8800012   6.7974997  36.0809988  80.1130012   6.2654997  35.8709988
  81.5590012   6.4874997  35.4809988  80.8667022   6.6827506  35.9711648
  83.6200012   1.4254997  32.0929988  83.5210012   2.3724997  31.9879988
  82.8770012   1.0534997  31.6179988  83.5060564   1.5045902  32.0144560
  84.8840012   5.7474997  35.6569988  84.6480012   5.5274997  36.5589988
  84.1000012   5.5404997  35.1469988  84.7458628   5.6894760  35.7113932
  87.5990012   4.8744997  34.7329988  86.6520012   4.9064997  34.8649988
  87.9120012   4.2494997  35.3859988  87.5115475   4.7943207  34.8394455
  89.2330012   3.5084997  36.7379988  89.1370012   2.5564997  36.7319988
  88.9120012   3.7774997  37.5979988  89.1764070   3.4144035  36.8535441
  79.0600012   4.7184997  35.7849988  79.2720012   4.0114997  35.1749988
  78.9490012   4.2804997  36.6289988  79.0739721   4.5627084  35.8156843
  83.8410012   0.7194997  34.7649988  84.5530012   0.0794997  34.7509988
  83.7400012   0.9864997  33.8509988  83.9247939   0.6679938  34.6395650
  84.1950012   2.4024997  36.8179988  84.0630012   1.9264997  35.9979988
  83.5960012   3.1464997  36.7629988  84.0959071   2.4379618  36.6982886
  83.7410012  19.2854997  19.9949988  84.6740012  19.4434997  20.1379988
  83.4770012  19.9604997  19.3699988  83.8329510  19.3983611  19.9300741
  77.3100012  13.9214997  19.4769988  78.2240012  14.0004997  19.7509988
  77.3170012  13.2344997  18.8109988  77.4361131  13.8393961  19.4244393
  75.9590012  19.3144997  24.5549988  75.3120012  18.8524997  24.0219988
  76.3130012  18.6424997  25.1369988  75.9183849  19.1604723  24.5607959
  76.8290012  17.3954997  26.3589988  76.4940012  16.5154997  26.5309988
  77.0510012  17.7404997  27.2239988  76.8131783  17.3217500  26.4994208
  94.3770012  18.2044997  29.3399988  94.3560012  18.3894997  30.2789988
  95.0680012  18.7734997  28.9989988  94.4674618  18.3066606  29.4223864
  93.9410012  17.7724997  32.2619988  93.4530012  17.0364997  31.8909988
  94.4900012  17.3784997  32.9399988  93.9484872  17.6186249  32.3029160
  92.3910012  13.5614997  36.8999988  91.5250012  13.4564997  37.2939988
  92.7680012  14.3204997  37.3459988  92.3233308  13.6496900  37.0142393
  93.6920012  11.8184997  22.4139988  94.5420012  12.2394997  22.5409988
  93.6980012  11.0784997  23.0209988  93.8091372  11.7760803  22.5134344
  94.0870012   9.8714997  24.2379988  93.3600012   9.3924997  24.6349988
  94.6680012  10.0774997  24.9699988  94.0659375   9.8337090  24.3914129
  93.8460012  12.6564997  29.1849988  94.6790012  12.2784997  28.9049988
  93.9580012  13.5994997  29.0659988  93.9752647  12.7322218  29.1305487
  92.3320012  15.5344997  31.4919988  91.6850012  15.8594997  32.1179988
  91.8150012  15.0944997  30.8179988  92.1734029  15.5195004  31.4865827
  94.3550012   9.7724997  20.6289988  93.8330012  10.1294997  19.9099988
  94.3220012  10.4474997  21.3069988  94.2791634   9.9125413  20.6223145
  92.7040012   7.0124997  19.1799988  92.8000012   7.6794997  18.4989988
  92.5640012   6.1964997  18.6979988  92.6982135   6.9934500  19.0218491
  91.8730012   8.3924997  24.8009988  91.7230012   7.4474997  24.7799988
  91.5200012   8.6734997  25.6439988  91.8046625   8.3010441  24.9122346
  76.9090012  10.4704997  28.8109988  77.0930012  10.3884997  27.8749988
  77.7580012  10.3464997  29.2349988  77.0490139  10.4425003  28.7401455
  92.7300012  10.3624997  34.4389988  93.3130012   9.6284997  34.6309988
  93.2940012  11.1344997  34.4859988  92.8859769  10.3664227  34.4716159
  94.2260012   8.2654997  35.1239988  93.3630012   7.8864997  34.9579988
  94.8310012   7.5264997  35.0499988  94.1895979   8.1138023  35.0912817
  91.9510012   4.4204997  18.2969988  92.5620012   4.0494997  18.9339988
  91.1150012   3.9994997  18.4929988  91.9215032   4.3127554  18.4107035
  91.5840012   5.9754997  23.2629988  91.8640012   5.0684997  23.3869988
  92.3430012   6.4094997  22.8739988  91.7249277   5.9100942  23.2273682
  92.1960012   6.5564997  28.6989988  93.1290012   6.7684997  28.6649988
  91.9610012   6.6584997  29.6209988  92.2918036   6.5992769  28.8189976
  92.2250012   7.2934997  31.4749988  91.3820012   7.5614997  31.8409988
  92.6670012   8.1154997  31.2639988  92.1694158   7.4413291  31.4965491
  76.5060012   5.7414997  34.9519988  77.4260012   5.6194997  35.1879988
  76.0570012   4.9914997  35.3409988  76.5711580   5.6233727  35.0369006
  94.5080012   1.2734997  36.8279988  94.8580012   0.6194997  36.2229988
  94.6550012   2.1104997  36.3889988  94.5758419   1.2971591  36.6857118
  92.1970012   3.2384997  23.3109988  92.3800012   2.7894997  24.1369988
  91.5980012   2.6534997  22.8479988  92.1410202   3.0979975  23.3613275
  77.7270012   4.0534997  27.8429988  78.1730012   3.2614997  28.1449988
  78.1940012   4.7694997  28.2739988  77.8510172   4.0420624  27.9424820
  76.0310012   7.0524997  28.9119988  76.5230012   6.8314997  28.1209988
  76.3940012   7.8934997  29.1929988  76.1473126   7.1358357  28.8417531
  94.0280012   3.3824997  35.1779988  93.1100012   3.6534997  35.1419988
  94.1510012   2.8474997  34.3929988  93.9191066   3.3472892  35.0670487
  94.0640012   3.3054997  19.8389988  94.4760012   2.5844997  19.3639988
  94.7460012   3.9754997  19.8979988  94.2125885   3.2972368  19.7818915
  76.3450012   3.3104997  22.9659988  75.4200012   3.5194997  22.8369988
  76.7990012   3.7944997  22.2769988  76.2797368   3.4045993  22.8551226
  91.1160012  18.2944997  24.9119988  91.7680012  17.9474997  24.3039988
  91.6260012  18.7834997  25.5579988  91.2742637  18.3130597  24.9160236
  76.3090012   2.0484997  31.3109988  75.6440012   1.8024997  31.9539988
  75.8660012   2.6704997  30.7329988  76.1580956   2.0988632  31.3209352
  78.5010012  15.2234997  35.4549988  77.6800012  15.3984997  34.9949988
  78.2480012  15.1504997  36.3759988  78.3546164  15.2375622  35.5164923
  81.4550012  16.1984997  31.7139988  81.0300012  17.0074997  31.4309988
  82.3590012  16.2834997  31.4119988  81.5190271  16.3208469  31.6343776
  85.7660012  17.5974997  34.6729988  85.9510012  17.2634997  35.5509988
  86.6120012  17.9064997  34.3509988  85.9057539  17.5936047  34.7495605
  88.1110012  18.8834997  33.9169988  88.7880012  18.2504997  33.6769988
  88.4330012  19.2844997  34.7239988  88.2471637  18.8511154  33.9932793
  93.0280012   1.4724997  32.9969988  92.2160012   1.7974997  32.6089988
  93.2610012   0.7124997  32.4639988  92.9483423   1.4142436  32.8718253
  78.8570012  19.4544997  31.7609988  78.1360012  19.8944997  31.3099988
  78.4910012  19.2034997  32.6099988  78.7089804  19.4807698  31.8139840
  81.3240012  19.0544997  30.7909988  80.4590012  19.1264997  31.1949988
  81.2690012  19.6014997  30.0069988  81.1982085  19.1382685  30.7403362
  86.0340012  18.9424997  29.9659988  85.5780012  19.4714997  29.3119988
  86.1970012  19.5454997  30.6919988  85.9935585  19.0964468  29.9745062
  88.3620012  17.8204997  30.9109988  87.4570012  17.9854997  30.6459988
  88.7910012  18.6734997  30.8459988  88.2960799  17.9584483  30.8659182
  90.9660012  19.3904997  31.2059988  90.7840012  20.3064997  30.9959988
  91.1430012  18.9804997  30.3599988  90.9650210  19.4604822  31.0627885
  78.2710012  18.0774997  28.6709988  78.2530012  17.6524997  29.5289988
  79.0760012  17.7594997  28.2629988  78.3773875  17.9763812  28.7331655
  80.4130012  16.7874997  27.3259988  80.1940012  15.8714997  27.4959988
  81.2370012  16.9274997  27.7919988  80.4944420  16.6810520  27.4122774
  82.9500012  17.2574997  28.1749988  83.1630012  16.3694997  27.8879988
  83.0140012  17.2234997  29.1289988  82.9878232  17.1313102  28.2647397
  86.4580012   2.9214997  27.3189988  85.7840012   2.2924997  27.5749988
  87.0220012   2.4374997  26.7159988  86.4419230   2.7698744  27.2725340
  91.6010012   1.0294997  27.4319988  92.2050012   1.5764997  26.9299988
  90.7310012   1.3484997  27.1919988  91.5661241   1.1475806  27.3307654
  93.3280012   2.1674997  25.7649988  93.9400012   1.6534997  25.2389988
  93.7100012   3.0454997  25.7889988  93.4634540   2.2157140  25.6961830
  78.7850012   1.5554997  25.1409988  78.0080012   1.3214997  24.6339988
  79.3150012   0.7584997  25.1499988  78.7502330   1.4156988  25.0727742
  77.6210012   1.3534997  20.9449988  78.0600012   1.9644997  20.3529988
  76.9880012   1.8914997  21.4189988  77.5954514   1.5099257  20.9280930
  83.3640012   1.4824997  24.9549988  84.2390012   1.8704997  24.9249988
  83.2280012   1.2674997  25.8769988  83.4653695   1.5065184  25.0756440
  88.9210012   1.5124997  26.6039988  88.9970012   1.6074997  25.6539988
  88.6460012   0.6044997  26.7329988  88.8942321   1.4027867  26.4915079
  90.2740012   1.5384997  22.2959988  89.5720012   2.1534997  22.0869988
  89.8300012   0.7004997  22.4269988  90.1176330   1.5095783  22.2850328
  77.5220012  17.3014997  21.8429988  76.8370012  17.2634997  21.1749988
  77.5260012  18.2144997  22.1309988  77.4288193  17.4197016  21.7905284
  79.4820012   3.2694997  19.3869988  79.9740012   2.6394997  18.8599988
  80.1060012   3.5654997  20.0509988  79.6335446   3.2233199  19.4045980
  84.5080012   3.5624997  21.8439988  84.6860012   2.9164997  22.5269988
  84.4550012   4.3964997  22.3119988  84.5251829   3.5867985  22.0005940
  86.3870012  18.5114997  20.2399988  87.2530012  18.8774997  20.0619988
  86.1400012  18.0714997  19.4259988  86.4722392  18.5021756  20.1056289
  93.0960012  18.0744997  22.9189988  92.9010012  17.3264997  22.3539988
  93.0570012  18.8324997  22.3359988  93.0640380  18.0746099  22.7628384
  78.7430012   2.0694997  34.6589988  78.3770012   1.3044997  35.1019988
  79.6560012   2.0984997  34.9459988  78.8162790   1.9687224  34.7584070
  80.7160012   1.4204997  36.1949988  81.6140012   1.1464997  36.0099988
  80.3290012   0.6774997  36.6589988  80.7866612   1.2825914  36.2323643
  79.3400012  18.2214997  18.8679988  79.0730012  18.5084997  19.7409988
  80.1120012  17.6754997  19.0199988  79.4077488  18.1870294  19.0081050
  89.1370012   0.7524997  36.3769988  89.2140012   0.3264997  37.2309988
  90.0310012   0.7664997  36.0339988  89.2683428   0.6960879  36.4475310
  92.3130012  16.8254997  35.0689988  91.5310012  16.6394997  34.5499988
  92.2410012  17.7544997  35.2869988  92.1961777  16.9256492  35.0274048
 106.7190012  10.7114997  25.0999988 106.8080012  11.6554997  24.9679988
 106.0810012  10.4364997  24.4419988 106.6449081  10.8034830  24.9929614
 105.6520012   9.9664997  28.5189988 105.6140012   9.3204997  29.2239988
 105.3300012   9.5004997  27.7479988 105.6032333   9.8149408  28.5112978
  98.0210012   9.5814997  30.1119988  98.0620012   8.9554997  30.8349988
  98.7240012  10.2054997  30.2939988  98.1216363   9.5801196  30.2356044
 109.3580012  12.9054997  26.8199988 108.9180012  12.1854997  27.2709988
 109.3450012  13.6264997  27.4499988 109.2960226  12.9043731  26.9668494
  98.9440012  14.0314997  28.6469988  98.5750012  13.2294997  28.2769988
  99.8850012  13.8624997  28.6929988  99.0207289  13.8990153  28.6026316
  95.5540012   7.6914997  24.0399988  95.1070012   8.5374997  24.0209988
  94.9930012   7.1114997  23.5239988  95.4169900   7.7289916  23.9676801
  96.2650012   9.8534997  26.1659988  96.4780012   9.0834997  26.6929988
  97.0030012   9.9424997  25.5619988  96.3938496   9.7601394  26.1565300
 106.4700012  18.0104997  27.0329988 107.0900012  17.3334997  26.7589988
 106.2620012  17.7924997  27.9409988 106.5266904  17.8883870  27.1183365
 104.0420012  12.3994997  28.9249988 104.3460012  11.7134997  28.3299988
 104.7630012  12.5174997  29.5429988 104.1810671  12.3216305  28.9271816
 112.7050012   4.0004997  29.7859988 112.7540012   4.6104997  30.5219988
 113.1300012   4.4614997  29.0629988 112.7691824   4.1463741  29.7890205
 107.1830012   6.7934997  29.2529988 107.3250012   5.8474997  29.2729988
 107.0760012   7.0004997  28.3239988 107.1879864   6.6919534  29.1302339
 100.3370012   4.8944997  26.5249988 100.3810012   5.7544997  26.1069988
  99.8800012   4.3424997  25.8909988 100.2812185   4.9375799  26.3820299
 108.0600012   5.0254997  24.9259988 108.7060012   4.6964997  25.5509988
 108.5700012   5.5434997  24.3029988 108.2174264   5.0504611  24.9273862
  96.9580012   7.2914997  27.2869988  97.6110012   6.7414997  27.7189988
  96.9820012   7.0174997  26.3699988  97.0506683   7.1791466  27.2222123
 102.1140012   8.8414997  26.5019988 102.7300012   8.3154997  27.0119988
 101.5280012   8.2014997  26.0989988 102.1190810   8.6829208  26.5173173
 113.0960012   5.4784997  32.0219988 112.4080012   6.1364997  31.9259988
 113.1120012   5.2814997  32.9579988 113.0038525   5.5420462  32.1354808
  99.1480012   3.8124997  30.5989988  98.9290012   4.3424997  29.8329988
  98.4800012   4.0394997  31.2459988  99.0277600   3.9156906  30.5816379
 106.5170012  13.3124997  24.1429988 106.2210012  12.9904997  23.2919988
 106.1920012  14.2124997  24.1839988 106.4326371  13.3900215  24.0321801
 101.7170012  11.4884997  30.8859988 100.9770012  12.0864997  30.9899988
 102.4310012  12.0424997  30.5709988 101.7122237  11.6452831  30.8576465
 109.8240012   4.3164997  26.9059988 109.6080012   3.5504997  27.4389988
 110.4790012   4.7884997  27.4189988 109.8830632   4.2755889  27.0482861
  98.7410012   5.7044997  28.5509988  99.3550012   6.3374997  28.9249988
  99.2530012   5.2324997  27.8949988  98.8942296   5.7272370  28.5134252
 100.1240012  13.4524997  31.6739988 100.1190012  14.3324997  31.2959988
  99.2710012  13.3694997  32.0989988 100.0079464  13.5616117  31.6797907
  96.2450012  13.1234997  22.4559988  95.9730012  13.3524997  21.5669988
  96.2910012  13.9614997  22.9159988  96.2140094  13.2681213  22.3965697
 109.8700012  14.7454997  29.1679988 108.9290012  14.8034997  29.3299988
 110.1470012  15.6514997  29.0309988 109.7784679  14.8759443  29.1716815
 110.1710012   3.0314997  30.5859988 109.4350012   3.6424997  30.5479988
 110.8540012   3.4464997  30.0589988 110.1626541   3.1711374  30.5095832
 103.1740012   1.1184997  28.0519988 103.0570012   0.1694997  27.9969988
 102.3190012   1.4504997  28.3249988 103.0423733   1.0335409  28.0813897
 108.1220012  16.5264997  25.7939988 108.5480012  15.8194997  25.3089988
 108.4390012  17.3274997  25.3769988 108.2231019  16.5380994  25.6713130
 109.2820012  14.4274997  24.3019988 109.0240012  13.7374997  23.6909988
 109.3530012  13.9844997  25.1479988 109.2562856  14.2732124  24.3326885
 110.9680012  12.9934997  32.7799988 111.1080012  12.4024997  32.0399988
 111.1350012  13.8664997  32.4229988 111.0096778  13.0306426  32.6306965
 105.4410012   9.9554997  22.5519988 104.7290012  10.4904997  22.1999988
 106.1320012  10.0114997  21.8919988 105.4370132  10.0362543  22.4146289
 105.4940012   8.4134997  19.5909988 106.1950012   8.4354997  20.2419988
 105.7970012   7.7854997  18.9349988 105.6307830   8.3316566  19.5913711
 112.8100012   9.3334997  30.8459988 112.1570012  10.0284997  30.9349988
 113.2750012   9.5434997  30.0359988 112.7835390   9.4569425  30.7486883
 108.8460012  10.1654997  23.5039988 108.1140012  10.3934997  24.0769988
 109.2940012   9.4514997  23.9589988 108.8063095  10.1002571  23.6439119
 108.7440012   8.3394997  32.5709988 108.8240012   9.1024997  33.1429988
 108.1420012   8.6184997  31.8809988 108.6735756   8.4817134  32.5560589
 100.4920012  10.7954997  25.3859988 100.1610012  10.4254997  24.5679988
 101.0800012  10.1254997  25.7329988 100.5261873  10.6541156  25.3208102
 101.8580012  14.2234997  28.0679988 101.7640012  13.6454997  27.3109988
 102.5880012  13.8524997  28.5639988 101.9437981  14.0942390  28.0314165
 100.8580012   9.5644997  29.0199988 101.4240012   9.6854997  28.2569988
 101.1770012  10.2014997  29.6589988 100.9785786   9.6671884  29.0020040
 107.1670012  15.0674997  29.7539988 106.9270012  15.7294997  30.4019988
 106.9690012  14.2334997  30.1789988 107.1073808  15.0453134  29.9001524
 101.7380012  13.9634997  33.7369988 101.4270012  14.7454997  34.1919988
 101.0880012  13.8104997  33.0509988 101.6075558  14.0499105  33.7065871
 107.7170012   9.3274997  21.1889988 108.2970012   9.4774997  21.9359988
 108.1310012   9.7984997  20.4659988 107.8522830   9.4116841  21.1934134
  98.6580012  10.1614997  32.9659988  98.7290012  10.8124997  33.6639988
  97.7680012  10.2644997  32.6309988  98.5473117  10.2645936  33.0162700
 105.4440012  16.0644997  24.6239988 105.9180012  16.3594997  25.4019988
 104.8810012  16.8024997  24.3909988 105.4327653  16.2046932  24.6990136
  99.9780012  16.0354997  34.4999988  99.9850012  15.8994997  33.5529988
  99.0620012  15.9174997  34.7519988  99.8551714  16.0009430  34.4044666
 111.4160012   1.0774997  21.0019988 110.5160012   1.2164997  21.2969988
 111.6680012   1.9084997  20.5999988 111.3268702   1.2089074  20.9880205
  99.4820012   9.8654997  22.9759988  99.1900012  10.6334997  22.4849988
  98.8080012   9.2054997  22.8129988  99.3509081   9.8814406  22.8867340
 112.6050012  15.4434997  19.3779988 112.6790012  16.3824997  19.5489988
 113.5110012  15.1384997  19.3219988 112.7375100  15.5306722  19.3938119
  95.5750012  12.2284997  31.7909988  95.0740012  12.2004997  30.9759988
  95.5800012  11.3224997  32.0999988  95.5071526  12.1022278  31.7212872
  95.3250012  15.0084997  28.6749988  96.2710012  14.8644997  28.6559988
  95.2130012  15.7924997  29.2119988  95.4392727  15.0948046  28.7450072
 113.5230012  15.6744997  34.3569988 113.4740012  14.7194997  34.3199988
 112.6960012  15.9424997  34.7579988 113.4044940  15.5798998  34.4061375
 104.5020012  15.2484997  33.2329988 104.5890012  16.0744997  33.7079988
 103.6380012  14.9184997  33.4819988 104.3971964  15.3169878  33.3316549
 104.9160012  19.0204997  23.0389988 104.8410012  18.8994997  22.0929988
 104.9490012  19.9704997  23.1579988 104.9101848  19.1322500  22.9254834
  98.5690012  17.8094997  24.8199988  98.7220012  17.4614997  25.6989988
  97.7190012  17.4534997  24.5649988  98.4748962  17.7136650  24.9058340
 108.0180012  18.1744997  20.0409988 108.3930012  17.4304997  19.5709988
 108.0220012  17.9044997  20.9599988 108.0698915  18.0361486  20.1007824
 107.6870012  18.1004997  22.7909988 106.7510012  18.2004997  22.9689988
 107.9670012  17.3914997  23.3689988 107.5968255  18.0182711  22.8935391
 110.6750012   7.1674997  34.8369988 110.2680012   7.6484997  34.1159988
 110.7160012   6.2624997  34.5289988 110.6248437   7.1109374  34.6966683
  97.8240012  13.5514997  32.8339988  98.0400012  13.1904997  33.6929988
  96.9690012  13.1774997  32.6239988  97.7379292  13.4514111  32.9233386
 100.4430012   2.0214997  28.8289988  99.5810012   1.9344997  28.4219988
 100.4200012   2.8774997  29.2569988 100.3220330   2.1252765  28.8311863
 105.1060012   1.7434997  32.2039988 105.5260012   1.3284997  32.9569988
 104.1730012   1.5654997  32.3209988 105.0373644   1.6625900  32.3229539
 108.4320012   5.4994997  33.0569988 107.9180012   5.3734997  33.8549988
 108.2770012   6.4114997  32.8129988 108.3406852   5.6056132  33.1332158
 109.1950012  10.3604997  18.8189988 109.2370012  10.1374997  17.8889988
 110.0440012  10.7594997  19.0089988 109.3155396  10.3839155  18.7173627
 104.7670012   4.2364997  19.4889988 104.5140012   4.2554997  20.4119988
 104.5110012   3.3644997  19.1879988 104.6977790   4.1212437  19.5746263
 100.5340012   6.9874997  29.9239988  99.8920012   6.9464997  30.6329988
 100.5710012   7.9134997  29.6869988 100.4511324   7.1071559  29.9889824
 100.5310012   7.2084997  24.8359988  99.6380012   6.8674997  24.7779988
 100.9810012   6.8314997  24.0809988 100.4697305   7.1108484  24.7259177
 106.0660012   7.6244997  23.6529988 105.6570012   8.4394997  23.3619988
 106.7870012   7.4844997  23.0389988 106.1074537   7.7172018  23.5301342
 105.1680012   7.7994997  35.1409988 104.6060012   7.0954997  35.4619988
 105.9950012   7.6794997  35.6089988 105.2027095   7.6867883  35.2482330
 107.0710012   7.0704997  26.4669988 106.8760012   7.6754997  25.7519988
 107.2520012   6.2364997  26.0329988 107.0687614   7.0406300  26.3104405
  98.2840012   7.3074997  31.7909988  98.2460012   7.7074997  32.6599988
  97.7930012   6.4904997  31.8819988  98.2124684   7.2518069  31.9221059
 101.6500012   4.6814997  18.5899988 101.2190012   4.2364997  19.3199988
 100.9320012   5.0534997  18.0779988 101.4939438   4.6708940  18.6206799
  94.8920012   4.4234997  25.6419988  95.5230012   4.3944997  26.3609988
  95.3410012   3.9984997  24.9119988  95.0390774   4.3620492  25.6416553
  96.1660012   5.1694997  21.0659988  96.6400012   5.7604997  20.4809988
  95.4490012   5.7004997  21.4129988  96.1339341   5.3220867  21.0328836
 106.3350012   8.7084997  31.1389988 106.6580012   8.0774997  30.4959988
 105.8950012   8.1734997  31.7989988 106.3196895   8.5498441  31.1402850
 103.1120012   4.6354997  25.9229988 102.2010012   4.6924997  26.2109988
 103.6180012   4.5754997  26.7329988 103.0555413   4.6351985  26.0720622
  97.9410012   6.2644997  24.7489988  97.0510012   6.3644997  24.4089988
  98.2370012   5.4224997  24.4029988  97.8592823   6.1643545  24.6557213
 101.5940012   6.2644997  22.4059988 102.5250012   6.3934997  22.5839988
 101.3790012   6.9344997  21.7559988 101.6924247   6.3726565  22.3425747
 107.5170012   3.8704997  29.1869988 106.8410012   4.0014997  29.8509988
 107.0320012   3.7154997  28.3769988 107.3587145   3.8674905  29.1684517
 100.2680012   7.4594997  19.9729988  99.7250012   7.0794997  19.2809988
 101.1010012   7.6534997  19.5439988 100.3064399   7.4338124  19.8204526
 110.8050012  19.5424997  35.4639988 111.0050012  19.9664997  34.6289988
 111.4600012  19.8854997  36.0709988 110.9210051  19.6469648  35.4317836
  98.4030012  12.0164997  35.0719988  99.1350012  12.2704997  35.6329988
  97.6230012  12.2204997  35.5869988  98.3978232  12.0789177  35.2185760
 104.4320012   7.4234997  27.8099988 104.9970012   6.8764997  27.2629988
 104.2850012   6.9014997  28.5979988 104.4892918   7.2782024  27.8418454
  99.4340012   3.5594997  24.2279988  99.1170012   2.6574997  24.1929988
 100.2160012   3.5614997  23.6749988  99.4962284   3.4361628  24.1484783
 103.0590012   5.8114997  30.2239988 102.2230012   6.2654997  30.3339988
 103.5830012   6.0874997  30.9759988 103.0154414   5.9109376  30.3407136
 103.6030012  12.0244997  21.9079988 102.8580012  11.5174997  21.5859988
 103.4690012  12.0734997  22.8549988 103.4828776  11.9616940  21.9918647
 110.7530012  11.1574997  30.6949988 111.3950012  11.6144997  30.1509988
 109.9230012  11.2704997  30.2319988 110.7285963  11.2352704  30.5580177
 107.5010012   4.8384997  20.1079988 106.5620012   4.9504997  19.9559988
 107.7980012   5.6954997  20.4139988 107.4127666   4.9696443  20.1285768
 105.1220012  12.2084997  33.1449988 104.7770012  11.8274997  33.9519988
 104.9220012  13.1424997  33.2169988 105.0478061  12.2825228  33.2650961
 108.2190012   6.7054997  21.7679988 109.1110012   6.5684997  22.0869988
 108.2760012   7.4964997  21.2319988 108.3486285   6.7936660  21.7391691
  98.7280012  11.3194997  27.6779988  99.4730012  11.3174997  27.0769988
  98.8060012  10.4964997  28.1599988  98.8405518  11.2079315  27.6608929
 105.7290012  13.4834997  20.9339988 105.4330012  14.3094997  21.3149988
 105.0260012  12.8634997  21.1299988 105.5934914  13.5128199  21.0126443
  95.7360012   9.7804997  32.9929988  95.9590012   9.3624997  33.8249988
  95.1340012   9.1674997  32.5699988  95.6851759   9.6404668  33.0497022
 102.7520012   9.2974997  35.2059988 102.4560012   9.1314997  34.3109988
 103.6840012   9.0774997  35.1949988 102.8374166   9.2450640  35.0820536
 107.3730012  14.6704997  33.0959988 106.4720012  14.8534997  32.8279988
 107.4070012  14.9294997  34.0169988 107.2543041  14.7305512  33.1838197
 113.1040012   6.9154997  21.4629988 112.5500012   6.5194997  20.7909988
 113.2040012   7.8254997  21.1849988 113.0417059   6.9843586  21.3334401
 113.0670012  12.7154997  34.2999988 112.2160012  12.9534997  33.9329988
 113.6580012  12.6984997  33.5469988 113.0302487  12.7458258  34.1478893
 111.3990012  15.7014997  21.9279988 111.0260012  14.8754997  22.2369988
 111.6770012  15.5184997  21.0309988 111.3855630  15.5637303  21.8489626
 108.5600012  10.5094997  28.9489988 107.6310012  10.2774997  28.9219988
 109.0110012   9.7324997  28.6189988 108.4939216  10.3727238  28.9006917
 101.1030012  14.8374997  25.0819988 101.6300012  15.6104997  24.8819988
 100.2230012  15.0624997  24.7809988 101.0561773  14.9738005  25.0139010
  96.8580012   9.6994997  19.6689988  97.4740012  10.3264997  20.0489988
  95.9960012  10.0154997  19.9409988  96.8257698   9.8279430  19.7577183
 102.5300012  12.5004997  24.6589988 102.2890012  13.4254997  24.6999988
 101.7890012  12.0414997  25.0549988 102.3968409  12.5651421  24.7181377
 103.0450012  16.6494997  30.9739988 103.4070012  17.5044997  30.7399988
 103.5760012  16.3574997  31.7139988 103.1664473  16.7271060  31.0420855
 101.2130012  17.5224997  24.2039988 100.2630012  17.6274997  24.2549988
 101.5650012  18.3424997  24.5489988 101.1304203  17.6478314  24.2576650
 106.5890012  12.7484997  30.6739988 106.1630012  12.5214997  31.5009988
 107.1690012  12.0104997  30.4919988 106.6091868  12.6175299  30.7625830
 108.7920012  13.6774997  19.7479988 109.1450012  13.2974997  20.5529988
 107.8430012  13.5844997  19.8349988 108.7120441  13.6129596  19.8698559
 109.2470012  17.3004997  33.1439988 108.6460012  16.7454997  32.6479988
 109.5290012  17.9674997  32.5179988 109.2028519  17.3146841  32.9914952
 113.2950012  18.1574997  19.9489988 114.0390012  18.7434997  19.8089988
 112.6010012  18.7254997  20.2829988 113.3030292  18.3145582  19.9749961
  97.3700012   4.5334997  32.5509988  96.4770012   4.8724997  32.4829988
  97.2710012   3.6784997  32.9689988  97.2344164   4.4642588  32.5982235
 109.6580012  12.3504997  21.9749988 109.3800012  11.6224997  22.5309988
 110.5850012  12.4694997  22.1799988 109.7453124  12.2668802  22.0788845
  97.0210012  16.3384997  30.9859988  97.2380012  15.4064997  30.9549988
  97.2670012  16.6124997  31.8689988  97.0839549  16.2480636  31.1011763
 102.8830012  14.7894997  18.1949988 103.1220012  14.0414997  17.6479988
 102.6140012  14.4014997  19.0279988 102.8793675  14.6346638  18.2326865
 101.8200012  14.3594997  20.6519988 101.9660012  13.8394997  21.4419988
 101.8170012  15.2664997  20.9579988 101.8395989  14.4108853  20.8016088
  98.2730012  11.6124997  21.1619988  97.5870012  11.9644997  21.7289988
  98.7950012  12.3754997  20.9149988  98.2496852  11.7638578  21.2062118
 106.1040012   4.2744997  31.4409988 106.8030012   4.3484997  32.0909988
 105.7230012   3.4104997  31.5949988 106.1481767   4.1677624  31.5508322
 106.8890012   3.9264997  22.5379988 107.1090012   4.3984997  21.7349988
 107.4470012   4.3214997  23.2079988 106.9944968   4.0444285  22.5187331
 104.5570012  16.0574997  21.4009988 103.7410012  16.5544997  21.4529988
 105.0870012  16.5324997  20.7609988 104.5169161  16.1897722  21.3215956
 104.0890012   5.6544997  23.3729988 104.9010012   6.1594997  23.4189988
 103.8440012   5.5094997  24.2869988 104.1670520   5.7040375  23.5028517
 104.6240012   6.6404997  32.5579988 104.7430012   7.2144997  33.3149988
 105.2800012   5.9524997  32.6719988 104.7289757   6.6261079  32.6770825
 104.9720012   2.7354997  24.3109988 104.6260012   3.3534997  24.9559988
 105.6310012   3.2364997  23.8299988 105.0137826   2.8875802  24.3340971
 101.8960012  17.1014997  21.3829988 102.0560012  17.9004997  20.8819988
 101.6980012  17.4074997  22.2679988 101.8911649  17.2524469  21.4339815
 100.6300012   3.7984997  20.9979988 100.5470012   4.6874997  21.3449988
 101.5200012   3.5334997  21.2299988 100.7389469   3.8841430  21.0767626
 110.8290012   4.5474997  33.3929988 109.9120012   4.8104997  33.3049988
 111.1640012   4.5444997  32.4959988 110.7489900   4.5830224  33.2597919
 109.4310012   8.2984997  27.4879988 108.6330012   7.8834997  27.1599988
 109.8760012   7.6074997  27.9789988 109.3819885   8.1483543  27.5094889
  98.8890012  14.2264997  20.0589988  99.4810012  14.9254997  20.3349988
  99.3480012  13.7934997  19.3389988  99.0321142  14.2637049  19.9994830
  97.2050012   6.8904997  19.1749988  97.1600012   7.8294997  19.3529988
  96.3170012   6.6544997  18.9049988  97.0788574   6.9871892  19.1628912
 110.5170012  17.5544997  29.1109988 110.3620012  18.2324997  28.4539988
 111.4500012  17.6264997  29.3139988 110.6218500  17.6570170  29.0485119
  98.0130012   1.6724997  27.8479988  97.7840012   1.7314997  26.9199988
  97.5700012   0.8804997  28.1539988  97.9218530   1.5735753  27.7624786
  96.9430012  15.6124997  24.0079988  96.1110012  16.0854997  24.0359988
  97.4890012  16.1224997  23.4099988  96.9029739  15.7461871  23.9309716
  96.2310012  18.2254997  35.3379988  96.7720012  18.0084997  36.0979988
  95.7500012  17.4194997  35.1489988  96.2399345  18.0869514  35.4163076
 100.8290012  17.1444997  36.9589988 101.5960012  16.6854997  37.2999988
 100.8070012  16.9184997  36.0289988 100.9311434  17.0510409  36.8800043
 104.9210012  16.6524997  18.3339988 104.2770012  16.0214997  18.6549988
 105.6830012  16.1214997  18.1019988 104.9358077  16.4942920  18.3466011
 107.4060012  15.5244997  35.6879988 107.0550012  14.6684997  35.9309988
 108.1320012  15.6674997  36.2949988 107.4560769  15.4265636  35.8033619
 109.5250012  16.4694997  18.5679988 109.8080012  15.6754997  19.0199988
 110.2650012  16.7024997  18.0069988 109.6637486  16.3922803  18.5540698
  96.1380012  12.0354997  36.2929988  96.2820012  11.1334997  36.0059988
  95.3660012  12.3214997  35.8049988  96.0533322  11.9508261  36.1877881
 100.4800012  12.3794997  18.4249988 100.5440012  11.5854997  18.9559988
 101.1330012  12.2604997  17.7349988 100.5770241  12.2547148  18.4044317
 102.7940012  12.0054997  35.7249988 102.4650012  12.2764997  34.8679988
 102.9460012  11.0644997  35.6379988 102.7694809  11.9153862  35.5958244
 105.8320012  13.4264997  18.1609988 105.5630012  13.6064997  19.0619988
 105.6260012  12.5004997  18.0299988 105.7673825  13.3260152  18.2665214
 108.5280012  11.9214997  33.1089988 109.2740012  12.5094997  32.9889988
 107.7710012  12.5034997  33.1719988 108.5277554  12.0807011  33.1010907
  96.9710012   9.2354997  35.7129988  97.3790012   8.3784997  35.5919988
  96.7110012   9.2504997  36.6339988  96.9917568   9.1200807  35.8209588
 101.6290012  10.3514997  20.7309988 101.1690012   9.8674997  21.4169988
 101.8840012   9.6834997  20.0949988 101.6004902  10.1948731  20.7389334
 100.9180012   8.2444997  33.0869988 100.3000012   8.9194997  33.3669988
 101.2620012   8.5654997  32.2539988 100.8799615   8.3802721  33.0126581
 102.7000012   8.5944997  18.9929988 102.5200012   8.4404997  18.0659988
 103.6500012   8.7024997  19.0379988 102.8037776   8.5880175  18.8721843
 105.9380012  10.7164997  36.3639988 106.8910012  10.7994997  36.3369988
 105.7770012  10.0044997  36.9839988 106.0466426  10.6316746  36.4440579
 112.0900012  10.9494997  18.4389988 111.8160012  10.5244997  17.6259988
 112.1290012  11.8804997  18.2219988 112.0577699  11.0172484  18.2983610
 101.2570012   5.5994997  34.1689988 101.4070012   4.8704997  33.5669988
 101.2600012   6.3764997  33.6099988 101.2779302   5.6047851  34.0110692
 101.6700012   3.9694997  31.6619988 102.2060012   4.4204997  31.0099988
 100.8180012   3.8614997  31.2389988 101.6282178   4.0166390  31.5155756
 103.2520012   9.4084997  31.9009988 104.0020012   9.2524997  31.3279988
 102.9130012  10.2604997  31.6259988 103.3088921   9.5022968  31.7853561
 107.6670012   7.2234997  36.9299988 107.8600012   6.2924997  36.8179988
 108.5250012   7.6484997  36.9199988 107.8093020   7.1536389  36.9133361
 108.9840012  10.0124997  35.0069988 108.7030012  10.7214997  34.4299988
 109.9270012   9.9394997  34.8559988 109.0729027  10.0997646  34.9075551
  99.7360012   6.7974997  36.0809988  98.9690012   6.2654997  35.8709988
 100.4150012   6.4874997  35.4809988  99.7227022   6.6827506  35.9711648
 102.4760012   1.4254997  32.0929988 102.3770012   2.3724997  31.9879988
 101.7330012   1.0534997  31.6179988 102.3620564   1.5045902  32.0144560
 103.7400012   5.7474997  35.6569988 103.5040012   5.5274997  36.5589988
 102.9560012   5.5404997  35.1469988 103.6018628   5.6894760  35.7113932
 106.4550012   4.8744997  34.7329988 105.5080012   4.9064997  34.8649988
 106.7680012   4.2494997  35.3859988 106.3675475   4.7943207  34.8394455
 108.0890012   3.5084997  36.7379988 107.9930012   2.5564997  36.7319988
 107.7680012   3.7774997  37.5979988 108.0324070   3.4144035  36.8535441
  97.9160012   4.7184997  35.7849988  98.1280012   4.0114997  35.1749988
  97.8050012   4.2804997  36.6289988  97.9299721   4.5627084  35.8156843
 102.6970012   0.7194997  34.7649988 103.4090012   0.0794997  34.7509988
 102.5960012   0.9864997  33.8509988 102.7807939   0.6679938  34.6395650
 103.0510012   2.4024997  36.8179988 102.9190012   1.9264997  35.9979988
 102.4520012   3.1464997  36.7629988 102.9519071   2.4379618  36.6982886
 102.5970012  19.2854997  19.9949988 103.5300012  19.4434997  20.1379988
 102.3330012  19.9604997  19.3699988 102.6889510  19.3983611  19.9300741
  96.1660012  13.9214997  19.4769988  97.0800012  14.0004997  19.7509988
  96.1730012  13.2344997  18.8109988  96.2921131  13.8393961  19.4244393
  94.8150012  19.3144997  24.5549988  94.1680012  18.8524997  24.0219988
  95.1690012  18.6424997  25.1369988  94.7743849  19.1604723  24.5607959
  95.6850012  17.3954997  26.3589988  95.3500012  16.5154997  26.5309988
  95.9070012  17.7404997  27.2239988  95.6691783  17.3217501  26.4994208
 113.2330012  18.2044997  29.3399988 113.2120012  18.3894997  30.2789988
 113.9240012  18.7734997  28.9989988 113.3234618  18.3066606  29.4223864
 112.7970012  17.7724997  32.2619988 112.3090012  17.0364997  31.8909988
 113.3460012  17.3784997  32.9399988 112.8044872  17.6186249  32.3029160
 111.2470012  13.5614997  36.8999988 110.3810012  13.4564997  37.2939988
 111.6240012  14.3204997  37.3459988 111.1793308  13.6496900  37.0142393
 112.5480012  11.8184997  22.4139988 113.3980012  12.2394997  22.5409988
 112.5540012  11.0784997  23.0209988 112.6651372  11.7760803  22.5134344
 112.9430012   9.8714997  24.2379988 112.2160012   9.3924997  24.6349988
 113.5240012  10.0774997  24.9699988 112.9219375   9.8337090  24.3914129
 112.7020012  12.6564997  29.1849988 113.5350012  12.2784997  28.9049988
 112.8140012  13.5994997  29.0659988 112.8312647  12.7322218  29.1305487
 111.1880012  15.5344997  31.4919988 110.5410012  15.8594997  32.1179988
 110.6710012  15.0944997  30.8179988 111.0294029  15.5195004  31.4865827
 113.2110012   9.7724997  20.6289988 112.6890012  10.1294997  19.9099988
 113.1780012  10.4474997  21.3069988 113.1351634   9.9125413  20.6223145
 111.5600012   7.0124997  19.1799988 111.6560012   7.6794997  18.4989988
 111.4200012   6.1964997  18.6979988 111.5542135   6.9934500  19.0218491
 110.7290012   8.3924997  24.8009988 110.5790012   7.4474997  24.7799988
 110.3760012   8.6734997  25.6439988 110.6606625   8.3010441  24.9122346
  95.7650012  10.4704997  28.8109988  95.9490012  10.3884997  27.8749988
  96.6140012  10.3464997  29.2349988  95.9050139  10.4425003  28.7401455
 111.5860012  10.3624997  34.4389988 112.1690012   9.6284997  34.6309988
 112.1500012  11.1344997  34.4859988 111.7419769  10.3664227  34.4716159
 113.0820012   8.2654997  35.1239988 112.2190012   7.8864997  34.9579988
 113.6870012   7.5264997  35.0499988 113.0455979   8.1138023  35.0912817
 110.8070012   4.4204997  18.2969988 111.4180012   4.0494997  18.9339988
 109.9710012   3.9994997  18.4929988 110.7775032   4.3127554  18.4107035
 110.4400012   5.9754997  23.2629988 110.7200012   5.0684997  23.3869988
 111.1990012   6.4094997  22.8739988 110.5809277   5.9100942  23.2273682
 111.0520012   6.5564997  28.6989988 111.9850012   6.7684997  28.6649988
 110.8170012   6.6584997  29.6209988 111.1478036   6.5992769  28.8189976
 111.0810012   7.2934997  31.4749988 110.2380012   7.5614997  31.8409988
 111.5230012   8.1154997  31.2639988 111.0254158   7.4413291  31.4965491
  95.3620012   5.7414997  34.9519988  96.2820012   5.6194997  35.1879988
  94.9130012   4.9914997  35.3409988  95.4271580   5.6233727  35.0369006
 113.3640012   1.2734997  36.8279988 113.7140012   0.6194997  36.2229988
 113.5110012   2.1104997  36.3889988 113.4318419   1.2971591  36.6857118
 111.0530012   3.2384997  23.3109988 111.2360012   2.7894997  24.1369988
 110.4540012   2.6534997  22.8479988 110.9970202   3.0979975  23.3613275
  96.5830012   4.0534997  27.8429988  97.0290012   3.2614997  28.1449988
  97.0500012   4.7694997  28.2739988  96.7070172   4.0420624  27.9424820
  94.8870012   7.0524997  28.9119988  95.3790012   6.8314997  28.1209988
  95.2500012   7.8934997  29.1929988  95.0033126   7.1358357  28.8417531
 112.8840012   3.3824997  35.1779988 111.9660012   3.6534997  35.1419988
 113.0070012   2.8474997  34.3929988 112.7751066   3.3472892  35.0670487
 112.9200012   3.3054997  19.8389988 113.3320012   2.5844997  19.3639988
 113.6020012   3.9754997  19.8979988 113.0685885   3.2972368  19.7818915
  95.2010012   3.3104997  22.9659988  94.2760012   3.5194997  22.8369988
  95.6550012   3.7944997  22.2769988  95.1357368   3.4045993  22.8551226
 109.9720012  18.2944997  24.9119988 110.6240012  17.9474997  24.3039988
 110.4820012  18.7834997  25.5579988 110.1302637  18.3130597  24.9160236
  95.1650012   2.0484997  31.3109988  94.5000012   1.8024997  31.9539988
  94.7220012   2.6704997  30.7329988  95.0140956   2.0988632  31.3209352
  97.3570012  15.2234997  35.4549988  96.5360012  15.3984997  34.9949988
  97.1040012  15.1504997  36.3759988  97.2106164  15.2375622  35.5164923
 100.3110012  16.1984997  31.7139988  99.8860012  17.0074997  31.4309988
 101.2150012  16.2834997  31.4119988 100.3750271  16.3208469  31.6343776
 104.6220012  17.5974997  34.6729988 104.8070012  17.2634997  35.5509988
 105.4680012  17.9064997  34.3509988 104.7617539  17.5936047  34.7495605
 106.9670012  18.8834997  33.9169988 107.6440012  18.2504997  33.6769988
 107.2890012  19.2844997  34.7239988 107.1031637  18.8511154  33.9932793
 111.8840012   1.4724997  32.9969988 111.0720012   1.7974997  32.6089988
 112.1170012   0.7124997  32.4639988 111.8043423   1.4142436  32.8718253
  97.7130012  19.4544997  31.7609988  96.9920012  19.8944997  31.3099988
  97.3470012  19.2034997  32.6099988  97.5649804  19.4807698  31.8139840
 100.1800012  19.0544997  30.7909988  99.3150012  19.1264997  31.1949988
 100.1250012  19.6014997  30.0069988 100.0542085  19.1382685  30.7403362
 104.8900012  18.9424997  29.9659988 104.4340012  19.4714997  29.3119988
 105.0530012  19.5454997  30.6919988 104.8495585  19.0964468  29.9745062
 107.2180012  17.8204997  30.9109988 106.3130012  17.9854997  30.6459988
 107.6470012  18.6734997  30.8459988 107.1520799  17.9584483  30.8659182
 109.8220012  19.3904997  31.2059988 109.6400012  20.3064997  30.9959988
 109.9990012  18.9804997  30.3599988 109.8210210  19.4604822  31.0627885
  97.1270012  18.0774997  28.6709988  97.1090012  17.6524997  29.5289988
  97.9320012  17.7594997  28.2629988  97.2333875  17.9763812  28.7331655
  99.2690012  16.7874997  27.3259988  99.0500012  15.8714997  27.4959988
 100.0930012  16.9274997  27.7919988  99.3504420  16.6810520  27.4122774
 101.8060012  17.2574997  28.1749988 102.0190012  16.3694997  27.8879988
 101.8700012  17.2234997  29.1289988 101.8438232  17.1313102  28.2647397
 105.3140012   2.9214997  27.3189988 104.6400012   2.2924997  27.5749988
 105.8780012   2.4374997  26.7159988 105.2979230   2.7698744  27.2725340
 110.4570012   1.0294997  27.4319988 111.0610012   1.5764997  26.9299988
 109.5870012   1.3484997  27.1919988 110.4221241   1.1475806  27.3307654
 112.1840012   2.1674997  25.7649988 112.7960012   1.6534997  25.2389988
 112.5660012   3.0454997  25.7889988 112.3194540   2.2157140  25.6961830
  97.6410012   1.5554997  25.1409988  96.8640012   1.3214997  24.6339988
  98.1710012   0.7584997  25.1499988  97.6062330   1.4156988  25.0727742
  96.4770012   1.3534997  20.9449988  96.9160012   1.9644997  20.3529988
  95.8440012   1.8914997  21.4189988  96.4514514   1.5099257  20.9280930
 102.2200012   1.4824997  24.9549988 103.0950012   1.8704997  24.9249988
 102.0840012   1.2674997  25.8769988 102.3213695   1.5065184  25.0756440
 107.7770012   1.5124997  26.6039988 107.8530012   1.6074997  25.6539988
 107.5020012   0.6044997  26.7329988 107.7502321   1.4027867  26.4915079
 109.1300012   1.5384997  22.2959988 108.4280012   2.1534997  22.0869988
 108.6860012   0.7004997  22.4269988 108.9736330   1.5095783  22.2850328
  96.3780012  17.3014997  21.8429988  95.6930012  17.2634997  21.1749988
  96.3820012  18.2144997  22.1309988  96.2848193  17.4197016  21.7905284
  98.3380012   3.2694997  19.3869988  98.8300012   2.6394997  18.8599988
  98.9620012   3.5654997  20.0509988  98.4895446   3.2233199  19.4045980
 103.3640012   3.5624997  21.8439988 103.5420012   2.9164997  22.5269988
 103.3110012   4.3964997  22.3119988 103.3811829   3.5867985  22.0005940
 105.2430012  18.5114997  20.2399988 106.1090012  18.8774997  20.0619988
 104.9960012  18.0714997  19.4259988 105.3282392  18.5021756  20.1056289
 111.9520012  18.0744997  22.9189988 111.7570012  17.3264997  22.3539988
 111.9130012  18.8324997  22.3359988 111.9200380  18.0746099  22.7628384
  97.5990012   2.0694997  34.6589988  97.2330012   1.3044997  35.1019988
  98.5120012   2.0984997  34.9459988  97.6722790   1.9687224  34.7584070
  99.5720012   1.4204997  36.1949988 100.4700012   1.1464997  36.0099988
  99.1850012   0.6774997  36.6589988  99.6426612   1.2825914  36.2323643
  98.1960012  18.2214997  18.8679988  97.9290012  18.5084997  19.7409988
  98.9680012  17.6754997  19.0199988  98.2637488  18.1870294  19.0081050
 107.9930012   0.7524997  36.3769988 108.0700012   0.3264997  37.2309988
 108.8870012   0.7664997  36.0339988 108.1243428   0.6960879  36.4475310
 111.1690012  16.8254997  35.0689988 110.3870012  16.6394997  34.5499988
 111.0970012  17.7544997  35.2869988 111.0521777  16.9256492  35.0274048
 125.5750012  10.7114997  25.0999988 125.6640012  11.6554997  24.9679988
 124.9370012  10.4364997  24.4419988 125.5009081  10.8034830  24.9929614
 124.5080012   9.9664997  28.5189988 124.4700012   9.3204997  29.2239988
 124.1860012   9.5004997  27.7479988 124.4592333   9.8149408  28.5112978
 116.8770012   9.5814997  30.1119988 116.9180012   8.9554997  30.8349988
 117.5800012  10.2054997  30.2939988 116.9776363   9.5801196  30.2356044
 128.2140012  12.9054997  26.8199988 127.7740012  12.1854997  27.2709988
 128.2010012  13.6264997  27.4499988 128.1520226  12.9043731  26.9668494
 117.8000012  14.0314997  28.6469988 117.4310012  13.2294997  28.2769988
 118.7410012  13.8624997  28.6929988 117.8767289  13.8990153  28.6026316
 114.4100012   7.6914997  24.0399988 113.9630012   8.5374997  24.0209988
 113.8490012   7.1114997  23.5239988 114.2729900   7.7289916  23.9676801
 115.1210012   9.8534997  26.1659988 115.3340012   9.0834997  26.6929988
 115.8590012   9.9424997  25.5619988 115.2498496   9.7601394  26.1565300
 125.3260012  18.0104997  27.0329988 125.9460012  17.3334997  26.7589988
 125.1180012  17.7924997  27.9409988 125.3826904  17.8883870  27.1183365
 122.8980012  12.3994997  28.9249988 123.2020012  11.7134997  28.3299988
 123.6190012  12.5174997  29.5429988 123.0370671  12.3216305  28.9271816
 131.5610012   4.0004997  29.7859988 131.6100012   4.6104997  30.5219988
 131.9860012   4.4614997  29.0629988 131.6251824   4.1463741  29.7890205
 126.0390012   6.7934997  29.2529988 126.1810012   5.8474997  29.2729988
 125.9320012   7.0004997  28.3239988 126.0439864   6.6919534  29.1302339
 119.1930012   4.8944997  26.5249988 119.2370012   5.7544997  26.1069988
 118.7360012   4.3424997  25.8909988 119.1372185   4.9375799  26.3820299
 126.9160012   5.0254997  24.9259988 127.5620012   4.6964997  25.5509988
 127.4260012   5.5434997  24.3029988 127.0734264   5.0504611  24.9273862
 115.8140012   7.2914997  27.2869988 116.4670012   6.7414997  27.7189988
 115.8380012   7.0174997  26.3699988 115.9066683   7.1791466  27.2222123
 120.9700012   8.8414997  26.5019988 121.5860012   8.3154997  27.0119988
 120.3840012   8.2014997  26.0989988 120.9750810   8.6829208  26.5173173
 131.9520012   5.4784997  32.0219988 131.2640012   6.1364997  31.9259988
 131.9680012   5.2814997  32.9579988 131.8598525   5.5420462  32.1354808
 118.0040012   3.8124997  30.5989988 117.7850012   4.3424997  29.8329988
 117.3360012   4.0394997  31.2459988 117.8837600   3.9156906  30.5816379
 125.3730012  13.3124997  24.1429988 125.0770012  12.9904997  23.2919988
 125.0480012  14.2124997  24.1839988 125.2886371  13.3900215  24.0321801
 120.5730012  11.4884997  30.8859988 119.8330012  12.0864997  30.9899988
 121.2870012  12.0424997  30.5709988 120.5682237  11.6452831  30.8576465
 128.6800012   4.3164997  26.9059988 128.4640012   3.5504997  27.4389988
 129.3350012   4.7884997  27.4189988 128.7390632   4.2755889  27.0482861
 117.5970012   5.7044997  28.5509988 118.2110012   6.3374997  28.9249988
 118.1090012   5.2324997  27.8949988 117.7502296   5.7272370  28.5134252
 118.9800012  13.4524997  31.6739988 118.9750012  14.3324997  31.2959988
 118.1270012  13.3694997  32.0989988 118.8639464  13.5616117  31.6797907
 115.1010012  13.1234997  22.4559988 114.8290012  13.3524997  21.5669988
 115.1470012  13.9614997  22.9159988 115.0700094  13.2681213  22.3965697
 128.7260012  14.7454997  29.1679988 127.7850012  14.8034997  29.3299988
 129.0030012  15.6514997  29.0309988 128.6344679  14.8759443  29.1716815
 129.0270012   3.0314997  30.5859988 128.2910012   3.6424997  30.5479988
 129.7100012   3.4464997  30.0589988 129.0186541   3.1711374  30.5095832
 122.0300012   1.1184997  28.0519988 121.9130012   0.1694997  27.9969988
 121.1750012   1.4504997  28.3249988 121.8983733   1.0335409  28.0813897
 126.9780012  16.5264997  25.7939988 127.4040012  15.8194997  25.3089988
 127.2950012  17.3274997  25.3769988 127.0791019  16.5380994  25.6713130
 128.1380012  14.4274997  24.3019988 127.8800012  13.7374997  23.6909988
 128.2090012  13.9844997  25.1479988 128.1122856  14.2732124  24.3326885
 129.8240012  12.9934997  32.7799988 129.9640012  12.4024997  32.0399988
 129.9910012  13.8664997  32.4229988 129.8656778  13.0306426  32.6306965
 124.2970012   9.9554997  22.5519988 123.5850012  10.4904997  22.1999988
 124.9880012  10.0114997  21.8919988 124.2930132  10.0362543  22.4146289
 124.3500012   8.4134997  19.5909988 125.0510012   8.4354997  20.2419988
 124.6530012   7.7854997  18.9349988 124.4867830   8.3316566  19.5913711
 131.6660012   9.3334997  30.8459988 131.0130012  10.0284997  30.9349988
 132.1310012   9.5434997  30.0359988 131.6395390   9.4569425  30.7486883
 127.7020012  10.1654997  23.5039988 126.9700012  10.3934997  24.0769988
 128.1500012   9.4514997  23.9589988 127.6623095  10.1002571  23.6439119
 127.6000012   8.3394997  32.5709988 127.6800012   9.1024997  33.1429988
 126.9980012   8.6184997  31.8809988 127.5295756   8.4817134  32.5560589
 119.3480012  10.7954997  25.3859988 119.0170012  10.4254997  24.5679988
 119.9360012  10.1254997  25.7329988 119.3821873  10.6541156  25.3208102
 120.7140012  14.2234997  28.0679988 120.6200012  13.6454997  27.3109988
 121.4440012  13.8524997  28.5639988 120.7997981  14.0942390  28.0314165
 119.7140012   9.5644997  29.0199988 120.2800012   9.6854997  28.2569988
 120.0330012  10.2014997  29.6589988 119.8345786   9.6671884  29.0020040
 126.0230012  15.0674997  29.7539988 125.7830012  15.7294997  30.4019988
 125.8250012  14.2334997  30.1789988 125.9633808  15.0453134  29.9001524
 120.5940012  13.9634997  33.7369988 120.2830012  14.7454997  34.1919988
 119.9440012  13.8104997  33.0509988 120.4635558  14.0499105  33.7065871
 126.5730012   9.3274997  21.1889988 127.1530012   9.4774997  21.9359988
 126.9870012   9.7984997  20.4659988 126.7082830   9.4116841  21.1934134
 117.5140012  10.1614997  32.9659988 117.5850012  10.8124997  33.6639988
 116.6240012  10.2644997  32.6309988 117.4033117  10.2645936  33.0162700
 124.3000012  16.0644997  24.6239988 124.7740012  16.3594997  25.4019988
 123.7370012  16.8024997  24.3909988 124.2887653  16.2046932  24.6990136
 118.8340012  16.0354997  34.4999988 118.8410012  15.8994997  33.5529988
 117.9180012  15.9174997  34.7519988 118.7111714  16.0009430  34.4044666
 130.2720012   1.0774997  21.0019988 129.3720012   1.2164997  21.2969988
 130.5240012   1.9084997  20.5999988 130.1828702   1.2089074  20.9880205
 118.3380012   9.8654997  22.9759988 118.0460012  10.6334997  22.4849988
 117.6640012   9.2054997  22.8129988 118.2069081   9.8814406  22.8867340
 131.4610012  15.4434997  19.3779988 131.5350012  16.3824997  19.5489988
 132.3670012  15.1384997  19.3219988 131.5935100  15.5306722  19.3938119
 114.4310012  12.2284997  31.7909988 113.9300012  12.2004997  30.9759988
 114.4360012  11.3224997  32.0999988 114.3631526  12.1022278  31.7212872
 114.1810012  15.0084997  28.6749988 115.1270012  14.8644997  28.6559988
 114.0690012  15.7924997  29.2119988 114.2952727  15.0948046  28.7450072
 132.3790012  15.6744997  34.3569988 132.3300012  14.7194997  34.3199988
 131.5520012  15.9424997  34.7579988 132.2604940  15.5798998  34.4061375
 123.3580012  15.2484997  33.2329988 123.4450012  16.0744997  33.7079988
 122.4940012  14.9184997  33.4819988 123.2531964  15.3169878  33.3316549
 123.7720012  19.0204997  23.0389988 123.6970012  18.8994997  22.0929988
 123.8050012  19.9704997  23.1579988 123.7661848  19.1322500  22.9254834
 117.4250012  17.8094997  24.8199988 117.5780012  17.4614997  25.6989988
 116.5750012  17.4534997  24.5649988 117.3308962  17.7136650  24.9058340
 126.8740012  18.1744997  20.0409988 127.2490012  17.4304997  19.5709988
 126.8780012  17.9044997  20.9599988 126.9258915  18.0361486  20.1007824
 126.5430012  18.1004997  22.7909988 125.6070012  18.2004997  22.9689988
 126.8230012  17.3914997  23.3689988 126.4528255  18.0182711  22.8935391
 129.5310012   7.1674997  34.8369988 129.1240012   7.6484997  34.1159988
 129.5720012   6.2624997  34.5289988 129.4808437   7.1109374  34.6966683
 116.6800012  13.5514997  32.8339988 116.8960012  13.1904997  33.6929988
 115.8250012  13.1774997  32.6239988 116.5939292  13.4514111  32.9233386
 119.2990012   2.0214997  28.8289988 118.4370012   1.9344997  28.4219988
 119.2760012   2.8774997  29.2569988 119.1780330   2.1252765  28.8311863
 123.9620012   1.7434997  32.2039988 124.3820012   1.3284997  32.9569988
 123.0290012   1.5654997  32.3209988 123.8933644   1.6625900  32.3229539
 127.2880012   5.4994997  33.0569988 126.7740012   5.3734997  33.8549988
 127.1330012   6.4114997  32.8129988 127.1966852   5.6056132  33.1332158
 128.0510012  10.3604997  18.8189988 128.0930012  10.1374997  17.8889988
 128.9000012  10.7594997  19.0089988 128.1715396  10.3839155  18.7173627
 123.6230012   4.2364997  19.4889988 123.3700012   4.2554997  20.4119988
 123.3670012   3.3644997  19.1879988 123.5537790   4.1212437  19.5746263
 119.3900012   6.9874997  29.9239988 118.7480012   6.9464997  30.6329988
 119.4270012   7.9134997  29.6869988 119.3071324   7.1071559  29.9889824
 119.3870012   7.2084997  24.8359988 118.4940012   6.8674997  24.7779988
 119.8370012   6.8314997  24.0809988 119.3257305   7.1108484  24.7259177
 124.9220012   7.6244997  23.6529988 124.5130012   8.4394997  23.3619988
 125.6430012   7.4844997  23.0389988 124.9634537   7.7172018  23.5301342
 124.0240012   7.7994997  35.1409988 123.4620012   7.0954997  35.4619988
 124.8510012   7.6794997  35.6089988 124.0587095   7.6867883  35.2482330
 125.9270012   7.0704997  26.4669988 125.7320012   7.6754997  25.7519988
 126.1080012   6.2364997  26.0329988 125.9247614   7.0406300  26.3104405
 117.1400012   7.3074997  31.7909988 117.1020012   7.7074997  32.6599988
 116.6490012   6.4904997  31.8819988 117.0684684   7.2518069  31.9221059
 120.5060012   4.6814997  18.5899988 120.0750012   4.2364997  19.3199988
 119.7880012   5.0534997  18.0779988 120.3499438   4.6708940  18.6206799
 113.7480012   4.4234997  25.6419988 114.3790012   4.3944997  26.3609988
 114.1970012   3.9984997  24.9119988 113.8950774   4.3620492  25.6416553
 115.0220012   5.1694997  21.0659988 115.4960012   5.7604997  20.4809988
 114.3050012   5.7004997  21.4129988 114.9899341   5.3220867  21.0328836
 125.1910012   8.7084997  31.1389988 125.5140012   8.0774997  30.4959988
 124.7510012   8.1734997  31.7989988 125.1756895   8.5498441  31.1402850
 121.9680012   4.6354997  25.9229988 121.0570012   4.6924997  26.2109988
 122.4740012   4.5754997  26.7329988 121.9115413   4.6351985  26.0720622
 116.7970012   6.2644997  24.7489988 115.9070012   6.3644997  24.4089988
 117.0930012   5.4224997  24.4029988 116.7152823   6.1643545  24.6557213
 120.4500012   6.2644997  22.4059988 121.3810012   6.3934997  22.5839988
 120.2350012   6.9344997  21.7559988 120.5484247   6.3726565  22.3425747
 126.3730012   3.8704997  29.1869988 125.6970012   4.0014997  29.8509988
 125.8880012   3.7154997  28.3769988 126.2147145   3.8674905  29.1684517
 119.1240012   7.4594997  19.9729988 118.5810012   7.0794997  19.2809988
 119.9570012   7.6534997  19.5439988 119.1624399   7.4338124  19.8204526
 129.6610012  19.5424997  35.4639988 129.8610012  19.9664997  34.6289988
 130.3160012  19.8854997  36.0709988 129.7770051  19.6469648  35.4317836
 117.2590012  12.0164997  35.0719988 117.9910012  12.2704997  35.6329988
 116.4790012  12.2204997  35.5869988 117.2538232  12.0789177  35.2185760
 123.2880012   7.4234997  27.8099988 123.8530012   6.8764997  27.2629988
 123.1410012   6.9014997  28.5979988 123.3452918   7.2782024  27.8418454
 118.2900012   3.5594997  24.2279988 117.9730012   2.6574997  24.1929988
 119.0720012   3.5614997  23.6749988 118.3522284   3.4361628  24.1484783
 121.9150012   5.8114997  30.2239988 121.0790012   6.2654997  30.3339988
 122.4390012   6.0874997  30.9759988 121.8714414   5.9109376  30.3407136
 122.4590012  12.0244997  21.9079988 121.7140012  11.5174997  21.5859988
 122.3250012  12.0734997  22.8549988 122.3388776  11.9616940  21.9918647
 129.6090012  11.1574997  30.6949988 130.2510012  11.6144997  30.1509988
 128.7790012  11.2704997  30.2319988 129.5845963  11.2352704  30.5580177
 126.3570012   4.8384997  20.1079988 125.4180012   4.9504997  19.9559988
 126.6540012   5.6954997  20.4139988 126.2687666   4.9696443  20.1285768
 123.9780012  12.2084997  33.1449988 123.6330012  11.8274997  33.9519988
 123.7780012  13.1424997  33.2169988 123.9038061  12.2825228  33.2650961
 127.0750012   6.7054997  21.7679988 127.9670012   6.5684997  22.0869988
 127.1320012   7.4964997  21.2319988 127.2046285   6.7936660  21.7391690
 117.5840012  11.3194997  27.6779988 118.3290012  11.3174997  27.0769988
 117.6620012  10.4964997  28.1599988 117.6965518  11.2079315  27.6608929
 124.5850012  13.4834997  20.9339988 124.2890012  14.3094997  21.3149988
 123.8820012  12.8634997  21.1299988 124.4494914  13.5128199  21.0126443
 114.5920012   9.7804997  32.9929988 114.8150012   9.3624997  33.8249988
 113.9900012   9.1674997  32.5699988 114.5411759   9.6404668  33.0497022
 121.6080012   9.2974997  35.2059988 121.3120012   9.1314997  34.3109988
 122.5400012   9.0774997  35.1949988 121.6934166   9.2450640  35.0820536
 126.2290012  14.6704997  33.0959988 125.3280012  14.8534997  32.8279988
 126.2630012  14.9294997  34.0169988 126.1103041  14.7305512  33.1838197
 131.9600012   6.9154997  21.4629988 131.4060012   6.5194997  20.7909988
 132.0600012   7.8254997  21.1849988 131.8977059   6.9843586  21.3334401
 131.9230012  12.7154997  34.2999988 131.0720012  12.9534997  33.9329988
 132.5140012  12.6984997  33.5469988 131.8862487  12.7458258  34.1478893
 130.2550012  15.7014997  21.9279988 129.8820012  14.8754997  22.2369988
 130.5330012  15.5184997  21.0309988 130.2415630  15.5637303  21.8489626
 127.4160012  10.5094997  28.9489988 126.4870012  10.2774997  28.9219988
 127.8670012   9.7324997  28.6189988 127.3499216  10.3727238  28.9006917
 119.9590012  14.8374997  25.0819988 120.4860012  15.6104997  24.8819988
 119.0790012  15.0624997  24.7809988 119.9121773  14.9738005  25.0139010
 115.7140012   9.6994997  19.6689988 116.3300012  10.3264997  20.0489988
 114.8520012  10.0154997  19.9409988 115.6817698   9.8279430  19.7577183
 121.3860012  12.5004997  24.6589988 121.1450012  13.4254997  24.6999988
 120.6450012  12.0414997  25.0549988 121.2528409  12.5651421  24.7181377
 121.9010012  16.6494997  30.9739988 122.2630012  17.5044997  30.7399988
 122.4320012  16.3574997  31.7139988 122.0224473  16.7271060  31.0420855
 120.0690012  17.5224997  24.2039988 119.1190012  17.6274997  24.2549988
 120.4210012  18.3424997  24.5489988 119.9864203  17.6478314  24.2576650
 125.4450012  12.7484997  30.6739988 125.0190012  12.5214997  31.5009988
 126.0250012  12.0104997  30.4919988 125.4651868  12.6175299  30.7625830
 127.6480012  13.6774997  19.7479988 128.0010012  13.2974997  20.5529988
 126.6990012  13.5844997  19.8349988 127.5680441  13.6129596  19.8698559
 128.1030012  17.3004997  33.1439988 127.5020012  16.7454997  32.6479988
 128.3850012  17.9674997  32.5179988 128.0588519  17.3146841  32.9914952
 132.1510012  18.1574997  19.9489988 132.8950012  18.7434997  19.8089988
 131.4570012  18.7254997  20.2829988 132.1590292  18.3145582  19.9749961
 116.2260012   4.5334997  32.5509988 115.3330012   4.8724997  32.4829988
 116.1270012   3.6784997  32.9689988 116.0904164   4.4642588  32.5982235
 128.5140012  12.3504997  21.9749988 128.2360012  11.6224997  22.5309988
 129.4410012  12.4694997  22.1799988 128.6013124  12.2668802  22.0788845
 115.8770012  16.3384997  30.9859988 116.0940012  15.4064997  30.9549988
 116.1230012  16.6124997  31.8689988 115.9399549  16.2480636  31.1011763
 121.7390012  14.7894997  18.1949988 121.9780012  14.0414997  17.6479988
 121.4700012  14.4014997  19.0279988 121.7353675  14.6346638  18.2326865
 120.6760012  14.3594997  20.6519988 120.8220012  13.8394997  21.4419988
 120.6730012  15.2664997  20.9579988 120.6955989  14.4108853  20.8016088
 117.1290012  11.6124997  21.1619988 116.4430012  11.9644997  21.7289988
 117.6510012  12.3754997  20.9149988 117.1056852  11.7638578  21.2062118
 124.9600012   4.2744997  31.4409988 125.6590012   4.3484997  32.0909988
 124.5790012   3.4104997  31.5949988 125.0041767   4.1677624  31.5508322
 125.7450012   3.9264997  22.5379988 125.9650012   4.3984997  21.7349988
 126.3030012   4.3214997  23.2079988 125.8504968   4.0444285  22.5187331
 123.4130012  16.0574997  21.4009988 122.5970012  16.5544997  21.4529988
 123.9430012  16.5324997  20.7609988 123.3729161  16.1897722  21.3215956
 122.9450012   5.6544997  23.3729988 123.7570012   6.1594997  23.4189988
 122.7000012   5.5094997  24.2869988 123.0230520   5.7040375  23.5028517
 123.4800012   6.6404997  32.5579988 123.5990012   7.2144997  33.3149988
 124.1360012   5.9524997  32.6719988 123.5849757   6.6261079  32.6770825
 123.8280012   2.7354997  24.3109988 123.4820012   3.3534997  24.9559988
 124.4870012   3.2364997  23.8299988 123.8697826   2.8875802  24.3340971
 120.7520012  17.1014997  21.3829988 120.9120012  17.9004997  20.8819988
 120.5540012  17.4074997  22.2679988 120.7471649  17.2524469  21.4339815
 119.4860012   3.7984997  20.9979988 119.4030012   4.6874997  21.3449988
 120.3760012   3.5334997  21.2299988 119.5949469   3.8841430  21.0767626
 129.6850012   4.5474997  33.3929988 128.7680012   4.8104997  33.3049988
 130.0200012   4.5444997  32.4959988 129.6049900   4.5830224  33.2597919
 128.2870012   8.2984997  27.4879988 127.4890012   7.8834997  27.1599988
 128.7320012   7.6074997  27.9789988 128.2379885   8.1483543  27.5094889
 117.7450012  14.2264997  20.0589988 118.3370012  14.9254997  20.3349988
 118.2040012  13.7934997  19.3389988 117.8881142  14.2637049  19.9994830
 116.0610012   6.8904997  19.1749988 116.0160012   7.8294997  19.3529988
 115.1730012   6.6544997  18.9049988 115.9348574   6.9871892  19.1628912
 129.3730012  17.5544997  29.1109988 129.2180012  18.2324997  28.4539988
 130.3060012  17.6264997  29.3139988 129.4778500  17.6570170  29.0485119
 116.8690012   1.6724997  27.8479988 116.6400012   1.7314997  26.9199988
 116.4260012   0.8804997  28.1539988 116.7778530   1.5735753  27.7624786
 115.7990012  15.6124997  24.0079988 114.9670012  16.0854997  24.0359988
 116.3450012  16.1224997  23.4099988 115.7589739  15.7461871  23.9309716
 115.0870012  18.2254997  35.3379988 115.6280012  18.0084997  36.0979988
 114.6060012  17.4194997  35.1489988 115.0959345  18.0869514  35.4163076
 119.6850012  17.1444997  36.9589988 120.4520012  16.6854997  37.2999988
 119.6630012  16.9184997  36.0289988 119.7871434  17.0510409  36.8800043
 123.7770012  16.6524997  18.3339988 123.1330012  16.0214997  18.6549988
 124.5390012  16.1214997  18.1019988 123.7918077  16.4942920  18.3466011
 126.2620012  15.5244997  35.6879988 125.9110012  14.6684997  35.9309988
 126.9880012  15.6674997  36.2949988 126.3120769  15.4265636  35.8033619
 128.3810012  16.4694997  18.5679988 128.6640012  15.6754997  19.0199988
 129.1210012  16.7024997  18.0069988 128.5197486  16.3922803  18.5540698
 114.9940012  12.0354997  36.2929988 115.1380012  11.1334997  36.0059988
 114.2220012  12.3214997  35.8049988 114.9093322  11.9508261  36.1877881
 119.3360012  12.3794997  18.4249988 119.4000012  11.5854997  18.9559988
 119.9890012  12.2604997  17.7349988 119.4330241  12.2547148  18.4044317
 121.6500012  12.0054997  35.7249988 121.3210012  12.2764997  34.8679988
 121.8020012  11.0644997  35.6379988 121.6254809  11.9153862  35.5958244
 124.6880012  13.4264997  18.1609988 124.4190012  13.6064997  19.0619988
 124.4820012  12.5004997  18.0299988 124.6233825  13.3260152  18.2665214
 127.3840012  11.9214997  33.1089988 128.1300012  12.5094997  32.9889988
 126.6270012  12.5034997  33.1719988 127.3837554  12.0807011  33.1010907
 115.8270012   9.2354997  35.7129988 116.2350012   8.3784997  35.5919988
 115.5670012   9.2504997  36.6339988 115.8477568   9.1200807  35.8209588
 120.4850012  10.3514997  20.7309988 120.0250012   9.8674997  21.4169988
 120.7400012   9.6834997  20.0949988 120.4564902  10.1948731  20.7389334
 119.7740012   8.2444997  33.0869988 119.1560012   8.9194997  33.3669988
 120.1180012   8.5654997  32.2539988 119.7359615   8.3802721  33.0126581
 121.5560012   8.5944997  18.9929988 121.3760012   8.4404997  18.0659988
 122.5060012   8.7024997  19.0379988 121.6597776   8.5880175  18.8721843
 124.7940012  10.7164997  36.3639988 125.7470012  10.7994997  36.3369988
 124.6330012  10.0044997  36.9839988 124.9026426  10.6316746  36.4440579
 130.9460012  10.9494997  18.4389988 130.6720012  10.5244997  17.6259988
 130.9850012  11.8804997  18.2219988 130.9137699  11.0172484  18.2983610
 120.1130012   5.5994997  34.1689988 120.2630012   4.8704997  33.5669988
 120.1160012   6.3764997  33.6099988 120.1339302   5.6047851  34.0110692
 120.5260012   3.9694997  31.6619988 121.0620012   4.4204997  31.0099988
 119.6740012   3.8614997  31.2389988 120.4842178   4.0166390  31.5155756
 122.1080012   9.4084997  31.9009988 122.8580012   9.2524997  31.3279988
 121.7690012  10.2604997  31.6259988 122.1648921   9.5022968  31.7853561
 126.5230012   7.2234997  36.9299988 126.7160012   6.2924997  36.8179988
 127.3810012   7.6484997  36.9199988 126.6653020   7.1536389  36.9133361
 127.8400012  10.0124997  35.0069988 127.5590012  10.7214997  34.4299988
 128.7830012   9.9394997  34.8559988 127.9289027  10.0997646  34.9075551
 118.5920012   6.7974997  36.0809988 117.8250012   6.2654997  35.8709988
 119.2710012   6.4874997  35.4809988 118.5787022   6.6827506  35.9711648
 121.3320012   1.4254997  32.0929988 121.2330012   2.3724997  31.9879988
 120.5890012   1.0534997  31.6179988 121.2180564   1.5045902  32.0144560
 122.5960012   5.7474997  35.6569988 122.3600012   5.5274997  36.5589988
 121.8120012   5.5404997  35.1469988 122.4578628   5.6894760  35.7113932
 125.3110012   4.8744997  34.7329988 124.3640012   4.9064997  34.8649988
 125.6240012   4.2494997  35.3859988 125.2235475   4.7943207  34.8394455
 126.9450012   3.5084997  36.7379988 126.8490012   2.5564997  36.7319988
 126.6240012   3.7774997  37.5979988 126.8884070   3.4144035  36.8535441
 116.7720012   4.7184997  35.7849988 116.9840012   4.0114997  35.1749988
 116.6610012   4.2804997  36.6289988 116.7859721   4.5627084  35.8156843
 121.5530012   0.7194997  34.7649988 122.2650012   0.0794997  34.7509988
 121.4520012   0.9864997  33.8509988 121.6367939   0.6679938  34.6395650
 121.9070012   2.4024997  36.8179988 121.7750012   1.9264997  35.9979988
 121.3080012   3.1464997  36.7629988 121.8079071   2.4379618  36.6982886
 121.4530012  19.2854997  19.9949988 122.3860012  19.4434997  20.1379988
 121.1890012  19.9604997  19.3699988 121.5449510  19.3983611  19.9300741
 115.0220012  13.9214997  19.4769988 115.9360012  14.0004997  19.7509988
 115.0290012  13.2344997  18.8109988 115.1481131  13.8393961  19.4244393
 113.6710012  19.3144997  24.5549988 113.0240012  18.8524997  24.0219988
 114.0250012  18.6424997  25.1369988 113.6303849  19.1604723  24.5607959
 114.5410012  17.3954997  26.3589988 114.2060012  16.5154997  26.5309988
 114.7630012  17.7404997  27.2239988 114.5251783  17.3217500  26.4994208
 132.0890012  18.2044997  29.3399988 132.0680012  18.3894997  30.2789988
 132.7800012  18.7734997  28.9989988 132.1794618  18.3066606  29.4223864
 131.6530012  17.7724997  32.2619988 131.1650012  17.0364997  31.8909988
 132.2020012  17.3784997  32.9399988 131.6604872  17.6186249  32.3029160
 130.1030012  13.5614997  36.8999988 129.2370012  13.4564997  37.2939988
 130.4800012  14.3204997  37.3459988 130.0353308  13.6496900  37.0142393
 131.4040012  11.8184997  22.4139988 132.2540012  12.2394997  22.5409988
 131.4100012  11.0784997  23.0209988 131.5211372  11.7760803  22.5134344
 131.7990012   9.8714997  24.2379988 131.0720012   9.3924997  24.6349988
 132.3800012  10.0774997  24.9699988 131.7779375   9.8337090  24.3914129
 131.5580012  12.6564997  29.1849988 132.3910012  12.2784997  28.9049988
 131.6700012  13.5994997  29.0659988 131.6872647  12.7322218  29.1305487
 130.0440012  15.5344997  31.4919988 129.3970012  15.8594997  32.1179988
 129.5270012  15.0944997  30.8179988 129.8854029  15.5195004  31.4865827
 132.0670012   9.7724997  20.6289988 131.5450012  10.1294997  19.9099988
 132.0340012  10.4474997  21.3069988 131.9911634   9.9125413  20.6223145
 130.4160012   7.0124997  19.1799988 130.5120012   7.6794997  18.4989988
 130.2760012   6.1964997  18.6979988 130.4102135   6.9934500  19.0218491
 129.5850012   8.3924997  24.8009988 129.4350012   7.4474997  24.7799988
 129.2320012   8.6734997  25.6439988 129.5166625   8.3010441  24.9122346
 114.6210012  10.4704997  28.8109988 114.8050012  10.3884997  27.8749988
 115.4700012  10.3464997  29.2349988 114.7610139  10.4425003  28.7401455
 130.4420012  10.3624997  34.4389988 131.0250012   9.6284997  34.6309988
 131.0060012  11.1344997  34.4859988 130.5979769  10.3664227  34.4716159
 131.9380012   8.2654997  35.1239988 131.0750012   7.8864997  34.9579988
 132.5430012   7.5264997  35.0499988 131.9015979   8.1138023  35.0912817
 129.6630012   4.4204997  18.2969988 130.2740012   4.0494997  18.9339988
 128.8270012   3.9994997  18.4929988 129.6335032   4.3127554  18.4107035
 129.2960012   5.9754997  23.2629988 129.5760012   5.0684997  23.3869988
 130.0550012   6.4094997  22.8739988 129.4369277   5.9100942  23.2273682
 129.9080012   6.5564997  28.6989988 130.8410012   6.7684997  28.6649988
 129.6730012   6.6584997  29.6209988 130.0038036   6.5992769  28.8189976
 129.9370012   7.2934997  31.4749988 129.0940012   7.5614997  31.8409988
 130.3790012   8.1154997  31.2639988 129.8814158   7.4413291  31.4965491
 114.2180012   5.7414997  34.9519988 115.1380012   5.6194997  35.1879988
 113.7690012   4.9914997  35.3409988 114.2831580   5.6233727  35.0369006
 132.2200012   1.2734997  36.8279988 132.5700012   0.6194997  36.2229988
 132.3670012   2.1104997  36.3889988 132.2878419   1.2971591  36.6857118
 129.9090012   3.2384997  23.3109988 130.0920012   2.7894997  24.1369988
 129.3100012   2.6534997  22.8479988 129.8530202   3.0979975  23.3613275
 115.4390012   4.0534997  27.8429988 115.8850012   3.2614997  28.1449988
 115.9060012   4.7694997  28.2739988 115.5630172   4.0420624  27.9424820
 113.7430012   7.0524997  28.9119988 114.2350012   6.8314997  28.1209988
 114.1060012   7.8934997  29.1929988 113.8593126   7.1358357  28.8417531
 131.7400012   3.3824997  35.1779988 130.8220012   3.6534997  35.1419988
 131.8630012   2.8474997  34.3929988 131.6311066   3.3472892  35.0670487
 131.7760012   3.3054997  19.8389988 132.1880012   2.5844997  19.3639988
 132.4580012   3.9754997  19.8979988 131.9245885   3.2972368  19.7818915
 114.0570012   3.3104997  22.9659988 113.1320012   3.5194997  22.8369988
 114.5110012   3.7944997  22.2769988 113.9917368   3.4045993  22.8551226
 128.8280012  18.2944997  24.9119988 129.4800012  17.9474997  24.3039988
 129.3380012  18.7834997  25.5579988 128.9862637  18.3130597  24.9160236
 114.0210012   2.0484997  31.3109988 113.3560012   1.8024997  31.9539988
 113.5780012   2.6704997  30.7329988 113.8700956   2.0988632  31.3209352
 116.2130012  15.2234997  35.4549988 115.3920012  15.3984997  34.9949988
 115.9600012  15.1504997  36.3759988 116.0666164  15.2375622  35.5164923
 119.1670012  16.1984997  31.7139988 118.7420012  17.0074997  31.4309988
 120.0710012  16.2834997  31.4119988 119.2310271  16.3208469  31.6343776
 123.4780012  17.5974997  34.6729988 123.6630012  17.2634997  35.5509988
 124.3240012  17.9064997  34.3509988 123.6177539  17.5936047  34.7495605
 125.8230012  18.8834997  33.9169988 126.5000012  18.2504997  33.6769988
 126.1450012  19.2844997  34.7239988 125.9591637  18.8511154  33.9932793
 130.7400012   1.4724997  32.9969988 129.9280012   1.7974997  32.6089988
 130.9730012   0.7124997  32.4639988 130.6603423   1.4142436  32.8718253
 116.5690012  19.4544997  31.7609988 115.8480012  19.8944997  31.3099988
 116.2030012  19.2034997  32.6099988 116.4209804  19.4807698  31.8139840
 119.0360012  19.0544997  30.7909988 118.1710012  19.1264997  31.1949988
 118.9810012  19.6014997  30.0069988 118.9102085  19.1382685  30.7403362
 123.7460012  18.9424997  29.9659988 123.2900012  19.4714997  29.3119988
 123.9090012  19.5454997  30.6919988 123.7055585  19.0964468  29.9745062
 126.0740012  17.8204997  30.9109988 125.1690012  17.9854997  30.6459988
 126.5030012  18.6734997  30.8459988 126.0080799  17.9584483  30.8659182
 128.6780012  19.3904997  31.2059988 128.4960012  20.3064997  30.9959988
 128.8550012  18.9804997  30.3599988 128.6770210  19.4604822  31.0627885
 115.9830012  18.0774997  28.6709988 115.9650012  17.6524997  29.5289988
 116.7880012  17.7594997  28.2629988 116.0893875  17.9763812  28.7331655
 118.1250012  16.7874997  27.3259988 117.9060012  15.8714997  27.4959988
 118.9490012  16.9274997  27.7919988 118.2064420  16.6810520  27.4122774
 120.6620012  17.2574997  28.1749988 120.8750012  16.3694997  27.8879988
 120.7260012  17.2234997  29.1289988 120.6998232  17.1313102  28.2647397
 124.1700012   2.9214997  27.3189988 123.4960012   2.2924997  27.5749988
 124.7340012   2.4374997  26.7159988 124.1539230   2.7698744  27.2725340
 129.3130012   1.0294997  27.4319988 129.9170012   1.5764997  26.9299988
 128.4430012   1.3484997  27.1919988 129.2781241   1.1475806  27.3307654
 131.0400012   2.1674997  25.7649988 131.6520012   1.6534997  25.2389988
 131.4220012   3.0454997  25.7889988 131.1754540   2.2157140  25.6961830
 116.4970012   1.5554997  25.1409988 115.7200012   1.3214997  24.6339988
 117.0270012   0.7584997  25.1499988 116.4622330   1.4156988  25.0727742
 115.3330012   1.3534997  20.9449988 115.7720012   1.9644997  20.3529988
 114.7000012   1.8914997  21.4189988 115.3074514   1.5099257  20.9280930
 121.0760012   1.4824997  24.9549988 121.9510012   1.8704997  24.9249988
 120.9400012   1.2674997  25.8769988 121.1773695   1.5065184  25.0756440
 126.6330012   1.5124997  26.6039988 126.7090012   1.6074997  25.6539988
 126.3580012   0.6044997  26.7329988 126.6062321   1.4027867  26.4915079
 127.9860012   1.5384997  22.2959988 127.2840012   2.1534997  22.0869988
 127.5420012   0.7004997  22.4269988 127.8296330   1.5095783  22.2850328
 115.2340012  17.3014997  21.8429988 114.5490012  17.2634997  21.1749988
 115.2380012  18.2144997  22.1309988 115.1408193  17.4197016  21.7905284
 117.1940012   3.2694997  19.3869988 117.6860012   2.6394997  18.8599988
 117.8180012   3.5654997  20.0509988 117.3455446   3.2233199  19.4045980
 122.2200012   3.5624997  21.8439988 122.3980012   2.9164997  22.5269988
 122.1670012   4.3964997  22.3119988 122.2371829   3.5867985  22.0005940
 124.0990012  18.5114997  20.2399988 124.9650012  18.8774997  20.0619988
 123.8520012  18.0714997  19.4259988 124.1842392  18.5021756  20.1056289
 130.8080012  18.0744997  22.9189988 130.6130012  17.3264997  22.3539988
 130.7690012  18.8324997  22.3359988 130.7760380  18.0746099  22.7628384
 116.4550012   2.0694997  34.6589988 116.0890012   1.3044997  35.1019988
 117.3680012   2.0984997  34.9459988 116.5282790   1.9687224  34.7584070
 118.4280012   1.4204997  36.1949988 119.3260012   1.1464997  36.0099988
 118.0410012   0.6774997  36.6589988 118.4986612   1.2825914  36.2323643
 117.0520012  18.2214997  18.8679988 116.7850012  18.5084997  19.7409988
 117.8240012  17.6754997  19.0199988 117.1197488  18.1870294  19.0081050
 126.8490012   0.7524997  36.3769988 126.9260012   0.3264997  37.2309988
 127.7430012   0.7664997  36.0339988 126.9803428   0.6960879  36.4475310
 130.0250012  16.8254997  35.0689988 129.2430012  16.6394997  34.5499988
 129.9530012  17.7544997  35.2869988 129.9081777  16.9256492  35.0274048
 144.4310012  10.7114997  25.0999988 144.5200012  11.6554997  24.9679988
 143.7930012  10.4364997  24.4419988 144.3569081  10.8034830  24.9929614
 143.3640012   9.9664997  28.5189988 143.3260012   9.3204997  29.2239988
 143.0420012   9.5004997  27.7479988 143.3152333   9.8149408  28.5112978
 135.7330012   9.5814997  30.1119988 135.7740012   8.9554997  30.8349988
 136.4360012  10.2054997  30.2939988 135.8336363   9.5801196  30.2356044
 136.6560012  14.0314997  28.6469988 136.2870012  13.2294997  28.2769988
 137.5970012  13.8624997  28.6929988 136.7327289  13.8990153  28.6026316
 133.2660012   7.6914997  24.0399988 132.8190012   8.5374997  24.0209988
 132.7050012   7.1114997  23.5239988 133.1289900   7.7289916  23.9676801
 133.9770012   9.8534997  26.1659988 134.1900012   9.0834997  26.6929988
 134.7150012   9.9424997  25.5619988 134.1058496   9.7601394  26.1565300
 144.1820012  18.0104997  27.0329988 144.8020012  17.3334997  26.7589988
 143.9740012  17.7924997  27.9409988 144.2386904  17.8883870  27.1183365
 141.7540012  12.3994997  28.9249988 142.0580012  11.7134997  28.3299988
 142.4750012  12.5174997  29.5429988 141.8930671  12.3216304  28.9271816
 144.8950012   6.7934997  29.2529988 145.0370012   5.8474997  29.2729988
 144.7880012   7.0004997  28.3239988 144.8999863   6.6919534  29.1302339
 138.0490012   4.8944997  26.5249988 138.0930012   5.7544997  26.1069988
 137.5920012   4.3424997  25.8909988 137.9932185   4.9375799  26.3820299
 134.6700012   7.2914997  27.2869988 135.3230012   6.7414997  27.7189988
 134.6940012   7.0174997  26.3699988 134.7626683   7.1791466  27.2222123
 139.8260012   8.8414997  26.5019988 140.4420012   8.3154997  27.0119988
 139.2400012   8.2014997  26.0989988 139.8310810   8.6829208  26.5173173
 136.8600012   3.8124997  30.5989988 136.6410012   4.3424997  29.8329988
 136.1920012   4.0394997  31.2459988 136.7397600   3.9156906  30.5816379
 144.2290012  13.3124997  24.1429988 143.9330012  12.9904997  23.2919988
 143.9040012  14.2124997  24.1839988 144.1446371  13.3900215  24.0321801
 139.4290012  11.4884997  30.8859988 138.6890012  12.0864997  30.9899988
 140.1430012  12.0424997  30.5709988 139.4242237  11.6452831  30.8576465
 136.4530012   5.7044997  28.5509988 137.0670012   6.3374997  28.9249988
 136.9650012   5.2324997  27.8949988 136.6062296   5.7272370  28.5134252
 137.8360012  13.4524997  31.6739988 137.8310012  14.3324997  31.2959988
 136.9830012  13.3694997  32.0989988 137.7199464  13.5616117  31.6797907
 133.9570012  13.1234997  22.4559988 133.6850012  13.3524997  21.5669988
 134.0030012  13.9614997  22.9159988 133.9260094  13.2681213  22.3965697
 140.8860012   1.1184997  28.0519988 140.7690012   0.1694997  27.9969988
 140.0310012   1.4504997  28.3249988 140.7543733   1.0335409  28.0813897
 143.1530012   9.9554997  22.5519988 142.4410012  10.4904997  22.1999988
 143.8440012  10.0114997  21.8919988 143.1490132  10.0362543  22.4146289
 143.2060012   8.4134997  19.5909988 143.9070012   8.4354997  20.2419988
 143.5090012   7.7854997  18.9349988 143.3427830   8.3316566  19.5913711
 138.2040012  10.7954997  25.3859988 137.8730012  10.4254997  24.5679988
 138.7920012  10.1254997  25.7329988 138.2381873  10.6541156  25.3208102
 139.5700012  14.2234997  28.0679988 139.4760012  13.6454997  27.3109988
 140.3000012  13.8524997  28.5639988 139.6557981  14.0942390  28.0314165
 138.5700012   9.5644997  29.0199988 139.1360012   9.6854997  28.2569988
 138.8890012  10.2014997  29.6589988 138.6905786   9.6671884  29.0020040
 144.8790012  15.0674997  29.7539988 144.6390012  15.7294997  30.4019988
 144.6810012  14.2334997  30.1789988 144.8193808  15.0453134  29.9001524
 139.4500012  13.9634997  33.7369988 139.1390012  14.7454997  34.1919988
 138.8000012  13.8104997  33.0509988 139.3195558  14.0499105  33.7065871
 136.3700012  10.1614997  32.9659988 136.4410012  10.8124997  33.6639988
 135.4800012  10.2644997  32.6309988 136.2593117  10.2645936  33.0162700
 143.1560012  16.0644997  24.6239988 143.6300012  16.3594997  25.4019988
 142.5930012  16.8024997  24.3909988 143.1447653  16.2046932  24.6990136
 137.6900012  16.0354997  34.4999988 137.6970012  15.8994997  33.5529988
 136.7740012  15.9174997  34.7519988 137.5671714  16.0009430  34.4044666
 137.1940012   9.8654997  22.9759988 136.9020012  10.6334997  22.4849988
 136.5200012   9.2054997  22.8129988 137.0629081   9.8814406  22.8867340
 133.2870012  12.2284997  31.7909988 132.7860012  12.2004997  30.9759988
 133.2920012  11.3224997  32.0999988 133.2191526  12.1022278  31.7212872
 133.0370012  15.0084997  28.6749988 133.9830012  14.8644997  28.6559988
 132.9250012  15.7924997  29.2119988 133.1512727  15.0948046  28.7450072
 142.2140012  15.2484997  33.2329988 142.3010012  16.0744997  33.7079988
 141.3500012  14.9184997  33.4819988 142.1091964  15.3169878  33.3316549
 142.6280012  19.0204997  23.0389988 142.5530012  18.8994997  22.0929988
 142.6610012  19.9704997  23.1579988 142.6221848  19.1322500  22.9254834
 136.2810012  17.8094997  24.8199988 136.4340012  17.4614997  25.6989988
 135.4310012  17.4534997  24.5649988 136.1868962  17.7136650  24.9058340
 135.5360012  13.5514997  32.8339988 135.7520012  13.1904997  33.6929988
 134.6810012  13.1774997  32.6239988 135.4499292  13.4514111  32.9233386
 138.1550012   2.0214997  28.8289988 137.2930012   1.9344997  28.4219988
 138.1320012   2.8774997  29.2569988 138.0340330   2.1252765  28.8311863
 142.8180012   1.7434997  32.2039988 143.2380012   1.3284997  32.9569988
 141.8850012   1.5654997  32.3209988 142.7493644   1.6625900  32.3229539
 142.4790012   4.2364997  19.4889988 142.2260012   4.2554997  20.4119988
 142.2230012   3.3644997  19.1879988 142.4097790   4.1212437  19.5746263
 138.2460012   6.9874997  29.9239988 137.6040012   6.9464997  30.6329988
 138.2830012   7.9134997  29.6869988 138.1631324   7.1071559  29.9889824
 138.2430012   7.2084997  24.8359988 137.3500012   6.8674997  24.7779988
 138.6930012   6.8314997  24.0809988 138.1817305   7.1108484  24.7259177
 143.7780012   7.6244997  23.6529988 143.3690012   8.4394997  23.3619988
 144.4990012   7.4844997  23.0389988 143.8194537   7.7172018  23.5301342
 142.8800012   7.7994997  35.1409988 142.3180012   7.0954997  35.4619988
 143.7070012   7.6794997  35.6089988 142.9147095   7.6867883  35.2482330
 144.7830012   7.0704997  26.4669988 144.5880012   7.6754997  25.7519988
 144.9640012   6.2364997  26.0329988 144.7807614   7.0406300  26.3104405
 135.9960012   7.3074997  31.7909988 135.9580012   7.7074997  32.6599988
 135.5050012   6.4904997  31.8819988 135.9244684   7.2518069  31.9221059
 139.3620012   4.6814997  18.5899988 138.9310012   4.2364997  19.3199988
 138.6440012   5.0534997  18.0779988 139.2059438   4.6708940  18.6206799
 132.6040012   4.4234997  25.6419988 133.2350012   4.3944997  26.3609988
 133.0530012   3.9984997  24.9119988 132.7510774   4.3620492  25.6416553
 133.8780012   5.1694997  21.0659988 134.3520012   5.7604997  20.4809988
 133.1610012   5.7004997  21.4129988 133.8459341   5.3220867  21.0328836
 144.0470012   8.7084997  31.1389988 144.3700012   8.0774997  30.4959988
 143.6070012   8.1734997  31.7989988 144.0316895   8.5498440  31.1402850
 140.8240012   4.6354997  25.9229988 139.9130012   4.6924997  26.2109988
 141.3300012   4.5754997  26.7329988 140.7675413   4.6351985  26.0720622
 135.6530012   6.2644997  24.7489988 134.7630012   6.3644997  24.4089988
 135.9490012   5.4224997  24.4029988 135.5712823   6.1643546  24.6557213
 139.3060012   6.2644997  22.4059988 140.2370012   6.3934997  22.5839988
 139.0910012   6.9344997  21.7559988 139.4044247   6.3726565  22.3425747
 137.9800012   7.4594997  19.9729988 137.4370012   7.0794997  19.2809988
 138.8130012   7.6534997  19.5439988 138.0184399   7.4338124  19.8204526
 136.1150012  12.0164997  35.0719988 136.8470012  12.2704997  35.6329988
 135.3350012  12.2204997  35.5869988 136.1098232  12.0789177  35.2185760
 142.1440012   7.4234997  27.8099988 142.7090012   6.8764997  27.2629988
 141.9970012   6.9014997  28.5979988 142.2012918   7.2782024  27.8418454
 137.1460012   3.5594997  24.2279988 136.8290012   2.6574997  24.1929988
 137.9280012   3.5614997  23.6749988 137.2082284   3.4361628  24.1484783
 140.7710012   5.8114997  30.2239988 139.9350012   6.2654997  30.3339988
 141.2950012   6.0874997  30.9759988 140.7274414   5.9109376  30.3407136
 141.3150012  12.0244997  21.9079988 140.5700012  11.5174997  21.5859988
 141.1810012  12.0734997  22.8549988 141.1948776  11.9616940  21.9918647
 142.8340012  12.2084997  33.1449988 142.4890012  11.8274997  33.9519988
 142.6340012  13.1424997  33.2169988 142.7598061  12.2825228  33.2650961
 136.4400012  11.3194997  27.6779988 137.1850012  11.3174997  27.0769988
 136.5180012  10.4964997  28.1599988 136.5525518  11.2079315  27.6608929
 143.4410012  13.4834997  20.9339988 143.1450012  14.3094997  21.3149988
 142.7380012  12.8634997  21.1299988 143.3054914  13.5128199  21.0126443
 133.4480012   9.7804997  32.9929988 133.6710012   9.3624997  33.8249988
 132.8460012   9.1674997  32.5699988 133.3971759   9.6404668  33.0497022
 140.4640012   9.2974997  35.2059988 140.1680012   9.1314997  34.3109988
 141.3960012   9.0774997  35.1949988 140.5494166   9.2450640  35.0820536
 138.8150012  14.8374997  25.0819988 139.3420012  15.6104997  24.8819988
 137.9350012  15.0624997  24.7809988 138.7681773  14.9738005  25.0139010
 134.5700012   9.6994997  19.6689988 135.1860012  10.3264997  20.0489988
 133.7080012  10.0154997  19.9409988 134.5377698   9.8279430  19.7577183
 140.2420012  12.5004997  24.6589988 140.0010012  13.4254997  24.6999988
 139.5010012  12.0414997  25.0549988 140.1088409  12.5651421  24.7181377
 140.7570012  16.6494997  30.9739988 141.1190012  17.5044997  30.7399988
 141.2880012  16.3574997  31.7139988 140.8784473  16.7271060  31.0420855
 138.9250012  17.5224997  24.2039988 137.9750012  17.6274997  24.2549988
 139.2770012  18.3424997  24.5489988 138.8424203  17.6478314  24.2576650
 144.3010012  12.7484997  30.6739988 143.8750012  12.5214997  31.5009988
 144.8810012  12.0104997  30.4919988 144.3211868  12.6175299  30.7625830
 135.0820012   4.5334997  32.5509988 134.1890012   4.8724997  32.4829988
 134.9830012   3.6784997  32.9689988 134.9464164   4.4642588  32.5982235
 134.7330012  16.3384997  30.9859988 134.9500012  15.4064997  30.9549988
 134.9790012  16.6124997  31.8689988 134.7959549  16.2480636  31.1011763
 140.5950012  14.7894997  18.1949988 140.8340012  14.0414997  17.6479988
 140.3260012  14.4014997  19.0279988 140.5913675  14.6346638  18.2326865
 139.5320012  14.3594997  20.6519988 139.6780012  13.8394997  21.4419988
 139.5290012  15.2664997  20.9579988 139.5515989  14.4108853  20.8016088
 135.9850012  11.6124997  21.1619988 135.2990012  11.9644997  21.7289988
 136.5070012  12.3754997  20.9149988 135.9616852  11.7638578  21.2062118
 143.8160012   4.2744997  31.4409988 144.5150012   4.3484997  32.0909988
 143.4350012   3.4104997  31.5949988 143.8601767   4.1677624  31.5508322
 144.6010012   3.9264997  22.5379988 144.8210012   4.3984997  21.7349988
 145.1590012   4.3214997  23.2079988 144.7064968   4.0444285  22.5187331
 142.2690012  16.0574997  21.4009988 141.4530012  16.5544997  21.4529988
 142.7990012  16.5324997  20.7609988 142.2289161  16.1897722  21.3215956
 141.8010012   5.6544997  23.3729988 142.6130012   6.1594997  23.4189988
 141.5560012   5.5094997  24.2869988 141.8790520   5.7040375  23.5028517
 142.3360012   6.6404997  32.5579988 142.4550012   7.2144997  33.3149988
 142.9920012   5.9524997  32.6719988 142.4409757   6.6261079  32.6770825
 142.6840012   2.7354997  24.3109988 142.3380012   3.3534997  24.9559988
 143.3430012   3.2364997  23.8299988 142.7257826   2.8875802  24.3340971
 139.6080012  17.1014997  21.3829988 139.7680012  17.9004997  20.8819988
 139.4100012  17.4074997  22.2679988 139.6031649  17.2524469  21.4339815
 138.3420012   3.7984997  20.9979988 138.2590012   4.6874997  21.3449988
 139.2320012   3.5334997  21.2299988 138.4509469   3.8841430  21.0767626
 136.6010012  14.2264997  20.0589988 137.1930012  14.9254997  20.3349988
 137.0600012  13.7934997  19.3389988 136.7441142  14.2637049  19.9994830
 134.9170012   6.8904997  19.1749988 134.8720012   7.8294997  19.3529988
 134.0290012   6.6544997  18.9049988 134.7908574   6.9871892  19.1628912
 135.7250012   1.6724997  27.8479988 135.4960012   1.7314997  26.9199988
 135.2820012   0.8804997  28.1539988 135.6338530   1.5735753  27.7624786
 134.6550012  15.6124997  24.0079988 133.8230012  16.0854997  24.0359988
 135.2010012  16.1224997  23.4099988 134.6149739  15.7461871  23.9309716
 133.9430012  18.2254997  35.3379988 134.4840012  18.0084997  36.0979988
 133.4620012  17.4194997  35.1489988 133.9519345  18.0869514  35.4163076
 138.5410012  17.1444997  36.9589988 139.3080012  16.6854997  37.2999988
 138.5190012  16.9184997  36.0289988 138.6431434  17.0510409  36.8800043
 142.6330012  16.6524997  18.3339988 141.9890012  16.0214997  18.6549988
 143.3950012  16.1214997  18.1019988 142.6478077  16.4942920  18.3466011
 133.8500012  12.0354997  36.2929988 133.9940012  11.1334997  36.0059988
 133.0780012  12.3214997  35.8049988 133.7653322  11.9508261  36.1877881
 138.1920012  12.3794997  18.4249988 138.2560012  11.5854997  18.9559988
 138.8450012  12.2604997  17.7349988 138.2890241  12.2547148  18.4044317
 140.5060012  12.0054997  35.7249988 140.1770012  12.2764997  34.8679988
 140.6580012  11.0644997  35.6379988 140.4814809  11.9153862  35.5958244
 143.5440012  13.4264997  18.1609988 143.2750012  13.6064997  19.0619988
 143.3380012  12.5004997  18.0299988 143.4793825  13.3260152  18.2665214
 134.6830012   9.2354997  35.7129988 135.0910012   8.3784997  35.5919988
 134.4230012   9.2504997  36.6339988 134.7037568   9.1200807  35.8209588
 139.3410012  10.3514997  20.7309988 138.8810012   9.8674997  21.4169988
 139.5960012   9.6834997  20.0949988 139.3124902  10.1948731  20.7389334
 138.6300012   8.2444997  33.0869988 138.0120012   8.9194997  33.3669988
 138.9740012   8.5654997  32.2539988 138.5919615   8.3802721  33.0126581
 140.4120012   8.5944997  18.9929988 140.2320012   8.4404997  18.0659988
 141.3620012   8.7024997  19.0379988 140.5157776   8.5880175  18.8721843
 143.6500012  10.7164997  36.3639988 144.6030012  10.7994997  36.3369988
 143.4890012  10.0044997  36.9839988 143.7586426  10.6316746  36.4440579
 138.9690012   5.5994997  34.1689988 139.1190012   4.8704997  33.5669988
 138.9720012   6.3764997  33.6099988 138.9899302   5.6047851  34.0110692
 139.3820012   3.9694997  31.6619988 139.9180012   4.4204997  31.0099988
 138.5300012   3.8614997  31.2389988 139.3402178   4.0166390  31.5155756
 140.9640012   9.4084997  31.9009988 141.7140012   9.2524997  31.3279988
 140.6250012  10.2604997  31.6259988 141.0208921   9.5022968  31.7853561
 137.4480012   6.7974997  36.0809988 136.6810012   6.2654997  35.8709988
 138.1270012   6.4874997  35.4809988 137.4347022   6.6827506  35.9711648
 140.1880012   1.4254997  32.0929988 140.0890012   2.3724997  31.9879988
 139.4450012   1.0534997  31.6179988 140.0740564   1.5045902  32.0144560
 141.4520012   5.7474997  35.6569988 141.2160012   5.5274997  36.5589988
 140.6680012   5.5404997  35.1469988 141.3138628   5.6894760  35.7113932
 144.1670012   4.8744997  34.7329988 143.2200012   4.9064997  34.8649988
 144.4800012   4.2494997  35.3859988 144.0795475   4.7943207  34.8394455
 135.6280012   4.7184997  35.7849988 135.8400012   4.0114997  35.1749988
 135.5170012   4.2804997  36.6289988 135.6419721   4.5627084  35.8156843
 140.4090012   0.7194997  34.7649988 141.1210012   0.0794997  34.7509988
 140.3080012   0.9864997  33.8509988 140.4927939   0.6679938  34.6395650
 140.7630012   2.4024997  36.8179988 140.6310012   1.9264997  35.9979988
 140.1640012   3.1464997  36.7629988 140.6639071   2.4379618  36.6982886
 140.3090012  19.2854997  19.9949988 141.2420012  19.4434997  20.1379988
 140.0450012  19.9604997  19.3699988 140.4009510  19.3983611  19.9300741
 133.8780012  13.9214997  19.4769988 134.7920012  14.0004997  19.7509988
 133.8850012  13.2344997  18.8109988 134.0041131  13.8393961  19.4244393
 132.5270012  19.3144997  24.5549988 131.8800012  18.8524997  24.0219988
 132.8810012  18.6424997  25.1369988 132.4863849  19.1604723  24.5607959
 133.3970012  17.3954997  26.3589988 133.0620012  16.5154997  26.5309988
 133.6190012  17.7404997  27.2239988 133.3811783  17.3217501  26.4994208
 133.4770012  10.4704997  28.8109988 133.6610012  10.3884997  27.8749988
 134.3260012  10.3464997  29.2349988 133.6170139  10.4425003  28.7401455
 133.0740012   5.7414997  34.9519988 133.9940012   5.6194997  35.1879988
 132.6250012   4.9914997  35.3409988 133.1391580   5.6233727  35.0369006
 134.2950012   4.0534997  27.8429988 134.7410012   3.2614997  28.1449988
 134.7620012   4.7694997  28.2739988 134.4190172   4.0420624  27.9424820
 132.5990012   7.0524997  28.9119988 133.0910012   6.8314997  28.1209988
 132.9620012   7.8934997  29.1929988 132.7153126   7.1358357  28.8417531
 132.9130012   3.3104997  22.9659988 131.9880012   3.5194997  22.8369988
 133.3670012   3.7944997  22.2769988 132.8477368   3.4045993  22.8551226
 132.8770012   2.0484997  31.3109988 132.2120012   1.8024997  31.9539988
 132.4340012   2.6704997  30.7329988 132.7260956   2.0988632  31.3209352
 135.0690012  15.2234997  35.4549988 134.2480012  15.3984997  34.9949988
 134.8160012  15.1504997  36.3759988 134.9226164  15.2375622  35.5164923
 138.0230012  16.1984997  31.7139988 137.5980012  17.0074997  31.4309988
 138.9270012  16.2834997  31.4119988 138.0870271  16.3208469  31.6343776
 142.3340012  17.5974997  34.6729988 142.5190012  17.2634997  35.5509988
 143.1800012  17.9064997  34.3509988 142.4737539  17.5936047  34.7495605
 144.6790012  18.8834997  33.9169988 145.3560012  18.2504997  33.6769988
 145.0010012  19.2844997  34.7239988 144.8151637  18.8511154  33.9932793
 135.4250012  19.4544997  31.7609988 134.7040012  19.8944997  31.3099988
 135.0590012  19.2034997  32.6099988 135.2769804  19.4807698  31.8139840
 137.8920012  19.0544997  30.7909988 137.0270012  19.1264997  31.1949988
 137.8370012  19.6014997  30.0069988 137.7662085  19.1382685  30.7403362
 142.6020012  18.9424997  29.9659988 142.1460012  19.4714997  29.3119988
 142.7650012  19.5454997  30.6919988 142.5615585  19.0964468  29.9745062
 134.8390012  18.0774997  28.6709988 134.8210012  17.6524997  29.5289988
 135.6440012  17.7594997  28.2629988 134.9453875  17.9763812  28.7331655
 136.9810012  16.7874997  27.3259988 136.7620012  15.8714997  27.4959988
 137.8050012  16.9274997  27.7919988 137.0624420  16.6810520  27.4122774
 139.5180012  17.2574997  28.1749988 139.7310012  16.3694997  27.8879988
 139.5820012  17.2234997  29.1289988 139.5558232  17.1313102  28.2647397
 143.0260012   2.9214997  27.3189988 142.3520012   2.2924997  27.5749988
 143.5900012   2.4374997  26.7159988 143.0099230   2.7698744  27.2725340
 135.3530012   1.5554997  25.1409988 134.5760012   1.3214997  24.6339988
 135.8830012   0.7584997  25.1499988 135.3182330   1.4156988  25.0727742
 134.1890012   1.3534997  20.9449988 134.6280012   1.9644997  20.3529988
 133.5560012   1.8914997  21.4189988 134.1634514   1.5099257  20.9280930
 139.9320012   1.4824997  24.9549988 140.8070012   1.8704997  24.9249988
 139.7960012   1.2674997  25.8769988 140.0333695   1.5065184  25.0756440
 134.0900012  17.3014997  21.8429988 133.4050012  17.2634997  21.1749988
 134.0940012  18.2144997  22.1309988 133.9968193  17.4197016  21.7905284
 136.0500012   3.2694997  19.3869988 136.5420012   2.6394997  18.8599988
 136.6740012   3.5654997  20.0509988 136.2015446   3.2233199  19.4045980
 141.0760012   3.5624997  21.8439988 141.2540012   2.9164997  22.5269988
 141.0230012   4.3964997  22.3119988 141.0931829   3.5867985  22.0005940
 142.9550012  18.5114997  20.2399988 143.8210012  18.8774997  20.0619988
 142.7080012  18.0714997  19.4259988 143.0402392  18.5021756  20.1056289
 135.3110012   2.0694997  34.6589988 134.9450012   1.3044997  35.1019988
 136.2240012   2.0984997  34.9459988 135.3842790   1.9687224  34.7584070
 137.2840012   1.4204997  36.1949988 138.1820012   1.1464997  36.0099988
 136.8970012   0.6774997  36.6589988 137.3546612   1.2825914  36.2323643
 135.9080012  18.2214997  18.8679988 135.6410012  18.5084997  19.7409988
 136.6800012  17.6754997  19.0199988 135.9757488  18.1870294  19.0081050
  12.4390012  29.5674997  25.0999988  12.5280012  30.5114997  24.9679988
  11.8010012  29.2924997  24.4419988  12.3649081  29.6594830  24.9929614
  11.3720012  28.8224997  28.5189988  11.3340012  28.1764997  29.2239988
  11.0500012  28.3564997  27.7479988  11.3232333  28.6709408  28.5112978
   3.7410012  28.4374997  30.1119988   3.7820012  27.8114997  30.8349988
   4.4440012  29.0614997  30.2939988   3.8416363  28.4361196  30.2356044
  15.0780012  31.7614997  26.8199988  14.6380012  31.0414997  27.2709988
  15.0650012  32.4824997  27.4499988  15.0160226  31.7603731  26.9668494
   4.6640012  32.8874997  28.6469988   4.2950012  32.0854997  28.2769988
   5.6050012  32.7184997  28.6929988   4.7407289  32.7550153  28.6026316
   1.2740012  26.5474997  24.0399988   0.8270012  27.3934997  24.0209988
   0.7130012  25.9674997  23.5239988   1.1369900  26.5849916  23.9676801
   1.9850012  28.7094997  26.1659988   2.1980012  27.9394997  26.6929988
   2.7230012  28.7984997  25.5619988   2.1138496  28.6161394  26.1565300
  12.1900012  36.8664997  27.0329988  12.8100012  36.1894997  26.7589988
  11.9820012  36.6484997  27.9409988  12.2466904  36.7443870  27.1183365
   9.7620012  31.2554997  28.9249988  10.0660012  30.5694997  28.3299988
  10.4830012  31.3734997  29.5429988   9.9010671  31.1776304  28.9271816
  18.4250012  22.8564997  29.7859988  18.4740012  23.4664997  30.5219988
  18.8500012  23.3174997  29.0629988  18.4891824  23.0023741  29.7890205
  12.9030012  25.6494997  29.2529988  13.0450012  24.7034997  29.2729988
  12.7960012  25.8564997  28.3239988  12.9079864  25.5479534  29.1302339
   6.0570012  23.7504997  26.5249988   6.1010012  24.6104997  26.1069988
   5.6000012  23.1984997  25.8909988   6.0012185  23.7935799  26.3820299
  13.7800012  23.8814997  24.9259988  14.4260012  23.5524997  25.5509988
  14.2900012  24.3994997  24.3029988  13.9374264  23.9064611  24.9273862
   2.6780012  26.1474997  27.2869988   3.3310012  25.5974997  27.7189988
   2.7020012  25.8734997  26.3699988   2.7706683  26.0351466  27.2222123
   7.8340012  27.6974997  26.5019988   8.4500012  27.1714997  27.0119988
   7.2480012  27.0574997  26.0989988   7.8390810  27.5389208  26.5173173
  18.8160012  24.3344997  32.0219988  18.1280012  24.9924997  31.9259988
  18.8320012  24.1374997  32.9579988  18.7238525  24.3980462  32.1354808
   4.8680012  22.6684997  30.5989988   4.6490012  23.1984997  29.8329988
   4.2000012  22.8954997  31.2459988   4.7477600  22.7716906  30.5816379
  12.2370012  32.1684997  24.1429988  11.9410012  31.8464997  23.2919988
  11.9120012  33.0684997  24.1839988  12.1526371  32.2460215  24.0321801
   7.4370012  30.3444997  30.8859988   6.6970012  30.9424997  30.9899988
   8.1510012  30.8984997  30.5709988   7.4322237  30.5012831  30.8576465
  15.5440012  23.1724997  26.9059988  15.3280012  22.4064997  27.4389988
  16.1990012  23.6444997  27.4189988  15.6030632  23.1315889  27.0482861
   4.4610012  24.5604997  28.5509988   5.0750012  25.1934997  28.9249988
   4.9730012  24.0884997  27.8949988   4.6142296  24.5832370  28.5134252
   5.8440012  32.3084997  31.6739988   5.8390012  33.1884997  31.2959988
   4.9910012  32.2254997  32.0989988   5.7279464  32.4176117  31.6797907
   1.9650012  31.9794997  22.4559988   1.6930012  32.2084997  21.5669988
   2.0110012  32.8174997  22.9159988   1.9340094  32.1241213  22.3965697
  15.5900012  33.6014997  29.1679988  14.6490012  33.6594997  29.3299988
  15.8670012  34.5074997  29.0309988  15.4984679  33.7319443  29.1716815
  15.8910012  21.8874997  30.5859988  15.1550012  22.4984997  30.5479988
  16.5740012  22.3024997  30.0589988  15.8826541  22.0271374  30.5095832
   8.8940012  19.9744997  28.0519988   8.7770012  19.0254997  27.9969988
   8.0390012  20.3064997  28.3249988   8.7623733  19.8895409  28.0813897
  13.8420012  35.3824997  25.7939988  14.2680012  34.6754997  25.3089988
  14.1590012  36.1834997  25.3769988  13.9431019  35.3940994  25.6713130
  15.0020012  33.2834997  24.3019988  14.7440012  32.5934997  23.6909988
  15.0730012  32.8404997  25.1479988  14.9762856  33.1292124  24.3326885
  16.6880012  31.8494997  32.7799988  16.8280012  31.2584997  32.0399988
  16.8550012  32.7224997  32.4229988  16.7296778  31.8866426  32.6306965
  11.1610012  28.8114997  22.5519988  10.4490012  29.3464997  22.1999988
  11.8520012  28.8674997  21.8919988  11.1570132  28.8922543  22.4146289
  11.2140012  27.2694997  19.5909988  11.9150012  27.2914997  20.2419988
  11.5170012  26.6414997  18.9349988  11.3507830  27.1876566  19.5913711
  18.5300012  28.1894997  30.8459988  17.8770012  28.8844997  30.9349988
  18.9950012  28.3994997  30.0359988  18.5035390  28.3129425  30.7486883
  14.5660012  29.0214997  23.5039988  13.8340012  29.2494997  24.0769988
  15.0140012  28.3074997  23.9589988  14.5263095  28.9562571  23.6439119
  14.4640012  27.1954997  32.5709988  14.5440012  27.9584997  33.1429988
  13.8620012  27.4744997  31.8809988  14.3935756  27.3377134  32.5560589
   6.2120012  29.6514997  25.3859988   5.8810012  29.2814997  24.5679988
   6.8000012  28.9814997  25.7329988   6.2461873  29.5101156  25.3208102
   7.5780012  33.0794997  28.0679988   7.4840012  32.5014997  27.3109988
   8.3080012  32.7084997  28.5639988   7.6637981  32.9502390  28.0314165
   6.5780012  28.4204997  29.0199988   7.1440012  28.5414997  28.2569988
   6.8970012  29.0574997  29.6589988   6.6985786  28.5231884  29.0020040
  12.8870012  33.9234997  29.7539988  12.6470012  34.5854997  30.4019988
  12.6890012  33.0894997  30.1789988  12.8273808  33.9013134  29.9001524
   7.4580012  32.8194997  33.7369988   7.1470012  33.6014997  34.1919988
   6.8080012  32.6664997  33.0509988   7.3275558  32.9059105  33.7065871
  13.4370012  28.1834997  21.1889988  14.0170012  28.3334997  21.9359988
  13.8510012  28.6544997  20.4659988  13.5722830  28.2676841  21.1934134
   4.3780012  29.0174997  32.9659988   4.4490012  29.6684997  33.6639988
   3.4880012  29.1204997  32.6309988   4.2673117  29.1205936  33.0162700
  11.1640012  34.9204997  24.6239988  11.6380012  35.2154997  25.4019988
  10.6010012  35.6584997  24.3909988  11.1527653  35.0606932  24.6990136
   5.6980012  34.8914997  34.4999988   5.7050012  34.7554997  33.5529988
   4.7820012  34.7734997  34.7519988   5.5751714  34.8569430  34.4044666
  17.1360012  19.9334997  21.0019988  16.2360012  20.0724997  21.2969988
  17.3880012  20.7644997  20.5999988  17.0468702  20.0649074  20.9880205
   5.2020012  28.7214997  22.9759988   4.9100012  29.4894997  22.4849988
   4.5280012  28.0614997  22.8129988   5.0709081  28.7374406  22.8867340
  18.3250012  34.2994997  19.3779988  18.3990012  35.2384997  19.5489988
  19.2310012  33.9944997  19.3219988  18.4575100  34.3866722  19.3938119
   1.2950012  31.0844997  31.7909988   0.7940012  31.0564997  30.9759988
   1.3000012  30.1784997  32.0999988   1.2271526  30.9582278  31.7212872
   1.0450012  33.8644997  28.6749988   1.9910012  33.7204997  28.6559988
   0.9330012  34.6484997  29.2119988   1.1592727  33.9508046  28.7450072
  19.2430012  34.5304997  34.3569988  19.1940012  33.5754997  34.3199988
  18.4160012  34.7984997  34.7579988  19.1244940  34.4358998  34.4061375
  10.2220012  34.1044997  33.2329988  10.3090012  34.9304997  33.7079988
   9.3580012  33.7744997  33.4819988  10.1171964  34.1729878  33.3316549
  10.6360012  37.8764997  23.0389988  10.5610012  37.7554997  22.0929988
  10.6690012  38.8264997  23.1579988  10.6301848  37.9882500  22.9254834
   4.2890012  36.6654997  24.8199988   4.4420012  36.3174997  25.6989988
   3.4390012  36.3094997  24.5649988   4.1948962  36.5696650  24.9058340
  13.7380012  37.0304997  20.0409988  14.1130012  36.2864997  19.5709988
  13.7420012  36.7604997  20.9599988  13.7898915  36.8921486  20.1007824
  13.4070012  36.9564997  22.7909988  12.4710012  37.0564997  22.9689988
  13.6870012  36.2474997  23.3689988  13.3168255  36.8742711  22.8935391
  16.3950012  26.0234997  34.8369988  15.9880012  26.5044997  34.1159988
  16.4360012  25.1184997  34.5289988  16.3448437  25.9669374  34.6966683
   3.5440012  32.4074997  32.8339988   3.7600012  32.0464997  33.6929988
   2.6890012  32.0334997  32.6239988   3.4579292  32.3074111  32.9233386
   6.1630012  20.8774997  28.8289988   5.3010012  20.7904997  28.4219988
   6.1400012  21.7334997  29.2569988   6.0420330  20.9812765  28.8311863
  10.8260012  20.5994997  32.2039988  11.2460012  20.1844997  32.9569988
   9.8930012  20.4214997  32.3209988  10.7573644  20.5185900  32.3229539
  14.1520012  24.3554997  33.0569988  13.6380012  24.2294997  33.8549988
  13.9970012  25.2674997  32.8129988  14.0606852  24.4616132  33.1332158
  14.9150012  29.2164997  18.8189988  14.9570012  28.9934997  17.8889988
  15.7640012  29.6154997  19.0089988  15.0355396  29.2399155  18.7173627
  10.4870012  23.0924997  19.4889988  10.2340012  23.1114997  20.4119988
  10.2310012  22.2204997  19.1879988  10.4177790  22.9772437  19.5746263
   6.2540012  25.8434997  29.9239988   5.6120012  25.8024997  30.6329988
   6.2910012  26.7694997  29.6869988   6.1711324  25.9631559  29.9889824
   6.2510012  26.0644997  24.8359988   5.3580012  25.7234997  24.7779988
   6.7010012  25.6874997  24.0809988   6.1897305  25.9668484  24.7259177
  11.7860012  26.4804997  23.6529988  11.3770012  27.2954997  23.3619988
  12.5070012  26.3404997  23.0389988  11.8274537  26.5732018  23.5301342
  10.8880012  26.6554997  35.1409988  10.3260012  25.9514997  35.4619988
  11.7150012  26.5354997  35.6089988  10.9227095  26.5427883  35.2482330
  12.7910012  25.9264997  26.4669988  12.5960012  26.5314997  25.7519988
  12.9720012  25.0924997  26.0329988  12.7887614  25.8966300  26.3104405
   4.0040012  26.1634997  31.7909988   3.9660012  26.5634997  32.6599988
   3.5130012  25.3464997  31.8819988   3.9324684  26.1078069  31.9221059
   7.3700012  23.5374997  18.5899988   6.9390012  23.0924997  19.3199988
   6.6520012  23.9094997  18.0779988   7.2139438  23.5268940  18.6206799
   0.6120012  23.2794997  25.6419988   1.2430012  23.2504997  26.3609988
   1.0610012  22.8544997  24.9119988   0.7590774  23.2180492  25.6416553
   1.8860012  24.0254997  21.0659988   2.3600012  24.6164997  20.4809988
   1.1690012  24.5564997  21.4129988   1.8539341  24.1780867  21.0328836
  12.0550012  27.5644997  31.1389988  12.3780012  26.9334997  30.4959988
  11.6150012  27.0294997  31.7989988  12.0396895  27.4058441  31.1402850
   8.8320012  23.4914997  25.9229988   7.9210012  23.5484997  26.2109988
   9.3380012  23.4314997  26.7329988   8.7755413  23.4911985  26.0720622
   3.6610012  25.1204997  24.7489988   2.7710012  25.2204997  24.4089988
   3.9570012  24.2784997  24.4029988   3.5792823  25.0203545  24.6557213
   7.3140012  25.1204997  22.4059988   8.2450012  25.2494997  22.5839988
   7.0990012  25.7904997  21.7559988   7.4124247  25.2286565  22.3425747
  13.2370012  22.7264997  29.1869988  12.5610012  22.8574997  29.8509988
  12.7520012  22.5714997  28.3769988  13.0787145  22.7234905  29.1684517
   5.9880012  26.3154997  19.9729988   5.4450012  25.9354997  19.2809988
   6.8210012  26.5094997  19.5439988   6.0264399  26.2898124  19.8204526
  16.5250012  38.3984997  35.4639988  16.7250012  38.8224997  34.6289988
  17.1800012  38.7414997  36.0709988  16.6410051  38.5029648  35.4317836
   4.1230012  30.8724997  35.0719988   4.8550012  31.1264997  35.6329988
   3.3430012  31.0764997  35.5869988   4.1178232  30.9349177  35.2185760
  10.1520012  26.2794997  27.8099988  10.7170012  25.7324997  27.2629988
  10.0050012  25.7574997  28.5979988  10.2092918  26.1342024  27.8418454
   5.1540012  22.4154997  24.2279988   4.8370012  21.5134997  24.1929988
   5.9360012  22.4174997  23.6749988   5.2162284  22.2921628  24.1484783
   8.7790012  24.6674997  30.2239988   7.9430012  25.1214997  30.3339988
   9.3030012  24.9434997  30.9759988   8.7354414  24.7669376  30.3407136
   9.3230012  30.8804997  21.9079988   8.5780012  30.3734997  21.5859988
   9.1890012  30.9294997  22.8549988   9.2028776  30.8176940  21.9918647
  16.4730012  30.0134997  30.6949988  17.1150012  30.4704997  30.1509988
  15.6430012  30.1264997  30.2319988  16.4485963  30.0912704  30.5580177
  13.2210012  23.6944997  20.1079988  12.2820012  23.8064997  19.9559988
  13.5180012  24.5514997  20.4139988  13.1327666  23.8256443  20.1285768
  10.8420012  31.0644997  33.1449988  10.4970012  30.6834997  33.9519988
  10.6420012  31.9984997  33.2169988  10.7678061  31.1385228  33.2650961
  13.9390012  25.5614997  21.7679988  14.8310012  25.4244997  22.0869988
  13.9960012  26.3524997  21.2319988  14.0686285  25.6496660  21.7391690
   4.4480012  30.1754997  27.6779988   5.1930012  30.1734997  27.0769988
   4.5260012  29.3524997  28.1599988   4.5605518  30.0639315  27.6608929
  11.4490012  32.3394997  20.9339988  11.1530012  33.1654997  21.3149988
  10.7460012  31.7194997  21.1299988  11.3134914  32.3688199  21.0126443
   1.4560012  28.6364997  32.9929988   1.6790012  28.2184997  33.8249988
   0.8540012  28.0234997  32.5699988   1.4051759  28.4964668  33.0497022
   8.4720012  28.1534997  35.2059988   8.1760012  27.9874997  34.3109988
   9.4040012  27.9334997  35.1949988   8.5574166  28.1010640  35.0820536
  13.0930012  33.5264997  33.0959988  12.1920012  33.7094997  32.8279988
  13.1270012  33.7854997  34.0169988  12.9743041  33.5865512  33.1838197
  18.8240012  25.7714997  21.4629988  18.2700012  25.3754997  20.7909988
  18.9240012  26.6814997  21.1849988  18.7617059  25.8403586  21.3334401
  18.7870012  31.5714997  34.2999988  17.9360012  31.8094997  33.9329988
  19.3780012  31.5544997  33.5469988  18.7502487  31.6018258  34.1478893
  17.1190012  34.5574997  21.9279988  16.7460012  33.7314997  22.2369988
  17.3970012  34.3744997  21.0309988  17.1055630  34.4197303  21.8489626
  14.2800012  29.3654997  28.9489988  13.3510012  29.1334997  28.9219988
  14.7310012  28.5884997  28.6189988  14.2139216  29.2287238  28.9006917
   6.8230012  33.6934997  25.0819988   7.3500012  34.4664997  24.8819988
   5.9430012  33.9184997  24.7809988   6.7761773  33.8298005  25.0139010
   2.5780012  28.5554997  19.6689988   3.1940012  29.1824997  20.0489988
   1.7160012  28.8714997  19.9409988   2.5457698  28.6839430  19.7577183
   8.2500012  31.3564997  24.6589988   8.0090012  32.2814997  24.6999988
   7.5090012  30.8974997  25.0549988   8.1168409  31.4211421  24.7181377
   8.7650012  35.5054997  30.9739988   9.1270012  36.3604997  30.7399988
   9.2960012  35.2134997  31.7139988   8.8864473  35.5831060  31.0420855
   6.9330012  36.3784997  24.2039988   5.9830012  36.4834997  24.2549988
   7.2850012  37.1984997  24.5489988   6.8504203  36.5038314  24.2576650
  12.3090012  31.6044997  30.6739988  11.8830012  31.3774997  31.5009988
  12.8890012  30.8664997  30.4919988  12.3291868  31.4735299  30.7625830
  14.5120012  32.5334997  19.7479988  14.8650012  32.1534997  20.5529988
  13.5630012  32.4404997  19.8349988  14.4320441  32.4689596  19.8698559
  14.9670012  36.1564997  33.1439988  14.3660012  35.6014997  32.6479988
  15.2490012  36.8234997  32.5179988  14.9228519  36.1706841  32.9914952
  19.0150012  37.0134997  19.9489988  19.7590012  37.5994997  19.8089988
  18.3210012  37.5814997  20.2829988  19.0230292  37.1705582  19.9749961
   3.0900012  23.3894997  32.5509988   2.1970012  23.7284997  32.4829988
   2.9910012  22.5344997  32.9689988   2.9544164  23.3202588  32.5982235
  15.3780012  31.2064997  21.9749988  15.1000012  30.4784997  22.5309988
  16.3050012  31.3254997  22.1799988  15.4653124  31.1228802  22.0788845
   2.7410012  35.1944997  30.9859988   2.9580012  34.2624997  30.9549988
   2.9870012  35.4684997  31.8689988   2.8039549  35.1040636  31.1011763
   8.6030012  33.6454997  18.1949988   8.8420012  32.8974997  17.6479988
   8.3340012  33.2574997  19.0279988   8.5993675  33.4906638  18.2326865
   7.5400012  33.2154997  20.6519988   7.6860012  32.6954997  21.4419988
   7.5370012  34.1224997  20.9579988   7.5595989  33.2668853  20.8016088
   3.9930012  30.4684997  21.1619988   3.3070012  30.8204997  21.7289988
   4.5150012  31.2314997  20.9149988   3.9696852  30.6198578  21.2062118
  11.8240012  23.1304997  31.4409988  12.5230012  23.2044997  32.0909988
  11.4430012  22.2664997  31.5949988  11.8681767  23.0237624  31.5508322
  12.6090012  22.7824997  22.5379988  12.8290012  23.2544997  21.7349988
  13.1670012  23.1774997  23.2079988  12.7144968  22.9004285  22.5187331
  10.2770012  34.9134997  21.4009988   9.4610012  35.4104997  21.4529988
  10.8070012  35.3884997  20.7609988  10.2369161  35.0457722  21.3215956
   9.8090012  24.5104997  23.3729988  10.6210012  25.0154997  23.4189988
   9.5640012  24.3654997  24.2869988   9.8870520  24.5600375  23.5028517
  10.3440012  25.4964997  32.5579988  10.4630012  26.0704997  33.3149988
  11.0000012  24.8084997  32.6719988  10.4489757  25.4821079  32.6770825
  10.6920012  21.5914997  24.3109988  10.3460012  22.2094997  24.9559988
  11.3510012  22.0924997  23.8299988  10.7337826  21.7435802  24.3340971
   7.6160012  35.9574997  21.3829988   7.7760012  36.7564997  20.8819988
   7.4180012  36.2634997  22.2679988   7.6111649  36.1084469  21.4339815
   6.3500012  22.6544997  20.9979988   6.2670012  23.5434997  21.3449988
   7.2400012  22.3894997  21.2299988   6.4589469  22.7401430  21.0767626
  16.5490012  23.4034997  33.3929988  15.6320012  23.6664997  33.3049988
  16.8840012  23.4004997  32.4959988  16.4689900  23.4390224  33.2597919
  15.1510012  27.1544997  27.4879988  14.3530012  26.7394997  27.1599988
  15.5960012  26.4634997  27.9789988  15.1019885  27.0043543  27.5094889
   4.6090012  33.0824997  20.0589988   5.2010012  33.7814997  20.3349988
   5.0680012  32.6494997  19.3389988   4.7521142  33.1197049  19.9994830
   2.9250012  25.7464997  19.1749988   2.8800012  26.6854997  19.3529988
   2.0370012  25.5104997  18.9049988   2.7988574  25.8431892  19.1628912
  16.2370012  36.4104997  29.1109988  16.0820012  37.0884997  28.4539988
  17.1700012  36.4824997  29.3139988  16.3418500  36.5130170  29.0485119
   3.7330012  20.5284997  27.8479988   3.5040012  20.5874997  26.9199988
   3.2900012  19.7364997  28.1539988   3.6418530  20.4295753  27.7624786
   2.6630012  34.4684997  24.0079988   1.8310012  34.9414997  24.0359988
   3.2090012  34.9784997  23.4099988   2.6229739  34.6021871  23.9309716
   1.9510012  37.0814997  35.3379988   2.4920012  36.8644997  36.0979988
   1.4700012  36.2754997  35.1489988   1.9599345  36.9429514  35.4163076
   6.5490012  36.0004997  36.9589988   7.3160012  35.5414997  37.2999988
   6.5270012  35.7744997  36.0289988   6.6511434  35.9070409  36.8800043
  10.6410012  35.5084997  18.3339988   9.9970012  34.8774997  18.6549988
  11.4030012  34.9774997  18.1019988  10.6558077  35.3502920  18.3466011
  13.1260012  34.3804997  35.6879988  12.7750012  33.5244997  35.9309988
  13.8520012  34.5234997  36.2949988  13.1760769  34.2825636  35.8033619
  15.2450012  35.3254997  18.5679988  15.5280012  34.5314997  19.0199988
  15.9850012  35.5584997  18.0069988  15.3837486  35.2482803  18.5540698
   1.8580012  30.8914997  36.2929988   2.0020012  29.9894997  36.0059988
   1.0860012  31.1774997  35.8049988   1.7733323  30.8068261  36.1877881
   6.2000012  31.2354997  18.4249988   6.2640012  30.4414997  18.9559988
   6.8530012  31.1164997  17.7349988   6.2970241  31.1107148  18.4044317
   8.5140012  30.8614997  35.7249988   8.1850012  31.1324997  34.8679988
   8.6660012  29.9204997  35.6379988   8.4894809  30.7713862  35.5958244
  11.5520012  32.2824997  18.1609988  11.2830012  32.4624997  19.0619988
  11.3460012  31.3564997  18.0299988  11.4873825  32.1820152  18.2665214
  14.2480012  30.7774997  33.1089988  14.9940012  31.3654997  32.9889988
  13.4910012  31.3594997  33.1719988  14.2477554  30.9367011  33.1010907
   2.6910012  28.0914997  35.7129988   3.0990012  27.2344997  35.5919988
   2.4310012  28.1064997  36.6339988   2.7117568  27.9760807  35.8209588
   7.3490012  29.2074997  20.7309988   6.8890012  28.7234997  21.4169988
   7.6040012  28.5394997  20.0949988   7.3204902  29.0508731  20.7389334
   6.6380012  27.1004997  33.0869988   6.0200012  27.7754997  33.3669988
   6.9820012  27.4214997  32.2539988   6.5999615  27.2362721  33.0126581
   8.4200012  27.4504997  18.9929988   8.2400012  27.2964997  18.0659988
   9.3700012  27.5584997  19.0379988   8.5237776  27.4440175  18.8721843
  11.6580012  29.5724997  36.3639988  12.6110012  29.6554997  36.3369988
  11.4970012  28.8604997  36.9839988  11.7666426  29.4876746  36.4440579
  17.8100012  29.8054997  18.4389988  17.5360012  29.3804997  17.6259988
  17.8490012  30.7364997  18.2219988  17.7777699  29.8732484  18.2983610
   6.9770012  24.4554997  34.1689988   7.1270012  23.7264997  33.5669988
   6.9800012  25.2324997  33.6099988   6.9979302  24.4607851  34.0110692
   7.3900012  22.8254997  31.6619988   7.9260012  23.2764997  31.0099988
   6.5380012  22.7174997  31.2389988   7.3482178  22.8726390  31.5155756
   8.9720012  28.2644997  31.9009988   9.7220012  28.1084997  31.3279988
   8.6330012  29.1164997  31.6259988   9.0288921  28.3582968  31.7853561
  13.3870012  26.0794997  36.9299988  13.5800012  25.1484997  36.8179988
  14.2450012  26.5044997  36.9199988  13.5293020  26.0096389  36.9133361
  14.7040012  28.8684997  35.0069988  14.4230012  29.5774997  34.4299988
  15.6470012  28.7954997  34.8559988  14.7929027  28.9557646  34.9075551
   5.4560012  25.6534997  36.0809988   4.6890012  25.1214997  35.8709988
   6.1350012  25.3434997  35.4809988   5.4427022  25.5387506  35.9711648
   8.1960012  20.2814997  32.0929988   8.0970012  21.2284997  31.9879988
   7.4530012  19.9094997  31.6179988   8.0820564  20.3605902  32.0144560
   9.4600012  24.6034997  35.6569988   9.2240012  24.3834997  36.5589988
   8.6760012  24.3964997  35.1469988   9.3218628  24.5454760  35.7113932
  12.1750012  23.7304997  34.7329988  11.2280012  23.7624997  34.8649988
  12.4880012  23.1054997  35.3859988  12.0875475  23.6503207  34.8394455
  13.8090012  22.3644997  36.7379988  13.7130012  21.4124997  36.7319988
  13.4880012  22.6334997  37.5979988  13.7524070  22.2704035  36.8535441
   3.6360012  23.5744997  35.7849988   3.8480012  22.8674997  35.1749988
   3.5250012  23.1364997  36.6289988   3.6499721  23.4187084  35.8156843
   8.4170012  19.5754997  34.7649988   9.1290012  18.9354997  34.7509988
   8.3160012  19.8424997  33.8509988   8.5007939  19.5239938  34.6395650
   8.7710012  21.2584997  36.8179988   8.6390012  20.7824997  35.9979988
   8.1720012  22.0024997  36.7629988   8.6719071  21.2939618  36.6982886
   8.3170012  38.1414997  19.9949988   9.2500012  38.2994997  20.1379988
   8.0530012  38.8164997  19.3699988   8.4089510  38.2543611  19.9300741
   1.8860012  32.7774997  19.4769988   2.8000012  32.8564997  19.7509988
   1.8930012  32.0904997  18.8109988   2.0121131  32.6953961  19.4244393
   0.5350012  38.1704997  24.5549988  -0.1119988  37.7084997  24.0219988
   0.8890012  37.4984997  25.1369988   0.4943849  38.0164723  24.5607959
   1.4050012  36.2514997  26.3589988   1.0700012  35.3714997  26.5309988
   1.6270012  36.5964997  27.2239988   1.3891783  36.1777501  26.4994208
  18.9530012  37.0604997  29.3399988  18.9320012  37.2454997  30.2789988
  19.6440012  37.6294997  28.9989988  19.0434618  37.1626606  29.4223864
  18.5170012  36.6284997  32.2619988  18.0290012  35.8924997  31.8909988
  19.0660012  36.2344997  32.9399988  18.5244872  36.4746249  32.3029160
  16.9670012  32.4174997  36.8999988  16.1010012  32.3124997  37.2939988
  17.3440012  33.1764997  37.3459988  16.8993308  32.5056900  37.0142393
  18.2680012  30.6744997  22.4139988  19.1180012  31.0954997  22.5409988
  18.2740012  29.9344997  23.0209988  18.3851372  30.6320803  22.5134344
  18.6630012  28.7274997  24.2379988  17.9360012  28.2484997  24.6349988
  19.2440012  28.9334997  24.9699988  18.6419375  28.6897090  24.3914129
  18.4220012  31.5124997  29.1849988  19.2550012  31.1344997  28.9049988
  18.5340012  32.4554997  29.0659988  18.5512647  31.5882218  29.1305487
  16.9080012  34.3904997  31.4919988  16.2610012  34.7154997  32.1179988
  16.3910012  33.9504997  30.8179988  16.7494029  34.3755004  31.4865827
  18.9310012  28.6284997  20.6289988  18.4090012  28.9854997  19.9099988
  18.8980012  29.3034997  21.3069988  18.8551634  28.7685413  20.6223145
  17.2800012  25.8684997  19.1799988  17.3760012  26.5354997  18.4989988
  17.1400012  25.0524997  18.6979988  17.2742135  25.8494500  19.0218491
  16.4490012  27.2484997  24.8009988  16.2990012  26.3034997  24.7799988
  16.0960012  27.5294997  25.6439988  16.3806625  27.1570441  24.9122346
   1.4850012  29.3264997  28.8109988   1.6690012  29.2444997  27.8749988
   2.3340012  29.2024997  29.2349988   1.6250139  29.2985003  28.7401455
  17.3060012  29.2184997  34.4389988  17.8890012  28.4844997  34.6309988
  17.8700012  29.9904997  34.4859988  17.4619769  29.2224227  34.4716159
  18.8020012  27.1214997  35.1239988  17.9390012  26.7424997  34.9579988
  19.4070012  26.3824997  35.0499988  18.7655979  26.9698023  35.0912817
  16.5270012  23.2764997  18.2969988  17.1380012  22.9054997  18.9339988
  15.6910012  22.8554997  18.4929988  16.4975032  23.1687554  18.4107035
  16.1600012  24.8314997  23.2629988  16.4400012  23.9244997  23.3869988
  16.9190012  25.2654997  22.8739988  16.3009277  24.7660942  23.2273682
  16.7720012  25.4124997  28.6989988  17.7050012  25.6244997  28.6649988
  16.5370012  25.5144997  29.6209988  16.8678036  25.4552769  28.8189976
  16.8010012  26.1494997  31.4749988  15.9580012  26.4174997  31.8409988
  17.2430012  26.9714997  31.2639988  16.7454158  26.2973291  31.4965491
   1.0820012  24.5974997  34.9519988   2.0020012  24.4754997  35.1879988
   0.6330012  23.8474997  35.3409988   1.1471580  24.4793727  35.0369006
  19.0840012  20.1294997  36.8279988  19.4340012  19.4754997  36.2229988
  19.2310012  20.9664997  36.3889988  19.1518419  20.1531591  36.6857118
  16.7730012  22.0944997  23.3109988  16.9560012  21.6454997  24.1369988
  16.1740012  21.5094997  22.8479988  16.7170202  21.9539975  23.3613275
   2.3030012  22.9094997  27.8429988   2.7490012  22.1174997  28.1449988
   2.7700012  23.6254997  28.2739988   2.4270172  22.8980624  27.9424820
   0.6070012  25.9084997  28.9119988   1.0990012  25.6874997  28.1209988
   0.9700012  26.7494997  29.1929988   0.7233126  25.9918357  28.8417531
  18.6040012  22.2384997  35.1779988  17.6860012  22.5094997  35.1419988
  18.7270012  21.7034997  34.3929988  18.4951066  22.2032892  35.0670487
  18.6400012  22.1614997  19.8389988  19.0520012  21.4404997  19.3639988
  19.3220012  22.8314997  19.8979988  18.7885885  22.1532368  19.7818915
   0.9210012  22.1664997  22.9659988  -0.0039988  22.3754997  22.8369988
   1.3750012  22.6504997  22.2769988   0.8557368  22.2605993  22.8551226
  15.6920012  37.1504997  24.9119988  16.3440012  36.8034997  24.3039988
  16.2020012  37.6394997  25.5579988  15.8502637  37.1690597  24.9160236
   0.8850012  20.9044997  31.3109988   0.2200012  20.6584997  31.9539988
   0.4420012  21.5264997  30.7329988   0.7340956  20.9548632  31.3209352
   3.0770012  34.0794997  35.4549988   2.2560012  34.2544997  34.9949988
   2.8240012  34.0064997  36.3759988   2.9306164  34.0935622  35.5164923
   6.0310012  35.0544997  31.7139988   5.6060012  35.8634997  31.4309988
   6.9350012  35.1394997  31.4119988   6.0950271  35.1768469  31.6343776
  10.3420012  36.4534997  34.6729988  10.5270012  36.1194997  35.5509988
  11.1880012  36.7624997  34.3509988  10.4817539  36.4496047  34.7495605
  12.6870012  37.7394997  33.9169988  13.3640012  37.1064997  33.6769988
  13.0090012  38.1404997  34.7239988  12.8231637  37.7071154  33.9932793
  17.6040012  20.3284997  32.9969988  16.7920012  20.6534997  32.6089988
  17.8370012  19.5684997  32.4639988  17.5243423  20.2702436  32.8718253
   3.4330012  38.3104997  31.7609988   2.7120012  38.7504997  31.3099988
   3.0670012  38.0594997  32.6099988   3.2849804  38.3367698  31.8139840
   5.9000012  37.9104997  30.7909988   5.0350012  37.9824997  31.1949988
   5.8450012  38.4574997  30.0069988   5.7742085  37.9942685  30.7403362
  10.6100012  37.7984997  29.9659988  10.1540012  38.3274997  29.3119988
  10.7730012  38.4014997  30.6919988  10.5695585  37.9524468  29.9745062
  12.9380012  36.6764997  30.9109988  12.0330012  36.8414997  30.6459988
  13.3670012  37.5294997  30.8459988  12.8720799  36.8144483  30.8659182
  15.5420012  38.2464997  31.2059988  15.3600012  39.1624997  30.9959988
  15.7190012  37.8364997  30.3599988  15.5410210  38.3164822  31.0627885
   2.8470012  36.9334997  28.6709988   2.8290012  36.5084997  29.5289988
   3.6520012  36.6154997  28.2629988   2.9533875  36.8323812  28.7331655
   4.9890012  35.6434997  27.3259988   4.7700012  34.7274997  27.4959988
   5.8130012  35.7834997  27.7919988   5.0704420  35.5370520  27.4122774
   7.5260012  36.1134997  28.1749988   7.7390012  35.2254997  27.8879988
   7.5900012  36.0794997  29.1289988   7.5638231  35.9873102  28.2647397
  11.0340012  21.7774997  27.3189988  10.3600012  21.1484997  27.5749988
  11.5980012  21.2934997  26.7159988  11.0179230  21.6258744  27.2725340
  16.1770012  19.8854997  27.4319988  16.7810012  20.4324997  26.9299988
  15.3070012  20.2044997  27.1919988  16.1421241  20.0035806  27.3307654
  17.9040012  21.0234997  25.7649988  18.5160012  20.5094997  25.2389988
  18.2860012  21.9014997  25.7889988  18.0394540  21.0717140  25.6961830
   3.3610012  20.4114997  25.1409988   2.5840012  20.1774997  24.6339988
   3.8910012  19.6144997  25.1499988   3.3262330  20.2716988  25.0727742
   2.1970012  20.2094997  20.9449988   2.6360012  20.8204997  20.3529988
   1.5640012  20.7474997  21.4189988   2.1714514  20.3659257  20.9280930
   7.9400012  20.3384997  24.9549988   8.8150012  20.7264997  24.9249988
   7.8040012  20.1234997  25.8769988   8.0413695  20.3625184  25.0756440
  13.4970012  20.3684997  26.6039988  13.5730012  20.4634997  25.6539988
  13.2220012  19.4604997  26.7329988  13.4702321  20.2587867  26.4915079
  14.8500012  20.3944997  22.2959988  14.1480012  21.0094997  22.0869988
  14.4060012  19.5564997  22.4269988  14.6936330  20.3655783  22.2850328
   2.0980012  36.1574997  21.8429988   1.4130012  36.1194997  21.1749988
   2.1020012  37.0704997  22.1309988   2.0048193  36.2757016  21.7905284
   4.0580012  22.1254997  19.3869988   4.5500012  21.4954997  18.8599988
   4.6820012  22.4214997  20.0509988   4.2095446  22.0793199  19.4045980
   9.0840012  22.4184997  21.8439988   9.2620012  21.7724997  22.5269988
   9.0310012  23.2524997  22.3119988   9.1011829  22.4427985  22.0005940
  10.9630012  37.3674997  20.2399988  11.8290012  37.7334997  20.0619988
  10.7160012  36.9274997  19.4259988  11.0482392  37.3581756  20.1056289
  17.6720012  36.9304997  22.9189988  17.4770012  36.1824997  22.3539988
  17.6330012  37.6884997  22.3359988  17.6400380  36.9306099  22.7628384
   3.3190012  20.9254997  34.6589988   2.9530012  20.1604997  35.1019988
   4.2320012  20.9544997  34.9459988   3.3922790  20.8247224  34.7584070
   5.2920012  20.2764997  36.1949988   6.1900012  20.0024997  36.0099988
   4.9050012  19.5334997  36.6589988   5.3626612  20.1385914  36.2323643
   3.9160012  37.0774997  18.8679988   3.6490012  37.3644997  19.7409988
   4.6880012  36.5314997  19.0199988   3.9837488  37.0430294  19.0081050
  13.7130012  19.6084997  36.3769988  13.7900012  19.1824997  37.2309988
  14.6070012  19.6224997  36.0339988  13.8443428  19.5520879  36.4475310
  16.8890012  35.6814997  35.0689988  16.1070012  35.4954997  34.5499988
  16.8170012  36.6104997  35.2869988  16.7721777  35.7816492  35.0274048
  31.2950012  29.5674997  25.0999988  31.3840012  30.5114997  24.9679988
  30.6570012  29.2924997  24.4419988  31.2209081  29.6594830  24.9929614
  30.2280012  28.8224997  28.5189988  30.1900012  28.1764997  29.2239988
  29.9060012  28.3564997  27.7479988  30.1792333  28.6709408  28.5112978
  22.5970012  28.4374997  30.1119988  22.6380012  27.8114997  30.8349988
  23.3000012  29.0614997  30.2939988  22.6976363  28.4361196  30.2356044
  33.9340012  31.7614997  26.8199988  33.4940012  31.0414997  27.2709988
  33.9210012  32.4824997  27.4499988  33.8720226  31.7603731  26.9668494
  23.5200012  32.8874997  28.6469988  23.1510012  32.0854997  28.2769988
  24.4610012  32.7184997  28.6929988  23.5967289  32.7550153  28.6026316
  20.1300012  26.5474997  24.0399988  19.6830012  27.3934997  24.0209988
  19.5690012  25.9674997  23.5239988  19.9929900  26.5849916  23.9676801
  20.8410012  28.7094997  26.1659988  21.0540012  27.9394997  26.6929988
  21.5790012  28.7984997  25.5619988  20.9698496  28.6161394  26.1565300
  31.0460012  36.8664997  27.0329988  31.6660012  36.1894997  26.7589988
  30.8380012  36.6484997  27.9409988  31.1026904  36.7443870  27.1183365
  28.6180012  31.2554997  28.9249988  28.9220012  30.5694997  28.3299988
  29.3390012  31.3734997  29.5429988  28.7570671  31.1776305  28.9271816
  37.2810012  22.8564997  29.7859988  37.3300012  23.4664997  30.5219988
  37.7060012  23.3174997  29.0629988  37.3451824  23.0023741  29.7890205
  31.7590012  25.6494997  29.2529988  31.9010012  24.7034997  29.2729988
  31.6520012  25.8564997  28.3239988  31.7639864  25.5479534  29.1302339
  24.9130012  23.7504997  26.5249988  24.9570012  24.6104997  26.1069988
  24.4560012  23.1984997  25.8909988  24.8572185  23.7935799  26.3820299
  32.6360012  23.8814997  24.9259988  33.2820012  23.5524997  25.5509988
  33.1460012  24.3994997  24.3029988  32.7934264  23.9064611  24.9273862
  21.5340012  26.1474997  27.2869988  22.1870012  25.5974997  27.7189988
  21.5580012  25.8734997  26.3699988  21.6266683  26.0351466  27.2222123
  26.6900012  27.6974997  26.5019988  27.3060012  27.1714997  27.0119988
  26.1040012  27.0574997  26.0989988  26.6950810  27.5389208  26.5173173
  37.6720012  24.3344997  32.0219988  36.9840012  24.9924997  31.9259988
  37.6880012  24.1374997  32.9579988  37.5798525  24.3980462  32.1354808
  23.7240012  22.6684997  30.5989988  23.5050012  23.1984997  29.8329988
  23.0560012  22.8954997  31.2459988  23.6037600  22.7716906  30.5816379
  31.0930012  32.1684997  24.1429988  30.7970012  31.8464997  23.2919988
  30.7680012  33.0684997  24.1839988  31.0086371  32.2460215  24.0321801
  26.2930012  30.3444997  30.8859988  25.5530012  30.9424997  30.9899988
  27.0070012  30.8984997  30.5709988  26.2882237  30.5012831  30.8576465
  34.4000012  23.1724997  26.9059988  34.1840012  22.4064997  27.4389988
  35.0550012  23.6444997  27.4189988  34.4590632  23.1315889  27.0482861
  23.3170012  24.5604997  28.5509988  23.9310012  25.1934997  28.9249988
  23.8290012  24.0884997  27.8949988  23.4702296  24.5832370  28.5134252
  24.7000012  32.3084997  31.6739988  24.6950012  33.1884997  31.2959988
  23.8470012  32.2254997  32.0989988  24.5839464  32.4176117  31.6797907
  20.8210012  31.9794997  22.4559988  20.5490012  32.2084997  21.5669988
  20.8670012  32.8174997  22.9159988  20.7900094  32.1241213  22.3965697
  34.4460012  33.6014997  29.1679988  33.5050012  33.6594997  29.3299988
  34.7230012  34.5074997  29.0309988  34.3544679  33.7319443  29.1716815
  34.7470012  21.8874997  30.5859988  34.0110012  22.4984997  30.5479988
  35.4300012  22.3024997  30.0589988  34.7386541  22.0271374  30.5095832
  27.7500012  19.9744997  28.0519988  27.6330012  19.0254997  27.9969988
  26.8950012  20.3064997  28.3249988  27.6183733  19.8895409  28.0813897
  32.6980012  35.3824997  25.7939988  33.1240012  34.6754997  25.3089988
  33.0150012  36.1834997  25.3769988  32.7991019  35.3940994  25.6713130
  33.8580012  33.2834997  24.3019988  33.6000012  32.5934997  23.6909988
  33.9290012  32.8404997  25.1479988  33.8322856  33.1292124  24.3326885
  35.5440012  31.8494997  32.7799988  35.6840012  31.2584997  32.0399988
  35.7110012  32.7224997  32.4229988  35.5856778  31.8866426  32.6306965
  30.0170012  28.8114997  22.5519988  29.3050012  29.3464997  22.1999988
  30.7080012  28.8674997  21.8919988  30.0130132  28.8922543  22.4146289
  30.0700012  27.2694997  19.5909988  30.7710012  27.2914997  20.2419988
  30.3730012  26.6414997  18.9349988  30.2067830  27.1876566  19.5913711
  37.3860012  28.1894997  30.8459988  36.7330012  28.8844997  30.9349988
  37.8510012  28.3994997  30.0359988  37.3595390  28.3129425  30.7486883
  33.4220012  29.0214997  23.5039988  32.6900012  29.2494997  24.0769988
  33.8700012  28.3074997  23.9589988  33.3823095  28.9562571  23.6439119
  33.3200012  27.1954997  32.5709988  33.4000012  27.9584997  33.1429988
  32.7180012  27.4744997  31.8809988  33.2495756  27.3377134  32.5560589
  25.0680012  29.6514997  25.3859988  24.7370012  29.2814997  24.5679988
  25.6560012  28.9814997  25.7329988  25.1021873  29.5101156  25.3208102
  26.4340012  33.0794997  28.0679988  26.3400012  32.5014997  27.3109988
  27.1640012  32.7084997  28.5639988  26.5197981  32.9502390  28.0314165
  25.4340012  28.4204997  29.0199988  26.0000012  28.5414997  28.2569988
  25.7530012  29.0574997  29.6589988  25.5545786  28.5231884  29.0020040
  31.7430012  33.9234997  29.7539988  31.5030012  34.5854997  30.4019988
  31.5450012  33.0894997  30.1789988  31.6833808  33.9013134  29.9001524
  26.3140012  32.8194997  33.7369988  26.0030012  33.6014997  34.1919988
  25.6640012  32.6664997  33.0509988  26.1835558  32.9059105  33.7065871
  32.2930012  28.1834997  21.1889988  32.8730012  28.3334997  21.9359988
  32.7070012  28.6544997  20.4659988  32.4282830  28.2676841  21.1934134
  23.2340012  29.0174997  32.9659988  23.3050012  29.6684997  33.6639988
  22.3440012  29.1204997  32.6309988  23.1233117  29.1205936  33.0162700
  30.0200012  34.9204997  24.6239988  30.4940012  35.2154997  25.4019988
  29.4570012  35.6584997  24.3909988  30.0087653  35.0606932  24.6990136
  24.5540012  34.8914997  34.4999988  24.5610012  34.7554997  33.5529988
  23.6380012  34.7734997  34.7519988  24.4311714  34.8569430  34.4044666
  35.9920012  19.9334997  21.0019988  35.0920012  20.0724997  21.2969988
  36.2440012  20.7644997  20.5999988  35.9028702  20.0649074  20.9880205
  24.0580012  28.7214997  22.9759988  23.7660012  29.4894997  22.4849988
  23.3840012  28.0614997  22.8129988  23.9269081  28.7374406  22.8867340
  37.1810012  34.2994997  19.3779988  37.2550012  35.2384997  19.5489988
  38.0870012  33.9944997  19.3219988  37.3135100  34.3866722  19.3938119
  20.1510012  31.0844997  31.7909988  19.6500012  31.0564997  30.9759988
  20.1560012  30.1784997  32.0999988  20.0831526  30.9582278  31.7212872
  19.9010012  33.8644997  28.6749988  20.8470012  33.7204997  28.6559988
  19.7890012  34.6484997  29.2119988  20.0152727  33.9508046  28.7450072
  38.0990012  34.5304997  34.3569988  38.0500012  33.5754997  34.3199988
  37.2720012  34.7984997  34.7579988  37.9804940  34.4358998  34.4061375
  29.0780012  34.1044997  33.2329988  29.1650012  34.9304997  33.7079988
  28.2140012  33.7744997  33.4819988  28.9731964  34.1729878  33.3316549
  29.4920012  37.8764997  23.0389988  29.4170012  37.7554997  22.0929988
  29.5250012  38.8264997  23.1579988  29.4861848  37.9882500  22.9254834
  23.1450012  36.6654997  24.8199988  23.2980012  36.3174997  25.6989988
  22.2950012  36.3094997  24.5649988  23.0508962  36.5696650  24.9058340
  32.5940012  37.0304997  20.0409988  32.9690012  36.2864997  19.5709988
  32.5980012  36.7604997  20.9599988  32.6458915  36.8921486  20.1007824
  32.2630012  36.9564997  22.7909988  31.3270012  37.0564997  22.9689988
  32.5430012  36.2474997  23.3689988  32.1728255  36.8742711  22.8935391
  35.2510012  26.0234997  34.8369988  34.8440012  26.5044997  34.1159988
  35.2920012  25.1184997  34.5289988  35.2008437  25.9669374  34.6966683
  22.4000012  32.4074997  32.8339988  22.6160012  32.0464997  33.6929988
  21.5450012  32.0334997  32.6239988  22.3139292  32.3074111  32.9233386
  25.0190012  20.8774997  28.8289988  24.1570012  20.7904997  28.4219988
  24.9960012  21.7334997  29.2569988  24.8980330  20.9812765  28.8311863
  29.6820012  20.5994997  32.2039988  30.1020012  20.1844997  32.9569988
  28.7490012  20.4214997  32.3209988  29.6133644  20.5185900  32.3229539
  33.0080012  24.3554997  33.0569988  32.4940012  24.2294997  33.8549988
  32.8530012  25.2674997  32.8129988  32.9166852  24.4616132  33.1332158
  33.7710012  29.2164997  18.8189988  33.8130012  28.9934997  17.8889988
  34.6200012  29.6154997  19.0089988  33.8915396  29.2399155  18.7173627
  29.3430012  23.0924997  19.4889988  29.0900012  23.1114997  20.4119988
  29.0870012  22.2204997  19.1879988  29.2737790  22.9772437  19.5746263
  25.1100012  25.8434997  29.9239988  24.4680012  25.8024997  30.6329988
  25.1470012  26.7694997  29.6869988  25.0271324  25.9631559  29.9889824
  25.1070012  26.0644997  24.8359988  24.2140012  25.7234997  24.7779988
  25.5570012  25.6874997  24.0809988  25.0457305  25.9668484  24.7259177
  30.6420012  26.4804997  23.6529988  30.2330012  27.2954997  23.3619988
  31.3630012  26.3404997  23.0389988  30.6834537  26.5732018  23.5301342
  29.7440012  26.6554997  35.1409988  29.1820012  25.9514997  35.4619988
  30.5710012  26.5354997  35.6089988  29.7787095  26.5427883  35.2482330
  31.6470012  25.9264997  26.4669988  31.4520012  26.5314997  25.7519988
  31.8280012  25.0924997  26.0329988  31.6447614  25.8966300  26.3104405
  22.8600012  26.1634997  31.7909988  22.8220012  26.5634997  32.6599988
  22.3690012  25.3464997  31.8819988  22.7884684  26.1078069  31.9221059
  26.2260012  23.5374997  18.5899988  25.7950012  23.0924997  19.3199988
  25.5080012  23.9094997  18.0779988  26.0699438  23.5268940  18.6206799
  19.4680012  23.2794997  25.6419988  20.0990012  23.2504997  26.3609988
  19.9170012  22.8544997  24.9119988  19.6150774  23.2180492  25.6416553
  20.7420012  24.0254997  21.0659988  21.2160012  24.6164997  20.4809988
  20.0250012  24.5564997  21.4129988  20.7099341  24.1780867  21.0328836
  30.9110012  27.5644997  31.1389988  31.2340012  26.9334997  30.4959988
  30.4710012  27.0294997  31.7989988  30.8956895  27.4058441  31.1402850
  27.6880012  23.4914997  25.9229988  26.7770012  23.5484997  26.2109988
  28.1940012  23.4314997  26.7329988  27.6315413  23.4911985  26.0720622
  22.5170012  25.1204997  24.7489988  21.6270012  25.2204997  24.4089988
  22.8130012  24.2784997  24.4029988  22.4352823  25.0203545  24.6557213
  26.1700012  25.1204997  22.4059988  27.1010012  25.2494997  22.5839988
  25.9550012  25.7904997  21.7559988  26.2684247  25.2286565  22.3425747
  32.0930012  22.7264997  29.1869988  31.4170012  22.8574997  29.8509988
  31.6080012  22.5714997  28.3769988  31.9347145  22.7234905  29.1684517
  24.8440012  26.3154997  19.9729988  24.3010012  25.9354997  19.2809988
  25.6770012  26.5094997  19.5439988  24.8824399  26.2898124  19.8204526
  35.3810012  38.3984997  35.4639988  35.5810012  38.8224997  34.6289988
  36.0360012  38.7414997  36.0709988  35.4970051  38.5029648  35.4317836
  22.9790012  30.8724997  35.0719988  23.7110012  31.1264997  35.6329988
  22.1990012  31.0764997  35.5869988  22.9738232  30.9349177  35.2185760
  29.0080012  26.2794997  27.8099988  29.5730012  25.7324997  27.2629988
  28.8610012  25.7574997  28.5979988  29.0652918  26.1342024  27.8418454
  24.0100012  22.4154997  24.2279988  23.6930012  21.5134997  24.1929988
  24.7920012  22.4174997  23.6749988  24.0722284  22.2921628  24.1484783
  27.6350012  24.6674997  30.2239988  26.7990012  25.1214997  30.3339988
  28.1590012  24.9434997  30.9759988  27.5914414  24.7669376  30.3407136
  28.1790012  30.8804997  21.9079988  27.4340012  30.3734997  21.5859988
  28.0450012  30.9294997  22.8549988  28.0588776  30.8176940  21.9918647
  35.3290012  30.0134997  30.6949988  35.9710012  30.4704997  30.1509988
  34.4990012  30.1264997  30.2319988  35.3045963  30.0912704  30.5580177
  32.0770012  23.6944997  20.1079988  31.1380012  23.8064997  19.9559988
  32.3740012  24.5514997  20.4139988  31.9887666  23.8256443  20.1285768
  29.6980012  31.0644997  33.1449988  29.3530012  30.6834997  33.9519988
  29.4980012  31.9984997  33.2169988  29.6238061  31.1385228  33.2650961
  32.7950012  25.5614997  21.7679988  33.6870012  25.4244997  22.0869988
  32.8520012  26.3524997  21.2319988  32.9246285  25.6496660  21.7391690
  23.3040012  30.1754997  27.6779988  24.0490012  30.1734997  27.0769988
  23.3820012  29.3524997  28.1599988  23.4165518  30.0639315  27.6608929
  30.3050012  32.3394997  20.9339988  30.0090012  33.1654997  21.3149988
  29.6020012  31.7194997  21.1299988  30.1694914  32.3688199  21.0126443
  20.3120012  28.6364997  32.9929988  20.5350012  28.2184997  33.8249988
  19.7100012  28.0234997  32.5699988  20.2611759  28.4964668  33.0497022
  27.3280012  28.1534997  35.2059988  27.0320012  27.9874997  34.3109988
  28.2600012  27.9334997  35.1949988  27.4134166  28.1010640  35.0820536
  31.9490012  33.5264997  33.0959988  31.0480012  33.7094997  32.8279988
  31.9830012  33.7854997  34.0169988  31.8303041  33.5865512  33.1838197
  37.6800012  25.7714997  21.4629988  37.1260012  25.3754997  20.7909988
  37.7800012  26.6814997  21.1849988  37.6177059  25.8403586  21.3334401
  37.6430012  31.5714997  34.2999988  36.7920012  31.8094997  33.9329988
  38.2340012  31.5544997  33.5469988  37.6062487  31.6018258  34.1478893
  35.9750012  34.5574997  21.9279988  35.6020012  33.7314997  22.2369988
  36.2530012  34.3744997  21.0309988  35.9615630  34.4197303  21.8489626
  33.1360012  29.3654997  28.9489988  32.2070012  29.1334997  28.9219988
  33.5870012  28.5884997  28.6189988  33.0699216  29.2287238  28.9006917
  25.6790012  33.6934997  25.0819988  26.2060012  34.4664997  24.8819988
  24.7990012  33.9184997  24.7809988  25.6321773  33.8298005  25.0139010
  21.4340012  28.5554997  19.6689988  22.0500012  29.1824997  20.0489988
  20.5720012  28.8714997  19.9409988  21.4017698  28.6839430  19.7577183
  27.1060012  31.3564997  24.6589988  26.8650012  32.2814997  24.6999988
  26.3650012  30.8974997  25.0549988  26.9728409  31.4211421  24.7181377
  27.6210012  35.5054997  30.9739988  27.9830012  36.3604997  30.7399988
  28.1520012  35.2134997  31.7139988  27.7424473  35.5831060  31.0420855
  25.7890012  36.3784997  24.2039988  24.8390012  36.4834997  24.2549988
  26.1410012  37.1984997  24.5489988  25.7064203  36.5038314  24.2576650
  31.1650012  31.6044997  30.6739988  30.7390012  31.3774997  31.5009988
  31.7450012  30.8664997  30.4919988  31.1851868  31.4735299  30.7625830
  33.3680012  32.5334997  19.7479988  33.7210012  32.1534997  20.5529988
  32.4190012  32.4404997  19.8349988  33.2880441  32.4689596  19.8698559
  33.8230012  36.1564997  33.1439988  33.2220012  35.6014997  32.6479988
  34.1050012  36.8234997  32.5179988  33.7788519  36.1706841  32.9914952
  37.8710012  37.0134997  19.9489988  38.6150012  37.5994997  19.8089988
  37.1770012  37.5814997  20.2829988  37.8790292  37.1705582  19.9749961
  21.9460012  23.3894997  32.5509988  21.0530012  23.7284997  32.4829988
  21.8470012  22.5344997  32.9689988  21.8104164  23.3202588  32.5982235
  34.2340012  31.2064997  21.9749988  33.9560012  30.4784997  22.5309988
  35.1610012  31.3254997  22.1799988  34.3213124  31.1228802  22.0788845
  21.5970012  35.1944997  30.9859988  21.8140012  34.2624997  30.9549988
  21.8430012  35.4684997  31.8689988  21.6599549  35.1040636  31.1011763
  27.4590012  33.6454997  18.1949988  27.6980012  32.8974997  17.6479988
  27.1900012  33.2574997  19.0279988  27.4553675  33.4906638  18.2326865
  26.3960012  33.2154997  20.6519988  26.5420012  32.6954997  21.4419988
  26.3930012  34.1224997  20.9579988  26.4155989  33.2668853  20.8016088
  22.8490012  30.4684997  21.1619988  22.1630012  30.8204997  21.7289988
  23.3710012  31.2314997  20.9149988  22.8256852  30.6198578  21.2062118
  30.6800012  23.1304997  31.4409988  31.3790012  23.2044997  32.0909988
  30.2990012  22.2664997  31.5949988  30.7241767  23.0237624  31.5508322
  31.4650012  22.7824997  22.5379988  31.6850012  23.2544997  21.7349988
  32.0230012  23.1774997  23.2079988  31.5704968  22.9004285  22.5187331
  29.1330012  34.9134997  21.4009988  28.3170012  35.4104997  21.4529988
  29.6630012  35.3884997  20.7609988  29.0929161  35.0457722  21.3215956
  28.6650012  24.5104997  23.3729988  29.4770012  25.0154997  23.4189988
  28.4200012  24.3654997  24.2869988  28.7430520  24.5600375  23.5028517
  29.2000012  25.4964997  32.5579988  29.3190012  26.0704997  33.3149988
  29.8560012  24.8084997  32.6719988  29.3049757  25.4821079  32.6770825
  29.5480012  21.5914997  24.3109988  29.2020012  22.2094997  24.9559988
  30.2070012  22.0924997  23.8299988  29.5897826  21.7435802  24.3340971
  26.4720012  35.9574997  21.3829988  26.6320012  36.7564997  20.8819988
  26.2740012  36.2634997  22.2679988  26.4671649  36.1084469  21.4339815
  25.2060012  22.6544997  20.9979988  25.1230012  23.5434997  21.3449988
  26.0960012  22.3894997  21.2299988  25.3149469  22.7401430  21.0767626
  35.4050012  23.4034997  33.3929988  34.4880012  23.6664997  33.3049988
  35.7400012  23.4004997  32.4959988  35.3249900  23.4390224  33.2597919
  34.0070012  27.1544997  27.4879988  33.2090012  26.7394997  27.1599988
  34.4520012  26.4634997  27.9789988  33.9579885  27.0043543  27.5094889
  23.4650012  33.0824997  20.0589988  24.0570012  33.7814997  20.3349988
  23.9240012  32.6494997  19.3389988  23.6081142  33.1197049  19.9994830
  21.7810012  25.7464997  19.1749988  21.7360012  26.6854997  19.3529988
  20.8930012  25.5104997  18.9049988  21.6548574  25.8431892  19.1628912
  35.0930012  36.4104997  29.1109988  34.9380012  37.0884997  28.4539988
  36.0260012  36.4824997  29.3139988  35.1978500  36.5130170  29.0485119
  22.5890012  20.5284997  27.8479988  22.3600012  20.5874997  26.9199988
  22.1460012  19.7364997  28.1539988  22.4978530  20.4295753  27.7624786
  21.5190012  34.4684997  24.0079988  20.6870012  34.9414997  24.0359988
  22.0650012  34.9784997  23.4099988  21.4789739  34.6021871  23.9309716
  20.8070012  37.0814997  35.3379988  21.3480012  36.8644997  36.0979988
  20.3260012  36.2754997  35.1489988  20.8159345  36.9429514  35.4163076
  25.4050012  36.0004997  36.9589988  26.1720012  35.5414997  37.2999988
  25.3830012  35.7744997  36.0289988  25.5071434  35.9070409  36.8800043
  29.4970012  35.5084997  18.3339988  28.8530012  34.8774997  18.6549988
  30.2590012  34.9774997  18.1019988  29.5118077  35.3502920  18.3466011
  31.9820012  34.3804997  35.6879988  31.6310012  33.5244997  35.9309988
  32.7080012  34.5234997  36.2949988  32.0320769  34.2825636  35.8033619
  34.1010012  35.3254997  18.5679988  34.3840012  34.5314997  19.0199988
  34.8410012  35.5584997  18.0069988  34.2397486  35.2482803  18.5540698
  20.7140012  30.8914997  36.2929988  20.8580012  29.9894997  36.0059988
  19.9420012  31.1774997  35.8049988  20.6293322  30.8068261  36.1877881
  25.0560012  31.2354997  18.4249988  25.1200012  30.4414997  18.9559988
  25.7090012  31.1164997  17.7349988  25.1530241  31.1107148  18.4044317
  27.3700012  30.8614997  35.7249988  27.0410012  31.1324997  34.8679988
  27.5220012  29.9204997  35.6379988  27.3454809  30.7713862  35.5958244
  30.4080012  32.2824997  18.1609988  30.1390012  32.4624997  19.0619988
  30.2020012  31.3564997  18.0299988  30.3433825  32.1820152  18.2665214
  33.1040012  30.7774997  33.1089988  33.8500012  31.3654997  32.9889988
  32.3470012  31.3594997  33.1719988  33.1037554  30.9367011  33.1010907
  21.5470012  28.0914997  35.7129988  21.9550012  27.2344997  35.5919988
  21.2870012  28.1064997  36.6339988  21.5677568  27.9760807  35.8209588
  26.2050012  29.2074997  20.7309988  25.7450012  28.7234997  21.4169988
  26.4600012  28.5394997  20.0949988  26.1764902  29.0508731  20.7389334
  25.4940012  27.1004997  33.0869988  24.8760012  27.7754997  33.3669988
  25.8380012  27.4214997  32.2539988  25.4559615  27.2362721  33.0126581
  27.2760012  27.4504997  18.9929988  27.0960012  27.2964997  18.0659988
  28.2260012  27.5584997  19.0379988  27.3797776  27.4440175  18.8721843
  30.5140012  29.5724997  36.3639988  31.4670012  29.6554997  36.3369988
  30.3530012  28.8604997  36.9839988  30.6226426  29.4876746  36.4440579
  36.6660012  29.8054997  18.4389988  36.3920012  29.3804997  17.6259988
  36.7050012  30.7364997  18.2219988  36.6337699  29.8732484  18.2983610
  25.8330012  24.4554997  34.1689988  25.9830012  23.7264997  33.5669988
  25.8360012  25.2324997  33.6099988  25.8539302  24.4607851  34.0110692
  26.2460012  22.8254997  31.6619988  26.7820012  23.2764997  31.0099988
  25.3940012  22.7174997  31.2389988  26.2042178  22.8726390  31.5155756
  27.8280012  28.2644997  31.9009988  28.5780012  28.1084997  31.3279988
  27.4890012  29.1164997  31.6259988  27.8848921  28.3582968  31.7853561
  32.2430012  26.0794997  36.9299988  32.4360012  25.1484997  36.8179988
  33.1010012  26.5044997  36.9199988  32.3853020  26.0096389  36.9133361
  33.5600012  28.8684997  35.0069988  33.2790012  29.5774997  34.4299988
  34.5030012  28.7954997  34.8559988  33.6489027  28.9557646  34.9075551
  24.3120012  25.6534997  36.0809988  23.5450012  25.1214997  35.8709988
  24.9910012  25.3434997  35.4809988  24.2987022  25.5387506  35.9711648
  27.0520012  20.2814997  32.0929988  26.9530012  21.2284997  31.9879988
  26.3090012  19.9094997  31.6179988  26.9380564  20.3605902  32.0144560
  28.3160012  24.6034997  35.6569988  28.0800012  24.3834997  36.5589988
  27.5320012  24.3964997  35.1469988  28.1778628  24.5454760  35.7113932
  31.0310012  23.7304997  34.7329988  30.0840012  23.7624997  34.8649988
  31.3440012  23.1054997  35.3859988  30.9435475  23.6503207  34.8394455
  32.6650012  22.3644997  36.7379988  32.5690012  21.4124997  36.7319988
  32.3440012  22.6334997  37.5979988  32.6084070  22.2704035  36.8535441
  22.4920012  23.5744997  35.7849988  22.7040012  22.8674997  35.1749988
  22.3810012  23.1364997  36.6289988  22.5059721  23.4187084  35.8156843
  27.2730012  19.5754997  34.7649988  27.9850012  18.9354997  34.7509988
  27.1720012  19.8424997  33.8509988  27.3567939  19.5239938  34.6395650
  27.6270012  21.2584997  36.8179988  27.4950012  20.7824997  35.9979988
  27.0280012  22.0024997  36.7629988  27.5279071  21.2939618  36.6982886
  27.1730012  38.1414997  19.9949988  28.1060012  38.2994997  20.1379988
  26.9090012  38.8164997  19.3699988  27.2649510  38.2543611  19.9300741
  20.7420012  32.7774997  19.4769988  21.6560012  32.8564997  19.7509988
  20.7490012  32.0904997  18.8109988  20.8681131  32.6953961  19.4244393
  19.3910012  38.1704997  24.5549988  18.7440012  37.7084997  24.0219988
  19.7450012  37.4984997  25.1369988  19.3503849  38.0164723  24.5607959
  20.2610012  36.2514997  26.3589988  19.9260012  35.3714997  26.5309988
  20.4830012  36.5964997  27.2239988  20.2451783  36.1777500  26.4994208
  37.8090012  37.0604997  29.3399988  37.7880012  37.2454997  30.2789988
  38.5000012  37.6294997  28.9989988  37.8994618  37.1626606  29.4223864
  37.3730012  36.6284997  32.2619988  36.8850012  35.8924997  31.8909988
  37.9220012  36.2344997  32.9399988  37.3804872  36.4746249  32.3029160
  35.8230012  32.4174997  36.8999988  34.9570012  32.3124997  37.2939988
  36.2000012  33.1764997  37.3459988  35.7553308  32.5056900  37.0142393
  37.1240012  30.6744997  22.4139988  37.9740012  31.0954997  22.5409988
  37.1300012  29.9344997  23.0209988  37.2411372  30.6320803  22.5134344
  37.5190012  28.7274997  24.2379988  36.7920012  28.2484997  24.6349988
  38.1000012  28.9334997  24.9699988  37.4979375  28.6897090  24.3914129
  37.2780012  31.5124997  29.1849988  38.1110012  31.1344997  28.9049988
  37.3900012  32.4554997  29.0659988  37.4072647  31.5882218  29.1305487
  35.7640012  34.3904997  31.4919988  35.1170012  34.7154997  32.1179988
  35.2470012  33.9504997  30.8179988  35.6054029  34.3755004  31.4865827
  37.7870012  28.6284997  20.6289988  37.2650012  28.9854997  19.9099988
  37.7540012  29.3034997  21.3069988  37.7111634  28.7685413  20.6223145
  36.1360012  25.8684997  19.1799988  36.2320012  26.5354997  18.4989988
  35.9960012  25.0524997  18.6979988  36.1302135  25.8494500  19.0218491
  35.3050012  27.2484997  24.8009988  35.1550012  26.3034997  24.7799988
  34.9520012  27.5294997  25.6439988  35.2366625  27.1570441  24.9122346
  20.3410012  29.3264997  28.8109988  20.5250012  29.2444997  27.8749988
  21.1900012  29.2024997  29.2349988  20.4810139  29.2985003  28.7401455
  36.1620012  29.2184997  34.4389988  36.7450012  28.4844997  34.6309988
  36.7260012  29.9904997  34.4859988  36.3179769  29.2224227  34.4716159
  37.6580012  27.1214997  35.1239988  36.7950012  26.7424997  34.9579988
  38.2630012  26.3824997  35.0499988  37.6215979  26.9698023  35.0912817
  35.3830012  23.2764997  18.2969988  35.9940012  22.9054997  18.9339988
  34.5470012  22.8554997  18.4929988  35.3535032  23.1687554  18.4107035
  35.0160012  24.8314997  23.2629988  35.2960012  23.9244997  23.3869988
  35.7750012  25.2654997  22.8739988  35.1569277  24.7660942  23.2273682
  35.6280012  25.4124997  28.6989988  36.5610012  25.6244997  28.6649988
  35.3930012  25.5144997  29.6209988  35.7238036  25.4552769  28.8189976
  35.6570012  26.1494997  31.4749988  34.8140012  26.4174997  31.8409988
  36.0990012  26.9714997  31.2639988  35.6014158  26.2973291  31.4965491
  19.9380012  24.5974997  34.9519988  20.8580012  24.4754997  35.1879988
  19.4890012  23.8474997  35.3409988  20.0031580  24.4793727  35.0369006
  37.9400012  20.1294997  36.8279988  38.2900012  19.4754997  36.2229988
  38.0870012  20.9664997  36.3889988  38.0078419  20.1531591  36.6857118
  35.6290012  22.0944997  23.3109988  35.8120012  21.6454997  24.1369988
  35.0300012  21.5094997  22.8479988  35.5730202  21.9539975  23.3613275
  21.1590012  22.9094997  27.8429988  21.6050012  22.1174997  28.1449988
  21.6260012  23.6254997  28.2739988  21.2830172  22.8980624  27.9424820
  19.4630012  25.9084997  28.9119988  19.9550012  25.6874997  28.1209988
  19.8260012  26.7494997  29.1929988  19.5793126  25.9918357  28.8417531
  37.4600012  22.2384997  35.1779988  36.5420012  22.5094997  35.1419988
  37.5830012  21.7034997  34.3929988  37.3511066  22.2032892  35.0670487
  37.4960012  22.1614997  19.8389988  37.9080012  21.4404997  19.3639988
  38.1780012  22.8314997  19.8979988  37.6445885  22.1532368  19.7818915
  19.7770012  22.1664997  22.9659988  18.8520012  22.3754997  22.8369988
  20.2310012  22.6504997  22.2769988  19.7117368  22.2605993  22.8551226
  34.5480012  37.1504997  24.9119988  35.2000012  36.8034997  24.3039988
  35.0580012  37.6394997  25.5579988  34.7062637  37.1690597  24.9160236
  19.7410012  20.9044997  31.3109988  19.0760012  20.6584997  31.9539988
  19.2980012  21.5264997  30.7329988  19.5900956  20.9548632  31.3209352
  21.9330012  34.0794997  35.4549988  21.1120012  34.2544997  34.9949988
  21.6800012  34.0064997  36.3759988  21.7866164  34.0935622  35.5164923
  24.8870012  35.0544997  31.7139988  24.4620012  35.8634997  31.4309988
  25.7910012  35.1394997  31.4119988  24.9510271  35.1768469  31.6343776
  29.1980012  36.4534997  34.6729988  29.3830012  36.1194997  35.5509988
  30.0440012  36.7624997  34.3509988  29.3377539  36.4496047  34.7495605
  31.5430012  37.7394997  33.9169988  32.2200012  37.1064997  33.6769988
  31.8650012  38.1404997  34.7239988  31.6791637  37.7071154  33.9932793
  36.4600012  20.3284997  32.9969988  35.6480012  20.6534997  32.6089988
  36.6930012  19.5684997  32.4639988  36.3803423  20.2702436  32.8718253
  22.2890012  38.3104997  31.7609988  21.5680012  38.7504997  31.3099988
  21.9230012  38.0594997  32.6099988  22.1409804  38.3367698  31.8139840
  24.7560012  37.9104997  30.7909988  23.8910012  37.9824997  31.1949988
  24.7010012  38.4574997  30.0069988  24.6302085  37.9942685  30.7403362
  29.4660012  37.7984997  29.9659988  29.0100012  38.3274997  29.3119988
  29.6290012  38.4014997  30.6919988  29.4255585  37.9524468  29.9745062
  31.7940012  36.6764997  30.9109988  30.8890012  36.8414997  30.6459988
  32.2230012  37.5294997  30.8459988  31.7280799  36.8144483  30.8659182
  34.3980012  38.2464997  31.2059988  34.2160012  39.1624997  30.9959988
  34.5750012  37.8364997  30.3599988  34.3970210  38.3164822  31.0627885
  21.7030012  36.9334997  28.6709988  21.6850012  36.5084997  29.5289988
  22.5080012  36.6154997  28.2629988  21.8093875  36.8323812  28.7331655
  23.8450012  35.6434997  27.3259988  23.6260012  34.7274997  27.4959988
  24.6690012  35.7834997  27.7919988  23.9264420  35.5370520  27.4122773
  26.3820012  36.1134997  28.1749988  26.5950012  35.2254997  27.8879988
  26.4460012  36.0794997  29.1289988  26.4198231  35.9873102  28.2647397
  29.8900012  21.7774997  27.3189988  29.2160012  21.1484997  27.5749988
  30.4540012  21.2934997  26.7159988  29.8739230  21.6258744  27.2725340
  35.0330012  19.8854997  27.4319988  35.6370012  20.4324997  26.9299988
  34.1630012  20.2044997  27.1919988  34.9981241  20.0035806  27.3307654
  36.7600012  21.0234997  25.7649988  37.3720012  20.5094997  25.2389988
  37.1420012  21.9014997  25.7889988  36.8954540  21.0717140  25.6961830
  22.2170012  20.4114997  25.1409988  21.4400012  20.1774997  24.6339988
  22.7470012  19.6144997  25.1499988  22.1822330  20.2716988  25.0727742
  21.0530012  20.2094997  20.9449988  21.4920012  20.8204997  20.3529988
  20.4200012  20.7474997  21.4189988  21.0274514  20.3659257  20.9280930
  26.7960012  20.3384997  24.9549988  27.6710012  20.7264997  24.9249988
  26.6600012  20.1234997  25.8769988  26.8973695  20.3625184  25.0756440
  32.3530012  20.3684997  26.6039988  32.4290012  20.4634997  25.6539988
  32.0780012  19.4604997  26.7329988  32.3262321  20.2587867  26.4915079
  33.7060012  20.3944997  22.2959988  33.0040012  21.0094997  22.0869988
  33.2620012  19.5564997  22.4269988  33.5496330  20.3655783  22.2850328
  20.9540012  36.1574997  21.8429988  20.2690012  36.1194997  21.1749988
  20.9580012  37.0704997  22.1309988  20.8608193  36.2757016  21.7905284
  22.9140012  22.1254997  19.3869988  23.4060012  21.4954997  18.8599988
  23.5380012  22.4214997  20.0509988  23.0655446  22.0793199  19.4045980
  27.9400012  22.4184997  21.8439988  28.1180012  21.7724997  22.5269988
  27.8870012  23.2524997  22.3119988  27.9571829  22.4427985  22.0005940
  29.8190012  37.3674997  20.2399988  30.6850012  37.7334997  20.0619988
  29.5720012  36.9274997  19.4259988  29.9042392  37.3581756  20.1056289
  36.5280012  36.9304997  22.9189988  36.3330012  36.1824997  22.3539988
  36.4890012  37.6884997  22.3359988  36.4960380  36.9306099  22.7628384
  22.1750012  20.9254997  34.6589988  21.8090012  20.1604997  35.1019988
  23.0880012  20.9544997  34.9459988  22.2482790  20.8247224  34.7584070
  24.1480012  20.2764997  36.1949988  25.0460012  20.0024997  36.0099988
  23.7610012  19.5334997  36.6589988  24.2186612  20.1385914  36.2323643
  22.7720012  37.0774997  18.8679988  22.5050012  37.3644997  19.7409988
  23.5440012  36.5314997  19.0199988  22.8397488  37.0430294  19.0081050
  32.5690012  19.6084997  36.3769988  32.6460012  19.1824997  37.2309988
  33.4630012  19.6224997  36.0339988  32.7003428  19.5520879  36.4475310
  35.7450012  35.6814997  35.0689988  34.9630012  35.4954997  34.5499988
  35.6730012  36.6104997  35.2869988  35.6281777  35.7816492  35.0274048
  50.1510012  29.5674997  25.0999988  50.2400012  30.5114997  24.9679988
  49.5130012  29.2924997  24.4419988  50.0769081  29.6594830  24.9929614
  49.0840012  28.8224997  28.5189988  49.0460012  28.1764997  29.2239988
  48.7620012  28.3564997  27.7479988  49.0352333  28.6709408  28.5112978
  41.4530012  28.4374997  30.1119988  41.4940012  27.8114997  30.8349988
  42.1560012  29.0614997  30.2939988  41.5536363  28.4361196  30.2356044
  52.7900012  31.7614997  26.8199988  52.3500012  31.0414997  27.2709988
  52.7770012  32.4824997  27.4499988  52.7280226  31.7603731  26.9668494
  42.3760012  32.8874997  28.6469988  42.0070012  32.0854997  28.2769988
  43.3170012  32.7184997  28.6929988  42.4527289  32.7550153  28.6026316
  38.9860012  26.5474997  24.0399988  38.5390012  27.3934997  24.0209988
  38.4250012  25.9674997  23.5239988  38.8489900  26.5849916  23.9676801
  39.6970012  28.7094997  26.1659988  39.9100012  27.9394997  26.6929988
  40.4350012  28.7984997  25.5619988  39.8258496  28.6161394  26.1565300
  49.9020012  36.8664997  27.0329988  50.5220012  36.1894997  26.7589988
  49.6940012  36.6484997  27.9409988  49.9586904  36.7443870  27.1183365
  47.4740012  31.2554997  28.9249988  47.7780012  30.5694997  28.3299988
  48.1950012  31.3734997  29.5429988  47.6130671  31.1776304  28.9271816
  56.1370012  22.8564997  29.7859988  56.1860012  23.4664997  30.5219988
  56.5620012  23.3174997  29.0629988  56.2011824  23.0023741  29.7890205
  50.6150012  25.6494997  29.2529988  50.7570012  24.7034997  29.2729988
  50.5080012  25.8564997  28.3239988  50.6199864  25.5479534  29.1302339
  43.7690012  23.7504997  26.5249988  43.8130012  24.6104997  26.1069988
  43.3120012  23.1984997  25.8909988  43.7132185  23.7935799  26.3820299
  51.4920012  23.8814997  24.9259988  52.1380012  23.5524997  25.5509988
  52.0020012  24.3994997  24.3029988  51.6494264  23.9064611  24.9273862
  40.3900012  26.1474997  27.2869988  41.0430012  25.5974997  27.7189988
  40.4140012  25.8734997  26.3699988  40.4826683  26.0351466  27.2222123
  45.5460012  27.6974997  26.5019988  46.1620012  27.1714997  27.0119988
  44.9600012  27.0574997  26.0989988  45.5510810  27.5389208  26.5173173
  56.5280012  24.3344997  32.0219988  55.8400012  24.9924997  31.9259988
  56.5440012  24.1374997  32.9579988  56.4358525  24.3980462  32.1354808
  42.5800012  22.6684997  30.5989988  42.3610012  23.1984997  29.8329988
  41.9120012  22.8954997  31.2459988  42.4597600  22.7716906  30.5816379
  49.9490012  32.1684997  24.1429988  49.6530012  31.8464997  23.2919988
  49.6240012  33.0684997  24.1839988  49.8646371  32.2460215  24.0321801
  45.1490012  30.3444997  30.8859988  44.4090012  30.9424997  30.9899988
  45.8630012  30.8984997  30.5709988  45.1442237  30.5012831  30.8576465
  53.2560012  23.1724997  26.9059988  53.0400012  22.4064997  27.4389988
  53.9110012  23.6444997  27.4189988  53.3150632  23.1315889  27.0482861
  42.1730012  24.5604997  28.5509988  42.7870012  25.1934997  28.9249988
  42.6850012  24.0884997  27.8949988  42.3262296  24.5832370  28.5134252
  43.5560012  32.3084997  31.6739988  43.5510012  33.1884997  31.2959988
  42.7030012  32.2254997  32.0989988  43.4399464  32.4176117  31.6797907
  39.6770012  31.9794997  22.4559988  39.4050012  32.2084997  21.5669988
  39.7230012  32.8174997  22.9159988  39.6460094  32.1241213  22.3965697
  53.3020012  33.6014997  29.1679988  52.3610012  33.6594997  29.3299988
  53.5790012  34.5074997  29.0309988  53.2104679  33.7319443  29.1716815
  53.6030012  21.8874997  30.5859988  52.8670012  22.4984997  30.5479988
  54.2860012  22.3024997  30.0589988  53.5946541  22.0271374  30.5095832
  46.6060012  19.9744997  28.0519988  46.4890012  19.0254997  27.9969988
  45.7510012  20.3064997  28.3249988  46.4743733  19.8895409  28.0813897
  51.5540012  35.3824997  25.7939988  51.9800012  34.6754997  25.3089988
  51.8710012  36.1834997  25.3769988  51.6551019  35.3940994  25.6713130
  52.7140012  33.2834997  24.3019988  52.4560012  32.5934997  23.6909988
  52.7850012  32.8404997  25.1479988  52.6882856  33.1292124  24.3326885
  54.4000012  31.8494997  32.7799988  54.5400012  31.2584997  32.0399988
  54.5670012  32.7224997  32.4229988  54.4416778  31.8866426  32.6306965
  48.8730012  28.8114997  22.5519988  48.1610012  29.3464997  22.1999988
  49.5640012  28.8674997  21.8919988  48.8690132  28.8922543  22.4146289
  48.9260012  27.2694997  19.5909988  49.6270012  27.2914997  20.2419988
  49.2290012  26.6414997  18.9349988  49.0627830  27.1876566  19.5913711
  56.2420012  28.1894997  30.8459988  55.5890012  28.8844997  30.9349988
  56.7070012  28.3994997  30.0359988  56.2155390  28.3129425  30.7486883
  52.2780012  29.0214997  23.5039988  51.5460012  29.2494997  24.0769988
  52.7260012  28.3074997  23.9589988  52.2383095  28.9562571  23.6439119
  52.1760012  27.1954997  32.5709988  52.2560012  27.9584997  33.1429988
  51.5740012  27.4744997  31.8809988  52.1055756  27.3377134  32.5560589
  43.9240012  29.6514997  25.3859988  43.5930012  29.2814997  24.5679988
  44.5120012  28.9814997  25.7329988  43.9581873  29.5101156  25.3208102
  45.2900012  33.0794997  28.0679988  45.1960012  32.5014997  27.3109988
  46.0200012  32.7084997  28.5639988  45.3757981  32.9502390  28.0314165
  44.2900012  28.4204997  29.0199988  44.8560012  28.5414997  28.2569988
  44.6090012  29.0574997  29.6589988  44.4105786  28.5231884  29.0020040
  50.5990012  33.9234997  29.7539988  50.3590012  34.5854997  30.4019988
  50.4010012  33.0894997  30.1789988  50.5393808  33.9013134  29.9001524
  45.1700012  32.8194997  33.7369988  44.8590012  33.6014997  34.1919988
  44.5200012  32.6664997  33.0509988  45.0395558  32.9059105  33.7065871
  51.1490012  28.1834997  21.1889988  51.7290012  28.3334997  21.9359988
  51.5630012  28.6544997  20.4659988  51.2842830  28.2676841  21.1934134
  42.0900012  29.0174997  32.9659988  42.1610012  29.6684997  33.6639988
  41.2000012  29.1204997  32.6309988  41.9793117  29.1205936  33.0162700
  48.8760012  34.9204997  24.6239988  49.3500012  35.2154997  25.4019988
  48.3130012  35.6584997  24.3909988  48.8647653  35.0606932  24.6990136
  43.4100012  34.8914997  34.4999988  43.4170012  34.7554997  33.5529988
  42.4940012  34.7734997  34.7519988  43.2871714  34.8569430  34.4044666
  54.8480012  19.9334997  21.0019988  53.9480012  20.0724997  21.2969988
  55.1000012  20.7644997  20.5999988  54.7588702  20.0649074  20.9880205
  42.9140012  28.7214997  22.9759988  42.6220012  29.4894997  22.4849988
  42.2400012  28.0614997  22.8129988  42.7829081  28.7374406  22.8867340
  56.0370012  34.2994997  19.3779988  56.1110012  35.2384997  19.5489988
  56.9430012  33.9944997  19.3219988  56.1695100  34.3866722  19.3938119
  39.0070012  31.0844997  31.7909988  38.5060012  31.0564997  30.9759988
  39.0120012  30.1784997  32.0999988  38.9391526  30.9582278  31.7212872
  38.7570012  33.8644997  28.6749988  39.7030012  33.7204997  28.6559988
  38.6450012  34.6484997  29.2119988  38.8712727  33.9508046  28.7450072
  56.9550012  34.5304997  34.3569988  56.9060012  33.5754997  34.3199988
  56.1280012  34.7984997  34.7579988  56.8364940  34.4358998  34.4061375
  47.9340012  34.1044997  33.2329988  48.0210012  34.9304997  33.7079988
  47.0700012  33.7744997  33.4819988  47.8291964  34.1729878  33.3316549
  48.3480012  37.8764997  23.0389988  48.2730012  37.7554997  22.0929988
  48.3810012  38.8264997  23.1579988  48.3421848  37.9882500  22.9254834
  42.0010012  36.6654997  24.8199988  42.1540012  36.3174997  25.6989988
  41.1510012  36.3094997  24.5649988  41.9068962  36.5696650  24.9058340
  51.4500012  37.0304997  20.0409988  51.8250012  36.2864997  19.5709988
  51.4540012  36.7604997  20.9599988  51.5018915  36.8921486  20.1007824
  51.1190012  36.9564997  22.7909988  50.1830012  37.0564997  22.9689988
  51.3990012  36.2474997  23.3689988  51.0288255  36.8742711  22.8935391
  54.1070012  26.0234997  34.8369988  53.7000012  26.5044997  34.1159988
  54.1480012  25.1184997  34.5289988  54.0568437  25.9669374  34.6966683
  41.2560012  32.4074997  32.8339988  41.4720012  32.0464997  33.6929988
  40.4010012  32.0334997  32.6239988  41.1699292  32.3074111  32.9233386
  43.8750012  20.8774997  28.8289988  43.0130012  20.7904997  28.4219988
  43.8520012  21.7334997  29.2569988  43.7540330  20.9812765  28.8311863
  48.5380012  20.5994997  32.2039988  48.9580012  20.1844997  32.9569988
  47.6050012  20.4214997  32.3209988  48.4693644  20.5185900  32.3229539
  51.8640012  24.3554997  33.0569988  51.3500012  24.2294997  33.8549988
  51.7090012  25.2674997  32.8129988  51.7726852  24.4616132  33.1332158
  52.6270012  29.2164997  18.8189988  52.6690012  28.9934997  17.8889988
  53.4760012  29.6154997  19.0089988  52.7475396  29.2399155  18.7173627
  48.1990012  23.0924997  19.4889988  47.9460012  23.1114997  20.4119988
  47.9430012  22.2204997  19.1879988  48.1297790  22.9772437  19.5746263
  43.9660012  25.8434997  29.9239988  43.3240012  25.8024997  30.6329988
  44.0030012  26.7694997  29.6869988  43.8831324  25.9631559  29.9889824
  43.9630012  26.0644997  24.8359988  43.0700012  25.7234997  24.7779988
  44.4130012  25.6874997  24.0809988  43.9017305  25.9668484  24.7259177
  49.4980012  26.4804997  23.6529988  49.0890012  27.2954997  23.3619988
  50.2190012  26.3404997  23.0389988  49.5394537  26.5732018  23.5301342
  48.6000012  26.6554997  35.1409988  48.0380012  25.9514997  35.4619988
  49.4270012  26.5354997  35.6089988  48.6347095  26.5427883  35.2482330
  50.5030012  25.9264997  26.4669988  50.3080012  26.5314997  25.7519988
  50.6840012  25.0924997  26.0329988  50.5007614  25.8966300  26.3104405
  41.7160012  26.1634997  31.7909988  41.6780012  26.5634997  32.6599988
  41.2250012  25.3464997  31.8819988  41.6444684  26.1078069  31.9221059
  45.0820012  23.5374997  18.5899988  44.6510012  23.0924997  19.3199988
  44.3640012  23.9094997  18.0779988  44.9259438  23.5268940  18.6206799
  38.3240012  23.2794997  25.6419988  38.9550012  23.2504997  26.3609988
  38.7730012  22.8544997  24.9119988  38.4710774  23.2180492  25.6416553
  39.5980012  24.0254997  21.0659988  40.0720012  24.6164997  20.4809988
  38.8810012  24.5564997  21.4129988  39.5659341  24.1780867  21.0328836
  49.7670012  27.5644997  31.1389988  50.0900012  26.9334997  30.4959988
  49.3270012  27.0294997  31.7989988  49.7516895  27.4058440  31.1402850
  46.5440012  23.4914997  25.9229988  45.6330012  23.5484997  26.2109988
  47.0500012  23.4314997  26.7329988  46.4875413  23.4911985  26.0720622
  41.3730012  25.1204997  24.7489988  40.4830012  25.2204997  24.4089988
  41.6690012  24.2784997  24.4029988  41.2912823  25.0203546  24.6557213
  45.0260012  25.1204997  22.4059988  45.9570012  25.2494997  22.5839988
  44.8110012  25.7904997  21.7559988  45.1244247  25.2286565  22.3425747
  50.9490012  22.7264997  29.1869988  50.2730012  22.8574997  29.8509988
  50.4640012  22.5714997  28.3769988  50.7907145  22.7234905  29.1684517
  43.7000012  26.3154997  19.9729988  43.1570012  25.9354997  19.2809988
  44.5330012  26.5094997  19.5439988  43.7384399  26.2898124  19.8204526
  54.2370012  38.3984997  35.4639988  54.4370012  38.8224997  34.6289988
  54.8920012  38.7414997  36.0709988  54.3530051  38.5029648  35.4317836
  41.8350012  30.8724997  35.0719988  42.5670012  31.1264997  35.6329988
  41.0550012  31.0764997  35.5869988  41.8298232  30.9349177  35.2185760
  47.8640012  26.2794997  27.8099988  48.4290012  25.7324997  27.2629988
  47.7170012  25.7574997  28.5979988  47.9212918  26.1342024  27.8418454
  42.8660012  22.4154997  24.2279988  42.5490012  21.5134997  24.1929988
  43.6480012  22.4174997  23.6749988  42.9282284  22.2921628  24.1484783
  46.4910012  24.6674997  30.2239988  45.6550012  25.1214997  30.3339988
  47.0150012  24.9434997  30.9759988  46.4474414  24.7669376  30.3407136
  47.0350012  30.8804997  21.9079988  46.2900012  30.3734997  21.5859988
  46.9010012  30.9294997  22.8549988  46.9148776  30.8176940  21.9918647
  54.1850012  30.0134997  30.6949988  54.8270012  30.4704997  30.1509988
  53.3550012  30.1264997  30.2319988  54.1605963  30.0912704  30.5580177
  50.9330012  23.6944997  20.1079988  49.9940012  23.8064997  19.9559988
  51.2300012  24.5514997  20.4139988  50.8447666  23.8256443  20.1285768
  48.5540012  31.0644997  33.1449988  48.2090012  30.6834997  33.9519988
  48.3540012  31.9984997  33.2169988  48.4798061  31.1385228  33.2650961
  51.6510012  25.5614997  21.7679988  52.5430012  25.4244997  22.0869988
  51.7080012  26.3524997  21.2319988  51.7806285  25.6496660  21.7391691
  42.1600012  30.1754997  27.6779988  42.9050012  30.1734997  27.0769988
  42.2380012  29.3524997  28.1599988  42.2725518  30.0639315  27.6608929
  49.1610012  32.3394997  20.9339988  48.8650012  33.1654997  21.3149988
  48.4580012  31.7194997  21.1299988  49.0254914  32.3688199  21.0126443
  39.1680012  28.6364997  32.9929988  39.3910012  28.2184997  33.8249988
  38.5660012  28.0234997  32.5699988  39.1171759  28.4964668  33.0497022
  46.1840012  28.1534997  35.2059988  45.8880012  27.9874997  34.3109988
  47.1160012  27.9334997  35.1949988  46.2694166  28.1010640  35.0820536
  50.8050012  33.5264997  33.0959988  49.9040012  33.7094997  32.8279988
  50.8390012  33.7854997  34.0169988  50.6863041  33.5865512  33.1838197
  56.5360012  25.7714997  21.4629988  55.9820012  25.3754997  20.7909988
  56.6360012  26.6814997  21.1849988  56.4737059  25.8403586  21.3334401
  56.4990012  31.5714997  34.2999988  55.6480012  31.8094997  33.9329988
  57.0900012  31.5544997  33.5469988  56.4622487  31.6018258  34.1478893
  54.8310012  34.5574997  21.9279988  54.4580012  33.7314997  22.2369988
  55.1090012  34.3744997  21.0309988  54.8175630  34.4197303  21.8489626
  51.9920012  29.3654997  28.9489988  51.0630012  29.1334997  28.9219988
  52.4430012  28.5884997  28.6189988  51.9259216  29.2287238  28.9006917
  44.5350012  33.6934997  25.0819988  45.0620012  34.4664997  24.8819988
  43.6550012  33.9184997  24.7809988  44.4881773  33.8298005  25.0139010
  40.2900012  28.5554997  19.6689988  40.9060012  29.1824997  20.0489988
  39.4280012  28.8714997  19.9409988  40.2577698  28.6839430  19.7577183
  45.9620012  31.3564997  24.6589988  45.7210012  32.2814997  24.6999988
  45.2210012  30.8974997  25.0549988  45.8288409  31.4211421  24.7181377
  46.4770012  35.5054997  30.9739988  46.8390012  36.3604997  30.7399988
  47.0080012  35.2134997  31.7139988  46.5984473  35.5831060  31.0420855
  44.6450012  36.3784997  24.2039988  43.6950012  36.4834997  24.2549988
  44.9970012  37.1984997  24.5489988  44.5624203  36.5038314  24.2576650
  50.0210012  31.6044997  30.6739988  49.5950012  31.3774997  31.5009988
  50.6010012  30.8664997  30.4919988  50.0411868  31.4735299  30.7625830
  52.2240012  32.5334997  19.7479988  52.5770012  32.1534997  20.5529988
  51.2750012  32.4404997  19.8349988  52.1440441  32.4689596  19.8698559
  52.6790012  36.1564997  33.1439988  52.0780012  35.6014997  32.6479988
  52.9610012  36.8234997  32.5179988  52.6348519  36.1706841  32.9914952
  56.7270012  37.0134997  19.9489988  57.4710012  37.5994997  19.8089988
  56.0330012  37.5814997  20.2829988  56.7350292  37.1705582  19.9749961
  40.8020012  23.3894997  32.5509988  39.9090012  23.7284997  32.4829988
  40.7030012  22.5344997  32.9689988  40.6664164  23.3202588  32.5982235
  53.0900012  31.2064997  21.9749988  52.8120012  30.4784997  22.5309988
  54.0170012  31.3254997  22.1799988  53.1773124  31.1228802  22.0788845
  40.4530012  35.1944997  30.9859988  40.6700012  34.2624997  30.9549988
  40.6990012  35.4684997  31.8689988  40.5159549  35.1040636  31.1011763
  46.3150012  33.6454997  18.1949988  46.5540012  32.8974997  17.6479988
  46.0460012  33.2574997  19.0279988  46.3113675  33.4906638  18.2326865
  45.2520012  33.2154997  20.6519988  45.3980012  32.6954997  21.4419988
  45.2490012  34.1224997  20.9579988  45.2715989  33.2668853  20.8016088
  41.7050012  30.4684997  21.1619988  41.0190012  30.8204997  21.7289988
  42.2270012  31.2314997  20.9149988  41.6816852  30.6198578  21.2062118
  49.5360012  23.1304997  31.4409988  50.2350012  23.2044997  32.0909988
  49.1550012  22.2664997  31.5949988  49.5801767  23.0237624  31.5508322
  50.3210012  22.7824997  22.5379988  50.5410012  23.2544997  21.7349988
  50.8790012  23.1774997  23.2079988  50.4264968  22.9004285  22.5187331
  47.9890012  34.9134997  21.4009988  47.1730012  35.4104997  21.4529988
  48.5190012  35.3884997  20.7609988  47.9489161  35.0457722  21.3215956
  48.0560012  25.4964997  32.5579988  48.1750012  26.0704997  33.3149988
  48.7120012  24.8084997  32.6719988  48.1609757  25.4821079  32.6770825
  48.4040012  21.5914997  24.3109988  48.0580012  22.2094997  24.9559988
  49.0630012  22.0924997  23.8299988  48.4457826  21.7435802  24.3340971
  45.3280012  35.9574997  21.3829988  45.4880012  36.7564997  20.8819988
  45.1300012  36.2634997  22.2679988  45.3231649  36.1084469  21.4339815
  44.0620012  22.6544997  20.9979988  43.9790012  23.5434997  21.3449988
  44.9520012  22.3894997  21.2299988  44.1709469  22.7401430  21.0767626
  54.2610012  23.4034997  33.3929988  53.3440012  23.6664997  33.3049988
  54.5960012  23.4004997  32.4959988  54.1809900  23.4390224  33.2597919
  52.8630012  27.1544997  27.4879988  52.0650012  26.7394997  27.1599988
  53.3080012  26.4634997  27.9789988  52.8139885  27.0043543  27.5094889
  42.3210012  33.0824997  20.0589988  42.9130012  33.7814997  20.3349988
  42.7800012  32.6494997  19.3389988  42.4641142  33.1197049  19.9994830
  40.6370012  25.7464997  19.1749988  40.5920012  26.6854997  19.3529988
  39.7490012  25.5104997  18.9049988  40.5108574  25.8431892  19.1628912
  53.9490012  36.4104997  29.1109988  53.7940012  37.0884997  28.4539988
  54.8820012  36.4824997  29.3139988  54.0538500  36.5130170  29.0485119
  41.4450012  20.5284997  27.8479988  41.2160012  20.5874997  26.9199988
  41.0020012  19.7364997  28.1539988  41.3538530  20.4295753  27.7624786
  40.3750012  34.4684997  24.0079988  39.5430012  34.9414997  24.0359988
  40.9210012  34.9784997  23.4099988  40.3349739  34.6021871  23.9309716
  39.6630012  37.0814997  35.3379988  40.2040012  36.8644997  36.0979988
  39.1820012  36.2754997  35.1489988  39.6719345  36.9429514  35.4163076
  44.2610012  36.0004997  36.9589988  45.0280012  35.5414997  37.2999988
  44.2390012  35.7744997  36.0289988  44.3631434  35.9070409  36.8800043
  48.3530012  35.5084997  18.3339988  47.7090012  34.8774997  18.6549988
  49.1150012  34.9774997  18.1019988  48.3678077  35.3502920  18.3466011
  50.8380012  34.3804997  35.6879988  50.4870012  33.5244997  35.9309988
  51.5640012  34.5234997  36.2949988  50.8880769  34.2825636  35.8033619
  52.9570012  35.3254997  18.5679988  53.2400012  34.5314997  19.0199988
  53.6970012  35.5584997  18.0069988  53.0957486  35.2482803  18.5540698
  39.5700012  30.8914997  36.2929988  39.7140012  29.9894997  36.0059988
  38.7980012  31.1774997  35.8049988  39.4853322  30.8068261  36.1877881
  43.9120012  31.2354997  18.4249988  43.9760012  30.4414997  18.9559988
  44.5650012  31.1164997  17.7349988  44.0090241  31.1107148  18.4044317
  46.2260012  30.8614997  35.7249988  45.8970012  31.1324997  34.8679988
  46.3780012  29.9204997  35.6379988  46.2014809  30.7713862  35.5958244
  49.2640012  32.2824997  18.1609988  48.9950012  32.4624997  19.0619988
  49.0580012  31.3564997  18.0299988  49.1993825  32.1820152  18.2665214
  51.9600012  30.7774997  33.1089988  52.7060012  31.3654997  32.9889988
  51.2030012  31.3594997  33.1719988  51.9597554  30.9367011  33.1010907
  40.4030012  28.0914997  35.7129988  40.8110012  27.2344997  35.5919988
  40.1430012  28.1064997  36.6339988  40.4237568  27.9760807  35.8209588
  45.0610012  29.2074997  20.7309988  44.6010012  28.7234997  21.4169988
  45.3160012  28.5394997  20.0949988  45.0324902  29.0508731  20.7389334
  44.3500012  27.1004997  33.0869988  43.7320012  27.7754997  33.3669988
  44.6940012  27.4214997  32.2539988  44.3119615  27.2362721  33.0126581
  46.1320012  27.4504997  18.9929988  45.9520012  27.2964997  18.0659988
  47.0820012  27.5584997  19.0379988  46.2357776  27.4440175  18.8721843
  49.3700012  29.5724997  36.3639988  50.3230012  29.6554997  36.3369988
  49.2090012  28.8604997  36.9839988  49.4786426  29.4876746  36.4440579
  55.5220012  29.8054997  18.4389988  55.2480012  29.3804997  17.6259988
  55.5610012  30.7364997  18.2219988  55.4897699  29.8732484  18.2983610
  44.6890012  24.4554997  34.1689988  44.8390012  23.7264997  33.5669988
  44.6920012  25.2324997  33.6099988  44.7099302  24.4607851  34.0110692
  45.1020012  22.8254997  31.6619988  45.6380012  23.2764997  31.0099988
  44.2500012  22.7174997  31.2389988  45.0602178  22.8726390  31.5155756
  46.6840012  28.2644997  31.9009988  47.4340012  28.1084997  31.3279988
  46.3450012  29.1164997  31.6259988  46.7408921  28.3582968  31.7853561
  51.0990012  26.0794997  36.9299988  51.2920012  25.1484997  36.8179988
  51.9570012  26.5044997  36.9199988  51.2413020  26.0096389  36.9133361
  52.4160012  28.8684997  35.0069988  52.1350012  29.5774997  34.4299988
  53.3590012  28.7954997  34.8559988  52.5049027  28.9557646  34.9075551
  43.1680012  25.6534997  36.0809988  42.4010012  25.1214997  35.8709988
  43.8470012  25.3434997  35.4809988  43.1547022  25.5387506  35.9711648
  45.9080012  20.2814997  32.0929988  45.8090012  21.2284997  31.9879988
  45.1650012  19.9094997  31.6179988  45.7940564  20.3605902  32.0144560
  47.1720012  24.6034997  35.6569988  46.9360012  24.3834997  36.5589988
  46.3880012  24.3964997  35.1469988  47.0338628  24.5454760  35.7113932
  49.8870012  23.7304997  34.7329988  48.9400012  23.7624997  34.8649988
  50.2000012  23.1054997  35.3859988  49.7995475  23.6503207  34.8394455
  51.5210012  22.3644997  36.7379988  51.4250012  21.4124997  36.7319988
  51.2000012  22.6334997  37.5979988  51.4644070  22.2704035  36.8535441
  41.3480012  23.5744997  35.7849988  41.5600012  22.8674997  35.1749988
  41.2370012  23.1364997  36.6289988  41.3619721  23.4187084  35.8156843
  46.1290012  19.5754997  34.7649988  46.8410012  18.9354997  34.7509988
  46.0280012  19.8424997  33.8509988  46.2127939  19.5239938  34.6395650
  46.4830012  21.2584997  36.8179988  46.3510012  20.7824997  35.9979988
  45.8840012  22.0024997  36.7629988  46.3839071  21.2939618  36.6982886
  46.0290012  38.1414997  19.9949988  46.9620012  38.2994997  20.1379988
  45.7650012  38.8164997  19.3699988  46.1209510  38.2543611  19.9300741
  39.5980012  32.7774997  19.4769988  40.5120012  32.8564997  19.7509988
  39.6050012  32.0904997  18.8109988  39.7241131  32.6953961  19.4244393
  38.2470012  38.1704997  24.5549988  37.6000012  37.7084997  24.0219988
  38.6010012  37.4984997  25.1369988  38.2063849  38.0164723  24.5607959
  39.1170012  36.2514997  26.3589988  38.7820012  35.3714997  26.5309988
  39.3390012  36.5964997  27.2239988  39.1011783  36.1777500  26.4994208
  56.6650012  37.0604997  29.3399988  56.6440012  37.2454997  30.2789988
  57.3560012  37.6294997  28.9989988  56.7554618  37.1626606  29.4223864
  56.2290012  36.6284997  32.2619988  55.7410012  35.8924997  31.8909988
  56.7780012  36.2344997  32.9399988  56.2364872  36.4746249  32.3029160
  54.6790012  32.4174997  36.8999988  53.8130012  32.3124997  37.2939988
  55.0560012  33.1764997  37.3459988  54.6113308  32.5056900  37.0142393
  55.9800012  30.6744997  22.4139988  56.8300012  31.0954997  22.5409988
  55.9860012  29.9344997  23.0209988  56.0971372  30.6320803  22.5134344
  56.3750012  28.7274997  24.2379988  55.6480012  28.2484997  24.6349988
  56.9560012  28.9334997  24.9699988  56.3539375  28.6897090  24.3914129
  56.1340012  31.5124997  29.1849988  56.9670012  31.1344997  28.9049988
  56.2460012  32.4554997  29.0659988  56.2632647  31.5882218  29.1305487
  54.6200012  34.3904997  31.4919988  53.9730012  34.7154997  32.1179988
  54.1030012  33.9504997  30.8179988  54.4614029  34.3755004  31.4865827
  56.6430012  28.6284997  20.6289988  56.1210012  28.9854997  19.9099988
  56.6100012  29.3034997  21.3069988  56.5671634  28.7685413  20.6223145
  54.9920012  25.8684997  19.1799988  55.0880012  26.5354997  18.4989988
  54.8520012  25.0524997  18.6979988  54.9862135  25.8494500  19.0218491
  54.1610012  27.2484997  24.8009988  54.0110012  26.3034997  24.7799988
  53.8080012  27.5294997  25.6439988  54.0926625  27.1570441  24.9122346
  39.1970012  29.3264997  28.8109988  39.3810012  29.2444997  27.8749988
  40.0460012  29.2024997  29.2349988  39.3370139  29.2985003  28.7401455
  55.0180012  29.2184997  34.4389988  55.6010012  28.4844997  34.6309988
  55.5820012  29.9904997  34.4859988  55.1739769  29.2224227  34.4716159
  56.5140012  27.1214997  35.1239988  55.6510012  26.7424997  34.9579988
  57.1190012  26.3824997  35.0499988  56.4775979  26.9698023  35.0912817
  54.2390012  23.2764997  18.2969988  54.8500012  22.9054997  18.9339988
  53.4030012  22.8554997  18.4929988  54.2095032  23.1687554  18.4107035
  53.8720012  24.8314997  23.2629988  54.1520012  23.9244997  23.3869988
  54.6310012  25.2654997  22.8739988  54.0129277  24.7660942  23.2273682
  54.4840012  25.4124997  28.6989988  55.4170012  25.6244997  28.6649988
  54.2490012  25.5144997  29.6209988  54.5798036  25.4552769  28.8189976
  54.5130012  26.1494997  31.4749988  53.6700012  26.4174997  31.8409988
  54.9550012  26.9714997  31.2639988  54.4574158  26.2973291  31.4965491
  38.7940012  24.5974997  34.9519988  39.7140012  24.4754997  35.1879988
  38.3450012  23.8474997  35.3409988  38.8591580  24.4793727  35.0369006
  56.7960012  20.1294997  36.8279988  57.1460012  19.4754997  36.2229988
  56.9430012  20.9664997  36.3889988  56.8638419  20.1531591  36.6857118
  54.4850012  22.0944997  23.3109988  54.6680012  21.6454997  24.1369988
  53.8860012  21.5094997  22.8479988  54.4290202  21.9539975  23.3613275
  40.0150012  22.9094997  27.8429988  40.4610012  22.1174997  28.1449988
  40.4820012  23.6254997  28.2739988  40.1390172  22.8980624  27.9424820
  38.3190012  25.9084997  28.9119988  38.8110012  25.6874997  28.1209988
  38.6820012  26.7494997  29.1929988  38.4353126  25.9918357  28.8417531
  56.3160012  22.2384997  35.1779988  55.3980012  22.5094997  35.1419988
  56.4390012  21.7034997  34.3929988  56.2071066  22.2032892  35.0670487
  56.3520012  22.1614997  19.8389988  56.7640012  21.4404997  19.3639988
  57.0340012  22.8314997  19.8979988  56.5005885  22.1532368  19.7818915
  38.6330012  22.1664997  22.9659988  37.7080012  22.3754997  22.8369988
  39.0870012  22.6504997  22.2769988  38.5677368  22.2605993  22.8551226
  53.4040012  37.1504997  24.9119988  54.0560012  36.8034997  24.3039988
  53.9140012  37.6394997  25.5579988  53.5622637  37.1690597  24.9160236
  38.5970012  20.9044997  31.3109988  37.9320012  20.6584997  31.9539988
  38.1540012  21.5264997  30.7329988  38.4460956  20.9548632  31.3209352
  40.7890012  34.0794997  35.4549988  39.9680012  34.2544997  34.9949988
  40.5360012  34.0064997  36.3759988  40.6426164  34.0935622  35.5164923
  43.7430012  35.0544997  31.7139988  43.3180012  35.8634997  31.4309988
  44.6470012  35.1394997  31.4119988  43.8070271  35.1768469  31.6343776
  48.0540012  36.4534997  34.6729988  48.2390012  36.1194997  35.5509988
  48.9000012  36.7624997  34.3509988  48.1937539  36.4496047  34.7495605
  50.3990012  37.7394997  33.9169988  51.0760012  37.1064997  33.6769988
  50.7210012  38.1404997  34.7239988  50.5351637  37.7071154  33.9932793
  55.3160012  20.3284997  32.9969988  54.5040012  20.6534997  32.6089988
  55.5490012  19.5684997  32.4639988  55.2363423  20.2702436  32.8718253
  41.1450012  38.3104997  31.7609988  40.4240012  38.7504997  31.3099988
  40.7790012  38.0594997  32.6099988  40.9969804  38.3367698  31.8139840
  43.6120012  37.9104997  30.7909988  42.7470012  37.9824997  31.1949988
  43.5570012  38.4574997  30.0069988  43.4862085  37.9942685  30.7403362
  48.3220012  37.7984997  29.9659988  47.8660012  38.3274997  29.3119988
  48.4850012  38.4014997  30.6919988  48.2815585  37.9524468  29.9745062
  50.6500012  36.6764997  30.9109988  49.7450012  36.8414997  30.6459988
  51.0790012  37.5294997  30.8459988  50.5840799  36.8144483  30.8659182
  53.2540012  38.2464997  31.2059988  53.0720012  39.1624997  30.9959988
  53.4310012  37.8364997  30.3599988  53.2530210  38.3164822  31.0627885
  40.5590012  36.9334997  28.6709988  40.5410012  36.5084997  29.5289988
  41.3640012  36.6154997  28.2629988  40.6653875  36.8323812  28.7331655
  42.7010012  35.6434997  27.3259988  42.4820012  34.7274997  27.4959988
  43.5250012  35.7834997  27.7919988  42.7824420  35.5370520  27.4122774
  45.2380012  36.1134997  28.1749988  45.4510012  35.2254997  27.8879988
  45.3020012  36.0794997  29.1289988  45.2758232  35.9873102  28.2647397
  48.7460012  21.7774997  27.3189988  48.0720012  21.1484997  27.5749988
  49.3100012  21.2934997  26.7159988  48.7299230  21.6258744  27.2725340
  53.8890012  19.8854997  27.4319988  54.4930012  20.4324997  26.9299988
  53.0190012  20.2044997  27.1919988  53.8541241  20.0035806  27.3307654
  55.6160012  21.0234997  25.7649988  56.2280012  20.5094997  25.2389988
  55.9980012  21.9014997  25.7889988  55.7514540  21.0717140  25.6961830
  41.0730012  20.4114997  25.1409988  40.2960012  20.1774997  24.6339988
  41.6030012  19.6144997  25.1499988  41.0382330  20.2716988  25.0727742
  39.9090012  20.2094997  20.9449988  40.3480012  20.8204997  20.3529988
  39.2760012  20.7474997  21.4189988  39.8834514  20.3659257  20.9280930
  45.6520012  20.3384997  24.9549988  46.5270012  20.7264997  24.9249988
  45.5160012  20.1234997  25.8769988  45.7533695  20.3625184  25.0756440
  51.2090012  20.3684997  26.6039988  51.2850012  20.4634997  25.6539988
  50.9340012  19.4604997  26.7329988  51.1822321  20.2587867  26.4915079
  52.5620012  20.3944997  22.2959988  51.8600012  21.0094997  22.0869988
  52.1180012  19.5564997  22.4269988  52.4056330  20.3655783  22.2850328
  39.8100012  36.1574997  21.8429988  39.1250012  36.1194997  21.1749988
  39.8140012  37.0704997  22.1309988  39.7168193  36.2757016  21.7905284
  41.7700012  22.1254997  19.3869988  42.2620012  21.4954997  18.8599988
  42.3940012  22.4214997  20.0509988  41.9215446  22.0793199  19.4045980
  46.7960012  22.4184997  21.8439988  46.9740012  21.7724997  22.5269988
  46.7430012  23.2524997  22.3119988  46.8131829  22.4427985  22.0005940
  48.6750012  37.3674997  20.2399988  49.5410012  37.7334997  20.0619988
  48.4280012  36.9274997  19.4259988  48.7602392  37.3581756  20.1056289
  55.3840012  36.9304997  22.9189988  55.1890012  36.1824997  22.3539988
  55.3450012  37.6884997  22.3359988  55.3520380  36.9306099  22.7628384
  41.0310012  20.9254997  34.6589988  40.6650012  20.1604997  35.1019988
  41.9440012  20.9544997  34.9459988  41.1042790  20.8247224  34.7584070
  43.0040012  20.2764997  36.1949988  43.9020012  20.0024997  36.0099988
  42.6170012  19.5334997  36.6589988  43.0746612  20.1385914  36.2323643
  41.6280012  37.0774997  18.8679988  41.3610012  37.3644997  19.7409988
  42.4000012  36.5314997  19.0199988  41.6957488  37.0430294  19.0081050
  51.4250012  19.6084997  36.3769988  51.5020012  19.1824997  37.2309988
  52.3190012  19.6224997  36.0339988  51.5563428  19.5520879  36.4475310
  54.6010012  35.6814997  35.0689988  53.8190012  35.4954997  34.5499988
  54.5290012  36.6104997  35.2869988  54.4841777  35.7816492  35.0274048
  69.0070012  29.5674997  25.0999988  69.0960012  30.5114997  24.9679988
  68.3690012  29.2924997  24.4419988  68.9329081  29.6594830  24.9929614
  67.9400012  28.8224997  28.5189988  67.9020012  28.1764997  29.2239988
  67.6180012  28.3564997  27.7479988  67.8912333  28.6709408  28.5112978
  60.3090012  28.4374997  30.1119988  60.3500012  27.8114997  30.8349988
  61.0120012  29.0614997  30.2939988  60.4096363  28.4361196  30.2356044
  71.6460012  31.7614997  26.8199988  71.2060012  31.0414997  27.2709988
  71.6330012  32.4824997  27.4499988  71.5840226  31.7603731  26.9668494
  61.2320012  32.8874997  28.6469988  60.8630012  32.0854997  28.2769988
  62.1730012  32.7184997  28.6929988  61.3087289  32.7550153  28.6026316
  57.8420012  26.5474997  24.0399988  57.3950012  27.3934997  24.0209988
  57.2810012  25.9674997  23.5239988  57.7049900  26.5849916  23.9676801
  58.5530012  28.7094997  26.1659988  58.7660012  27.9394997  26.6929988
  59.2910012  28.7984997  25.5619988  58.6818496  28.6161394  26.1565300
  68.7580012  36.8664997  27.0329988  69.3780012  36.1894997  26.7589988
  68.5500012  36.6484997  27.9409988  68.8146904  36.7443870  27.1183365
  66.3300012  31.2554997  28.9249988  66.6340012  30.5694997  28.3299988
  67.0510012  31.3734997  29.5429988  66.4690671  31.1776305  28.9271816
  74.9930012  22.8564997  29.7859988  75.0420012  23.4664997  30.5219988
  75.4180012  23.3174997  29.0629988  75.0571824  23.0023741  29.7890205
  69.4710012  25.6494997  29.2529988  69.6130012  24.7034997  29.2729988
  69.3640012  25.8564997  28.3239988  69.4759864  25.5479534  29.1302339
  62.6250012  23.7504997  26.5249988  62.6690012  24.6104997  26.1069988
  62.1680012  23.1984997  25.8909988  62.5692185  23.7935799  26.3820299
  70.3480012  23.8814997  24.9259988  70.9940012  23.5524997  25.5509988
  70.8580012  24.3994997  24.3029988  70.5054264  23.9064611  24.9273862
  59.2460012  26.1474997  27.2869988  59.8990012  25.5974997  27.7189988
  59.2700012  25.8734997  26.3699988  59.3386683  26.0351466  27.2222123
  64.4020012  27.6974997  26.5019988  65.0180012  27.1714997  27.0119988
  63.8160012  27.0574997  26.0989988  64.4070810  27.5389208  26.5173173
  75.3840012  24.3344997  32.0219988  74.6960012  24.9924997  31.9259988
  75.4000012  24.1374997  32.9579988  75.2918525  24.3980462  32.1354808
  61.4360012  22.6684997  30.5989988  61.2170012  23.1984997  29.8329988
  60.7680012  22.8954997  31.2459988  61.3157600  22.7716906  30.5816379
  68.8050012  32.1684997  24.1429988  68.5090012  31.8464997  23.2919988
  68.4800012  33.0684997  24.1839988  68.7206371  32.2460215  24.0321801
  64.0050012  30.3444997  30.8859988  63.2650012  30.9424997  30.9899988
  64.7190012  30.8984997  30.5709988  64.0002237  30.5012831  30.8576465
  72.1120012  23.1724997  26.9059988  71.8960012  22.4064997  27.4389988
  72.7670012  23.6444997  27.4189988  72.1710632  23.1315889  27.0482861
  61.0290012  24.5604997  28.5509988  61.6430012  25.1934997  28.9249988
  61.5410012  24.0884997  27.8949988  61.1822296  24.5832370  28.5134252
  62.4120012  32.3084997  31.6739988  62.4070012  33.1884997  31.2959988
  61.5590012  32.2254997  32.0989988  62.2959464  32.4176117  31.6797907
  58.5330012  31.9794997  22.4559988  58.2610012  32.2084997  21.5669988
  58.5790012  32.8174997  22.9159988  58.5020094  32.1241213  22.3965697
  72.1580012  33.6014997  29.1679988  71.2170012  33.6594997  29.3299988
  72.4350012  34.5074997  29.0309988  72.0664679  33.7319443  29.1716815
  72.4590012  21.8874997  30.5859988  71.7230012  22.4984997  30.5479988
  73.1420012  22.3024997  30.0589988  72.4506541  22.0271374  30.5095832
  65.4620012  19.9744997  28.0519988  65.3450012  19.0254997  27.9969988
  64.6070012  20.3064997  28.3249988  65.3303733  19.8895409  28.0813897
  70.4100012  35.3824997  25.7939988  70.8360012  34.6754997  25.3089988
  70.7270012  36.1834997  25.3769988  70.5111019  35.3940994  25.6713130
  71.5700012  33.2834997  24.3019988  71.3120012  32.5934997  23.6909988
  71.6410012  32.8404997  25.1479988  71.5442856  33.1292124  24.3326885
  73.2560012  31.8494997  32.7799988  73.3960012  31.2584997  32.0399988
  73.4230012  32.7224997  32.4229988  73.2976778  31.8866426  32.6306965
  67.7290012  28.8114997  22.5519988  67.0170012  29.3464997  22.1999988
  68.4200012  28.8674997  21.8919988  67.7250132  28.8922543  22.4146289
  67.7820012  27.2694997  19.5909988  68.4830012  27.2914997  20.2419988
  68.0850012  26.6414997  18.9349988  67.9187830  27.1876566  19.5913711
  75.0980012  28.1894997  30.8459988  74.4450012  28.8844997  30.9349988
  75.5630012  28.3994997  30.0359988  75.0715390  28.3129425  30.7486883
  71.1340012  29.0214997  23.5039988  70.4020012  29.2494997  24.0769988
  71.5820012  28.3074997  23.9589988  71.0943095  28.9562571  23.6439119
  71.0320012  27.1954997  32.5709988  71.1120012  27.9584997  33.1429988
  70.4300012  27.4744997  31.8809988  70.9615756  27.3377134  32.5560589
  62.7800012  29.6514997  25.3859988  62.4490012  29.2814997  24.5679988
  63.3680012  28.9814997  25.7329988  62.8141873  29.5101156  25.3208102
  64.1460012  33.0794997  28.0679988  64.0520012  32.5014997  27.3109988
  64.8760012  32.7084997  28.5639988  64.2317981  32.9502390  28.0314165
  63.1460012  28.4204997  29.0199988  63.7120012  28.5414997  28.2569988
  63.4650012  29.0574997  29.6589988  63.2665786  28.5231884  29.0020040
  69.4550012  33.9234997  29.7539988  69.2150012  34.5854997  30.4019988
  69.2570012  33.0894997  30.1789988  69.3953808  33.9013134  29.9001524
  64.0260012  32.8194997  33.7369988  63.7150012  33.6014997  34.1919988
  63.3760012  32.6664997  33.0509988  63.8955558  32.9059105  33.7065871
  70.0050012  28.1834997  21.1889988  70.5850012  28.3334997  21.9359988
  70.4190012  28.6544997  20.4659988  70.1402830  28.2676841  21.1934134
  60.9460012  29.0174997  32.9659988  61.0170012  29.6684997  33.6639988
  60.0560012  29.1204997  32.6309988  60.8353117  29.1205936  33.0162700
  67.7320012  34.9204997  24.6239988  68.2060012  35.2154997  25.4019988
  67.1690012  35.6584997  24.3909988  67.7207653  35.0606932  24.6990136
  62.2660012  34.8914997  34.4999988  62.2730012  34.7554997  33.5529988
  61.3500012  34.7734997  34.7519988  62.1431714  34.8569430  34.4044666
  73.7040012  19.9334997  21.0019988  72.8040012  20.0724997  21.2969988
  73.9560012  20.7644997  20.5999988  73.6148702  20.0649074  20.9880205
  61.7700012  28.7214997  22.9759988  61.4780012  29.4894997  22.4849988
  61.0960012  28.0614997  22.8129988  61.6389081  28.7374406  22.8867340
  74.8930012  34.2994997  19.3779988  74.9670012  35.2384997  19.5489988
  75.7990012  33.9944997  19.3219988  75.0255100  34.3866722  19.3938119
  57.8630012  31.0844997  31.7909988  57.3620012  31.0564997  30.9759988
  57.8680012  30.1784997  32.0999988  57.7951526  30.9582278  31.7212872
  57.6130012  33.8644997  28.6749988  58.5590012  33.7204997  28.6559988
  57.5010012  34.6484997  29.2119988  57.7272727  33.9508046  28.7450072
  75.8110012  34.5304997  34.3569988  75.7620012  33.5754997  34.3199988
  74.9840012  34.7984997  34.7579988  75.6924940  34.4358998  34.4061375
  66.7900012  34.1044997  33.2329988  66.8770012  34.9304997  33.7079988
  65.9260012  33.7744997  33.4819988  66.6851964  34.1729878  33.3316549
  67.2040012  37.8764997  23.0389988  67.1290012  37.7554997  22.0929988
  67.2370012  38.8264997  23.1579988  67.1981848  37.9882500  22.9254834
  60.8570012  36.6654997  24.8199988  61.0100012  36.3174997  25.6989988
  60.0070012  36.3094997  24.5649988  60.7628962  36.5696650  24.9058340
  70.3060012  37.0304997  20.0409988  70.6810012  36.2864997  19.5709988
  70.3100012  36.7604997  20.9599988  70.3578915  36.8921486  20.1007824
  69.9750012  36.9564997  22.7909988  69.0390012  37.0564997  22.9689988
  70.2550012  36.2474997  23.3689988  69.8848255  36.8742711  22.8935391
  72.9630012  26.0234997  34.8369988  72.5560012  26.5044997  34.1159988
  73.0040012  25.1184997  34.5289988  72.9128437  25.9669374  34.6966683
  60.1120012  32.4074997  32.8339988  60.3280012  32.0464997  33.6929988
  59.2570012  32.0334997  32.6239988  60.0259292  32.3074111  32.9233386
  62.7310012  20.8774997  28.8289988  61.8690012  20.7904997  28.4219988
  62.7080012  21.7334997  29.2569988  62.6100330  20.9812765  28.8311863
  67.3940012  20.5994997  32.2039988  67.8140012  20.1844997  32.9569988
  66.4610012  20.4214997  32.3209988  67.3253644  20.5185900  32.3229539
  70.7200012  24.3554997  33.0569988  70.2060012  24.2294997  33.8549988
  70.5650012  25.2674997  32.8129988  70.6286852  24.4616132  33.1332158
  71.4830012  29.2164997  18.8189988  71.5250012  28.9934997  17.8889988
  72.3320012  29.6154997  19.0089988  71.6035396  29.2399155  18.7173627
  67.0550012  23.0924997  19.4889988  66.8020012  23.1114997  20.4119988
  66.7990012  22.2204997  19.1879988  66.9857790  22.9772437  19.5746263
  62.8220012  25.8434997  29.9239988  62.1800012  25.8024997  30.6329988
  62.8590012  26.7694997  29.6869988  62.7391324  25.9631559  29.9889824
  62.8190012  26.0644997  24.8359988  61.9260012  25.7234997  24.7779988
  63.2690012  25.6874997  24.0809988  62.7577305  25.9668484  24.7259177
  68.3540012  26.4804997  23.6529988  67.9450012  27.2954997  23.3619988
  69.0750012  26.3404997  23.0389988  68.3954537  26.5732018  23.5301342
  67.4560012  26.6554997  35.1409988  66.8940012  25.9514997  35.4619988
  68.2830012  26.5354997  35.6089988  67.4907095  26.5427883  35.2482330
  69.3590012  25.9264997  26.4669988  69.1640012  26.5314997  25.7519988
  69.5400012  25.0924997  26.0329988  69.3567614  25.8966300  26.3104405
  60.5720012  26.1634997  31.7909988  60.5340012  26.5634997  32.6599988
  60.0810012  25.3464997  31.8819988  60.5004684  26.1078069  31.9221059
  63.9380012  23.5374997  18.5899988  63.5070012  23.0924997  19.3199988
  63.2200012  23.9094997  18.0779988  63.7819438  23.5268940  18.6206799
  57.1800012  23.2794997  25.6419988  57.8110012  23.2504997  26.3609988
  57.6290012  22.8544997  24.9119988  57.3270774  23.2180492  25.6416553
  58.4540012  24.0254997  21.0659988  58.9280012  24.6164997  20.4809988
  57.7370012  24.5564997  21.4129988  58.4219341  24.1780867  21.0328836
  68.6230012  27.5644997  31.1389988  68.9460012  26.9334997  30.4959988
  68.1830012  27.0294997  31.7989988  68.6076895  27.4058440  31.1402850
  65.4000012  23.4914997  25.9229988  64.4890012  23.5484997  26.2109988
  65.9060012  23.4314997  26.7329988  65.3435413  23.4911985  26.0720622
  60.2290012  25.1204997  24.7489988  59.3390012  25.2204997  24.4089988
  60.5250012  24.2784997  24.4029988  60.1472823  25.0203545  24.6557213
  63.8820012  25.1204997  22.4059988  64.8130012  25.2494997  22.5839988
  63.6670012  25.7904997  21.7559988  63.9804247  25.2286565  22.3425747
  69.8050012  22.7264997  29.1869988  69.1290012  22.8574997  29.8509988
  69.3200012  22.5714997  28.3769988  69.6467145  22.7234905  29.1684517
  62.5560012  26.3154997  19.9729988  62.0130012  25.9354997  19.2809988
  63.3890012  26.5094997  19.5439988  62.5944399  26.2898124  19.8204526
  73.0930012  38.3984997  35.4639988  73.2930012  38.8224997  34.6289988
  73.7480012  38.7414997  36.0709988  73.2090051  38.5029648  35.4317836
  60.6910012  30.8724997  35.0719988  61.4230012  31.1264997  35.6329988
  59.9110012  31.0764997  35.5869988  60.6858232  30.9349177  35.2185760
  66.7200012  26.2794997  27.8099988  67.2850012  25.7324997  27.2629988
  66.5730012  25.7574997  28.5979988  66.7772918  26.1342024  27.8418454
  61.7220012  22.4154997  24.2279988  61.4050012  21.5134997  24.1929988
  62.5040012  22.4174997  23.6749988  61.7842284  22.2921628  24.1484783
  65.3470012  24.6674997  30.2239988  64.5110012  25.1214997  30.3339988
  65.8710012  24.9434997  30.9759988  65.3034414  24.7669376  30.3407136
  65.8910012  30.8804997  21.9079988  65.1460012  30.3734997  21.5859988
  65.7570012  30.9294997  22.8549988  65.7708776  30.8176940  21.9918647
  73.0410012  30.0134997  30.6949988  73.6830012  30.4704997  30.1509988
  72.2110012  30.1264997  30.2319988  73.0165963  30.0912704  30.5580177
  69.7890012  23.6944997  20.1079988  68.8500012  23.8064997  19.9559988
  70.0860012  24.5514997  20.4139988  69.7007666  23.8256443  20.1285768
  67.4100012  31.0644997  33.1449988  67.0650012  30.6834997  33.9519988
  67.2100012  31.9984997  33.2169988  67.3358061  31.1385228  33.2650961
  70.5070012  25.5614997  21.7679988  71.3990012  25.4244997  22.0869988
  70.5640012  26.3524997  21.2319988  70.6366285  25.6496660  21.7391691
  61.0160012  30.1754997  27.6779988  61.7610012  30.1734997  27.0769988
  61.0940012  29.3524997  28.1599988  61.1285518  30.0639315  27.6608929
  68.0170012  32.3394997  20.9339988  67.7210012  33.1654997  21.3149988
  67.3140012  31.7194997  21.1299988  67.8814914  32.3688199  21.0126443
  58.0240012  28.6364997  32.9929988  58.2470012  28.2184997  33.8249988
  57.4220012  28.0234997  32.5699988  57.9731759  28.4964668  33.0497022
  65.0400012  28.1534997  35.2059988  64.7440012  27.9874997  34.3109988
  65.9720012  27.9334997  35.1949988  65.1254166  28.1010640  35.0820536
  69.6610012  33.5264997  33.0959988  68.7600012  33.7094997  32.8279988
  69.6950012  33.7854997  34.0169988  69.5423041  33.5865512  33.1838197
  75.3920012  25.7714997  21.4629988  74.8380012  25.3754997  20.7909988
  75.4920012  26.6814997  21.1849988  75.3297059  25.8403586  21.3334401
  75.3550012  31.5714997  34.2999988  74.5040012  31.8094997  33.9329988
  75.9460012  31.5544997  33.5469988  75.3182487  31.6018258  34.1478893
  73.6870012  34.5574997  21.9279988  73.3140012  33.7314997  22.2369988
  73.9650012  34.3744997  21.0309988  73.6735630  34.4197303  21.8489626
  70.8480012  29.3654997  28.9489988  69.9190012  29.1334997  28.9219988
  71.2990012  28.5884997  28.6189988  70.7819216  29.2287238  28.9006917
  63.3910012  33.6934997  25.0819988  63.9180012  34.4664997  24.8819988
  62.5110012  33.9184997  24.7809988  63.3441773  33.8298005  25.0139010
  59.1460012  28.5554997  19.6689988  59.7620012  29.1824997  20.0489988
  58.2840012  28.8714997  19.9409988  59.1137698  28.6839430  19.7577183
  64.8180012  31.3564997  24.6589988  64.5770012  32.2814997  24.6999988
  64.0770012  30.8974997  25.0549988  64.6848409  31.4211421  24.7181377
  65.3330012  35.5054997  30.9739988  65.6950012  36.3604997  30.7399988
  65.8640012  35.2134997  31.7139988  65.4544473  35.5831060  31.0420855
  63.5010012  36.3784997  24.2039988  62.5510012  36.4834997  24.2549988
  63.8530012  37.1984997  24.5489988  63.4184203  36.5038314  24.2576650
  68.8770012  31.6044997  30.6739988  68.4510012  31.3774997  31.5009988
  69.4570012  30.8664997  30.4919988  68.8971868  31.4735299  30.7625830
  71.0800012  32.5334997  19.7479988  71.4330012  32.1534997  20.5529988
  70.1310012  32.4404997  19.8349988  71.0000441  32.4689596  19.8698559
  71.5350012  36.1564997  33.1439988  70.9340012  35.6014997  32.6479988
  71.8170012  36.8234997  32.5179988  71.4908519  36.1706841  32.9914952
  75.5830012  37.0134997  19.9489988  76.3270012  37.5994997  19.8089988
  74.8890012  37.5814997  20.2829988  75.5910292  37.1705582  19.9749961
  59.6580012  23.3894997  32.5509988  58.7650012  23.7284997  32.4829988
  59.5590012  22.5344997  32.9689988  59.5224164  23.3202588  32.5982235
  71.9460012  31.2064997  21.9749988  71.6680012  30.4784997  22.5309988
  72.8730012  31.3254997  22.1799988  72.0333124  31.1228802  22.0788845
  59.3090012  35.1944997  30.9859988  59.5260012  34.2624997  30.9549988
  59.5550012  35.4684997  31.8689988  59.3719549  35.1040636  31.1011763
  65.1710012  33.6454997  18.1949988  65.4100012  32.8974997  17.6479988
  64.9020012  33.2574997  19.0279988  65.1673675  33.4906638  18.2326865
  64.1080012  33.2154997  20.6519988  64.2540012  32.6954997  21.4419988
  64.1050012  34.1224997  20.9579988  64.1275989  33.2668853  20.8016088
  60.5610012  30.4684997  21.1619988  59.8750012  30.8204997  21.7289988
  61.0830012  31.2314997  20.9149988  60.5376852  30.6198578  21.2062118
  68.3920012  23.1304997  31.4409988  69.0910012  23.2044997  32.0909988
  68.0110012  22.2664997  31.5949988  68.4361767  23.0237624  31.5508322
  69.1770012  22.7824997  22.5379988  69.3970012  23.2544997  21.7349988
  69.7350012  23.1774997  23.2079988  69.2824968  22.9004285  22.5187331
  66.8450012  34.9134997  21.4009988  66.0290012  35.4104997  21.4529988
  67.3750012  35.3884997  20.7609988  66.8049161  35.0457722  21.3215956
  66.3770012  24.5104997  23.3729988  67.1890012  25.0154997  23.4189988
  66.1320012  24.3654997  24.2869988  66.4550520  24.5600375  23.5028517
  66.9120012  25.4964997  32.5579988  67.0310012  26.0704997  33.3149988
  67.5680012  24.8084997  32.6719988  67.0169757  25.4821079  32.6770825
  67.2600012  21.5914997  24.3109988  66.9140012  22.2094997  24.9559988
  67.9190012  22.0924997  23.8299988  67.3017826  21.7435802  24.3340971
  64.1840012  35.9574997  21.3829988  64.3440012  36.7564997  20.8819988
  63.9860012  36.2634997  22.2679988  64.1791649  36.1084469  21.4339815
  62.9180012  22.6544997  20.9979988  62.8350012  23.5434997  21.3449988
  63.8080012  22.3894997  21.2299988  63.0269469  22.7401430  21.0767626
  73.1170012  23.4034997  33.3929988  72.2000012  23.6664997  33.3049988
  73.4520012  23.4004997  32.4959988  73.0369900  23.4390224  33.2597919
  71.7190012  27.1544997  27.4879988  70.9210012  26.7394997  27.1599988
  72.1640012  26.4634997  27.9789988  71.6699885  27.0043543  27.5094889
  61.1770012  33.0824997  20.0589988  61.7690012  33.7814997  20.3349988
  61.6360012  32.6494997  19.3389988  61.3201142  33.1197049  19.9994830
  59.4930012  25.7464997  19.1749988  59.4480012  26.6854997  19.3529988
  58.6050012  25.5104997  18.9049988  59.3668574  25.8431892  19.1628912
  72.8050012  36.4104997  29.1109988  72.6500012  37.0884997  28.4539988
  73.7380012  36.4824997  29.3139988  72.9098500  36.5130170  29.0485119
  60.3010012  20.5284997  27.8479988  60.0720012  20.5874997  26.9199988
  59.8580012  19.7364997  28.1539988  60.2098530  20.4295753  27.7624786
  59.2310012  34.4684997  24.0079988  58.3990012  34.9414997  24.0359988
  59.7770012  34.9784997  23.4099988  59.1909739  34.6021871  23.9309716
  58.5190012  37.0814997  35.3379988  59.0600012  36.8644997  36.0979988
  58.0380012  36.2754997  35.1489988  58.5279345  36.9429514  35.4163076
  63.1170012  36.0004997  36.9589988  63.8840012  35.5414997  37.2999988
  63.0950012  35.7744997  36.0289988  63.2191434  35.9070409  36.8800043
  67.2090012  35.5084997  18.3339988  66.5650012  34.8774997  18.6549988
  67.9710012  34.9774997  18.1019988  67.2238077  35.3502920  18.3466011
  69.6940012  34.3804997  35.6879988  69.3430012  33.5244997  35.9309988
  70.4200012  34.5234997  36.2949988  69.7440769  34.2825636  35.8033619
  71.8130012  35.3254997  18.5679988  72.0960012  34.5314997  19.0199988
  72.5530012  35.5584997  18.0069988  71.9517486  35.2482803  18.5540698
  58.4260012  30.8914997  36.2929988  58.5700012  29.9894997  36.0059988
  57.6540012  31.1774997  35.8049988  58.3413323  30.8068261  36.1877881
  62.7680012  31.2354997  18.4249988  62.8320012  30.4414997  18.9559988
  63.4210012  31.1164997  17.7349988  62.8650241  31.1107148  18.4044317
  65.0820012  30.8614997  35.7249988  64.7530012  31.1324997  34.8679988
  65.2340012  29.9204997  35.6379988  65.0574809  30.7713862  35.5958244
  68.1200012  32.2824997  18.1609988  67.8510012  32.4624997  19.0619988
  67.9140012  31.3564997  18.0299988  68.0553825  32.1820152  18.2665214
  70.8160012  30.7774997  33.1089988  71.5620012  31.3654997  32.9889988
  70.0590012  31.3594997  33.1719988  70.8157554  30.9367011  33.1010907
  59.2590012  28.0914997  35.7129988  59.6670012  27.2344997  35.5919988
  58.9990012  28.1064997  36.6339988  59.2797568  27.9760807  35.8209588
  63.9170012  29.2074997  20.7309988  63.4570012  28.7234997  21.4169988
  64.1720012  28.5394997  20.0949988  63.8884902  29.0508731  20.7389334
  63.2060012  27.1004997  33.0869988  62.5880012  27.7754997  33.3669988
  63.5500012  27.4214997  32.2539988  63.1679615  27.2362721  33.0126581
  64.9880012  27.4504997  18.9929988  64.8080012  27.2964997  18.0659988
  65.9380012  27.5584997  19.0379988  65.0917776  27.4440175  18.8721843
  68.2260012  29.5724997  36.3639988  69.1790012  29.6554997  36.3369988
  68.0650012  28.8604997  36.9839988  68.3346426  29.4876746  36.4440579
  74.3780012  29.8054997  18.4389988  74.1040012  29.3804997  17.6259988
  74.4170012  30.7364997  18.2219988  74.3457699  29.8732484  18.2983610
  63.5450012  24.4554997  34.1689988  63.6950012  23.7264997  33.5669988
  63.5480012  25.2324997  33.6099988  63.5659302  24.4607851  34.0110692
  63.9580012  22.8254997  31.6619988  64.4940012  23.2764997  31.0099988
  63.1060012  22.7174997  31.2389988  63.9162178  22.8726390  31.5155756
  65.5400012  28.2644997  31.9009988  66.2900012  28.1084997  31.3279988
  65.2010012  29.1164997  31.6259988  65.5968921  28.3582968  31.7853561
  69.9550012  26.0794997  36.9299988  70.1480012  25.1484997  36.8179988
  70.8130012  26.5044997  36.9199988  70.0973020  26.0096389  36.9133361
  71.2720012  28.8684997  35.0069988  70.9910012  29.5774997  34.4299988
  72.2150012  28.7954997  34.8559988  71.3609027  28.9557646  34.9075551
  62.0240012  25.6534997  36.0809988  61.2570012  25.1214997  35.8709988
  62.7030012  25.3434997  35.4809988  62.0107022  25.5387506  35.9711648
  64.7640012  20.2814997  32.0929988  64.6650012  21.2284997  31.9879988
  64.0210012  19.9094997  31.6179988  64.6500564  20.3605902  32.0144560
  66.0280012  24.6034997  35.6569988  65.7920012  24.3834997  36.5589988
  65.2440012  24.3964997  35.1469988  65.8898628  24.5454760  35.7113932
  68.7430012  23.7304997  34.7329988  67.7960012  23.7624997  34.8649988
  69.0560012  23.1054997  35.3859988  68.6555475  23.6503207  34.8394455
  70.3770012  22.3644997  36.7379988  70.2810012  21.4124997  36.7319988
  70.0560012  22.6334997  37.5979988  70.3204070  22.2704035  36.8535441
  60.2040012  23.5744997  35.7849988  60.4160012  22.8674997  35.1749988
  60.0930012  23.1364997  36.6289988  60.2179721  23.4187084  35.8156843
  64.9850012  19.5754997  34.7649988  65.6970012  18.9354997  34.7509988
  64.8840012  19.8424997  33.8509988  65.0687939  19.5239938  34.6395650
  65.3390012  21.2584997  36.8179988  65.2070012  20.7824997  35.9979988
  64.7400012  22.0024997  36.7629988  65.2399071  21.2939618  36.6982886
  64.8850012  38.1414997  19.9949988  65.8180012  38.2994997  20.1379988
  64.6210012  38.8164997  19.3699988  64.9769510  38.2543611  19.9300741
  58.4540012  32.7774997  19.4769988  59.3680012  32.8564997  19.7509988
  58.4610012  32.0904997  18.8109988  58.5801131  32.6953961  19.4244393
  57.1030012  38.1704997  24.5549988  56.4560012  37.7084997  24.0219988
  57.4570012  37.4984997  25.1369988  57.0623849  38.0164723  24.5607959
  57.9730012  36.2514997  26.3589988  57.6380012  35.3714997  26.5309988
  58.1950012  36.5964997  27.2239988  57.9571783  36.1777500  26.4994208
  75.5210012  37.0604997  29.3399988  75.5000012  37.2454997  30.2789988
  76.2120012  37.6294997  28.9989988  75.6114618  37.1626606  29.4223864
  75.0850012  36.6284997  32.2619988  74.5970012  35.8924997  31.8909988
  75.6340012  36.2344997  32.9399988  75.0924872  36.4746249  32.3029160
  73.5350012  32.4174997  36.8999988  72.6690012  32.3124997  37.2939988
  73.9120012  33.1764997  37.3459988  73.4673308  32.5056900  37.0142393
  74.8360012  30.6744997  22.4139988  75.6860012  31.0954997  22.5409988
  74.8420012  29.9344997  23.0209988  74.9531372  30.6320803  22.5134344
  75.2310012  28.7274997  24.2379988  74.5040012  28.2484997  24.6349988
  75.8120012  28.9334997  24.9699988  75.2099375  28.6897090  24.3914129
  74.9900012  31.5124997  29.1849988  75.8230012  31.1344997  28.9049988
  75.1020012  32.4554997  29.0659988  75.1192647  31.5882218  29.1305487
  73.4760012  34.3904997  31.4919988  72.8290012  34.7154997  32.1179988
  72.9590012  33.9504997  30.8179988  73.3174029  34.3755004  31.4865827
  75.4990012  28.6284997  20.6289988  74.9770012  28.9854997  19.9099988
  75.4660012  29.3034997  21.3069988  75.4231634  28.7685413  20.6223145
  73.8480012  25.8684997  19.1799988  73.9440012  26.5354997  18.4989988
  73.7080012  25.0524997  18.6979988  73.8422135  25.8494500  19.0218491
  73.0170012  27.2484997  24.8009988  72.8670012  26.3034997  24.7799988
  72.6640012  27.5294997  25.6439988  72.9486625  27.1570441  24.9122346
  58.0530012  29.3264997  28.8109988  58.2370012  29.2444997  27.8749988
  58.9020012  29.2024997  29.2349988  58.1930139  29.2985003  28.7401455
  73.8740012  29.2184997  34.4389988  74.4570012  28.4844997  34.6309988
  74.4380012  29.9904997  34.4859988  74.0299769  29.2224227  34.4716159
  75.3700012  27.1214997  35.1239988  74.5070012  26.7424997  34.9579988
  75.9750012  26.3824997  35.0499988  75.3335979  26.9698023  35.0912817
  73.0950012  23.2764997  18.2969988  73.7060012  22.9054997  18.9339988
  72.2590012  22.8554997  18.4929988  73.0655032  23.1687554  18.4107035
  72.7280012  24.8314997  23.2629988  73.0080012  23.9244997  23.3869988
  73.4870012  25.2654997  22.8739988  72.8689277  24.7660942  23.2273682
  73.3400012  25.4124997  28.6989988  74.2730012  25.6244997  28.6649988
  73.1050012  25.5144997  29.6209988  73.4358036  25.4552769  28.8189976
  73.3690012  26.1494997  31.4749988  72.5260012  26.4174997  31.8409988
  73.8110012  26.9714997  31.2639988  73.3134158  26.2973291  31.4965491
  57.6500012  24.5974997  34.9519988  58.5700012  24.4754997  35.1879988
  57.2010012  23.8474997  35.3409988  57.7151580  24.4793727  35.0369006
  75.6520012  20.1294997  36.8279988  76.0020012  19.4754997  36.2229988
  75.7990012  20.9664997  36.3889988  75.7198419  20.1531591  36.6857118
  73.3410012  22.0944997  23.3109988  73.5240012  21.6454997  24.1369988
  72.7420012  21.5094997  22.8479988  73.2850202  21.9539975  23.3613275
  58.8710012  22.9094997  27.8429988  59.3170012  22.1174997  28.1449988
  59.3380012  23.6254997  28.2739988  58.9950172  22.8980624  27.9424820
  57.1750012  25.9084997  28.9119988  57.6670012  25.6874997  28.1209988
  57.5380012  26.7494997  29.1929988  57.2913126  25.9918357  28.8417531
  75.1720012  22.2384997  35.1779988  74.2540012  22.5094997  35.1419988
  75.2950012  21.7034997  34.3929988  75.0631066  22.2032892  35.0670487
  75.2080012  22.1614997  19.8389988  75.6200012  21.4404997  19.3639988
  75.8900012  22.8314997  19.8979988  75.3565885  22.1532368  19.7818915
  57.4890012  22.1664997  22.9659988  56.5640012  22.3754997  22.8369988
  57.9430012  22.6504997  22.2769988  57.4237368  22.2605993  22.8551226
  72.2600012  37.1504997  24.9119988  72.9120012  36.8034997  24.3039988
  72.7700012  37.6394997  25.5579988  72.4182637  37.1690597  24.9160236
  57.4530012  20.9044997  31.3109988  56.7880012  20.6584997  31.9539988
  57.0100012  21.5264997  30.7329988  57.3020956  20.9548632  31.3209352
  59.6450012  34.0794997  35.4549988  58.8240012  34.2544997  34.9949988
  59.3920012  34.0064997  36.3759988  59.4986164  34.0935622  35.5164923
  62.5990012  35.0544997  31.7139988  62.1740012  35.8634997  31.4309988
  63.5030012  35.1394997  31.4119988  62.6630271  35.1768469  31.6343776
  66.9100012  36.4534997  34.6729988  67.0950012  36.1194997  35.5509988
  67.7560012  36.7624997  34.3509988  67.0497539  36.4496047  34.7495605
  69.2550012  37.7394997  33.9169988  69.9320012  37.1064997  33.6769988
  69.5770012  38.1404997  34.7239988  69.3911637  37.7071154  33.9932793
  74.1720012  20.3284997  32.9969988  73.3600012  20.6534997  32.6089988
  74.4050012  19.5684997  32.4639988  74.0923423  20.2702436  32.8718253
  60.0010012  38.3104997  31.7609988  59.2800012  38.7504997  31.3099988
  59.6350012  38.0594997  32.6099988  59.8529804  38.3367698  31.8139840
  62.4680012  37.9104997  30.7909988  61.6030012  37.9824997  31.1949988
  62.4130012  38.4574997  30.0069988  62.3422085  37.9942685  30.7403362
  67.1780012  37.7984997  29.9659988  66.7220012  38.3274997  29.3119988
  67.3410012  38.4014997  30.6919988  67.1375585  37.9524468  29.9745062
  69.5060012  36.6764997  30.9109988  68.6010012  36.8414997  30.6459988
  69.9350012  37.5294997  30.8459988  69.4400799  36.8144483  30.8659182
  72.1100012  38.2464997  31.2059988  71.9280012  39.1624997  30.9959988
  72.2870012  37.8364997  30.3599988  72.1090210  38.3164822  31.0627885
  59.4150012  36.9334997  28.6709988  59.3970012  36.5084997  29.5289988
  60.2200012  36.6154997  28.2629988  59.5213875  36.8323812  28.7331655
  61.5570012  35.6434997  27.3259988  61.3380012  34.7274997  27.4959988
  62.3810012  35.7834997  27.7919988  61.6384420  35.5370520  27.4122774
  64.0940012  36.1134997  28.1749988  64.3070012  35.2254997  27.8879988
  64.1580012  36.0794997  29.1289988  64.1318232  35.9873102  28.2647397
  67.6020012  21.7774997  27.3189988  66.9280012  21.1484997  27.5749988
  68.1660012  21.2934997  26.7159988  67.5859230  21.6258744  27.2725340
  72.7450012  19.8854997  27.4319988  73.3490012  20.4324997  26.9299988
  71.8750012  20.2044997  27.1919988  72.7101241  20.0035806  27.3307654
  74.4720012  21.0234997  25.7649988  75.0840012  20.5094997  25.2389988
  74.8540012  21.9014997  25.7889988  74.6074540  21.0717140  25.6961830
  59.9290012  20.4114997  25.1409988  59.1520012  20.1774997  24.6339988
  60.4590012  19.6144997  25.1499988  59.8942330  20.2716988  25.0727742
  58.7650012  20.2094997  20.9449988  59.2040012  20.8204997  20.3529988
  58.1320012  20.7474997  21.4189988  58.7394514  20.3659257  20.9280930
  64.5080012  20.3384997  24.9549988  65.3830012  20.7264997  24.9249988
  64.3720012  20.1234997  25.8769988  64.6093695  20.3625184  25.0756440
  70.0650012  20.3684997  26.6039988  70.1410012  20.4634997  25.6539988
  69.7900012  19.4604997  26.7329988  70.0382321  20.2587867  26.4915079
  71.4180012  20.3944997  22.2959988  70.7160012  21.0094997  22.0869988
  70.9740012  19.5564997  22.4269988  71.2616330  20.3655783  22.2850328
  58.6660012  36.1574997  21.8429988  57.9810012  36.1194997  21.1749988
  58.6700012  37.0704997  22.1309988  58.5728193  36.2757016  21.7905284
  60.6260012  22.1254997  19.3869988  61.1180012  21.4954997  18.8599988
  61.2500012  22.4214997  20.0509988  60.7775446  22.0793199  19.4045980
  65.6520012  22.4184997  21.8439988  65.8300012  21.7724997  22.5269988
  65.5990012  23.2524997  22.3119988  65.6691829  22.4427985  22.0005940
  67.5310012  37.3674997  20.2399988  68.3970012  37.7334997  20.0619988
  67.2840012  36.9274997  19.4259988  67.6162392  37.3581756  20.1056289
  74.2400012  36.9304997  22.9189988  74.0450012  36.1824997  22.3539988
  74.2010012  37.6884997  22.3359988  74.2080380  36.9306099  22.7628384
  59.8870012  20.9254997  34.6589988  59.5210012  20.1604997  35.1019988
  60.8000012  20.9544997  34.9459988  59.9602790  20.8247224  34.7584070
  61.8600012  20.2764997  36.1949988  62.7580012  20.0024997  36.0099988
  61.4730012  19.5334997  36.6589988  61.9306612  20.1385914  36.2323643
  60.4840012  37.0774997  18.8679988  60.2170012  37.3644997  19.7409988
  61.2560012  36.5314997  19.0199988  60.5517488  37.0430294  19.0081050
  70.2810012  19.6084997  36.3769988  70.3580012  19.1824997  37.2309988
  71.1750012  19.6224997  36.0339988  70.4123428  19.5520879  36.4475310
  73.4570012  35.6814997  35.0689988  72.6750012  35.4954997  34.5499988
  73.3850012  36.6104997  35.2869988  73.3401777  35.7816492  35.0274048
  87.8630012  29.5674997  25.0999988  87.9520012  30.5114997  24.9679988
  87.2250012  29.2924997  24.4419988  87.7889081  29.6594830  24.9929614
  86.7960012  28.8224997  28.5189988  86.7580012  28.1764997  29.2239988
  86.4740012  28.3564997  27.7479988  86.7472333  28.6709408  28.5112978
  79.1650012  28.4374997  30.1119988  79.2060012  27.8114997  30.8349988
  79.8680012  29.0614997  30.2939988  79.2656363  28.4361196  30.2356044
  90.5020012  31.7614997  26.8199988  90.0620012  31.0414997  27.2709988
  90.4890012  32.4824997  27.4499988  90.4400226  31.7603731  26.9668494
  80.0880012  32.8874997  28.6469988  79.7190012  32.0854997  28.2769988
  81.0290012  32.7184997  28.6929988  80.1647289  32.7550153  28.6026316
  76.6980012  26.5474997  24.0399988  76.2510012  27.3934997  24.0209988
  76.1370012  25.9674997  23.5239988  76.5609900  26.5849916  23.9676801
  77.4090012  28.7094997  26.1659988  77.6220012  27.9394997  26.6929988
  78.1470012  28.7984997  25.5619988  77.5378496  28.6161394  26.1565300
  87.6140012  36.8664997  27.0329988  88.2340012  36.1894997  26.7589988
  87.4060012  36.6484997  27.9409988  87.6706904  36.7443870  27.1183365
  85.1860012  31.2554997  28.9249988  85.4900012  30.5694997  28.3299988
  85.9070012  31.3734997  29.5429988  85.3250671  31.1776305  28.9271816
  93.8490012  22.8564997  29.7859988  93.8980012  23.4664997  30.5219988
  94.2740012  23.3174997  29.0629988  93.9131824  23.0023741  29.7890205
  88.3270012  25.6494997  29.2529988  88.4690012  24.7034997  29.2729988
  88.2200012  25.8564997  28.3239988  88.3319864  25.5479534  29.1302339
  81.4810012  23.7504997  26.5249988  81.5250012  24.6104997  26.1069988
  81.0240012  23.1984997  25.8909988  81.4252185  23.7935799  26.3820299
  89.2040012  23.8814997  24.9259988  89.8500012  23.5524997  25.5509988
  89.7140012  24.3994997  24.3029988  89.3614264  23.9064611  24.9273862
  78.1020012  26.1474997  27.2869988  78.7550012  25.5974997  27.7189988
  78.1260012  25.8734997  26.3699988  78.1946683  26.0351466  27.2222123
  83.2580012  27.6974997  26.5019988  83.8740012  27.1714997  27.0119988
  82.6720012  27.0574997  26.0989988  83.2630810  27.5389208  26.5173173
  94.2400012  24.3344997  32.0219988  93.5520012  24.9924997  31.9259988
  94.2560012  24.1374997  32.9579988  94.1478525  24.3980462  32.1354808
  80.2920012  22.6684997  30.5989988  80.0730012  23.1984997  29.8329988
  79.6240012  22.8954997  31.2459988  80.1717600  22.7716906  30.5816379
  87.6610012  32.1684997  24.1429988  87.3650012  31.8464997  23.2919988
  87.3360012  33.0684997  24.1839988  87.5766371  32.2460215  24.0321801
  82.8610012  30.3444997  30.8859988  82.1210012  30.9424997  30.9899988
  83.5750012  30.8984997  30.5709988  82.8562237  30.5012831  30.8576465
  90.9680012  23.1724997  26.9059988  90.7520012  22.4064997  27.4389988
  91.6230012  23.6444997  27.4189988  91.0270633  23.1315889  27.0482861
  79.8850012  24.5604997  28.5509988  80.4990012  25.1934997  28.9249988
  80.3970012  24.0884997  27.8949988  80.0382296  24.5832370  28.5134252
  81.2680012  32.3084997  31.6739988  81.2630012  33.1884997  31.2959988
  80.4150012  32.2254997  32.0989988  81.1519464  32.4176117  31.6797907
  77.3890012  31.9794997  22.4559988  77.1170012  32.2084997  21.5669988
  77.4350012  32.8174997  22.9159988  77.3580094  32.1241213  22.3965697
  91.0140012  33.6014997  29.1679988  90.0730012  33.6594997  29.3299988
  91.2910012  34.5074997  29.0309988  90.9224679  33.7319443  29.1716815
  91.3150012  21.8874997  30.5859988  90.5790012  22.4984997  30.5479988
  91.9980012  22.3024997  30.0589988  91.3066541  22.0271374  30.5095832
  84.3180012  19.9744997  28.0519988  84.2010012  19.0254997  27.9969988
  83.4630012  20.3064997  28.3249988  84.1863733  19.8895409  28.0813897
  89.2660012  35.3824997  25.7939988  89.6920012  34.6754997  25.3089988
  89.5830012  36.1834997  25.3769988  89.3671019  35.3940994  25.6713130
  90.4260012  33.2834997  24.3019988  90.1680012  32.5934997  23.6909988
  90.4970012  32.8404997  25.1479988  90.4002856  33.1292124  24.3326885
  92.1120012  31.8494997  32.7799988  92.2520012  31.2584997  32.0399988
  92.2790012  32.7224997  32.4229988  92.1536778  31.8866426  32.6306965
  86.5850012  28.8114997  22.5519988  85.8730012  29.3464997  22.1999988
  87.2760012  28.8674997  21.8919988  86.5810132  28.8922543  22.4146289
  86.6380012  27.2694997  19.5909988  87.3390012  27.2914997  20.2419988
  86.9410012  26.6414997  18.9349988  86.7747830  27.1876566  19.5913711
  93.9540012  28.1894997  30.8459988  93.3010012  28.8844997  30.9349988
  94.4190012  28.3994997  30.0359988  93.9275390  28.3129425  30.7486883
  89.9900012  29.0214997  23.5039988  89.2580012  29.2494997  24.0769988
  90.4380012  28.3074997  23.9589988  89.9503095  28.9562571  23.6439119
  89.8880012  27.1954997  32.5709988  89.9680012  27.9584997  33.1429988
  89.2860012  27.4744997  31.8809988  89.8175756  27.3377134  32.5560589
  81.6360012  29.6514997  25.3859988  81.3050012  29.2814997  24.5679988
  82.2240012  28.9814997  25.7329988  81.6701873  29.5101156  25.3208102
  83.0020012  33.0794997  28.0679988  82.9080012  32.5014997  27.3109988
  83.7320012  32.7084997  28.5639988  83.0877981  32.9502390  28.0314165
  82.0020012  28.4204997  29.0199988  82.5680012  28.5414997  28.2569988
  82.3210012  29.0574997  29.6589988  82.1225786  28.5231884  29.0020040
  88.3110012  33.9234997  29.7539988  88.0710012  34.5854997  30.4019988
  88.1130012  33.0894997  30.1789988  88.2513808  33.9013134  29.9001524
  82.8820012  32.8194997  33.7369988  82.5710012  33.6014997  34.1919988
  82.2320012  32.6664997  33.0509988  82.7515558  32.9059105  33.7065871
  88.8610012  28.1834997  21.1889988  89.4410012  28.3334997  21.9359988
  89.2750012  28.6544997  20.4659988  88.9962830  28.2676841  21.1934134
  79.8020012  29.0174997  32.9659988  79.8730012  29.6684997  33.6639988
  78.9120012  29.1204997  32.6309988  79.6913117  29.1205936  33.0162700
  86.5880012  34.9204997  24.6239988  87.0620012  35.2154997  25.4019988
  86.0250012  35.6584997  24.3909988  86.5767653  35.0606932  24.6990136
  81.1220012  34.8914997  34.4999988  81.1290012  34.7554997  33.5529988
  80.2060012  34.7734997  34.7519988  80.9991714  34.8569430  34.4044666
  92.5600012  19.9334997  21.0019988  91.6600012  20.0724997  21.2969988
  92.8120012  20.7644997  20.5999988  92.4708702  20.0649074  20.9880205
  80.6260012  28.7214997  22.9759988  80.3340012  29.4894997  22.4849988
  79.9520012  28.0614997  22.8129988  80.4949081  28.7374406  22.8867340
  93.7490012  34.2994997  19.3779988  93.8230012  35.2384997  19.5489988
  94.6550012  33.9944997  19.3219988  93.8815100  34.3866722  19.3938119
  76.7190012  31.0844997  31.7909988  76.2180012  31.0564997  30.9759988
  76.7240012  30.1784997  32.0999988  76.6511526  30.9582278  31.7212872
  76.4690012  33.8644997  28.6749988  77.4150012  33.7204997  28.6559988
  76.3570012  34.6484997  29.2119988  76.5832727  33.9508046  28.7450072
  94.6670012  34.5304997  34.3569988  94.6180012  33.5754997  34.3199988
  93.8400012  34.7984997  34.7579988  94.5484940  34.4358998  34.4061375
  85.6460012  34.1044997  33.2329988  85.7330012  34.9304997  33.7079988
  84.7820012  33.7744997  33.4819988  85.5411964  34.1729878  33.3316549
  86.0600012  37.8764997  23.0389988  85.9850012  37.7554997  22.0929988
  86.0930012  38.8264997  23.1579988  86.0541848  37.9882500  22.9254834
  79.7130012  36.6654997  24.8199988  79.8660012  36.3174997  25.6989988
  78.8630012  36.3094997  24.5649988  79.6188962  36.5696650  24.9058340
  89.1620012  37.0304997  20.0409988  89.5370012  36.2864997  19.5709988
  89.1660012  36.7604997  20.9599988  89.2138915  36.8921486  20.1007824
  88.8310012  36.9564997  22.7909988  87.8950012  37.0564997  22.9689988
  89.1110012  36.2474997  23.3689988  88.7408255  36.8742711  22.8935391
  91.8190012  26.0234997  34.8369988  91.4120012  26.5044997  34.1159988
  91.8600012  25.1184997  34.5289988  91.7688437  25.9669374  34.6966683
  78.9680012  32.4074997  32.8339988  79.1840012  32.0464997  33.6929988
  78.1130012  32.0334997  32.6239988  78.8819292  32.3074111  32.9233386
  81.5870012  20.8774997  28.8289988  80.7250012  20.7904997  28.4219988
  81.5640012  21.7334997  29.2569988  81.4660330  20.9812765  28.8311863
  86.2500012  20.5994997  32.2039988  86.6700012  20.1844997  32.9569988
  85.3170012  20.4214997  32.3209988  86.1813644  20.5185900  32.3229539
  89.5760012  24.3554997  33.0569988  89.0620012  24.2294997  33.8549988
  89.4210012  25.2674997  32.8129988  89.4846852  24.4616132  33.1332158
  90.3390012  29.2164997  18.8189988  90.3810012  28.9934997  17.8889988
  91.1880012  29.6154997  19.0089988  90.4595396  29.2399155  18.7173627
  85.9110012  23.0924997  19.4889988  85.6580012  23.1114997  20.4119988
  85.6550012  22.2204997  19.1879988  85.8417790  22.9772437  19.5746263
  81.6780012  25.8434997  29.9239988  81.0360012  25.8024997  30.6329988
  81.7150012  26.7694997  29.6869988  81.5951324  25.9631559  29.9889824
  81.6750012  26.0644997  24.8359988  80.7820012  25.7234997  24.7779988
  82.1250012  25.6874997  24.0809988  81.6137305  25.9668484  24.7259177
  87.2100012  26.4804997  23.6529988  86.8010012  27.2954997  23.3619988
  87.9310012  26.3404997  23.0389988  87.2514537  26.5732018  23.5301342
  86.3120012  26.6554997  35.1409988  85.7500012  25.9514997  35.4619988
  87.1390012  26.5354997  35.6089988  86.3467095  26.5427883  35.2482330
  88.2150012  25.9264997  26.4669988  88.0200012  26.5314997  25.7519988
  88.3960012  25.0924997  26.0329988  88.2127614  25.8966300  26.3104405
  79.4280012  26.1634997  31.7909988  79.3900012  26.5634997  32.6599988
  78.9370012  25.3464997  31.8819988  79.3564684  26.1078069  31.9221059
  82.7940012  23.5374997  18.5899988  82.3630012  23.0924997  19.3199988
  82.0760012  23.9094997  18.0779988  82.6379438  23.5268940  18.6206799
  76.0360012  23.2794997  25.6419988  76.6670012  23.2504997  26.3609988
  76.4850012  22.8544997  24.9119988  76.1830774  23.2180492  25.6416553
  77.3100012  24.0254997  21.0659988  77.7840012  24.6164997  20.4809988
  76.5930012  24.5564997  21.4129988  77.2779341  24.1780867  21.0328836
  87.4790012  27.5644997  31.1389988  87.8020012  26.9334997  30.4959988
  87.0390012  27.0294997  31.7989988  87.4636895  27.4058441  31.1402850
  84.2560012  23.4914997  25.9229988  83.3450012  23.5484997  26.2109988
  84.7620012  23.4314997  26.7329988  84.1995413  23.4911985  26.0720622
  79.0850012  25.1204997  24.7489988  78.1950012  25.2204997  24.4089988
  79.3810012  24.2784997  24.4029988  79.0032823  25.0203546  24.6557213
  82.7380012  25.1204997  22.4059988  83.6690012  25.2494997  22.5839988
  82.5230012  25.7904997  21.7559988  82.8364247  25.2286565  22.3425747
  88.6610012  22.7264997  29.1869988  87.9850012  22.8574997  29.8509988
  88.1760012  22.5714997  28.3769988  88.5027145  22.7234905  29.1684517
  81.4120012  26.3154997  19.9729988  80.8690012  25.9354997  19.2809988
  82.2450012  26.5094997  19.5439988  81.4504399  26.2898124  19.8204526
  91.9490012  38.3984997  35.4639988  92.1490012  38.8224997  34.6289988
  92.6040012  38.7414997  36.0709988  92.0650051  38.5029648  35.4317836
  79.5470012  30.8724997  35.0719988  80.2790012  31.1264997  35.6329988
  78.7670012  31.0764997  35.5869988  79.5418232  30.9349177  35.2185760
  85.5760012  26.2794997  27.8099988  86.1410012  25.7324997  27.2629988
  85.4290012  25.7574997  28.5979988  85.6332918  26.1342024  27.8418454
  80.5780012  22.4154997  24.2279988  80.2610012  21.5134997  24.1929988
  81.3600012  22.4174997  23.6749988  80.6402284  22.2921628  24.1484783
  84.2030012  24.6674997  30.2239988  83.3670012  25.1214997  30.3339988
  84.7270012  24.9434997  30.9759988  84.1594414  24.7669376  30.3407136
  84.7470012  30.8804997  21.9079988  84.0020012  30.3734997  21.5859988
  84.6130012  30.9294997  22.8549988  84.6268776  30.8176940  21.9918647
  91.8970012  30.0134997  30.6949988  92.5390012  30.4704997  30.1509988
  91.0670012  30.1264997  30.2319988  91.8725963  30.0912704  30.5580177
  88.6450012  23.6944997  20.1079988  87.7060012  23.8064997  19.9559988
  88.9420012  24.5514997  20.4139988  88.5567666  23.8256443  20.1285768
  86.2660012  31.0644997  33.1449988  85.9210012  30.6834997  33.9519988
  86.0660012  31.9984997  33.2169988  86.1918061  31.1385228  33.2650961
  89.3630012  25.5614997  21.7679988  90.2550012  25.4244997  22.0869988
  89.4200012  26.3524997  21.2319988  89.4926285  25.6496660  21.7391691
  79.8720012  30.1754997  27.6779988  80.6170012  30.1734997  27.0769988
  79.9500012  29.3524997  28.1599988  79.9845518  30.0639315  27.6608929
  86.8730012  32.3394997  20.9339988  86.5770012  33.1654997  21.3149988
  86.1700012  31.7194997  21.1299988  86.7374914  32.3688199  21.0126443
  76.8800012  28.6364997  32.9929988  77.1030012  28.2184997  33.8249988
  76.2780012  28.0234997  32.5699988  76.8291759  28.4964668  33.0497022
  83.8960012  28.1534997  35.2059988  83.6000012  27.9874997  34.3109988
  84.8280012  27.9334997  35.1949988  83.9814166  28.1010640  35.0820536
  88.5170012  33.5264997  33.0959988  87.6160012  33.7094997  32.8279988
  88.5510012  33.7854997  34.0169988  88.3983041  33.5865512  33.1838197
  94.2480012  25.7714997  21.4629988  93.6940012  25.3754997  20.7909988
  94.3480012  26.6814997  21.1849988  94.1857059  25.8403586  21.3334401
  94.2110012  31.5714997  34.2999988  93.3600012  31.8094997  33.9329988
  94.8020012  31.5544997  33.5469988  94.1742487  31.6018258  34.1478893
  92.5430012  34.5574997  21.9279988  92.1700012  33.7314997  22.2369988
  92.8210012  34.3744997  21.0309988  92.5295630  34.4197303  21.8489626
  89.7040012  29.3654997  28.9489988  88.7750012  29.1334997  28.9219988
  90.1550012  28.5884997  28.6189988  89.6379216  29.2287238  28.9006917
  82.2470012  33.6934997  25.0819988  82.7740012  34.4664997  24.8819988
  81.3670012  33.9184997  24.7809988  82.2001773  33.8298005  25.0139010
  78.0020012  28.5554997  19.6689988  78.6180012  29.1824997  20.0489988
  77.1400012  28.8714997  19.9409988  77.9697698  28.6839430  19.7577183
  83.6740012  31.3564997  24.6589988  83.4330012  32.2814997  24.6999988
  82.9330012  30.8974997  25.0549988  83.5408409  31.4211421  24.7181377
  84.1890012  35.5054997  30.9739988  84.5510012  36.3604997  30.7399988
  84.7200012  35.2134997  31.7139988  84.3104473  35.5831060  31.0420855
  82.3570012  36.3784997  24.2039988  81.4070012  36.4834997  24.2549988
  82.7090012  37.1984997  24.5489988  82.2744203  36.5038314  24.2576650
  87.7330012  31.6044997  30.6739988  87.3070012  31.3774997  31.5009988
  88.3130012  30.8664997  30.4919988  87.7531868  31.4735299  30.7625830
  89.9360012  32.5334997  19.7479988  90.2890012  32.1534997  20.5529988
  88.9870012  32.4404997  19.8349988  89.8560441  32.4689596  19.8698559
  90.3910012  36.1564997  33.1439988  89.7900012  35.6014997  32.6479988
  90.6730012  36.8234997  32.5179988  90.3468519  36.1706841  32.9914952
  94.4390012  37.0134997  19.9489988  95.1830012  37.5994997  19.8089988
  93.7450012  37.5814997  20.2829988  94.4470292  37.1705582  19.9749961
  78.5140012  23.3894997  32.5509988  77.6210012  23.7284997  32.4829988
  78.4150012  22.5344997  32.9689988  78.3784164  23.3202588  32.5982235
  90.8020012  31.2064997  21.9749988  90.5240012  30.4784997  22.5309988
  91.7290012  31.3254997  22.1799988  90.8893124  31.1228802  22.0788845
  78.1650012  35.1944997  30.9859988  78.3820012  34.2624997  30.9549988
  78.4110012  35.4684997  31.8689988  78.2279549  35.1040636  31.1011763
  84.0270012  33.6454997  18.1949988  84.2660012  32.8974997  17.6479988
  83.7580012  33.2574997  19.0279988  84.0233675  33.4906638  18.2326865
  82.9640012  33.2154997  20.6519988  83.1100012  32.6954997  21.4419988
  82.9610012  34.1224997  20.9579988  82.9835989  33.2668853  20.8016088
  79.4170012  30.4684997  21.1619988  78.7310012  30.8204997  21.7289988
  79.9390012  31.2314997  20.9149988  79.3936852  30.6198578  21.2062118
  87.2480012  23.1304997  31.4409988  87.9470012  23.2044997  32.0909988
  86.8670012  22.2664997  31.5949988  87.2921767  23.0237624  31.5508322
  88.0330012  22.7824997  22.5379988  88.2530012  23.2544997  21.7349988
  88.5910012  23.1774997  23.2079988  88.1384968  22.9004285  22.5187331
  85.7010012  34.9134997  21.4009988  84.8850012  35.4104997  21.4529988
  86.2310012  35.3884997  20.7609988  85.6609161  35.0457722  21.3215956
  85.2330012  24.5104997  23.3729988  86.0450012  25.0154997  23.4189988
  84.9880012  24.3654997  24.2869988  85.3110520  24.5600375  23.5028517
  85.7680012  25.4964997  32.5579988  85.8870012  26.0704997  33.3149988
  86.4240012  24.8084997  32.6719988  85.8729757  25.4821079  32.6770825
  86.1160012  21.5914997  24.3109988  85.7700012  22.2094997  24.9559988
  86.7750012  22.0924997  23.8299988  86.1577826  21.7435802  24.3340971
  83.0400012  35.9574997  21.3829988  83.2000012  36.7564997  20.8819988
  82.8420012  36.2634997  22.2679988  83.0351649  36.1084469  21.4339815
  81.7740012  22.6544997  20.9979988  81.6910012  23.5434997  21.3449988
  82.6640012  22.3894997  21.2299988  81.8829469  22.7401430  21.0767626
  91.9730012  23.4034997  33.3929988  91.0560012  23.6664997  33.3049988
  92.3080012  23.4004997  32.4959988  91.8929900  23.4390224  33.2597919
  90.5750012  27.1544997  27.4879988  89.7770012  26.7394997  27.1599988
  91.0200012  26.4634997  27.9789988  90.5259885  27.0043543  27.5094889
  80.0330012  33.0824997  20.0589988  80.6250012  33.7814997  20.3349988
  80.4920012  32.6494997  19.3389988  80.1761142  33.1197049  19.9994830
  78.3490012  25.7464997  19.1749988  78.3040012  26.6854997  19.3529988
  77.4610012  25.5104997  18.9049988  78.2228574  25.8431892  19.1628912
  91.6610012  36.4104997  29.1109988  91.5060012  37.0884997  28.4539988
  92.5940012  36.4824997  29.3139988  91.7658500  36.5130170  29.0485119
  79.1570012  20.5284997  27.8479988  78.9280012  20.5874997  26.9199988
  78.7140012  19.7364997  28.1539988  79.0658530  20.4295753  27.7624786
  78.0870012  34.4684997  24.0079988  77.2550012  34.9414997  24.0359988
  78.6330012  34.9784997  23.4099988  78.0469739  34.6021871  23.9309716
  77.3750012  37.0814997  35.3379988  77.9160012  36.8644997  36.0979988
  76.8940012  36.2754997  35.1489988  77.3839345  36.9429514  35.4163076
  81.9730012  36.0004997  36.9589988  82.7400012  35.5414997  37.2999988
  81.9510012  35.7744997  36.0289988  82.0751434  35.9070409  36.8800043
  86.0650012  35.5084997  18.3339988  85.4210012  34.8774997  18.6549988
  86.8270012  34.9774997  18.1019988  86.0798077  35.3502920  18.3466011
  88.5500012  34.3804997  35.6879988  88.1990012  33.5244997  35.9309988
  89.2760012  34.5234997  36.2949988  88.6000769  34.2825636  35.8033619
  90.6690012  35.3254997  18.5679988  90.9520012  34.5314997  19.0199988
  91.4090012  35.5584997  18.0069988  90.8077486  35.2482803  18.5540698
  77.2820012  30.8914997  36.2929988  77.4260012  29.9894997  36.0059988
  76.5100012  31.1774997  35.8049988  77.1973323  30.8068261  36.1877881
  81.6240012  31.2354997  18.4249988  81.6880012  30.4414997  18.9559988
  82.2770012  31.1164997  17.7349988  81.7210241  31.1107148  18.4044317
  83.9380012  30.8614997  35.7249988  83.6090012  31.1324997  34.8679988
  84.0900012  29.9204997  35.6379988  83.9134809  30.7713862  35.5958244
  86.9760012  32.2824997  18.1609988  86.7070012  32.4624997  19.0619988
  86.7700012  31.3564997  18.0299988  86.9113825  32.1820152  18.2665214
  89.6720012  30.7774997  33.1089988  90.4180012  31.3654997  32.9889988
  88.9150012  31.3594997  33.1719988  89.6717554  30.9367011  33.1010907
  78.1150012  28.0914997  35.7129988  78.5230012  27.2344997  35.5919988
  77.8550012  28.1064997  36.6339988  78.1357568  27.9760807  35.8209588
  82.7730012  29.2074997  20.7309988  82.3130012  28.7234997  21.4169988
  83.0280012  28.5394997  20.0949988  82.7444902  29.0508731  20.7389334
  82.0620012  27.1004997  33.0869988  81.4440012  27.7754997  33.3669988
  82.4060012  27.4214997  32.2539988  82.0239615  27.2362721  33.0126581
  83.8440012  27.4504997  18.9929988  83.6640012  27.2964997  18.0659988
  84.7940012  27.5584997  19.0379988  83.9477776  27.4440175  18.8721843
  87.0820012  29.5724997  36.3639988  88.0350012  29.6554997  36.3369988
  86.9210012  28.8604997  36.9839988  87.1906426  29.4876746  36.4440579
  93.2340012  29.8054997  18.4389988  92.9600012  29.3804997  17.6259988
  93.2730012  30.7364997  18.2219988  93.2017699  29.8732484  18.2983610
  82.4010012  24.4554997  34.1689988  82.5510012  23.7264997  33.5669988
  82.4040012  25.2324997  33.6099988  82.4219302  24.4607851  34.0110692
  82.8140012  22.8254997  31.6619988  83.3500012  23.2764997  31.0099988
  81.9620012  22.7174997  31.2389988  82.7722178  22.8726390  31.5155756
  84.3960012  28.2644997  31.9009988  85.1460012  28.1084997  31.3279988
  84.0570012  29.1164997  31.6259988  84.4528921  28.3582968  31.7853561
  88.8110012  26.0794997  36.9299988  89.0040012  25.1484997  36.8179988
  89.6690012  26.5044997  36.9199988  88.9533020  26.0096389  36.9133361
  90.1280012  28.8684997  35.0069988  89.8470012  29.5774997  34.4299988
  91.0710012  28.7954997  34.8559988  90.2169027  28.9557646  34.9075551
  80.8800012  25.6534997  36.0809988  80.1130012  25.1214997  35.8709988
  81.5590012  25.3434997  35.4809988  80.8667022  25.5387506  35.9711648
  83.6200012  20.2814997  32.0929988  83.5210012  21.2284997  31.9879988
  82.8770012  19.9094997  31.6179988  83.5060564  20.3605902  32.0144560
  84.8840012  24.6034997  35.6569988  84.6480012  24.3834997  36.5589988
  84.1000012  24.3964997  35.1469988  84.7458628  24.5454760  35.7113932
  87.5990012  23.7304997  34.7329988  86.6520012  23.7624997  34.8649988
  87.9120012  23.1054997  35.3859988  87.5115475  23.6503207  34.8394455
  89.2330012  22.3644997  36.7379988  89.1370012  21.4124997  36.7319988
  88.9120012  22.6334997  37.5979988  89.1764070  22.2704035  36.8535441
  79.0600012  23.5744997  35.7849988  79.2720012  22.8674997  35.1749988
  78.9490012  23.1364997  36.6289988  79.0739721  23.4187084  35.8156843
  83.8410012  19.5754997  34.7649988  84.5530012  18.9354997  34.7509988
  83.7400012  19.8424997  33.8509988  83.9247939  19.5239938  34.6395650
  84.1950012  21.2584997  36.8179988  84.0630012  20.7824997  35.9979988
  83.5960012  22.0024997  36.7629988  84.0959071  21.2939618  36.6982886
  83.7410012  38.1414997  19.9949988  84.6740012  38.2994997  20.1379988
  83.4770012  38.8164997  19.3699988  83.8329510  38.2543611  19.9300741
  77.3100012  32.7774997  19.4769988  78.2240012  32.8564997  19.7509988
  77.3170012  32.0904997  18.8109988  77.4361131  32.6953961  19.4244393
  75.9590012  38.1704997  24.5549988  75.3120012  37.7084997  24.0219988
  76.3130012  37.4984997  25.1369988  75.9183849  38.0164723  24.5607959
  76.8290012  36.2514997  26.3589988  76.4940012  35.3714997  26.5309988
  77.0510012  36.5964997  27.2239988  76.8131783  36.1777500  26.4994208
  94.3770012  37.0604997  29.3399988  94.3560012  37.2454997  30.2789988
  95.0680012  37.6294997  28.9989988  94.4674618  37.1626606  29.4223864
  93.9410012  36.6284997  32.2619988  93.4530012  35.8924997  31.8909988
  94.4900012  36.2344997  32.9399988  93.9484872  36.4746249  32.3029160
  92.3910012  32.4174997  36.8999988  91.5250012  32.3124997  37.2939988
  92.7680012  33.1764997  37.3459988  92.3233308  32.5056900  37.0142393
  93.6920012  30.6744997  22.4139988  94.5420012  31.0954997  22.5409988
  93.6980012  29.9344997  23.0209988  93.8091372  30.6320803  22.5134344
  94.0870012  28.7274997  24.2379988  93.3600012  28.2484997  24.6349988
  94.6680012  28.9334997  24.9699988  94.0659375  28.6897090  24.3914129
  93.8460012  31.5124997  29.1849988  94.6790012  31.1344997  28.9049988
  93.9580012  32.4554997  29.0659988  93.9752647  31.5882218  29.1305487
  92.3320012  34.3904997  31.4919988  91.6850012  34.7154997  32.1179988
  91.8150012  33.9504997  30.8179988  92.1734029  34.3755004  31.4865827
  94.3550012  28.6284997  20.6289988  93.8330012  28.9854997  19.9099988
  94.3220012  29.3034997  21.3069988  94.2791634  28.7685413  20.6223145
  92.7040012  25.8684997  19.1799988  92.8000012  26.5354997  18.4989988
  92.5640012  25.0524997  18.6979988  92.6982135  25.8494500  19.0218491
  91.8730012  27.2484997  24.8009988  91.7230012  26.3034997  24.7799988
  91.5200012  27.5294997  25.6439988  91.8046625  27.1570441  24.9122346
  76.9090012  29.3264997  28.8109988  77.0930012  29.2444997  27.8749988
  77.7580012  29.2024997  29.2349988  77.0490139  29.2985003  28.7401455
  92.7300012  29.2184997  34.4389988  93.3130012  28.4844997  34.6309988
  93.2940012  29.9904997  34.4859988  92.8859769  29.2224227  34.4716159
  94.2260012  27.1214997  35.1239988  93.3630012  26.7424997  34.9579988
  94.8310012  26.3824997  35.0499988  94.1895979  26.9698023  35.0912817
  91.9510012  23.2764997  18.2969988  92.5620012  22.9054997  18.9339988
  91.1150012  22.8554997  18.4929988  91.9215032  23.1687554  18.4107035
  91.5840012  24.8314997  23.2629988  91.8640012  23.9244997  23.3869988
  92.3430012  25.2654997  22.8739988  91.7249277  24.7660942  23.2273682
  92.1960012  25.4124997  28.6989988  93.1290012  25.6244997  28.6649988
  91.9610012  25.5144997  29.6209988  92.2918036  25.4552769  28.8189976
  92.2250012  26.1494997  31.4749988  91.3820012  26.4174997  31.8409988
  92.6670012  26.9714997  31.2639988  92.1694158  26.2973291  31.4965491
  76.5060012  24.5974997  34.9519988  77.4260012  24.4754997  35.1879988
  76.0570012  23.8474997  35.3409988  76.5711580  24.4793727  35.0369006
  94.5080012  20.1294997  36.8279988  94.8580012  19.4754997  36.2229988
  94.6550012  20.9664997  36.3889988  94.5758419  20.1531591  36.6857118
  92.1970012  22.0944997  23.3109988  92.3800012  21.6454997  24.1369988
  91.5980012  21.5094997  22.8479988  92.1410202  21.9539975  23.3613275
  77.7270012  22.9094997  27.8429988  78.1730012  22.1174997  28.1449988
  78.1940012  23.6254997  28.2739988  77.8510172  22.8980624  27.9424820
  76.0310012  25.9084997  28.9119988  76.5230012  25.6874997  28.1209988
  76.3940012  26.7494997  29.1929988  76.1473126  25.9918357  28.8417531
  94.0280012  22.2384997  35.1779988  93.1100012  22.5094997  35.1419988
  94.1510012  21.7034997  34.3929988  93.9191066  22.2032892  35.0670487
  94.0640012  22.1614997  19.8389988  94.4760012  21.4404997  19.3639988
  94.7460012  22.8314997  19.8979988  94.2125885  22.1532368  19.7818915
  76.3450012  22.1664997  22.9659988  75.4200012  22.3754997  22.8369988
  76.7990012  22.6504997  22.2769988  76.2797368  22.2605993  22.8551226
  91.1160012  37.1504997  24.9119988  91.7680012  36.8034997  24.3039988
  91.6260012  37.6394997  25.5579988  91.2742637  37.1690597  24.9160236
  76.3090012  20.9044997  31.3109988  75.6440012  20.6584997  31.9539988
  75.8660012  21.5264997  30.7329988  76.1580956  20.9548632  31.3209352
  78.5010012  34.0794997  35.4549988  77.6800012  34.2544997  34.9949988
  78.2480012  34.0064997  36.3759988  78.3546164  34.0935622  35.5164923
  81.4550012  35.0544997  31.7139988  81.0300012  35.8634997  31.4309988
  82.3590012  35.1394997  31.4119988  81.5190271  35.1768469  31.6343776
  85.7660012  36.4534997  34.6729988  85.9510012  36.1194997  35.5509988
  86.6120012  36.7624997  34.3509988  85.9057539  36.4496047  34.7495605
  88.1110012  37.7394997  33.9169988  88.7880012  37.1064997  33.6769988
  88.4330012  38.1404997  34.7239988  88.2471637  37.7071154  33.9932793
  93.0280012  20.3284997  32.9969988  92.2160012  20.6534997  32.6089988
  93.2610012  19.5684997  32.4639988  92.9483423  20.2702436  32.8718253
  78.8570012  38.3104997  31.7609988  78.1360012  38.7504997  31.3099988
  78.4910012  38.0594997  32.6099988  78.7089804  38.3367698  31.8139840
  81.3240012  37.9104997  30.7909988  80.4590012  37.9824997  31.1949988
  81.2690012  38.4574997  30.0069988  81.1982085  37.9942685  30.7403362
  86.0340012  37.7984997  29.9659988  85.5780012  38.3274997  29.3119988
  86.1970012  38.4014997  30.6919988  85.9935585  37.9524468  29.9745062
  88.3620012  36.6764997  30.9109988  87.4570012  36.8414997  30.6459988
  88.7910012  37.5294997  30.8459988  88.2960799  36.8144483  30.8659182
  90.9660012  38.2464997  31.2059988  90.7840012  39.1624997  30.9959988
  91.1430012  37.8364997  30.3599988  90.9650210  38.3164822  31.0627885
  78.2710012  36.9334997  28.6709988  78.2530012  36.5084997  29.5289988
  79.0760012  36.6154997  28.2629988  78.3773875  36.8323812  28.7331655
  80.4130012  35.6434997  27.3259988  80.1940012  34.7274997  27.4959988
  81.2370012  35.7834997  27.7919988  80.4944420  35.5370520  27.4122774
  82.9500012  36.1134997  28.1749988  83.1630012  35.2254997  27.8879988
  83.0140012  36.0794997  29.1289988  82.9878232  35.9873102  28.2647397
  86.4580012  21.7774997  27.3189988  85.7840012  21.1484997  27.5749988
  87.0220012  21.2934997  26.7159988  86.4419230  21.6258744  27.2725340
  91.6010012  19.8854997  27.4319988  92.2050012  20.4324997  26.9299988
  90.7310012  20.2044997  27.1919988  91.5661241  20.0035806  27.3307654
  93.3280012  21.0234997  25.7649988  93.9400012  20.5094997  25.2389988
  93.7100012  21.9014997  25.7889988  93.4634540  21.0717140  25.6961830
  78.7850012  20.4114997  25.1409988  78.0080012  20.1774997  24.6339988
  79.3150012  19.6144997  25.1499988  78.7502330  20.2716988  25.0727742
  77.6210012  20.2094997  20.9449988  78.0600012  20.8204997  20.3529988
  76.9880012  20.7474997  21.4189988  77.5954514  20.3659257  20.9280930
  83.3640012  20.3384997  24.9549988  84.2390012  20.7264997  24.9249988
  83.2280012  20.1234997  25.8769988  83.4653695  20.3625184  25.0756440
  88.9210012  20.3684997  26.6039988  88.9970012  20.4634997  25.6539988
  88.6460012  19.4604997  26.7329988  88.8942321  20.2587867  26.4915079
  90.2740012  20.3944997  22.2959988  89.5720012  21.0094997  22.0869988
  89.8300012  19.5564997  22.4269988  90.1176330  20.3655783  22.2850328
  77.5220012  36.1574997  21.8429988  76.8370012  36.1194997  21.1749988
  77.5260012  37.0704997  22.1309988  77.4288193  36.2757016  21.7905284
  79.4820012  22.1254997  19.3869988  79.9740012  21.4954997  18.8599988
  80.1060012  22.4214997  20.0509988  79.6335446  22.0793199  19.4045980
  84.5080012  22.4184997  21.8439988  84.6860012  21.7724997  22.5269988
  84.4550012  23.2524997  22.3119988  84.5251829  22.4427985  22.0005940
  86.3870012  37.3674997  20.2399988  87.2530012  37.7334997  20.0619988
  86.1400012  36.9274997  19.4259988  86.4722392  37.3581756  20.1056289
  93.0960012  36.9304997  22.9189988  92.9010012  36.1824997  22.3539988
  93.0570012  37.6884997  22.3359988  93.0640380  36.9306099  22.7628384
  78.7430012  20.9254997  34.6589988  78.3770012  20.1604997  35.1019988
  79.6560012  20.9544997  34.9459988  78.8162790  20.8247224  34.7584070
  80.7160012  20.2764997  36.1949988  81.6140012  20.0024997  36.0099988
  80.3290012  19.5334997  36.6589988  80.7866612  20.1385914  36.2323643
  79.3400012  37.0774997  18.8679988  79.0730012  37.3644997  19.7409988
  80.1120012  36.5314997  19.0199988  79.4077488  37.0430294  19.0081050
  89.1370012  19.6084997  36.3769988  89.2140012  19.1824997  37.2309988
  90.0310012  19.6224997  36.0339988  89.2683428  19.5520879  36.4475310
  92.3130012  35.6814997  35.0689988  91.5310012  35.4954997  34.5499988
  92.2410012  36.6104997  35.2869988  92.1961777  35.7816492  35.0274048
 106.7190012  29.5674997  25.0999988 106.8080012  30.5114997  24.9679988
 106.0810012  29.2924997  24.4419988 106.6449081  29.6594830  24.9929614
 105.6520012  28.8224997  28.5189988 105.6140012  28.1764997  29.2239988
 105.3300012  28.3564997  27.7479988 105.6032333  28.6709408  28.5112978
  98.0210012  28.4374997  30.1119988  98.0620012  27.8114997  30.8349988
  98.7240012  29.0614997  30.2939988  98.1216363  28.4361196  30.2356044
 109.3580012  31.7614997  26.8199988 108.9180012  31.0414997  27.2709988
 109.3450012  32.4824997  27.4499988 109.2960226  31.7603731  26.9668494
  98.9440012  32.8874997  28.6469988  98.5750012  32.0854997  28.2769988
  99.8850012  32.7184997  28.6929988  99.0207289  32.7550153  28.6026316
  95.5540012  26.5474997  24.0399988  95.1070012  27.3934997  24.0209988
  94.9930012  25.9674997  23.5239988  95.4169900  26.5849916  23.9676801
  96.2650012  28.7094997  26.1659988  96.4780012  27.9394997  26.6929988
  97.0030012  28.7984997  25.5619988  96.3938496  28.6161394  26.1565300
 106.4700012  36.8664997  27.0329988 107.0900012  36.1894997  26.7589988
 106.2620012  36.6484997  27.9409988 106.5266904  36.7443870  27.1183365
 104.0420012  31.2554997  28.9249988 104.3460012  30.5694997  28.3299988
 104.7630012  31.3734997  29.5429988 104.1810671  31.1776305  28.9271816
 112.7050012  22.8564997  29.7859988 112.7540012  23.4664997  30.5219988
 113.1300012  23.3174997  29.0629988 112.7691824  23.0023741  29.7890205
 107.1830012  25.6494997  29.2529988 107.3250012  24.7034997  29.2729988
 107.0760012  25.8564997  28.3239988 107.1879864  25.5479534  29.1302339
 100.3370012  23.7504997  26.5249988 100.3810012  24.6104997  26.1069988
  99.8800012  23.1984997  25.8909988 100.2812185  23.7935799  26.3820299
 108.0600012  23.8814997  24.9259988 108.7060012  23.5524997  25.5509988
 108.5700012  24.3994997  24.3029988 108.2174264  23.9064611  24.9273862
  96.9580012  26.1474997  27.2869988  97.6110012  25.5974997  27.7189988
  96.9820012  25.8734997  26.3699988  97.0506683  26.0351466  27.2222123
 102.1140012  27.6974997  26.5019988 102.7300012  27.1714997  27.0119988
 101.5280012  27.0574997  26.0989988 102.1190810  27.5389208  26.5173173
 113.0960012  24.3344997  32.0219988 112.4080012  24.9924997  31.9259988
 113.1120012  24.1374997  32.9579988 113.0038525  24.3980462  32.1354808
  99.1480012  22.6684997  30.5989988  98.9290012  23.1984997  29.8329988
  98.4800012  22.8954997  31.2459988  99.0277600  22.7716906  30.5816379
 106.5170012  32.1684997  24.1429988 106.2210012  31.8464997  23.2919988
 106.1920012  33.0684997  24.1839988 106.4326371  32.2460215  24.0321801
 101.7170012  30.3444997  30.8859988 100.9770012  30.9424997  30.9899988
 102.4310012  30.8984997  30.5709988 101.7122237  30.5012831  30.8576465
 109.8240012  23.1724997  26.9059988 109.6080012  22.4064997  27.4389988
 110.4790012  23.6444997  27.4189988 109.8830632  23.1315889  27.0482861
  98.7410012  24.5604997  28.5509988  99.3550012  25.1934997  28.9249988
  99.2530012  24.0884997  27.8949988  98.8942296  24.5832370  28.5134252
 100.1240012  32.3084997  31.6739988 100.1190012  33.1884997  31.2959988
  99.2710012  32.2254997  32.0989988 100.0079464  32.4176117  31.6797907
  96.2450012  31.9794997  22.4559988  95.9730012  32.2084997  21.5669988
  96.2910012  32.8174997  22.9159988  96.2140094  32.1241213  22.3965697
 109.8700012  33.6014997  29.1679988 108.9290012  33.6594997  29.3299988
 110.1470012  34.5074997  29.0309988 109.7784679  33.7319443  29.1716815
 110.1710012  21.8874997  30.5859988 109.4350012  22.4984997  30.5479988
 110.8540012  22.3024997  30.0589988 110.1626541  22.0271374  30.5095832
 103.1740012  19.9744997  28.0519988 103.0570012  19.0254997  27.9969988
 102.3190012  20.3064997  28.3249988 103.0423733  19.8895409  28.0813897
 108.1220012  35.3824997  25.7939988 108.5480012  34.6754997  25.3089988
 108.4390012  36.1834997  25.3769988 108.2231019  35.3940994  25.6713130
 109.2820012  33.2834997  24.3019988 109.0240012  32.5934997  23.6909988
 109.3530012  32.8404997  25.1479988 109.2562856  33.1292124  24.3326885
 110.9680012  31.8494997  32.7799988 111.1080012  31.2584997  32.0399988
 111.1350012  32.7224997  32.4229988 111.0096778  31.8866426  32.6306965
 105.4410012  28.8114997  22.5519988 104.7290012  29.3464997  22.1999988
 106.1320012  28.8674997  21.8919988 105.4370132  28.8922543  22.4146289
 105.4940012  27.2694997  19.5909988 106.1950012  27.2914997  20.2419988
 105.7970012  26.6414997  18.9349988 105.6307830  27.1876566  19.5913711
 112.8100012  28.1894997  30.8459988 112.1570012  28.8844997  30.9349988
 113.2750012  28.3994997  30.0359988 112.7835390  28.3129425  30.7486883
 108.8460012  29.0214997  23.5039988 108.1140012  29.2494997  24.0769988
 109.2940012  28.3074997  23.9589988 108.8063095  28.9562571  23.6439119
 108.7440012  27.1954997  32.5709988 108.8240012  27.9584997  33.1429988
 108.1420012  27.4744997  31.8809988 108.6735756  27.3377134  32.5560589
 100.4920012  29.6514997  25.3859988 100.1610012  29.2814997  24.5679988
 101.0800012  28.9814997  25.7329988 100.5261873  29.5101156  25.3208102
 101.8580012  33.0794997  28.0679988 101.7640012  32.5014997  27.3109988
 102.5880012  32.7084997  28.5639988 101.9437981  32.9502390  28.0314165
 100.8580012  28.4204997  29.0199988 101.4240012  28.5414997  28.2569988
 101.1770012  29.0574997  29.6589988 100.9785786  28.5231884  29.0020040
 107.1670012  33.9234997  29.7539988 106.9270012  34.5854997  30.4019988
 106.9690012  33.0894997  30.1789988 107.1073808  33.9013134  29.9001524
 101.7380012  32.8194997  33.7369988 101.4270012  33.6014997  34.1919988
 101.0880012  32.6664997  33.0509988 101.6075558  32.9059105  33.7065871
 107.7170012  28.1834997  21.1889988 108.2970012  28.3334997  21.9359988
 108.1310012  28.6544997  20.4659988 107.8522830  28.2676841  21.1934134
  98.6580012  29.0174997  32.9659988  98.7290012  29.6684997  33.6639988
  97.7680012  29.1204997  32.6309988  98.5473117  29.1205936  33.0162700
 105.4440012  34.9204997  24.6239988 105.9180012  35.2154997  25.4019988
 104.8810012  35.6584997  24.3909988 105.4327653  35.0606932  24.6990136
  99.9780012  34.8914997  34.4999988  99.9850012  34.7554997  33.5529988
  99.0620012  34.7734997  34.7519988  99.8551714  34.8569430  34.4044666
 111.4160012  19.9334997  21.0019988 110.5160012  20.0724997  21.2969988
 111.6680012  20.7644997  20.5999988 111.3268702  20.0649074  20.9880205
  99.4820012  28.7214997  22.9759988  99.1900012  29.4894997  22.4849988
  98.8080012  28.0614997  22.8129988  99.3509081  28.7374406  22.8867340
 112.6050012  34.2994997  19.3779988 112.6790012  35.2384997  19.5489988
 113.5110012  33.9944997  19.3219988 112.7375100  34.3866722  19.3938119
  95.5750012  31.0844997  31.7909988  95.0740012  31.0564997  30.9759988
  95.5800012  30.1784997  32.0999988  95.5071526  30.9582278  31.7212872
  95.3250012  33.8644997  28.6749988  96.2710012  33.7204997  28.6559988
  95.2130012  34.6484997  29.2119988  95.4392727  33.9508046  28.7450072
 113.5230012  34.5304997  34.3569988 113.4740012  33.5754997  34.3199988
 112.6960012  34.7984997  34.7579988 113.4044940  34.4358998  34.4061375
 104.5020012  34.1044997  33.2329988 104.5890012  34.9304997  33.7079988
 103.6380012  33.7744997  33.4819988 104.3971964  34.1729878  33.3316549
 104.9160012  37.8764997  23.0389988 104.8410012  37.7554997  22.0929988
 104.9490012  38.8264997  23.1579988 104.9101848  37.9882500  22.9254834
  98.5690012  36.6654997  24.8199988  98.7220012  36.3174997  25.6989988
  97.7190012  36.3094997  24.5649988  98.4748962  36.5696650  24.9058340
 108.0180012  37.0304997  20.0409988 108.3930012  36.2864997  19.5709988
 108.0220012  36.7604997  20.9599988 108.0698915  36.8921486  20.1007824
 107.6870012  36.9564997  22.7909988 106.7510012  37.0564997  22.9689988
 107.9670012  36.2474997  23.3689988 107.5968255  36.8742711  22.8935391
 110.6750012  26.0234997  34.8369988 110.2680012  26.5044997  34.1159988
 110.7160012  25.1184997  34.5289988 110.6248437  25.9669374  34.6966683
  97.8240012  32.4074997  32.8339988  98.0400012  32.0464997  33.6929988
  96.9690012  32.0334997  32.6239988  97.7379292  32.3074111  32.9233386
 100.4430012  20.8774997  28.8289988  99.5810012  20.7904997  28.4219988
 100.4200012  21.7334997  29.2569988 100.3220330  20.9812765  28.8311863
 105.1060012  20.5994997  32.2039988 105.5260012  20.1844997  32.9569988
 104.1730012  20.4214997  32.3209988 105.0373644  20.5185900  32.3229539
 108.4320012  24.3554997  33.0569988 107.9180012  24.2294997  33.8549988
 108.2770012  25.2674997  32.8129988 108.3406852  24.4616132  33.1332158
 109.1950012  29.2164997  18.8189988 109.2370012  28.9934997  17.8889988
 110.0440012  29.6154997  19.0089988 109.3155396  29.2399155  18.7173627
 104.7670012  23.0924997  19.4889988 104.5140012  23.1114997  20.4119988
 104.5110012  22.2204997  19.1879988 104.6977790  22.9772437  19.5746263
 100.5340012  25.8434997  29.9239988  99.8920012  25.8024997  30.6329988
 100.5710012  26.7694997  29.6869988 100.4511324  25.9631559  29.9889824
 100.5310012  26.0644997  24.8359988  99.6380012  25.7234997  24.7779988
 100.9810012  25.6874997  24.0809988 100.4697305  25.9668484  24.7259177
 106.0660012  26.4804997  23.6529988 105.6570012  27.2954997  23.3619988
 106.7870012  26.3404997  23.0389988 106.1074537  26.5732018  23.5301342
 105.1680012  26.6554997  35.1409988 104.6060012  25.9514997  35.4619988
 105.9950012  26.5354997  35.6089988 105.2027095  26.5427883  35.2482330
 107.0710012  25.9264997  26.4669988 106.8760012  26.5314997  25.7519988
 107.2520012  25.0924997  26.0329988 107.0687614  25.8966300  26.3104405
  98.2840012  26.1634997  31.7909988  98.2460012  26.5634997  32.6599988
  97.7930012  25.3464997  31.8819988  98.2124684  26.1078069  31.9221059
 101.6500012  23.5374997  18.5899988 101.2190012  23.0924997  19.3199988
 100.9320012  23.9094997  18.0779988 101.4939438  23.5268940  18.6206799
  94.8920012  23.2794997  25.6419988  95.5230012  23.2504997  26.3609988
  95.3410012  22.8544997  24.9119988  95.0390774  23.2180492  25.6416553
  96.1660012  24.0254997  21.0659988  96.6400012  24.6164997  20.4809988
  95.4490012  24.5564997  21.4129988  96.1339341  24.1780867  21.0328836
 106.3350012  27.5644997  31.1389988 106.6580012  26.9334997  30.4959988
 105.8950012  27.0294997  31.7989988 106.3196895  27.4058441  31.1402850
 103.1120012  23.4914997  25.9229988 102.2010012  23.5484997  26.2109988
 103.6180012  23.4314997  26.7329988 103.0555413  23.4911985  26.0720622
  97.9410012  25.1204997  24.7489988  97.0510012  25.2204997  24.4089988
  98.2370012  24.2784997  24.4029988  97.8592823  25.0203545  24.6557213
 101.5940012  25.1204997  22.4059988 102.5250012  25.2494997  22.5839988
 101.3790012  25.7904997  21.7559988 101.6924247  25.2286565  22.3425747
 107.5170012  22.7264997  29.1869988 106.8410012  22.8574997  29.8509988
 107.0320012  22.5714997  28.3769988 107.3587145  22.7234905  29.1684517
 100.2680012  26.3154997  19.9729988  99.7250012  25.9354997  19.2809988
 101.1010012  26.5094997  19.5439988 100.3064399  26.2898124  19.8204526
 110.8050012  38.3984997  35.4639988 111.0050012  38.8224997  34.6289988
 111.4600012  38.7414997  36.0709988 110.9210051  38.5029648  35.4317836
  98.4030012  30.8724997  35.0719988  99.1350012  31.1264997  35.6329988
  97.6230012  31.0764997  35.5869988  98.3978232  30.9349177  35.2185760
 104.4320012  26.2794997  27.8099988 104.9970012  25.7324997  27.2629988
 104.2850012  25.7574997  28.5979988 104.4892918  26.1342024  27.8418454
  99.4340012  22.4154997  24.2279988  99.1170012  21.5134997  24.1929988
 100.2160012  22.4174997  23.6749988  99.4962284  22.2921628  24.1484783
 103.0590012  24.6674997  30.2239988 102.2230012  25.1214997  30.3339988
 103.5830012  24.9434997  30.9759988 103.0154414  24.7669376  30.3407136
 103.6030012  30.8804997  21.9079988 102.8580012  30.3734997  21.5859988
 103.4690012  30.9294997  22.8549988 103.4828776  30.8176940  21.9918647
 110.7530012  30.0134997  30.6949988 111.3950012  30.4704997  30.1509988
 109.9230012  30.1264997  30.2319988 110.7285963  30.0912704  30.5580177
 107.5010012  23.6944997  20.1079988 106.5620012  23.8064997  19.9559988
 107.7980012  24.5514997  20.4139988 107.4127666  23.8256443  20.1285768
 105.1220012  31.0644997  33.1449988 104.7770012  30.6834997  33.9519988
 104.9220012  31.9984997  33.2169988 105.0478061  31.1385228  33.2650961
 108.2190012  25.5614997  21.7679988 109.1110012  25.4244997  22.0869988
 108.2760012  26.3524997  21.2319988 108.3486285  25.6496660  21.7391690
  98.7280012  30.1754997  27.6779988  99.4730012  30.1734997  27.0769988
  98.8060012  29.3524997  28.1599988  98.8405518  30.0639315  27.6608929
 105.7290012  32.3394997  20.9339988 105.4330012  33.1654997  21.3149988
 105.0260012  31.7194997  21.1299988 105.5934914  32.3688199  21.0126443
  95.7360012  28.6364997  32.9929988  95.9590012  28.2184997  33.8249988
  95.1340012  28.0234997  32.5699988  95.6851759  28.4964668  33.0497022
 102.7520012  28.1534997  35.2059988 102.4560012  27.9874997  34.3109988
 103.6840012  27.9334997  35.1949988 102.8374166  28.1010640  35.0820536
 107.3730012  33.5264997  33.0959988 106.4720012  33.7094997  32.8279988
 107.4070012  33.7854997  34.0169988 107.2543041  33.5865512  33.1838197
 113.1040012  25.7714997  21.4629988 112.5500012  25.3754997  20.7909988
 113.2040012  26.6814997  21.1849988 113.0417059  25.8403586  21.3334401
 113.0670012  31.5714997  34.2999988 112.2160012  31.8094997  33.9329988
 113.6580012  31.5544997  33.5469988 113.0302487  31.6018258  34.1478893
 111.3990012  34.5574997  21.9279988 111.0260012  33.7314997  22.2369988
 111.6770012  34.3744997  21.0309988 111.3855630  34.4197303  21.8489626
 108.5600012  29.3654997  28.9489988 107.6310012  29.1334997  28.9219988
 109.0110012  28.5884997  28.6189988 108.4939216  29.2287238  28.9006917
 101.1030012  33.6934997  25.0819988 101.6300012  34.4664997  24.8819988
 100.2230012  33.9184997  24.7809988 101.0561773  33.8298005  25.0139010
  96.8580012  28.5554997  19.6689988  97.4740012  29.1824997  20.0489988
  95.9960012  28.8714997  19.9409988  96.8257698  28.6839430  19.7577183
 102.5300012  31.3564997  24.6589988 102.2890012  32.2814997  24.6999988
 101.7890012  30.8974997  25.0549988 102.3968409  31.4211421  24.7181377
 103.0450012  35.5054997  30.9739988 103.4070012  36.3604997  30.7399988
 103.5760012  35.2134997  31.7139988 103.1664473  35.5831060  31.0420855
 101.2130012  36.3784997  24.2039988 100.2630012  36.4834997  24.2549988
 101.5650012  37.1984997  24.5489988 101.1304203  36.5038314  24.2576650
 106.5890012  31.6044997  30.6739988 106.1630012  31.3774997  31.5009988
 107.1690012  30.8664997  30.4919988 106.6091868  31.4735299  30.7625830
 108.7920012  32.5334997  19.7479988 109.1450012  32.1534997  20.5529988
 107.8430012  32.4404997  19.8349988 108.7120441  32.4689596  19.8698559
 109.2470012  36.1564997  33.1439988 108.6460012  35.6014997  32.6479988
 109.5290012  36.8234997  32.5179988 109.2028519  36.1706841  32.9914952
 113.2950012  37.0134997  19.9489988 114.0390012  37.5994997  19.8089988
 112.6010012  37.5814997  20.2829988 113.3030292  37.1705582  19.9749961
  97.3700012  23.3894997  32.5509988  96.4770012  23.7284997  32.4829988
  97.2710012  22.5344997  32.9689988  97.2344164  23.3202588  32.5982235
 109.6580012  31.2064997  21.9749988 109.3800012  30.4784997  22.5309988
 110.5850012  31.3254997  22.1799988 109.7453124  31.1228802  22.0788845
  97.0210012  35.1944997  30.9859988  97.2380012  34.2624997  30.9549988
  97.2670012  35.4684997  31.8689988  97.0839549  35.1040636  31.1011763
 102.8830012  33.6454997  18.1949988 103.1220012  32.8974997  17.6479988
 102.6140012  33.2574997  19.0279988 102.8793675  33.4906638  18.2326865
 101.8200012  33.2154997  20.6519988 101.9660012  32.6954997  21.4419988
 101.8170012  34.1224997  20.9579988 101.8395989  33.2668853  20.8016088
  98.2730012  30.4684997  21.1619988  97.5870012  30.8204997  21.7289988
  98.7950012  31.2314997  20.9149988  98.2496852  30.6198578  21.2062118
 106.1040012  23.1304997  31.4409988 106.8030012  23.2044997  32.0909988
 105.7230012  22.2664997  31.5949988 106.1481767  23.0237624  31.5508322
 106.8890012  22.7824997  22.5379988 107.1090012  23.2544997  21.7349988
 107.4470012  23.1774997  23.2079988 106.9944968  22.9004285  22.5187331
 104.5570012  34.9134997  21.4009988 103.7410012  35.4104997  21.4529988
 105.0870012  35.3884997  20.7609988 104.5169161  35.0457722  21.3215956
 104.0890012  24.5104997  23.3729988 104.9010012  25.0154997  23.4189988
 103.8440012  24.3654997  24.2869988 104.1670520  24.5600375  23.5028517
 104.6240012  25.4964997  32.5579988 104.7430012  26.0704997  33.3149988
 105.2800012  24.8084997  32.6719988 104.7289757  25.4821079  32.6770825
 104.9720012  21.5914997  24.3109988 104.6260012  22.2094997  24.9559988
 105.6310012  22.0924997  23.8299988 105.0137826  21.7435802  24.3340971
 101.8960012  35.9574997  21.3829988 102.0560012  36.7564997  20.8819988
 101.6980012  36.2634997  22.2679988 101.8911649  36.1084469  21.4339815
 100.6300012  22.6544997  20.9979988 100.5470012  23.5434997  21.3449988
 101.5200012  22.3894997  21.2299988 100.7389469  22.7401430  21.0767626
 110.8290012  23.4034997  33.3929988 109.9120012  23.6664997  33.3049988
 111.1640012  23.4004997  32.4959988 110.7489900  23.4390224  33.2597919
 109.4310012  27.1544997  27.4879988 108.6330012  26.7394997  27.1599988
 109.8760012  26.4634997  27.9789988 109.3819885  27.0043543  27.5094889
  98.8890012  33.0824997  20.0589988  99.4810012  33.7814997  20.3349988
  99.3480012  32.6494997  19.3389988  99.0321142  33.1197049  19.9994830
  97.2050012  25.7464997  19.1749988  97.1600012  26.6854997  19.3529988
  96.3170012  25.5104997  18.9049988  97.0788574  25.8431892  19.1628912
 110.5170012  36.4104997  29.1109988 110.3620012  37.0884997  28.4539988
 111.4500012  36.4824997  29.3139988 110.6218500  36.5130170  29.0485119
  98.0130012  20.5284997  27.8479988  97.7840012  20.5874997  26.9199988
  97.5700012  19.7364997  28.1539988  97.9218530  20.4295753  27.7624786
  96.9430012  34.4684997  24.0079988  96.1110012  34.9414997  24.0359988
  97.4890012  34.9784997  23.4099988  96.9029739  34.6021871  23.9309716
  96.2310012  37.0814997  35.3379988  96.7720012  36.8644997  36.0979988
  95.7500012  36.2754997  35.1489988  96.2399345  36.9429514  35.4163076
 100.8290012  36.0004997  36.9589988 101.5960012  35.5414997  37.2999988
 100.8070012  35.7744997  36.0289988 100.9311434  35.9070409  36.8800043
 104.9210012  35.5084997  18.3339988 104.2770012  34.8774997  18.6549988
 105.6830012  34.9774997  18.1019988 104.9358077  35.3502920  18.3466011
 107.4060012  34.3804997  35.6879988 107.0550012  33.5244997  35.9309988
 108.1320012  34.5234997  36.2949988 107.4560769  34.2825636  35.8033619
 109.5250012  35.3254997  18.5679988 109.8080012  34.5314997  19.0199988
 110.2650012  35.5584997  18.0069988 109.6637486  35.2482803  18.5540698
  96.1380012  30.8914997  36.2929988  96.2820012  29.9894997  36.0059988
  95.3660012  31.1774997  35.8049988  96.0533322  30.8068261  36.1877881
 100.4800012  31.2354997  18.4249988 100.5440012  30.4414997  18.9559988
 101.1330012  31.1164997  17.7349988 100.5770241  31.1107148  18.4044317
 102.7940012  30.8614997  35.7249988 102.4650012  31.1324997  34.8679988
 102.9460012  29.9204997  35.6379988 102.7694809  30.7713862  35.5958244
 105.8320012  32.2824997  18.1609988 105.5630012  32.4624997  19.0619988
 105.6260012  31.3564997  18.0299988 105.7673825  32.1820152  18.2665214
 108.5280012  30.7774997  33.1089988 109.2740012  31.3654997  32.9889988
 107.7710012  31.3594997  33.1719988 108.5277554  30.9367011  33.1010907
  96.9710012  28.0914997  35.7129988  97.3790012  27.2344997  35.5919988
  96.7110012  28.1064997  36.6339988  96.9917568  27.9760807  35.8209588
 101.6290012  29.2074997  20.7309988 101.1690012  28.7234997  21.4169988
 101.8840012  28.5394997  20.0949988 101.6004902  29.0508731  20.7389334
 100.9180012  27.1004997  33.0869988 100.3000012  27.7754997  33.3669988
 101.2620012  27.4214997  32.2539988 100.8799615  27.2362721  33.0126581
 102.7000012  27.4504997  18.9929988 102.5200012  27.2964997  18.0659988
 103.6500012  27.5584997  19.0379988 102.8037776  27.4440175  18.8721843
 105.9380012  29.5724997  36.3639988 106.8910012  29.6554997  36.3369988
 105.7770012  28.8604997  36.9839988 106.0466426  29.4876746  36.4440579
 112.0900012  29.8054997  18.4389988 111.8160012  29.3804997  17.6259988
 112.1290012  30.7364997  18.2219988 112.0577699  29.8732484  18.2983610
 101.2570012  24.4554997  34.1689988 101.4070012  23.7264997  33.5669988
 101.2600012  25.2324997  33.6099988 101.2779302  24.4607851  34.0110692
 101.6700012  22.8254997  31.6619988 102.2060012  23.2764997  31.0099988
 100.8180012  22.7174997  31.2389988 101.6282178  22.8726390  31.5155756
 103.2520012  28.2644997  31.9009988 104.0020012  28.1084997  31.3279988
 102.9130012  29.1164997  31.6259988 103.3088921  28.3582968  31.7853561
 107.6670012  26.0794997  36.9299988 107.8600012  25.1484997  36.8179988
 108.5250012  26.5044997  36.9199988 107.8093020  26.0096389  36.9133361
 108.9840012  28.8684997  35.0069988 108.7030012  29.5774997  34.4299988
 109.9270012  28.7954997  34.8559988 109.0729027  28.9557646  34.9075551
  99.7360012  25.6534997  36.0809988  98.9690012  25.1214997  35.8709988
 100.4150012  25.3434997  35.4809988  99.7227022  25.5387506  35.9711648
 102.4760012  20.2814997  32.0929988 102.3770012  21.2284997  31.9879988
 101.7330012  19.9094997  31.6179988 102.3620564  20.3605902  32.0144560
 103.7400012  24.6034997  35.6569988 103.5040012  24.3834997  36.5589988
 102.9560012  24.3964997  35.1469988 103.6018628  24.5454760  35.7113932
 106.4550012  23.7304997  34.7329988 105.5080012  23.7624997  34.8649988
 106.7680012  23.1054997  35.3859988 106.3675475  23.6503207  34.8394455
 108.0890012  22.3644997  36.7379988 107.9930012  21.4124997  36.7319988
 107.7680012  22.6334997  37.5979988 108.0324070  22.2704035  36.8535441
  97.9160012  23.5744997  35.7849988  98.1280012  22.8674997  35.1749988
  97.8050012  23.1364997  36.6289988  97.9299721  23.4187084  35.8156843
 102.6970012  19.5754997  34.7649988 103.4090012  18.9354997  34.7509988
 102.5960012  19.8424997  33.8509988 102.7807939  19.5239938  34.6395650
 103.0510012  21.2584997  36.8179988 102.9190012  20.7824997  35.9979988
 102.4520012  22.0024997  36.7629988 102.9519071  21.2939618  36.6982886
 102.5970012  38.1414997  19.9949988 103.5300012  38.2994997  20.1379988
 102.3330012  38.8164997  19.3699988 102.6889510  38.2543611  19.9300741
  96.1660012  32.7774997  19.4769988  97.0800012  32.8564997  19.7509988
  96.1730012  32.0904997  18.8109988  96.2921131  32.6953961  19.4244393
  94.8150012  38.1704997  24.5549988  94.1680012  37.7084997  24.0219988
  95.1690012  37.4984997  25.1369988  94.7743849  38.0164723  24.5607959
  95.6850012  36.2514997  26.3589988  95.3500012  35.3714997  26.5309988
  95.9070012  36.5964997  27.2239988  95.6691783  36.1777501  26.4994208
 113.2330012  37.0604997  29.3399988 113.2120012  37.2454997  30.2789988
 113.9240012  37.6294997  28.9989988 113.3234618  37.1626606  29.4223864
 112.7970012  36.6284997  32.2619988 112.3090012  35.8924997  31.8909988
 113.3460012  36.2344997  32.9399988 112.8044872  36.4746249  32.3029160
 111.2470012  32.4174997  36.8999988 110.3810012  32.3124997  37.2939988
 111.6240012  33.1764997  37.3459988 111.1793308  32.5056900  37.0142393
 112.5480012  30.6744997  22.4139988 113.3980012  31.0954997  22.5409988
 112.5540012  29.9344997  23.0209988 112.6651372  30.6320803  22.5134344
 112.9430012  28.7274997  24.2379988 112.2160012  28.2484997  24.6349988
 113.5240012  28.9334997  24.9699988 112.9219375  28.6897090  24.3914129
 112.7020012  31.5124997  29.1849988 113.5350012  31.1344997  28.9049988
 112.8140012  32.4554997  29.0659988 112.8312647  31.5882218  29.1305487
 111.1880012  34.3904997  31.4919988 110.5410012  34.7154997  32.1179988
 110.6710012  33.9504997  30.8179988 111.0294029  34.3755004  31.4865827
 113.2110012  28.6284997  20.6289988 112.6890012  28.9854997  19.9099988
 113.1780012  29.3034997  21.3069988 113.1351634  28.7685413  20.6223145
 111.5600012  25.8684997  19.1799988 111.6560012  26.5354997  18.4989988
 111.4200012  25.0524997  18.6979988 111.5542135  25.8494500  19.0218491
 110.7290012  27.2484997  24.8009988 110.5790012  26.3034997  24.7799988
 110.3760012  27.5294997  25.6439988 110.6606625  27.1570441  24.9122346
  95.7650012  29.3264997  28.8109988  95.9490012  29.2444997  27.8749988
  96.6140012  29.2024997  29.2349988  95.9050139  29.2985003  28.7401455
 111.5860012  29.2184997  34.4389988 112.1690012  28.4844997  34.6309988
 112.1500012  29.9904997  34.4859988 111.7419769  29.2224227  34.4716159
 113.0820012  27.1214997  35.1239988 112.2190012  26.7424997  34.9579988
 113.6870012  26.3824997  35.0499988 113.0455979  26.9698023  35.0912817
 110.8070012  23.2764997  18.2969988 111.4180012  22.9054997  18.9339988
 109.9710012  22.8554997  18.4929988 110.7775032  23.1687554  18.4107035
 110.4400012  24.8314997  23.2629988 110.7200012  23.9244997  23.3869988
 111.1990012  25.2654997  22.8739988 110.5809277  24.7660942  23.2273682
 111.0520012  25.4124997  28.6989988 111.9850012  25.6244997  28.6649988
 110.8170012  25.5144997  29.6209988 111.1478036  25.4552769  28.8189976
 111.0810012  26.1494997  31.4749988 110.2380012  26.4174997  31.8409988
 111.5230012  26.9714997  31.2639988 111.0254158  26.2973291  31.4965491
  95.3620012  24.5974997  34.9519988  96.2820012  24.4754997  35.1879988
  94.9130012  23.8474997  35.3409988  95.4271580  24.4793727  35.0369006
 113.3640012  20.1294997  36.8279988 113.7140012  19.4754997  36.2229988
 113.5110012  20.9664997  36.3889988 113.4318419  20.1531591  36.6857118
 111.0530012  22.0944997  23.3109988 111.2360012  21.6454997  24.1369988
 110.4540012  21.5094997  22.8479988 110.9970202  21.9539975  23.3613275
  96.5830012  22.9094997  27.8429988  97.0290012  22.1174997  28.1449988
  97.0500012  23.6254997  28.2739988  96.7070172  22.8980624  27.9424820
  94.8870012  25.9084997  28.9119988  95.3790012  25.6874997  28.1209988
  95.2500012  26.7494997  29.1929988  95.0033126  25.9918357  28.8417531
 112.8840012  22.2384997  35.1779988 111.9660012  22.5094997  35.1419988
 113.0070012  21.7034997  34.3929988 112.7751066  22.2032892  35.0670487
 112.9200012  22.1614997  19.8389988 113.3320012  21.4404997  19.3639988
 113.6020012  22.8314997  19.8979988 113.0685885  22.1532368  19.7818915
  95.2010012  22.1664997  22.9659988  94.2760012  22.3754997  22.8369988
  95.6550012  22.6504997  22.2769988  95.1357368  22.2605993  22.8551226
 109.9720012  37.1504997  24.9119988 110.6240012  36.8034997  24.3039988
 110.4820012  37.6394997  25.5579988 110.1302637  37.1690597  24.9160236
  95.1650012  20.9044997  31.3109988  94.5000012  20.6584997  31.9539988
  94.7220012  21.5264997  30.7329988  95.0140956  20.9548632  31.3209352
  97.3570012  34.0794997  35.4549988  96.5360012  34.2544997  34.9949988
  97.1040012  34.0064997  36.3759988  97.2106164  34.0935622  35.5164923
 100.3110012  35.0544997  31.7139988  99.8860012  35.8634997  31.4309988
 101.2150012  35.1394997  31.4119988 100.3750271  35.1768469  31.6343776
 104.6220012  36.4534997  34.6729988 104.8070012  36.1194997  35.5509988
 105.4680012  36.7624997  34.3509988 104.7617539  36.4496047  34.7495605
 106.9670012  37.7394997  33.9169988 107.6440012  37.1064997  33.6769988
 107.2890012  38.1404997  34.7239988 107.1031637  37.7071154  33.9932793
 111.8840012  20.3284997  32.9969988 111.0720012  20.6534997  32.6089988
 112.1170012  19.5684997  32.4639988 111.8043423  20.2702436  32.8718253
  97.7130012  38.3104997  31.7609988  96.9920012  38.7504997  31.3099988
  97.3470012  38.0594997  32.6099988  97.5649804  38.3367698  31.8139840
 100.1800012  37.9104997  30.7909988  99.3150012  37.9824997  31.1949988
 100.1250012  38.4574997  30.0069988 100.0542085  37.9942685  30.7403362
 104.8900012  37.7984997  29.9659988 104.4340012  38.3274997  29.3119988
 105.0530012  38.4014997  30.6919988 104.8495585  37.9524468  29.9745062
 107.2180012  36.6764997  30.9109988 106.3130012  36.8414997  30.6459988
 107.6470012  37.5294997  30.8459988 107.1520799  36.8144483  30.8659182
 109.8220012  38.2464997  31.2059988 109.6400012  39.1624997  30.9959988
 109.9990012  37.8364997  30.3599988 109.8210210  38.3164822  31.0627885
  97.1270012  36.9334997  28.6709988  97.1090012  36.5084997  29.5289988
  97.9320012  36.6154997  28.2629988  97.2333875  36.8323812  28.7331655
  99.2690012  35.6434997  27.3259988  99.0500012  34.7274997  27.4959988
 100.0930012  35.7834997  27.7919988  99.3504420  35.5370520  27.4122774
 101.8060012  36.1134997  28.1749988 102.0190012  35.2254997  27.8879988
 101.8700012  36.0794997  29.1289988 101.8438232  35.9873102  28.2647397
 105.3140012  21.7774997  27.3189988 104.6400012  21.1484997  27.5749988
 105.8780012  21.2934997  26.7159988 105.2979230  21.6258744  27.2725340
 110.4570012  19.8854997  27.4319988 111.0610012  20.4324997  26.9299988
 109.5870012  20.2044997  27.1919988 110.4221241  20.0035806  27.3307654
 112.1840012  21.0234997  25.7649988 112.7960012  20.5094997  25.2389988
 112.5660012  21.9014997  25.7889988 112.3194540  21.0717140  25.6961830
  97.6410012  20.4114997  25.1409988  96.8640012  20.1774997  24.6339988
  98.1710012  19.6144997  25.1499988  97.6062330  20.2716988  25.0727742
  96.4770012  20.2094997  20.9449988  96.9160012  20.8204997  20.3529988
  95.8440012  20.7474997  21.4189988  96.4514514  20.3659257  20.9280930
 102.2200012  20.3384997  24.9549988 103.0950012  20.7264997  24.9249988
 102.0840012  20.1234997  25.8769988 102.3213695  20.3625184  25.0756440
 107.7770012  20.3684997  26.6039988 107.8530012  20.4634997  25.6539988
 107.5020012  19.4604997  26.7329988 107.7502321  20.2587867  26.4915079
 109.1300012  20.3944997  22.2959988 108.4280012  21.0094997  22.0869988
 108.6860012  19.5564997  22.4269988 108.9736330  20.3655783  22.2850328
  96.3780012  36.1574997  21.8429988  95.6930012  36.1194997  21.1749988
  96.3820012  37.0704997  22.1309988  96.2848193  36.2757016  21.7905284
  98.3380012  22.1254997  19.3869988  98.8300012  21.4954997  18.8599988
  98.9620012  22.4214997  20.0509988  98.4895446  22.0793199  19.4045980
 103.3640012  22.4184997  21.8439988 103.5420012  21.7724997  22.5269988
 103.3110012  23.2524997  22.3119988 103.3811829  22.4427985  22.0005940
 105.2430012  37.3674997  20.2399988 106.1090012  37.7334997  20.0619988
 104.9960012  36.9274997  19.4259988 105.3282392  37.3581756  20.1056289
 111.9520012  36.9304997  22.9189988 111.7570012  36.1824997  22.3539988
 111.9130012  37.6884997  22.3359988 111.9200380  36.9306099  22.7628384
  97.5990012  20.9254997  34.6589988  97.2330012  20.1604997  35.1019988
  98.5120012  20.9544997  34.9459988  97.6722790  20.8247224  34.7584070
  99.5720012  20.2764997  36.1949988 100.4700012  20.0024997  36.0099988
  99.1850012  19.5334997  36.6589988  99.6426612  20.1385914  36.2323643
  98.1960012  37.0774997  18.8679988  97.9290012  37.3644997  19.7409988
  98.9680012  36.5314997  19.0199988  98.2637488  37.0430294  19.0081050
 107.9930012  19.6084997  36.3769988 108.0700012  19.1824997  37.2309988
 108.8870012  19.6224997  36.0339988 108.1243428  19.5520879  36.4475310
 111.1690012  35.6814997  35.0689988 110.3870012  35.4954997  34.5499988
 111.0970012  36.6104997  35.2869988 111.0521777  35.7816492  35.0274048
 125.5750012  29.5674997  25.0999988 125.6640012  30.5114997  24.9679988
 124.9370012  29.2924997  24.4419988 125.5009081  29.6594830  24.9929614
 124.5080012  28.8224997  28.5189988 124.4700012  28.1764997  29.2239988
 124.1860012  28.3564997  27.7479988 124.4592333  28.6709408  28.5112978
 116.8770012  28.4374997  30.1119988 116.9180012  27.8114997  30.8349988
 117.5800012  29.0614997  30.2939988 116.9776363  28.4361196  30.2356044
 128.2140012  31.7614997  26.8199988 127.7740012  31.0414997  27.2709988
 128.2010012  32.4824997  27.4499988 128.1520226  31.7603731  26.9668494
 117.8000012  32.8874997  28.6469988 117.4310012  32.0854997  28.2769988
 118.7410012  32.7184997  28.6929988 117.8767289  32.7550153  28.6026316
 114.4100012  26.5474997  24.0399988 113.9630012  27.3934997  24.0209988
 113.8490012  25.9674997  23.5239988 114.2729900  26.5849916  23.9676801
 115.1210012  28.7094997  26.1659988 115.3340012  27.9394997  26.6929988
 115.8590012  28.7984997  25.5619988 115.2498496  28.6161394  26.1565300
 125.3260012  36.8664997  27.0329988 125.9460012  36.1894997  26.7589988
 125.1180012  36.6484997  27.9409988 125.3826904  36.7443870  27.1183365
 122.8980012  31.2554997  28.9249988 123.2020012  30.5694997  28.3299988
 123.6190012  31.3734997  29.5429988 123.0370671  31.1776305  28.9271816
 131.5610012  22.8564997  29.7859988 131.6100012  23.4664997  30.5219988
 131.9860012  23.3174997  29.0629988 131.6251824  23.0023741  29.7890205
 126.0390012  25.6494997  29.2529988 126.1810012  24.7034997  29.2729988
 125.9320012  25.8564997  28.3239988 126.0439864  25.5479534  29.1302339
 119.1930012  23.7504997  26.5249988 119.2370012  24.6104997  26.1069988
 118.7360012  23.1984997  25.8909988 119.1372185  23.7935799  26.3820299
 126.9160012  23.8814997  24.9259988 127.5620012  23.5524997  25.5509988
 127.4260012  24.3994997  24.3029988 127.0734264  23.9064611  24.9273862
 115.8140012  26.1474997  27.2869988 116.4670012  25.5974997  27.7189988
 115.8380012  25.8734997  26.3699988 115.9066683  26.0351466  27.2222123
 120.9700012  27.6974997  26.5019988 121.5860012  27.1714997  27.0119988
 120.3840012  27.0574997  26.0989988 120.9750810  27.5389208  26.5173173
 131.9520012  24.3344997  32.0219988 131.2640012  24.9924997  31.9259988
 131.9680012  24.1374997  32.9579988 131.8598525  24.3980462  32.1354808
 118.0040012  22.6684997  30.5989988 117.7850012  23.1984997  29.8329988
 117.3360012  22.8954997  31.2459988 117.8837600  22.7716906  30.5816379
 125.3730012  32.1684997  24.1429988 125.0770012  31.8464997  23.2919988
 125.0480012  33.0684997  24.1839988 125.2886371  32.2460215  24.0321801
 120.5730012  30.3444997  30.8859988 119.8330012  30.9424997  30.9899988
 121.2870012  30.8984997  30.5709988 120.5682237  30.5012831  30.8576465
 128.6800012  23.1724997  26.9059988 128.4640012  22.4064997  27.4389988
 129.3350012  23.6444997  27.4189988 128.7390632  23.1315889  27.0482861
 117.5970012  24.5604997  28.5509988 118.2110012  25.1934997  28.9249988
 118.1090012  24.0884997  27.8949988 117.7502296  24.5832370  28.5134252
 118.9800012  32.3084997  31.6739988 118.9750012  33.1884997  31.2959988
 118.1270012  32.2254997  32.0989988 118.8639464  32.4176117  31.6797907
 115.1010012  31.9794997  22.4559988 114.8290012  32.2084997  21.5669988
 115.1470012  32.8174997  22.9159988 115.0700094  32.1241213  22.3965697
 128.7260012  33.6014997  29.1679988 127.7850012  33.6594997  29.3299988
 129.0030012  34.5074997  29.0309988 128.6344679  33.7319443  29.1716815
 129.0270012  21.8874997  30.5859988 128.2910012  22.4984997  30.5479988
 129.7100012  22.3024997  30.0589988 129.0186541  22.0271374  30.5095832
 122.0300012  19.9744997  28.0519988 121.9130012  19.0254997  27.9969988
 121.1750012  20.3064997  28.3249988 121.8983733  19.8895409  28.0813897
 126.9780012  35.3824997  25.7939988 127.4040012  34.6754997  25.3089988
 127.2950012  36.1834997  25.3769988 127.0791019  35.3940994  25.6713130
 128.1380012  33.2834997  24.3019988 127.8800012  32.5934997  23.6909988
 128.2090012  32.8404997  25.1479988 128.1122856  33.1292124  24.3326885
 129.8240012  31.8494997  32.7799988 129.9640012  31.2584997  32.0399988
 129.9910012  32.7224997  32.4229988 129.8656778  31.8866426  32.6306965
 124.2970012  28.8114997  22.5519988 123.5850012  29.3464997  22.1999988
 124.9880012  28.8674997  21.8919988 124.2930132  28.8922543  22.4146289
 124.3500012  27.2694997  19.5909988 125.0510012  27.2914997  20.2419988
 124.6530012  26.6414997  18.9349988 124.4867830  27.1876566  19.5913711
 131.6660012  28.1894997  30.8459988 131.0130012  28.8844997  30.9349988
 132.1310012  28.3994997  30.0359988 131.6395390  28.3129425  30.7486883
 127.7020012  29.0214997  23.5039988 126.9700012  29.2494997  24.0769988
 128.1500012  28.3074997  23.9589988 127.6623095  28.9562571  23.6439119
 127.6000012  27.1954997  32.5709988 127.6800012  27.9584997  33.1429988
 126.9980012  27.4744997  31.8809988 127.5295756  27.3377134  32.5560589
 119.3480012  29.6514997  25.3859988 119.0170012  29.2814997  24.5679988
 119.9360012  28.9814997  25.7329988 119.3821873  29.5101156  25.3208102
 120.7140012  33.0794997  28.0679988 120.6200012  32.5014997  27.3109988
 121.4440012  32.7084997  28.5639988 120.7997981  32.9502390  28.0314165
 119.7140012  28.4204997  29.0199988 120.2800012  28.5414997  28.2569988
 120.0330012  29.0574997  29.6589988 119.8345786  28.5231884  29.0020040
 126.0230012  33.9234997  29.7539988 125.7830012  34.5854997  30.4019988
 125.8250012  33.0894997  30.1789988 125.9633808  33.9013134  29.9001524
 120.5940012  32.8194997  33.7369988 120.2830012  33.6014997  34.1919988
 119.9440012  32.6664997  33.0509988 120.4635558  32.9059105  33.7065871
 126.5730012  28.1834997  21.1889988 127.1530012  28.3334997  21.9359988
 126.9870012  28.6544997  20.4659988 126.7082830  28.2676841  21.1934134
 117.5140012  29.0174997  32.9659988 117.5850012  29.6684997  33.6639988
 116.6240012  29.1204997  32.6309988 117.4033117  29.1205936  33.0162700
 124.3000012  34.9204997  24.6239988 124.7740012  35.2154997  25.4019988
 123.7370012  35.6584997  24.3909988 124.2887653  35.0606932  24.6990136
 118.8340012  34.8914997  34.4999988 118.8410012  34.7554997  33.5529988
 117.9180012  34.7734997  34.7519988 118.7111714  34.8569430  34.4044666
 130.2720012  19.9334997  21.0019988 129.3720012  20.0724997  21.2969988
 130.5240012  20.7644997  20.5999988 130.1828702  20.0649074  20.9880205
 118.3380012  28.7214997  22.9759988 118.0460012  29.4894997  22.4849988
 117.6640012  28.0614997  22.8129988 118.2069081  28.7374406  22.8867340
 131.4610012  34.2994997  19.3779988 131.5350012  35.2384997  19.5489988
 132.3670012  33.9944997  19.3219988 131.5935100  34.3866722  19.3938119
 114.4310012  31.0844997  31.7909988 113.9300012  31.0564997  30.9759988
 114.4360012  30.1784997  32.0999988 114.3631526  30.9582278  31.7212872
 114.1810012  33.8644997  28.6749988 115.1270012  33.7204997  28.6559988
 114.0690012  34.6484997  29.2119988 114.2952727  33.9508046  28.7450072
 132.3790012  34.5304997  34.3569988 132.3300012  33.5754997  34.3199988
 131.5520012  34.7984997  34.7579988 132.2604940  34.4358998  34.4061375
 123.3580012  34.1044997  33.2329988 123.4450012  34.9304997  33.7079988
 122.4940012  33.7744997  33.4819988 123.2531964  34.1729878  33.3316549
 123.7720012  37.8764997  23.0389988 123.6970012  37.7554997  22.0929988
 123.8050012  38.8264997  23.1579988 123.7661848  37.9882500  22.9254834
 117.4250012  36.6654997  24.8199988 117.5780012  36.3174997  25.6989988
 116.5750012  36.3094997  24.5649988 117.3308962  36.5696650  24.9058340
 126.8740012  37.0304997  20.0409988 127.2490012  36.2864997  19.5709988
 126.8780012  36.7604997  20.9599988 126.9258915  36.8921486  20.1007824
 126.5430012  36.9564997  22.7909988 125.6070012  37.0564997  22.9689988
 126.8230012  36.2474997  23.3689988 126.4528255  36.8742711  22.8935391
 129.5310012  26.0234997  34.8369988 129.1240012  26.5044997  34.1159988
 129.5720012  25.1184997  34.5289988 129.4808437  25.9669374  34.6966683
 116.6800012  32.4074997  32.8339988 116.8960012  32.0464997  33.6929988
 115.8250012  32.0334997  32.6239988 116.5939292  32.3074111  32.9233386
 119.2990012  20.8774997  28.8289988 118.4370012  20.7904997  28.4219988
 119.2760012  21.7334997  29.2569988 119.1780330  20.9812765  28.8311863
 123.9620012  20.5994997  32.2039988 124.3820012  20.1844997  32.9569988
 123.0290012  20.4214997  32.3209988 123.8933644  20.5185900  32.3229539
 127.2880012  24.3554997  33.0569988 126.7740012  24.2294997  33.8549988
 127.1330012  25.2674997  32.8129988 127.1966852  24.4616132  33.1332158
 128.0510012  29.2164997  18.8189988 128.0930012  28.9934997  17.8889988
 128.9000012  29.6154997  19.0089988 128.1715396  29.2399155  18.7173627
 123.6230012  23.0924997  19.4889988 123.3700012  23.1114997  20.4119988
 123.3670012  22.2204997  19.1879988 123.5537790  22.9772437  19.5746263
 119.3900012  25.8434997  29.9239988 118.7480012  25.8024997  30.6329988
 119.4270012  26.7694997  29.6869988 119.3071324  25.9631559  29.9889824
 119.3870012  26.0644997  24.8359988 118.4940012  25.7234997  24.7779988
 119.8370012  25.6874997  24.0809988 119.3257305  25.9668484  24.7259177
 124.9220012  26.4804997  23.6529988 124.5130012  27.2954997  23.3619988
 125.6430012  26.3404997  23.0389988 124.9634537  26.5732018  23.5301342
 124.0240012  26.6554997  35.1409988 123.4620012  25.9514997  35.4619988
 124.8510012  26.5354997  35.6089988 124.0587095  26.5427883  35.2482330
 125.9270012  25.9264997  26.4669988 125.7320012  26.5314997  25.7519988
 126.1080012  25.0924997  26.0329988 125.9247614  25.8966300  26.3104405
 117.1400012  26.1634997  31.7909988 117.1020012  26.5634997  32.6599988
 116.6490012  25.3464997  31.8819988 117.0684684  26.1078069  31.9221059
 120.5060012  23.5374997  18.5899988 120.0750012  23.0924997  19.3199988
 119.7880012  23.9094997  18.0779988 120.3499438  23.5268940  18.6206799
 113.7480012  23.2794997  25.6419988 114.3790012  23.2504997  26.3609988
 114.1970012  22.8544997  24.9119988 113.8950774  23.2180492  25.6416553
 115.0220012  24.0254997  21.0659988 115.4960012  24.6164997  20.4809988
 114.3050012  24.5564997  21.4129988 114.9899341  24.1780867  21.0328836
 125.1910012  27.5644997  31.1389988 125.5140012  26.9334997  30.4959988
 124.7510012  27.0294997  31.7989988 125.1756895  27.4058441  31.1402850
 121.9680012  23.4914997  25.9229988 121.0570012  23.5484997  26.2109988
 122.4740012  23.4314997  26.7329988 121.9115413  23.4911985  26.0720622
 116.7970012  25.1204997  24.7489988 115.9070012  25.2204997  24.4089988
 117.0930012  24.2784997  24.4029988 116.7152823  25.0203545  24.6557213
 120.4500012  25.1204997  22.4059988 121.3810012  25.2494997  22.5839988
 120.2350012  25.7904997  21.7559988 120.5484247  25.2286565  22.3425747
 126.3730012  22.7264997  29.1869988 125.6970012  22.8574997  29.8509988
 125.8880012  22.5714997  28.3769988 126.2147145  22.7234905  29.1684517
 119.1240012  26.3154997  19.9729988 118.5810012  25.9354997  19.2809988
 119.9570012  26.5094997  19.5439988 119.1624399  26.2898124  19.8204526
 129.6610012  38.3984997  35.4639988 129.8610012  38.8224997  34.6289988
 130.3160012  38.7414997  36.0709988 129.7770051  38.5029648  35.4317836
 117.2590012  30.8724997  35.0719988 117.9910012  31.1264997  35.6329988
 116.4790012  31.0764997  35.5869988 117.2538232  30.9349177  35.2185760
 123.2880012  26.2794997  27.8099988 123.8530012  25.7324997  27.2629988
 123.1410012  25.7574997  28.5979988 123.3452918  26.1342024  27.8418454
 118.2900012  22.4154997  24.2279988 117.9730012  21.5134997  24.1929988
 119.0720012  22.4174997  23.6749988 118.3522284  22.2921628  24.1484783
 121.9150012  24.6674997  30.2239988 121.0790012  25.1214997  30.3339988
 122.4390012  24.9434997  30.9759988 121.8714414  24.7669376  30.3407136
 122.4590012  30.8804997  21.9079988 121.7140012  30.3734997  21.5859988
 122.3250012  30.9294997  22.8549988 122.3388776  30.8176940  21.9918647
 129.6090012  30.0134997  30.6949988 130.2510012  30.4704997  30.1509988
 128.7790012  30.1264997  30.2319988 129.5845963  30.0912704  30.5580177
 126.3570012  23.6944997  20.1079988 125.4180012  23.8064997  19.9559988
 126.6540012  24.5514997  20.4139988 126.2687666  23.8256443  20.1285768
 123.9780012  31.0644997  33.1449988 123.6330012  30.6834997  33.9519988
 123.7780012  31.9984997  33.2169988 123.9038061  31.1385228  33.2650961
 127.0750012  25.5614997  21.7679988 127.9670012  25.4244997  22.0869988
 127.1320012  26.3524997  21.2319988 127.2046285  25.6496660  21.7391691
 117.5840012  30.1754997  27.6779988 118.3290012  30.1734997  27.0769988
 117.6620012  29.3524997  28.1599988 117.6965518  30.0639315  27.6608929
 124.5850012  32.3394997  20.9339988 124.2890012  33.1654997  21.3149988
 123.8820012  31.7194997  21.1299988 124.4494914  32.3688199  21.0126443
 114.5920012  28.6364997  32.9929988 114.8150012  28.2184997  33.8249988
 113.9900012  28.0234997  32.5699988 114.5411759  28.4964668  33.0497022
 121.6080012  28.1534997  35.2059988 121.3120012  27.9874997  34.3109988
 122.5400012  27.9334997  35.1949988 121.6934166  28.1010640  35.0820536
 126.2290012  33.5264997  33.0959988 125.3280012  33.7094997  32.8279988
 126.2630012  33.7854997  34.0169988 126.1103041  33.5865512  33.1838197
 131.9600012  25.7714997  21.4629988 131.4060012  25.3754997  20.7909988
 132.0600012  26.6814997  21.1849988 131.8977059  25.8403586  21.3334401
 131.9230012  31.5714997  34.2999988 131.0720012  31.8094997  33.9329988
 132.5140012  31.5544997  33.5469988 131.8862487  31.6018258  34.1478893
 130.2550012  34.5574997  21.9279988 129.8820012  33.7314997  22.2369988
 130.5330012  34.3744997  21.0309988 130.2415630  34.4197303  21.8489626
 127.4160012  29.3654997  28.9489988 126.4870012  29.1334997  28.9219988
 127.8670012  28.5884997  28.6189988 127.3499216  29.2287238  28.9006917
 119.9590012  33.6934997  25.0819988 120.4860012  34.4664997  24.8819988
 119.0790012  33.9184997  24.7809988 119.9121773  33.8298005  25.0139010
 115.7140012  28.5554997  19.6689988 116.3300012  29.1824997  20.0489988
 114.8520012  28.8714997  19.9409988 115.6817698  28.6839430  19.7577183
 121.3860012  31.3564997  24.6589988 121.1450012  32.2814997  24.6999988
 120.6450012  30.8974997  25.0549988 121.2528409  31.4211421  24.7181377
 121.9010012  35.5054997  30.9739988 122.2630012  36.3604997  30.7399988
 122.4320012  35.2134997  31.7139988 122.0224473  35.5831060  31.0420855
 120.0690012  36.3784997  24.2039988 119.1190012  36.4834997  24.2549988
 120.4210012  37.1984997  24.5489988 119.9864203  36.5038314  24.2576650
 125.4450012  31.6044997  30.6739988 125.0190012  31.3774997  31.5009988
 126.0250012  30.8664997  30.4919988 125.4651868  31.4735299  30.7625830
 127.6480012  32.5334997  19.7479988 128.0010012  32.1534997  20.5529988
 126.6990012  32.4404997  19.8349988 127.5680441  32.4689596  19.8698559
 128.1030012  36.1564997  33.1439988 127.5020012  35.6014997  32.6479988
 128.3850012  36.8234997  32.5179988 128.0588519  36.1706841  32.9914952
 132.1510012  37.0134997  19.9489988 132.8950012  37.5994997  19.8089988
 131.4570012  37.5814997  20.2829988 132.1590292  37.1705582  19.9749961
 116.2260012  23.3894997  32.5509988 115.3330012  23.7284997  32.4829988
 116.1270012  22.5344997  32.9689988 116.0904164  23.3202588  32.5982235
 128.5140012  31.2064997  21.9749988 128.2360012  30.4784997  22.5309988
 129.4410012  31.3254997  22.1799988 128.6013124  31.1228802  22.0788845
 115.8770012  35.1944997  30.9859988 116.0940012  34.2624997  30.9549988
 116.1230012  35.4684997  31.8689988 115.9399549  35.1040636  31.1011763
 121.7390012  33.6454997  18.1949988 121.9780012  32.8974997  17.6479988
 121.4700012  33.2574997  19.0279988 121.7353675  33.4906638  18.2326865
 120.6760012  33.2154997  20.6519988 120.8220012  32.6954997  21.4419988
 120.6730012  34.1224997  20.9579988 120.6955989  33.2668853  20.8016088
 117.1290012  30.4684997  21.1619988 116.4430012  30.8204997  21.7289988
 117.6510012  31.2314997  20.9149988 117.1056852  30.6198578  21.2062118
 124.9600012  23.1304997  31.4409988 125.6590012  23.2044997  32.0909988
 124.5790012  22.2664997  31.5949988 125.0041767  23.0237624  31.5508322
 125.7450012  22.7824997  22.5379988 125.9650012  23.2544997  21.7349988
 126.3030012  23.1774997  23.2079988 125.8504968  22.9004285  22.5187331
 123.4130012  34.9134997  21.4009988 122.5970012  35.4104997  21.4529988
 123.9430012  35.3884997  20.7609988 123.3729161  35.0457722  21.3215956
 122.9450012  24.5104997  23.3729988 123.7570012  25.0154997  23.4189988
 122.7000012  24.3654997  24.2869988 123.0230520  24.5600375  23.5028517
 123.4800012  25.4964997  32.5579988 123.5990012  26.0704997  33.3149988
 124.1360012  24.8084997  32.6719988 123.5849757  25.4821079  32.6770825
 123.8280012  21.5914997  24.3109988 123.4820012  22.2094997  24.9559988
 124.4870012  22.0924997  23.8299988 123.8697826  21.7435802  24.3340971
 120.7520012  35.9574997  21.3829988 120.9120012  36.7564997  20.8819988
 120.5540012  36.2634997  22.2679988 120.7471649  36.1084469  21.4339815
 119.4860012  22.6544997  20.9979988 119.4030012  23.5434997  21.3449988
 120.3760012  22.3894997  21.2299988 119.5949469  22.7401430  21.0767626
 129.6850012  23.4034997  33.3929988 128.7680012  23.6664997  33.3049988
 130.0200012  23.4004997  32.4959988 129.6049900  23.4390224  33.2597919
 128.2870012  27.1544997  27.4879988 127.4890012  26.7394997  27.1599988
 128.7320012  26.4634997  27.9789988 128.2379885  27.0043543  27.5094889
 117.7450012  33.0824997  20.0589988 118.3370012  33.7814997  20.3349988
 118.2040012  32.6494997  19.3389988 117.8881142  33.1197049  19.9994830
 116.0610012  25.7464997  19.1749988 116.0160012  26.6854997  19.3529988
 115.1730012  25.5104997  18.9049988 115.9348574  25.8431892  19.1628912
 129.3730012  36.4104997  29.1109988 129.2180012  37.0884997  28.4539988
 130.3060012  36.4824997  29.3139988 129.4778500  36.5130170  29.0485119
 116.8690012  20.5284997  27.8479988 116.6400012  20.5874997  26.9199988
 116.4260012  19.7364997  28.1539988 116.7778530  20.4295753  27.7624786
 115.7990012  34.4684997  24.0079988 114.9670012  34.9414997  24.0359988
 116.3450012  34.9784997  23.4099988 115.7589739  34.6021871  23.9309716
 115.0870012  37.0814997  35.3379988 115.6280012  36.8644997  36.0979988
 114.6060012  36.2754997  35.1489988 115.0959345  36.9429514  35.4163076
 119.6850012  36.0004997  36.9589988 120.4520012  35.5414997  37.2999988
 119.6630012  35.7744997  36.0289988 119.7871434  35.9070409  36.8800043
 123.7770012  35.5084997  18.3339988 123.1330012  34.8774997  18.6549988
 124.5390012  34.9774997  18.1019988 123.7918077  35.3502920  18.3466011
 126.2620012  34.3804997  35.6879988 125.9110012  33.5244997  35.9309988
 126.9880012  34.5234997  36.2949988 126.3120769  34.2825636  35.8033619
 128.3810012  35.3254997  18.5679988 128.6640012  34.5314997  19.0199988
 129.1210012  35.5584997  18.0069988 128.5197486  35.2482803  18.5540698
 114.9940012  30.8914997  36.2929988 115.1380012  29.9894997  36.0059988
 114.2220012  31.1774997  35.8049988 114.9093322  30.8068261  36.1877881
 119.3360012  31.2354997  18.4249988 119.4000012  30.4414997  18.9559988
 119.9890012  31.1164997  17.7349988 119.4330241  31.1107148  18.4044317
 121.6500012  30.8614997  35.7249988 121.3210012  31.1324997  34.8679988
 121.8020012  29.9204997  35.6379988 121.6254809  30.7713862  35.5958244
 124.6880012  32.2824997  18.1609988 124.4190012  32.4624997  19.0619988
 124.4820012  31.3564997  18.0299988 124.6233825  32.1820152  18.2665214
 127.3840012  30.7774997  33.1089988 128.1300012  31.3654997  32.9889988
 126.6270012  31.3594997  33.1719988 127.3837554  30.9367011  33.1010907
 115.8270012  28.0914997  35.7129988 116.2350012  27.2344997  35.5919988
 115.5670012  28.1064997  36.6339988 115.8477568  27.9760807  35.8209588
 120.4850012  29.2074997  20.7309988 120.0250012  28.7234997  21.4169988
 120.7400012  28.5394997  20.0949988 120.4564902  29.0508731  20.7389334
 119.7740012  27.1004997  33.0869988 119.1560012  27.7754997  33.3669988
 120.1180012  27.4214997  32.2539988 119.7359615  27.2362721  33.0126581
 121.5560012  27.4504997  18.9929988 121.3760012  27.2964997  18.0659988
 122.5060012  27.5584997  19.0379988 121.6597776  27.4440175  18.8721843
 124.7940012  29.5724997  36.3639988 125.7470012  29.6554997  36.3369988
 124.6330012  28.8604997  36.9839988 124.9026426  29.4876746  36.4440579
 130.9460012  29.8054997  18.4389988 130.6720012  29.3804997  17.6259988
 130.9850012  30.7364997  18.2219988 130.9137699  29.8732484  18.2983610
 120.1130012  24.4554997  34.1689988 120.2630012  23.7264997  33.5669988
 120.1160012  25.2324997  33.6099988 120.1339302  24.4607851  34.0110692
 120.5260012  22.8254997  31.6619988 121.0620012  23.2764997  31.0099988
 119.6740012  22.7174997  31.2389988 120.4842178  22.8726390  31.5155756
 122.1080012  28.2644997  31.9009988 122.8580012  28.1084997  31.3279988
 121.7690012  29.1164997  31.6259988 122.1648921  28.3582968  31.7853561
 126.5230012  26.0794997  36.9299988 126.7160012  25.1484997  36.8179988
 127.3810012  26.5044997  36.9199988 126.6653020  26.0096389  36.9133361
 127.8400012  28.8684997  35.0069988 127.5590012  29.5774997  34.4299988
 128.7830012  28.7954997  34.8559988 127.9289027  28.9557646  34.9075551
 118.5920012  25.6534997  36.0809988 117.8250012  25.1214997  35.8709988
 119.2710012  25.3434997  35.4809988 118.5787022  25.5387506  35.9711648
 121.3320012  20.2814997  32.0929988 121.2330012  21.2284997  31.9879988
 120.5890012  19.9094997  31.6179988 121.2180563  20.3605902  32.0144560
 122.5960012  24.6034997  35.6569988 122.3600012  24.3834997  36.5589988
 121.8120012  24.3964997  35.1469988 122.4578628  24.5454760  35.7113932
 125.3110012  23.7304997  34.7329988 124.3640012  23.7624997  34.8649988
 125.6240012  23.1054997  35.3859988 125.2235475  23.6503207  34.8394455
 126.9450012  22.3644997  36.7379988 126.8490012  21.4124997  36.7319988
 126.6240012  22.6334997  37.5979988 126.8884070  22.2704035  36.8535441
 116.7720012  23.5744997  35.7849988 116.9840012  22.8674997  35.1749988
 116.6610012  23.1364997  36.6289988 116.7859721  23.4187084  35.8156843
 121.5530012  19.5754997  34.7649988 122.2650012  18.9354997  34.7509988
 121.4520012  19.8424997  33.8509988 121.6367939  19.5239938  34.6395650
 121.9070012  21.2584997  36.8179988 121.7750012  20.7824997  35.9979988
 121.3080012  22.0024997  36.7629988 121.8079071  21.2939618  36.6982886
 121.4530012  38.1414997  19.9949988 122.3860012  38.2994997  20.1379988
 121.1890012  38.8164997  19.3699988 121.5449510  38.2543611  19.9300741
 115.0220012  32.7774997  19.4769988 115.9360012  32.8564997  19.7509988
 115.0290012  32.0904997  18.8109988 115.1481131  32.6953961  19.4244393
 113.6710012  38.1704997  24.5549988 113.0240012  37.7084997  24.0219988
 114.0250012  37.4984997  25.1369988 113.6303849  38.0164723  24.5607959
 114.5410012  36.2514997  26.3589988 114.2060012  35.3714997  26.5309988
 114.7630012  36.5964997  27.2239988 114.5251783  36.1777500  26.4994208
 132.0890012  37.0604997  29.3399988 132.0680012  37.2454997  30.2789988
 132.7800012  37.6294997  28.9989988 132.1794618  37.1626606  29.4223864
 131.6530012  36.6284997  32.2619988 131.1650012  35.8924997  31.8909988
 132.2020012  36.2344997  32.9399988 131.6604872  36.4746249  32.3029160
 130.1030012  32.4174997  36.8999988 129.2370012  32.3124997  37.2939988
 130.4800012  33.1764997  37.3459988 130.0353308  32.5056900  37.0142393
 131.4040012  30.6744997  22.4139988 132.2540012  31.0954997  22.5409988
 131.4100012  29.9344997  23.0209988 131.5211372  30.6320803  22.5134344
 131.7990012  28.7274997  24.2379988 131.0720012  28.2484997  24.6349988
 132.3800012  28.9334997  24.9699988 131.7779375  28.6897090  24.3914129
 131.5580012  31.5124997  29.1849988 132.3910012  31.1344997  28.9049988
 131.6700012  32.4554997  29.0659988 131.6872647  31.5882218  29.1305487
 130.0440012  34.3904997  31.4919988 129.3970012  34.7154997  32.1179988
 129.5270012  33.9504997  30.8179988 129.8854029  34.3755004  31.4865827
 132.0670012  28.6284997  20.6289988 131.5450012  28.9854997  19.9099988
 132.0340012  29.3034997  21.3069988 131.9911634  28.7685413  20.6223145
 130.4160012  25.8684997  19.1799988 130.5120012  26.5354997  18.4989988
 130.2760012  25.0524997  18.6979988 130.4102135  25.8494500  19.0218491
 129.5850012  27.2484997  24.8009988 129.4350012  26.3034997  24.7799988
 129.2320012  27.5294997  25.6439988 129.5166625  27.1570441  24.9122346
 114.6210012  29.3264997  28.8109988 114.8050012  29.2444997  27.8749988
 115.4700012  29.2024997  29.2349988 114.7610139  29.2985003  28.7401455
 130.4420012  29.2184997  34.4389988 131.0250012  28.4844997  34.6309988
 131.0060012  29.9904997  34.4859988 130.5979769  29.2224227  34.4716159
 131.9380012  27.1214997  35.1239988 131.0750012  26.7424997  34.9579988
 132.5430012  26.3824997  35.0499988 131.9015979  26.9698023  35.0912817
 129.6630012  23.2764997  18.2969988 130.2740012  22.9054997  18.9339988
 128.8270012  22.8554997  18.4929988 129.6335032  23.1687554  18.4107035
 129.2960012  24.8314997  23.2629988 129.5760012  23.9244997  23.3869988
 130.0550012  25.2654997  22.8739988 129.4369277  24.7660942  23.2273682
 129.9080012  25.4124997  28.6989988 130.8410012  25.6244997  28.6649988
 129.6730012  25.5144997  29.6209988 130.0038036  25.4552769  28.8189976
 129.9370012  26.1494997  31.4749988 129.0940012  26.4174997  31.8409988
 130.3790012  26.9714997  31.2639988 129.8814158  26.2973291  31.4965491
 114.2180012  24.5974997  34.9519988 115.1380012  24.4754997  35.1879988
 113.7690012  23.8474997  35.3409988 114.2831580  24.4793727  35.0369006
 132.2200012  20.1294997  36.8279988 132.5700012  19.4754997  36.2229988
 132.3670012  20.9664997  36.3889988 132.2878419  20.1531591  36.6857118
 129.9090012  22.0944997  23.3109988 130.0920012  21.6454997  24.1369988
 129.3100012  21.5094997  22.8479988 129.8530202  21.9539975  23.3613275
 115.4390012  22.9094997  27.8429988 115.8850012  22.1174997  28.1449988
 115.9060012  23.6254997  28.2739988 115.5630172  22.8980624  27.9424820
 113.7430012  25.9084997  28.9119988 114.2350012  25.6874997  28.1209988
 114.1060012  26.7494997  29.1929988 113.8593126  25.9918357  28.8417531
 131.7400012  22.2384997  35.1779988 130.8220012  22.5094997  35.1419988
 131.8630012  21.7034997  34.3929988 131.6311066  22.2032892  35.0670487
 131.7760012  22.1614997  19.8389988 132.1880012  21.4404997  19.3639988
 132.4580012  22.8314997  19.8979988 131.9245885  22.1532368  19.7818915
 114.0570012  22.1664997  22.9659988 113.1320012  22.3754997  22.8369988
 114.5110012  22.6504997  22.2769988 113.9917368  22.2605993  22.8551226
 128.8280012  37.1504997  24.9119988 129.4800012  36.8034997  24.3039988
 129.3380012  37.6394997  25.5579988 128.9862637  37.1690597  24.9160236
 114.0210012  20.9044997  31.3109988 113.3560012  20.6584997  31.9539988
 113.5780012  21.5264997  30.7329988 113.8700956  20.9548632  31.3209352
 116.2130012  34.0794997  35.4549988 115.3920012  34.2544997  34.9949988
 115.9600012  34.0064997  36.3759988 116.0666164  34.0935622  35.5164923
 119.1670012  35.0544997  31.7139988 118.7420012  35.8634997  31.4309988
 120.0710012  35.1394997  31.4119988 119.2310271  35.1768469  31.6343776
 123.4780012  36.4534997  34.6729988 123.6630012  36.1194997  35.5509988
 124.3240012  36.7624997  34.3509988 123.6177539  36.4496047  34.7495605
 125.8230012  37.7394997  33.9169988 126.5000012  37.1064997  33.6769988
 126.1450012  38.1404997  34.7239988 125.9591637  37.7071154  33.9932793
 130.7400012  20.3284997  32.9969988 129.9280012  20.6534997  32.6089988
 130.9730012  19.5684997  32.4639988 130.6603423  20.2702436  32.8718253
 116.5690012  38.3104997  31.7609988 115.8480012  38.7504997  31.3099988
 116.2030012  38.0594997  32.6099988 116.4209804  38.3367698  31.8139840
 119.0360012  37.9104997  30.7909988 118.1710012  37.9824997  31.1949988
 118.9810012  38.4574997  30.0069988 118.9102085  37.9942685  30.7403362
 123.7460012  37.7984997  29.9659988 123.2900012  38.3274997  29.3119988
 123.9090012  38.4014997  30.6919988 123.7055585  37.9524468  29.9745062
 126.0740012  36.6764997  30.9109988 125.1690012  36.8414997  30.6459988
 126.5030012  37.5294997  30.8459988 126.0080799  36.8144483  30.8659182
 128.6780012  38.2464997  31.2059988 128.4960012  39.1624997  30.9959988
 128.8550012  37.8364997  30.3599988 128.6770210  38.3164822  31.0627885
 115.9830012  36.9334997  28.6709988 115.9650012  36.5084997  29.5289988
 116.7880012  36.6154997  28.2629988 116.0893875  36.8323812  28.7331655
 118.1250012  35.6434997  27.3259988 117.9060012  34.7274997  27.4959988
 118.9490012  35.7834997  27.7919988 118.2064420  35.5370520  27.4122774
 120.6620012  36.1134997  28.1749988 120.8750012  35.2254997  27.8879988
 120.7260012  36.0794997  29.1289988 120.6998232  35.9873102  28.2647397
 124.1700012  21.7774997  27.3189988 123.4960012  21.1484997  27.5749988
 124.7340012  21.2934997  26.7159988 124.1539230  21.6258744  27.2725340
 129.3130012  19.8854997  27.4319988 129.9170012  20.4324997  26.9299988
 128.4430012  20.2044997  27.1919988 129.2781241  20.0035806  27.3307654
 131.0400012  21.0234997  25.7649988 131.6520012  20.5094997  25.2389988
 131.4220012  21.9014997  25.7889988 131.1754540  21.0717140  25.6961830
 116.4970012  20.4114997  25.1409988 115.7200012  20.1774997  24.6339988
 117.0270012  19.6144997  25.1499988 116.4622330  20.2716988  25.0727742
 115.3330012  20.2094997  20.9449988 115.7720012  20.8204997  20.3529988
 114.7000012  20.7474997  21.4189988 115.3074514  20.3659257  20.9280930
 121.0760012  20.3384997  24.9549988 121.9510012  20.7264997  24.9249988
 120.9400012  20.1234997  25.8769988 121.1773695  20.3625184  25.0756440
 126.6330012  20.3684997  26.6039988 126.7090012  20.4634997  25.6539988
 126.3580012  19.4604997  26.7329988 126.6062321  20.2587867  26.4915079
 127.9860012  20.3944997  22.2959988 127.2840012  21.0094997  22.0869988
 127.5420012  19.5564997  22.4269988 127.8296330  20.3655783  22.2850328
 115.2340012  36.1574997  21.8429988 114.5490012  36.1194997  21.1749988
 115.2380012  37.0704997  22.1309988 115.1408193  36.2757016  21.7905284
 117.1940012  22.1254997  19.3869988 117.6860012  21.4954997  18.8599988
 117.8180012  22.4214997  20.0509988 117.3455446  22.0793199  19.4045980
 122.2200012  22.4184997  21.8439988 122.3980012  21.7724997  22.5269988
 122.1670012  23.2524997  22.3119988 122.2371829  22.4427985  22.0005940
 124.0990012  37.3674997  20.2399988 124.9650012  37.7334997  20.0619988
 123.8520012  36.9274997  19.4259988 124.1842392  37.3581756  20.1056289
 130.8080012  36.9304997  22.9189988 130.6130012  36.1824997  22.3539988
 130.7690012  37.6884997  22.3359988 130.7760380  36.9306099  22.7628384
 116.4550012  20.9254997  34.6589988 116.0890012  20.1604997  35.1019988
 117.3680012  20.9544997  34.9459988 116.5282790  20.8247224  34.7584070
 118.4280012  20.2764997  36.1949988 119.3260012  20.0024997  36.0099988
 118.0410012  19.5334997  36.6589988 118.4986612  20.1385914  36.2323643
 117.0520012  37.0774997  18.8679988 116.7850012  37.3644997  19.7409988
 117.8240012  36.5314997  19.0199988 117.1197488  37.0430294  19.0081050
 126.8490012  19.6084997  36.3769988 126.9260012  19.1824997  37.2309988
 127.7430012  19.6224997  36.0339988 126.9803428  19.5520879  36.4475310
 130.0250012  35.6814997  35.0689988 129.2430012  35.4954997  34.5499988
 129.9530012  36.6104997  35.2869988 129.9081777  35.7816492  35.0274048
 144.4310012  29.5674997  25.0999988 144.5200012  30.5114997  24.9679988
 143.7930012  29.2924997  24.4419988 144.3569081  29.6594830  24.9929614
 143.3640012  28.8224997  28.5189988 143.3260012  28.1764997  29.2239988
 143.0420012  28.3564997  27.7479988 143.3152333  28.6709408  28.5112978
 135.7330012  28.4374997  30.1119988 135.7740012  27.8114997  30.8349988
 136.4360012  29.0614997  30.2939988 135.8336363  28.4361196  30.2356044
 136.6560012  32.8874997  28.6469988 136.2870012  32.0854997  28.2769988
 137.5970012  32.7184997  28.6929988 136.7327289  32.7550153  28.6026316
 133.2660012  26.5474997  24.0399988 132.8190012  27.3934997  24.0209988
 132.7050012  25.9674997  23.5239988 133.1289900  26.5849916  23.9676801
 133.9770012  28.7094997  26.1659988 134.1900012  27.9394997  26.6929988
 134.7150012  28.7984997  25.5619988 134.1058496  28.6161394  26.1565300
 144.1820012  36.8664997  27.0329988 144.8020012  36.1894997  26.7589988
 143.9740012  36.6484997  27.9409988 144.2386904  36.7443870  27.1183365
 141.7540012  31.2554997  28.9249988 142.0580012  30.5694997  28.3299988
 142.4750012  31.3734997  29.5429988 141.8930671  31.1776304  28.9271816
 144.8950012  25.6494997  29.2529988 145.0370012  24.7034997  29.2729988
 144.7880012  25.8564997  28.3239988 144.8999863  25.5479534  29.1302339
 138.0490012  23.7504997  26.5249988 138.0930012  24.6104997  26.1069988
 137.5920012  23.1984997  25.8909988 137.9932185  23.7935799  26.3820299
 134.6700012  26.1474997  27.2869988 135.3230012  25.5974997  27.7189988
 134.6940012  25.8734997  26.3699988 134.7626683  26.0351466  27.2222123
 139.8260012  27.6974997  26.5019988 140.4420012  27.1714997  27.0119988
 139.2400012  27.0574997  26.0989988 139.8310810  27.5389208  26.5173173
 136.8600012  22.6684997  30.5989988 136.6410012  23.1984997  29.8329988
 136.1920012  22.8954997  31.2459988 136.7397600  22.7716906  30.5816379
 144.2290012  32.1684997  24.1429988 143.9330012  31.8464997  23.2919988
 143.9040012  33.0684997  24.1839988 144.1446371  32.2460215  24.0321801
 139.4290012  30.3444997  30.8859988 138.6890012  30.9424997  30.9899988
 140.1430012  30.8984997  30.5709988 139.4242237  30.5012831  30.8576465
 136.4530012  24.5604997  28.5509988 137.0670012  25.1934997  28.9249988
 136.9650012  24.0884997  27.8949988 136.6062296  24.5832370  28.5134252
 137.8360012  32.3084997  31.6739988 137.8310012  33.1884997  31.2959988
 136.9830012  32.2254997  32.0989988 137.7199464  32.4176117  31.6797907
 133.9570012  31.9794997  22.4559988 133.6850012  32.2084997  21.5669988
 134.0030012  32.8174997  22.9159988 133.9260094  32.1241213  22.3965697
 140.8860012  19.9744997  28.0519988 140.7690012  19.0254997  27.9969988
 140.0310012  20.3064997  28.3249988 140.7543733  19.8895409  28.0813897
 143.1530012  28.8114997  22.5519988 142.4410012  29.3464997  22.1999988
 143.8440012  28.8674997  21.8919988 143.1490132  28.8922543  22.4146289
 143.2060012  27.2694997  19.5909988 143.9070012  27.2914997  20.2419988
 143.5090012  26.6414997  18.9349988 143.3427830  27.1876566  19.5913711
 138.2040012  29.6514997  25.3859988 137.8730012  29.2814997  24.5679988
 138.7920012  28.9814997  25.7329988 138.2381873  29.5101156  25.3208102
 139.5700012  33.0794997  28.0679988 139.4760012  32.5014997  27.3109988
 140.3000012  32.7084997  28.5639988 139.6557981  32.9502390  28.0314165
 138.5700012  28.4204997  29.0199988 139.1360012  28.5414997  28.2569988
 138.8890012  29.0574997  29.6589988 138.6905786  28.5231884  29.0020040
 144.8790012  33.9234997  29.7539988 144.6390012  34.5854997  30.4019988
 144.6810012  33.0894997  30.1789988 144.8193808  33.9013134  29.9001524
 139.4500012  32.8194997  33.7369988 139.1390012  33.6014997  34.1919988
 138.8000012  32.6664997  33.0509988 139.3195558  32.9059105  33.7065871
 136.3700012  29.0174997  32.9659988 136.4410012  29.6684997  33.6639988
 135.4800012  29.1204997  32.6309988 136.2593117  29.1205936  33.0162700
 143.1560012  34.9204997  24.6239988 143.6300012  35.2154997  25.4019988
 142.5930012  35.6584997  24.3909988 143.1447653  35.0606932  24.6990136
 137.6900012  34.8914997  34.4999988 137.6970012  34.7554997  33.5529988
 136.7740012  34.7734997  34.7519988 137.5671714  34.8569430  34.4044666
 137.1940012  28.7214997  22.9759988 136.9020012  29.4894997  22.4849988
 136.5200012  28.0614997  22.8129988 137.0629081  28.7374406  22.8867340
 133.2870012  31.0844997  31.7909988 132.7860012  31.0564997  30.9759988
 133.2920012  30.1784997  32.0999988 133.2191526  30.9582278  31.7212872
 133.0370012  33.8644997  28.6749988 133.9830012  33.7204997  28.6559988
 132.9250012  34.6484997  29.2119988 133.1512727  33.9508046  28.7450072
 142.2140012  34.1044997  33.2329988 142.3010012  34.9304997  33.7079988
 141.3500012  33.7744997  33.4819988 142.1091964  34.1729878  33.3316549
 142.6280012  37.8764997  23.0389988 142.5530012  37.7554997  22.0929988
 142.6610012  38.8264997  23.1579988 142.6221848  37.9882500  22.9254834
 136.2810012  36.6654997  24.8199988 136.4340012  36.3174997  25.6989988
 135.4310012  36.3094997  24.5649988 136.1868962  36.5696650  24.9058340
 135.5360012  32.4074997  32.8339988 135.7520012  32.0464997  33.6929988
 134.6810012  32.0334997  32.6239988 135.4499292  32.3074111  32.9233386
 138.1550012  20.8774997  28.8289988 137.2930012  20.7904997  28.4219988
 138.1320012  21.7334997  29.2569988 138.0340330  20.9812765  28.8311863
 142.8180012  20.5994997  32.2039988 143.2380012  20.1844997  32.9569988
 141.8850012  20.4214997  32.3209988 142.7493644  20.5185900  32.3229539
 142.4790012  23.0924997  19.4889988 142.2260012  23.1114997  20.4119988
 142.2230012  22.2204997  19.1879988 142.4097790  22.9772437  19.5746263
 138.2460012  25.8434997  29.9239988 137.6040012  25.8024997  30.6329988
 138.2830012  26.7694997  29.6869988 138.1631324  25.9631559  29.9889824
 138.2430012  26.0644997  24.8359988 137.3500012  25.7234997  24.7779988
 138.6930012  25.6874997  24.0809988 138.1817305  25.9668484  24.7259177
 143.7780012  26.4804997  23.6529988 143.3690012  27.2954997  23.3619988
 144.4990012  26.3404997  23.0389988 143.8194537  26.5732018  23.5301342
 142.8800012  26.6554997  35.1409988 142.3180012  25.9514997  35.4619988
 143.7070012  26.5354997  35.6089988 142.9147095  26.5427883  35.2482330
 144.7830012  25.9264997  26.4669988 144.5880012  26.5314997  25.7519988
 144.9640012  25.0924997  26.0329988 144.7807614  25.8966300  26.3104405
 135.9960012  26.1634997  31.7909988 135.9580012  26.5634997  32.6599988
 135.5050012  25.3464997  31.8819988 135.9244684  26.1078069  31.9221059
 139.3620012  23.5374997  18.5899988 138.9310012  23.0924997  19.3199988
 138.6440012  23.9094997  18.0779988 139.2059438  23.5268940  18.6206799
 132.6040012  23.2794997  25.6419988 133.2350012  23.2504997  26.3609988
 133.0530012  22.8544997  24.9119988 132.7510774  23.2180492  25.6416553
 133.8780012  24.0254997  21.0659988 134.3520012  24.6164997  20.4809988
 133.1610012  24.5564997  21.4129988 133.8459341  24.1780867  21.0328836
 144.0470012  27.5644997  31.1389988 144.3700012  26.9334997  30.4959988
 143.6070012  27.0294997  31.7989988 144.0316895  27.4058440  31.1402850
 140.8240012  23.4914997  25.9229988 139.9130012  23.5484997  26.2109988
 141.3300012  23.4314997  26.7329988 140.7675413  23.4911985  26.0720622
 135.6530012  25.1204997  24.7489988 134.7630012  25.2204997  24.4089988
 135.9490012  24.2784997  24.4029988 135.5712823  25.0203545  24.6557213
 139.3060012  25.1204997  22.4059988 140.2370012  25.2494997  22.5839988
 139.0910012  25.7904997  21.7559988 139.4044247  25.2286565  22.3425747
 137.9800012  26.3154997  19.9729988 137.4370012  25.9354997  19.2809988
 138.8130012  26.5094997  19.5439988 138.0184399  26.2898124  19.8204526
 136.1150012  30.8724997  35.0719988 136.8470012  31.1264997  35.6329988
 135.3350012  31.0764997  35.5869988 136.1098232  30.9349177  35.2185760
 142.1440012  26.2794997  27.8099988 142.7090012  25.7324997  27.2629988
 141.9970012  25.7574997  28.5979988 142.2012918  26.1342024  27.8418454
 137.1460012  22.4154997  24.2279988 136.8290012  21.5134997  24.1929988
 137.9280012  22.4174997  23.6749988 137.2082284  22.2921628  24.1484783
 140.7710012  24.6674997  30.2239988 139.9350012  25.1214997  30.3339988
 141.2950012  24.9434997  30.9759988 140.7274414  24.7669376  30.3407136
 141.3150012  30.8804997  21.9079988 140.5700012  30.3734997  21.5859988
 141.1810012  30.9294997  22.8549988 141.1948776  30.8176940  21.9918647
 142.8340012  31.0644997  33.1449988 142.4890012  30.6834997  33.9519988
 142.6340012  31.9984997  33.2169988 142.7598061  31.1385228  33.2650961
 136.4400012  30.1754997  27.6779988 137.1850012  30.1734997  27.0769988
 136.5180012  29.3524997  28.1599988 136.5525518  30.0639315  27.6608929
 143.4410012  32.3394997  20.9339988 143.1450012  33.1654997  21.3149988
 142.7380012  31.7194997  21.1299988 143.3054914  32.3688199  21.0126443
 133.4480012  28.6364997  32.9929988 133.6710012  28.2184997  33.8249988
 132.8460012  28.0234997  32.5699988 133.3971759  28.4964668  33.0497022
 140.4640012  28.1534997  35.2059988 140.1680012  27.9874997  34.3109988
 141.3960012  27.9334997  35.1949988 140.5494166  28.1010640  35.0820536
 138.8150012  33.6934997  25.0819988 139.3420012  34.4664997  24.8819988
 137.9350012  33.9184997  24.7809988 138.7681773  33.8298005  25.0139010
 134.5700012  28.5554997  19.6689988 135.1860012  29.1824997  20.0489988
 133.7080012  28.8714997  19.9409988 134.5377698  28.6839430  19.7577183
 140.2420012  31.3564997  24.6589988 140.0010012  32.2814997  24.6999988
 139.5010012  30.8974997  25.0549988 140.1088409  31.4211421  24.7181377
 140.7570012  35.5054997  30.9739988 141.1190012  36.3604997  30.7399988
 141.2880012  35.2134997  31.7139988 140.8784473  35.5831060  31.0420855
 138.9250012  36.3784997  24.2039988 137.9750012  36.4834997  24.2549988
 139.2770012  37.1984997  24.5489988 138.8424203  36.5038314  24.2576650
 144.3010012  31.6044997  30.6739988 143.8750012  31.3774997  31.5009988
 144.8810012  30.8664997  30.4919988 144.3211868  31.4735299  30.7625830
 135.0820012  23.3894997  32.5509988 134.1890012  23.7284997  32.4829988
 134.9830012  22.5344997  32.9689988 134.9464164  23.3202588  32.5982235
 134.7330012  35.1944997  30.9859988 134.9500012  34.2624997  30.9549988
 134.9790012  35.4684997  31.8689988 134.7959549  35.1040636  31.1011763
 140.5950012  33.6454997  18.1949988 140.8340012  32.8974997  17.6479988
 140.3260012  33.2574997  19.0279988 140.5913675  33.4906638  18.2326865
 139.5320012  33.2154997  20.6519988 139.6780012  32.6954997  21.4419988
 139.5290012  34.1224997  20.9579988 139.5515989  33.2668853  20.8016088
 135.9850012  30.4684997  21.1619988 135.2990012  30.8204997  21.7289988
 136.5070012  31.2314997  20.9149988 135.9616852  30.6198578  21.2062118
 143.8160012  23.1304997  31.4409988 144.5150012  23.2044997  32.0909988
 143.4350012  22.2664997  31.5949988 143.8601767  23.0237624  31.5508322
 144.6010012  22.7824997  22.5379988 144.8210012  23.2544997  21.7349988
 145.1590012  23.1774997  23.2079988 144.7064968  22.9004285  22.5187331
 142.2690012  34.9134997  21.4009988 141.4530012  35.4104997  21.4529988
 142.7990012  35.3884997  20.7609988 142.2289161  35.0457722  21.3215956
 141.8010012  24.5104997  23.3729988 142.6130012  25.0154997  23.4189988
 141.5560012  24.3654997  24.2869988 141.8790520  24.5600375  23.5028517
 142.3360012  25.4964997  32.5579988 142.4550012  26.0704997  33.3149988
 142.9920012  24.8084997  32.6719988 142.4409757  25.4821079  32.6770825
 142.6840012  21.5914997  24.3109988 142.3380012  22.2094997  24.9559988
 143.3430012  22.0924997  23.8299988 142.7257826  21.7435802  24.3340971
 139.6080012  35.9574997  21.3829988 139.7680012  36.7564997  20.8819988
 139.4100012  36.2634997  22.2679988 139.6031649  36.1084469  21.4339815
 138.3420012  22.6544997  20.9979988 138.2590012  23.5434997  21.3449988
 139.2320012  22.3894997  21.2299988 138.4509469  22.7401430  21.0767626
 136.6010012  33.0824997  20.0589988 137.1930012  33.7814997  20.3349988
 137.0600012  32.6494997  19.3389988 136.7441142  33.1197049  19.9994830
 134.9170012  25.7464997  19.1749988 134.8720012  26.6854997  19.3529988
 134.0290012  25.5104997  18.9049988 134.7908574  25.8431892  19.1628912
 135.7250012  20.5284997  27.8479988 135.4960012  20.5874997  26.9199988
 135.2820012  19.7364997  28.1539988 135.6338530  20.4295753  27.7624786
 134.6550012  34.4684997  24.0079988 133.8230012  34.9414997  24.0359988
 135.2010012  34.9784997  23.4099988 134.6149739  34.6021871  23.9309716
 133.9430012  37.0814997  35.3379988 134.4840012  36.8644997  36.0979988
 133.4620012  36.2754997  35.1489988 133.9519345  36.9429514  35.4163076
 138.5410012  36.0004997  36.9589988 139.3080012  35.5414997  37.2999988
 138.5190012  35.7744997  36.0289988 138.6431434  35.9070409  36.8800043
 142.6330012  35.5084997  18.3339988 141.9890012  34.8774997  18.6549988
 143.3950012  34.9774997  18.1019988 142.6478077  35.3502920  18.3466011
 133.8500012  30.8914997  36.2929988 133.9940012  29.9894997  36.0059988
 133.0780012  31.1774997  35.8049988 133.7653322  30.8068261  36.1877881
 138.1920012  31.2354997  18.4249988 138.2560012  30.4414997  18.9559988
 138.8450012  31.1164997  17.7349988 138.2890241  31.1107148  18.4044317
 140.5060012  30.8614997  35.7249988 140.1770012  31.1324997  34.8679988
 140.6580012  29.9204997  35.6379988 140.4814809  30.7713862  35.5958244
 143.5440012  32.2824997  18.1609988 143.2750012  32.4624997  19.0619988
 143.3380012  31.3564997  18.0299988 143.4793825  32.1820152  18.2665214
 134.6830012  28.0914997  35.7129988 135.0910012  27.2344997  35.5919988
 134.4230012  28.1064997  36.6339988 134.7037568  27.9760807  35.8209588
 139.3410012  29.2074997  20.7309988 138.8810012  28.7234997  21.4169988
 139.5960012  28.5394997  20.0949988 139.3124902  29.0508731  20.7389334
 138.6300012  27.1004997  33.0869988 138.0120012  27.7754997  33.3669988
 138.9740012  27.4214997  32.2539988 138.5919615  27.2362721  33.0126581
 140.4120012  27.4504997  18.9929988 140.2320012  27.2964997  18.0659988
 141.3620012  27.5584997  19.0379988 140.5157776  27.4440175  18.8721843
 143.6500012  29.5724997  36.3639988 144.6030012  29.6554997  36.3369988
 143.4890012  28.8604997  36.9839988 143.7586426  29.4876746  36.4440579
 138.9690012  24.4554997  34.1689988 139.1190012  23.7264997  33.5669988
 138.9720012  25.2324997  33.6099988 138.9899302  24.4607851  34.0110692
 139.3820012  22.8254997  31.6619988 139.9180012  23.2764997  31.0099988
 138.5300012  22.7174997  31.2389988 139.3402178  22.8726390  31.5155756
 140.9640012  28.2644997  31.9009988 141.7140012  28.1084997  31.3279988
 140.6250012  29.1164997  31.6259988 141.0208921  28.3582968  31.7853561
 137.4480012  25.6534997  36.0809988 136.6810012  25.1214997  35.8709988
 138.1270012  25.3434997  35.4809988 137.4347022  25.5387506  35.9711648
 140.1880012  20.2814997  32.0929988 140.0890012  21.2284997  31.9879988
 139.4450012  19.9094997  31.6179988 140.0740564  20.3605902  32.0144560
 141.4520012  24.6034997  35.6569988 141.2160012  24.3834997  36.5589988
 140.6680012  24.3964997  35.1469988 141.3138628  24.5454760  35.7113932
 144.1670012  23.7304997  34.7329988 143.2200012  23.7624997  34.8649988
 144.4800012  23.1054997  35.3859988 144.0795475  23.6503207  34.8394455
 135.6280012  23.5744997  35.7849988 135.8400012  22.8674997  35.1749988
 135.5170012  23.1364997  36.6289988 135.6419721  23.4187084  35.8156843
 140.4090012  19.5754997  34.7649988 141.1210012  18.9354997  34.7509988
 140.3080012  19.8424997  33.8509988 140.4927939  19.5239938  34.6395650
 140.7630012  21.2584997  36.8179988 140.6310012  20.7824997  35.9979988
 140.1640012  22.0024997  36.7629988 140.6639071  21.2939618  36.6982886
 140.3090012  38.1414997  19.9949988 141.2420012  38.2994997  20.1379988
 140.0450012  38.8164997  19.3699988 140.4009510  38.2543611  19.9300741
 133.8780012  32.7774997  19.4769988 134.7920012  32.8564997  19.7509988
 133.8850012  32.0904997  18.8109988 134.0041131  32.6953961  19.4244393
 132.5270012  38.1704997  24.5549988 131.8800012  37.7084997  24.0219988
 132.8810012  37.4984997  25.1369988 132.4863849  38.0164723  24.5607959
 133.3970012  36.2514997  26.3589988 133.0620012  35.3714997  26.5309988
 133.6190012  36.5964997  27.2239988 133.3811783  36.1777501  26.4994208
 133.4770012  29.3264997  28.8109988 133.6610012  29.2444997  27.8749988
 134.3260012  29.2024997  29.2349988 133.6170139  29.2985003  28.7401455
 133.0740012  24.5974997  34.9519988 133.9940012  24.4754997  35.1879988
 132.6250012  23.8474997  35.3409988 133.1391580  24.4793727  35.0369006
 134.2950012  22.9094997  27.8429988 134.7410012  22.1174997  28.1449988
 134.7620012  23.6254997  28.2739988 134.4190172  22.8980624  27.9424820
 132.5990012  25.9084997  28.9119988 133.0910012  25.6874997  28.1209988
 132.9620012  26.7494997  29.1929988 132.7153126  25.9918357  28.8417531
 132.9130012  22.1664997  22.9659988 131.9880012  22.3754997  22.8369988
 133.3670012  22.6504997  22.2769988 132.8477368  22.2605993  22.8551226
 132.8770012  20.9044997  31.3109988 132.2120012  20.6584997  31.9539988
 132.4340012  21.5264997  30.7329988 132.7260956  20.9548632  31.3209352
 135.0690012  34.0794997  35.4549988 134.2480012  34.2544997  34.9949988
 134.8160012  34.0064997  36.3759988 134.9226164  34.0935622  35.5164923
 138.0230012  35.0544997  31.7139988 137.5980012  35.8634997  31.4309988
 138.9270012  35.1394997  31.4119988 138.0870271  35.1768469  31.6343776
 142.3340012  36.4534997  34.6729988 142.5190012  36.1194997  35.5509988
 143.1800012  36.7624997  34.3509988 142.4737539  36.4496047  34.7495605
 144.6790012  37.7394997  33.9169988 145.3560012  37.1064997  33.6769988
 145.0010012  38.1404997  34.7239988 144.8151637  37.7071154  33.9932793
 135.4250012  38.3104997  31.7609988 134.7040012  38.7504997  31.3099988
 135.0590012  38.0594997  32.6099988 135.2769804  38.3367698  31.8139840
 137.8920012  37.9104997  30.7909988 137.0270012  37.9824997  31.1949988
 137.8370012  38.4574997  30.0069988 137.7662085  37.9942685  30.7403362
 142.6020012  37.7984997  29.9659988 142.1460012  38.3274997  29.3119988
 142.7650012  38.4014997  30.6919988 142.5615585  37.9524468  29.9745062
 134.8390012  36.9334997  28.6709988 134.8210012  36.5084997  29.5289988
 135.6440012  36.6154997  28.2629988 134.9453875  36.8323812  28.7331655
 136.9810012  35.6434997  27.3259988 136.7620012  34.7274997  27.4959988
 137.8050012  35.7834997  27.7919988 137.0624420  35.5370520  27.4122774
 139.5180012  36.1134997  28.1749988 139.7310012  35.2254997  27.8879988
 139.5820012  36.0794997  29.1289988 139.5558231  35.9873102  28.2647397
 143.0260012  21.7774997  27.3189988 142.3520012  21.1484997  27.5749988
 143.5900012  21.2934997  26.7159988 143.0099230  21.6258744  27.2725340
 135.3530012  20.4114997  25.1409988 134.5760012  20.1774997  24.6339988
 135.8830012  19.6144997  25.1499988 135.3182330  20.2716988  25.0727742
 134.1890012  20.2094997  20.9449988 134.6280012  20.8204997  20.3529988
 133.5560012  20.7474997  21.4189988 134.1634514  20.3659257  20.9280930
 139.9320012  20.3384997  24.9549988 140.8070012  20.7264997  24.9249988
 139.7960012  20.1234997  25.8769988 140.0333695  20.3625184  25.0756440
 134.0900012  36.1574997  21.8429988 133.4050012  36.1194997  21.1749988
 134.0940012  37.0704997  22.1309988 133.9968193  36.2757016  21.7905284
 136.0500012  22.1254997  19.3869988 136.5420012  21.4954997  18.8599988
 136.6740012  22.4214997  20.0509988 136.2015446  22.0793199  19.4045980
 141.0760012  22.4184997  21.8439988 141.2540012  21.7724997  22.5269988
 141.0230012  23.2524997  22.3119988 141.0931829  22.4427985  22.0005940
 142.9550012  37.3674997  20.2399988 143.8210012  37.7334997  20.0619988
 142.7080012  36.9274997  19.4259988 143.0402392  37.3581756  20.1056289
 135.3110012  20.9254997  34.6589988 134.9450012  20.1604997  35.1019988
 136.2240012  20.9544997  34.9459988 135.3842790  20.8247224  34.7584070
 137.2840012  20.2764997  36.1949988 138.1820012  20.0024997  36.0099988
 136.8970012  19.5334997  36.6589988 137.3546612  20.1385914  36.2323643
 135.9080012  37.0774997  18.8679988 135.6410012  37.3644997  19.7409988
 136.6800012  36.5314997  19.0199988 135.9757488  37.0430294  19.0081050
  12.4390012  48.4234997  25.0999988  12.5280012  49.3674997  24.9679988
  11.8010012  48.1484997  24.4419988  12.3649081  48.5154830  24.9929614
  11.3720012  47.6784997  28.5189988  11.3340012  47.0324997  29.2239988
  11.0500012  47.2124997  27.7479988  11.3232333  47.5269408  28.5112978
   3.7410012  47.2934997  30.1119988   3.7820012  46.6674997  30.8349988
   4.4440012  47.9174997  30.2939988   3.8416363  47.2921196  30.2356044
  15.0780012  50.6174997  26.8199988  14.6380012  49.8974997  27.2709988
  15.0650012  51.3384997  27.4499988  15.0160226  50.6163731  26.9668494
   4.6640012  51.7434997  28.6469988   4.2950012  50.9414997  28.2769988
   5.6050012  51.5744997  28.6929988   4.7407289  51.6110153  28.6026316
   1.2740012  45.4034997  24.0399988   0.8270012  46.2494997  24.0209988
   0.7130012  44.8234997  23.5239988   1.1369900  45.4409916  23.9676801
   1.9850012  47.5654997  26.1659988   2.1980012  46.7954997  26.6929988
   2.7230012  47.6544997  25.5619988   2.1138496  47.4721394  26.1565300
  12.1900012  55.7224997  27.0329988  12.8100012  55.0454997  26.7589988
  11.9820012  55.5044997  27.9409988  12.2466904  55.6003870  27.1183365
   9.7620012  50.1114997  28.9249988  10.0660012  49.4254997  28.3299988
  10.4830012  50.2294997  29.5429988   9.9010671  50.0336305  28.9271816
  18.4250012  41.7124997  29.7859988  18.4740012  42.3224997  30.5219988
  18.8500012  42.1734997  29.0629988  18.4891824  41.8583741  29.7890205
  12.9030012  44.5054997  29.2529988  13.0450012  43.5594997  29.2729988
  12.7960012  44.7124997  28.3239988  12.9079864  44.4039534  29.1302339
   6.0570012  42.6064997  26.5249988   6.1010012  43.4664997  26.1069988
   5.6000012  42.0544997  25.8909988   6.0012185  42.6495799  26.3820299
  13.7800012  42.7374997  24.9259988  14.4260012  42.4084997  25.5509988
  14.2900012  43.2554997  24.3029988  13.9374264  42.7624611  24.9273862
   2.6780012  45.0034997  27.2869988   3.3310012  44.4534997  27.7189988
   2.7020012  44.7294997  26.3699988   2.7706683  44.8911466  27.2222123
   7.8340012  46.5534997  26.5019988   8.4500012  46.0274997  27.0119988
   7.2480012  45.9134997  26.0989988   7.8390810  46.3949208  26.5173173
  18.8160012  43.1904997  32.0219988  18.1280012  43.8484997  31.9259988
  18.8320012  42.9934997  32.9579988  18.7238525  43.2540462  32.1354808
   4.8680012  41.5244997  30.5989988   4.6490012  42.0544997  29.8329988
   4.2000012  41.7514997  31.2459988   4.7477600  41.6276906  30.5816379
  12.2370012  51.0244997  24.1429988  11.9410012  50.7024997  23.2919988
  11.9120012  51.9244997  24.1839988  12.1526371  51.1020215  24.0321801
   7.4370012  49.2004997  30.8859988   6.6970012  49.7984997  30.9899988
   8.1510012  49.7544997  30.5709988   7.4322237  49.3572831  30.8576465
  15.5440012  42.0284997  26.9059988  15.3280012  41.2624997  27.4389988
  16.1990012  42.5004997  27.4189988  15.6030632  41.9875889  27.0482861
   4.4610012  43.4164997  28.5509988   5.0750012  44.0494997  28.9249988
   4.9730012  42.9444997  27.8949988   4.6142296  43.4392370  28.5134252
   5.8440012  51.1644997  31.6739988   5.8390012  52.0444997  31.2959988
   4.9910012  51.0814997  32.0989988   5.7279464  51.2736117  31.6797907
   1.9650012  50.8354997  22.4559988   1.6930012  51.0644997  21.5669988
   2.0110012  51.6734997  22.9159988   1.9340094  50.9801213  22.3965697
  15.5900012  52.4574997  29.1679988  14.6490012  52.5154997  29.3299988
  15.8670012  53.3634997  29.0309988  15.4984679  52.5879443  29.1716815
  15.8910012  40.7434997  30.5859988  15.1550012  41.3544997  30.5479988
  16.5740012  41.1584997  30.0589988  15.8826541  40.8831374  30.5095832
   8.8940012  38.8304997  28.0519988   8.7770012  37.8814997  27.9969988
   8.0390012  39.1624997  28.3249988   8.7623733  38.7455409  28.0813897
  13.8420012  54.2384997  25.7939988  14.2680012  53.5314997  25.3089988
  14.1590012  55.0394997  25.3769988  13.9431019  54.2500994  25.6713130
  15.0020012  52.1394997  24.3019988  14.7440012  51.4494997  23.6909988
  15.0730012  51.6964997  25.1479988  14.9762856  51.9852124  24.3326885
  16.6880012  50.7054997  32.7799988  16.8280012  50.1144997  32.0399988
  16.8550012  51.5784997  32.4229988  16.7296778  50.7426426  32.6306965
  11.1610012  47.6674997  22.5519988  10.4490012  48.2024997  22.1999988
  11.8520012  47.7234997  21.8919988  11.1570132  47.7482543  22.4146289
  11.2140012  46.1254997  19.5909988  11.9150012  46.1474997  20.2419988
  11.5170012  45.4974997  18.9349988  11.3507830  46.0436566  19.5913711
  18.5300012  47.0454997  30.8459988  17.8770012  47.7404997  30.9349988
  18.9950012  47.2554997  30.0359988  18.5035390  47.1689425  30.7486883
  14.5660012  47.8774997  23.5039988  13.8340012  48.1054997  24.0769988
  15.0140012  47.1634997  23.9589988  14.5263095  47.8122571  23.6439119
  14.4640012  46.0514997  32.5709988  14.5440012  46.8144997  33.1429988
  13.8620012  46.3304997  31.8809988  14.3935756  46.1937134  32.5560589
   6.2120012  48.5074997  25.3859988   5.8810012  48.1374997  24.5679988
   6.8000012  47.8374997  25.7329988   6.2461873  48.3661156  25.3208102
   7.5780012  51.9354997  28.0679988   7.4840012  51.3574997  27.3109988
   8.3080012  51.5644997  28.5639988   7.6637981  51.8062390  28.0314165
   6.5780012  47.2764997  29.0199988   7.1440012  47.3974997  28.2569988
   6.8970012  47.9134997  29.6589988   6.6985786  47.3791884  29.0020040
  12.8870012  52.7794997  29.7539988  12.6470012  53.4414997  30.4019988
  12.6890012  51.9454997  30.1789988  12.8273808  52.7573134  29.9001524
   7.4580012  51.6754997  33.7369988   7.1470012  52.4574997  34.1919988
   6.8080012  51.5224997  33.0509988   7.3275558  51.7619105  33.7065871
  13.4370012  47.0394997  21.1889988  14.0170012  47.1894997  21.9359988
  13.8510012  47.5104997  20.4659988  13.5722830  47.1236841  21.1934134
   4.3780012  47.8734997  32.9659988   4.4490012  48.5244997  33.6639988
   3.4880012  47.9764997  32.6309988   4.2673117  47.9765936  33.0162700
  11.1640012  53.7764997  24.6239988  11.6380012  54.0714997  25.4019988
  10.6010012  54.5144997  24.3909988  11.1527653  53.9166932  24.6990136
   5.6980012  53.7474997  34.4999988   5.7050012  53.6114997  33.5529988
   4.7820012  53.6294997  34.7519988   5.5751714  53.7129430  34.4044666
  17.1360012  38.7894997  21.0019988  16.2360012  38.9284997  21.2969988
  17.3880012  39.6204997  20.5999988  17.0468702  38.9209074  20.9880205
   5.2020012  47.5774997  22.9759988   4.9100012  48.3454997  22.4849988
   4.5280012  46.9174997  22.8129988   5.0709081  47.5934406  22.8867340
  18.3250012  53.1554997  19.3779988  18.3990012  54.0944997  19.5489988
  19.2310012  52.8504997  19.3219988  18.4575100  53.2426722  19.3938119
   1.2950012  49.9404997  31.7909988   0.7940012  49.9124997  30.9759988
   1.3000012  49.0344997  32.0999988   1.2271526  49.8142278  31.7212872
   1.0450012  52.7204997  28.6749988   1.9910012  52.5764997  28.6559988
   0.9330012  53.5044997  29.2119988   1.1592727  52.8068046  28.7450072
  19.2430012  53.3864997  34.3569988  19.1940012  52.4314997  34.3199988
  18.4160012  53.6544997  34.7579988  19.1244940  53.2918998  34.4061375
  10.2220012  52.9604997  33.2329988  10.3090012  53.7864997  33.7079988
   9.3580012  52.6304997  33.4819988  10.1171964  53.0289878  33.3316549
  10.6360012  56.7324997  23.0389988  10.5610012  56.6114997  22.0929988
  10.6690012  57.6824997  23.1579988  10.6301848  56.8442500  22.9254834
   4.2890012  55.5214997  24.8199988   4.4420012  55.1734997  25.6989988
   3.4390012  55.1654997  24.5649988   4.1948962  55.4256650  24.9058340
  13.7380012  55.8864997  20.0409988  14.1130012  55.1424997  19.5709988
  13.7420012  55.6164997  20.9599988  13.7898915  55.7481486  20.1007824
  13.4070012  55.8124997  22.7909988  12.4710012  55.9124997  22.9689988
  13.6870012  55.1034997  23.3689988  13.3168255  55.7302711  22.8935391
  16.3950012  44.8794997  34.8369988  15.9880012  45.3604997  34.1159988
  16.4360012  43.9744997  34.5289988  16.3448437  44.8229374  34.6966683
   3.5440012  51.2634997  32.8339988   3.7600012  50.9024997  33.6929988
   2.6890012  50.8894997  32.6239988   3.4579292  51.1634111  32.9233386
   6.1630012  39.7334997  28.8289988   5.3010012  39.6464997  28.4219988
   6.1400012  40.5894997  29.2569988   6.0420330  39.8372765  28.8311863
  10.8260012  39.4554997  32.2039988  11.2460012  39.0404997  32.9569988
   9.8930012  39.2774997  32.3209988  10.7573644  39.3745900  32.3229539
  14.1520012  43.2114997  33.0569988  13.6380012  43.0854997  33.8549988
  13.9970012  44.1234997  32.8129988  14.0606852  43.3176132  33.1332158
  14.9150012  48.0724997  18.8189988  14.9570012  47.8494997  17.8889988
  15.7640012  48.4714997  19.0089988  15.0355396  48.0959155  18.7173627
  10.4870012  41.9484997  19.4889988  10.2340012  41.9674997  20.4119988
  10.2310012  41.0764997  19.1879988  10.4177790  41.8332437  19.5746263
   6.2540012  44.6994997  29.9239988   5.6120012  44.6584997  30.6329988
   6.2910012  45.6254997  29.6869988   6.1711324  44.8191559  29.9889824
   6.2510012  44.9204997  24.8359988   5.3580012  44.5794997  24.7779988
   6.7010012  44.5434997  24.0809988   6.1897305  44.8228484  24.7259177
  11.7860012  45.3364997  23.6529988  11.3770012  46.1514997  23.3619988
  12.5070012  45.1964997  23.0389988  11.8274537  45.4292018  23.5301342
  10.8880012  45.5114997  35.1409988  10.3260012  44.8074997  35.4619988
  11.7150012  45.3914997  35.6089988  10.9227095  45.3987883  35.2482330
  12.7910012  44.7824997  26.4669988  12.5960012  45.3874997  25.7519988
  12.9720012  43.9484997  26.0329988  12.7887614  44.7526300  26.3104405
   4.0040012  45.0194997  31.7909988   3.9660012  45.4194997  32.6599988
   3.5130012  44.2024997  31.8819988   3.9324684  44.9638069  31.9221059
   7.3700012  42.3934997  18.5899988   6.9390012  41.9484997  19.3199988
   6.6520012  42.7654997  18.0779988   7.2139438  42.3828940  18.6206799
   0.6120012  42.1354997  25.6419988   1.2430012  42.1064997  26.3609988
   1.0610012  41.7104997  24.9119988   0.7590774  42.0740492  25.6416553
   1.8860012  42.8814997  21.0659988   2.3600012  43.4724997  20.4809988
   1.1690012  43.4124997  21.4129988   1.8539341  43.0340867  21.0328836
  12.0550012  46.4204997  31.1389988  12.3780012  45.7894997  30.4959988
  11.6150012  45.8854997  31.7989988  12.0396895  46.2618441  31.1402850
   8.8320012  42.3474997  25.9229988   7.9210012  42.4044997  26.2109988
   9.3380012  42.2874997  26.7329988   8.7755413  42.3471985  26.0720622
   3.6610012  43.9764997  24.7489988   2.7710012  44.0764997  24.4089988
   3.9570012  43.1344997  24.4029988   3.5792823  43.8763545  24.6557213
   7.3140012  43.9764997  22.4059988   8.2450012  44.1054997  22.5839988
   7.0990012  44.6464997  21.7559988   7.4124247  44.0846565  22.3425747
  13.2370012  41.5824997  29.1869988  12.5610012  41.7134997  29.8509988
  12.7520012  41.4274997  28.3769988  13.0787145  41.5794905  29.1684517
   5.9880012  45.1714997  19.9729988   5.4450012  44.7914997  19.2809988
   6.8210012  45.3654997  19.5439988   6.0264399  45.1458124  19.8204526
  16.5250012  57.2544997  35.4639988  16.7250012  57.6784997  34.6289988
  17.1800012  57.5974997  36.0709988  16.6410051  57.3589648  35.4317836
   4.1230012  49.7284997  35.0719988   4.8550012  49.9824997  35.6329988
   3.3430012  49.9324997  35.5869988   4.1178232  49.7909177  35.2185760
  10.1520012  45.1354997  27.8099988  10.7170012  44.5884997  27.2629988
  10.0050012  44.6134997  28.5979988  10.2092918  44.9902024  27.8418454
   5.1540012  41.2714997  24.2279988   4.8370012  40.3694997  24.1929988
   5.9360012  41.2734997  23.6749988   5.2162284  41.1481628  24.1484783
   8.7790012  43.5234997  30.2239988   7.9430012  43.9774997  30.3339988
   9.3030012  43.7994997  30.9759988   8.7354414  43.6229376  30.3407136
   9.3230012  49.7364997  21.9079988   8.5780012  49.2294997  21.5859988
   9.1890012  49.7854997  22.8549988   9.2028776  49.6736940  21.9918647
  16.4730012  48.8694997  30.6949988  17.1150012  49.3264997  30.1509988
  15.6430012  48.9824997  30.2319988  16.4485963  48.9472704  30.5580177
  13.2210012  42.5504997  20.1079988  12.2820012  42.6624997  19.9559988
  13.5180012  43.4074997  20.4139988  13.1327666  42.6816443  20.1285768
  10.8420012  49.9204997  33.1449988  10.4970012  49.5394997  33.9519988
  10.6420012  50.8544997  33.2169988  10.7678061  49.9945228  33.2650961
  13.9390012  44.4174997  21.7679988  14.8310012  44.2804997  22.0869988
  13.9960012  45.2084997  21.2319988  14.0686285  44.5056660  21.7391691
   4.4480012  49.0314997  27.6779988   5.1930012  49.0294997  27.0769988
   4.5260012  48.2084997  28.1599988   4.5605518  48.9199315  27.6608929
  11.4490012  51.1954997  20.9339988  11.1530012  52.0214997  21.3149988
  10.7460012  50.5754997  21.1299988  11.3134914  51.2248199  21.0126443
   1.4560012  47.4924997  32.9929988   1.6790012  47.0744997  33.8249988
   0.8540012  46.8794997  32.5699988   1.4051759  47.3524668  33.0497022
   8.4720012  47.0094997  35.2059988   8.1760012  46.8434997  34.3109988
   9.4040012  46.7894997  35.1949988   8.5574166  46.9570640  35.0820536
  13.0930012  52.3824997  33.0959988  12.1920012  52.5654997  32.8279988
  13.1270012  52.6414997  34.0169988  12.9743041  52.4425512  33.1838197
  18.8240012  44.6274997  21.4629988  18.2700012  44.2314997  20.7909988
  18.9240012  45.5374997  21.1849988  18.7617059  44.6963586  21.3334401
  18.7870012  50.4274997  34.2999988  17.9360012  50.6654997  33.9329988
  19.3780012  50.4104997  33.5469988  18.7502487  50.4578258  34.1478893
  17.1190012  53.4134997  21.9279988  16.7460012  52.5874997  22.2369988
  17.3970012  53.2304997  21.0309988  17.1055630  53.2757303  21.8489626
  14.2800012  48.2214997  28.9489988  13.3510012  47.9894997  28.9219988
  14.7310012  47.4444997  28.6189988  14.2139216  48.0847238  28.9006917
   6.8230012  52.5494997  25.0819988   7.3500012  53.3224997  24.8819988
   5.9430012  52.7744997  24.7809988   6.7761773  52.6858005  25.0139010
   2.5780012  47.4114997  19.6689988   3.1940012  48.0384997  20.0489988
   1.7160012  47.7274997  19.9409988   2.5457698  47.5399430  19.7577183
   8.2500012  50.2124997  24.6589988   8.0090012  51.1374997  24.6999988
   7.5090012  49.7534997  25.0549988   8.1168409  50.2771421  24.7181377
   8.7650012  54.3614997  30.9739988   9.1270012  55.2164997  30.7399988
   9.2960012  54.0694997  31.7139988   8.8864473  54.4391060  31.0420855
   6.9330012  55.2344997  24.2039988   5.9830012  55.3394997  24.2549988
   7.2850012  56.0544997  24.5489988   6.8504203  55.3598314  24.2576650
  12.3090012  50.4604997  30.6739988  11.8830012  50.2334997  31.5009988
  12.8890012  49.7224997  30.4919988  12.3291868  50.3295299  30.7625830
  14.5120012  51.3894997  19.7479988  14.8650012  51.0094997  20.5529988
  13.5630012  51.2964997  19.8349988  14.4320441  51.3249596  19.8698559
  14.9670012  55.0124997  33.1439988  14.3660012  54.4574997  32.6479988
  15.2490012  55.6794997  32.5179988  14.9228519  55.0266841  32.9914952
  19.0150012  55.8694997  19.9489988  19.7590012  56.4554997  19.8089988
  18.3210012  56.4374997  20.2829988  19.0230292  56.0265582  19.9749961
   3.0900012  42.2454997  32.5509988   2.1970012  42.5844997  32.4829988
   2.9910012  41.3904997  32.9689988   2.9544164  42.1762588  32.5982235
  15.3780012  50.0624997  21.9749988  15.1000012  49.3344997  22.5309988
  16.3050012  50.1814997  22.1799988  15.4653124  49.9788802  22.0788845
   2.7410012  54.0504997  30.9859988   2.9580012  53.1184997  30.9549988
   2.9870012  54.3244997  31.8689988   2.8039549  53.9600636  31.1011763
   8.6030012  52.5014997  18.1949988   8.8420012  51.7534997  17.6479988
   8.3340012  52.1134997  19.0279988   8.5993675  52.3466638  18.2326865
   7.5400012  52.0714997  20.6519988   7.6860012  51.5514997  21.4419988
   7.5370012  52.9784997  20.9579988   7.5595989  52.1228853  20.8016088
   3.9930012  49.3244997  21.1619988   3.3070012  49.6764997  21.7289988
   4.5150012  50.0874997  20.9149988   3.9696852  49.4758578  21.2062118
  11.8240012  41.9864997  31.4409988  12.5230012  42.0604997  32.0909988
  11.4430012  41.1224997  31.5949988  11.8681767  41.8797624  31.5508322
  12.6090012  41.6384997  22.5379988  12.8290012  42.1104997  21.7349988
  13.1670012  42.0334997  23.2079988  12.7144968  41.7564285  22.5187331
  10.2770012  53.7694997  21.4009988   9.4610012  54.2664997  21.4529988
  10.8070012  54.2444997  20.7609988  10.2369161  53.9017722  21.3215956
   9.8090012  43.3664997  23.3729988  10.6210012  43.8714997  23.4189988
   9.5640012  43.2214997  24.2869988   9.8870520  43.4160375  23.5028517
  10.3440012  44.3524997  32.5579988  10.4630012  44.9264997  33.3149988
  11.0000012  43.6644997  32.6719988  10.4489757  44.3381079  32.6770825
  10.6920012  40.4474997  24.3109988  10.3460012  41.0654997  24.9559988
  11.3510012  40.9484997  23.8299988  10.7337826  40.5995802  24.3340971
   7.6160012  54.8134997  21.3829988   7.7760012  55.6124997  20.8819988
   7.4180012  55.1194997  22.2679988   7.6111649  54.9644469  21.4339815
   6.3500012  41.5104997  20.9979988   6.2670012  42.3994997  21.3449988
   7.2400012  41.2454997  21.2299988   6.4589469  41.5961430  21.0767626
  16.5490012  42.2594997  33.3929988  15.6320012  42.5224997  33.3049988
  16.8840012  42.2564997  32.4959988  16.4689900  42.2950224  33.2597919
  15.1510012  46.0104997  27.4879988  14.3530012  45.5954997  27.1599988
  15.5960012  45.3194997  27.9789988  15.1019885  45.8603543  27.5094889
   4.6090012  51.9384997  20.0589988   5.2010012  52.6374997  20.3349988
   5.0680012  51.5054997  19.3389988   4.7521142  51.9757049  19.9994830
   2.9250012  44.6024997  19.1749988   2.8800012  45.5414997  19.3529988
   2.0370012  44.3664997  18.9049988   2.7988574  44.6991892  19.1628912
  16.2370012  55.2664997  29.1109988  16.0820012  55.9444997  28.4539988
  17.1700012  55.3384997  29.3139988  16.3418500  55.3690170  29.0485119
   3.7330012  39.3844997  27.8479988   3.5040012  39.4434997  26.9199988
   3.2900012  38.5924997  28.1539988   3.6418530  39.2855753  27.7624786
   2.6630012  53.3244997  24.0079988   1.8310012  53.7974997  24.0359988
   3.2090012  53.8344997  23.4099988   2.6229739  53.4581871  23.9309716
   1.9510012  55.9374997  35.3379988   2.4920012  55.7204997  36.0979988
   1.4700012  55.1314997  35.1489988   1.9599345  55.7989514  35.4163076
   6.5490012  54.8564997  36.9589988   7.3160012  54.3974997  37.2999988
   6.5270012  54.6304997  36.0289988   6.6511434  54.7630409  36.8800043
  10.6410012  54.3644997  18.3339988   9.9970012  53.7334997  18.6549988
  11.4030012  53.8334997  18.1019988  10.6558077  54.2062920  18.3466011
  13.1260012  53.2364997  35.6879988  12.7750012  52.3804997  35.9309988
  13.8520012  53.3794997  36.2949988  13.1760769  53.1385636  35.8033619
  15.2450012  54.1814997  18.5679988  15.5280012  53.3874997  19.0199988
  15.9850012  54.4144997  18.0069988  15.3837486  54.1042803  18.5540698
   1.8580012  49.7474997  36.2929988   2.0020012  48.8454997  36.0059988
   1.0860012  50.0334997  35.8049988   1.7733322  49.6628261  36.1877881
   6.2000012  50.0914997  18.4249988   6.2640012  49.2974997  18.9559988
   6.8530012  49.9724997  17.7349988   6.2970241  49.9667148  18.4044317
   8.5140012  49.7174997  35.7249988   8.1850012  49.9884997  34.8679988
   8.6660012  48.7764997  35.6379988   8.4894809  49.6273862  35.5958244
  11.5520012  51.1384997  18.1609988  11.2830012  51.3184997  19.0619988
  11.3460012  50.2124997  18.0299988  11.4873825  51.0380152  18.2665214
  14.2480012  49.6334997  33.1089988  14.9940012  50.2214997  32.9889988
  13.4910012  50.2154997  33.1719988  14.2477554  49.7927011  33.1010907
   2.6910012  46.9474997  35.7129988   3.0990012  46.0904997  35.5919988
   2.4310012  46.9624997  36.6339988   2.7117568  46.8320807  35.8209588
   7.3490012  48.0634997  20.7309988   6.8890012  47.5794997  21.4169988
   7.6040012  47.3954997  20.0949988   7.3204902  47.9068731  20.7389334
   6.6380012  45.9564997  33.0869988   6.0200012  46.6314997  33.3669988
   6.9820012  46.2774997  32.2539988   6.5999615  46.0922721  33.0126581
   8.4200012  46.3064997  18.9929988   8.2400012  46.1524997  18.0659988
   9.3700012  46.4144997  19.0379988   8.5237776  46.3000175  18.8721843
  11.6580012  48.4284997  36.3639988  12.6110012  48.5114997  36.3369988
  11.4970012  47.7164997  36.9839988  11.7666426  48.3436746  36.4440579
  17.8100012  48.6614997  18.4389988  17.5360012  48.2364997  17.6259988
  17.8490012  49.5924997  18.2219988  17.7777699  48.7292484  18.2983610
   6.9770012  43.3114997  34.1689988   7.1270012  42.5824997  33.5669988
   6.9800012  44.0884997  33.6099988   6.9979302  43.3167851  34.0110692
   7.3900012  41.6814997  31.6619988   7.9260012  42.1324997  31.0099988
   6.5380012  41.5734997  31.2389988   7.3482178  41.7286390  31.5155756
   8.9720012  47.1204997  31.9009988   9.7220012  46.9644997  31.3279988
   8.6330012  47.9724997  31.6259988   9.0288921  47.2142968  31.7853561
  13.3870012  44.9354997  36.9299988  13.5800012  44.0044997  36.8179988
  14.2450012  45.3604997  36.9199988  13.5293020  44.8656389  36.9133361
  14.7040012  47.7244997  35.0069988  14.4230012  48.4334997  34.4299988
  15.6470012  47.6514997  34.8559988  14.7929027  47.8117646  34.9075551
   5.4560012  44.5094997  36.0809988   4.6890012  43.9774997  35.8709988
   6.1350012  44.1994997  35.4809988   5.4427022  44.3947506  35.9711648
   8.1960012  39.1374997  32.0929988   8.0970012  40.0844997  31.9879988
   7.4530012  38.7654997  31.6179988   8.0820563  39.2165902  32.0144560
   9.4600012  43.4594997  35.6569988   9.2240012  43.2394997  36.5589988
   8.6760012  43.2524997  35.1469988   9.3218628  43.4014760  35.7113932
  12.1750012  42.5864997  34.7329988  11.2280012  42.6184997  34.8649988
  12.4880012  41.9614997  35.3859988  12.0875475  42.5063207  34.8394455
  13.8090012  41.2204997  36.7379988  13.7130012  40.2684997  36.7319988
  13.4880012  41.4894997  37.5979988  13.7524070  41.1264035  36.8535441
   3.6360012  42.4304997  35.7849988   3.8480012  41.7234997  35.1749988
   3.5250012  41.9924997  36.6289988   3.6499721  42.2747084  35.8156843
   8.4170012  38.4314997  34.7649988   9.1290012  37.7914997  34.7509988
   8.3160012  38.6984997  33.8509988   8.5007939  38.3799938  34.6395650
   8.7710012  40.1144997  36.8179988   8.6390012  39.6384997  35.9979988
   8.1720012  40.8584997  36.7629988   8.6719071  40.1499618  36.6982886
   8.3170012  56.9974997  19.9949988   9.2500012  57.1554997  20.1379988
   8.0530012  57.6724997  19.3699988   8.4089510  57.1103611  19.9300741
   1.8860012  51.6334997  19.4769988   2.8000012  51.7124997  19.7509988
   1.8930012  50.9464997  18.8109988   2.0121131  51.5513961  19.4244393
   0.5350012  57.0264997  24.5549988  -0.1119988  56.5644997  24.0219988
   0.8890012  56.3544997  25.1369988   0.4943849  56.8724723  24.5607959
   1.4050012  55.1074997  26.3589988   1.0700012  54.2274997  26.5309988
   1.6270012  55.4524997  27.2239988   1.3891783  55.0337500  26.4994208
  18.9530012  55.9164997  29.3399988  18.9320012  56.1014997  30.2789988
  19.6440012  56.4854997  28.9989988  19.0434618  56.0186606  29.4223864
  18.5170012  55.4844997  32.2619988  18.0290012  54.7484997  31.8909988
  19.0660012  55.0904997  32.9399988  18.5244872  55.3306249  32.3029160
  16.9670012  51.2734997  36.8999988  16.1010012  51.1684997  37.2939988
  17.3440012  52.0324997  37.3459988  16.8993308  51.3616900  37.0142393
  18.2680012  49.5304997  22.4139988  19.1180012  49.9514997  22.5409988
  18.2740012  48.7904997  23.0209988  18.3851372  49.4880803  22.5134344
  18.6630012  47.5834997  24.2379988  17.9360012  47.1044997  24.6349988
  19.2440012  47.7894997  24.9699988  18.6419375  47.5457090  24.3914129
  18.4220012  50.3684997  29.1849988  19.2550012  49.9904997  28.9049988
  18.5340012  51.3114997  29.0659988  18.5512647  50.4442218  29.1305487
  16.9080012  53.2464997  31.4919988  16.2610012  53.5714997  32.1179988
  16.3910012  52.8064997  30.8179988  16.7494029  53.2315004  31.4865827
  18.9310012  47.4844997  20.6289988  18.4090012  47.8414997  19.9099988
  18.8980012  48.1594997  21.3069988  18.8551634  47.6245413  20.6223145
  17.2800012  44.7244997  19.1799988  17.3760012  45.3914997  18.4989988
  17.1400012  43.9084997  18.6979988  17.2742135  44.7054500  19.0218491
  16.4490012  46.1044997  24.8009988  16.2990012  45.1594997  24.7799988
  16.0960012  46.3854997  25.6439988  16.3806625  46.0130441  24.9122346
   1.4850012  48.1824997  28.8109988   1.6690012  48.1004997  27.8749988
   2.3340012  48.0584997  29.2349988   1.6250139  48.1545003  28.7401455
  17.3060012  48.0744997  34.4389988  17.8890012  47.3404997  34.6309988
  17.8700012  48.8464997  34.4859988  17.4619769  48.0784227  34.4716159
  18.8020012  45.9774997  35.1239988  17.9390012  45.5984997  34.9579988
  19.4070012  45.2384997  35.0499988  18.7655979  45.8258023  35.0912817
  16.5270012  42.1324997  18.2969988  17.1380012  41.7614997  18.9339988
  15.6910012  41.7114997  18.4929988  16.4975032  42.0247554  18.4107035
  16.1600012  43.6874997  23.2629988  16.4400012  42.7804997  23.3869988
  16.9190012  44.1214997  22.8739988  16.3009277  43.6220942  23.2273682
  16.7720012  44.2684997  28.6989988  17.7050012  44.4804997  28.6649988
  16.5370012  44.3704997  29.6209988  16.8678036  44.3112769  28.8189976
  16.8010012  45.0054997  31.4749988  15.9580012  45.2734997  31.8409988
  17.2430012  45.8274997  31.2639988  16.7454158  45.1533291  31.4965491
   1.0820012  43.4534997  34.9519988   2.0020012  43.3314997  35.1879988
   0.6330012  42.7034997  35.3409988   1.1471580  43.3353727  35.0369006
  19.0840012  38.9854997  36.8279988  19.4340012  38.3314997  36.2229988
  19.2310012  39.8224997  36.3889988  19.1518419  39.0091591  36.6857118
  16.7730012  40.9504997  23.3109988  16.9560012  40.5014997  24.1369988
  16.1740012  40.3654997  22.8479988  16.7170202  40.8099975  23.3613275
   2.3030012  41.7654997  27.8429988   2.7490012  40.9734997  28.1449988
   2.7700012  42.4814997  28.2739988   2.4270172  41.7540624  27.9424820
   0.6070012  44.7644997  28.9119988   1.0990012  44.5434997  28.1209988
   0.9700012  45.6054997  29.1929988   0.7233126  44.8478357  28.8417531
  18.6040012  41.0944997  35.1779988  17.6860012  41.3654997  35.1419988
  18.7270012  40.5594997  34.3929988  18.4951066  41.0592892  35.0670487
  18.6400012  41.0174997  19.8389988  19.0520012  40.2964997  19.3639988
  19.3220012  41.6874997  19.8979988  18.7885885  41.0092368  19.7818915
   0.9210012  41.0224997  22.9659988  -0.0039988  41.2314997  22.8369988
   1.3750012  41.5064997  22.2769988   0.8557368  41.1165993  22.8551226
  15.6920012  56.0064997  24.9119988  16.3440012  55.6594997  24.3039988
  16.2020012  56.4954997  25.5579988  15.8502637  56.0250597  24.9160236
   0.8850012  39.7604997  31.3109988   0.2200012  39.5144997  31.9539988
   0.4420012  40.3824997  30.7329988   0.7340956  39.8108632  31.3209352
   3.0770012  52.9354997  35.4549988   2.2560012  53.1104997  34.9949988
   2.8240012  52.8624997  36.3759988   2.9306164  52.9495622  35.5164923
   6.0310012  53.9104997  31.7139988   5.6060012  54.7194997  31.4309988
   6.9350012  53.9954997  31.4119988   6.0950271  54.0328469  31.6343776
  10.3420012  55.3094997  34.6729988  10.5270012  54.9754997  35.5509988
  11.1880012  55.6184997  34.3509988  10.4817539  55.3056047  34.7495605
  12.6870012  56.5954997  33.9169988  13.3640012  55.9624997  33.6769988
  13.0090012  56.9964997  34.7239988  12.8231637  56.5631154  33.9932793
  17.6040012  39.1844997  32.9969988  16.7920012  39.5094997  32.6089988
  17.8370012  38.4244997  32.4639988  17.5243423  39.1262436  32.8718253
   3.4330012  57.1664997  31.7609988   2.7120012  57.6064997  31.3099988
   3.0670012  56.9154997  32.6099988   3.2849804  57.1927698  31.8139840
   5.9000012  56.7664997  30.7909988   5.0350012  56.8384997  31.1949988
   5.8450012  57.3134997  30.0069988   5.7742085  56.8502685  30.7403362
  10.6100012  56.6544997  29.9659988  10.1540012  57.1834997  29.3119988
  10.7730012  57.2574997  30.6919988  10.5695585  56.8084468  29.9745062
  12.9380012  55.5324997  30.9109988  12.0330012  55.6974997  30.6459988
  13.3670012  56.3854997  30.8459988  12.8720799  55.6704483  30.8659182
  15.5420012  57.1024997  31.2059988  15.3600012  58.0184997  30.9959988
  15.7190012  56.6924997  30.3599988  15.5410210  57.1724822  31.0627885
   2.8470012  55.7894997  28.6709988   2.8290012  55.3644997  29.5289988
   3.6520012  55.4714997  28.2629988   2.9533875  55.6883812  28.7331655
   4.9890012  54.4994997  27.3259988   4.7700012  53.5834997  27.4959988
   5.8130012  54.6394997  27.7919988   5.0704420  54.3930520  27.4122774
   7.5260012  54.9694997  28.1749988   7.7390012  54.0814997  27.8879988
   7.5900012  54.9354997  29.1289988   7.5638231  54.8433102  28.2647397
  11.0340012  40.6334997  27.3189988  10.3600012  40.0044997  27.5749988
  11.5980012  40.1494997  26.7159988  11.0179230  40.4818744  27.2725340
  16.1770012  38.7414997  27.4319988  16.7810012  39.2884997  26.9299988
  15.3070012  39.0604997  27.1919988  16.1421241  38.8595806  27.3307654
  17.9040012  39.8794997  25.7649988  18.5160012  39.3654997  25.2389988
  18.2860012  40.7574997  25.7889988  18.0394540  39.9277140  25.6961830
   3.3610012  39.2674997  25.1409988   2.5840012  39.0334997  24.6339988
   3.8910012  38.4704997  25.1499988   3.3262330  39.1276988  25.0727742
   2.1970012  39.0654997  20.9449988   2.6360012  39.6764997  20.3529988
   1.5640012  39.6034997  21.4189988   2.1714514  39.2219257  20.9280930
   7.9400012  39.1944997  24.9549988   8.8150012  39.5824997  24.9249988
   7.8040012  38.9794997  25.8769988   8.0413695  39.2185184  25.0756440
  13.4970012  39.2244997  26.6039988  13.5730012  39.3194997  25.6539988
  13.2220012  38.3164997  26.7329988  13.4702321  39.1147867  26.4915079
  14.8500012  39.2504997  22.2959988  14.1480012  39.8654997  22.0869988
  14.4060012  38.4124997  22.4269988  14.6936330  39.2215783  22.2850328
   2.0980012  55.0134997  21.8429988   1.4130012  54.9754997  21.1749988
   2.1020012  55.9264997  22.1309988   2.0048193  55.1317016  21.7905284
   4.0580012  40.9814997  19.3869988   4.5500012  40.3514997  18.8599988
   4.6820012  41.2774997  20.0509988   4.2095446  40.9353199  19.4045980
   9.0840012  41.2744997  21.8439988   9.2620012  40.6284997  22.5269988
   9.0310012  42.1084997  22.3119988   9.1011829  41.2987985  22.0005940
  10.9630012  56.2234997  20.2399988  11.8290012  56.5894997  20.0619988
  10.7160012  55.7834997  19.4259988  11.0482392  56.2141756  20.1056289
  17.6720012  55.7864997  22.9189988  17.4770012  55.0384997  22.3539988
  17.6330012  56.5444997  22.3359988  17.6400380  55.7866099  22.7628384
   3.3190012  39.7814997  34.6589988   2.9530012  39.0164997  35.1019988
   4.2320012  39.8104997  34.9459988   3.3922790  39.6807224  34.7584070
   5.2920012  39.1324997  36.1949988   6.1900012  38.8584997  36.0099988
   4.9050012  38.3894997  36.6589988   5.3626612  38.9945914  36.2323643
   3.9160012  55.9334997  18.8679988   3.6490012  56.2204997  19.7409988
   4.6880012  55.3874997  19.0199988   3.9837488  55.8990294  19.0081050
  13.7130012  38.4644997  36.3769988  13.7900012  38.0384997  37.2309988
  14.6070012  38.4784997  36.0339988  13.8443428  38.4080879  36.4475310
  16.8890012  54.5374997  35.0689988  16.1070012  54.3514997  34.5499988
  16.8170012  55.4664997  35.2869988  16.7721777  54.6376492  35.0274048
  31.2950012  48.4234997  25.0999988  31.3840012  49.3674997  24.9679988
  30.6570012  48.1484997  24.4419988  31.2209081  48.5154830  24.9929614
  30.2280012  47.6784997  28.5189988  30.1900012  47.0324997  29.2239988
  29.9060012  47.2124997  27.7479988  30.1792333  47.5269408  28.5112978
  22.5970012  47.2934997  30.1119988  22.6380012  46.6674997  30.8349988
  23.3000012  47.9174997  30.2939988  22.6976363  47.2921196  30.2356044
  33.9340012  50.6174997  26.8199988  33.4940012  49.8974997  27.2709988
  33.9210012  51.3384997  27.4499988  33.8720226  50.6163731  26.9668494
  23.5200012  51.7434997  28.6469988  23.1510012  50.9414997  28.2769988
  24.4610012  51.5744997  28.6929988  23.5967289  51.6110153  28.6026316
  20.1300012  45.4034997  24.0399988  19.6830012  46.2494997  24.0209988
  19.5690012  44.8234997  23.5239988  19.9929900  45.4409916  23.9676801
  20.8410012  47.5654997  26.1659988  21.0540012  46.7954997  26.6929988
  21.5790012  47.6544997  25.5619988  20.9698496  47.4721394  26.1565300
  31.0460012  55.7224997  27.0329988  31.6660012  55.0454997  26.7589988
  30.8380012  55.5044997  27.9409988  31.1026904  55.6003870  27.1183365
  28.6180012  50.1114997  28.9249988  28.9220012  49.4254997  28.3299988
  29.3390012  50.2294997  29.5429988  28.7570671  50.0336305  28.9271816
  37.2810012  41.7124997  29.7859988  37.3300012  42.3224997  30.5219988
  37.7060012  42.1734997  29.0629988  37.3451824  41.8583741  29.7890205
  31.7590012  44.5054997  29.2529988  31.9010012  43.5594997  29.2729988
  31.6520012  44.7124997  28.3239988  31.7639864  44.4039534  29.1302339
  24.9130012  42.6064997  26.5249988  24.9570012  43.4664997  26.1069988
  24.4560012  42.0544997  25.8909988  24.8572185  42.6495799  26.3820299
  32.6360012  42.7374997  24.9259988  33.2820012  42.4084997  25.5509988
  33.1460012  43.2554997  24.3029988  32.7934264  42.7624611  24.9273862
  21.5340012  45.0034997  27.2869988  22.1870012  44.4534997  27.7189988
  21.5580012  44.7294997  26.3699988  21.6266683  44.8911466  27.2222123
  26.6900012  46.5534997  26.5019988  27.3060012  46.0274997  27.0119988
  26.1040012  45.9134997  26.0989988  26.6950810  46.3949208  26.5173173
  37.6720012  43.1904997  32.0219988  36.9840012  43.8484997  31.9259988
  37.6880012  42.9934997  32.9579988  37.5798525  43.2540462  32.1354808
  23.7240012  41.5244997  30.5989988  23.5050012  42.0544997  29.8329988
  23.0560012  41.7514997  31.2459988  23.6037600  41.6276906  30.5816379
  31.0930012  51.0244997  24.1429988  30.7970012  50.7024997  23.2919988
  30.7680012  51.9244997  24.1839988  31.0086371  51.1020215  24.0321801
  26.2930012  49.2004997  30.8859988  25.5530012  49.7984997  30.9899988
  27.0070012  49.7544997  30.5709988  26.2882237  49.3572831  30.8576465
  34.4000012  42.0284997  26.9059988  34.1840012  41.2624997  27.4389988
  35.0550012  42.5004997  27.4189988  34.4590632  41.9875889  27.0482861
  23.3170012  43.4164997  28.5509988  23.9310012  44.0494997  28.9249988
  23.8290012  42.9444997  27.8949988  23.4702296  43.4392370  28.5134252
  24.7000012  51.1644997  31.6739988  24.6950012  52.0444997  31.2959988
  23.8470012  51.0814997  32.0989988  24.5839464  51.2736117  31.6797907
  20.8210012  50.8354997  22.4559988  20.5490012  51.0644997  21.5669988
  20.8670012  51.6734997  22.9159988  20.7900094  50.9801213  22.3965697
  34.4460012  52.4574997  29.1679988  33.5050012  52.5154997  29.3299988
  34.7230012  53.3634997  29.0309988  34.3544679  52.5879443  29.1716815
  34.7470012  40.7434997  30.5859988  34.0110012  41.3544997  30.5479988
  35.4300012  41.1584997  30.0589988  34.7386541  40.8831374  30.5095832
  27.7500012  38.8304997  28.0519988  27.6330012  37.8814997  27.9969988
  26.8950012  39.1624997  28.3249988  27.6183733  38.7455409  28.0813897
  32.6980012  54.2384997  25.7939988  33.1240012  53.5314997  25.3089988
  33.0150012  55.0394997  25.3769988  32.7991019  54.2500994  25.6713130
  33.8580012  52.1394997  24.3019988  33.6000012  51.4494997  23.6909988
  33.9290012  51.6964997  25.1479988  33.8322856  51.9852124  24.3326885
  35.5440012  50.7054997  32.7799988  35.6840012  50.1144997  32.0399988
  35.7110012  51.5784997  32.4229988  35.5856778  50.7426426  32.6306965
  30.0170012  47.6674997  22.5519988  29.3050012  48.2024997  22.1999988
  30.7080012  47.7234997  21.8919988  30.0130132  47.7482543  22.4146289
  30.0700012  46.1254997  19.5909988  30.7710012  46.1474997  20.2419988
  30.3730012  45.4974997  18.9349988  30.2067830  46.0436566  19.5913711
  37.3860012  47.0454997  30.8459988  36.7330012  47.7404997  30.9349988
  37.8510012  47.2554997  30.0359988  37.3595390  47.1689425  30.7486883
  33.4220012  47.8774997  23.5039988  32.6900012  48.1054997  24.0769988
  33.8700012  47.1634997  23.9589988  33.3823095  47.8122571  23.6439119
  33.3200012  46.0514997  32.5709988  33.4000012  46.8144997  33.1429988
  32.7180012  46.3304997  31.8809988  33.2495756  46.1937134  32.5560589
  25.0680012  48.5074997  25.3859988  24.7370012  48.1374997  24.5679988
  25.6560012  47.8374997  25.7329988  25.1021873  48.3661156  25.3208102
  26.4340012  51.9354997  28.0679988  26.3400012  51.3574997  27.3109988
  27.1640012  51.5644997  28.5639988  26.5197981  51.8062390  28.0314165
  25.4340012  47.2764997  29.0199988  26.0000012  47.3974997  28.2569988
  25.7530012  47.9134997  29.6589988  25.5545786  47.3791884  29.0020040
  31.7430012  52.7794997  29.7539988  31.5030012  53.4414997  30.4019988
  31.5450012  51.9454997  30.1789988  31.6833808  52.7573134  29.9001524
  26.3140012  51.6754997  33.7369988  26.0030012  52.4574997  34.1919988
  25.6640012  51.5224997  33.0509988  26.1835558  51.7619105  33.7065871
  32.2930012  47.0394997  21.1889988  32.8730012  47.1894997  21.9359988
  32.7070012  47.5104997  20.4659988  32.4282830  47.1236841  21.1934134
  23.2340012  47.8734997  32.9659988  23.3050012  48.5244997  33.6639988
  22.3440012  47.9764997  32.6309988  23.1233117  47.9765936  33.0162700
  30.0200012  53.7764997  24.6239988  30.4940012  54.0714997  25.4019988
  29.4570012  54.5144997  24.3909988  30.0087653  53.9166932  24.6990136
  24.5540012  53.7474997  34.4999988  24.5610012  53.6114997  33.5529988
  23.6380012  53.6294997  34.7519988  24.4311714  53.7129430  34.4044666
  35.9920012  38.7894997  21.0019988  35.0920012  38.9284997  21.2969988
  36.2440012  39.6204997  20.5999988  35.9028702  38.9209074  20.9880205
  24.0580012  47.5774997  22.9759988  23.7660012  48.3454997  22.4849988
  23.3840012  46.9174997  22.8129988  23.9269081  47.5934406  22.8867340
  37.1810012  53.1554997  19.3779988  37.2550012  54.0944997  19.5489988
  38.0870012  52.8504997  19.3219988  37.3135100  53.2426722  19.3938119
  20.1510012  49.9404997  31.7909988  19.6500012  49.9124997  30.9759988
  20.1560012  49.0344997  32.0999988  20.0831526  49.8142278  31.7212872
  19.9010012  52.7204997  28.6749988  20.8470012  52.5764997  28.6559988
  19.7890012  53.5044997  29.2119988  20.0152727  52.8068046  28.7450072
  38.0990012  53.3864997  34.3569988  38.0500012  52.4314997  34.3199988
  37.2720012  53.6544997  34.7579988  37.9804940  53.2918998  34.4061375
  29.0780012  52.9604997  33.2329988  29.1650012  53.7864997  33.7079988
  28.2140012  52.6304997  33.4819988  28.9731964  53.0289878  33.3316549
  29.4920012  56.7324997  23.0389988  29.4170012  56.6114997  22.0929988
  29.5250012  57.6824997  23.1579988  29.4861848  56.8442500  22.9254834
  23.1450012  55.5214997  24.8199988  23.2980012  55.1734997  25.6989988
  22.2950012  55.1654997  24.5649988  23.0508962  55.4256650  24.9058340
  32.5940012  55.8864997  20.0409988  32.9690012  55.1424997  19.5709988
  32.5980012  55.6164997  20.9599988  32.6458915  55.7481486  20.1007824
  32.2630012  55.8124997  22.7909988  31.3270012  55.9124997  22.9689988
  32.5430012  55.1034997  23.3689988  32.1728255  55.7302711  22.8935391
  35.2510012  44.8794997  34.8369988  34.8440012  45.3604997  34.1159988
  35.2920012  43.9744997  34.5289988  35.2008437  44.8229374  34.6966683
  22.4000012  51.2634997  32.8339988  22.6160012  50.9024997  33.6929988
  21.5450012  50.8894997  32.6239988  22.3139292  51.1634111  32.9233386
  25.0190012  39.7334997  28.8289988  24.1570012  39.6464997  28.4219988
  24.9960012  40.5894997  29.2569988  24.8980330  39.8372765  28.8311863
  29.6820012  39.4554997  32.2039988  30.1020012  39.0404997  32.9569988
  28.7490012  39.2774997  32.3209988  29.6133644  39.3745900  32.3229539
  33.0080012  43.2114997  33.0569988  32.4940012  43.0854997  33.8549988
  32.8530012  44.1234997  32.8129988  32.9166852  43.3176132  33.1332158
  33.7710012  48.0724997  18.8189988  33.8130012  47.8494997  17.8889988
  34.6200012  48.4714997  19.0089988  33.8915396  48.0959155  18.7173627
  29.3430012  41.9484997  19.4889988  29.0900012  41.9674997  20.4119988
  29.0870012  41.0764997  19.1879988  29.2737790  41.8332437  19.5746263
  25.1100012  44.6994997  29.9239988  24.4680012  44.6584997  30.6329988
  25.1470012  45.6254997  29.6869988  25.0271324  44.8191559  29.9889824
  25.1070012  44.9204997  24.8359988  24.2140012  44.5794997  24.7779988
  25.5570012  44.5434997  24.0809988  25.0457305  44.8228484  24.7259177
  30.6420012  45.3364997  23.6529988  30.2330012  46.1514997  23.3619988
  31.3630012  45.1964997  23.0389988  30.6834537  45.4292018  23.5301342
  29.7440012  45.5114997  35.1409988  29.1820012  44.8074997  35.4619988
  30.5710012  45.3914997  35.6089988  29.7787095  45.3987883  35.2482330
  31.6470012  44.7824997  26.4669988  31.4520012  45.3874997  25.7519988
  31.8280012  43.9484997  26.0329988  31.6447614  44.7526300  26.3104405
  22.8600012  45.0194997  31.7909988  22.8220012  45.4194997  32.6599988
  22.3690012  44.2024997  31.8819988  22.7884684  44.9638069  31.9221059
  26.2260012  42.3934997  18.5899988  25.7950012  41.9484997  19.3199988
  25.5080012  42.7654997  18.0779988  26.0699438  42.3828940  18.6206799
  19.4680012  42.1354997  25.6419988  20.0990012  42.1064997  26.3609988
  19.9170012  41.7104997  24.9119988  19.6150774  42.0740492  25.6416553
  20.7420012  42.8814997  21.0659988  21.2160012  43.4724997  20.4809988
  20.0250012  43.4124997  21.4129988  20.7099341  43.0340867  21.0328836
  30.9110012  46.4204997  31.1389988  31.2340012  45.7894997  30.4959988
  30.4710012  45.8854997  31.7989988  30.8956895  46.2618441  31.1402850
  27.6880012  42.3474997  25.9229988  26.7770012  42.4044997  26.2109988
  28.1940012  42.2874997  26.7329988  27.6315413  42.3471985  26.0720622
  22.5170012  43.9764997  24.7489988  21.6270012  44.0764997  24.4089988
  22.8130012  43.1344997  24.4029988  22.4352823  43.8763545  24.6557213
  26.1700012  43.9764997  22.4059988  27.1010012  44.1054997  22.5839988
  25.9550012  44.6464997  21.7559988  26.2684247  44.0846565  22.3425747
  32.0930012  41.5824997  29.1869988  31.4170012  41.7134997  29.8509988
  31.6080012  41.4274997  28.3769988  31.9347145  41.5794905  29.1684517
  24.8440012  45.1714997  19.9729988  24.3010012  44.7914997  19.2809988
  25.6770012  45.3654997  19.5439988  24.8824399  45.1458124  19.8204526
  35.3810012  57.2544997  35.4639988  35.5810012  57.6784997  34.6289988
  36.0360012  57.5974997  36.0709988  35.4970051  57.3589648  35.4317836
  22.9790012  49.7284997  35.0719988  23.7110012  49.9824997  35.6329988
  22.1990012  49.9324997  35.5869988  22.9738232  49.7909177  35.2185760
  29.0080012  45.1354997  27.8099988  29.5730012  44.5884997  27.2629988
  28.8610012  44.6134997  28.5979988  29.0652918  44.9902024  27.8418454
  24.0100012  41.2714997  24.2279988  23.6930012  40.3694997  24.1929988
  24.7920012  41.2734997  23.6749988  24.0722284  41.1481628  24.1484783
  27.6350012  43.5234997  30.2239988  26.7990012  43.9774997  30.3339988
  28.1590012  43.7994997  30.9759988  27.5914414  43.6229376  30.3407136
  28.1790012  49.7364997  21.9079988  27.4340012  49.2294997  21.5859988
  28.0450012  49.7854997  22.8549988  28.0588776  49.6736940  21.9918647
  35.3290012  48.8694997  30.6949988  35.9710012  49.3264997  30.1509988
  34.4990012  48.9824997  30.2319988  35.3045963  48.9472704  30.5580177
  32.0770012  42.5504997  20.1079988  31.1380012  42.6624997  19.9559988
  32.3740012  43.4074997  20.4139988  31.9887666  42.6816443  20.1285768
  29.6980012  49.9204997  33.1449988  29.3530012  49.5394997  33.9519988
  29.4980012  50.8544997  33.2169988  29.6238061  49.9945228  33.2650961
  32.7950012  44.4174997  21.7679988  33.6870012  44.2804997  22.0869988
  32.8520012  45.2084997  21.2319988  32.9246285  44.5056660  21.7391691
  23.3040012  49.0314997  27.6779988  24.0490012  49.0294997  27.0769988
  23.3820012  48.2084997  28.1599988  23.4165518  48.9199315  27.6608929
  30.3050012  51.1954997  20.9339988  30.0090012  52.0214997  21.3149988
  29.6020012  50.5754997  21.1299988  30.1694914  51.2248199  21.0126443
  20.3120012  47.4924997  32.9929988  20.5350012  47.0744997  33.8249988
  19.7100012  46.8794997  32.5699988  20.2611759  47.3524668  33.0497022
  27.3280012  47.0094997  35.2059988  27.0320012  46.8434997  34.3109988
  28.2600012  46.7894997  35.1949988  27.4134166  46.9570640  35.0820536
  31.9490012  52.3824997  33.0959988  31.0480012  52.5654997  32.8279988
  31.9830012  52.6414997  34.0169988  31.8303041  52.4425512  33.1838197
  37.6800012  44.6274997  21.4629988  37.1260012  44.2314997  20.7909988
  37.7800012  45.5374997  21.1849988  37.6177059  44.6963586  21.3334401
  37.6430012  50.4274997  34.2999988  36.7920012  50.6654997  33.9329988
  38.2340012  50.4104997  33.5469988  37.6062487  50.4578258  34.1478893
  35.9750012  53.4134997  21.9279988  35.6020012  52.5874997  22.2369988
  36.2530012  53.2304997  21.0309988  35.9615630  53.2757303  21.8489626
  33.1360012  48.2214997  28.9489988  32.2070012  47.9894997  28.9219988
  33.5870012  47.4444997  28.6189988  33.0699216  48.0847238  28.9006917
  25.6790012  52.5494997  25.0819988  26.2060012  53.3224997  24.8819988
  24.7990012  52.7744997  24.7809988  25.6321773  52.6858005  25.0139010
  21.4340012  47.4114997  19.6689988  22.0500012  48.0384997  20.0489988
  20.5720012  47.7274997  19.9409988  21.4017698  47.5399430  19.7577183
  27.1060012  50.2124997  24.6589988  26.8650012  51.1374997  24.6999988
  26.3650012  49.7534997  25.0549988  26.9728409  50.2771421  24.7181377
  27.6210012  54.3614997  30.9739988  27.9830012  55.2164997  30.7399988
  28.1520012  54.0694997  31.7139988  27.7424473  54.4391060  31.0420855
  25.7890012  55.2344997  24.2039988  24.8390012  55.3394997  24.2549988
  26.1410012  56.0544997  24.5489988  25.7064203  55.3598314  24.2576650
  31.1650012  50.4604997  30.6739988  30.7390012  50.2334997  31.5009988
  31.7450012  49.7224997  30.4919988  31.1851868  50.3295299  30.7625830
  33.3680012  51.3894997  19.7479988  33.7210012  51.0094997  20.5529988
  32.4190012  51.2964997  19.8349988  33.2880441  51.3249596  19.8698559
  33.8230012  55.0124997  33.1439988  33.2220012  54.4574997  32.6479988
  34.1050012  55.6794997  32.5179988  33.7788519  55.0266841  32.9914952
  37.8710012  55.8694997  19.9489988  38.6150012  56.4554997  19.8089988
  37.1770012  56.4374997  20.2829988  37.8790292  56.0265582  19.9749961
  21.9460012  42.2454997  32.5509988  21.0530012  42.5844997  32.4829988
  21.8470012  41.3904997  32.9689988  21.8104164  42.1762588  32.5982235
  34.2340012  50.0624997  21.9749988  33.9560012  49.3344997  22.5309988
  35.1610012  50.1814997  22.1799988  34.3213124  49.9788802  22.0788845
  21.5970012  54.0504997  30.9859988  21.8140012  53.1184997  30.9549988
  21.8430012  54.3244997  31.8689988  21.6599549  53.9600636  31.1011763
  27.4590012  52.5014997  18.1949988  27.6980012  51.7534997  17.6479988
  27.1900012  52.1134997  19.0279988  27.4553675  52.3466638  18.2326865
  26.3960012  52.0714997  20.6519988  26.5420012  51.5514997  21.4419988
  26.3930012  52.9784997  20.9579988  26.4155989  52.1228853  20.8016088
  22.8490012  49.3244997  21.1619988  22.1630012  49.6764997  21.7289988
  23.3710012  50.0874997  20.9149988  22.8256852  49.4758578  21.2062118
  30.6800012  41.9864997  31.4409988  31.3790012  42.0604997  32.0909988
  30.2990012  41.1224997  31.5949988  30.7241767  41.8797624  31.5508322
  31.4650012  41.6384997  22.5379988  31.6850012  42.1104997  21.7349988
  32.0230012  42.0334997  23.2079988  31.5704968  41.7564285  22.5187331
  29.1330012  53.7694997  21.4009988  28.3170012  54.2664997  21.4529988
  29.6630012  54.2444997  20.7609988  29.0929161  53.9017722  21.3215956
  28.6650012  43.3664997  23.3729988  29.4770012  43.8714997  23.4189988
  28.4200012  43.2214997  24.2869988  28.7430520  43.4160375  23.5028517
  29.2000012  44.3524997  32.5579988  29.3190012  44.9264997  33.3149988
  29.8560012  43.6644997  32.6719988  29.3049757  44.3381079  32.6770825
  29.5480012  40.4474997  24.3109988  29.2020012  41.0654997  24.9559988
  30.2070012  40.9484997  23.8299988  29.5897826  40.5995802  24.3340971
  26.4720012  54.8134997  21.3829988  26.6320012  55.6124997  20.8819988
  26.2740012  55.1194997  22.2679988  26.4671649  54.9644469  21.4339815
  25.2060012  41.5104997  20.9979988  25.1230012  42.3994997  21.3449988
  26.0960012  41.2454997  21.2299988  25.3149469  41.5961430  21.0767626
  35.4050012  42.2594997  33.3929988  34.4880012  42.5224997  33.3049988
  35.7400012  42.2564997  32.4959988  35.3249900  42.2950224  33.2597919
  34.0070012  46.0104997  27.4879988  33.2090012  45.5954997  27.1599988
  34.4520012  45.3194997  27.9789988  33.9579885  45.8603543  27.5094889
  23.4650012  51.9384997  20.0589988  24.0570012  52.6374997  20.3349988
  23.9240012  51.5054997  19.3389988  23.6081142  51.9757049  19.9994830
  21.7810012  44.6024997  19.1749988  21.7360012  45.5414997  19.3529988
  20.8930012  44.3664997  18.9049988  21.6548574  44.6991892  19.1628912
  35.0930012  55.2664997  29.1109988  34.9380012  55.9444997  28.4539988
  36.0260012  55.3384997  29.3139988  35.1978500  55.3690170  29.0485119
  22.5890012  39.3844997  27.8479988  22.3600012  39.4434997  26.9199988
  22.1460012  38.5924997  28.1539988  22.4978530  39.2855753  27.7624786
  21.5190012  53.3244997  24.0079988  20.6870012  53.7974997  24.0359988
  22.0650012  53.8344997  23.4099988  21.4789739  53.4581871  23.9309716
  20.8070012  55.9374997  35.3379988  21.3480012  55.7204997  36.0979988
  20.3260012  55.1314997  35.1489988  20.8159345  55.7989514  35.4163076
  25.4050012  54.8564997  36.9589988  26.1720012  54.3974997  37.2999988
  25.3830012  54.6304997  36.0289988  25.5071434  54.7630409  36.8800043
  29.4970012  54.3644997  18.3339988  28.8530012  53.7334997  18.6549988
  30.2590012  53.8334997  18.1019988  29.5118077  54.2062920  18.3466011
  31.9820012  53.2364997  35.6879988  31.6310012  52.3804997  35.9309988
  32.7080012  53.3794997  36.2949988  32.0320769  53.1385636  35.8033619
  34.1010012  54.1814997  18.5679988  34.3840012  53.3874997  19.0199988
  34.8410012  54.4144997  18.0069988  34.2397486  54.1042803  18.5540698
  20.7140012  49.7474997  36.2929988  20.8580012  48.8454997  36.0059988
  19.9420012  50.0334997  35.8049988  20.6293322  49.6628261  36.1877881
  25.0560012  50.0914997  18.4249988  25.1200012  49.2974997  18.9559988
  25.7090012  49.9724997  17.7349988  25.1530241  49.9667148  18.4044317
  27.3700012  49.7174997  35.7249988  27.0410012  49.9884997  34.8679988
  27.5220012  48.7764997  35.6379988  27.3454809  49.6273862  35.5958244
  30.4080012  51.1384997  18.1609988  30.1390012  51.3184997  19.0619988
  30.2020012  50.2124997  18.0299988  30.3433825  51.0380152  18.2665214
  33.1040012  49.6334997  33.1089988  33.8500012  50.2214997  32.9889988
  32.3470012  50.2154997  33.1719988  33.1037554  49.7927011  33.1010907
  21.5470012  46.9474997  35.7129988  21.9550012  46.0904997  35.5919988
  21.2870012  46.9624997  36.6339988  21.5677568  46.8320807  35.8209588
  26.2050012  48.0634997  20.7309988  25.7450012  47.5794997  21.4169988
  26.4600012  47.3954997  20.0949988  26.1764902  47.9068731  20.7389334
  25.4940012  45.9564997  33.0869988  24.8760012  46.6314997  33.3669988
  25.8380012  46.2774997  32.2539988  25.4559615  46.0922721  33.0126581
  27.2760012  46.3064997  18.9929988  27.0960012  46.1524997  18.0659988
  28.2260012  46.4144997  19.0379988  27.3797776  46.3000175  18.8721843
  30.5140012  48.4284997  36.3639988  31.4670012  48.5114997  36.3369988
  30.3530012  47.7164997  36.9839988  30.6226426  48.3436746  36.4440579
  36.6660012  48.6614997  18.4389988  36.3920012  48.2364997  17.6259988
  36.7050012  49.5924997  18.2219988  36.6337699  48.7292484  18.2983610
  25.8330012  43.3114997  34.1689988  25.9830012  42.5824997  33.5669988
  25.8360012  44.0884997  33.6099988  25.8539302  43.3167851  34.0110692
  26.2460012  41.6814997  31.6619988  26.7820012  42.1324997  31.0099988
  25.3940012  41.5734997  31.2389988  26.2042178  41.7286390  31.5155756
  27.8280012  47.1204997  31.9009988  28.5780012  46.9644997  31.3279988
  27.4890012  47.9724997  31.6259988  27.8848921  47.2142968  31.7853561
  32.2430012  44.9354997  36.9299988  32.4360012  44.0044997  36.8179988
  33.1010012  45.3604997  36.9199988  32.3853020  44.8656389  36.9133361
  33.5600012  47.7244997  35.0069988  33.2790012  48.4334997  34.4299988
  34.5030012  47.6514997  34.8559988  33.6489027  47.8117646  34.9075551
  24.3120012  44.5094997  36.0809988  23.5450012  43.9774997  35.8709988
  24.9910012  44.1994997  35.4809988  24.2987022  44.3947506  35.9711648
  27.0520012  39.1374997  32.0929988  26.9530012  40.0844997  31.9879988
  26.3090012  38.7654997  31.6179988  26.9380563  39.2165902  32.0144560
  28.3160012  43.4594997  35.6569988  28.0800012  43.2394997  36.5589988
  27.5320012  43.2524997  35.1469988  28.1778628  43.4014760  35.7113932
  31.0310012  42.5864997  34.7329988  30.0840012  42.6184997  34.8649988
  31.3440012  41.9614997  35.3859988  30.9435475  42.5063207  34.8394455
  32.6650012  41.2204997  36.7379988  32.5690012  40.2684997  36.7319988
  32.3440012  41.4894997  37.5979988  32.6084070  41.1264035  36.8535441
  22.4920012  42.4304997  35.7849988  22.7040012  41.7234997  35.1749988
  22.3810012  41.9924997  36.6289988  22.5059721  42.2747084  35.8156843
  27.2730012  38.4314997  34.7649988  27.9850012  37.7914997  34.7509988
  27.1720012  38.6984997  33.8509988  27.3567939  38.3799938  34.6395650
  27.6270012  40.1144997  36.8179988  27.4950012  39.6384997  35.9979988
  27.0280012  40.8584997  36.7629988  27.5279071  40.1499618  36.6982886
  27.1730012  56.9974997  19.9949988  28.1060012  57.1554997  20.1379988
  26.9090012  57.6724997  19.3699988  27.2649510  57.1103611  19.9300741
  20.7420012  51.6334997  19.4769988  21.6560012  51.7124997  19.7509988
  20.7490012  50.9464997  18.8109988  20.8681131  51.5513961  19.4244393
  19.3910012  57.0264997  24.5549988  18.7440012  56.5644997  24.0219988
  19.7450012  56.3544997  25.1369988  19.3503849  56.8724723  24.5607959
  20.2610012  55.1074997  26.3589988  19.9260012  54.2274997  26.5309988
  20.4830012  55.4524997  27.2239988  20.2451783  55.0337500  26.4994208
  37.8090012  55.9164997  29.3399988  37.7880012  56.1014997  30.2789988
  38.5000012  56.4854997  28.9989988  37.8994618  56.0186606  29.4223864
  37.3730012  55.4844997  32.2619988  36.8850012  54.7484997  31.8909988
  37.9220012  55.0904997  32.9399988  37.3804872  55.3306249  32.3029160
  35.8230012  51.2734997  36.8999988  34.9570012  51.1684997  37.2939988
  36.2000012  52.0324997  37.3459988  35.7553308  51.3616900  37.0142393
  37.1240012  49.5304997  22.4139988  37.9740012  49.9514997  22.5409988
  37.1300012  48.7904997  23.0209988  37.2411372  49.4880803  22.5134344
  37.5190012  47.5834997  24.2379988  36.7920012  47.1044997  24.6349988
  38.1000012  47.7894997  24.9699988  37.4979375  47.5457090  24.3914129
  37.2780012  50.3684997  29.1849988  38.1110012  49.9904997  28.9049988
  37.3900012  51.3114997  29.0659988  37.4072647  50.4442218  29.1305487
  35.7640012  53.2464997  31.4919988  35.1170012  53.5714997  32.1179988
  35.2470012  52.8064997  30.8179988  35.6054029  53.2315004  31.4865827
  37.7870012  47.4844997  20.6289988  37.2650012  47.8414997  19.9099988
  37.7540012  48.1594997  21.3069988  37.7111634  47.6245413  20.6223145
  36.1360012  44.7244997  19.1799988  36.2320012  45.3914997  18.4989988
  35.9960012  43.9084997  18.6979988  36.1302135  44.7054500  19.0218491
  35.3050012  46.1044997  24.8009988  35.1550012  45.1594997  24.7799988
  34.9520012  46.3854997  25.6439988  35.2366625  46.0130441  24.9122346
  20.3410012  48.1824997  28.8109988  20.5250012  48.1004997  27.8749988
  21.1900012  48.0584997  29.2349988  20.4810139  48.1545003  28.7401455
  36.1620012  48.0744997  34.4389988  36.7450012  47.3404997  34.6309988
  36.7260012  48.8464997  34.4859988  36.3179769  48.0784227  34.4716159
  37.6580012  45.9774997  35.1239988  36.7950012  45.5984997  34.9579988
  38.2630012  45.2384997  35.0499988  37.6215979  45.8258023  35.0912817
  35.3830012  42.1324997  18.2969988  35.9940012  41.7614997  18.9339988
  34.5470012  41.7114997  18.4929988  35.3535032  42.0247554  18.4107035
  35.0160012  43.6874997  23.2629988  35.2960012  42.7804997  23.3869988
  35.7750012  44.1214997  22.8739988  35.1569277  43.6220942  23.2273682
  35.6280012  44.2684997  28.6989988  36.5610012  44.4804997  28.6649988
  35.3930012  44.3704997  29.6209988  35.7238036  44.3112769  28.8189976
  35.6570012  45.0054997  31.4749988  34.8140012  45.2734997  31.8409988
  36.0990012  45.8274997  31.2639988  35.6014158  45.1533291  31.4965491
  19.9380012  43.4534997  34.9519988  20.8580012  43.3314997  35.1879988
  19.4890012  42.7034997  35.3409988  20.0031580  43.3353727  35.0369006
  37.9400012  38.9854997  36.8279988  38.2900012  38.3314997  36.2229988
  38.0870012  39.8224997  36.3889988  38.0078419  39.0091591  36.6857118
  35.6290012  40.9504997  23.3109988  35.8120012  40.5014997  24.1369988
  35.0300012  40.3654997  22.8479988  35.5730202  40.8099975  23.3613275
  21.1590012  41.7654997  27.8429988  21.6050012  40.9734997  28.1449988
  21.6260012  42.4814997  28.2739988  21.2830172  41.7540624  27.9424820
  19.4630012  44.7644997  28.9119988  19.9550012  44.5434997  28.1209988
  19.8260012  45.6054997  29.1929988  19.5793126  44.8478357  28.8417531
  37.4600012  41.0944997  35.1779988  36.5420012  41.3654997  35.1419988
  37.5830012  40.5594997  34.3929988  37.3511066  41.0592892  35.0670487
  37.4960012  41.0174997  19.8389988  37.9080012  40.2964997  19.3639988
  38.1780012  41.6874997  19.8979988  37.6445885  41.0092368  19.7818915
  19.7770012  41.0224997  22.9659988  18.8520012  41.2314997  22.8369988
  20.2310012  41.5064997  22.2769988  19.7117368  41.1165993  22.8551226
  34.5480012  56.0064997  24.9119988  35.2000012  55.6594997  24.3039988
  35.0580012  56.4954997  25.5579988  34.7062637  56.0250597  24.9160236
  19.7410012  39.7604997  31.3109988  19.0760012  39.5144997  31.9539988
  19.2980012  40.3824997  30.7329988  19.5900956  39.8108632  31.3209352
  21.9330012  52.9354997  35.4549988  21.1120012  53.1104997  34.9949988
  21.6800012  52.8624997  36.3759988  21.7866164  52.9495622  35.5164923
  24.8870012  53.9104997  31.7139988  24.4620012  54.7194997  31.4309988
  25.7910012  53.9954997  31.4119988  24.9510271  54.0328469  31.6343776
  29.1980012  55.3094997  34.6729988  29.3830012  54.9754997  35.5509988
  30.0440012  55.6184997  34.3509988  29.3377539  55.3056047  34.7495605
  31.5430012  56.5954997  33.9169988  32.2200012  55.9624997  33.6769988
  31.8650012  56.9964997  34.7239988  31.6791637  56.5631154  33.9932793
  36.4600012  39.1844997  32.9969988  35.6480012  39.5094997  32.6089988
  36.6930012  38.4244997  32.4639988  36.3803423  39.1262436  32.8718253
  22.2890012  57.1664997  31.7609988  21.5680012  57.6064997  31.3099988
  21.9230012  56.9154997  32.6099988  22.1409804  57.1927698  31.8139840
  24.7560012  56.7664997  30.7909988  23.8910012  56.8384997  31.1949988
  24.7010012  57.3134997  30.0069988  24.6302085  56.8502685  30.7403362
  29.4660012  56.6544997  29.9659988  29.0100012  57.1834997  29.3119988
  29.6290012  57.2574997  30.6919988  29.4255585  56.8084468  29.9745062
  31.7940012  55.5324997  30.9109988  30.8890012  55.6974997  30.6459988
  32.2230012  56.3854997  30.8459988  31.7280799  55.6704483  30.8659182
  34.3980012  57.1024997  31.2059988  34.2160012  58.0184997  30.9959988
  34.5750012  56.6924997  30.3599988  34.3970210  57.1724822  31.0627885
  21.7030012  55.7894997  28.6709988  21.6850012  55.3644997  29.5289988
  22.5080012  55.4714997  28.2629988  21.8093875  55.6883812  28.7331655
  23.8450012  54.4994997  27.3259988  23.6260012  53.5834997  27.4959988
  24.6690012  54.6394997  27.7919988  23.9264420  54.3930520  27.4122774
  26.3820012  54.9694997  28.1749988  26.5950012  54.0814997  27.8879988
  26.4460012  54.9354997  29.1289988  26.4198231  54.8433102  28.2647397
  29.8900012  40.6334997  27.3189988  29.2160012  40.0044997  27.5749988
  30.4540012  40.1494997  26.7159988  29.8739230  40.4818744  27.2725340
  35.0330012  38.7414997  27.4319988  35.6370012  39.2884997  26.9299988
  34.1630012  39.0604997  27.1919988  34.9981241  38.8595806  27.3307654
  36.7600012  39.8794997  25.7649988  37.3720012  39.3654997  25.2389988
  37.1420012  40.7574997  25.7889988  36.8954540  39.9277140  25.6961830
  22.2170012  39.2674997  25.1409988  21.4400012  39.0334997  24.6339988
  22.7470012  38.4704997  25.1499988  22.1822330  39.1276988  25.0727742
  21.0530012  39.0654997  20.9449988  21.4920012  39.6764997  20.3529988
  20.4200012  39.6034997  21.4189988  21.0274514  39.2219257  20.9280930
  26.7960012  39.1944997  24.9549988  27.6710012  39.5824997  24.9249988
  26.6600012  38.9794997  25.8769988  26.8973695  39.2185184  25.0756440
  32.3530012  39.2244997  26.6039988  32.4290012  39.3194997  25.6539988
  32.0780012  38.3164997  26.7329988  32.3262321  39.1147867  26.4915079
  33.7060012  39.2504997  22.2959988  33.0040012  39.8654997  22.0869988
  33.2620012  38.4124997  22.4269988  33.5496330  39.2215783  22.2850328
  20.9540012  55.0134997  21.8429988  20.2690012  54.9754997  21.1749988
  20.9580012  55.9264997  22.1309988  20.8608193  55.1317016  21.7905284
  22.9140012  40.9814997  19.3869988  23.4060012  40.3514997  18.8599988
  23.5380012  41.2774997  20.0509988  23.0655446  40.9353199  19.4045980
  27.9400012  41.2744997  21.8439988  28.1180012  40.6284997  22.5269988
  27.8870012  42.1084997  22.3119988  27.9571829  41.2987985  22.0005940
  29.8190012  56.2234997  20.2399988  30.6850012  56.5894997  20.0619988
  29.5720012  55.7834997  19.4259988  29.9042392  56.2141756  20.1056289
  36.5280012  55.7864997  22.9189988  36.3330012  55.0384997  22.3539988
  36.4890012  56.5444997  22.3359988  36.4960380  55.7866099  22.7628384
  22.1750012  39.7814997  34.6589988  21.8090012  39.0164997  35.1019988
  23.0880012  39.8104997  34.9459988  22.2482790  39.6807224  34.7584070
  24.1480012  39.1324997  36.1949988  25.0460012  38.8584997  36.0099988
  23.7610012  38.3894997  36.6589988  24.2186612  38.9945914  36.2323643
  22.7720012  55.9334997  18.8679988  22.5050012  56.2204997  19.7409988
  23.5440012  55.3874997  19.0199988  22.8397488  55.8990294  19.0081050
  32.5690012  38.4644997  36.3769988  32.6460012  38.0384997  37.2309988
  33.4630012  38.4784997  36.0339988  32.7003428  38.4080879  36.4475310
  35.7450012  54.5374997  35.0689988  34.9630012  54.3514997  34.5499988
  35.6730012  55.4664997  35.2869988  35.6281777  54.6376492  35.0274048
  50.1510012  48.4234997  25.0999988  50.2400012  49.3674997  24.9679988
  49.5130012  48.1484997  24.4419988  50.0769081  48.5154830  24.9929614
  49.0840012  47.6784997  28.5189988  49.0460012  47.0324997  29.2239988
  48.7620012  47.2124997  27.7479988  49.0352333  47.5269408  28.5112978
  41.4530012  47.2934997  30.1119988  41.4940012  46.6674997  30.8349988
  42.1560012  47.9174997  30.2939988  41.5536363  47.2921196  30.2356044
  52.7900012  50.6174997  26.8199988  52.3500012  49.8974997  27.2709988
  52.7770012  51.3384997  27.4499988  52.7280226  50.6163731  26.9668494
  42.3760012  51.7434997  28.6469988  42.0070012  50.9414997  28.2769988
  43.3170012  51.5744997  28.6929988  42.4527289  51.6110153  28.6026316
  38.9860012  45.4034997  24.0399988  38.5390012  46.2494997  24.0209988
  38.4250012  44.8234997  23.5239988  38.8489900  45.4409916  23.9676801
  39.6970012  47.5654997  26.1659988  39.9100012  46.7954997  26.6929988
  40.4350012  47.6544997  25.5619988  39.8258496  47.4721394  26.1565300
  49.9020012  55.7224997  27.0329988  50.5220012  55.0454997  26.7589988
  49.6940012  55.5044997  27.9409988  49.9586904  55.6003870  27.1183365
  47.4740012  50.1114997  28.9249988  47.7780012  49.4254997  28.3299988
  48.1950012  50.2294997  29.5429988  47.6130671  50.0336304  28.9271816
  56.1370012  41.7124997  29.7859988  56.1860012  42.3224997  30.5219988
  56.5620012  42.1734997  29.0629988  56.2011824  41.8583741  29.7890205
  50.6150012  44.5054997  29.2529988  50.7570012  43.5594997  29.2729988
  50.5080012  44.7124997  28.3239988  50.6199864  44.4039534  29.1302339
  43.7690012  42.6064997  26.5249988  43.8130012  43.4664997  26.1069988
  43.3120012  42.0544997  25.8909988  43.7132185  42.6495799  26.3820299
  51.4920012  42.7374997  24.9259988  52.1380012  42.4084997  25.5509988
  52.0020012  43.2554997  24.3029988  51.6494264  42.7624611  24.9273862
  40.3900012  45.0034997  27.2869988  41.0430012  44.4534997  27.7189988
  40.4140012  44.7294997  26.3699988  40.4826683  44.8911466  27.2222123
  45.5460012  46.5534997  26.5019988  46.1620012  46.0274997  27.0119988
  44.9600012  45.9134997  26.0989988  45.5510810  46.3949208  26.5173173
  56.5280012  43.1904997  32.0219988  55.8400012  43.8484997  31.9259988
  56.5440012  42.9934997  32.9579988  56.4358525  43.2540462  32.1354808
  42.5800012  41.5244997  30.5989988  42.3610012  42.0544997  29.8329988
  41.9120012  41.7514997  31.2459988  42.4597600  41.6276906  30.5816379
  49.9490012  51.0244997  24.1429988  49.6530012  50.7024997  23.2919988
  49.6240012  51.9244997  24.1839988  49.8646371  51.1020215  24.0321801
  45.1490012  49.2004997  30.8859988  44.4090012  49.7984997  30.9899988
  45.8630012  49.7544997  30.5709988  45.1442237  49.3572831  30.8576465
  53.2560012  42.0284997  26.9059988  53.0400012  41.2624997  27.4389988
  53.9110012  42.5004997  27.4189988  53.3150632  41.9875889  27.0482861
  42.1730012  43.4164997  28.5509988  42.7870012  44.0494997  28.9249988
  42.6850012  42.9444997  27.8949988  42.3262296  43.4392370  28.5134252
  43.5560012  51.1644997  31.6739988  43.5510012  52.0444997  31.2959988
  42.7030012  51.0814997  32.0989988  43.4399464  51.2736117  31.6797907
  39.6770012  50.8354997  22.4559988  39.4050012  51.0644997  21.5669988
  39.7230012  51.6734997  22.9159988  39.6460094  50.9801213  22.3965697
  53.3020012  52.4574997  29.1679988  52.3610012  52.5154997  29.3299988
  53.5790012  53.3634997  29.0309988  53.2104679  52.5879443  29.1716815
  53.6030012  40.7434997  30.5859988  52.8670012  41.3544997  30.5479988
  54.2860012  41.1584997  30.0589988  53.5946541  40.8831374  30.5095832
  46.6060012  38.8304997  28.0519988  46.4890012  37.8814997  27.9969988
  45.7510012  39.1624997  28.3249988  46.4743733  38.7455409  28.0813897
  51.5540012  54.2384997  25.7939988  51.9800012  53.5314997  25.3089988
  51.8710012  55.0394997  25.3769988  51.6551019  54.2500994  25.6713130
  52.7140012  52.1394997  24.3019988  52.4560012  51.4494997  23.6909988
  52.7850012  51.6964997  25.1479988  52.6882856  51.9852124  24.3326885
  54.4000012  50.7054997  32.7799988  54.5400012  50.1144997  32.0399988
  54.5670012  51.5784997  32.4229988  54.4416778  50.7426426  32.6306965
  48.8730012  47.6674997  22.5519988  48.1610012  48.2024997  22.1999988
  49.5640012  47.7234997  21.8919988  48.8690132  47.7482543  22.4146289
  48.9260012  46.1254997  19.5909988  49.6270012  46.1474997  20.2419988
  49.2290012  45.4974997  18.9349988  49.0627830  46.0436566  19.5913711
  56.2420012  47.0454997  30.8459988  55.5890012  47.7404997  30.9349988
  56.7070012  47.2554997  30.0359988  56.2155390  47.1689425  30.7486883
  52.2780012  47.8774997  23.5039988  51.5460012  48.1054997  24.0769988
  52.7260012  47.1634997  23.9589988  52.2383095  47.8122571  23.6439119
  52.1760012  46.0514997  32.5709988  52.2560012  46.8144997  33.1429988
  51.5740012  46.3304997  31.8809988  52.1055756  46.1937134  32.5560589
  43.9240012  48.5074997  25.3859988  43.5930012  48.1374997  24.5679988
  44.5120012  47.8374997  25.7329988  43.9581873  48.3661156  25.3208102
  45.2900012  51.9354997  28.0679988  45.1960012  51.3574997  27.3109988
  46.0200012  51.5644997  28.5639988  45.3757981  51.8062390  28.0314165
  44.2900012  47.2764997  29.0199988  44.8560012  47.3974997  28.2569988
  44.6090012  47.9134997  29.6589988  44.4105786  47.3791884  29.0020040
  50.5990012  52.7794997  29.7539988  50.3590012  53.4414997  30.4019988
  50.4010012  51.9454997  30.1789988  50.5393808  52.7573134  29.9001524
  45.1700012  51.6754997  33.7369988  44.8590012  52.4574997  34.1919988
  44.5200012  51.5224997  33.0509988  45.0395558  51.7619105  33.7065871
  51.1490012  47.0394997  21.1889988  51.7290012  47.1894997  21.9359988
  51.5630012  47.5104997  20.4659988  51.2842830  47.1236841  21.1934134
  42.0900012  47.8734997  32.9659988  42.1610012  48.5244997  33.6639988
  41.2000012  47.9764997  32.6309988  41.9793117  47.9765936  33.0162700
  48.8760012  53.7764997  24.6239988  49.3500012  54.0714997  25.4019988
  48.3130012  54.5144997  24.3909988  48.8647653  53.9166932  24.6990136
  43.4100012  53.7474997  34.4999988  43.4170012  53.6114997  33.5529988
  42.4940012  53.6294997  34.7519988  43.2871714  53.7129430  34.4044666
  54.8480012  38.7894997  21.0019988  53.9480012  38.9284997  21.2969988
  55.1000012  39.6204997  20.5999988  54.7588702  38.9209074  20.9880205
  42.9140012  47.5774997  22.9759988  42.6220012  48.3454997  22.4849988
  42.2400012  46.9174997  22.8129988  42.7829081  47.5934406  22.8867340
  56.0370012  53.1554997  19.3779988  56.1110012  54.0944997  19.5489988
  56.9430012  52.8504997  19.3219988  56.1695100  53.2426722  19.3938119
  39.0070012  49.9404997  31.7909988  38.5060012  49.9124997  30.9759988
  39.0120012  49.0344997  32.0999988  38.9391526  49.8142278  31.7212872
  38.7570012  52.7204997  28.6749988  39.7030012  52.5764997  28.6559988
  38.6450012  53.5044997  29.2119988  38.8712727  52.8068046  28.7450072
  56.9550012  53.3864997  34.3569988  56.9060012  52.4314997  34.3199988
  56.1280012  53.6544997  34.7579988  56.8364940  53.2918998  34.4061375
  47.9340012  52.9604997  33.2329988  48.0210012  53.7864997  33.7079988
  47.0700012  52.6304997  33.4819988  47.8291964  53.0289878  33.3316549
  48.3480012  56.7324997  23.0389988  48.2730012  56.6114997  22.0929988
  48.3810012  57.6824997  23.1579988  48.3421848  56.8442500  22.9254834
  42.0010012  55.5214997  24.8199988  42.1540012  55.1734997  25.6989988
  41.1510012  55.1654997  24.5649988  41.9068962  55.4256650  24.9058340
  51.4500012  55.8864997  20.0409988  51.8250012  55.1424997  19.5709988
  51.4540012  55.6164997  20.9599988  51.5018915  55.7481486  20.1007824
  51.1190012  55.8124997  22.7909988  50.1830012  55.9124997  22.9689988
  51.3990012  55.1034997  23.3689988  51.0288255  55.7302711  22.8935391
  54.1070012  44.8794997  34.8369988  53.7000012  45.3604997  34.1159988
  54.1480012  43.9744997  34.5289988  54.0568437  44.8229374  34.6966683
  41.2560012  51.2634997  32.8339988  41.4720012  50.9024997  33.6929988
  40.4010012  50.8894997  32.6239988  41.1699292  51.1634111  32.9233386
  43.8750012  39.7334997  28.8289988  43.0130012  39.6464997  28.4219988
  43.8520012  40.5894997  29.2569988  43.7540330  39.8372765  28.8311863
  48.5380012  39.4554997  32.2039988  48.9580012  39.0404997  32.9569988
  47.6050012  39.2774997  32.3209988  48.4693644  39.3745900  32.3229539
  51.8640012  43.2114997  33.0569988  51.3500012  43.0854997  33.8549988
  51.7090012  44.1234997  32.8129988  51.7726852  43.3176132  33.1332158
  52.6270012  48.0724997  18.8189988  52.6690012  47.8494997  17.8889988
  53.4760012  48.4714997  19.0089988  52.7475396  48.0959155  18.7173627
  48.1990012  41.9484997  19.4889988  47.9460012  41.9674997  20.4119988
  47.9430012  41.0764997  19.1879988  48.1297790  41.8332437  19.5746263
  43.9660012  44.6994997  29.9239988  43.3240012  44.6584997  30.6329988
  44.0030012  45.6254997  29.6869988  43.8831324  44.8191559  29.9889824
  43.9630012  44.9204997  24.8359988  43.0700012  44.5794997  24.7779988
  44.4130012  44.5434997  24.0809988  43.9017305  44.8228484  24.7259177
  49.4980012  45.3364997  23.6529988  49.0890012  46.1514997  23.3619988
  50.2190012  45.1964997  23.0389988  49.5394537  45.4292018  23.5301342
  48.6000012  45.5114997  35.1409988  48.0380012  44.8074997  35.4619988
  49.4270012  45.3914997  35.6089988  48.6347095  45.3987883  35.2482330
  50.5030012  44.7824997  26.4669988  50.3080012  45.3874997  25.7519988
  50.6840012  43.9484997  26.0329988  50.5007614  44.7526300  26.3104405
  41.7160012  45.0194997  31.7909988  41.6780012  45.4194997  32.6599988
  41.2250012  44.2024997  31.8819988  41.6444684  44.9638069  31.9221059
  45.0820012  42.3934997  18.5899988  44.6510012  41.9484997  19.3199988
  44.3640012  42.7654997  18.0779988  44.9259438  42.3828940  18.6206799
  38.3240012  42.1354997  25.6419988  38.9550012  42.1064997  26.3609988
  38.7730012  41.7104997  24.9119988  38.4710774  42.0740492  25.6416553
  39.5980012  42.8814997  21.0659988  40.0720012  43.4724997  20.4809988
  38.8810012  43.4124997  21.4129988  39.5659341  43.0340867  21.0328836
  49.7670012  46.4204997  31.1389988  50.0900012  45.7894997  30.4959988
  49.3270012  45.8854997  31.7989988  49.7516895  46.2618441  31.1402850
  46.5440012  42.3474997  25.9229988  45.6330012  42.4044997  26.2109988
  47.0500012  42.2874997  26.7329988  46.4875413  42.3471985  26.0720622
  41.3730012  43.9764997  24.7489988  40.4830012  44.0764997  24.4089988
  41.6690012  43.1344997  24.4029988  41.2912823  43.8763546  24.6557213
  45.0260012  43.9764997  22.4059988  45.9570012  44.1054997  22.5839988
  44.8110012  44.6464997  21.7559988  45.1244247  44.0846565  22.3425747
  50.9490012  41.5824997  29.1869988  50.2730012  41.7134997  29.8509988
  50.4640012  41.4274997  28.3769988  50.7907145  41.5794905  29.1684517
  43.7000012  45.1714997  19.9729988  43.1570012  44.7914997  19.2809988
  44.5330012  45.3654997  19.5439988  43.7384399  45.1458124  19.8204526
  54.2370012  57.2544997  35.4639988  54.4370012  57.6784997  34.6289988
  54.8920012  57.5974997  36.0709988  54.3530051  57.3589648  35.4317836
  41.8350012  49.7284997  35.0719988  42.5670012  49.9824997  35.6329988
  41.0550012  49.9324997  35.5869988  41.8298232  49.7909177  35.2185760
  47.8640012  45.1354997  27.8099988  48.4290012  44.5884997  27.2629988
  47.7170012  44.6134997  28.5979988  47.9212918  44.9902024  27.8418454
  42.8660012  41.2714997  24.2279988  42.5490012  40.3694997  24.1929988
  43.6480012  41.2734997  23.6749988  42.9282284  41.1481628  24.1484783
  46.4910012  43.5234997  30.2239988  45.6550012  43.9774997  30.3339988
  47.0150012  43.7994997  30.9759988  46.4474414  43.6229376  30.3407136
  47.0350012  49.7364997  21.9079988  46.2900012  49.2294997  21.5859988
  46.9010012  49.7854997  22.8549988  46.9148776  49.6736940  21.9918647
  54.1850012  48.8694997  30.6949988  54.8270012  49.3264997  30.1509988
  53.3550012  48.9824997  30.2319988  54.1605963  48.9472704  30.5580177
  50.9330012  42.5504997  20.1079988  49.9940012  42.6624997  19.9559988
  51.2300012  43.4074997  20.4139988  50.8447666  42.6816443  20.1285768
  48.5540012  49.9204997  33.1449988  48.2090012  49.5394997  33.9519988
  48.3540012  50.8544997  33.2169988  48.4798061  49.9945228  33.2650961
  51.6510012  44.4174997  21.7679988  52.5430012  44.2804997  22.0869988
  51.7080012  45.2084997  21.2319988  51.7806285  44.5056660  21.7391691
  42.1600012  49.0314997  27.6779988  42.9050012  49.0294997  27.0769988
  42.2380012  48.2084997  28.1599988  42.2725518  48.9199315  27.6608929
  49.1610012  51.1954997  20.9339988  48.8650012  52.0214997  21.3149988
  48.4580012  50.5754997  21.1299988  49.0254914  51.2248199  21.0126443
  39.1680012  47.4924997  32.9929988  39.3910012  47.0744997  33.8249988
  38.5660012  46.8794997  32.5699988  39.1171759  47.3524668  33.0497022
  46.1840012  47.0094997  35.2059988  45.8880012  46.8434997  34.3109988
  47.1160012  46.7894997  35.1949988  46.2694166  46.9570640  35.0820536
  50.8050012  52.3824997  33.0959988  49.9040012  52.5654997  32.8279988
  50.8390012  52.6414997  34.0169988  50.6863041  52.4425512  33.1838197
  56.5360012  44.6274997  21.4629988  55.9820012  44.2314997  20.7909988
  56.6360012  45.5374997  21.1849988  56.4737059  44.6963586  21.3334401
  56.4990012  50.4274997  34.2999988  55.6480012  50.6654997  33.9329988
  57.0900012  50.4104997  33.5469988  56.4622487  50.4578258  34.1478893
  54.8310012  53.4134997  21.9279988  54.4580012  52.5874997  22.2369988
  55.1090012  53.2304997  21.0309988  54.8175630  53.2757303  21.8489626
  51.9920012  48.2214997  28.9489988  51.0630012  47.9894997  28.9219988
  52.4430012  47.4444997  28.6189988  51.9259216  48.0847238  28.9006917
  44.5350012  52.5494997  25.0819988  45.0620012  53.3224997  24.8819988
  43.6550012  52.7744997  24.7809988  44.4881773  52.6858005  25.0139010
  40.2900012  47.4114997  19.6689988  40.9060012  48.0384997  20.0489988
  39.4280012  47.7274997  19.9409988  40.2577698  47.5399430  19.7577183
  45.9620012  50.2124997  24.6589988  45.7210012  51.1374997  24.6999988
  45.2210012  49.7534997  25.0549988  45.8288409  50.2771421  24.7181377
  46.4770012  54.3614997  30.9739988  46.8390012  55.2164997  30.7399988
  47.0080012  54.0694997  31.7139988  46.5984473  54.4391060  31.0420855
  44.6450012  55.2344997  24.2039988  43.6950012  55.3394997  24.2549988
  44.9970012  56.0544997  24.5489988  44.5624203  55.3598314  24.2576650
  50.0210012  50.4604997  30.6739988  49.5950012  50.2334997  31.5009988
  50.6010012  49.7224997  30.4919988  50.0411868  50.3295299  30.7625830
  52.2240012  51.3894997  19.7479988  52.5770012  51.0094997  20.5529988
  51.2750012  51.2964997  19.8349988  52.1440441  51.3249596  19.8698559
  52.6790012  55.0124997  33.1439988  52.0780012  54.4574997  32.6479988
  52.9610012  55.6794997  32.5179988  52.6348519  55.0266841  32.9914952
  56.7270012  55.8694997  19.9489988  57.4710012  56.4554997  19.8089988
  56.0330012  56.4374997  20.2829988  56.7350292  56.0265582  19.9749961
  40.8020012  42.2454997  32.5509988  39.9090012  42.5844997  32.4829988
  40.7030012  41.3904997  32.9689988  40.6664164  42.1762588  32.5982235
  53.0900012  50.0624997  21.9749988  52.8120012  49.3344997  22.5309988
  54.0170012  50.1814997  22.1799988  53.1773124  49.9788802  22.0788845
  40.4530012  54.0504997  30.9859988  40.6700012  53.1184997  30.9549988
  40.6990012  54.3244997  31.8689988  40.5159549  53.9600636  31.1011763
  46.3150012  52.5014997  18.1949988  46.5540012  51.7534997  17.6479988
  46.0460012  52.1134997  19.0279988  46.3113675  52.3466638  18.2326865
  45.2520012  52.0714997  20.6519988  45.3980012  51.5514997  21.4419988
  45.2490012  52.9784997  20.9579988  45.2715989  52.1228853  20.8016088
  41.7050012  49.3244997  21.1619988  41.0190012  49.6764997  21.7289988
  42.2270012  50.0874997  20.9149988  41.6816852  49.4758578  21.2062118
  49.5360012  41.9864997  31.4409988  50.2350012  42.0604997  32.0909988
  49.1550012  41.1224997  31.5949988  49.5801767  41.8797624  31.5508322
  50.3210012  41.6384997  22.5379988  50.5410012  42.1104997  21.7349988
  50.8790012  42.0334997  23.2079988  50.4264968  41.7564285  22.5187331
  47.9890012  53.7694997  21.4009988  47.1730012  54.2664997  21.4529988
  48.5190012  54.2444997  20.7609988  47.9489161  53.9017722  21.3215956
  47.5210012  43.3664997  23.3729988  48.3330012  43.8714997  23.4189988
  47.2760012  43.2214997  24.2869988  47.5990520  43.4160375  23.5028517
  48.0560012  44.3524997  32.5579988  48.1750012  44.9264997  33.3149988
  48.7120012  43.6644997  32.6719988  48.1609757  44.3381079  32.6770825
  48.4040012  40.4474997  24.3109988  48.0580012  41.0654997  24.9559988
  49.0630012  40.9484997  23.8299988  48.4457826  40.5995802  24.3340971
  45.3280012  54.8134997  21.3829988  45.4880012  55.6124997  20.8819988
  45.1300012  55.1194997  22.2679988  45.3231649  54.9644469  21.4339815
  44.0620012  41.5104997  20.9979988  43.9790012  42.3994997  21.3449988
  44.9520012  41.2454997  21.2299988  44.1709469  41.5961430  21.0767626
  54.2610012  42.2594997  33.3929988  53.3440012  42.5224997  33.3049988
  54.5960012  42.2564997  32.4959988  54.1809900  42.2950224  33.2597919
  52.8630012  46.0104997  27.4879988  52.0650012  45.5954997  27.1599988
  53.3080012  45.3194997  27.9789988  52.8139885  45.8603543  27.5094889
  42.3210012  51.9384997  20.0589988  42.9130012  52.6374997  20.3349988
  42.7800012  51.5054997  19.3389988  42.4641142  51.9757049  19.9994830
  40.6370012  44.6024997  19.1749988  40.5920012  45.5414997  19.3529988
  39.7490012  44.3664997  18.9049988  40.5108574  44.6991892  19.1628912
  53.9490012  55.2664997  29.1109988  53.7940012  55.9444997  28.4539988
  54.8820012  55.3384997  29.3139988  54.0538500  55.3690170  29.0485119
  41.4450012  39.3844997  27.8479988  41.2160012  39.4434997  26.9199988
  41.0020012  38.5924997  28.1539988  41.3538530  39.2855753  27.7624786
  40.3750012  53.3244997  24.0079988  39.5430012  53.7974997  24.0359988
  40.9210012  53.8344997  23.4099988  40.3349739  53.4581871  23.9309716
  39.6630012  55.9374997  35.3379988  40.2040012  55.7204997  36.0979988
  39.1820012  55.1314997  35.1489988  39.6719345  55.7989514  35.4163076
  44.2610012  54.8564997  36.9589988  45.0280012  54.3974997  37.2999988
  44.2390012  54.6304997  36.0289988  44.3631434  54.7630409  36.8800043
  48.3530012  54.3644997  18.3339988  47.7090012  53.7334997  18.6549988
  49.1150012  53.8334997  18.1019988  48.3678077  54.2062920  18.3466011
  50.8380012  53.2364997  35.6879988  50.4870012  52.3804997  35.9309988
  51.5640012  53.3794997  36.2949988  50.8880769  53.1385636  35.8033619
  52.9570012  54.1814997  18.5679988  53.2400012  53.3874997  19.0199988
  53.6970012  54.4144997  18.0069988  53.0957486  54.1042803  18.5540698
  39.5700012  49.7474997  36.2929988  39.7140012  48.8454997  36.0059988
  38.7980012  50.0334997  35.8049988  39.4853322  49.6628261  36.1877881
  43.9120012  50.0914997  18.4249988  43.9760012  49.2974997  18.9559988
  44.5650012  49.9724997  17.7349988  44.0090241  49.9667148  18.4044317
  46.2260012  49.7174997  35.7249988  45.8970012  49.9884997  34.8679988
  46.3780012  48.7764997  35.6379988  46.2014809  49.6273862  35.5958244
  49.2640012  51.1384997  18.1609988  48.9950012  51.3184997  19.0619988
  49.0580012  50.2124997  18.0299988  49.1993825  51.0380152  18.2665214
  51.9600012  49.6334997  33.1089988  52.7060012  50.2214997  32.9889988
  51.2030012  50.2154997  33.1719988  51.9597554  49.7927011  33.1010907
  40.4030012  46.9474997  35.7129988  40.8110012  46.0904997  35.5919988
  40.1430012  46.9624997  36.6339988  40.4237568  46.8320807  35.8209588
  45.0610012  48.0634997  20.7309988  44.6010012  47.5794997  21.4169988
  45.3160012  47.3954997  20.0949988  45.0324902  47.9068731  20.7389334
  44.3500012  45.9564997  33.0869988  43.7320012  46.6314997  33.3669988
  44.6940012  46.2774997  32.2539988  44.3119615  46.0922721  33.0126581
  46.1320012  46.3064997  18.9929988  45.9520012  46.1524997  18.0659988
  47.0820012  46.4144997  19.0379988  46.2357776  46.3000175  18.8721843
  49.3700012  48.4284997  36.3639988  50.3230012  48.5114997  36.3369988
  49.2090012  47.7164997  36.9839988  49.4786426  48.3436746  36.4440579
  55.5220012  48.6614997  18.4389988  55.2480012  48.2364997  17.6259988
  55.5610012  49.5924997  18.2219988  55.4897699  48.7292484  18.2983610
  44.6890012  43.3114997  34.1689988  44.8390012  42.5824997  33.5669988
  44.6920012  44.0884997  33.6099988  44.7099302  43.3167851  34.0110692
  45.1020012  41.6814997  31.6619988  45.6380012  42.1324997  31.0099988
  44.2500012  41.5734997  31.2389988  45.0602178  41.7286390  31.5155756
  46.6840012  47.1204997  31.9009988  47.4340012  46.9644997  31.3279988
  46.3450012  47.9724997  31.6259988  46.7408921  47.2142968  31.7853561
  51.0990012  44.9354997  36.9299988  51.2920012  44.0044997  36.8179988
  51.9570012  45.3604997  36.9199988  51.2413020  44.8656389  36.9133361
  52.4160012  47.7244997  35.0069988  52.1350012  48.4334997  34.4299988
  53.3590012  47.6514997  34.8559988  52.5049027  47.8117646  34.9075551
  43.1680012  44.5094997  36.0809988  42.4010012  43.9774997  35.8709988
  43.8470012  44.1994997  35.4809988  43.1547022  44.3947506  35.9711648
  45.9080012  39.1374997  32.0929988  45.8090012  40.0844997  31.9879988
  45.1650012  38.7654997  31.6179988  45.7940563  39.2165902  32.0144560
  47.1720012  43.4594997  35.6569988  46.9360012  43.2394997  36.5589988
  46.3880012  43.2524997  35.1469988  47.0338628  43.4014760  35.7113932
  49.8870012  42.5864997  34.7329988  48.9400012  42.6184997  34.8649988
  50.2000012  41.9614997  35.3859988  49.7995475  42.5063207  34.8394455
  51.5210012  41.2204997  36.7379988  51.4250012  40.2684997  36.7319988
  51.2000012  41.4894997  37.5979988  51.4644070  41.1264035  36.8535441
  41.3480012  42.4304997  35.7849988  41.5600012  41.7234997  35.1749988
  41.2370012  41.9924997  36.6289988  41.3619721  42.2747084  35.8156843
  46.1290012  38.4314997  34.7649988  46.8410012  37.7914997  34.7509988
  46.0280012  38.6984997  33.8509988  46.2127939  38.3799938  34.6395650
  46.4830012  40.1144997  36.8179988  46.3510012  39.6384997  35.9979988
  45.8840012  40.8584997  36.7629988  46.3839071  40.1499618  36.6982886
  46.0290012  56.9974997  19.9949988  46.9620012  57.1554997  20.1379988
  45.7650012  57.6724997  19.3699988  46.1209510  57.1103611  19.9300741
  39.5980012  51.6334997  19.4769988  40.5120012  51.7124997  19.7509988
  39.6050012  50.9464997  18.8109988  39.7241131  51.5513961  19.4244393
  38.2470012  57.0264997  24.5549988  37.6000012  56.5644997  24.0219988
  38.6010012  56.3544997  25.1369988  38.2063849  56.8724723  24.5607959
  39.1170012  55.1074997  26.3589988  38.7820012  54.2274997  26.5309988
  39.3390012  55.4524997  27.2239988  39.1011783  55.0337500  26.4994208
  56.6650012  55.9164997  29.3399988  56.6440012  56.1014997  30.2789988
  57.3560012  56.4854997  28.9989988  56.7554618  56.0186606  29.4223864
  56.2290012  55.4844997  32.2619988  55.7410012  54.7484997  31.8909988
  56.7780012  55.0904997  32.9399988  56.2364872  55.3306249  32.3029160
  54.6790012  51.2734997  36.8999988  53.8130012  51.1684997  37.2939988
  55.0560012  52.0324997  37.3459988  54.6113308  51.3616900  37.0142393
  55.9800012  49.5304997  22.4139988  56.8300012  49.9514997  22.5409988
  55.9860012  48.7904997  23.0209988  56.0971372  49.4880803  22.5134344
  56.3750012  47.5834997  24.2379988  55.6480012  47.1044997  24.6349988
  56.9560012  47.7894997  24.9699988  56.3539375  47.5457090  24.3914129
  56.1340012  50.3684997  29.1849988  56.9670012  49.9904997  28.9049988
  56.2460012  51.3114997  29.0659988  56.2632647  50.4442218  29.1305487
  54.6200012  53.2464997  31.4919988  53.9730012  53.5714997  32.1179988
  54.1030012  52.8064997  30.8179988  54.4614029  53.2315004  31.4865827
  56.6430012  47.4844997  20.6289988  56.1210012  47.8414997  19.9099988
  56.6100012  48.1594997  21.3069988  56.5671634  47.6245413  20.6223145
  54.9920012  44.7244997  19.1799988  55.0880012  45.3914997  18.4989988
  54.8520012  43.9084997  18.6979988  54.9862135  44.7054500  19.0218491
  54.1610012  46.1044997  24.8009988  54.0110012  45.1594997  24.7799988
  53.8080012  46.3854997  25.6439988  54.0926625  46.0130441  24.9122346
  39.1970012  48.1824997  28.8109988  39.3810012  48.1004997  27.8749988
  40.0460012  48.0584997  29.2349988  39.3370139  48.1545003  28.7401455
  55.0180012  48.0744997  34.4389988  55.6010012  47.3404997  34.6309988
  55.5820012  48.8464997  34.4859988  55.1739769  48.0784227  34.4716159
  56.5140012  45.9774997  35.1239988  55.6510012  45.5984997  34.9579988
  57.1190012  45.2384997  35.0499988  56.4775979  45.8258023  35.0912817
  54.2390012  42.1324997  18.2969988  54.8500012  41.7614997  18.9339988
  53.4030012  41.7114997  18.4929988  54.2095032  42.0247554  18.4107035
  53.8720012  43.6874997  23.2629988  54.1520012  42.7804997  23.3869988
  54.6310012  44.1214997  22.8739988  54.0129277  43.6220942  23.2273682
  54.4840012  44.2684997  28.6989988  55.4170012  44.4804997  28.6649988
  54.2490012  44.3704997  29.6209988  54.5798036  44.3112769  28.8189976
  54.5130012  45.0054997  31.4749988  53.6700012  45.2734997  31.8409988
  54.9550012  45.8274997  31.2639988  54.4574158  45.1533291  31.4965491
  38.7940012  43.4534997  34.9519988  39.7140012  43.3314997  35.1879988
  38.3450012  42.7034997  35.3409988  38.8591580  43.3353727  35.0369006
  56.7960012  38.9854997  36.8279988  57.1460012  38.3314997  36.2229988
  56.9430012  39.8224997  36.3889988  56.8638419  39.0091591  36.6857118
  54.4850012  40.9504997  23.3109988  54.6680012  40.5014997  24.1369988
  53.8860012  40.3654997  22.8479988  54.4290202  40.8099975  23.3613275
  40.0150012  41.7654997  27.8429988  40.4610012  40.9734997  28.1449988
  40.4820012  42.4814997  28.2739988  40.1390172  41.7540624  27.9424820
  38.3190012  44.7644997  28.9119988  38.8110012  44.5434997  28.1209988
  38.6820012  45.6054997  29.1929988  38.4353126  44.8478357  28.8417531
  56.3160012  41.0944997  35.1779988  55.3980012  41.3654997  35.1419988
  56.4390012  40.5594997  34.3929988  56.2071066  41.0592892  35.0670487
  56.3520012  41.0174997  19.8389988  56.7640012  40.2964997  19.3639988
  57.0340012  41.6874997  19.8979988  56.5005885  41.0092368  19.7818915
  38.6330012  41.0224997  22.9659988  37.7080012  41.2314997  22.8369988
  39.0870012  41.5064997  22.2769988  38.5677368  41.1165993  22.8551226
  53.4040012  56.0064997  24.9119988  54.0560012  55.6594997  24.3039988
  53.9140012  56.4954997  25.5579988  53.5622637  56.0250597  24.9160236
  38.5970012  39.7604997  31.3109988  37.9320012  39.5144997  31.9539988
  38.1540012  40.3824997  30.7329988  38.4460956  39.8108632  31.3209352
  40.7890012  52.9354997  35.4549988  39.9680012  53.1104997  34.9949988
  40.5360012  52.8624997  36.3759988  40.6426164  52.9495622  35.5164923
  43.7430012  53.9104997  31.7139988  43.3180012  54.7194997  31.4309988
  44.6470012  53.9954997  31.4119988  43.8070271  54.0328469  31.6343776
  48.0540012  55.3094997  34.6729988  48.2390012  54.9754997  35.5509988
  48.9000012  55.6184997  34.3509988  48.1937539  55.3056047  34.7495605
  50.3990012  56.5954997  33.9169988  51.0760012  55.9624997  33.6769988
  50.7210012  56.9964997  34.7239988  50.5351637  56.5631154  33.9932793
  55.3160012  39.1844997  32.9969988  54.5040012  39.5094997  32.6089988
  55.5490012  38.4244997  32.4639988  55.2363423  39.1262436  32.8718253
  41.1450012  57.1664997  31.7609988  40.4240012  57.6064997  31.3099988
  40.7790012  56.9154997  32.6099988  40.9969804  57.1927698  31.8139840
  43.6120012  56.7664997  30.7909988  42.7470012  56.8384997  31.1949988
  43.5570012  57.3134997  30.0069988  43.4862085  56.8502685  30.7403362
  48.3220012  56.6544997  29.9659988  47.8660012  57.1834997  29.3119988
  48.4850012  57.2574997  30.6919988  48.2815585  56.8084468  29.9745062
  50.6500012  55.5324997  30.9109988  49.7450012  55.6974997  30.6459988
  51.0790012  56.3854997  30.8459988  50.5840799  55.6704483  30.8659182
  53.2540012  57.1024997  31.2059988  53.0720012  58.0184997  30.9959988
  53.4310012  56.6924997  30.3599988  53.2530210  57.1724822  31.0627885
  40.5590012  55.7894997  28.6709988  40.5410012  55.3644997  29.5289988
  41.3640012  55.4714997  28.2629988  40.6653875  55.6883812  28.7331655
  42.7010012  54.4994997  27.3259988  42.4820012  53.5834997  27.4959988
  43.5250012  54.6394997  27.7919988  42.7824420  54.3930520  27.4122774
  45.2380012  54.9694997  28.1749988  45.4510012  54.0814997  27.8879988
  45.3020012  54.9354997  29.1289988  45.2758232  54.8433102  28.2647397
  48.7460012  40.6334997  27.3189988  48.0720012  40.0044997  27.5749988
  49.3100012  40.1494997  26.7159988  48.7299230  40.4818744  27.2725340
  53.8890012  38.7414997  27.4319988  54.4930012  39.2884997  26.9299988
  53.0190012  39.0604997  27.1919988  53.8541241  38.8595806  27.3307654
  55.6160012  39.8794997  25.7649988  56.2280012  39.3654997  25.2389988
  55.9980012  40.7574997  25.7889988  55.7514540  39.9277140  25.6961830
  41.0730012  39.2674997  25.1409988  40.2960012  39.0334997  24.6339988
  41.6030012  38.4704997  25.1499988  41.0382330  39.1276988  25.0727742
  39.9090012  39.0654997  20.9449988  40.3480012  39.6764997  20.3529988
  39.2760012  39.6034997  21.4189988  39.8834514  39.2219257  20.9280930
  45.6520012  39.1944997  24.9549988  46.5270012  39.5824997  24.9249988
  45.5160012  38.9794997  25.8769988  45.7533695  39.2185184  25.0756440
  51.2090012  39.2244997  26.6039988  51.2850012  39.3194997  25.6539988
  50.9340012  38.3164997  26.7329988  51.1822321  39.1147867  26.4915079
  52.5620012  39.2504997  22.2959988  51.8600012  39.8654997  22.0869988
  52.1180012  38.4124997  22.4269988  52.4056330  39.2215783  22.2850328
  39.8100012  55.0134997  21.8429988  39.1250012  54.9754997  21.1749988
  39.8140012  55.9264997  22.1309988  39.7168193  55.1317016  21.7905284
  41.7700012  40.9814997  19.3869988  42.2620012  40.3514997  18.8599988
  42.3940012  41.2774997  20.0509988  41.9215446  40.9353199  19.4045980
  46.7960012  41.2744997  21.8439988  46.9740012  40.6284997  22.5269988
  46.7430012  42.1084997  22.3119988  46.8131829  41.2987985  22.0005940
  48.6750012  56.2234997  20.2399988  49.5410012  56.5894997  20.0619988
  48.4280012  55.7834997  19.4259988  48.7602392  56.2141756  20.1056289
  55.3840012  55.7864997  22.9189988  55.1890012  55.0384997  22.3539988
  55.3450012  56.5444997  22.3359988  55.3520380  55.7866099  22.7628384
  41.0310012  39.7814997  34.6589988  40.6650012  39.0164997  35.1019988
  41.9440012  39.8104997  34.9459988  41.1042790  39.6807224  34.7584070
  43.0040012  39.1324997  36.1949988  43.9020012  38.8584997  36.0099988
  42.6170012  38.3894997  36.6589988  43.0746612  38.9945914  36.2323643
  41.6280012  55.9334997  18.8679988  41.3610012  56.2204997  19.7409988
  42.4000012  55.3874997  19.0199988  41.6957488  55.8990294  19.0081050
  51.4250012  38.4644997  36.3769988  51.5020012  38.0384997  37.2309988
  52.3190012  38.4784997  36.0339988  51.5563428  38.4080879  36.4475310
  54.6010012  54.5374997  35.0689988  53.8190012  54.3514997  34.5499988
  54.5290012  55.4664997  35.2869988  54.4841777  54.6376492  35.0274048
  69.0070012  48.4234997  25.0999988  69.0960012  49.3674997  24.9679988
  68.3690012  48.1484997  24.4419988  68.9329081  48.5154830  24.9929614
  67.9400012  47.6784997  28.5189988  67.9020012  47.0324997  29.2239988
  67.6180012  47.2124997  27.7479988  67.8912333  47.5269408  28.5112978
  60.3090012  47.2934997  30.1119988  60.3500012  46.6674997  30.8349988
  61.0120012  47.9174997  30.2939988  60.4096363  47.2921196  30.2356044
  71.6460012  50.6174997  26.8199988  71.2060012  49.8974997  27.2709988
  71.6330012  51.3384997  27.4499988  71.5840226  50.6163731  26.9668494
  61.2320012  51.7434997  28.6469988  60.8630012  50.9414997  28.2769988
  62.1730012  51.5744997  28.6929988  61.3087289  51.6110153  28.6026316
  57.8420012  45.4034997  24.0399988  57.3950012  46.2494997  24.0209988
  57.2810012  44.8234997  23.5239988  57.7049900  45.4409916  23.9676801
  58.5530012  47.5654997  26.1659988  58.7660012  46.7954997  26.6929988
  59.2910012  47.6544997  25.5619988  58.6818496  47.4721394  26.1565300
  74.9930012  41.7124997  29.7859988  75.0420012  42.3224997  30.5219988
  75.4180012  42.1734997  29.0629988  75.0571824  41.8583741  29.7890205
  69.4710012  44.5054997  29.2529988  69.6130012  43.5594997  29.2729988
  69.3640012  44.7124997  28.3239988  69.4759864  44.4039534  29.1302339
  62.6250012  42.6064997  26.5249988  62.6690012  43.4664997  26.1069988
  62.1680012  42.0544997  25.8909988  62.5692185  42.6495799  26.3820299
  70.3480012  42.7374997  24.9259988  70.9940012  42.4084997  25.5509988
  70.8580012  43.2554997  24.3029988  70.5054264  42.7624611  24.9273862
  59.2460012  45.0034997  27.2869988  59.8990012  44.4534997  27.7189988
  59.2700012  44.7294997  26.3699988  59.3386683  44.8911466  27.2222123
  64.4020012  46.5534997  26.5019988  65.0180012  46.0274997  27.0119988
  63.8160012  45.9134997  26.0989988  64.4070810  46.3949208  26.5173173
  75.3840012  43.1904997  32.0219988  74.6960012  43.8484997  31.9259988
  75.4000012  42.9934997  32.9579988  75.2918525  43.2540462  32.1354808
  61.4360012  41.5244997  30.5989988  61.2170012  42.0544997  29.8329988
  60.7680012  41.7514997  31.2459988  61.3157600  41.6276906  30.5816379
  68.8050012  51.0244997  24.1429988  68.5090012  50.7024997  23.2919988
  68.4800012  51.9244997  24.1839988  68.7206371  51.1020215  24.0321801
  72.1120012  42.0284997  26.9059988  71.8960012  41.2624997  27.4389988
  72.7670012  42.5004997  27.4189988  72.1710632  41.9875889  27.0482861
  61.0290012  43.4164997  28.5509988  61.6430012  44.0494997  28.9249988
  61.5410012  42.9444997  27.8949988  61.1822296  43.4392370  28.5134252
  58.5330012  50.8354997  22.4559988  58.2610012  51.0644997  21.5669988
  58.5790012  51.6734997  22.9159988  58.5020094  50.9801213  22.3965697
  72.4590012  40.7434997  30.5859988  71.7230012  41.3544997  30.5479988
  73.1420012  41.1584997  30.0589988  72.4506541  40.8831374  30.5095832
  65.4620012  38.8304997  28.0519988  65.3450012  37.8814997  27.9969988
  64.6070012  39.1624997  28.3249988  65.3303733  38.7455409  28.0813897
  70.4100012  54.2384997  25.7939988  70.8360012  53.5314997  25.3089988
  70.7270012  55.0394997  25.3769988  70.5111019  54.2500994  25.6713130
  71.5700012  52.1394997  24.3019988  71.3120012  51.4494997  23.6909988
  71.6410012  51.6964997  25.1479988  71.5442856  51.9852124  24.3326885
  67.7290012  47.6674997  22.5519988  67.0170012  48.2024997  22.1999988
  68.4200012  47.7234997  21.8919988  67.7250132  47.7482543  22.4146289
  67.7820012  46.1254997  19.5909988  68.4830012  46.1474997  20.2419988
  68.0850012  45.4974997  18.9349988  67.9187830  46.0436566  19.5913711
  75.0980012  47.0454997  30.8459988  74.4450012  47.7404997  30.9349988
  75.5630012  47.2554997  30.0359988  75.0715390  47.1689425  30.7486883
  71.1340012  47.8774997  23.5039988  70.4020012  48.1054997  24.0769988
  71.5820012  47.1634997  23.9589988  71.0943095  47.8122571  23.6439119
  62.7800012  48.5074997  25.3859988  62.4490012  48.1374997  24.5679988
  63.3680012  47.8374997  25.7329988  62.8141873  48.3661156  25.3208102
  64.1460012  51.9354997  28.0679988  64.0520012  51.3574997  27.3109988
  64.8760012  51.5644997  28.5639988  64.2317981  51.8062390  28.0314165
  63.1460012  47.2764997  29.0199988  63.7120012  47.3974997  28.2569988
  63.4650012  47.9134997  29.6589988  63.2665786  47.3791884  29.0020040
  70.0050012  47.0394997  21.1889988  70.5850012  47.1894997  21.9359988
  70.4190012  47.5104997  20.4659988  70.1402830  47.1236841  21.1934134
  60.9460012  47.8734997  32.9659988  61.0170012  48.5244997  33.6639988
  60.0560012  47.9764997  32.6309988  60.8353117  47.9765936  33.0162700
  67.7320012  53.7764997  24.6239988  68.2060012  54.0714997  25.4019988
  67.1690012  54.5144997  24.3909988  67.7207653  53.9166932  24.6990136
  73.7040012  38.7894997  21.0019988  72.8040012  38.9284997  21.2969988
  73.9560012  39.6204997  20.5999988  73.6148702  38.9209074  20.9880205
  61.7700012  47.5774997  22.9759988  61.4780012  48.3454997  22.4849988
  61.0960012  46.9174997  22.8129988  61.6389081  47.5934406  22.8867340
  74.8930012  53.1554997  19.3779988  74.9670012  54.0944997  19.5489988
  75.7990012  52.8504997  19.3219988  75.0255100  53.2426722  19.3938119
  57.8630012  49.9404997  31.7909988  57.3620012  49.9124997  30.9759988
  57.8680012  49.0344997  32.0999988  57.7951526  49.8142278  31.7212872
  57.6130012  52.7204997  28.6749988  58.5590012  52.5764997  28.6559988
  57.5010012  53.5044997  29.2119988  57.7272727  52.8068046  28.7450072
  67.2040012  56.7324997  23.0389988  67.1290012  56.6114997  22.0929988
  67.2370012  57.6824997  23.1579988  67.1981848  56.8442500  22.9254834
  60.8570012  55.5214997  24.8199988  61.0100012  55.1734997  25.6989988
  60.0070012  55.1654997  24.5649988  60.7628962  55.4256650  24.9058340
  70.3060012  55.8864997  20.0409988  70.6810012  55.1424997  19.5709988
  70.3100012  55.6164997  20.9599988  70.3578915  55.7481486  20.1007824
  69.9750012  55.8124997  22.7909988  69.0390012  55.9124997  22.9689988
  70.2550012  55.1034997  23.3689988  69.8848255  55.7302711  22.8935391
  72.9630012  44.8794997  34.8369988  72.5560012  45.3604997  34.1159988
  73.0040012  43.9744997  34.5289988  72.9128437  44.8229374  34.6966683
  60.1120012  51.2634997  32.8339988  60.3280012  50.9024997  33.6929988
  59.2570012  50.8894997  32.6239988  60.0259292  51.1634111  32.9233386
  62.7310012  39.7334997  28.8289988  61.8690012  39.6464997  28.4219988
  62.7080012  40.5894997  29.2569988  62.6100330  39.8372765  28.8311863
  67.3940012  39.4554997  32.2039988  67.8140012  39.0404997  32.9569988
  66.4610012  39.2774997  32.3209988  67.3253644  39.3745900  32.3229539
  70.7200012  43.2114997  33.0569988  70.2060012  43.0854997  33.8549988
  70.5650012  44.1234997  32.8129988  70.6286852  43.3176132  33.1332158
  71.4830012  48.0724997  18.8189988  71.5250012  47.8494997  17.8889988
  72.3320012  48.4714997  19.0089988  71.6035396  48.0959155  18.7173627
  67.0550012  41.9484997  19.4889988  66.8020012  41.9674997  20.4119988
  66.7990012  41.0764997  19.1879988  66.9857790  41.8332437  19.5746263
  62.8220012  44.6994997  29.9239988  62.1800012  44.6584997  30.6329988
  62.8590012  45.6254997  29.6869988  62.7391324  44.8191559  29.9889824
  62.8190012  44.9204997  24.8359988  61.9260012  44.5794997  24.7779988
  63.2690012  44.5434997  24.0809988  62.7577305  44.8228484  24.7259177
  68.3540012  45.3364997  23.6529988  67.9450012  46.1514997  23.3619988
  69.0750012  45.1964997  23.0389988  68.3954537  45.4292018  23.5301342
  69.3590012  44.7824997  26.4669988  69.1640012  45.3874997  25.7519988
  69.5400012  43.9484997  26.0329988  69.3567614  44.7526300  26.3104405
  60.5720012  45.0194997  31.7909988  60.5340012  45.4194997  32.6599988
  60.0810012  44.2024997  31.8819988  60.5004684  44.9638069  31.9221059
  63.9380012  42.3934997  18.5899988  63.5070012  41.9484997  19.3199988
  63.2200012  42.7654997  18.0779988  63.7819438  42.3828940  18.6206799
  57.1800012  42.1354997  25.6419988  57.8110012  42.1064997  26.3609988
  57.6290012  41.7104997  24.9119988  57.3270774  42.0740492  25.6416553
  58.4540012  42.8814997  21.0659988  58.9280012  43.4724997  20.4809988
  57.7370012  43.4124997  21.4129988  58.4219341  43.0340867  21.0328836
  65.4000012  42.3474997  25.9229988  64.4890012  42.4044997  26.2109988
  65.9060012  42.2874997  26.7329988  65.3435413  42.3471985  26.0720622
  60.2290012  43.9764997  24.7489988  59.3390012  44.0764997  24.4089988
  60.5250012  43.1344997  24.4029988  60.1472823  43.8763545  24.6557213
  63.8820012  43.9764997  22.4059988  64.8130012  44.1054997  22.5839988
  63.6670012  44.6464997  21.7559988  63.9804247  44.0846565  22.3425747
  69.8050012  41.5824997  29.1869988  69.1290012  41.7134997  29.8509988
  69.3200012  41.4274997  28.3769988  69.6467145  41.5794905  29.1684517
  62.5560012  45.1714997  19.9729988  62.0130012  44.7914997  19.2809988
  63.3890012  45.3654997  19.5439988  62.5944399  45.1458124  19.8204526
  60.6910012  49.7284997  35.0719988  61.4230012  49.9824997  35.6329988
  59.9110012  49.9324997  35.5869988  60.6858232  49.7909177  35.2185760
  66.7200012  45.1354997  27.8099988  67.2850012  44.5884997  27.2629988
  66.5730012  44.6134997  28.5979988  66.7772918  44.9902024  27.8418454
  61.7220012  41.2714997  24.2279988  61.4050012  40.3694997  24.1929988
  62.5040012  41.2734997  23.6749988  61.7842284  41.1481628  24.1484783
  65.3470012  43.5234997  30.2239988  64.5110012  43.9774997  30.3339988
  65.8710012  43.7994997  30.9759988  65.3034414  43.6229376  30.3407136
  65.8910012  49.7364997  21.9079988  65.1460012  49.2294997  21.5859988
  65.7570012  49.7854997  22.8549988  65.7708776  49.6736940  21.9918647
  69.7890012  42.5504997  20.1079988  68.8500012  42.6624997  19.9559988
  70.0860012  43.4074997  20.4139988  69.7007666  42.6816443  20.1285768
  70.5070012  44.4174997  21.7679988  71.3990012  44.2804997  22.0869988
  70.5640012  45.2084997  21.2319988  70.6366285  44.5056660  21.7391691
  61.0160012  49.0314997  27.6779988  61.7610012  49.0294997  27.0769988
  61.0940012  48.2084997  28.1599988  61.1285518  48.9199315  27.6608929
  68.0170012  51.1954997  20.9339988  67.7210012  52.0214997  21.3149988
  67.3140012  50.5754997  21.1299988  67.8814914  51.2248199  21.0126443
  58.0240012  47.4924997  32.9929988  58.2470012  47.0744997  33.8249988
  57.4220012  46.8794997  32.5699988  57.9731759  47.3524668  33.0497022
  75.3920012  44.6274997  21.4629988  74.8380012  44.2314997  20.7909988
  75.4920012  45.5374997  21.1849988  75.3297059  44.6963586  21.3334401
  73.6870012  53.4134997  21.9279988  73.3140012  52.5874997  22.2369988
  73.9650012  53.2304997  21.0309988  73.6735630  53.2757303  21.8489626
  70.8480012  48.2214997  28.9489988  69.9190012  47.9894997  28.9219988
  71.2990012  47.4444997  28.6189988  70.7819216  48.0847238  28.9006917
  63.3910012  52.5494997  25.0819988  63.9180012  53.3224997  24.8819988
  62.5110012  52.7744997  24.7809988  63.3441773  52.6858005  25.0139010
  59.1460012  47.4114997  19.6689988  59.7620012  48.0384997  20.0489988
  58.2840012  47.7274997  19.9409988  59.1137698  47.5399430  19.7577183
  64.8180012  50.2124997  24.6589988  64.5770012  51.1374997  24.6999988
  64.0770012  49.7534997  25.0549988  64.6848409  50.2771421  24.7181377
  63.5010012  55.2344997  24.2039988  62.5510012  55.3394997  24.2549988
  63.8530012  56.0544997  24.5489988  63.4184203  55.3598314  24.2576650
  71.0800012  51.3894997  19.7479988  71.4330012  51.0094997  20.5529988
  70.1310012  51.2964997  19.8349988  71.0000441  51.3249596  19.8698559
  75.5830012  55.8694997  19.9489988  76.3270012  56.4554997  19.8089988
  74.8890012  56.4374997  20.2829988  75.5910292  56.0265582  19.9749961
  59.6580012  42.2454997  32.5509988  58.7650012  42.5844997  32.4829988
  59.5590012  41.3904997  32.9689988  59.5224164  42.1762588  32.5982235
  71.9460012  50.0624997  21.9749988  71.6680012  49.3344997  22.5309988
  72.8730012  50.1814997  22.1799988  72.0333124  49.9788802  22.0788845
  59.3090012  54.0504997  30.9859988  59.5260012  53.1184997  30.9549988
  59.5550012  54.3244997  31.8689988  59.3719549  53.9600636  31.1011763
  65.1710012  52.5014997  18.1949988  65.4100012  51.7534997  17.6479988
  64.9020012  52.1134997  19.0279988  65.1673675  52.3466638  18.2326865
  64.1080012  52.0714997  20.6519988  64.2540012  51.5514997  21.4419988
  64.1050012  52.9784997  20.9579988  64.1275989  52.1228853  20.8016088
  60.5610012  49.3244997  21.1619988  59.8750012  49.6764997  21.7289988
  61.0830012  50.0874997  20.9149988  60.5376852  49.4758578  21.2062118
  68.3920012  41.9864997  31.4409988  69.0910012  42.0604997  32.0909988
  68.0110012  41.1224997  31.5949988  68.4361767  41.8797624  31.5508322
  69.1770012  41.6384997  22.5379988  69.3970012  42.1104997  21.7349988
  69.7350012  42.0334997  23.2079988  69.2824968  41.7564285  22.5187331
  66.8450012  53.7694997  21.4009988  66.0290012  54.2664997  21.4529988
  67.3750012  54.2444997  20.7609988  66.8049161  53.9017722  21.3215956
  66.3770012  43.3664997  23.3729988  67.1890012  43.8714997  23.4189988
  66.1320012  43.2214997  24.2869988  66.4550520  43.4160375  23.5028517
  66.9120012  44.3524997  32.5579988  67.0310012  44.9264997  33.3149988
  67.5680012  43.6644997  32.6719988  67.0169757  44.3381079  32.6770825
  67.2600012  40.4474997  24.3109988  66.9140012  41.0654997  24.9559988
  67.9190012  40.9484997  23.8299988  67.3017826  40.5995802  24.3340971
  64.1840012  54.8134997  21.3829988  64.3440012  55.6124997  20.8819988
  63.9860012  55.1194997  22.2679988  64.1791649  54.9644469  21.4339815
  62.9180012  41.5104997  20.9979988  62.8350012  42.3994997  21.3449988
  63.8080012  41.2454997  21.2299988  63.0269469  41.5961430  21.0767626
  73.1170012  42.2594997  33.3929988  72.2000012  42.5224997  33.3049988
  73.4520012  42.2564997  32.4959988  73.0369900  42.2950224  33.2597919
  71.7190012  46.0104997  27.4879988  70.9210012  45.5954997  27.1599988
  72.1640012  45.3194997  27.9789988  71.6699885  45.8603543  27.5094889
  61.1770012  51.9384997  20.0589988  61.7690012  52.6374997  20.3349988
  61.6360012  51.5054997  19.3389988  61.3201142  51.9757049  19.9994830
  59.4930012  44.6024997  19.1749988  59.4480012  45.5414997  19.3529988
  58.6050012  44.3664997  18.9049988  59.3668574  44.6991892  19.1628912
  60.3010012  39.3844997  27.8479988  60.0720012  39.4434997  26.9199988
  59.8580012  38.5924997  28.1539988  60.2098530  39.2855753  27.7624786
  59.2310012  53.3244997  24.0079988  58.3990012  53.7974997  24.0359988
  59.7770012  53.8344997  23.4099988  59.1909739  53.4581871  23.9309716
  67.2090012  54.3644997  18.3339988  66.5650012  53.7334997  18.6549988
  67.9710012  53.8334997  18.1019988  67.2238077  54.2062920  18.3466011
  71.8130012  54.1814997  18.5679988  72.0960012  53.3874997  19.0199988
  72.5530012  54.4144997  18.0069988  71.9517486  54.1042803  18.5540698
  58.4260012  49.7474997  36.2929988  58.5700012  48.8454997  36.0059988
  57.6540012  50.0334997  35.8049988  58.3413322  49.6628261  36.1877881
  62.7680012  50.0914997  18.4249988  62.8320012  49.2974997  18.9559988
  63.4210012  49.9724997  17.7349988  62.8650241  49.9667148  18.4044317
  68.1200012  51.1384997  18.1609988  67.8510012  51.3184997  19.0619988
  67.9140012  50.2124997  18.0299988  68.0553825  51.0380152  18.2665214
  59.2590012  46.9474997  35.7129988  59.6670012  46.0904997  35.5919988
  58.9990012  46.9624997  36.6339988  59.2797568  46.8320807  35.8209588
  63.9170012  48.0634997  20.7309988  63.4570012  47.5794997  21.4169988
  64.1720012  47.3954997  20.0949988  63.8884902  47.9068731  20.7389334
  63.2060012  45.9564997  33.0869988  62.5880012  46.6314997  33.3669988
  63.5500012  46.2774997  32.2539988  63.1679615  46.0922721  33.0126581
  64.9880012  46.3064997  18.9929988  64.8080012  46.1524997  18.0659988
  65.9380012  46.4144997  19.0379988  65.0917776  46.3000175  18.8721843
  74.3780012  48.6614997  18.4389988  74.1040012  48.2364997  17.6259988
  74.4170012  49.5924997  18.2219988  74.3457699  48.7292484  18.2983610
  63.5450012  43.3114997  34.1689988  63.6950012  42.5824997  33.5669988
  63.5480012  44.0884997  33.6099988  63.5659302  43.3167851  34.0110692
  63.9580012  41.6814997  31.6619988  64.4940012  42.1324997  31.0099988
  63.1060012  41.5734997  31.2389988  63.9162178  41.7286390  31.5155756
  65.5400012  47.1204997  31.9009988  66.2900012  46.9644997  31.3279988
  65.2010012  47.9724997  31.6259988  65.5968921  47.2142968  31.7853561
  69.9550012  44.9354997  36.9299988  70.1480012  44.0044997  36.8179988
  70.8130012  45.3604997  36.9199988  70.0973020  44.8656389  36.9133361
  62.0240012  44.5094997  36.0809988  61.2570012  43.9774997  35.8709988
  62.7030012  44.1994997  35.4809988  62.0107022  44.3947506  35.9711648
  64.7640012  39.1374997  32.0929988  64.6650012  40.0844997  31.9879988
  64.0210012  38.7654997  31.6179988  64.6500564  39.2165902  32.0144560
  66.0280012  43.4594997  35.6569988  65.7920012  43.2394997  36.5589988
  65.2440012  43.2524997  35.1469988  65.8898628  43.4014760  35.7113932
  68.7430012  42.5864997  34.7329988  67.7960012  42.6184997  34.8649988
  69.0560012  41.9614997  35.3859988  68.6555475  42.5063207  34.8394455
  70.3770012  41.2204997  36.7379988  70.2810012  40.2684997  36.7319988
  70.0560012  41.4894997  37.5979988  70.3204070  41.1264035  36.8535441
  60.2040012  42.4304997  35.7849988  60.4160012  41.7234997  35.1749988
  60.0930012  41.9924997  36.6289988  60.2179721  42.2747084  35.8156843
  64.9850012  38.4314997  34.7649988  65.6970012  37.7914997  34.7509988
  64.8840012  38.6984997  33.8509988  65.0687939  38.3799938  34.6395650
  65.3390012  40.1144997  36.8179988  65.2070012  39.6384997  35.9979988
  64.7400012  40.8584997  36.7629988  65.2399071  40.1499618  36.6982886
  64.8850012  56.9974997  19.9949988  65.8180012  57.1554997  20.1379988
  64.6210012  57.6724997  19.3699988  64.9769510  57.1103611  19.9300741
  58.4540012  51.6334997  19.4769988  59.3680012  51.7124997  19.7509988
  58.4610012  50.9464997  18.8109988  58.5801131  51.5513961  19.4244393
  57.1030012  57.0264997  24.5549988  56.4560012  56.5644997  24.0219988
  57.4570012  56.3544997  25.1369988  57.0623849  56.8724723  24.5607959
  57.9730012  55.1074997  26.3589988  57.6380012  54.2274997  26.5309988
  58.1950012  55.4524997  27.2239988  57.9571783  55.0337500  26.4994208
  74.8360012  49.5304997  22.4139988  75.6860012  49.9514997  22.5409988
  74.8420012  48.7904997  23.0209988  74.9531372  49.4880803  22.5134344
  75.2310012  47.5834997  24.2379988  74.5040012  47.1044997  24.6349988
  75.8120012  47.7894997  24.9699988  75.2099375  47.5457090  24.3914129
  74.9900012  50.3684997  29.1849988  75.8230012  49.9904997  28.9049988
  75.1020012  51.3114997  29.0659988  75.1192647  50.4442218  29.1305487
  75.4990012  47.4844997  20.6289988  74.9770012  47.8414997  19.9099988
  75.4660012  48.1594997  21.3069988  75.4231634  47.6245413  20.6223145
  73.8480012  44.7244997  19.1799988  73.9440012  45.3914997  18.4989988
  73.7080012  43.9084997  18.6979988  73.8422135  44.7054500  19.0218491
  73.0170012  46.1044997  24.8009988  72.8670012  45.1594997  24.7799988
  72.6640012  46.3854997  25.6439988  72.9486625  46.0130441  24.9122346
  58.0530012  48.1824997  28.8109988  58.2370012  48.1004997  27.8749988
  58.9020012  48.0584997  29.2349988  58.1930139  48.1545003  28.7401455
  75.3700012  45.9774997  35.1239988  74.5070012  45.5984997  34.9579988
  75.9750012  45.2384997  35.0499988  75.3335979  45.8258023  35.0912817
  73.0950012  42.1324997  18.2969988  73.7060012  41.7614997  18.9339988
  72.2590012  41.7114997  18.4929988  73.0655032  42.0247554  18.4107035
  72.7280012  43.6874997  23.2629988  73.0080012  42.7804997  23.3869988
  73.4870012  44.1214997  22.8739988  72.8689277  43.6220942  23.2273682
  73.3400012  44.2684997  28.6989988  74.2730012  44.4804997  28.6649988
  73.1050012  44.3704997  29.6209988  73.4358036  44.3112769  28.8189976
  73.3690012  45.0054997  31.4749988  72.5260012  45.2734997  31.8409988
  73.8110012  45.8274997  31.2639988  73.3134158  45.1533291  31.4965491
  57.6500012  43.4534997  34.9519988  58.5700012  43.3314997  35.1879988
  57.2010012  42.7034997  35.3409988  57.7151580  43.3353727  35.0369006
  75.6520012  38.9854997  36.8279988  76.0020012  38.3314997  36.2229988
  75.7990012  39.8224997  36.3889988  75.7198419  39.0091591  36.6857118
  73.3410012  40.9504997  23.3109988  73.5240012  40.5014997  24.1369988
  72.7420012  40.3654997  22.8479988  73.2850202  40.8099975  23.3613275
  58.8710012  41.7654997  27.8429988  59.3170012  40.9734997  28.1449988
  59.3380012  42.4814997  28.2739988  58.9950172  41.7540624  27.9424820
  57.1750012  44.7644997  28.9119988  57.6670012  44.5434997  28.1209988
  57.5380012  45.6054997  29.1929988  57.2913126  44.8478357  28.8417531
  75.1720012  41.0944997  35.1779988  74.2540012  41.3654997  35.1419988
  75.2950012  40.5594997  34.3929988  75.0631066  41.0592892  35.0670487
  75.2080012  41.0174997  19.8389988  75.6200012  40.2964997  19.3639988
  75.8900012  41.6874997  19.8979988  75.3565885  41.0092368  19.7818915
  57.4890012  41.0224997  22.9659988  56.5640012  41.2314997  22.8369988
  57.9430012  41.5064997  22.2769988  57.4237368  41.1165993  22.8551226
  72.2600012  56.0064997  24.9119988  72.9120012  55.6594997  24.3039988
  72.7700012  56.4954997  25.5579988  72.4182637  56.0250597  24.9160236
  57.4530012  39.7604997  31.3109988  56.7880012  39.5144997  31.9539988
  57.0100012  40.3824997  30.7329988  57.3020956  39.8108632  31.3209352
  59.6450012  52.9354997  35.4549988  58.8240012  53.1104997  34.9949988
  59.3920012  52.8624997  36.3759988  59.4986164  52.9495622  35.5164923
  74.1720012  39.1844997  32.9969988  73.3600012  39.5094997  32.6089988
  74.4050012  38.4244997  32.4639988  74.0923423  39.1262436  32.8718253
  59.4150012  55.7894997  28.6709988  59.3970012  55.3644997  29.5289988
  60.2200012  55.4714997  28.2629988  59.5213875  55.6883812  28.7331655
  61.5570012  54.4994997  27.3259988  61.3380012  53.5834997  27.4959988
  62.3810012  54.6394997  27.7919988  61.6384420  54.3930520  27.4122774
  64.0940012  54.9694997  28.1749988  64.3070012  54.0814997  27.8879988
  64.1580012  54.9354997  29.1289988  64.1318232  54.8433102  28.2647397
  67.6020012  40.6334997  27.3189988  66.9280012  40.0044997  27.5749988
  68.1660012  40.1494997  26.7159988  67.5859230  40.4818744  27.2725340
  72.7450012  38.7414997  27.4319988  73.3490012  39.2884997  26.9299988
  71.8750012  39.0604997  27.1919988  72.7101241  38.8595806  27.3307654
  74.4720012  39.8794997  25.7649988  75.0840012  39.3654997  25.2389988
  74.8540012  40.7574997  25.7889988  74.6074540  39.9277140  25.6961830
  59.9290012  39.2674997  25.1409988  59.1520012  39.0334997  24.6339988
  60.4590012  38.4704997  25.1499988  59.8942330  39.1276988  25.0727742
  58.7650012  39.0654997  20.9449988  59.2040012  39.6764997  20.3529988
  58.1320012  39.6034997  21.4189988  58.7394514  39.2219257  20.9280930
  64.5080012  39.1944997  24.9549988  65.3830012  39.5824997  24.9249988
  64.3720012  38.9794997  25.8769988  64.6093695  39.2185184  25.0756440
  70.0650012  39.2244997  26.6039988  70.1410012  39.3194997  25.6539988
  69.7900012  38.3164997  26.7329988  70.0382321  39.1147867  26.4915079
  71.4180012  39.2504997  22.2959988  70.7160012  39.8654997  22.0869988
  70.9740012  38.4124997  22.4269988  71.2616330  39.2215783  22.2850328
  58.6660012  55.0134997  21.8429988  57.9810012  54.9754997  21.1749988
  58.6700012  55.9264997  22.1309988  58.5728193  55.1317016  21.7905284
  60.6260012  40.9814997  19.3869988  61.1180012  40.3514997  18.8599988
  61.2500012  41.2774997  20.0509988  60.7775446  40.9353199  19.4045980
  65.6520012  41.2744997  21.8439988  65.8300012  40.6284997  22.5269988
  65.5990012  42.1084997  22.3119988  65.6691829  41.2987985  22.0005940
  67.5310012  56.2234997  20.2399988  68.3970012  56.5894997  20.0619988
  67.2840012  55.7834997  19.4259988  67.6162392  56.2141756  20.1056289
  74.2400012  55.7864997  22.9189988  74.0450012  55.0384997  22.3539988
  74.2010012  56.5444997  22.3359988  74.2080380  55.7866099  22.7628384
  59.8870012  39.7814997  34.6589988  59.5210012  39.0164997  35.1019988
  60.8000012  39.8104997  34.9459988  59.9602790  39.6807224  34.7584070
  61.8600012  39.1324997  36.1949988  62.7580012  38.8584997  36.0099988
  61.4730012  38.3894997  36.6589988  61.9306612  38.9945914  36.2323643
  60.4840012  55.9334997  18.8679988  60.2170012  56.2204997  19.7409988
  61.2560012  55.3874997  19.0199988  60.5517488  55.8990294  19.0081050
  70.2810012  38.4644997  36.3769988  70.3580012  38.0384997  37.2309988
  71.1750012  38.4784997  36.0339988  70.4123428  38.4080879  36.4475310
  87.8630012  48.4234997  25.0999988  87.9520012  49.3674997  24.9679988
  87.2250012  48.1484997  24.4419988  87.7889081  48.5154830  24.9929614
  86.7960012  47.6784997  28.5189988  86.7580012  47.0324997  29.2239988
  86.4740012  47.2124997  27.7479988  86.7472333  47.5269408  28.5112978
  79.1650012  47.2934997  30.1119988  79.2060012  46.6674997  30.8349988
  79.8680012  47.9174997  30.2939988  79.2656363  47.2921196  30.2356044
  90.5020012  50.6174997  26.8199988  90.0620012  49.8974997  27.2709988
  90.4890012  51.3384997  27.4499988  90.4400226  50.6163731  26.9668494
  80.0880012  51.7434997  28.6469988  79.7190012  50.9414997  28.2769988
  81.0290012  51.5744997  28.6929988  80.1647289  51.6110153  28.6026316
  76.6980012  45.4034997  24.0399988  76.2510012  46.2494997  24.0209988
  76.1370012  44.8234997  23.5239988  76.5609900  45.4409916  23.9676801
  77.4090012  47.5654997  26.1659988  77.6220012  46.7954997  26.6929988
  78.1470012  47.6544997  25.5619988  77.5378496  47.4721394  26.1565300
  87.6140012  55.7224997  27.0329988  88.2340012  55.0454997  26.7589988
  87.4060012  55.5044997  27.9409988  87.6706904  55.6003870  27.1183365
  85.1860012  50.1114997  28.9249988  85.4900012  49.4254997  28.3299988
  85.9070012  50.2294997  29.5429988  85.3250671  50.0336304  28.9271816
  93.8490012  41.7124997  29.7859988  93.8980012  42.3224997  30.5219988
  94.2740012  42.1734997  29.0629988  93.9131824  41.8583741  29.7890205
  88.3270012  44.5054997  29.2529988  88.4690012  43.5594997  29.2729988
  88.2200012  44.7124997  28.3239988  88.3319864  44.4039534  29.1302339
  81.4810012  42.6064997  26.5249988  81.5250012  43.4664997  26.1069988
  81.0240012  42.0544997  25.8909988  81.4252185  42.6495799  26.3820299
  89.2040012  42.7374997  24.9259988  89.8500012  42.4084997  25.5509988
  89.7140012  43.2554997  24.3029988  89.3614264  42.7624611  24.9273862
  78.1020012  45.0034997  27.2869988  78.7550012  44.4534997  27.7189988
  78.1260012  44.7294997  26.3699988  78.1946683  44.8911466  27.2222123
  83.2580012  46.5534997  26.5019988  83.8740012  46.0274997  27.0119988
  82.6720012  45.9134997  26.0989988  83.2630810  46.3949208  26.5173173
  94.2400012  43.1904997  32.0219988  93.5520012  43.8484997  31.9259988
  94.2560012  42.9934997  32.9579988  94.1478525  43.2540462  32.1354808
  80.2920012  41.5244997  30.5989988  80.0730012  42.0544997  29.8329988
  79.6240012  41.7514997  31.2459988  80.1717600  41.6276906  30.5816379
  87.6610012  51.0244997  24.1429988  87.3650012  50.7024997  23.2919988
  87.3360012  51.9244997  24.1839988  87.5766371  51.1020215  24.0321801
  82.8610012  49.2004997  30.8859988  82.1210012  49.7984997  30.9899988
  83.5750012  49.7544997  30.5709988  82.8562237  49.3572831  30.8576465
  90.9680012  42.0284997  26.9059988  90.7520012  41.2624997  27.4389988
  91.6230012  42.5004997  27.4189988  91.0270633  41.9875889  27.0482861
  79.8850012  43.4164997  28.5509988  80.4990012  44.0494997  28.9249988
  80.3970012  42.9444997  27.8949988  80.0382296  43.4392370  28.5134252
  81.2680012  51.1644997  31.6739988  81.2630012  52.0444997  31.2959988
  80.4150012  51.0814997  32.0989988  81.1519464  51.2736117  31.6797907
  77.3890012  50.8354997  22.4559988  77.1170012  51.0644997  21.5669988
  77.4350012  51.6734997  22.9159988  77.3580094  50.9801213  22.3965697
  91.0140012  52.4574997  29.1679988  90.0730012  52.5154997  29.3299988
  91.2910012  53.3634997  29.0309988  90.9224679  52.5879443  29.1716815
  91.3150012  40.7434997  30.5859988  90.5790012  41.3544997  30.5479988
  91.9980012  41.1584997  30.0589988  91.3066541  40.8831374  30.5095832
  84.3180012  38.8304997  28.0519988  84.2010012  37.8814997  27.9969988
  83.4630012  39.1624997  28.3249988  84.1863733  38.7455409  28.0813897
  89.2660012  54.2384997  25.7939988  89.6920012  53.5314997  25.3089988
  89.5830012  55.0394997  25.3769988  89.3671019  54.2500994  25.6713130
  90.4260012  52.1394997  24.3019988  90.1680012  51.4494997  23.6909988
  90.4970012  51.6964997  25.1479988  90.4002856  51.9852124  24.3326885
  92.1120012  50.7054997  32.7799988  92.2520012  50.1144997  32.0399988
  92.2790012  51.5784997  32.4229988  92.1536778  50.7426426  32.6306965
  86.5850012  47.6674997  22.5519988  85.8730012  48.2024997  22.1999988
  87.2760012  47.7234997  21.8919988  86.5810132  47.7482543  22.4146289
  86.6380012  46.1254997  19.5909988  87.3390012  46.1474997  20.2419988
  86.9410012  45.4974997  18.9349988  86.7747830  46.0436566  19.5913711
  93.9540012  47.0454997  30.8459988  93.3010012  47.7404997  30.9349988
  94.4190012  47.2554997  30.0359988  93.9275390  47.1689425  30.7486883
  89.9900012  47.8774997  23.5039988  89.2580012  48.1054997  24.0769988
  90.4380012  47.1634997  23.9589988  89.9503095  47.8122571  23.6439119
  89.8880012  46.0514997  32.5709988  89.9680012  46.8144997  33.1429988
  89.2860012  46.3304997  31.8809988  89.8175756  46.1937134  32.5560589
  81.6360012  48.5074997  25.3859988  81.3050012  48.1374997  24.5679988
  82.2240012  47.8374997  25.7329988  81.6701873  48.3661156  25.3208102
  83.0020012  51.9354997  28.0679988  82.9080012  51.3574997  27.3109988
  83.7320012  51.5644997  28.5639988  83.0877981  51.8062390  28.0314165
  82.0020012  47.2764997  29.0199988  82.5680012  47.3974997  28.2569988
  82.3210012  47.9134997  29.6589988  82.1225786  47.3791884  29.0020040
  88.3110012  52.7794997  29.7539988  88.0710012  53.4414997  30.4019988
  88.1130012  51.9454997  30.1789988  88.2513808  52.7573134  29.9001524
  82.8820012  51.6754997  33.7369988  82.5710012  52.4574997  34.1919988
  82.2320012  51.5224997  33.0509988  82.7515558  51.7619105  33.7065871
  88.8610012  47.0394997  21.1889988  89.4410012  47.1894997  21.9359988
  89.2750012  47.5104997  20.4659988  88.9962830  47.1236841  21.1934134
  79.8020012  47.8734997  32.9659988  79.8730012  48.5244997  33.6639988
  78.9120012  47.9764997  32.6309988  79.6913117  47.9765936  33.0162700
  86.5880012  53.7764997  24.6239988  87.0620012  54.0714997  25.4019988
  86.0250012  54.5144997  24.3909988  86.5767653  53.9166932  24.6990136
  92.5600012  38.7894997  21.0019988  91.6600012  38.9284997  21.2969988
  92.8120012  39.6204997  20.5999988  92.4708702  38.9209074  20.9880205
  80.6260012  47.5774997  22.9759988  80.3340012  48.3454997  22.4849988
  79.9520012  46.9174997  22.8129988  80.4949081  47.5934406  22.8867340
  93.7490012  53.1554997  19.3779988  93.8230012  54.0944997  19.5489988
  94.6550012  52.8504997  19.3219988  93.8815100  53.2426722  19.3938119
  94.6670012  53.3864997  34.3569988  94.6180012  52.4314997  34.3199988
  93.8400012  53.6544997  34.7579988  94.5484940  53.2918998  34.4061375
  85.6460012  52.9604997  33.2329988  85.7330012  53.7864997  33.7079988
  84.7820012  52.6304997  33.4819988  85.5411964  53.0289878  33.3316549
  86.0600012  56.7324997  23.0389988  85.9850012  56.6114997  22.0929988
  86.0930012  57.6824997  23.1579988  86.0541848  56.8442500  22.9254834
  79.7130012  55.5214997  24.8199988  79.8660012  55.1734997  25.6989988
  78.8630012  55.1654997  24.5649988  79.6188962  55.4256650  24.9058340
  89.1620012  55.8864997  20.0409988  89.5370012  55.1424997  19.5709988
  89.1660012  55.6164997  20.9599988  89.2138915  55.7481486  20.1007824
  88.8310012  55.8124997  22.7909988  87.8950012  55.9124997  22.9689988
  89.1110012  55.1034997  23.3689988  88.7408255  55.7302711  22.8935391
  91.8190012  44.8794997  34.8369988  91.4120012  45.3604997  34.1159988
  91.8600012  43.9744997  34.5289988  91.7688437  44.8229374  34.6966683
  81.5870012  39.7334997  28.8289988  80.7250012  39.6464997  28.4219988
  81.5640012  40.5894997  29.2569988  81.4660330  39.8372765  28.8311863
  86.2500012  39.4554997  32.2039988  86.6700012  39.0404997  32.9569988
  85.3170012  39.2774997  32.3209988  86.1813644  39.3745900  32.3229539
  89.5760012  43.2114997  33.0569988  89.0620012  43.0854997  33.8549988
  89.4210012  44.1234997  32.8129988  89.4846852  43.3176132  33.1332158
  90.3390012  48.0724997  18.8189988  90.3810012  47.8494997  17.8889988
  91.1880012  48.4714997  19.0089988  90.4595396  48.0959155  18.7173627
  85.9110012  41.9484997  19.4889988  85.6580012  41.9674997  20.4119988
  85.6550012  41.0764997  19.1879988  85.8417790  41.8332437  19.5746263
  81.6780012  44.6994997  29.9239988  81.0360012  44.6584997  30.6329988
  81.7150012  45.6254997  29.6869988  81.5951324  44.8191559  29.9889824
  81.6750012  44.9204997  24.8359988  80.7820012  44.5794997  24.7779988
  82.1250012  44.5434997  24.0809988  81.6137305  44.8228484  24.7259177
  87.2100012  45.3364997  23.6529988  86.8010012  46.1514997  23.3619988
  87.9310012  45.1964997  23.0389988  87.2514537  45.4292018  23.5301342
  86.3120012  45.5114997  35.1409988  85.7500012  44.8074997  35.4619988
  87.1390012  45.3914997  35.6089988  86.3467095  45.3987883  35.2482330
  88.2150012  44.7824997  26.4669988  88.0200012  45.3874997  25.7519988
  88.3960012  43.9484997  26.0329988  88.2127614  44.7526300  26.3104405
  79.4280012  45.0194997  31.7909988  79.3900012  45.4194997  32.6599988
  78.9370012  44.2024997  31.8819988  79.3564684  44.9638069  31.9221059
  82.7940012  42.3934997  18.5899988  82.3630012  41.9484997  19.3199988
  82.0760012  42.7654997  18.0779988  82.6379438  42.3828940  18.6206799
  76.0360012  42.1354997  25.6419988  76.6670012  42.1064997  26.3609988
  76.4850012  41.7104997  24.9119988  76.1830774  42.0740492  25.6416553
  77.3100012  42.8814997  21.0659988  77.7840012  43.4724997  20.4809988
  76.5930012  43.4124997  21.4129988  77.2779341  43.0340867  21.0328836
  87.4790012  46.4204997  31.1389988  87.8020012  45.7894997  30.4959988
  87.0390012  45.8854997  31.7989988  87.4636895  46.2618441  31.1402850
  84.2560012  42.3474997  25.9229988  83.3450012  42.4044997  26.2109988
  84.7620012  42.2874997  26.7329988  84.1995413  42.3471985  26.0720622
  79.0850012  43.9764997  24.7489988  78.1950012  44.0764997  24.4089988
  79.3810012  43.1344997  24.4029988  79.0032823  43.8763546  24.6557213
  82.7380012  43.9764997  22.4059988  83.6690012  44.1054997  22.5839988
  82.5230012  44.6464997  21.7559988  82.8364247  44.0846565  22.3425747
  88.6610012  41.5824997  29.1869988  87.9850012  41.7134997  29.8509988
  88.1760012  41.4274997  28.3769988  88.5027145  41.5794905  29.1684517
  81.4120012  45.1714997  19.9729988  80.8690012  44.7914997  19.2809988
  82.2450012  45.3654997  19.5439988  81.4504399  45.1458124  19.8204526
  91.9490012  57.2544997  35.4639988  92.1490012  57.6784997  34.6289988
  92.6040012  57.5974997  36.0709988  92.0650051  57.3589648  35.4317836
  85.5760012  45.1354997  27.8099988  86.1410012  44.5884997  27.2629988
  85.4290012  44.6134997  28.5979988  85.6332918  44.9902024  27.8418454
  80.5780012  41.2714997  24.2279988  80.2610012  40.3694997  24.1929988
  81.3600012  41.2734997  23.6749988  80.6402284  41.1481628  24.1484783
  84.2030012  43.5234997  30.2239988  83.3670012  43.9774997  30.3339988
  84.7270012  43.7994997  30.9759988  84.1594414  43.6229376  30.3407136
  84.7470012  49.7364997  21.9079988  84.0020012  49.2294997  21.5859988
  84.6130012  49.7854997  22.8549988  84.6268776  49.6736940  21.9918647
  91.8970012  48.8694997  30.6949988  92.5390012  49.3264997  30.1509988
  91.0670012  48.9824997  30.2319988  91.8725963  48.9472704  30.5580177
  88.6450012  42.5504997  20.1079988  87.7060012  42.6624997  19.9559988
  88.9420012  43.4074997  20.4139988  88.5567666  42.6816443  20.1285768
  86.2660012  49.9204997  33.1449988  85.9210012  49.5394997  33.9519988
  86.0660012  50.8544997  33.2169988  86.1918061  49.9945228  33.2650961
  89.3630012  44.4174997  21.7679988  90.2550012  44.2804997  22.0869988
  89.4200012  45.2084997  21.2319988  89.4926285  44.5056660  21.7391691
  79.8720012  49.0314997  27.6779988  80.6170012  49.0294997  27.0769988
  79.9500012  48.2084997  28.1599988  79.9845518  48.9199315  27.6608929
  86.8730012  51.1954997  20.9339988  86.5770012  52.0214997  21.3149988
  86.1700012  50.5754997  21.1299988  86.7374914  51.2248199  21.0126443
  83.8960012  47.0094997  35.2059988  83.6000012  46.8434997  34.3109988
  84.8280012  46.7894997  35.1949988  83.9814166  46.9570640  35.0820536
  88.5170012  52.3824997  33.0959988  87.6160012  52.5654997  32.8279988
  88.5510012  52.6414997  34.0169988  88.3983041  52.4425512  33.1838197
  94.2480012  44.6274997  21.4629988  93.6940012  44.2314997  20.7909988
  94.3480012  45.5374997  21.1849988  94.1857059  44.6963586  21.3334401
  94.2110012  50.4274997  34.2999988  93.3600012  50.6654997  33.9329988
  94.8020012  50.4104997  33.5469988  94.1742487  50.4578258  34.1478893
  92.5430012  53.4134997  21.9279988  92.1700012  52.5874997  22.2369988
  92.8210012  53.2304997  21.0309988  92.5295630  53.2757303  21.8489626
  89.7040012  48.2214997  28.9489988  88.7750012  47.9894997  28.9219988
  90.1550012  47.4444997  28.6189988  89.6379216  48.0847238  28.9006917
  82.2470012  52.5494997  25.0819988  82.7740012  53.3224997  24.8819988
  81.3670012  52.7744997  24.7809988  82.2001773  52.6858005  25.0139010
  78.0020012  47.4114997  19.6689988  78.6180012  48.0384997  20.0489988
  77.1400012  47.7274997  19.9409988  77.9697698  47.5399430  19.7577183
  83.6740012  50.2124997  24.6589988  83.4330012  51.1374997  24.6999988
  82.9330012  49.7534997  25.0549988  83.5408409  50.2771421  24.7181377
  84.1890012  54.3614997  30.9739988  84.5510012  55.2164997  30.7399988
  84.7200012  54.0694997  31.7139988  84.3104473  54.4391060  31.0420855
  82.3570012  55.2344997  24.2039988  81.4070012  55.3394997  24.2549988
  82.7090012  56.0544997  24.5489988  82.2744203  55.3598314  24.2576650
  87.7330012  50.4604997  30.6739988  87.3070012  50.2334997  31.5009988
  88.3130012  49.7224997  30.4919988  87.7531868  50.3295299  30.7625830
  89.9360012  51.3894997  19.7479988  90.2890012  51.0094997  20.5529988
  88.9870012  51.2964997  19.8349988  89.8560441  51.3249596  19.8698559
  90.3910012  55.0124997  33.1439988  89.7900012  54.4574997  32.6479988
  90.6730012  55.6794997  32.5179988  90.3468519  55.0266841  32.9914952
  94.4390012  55.8694997  19.9489988  95.1830012  56.4554997  19.8089988
  93.7450012  56.4374997  20.2829988  94.4470292  56.0265582  19.9749961
  78.5140012  42.2454997  32.5509988  77.6210012  42.5844997  32.4829988
  78.4150012  41.3904997  32.9689988  78.3784164  42.1762588  32.5982235
  90.8020012  50.0624997  21.9749988  90.5240012  49.3344997  22.5309988
  91.7290012  50.1814997  22.1799988  90.8893124  49.9788802  22.0788845
  84.0270012  52.5014997  18.1949988  84.2660012  51.7534997  17.6479988
  83.7580012  52.1134997  19.0279988  84.0233675  52.3466638  18.2326865
  82.9640012  52.0714997  20.6519988  83.1100012  51.5514997  21.4419988
  82.9610012  52.9784997  20.9579988  82.9835989  52.1228853  20.8016088
  79.4170012  49.3244997  21.1619988  78.7310012  49.6764997  21.7289988
  79.9390012  50.0874997  20.9149988  79.3936852  49.4758578  21.2062118
  87.2480012  41.9864997  31.4409988  87.9470012  42.0604997  32.0909988
  86.8670012  41.1224997  31.5949988  87.2921767  41.8797624  31.5508322
  88.0330012  41.6384997  22.5379988  88.2530012  42.1104997  21.7349988
  88.5910012  42.0334997  23.2079988  88.1384968  41.7564285  22.5187331
  85.7010012  53.7694997  21.4009988  84.8850012  54.2664997  21.4529988
  86.2310012  54.2444997  20.7609988  85.6609161  53.9017722  21.3215956
  85.2330012  43.3664997  23.3729988  86.0450012  43.8714997  23.4189988
  84.9880012  43.2214997  24.2869988  85.3110520  43.4160375  23.5028517
  85.7680012  44.3524997  32.5579988  85.8870012  44.9264997  33.3149988
  86.4240012  43.6644997  32.6719988  85.8729757  44.3381079  32.6770825
  86.1160012  40.4474997  24.3109988  85.7700012  41.0654997  24.9559988
  86.7750012  40.9484997  23.8299988  86.1577826  40.5995802  24.3340971
  83.0400012  54.8134997  21.3829988  83.2000012  55.6124997  20.8819988
  82.8420012  55.1194997  22.2679988  83.0351649  54.9644469  21.4339815
  81.7740012  41.5104997  20.9979988  81.6910012  42.3994997  21.3449988
  82.6640012  41.2454997  21.2299988  81.8829469  41.5961430  21.0767626
  91.9730012  42.2594997  33.3929988  91.0560012  42.5224997  33.3049988
  92.3080012  42.2564997  32.4959988  91.8929900  42.2950224  33.2597919
  90.5750012  46.0104997  27.4879988  89.7770012  45.5954997  27.1599988
  91.0200012  45.3194997  27.9789988  90.5259885  45.8603543  27.5094889
  80.0330012  51.9384997  20.0589988  80.6250012  52.6374997  20.3349988
  80.4920012  51.5054997  19.3389988  80.1761142  51.9757049  19.9994830
  78.3490012  44.6024997  19.1749988  78.3040012  45.5414997  19.3529988
  77.4610012  44.3664997  18.9049988  78.2228574  44.6991892  19.1628912
  91.6610012  55.2664997  29.1109988  91.5060012  55.9444997  28.4539988
  92.5940012  55.3384997  29.3139988  91.7658500  55.3690170  29.0485119
  79.1570012  39.3844997  27.8479988  78.9280012  39.4434997  26.9199988
  78.7140012  38.5924997  28.1539988  79.0658530  39.2855753  27.7624786
  78.0870012  53.3244997  24.0079988  77.2550012  53.7974997  24.0359988
  78.6330012  53.8344997  23.4099988  78.0469739  53.4581871  23.9309716
  86.0650012  54.3644997  18.3339988  85.4210012  53.7334997  18.6549988
  86.8270012  53.8334997  18.1019988  86.0798077  54.2062920  18.3466011
  88.5500012  53.2364997  35.6879988  88.1990012  52.3804997  35.9309988
  89.2760012  53.3794997  36.2949988  88.6000769  53.1385636  35.8033619
  90.6690012  54.1814997  18.5679988  90.9520012  53.3874997  19.0199988
  91.4090012  54.4144997  18.0069988  90.8077486  54.1042803  18.5540698
  81.6240012  50.0914997  18.4249988  81.6880012  49.2974997  18.9559988
  82.2770012  49.9724997  17.7349988  81.7210241  49.9667148  18.4044317
  83.9380012  49.7174997  35.7249988  83.6090012  49.9884997  34.8679988
  84.0900012  48.7764997  35.6379988  83.9134809  49.6273862  35.5958244
  86.9760012  51.1384997  18.1609988  86.7070012  51.3184997  19.0619988
  86.7700012  50.2124997  18.0299988  86.9113825  51.0380152  18.2665214
  89.6720012  49.6334997  33.1089988  90.4180012  50.2214997  32.9889988
  88.9150012  50.2154997  33.1719988  89.6717554  49.7927011  33.1010907
  78.1150012  46.9474997  35.7129988  78.5230012  46.0904997  35.5919988
  77.8550012  46.9624997  36.6339988  78.1357568  46.8320807  35.8209588
  82.7730012  48.0634997  20.7309988  82.3130012  47.5794997  21.4169988
  83.0280012  47.3954997  20.0949988  82.7444902  47.9068731  20.7389334
  82.0620012  45.9564997  33.0869988  81.4440012  46.6314997  33.3669988
  82.4060012  46.2774997  32.2539988  82.0239615  46.0922721  33.0126581
  83.8440012  46.3064997  18.9929988  83.6640012  46.1524997  18.0659988
  84.7940012  46.4144997  19.0379988  83.9477776  46.3000175  18.8721843
  87.0820012  48.4284997  36.3639988  88.0350012  48.5114997  36.3369988
  86.9210012  47.7164997  36.9839988  87.1906426  48.3436746  36.4440579
  93.2340012  48.6614997  18.4389988  92.9600012  48.2364997  17.6259988
  93.2730012  49.5924997  18.2219988  93.2017699  48.7292484  18.2983610
  82.4010012  43.3114997  34.1689988  82.5510012  42.5824997  33.5669988
  82.4040012  44.0884997  33.6099988  82.4219302  43.3167851  34.0110692
  82.8140012  41.6814997  31.6619988  83.3500012  42.1324997  31.0099988
  81.9620012  41.5734997  31.2389988  82.7722178  41.7286390  31.5155756
  84.3960012  47.1204997  31.9009988  85.1460012  46.9644997  31.3279988
  84.0570012  47.9724997  31.6259988  84.4528921  47.2142968  31.7853561
  88.8110012  44.9354997  36.9299988  89.0040012  44.0044997  36.8179988
  89.6690012  45.3604997  36.9199988  88.9533020  44.8656389  36.9133361
  90.1280012  47.7244997  35.0069988  89.8470012  48.4334997  34.4299988
  91.0710012  47.6514997  34.8559988  90.2169027  47.8117646  34.9075551
  80.8800012  44.5094997  36.0809988  80.1130012  43.9774997  35.8709988
  81.5590012  44.1994997  35.4809988  80.8667022  44.3947506  35.9711648
  83.6200012  39.1374997  32.0929988  83.5210012  40.0844997  31.9879988
  82.8770012  38.7654997  31.6179988  83.5060564  39.2165902  32.0144560
  84.8840012  43.4594997  35.6569988  84.6480012  43.2394997  36.5589988
  84.1000012  43.2524997  35.1469988  84.7458628  43.4014760  35.7113932
  87.5990012  42.5864997  34.7329988  86.6520012  42.6184997  34.8649988
  87.9120012  41.9614997  35.3859988  87.5115475  42.5063207  34.8394455
  89.2330012  41.2204997  36.7379988  89.1370012  40.2684997  36.7319988
  88.9120012  41.4894997  37.5979988  89.1764070  41.1264035  36.8535441
  79.0600012  42.4304997  35.7849988  79.2720012  41.7234997  35.1749988
  78.9490012  41.9924997  36.6289988  79.0739721  42.2747084  35.8156843
  83.8410012  38.4314997  34.7649988  84.5530012  37.7914997  34.7509988
  83.7400012  38.6984997  33.8509988  83.9247939  38.3799938  34.6395650
  84.1950012  40.1144997  36.8179988  84.0630012  39.6384997  35.9979988
  83.5960012  40.8584997  36.7629988  84.0959071  40.1499618  36.6982886
  83.7410012  56.9974997  19.9949988  84.6740012  57.1554997  20.1379988
  83.4770012  57.6724997  19.3699988  83.8329510  57.1103611  19.9300741
  77.3100012  51.6334997  19.4769988  78.2240012  51.7124997  19.7509988
  77.3170012  50.9464997  18.8109988  77.4361131  51.5513961  19.4244393
  75.9590012  57.0264997  24.5549988  75.3120012  56.5644997  24.0219988
  76.3130012  56.3544997  25.1369988  75.9183849  56.8724723  24.5607959
  76.8290012  55.1074997  26.3589988  76.4940012  54.2274997  26.5309988
  77.0510012  55.4524997  27.2239988  76.8131783  55.0337500  26.4994208
  94.3770012  55.9164997  29.3399988  94.3560012  56.1014997  30.2789988
  95.0680012  56.4854997  28.9989988  94.4674618  56.0186606  29.4223864
  93.9410012  55.4844997  32.2619988  93.4530012  54.7484997  31.8909988
  94.4900012  55.0904997  32.9399988  93.9484872  55.3306249  32.3029160
  92.3910012  51.2734997  36.8999988  91.5250012  51.1684997  37.2939988
  92.7680012  52.0324997  37.3459988  92.3233308  51.3616900  37.0142393
  93.6920012  49.5304997  22.4139988  94.5420012  49.9514997  22.5409988
  93.6980012  48.7904997  23.0209988  93.8091372  49.4880803  22.5134344
  94.0870012  47.5834997  24.2379988  93.3600012  47.1044997  24.6349988
  94.6680012  47.7894997  24.9699988  94.0659375  47.5457090  24.3914129
  93.8460012  50.3684997  29.1849988  94.6790012  49.9904997  28.9049988
  93.9580012  51.3114997  29.0659988  93.9752647  50.4442218  29.1305487
  92.3320012  53.2464997  31.4919988  91.6850012  53.5714997  32.1179988
  91.8150012  52.8064997  30.8179988  92.1734029  53.2315004  31.4865827
  94.3550012  47.4844997  20.6289988  93.8330012  47.8414997  19.9099988
  94.3220012  48.1594997  21.3069988  94.2791634  47.6245413  20.6223145
  92.7040012  44.7244997  19.1799988  92.8000012  45.3914997  18.4989988
  92.5640012  43.9084997  18.6979988  92.6982135  44.7054500  19.0218491
  91.8730012  46.1044997  24.8009988  91.7230012  45.1594997  24.7799988
  91.5200012  46.3854997  25.6439988  91.8046625  46.0130441  24.9122346
  76.9090012  48.1824997  28.8109988  77.0930012  48.1004997  27.8749988
  77.7580012  48.0584997  29.2349988  77.0490139  48.1545003  28.7401455
  92.7300012  48.0744997  34.4389988  93.3130012  47.3404997  34.6309988
  93.2940012  48.8464997  34.4859988  92.8859769  48.0784227  34.4716159
  94.2260012  45.9774997  35.1239988  93.3630012  45.5984997  34.9579988
  94.8310012  45.2384997  35.0499988  94.1895979  45.8258023  35.0912817
  91.9510012  42.1324997  18.2969988  92.5620012  41.7614997  18.9339988
  91.1150012  41.7114997  18.4929988  91.9215032  42.0247554  18.4107035
  91.5840012  43.6874997  23.2629988  91.8640012  42.7804997  23.3869988
  92.3430012  44.1214997  22.8739988  91.7249277  43.6220942  23.2273682
  92.1960012  44.2684997  28.6989988  93.1290012  44.4804997  28.6649988
  91.9610012  44.3704997  29.6209988  92.2918036  44.3112769  28.8189976
  92.2250012  45.0054997  31.4749988  91.3820012  45.2734997  31.8409988
  92.6670012  45.8274997  31.2639988  92.1694158  45.1533291  31.4965491
  76.5060012  43.4534997  34.9519988  77.4260012  43.3314997  35.1879988
  76.0570012  42.7034997  35.3409988  76.5711580  43.3353727  35.0369006
  94.5080012  38.9854997  36.8279988  94.8580012  38.3314997  36.2229988
  94.6550012  39.8224997  36.3889988  94.5758419  39.0091591  36.6857118
  92.1970012  40.9504997  23.3109988  92.3800012  40.5014997  24.1369988
  91.5980012  40.3654997  22.8479988  92.1410202  40.8099975  23.3613275
  77.7270012  41.7654997  27.8429988  78.1730012  40.9734997  28.1449988
  78.1940012  42.4814997  28.2739988  77.8510172  41.7540624  27.9424820
  76.0310012  44.7644997  28.9119988  76.5230012  44.5434997  28.1209988
  76.3940012  45.6054997  29.1929988  76.1473126  44.8478357  28.8417531
  94.0280012  41.0944997  35.1779988  93.1100012  41.3654997  35.1419988
  94.1510012  40.5594997  34.3929988  93.9191066  41.0592892  35.0670487
  94.0640012  41.0174997  19.8389988  94.4760012  40.2964997  19.3639988
  94.7460012  41.6874997  19.8979988  94.2125885  41.0092368  19.7818915
  76.3450012  41.0224997  22.9659988  75.4200012  41.2314997  22.8369988
  76.7990012  41.5064997  22.2769988  76.2797368  41.1165993  22.8551226
  91.1160012  56.0064997  24.9119988  91.7680012  55.6594997  24.3039988
  91.6260012  56.4954997  25.5579988  91.2742637  56.0250597  24.9160236
  76.3090012  39.7604997  31.3109988  75.6440012  39.5144997  31.9539988
  75.8660012  40.3824997  30.7329988  76.1580956  39.8108632  31.3209352
  81.4550012  53.9104997  31.7139988  81.0300012  54.7194997  31.4309988
  82.3590012  53.9954997  31.4119988  81.5190271  54.0328469  31.6343776
  85.7660012  55.3094997  34.6729988  85.9510012  54.9754997  35.5509988
  86.6120012  55.6184997  34.3509988  85.9057539  55.3056047  34.7495605
  88.1110012  56.5954997  33.9169988  88.7880012  55.9624997  33.6769988
  88.4330012  56.9964997  34.7239988  88.2471637  56.5631154  33.9932793
  93.0280012  39.1844997  32.9969988  92.2160012  39.5094997  32.6089988
  93.2610012  38.4244997  32.4639988  92.9483423  39.1262436  32.8718253
  81.3240012  56.7664997  30.7909988  80.4590012  56.8384997  31.1949988
  81.2690012  57.3134997  30.0069988  81.1982085  56.8502685  30.7403362
  86.0340012  56.6544997  29.9659988  85.5780012  57.1834997  29.3119988
  86.1970012  57.2574997  30.6919988  85.9935585  56.8084468  29.9745062
  88.3620012  55.5324997  30.9109988  87.4570012  55.6974997  30.6459988
  88.7910012  56.3854997  30.8459988  88.2960799  55.6704483  30.8659182
  90.9660012  57.1024997  31.2059988  90.7840012  58.0184997  30.9959988
  91.1430012  56.6924997  30.3599988  90.9650210  57.1724822  31.0627885
  80.4130012  54.4994997  27.3259988  80.1940012  53.5834997  27.4959988
  81.2370012  54.6394997  27.7919988  80.4944420  54.3930520  27.4122774
  82.9500012  54.9694997  28.1749988  83.1630012  54.0814997  27.8879988
  83.0140012  54.9354997  29.1289988  82.9878232  54.8433102  28.2647397
  86.4580012  40.6334997  27.3189988  85.7840012  40.0044997  27.5749988
  87.0220012  40.1494997  26.7159988  86.4419230  40.4818744  27.2725340
  91.6010012  38.7414997  27.4319988  92.2050012  39.2884997  26.9299988
  90.7310012  39.0604997  27.1919988  91.5661241  38.8595806  27.3307654
  93.3280012  39.8794997  25.7649988  93.9400012  39.3654997  25.2389988
  93.7100012  40.7574997  25.7889988  93.4634540  39.9277140  25.6961830
  78.7850012  39.2674997  25.1409988  78.0080012  39.0334997  24.6339988
  79.3150012  38.4704997  25.1499988  78.7502330  39.1276988  25.0727742
  77.6210012  39.0654997  20.9449988  78.0600012  39.6764997  20.3529988
  76.9880012  39.6034997  21.4189988  77.5954514  39.2219257  20.9280930
  83.3640012  39.1944997  24.9549988  84.2390012  39.5824997  24.9249988
  83.2280012  38.9794997  25.8769988  83.4653695  39.2185184  25.0756440
  88.9210012  39.2244997  26.6039988  88.9970012  39.3194997  25.6539988
  88.6460012  38.3164997  26.7329988  88.8942321  39.1147867  26.4915079
  90.2740012  39.2504997  22.2959988  89.5720012  39.8654997  22.0869988
  89.8300012  38.4124997  22.4269988  90.1176330  39.2215783  22.2850328
  77.5220012  55.0134997  21.8429988  76.8370012  54.9754997  21.1749988
  77.5260012  55.9264997  22.1309988  77.4288193  55.1317016  21.7905284
  79.4820012  40.9814997  19.3869988  79.9740012  40.3514997  18.8599988
  80.1060012  41.2774997  20.0509988  79.6335446  40.9353199  19.4045980
  84.5080012  41.2744997  21.8439988  84.6860012  40.6284997  22.5269988
  84.4550012  42.1084997  22.3119988  84.5251829  41.2987985  22.0005940
  86.3870012  56.2234997  20.2399988  87.2530012  56.5894997  20.0619988
  86.1400012  55.7834997  19.4259988  86.4722392  56.2141756  20.1056289
  93.0960012  55.7864997  22.9189988  92.9010012  55.0384997  22.3539988
  93.0570012  56.5444997  22.3359988  93.0640380  55.7866099  22.7628384
  78.7430012  39.7814997  34.6589988  78.3770012  39.0164997  35.1019988
  79.6560012  39.8104997  34.9459988  78.8162790  39.6807224  34.7584070
  80.7160012  39.1324997  36.1949988  81.6140012  38.8584997  36.0099988
  80.3290012  38.3894997  36.6589988  80.7866612  38.9945914  36.2323643
  79.3400012  55.9334997  18.8679988  79.0730012  56.2204997  19.7409988
  80.1120012  55.3874997  19.0199988  79.4077488  55.8990294  19.0081050
  89.1370012  38.4644997  36.3769988  89.2140012  38.0384997  37.2309988
  90.0310012  38.4784997  36.0339988  89.2683428  38.4080879  36.4475310
  92.3130012  54.5374997  35.0689988  91.5310012  54.3514997  34.5499988
  92.2410012  55.4664997  35.2869988  92.1961777  54.6376492  35.0274048
 106.7190012  48.4234997  25.0999988 106.8080012  49.3674997  24.9679988
 106.0810012  48.1484997  24.4419988 106.6449081  48.5154830  24.9929614
 105.6520012  47.6784997  28.5189988 105.6140012  47.0324997  29.2239988
 105.3300012  47.2124997  27.7479988 105.6032333  47.5269408  28.5112978
  98.0210012  47.2934997  30.1119988  98.0620012  46.6674997  30.8349988
  98.7240012  47.9174997  30.2939988  98.1216363  47.2921196  30.2356044
 109.3580012  50.6174997  26.8199988 108.9180012  49.8974997  27.2709988
 109.3450012  51.3384997  27.4499988 109.2960226  50.6163731  26.9668494
  98.9440012  51.7434997  28.6469988  98.5750012  50.9414997  28.2769988
  99.8850012  51.5744997  28.6929988  99.0207289  51.6110153  28.6026316
  95.5540012  45.4034997  24.0399988  95.1070012  46.2494997  24.0209988
  94.9930012  44.8234997  23.5239988  95.4169900  45.4409916  23.9676801
  96.2650012  47.5654997  26.1659988  96.4780012  46.7954997  26.6929988
  97.0030012  47.6544997  25.5619988  96.3938496  47.4721394  26.1565300
 106.4700012  55.7224997  27.0329988 107.0900012  55.0454997  26.7589988
 106.2620012  55.5044997  27.9409988 106.5266904  55.6003870  27.1183365
 104.0420012  50.1114997  28.9249988 104.3460012  49.4254997  28.3299988
 104.7630012  50.2294997  29.5429988 104.1810671  50.0336305  28.9271816
 112.7050012  41.7124997  29.7859988 112.7540012  42.3224997  30.5219988
 113.1300012  42.1734997  29.0629988 112.7691824  41.8583741  29.7890205
 107.1830012  44.5054997  29.2529988 107.3250012  43.5594997  29.2729988
 107.0760012  44.7124997  28.3239988 107.1879864  44.4039534  29.1302339
 100.3370012  42.6064997  26.5249988 100.3810012  43.4664997  26.1069988
  99.8800012  42.0544997  25.8909988 100.2812185  42.6495799  26.3820299
 108.0600012  42.7374997  24.9259988 108.7060012  42.4084997  25.5509988
 108.5700012  43.2554997  24.3029988 108.2174264  42.7624611  24.9273862
  96.9580012  45.0034997  27.2869988  97.6110012  44.4534997  27.7189988
  96.9820012  44.7294997  26.3699988  97.0506683  44.8911466  27.2222123
 102.1140012  46.5534997  26.5019988 102.7300012  46.0274997  27.0119988
 101.5280012  45.9134997  26.0989988 102.1190810  46.3949208  26.5173173
 113.0960012  43.1904997  32.0219988 112.4080012  43.8484997  31.9259988
 113.1120012  42.9934997  32.9579988 113.0038525  43.2540462  32.1354808
  99.1480012  41.5244997  30.5989988  98.9290012  42.0544997  29.8329988
  98.4800012  41.7514997  31.2459988  99.0277600  41.6276906  30.5816379
 106.5170012  51.0244997  24.1429988 106.2210012  50.7024997  23.2919988
 106.1920012  51.9244997  24.1839988 106.4326371  51.1020215  24.0321801
 101.7170012  49.2004997  30.8859988 100.9770012  49.7984997  30.9899988
 102.4310012  49.7544997  30.5709988 101.7122237  49.3572831  30.8576465
 109.8240012  42.0284997  26.9059988 109.6080012  41.2624997  27.4389988
 110.4790012  42.5004997  27.4189988 109.8830632  41.9875889  27.0482861
  98.7410012  43.4164997  28.5509988  99.3550012  44.0494997  28.9249988
  99.2530012  42.9444997  27.8949988  98.8942296  43.4392370  28.5134252
 100.1240012  51.1644997  31.6739988 100.1190012  52.0444997  31.2959988
  99.2710012  51.0814997  32.0989988 100.0079464  51.2736117  31.6797907
  96.2450012  50.8354997  22.4559988  95.9730012  51.0644997  21.5669988
  96.2910012  51.6734997  22.9159988  96.2140094  50.9801213  22.3965697
 109.8700012  52.4574997  29.1679988 108.9290012  52.5154997  29.3299988
 110.1470012  53.3634997  29.0309988 109.7784679  52.5879443  29.1716815
 110.1710012  40.7434997  30.5859988 109.4350012  41.3544997  30.5479988
 110.8540012  41.1584997  30.0589988 110.1626541  40.8831374  30.5095832
 103.1740012  38.8304997  28.0519988 103.0570012  37.8814997  27.9969988
 102.3190012  39.1624997  28.3249988 103.0423733  38.7455409  28.0813897
 108.1220012  54.2384997  25.7939988 108.5480012  53.5314997  25.3089988
 108.4390012  55.0394997  25.3769988 108.2231019  54.2500994  25.6713130
 109.2820012  52.1394997  24.3019988 109.0240012  51.4494997  23.6909988
 109.3530012  51.6964997  25.1479988 109.2562856  51.9852124  24.3326885
 110.9680012  50.7054997  32.7799988 111.1080012  50.1144997  32.0399988
 111.1350012  51.5784997  32.4229988 111.0096778  50.7426426  32.6306965
 105.4410012  47.6674997  22.5519988 104.7290012  48.2024997  22.1999988
 106.1320012  47.7234997  21.8919988 105.4370132  47.7482543  22.4146289
 105.4940012  46.1254997  19.5909988 106.1950012  46.1474997  20.2419988
 105.7970012  45.4974997  18.9349988 105.6307830  46.0436566  19.5913711
 112.8100012  47.0454997  30.8459988 112.1570012  47.7404997  30.9349988
 113.2750012  47.2554997  30.0359988 112.7835390  47.1689425  30.7486883
 108.8460012  47.8774997  23.5039988 108.1140012  48.1054997  24.0769988
 109.2940012  47.1634997  23.9589988 108.8063095  47.8122571  23.6439119
 108.7440012  46.0514997  32.5709988 108.8240012  46.8144997  33.1429988
 108.1420012  46.3304997  31.8809988 108.6735756  46.1937134  32.5560589
 100.4920012  48.5074997  25.3859988 100.1610012  48.1374997  24.5679988
 101.0800012  47.8374997  25.7329988 100.5261873  48.3661156  25.3208102
 101.8580012  51.9354997  28.0679988 101.7640012  51.3574997  27.3109988
 102.5880012  51.5644997  28.5639988 101.9437981  51.8062390  28.0314165
 100.8580012  47.2764997  29.0199988 101.4240012  47.3974997  28.2569988
 101.1770012  47.9134997  29.6589988 100.9785786  47.3791884  29.0020040
 107.1670012  52.7794997  29.7539988 106.9270012  53.4414997  30.4019988
 106.9690012  51.9454997  30.1789988 107.1073808  52.7573134  29.9001524
 101.7380012  51.6754997  33.7369988 101.4270012  52.4574997  34.1919988
 101.0880012  51.5224997  33.0509988 101.6075558  51.7619105  33.7065871
 107.7170012  47.0394997  21.1889988 108.2970012  47.1894997  21.9359988
 108.1310012  47.5104997  20.4659988 107.8522830  47.1236841  21.1934134
  98.6580012  47.8734997  32.9659988  98.7290012  48.5244997  33.6639988
  97.7680012  47.9764997  32.6309988  98.5473117  47.9765936  33.0162700
 105.4440012  53.7764997  24.6239988 105.9180012  54.0714997  25.4019988
 104.8810012  54.5144997  24.3909988 105.4327653  53.9166932  24.6990136
  99.9780012  53.7474997  34.4999988  99.9850012  53.6114997  33.5529988
  99.0620012  53.6294997  34.7519988  99.8551714  53.7129430  34.4044666
 111.4160012  38.7894997  21.0019988 110.5160012  38.9284997  21.2969988
 111.6680012  39.6204997  20.5999988 111.3268702  38.9209074  20.9880205
  99.4820012  47.5774997  22.9759988  99.1900012  48.3454997  22.4849988
  98.8080012  46.9174997  22.8129988  99.3509081  47.5934406  22.8867340
 112.6050012  53.1554997  19.3779988 112.6790012  54.0944997  19.5489988
 113.5110012  52.8504997  19.3219988 112.7375100  53.2426722  19.3938119
  95.5750012  49.9404997  31.7909988  95.0740012  49.9124997  30.9759988
  95.5800012  49.0344997  32.0999988  95.5071526  49.8142278  31.7212872
  95.3250012  52.7204997  28.6749988  96.2710012  52.5764997  28.6559988
  95.2130012  53.5044997  29.2119988  95.4392727  52.8068046  28.7450072
 113.5230012  53.3864997  34.3569988 113.4740012  52.4314997  34.3199988
 112.6960012  53.6544997  34.7579988 113.4044940  53.2918998  34.4061375
 104.5020012  52.9604997  33.2329988 104.5890012  53.7864997  33.7079988
 103.6380012  52.6304997  33.4819988 104.3971964  53.0289878  33.3316549
 104.9160012  56.7324997  23.0389988 104.8410012  56.6114997  22.0929988
 104.9490012  57.6824997  23.1579988 104.9101848  56.8442500  22.9254834
  98.5690012  55.5214997  24.8199988  98.7220012  55.1734997  25.6989988
  97.7190012  55.1654997  24.5649988  98.4748962  55.4256650  24.9058340
 108.0180012  55.8864997  20.0409988 108.3930012  55.1424997  19.5709988
 108.0220012  55.6164997  20.9599988 108.0698915  55.7481486  20.1007824
 107.6870012  55.8124997  22.7909988 106.7510012  55.9124997  22.9689988
 107.9670012  55.1034997  23.3689988 107.5968255  55.7302711  22.8935391
 110.6750012  44.8794997  34.8369988 110.2680012  45.3604997  34.1159988
 110.7160012  43.9744997  34.5289988 110.6248437  44.8229374  34.6966683
  97.8240012  51.2634997  32.8339988  98.0400012  50.9024997  33.6929988
  96.9690012  50.8894997  32.6239988  97.7379292  51.1634111  32.9233386
 100.4430012  39.7334997  28.8289988  99.5810012  39.6464997  28.4219988
 100.4200012  40.5894997  29.2569988 100.3220330  39.8372765  28.8311863
 105.1060012  39.4554997  32.2039988 105.5260012  39.0404997  32.9569988
 104.1730012  39.2774997  32.3209988 105.0373644  39.3745900  32.3229539
 108.4320012  43.2114997  33.0569988 107.9180012  43.0854997  33.8549988
 108.2770012  44.1234997  32.8129988 108.3406852  43.3176132  33.1332158
 109.1950012  48.0724997  18.8189988 109.2370012  47.8494997  17.8889988
 110.0440012  48.4714997  19.0089988 109.3155396  48.0959155  18.7173627
 104.7670012  41.9484997  19.4889988 104.5140012  41.9674997  20.4119988
 104.5110012  41.0764997  19.1879988 104.6977790  41.8332437  19.5746263
 100.5340012  44.6994997  29.9239988  99.8920012  44.6584997  30.6329988
 100.5710012  45.6254997  29.6869988 100.4511324  44.8191559  29.9889824
 100.5310012  44.9204997  24.8359988  99.6380012  44.5794997  24.7779988
 100.9810012  44.5434997  24.0809988 100.4697305  44.8228484  24.7259177
 106.0660012  45.3364997  23.6529988 105.6570012  46.1514997  23.3619988
 106.7870012  45.1964997  23.0389988 106.1074537  45.4292018  23.5301342
 105.1680012  45.5114997  35.1409988 104.6060012  44.8074997  35.4619988
 105.9950012  45.3914997  35.6089988 105.2027095  45.3987883  35.2482330
 107.0710012  44.7824997  26.4669988 106.8760012  45.3874997  25.7519988
 107.2520012  43.9484997  26.0329988 107.0687614  44.7526300  26.3104405
  98.2840012  45.0194997  31.7909988  98.2460012  45.4194997  32.6599988
  97.7930012  44.2024997  31.8819988  98.2124684  44.9638069  31.9221059
 101.6500012  42.3934997  18.5899988 101.2190012  41.9484997  19.3199988
 100.9320012  42.7654997  18.0779988 101.4939438  42.3828940  18.6206799
  94.8920012  42.1354997  25.6419988  95.5230012  42.1064997  26.3609988
  95.3410012  41.7104997  24.9119988  95.0390774  42.0740492  25.6416553
  96.1660012  42.8814997  21.0659988  96.6400012  43.4724997  20.4809988
  95.4490012  43.4124997  21.4129988  96.1339341  43.0340867  21.0328836
 106.3350012  46.4204997  31.1389988 106.6580012  45.7894997  30.4959988
 105.8950012  45.8854997  31.7989988 106.3196895  46.2618441  31.1402850
 103.1120012  42.3474997  25.9229988 102.2010012  42.4044997  26.2109988
 103.6180012  42.2874997  26.7329988 103.0555413  42.3471985  26.0720622
  97.9410012  43.9764997  24.7489988  97.0510012  44.0764997  24.4089988
  98.2370012  43.1344997  24.4029988  97.8592823  43.8763545  24.6557213
 101.5940012  43.9764997  22.4059988 102.5250012  44.1054997  22.5839988
 101.3790012  44.6464997  21.7559988 101.6924247  44.0846565  22.3425747
 107.5170012  41.5824997  29.1869988 106.8410012  41.7134997  29.8509988
 107.0320012  41.4274997  28.3769988 107.3587145  41.5794905  29.1684517
 100.2680012  45.1714997  19.9729988  99.7250012  44.7914997  19.2809988
 101.1010012  45.3654997  19.5439988 100.3064399  45.1458124  19.8204526
 110.8050012  57.2544997  35.4639988 111.0050012  57.6784997  34.6289988
 111.4600012  57.5974997  36.0709988 110.9210051  57.3589648  35.4317836
  98.4030012  49.7284997  35.0719988  99.1350012  49.9824997  35.6329988
  97.6230012  49.9324997  35.5869988  98.3978232  49.7909177  35.2185760
 104.4320012  45.1354997  27.8099988 104.9970012  44.5884997  27.2629988
 104.2850012  44.6134997  28.5979988 104.4892918  44.9902024  27.8418454
  99.4340012  41.2714997  24.2279988  99.1170012  40.3694997  24.1929988
 100.2160012  41.2734997  23.6749988  99.4962284  41.1481628  24.1484783
 103.0590012  43.5234997  30.2239988 102.2230012  43.9774997  30.3339988
 103.5830012  43.7994997  30.9759988 103.0154414  43.6229376  30.3407136
 103.6030012  49.7364997  21.9079988 102.8580012  49.2294997  21.5859988
 103.4690012  49.7854997  22.8549988 103.4828776  49.6736940  21.9918647
 110.7530012  48.8694997  30.6949988 111.3950012  49.3264997  30.1509988
 109.9230012  48.9824997  30.2319988 110.7285963  48.9472704  30.5580177
 107.5010012  42.5504997  20.1079988 106.5620012  42.6624997  19.9559988
 107.7980012  43.4074997  20.4139988 107.4127666  42.6816443  20.1285768
 105.1220012  49.9204997  33.1449988 104.7770012  49.5394997  33.9519988
 104.9220012  50.8544997  33.2169988 105.0478061  49.9945228  33.2650961
 108.2190012  44.4174997  21.7679988 109.1110012  44.2804997  22.0869988
 108.2760012  45.2084997  21.2319988 108.3486285  44.5056660  21.7391691
  98.7280012  49.0314997  27.6779988  99.4730012  49.0294997  27.0769988
  98.8060012  48.2084997  28.1599988  98.8405518  48.9199315  27.6608929
 105.7290012  51.1954997  20.9339988 105.4330012  52.0214997  21.3149988
 105.0260012  50.5754997  21.1299988 105.5934914  51.2248199  21.0126443
  95.7360012  47.4924997  32.9929988  95.9590012  47.0744997  33.8249988
  95.1340012  46.8794997  32.5699988  95.6851759  47.3524668  33.0497022
 102.7520012  47.0094997  35.2059988 102.4560012  46.8434997  34.3109988
 103.6840012  46.7894997  35.1949988 102.8374166  46.9570640  35.0820536
 107.3730012  52.3824997  33.0959988 106.4720012  52.5654997  32.8279988
 107.4070012  52.6414997  34.0169988 107.2543041  52.4425512  33.1838197
 113.1040012  44.6274997  21.4629988 112.5500012  44.2314997  20.7909988
 113.2040012  45.5374997  21.1849988 113.0417059  44.6963586  21.3334401
 113.0670012  50.4274997  34.2999988 112.2160012  50.6654997  33.9329988
 113.6580012  50.4104997  33.5469988 113.0302487  50.4578258  34.1478893
 111.3990012  53.4134997  21.9279988 111.0260012  52.5874997  22.2369988
 111.6770012  53.2304997  21.0309988 111.3855630  53.2757303  21.8489626
 108.5600012  48.2214997  28.9489988 107.6310012  47.9894997  28.9219988
 109.0110012  47.4444997  28.6189988 108.4939216  48.0847238  28.9006917
 101.1030012  52.5494997  25.0819988 101.6300012  53.3224997  24.8819988
 100.2230012  52.7744997  24.7809988 101.0561773  52.6858005  25.0139010
  96.8580012  47.4114997  19.6689988  97.4740012  48.0384997  20.0489988
  95.9960012  47.7274997  19.9409988  96.8257698  47.5399430  19.7577183
 102.5300012  50.2124997  24.6589988 102.2890012  51.1374997  24.6999988
 101.7890012  49.7534997  25.0549988 102.3968409  50.2771421  24.7181377
 103.0450012  54.3614997  30.9739988 103.4070012  55.2164997  30.7399988
 103.5760012  54.0694997  31.7139988 103.1664473  54.4391060  31.0420855
 101.2130012  55.2344997  24.2039988 100.2630012  55.3394997  24.2549988
 101.5650012  56.0544997  24.5489988 101.1304203  55.3598314  24.2576650
 106.5890012  50.4604997  30.6739988 106.1630012  50.2334997  31.5009988
 107.1690012  49.7224997  30.4919988 106.6091868  50.3295299  30.7625830
 108.7920012  51.3894997  19.7479988 109.1450012  51.0094997  20.5529988
 107.8430012  51.2964997  19.8349988 108.7120441  51.3249596  19.8698559
 109.2470012  55.0124997  33.1439988 108.6460012  54.4574997  32.6479988
 109.5290012  55.6794997  32.5179988 109.2028519  55.0266841  32.9914952
 113.2950012  55.8694997  19.9489988 114.0390012  56.4554997  19.8089988
 112.6010012  56.4374997  20.2829988 113.3030292  56.0265582  19.9749961
  97.3700012  42.2454997  32.5509988  96.4770012  42.5844997  32.4829988
  97.2710012  41.3904997  32.9689988  97.2344164  42.1762588  32.5982235
 109.6580012  50.0624997  21.9749988 109.3800012  49.3344997  22.5309988
 110.5850012  50.1814997  22.1799988 109.7453124  49.9788802  22.0788845
  97.0210012  54.0504997  30.9859988  97.2380012  53.1184997  30.9549988
  97.2670012  54.3244997  31.8689988  97.0839549  53.9600636  31.1011763
 102.8830012  52.5014997  18.1949988 103.1220012  51.7534997  17.6479988
 102.6140012  52.1134997  19.0279988 102.8793675  52.3466638  18.2326865
 101.8200012  52.0714997  20.6519988 101.9660012  51.5514997  21.4419988
 101.8170012  52.9784997  20.9579988 101.8395989  52.1228853  20.8016088
  98.2730012  49.3244997  21.1619988  97.5870012  49.6764997  21.7289988
  98.7950012  50.0874997  20.9149988  98.2496852  49.4758578  21.2062118
 106.1040012  41.9864997  31.4409988 106.8030012  42.0604997  32.0909988
 105.7230012  41.1224997  31.5949988 106.1481767  41.8797624  31.5508322
 106.8890012  41.6384997  22.5379988 107.1090012  42.1104997  21.7349988
 107.4470012  42.0334997  23.2079988 106.9944968  41.7564285  22.5187331
 104.5570012  53.7694997  21.4009988 103.7410012  54.2664997  21.4529988
 105.0870012  54.2444997  20.7609988 104.5169161  53.9017722  21.3215956
 104.0890012  43.3664997  23.3729988 104.9010012  43.8714997  23.4189988
 103.8440012  43.2214997  24.2869988 104.1670520  43.4160375  23.5028517
 104.6240012  44.3524997  32.5579988 104.7430012  44.9264997  33.3149988
 105.2800012  43.6644997  32.6719988 104.7289757  44.3381079  32.6770825
 104.9720012  40.4474997  24.3109988 104.6260012  41.0654997  24.9559988
 105.6310012  40.9484997  23.8299988 105.0137826  40.5995802  24.3340971
 101.8960012  54.8134997  21.3829988 102.0560012  55.6124997  20.8819988
 101.6980012  55.1194997  22.2679988 101.8911649  54.9644469  21.4339815
 100.6300012  41.5104997  20.9979988 100.5470012  42.3994997  21.3449988
 101.5200012  41.2454997  21.2299988 100.7389469  41.5961430  21.0767626
 110.8290012  42.2594997  33.3929988 109.9120012  42.5224997  33.3049988
 111.1640012  42.2564997  32.4959988 110.7489900  42.2950224  33.2597919
 109.4310012  46.0104997  27.4879988 108.6330012  45.5954997  27.1599988
 109.8760012  45.3194997  27.9789988 109.3819885  45.8603543  27.5094889
  98.8890012  51.9384997  20.0589988  99.4810012  52.6374997  20.3349988
  99.3480012  51.5054997  19.3389988  99.0321142  51.9757049  19.9994830
  97.2050012  44.6024997  19.1749988  97.1600012  45.5414997  19.3529988
  96.3170012  44.3664997  18.9049988  97.0788574  44.6991892  19.1628912
 110.5170012  55.2664997  29.1109988 110.3620012  55.9444997  28.4539988
 111.4500012  55.3384997  29.3139988 110.6218500  55.3690170  29.0485119
  98.0130012  39.3844997  27.8479988  97.7840012  39.4434997  26.9199988
  97.5700012  38.5924997  28.1539988  97.9218530  39.2855753  27.7624786
  96.9430012  53.3244997  24.0079988  96.1110012  53.7974997  24.0359988
  97.4890012  53.8344997  23.4099988  96.9029739  53.4581871  23.9309716
  96.2310012  55.9374997  35.3379988  96.7720012  55.7204997  36.0979988
  95.7500012  55.1314997  35.1489988  96.2399345  55.7989514  35.4163076
 100.8290012  54.8564997  36.9589988 101.5960012  54.3974997  37.2999988
 100.8070012  54.6304997  36.0289988 100.9311434  54.7630409  36.8800043
 104.9210012  54.3644997  18.3339988 104.2770012  53.7334997  18.6549988
 105.6830012  53.8334997  18.1019988 104.9358077  54.2062920  18.3466011
 107.4060012  53.2364997  35.6879988 107.0550012  52.3804997  35.9309988
 108.1320012  53.3794997  36.2949988 107.4560769  53.1385636  35.8033619
 109.5250012  54.1814997  18.5679988 109.8080012  53.3874997  19.0199988
 110.2650012  54.4144997  18.0069988 109.6637486  54.1042803  18.5540698
  96.1380012  49.7474997  36.2929988  96.2820012  48.8454997  36.0059988
  95.3660012  50.0334997  35.8049988  96.0533322  49.6628261  36.1877881
 100.4800012  50.0914997  18.4249988 100.5440012  49.2974997  18.9559988
 101.1330012  49.9724997  17.7349988 100.5770241  49.9667148  18.4044317
 102.7940012  49.7174997  35.7249988 102.4650012  49.9884997  34.8679988
 102.9460012  48.7764997  35.6379988 102.7694809  49.6273862  35.5958244
 105.8320012  51.1384997  18.1609988 105.5630012  51.3184997  19.0619988
 105.6260012  50.2124997  18.0299988 105.7673825  51.0380152  18.2665214
 108.5280012  49.6334997  33.1089988 109.2740012  50.2214997  32.9889988
 107.7710012  50.2154997  33.1719988 108.5277554  49.7927011  33.1010907
  96.9710012  46.9474997  35.7129988  97.3790012  46.0904997  35.5919988
  96.7110012  46.9624997  36.6339988  96.9917568  46.8320807  35.8209588
 101.6290012  48.0634997  20.7309988 101.1690012  47.5794997  21.4169988
 101.8840012  47.3954997  20.0949988 101.6004902  47.9068731  20.7389334
 100.9180012  45.9564997  33.0869988 100.3000012  46.6314997  33.3669988
 101.2620012  46.2774997  32.2539988 100.8799615  46.0922721  33.0126581
 102.7000012  46.3064997  18.9929988 102.5200012  46.1524997  18.0659988
 103.6500012  46.4144997  19.0379988 102.8037776  46.3000175  18.8721843
 105.9380012  48.4284997  36.3639988 106.8910012  48.5114997  36.3369988
 105.7770012  47.7164997  36.9839988 106.0466426  48.3436746  36.4440579
 112.0900012  48.6614997  18.4389988 111.8160012  48.2364997  17.6259988
 112.1290012  49.5924997  18.2219988 112.0577699  48.7292484  18.2983610
 101.2570012  43.3114997  34.1689988 101.4070012  42.5824997  33.5669988
 101.2600012  44.0884997  33.6099988 101.2779302  43.3167851  34.0110692
 101.6700012  41.6814997  31.6619988 102.2060012  42.1324997  31.0099988
 100.8180012  41.5734997  31.2389988 101.6282178  41.7286390  31.5155756
 103.2520012  47.1204997  31.9009988 104.0020012  46.9644997  31.3279988
 102.9130012  47.9724997  31.6259988 103.3088921  47.2142968  31.7853561
 107.6670012  44.9354997  36.9299988 107.8600012  44.0044997  36.8179988
 108.5250012  45.3604997  36.9199988 107.8093020  44.8656389  36.9133361
 108.9840012  47.7244997  35.0069988 108.7030012  48.4334997  34.4299988
 109.9270012  47.6514997  34.8559988 109.0729027  47.8117646  34.9075551
  99.7360012  44.5094997  36.0809988  98.9690012  43.9774997  35.8709988
 100.4150012  44.1994997  35.4809988  99.7227022  44.3947506  35.9711648
 102.4760012  39.1374997  32.0929988 102.3770012  40.0844997  31.9879988
 101.7330012  38.7654997  31.6179988 102.3620564  39.2165902  32.0144560
 103.7400012  43.4594997  35.6569988 103.5040012  43.2394997  36.5589988
 102.9560012  43.2524997  35.1469988 103.6018628  43.4014760  35.7113932
 106.4550012  42.5864997  34.7329988 105.5080012  42.6184997  34.8649988
 106.7680012  41.9614997  35.3859988 106.3675475  42.5063207  34.8394455
 108.0890012  41.2204997  36.7379988 107.9930012  40.2684997  36.7319988
 107.7680012  41.4894997  37.5979988 108.0324070  41.1264035  36.8535441
  97.9160012  42.4304997  35.7849988  98.1280012  41.7234997  35.1749988
  97.8050012  41.9924997  36.6289988  97.9299721  42.2747084  35.8156843
 102.6970012  38.4314997  34.7649988 103.4090012  37.7914997  34.7509988
 102.5960012  38.6984997  33.8509988 102.7807939  38.3799938  34.6395650
 103.0510012  40.1144997  36.8179988 102.9190012  39.6384997  35.9979988
 102.4520012  40.8584997  36.7629988 102.9519071  40.1499618  36.6982886
 102.5970012  56.9974997  19.9949988 103.5300012  57.1554997  20.1379988
 102.3330012  57.6724997  19.3699988 102.6889510  57.1103611  19.9300741
  96.1660012  51.6334997  19.4769988  97.0800012  51.7124997  19.7509988
  96.1730012  50.9464997  18.8109988  96.2921131  51.5513961  19.4244393
  94.8150012  57.0264997  24.5549988  94.1680012  56.5644997  24.0219988
  95.1690012  56.3544997  25.1369988  94.7743849  56.8724723  24.5607959
  95.6850012  55.1074997  26.3589988  95.3500012  54.2274997  26.5309988
  95.9070012  55.4524997  27.2239988  95.6691783  55.0337501  26.4994208
 113.2330012  55.9164997  29.3399988 113.2120012  56.1014997  30.2789988
 113.9240012  56.4854997  28.9989988 113.3234618  56.0186606  29.4223864
 112.7970012  55.4844997  32.2619988 112.3090012  54.7484997  31.8909988
 113.3460012  55.0904997  32.9399988 112.8044872  55.3306249  32.3029160
 111.2470012  51.2734997  36.8999988 110.3810012  51.1684997  37.2939988
 111.6240012  52.0324997  37.3459988 111.1793308  51.3616900  37.0142393
 112.5480012  49.5304997  22.4139988 113.3980012  49.9514997  22.5409988
 112.5540012  48.7904997  23.0209988 112.6651372  49.4880803  22.5134344
 112.9430012  47.5834997  24.2379988 112.2160012  47.1044997  24.6349988
 113.5240012  47.7894997  24.9699988 112.9219375  47.5457090  24.3914129
 112.7020012  50.3684997  29.1849988 113.5350012  49.9904997  28.9049988
 112.8140012  51.3114997  29.0659988 112.8312647  50.4442218  29.1305487
 111.1880012  53.2464997  31.4919988 110.5410012  53.5714997  32.1179988
 110.6710012  52.8064997  30.8179988 111.0294029  53.2315004  31.4865827
 113.2110012  47.4844997  20.6289988 112.6890012  47.8414997  19.9099988
 113.1780012  48.1594997  21.3069988 113.1351634  47.6245413  20.6223145
 111.5600012  44.7244997  19.1799988 111.6560012  45.3914997  18.4989988
 111.4200012  43.9084997  18.6979988 111.5542135  44.7054500  19.0218491
 110.7290012  46.1044997  24.8009988 110.5790012  45.1594997  24.7799988
 110.3760012  46.3854997  25.6439988 110.6606625  46.0130441  24.9122346
  95.7650012  48.1824997  28.8109988  95.9490012  48.1004997  27.8749988
  96.6140012  48.0584997  29.2349988  95.9050139  48.1545003  28.7401455
 111.5860012  48.0744997  34.4389988 112.1690012  47.3404997  34.6309988
 112.1500012  48.8464997  34.4859988 111.7419769  48.0784227  34.4716159
 113.0820012  45.9774997  35.1239988 112.2190012  45.5984997  34.9579988
 113.6870012  45.2384997  35.0499988 113.0455979  45.8258023  35.0912817
 110.8070012  42.1324997  18.2969988 111.4180012  41.7614997  18.9339988
 109.9710012  41.7114997  18.4929988 110.7775032  42.0247554  18.4107035
 110.4400012  43.6874997  23.2629988 110.7200012  42.7804997  23.3869988
 111.1990012  44.1214997  22.8739988 110.5809277  43.6220942  23.2273682
 111.0520012  44.2684997  28.6989988 111.9850012  44.4804997  28.6649988
 110.8170012  44.3704997  29.6209988 111.1478036  44.3112769  28.8189976
 111.0810012  45.0054997  31.4749988 110.2380012  45.2734997  31.8409988
 111.5230012  45.8274997  31.2639988 111.0254158  45.1533291  31.4965491
  95.3620012  43.4534997  34.9519988  96.2820012  43.3314997  35.1879988
  94.9130012  42.7034997  35.3409988  95.4271580  43.3353727  35.0369006
 113.3640012  38.9854997  36.8279988 113.7140012  38.3314997  36.2229988
 113.5110012  39.8224997  36.3889988 113.4318419  39.0091591  36.6857118
 111.0530012  40.9504997  23.3109988 111.2360012  40.5014997  24.1369988
 110.4540012  40.3654997  22.8479988 110.9970202  40.8099975  23.3613275
  96.5830012  41.7654997  27.8429988  97.0290012  40.9734997  28.1449988
  97.0500012  42.4814997  28.2739988  96.7070172  41.7540624  27.9424820
  94.8870012  44.7644997  28.9119988  95.3790012  44.5434997  28.1209988
  95.2500012  45.6054997  29.1929988  95.0033126  44.8478357  28.8417531
 112.8840012  41.0944997  35.1779988 111.9660012  41.3654997  35.1419988
 113.0070012  40.5594997  34.3929988 112.7751066  41.0592892  35.0670487
 112.9200012  41.0174997  19.8389988 113.3320012  40.2964997  19.3639988
 113.6020012  41.6874997  19.8979988 113.0685885  41.0092368  19.7818915
  95.2010012  41.0224997  22.9659988  94.2760012  41.2314997  22.8369988
  95.6550012  41.5064997  22.2769988  95.1357368  41.1165993  22.8551226
 109.9720012  56.0064997  24.9119988 110.6240012  55.6594997  24.3039988
 110.4820012  56.4954997  25.5579988 110.1302637  56.0250597  24.9160236
  95.1650012  39.7604997  31.3109988  94.5000012  39.5144997  31.9539988
  94.7220012  40.3824997  30.7329988  95.0140956  39.8108632  31.3209352
  97.3570012  52.9354997  35.4549988  96.5360012  53.1104997  34.9949988
  97.1040012  52.8624997  36.3759988  97.2106164  52.9495622  35.5164923
 100.3110012  53.9104997  31.7139988  99.8860012  54.7194997  31.4309988
 101.2150012  53.9954997  31.4119988 100.3750271  54.0328469  31.6343776
 104.6220012  55.3094997  34.6729988 104.8070012  54.9754997  35.5509988
 105.4680012  55.6184997  34.3509988 104.7617539  55.3056047  34.7495605
 106.9670012  56.5954997  33.9169988 107.6440012  55.9624997  33.6769988
 107.2890012  56.9964997  34.7239988 107.1031637  56.5631154  33.9932793
 111.8840012  39.1844997  32.9969988 111.0720012  39.5094997  32.6089988
 112.1170012  38.4244997  32.4639988 111.8043423  39.1262436  32.8718253
  97.7130012  57.1664997  31.7609988  96.9920012  57.6064997  31.3099988
  97.3470012  56.9154997  32.6099988  97.5649804  57.1927698  31.8139840
 100.1800012  56.7664997  30.7909988  99.3150012  56.8384997  31.1949988
 100.1250012  57.3134997  30.0069988 100.0542085  56.8502685  30.7403362
 104.8900012  56.6544997  29.9659988 104.4340012  57.1834997  29.3119988
 105.0530012  57.2574997  30.6919988 104.8495585  56.8084468  29.9745062
 107.2180012  55.5324997  30.9109988 106.3130012  55.6974997  30.6459988
 107.6470012  56.3854997  30.8459988 107.1520799  55.6704483  30.8659182
 109.8220012  57.1024997  31.2059988 109.6400012  58.0184997  30.9959988
 109.9990012  56.6924997  30.3599988 109.8210210  57.1724822  31.0627885
  97.1270012  55.7894997  28.6709988  97.1090012  55.3644997  29.5289988
  97.9320012  55.4714997  28.2629988  97.2333875  55.6883812  28.7331655
  99.2690012  54.4994997  27.3259988  99.0500012  53.5834997  27.4959988
 100.0930012  54.6394997  27.7919988  99.3504420  54.3930520  27.4122774
 101.8060012  54.9694997  28.1749988 102.0190012  54.0814997  27.8879988
 101.8700012  54.9354997  29.1289988 101.8438232  54.8433102  28.2647397
 105.3140012  40.6334997  27.3189988 104.6400012  40.0044997  27.5749988
 105.8780012  40.1494997  26.7159988 105.2979230  40.4818744  27.2725340
 110.4570012  38.7414997  27.4319988 111.0610012  39.2884997  26.9299988
 109.5870012  39.0604997  27.1919988 110.4221241  38.8595806  27.3307654
 112.1840012  39.8794997  25.7649988 112.7960012  39.3654997  25.2389988
 112.5660012  40.7574997  25.7889988 112.3194540  39.9277140  25.6961830
  97.6410012  39.2674997  25.1409988  96.8640012  39.0334997  24.6339988
  98.1710012  38.4704997  25.1499988  97.6062330  39.1276988  25.0727742
  96.4770012  39.0654997  20.9449988  96.9160012  39.6764997  20.3529988
  95.8440012  39.6034997  21.4189988  96.4514514  39.2219257  20.9280930
 102.2200012  39.1944997  24.9549988 103.0950012  39.5824997  24.9249988
 102.0840012  38.9794997  25.8769988 102.3213695  39.2185184  25.0756440
 107.7770012  39.2244997  26.6039988 107.8530012  39.3194997  25.6539988
 107.5020012  38.3164997  26.7329988 107.7502321  39.1147867  26.4915079
 109.1300012  39.2504997  22.2959988 108.4280012  39.8654997  22.0869988
 108.6860012  38.4124997  22.4269988 108.9736330  39.2215783  22.2850328
  96.3780012  55.0134997  21.8429988  95.6930012  54.9754997  21.1749988
  96.3820012  55.9264997  22.1309988  96.2848193  55.1317016  21.7905284
  98.3380012  40.9814997  19.3869988  98.8300012  40.3514997  18.8599988
  98.9620012  41.2774997  20.0509988  98.4895446  40.9353199  19.4045980
 103.3640012  41.2744997  21.8439988 103.5420012  40.6284997  22.5269988
 103.3110012  42.1084997  22.3119988 103.3811829  41.2987985  22.0005940
 105.2430012  56.2234997  20.2399988 106.1090012  56.5894997  20.0619988
 104.9960012  55.7834997  19.4259988 105.3282392  56.2141756  20.1056289
 111.9520012  55.7864997  22.9189988 111.7570012  55.0384997  22.3539988
 111.9130012  56.5444997  22.3359988 111.9200380  55.7866099  22.7628384
  97.5990012  39.7814997  34.6589988  97.2330012  39.0164997  35.1019988
  98.5120012  39.8104997  34.9459988  97.6722790  39.6807224  34.7584070
  99.5720012  39.1324997  36.1949988 100.4700012  38.8584997  36.0099988
  99.1850012  38.3894997  36.6589988  99.6426612  38.9945914  36.2323643
  98.1960012  55.9334997  18.8679988  97.9290012  56.2204997  19.7409988
  98.9680012  55.3874997  19.0199988  98.2637488  55.8990294  19.0081050
 107.9930012  38.4644997  36.3769988 108.0700012  38.0384997  37.2309988
 108.8870012  38.4784997  36.0339988 108.1243428  38.4080879  36.4475310
 111.1690012  54.5374997  35.0689988 110.3870012  54.3514997  34.5499988
 111.0970012  55.4664997  35.2869988 111.0521777  54.6376492  35.0274048
 125.5750012  48.4234997  25.0999988 125.6640012  49.3674997  24.9679988
 124.9370012  48.1484997  24.4419988 125.5009081  48.5154830  24.9929614
 124.5080012  47.6784997  28.5189988 124.4700012  47.0324997  29.2239988
 124.1860012  47.2124997  27.7479988 124.4592333  47.5269408  28.5112978
 116.8770012  47.2934997  30.1119988 116.9180012  46.6674997  30.8349988
 117.5800012  47.9174997  30.2939988 116.9776363  47.2921196  30.2356044
 128.2140012  50.6174997  26.8199988 127.7740012  49.8974997  27.2709988
 128.2010012  51.3384997  27.4499988 128.1520226  50.6163731  26.9668494
 117.8000012  51.7434997  28.6469988 117.4310012  50.9414997  28.2769988
 118.7410012  51.5744997  28.6929988 117.8767289  51.6110153  28.6026316
 114.4100012  45.4034997  24.0399988 113.9630012  46.2494997  24.0209988
 113.8490012  44.8234997  23.5239988 114.2729900  45.4409916  23.9676801
 115.1210012  47.5654997  26.1659988 115.3340012  46.7954997  26.6929988
 115.8590012  47.6544997  25.5619988 115.2498496  47.4721394  26.1565300
 125.3260012  55.7224997  27.0329988 125.9460012  55.0454997  26.7589988
 125.1180012  55.5044997  27.9409988 125.3826904  55.6003870  27.1183365
 122.8980012  50.1114997  28.9249988 123.2020012  49.4254997  28.3299988
 123.6190012  50.2294997  29.5429988 123.0370671  50.0336305  28.9271816
 131.5610012  41.7124997  29.7859988 131.6100012  42.3224997  30.5219988
 131.9860012  42.1734997  29.0629988 131.6251824  41.8583741  29.7890205
 126.0390012  44.5054997  29.2529988 126.1810012  43.5594997  29.2729988
 125.9320012  44.7124997  28.3239988 126.0439864  44.4039534  29.1302339
 119.1930012  42.6064997  26.5249988 119.2370012  43.4664997  26.1069988
 118.7360012  42.0544997  25.8909988 119.1372185  42.6495799  26.3820299
 126.9160012  42.7374997  24.9259988 127.5620012  42.4084997  25.5509988
 127.4260012  43.2554997  24.3029988 127.0734264  42.7624611  24.9273862
 115.8140012  45.0034997  27.2869988 116.4670012  44.4534997  27.7189988
 115.8380012  44.7294997  26.3699988 115.9066683  44.8911466  27.2222123
 120.9700012  46.5534997  26.5019988 121.5860012  46.0274997  27.0119988
 120.3840012  45.9134997  26.0989988 120.9750810  46.3949208  26.5173173
 131.9520012  43.1904997  32.0219988 131.2640012  43.8484997  31.9259988
 131.9680012  42.9934997  32.9579988 131.8598525  43.2540462  32.1354808
 118.0040012  41.5244997  30.5989988 117.7850012  42.0544997  29.8329988
 117.3360012  41.7514997  31.2459988 117.8837600  41.6276906  30.5816379
 125.3730012  51.0244997  24.1429988 125.0770012  50.7024997  23.2919988
 125.0480012  51.9244997  24.1839988 125.2886371  51.1020215  24.0321801
 120.5730012  49.2004997  30.8859988 119.8330012  49.7984997  30.9899988
 121.2870012  49.7544997  30.5709988 120.5682237  49.3572831  30.8576465
 128.6800012  42.0284997  26.9059988 128.4640012  41.2624997  27.4389988
 129.3350012  42.5004997  27.4189988 128.7390632  41.9875889  27.0482861
 117.5970012  43.4164997  28.5509988 118.2110012  44.0494997  28.9249988
 118.1090012  42.9444997  27.8949988 117.7502296  43.4392370  28.5134252
 118.9800012  51.1644997  31.6739988 118.9750012  52.0444997  31.2959988
 118.1270012  51.0814997  32.0989988 118.8639464  51.2736117  31.6797907
 115.1010012  50.8354997  22.4559988 114.8290012  51.0644997  21.5669988
 115.1470012  51.6734997  22.9159988 115.0700094  50.9801213  22.3965697
 128.7260012  52.4574997  29.1679988 127.7850012  52.5154997  29.3299988
 129.0030012  53.3634997  29.0309988 128.6344679  52.5879443  29.1716815
 129.0270012  40.7434997  30.5859988 128.2910012  41.3544997  30.5479988
 129.7100012  41.1584997  30.0589988 129.0186541  40.8831374  30.5095832
 122.0300012  38.8304997  28.0519988 121.9130012  37.8814997  27.9969988
 121.1750012  39.1624997  28.3249988 121.8983733  38.7455409  28.0813897
 126.9780012  54.2384997  25.7939988 127.4040012  53.5314997  25.3089988
 127.2950012  55.0394997  25.3769988 127.0791019  54.2500994  25.6713130
 128.1380012  52.1394997  24.3019988 127.8800012  51.4494997  23.6909988
 128.2090012  51.6964997  25.1479988 128.1122856  51.9852124  24.3326885
 129.8240012  50.7054997  32.7799988 129.9640012  50.1144997  32.0399988
 129.9910012  51.5784997  32.4229988 129.8656778  50.7426426  32.6306965
 124.2970012  47.6674997  22.5519988 123.5850012  48.2024997  22.1999988
 124.9880012  47.7234997  21.8919988 124.2930132  47.7482543  22.4146289
 124.3500012  46.1254997  19.5909988 125.0510012  46.1474997  20.2419988
 124.6530012  45.4974997  18.9349988 124.4867830  46.0436566  19.5913711
 131.6660012  47.0454997  30.8459988 131.0130012  47.7404997  30.9349988
 132.1310012  47.2554997  30.0359988 131.6395390  47.1689425  30.7486883
 127.7020012  47.8774997  23.5039988 126.9700012  48.1054997  24.0769988
 128.1500012  47.1634997  23.9589988 127.6623095  47.8122571  23.6439119
 127.6000012  46.0514997  32.5709988 127.6800012  46.8144997  33.1429988
 126.9980012  46.3304997  31.8809988 127.5295756  46.1937134  32.5560589
 119.3480012  48.5074997  25.3859988 119.0170012  48.1374997  24.5679988
 119.9360012  47.8374997  25.7329988 119.3821873  48.3661156  25.3208102
 120.7140012  51.9354997  28.0679988 120.6200012  51.3574997  27.3109988
 121.4440012  51.5644997  28.5639988 120.7997981  51.8062390  28.0314165
 119.7140012  47.2764997  29.0199988 120.2800012  47.3974997  28.2569988
 120.0330012  47.9134997  29.6589988 119.8345786  47.3791884  29.0020040
 126.0230012  52.7794997  29.7539988 125.7830012  53.4414997  30.4019988
 125.8250012  51.9454997  30.1789988 125.9633808  52.7573134  29.9001524
 120.5940012  51.6754997  33.7369988 120.2830012  52.4574997  34.1919988
 119.9440012  51.5224997  33.0509988 120.4635558  51.7619105  33.7065871
 126.5730012  47.0394997  21.1889988 127.1530012  47.1894997  21.9359988
 126.9870012  47.5104997  20.4659988 126.7082830  47.1236841  21.1934134
 117.5140012  47.8734997  32.9659988 117.5850012  48.5244997  33.6639988
 116.6240012  47.9764997  32.6309988 117.4033117  47.9765936  33.0162700
 124.3000012  53.7764997  24.6239988 124.7740012  54.0714997  25.4019988
 123.7370012  54.5144997  24.3909988 124.2887653  53.9166932  24.6990136
 118.8340012  53.7474997  34.4999988 118.8410012  53.6114997  33.5529988
 117.9180012  53.6294997  34.7519988 118.7111714  53.7129430  34.4044666
 130.2720012  38.7894997  21.0019988 129.3720012  38.9284997  21.2969988
 130.5240012  39.6204997  20.5999988 130.1828702  38.9209074  20.9880205
 118.3380012  47.5774997  22.9759988 118.0460012  48.3454997  22.4849988
 117.6640012  46.9174997  22.8129988 118.2069081  47.5934406  22.8867340
 131.4610012  53.1554997  19.3779988 131.5350012  54.0944997  19.5489988
 132.3670012  52.8504997  19.3219988 131.5935100  53.2426722  19.3938119
 114.4310012  49.9404997  31.7909988 113.9300012  49.9124997  30.9759988
 114.4360012  49.0344997  32.0999988 114.3631526  49.8142278  31.7212872
 114.1810012  52.7204997  28.6749988 115.1270012  52.5764997  28.6559988
 114.0690012  53.5044997  29.2119988 114.2952727  52.8068046  28.7450072
 132.3790012  53.3864997  34.3569988 132.3300012  52.4314997  34.3199988
 131.5520012  53.6544997  34.7579988 132.2604940  53.2918998  34.4061375
 123.3580012  52.9604997  33.2329988 123.4450012  53.7864997  33.7079988
 122.4940012  52.6304997  33.4819988 123.2531964  53.0289878  33.3316549
 123.7720012  56.7324997  23.0389988 123.6970012  56.6114997  22.0929988
 123.8050012  57.6824997  23.1579988 123.7661848  56.8442500  22.9254834
 117.4250012  55.5214997  24.8199988 117.5780012  55.1734997  25.6989988
 116.5750012  55.1654997  24.5649988 117.3308962  55.4256650  24.9058340
 126.8740012  55.8864997  20.0409988 127.2490012  55.1424997  19.5709988
 126.8780012  55.6164997  20.9599988 126.9258915  55.7481486  20.1007824
 126.5430012  55.8124997  22.7909988 125.6070012  55.9124997  22.9689988
 126.8230012  55.1034997  23.3689988 126.4528255  55.7302711  22.8935391
 129.5310012  44.8794997  34.8369988 129.1240012  45.3604997  34.1159988
 129.5720012  43.9744997  34.5289988 129.4808437  44.8229374  34.6966683
 116.6800012  51.2634997  32.8339988 116.8960012  50.9024997  33.6929988
 115.8250012  50.8894997  32.6239988 116.5939292  51.1634111  32.9233386
 119.2990012  39.7334997  28.8289988 118.4370012  39.6464997  28.4219988
 119.2760012  40.5894997  29.2569988 119.1780330  39.8372765  28.8311863
 123.9620012  39.4554997  32.2039988 124.3820012  39.0404997  32.9569988
 123.0290012  39.2774997  32.3209988 123.8933644  39.3745900  32.3229539
 127.2880012  43.2114997  33.0569988 126.7740012  43.0854997  33.8549988
 127.1330012  44.1234997  32.8129988 127.1966852  43.3176132  33.1332158
 128.0510012  48.0724997  18.8189988 128.0930012  47.8494997  17.8889988
 128.9000012  48.4714997  19.0089988 128.1715396  48.0959155  18.7173627
 123.6230012  41.9484997  19.4889988 123.3700012  41.9674997  20.4119988
 123.3670012  41.0764997  19.1879988 123.5537790  41.8332437  19.5746263
 119.3900012  44.6994997  29.9239988 118.7480012  44.6584997  30.6329988
 119.4270012  45.6254997  29.6869988 119.3071324  44.8191559  29.9889824
 119.3870012  44.9204997  24.8359988 118.4940012  44.5794997  24.7779988
 119.8370012  44.5434997  24.0809988 119.3257305  44.8228484  24.7259177
 124.9220012  45.3364997  23.6529988 124.5130012  46.1514997  23.3619988
 125.6430012  45.1964997  23.0389988 124.9634537  45.4292018  23.5301342
 124.0240012  45.5114997  35.1409988 123.4620012  44.8074997  35.4619988
 124.8510012  45.3914997  35.6089988 124.0587095  45.3987883  35.2482330
 125.9270012  44.7824997  26.4669988 125.7320012  45.3874997  25.7519988
 126.1080012  43.9484997  26.0329988 125.9247614  44.7526300  26.3104405
 117.1400012  45.0194997  31.7909988 117.1020012  45.4194997  32.6599988
 116.6490012  44.2024997  31.8819988 117.0684684  44.9638069  31.9221059
 120.5060012  42.3934997  18.5899988 120.0750012  41.9484997  19.3199988
 119.7880012  42.7654997  18.0779988 120.3499438  42.3828940  18.6206799
 113.7480012  42.1354997  25.6419988 114.3790012  42.1064997  26.3609988
 114.1970012  41.7104997  24.9119988 113.8950774  42.0740492  25.6416553
 115.0220012  42.8814997  21.0659988 115.4960012  43.4724997  20.4809988
 114.3050012  43.4124997  21.4129988 114.9899341  43.0340867  21.0328836
 125.1910012  46.4204997  31.1389988 125.5140012  45.7894997  30.4959988
 124.7510012  45.8854997  31.7989988 125.1756895  46.2618441  31.1402850
 121.9680012  42.3474997  25.9229988 121.0570012  42.4044997  26.2109988
 122.4740012  42.2874997  26.7329988 121.9115413  42.3471985  26.0720622
 116.7970012  43.9764997  24.7489988 115.9070012  44.0764997  24.4089988
 117.0930012  43.1344997  24.4029988 116.7152823  43.8763545  24.6557213
 120.4500012  43.9764997  22.4059988 121.3810012  44.1054997  22.5839988
 120.2350012  44.6464997  21.7559988 120.5484247  44.0846565  22.3425747
 126.3730012  41.5824997  29.1869988 125.6970012  41.7134997  29.8509988
 125.8880012  41.4274997  28.3769988 126.2147145  41.5794905  29.1684517
 119.1240012  45.1714997  19.9729988 118.5810012  44.7914997  19.2809988
 119.9570012  45.3654997  19.5439988 119.1624399  45.1458124  19.8204526
 129.6610012  57.2544997  35.4639988 129.8610012  57.6784997  34.6289988
 130.3160012  57.5974997  36.0709988 129.7770051  57.3589648  35.4317836
 117.2590012  49.7284997  35.0719988 117.9910012  49.9824997  35.6329988
 116.4790012  49.9324997  35.5869988 117.2538232  49.7909177  35.2185760
 123.2880012  45.1354997  27.8099988 123.8530012  44.5884997  27.2629988
 123.1410012  44.6134997  28.5979988 123.3452918  44.9902024  27.8418454
 118.2900012  41.2714997  24.2279988 117.9730012  40.3694997  24.1929988
 119.0720012  41.2734997  23.6749988 118.3522284  41.1481628  24.1484783
 121.9150012  43.5234997  30.2239988 121.0790012  43.9774997  30.3339988
 122.4390012  43.7994997  30.9759988 121.8714414  43.6229376  30.3407136
 122.4590012  49.7364997  21.9079988 121.7140012  49.2294997  21.5859988
 122.3250012  49.7854997  22.8549988 122.3388776  49.6736940  21.9918647
 129.6090012  48.8694997  30.6949988 130.2510012  49.3264997  30.1509988
 128.7790012  48.9824997  30.2319988 129.5845963  48.9472704  30.5580177
 126.3570012  42.5504997  20.1079988 125.4180012  42.6624997  19.9559988
 126.6540012  43.4074997  20.4139988 126.2687666  42.6816443  20.1285768
 123.9780012  49.9204997  33.1449988 123.6330012  49.5394997  33.9519988
 123.7780012  50.8544997  33.2169988 123.9038061  49.9945228  33.2650961
 127.0750012  44.4174997  21.7679988 127.9670012  44.2804997  22.0869988
 127.1320012  45.2084997  21.2319988 127.2046285  44.5056660  21.7391691
 117.5840012  49.0314997  27.6779988 118.3290012  49.0294997  27.0769988
 117.6620012  48.2084997  28.1599988 117.6965518  48.9199315  27.6608929
 124.5850012  51.1954997  20.9339988 124.2890012  52.0214997  21.3149988
 123.8820012  50.5754997  21.1299988 124.4494914  51.2248199  21.0126443
 114.5920012  47.4924997  32.9929988 114.8150012  47.0744997  33.8249988
 113.9900012  46.8794997  32.5699988 114.5411759  47.3524668  33.0497022
 121.6080012  47.0094997  35.2059988 121.3120012  46.8434997  34.3109988
 122.5400012  46.7894997  35.1949988 121.6934166  46.9570640  35.0820536
 126.2290012  52.3824997  33.0959988 125.3280012  52.5654997  32.8279988
 126.2630012  52.6414997  34.0169988 126.1103041  52.4425512  33.1838197
 131.9600012  44.6274997  21.4629988 131.4060012  44.2314997  20.7909988
 132.0600012  45.5374997  21.1849988 131.8977059  44.6963586  21.3334401
 131.9230012  50.4274997  34.2999988 131.0720012  50.6654997  33.9329988
 132.5140012  50.4104997  33.5469988 131.8862487  50.4578258  34.1478893
 130.2550012  53.4134997  21.9279988 129.8820012  52.5874997  22.2369988
 130.5330012  53.2304997  21.0309988 130.2415630  53.2757303  21.8489626
 127.4160012  48.2214997  28.9489988 126.4870012  47.9894997  28.9219988
 127.8670012  47.4444997  28.6189988 127.3499216  48.0847238  28.9006917
 119.9590012  52.5494997  25.0819988 120.4860012  53.3224997  24.8819988
 119.0790012  52.7744997  24.7809988 119.9121773  52.6858005  25.0139010
 115.7140012  47.4114997  19.6689988 116.3300012  48.0384997  20.0489988
 114.8520012  47.7274997  19.9409988 115.6817698  47.5399430  19.7577183
 121.3860012  50.2124997  24.6589988 121.1450012  51.1374997  24.6999988
 120.6450012  49.7534997  25.0549988 121.2528409  50.2771421  24.7181377
 121.9010012  54.3614997  30.9739988 122.2630012  55.2164997  30.7399988
 122.4320012  54.0694997  31.7139988 122.0224473  54.4391060  31.0420855
 120.0690012  55.2344997  24.2039988 119.1190012  55.3394997  24.2549988
 120.4210012  56.0544997  24.5489988 119.9864203  55.3598314  24.2576650
 125.4450012  50.4604997  30.6739988 125.0190012  50.2334997  31.5009988
 126.0250012  49.7224997  30.4919988 125.4651868  50.3295299  30.7625830
 127.6480012  51.3894997  19.7479988 128.0010012  51.0094997  20.5529988
 126.6990012  51.2964997  19.8349988 127.5680441  51.3249596  19.8698559
 128.1030012  55.0124997  33.1439988 127.5020012  54.4574997  32.6479988
 128.3850012  55.6794997  32.5179988 128.0588519  55.0266841  32.9914952
 132.1510012  55.8694997  19.9489988 132.8950012  56.4554997  19.8089988
 131.4570012  56.4374997  20.2829988 132.1590292  56.0265582  19.9749961
 116.2260012  42.2454997  32.5509988 115.3330012  42.5844997  32.4829988
 116.1270012  41.3904997  32.9689988 116.0904164  42.1762588  32.5982235
 128.5140012  50.0624997  21.9749988 128.2360012  49.3344997  22.5309988
 129.4410012  50.1814997  22.1799988 128.6013124  49.9788802  22.0788845
 115.8770012  54.0504997  30.9859988 116.0940012  53.1184997  30.9549988
 116.1230012  54.3244997  31.8689988 115.9399549  53.9600636  31.1011763
 121.7390012  52.5014997  18.1949988 121.9780012  51.7534997  17.6479988
 121.4700012  52.1134997  19.0279988 121.7353675  52.3466638  18.2326865
 120.6760012  52.0714997  20.6519988 120.8220012  51.5514997  21.4419988
 120.6730012  52.9784997  20.9579988 120.6955989  52.1228853  20.8016088
 117.1290012  49.3244997  21.1619988 116.4430012  49.6764997  21.7289988
 117.6510012  50.0874997  20.9149988 117.1056852  49.4758578  21.2062118
 124.9600012  41.9864997  31.4409988 125.6590012  42.0604997  32.0909988
 124.5790012  41.1224997  31.5949988 125.0041767  41.8797624  31.5508322
 125.7450012  41.6384997  22.5379988 125.9650012  42.1104997  21.7349988
 126.3030012  42.0334997  23.2079988 125.8504968  41.7564285  22.5187331
 123.4130012  53.7694997  21.4009988 122.5970012  54.2664997  21.4529988
 123.9430012  54.2444997  20.7609988 123.3729161  53.9017722  21.3215956
 122.9450012  43.3664997  23.3729988 123.7570012  43.8714997  23.4189988
 122.7000012  43.2214997  24.2869988 123.0230520  43.4160375  23.5028517
 123.4800012  44.3524997  32.5579988 123.5990012  44.9264997  33.3149988
 124.1360012  43.6644997  32.6719988 123.5849757  44.3381079  32.6770825
 123.8280012  40.4474997  24.3109988 123.4820012  41.0654997  24.9559988
 124.4870012  40.9484997  23.8299988 123.8697826  40.5995802  24.3340971
 120.7520012  54.8134997  21.3829988 120.9120012  55.6124997  20.8819988
 120.5540012  55.1194997  22.2679988 120.7471649  54.9644469  21.4339815
 119.4860012  41.5104997  20.9979988 119.4030012  42.3994997  21.3449988
 120.3760012  41.2454997  21.2299988 119.5949469  41.5961430  21.0767626
 129.6850012  42.2594997  33.3929988 128.7680012  42.5224997  33.3049988
 130.0200012  42.2564997  32.4959988 129.6049900  42.2950224  33.2597919
 128.2870012  46.0104997  27.4879988 127.4890012  45.5954997  27.1599988
 128.7320012  45.3194997  27.9789988 128.2379885  45.8603543  27.5094889
 117.7450012  51.9384997  20.0589988 118.3370012  52.6374997  20.3349988
 118.2040012  51.5054997  19.3389988 117.8881142  51.9757049  19.9994830
 116.0610012  44.6024997  19.1749988 116.0160012  45.5414997  19.3529988
 115.1730012  44.3664997  18.9049988 115.9348574  44.6991892  19.1628912
 129.3730012  55.2664997  29.1109988 129.2180012  55.9444997  28.4539988
 130.3060012  55.3384997  29.3139988 129.4778500  55.3690170  29.0485119
 116.8690012  39.3844997  27.8479988 116.6400012  39.4434997  26.9199988
 116.4260012  38.5924997  28.1539988 116.7778530  39.2855753  27.7624786
 115.7990012  53.3244997  24.0079988 114.9670012  53.7974997  24.0359988
 116.3450012  53.8344997  23.4099988 115.7589739  53.4581871  23.9309716
 115.0870012  55.9374997  35.3379988 115.6280012  55.7204997  36.0979988
 114.6060012  55.1314997  35.1489988 115.0959345  55.7989514  35.4163076
 119.6850012  54.8564997  36.9589988 120.4520012  54.3974997  37.2999988
 119.6630012  54.6304997  36.0289988 119.7871434  54.7630409  36.8800043
 123.7770012  54.3644997  18.3339988 123.1330012  53.7334997  18.6549988
 124.5390012  53.8334997  18.1019988 123.7918077  54.2062920  18.3466011
 126.2620012  53.2364997  35.6879988 125.9110012  52.3804997  35.9309988
 126.9880012  53.3794997  36.2949988 126.3120769  53.1385636  35.8033619
 128.3810012  54.1814997  18.5679988 128.6640012  53.3874997  19.0199988
 129.1210012  54.4144997  18.0069988 128.5197486  54.1042803  18.5540698
 114.9940012  49.7474997  36.2929988 115.1380012  48.8454997  36.0059988
 114.2220012  50.0334997  35.8049988 114.9093322  49.6628261  36.1877881
 119.3360012  50.0914997  18.4249988 119.4000012  49.2974997  18.9559988
 119.9890012  49.9724997  17.7349988 119.4330241  49.9667148  18.4044317
 121.6500012  49.7174997  35.7249988 121.3210012  49.9884997  34.8679988
 121.8020012  48.7764997  35.6379988 121.6254809  49.6273862  35.5958244
 124.6880012  51.1384997  18.1609988 124.4190012  51.3184997  19.0619988
 124.4820012  50.2124997  18.0299988 124.6233825  51.0380152  18.2665214
 127.3840012  49.6334997  33.1089988 128.1300012  50.2214997  32.9889988
 126.6270012  50.2154997  33.1719988 127.3837554  49.7927011  33.1010907
 115.8270012  46.9474997  35.7129988 116.2350012  46.0904997  35.5919988
 115.5670012  46.9624997  36.6339988 115.8477568  46.8320807  35.8209588
 120.4850012  48.0634997  20.7309988 120.0250012  47.5794997  21.4169988
 120.7400012  47.3954997  20.0949988 120.4564902  47.9068731  20.7389334
 119.7740012  45.9564997  33.0869988 119.1560012  46.6314997  33.3669988
 120.1180012  46.2774997  32.2539988 119.7359615  46.0922721  33.0126581
 121.5560012  46.3064997  18.9929988 121.3760012  46.1524997  18.0659988
 122.5060012  46.4144997  19.0379988 121.6597776  46.3000175  18.8721843
 124.7940012  48.4284997  36.3639988 125.7470012  48.5114997  36.3369988
 124.6330012  47.7164997  36.9839988 124.9026426  48.3436746  36.4440579
 130.9460012  48.6614997  18.4389988 130.6720012  48.2364997  17.6259988
 130.9850012  49.5924997  18.2219988 130.9137699  48.7292484  18.2983610
 120.1130012  43.3114997  34.1689988 120.2630012  42.5824997  33.5669988
 120.1160012  44.0884997  33.6099988 120.1339302  43.3167851  34.0110692
 120.5260012  41.6814997  31.6619988 121.0620012  42.1324997  31.0099988
 119.6740012  41.5734997  31.2389988 120.4842178  41.7286390  31.5155756
 122.1080012  47.1204997  31.9009988 122.8580012  46.9644997  31.3279988
 121.7690012  47.9724997  31.6259988 122.1648921  47.2142968  31.7853561
 126.5230012  44.9354997  36.9299988 126.7160012  44.0044997  36.8179988
 127.3810012  45.3604997  36.9199988 126.6653020  44.8656389  36.9133361
 127.8400012  47.7244997  35.0069988 127.5590012  48.4334997  34.4299988
 128.7830012  47.6514997  34.8559988 127.9289027  47.8117646  34.9075551
 118.5920012  44.5094997  36.0809988 117.8250012  43.9774997  35.8709988
 119.2710012  44.1994997  35.4809988 118.5787022  44.3947506  35.9711648
 121.3320012  39.1374997  32.0929988 121.2330012  40.0844997  31.9879988
 120.5890012  38.7654997  31.6179988 121.2180564  39.2165902  32.0144560
 122.5960012  43.4594997  35.6569988 122.3600012  43.2394997  36.5589988
 121.8120012  43.2524997  35.1469988 122.4578628  43.4014760  35.7113932
 125.3110012  42.5864997  34.7329988 124.3640012  42.6184997  34.8649988
 125.6240012  41.9614997  35.3859988 125.2235475  42.5063207  34.8394455
 126.9450012  41.2204997  36.7379988 126.8490012  40.2684997  36.7319988
 126.6240012  41.4894997  37.5979988 126.8884070  41.1264035  36.8535441
 116.7720012  42.4304997  35.7849988 116.9840012  41.7234997  35.1749988
 116.6610012  41.9924997  36.6289988 116.7859721  42.2747084  35.8156843
 121.5530012  38.4314997  34.7649988 122.2650012  37.7914997  34.7509988
 121.4520012  38.6984997  33.8509988 121.6367939  38.3799938  34.6395650
 121.9070012  40.1144997  36.8179988 121.7750012  39.6384997  35.9979988
 121.3080012  40.8584997  36.7629988 121.8079071  40.1499618  36.6982886
 121.4530012  56.9974997  19.9949988 122.3860012  57.1554997  20.1379988
 121.1890012  57.6724997  19.3699988 121.5449510  57.1103611  19.9300741
 115.0220012  51.6334997  19.4769988 115.9360012  51.7124997  19.7509988
 115.0290012  50.9464997  18.8109988 115.1481131  51.5513961  19.4244393
 113.6710012  57.0264997  24.5549988 113.0240012  56.5644997  24.0219988
 114.0250012  56.3544997  25.1369988 113.6303849  56.8724723  24.5607959
 114.5410012  55.1074997  26.3589988 114.2060012  54.2274997  26.5309988
 114.7630012  55.4524997  27.2239988 114.5251783  55.0337500  26.4994208
 132.0890012  55.9164997  29.3399988 132.0680012  56.1014997  30.2789988
 132.7800012  56.4854997  28.9989988 132.1794618  56.0186606  29.4223864
 131.6530012  55.4844997  32.2619988 131.1650012  54.7484997  31.8909988
 132.2020012  55.0904997  32.9399988 131.6604872  55.3306249  32.3029160
 130.1030012  51.2734997  36.8999988 129.2370012  51.1684997  37.2939988
 130.4800012  52.0324997  37.3459988 130.0353308  51.3616900  37.0142393
 131.4040012  49.5304997  22.4139988 132.2540012  49.9514997  22.5409988
 131.4100012  48.7904997  23.0209988 131.5211372  49.4880803  22.5134344
 131.7990012  47.5834997  24.2379988 131.0720012  47.1044997  24.6349988
 132.3800012  47.7894997  24.9699988 131.7779375  47.5457090  24.3914129
 131.5580012  50.3684997  29.1849988 132.3910012  49.9904997  28.9049988
 131.6700012  51.3114997  29.0659988 131.6872647  50.4442218  29.1305487
 130.0440012  53.2464997  31.4919988 129.3970012  53.5714997  32.1179988
 129.5270012  52.8064997  30.8179988 129.8854029  53.2315004  31.4865827
 132.0670012  47.4844997  20.6289988 131.5450012  47.8414997  19.9099988
 132.0340012  48.1594997  21.3069988 131.9911634  47.6245413  20.6223145
 130.4160012  44.7244997  19.1799988 130.5120012  45.3914997  18.4989988
 130.2760012  43.9084997  18.6979988 130.4102135  44.7054500  19.0218491
 129.5850012  46.1044997  24.8009988 129.4350012  45.1594997  24.7799988
 129.2320012  46.3854997  25.6439988 129.5166625  46.0130441  24.9122346
 114.6210012  48.1824997  28.8109988 114.8050012  48.1004997  27.8749988
 115.4700012  48.0584997  29.2349988 114.7610139  48.1545003  28.7401455
 130.4420012  48.0744997  34.4389988 131.0250012  47.3404997  34.6309988
 131.0060012  48.8464997  34.4859988 130.5979769  48.0784227  34.4716159
 131.9380012  45.9774997  35.1239988 131.0750012  45.5984997  34.9579988
 132.5430012  45.2384997  35.0499988 131.9015979  45.8258023  35.0912817
 129.6630012  42.1324997  18.2969988 130.2740012  41.7614997  18.9339988
 128.8270012  41.7114997  18.4929988 129.6335032  42.0247554  18.4107035
 129.2960012  43.6874997  23.2629988 129.5760012  42.7804997  23.3869988
 130.0550012  44.1214997  22.8739988 129.4369277  43.6220942  23.2273682
 129.9080012  44.2684997  28.6989988 130.8410012  44.4804997  28.6649988
 129.6730012  44.3704997  29.6209988 130.0038036  44.3112769  28.8189976
 129.9370012  45.0054997  31.4749988 129.0940012  45.2734997  31.8409988
 130.3790012  45.8274997  31.2639988 129.8814158  45.1533291  31.4965491
 114.2180012  43.4534997  34.9519988 115.1380012  43.3314997  35.1879988
 113.7690012  42.7034997  35.3409988 114.2831580  43.3353727  35.0369006
 132.2200012  38.9854997  36.8279988 132.5700012  38.3314997  36.2229988
 132.3670012  39.8224997  36.3889988 132.2878419  39.0091591  36.6857118
 129.9090012  40.9504997  23.3109988 130.0920012  40.5014997  24.1369988
 129.3100012  40.3654997  22.8479988 129.8530202  40.8099975  23.3613275
 115.4390012  41.7654997  27.8429988 115.8850012  40.9734997  28.1449988
 115.9060012  42.4814997  28.2739988 115.5630172  41.7540624  27.9424820
 113.7430012  44.7644997  28.9119988 114.2350012  44.5434997  28.1209988
 114.1060012  45.6054997  29.1929988 113.8593126  44.8478357  28.8417531
 131.7400012  41.0944997  35.1779988 130.8220012  41.3654997  35.1419988
 131.8630012  40.5594997  34.3929988 131.6311066  41.0592892  35.0670487
 131.7760012  41.0174997  19.8389988 132.1880012  40.2964997  19.3639988
 132.4580012  41.6874997  19.8979988 131.9245885  41.0092368  19.7818915
 114.0570012  41.0224997  22.9659988 113.1320012  41.2314997  22.8369988
 114.5110012  41.5064997  22.2769988 113.9917368  41.1165993  22.8551226
 128.8280012  56.0064997  24.9119988 129.4800012  55.6594997  24.3039988
 129.3380012  56.4954997  25.5579988 128.9862637  56.0250597  24.9160236
 114.0210012  39.7604997  31.3109988 113.3560012  39.5144997  31.9539988
 113.5780012  40.3824997  30.7329988 113.8700956  39.8108632  31.3209352
 116.2130012  52.9354997  35.4549988 115.3920012  53.1104997  34.9949988
 115.9600012  52.8624997  36.3759988 116.0666164  52.9495622  35.5164923
 119.1670012  53.9104997  31.7139988 118.7420012  54.7194997  31.4309988
 120.0710012  53.9954997  31.4119988 119.2310271  54.0328469  31.6343776
 123.4780012  55.3094997  34.6729988 123.6630012  54.9754997  35.5509988
 124.3240012  55.6184997  34.3509988 123.6177539  55.3056047  34.7495605
 125.8230012  56.5954997  33.9169988 126.5000012  55.9624997  33.6769988
 126.1450012  56.9964997  34.7239988 125.9591637  56.5631154  33.9932793
 130.7400012  39.1844997  32.9969988 129.9280012  39.5094997  32.6089988
 130.9730012  38.4244997  32.4639988 130.6603423  39.1262436  32.8718253
 116.5690012  57.1664997  31.7609988 115.8480012  57.6064997  31.3099988
 116.2030012  56.9154997  32.6099988 116.4209804  57.1927698  31.8139840
 119.0360012  56.7664997  30.7909988 118.1710012  56.8384997  31.1949988
 118.9810012  57.3134997  30.0069988 118.9102085  56.8502685  30.7403362
 123.7460012  56.6544997  29.9659988 123.2900012  57.1834997  29.3119988
 123.9090012  57.2574997  30.6919988 123.7055585  56.8084468  29.9745062
 126.0740012  55.5324997  30.9109988 125.1690012  55.6974997  30.6459988
 126.5030012  56.3854997  30.8459988 126.0080799  55.6704483  30.8659182
 128.6780012  57.1024997  31.2059988 128.4960012  58.0184997  30.9959988
 128.8550012  56.6924997  30.3599988 128.6770210  57.1724822  31.0627885
 115.9830012  55.7894997  28.6709988 115.9650012  55.3644997  29.5289988
 116.7880012  55.4714997  28.2629988 116.0893875  55.6883812  28.7331655
 118.1250012  54.4994997  27.3259988 117.9060012  53.5834997  27.4959988
 118.9490012  54.6394997  27.7919988 118.2064420  54.3930520  27.4122774
 120.6620012  54.9694997  28.1749988 120.8750012  54.0814997  27.8879988
 120.7260012  54.9354997  29.1289988 120.6998232  54.8433102  28.2647397
 124.1700012  40.6334997  27.3189988 123.4960012  40.0044997  27.5749988
 124.7340012  40.1494997  26.7159988 124.1539230  40.4818744  27.2725340
 129.3130012  38.7414997  27.4319988 129.9170012  39.2884997  26.9299988
 128.4430012  39.0604997  27.1919988 129.2781241  38.8595806  27.3307654
 131.0400012  39.8794997  25.7649988 131.6520012  39.3654997  25.2389988
 131.4220012  40.7574997  25.7889988 131.1754540  39.9277140  25.6961830
 116.4970012  39.2674997  25.1409988 115.7200012  39.0334997  24.6339988
 117.0270012  38.4704997  25.1499988 116.4622330  39.1276988  25.0727742
 115.3330012  39.0654997  20.9449988 115.7720012  39.6764997  20.3529988
 114.7000012  39.6034997  21.4189988 115.3074514  39.2219257  20.9280930
 121.0760012  39.1944997  24.9549988 121.9510012  39.5824997  24.9249988
 120.9400012  38.9794997  25.8769988 121.1773695  39.2185184  25.0756440
 126.6330012  39.2244997  26.6039988 126.7090012  39.3194997  25.6539988
 126.3580012  38.3164997  26.7329988 126.6062321  39.1147867  26.4915079
 127.9860012  39.2504997  22.2959988 127.2840012  39.8654997  22.0869988
 127.5420012  38.4124997  22.4269988 127.8296330  39.2215783  22.2850328
 115.2340012  55.0134997  21.8429988 114.5490012  54.9754997  21.1749988
 115.2380012  55.9264997  22.1309988 115.1408193  55.1317016  21.7905284
 117.1940012  40.9814997  19.3869988 117.6860012  40.3514997  18.8599988
 117.8180012  41.2774997  20.0509988 117.3455446  40.9353199  19.4045980
 122.2200012  41.2744997  21.8439988 122.3980012  40.6284997  22.5269988
 122.1670012  42.1084997  22.3119988 122.2371829  41.2987985  22.0005940
 124.0990012  56.2234997  20.2399988 124.9650012  56.5894997  20.0619988
 123.8520012  55.7834997  19.4259988 124.1842392  56.2141756  20.1056289
 130.8080012  55.7864997  22.9189988 130.6130012  55.0384997  22.3539988
 130.7690012  56.5444997  22.3359988 130.7760380  55.7866099  22.7628384
 116.4550012  39.7814997  34.6589988 116.0890012  39.0164997  35.1019988
 117.3680012  39.8104997  34.9459988 116.5282790  39.6807224  34.7584070
 118.4280012  39.1324997  36.1949988 119.3260012  38.8584997  36.0099988
 118.0410012  38.3894997  36.6589988 118.4986612  38.9945914  36.2323643
 117.0520012  55.9334997  18.8679988 116.7850012  56.2204997  19.7409988
 117.8240012  55.3874997  19.0199988 117.1197488  55.8990294  19.0081050
 126.8490012  38.4644997  36.3769988 126.9260012  38.0384997  37.2309988
 127.7430012  38.4784997  36.0339988 126.9803428  38.4080879  36.4475310
 130.0250012  54.5374997  35.0689988 129.2430012  54.3514997  34.5499988
 129.9530012  55.4664997  35.2869988 129.9081777  54.6376492  35.0274048
 144.4310012  48.4234997  25.0999988 144.5200012  49.3674997  24.9679988
 143.7930012  48.1484997  24.4419988 144.3569081  48.5154830  24.9929614
 143.3640012  47.6784997  28.5189988 143.3260012  47.0324997  29.2239988
 143.0420012  47.2124997  27.7479988 143.3152333  47.5269408  28.5112978
 135.7330012  47.2934997  30.1119988 135.7740012  46.6674997  30.8349988
 136.4360012  47.9174997  30.2939988 135.8336363  47.2921196  30.2356044
 136.6560012  51.7434997  28.6469988 136.2870012  50.9414997  28.2769988
 137.5970012  51.5744997  28.6929988 136.7327289  51.6110153  28.6026316
 133.2660012  45.4034997  24.0399988 132.8190012  46.2494997  24.0209988
 132.7050012  44.8234997  23.5239988 133.1289900  45.4409916  23.9676801
 133.9770012  47.5654997  26.1659988 134.1900012  46.7954997  26.6929988
 134.7150012  47.6544997  25.5619988 134.1058496  47.4721394  26.1565300
 144.1820012  55.7224997  27.0329988 144.8020012  55.0454997  26.7589988
 143.9740012  55.5044997  27.9409988 144.2386904  55.6003870  27.1183365
 141.7540012  50.1114997  28.9249988 142.0580012  49.4254997  28.3299988
 142.4750012  50.2294997  29.5429988 141.8930671  50.0336305  28.9271816
 144.8950012  44.5054997  29.2529988 145.0370012  43.5594997  29.2729988
 144.7880012  44.7124997  28.3239988 144.8999863  44.4039534  29.1302339
 138.0490012  42.6064997  26.5249988 138.0930012  43.4664997  26.1069988
 137.5920012  42.0544997  25.8909988 137.9932185  42.6495799  26.3820299
 134.6700012  45.0034997  27.2869988 135.3230012  44.4534997  27.7189988
 134.6940012  44.7294997  26.3699988 134.7626683  44.8911466  27.2222123
 139.8260012  46.5534997  26.5019988 140.4420012  46.0274997  27.0119988
 139.2400012  45.9134997  26.0989988 139.8310810  46.3949208  26.5173173
 136.8600012  41.5244997  30.5989988 136.6410012  42.0544997  29.8329988
 136.1920012  41.7514997  31.2459988 136.7397600  41.6276906  30.5816379
 144.2290012  51.0244997  24.1429988 143.9330012  50.7024997  23.2919988
 143.9040012  51.9244997  24.1839988 144.1446371  51.1020215  24.0321801
 139.4290012  49.2004997  30.8859988 138.6890012  49.7984997  30.9899988
 140.1430012  49.7544997  30.5709988 139.4242237  49.3572831  30.8576465
 136.4530012  43.4164997  28.5509988 137.0670012  44.0494997  28.9249988
 136.9650012  42.9444997  27.8949988 136.6062296  43.4392370  28.5134252
 137.8360012  51.1644997  31.6739988 137.8310012  52.0444997  31.2959988
 136.9830012  51.0814997  32.0989988 137.7199464  51.2736117  31.6797907
 133.9570012  50.8354997  22.4559988 133.6850012  51.0644997  21.5669988
 134.0030012  51.6734997  22.9159988 133.9260094  50.9801213  22.3965697
 140.8860012  38.8304997  28.0519988 140.7690012  37.8814997  27.9969988
 140.0310012  39.1624997  28.3249988 140.7543733  38.7455409  28.0813897
 143.1530012  47.6674997  22.5519988 142.4410012  48.2024997  22.1999988
 143.8440012  47.7234997  21.8919988 143.1490132  47.7482543  22.4146289
 143.2060012  46.1254997  19.5909988 143.9070012  46.1474997  20.2419988
 143.5090012  45.4974997  18.9349988 143.3427830  46.0436566  19.5913711
 138.2040012  48.5074997  25.3859988 137.8730012  48.1374997  24.5679988
 138.7920012  47.8374997  25.7329988 138.2381873  48.3661156  25.3208102
 139.5700012  51.9354997  28.0679988 139.4760012  51.3574997  27.3109988
 140.3000012  51.5644997  28.5639988 139.6557981  51.8062390  28.0314165
 138.5700012  47.2764997  29.0199988 139.1360012  47.3974997  28.2569988
 138.8890012  47.9134997  29.6589988 138.6905786  47.3791884  29.0020040
 144.8790012  52.7794997  29.7539988 144.6390012  53.4414997  30.4019988
 144.6810012  51.9454997  30.1789988 144.8193808  52.7573134  29.9001524
 139.4500012  51.6754997  33.7369988 139.1390012  52.4574997  34.1919988
 138.8000012  51.5224997  33.0509988 139.3195558  51.7619105  33.7065871
 136.3700012  47.8734997  32.9659988 136.4410012  48.5244997  33.6639988
 135.4800012  47.9764997  32.6309988 136.2593117  47.9765936  33.0162700
 143.1560012  53.7764997  24.6239988 143.6300012  54.0714997  25.4019988
 142.5930012  54.5144997  24.3909988 143.1447653  53.9166932  24.6990136
 137.6900012  53.7474997  34.4999988 137.6970012  53.6114997  33.5529988
 136.7740012  53.6294997  34.7519988 137.5671714  53.7129430  34.4044666
 137.1940012  47.5774997  22.9759988 136.9020012  48.3454997  22.4849988
 136.5200012  46.9174997  22.8129988 137.0629081  47.5934406  22.8867340
 133.2870012  49.9404997  31.7909988 132.7860012  49.9124997  30.9759988
 133.2920012  49.0344997  32.0999988 133.2191526  49.8142278  31.7212872
 133.0370012  52.7204997  28.6749988 133.9830012  52.5764997  28.6559988
 132.9250012  53.5044997  29.2119988 133.1512727  52.8068046  28.7450072
 142.2140012  52.9604997  33.2329988 142.3010012  53.7864997  33.7079988
 141.3500012  52.6304997  33.4819988 142.1091964  53.0289878  33.3316549
 142.6280012  56.7324997  23.0389988 142.5530012  56.6114997  22.0929988
 142.6610012  57.6824997  23.1579988 142.6221848  56.8442500  22.9254834
 136.2810012  55.5214997  24.8199988 136.4340012  55.1734997  25.6989988
 135.4310012  55.1654997  24.5649988 136.1868962  55.4256650  24.9058340
 135.5360012  51.2634997  32.8339988 135.7520012  50.9024997  33.6929988
 134.6810012  50.8894997  32.6239988 135.4499292  51.1634111  32.9233386
 138.1550012  39.7334997  28.8289988 137.2930012  39.6464997  28.4219988
 138.1320012  40.5894997  29.2569988 138.0340330  39.8372765  28.8311863
 142.8180012  39.4554997  32.2039988 143.2380012  39.0404997  32.9569988
 141.8850012  39.2774997  32.3209988 142.7493644  39.3745900  32.3229539
 142.4790012  41.9484997  19.4889988 142.2260012  41.9674997  20.4119988
 142.2230012  41.0764997  19.1879988 142.4097790  41.8332437  19.5746263
 138.2460012  44.6994997  29.9239988 137.6040012  44.6584997  30.6329988
 138.2830012  45.6254997  29.6869988 138.1631324  44.8191559  29.9889824
 138.2430012  44.9204997  24.8359988 137.3500012  44.5794997  24.7779988
 138.6930012  44.5434997  24.0809988 138.1817305  44.8228484  24.7259177
 143.7780012  45.3364997  23.6529988 143.3690012  46.1514997  23.3619988
 144.4990012  45.1964997  23.0389988 143.8194537  45.4292018  23.5301342
 142.8800012  45.5114997  35.1409988 142.3180012  44.8074997  35.4619988
 143.7070012  45.3914997  35.6089988 142.9147095  45.3987883  35.2482330
 144.7830012  44.7824997  26.4669988 144.5880012  45.3874997  25.7519988
 144.9640012  43.9484997  26.0329988 144.7807614  44.7526300  26.3104405
 135.9960012  45.0194997  31.7909988 135.9580012  45.4194997  32.6599988
 135.5050012  44.2024997  31.8819988 135.9244684  44.9638069  31.9221059
 139.3620012  42.3934997  18.5899988 138.9310012  41.9484997  19.3199988
 138.6440012  42.7654997  18.0779988 139.2059438  42.3828940  18.6206799
 132.6040012  42.1354997  25.6419988 133.2350012  42.1064997  26.3609988
 133.0530012  41.7104997  24.9119988 132.7510774  42.0740492  25.6416553
 133.8780012  42.8814997  21.0659988 134.3520012  43.4724997  20.4809988
 133.1610012  43.4124997  21.4129988 133.8459341  43.0340867  21.0328836
 144.0470012  46.4204997  31.1389988 144.3700012  45.7894997  30.4959988
 143.6070012  45.8854997  31.7989988 144.0316895  46.2618441  31.1402850
 140.8240012  42.3474997  25.9229988 139.9130012  42.4044997  26.2109988
 141.3300012  42.2874997  26.7329988 140.7675413  42.3471985  26.0720622
 135.6530012  43.9764997  24.7489988 134.7630012  44.0764997  24.4089988
 135.9490012  43.1344997  24.4029988 135.5712823  43.8763545  24.6557213
 139.3060012  43.9764997  22.4059988 140.2370012  44.1054997  22.5839988
 139.0910012  44.6464997  21.7559988 139.4044247  44.0846565  22.3425747
 137.9800012  45.1714997  19.9729988 137.4370012  44.7914997  19.2809988
 138.8130012  45.3654997  19.5439988 138.0184399  45.1458124  19.8204526
 136.1150012  49.7284997  35.0719988 136.8470012  49.9824997  35.6329988
 135.3350012  49.9324997  35.5869988 136.1098232  49.7909177  35.2185760
 142.1440012  45.1354997  27.8099988 142.7090012  44.5884997  27.2629988
 141.9970012  44.6134997  28.5979988 142.2012918  44.9902024  27.8418454
 137.1460012  41.2714997  24.2279988 136.8290012  40.3694997  24.1929988
 137.9280012  41.2734997  23.6749988 137.2082284  41.1481628  24.1484783
 140.7710012  43.5234997  30.2239988 139.9350012  43.9774997  30.3339988
 141.2950012  43.7994997  30.9759988 140.7274414  43.6229376  30.3407136
 141.3150012  49.7364997  21.9079988 140.5700012  49.2294997  21.5859988
 141.1810012  49.7854997  22.8549988 141.1948776  49.6736940  21.9918647
 142.8340012  49.9204997  33.1449988 142.4890012  49.5394997  33.9519988
 142.6340012  50.8544997  33.2169988 142.7598061  49.9945228  33.2650961
 136.4400012  49.0314997  27.6779988 137.1850012  49.0294997  27.0769988
 136.5180012  48.2084997  28.1599988 136.5525518  48.9199315  27.6608929
 143.4410012  51.1954997  20.9339988 143.1450012  52.0214997  21.3149988
 142.7380012  50.5754997  21.1299988 143.3054914  51.2248199  21.0126443
 133.4480012  47.4924997  32.9929988 133.6710012  47.0744997  33.8249988
 132.8460012  46.8794997  32.5699988 133.3971759  47.3524668  33.0497022
 140.4640012  47.0094997  35.2059988 140.1680012  46.8434997  34.3109988
 141.3960012  46.7894997  35.1949988 140.5494166  46.9570640  35.0820536
 138.8150012  52.5494997  25.0819988 139.3420012  53.3224997  24.8819988
 137.9350012  52.7744997  24.7809988 138.7681773  52.6858005  25.0139010
 134.5700012  47.4114997  19.6689988 135.1860012  48.0384997  20.0489988
 133.7080012  47.7274997  19.9409988 134.5377698  47.5399430  19.7577183
 140.2420012  50.2124997  24.6589988 140.0010012  51.1374997  24.6999988
 139.5010012  49.7534997  25.0549988 140.1088409  50.2771421  24.7181377
 140.7570012  54.3614997  30.9739988 141.1190012  55.2164997  30.7399988
 141.2880012  54.0694997  31.7139988 140.8784473  54.4391060  31.0420855
 138.9250012  55.2344997  24.2039988 137.9750012  55.3394997  24.2549988
 139.2770012  56.0544997  24.5489988 138.8424203  55.3598314  24.2576650
 144.3010012  50.4604997  30.6739988 143.8750012  50.2334997  31.5009988
 144.8810012  49.7224997  30.4919988 144.3211868  50.3295299  30.7625830
 135.0820012  42.2454997  32.5509988 134.1890012  42.5844997  32.4829988
 134.9830012  41.3904997  32.9689988 134.9464164  42.1762588  32.5982235
 134.7330012  54.0504997  30.9859988 134.9500012  53.1184997  30.9549988
 134.9790012  54.3244997  31.8689988 134.7959549  53.9600636  31.1011763
 140.5950012  52.5014997  18.1949988 140.8340012  51.7534997  17.6479988
 140.3260012  52.1134997  19.0279988 140.5913675  52.3466638  18.2326865
 139.5320012  52.0714997  20.6519988 139.6780012  51.5514997  21.4419988
 139.5290012  52.9784997  20.9579988 139.5515989  52.1228853  20.8016088
 135.9850012  49.3244997  21.1619988 135.2990012  49.6764997  21.7289988
 136.5070012  50.0874997  20.9149988 135.9616852  49.4758578  21.2062118
 143.8160012  41.9864997  31.4409988 144.5150012  42.0604997  32.0909988
 143.4350012  41.1224997  31.5949988 143.8601767  41.8797624  31.5508322
 144.6010012  41.6384997  22.5379988 144.8210012  42.1104997  21.7349988
 145.1590012  42.0334997  23.2079988 144.7064968  41.7564285  22.5187331
 142.2690012  53.7694997  21.4009988 141.4530012  54.2664997  21.4529988
 142.7990012  54.2444997  20.7609988 142.2289161  53.9017722  21.3215956
 141.8010012  43.3664997  23.3729988 142.6130012  43.8714997  23.4189988
 141.5560012  43.2214997  24.2869988 141.8790520  43.4160375  23.5028517
 142.3360012  44.3524997  32.5579988 142.4550012  44.9264997  33.3149988
 142.9920012  43.6644997  32.6719988 142.4409757  44.3381079  32.6770825
 142.6840012  40.4474997  24.3109988 142.3380012  41.0654997  24.9559988
 143.3430012  40.9484997  23.8299988 142.7257826  40.5995802  24.3340971
 139.6080012  54.8134997  21.3829988 139.7680012  55.6124997  20.8819988
 139.4100012  55.1194997  22.2679988 139.6031649  54.9644469  21.4339815
 138.3420012  41.5104997  20.9979988 138.2590012  42.3994997  21.3449988
 139.2320012  41.2454997  21.2299988 138.4509469  41.5961430  21.0767626
 136.6010012  51.9384997  20.0589988 137.1930012  52.6374997  20.3349988
 137.0600012  51.5054997  19.3389988 136.7441142  51.9757049  19.9994830
 134.9170012  44.6024997  19.1749988 134.8720012  45.5414997  19.3529988
 134.0290012  44.3664997  18.9049988 134.7908574  44.6991892  19.1628912
 135.7250012  39.3844997  27.8479988 135.4960012  39.4434997  26.9199988
 135.2820012  38.5924997  28.1539988 135.6338530  39.2855753  27.7624786
 134.6550012  53.3244997  24.0079988 133.8230012  53.7974997  24.0359988
 135.2010012  53.8344997  23.4099988 134.6149739  53.4581871  23.9309716
 133.9430012  55.9374997  35.3379988 134.4840012  55.7204997  36.0979988
 133.4620012  55.1314997  35.1489988 133.9519345  55.7989514  35.4163076
 138.5410012  54.8564997  36.9589988 139.3080012  54.3974997  37.2999988
 138.5190012  54.6304997  36.0289988 138.6431434  54.7630409  36.8800043
 142.6330012  54.3644997  18.3339988 141.9890012  53.7334997  18.6549988
 143.3950012  53.8334997  18.1019988 142.6478077  54.2062920  18.3466011
 133.8500012  49.7474997  36.2929988 133.9940012  48.8454997  36.0059988
 133.0780012  50.0334997  35.8049988 133.7653322  49.6628261  36.1877881
 138.1920012  50.0914997  18.4249988 138.2560012  49.2974997  18.9559988
 138.8450012  49.9724997  17.7349988 138.2890241  49.9667148  18.4044317
 140.5060012  49.7174997  35.7249988 140.1770012  49.9884997  34.8679988
 140.6580012  48.7764997  35.6379988 140.4814809  49.6273862  35.5958244
 143.5440012  51.1384997  18.1609988 143.2750012  51.3184997  19.0619988
 143.3380012  50.2124997  18.0299988 143.4793825  51.0380152  18.2665214
 134.6830012  46.9474997  35.7129988 135.0910012  46.0904997  35.5919988
 134.4230012  46.9624997  36.6339988 134.7037568  46.8320807  35.8209588
 139.3410012  48.0634997  20.7309988 138.8810012  47.5794997  21.4169988
 139.5960012  47.3954997  20.0949988 139.3124902  47.9068731  20.7389334
 138.6300012  45.9564997  33.0869988 138.0120012  46.6314997  33.3669988
 138.9740012  46.2774997  32.2539988 138.5919615  46.0922721  33.0126581
 140.4120012  46.3064997  18.9929988 140.2320012  46.1524997  18.0659988
 141.3620012  46.4144997  19.0379988 140.5157776  46.3000175  18.8721843
 143.6500012  48.4284997  36.3639988 144.6030012  48.5114997  36.3369988
 143.4890012  47.7164997  36.9839988 143.7586426  48.3436746  36.4440579
 138.9690012  43.3114997  34.1689988 139.1190012  42.5824997  33.5669988
 138.9720012  44.0884997  33.6099988 138.9899302  43.3167851  34.0110692
 139.3820012  41.6814997  31.6619988 139.9180012  42.1324997  31.0099988
 138.5300012  41.5734997  31.2389988 139.3402178  41.7286390  31.5155756
 140.9640012  47.1204997  31.9009988 141.7140012  46.9644997  31.3279988
 140.6250012  47.9724997  31.6259988 141.0208921  47.2142968  31.7853561
 137.4480012  44.5094997  36.0809988 136.6810012  43.9774997  35.8709988
 138.1270012  44.1994997  35.4809988 137.4347022  44.3947506  35.9711648
 140.1880012  39.1374997  32.0929988 140.0890012  40.0844997  31.9879988
 139.4450012  38.7654997  31.6179988 140.0740564  39.2165902  32.0144560
 141.4520012  43.4594997  35.6569988 141.2160012  43.2394997  36.5589988
 140.6680012  43.2524997  35.1469988 141.3138628  43.4014760  35.7113932
 144.1670012  42.5864997  34.7329988 143.2200012  42.6184997  34.8649988
 144.4800012  41.9614997  35.3859988 144.0795475  42.5063207  34.8394455
 135.6280012  42.4304997  35.7849988 135.8400012  41.7234997  35.1749988
 135.5170012  41.9924997  36.6289988 135.6419721  42.2747084  35.8156843
 140.4090012  38.4314997  34.7649988 141.1210012  37.7914997  34.7509988
 140.3080012  38.6984997  33.8509988 140.4927939  38.3799938  34.6395650
 140.7630012  40.1144997  36.8179988 140.6310012  39.6384997  35.9979988
 140.1640012  40.8584997  36.7629988 140.6639071  40.1499618  36.6982886
 140.3090012  56.9974997  19.9949988 141.2420012  57.1554997  20.1379988
 140.0450012  57.6724997  19.3699988 140.4009510  57.1103611  19.9300741
 133.8780012  51.6334997  19.4769988 134.7920012  51.7124997  19.7509988
 133.8850012  50.9464997  18.8109988 134.0041131  51.5513961  19.4244393
 132.5270012  57.0264997  24.5549988 131.8800012  56.5644997  24.0219988
 132.8810012  56.3544997  25.1369988 132.4863849  56.8724723  24.5607959
 133.3970012  55.1074997  26.3589988 133.0620012  54.2274997  26.5309988
 133.6190012  55.4524997  27.2239988 133.3811783  55.0337500  26.4994208
 133.4770012  48.1824997  28.8109988 133.6610012  48.1004997  27.8749988
 134.3260012  48.0584997  29.2349988 133.6170139  48.1545003  28.7401455
 133.0740012  43.4534997  34.9519988 133.9940012  43.3314997  35.1879988
 132.6250012  42.7034997  35.3409988 133.1391580  43.3353727  35.0369006
 134.2950012  41.7654997  27.8429988 134.7410012  40.9734997  28.1449988
 134.7620012  42.4814997  28.2739988 134.4190172  41.7540624  27.9424820
 132.5990012  44.7644997  28.9119988 133.0910012  44.5434997  28.1209988
 132.9620012  45.6054997  29.1929988 132.7153126  44.8478357  28.8417531
 132.9130012  41.0224997  22.9659988 131.9880012  41.2314997  22.8369988
 133.3670012  41.5064997  22.2769988 132.8477368  41.1165993  22.8551226
 132.8770012  39.7604997  31.3109988 132.2120012  39.5144997  31.9539988
 132.4340012  40.3824997  30.7329988 132.7260956  39.8108632  31.3209352
 135.0690012  52.9354997  35.4549988 134.2480012  53.1104997  34.9949988
 134.8160012  52.8624997  36.3759988 134.9226164  52.9495622  35.5164923
 138.0230012  53.9104997  31.7139988 137.5980012  54.7194997  31.4309988
 138.9270012  53.9954997  31.4119988 138.0870271  54.0328469  31.6343776
 142.3340012  55.3094997  34.6729988 142.5190012  54.9754997  35.5509988
 143.1800012  55.6184997  34.3509988 142.4737539  55.3056047  34.7495605
 144.6790012  56.5954997  33.9169988 145.3560012  55.9624997  33.6769988
 145.0010012  56.9964997  34.7239988 144.8151637  56.5631154  33.9932793
 135.4250012  57.1664997  31.7609988 134.7040012  57.6064997  31.3099988
 135.0590012  56.9154997  32.6099988 135.2769804  57.1927698  31.8139840
 137.8920012  56.7664997  30.7909988 137.0270012  56.8384997  31.1949988
 137.8370012  57.3134997  30.0069988 137.7662085  56.8502685  30.7403362
 142.6020012  56.6544997  29.9659988 142.1460012  57.1834997  29.3119988
 142.7650012  57.2574997  30.6919988 142.5615585  56.8084468  29.9745062
 134.8390012  55.7894997  28.6709988 134.8210012  55.3644997  29.5289988
 135.6440012  55.4714997  28.2629988 134.9453875  55.6883812  28.7331655
 136.9810012  54.4994997  27.3259988 136.7620012  53.5834997  27.4959988
 137.8050012  54.6394997  27.7919988 137.0624420  54.3930520  27.4122774
 139.5180012  54.9694997  28.1749988 139.7310012  54.0814997  27.8879988
 139.5820012  54.9354997  29.1289988 139.5558231  54.8433102  28.2647397
 143.0260012  40.6334997  27.3189988 142.3520012  40.0044997  27.5749988
 143.5900012  40.1494997  26.7159988 143.0099230  40.4818744  27.2725340
 135.3530012  39.2674997  25.1409988 134.5760012  39.0334997  24.6339988
 135.8830012  38.4704997  25.1499988 135.3182330  39.1276988  25.0727742
 134.1890012  39.0654997  20.9449988 134.6280012  39.6764997  20.3529988
 133.5560012  39.6034997  21.4189988 134.1634514  39.2219257  20.9280930
 139.9320012  39.1944997  24.9549988 140.8070012  39.5824997  24.9249988
 139.7960012  38.9794997  25.8769988 140.0333695  39.2185184  25.0756440
 134.0900012  55.0134997  21.8429988 133.4050012  54.9754997  21.1749988
 134.0940012  55.9264997  22.1309988 133.9968193  55.1317016  21.7905284
 136.0500012  40.9814997  19.3869988 136.5420012  40.3514997  18.8599988
 136.6740012  41.2774997  20.0509988 136.2015446  40.9353199  19.4045980
 141.0760012  41.2744997  21.8439988 141.2540012  40.6284997  22.5269988
 141.0230012  42.1084997  22.3119988 141.0931829  41.2987985  22.0005940
 142.9550012  56.2234997  20.2399988 143.8210012  56.5894997  20.0619988
 142.7080012  55.7834997  19.4259988 143.0402392  56.2141756  20.1056289
 135.3110012  39.7814997  34.6589988 134.9450012  39.0164997  35.1019988
 136.2240012  39.8104997  34.9459988 135.3842790  39.6807224  34.7584070
 137.2840012  39.1324997  36.1949988 138.1820012  38.8584997  36.0099988
 136.8970012  38.3894997  36.6589988 137.3546612  38.9945914  36.2323643
 135.9080012  55.9334997  18.8679988 135.6410012  56.2204997  19.7409988
 136.6800012  55.3874997  19.0199988 135.9757488  55.8990294  19.0081050
  12.4390012  67.2794997  25.0999988  12.5280012  68.2234997  24.9679988
  11.8010012  67.0044997  24.4419988  12.3649081  67.3714830  24.9929614
  11.3720012  66.5344997  28.5189988  11.3340012  65.8884997  29.2239988
  11.0500012  66.0684997  27.7479988  11.3232333  66.3829408  28.5112978
   3.7410012  66.1494997  30.1119988   3.7820012  65.5234997  30.8349988
   4.4440012  66.7734997  30.2939988   3.8416363  66.1481196  30.2356044
  15.0780012  69.4734997  26.8199988  14.6380012  68.7534997  27.2709988
  15.0650012  70.1944997  27.4499988  15.0160226  69.4723731  26.9668494
   4.6640012  70.5994997  28.6469988   4.2950012  69.7974997  28.2769988
   5.6050012  70.4304997  28.6929988   4.7407289  70.4670153  28.6026316
   1.2740012  64.2594997  24.0399988   0.8270012  65.1054997  24.0209988
   0.7130012  63.6794997  23.5239988   1.1369900  64.2969916  23.9676801
   1.9850012  66.4214997  26.1659988   2.1980012  65.6514997  26.6929988
   2.7230012  66.5104997  25.5619988   2.1138496  66.3281394  26.1565300
  12.1900012  74.5784997  27.0329988  12.8100012  73.9014997  26.7589988
  11.9820012  74.3604997  27.9409988  12.2466904  74.4563870  27.1183365
   9.7620012  68.9674997  28.9249988  10.0660012  68.2814997  28.3299988
  10.4830012  69.0854997  29.5429988   9.9010671  68.8896305  28.9271816
  18.4250012  60.5684997  29.7859988  18.4740012  61.1784997  30.5219988
  18.8500012  61.0294997  29.0629988  18.4891824  60.7143741  29.7890205
  12.9030012  63.3614997  29.2529988  13.0450012  62.4154997  29.2729988
  12.7960012  63.5684997  28.3239988  12.9079864  63.2599534  29.1302339
   6.0570012  61.4624997  26.5249988   6.1010012  62.3224997  26.1069988
   5.6000012  60.9104997  25.8909988   6.0012185  61.5055799  26.3820299
  13.7800012  61.5934997  24.9259988  14.4260012  61.2644997  25.5509988
  14.2900012  62.1114997  24.3029988  13.9374264  61.6184611  24.9273862
   2.6780012  63.8594997  27.2869988   3.3310012  63.3094997  27.7189988
   2.7020012  63.5854997  26.3699988   2.7706683  63.7471466  27.2222123
   7.8340012  65.4094997  26.5019988   8.4500012  64.8834997  27.0119988
   7.2480012  64.7694997  26.0989988   7.8390810  65.2509208  26.5173173
  18.8160012  62.0464997  32.0219988  18.1280012  62.7044997  31.9259988
  18.8320012  61.8494997  32.9579988  18.7238525  62.1100462  32.1354808
   4.8680012  60.3804997  30.5989988   4.6490012  60.9104997  29.8329988
   4.2000012  60.6074997  31.2459988   4.7477600  60.4836906  30.5816379
  12.2370012  69.8804997  24.1429988  11.9410012  69.5584997  23.2919988
  11.9120012  70.7804997  24.1839988  12.1526371  69.9580215  24.0321801
   7.4370012  68.0564997  30.8859988   6.6970012  68.6544997  30.9899988
   8.1510012  68.6104997  30.5709988   7.4322237  68.2132831  30.8576465
  15.5440012  60.8844997  26.9059988  15.3280012  60.1184997  27.4389988
  16.1990012  61.3564997  27.4189988  15.6030632  60.8435889  27.0482861
   4.4610012  62.2724997  28.5509988   5.0750012  62.9054997  28.9249988
   4.9730012  61.8004997  27.8949988   4.6142296  62.2952370  28.5134252
   5.8440012  70.0204997  31.6739988   5.8390012  70.9004997  31.2959988
   4.9910012  69.9374997  32.0989988   5.7279464  70.1296117  31.6797907
   1.9650012  69.6914997  22.4559988   1.6930012  69.9204997  21.5669988
   2.0110012  70.5294997  22.9159988   1.9340094  69.8361213  22.3965697
  15.5900012  71.3134997  29.1679988  14.6490012  71.3714997  29.3299988
  15.8670012  72.2194997  29.0309988  15.4984679  71.4439443  29.1716815
  15.8910012  59.5994997  30.5859988  15.1550012  60.2104997  30.5479988
  16.5740012  60.0144997  30.0589988  15.8826541  59.7391374  30.5095832
   8.8940012  57.6864997  28.0519988   8.7770012  56.7374997  27.9969988
   8.0390012  58.0184997  28.3249988   8.7623733  57.6015409  28.0813897
  13.8420012  73.0944997  25.7939988  14.2680012  72.3874997  25.3089988
  14.1590012  73.8954997  25.3769988  13.9431019  73.1060994  25.6713130
  15.0020012  70.9954997  24.3019988  14.7440012  70.3054997  23.6909988
  15.0730012  70.5524997  25.1479988  14.9762856  70.8412124  24.3326885
  16.6880012  69.5614997  32.7799988  16.8280012  68.9704997  32.0399988
  16.8550012  70.4344997  32.4229988  16.7296778  69.5986426  32.6306965
  11.1610012  66.5234997  22.5519988  10.4490012  67.0584997  22.1999988
  11.8520012  66.5794997  21.8919988  11.1570132  66.6042543  22.4146289
  11.2140012  64.9814997  19.5909988  11.9150012  65.0034997  20.2419988
  11.5170012  64.3534997  18.9349988  11.3507830  64.8996566  19.5913711
  18.5300012  65.9014997  30.8459988  17.8770012  66.5964997  30.9349988
  18.9950012  66.1114997  30.0359988  18.5035390  66.0249425  30.7486883
  14.5660012  66.7334997  23.5039988  13.8340012  66.9614997  24.0769988
  15.0140012  66.0194997  23.9589988  14.5263095  66.6682571  23.6439119
  14.4640012  64.9074997  32.5709988  14.5440012  65.6704997  33.1429988
  13.8620012  65.1864997  31.8809988  14.3935756  65.0497134  32.5560589
   6.2120012  67.3634997  25.3859988   5.8810012  66.9934997  24.5679988
   6.8000012  66.6934997  25.7329988   6.2461873  67.2221156  25.3208102
   7.5780012  70.7914997  28.0679988   7.4840012  70.2134997  27.3109988
   8.3080012  70.4204997  28.5639988   7.6637981  70.6622390  28.0314165
   6.5780012  66.1324997  29.0199988   7.1440012  66.2534997  28.2569988
   6.8970012  66.7694997  29.6589988   6.6985786  66.2351884  29.0020040
  12.8870012  71.6354997  29.7539988  12.6470012  72.2974997  30.4019988
  12.6890012  70.8014997  30.1789988  12.8273808  71.6133134  29.9001524
   7.4580012  70.5314997  33.7369988   7.1470012  71.3134997  34.1919988
   6.8080012  70.3784997  33.0509988   7.3275558  70.6179105  33.7065871
  13.4370012  65.8954997  21.1889988  14.0170012  66.0454997  21.9359988
  13.8510012  66.3664997  20.4659988  13.5722831  65.9796841  21.1934134
   4.3780012  66.7294997  32.9659988   4.4490012  67.3804997  33.6639988
   3.4880012  66.8324997  32.6309988   4.2673117  66.8325936  33.0162700
  11.1640012  72.6324997  24.6239988  11.6380012  72.9274997  25.4019988
  10.6010012  73.3704997  24.3909988  11.1527653  72.7726932  24.6990136
   5.6980012  72.6034997  34.4999988   5.7050012  72.4674997  33.5529988
   4.7820012  72.4854997  34.7519988   5.5751714  72.5689430  34.4044666
  17.1360012  57.6454997  21.0019988  16.2360012  57.7844997  21.2969988
  17.3880012  58.4764997  20.5999988  17.0468702  57.7769074  20.9880205
   5.2020012  66.4334997  22.9759988   4.9100012  67.2014997  22.4849988
   4.5280012  65.7734997  22.8129988   5.0709081  66.4494406  22.8867340
  18.3250012  72.0114997  19.3779988  18.3990012  72.9504997  19.5489988
  19.2310012  71.7064997  19.3219988  18.4575100  72.0986722  19.3938119
   1.2950012  68.7964997  31.7909988   0.7940012  68.7684997  30.9759988
   1.3000012  67.8904997  32.0999988   1.2271526  68.6702278  31.7212872
   1.0450012  71.5764997  28.6749988   1.9910012  71.4324997  28.6559988
   0.9330012  72.3604997  29.2119988   1.1592727  71.6628046  28.7450072
  19.2430012  72.2424997  34.3569988  19.1940012  71.2874997  34.3199988
  18.4160012  72.5104997  34.7579988  19.1244940  72.1478998  34.4061375
  10.2220012  71.8164997  33.2329988  10.3090012  72.6424997  33.7079988
   9.3580012  71.4864997  33.4819988  10.1171964  71.8849878  33.3316549
  10.6360012  75.5884997  23.0389988  10.5610012  75.4674997  22.0929988
  10.6690012  76.5384997  23.1579988  10.6301848  75.7002500  22.9254834
   4.2890012  74.3774997  24.8199988   4.4420012  74.0294997  25.6989988
   3.4390012  74.0214997  24.5649988   4.1948962  74.2816650  24.9058340
  13.7380012  74.7424997  20.0409988  14.1130012  73.9984997  19.5709988
  13.7420012  74.4724997  20.9599988  13.7898915  74.6041486  20.1007824
  13.4070012  74.6684997  22.7909988  12.4710012  74.7684997  22.9689988
  13.6870012  73.9594997  23.3689988  13.3168255  74.5862711  22.8935391
  16.3950012  63.7354997  34.8369988  15.9880012  64.2164997  34.1159988
  16.4360012  62.8304997  34.5289988  16.3448437  63.6789374  34.6966683
   3.5440012  70.1194997  32.8339988   3.7600012  69.7584997  33.6929988
   2.6890012  69.7454997  32.6239988   3.4579292  70.0194111  32.9233386
   6.1630012  58.5894997  28.8289988   5.3010012  58.5024997  28.4219988
   6.1400012  59.4454997  29.2569988   6.0420330  58.6932765  28.8311863
  10.8260012  58.3114997  32.2039988  11.2460012  57.8964997  32.9569988
   9.8930012  58.1334997  32.3209988  10.7573644  58.2305900  32.3229539
  14.1520012  62.0674997  33.0569988  13.6380012  61.9414997  33.8549988
  13.9970012  62.9794997  32.8129988  14.0606852  62.1736132  33.1332158
  14.9150012  66.9284997  18.8189988  14.9570012  66.7054997  17.8889988
  15.7640012  67.3274997  19.0089988  15.0355396  66.9519155  18.7173627
  10.4870012  60.8044997  19.4889988  10.2340012  60.8234997  20.4119988
  10.2310012  59.9324997  19.1879988  10.4177790  60.6892437  19.5746263
   6.2540012  63.5554997  29.9239988   5.6120012  63.5144997  30.6329988
   6.2910012  64.4814997  29.6869988   6.1711324  63.6751559  29.9889824
   6.2510012  63.7764997  24.8359988   5.3580012  63.4354997  24.7779988
   6.7010012  63.3994997  24.0809988   6.1897305  63.6788484  24.7259177
  11.7860012  64.1924997  23.6529988  11.3770012  65.0074997  23.3619988
  12.5070012  64.0524997  23.0389988  11.8274537  64.2852018  23.5301342
  10.8880012  64.3674997  35.1409988  10.3260012  63.6634997  35.4619988
  11.7150012  64.2474997  35.6089988  10.9227095  64.2547883  35.2482330
  12.7910012  63.6384997  26.4669988  12.5960012  64.2434997  25.7519988
  12.9720012  62.8044997  26.0329988  12.7887614  63.6086300  26.3104405
   4.0040012  63.8754997  31.7909988   3.9660012  64.2754997  32.6599988
   3.5130012  63.0584997  31.8819988   3.9324684  63.8198069  31.9221059
   7.3700012  61.2494997  18.5899988   6.9390012  60.8044997  19.3199988
   6.6520012  61.6214997  18.0779988   7.2139438  61.2388940  18.6206799
   0.6120012  60.9914997  25.6419988   1.2430012  60.9624997  26.3609988
   1.0610012  60.5664997  24.9119988   0.7590774  60.9300492  25.6416553
   1.8860012  61.7374997  21.0659988   2.3600012  62.3284997  20.4809988
   1.1690012  62.2684997  21.4129988   1.8539341  61.8900867  21.0328836
  12.0550012  65.2764997  31.1389988  12.3780012  64.6454997  30.4959988
  11.6150012  64.7414997  31.7989988  12.0396895  65.1178441  31.1402850
   8.8320012  61.2034997  25.9229988   7.9210012  61.2604997  26.2109988
   9.3380012  61.1434997  26.7329988   8.7755413  61.2031985  26.0720622
   3.6610012  62.8324997  24.7489988   2.7710012  62.9324997  24.4089988
   3.9570012  61.9904997  24.4029988   3.5792823  62.7323545  24.6557213
   7.3140012  62.8324997  22.4059988   8.2450012  62.9614997  22.5839988
   7.0990012  63.5024997  21.7559988   7.4124247  62.9406565  22.3425747
  13.2370012  60.4384997  29.1869988  12.5610012  60.5694997  29.8509988
  12.7520012  60.2834997  28.3769988  13.0787145  60.4354905  29.1684517
   5.9880012  64.0274997  19.9729988   5.4450012  63.6474997  19.2809988
   6.8210012  64.2214997  19.5439988   6.0264399  64.0018124  19.8204526
  16.5250012  76.1104997  35.4639988  16.7250012  76.5344997  34.6289988
  17.1800012  76.4534997  36.0709988  16.6410051  76.2149648  35.4317836
   4.1230012  68.5844997  35.0719988   4.8550012  68.8384997  35.6329988
   3.3430012  68.7884997  35.5869988   4.1178232  68.6469177  35.2185760
  10.1520012  63.9914997  27.8099988  10.7170012  63.4444997  27.2629988
  10.0050012  63.4694997  28.5979988  10.2092918  63.8462024  27.8418454
   5.1540012  60.1274997  24.2279988   4.8370012  59.2254997  24.1929988
   5.9360012  60.1294997  23.6749988   5.2162284  60.0041628  24.1484783
   8.7790012  62.3794997  30.2239988   7.9430012  62.8334997  30.3339988
   9.3030012  62.6554997  30.9759988   8.7354414  62.4789376  30.3407136
   9.3230012  68.5924997  21.9079988   8.5780012  68.0854997  21.5859988
   9.1890012  68.6414997  22.8549988   9.2028776  68.5296940  21.9918647
  16.4730012  67.7254997  30.6949988  17.1150012  68.1824997  30.1509988
  15.6430012  67.8384997  30.2319988  16.4485963  67.8032704  30.5580177
  13.2210012  61.4064997  20.1079988  12.2820012  61.5184997  19.9559988
  13.5180012  62.2634997  20.4139988  13.1327666  61.5376443  20.1285768
  10.8420012  68.7764997  33.1449988  10.4970012  68.3954997  33.9519988
  10.6420012  69.7104997  33.2169988  10.7678061  68.8505228  33.2650961
  13.9390012  63.2734997  21.7679988  14.8310012  63.1364997  22.0869988
  13.9960012  64.0644997  21.2319988  14.0686285  63.3616660  21.7391691
   4.4480012  67.8874997  27.6779988   5.1930012  67.8854997  27.0769988
   4.5260012  67.0644997  28.1599988   4.5605518  67.7759315  27.6608929
  11.4490012  70.0514997  20.9339988  11.1530012  70.8774997  21.3149988
  10.7460012  69.4314997  21.1299988  11.3134914  70.0808199  21.0126443
   1.4560012  66.3484997  32.9929988   1.6790012  65.9304997  33.8249988
   0.8540012  65.7354997  32.5699988   1.4051759  66.2084668  33.0497022
   8.4720012  65.8654997  35.2059988   8.1760012  65.6994997  34.3109988
   9.4040012  65.6454997  35.1949988   8.5574166  65.8130640  35.0820536
  13.0930012  71.2384997  33.0959988  12.1920012  71.4214997  32.8279988
  13.1270012  71.4974997  34.0169988  12.9743041  71.2985512  33.1838197
  18.8240012  63.4834997  21.4629988  18.2700012  63.0874997  20.7909988
  18.9240012  64.3934997  21.1849988  18.7617059  63.5523586  21.3334401
  18.7870012  69.2834997  34.2999988  17.9360012  69.5214997  33.9329988
  19.3780012  69.2664997  33.5469988  18.7502487  69.3138258  34.1478893
  17.1190012  72.2694997  21.9279988  16.7460012  71.4434997  22.2369988
  17.3970012  72.0864997  21.0309988  17.1055630  72.1317303  21.8489626
  14.2800012  67.0774997  28.9489988  13.3510012  66.8454997  28.9219988
  14.7310012  66.3004997  28.6189988  14.2139216  66.9407238  28.9006917
   6.8230012  71.4054997  25.0819988   7.3500012  72.1784997  24.8819988
   5.9430012  71.6304997  24.7809988   6.7761773  71.5418005  25.0139010
   2.5780012  66.2674997  19.6689988   3.1940012  66.8944997  20.0489988
   1.7160012  66.5834997  19.9409988   2.5457698  66.3959430  19.7577183
   8.2500012  69.0684997  24.6589988   8.0090012  69.9934997  24.6999988
   7.5090012  68.6094997  25.0549988   8.1168409  69.1331421  24.7181377
   8.7650012  73.2174997  30.9739988   9.1270012  74.0724997  30.7399988
   9.2960012  72.9254997  31.7139988   8.8864473  73.2951060  31.0420855
   6.9330012  74.0904997  24.2039988   5.9830012  74.1954997  24.2549988
   7.2850012  74.9104997  24.5489988   6.8504203  74.2158314  24.2576650
  12.3090012  69.3164997  30.6739988  11.8830012  69.0894997  31.5009988
  12.8890012  68.5784997  30.4919988  12.3291868  69.1855299  30.7625830
  14.5120012  70.2454997  19.7479988  14.8650012  69.8654997  20.5529988
  13.5630012  70.1524997  19.8349988  14.4320441  70.1809596  19.8698559
  14.9670012  73.8684997  33.1439988  14.3660012  73.3134997  32.6479988
  15.2490012  74.5354997  32.5179988  14.9228519  73.8826841  32.9914952
  19.0150012  74.7254997  19.9489988  19.7590012  75.3114997  19.8089988
  18.3210012  75.2934997  20.2829988  19.0230292  74.8825582  19.9749961
   3.0900012  61.1014997  32.5509988   2.1970012  61.4404997  32.4829988
   2.9910012  60.2464997  32.9689988   2.9544164  61.0322588  32.5982235
  15.3780012  68.9184997  21.9749988  15.1000012  68.1904997  22.5309988
  16.3050012  69.0374997  22.1799988  15.4653124  68.8348802  22.0788845
   2.7410012  72.9064997  30.9859988   2.9580012  71.9744997  30.9549988
   2.9870012  73.1804997  31.8689988   2.8039549  72.8160636  31.1011763
   8.6030012  71.3574997  18.1949988   8.8420012  70.6094997  17.6479988
   8.3340012  70.9694997  19.0279988   8.5993675  71.2026638  18.2326865
   7.5400012  70.9274997  20.6519988   7.6860012  70.4074997  21.4419988
   7.5370012  71.8344997  20.9579988   7.5595989  70.9788853  20.8016088
   3.9930012  68.1804997  21.1619988   3.3070012  68.5324997  21.7289988
   4.5150012  68.9434997  20.9149988   3.9696852  68.3318578  21.2062118
  11.8240012  60.8424997  31.4409988  12.5230012  60.9164997  32.0909988
  11.4430012  59.9784997  31.5949988  11.8681767  60.7357624  31.5508322
  12.6090012  60.4944997  22.5379988  12.8290012  60.9664997  21.7349988
  13.1670012  60.8894997  23.2079988  12.7144968  60.6124285  22.5187331
  10.2770012  72.6254997  21.4009988   9.4610012  73.1224997  21.4529988
  10.8070012  73.1004997  20.7609988  10.2369161  72.7577722  21.3215956
   9.8090012  62.2224997  23.3729988  10.6210012  62.7274997  23.4189988
   9.5640012  62.0774997  24.2869988   9.8870520  62.2720375  23.5028517
  10.3440012  63.2084997  32.5579988  10.4630012  63.7824997  33.3149988
  11.0000012  62.5204997  32.6719988  10.4489757  63.1941079  32.6770825
  10.6920012  59.3034997  24.3109988  10.3460012  59.9214997  24.9559988
  11.3510012  59.8044997  23.8299988  10.7337826  59.4555802  24.3340971
   7.6160012  73.6694997  21.3829988   7.7760012  74.4684997  20.8819988
   7.4180012  73.9754997  22.2679988   7.6111649  73.8204469  21.4339815
   6.3500012  60.3664997  20.9979988   6.2670012  61.2554997  21.3449988
   7.2400012  60.1014997  21.2299988   6.4589469  60.4521430  21.0767626
  16.5490012  61.1154997  33.3929988  15.6320012  61.3784997  33.3049988
  16.8840012  61.1124997  32.4959988  16.4689900  61.1510224  33.2597919
  15.1510012  64.8664997  27.4879988  14.3530012  64.4514997  27.1599988
  15.5960012  64.1754997  27.9789988  15.1019885  64.7163543  27.5094889
   4.6090012  70.7944997  20.0589988   5.2010012  71.4934997  20.3349988
   5.0680012  70.3614997  19.3389988   4.7521142  70.8317049  19.9994830
   2.9250012  63.4584997  19.1749988   2.8800012  64.3974997  19.3529988
   2.0370012  63.2224997  18.9049988   2.7988574  63.5551892  19.1628912
  16.2370012  74.1224997  29.1109988  16.0820012  74.8004997  28.4539988
  17.1700012  74.1944997  29.3139988  16.3418500  74.2250170  29.0485119
   3.7330012  58.2404997  27.8479988   3.5040012  58.2994997  26.9199988
   3.2900012  57.4484997  28.1539988   3.6418530  58.1415753  27.7624786
   2.6630012  72.1804997  24.0079988   1.8310012  72.6534997  24.0359988
   3.2090012  72.6904997  23.4099988   2.6229739  72.3141871  23.9309716
   1.9510012  74.7934997  35.3379988   2.4920012  74.5764997  36.0979988
   1.4700012  73.9874997  35.1489988   1.9599345  74.6549514  35.4163076
   6.5490012  73.7124997  36.9589988   7.3160012  73.2534997  37.2999988
   6.5270012  73.4864997  36.0289988   6.6511434  73.6190409  36.8800043
  10.6410012  73.2204997  18.3339988   9.9970012  72.5894997  18.6549988
  11.4030012  72.6894997  18.1019988  10.6558077  73.0622920  18.3466011
  13.1260012  72.0924997  35.6879988  12.7750012  71.2364997  35.9309988
  13.8520012  72.2354997  36.2949988  13.1760769  71.9945636  35.8033619
  15.2450012  73.0374997  18.5679988  15.5280012  72.2434997  19.0199988
  15.9850012  73.2704997  18.0069988  15.3837486  72.9602803  18.5540698
   1.8580012  68.6034997  36.2929988   2.0020012  67.7014997  36.0059988
   1.0860012  68.8894997  35.8049988   1.7733322  68.5188261  36.1877881
   6.2000012  68.9474997  18.4249988   6.2640012  68.1534997  18.9559988
   6.8530012  68.8284997  17.7349988   6.2970241  68.8227148  18.4044317
   8.5140012  68.5734997  35.7249988   8.1850012  68.8444997  34.8679988
   8.6660012  67.6324997  35.6379988   8.4894809  68.4833862  35.5958244
  11.5520012  69.9944997  18.1609988  11.2830012  70.1744997  19.0619988
  11.3460012  69.0684997  18.0299988  11.4873825  69.8940152  18.2665214
  14.2480012  68.4894997  33.1089988  14.9940012  69.0774997  32.9889988
  13.4910012  69.0714997  33.1719988  14.2477554  68.6487011  33.1010907
   2.6910012  65.8034997  35.7129988   3.0990012  64.9464997  35.5919988
   2.4310012  65.8184997  36.6339988   2.7117568  65.6880807  35.8209588
   7.3490012  66.9194997  20.7309988   6.8890012  66.4354997  21.4169988
   7.6040012  66.2514997  20.0949988   7.3204902  66.7628731  20.7389334
   6.6380012  64.8124997  33.0869988   6.0200012  65.4874997  33.3669988
   6.9820012  65.1334997  32.2539988   6.5999615  64.9482721  33.0126581
   8.4200012  65.1624997  18.9929988   8.2400012  65.0084997  18.0659988
   9.3700012  65.2704997  19.0379988   8.5237776  65.1560175  18.8721843
  11.6580012  67.2844997  36.3639988  12.6110012  67.3674997  36.3369988
  11.4970012  66.5724997  36.9839988  11.7666426  67.1996746  36.4440579
  17.8100012  67.5174997  18.4389988  17.5360012  67.0924997  17.6259988
  17.8490012  68.4484997  18.2219988  17.7777699  67.5852484  18.2983610
   6.9770012  62.1674997  34.1689988   7.1270012  61.4384997  33.5669988
   6.9800012  62.9444997  33.6099988   6.9979302  62.1727851  34.0110692
   7.3900012  60.5374997  31.6619988   7.9260012  60.9884997  31.0099988
   6.5380012  60.4294997  31.2389988   7.3482178  60.5846390  31.5155756
   8.9720012  65.9764997  31.9009988   9.7220012  65.8204997  31.3279988
   8.6330012  66.8284997  31.6259988   9.0288921  66.0702968  31.7853561
  13.3870012  63.7914997  36.9299988  13.5800012  62.8604997  36.8179988
  14.2450012  64.2164997  36.9199988  13.5293020  63.7216389  36.9133361
  14.7040012  66.5804997  35.0069988  14.4230012  67.2894997  34.4299988
  15.6470012  66.5074997  34.8559988  14.7929027  66.6677646  34.9075551
   5.4560012  63.3654997  36.0809988   4.6890012  62.8334997  35.8709988
   6.1350012  63.0554997  35.4809988   5.4427022  63.2507506  35.9711648
   8.1960012  57.9934997  32.0929988   8.0970012  58.9404997  31.9879988
   7.4530012  57.6214997  31.6179988   8.0820564  58.0725902  32.0144560
   9.4600012  62.3154997  35.6569988   9.2240012  62.0954997  36.5589988
   8.6760012  62.1084997  35.1469988   9.3218628  62.2574760  35.7113932
  12.1750012  61.4424997  34.7329988  11.2280012  61.4744997  34.8649988
  12.4880012  60.8174997  35.3859988  12.0875475  61.3623207  34.8394455
  13.8090012  60.0764997  36.7379988  13.7130012  59.1244997  36.7319988
  13.4880012  60.3454997  37.5979988  13.7524070  59.9824035  36.8535441
   3.6360012  61.2864997  35.7849988   3.8480012  60.5794997  35.1749988
   3.5250012  60.8484997  36.6289988   3.6499721  61.1307084  35.8156843
   8.4170012  57.2874997  34.7649988   9.1290012  56.6474997  34.7509988
   8.3160012  57.5544997  33.8509988   8.5007939  57.2359938  34.6395650
   8.7710012  58.9704997  36.8179988   8.6390012  58.4944997  35.9979988
   8.1720012  59.7144997  36.7629988   8.6719071  59.0059618  36.6982886
   8.3170012  75.8534997  19.9949988   9.2500012  76.0114997  20.1379988
   8.0530012  76.5284997  19.3699988   8.4089510  75.9663611  19.9300741
   1.8860012  70.4894997  19.4769988   2.8000012  70.5684997  19.7509988
   1.8930012  69.8024997  18.8109988   2.0121131  70.4073961  19.4244393
   0.5350012  75.8824997  24.5549988  -0.1119988  75.4204997  24.0219988
   0.8890012  75.2104997  25.1369988   0.4943849  75.7284723  24.5607959
   1.4050012  73.9634997  26.3589988   1.0700012  73.0834997  26.5309988
   1.6270012  74.3084997  27.2239988   1.3891783  73.8897501  26.4994208
  18.9530012  74.7724997  29.3399988  18.9320012  74.9574997  30.2789988
  19.6440012  75.3414997  28.9989988  19.0434618  74.8746606  29.4223864
  18.5170012  74.3404997  32.2619988  18.0290012  73.6044997  31.8909988
  19.0660012  73.9464997  32.9399988  18.5244872  74.1866249  32.3029160
  16.9670012  70.1294997  36.8999988  16.1010012  70.0244997  37.2939988
  17.3440012  70.8884997  37.3459988  16.8993308  70.2176900  37.0142393
  18.2680012  68.3864997  22.4139988  19.1180012  68.8074997  22.5409988
  18.2740012  67.6464997  23.0209988  18.3851372  68.3440803  22.5134344
  18.6630012  66.4394997  24.2379988  17.9360012  65.9604997  24.6349988
  19.2440012  66.6454997  24.9699988  18.6419375  66.4017090  24.3914129
  18.4220012  69.2244997  29.1849988  19.2550012  68.8464997  28.9049988
  18.5340012  70.1674997  29.0659988  18.5512647  69.3002218  29.1305487
  16.9080012  72.1024997  31.4919988  16.2610012  72.4274997  32.1179988
  16.3910012  71.6624997  30.8179988  16.7494029  72.0875004  31.4865827
  18.9310012  66.3404997  20.6289988  18.4090012  66.6974997  19.9099988
  18.8980012  67.0154997  21.3069988  18.8551634  66.4805413  20.6223145
  17.2800012  63.5804997  19.1799988  17.3760012  64.2474997  18.4989988
  17.1400012  62.7644997  18.6979988  17.2742135  63.5614500  19.0218491
  16.4490012  64.9604997  24.8009988  16.2990012  64.0154997  24.7799988
  16.0960012  65.2414997  25.6439988  16.3806625  64.8690441  24.9122346
   1.4850012  67.0384997  28.8109988   1.6690012  66.9564997  27.8749988
   2.3340012  66.9144997  29.2349988   1.6250139  67.0105003  28.7401455
  17.3060012  66.9304997  34.4389988  17.8890012  66.1964997  34.6309988
  17.8700012  67.7024997  34.4859988  17.4619769  66.9344227  34.4716159
  18.8020012  64.8334997  35.1239988  17.9390012  64.4544997  34.9579988
  19.4070012  64.0944997  35.0499988  18.7655979  64.6818023  35.0912817
  16.5270012  60.9884997  18.2969988  17.1380012  60.6174997  18.9339988
  15.6910012  60.5674997  18.4929988  16.4975032  60.8807554  18.4107035
  16.1600012  62.5434997  23.2629988  16.4400012  61.6364997  23.3869988
  16.9190012  62.9774997  22.8739988  16.3009277  62.4780942  23.2273682
  16.7720012  63.1244997  28.6989988  17.7050012  63.3364997  28.6649988
  16.5370012  63.2264997  29.6209988  16.8678036  63.1672769  28.8189976
  16.8010012  63.8614997  31.4749988  15.9580012  64.1294997  31.8409988
  17.2430012  64.6834997  31.2639988  16.7454158  64.0093291  31.4965491
   1.0820012  62.3094997  34.9519988   2.0020012  62.1874997  35.1879988
   0.6330012  61.5594997  35.3409988   1.1471580  62.1913727  35.0369006
  19.0840012  57.8414997  36.8279988  19.4340012  57.1874997  36.2229988
  19.2310012  58.6784997  36.3889988  19.1518419  57.8651591  36.6857118
  16.7730012  59.8064997  23.3109988  16.9560012  59.3574997  24.1369988
  16.1740012  59.2214997  22.8479988  16.7170202  59.6659975  23.3613275
   2.3030012  60.6214997  27.8429988   2.7490012  59.8294997  28.1449988
   2.7700012  61.3374997  28.2739988   2.4270172  60.6100624  27.9424820
   0.6070012  63.6204997  28.9119988   1.0990012  63.3994997  28.1209988
   0.9700012  64.4614997  29.1929988   0.7233126  63.7038357  28.8417531
  18.6040012  59.9504997  35.1779988  17.6860012  60.2214997  35.1419988
  18.7270012  59.4154997  34.3929988  18.4951066  59.9152892  35.0670487
  18.6400012  59.8734997  19.8389988  19.0520012  59.1524997  19.3639988
  19.3220012  60.5434997  19.8979988  18.7885885  59.8652368  19.7818915
   0.9210012  59.8784997  22.9659988  -0.0039988  60.0874997  22.8369988
   1.3750012  60.3624997  22.2769988   0.8557368  59.9725993  22.8551226
  15.6920012  74.8624997  24.9119988  16.3440012  74.5154997  24.3039988
  16.2020012  75.3514997  25.5579988  15.8502637  74.8810597  24.9160236
   0.8850012  58.6164997  31.3109988   0.2200012  58.3704997  31.9539988
   0.4420012  59.2384997  30.7329988   0.7340956  58.6668632  31.3209352
   3.0770012  71.7914997  35.4549988   2.2560012  71.9664997  34.9949988
   2.8240012  71.7184997  36.3759988   2.9306164  71.8055622  35.5164923
   6.0310012  72.7664997  31.7139988   5.6060012  73.5754997  31.4309988
   6.9350012  72.8514997  31.4119988   6.0950271  72.8888469  31.6343776
  10.3420012  74.1654997  34.6729988  10.5270012  73.8314997  35.5509988
  11.1880012  74.4744997  34.3509988  10.4817539  74.1616047  34.7495605
  12.6870012  75.4514997  33.9169988  13.3640012  74.8184997  33.6769988
  13.0090012  75.8524997  34.7239988  12.8231637  75.4191154  33.9932793
  17.6040012  58.0404997  32.9969988  16.7920012  58.3654997  32.6089988
  17.8370012  57.2804997  32.4639988  17.5243423  57.9822436  32.8718253
   3.4330012  76.0224997  31.7609988   2.7120012  76.4624997  31.3099988
   3.0670012  75.7714997  32.6099988   3.2849804  76.0487698  31.8139840
   5.9000012  75.6224997  30.7909988   5.0350012  75.6944997  31.1949988
   5.8450012  76.1694997  30.0069988   5.7742085  75.7062685  30.7403362
  10.6100012  75.5104997  29.9659988  10.1540012  76.0394997  29.3119988
  10.7730012  76.1134997  30.6919988  10.5695585  75.6644468  29.9745062
  12.9380012  74.3884997  30.9109988  12.0330012  74.5534997  30.6459988
  13.3670012  75.2414997  30.8459988  12.8720799  74.5264483  30.8659182
  15.5420012  75.9584997  31.2059988  15.3600012  76.8744997  30.9959988
  15.7190012  75.5484997  30.3599988  15.5410210  76.0284822  31.0627885
   2.8470012  74.6454997  28.6709988   2.8290012  74.2204997  29.5289988
   3.6520012  74.3274997  28.2629988   2.9533875  74.5443812  28.7331655
   4.9890012  73.3554997  27.3259988   4.7700012  72.4394997  27.4959988
   5.8130012  73.4954997  27.7919988   5.0704420  73.2490520  27.4122774
   7.5260012  73.8254997  28.1749988   7.7390012  72.9374997  27.8879988
   7.5900012  73.7914997  29.1289988   7.5638232  73.6993102  28.2647397
  11.0340012  59.4894997  27.3189988  10.3600012  58.8604997  27.5749988
  11.5980012  59.0054997  26.7159988  11.0179230  59.3378744  27.2725340
  16.1770012  57.5974997  27.4319988  16.7810012  58.1444997  26.9299988
  15.3070012  57.9164997  27.1919988  16.1421241  57.7155806  27.3307654
  17.9040012  58.7354997  25.7649988  18.5160012  58.2214997  25.2389988
  18.2860012  59.6134997  25.7889988  18.0394540  58.7837140  25.6961830
   3.3610012  58.1234997  25.1409988   2.5840012  57.8894997  24.6339988
   3.8910012  57.3264997  25.1499988   3.3262330  57.9836988  25.0727742
   2.1970012  57.9214997  20.9449988   2.6360012  58.5324997  20.3529988
   1.5640012  58.4594997  21.4189988   2.1714514  58.0779257  20.9280930
   7.9400012  58.0504997  24.9549988   8.8150012  58.4384997  24.9249988
   7.8040012  57.8354997  25.8769988   8.0413695  58.0745184  25.0756440
  13.4970012  58.0804997  26.6039988  13.5730012  58.1754997  25.6539988
  13.2220012  57.1724997  26.7329988  13.4702321  57.9707867  26.4915079
  14.8500012  58.1064997  22.2959988  14.1480012  58.7214997  22.0869988
  14.4060012  57.2684997  22.4269988  14.6936330  58.0775783  22.2850328
   2.0980012  73.8694997  21.8429988   1.4130012  73.8314997  21.1749988
   2.1020012  74.7824997  22.1309988   2.0048193  73.9877016  21.7905284
   4.0580012  59.8374997  19.3869988   4.5500012  59.2074997  18.8599988
   4.6820012  60.1334997  20.0509988   4.2095446  59.7913199  19.4045980
   9.0840012  60.1304997  21.8439988   9.2620012  59.4844997  22.5269988
   9.0310012  60.9644997  22.3119988   9.1011829  60.1547985  22.0005940
  10.9630012  75.0794997  20.2399988  11.8290012  75.4454997  20.0619988
  10.7160012  74.6394997  19.4259988  11.0482392  75.0701756  20.1056289
  17.6720012  74.6424997  22.9189988  17.4770012  73.8944997  22.3539988
  17.6330012  75.4004997  22.3359988  17.6400380  74.6426099  22.7628384
   3.3190012  58.6374997  34.6589988   2.9530012  57.8724997  35.1019988
   4.2320012  58.6664997  34.9459988   3.3922790  58.5367224  34.7584070
   5.2920012  57.9884997  36.1949988   6.1900012  57.7144997  36.0099988
   4.9050012  57.2454997  36.6589988   5.3626612  57.8505914  36.2323643
   3.9160012  74.7894997  18.8679988   3.6490012  75.0764997  19.7409988
   4.6880012  74.2434997  19.0199988   3.9837488  74.7550294  19.0081050
  13.7130012  57.3204997  36.3769988  13.7900012  56.8944997  37.2309988
  14.6070012  57.3344997  36.0339988  13.8443428  57.2640879  36.4475310
  16.8890012  73.3934997  35.0689988  16.1070012  73.2074997  34.5499988
  16.8170012  74.3224997  35.2869988  16.7721777  73.4936492  35.0274048
  31.2950012  67.2794997  25.0999988  31.3840012  68.2234997  24.9679988
  30.6570012  67.0044997  24.4419988  31.2209081  67.3714830  24.9929614
  30.2280012  66.5344997  28.5189988  30.1900012  65.8884997  29.2239988
  29.9060012  66.0684997  27.7479988  30.1792333  66.3829408  28.5112978
  22.5970012  66.1494997  30.1119988  22.6380012  65.5234997  30.8349988
  23.3000012  66.7734997  30.2939988  22.6976363  66.1481196  30.2356044
  33.9340012  69.4734997  26.8199988  33.4940012  68.7534997  27.2709988
  33.9210012  70.1944997  27.4499988  33.8720226  69.4723731  26.9668494
  23.5200012  70.5994997  28.6469988  23.1510012  69.7974997  28.2769988
  24.4610012  70.4304997  28.6929988  23.5967289  70.4670153  28.6026316
  20.1300012  64.2594997  24.0399988  19.6830012  65.1054997  24.0209988
  19.5690012  63.6794997  23.5239988  19.9929900  64.2969916  23.9676801
  20.8410012  66.4214997  26.1659988  21.0540012  65.6514997  26.6929988
  21.5790012  66.5104997  25.5619988  20.9698496  66.3281394  26.1565300
  31.0460012  74.5784997  27.0329988  31.6660012  73.9014997  26.7589988
  30.8380012  74.3604997  27.9409988  31.1026904  74.4563870  27.1183365
  28.6180012  68.9674997  28.9249988  28.9220012  68.2814997  28.3299988
  29.3390012  69.0854997  29.5429988  28.7570671  68.8896304  28.9271816
  37.2810012  60.5684997  29.7859988  37.3300012  61.1784997  30.5219988
  37.7060012  61.0294997  29.0629988  37.3451824  60.7143741  29.7890205
  31.7590012  63.3614997  29.2529988  31.9010012  62.4154997  29.2729988
  31.6520012  63.5684997  28.3239988  31.7639864  63.2599534  29.1302339
  24.9130012  61.4624997  26.5249988  24.9570012  62.3224997  26.1069988
  24.4560012  60.9104997  25.8909988  24.8572185  61.5055799  26.3820299
  32.6360012  61.5934997  24.9259988  33.2820012  61.2644997  25.5509988
  33.1460012  62.1114997  24.3029988  32.7934264  61.6184611  24.9273862
  21.5340012  63.8594997  27.2869988  22.1870012  63.3094997  27.7189988
  21.5580012  63.5854997  26.3699988  21.6266683  63.7471466  27.2222123
  26.6900012  65.4094997  26.5019988  27.3060012  64.8834997  27.0119988
  26.1040012  64.7694997  26.0989988  26.6950810  65.2509208  26.5173173
  37.6720012  62.0464997  32.0219988  36.9840012  62.7044997  31.9259988
  37.6880012  61.8494997  32.9579988  37.5798525  62.1100462  32.1354808
  23.7240012  60.3804997  30.5989988  23.5050012  60.9104997  29.8329988
  23.0560012  60.6074997  31.2459988  23.6037600  60.4836906  30.5816379
  31.0930012  69.8804997  24.1429988  30.7970012  69.5584997  23.2919988
  30.7680012  70.7804997  24.1839988  31.0086371  69.9580215  24.0321801
  26.2930012  68.0564997  30.8859988  25.5530012  68.6544997  30.9899988
  27.0070012  68.6104997  30.5709988  26.2882237  68.2132831  30.8576465
  34.4000012  60.8844997  26.9059988  34.1840012  60.1184997  27.4389988
  35.0550012  61.3564997  27.4189988  34.4590632  60.8435889  27.0482861
  23.3170012  62.2724997  28.5509988  23.9310012  62.9054997  28.9249988
  23.8290012  61.8004997  27.8949988  23.4702296  62.2952370  28.5134252
  24.7000012  70.0204997  31.6739988  24.6950012  70.9004997  31.2959988
  23.8470012  69.9374997  32.0989988  24.5839464  70.1296117  31.6797907
  20.8210012  69.6914997  22.4559988  20.5490012  69.9204997  21.5669988
  20.8670012  70.5294997  22.9159988  20.7900094  69.8361213  22.3965697
  34.4460012  71.3134997  29.1679988  33.5050012  71.3714997  29.3299988
  34.7230012  72.2194997  29.0309988  34.3544679  71.4439443  29.1716815
  34.7470012  59.5994997  30.5859988  34.0110012  60.2104997  30.5479988
  35.4300012  60.0144997  30.0589988  34.7386541  59.7391374  30.5095832
  27.7500012  57.6864997  28.0519988  27.6330012  56.7374997  27.9969988
  26.8950012  58.0184997  28.3249988  27.6183733  57.6015409  28.0813897
  32.6980012  73.0944997  25.7939988  33.1240012  72.3874997  25.3089988
  33.0150012  73.8954997  25.3769988  32.7991019  73.1060994  25.6713130
  33.8580012  70.9954997  24.3019988  33.6000012  70.3054997  23.6909988
  33.9290012  70.5524997  25.1479988  33.8322856  70.8412124  24.3326885
  35.5440012  69.5614997  32.7799988  35.6840012  68.9704997  32.0399988
  35.7110012  70.4344997  32.4229988  35.5856778  69.5986426  32.6306965
  30.0170012  66.5234997  22.5519988  29.3050012  67.0584997  22.1999988
  30.7080012  66.5794997  21.8919988  30.0130132  66.6042543  22.4146289
  30.0700012  64.9814997  19.5909988  30.7710012  65.0034997  20.2419988
  30.3730012  64.3534997  18.9349988  30.2067830  64.8996566  19.5913711
  37.3860012  65.9014997  30.8459988  36.7330012  66.5964997  30.9349988
  37.8510012  66.1114997  30.0359988  37.3595390  66.0249425  30.7486883
  33.4220012  66.7334997  23.5039988  32.6900012  66.9614997  24.0769988
  33.8700012  66.0194997  23.9589988  33.3823095  66.6682571  23.6439119
  33.3200012  64.9074997  32.5709988  33.4000012  65.6704997  33.1429988
  32.7180012  65.1864997  31.8809988  33.2495756  65.0497134  32.5560589
  25.0680012  67.3634997  25.3859988  24.7370012  66.9934997  24.5679988
  25.6560012  66.6934997  25.7329988  25.1021873  67.2221156  25.3208102
  26.4340012  70.7914997  28.0679988  26.3400012  70.2134997  27.3109988
  27.1640012  70.4204997  28.5639988  26.5197981  70.6622390  28.0314165
  25.4340012  66.1324997  29.0199988  26.0000012  66.2534997  28.2569988
  25.7530012  66.7694997  29.6589988  25.5545786  66.2351884  29.0020040
  31.7430012  71.6354997  29.7539988  31.5030012  72.2974997  30.4019988
  31.5450012  70.8014997  30.1789988  31.6833808  71.6133134  29.9001524
  26.3140012  70.5314997  33.7369988  26.0030012  71.3134997  34.1919988
  25.6640012  70.3784997  33.0509988  26.1835558  70.6179105  33.7065871
  32.2930012  65.8954997  21.1889988  32.8730012  66.0454997  21.9359988
  32.7070012  66.3664997  20.4659988  32.4282830  65.9796841  21.1934134
  23.2340012  66.7294997  32.9659988  23.3050012  67.3804997  33.6639988
  22.3440012  66.8324997  32.6309988  23.1233117  66.8325936  33.0162700
  30.0200012  72.6324997  24.6239988  30.4940012  72.9274997  25.4019988
  29.4570012  73.3704997  24.3909988  30.0087653  72.7726932  24.6990136
  24.5540012  72.6034997  34.4999988  24.5610012  72.4674997  33.5529988
  23.6380012  72.4854997  34.7519988  24.4311714  72.5689430  34.4044666
  35.9920012  57.6454997  21.0019988  35.0920012  57.7844997  21.2969988
  36.2440012  58.4764997  20.5999988  35.9028702  57.7769074  20.9880205
  24.0580012  66.4334997  22.9759988  23.7660012  67.2014997  22.4849988
  23.3840012  65.7734997  22.8129988  23.9269081  66.4494406  22.8867340
  37.1810012  72.0114997  19.3779988  37.2550012  72.9504997  19.5489988
  38.0870012  71.7064997  19.3219988  37.3135100  72.0986722  19.3938119
  20.1510012  68.7964997  31.7909988  19.6500012  68.7684997  30.9759988
  20.1560012  67.8904997  32.0999988  20.0831526  68.6702278  31.7212872
  19.9010012  71.5764997  28.6749988  20.8470012  71.4324997  28.6559988
  19.7890012  72.3604997  29.2119988  20.0152727  71.6628046  28.7450072
  38.0990012  72.2424997  34.3569988  38.0500012  71.2874997  34.3199988
  37.2720012  72.5104997  34.7579988  37.9804940  72.1478998  34.4061375
  29.0780012  71.8164997  33.2329988  29.1650012  72.6424997  33.7079988
  28.2140012  71.4864997  33.4819988  28.9731964  71.8849878  33.3316549
  29.4920012  75.5884997  23.0389988  29.4170012  75.4674997  22.0929988
  29.5250012  76.5384997  23.1579988  29.4861848  75.7002500  22.9254834
  23.1450012  74.3774997  24.8199988  23.2980012  74.0294997  25.6989988
  22.2950012  74.0214997  24.5649988  23.0508962  74.2816650  24.9058340
  32.5940012  74.7424997  20.0409988  32.9690012  73.9984997  19.5709988
  32.5980012  74.4724997  20.9599988  32.6458915  74.6041486  20.1007824
  32.2630012  74.6684997  22.7909988  31.3270012  74.7684997  22.9689988
  32.5430012  73.9594997  23.3689988  32.1728255  74.5862711  22.8935391
  35.2510012  63.7354997  34.8369988  34.8440012  64.2164997  34.1159988
  35.2920012  62.8304997  34.5289988  35.2008437  63.6789374  34.6966683
  22.4000012  70.1194997  32.8339988  22.6160012  69.7584997  33.6929988
  21.5450012  69.7454997  32.6239988  22.3139292  70.0194111  32.9233386
  25.0190012  58.5894997  28.8289988  24.1570012  58.5024997  28.4219988
  24.9960012  59.4454997  29.2569988  24.8980330  58.6932765  28.8311863
  29.6820012  58.3114997  32.2039988  30.1020012  57.8964997  32.9569988
  28.7490012  58.1334997  32.3209988  29.6133644  58.2305900  32.3229539
  33.0080012  62.0674997  33.0569988  32.4940012  61.9414997  33.8549988
  32.8530012  62.9794997  32.8129988  32.9166852  62.1736132  33.1332158
  33.7710012  66.9284997  18.8189988  33.8130012  66.7054997  17.8889988
  34.6200012  67.3274997  19.0089988  33.8915396  66.9519155  18.7173627
  29.3430012  60.8044997  19.4889988  29.0900012  60.8234997  20.4119988
  29.0870012  59.9324997  19.1879988  29.2737790  60.6892437  19.5746263
  25.1100012  63.5554997  29.9239988  24.4680012  63.5144997  30.6329988
  25.1470012  64.4814997  29.6869988  25.0271324  63.6751559  29.9889824
  25.1070012  63.7764997  24.8359988  24.2140012  63.4354997  24.7779988
  25.5570012  63.3994997  24.0809988  25.0457305  63.6788484  24.7259177
  30.6420012  64.1924997  23.6529988  30.2330012  65.0074997  23.3619988
  31.3630012  64.0524997  23.0389988  30.6834537  64.2852018  23.5301342
  29.7440012  64.3674997  35.1409988  29.1820012  63.6634997  35.4619988
  30.5710012  64.2474997  35.6089988  29.7787095  64.2547883  35.2482330
  31.6470012  63.6384997  26.4669988  31.4520012  64.2434997  25.7519988
  31.8280012  62.8044997  26.0329988  31.6447614  63.6086300  26.3104405
  22.8600012  63.8754997  31.7909988  22.8220012  64.2754997  32.6599988
  22.3690012  63.0584997  31.8819988  22.7884684  63.8198069  31.9221059
  26.2260012  61.2494997  18.5899988  25.7950012  60.8044997  19.3199988
  25.5080012  61.6214997  18.0779988  26.0699438  61.2388940  18.6206799
  19.4680012  60.9914997  25.6419988  20.0990012  60.9624997  26.3609988
  19.9170012  60.5664997  24.9119988  19.6150774  60.9300492  25.6416553
  20.7420012  61.7374997  21.0659988  21.2160012  62.3284997  20.4809988
  20.0250012  62.2684997  21.4129988  20.7099341  61.8900867  21.0328836
  30.9110012  65.2764997  31.1389988  31.2340012  64.6454997  30.4959988
  30.4710012  64.7414997  31.7989988  30.8956895  65.1178441  31.1402850
  27.6880012  61.2034997  25.9229988  26.7770012  61.2604997  26.2109988
  28.1940012  61.1434997  26.7329988  27.6315413  61.2031985  26.0720622
  22.5170012  62.8324997  24.7489988  21.6270012  62.9324997  24.4089988
  22.8130012  61.9904997  24.4029988  22.4352823  62.7323545  24.6557213
  26.1700012  62.8324997  22.4059988  27.1010012  62.9614997  22.5839988
  25.9550012  63.5024997  21.7559988  26.2684247  62.9406565  22.3425747
  32.0930012  60.4384997  29.1869988  31.4170012  60.5694997  29.8509988
  31.6080012  60.2834997  28.3769988  31.9347145  60.4354905  29.1684517
  24.8440012  64.0274997  19.9729988  24.3010012  63.6474997  19.2809988
  25.6770012  64.2214997  19.5439988  24.8824399  64.0018124  19.8204526
  35.3810012  76.1104997  35.4639988  35.5810012  76.5344997  34.6289988
  36.0360012  76.4534997  36.0709988  35.4970051  76.2149648  35.4317836
  22.9790012  68.5844997  35.0719988  23.7110012  68.8384997  35.6329988
  22.1990012  68.7884997  35.5869988  22.9738232  68.6469177  35.2185760
  29.0080012  63.9914997  27.8099988  29.5730012  63.4444997  27.2629988
  28.8610012  63.4694997  28.5979988  29.0652918  63.8462024  27.8418454
  24.0100012  60.1274997  24.2279988  23.6930012  59.2254997  24.1929988
  24.7920012  60.1294997  23.6749988  24.0722284  60.0041628  24.1484783
  27.6350012  62.3794997  30.2239988  26.7990012  62.8334997  30.3339988
  28.1590012  62.6554997  30.9759988  27.5914414  62.4789376  30.3407136
  28.1790012  68.5924997  21.9079988  27.4340012  68.0854997  21.5859988
  28.0450012  68.6414997  22.8549988  28.0588776  68.5296940  21.9918647
  35.3290012  67.7254997  30.6949988  35.9710012  68.1824997  30.1509988
  34.4990012  67.8384997  30.2319988  35.3045963  67.8032704  30.5580177
  32.0770012  61.4064997  20.1079988  31.1380012  61.5184997  19.9559988
  32.3740012  62.2634997  20.4139988  31.9887666  61.5376443  20.1285768
  29.6980012  68.7764997  33.1449988  29.3530012  68.3954997  33.9519988
  29.4980012  69.7104997  33.2169988  29.6238061  68.8505228  33.2650961
  32.7950012  63.2734997  21.7679988  33.6870012  63.1364997  22.0869988
  32.8520012  64.0644997  21.2319988  32.9246285  63.3616660  21.7391691
  23.3040012  67.8874997  27.6779988  24.0490012  67.8854997  27.0769988
  23.3820012  67.0644997  28.1599988  23.4165518  67.7759315  27.6608929
  30.3050012  70.0514997  20.9339988  30.0090012  70.8774997  21.3149988
  29.6020012  69.4314997  21.1299988  30.1694914  70.0808199  21.0126443
  20.3120012  66.3484997  32.9929988  20.5350012  65.9304997  33.8249988
  19.7100012  65.7354997  32.5699988  20.2611759  66.2084668  33.0497022
  27.3280012  65.8654997  35.2059988  27.0320012  65.6994997  34.3109988
  28.2600012  65.6454997  35.1949988  27.4134166  65.8130640  35.0820536
  31.9490012  71.2384997  33.0959988  31.0480012  71.4214997  32.8279988
  31.9830012  71.4974997  34.0169988  31.8303041  71.2985512  33.1838197
  37.6800012  63.4834997  21.4629988  37.1260012  63.0874997  20.7909988
  37.7800012  64.3934997  21.1849988  37.6177059  63.5523586  21.3334401
  37.6430012  69.2834997  34.2999988  36.7920012  69.5214997  33.9329988
  38.2340012  69.2664997  33.5469988  37.6062487  69.3138258  34.1478893
  35.9750012  72.2694997  21.9279988  35.6020012  71.4434997  22.2369988
  36.2530012  72.0864997  21.0309988  35.9615630  72.1317303  21.8489626
  33.1360012  67.0774997  28.9489988  32.2070012  66.8454997  28.9219988
  33.5870012  66.3004997  28.6189988  33.0699216  66.9407238  28.9006917
  25.6790012  71.4054997  25.0819988  26.2060012  72.1784997  24.8819988
  24.7990012  71.6304997  24.7809988  25.6321773  71.5418005  25.0139010
  21.4340012  66.2674997  19.6689988  22.0500012  66.8944997  20.0489988
  20.5720012  66.5834997  19.9409988  21.4017698  66.3959430  19.7577183
  27.1060012  69.0684997  24.6589988  26.8650012  69.9934997  24.6999988
  26.3650012  68.6094997  25.0549988  26.9728409  69.1331421  24.7181377
  27.6210012  73.2174997  30.9739988  27.9830012  74.0724997  30.7399988
  28.1520012  72.9254997  31.7139988  27.7424473  73.2951060  31.0420855
  25.7890012  74.0904997  24.2039988  24.8390012  74.1954997  24.2549988
  26.1410012  74.9104997  24.5489988  25.7064203  74.2158314  24.2576650
  31.1650012  69.3164997  30.6739988  30.7390012  69.0894997  31.5009988
  31.7450012  68.5784997  30.4919988  31.1851868  69.1855299  30.7625830
  33.3680012  70.2454997  19.7479988  33.7210012  69.8654997  20.5529988
  32.4190012  70.1524997  19.8349988  33.2880441  70.1809596  19.8698559
  33.8230012  73.8684997  33.1439988  33.2220012  73.3134997  32.6479988
  34.1050012  74.5354997  32.5179988  33.7788519  73.8826841  32.9914952
  37.8710012  74.7254997  19.9489988  38.6150012  75.3114997  19.8089988
  37.1770012  75.2934997  20.2829988  37.8790292  74.8825582  19.9749961
  21.9460012  61.1014997  32.5509988  21.0530012  61.4404997  32.4829988
  21.8470012  60.2464997  32.9689988  21.8104164  61.0322588  32.5982235
  34.2340012  68.9184997  21.9749988  33.9560012  68.1904997  22.5309988
  35.1610012  69.0374997  22.1799988  34.3213124  68.8348802  22.0788845
  21.5970012  72.9064997  30.9859988  21.8140012  71.9744997  30.9549988
  21.8430012  73.1804997  31.8689988  21.6599549  72.8160636  31.1011763
  27.4590012  71.3574997  18.1949988  27.6980012  70.6094997  17.6479988
  27.1900012  70.9694997  19.0279988  27.4553675  71.2026638  18.2326865
  26.3960012  70.9274997  20.6519988  26.5420012  70.4074997  21.4419988
  26.3930012  71.8344997  20.9579988  26.4155989  70.9788853  20.8016088
  22.8490012  68.1804997  21.1619988  22.1630012  68.5324997  21.7289988
  23.3710012  68.9434997  20.9149988  22.8256852  68.3318578  21.2062118
  30.6800012  60.8424997  31.4409988  31.3790012  60.9164997  32.0909988
  30.2990012  59.9784997  31.5949988  30.7241767  60.7357624  31.5508322
  31.4650012  60.4944997  22.5379988  31.6850012  60.9664997  21.7349988
  32.0230012  60.8894997  23.2079988  31.5704968  60.6124285  22.5187331
  29.1330012  72.6254997  21.4009988  28.3170012  73.1224997  21.4529988
  29.6630012  73.1004997  20.7609988  29.0929161  72.7577722  21.3215956
  28.6650012  62.2224997  23.3729988  29.4770012  62.7274997  23.4189988
  28.4200012  62.0774997  24.2869988  28.7430520  62.2720375  23.5028517
  29.2000012  63.2084997  32.5579988  29.3190012  63.7824997  33.3149988
  29.8560012  62.5204997  32.6719988  29.3049757  63.1941079  32.6770825
  29.5480012  59.3034997  24.3109988  29.2020012  59.9214997  24.9559988
  30.2070012  59.8044997  23.8299988  29.5897826  59.4555802  24.3340971
  26.4720012  73.6694997  21.3829988  26.6320012  74.4684997  20.8819988
  26.2740012  73.9754997  22.2679988  26.4671649  73.8204469  21.4339815
  25.2060012  60.3664997  20.9979988  25.1230012  61.2554997  21.3449988
  26.0960012  60.1014997  21.2299988  25.3149469  60.4521430  21.0767626
  35.4050012  61.1154997  33.3929988  34.4880012  61.3784997  33.3049988
  35.7400012  61.1124997  32.4959988  35.3249900  61.1510224  33.2597919
  34.0070012  64.8664997  27.4879988  33.2090012  64.4514997  27.1599988
  34.4520012  64.1754997  27.9789988  33.9579885  64.7163543  27.5094889
  23.4650012  70.7944997  20.0589988  24.0570012  71.4934997  20.3349988
  23.9240012  70.3614997  19.3389988  23.6081142  70.8317049  19.9994830
  21.7810012  63.4584997  19.1749988  21.7360012  64.3974997  19.3529988
  20.8930012  63.2224997  18.9049988  21.6548574  63.5551892  19.1628912
  35.0930012  74.1224997  29.1109988  34.9380012  74.8004997  28.4539988
  36.0260012  74.1944997  29.3139988  35.1978500  74.2250170  29.0485119
  22.5890012  58.2404997  27.8479988  22.3600012  58.2994997  26.9199988
  22.1460012  57.4484997  28.1539988  22.4978530  58.1415753  27.7624786
  21.5190012  72.1804997  24.0079988  20.6870012  72.6534997  24.0359988
  22.0650012  72.6904997  23.4099988  21.4789739  72.3141871  23.9309716
  20.8070012  74.7934997  35.3379988  21.3480012  74.5764997  36.0979988
  20.3260012  73.9874997  35.1489988  20.8159345  74.6549514  35.4163076
  25.4050012  73.7124997  36.9589988  26.1720012  73.2534997  37.2999988
  25.3830012  73.4864997  36.0289988  25.5071434  73.6190409  36.8800043
  29.4970012  73.2204997  18.3339988  28.8530012  72.5894997  18.6549988
  30.2590012  72.6894997  18.1019988  29.5118077  73.0622920  18.3466011
  31.9820012  72.0924997  35.6879988  31.6310012  71.2364997  35.9309988
  32.7080012  72.2354997  36.2949988  32.0320769  71.9945636  35.8033619
  34.1010012  73.0374997  18.5679988  34.3840012  72.2434997  19.0199988
  34.8410012  73.2704997  18.0069988  34.2397486  72.9602803  18.5540698
  20.7140012  68.6034997  36.2929988  20.8580012  67.7014997  36.0059988
  19.9420012  68.8894997  35.8049988  20.6293322  68.5188261  36.1877881
  25.0560012  68.9474997  18.4249988  25.1200012  68.1534997  18.9559988
  25.7090012  68.8284997  17.7349988  25.1530241  68.8227148  18.4044317
  27.3700012  68.5734997  35.7249988  27.0410012  68.8444997  34.8679988
  27.5220012  67.6324997  35.6379988  27.3454809  68.4833862  35.5958244
  30.4080012  69.9944997  18.1609988  30.1390012  70.1744997  19.0619988
  30.2020012  69.0684997  18.0299988  30.3433825  69.8940152  18.2665214
  33.1040012  68.4894997  33.1089988  33.8500012  69.0774997  32.9889988
  32.3470012  69.0714997  33.1719988  33.1037554  68.6487011  33.1010907
  21.5470012  65.8034997  35.7129988  21.9550012  64.9464997  35.5919988
  21.2870012  65.8184997  36.6339988  21.5677568  65.6880807  35.8209588
  26.2050012  66.9194997  20.7309988  25.7450012  66.4354997  21.4169988
  26.4600012  66.2514997  20.0949988  26.1764902  66.7628731  20.7389334
  25.4940012  64.8124997  33.0869988  24.8760012  65.4874997  33.3669988
  25.8380012  65.1334997  32.2539988  25.4559615  64.9482721  33.0126581
  27.2760012  65.1624997  18.9929988  27.0960012  65.0084997  18.0659988
  28.2260012  65.2704997  19.0379988  27.3797776  65.1560175  18.8721843
  30.5140012  67.2844997  36.3639988  31.4670012  67.3674997  36.3369988
  30.3530012  66.5724997  36.9839988  30.6226426  67.1996746  36.4440579
  36.6660012  67.5174997  18.4389988  36.3920012  67.0924997  17.6259988
  36.7050012  68.4484997  18.2219988  36.6337699  67.5852484  18.2983610
  25.8330012  62.1674997  34.1689988  25.9830012  61.4384997  33.5669988
  25.8360012  62.9444997  33.6099988  25.8539302  62.1727851  34.0110692
  26.2460012  60.5374997  31.6619988  26.7820012  60.9884997  31.0099988
  25.3940012  60.4294997  31.2389988  26.2042178  60.5846390  31.5155756
  27.8280012  65.9764997  31.9009988  28.5780012  65.8204997  31.3279988
  27.4890012  66.8284997  31.6259988  27.8848921  66.0702968  31.7853561
  32.2430012  63.7914997  36.9299988  32.4360012  62.8604997  36.8179988
  33.1010012  64.2164997  36.9199988  32.3853020  63.7216389  36.9133361
  33.5600012  66.5804997  35.0069988  33.2790012  67.2894997  34.4299988
  34.5030012  66.5074997  34.8559988  33.6489027  66.6677646  34.9075551
  24.3120012  63.3654997  36.0809988  23.5450012  62.8334997  35.8709988
  24.9910012  63.0554997  35.4809988  24.2987022  63.2507506  35.9711648
  27.0520012  57.9934997  32.0929988  26.9530012  58.9404997  31.9879988
  26.3090012  57.6214997  31.6179988  26.9380564  58.0725902  32.0144560
  28.3160012  62.3154997  35.6569988  28.0800012  62.0954997  36.5589988
  27.5320012  62.1084997  35.1469988  28.1778628  62.2574760  35.7113932
  31.0310012  61.4424997  34.7329988  30.0840012  61.4744997  34.8649988
  31.3440012  60.8174997  35.3859988  30.9435475  61.3623207  34.8394455
  32.6650012  60.0764997  36.7379988  32.5690012  59.1244997  36.7319988
  32.3440012  60.3454997  37.5979988  32.6084070  59.9824035  36.8535441
  22.4920012  61.2864997  35.7849988  22.7040012  60.5794997  35.1749988
  22.3810012  60.8484997  36.6289988  22.5059721  61.1307084  35.8156843
  27.2730012  57.2874997  34.7649988  27.9850012  56.6474997  34.7509988
  27.1720012  57.5544997  33.8509988  27.3567939  57.2359938  34.6395650
  27.6270012  58.9704997  36.8179988  27.4950012  58.4944997  35.9979988
  27.0280012  59.7144997  36.7629988  27.5279071  59.0059618  36.6982886
  27.1730012  75.8534997  19.9949988  28.1060012  76.0114997  20.1379988
  26.9090012  76.5284997  19.3699988  27.2649510  75.9663611  19.9300741
  20.7420012  70.4894997  19.4769988  21.6560012  70.5684997  19.7509988
  20.7490012  69.8024997  18.8109988  20.8681131  70.4073961  19.4244393
  19.3910012  75.8824997  24.5549988  18.7440012  75.4204997  24.0219988
  19.7450012  75.2104997  25.1369988  19.3503849  75.7284723  24.5607959
  20.2610012  73.9634997  26.3589988  19.9260012  73.0834997  26.5309988
  20.4830012  74.3084997  27.2239988  20.2451783  73.8897500  26.4994208
  37.8090012  74.7724997  29.3399988  37.7880012  74.9574997  30.2789988
  38.5000012  75.3414997  28.9989988  37.8994618  74.8746606  29.4223864
  37.3730012  74.3404997  32.2619988  36.8850012  73.6044997  31.8909988
  37.9220012  73.9464997  32.9399988  37.3804872  74.1866249  32.3029160
  35.8230012  70.1294997  36.8999988  34.9570012  70.0244997  37.2939988
  36.2000012  70.8884997  37.3459988  35.7553308  70.2176900  37.0142393
  37.1240012  68.3864997  22.4139988  37.9740012  68.8074997  22.5409988
  37.1300012  67.6464997  23.0209988  37.2411372  68.3440803  22.5134344
  37.5190012  66.4394997  24.2379988  36.7920012  65.9604997  24.6349988
  38.1000012  66.6454997  24.9699988  37.4979375  66.4017090  24.3914129
  37.2780012  69.2244997  29.1849988  38.1110012  68.8464997  28.9049988
  37.3900012  70.1674997  29.0659988  37.4072647  69.3002218  29.1305487
  35.7640012  72.1024997  31.4919988  35.1170012  72.4274997  32.1179988
  35.2470012  71.6624997  30.8179988  35.6054029  72.0875004  31.4865827
  37.7870012  66.3404997  20.6289988  37.2650012  66.6974997  19.9099988
  37.7540012  67.0154997  21.3069988  37.7111634  66.4805413  20.6223145
  36.1360012  63.5804997  19.1799988  36.2320012  64.2474997  18.4989988
  35.9960012  62.7644997  18.6979988  36.1302135  63.5614500  19.0218491
  35.3050012  64.9604997  24.8009988  35.1550012  64.0154997  24.7799988
  34.9520012  65.2414997  25.6439988  35.2366625  64.8690441  24.9122346
  20.3410012  67.0384997  28.8109988  20.5250012  66.9564997  27.8749988
  21.1900012  66.9144997  29.2349988  20.4810139  67.0105003  28.7401455
  36.1620012  66.9304997  34.4389988  36.7450012  66.1964997  34.6309988
  36.7260012  67.7024997  34.4859988  36.3179769  66.9344227  34.4716159
  37.6580012  64.8334997  35.1239988  36.7950012  64.4544997  34.9579988
  38.2630012  64.0944997  35.0499988  37.6215979  64.6818023  35.0912817
  35.3830012  60.9884997  18.2969988  35.9940012  60.6174997  18.9339988
  34.5470012  60.5674997  18.4929988  35.3535032  60.8807554  18.4107035
  35.0160012  62.5434997  23.2629988  35.2960012  61.6364997  23.3869988
  35.7750012  62.9774997  22.8739988  35.1569277  62.4780942  23.2273682
  35.6280012  63.1244997  28.6989988  36.5610012  63.3364997  28.6649988
  35.3930012  63.2264997  29.6209988  35.7238036  63.1672769  28.8189976
  35.6570012  63.8614997  31.4749988  34.8140012  64.1294997  31.8409988
  36.0990012  64.6834997  31.2639988  35.6014158  64.0093291  31.4965491
  19.9380012  62.3094997  34.9519988  20.8580012  62.1874997  35.1879988
  19.4890012  61.5594997  35.3409988  20.0031580  62.1913727  35.0369006
  37.9400012  57.8414997  36.8279988  38.2900012  57.1874997  36.2229988
  38.0870012  58.6784997  36.3889988  38.0078419  57.8651591  36.6857118
  35.6290012  59.8064997  23.3109988  35.8120012  59.3574997  24.1369988
  35.0300012  59.2214997  22.8479988  35.5730202  59.6659975  23.3613275
  21.1590012  60.6214997  27.8429988  21.6050012  59.8294997  28.1449988
  21.6260012  61.3374997  28.2739988  21.2830172  60.6100624  27.9424820
  19.4630012  63.6204997  28.9119988  19.9550012  63.3994997  28.1209988
  19.8260012  64.4614997  29.1929988  19.5793126  63.7038357  28.8417531
  37.4600012  59.9504997  35.1779988  36.5420012  60.2214997  35.1419988
  37.5830012  59.4154997  34.3929988  37.3511066  59.9152892  35.0670487
  37.4960012  59.8734997  19.8389988  37.9080012  59.1524997  19.3639988
  38.1780012  60.5434997  19.8979988  37.6445885  59.8652368  19.7818915
  19.7770012  59.8784997  22.9659988  18.8520012  60.0874997  22.8369988
  20.2310012  60.3624997  22.2769988  19.7117368  59.9725993  22.8551226
  34.5480012  74.8624997  24.9119988  35.2000012  74.5154997  24.3039988
  35.0580012  75.3514997  25.5579988  34.7062637  74.8810597  24.9160236
  19.7410012  58.6164997  31.3109988  19.0760012  58.3704997  31.9539988
  19.2980012  59.2384997  30.7329988  19.5900956  58.6668632  31.3209352
  21.9330012  71.7914997  35.4549988  21.1120012  71.9664997  34.9949988
  21.6800012  71.7184997  36.3759988  21.7866164  71.8055622  35.5164923
  24.8870012  72.7664997  31.7139988  24.4620012  73.5754997  31.4309988
  25.7910012  72.8514997  31.4119988  24.9510271  72.8888469  31.6343776
  29.1980012  74.1654997  34.6729988  29.3830012  73.8314997  35.5509988
  30.0440012  74.4744997  34.3509988  29.3377539  74.1616047  34.7495605
  31.5430012  75.4514997  33.9169988  32.2200012  74.8184997  33.6769988
  31.8650012  75.8524997  34.7239988  31.6791637  75.4191154  33.9932793
  36.4600012  58.0404997  32.9969988  35.6480012  58.3654997  32.6089988
  36.6930012  57.2804997  32.4639988  36.3803423  57.9822436  32.8718253
  22.2890012  76.0224997  31.7609988  21.5680012  76.4624997  31.3099988
  21.9230012  75.7714997  32.6099988  22.1409804  76.0487698  31.8139840
  24.7560012  75.6224997  30.7909988  23.8910012  75.6944997  31.1949988
  24.7010012  76.1694997  30.0069988  24.6302085  75.7062685  30.7403362
  29.4660012  75.5104997  29.9659988  29.0100012  76.0394997  29.3119988
  29.6290012  76.1134997  30.6919988  29.4255585  75.6644468  29.9745062
  31.7940012  74.3884997  30.9109988  30.8890012  74.5534997  30.6459988
  32.2230012  75.2414997  30.8459988  31.7280799  74.5264483  30.8659182
  34.3980012  75.9584997  31.2059988  34.2160012  76.8744997  30.9959988
  34.5750012  75.5484997  30.3599988  34.3970210  76.0284822  31.0627885
  21.7030012  74.6454997  28.6709988  21.6850012  74.2204997  29.5289988
  22.5080012  74.3274997  28.2629988  21.8093875  74.5443812  28.7331655
  23.8450012  73.3554997  27.3259988  23.6260012  72.4394997  27.4959988
  24.6690012  73.4954997  27.7919988  23.9264420  73.2490520  27.4122774
  26.3820012  73.8254997  28.1749988  26.5950012  72.9374997  27.8879988
  26.4460012  73.7914997  29.1289988  26.4198231  73.6993102  28.2647397
  29.8900012  59.4894997  27.3189988  29.2160012  58.8604997  27.5749988
  30.4540012  59.0054997  26.7159988  29.8739230  59.3378744  27.2725340
  35.0330012  57.5974997  27.4319988  35.6370012  58.1444997  26.9299988
  34.1630012  57.9164997  27.1919988  34.9981241  57.7155806  27.3307654
  36.7600012  58.7354997  25.7649988  37.3720012  58.2214997  25.2389988
  37.1420012  59.6134997  25.7889988  36.8954540  58.7837140  25.6961830
  22.2170012  58.1234997  25.1409988  21.4400012  57.8894997  24.6339988
  22.7470012  57.3264997  25.1499988  22.1822330  57.9836988  25.0727742
  21.0530012  57.9214997  20.9449988  21.4920012  58.5324997  20.3529988
  20.4200012  58.4594997  21.4189988  21.0274514  58.0779257  20.9280930
  26.7960012  58.0504997  24.9549988  27.6710012  58.4384997  24.9249988
  26.6600012  57.8354997  25.8769988  26.8973695  58.0745184  25.0756440
  32.3530012  58.0804997  26.6039988  32.4290012  58.1754997  25.6539988
  32.0780012  57.1724997  26.7329988  32.3262321  57.9707867  26.4915079
  33.7060012  58.1064997  22.2959988  33.0040012  58.7214997  22.0869988
  33.2620012  57.2684997  22.4269988  33.5496330  58.0775783  22.2850328
  20.9540012  73.8694997  21.8429988  20.2690012  73.8314997  21.1749988
  20.9580012  74.7824997  22.1309988  20.8608193  73.9877016  21.7905284
  22.9140012  59.8374997  19.3869988  23.4060012  59.2074997  18.8599988
  23.5380012  60.1334997  20.0509988  23.0655446  59.7913199  19.4045980
  27.9400012  60.1304997  21.8439988  28.1180012  59.4844997  22.5269988
  27.8870012  60.9644997  22.3119988  27.9571829  60.1547985  22.0005940
  29.8190012  75.0794997  20.2399988  30.6850012  75.4454997  20.0619988
  29.5720012  74.6394997  19.4259988  29.9042392  75.0701756  20.1056289
  36.5280012  74.6424997  22.9189988  36.3330012  73.8944997  22.3539988
  36.4890012  75.4004997  22.3359988  36.4960380  74.6426099  22.7628384
  22.1750012  58.6374997  34.6589988  21.8090012  57.8724997  35.1019988
  23.0880012  58.6664997  34.9459988  22.2482790  58.5367224  34.7584070
  24.1480012  57.9884997  36.1949988  25.0460012  57.7144997  36.0099988
  23.7610012  57.2454997  36.6589988  24.2186612  57.8505914  36.2323643
  22.7720012  74.7894997  18.8679988  22.5050012  75.0764997  19.7409988
  23.5440012  74.2434997  19.0199988  22.8397488  74.7550294  19.0081050
  32.5690012  57.3204997  36.3769988  32.6460012  56.8944997  37.2309988
  33.4630012  57.3344997  36.0339988  32.7003428  57.2640879  36.4475310
  35.7450012  73.3934997  35.0689988  34.9630012  73.2074997  34.5499988
  35.6730012  74.3224997  35.2869988  35.6281777  73.4936492  35.0274048
  50.1510012  67.2794997  25.0999988  50.2400012  68.2234997  24.9679988
  49.5130012  67.0044997  24.4419988  50.0769081  67.3714830  24.9929614
  49.0840012  66.5344997  28.5189988  49.0460012  65.8884997  29.2239988
  48.7620012  66.0684997  27.7479988  49.0352333  66.3829408  28.5112978
  41.4530012  66.1494997  30.1119988  41.4940012  65.5234997  30.8349988
  42.1560012  66.7734997  30.2939988  41.5536363  66.1481196  30.2356044
  52.7900012  69.4734997  26.8199988  52.3500012  68.7534997  27.2709988
  52.7770012  70.1944997  27.4499988  52.7280226  69.4723731  26.9668494
  42.3760012  70.5994997  28.6469988  42.0070012  69.7974997  28.2769988
  43.3170012  70.4304997  28.6929988  42.4527289  70.4670153  28.6026316
  38.9860012  64.2594997  24.0399988  38.5390012  65.1054997  24.0209988
  38.4250012  63.6794997  23.5239988  38.8489900  64.2969916  23.9676801
  39.6970012  66.4214997  26.1659988  39.9100012  65.6514997  26.6929988
  40.4350012  66.5104997  25.5619988  39.8258496  66.3281394  26.1565300
  49.9020012  74.5784997  27.0329988  50.5220012  73.9014997  26.7589988
  49.6940012  74.3604997  27.9409988  49.9586904  74.4563870  27.1183365
  47.4740012  68.9674997  28.9249988  47.7780012  68.2814997  28.3299988
  48.1950012  69.0854997  29.5429988  47.6130671  68.8896305  28.9271816
  50.6150012  63.3614997  29.2529988  50.7570012  62.4154997  29.2729988
  50.5080012  63.5684997  28.3239988  50.6199863  63.2599534  29.1302339
  43.7690012  61.4624997  26.5249988  43.8130012  62.3224997  26.1069988
  43.3120012  60.9104997  25.8909988  43.7132185  61.5055799  26.3820299
  51.4920012  61.5934997  24.9259988  52.1380012  61.2644997  25.5509988
  52.0020012  62.1114997  24.3029988  51.6494264  61.6184611  24.9273862
  40.3900012  63.8594997  27.2869988  41.0430012  63.3094997  27.7189988
  40.4140012  63.5854997  26.3699988  40.4826683  63.7471466  27.2222123
  45.5460012  65.4094997  26.5019988  46.1620012  64.8834997  27.0119988
  44.9600012  64.7694997  26.0989988  45.5510810  65.2509208  26.5173173
  42.5800012  60.3804997  30.5989988  42.3610012  60.9104997  29.8329988
  41.9120012  60.6074997  31.2459988  42.4597600  60.4836906  30.5816379
  49.9490012  69.8804997  24.1429988  49.6530012  69.5584997  23.2919988
  49.6240012  70.7804997  24.1839988  49.8646371  69.9580215  24.0321801
  45.1490012  68.0564997  30.8859988  44.4090012  68.6544997  30.9899988
  45.8630012  68.6104997  30.5709988  45.1442237  68.2132831  30.8576465
  53.2560012  60.8844997  26.9059988  53.0400012  60.1184997  27.4389988
  53.9110012  61.3564997  27.4189988  53.3150632  60.8435889  27.0482861
  42.1730012  62.2724997  28.5509988  42.7870012  62.9054997  28.9249988
  42.6850012  61.8004997  27.8949988  42.3262296  62.2952370  28.5134252
  43.5560012  70.0204997  31.6739988  43.5510012  70.9004997  31.2959988
  42.7030012  69.9374997  32.0989988  43.4399464  70.1296117  31.6797907
  39.6770012  69.6914997  22.4559988  39.4050012  69.9204997  21.5669988
  39.7230012  70.5294997  22.9159988  39.6460094  69.8361213  22.3965697
  53.3020012  71.3134997  29.1679988  52.3610012  71.3714997  29.3299988
  53.5790012  72.2194997  29.0309988  53.2104679  71.4439443  29.1716815
  46.6060012  57.6864997  28.0519988  46.4890012  56.7374997  27.9969988
  45.7510012  58.0184997  28.3249988  46.4743733  57.6015409  28.0813897
  51.5540012  73.0944997  25.7939988  51.9800012  72.3874997  25.3089988
  51.8710012  73.8954997  25.3769988  51.6551019  73.1060994  25.6713130
  52.7140012  70.9954997  24.3019988  52.4560012  70.3054997  23.6909988
  52.7850012  70.5524997  25.1479988  52.6882856  70.8412124  24.3326885
  54.4000012  69.5614997  32.7799988  54.5400012  68.9704997  32.0399988
  54.5670012  70.4344997  32.4229988  54.4416778  69.5986426  32.6306965
  48.8730012  66.5234997  22.5519988  48.1610012  67.0584997  22.1999988
  49.5640012  66.5794997  21.8919988  48.8690132  66.6042543  22.4146289
  48.9260012  64.9814997  19.5909988  49.6270012  65.0034997  20.2419988
  49.2290012  64.3534997  18.9349988  49.0627830  64.8996566  19.5913711
  52.2780012  66.7334997  23.5039988  51.5460012  66.9614997  24.0769988
  52.7260012  66.0194997  23.9589988  52.2383095  66.6682571  23.6439119
  52.1760012  64.9074997  32.5709988  52.2560012  65.6704997  33.1429988
  51.5740012  65.1864997  31.8809988  52.1055756  65.0497134  32.5560589
  43.9240012  67.3634997  25.3859988  43.5930012  66.9934997  24.5679988
  44.5120012  66.6934997  25.7329988  43.9581873  67.2221156  25.3208102
  45.2900012  70.7914997  28.0679988  45.1960012  70.2134997  27.3109988
  46.0200012  70.4204997  28.5639988  45.3757981  70.6622390  28.0314165
  44.2900012  66.1324997  29.0199988  44.8560012  66.2534997  28.2569988
  44.6090012  66.7694997  29.6589988  44.4105786  66.2351884  29.0020040
  50.5990012  71.6354997  29.7539988  50.3590012  72.2974997  30.4019988
  50.4010012  70.8014997  30.1789988  50.5393808  71.6133134  29.9001524
  45.1700012  70.5314997  33.7369988  44.8590012  71.3134997  34.1919988
  44.5200012  70.3784997  33.0509988  45.0395558  70.6179105  33.7065871
  51.1490012  65.8954997  21.1889988  51.7290012  66.0454997  21.9359988
  51.5630012  66.3664997  20.4659988  51.2842830  65.9796841  21.1934134
  42.0900012  66.7294997  32.9659988  42.1610012  67.3804997  33.6639988
  41.2000012  66.8324997  32.6309988  41.9793117  66.8325936  33.0162700
  48.8760012  72.6324997  24.6239988  49.3500012  72.9274997  25.4019988
  48.3130012  73.3704997  24.3909988  48.8647653  72.7726932  24.6990136
  43.4100012  72.6034997  34.4999988  43.4170012  72.4674997  33.5529988
  42.4940012  72.4854997  34.7519988  43.2871714  72.5689430  34.4044666
  54.8480012  57.6454997  21.0019988  53.9480012  57.7844997  21.2969988
  55.1000012  58.4764997  20.5999988  54.7588702  57.7769074  20.9880205
  42.9140012  66.4334997  22.9759988  42.6220012  67.2014997  22.4849988
  42.2400012  65.7734997  22.8129988  42.7829081  66.4494406  22.8867340
  56.0370012  72.0114997  19.3779988  56.1110012  72.9504997  19.5489988
  56.9430012  71.7064997  19.3219988  56.1695100  72.0986722  19.3938119
  39.0070012  68.7964997  31.7909988  38.5060012  68.7684997  30.9759988
  39.0120012  67.8904997  32.0999988  38.9391526  68.6702278  31.7212872
  38.7570012  71.5764997  28.6749988  39.7030012  71.4324997  28.6559988
  38.6450012  72.3604997  29.2119988  38.8712727  71.6628046  28.7450072
  56.9550012  72.2424997  34.3569988  56.9060012  71.2874997  34.3199988
  56.1280012  72.5104997  34.7579988  56.8364940  72.1478998  34.4061375
  47.9340012  71.8164997  33.2329988  48.0210012  72.6424997  33.7079988
  47.0700012  71.4864997  33.4819988  47.8291964  71.8849878  33.3316549
  48.3480012  75.5884997  23.0389988  48.2730012  75.4674997  22.0929988
  48.3810012  76.5384997  23.1579988  48.3421848  75.7002500  22.9254834
  42.0010012  74.3774997  24.8199988  42.1540012  74.0294997  25.6989988
  41.1510012  74.0214997  24.5649988  41.9068962  74.2816650  24.9058340
  51.4500012  74.7424997  20.0409988  51.8250012  73.9984997  19.5709988
  51.4540012  74.4724997  20.9599988  51.5018915  74.6041486  20.1007824
  51.1190012  74.6684997  22.7909988  50.1830012  74.7684997  22.9689988
  51.3990012  73.9594997  23.3689988  51.0288255  74.5862711  22.8935391
  54.1070012  63.7354997  34.8369988  53.7000012  64.2164997  34.1159988
  54.1480012  62.8304997  34.5289988  54.0568437  63.6789374  34.6966683
  41.2560012  70.1194997  32.8339988  41.4720012  69.7584997  33.6929988
  40.4010012  69.7454997  32.6239988  41.1699292  70.0194111  32.9233386
  43.8750012  58.5894997  28.8289988  43.0130012  58.5024997  28.4219988
  43.8520012  59.4454997  29.2569988  43.7540330  58.6932765  28.8311863
  48.5380012  58.3114997  32.2039988  48.9580012  57.8964997  32.9569988
  47.6050012  58.1334997  32.3209988  48.4693644  58.2305900  32.3229539
  51.8640012  62.0674997  33.0569988  51.3500012  61.9414997  33.8549988
  51.7090012  62.9794997  32.8129988  51.7726852  62.1736132  33.1332158
  52.6270012  66.9284997  18.8189988  52.6690012  66.7054997  17.8889988
  53.4760012  67.3274997  19.0089988  52.7475396  66.9519155  18.7173627
  48.1990012  60.8044997  19.4889988  47.9460012  60.8234997  20.4119988
  47.9430012  59.9324997  19.1879988  48.1297790  60.6892437  19.5746263
  43.9660012  63.5554997  29.9239988  43.3240012  63.5144997  30.6329988
  44.0030012  64.4814997  29.6869988  43.8831324  63.6751559  29.9889824
  43.9630012  63.7764997  24.8359988  43.0700012  63.4354997  24.7779988
  44.4130012  63.3994997  24.0809988  43.9017305  63.6788484  24.7259177
  49.4980012  64.1924997  23.6529988  49.0890012  65.0074997  23.3619988
  50.2190012  64.0524997  23.0389988  49.5394537  64.2852018  23.5301342
  48.6000012  64.3674997  35.1409988  48.0380012  63.6634997  35.4619988
  49.4270012  64.2474997  35.6089988  48.6347095  64.2547883  35.2482330
  50.5030012  63.6384997  26.4669988  50.3080012  64.2434997  25.7519988
  50.6840012  62.8044997  26.0329988  50.5007614  63.6086300  26.3104405
  41.7160012  63.8754997  31.7909988  41.6780012  64.2754997  32.6599988
  41.2250012  63.0584997  31.8819988  41.6444684  63.8198069  31.9221059
  45.0820012  61.2494997  18.5899988  44.6510012  60.8044997  19.3199988
  44.3640012  61.6214997  18.0779988  44.9259438  61.2388940  18.6206799
  38.3240012  60.9914997  25.6419988  38.9550012  60.9624997  26.3609988
  38.7730012  60.5664997  24.9119988  38.4710774  60.9300492  25.6416553
  39.5980012  61.7374997  21.0659988  40.0720012  62.3284997  20.4809988
  38.8810012  62.2684997  21.4129988  39.5659341  61.8900867  21.0328836
  49.7670012  65.2764997  31.1389988  50.0900012  64.6454997  30.4959988
  49.3270012  64.7414997  31.7989988  49.7516895  65.1178441  31.1402850
  46.5440012  61.2034997  25.9229988  45.6330012  61.2604997  26.2109988
  47.0500012  61.1434997  26.7329988  46.4875413  61.2031985  26.0720622
  41.3730012  62.8324997  24.7489988  40.4830012  62.9324997  24.4089988
  41.6690012  61.9904997  24.4029988  41.2912823  62.7323545  24.6557213
  45.0260012  62.8324997  22.4059988  45.9570012  62.9614997  22.5839988
  44.8110012  63.5024997  21.7559988  45.1244247  62.9406565  22.3425747
  50.9490012  60.4384997  29.1869988  50.2730012  60.5694997  29.8509988
  50.4640012  60.2834997  28.3769988  50.7907145  60.4354905  29.1684517
  43.7000012  64.0274997  19.9729988  43.1570012  63.6474997  19.2809988
  44.5330012  64.2214997  19.5439988  43.7384399  64.0018124  19.8204526
  54.2370012  76.1104997  35.4639988  54.4370012  76.5344997  34.6289988
  54.8920012  76.4534997  36.0709988  54.3530051  76.2149648  35.4317836
  41.8350012  68.5844997  35.0719988  42.5670012  68.8384997  35.6329988
  41.0550012  68.7884997  35.5869988  41.8298232  68.6469177  35.2185760
  47.8640012  63.9914997  27.8099988  48.4290012  63.4444997  27.2629988
  47.7170012  63.4694997  28.5979988  47.9212918  63.8462024  27.8418454
  42.8660012  60.1274997  24.2279988  42.5490012  59.2254997  24.1929988
  43.6480012  60.1294997  23.6749988  42.9282284  60.0041628  24.1484783
  46.4910012  62.3794997  30.2239988  45.6550012  62.8334997  30.3339988
  47.0150012  62.6554997  30.9759988  46.4474414  62.4789376  30.3407136
  47.0350012  68.5924997  21.9079988  46.2900012  68.0854997  21.5859988
  46.9010012  68.6414997  22.8549988  46.9148776  68.5296940  21.9918647
  50.9330012  61.4064997  20.1079988  49.9940012  61.5184997  19.9559988
  51.2300012  62.2634997  20.4139988  50.8447666  61.5376443  20.1285768
  48.5540012  68.7764997  33.1449988  48.2090012  68.3954997  33.9519988
  48.3540012  69.7104997  33.2169988  48.4798061  68.8505228  33.2650961
  51.6510012  63.2734997  21.7679988  52.5430012  63.1364997  22.0869988
  51.7080012  64.0644997  21.2319988  51.7806285  63.3616660  21.7391691
  42.1600012  67.8874997  27.6779988  42.9050012  67.8854997  27.0769988
  42.2380012  67.0644997  28.1599988  42.2725518  67.7759315  27.6608929
  49.1610012  70.0514997  20.9339988  48.8650012  70.8774997  21.3149988
  48.4580012  69.4314997  21.1299988  49.0254914  70.0808199  21.0126443
  39.1680012  66.3484997  32.9929988  39.3910012  65.9304997  33.8249988
  38.5660012  65.7354997  32.5699988  39.1171759  66.2084668  33.0497022
  46.1840012  65.8654997  35.2059988  45.8880012  65.6994997  34.3109988
  47.1160012  65.6454997  35.1949988  46.2694166  65.8130640  35.0820536
  50.8050012  71.2384997  33.0959988  49.9040012  71.4214997  32.8279988
  50.8390012  71.4974997  34.0169988  50.6863041  71.2985512  33.1838197
  56.5360012  63.4834997  21.4629988  55.9820012  63.0874997  20.7909988
  56.6360012  64.3934997  21.1849988  56.4737059  63.5523586  21.3334401
  54.8310012  72.2694997  21.9279988  54.4580012  71.4434997  22.2369988
  55.1090012  72.0864997  21.0309988  54.8175630  72.1317303  21.8489626
  51.9920012  67.0774997  28.9489988  51.0630012  66.8454997  28.9219988
  52.4430012  66.3004997  28.6189988  51.9259216  66.9407238  28.9006917
  44.5350012  71.4054997  25.0819988  45.0620012  72.1784997  24.8819988
  43.6550012  71.6304997  24.7809988  44.4881773  71.5418005  25.0139010
  40.2900012  66.2674997  19.6689988  40.9060012  66.8944997  20.0489988
  39.4280012  66.5834997  19.9409988  40.2577698  66.3959430  19.7577183
  45.9620012  69.0684997  24.6589988  45.7210012  69.9934997  24.6999988
  45.2210012  68.6094997  25.0549988  45.8288409  69.1331421  24.7181377
  46.4770012  73.2174997  30.9739988  46.8390012  74.0724997  30.7399988
  47.0080012  72.9254997  31.7139988  46.5984473  73.2951060  31.0420855
  44.6450012  74.0904997  24.2039988  43.6950012  74.1954997  24.2549988
  44.9970012  74.9104997  24.5489988  44.5624203  74.2158314  24.2576650
  50.0210012  69.3164997  30.6739988  49.5950012  69.0894997  31.5009988
  50.6010012  68.5784997  30.4919988  50.0411868  69.1855299  30.7625830
  52.2240012  70.2454997  19.7479988  52.5770012  69.8654997  20.5529988
  51.2750012  70.1524997  19.8349988  52.1440441  70.1809596  19.8698559
  52.6790012  73.8684997  33.1439988  52.0780012  73.3134997  32.6479988
  52.9610012  74.5354997  32.5179988  52.6348519  73.8826841  32.9914951
  56.7270012  74.7254997  19.9489988  57.4710012  75.3114997  19.8089988
  56.0330012  75.2934997  20.2829988  56.7350292  74.8825582  19.9749961
  40.8020012  61.1014997  32.5509988  39.9090012  61.4404997  32.4829988
  40.7030012  60.2464997  32.9689988  40.6664164  61.0322588  32.5982235
  53.0900012  68.9184997  21.9749988  52.8120012  68.1904997  22.5309988
  54.0170012  69.0374997  22.1799988  53.1773124  68.8348802  22.0788845
  40.4530012  72.9064997  30.9859988  40.6700012  71.9744997  30.9549988
  40.6990012  73.1804997  31.8689988  40.5159549  72.8160636  31.1011763
  46.3150012  71.3574997  18.1949988  46.5540012  70.6094997  17.6479988
  46.0460012  70.9694997  19.0279988  46.3113675  71.2026638  18.2326865
  45.2520012  70.9274997  20.6519988  45.3980012  70.4074997  21.4419988
  45.2490012  71.8344997  20.9579988  45.2715989  70.9788853  20.8016088
  41.7050012  68.1804997  21.1619988  41.0190012  68.5324997  21.7289988
  42.2270012  68.9434997  20.9149988  41.6816852  68.3318578  21.2062118
  49.5360012  60.8424997  31.4409988  50.2350012  60.9164997  32.0909988
  49.1550012  59.9784997  31.5949988  49.5801767  60.7357624  31.5508322
  50.3210012  60.4944997  22.5379988  50.5410012  60.9664997  21.7349988
  50.8790012  60.8894997  23.2079988  50.4264968  60.6124285  22.5187331
  47.9890012  72.6254997  21.4009988  47.1730012  73.1224997  21.4529988
  48.5190012  73.1004997  20.7609988  47.9489161  72.7577722  21.3215956
  47.5210012  62.2224997  23.3729988  48.3330012  62.7274997  23.4189988
  47.2760012  62.0774997  24.2869988  47.5990520  62.2720375  23.5028517
  48.0560012  63.2084997  32.5579988  48.1750012  63.7824997  33.3149988
  48.7120012  62.5204997  32.6719988  48.1609757  63.1941079  32.6770825
  48.4040012  59.3034997  24.3109988  48.0580012  59.9214997  24.9559988
  49.0630012  59.8044997  23.8299988  48.4457826  59.4555802  24.3340971
  45.3280012  73.6694997  21.3829988  45.4880012  74.4684997  20.8819988
  45.1300012  73.9754997  22.2679988  45.3231649  73.8204469  21.4339815
  44.0620012  60.3664997  20.9979988  43.9790012  61.2554997  21.3449988
  44.9520012  60.1014997  21.2299988  44.1709469  60.4521430  21.0767626
  52.8630012  64.8664997  27.4879988  52.0650012  64.4514997  27.1599988
  53.3080012  64.1754997  27.9789988  52.8139885  64.7163543  27.5094889
  42.3210012  70.7944997  20.0589988  42.9130012  71.4934997  20.3349988
  42.7800012  70.3614997  19.3389988  42.4641142  70.8317049  19.9994830
  40.6370012  63.4584997  19.1749988  40.5920012  64.3974997  19.3529988
  39.7490012  63.2224997  18.9049988  40.5108574  63.5551892  19.1628912
  53.9490012  74.1224997  29.1109988  53.7940012  74.8004997  28.4539988
  54.8820012  74.1944997  29.3139988  54.0538500  74.2250170  29.0485119
  41.4450012  58.2404997  27.8479988  41.2160012  58.2994997  26.9199988
  41.0020012  57.4484997  28.1539988  41.3538530  58.1415753  27.7624786
  40.3750012  72.1804997  24.0079988  39.5430012  72.6534997  24.0359988
  40.9210012  72.6904997  23.4099988  40.3349739  72.3141871  23.9309716
  39.6630012  74.7934997  35.3379988  40.2040012  74.5764997  36.0979988
  39.1820012  73.9874997  35.1489988  39.6719345  74.6549514  35.4163076
  44.2610012  73.7124997  36.9589988  45.0280012  73.2534997  37.2999988
  44.2390012  73.4864997  36.0289988  44.3631434  73.6190409  36.8800043
  48.3530012  73.2204997  18.3339988  47.7090012  72.5894997  18.6549988
  49.1150012  72.6894997  18.1019988  48.3678077  73.0622920  18.3466011
  50.8380012  72.0924997  35.6879988  50.4870012  71.2364997  35.9309988
  51.5640012  72.2354997  36.2949988  50.8880769  71.9945636  35.8033619
  52.9570012  73.0374997  18.5679988  53.2400012  72.2434997  19.0199988
  53.6970012  73.2704997  18.0069988  53.0957486  72.9602803  18.5540698
  39.5700012  68.6034997  36.2929988  39.7140012  67.7014997  36.0059988
  38.7980012  68.8894997  35.8049988  39.4853322  68.5188261  36.1877881
  43.9120012  68.9474997  18.4249988  43.9760012  68.1534997  18.9559988
  44.5650012  68.8284997  17.7349988  44.0090241  68.8227148  18.4044317
  46.2260012  68.5734997  35.7249988  45.8970012  68.8444997  34.8679988
  46.3780012  67.6324997  35.6379988  46.2014809  68.4833862  35.5958244
  49.2640012  69.9944997  18.1609988  48.9950012  70.1744997  19.0619988
  49.0580012  69.0684997  18.0299988  49.1993825  69.8940152  18.2665214
  51.9600012  68.4894997  33.1089988  52.7060012  69.0774997  32.9889988
  51.2030012  69.0714997  33.1719988  51.9597554  68.6487011  33.1010907
  40.4030012  65.8034997  35.7129988  40.8110012  64.9464997  35.5919988
  40.1430012  65.8184997  36.6339988  40.4237568  65.6880807  35.8209588
  45.0610012  66.9194997  20.7309988  44.6010012  66.4354997  21.4169988
  45.3160012  66.2514997  20.0949988  45.0324902  66.7628731  20.7389334
  44.3500012  64.8124997  33.0869988  43.7320012  65.4874997  33.3669988
  44.6940012  65.1334997  32.2539988  44.3119615  64.9482721  33.0126581
  46.1320012  65.1624997  18.9929988  45.9520012  65.0084997  18.0659988
  47.0820012  65.2704997  19.0379988  46.2357776  65.1560175  18.8721843
  49.3700012  67.2844997  36.3639988  50.3230012  67.3674997  36.3369988
  49.2090012  66.5724997  36.9839988  49.4786426  67.1996746  36.4440579
  55.5220012  67.5174997  18.4389988  55.2480012  67.0924997  17.6259988
  55.5610012  68.4484997  18.2219988  55.4897699  67.5852484  18.2983610
  44.6890012  62.1674997  34.1689988  44.8390012  61.4384997  33.5669988
  44.6920012  62.9444997  33.6099988  44.7099302  62.1727851  34.0110692
  45.1020012  60.5374997  31.6619988  45.6380012  60.9884997  31.0099988
  44.2500012  60.4294997  31.2389988  45.0602178  60.5846390  31.5155756
  46.6840012  65.9764997  31.9009988  47.4340012  65.8204997  31.3279988
  46.3450012  66.8284997  31.6259988  46.7408921  66.0702968  31.7853561
  51.0990012  63.7914997  36.9299988  51.2920012  62.8604997  36.8179988
  51.9570012  64.2164997  36.9199988  51.2413020  63.7216389  36.9133361
  52.4160012  66.5804997  35.0069988  52.1350012  67.2894997  34.4299988
  53.3590012  66.5074997  34.8559988  52.5049027  66.6677646  34.9075551
  43.1680012  63.3654997  36.0809988  42.4010012  62.8334997  35.8709988
  43.8470012  63.0554997  35.4809988  43.1547022  63.2507506  35.9711648
  45.9080012  57.9934997  32.0929988  45.8090012  58.9404997  31.9879988
  45.1650012  57.6214997  31.6179988  45.7940564  58.0725902  32.0144560
  47.1720012  62.3154997  35.6569988  46.9360012  62.0954997  36.5589988
  46.3880012  62.1084997  35.1469988  47.0338628  62.2574760  35.7113932
  49.8870012  61.4424997  34.7329988  48.9400012  61.4744997  34.8649988
  50.2000012  60.8174997  35.3859988  49.7995475  61.3623207  34.8394455
  51.5210012  60.0764997  36.7379988  51.4250012  59.1244997  36.7319988
  51.2000012  60.3454997  37.5979988  51.4644070  59.9824035  36.8535441
  41.3480012  61.2864997  35.7849988  41.5600012  60.5794997  35.1749988
  41.2370012  60.8484997  36.6289988  41.3619721  61.1307084  35.8156843
  46.1290012  57.2874997  34.7649988  46.8410012  56.6474997  34.7509988
  46.0280012  57.5544997  33.8509988  46.2127939  57.2359938  34.6395650
  46.4830012  58.9704997  36.8179988  46.3510012  58.4944997  35.9979988
  45.8840012  59.7144997  36.7629988  46.3839071  59.0059618  36.6982886
  46.0290012  75.8534997  19.9949988  46.9620012  76.0114997  20.1379988
  45.7650012  76.5284997  19.3699988  46.1209510  75.9663611  19.9300741
  39.5980012  70.4894997  19.4769988  40.5120012  70.5684997  19.7509988
  39.6050012  69.8024997  18.8109988  39.7241131  70.4073961  19.4244393
  38.2470012  75.8824997  24.5549988  37.6000012  75.4204997  24.0219988
  38.6010012  75.2104997  25.1369988  38.2063849  75.7284723  24.5607959
  39.1170012  73.9634997  26.3589988  38.7820012  73.0834997  26.5309988
  39.3390012  74.3084997  27.2239988  39.1011783  73.8897500  26.4994208
  56.6650012  74.7724997  29.3399988  56.6440012  74.9574997  30.2789988
  57.3560012  75.3414997  28.9989988  56.7554618  74.8746606  29.4223864
  56.2290012  74.3404997  32.2619988  55.7410012  73.6044997  31.8909988
  56.7780012  73.9464997  32.9399988  56.2364872  74.1866249  32.3029160
  54.6790012  70.1294997  36.8999988  53.8130012  70.0244997  37.2939988
  55.0560012  70.8884997  37.3459988  54.6113308  70.2176900  37.0142393
  55.9800012  68.3864997  22.4139988  56.8300012  68.8074997  22.5409988
  55.9860012  67.6464997  23.0209988  56.0971372  68.3440803  22.5134344
  56.3750012  66.4394997  24.2379988  55.6480012  65.9604997  24.6349988
  56.9560012  66.6454997  24.9699988  56.3539375  66.4017090  24.3914129
  54.6200012  72.1024997  31.4919988  53.9730012  72.4274997  32.1179988
  54.1030012  71.6624997  30.8179988  54.4614029  72.0875004  31.4865827
  56.6430012  66.3404997  20.6289988  56.1210012  66.6974997  19.9099988
  56.6100012  67.0154997  21.3069988  56.5671634  66.4805413  20.6223145
  54.9920012  63.5804997  19.1799988  55.0880012  64.2474997  18.4989988
  54.8520012  62.7644997  18.6979988  54.9862135  63.5614500  19.0218491
  54.1610012  64.9604997  24.8009988  54.0110012  64.0154997  24.7799988
  53.8080012  65.2414997  25.6439988  54.0926625  64.8690441  24.9122346
  39.1970012  67.0384997  28.8109988  39.3810012  66.9564997  27.8749988
  40.0460012  66.9144997  29.2349988  39.3370139  67.0105003  28.7401455
  55.0180012  66.9304997  34.4389988  55.6010012  66.1964997  34.6309988
  55.5820012  67.7024997  34.4859988  55.1739769  66.9344227  34.4716159
  54.2390012  60.9884997  18.2969988  54.8500012  60.6174997  18.9339988
  53.4030012  60.5674997  18.4929988  54.2095032  60.8807554  18.4107035
  53.8720012  62.5434997  23.2629988  54.1520012  61.6364997  23.3869988
  54.6310012  62.9774997  22.8739988  54.0129277  62.4780942  23.2273682
  38.7940012  62.3094997  34.9519988  39.7140012  62.1874997  35.1879988
  38.3450012  61.5594997  35.3409988  38.8591580  62.1913727  35.0369006
  56.7960012  57.8414997  36.8279988  57.1460012  57.1874997  36.2229988
  56.9430012  58.6784997  36.3889988  56.8638419  57.8651591  36.6857118
  54.4850012  59.8064997  23.3109988  54.6680012  59.3574997  24.1369988
  53.8860012  59.2214997  22.8479988  54.4290202  59.6659975  23.3613275
  40.0150012  60.6214997  27.8429988  40.4610012  59.8294997  28.1449988
  40.4820012  61.3374997  28.2739988  40.1390172  60.6100624  27.9424820
  38.3190012  63.6204997  28.9119988  38.8110012  63.3994997  28.1209988
  38.6820012  64.4614997  29.1929988  38.4353126  63.7038357  28.8417531
  56.3160012  59.9504997  35.1779988  55.3980012  60.2214997  35.1419988
  56.4390012  59.4154997  34.3929988  56.2071066  59.9152892  35.0670487
  56.3520012  59.8734997  19.8389988  56.7640012  59.1524997  19.3639988
  57.0340012  60.5434997  19.8979988  56.5005885  59.8652368  19.7818915
  38.6330012  59.8784997  22.9659988  37.7080012  60.0874997  22.8369988
  39.0870012  60.3624997  22.2769988  38.5677368  59.9725993  22.8551226
  53.4040012  74.8624997  24.9119988  54.0560012  74.5154997  24.3039988
  53.9140012  75.3514997  25.5579988  53.5622637  74.8810597  24.9160236
  38.5970012  58.6164997  31.3109988  37.9320012  58.3704997  31.9539988
  38.1540012  59.2384997  30.7329988  38.4460956  58.6668632  31.3209352
  40.7890012  71.7914997  35.4549988  39.9680012  71.9664997  34.9949988
  40.5360012  71.7184997  36.3759988  40.6426164  71.8055622  35.5164923
  43.7430012  72.7664997  31.7139988  43.3180012  73.5754997  31.4309988
  44.6470012  72.8514997  31.4119988  43.8070271  72.8888469  31.6343776
  48.0540012  74.1654997  34.6729988  48.2390012  73.8314997  35.5509988
  48.9000012  74.4744997  34.3509988  48.1937539  74.1616047  34.7495605
  50.3990012  75.4514997  33.9169988  51.0760012  74.8184997  33.6769988
  50.7210012  75.8524997  34.7239988  50.5351637  75.4191154  33.9932793
  41.1450012  76.0224997  31.7609988  40.4240012  76.4624997  31.3099988
  40.7790012  75.7714997  32.6099988  40.9969804  76.0487698  31.8139840
  43.6120012  75.6224997  30.7909988  42.7470012  75.6944997  31.1949988
  43.5570012  76.1694997  30.0069988  43.4862085  75.7062685  30.7403362
  48.3220012  75.5104997  29.9659988  47.8660012  76.0394997  29.3119988
  48.4850012  76.1134997  30.6919988  48.2815585  75.6644468  29.9745062
  50.6500012  74.3884997  30.9109988  49.7450012  74.5534997  30.6459988
  51.0790012  75.2414997  30.8459988  50.5840799  74.5264483  30.8659182
  53.2540012  75.9584997  31.2059988  53.0720012  76.8744997  30.9959988
  53.4310012  75.5484997  30.3599988  53.2530210  76.0284822  31.0627885
  40.5590012  74.6454997  28.6709988  40.5410012  74.2204997  29.5289988
  41.3640012  74.3274997  28.2629988  40.6653875  74.5443812  28.7331655
  42.7010012  73.3554997  27.3259988  42.4820012  72.4394997  27.4959988
  43.5250012  73.4954997  27.7919988  42.7824420  73.2490520  27.4122774
  45.2380012  73.8254997  28.1749988  45.4510012  72.9374997  27.8879988
  45.3020012  73.7914997  29.1289988  45.2758232  73.6993102  28.2647397
  48.7460012  59.4894997  27.3189988  48.0720012  58.8604997  27.5749988
  49.3100012  59.0054997  26.7159988  48.7299230  59.3378744  27.2725340
  53.8890012  57.5974997  27.4319988  54.4930012  58.1444997  26.9299988
  53.0190012  57.9164997  27.1919988  53.8541241  57.7155806  27.3307654
  55.6160012  58.7354997  25.7649988  56.2280012  58.2214997  25.2389988
  55.9980012  59.6134997  25.7889988  55.7514540  58.7837140  25.6961830
  41.0730012  58.1234997  25.1409988  40.2960012  57.8894997  24.6339988
  41.6030012  57.3264997  25.1499988  41.0382330  57.9836988  25.0727742
  39.9090012  57.9214997  20.9449988  40.3480012  58.5324997  20.3529988
  39.2760012  58.4594997  21.4189988  39.8834514  58.0779257  20.9280930
  45.6520012  58.0504997  24.9549988  46.5270012  58.4384997  24.9249988
  45.5160012  57.8354997  25.8769988  45.7533695  58.0745184  25.0756440
  51.2090012  58.0804997  26.6039988  51.2850012  58.1754997  25.6539988
  50.9340012  57.1724997  26.7329988  51.1822321  57.9707867  26.4915079
  52.5620012  58.1064997  22.2959988  51.8600012  58.7214997  22.0869988
  52.1180012  57.2684997  22.4269988  52.4056330  58.0775783  22.2850328
  39.8100012  73.8694997  21.8429988  39.1250012  73.8314997  21.1749988
  39.8140012  74.7824997  22.1309988  39.7168193  73.9877016  21.7905284
  41.7700012  59.8374997  19.3869988  42.2620012  59.2074997  18.8599988
  42.3940012  60.1334997  20.0509988  41.9215446  59.7913199  19.4045980
  46.7960012  60.1304997  21.8439988  46.9740012  59.4844997  22.5269988
  46.7430012  60.9644997  22.3119988  46.8131829  60.1547985  22.0005940
  48.6750012  75.0794997  20.2399988  49.5410012  75.4454997  20.0619988
  48.4280012  74.6394997  19.4259988  48.7602392  75.0701756  20.1056289
  55.3840012  74.6424997  22.9189988  55.1890012  73.8944997  22.3539988
  55.3450012  75.4004997  22.3359988  55.3520380  74.6426099  22.7628384
  41.0310012  58.6374997  34.6589988  40.6650012  57.8724997  35.1019988
  41.9440012  58.6664997  34.9459988  41.1042790  58.5367224  34.7584070
  43.0040012  57.9884997  36.1949988  43.9020012  57.7144997  36.0099988
  42.6170012  57.2454997  36.6589988  43.0746612  57.8505914  36.2323643
  41.6280012  74.7894997  18.8679988  41.3610012  75.0764997  19.7409988
  42.4000012  74.2434997  19.0199988  41.6957488  74.7550294  19.0081050
  51.4250012  57.3204997  36.3769988  51.5020012  56.8944997  37.2309988
  52.3190012  57.3344997  36.0339988  51.5563428  57.2640880  36.4475310
  54.6010012  73.3934997  35.0689988  53.8190012  73.2074997  34.5499988
  54.5290012  74.3224997  35.2869988  54.4841777  73.4936492  35.0274048
  61.2320012  70.5994997  28.6469988  60.8630012  69.7974997  28.2769988
  62.1730012  70.4304997  28.6929988  61.3087289  70.4670153  28.6026316
  57.8420012  64.2594997  24.0399988  57.3950012  65.1054997  24.0209988
  57.2810012  63.6794997  23.5239988  57.7049900  64.2969916  23.9676801
  74.9930012  60.5684997  29.7859988  75.0420012  61.1784997  30.5219988
  75.4180012  61.0294997  29.0629988  75.0571824  60.7143741  29.7890205
  70.3480012  61.5934997  24.9259988  70.9940012  61.2644997  25.5509988
  70.8580012  62.1114997  24.3029988  70.5054264  61.6184611  24.9273862
  72.1120012  60.8844997  26.9059988  71.8960012  60.1184997  27.4389988
  72.7670012  61.3564997  27.4189988  72.1710632  60.8435889  27.0482861
  58.5330012  69.6914997  22.4559988  58.2610012  69.9204997  21.5669988
  58.5790012  70.5294997  22.9159988  58.5020094  69.8361213  22.3965697
  72.4590012  59.5994997  30.5859988  71.7230012  60.2104997  30.5479988
  73.1420012  60.0144997  30.0589988  72.4506541  59.7391374  30.5095832
  67.7290012  66.5234997  22.5519988  67.0170012  67.0584997  22.1999988
  68.4200012  66.5794997  21.8919988  67.7250132  66.6042543  22.4146289
  67.7820012  64.9814997  19.5909988  68.4830012  65.0034997  20.2419988
  68.0850012  64.3534997  18.9349988  67.9187830  64.8996566  19.5913711
  70.0050012  65.8954997  21.1889988  70.5850012  66.0454997  21.9359988
  70.4190012  66.3664997  20.4659988  70.1402830  65.9796841  21.1934134
  73.7040012  57.6454997  21.0019988  72.8040012  57.7844997  21.2969988
  73.9560012  58.4764997  20.5999988  73.6148702  57.7769074  20.9880205
  61.7700012  66.4334997  22.9759988  61.4780012  67.2014997  22.4849988
  61.0960012  65.7734997  22.8129988  61.6389081  66.4494406  22.8867340
  57.6130012  71.5764997  28.6749988  58.5590012  71.4324997  28.6559988
  57.5010012  72.3604997  29.2119988  57.7272727  71.6628046  28.7450072
  66.7900012  71.8164997  33.2329988  66.8770012  72.6424997  33.7079988
  65.9260012  71.4864997  33.4819988  66.6851964  71.8849878  33.3316549
  60.8570012  74.3774997  24.8199988  61.0100012  74.0294997  25.6989988
  60.0070012  74.0214997  24.5649988  60.7628962  74.2816650  24.9058340
  70.7200012  62.0674997  33.0569988  70.2060012  61.9414997  33.8549988
  70.5650012  62.9794997  32.8129988  70.6286852  62.1736132  33.1332158
  67.0550012  60.8044997  19.4889988  66.8020012  60.8234997  20.4119988
  66.7990012  59.9324997  19.1879988  66.9857790  60.6892437  19.5746263
  68.3540012  64.1924997  23.6529988  67.9450012  65.0074997  23.3619988
  69.0750012  64.0524997  23.0389988  68.3954537  64.2852018  23.5301342
  69.3590012  63.6384997  26.4669988  69.1640012  64.2434997  25.7519988
  69.5400012  62.8044997  26.0329988  69.3567614  63.6086300  26.3104405
  63.9380012  61.2494997  18.5899988  63.5070012  60.8044997  19.3199988
  63.2200012  61.6214997  18.0779988  63.7819438  61.2388940  18.6206799
  57.1800012  60.9914997  25.6419988  57.8110012  60.9624997  26.3609988
  57.6290012  60.5664997  24.9119988  57.3270774  60.9300492  25.6416553
  58.4540012  61.7374997  21.0659988  58.9280012  62.3284997  20.4809988
  57.7370012  62.2684997  21.4129988  58.4219341  61.8900867  21.0328836
  69.8050012  60.4384997  29.1869988  69.1290012  60.5694997  29.8509988
  69.3200012  60.2834997  28.3769988  69.6467145  60.4354905  29.1684517
  62.5560012  64.0274997  19.9729988  62.0130012  63.6474997  19.2809988
  63.3890012  64.2214997  19.5439988  62.5944399  64.0018124  19.8204526
  73.0930012  76.1104997  35.4639988  73.2930012  76.5344997  34.6289988
  73.7480012  76.4534997  36.0709988  73.2090051  76.2149648  35.4317836
  66.7200012  63.9914997  27.8099988  67.2850012  63.4444997  27.2629988
  66.5730012  63.4694997  28.5979988  66.7772918  63.8462024  27.8418454
  65.8910012  68.5924997  21.9079988  65.1460012  68.0854997  21.5859988
  65.7570012  68.6414997  22.8549988  65.7708776  68.5296940  21.9918647
  69.7890012  61.4064997  20.1079988  68.8500012  61.5184997  19.9559988
  70.0860012  62.2634997  20.4139988  69.7007666  61.5376443  20.1285768
  70.5070012  63.2734997  21.7679988  71.3990012  63.1364997  22.0869988
  70.5640012  64.0644997  21.2319988  70.6366285  63.3616660  21.7391691
  75.3920012  63.4834997  21.4629988  74.8380012  63.0874997  20.7909988
  75.4920012  64.3934997  21.1849988  75.3297059  63.5523586  21.3334401
  63.3910012  71.4054997  25.0819988  63.9180012  72.1784997  24.8819988
  62.5110012  71.6304997  24.7809988  63.3441773  71.5418005  25.0139010
  59.1460012  66.2674997  19.6689988  59.7620012  66.8944997  20.0489988
  58.2840012  66.5834997  19.9409988  59.1137698  66.3959430  19.7577183
  65.3330012  73.2174997  30.9739988  65.6950012  74.0724997  30.7399988
  65.8640012  72.9254997  31.7139988  65.4544473  73.2951060  31.0420855
  63.5010012  74.0904997  24.2039988  62.5510012  74.1954997  24.2549988
  63.8530012  74.9104997  24.5489988  63.4184203  74.2158314  24.2576650
  65.1710012  71.3574997  18.1949988  65.4100012  70.6094997  17.6479988
  64.9020012  70.9694997  19.0279988  65.1673675  71.2026638  18.2326865
  64.1080012  70.9274997  20.6519988  64.2540012  70.4074997  21.4419988
  64.1050012  71.8344997  20.9579988  64.1275989  70.9788853  20.8016088
  60.5610012  68.1804997  21.1619988  59.8750012  68.5324997  21.7289988
  61.0830012  68.9434997  20.9149988  60.5376852  68.3318578  21.2062118
  69.1770012  60.4944997  22.5379988  69.3970012  60.9664997  21.7349988
  69.7350012  60.8894997  23.2079988  69.2824968  60.6124285  22.5187331
  66.3770012  62.2224997  23.3729988  67.1890012  62.7274997  23.4189988
  66.1320012  62.0774997  24.2869988  66.4550520  62.2720375  23.5028517
  67.2600012  59.3034997  24.3109988  66.9140012  59.9214997  24.9559988
  67.9190012  59.8044997  23.8299988  67.3017826  59.4555802  24.3340971
  64.1840012  73.6694997  21.3829988  64.3440012  74.4684997  20.8819988
  63.9860012  73.9754997  22.2679988  64.1791649  73.8204469  21.4339815
  61.1770012  70.7944997  20.0589988  61.7690012  71.4934997  20.3349988
  61.6360012  70.3614997  19.3389988  61.3201142  70.8317049  19.9994830
  59.4930012  63.4584997  19.1749988  59.4480012  64.3974997  19.3529988
  58.6050012  63.2224997  18.9049988  59.3668574  63.5551892  19.1628912
  59.2310012  72.1804997  24.0079988  58.3990012  72.6534997  24.0359988
  59.7770012  72.6904997  23.4099988  59.1909739  72.3141871  23.9309716
  62.7680012  68.9474997  18.4249988  62.8320012  68.1534997  18.9559988
  63.4210012  68.8284997  17.7349988  62.8650241  68.8227148  18.4044317
  63.9170012  66.9194997  20.7309988  63.4570012  66.4354997  21.4169988
  64.1720012  66.2514997  20.0949988  63.8884902  66.7628731  20.7389334
  64.9880012  65.1624997  18.9929988  64.8080012  65.0084997  18.0659988
  65.9380012  65.2704997  19.0379988  65.0917776  65.1560175  18.8721843
  68.2260012  67.2844997  36.3639988  69.1790012  67.3674997  36.3369988
  68.0650012  66.5724997  36.9839988  68.3346426  67.1996746  36.4440579
  68.7430012  61.4424997  34.7329988  67.7960012  61.4744997  34.8649988
  69.0560012  60.8174997  35.3859988  68.6555475  61.3623207  34.8394455
  64.8850012  75.8534997  19.9949988  65.8180012  76.0114997  20.1379988
  64.6210012  76.5284997  19.3699988  64.9769510  75.9663611  19.9300741
  58.4540012  70.4894997  19.4769988  59.3680012  70.5684997  19.7509988
  58.4610012  69.8024997  18.8109988  58.5801131  70.4073961  19.4244393
  57.1030012  75.8824997  24.5549988  56.4560012  75.4204997  24.0219988
  57.4570012  75.2104997  25.1369988  57.0623849  75.7284723  24.5607959
  57.9730012  73.9634997  26.3589988  57.6380012  73.0834997  26.5309988
  58.1950012  74.3084997  27.2239988  57.9571783  73.8897500  26.4994208
  73.8480012  63.5804997  19.1799988  73.9440012  64.2474997  18.4989988
  73.7080012  62.7644997  18.6979988  73.8422135  63.5614500  19.0218491
  73.0170012  64.9604997  24.8009988  72.8670012  64.0154997  24.7799988
  72.6640012  65.2414997  25.6439988  72.9486625  64.8690441  24.9122346
  73.0950012  60.9884997  18.2969988  73.7060012  60.6174997  18.9339988
  72.2590012  60.5674997  18.4929988  73.0655032  60.8807554  18.4107035
  72.7280012  62.5434997  23.2629988  73.0080012  61.6364997  23.3869988
  73.4870012  62.9774997  22.8739988  72.8689277  62.4780942  23.2273682
  73.3410012  59.8064997  23.3109988  73.5240012  59.3574997  24.1369988
  72.7420012  59.2214997  22.8479988  73.2850202  59.6659975  23.3613275
  58.8710012  60.6214997  27.8429988  59.3170012  59.8294997  28.1449988
  59.3380012  61.3374997  28.2739988  58.9950172  60.6100624  27.9424820
  75.2080012  59.8734997  19.8389988  75.6200012  59.1524997  19.3639988
  75.8900012  60.5434997  19.8979988  75.3565885  59.8652368  19.7818915
  57.4890012  59.8784997  22.9659988  56.5640012  60.0874997  22.8369988
  57.9430012  60.3624997  22.2769988  57.4237368  59.9725993  22.8551226
  66.9100012  74.1654997  34.6729988  67.0950012  73.8314997  35.5509988
  67.7560012  74.4744997  34.3509988  67.0497539  74.1616047  34.7495605
  67.1780012  75.5104997  29.9659988  66.7220012  76.0394997  29.3119988
  67.3410012  76.1134997  30.6919988  67.1375585  75.6644468  29.9745062
  59.4150012  74.6454997  28.6709988  59.3970012  74.2204997  29.5289988
  60.2200012  74.3274997  28.2629988  59.5213875  74.5443812  28.7331655
  61.5570012  73.3554997  27.3259988  61.3380012  72.4394997  27.4959988
  62.3810012  73.4954997  27.7919988  61.6384420  73.2490520  27.4122774
  64.0940012  73.8254997  28.1749988  64.3070012  72.9374997  27.8879988
  64.1580012  73.7914997  29.1289988  64.1318232  73.6993102  28.2647397
  67.6020012  59.4894997  27.3189988  66.9280012  58.8604997  27.5749988
  68.1660012  59.0054997  26.7159988  67.5859230  59.3378744  27.2725340
  72.7450012  57.5974997  27.4319988  73.3490012  58.1444997  26.9299988
  71.8750012  57.9164997  27.1919988  72.7101241  57.7155806  27.3307654
  74.4720012  58.7354997  25.7649988  75.0840012  58.2214997  25.2389988
  74.8540012  59.6134997  25.7889988  74.6074540  58.7837140  25.6961830
  59.9290012  58.1234997  25.1409988  59.1520012  57.8894997  24.6339988
  60.4590012  57.3264997  25.1499988  59.8942330  57.9836988  25.0727742
  58.7650012  57.9214997  20.9449988  59.2040012  58.5324997  20.3529988
  58.1320012  58.4594997  21.4189988  58.7394514  58.0779257  20.9280930
  70.0650012  58.0804997  26.6039988  70.1410012  58.1754997  25.6539988
  69.7900012  57.1724997  26.7329988  70.0382321  57.9707867  26.4915079
  71.4180012  58.1064997  22.2959988  70.7160012  58.7214997  22.0869988
  70.9740012  57.2684997  22.4269988  71.2616330  58.0775783  22.2850328
  58.6660012  73.8694997  21.8429988  57.9810012  73.8314997  21.1749988
  58.6700012  74.7824997  22.1309988  58.5728193  73.9877016  21.7905284
  60.6260012  59.8374997  19.3869988  61.1180012  59.2074997  18.8599988
  61.2500012  60.1334997  20.0509988  60.7775446  59.7913199  19.4045980
  65.6520012  60.1304997  21.8439988  65.8300012  59.4844997  22.5269988
  65.5990012  60.9644997  22.3119988  65.6691829  60.1547985  22.0005940
  60.4840012  74.7894997  18.8679988  60.2170012  75.0764997  19.7409988
  61.2560012  74.2434997  19.0199988  60.5517488  74.7550294  19.0081050
  87.8630012  67.2794997  25.0999988  87.9520012  68.2234997  24.9679988
  87.2250012  67.0044997  24.4419988  87.7889081  67.3714830  24.9929614
  93.8490012  60.5684997  29.7859988  93.8980012  61.1784997  30.5219988
  94.2740012  61.0294997  29.0629988  93.9131824  60.7143741  29.7890205
  89.2040012  61.5934997  24.9259988  89.8500012  61.2644997  25.5509988
  89.7140012  62.1114997  24.3029988  89.3614264  61.6184611  24.9273862
  94.2400012  62.0464997  32.0219988  93.5520012  62.7044997  31.9259988
  94.2560012  61.8494997  32.9579988  94.1478525  62.1100462  32.1354808
  80.2920012  60.3804997  30.5989988  80.0730012  60.9104997  29.8329988
  79.6240012  60.6074997  31.2459988  80.1717600  60.4836906  30.5816379
  87.6610012  69.8804997  24.1429988  87.3650012  69.5584997  23.2919988
  87.3360012  70.7804997  24.1839988  87.5766371  69.9580215  24.0321801
  90.9680012  60.8844997  26.9059988  90.7520012  60.1184997  27.4389988
  91.6230012  61.3564997  27.4189988  91.0270632  60.8435889  27.0482861
  91.3150012  59.5994997  30.5859988  90.5790012  60.2104997  30.5479988
  91.9980012  60.0144997  30.0589988  91.3066541  59.7391374  30.5095832
  84.3180012  57.6864997  28.0519988  84.2010012  56.7374997  27.9969988
  83.4630012  58.0184997  28.3249988  84.1863733  57.6015409  28.0813897
  89.2660012  73.0944997  25.7939988  89.6920012  72.3874997  25.3089988
  89.5830012  73.8954997  25.3769988  89.3671019  73.1060994  25.6713130
  90.4260012  70.9954997  24.3019988  90.1680012  70.3054997  23.6909988
  90.4970012  70.5524997  25.1479988  90.4002856  70.8412124  24.3326885
  86.5850012  66.5234997  22.5519988  85.8730012  67.0584997  22.1999988
  87.2760012  66.5794997  21.8919988  86.5810132  66.6042543  22.4146289
  86.6380012  64.9814997  19.5909988  87.3390012  65.0034997  20.2419988
  86.9410012  64.3534997  18.9349988  86.7747830  64.8996566  19.5913711
  89.9900012  66.7334997  23.5039988  89.2580012  66.9614997  24.0769988
  90.4380012  66.0194997  23.9589988  89.9503095  66.6682571  23.6439119
  88.8610012  65.8954997  21.1889988  89.4410012  66.0454997  21.9359988
  89.2750012  66.3664997  20.4659988  88.9962830  65.9796841  21.1934134
  92.5600012  57.6454997  21.0019988  91.6600012  57.7844997  21.2969988
  92.8120012  58.4764997  20.5999988  92.4708702  57.7769074  20.9880205
  93.7490012  72.0114997  19.3779988  93.8230012  72.9504997  19.5489988
  94.6550012  71.7064997  19.3219988  93.8815100  72.0986722  19.3938119
  89.1620012  74.7424997  20.0409988  89.5370012  73.9984997  19.5709988
  89.1660012  74.4724997  20.9599988  89.2138915  74.6041486  20.1007824
  88.8310012  74.6684997  22.7909988  87.8950012  74.7684997  22.9689988
  89.1110012  73.9594997  23.3689988  88.7408255  74.5862711  22.8935391
  81.5870012  58.5894997  28.8289988  80.7250012  58.5024997  28.4219988
  81.5640012  59.4454997  29.2569988  81.4660330  58.6932765  28.8311863
  86.2500012  58.3114997  32.2039988  86.6700012  57.8964997  32.9569988
  85.3170012  58.1334997  32.3209988  86.1813644  58.2305900  32.3229539
  89.5760012  62.0674997  33.0569988  89.0620012  61.9414997  33.8549988
  89.4210012  62.9794997  32.8129988  89.4846852  62.1736132  33.1332158
  90.3390012  66.9284997  18.8189988  90.3810012  66.7054997  17.8889988
  91.1880012  67.3274997  19.0089988  90.4595396  66.9519155  18.7173627
  85.9110012  60.8044997  19.4889988  85.6580012  60.8234997  20.4119988
  85.6550012  59.9324997  19.1879988  85.8417790  60.6892437  19.5746263
  87.2100012  64.1924997  23.6529988  86.8010012  65.0074997  23.3619988
  87.9310012  64.0524997  23.0389988  87.2514537  64.2852018  23.5301342
  88.2150012  63.6384997  26.4669988  88.0200012  64.2434997  25.7519988
  88.3960012  62.8044997  26.0329988  88.2127614  63.6086300  26.3104405
  82.7940012  61.2494997  18.5899988  82.3630012  60.8044997  19.3199988
  82.0760012  61.6214997  18.0779988  82.6379438  61.2388940  18.6206799
  77.3100012  61.7374997  21.0659988  77.7840012  62.3284997  20.4809988
  76.5930012  62.2684997  21.4129988  77.2779341  61.8900867  21.0328836
  84.2560012  61.2034997  25.9229988  83.3450012  61.2604997  26.2109988
  84.7620012  61.1434997  26.7329988  84.1995413  61.2031985  26.0720622
  88.6610012  60.4384997  29.1869988  87.9850012  60.5694997  29.8509988
  88.1760012  60.2834997  28.3769988  88.5027145  60.4354905  29.1684517
  80.5780012  60.1274997  24.2279988  80.2610012  59.2254997  24.1929988
  81.3600012  60.1294997  23.6749988  80.6402284  60.0041628  24.1484783
  84.7470012  68.5924997  21.9079988  84.0020012  68.0854997  21.5859988
  84.6130012  68.6414997  22.8549988  84.6268776  68.5296940  21.9918647
  88.6450012  61.4064997  20.1079988  87.7060012  61.5184997  19.9559988
  88.9420012  62.2634997  20.4139988  88.5567666  61.5376443  20.1285768
  89.3630012  63.2734997  21.7679988  90.2550012  63.1364997  22.0869988
  89.4200012  64.0644997  21.2319988  89.4926285  63.3616660  21.7391691
  94.2480012  63.4834997  21.4629988  93.6940012  63.0874997  20.7909988
  94.3480012  64.3934997  21.1849988  94.1857059  63.5523586  21.3334401
  92.5430012  72.2694997  21.9279988  92.1700012  71.4434997  22.2369988
  92.8210012  72.0864997  21.0309988  92.5295630  72.1317303  21.8489626
  84.1890012  73.2174997  30.9739988  84.5510012  74.0724997  30.7399988
  84.7200012  72.9254997  31.7139988  84.3104473  73.2951060  31.0420855
  89.9360012  70.2454997  19.7479988  90.2890012  69.8654997  20.5529988
  88.9870012  70.1524997  19.8349988  89.8560441  70.1809596  19.8698559
  94.4390012  74.7254997  19.9489988  95.1830012  75.3114997  19.8089988
  93.7450012  75.2934997  20.2829988  94.4470292  74.8825582  19.9749961
  90.8020012  68.9184997  21.9749988  90.5240012  68.1904997  22.5309988
  91.7290012  69.0374997  22.1799988  90.8893124  68.8348802  22.0788845
  87.2480012  60.8424997  31.4409988  87.9470012  60.9164997  32.0909988
  86.8670012  59.9784997  31.5949988  87.2921767  60.7357624  31.5508322
  88.0330012  60.4944997  22.5379988  88.2530012  60.9664997  21.7349988
  88.5910012  60.8894997  23.2079988  88.1384968  60.6124285  22.5187331
  85.2330012  62.2224997  23.3729988  86.0450012  62.7274997  23.4189988
  84.9880012  62.0774997  24.2869988  85.3110520  62.2720375  23.5028517
  86.1160012  59.3034997  24.3109988  85.7700012  59.9214997  24.9559988
  86.7750012  59.8044997  23.8299988  86.1577826  59.4555802  24.3340971
  81.7740012  60.3664997  20.9979988  81.6910012  61.2554997  21.3449988
  82.6640012  60.1014997  21.2299988  81.8829469  60.4521430  21.0767626
  91.9730012  61.1154997  33.3929988  91.0560012  61.3784997  33.3049988
  92.3080012  61.1124997  32.4959988  91.8929900  61.1510224  33.2597919
  90.5750012  64.8664997  27.4879988  89.7770012  64.4514997  27.1599988
  91.0200012  64.1754997  27.9789988  90.5259885  64.7163543  27.5094889
  78.3490012  63.4584997  19.1749988  78.3040012  64.3974997  19.3529988
  77.4610012  63.2224997  18.9049988  78.2228574  63.5551892  19.1628912
  79.1570012  58.2404997  27.8479988  78.9280012  58.2994997  26.9199988
  78.7140012  57.4484997  28.1539988  79.0658530  58.1415753  27.7624786
  78.0870012  72.1804997  24.0079988  77.2550012  72.6534997  24.0359988
  78.6330012  72.6904997  23.4099988  78.0469739  72.3141871  23.9309716
  90.6690012  73.0374997  18.5679988  90.9520012  72.2434997  19.0199988
  91.4090012  73.2704997  18.0069988  90.8077486  72.9602803  18.5540698
  83.8440012  65.1624997  18.9929988  83.6640012  65.0084997  18.0659988
  84.7940012  65.2704997  19.0379988  83.9477776  65.1560175  18.8721843
  93.2340012  67.5174997  18.4389988  92.9600012  67.0924997  17.6259988
  93.2730012  68.4484997  18.2219988  93.2017699  67.5852484  18.2983610
  83.6200012  57.9934997  32.0929988  83.5210012  58.9404997  31.9879988
  82.8770012  57.6214997  31.6179988  83.5060564  58.0725902  32.0144560
  93.6920012  68.3864997  22.4139988  94.5420012  68.8074997  22.5409988
  93.6980012  67.6464997  23.0209988  93.8091372  68.3440803  22.5134344
  94.0870012  66.4394997  24.2379988  93.3600012  65.9604997  24.6349988
  94.6680012  66.6454997  24.9699988  94.0659375  66.4017090  24.3914129
  94.3550012  66.3404997  20.6289988  93.8330012  66.6974997  19.9099988
  94.3220012  67.0154997  21.3069988  94.2791634  66.4805413  20.6223145
  92.7040012  63.5804997  19.1799988  92.8000012  64.2474997  18.4989988
  92.5640012  62.7644997  18.6979988  92.6982135  63.5614500  19.0218491
  91.8730012  64.9604997  24.8009988  91.7230012  64.0154997  24.7799988
  91.5200012  65.2414997  25.6439988  91.8046625  64.8690441  24.9122346
  91.9510012  60.9884997  18.2969988  92.5620012  60.6174997  18.9339988
  91.1150012  60.5674997  18.4929988  91.9215032  60.8807554  18.4107035
  91.5840012  62.5434997  23.2629988  91.8640012  61.6364997  23.3869988
  92.3430012  62.9774997  22.8739988  91.7249277  62.4780942  23.2273682
  92.1960012  63.1244997  28.6989988  93.1290012  63.3364997  28.6649988
  91.9610012  63.2264997  29.6209988  92.2918036  63.1672769  28.8189976
  92.1970012  59.8064997  23.3109988  92.3800012  59.3574997  24.1369988
  91.5980012  59.2214997  22.8479988  92.1410202  59.6659975  23.3613275
  77.7270012  60.6214997  27.8429988  78.1730012  59.8294997  28.1449988
  78.1940012  61.3374997  28.2739988  77.8510172  60.6100624  27.9424820
  94.0640012  59.8734997  19.8389988  94.4760012  59.1524997  19.3639988
  94.7460012  60.5434997  19.8979988  94.2125885  59.8652368  19.7818915
  76.3450012  59.8784997  22.9659988  75.4200012  60.0874997  22.8369988
  76.7990012  60.3624997  22.2769988  76.2797368  59.9725993  22.8551226
  93.0280012  58.0404997  32.9969988  92.2160012  58.3654997  32.6089988
  93.2610012  57.2804997  32.4639988  92.9483423  57.9822436  32.8718253
  80.4130012  73.3554997  27.3259988  80.1940012  72.4394997  27.4959988
  81.2370012  73.4954997  27.7919988  80.4944420  73.2490520  27.4122774
  86.4580012  59.4894997  27.3189988  85.7840012  58.8604997  27.5749988
  87.0220012  59.0054997  26.7159988  86.4419230  59.3378744  27.2725340
  91.6010012  57.5974997  27.4319988  92.2050012  58.1444997  26.9299988
  90.7310012  57.9164997  27.1919988  91.5661241  57.7155806  27.3307654
  93.3280012  58.7354997  25.7649988  93.9400012  58.2214997  25.2389988
  93.7100012  59.6134997  25.7889988  93.4634540  58.7837140  25.6961830
  78.7850012  58.1234997  25.1409988  78.0080012  57.8894997  24.6339988
  79.3150012  57.3264997  25.1499988  78.7502330  57.9836988  25.0727742
  77.6210012  57.9214997  20.9449988  78.0600012  58.5324997  20.3529988
  76.9880012  58.4594997  21.4189988  77.5954514  58.0779257  20.9280930
  83.3640012  58.0504997  24.9549988  84.2390012  58.4384997  24.9249988
  83.2280012  57.8354997  25.8769988  83.4653695  58.0745184  25.0756440
  88.9210012  58.0804997  26.6039988  88.9970012  58.1754997  25.6539988
  88.6460012  57.1724997  26.7329988  88.8942321  57.9707867  26.4915079
  90.2740012  58.1064997  22.2959988  89.5720012  58.7214997  22.0869988
  89.8300012  57.2684997  22.4269988  90.1176330  58.0775783  22.2850328
  79.4820012  59.8374997  19.3869988  79.9740012  59.2074997  18.8599988
  80.1060012  60.1334997  20.0509988  79.6335446  59.7913199  19.4045980
  84.5080012  60.1304997  21.8439988  84.6860012  59.4844997  22.5269988
  84.4550012  60.9644997  22.3119988  84.5251829  60.1547985  22.0005940
  93.0960012  74.6424997  22.9189988  92.9010012  73.8944997  22.3539988
  93.0570012  75.4004997  22.3359988  93.0640380  74.6426099  22.7628384
 106.7190012  67.2794997  25.0999988 106.8080012  68.2234997  24.9679988
 106.0810012  67.0044997  24.4419988 106.6449081  67.3714830  24.9929614
 105.6520012  66.5344997  28.5189988 105.6140012  65.8884997  29.2239988
 105.3300012  66.0684997  27.7479988 105.6032333  66.3829408  28.5112978
  98.0210012  66.1494997  30.1119988  98.0620012  65.5234997  30.8349988
  98.7240012  66.7734997  30.2939988  98.1216363  66.1481196  30.2356044
 109.3580012  69.4734997  26.8199988 108.9180012  68.7534997  27.2709988
 109.3450012  70.1944997  27.4499988 109.2960226  69.4723731  26.9668494
  98.9440012  70.5994997  28.6469988  98.5750012  69.7974997  28.2769988
  99.8850012  70.4304997  28.6929988  99.0207289  70.4670153  28.6026316
  95.5540012  64.2594997  24.0399988  95.1070012  65.1054997  24.0209988
  94.9930012  63.6794997  23.5239988  95.4169900  64.2969916  23.9676801
  96.2650012  66.4214997  26.1659988  96.4780012  65.6514997  26.6929988
  97.0030012  66.5104997  25.5619988  96.3938496  66.3281394  26.1565300
 106.4700012  74.5784997  27.0329988 107.0900012  73.9014997  26.7589988
 106.2620012  74.3604997  27.9409988 106.5266904  74.4563870  27.1183365
 104.0420012  68.9674997  28.9249988 104.3460012  68.2814997  28.3299988
 104.7630012  69.0854997  29.5429988 104.1810671  68.8896305  28.9271816
 112.7050012  60.5684997  29.7859988 112.7540012  61.1784997  30.5219988
 113.1300012  61.0294997  29.0629988 112.7691824  60.7143741  29.7890205
 107.1830012  63.3614997  29.2529988 107.3250012  62.4154997  29.2729988
 107.0760012  63.5684997  28.3239988 107.1879864  63.2599534  29.1302339
 100.3370012  61.4624997  26.5249988 100.3810012  62.3224997  26.1069988
  99.8800012  60.9104997  25.8909988 100.2812185  61.5055799  26.3820299
 108.0600012  61.5934997  24.9259988 108.7060012  61.2644997  25.5509988
 108.5700012  62.1114997  24.3029988 108.2174264  61.6184611  24.9273862
  96.9580012  63.8594997  27.2869988  97.6110012  63.3094997  27.7189988
  96.9820012  63.5854997  26.3699988  97.0506683  63.7471466  27.2222123
 102.1140012  65.4094997  26.5019988 102.7300012  64.8834997  27.0119988
 101.5280012  64.7694997  26.0989988 102.1190810  65.2509208  26.5173173
 113.0960012  62.0464997  32.0219988 112.4080012  62.7044997  31.9259988
 113.1120012  61.8494997  32.9579988 113.0038525  62.1100462  32.1354808
  99.1480012  60.3804997  30.5989988  98.9290012  60.9104997  29.8329988
  98.4800012  60.6074997  31.2459988  99.0277600  60.4836906  30.5816379
 106.5170012  69.8804997  24.1429988 106.2210012  69.5584997  23.2919988
 106.1920012  70.7804997  24.1839988 106.4326371  69.9580215  24.0321801
 101.7170012  68.0564997  30.8859988 100.9770012  68.6544997  30.9899988
 102.4310012  68.6104997  30.5709988 101.7122237  68.2132831  30.8576465
 109.8240012  60.8844997  26.9059988 109.6080012  60.1184997  27.4389988
 110.4790012  61.3564997  27.4189988 109.8830632  60.8435889  27.0482861
  98.7410012  62.2724997  28.5509988  99.3550012  62.9054997  28.9249988
  99.2530012  61.8004997  27.8949988  98.8942296  62.2952370  28.5134252
 100.1240012  70.0204997  31.6739988 100.1190012  70.9004997  31.2959988
  99.2710012  69.9374997  32.0989988 100.0079464  70.1296117  31.6797907
  96.2450012  69.6914997  22.4559988  95.9730012  69.9204997  21.5669988
  96.2910012  70.5294997  22.9159988  96.2140094  69.8361213  22.3965697
 109.8700012  71.3134997  29.1679988 108.9290012  71.3714997  29.3299988
 110.1470012  72.2194997  29.0309988 109.7784679  71.4439443  29.1716815
 110.1710012  59.5994997  30.5859988 109.4350012  60.2104997  30.5479988
 110.8540012  60.0144997  30.0589988 110.1626541  59.7391374  30.5095832
 103.1740012  57.6864997  28.0519988 103.0570012  56.7374997  27.9969988
 102.3190012  58.0184997  28.3249988 103.0423733  57.6015409  28.0813897
 108.1220012  73.0944997  25.7939988 108.5480012  72.3874997  25.3089988
 108.4390012  73.8954997  25.3769988 108.2231019  73.1060994  25.6713130
 109.2820012  70.9954997  24.3019988 109.0240012  70.3054997  23.6909988
 109.3530012  70.5524997  25.1479988 109.2562856  70.8412124  24.3326885
 110.9680012  69.5614997  32.7799988 111.1080012  68.9704997  32.0399988
 111.1350012  70.4344997  32.4229988 111.0096778  69.5986426  32.6306965
 105.4410012  66.5234997  22.5519988 104.7290012  67.0584997  22.1999988
 106.1320012  66.5794997  21.8919988 105.4370132  66.6042543  22.4146289
 105.4940012  64.9814997  19.5909988 106.1950012  65.0034997  20.2419988
 105.7970012  64.3534997  18.9349988 105.6307830  64.8996566  19.5913711
 112.8100012  65.9014997  30.8459988 112.1570012  66.5964997  30.9349988
 113.2750012  66.1114997  30.0359988 112.7835390  66.0249425  30.7486883
 108.8460012  66.7334997  23.5039988 108.1140012  66.9614997  24.0769988
 109.2940012  66.0194997  23.9589988 108.8063095  66.6682571  23.6439119
 108.7440012  64.9074997  32.5709988 108.8240012  65.6704997  33.1429988
 108.1420012  65.1864997  31.8809988 108.6735756  65.0497134  32.5560589
 100.4920012  67.3634997  25.3859988 100.1610012  66.9934997  24.5679988
 101.0800012  66.6934997  25.7329988 100.5261873  67.2221156  25.3208102
 101.8580012  70.7914997  28.0679988 101.7640012  70.2134997  27.3109988
 102.5880012  70.4204997  28.5639988 101.9437981  70.6622390  28.0314165
 100.8580012  66.1324997  29.0199988 101.4240012  66.2534997  28.2569988
 101.1770012  66.7694997  29.6589988 100.9785786  66.2351884  29.0020040
 107.1670012  71.6354997  29.7539988 106.9270012  72.2974997  30.4019988
 106.9690012  70.8014997  30.1789988 107.1073808  71.6133134  29.9001524
 101.7380012  70.5314997  33.7369988 101.4270012  71.3134997  34.1919988
 101.0880012  70.3784997  33.0509988 101.6075558  70.6179105  33.7065871
 107.7170012  65.8954997  21.1889988 108.2970012  66.0454997  21.9359988
 108.1310012  66.3664997  20.4659988 107.8522830  65.9796841  21.1934134
  98.6580012  66.7294997  32.9659988  98.7290012  67.3804997  33.6639988
  97.7680012  66.8324997  32.6309988  98.5473117  66.8325936  33.0162700
 105.4440012  72.6324997  24.6239988 105.9180012  72.9274997  25.4019988
 104.8810012  73.3704997  24.3909988 105.4327653  72.7726932  24.6990136
  99.9780012  72.6034997  34.4999988  99.9850012  72.4674997  33.5529988
  99.0620012  72.4854997  34.7519988  99.8551714  72.5689430  34.4044666
 111.4160012  57.6454997  21.0019988 110.5160012  57.7844997  21.2969988
 111.6680012  58.4764997  20.5999988 111.3268702  57.7769074  20.9880205
  99.4820012  66.4334997  22.9759988  99.1900012  67.2014997  22.4849988
  98.8080012  65.7734997  22.8129988  99.3509081  66.4494406  22.8867340
 112.6050012  72.0114997  19.3779988 112.6790012  72.9504997  19.5489988
 113.5110012  71.7064997  19.3219988 112.7375100  72.0986722  19.3938119
 113.5230012  72.2424997  34.3569988 113.4740012  71.2874997  34.3199988
 112.6960012  72.5104997  34.7579988 113.4044940  72.1478998  34.4061375
 104.5020012  71.8164997  33.2329988 104.5890012  72.6424997  33.7079988
 103.6380012  71.4864997  33.4819988 104.3971964  71.8849878  33.3316549
 104.9160012  75.5884997  23.0389988 104.8410012  75.4674997  22.0929988
 104.9490012  76.5384997  23.1579988 104.9101848  75.7002500  22.9254834
  98.5690012  74.3774997  24.8199988  98.7220012  74.0294997  25.6989988
  97.7190012  74.0214997  24.5649988  98.4748962  74.2816650  24.9058340
 108.0180012  74.7424997  20.0409988 108.3930012  73.9984997  19.5709988
 108.0220012  74.4724997  20.9599988 108.0698915  74.6041486  20.1007824
 107.6870012  74.6684997  22.7909988 106.7510012  74.7684997  22.9689988
 107.9670012  73.9594997  23.3689988 107.5968255  74.5862711  22.8935391
 110.6750012  63.7354997  34.8369988 110.2680012  64.2164997  34.1159988
 110.7160012  62.8304997  34.5289988 110.6248437  63.6789374  34.6966683
 100.4430012  58.5894997  28.8289988  99.5810012  58.5024997  28.4219988
 100.4200012  59.4454997  29.2569988 100.3220330  58.6932765  28.8311863
 105.1060012  58.3114997  32.2039988 105.5260012  57.8964997  32.9569988
 104.1730012  58.1334997  32.3209988 105.0373644  58.2305900  32.3229539
 108.4320012  62.0674997  33.0569988 107.9180012  61.9414997  33.8549988
 108.2770012  62.9794997  32.8129988 108.3406852  62.1736132  33.1332158
 109.1950012  66.9284997  18.8189988 109.2370012  66.7054997  17.8889988
 110.0440012  67.3274997  19.0089988 109.3155396  66.9519155  18.7173627
 104.7670012  60.8044997  19.4889988 104.5140012  60.8234997  20.4119988
 104.5110012  59.9324997  19.1879988 104.6977790  60.6892437  19.5746263
 100.5340012  63.5554997  29.9239988  99.8920012  63.5144997  30.6329988
 100.5710012  64.4814997  29.6869988 100.4511324  63.6751559  29.9889824
 100.5310012  63.7764997  24.8359988  99.6380012  63.4354997  24.7779988
 100.9810012  63.3994997  24.0809988 100.4697305  63.6788484  24.7259177
 106.0660012  64.1924997  23.6529988 105.6570012  65.0074997  23.3619988
 106.7870012  64.0524997  23.0389988 106.1074537  64.2852018  23.5301342
 105.1680012  64.3674997  35.1409988 104.6060012  63.6634997  35.4619988
 105.9950012  64.2474997  35.6089988 105.2027095  64.2547883  35.2482330
 107.0710012  63.6384997  26.4669988 106.8760012  64.2434997  25.7519988
 107.2520012  62.8044997  26.0329988 107.0687614  63.6086300  26.3104405
  98.2840012  63.8754997  31.7909988  98.2460012  64.2754997  32.6599988
  97.7930012  63.0584997  31.8819988  98.2124684  63.8198069  31.9221059
 101.6500012  61.2494997  18.5899988 101.2190012  60.8044997  19.3199988
 100.9320012  61.6214997  18.0779988 101.4939438  61.2388940  18.6206799
  94.8920012  60.9914997  25.6419988  95.5230012  60.9624997  26.3609988
  95.3410012  60.5664997  24.9119988  95.0390774  60.9300492  25.6416553
  96.1660012  61.7374997  21.0659988  96.6400012  62.3284997  20.4809988
  95.4490012  62.2684997  21.4129988  96.1339341  61.8900867  21.0328836
 106.3350012  65.2764997  31.1389988 106.6580012  64.6454997  30.4959988
 105.8950012  64.7414997  31.7989988 106.3196895  65.1178441  31.1402850
 103.1120012  61.2034997  25.9229988 102.2010012  61.2604997  26.2109988
 103.6180012  61.1434997  26.7329988 103.0555413  61.2031985  26.0720622
  97.9410012  62.8324997  24.7489988  97.0510012  62.9324997  24.4089988
  98.2370012  61.9904997  24.4029988  97.8592823  62.7323545  24.6557213
 101.5940012  62.8324997  22.4059988 102.5250012  62.9614997  22.5839988
 101.3790012  63.5024997  21.7559988 101.6924247  62.9406565  22.3425747
 107.5170012  60.4384997  29.1869988 106.8410012  60.5694997  29.8509988
 107.0320012  60.2834997  28.3769988 107.3587145  60.4354905  29.1684517
 100.2680012  64.0274997  19.9729988  99.7250012  63.6474997  19.2809988
 101.1010012  64.2214997  19.5439988 100.3064399  64.0018124  19.8204526
 110.8050012  76.1104997  35.4639988 111.0050012  76.5344997  34.6289988
 111.4600012  76.4534997  36.0709988 110.9210051  76.2149648  35.4317836
 104.4320012  63.9914997  27.8099988 104.9970012  63.4444997  27.2629988
 104.2850012  63.4694997  28.5979988 104.4892918  63.8462024  27.8418454
  99.4340012  60.1274997  24.2279988  99.1170012  59.2254997  24.1929988
 100.2160012  60.1294997  23.6749988  99.4962284  60.0041628  24.1484783
 103.0590012  62.3794997  30.2239988 102.2230012  62.8334997  30.3339988
 103.5830012  62.6554997  30.9759988 103.0154414  62.4789376  30.3407136
 103.6030012  68.5924997  21.9079988 102.8580012  68.0854997  21.5859988
 103.4690012  68.6414997  22.8549988 103.4828776  68.5296940  21.9918647
 110.7530012  67.7254997  30.6949988 111.3950012  68.1824997  30.1509988
 109.9230012  67.8384997  30.2319988 110.7285963  67.8032704  30.5580177
 107.5010012  61.4064997  20.1079988 106.5620012  61.5184997  19.9559988
 107.7980012  62.2634997  20.4139988 107.4127666  61.5376443  20.1285768
 105.1220012  68.7764997  33.1449988 104.7770012  68.3954997  33.9519988
 104.9220012  69.7104997  33.2169988 105.0478061  68.8505228  33.2650961
 108.2190012  63.2734997  21.7679988 109.1110012  63.1364997  22.0869988
 108.2760012  64.0644997  21.2319988 108.3486285  63.3616660  21.7391691
  98.7280012  67.8874997  27.6779988  99.4730012  67.8854997  27.0769988
  98.8060012  67.0644997  28.1599988  98.8405518  67.7759315  27.6608929
 105.7290012  70.0514997  20.9339988 105.4330012  70.8774997  21.3149988
 105.0260012  69.4314997  21.1299988 105.5934914  70.0808199  21.0126443
 102.7520012  65.8654997  35.2059988 102.4560012  65.6994997  34.3109988
 103.6840012  65.6454997  35.1949988 102.8374166  65.8130640  35.0820536
 107.3730012  71.2384997  33.0959988 106.4720012  71.4214997  32.8279988
 107.4070012  71.4974997  34.0169988 107.2543041  71.2985512  33.1838197
 113.1040012  63.4834997  21.4629988 112.5500012  63.0874997  20.7909988
 113.2040012  64.3934997  21.1849988 113.0417059  63.5523586  21.3334401
 113.0670012  69.2834997  34.2999988 112.2160012  69.5214997  33.9329988
 113.6580012  69.2664997  33.5469988 113.0302487  69.3138258  34.1478893
 111.3990012  72.2694997  21.9279988 111.0260012  71.4434997  22.2369988
 111.6770012  72.0864997  21.0309988 111.3855630  72.1317303  21.8489626
 108.5600012  67.0774997  28.9489988 107.6310012  66.8454997  28.9219988
 109.0110012  66.3004997  28.6189988 108.4939216  66.9407238  28.9006917
 101.1030012  71.4054997  25.0819988 101.6300012  72.1784997  24.8819988
 100.2230012  71.6304997  24.7809988 101.0561773  71.5418005  25.0139010
  96.8580012  66.2674997  19.6689988  97.4740012  66.8944997  20.0489988
  95.9960012  66.5834997  19.9409988  96.8257698  66.3959430  19.7577183
 102.5300012  69.0684997  24.6589988 102.2890012  69.9934997  24.6999988
 101.7890012  68.6094997  25.0549988 102.3968409  69.1331421  24.7181377
 103.0450012  73.2174997  30.9739988 103.4070012  74.0724997  30.7399988
 103.5760012  72.9254997  31.7139988 103.1664473  73.2951060  31.0420855
 101.2130012  74.0904997  24.2039988 100.2630012  74.1954997  24.2549988
 101.5650012  74.9104997  24.5489988 101.1304203  74.2158314  24.2576650
 106.5890012  69.3164997  30.6739988 106.1630012  69.0894997  31.5009988
 107.1690012  68.5784997  30.4919988 106.6091868  69.1855299  30.7625830
 108.7920012  70.2454997  19.7479988 109.1450012  69.8654997  20.5529988
 107.8430012  70.1524997  19.8349988 108.7120441  70.1809596  19.8698559
 109.2470012  73.8684997  33.1439988 108.6460012  73.3134997  32.6479988
 109.5290012  74.5354997  32.5179988 109.2028519  73.8826841  32.9914952
 113.2950012  74.7254997  19.9489988 114.0390012  75.3114997  19.8089988
 112.6010012  75.2934997  20.2829988 113.3030292  74.8825582  19.9749961
  97.3700012  61.1014997  32.5509988  96.4770012  61.4404997  32.4829988
  97.2710012  60.2464997  32.9689988  97.2344164  61.0322588  32.5982235
 109.6580012  68.9184997  21.9749988 109.3800012  68.1904997  22.5309988
 110.5850012  69.0374997  22.1799988 109.7453124  68.8348802  22.0788845
 102.8830012  71.3574997  18.1949988 103.1220012  70.6094997  17.6479988
 102.6140012  70.9694997  19.0279988 102.8793675  71.2026638  18.2326865
 101.8200012  70.9274997  20.6519988 101.9660012  70.4074997  21.4419988
 101.8170012  71.8344997  20.9579988 101.8395989  70.9788853  20.8016088
  98.2730012  68.1804997  21.1619988  97.5870012  68.5324997  21.7289988
  98.7950012  68.9434997  20.9149988  98.2496852  68.3318578  21.2062118
 106.1040012  60.8424997  31.4409988 106.8030012  60.9164997  32.0909988
 105.7230012  59.9784997  31.5949988 106.1481767  60.7357624  31.5508322
 106.8890012  60.4944997  22.5379988 107.1090012  60.9664997  21.7349988
 107.4470012  60.8894997  23.2079988 106.9944968  60.6124285  22.5187331
 104.5570012  72.6254997  21.4009988 103.7410012  73.1224997  21.4529988
 105.0870012  73.1004997  20.7609988 104.5169161  72.7577722  21.3215956
 104.0890012  62.2224997  23.3729988 104.9010012  62.7274997  23.4189988
 103.8440012  62.0774997  24.2869988 104.1670520  62.2720375  23.5028517
 104.6240012  63.2084997  32.5579988 104.7430012  63.7824997  33.3149988
 105.2800012  62.5204997  32.6719988 104.7289757  63.1941079  32.6770825
 104.9720012  59.3034997  24.3109988 104.6260012  59.9214997  24.9559988
 105.6310012  59.8044997  23.8299988 105.0137826  59.4555802  24.3340971
 101.8960012  73.6694997  21.3829988 102.0560012  74.4684997  20.8819988
 101.6980012  73.9754997  22.2679988 101.8911649  73.8204469  21.4339815
 100.6300012  60.3664997  20.9979988 100.5470012  61.2554997  21.3449988
 101.5200012  60.1014997  21.2299988 100.7389469  60.4521430  21.0767626
 110.8290012  61.1154997  33.3929988 109.9120012  61.3784997  33.3049988
 111.1640012  61.1124997  32.4959988 110.7489900  61.1510224  33.2597919
 109.4310012  64.8664997  27.4879988 108.6330012  64.4514997  27.1599988
 109.8760012  64.1754997  27.9789988 109.3819885  64.7163543  27.5094889
  98.8890012  70.7944997  20.0589988  99.4810012  71.4934997  20.3349988
  99.3480012  70.3614997  19.3389988  99.0321142  70.8317049  19.9994830
  97.2050012  63.4584997  19.1749988  97.1600012  64.3974997  19.3529988
  96.3170012  63.2224997  18.9049988  97.0788574  63.5551892  19.1628912
 110.5170012  74.1224997  29.1109988 110.3620012  74.8004997  28.4539988
 111.4500012  74.1944997  29.3139988 110.6218500  74.2250170  29.0485119
  98.0130012  58.2404997  27.8479988  97.7840012  58.2994997  26.9199988
  97.5700012  57.4484997  28.1539988  97.9218530  58.1415753  27.7624786
  96.9430012  72.1804997  24.0079988  96.1110012  72.6534997  24.0359988
  97.4890012  72.6904997  23.4099988  96.9029739  72.3141871  23.9309716
 100.8290012  73.7124997  36.9589988 101.5960012  73.2534997  37.2999988
 100.8070012  73.4864997  36.0289988 100.9311434  73.6190409  36.8800043
 104.9210012  73.2204997  18.3339988 104.2770012  72.5894997  18.6549988
 105.6830012  72.6894997  18.1019988 104.9358077  73.0622920  18.3466011
 107.4060012  72.0924997  35.6879988 107.0550012  71.2364997  35.9309988
 108.1320012  72.2354997  36.2949988 107.4560769  71.9945636  35.8033619
 109.5250012  73.0374997  18.5679988 109.8080012  72.2434997  19.0199988
 110.2650012  73.2704997  18.0069988 109.6637486  72.9602803  18.5540698
 100.4800012  68.9474997  18.4249988 100.5440012  68.1534997  18.9559988
 101.1330012  68.8284997  17.7349988 100.5770241  68.8227148  18.4044317
 102.7940012  68.5734997  35.7249988 102.4650012  68.8444997  34.8679988
 102.9460012  67.6324997  35.6379988 102.7694809  68.4833862  35.5958244
 105.8320012  69.9944997  18.1609988 105.5630012  70.1744997  19.0619988
 105.6260012  69.0684997  18.0299988 105.7673825  69.8940152  18.2665214
 108.5280012  68.4894997  33.1089988 109.2740012  69.0774997  32.9889988
 107.7710012  69.0714997  33.1719988 108.5277554  68.6487011  33.1010907
 101.6290012  66.9194997  20.7309988 101.1690012  66.4354997  21.4169988
 101.8840012  66.2514997  20.0949988 101.6004902  66.7628731  20.7389334
 100.9180012  64.8124997  33.0869988 100.3000012  65.4874997  33.3669988
 101.2620012  65.1334997  32.2539988 100.8799615  64.9482721  33.0126581
 102.7000012  65.1624997  18.9929988 102.5200012  65.0084997  18.0659988
 103.6500012  65.2704997  19.0379988 102.8037776  65.1560175  18.8721843
 105.9380012  67.2844997  36.3639988 106.8910012  67.3674997  36.3369988
 105.7770012  66.5724997  36.9839988 106.0466426  67.1996746  36.4440579
 112.0900012  67.5174997  18.4389988 111.8160012  67.0924997  17.6259988
 112.1290012  68.4484997  18.2219988 112.0577699  67.5852484  18.2983610
 101.2570012  62.1674997  34.1689988 101.4070012  61.4384997  33.5669988
 101.2600012  62.9444997  33.6099988 101.2779302  62.1727851  34.0110692
 101.6700012  60.5374997  31.6619988 102.2060012  60.9884997  31.0099988
 100.8180012  60.4294997  31.2389988 101.6282178  60.5846390  31.5155756
 103.2520012  65.9764997  31.9009988 104.0020012  65.8204997  31.3279988
 102.9130012  66.8284997  31.6259988 103.3088921  66.0702968  31.7853561
 107.6670012  63.7914997  36.9299988 107.8600012  62.8604997  36.8179988
 108.5250012  64.2164997  36.9199988 107.8093020  63.7216389  36.9133361
 108.9840012  66.5804997  35.0069988 108.7030012  67.2894997  34.4299988
 109.9270012  66.5074997  34.8559988 109.0729027  66.6677646  34.9075551
  99.7360012  63.3654997  36.0809988  98.9690012  62.8334997  35.8709988
 100.4150012  63.0554997  35.4809988  99.7227022  63.2507506  35.9711648
 102.4760012  57.9934997  32.0929988 102.3770012  58.9404997  31.9879988
 101.7330012  57.6214997  31.6179988 102.3620564  58.0725902  32.0144560
 103.7400012  62.3154997  35.6569988 103.5040012  62.0954997  36.5589988
 102.9560012  62.1084997  35.1469988 103.6018628  62.2574760  35.7113932
 106.4550012  61.4424997  34.7329988 105.5080012  61.4744997  34.8649988
 106.7680012  60.8174997  35.3859988 106.3675475  61.3623207  34.8394455
 108.0890012  60.0764997  36.7379988 107.9930012  59.1244997  36.7319988
 107.7680012  60.3454997  37.5979988 108.0324070  59.9824035  36.8535441
  97.9160012  61.2864997  35.7849988  98.1280012  60.5794997  35.1749988
  97.8050012  60.8484997  36.6289988  97.9299721  61.1307084  35.8156843
 102.6970012  57.2874997  34.7649988 103.4090012  56.6474997  34.7509988
 102.5960012  57.5544997  33.8509988 102.7807939  57.2359938  34.6395650
 103.0510012  58.9704997  36.8179988 102.9190012  58.4944997  35.9979988
 102.4520012  59.7144997  36.7629988 102.9519071  59.0059618  36.6982886
 102.5970012  75.8534997  19.9949988 103.5300012  76.0114997  20.1379988
 102.3330012  76.5284997  19.3699988 102.6889510  75.9663611  19.9300741
  96.1660012  70.4894997  19.4769988  97.0800012  70.5684997  19.7509988
  96.1730012  69.8024997  18.8109988  96.2921131  70.4073961  19.4244393
  94.8150012  75.8824997  24.5549988  94.1680012  75.4204997  24.0219988
  95.1690012  75.2104997  25.1369988  94.7743849  75.7284723  24.5607959
  95.6850012  73.9634997  26.3589988  95.3500012  73.0834997  26.5309988
  95.9070012  74.3084997  27.2239988  95.6691783  73.8897500  26.4994208
 113.2330012  74.7724997  29.3399988 113.2120012  74.9574997  30.2789988
 113.9240012  75.3414997  28.9989988 113.3234618  74.8746606  29.4223864
 112.7970012  74.3404997  32.2619988 112.3090012  73.6044997  31.8909988
 113.3460012  73.9464997  32.9399988 112.8044872  74.1866249  32.3029160
 111.2470012  70.1294997  36.8999988 110.3810012  70.0244997  37.2939988
 111.6240012  70.8884997  37.3459988 111.1793308  70.2176900  37.0142393
 112.5480012  68.3864997  22.4139988 113.3980012  68.8074997  22.5409988
 112.5540012  67.6464997  23.0209988 112.6651372  68.3440803  22.5134344
 112.9430012  66.4394997  24.2379988 112.2160012  65.9604997  24.6349988
 113.5240012  66.6454997  24.9699988 112.9219375  66.4017090  24.3914129
 112.7020012  69.2244997  29.1849988 113.5350012  68.8464997  28.9049988
 112.8140012  70.1674997  29.0659988 112.8312647  69.3002218  29.1305487
 111.1880012  72.1024997  31.4919988 110.5410012  72.4274997  32.1179988
 110.6710012  71.6624997  30.8179988 111.0294029  72.0875004  31.4865827
 113.2110012  66.3404997  20.6289988 112.6890012  66.6974997  19.9099988
 113.1780012  67.0154997  21.3069988 113.1351634  66.4805413  20.6223145
 111.5600012  63.5804997  19.1799988 111.6560012  64.2474997  18.4989988
 111.4200012  62.7644997  18.6979988 111.5542135  63.5614500  19.0218491
 110.7290012  64.9604997  24.8009988 110.5790012  64.0154997  24.7799988
 110.3760012  65.2414997  25.6439988 110.6606625  64.8690441  24.9122346
  95.7650012  67.0384997  28.8109988  95.9490012  66.9564997  27.8749988
  96.6140012  66.9144997  29.2349988  95.9050139  67.0105003  28.7401455
 111.5860012  66.9304997  34.4389988 112.1690012  66.1964997  34.6309988
 112.1500012  67.7024997  34.4859988 111.7419769  66.9344227  34.4716159
 113.0820012  64.8334997  35.1239988 112.2190012  64.4544997  34.9579988
 113.6870012  64.0944997  35.0499988 113.0455979  64.6818023  35.0912817
 110.8070012  60.9884997  18.2969988 111.4180012  60.6174997  18.9339988
 109.9710012  60.5674997  18.4929988 110.7775032  60.8807554  18.4107035
 110.4400012  62.5434997  23.2629988 110.7200012  61.6364997  23.3869988
 111.1990012  62.9774997  22.8739988 110.5809277  62.4780942  23.2273682
 111.0520012  63.1244997  28.6989988 111.9850012  63.3364997  28.6649988
 110.8170012  63.2264997  29.6209988 111.1478036  63.1672769  28.8189976
 111.0810012  63.8614997  31.4749988 110.2380012  64.1294997  31.8409988
 111.5230012  64.6834997  31.2639988 111.0254158  64.0093291  31.4965491
 113.3640012  57.8414997  36.8279988 113.7140012  57.1874997  36.2229988
 113.5110012  58.6784997  36.3889988 113.4318419  57.8651591  36.6857118
 111.0530012  59.8064997  23.3109988 111.2360012  59.3574997  24.1369988
 110.4540012  59.2214997  22.8479988 110.9970202  59.6659975  23.3613275
  96.5830012  60.6214997  27.8429988  97.0290012  59.8294997  28.1449988
  97.0500012  61.3374997  28.2739988  96.7070172  60.6100624  27.9424820
  94.8870012  63.6204997  28.9119988  95.3790012  63.3994997  28.1209988
  95.2500012  64.4614997  29.1929988  95.0033126  63.7038357  28.8417531
 112.8840012  59.9504997  35.1779988 111.9660012  60.2214997  35.1419988
 113.0070012  59.4154997  34.3929988 112.7751066  59.9152892  35.0670487
 112.9200012  59.8734997  19.8389988 113.3320012  59.1524997  19.3639988
 113.6020012  60.5434997  19.8979988 113.0685885  59.8652368  19.7818915
  95.2010012  59.8784997  22.9659988  94.2760012  60.0874997  22.8369988
  95.6550012  60.3624997  22.2769988  95.1357368  59.9725993  22.8551226
 109.9720012  74.8624997  24.9119988 110.6240012  74.5154997  24.3039988
 110.4820012  75.3514997  25.5579988 110.1302637  74.8810597  24.9160236
  95.1650012  58.6164997  31.3109988  94.5000012  58.3704997  31.9539988
  94.7220012  59.2384997  30.7329988  95.0140956  58.6668632  31.3209352
 100.3110012  72.7664997  31.7139988  99.8860012  73.5754997  31.4309988
 101.2150012  72.8514997  31.4119988 100.3750271  72.8888469  31.6343776
 104.6220012  74.1654997  34.6729988 104.8070012  73.8314997  35.5509988
 105.4680012  74.4744997  34.3509988 104.7617539  74.1616047  34.7495605
 106.9670012  75.4514997  33.9169988 107.6440012  74.8184997  33.6769988
 107.2890012  75.8524997  34.7239988 107.1031637  75.4191154  33.9932793
 111.8840012  58.0404997  32.9969988 111.0720012  58.3654997  32.6089988
 112.1170012  57.2804997  32.4639988 111.8043423  57.9822436  32.8718253
 100.1800012  75.6224997  30.7909988  99.3150012  75.6944997  31.1949988
 100.1250012  76.1694997  30.0069988 100.0542085  75.7062685  30.7403362
 104.8900012  75.5104997  29.9659988 104.4340012  76.0394997  29.3119988
 105.0530012  76.1134997  30.6919988 104.8495585  75.6644468  29.9745062
 107.2180012  74.3884997  30.9109988 106.3130012  74.5534997  30.6459988
 107.6470012  75.2414997  30.8459988 107.1520799  74.5264483  30.8659182
 109.8220012  75.9584997  31.2059988 109.6400012  76.8744997  30.9959988
 109.9990012  75.5484997  30.3599988 109.8210210  76.0284822  31.0627885
  97.1270012  74.6454997  28.6709988  97.1090012  74.2204997  29.5289988
  97.9320012  74.3274997  28.2629988  97.2333875  74.5443812  28.7331655
  99.2690012  73.3554997  27.3259988  99.0500012  72.4394997  27.4959988
 100.0930012  73.4954997  27.7919988  99.3504420  73.2490520  27.4122774
 101.8060012  73.8254997  28.1749988 102.0190012  72.9374997  27.8879988
 101.8700012  73.7914997  29.1289988 101.8438232  73.6993102  28.2647397
 105.3140012  59.4894997  27.3189988 104.6400012  58.8604997  27.5749988
 105.8780012  59.0054997  26.7159988 105.2979230  59.3378744  27.2725340
 110.4570012  57.5974997  27.4319988 111.0610012  58.1444997  26.9299988
 109.5870012  57.9164997  27.1919988 110.4221241  57.7155806  27.3307654
 112.1840012  58.7354997  25.7649988 112.7960012  58.2214997  25.2389988
 112.5660012  59.6134997  25.7889988 112.3194540  58.7837140  25.6961830
  97.6410012  58.1234997  25.1409988  96.8640012  57.8894997  24.6339988
  98.1710012  57.3264997  25.1499988  97.6062330  57.9836988  25.0727742
  96.4770012  57.9214997  20.9449988  96.9160012  58.5324997  20.3529988
  95.8440012  58.4594997  21.4189988  96.4514514  58.0779257  20.9280930
 102.2200012  58.0504997  24.9549988 103.0950012  58.4384997  24.9249988
 102.0840012  57.8354997  25.8769988 102.3213695  58.0745184  25.0756440
 107.7770012  58.0804997  26.6039988 107.8530012  58.1754997  25.6539988
 107.5020012  57.1724997  26.7329988 107.7502321  57.9707867  26.4915079
 109.1300012  58.1064997  22.2959988 108.4280012  58.7214997  22.0869988
 108.6860012  57.2684997  22.4269988 108.9736330  58.0775783  22.2850328
  96.3780012  73.8694997  21.8429988  95.6930012  73.8314997  21.1749988
  96.3820012  74.7824997  22.1309988  96.2848193  73.9877016  21.7905284
  98.3380012  59.8374997  19.3869988  98.8300012  59.2074997  18.8599988
  98.9620012  60.1334997  20.0509988  98.4895446  59.7913199  19.4045980
 103.3640012  60.1304997  21.8439988 103.5420012  59.4844997  22.5269988
 103.3110012  60.9644997  22.3119988 103.3811829  60.1547985  22.0005940
 105.2430012  75.0794997  20.2399988 106.1090012  75.4454997  20.0619988
 104.9960012  74.6394997  19.4259988 105.3282392  75.0701756  20.1056289
 111.9520012  74.6424997  22.9189988 111.7570012  73.8944997  22.3539988
 111.9130012  75.4004997  22.3359988 111.9200380  74.6426099  22.7628384
  97.5990012  58.6374997  34.6589988  97.2330012  57.8724997  35.1019988
  98.5120012  58.6664997  34.9459988  97.6722790  58.5367224  34.7584070
  99.5720012  57.9884997  36.1949988 100.4700012  57.7144997  36.0099988
  99.1850012  57.2454997  36.6589988  99.6426612  57.8505914  36.2323643
  98.1960012  74.7894997  18.8679988  97.9290012  75.0764997  19.7409988
  98.9680012  74.2434997  19.0199988  98.2637488  74.7550294  19.0081050
 107.9930012  57.3204997  36.3769988 108.0700012  56.8944997  37.2309988
 108.8870012  57.3344997  36.0339988 108.1243428  57.2640879  36.4475310
 111.1690012  73.3934997  35.0689988 110.3870012  73.2074997  34.5499988
 111.0970012  74.3224997  35.2869988 111.0521777  73.4936492  35.0274048
 125.5750012  67.2794997  25.0999988 125.6640012  68.2234997  24.9679988
 124.9370012  67.0044997  24.4419988 125.5009081  67.3714830  24.9929614
 124.5080012  66.5344997  28.5189988 124.4700012  65.8884997  29.2239988
 124.1860012  66.0684997  27.7479988 124.4592333  66.3829408  28.5112978
 116.8770012  66.1494997  30.1119988 116.9180012  65.5234997  30.8349988
 117.5800012  66.7734997  30.2939988 116.9776363  66.1481196  30.2356044
 128.2140012  69.4734997  26.8199988 127.7740012  68.7534997  27.2709988
 128.2010012  70.1944997  27.4499988 128.1520226  69.4723731  26.9668494
 117.8000012  70.5994997  28.6469988 117.4310012  69.7974997  28.2769988
 118.7410012  70.4304997  28.6929988 117.8767289  70.4670153  28.6026316
 114.4100012  64.2594997  24.0399988 113.9630012  65.1054997  24.0209988
 113.8490012  63.6794997  23.5239988 114.2729900  64.2969916  23.9676801
 115.1210012  66.4214997  26.1659988 115.3340012  65.6514997  26.6929988
 115.8590012  66.5104997  25.5619988 115.2498496  66.3281394  26.1565300
 125.3260012  74.5784997  27.0329988 125.9460012  73.9014997  26.7589988
 125.1180012  74.3604997  27.9409988 125.3826904  74.4563870  27.1183365
 122.8980012  68.9674997  28.9249988 123.2020012  68.2814997  28.3299988
 123.6190012  69.0854997  29.5429988 123.0370671  68.8896304  28.9271816
 131.5610012  60.5684997  29.7859988 131.6100012  61.1784997  30.5219988
 131.9860012  61.0294997  29.0629988 131.6251824  60.7143741  29.7890205
 126.0390012  63.3614997  29.2529988 126.1810012  62.4154997  29.2729988
 125.9320012  63.5684997  28.3239988 126.0439864  63.2599534  29.1302339
 119.1930012  61.4624997  26.5249988 119.2370012  62.3224997  26.1069988
 118.7360012  60.9104997  25.8909988 119.1372185  61.5055799  26.3820299
 126.9160012  61.5934997  24.9259988 127.5620012  61.2644997  25.5509988
 127.4260012  62.1114997  24.3029988 127.0734264  61.6184611  24.9273862
 115.8140012  63.8594997  27.2869988 116.4670012  63.3094997  27.7189988
 115.8380012  63.5854997  26.3699988 115.9066683  63.7471466  27.2222123
 120.9700012  65.4094997  26.5019988 121.5860012  64.8834997  27.0119988
 120.3840012  64.7694997  26.0989988 120.9750810  65.2509208  26.5173173
 131.9520012  62.0464997  32.0219988 131.2640012  62.7044997  31.9259988
 131.9680012  61.8494997  32.9579988 131.8598525  62.1100462  32.1354808
 118.0040012  60.3804997  30.5989988 117.7850012  60.9104997  29.8329988
 117.3360012  60.6074997  31.2459988 117.8837600  60.4836906  30.5816379
 125.3730012  69.8804997  24.1429988 125.0770012  69.5584997  23.2919988
 125.0480012  70.7804997  24.1839988 125.2886371  69.9580215  24.0321801
 120.5730012  68.0564997  30.8859988 119.8330012  68.6544997  30.9899988
 121.2870012  68.6104997  30.5709988 120.5682237  68.2132831  30.8576465
 128.6800012  60.8844997  26.9059988 128.4640012  60.1184997  27.4389988
 129.3350012  61.3564997  27.4189988 128.7390632  60.8435889  27.0482861
 117.5970012  62.2724997  28.5509988 118.2110012  62.9054997  28.9249988
 118.1090012  61.8004997  27.8949988 117.7502296  62.2952370  28.5134252
 118.9800012  70.0204997  31.6739988 118.9750012  70.9004997  31.2959988
 118.1270012  69.9374997  32.0989988 118.8639464  70.1296117  31.6797907
 115.1010012  69.6914997  22.4559988 114.8290012  69.9204997  21.5669988
 115.1470012  70.5294997  22.9159988 115.0700094  69.8361213  22.3965697
 128.7260012  71.3134997  29.1679988 127.7850012  71.3714997  29.3299988
 129.0030012  72.2194997  29.0309988 128.6344679  71.4439443  29.1716815
 129.0270012  59.5994997  30.5859988 128.2910012  60.2104997  30.5479988
 129.7100012  60.0144997  30.0589988 129.0186541  59.7391374  30.5095832
 122.0300012  57.6864997  28.0519988 121.9130012  56.7374997  27.9969988
 121.1750012  58.0184997  28.3249988 121.8983733  57.6015409  28.0813897
 126.9780012  73.0944997  25.7939988 127.4040012  72.3874997  25.3089988
 127.2950012  73.8954997  25.3769988 127.0791019  73.1060994  25.6713130
 128.1380012  70.9954997  24.3019988 127.8800012  70.3054997  23.6909988
 128.2090012  70.5524997  25.1479988 128.1122856  70.8412124  24.3326885
 129.8240012  69.5614997  32.7799988 129.9640012  68.9704997  32.0399988
 129.9910012  70.4344997  32.4229988 129.8656778  69.5986426  32.6306965
 124.2970012  66.5234997  22.5519988 123.5850012  67.0584997  22.1999988
 124.9880012  66.5794997  21.8919988 124.2930132  66.6042543  22.4146289
 124.3500012  64.9814997  19.5909988 125.0510012  65.0034997  20.2419988
 124.6530012  64.3534997  18.9349988 124.4867830  64.8996566  19.5913711
 131.6660012  65.9014997  30.8459988 131.0130012  66.5964997  30.9349988
 132.1310012  66.1114997  30.0359988 131.6395390  66.0249425  30.7486883
 127.7020012  66.7334997  23.5039988 126.9700012  66.9614997  24.0769988
 128.1500012  66.0194997  23.9589988 127.6623095  66.6682571  23.6439119
 127.6000012  64.9074997  32.5709988 127.6800012  65.6704997  33.1429988
 126.9980012  65.1864997  31.8809988 127.5295756  65.0497134  32.5560589
 119.3480012  67.3634997  25.3859988 119.0170012  66.9934997  24.5679988
 119.9360012  66.6934997  25.7329988 119.3821873  67.2221156  25.3208102
 120.7140012  70.7914997  28.0679988 120.6200012  70.2134997  27.3109988
 121.4440012  70.4204997  28.5639988 120.7997981  70.6622390  28.0314165
 119.7140012  66.1324997  29.0199988 120.2800012  66.2534997  28.2569988
 120.0330012  66.7694997  29.6589988 119.8345786  66.2351884  29.0020040
 126.0230012  71.6354997  29.7539988 125.7830012  72.2974997  30.4019988
 125.8250012  70.8014997  30.1789988 125.9633808  71.6133134  29.9001524
 120.5940012  70.5314997  33.7369988 120.2830012  71.3134997  34.1919988
 119.9440012  70.3784997  33.0509988 120.4635558  70.6179105  33.7065871
 126.5730012  65.8954997  21.1889988 127.1530012  66.0454997  21.9359988
 126.9870012  66.3664997  20.4659988 126.7082830  65.9796841  21.1934134
 117.5140012  66.7294997  32.9659988 117.5850012  67.3804997  33.6639988
 116.6240012  66.8324997  32.6309988 117.4033117  66.8325936  33.0162700
 124.3000012  72.6324997  24.6239988 124.7740012  72.9274997  25.4019988
 123.7370012  73.3704997  24.3909988 124.2887653  72.7726932  24.6990136
 118.8340012  72.6034997  34.4999988 118.8410012  72.4674997  33.5529988
 117.9180012  72.4854997  34.7519988 118.7111714  72.5689430  34.4044666
 130.2720012  57.6454997  21.0019988 129.3720012  57.7844997  21.2969988
 130.5240012  58.4764997  20.5999988 130.1828702  57.7769074  20.9880205
 118.3380012  66.4334997  22.9759988 118.0460012  67.2014997  22.4849988
 117.6640012  65.7734997  22.8129988 118.2069081  66.4494406  22.8867340
 131.4610012  72.0114997  19.3779988 131.5350012  72.9504997  19.5489988
 132.3670012  71.7064997  19.3219988 131.5935100  72.0986722  19.3938119
 114.4310012  68.7964997  31.7909988 113.9300012  68.7684997  30.9759988
 114.4360012  67.8904997  32.0999988 114.3631526  68.6702278  31.7212872
 114.1810012  71.5764997  28.6749988 115.1270012  71.4324997  28.6559988
 114.0690012  72.3604997  29.2119988 114.2952727  71.6628046  28.7450072
 132.3790012  72.2424997  34.3569988 132.3300012  71.2874997  34.3199988
 131.5520012  72.5104997  34.7579988 132.2604940  72.1478998  34.4061375
 123.3580012  71.8164997  33.2329988 123.4450012  72.6424997  33.7079988
 122.4940012  71.4864997  33.4819988 123.2531964  71.8849878  33.3316549
 123.7720012  75.5884997  23.0389988 123.6970012  75.4674997  22.0929988
 123.8050012  76.5384997  23.1579988 123.7661848  75.7002500  22.9254834
 117.4250012  74.3774997  24.8199988 117.5780012  74.0294997  25.6989988
 116.5750012  74.0214997  24.5649988 117.3308962  74.2816650  24.9058340
 126.8740012  74.7424997  20.0409988 127.2490012  73.9984997  19.5709988
 126.8780012  74.4724997  20.9599988 126.9258915  74.6041486  20.1007824
 126.5430012  74.6684997  22.7909988 125.6070012  74.7684997  22.9689988
 126.8230012  73.9594997  23.3689988 126.4528255  74.5862711  22.8935391
 129.5310012  63.7354997  34.8369988 129.1240012  64.2164997  34.1159988
 129.5720012  62.8304997  34.5289988 129.4808437  63.6789374  34.6966683
 116.6800012  70.1194997  32.8339988 116.8960012  69.7584997  33.6929988
 115.8250012  69.7454997  32.6239988 116.5939292  70.0194111  32.9233386
 119.2990012  58.5894997  28.8289988 118.4370012  58.5024997  28.4219988
 119.2760012  59.4454997  29.2569988 119.1780330  58.6932765  28.8311863
 123.9620012  58.3114997  32.2039988 124.3820012  57.8964997  32.9569988
 123.0290012  58.1334997  32.3209988 123.8933644  58.2305900  32.3229539
 127.2880012  62.0674997  33.0569988 126.7740012  61.9414997  33.8549988
 127.1330012  62.9794997  32.8129988 127.1966852  62.1736132  33.1332158
 128.0510012  66.9284997  18.8189988 128.0930012  66.7054997  17.8889988
 128.9000012  67.3274997  19.0089988 128.1715396  66.9519155  18.7173627
 123.6230012  60.8044997  19.4889988 123.3700012  60.8234997  20.4119988
 123.3670012  59.9324997  19.1879988 123.5537790  60.6892437  19.5746263
 119.3900012  63.5554997  29.9239988 118.7480012  63.5144997  30.6329988
 119.4270012  64.4814997  29.6869988 119.3071324  63.6751559  29.9889824
 119.3870012  63.7764997  24.8359988 118.4940012  63.4354997  24.7779988
 119.8370012  63.3994997  24.0809988 119.3257305  63.6788484  24.7259177
 124.9220012  64.1924997  23.6529988 124.5130012  65.0074997  23.3619988
 125.6430012  64.0524997  23.0389988 124.9634537  64.2852018  23.5301342
 124.0240012  64.3674997  35.1409988 123.4620012  63.6634997  35.4619988
 124.8510012  64.2474997  35.6089988 124.0587095  64.2547883  35.2482330
 125.9270012  63.6384997  26.4669988 125.7320012  64.2434997  25.7519988
 126.1080012  62.8044997  26.0329988 125.9247614  63.6086300  26.3104405
 117.1400012  63.8754997  31.7909988 117.1020012  64.2754997  32.6599988
 116.6490012  63.0584997  31.8819988 117.0684684  63.8198069  31.9221059
 120.5060012  61.2494997  18.5899988 120.0750012  60.8044997  19.3199988
 119.7880012  61.6214997  18.0779988 120.3499438  61.2388940  18.6206799
 113.7480012  60.9914997  25.6419988 114.3790012  60.9624997  26.3609988
 114.1970012  60.5664997  24.9119988 113.8950774  60.9300492  25.6416553
 115.0220012  61.7374997  21.0659988 115.4960012  62.3284997  20.4809988
 114.3050012  62.2684997  21.4129988 114.9899341  61.8900867  21.0328836
 125.1910012  65.2764997  31.1389988 125.5140012  64.6454997  30.4959988
 124.7510012  64.7414997  31.7989988 125.1756895  65.1178441  31.1402850
 121.9680012  61.2034997  25.9229988 121.0570012  61.2604997  26.2109988
 122.4740012  61.1434997  26.7329988 121.9115413  61.2031985  26.0720622
 116.7970012  62.8324997  24.7489988 115.9070012  62.9324997  24.4089988
 117.0930012  61.9904997  24.4029988 116.7152823  62.7323545  24.6557213
 120.4500012  62.8324997  22.4059988 121.3810012  62.9614997  22.5839988
 120.2350012  63.5024997  21.7559988 120.5484247  62.9406565  22.3425747
 126.3730012  60.4384997  29.1869988 125.6970012  60.5694997  29.8509988
 125.8880012  60.2834997  28.3769988 126.2147145  60.4354905  29.1684517
 119.1240012  64.0274997  19.9729988 118.5810012  63.6474997  19.2809988
 119.9570012  64.2214997  19.5439988 119.1624399  64.0018124  19.8204526
 129.6610012  76.1104997  35.4639988 129.8610012  76.5344997  34.6289988
 130.3160012  76.4534997  36.0709988 129.7770051  76.2149648  35.4317836
 117.2590012  68.5844997  35.0719988 117.9910012  68.8384997  35.6329988
 116.4790012  68.7884997  35.5869988 117.2538232  68.6469177  35.2185760
 123.2880012  63.9914997  27.8099988 123.8530012  63.4444997  27.2629988
 123.1410012  63.4694997  28.5979988 123.3452918  63.8462024  27.8418454
 118.2900012  60.1274997  24.2279988 117.9730012  59.2254997  24.1929988
 119.0720012  60.1294997  23.6749988 118.3522284  60.0041628  24.1484783
 121.9150012  62.3794997  30.2239988 121.0790012  62.8334997  30.3339988
 122.4390012  62.6554997  30.9759988 121.8714414  62.4789376  30.3407136
 122.4590012  68.5924997  21.9079988 121.7140012  68.0854997  21.5859988
 122.3250012  68.6414997  22.8549988 122.3388776  68.5296940  21.9918647
 129.6090012  67.7254997  30.6949988 130.2510012  68.1824997  30.1509988
 128.7790012  67.8384997  30.2319988 129.5845963  67.8032704  30.5580177
 126.3570012  61.4064997  20.1079988 125.4180012  61.5184997  19.9559988
 126.6540012  62.2634997  20.4139988 126.2687666  61.5376443  20.1285768
 123.9780012  68.7764997  33.1449988 123.6330012  68.3954997  33.9519988
 123.7780012  69.7104997  33.2169988 123.9038061  68.8505228  33.2650961
 127.0750012  63.2734997  21.7679988 127.9670012  63.1364997  22.0869988
 127.1320012  64.0644997  21.2319988 127.2046285  63.3616660  21.7391691
 117.5840012  67.8874997  27.6779988 118.3290012  67.8854997  27.0769988
 117.6620012  67.0644997  28.1599988 117.6965518  67.7759315  27.6608929
 124.5850012  70.0514997  20.9339988 124.2890012  70.8774997  21.3149988
 123.8820012  69.4314997  21.1299988 124.4494914  70.0808199  21.0126443
 114.5920012  66.3484997  32.9929988 114.8150012  65.9304997  33.8249988
 113.9900012  65.7354997  32.5699988 114.5411759  66.2084668  33.0497022
 121.6080012  65.8654997  35.2059988 121.3120012  65.6994997  34.3109988
 122.5400012  65.6454997  35.1949988 121.6934166  65.8130640  35.0820536
 126.2290012  71.2384997  33.0959988 125.3280012  71.4214997  32.8279988
 126.2630012  71.4974997  34.0169988 126.1103041  71.2985512  33.1838197
 131.9600012  63.4834997  21.4629988 131.4060012  63.0874997  20.7909988
 132.0600012  64.3934997  21.1849988 131.8977059  63.5523586  21.3334401
 131.9230012  69.2834997  34.2999988 131.0720012  69.5214997  33.9329988
 132.5140012  69.2664997  33.5469988 131.8862487  69.3138258  34.1478893
 130.2550012  72.2694997  21.9279988 129.8820012  71.4434997  22.2369988
 130.5330012  72.0864997  21.0309988 130.2415630  72.1317303  21.8489626
 127.4160012  67.0774997  28.9489988 126.4870012  66.8454997  28.9219988
 127.8670012  66.3004997  28.6189988 127.3499216  66.9407238  28.9006917
 119.9590012  71.4054997  25.0819988 120.4860012  72.1784997  24.8819988
 119.0790012  71.6304997  24.7809988 119.9121773  71.5418005  25.0139010
 115.7140012  66.2674997  19.6689988 116.3300012  66.8944997  20.0489988
 114.8520012  66.5834997  19.9409988 115.6817698  66.3959430  19.7577183
 121.3860012  69.0684997  24.6589988 121.1450012  69.9934997  24.6999988
 120.6450012  68.6094997  25.0549988 121.2528409  69.1331421  24.7181377
 121.9010012  73.2174997  30.9739988 122.2630012  74.0724997  30.7399988
 122.4320012  72.9254997  31.7139988 122.0224473  73.2951060  31.0420855
 120.0690012  74.0904997  24.2039988 119.1190012  74.1954997  24.2549988
 120.4210012  74.9104997  24.5489988 119.9864203  74.2158314  24.2576650
 125.4450012  69.3164997  30.6739988 125.0190012  69.0894997  31.5009988
 126.0250012  68.5784997  30.4919988 125.4651868  69.1855299  30.7625830
 127.6480012  70.2454997  19.7479988 128.0010012  69.8654997  20.5529988
 126.6990012  70.1524997  19.8349988 127.5680441  70.1809596  19.8698559
 128.1030012  73.8684997  33.1439988 127.5020012  73.3134997  32.6479988
 128.3850012  74.5354997  32.5179988 128.0588519  73.8826841  32.9914952
 132.1510012  74.7254997  19.9489988 132.8950012  75.3114997  19.8089988
 131.4570012  75.2934997  20.2829988 132.1590292  74.8825582  19.9749961
 116.2260012  61.1014997  32.5509988 115.3330012  61.4404997  32.4829988
 116.1270012  60.2464997  32.9689988 116.0904164  61.0322588  32.5982235
 128.5140012  68.9184997  21.9749988 128.2360012  68.1904997  22.5309988
 129.4410012  69.0374997  22.1799988 128.6013124  68.8348802  22.0788845
 115.8770012  72.9064997  30.9859988 116.0940012  71.9744997  30.9549988
 116.1230012  73.1804997  31.8689988 115.9399549  72.8160636  31.1011763
 121.7390012  71.3574997  18.1949988 121.9780012  70.6094997  17.6479988
 121.4700012  70.9694997  19.0279988 121.7353675  71.2026638  18.2326865
 120.6760012  70.9274997  20.6519988 120.8220012  70.4074997  21.4419988
 120.6730012  71.8344997  20.9579988 120.6955989  70.9788853  20.8016088
 117.1290012  68.1804997  21.1619988 116.4430012  68.5324997  21.7289988
 117.6510012  68.9434997  20.9149988 117.1056852  68.3318578  21.2062118
 124.9600012  60.8424997  31.4409988 125.6590012  60.9164997  32.0909988
 124.5790012  59.9784997  31.5949988 125.0041767  60.7357624  31.5508322
 125.7450012  60.4944997  22.5379988 125.9650012  60.9664997  21.7349988
 126.3030012  60.8894997  23.2079988 125.8504968  60.6124285  22.5187331
 123.4130012  72.6254997  21.4009988 122.5970012  73.1224997  21.4529988
 123.9430012  73.1004997  20.7609988 123.3729161  72.7577722  21.3215956
 122.9450012  62.2224997  23.3729988 123.7570012  62.7274997  23.4189988
 122.7000012  62.0774997  24.2869988 123.0230520  62.2720375  23.5028517
 123.4800012  63.2084997  32.5579988 123.5990012  63.7824997  33.3149988
 124.1360012  62.5204997  32.6719988 123.5849757  63.1941079  32.6770825
 123.8280012  59.3034997  24.3109988 123.4820012  59.9214997  24.9559988
 124.4870012  59.8044997  23.8299988 123.8697826  59.4555802  24.3340971
 120.7520012  73.6694997  21.3829988 120.9120012  74.4684997  20.8819988
 120.5540012  73.9754997  22.2679988 120.7471649  73.8204469  21.4339815
 119.4860012  60.3664997  20.9979988 119.4030012  61.2554997  21.3449988
 120.3760012  60.1014997  21.2299988 119.5949469  60.4521430  21.0767626
 129.6850012  61.1154997  33.3929988 128.7680012  61.3784997  33.3049988
 130.0200012  61.1124997  32.4959988 129.6049900  61.1510224  33.2597919
 128.2870012  64.8664997  27.4879988 127.4890012  64.4514997  27.1599988
 128.7320012  64.1754997  27.9789988 128.2379885  64.7163543  27.5094889
 117.7450012  70.7944997  20.0589988 118.3370012  71.4934997  20.3349988
 118.2040012  70.3614997  19.3389988 117.8881142  70.8317049  19.9994830
 116.0610012  63.4584997  19.1749988 116.0160012  64.3974997  19.3529988
 115.1730012  63.2224997  18.9049988 115.9348574  63.5551892  19.1628912
 129.3730012  74.1224997  29.1109988 129.2180012  74.8004997  28.4539988
 130.3060012  74.1944997  29.3139988 129.4778500  74.2250170  29.0485119
 116.8690012  58.2404997  27.8479988 116.6400012  58.2994997  26.9199988
 116.4260012  57.4484997  28.1539988 116.7778530  58.1415753  27.7624786
 115.7990012  72.1804997  24.0079988 114.9670012  72.6534997  24.0359988
 116.3450012  72.6904997  23.4099988 115.7589739  72.3141871  23.9309716
 115.0870012  74.7934997  35.3379988 115.6280012  74.5764997  36.0979988
 114.6060012  73.9874997  35.1489988 115.0959345  74.6549514  35.4163076
 119.6850012  73.7124997  36.9589988 120.4520012  73.2534997  37.2999988
 119.6630012  73.4864997  36.0289988 119.7871434  73.6190409  36.8800043
 123.7770012  73.2204997  18.3339988 123.1330012  72.5894997  18.6549988
 124.5390012  72.6894997  18.1019988 123.7918077  73.0622920  18.3466011
 126.2620012  72.0924997  35.6879988 125.9110012  71.2364997  35.9309988
 126.9880012  72.2354997  36.2949988 126.3120769  71.9945636  35.8033619
 128.3810012  73.0374997  18.5679988 128.6640012  72.2434997  19.0199988
 129.1210012  73.2704997  18.0069988 128.5197486  72.9602803  18.5540698
 114.9940012  68.6034997  36.2929988 115.1380012  67.7014997  36.0059988
 114.2220012  68.8894997  35.8049988 114.9093322  68.5188261  36.1877881
 119.3360012  68.9474997  18.4249988 119.4000012  68.1534997  18.9559988
 119.9890012  68.8284997  17.7349988 119.4330241  68.8227148  18.4044317
 121.6500012  68.5734997  35.7249988 121.3210012  68.8444997  34.8679988
 121.8020012  67.6324997  35.6379988 121.6254809  68.4833862  35.5958244
 124.6880012  69.9944997  18.1609988 124.4190012  70.1744997  19.0619988
 124.4820012  69.0684997  18.0299988 124.6233825  69.8940152  18.2665214
 127.3840012  68.4894997  33.1089988 128.1300012  69.0774997  32.9889988
 126.6270012  69.0714997  33.1719988 127.3837554  68.6487011  33.1010907
 115.8270012  65.8034997  35.7129988 116.2350012  64.9464997  35.5919988
 115.5670012  65.8184997  36.6339988 115.8477568  65.6880807  35.8209588
 120.4850012  66.9194997  20.7309988 120.0250012  66.4354997  21.4169988
 120.7400012  66.2514997  20.0949988 120.4564902  66.7628731  20.7389334
 119.7740012  64.8124997  33.0869988 119.1560012  65.4874997  33.3669988
 120.1180012  65.1334997  32.2539988 119.7359615  64.9482721  33.0126581
 121.5560012  65.1624997  18.9929988 121.3760012  65.0084997  18.0659988
 122.5060012  65.2704997  19.0379988 121.6597776  65.1560175  18.8721843
 124.7940012  67.2844997  36.3639988 125.7470012  67.3674997  36.3369988
 124.6330012  66.5724997  36.9839988 124.9026426  67.1996746  36.4440579
 130.9460012  67.5174997  18.4389988 130.6720012  67.0924997  17.6259988
 130.9850012  68.4484997  18.2219988 130.9137699  67.5852484  18.2983610
 120.1130012  62.1674997  34.1689988 120.2630012  61.4384997  33.5669988
 120.1160012  62.9444997  33.6099988 120.1339302  62.1727851  34.0110692
 120.5260012  60.5374997  31.6619988 121.0620012  60.9884997  31.0099988
 119.6740012  60.4294997  31.2389988 120.4842178  60.5846390  31.5155756
 122.1080012  65.9764997  31.9009988 122.8580012  65.8204997  31.3279988
 121.7690012  66.8284997  31.6259988 122.1648921  66.0702968  31.7853561
 126.5230012  63.7914997  36.9299988 126.7160012  62.8604997  36.8179988
 127.3810012  64.2164997  36.9199988 126.6653020  63.7216389  36.9133361
 127.8400012  66.5804997  35.0069988 127.5590012  67.2894997  34.4299988
 128.7830012  66.5074997  34.8559988 127.9289027  66.6677646  34.9075551
 118.5920012  63.3654997  36.0809988 117.8250012  62.8334997  35.8709988
 119.2710012  63.0554997  35.4809988 118.5787022  63.2507506  35.9711648
 121.3320012  57.9934997  32.0929988 121.2330012  58.9404997  31.9879988
 120.5890012  57.6214997  31.6179988 121.2180564  58.0725902  32.0144560
 122.5960012  62.3154997  35.6569988 122.3600012  62.0954997  36.5589988
 121.8120012  62.1084997  35.1469988 122.4578628  62.2574760  35.7113932
 125.3110012  61.4424997  34.7329988 124.3640012  61.4744997  34.8649988
 125.6240012  60.8174997  35.3859988 125.2235475  61.3623207  34.8394455
 126.9450012  60.0764997  36.7379988 126.8490012  59.1244997  36.7319988
 126.6240012  60.3454997  37.5979988 126.8884070  59.9824035  36.8535441
 116.7720012  61.2864997  35.7849988 116.9840012  60.5794997  35.1749988
 116.6610012  60.8484997  36.6289988 116.7859721  61.1307084  35.8156843
 121.5530012  57.2874997  34.7649988 122.2650012  56.6474997  34.7509988
 121.4520012  57.5544997  33.8509988 121.6367939  57.2359938  34.6395650
 121.9070012  58.9704997  36.8179988 121.7750012  58.4944997  35.9979988
 121.3080012  59.7144997  36.7629988 121.8079071  59.0059618  36.6982886
 121.4530012  75.8534997  19.9949988 122.3860012  76.0114997  20.1379988
 121.1890012  76.5284997  19.3699988 121.5449510  75.9663611  19.9300741
 115.0220012  70.4894997  19.4769988 115.9360012  70.5684997  19.7509988
 115.0290012  69.8024997  18.8109988 115.1481131  70.4073961  19.4244393
 113.6710012  75.8824997  24.5549988 113.0240012  75.4204997  24.0219988
 114.0250012  75.2104997  25.1369988 113.6303849  75.7284723  24.5607959
 114.5410012  73.9634997  26.3589988 114.2060012  73.0834997  26.5309988
 114.7630012  74.3084997  27.2239988 114.5251783  73.8897500  26.4994208
 132.0890012  74.7724997  29.3399988 132.0680012  74.9574997  30.2789988
 132.7800012  75.3414997  28.9989988 132.1794618  74.8746606  29.4223864
 131.6530012  74.3404997  32.2619988 131.1650012  73.6044997  31.8909988
 132.2020012  73.9464997  32.9399988 131.6604872  74.1866249  32.3029160
 130.1030012  70.1294997  36.8999988 129.2370012  70.0244997  37.2939988
 130.4800012  70.8884997  37.3459988 130.0353308  70.2176900  37.0142393
 131.4040012  68.3864997  22.4139988 132.2540012  68.8074997  22.5409988
 131.4100012  67.6464997  23.0209988 131.5211372  68.3440803  22.5134344
 131.7990012  66.4394997  24.2379988 131.0720012  65.9604997  24.6349988
 132.3800012  66.6454997  24.9699988 131.7779375  66.4017090  24.3914129
 131.5580012  69.2244997  29.1849988 132.3910012  68.8464997  28.9049988
 131.6700012  70.1674997  29.0659988 131.6872647  69.3002218  29.1305487
 130.0440012  72.1024997  31.4919988 129.3970012  72.4274997  32.1179988
 129.5270012  71.6624997  30.8179988 129.8854029  72.0875004  31.4865827
 132.0670012  66.3404997  20.6289988 131.5450012  66.6974997  19.9099988
 132.0340012  67.0154997  21.3069988 131.9911634  66.4805413  20.6223145
 130.4160012  63.5804997  19.1799988 130.5120012  64.2474997  18.4989988
 130.2760012  62.7644997  18.6979988 130.4102135  63.5614500  19.0218491
 129.5850012  64.9604997  24.8009988 129.4350012  64.0154997  24.7799988
 129.2320012  65.2414997  25.6439988 129.5166625  64.8690441  24.9122346
 114.6210012  67.0384997  28.8109988 114.8050012  66.9564997  27.8749988
 115.4700012  66.9144997  29.2349988 114.7610139  67.0105003  28.7401455
 130.4420012  66.9304997  34.4389988 131.0250012  66.1964997  34.6309988
 131.0060012  67.7024997  34.4859988 130.5979769  66.9344227  34.4716159
 131.9380012  64.8334997  35.1239988 131.0750012  64.4544997  34.9579988
 132.5430012  64.0944997  35.0499988 131.9015979  64.6818023  35.0912817
 129.6630012  60.9884997  18.2969988 130.2740012  60.6174997  18.9339988
 128.8270012  60.5674997  18.4929988 129.6335032  60.8807554  18.4107035
 129.2960012  62.5434997  23.2629988 129.5760012  61.6364997  23.3869988
 130.0550012  62.9774997  22.8739988 129.4369277  62.4780942  23.2273682
 129.9080012  63.1244997  28.6989988 130.8410012  63.3364997  28.6649988
 129.6730012  63.2264997  29.6209988 130.0038036  63.1672769  28.8189976
 129.9370012  63.8614997  31.4749988 129.0940012  64.1294997  31.8409988
 130.3790012  64.6834997  31.2639988 129.8814158  64.0093291  31.4965491
 114.2180012  62.3094997  34.9519988 115.1380012  62.1874997  35.1879988
 113.7690012  61.5594997  35.3409988 114.2831580  62.1913727  35.0369006
 132.2200012  57.8414997  36.8279988 132.5700012  57.1874997  36.2229988
 132.3670012  58.6784997  36.3889988 132.2878419  57.8651591  36.6857118
 129.9090012  59.8064997  23.3109988 130.0920012  59.3574997  24.1369988
 129.3100012  59.2214997  22.8479988 129.8530202  59.6659975  23.3613275
 115.4390012  60.6214997  27.8429988 115.8850012  59.8294997  28.1449988
 115.9060012  61.3374997  28.2739988 115.5630172  60.6100624  27.9424820
 113.7430012  63.6204997  28.9119988 114.2350012  63.3994997  28.1209988
 114.1060012  64.4614997  29.1929988 113.8593126  63.7038357  28.8417531
 131.7400012  59.9504997  35.1779988 130.8220012  60.2214997  35.1419988
 131.8630012  59.4154997  34.3929988 131.6311066  59.9152892  35.0670487
 131.7760012  59.8734997  19.8389988 132.1880012  59.1524997  19.3639988
 132.4580012  60.5434997  19.8979988 131.9245885  59.8652368  19.7818915
 114.0570012  59.8784997  22.9659988 113.1320012  60.0874997  22.8369988
 114.5110012  60.3624997  22.2769988 113.9917368  59.9725993  22.8551226
 128.8280012  74.8624997  24.9119988 129.4800012  74.5154997  24.3039988
 129.3380012  75.3514997  25.5579988 128.9862637  74.8810597  24.9160236
 114.0210012  58.6164997  31.3109988 113.3560012  58.3704997  31.9539988
 113.5780012  59.2384997  30.7329988 113.8700956  58.6668632  31.3209352
 116.2130012  71.7914997  35.4549988 115.3920012  71.9664997  34.9949988
 115.9600012  71.7184997  36.3759988 116.0666164  71.8055622  35.5164923
 119.1670012  72.7664997  31.7139988 118.7420012  73.5754997  31.4309988
 120.0710012  72.8514997  31.4119988 119.2310271  72.8888469  31.6343776
 123.4780012  74.1654997  34.6729988 123.6630012  73.8314997  35.5509988
 124.3240012  74.4744997  34.3509988 123.6177539  74.1616047  34.7495605
 125.8230012  75.4514997  33.9169988 126.5000012  74.8184997  33.6769988
 126.1450012  75.8524997  34.7239988 125.9591637  75.4191154  33.9932793
 130.7400012  58.0404997  32.9969988 129.9280012  58.3654997  32.6089988
 130.9730012  57.2804997  32.4639988 130.6603423  57.9822436  32.8718253
 116.5690012  76.0224997  31.7609988 115.8480012  76.4624997  31.3099988
 116.2030012  75.7714997  32.6099988 116.4209804  76.0487698  31.8139840
 119.0360012  75.6224997  30.7909988 118.1710012  75.6944997  31.1949988
 118.9810012  76.1694997  30.0069988 118.9102085  75.7062685  30.7403362
 123.7460012  75.5104997  29.9659988 123.2900012  76.0394997  29.3119988
 123.9090012  76.1134997  30.6919988 123.7055585  75.6644468  29.9745062
 126.0740012  74.3884997  30.9109988 125.1690012  74.5534997  30.6459988
 126.5030012  75.2414997  30.8459988 126.0080799  74.5264483  30.8659182
 128.6780012  75.9584997  31.2059988 128.4960012  76.8744997  30.9959988
 128.8550012  75.5484997  30.3599988 128.6770210  76.0284822  31.0627885
 115.9830012  74.6454997  28.6709988 115.9650012  74.2204997  29.5289988
 116.7880012  74.3274997  28.2629988 116.0893875  74.5443812  28.7331655
 118.1250012  73.3554997  27.3259988 117.9060012  72.4394997  27.4959988
 118.9490012  73.4954997  27.7919988 118.2064420  73.2490520  27.4122774
 120.6620012  73.8254997  28.1749988 120.8750012  72.9374997  27.8879988
 120.7260012  73.7914997  29.1289988 120.6998232  73.6993102  28.2647397
 124.1700012  59.4894997  27.3189988 123.4960012  58.8604997  27.5749988
 124.7340012  59.0054997  26.7159988 124.1539230  59.3378744  27.2725340
 129.3130012  57.5974997  27.4319988 129.9170012  58.1444997  26.9299988
 128.4430012  57.9164997  27.1919988 129.2781241  57.7155806  27.3307654
 131.0400012  58.7354997  25.7649988 131.6520012  58.2214997  25.2389988
 131.4220012  59.6134997  25.7889988 131.1754540  58.7837140  25.6961830
 116.4970012  58.1234997  25.1409988 115.7200012  57.8894997  24.6339988
 117.0270012  57.3264997  25.1499988 116.4622330  57.9836988  25.0727742
 115.3330012  57.9214997  20.9449988 115.7720012  58.5324997  20.3529988
 114.7000012  58.4594997  21.4189988 115.3074514  58.0779257  20.9280930
 121.0760012  58.0504997  24.9549988 121.9510012  58.4384997  24.9249988
 120.9400012  57.8354997  25.8769988 121.1773695  58.0745184  25.0756440
 126.6330012  58.0804997  26.6039988 126.7090012  58.1754997  25.6539988
 126.3580012  57.1724997  26.7329988 126.6062321  57.9707867  26.4915079
 127.9860012  58.1064997  22.2959988 127.2840012  58.7214997  22.0869988
 127.5420012  57.2684997  22.4269988 127.8296330  58.0775783  22.2850328
 115.2340012  73.8694997  21.8429988 114.5490012  73.8314997  21.1749988
 115.2380012  74.7824997  22.1309988 115.1408193  73.9877016  21.7905284
 117.1940012  59.8374997  19.3869988 117.6860012  59.2074997  18.8599988
 117.8180012  60.1334997  20.0509988 117.3455446  59.7913199  19.4045980
 122.2200012  60.1304997  21.8439988 122.3980012  59.4844997  22.5269988
 122.1670012  60.9644997  22.3119988 122.2371829  60.1547985  22.0005940
 124.0990012  75.0794997  20.2399988 124.9650012  75.4454997  20.0619988
 123.8520012  74.6394997  19.4259988 124.1842392  75.0701756  20.1056289
 130.8080012  74.6424997  22.9189988 130.6130012  73.8944997  22.3539988
 130.7690012  75.4004997  22.3359988 130.7760380  74.6426099  22.7628384
 116.4550012  58.6374997  34.6589988 116.0890012  57.8724997  35.1019988
 117.3680012  58.6664997  34.9459988 116.5282790  58.5367224  34.7584070
 118.4280012  57.9884997  36.1949988 119.3260012  57.7144997  36.0099988
 118.0410012  57.2454997  36.6589988 118.4986612  57.8505914  36.2323643
 117.0520012  74.7894997  18.8679988 116.7850012  75.0764997  19.7409988
 117.8240012  74.2434997  19.0199988 117.1197488  74.7550294  19.0081050
 126.8490012  57.3204997  36.3769988 126.9260012  56.8944997  37.2309988
 127.7430012  57.3344997  36.0339988 126.9803428  57.2640879  36.4475310
 130.0250012  73.3934997  35.0689988 129.2430012  73.2074997  34.5499988
 129.9530012  74.3224997  35.2869988 129.9081777  73.4936492  35.0274048
 144.4310012  67.2794997  25.0999988 144.5200012  68.2234997  24.9679988
 143.7930012  67.0044997  24.4419988 144.3569081  67.3714830  24.9929614
 143.3640012  66.5344997  28.5189988 143.3260012  65.8884997  29.2239988
 143.0420012  66.0684997  27.7479988 143.3152333  66.3829408  28.5112978
 135.7330012  66.1494997  30.1119988 135.7740012  65.5234997  30.8349988
 136.4360012  66.7734997  30.2939988 135.8336363  66.1481196  30.2356044
 136.6560012  70.5994997  28.6469988 136.2870012  69.7974997  28.2769988
 137.5970012  70.4304997  28.6929988 136.7327289  70.4670153  28.6026316
 133.2660012  64.2594997  24.0399988 132.8190012  65.1054997  24.0209988
 132.7050012  63.6794997  23.5239988 133.1289900  64.2969916  23.9676801
 133.9770012  66.4214997  26.1659988 134.1900012  65.6514997  26.6929988
 134.7150012  66.5104997  25.5619988 134.1058496  66.3281394  26.1565300
 144.1820012  74.5784997  27.0329988 144.8020012  73.9014997  26.7589988
 143.9740012  74.3604997  27.9409988 144.2386904  74.4563870  27.1183365
 141.7540012  68.9674997  28.9249988 142.0580012  68.2814997  28.3299988
 142.4750012  69.0854997  29.5429988 141.8930671  68.8896305  28.9271816
 144.8950012  63.3614997  29.2529988 145.0370012  62.4154997  29.2729988
 144.7880012  63.5684997  28.3239988 144.8999864  63.2599534  29.1302339
 138.0490012  61.4624997  26.5249988 138.0930012  62.3224997  26.1069988
 137.5920012  60.9104997  25.8909988 137.9932185  61.5055799  26.3820299
 134.6700012  63.8594997  27.2869988 135.3230012  63.3094997  27.7189988
 134.6940012  63.5854997  26.3699988 134.7626683  63.7471466  27.2222123
 139.8260012  65.4094997  26.5019988 140.4420012  64.8834997  27.0119988
 139.2400012  64.7694997  26.0989988 139.8310810  65.2509208  26.5173173
 136.8600012  60.3804997  30.5989988 136.6410012  60.9104997  29.8329988
 136.1920012  60.6074997  31.2459988 136.7397600  60.4836906  30.5816379
 144.2290012  69.8804997  24.1429988 143.9330012  69.5584997  23.2919988
 143.9040012  70.7804997  24.1839988 144.1446371  69.9580215  24.0321801
 139.4290012  68.0564997  30.8859988 138.6890012  68.6544997  30.9899988
 140.1430012  68.6104997  30.5709988 139.4242237  68.2132831  30.8576465
 136.4530012  62.2724997  28.5509988 137.0670012  62.9054997  28.9249988
 136.9650012  61.8004997  27.8949988 136.6062296  62.2952370  28.5134252
 137.8360012  70.0204997  31.6739988 137.8310012  70.9004997  31.2959988
 136.9830012  69.9374997  32.0989988 137.7199464  70.1296117  31.6797907
 133.9570012  69.6914997  22.4559988 133.6850012  69.9204997  21.5669988
 134.0030012  70.5294997  22.9159988 133.9260094  69.8361213  22.3965697
 140.8860012  57.6864997  28.0519988 140.7690012  56.7374997  27.9969988
 140.0310012  58.0184997  28.3249988 140.7543733  57.6015409  28.0813897
 143.1530012  66.5234997  22.5519988 142.4410012  67.0584997  22.1999988
 143.8440012  66.5794997  21.8919988 143.1490132  66.6042543  22.4146289
 143.2060012  64.9814997  19.5909988 143.9070012  65.0034997  20.2419988
 143.5090012  64.3534997  18.9349988 143.3427830  64.8996566  19.5913711
 138.2040012  67.3634997  25.3859988 137.8730012  66.9934997  24.5679988
 138.7920012  66.6934997  25.7329988 138.2381873  67.2221156  25.3208102
 139.5700012  70.7914997  28.0679988 139.4760012  70.2134997  27.3109988
 140.3000012  70.4204997  28.5639988 139.6557981  70.6622390  28.0314165
 138.5700012  66.1324997  29.0199988 139.1360012  66.2534997  28.2569988
 138.8890012  66.7694997  29.6589988 138.6905786  66.2351884  29.0020040
 144.8790012  71.6354997  29.7539988 144.6390012  72.2974997  30.4019988
 144.6810012  70.8014997  30.1789988 144.8193808  71.6133134  29.9001524
 139.4500012  70.5314997  33.7369988 139.1390012  71.3134997  34.1919988
 138.8000012  70.3784997  33.0509988 139.3195558  70.6179105  33.7065871
 136.3700012  66.7294997  32.9659988 136.4410012  67.3804997  33.6639988
 135.4800012  66.8324997  32.6309988 136.2593117  66.8325936  33.0162700
 143.1560012  72.6324997  24.6239988 143.6300012  72.9274997  25.4019988
 142.5930012  73.3704997  24.3909988 143.1447653  72.7726932  24.6990136
 137.6900012  72.6034997  34.4999988 137.6970012  72.4674997  33.5529988
 136.7740012  72.4854997  34.7519988 137.5671714  72.5689430  34.4044666
 137.1940012  66.4334997  22.9759988 136.9020012  67.2014997  22.4849988
 136.5200012  65.7734997  22.8129988 137.0629081  66.4494406  22.8867340
 133.2870012  68.7964997  31.7909988 132.7860012  68.7684997  30.9759988
 133.2920012  67.8904997  32.0999988 133.2191526  68.6702278  31.7212872
 133.0370012  71.5764997  28.6749988 133.9830012  71.4324997  28.6559988
 132.9250012  72.3604997  29.2119988 133.1512727  71.6628046  28.7450072
 142.2140012  71.8164997  33.2329988 142.3010012  72.6424997  33.7079988
 141.3500012  71.4864997  33.4819988 142.1091964  71.8849878  33.3316549
 142.6280012  75.5884997  23.0389988 142.5530012  75.4674997  22.0929988
 142.6610012  76.5384997  23.1579988 142.6221848  75.7002500  22.9254834
 136.2810012  74.3774997  24.8199988 136.4340012  74.0294997  25.6989988
 135.4310012  74.0214997  24.5649988 136.1868962  74.2816650  24.9058340
 135.5360012  70.1194997  32.8339988 135.7520012  69.7584997  33.6929988
 134.6810012  69.7454997  32.6239988 135.4499292  70.0194111  32.9233386
 138.1550012  58.5894997  28.8289988 137.2930012  58.5024997  28.4219988
 138.1320012  59.4454997  29.2569988 138.0340330  58.6932765  28.8311863
 142.8180012  58.3114997  32.2039988 143.2380012  57.8964997  32.9569988
 141.8850012  58.1334997  32.3209988 142.7493644  58.2305900  32.3229539
 142.4790012  60.8044997  19.4889988 142.2260012  60.8234997  20.4119988
 142.2230012  59.9324997  19.1879988 142.4097790  60.6892437  19.5746263
 138.2460012  63.5554997  29.9239988 137.6040012  63.5144997  30.6329988
 138.2830012  64.4814997  29.6869988 138.1631324  63.6751559  29.9889824
 138.2430012  63.7764997  24.8359988 137.3500012  63.4354997  24.7779988
 138.6930012  63.3994997  24.0809988 138.1817305  63.6788484  24.7259177
 143.7780012  64.1924997  23.6529988 143.3690012  65.0074997  23.3619988
 144.4990012  64.0524997  23.0389988 143.8194537  64.2852018  23.5301342
 142.8800012  64.3674997  35.1409988 142.3180012  63.6634997  35.4619988
 143.7070012  64.2474997  35.6089988 142.9147095  64.2547883  35.2482330
 144.7830012  63.6384997  26.4669988 144.5880012  64.2434997  25.7519988
 144.9640012  62.8044997  26.0329988 144.7807614  63.6086300  26.3104405
 135.9960012  63.8754997  31.7909988 135.9580012  64.2754997  32.6599988
 135.5050012  63.0584997  31.8819988 135.9244684  63.8198069  31.9221059
 139.3620012  61.2494997  18.5899988 138.9310012  60.8044997  19.3199988
 138.6440012  61.6214997  18.0779988 139.2059438  61.2388940  18.6206799
 132.6040012  60.9914997  25.6419988 133.2350012  60.9624997  26.3609988
 133.0530012  60.5664997  24.9119988 132.7510774  60.9300492  25.6416553
 133.8780012  61.7374997  21.0659988 134.3520012  62.3284997  20.4809988
 133.1610012  62.2684997  21.4129988 133.8459341  61.8900867  21.0328836
 144.0470012  65.2764997  31.1389988 144.3700012  64.6454997  30.4959988
 143.6070012  64.7414997  31.7989988 144.0316895  65.1178441  31.1402850
 140.8240012  61.2034997  25.9229988 139.9130012  61.2604997  26.2109988
 141.3300012  61.1434997  26.7329988 140.7675413  61.2031985  26.0720622
 135.6530012  62.8324997  24.7489988 134.7630012  62.9324997  24.4089988
 135.9490012  61.9904997  24.4029988 135.5712823  62.7323545  24.6557213
 139.3060012  62.8324997  22.4059988 140.2370012  62.9614997  22.5839988
 139.0910012  63.5024997  21.7559988 139.4044247  62.9406565  22.3425747
 137.9800012  64.0274997  19.9729988 137.4370012  63.6474997  19.2809988
 138.8130012  64.2214997  19.5439988 138.0184399  64.0018124  19.8204526
 136.1150012  68.5844997  35.0719988 136.8470012  68.8384997  35.6329988
 135.3350012  68.7884997  35.5869988 136.1098232  68.6469177  35.2185760
 142.1440012  63.9914997  27.8099988 142.7090012  63.4444997  27.2629988
 141.9970012  63.4694997  28.5979988 142.2012918  63.8462024  27.8418454
 137.1460012  60.1274997  24.2279988 136.8290012  59.2254997  24.1929988
 137.9280012  60.1294997  23.6749988 137.2082284  60.0041628  24.1484783
 140.7710012  62.3794997  30.2239988 139.9350012  62.8334997  30.3339988
 141.2950012  62.6554997  30.9759988 140.7274414  62.4789376  30.3407136
 141.3150012  68.5924997  21.9079988 140.5700012  68.0854997  21.5859988
 141.1810012  68.6414997  22.8549988 141.1948776  68.5296940  21.9918647
 142.8340012  68.7764997  33.1449988 142.4890012  68.3954997  33.9519988
 142.6340012  69.7104997  33.2169988 142.7598061  68.8505228  33.2650961
 136.4400012  67.8874997  27.6779988 137.1850012  67.8854997  27.0769988
 136.5180012  67.0644997  28.1599988 136.5525518  67.7759315  27.6608929
 143.4410012  70.0514997  20.9339988 143.1450012  70.8774997  21.3149988
 142.7380012  69.4314997  21.1299988 143.3054914  70.0808199  21.0126443
 133.4480012  66.3484997  32.9929988 133.6710012  65.9304997  33.8249988
 132.8460012  65.7354997  32.5699988 133.3971759  66.2084668  33.0497022
 140.4640012  65.8654997  35.2059988 140.1680012  65.6994997  34.3109988
 141.3960012  65.6454997  35.1949988 140.5494166  65.8130640  35.0820536
 138.8150012  71.4054997  25.0819988 139.3420012  72.1784997  24.8819988
 137.9350012  71.6304997  24.7809988 138.7681773  71.5418005  25.0139010
 134.5700012  66.2674997  19.6689988 135.1860012  66.8944997  20.0489988
 133.7080012  66.5834997  19.9409988 134.5377698  66.3959430  19.7577183
 140.2420012  69.0684997  24.6589988 140.0010012  69.9934997  24.6999988
 139.5010012  68.6094997  25.0549988 140.1088409  69.1331421  24.7181377
 140.7570012  73.2174997  30.9739988 141.1190012  74.0724997  30.7399988
 141.2880012  72.9254997  31.7139988 140.8784473  73.2951060  31.0420855
 138.9250012  74.0904997  24.2039988 137.9750012  74.1954997  24.2549988
 139.2770012  74.9104997  24.5489988 138.8424203  74.2158314  24.2576650
 144.3010012  69.3164997  30.6739988 143.8750012  69.0894997  31.5009988
 144.8810012  68.5784997  30.4919988 144.3211868  69.1855299  30.7625830
 135.0820012  61.1014997  32.5509988 134.1890012  61.4404997  32.4829988
 134.9830012  60.2464997  32.9689988 134.9464164  61.0322588  32.5982235
 134.7330012  72.9064997  30.9859988 134.9500012  71.9744997  30.9549988
 134.9790012  73.1804997  31.8689988 134.7959549  72.8160636  31.1011763
 140.5950012  71.3574997  18.1949988 140.8340012  70.6094997  17.6479988
 140.3260012  70.9694997  19.0279988 140.5913675  71.2026638  18.2326865
 139.5320012  70.9274997  20.6519988 139.6780012  70.4074997  21.4419988
 139.5290012  71.8344997  20.9579988 139.5515989  70.9788853  20.8016088
 135.9850012  68.1804997  21.1619988 135.2990012  68.5324997  21.7289988
 136.5070012  68.9434997  20.9149988 135.9616852  68.3318578  21.2062118
 143.8160012  60.8424997  31.4409988 144.5150012  60.9164997  32.0909988
 143.4350012  59.9784997  31.5949988 143.8601767  60.7357624  31.5508322
 144.6010012  60.4944997  22.5379988 144.8210012  60.9664997  21.7349988
 145.1590012  60.8894997  23.2079988 144.7064968  60.6124285  22.5187331
 142.2690012  72.6254997  21.4009988 141.4530012  73.1224997  21.4529988
 142.7990012  73.1004997  20.7609988 142.2289161  72.7577722  21.3215956
 141.8010012  62.2224997  23.3729988 142.6130012  62.7274997  23.4189988
 141.5560012  62.0774997  24.2869988 141.8790520  62.2720375  23.5028517
 142.3360012  63.2084997  32.5579988 142.4550012  63.7824997  33.3149988
 142.9920012  62.5204997  32.6719988 142.4409757  63.1941079  32.6770825
 142.6840012  59.3034997  24.3109988 142.3380012  59.9214997  24.9559988
 143.3430012  59.8044997  23.8299988 142.7257826  59.4555802  24.3340971
 139.6080012  73.6694997  21.3829988 139.7680012  74.4684997  20.8819988
 139.4100012  73.9754997  22.2679988 139.6031649  73.8204469  21.4339815
 138.3420012  60.3664997  20.9979988 138.2590012  61.2554997  21.3449988
 139.2320012  60.1014997  21.2299988 138.4509469  60.4521430  21.0767626
 136.6010012  70.7944997  20.0589988 137.1930012  71.4934997  20.3349988
 137.0600012  70.3614997  19.3389988 136.7441142  70.8317049  19.9994830
 134.9170012  63.4584997  19.1749988 134.8720012  64.3974997  19.3529988
 134.0290012  63.2224997  18.9049988 134.7908574  63.5551892  19.1628912
 135.7250012  58.2404997  27.8479988 135.4960012  58.2994997  26.9199988
 135.2820012  57.4484997  28.1539988 135.6338530  58.1415753  27.7624786
 134.6550012  72.1804997  24.0079988 133.8230012  72.6534997  24.0359988
 135.2010012  72.6904997  23.4099988 134.6149739  72.3141871  23.9309716
 133.9430012  74.7934997  35.3379988 134.4840012  74.5764997  36.0979988
 133.4620012  73.9874997  35.1489988 133.9519345  74.6549514  35.4163076
 138.5410012  73.7124997  36.9589988 139.3080012  73.2534997  37.2999988
 138.5190012  73.4864997  36.0289988 138.6431434  73.6190409  36.8800043
 142.6330012  73.2204997  18.3339988 141.9890012  72.5894997  18.6549988
 143.3950012  72.6894997  18.1019988 142.6478077  73.0622920  18.3466011
 133.8500012  68.6034997  36.2929988 133.9940012  67.7014997  36.0059988
 133.0780012  68.8894997  35.8049988 133.7653322  68.5188261  36.1877881
 138.1920012  68.9474997  18.4249988 138.2560012  68.1534997  18.9559988
 138.8450012  68.8284997  17.7349988 138.2890241  68.8227148  18.4044317
 140.5060012  68.5734997  35.7249988 140.1770012  68.8444997  34.8679988
 140.6580012  67.6324997  35.6379988 140.4814809  68.4833862  35.5958244
 143.5440012  69.9944997  18.1609988 143.2750012  70.1744997  19.0619988
 143.3380012  69.0684997  18.0299988 143.4793825  69.8940152  18.2665214
 134.6830012  65.8034997  35.7129988 135.0910012  64.9464997  35.5919988
 134.4230012  65.8184997  36.6339988 134.7037568  65.6880807  35.8209588
 139.3410012  66.9194997  20.7309988 138.8810012  66.4354997  21.4169988
 139.5960012  66.2514997  20.0949988 139.3124902  66.7628731  20.7389334
 138.6300012  64.8124997  33.0869988 138.0120012  65.4874997  33.3669988
 138.9740012  65.1334997  32.2539988 138.5919615  64.9482721  33.0126581
 140.4120012  65.1624997  18.9929988 140.2320012  65.0084997  18.0659988
 141.3620012  65.2704997  19.0379988 140.5157776  65.1560175  18.8721843
 143.6500012  67.2844997  36.3639988 144.6030012  67.3674997  36.3369988
 143.4890012  66.5724997  36.9839988 143.7586426  67.1996746  36.4440579
 138.9690012  62.1674997  34.1689988 139.1190012  61.4384997  33.5669988
 138.9720012  62.9444997  33.6099988 138.9899302  62.1727851  34.0110692
 139.3820012  60.5374997  31.6619988 139.9180012  60.9884997  31.0099988
 138.5300012  60.4294997  31.2389988 139.3402178  60.5846390  31.5155756
 140.9640012  65.9764997  31.9009988 141.7140012  65.8204997  31.3279988
 140.6250012  66.8284997  31.6259988 141.0208921  66.0702968  31.7853561
 137.4480012  63.3654997  36.0809988 136.6810012  62.8334997  35.8709988
 138.1270012  63.0554997  35.4809988 137.4347022  63.2507506  35.9711648
 140.1880012  57.9934997  32.0929988 140.0890012  58.9404997  31.9879988
 139.4450012  57.6214997  31.6179988 140.0740564  58.0725902  32.0144560
 141.4520012  62.3154997  35.6569988 141.2160012  62.0954997  36.5589988
 140.6680012  62.1084997  35.1469988 141.3138628  62.2574760  35.7113932
 144.1670012  61.4424997  34.7329988 143.2200012  61.4744997  34.8649988
 144.4800012  60.8174997  35.3859988 144.0795475  61.3623207  34.8394455
 135.6280012  61.2864997  35.7849988 135.8400012  60.5794997  35.1749988
 135.5170012  60.8484997  36.6289988 135.6419721  61.1307084  35.8156843
 140.4090012  57.2874997  34.7649988 141.1210012  56.6474997  34.7509988
 140.3080012  57.5544997  33.8509988 140.4927939  57.2359938  34.6395650
 140.7630012  58.9704997  36.8179988 140.6310012  58.4944997  35.9979988
 140.1640012  59.7144997  36.7629988 140.6639071  59.0059618  36.6982886
 140.3090012  75.8534997  19.9949988 141.2420012  76.0114997  20.1379988
 140.0450012  76.5284997  19.3699988 140.4009510  75.9663611  19.9300741
 133.8780012  70.4894997  19.4769988 134.7920012  70.5684997  19.7509988
 133.8850012  69.8024997  18.8109988 134.0041131  70.4073961  19.4244393
 132.5270012  75.8824997  24.5549988 131.8800012  75.4204997  24.0219988
 132.8810012  75.2104997  25.1369988 132.4863849  75.7284723  24.5607959
 133.3970012  73.9634997  26.3589988 133.0620012  73.0834997  26.5309988
 133.6190012  74.3084997  27.2239988 133.3811783  73.8897500  26.4994208
 133.4770012  67.0384997  28.8109988 133.6610012  66.9564997  27.8749988
 134.3260012  66.9144997  29.2349988 133.6170139  67.0105003  28.7401455
 133.0740012  62.3094997  34.9519988 133.9940012  62.1874997  35.1879988
 132.6250012  61.5594997  35.3409988 133.1391580  62.1913727  35.0369006
 134.2950012  60.6214997  27.8429988 134.7410012  59.8294997  28.1449988
 134.7620012  61.3374997  28.2739988 134.4190172  60.6100624  27.9424820
 132.5990012  63.6204997  28.9119988 133.0910012  63.3994997  28.1209988
 132.9620012  64.4614997  29.1929988 132.7153126  63.7038357  28.8417531
 132.9130012  59.8784997  22.9659988 131.9880012  60.0874997  22.8369988
 133.3670012  60.3624997  22.2769988 132.8477368  59.9725993  22.8551226
 132.8770012  58.6164997  31.3109988 132.2120012  58.3704997  31.9539988
 132.4340012  59.2384997  30.7329988 132.7260956  58.6668632  31.3209352
 135.0690012  71.7914997  35.4549988 134.2480012  71.9664997  34.9949988
 134.8160012  71.7184997  36.3759988 134.9226164  71.8055622  35.5164923
 138.0230012  72.7664997  31.7139988 137.5980012  73.5754997  31.4309988
 138.9270012  72.8514997  31.4119988 138.0870271  72.8888469  31.6343776
 142.3340012  74.1654997  34.6729988 142.5190012  73.8314997  35.5509988
 143.1800012  74.4744997  34.3509988 142.4737539  74.1616047  34.7495605
 144.6790012  75.4514997  33.9169988 145.3560012  74.8184997  33.6769988
 145.0010012  75.8524997  34.7239988 144.8151637  75.4191154  33.9932793
 135.4250012  76.0224997  31.7609988 134.7040012  76.4624997  31.3099988
 135.0590012  75.7714997  32.6099988 135.2769804  76.0487698  31.8139840
 137.8920012  75.6224997  30.7909988 137.0270012  75.6944997  31.1949988
 137.8370012  76.1694997  30.0069988 137.7662085  75.7062685  30.7403362
 142.6020012  75.5104997  29.9659988 142.1460012  76.0394997  29.3119988
 142.7650012  76.1134997  30.6919988 142.5615585  75.6644468  29.9745062
 134.8390012  74.6454997  28.6709988 134.8210012  74.2204997  29.5289988
 135.6440012  74.3274997  28.2629988 134.9453875  74.5443812  28.7331655
 136.9810012  73.3554997  27.3259988 136.7620012  72.4394997  27.4959988
 137.8050012  73.4954997  27.7919988 137.0624420  73.2490520  27.4122774
 139.5180012  73.8254997  28.1749988 139.7310012  72.9374997  27.8879988
 139.5820012  73.7914997  29.1289988 139.5558232  73.6993102  28.2647397
 143.0260012  59.4894997  27.3189988 142.3520012  58.8604997  27.5749988
 143.5900012  59.0054997  26.7159988 143.0099230  59.3378744  27.2725340
 135.3530012  58.1234997  25.1409988 134.5760012  57.8894997  24.6339988
 135.8830012  57.3264997  25.1499988 135.3182330  57.9836988  25.0727742
 134.1890012  57.9214997  20.9449988 134.6280012  58.5324997  20.3529988
 133.5560012  58.4594997  21.4189988 134.1634514  58.0779257  20.9280930
 139.9320012  58.0504997  24.9549988 140.8070012  58.4384997  24.9249988
 139.7960012  57.8354997  25.8769988 140.0333695  58.0745184  25.0756440
 134.0900012  73.8694997  21.8429988 133.4050012  73.8314997  21.1749988
 134.0940012  74.7824997  22.1309988 133.9968193  73.9877016  21.7905284
 136.0500012  59.8374997  19.3869988 136.5420012  59.2074997  18.8599988
 136.6740012  60.1334997  20.0509988 136.2015446  59.7913199  19.4045980
 141.0760012  60.1304997  21.8439988 141.2540012  59.4844997  22.5269988
 141.0230012  60.9644997  22.3119988 141.0931829  60.1547985  22.0005940
 142.9550012  75.0794997  20.2399988 143.8210012  75.4454997  20.0619988
 142.7080012  74.6394997  19.4259988 143.0402392  75.0701756  20.1056289
 135.3110012  58.6374997  34.6589988 134.9450012  57.8724997  35.1019988
 136.2240012  58.6664997  34.9459988 135.3842790  58.5367224  34.7584070
 137.2840012  57.9884997  36.1949988 138.1820012  57.7144997  36.0099988
 136.8970012  57.2454997  36.6589988 137.3546612  57.8505914  36.2323643
 135.9080012  74.7894997  18.8679988 135.6410012  75.0764997  19.7409988
 136.6800012  74.2434997  19.0199988 135.9757488  74.7550294  19.0081050
  12.4390012  86.1354997  25.0999988  12.5280012  87.0794997  24.9679988
  11.8010012  85.8604997  24.4419988  12.3649081  86.2274830  24.9929614
  11.3720012  85.3904997  28.5189988  11.3340012  84.7444997  29.2239988
  11.0500012  84.9244997  27.7479988  11.3232333  85.2389408  28.5112978
   3.7410012  85.0054997  30.1119988   3.7820012  84.3794997  30.8349988
   4.4440012  85.6294997  30.2939988   3.8416363  85.0041196  30.2356044
  15.0780012  88.3294997  26.8199988  14.6380012  87.6094997  27.2709988
  15.0650012  89.0504997  27.4499988  15.0160226  88.3283731  26.9668494
   4.6640012  89.4554997  28.6469988   4.2950012  88.6534997  28.2769988
   5.6050012  89.2864997  28.6929988   4.7407289  89.3230153  28.6026316
   1.2740012  83.1154997  24.0399988   0.8270012  83.9614997  24.0209988
   0.7130012  82.5354997  23.5239988   1.1369900  83.1529916  23.9676801
   1.9850012  85.2774997  26.1659988   2.1980012  84.5074997  26.6929988
   2.7230012  85.3664997  25.5619988   2.1138496  85.1841394  26.1565300
  12.1900012  93.4344997  27.0329988  12.8100012  92.7574997  26.7589988
  11.9820012  93.2164997  27.9409988  12.2466904  93.3123870  27.1183365
   9.7620012  87.8234997  28.9249988  10.0660012  87.1374997  28.3299988
  10.4830012  87.9414997  29.5429988   9.9010671  87.7456305  28.9271816
  18.4250012  79.4244997  29.7859988  18.4740012  80.0344997  30.5219988
  18.8500012  79.8854997  29.0629988  18.4891824  79.5703741  29.7890205
  12.9030012  82.2174997  29.2529988  13.0450012  81.2714997  29.2729988
  12.7960012  82.4244997  28.3239988  12.9079864  82.1159534  29.1302339
   6.0570012  80.3184997  26.5249988   6.1010012  81.1784997  26.1069988
   5.6000012  79.7664997  25.8909988   6.0012185  80.3615799  26.3820299
  13.7800012  80.4494997  24.9259988  14.4260012  80.1204997  25.5509988
  14.2900012  80.9674997  24.3029988  13.9374264  80.4744611  24.9273862
   2.6780012  82.7154997  27.2869988   3.3310012  82.1654997  27.7189988
   2.7020012  82.4414997  26.3699988   2.7706683  82.6031466  27.2222123
   7.8340012  84.2654997  26.5019988   8.4500012  83.7394997  27.0119988
   7.2480012  83.6254997  26.0989988   7.8390810  84.1069208  26.5173173
  18.8160012  80.9024997  32.0219988  18.1280012  81.5604997  31.9259988
  18.8320012  80.7054997  32.9579988  18.7238525  80.9660462  32.1354808
   4.8680012  79.2364997  30.5989988   4.6490012  79.7664997  29.8329988
   4.2000012  79.4634997  31.2459988   4.7477600  79.3396906  30.5816379
  12.2370012  88.7364997  24.1429988  11.9410012  88.4144997  23.2919988
  11.9120012  89.6364997  24.1839988  12.1526371  88.8140215  24.0321801
   7.4370012  86.9124997  30.8859988   6.6970012  87.5104997  30.9899988
   8.1510012  87.4664997  30.5709988   7.4322237  87.0692831  30.8576465
  15.5440012  79.7404997  26.9059988  15.3280012  78.9744997  27.4389988
  16.1990012  80.2124997  27.4189988  15.6030632  79.6995889  27.0482861
   4.4610012  81.1284997  28.5509988   5.0750012  81.7614997  28.9249988
   4.9730012  80.6564997  27.8949988   4.6142296  81.1512370  28.5134252
   5.8440012  88.8764997  31.6739988   5.8390012  89.7564997  31.2959988
   4.9910012  88.7934997  32.0989988   5.7279464  88.9856117  31.6797907
   1.9650012  88.5474997  22.4559988   1.6930012  88.7764997  21.5669988
   2.0110012  89.3854997  22.9159988   1.9340094  88.6921213  22.3965697
  15.5900012  90.1694997  29.1679988  14.6490012  90.2274997  29.3299988
  15.8670012  91.0754997  29.0309988  15.4984679  90.2999443  29.1716815
  15.8910012  78.4554997  30.5859988  15.1550012  79.0664997  30.5479988
  16.5740012  78.8704997  30.0589988  15.8826541  78.5951374  30.5095832
   8.8940012  76.5424997  28.0519988   8.7770012  75.5934997  27.9969988
   8.0390012  76.8744997  28.3249988   8.7623733  76.4575409  28.0813897
  13.8420012  91.9504997  25.7939988  14.2680012  91.2434997  25.3089988
  14.1590012  92.7514997  25.3769988  13.9431019  91.9620994  25.6713130
  15.0020012  89.8514997  24.3019988  14.7440012  89.1614997  23.6909988
  15.0730012  89.4084997  25.1479988  14.9762856  89.6972124  24.3326885
  16.6880012  88.4174997  32.7799988  16.8280012  87.8264997  32.0399988
  16.8550012  89.2904997  32.4229988  16.7296778  88.4546426  32.6306965
  11.1610012  85.3794997  22.5519988  10.4490012  85.9144997  22.1999988
  11.8520012  85.4354997  21.8919988  11.1570132  85.4602543  22.4146289
  11.2140012  83.8374997  19.5909988  11.9150012  83.8594997  20.2419988
  11.5170012  83.2094997  18.9349988  11.3507830  83.7556566  19.5913711
  18.5300012  84.7574997  30.8459988  17.8770012  85.4524997  30.9349988
  18.9950012  84.9674997  30.0359988  18.5035390  84.8809425  30.7486883
  14.5660012  85.5894997  23.5039988  13.8340012  85.8174997  24.0769988
  15.0140012  84.8754997  23.9589988  14.5263095  85.5242571  23.6439119
  14.4640012  83.7634997  32.5709988  14.5440012  84.5264997  33.1429988
  13.8620012  84.0424997  31.8809988  14.3935756  83.9057134  32.5560589
   6.2120012  86.2194997  25.3859988   5.8810012  85.8494997  24.5679988
   6.8000012  85.5494997  25.7329988   6.2461873  86.0781156  25.3208102
   7.5780012  89.6474997  28.0679988   7.4840012  89.0694997  27.3109988
   8.3080012  89.2764997  28.5639988   7.6637981  89.5182390  28.0314165
   6.5780012  84.9884997  29.0199988   7.1440012  85.1094997  28.2569988
   6.8970012  85.6254997  29.6589988   6.6985786  85.0911884  29.0020040
  12.8870012  90.4914997  29.7539988  12.6470012  91.1534997  30.4019988
  12.6890012  89.6574997  30.1789988  12.8273808  90.4693134  29.9001524
   7.4580012  89.3874997  33.7369988   7.1470012  90.1694997  34.1919988
   6.8080012  89.2344997  33.0509988   7.3275558  89.4739105  33.7065871
  13.4370012  84.7514997  21.1889988  14.0170012  84.9014997  21.9359988
  13.8510012  85.2224997  20.4659988  13.5722831  84.8356841  21.1934134
   4.3780012  85.5854997  32.9659988   4.4490012  86.2364997  33.6639988
   3.4880012  85.6884997  32.6309988   4.2673117  85.6885936  33.0162700
  11.1640012  91.4884997  24.6239988  11.6380012  91.7834997  25.4019988
  10.6010012  92.2264997  24.3909988  11.1527653  91.6286932  24.6990136
   5.6980012  91.4594997  34.4999988   5.7050012  91.3234997  33.5529988
   4.7820012  91.3414997  34.7519988   5.5751714  91.4249430  34.4044666
  17.1360012  76.5014997  21.0019988  16.2360012  76.6404997  21.2969988
  17.3880012  77.3324997  20.5999988  17.0468702  76.6329074  20.9880205
   5.2020012  85.2894997  22.9759988   4.9100012  86.0574997  22.4849988
   4.5280012  84.6294997  22.8129988   5.0709081  85.3054406  22.8867340
  18.3250012  90.8674997  19.3779988  18.3990012  91.8064997  19.5489988
  19.2310012  90.5624997  19.3219988  18.4575100  90.9546722  19.3938119
   1.2950012  87.6524997  31.7909988   0.7940012  87.6244997  30.9759988
   1.3000012  86.7464997  32.0999988   1.2271526  87.5262278  31.7212872
   1.0450012  90.4324997  28.6749988   1.9910012  90.2884997  28.6559988
   0.9330012  91.2164997  29.2119988   1.1592727  90.5188046  28.7450072
  19.2430012  91.0984997  34.3569988  19.1940012  90.1434997  34.3199988
  18.4160012  91.3664997  34.7579988  19.1244940  91.0038998  34.4061375
  10.2220012  90.6724997  33.2329988  10.3090012  91.4984997  33.7079988
   9.3580012  90.3424997  33.4819988  10.1171964  90.7409878  33.3316549
  10.6360012  94.4444997  23.0389988  10.5610012  94.3234997  22.0929988
  10.6690012  95.3944997  23.1579988  10.6301848  94.5562500  22.9254834
   4.2890012  93.2334997  24.8199988   4.4420012  92.8854997  25.6989988
   3.4390012  92.8774997  24.5649988   4.1948962  93.1376650  24.9058340
  13.7380012  93.5984997  20.0409988  14.1130012  92.8544997  19.5709988
  13.7420012  93.3284997  20.9599988  13.7898915  93.4601486  20.1007824
  13.4070012  93.5244997  22.7909988  12.4710012  93.6244997  22.9689988
  13.6870012  92.8154997  23.3689988  13.3168255  93.4422711  22.8935391
  16.3950012  82.5914997  34.8369988  15.9880012  83.0724997  34.1159988
  16.4360012  81.6864997  34.5289988  16.3448437  82.5349374  34.6966683
   3.5440012  88.9754997  32.8339988   3.7600012  88.6144997  33.6929988
   2.6890012  88.6014997  32.6239988   3.4579292  88.8754111  32.9233386
   6.1630012  77.4454997  28.8289988   5.3010012  77.3584997  28.4219988
   6.1400012  78.3014997  29.2569988   6.0420330  77.5492765  28.8311863
  10.8260012  77.1674997  32.2039988  11.2460012  76.7524997  32.9569988
   9.8930012  76.9894997  32.3209988  10.7573644  77.0865900  32.3229539
  14.1520012  80.9234997  33.0569988  13.6380012  80.7974997  33.8549988
  13.9970012  81.8354997  32.8129988  14.0606852  81.0296132  33.1332158
  14.9150012  85.7844997  18.8189988  14.9570012  85.5614997  17.8889988
  15.7640012  86.1834997  19.0089988  15.0355396  85.8079155  18.7173627
  10.4870012  79.6604997  19.4889988  10.2340012  79.6794997  20.4119988
  10.2310012  78.7884997  19.1879988  10.4177790  79.5452437  19.5746263
   6.2540012  82.4114997  29.9239988   5.6120012  82.3704997  30.6329988
   6.2910012  83.3374997  29.6869988   6.1711324  82.5311559  29.9889824
   6.2510012  82.6324997  24.8359988   5.3580012  82.2914997  24.7779988
   6.7010012  82.2554997  24.0809988   6.1897305  82.5348484  24.7259177
  11.7860012  83.0484997  23.6529988  11.3770012  83.8634997  23.3619988
  12.5070012  82.9084997  23.0389988  11.8274537  83.1412018  23.5301342
  10.8880012  83.2234997  35.1409988  10.3260012  82.5194997  35.4619988
  11.7150012  83.1034997  35.6089988  10.9227095  83.1107883  35.2482330
  12.7910012  82.4944997  26.4669988  12.5960012  83.0994997  25.7519988
  12.9720012  81.6604997  26.0329988  12.7887614  82.4646300  26.3104405
   4.0040012  82.7314997  31.7909988   3.9660012  83.1314997  32.6599988
   3.5130012  81.9144997  31.8819988   3.9324684  82.6758069  31.9221059
   7.3700012  80.1054997  18.5899988   6.9390012  79.6604997  19.3199988
   6.6520012  80.4774997  18.0779988   7.2139438  80.0948940  18.6206799
   0.6120012  79.8474997  25.6419988   1.2430012  79.8184997  26.3609988
   1.0610012  79.4224997  24.9119988   0.7590774  79.7860492  25.6416553
   1.8860012  80.5934997  21.0659988   2.3600012  81.1844997  20.4809988
   1.1690012  81.1244997  21.4129988   1.8539341  80.7460867  21.0328836
  12.0550012  84.1324997  31.1389988  12.3780012  83.5014997  30.4959988
  11.6150012  83.5974997  31.7989988  12.0396895  83.9738441  31.1402850
   8.8320012  80.0594997  25.9229988   7.9210012  80.1164997  26.2109988
   9.3380012  79.9994997  26.7329988   8.7755413  80.0591985  26.0720622
   3.6610012  81.6884997  24.7489988   2.7710012  81.7884997  24.4089988
   3.9570012  80.8464997  24.4029988   3.5792823  81.5883545  24.6557213
   7.3140012  81.6884997  22.4059988   8.2450012  81.8174997  22.5839988
   7.0990012  82.3584997  21.7559988   7.4124247  81.7966565  22.3425747
  13.2370012  79.2944997  29.1869988  12.5610012  79.4254997  29.8509988
  12.7520012  79.1394997  28.3769988  13.0787145  79.2914905  29.1684517
   5.9880012  82.8834997  19.9729988   5.4450012  82.5034997  19.2809988
   6.8210012  83.0774997  19.5439988   6.0264399  82.8578124  19.8204526
  16.5250012  94.9664997  35.4639988  16.7250012  95.3904997  34.6289988
  17.1800012  95.3094997  36.0709988  16.6410051  95.0709648  35.4317836
   4.1230012  87.4404997  35.0719988   4.8550012  87.6944997  35.6329988
   3.3430012  87.6444997  35.5869988   4.1178232  87.5029177  35.2185760
  10.1520012  82.8474997  27.8099988  10.7170012  82.3004997  27.2629988
  10.0050012  82.3254997  28.5979988  10.2092918  82.7022024  27.8418454
   5.1540012  78.9834997  24.2279988   4.8370012  78.0814997  24.1929988
   5.9360012  78.9854997  23.6749988   5.2162284  78.8601628  24.1484783
   8.7790012  81.2354997  30.2239988   7.9430012  81.6894997  30.3339988
   9.3030012  81.5114997  30.9759988   8.7354414  81.3349376  30.3407136
   9.3230012  87.4484997  21.9079988   8.5780012  86.9414997  21.5859988
   9.1890012  87.4974997  22.8549988   9.2028776  87.3856940  21.9918647
  16.4730012  86.5814997  30.6949988  17.1150012  87.0384997  30.1509988
  15.6430012  86.6944997  30.2319988  16.4485963  86.6592704  30.5580177
  13.2210012  80.2624997  20.1079988  12.2820012  80.3744997  19.9559988
  13.5180012  81.1194997  20.4139988  13.1327666  80.3936443  20.1285768
  10.8420012  87.6324997  33.1449988  10.4970012  87.2514997  33.9519988
  10.6420012  88.5664997  33.2169988  10.7678061  87.7065228  33.2650961
  13.9390012  82.1294997  21.7679988  14.8310012  81.9924997  22.0869988
  13.9960012  82.9204997  21.2319988  14.0686285  82.2176660  21.7391691
   4.4480012  86.7434997  27.6779988   5.1930012  86.7414997  27.0769988
   4.5260012  85.9204997  28.1599988   4.5605518  86.6319315  27.6608929
  11.4490012  88.9074997  20.9339988  11.1530012  89.7334997  21.3149988
  10.7460012  88.2874997  21.1299988  11.3134914  88.9368199  21.0126443
   1.4560012  85.2044997  32.9929988   1.6790012  84.7864997  33.8249988
   0.8540012  84.5914997  32.5699988   1.4051759  85.0644668  33.0497022
   8.4720012  84.7214997  35.2059988   8.1760012  84.5554997  34.3109988
   9.4040012  84.5014997  35.1949988   8.5574166  84.6690640  35.0820536
  13.0930012  90.0944997  33.0959988  12.1920012  90.2774997  32.8279988
  13.1270012  90.3534997  34.0169988  12.9743041  90.1545512  33.1838197
  18.8240012  82.3394997  21.4629988  18.2700012  81.9434997  20.7909988
  18.9240012  83.2494997  21.1849988  18.7617059  82.4083586  21.3334401
  18.7870012  88.1394997  34.2999988  17.9360012  88.3774997  33.9329988
  19.3780012  88.1224997  33.5469988  18.7502487  88.1698258  34.1478893
  17.1190012  91.1254997  21.9279988  16.7460012  90.2994997  22.2369988
  17.3970012  90.9424997  21.0309988  17.1055630  90.9877303  21.8489626
  14.2800012  85.9334997  28.9489988  13.3510012  85.7014997  28.9219988
  14.7310012  85.1564997  28.6189988  14.2139216  85.7967238  28.9006917
   6.8230012  90.2614997  25.0819988   7.3500012  91.0344997  24.8819988
   5.9430012  90.4864997  24.7809988   6.7761773  90.3978005  25.0139010
   2.5780012  85.1234997  19.6689988   3.1940012  85.7504997  20.0489988
   1.7160012  85.4394997  19.9409988   2.5457698  85.2519430  19.7577183
   8.2500012  87.9244997  24.6589988   8.0090012  88.8494997  24.6999988
   7.5090012  87.4654997  25.0549988   8.1168409  87.9891421  24.7181377
   8.7650012  92.0734997  30.9739988   9.1270012  92.9284997  30.7399988
   9.2960012  91.7814997  31.7139988   8.8864473  92.1511060  31.0420855
   6.9330012  92.9464997  24.2039988   5.9830012  93.0514997  24.2549988
   7.2850012  93.7664997  24.5489988   6.8504203  93.0718314  24.2576650
  12.3090012  88.1724997  30.6739988  11.8830012  87.9454997  31.5009988
  12.8890012  87.4344997  30.4919988  12.3291868  88.0415299  30.7625830
  14.5120012  89.1014997  19.7479988  14.8650012  88.7214997  20.5529988
  13.5630012  89.0084997  19.8349988  14.4320441  89.0369596  19.8698559
  14.9670012  92.7244997  33.1439988  14.3660012  92.1694997  32.6479988
  15.2490012  93.3914997  32.5179988  14.9228519  92.7386841  32.9914952
  19.0150012  93.5814997  19.9489988  19.7590012  94.1674997  19.8089988
  18.3210012  94.1494997  20.2829988  19.0230292  93.7385582  19.9749961
   3.0900012  79.9574997  32.5509988   2.1970012  80.2964997  32.4829988
   2.9910012  79.1024997  32.9689988   2.9544164  79.8882588  32.5982235
  15.3780012  87.7744997  21.9749988  15.1000012  87.0464997  22.5309988
  16.3050012  87.8934997  22.1799988  15.4653124  87.6908802  22.0788845
   2.7410012  91.7624997  30.9859988   2.9580012  90.8304997  30.9549988
   2.9870012  92.0364997  31.8689988   2.8039549  91.6720636  31.1011763
   8.6030012  90.2134997  18.1949988   8.8420012  89.4654997  17.6479988
   8.3340012  89.8254997  19.0279988   8.5993675  90.0586638  18.2326865
   7.5400012  89.7834997  20.6519988   7.6860012  89.2634997  21.4419988
   7.5370012  90.6904997  20.9579988   7.5595989  89.8348853  20.8016088
   3.9930012  87.0364997  21.1619988   3.3070012  87.3884997  21.7289988
   4.5150012  87.7994997  20.9149988   3.9696852  87.1878578  21.2062118
  11.8240012  79.6984997  31.4409988  12.5230012  79.7724997  32.0909988
  11.4430012  78.8344997  31.5949988  11.8681767  79.5917624  31.5508322
  12.6090012  79.3504997  22.5379988  12.8290012  79.8224997  21.7349988
  13.1670012  79.7454997  23.2079988  12.7144968  79.4684285  22.5187331
  10.2770012  91.4814997  21.4009988   9.4610012  91.9784997  21.4529988
  10.8070012  91.9564997  20.7609988  10.2369161  91.6137722  21.3215956
   9.8090012  81.0784997  23.3729988  10.6210012  81.5834997  23.4189988
   9.5640012  80.9334997  24.2869988   9.8870520  81.1280375  23.5028517
  10.3440012  82.0644997  32.5579988  10.4630012  82.6384997  33.3149988
  11.0000012  81.3764997  32.6719988  10.4489757  82.0501079  32.6770825
  10.6920012  78.1594997  24.3109988  10.3460012  78.7774997  24.9559988
  11.3510012  78.6604997  23.8299988  10.7337826  78.3115802  24.3340971
   7.6160012  92.5254997  21.3829988   7.7760012  93.3244997  20.8819988
   7.4180012  92.8314997  22.2679988   7.6111649  92.6764469  21.4339815
   6.3500012  79.2224997  20.9979988   6.2670012  80.1114997  21.3449988
   7.2400012  78.9574997  21.2299988   6.4589469  79.3081430  21.0767626
  16.5490012  79.9714997  33.3929988  15.6320012  80.2344997  33.3049988
  16.8840012  79.9684997  32.4959988  16.4689900  80.0070224  33.2597919
  15.1510012  83.7224997  27.4879988  14.3530012  83.3074997  27.1599988
  15.5960012  83.0314997  27.9789988  15.1019885  83.5723543  27.5094889
   4.6090012  89.6504997  20.0589988   5.2010012  90.3494997  20.3349988
   5.0680012  89.2174997  19.3389988   4.7521142  89.6877049  19.9994830
   2.9250012  82.3144997  19.1749988   2.8800012  83.2534997  19.3529988
   2.0370012  82.0784997  18.9049988   2.7988574  82.4111892  19.1628912
  16.2370012  92.9784997  29.1109988  16.0820012  93.6564997  28.4539988
  17.1700012  93.0504997  29.3139988  16.3418500  93.0810170  29.0485119
   3.7330012  77.0964997  27.8479988   3.5040012  77.1554997  26.9199988
   3.2900012  76.3044997  28.1539988   3.6418530  76.9975753  27.7624786
   2.6630012  91.0364997  24.0079988   1.8310012  91.5094997  24.0359988
   3.2090012  91.5464997  23.4099988   2.6229739  91.1701871  23.9309716
   1.9510012  93.6494997  35.3379988   2.4920012  93.4324997  36.0979988
   1.4700012  92.8434997  35.1489988   1.9599345  93.5109514  35.4163076
   6.5490012  92.5684997  36.9589988   7.3160012  92.1094997  37.2999988
   6.5270012  92.3424997  36.0289988   6.6511434  92.4750409  36.8800043
  10.6410012  92.0764997  18.3339988   9.9970012  91.4454997  18.6549988
  11.4030012  91.5454997  18.1019988  10.6558077  91.9182920  18.3466011
  13.1260012  90.9484997  35.6879988  12.7750012  90.0924997  35.9309988
  13.8520012  91.0914997  36.2949988  13.1760769  90.8505636  35.8033619
  15.2450012  91.8934997  18.5679988  15.5280012  91.0994997  19.0199988
  15.9850012  92.1264997  18.0069988  15.3837486  91.8162803  18.5540698
   1.8580012  87.4594997  36.2929988   2.0020012  86.5574997  36.0059988
   1.0860012  87.7454997  35.8049988   1.7733322  87.3748261  36.1877881
   6.2000012  87.8034997  18.4249988   6.2640012  87.0094997  18.9559988
   6.8530012  87.6844997  17.7349988   6.2970241  87.6787148  18.4044317
   8.5140012  87.4294997  35.7249988   8.1850012  87.7004997  34.8679988
   8.6660012  86.4884997  35.6379988   8.4894809  87.3393862  35.5958244
  11.5520012  88.8504997  18.1609988  11.2830012  89.0304997  19.0619988
  11.3460012  87.9244997  18.0299988  11.4873825  88.7500152  18.2665214
  14.2480012  87.3454997  33.1089988  14.9940012  87.9334997  32.9889988
  13.4910012  87.9274997  33.1719988  14.2477554  87.5047011  33.1010907
   2.6910012  84.6594997  35.7129988   3.0990012  83.8024997  35.5919988
   2.4310012  84.6744997  36.6339988   2.7117568  84.5440807  35.8209588
   7.3490012  85.7754997  20.7309988   6.8890012  85.2914997  21.4169988
   7.6040012  85.1074997  20.0949988   7.3204902  85.6188731  20.7389334
   6.6380012  83.6684997  33.0869988   6.0200012  84.3434997  33.3669988
   6.9820012  83.9894997  32.2539988   6.5999615  83.8042721  33.0126581
   8.4200012  84.0184997  18.9929988   8.2400012  83.8644997  18.0659988
   9.3700012  84.1264997  19.0379988   8.5237776  84.0120175  18.8721843
  11.6580012  86.1404997  36.3639988  12.6110012  86.2234997  36.3369988
  11.4970012  85.4284997  36.9839988  11.7666426  86.0556746  36.4440579
  17.8100012  86.3734997  18.4389988  17.5360012  85.9484997  17.6259988
  17.8490012  87.3044997  18.2219988  17.7777699  86.4412484  18.2983610
   6.9770012  81.0234997  34.1689988   7.1270012  80.2944997  33.5669988
   6.9800012  81.8004997  33.6099988   6.9979302  81.0287851  34.0110692
   7.3900012  79.3934997  31.6619988   7.9260012  79.8444997  31.0099988
   6.5380012  79.2854997  31.2389988   7.3482178  79.4406390  31.5155756
   8.9720012  84.8324997  31.9009988   9.7220012  84.6764997  31.3279988
   8.6330012  85.6844997  31.6259988   9.0288921  84.9262968  31.7853561
  13.3870012  82.6474997  36.9299988  13.5800012  81.7164997  36.8179988
  14.2450012  83.0724997  36.9199988  13.5293020  82.5776389  36.9133361
  14.7040012  85.4364997  35.0069988  14.4230012  86.1454997  34.4299988
  15.6470012  85.3634997  34.8559988  14.7929027  85.5237646  34.9075551
   5.4560012  82.2214997  36.0809988   4.6890012  81.6894997  35.8709988
   6.1350012  81.9114997  35.4809988   5.4427022  82.1067506  35.9711648
   8.1960012  76.8494997  32.0929988   8.0970012  77.7964997  31.9879988
   7.4530012  76.4774997  31.6179988   8.0820564  76.9285902  32.0144560
   9.4600012  81.1714997  35.6569988   9.2240012  80.9514997  36.5589988
   8.6760012  80.9644997  35.1469988   9.3218628  81.1134760  35.7113932
  12.1750012  80.2984997  34.7329988  11.2280012  80.3304997  34.8649988
  12.4880012  79.6734997  35.3859988  12.0875475  80.2183207  34.8394455
  13.8090012  78.9324997  36.7379988  13.7130012  77.9804997  36.7319988
  13.4880012  79.2014997  37.5979988  13.7524070  78.8384035  36.8535441
   3.6360012  80.1424997  35.7849988   3.8480012  79.4354997  35.1749988
   3.5250012  79.7044997  36.6289988   3.6499721  79.9867084  35.8156843
   8.4170012  76.1434997  34.7649988   9.1290012  75.5034997  34.7509988
   8.3160012  76.4104997  33.8509988   8.5007939  76.0919938  34.6395650
   8.7710012  77.8264997  36.8179988   8.6390012  77.3504997  35.9979988
   8.1720012  78.5704997  36.7629988   8.6719071  77.8619618  36.6982886
   8.3170012  94.7094997  19.9949988   9.2500012  94.8674997  20.1379988
   8.0530012  95.3844997  19.3699988   8.4089510  94.8223611  19.9300741
   1.8860012  89.3454997  19.4769988   2.8000012  89.4244997  19.7509988
   1.8930012  88.6584997  18.8109988   2.0121131  89.2633961  19.4244393
   0.5350012  94.7384997  24.5549988  -0.1119988  94.2764997  24.0219988
   0.8890012  94.0664997  25.1369988   0.4943849  94.5844723  24.5607959
   1.4050012  92.8194997  26.3589988   1.0700012  91.9394997  26.5309988
   1.6270012  93.1644997  27.2239988   1.3891783  92.7457500  26.4994208
  18.9530012  93.6284997  29.3399988  18.9320012  93.8134997  30.2789988
  19.6440012  94.1974997  28.9989988  19.0434618  93.7306606  29.4223864
  18.5170012  93.1964997  32.2619988  18.0290012  92.4604997  31.8909988
  19.0660012  92.8024997  32.9399988  18.5244872  93.0426249  32.3029160
  16.9670012  88.9854997  36.8999988  16.1010012  88.8804997  37.2939988
  17.3440012  89.7444997  37.3459988  16.8993308  89.0736900  37.0142393
  18.2680012  87.2424997  22.4139988  19.1180012  87.6634997  22.5409988
  18.2740012  86.5024997  23.0209988  18.3851372  87.2000803  22.5134344
  18.6630012  85.2954997  24.2379988  17.9360012  84.8164997  24.6349988
  19.2440012  85.5014997  24.9699988  18.6419375  85.2577090  24.3914129
  18.4220012  88.0804997  29.1849988  19.2550012  87.7024997  28.9049988
  18.5340012  89.0234997  29.0659988  18.5512647  88.1562218  29.1305487
  16.9080012  90.9584997  31.4919988  16.2610012  91.2834997  32.1179988
  16.3910012  90.5184997  30.8179988  16.7494029  90.9435004  31.4865827
  18.9310012  85.1964997  20.6289988  18.4090012  85.5534997  19.9099988
  18.8980012  85.8714997  21.3069988  18.8551634  85.3365413  20.6223145
  17.2800012  82.4364997  19.1799988  17.3760012  83.1034997  18.4989988
  17.1400012  81.6204997  18.6979988  17.2742135  82.4174500  19.0218491
  16.4490012  83.8164997  24.8009988  16.2990012  82.8714997  24.7799988
  16.0960012  84.0974997  25.6439988  16.3806625  83.7250441  24.9122346
   1.4850012  85.8944997  28.8109988   1.6690012  85.8124997  27.8749988
   2.3340012  85.7704997  29.2349988   1.6250139  85.8665003  28.7401455
  17.3060012  85.7864997  34.4389988  17.8890012  85.0524997  34.6309988
  17.8700012  86.5584997  34.4859988  17.4619769  85.7904227  34.4716159
  18.8020012  83.6894997  35.1239988  17.9390012  83.3104997  34.9579988
  19.4070012  82.9504997  35.0499988  18.7655979  83.5378023  35.0912817
  16.5270012  79.8444997  18.2969988  17.1380012  79.4734997  18.9339988
  15.6910012  79.4234997  18.4929988  16.4975032  79.7367554  18.4107035
  16.1600012  81.3994997  23.2629988  16.4400012  80.4924997  23.3869988
  16.9190012  81.8334997  22.8739988  16.3009277  81.3340942  23.2273682
  16.7720012  81.9804997  28.6989988  17.7050012  82.1924997  28.6649988
  16.5370012  82.0824997  29.6209988  16.8678036  82.0232769  28.8189976
  16.8010012  82.7174997  31.4749988  15.9580012  82.9854997  31.8409988
  17.2430012  83.5394997  31.2639988  16.7454158  82.8653291  31.4965491
   1.0820012  81.1654997  34.9519988   2.0020012  81.0434997  35.1879988
   0.6330012  80.4154997  35.3409988   1.1471580  81.0473727  35.0369006
  19.0840012  76.6974997  36.8279988  19.4340012  76.0434997  36.2229988
  19.2310012  77.5344997  36.3889988  19.1518419  76.7211591  36.6857118
  16.7730012  78.6624997  23.3109988  16.9560012  78.2134997  24.1369988
  16.1740012  78.0774997  22.8479988  16.7170202  78.5219975  23.3613275
   2.3030012  79.4774997  27.8429988   2.7490012  78.6854997  28.1449988
   2.7700012  80.1934997  28.2739988   2.4270172  79.4660624  27.9424820
   0.6070012  82.4764997  28.9119988   1.0990012  82.2554997  28.1209988
   0.9700012  83.3174997  29.1929988   0.7233126  82.5598357  28.8417531
  18.6040012  78.8064997  35.1779988  17.6860012  79.0774997  35.1419988
  18.7270012  78.2714997  34.3929988  18.4951066  78.7712892  35.0670487
  18.6400012  78.7294997  19.8389988  19.0520012  78.0084997  19.3639988
  19.3220012  79.3994997  19.8979988  18.7885885  78.7212368  19.7818915
   0.9210012  78.7344997  22.9659988  -0.0039988  78.9434997  22.8369988
   1.3750012  79.2184997  22.2769988   0.8557368  78.8285993  22.8551226
  15.6920012  93.7184997  24.9119988  16.3440012  93.3714997  24.3039988
  16.2020012  94.2074997  25.5579988  15.8502637  93.7370597  24.9160236
   0.8850012  77.4724997  31.3109988   0.2200012  77.2264997  31.9539988
   0.4420012  78.0944997  30.7329988   0.7340956  77.5228632  31.3209352
   3.0770012  90.6474997  35.4549988   2.2560012  90.8224997  34.9949988
   2.8240012  90.5744997  36.3759988   2.9306164  90.6615622  35.5164923
   6.0310012  91.6224997  31.7139988   5.6060012  92.4314997  31.4309988
   6.9350012  91.7074997  31.4119988   6.0950271  91.7448469  31.6343776
  10.3420012  93.0214997  34.6729988  10.5270012  92.6874997  35.5509988
  11.1880012  93.3304997  34.3509988  10.4817539  93.0176047  34.7495605
  12.6870012  94.3074997  33.9169988  13.3640012  93.6744997  33.6769988
  13.0090012  94.7084997  34.7239988  12.8231637  94.2751154  33.9932793
  17.6040012  76.8964997  32.9969988  16.7920012  77.2214997  32.6089988
  17.8370012  76.1364997  32.4639988  17.5243423  76.8382436  32.8718253
   3.4330012  94.8784997  31.7609988   2.7120012  95.3184997  31.3099988
   3.0670012  94.6274997  32.6099988   3.2849804  94.9047698  31.8139840
   5.9000012  94.4784997  30.7909988   5.0350012  94.5504997  31.1949988
   5.8450012  95.0254997  30.0069988   5.7742085  94.5622685  30.7403362
  10.6100012  94.3664997  29.9659988  10.1540012  94.8954997  29.3119988
  10.7730012  94.9694997  30.6919988  10.5695585  94.5204468  29.9745062
  12.9380012  93.2444997  30.9109988  12.0330012  93.4094997  30.6459988
  13.3670012  94.0974997  30.8459988  12.8720799  93.3824483  30.8659182
  15.5420012  94.8144997  31.2059988  15.3600012  95.7304997  30.9959988
  15.7190012  94.4044997  30.3599988  15.5410210  94.8844822  31.0627885
   2.8470012  93.5014997  28.6709988   2.8290012  93.0764997  29.5289988
   3.6520012  93.1834997  28.2629988   2.9533875  93.4003812  28.7331655
   4.9890012  92.2114997  27.3259988   4.7700012  91.2954997  27.4959988
   5.8130012  92.3514997  27.7919988   5.0704420  92.1050520  27.4122774
   7.5260012  92.6814997  28.1749988   7.7390012  91.7934997  27.8879988
   7.5900012  92.6474997  29.1289988   7.5638232  92.5553102  28.2647397
  11.0340012  78.3454997  27.3189988  10.3600012  77.7164997  27.5749988
  11.5980012  77.8614997  26.7159988  11.0179230  78.1938744  27.2725340
  16.1770012  76.4534997  27.4319988  16.7810012  77.0004997  26.9299988
  15.3070012  76.7724997  27.1919988  16.1421241  76.5715806  27.3307654
  17.9040012  77.5914997  25.7649988  18.5160012  77.0774997  25.2389988
  18.2860012  78.4694997  25.7889988  18.0394540  77.6397140  25.6961830
   3.3610012  76.9794997  25.1409988   2.5840012  76.7454997  24.6339988
   3.8910012  76.1824997  25.1499988   3.3262330  76.8396988  25.0727742
   2.1970012  76.7774997  20.9449988   2.6360012  77.3884997  20.3529988
   1.5640012  77.3154997  21.4189988   2.1714514  76.9339257  20.9280930
   7.9400012  76.9064997  24.9549988   8.8150012  77.2944997  24.9249988
   7.8040012  76.6914997  25.8769988   8.0413695  76.9305184  25.0756440
  13.4970012  76.9364997  26.6039988  13.5730012  77.0314997  25.6539988
  13.2220012  76.0284997  26.7329988  13.4702321  76.8267867  26.4915079
  14.8500012  76.9624997  22.2959988  14.1480012  77.5774997  22.0869988
  14.4060012  76.1244997  22.4269988  14.6936330  76.9335783  22.2850328
   2.0980012  92.7254997  21.8429988   1.4130012  92.6874997  21.1749988
   2.1020012  93.6384997  22.1309988   2.0048193  92.8437016  21.7905284
   4.0580012  78.6934997  19.3869988   4.5500012  78.0634997  18.8599988
   4.6820012  78.9894997  20.0509988   4.2095446  78.6473199  19.4045980
   9.0840012  78.9864997  21.8439988   9.2620012  78.3404997  22.5269988
   9.0310012  79.8204997  22.3119988   9.1011829  79.0107985  22.0005940
  10.9630012  93.9354997  20.2399988  11.8290012  94.3014997  20.0619988
  10.7160012  93.4954997  19.4259988  11.0482392  93.9261756  20.1056289
  17.6720012  93.4984997  22.9189988  17.4770012  92.7504997  22.3539988
  17.6330012  94.2564997  22.3359988  17.6400380  93.4986099  22.7628384
   3.3190012  77.4934997  34.6589988   2.9530012  76.7284997  35.1019988
   4.2320012  77.5224997  34.9459988   3.3922790  77.3927224  34.7584070
   5.2920012  76.8444997  36.1949988   6.1900012  76.5704997  36.0099988
   4.9050012  76.1014997  36.6589988   5.3626612  76.7065914  36.2323643
   3.9160012  93.6454997  18.8679988   3.6490012  93.9324997  19.7409988
   4.6880012  93.0994997  19.0199988   3.9837488  93.6110294  19.0081050
  13.7130012  76.1764997  36.3769988  13.7900012  75.7504997  37.2309988
  14.6070012  76.1904997  36.0339988  13.8443428  76.1200879  36.4475310
  16.8890012  92.2494997  35.0689988  16.1070012  92.0634997  34.5499988
  16.8170012  93.1784997  35.2869988  16.7721777  92.3496492  35.0274048
  31.2950012  86.1354997  25.0999988  31.3840012  87.0794997  24.9679988
  30.6570012  85.8604997  24.4419988  31.2209081  86.2274830  24.9929614
  30.2280012  85.3904997  28.5189988  30.1900012  84.7444997  29.2239988
  29.9060012  84.9244997  27.7479988  30.1792333  85.2389408  28.5112978
  22.5970012  85.0054997  30.1119988  22.6380012  84.3794997  30.8349988
  23.3000012  85.6294997  30.2939988  22.6976363  85.0041196  30.2356044
  33.9340012  88.3294997  26.8199988  33.4940012  87.6094997  27.2709988
  33.9210012  89.0504997  27.4499988  33.8720226  88.3283731  26.9668494
  23.5200012  89.4554997  28.6469988  23.1510012  88.6534997  28.2769988
  24.4610012  89.2864997  28.6929988  23.5967289  89.3230153  28.6026316
  20.1300012  83.1154997  24.0399988  19.6830012  83.9614997  24.0209988
  19.5690012  82.5354997  23.5239988  19.9929900  83.1529916  23.9676801
  20.8410012  85.2774997  26.1659988  21.0540012  84.5074997  26.6929988
  21.5790012  85.3664997  25.5619988  20.9698496  85.1841394  26.1565300
  31.0460012  93.4344997  27.0329988  31.6660012  92.7574997  26.7589988
  30.8380012  93.2164997  27.9409988  31.1026904  93.3123870  27.1183365
  28.6180012  87.8234997  28.9249988  28.9220012  87.1374997  28.3299988
  29.3390012  87.9414997  29.5429988  28.7570671  87.7456304  28.9271816
  37.2810012  79.4244997  29.7859988  37.3300012  80.0344997  30.5219988
  37.7060012  79.8854997  29.0629988  37.3451824  79.5703741  29.7890205
  31.7590012  82.2174997  29.2529988  31.9010012  81.2714997  29.2729988
  31.6520012  82.4244997  28.3239988  31.7639864  82.1159534  29.1302339
  24.9130012  80.3184997  26.5249988  24.9570012  81.1784997  26.1069988
  24.4560012  79.7664997  25.8909988  24.8572185  80.3615799  26.3820299
  32.6360012  80.4494997  24.9259988  33.2820012  80.1204997  25.5509988
  33.1460012  80.9674997  24.3029988  32.7934264  80.4744611  24.9273862
  21.5340012  82.7154997  27.2869988  22.1870012  82.1654997  27.7189988
  21.5580012  82.4414997  26.3699988  21.6266683  82.6031466  27.2222123
  26.6900012  84.2654997  26.5019988  27.3060012  83.7394997  27.0119988
  26.1040012  83.6254997  26.0989988  26.6950810  84.1069208  26.5173173
  37.6720012  80.9024997  32.0219988  36.9840012  81.5604997  31.9259988
  37.6880012  80.7054997  32.9579988  37.5798525  80.9660462  32.1354808
  23.7240012  79.2364997  30.5989988  23.5050012  79.7664997  29.8329988
  23.0560012  79.4634997  31.2459988  23.6037600  79.3396906  30.5816379
  31.0930012  88.7364997  24.1429988  30.7970012  88.4144997  23.2919988
  30.7680012  89.6364997  24.1839988  31.0086371  88.8140215  24.0321801
  26.2930012  86.9124997  30.8859988  25.5530012  87.5104997  30.9899988
  27.0070012  87.4664997  30.5709988  26.2882237  87.0692831  30.8576465
  34.4000012  79.7404997  26.9059988  34.1840012  78.9744997  27.4389988
  35.0550012  80.2124997  27.4189988  34.4590632  79.6995889  27.0482861
  23.3170012  81.1284997  28.5509988  23.9310012  81.7614997  28.9249988
  23.8290012  80.6564997  27.8949988  23.4702296  81.1512370  28.5134252
  24.7000012  88.8764997  31.6739988  24.6950012  89.7564997  31.2959988
  23.8470012  88.7934997  32.0989988  24.5839464  88.9856117  31.6797907
  20.8210012  88.5474997  22.4559988  20.5490012  88.7764997  21.5669988
  20.8670012  89.3854997  22.9159988  20.7900094  88.6921213  22.3965697
  34.4460012  90.1694997  29.1679988  33.5050012  90.2274997  29.3299988
  34.7230012  91.0754997  29.0309988  34.3544679  90.2999443  29.1716815
  34.7470012  78.4554997  30.5859988  34.0110012  79.0664997  30.5479988
  35.4300012  78.8704997  30.0589988  34.7386541  78.5951374  30.5095832
  27.7500012  76.5424997  28.0519988  27.6330012  75.5934997  27.9969988
  26.8950012  76.8744997  28.3249988  27.6183733  76.4575409  28.0813897
  32.6980012  91.9504997  25.7939988  33.1240012  91.2434997  25.3089988
  33.0150012  92.7514997  25.3769988  32.7991019  91.9620994  25.6713130
  33.8580012  89.8514997  24.3019988  33.6000012  89.1614997  23.6909988
  33.9290012  89.4084997  25.1479988  33.8322856  89.6972124  24.3326885
  35.5440012  88.4174997  32.7799988  35.6840012  87.8264997  32.0399988
  35.7110012  89.2904997  32.4229988  35.5856778  88.4546426  32.6306965
  30.0170012  85.3794997  22.5519988  29.3050012  85.9144997  22.1999988
  30.7080012  85.4354997  21.8919988  30.0130132  85.4602543  22.4146289
  30.0700012  83.8374997  19.5909988  30.7710012  83.8594997  20.2419988
  30.3730012  83.2094997  18.9349988  30.2067830  83.7556566  19.5913711
  37.3860012  84.7574997  30.8459988  36.7330012  85.4524997  30.9349988
  37.8510012  84.9674997  30.0359988  37.3595390  84.8809425  30.7486883
  33.4220012  85.5894997  23.5039988  32.6900012  85.8174997  24.0769988
  33.8700012  84.8754997  23.9589988  33.3823095  85.5242571  23.6439119
  33.3200012  83.7634997  32.5709988  33.4000012  84.5264997  33.1429988
  32.7180012  84.0424997  31.8809988  33.2495756  83.9057134  32.5560589
  25.0680012  86.2194997  25.3859988  24.7370012  85.8494997  24.5679988
  25.6560012  85.5494997  25.7329988  25.1021873  86.0781156  25.3208102
  26.4340012  89.6474997  28.0679988  26.3400012  89.0694997  27.3109988
  27.1640012  89.2764997  28.5639988  26.5197981  89.5182390  28.0314165
  25.4340012  84.9884997  29.0199988  26.0000012  85.1094997  28.2569988
  25.7530012  85.6254997  29.6589988  25.5545786  85.0911884  29.0020040
  31.7430012  90.4914997  29.7539988  31.5030012  91.1534997  30.4019988
  31.5450012  89.6574997  30.1789988  31.6833808  90.4693134  29.9001524
  26.3140012  89.3874997  33.7369988  26.0030012  90.1694997  34.1919988
  25.6640012  89.2344997  33.0509988  26.1835558  89.4739105  33.7065871
  32.2930012  84.7514997  21.1889988  32.8730012  84.9014997  21.9359988
  32.7070012  85.2224997  20.4659988  32.4282830  84.8356841  21.1934134
  23.2340012  85.5854997  32.9659988  23.3050012  86.2364997  33.6639988
  22.3440012  85.6884997  32.6309988  23.1233117  85.6885936  33.0162700
  30.0200012  91.4884997  24.6239988  30.4940012  91.7834997  25.4019988
  29.4570012  92.2264997  24.3909988  30.0087653  91.6286932  24.6990136
  24.5540012  91.4594997  34.4999988  24.5610012  91.3234997  33.5529988
  23.6380012  91.3414997  34.7519988  24.4311714  91.4249430  34.4044666
  35.9920012  76.5014997  21.0019988  35.0920012  76.6404997  21.2969988
  36.2440012  77.3324997  20.5999988  35.9028702  76.6329074  20.9880205
  24.0580012  85.2894997  22.9759988  23.7660012  86.0574997  22.4849988
  23.3840012  84.6294997  22.8129988  23.9269081  85.3054406  22.8867340
  37.1810012  90.8674997  19.3779988  37.2550012  91.8064997  19.5489988
  38.0870012  90.5624997  19.3219988  37.3135100  90.9546722  19.3938119
  20.1510012  87.6524997  31.7909988  19.6500012  87.6244997  30.9759988
  20.1560012  86.7464997  32.0999988  20.0831526  87.5262278  31.7212872
  19.9010012  90.4324997  28.6749988  20.8470012  90.2884997  28.6559988
  19.7890012  91.2164997  29.2119988  20.0152727  90.5188046  28.7450072
  38.0990012  91.0984997  34.3569988  38.0500012  90.1434997  34.3199988
  37.2720012  91.3664997  34.7579988  37.9804940  91.0038998  34.4061375
  29.0780012  90.6724997  33.2329988  29.1650012  91.4984997  33.7079988
  28.2140012  90.3424997  33.4819988  28.9731964  90.7409878  33.3316549
  29.4920012  94.4444997  23.0389988  29.4170012  94.3234997  22.0929988
  29.5250012  95.3944997  23.1579988  29.4861848  94.5562500  22.9254834
  23.1450012  93.2334997  24.8199988  23.2980012  92.8854997  25.6989988
  22.2950012  92.8774997  24.5649988  23.0508962  93.1376650  24.9058340
  32.5940012  93.5984997  20.0409988  32.9690012  92.8544997  19.5709988
  32.5980012  93.3284997  20.9599988  32.6458915  93.4601486  20.1007824
  32.2630012  93.5244997  22.7909988  31.3270012  93.6244997  22.9689988
  32.5430012  92.8154997  23.3689988  32.1728255  93.4422711  22.8935391
  35.2510012  82.5914997  34.8369988  34.8440012  83.0724997  34.1159988
  35.2920012  81.6864997  34.5289988  35.2008437  82.5349374  34.6966683
  22.4000012  88.9754997  32.8339988  22.6160012  88.6144997  33.6929988
  21.5450012  88.6014997  32.6239988  22.3139292  88.8754111  32.9233386
  25.0190012  77.4454997  28.8289988  24.1570012  77.3584997  28.4219988
  24.9960012  78.3014997  29.2569988  24.8980330  77.5492765  28.8311863
  29.6820012  77.1674997  32.2039988  30.1020012  76.7524997  32.9569988
  28.7490012  76.9894997  32.3209988  29.6133644  77.0865900  32.3229539
  33.0080012  80.9234997  33.0569988  32.4940012  80.7974997  33.8549988
  32.8530012  81.8354997  32.8129988  32.9166852  81.0296132  33.1332158
  33.7710012  85.7844997  18.8189988  33.8130012  85.5614997  17.8889988
  34.6200012  86.1834997  19.0089988  33.8915396  85.8079155  18.7173627
  29.3430012  79.6604997  19.4889988  29.0900012  79.6794997  20.4119988
  29.0870012  78.7884997  19.1879988  29.2737790  79.5452437  19.5746263
  25.1100012  82.4114997  29.9239988  24.4680012  82.3704997  30.6329988
  25.1470012  83.3374997  29.6869988  25.0271324  82.5311559  29.9889824
  25.1070012  82.6324997  24.8359988  24.2140012  82.2914997  24.7779988
  25.5570012  82.2554997  24.0809988  25.0457305  82.5348484  24.7259177
  30.6420012  83.0484997  23.6529988  30.2330012  83.8634997  23.3619988
  31.3630012  82.9084997  23.0389988  30.6834537  83.1412018  23.5301342
  29.7440012  83.2234997  35.1409988  29.1820012  82.5194997  35.4619988
  30.5710012  83.1034997  35.6089988  29.7787095  83.1107883  35.2482330
  31.6470012  82.4944997  26.4669988  31.4520012  83.0994997  25.7519988
  31.8280012  81.6604997  26.0329988  31.6447614  82.4646300  26.3104405
  22.8600012  82.7314997  31.7909988  22.8220012  83.1314997  32.6599988
  22.3690012  81.9144997  31.8819988  22.7884684  82.6758069  31.9221059
  26.2260012  80.1054997  18.5899988  25.7950012  79.6604997  19.3199988
  25.5080012  80.4774997  18.0779988  26.0699438  80.0948940  18.6206799
  19.4680012  79.8474997  25.6419988  20.0990012  79.8184997  26.3609988
  19.9170012  79.4224997  24.9119988  19.6150774  79.7860492  25.6416553
  20.7420012  80.5934997  21.0659988  21.2160012  81.1844997  20.4809988
  20.0250012  81.1244997  21.4129988  20.7099341  80.7460867  21.0328836
  30.9110012  84.1324997  31.1389988  31.2340012  83.5014997  30.4959988
  30.4710012  83.5974997  31.7989988  30.8956895  83.9738441  31.1402850
  27.6880012  80.0594997  25.9229988  26.7770012  80.1164997  26.2109988
  28.1940012  79.9994997  26.7329988  27.6315413  80.0591985  26.0720622
  22.5170012  81.6884997  24.7489988  21.6270012  81.7884997  24.4089988
  22.8130012  80.8464997  24.4029988  22.4352823  81.5883545  24.6557213
  26.1700012  81.6884997  22.4059988  27.1010012  81.8174997  22.5839988
  25.9550012  82.3584997  21.7559988  26.2684247  81.7966565  22.3425747
  32.0930012  79.2944997  29.1869988  31.4170012  79.4254997  29.8509988
  31.6080012  79.1394997  28.3769988  31.9347145  79.2914905  29.1684517
  24.8440012  82.8834997  19.9729988  24.3010012  82.5034997  19.2809988
  25.6770012  83.0774997  19.5439988  24.8824399  82.8578124  19.8204526
  35.3810012  94.9664997  35.4639988  35.5810012  95.3904997  34.6289988
  36.0360012  95.3094997  36.0709988  35.4970051  95.0709648  35.4317836
  22.9790012  87.4404997  35.0719988  23.7110012  87.6944997  35.6329988
  22.1990012  87.6444997  35.5869988  22.9738232  87.5029177  35.2185760
  29.0080012  82.8474997  27.8099988  29.5730012  82.3004997  27.2629988
  28.8610012  82.3254997  28.5979988  29.0652918  82.7022024  27.8418454
  24.0100012  78.9834997  24.2279988  23.6930012  78.0814997  24.1929988
  24.7920012  78.9854997  23.6749988  24.0722284  78.8601628  24.1484783
  27.6350012  81.2354997  30.2239988  26.7990012  81.6894997  30.3339988
  28.1590012  81.5114997  30.9759988  27.5914414  81.3349376  30.3407136
  28.1790012  87.4484997  21.9079988  27.4340012  86.9414997  21.5859988
  28.0450012  87.4974997  22.8549988  28.0588776  87.3856940  21.9918647
  35.3290012  86.5814997  30.6949988  35.9710012  87.0384997  30.1509988
  34.4990012  86.6944997  30.2319988  35.3045963  86.6592704  30.5580177
  32.0770012  80.2624997  20.1079988  31.1380012  80.3744997  19.9559988
  32.3740012  81.1194997  20.4139988  31.9887666  80.3936443  20.1285768
  29.6980012  87.6324997  33.1449988  29.3530012  87.2514997  33.9519988
  29.4980012  88.5664997  33.2169988  29.6238061  87.7065228  33.2650961
  32.7950012  82.1294997  21.7679988  33.6870012  81.9924997  22.0869988
  32.8520012  82.9204997  21.2319988  32.9246285  82.2176660  21.7391691
  23.3040012  86.7434997  27.6779988  24.0490012  86.7414997  27.0769988
  23.3820012  85.9204997  28.1599988  23.4165518  86.6319315  27.6608929
  30.3050012  88.9074997  20.9339988  30.0090012  89.7334997  21.3149988
  29.6020012  88.2874997  21.1299988  30.1694914  88.9368199  21.0126443
  20.3120012  85.2044997  32.9929988  20.5350012  84.7864997  33.8249988
  19.7100012  84.5914997  32.5699988  20.2611759  85.0644668  33.0497022
  27.3280012  84.7214997  35.2059988  27.0320012  84.5554997  34.3109988
  28.2600012  84.5014997  35.1949988  27.4134166  84.6690640  35.0820536
  31.9490012  90.0944997  33.0959988  31.0480012  90.2774997  32.8279988
  31.9830012  90.3534997  34.0169988  31.8303041  90.1545512  33.1838197
  37.6800012  82.3394997  21.4629988  37.1260012  81.9434997  20.7909988
  37.7800012  83.2494997  21.1849988  37.6177059  82.4083586  21.3334401
  37.6430012  88.1394997  34.2999988  36.7920012  88.3774997  33.9329988
  38.2340012  88.1224997  33.5469988  37.6062487  88.1698258  34.1478893
  35.9750012  91.1254997  21.9279988  35.6020012  90.2994997  22.2369988
  36.2530012  90.9424997  21.0309988  35.9615630  90.9877303  21.8489626
  33.1360012  85.9334997  28.9489988  32.2070012  85.7014997  28.9219988
  33.5870012  85.1564997  28.6189988  33.0699216  85.7967238  28.9006917
  25.6790012  90.2614997  25.0819988  26.2060012  91.0344997  24.8819988
  24.7990012  90.4864997  24.7809988  25.6321773  90.3978005  25.0139010
  21.4340012  85.1234997  19.6689988  22.0500012  85.7504997  20.0489988
  20.5720012  85.4394997  19.9409988  21.4017698  85.2519430  19.7577183
  27.1060012  87.9244997  24.6589988  26.8650012  88.8494997  24.6999988
  26.3650012  87.4654997  25.0549988  26.9728409  87.9891421  24.7181377
  27.6210012  92.0734997  30.9739988  27.9830012  92.9284997  30.7399988
  28.1520012  91.7814997  31.7139988  27.7424473  92.1511060  31.0420855
  25.7890012  92.9464997  24.2039988  24.8390012  93.0514997  24.2549988
  26.1410012  93.7664997  24.5489988  25.7064203  93.0718314  24.2576650
  31.1650012  88.1724997  30.6739988  30.7390012  87.9454997  31.5009988
  31.7450012  87.4344997  30.4919988  31.1851868  88.0415299  30.7625830
  33.3680012  89.1014997  19.7479988  33.7210012  88.7214997  20.5529988
  32.4190012  89.0084997  19.8349988  33.2880441  89.0369596  19.8698559
  33.8230012  92.7244997  33.1439988  33.2220012  92.1694997  32.6479988
  34.1050012  93.3914997  32.5179988  33.7788519  92.7386841  32.9914952
  37.8710012  93.5814997  19.9489988  38.6150012  94.1674997  19.8089988
  37.1770012  94.1494997  20.2829988  37.8790292  93.7385582  19.9749961
  21.9460012  79.9574997  32.5509988  21.0530012  80.2964997  32.4829988
  21.8470012  79.1024997  32.9689988  21.8104164  79.8882588  32.5982235
  34.2340012  87.7744997  21.9749988  33.9560012  87.0464997  22.5309988
  35.1610012  87.8934997  22.1799988  34.3213124  87.6908802  22.0788845
  21.5970012  91.7624997  30.9859988  21.8140012  90.8304997  30.9549988
  21.8430012  92.0364997  31.8689988  21.6599549  91.6720636  31.1011763
  27.4590012  90.2134997  18.1949988  27.6980012  89.4654997  17.6479988
  27.1900012  89.8254997  19.0279988  27.4553675  90.0586638  18.2326865
  26.3960012  89.7834997  20.6519988  26.5420012  89.2634997  21.4419988
  26.3930012  90.6904997  20.9579988  26.4155989  89.8348853  20.8016088
  22.8490012  87.0364997  21.1619988  22.1630012  87.3884997  21.7289988
  23.3710012  87.7994997  20.9149988  22.8256852  87.1878578  21.2062118
  30.6800012  79.6984997  31.4409988  31.3790012  79.7724997  32.0909988
  30.2990012  78.8344997  31.5949988  30.7241767  79.5917624  31.5508322
  31.4650012  79.3504997  22.5379988  31.6850012  79.8224997  21.7349988
  32.0230012  79.7454997  23.2079988  31.5704968  79.4684285  22.5187331
  29.1330012  91.4814997  21.4009988  28.3170012  91.9784997  21.4529988
  29.6630012  91.9564997  20.7609988  29.0929161  91.6137722  21.3215956
  28.6650012  81.0784997  23.3729988  29.4770012  81.5834997  23.4189988
  28.4200012  80.9334997  24.2869988  28.7430520  81.1280375  23.5028517
  29.2000012  82.0644997  32.5579988  29.3190012  82.6384997  33.3149988
  29.8560012  81.3764997  32.6719988  29.3049757  82.0501079  32.6770825
  29.5480012  78.1594997  24.3109988  29.2020012  78.7774997  24.9559988
  30.2070012  78.6604997  23.8299988  29.5897826  78.3115802  24.3340971
  26.4720012  92.5254997  21.3829988  26.6320012  93.3244997  20.8819988
  26.2740012  92.8314997  22.2679988  26.4671649  92.6764469  21.4339815
  25.2060012  79.2224997  20.9979988  25.1230012  80.1114997  21.3449988
  26.0960012  78.9574997  21.2299988  25.3149469  79.3081430  21.0767626
  35.4050012  79.9714997  33.3929988  34.4880012  80.2344997  33.3049988
  35.7400012  79.9684997  32.4959988  35.3249900  80.0070224  33.2597919
  34.0070012  83.7224997  27.4879988  33.2090012  83.3074997  27.1599988
  34.4520012  83.0314997  27.9789988  33.9579885  83.5723543  27.5094889
  23.4650012  89.6504997  20.0589988  24.0570012  90.3494997  20.3349988
  23.9240012  89.2174997  19.3389988  23.6081142  89.6877049  19.9994830
  21.7810012  82.3144997  19.1749988  21.7360012  83.2534997  19.3529988
  20.8930012  82.0784997  18.9049988  21.6548574  82.4111892  19.1628912
  35.0930012  92.9784997  29.1109988  34.9380012  93.6564997  28.4539988
  36.0260012  93.0504997  29.3139988  35.1978500  93.0810170  29.0485119
  22.5890012  77.0964997  27.8479988  22.3600012  77.1554997  26.9199988
  22.1460012  76.3044997  28.1539988  22.4978530  76.9975753  27.7624786
  21.5190012  91.0364997  24.0079988  20.6870012  91.5094997  24.0359988
  22.0650012  91.5464997  23.4099988  21.4789739  91.1701871  23.9309716
  20.8070012  93.6494997  35.3379988  21.3480012  93.4324997  36.0979988
  20.3260012  92.8434997  35.1489988  20.8159345  93.5109514  35.4163076
  25.4050012  92.5684997  36.9589988  26.1720012  92.1094997  37.2999988
  25.3830012  92.3424997  36.0289988  25.5071434  92.4750409  36.8800043
  29.4970012  92.0764997  18.3339988  28.8530012  91.4454997  18.6549988
  30.2590012  91.5454997  18.1019988  29.5118077  91.9182920  18.3466011
  31.9820012  90.9484997  35.6879988  31.6310012  90.0924997  35.9309988
  32.7080012  91.0914997  36.2949988  32.0320769  90.8505636  35.8033619
  34.1010012  91.8934997  18.5679988  34.3840012  91.0994997  19.0199988
  34.8410012  92.1264997  18.0069988  34.2397486  91.8162803  18.5540698
  20.7140012  87.4594997  36.2929988  20.8580012  86.5574997  36.0059988
  19.9420012  87.7454997  35.8049988  20.6293322  87.3748261  36.1877881
  25.0560012  87.8034997  18.4249988  25.1200012  87.0094997  18.9559988
  25.7090012  87.6844997  17.7349988  25.1530241  87.6787148  18.4044317
  27.3700012  87.4294997  35.7249988  27.0410012  87.7004997  34.8679988
  27.5220012  86.4884997  35.6379988  27.3454809  87.3393862  35.5958244
  30.4080012  88.8504997  18.1609988  30.1390012  89.0304997  19.0619988
  30.2020012  87.9244997  18.0299988  30.3433825  88.7500152  18.2665214
  33.1040012  87.3454997  33.1089988  33.8500012  87.9334997  32.9889988
  32.3470012  87.9274997  33.1719988  33.1037554  87.5047011  33.1010907
  21.5470012  84.6594997  35.7129988  21.9550012  83.8024997  35.5919988
  21.2870012  84.6744997  36.6339988  21.5677568  84.5440807  35.8209588
  26.2050012  85.7754997  20.7309988  25.7450012  85.2914997  21.4169988
  26.4600012  85.1074997  20.0949988  26.1764902  85.6188731  20.7389334
  25.4940012  83.6684997  33.0869988  24.8760012  84.3434997  33.3669988
  25.8380012  83.9894997  32.2539988  25.4559615  83.8042721  33.0126581
  27.2760012  84.0184997  18.9929988  27.0960012  83.8644997  18.0659988
  28.2260012  84.1264997  19.0379988  27.3797776  84.0120175  18.8721843
  30.5140012  86.1404997  36.3639988  31.4670012  86.2234997  36.3369988
  30.3530012  85.4284997  36.9839988  30.6226426  86.0556746  36.4440579
  36.6660012  86.3734997  18.4389988  36.3920012  85.9484997  17.6259988
  36.7050012  87.3044997  18.2219988  36.6337699  86.4412484  18.2983610
  25.8330012  81.0234997  34.1689988  25.9830012  80.2944997  33.5669988
  25.8360012  81.8004997  33.6099988  25.8539302  81.0287851  34.0110692
  26.2460012  79.3934997  31.6619988  26.7820012  79.8444997  31.0099988
  25.3940012  79.2854997  31.2389988  26.2042178  79.4406390  31.5155756
  27.8280012  84.8324997  31.9009988  28.5780012  84.6764997  31.3279988
  27.4890012  85.6844997  31.6259988  27.8848921  84.9262968  31.7853561
  32.2430012  82.6474997  36.9299988  32.4360012  81.7164997  36.8179988
  33.1010012  83.0724997  36.9199988  32.3853020  82.5776389  36.9133361
  33.5600012  85.4364997  35.0069988  33.2790012  86.1454997  34.4299988
  34.5030012  85.3634997  34.8559988  33.6489027  85.5237646  34.9075551
  24.3120012  82.2214997  36.0809988  23.5450012  81.6894997  35.8709988
  24.9910012  81.9114997  35.4809988  24.2987022  82.1067506  35.9711648
  27.0520012  76.8494997  32.0929988  26.9530012  77.7964997  31.9879988
  26.3090012  76.4774997  31.6179988  26.9380564  76.9285902  32.0144560
  28.3160012  81.1714997  35.6569988  28.0800012  80.9514997  36.5589988
  27.5320012  80.9644997  35.1469988  28.1778628  81.1134760  35.7113932
  31.0310012  80.2984997  34.7329988  30.0840012  80.3304997  34.8649988
  31.3440012  79.6734997  35.3859988  30.9435475  80.2183207  34.8394455
  32.6650012  78.9324997  36.7379988  32.5690012  77.9804997  36.7319988
  32.3440012  79.2014997  37.5979988  32.6084070  78.8384035  36.8535441
  22.4920012  80.1424997  35.7849988  22.7040012  79.4354997  35.1749988
  22.3810012  79.7044997  36.6289988  22.5059721  79.9867084  35.8156843
  27.2730012  76.1434997  34.7649988  27.9850012  75.5034997  34.7509988
  27.1720012  76.4104997  33.8509988  27.3567939  76.0919938  34.6395650
  27.6270012  77.8264997  36.8179988  27.4950012  77.3504997  35.9979988
  27.0280012  78.5704997  36.7629988  27.5279071  77.8619618  36.6982886
  27.1730012  94.7094997  19.9949988  28.1060012  94.8674997  20.1379988
  26.9090012  95.3844997  19.3699988  27.2649510  94.8223611  19.9300741
  20.7420012  89.3454997  19.4769988  21.6560012  89.4244997  19.7509988
  20.7490012  88.6584997  18.8109988  20.8681131  89.2633961  19.4244393
  19.3910012  94.7384997  24.5549988  18.7440012  94.2764997  24.0219988
  19.7450012  94.0664997  25.1369988  19.3503849  94.5844723  24.5607959
  20.2610012  92.8194997  26.3589988  19.9260012  91.9394997  26.5309988
  20.4830012  93.1644997  27.2239988  20.2451783  92.7457500  26.4994208
  37.8090012  93.6284997  29.3399988  37.7880012  93.8134997  30.2789988
  38.5000012  94.1974997  28.9989988  37.8994618  93.7306606  29.4223864
  37.3730012  93.1964997  32.2619988  36.8850012  92.4604997  31.8909988
  37.9220012  92.8024997  32.9399988  37.3804872  93.0426249  32.3029160
  35.8230012  88.9854997  36.8999988  34.9570012  88.8804997  37.2939988
  36.2000012  89.7444997  37.3459988  35.7553308  89.0736900  37.0142393
  37.1240012  87.2424997  22.4139988  37.9740012  87.6634997  22.5409988
  37.1300012  86.5024997  23.0209988  37.2411372  87.2000803  22.5134344
  37.5190012  85.2954997  24.2379988  36.7920012  84.8164997  24.6349988
  38.1000012  85.5014997  24.9699988  37.4979375  85.2577090  24.3914129
  37.2780012  88.0804997  29.1849988  38.1110012  87.7024997  28.9049988
  37.3900012  89.0234997  29.0659988  37.4072647  88.1562218  29.1305487
  35.7640012  90.9584997  31.4919988  35.1170012  91.2834997  32.1179988
  35.2470012  90.5184997  30.8179988  35.6054029  90.9435004  31.4865827
  37.7870012  85.1964997  20.6289988  37.2650012  85.5534997  19.9099988
  37.7540012  85.8714997  21.3069988  37.7111634  85.3365413  20.6223145
  36.1360012  82.4364997  19.1799988  36.2320012  83.1034997  18.4989988
  35.9960012  81.6204997  18.6979988  36.1302135  82.4174500  19.0218491
  35.3050012  83.8164997  24.8009988  35.1550012  82.8714997  24.7799988
  34.9520012  84.0974997  25.6439988  35.2366625  83.7250441  24.9122346
  20.3410012  85.8944997  28.8109988  20.5250012  85.8124997  27.8749988
  21.1900012  85.7704997  29.2349988  20.4810139  85.8665003  28.7401455
  36.1620012  85.7864997  34.4389988  36.7450012  85.0524997  34.6309988
  36.7260012  86.5584997  34.4859988  36.3179769  85.7904227  34.4716159
  37.6580012  83.6894997  35.1239988  36.7950012  83.3104997  34.9579988
  38.2630012  82.9504997  35.0499988  37.6215979  83.5378023  35.0912817
  35.3830012  79.8444997  18.2969988  35.9940012  79.4734997  18.9339988
  34.5470012  79.4234997  18.4929988  35.3535032  79.7367554  18.4107035
  35.0160012  81.3994997  23.2629988  35.2960012  80.4924997  23.3869988
  35.7750012  81.8334997  22.8739988  35.1569277  81.3340942  23.2273682
  35.6280012  81.9804997  28.6989988  36.5610012  82.1924997  28.6649988
  35.3930012  82.0824997  29.6209988  35.7238036  82.0232769  28.8189976
  35.6570012  82.7174997  31.4749988  34.8140012  82.9854997  31.8409988
  36.0990012  83.5394997  31.2639988  35.6014158  82.8653291  31.4965491
  19.9380012  81.1654997  34.9519988  20.8580012  81.0434997  35.1879988
  19.4890012  80.4154997  35.3409988  20.0031580  81.0473727  35.0369006
  37.9400012  76.6974997  36.8279988  38.2900012  76.0434997  36.2229988
  38.0870012  77.5344997  36.3889988  38.0078419  76.7211591  36.6857118
  35.6290012  78.6624997  23.3109988  35.8120012  78.2134997  24.1369988
  35.0300012  78.0774997  22.8479988  35.5730202  78.5219975  23.3613275
  21.1590012  79.4774997  27.8429988  21.6050012  78.6854997  28.1449988
  21.6260012  80.1934997  28.2739988  21.2830172  79.4660624  27.9424820
  19.4630012  82.4764997  28.9119988  19.9550012  82.2554997  28.1209988
  19.8260012  83.3174997  29.1929988  19.5793126  82.5598357  28.8417531
  37.4600012  78.8064997  35.1779988  36.5420012  79.0774997  35.1419988
  37.5830012  78.2714997  34.3929988  37.3511066  78.7712892  35.0670487
  37.4960012  78.7294997  19.8389988  37.9080012  78.0084997  19.3639988
  38.1780012  79.3994997  19.8979988  37.6445885  78.7212368  19.7818915
  19.7770012  78.7344997  22.9659988  18.8520012  78.9434997  22.8369988
  20.2310012  79.2184997  22.2769988  19.7117368  78.8285993  22.8551226
  34.5480012  93.7184997  24.9119988  35.2000012  93.3714997  24.3039988
  35.0580012  94.2074997  25.5579988  34.7062637  93.7370597  24.9160236
  19.7410012  77.4724997  31.3109988  19.0760012  77.2264997  31.9539988
  19.2980012  78.0944997  30.7329988  19.5900956  77.5228632  31.3209352
  21.9330012  90.6474997  35.4549988  21.1120012  90.8224997  34.9949988
  21.6800012  90.5744997  36.3759988  21.7866164  90.6615622  35.5164923
  24.8870012  91.6224997  31.7139988  24.4620012  92.4314997  31.4309988
  25.7910012  91.7074997  31.4119988  24.9510271  91.7448469  31.6343776
  29.1980012  93.0214997  34.6729988  29.3830012  92.6874997  35.5509988
  30.0440012  93.3304997  34.3509988  29.3377539  93.0176047  34.7495605
  31.5430012  94.3074997  33.9169988  32.2200012  93.6744997  33.6769988
  31.8650012  94.7084997  34.7239988  31.6791637  94.2751154  33.9932793
  36.4600012  76.8964997  32.9969988  35.6480012  77.2214997  32.6089988
  36.6930012  76.1364997  32.4639988  36.3803423  76.8382436  32.8718253
  22.2890012  94.8784997  31.7609988  21.5680012  95.3184997  31.3099988
  21.9230012  94.6274997  32.6099988  22.1409804  94.9047698  31.8139840
  24.7560012  94.4784997  30.7909988  23.8910012  94.5504997  31.1949988
  24.7010012  95.0254997  30.0069988  24.6302085  94.5622685  30.7403362
  29.4660012  94.3664997  29.9659988  29.0100012  94.8954997  29.3119988
  29.6290012  94.9694997  30.6919988  29.4255585  94.5204468  29.9745062
  31.7940012  93.2444997  30.9109988  30.8890012  93.4094997  30.6459988
  32.2230012  94.0974997  30.8459988  31.7280799  93.3824483  30.8659182
  34.3980012  94.8144997  31.2059988  34.2160012  95.7304997  30.9959988
  34.5750012  94.4044997  30.3599988  34.3970210  94.8844822  31.0627885
  21.7030012  93.5014997  28.6709988  21.6850012  93.0764997  29.5289988
  22.5080012  93.1834997  28.2629988  21.8093875  93.4003812  28.7331655
  23.8450012  92.2114997  27.3259988  23.6260012  91.2954997  27.4959988
  24.6690012  92.3514997  27.7919988  23.9264420  92.1050520  27.4122774
  26.3820012  92.6814997  28.1749988  26.5950012  91.7934997  27.8879988
  26.4460012  92.6474997  29.1289988  26.4198231  92.5553102  28.2647397
  29.8900012  78.3454997  27.3189988  29.2160012  77.7164997  27.5749988
  30.4540012  77.8614997  26.7159988  29.8739230  78.1938744  27.2725340
  35.0330012  76.4534997  27.4319988  35.6370012  77.0004997  26.9299988
  34.1630012  76.7724997  27.1919988  34.9981241  76.5715806  27.3307654
  36.7600012  77.5914997  25.7649988  37.3720012  77.0774997  25.2389988
  37.1420012  78.4694997  25.7889988  36.8954540  77.6397140  25.6961830
  22.2170012  76.9794997  25.1409988  21.4400012  76.7454997  24.6339988
  22.7470012  76.1824997  25.1499988  22.1822330  76.8396988  25.0727742
  21.0530012  76.7774997  20.9449988  21.4920012  77.3884997  20.3529988
  20.4200012  77.3154997  21.4189988  21.0274514  76.9339257  20.9280930
  26.7960012  76.9064997  24.9549988  27.6710012  77.2944997  24.9249988
  26.6600012  76.6914997  25.8769988  26.8973695  76.9305184  25.0756440
  32.3530012  76.9364997  26.6039988  32.4290012  77.0314997  25.6539988
  32.0780012  76.0284997  26.7329988  32.3262321  76.8267867  26.4915079
  33.7060012  76.9624997  22.2959988  33.0040012  77.5774997  22.0869988
  33.2620012  76.1244997  22.4269988  33.5496330  76.9335783  22.2850328
  20.9540012  92.7254997  21.8429988  20.2690012  92.6874997  21.1749988
  20.9580012  93.6384997  22.1309988  20.8608193  92.8437016  21.7905284
  22.9140012  78.6934997  19.3869988  23.4060012  78.0634997  18.8599988
  23.5380012  78.9894997  20.0509988  23.0655446  78.6473199  19.4045980
  27.9400012  78.9864997  21.8439988  28.1180012  78.3404997  22.5269988
  27.8870012  79.8204997  22.3119988  27.9571829  79.0107985  22.0005940
  29.8190012  93.9354997  20.2399988  30.6850012  94.3014997  20.0619988
  29.5720012  93.4954997  19.4259988  29.9042392  93.9261756  20.1056289
  36.5280012  93.4984997  22.9189988  36.3330012  92.7504997  22.3539988
  36.4890012  94.2564997  22.3359988  36.4960380  93.4986099  22.7628384
  22.1750012  77.4934997  34.6589988  21.8090012  76.7284997  35.1019988
  23.0880012  77.5224997  34.9459988  22.2482790  77.3927224  34.7584070
  24.1480012  76.8444997  36.1949988  25.0460012  76.5704997  36.0099988
  23.7610012  76.1014997  36.6589988  24.2186612  76.7065914  36.2323643
  22.7720012  93.6454997  18.8679988  22.5050012  93.9324997  19.7409988
  23.5440012  93.0994997  19.0199988  22.8397488  93.6110294  19.0081050
  32.5690012  76.1764997  36.3769988  32.6460012  75.7504997  37.2309988
  33.4630012  76.1904997  36.0339988  32.7003428  76.1200879  36.4475310
  35.7450012  92.2494997  35.0689988  34.9630012  92.0634997  34.5499988
  35.6730012  93.1784997  35.2869988  35.6281777  92.3496492  35.0274048
  50.1510012  86.1354997  25.0999988  50.2400012  87.0794997  24.9679988
  49.5130012  85.8604997  24.4419988  50.0769081  86.2274830  24.9929614
  49.0840012  85.3904997  28.5189988  49.0460012  84.7444997  29.2239988
  48.7620012  84.9244997  27.7479988  49.0352333  85.2389408  28.5112978
  41.4530012  85.0054997  30.1119988  41.4940012  84.3794997  30.8349988
  42.1560012  85.6294997  30.2939988  41.5536363  85.0041196  30.2356044
  52.7900012  88.3294997  26.8199988  52.3500012  87.6094997  27.2709988
  52.7770012  89.0504997  27.4499988  52.7280226  88.3283731  26.9668494
  42.3760012  89.4554997  28.6469988  42.0070012  88.6534997  28.2769988
  43.3170012  89.2864997  28.6929988  42.4527289  89.3230153  28.6026316
  38.9860012  83.1154997  24.0399988  38.5390012  83.9614997  24.0209988
  38.4250012  82.5354997  23.5239988  38.8489900  83.1529916  23.9676801
  39.6970012  85.2774997  26.1659988  39.9100012  84.5074997  26.6929988
  40.4350012  85.3664997  25.5619988  39.8258496  85.1841394  26.1565300
  49.9020012  93.4344997  27.0329988  50.5220012  92.7574997  26.7589988
  49.6940012  93.2164997  27.9409988  49.9586904  93.3123870  27.1183365
  47.4740012  87.8234997  28.9249988  47.7780012  87.1374997  28.3299988
  48.1950012  87.9414997  29.5429988  47.6130671  87.7456305  28.9271816
  56.1370012  79.4244997  29.7859988  56.1860012  80.0344997  30.5219988
  56.5620012  79.8854997  29.0629988  56.2011824  79.5703741  29.7890205
  50.6150012  82.2174997  29.2529988  50.7570012  81.2714997  29.2729988
  50.5080012  82.4244997  28.3239988  50.6199863  82.1159534  29.1302339
  43.7690012  80.3184997  26.5249988  43.8130012  81.1784997  26.1069988
  43.3120012  79.7664997  25.8909988  43.7132185  80.3615799  26.3820299
  51.4920012  80.4494997  24.9259988  52.1380012  80.1204997  25.5509988
  52.0020012  80.9674997  24.3029988  51.6494264  80.4744611  24.9273862
  40.3900012  82.7154997  27.2869988  41.0430012  82.1654997  27.7189988
  40.4140012  82.4414997  26.3699988  40.4826683  82.6031466  27.2222123
  45.5460012  84.2654997  26.5019988  46.1620012  83.7394997  27.0119988
  44.9600012  83.6254997  26.0989988  45.5510810  84.1069208  26.5173173
  56.5280012  80.9024997  32.0219988  55.8400012  81.5604997  31.9259988
  56.5440012  80.7054997  32.9579988  56.4358525  80.9660462  32.1354808
  42.5800012  79.2364997  30.5989988  42.3610012  79.7664997  29.8329988
  41.9120012  79.4634997  31.2459988  42.4597600  79.3396906  30.5816379
  49.9490012  88.7364997  24.1429988  49.6530012  88.4144997  23.2919988
  49.6240012  89.6364997  24.1839988  49.8646371  88.8140215  24.0321801
  45.1490012  86.9124997  30.8859988  44.4090012  87.5104997  30.9899988
  45.8630012  87.4664997  30.5709988  45.1442237  87.0692831  30.8576465
  53.2560012  79.7404997  26.9059988  53.0400012  78.9744997  27.4389988
  53.9110012  80.2124997  27.4189988  53.3150632  79.6995889  27.0482861
  42.1730012  81.1284997  28.5509988  42.7870012  81.7614997  28.9249988
  42.6850012  80.6564997  27.8949988  42.3262296  81.1512370  28.5134252
  43.5560012  88.8764997  31.6739988  43.5510012  89.7564997  31.2959988
  42.7030012  88.7934997  32.0989988  43.4399464  88.9856117  31.6797907
  39.6770012  88.5474997  22.4559988  39.4050012  88.7764997  21.5669988
  39.7230012  89.3854997  22.9159988  39.6460094  88.6921213  22.3965697
  53.3020012  90.1694997  29.1679988  52.3610012  90.2274997  29.3299988
  53.5790012  91.0754997  29.0309988  53.2104679  90.2999443  29.1716815
  53.6030012  78.4554997  30.5859988  52.8670012  79.0664997  30.5479988
  54.2860012  78.8704997  30.0589988  53.5946541  78.5951374  30.5095832
  46.6060012  76.5424997  28.0519988  46.4890012  75.5934997  27.9969988
  45.7510012  76.8744997  28.3249988  46.4743733  76.4575409  28.0813897
  51.5540012  91.9504997  25.7939988  51.9800012  91.2434997  25.3089988
  51.8710012  92.7514997  25.3769988  51.6551019  91.9620994  25.6713130
  52.7140012  89.8514997  24.3019988  52.4560012  89.1614997  23.6909988
  52.7850012  89.4084997  25.1479988  52.6882856  89.6972124  24.3326885
  54.4000012  88.4174997  32.7799988  54.5400012  87.8264997  32.0399988
  54.5670012  89.2904997  32.4229988  54.4416778  88.4546426  32.6306965
  48.8730012  85.3794997  22.5519988  48.1610012  85.9144997  22.1999988
  49.5640012  85.4354997  21.8919988  48.8690132  85.4602543  22.4146289
  48.9260012  83.8374997  19.5909988  49.6270012  83.8594997  20.2419988
  49.2290012  83.2094997  18.9349988  49.0627830  83.7556566  19.5913711
  56.2420012  84.7574997  30.8459988  55.5890012  85.4524997  30.9349988
  56.7070012  84.9674997  30.0359988  56.2155390  84.8809425  30.7486883
  52.2780012  85.5894997  23.5039988  51.5460012  85.8174997  24.0769988
  52.7260012  84.8754997  23.9589988  52.2383095  85.5242571  23.6439119
  52.1760012  83.7634997  32.5709988  52.2560012  84.5264997  33.1429988
  51.5740012  84.0424997  31.8809988  52.1055756  83.9057134  32.5560589
  43.9240012  86.2194997  25.3859988  43.5930012  85.8494997  24.5679988
  44.5120012  85.5494997  25.7329988  43.9581873  86.0781156  25.3208102
  45.2900012  89.6474997  28.0679988  45.1960012  89.0694997  27.3109988
  46.0200012  89.2764997  28.5639988  45.3757981  89.5182390  28.0314165
  44.2900012  84.9884997  29.0199988  44.8560012  85.1094997  28.2569988
  44.6090012  85.6254997  29.6589988  44.4105786  85.0911884  29.0020040
  50.5990012  90.4914997  29.7539988  50.3590012  91.1534997  30.4019988
  50.4010012  89.6574997  30.1789988  50.5393808  90.4693134  29.9001524
  45.1700012  89.3874997  33.7369988  44.8590012  90.1694997  34.1919988
  44.5200012  89.2344997  33.0509988  45.0395558  89.4739105  33.7065871
  51.1490012  84.7514997  21.1889988  51.7290012  84.9014997  21.9359988
  51.5630012  85.2224997  20.4659988  51.2842830  84.8356841  21.1934134
  42.0900012  85.5854997  32.9659988  42.1610012  86.2364997  33.6639988
  41.2000012  85.6884997  32.6309988  41.9793117  85.6885936  33.0162700
  48.8760012  91.4884997  24.6239988  49.3500012  91.7834997  25.4019988
  48.3130012  92.2264997  24.3909988  48.8647653  91.6286932  24.6990136
  43.4100012  91.4594997  34.4999988  43.4170012  91.3234997  33.5529988
  42.4940012  91.3414997  34.7519988  43.2871714  91.4249430  34.4044666
  54.8480012  76.5014997  21.0019988  53.9480012  76.6404997  21.2969988
  55.1000012  77.3324997  20.5999988  54.7588702  76.6329074  20.9880205
  42.9140012  85.2894997  22.9759988  42.6220012  86.0574997  22.4849988
  42.2400012  84.6294997  22.8129988  42.7829081  85.3054406  22.8867340
  56.0370012  90.8674997  19.3779988  56.1110012  91.8064997  19.5489988
  56.9430012  90.5624997  19.3219988  56.1695100  90.9546722  19.3938119
  39.0070012  87.6524997  31.7909988  38.5060012  87.6244997  30.9759988
  39.0120012  86.7464997  32.0999988  38.9391526  87.5262278  31.7212872
  38.7570012  90.4324997  28.6749988  39.7030012  90.2884997  28.6559988
  38.6450012  91.2164997  29.2119988  38.8712727  90.5188046  28.7450072
  56.9550012  91.0984997  34.3569988  56.9060012  90.1434997  34.3199988
  56.1280012  91.3664997  34.7579988  56.8364940  91.0038998  34.4061375
  47.9340012  90.6724997  33.2329988  48.0210012  91.4984997  33.7079988
  47.0700012  90.3424997  33.4819988  47.8291964  90.7409878  33.3316549
  48.3480012  94.4444997  23.0389988  48.2730012  94.3234997  22.0929988
  48.3810012  95.3944997  23.1579988  48.3421848  94.5562500  22.9254834
  42.0010012  93.2334997  24.8199988  42.1540012  92.8854997  25.6989988
  41.1510012  92.8774997  24.5649988  41.9068962  93.1376650  24.9058340
  51.4500012  93.5984997  20.0409988  51.8250012  92.8544997  19.5709988
  51.4540012  93.3284997  20.9599988  51.5018915  93.4601486  20.1007824
  51.1190012  93.5244997  22.7909988  50.1830012  93.6244997  22.9689988
  51.3990012  92.8154997  23.3689988  51.0288255  93.4422711  22.8935391
  54.1070012  82.5914997  34.8369988  53.7000012  83.0724997  34.1159988
  54.1480012  81.6864997  34.5289988  54.0568437  82.5349374  34.6966683
  41.2560012  88.9754997  32.8339988  41.4720012  88.6144997  33.6929988
  40.4010012  88.6014997  32.6239988  41.1699292  88.8754111  32.9233386
  43.8750012  77.4454997  28.8289988  43.0130012  77.3584997  28.4219988
  43.8520012  78.3014997  29.2569988  43.7540330  77.5492765  28.8311863
  48.5380012  77.1674997  32.2039988  48.9580012  76.7524997  32.9569988
  47.6050012  76.9894997  32.3209988  48.4693644  77.0865900  32.3229539
  51.8640012  80.9234997  33.0569988  51.3500012  80.7974997  33.8549988
  51.7090012  81.8354997  32.8129988  51.7726852  81.0296132  33.1332158
  52.6270012  85.7844997  18.8189988  52.6690012  85.5614997  17.8889988
  53.4760012  86.1834997  19.0089988  52.7475396  85.8079155  18.7173627
  48.1990012  79.6604997  19.4889988  47.9460012  79.6794997  20.4119988
  47.9430012  78.7884997  19.1879988  48.1297790  79.5452437  19.5746263
  43.9660012  82.4114997  29.9239988  43.3240012  82.3704997  30.6329988
  44.0030012  83.3374997  29.6869988  43.8831324  82.5311559  29.9889824
  43.9630012  82.6324997  24.8359988  43.0700012  82.2914997  24.7779988
  44.4130012  82.2554997  24.0809988  43.9017305  82.5348484  24.7259177
  49.4980012  83.0484997  23.6529988  49.0890012  83.8634997  23.3619988
  50.2190012  82.9084997  23.0389988  49.5394537  83.1412018  23.5301342
  48.6000012  83.2234997  35.1409988  48.0380012  82.5194997  35.4619988
  49.4270012  83.1034997  35.6089988  48.6347095  83.1107883  35.2482330
  50.5030012  82.4944997  26.4669988  50.3080012  83.0994997  25.7519988
  50.6840012  81.6604997  26.0329988  50.5007614  82.4646300  26.3104405
  41.7160012  82.7314997  31.7909988  41.6780012  83.1314997  32.6599988
  41.2250012  81.9144997  31.8819988  41.6444684  82.6758069  31.9221059
  45.0820012  80.1054997  18.5899988  44.6510012  79.6604997  19.3199988
  44.3640012  80.4774997  18.0779988  44.9259438  80.0948940  18.6206799
  38.3240012  79.8474997  25.6419988  38.9550012  79.8184997  26.3609988
  38.7730012  79.4224997  24.9119988  38.4710774  79.7860492  25.6416553
  39.5980012  80.5934997  21.0659988  40.0720012  81.1844997  20.4809988
  38.8810012  81.1244997  21.4129988  39.5659341  80.7460867  21.0328836
  49.7670012  84.1324997  31.1389988  50.0900012  83.5014997  30.4959988
  49.3270012  83.5974997  31.7989988  49.7516895  83.9738441  31.1402850
  46.5440012  80.0594997  25.9229988  45.6330012  80.1164997  26.2109988
  47.0500012  79.9994997  26.7329988  46.4875413  80.0591985  26.0720622
  41.3730012  81.6884997  24.7489988  40.4830012  81.7884997  24.4089988
  41.6690012  80.8464997  24.4029988  41.2912823  81.5883545  24.6557213
  45.0260012  81.6884997  22.4059988  45.9570012  81.8174997  22.5839988
  44.8110012  82.3584997  21.7559988  45.1244247  81.7966565  22.3425747
  50.9490012  79.2944997  29.1869988  50.2730012  79.4254997  29.8509988
  50.4640012  79.1394997  28.3769988  50.7907145  79.2914905  29.1684517
  43.7000012  82.8834997  19.9729988  43.1570012  82.5034997  19.2809988
  44.5330012  83.0774997  19.5439988  43.7384399  82.8578124  19.8204526
  54.2370012  94.9664997  35.4639988  54.4370012  95.3904997  34.6289988
  54.8920012  95.3094997  36.0709988  54.3530051  95.0709648  35.4317836
  41.8350012  87.4404997  35.0719988  42.5670012  87.6944997  35.6329988
  41.0550012  87.6444997  35.5869988  41.8298232  87.5029177  35.2185760
  47.8640012  82.8474997  27.8099988  48.4290012  82.3004997  27.2629988
  47.7170012  82.3254997  28.5979988  47.9212918  82.7022024  27.8418454
  42.8660012  78.9834997  24.2279988  42.5490012  78.0814997  24.1929988
  43.6480012  78.9854997  23.6749988  42.9282284  78.8601628  24.1484783
  46.4910012  81.2354997  30.2239988  45.6550012  81.6894997  30.3339988
  47.0150012  81.5114997  30.9759988  46.4474414  81.3349376  30.3407136
  47.0350012  87.4484997  21.9079988  46.2900012  86.9414997  21.5859988
  46.9010012  87.4974997  22.8549988  46.9148776  87.3856940  21.9918647
  54.1850012  86.5814997  30.6949988  54.8270012  87.0384997  30.1509988
  53.3550012  86.6944997  30.2319988  54.1605963  86.6592704  30.5580177
  50.9330012  80.2624997  20.1079988  49.9940012  80.3744997  19.9559988
  51.2300012  81.1194997  20.4139988  50.8447666  80.3936443  20.1285768
  48.5540012  87.6324997  33.1449988  48.2090012  87.2514997  33.9519988
  48.3540012  88.5664997  33.2169988  48.4798061  87.7065228  33.2650961
  51.6510012  82.1294997  21.7679988  52.5430012  81.9924997  22.0869988
  51.7080012  82.9204997  21.2319988  51.7806285  82.2176660  21.7391691
  42.1600012  86.7434997  27.6779988  42.9050012  86.7414997  27.0769988
  42.2380012  85.9204997  28.1599988  42.2725518  86.6319315  27.6608929
  49.1610012  88.9074997  20.9339988  48.8650012  89.7334997  21.3149988
  48.4580012  88.2874997  21.1299988  49.0254914  88.9368199  21.0126443
  39.1680012  85.2044997  32.9929988  39.3910012  84.7864997  33.8249988
  38.5660012  84.5914997  32.5699988  39.1171759  85.0644668  33.0497022
  46.1840012  84.7214997  35.2059988  45.8880012  84.5554997  34.3109988
  47.1160012  84.5014997  35.1949988  46.2694166  84.6690640  35.0820536
  50.8050012  90.0944997  33.0959988  49.9040012  90.2774997  32.8279988
  50.8390012  90.3534997  34.0169988  50.6863041  90.1545512  33.1838197
  56.5360012  82.3394997  21.4629988  55.9820012  81.9434997  20.7909988
  56.6360012  83.2494997  21.1849988  56.4737059  82.4083586  21.3334401
  56.4990012  88.1394997  34.2999988  55.6480012  88.3774997  33.9329988
  57.0900012  88.1224997  33.5469988  56.4622487  88.1698258  34.1478893
  54.8310012  91.1254997  21.9279988  54.4580012  90.2994997  22.2369988
  55.1090012  90.9424997  21.0309988  54.8175630  90.9877303  21.8489626
  51.9920012  85.9334997  28.9489988  51.0630012  85.7014997  28.9219988
  52.4430012  85.1564997  28.6189988  51.9259216  85.7967238  28.9006917
  44.5350012  90.2614997  25.0819988  45.0620012  91.0344997  24.8819988
  43.6550012  90.4864997  24.7809988  44.4881773  90.3978005  25.0139010
  40.2900012  85.1234997  19.6689988  40.9060012  85.7504997  20.0489988
  39.4280012  85.4394997  19.9409988  40.2577698  85.2519430  19.7577183
  45.9620012  87.9244997  24.6589988  45.7210012  88.8494997  24.6999988
  45.2210012  87.4654997  25.0549988  45.8288409  87.9891421  24.7181377
  46.4770012  92.0734997  30.9739988  46.8390012  92.9284997  30.7399988
  47.0080012  91.7814997  31.7139988  46.5984473  92.1511060  31.0420855
  44.6450012  92.9464997  24.2039988  43.6950012  93.0514997  24.2549988
  44.9970012  93.7664997  24.5489988  44.5624203  93.0718314  24.2576650
  50.0210012  88.1724997  30.6739988  49.5950012  87.9454997  31.5009988
  50.6010012  87.4344997  30.4919988  50.0411868  88.0415299  30.7625830
  52.2240012  89.1014997  19.7479988  52.5770012  88.7214997  20.5529988
  51.2750012  89.0084997  19.8349988  52.1440441  89.0369596  19.8698559
  52.6790012  92.7244997  33.1439988  52.0780012  92.1694997  32.6479988
  52.9610012  93.3914997  32.5179988  52.6348519  92.7386841  32.9914952
  56.7270012  93.5814997  19.9489988  57.4710012  94.1674997  19.8089988
  56.0330012  94.1494997  20.2829988  56.7350292  93.7385582  19.9749961
  40.8020012  79.9574997  32.5509988  39.9090012  80.2964997  32.4829988
  40.7030012  79.1024997  32.9689988  40.6664164  79.8882588  32.5982235
  53.0900012  87.7744997  21.9749988  52.8120012  87.0464997  22.5309988
  54.0170012  87.8934997  22.1799988  53.1773124  87.6908802  22.0788845
  40.4530012  91.7624997  30.9859988  40.6700012  90.8304997  30.9549988
  40.6990012  92.0364997  31.8689988  40.5159549  91.6720636  31.1011763
  46.3150012  90.2134997  18.1949988  46.5540012  89.4654997  17.6479988
  46.0460012  89.8254997  19.0279988  46.3113675  90.0586638  18.2326865
  45.2520012  89.7834997  20.6519988  45.3980012  89.2634997  21.4419988
  45.2490012  90.6904997  20.9579988  45.2715989  89.8348853  20.8016088
  41.7050012  87.0364997  21.1619988  41.0190012  87.3884997  21.7289988
  42.2270012  87.7994997  20.9149988  41.6816852  87.1878578  21.2062118
  49.5360012  79.6984997  31.4409988  50.2350012  79.7724997  32.0909988
  49.1550012  78.8344997  31.5949988  49.5801767  79.5917624  31.5508322
  50.3210012  79.3504997  22.5379988  50.5410012  79.8224997  21.7349988
  50.8790012  79.7454997  23.2079988  50.4264968  79.4684285  22.5187331
  47.9890012  91.4814997  21.4009988  47.1730012  91.9784997  21.4529988
  48.5190012  91.9564997  20.7609988  47.9489161  91.6137722  21.3215956
  47.5210012  81.0784997  23.3729988  48.3330012  81.5834997  23.4189988
  47.2760012  80.9334997  24.2869988  47.5990520  81.1280375  23.5028517
  48.0560012  82.0644997  32.5579988  48.1750012  82.6384997  33.3149988
  48.7120012  81.3764997  32.6719988  48.1609757  82.0501079  32.6770825
  48.4040012  78.1594997  24.3109988  48.0580012  78.7774997  24.9559988
  49.0630012  78.6604997  23.8299988  48.4457826  78.3115802  24.3340971
  45.3280012  92.5254997  21.3829988  45.4880012  93.3244997  20.8819988
  45.1300012  92.8314997  22.2679988  45.3231649  92.6764469  21.4339815
  44.0620012  79.2224997  20.9979988  43.9790012  80.1114997  21.3449988
  44.9520012  78.9574997  21.2299988  44.1709469  79.3081430  21.0767626
  54.2610012  79.9714997  33.3929988  53.3440012  80.2344997  33.3049988
  54.5960012  79.9684997  32.4959988  54.1809900  80.0070224  33.2597919
  52.8630012  83.7224997  27.4879988  52.0650012  83.3074997  27.1599988
  53.3080012  83.0314997  27.9789988  52.8139885  83.5723543  27.5094889
  42.3210012  89.6504997  20.0589988  42.9130012  90.3494997  20.3349988
  42.7800012  89.2174997  19.3389988  42.4641142  89.6877049  19.9994830
  40.6370012  82.3144997  19.1749988  40.5920012  83.2534997  19.3529988
  39.7490012  82.0784997  18.9049988  40.5108574  82.4111892  19.1628912
  53.9490012  92.9784997  29.1109988  53.7940012  93.6564997  28.4539988
  54.8820012  93.0504997  29.3139988  54.0538500  93.0810170  29.0485119
  41.4450012  77.0964997  27.8479988  41.2160012  77.1554997  26.9199988
  41.0020012  76.3044997  28.1539988  41.3538530  76.9975753  27.7624786
  40.3750012  91.0364997  24.0079988  39.5430012  91.5094997  24.0359988
  40.9210012  91.5464997  23.4099988  40.3349739  91.1701871  23.9309716
  39.6630012  93.6494997  35.3379988  40.2040012  93.4324997  36.0979988
  39.1820012  92.8434997  35.1489988  39.6719345  93.5109514  35.4163076
  44.2610012  92.5684997  36.9589988  45.0280012  92.1094997  37.2999988
  44.2390012  92.3424997  36.0289988  44.3631434  92.4750409  36.8800043
  48.3530012  92.0764997  18.3339988  47.7090012  91.4454997  18.6549988
  49.1150012  91.5454997  18.1019988  48.3678077  91.9182920  18.3466011
  50.8380012  90.9484997  35.6879988  50.4870012  90.0924997  35.9309988
  51.5640012  91.0914997  36.2949988  50.8880769  90.8505636  35.8033619
  52.9570012  91.8934997  18.5679988  53.2400012  91.0994997  19.0199988
  53.6970012  92.1264997  18.0069988  53.0957486  91.8162803  18.5540698
  39.5700012  87.4594997  36.2929988  39.7140012  86.5574997  36.0059988
  38.7980012  87.7454997  35.8049988  39.4853322  87.3748261  36.1877881
  43.9120012  87.8034997  18.4249988  43.9760012  87.0094997  18.9559988
  44.5650012  87.6844997  17.7349988  44.0090241  87.6787148  18.4044317
  46.2260012  87.4294997  35.7249988  45.8970012  87.7004997  34.8679988
  46.3780012  86.4884997  35.6379988  46.2014809  87.3393862  35.5958244
  49.2640012  88.8504997  18.1609988  48.9950012  89.0304997  19.0619988
  49.0580012  87.9244997  18.0299988  49.1993825  88.7500152  18.2665214
  51.9600012  87.3454997  33.1089988  52.7060012  87.9334997  32.9889988
  51.2030012  87.9274997  33.1719988  51.9597554  87.5047011  33.1010907
  40.4030012  84.6594997  35.7129988  40.8110012  83.8024997  35.5919988
  40.1430012  84.6744997  36.6339988  40.4237568  84.5440807  35.8209588
  45.0610012  85.7754997  20.7309988  44.6010012  85.2914997  21.4169988
  45.3160012  85.1074997  20.0949988  45.0324902  85.6188731  20.7389334
  44.3500012  83.6684997  33.0869988  43.7320012  84.3434997  33.3669988
  44.6940012  83.9894997  32.2539988  44.3119615  83.8042721  33.0126581
  46.1320012  84.0184997  18.9929988  45.9520012  83.8644997  18.0659988
  47.0820012  84.1264997  19.0379988  46.2357776  84.0120175  18.8721843
  49.3700012  86.1404997  36.3639988  50.3230012  86.2234997  36.3369988
  49.2090012  85.4284997  36.9839988  49.4786426  86.0556746  36.4440579
  55.5220012  86.3734997  18.4389988  55.2480012  85.9484997  17.6259988
  55.5610012  87.3044997  18.2219988  55.4897699  86.4412484  18.2983610
  44.6890012  81.0234997  34.1689988  44.8390012  80.2944997  33.5669988
  44.6920012  81.8004997  33.6099988  44.7099302  81.0287851  34.0110692
  45.1020012  79.3934997  31.6619988  45.6380012  79.8444997  31.0099988
  44.2500012  79.2854997  31.2389988  45.0602178  79.4406390  31.5155756
  46.6840012  84.8324997  31.9009988  47.4340012  84.6764997  31.3279988
  46.3450012  85.6844997  31.6259988  46.7408921  84.9262968  31.7853561
  51.0990012  82.6474997  36.9299988  51.2920012  81.7164997  36.8179988
  51.9570012  83.0724997  36.9199988  51.2413020  82.5776389  36.9133361
  52.4160012  85.4364997  35.0069988  52.1350012  86.1454997  34.4299988
  53.3590012  85.3634997  34.8559988  52.5049027  85.5237646  34.9075551
  43.1680012  82.2214997  36.0809988  42.4010012  81.6894997  35.8709988
  43.8470012  81.9114997  35.4809988  43.1547022  82.1067506  35.9711648
  45.9080012  76.8494997  32.0929988  45.8090012  77.7964997  31.9879988
  45.1650012  76.4774997  31.6179988  45.7940564  76.9285902  32.0144560
  47.1720012  81.1714997  35.6569988  46.9360012  80.9514997  36.5589988
  46.3880012  80.9644997  35.1469988  47.0338628  81.1134760  35.7113932
  49.8870012  80.2984997  34.7329988  48.9400012  80.3304997  34.8649988
  50.2000012  79.6734997  35.3859988  49.7995475  80.2183207  34.8394455
  51.5210012  78.9324997  36.7379988  51.4250012  77.9804997  36.7319988
  51.2000012  79.2014997  37.5979988  51.4644070  78.8384035  36.8535441
  41.3480012  80.1424997  35.7849988  41.5600012  79.4354997  35.1749988
  41.2370012  79.7044997  36.6289988  41.3619721  79.9867084  35.8156843
  46.1290012  76.1434997  34.7649988  46.8410012  75.5034997  34.7509988
  46.0280012  76.4104997  33.8509988  46.2127939  76.0919938  34.6395650
  46.4830012  77.8264997  36.8179988  46.3510012  77.3504997  35.9979988
  45.8840012  78.5704997  36.7629988  46.3839071  77.8619618  36.6982886
  46.0290012  94.7094997  19.9949988  46.9620012  94.8674997  20.1379988
  45.7650012  95.3844997  19.3699988  46.1209510  94.8223611  19.9300741
  39.5980012  89.3454997  19.4769988  40.5120012  89.4244997  19.7509988
  39.6050012  88.6584997  18.8109988  39.7241131  89.2633961  19.4244393
  38.2470012  94.7384997  24.5549988  37.6000012  94.2764997  24.0219988
  38.6010012  94.0664997  25.1369988  38.2063849  94.5844723  24.5607959
  39.1170012  92.8194997  26.3589988  38.7820012  91.9394997  26.5309988
  39.3390012  93.1644997  27.2239988  39.1011783  92.7457500  26.4994208
  56.6650012  93.6284997  29.3399988  56.6440012  93.8134997  30.2789988
  57.3560012  94.1974997  28.9989988  56.7554618  93.7306606  29.4223864
  56.2290012  93.1964997  32.2619988  55.7410012  92.4604997  31.8909988
  56.7780012  92.8024997  32.9399988  56.2364872  93.0426249  32.3029160
  54.6790012  88.9854997  36.8999988  53.8130012  88.8804997  37.2939988
  55.0560012  89.7444997  37.3459988  54.6113308  89.0736900  37.0142393
  55.9800012  87.2424997  22.4139988  56.8300012  87.6634997  22.5409988
  55.9860012  86.5024997  23.0209988  56.0971372  87.2000803  22.5134344
  56.3750012  85.2954997  24.2379988  55.6480012  84.8164997  24.6349988
  56.9560012  85.5014997  24.9699988  56.3539375  85.2577090  24.3914129
  56.1340012  88.0804997  29.1849988  56.9670012  87.7024997  28.9049988
  56.2460012  89.0234997  29.0659988  56.2632647  88.1562218  29.1305487
  54.6200012  90.9584997  31.4919988  53.9730012  91.2834997  32.1179988
  54.1030012  90.5184997  30.8179988  54.4614029  90.9435004  31.4865827
  56.6430012  85.1964997  20.6289988  56.1210012  85.5534997  19.9099988
  56.6100012  85.8714997  21.3069988  56.5671634  85.3365413  20.6223145
  54.9920012  82.4364997  19.1799988  55.0880012  83.1034997  18.4989988
  54.8520012  81.6204997  18.6979988  54.9862135  82.4174500  19.0218491
  54.1610012  83.8164997  24.8009988  54.0110012  82.8714997  24.7799988
  53.8080012  84.0974997  25.6439988  54.0926625  83.7250441  24.9122346
  39.1970012  85.8944997  28.8109988  39.3810012  85.8124997  27.8749988
  40.0460012  85.7704997  29.2349988  39.3370139  85.8665003  28.7401455
  55.0180012  85.7864997  34.4389988  55.6010012  85.0524997  34.6309988
  55.5820012  86.5584997  34.4859988  55.1739769  85.7904227  34.4716159
  56.5140012  83.6894997  35.1239988  55.6510012  83.3104997  34.9579988
  57.1190012  82.9504997  35.0499988  56.4775979  83.5378023  35.0912817
  54.2390012  79.8444997  18.2969988  54.8500012  79.4734997  18.9339988
  53.4030012  79.4234997  18.4929988  54.2095032  79.7367554  18.4107035
  53.8720012  81.3994997  23.2629988  54.1520012  80.4924997  23.3869988
  54.6310012  81.8334997  22.8739988  54.0129277  81.3340942  23.2273682
  54.4840012  81.9804997  28.6989988  55.4170012  82.1924997  28.6649988
  54.2490012  82.0824997  29.6209988  54.5798036  82.0232769  28.8189976
  54.5130012  82.7174997  31.4749988  53.6700012  82.9854997  31.8409988
  54.9550012  83.5394997  31.2639988  54.4574158  82.8653291  31.4965491
  38.7940012  81.1654997  34.9519988  39.7140012  81.0434997  35.1879988
  38.3450012  80.4154997  35.3409988  38.8591580  81.0473727  35.0369006
  56.7960012  76.6974997  36.8279988  57.1460012  76.0434997  36.2229988
  56.9430012  77.5344997  36.3889988  56.8638419  76.7211591  36.6857118
  54.4850012  78.6624997  23.3109988  54.6680012  78.2134997  24.1369988
  53.8860012  78.0774997  22.8479988  54.4290202  78.5219975  23.3613275
  40.0150012  79.4774997  27.8429988  40.4610012  78.6854997  28.1449988
  40.4820012  80.1934997  28.2739988  40.1390172  79.4660624  27.9424820
  38.3190012  82.4764997  28.9119988  38.8110012  82.2554997  28.1209988
  38.6820012  83.3174997  29.1929988  38.4353126  82.5598357  28.8417531
  56.3160012  78.8064997  35.1779988  55.3980012  79.0774997  35.1419988
  56.4390012  78.2714997  34.3929988  56.2071066  78.7712892  35.0670487
  56.3520012  78.7294997  19.8389988  56.7640012  78.0084997  19.3639988
  57.0340012  79.3994997  19.8979988  56.5005885  78.7212368  19.7818915
  38.6330012  78.7344997  22.9659988  37.7080012  78.9434997  22.8369988
  39.0870012  79.2184997  22.2769988  38.5677368  78.8285993  22.8551226
  53.4040012  93.7184997  24.9119988  54.0560012  93.3714997  24.3039988
  53.9140012  94.2074997  25.5579988  53.5622637  93.7370597  24.9160236
  38.5970012  77.4724997  31.3109988  37.9320012  77.2264997  31.9539988
  38.1540012  78.0944997  30.7329988  38.4460956  77.5228632  31.3209352
  40.7890012  90.6474997  35.4549988  39.9680012  90.8224997  34.9949988
  40.5360012  90.5744997  36.3759988  40.6426164  90.6615622  35.5164923
  43.7430012  91.6224997  31.7139988  43.3180012  92.4314997  31.4309988
  44.6470012  91.7074997  31.4119988  43.8070271  91.7448469  31.6343776
  48.0540012  93.0214997  34.6729988  48.2390012  92.6874997  35.5509988
  48.9000012  93.3304997  34.3509988  48.1937539  93.0176047  34.7495605
  50.3990012  94.3074997  33.9169988  51.0760012  93.6744997  33.6769988
  50.7210012  94.7084997  34.7239988  50.5351637  94.2751154  33.9932793
  55.3160012  76.8964997  32.9969988  54.5040012  77.2214997  32.6089988
  55.5490012  76.1364997  32.4639988  55.2363423  76.8382436  32.8718253
  41.1450012  94.8784997  31.7609988  40.4240012  95.3184997  31.3099988
  40.7790012  94.6274997  32.6099988  40.9969804  94.9047698  31.8139840
  43.6120012  94.4784997  30.7909988  42.7470012  94.5504997  31.1949988
  43.5570012  95.0254997  30.0069988  43.4862085  94.5622685  30.7403362
  48.3220012  94.3664997  29.9659988  47.8660012  94.8954997  29.3119988
  48.4850012  94.9694997  30.6919988  48.2815585  94.5204468  29.9745062
  50.6500012  93.2444997  30.9109988  49.7450012  93.4094997  30.6459988
  51.0790012  94.0974997  30.8459988  50.5840799  93.3824483  30.8659182
  53.2540012  94.8144997  31.2059988  53.0720012  95.7304997  30.9959988
  53.4310012  94.4044997  30.3599988  53.2530210  94.8844822  31.0627885
  40.5590012  93.5014997  28.6709988  40.5410012  93.0764997  29.5289988
  41.3640012  93.1834997  28.2629988  40.6653875  93.4003812  28.7331655
  42.7010012  92.2114997  27.3259988  42.4820012  91.2954997  27.4959988
  43.5250012  92.3514997  27.7919988  42.7824420  92.1050520  27.4122774
  45.2380012  92.6814997  28.1749988  45.4510012  91.7934997  27.8879988
  45.3020012  92.6474997  29.1289988  45.2758232  92.5553102  28.2647397
  48.7460012  78.3454997  27.3189988  48.0720012  77.7164997  27.5749988
  49.3100012  77.8614997  26.7159988  48.7299230  78.1938744  27.2725340
  53.8890012  76.4534997  27.4319988  54.4930012  77.0004997  26.9299988
  53.0190012  76.7724997  27.1919988  53.8541241  76.5715806  27.3307654
  55.6160012  77.5914997  25.7649988  56.2280012  77.0774997  25.2389988
  55.9980012  78.4694997  25.7889988  55.7514540  77.6397140  25.6961830
  41.0730012  76.9794997  25.1409988  40.2960012  76.7454997  24.6339988
  41.6030012  76.1824997  25.1499988  41.0382330  76.8396988  25.0727742
  39.9090012  76.7774997  20.9449988  40.3480012  77.3884997  20.3529988
  39.2760012  77.3154997  21.4189988  39.8834514  76.9339257  20.9280930
  45.6520012  76.9064997  24.9549988  46.5270012  77.2944997  24.9249988
  45.5160012  76.6914997  25.8769988  45.7533695  76.9305184  25.0756440
  51.2090012  76.9364997  26.6039988  51.2850012  77.0314997  25.6539988
  50.9340012  76.0284997  26.7329988  51.1822321  76.8267867  26.4915079
  52.5620012  76.9624997  22.2959988  51.8600012  77.5774997  22.0869988
  52.1180012  76.1244997  22.4269988  52.4056330  76.9335783  22.2850328
  39.8100012  92.7254997  21.8429988  39.1250012  92.6874997  21.1749988
  39.8140012  93.6384997  22.1309988  39.7168193  92.8437016  21.7905284
  41.7700012  78.6934997  19.3869988  42.2620012  78.0634997  18.8599988
  42.3940012  78.9894997  20.0509988  41.9215446  78.6473199  19.4045980
  46.7960012  78.9864997  21.8439988  46.9740012  78.3404997  22.5269988
  46.7430012  79.8204997  22.3119988  46.8131829  79.0107985  22.0005940
  48.6750012  93.9354997  20.2399988  49.5410012  94.3014997  20.0619988
  48.4280012  93.4954997  19.4259988  48.7602392  93.9261756  20.1056289
  55.3840012  93.4984997  22.9189988  55.1890012  92.7504997  22.3539988
  55.3450012  94.2564997  22.3359988  55.3520380  93.4986099  22.7628384
  41.0310012  77.4934997  34.6589988  40.6650012  76.7284997  35.1019988
  41.9440012  77.5224997  34.9459988  41.1042790  77.3927224  34.7584070
  43.0040012  76.8444997  36.1949988  43.9020012  76.5704997  36.0099988
  42.6170012  76.1014997  36.6589988  43.0746612  76.7065914  36.2323643
  41.6280012  93.6454997  18.8679988  41.3610012  93.9324997  19.7409988
  42.4000012  93.0994997  19.0199988  41.6957488  93.6110294  19.0081050
  51.4250012  76.1764997  36.3769988  51.5020012  75.7504997  37.2309988
  52.3190012  76.1904997  36.0339988  51.5563428  76.1200879  36.4475310
  54.6010012  92.2494997  35.0689988  53.8190012  92.0634997  34.5499988
  54.5290012  93.1784997  35.2869988  54.4841777  92.3496492  35.0274048
  69.0070012  86.1354997  25.0999988  69.0960012  87.0794997  24.9679988
  68.3690012  85.8604997  24.4419988  68.9329081  86.2274830  24.9929614
  67.9400012  85.3904997  28.5189988  67.9020012  84.7444997  29.2239988
  67.6180012  84.9244997  27.7479988  67.8912333  85.2389408  28.5112978
  60.3090012  85.0054997  30.1119988  60.3500012  84.3794997  30.8349988
  61.0120012  85.6294997  30.2939988  60.4096363  85.0041196  30.2356044
  71.6460012  88.3294997  26.8199988  71.2060012  87.6094997  27.2709988
  71.6330012  89.0504997  27.4499988  71.5840226  88.3283731  26.9668494
  61.2320012  89.4554997  28.6469988  60.8630012  88.6534997  28.2769988
  62.1730012  89.2864997  28.6929988  61.3087289  89.3230153  28.6026316
  57.8420012  83.1154997  24.0399988  57.3950012  83.9614997  24.0209988
  57.2810012  82.5354997  23.5239988  57.7049900  83.1529916  23.9676801
  58.5530012  85.2774997  26.1659988  58.7660012  84.5074997  26.6929988
  59.2910012  85.3664997  25.5619988  58.6818496  85.1841394  26.1565300
  68.7580012  93.4344997  27.0329988  69.3780012  92.7574997  26.7589988
  68.5500012  93.2164997  27.9409988  68.8146904  93.3123870  27.1183365
  66.3300012  87.8234997  28.9249988  66.6340012  87.1374997  28.3299988
  67.0510012  87.9414997  29.5429988  66.4690671  87.7456305  28.9271816
  62.6250012  80.3184997  26.5249988  62.6690012  81.1784997  26.1069988
  62.1680012  79.7664997  25.8909988  62.5692185  80.3615799  26.3820299
  59.2460012  82.7154997  27.2869988  59.8990012  82.1654997  27.7189988
  59.2700012  82.4414997  26.3699988  59.3386683  82.6031466  27.2222123
  64.4020012  84.2654997  26.5019988  65.0180012  83.7394997  27.0119988
  63.8160012  83.6254997  26.0989988  64.4070810  84.1069208  26.5173173
  68.8050012  88.7364997  24.1429988  68.5090012  88.4144997  23.2919988
  68.4800012  89.6364997  24.1839988  68.7206371  88.8140215  24.0321801
  64.0050012  86.9124997  30.8859988  63.2650012  87.5104997  30.9899988
  64.7190012  87.4664997  30.5709988  64.0002237  87.0692831  30.8576465
  61.0290012  81.1284997  28.5509988  61.6430012  81.7614997  28.9249988
  61.5410012  80.6564997  27.8949988  61.1822296  81.1512370  28.5134252
  62.4120012  88.8764997  31.6739988  62.4070012  89.7564997  31.2959988
  61.5590012  88.7934997  32.0989988  62.2959464  88.9856117  31.6797907
  58.5330012  88.5474997  22.4559988  58.2610012  88.7764997  21.5669988
  58.5790012  89.3854997  22.9159988  58.5020094  88.6921213  22.3965697
  72.1580012  90.1694997  29.1679988  71.2170012  90.2274997  29.3299988
  72.4350012  91.0754997  29.0309988  72.0664679  90.2999443  29.1716815
  65.4620012  76.5424997  28.0519988  65.3450012  75.5934997  27.9969988
  64.6070012  76.8744997  28.3249988  65.3303733  76.4575409  28.0813897
  70.4100012  91.9504997  25.7939988  70.8360012  91.2434997  25.3089988
  70.7270012  92.7514997  25.3769988  70.5111019  91.9620994  25.6713130
  71.5700012  89.8514997  24.3019988  71.3120012  89.1614997  23.6909988
  71.6410012  89.4084997  25.1479988  71.5442856  89.6972124  24.3326885
  73.2560012  88.4174997  32.7799988  73.3960012  87.8264997  32.0399988
  73.4230012  89.2904997  32.4229988  73.2976778  88.4546426  32.6306965
  67.7290012  85.3794997  22.5519988  67.0170012  85.9144997  22.1999988
  68.4200012  85.4354997  21.8919988  67.7250132  85.4602543  22.4146289
  67.7820012  83.8374997  19.5909988  68.4830012  83.8594997  20.2419988
  68.0850012  83.2094997  18.9349988  67.9187830  83.7556566  19.5913711
  71.1340012  85.5894997  23.5039988  70.4020012  85.8174997  24.0769988
  71.5820012  84.8754997  23.9589988  71.0943095  85.5242571  23.6439119
  71.0320012  83.7634997  32.5709988  71.1120012  84.5264997  33.1429988
  70.4300012  84.0424997  31.8809988  70.9615756  83.9057134  32.5560589
  62.7800012  86.2194997  25.3859988  62.4490012  85.8494997  24.5679988
  63.3680012  85.5494997  25.7329988  62.8141873  86.0781156  25.3208102
  64.1460012  89.6474997  28.0679988  64.0520012  89.0694997  27.3109988
  64.8760012  89.2764997  28.5639988  64.2317981  89.5182390  28.0314165
  63.1460012  84.9884997  29.0199988  63.7120012  85.1094997  28.2569988
  63.4650012  85.6254997  29.6589988  63.2665786  85.0911884  29.0020040
  69.4550012  90.4914997  29.7539988  69.2150012  91.1534997  30.4019988
  69.2570012  89.6574997  30.1789988  69.3953808  90.4693134  29.9001524
  64.0260012  89.3874997  33.7369988  63.7150012  90.1694997  34.1919988
  63.3760012  89.2344997  33.0509988  63.8955558  89.4739105  33.7065871
  70.0050012  84.7514997  21.1889988  70.5850012  84.9014997  21.9359988
  70.4190012  85.2224997  20.4659988  70.1402830  84.8356841  21.1934134
  60.9460012  85.5854997  32.9659988  61.0170012  86.2364997  33.6639988
  60.0560012  85.6884997  32.6309988  60.8353117  85.6885936  33.0162700
  67.7320012  91.4884997  24.6239988  68.2060012  91.7834997  25.4019988
  67.1690012  92.2264997  24.3909988  67.7207653  91.6286932  24.6990136
  62.2660012  91.4594997  34.4999988  62.2730012  91.3234997  33.5529988
  61.3500012  91.3414997  34.7519988  62.1431714  91.4249430  34.4044666
  61.7700012  85.2894997  22.9759988  61.4780012  86.0574997  22.4849988
  61.0960012  84.6294997  22.8129988  61.6389081  85.3054406  22.8867340
  74.8930012  90.8674997  19.3779988  74.9670012  91.8064997  19.5489988
  75.7990012  90.5624997  19.3219988  75.0255100  90.9546722  19.3938119
  57.8630012  87.6524997  31.7909988  57.3620012  87.6244997  30.9759988
  57.8680012  86.7464997  32.0999988  57.7951526  87.5262278  31.7212872
  57.6130012  90.4324997  28.6749988  58.5590012  90.2884997  28.6559988
  57.5010012  91.2164997  29.2119988  57.7272727  90.5188046  28.7450072
  75.8110012  91.0984997  34.3569988  75.7620012  90.1434997  34.3199988
  74.9840012  91.3664997  34.7579988  75.6924940  91.0038998  34.4061375
  66.7900012  90.6724997  33.2329988  66.8770012  91.4984997  33.7079988
  65.9260012  90.3424997  33.4819988  66.6851964  90.7409878  33.3316549
  67.2040012  94.4444997  23.0389988  67.1290012  94.3234997  22.0929988
  67.2370012  95.3944997  23.1579988  67.1981848  94.5562500  22.9254834
  60.8570012  93.2334997  24.8199988  61.0100012  92.8854997  25.6989988
  60.0070012  92.8774997  24.5649988  60.7628962  93.1376650  24.9058340
  70.3060012  93.5984997  20.0409988  70.6810012  92.8544997  19.5709988
  70.3100012  93.3284997  20.9599988  70.3578915  93.4601486  20.1007824
  69.9750012  93.5244997  22.7909988  69.0390012  93.6244997  22.9689988
  70.2550012  92.8154997  23.3689988  69.8848255  93.4422711  22.8935391
  72.9630012  82.5914997  34.8369988  72.5560012  83.0724997  34.1159988
  73.0040012  81.6864997  34.5289988  72.9128437  82.5349374  34.6966683
  60.1120012  88.9754997  32.8339988  60.3280012  88.6144997  33.6929988
  59.2570012  88.6014997  32.6239988  60.0259292  88.8754111  32.9233386
  71.4830012  85.7844997  18.8189988  71.5250012  85.5614997  17.8889988
  72.3320012  86.1834997  19.0089988  71.6035396  85.8079155  18.7173627
  67.0550012  79.6604997  19.4889988  66.8020012  79.6794997  20.4119988
  66.7990012  78.7884997  19.1879988  66.9857790  79.5452437  19.5746263
  62.8220012  82.4114997  29.9239988  62.1800012  82.3704997  30.6329988
  62.8590012  83.3374997  29.6869988  62.7391324  82.5311559  29.9889824
  62.8190012  82.6324997  24.8359988  61.9260012  82.2914997  24.7779988
  63.2690012  82.2554997  24.0809988  62.7577305  82.5348484  24.7259177
  68.3540012  83.0484997  23.6529988  67.9450012  83.8634997  23.3619988
  69.0750012  82.9084997  23.0389988  68.3954537  83.1412018  23.5301342
  67.4560012  83.2234997  35.1409988  66.8940012  82.5194997  35.4619988
  68.2830012  83.1034997  35.6089988  67.4907095  83.1107883  35.2482330
  69.3590012  82.4944997  26.4669988  69.1640012  83.0994997  25.7519988
  69.5400012  81.6604997  26.0329988  69.3567614  82.4646300  26.3104405
  60.5720012  82.7314997  31.7909988  60.5340012  83.1314997  32.6599988
  60.0810012  81.9144997  31.8819988  60.5004684  82.6758069  31.9221059
  63.9380012  80.1054997  18.5899988  63.5070012  79.6604997  19.3199988
  63.2200012  80.4774997  18.0779988  63.7819438  80.0948940  18.6206799
  57.1800012  79.8474997  25.6419988  57.8110012  79.8184997  26.3609988
  57.6290012  79.4224997  24.9119988  57.3270774  79.7860492  25.6416553
  58.4540012  80.5934997  21.0659988  58.9280012  81.1844997  20.4809988
  57.7370012  81.1244997  21.4129988  58.4219341  80.7460867  21.0328836
  68.6230012  84.1324997  31.1389988  68.9460012  83.5014997  30.4959988
  68.1830012  83.5974997  31.7989988  68.6076895  83.9738441  31.1402850
  65.4000012  80.0594997  25.9229988  64.4890012  80.1164997  26.2109988
  65.9060012  79.9994997  26.7329988  65.3435413  80.0591985  26.0720622
  60.2290012  81.6884997  24.7489988  59.3390012  81.7884997  24.4089988
  60.5250012  80.8464997  24.4029988  60.1472823  81.5883546  24.6557213
  63.8820012  81.6884997  22.4059988  64.8130012  81.8174997  22.5839988
  63.6670012  82.3584997  21.7559988  63.9804247  81.7966565  22.3425747
  62.5560012  82.8834997  19.9729988  62.0130012  82.5034997  19.2809988
  63.3890012  83.0774997  19.5439988  62.5944399  82.8578124  19.8204526
  73.0930012  94.9664997  35.4639988  73.2930012  95.3904997  34.6289988
  73.7480012  95.3094997  36.0709988  73.2090051  95.0709648  35.4317836
  60.6910012  87.4404997  35.0719988  61.4230012  87.6944997  35.6329988
  59.9110012  87.6444997  35.5869988  60.6858232  87.5029177  35.2185760
  66.7200012  82.8474997  27.8099988  67.2850012  82.3004997  27.2629988
  66.5730012  82.3254997  28.5979988  66.7772918  82.7022024  27.8418454
  61.7220012  78.9834997  24.2279988  61.4050012  78.0814997  24.1929988
  62.5040012  78.9854997  23.6749988  61.7842284  78.8601628  24.1484783
  65.3470012  81.2354997  30.2239988  64.5110012  81.6894997  30.3339988
  65.8710012  81.5114997  30.9759988  65.3034414  81.3349376  30.3407136
  65.8910012  87.4484997  21.9079988  65.1460012  86.9414997  21.5859988
  65.7570012  87.4974997  22.8549988  65.7708776  87.3856940  21.9918647
  73.0410012  86.5814997  30.6949988  73.6830012  87.0384997  30.1509988
  72.2110012  86.6944997  30.2319988  73.0165963  86.6592704  30.5580177
  67.4100012  87.6324997  33.1449988  67.0650012  87.2514997  33.9519988
  67.2100012  88.5664997  33.2169988  67.3358061  87.7065228  33.2650961
  61.0160012  86.7434997  27.6779988  61.7610012  86.7414997  27.0769988
  61.0940012  85.9204997  28.1599988  61.1285518  86.6319315  27.6608929
  68.0170012  88.9074997  20.9339988  67.7210012  89.7334997  21.3149988
  67.3140012  88.2874997  21.1299988  67.8814914  88.9368199  21.0126443
  58.0240012  85.2044997  32.9929988  58.2470012  84.7864997  33.8249988
  57.4220012  84.5914997  32.5699988  57.9731759  85.0644668  33.0497022
  65.0400012  84.7214997  35.2059988  64.7440012  84.5554997  34.3109988
  65.9720012  84.5014997  35.1949988  65.1254166  84.6690640  35.0820536
  69.6610012  90.0944997  33.0959988  68.7600012  90.2774997  32.8279988
  69.6950012  90.3534997  34.0169988  69.5423041  90.1545512  33.1838197
  75.3550012  88.1394997  34.2999988  74.5040012  88.3774997  33.9329988
  75.9460012  88.1224997  33.5469988  75.3182487  88.1698258  34.1478893
  73.6870012  91.1254997  21.9279988  73.3140012  90.2994997  22.2369988
  73.9650012  90.9424997  21.0309988  73.6735630  90.9877303  21.8489626
  70.8480012  85.9334997  28.9489988  69.9190012  85.7014997  28.9219988
  71.2990012  85.1564997  28.6189988  70.7819216  85.7967238  28.9006917
  63.3910012  90.2614997  25.0819988  63.9180012  91.0344997  24.8819988
  62.5110012  90.4864997  24.7809988  63.3441773  90.3978005  25.0139010
  59.1460012  85.1234997  19.6689988  59.7620012  85.7504997  20.0489988
  58.2840012  85.4394997  19.9409988  59.1137698  85.2519430  19.7577183
  64.8180012  87.9244997  24.6589988  64.5770012  88.8494997  24.6999988
  64.0770012  87.4654997  25.0549988  64.6848409  87.9891421  24.7181377
  65.3330012  92.0734997  30.9739988  65.6950012  92.9284997  30.7399988
  65.8640012  91.7814997  31.7139988  65.4544473  92.1511060  31.0420855
  63.5010012  92.9464997  24.2039988  62.5510012  93.0514997  24.2549988
  63.8530012  93.7664997  24.5489988  63.4184203  93.0718314  24.2576650
  68.8770012  88.1724997  30.6739988  68.4510012  87.9454997  31.5009988
  69.4570012  87.4344997  30.4919988  68.8971868  88.0415299  30.7625830
  71.0800012  89.1014997  19.7479988  71.4330012  88.7214997  20.5529988
  70.1310012  89.0084997  19.8349988  71.0000441  89.0369596  19.8698559
  71.5350012  92.7244997  33.1439988  70.9340012  92.1694997  32.6479988
  71.8170012  93.3914997  32.5179988  71.4908519  92.7386841  32.9914952
  75.5830012  93.5814997  19.9489988  76.3270012  94.1674997  19.8089988
  74.8890012  94.1494997  20.2829988  75.5910292  93.7385582  19.9749961
  59.6580012  79.9574997  32.5509988  58.7650012  80.2964997  32.4829988
  59.5590012  79.1024997  32.9689988  59.5224164  79.8882588  32.5982235
  71.9460012  87.7744997  21.9749988  71.6680012  87.0464997  22.5309988
  72.8730012  87.8934997  22.1799988  72.0333124  87.6908802  22.0788845
  59.3090012  91.7624997  30.9859988  59.5260012  90.8304997  30.9549988
  59.5550012  92.0364997  31.8689988  59.3719549  91.6720636  31.1011763
  65.1710012  90.2134997  18.1949988  65.4100012  89.4654997  17.6479988
  64.9020012  89.8254997  19.0279988  65.1673675  90.0586638  18.2326865
  64.1080012  89.7834997  20.6519988  64.2540012  89.2634997  21.4419988
  64.1050012  90.6904997  20.9579988  64.1275989  89.8348853  20.8016088
  60.5610012  87.0364997  21.1619988  59.8750012  87.3884997  21.7289988
  61.0830012  87.7994997  20.9149988  60.5376852  87.1878578  21.2062118
  66.8450012  91.4814997  21.4009988  66.0290012  91.9784997  21.4529988
  67.3750012  91.9564997  20.7609988  66.8049161  91.6137722  21.3215956
  66.3770012  81.0784997  23.3729988  67.1890012  81.5834997  23.4189988
  66.1320012  80.9334997  24.2869988  66.4550520  81.1280375  23.5028517
  66.9120012  82.0644997  32.5579988  67.0310012  82.6384997  33.3149988
  67.5680012  81.3764997  32.6719988  67.0169757  82.0501079  32.6770825
  64.1840012  92.5254997  21.3829988  64.3440012  93.3244997  20.8819988
  63.9860012  92.8314997  22.2679988  64.1791649  92.6764469  21.4339815
  62.9180012  79.2224997  20.9979988  62.8350012  80.1114997  21.3449988
  63.8080012  78.9574997  21.2299988  63.0269469  79.3081430  21.0767626
  61.1770012  89.6504997  20.0589988  61.7690012  90.3494997  20.3349988
  61.6360012  89.2174997  19.3389988  61.3201142  89.6877049  19.9994830
  59.4930012  82.3144997  19.1749988  59.4480012  83.2534997  19.3529988
  58.6050012  82.0784997  18.9049988  59.3668574  82.4111892  19.1628912
  72.8050012  92.9784997  29.1109988  72.6500012  93.6564997  28.4539988
  73.7380012  93.0504997  29.3139988  72.9098500  93.0810170  29.0485119
  59.2310012  91.0364997  24.0079988  58.3990012  91.5094997  24.0359988
  59.7770012  91.5464997  23.4099988  59.1909739  91.1701871  23.9309716
  58.5190012  93.6494997  35.3379988  59.0600012  93.4324997  36.0979988
  58.0380012  92.8434997  35.1489988  58.5279345  93.5109514  35.4163076
  63.1170012  92.5684997  36.9589988  63.8840012  92.1094997  37.2999988
  63.0950012  92.3424997  36.0289988  63.2191434  92.4750409  36.8800043
  67.2090012  92.0764997  18.3339988  66.5650012  91.4454997  18.6549988
  67.9710012  91.5454997  18.1019988  67.2238077  91.9182920  18.3466011
  69.6940012  90.9484997  35.6879988  69.3430012  90.0924997  35.9309988
  70.4200012  91.0914997  36.2949988  69.7440769  90.8505636  35.8033619
  71.8130012  91.8934997  18.5679988  72.0960012  91.0994997  19.0199988
  72.5530012  92.1264997  18.0069988  71.9517486  91.8162803  18.5540698
  58.4260012  87.4594997  36.2929988  58.5700012  86.5574997  36.0059988
  57.6540012  87.7454997  35.8049988  58.3413323  87.3748261  36.1877881
  62.7680012  87.8034997  18.4249988  62.8320012  87.0094997  18.9559988
  63.4210012  87.6844997  17.7349988  62.8650241  87.6787148  18.4044317
  65.0820012  87.4294997  35.7249988  64.7530012  87.7004997  34.8679988
  65.2340012  86.4884997  35.6379988  65.0574809  87.3393862  35.5958244
  68.1200012  88.8504997  18.1609988  67.8510012  89.0304997  19.0619988
  67.9140012  87.9244997  18.0299988  68.0553825  88.7500152  18.2665214
  70.8160012  87.3454997  33.1089988  71.5620012  87.9334997  32.9889988
  70.0590012  87.9274997  33.1719988  70.8157554  87.5047011  33.1010907
  59.2590012  84.6594997  35.7129988  59.6670012  83.8024997  35.5919988
  58.9990012  84.6744997  36.6339988  59.2797568  84.5440807  35.8209588
  63.9170012  85.7754997  20.7309988  63.4570012  85.2914997  21.4169988
  64.1720012  85.1074997  20.0949988  63.8884902  85.6188731  20.7389334
  63.2060012  83.6684997  33.0869988  62.5880012  84.3434997  33.3669988
  63.5500012  83.9894997  32.2539988  63.1679615  83.8042721  33.0126581
  64.9880012  84.0184997  18.9929988  64.8080012  83.8644997  18.0659988
  65.9380012  84.1264997  19.0379988  65.0917776  84.0120175  18.8721843
  68.2260012  86.1404997  36.3639988  69.1790012  86.2234997  36.3369988
  68.0650012  85.4284997  36.9839988  68.3346426  86.0556746  36.4440579
  74.3780012  86.3734997  18.4389988  74.1040012  85.9484997  17.6259988
  74.4170012  87.3044997  18.2219988  74.3457699  86.4412484  18.2983610
  63.5450012  81.0234997  34.1689988  63.6950012  80.2944997  33.5669988
  63.5480012  81.8004997  33.6099988  63.5659302  81.0287851  34.0110692
  63.9580012  79.3934997  31.6619988  64.4940012  79.8444997  31.0099988
  63.1060012  79.2854997  31.2389988  63.9162178  79.4406390  31.5155756
  65.5400012  84.8324997  31.9009988  66.2900012  84.6764997  31.3279988
  65.2010012  85.6844997  31.6259988  65.5968921  84.9262968  31.7853561
  69.9550012  82.6474997  36.9299988  70.1480012  81.7164997  36.8179988
  70.8130012  83.0724997  36.9199988  70.0973020  82.5776389  36.9133361
  71.2720012  85.4364997  35.0069988  70.9910012  86.1454997  34.4299988
  72.2150012  85.3634997  34.8559988  71.3609027  85.5237646  34.9075551
  62.0240012  82.2214997  36.0809988  61.2570012  81.6894997  35.8709988
  62.7030012  81.9114997  35.4809988  62.0107022  82.1067506  35.9711648
  64.7640012  76.8494997  32.0929988  64.6650012  77.7964997  31.9879988
  64.0210012  76.4774997  31.6179988  64.6500564  76.9285902  32.0144560
  66.0280012  81.1714997  35.6569988  65.7920012  80.9514997  36.5589988
  65.2440012  80.9644997  35.1469988  65.8898628  81.1134760  35.7113932
  68.7430012  80.2984997  34.7329988  67.7960012  80.3304997  34.8649988
  69.0560012  79.6734997  35.3859988  68.6555475  80.2183207  34.8394455
  70.3770012  78.9324997  36.7379988  70.2810012  77.9804997  36.7319988
  70.0560012  79.2014997  37.5979988  70.3204070  78.8384035  36.8535441
  60.2040012  80.1424997  35.7849988  60.4160012  79.4354997  35.1749988
  60.0930012  79.7044997  36.6289988  60.2179721  79.9867084  35.8156843
  64.9850012  76.1434997  34.7649988  65.6970012  75.5034997  34.7509988
  64.8840012  76.4104997  33.8509988  65.0687939  76.0919938  34.6395650
  65.3390012  77.8264997  36.8179988  65.2070012  77.3504997  35.9979988
  64.7400012  78.5704997  36.7629988  65.2399071  77.8619618  36.6982886
  64.8850012  94.7094997  19.9949988  65.8180012  94.8674997  20.1379988
  64.6210012  95.3844997  19.3699988  64.9769510  94.8223611  19.9300741
  58.4540012  89.3454997  19.4769988  59.3680012  89.4244997  19.7509988
  58.4610012  88.6584997  18.8109988  58.5801131  89.2633961  19.4244393
  57.1030012  94.7384997  24.5549988  56.4560012  94.2764997  24.0219988
  57.4570012  94.0664997  25.1369988  57.0623849  94.5844723  24.5607959
  57.9730012  92.8194997  26.3589988  57.6380012  91.9394997  26.5309988
  58.1950012  93.1644997  27.2239988  57.9571783  92.7457500  26.4994208
  75.5210012  93.6284997  29.3399988  75.5000012  93.8134997  30.2789988
  76.2120012  94.1974997  28.9989988  75.6114618  93.7306606  29.4223864
  75.0850012  93.1964997  32.2619988  74.5970012  92.4604997  31.8909988
  75.6340012  92.8024997  32.9399988  75.0924872  93.0426249  32.3029160
  73.5350012  88.9854997  36.8999988  72.6690012  88.8804997  37.2939988
  73.9120012  89.7444997  37.3459988  73.4673308  89.0736900  37.0142393
  74.8360012  87.2424997  22.4139988  75.6860012  87.6634997  22.5409988
  74.8420012  86.5024997  23.0209988  74.9531372  87.2000803  22.5134344
  75.2310012  85.2954997  24.2379988  74.5040012  84.8164997  24.6349988
  75.8120012  85.5014997  24.9699988  75.2099375  85.2577090  24.3914129
  74.9900012  88.0804997  29.1849988  75.8230012  87.7024997  28.9049988
  75.1020012  89.0234997  29.0659988  75.1192647  88.1562218  29.1305487
  73.4760012  90.9584997  31.4919988  72.8290012  91.2834997  32.1179988
  72.9590012  90.5184997  30.8179988  73.3174029  90.9435004  31.4865827
  75.4990012  85.1964997  20.6289988  74.9770012  85.5534997  19.9099988
  75.4660012  85.8714997  21.3069988  75.4231634  85.3365413  20.6223145
  73.8480012  82.4364997  19.1799988  73.9440012  83.1034997  18.4989988
  73.7080012  81.6204997  18.6979988  73.8422135  82.4174500  19.0218491
  73.0170012  83.8164997  24.8009988  72.8670012  82.8714997  24.7799988
  72.6640012  84.0974997  25.6439988  72.9486625  83.7250441  24.9122346
  58.0530012  85.8944997  28.8109988  58.2370012  85.8124997  27.8749988
  58.9020012  85.7704997  29.2349988  58.1930139  85.8665003  28.7401455
  73.8740012  85.7864997  34.4389988  74.4570012  85.0524997  34.6309988
  74.4380012  86.5584997  34.4859988  74.0299769  85.7904227  34.4716159
  75.3700012  83.6894997  35.1239988  74.5070012  83.3104997  34.9579988
  75.9750012  82.9504997  35.0499988  75.3335979  83.5378023  35.0912817
  73.0950012  79.8444997  18.2969988  73.7060012  79.4734997  18.9339988
  72.2590012  79.4234997  18.4929988  73.0655032  79.7367554  18.4107035
  57.6500012  81.1654997  34.9519988  58.5700012  81.0434997  35.1879988
  57.2010012  80.4154997  35.3409988  57.7151580  81.0473727  35.0369006
  75.6520012  76.6974997  36.8279988  76.0020012  76.0434997  36.2229988
  75.7990012  77.5344997  36.3889988  75.7198419  76.7211591  36.6857118
  58.8710012  79.4774997  27.8429988  59.3170012  78.6854997  28.1449988
  59.3380012  80.1934997  28.2739988  58.9950172  79.4660624  27.9424820
  57.1750012  82.4764997  28.9119988  57.6670012  82.2554997  28.1209988
  57.5380012  83.3174997  29.1929988  57.2913126  82.5598357  28.8417531
  57.4890012  78.7344997  22.9659988  56.5640012  78.9434997  22.8369988
  57.9430012  79.2184997  22.2769988  57.4237368  78.8285993  22.8551226
  72.2600012  93.7184997  24.9119988  72.9120012  93.3714997  24.3039988
  72.7700012  94.2074997  25.5579988  72.4182637  93.7370597  24.9160236
  57.4530012  77.4724997  31.3109988  56.7880012  77.2264997  31.9539988
  57.0100012  78.0944997  30.7329988  57.3020956  77.5228632  31.3209352
  59.6450012  90.6474997  35.4549988  58.8240012  90.8224997  34.9949988
  59.3920012  90.5744997  36.3759988  59.4986164  90.6615622  35.5164923
  62.5990012  91.6224997  31.7139988  62.1740012  92.4314997  31.4309988
  63.5030012  91.7074997  31.4119988  62.6630271  91.7448469  31.6343776
  66.9100012  93.0214997  34.6729988  67.0950012  92.6874997  35.5509988
  67.7560012  93.3304997  34.3509988  67.0497539  93.0176047  34.7495605
  69.2550012  94.3074997  33.9169988  69.9320012  93.6744997  33.6769988
  69.5770012  94.7084997  34.7239988  69.3911637  94.2751154  33.9932793
  60.0010012  94.8784997  31.7609988  59.2800012  95.3184997  31.3099988
  59.6350012  94.6274997  32.6099988  59.8529804  94.9047698  31.8139840
  62.4680012  94.4784997  30.7909988  61.6030012  94.5504997  31.1949988
  62.4130012  95.0254997  30.0069988  62.3422085  94.5622685  30.7403362
  67.1780012  94.3664997  29.9659988  66.7220012  94.8954997  29.3119988
  67.3410012  94.9694997  30.6919988  67.1375585  94.5204468  29.9745062
  69.5060012  93.2444997  30.9109988  68.6010012  93.4094997  30.6459988
  69.9350012  94.0974997  30.8459988  69.4400799  93.3824483  30.8659182
  72.1100012  94.8144997  31.2059988  71.9280012  95.7304997  30.9959988
  72.2870012  94.4044997  30.3599988  72.1090210  94.8844822  31.0627885
  59.4150012  93.5014997  28.6709988  59.3970012  93.0764997  29.5289988
  60.2200012  93.1834997  28.2629988  59.5213875  93.4003812  28.7331655
  61.5570012  92.2114997  27.3259988  61.3380012  91.2954997  27.4959988
  62.3810012  92.3514997  27.7919988  61.6384420  92.1050520  27.4122774
  64.0940012  92.6814997  28.1749988  64.3070012  91.7934997  27.8879988
  64.1580012  92.6474997  29.1289988  64.1318232  92.5553102  28.2647397
  59.9290012  76.9794997  25.1409988  59.1520012  76.7454997  24.6339988
  60.4590012  76.1824997  25.1499988  59.8942330  76.8396988  25.0727742
  58.7650012  76.7774997  20.9449988  59.2040012  77.3884997  20.3529988
  58.1320012  77.3154997  21.4189988  58.7394514  76.9339257  20.9280930
  64.5080012  76.9064997  24.9549988  65.3830012  77.2944997  24.9249988
  64.3720012  76.6914997  25.8769988  64.6093695  76.9305184  25.0756440
  58.6660012  92.7254997  21.8429988  57.9810012  92.6874997  21.1749988
  58.6700012  93.6384997  22.1309988  58.5728193  92.8437016  21.7905284
  60.6260012  78.6934997  19.3869988  61.1180012  78.0634997  18.8599988
  61.2500012  78.9894997  20.0509988  60.7775446  78.6473199  19.4045980
  65.6520012  78.9864997  21.8439988  65.8300012  78.3404997  22.5269988
  65.5990012  79.8204997  22.3119988  65.6691829  79.0107985  22.0005940
  67.5310012  93.9354997  20.2399988  68.3970012  94.3014997  20.0619988
  67.2840012  93.4954997  19.4259988  67.6162392  93.9261756  20.1056289
  74.2400012  93.4984997  22.9189988  74.0450012  92.7504997  22.3539988
  74.2010012  94.2564997  22.3359988  74.2080380  93.4986099  22.7628384
  59.8870012  77.4934997  34.6589988  59.5210012  76.7284997  35.1019988
  60.8000012  77.5224997  34.9459988  59.9602790  77.3927224  34.7584070
  60.4840012  93.6454997  18.8679988  60.2170012  93.9324997  19.7409988
  61.2560012  93.0994997  19.0199988  60.5517488  93.6110294  19.0081050
  70.2810012  76.1764997  36.3769988  70.3580012  75.7504997  37.2309988
  71.1750012  76.1904997  36.0339988  70.4123428  76.1200879  36.4475310
  73.4570012  92.2494997  35.0689988  72.6750012  92.0634997  34.5499988
  73.3850012  93.1784997  35.2869988  73.3401777  92.3496492  35.0274048
  87.8630012  86.1354997  25.0999988  87.9520012  87.0794997  24.9679988
  87.2250012  85.8604997  24.4419988  87.7889081  86.2274830  24.9929614
  86.7960012  85.3904997  28.5189988  86.7580012  84.7444997  29.2239988
  86.4740012  84.9244997  27.7479988  86.7472333  85.2389408  28.5112978
  79.1650012  85.0054997  30.1119988  79.2060012  84.3794997  30.8349988
  79.8680012  85.6294997  30.2939988  79.2656363  85.0041196  30.2356044
  90.5020012  88.3294997  26.8199988  90.0620012  87.6094997  27.2709988
  90.4890012  89.0504997  27.4499988  90.4400226  88.3283731  26.9668494
  80.0880012  89.4554997  28.6469988  79.7190012  88.6534997  28.2769988
  81.0290012  89.2864997  28.6929988  80.1647289  89.3230153  28.6026316
  76.6980012  83.1154997  24.0399988  76.2510012  83.9614997  24.0209988
  76.1370012  82.5354997  23.5239988  76.5609900  83.1529916  23.9676801
  77.4090012  85.2774997  26.1659988  77.6220012  84.5074997  26.6929988
  78.1470012  85.3664997  25.5619988  77.5378496  85.1841394  26.1565300
  87.6140012  93.4344997  27.0329988  88.2340012  92.7574997  26.7589988
  87.4060012  93.2164997  27.9409988  87.6706904  93.3123870  27.1183365
  85.1860012  87.8234997  28.9249988  85.4900012  87.1374997  28.3299988
  85.9070012  87.9414997  29.5429988  85.3250671  87.7456305  28.9271816
  78.1020012  82.7154997  27.2869988  78.7550012  82.1654997  27.7189988
  78.1260012  82.4414997  26.3699988  78.1946683  82.6031466  27.2222123
  83.2580012  84.2654997  26.5019988  83.8740012  83.7394997  27.0119988
  82.6720012  83.6254997  26.0989988  83.2630810  84.1069208  26.5173173
  87.6610012  88.7364997  24.1429988  87.3650012  88.4144997  23.2919988
  87.3360012  89.6364997  24.1839988  87.5766371  88.8140215  24.0321801
  82.8610012  86.9124997  30.8859988  82.1210012  87.5104997  30.9899988
  83.5750012  87.4664997  30.5709988  82.8562237  87.0692831  30.8576465
  81.2680012  88.8764997  31.6739988  81.2630012  89.7564997  31.2959988
  80.4150012  88.7934997  32.0989988  81.1519464  88.9856117  31.6797907
  77.3890012  88.5474997  22.4559988  77.1170012  88.7764997  21.5669988
  77.4350012  89.3854997  22.9159988  77.3580094  88.6921213  22.3965697
  91.0140012  90.1694997  29.1679988  90.0730012  90.2274997  29.3299988
  91.2910012  91.0754997  29.0309988  90.9224679  90.2999443  29.1716815
  89.2660012  91.9504997  25.7939988  89.6920012  91.2434997  25.3089988
  89.5830012  92.7514997  25.3769988  89.3671019  91.9620994  25.6713130
  90.4260012  89.8514997  24.3019988  90.1680012  89.1614997  23.6909988
  90.4970012  89.4084997  25.1479988  90.4002856  89.6972124  24.3326885
  92.1120012  88.4174997  32.7799988  92.2520012  87.8264997  32.0399988
  92.2790012  89.2904997  32.4229988  92.1536778  88.4546426  32.6306965
  86.6380012  83.8374997  19.5909988  87.3390012  83.8594997  20.2419988
  86.9410012  83.2094997  18.9349988  86.7747830  83.7556566  19.5913711
  89.9900012  85.5894997  23.5039988  89.2580012  85.8174997  24.0769988
  90.4380012  84.8754997  23.9589988  89.9503095  85.5242571  23.6439119
  81.6360012  86.2194997  25.3859988  81.3050012  85.8494997  24.5679988
  82.2240012  85.5494997  25.7329988  81.6701873  86.0781156  25.3208102
  83.0020012  89.6474997  28.0679988  82.9080012  89.0694997  27.3109988
  83.7320012  89.2764997  28.5639988  83.0877981  89.5182390  28.0314165
  82.0020012  84.9884997  29.0199988  82.5680012  85.1094997  28.2569988
  82.3210012  85.6254997  29.6589988  82.1225786  85.0911884  29.0020040
  88.3110012  90.4914997  29.7539988  88.0710012  91.1534997  30.4019988
  88.1130012  89.6574997  30.1789988  88.2513808  90.4693134  29.9001524
  82.8820012  89.3874997  33.7369988  82.5710012  90.1694997  34.1919988
  82.2320012  89.2344997  33.0509988  82.7515558  89.4739105  33.7065871
  88.8610012  84.7514997  21.1889988  89.4410012  84.9014997  21.9359988
  89.2750012  85.2224997  20.4659988  88.9962830  84.8356841  21.1934134
  79.8020012  85.5854997  32.9659988  79.8730012  86.2364997  33.6639988
  78.9120012  85.6884997  32.6309988  79.6913117  85.6885936  33.0162700
  86.5880012  91.4884997  24.6239988  87.0620012  91.7834997  25.4019988
  86.0250012  92.2264997  24.3909988  86.5767653  91.6286932  24.6990136
  81.1220012  91.4594997  34.4999988  81.1290012  91.3234997  33.5529988
  80.2060012  91.3414997  34.7519988  80.9991714  91.4249430  34.4044666
  92.5600012  76.5014997  21.0019988  91.6600012  76.6404997  21.2969988
  92.8120012  77.3324997  20.5999988  92.4708702  76.6329074  20.9880205
  80.6260012  85.2894997  22.9759988  80.3340012  86.0574997  22.4849988
  79.9520012  84.6294997  22.8129988  80.4949081  85.3054406  22.8867340
  93.7490012  90.8674997  19.3779988  93.8230012  91.8064997  19.5489988
  94.6550012  90.5624997  19.3219988  93.8815100  90.9546722  19.3938119
  76.7190012  87.6524997  31.7909988  76.2180012  87.6244997  30.9759988
  76.7240012  86.7464997  32.0999988  76.6511526  87.5262278  31.7212872
  76.4690012  90.4324997  28.6749988  77.4150012  90.2884997  28.6559988
  76.3570012  91.2164997  29.2119988  76.5832727  90.5188046  28.7450072
  94.6670012  91.0984997  34.3569988  94.6180012  90.1434997  34.3199988
  93.8400012  91.3664997  34.7579988  94.5484940  91.0038998  34.4061375
  85.6460012  90.6724997  33.2329988  85.7330012  91.4984997  33.7079988
  84.7820012  90.3424997  33.4819988  85.5411964  90.7409878  33.3316549
  86.0600012  94.4444997  23.0389988  85.9850012  94.3234997  22.0929988
  86.0930012  95.3944997  23.1579988  86.0541848  94.5562500  22.9254834
  79.7130012  93.2334997  24.8199988  79.8660012  92.8854997  25.6989988
  78.8630012  92.8774997  24.5649988  79.6188962  93.1376650  24.9058340
  89.1620012  93.5984997  20.0409988  89.5370012  92.8544997  19.5709988
  89.1660012  93.3284997  20.9599988  89.2138915  93.4601486  20.1007824
  88.8310012  93.5244997  22.7909988  87.8950012  93.6244997  22.9689988
  89.1110012  92.8154997  23.3689988  88.7408255  93.4422711  22.8935391
  78.9680012  88.9754997  32.8339988  79.1840012  88.6144997  33.6929988
  78.1130012  88.6014997  32.6239988  78.8819292  88.8754111  32.9233386
  90.3390012  85.7844997  18.8189988  90.3810012  85.5614997  17.8889988
  91.1880012  86.1834997  19.0089988  90.4595396  85.8079155  18.7173627
  79.0850012  81.6884997  24.7489988  78.1950012  81.7884997  24.4089988
  79.3810012  80.8464997  24.4029988  79.0032823  81.5883545  24.6557213
  81.4120012  82.8834997  19.9729988  80.8690012  82.5034997  19.2809988
  82.2450012  83.0774997  19.5439988  81.4504399  82.8578124  19.8204526
  91.9490012  94.9664997  35.4639988  92.1490012  95.3904997  34.6289988
  92.6040012  95.3094997  36.0709988  92.0650051  95.0709648  35.4317836
  79.5470012  87.4404997  35.0719988  80.2790012  87.6944997  35.6329988
  78.7670012  87.6444997  35.5869988  79.5418232  87.5029177  35.2185760
  84.7470012  87.4484997  21.9079988  84.0020012  86.9414997  21.5859988
  84.6130012  87.4974997  22.8549988  84.6268776  87.3856940  21.9918647
  91.8970012  86.5814997  30.6949988  92.5390012  87.0384997  30.1509988
  91.0670012  86.6944997  30.2319988  91.8725963  86.6592704  30.5580177
  86.2660012  87.6324997  33.1449988  85.9210012  87.2514997  33.9519988
  86.0660012  88.5664997  33.2169988  86.1918061  87.7065228  33.2650961
  79.8720012  86.7434997  27.6779988  80.6170012  86.7414997  27.0769988
  79.9500012  85.9204997  28.1599988  79.9845518  86.6319315  27.6608929
  86.8730012  88.9074997  20.9339988  86.5770012  89.7334997  21.3149988
  86.1700012  88.2874997  21.1299988  86.7374914  88.9368199  21.0126443
  76.8800012  85.2044997  32.9929988  77.1030012  84.7864997  33.8249988
  76.2780012  84.5914997  32.5699988  76.8291759  85.0644668  33.0497022
  88.5170012  90.0944997  33.0959988  87.6160012  90.2774997  32.8279988
  88.5510012  90.3534997  34.0169988  88.3983041  90.1545512  33.1838197
  94.2480012  82.3394997  21.4629988  93.6940012  81.9434997  20.7909988
  94.3480012  83.2494997  21.1849988  94.1857059  82.4083586  21.3334401
  92.5430012  91.1254997  21.9279988  92.1700012  90.2994997  22.2369988
  92.8210012  90.9424997  21.0309988  92.5295630  90.9877303  21.8489626
  89.7040012  85.9334997  28.9489988  88.7750012  85.7014997  28.9219988
  90.1550012  85.1564997  28.6189988  89.6379216  85.7967238  28.9006917
  82.2470012  90.2614997  25.0819988  82.7740012  91.0344997  24.8819988
  81.3670012  90.4864997  24.7809988  82.2001773  90.3978005  25.0139010
  78.0020012  85.1234997  19.6689988  78.6180012  85.7504997  20.0489988
  77.1400012  85.4394997  19.9409988  77.9697698  85.2519430  19.7577183
  83.6740012  87.9244997  24.6589988  83.4330012  88.8494997  24.6999988
  82.9330012  87.4654997  25.0549988  83.5408409  87.9891421  24.7181377
  84.1890012  92.0734997  30.9739988  84.5510012  92.9284997  30.7399988
  84.7200012  91.7814997  31.7139988  84.3104473  92.1511060  31.0420855
  82.3570012  92.9464997  24.2039988  81.4070012  93.0514997  24.2549988
  82.7090012  93.7664997  24.5489988  82.2744203  93.0718314  24.2576650
  87.7330012  88.1724997  30.6739988  87.3070012  87.9454997  31.5009988
  88.3130012  87.4344997  30.4919988  87.7531868  88.0415299  30.7625830
  89.9360012  89.1014997  19.7479988  90.2890012  88.7214997  20.5529988
  88.9870012  89.0084997  19.8349988  89.8560441  89.0369596  19.8698559
  90.3910012  92.7244997  33.1439988  89.7900012  92.1694997  32.6479988
  90.6730012  93.3914997  32.5179988  90.3468519  92.7386841  32.9914952
  94.4390012  93.5814997  19.9489988  95.1830012  94.1674997  19.8089988
  93.7450012  94.1494997  20.2829988  94.4470292  93.7385582  19.9749961
  90.8020012  87.7744997  21.9749988  90.5240012  87.0464997  22.5309988
  91.7290012  87.8934997  22.1799988  90.8893124  87.6908802  22.0788845
  78.1650012  91.7624997  30.9859988  78.3820012  90.8304997  30.9549988
  78.4110012  92.0364997  31.8689988  78.2279549  91.6720636  31.1011763
  84.0270012  90.2134997  18.1949988  84.2660012  89.4654997  17.6479988
  83.7580012  89.8254997  19.0279988  84.0233675  90.0586638  18.2326865
  82.9640012  89.7834997  20.6519988  83.1100012  89.2634997  21.4419988
  82.9610012  90.6904997  20.9579988  82.9835989  89.8348853  20.8016088
  79.4170012  87.0364997  21.1619988  78.7310012  87.3884997  21.7289988
  79.9390012  87.7994997  20.9149988  79.3936852  87.1878578  21.2062118
  85.7010012  91.4814997  21.4009988  84.8850012  91.9784997  21.4529988
  86.2310012  91.9564997  20.7609988  85.6609161  91.6137722  21.3215956
  83.0400012  92.5254997  21.3829988  83.2000012  93.3244997  20.8819988
  82.8420012  92.8314997  22.2679988  83.0351649  92.6764469  21.4339815
  80.0330012  89.6504997  20.0589988  80.6250012  90.3494997  20.3349988
  80.4920012  89.2174997  19.3389988  80.1761142  89.6877049  19.9994830
  78.3490012  82.3144997  19.1749988  78.3040012  83.2534997  19.3529988
  77.4610012  82.0784997  18.9049988  78.2228574  82.4111892  19.1628912
  91.6610012  92.9784997  29.1109988  91.5060012  93.6564997  28.4539988
  92.5940012  93.0504997  29.3139988  91.7658500  93.0810170  29.0485119
  78.0870012  91.0364997  24.0079988  77.2550012  91.5094997  24.0359988
  78.6330012  91.5464997  23.4099988  78.0469739  91.1701871  23.9309716
  77.3750012  93.6494997  35.3379988  77.9160012  93.4324997  36.0979988
  76.8940012  92.8434997  35.1489988  77.3839345  93.5109514  35.4163076
  81.9730012  92.5684997  36.9589988  82.7400012  92.1094997  37.2999988
  81.9510012  92.3424997  36.0289988  82.0751434  92.4750409  36.8800043
  86.0650012  92.0764997  18.3339988  85.4210012  91.4454997  18.6549988
  86.8270012  91.5454997  18.1019988  86.0798077  91.9182920  18.3466011
  88.5500012  90.9484997  35.6879988  88.1990012  90.0924997  35.9309988
  89.2760012  91.0914997  36.2949988  88.6000769  90.8505636  35.8033619
  90.6690012  91.8934997  18.5679988  90.9520012  91.0994997  19.0199988
  91.4090012  92.1264997  18.0069988  90.8077486  91.8162803  18.5540698
  77.2820012  87.4594997  36.2929988  77.4260012  86.5574997  36.0059988
  76.5100012  87.7454997  35.8049988  77.1973323  87.3748261  36.1877881
  81.6240012  87.8034997  18.4249988  81.6880012  87.0094997  18.9559988
  82.2770012  87.6844997  17.7349988  81.7210241  87.6787148  18.4044317
  86.9760012  88.8504997  18.1609988  86.7070012  89.0304997  19.0619988
  86.7700012  87.9244997  18.0299988  86.9113825  88.7500152  18.2665214
  89.6720012  87.3454997  33.1089988  90.4180012  87.9334997  32.9889988
  88.9150012  87.9274997  33.1719988  89.6717554  87.5047011  33.1010907
  82.7730012  85.7754997  20.7309988  82.3130012  85.2914997  21.4169988
  83.0280012  85.1074997  20.0949988  82.7444902  85.6188731  20.7389334
  83.8440012  84.0184997  18.9929988  83.6640012  83.8644997  18.0659988
  84.7940012  84.1264997  19.0379988  83.9477776  84.0120175  18.8721843
  87.0820012  86.1404997  36.3639988  88.0350012  86.2234997  36.3369988
  86.9210012  85.4284997  36.9839988  87.1906426  86.0556746  36.4440579
  93.2340012  86.3734997  18.4389988  92.9600012  85.9484997  17.6259988
  93.2730012  87.3044997  18.2219988  93.2017699  86.4412484  18.2983610
  84.3960012  84.8324997  31.9009988  85.1460012  84.6764997  31.3279988
  84.0570012  85.6844997  31.6259988  84.4528921  84.9262968  31.7853561
  90.1280012  85.4364997  35.0069988  89.8470012  86.1454997  34.4299988
  91.0710012  85.3634997  34.8559988  90.2169027  85.5237646  34.9075551
  83.7410012  94.7094997  19.9949988  84.6740012  94.8674997  20.1379988
  83.4770012  95.3844997  19.3699988  83.8329510  94.8223611  19.9300741
  77.3100012  89.3454997  19.4769988  78.2240012  89.4244997  19.7509988
  77.3170012  88.6584997  18.8109988  77.4361131  89.2633961  19.4244393
  75.9590012  94.7384997  24.5549988  75.3120012  94.2764997  24.0219988
  76.3130012  94.0664997  25.1369988  75.9183849  94.5844723  24.5607959
  76.8290012  92.8194997  26.3589988  76.4940012  91.9394997  26.5309988
  77.0510012  93.1644997  27.2239988  76.8131783  92.7457500  26.4994208
  94.3770012  93.6284997  29.3399988  94.3560012  93.8134997  30.2789988
  95.0680012  94.1974997  28.9989988  94.4674618  93.7306606  29.4223864
  93.9410012  93.1964997  32.2619988  93.4530012  92.4604997  31.8909988
  94.4900012  92.8024997  32.9399988  93.9484872  93.0426249  32.3029160
  92.3910012  88.9854997  36.8999988  91.5250012  88.8804997  37.2939988
  92.7680012  89.7444997  37.3459988  92.3233308  89.0736900  37.0142393
  93.6920012  87.2424997  22.4139988  94.5420012  87.6634997  22.5409988
  93.6980012  86.5024997  23.0209988  93.8091372  87.2000803  22.5134344
  94.0870012  85.2954997  24.2379988  93.3600012  84.8164997  24.6349988
  94.6680012  85.5014997  24.9699988  94.0659375  85.2577090  24.3914129
  93.8460012  88.0804997  29.1849988  94.6790012  87.7024997  28.9049988
  93.9580012  89.0234997  29.0659988  93.9752647  88.1562218  29.1305487
  92.3320012  90.9584997  31.4919988  91.6850012  91.2834997  32.1179988
  91.8150012  90.5184997  30.8179988  92.1734029  90.9435004  31.4865827
  94.3550012  85.1964997  20.6289988  93.8330012  85.5534997  19.9099988
  94.3220012  85.8714997  21.3069988  94.2791634  85.3365413  20.6223145
  92.7040012  82.4364997  19.1799988  92.8000012  83.1034997  18.4989988
  92.5640012  81.6204997  18.6979988  92.6982135  82.4174500  19.0218491
  76.9090012  85.8944997  28.8109988  77.0930012  85.8124997  27.8749988
  77.7580012  85.7704997  29.2349988  77.0490139  85.8665003  28.7401455
  91.9510012  79.8444997  18.2969988  92.5620012  79.4734997  18.9339988
  91.1150012  79.4234997  18.4929988  91.9215032  79.7367554  18.4107035
  94.0640012  78.7294997  19.8389988  94.4760012  78.0084997  19.3639988
  94.7460012  79.3994997  19.8979988  94.2125885  78.7212368  19.7818915
  91.1160012  93.7184997  24.9119988  91.7680012  93.3714997  24.3039988
  91.6260012  94.2074997  25.5579988  91.2742637  93.7370597  24.9160236
  78.5010012  90.6474997  35.4549988  77.6800012  90.8224997  34.9949988
  78.2480012  90.5744997  36.3759988  78.3546164  90.6615622  35.5164923
  81.4550012  91.6224997  31.7139988  81.0300012  92.4314997  31.4309988
  82.3590012  91.7074997  31.4119988  81.5190271  91.7448469  31.6343776
  85.7660012  93.0214997  34.6729988  85.9510012  92.6874997  35.5509988
  86.6120012  93.3304997  34.3509988  85.9057539  93.0176047  34.7495605
  88.1110012  94.3074997  33.9169988  88.7880012  93.6744997  33.6769988
  88.4330012  94.7084997  34.7239988  88.2471637  94.2751154  33.9932793
  78.8570012  94.8784997  31.7609988  78.1360012  95.3184997  31.3099988
  78.4910012  94.6274997  32.6099988  78.7089804  94.9047698  31.8139840
  81.3240012  94.4784997  30.7909988  80.4590012  94.5504997  31.1949988
  81.2690012  95.0254997  30.0069988  81.1982085  94.5622685  30.7403362
  86.0340012  94.3664997  29.9659988  85.5780012  94.8954997  29.3119988
  86.1970012  94.9694997  30.6919988  85.9935585  94.5204468  29.9745062
  88.3620012  93.2444997  30.9109988  87.4570012  93.4094997  30.6459988
  88.7910012  94.0974997  30.8459988  88.2960799  93.3824483  30.8659182
  90.9660012  94.8144997  31.2059988  90.7840012  95.7304997  30.9959988
  91.1430012  94.4044997  30.3599988  90.9650210  94.8844822  31.0627885
  78.2710012  93.5014997  28.6709988  78.2530012  93.0764997  29.5289988
  79.0760012  93.1834997  28.2629988  78.3773875  93.4003812  28.7331655
  80.4130012  92.2114997  27.3259988  80.1940012  91.2954997  27.4959988
  81.2370012  92.3514997  27.7919988  80.4944420  92.1050520  27.4122774
  82.9500012  92.6814997  28.1749988  83.1630012  91.7934997  27.8879988
  83.0140012  92.6474997  29.1289988  82.9878232  92.5553102  28.2647397
  90.2740012  76.9624997  22.2959988  89.5720012  77.5774997  22.0869988
  89.8300012  76.1244997  22.4269988  90.1176330  76.9335783  22.2850328
  77.5220012  92.7254997  21.8429988  76.8370012  92.6874997  21.1749988
  77.5260012  93.6384997  22.1309988  77.4288193  92.8437016  21.7905284
  86.3870012  93.9354997  20.2399988  87.2530012  94.3014997  20.0619988
  86.1400012  93.4954997  19.4259988  86.4722392  93.9261756  20.1056289
  93.0960012  93.4984997  22.9189988  92.9010012  92.7504997  22.3539988
  93.0570012  94.2564997  22.3359988  93.0640380  93.4986099  22.7628384
  79.3400012  93.6454997  18.8679988  79.0730012  93.9324997  19.7409988
  80.1120012  93.0994997  19.0199988  79.4077488  93.6110294  19.0081050
  89.1370012  76.1764997  36.3769988  89.2140012  75.7504997  37.2309988
  90.0310012  76.1904997  36.0339988  89.2683428  76.1200879  36.4475310
  92.3130012  92.2494997  35.0689988  91.5310012  92.0634997  34.5499988
  92.2410012  93.1784997  35.2869988  92.1961777  92.3496492  35.0274048
 106.7190012  86.1354997  25.0999988 106.8080012  87.0794997  24.9679988
 106.0810012  85.8604997  24.4419988 106.6449081  86.2274830  24.9929614
 105.6520012  85.3904997  28.5189988 105.6140012  84.7444997  29.2239988
 105.3300012  84.9244997  27.7479988 105.6032333  85.2389408  28.5112978
 109.3580012  88.3294997  26.8199988 108.9180012  87.6094997  27.2709988
 109.3450012  89.0504997  27.4499988 109.2960226  88.3283731  26.9668494
  98.9440012  89.4554997  28.6469988  98.5750012  88.6534997  28.2769988
  99.8850012  89.2864997  28.6929988  99.0207289  89.3230153  28.6026316
  95.5540012  83.1154997  24.0399988  95.1070012  83.9614997  24.0209988
  94.9930012  82.5354997  23.5239988  95.4169900  83.1529916  23.9676801
  96.2650012  85.2774997  26.1659988  96.4780012  84.5074997  26.6929988
  97.0030012  85.3664997  25.5619988  96.3938496  85.1841394  26.1565300
 106.4700012  93.4344997  27.0329988 107.0900012  92.7574997  26.7589988
 106.2620012  93.2164997  27.9409988 106.5266904  93.3123870  27.1183365
 104.0420012  87.8234997  28.9249988 104.3460012  87.1374997  28.3299988
 104.7630012  87.9414997  29.5429988 104.1810671  87.7456305  28.9271816
 112.7050012  79.4244997  29.7859988 112.7540012  80.0344997  30.5219988
 113.1300012  79.8854997  29.0629988 112.7691824  79.5703741  29.7890205
 107.1830012  82.2174997  29.2529988 107.3250012  81.2714997  29.2729988
 107.0760012  82.4244997  28.3239988 107.1879864  82.1159534  29.1302339
 100.3370012  80.3184997  26.5249988 100.3810012  81.1784997  26.1069988
  99.8800012  79.7664997  25.8909988 100.2812185  80.3615799  26.3820299
 108.0600012  80.4494997  24.9259988 108.7060012  80.1204997  25.5509988
 108.5700012  80.9674997  24.3029988 108.2174264  80.4744611  24.9273862
  96.9580012  82.7154997  27.2869988  97.6110012  82.1654997  27.7189988
  96.9820012  82.4414997  26.3699988  97.0506683  82.6031466  27.2222123
 102.1140012  84.2654997  26.5019988 102.7300012  83.7394997  27.0119988
 101.5280012  83.6254997  26.0989988 102.1190810  84.1069208  26.5173173
 113.0960012  80.9024997  32.0219988 112.4080012  81.5604997  31.9259988
 113.1120012  80.7054997  32.9579988 113.0038525  80.9660462  32.1354808
  99.1480012  79.2364997  30.5989988  98.9290012  79.7664997  29.8329988
  98.4800012  79.4634997  31.2459988  99.0277600  79.3396906  30.5816379
 106.5170012  88.7364997  24.1429988 106.2210012  88.4144997  23.2919988
 106.1920012  89.6364997  24.1839988 106.4326371  88.8140215  24.0321801
 101.7170012  86.9124997  30.8859988 100.9770012  87.5104997  30.9899988
 102.4310012  87.4664997  30.5709988 101.7122237  87.0692831  30.8576465
 109.8240012  79.7404997  26.9059988 109.6080012  78.9744997  27.4389988
 110.4790012  80.2124997  27.4189988 109.8830632  79.6995889  27.0482861
 100.1240012  88.8764997  31.6739988 100.1190012  89.7564997  31.2959988
  99.2710012  88.7934997  32.0989988 100.0079464  88.9856117  31.6797907
  96.2450012  88.5474997  22.4559988  95.9730012  88.7764997  21.5669988
  96.2910012  89.3854997  22.9159988  96.2140094  88.6921213  22.3965697
 109.8700012  90.1694997  29.1679988 108.9290012  90.2274997  29.3299988
 110.1470012  91.0754997  29.0309988 109.7784679  90.2999443  29.1716815
 110.1710012  78.4554997  30.5859988 109.4350012  79.0664997  30.5479988
 110.8540012  78.8704997  30.0589988 110.1626541  78.5951374  30.5095832
 103.1740012  76.5424997  28.0519988 103.0570012  75.5934997  27.9969988
 102.3190012  76.8744997  28.3249988 103.0423733  76.4575409  28.0813897
 108.1220012  91.9504997  25.7939988 108.5480012  91.2434997  25.3089988
 108.4390012  92.7514997  25.3769988 108.2231019  91.9620994  25.6713130
 109.2820012  89.8514997  24.3019988 109.0240012  89.1614997  23.6909988
 109.3530012  89.4084997  25.1479988 109.2562856  89.6972124  24.3326885
 110.9680012  88.4174997  32.7799988 111.1080012  87.8264997  32.0399988
 111.1350012  89.2904997  32.4229988 111.0096778  88.4546426  32.6306965
 105.4410012  85.3794997  22.5519988 104.7290012  85.9144997  22.1999988
 106.1320012  85.4354997  21.8919988 105.4370132  85.4602543  22.4146289
 105.4940012  83.8374997  19.5909988 106.1950012  83.8594997  20.2419988
 105.7970012  83.2094997  18.9349988 105.6307830  83.7556566  19.5913711
 112.8100012  84.7574997  30.8459988 112.1570012  85.4524997  30.9349988
 113.2750012  84.9674997  30.0359988 112.7835390  84.8809425  30.7486883
 108.8460012  85.5894997  23.5039988 108.1140012  85.8174997  24.0769988
 109.2940012  84.8754997  23.9589988 108.8063095  85.5242571  23.6439119
 108.7440012  83.7634997  32.5709988 108.8240012  84.5264997  33.1429988
 108.1420012  84.0424997  31.8809988 108.6735756  83.9057134  32.5560589
 100.4920012  86.2194997  25.3859988 100.1610012  85.8494997  24.5679988
 101.0800012  85.5494997  25.7329988 100.5261873  86.0781156  25.3208102
 101.8580012  89.6474997  28.0679988 101.7640012  89.0694997  27.3109988
 102.5880012  89.2764997  28.5639988 101.9437981  89.5182390  28.0314165
 107.1670012  90.4914997  29.7539988 106.9270012  91.1534997  30.4019988
 106.9690012  89.6574997  30.1789988 107.1073808  90.4693134  29.9001524
 101.7380012  89.3874997  33.7369988 101.4270012  90.1694997  34.1919988
 101.0880012  89.2344997  33.0509988 101.6075558  89.4739105  33.7065871
 107.7170012  84.7514997  21.1889988 108.2970012  84.9014997  21.9359988
 108.1310012  85.2224997  20.4659988 107.8522830  84.8356841  21.1934134
 105.4440012  91.4884997  24.6239988 105.9180012  91.7834997  25.4019988
 104.8810012  92.2264997  24.3909988 105.4327653  91.6286932  24.6990136
  99.9780012  91.4594997  34.4999988  99.9850012  91.3234997  33.5529988
  99.0620012  91.3414997  34.7519988  99.8551714  91.4249430  34.4044666
 111.4160012  76.5014997  21.0019988 110.5160012  76.6404997  21.2969988
 111.6680012  77.3324997  20.5999988 111.3268702  76.6329074  20.9880205
  99.4820012  85.2894997  22.9759988  99.1900012  86.0574997  22.4849988
  98.8080012  84.6294997  22.8129988  99.3509081  85.3054406  22.8867340
 112.6050012  90.8674997  19.3779988 112.6790012  91.8064997  19.5489988
 113.5110012  90.5624997  19.3219988 112.7375100  90.9546722  19.3938119
  95.5750012  87.6524997  31.7909988  95.0740012  87.6244997  30.9759988
  95.5800012  86.7464997  32.0999988  95.5071526  87.5262278  31.7212872
  95.3250012  90.4324997  28.6749988  96.2710012  90.2884997  28.6559988
  95.2130012  91.2164997  29.2119988  95.4392727  90.5188046  28.7450072
 113.5230012  91.0984997  34.3569988 113.4740012  90.1434997  34.3199988
 112.6960012  91.3664997  34.7579988 113.4044940  91.0038998  34.4061375
 104.5020012  90.6724997  33.2329988 104.5890012  91.4984997  33.7079988
 103.6380012  90.3424997  33.4819988 104.3971964  90.7409878  33.3316549
 104.9160012  94.4444997  23.0389988 104.8410012  94.3234997  22.0929988
 104.9490012  95.3944997  23.1579988 104.9101848  94.5562500  22.9254834
  98.5690012  93.2334997  24.8199988  98.7220012  92.8854997  25.6989988
  97.7190012  92.8774997  24.5649988  98.4748962  93.1376650  24.9058340
 108.0180012  93.5984997  20.0409988 108.3930012  92.8544997  19.5709988
 108.0220012  93.3284997  20.9599988 108.0698915  93.4601486  20.1007824
 107.6870012  93.5244997  22.7909988 106.7510012  93.6244997  22.9689988
 107.9670012  92.8154997  23.3689988 107.5968255  93.4422711  22.8935391
 110.6750012  82.5914997  34.8369988 110.2680012  83.0724997  34.1159988
 110.7160012  81.6864997  34.5289988 110.6248437  82.5349374  34.6966683
  97.8240012  88.9754997  32.8339988  98.0400012  88.6144997  33.6929988
  96.9690012  88.6014997  32.6239988  97.7379292  88.8754111  32.9233386
 100.4430012  77.4454997  28.8289988  99.5810012  77.3584997  28.4219988
 100.4200012  78.3014997  29.2569988 100.3220330  77.5492765  28.8311863
 105.1060012  77.1674997  32.2039988 105.5260012  76.7524997  32.9569988
 104.1730012  76.9894997  32.3209988 105.0373644  77.0865900  32.3229539
 108.4320012  80.9234997  33.0569988 107.9180012  80.7974997  33.8549988
 108.2770012  81.8354997  32.8129988 108.3406852  81.0296132  33.1332158
 109.1950012  85.7844997  18.8189988 109.2370012  85.5614997  17.8889988
 110.0440012  86.1834997  19.0089988 109.3155396  85.8079155  18.7173627
 104.7670012  79.6604997  19.4889988 104.5140012  79.6794997  20.4119988
 104.5110012  78.7884997  19.1879988 104.6977790  79.5452437  19.5746263
 100.5310012  82.6324997  24.8359988  99.6380012  82.2914997  24.7779988
 100.9810012  82.2554997  24.0809988 100.4697305  82.5348484  24.7259177
 106.0660012  83.0484997  23.6529988 105.6570012  83.8634997  23.3619988
 106.7870012  82.9084997  23.0389988 106.1074537  83.1412018  23.5301342
 105.1680012  83.2234997  35.1409988 104.6060012  82.5194997  35.4619988
 105.9950012  83.1034997  35.6089988 105.2027095  83.1107883  35.2482330
 107.0710012  82.4944997  26.4669988 106.8760012  83.0994997  25.7519988
 107.2520012  81.6604997  26.0329988 107.0687614  82.4646300  26.3104405
 101.6500012  80.1054997  18.5899988 101.2190012  79.6604997  19.3199988
 100.9320012  80.4774997  18.0779988 101.4939438  80.0948940  18.6206799
  96.1660012  80.5934997  21.0659988  96.6400012  81.1844997  20.4809988
  95.4490012  81.1244997  21.4129988  96.1339341  80.7460867  21.0328836
 106.3350012  84.1324997  31.1389988 106.6580012  83.5014997  30.4959988
 105.8950012  83.5974997  31.7989988 106.3196895  83.9738441  31.1402850
 103.1120012  80.0594997  25.9229988 102.2010012  80.1164997  26.2109988
 103.6180012  79.9994997  26.7329988 103.0555413  80.0591985  26.0720622
  97.9410012  81.6884997  24.7489988  97.0510012  81.7884997  24.4089988
  98.2370012  80.8464997  24.4029988  97.8592823  81.5883545  24.6557213
 101.5940012  81.6884997  22.4059988 102.5250012  81.8174997  22.5839988
 101.3790012  82.3584997  21.7559988 101.6924247  81.7966565  22.3425747
 107.5170012  79.2944997  29.1869988 106.8410012  79.4254997  29.8509988
 107.0320012  79.1394997  28.3769988 107.3587145  79.2914905  29.1684517
 100.2680012  82.8834997  19.9729988  99.7250012  82.5034997  19.2809988
 101.1010012  83.0774997  19.5439988 100.3064399  82.8578124  19.8204526
 110.8050012  94.9664997  35.4639988 111.0050012  95.3904997  34.6289988
 111.4600012  95.3094997  36.0709988 110.9210051  95.0709648  35.4317836
  98.4030012  87.4404997  35.0719988  99.1350012  87.6944997  35.6329988
  97.6230012  87.6444997  35.5869988  98.3978232  87.5029177  35.2185760
 104.4320012  82.8474997  27.8099988 104.9970012  82.3004997  27.2629988
 104.2850012  82.3254997  28.5979988 104.4892918  82.7022024  27.8418454
  99.4340012  78.9834997  24.2279988  99.1170012  78.0814997  24.1929988
 100.2160012  78.9854997  23.6749988  99.4962284  78.8601628  24.1484783
 103.0590012  81.2354997  30.2239988 102.2230012  81.6894997  30.3339988
 103.5830012  81.5114997  30.9759988 103.0154414  81.3349376  30.3407136
 103.6030012  87.4484997  21.9079988 102.8580012  86.9414997  21.5859988
 103.4690012  87.4974997  22.8549988 103.4828776  87.3856940  21.9918647
 110.7530012  86.5814997  30.6949988 111.3950012  87.0384997  30.1509988
 109.9230012  86.6944997  30.2319988 110.7285963  86.6592704  30.5580177
 107.5010012  80.2624997  20.1079988 106.5620012  80.3744997  19.9559988
 107.7980012  81.1194997  20.4139988 107.4127666  80.3936443  20.1285768
 105.1220012  87.6324997  33.1449988 104.7770012  87.2514997  33.9519988
 104.9220012  88.5664997  33.2169988 105.0478061  87.7065228  33.2650961
 108.2190012  82.1294997  21.7679988 109.1110012  81.9924997  22.0869988
 108.2760012  82.9204997  21.2319988 108.3486285  82.2176660  21.7391691
  98.7280012  86.7434997  27.6779988  99.4730012  86.7414997  27.0769988
  98.8060012  85.9204997  28.1599988  98.8405518  86.6319315  27.6608929
 105.7290012  88.9074997  20.9339988 105.4330012  89.7334997  21.3149988
 105.0260012  88.2874997  21.1299988 105.5934914  88.9368199  21.0126443
 102.7520012  84.7214997  35.2059988 102.4560012  84.5554997  34.3109988
 103.6840012  84.5014997  35.1949988 102.8374166  84.6690640  35.0820536
 107.3730012  90.0944997  33.0959988 106.4720012  90.2774997  32.8279988
 107.4070012  90.3534997  34.0169988 107.2543041  90.1545512  33.1838197
 113.1040012  82.3394997  21.4629988 112.5500012  81.9434997  20.7909988
 113.2040012  83.2494997  21.1849988 113.0417059  82.4083586  21.3334401
 113.0670012  88.1394997  34.2999988 112.2160012  88.3774997  33.9329988
 113.6580012  88.1224997  33.5469988 113.0302487  88.1698258  34.1478893
 111.3990012  91.1254997  21.9279988 111.0260012  90.2994997  22.2369988
 111.6770012  90.9424997  21.0309988 111.3855630  90.9877303  21.8489626
 108.5600012  85.9334997  28.9489988 107.6310012  85.7014997  28.9219988
 109.0110012  85.1564997  28.6189988 108.4939216  85.7967238  28.9006917
 101.1030012  90.2614997  25.0819988 101.6300012  91.0344997  24.8819988
 100.2230012  90.4864997  24.7809988 101.0561773  90.3978005  25.0139010
  96.8580012  85.1234997  19.6689988  97.4740012  85.7504997  20.0489988
  95.9960012  85.4394997  19.9409988  96.8257698  85.2519430  19.7577183
 102.5300012  87.9244997  24.6589988 102.2890012  88.8494997  24.6999988
 101.7890012  87.4654997  25.0549988 102.3968409  87.9891421  24.7181377
 103.0450012  92.0734997  30.9739988 103.4070012  92.9284997  30.7399988
 103.5760012  91.7814997  31.7139988 103.1664473  92.1511060  31.0420855
 101.2130012  92.9464997  24.2039988 100.2630012  93.0514997  24.2549988
 101.5650012  93.7664997  24.5489988 101.1304203  93.0718314  24.2576650
 106.5890012  88.1724997  30.6739988 106.1630012  87.9454997  31.5009988
 107.1690012  87.4344997  30.4919988 106.6091868  88.0415299  30.7625830
 108.7920012  89.1014997  19.7479988 109.1450012  88.7214997  20.5529988
 107.8430012  89.0084997  19.8349988 108.7120441  89.0369596  19.8698559
 109.2470012  92.7244997  33.1439988 108.6460012  92.1694997  32.6479988
 109.5290012  93.3914997  32.5179988 109.2028519  92.7386841  32.9914952
 113.2950012  93.5814997  19.9489988 114.0390012  94.1674997  19.8089988
 112.6010012  94.1494997  20.2829988 113.3030292  93.7385582  19.9749961
 109.6580012  87.7744997  21.9749988 109.3800012  87.0464997  22.5309988
 110.5850012  87.8934997  22.1799988 109.7453124  87.6908802  22.0788845
  97.0210012  91.7624997  30.9859988  97.2380012  90.8304997  30.9549988
  97.2670012  92.0364997  31.8689988  97.0839549  91.6720636  31.1011763
 102.8830012  90.2134997  18.1949988 103.1220012  89.4654997  17.6479988
 102.6140012  89.8254997  19.0279988 102.8793675  90.0586638  18.2326865
 101.8200012  89.7834997  20.6519988 101.9660012  89.2634997  21.4419988
 101.8170012  90.6904997  20.9579988 101.8395989  89.8348853  20.8016088
  98.2730012  87.0364997  21.1619988  97.5870012  87.3884997  21.7289988
  98.7950012  87.7994997  20.9149988  98.2496852  87.1878578  21.2062118
 106.1040012  79.6984997  31.4409988 106.8030012  79.7724997  32.0909988
 105.7230012  78.8344997  31.5949988 106.1481767  79.5917624  31.5508322
 106.8890012  79.3504997  22.5379988 107.1090012  79.8224997  21.7349988
 107.4470012  79.7454997  23.2079988 106.9944968  79.4684285  22.5187331
 104.5570012  91.4814997  21.4009988 103.7410012  91.9784997  21.4529988
 105.0870012  91.9564997  20.7609988 104.5169161  91.6137722  21.3215956
 104.0890012  81.0784997  23.3729988 104.9010012  81.5834997  23.4189988
 103.8440012  80.9334997  24.2869988 104.1670520  81.1280375  23.5028517
 104.6240012  82.0644997  32.5579988 104.7430012  82.6384997  33.3149988
 105.2800012  81.3764997  32.6719988 104.7289757  82.0501079  32.6770825
 104.9720012  78.1594997  24.3109988 104.6260012  78.7774997  24.9559988
 105.6310012  78.6604997  23.8299988 105.0137826  78.3115802  24.3340971
 101.8960012  92.5254997  21.3829988 102.0560012  93.3244997  20.8819988
 101.6980012  92.8314997  22.2679988 101.8911649  92.6764469  21.4339815
 100.6300012  79.2224997  20.9979988 100.5470012  80.1114997  21.3449988
 101.5200012  78.9574997  21.2299988 100.7389469  79.3081430  21.0767626
 110.8290012  79.9714997  33.3929988 109.9120012  80.2344997  33.3049988
 111.1640012  79.9684997  32.4959988 110.7489900  80.0070224  33.2597919
 109.4310012  83.7224997  27.4879988 108.6330012  83.3074997  27.1599988
 109.8760012  83.0314997  27.9789988 109.3819885  83.5723543  27.5094889
  98.8890012  89.6504997  20.0589988  99.4810012  90.3494997  20.3349988
  99.3480012  89.2174997  19.3389988  99.0321142  89.6877049  19.9994830
  97.2050012  82.3144997  19.1749988  97.1600012  83.2534997  19.3529988
  96.3170012  82.0784997  18.9049988  97.0788574  82.4111892  19.1628912
 110.5170012  92.9784997  29.1109988 110.3620012  93.6564997  28.4539988
 111.4500012  93.0504997  29.3139988 110.6218500  93.0810170  29.0485119
  98.0130012  77.0964997  27.8479988  97.7840012  77.1554997  26.9199988
  97.5700012  76.3044997  28.1539988  97.9218530  76.9975753  27.7624786
  96.9430012  91.0364997  24.0079988  96.1110012  91.5094997  24.0359988
  97.4890012  91.5464997  23.4099988  96.9029739  91.1701871  23.9309716
  96.2310012  93.6494997  35.3379988  96.7720012  93.4324997  36.0979988
  95.7500012  92.8434997  35.1489988  96.2399345  93.5109514  35.4163076
 100.8290012  92.5684997  36.9589988 101.5960012  92.1094997  37.2999988
 100.8070012  92.3424997  36.0289988 100.9311434  92.4750409  36.8800043
 104.9210012  92.0764997  18.3339988 104.2770012  91.4454997  18.6549988
 105.6830012  91.5454997  18.1019988 104.9358077  91.9182920  18.3466011
 107.4060012  90.9484997  35.6879988 107.0550012  90.0924997  35.9309988
 108.1320012  91.0914997  36.2949988 107.4560769  90.8505636  35.8033619
 109.5250012  91.8934997  18.5679988 109.8080012  91.0994997  19.0199988
 110.2650012  92.1264997  18.0069988 109.6637486  91.8162803  18.5540698
 100.4800012  87.8034997  18.4249988 100.5440012  87.0094997  18.9559988
 101.1330012  87.6844997  17.7349988 100.5770241  87.6787148  18.4044317
 102.7940012  87.4294997  35.7249988 102.4650012  87.7004997  34.8679988
 102.9460012  86.4884997  35.6379988 102.7694809  87.3393862  35.5958244
 105.8320012  88.8504997  18.1609988 105.5630012  89.0304997  19.0619988
 105.6260012  87.9244997  18.0299988 105.7673825  88.7500152  18.2665214
 108.5280012  87.3454997  33.1089988 109.2740012  87.9334997  32.9889988
 107.7710012  87.9274997  33.1719988 108.5277554  87.5047011  33.1010907
 101.6290012  85.7754997  20.7309988 101.1690012  85.2914997  21.4169988
 101.8840012  85.1074997  20.0949988 101.6004902  85.6188731  20.7389334
 100.9180012  83.6684997  33.0869988 100.3000012  84.3434997  33.3669988
 101.2620012  83.9894997  32.2539988 100.8799615  83.8042721  33.0126581
 102.7000012  84.0184997  18.9929988 102.5200012  83.8644997  18.0659988
 103.6500012  84.1264997  19.0379988 102.8037776  84.0120175  18.8721843
 105.9380012  86.1404997  36.3639988 106.8910012  86.2234997  36.3369988
 105.7770012  85.4284997  36.9839988 106.0466426  86.0556746  36.4440579
 112.0900012  86.3734997  18.4389988 111.8160012  85.9484997  17.6259988
 112.1290012  87.3044997  18.2219988 112.0577699  86.4412484  18.2983610
 101.2570012  81.0234997  34.1689988 101.4070012  80.2944997  33.5669988
 101.2600012  81.8004997  33.6099988 101.2779302  81.0287851  34.0110692
 101.6700012  79.3934997  31.6619988 102.2060012  79.8444997  31.0099988
 100.8180012  79.2854997  31.2389988 101.6282178  79.4406390  31.5155756
 103.2520012  84.8324997  31.9009988 104.0020012  84.6764997  31.3279988
 102.9130012  85.6844997  31.6259988 103.3088921  84.9262968  31.7853561
 107.6670012  82.6474997  36.9299988 107.8600012  81.7164997  36.8179988
 108.5250012  83.0724997  36.9199988 107.8093020  82.5776389  36.9133361
 108.9840012  85.4364997  35.0069988 108.7030012  86.1454997  34.4299988
 109.9270012  85.3634997  34.8559988 109.0729027  85.5237646  34.9075551
 102.4760012  76.8494997  32.0929988 102.3770012  77.7964997  31.9879988
 101.7330012  76.4774997  31.6179988 102.3620564  76.9285902  32.0144560
 103.7400012  81.1714997  35.6569988 103.5040012  80.9514997  36.5589988
 102.9560012  80.9644997  35.1469988 103.6018628  81.1134760  35.7113932
 106.4550012  80.2984997  34.7329988 105.5080012  80.3304997  34.8649988
 106.7680012  79.6734997  35.3859988 106.3675475  80.2183207  34.8394455
 108.0890012  78.9324997  36.7379988 107.9930012  77.9804997  36.7319988
 107.7680012  79.2014997  37.5979988 108.0324070  78.8384035  36.8535441
 102.6970012  76.1434997  34.7649988 103.4090012  75.5034997  34.7509988
 102.5960012  76.4104997  33.8509988 102.7807939  76.0919938  34.6395650
 103.0510012  77.8264997  36.8179988 102.9190012  77.3504997  35.9979988
 102.4520012  78.5704997  36.7629988 102.9519071  77.8619618  36.6982886
 102.5970012  94.7094997  19.9949988 103.5300012  94.8674997  20.1379988
 102.3330012  95.3844997  19.3699988 102.6889510  94.8223611  19.9300741
  96.1660012  89.3454997  19.4769988  97.0800012  89.4244997  19.7509988
  96.1730012  88.6584997  18.8109988  96.2921131  89.2633961  19.4244393
  94.8150012  94.7384997  24.5549988  94.1680012  94.2764997  24.0219988
  95.1690012  94.0664997  25.1369988  94.7743849  94.5844723  24.5607959
  95.6850012  92.8194997  26.3589988  95.3500012  91.9394997  26.5309988
  95.9070012  93.1644997  27.2239988  95.6691783  92.7457501  26.4994208
 113.2330012  93.6284997  29.3399988 113.2120012  93.8134997  30.2789988
 113.9240012  94.1974997  28.9989988 113.3234618  93.7306606  29.4223864
 112.7970012  93.1964997  32.2619988 112.3090012  92.4604997  31.8909988
 113.3460012  92.8024997  32.9399988 112.8044872  93.0426249  32.3029160
 111.2470012  88.9854997  36.8999988 110.3810012  88.8804997  37.2939988
 111.6240012  89.7444997  37.3459988 111.1793308  89.0736900  37.0142393
 112.5480012  87.2424997  22.4139988 113.3980012  87.6634997  22.5409988
 112.5540012  86.5024997  23.0209988 112.6651372  87.2000803  22.5134344
 112.9430012  85.2954997  24.2379988 112.2160012  84.8164997  24.6349988
 113.5240012  85.5014997  24.9699988 112.9219375  85.2577090  24.3914129
 112.7020012  88.0804997  29.1849988 113.5350012  87.7024997  28.9049988
 112.8140012  89.0234997  29.0659988 112.8312647  88.1562218  29.1305487
 111.1880012  90.9584997  31.4919988 110.5410012  91.2834997  32.1179988
 110.6710012  90.5184997  30.8179988 111.0294029  90.9435004  31.4865827
 113.2110012  85.1964997  20.6289988 112.6890012  85.5534997  19.9099988
 113.1780012  85.8714997  21.3069988 113.1351634  85.3365413  20.6223145
 111.5600012  82.4364997  19.1799988 111.6560012  83.1034997  18.4989988
 111.4200012  81.6204997  18.6979988 111.5542135  82.4174500  19.0218491
 110.7290012  83.8164997  24.8009988 110.5790012  82.8714997  24.7799988
 110.3760012  84.0974997  25.6439988 110.6606625  83.7250441  24.9122346
  95.7650012  85.8944997  28.8109988  95.9490012  85.8124997  27.8749988
  96.6140012  85.7704997  29.2349988  95.9050139  85.8665003  28.7401455
 111.5860012  85.7864997  34.4389988 112.1690012  85.0524997  34.6309988
 112.1500012  86.5584997  34.4859988 111.7419769  85.7904227  34.4716159
 113.0820012  83.6894997  35.1239988 112.2190012  83.3104997  34.9579988
 113.6870012  82.9504997  35.0499988 113.0455979  83.5378023  35.0912817
 110.8070012  79.8444997  18.2969988 111.4180012  79.4734997  18.9339988
 109.9710012  79.4234997  18.4929988 110.7775032  79.7367554  18.4107035
 110.4400012  81.3994997  23.2629988 110.7200012  80.4924997  23.3869988
 111.1990012  81.8334997  22.8739988 110.5809277  81.3340942  23.2273682
 111.0520012  81.9804997  28.6989988 111.9850012  82.1924997  28.6649988
 110.8170012  82.0824997  29.6209988 111.1478036  82.0232769  28.8189976
 111.0810012  82.7174997  31.4749988 110.2380012  82.9854997  31.8409988
 111.5230012  83.5394997  31.2639988 111.0254158  82.8653291  31.4965491
 113.3640012  76.6974997  36.8279988 113.7140012  76.0434997  36.2229988
 113.5110012  77.5344997  36.3889988 113.4318419  76.7211591  36.6857118
 111.0530012  78.6624997  23.3109988 111.2360012  78.2134997  24.1369988
 110.4540012  78.0774997  22.8479988 110.9970202  78.5219975  23.3613275
  96.5830012  79.4774997  27.8429988  97.0290012  78.6854997  28.1449988
  97.0500012  80.1934997  28.2739988  96.7070172  79.4660624  27.9424820
 112.8840012  78.8064997  35.1779988 111.9660012  79.0774997  35.1419988
 113.0070012  78.2714997  34.3929988 112.7751066  78.7712892  35.0670487
 112.9200012  78.7294997  19.8389988 113.3320012  78.0084997  19.3639988
 113.6020012  79.3994997  19.8979988 113.0685885  78.7212368  19.7818915
  95.2010012  78.7344997  22.9659988  94.2760012  78.9434997  22.8369988
  95.6550012  79.2184997  22.2769988  95.1357368  78.8285993  22.8551226
 109.9720012  93.7184997  24.9119988 110.6240012  93.3714997  24.3039988
 110.4820012  94.2074997  25.5579988 110.1302637  93.7370597  24.9160236
  97.3570012  90.6474997  35.4549988  96.5360012  90.8224997  34.9949988
  97.1040012  90.5744997  36.3759988  97.2106164  90.6615622  35.5164923
 100.3110012  91.6224997  31.7139988  99.8860012  92.4314997  31.4309988
 101.2150012  91.7074997  31.4119988 100.3750271  91.7448469  31.6343776
 104.6220012  93.0214997  34.6729988 104.8070012  92.6874997  35.5509988
 105.4680012  93.3304997  34.3509988 104.7617539  93.0176047  34.7495605
 106.9670012  94.3074997  33.9169988 107.6440012  93.6744997  33.6769988
 107.2890012  94.7084997  34.7239988 107.1031637  94.2751154  33.9932793
 111.8840012  76.8964997  32.9969988 111.0720012  77.2214997  32.6089988
 112.1170012  76.1364997  32.4639988 111.8043423  76.8382436  32.8718253
  97.7130012  94.8784997  31.7609988  96.9920012  95.3184997  31.3099988
  97.3470012  94.6274997  32.6099988  97.5649804  94.9047698  31.8139840
 100.1800012  94.4784997  30.7909988  99.3150012  94.5504997  31.1949988
 100.1250012  95.0254997  30.0069988 100.0542085  94.5622685  30.7403362
 104.8900012  94.3664997  29.9659988 104.4340012  94.8954997  29.3119988
 105.0530012  94.9694997  30.6919988 104.8495585  94.5204468  29.9745062
 107.2180012  93.2444997  30.9109988 106.3130012  93.4094997  30.6459988
 107.6470012  94.0974997  30.8459988 107.1520799  93.3824483  30.8659182
 109.8220012  94.8144997  31.2059988 109.6400012  95.7304997  30.9959988
 109.9990012  94.4044997  30.3599988 109.8210210  94.8844822  31.0627885
  97.1270012  93.5014997  28.6709988  97.1090012  93.0764997  29.5289988
  97.9320012  93.1834997  28.2629988  97.2333875  93.4003812  28.7331655
  99.2690012  92.2114997  27.3259988  99.0500012  91.2954997  27.4959988
 100.0930012  92.3514997  27.7919988  99.3504420  92.1050520  27.4122774
 101.8060012  92.6814997  28.1749988 102.0190012  91.7934997  27.8879988
 101.8700012  92.6474997  29.1289988 101.8438232  92.5553102  28.2647397
 105.3140012  78.3454997  27.3189988 104.6400012  77.7164997  27.5749988
 105.8780012  77.8614997  26.7159988 105.2979230  78.1938744  27.2725340
 110.4570012  76.4534997  27.4319988 111.0610012  77.0004997  26.9299988
 109.5870012  76.7724997  27.1919988 110.4221241  76.5715806  27.3307654
 112.1840012  77.5914997  25.7649988 112.7960012  77.0774997  25.2389988
 112.5660012  78.4694997  25.7889988 112.3194540  77.6397140  25.6961830
  97.6410012  76.9794997  25.1409988  96.8640012  76.7454997  24.6339988
  98.1710012  76.1824997  25.1499988  97.6062330  76.8396988  25.0727742
  96.4770012  76.7774997  20.9449988  96.9160012  77.3884997  20.3529988
  95.8440012  77.3154997  21.4189988  96.4514514  76.9339257  20.9280930
 102.2200012  76.9064997  24.9549988 103.0950012  77.2944997  24.9249988
 102.0840012  76.6914997  25.8769988 102.3213695  76.9305184  25.0756440
 107.7770012  76.9364997  26.6039988 107.8530012  77.0314997  25.6539988
 107.5020012  76.0284997  26.7329988 107.7502321  76.8267867  26.4915079
 109.1300012  76.9624997  22.2959988 108.4280012  77.5774997  22.0869988
 108.6860012  76.1244997  22.4269988 108.9736330  76.9335783  22.2850328
  96.3780012  92.7254997  21.8429988  95.6930012  92.6874997  21.1749988
  96.3820012  93.6384997  22.1309988  96.2848193  92.8437016  21.7905284
  98.3380012  78.6934997  19.3869988  98.8300012  78.0634997  18.8599988
  98.9620012  78.9894997  20.0509988  98.4895446  78.6473199  19.4045980
 103.3640012  78.9864997  21.8439988 103.5420012  78.3404997  22.5269988
 103.3110012  79.8204997  22.3119988 103.3811829  79.0107985  22.0005940
 105.2430012  93.9354997  20.2399988 106.1090012  94.3014997  20.0619988
 104.9960012  93.4954997  19.4259988 105.3282392  93.9261756  20.1056289
 111.9520012  93.4984997  22.9189988 111.7570012  92.7504997  22.3539988
 111.9130012  94.2564997  22.3359988 111.9200380  93.4986099  22.7628384
  98.1960012  93.6454997  18.8679988  97.9290012  93.9324997  19.7409988
  98.9680012  93.0994997  19.0199988  98.2637488  93.6110294  19.0081050
 107.9930012  76.1764997  36.3769988 108.0700012  75.7504997  37.2309988
 108.8870012  76.1904997  36.0339988 108.1243428  76.1200879  36.4475310
 111.1690012  92.2494997  35.0689988 110.3870012  92.0634997  34.5499988
 111.0970012  93.1784997  35.2869988 111.0521777  92.3496492  35.0274048
 125.5750012  86.1354997  25.0999988 125.6640012  87.0794997  24.9679988
 124.9370012  85.8604997  24.4419988 125.5009081  86.2274830  24.9929614
 124.5080012  85.3904997  28.5189988 124.4700012  84.7444997  29.2239988
 124.1860012  84.9244997  27.7479988 124.4592333  85.2389408  28.5112978
 116.8770012  85.0054997  30.1119988 116.9180012  84.3794997  30.8349988
 117.5800012  85.6294997  30.2939988 116.9776363  85.0041196  30.2356044
 128.2140012  88.3294997  26.8199988 127.7740012  87.6094997  27.2709988
 128.2010012  89.0504997  27.4499988 128.1520226  88.3283731  26.9668494
 117.8000012  89.4554997  28.6469988 117.4310012  88.6534997  28.2769988
 118.7410012  89.2864997  28.6929988 117.8767289  89.3230153  28.6026316
 114.4100012  83.1154997  24.0399988 113.9630012  83.9614997  24.0209988
 113.8490012  82.5354997  23.5239988 114.2729900  83.1529916  23.9676801
 115.1210012  85.2774997  26.1659988 115.3340012  84.5074997  26.6929988
 115.8590012  85.3664997  25.5619988 115.2498496  85.1841394  26.1565300
 125.3260012  93.4344997  27.0329988 125.9460012  92.7574997  26.7589988
 125.1180012  93.2164997  27.9409988 125.3826904  93.3123870  27.1183365
 122.8980012  87.8234997  28.9249988 123.2020012  87.1374997  28.3299988
 123.6190012  87.9414997  29.5429988 123.0370671  87.7456304  28.9271816
 131.5610012  79.4244997  29.7859988 131.6100012  80.0344997  30.5219988
 131.9860012  79.8854997  29.0629988 131.6251824  79.5703741  29.7890205
 126.0390012  82.2174997  29.2529988 126.1810012  81.2714997  29.2729988
 125.9320012  82.4244997  28.3239988 126.0439864  82.1159534  29.1302339
 119.1930012  80.3184997  26.5249988 119.2370012  81.1784997  26.1069988
 118.7360012  79.7664997  25.8909988 119.1372185  80.3615799  26.3820299
 126.9160012  80.4494997  24.9259988 127.5620012  80.1204997  25.5509988
 127.4260012  80.9674997  24.3029988 127.0734264  80.4744611  24.9273862
 115.8140012  82.7154997  27.2869988 116.4670012  82.1654997  27.7189988
 115.8380012  82.4414997  26.3699988 115.9066683  82.6031466  27.2222123
 120.9700012  84.2654997  26.5019988 121.5860012  83.7394997  27.0119988
 120.3840012  83.6254997  26.0989988 120.9750810  84.1069208  26.5173173
 131.9520012  80.9024997  32.0219988 131.2640012  81.5604997  31.9259988
 131.9680012  80.7054997  32.9579988 131.8598525  80.9660462  32.1354808
 118.0040012  79.2364997  30.5989988 117.7850012  79.7664997  29.8329988
 117.3360012  79.4634997  31.2459988 117.8837600  79.3396906  30.5816379
 125.3730012  88.7364997  24.1429988 125.0770012  88.4144997  23.2919988
 125.0480012  89.6364997  24.1839988 125.2886371  88.8140215  24.0321801
 120.5730012  86.9124997  30.8859988 119.8330012  87.5104997  30.9899988
 121.2870012  87.4664997  30.5709988 120.5682237  87.0692831  30.8576465
 128.6800012  79.7404997  26.9059988 128.4640012  78.9744997  27.4389988
 129.3350012  80.2124997  27.4189988 128.7390632  79.6995889  27.0482861
 117.5970012  81.1284997  28.5509988 118.2110012  81.7614997  28.9249988
 118.1090012  80.6564997  27.8949988 117.7502296  81.1512370  28.5134252
 118.9800012  88.8764997  31.6739988 118.9750012  89.7564997  31.2959988
 118.1270012  88.7934997  32.0989988 118.8639464  88.9856117  31.6797907
 115.1010012  88.5474997  22.4559988 114.8290012  88.7764997  21.5669988
 115.1470012  89.3854997  22.9159988 115.0700094  88.6921213  22.3965697
 128.7260012  90.1694997  29.1679988 127.7850012  90.2274997  29.3299988
 129.0030012  91.0754997  29.0309988 128.6344679  90.2999443  29.1716815
 129.0270012  78.4554997  30.5859988 128.2910012  79.0664997  30.5479988
 129.7100012  78.8704997  30.0589988 129.0186541  78.5951374  30.5095832
 122.0300012  76.5424997  28.0519988 121.9130012  75.5934997  27.9969988
 121.1750012  76.8744997  28.3249988 121.8983733  76.4575409  28.0813897
 126.9780012  91.9504997  25.7939988 127.4040012  91.2434997  25.3089988
 127.2950012  92.7514997  25.3769988 127.0791019  91.9620994  25.6713130
 128.1380012  89.8514997  24.3019988 127.8800012  89.1614997  23.6909988
 128.2090012  89.4084997  25.1479988 128.1122856  89.6972124  24.3326885
 129.8240012  88.4174997  32.7799988 129.9640012  87.8264997  32.0399988
 129.9910012  89.2904997  32.4229988 129.8656778  88.4546426  32.6306965
 124.2970012  85.3794997  22.5519988 123.5850012  85.9144997  22.1999988
 124.9880012  85.4354997  21.8919988 124.2930132  85.4602543  22.4146289
 124.3500012  83.8374997  19.5909988 125.0510012  83.8594997  20.2419988
 124.6530012  83.2094997  18.9349988 124.4867830  83.7556566  19.5913711
 131.6660012  84.7574997  30.8459988 131.0130012  85.4524997  30.9349988
 132.1310012  84.9674997  30.0359988 131.6395390  84.8809425  30.7486883
 127.7020012  85.5894997  23.5039988 126.9700012  85.8174997  24.0769988
 128.1500012  84.8754997  23.9589988 127.6623095  85.5242571  23.6439119
 127.6000012  83.7634997  32.5709988 127.6800012  84.5264997  33.1429988
 126.9980012  84.0424997  31.8809988 127.5295756  83.9057134  32.5560589
 119.3480012  86.2194997  25.3859988 119.0170012  85.8494997  24.5679988
 119.9360012  85.5494997  25.7329988 119.3821873  86.0781156  25.3208102
 120.7140012  89.6474997  28.0679988 120.6200012  89.0694997  27.3109988
 121.4440012  89.2764997  28.5639988 120.7997981  89.5182390  28.0314165
 119.7140012  84.9884997  29.0199988 120.2800012  85.1094997  28.2569988
 120.0330012  85.6254997  29.6589988 119.8345786  85.0911884  29.0020040
 126.0230012  90.4914997  29.7539988 125.7830012  91.1534997  30.4019988
 125.8250012  89.6574997  30.1789988 125.9633808  90.4693134  29.9001524
 120.5940012  89.3874997  33.7369988 120.2830012  90.1694997  34.1919988
 119.9440012  89.2344997  33.0509988 120.4635558  89.4739105  33.7065871
 126.5730012  84.7514997  21.1889988 127.1530012  84.9014997  21.9359988
 126.9870012  85.2224997  20.4659988 126.7082830  84.8356841  21.1934134
 117.5140012  85.5854997  32.9659988 117.5850012  86.2364997  33.6639988
 116.6240012  85.6884997  32.6309988 117.4033117  85.6885936  33.0162700
 124.3000012  91.4884997  24.6239988 124.7740012  91.7834997  25.4019988
 123.7370012  92.2264997  24.3909988 124.2887653  91.6286932  24.6990136
 118.8340012  91.4594997  34.4999988 118.8410012  91.3234997  33.5529988
 117.9180012  91.3414997  34.7519988 118.7111714  91.4249430  34.4044666
 130.2720012  76.5014997  21.0019988 129.3720012  76.6404997  21.2969988
 130.5240012  77.3324997  20.5999988 130.1828702  76.6329074  20.9880205
 118.3380012  85.2894997  22.9759988 118.0460012  86.0574997  22.4849988
 117.6640012  84.6294997  22.8129988 118.2069081  85.3054406  22.8867340
 131.4610012  90.8674997  19.3779988 131.5350012  91.8064997  19.5489988
 132.3670012  90.5624997  19.3219988 131.5935100  90.9546722  19.3938119
 114.4310012  87.6524997  31.7909988 113.9300012  87.6244997  30.9759988
 114.4360012  86.7464997  32.0999988 114.3631526  87.5262278  31.7212872
 114.1810012  90.4324997  28.6749988 115.1270012  90.2884997  28.6559988
 114.0690012  91.2164997  29.2119988 114.2952727  90.5188046  28.7450072
 132.3790012  91.0984997  34.3569988 132.3300012  90.1434997  34.3199988
 131.5520012  91.3664997  34.7579988 132.2604940  91.0038998  34.4061375
 123.3580012  90.6724997  33.2329988 123.4450012  91.4984997  33.7079988
 122.4940012  90.3424997  33.4819988 123.2531964  90.7409878  33.3316549
 123.7720012  94.4444997  23.0389988 123.6970012  94.3234997  22.0929988
 123.8050012  95.3944997  23.1579988 123.7661848  94.5562500  22.9254834
 117.4250012  93.2334997  24.8199988 117.5780012  92.8854997  25.6989988
 116.5750012  92.8774997  24.5649988 117.3308962  93.1376650  24.9058340
 126.8740012  93.5984997  20.0409988 127.2490012  92.8544997  19.5709988
 126.8780012  93.3284997  20.9599988 126.9258915  93.4601486  20.1007824
 126.5430012  93.5244997  22.7909988 125.6070012  93.6244997  22.9689988
 126.8230012  92.8154997  23.3689988 126.4528255  93.4422711  22.8935391
 129.5310012  82.5914997  34.8369988 129.1240012  83.0724997  34.1159988
 129.5720012  81.6864997  34.5289988 129.4808437  82.5349374  34.6966683
 116.6800012  88.9754997  32.8339988 116.8960012  88.6144997  33.6929988
 115.8250012  88.6014997  32.6239988 116.5939292  88.8754111  32.9233386
 119.2990012  77.4454997  28.8289988 118.4370012  77.3584997  28.4219988
 119.2760012  78.3014997  29.2569988 119.1780330  77.5492765  28.8311863
 123.9620012  77.1674997  32.2039988 124.3820012  76.7524997  32.9569988
 123.0290012  76.9894997  32.3209988 123.8933644  77.0865900  32.3229539
 127.2880012  80.9234997  33.0569988 126.7740012  80.7974997  33.8549988
 127.1330012  81.8354997  32.8129988 127.1966852  81.0296132  33.1332158
 128.0510012  85.7844997  18.8189988 128.0930012  85.5614997  17.8889988
 128.9000012  86.1834997  19.0089988 128.1715396  85.8079155  18.7173627
 123.6230012  79.6604997  19.4889988 123.3700012  79.6794997  20.4119988
 123.3670012  78.7884997  19.1879988 123.5537790  79.5452437  19.5746263
 119.3900012  82.4114997  29.9239988 118.7480012  82.3704997  30.6329988
 119.4270012  83.3374997  29.6869988 119.3071324  82.5311559  29.9889824
 119.3870012  82.6324997  24.8359988 118.4940012  82.2914997  24.7779988
 119.8370012  82.2554997  24.0809988 119.3257305  82.5348484  24.7259177
 124.9220012  83.0484997  23.6529988 124.5130012  83.8634997  23.3619988
 125.6430012  82.9084997  23.0389988 124.9634537  83.1412018  23.5301342
 124.0240012  83.2234997  35.1409988 123.4620012  82.5194997  35.4619988
 124.8510012  83.1034997  35.6089988 124.0587095  83.1107883  35.2482330
 125.9270012  82.4944997  26.4669988 125.7320012  83.0994997  25.7519988
 126.1080012  81.6604997  26.0329988 125.9247614  82.4646300  26.3104405
 117.1400012  82.7314997  31.7909988 117.1020012  83.1314997  32.6599988
 116.6490012  81.9144997  31.8819988 117.0684684  82.6758069  31.9221059
 120.5060012  80.1054997  18.5899988 120.0750012  79.6604997  19.3199988
 119.7880012  80.4774997  18.0779988 120.3499438  80.0948940  18.6206799
 113.7480012  79.8474997  25.6419988 114.3790012  79.8184997  26.3609988
 114.1970012  79.4224997  24.9119988 113.8950774  79.7860492  25.6416553
 115.0220012  80.5934997  21.0659988 115.4960012  81.1844997  20.4809988
 114.3050012  81.1244997  21.4129988 114.9899341  80.7460867  21.0328836
 125.1910012  84.1324997  31.1389988 125.5140012  83.5014997  30.4959988
 124.7510012  83.5974997  31.7989988 125.1756895  83.9738441  31.1402850
 121.9680012  80.0594997  25.9229988 121.0570012  80.1164997  26.2109988
 122.4740012  79.9994997  26.7329988 121.9115413  80.0591985  26.0720622
 116.7970012  81.6884997  24.7489988 115.9070012  81.7884997  24.4089988
 117.0930012  80.8464997  24.4029988 116.7152823  81.5883545  24.6557213
 120.4500012  81.6884997  22.4059988 121.3810012  81.8174997  22.5839988
 120.2350012  82.3584997  21.7559988 120.5484247  81.7966565  22.3425747
 126.3730012  79.2944997  29.1869988 125.6970012  79.4254997  29.8509988
 125.8880012  79.1394997  28.3769988 126.2147145  79.2914905  29.1684517
 119.1240012  82.8834997  19.9729988 118.5810012  82.5034997  19.2809988
 119.9570012  83.0774997  19.5439988 119.1624399  82.8578124  19.8204526
 129.6610012  94.9664997  35.4639988 129.8610012  95.3904997  34.6289988
 130.3160012  95.3094997  36.0709988 129.7770051  95.0709648  35.4317836
 117.2590012  87.4404997  35.0719988 117.9910012  87.6944997  35.6329988
 116.4790012  87.6444997  35.5869988 117.2538232  87.5029177  35.2185760
 123.2880012  82.8474997  27.8099988 123.8530012  82.3004997  27.2629988
 123.1410012  82.3254997  28.5979988 123.3452918  82.7022024  27.8418454
 118.2900012  78.9834997  24.2279988 117.9730012  78.0814997  24.1929988
 119.0720012  78.9854997  23.6749988 118.3522284  78.8601628  24.1484783
 121.9150012  81.2354997  30.2239988 121.0790012  81.6894997  30.3339988
 122.4390012  81.5114997  30.9759988 121.8714414  81.3349376  30.3407136
 122.4590012  87.4484997  21.9079988 121.7140012  86.9414997  21.5859988
 122.3250012  87.4974997  22.8549988 122.3388776  87.3856940  21.9918647
 129.6090012  86.5814997  30.6949988 130.2510012  87.0384997  30.1509988
 128.7790012  86.6944997  30.2319988 129.5845963  86.6592704  30.5580177
 126.3570012  80.2624997  20.1079988 125.4180012  80.3744997  19.9559988
 126.6540012  81.1194997  20.4139988 126.2687666  80.3936443  20.1285768
 123.9780012  87.6324997  33.1449988 123.6330012  87.2514997  33.9519988
 123.7780012  88.5664997  33.2169988 123.9038061  87.7065228  33.2650961
 127.0750012  82.1294997  21.7679988 127.9670012  81.9924997  22.0869988
 127.1320012  82.9204997  21.2319988 127.2046285  82.2176660  21.7391691
 117.5840012  86.7434997  27.6779988 118.3290012  86.7414997  27.0769988
 117.6620012  85.9204997  28.1599988 117.6965518  86.6319315  27.6608929
 124.5850012  88.9074997  20.9339988 124.2890012  89.7334997  21.3149988
 123.8820012  88.2874997  21.1299988 124.4494914  88.9368199  21.0126443
 114.5920012  85.2044997  32.9929988 114.8150012  84.7864997  33.8249988
 113.9900012  84.5914997  32.5699988 114.5411759  85.0644668  33.0497022
 121.6080012  84.7214997  35.2059988 121.3120012  84.5554997  34.3109988
 122.5400012  84.5014997  35.1949988 121.6934166  84.6690640  35.0820536
 126.2290012  90.0944997  33.0959988 125.3280012  90.2774997  32.8279988
 126.2630012  90.3534997  34.0169988 126.1103041  90.1545512  33.1838197
 131.9600012  82.3394997  21.4629988 131.4060012  81.9434997  20.7909988
 132.0600012  83.2494997  21.1849988 131.8977059  82.4083586  21.3334401
 131.9230012  88.1394997  34.2999988 131.0720012  88.3774997  33.9329988
 132.5140012  88.1224997  33.5469988 131.8862487  88.1698258  34.1478893
 130.2550012  91.1254997  21.9279988 129.8820012  90.2994997  22.2369988
 130.5330012  90.9424997  21.0309988 130.2415630  90.9877303  21.8489626
 127.4160012  85.9334997  28.9489988 126.4870012  85.7014997  28.9219988
 127.8670012  85.1564997  28.6189988 127.3499216  85.7967238  28.9006917
 119.9590012  90.2614997  25.0819988 120.4860012  91.0344997  24.8819988
 119.0790012  90.4864997  24.7809988 119.9121773  90.3978005  25.0139010
 115.7140012  85.1234997  19.6689988 116.3300012  85.7504997  20.0489988
 114.8520012  85.4394997  19.9409988 115.6817698  85.2519430  19.7577183
 121.3860012  87.9244997  24.6589988 121.1450012  88.8494997  24.6999988
 120.6450012  87.4654997  25.0549988 121.2528409  87.9891421  24.7181377
 121.9010012  92.0734997  30.9739988 122.2630012  92.9284997  30.7399988
 122.4320012  91.7814997  31.7139988 122.0224473  92.1511060  31.0420855
 120.0690012  92.9464997  24.2039988 119.1190012  93.0514997  24.2549988
 120.4210012  93.7664997  24.5489988 119.9864203  93.0718314  24.2576650
 125.4450012  88.1724997  30.6739988 125.0190012  87.9454997  31.5009988
 126.0250012  87.4344997  30.4919988 125.4651868  88.0415299  30.7625830
 127.6480012  89.1014997  19.7479988 128.0010012  88.7214997  20.5529988
 126.6990012  89.0084997  19.8349988 127.5680441  89.0369596  19.8698559
 128.1030012  92.7244997  33.1439988 127.5020012  92.1694997  32.6479988
 128.3850012  93.3914997  32.5179988 128.0588519  92.7386841  32.9914952
 132.1510012  93.5814997  19.9489988 132.8950012  94.1674997  19.8089988
 131.4570012  94.1494997  20.2829988 132.1590292  93.7385582  19.9749961
 116.2260012  79.9574997  32.5509988 115.3330012  80.2964997  32.4829988
 116.1270012  79.1024997  32.9689988 116.0904164  79.8882588  32.5982235
 128.5140012  87.7744997  21.9749988 128.2360012  87.0464997  22.5309988
 129.4410012  87.8934997  22.1799988 128.6013124  87.6908802  22.0788845
 115.8770012  91.7624997  30.9859988 116.0940012  90.8304997  30.9549988
 116.1230012  92.0364997  31.8689988 115.9399549  91.6720636  31.1011763
 121.7390012  90.2134997  18.1949988 121.9780012  89.4654997  17.6479988
 121.4700012  89.8254997  19.0279988 121.7353675  90.0586638  18.2326865
 120.6760012  89.7834997  20.6519988 120.8220012  89.2634997  21.4419988
 120.6730012  90.6904997  20.9579988 120.6955989  89.8348853  20.8016088
 117.1290012  87.0364997  21.1619988 116.4430012  87.3884997  21.7289988
 117.6510012  87.7994997  20.9149988 117.1056852  87.1878578  21.2062118
 124.9600012  79.6984997  31.4409988 125.6590012  79.7724997  32.0909988
 124.5790012  78.8344997  31.5949988 125.0041767  79.5917624  31.5508322
 125.7450012  79.3504997  22.5379988 125.9650012  79.8224997  21.7349988
 126.3030012  79.7454997  23.2079988 125.8504968  79.4684285  22.5187331
 123.4130012  91.4814997  21.4009988 122.5970012  91.9784997  21.4529988
 123.9430012  91.9564997  20.7609988 123.3729161  91.6137722  21.3215956
 122.9450012  81.0784997  23.3729988 123.7570012  81.5834997  23.4189988
 122.7000012  80.9334997  24.2869988 123.0230520  81.1280375  23.5028517
 123.4800012  82.0644997  32.5579988 123.5990012  82.6384997  33.3149988
 124.1360012  81.3764997  32.6719988 123.5849757  82.0501079  32.6770825
 123.8280012  78.1594997  24.3109988 123.4820012  78.7774997  24.9559988
 124.4870012  78.6604997  23.8299988 123.8697826  78.3115802  24.3340971
 120.7520012  92.5254997  21.3829988 120.9120012  93.3244997  20.8819988
 120.5540012  92.8314997  22.2679988 120.7471649  92.6764469  21.4339815
 119.4860012  79.2224997  20.9979988 119.4030012  80.1114997  21.3449988
 120.3760012  78.9574997  21.2299988 119.5949469  79.3081430  21.0767626
 129.6850012  79.9714997  33.3929988 128.7680012  80.2344997  33.3049988
 130.0200012  79.9684997  32.4959988 129.6049900  80.0070224  33.2597919
 128.2870012  83.7224997  27.4879988 127.4890012  83.3074997  27.1599988
 128.7320012  83.0314997  27.9789988 128.2379885  83.5723543  27.5094889
 117.7450012  89.6504997  20.0589988 118.3370012  90.3494997  20.3349988
 118.2040012  89.2174997  19.3389988 117.8881142  89.6877049  19.9994830
 116.0610012  82.3144997  19.1749988 116.0160012  83.2534997  19.3529988
 115.1730012  82.0784997  18.9049988 115.9348574  82.4111892  19.1628912
 129.3730012  92.9784997  29.1109988 129.2180012  93.6564997  28.4539988
 130.3060012  93.0504997  29.3139988 129.4778500  93.0810170  29.0485119
 116.8690012  77.0964997  27.8479988 116.6400012  77.1554997  26.9199988
 116.4260012  76.3044997  28.1539988 116.7778530  76.9975753  27.7624786
 115.7990012  91.0364997  24.0079988 114.9670012  91.5094997  24.0359988
 116.3450012  91.5464997  23.4099988 115.7589739  91.1701871  23.9309716
 115.0870012  93.6494997  35.3379988 115.6280012  93.4324997  36.0979988
 114.6060012  92.8434997  35.1489988 115.0959345  93.5109514  35.4163076
 119.6850012  92.5684997  36.9589988 120.4520012  92.1094997  37.2999988
 119.6630012  92.3424997  36.0289988 119.7871434  92.4750409  36.8800043
 123.7770012  92.0764997  18.3339988 123.1330012  91.4454997  18.6549988
 124.5390012  91.5454997  18.1019988 123.7918077  91.9182920  18.3466011
 126.2620012  90.9484997  35.6879988 125.9110012  90.0924997  35.9309988
 126.9880012  91.0914997  36.2949988 126.3120769  90.8505636  35.8033619
 128.3810012  91.8934997  18.5679988 128.6640012  91.0994997  19.0199988
 129.1210012  92.1264997  18.0069988 128.5197486  91.8162803  18.5540698
 114.9940012  87.4594997  36.2929988 115.1380012  86.5574997  36.0059988
 114.2220012  87.7454997  35.8049988 114.9093322  87.3748261  36.1877881
 119.3360012  87.8034997  18.4249988 119.4000012  87.0094997  18.9559988
 119.9890012  87.6844997  17.7349988 119.4330241  87.6787148  18.4044317
 121.6500012  87.4294997  35.7249988 121.3210012  87.7004997  34.8679988
 121.8020012  86.4884997  35.6379988 121.6254809  87.3393862  35.5958244
 124.6880012  88.8504997  18.1609988 124.4190012  89.0304997  19.0619988
 124.4820012  87.9244997  18.0299988 124.6233825  88.7500152  18.2665214
 127.3840012  87.3454997  33.1089988 128.1300012  87.9334997  32.9889988
 126.6270012  87.9274997  33.1719988 127.3837554  87.5047011  33.1010907
 115.8270012  84.6594997  35.7129988 116.2350012  83.8024997  35.5919988
 115.5670012  84.6744997  36.6339988 115.8477568  84.5440807  35.8209588
 120.4850012  85.7754997  20.7309988 120.0250012  85.2914997  21.4169988
 120.7400012  85.1074997  20.0949988 120.4564902  85.6188731  20.7389334
 119.7740012  83.6684997  33.0869988 119.1560012  84.3434997  33.3669988
 120.1180012  83.9894997  32.2539988 119.7359615  83.8042721  33.0126581
 121.5560012  84.0184997  18.9929988 121.3760012  83.8644997  18.0659988
 122.5060012  84.1264997  19.0379988 121.6597776  84.0120175  18.8721843
 124.7940012  86.1404997  36.3639988 125.7470012  86.2234997  36.3369988
 124.6330012  85.4284997  36.9839988 124.9026426  86.0556746  36.4440579
 130.9460012  86.3734997  18.4389988 130.6720012  85.9484997  17.6259988
 130.9850012  87.3044997  18.2219988 130.9137699  86.4412484  18.2983610
 120.1130012  81.0234997  34.1689988 120.2630012  80.2944997  33.5669988
 120.1160012  81.8004997  33.6099988 120.1339302  81.0287851  34.0110692
 120.5260012  79.3934997  31.6619988 121.0620012  79.8444997  31.0099988
 119.6740012  79.2854997  31.2389988 120.4842178  79.4406390  31.5155756
 122.1080012  84.8324997  31.9009988 122.8580012  84.6764997  31.3279988
 121.7690012  85.6844997  31.6259988 122.1648921  84.9262968  31.7853561
 126.5230012  82.6474997  36.9299988 126.7160012  81.7164997  36.8179988
 127.3810012  83.0724997  36.9199988 126.6653020  82.5776389  36.9133361
 127.8400012  85.4364997  35.0069988 127.5590012  86.1454997  34.4299988
 128.7830012  85.3634997  34.8559988 127.9289027  85.5237646  34.9075551
 118.5920012  82.2214997  36.0809988 117.8250012  81.6894997  35.8709988
 119.2710012  81.9114997  35.4809988 118.5787022  82.1067506  35.9711648
 121.3320012  76.8494997  32.0929988 121.2330012  77.7964997  31.9879988
 120.5890012  76.4774997  31.6179988 121.2180564  76.9285902  32.0144560
 122.5960012  81.1714997  35.6569988 122.3600012  80.9514997  36.5589988
 121.8120012  80.9644997  35.1469988 122.4578628  81.1134760  35.7113932
 125.3110012  80.2984997  34.7329988 124.3640012  80.3304997  34.8649988
 125.6240012  79.6734997  35.3859988 125.2235475  80.2183207  34.8394455
 126.9450012  78.9324997  36.7379988 126.8490012  77.9804997  36.7319988
 126.6240012  79.2014997  37.5979988 126.8884070  78.8384035  36.8535441
 116.7720012  80.1424997  35.7849988 116.9840012  79.4354997  35.1749988
 116.6610012  79.7044997  36.6289988 116.7859721  79.9867084  35.8156843
 121.5530012  76.1434997  34.7649988 122.2650012  75.5034997  34.7509988
 121.4520012  76.4104997  33.8509988 121.6367939  76.0919938  34.6395650
 121.9070012  77.8264997  36.8179988 121.7750012  77.3504997  35.9979988
 121.3080012  78.5704997  36.7629988 121.8079071  77.8619618  36.6982886
 121.4530012  94.7094997  19.9949988 122.3860012  94.8674997  20.1379988
 121.1890012  95.3844997  19.3699988 121.5449510  94.8223611  19.9300741
 115.0220012  89.3454997  19.4769988 115.9360012  89.4244997  19.7509988
 115.0290012  88.6584997  18.8109988 115.1481131  89.2633961  19.4244393
 113.6710012  94.7384997  24.5549988 113.0240012  94.2764997  24.0219988
 114.0250012  94.0664997  25.1369988 113.6303849  94.5844723  24.5607959
 114.5410012  92.8194997  26.3589988 114.2060012  91.9394997  26.5309988
 114.7630012  93.1644997  27.2239988 114.5251783  92.7457500  26.4994208
 132.0890012  93.6284997  29.3399988 132.0680012  93.8134997  30.2789988
 132.7800012  94.1974997  28.9989988 132.1794618  93.7306606  29.4223864
 131.6530012  93.1964997  32.2619988 131.1650012  92.4604997  31.8909988
 132.2020012  92.8024997  32.9399988 131.6604872  93.0426249  32.3029160
 130.1030012  88.9854997  36.8999988 129.2370012  88.8804997  37.2939988
 130.4800012  89.7444997  37.3459988 130.0353308  89.0736900  37.0142393
 131.4040012  87.2424997  22.4139988 132.2540012  87.6634997  22.5409988
 131.4100012  86.5024997  23.0209988 131.5211372  87.2000803  22.5134344
 131.7990012  85.2954997  24.2379988 131.0720012  84.8164997  24.6349988
 132.3800012  85.5014997  24.9699988 131.7779375  85.2577090  24.3914129
 131.5580012  88.0804997  29.1849988 132.3910012  87.7024997  28.9049988
 131.6700012  89.0234997  29.0659988 131.6872647  88.1562218  29.1305487
 130.0440012  90.9584997  31.4919988 129.3970012  91.2834997  32.1179988
 129.5270012  90.5184997  30.8179988 129.8854029  90.9435004  31.4865827
 132.0670012  85.1964997  20.6289988 131.5450012  85.5534997  19.9099988
 132.0340012  85.8714997  21.3069988 131.9911634  85.3365413  20.6223145
 130.4160012  82.4364997  19.1799988 130.5120012  83.1034997  18.4989988
 130.2760012  81.6204997  18.6979988 130.4102135  82.4174500  19.0218491
 129.5850012  83.8164997  24.8009988 129.4350012  82.8714997  24.7799988
 129.2320012  84.0974997  25.6439988 129.5166625  83.7250441  24.9122346
 114.6210012  85.8944997  28.8109988 114.8050012  85.8124997  27.8749988
 115.4700012  85.7704997  29.2349988 114.7610139  85.8665003  28.7401455
 130.4420012  85.7864997  34.4389988 131.0250012  85.0524997  34.6309988
 131.0060012  86.5584997  34.4859988 130.5979769  85.7904227  34.4716159
 131.9380012  83.6894997  35.1239988 131.0750012  83.3104997  34.9579988
 132.5430012  82.9504997  35.0499988 131.9015979  83.5378023  35.0912817
 129.6630012  79.8444997  18.2969988 130.2740012  79.4734997  18.9339988
 128.8270012  79.4234997  18.4929988 129.6335032  79.7367554  18.4107035
 129.2960012  81.3994997  23.2629988 129.5760012  80.4924997  23.3869988
 130.0550012  81.8334997  22.8739988 129.4369277  81.3340942  23.2273682
 129.9080012  81.9804997  28.6989988 130.8410012  82.1924997  28.6649988
 129.6730012  82.0824997  29.6209988 130.0038036  82.0232769  28.8189976
 129.9370012  82.7174997  31.4749988 129.0940012  82.9854997  31.8409988
 130.3790012  83.5394997  31.2639988 129.8814158  82.8653291  31.4965491
 114.2180012  81.1654997  34.9519988 115.1380012  81.0434997  35.1879988
 113.7690012  80.4154997  35.3409988 114.2831580  81.0473727  35.0369006
 132.2200012  76.6974997  36.8279988 132.5700012  76.0434997  36.2229988
 132.3670012  77.5344997  36.3889988 132.2878419  76.7211591  36.6857118
 129.9090012  78.6624997  23.3109988 130.0920012  78.2134997  24.1369988
 129.3100012  78.0774997  22.8479988 129.8530202  78.5219975  23.3613275
 115.4390012  79.4774997  27.8429988 115.8850012  78.6854997  28.1449988
 115.9060012  80.1934997  28.2739988 115.5630172  79.4660624  27.9424820
 113.7430012  82.4764997  28.9119988 114.2350012  82.2554997  28.1209988
 114.1060012  83.3174997  29.1929988 113.8593126  82.5598357  28.8417531
 131.7400012  78.8064997  35.1779988 130.8220012  79.0774997  35.1419988
 131.8630012  78.2714997  34.3929988 131.6311066  78.7712892  35.0670487
 131.7760012  78.7294997  19.8389988 132.1880012  78.0084997  19.3639988
 132.4580012  79.3994997  19.8979988 131.9245885  78.7212368  19.7818915
 114.0570012  78.7344997  22.9659988 113.1320012  78.9434997  22.8369988
 114.5110012  79.2184997  22.2769988 113.9917368  78.8285993  22.8551226
 128.8280012  93.7184997  24.9119988 129.4800012  93.3714997  24.3039988
 129.3380012  94.2074997  25.5579988 128.9862637  93.7370597  24.9160236
 114.0210012  77.4724997  31.3109988 113.3560012  77.2264997  31.9539988
 113.5780012  78.0944997  30.7329988 113.8700956  77.5228632  31.3209352
 116.2130012  90.6474997  35.4549988 115.3920012  90.8224997  34.9949988
 115.9600012  90.5744997  36.3759988 116.0666164  90.6615622  35.5164923
 119.1670012  91.6224997  31.7139988 118.7420012  92.4314997  31.4309988
 120.0710012  91.7074997  31.4119988 119.2310271  91.7448469  31.6343776
 123.4780012  93.0214997  34.6729988 123.6630012  92.6874997  35.5509988
 124.3240012  93.3304997  34.3509988 123.6177539  93.0176047  34.7495605
 125.8230012  94.3074997  33.9169988 126.5000012  93.6744997  33.6769988
 126.1450012  94.7084997  34.7239988 125.9591637  94.2751154  33.9932793
 130.7400012  76.8964997  32.9969988 129.9280012  77.2214997  32.6089988
 130.9730012  76.1364997  32.4639988 130.6603423  76.8382436  32.8718253
 116.5690012  94.8784997  31.7609988 115.8480012  95.3184997  31.3099988
 116.2030012  94.6274997  32.6099988 116.4209804  94.9047698  31.8139840
 119.0360012  94.4784997  30.7909988 118.1710012  94.5504997  31.1949988
 118.9810012  95.0254997  30.0069988 118.9102085  94.5622685  30.7403362
 123.7460012  94.3664997  29.9659988 123.2900012  94.8954997  29.3119988
 123.9090012  94.9694997  30.6919988 123.7055585  94.5204468  29.9745062
 126.0740012  93.2444997  30.9109988 125.1690012  93.4094997  30.6459988
 126.5030012  94.0974997  30.8459988 126.0080799  93.3824483  30.8659182
 128.6780012  94.8144997  31.2059988 128.4960012  95.7304997  30.9959988
 128.8550012  94.4044997  30.3599988 128.6770210  94.8844822  31.0627885
 115.9830012  93.5014997  28.6709988 115.9650012  93.0764997  29.5289988
 116.7880012  93.1834997  28.2629988 116.0893875  93.4003812  28.7331655
 118.1250012  92.2114997  27.3259988 117.9060012  91.2954997  27.4959988
 118.9490012  92.3514997  27.7919988 118.2064420  92.1050520  27.4122774
 120.6620012  92.6814997  28.1749988 120.8750012  91.7934997  27.8879988
 120.7260012  92.6474997  29.1289988 120.6998232  92.5553102  28.2647397
 124.1700012  78.3454997  27.3189988 123.4960012  77.7164997  27.5749988
 124.7340012  77.8614997  26.7159988 124.1539230  78.1938744  27.2725340
 129.3130012  76.4534997  27.4319988 129.9170012  77.0004997  26.9299988
 128.4430012  76.7724997  27.1919988 129.2781241  76.5715806  27.3307654
 131.0400012  77.5914997  25.7649988 131.6520012  77.0774997  25.2389988
 131.4220012  78.4694997  25.7889988 131.1754540  77.6397140  25.6961830
 116.4970012  76.9794997  25.1409988 115.7200012  76.7454997  24.6339988
 117.0270012  76.1824997  25.1499988 116.4622330  76.8396988  25.0727742
 115.3330012  76.7774997  20.9449988 115.7720012  77.3884997  20.3529988
 114.7000012  77.3154997  21.4189988 115.3074514  76.9339257  20.9280930
 121.0760012  76.9064997  24.9549988 121.9510012  77.2944997  24.9249988
 120.9400012  76.6914997  25.8769988 121.1773695  76.9305184  25.0756440
 126.6330012  76.9364997  26.6039988 126.7090012  77.0314997  25.6539988
 126.3580012  76.0284997  26.7329988 126.6062321  76.8267867  26.4915079
 127.9860012  76.9624997  22.2959988 127.2840012  77.5774997  22.0869988
 127.5420012  76.1244997  22.4269988 127.8296330  76.9335783  22.2850328
 115.2340012  92.7254997  21.8429988 114.5490012  92.6874997  21.1749988
 115.2380012  93.6384997  22.1309988 115.1408193  92.8437016  21.7905284
 117.1940012  78.6934997  19.3869988 117.6860012  78.0634997  18.8599988
 117.8180012  78.9894997  20.0509988 117.3455446  78.6473199  19.4045980
 122.2200012  78.9864997  21.8439988 122.3980012  78.3404997  22.5269988
 122.1670012  79.8204997  22.3119988 122.2371829  79.0107985  22.0005940
 124.0990012  93.9354997  20.2399988 124.9650012  94.3014997  20.0619988
 123.8520012  93.4954997  19.4259988 124.1842392  93.9261756  20.1056289
 130.8080012  93.4984997  22.9189988 130.6130012  92.7504997  22.3539988
 130.7690012  94.2564997  22.3359988 130.7760380  93.4986099  22.7628384
 116.4550012  77.4934997  34.6589988 116.0890012  76.7284997  35.1019988
 117.3680012  77.5224997  34.9459988 116.5282790  77.3927224  34.7584070
 118.4280012  76.8444997  36.1949988 119.3260012  76.5704997  36.0099988
 118.0410012  76.1014997  36.6589988 118.4986612  76.7065914  36.2323643
 117.0520012  93.6454997  18.8679988 116.7850012  93.9324997  19.7409988
 117.8240012  93.0994997  19.0199988 117.1197488  93.6110294  19.0081050
 126.8490012  76.1764997  36.3769988 126.9260012  75.7504997  37.2309988
 127.7430012  76.1904997  36.0339988 126.9803428  76.1200879  36.4475310
 130.0250012  92.2494997  35.0689988 129.2430012  92.0634997  34.5499988
 129.9530012  93.1784997  35.2869988 129.9081777  92.3496492  35.0274048
 144.4310012  86.1354997  25.0999988 144.5200012  87.0794997  24.9679988
 143.7930012  85.8604997  24.4419988 144.3569081  86.2274830  24.9929614
 143.3640012  85.3904997  28.5189988 143.3260012  84.7444997  29.2239988
 143.0420012  84.9244997  27.7479988 143.3152333  85.2389408  28.5112978
 135.7330012  85.0054997  30.1119988 135.7740012  84.3794997  30.8349988
 136.4360012  85.6294997  30.2939988 135.8336363  85.0041196  30.2356044
 136.6560012  89.4554997  28.6469988 136.2870012  88.6534997  28.2769988
 137.5970012  89.2864997  28.6929988 136.7327289  89.3230153  28.6026316
 133.2660012  83.1154997  24.0399988 132.8190012  83.9614997  24.0209988
 132.7050012  82.5354997  23.5239988 133.1289900  83.1529916  23.9676801
 133.9770012  85.2774997  26.1659988 134.1900012  84.5074997  26.6929988
 134.7150012  85.3664997  25.5619988 134.1058496  85.1841394  26.1565300
 144.1820012  93.4344997  27.0329988 144.8020012  92.7574997  26.7589988
 143.9740012  93.2164997  27.9409988 144.2386904  93.3123870  27.1183365
 141.7540012  87.8234997  28.9249988 142.0580012  87.1374997  28.3299988
 142.4750012  87.9414997  29.5429988 141.8930671  87.7456305  28.9271816
 144.8950012  82.2174997  29.2529988 145.0370012  81.2714997  29.2729988
 144.7880012  82.4244997  28.3239988 144.8999864  82.1159534  29.1302339
 138.0490012  80.3184997  26.5249988 138.0930012  81.1784997  26.1069988
 137.5920012  79.7664997  25.8909988 137.9932185  80.3615799  26.3820299
 134.6700012  82.7154997  27.2869988 135.3230012  82.1654997  27.7189988
 134.6940012  82.4414997  26.3699988 134.7626683  82.6031466  27.2222123
 139.8260012  84.2654997  26.5019988 140.4420012  83.7394997  27.0119988
 139.2400012  83.6254997  26.0989988 139.8310810  84.1069208  26.5173173
 136.8600012  79.2364997  30.5989988 136.6410012  79.7664997  29.8329988
 136.1920012  79.4634997  31.2459988 136.7397600  79.3396906  30.5816379
 144.2290012  88.7364997  24.1429988 143.9330012  88.4144997  23.2919988
 143.9040012  89.6364997  24.1839988 144.1446371  88.8140215  24.0321801
 139.4290012  86.9124997  30.8859988 138.6890012  87.5104997  30.9899988
 140.1430012  87.4664997  30.5709988 139.4242237  87.0692831  30.8576465
 136.4530012  81.1284997  28.5509988 137.0670012  81.7614997  28.9249988
 136.9650012  80.6564997  27.8949988 136.6062296  81.1512370  28.5134252
 137.8360012  88.8764997  31.6739988 137.8310012  89.7564997  31.2959988
 136.9830012  88.7934997  32.0989988 137.7199464  88.9856117  31.6797907
 133.9570012  88.5474997  22.4559988 133.6850012  88.7764997  21.5669988
 134.0030012  89.3854997  22.9159988 133.9260094  88.6921213  22.3965697
 140.8860012  76.5424997  28.0519988 140.7690012  75.5934997  27.9969988
 140.0310012  76.8744997  28.3249988 140.7543733  76.4575409  28.0813897
 143.1530012  85.3794997  22.5519988 142.4410012  85.9144997  22.1999988
 143.8440012  85.4354997  21.8919988 143.1490132  85.4602543  22.4146289
 143.2060012  83.8374997  19.5909988 143.9070012  83.8594997  20.2419988
 143.5090012  83.2094997  18.9349988 143.3427830  83.7556566  19.5913711
 138.2040012  86.2194997  25.3859988 137.8730012  85.8494997  24.5679988
 138.7920012  85.5494997  25.7329988 138.2381873  86.0781156  25.3208102
 139.5700012  89.6474997  28.0679988 139.4760012  89.0694997  27.3109988
 140.3000012  89.2764997  28.5639988 139.6557981  89.5182390  28.0314165
 138.5700012  84.9884997  29.0199988 139.1360012  85.1094997  28.2569988
 138.8890012  85.6254997  29.6589988 138.6905786  85.0911884  29.0020040
 144.8790012  90.4914997  29.7539988 144.6390012  91.1534997  30.4019988
 144.6810012  89.6574997  30.1789988 144.8193808  90.4693134  29.9001524
 139.4500012  89.3874997  33.7369988 139.1390012  90.1694997  34.1919988
 138.8000012  89.2344997  33.0509988 139.3195558  89.4739105  33.7065871
 136.3700012  85.5854997  32.9659988 136.4410012  86.2364997  33.6639988
 135.4800012  85.6884997  32.6309988 136.2593117  85.6885936  33.0162700
 143.1560012  91.4884997  24.6239988 143.6300012  91.7834997  25.4019988
 142.5930012  92.2264997  24.3909988 143.1447653  91.6286932  24.6990136
 137.6900012  91.4594997  34.4999988 137.6970012  91.3234997  33.5529988
 136.7740012  91.3414997  34.7519988 137.5671714  91.4249430  34.4044666
 137.1940012  85.2894997  22.9759988 136.9020012  86.0574997  22.4849988
 136.5200012  84.6294997  22.8129988 137.0629081  85.3054406  22.8867340
 133.2870012  87.6524997  31.7909988 132.7860012  87.6244997  30.9759988
 133.2920012  86.7464997  32.0999988 133.2191526  87.5262278  31.7212872
 133.0370012  90.4324997  28.6749988 133.9830012  90.2884997  28.6559988
 132.9250012  91.2164997  29.2119988 133.1512727  90.5188046  28.7450072
 142.2140012  90.6724997  33.2329988 142.3010012  91.4984997  33.7079988
 141.3500012  90.3424997  33.4819988 142.1091964  90.7409878  33.3316549
 142.6280012  94.4444997  23.0389988 142.5530012  94.3234997  22.0929988
 142.6610012  95.3944997  23.1579988 142.6221848  94.5562500  22.9254834
 136.2810012  93.2334997  24.8199988 136.4340012  92.8854997  25.6989988
 135.4310012  92.8774997  24.5649988 136.1868962  93.1376650  24.9058340
 135.5360012  88.9754997  32.8339988 135.7520012  88.6144997  33.6929988
 134.6810012  88.6014997  32.6239988 135.4499292  88.8754111  32.9233386
 138.1550012  77.4454997  28.8289988 137.2930012  77.3584997  28.4219988
 138.1320012  78.3014997  29.2569988 138.0340330  77.5492765  28.8311863
 142.8180012  77.1674997  32.2039988 143.2380012  76.7524997  32.9569988
 141.8850012  76.9894997  32.3209988 142.7493644  77.0865900  32.3229539
 142.4790012  79.6604997  19.4889988 142.2260012  79.6794997  20.4119988
 142.2230012  78.7884997  19.1879988 142.4097790  79.5452437  19.5746263
 138.2460012  82.4114997  29.9239988 137.6040012  82.3704997  30.6329988
 138.2830012  83.3374997  29.6869988 138.1631324  82.5311559  29.9889824
 138.2430012  82.6324997  24.8359988 137.3500012  82.2914997  24.7779988
 138.6930012  82.2554997  24.0809988 138.1817305  82.5348484  24.7259177
 143.7780012  83.0484997  23.6529988 143.3690012  83.8634997  23.3619988
 144.4990012  82.9084997  23.0389988 143.8194537  83.1412018  23.5301342
 142.8800012  83.2234997  35.1409988 142.3180012  82.5194997  35.4619988
 143.7070012  83.1034997  35.6089988 142.9147095  83.1107883  35.2482330
 144.7830012  82.4944997  26.4669988 144.5880012  83.0994997  25.7519988
 144.9640012  81.6604997  26.0329988 144.7807614  82.4646300  26.3104405
 135.9960012  82.7314997  31.7909988 135.9580012  83.1314997  32.6599988
 135.5050012  81.9144997  31.8819988 135.9244684  82.6758069  31.9221059
 139.3620012  80.1054997  18.5899988 138.9310012  79.6604997  19.3199988
 138.6440012  80.4774997  18.0779988 139.2059438  80.0948940  18.6206799
 132.6040012  79.8474997  25.6419988 133.2350012  79.8184997  26.3609988
 133.0530012  79.4224997  24.9119988 132.7510774  79.7860492  25.6416553
 133.8780012  80.5934997  21.0659988 134.3520012  81.1844997  20.4809988
 133.1610012  81.1244997  21.4129988 133.8459341  80.7460867  21.0328836
 144.0470012  84.1324997  31.1389988 144.3700012  83.5014997  30.4959988
 143.6070012  83.5974997  31.7989988 144.0316895  83.9738441  31.1402850
 140.8240012  80.0594997  25.9229988 139.9130012  80.1164997  26.2109988
 141.3300012  79.9994997  26.7329988 140.7675413  80.0591985  26.0720622
 135.6530012  81.6884997  24.7489988 134.7630012  81.7884997  24.4089988
 135.9490012  80.8464997  24.4029988 135.5712823  81.5883545  24.6557213
 139.3060012  81.6884997  22.4059988 140.2370012  81.8174997  22.5839988
 139.0910012  82.3584997  21.7559988 139.4044247  81.7966565  22.3425747
 137.9800012  82.8834997  19.9729988 137.4370012  82.5034997  19.2809988
 138.8130012  83.0774997  19.5439988 138.0184399  82.8578124  19.8204526
 136.1150012  87.4404997  35.0719988 136.8470012  87.6944997  35.6329988
 135.3350012  87.6444997  35.5869988 136.1098232  87.5029177  35.2185760
 142.1440012  82.8474997  27.8099988 142.7090012  82.3004997  27.2629988
 141.9970012  82.3254997  28.5979988 142.2012918  82.7022024  27.8418454
 137.1460012  78.9834997  24.2279988 136.8290012  78.0814997  24.1929988
 137.9280012  78.9854997  23.6749988 137.2082284  78.8601628  24.1484783
 140.7710012  81.2354997  30.2239988 139.9350012  81.6894997  30.3339988
 141.2950012  81.5114997  30.9759988 140.7274414  81.3349376  30.3407136
 141.3150012  87.4484997  21.9079988 140.5700012  86.9414997  21.5859988
 141.1810012  87.4974997  22.8549988 141.1948776  87.3856940  21.9918647
 142.8340012  87.6324997  33.1449988 142.4890012  87.2514997  33.9519988
 142.6340012  88.5664997  33.2169988 142.7598061  87.7065228  33.2650961
 136.4400012  86.7434997  27.6779988 137.1850012  86.7414997  27.0769988
 136.5180012  85.9204997  28.1599988 136.5525518  86.6319315  27.6608929
 143.4410012  88.9074997  20.9339988 143.1450012  89.7334997  21.3149988
 142.7380012  88.2874997  21.1299988 143.3054914  88.9368199  21.0126443
 133.4480012  85.2044997  32.9929988 133.6710012  84.7864997  33.8249988
 132.8460012  84.5914997  32.5699988 133.3971759  85.0644668  33.0497022
 140.4640012  84.7214997  35.2059988 140.1680012  84.5554997  34.3109988
 141.3960012  84.5014997  35.1949988 140.5494166  84.6690640  35.0820536
 138.8150012  90.2614997  25.0819988 139.3420012  91.0344997  24.8819988
 137.9350012  90.4864997  24.7809988 138.7681773  90.3978005  25.0139010
 134.5700012  85.1234997  19.6689988 135.1860012  85.7504997  20.0489988
 133.7080012  85.4394997  19.9409988 134.5377698  85.2519430  19.7577183
 140.2420012  87.9244997  24.6589988 140.0010012  88.8494997  24.6999988
 139.5010012  87.4654997  25.0549988 140.1088409  87.9891421  24.7181377
 140.7570012  92.0734997  30.9739988 141.1190012  92.9284997  30.7399988
 141.2880012  91.7814997  31.7139988 140.8784473  92.1511060  31.0420855
 138.9250012  92.9464997  24.2039988 137.9750012  93.0514997  24.2549988
 139.2770012  93.7664997  24.5489988 138.8424203  93.0718314  24.2576650
 144.3010012  88.1724997  30.6739988 143.8750012  87.9454997  31.5009988
 144.8810012  87.4344997  30.4919988 144.3211868  88.0415299  30.7625830
 135.0820012  79.9574997  32.5509988 134.1890012  80.2964997  32.4829988
 134.9830012  79.1024997  32.9689988 134.9464164  79.8882588  32.5982235
 134.7330012  91.7624997  30.9859988 134.9500012  90.8304997  30.9549988
 134.9790012  92.0364997  31.8689988 134.7959549  91.6720636  31.1011763
 140.5950012  90.2134997  18.1949988 140.8340012  89.4654997  17.6479988
 140.3260012  89.8254997  19.0279988 140.5913675  90.0586638  18.2326865
 139.5320012  89.7834997  20.6519988 139.6780012  89.2634997  21.4419988
 139.5290012  90.6904997  20.9579988 139.5515989  89.8348853  20.8016088
 135.9850012  87.0364997  21.1619988 135.2990012  87.3884997  21.7289988
 136.5070012  87.7994997  20.9149988 135.9616852  87.1878578  21.2062118
 143.8160012  79.6984997  31.4409988 144.5150012  79.7724997  32.0909988
 143.4350012  78.8344997  31.5949988 143.8601767  79.5917624  31.5508322
 144.6010012  79.3504997  22.5379988 144.8210012  79.8224997  21.7349988
 145.1590012  79.7454997  23.2079988 144.7064968  79.4684285  22.5187331
 142.2690012  91.4814997  21.4009988 141.4530012  91.9784997  21.4529988
 142.7990012  91.9564997  20.7609988 142.2289161  91.6137722  21.3215956
 141.8010012  81.0784997  23.3729988 142.6130012  81.5834997  23.4189988
 141.5560012  80.9334997  24.2869988 141.8790520  81.1280375  23.5028517
 142.3360012  82.0644997  32.5579988 142.4550012  82.6384997  33.3149988
 142.9920012  81.3764997  32.6719988 142.4409757  82.0501079  32.6770825
 142.6840012  78.1594997  24.3109988 142.3380012  78.7774997  24.9559988
 143.3430012  78.6604997  23.8299988 142.7257826  78.3115802  24.3340971
 139.6080012  92.5254997  21.3829988 139.7680012  93.3244997  20.8819988
 139.4100012  92.8314997  22.2679988 139.6031649  92.6764469  21.4339815
 138.3420012  79.2224997  20.9979988 138.2590012  80.1114997  21.3449988
 139.2320012  78.9574997  21.2299988 138.4509469  79.3081430  21.0767626
 136.6010012  89.6504997  20.0589988 137.1930012  90.3494997  20.3349988
 137.0600012  89.2174997  19.3389988 136.7441142  89.6877049  19.9994830
 134.9170012  82.3144997  19.1749988 134.8720012  83.2534997  19.3529988
 134.0290012  82.0784997  18.9049988 134.7908574  82.4111892  19.1628912
 135.7250012  77.0964997  27.8479988 135.4960012  77.1554997  26.9199988
 135.2820012  76.3044997  28.1539988 135.6338530  76.9975753  27.7624786
 134.6550012  91.0364997  24.0079988 133.8230012  91.5094997  24.0359988
 135.2010012  91.5464997  23.4099988 134.6149739  91.1701871  23.9309716
 133.9430012  93.6494997  35.3379988 134.4840012  93.4324997  36.0979988
 133.4620012  92.8434997  35.1489988 133.9519345  93.5109514  35.4163076
 138.5410012  92.5684997  36.9589988 139.3080012  92.1094997  37.2999988
 138.5190012  92.3424997  36.0289988 138.6431434  92.4750409  36.8800043
 142.6330012  92.0764997  18.3339988 141.9890012  91.4454997  18.6549988
 143.3950012  91.5454997  18.1019988 142.6478077  91.9182920  18.3466011
 133.8500012  87.4594997  36.2929988 133.9940012  86.5574997  36.0059988
 133.0780012  87.7454997  35.8049988 133.7653322  87.3748261  36.1877881
 138.1920012  87.8034997  18.4249988 138.2560012  87.0094997  18.9559988
 138.8450012  87.6844997  17.7349988 138.2890241  87.6787148  18.4044317
 140.5060012  87.4294997  35.7249988 140.1770012  87.7004997  34.8679988
 140.6580012  86.4884997  35.6379988 140.4814809  87.3393862  35.5958244
 143.5440012  88.8504997  18.1609988 143.2750012  89.0304997  19.0619988
 143.3380012  87.9244997  18.0299988 143.4793825  88.7500152  18.2665214
 134.6830012  84.6594997  35.7129988 135.0910012  83.8024997  35.5919988
 134.4230012  84.6744997  36.6339988 134.7037568  84.5440807  35.8209588
 139.3410012  85.7754997  20.7309988 138.8810012  85.2914997  21.4169988
 139.5960012  85.1074997  20.0949988 139.3124902  85.6188731  20.7389334
 138.6300012  83.6684997  33.0869988 138.0120012  84.3434997  33.3669988
 138.9740012  83.9894997  32.2539988 138.5919615  83.8042721  33.0126581
 140.4120012  84.0184997  18.9929988 140.2320012  83.8644997  18.0659988
 141.3620012  84.1264997  19.0379988 140.5157776  84.0120175  18.8721843
 143.6500012  86.1404997  36.3639988 144.6030012  86.2234997  36.3369988
 143.4890012  85.4284997  36.9839988 143.7586426  86.0556746  36.4440579
 138.9690012  81.0234997  34.1689988 139.1190012  80.2944997  33.5669988
 138.9720012  81.8004997  33.6099988 138.9899302  81.0287851  34.0110692
 139.3820012  79.3934997  31.6619988 139.9180012  79.8444997  31.0099988
 138.5300012  79.2854997  31.2389988 139.3402178  79.4406390  31.5155756
 140.9640012  84.8324997  31.9009988 141.7140012  84.6764997  31.3279988
 140.6250012  85.6844997  31.6259988 141.0208921  84.9262968  31.7853561
 137.4480012  82.2214997  36.0809988 136.6810012  81.6894997  35.8709988
 138.1270012  81.9114997  35.4809988 137.4347022  82.1067506  35.9711648
 140.1880012  76.8494997  32.0929988 140.0890012  77.7964997  31.9879988
 139.4450012  76.4774997  31.6179988 140.0740564  76.9285902  32.0144560
 141.4520012  81.1714997  35.6569988 141.2160012  80.9514997  36.5589988
 140.6680012  80.9644997  35.1469988 141.3138628  81.1134760  35.7113932
 144.1670012  80.2984997  34.7329988 143.2200012  80.3304997  34.8649988
 144.4800012  79.6734997  35.3859988 144.0795475  80.2183207  34.8394455
 135.6280012  80.1424997  35.7849988 135.8400012  79.4354997  35.1749988
 135.5170012  79.7044997  36.6289988 135.6419721  79.9867084  35.8156843
 140.4090012  76.1434997  34.7649988 141.1210012  75.5034997  34.7509988
 140.3080012  76.4104997  33.8509988 140.4927939  76.0919938  34.6395650
 140.7630012  77.8264997  36.8179988 140.6310012  77.3504997  35.9979988
 140.1640012  78.5704997  36.7629988 140.6639071  77.8619618  36.6982886
 140.3090012  94.7094997  19.9949988 141.2420012  94.8674997  20.1379988
 140.0450012  95.3844997  19.3699988 140.4009510  94.8223611  19.9300741
 133.8780012  89.3454997  19.4769988 134.7920012  89.4244997  19.7509988
 133.8850012  88.6584997  18.8109988 134.0041131  89.2633961  19.4244393
 132.5270012  94.7384997  24.5549988 131.8800012  94.2764997  24.0219988
 132.8810012  94.0664997  25.1369988 132.4863849  94.5844723  24.5607959
 133.3970012  92.8194997  26.3589988 133.0620012  91.9394997  26.5309988
 133.6190012  93.1644997  27.2239988 133.3811783  92.7457500  26.4994208
 133.4770012  85.8944997  28.8109988 133.6610012  85.8124997  27.8749988
 134.3260012  85.7704997  29.2349988 133.6170139  85.8665003  28.7401455
 133.0740012  81.1654997  34.9519988 133.9940012  81.0434997  35.1879988
 132.6250012  80.4154997  35.3409988 133.1391580  81.0473727  35.0369006
 134.2950012  79.4774997  27.8429988 134.7410012  78.6854997  28.1449988
 134.7620012  80.1934997  28.2739988 134.4190172  79.4660624  27.9424820
 132.5990012  82.4764997  28.9119988 133.0910012  82.2554997  28.1209988
 132.9620012  83.3174997  29.1929988 132.7153126  82.5598357  28.8417531
 132.9130012  78.7344997  22.9659988 131.9880012  78.9434997  22.8369988
 133.3670012  79.2184997  22.2769988 132.8477368  78.8285993  22.8551226
 132.8770012  77.4724997  31.3109988 132.2120012  77.2264997  31.9539988
 132.4340012  78.0944997  30.7329988 132.7260956  77.5228632  31.3209352
 135.0690012  90.6474997  35.4549988 134.2480012  90.8224997  34.9949988
 134.8160012  90.5744997  36.3759988 134.9226164  90.6615622  35.5164923
 138.0230012  91.6224997  31.7139988 137.5980012  92.4314997  31.4309988
 138.9270012  91.7074997  31.4119988 138.0870271  91.7448469  31.6343776
 142.3340012  93.0214997  34.6729988 142.5190012  92.6874997  35.5509988
 143.1800012  93.3304997  34.3509988 142.4737539  93.0176047  34.7495605
 144.6790012  94.3074997  33.9169988 145.3560012  93.6744997  33.6769988
 145.0010012  94.7084997  34.7239988 144.8151637  94.2751154  33.9932793
 135.4250012  94.8784997  31.7609988 134.7040012  95.3184997  31.3099988
 135.0590012  94.6274997  32.6099988 135.2769804  94.9047698  31.8139840
 137.8920012  94.4784997  30.7909988 137.0270012  94.5504997  31.1949988
 137.8370012  95.0254997  30.0069988 137.7662085  94.5622685  30.7403362
 142.6020012  94.3664997  29.9659988 142.1460012  94.8954997  29.3119988
 142.7650012  94.9694997  30.6919988 142.5615585  94.5204468  29.9745062
 134.8390012  93.5014997  28.6709988 134.8210012  93.0764997  29.5289988
 135.6440012  93.1834997  28.2629988 134.9453875  93.4003812  28.7331655
 136.9810012  92.2114997  27.3259988 136.7620012  91.2954997  27.4959988
 137.8050012  92.3514997  27.7919988 137.0624420  92.1050520  27.4122774
 139.5180012  92.6814997  28.1749988 139.7310012  91.7934997  27.8879988
 139.5820012  92.6474997  29.1289988 139.5558232  92.5553102  28.2647397
 143.0260012  78.3454997  27.3189988 142.3520012  77.7164997  27.5749988
 143.5900012  77.8614997  26.7159988 143.0099230  78.1938744  27.2725340
 135.3530012  76.9794997  25.1409988 134.5760012  76.7454997  24.6339988
 135.8830012  76.1824997  25.1499988 135.3182330  76.8396988  25.0727742
 134.1890012  76.7774997  20.9449988 134.6280012  77.3884997  20.3529988
 133.5560012  77.3154997  21.4189988 134.1634514  76.9339257  20.9280930
 139.9320012  76.9064997  24.9549988 140.8070012  77.2944997  24.9249988
 139.7960012  76.6914997  25.8769988 140.0333695  76.9305184  25.0756440
 134.0900012  92.7254997  21.8429988 133.4050012  92.6874997  21.1749988
 134.0940012  93.6384997  22.1309988 133.9968193  92.8437016  21.7905284
 136.0500012  78.6934997  19.3869988 136.5420012  78.0634997  18.8599988
 136.6740012  78.9894997  20.0509988 136.2015446  78.6473199  19.4045980
 141.0760012  78.9864997  21.8439988 141.2540012  78.3404997  22.5269988
 141.0230012  79.8204997  22.3119988 141.0931829  79.0107985  22.0005940
 142.9550012  93.9354997  20.2399988 143.8210012  94.3014997  20.0619988
 142.7080012  93.4954997  19.4259988 143.0402392  93.9261756  20.1056289
 135.3110012  77.4934997  34.6589988 134.9450012  76.7284997  35.1019988
 136.2240012  77.5224997  34.9459988 135.3842790  77.3927224  34.7584070
 137.2840012  76.8444997  36.1949988 138.1820012  76.5704997  36.0099988
 136.8970012  76.1014997  36.6589988 137.3546612  76.7065914  36.2323643
 135.9080012  93.6454997  18.8679988 135.6410012  93.9324997  19.7409988
 136.6800012  93.0994997  19.0199988 135.9757488  93.6110294  19.0081050
  12.4390012 104.9914997  25.0999988  12.5280012 105.9354997  24.9679988
  11.8010012 104.7164997  24.4419988  12.3649081 105.0834830  24.9929614
  11.3720012 104.2464997  28.5189988  11.3340012 103.6004997  29.2239988
  11.0500012 103.7804997  27.7479988  11.3232333 104.0949408  28.5112978
   3.7410012 103.8614997  30.1119988   3.7820012 103.2354997  30.8349988
   4.4440012 104.4854997  30.2939988   3.8416363 103.8601196  30.2356044
  15.0780012 107.1854997  26.8199988  14.6380012 106.4654997  27.2709988
  15.0650012 107.9064997  27.4499988  15.0160226 107.1843731  26.9668494
   4.6640012 108.3114997  28.6469988   4.2950012 107.5094997  28.2769988
   5.6050012 108.1424997  28.6929988   4.7407289 108.1790153  28.6026316
   1.2740012 101.9714997  24.0399988   0.8270012 102.8174997  24.0209988
   0.7130012 101.3914997  23.5239988   1.1369900 102.0089916  23.9676801
   1.9850012 104.1334997  26.1659988   2.1980012 103.3634997  26.6929988
   2.7230012 104.2224997  25.5619988   2.1138496 104.0401394  26.1565300
  12.1900012 112.2904997  27.0329988  12.8100012 111.6134997  26.7589988
  11.9820012 112.0724997  27.9409988  12.2466904 112.1683870  27.1183365
   9.7620012 106.6794997  28.9249988  10.0660012 105.9934997  28.3299988
  10.4830012 106.7974997  29.5429988   9.9010671 106.6016304  28.9271816
  18.4250012  98.2804997  29.7859988  18.4740012  98.8904997  30.5219988
  18.8500012  98.7414997  29.0629988  18.4891824  98.4263741  29.7890205
  12.9030012 101.0734997  29.2529988  13.0450012 100.1274997  29.2729988
  12.7960012 101.2804997  28.3239988  12.9079864 100.9719534  29.1302339
   6.0570012  99.1744997  26.5249988   6.1010012 100.0344997  26.1069988
   5.6000012  98.6224997  25.8909988   6.0012185  99.2175799  26.3820299
  13.7800012  99.3054997  24.9259988  14.4260012  98.9764997  25.5509988
  14.2900012  99.8234997  24.3029988  13.9374264  99.3304611  24.9273862
   2.6780012 101.5714997  27.2869988   3.3310012 101.0214997  27.7189988
   2.7020012 101.2974997  26.3699988   2.7706683 101.4591466  27.2222123
   7.8340012 103.1214997  26.5019988   8.4500012 102.5954997  27.0119988
   7.2480012 102.4814997  26.0989988   7.8390810 102.9629208  26.5173173
  18.8160012  99.7584997  32.0219988  18.1280012 100.4164997  31.9259988
  18.8320012  99.5614997  32.9579988  18.7238525  99.8220462  32.1354808
   4.8680012  98.0924997  30.5989988   4.6490012  98.6224997  29.8329988
   4.2000012  98.3194997  31.2459988   4.7477600  98.1956906  30.5816379
  12.2370012 107.5924997  24.1429988  11.9410012 107.2704997  23.2919988
  11.9120012 108.4924997  24.1839988  12.1526371 107.6700215  24.0321801
   7.4370012 105.7684997  30.8859988   6.6970012 106.3664997  30.9899988
   8.1510012 106.3224997  30.5709988   7.4322237 105.9252831  30.8576465
  15.5440012  98.5964997  26.9059988  15.3280012  97.8304997  27.4389988
  16.1990012  99.0684997  27.4189988  15.6030632  98.5555889  27.0482861
   4.4610012  99.9844997  28.5509988   5.0750012 100.6174997  28.9249988
   4.9730012  99.5124997  27.8949988   4.6142296 100.0072370  28.5134252
   5.8440012 107.7324997  31.6739988   5.8390012 108.6124997  31.2959988
   4.9910012 107.6494997  32.0989988   5.7279464 107.8416117  31.6797907
   1.9650012 107.4034997  22.4559988   1.6930012 107.6324997  21.5669988
   2.0110012 108.2414997  22.9159988   1.9340094 107.5481213  22.3965697
  15.5900012 109.0254997  29.1679988  14.6490012 109.0834997  29.3299988
  15.8670012 109.9314997  29.0309988  15.4984679 109.1559443  29.1716815
  15.8910012  97.3114997  30.5859988  15.1550012  97.9224997  30.5479988
  16.5740012  97.7264997  30.0589988  15.8826541  97.4511374  30.5095832
   8.8940012  95.3984997  28.0519988   8.7770012  94.4494997  27.9969988
   8.0390012  95.7304997  28.3249988   8.7623733  95.3135409  28.0813897
  13.8420012 110.8064997  25.7939988  14.2680012 110.0994997  25.3089988
  14.1590012 111.6074997  25.3769988  13.9431019 110.8180994  25.6713130
  15.0020012 108.7074997  24.3019988  14.7440012 108.0174997  23.6909988
  15.0730012 108.2644997  25.1479988  14.9762856 108.5532124  24.3326885
  16.6880012 107.2734997  32.7799988  16.8280012 106.6824997  32.0399988
  16.8550012 108.1464997  32.4229988  16.7296778 107.3106426  32.6306965
  11.1610012 104.2354997  22.5519988  10.4490012 104.7704997  22.1999988
  11.8520012 104.2914997  21.8919988  11.1570132 104.3162543  22.4146289
  11.2140012 102.6934997  19.5909988  11.9150012 102.7154997  20.2419988
  11.5170012 102.0654997  18.9349988  11.3507830 102.6116566  19.5913711
  18.5300012 103.6134997  30.8459988  17.8770012 104.3084997  30.9349988
  18.9950012 103.8234997  30.0359988  18.5035390 103.7369425  30.7486883
  14.5660012 104.4454997  23.5039988  13.8340012 104.6734997  24.0769988
  15.0140012 103.7314997  23.9589988  14.5263095 104.3802571  23.6439119
  14.4640012 102.6194997  32.5709988  14.5440012 103.3824997  33.1429988
  13.8620012 102.8984997  31.8809988  14.3935756 102.7617134  32.5560589
   6.2120012 105.0754997  25.3859988   5.8810012 104.7054997  24.5679988
   6.8000012 104.4054997  25.7329988   6.2461873 104.9341156  25.3208102
   7.5780012 108.5034997  28.0679988   7.4840012 107.9254997  27.3109988
   8.3080012 108.1324997  28.5639988   7.6637981 108.3742390  28.0314165
   6.5780012 103.8444997  29.0199988   7.1440012 103.9654997  28.2569988
   6.8970012 104.4814997  29.6589988   6.6985786 103.9471884  29.0020040
  12.8870012 109.3474997  29.7539988  12.6470012 110.0094997  30.4019988
  12.6890012 108.5134997  30.1789988  12.8273808 109.3253134  29.9001524
   7.4580012 108.2434997  33.7369988   7.1470012 109.0254997  34.1919988
   6.8080012 108.0904997  33.0509988   7.3275558 108.3299105  33.7065871
  13.4370012 103.6074997  21.1889988  14.0170012 103.7574997  21.9359988
  13.8510012 104.0784997  20.4659988  13.5722830 103.6916841  21.1934134
   4.3780012 104.4414997  32.9659988   4.4490012 105.0924997  33.6639988
   3.4880012 104.5444997  32.6309988   4.2673117 104.5445936  33.0162700
  11.1640012 110.3444997  24.6239988  11.6380012 110.6394997  25.4019988
  10.6010012 111.0824997  24.3909988  11.1527653 110.4846932  24.6990136
   5.6980012 110.3154997  34.4999988   5.7050012 110.1794997  33.5529988
   4.7820012 110.1974997  34.7519988   5.5751714 110.2809430  34.4044666
  17.1360012  95.3574997  21.0019988  16.2360012  95.4964997  21.2969988
  17.3880012  96.1884997  20.5999988  17.0468702  95.4889074  20.9880205
   5.2020012 104.1454997  22.9759988   4.9100012 104.9134997  22.4849988
   4.5280012 103.4854997  22.8129988   5.0709081 104.1614406  22.8867340
  18.3250012 109.7234997  19.3779988  18.3990012 110.6624997  19.5489988
  19.2310012 109.4184997  19.3219988  18.4575100 109.8106722  19.3938119
   1.2950012 106.5084997  31.7909988   0.7940012 106.4804997  30.9759988
   1.3000012 105.6024997  32.0999988   1.2271526 106.3822278  31.7212872
   1.0450012 109.2884997  28.6749988   1.9910012 109.1444997  28.6559988
   0.9330012 110.0724997  29.2119988   1.1592727 109.3748046  28.7450072
  19.2430012 109.9544997  34.3569988  19.1940012 108.9994997  34.3199988
  18.4160012 110.2224997  34.7579988  19.1244940 109.8598998  34.4061375
  10.2220012 109.5284997  33.2329988  10.3090012 110.3544997  33.7079988
   9.3580012 109.1984997  33.4819988  10.1171964 109.5969878  33.3316549
  10.6360012 113.3004997  23.0389988  10.5610012 113.1794997  22.0929988
  10.6690012 114.2504997  23.1579988  10.6301848 113.4122500  22.9254834
   4.2890012 112.0894997  24.8199988   4.4420012 111.7414997  25.6989988
   3.4390012 111.7334997  24.5649988   4.1948962 111.9936650  24.9058340
  13.7380012 112.4544997  20.0409988  14.1130012 111.7104997  19.5709988
  13.7420012 112.1844997  20.9599988  13.7898915 112.3161486  20.1007824
  13.4070012 112.3804997  22.7909988  12.4710012 112.4804997  22.9689988
  13.6870012 111.6714997  23.3689988  13.3168255 112.2982711  22.8935391
  16.3950012 101.4474997  34.8369988  15.9880012 101.9284997  34.1159988
  16.4360012 100.5424997  34.5289988  16.3448437 101.3909374  34.6966683
   3.5440012 107.8314997  32.8339988   3.7600012 107.4704997  33.6929988
   2.6890012 107.4574997  32.6239988   3.4579292 107.7314111  32.9233386
   6.1630012  96.3014997  28.8289988   5.3010012  96.2144997  28.4219988
   6.1400012  97.1574997  29.2569988   6.0420330  96.4052765  28.8311863
  10.8260012  96.0234997  32.2039988  11.2460012  95.6084997  32.9569988
   9.8930012  95.8454997  32.3209988  10.7573644  95.9425900  32.3229539
  14.1520012  99.7794997  33.0569988  13.6380012  99.6534997  33.8549988
  13.9970012 100.6914997  32.8129988  14.0606852  99.8856132  33.1332158
  14.9150012 104.6404997  18.8189988  14.9570012 104.4174997  17.8889988
  15.7640012 105.0394997  19.0089988  15.0355396 104.6639155  18.7173627
  10.4870012  98.5164997  19.4889988  10.2340012  98.5354997  20.4119988
  10.2310012  97.6444997  19.1879988  10.4177790  98.4012437  19.5746263
   6.2540012 101.2674997  29.9239988   5.6120012 101.2264997  30.6329988
   6.2910012 102.1934997  29.6869988   6.1711324 101.3871559  29.9889824
   6.2510012 101.4884997  24.8359988   5.3580012 101.1474997  24.7779988
   6.7010012 101.1114997  24.0809988   6.1897305 101.3908484  24.7259177
  11.7860012 101.9044997  23.6529988  11.3770012 102.7194997  23.3619988
  12.5070012 101.7644997  23.0389988  11.8274537 101.9972018  23.5301342
  10.8880012 102.0794997  35.1409988  10.3260012 101.3754997  35.4619988
  11.7150012 101.9594997  35.6089988  10.9227095 101.9667883  35.2482330
  12.7910012 101.3504997  26.4669988  12.5960012 101.9554997  25.7519988
  12.9720012 100.5164997  26.0329988  12.7887614 101.3206300  26.3104405
   4.0040012 101.5874997  31.7909988   3.9660012 101.9874997  32.6599988
   3.5130012 100.7704997  31.8819988   3.9324684 101.5318069  31.9221059
   7.3700012  98.9614997  18.5899988   6.9390012  98.5164997  19.3199988
   6.6520012  99.3334997  18.0779988   7.2139438  98.9508940  18.6206799
   0.6120012  98.7034997  25.6419988   1.2430012  98.6744997  26.3609988
   1.0610012  98.2784997  24.9119988   0.7590774  98.6420492  25.6416553
   1.8860012  99.4494997  21.0659988   2.3600012 100.0404997  20.4809988
   1.1690012  99.9804997  21.4129988   1.8539341  99.6020867  21.0328836
  12.0550012 102.9884997  31.1389988  12.3780012 102.3574997  30.4959988
  11.6150012 102.4534997  31.7989988  12.0396895 102.8298441  31.1402850
   8.8320012  98.9154997  25.9229988   7.9210012  98.9724997  26.2109988
   9.3380012  98.8554997  26.7329988   8.7755413  98.9151985  26.0720622
   3.6610012 100.5444997  24.7489988   2.7710012 100.6444997  24.4089988
   3.9570012  99.7024997  24.4029988   3.5792823 100.4443546  24.6557213
   7.3140012 100.5444997  22.4059988   8.2450012 100.6734997  22.5839988
   7.0990012 101.2144997  21.7559988   7.4124247 100.6526565  22.3425747
  13.2370012  98.1504997  29.1869988  12.5610012  98.2814997  29.8509988
  12.7520012  97.9954997  28.3769988  13.0787145  98.1474905  29.1684517
   5.9880012 101.7394997  19.9729988   5.4450012 101.3594997  19.2809988
   6.8210012 101.9334997  19.5439988   6.0264399 101.7138124  19.8204526
  16.5250012 113.8224997  35.4639988  16.7250012 114.2464997  34.6289988
  17.1800012 114.1654997  36.0709988  16.6410051 113.9269648  35.4317836
   4.1230012 106.2964997  35.0719988   4.8550012 106.5504997  35.6329988
   3.3430012 106.5004997  35.5869988   4.1178232 106.3589177  35.2185760
  10.1520012 101.7034997  27.8099988  10.7170012 101.1564997  27.2629988
  10.0050012 101.1814997  28.5979988  10.2092918 101.5582024  27.8418454
   5.1540012  97.8394997  24.2279988   4.8370012  96.9374997  24.1929988
   5.9360012  97.8414997  23.6749988   5.2162284  97.7161628  24.1484783
   8.7790012 100.0914997  30.2239988   7.9430012 100.5454997  30.3339988
   9.3030012 100.3674997  30.9759988   8.7354414 100.1909376  30.3407136
   9.3230012 106.3044997  21.9079988   8.5780012 105.7974997  21.5859988
   9.1890012 106.3534997  22.8549988   9.2028776 106.2416940  21.9918647
  16.4730012 105.4374997  30.6949988  17.1150012 105.8944997  30.1509988
  15.6430012 105.5504997  30.2319988  16.4485963 105.5152704  30.5580177
  13.2210012  99.1184997  20.1079988  12.2820012  99.2304997  19.9559988
  13.5180012  99.9754997  20.4139988  13.1327666  99.2496443  20.1285768
  10.8420012 106.4884997  33.1449988  10.4970012 106.1074997  33.9519988
  10.6420012 107.4224997  33.2169988  10.7678061 106.5625228  33.2650961
  13.9390012 100.9854997  21.7679988  14.8310012 100.8484997  22.0869988
  13.9960012 101.7764997  21.2319988  14.0686285 101.0736660  21.7391691
   4.4480012 105.5994997  27.6779988   5.1930012 105.5974997  27.0769988
   4.5260012 104.7764997  28.1599988   4.5605518 105.4879315  27.6608929
  11.4490012 107.7634997  20.9339988  11.1530012 108.5894997  21.3149988
  10.7460012 107.1434997  21.1299988  11.3134914 107.7928199  21.0126443
   1.4560012 104.0604997  32.9929988   1.6790012 103.6424997  33.8249988
   0.8540012 103.4474997  32.5699988   1.4051759 103.9204668  33.0497022
   8.4720012 103.5774997  35.2059988   8.1760012 103.4114997  34.3109988
   9.4040012 103.3574997  35.1949988   8.5574166 103.5250640  35.0820536
  13.0930012 108.9504997  33.0959988  12.1920012 109.1334997  32.8279988
  13.1270012 109.2094997  34.0169988  12.9743041 109.0105512  33.1838197
  18.8240012 101.1954997  21.4629988  18.2700012 100.7994997  20.7909988
  18.9240012 102.1054997  21.1849988  18.7617059 101.2643586  21.3334401
  18.7870012 106.9954997  34.2999988  17.9360012 107.2334997  33.9329988
  19.3780012 106.9784997  33.5469988  18.7502487 107.0258258  34.1478893
  17.1190012 109.9814997  21.9279988  16.7460012 109.1554997  22.2369988
  17.3970012 109.7984997  21.0309988  17.1055630 109.8437303  21.8489626
  14.2800012 104.7894997  28.9489988  13.3510012 104.5574997  28.9219988
  14.7310012 104.0124997  28.6189988  14.2139216 104.6527238  28.9006917
   6.8230012 109.1174997  25.0819988   7.3500012 109.8904997  24.8819988
   5.9430012 109.3424997  24.7809988   6.7761773 109.2538005  25.0139010
   2.5780012 103.9794997  19.6689988   3.1940012 104.6064997  20.0489988
   1.7160012 104.2954997  19.9409988   2.5457698 104.1079430  19.7577183
   8.2500012 106.7804997  24.6589988   8.0090012 107.7054997  24.6999988
   7.5090012 106.3214997  25.0549988   8.1168409 106.8451421  24.7181377
   8.7650012 110.9294997  30.9739988   9.1270012 111.7844997  30.7399988
   9.2960012 110.6374997  31.7139988   8.8864473 111.0071060  31.0420855
   6.9330012 111.8024997  24.2039988   5.9830012 111.9074997  24.2549988
   7.2850012 112.6224997  24.5489988   6.8504203 111.9278314  24.2576650
  12.3090012 107.0284997  30.6739988  11.8830012 106.8014997  31.5009988
  12.8890012 106.2904997  30.4919988  12.3291868 106.8975299  30.7625830
  14.5120012 107.9574997  19.7479988  14.8650012 107.5774997  20.5529988
  13.5630012 107.8644997  19.8349988  14.4320441 107.8929596  19.8698559
  14.9670012 111.5804997  33.1439988  14.3660012 111.0254997  32.6479988
  15.2490012 112.2474997  32.5179988  14.9228519 111.5946841  32.9914952
  19.0150012 112.4374997  19.9489988  19.7590012 113.0234997  19.8089988
  18.3210012 113.0054997  20.2829988  19.0230292 112.5945582  19.9749961
   3.0900012  98.8134997  32.5509988   2.1970012  99.1524997  32.4829988
   2.9910012  97.9584997  32.9689988   2.9544164  98.7442588  32.5982235
  15.3780012 106.6304997  21.9749988  15.1000012 105.9024997  22.5309988
  16.3050012 106.7494997  22.1799988  15.4653124 106.5468802  22.0788845
   2.7410012 110.6184997  30.9859988   2.9580012 109.6864997  30.9549988
   2.9870012 110.8924997  31.8689988   2.8039549 110.5280636  31.1011763
   8.6030012 109.0694997  18.1949988   8.8420012 108.3214997  17.6479988
   8.3340012 108.6814997  19.0279988   8.5993675 108.9146638  18.2326865
   7.5400012 108.6394997  20.6519988   7.6860012 108.1194997  21.4419988
   7.5370012 109.5464997  20.9579988   7.5595989 108.6908853  20.8016088
   3.9930012 105.8924997  21.1619988   3.3070012 106.2444997  21.7289988
   4.5150012 106.6554997  20.9149988   3.9696852 106.0438578  21.2062118
  11.8240012  98.5544997  31.4409988  12.5230012  98.6284997  32.0909988
  11.4430012  97.6904997  31.5949988  11.8681767  98.4477624  31.5508322
  12.6090012  98.2064997  22.5379988  12.8290012  98.6784997  21.7349988
  13.1670012  98.6014997  23.2079988  12.7144968  98.3244285  22.5187331
  10.2770012 110.3374997  21.4009988   9.4610012 110.8344997  21.4529988
  10.8070012 110.8124997  20.7609988  10.2369161 110.4697722  21.3215956
   9.8090012  99.9344997  23.3729988  10.6210012 100.4394997  23.4189988
   9.5640012  99.7894997  24.2869988   9.8870520  99.9840375  23.5028517
  10.3440012 100.9204997  32.5579988  10.4630012 101.4944997  33.3149988
  11.0000012 100.2324997  32.6719988  10.4489757 100.9061079  32.6770825
  10.6920012  97.0154997  24.3109988  10.3460012  97.6334997  24.9559988
  11.3510012  97.5164997  23.8299988  10.7337826  97.1675802  24.3340971
   7.6160012 111.3814997  21.3829988   7.7760012 112.1804997  20.8819988
   7.4180012 111.6874997  22.2679988   7.6111649 111.5324469  21.4339815
   6.3500012  98.0784997  20.9979988   6.2670012  98.9674997  21.3449988
   7.2400012  97.8134997  21.2299988   6.4589469  98.1641430  21.0767626
  16.5490012  98.8274997  33.3929988  15.6320012  99.0904997  33.3049988
  16.8840012  98.8244997  32.4959988  16.4689900  98.8630224  33.2597919
  15.1510012 102.5784997  27.4879988  14.3530012 102.1634997  27.1599988
  15.5960012 101.8874997  27.9789988  15.1019885 102.4283543  27.5094889
   4.6090012 108.5064997  20.0589988   5.2010012 109.2054997  20.3349988
   5.0680012 108.0734997  19.3389988   4.7521142 108.5437049  19.9994830
   2.9250012 101.1704997  19.1749988   2.8800012 102.1094997  19.3529988
   2.0370012 100.9344997  18.9049988   2.7988574 101.2671892  19.1628912
  16.2370012 111.8344997  29.1109988  16.0820012 112.5124997  28.4539988
  17.1700012 111.9064997  29.3139988  16.3418500 111.9370170  29.0485119
   3.7330012  95.9524997  27.8479988   3.5040012  96.0114997  26.9199988
   3.2900012  95.1604997  28.1539988   3.6418530  95.8535753  27.7624786
   2.6630012 109.8924997  24.0079988   1.8310012 110.3654997  24.0359988
   3.2090012 110.4024997  23.4099988   2.6229739 110.0261871  23.9309716
   1.9510012 112.5054997  35.3379988   2.4920012 112.2884997  36.0979988
   1.4700012 111.6994997  35.1489988   1.9599345 112.3669514  35.4163076
   6.5490012 111.4244997  36.9589988   7.3160012 110.9654997  37.2999988
   6.5270012 111.1984997  36.0289988   6.6511434 111.3310409  36.8800043
  10.6410012 110.9324997  18.3339988   9.9970012 110.3014997  18.6549988
  11.4030012 110.4014997  18.1019988  10.6558077 110.7742920  18.3466011
  13.1260012 109.8044997  35.6879988  12.7750012 108.9484997  35.9309988
  13.8520012 109.9474997  36.2949988  13.1760769 109.7065636  35.8033619
  15.2450012 110.7494997  18.5679988  15.5280012 109.9554997  19.0199988
  15.9850012 110.9824997  18.0069988  15.3837486 110.6722803  18.5540698
   1.8580012 106.3154997  36.2929988   2.0020012 105.4134997  36.0059988
   1.0860012 106.6014997  35.8049988   1.7733322 106.2308261  36.1877881
   6.2000012 106.6594997  18.4249988   6.2640012 105.8654997  18.9559988
   6.8530012 106.5404997  17.7349988   6.2970241 106.5347148  18.4044317
   8.5140012 106.2854997  35.7249988   8.1850012 106.5564997  34.8679988
   8.6660012 105.3444997  35.6379988   8.4894809 106.1953862  35.5958244
  11.5520012 107.7064997  18.1609988  11.2830012 107.8864997  19.0619988
  11.3460012 106.7804997  18.0299988  11.4873825 107.6060152  18.2665214
  14.2480012 106.2014997  33.1089988  14.9940012 106.7894997  32.9889988
  13.4910012 106.7834997  33.1719988  14.2477554 106.3607011  33.1010907
   2.6910012 103.5154997  35.7129988   3.0990012 102.6584997  35.5919988
   2.4310012 103.5304997  36.6339988   2.7117568 103.4000807  35.8209588
   7.3490012 104.6314997  20.7309988   6.8890012 104.1474997  21.4169988
   7.6040012 103.9634997  20.0949988   7.3204902 104.4748731  20.7389334
   6.6380012 102.5244997  33.0869988   6.0200012 103.1994997  33.3669988
   6.9820012 102.8454997  32.2539988   6.5999615 102.6602721  33.0126581
   8.4200012 102.8744997  18.9929988   8.2400012 102.7204997  18.0659988
   9.3700012 102.9824997  19.0379988   8.5237776 102.8680175  18.8721843
  11.6580012 104.9964997  36.3639988  12.6110012 105.0794997  36.3369988
  11.4970012 104.2844997  36.9839988  11.7666426 104.9116746  36.4440579
  17.8100012 105.2294997  18.4389988  17.5360012 104.8044997  17.6259988
  17.8490012 106.1604997  18.2219988  17.7777699 105.2972484  18.2983610
   6.9770012  99.8794997  34.1689988   7.1270012  99.1504997  33.5669988
   6.9800012 100.6564997  33.6099988   6.9979302  99.8847851  34.0110692
   7.3900012  98.2494997  31.6619988   7.9260012  98.7004997  31.0099988
   6.5380012  98.1414997  31.2389988   7.3482178  98.2966390  31.5155756
   8.9720012 103.6884997  31.9009988   9.7220012 103.5324997  31.3279988
   8.6330012 104.5404997  31.6259988   9.0288921 103.7822968  31.7853561
  13.3870012 101.5034997  36.9299988  13.5800012 100.5724997  36.8179988
  14.2450012 101.9284997  36.9199988  13.5293020 101.4336389  36.9133361
  14.7040012 104.2924997  35.0069988  14.4230012 105.0014997  34.4299988
  15.6470012 104.2194997  34.8559988  14.7929027 104.3797646  34.9075551
   5.4560012 101.0774997  36.0809988   4.6890012 100.5454997  35.8709988
   6.1350012 100.7674997  35.4809988   5.4427022 100.9627506  35.9711648
   8.1960012  95.7054997  32.0929988   8.0970012  96.6524997  31.9879988
   7.4530012  95.3334997  31.6179988   8.0820563  95.7845902  32.0144560
   9.4600012 100.0274997  35.6569988   9.2240012  99.8074997  36.5589988
   8.6760012  99.8204997  35.1469988   9.3218628  99.9694760  35.7113932
  12.1750012  99.1544997  34.7329988  11.2280012  99.1864997  34.8649988
  12.4880012  98.5294997  35.3859988  12.0875475  99.0743207  34.8394455
  13.8090012  97.7884997  36.7379988  13.7130012  96.8364997  36.7319988
  13.4880012  98.0574997  37.5979988  13.7524070  97.6944035  36.8535441
   3.6360012  98.9984997  35.7849988   3.8480012  98.2914997  35.1749988
   3.5250012  98.5604997  36.6289988   3.6499721  98.8427084  35.8156843
   8.4170012  94.9994997  34.7649988   9.1290012  94.3594997  34.7509988
   8.3160012  95.2664997  33.8509988   8.5007939  94.9479938  34.6395650
   8.7710012  96.6824997  36.8179988   8.6390012  96.2064997  35.9979988
   8.1720012  97.4264997  36.7629988   8.6719071  96.7179618  36.6982886
   8.3170012 113.5654997  19.9949988   9.2500012 113.7234997  20.1379988
   8.0530012 114.2404997  19.3699988   8.4089510 113.6783611  19.9300741
   1.8860012 108.2014997  19.4769988   2.8000012 108.2804997  19.7509988
   1.8930012 107.5144997  18.8109988   2.0121131 108.1193961  19.4244393
   0.5350012 113.5944997  24.5549988  -0.1119988 113.1324997  24.0219988
   0.8890012 112.9224997  25.1369988   0.4943849 113.4404723  24.5607959
   1.4050012 111.6754997  26.3589988   1.0700012 110.7954997  26.5309988
   1.6270012 112.0204997  27.2239988   1.3891783 111.6017501  26.4994208
  18.9530012 112.4844997  29.3399988  18.9320012 112.6694997  30.2789988
  19.6440012 113.0534997  28.9989988  19.0434618 112.5866606  29.4223864
  18.5170012 112.0524997  32.2619988  18.0290012 111.3164997  31.8909988
  19.0660012 111.6584997  32.9399988  18.5244872 111.8986249  32.3029160
  16.9670012 107.8414997  36.8999988  16.1010012 107.7364997  37.2939988
  17.3440012 108.6004997  37.3459988  16.8993308 107.9296900  37.0142393
  18.2680012 106.0984997  22.4139988  19.1180012 106.5194997  22.5409988
  18.2740012 105.3584997  23.0209988  18.3851372 106.0560803  22.5134344
  18.6630012 104.1514997  24.2379988  17.9360012 103.6724997  24.6349988
  19.2440012 104.3574997  24.9699988  18.6419375 104.1137090  24.3914129
  18.4220012 106.9364997  29.1849988  19.2550012 106.5584997  28.9049988
  18.5340012 107.8794997  29.0659988  18.5512647 107.0122218  29.1305487
  16.9080012 109.8144997  31.4919988  16.2610012 110.1394997  32.1179988
  16.3910012 109.3744997  30.8179988  16.7494029 109.7995004  31.4865827
  18.9310012 104.0524997  20.6289988  18.4090012 104.4094997  19.9099988
  18.8980012 104.7274997  21.3069988  18.8551634 104.1925413  20.6223145
  17.2800012 101.2924997  19.1799988  17.3760012 101.9594997  18.4989988
  17.1400012 100.4764997  18.6979988  17.2742135 101.2734500  19.0218491
  16.4490012 102.6724997  24.8009988  16.2990012 101.7274997  24.7799988
  16.0960012 102.9534997  25.6439988  16.3806625 102.5810441  24.9122346
   1.4850012 104.7504997  28.8109988   1.6690012 104.6684997  27.8749988
   2.3340012 104.6264997  29.2349988   1.6250139 104.7225003  28.7401455
  17.3060012 104.6424997  34.4389988  17.8890012 103.9084997  34.6309988
  17.8700012 105.4144997  34.4859988  17.4619769 104.6464227  34.4716159
  18.8020012 102.5454997  35.1239988  17.9390012 102.1664997  34.9579988
  19.4070012 101.8064997  35.0499988  18.7655979 102.3938023  35.0912817
  16.5270012  98.7004997  18.2969988  17.1380012  98.3294997  18.9339988
  15.6910012  98.2794997  18.4929988  16.4975032  98.5927554  18.4107035
  16.1600012 100.2554997  23.2629988  16.4400012  99.3484997  23.3869988
  16.9190012 100.6894997  22.8739988  16.3009277 100.1900942  23.2273682
  16.7720012 100.8364997  28.6989988  17.7050012 101.0484997  28.6649988
  16.5370012 100.9384997  29.6209988  16.8678036 100.8792769  28.8189976
  16.8010012 101.5734997  31.4749988  15.9580012 101.8414997  31.8409988
  17.2430012 102.3954997  31.2639988  16.7454158 101.7213291  31.4965491
   1.0820012 100.0214997  34.9519988   2.0020012  99.8994997  35.1879988
   0.6330012  99.2714997  35.3409988   1.1471580  99.9033727  35.0369006
  19.0840012  95.5534997  36.8279988  19.4340012  94.8994997  36.2229988
  19.2310012  96.3904997  36.3889988  19.1518419  95.5771591  36.6857118
  16.7730012  97.5184997  23.3109988  16.9560012  97.0694997  24.1369988
  16.1740012  96.9334997  22.8479988  16.7170202  97.3779975  23.3613275
   2.3030012  98.3334997  27.8429988   2.7490012  97.5414997  28.1449988
   2.7700012  99.0494997  28.2739988   2.4270172  98.3220624  27.9424820
   0.6070012 101.3324997  28.9119988   1.0990012 101.1114997  28.1209988
   0.9700012 102.1734997  29.1929988   0.7233126 101.4158357  28.8417531
  18.6040012  97.6624997  35.1779988  17.6860012  97.9334997  35.1419988
  18.7270012  97.1274997  34.3929988  18.4951066  97.6272892  35.0670487
  18.6400012  97.5854997  19.8389988  19.0520012  96.8644997  19.3639988
  19.3220012  98.2554997  19.8979988  18.7885885  97.5772368  19.7818915
   0.9210012  97.5904997  22.9659988  -0.0039988  97.7994997  22.8369988
   1.3750012  98.0744997  22.2769988   0.8557368  97.6845993  22.8551226
  15.6920012 112.5744997  24.9119988  16.3440012 112.2274997  24.3039988
  16.2020012 113.0634997  25.5579988  15.8502637 112.5930597  24.9160236
   0.8850012  96.3284997  31.3109988   0.2200012  96.0824997  31.9539988
   0.4420012  96.9504997  30.7329988   0.7340956  96.3788632  31.3209352
   3.0770012 109.5034997  35.4549988   2.2560012 109.6784997  34.9949988
   2.8240012 109.4304997  36.3759988   2.9306164 109.5175622  35.5164923
   6.0310012 110.4784997  31.7139988   5.6060012 111.2874997  31.4309988
   6.9350012 110.5634997  31.4119988   6.0950271 110.6008469  31.6343776
  10.3420012 111.8774997  34.6729988  10.5270012 111.5434997  35.5509988
  11.1880012 112.1864997  34.3509988  10.4817539 111.8736047  34.7495605
  12.6870012 113.1634997  33.9169988  13.3640012 112.5304997  33.6769988
  13.0090012 113.5644997  34.7239988  12.8231637 113.1311154  33.9932793
  17.6040012  95.7524997  32.9969988  16.7920012  96.0774997  32.6089988
  17.8370012  94.9924997  32.4639988  17.5243423  95.6942436  32.8718253
   3.4330012 113.7344997  31.7609988   2.7120012 114.1744997  31.3099988
   3.0670012 113.4834997  32.6099988   3.2849804 113.7607698  31.8139840
   5.9000012 113.3344997  30.7909988   5.0350012 113.4064997  31.1949988
   5.8450012 113.8814997  30.0069988   5.7742085 113.4182685  30.7403362
  10.6100012 113.2224997  29.9659988  10.1540012 113.7514997  29.3119988
  10.7730012 113.8254997  30.6919988  10.5695585 113.3764468  29.9745062
  12.9380012 112.1004997  30.9109988  12.0330012 112.2654997  30.6459988
  13.3670012 112.9534997  30.8459988  12.8720799 112.2384483  30.8659182
  15.5420012 113.6704997  31.2059988  15.3600012 114.5864997  30.9959988
  15.7190012 113.2604997  30.3599988  15.5410210 113.7404822  31.0627885
   2.8470012 112.3574997  28.6709988   2.8290012 111.9324997  29.5289988
   3.6520012 112.0394997  28.2629988   2.9533875 112.2563812  28.7331655
   4.9890012 111.0674997  27.3259988   4.7700012 110.1514997  27.4959988
   5.8130012 111.2074997  27.7919988   5.0704420 110.9610520  27.4122774
   7.5260012 111.5374997  28.1749988   7.7390012 110.6494997  27.8879988
   7.5900012 111.5034997  29.1289988   7.5638232 111.4113102  28.2647397
  11.0340012  97.2014997  27.3189988  10.3600012  96.5724997  27.5749988
  11.5980012  96.7174997  26.7159988  11.0179230  97.0498744  27.2725340
  16.1770012  95.3094997  27.4319988  16.7810012  95.8564997  26.9299988
  15.3070012  95.6284997  27.1919988  16.1421241  95.4275806  27.3307654
  17.9040012  96.4474997  25.7649988  18.5160012  95.9334997  25.2389988
  18.2860012  97.3254997  25.7889988  18.0394540  96.4957140  25.6961830
   3.3610012  95.8354997  25.1409988   2.5840012  95.6014997  24.6339988
   3.8910012  95.0384997  25.1499988   3.3262330  95.6956988  25.0727742
   2.1970012  95.6334997  20.9449988   2.6360012  96.2444997  20.3529988
   1.5640012  96.1714997  21.4189988   2.1714514  95.7899257  20.9280930
   7.9400012  95.7624997  24.9549988   8.8150012  96.1504997  24.9249988
   7.8040012  95.5474997  25.8769988   8.0413695  95.7865184  25.0756440
  13.4970012  95.7924997  26.6039988  13.5730012  95.8874997  25.6539988
  13.2220012  94.8844997  26.7329988  13.4702321  95.6827867  26.4915079
  14.8500012  95.8184997  22.2959988  14.1480012  96.4334997  22.0869988
  14.4060012  94.9804997  22.4269988  14.6936330  95.7895783  22.2850328
   2.0980012 111.5814997  21.8429988   1.4130012 111.5434997  21.1749988
   2.1020012 112.4944997  22.1309988   2.0048193 111.6997016  21.7905284
   4.0580012  97.5494997  19.3869988   4.5500012  96.9194997  18.8599988
   4.6820012  97.8454997  20.0509988   4.2095446  97.5033199  19.4045980
   9.0840012  97.8424997  21.8439988   9.2620012  97.1964997  22.5269988
   9.0310012  98.6764997  22.3119988   9.1011829  97.8667985  22.0005940
  10.9630012 112.7914997  20.2399988  11.8290012 113.1574997  20.0619988
  10.7160012 112.3514997  19.4259988  11.0482392 112.7821756  20.1056289
  17.6720012 112.3544997  22.9189988  17.4770012 111.6064997  22.3539988
  17.6330012 113.1124997  22.3359988  17.6400380 112.3546099  22.7628384
   3.3190012  96.3494997  34.6589988   2.9530012  95.5844997  35.1019988
   4.2320012  96.3784997  34.9459988   3.3922790  96.2487224  34.7584070
   5.2920012  95.7004997  36.1949988   6.1900012  95.4264997  36.0099988
   4.9050012  94.9574997  36.6589988   5.3626612  95.5625914  36.2323643
   3.9160012 112.5014997  18.8679988   3.6490012 112.7884997  19.7409988
   4.6880012 111.9554997  19.0199988   3.9837488 112.4670294  19.0081050
  13.7130012  95.0324997  36.3769988  13.7900012  94.6064997  37.2309988
  14.6070012  95.0464997  36.0339988  13.8443428  94.9760879  36.4475310
  16.8890012 111.1054997  35.0689988  16.1070012 110.9194997  34.5499988
  16.8170012 112.0344997  35.2869988  16.7721777 111.2056492  35.0274048
  31.2950012 104.9914997  25.0999988  31.3840012 105.9354997  24.9679988
  30.6570012 104.7164997  24.4419988  31.2209081 105.0834830  24.9929614
  30.2280012 104.2464997  28.5189988  30.1900012 103.6004997  29.2239988
  29.9060012 103.7804997  27.7479988  30.1792333 104.0949408  28.5112978
  22.5970012 103.8614997  30.1119988  22.6380012 103.2354997  30.8349988
  23.3000012 104.4854997  30.2939988  22.6976363 103.8601196  30.2356044
  33.9340012 107.1854997  26.8199988  33.4940012 106.4654997  27.2709988
  33.9210012 107.9064997  27.4499988  33.8720226 107.1843731  26.9668494
  23.5200012 108.3114997  28.6469988  23.1510012 107.5094997  28.2769988
  24.4610012 108.1424997  28.6929988  23.5967289 108.1790153  28.6026316
  20.1300012 101.9714997  24.0399988  19.6830012 102.8174997  24.0209988
  19.5690012 101.3914997  23.5239988  19.9929900 102.0089916  23.9676801
  20.8410012 104.1334997  26.1659988  21.0540012 103.3634997  26.6929988
  21.5790012 104.2224997  25.5619988  20.9698496 104.0401394  26.1565300
  31.0460012 112.2904997  27.0329988  31.6660012 111.6134997  26.7589988
  30.8380012 112.0724997  27.9409988  31.1026904 112.1683870  27.1183365
  28.6180012 106.6794997  28.9249988  28.9220012 105.9934997  28.3299988
  29.3390012 106.7974997  29.5429988  28.7570671 106.6016305  28.9271816
  37.2810012  98.2804997  29.7859988  37.3300012  98.8904997  30.5219988
  37.7060012  98.7414997  29.0629988  37.3451824  98.4263741  29.7890205
  31.7590012 101.0734997  29.2529988  31.9010012 100.1274997  29.2729988
  31.6520012 101.2804997  28.3239988  31.7639864 100.9719534  29.1302339
  24.9130012  99.1744997  26.5249988  24.9570012 100.0344997  26.1069988
  24.4560012  98.6224997  25.8909988  24.8572185  99.2175799  26.3820299
  32.6360012  99.3054997  24.9259988  33.2820012  98.9764997  25.5509988
  33.1460012  99.8234997  24.3029988  32.7934264  99.3304611  24.9273862
  21.5340012 101.5714997  27.2869988  22.1870012 101.0214997  27.7189988
  21.5580012 101.2974997  26.3699988  21.6266683 101.4591466  27.2222123
  26.6900012 103.1214997  26.5019988  27.3060012 102.5954997  27.0119988
  26.1040012 102.4814997  26.0989988  26.6950810 102.9629208  26.5173173
  37.6720012  99.7584997  32.0219988  36.9840012 100.4164997  31.9259988
  37.6880012  99.5614997  32.9579988  37.5798525  99.8220462  32.1354808
  23.7240012  98.0924997  30.5989988  23.5050012  98.6224997  29.8329988
  23.0560012  98.3194997  31.2459988  23.6037600  98.1956906  30.5816379
  31.0930012 107.5924997  24.1429988  30.7970012 107.2704997  23.2919988
  30.7680012 108.4924997  24.1839988  31.0086371 107.6700215  24.0321801
  26.2930012 105.7684997  30.8859988  25.5530012 106.3664997  30.9899988
  27.0070012 106.3224997  30.5709988  26.2882237 105.9252831  30.8576465
  34.4000012  98.5964997  26.9059988  34.1840012  97.8304997  27.4389988
  35.0550012  99.0684997  27.4189988  34.4590632  98.5555889  27.0482861
  23.3170012  99.9844997  28.5509988  23.9310012 100.6174997  28.9249988
  23.8290012  99.5124997  27.8949988  23.4702296 100.0072370  28.5134252
  24.7000012 107.7324997  31.6739988  24.6950012 108.6124997  31.2959988
  23.8470012 107.6494997  32.0989988  24.5839464 107.8416117  31.6797907
  20.8210012 107.4034997  22.4559988  20.5490012 107.6324997  21.5669988
  20.8670012 108.2414997  22.9159988  20.7900094 107.5481213  22.3965697
  34.4460012 109.0254997  29.1679988  33.5050012 109.0834997  29.3299988
  34.7230012 109.9314997  29.0309988  34.3544679 109.1559443  29.1716815
  34.7470012  97.3114997  30.5859988  34.0110012  97.9224997  30.5479988
  35.4300012  97.7264997  30.0589988  34.7386541  97.4511374  30.5095832
  27.7500012  95.3984997  28.0519988  27.6330012  94.4494997  27.9969988
  26.8950012  95.7304997  28.3249988  27.6183733  95.3135409  28.0813897
  32.6980012 110.8064997  25.7939988  33.1240012 110.0994997  25.3089988
  33.0150012 111.6074997  25.3769988  32.7991019 110.8180994  25.6713130
  33.8580012 108.7074997  24.3019988  33.6000012 108.0174997  23.6909988
  33.9290012 108.2644997  25.1479988  33.8322856 108.5532124  24.3326885
  35.5440012 107.2734997  32.7799988  35.6840012 106.6824997  32.0399988
  35.7110012 108.1464997  32.4229988  35.5856778 107.3106426  32.6306965
  30.0170012 104.2354997  22.5519988  29.3050012 104.7704997  22.1999988
  30.7080012 104.2914997  21.8919988  30.0130132 104.3162543  22.4146289
  30.0700012 102.6934997  19.5909988  30.7710012 102.7154997  20.2419988
  30.3730012 102.0654997  18.9349988  30.2067830 102.6116566  19.5913711
  37.3860012 103.6134997  30.8459988  36.7330012 104.3084997  30.9349988
  37.8510012 103.8234997  30.0359988  37.3595390 103.7369425  30.7486883
  33.4220012 104.4454997  23.5039988  32.6900012 104.6734997  24.0769988
  33.8700012 103.7314997  23.9589988  33.3823095 104.3802571  23.6439119
  33.3200012 102.6194997  32.5709988  33.4000012 103.3824997  33.1429988
  32.7180012 102.8984997  31.8809988  33.2495756 102.7617134  32.5560589
  25.0680012 105.0754997  25.3859988  24.7370012 104.7054997  24.5679988
  25.6560012 104.4054997  25.7329988  25.1021873 104.9341156  25.3208102
  26.4340012 108.5034997  28.0679988  26.3400012 107.9254997  27.3109988
  27.1640012 108.1324997  28.5639988  26.5197981 108.3742390  28.0314165
  25.4340012 103.8444997  29.0199988  26.0000012 103.9654997  28.2569988
  25.7530012 104.4814997  29.6589988  25.5545786 103.9471884  29.0020040
  31.7430012 109.3474997  29.7539988  31.5030012 110.0094997  30.4019988
  31.5450012 108.5134997  30.1789988  31.6833808 109.3253134  29.9001524
  26.3140012 108.2434997  33.7369988  26.0030012 109.0254997  34.1919988
  25.6640012 108.0904997  33.0509988  26.1835558 108.3299105  33.7065871
  32.2930012 103.6074997  21.1889988  32.8730012 103.7574997  21.9359988
  32.7070012 104.0784997  20.4659988  32.4282830 103.6916841  21.1934134
  23.2340012 104.4414997  32.9659988  23.3050012 105.0924997  33.6639988
  22.3440012 104.5444997  32.6309988  23.1233117 104.5445936  33.0162700
  30.0200012 110.3444997  24.6239988  30.4940012 110.6394997  25.4019988
  29.4570012 111.0824997  24.3909988  30.0087653 110.4846932  24.6990136
  24.5540012 110.3154997  34.4999988  24.5610012 110.1794997  33.5529988
  23.6380012 110.1974997  34.7519988  24.4311714 110.2809430  34.4044666
  35.9920012  95.3574997  21.0019988  35.0920012  95.4964997  21.2969988
  36.2440012  96.1884997  20.5999988  35.9028702  95.4889074  20.9880205
  24.0580012 104.1454997  22.9759988  23.7660012 104.9134997  22.4849988
  23.3840012 103.4854997  22.8129988  23.9269081 104.1614406  22.8867340
  37.1810012 109.7234997  19.3779988  37.2550012 110.6624997  19.5489988
  38.0870012 109.4184997  19.3219988  37.3135100 109.8106722  19.3938119
  20.1510012 106.5084997  31.7909988  19.6500012 106.4804997  30.9759988
  20.1560012 105.6024997  32.0999988  20.0831526 106.3822278  31.7212872
  19.9010012 109.2884997  28.6749988  20.8470012 109.1444997  28.6559988
  19.7890012 110.0724997  29.2119988  20.0152727 109.3748046  28.7450072
  38.0990012 109.9544997  34.3569988  38.0500012 108.9994997  34.3199988
  37.2720012 110.2224997  34.7579988  37.9804940 109.8598998  34.4061375
  29.0780012 109.5284997  33.2329988  29.1650012 110.3544997  33.7079988
  28.2140012 109.1984997  33.4819988  28.9731964 109.5969878  33.3316549
  29.4920012 113.3004997  23.0389988  29.4170012 113.1794997  22.0929988
  29.5250012 114.2504997  23.1579988  29.4861848 113.4122500  22.9254834
  23.1450012 112.0894997  24.8199988  23.2980012 111.7414997  25.6989988
  22.2950012 111.7334997  24.5649988  23.0508962 111.9936650  24.9058340
  32.5940012 112.4544997  20.0409988  32.9690012 111.7104997  19.5709988
  32.5980012 112.1844997  20.9599988  32.6458915 112.3161486  20.1007824
  32.2630012 112.3804997  22.7909988  31.3270012 112.4804997  22.9689988
  32.5430012 111.6714997  23.3689988  32.1728255 112.2982711  22.8935391
  35.2510012 101.4474997  34.8369988  34.8440012 101.9284997  34.1159988
  35.2920012 100.5424997  34.5289988  35.2008437 101.3909374  34.6966683
  22.4000012 107.8314997  32.8339988  22.6160012 107.4704997  33.6929988
  21.5450012 107.4574997  32.6239988  22.3139292 107.7314111  32.9233386
  25.0190012  96.3014997  28.8289988  24.1570012  96.2144997  28.4219988
  24.9960012  97.1574997  29.2569988  24.8980330  96.4052765  28.8311863
  29.6820012  96.0234997  32.2039988  30.1020012  95.6084997  32.9569988
  28.7490012  95.8454997  32.3209988  29.6133644  95.9425900  32.3229539
  33.0080012  99.7794997  33.0569988  32.4940012  99.6534997  33.8549988
  32.8530012 100.6914997  32.8129988  32.9166852  99.8856132  33.1332158
  33.7710012 104.6404997  18.8189988  33.8130012 104.4174997  17.8889988
  34.6200012 105.0394997  19.0089988  33.8915396 104.6639155  18.7173627
  29.3430012  98.5164997  19.4889988  29.0900012  98.5354997  20.4119988
  29.0870012  97.6444997  19.1879988  29.2737790  98.4012437  19.5746263
  25.1100012 101.2674997  29.9239988  24.4680012 101.2264997  30.6329988
  25.1470012 102.1934997  29.6869988  25.0271324 101.3871559  29.9889824
  25.1070012 101.4884997  24.8359988  24.2140012 101.1474997  24.7779988
  25.5570012 101.1114997  24.0809988  25.0457305 101.3908484  24.7259177
  30.6420012 101.9044997  23.6529988  30.2330012 102.7194997  23.3619988
  31.3630012 101.7644997  23.0389988  30.6834537 101.9972018  23.5301342
  29.7440012 102.0794997  35.1409988  29.1820012 101.3754997  35.4619988
  30.5710012 101.9594997  35.6089988  29.7787095 101.9667883  35.2482330
  31.6470012 101.3504997  26.4669988  31.4520012 101.9554997  25.7519988
  31.8280012 100.5164997  26.0329988  31.6447614 101.3206300  26.3104405
  22.8600012 101.5874997  31.7909988  22.8220012 101.9874997  32.6599988
  22.3690012 100.7704997  31.8819988  22.7884684 101.5318069  31.9221059
  26.2260012  98.9614997  18.5899988  25.7950012  98.5164997  19.3199988
  25.5080012  99.3334997  18.0779988  26.0699438  98.9508940  18.6206799
  19.4680012  98.7034997  25.6419988  20.0990012  98.6744997  26.3609988
  19.9170012  98.2784997  24.9119988  19.6150774  98.6420492  25.6416553
  20.7420012  99.4494997  21.0659988  21.2160012 100.0404997  20.4809988
  20.0250012  99.9804997  21.4129988  20.7099341  99.6020867  21.0328836
  30.9110012 102.9884997  31.1389988  31.2340012 102.3574997  30.4959988
  30.4710012 102.4534997  31.7989988  30.8956895 102.8298441  31.1402850
  27.6880012  98.9154997  25.9229988  26.7770012  98.9724997  26.2109988
  28.1940012  98.8554997  26.7329988  27.6315413  98.9151985  26.0720622
  22.5170012 100.5444997  24.7489988  21.6270012 100.6444997  24.4089988
  22.8130012  99.7024997  24.4029988  22.4352823 100.4443545  24.6557213
  26.1700012 100.5444997  22.4059988  27.1010012 100.6734997  22.5839988
  25.9550012 101.2144997  21.7559988  26.2684247 100.6526565  22.3425747
  32.0930012  98.1504997  29.1869988  31.4170012  98.2814997  29.8509988
  31.6080012  97.9954997  28.3769988  31.9347145  98.1474905  29.1684517
  24.8440012 101.7394997  19.9729988  24.3010012 101.3594997  19.2809988
  25.6770012 101.9334997  19.5439988  24.8824399 101.7138124  19.8204526
  35.3810012 113.8224997  35.4639988  35.5810012 114.2464997  34.6289988
  36.0360012 114.1654997  36.0709988  35.4970051 113.9269648  35.4317836
  22.9790012 106.2964997  35.0719988  23.7110012 106.5504997  35.6329988
  22.1990012 106.5004997  35.5869988  22.9738232 106.3589177  35.2185760
  29.0080012 101.7034997  27.8099988  29.5730012 101.1564997  27.2629988
  28.8610012 101.1814997  28.5979988  29.0652918 101.5582024  27.8418454
  24.0100012  97.8394997  24.2279988  23.6930012  96.9374997  24.1929988
  24.7920012  97.8414997  23.6749988  24.0722284  97.7161628  24.1484783
  27.6350012 100.0914997  30.2239988  26.7990012 100.5454997  30.3339988
  28.1590012 100.3674997  30.9759988  27.5914414 100.1909376  30.3407136
  28.1790012 106.3044997  21.9079988  27.4340012 105.7974997  21.5859988
  28.0450012 106.3534997  22.8549988  28.0588776 106.2416940  21.9918647
  35.3290012 105.4374997  30.6949988  35.9710012 105.8944997  30.1509988
  34.4990012 105.5504997  30.2319988  35.3045963 105.5152704  30.5580177
  32.0770012  99.1184997  20.1079988  31.1380012  99.2304997  19.9559988
  32.3740012  99.9754997  20.4139988  31.9887666  99.2496443  20.1285768
  29.6980012 106.4884997  33.1449988  29.3530012 106.1074997  33.9519988
  29.4980012 107.4224997  33.2169988  29.6238061 106.5625228  33.2650961
  32.7950012 100.9854997  21.7679988  33.6870012 100.8484997  22.0869988
  32.8520012 101.7764997  21.2319988  32.9246285 101.0736660  21.7391691
  23.3040012 105.5994997  27.6779988  24.0490012 105.5974997  27.0769988
  23.3820012 104.7764997  28.1599988  23.4165518 105.4879315  27.6608929
  30.3050012 107.7634997  20.9339988  30.0090012 108.5894997  21.3149988
  29.6020012 107.1434997  21.1299988  30.1694914 107.7928199  21.0126443
  20.3120012 104.0604997  32.9929988  20.5350012 103.6424997  33.8249988
  19.7100012 103.4474997  32.5699988  20.2611759 103.9204668  33.0497022
  27.3280012 103.5774997  35.2059988  27.0320012 103.4114997  34.3109988
  28.2600012 103.3574997  35.1949988  27.4134166 103.5250640  35.0820536
  31.9490012 108.9504997  33.0959988  31.0480012 109.1334997  32.8279988
  31.9830012 109.2094997  34.0169988  31.8303041 109.0105512  33.1838197
  37.6800012 101.1954997  21.4629988  37.1260012 100.7994997  20.7909988
  37.7800012 102.1054997  21.1849988  37.6177059 101.2643586  21.3334401
  37.6430012 106.9954997  34.2999988  36.7920012 107.2334997  33.9329988
  38.2340012 106.9784997  33.5469988  37.6062487 107.0258258  34.1478893
  35.9750012 109.9814997  21.9279988  35.6020012 109.1554997  22.2369988
  36.2530012 109.7984997  21.0309988  35.9615630 109.8437303  21.8489626
  33.1360012 104.7894997  28.9489988  32.2070012 104.5574997  28.9219988
  33.5870012 104.0124997  28.6189988  33.0699216 104.6527238  28.9006917
  25.6790012 109.1174997  25.0819988  26.2060012 109.8904997  24.8819988
  24.7990012 109.3424997  24.7809988  25.6321773 109.2538005  25.0139010
  21.4340012 103.9794997  19.6689988  22.0500012 104.6064997  20.0489988
  20.5720012 104.2954997  19.9409988  21.4017698 104.1079430  19.7577183
  27.1060012 106.7804997  24.6589988  26.8650012 107.7054997  24.6999988
  26.3650012 106.3214997  25.0549988  26.9728409 106.8451421  24.7181377
  27.6210012 110.9294997  30.9739988  27.9830012 111.7844997  30.7399988
  28.1520012 110.6374997  31.7139988  27.7424473 111.0071060  31.0420855
  25.7890012 111.8024997  24.2039988  24.8390012 111.9074997  24.2549988
  26.1410012 112.6224997  24.5489988  25.7064203 111.9278314  24.2576650
  31.1650012 107.0284997  30.6739988  30.7390012 106.8014997  31.5009988
  31.7450012 106.2904997  30.4919988  31.1851868 106.8975299  30.7625830
  33.3680012 107.9574997  19.7479988  33.7210012 107.5774997  20.5529988
  32.4190012 107.8644997  19.8349988  33.2880441 107.8929596  19.8698559
  33.8230012 111.5804997  33.1439988  33.2220012 111.0254997  32.6479988
  34.1050012 112.2474997  32.5179988  33.7788519 111.5946841  32.9914952
  37.8710012 112.4374997  19.9489988  38.6150012 113.0234997  19.8089988
  37.1770012 113.0054997  20.2829988  37.8790292 112.5945582  19.9749961
  21.9460012  98.8134997  32.5509988  21.0530012  99.1524997  32.4829988
  21.8470012  97.9584997  32.9689988  21.8104164  98.7442588  32.5982235
  34.2340012 106.6304997  21.9749988  33.9560012 105.9024997  22.5309988
  35.1610012 106.7494997  22.1799988  34.3213124 106.5468802  22.0788845
  21.5970012 110.6184997  30.9859988  21.8140012 109.6864997  30.9549988
  21.8430012 110.8924997  31.8689988  21.6599549 110.5280636  31.1011763
  27.4590012 109.0694997  18.1949988  27.6980012 108.3214997  17.6479988
  27.1900012 108.6814997  19.0279988  27.4553675 108.9146638  18.2326865
  26.3960012 108.6394997  20.6519988  26.5420012 108.1194997  21.4419988
  26.3930012 109.5464997  20.9579988  26.4155989 108.6908853  20.8016088
  22.8490012 105.8924997  21.1619988  22.1630012 106.2444997  21.7289988
  23.3710012 106.6554997  20.9149988  22.8256852 106.0438578  21.2062118
  30.6800012  98.5544997  31.4409988  31.3790012  98.6284997  32.0909988
  30.2990012  97.6904997  31.5949988  30.7241767  98.4477624  31.5508322
  31.4650012  98.2064997  22.5379988  31.6850012  98.6784997  21.7349988
  32.0230012  98.6014997  23.2079988  31.5704968  98.3244285  22.5187331
  29.1330012 110.3374997  21.4009988  28.3170012 110.8344997  21.4529988
  29.6630012 110.8124997  20.7609988  29.0929161 110.4697722  21.3215956
  28.6650012  99.9344997  23.3729988  29.4770012 100.4394997  23.4189988
  28.4200012  99.7894997  24.2869988  28.7430520  99.9840375  23.5028517
  29.2000012 100.9204997  32.5579988  29.3190012 101.4944997  33.3149988
  29.8560012 100.2324997  32.6719988  29.3049757 100.9061079  32.6770825
  29.5480012  97.0154997  24.3109988  29.2020012  97.6334997  24.9559988
  30.2070012  97.5164997  23.8299988  29.5897826  97.1675802  24.3340971
  26.4720012 111.3814997  21.3829988  26.6320012 112.1804997  20.8819988
  26.2740012 111.6874997  22.2679988  26.4671649 111.5324469  21.4339815
  25.2060012  98.0784997  20.9979988  25.1230012  98.9674997  21.3449988
  26.0960012  97.8134997  21.2299988  25.3149469  98.1641430  21.0767626
  35.4050012  98.8274997  33.3929988  34.4880012  99.0904997  33.3049988
  35.7400012  98.8244997  32.4959988  35.3249900  98.8630224  33.2597919
  34.0070012 102.5784997  27.4879988  33.2090012 102.1634997  27.1599988
  34.4520012 101.8874997  27.9789988  33.9579885 102.4283543  27.5094889
  23.4650012 108.5064997  20.0589988  24.0570012 109.2054997  20.3349988
  23.9240012 108.0734997  19.3389988  23.6081142 108.5437049  19.9994830
  21.7810012 101.1704997  19.1749988  21.7360012 102.1094997  19.3529988
  20.8930012 100.9344997  18.9049988  21.6548574 101.2671892  19.1628912
  35.0930012 111.8344997  29.1109988  34.9380012 112.5124997  28.4539988
  36.0260012 111.9064997  29.3139988  35.1978500 111.9370170  29.0485119
  22.5890012  95.9524997  27.8479988  22.3600012  96.0114997  26.9199988
  22.1460012  95.1604997  28.1539988  22.4978530  95.8535753  27.7624786
  21.5190012 109.8924997  24.0079988  20.6870012 110.3654997  24.0359988
  22.0650012 110.4024997  23.4099988  21.4789739 110.0261871  23.9309716
  20.8070012 112.5054997  35.3379988  21.3480012 112.2884997  36.0979988
  20.3260012 111.6994997  35.1489988  20.8159345 112.3669514  35.4163076
  25.4050012 111.4244997  36.9589988  26.1720012 110.9654997  37.2999988
  25.3830012 111.1984997  36.0289988  25.5071434 111.3310409  36.8800043
  29.4970012 110.9324997  18.3339988  28.8530012 110.3014997  18.6549988
  30.2590012 110.4014997  18.1019988  29.5118077 110.7742920  18.3466011
  31.9820012 109.8044997  35.6879988  31.6310012 108.9484997  35.9309988
  32.7080012 109.9474997  36.2949988  32.0320769 109.7065636  35.8033619
  34.1010012 110.7494997  18.5679988  34.3840012 109.9554997  19.0199988
  34.8410012 110.9824997  18.0069988  34.2397486 110.6722803  18.5540698
  20.7140012 106.3154997  36.2929988  20.8580012 105.4134997  36.0059988
  19.9420012 106.6014997  35.8049988  20.6293322 106.2308261  36.1877881
  25.0560012 106.6594997  18.4249988  25.1200012 105.8654997  18.9559988
  25.7090012 106.5404997  17.7349988  25.1530241 106.5347148  18.4044317
  27.3700012 106.2854997  35.7249988  27.0410012 106.5564997  34.8679988
  27.5220012 105.3444997  35.6379988  27.3454809 106.1953862  35.5958244
  30.4080012 107.7064997  18.1609988  30.1390012 107.8864997  19.0619988
  30.2020012 106.7804997  18.0299988  30.3433825 107.6060152  18.2665214
  33.1040012 106.2014997  33.1089988  33.8500012 106.7894997  32.9889988
  32.3470012 106.7834997  33.1719988  33.1037554 106.3607011  33.1010907
  21.5470012 103.5154997  35.7129988  21.9550012 102.6584997  35.5919988
  21.2870012 103.5304997  36.6339988  21.5677568 103.4000807  35.8209588
  26.2050012 104.6314997  20.7309988  25.7450012 104.1474997  21.4169988
  26.4600012 103.9634997  20.0949988  26.1764902 104.4748731  20.7389334
  25.4940012 102.5244997  33.0869988  24.8760012 103.1994997  33.3669988
  25.8380012 102.8454997  32.2539988  25.4559615 102.6602721  33.0126581
  27.2760012 102.8744997  18.9929988  27.0960012 102.7204997  18.0659988
  28.2260012 102.9824997  19.0379988  27.3797776 102.8680175  18.8721843
  30.5140012 104.9964997  36.3639988  31.4670012 105.0794997  36.3369988
  30.3530012 104.2844997  36.9839988  30.6226426 104.9116746  36.4440579
  36.6660012 105.2294997  18.4389988  36.3920012 104.8044997  17.6259988
  36.7050012 106.1604997  18.2219988  36.6337699 105.2972484  18.2983610
  25.8330012  99.8794997  34.1689988  25.9830012  99.1504997  33.5669988
  25.8360012 100.6564997  33.6099988  25.8539302  99.8847851  34.0110692
  26.2460012  98.2494997  31.6619988  26.7820012  98.7004997  31.0099988
  25.3940012  98.1414997  31.2389988  26.2042178  98.2966390  31.5155756
  27.8280012 103.6884997  31.9009988  28.5780012 103.5324997  31.3279988
  27.4890012 104.5404997  31.6259988  27.8848921 103.7822968  31.7853561
  32.2430012 101.5034997  36.9299988  32.4360012 100.5724997  36.8179988
  33.1010012 101.9284997  36.9199988  32.3853020 101.4336389  36.9133361
  33.5600012 104.2924997  35.0069988  33.2790012 105.0014997  34.4299988
  34.5030012 104.2194997  34.8559988  33.6489027 104.3797646  34.9075551
  24.3120012 101.0774997  36.0809988  23.5450012 100.5454997  35.8709988
  24.9910012 100.7674997  35.4809988  24.2987022 100.9627506  35.9711648
  27.0520012  95.7054997  32.0929988  26.9530012  96.6524997  31.9879988
  26.3090012  95.3334997  31.6179988  26.9380563  95.7845902  32.0144560
  28.3160012 100.0274997  35.6569988  28.0800012  99.8074997  36.5589988
  27.5320012  99.8204997  35.1469988  28.1778628  99.9694760  35.7113932
  31.0310012  99.1544997  34.7329988  30.0840012  99.1864997  34.8649988
  31.3440012  98.5294997  35.3859988  30.9435475  99.0743207  34.8394455
  32.6650012  97.7884997  36.7379988  32.5690012  96.8364997  36.7319988
  32.3440012  98.0574997  37.5979988  32.6084070  97.6944035  36.8535441
  22.4920012  98.9984997  35.7849988  22.7040012  98.2914997  35.1749988
  22.3810012  98.5604997  36.6289988  22.5059721  98.8427084  35.8156843
  27.2730012  94.9994997  34.7649988  27.9850012  94.3594997  34.7509988
  27.1720012  95.2664997  33.8509988  27.3567939  94.9479938  34.6395650
  27.6270012  96.6824997  36.8179988  27.4950012  96.2064997  35.9979988
  27.0280012  97.4264997  36.7629988  27.5279071  96.7179618  36.6982886
  27.1730012 113.5654997  19.9949988  28.1060012 113.7234997  20.1379988
  26.9090012 114.2404997  19.3699988  27.2649510 113.6783611  19.9300741
  20.7420012 108.2014997  19.4769988  21.6560012 108.2804997  19.7509988
  20.7490012 107.5144997  18.8109988  20.8681131 108.1193961  19.4244393
  19.3910012 113.5944997  24.5549988  18.7440012 113.1324997  24.0219988
  19.7450012 112.9224997  25.1369988  19.3503849 113.4404723  24.5607959
  20.2610012 111.6754997  26.3589988  19.9260012 110.7954997  26.5309988
  20.4830012 112.0204997  27.2239988  20.2451783 111.6017500  26.4994208
  37.8090012 112.4844997  29.3399988  37.7880012 112.6694997  30.2789988
  38.5000012 113.0534997  28.9989988  37.8994618 112.5866606  29.4223864
  37.3730012 112.0524997  32.2619988  36.8850012 111.3164997  31.8909988
  37.9220012 111.6584997  32.9399988  37.3804872 111.8986249  32.3029160
  35.8230012 107.8414997  36.8999988  34.9570012 107.7364997  37.2939988
  36.2000012 108.6004997  37.3459988  35.7553308 107.9296900  37.0142393
  37.1240012 106.0984997  22.4139988  37.9740012 106.5194997  22.5409988
  37.1300012 105.3584997  23.0209988  37.2411372 106.0560803  22.5134344
  37.5190012 104.1514997  24.2379988  36.7920012 103.6724997  24.6349988
  38.1000012 104.3574997  24.9699988  37.4979375 104.1137090  24.3914129
  37.2780012 106.9364997  29.1849988  38.1110012 106.5584997  28.9049988
  37.3900012 107.8794997  29.0659988  37.4072647 107.0122218  29.1305487
  35.7640012 109.8144997  31.4919988  35.1170012 110.1394997  32.1179988
  35.2470012 109.3744997  30.8179988  35.6054029 109.7995004  31.4865827
  37.7870012 104.0524997  20.6289988  37.2650012 104.4094997  19.9099988
  37.7540012 104.7274997  21.3069988  37.7111634 104.1925413  20.6223145
  36.1360012 101.2924997  19.1799988  36.2320012 101.9594997  18.4989988
  35.9960012 100.4764997  18.6979988  36.1302135 101.2734500  19.0218491
  35.3050012 102.6724997  24.8009988  35.1550012 101.7274997  24.7799988
  34.9520012 102.9534997  25.6439988  35.2366625 102.5810441  24.9122346
  20.3410012 104.7504997  28.8109988  20.5250012 104.6684997  27.8749988
  21.1900012 104.6264997  29.2349988  20.4810139 104.7225003  28.7401455
  36.1620012 104.6424997  34.4389988  36.7450012 103.9084997  34.6309988
  36.7260012 105.4144997  34.4859988  36.3179769 104.6464227  34.4716159
  37.6580012 102.5454997  35.1239988  36.7950012 102.1664997  34.9579988
  38.2630012 101.8064997  35.0499988  37.6215979 102.3938023  35.0912817
  35.3830012  98.7004997  18.2969988  35.9940012  98.3294997  18.9339988
  34.5470012  98.2794997  18.4929988  35.3535032  98.5927554  18.4107035
  35.0160012 100.2554997  23.2629988  35.2960012  99.3484997  23.3869988
  35.7750012 100.6894997  22.8739988  35.1569277 100.1900942  23.2273682
  35.6280012 100.8364997  28.6989988  36.5610012 101.0484997  28.6649988
  35.3930012 100.9384997  29.6209988  35.7238036 100.8792769  28.8189976
  35.6570012 101.5734997  31.4749988  34.8140012 101.8414997  31.8409988
  36.0990012 102.3954997  31.2639988  35.6014158 101.7213291  31.4965491
  19.9380012 100.0214997  34.9519988  20.8580012  99.8994997  35.1879988
  19.4890012  99.2714997  35.3409988  20.0031580  99.9033727  35.0369006
  37.9400012  95.5534997  36.8279988  38.2900012  94.8994997  36.2229988
  38.0870012  96.3904997  36.3889988  38.0078419  95.5771591  36.6857118
  35.6290012  97.5184997  23.3109988  35.8120012  97.0694997  24.1369988
  35.0300012  96.9334997  22.8479988  35.5730202  97.3779975  23.3613275
  21.1590012  98.3334997  27.8429988  21.6050012  97.5414997  28.1449988
  21.6260012  99.0494997  28.2739988  21.2830172  98.3220624  27.9424820
  19.4630012 101.3324997  28.9119988  19.9550012 101.1114997  28.1209988
  19.8260012 102.1734997  29.1929988  19.5793126 101.4158357  28.8417531
  37.4600012  97.6624997  35.1779988  36.5420012  97.9334997  35.1419988
  37.5830012  97.1274997  34.3929988  37.3511066  97.6272892  35.0670487
  37.4960012  97.5854997  19.8389988  37.9080012  96.8644997  19.3639988
  38.1780012  98.2554997  19.8979988  37.6445885  97.5772368  19.7818915
  19.7770012  97.5904997  22.9659988  18.8520012  97.7994997  22.8369988
  20.2310012  98.0744997  22.2769988  19.7117368  97.6845993  22.8551226
  34.5480012 112.5744997  24.9119988  35.2000012 112.2274997  24.3039988
  35.0580012 113.0634997  25.5579988  34.7062637 112.5930597  24.9160236
  19.7410012  96.3284997  31.3109988  19.0760012  96.0824997  31.9539988
  19.2980012  96.9504997  30.7329988  19.5900956  96.3788632  31.3209352
  21.9330012 109.5034997  35.4549988  21.1120012 109.6784997  34.9949988
  21.6800012 109.4304997  36.3759988  21.7866164 109.5175622  35.5164923
  24.8870012 110.4784997  31.7139988  24.4620012 111.2874997  31.4309988
  25.7910012 110.5634997  31.4119988  24.9510271 110.6008469  31.6343776
  29.1980012 111.8774997  34.6729988  29.3830012 111.5434997  35.5509988
  30.0440012 112.1864997  34.3509988  29.3377539 111.8736047  34.7495605
  31.5430012 113.1634997  33.9169988  32.2200012 112.5304997  33.6769988
  31.8650012 113.5644997  34.7239988  31.6791637 113.1311154  33.9932793
  36.4600012  95.7524997  32.9969988  35.6480012  96.0774997  32.6089988
  36.6930012  94.9924997  32.4639988  36.3803423  95.6942436  32.8718253
  22.2890012 113.7344997  31.7609988  21.5680012 114.1744997  31.3099988
  21.9230012 113.4834997  32.6099988  22.1409804 113.7607698  31.8139840
  24.7560012 113.3344997  30.7909988  23.8910012 113.4064997  31.1949988
  24.7010012 113.8814997  30.0069988  24.6302085 113.4182685  30.7403362
  29.4660012 113.2224997  29.9659988  29.0100012 113.7514997  29.3119988
  29.6290012 113.8254997  30.6919988  29.4255585 113.3764468  29.9745062
  31.7940012 112.1004997  30.9109988  30.8890012 112.2654997  30.6459988
  32.2230012 112.9534997  30.8459988  31.7280799 112.2384483  30.8659182
  34.3980012 113.6704997  31.2059988  34.2160012 114.5864997  30.9959988
  34.5750012 113.2604997  30.3599988  34.3970210 113.7404822  31.0627885
  21.7030012 112.3574997  28.6709988  21.6850012 111.9324997  29.5289988
  22.5080012 112.0394997  28.2629988  21.8093875 112.2563812  28.7331655
  23.8450012 111.0674997  27.3259988  23.6260012 110.1514997  27.4959988
  24.6690012 111.2074997  27.7919988  23.9264420 110.9610520  27.4122773
  26.3820012 111.5374997  28.1749988  26.5950012 110.6494997  27.8879988
  26.4460012 111.5034997  29.1289988  26.4198231 111.4113102  28.2647397
  29.8900012  97.2014997  27.3189988  29.2160012  96.5724997  27.5749988
  30.4540012  96.7174997  26.7159988  29.8739230  97.0498744  27.2725340
  35.0330012  95.3094997  27.4319988  35.6370012  95.8564997  26.9299988
  34.1630012  95.6284997  27.1919988  34.9981241  95.4275806  27.3307654
  36.7600012  96.4474997  25.7649988  37.3720012  95.9334997  25.2389988
  37.1420012  97.3254997  25.7889988  36.8954540  96.4957140  25.6961830
  22.2170012  95.8354997  25.1409988  21.4400012  95.6014997  24.6339988
  22.7470012  95.0384997  25.1499988  22.1822330  95.6956988  25.0727742
  21.0530012  95.6334997  20.9449988  21.4920012  96.2444997  20.3529988
  20.4200012  96.1714997  21.4189988  21.0274514  95.7899257  20.9280930
  26.7960012  95.7624997  24.9549988  27.6710012  96.1504997  24.9249988
  26.6600012  95.5474997  25.8769988  26.8973695  95.7865184  25.0756440
  32.3530012  95.7924997  26.6039988  32.4290012  95.8874997  25.6539988
  32.0780012  94.8844997  26.7329988  32.3262321  95.6827867  26.4915079
  33.7060012  95.8184997  22.2959988  33.0040012  96.4334997  22.0869988
  33.2620012  94.9804997  22.4269988  33.5496330  95.7895783  22.2850328
  20.9540012 111.5814997  21.8429988  20.2690012 111.5434997  21.1749988
  20.9580012 112.4944997  22.1309988  20.8608193 111.6997016  21.7905284
  22.9140012  97.5494997  19.3869988  23.4060012  96.9194997  18.8599988
  23.5380012  97.8454997  20.0509988  23.0655446  97.5033199  19.4045980
  27.9400012  97.8424997  21.8439988  28.1180012  97.1964997  22.5269988
  27.8870012  98.6764997  22.3119988  27.9571829  97.8667985  22.0005940
  29.8190012 112.7914997  20.2399988  30.6850012 113.1574997  20.0619988
  29.5720012 112.3514997  19.4259988  29.9042392 112.7821756  20.1056289
  36.5280012 112.3544997  22.9189988  36.3330012 111.6064997  22.3539988
  36.4890012 113.1124997  22.3359988  36.4960380 112.3546099  22.7628384
  22.1750012  96.3494997  34.6589988  21.8090012  95.5844997  35.1019988
  23.0880012  96.3784997  34.9459988  22.2482790  96.2487224  34.7584070
  24.1480012  95.7004997  36.1949988  25.0460012  95.4264997  36.0099988
  23.7610012  94.9574997  36.6589988  24.2186612  95.5625914  36.2323643
  22.7720012 112.5014997  18.8679988  22.5050012 112.7884997  19.7409988
  23.5440012 111.9554997  19.0199988  22.8397488 112.4670294  19.0081050
  32.5690012  95.0324997  36.3769988  32.6460012  94.6064997  37.2309988
  33.4630012  95.0464997  36.0339988  32.7003428  94.9760879  36.4475310
  35.7450012 111.1054997  35.0689988  34.9630012 110.9194997  34.5499988
  35.6730012 112.0344997  35.2869988  35.6281777 111.2056492  35.0274048
  50.1510012 104.9914997  25.0999988  50.2400012 105.9354997  24.9679988
  49.5130012 104.7164997  24.4419988  50.0769081 105.0834830  24.9929614
  49.0840012 104.2464997  28.5189988  49.0460012 103.6004997  29.2239988
  48.7620012 103.7804997  27.7479988  49.0352333 104.0949408  28.5112978
  41.4530012 103.8614997  30.1119988  41.4940012 103.2354997  30.8349988
  42.1560012 104.4854997  30.2939988  41.5536363 103.8601196  30.2356044
  52.7900012 107.1854997  26.8199988  52.3500012 106.4654997  27.2709988
  52.7770012 107.9064997  27.4499988  52.7280226 107.1843731  26.9668494
  42.3760012 108.3114997  28.6469988  42.0070012 107.5094997  28.2769988
  43.3170012 108.1424997  28.6929988  42.4527289 108.1790153  28.6026316
  38.9860012 101.9714997  24.0399988  38.5390012 102.8174997  24.0209988
  38.4250012 101.3914997  23.5239988  38.8489900 102.0089916  23.9676801
  39.6970012 104.1334997  26.1659988  39.9100012 103.3634997  26.6929988
  40.4350012 104.2224997  25.5619988  39.8258496 104.0401394  26.1565300
  49.9020012 112.2904997  27.0329988  50.5220012 111.6134997  26.7589988
  49.6940012 112.0724997  27.9409988  49.9586904 112.1683870  27.1183365
  47.4740012 106.6794997  28.9249988  47.7780012 105.9934997  28.3299988
  48.1950012 106.7974997  29.5429988  47.6130671 106.6016304  28.9271816
  56.1370012  98.2804997  29.7859988  56.1860012  98.8904997  30.5219988
  56.5620012  98.7414997  29.0629988  56.2011824  98.4263741  29.7890205
  50.6150012 101.0734997  29.2529988  50.7570012 100.1274997  29.2729988
  50.5080012 101.2804997  28.3239988  50.6199863 100.9719534  29.1302339
  43.7690012  99.1744997  26.5249988  43.8130012 100.0344997  26.1069988
  43.3120012  98.6224997  25.8909988  43.7132185  99.2175799  26.3820299
  51.4920012  99.3054997  24.9259988  52.1380012  98.9764997  25.5509988
  52.0020012  99.8234997  24.3029988  51.6494264  99.3304611  24.9273862
  40.3900012 101.5714997  27.2869988  41.0430012 101.0214997  27.7189988
  40.4140012 101.2974997  26.3699988  40.4826683 101.4591466  27.2222123
  45.5460012 103.1214997  26.5019988  46.1620012 102.5954997  27.0119988
  44.9600012 102.4814997  26.0989988  45.5510810 102.9629208  26.5173173
  56.5280012  99.7584997  32.0219988  55.8400012 100.4164997  31.9259988
  56.5440012  99.5614997  32.9579988  56.4358525  99.8220462  32.1354808
  42.5800012  98.0924997  30.5989988  42.3610012  98.6224997  29.8329988
  41.9120012  98.3194997  31.2459988  42.4597600  98.1956906  30.5816379
  49.9490012 107.5924997  24.1429988  49.6530012 107.2704997  23.2919988
  49.6240012 108.4924997  24.1839988  49.8646371 107.6700215  24.0321801
  45.1490012 105.7684997  30.8859988  44.4090012 106.3664997  30.9899988
  45.8630012 106.3224997  30.5709988  45.1442237 105.9252831  30.8576465
  53.2560012  98.5964997  26.9059988  53.0400012  97.8304997  27.4389988
  53.9110012  99.0684997  27.4189988  53.3150632  98.5555889  27.0482861
  42.1730012  99.9844997  28.5509988  42.7870012 100.6174997  28.9249988
  42.6850012  99.5124997  27.8949988  42.3262296 100.0072370  28.5134252
  43.5560012 107.7324997  31.6739988  43.5510012 108.6124997  31.2959988
  42.7030012 107.6494997  32.0989988  43.4399464 107.8416117  31.6797907
  39.6770012 107.4034997  22.4559988  39.4050012 107.6324997  21.5669988
  39.7230012 108.2414997  22.9159988  39.6460094 107.5481213  22.3965697
  53.3020012 109.0254997  29.1679988  52.3610012 109.0834997  29.3299988
  53.5790012 109.9314997  29.0309988  53.2104679 109.1559443  29.1716815
  53.6030012  97.3114997  30.5859988  52.8670012  97.9224997  30.5479988
  54.2860012  97.7264997  30.0589988  53.5946541  97.4511374  30.5095832
  46.6060012  95.3984997  28.0519988  46.4890012  94.4494997  27.9969988
  45.7510012  95.7304997  28.3249988  46.4743733  95.3135409  28.0813897
  51.5540012 110.8064997  25.7939988  51.9800012 110.0994997  25.3089988
  51.8710012 111.6074997  25.3769988  51.6551019 110.8180994  25.6713130
  52.7140012 108.7074997  24.3019988  52.4560012 108.0174997  23.6909988
  52.7850012 108.2644997  25.1479988  52.6882856 108.5532124  24.3326885
  54.4000012 107.2734997  32.7799988  54.5400012 106.6824997  32.0399988
  54.5670012 108.1464997  32.4229988  54.4416778 107.3106426  32.6306965
  48.8730012 104.2354997  22.5519988  48.1610012 104.7704997  22.1999988
  49.5640012 104.2914997  21.8919988  48.8690132 104.3162543  22.4146289
  48.9260012 102.6934997  19.5909988  49.6270012 102.7154997  20.2419988
  49.2290012 102.0654997  18.9349988  49.0627830 102.6116566  19.5913711
  56.2420012 103.6134997  30.8459988  55.5890012 104.3084997  30.9349988
  56.7070012 103.8234997  30.0359988  56.2155390 103.7369425  30.7486883
  52.2780012 104.4454997  23.5039988  51.5460012 104.6734997  24.0769988
  52.7260012 103.7314997  23.9589988  52.2383095 104.3802571  23.6439119
  52.1760012 102.6194997  32.5709988  52.2560012 103.3824997  33.1429988
  51.5740012 102.8984997  31.8809988  52.1055756 102.7617134  32.5560589
  43.9240012 105.0754997  25.3859988  43.5930012 104.7054997  24.5679988
  44.5120012 104.4054997  25.7329988  43.9581873 104.9341156  25.3208102
  45.2900012 108.5034997  28.0679988  45.1960012 107.9254997  27.3109988
  46.0200012 108.1324997  28.5639988  45.3757981 108.3742390  28.0314165
  44.2900012 103.8444997  29.0199988  44.8560012 103.9654997  28.2569988
  44.6090012 104.4814997  29.6589988  44.4105786 103.9471884  29.0020040
  50.5990012 109.3474997  29.7539988  50.3590012 110.0094997  30.4019988
  50.4010012 108.5134997  30.1789988  50.5393808 109.3253134  29.9001524
  45.1700012 108.2434997  33.7369988  44.8590012 109.0254997  34.1919988
  44.5200012 108.0904997  33.0509988  45.0395558 108.3299105  33.7065871
  51.1490012 103.6074997  21.1889988  51.7290012 103.7574997  21.9359988
  51.5630012 104.0784997  20.4659988  51.2842830 103.6916841  21.1934134
  42.0900012 104.4414997  32.9659988  42.1610012 105.0924997  33.6639988
  41.2000012 104.5444997  32.6309988  41.9793117 104.5445936  33.0162700
  48.8760012 110.3444997  24.6239988  49.3500012 110.6394997  25.4019988
  48.3130012 111.0824997  24.3909988  48.8647653 110.4846932  24.6990136
  43.4100012 110.3154997  34.4999988  43.4170012 110.1794997  33.5529988
  42.4940012 110.1974997  34.7519988  43.2871714 110.2809430  34.4044666
  54.8480012  95.3574997  21.0019988  53.9480012  95.4964997  21.2969988
  55.1000012  96.1884997  20.5999988  54.7588702  95.4889074  20.9880205
  42.9140012 104.1454997  22.9759988  42.6220012 104.9134997  22.4849988
  42.2400012 103.4854997  22.8129988  42.7829081 104.1614406  22.8867340
  56.0370012 109.7234997  19.3779988  56.1110012 110.6624997  19.5489988
  56.9430012 109.4184997  19.3219988  56.1695100 109.8106722  19.3938119
  39.0070012 106.5084997  31.7909988  38.5060012 106.4804997  30.9759988
  39.0120012 105.6024997  32.0999988  38.9391526 106.3822278  31.7212872
  38.7570012 109.2884997  28.6749988  39.7030012 109.1444997  28.6559988
  38.6450012 110.0724997  29.2119988  38.8712727 109.3748046  28.7450072
  56.9550012 109.9544997  34.3569988  56.9060012 108.9994997  34.3199988
  56.1280012 110.2224997  34.7579988  56.8364940 109.8598998  34.4061375
  47.9340012 109.5284997  33.2329988  48.0210012 110.3544997  33.7079988
  47.0700012 109.1984997  33.4819988  47.8291964 109.5969878  33.3316549
  48.3480012 113.3004997  23.0389988  48.2730012 113.1794997  22.0929988
  48.3810012 114.2504997  23.1579988  48.3421848 113.4122500  22.9254834
  42.0010012 112.0894997  24.8199988  42.1540012 111.7414997  25.6989988
  41.1510012 111.7334997  24.5649988  41.9068962 111.9936650  24.9058340
  51.4500012 112.4544997  20.0409988  51.8250012 111.7104997  19.5709988
  51.4540012 112.1844997  20.9599988  51.5018915 112.3161486  20.1007824
  51.1190012 112.3804997  22.7909988  50.1830012 112.4804997  22.9689988
  51.3990012 111.6714997  23.3689988  51.0288255 112.2982711  22.8935391
  54.1070012 101.4474997  34.8369988  53.7000012 101.9284997  34.1159988
  54.1480012 100.5424997  34.5289988  54.0568437 101.3909374  34.6966683
  41.2560012 107.8314997  32.8339988  41.4720012 107.4704997  33.6929988
  40.4010012 107.4574997  32.6239988  41.1699292 107.7314111  32.9233386
  43.8750012  96.3014997  28.8289988  43.0130012  96.2144997  28.4219988
  43.8520012  97.1574997  29.2569988  43.7540330  96.4052765  28.8311863
  48.5380012  96.0234997  32.2039988  48.9580012  95.6084997  32.9569988
  47.6050012  95.8454997  32.3209988  48.4693644  95.9425900  32.3229539
  51.8640012  99.7794997  33.0569988  51.3500012  99.6534997  33.8549988
  51.7090012 100.6914997  32.8129988  51.7726852  99.8856132  33.1332158
  52.6270012 104.6404997  18.8189988  52.6690012 104.4174997  17.8889988
  53.4760012 105.0394997  19.0089988  52.7475396 104.6639155  18.7173627
  48.1990012  98.5164997  19.4889988  47.9460012  98.5354997  20.4119988
  47.9430012  97.6444997  19.1879988  48.1297790  98.4012437  19.5746263
  43.9660012 101.2674997  29.9239988  43.3240012 101.2264997  30.6329988
  44.0030012 102.1934997  29.6869988  43.8831324 101.3871559  29.9889824
  43.9630012 101.4884997  24.8359988  43.0700012 101.1474997  24.7779988
  44.4130012 101.1114997  24.0809988  43.9017305 101.3908484  24.7259177
  49.4980012 101.9044997  23.6529988  49.0890012 102.7194997  23.3619988
  50.2190012 101.7644997  23.0389988  49.5394537 101.9972018  23.5301342
  48.6000012 102.0794997  35.1409988  48.0380012 101.3754997  35.4619988
  49.4270012 101.9594997  35.6089988  48.6347095 101.9667883  35.2482330
  50.5030012 101.3504997  26.4669988  50.3080012 101.9554997  25.7519988
  50.6840012 100.5164997  26.0329988  50.5007614 101.3206300  26.3104405
  41.7160012 101.5874997  31.7909988  41.6780012 101.9874997  32.6599988
  41.2250012 100.7704997  31.8819988  41.6444684 101.5318069  31.9221059
  45.0820012  98.9614997  18.5899988  44.6510012  98.5164997  19.3199988
  44.3640012  99.3334997  18.0779988  44.9259438  98.9508940  18.6206799
  38.3240012  98.7034997  25.6419988  38.9550012  98.6744997  26.3609988
  38.7730012  98.2784997  24.9119988  38.4710774  98.6420492  25.6416553
  39.5980012  99.4494997  21.0659988  40.0720012 100.0404997  20.4809988
  38.8810012  99.9804997  21.4129988  39.5659341  99.6020867  21.0328836
  49.7670012 102.9884997  31.1389988  50.0900012 102.3574997  30.4959988
  49.3270012 102.4534997  31.7989988  49.7516895 102.8298441  31.1402850
  46.5440012  98.9154997  25.9229988  45.6330012  98.9724997  26.2109988
  47.0500012  98.8554997  26.7329988  46.4875413  98.9151985  26.0720622
  41.3730012 100.5444997  24.7489988  40.4830012 100.6444997  24.4089988
  41.6690012  99.7024997  24.4029988  41.2912823 100.4443545  24.6557213
  45.0260012 100.5444997  22.4059988  45.9570012 100.6734997  22.5839988
  44.8110012 101.2144997  21.7559988  45.1244247 100.6526565  22.3425747
  50.9490012  98.1504997  29.1869988  50.2730012  98.2814997  29.8509988
  50.4640012  97.9954997  28.3769988  50.7907145  98.1474905  29.1684517
  43.7000012 101.7394997  19.9729988  43.1570012 101.3594997  19.2809988
  44.5330012 101.9334997  19.5439988  43.7384399 101.7138124  19.8204526
  54.2370012 113.8224997  35.4639988  54.4370012 114.2464997  34.6289988
  54.8920012 114.1654997  36.0709988  54.3530051 113.9269648  35.4317836
  41.8350012 106.2964997  35.0719988  42.5670012 106.5504997  35.6329988
  41.0550012 106.5004997  35.5869988  41.8298232 106.3589177  35.2185760
  47.8640012 101.7034997  27.8099988  48.4290012 101.1564997  27.2629988
  47.7170012 101.1814997  28.5979988  47.9212918 101.5582024  27.8418454
  42.8660012  97.8394997  24.2279988  42.5490012  96.9374997  24.1929988
  43.6480012  97.8414997  23.6749988  42.9282284  97.7161628  24.1484783
  46.4910012 100.0914997  30.2239988  45.6550012 100.5454997  30.3339988
  47.0150012 100.3674997  30.9759988  46.4474414 100.1909376  30.3407136
  47.0350012 106.3044997  21.9079988  46.2900012 105.7974997  21.5859988
  46.9010012 106.3534997  22.8549988  46.9148776 106.2416940  21.9918647
  54.1850012 105.4374997  30.6949988  54.8270012 105.8944997  30.1509988
  53.3550012 105.5504997  30.2319988  54.1605963 105.5152704  30.5580177
  50.9330012  99.1184997  20.1079988  49.9940012  99.2304997  19.9559988
  51.2300012  99.9754997  20.4139988  50.8447666  99.2496443  20.1285768
  48.5540012 106.4884997  33.1449988  48.2090012 106.1074997  33.9519988
  48.3540012 107.4224997  33.2169988  48.4798061 106.5625228  33.2650961
  51.6510012 100.9854997  21.7679988  52.5430012 100.8484997  22.0869988
  51.7080012 101.7764997  21.2319988  51.7806285 101.0736660  21.7391691
  42.1600012 105.5994997  27.6779988  42.9050012 105.5974997  27.0769988
  42.2380012 104.7764997  28.1599988  42.2725518 105.4879315  27.6608929
  49.1610012 107.7634997  20.9339988  48.8650012 108.5894997  21.3149988
  48.4580012 107.1434997  21.1299988  49.0254914 107.7928199  21.0126443
  39.1680012 104.0604997  32.9929988  39.3910012 103.6424997  33.8249988
  38.5660012 103.4474997  32.5699988  39.1171759 103.9204668  33.0497022
  46.1840012 103.5774997  35.2059988  45.8880012 103.4114997  34.3109988
  47.1160012 103.3574997  35.1949988  46.2694166 103.5250640  35.0820536
  50.8050012 108.9504997  33.0959988  49.9040012 109.1334997  32.8279988
  50.8390012 109.2094997  34.0169988  50.6863041 109.0105512  33.1838197
  56.5360012 101.1954997  21.4629988  55.9820012 100.7994997  20.7909988
  56.6360012 102.1054997  21.1849988  56.4737059 101.2643586  21.3334401
  56.4990012 106.9954997  34.2999988  55.6480012 107.2334997  33.9329988
  57.0900012 106.9784997  33.5469988  56.4622487 107.0258258  34.1478893
  54.8310012 109.9814997  21.9279988  54.4580012 109.1554997  22.2369988
  55.1090012 109.7984997  21.0309988  54.8175630 109.8437303  21.8489626
  51.9920012 104.7894997  28.9489988  51.0630012 104.5574997  28.9219988
  52.4430012 104.0124997  28.6189988  51.9259216 104.6527238  28.9006917
  44.5350012 109.1174997  25.0819988  45.0620012 109.8904997  24.8819988
  43.6550012 109.3424997  24.7809988  44.4881773 109.2538005  25.0139010
  40.2900012 103.9794997  19.6689988  40.9060012 104.6064997  20.0489988
  39.4280012 104.2954997  19.9409988  40.2577698 104.1079430  19.7577183
  45.9620012 106.7804997  24.6589988  45.7210012 107.7054997  24.6999988
  45.2210012 106.3214997  25.0549988  45.8288409 106.8451421  24.7181377
  46.4770012 110.9294997  30.9739988  46.8390012 111.7844997  30.7399988
  47.0080012 110.6374997  31.7139988  46.5984473 111.0071060  31.0420855
  44.6450012 111.8024997  24.2039988  43.6950012 111.9074997  24.2549988
  44.9970012 112.6224997  24.5489988  44.5624203 111.9278314  24.2576650
  50.0210012 107.0284997  30.6739988  49.5950012 106.8014997  31.5009988
  50.6010012 106.2904997  30.4919988  50.0411868 106.8975299  30.7625830
  52.2240012 107.9574997  19.7479988  52.5770012 107.5774997  20.5529988
  51.2750012 107.8644997  19.8349988  52.1440441 107.8929596  19.8698559
  52.6790012 111.5804997  33.1439988  52.0780012 111.0254997  32.6479988
  52.9610012 112.2474997  32.5179988  52.6348519 111.5946841  32.9914952
  56.7270012 112.4374997  19.9489988  57.4710012 113.0234997  19.8089988
  56.0330012 113.0054997  20.2829988  56.7350292 112.5945582  19.9749961
  40.8020012  98.8134997  32.5509988  39.9090012  99.1524997  32.4829988
  40.7030012  97.9584997  32.9689988  40.6664164  98.7442588  32.5982235
  53.0900012 106.6304997  21.9749988  52.8120012 105.9024997  22.5309988
  54.0170012 106.7494997  22.1799988  53.1773124 106.5468802  22.0788845
  40.4530012 110.6184997  30.9859988  40.6700012 109.6864997  30.9549988
  40.6990012 110.8924997  31.8689988  40.5159549 110.5280636  31.1011763
  46.3150012 109.0694997  18.1949988  46.5540012 108.3214997  17.6479988
  46.0460012 108.6814997  19.0279988  46.3113675 108.9146638  18.2326865
  45.2520012 108.6394997  20.6519988  45.3980012 108.1194997  21.4419988
  45.2490012 109.5464997  20.9579988  45.2715989 108.6908853  20.8016088
  41.7050012 105.8924997  21.1619988  41.0190012 106.2444997  21.7289988
  42.2270012 106.6554997  20.9149988  41.6816852 106.0438578  21.2062118
  49.5360012  98.5544997  31.4409988  50.2350012  98.6284997  32.0909988
  49.1550012  97.6904997  31.5949988  49.5801767  98.4477624  31.5508322
  50.3210012  98.2064997  22.5379988  50.5410012  98.6784997  21.7349988
  50.8790012  98.6014997  23.2079988  50.4264968  98.3244285  22.5187331
  47.9890012 110.3374997  21.4009988  47.1730012 110.8344997  21.4529988
  48.5190012 110.8124997  20.7609988  47.9489161 110.4697722  21.3215956
  47.5210012  99.9344997  23.3729988  48.3330012 100.4394997  23.4189988
  47.2760012  99.7894997  24.2869988  47.5990520  99.9840375  23.5028517
  48.0560012 100.9204997  32.5579988  48.1750012 101.4944997  33.3149988
  48.7120012 100.2324997  32.6719988  48.1609757 100.9061079  32.6770825
  48.4040012  97.0154997  24.3109988  48.0580012  97.6334997  24.9559988
  49.0630012  97.5164997  23.8299988  48.4457826  97.1675802  24.3340971
  45.3280012 111.3814997  21.3829988  45.4880012 112.1804997  20.8819988
  45.1300012 111.6874997  22.2679988  45.3231649 111.5324469  21.4339815
  44.0620012  98.0784997  20.9979988  43.9790012  98.9674997  21.3449988
  44.9520012  97.8134997  21.2299988  44.1709469  98.1641430  21.0767626
  54.2610012  98.8274997  33.3929988  53.3440012  99.0904997  33.3049988
  54.5960012  98.8244997  32.4959988  54.1809900  98.8630224  33.2597919
  52.8630012 102.5784997  27.4879988  52.0650012 102.1634997  27.1599988
  53.3080012 101.8874997  27.9789988  52.8139885 102.4283543  27.5094889
  42.3210012 108.5064997  20.0589988  42.9130012 109.2054997  20.3349988
  42.7800012 108.0734997  19.3389988  42.4641142 108.5437049  19.9994830
  40.6370012 101.1704997  19.1749988  40.5920012 102.1094997  19.3529988
  39.7490012 100.9344997  18.9049988  40.5108574 101.2671892  19.1628912
  53.9490012 111.8344997  29.1109988  53.7940012 112.5124997  28.4539988
  54.8820012 111.9064997  29.3139988  54.0538500 111.9370170  29.0485119
  41.4450012  95.9524997  27.8479988  41.2160012  96.0114997  26.9199988
  41.0020012  95.1604997  28.1539988  41.3538530  95.8535753  27.7624786
  40.3750012 109.8924997  24.0079988  39.5430012 110.3654997  24.0359988
  40.9210012 110.4024997  23.4099988  40.3349739 110.0261871  23.9309716
  39.6630012 112.5054997  35.3379988  40.2040012 112.2884997  36.0979988
  39.1820012 111.6994997  35.1489988  39.6719345 112.3669514  35.4163076
  44.2610012 111.4244997  36.9589988  45.0280012 110.9654997  37.2999988
  44.2390012 111.1984997  36.0289988  44.3631434 111.3310409  36.8800043
  48.3530012 110.9324997  18.3339988  47.7090012 110.3014997  18.6549988
  49.1150012 110.4014997  18.1019988  48.3678077 110.7742920  18.3466011
  50.8380012 109.8044997  35.6879988  50.4870012 108.9484997  35.9309988
  51.5640012 109.9474997  36.2949988  50.8880769 109.7065636  35.8033619
  52.9570012 110.7494997  18.5679988  53.2400012 109.9554997  19.0199988
  53.6970012 110.9824997  18.0069988  53.0957486 110.6722803  18.5540698
  39.5700012 106.3154997  36.2929988  39.7140012 105.4134997  36.0059988
  38.7980012 106.6014997  35.8049988  39.4853322 106.2308261  36.1877881
  43.9120012 106.6594997  18.4249988  43.9760012 105.8654997  18.9559988
  44.5650012 106.5404997  17.7349988  44.0090241 106.5347148  18.4044317
  46.2260012 106.2854997  35.7249988  45.8970012 106.5564997  34.8679988
  46.3780012 105.3444997  35.6379988  46.2014809 106.1953862  35.5958244
  49.2640012 107.7064997  18.1609988  48.9950012 107.8864997  19.0619988
  49.0580012 106.7804997  18.0299988  49.1993825 107.6060152  18.2665214
  51.9600012 106.2014997  33.1089988  52.7060012 106.7894997  32.9889988
  51.2030012 106.7834997  33.1719988  51.9597554 106.3607011  33.1010907
  40.4030012 103.5154997  35.7129988  40.8110012 102.6584997  35.5919988
  40.1430012 103.5304997  36.6339988  40.4237568 103.4000807  35.8209588
  45.0610012 104.6314997  20.7309988  44.6010012 104.1474997  21.4169988
  45.3160012 103.9634997  20.0949988  45.0324902 104.4748731  20.7389334
  44.3500012 102.5244997  33.0869988  43.7320012 103.1994997  33.3669988
  44.6940012 102.8454997  32.2539988  44.3119615 102.6602721  33.0126581
  46.1320012 102.8744997  18.9929988  45.9520012 102.7204997  18.0659988
  47.0820012 102.9824997  19.0379988  46.2357776 102.8680175  18.8721843
  49.3700012 104.9964997  36.3639988  50.3230012 105.0794997  36.3369988
  49.2090012 104.2844997  36.9839988  49.4786426 104.9116746  36.4440579
  55.5220012 105.2294997  18.4389988  55.2480012 104.8044997  17.6259988
  55.5610012 106.1604997  18.2219988  55.4897699 105.2972484  18.2983610
  44.6890012  99.8794997  34.1689988  44.8390012  99.1504997  33.5669988
  44.6920012 100.6564997  33.6099988  44.7099302  99.8847851  34.0110692
  45.1020012  98.2494997  31.6619988  45.6380012  98.7004997  31.0099988
  44.2500012  98.1414997  31.2389988  45.0602178  98.2966390  31.5155756
  46.6840012 103.6884997  31.9009988  47.4340012 103.5324997  31.3279988
  46.3450012 104.5404997  31.6259988  46.7408921 103.7822968  31.7853561
  51.0990012 101.5034997  36.9299988  51.2920012 100.5724997  36.8179988
  51.9570012 101.9284997  36.9199988  51.2413020 101.4336389  36.9133361
  52.4160012 104.2924997  35.0069988  52.1350012 105.0014997  34.4299988
  53.3590012 104.2194997  34.8559988  52.5049027 104.3797646  34.9075551
  43.1680012 101.0774997  36.0809988  42.4010012 100.5454997  35.8709988
  43.8470012 100.7674997  35.4809988  43.1547022 100.9627506  35.9711648
  45.9080012  95.7054997  32.0929988  45.8090012  96.6524997  31.9879988
  45.1650012  95.3334997  31.6179988  45.7940563  95.7845902  32.0144560
  47.1720012 100.0274997  35.6569988  46.9360012  99.8074997  36.5589988
  46.3880012  99.8204997  35.1469988  47.0338628  99.9694760  35.7113932
  49.8870012  99.1544997  34.7329988  48.9400012  99.1864997  34.8649988
  50.2000012  98.5294997  35.3859988  49.7995475  99.0743207  34.8394455
  51.5210012  97.7884997  36.7379988  51.4250012  96.8364997  36.7319988
  51.2000012  98.0574997  37.5979988  51.4644070  97.6944035  36.8535441
  41.3480012  98.9984997  35.7849988  41.5600012  98.2914997  35.1749988
  41.2370012  98.5604997  36.6289988  41.3619721  98.8427084  35.8156843
  46.1290012  94.9994997  34.7649988  46.8410012  94.3594997  34.7509988
  46.0280012  95.2664997  33.8509988  46.2127939  94.9479938  34.6395650
  46.4830012  96.6824997  36.8179988  46.3510012  96.2064997  35.9979988
  45.8840012  97.4264997  36.7629988  46.3839071  96.7179618  36.6982886
  46.0290012 113.5654997  19.9949988  46.9620012 113.7234997  20.1379988
  45.7650012 114.2404997  19.3699988  46.1209510 113.6783611  19.9300741
  39.5980012 108.2014997  19.4769988  40.5120012 108.2804997  19.7509988
  39.6050012 107.5144997  18.8109988  39.7241131 108.1193961  19.4244393
  38.2470012 113.5944997  24.5549988  37.6000012 113.1324997  24.0219988
  38.6010012 112.9224997  25.1369988  38.2063849 113.4404723  24.5607959
  39.1170012 111.6754997  26.3589988  38.7820012 110.7954997  26.5309988
  39.3390012 112.0204997  27.2239988  39.1011783 111.6017500  26.4994208
  56.6650012 112.4844997  29.3399988  56.6440012 112.6694997  30.2789988
  57.3560012 113.0534997  28.9989988  56.7554618 112.5866606  29.4223864
  56.2290012 112.0524997  32.2619988  55.7410012 111.3164997  31.8909988
  56.7780012 111.6584997  32.9399988  56.2364872 111.8986249  32.3029160
  54.6790012 107.8414997  36.8999988  53.8130012 107.7364997  37.2939988
  55.0560012 108.6004997  37.3459988  54.6113308 107.9296900  37.0142393
  55.9800012 106.0984997  22.4139988  56.8300012 106.5194997  22.5409988
  55.9860012 105.3584997  23.0209988  56.0971372 106.0560803  22.5134344
  56.3750012 104.1514997  24.2379988  55.6480012 103.6724997  24.6349988
  56.9560012 104.3574997  24.9699988  56.3539375 104.1137090  24.3914129
  56.1340012 106.9364997  29.1849988  56.9670012 106.5584997  28.9049988
  56.2460012 107.8794997  29.0659988  56.2632647 107.0122218  29.1305487
  54.6200012 109.8144997  31.4919988  53.9730012 110.1394997  32.1179988
  54.1030012 109.3744997  30.8179988  54.4614029 109.7995004  31.4865827
  56.6430012 104.0524997  20.6289988  56.1210012 104.4094997  19.9099988
  56.6100012 104.7274997  21.3069988  56.5671634 104.1925413  20.6223145
  54.9920012 101.2924997  19.1799988  55.0880012 101.9594997  18.4989988
  54.8520012 100.4764997  18.6979988  54.9862135 101.2734500  19.0218491
  54.1610012 102.6724997  24.8009988  54.0110012 101.7274997  24.7799988
  53.8080012 102.9534997  25.6439988  54.0926625 102.5810441  24.9122346
  39.1970012 104.7504997  28.8109988  39.3810012 104.6684997  27.8749988
  40.0460012 104.6264997  29.2349988  39.3370139 104.7225003  28.7401455
  55.0180012 104.6424997  34.4389988  55.6010012 103.9084997  34.6309988
  55.5820012 105.4144997  34.4859988  55.1739769 104.6464227  34.4716159
  56.5140012 102.5454997  35.1239988  55.6510012 102.1664997  34.9579988
  57.1190012 101.8064997  35.0499988  56.4775979 102.3938023  35.0912817
  54.2390012  98.7004997  18.2969988  54.8500012  98.3294997  18.9339988
  53.4030012  98.2794997  18.4929988  54.2095032  98.5927554  18.4107035
  53.8720012 100.2554997  23.2629988  54.1520012  99.3484997  23.3869988
  54.6310012 100.6894997  22.8739988  54.0129277 100.1900942  23.2273682
  54.4840012 100.8364997  28.6989988  55.4170012 101.0484997  28.6649988
  54.2490012 100.9384997  29.6209988  54.5798036 100.8792769  28.8189976
  54.5130012 101.5734997  31.4749988  53.6700012 101.8414997  31.8409988
  54.9550012 102.3954997  31.2639988  54.4574158 101.7213291  31.4965491
  38.7940012 100.0214997  34.9519988  39.7140012  99.8994997  35.1879988
  38.3450012  99.2714997  35.3409988  38.8591580  99.9033727  35.0369006
  56.7960012  95.5534997  36.8279988  57.1460012  94.8994997  36.2229988
  56.9430012  96.3904997  36.3889988  56.8638419  95.5771591  36.6857118
  54.4850012  97.5184997  23.3109988  54.6680012  97.0694997  24.1369988
  53.8860012  96.9334997  22.8479988  54.4290202  97.3779975  23.3613275
  40.0150012  98.3334997  27.8429988  40.4610012  97.5414997  28.1449988
  40.4820012  99.0494997  28.2739988  40.1390172  98.3220624  27.9424820
  38.3190012 101.3324997  28.9119988  38.8110012 101.1114997  28.1209988
  38.6820012 102.1734997  29.1929988  38.4353126 101.4158357  28.8417531
  56.3160012  97.6624997  35.1779988  55.3980012  97.9334997  35.1419988
  56.4390012  97.1274997  34.3929988  56.2071066  97.6272892  35.0670487
  56.3520012  97.5854997  19.8389988  56.7640012  96.8644997  19.3639988
  57.0340012  98.2554997  19.8979988  56.5005885  97.5772368  19.7818915
  38.6330012  97.5904997  22.9659988  37.7080012  97.7994997  22.8369988
  39.0870012  98.0744997  22.2769988  38.5677368  97.6845993  22.8551226
  53.4040012 112.5744997  24.9119988  54.0560012 112.2274997  24.3039988
  53.9140012 113.0634997  25.5579988  53.5622637 112.5930597  24.9160236
  38.5970012  96.3284997  31.3109988  37.9320012  96.0824997  31.9539988
  38.1540012  96.9504997  30.7329988  38.4460956  96.3788632  31.3209352
  40.7890012 109.5034997  35.4549988  39.9680012 109.6784997  34.9949988
  40.5360012 109.4304997  36.3759988  40.6426164 109.5175622  35.5164923
  43.7430012 110.4784997  31.7139988  43.3180012 111.2874997  31.4309988
  44.6470012 110.5634997  31.4119988  43.8070271 110.6008469  31.6343776
  48.0540012 111.8774997  34.6729988  48.2390012 111.5434997  35.5509988
  48.9000012 112.1864997  34.3509988  48.1937539 111.8736047  34.7495605
  50.3990012 113.1634997  33.9169988  51.0760012 112.5304997  33.6769988
  50.7210012 113.5644997  34.7239988  50.5351637 113.1311154  33.9932793
  55.3160012  95.7524997  32.9969988  54.5040012  96.0774997  32.6089988
  55.5490012  94.9924997  32.4639988  55.2363423  95.6942436  32.8718253
  41.1450012 113.7344997  31.7609988  40.4240012 114.1744997  31.3099988
  40.7790012 113.4834997  32.6099988  40.9969804 113.7607698  31.8139840
  43.6120012 113.3344997  30.7909988  42.7470012 113.4064997  31.1949988
  43.5570012 113.8814997  30.0069988  43.4862085 113.4182685  30.7403362
  48.3220012 113.2224997  29.9659988  47.8660012 113.7514997  29.3119988
  48.4850012 113.8254997  30.6919988  48.2815585 113.3764468  29.9745062
  50.6500012 112.1004997  30.9109988  49.7450012 112.2654997  30.6459988
  51.0790012 112.9534997  30.8459988  50.5840799 112.2384483  30.8659182
  53.2540012 113.6704997  31.2059988  53.0720012 114.5864997  30.9959988
  53.4310012 113.2604997  30.3599988  53.2530210 113.7404822  31.0627885
  40.5590012 112.3574997  28.6709988  40.5410012 111.9324997  29.5289988
  41.3640012 112.0394997  28.2629988  40.6653875 112.2563812  28.7331655
  42.7010012 111.0674997  27.3259988  42.4820012 110.1514997  27.4959988
  43.5250012 111.2074997  27.7919988  42.7824420 110.9610520  27.4122774
  45.2380012 111.5374997  28.1749988  45.4510012 110.6494997  27.8879988
  45.3020012 111.5034997  29.1289988  45.2758231 111.4113102  28.2647397
  48.7460012  97.2014997  27.3189988  48.0720012  96.5724997  27.5749988
  49.3100012  96.7174997  26.7159988  48.7299230  97.0498744  27.2725340
  53.8890012  95.3094997  27.4319988  54.4930012  95.8564997  26.9299988
  53.0190012  95.6284997  27.1919988  53.8541241  95.4275806  27.3307654
  55.6160012  96.4474997  25.7649988  56.2280012  95.9334997  25.2389988
  55.9980012  97.3254997  25.7889988  55.7514540  96.4957140  25.6961830
  41.0730012  95.8354997  25.1409988  40.2960012  95.6014997  24.6339988
  41.6030012  95.0384997  25.1499988  41.0382330  95.6956988  25.0727742
  39.9090012  95.6334997  20.9449988  40.3480012  96.2444997  20.3529988
  39.2760012  96.1714997  21.4189988  39.8834514  95.7899257  20.9280930
  45.6520012  95.7624997  24.9549988  46.5270012  96.1504997  24.9249988
  45.5160012  95.5474997  25.8769988  45.7533695  95.7865184  25.0756440
  51.2090012  95.7924997  26.6039988  51.2850012  95.8874997  25.6539988
  50.9340012  94.8844997  26.7329988  51.1822321  95.6827867  26.4915079
  52.5620012  95.8184997  22.2959988  51.8600012  96.4334997  22.0869988
  52.1180012  94.9804997  22.4269988  52.4056330  95.7895783  22.2850328
  39.8100012 111.5814997  21.8429988  39.1250012 111.5434997  21.1749988
  39.8140012 112.4944997  22.1309988  39.7168193 111.6997016  21.7905284
  41.7700012  97.5494997  19.3869988  42.2620012  96.9194997  18.8599988
  42.3940012  97.8454997  20.0509988  41.9215446  97.5033199  19.4045980
  46.7960012  97.8424997  21.8439988  46.9740012  97.1964997  22.5269988
  46.7430012  98.6764997  22.3119988  46.8131829  97.8667985  22.0005940
  48.6750012 112.7914997  20.2399988  49.5410012 113.1574997  20.0619988
  48.4280012 112.3514997  19.4259988  48.7602392 112.7821756  20.1056289
  55.3840012 112.3544997  22.9189988  55.1890012 111.6064997  22.3539988
  55.3450012 113.1124997  22.3359988  55.3520380 112.3546099  22.7628384
  41.0310012  96.3494997  34.6589988  40.6650012  95.5844997  35.1019988
  41.9440012  96.3784997  34.9459988  41.1042790  96.2487224  34.7584070
  43.0040012  95.7004997  36.1949988  43.9020012  95.4264997  36.0099988
  42.6170012  94.9574997  36.6589988  43.0746612  95.5625914  36.2323643
  41.6280012 112.5014997  18.8679988  41.3610012 112.7884997  19.7409988
  42.4000012 111.9554997  19.0199988  41.6957488 112.4670294  19.0081050
  51.4250012  95.0324997  36.3769988  51.5020012  94.6064997  37.2309988
  52.3190012  95.0464997  36.0339988  51.5563428  94.9760879  36.4475310
  54.6010012 111.1054997  35.0689988  53.8190012 110.9194997  34.5499988
  54.5290012 112.0344997  35.2869988  54.4841777 111.2056492  35.0274048
  69.0070012 104.9914997  25.0999988  69.0960012 105.9354997  24.9679988
  68.3690012 104.7164997  24.4419988  68.9329081 105.0834830  24.9929614
  67.9400012 104.2464997  28.5189988  67.9020012 103.6004997  29.2239988
  67.6180012 103.7804997  27.7479988  67.8912333 104.0949408  28.5112978
  60.3090012 103.8614997  30.1119988  60.3500012 103.2354997  30.8349988
  61.0120012 104.4854997  30.2939988  60.4096363 103.8601196  30.2356044
  71.6460012 107.1854997  26.8199988  71.2060012 106.4654997  27.2709988
  71.6330012 107.9064997  27.4499988  71.5840226 107.1843731  26.9668494
  61.2320012 108.3114997  28.6469988  60.8630012 107.5094997  28.2769988
  62.1730012 108.1424997  28.6929988  61.3087289 108.1790153  28.6026316
  57.8420012 101.9714997  24.0399988  57.3950012 102.8174997  24.0209988
  57.2810012 101.3914997  23.5239988  57.7049900 102.0089916  23.9676801
  58.5530012 104.1334997  26.1659988  58.7660012 103.3634997  26.6929988
  59.2910012 104.2224997  25.5619988  58.6818496 104.0401394  26.1565300
  68.7580012 112.2904997  27.0329988  69.3780012 111.6134997  26.7589988
  68.5500012 112.0724997  27.9409988  68.8146904 112.1683870  27.1183365
  66.3300012 106.6794997  28.9249988  66.6340012 105.9934997  28.3299988
  67.0510012 106.7974997  29.5429988  66.4690671 106.6016305  28.9271816
  74.9930012  98.2804997  29.7859988  75.0420012  98.8904997  30.5219988
  75.4180012  98.7414997  29.0629988  75.0571824  98.4263741  29.7890205
  69.4710012 101.0734997  29.2529988  69.6130012 100.1274997  29.2729988
  69.3640012 101.2804997  28.3239988  69.4759864 100.9719534  29.1302339
  62.6250012  99.1744997  26.5249988  62.6690012 100.0344997  26.1069988
  62.1680012  98.6224997  25.8909988  62.5692185  99.2175799  26.3820299
  70.3480012  99.3054997  24.9259988  70.9940012  98.9764997  25.5509988
  70.8580012  99.8234997  24.3029988  70.5054264  99.3304611  24.9273862
  59.2460012 101.5714997  27.2869988  59.8990012 101.0214997  27.7189988
  59.2700012 101.2974997  26.3699988  59.3386683 101.4591466  27.2222123
  64.4020012 103.1214997  26.5019988  65.0180012 102.5954997  27.0119988
  63.8160012 102.4814997  26.0989988  64.4070810 102.9629208  26.5173173
  75.3840012  99.7584997  32.0219988  74.6960012 100.4164997  31.9259988
  75.4000012  99.5614997  32.9579988  75.2918525  99.8220462  32.1354808
  61.4360012  98.0924997  30.5989988  61.2170012  98.6224997  29.8329988
  60.7680012  98.3194997  31.2459988  61.3157600  98.1956906  30.5816379
  68.8050012 107.5924997  24.1429988  68.5090012 107.2704997  23.2919988
  68.4800012 108.4924997  24.1839988  68.7206371 107.6700215  24.0321801
  64.0050012 105.7684997  30.8859988  63.2650012 106.3664997  30.9899988
  64.7190012 106.3224997  30.5709988  64.0002237 105.9252831  30.8576465
  72.1120012  98.5964997  26.9059988  71.8960012  97.8304997  27.4389988
  72.7670012  99.0684997  27.4189988  72.1710632  98.5555889  27.0482861
  61.0290012  99.9844997  28.5509988  61.6430012 100.6174997  28.9249988
  61.5410012  99.5124997  27.8949988  61.1822296 100.0072370  28.5134252
  62.4120012 107.7324997  31.6739988  62.4070012 108.6124997  31.2959988
  61.5590012 107.6494997  32.0989988  62.2959464 107.8416117  31.6797907
  58.5330012 107.4034997  22.4559988  58.2610012 107.6324997  21.5669988
  58.5790012 108.2414997  22.9159988  58.5020094 107.5481213  22.3965697
  72.1580012 109.0254997  29.1679988  71.2170012 109.0834997  29.3299988
  72.4350012 109.9314997  29.0309988  72.0664679 109.1559443  29.1716815
  72.4590012  97.3114997  30.5859988  71.7230012  97.9224997  30.5479988
  73.1420012  97.7264997  30.0589988  72.4506541  97.4511374  30.5095832
  65.4620012  95.3984997  28.0519988  65.3450012  94.4494997  27.9969988
  64.6070012  95.7304997  28.3249988  65.3303733  95.3135409  28.0813897
  70.4100012 110.8064997  25.7939988  70.8360012 110.0994997  25.3089988
  70.7270012 111.6074997  25.3769988  70.5111019 110.8180994  25.6713130
  71.5700012 108.7074997  24.3019988  71.3120012 108.0174997  23.6909988
  71.6410012 108.2644997  25.1479988  71.5442856 108.5532124  24.3326885
  73.2560012 107.2734997  32.7799988  73.3960012 106.6824997  32.0399988
  73.4230012 108.1464997  32.4229988  73.2976778 107.3106426  32.6306965
  67.7290012 104.2354997  22.5519988  67.0170012 104.7704997  22.1999988
  68.4200012 104.2914997  21.8919988  67.7250132 104.3162543  22.4146289
  67.7820012 102.6934997  19.5909988  68.4830012 102.7154997  20.2419988
  68.0850012 102.0654997  18.9349988  67.9187830 102.6116566  19.5913711
  75.0980012 103.6134997  30.8459988  74.4450012 104.3084997  30.9349988
  75.5630012 103.8234997  30.0359988  75.0715390 103.7369425  30.7486883
  71.1340012 104.4454997  23.5039988  70.4020012 104.6734997  24.0769988
  71.5820012 103.7314997  23.9589988  71.0943095 104.3802571  23.6439119
  71.0320012 102.6194997  32.5709988  71.1120012 103.3824997  33.1429988
  70.4300012 102.8984997  31.8809988  70.9615756 102.7617134  32.5560589
  62.7800012 105.0754997  25.3859988  62.4490012 104.7054997  24.5679988
  63.3680012 104.4054997  25.7329988  62.8141873 104.9341156  25.3208102
  64.1460012 108.5034997  28.0679988  64.0520012 107.9254997  27.3109988
  64.8760012 108.1324997  28.5639988  64.2317981 108.3742390  28.0314165
  63.1460012 103.8444997  29.0199988  63.7120012 103.9654997  28.2569988
  63.4650012 104.4814997  29.6589988  63.2665786 103.9471884  29.0020040
  69.4550012 109.3474997  29.7539988  69.2150012 110.0094997  30.4019988
  69.2570012 108.5134997  30.1789988  69.3953808 109.3253134  29.9001524
  64.0260012 108.2434997  33.7369988  63.7150012 109.0254997  34.1919988
  63.3760012 108.0904997  33.0509988  63.8955558 108.3299105  33.7065871
  70.0050012 103.6074997  21.1889988  70.5850012 103.7574997  21.9359988
  70.4190012 104.0784997  20.4659988  70.1402830 103.6916841  21.1934134
  60.9460012 104.4414997  32.9659988  61.0170012 105.0924997  33.6639988
  60.0560012 104.5444997  32.6309988  60.8353117 104.5445936  33.0162700
  67.7320012 110.3444997  24.6239988  68.2060012 110.6394997  25.4019988
  67.1690012 111.0824997  24.3909988  67.7207653 110.4846932  24.6990136
  62.2660012 110.3154997  34.4999988  62.2730012 110.1794997  33.5529988
  61.3500012 110.1974997  34.7519988  62.1431714 110.2809430  34.4044666
  73.7040012  95.3574997  21.0019988  72.8040012  95.4964997  21.2969988
  73.9560012  96.1884997  20.5999988  73.6148702  95.4889074  20.9880205
  61.7700012 104.1454997  22.9759988  61.4780012 104.9134997  22.4849988
  61.0960012 103.4854997  22.8129988  61.6389081 104.1614406  22.8867340
  74.8930012 109.7234997  19.3779988  74.9670012 110.6624997  19.5489988
  75.7990012 109.4184997  19.3219988  75.0255100 109.8106722  19.3938119
  57.8630012 106.5084997  31.7909988  57.3620012 106.4804997  30.9759988
  57.8680012 105.6024997  32.0999988  57.7951526 106.3822278  31.7212872
  57.6130012 109.2884997  28.6749988  58.5590012 109.1444997  28.6559988
  57.5010012 110.0724997  29.2119988  57.7272727 109.3748046  28.7450072
  75.8110012 109.9544997  34.3569988  75.7620012 108.9994997  34.3199988
  74.9840012 110.2224997  34.7579988  75.6924940 109.8598998  34.4061375
  66.7900012 109.5284997  33.2329988  66.8770012 110.3544997  33.7079988
  65.9260012 109.1984997  33.4819988  66.6851964 109.5969878  33.3316549
  67.2040012 113.3004997  23.0389988  67.1290012 113.1794997  22.0929988
  67.2370012 114.2504997  23.1579988  67.1981848 113.4122500  22.9254834
  60.8570012 112.0894997  24.8199988  61.0100012 111.7414997  25.6989988
  60.0070012 111.7334997  24.5649988  60.7628962 111.9936650  24.9058340
  70.3060012 112.4544997  20.0409988  70.6810012 111.7104997  19.5709988
  70.3100012 112.1844997  20.9599988  70.3578915 112.3161486  20.1007824
  69.9750012 112.3804997  22.7909988  69.0390012 112.4804997  22.9689988
  70.2550012 111.6714997  23.3689988  69.8848255 112.2982711  22.8935391
  72.9630012 101.4474997  34.8369988  72.5560012 101.9284997  34.1159988
  73.0040012 100.5424997  34.5289988  72.9128437 101.3909374  34.6966683
  60.1120012 107.8314997  32.8339988  60.3280012 107.4704997  33.6929988
  59.2570012 107.4574997  32.6239988  60.0259292 107.7314111  32.9233386
  62.7310012  96.3014997  28.8289988  61.8690012  96.2144997  28.4219988
  62.7080012  97.1574997  29.2569988  62.6100330  96.4052765  28.8311863
  67.3940012  96.0234997  32.2039988  67.8140012  95.6084997  32.9569988
  66.4610012  95.8454997  32.3209988  67.3253644  95.9425900  32.3229539
  70.7200012  99.7794997  33.0569988  70.2060012  99.6534997  33.8549988
  70.5650012 100.6914997  32.8129988  70.6286852  99.8856132  33.1332158
  71.4830012 104.6404997  18.8189988  71.5250012 104.4174997  17.8889988
  72.3320012 105.0394997  19.0089988  71.6035396 104.6639155  18.7173627
  67.0550012  98.5164997  19.4889988  66.8020012  98.5354997  20.4119988
  66.7990012  97.6444997  19.1879988  66.9857790  98.4012437  19.5746263
  62.8220012 101.2674997  29.9239988  62.1800012 101.2264997  30.6329988
  62.8590012 102.1934997  29.6869988  62.7391324 101.3871559  29.9889824
  62.8190012 101.4884997  24.8359988  61.9260012 101.1474997  24.7779988
  63.2690012 101.1114997  24.0809988  62.7577305 101.3908484  24.7259177
  68.3540012 101.9044997  23.6529988  67.9450012 102.7194997  23.3619988
  69.0750012 101.7644997  23.0389988  68.3954537 101.9972018  23.5301342
  67.4560012 102.0794997  35.1409988  66.8940012 101.3754997  35.4619988
  68.2830012 101.9594997  35.6089988  67.4907095 101.9667883  35.2482330
  69.3590012 101.3504997  26.4669988  69.1640012 101.9554997  25.7519988
  69.5400012 100.5164997  26.0329988  69.3567614 101.3206300  26.3104405
  60.5720012 101.5874997  31.7909988  60.5340012 101.9874997  32.6599988
  60.0810012 100.7704997  31.8819988  60.5004684 101.5318069  31.9221059
  63.9380012  98.9614997  18.5899988  63.5070012  98.5164997  19.3199988
  63.2200012  99.3334997  18.0779988  63.7819438  98.9508940  18.6206799
  57.1800012  98.7034997  25.6419988  57.8110012  98.6744997  26.3609988
  57.6290012  98.2784997  24.9119988  57.3270774  98.6420492  25.6416553
  58.4540012  99.4494997  21.0659988  58.9280012 100.0404997  20.4809988
  57.7370012  99.9804997  21.4129988  58.4219341  99.6020867  21.0328836
  68.6230012 102.9884997  31.1389988  68.9460012 102.3574997  30.4959988
  68.1830012 102.4534997  31.7989988  68.6076895 102.8298441  31.1402850
  65.4000012  98.9154997  25.9229988  64.4890012  98.9724997  26.2109988
  65.9060012  98.8554997  26.7329988  65.3435413  98.9151985  26.0720622
  60.2290012 100.5444997  24.7489988  59.3390012 100.6444997  24.4089988
  60.5250012  99.7024997  24.4029988  60.1472823 100.4443545  24.6557213
  63.8820012 100.5444997  22.4059988  64.8130012 100.6734997  22.5839988
  63.6670012 101.2144997  21.7559988  63.9804247 100.6526565  22.3425747
  69.8050012  98.1504997  29.1869988  69.1290012  98.2814997  29.8509988
  69.3200012  97.9954997  28.3769988  69.6467145  98.1474905  29.1684517
  62.5560012 101.7394997  19.9729988  62.0130012 101.3594997  19.2809988
  63.3890012 101.9334997  19.5439988  62.5944399 101.7138124  19.8204526
  73.0930012 113.8224997  35.4639988  73.2930012 114.2464997  34.6289988
  73.7480012 114.1654997  36.0709988  73.2090051 113.9269648  35.4317836
  60.6910012 106.2964997  35.0719988  61.4230012 106.5504997  35.6329988
  59.9110012 106.5004997  35.5869988  60.6858232 106.3589177  35.2185760
  66.7200012 101.7034997  27.8099988  67.2850012 101.1564997  27.2629988
  66.5730012 101.1814997  28.5979988  66.7772918 101.5582024  27.8418454
  61.7220012  97.8394997  24.2279988  61.4050012  96.9374997  24.1929988
  62.5040012  97.8414997  23.6749988  61.7842284  97.7161628  24.1484783
  65.3470012 100.0914997  30.2239988  64.5110012 100.5454997  30.3339988
  65.8710012 100.3674997  30.9759988  65.3034414 100.1909376  30.3407136
  65.8910012 106.3044997  21.9079988  65.1460012 105.7974997  21.5859988
  65.7570012 106.3534997  22.8549988  65.7708776 106.2416940  21.9918647
  73.0410012 105.4374997  30.6949988  73.6830012 105.8944997  30.1509988
  72.2110012 105.5504997  30.2319988  73.0165963 105.5152704  30.5580177
  69.7890012  99.1184997  20.1079988  68.8500012  99.2304997  19.9559988
  70.0860012  99.9754997  20.4139988  69.7007666  99.2496443  20.1285768
  67.4100012 106.4884997  33.1449988  67.0650012 106.1074997  33.9519988
  67.2100012 107.4224997  33.2169988  67.3358061 106.5625228  33.2650961
  70.5070012 100.9854997  21.7679988  71.3990012 100.8484997  22.0869988
  70.5640012 101.7764997  21.2319988  70.6366285 101.0736660  21.7391691
  61.0160012 105.5994997  27.6779988  61.7610012 105.5974997  27.0769988
  61.0940012 104.7764997  28.1599988  61.1285518 105.4879315  27.6608929
  68.0170012 107.7634997  20.9339988  67.7210012 108.5894997  21.3149988
  67.3140012 107.1434997  21.1299988  67.8814914 107.7928199  21.0126443
  58.0240012 104.0604997  32.9929988  58.2470012 103.6424997  33.8249988
  57.4220012 103.4474997  32.5699988  57.9731759 103.9204668  33.0497022
  65.0400012 103.5774997  35.2059988  64.7440012 103.4114997  34.3109988
  65.9720012 103.3574997  35.1949988  65.1254166 103.5250640  35.0820536
  69.6610012 108.9504997  33.0959988  68.7600012 109.1334997  32.8279988
  69.6950012 109.2094997  34.0169988  69.5423041 109.0105512  33.1838197
  75.3920012 101.1954997  21.4629988  74.8380012 100.7994997  20.7909988
  75.4920012 102.1054997  21.1849988  75.3297059 101.2643586  21.3334401
  75.3550012 106.9954997  34.2999988  74.5040012 107.2334997  33.9329988
  75.9460012 106.9784997  33.5469988  75.3182487 107.0258258  34.1478893
  73.6870012 109.9814997  21.9279988  73.3140012 109.1554997  22.2369988
  73.9650012 109.7984997  21.0309988  73.6735630 109.8437303  21.8489626
  70.8480012 104.7894997  28.9489988  69.9190012 104.5574997  28.9219988
  71.2990012 104.0124997  28.6189988  70.7819216 104.6527238  28.9006917
  63.3910012 109.1174997  25.0819988  63.9180012 109.8904997  24.8819988
  62.5110012 109.3424997  24.7809988  63.3441773 109.2538005  25.0139010
  59.1460012 103.9794997  19.6689988  59.7620012 104.6064997  20.0489988
  58.2840012 104.2954997  19.9409988  59.1137698 104.1079430  19.7577183
  64.8180012 106.7804997  24.6589988  64.5770012 107.7054997  24.6999988
  64.0770012 106.3214997  25.0549988  64.6848409 106.8451421  24.7181377
  65.3330012 110.9294997  30.9739988  65.6950012 111.7844997  30.7399988
  65.8640012 110.6374997  31.7139988  65.4544473 111.0071060  31.0420855
  63.5010012 111.8024997  24.2039988  62.5510012 111.9074997  24.2549988
  63.8530012 112.6224997  24.5489988  63.4184203 111.9278314  24.2576650
  68.8770012 107.0284997  30.6739988  68.4510012 106.8014997  31.5009988
  69.4570012 106.2904997  30.4919988  68.8971868 106.8975299  30.7625830
  71.0800012 107.9574997  19.7479988  71.4330012 107.5774997  20.5529988
  70.1310012 107.8644997  19.8349988  71.0000441 107.8929596  19.8698559
  71.5350012 111.5804997  33.1439988  70.9340012 111.0254997  32.6479988
  71.8170012 112.2474997  32.5179988  71.4908519 111.5946841  32.9914952
  75.5830012 112.4374997  19.9489988  76.3270012 113.0234997  19.8089988
  74.8890012 113.0054997  20.2829988  75.5910292 112.5945582  19.9749961
  59.6580012  98.8134997  32.5509988  58.7650012  99.1524997  32.4829988
  59.5590012  97.9584997  32.9689988  59.5224164  98.7442588  32.5982235
  71.9460012 106.6304997  21.9749988  71.6680012 105.9024997  22.5309988
  72.8730012 106.7494997  22.1799988  72.0333124 106.5468802  22.0788845
  59.3090012 110.6184997  30.9859988  59.5260012 109.6864997  30.9549988
  59.5550012 110.8924997  31.8689988  59.3719549 110.5280636  31.1011763
  65.1710012 109.0694997  18.1949988  65.4100012 108.3214997  17.6479988
  64.9020012 108.6814997  19.0279988  65.1673675 108.9146638  18.2326865
  64.1080012 108.6394997  20.6519988  64.2540012 108.1194997  21.4419988
  64.1050012 109.5464997  20.9579988  64.1275989 108.6908853  20.8016088
  60.5610012 105.8924997  21.1619988  59.8750012 106.2444997  21.7289988
  61.0830012 106.6554997  20.9149988  60.5376852 106.0438578  21.2062118
  68.3920012  98.5544997  31.4409988  69.0910012  98.6284997  32.0909988
  68.0110012  97.6904997  31.5949988  68.4361767  98.4477624  31.5508322
  69.1770012  98.2064997  22.5379988  69.3970012  98.6784997  21.7349988
  69.7350012  98.6014997  23.2079988  69.2824968  98.3244285  22.5187331
  66.8450012 110.3374997  21.4009988  66.0290012 110.8344997  21.4529988
  67.3750012 110.8124997  20.7609988  66.8049161 110.4697722  21.3215956
  66.3770012  99.9344997  23.3729988  67.1890012 100.4394997  23.4189988
  66.1320012  99.7894997  24.2869988  66.4550520  99.9840375  23.5028517
  66.9120012 100.9204997  32.5579988  67.0310012 101.4944997  33.3149988
  67.5680012 100.2324997  32.6719988  67.0169757 100.9061079  32.6770825
  67.2600012  97.0154997  24.3109988  66.9140012  97.6334997  24.9559988
  67.9190012  97.5164997  23.8299988  67.3017826  97.1675802  24.3340971
  64.1840012 111.3814997  21.3829988  64.3440012 112.1804997  20.8819988
  63.9860012 111.6874997  22.2679988  64.1791649 111.5324469  21.4339815
  62.9180012  98.0784997  20.9979988  62.8350012  98.9674997  21.3449988
  63.8080012  97.8134997  21.2299988  63.0269469  98.1641430  21.0767626
  73.1170012  98.8274997  33.3929988  72.2000012  99.0904997  33.3049988
  73.4520012  98.8244997  32.4959988  73.0369900  98.8630224  33.2597919
  71.7190012 102.5784997  27.4879988  70.9210012 102.1634997  27.1599988
  72.1640012 101.8874997  27.9789988  71.6699885 102.4283543  27.5094889
  61.1770012 108.5064997  20.0589988  61.7690012 109.2054997  20.3349988
  61.6360012 108.0734997  19.3389988  61.3201142 108.5437049  19.9994830
  59.4930012 101.1704997  19.1749988  59.4480012 102.1094997  19.3529988
  58.6050012 100.9344997  18.9049988  59.3668574 101.2671892  19.1628912
  72.8050012 111.8344997  29.1109988  72.6500012 112.5124997  28.4539988
  73.7380012 111.9064997  29.3139988  72.9098500 111.9370170  29.0485119
  60.3010012  95.9524997  27.8479988  60.0720012  96.0114997  26.9199988
  59.8580012  95.1604997  28.1539988  60.2098530  95.8535753  27.7624786
  59.2310012 109.8924997  24.0079988  58.3990012 110.3654997  24.0359988
  59.7770012 110.4024997  23.4099988  59.1909739 110.0261871  23.9309716
  58.5190012 112.5054997  35.3379988  59.0600012 112.2884997  36.0979988
  58.0380012 111.6994997  35.1489988  58.5279345 112.3669514  35.4163076
  63.1170012 111.4244997  36.9589988  63.8840012 110.9654997  37.2999988
  63.0950012 111.1984997  36.0289988  63.2191434 111.3310409  36.8800043
  67.2090012 110.9324997  18.3339988  66.5650012 110.3014997  18.6549988
  67.9710012 110.4014997  18.1019988  67.2238077 110.7742920  18.3466011
  69.6940012 109.8044997  35.6879988  69.3430012 108.9484997  35.9309988
  70.4200012 109.9474997  36.2949988  69.7440769 109.7065636  35.8033619
  71.8130012 110.7494997  18.5679988  72.0960012 109.9554997  19.0199988
  72.5530012 110.9824997  18.0069988  71.9517486 110.6722803  18.5540698
  58.4260012 106.3154997  36.2929988  58.5700012 105.4134997  36.0059988
  57.6540012 106.6014997  35.8049988  58.3413322 106.2308261  36.1877881
  62.7680012 106.6594997  18.4249988  62.8320012 105.8654997  18.9559988
  63.4210012 106.5404997  17.7349988  62.8650241 106.5347148  18.4044317
  65.0820012 106.2854997  35.7249988  64.7530012 106.5564997  34.8679988
  65.2340012 105.3444997  35.6379988  65.0574809 106.1953862  35.5958244
  68.1200012 107.7064997  18.1609988  67.8510012 107.8864997  19.0619988
  67.9140012 106.7804997  18.0299988  68.0553825 107.6060152  18.2665214
  70.8160012 106.2014997  33.1089988  71.5620012 106.7894997  32.9889988
  70.0590012 106.7834997  33.1719988  70.8157554 106.3607011  33.1010907
  59.2590012 103.5154997  35.7129988  59.6670012 102.6584997  35.5919988
  58.9990012 103.5304997  36.6339988  59.2797568 103.4000807  35.8209588
  63.9170012 104.6314997  20.7309988  63.4570012 104.1474997  21.4169988
  64.1720012 103.9634997  20.0949988  63.8884902 104.4748731  20.7389334
  63.2060012 102.5244997  33.0869988  62.5880012 103.1994997  33.3669988
  63.5500012 102.8454997  32.2539988  63.1679615 102.6602721  33.0126581
  64.9880012 102.8744997  18.9929988  64.8080012 102.7204997  18.0659988
  65.9380012 102.9824997  19.0379988  65.0917776 102.8680175  18.8721843
  68.2260012 104.9964997  36.3639988  69.1790012 105.0794997  36.3369988
  68.0650012 104.2844997  36.9839988  68.3346426 104.9116746  36.4440579
  74.3780012 105.2294997  18.4389988  74.1040012 104.8044997  17.6259988
  74.4170012 106.1604997  18.2219988  74.3457699 105.2972484  18.2983610
  63.5450012  99.8794997  34.1689988  63.6950012  99.1504997  33.5669988
  63.5480012 100.6564997  33.6099988  63.5659302  99.8847851  34.0110692
  63.9580012  98.2494997  31.6619988  64.4940012  98.7004997  31.0099988
  63.1060012  98.1414997  31.2389988  63.9162178  98.2966390  31.5155756
  65.5400012 103.6884997  31.9009988  66.2900012 103.5324997  31.3279988
  65.2010012 104.5404997  31.6259988  65.5968921 103.7822968  31.7853561
  69.9550012 101.5034997  36.9299988  70.1480012 100.5724997  36.8179988
  70.8130012 101.9284997  36.9199988  70.0973020 101.4336389  36.9133361
  71.2720012 104.2924997  35.0069988  70.9910012 105.0014997  34.4299988
  72.2150012 104.2194997  34.8559988  71.3609027 104.3797646  34.9075551
  62.0240012 101.0774997  36.0809988  61.2570012 100.5454997  35.8709988
  62.7030012 100.7674997  35.4809988  62.0107022 100.9627506  35.9711648
  64.7640012  95.7054997  32.0929988  64.6650012  96.6524997  31.9879988
  64.0210012  95.3334997  31.6179988  64.6500564  95.7845902  32.0144560
  66.0280012 100.0274997  35.6569988  65.7920012  99.8074997  36.5589988
  65.2440012  99.8204997  35.1469988  65.8898628  99.9694760  35.7113932
  68.7430012  99.1544997  34.7329988  67.7960012  99.1864997  34.8649988
  69.0560012  98.5294997  35.3859988  68.6555475  99.0743207  34.8394455
  70.3770012  97.7884997  36.7379988  70.2810012  96.8364997  36.7319988
  70.0560012  98.0574997  37.5979988  70.3204070  97.6944035  36.8535441
  60.2040012  98.9984997  35.7849988  60.4160012  98.2914997  35.1749988
  60.0930012  98.5604997  36.6289988  60.2179721  98.8427084  35.8156843
  64.9850012  94.9994997  34.7649988  65.6970012  94.3594997  34.7509988
  64.8840012  95.2664997  33.8509988  65.0687939  94.9479938  34.6395650
  65.3390012  96.6824997  36.8179988  65.2070012  96.2064997  35.9979988
  64.7400012  97.4264997  36.7629988  65.2399071  96.7179618  36.6982886
  64.8850012 113.5654997  19.9949988  65.8180012 113.7234997  20.1379988
  64.6210012 114.2404997  19.3699988  64.9769510 113.6783611  19.9300741
  58.4540012 108.2014997  19.4769988  59.3680012 108.2804997  19.7509988
  58.4610012 107.5144997  18.8109988  58.5801131 108.1193961  19.4244393
  57.1030012 113.5944997  24.5549988  56.4560012 113.1324997  24.0219988
  57.4570012 112.9224997  25.1369988  57.0623849 113.4404723  24.5607959
  57.9730012 111.6754997  26.3589988  57.6380012 110.7954997  26.5309988
  58.1950012 112.0204997  27.2239988  57.9571783 111.6017500  26.4994208
  75.5210012 112.4844997  29.3399988  75.5000012 112.6694997  30.2789988
  76.2120012 113.0534997  28.9989988  75.6114618 112.5866606  29.4223864
  75.0850012 112.0524997  32.2619988  74.5970012 111.3164997  31.8909988
  75.6340012 111.6584997  32.9399988  75.0924872 111.8986249  32.3029160
  73.5350012 107.8414997  36.8999988  72.6690012 107.7364997  37.2939988
  73.9120012 108.6004997  37.3459988  73.4673308 107.9296900  37.0142393
  74.8360012 106.0984997  22.4139988  75.6860012 106.5194997  22.5409988
  74.8420012 105.3584997  23.0209988  74.9531372 106.0560803  22.5134344
  75.2310012 104.1514997  24.2379988  74.5040012 103.6724997  24.6349988
  75.8120012 104.3574997  24.9699988  75.2099375 104.1137090  24.3914129
  74.9900012 106.9364997  29.1849988  75.8230012 106.5584997  28.9049988
  75.1020012 107.8794997  29.0659988  75.1192647 107.0122218  29.1305487
  73.4760012 109.8144997  31.4919988  72.8290012 110.1394997  32.1179988
  72.9590012 109.3744997  30.8179988  73.3174029 109.7995004  31.4865827
  75.4990012 104.0524997  20.6289988  74.9770012 104.4094997  19.9099988
  75.4660012 104.7274997  21.3069988  75.4231634 104.1925413  20.6223145
  73.8480012 101.2924997  19.1799988  73.9440012 101.9594997  18.4989988
  73.7080012 100.4764997  18.6979988  73.8422135 101.2734500  19.0218491
  73.0170012 102.6724997  24.8009988  72.8670012 101.7274997  24.7799988
  72.6640012 102.9534997  25.6439988  72.9486625 102.5810441  24.9122346
  58.0530012 104.7504997  28.8109988  58.2370012 104.6684997  27.8749988
  58.9020012 104.6264997  29.2349988  58.1930139 104.7225003  28.7401455
  73.8740012 104.6424997  34.4389988  74.4570012 103.9084997  34.6309988
  74.4380012 105.4144997  34.4859988  74.0299769 104.6464227  34.4716159
  75.3700012 102.5454997  35.1239988  74.5070012 102.1664997  34.9579988
  75.9750012 101.8064997  35.0499988  75.3335979 102.3938023  35.0912817
  73.0950012  98.7004997  18.2969988  73.7060012  98.3294997  18.9339988
  72.2590012  98.2794997  18.4929988  73.0655032  98.5927554  18.4107035
  72.7280012 100.2554997  23.2629988  73.0080012  99.3484997  23.3869988
  73.4870012 100.6894997  22.8739988  72.8689277 100.1900942  23.2273682
  73.3400012 100.8364997  28.6989988  74.2730012 101.0484997  28.6649988
  73.1050012 100.9384997  29.6209988  73.4358036 100.8792769  28.8189976
  73.3690012 101.5734997  31.4749988  72.5260012 101.8414997  31.8409988
  73.8110012 102.3954997  31.2639988  73.3134158 101.7213291  31.4965491
  57.6500012 100.0214997  34.9519988  58.5700012  99.8994997  35.1879988
  57.2010012  99.2714997  35.3409988  57.7151580  99.9033727  35.0369006
  75.6520012  95.5534997  36.8279988  76.0020012  94.8994997  36.2229988
  75.7990012  96.3904997  36.3889988  75.7198419  95.5771591  36.6857118
  73.3410012  97.5184997  23.3109988  73.5240012  97.0694997  24.1369988
  72.7420012  96.9334997  22.8479988  73.2850202  97.3779975  23.3613275
  58.8710012  98.3334997  27.8429988  59.3170012  97.5414997  28.1449988
  59.3380012  99.0494997  28.2739988  58.9950172  98.3220624  27.9424820
  57.1750012 101.3324997  28.9119988  57.6670012 101.1114997  28.1209988
  57.5380012 102.1734997  29.1929988  57.2913126 101.4158357  28.8417531
  75.1720012  97.6624997  35.1779988  74.2540012  97.9334997  35.1419988
  75.2950012  97.1274997  34.3929988  75.0631066  97.6272892  35.0670487
  75.2080012  97.5854997  19.8389988  75.6200012  96.8644997  19.3639988
  75.8900012  98.2554997  19.8979988  75.3565885  97.5772368  19.7818915
  57.4890012  97.5904997  22.9659988  56.5640012  97.7994997  22.8369988
  57.9430012  98.0744997  22.2769988  57.4237368  97.6845993  22.8551226
  72.2600012 112.5744997  24.9119988  72.9120012 112.2274997  24.3039988
  72.7700012 113.0634997  25.5579988  72.4182637 112.5930597  24.9160236
  57.4530012  96.3284997  31.3109988  56.7880012  96.0824997  31.9539988
  57.0100012  96.9504997  30.7329988  57.3020956  96.3788632  31.3209352
  59.6450012 109.5034997  35.4549988  58.8240012 109.6784997  34.9949988
  59.3920012 109.4304997  36.3759988  59.4986164 109.5175622  35.5164923
  62.5990012 110.4784997  31.7139988  62.1740012 111.2874997  31.4309988
  63.5030012 110.5634997  31.4119988  62.6630271 110.6008469  31.6343776
  66.9100012 111.8774997  34.6729988  67.0950012 111.5434997  35.5509988
  67.7560012 112.1864997  34.3509988  67.0497539 111.8736047  34.7495605
  69.2550012 113.1634997  33.9169988  69.9320012 112.5304997  33.6769988
  69.5770012 113.5644997  34.7239988  69.3911637 113.1311154  33.9932793
  74.1720012  95.7524997  32.9969988  73.3600012  96.0774997  32.6089988
  74.4050012  94.9924997  32.4639988  74.0923423  95.6942436  32.8718253
  60.0010012 113.7344997  31.7609988  59.2800012 114.1744997  31.3099988
  59.6350012 113.4834997  32.6099988  59.8529804 113.7607698  31.8139840
  62.4680012 113.3344997  30.7909988  61.6030012 113.4064997  31.1949988
  62.4130012 113.8814997  30.0069988  62.3422085 113.4182685  30.7403362
  67.1780012 113.2224997  29.9659988  66.7220012 113.7514997  29.3119988
  67.3410012 113.8254997  30.6919988  67.1375585 113.3764468  29.9745062
  69.5060012 112.1004997  30.9109988  68.6010012 112.2654997  30.6459988
  69.9350012 112.9534997  30.8459988  69.4400799 112.2384483  30.8659182
  72.1100012 113.6704997  31.2059988  71.9280012 114.5864997  30.9959988
  72.2870012 113.2604997  30.3599988  72.1090210 113.7404822  31.0627885
  59.4150012 112.3574997  28.6709988  59.3970012 111.9324997  29.5289988
  60.2200012 112.0394997  28.2629988  59.5213875 112.2563812  28.7331655
  61.5570012 111.0674997  27.3259988  61.3380012 110.1514997  27.4959988
  62.3810012 111.2074997  27.7919988  61.6384420 110.9610520  27.4122774
  64.0940012 111.5374997  28.1749988  64.3070012 110.6494997  27.8879988
  64.1580012 111.5034997  29.1289988  64.1318231 111.4113102  28.2647397
  67.6020012  97.2014997  27.3189988  66.9280012  96.5724997  27.5749988
  68.1660012  96.7174997  26.7159988  67.5859230  97.0498744  27.2725340
  72.7450012  95.3094997  27.4319988  73.3490012  95.8564997  26.9299988
  71.8750012  95.6284997  27.1919988  72.7101241  95.4275806  27.3307654
  74.4720012  96.4474997  25.7649988  75.0840012  95.9334997  25.2389988
  74.8540012  97.3254997  25.7889988  74.6074540  96.4957140  25.6961830
  59.9290012  95.8354997  25.1409988  59.1520012  95.6014997  24.6339988
  60.4590012  95.0384997  25.1499988  59.8942330  95.6956988  25.0727742
  58.7650012  95.6334997  20.9449988  59.2040012  96.2444997  20.3529988
  58.1320012  96.1714997  21.4189988  58.7394514  95.7899257  20.9280930
  64.5080012  95.7624997  24.9549988  65.3830012  96.1504997  24.9249988
  64.3720012  95.5474997  25.8769988  64.6093695  95.7865184  25.0756440
  70.0650012  95.7924997  26.6039988  70.1410012  95.8874997  25.6539988
  69.7900012  94.8844997  26.7329988  70.0382321  95.6827867  26.4915079
  71.4180012  95.8184997  22.2959988  70.7160012  96.4334997  22.0869988
  70.9740012  94.9804997  22.4269988  71.2616330  95.7895783  22.2850328
  58.6660012 111.5814997  21.8429988  57.9810012 111.5434997  21.1749988
  58.6700012 112.4944997  22.1309988  58.5728193 111.6997016  21.7905284
  60.6260012  97.5494997  19.3869988  61.1180012  96.9194997  18.8599988
  61.2500012  97.8454997  20.0509988  60.7775446  97.5033199  19.4045980
  65.6520012  97.8424997  21.8439988  65.8300012  97.1964997  22.5269988
  65.5990012  98.6764997  22.3119988  65.6691829  97.8667985  22.0005940
  67.5310012 112.7914997  20.2399988  68.3970012 113.1574997  20.0619988
  67.2840012 112.3514997  19.4259988  67.6162392 112.7821756  20.1056289
  74.2400012 112.3544997  22.9189988  74.0450012 111.6064997  22.3539988
  74.2010012 113.1124997  22.3359988  74.2080380 112.3546099  22.7628384
  59.8870012  96.3494997  34.6589988  59.5210012  95.5844997  35.1019988
  60.8000012  96.3784997  34.9459988  59.9602790  96.2487224  34.7584070
  61.8600012  95.7004997  36.1949988  62.7580012  95.4264997  36.0099988
  61.4730012  94.9574997  36.6589988  61.9306612  95.5625914  36.2323643
  60.4840012 112.5014997  18.8679988  60.2170012 112.7884997  19.7409988
  61.2560012 111.9554997  19.0199988  60.5517488 112.4670294  19.0081050
  70.2810012  95.0324997  36.3769988  70.3580012  94.6064997  37.2309988
  71.1750012  95.0464997  36.0339988  70.4123428  94.9760879  36.4475310
  73.4570012 111.1054997  35.0689988  72.6750012 110.9194997  34.5499988
  73.3850012 112.0344997  35.2869988  73.3401777 111.2056492  35.0274048
  87.8630012 104.9914997  25.0999988  87.9520012 105.9354997  24.9679988
  87.2250012 104.7164997  24.4419988  87.7889081 105.0834830  24.9929614
  86.7960012 104.2464997  28.5189988  86.7580012 103.6004997  29.2239988
  86.4740012 103.7804997  27.7479988  86.7472333 104.0949408  28.5112978
  79.1650012 103.8614997  30.1119988  79.2060012 103.2354997  30.8349988
  79.8680012 104.4854997  30.2939988  79.2656363 103.8601196  30.2356044
  90.5020012 107.1854997  26.8199988  90.0620012 106.4654997  27.2709988
  90.4890012 107.9064997  27.4499988  90.4400226 107.1843731  26.9668494
  80.0880012 108.3114997  28.6469988  79.7190012 107.5094997  28.2769988
  81.0290012 108.1424997  28.6929988  80.1647289 108.1790153  28.6026316
  76.6980012 101.9714997  24.0399988  76.2510012 102.8174997  24.0209988
  76.1370012 101.3914997  23.5239988  76.5609900 102.0089916  23.9676801
  77.4090012 104.1334997  26.1659988  77.6220012 103.3634997  26.6929988
  78.1470012 104.2224997  25.5619988  77.5378496 104.0401394  26.1565300
  87.6140012 112.2904997  27.0329988  88.2340012 111.6134997  26.7589988
  87.4060012 112.0724997  27.9409988  87.6706904 112.1683870  27.1183365
  85.1860012 106.6794997  28.9249988  85.4900012 105.9934997  28.3299988
  85.9070012 106.7974997  29.5429988  85.3250671 106.6016305  28.9271816
  93.8490012  98.2804997  29.7859988  93.8980012  98.8904997  30.5219988
  94.2740012  98.7414997  29.0629988  93.9131824  98.4263741  29.7890205
  88.3270012 101.0734997  29.2529988  88.4690012 100.1274997  29.2729988
  88.2200012 101.2804997  28.3239988  88.3319863 100.9719534  29.1302339
  81.4810012  99.1744997  26.5249988  81.5250012 100.0344997  26.1069988
  81.0240012  98.6224997  25.8909988  81.4252185  99.2175799  26.3820299
  89.2040012  99.3054997  24.9259988  89.8500012  98.9764997  25.5509988
  89.7140012  99.8234997  24.3029988  89.3614264  99.3304611  24.9273862
  78.1020012 101.5714997  27.2869988  78.7550012 101.0214997  27.7189988
  78.1260012 101.2974997  26.3699988  78.1946683 101.4591466  27.2222123
  83.2580012 103.1214997  26.5019988  83.8740012 102.5954997  27.0119988
  82.6720012 102.4814997  26.0989988  83.2630810 102.9629208  26.5173173
  94.2400012  99.7584997  32.0219988  93.5520012 100.4164997  31.9259988
  94.2560012  99.5614997  32.9579988  94.1478525  99.8220462  32.1354808
  80.2920012  98.0924997  30.5989988  80.0730012  98.6224997  29.8329988
  79.6240012  98.3194997  31.2459988  80.1717600  98.1956906  30.5816379
  87.6610012 107.5924997  24.1429988  87.3650012 107.2704997  23.2919988
  87.3360012 108.4924997  24.1839988  87.5766371 107.6700215  24.0321801
  82.8610012 105.7684997  30.8859988  82.1210012 106.3664997  30.9899988
  83.5750012 106.3224997  30.5709988  82.8562237 105.9252831  30.8576465
  90.9680012  98.5964997  26.9059988  90.7520012  97.8304997  27.4389988
  91.6230012  99.0684997  27.4189988  91.0270632  98.5555889  27.0482861
  79.8850012  99.9844997  28.5509988  80.4990012 100.6174997  28.9249988
  80.3970012  99.5124997  27.8949988  80.0382296 100.0072370  28.5134252
  81.2680012 107.7324997  31.6739988  81.2630012 108.6124997  31.2959988
  80.4150012 107.6494997  32.0989988  81.1519464 107.8416117  31.6797907
  77.3890012 107.4034997  22.4559988  77.1170012 107.6324997  21.5669988
  77.4350012 108.2414997  22.9159988  77.3580094 107.5481213  22.3965697
  91.0140012 109.0254997  29.1679988  90.0730012 109.0834997  29.3299988
  91.2910012 109.9314997  29.0309988  90.9224679 109.1559443  29.1716815
  91.3150012  97.3114997  30.5859988  90.5790012  97.9224997  30.5479988
  91.9980012  97.7264997  30.0589988  91.3066541  97.4511374  30.5095832
  84.3180012  95.3984997  28.0519988  84.2010012  94.4494997  27.9969988
  83.4630012  95.7304997  28.3249988  84.1863733  95.3135409  28.0813897
  89.2660012 110.8064997  25.7939988  89.6920012 110.0994997  25.3089988
  89.5830012 111.6074997  25.3769988  89.3671019 110.8180994  25.6713130
  90.4260012 108.7074997  24.3019988  90.1680012 108.0174997  23.6909988
  90.4970012 108.2644997  25.1479988  90.4002856 108.5532124  24.3326885
  92.1120012 107.2734997  32.7799988  92.2520012 106.6824997  32.0399988
  92.2790012 108.1464997  32.4229988  92.1536778 107.3106426  32.6306965
  86.5850012 104.2354997  22.5519988  85.8730012 104.7704997  22.1999988
  87.2760012 104.2914997  21.8919988  86.5810132 104.3162543  22.4146289
  86.6380012 102.6934997  19.5909988  87.3390012 102.7154997  20.2419988
  86.9410012 102.0654997  18.9349988  86.7747830 102.6116566  19.5913711
  93.9540012 103.6134997  30.8459988  93.3010012 104.3084997  30.9349988
  94.4190012 103.8234997  30.0359988  93.9275390 103.7369425  30.7486883
  89.9900012 104.4454997  23.5039988  89.2580012 104.6734997  24.0769988
  90.4380012 103.7314997  23.9589988  89.9503095 104.3802571  23.6439119
  89.8880012 102.6194997  32.5709988  89.9680012 103.3824997  33.1429988
  89.2860012 102.8984997  31.8809988  89.8175756 102.7617134  32.5560589
  81.6360012 105.0754997  25.3859988  81.3050012 104.7054997  24.5679988
  82.2240012 104.4054997  25.7329988  81.6701873 104.9341156  25.3208102
  83.0020012 108.5034997  28.0679988  82.9080012 107.9254997  27.3109988
  83.7320012 108.1324997  28.5639988  83.0877981 108.3742390  28.0314165
  82.0020012 103.8444997  29.0199988  82.5680012 103.9654997  28.2569988
  82.3210012 104.4814997  29.6589988  82.1225786 103.9471884  29.0020040
  88.3110012 109.3474997  29.7539988  88.0710012 110.0094997  30.4019988
  88.1130012 108.5134997  30.1789988  88.2513808 109.3253134  29.9001524
  82.8820012 108.2434997  33.7369988  82.5710012 109.0254997  34.1919988
  82.2320012 108.0904997  33.0509988  82.7515558 108.3299105  33.7065871
  88.8610012 103.6074997  21.1889988  89.4410012 103.7574997  21.9359988
  89.2750012 104.0784997  20.4659988  88.9962830 103.6916841  21.1934134
  79.8020012 104.4414997  32.9659988  79.8730012 105.0924997  33.6639988
  78.9120012 104.5444997  32.6309988  79.6913117 104.5445936  33.0162700
  86.5880012 110.3444997  24.6239988  87.0620012 110.6394997  25.4019988
  86.0250012 111.0824997  24.3909988  86.5767653 110.4846932  24.6990136
  81.1220012 110.3154997  34.4999988  81.1290012 110.1794997  33.5529988
  80.2060012 110.1974997  34.7519988  80.9991714 110.2809430  34.4044666
  92.5600012  95.3574997  21.0019988  91.6600012  95.4964997  21.2969988
  92.8120012  96.1884997  20.5999988  92.4708702  95.4889074  20.9880205
  80.6260012 104.1454997  22.9759988  80.3340012 104.9134997  22.4849988
  79.9520012 103.4854997  22.8129988  80.4949081 104.1614406  22.8867340
  93.7490012 109.7234997  19.3779988  93.8230012 110.6624997  19.5489988
  94.6550012 109.4184997  19.3219988  93.8815100 109.8106722  19.3938119
  76.7190012 106.5084997  31.7909988  76.2180012 106.4804997  30.9759988
  76.7240012 105.6024997  32.0999988  76.6511526 106.3822278  31.7212872
  76.4690012 109.2884997  28.6749988  77.4150012 109.1444997  28.6559988
  76.3570012 110.0724997  29.2119988  76.5832727 109.3748046  28.7450072
  94.6670012 109.9544997  34.3569988  94.6180012 108.9994997  34.3199988
  93.8400012 110.2224997  34.7579988  94.5484940 109.8598998  34.4061375
  85.6460012 109.5284997  33.2329988  85.7330012 110.3544997  33.7079988
  84.7820012 109.1984997  33.4819988  85.5411964 109.5969878  33.3316549
  86.0600012 113.3004997  23.0389988  85.9850012 113.1794997  22.0929988
  86.0930012 114.2504997  23.1579988  86.0541848 113.4122500  22.9254834
  79.7130012 112.0894997  24.8199988  79.8660012 111.7414997  25.6989988
  78.8630012 111.7334997  24.5649988  79.6188962 111.9936650  24.9058340
  89.1620012 112.4544997  20.0409988  89.5370012 111.7104997  19.5709988
  89.1660012 112.1844997  20.9599988  89.2138915 112.3161486  20.1007824
  88.8310012 112.3804997  22.7909988  87.8950012 112.4804997  22.9689988
  89.1110012 111.6714997  23.3689988  88.7408255 112.2982711  22.8935391
  91.8190012 101.4474997  34.8369988  91.4120012 101.9284997  34.1159988
  91.8600012 100.5424997  34.5289988  91.7688437 101.3909374  34.6966683
  78.9680012 107.8314997  32.8339988  79.1840012 107.4704997  33.6929988
  78.1130012 107.4574997  32.6239988  78.8819292 107.7314111  32.9233386
  81.5870012  96.3014997  28.8289988  80.7250012  96.2144997  28.4219988
  81.5640012  97.1574997  29.2569988  81.4660330  96.4052765  28.8311863
  86.2500012  96.0234997  32.2039988  86.6700012  95.6084997  32.9569988
  85.3170012  95.8454997  32.3209988  86.1813644  95.9425900  32.3229539
  89.5760012  99.7794997  33.0569988  89.0620012  99.6534997  33.8549988
  89.4210012 100.6914997  32.8129988  89.4846852  99.8856132  33.1332158
  90.3390012 104.6404997  18.8189988  90.3810012 104.4174997  17.8889988
  91.1880012 105.0394997  19.0089988  90.4595396 104.6639155  18.7173627
  85.9110012  98.5164997  19.4889988  85.6580012  98.5354997  20.4119988
  85.6550012  97.6444997  19.1879988  85.8417790  98.4012437  19.5746263
  81.6780012 101.2674997  29.9239988  81.0360012 101.2264997  30.6329988
  81.7150012 102.1934997  29.6869988  81.5951324 101.3871559  29.9889824
  81.6750012 101.4884997  24.8359988  80.7820012 101.1474997  24.7779988
  82.1250012 101.1114997  24.0809988  81.6137305 101.3908484  24.7259177
  87.2100012 101.9044997  23.6529988  86.8010012 102.7194997  23.3619988
  87.9310012 101.7644997  23.0389988  87.2514537 101.9972018  23.5301342
  86.3120012 102.0794997  35.1409988  85.7500012 101.3754997  35.4619988
  87.1390012 101.9594997  35.6089988  86.3467095 101.9667883  35.2482330
  88.2150012 101.3504997  26.4669988  88.0200012 101.9554997  25.7519988
  88.3960012 100.5164997  26.0329988  88.2127614 101.3206300  26.3104405
  79.4280012 101.5874997  31.7909988  79.3900012 101.9874997  32.6599988
  78.9370012 100.7704997  31.8819988  79.3564684 101.5318069  31.9221059
  82.7940012  98.9614997  18.5899988  82.3630012  98.5164997  19.3199988
  82.0760012  99.3334997  18.0779988  82.6379438  98.9508940  18.6206799
  76.0360012  98.7034997  25.6419988  76.6670012  98.6744997  26.3609988
  76.4850012  98.2784997  24.9119988  76.1830774  98.6420492  25.6416553
  77.3100012  99.4494997  21.0659988  77.7840012 100.0404997  20.4809988
  76.5930012  99.9804997  21.4129988  77.2779341  99.6020867  21.0328836
  87.4790012 102.9884997  31.1389988  87.8020012 102.3574997  30.4959988
  87.0390012 102.4534997  31.7989988  87.4636895 102.8298441  31.1402850
  84.2560012  98.9154997  25.9229988  83.3450012  98.9724997  26.2109988
  84.7620012  98.8554997  26.7329988  84.1995413  98.9151985  26.0720622
  79.0850012 100.5444997  24.7489988  78.1950012 100.6444997  24.4089988
  79.3810012  99.7024997  24.4029988  79.0032823 100.4443546  24.6557213
  82.7380012 100.5444997  22.4059988  83.6690012 100.6734997  22.5839988
  82.5230012 101.2144997  21.7559988  82.8364247 100.6526565  22.3425747
  88.6610012  98.1504997  29.1869988  87.9850012  98.2814997  29.8509988
  88.1760012  97.9954997  28.3769988  88.5027145  98.1474905  29.1684517
  81.4120012 101.7394997  19.9729988  80.8690012 101.3594997  19.2809988
  82.2450012 101.9334997  19.5439988  81.4504399 101.7138124  19.8204526
  91.9490012 113.8224997  35.4639988  92.1490012 114.2464997  34.6289988
  92.6040012 114.1654997  36.0709988  92.0650051 113.9269648  35.4317836
  79.5470012 106.2964997  35.0719988  80.2790012 106.5504997  35.6329988
  78.7670012 106.5004997  35.5869988  79.5418232 106.3589177  35.2185760
  85.5760012 101.7034997  27.8099988  86.1410012 101.1564997  27.2629988
  85.4290012 101.1814997  28.5979988  85.6332918 101.5582024  27.8418454
  80.5780012  97.8394997  24.2279988  80.2610012  96.9374997  24.1929988
  81.3600012  97.8414997  23.6749988  80.6402284  97.7161628  24.1484783
  84.2030012 100.0914997  30.2239988  83.3670012 100.5454997  30.3339988
  84.7270012 100.3674997  30.9759988  84.1594414 100.1909376  30.3407136
  84.7470012 106.3044997  21.9079988  84.0020012 105.7974997  21.5859988
  84.6130012 106.3534997  22.8549988  84.6268776 106.2416940  21.9918647
  91.8970012 105.4374997  30.6949988  92.5390012 105.8944997  30.1509988
  91.0670012 105.5504997  30.2319988  91.8725963 105.5152704  30.5580177
  88.6450012  99.1184997  20.1079988  87.7060012  99.2304997  19.9559988
  88.9420012  99.9754997  20.4139988  88.5567666  99.2496443  20.1285768
  86.2660012 106.4884997  33.1449988  85.9210012 106.1074997  33.9519988
  86.0660012 107.4224997  33.2169988  86.1918061 106.5625228  33.2650961
  89.3630012 100.9854997  21.7679988  90.2550012 100.8484997  22.0869988
  89.4200012 101.7764997  21.2319988  89.4926285 101.0736660  21.7391691
  79.8720012 105.5994997  27.6779988  80.6170012 105.5974997  27.0769988
  79.9500012 104.7764997  28.1599988  79.9845518 105.4879315  27.6608929
  86.8730012 107.7634997  20.9339988  86.5770012 108.5894997  21.3149988
  86.1700012 107.1434997  21.1299988  86.7374914 107.7928199  21.0126443
  76.8800012 104.0604997  32.9929988  77.1030012 103.6424997  33.8249988
  76.2780012 103.4474997  32.5699988  76.8291759 103.9204668  33.0497022
  83.8960012 103.5774997  35.2059988  83.6000012 103.4114997  34.3109988
  84.8280012 103.3574997  35.1949988  83.9814166 103.5250640  35.0820536
  88.5170012 108.9504997  33.0959988  87.6160012 109.1334997  32.8279988
  88.5510012 109.2094997  34.0169988  88.3983041 109.0105512  33.1838197
  94.2480012 101.1954997  21.4629988  93.6940012 100.7994997  20.7909988
  94.3480012 102.1054997  21.1849988  94.1857059 101.2643586  21.3334401
  94.2110012 106.9954997  34.2999988  93.3600012 107.2334997  33.9329988
  94.8020012 106.9784997  33.5469988  94.1742487 107.0258258  34.1478893
  92.5430012 109.9814997  21.9279988  92.1700012 109.1554997  22.2369988
  92.8210012 109.7984997  21.0309988  92.5295630 109.8437303  21.8489626
  89.7040012 104.7894997  28.9489988  88.7750012 104.5574997  28.9219988
  90.1550012 104.0124997  28.6189988  89.6379216 104.6527238  28.9006917
  82.2470012 109.1174997  25.0819988  82.7740012 109.8904997  24.8819988
  81.3670012 109.3424997  24.7809988  82.2001773 109.2538005  25.0139010
  78.0020012 103.9794997  19.6689988  78.6180012 104.6064997  20.0489988
  77.1400012 104.2954997  19.9409988  77.9697698 104.1079430  19.7577183
  83.6740012 106.7804997  24.6589988  83.4330012 107.7054997  24.6999988
  82.9330012 106.3214997  25.0549988  83.5408409 106.8451421  24.7181377
  84.1890012 110.9294997  30.9739988  84.5510012 111.7844997  30.7399988
  84.7200012 110.6374997  31.7139988  84.3104473 111.0071060  31.0420855
  82.3570012 111.8024997  24.2039988  81.4070012 111.9074997  24.2549988
  82.7090012 112.6224997  24.5489988  82.2744203 111.9278314  24.2576650
  87.7330012 107.0284997  30.6739988  87.3070012 106.8014997  31.5009988
  88.3130012 106.2904997  30.4919988  87.7531868 106.8975299  30.7625830
  89.9360012 107.9574997  19.7479988  90.2890012 107.5774997  20.5529988
  88.9870012 107.8644997  19.8349988  89.8560441 107.8929596  19.8698559
  90.3910012 111.5804997  33.1439988  89.7900012 111.0254997  32.6479988
  90.6730012 112.2474997  32.5179988  90.3468519 111.5946841  32.9914952
  94.4390012 112.4374997  19.9489988  95.1830012 113.0234997  19.8089988
  93.7450012 113.0054997  20.2829988  94.4470292 112.5945582  19.9749961
  78.5140012  98.8134997  32.5509988  77.6210012  99.1524997  32.4829988
  78.4150012  97.9584997  32.9689988  78.3784164  98.7442588  32.5982235
  90.8020012 106.6304997  21.9749988  90.5240012 105.9024997  22.5309988
  91.7290012 106.7494997  22.1799988  90.8893124 106.5468802  22.0788845
  78.1650012 110.6184997  30.9859988  78.3820012 109.6864997  30.9549988
  78.4110012 110.8924997  31.8689988  78.2279549 110.5280636  31.1011763
  84.0270012 109.0694997  18.1949988  84.2660012 108.3214997  17.6479988
  83.7580012 108.6814997  19.0279988  84.0233675 108.9146638  18.2326865
  82.9640012 108.6394997  20.6519988  83.1100012 108.1194997  21.4419988
  82.9610012 109.5464997  20.9579988  82.9835989 108.6908853  20.8016088
  79.4170012 105.8924997  21.1619988  78.7310012 106.2444997  21.7289988
  79.9390012 106.6554997  20.9149988  79.3936852 106.0438578  21.2062118
  87.2480012  98.5544997  31.4409988  87.9470012  98.6284997  32.0909988
  86.8670012  97.6904997  31.5949988  87.2921767  98.4477624  31.5508322
  88.0330012  98.2064997  22.5379988  88.2530012  98.6784997  21.7349988
  88.5910012  98.6014997  23.2079988  88.1384968  98.3244285  22.5187331
  85.7010012 110.3374997  21.4009988  84.8850012 110.8344997  21.4529988
  86.2310012 110.8124997  20.7609988  85.6609161 110.4697722  21.3215956
  85.2330012  99.9344997  23.3729988  86.0450012 100.4394997  23.4189988
  84.9880012  99.7894997  24.2869988  85.3110520  99.9840375  23.5028517
  85.7680012 100.9204997  32.5579988  85.8870012 101.4944997  33.3149988
  86.4240012 100.2324997  32.6719988  85.8729757 100.9061079  32.6770825
  86.1160012  97.0154997  24.3109988  85.7700012  97.6334997  24.9559988
  86.7750012  97.5164997  23.8299988  86.1577826  97.1675802  24.3340971
  83.0400012 111.3814997  21.3829988  83.2000012 112.1804997  20.8819988
  82.8420012 111.6874997  22.2679988  83.0351649 111.5324469  21.4339815
  81.7740012  98.0784997  20.9979988  81.6910012  98.9674997  21.3449988
  82.6640012  97.8134997  21.2299988  81.8829469  98.1641430  21.0767626
  91.9730012  98.8274997  33.3929988  91.0560012  99.0904997  33.3049988
  92.3080012  98.8244997  32.4959988  91.8929900  98.8630224  33.2597919
  90.5750012 102.5784997  27.4879988  89.7770012 102.1634997  27.1599988
  91.0200012 101.8874997  27.9789988  90.5259885 102.4283543  27.5094889
  80.0330012 108.5064997  20.0589988  80.6250012 109.2054997  20.3349988
  80.4920012 108.0734997  19.3389988  80.1761142 108.5437049  19.9994830
  78.3490012 101.1704997  19.1749988  78.3040012 102.1094997  19.3529988
  77.4610012 100.9344997  18.9049988  78.2228574 101.2671892  19.1628912
  91.6610012 111.8344997  29.1109988  91.5060012 112.5124997  28.4539988
  92.5940012 111.9064997  29.3139988  91.7658500 111.9370170  29.0485119
  79.1570012  95.9524997  27.8479988  78.9280012  96.0114997  26.9199988
  78.7140012  95.1604997  28.1539988  79.0658530  95.8535753  27.7624786
  78.0870012 109.8924997  24.0079988  77.2550012 110.3654997  24.0359988
  78.6330012 110.4024997  23.4099988  78.0469739 110.0261871  23.9309716
  77.3750012 112.5054997  35.3379988  77.9160012 112.2884997  36.0979988
  76.8940012 111.6994997  35.1489988  77.3839345 112.3669514  35.4163076
  81.9730012 111.4244997  36.9589988  82.7400012 110.9654997  37.2999988
  81.9510012 111.1984997  36.0289988  82.0751434 111.3310409  36.8800043
  86.0650012 110.9324997  18.3339988  85.4210012 110.3014997  18.6549988
  86.8270012 110.4014997  18.1019988  86.0798077 110.7742920  18.3466011
  88.5500012 109.8044997  35.6879988  88.1990012 108.9484997  35.9309988
  89.2760012 109.9474997  36.2949988  88.6000769 109.7065636  35.8033619
  90.6690012 110.7494997  18.5679988  90.9520012 109.9554997  19.0199988
  91.4090012 110.9824997  18.0069988  90.8077486 110.6722803  18.5540698
  77.2820012 106.3154997  36.2929988  77.4260012 105.4134997  36.0059988
  76.5100012 106.6014997  35.8049988  77.1973322 106.2308261  36.1877881
  81.6240012 106.6594997  18.4249988  81.6880012 105.8654997  18.9559988
  82.2770012 106.5404997  17.7349988  81.7210241 106.5347148  18.4044317
  83.9380012 106.2854997  35.7249988  83.6090012 106.5564997  34.8679988
  84.0900012 105.3444997  35.6379988  83.9134809 106.1953862  35.5958244
  86.9760012 107.7064997  18.1609988  86.7070012 107.8864997  19.0619988
  86.7700012 106.7804997  18.0299988  86.9113825 107.6060152  18.2665214
  89.6720012 106.2014997  33.1089988  90.4180012 106.7894997  32.9889988
  88.9150012 106.7834997  33.1719988  89.6717554 106.3607011  33.1010907
  78.1150012 103.5154997  35.7129988  78.5230012 102.6584997  35.5919988
  77.8550012 103.5304997  36.6339988  78.1357568 103.4000807  35.8209588
  82.7730012 104.6314997  20.7309988  82.3130012 104.1474997  21.4169988
  83.0280012 103.9634997  20.0949988  82.7444902 104.4748731  20.7389334
  82.0620012 102.5244997  33.0869988  81.4440012 103.1994997  33.3669988
  82.4060012 102.8454997  32.2539988  82.0239615 102.6602721  33.0126581
  83.8440012 102.8744997  18.9929988  83.6640012 102.7204997  18.0659988
  84.7940012 102.9824997  19.0379988  83.9477776 102.8680175  18.8721843
  87.0820012 104.9964997  36.3639988  88.0350012 105.0794997  36.3369988
  86.9210012 104.2844997  36.9839988  87.1906426 104.9116746  36.4440579
  93.2340012 105.2294997  18.4389988  92.9600012 104.8044997  17.6259988
  93.2730012 106.1604997  18.2219988  93.2017699 105.2972484  18.2983610
  82.4010012  99.8794997  34.1689988  82.5510012  99.1504997  33.5669988
  82.4040012 100.6564997  33.6099988  82.4219302  99.8847851  34.0110692
  82.8140012  98.2494997  31.6619988  83.3500012  98.7004997  31.0099988
  81.9620012  98.1414997  31.2389988  82.7722178  98.2966390  31.5155756
  84.3960012 103.6884997  31.9009988  85.1460012 103.5324997  31.3279988
  84.0570012 104.5404997  31.6259988  84.4528921 103.7822968  31.7853561
  88.8110012 101.5034997  36.9299988  89.0040012 100.5724997  36.8179988
  89.6690012 101.9284997  36.9199988  88.9533020 101.4336389  36.9133361
  90.1280012 104.2924997  35.0069988  89.8470012 105.0014997  34.4299988
  91.0710012 104.2194997  34.8559988  90.2169027 104.3797646  34.9075551
  80.8800012 101.0774997  36.0809988  80.1130012 100.5454997  35.8709988
  81.5590012 100.7674997  35.4809988  80.8667022 100.9627506  35.9711648
  83.6200012  95.7054997  32.0929988  83.5210012  96.6524997  31.9879988
  82.8770012  95.3334997  31.6179988  83.5060564  95.7845902  32.0144560
  84.8840012 100.0274997  35.6569988  84.6480012  99.8074997  36.5589988
  84.1000012  99.8204997  35.1469988  84.7458628  99.9694760  35.7113932
  87.5990012  99.1544997  34.7329988  86.6520012  99.1864997  34.8649988
  87.9120012  98.5294997  35.3859988  87.5115475  99.0743207  34.8394455
  89.2330012  97.7884997  36.7379988  89.1370012  96.8364997  36.7319988
  88.9120012  98.0574997  37.5979988  89.1764070  97.6944035  36.8535441
  79.0600012  98.9984997  35.7849988  79.2720012  98.2914997  35.1749988
  78.9490012  98.5604997  36.6289988  79.0739721  98.8427084  35.8156843
  83.8410012  94.9994997  34.7649988  84.5530012  94.3594997  34.7509988
  83.7400012  95.2664997  33.8509988  83.9247939  94.9479938  34.6395650
  84.1950012  96.6824997  36.8179988  84.0630012  96.2064997  35.9979988
  83.5960012  97.4264997  36.7629988  84.0959071  96.7179618  36.6982886
  83.7410012 113.5654997  19.9949988  84.6740012 113.7234997  20.1379988
  83.4770012 114.2404997  19.3699988  83.8329510 113.6783611  19.9300741
  77.3100012 108.2014997  19.4769988  78.2240012 108.2804997  19.7509988
  77.3170012 107.5144997  18.8109988  77.4361131 108.1193961  19.4244393
  75.9590012 113.5944997  24.5549988  75.3120012 113.1324997  24.0219988
  76.3130012 112.9224997  25.1369988  75.9183849 113.4404723  24.5607959
  76.8290012 111.6754997  26.3589988  76.4940012 110.7954997  26.5309988
  77.0510012 112.0204997  27.2239988  76.8131783 111.6017500  26.4994208
  94.3770012 112.4844997  29.3399988  94.3560012 112.6694997  30.2789988
  95.0680012 113.0534997  28.9989988  94.4674618 112.5866606  29.4223864
  93.9410012 112.0524997  32.2619988  93.4530012 111.3164997  31.8909988
  94.4900012 111.6584997  32.9399988  93.9484872 111.8986249  32.3029160
  92.3910012 107.8414997  36.8999988  91.5250012 107.7364997  37.2939988
  92.7680012 108.6004997  37.3459988  92.3233308 107.9296900  37.0142393
  93.6920012 106.0984997  22.4139988  94.5420012 106.5194997  22.5409988
  93.6980012 105.3584997  23.0209988  93.8091372 106.0560803  22.5134344
  94.0870012 104.1514997  24.2379988  93.3600012 103.6724997  24.6349988
  94.6680012 104.3574997  24.9699988  94.0659375 104.1137090  24.3914129
  93.8460012 106.9364997  29.1849988  94.6790012 106.5584997  28.9049988
  93.9580012 107.8794997  29.0659988  93.9752647 107.0122218  29.1305487
  92.3320012 109.8144997  31.4919988  91.6850012 110.1394997  32.1179988
  91.8150012 109.3744997  30.8179988  92.1734029 109.7995004  31.4865827
  94.3550012 104.0524997  20.6289988  93.8330012 104.4094997  19.9099988
  94.3220012 104.7274997  21.3069988  94.2791634 104.1925413  20.6223145
  92.7040012 101.2924997  19.1799988  92.8000012 101.9594997  18.4989988
  92.5640012 100.4764997  18.6979988  92.6982135 101.2734500  19.0218491
  91.8730012 102.6724997  24.8009988  91.7230012 101.7274997  24.7799988
  91.5200012 102.9534997  25.6439988  91.8046625 102.5810441  24.9122346
  76.9090012 104.7504997  28.8109988  77.0930012 104.6684997  27.8749988
  77.7580012 104.6264997  29.2349988  77.0490139 104.7225003  28.7401455
  92.7300012 104.6424997  34.4389988  93.3130012 103.9084997  34.6309988
  93.2940012 105.4144997  34.4859988  92.8859769 104.6464227  34.4716159
  94.2260012 102.5454997  35.1239988  93.3630012 102.1664997  34.9579988
  94.8310012 101.8064997  35.0499988  94.1895979 102.3938023  35.0912817
  91.9510012  98.7004997  18.2969988  92.5620012  98.3294997  18.9339988
  91.1150012  98.2794997  18.4929988  91.9215032  98.5927554  18.4107035
  91.5840012 100.2554997  23.2629988  91.8640012  99.3484997  23.3869988
  92.3430012 100.6894997  22.8739988  91.7249277 100.1900942  23.2273682
  92.1960012 100.8364997  28.6989988  93.1290012 101.0484997  28.6649988
  91.9610012 100.9384997  29.6209988  92.2918036 100.8792769  28.8189976
  92.2250012 101.5734997  31.4749988  91.3820012 101.8414997  31.8409988
  92.6670012 102.3954997  31.2639988  92.1694158 101.7213291  31.4965491
  76.5060012 100.0214997  34.9519988  77.4260012  99.8994997  35.1879988
  76.0570012  99.2714997  35.3409988  76.5711580  99.9033727  35.0369006
  94.5080012  95.5534997  36.8279988  94.8580012  94.8994997  36.2229988
  94.6550012  96.3904997  36.3889988  94.5758419  95.5771591  36.6857118
  92.1970012  97.5184997  23.3109988  92.3800012  97.0694997  24.1369988
  91.5980012  96.9334997  22.8479988  92.1410202  97.3779975  23.3613275
  77.7270012  98.3334997  27.8429988  78.1730012  97.5414997  28.1449988
  78.1940012  99.0494997  28.2739988  77.8510172  98.3220624  27.9424820
  76.0310012 101.3324997  28.9119988  76.5230012 101.1114997  28.1209988
  76.3940012 102.1734997  29.1929988  76.1473126 101.4158357  28.8417531
  94.0280012  97.6624997  35.1779988  93.1100012  97.9334997  35.1419988
  94.1510012  97.1274997  34.3929988  93.9191066  97.6272892  35.0670487
  94.0640012  97.5854997  19.8389988  94.4760012  96.8644997  19.3639988
  94.7460012  98.2554997  19.8979988  94.2125885  97.5772368  19.7818915
  76.3450012  97.5904997  22.9659988  75.4200012  97.7994997  22.8369988
  76.7990012  98.0744997  22.2769988  76.2797368  97.6845993  22.8551226
  91.1160012 112.5744997  24.9119988  91.7680012 112.2274997  24.3039988
  91.6260012 113.0634997  25.5579988  91.2742637 112.5930597  24.9160236
  76.3090012  96.3284997  31.3109988  75.6440012  96.0824997  31.9539988
  75.8660012  96.9504997  30.7329988  76.1580956  96.3788632  31.3209352
  78.5010012 109.5034997  35.4549988  77.6800012 109.6784997  34.9949988
  78.2480012 109.4304997  36.3759988  78.3546164 109.5175622  35.5164923
  81.4550012 110.4784997  31.7139988  81.0300012 111.2874997  31.4309988
  82.3590012 110.5634997  31.4119988  81.5190271 110.6008469  31.6343776
  85.7660012 111.8774997  34.6729988  85.9510012 111.5434997  35.5509988
  86.6120012 112.1864997  34.3509988  85.9057539 111.8736047  34.7495605
  88.1110012 113.1634997  33.9169988  88.7880012 112.5304997  33.6769988
  88.4330012 113.5644997  34.7239988  88.2471637 113.1311154  33.9932793
  93.0280012  95.7524997  32.9969988  92.2160012  96.0774997  32.6089988
  93.2610012  94.9924997  32.4639988  92.9483423  95.6942436  32.8718253
  78.8570012 113.7344997  31.7609988  78.1360012 114.1744997  31.3099988
  78.4910012 113.4834997  32.6099988  78.7089804 113.7607698  31.8139840
  81.3240012 113.3344997  30.7909988  80.4590012 113.4064997  31.1949988
  81.2690012 113.8814997  30.0069988  81.1982085 113.4182685  30.7403362
  86.0340012 113.2224997  29.9659988  85.5780012 113.7514997  29.3119988
  86.1970012 113.8254997  30.6919988  85.9935585 113.3764468  29.9745062
  88.3620012 112.1004997  30.9109988  87.4570012 112.2654997  30.6459988
  88.7910012 112.9534997  30.8459988  88.2960799 112.2384483  30.8659182
  90.9660012 113.6704997  31.2059988  90.7840012 114.5864997  30.9959988
  91.1430012 113.2604997  30.3599988  90.9650210 113.7404822  31.0627885
  78.2710012 112.3574997  28.6709988  78.2530012 111.9324997  29.5289988
  79.0760012 112.0394997  28.2629988  78.3773875 112.2563812  28.7331655
  80.4130012 111.0674997  27.3259988  80.1940012 110.1514997  27.4959988
  81.2370012 111.2074997  27.7919988  80.4944420 110.9610520  27.4122774
  82.9500012 111.5374997  28.1749988  83.1630012 110.6494997  27.8879988
  83.0140012 111.5034997  29.1289988  82.9878231 111.4113102  28.2647397
  86.4580012  97.2014997  27.3189988  85.7840012  96.5724997  27.5749988
  87.0220012  96.7174997  26.7159988  86.4419230  97.0498744  27.2725340
  91.6010012  95.3094997  27.4319988  92.2050012  95.8564997  26.9299988
  90.7310012  95.6284997  27.1919988  91.5661241  95.4275806  27.3307654
  93.3280012  96.4474997  25.7649988  93.9400012  95.9334997  25.2389988
  93.7100012  97.3254997  25.7889988  93.4634540  96.4957140  25.6961830
  78.7850012  95.8354997  25.1409988  78.0080012  95.6014997  24.6339988
  79.3150012  95.0384997  25.1499988  78.7502330  95.6956988  25.0727742
  77.6210012  95.6334997  20.9449988  78.0600012  96.2444997  20.3529988
  76.9880012  96.1714997  21.4189988  77.5954514  95.7899257  20.9280930
  83.3640012  95.7624997  24.9549988  84.2390012  96.1504997  24.9249988
  83.2280012  95.5474997  25.8769988  83.4653695  95.7865184  25.0756440
  88.9210012  95.7924997  26.6039988  88.9970012  95.8874997  25.6539988
  88.6460012  94.8844997  26.7329988  88.8942321  95.6827867  26.4915079
  90.2740012  95.8184997  22.2959988  89.5720012  96.4334997  22.0869988
  89.8300012  94.9804997  22.4269988  90.1176330  95.7895783  22.2850328
  77.5220012 111.5814997  21.8429988  76.8370012 111.5434997  21.1749988
  77.5260012 112.4944997  22.1309988  77.4288193 111.6997016  21.7905284
  79.4820012  97.5494997  19.3869988  79.9740012  96.9194997  18.8599988
  80.1060012  97.8454997  20.0509988  79.6335446  97.5033199  19.4045980
  84.5080012  97.8424997  21.8439988  84.6860012  97.1964997  22.5269988
  84.4550012  98.6764997  22.3119988  84.5251829  97.8667985  22.0005940
  86.3870012 112.7914997  20.2399988  87.2530012 113.1574997  20.0619988
  86.1400012 112.3514997  19.4259988  86.4722392 112.7821756  20.1056289
  93.0960012 112.3544997  22.9189988  92.9010012 111.6064997  22.3539988
  93.0570012 113.1124997  22.3359988  93.0640380 112.3546099  22.7628384
  78.7430012  96.3494997  34.6589988  78.3770012  95.5844997  35.1019988
  79.6560012  96.3784997  34.9459988  78.8162790  96.2487224  34.7584070
  80.7160012  95.7004997  36.1949988  81.6140012  95.4264997  36.0099988
  80.3290012  94.9574997  36.6589988  80.7866612  95.5625914  36.2323643
  79.3400012 112.5014997  18.8679988  79.0730012 112.7884997  19.7409988
  80.1120012 111.9554997  19.0199988  79.4077488 112.4670294  19.0081050
  89.1370012  95.0324997  36.3769988  89.2140012  94.6064997  37.2309988
  90.0310012  95.0464997  36.0339988  89.2683428  94.9760879  36.4475310
  92.3130012 111.1054997  35.0689988  91.5310012 110.9194997  34.5499988
  92.2410012 112.0344997  35.2869988  92.1961777 111.2056492  35.0274048
 106.7190012 104.9914997  25.0999988 106.8080012 105.9354997  24.9679988
 106.0810012 104.7164997  24.4419988 106.6449081 105.0834830  24.9929614
 105.6520012 104.2464997  28.5189988 105.6140012 103.6004997  29.2239988
 105.3300012 103.7804997  27.7479988 105.6032333 104.0949408  28.5112978
  98.0210012 103.8614997  30.1119988  98.0620012 103.2354997  30.8349988
  98.7240012 104.4854997  30.2939988  98.1216363 103.8601196  30.2356044
 109.3580012 107.1854997  26.8199988 108.9180012 106.4654997  27.2709988
 109.3450012 107.9064997  27.4499988 109.2960226 107.1843731  26.9668494
  98.9440012 108.3114997  28.6469988  98.5750012 107.5094997  28.2769988
  99.8850012 108.1424997  28.6929988  99.0207289 108.1790153  28.6026316
  95.5540012 101.9714997  24.0399988  95.1070012 102.8174997  24.0209988
  94.9930012 101.3914997  23.5239988  95.4169900 102.0089916  23.9676801
  96.2650012 104.1334997  26.1659988  96.4780012 103.3634997  26.6929988
  97.0030012 104.2224997  25.5619988  96.3938496 104.0401394  26.1565300
 106.4700012 112.2904997  27.0329988 107.0900012 111.6134997  26.7589988
 106.2620012 112.0724997  27.9409988 106.5266904 112.1683870  27.1183365
 104.0420012 106.6794997  28.9249988 104.3460012 105.9934997  28.3299988
 104.7630012 106.7974997  29.5429988 104.1810671 106.6016305  28.9271816
 112.7050012  98.2804997  29.7859988 112.7540012  98.8904997  30.5219988
 113.1300012  98.7414997  29.0629988 112.7691824  98.4263741  29.7890205
 107.1830012 101.0734997  29.2529988 107.3250012 100.1274997  29.2729988
 107.0760012 101.2804997  28.3239988 107.1879864 100.9719534  29.1302339
 100.3370012  99.1744997  26.5249988 100.3810012 100.0344997  26.1069988
  99.8800012  98.6224997  25.8909988 100.2812185  99.2175799  26.3820299
 108.0600012  99.3054997  24.9259988 108.7060012  98.9764997  25.5509988
 108.5700012  99.8234997  24.3029988 108.2174264  99.3304611  24.9273862
  96.9580012 101.5714997  27.2869988  97.6110012 101.0214997  27.7189988
  96.9820012 101.2974997  26.3699988  97.0506683 101.4591466  27.2222123
 102.1140012 103.1214997  26.5019988 102.7300012 102.5954997  27.0119988
 101.5280012 102.4814997  26.0989988 102.1190810 102.9629208  26.5173173
 113.0960012  99.7584997  32.0219988 112.4080012 100.4164997  31.9259988
 113.1120012  99.5614997  32.9579988 113.0038525  99.8220462  32.1354808
  99.1480012  98.0924997  30.5989988  98.9290012  98.6224997  29.8329988
  98.4800012  98.3194997  31.2459988  99.0277600  98.1956906  30.5816379
 106.5170012 107.5924997  24.1429988 106.2210012 107.2704997  23.2919988
 106.1920012 108.4924997  24.1839988 106.4326371 107.6700215  24.0321801
 101.7170012 105.7684997  30.8859988 100.9770012 106.3664997  30.9899988
 102.4310012 106.3224997  30.5709988 101.7122237 105.9252831  30.8576465
 109.8240012  98.5964997  26.9059988 109.6080012  97.8304997  27.4389988
 110.4790012  99.0684997  27.4189988 109.8830632  98.5555889  27.0482861
  98.7410012  99.9844997  28.5509988  99.3550012 100.6174997  28.9249988
  99.2530012  99.5124997  27.8949988  98.8942296 100.0072370  28.5134252
 100.1240012 107.7324997  31.6739988 100.1190012 108.6124997  31.2959988
  99.2710012 107.6494997  32.0989988 100.0079464 107.8416117  31.6797907
  96.2450012 107.4034997  22.4559988  95.9730012 107.6324997  21.5669988
  96.2910012 108.2414997  22.9159988  96.2140094 107.5481213  22.3965697
 109.8700012 109.0254997  29.1679988 108.9290012 109.0834997  29.3299988
 110.1470012 109.9314997  29.0309988 109.7784679 109.1559443  29.1716815
 110.1710012  97.3114997  30.5859988 109.4350012  97.9224997  30.5479988
 110.8540012  97.7264997  30.0589988 110.1626541  97.4511374  30.5095832
 103.1740012  95.3984997  28.0519988 103.0570012  94.4494997  27.9969988
 102.3190012  95.7304997  28.3249988 103.0423733  95.3135409  28.0813897
 108.1220012 110.8064997  25.7939988 108.5480012 110.0994997  25.3089988
 108.4390012 111.6074997  25.3769988 108.2231019 110.8180994  25.6713130
 109.2820012 108.7074997  24.3019988 109.0240012 108.0174997  23.6909988
 109.3530012 108.2644997  25.1479988 109.2562856 108.5532124  24.3326885
 110.9680012 107.2734997  32.7799988 111.1080012 106.6824997  32.0399988
 111.1350012 108.1464997  32.4229988 111.0096778 107.3106426  32.6306965
 105.4410012 104.2354997  22.5519988 104.7290012 104.7704997  22.1999988
 106.1320012 104.2914997  21.8919988 105.4370132 104.3162543  22.4146289
 105.4940012 102.6934997  19.5909988 106.1950012 102.7154997  20.2419988
 105.7970012 102.0654997  18.9349988 105.6307830 102.6116566  19.5913711
 112.8100012 103.6134997  30.8459988 112.1570012 104.3084997  30.9349988
 113.2750012 103.8234997  30.0359988 112.7835390 103.7369425  30.7486883
 108.8460012 104.4454997  23.5039988 108.1140012 104.6734997  24.0769988
 109.2940012 103.7314997  23.9589988 108.8063095 104.3802571  23.6439119
 108.7440012 102.6194997  32.5709988 108.8240012 103.3824997  33.1429988
 108.1420012 102.8984997  31.8809988 108.6735756 102.7617134  32.5560589
 100.4920012 105.0754997  25.3859988 100.1610012 104.7054997  24.5679988
 101.0800012 104.4054997  25.7329988 100.5261873 104.9341156  25.3208102
 101.8580012 108.5034997  28.0679988 101.7640012 107.9254997  27.3109988
 102.5880012 108.1324997  28.5639988 101.9437981 108.3742390  28.0314165
 100.8580012 103.8444997  29.0199988 101.4240012 103.9654997  28.2569988
 101.1770012 104.4814997  29.6589988 100.9785786 103.9471884  29.0020040
 107.1670012 109.3474997  29.7539988 106.9270012 110.0094997  30.4019988
 106.9690012 108.5134997  30.1789988 107.1073808 109.3253134  29.9001524
 101.7380012 108.2434997  33.7369988 101.4270012 109.0254997  34.1919988
 101.0880012 108.0904997  33.0509988 101.6075558 108.3299105  33.7065871
 107.7170012 103.6074997  21.1889988 108.2970012 103.7574997  21.9359988
 108.1310012 104.0784997  20.4659988 107.8522830 103.6916841  21.1934134
  98.6580012 104.4414997  32.9659988  98.7290012 105.0924997  33.6639988
  97.7680012 104.5444997  32.6309988  98.5473117 104.5445936  33.0162700
 105.4440012 110.3444997  24.6239988 105.9180012 110.6394997  25.4019988
 104.8810012 111.0824997  24.3909988 105.4327653 110.4846932  24.6990136
  99.9780012 110.3154997  34.4999988  99.9850012 110.1794997  33.5529988
  99.0620012 110.1974997  34.7519988  99.8551714 110.2809430  34.4044666
 111.4160012  95.3574997  21.0019988 110.5160012  95.4964997  21.2969988
 111.6680012  96.1884997  20.5999988 111.3268702  95.4889074  20.9880205
  99.4820012 104.1454997  22.9759988  99.1900012 104.9134997  22.4849988
  98.8080012 103.4854997  22.8129988  99.3509081 104.1614406  22.8867340
 112.6050012 109.7234997  19.3779988 112.6790012 110.6624997  19.5489988
 113.5110012 109.4184997  19.3219988 112.7375100 109.8106722  19.3938119
  95.5750012 106.5084997  31.7909988  95.0740012 106.4804997  30.9759988
  95.5800012 105.6024997  32.0999988  95.5071526 106.3822278  31.7212872
  95.3250012 109.2884997  28.6749988  96.2710012 109.1444997  28.6559988
  95.2130012 110.0724997  29.2119988  95.4392727 109.3748046  28.7450072
 113.5230012 109.9544997  34.3569988 113.4740012 108.9994997  34.3199988
 112.6960012 110.2224997  34.7579988 113.4044940 109.8598998  34.4061375
 104.5020012 109.5284997  33.2329988 104.5890012 110.3544997  33.7079988
 103.6380012 109.1984997  33.4819988 104.3971964 109.5969878  33.3316549
 104.9160012 113.3004997  23.0389988 104.8410012 113.1794997  22.0929988
 104.9490012 114.2504997  23.1579988 104.9101848 113.4122500  22.9254834
  98.5690012 112.0894997  24.8199988  98.7220012 111.7414997  25.6989988
  97.7190012 111.7334997  24.5649988  98.4748962 111.9936650  24.9058340
 108.0180012 112.4544997  20.0409988 108.3930012 111.7104997  19.5709988
 108.0220012 112.1844997  20.9599988 108.0698915 112.3161486  20.1007824
 107.6870012 112.3804997  22.7909988 106.7510012 112.4804997  22.9689988
 107.9670012 111.6714997  23.3689988 107.5968255 112.2982711  22.8935391
 110.6750012 101.4474997  34.8369988 110.2680012 101.9284997  34.1159988
 110.7160012 100.5424997  34.5289988 110.6248437 101.3909374  34.6966683
  97.8240012 107.8314997  32.8339988  98.0400012 107.4704997  33.6929988
  96.9690012 107.4574997  32.6239988  97.7379292 107.7314111  32.9233386
 100.4430012  96.3014997  28.8289988  99.5810012  96.2144997  28.4219988
 100.4200012  97.1574997  29.2569988 100.3220330  96.4052765  28.8311863
 105.1060012  96.0234997  32.2039988 105.5260012  95.6084997  32.9569988
 104.1730012  95.8454997  32.3209988 105.0373644  95.9425900  32.3229539
 108.4320012  99.7794997  33.0569988 107.9180012  99.6534997  33.8549988
 108.2770012 100.6914997  32.8129988 108.3406852  99.8856132  33.1332158
 109.1950012 104.6404997  18.8189988 109.2370012 104.4174997  17.8889988
 110.0440012 105.0394997  19.0089988 109.3155396 104.6639155  18.7173627
 104.7670012  98.5164997  19.4889988 104.5140012  98.5354997  20.4119988
 104.5110012  97.6444997  19.1879988 104.6977790  98.4012437  19.5746263
 100.5340012 101.2674997  29.9239988  99.8920012 101.2264997  30.6329988
 100.5710012 102.1934997  29.6869988 100.4511324 101.3871559  29.9889824
 100.5310012 101.4884997  24.8359988  99.6380012 101.1474997  24.7779988
 100.9810012 101.1114997  24.0809988 100.4697305 101.3908484  24.7259177
 106.0660012 101.9044997  23.6529988 105.6570012 102.7194997  23.3619988
 106.7870012 101.7644997  23.0389988 106.1074537 101.9972018  23.5301342
 105.1680012 102.0794997  35.1409988 104.6060012 101.3754997  35.4619988
 105.9950012 101.9594997  35.6089988 105.2027095 101.9667883  35.2482330
 107.0710012 101.3504997  26.4669988 106.8760012 101.9554997  25.7519988
 107.2520012 100.5164997  26.0329988 107.0687614 101.3206300  26.3104405
  98.2840012 101.5874997  31.7909988  98.2460012 101.9874997  32.6599988
  97.7930012 100.7704997  31.8819988  98.2124684 101.5318069  31.9221059
 101.6500012  98.9614997  18.5899988 101.2190012  98.5164997  19.3199988
 100.9320012  99.3334997  18.0779988 101.4939438  98.9508940  18.6206799
  94.8920012  98.7034997  25.6419988  95.5230012  98.6744997  26.3609988
  95.3410012  98.2784997  24.9119988  95.0390774  98.6420492  25.6416553
  96.1660012  99.4494997  21.0659988  96.6400012 100.0404997  20.4809988
  95.4490012  99.9804997  21.4129988  96.1339341  99.6020867  21.0328836
 106.3350012 102.9884997  31.1389988 106.6580012 102.3574997  30.4959988
 105.8950012 102.4534997  31.7989988 106.3196895 102.8298441  31.1402850
 103.1120012  98.9154997  25.9229988 102.2010012  98.9724997  26.2109988
 103.6180012  98.8554997  26.7329988 103.0555413  98.9151985  26.0720622
  97.9410012 100.5444997  24.7489988  97.0510012 100.6444997  24.4089988
  98.2370012  99.7024997  24.4029988  97.8592823 100.4443545  24.6557213
 101.5940012 100.5444997  22.4059988 102.5250012 100.6734997  22.5839988
 101.3790012 101.2144997  21.7559988 101.6924247 100.6526565  22.3425747
 107.5170012  98.1504997  29.1869988 106.8410012  98.2814997  29.8509988
 107.0320012  97.9954997  28.3769988 107.3587145  98.1474905  29.1684517
 100.2680012 101.7394997  19.9729988  99.7250012 101.3594997  19.2809988
 101.1010012 101.9334997  19.5439988 100.3064399 101.7138124  19.8204526
 110.8050012 113.8224997  35.4639988 111.0050012 114.2464997  34.6289988
 111.4600012 114.1654997  36.0709988 110.9210051 113.9269648  35.4317836
  98.4030012 106.2964997  35.0719988  99.1350012 106.5504997  35.6329988
  97.6230012 106.5004997  35.5869988  98.3978232 106.3589177  35.2185760
 104.4320012 101.7034997  27.8099988 104.9970012 101.1564997  27.2629988
 104.2850012 101.1814997  28.5979988 104.4892918 101.5582024  27.8418454
  99.4340012  97.8394997  24.2279988  99.1170012  96.9374997  24.1929988
 100.2160012  97.8414997  23.6749988  99.4962284  97.7161628  24.1484783
 103.0590012 100.0914997  30.2239988 102.2230012 100.5454997  30.3339988
 103.5830012 100.3674997  30.9759988 103.0154414 100.1909376  30.3407136
 103.6030012 106.3044997  21.9079988 102.8580012 105.7974997  21.5859988
 103.4690012 106.3534997  22.8549988 103.4828776 106.2416940  21.9918647
 110.7530012 105.4374997  30.6949988 111.3950012 105.8944997  30.1509988
 109.9230012 105.5504997  30.2319988 110.7285963 105.5152704  30.5580177
 107.5010012  99.1184997  20.1079988 106.5620012  99.2304997  19.9559988
 107.7980012  99.9754997  20.4139988 107.4127666  99.2496443  20.1285768
 105.1220012 106.4884997  33.1449988 104.7770012 106.1074997  33.9519988
 104.9220012 107.4224997  33.2169988 105.0478061 106.5625228  33.2650961
 108.2190012 100.9854997  21.7679988 109.1110012 100.8484997  22.0869988
 108.2760012 101.7764997  21.2319988 108.3486285 101.0736660  21.7391691
  98.7280012 105.5994997  27.6779988  99.4730012 105.5974997  27.0769988
  98.8060012 104.7764997  28.1599988  98.8405518 105.4879315  27.6608929
 105.7290012 107.7634997  20.9339988 105.4330012 108.5894997  21.3149988
 105.0260012 107.1434997  21.1299988 105.5934914 107.7928199  21.0126443
  95.7360012 104.0604997  32.9929988  95.9590012 103.6424997  33.8249988
  95.1340012 103.4474997  32.5699988  95.6851759 103.9204668  33.0497022
 102.7520012 103.5774997  35.2059988 102.4560012 103.4114997  34.3109988
 103.6840012 103.3574997  35.1949988 102.8374166 103.5250640  35.0820536
 107.3730012 108.9504997  33.0959988 106.4720012 109.1334997  32.8279988
 107.4070012 109.2094997  34.0169988 107.2543041 109.0105512  33.1838197
 113.1040012 101.1954997  21.4629988 112.5500012 100.7994997  20.7909988
 113.2040012 102.1054997  21.1849988 113.0417059 101.2643586  21.3334401
 113.0670012 106.9954997  34.2999988 112.2160012 107.2334997  33.9329988
 113.6580012 106.9784997  33.5469988 113.0302487 107.0258258  34.1478893
 111.3990012 109.9814997  21.9279988 111.0260012 109.1554997  22.2369988
 111.6770012 109.7984997  21.0309988 111.3855630 109.8437303  21.8489626
 108.5600012 104.7894997  28.9489988 107.6310012 104.5574997  28.9219988
 109.0110012 104.0124997  28.6189988 108.4939216 104.6527238  28.9006917
 101.1030012 109.1174997  25.0819988 101.6300012 109.8904997  24.8819988
 100.2230012 109.3424997  24.7809988 101.0561773 109.2538005  25.0139010
  96.8580012 103.9794997  19.6689988  97.4740012 104.6064997  20.0489988
  95.9960012 104.2954997  19.9409988  96.8257698 104.1079430  19.7577183
 102.5300012 106.7804997  24.6589988 102.2890012 107.7054997  24.6999988
 101.7890012 106.3214997  25.0549988 102.3968409 106.8451421  24.7181377
 103.0450012 110.9294997  30.9739988 103.4070012 111.7844997  30.7399988
 103.5760012 110.6374997  31.7139988 103.1664473 111.0071060  31.0420855
 101.2130012 111.8024997  24.2039988 100.2630012 111.9074997  24.2549988
 101.5650012 112.6224997  24.5489988 101.1304203 111.9278314  24.2576650
 106.5890012 107.0284997  30.6739988 106.1630012 106.8014997  31.5009988
 107.1690012 106.2904997  30.4919988 106.6091868 106.8975299  30.7625830
 108.7920012 107.9574997  19.7479988 109.1450012 107.5774997  20.5529988
 107.8430012 107.8644997  19.8349988 108.7120441 107.8929596  19.8698559
 109.2470012 111.5804997  33.1439988 108.6460012 111.0254997  32.6479988
 109.5290012 112.2474997  32.5179988 109.2028519 111.5946841  32.9914952
 113.2950012 112.4374997  19.9489988 114.0390012 113.0234997  19.8089988
 112.6010012 113.0054997  20.2829988 113.3030292 112.5945582  19.9749961
  97.3700012  98.8134997  32.5509988  96.4770012  99.1524997  32.4829988
  97.2710012  97.9584997  32.9689988  97.2344164  98.7442588  32.5982235
 109.6580012 106.6304997  21.9749988 109.3800012 105.9024997  22.5309988
 110.5850012 106.7494997  22.1799988 109.7453124 106.5468802  22.0788845
  97.0210012 110.6184997  30.9859988  97.2380012 109.6864997  30.9549988
  97.2670012 110.8924997  31.8689988  97.0839549 110.5280636  31.1011763
 102.8830012 109.0694997  18.1949988 103.1220012 108.3214997  17.6479988
 102.6140012 108.6814997  19.0279988 102.8793675 108.9146638  18.2326865
 101.8200012 108.6394997  20.6519988 101.9660012 108.1194997  21.4419988
 101.8170012 109.5464997  20.9579988 101.8395989 108.6908853  20.8016088
  98.2730012 105.8924997  21.1619988  97.5870012 106.2444997  21.7289988
  98.7950012 106.6554997  20.9149988  98.2496852 106.0438578  21.2062118
 106.1040012  98.5544997  31.4409988 106.8030012  98.6284997  32.0909988
 105.7230012  97.6904997  31.5949988 106.1481767  98.4477624  31.5508322
 106.8890012  98.2064997  22.5379988 107.1090012  98.6784997  21.7349988
 107.4470012  98.6014997  23.2079988 106.9944968  98.3244285  22.5187331
 104.5570012 110.3374997  21.4009988 103.7410012 110.8344997  21.4529988
 105.0870012 110.8124997  20.7609988 104.5169161 110.4697722  21.3215956
 104.0890012  99.9344997  23.3729988 104.9010012 100.4394997  23.4189988
 103.8440012  99.7894997  24.2869988 104.1670520  99.9840375  23.5028517
 104.6240012 100.9204997  32.5579988 104.7430012 101.4944997  33.3149988
 105.2800012 100.2324997  32.6719988 104.7289757 100.9061079  32.6770825
 104.9720012  97.0154997  24.3109988 104.6260012  97.6334997  24.9559988
 105.6310012  97.5164997  23.8299988 105.0137826  97.1675802  24.3340971
 101.8960012 111.3814997  21.3829988 102.0560012 112.1804997  20.8819988
 101.6980012 111.6874997  22.2679988 101.8911649 111.5324469  21.4339815
 100.6300012  98.0784997  20.9979988 100.5470012  98.9674997  21.3449988
 101.5200012  97.8134997  21.2299988 100.7389469  98.1641430  21.0767626
 110.8290012  98.8274997  33.3929988 109.9120012  99.0904997  33.3049988
 111.1640012  98.8244997  32.4959988 110.7489900  98.8630224  33.2597919
 109.4310012 102.5784997  27.4879988 108.6330012 102.1634997  27.1599988
 109.8760012 101.8874997  27.9789988 109.3819885 102.4283543  27.5094889
  98.8890012 108.5064997  20.0589988  99.4810012 109.2054997  20.3349988
  99.3480012 108.0734997  19.3389988  99.0321142 108.5437049  19.9994830
  97.2050012 101.1704997  19.1749988  97.1600012 102.1094997  19.3529988
  96.3170012 100.9344997  18.9049988  97.0788574 101.2671892  19.1628912
 110.5170012 111.8344997  29.1109988 110.3620012 112.5124997  28.4539988
 111.4500012 111.9064997  29.3139988 110.6218500 111.9370170  29.0485119
  98.0130012  95.9524997  27.8479988  97.7840012  96.0114997  26.9199988
  97.5700012  95.1604997  28.1539988  97.9218530  95.8535753  27.7624786
  96.9430012 109.8924997  24.0079988  96.1110012 110.3654997  24.0359988
  97.4890012 110.4024997  23.4099988  96.9029739 110.0261871  23.9309716
  96.2310012 112.5054997  35.3379988  96.7720012 112.2884997  36.0979988
  95.7500012 111.6994997  35.1489988  96.2399345 112.3669514  35.4163076
 100.8290012 111.4244997  36.9589988 101.5960012 110.9654997  37.2999988
 100.8070012 111.1984997  36.0289988 100.9311434 111.3310409  36.8800043
 104.9210012 110.9324997  18.3339988 104.2770012 110.3014997  18.6549988
 105.6830012 110.4014997  18.1019988 104.9358077 110.7742920  18.3466011
 107.4060012 109.8044997  35.6879988 107.0550012 108.9484997  35.9309988
 108.1320012 109.9474997  36.2949988 107.4560769 109.7065636  35.8033619
 109.5250012 110.7494997  18.5679988 109.8080012 109.9554997  19.0199988
 110.2650012 110.9824997  18.0069988 109.6637486 110.6722803  18.5540698
  96.1380012 106.3154997  36.2929988  96.2820012 105.4134997  36.0059988
  95.3660012 106.6014997  35.8049988  96.0533322 106.2308261  36.1877881
 100.4800012 106.6594997  18.4249988 100.5440012 105.8654997  18.9559988
 101.1330012 106.5404997  17.7349988 100.5770241 106.5347148  18.4044317
 102.7940012 106.2854997  35.7249988 102.4650012 106.5564997  34.8679988
 102.9460012 105.3444997  35.6379988 102.7694809 106.1953862  35.5958244
 105.8320012 107.7064997  18.1609988 105.5630012 107.8864997  19.0619988
 105.6260012 106.7804997  18.0299988 105.7673825 107.6060152  18.2665214
 108.5280012 106.2014997  33.1089988 109.2740012 106.7894997  32.9889988
 107.7710012 106.7834997  33.1719988 108.5277554 106.3607011  33.1010907
  96.9710012 103.5154997  35.7129988  97.3790012 102.6584997  35.5919988
  96.7110012 103.5304997  36.6339988  96.9917568 103.4000807  35.8209588
 101.6290012 104.6314997  20.7309988 101.1690012 104.1474997  21.4169988
 101.8840012 103.9634997  20.0949988 101.6004902 104.4748731  20.7389334
 100.9180012 102.5244997  33.0869988 100.3000012 103.1994997  33.3669988
 101.2620012 102.8454997  32.2539988 100.8799615 102.6602721  33.0126581
 102.7000012 102.8744997  18.9929988 102.5200012 102.7204997  18.0659988
 103.6500012 102.9824997  19.0379988 102.8037776 102.8680175  18.8721843
 105.9380012 104.9964997  36.3639988 106.8910012 105.0794997  36.3369988
 105.7770012 104.2844997  36.9839988 106.0466426 104.9116746  36.4440579
 112.0900012 105.2294997  18.4389988 111.8160012 104.8044997  17.6259988
 112.1290012 106.1604997  18.2219988 112.0577699 105.2972484  18.2983610
 101.2570012  99.8794997  34.1689988 101.4070012  99.1504997  33.5669988
 101.2600012 100.6564997  33.6099988 101.2779302  99.8847851  34.0110692
 101.6700012  98.2494997  31.6619988 102.2060012  98.7004997  31.0099988
 100.8180012  98.1414997  31.2389988 101.6282178  98.2966390  31.5155756
 103.2520012 103.6884997  31.9009988 104.0020012 103.5324997  31.3279988
 102.9130012 104.5404997  31.6259988 103.3088921 103.7822968  31.7853561
 107.6670012 101.5034997  36.9299988 107.8600012 100.5724997  36.8179988
 108.5250012 101.9284997  36.9199988 107.8093020 101.4336389  36.9133361
 108.9840012 104.2924997  35.0069988 108.7030012 105.0014997  34.4299988
 109.9270012 104.2194997  34.8559988 109.0729027 104.3797646  34.9075551
  99.7360012 101.0774997  36.0809988  98.9690012 100.5454997  35.8709988
 100.4150012 100.7674997  35.4809988  99.7227022 100.9627506  35.9711648
 102.4760012  95.7054997  32.0929988 102.3770012  96.6524997  31.9879988
 101.7330012  95.3334997  31.6179988 102.3620564  95.7845902  32.0144560
 103.7400012 100.0274997  35.6569988 103.5040012  99.8074997  36.5589988
 102.9560012  99.8204997  35.1469988 103.6018628  99.9694760  35.7113932
 106.4550012  99.1544997  34.7329988 105.5080012  99.1864997  34.8649988
 106.7680012  98.5294997  35.3859988 106.3675475  99.0743207  34.8394455
 108.0890012  97.7884997  36.7379988 107.9930012  96.8364997  36.7319988
 107.7680012  98.0574997  37.5979988 108.0324070  97.6944035  36.8535441
  97.9160012  98.9984997  35.7849988  98.1280012  98.2914997  35.1749988
  97.8050012  98.5604997  36.6289988  97.9299721  98.8427084  35.8156843
 102.6970012  94.9994997  34.7649988 103.4090012  94.3594997  34.7509988
 102.5960012  95.2664997  33.8509988 102.7807939  94.9479938  34.6395650
 103.0510012  96.6824997  36.8179988 102.9190012  96.2064997  35.9979988
 102.4520012  97.4264997  36.7629988 102.9519071  96.7179618  36.6982886
 102.5970012 113.5654997  19.9949988 103.5300012 113.7234997  20.1379988
 102.3330012 114.2404997  19.3699988 102.6889510 113.6783611  19.9300741
  96.1660012 108.2014997  19.4769988  97.0800012 108.2804997  19.7509988
  96.1730012 107.5144997  18.8109988  96.2921131 108.1193961  19.4244393
  94.8150012 113.5944997  24.5549988  94.1680012 113.1324997  24.0219988
  95.1690012 112.9224997  25.1369988  94.7743849 113.4404723  24.5607959
  95.6850012 111.6754997  26.3589988  95.3500012 110.7954997  26.5309988
  95.9070012 112.0204997  27.2239988  95.6691783 111.6017501  26.4994208
 113.2330012 112.4844997  29.3399988 113.2120012 112.6694997  30.2789988
 113.9240012 113.0534997  28.9989988 113.3234618 112.5866606  29.4223864
 112.7970012 112.0524997  32.2619988 112.3090012 111.3164997  31.8909988
 113.3460012 111.6584997  32.9399988 112.8044872 111.8986249  32.3029160
 111.2470012 107.8414997  36.8999988 110.3810012 107.7364997  37.2939988
 111.6240012 108.6004997  37.3459988 111.1793308 107.9296900  37.0142393
 112.5480012 106.0984997  22.4139988 113.3980012 106.5194997  22.5409988
 112.5540012 105.3584997  23.0209988 112.6651372 106.0560803  22.5134344
 112.9430012 104.1514997  24.2379988 112.2160012 103.6724997  24.6349988
 113.5240012 104.3574997  24.9699988 112.9219375 104.1137090  24.3914129
 112.7020012 106.9364997  29.1849988 113.5350012 106.5584997  28.9049988
 112.8140012 107.8794997  29.0659988 112.8312647 107.0122218  29.1305487
 111.1880012 109.8144997  31.4919988 110.5410012 110.1394997  32.1179988
 110.6710012 109.3744997  30.8179988 111.0294029 109.7995004  31.4865827
 113.2110012 104.0524997  20.6289988 112.6890012 104.4094997  19.9099988
 113.1780012 104.7274997  21.3069988 113.1351634 104.1925413  20.6223145
 111.5600012 101.2924997  19.1799988 111.6560012 101.9594997  18.4989988
 111.4200012 100.4764997  18.6979988 111.5542135 101.2734500  19.0218491
 110.7290012 102.6724997  24.8009988 110.5790012 101.7274997  24.7799988
 110.3760012 102.9534997  25.6439988 110.6606625 102.5810441  24.9122346
  95.7650012 104.7504997  28.8109988  95.9490012 104.6684997  27.8749988
  96.6140012 104.6264997  29.2349988  95.9050139 104.7225003  28.7401455
 111.5860012 104.6424997  34.4389988 112.1690012 103.9084997  34.6309988
 112.1500012 105.4144997  34.4859988 111.7419769 104.6464227  34.4716159
 113.0820012 102.5454997  35.1239988 112.2190012 102.1664997  34.9579988
 113.6870012 101.8064997  35.0499988 113.0455979 102.3938023  35.0912817
 110.8070012  98.7004997  18.2969988 111.4180012  98.3294997  18.9339988
 109.9710012  98.2794997  18.4929988 110.7775032  98.5927554  18.4107035
 110.4400012 100.2554997  23.2629988 110.7200012  99.3484997  23.3869988
 111.1990012 100.6894997  22.8739988 110.5809277 100.1900942  23.2273682
 111.0520012 100.8364997  28.6989988 111.9850012 101.0484997  28.6649988
 110.8170012 100.9384997  29.6209988 111.1478036 100.8792769  28.8189976
 111.0810012 101.5734997  31.4749988 110.2380012 101.8414997  31.8409988
 111.5230012 102.3954997  31.2639988 111.0254158 101.7213291  31.4965491
  95.3620012 100.0214997  34.9519988  96.2820012  99.8994997  35.1879988
  94.9130012  99.2714997  35.3409988  95.4271580  99.9033727  35.0369006
 113.3640012  95.5534997  36.8279988 113.7140012  94.8994997  36.2229988
 113.5110012  96.3904997  36.3889988 113.4318419  95.5771591  36.6857118
 111.0530012  97.5184997  23.3109988 111.2360012  97.0694997  24.1369988
 110.4540012  96.9334997  22.8479988 110.9970202  97.3779975  23.3613275
  96.5830012  98.3334997  27.8429988  97.0290012  97.5414997  28.1449988
  97.0500012  99.0494997  28.2739988  96.7070172  98.3220624  27.9424820
  94.8870012 101.3324997  28.9119988  95.3790012 101.1114997  28.1209988
  95.2500012 102.1734997  29.1929988  95.0033126 101.4158357  28.8417531
 112.8840012  97.6624997  35.1779988 111.9660012  97.9334997  35.1419988
 113.0070012  97.1274997  34.3929988 112.7751066  97.6272892  35.0670487
 112.9200012  97.5854997  19.8389988 113.3320012  96.8644997  19.3639988
 113.6020012  98.2554997  19.8979988 113.0685885  97.5772368  19.7818915
  95.2010012  97.5904997  22.9659988  94.2760012  97.7994997  22.8369988
  95.6550012  98.0744997  22.2769988  95.1357368  97.6845993  22.8551226
 109.9720012 112.5744997  24.9119988 110.6240012 112.2274997  24.3039988
 110.4820012 113.0634997  25.5579988 110.1302637 112.5930597  24.9160236
  95.1650012  96.3284997  31.3109988  94.5000012  96.0824997  31.9539988
  94.7220012  96.9504997  30.7329988  95.0140956  96.3788632  31.3209352
  97.3570012 109.5034997  35.4549988  96.5360012 109.6784997  34.9949988
  97.1040012 109.4304997  36.3759988  97.2106164 109.5175622  35.5164923
 100.3110012 110.4784997  31.7139988  99.8860012 111.2874997  31.4309988
 101.2150012 110.5634997  31.4119988 100.3750271 110.6008469  31.6343776
 104.6220012 111.8774997  34.6729988 104.8070012 111.5434997  35.5509988
 105.4680012 112.1864997  34.3509988 104.7617539 111.8736047  34.7495605
 106.9670012 113.1634997  33.9169988 107.6440012 112.5304997  33.6769988
 107.2890012 113.5644997  34.7239988 107.1031637 113.1311154  33.9932793
 111.8840012  95.7524997  32.9969988 111.0720012  96.0774997  32.6089988
 112.1170012  94.9924997  32.4639988 111.8043423  95.6942436  32.8718253
  97.7130012 113.7344997  31.7609988  96.9920012 114.1744997  31.3099988
  97.3470012 113.4834997  32.6099988  97.5649804 113.7607698  31.8139840
 100.1800012 113.3344997  30.7909988  99.3150012 113.4064997  31.1949988
 100.1250012 113.8814997  30.0069988 100.0542085 113.4182685  30.7403362
 104.8900012 113.2224997  29.9659988 104.4340012 113.7514997  29.3119988
 105.0530012 113.8254997  30.6919988 104.8495585 113.3764468  29.9745062
 107.2180012 112.1004997  30.9109988 106.3130012 112.2654997  30.6459988
 107.6470012 112.9534997  30.8459988 107.1520799 112.2384483  30.8659182
 109.8220012 113.6704997  31.2059988 109.6400012 114.5864997  30.9959988
 109.9990012 113.2604997  30.3599988 109.8210210 113.7404822  31.0627885
  97.1270012 112.3574997  28.6709988  97.1090012 111.9324997  29.5289988
  97.9320012 112.0394997  28.2629988  97.2333875 112.2563812  28.7331655
  99.2690012 111.0674997  27.3259988  99.0500012 110.1514997  27.4959988
 100.0930012 111.2074997  27.7919988  99.3504420 110.9610520  27.4122774
 101.8060012 111.5374997  28.1749988 102.0190012 110.6494997  27.8879988
 101.8700012 111.5034997  29.1289988 101.8438231 111.4113102  28.2647397
 105.3140012  97.2014997  27.3189988 104.6400012  96.5724997  27.5749988
 105.8780012  96.7174997  26.7159988 105.2979230  97.0498744  27.2725340
 110.4570012  95.3094997  27.4319988 111.0610012  95.8564997  26.9299988
 109.5870012  95.6284997  27.1919988 110.4221241  95.4275806  27.3307654
 112.1840012  96.4474997  25.7649988 112.7960012  95.9334997  25.2389988
 112.5660012  97.3254997  25.7889988 112.3194540  96.4957140  25.6961830
  97.6410012  95.8354997  25.1409988  96.8640012  95.6014997  24.6339988
  98.1710012  95.0384997  25.1499988  97.6062330  95.6956988  25.0727742
  96.4770012  95.6334997  20.9449988  96.9160012  96.2444997  20.3529988
  95.8440012  96.1714997  21.4189988  96.4514514  95.7899257  20.9280930
 102.2200012  95.7624997  24.9549988 103.0950012  96.1504997  24.9249988
 102.0840012  95.5474997  25.8769988 102.3213695  95.7865184  25.0756440
 107.7770012  95.7924997  26.6039988 107.8530012  95.8874997  25.6539988
 107.5020012  94.8844997  26.7329988 107.7502321  95.6827867  26.4915079
 109.1300012  95.8184997  22.2959988 108.4280012  96.4334997  22.0869988
 108.6860012  94.9804997  22.4269988 108.9736330  95.7895783  22.2850328
  96.3780012 111.5814997  21.8429988  95.6930012 111.5434997  21.1749988
  96.3820012 112.4944997  22.1309988  96.2848193 111.6997016  21.7905284
  98.3380012  97.5494997  19.3869988  98.8300012  96.9194997  18.8599988
  98.9620012  97.8454997  20.0509988  98.4895446  97.5033199  19.4045980
 103.3640012  97.8424997  21.8439988 103.5420012  97.1964997  22.5269988
 103.3110012  98.6764997  22.3119988 103.3811829  97.8667985  22.0005940
 105.2430012 112.7914997  20.2399988 106.1090012 113.1574997  20.0619988
 104.9960012 112.3514997  19.4259988 105.3282392 112.7821756  20.1056289
 111.9520012 112.3544997  22.9189988 111.7570012 111.6064997  22.3539988
 111.9130012 113.1124997  22.3359988 111.9200380 112.3546099  22.7628384
  97.5990012  96.3494997  34.6589988  97.2330012  95.5844997  35.1019988
  98.5120012  96.3784997  34.9459988  97.6722790  96.2487224  34.7584070
  99.5720012  95.7004997  36.1949988 100.4700012  95.4264997  36.0099988
  99.1850012  94.9574997  36.6589988  99.6426612  95.5625914  36.2323643
  98.1960012 112.5014997  18.8679988  97.9290012 112.7884997  19.7409988
  98.9680012 111.9554997  19.0199988  98.2637488 112.4670294  19.0081050
 107.9930012  95.0324997  36.3769988 108.0700012  94.6064997  37.2309988
 108.8870012  95.0464997  36.0339988 108.1243428  94.9760879  36.4475310
 111.1690012 111.1054997  35.0689988 110.3870012 110.9194997  34.5499988
 111.0970012 112.0344997  35.2869988 111.0521777 111.2056492  35.0274048
 125.5750012 104.9914997  25.0999988 125.6640012 105.9354997  24.9679988
 124.9370012 104.7164997  24.4419988 125.5009081 105.0834830  24.9929614
 124.5080012 104.2464997  28.5189988 124.4700012 103.6004997  29.2239988
 124.1860012 103.7804997  27.7479988 124.4592333 104.0949408  28.5112978
 116.8770012 103.8614997  30.1119988 116.9180012 103.2354997  30.8349988
 117.5800012 104.4854997  30.2939988 116.9776363 103.8601196  30.2356044
 128.2140012 107.1854997  26.8199988 127.7740012 106.4654997  27.2709988
 128.2010012 107.9064997  27.4499988 128.1520226 107.1843731  26.9668494
 117.8000012 108.3114997  28.6469988 117.4310012 107.5094997  28.2769988
 118.7410012 108.1424997  28.6929988 117.8767289 108.1790153  28.6026316
 114.4100012 101.9714997  24.0399988 113.9630012 102.8174997  24.0209988
 113.8490012 101.3914997  23.5239988 114.2729900 102.0089916  23.9676801
 115.1210012 104.1334997  26.1659988 115.3340012 103.3634997  26.6929988
 115.8590012 104.2224997  25.5619988 115.2498496 104.0401394  26.1565300
 125.3260012 112.2904997  27.0329988 125.9460012 111.6134997  26.7589988
 125.1180012 112.0724997  27.9409988 125.3826904 112.1683870  27.1183365
 122.8980012 106.6794997  28.9249988 123.2020012 105.9934997  28.3299988
 123.6190012 106.7974997  29.5429988 123.0370671 106.6016305  28.9271816
 131.5610012  98.2804997  29.7859988 131.6100012  98.8904997  30.5219988
 131.9860012  98.7414997  29.0629988 131.6251824  98.4263741  29.7890205
 126.0390012 101.0734997  29.2529988 126.1810012 100.1274997  29.2729988
 125.9320012 101.2804997  28.3239988 126.0439864 100.9719534  29.1302339
 119.1930012  99.1744997  26.5249988 119.2370012 100.0344997  26.1069988
 118.7360012  98.6224997  25.8909988 119.1372185  99.2175799  26.3820299
 126.9160012  99.3054997  24.9259988 127.5620012  98.9764997  25.5509988
 127.4260012  99.8234997  24.3029988 127.0734264  99.3304611  24.9273862
 115.8140012 101.5714997  27.2869988 116.4670012 101.0214997  27.7189988
 115.8380012 101.2974997  26.3699988 115.9066683 101.4591466  27.2222123
 120.9700012 103.1214997  26.5019988 121.5860012 102.5954997  27.0119988
 120.3840012 102.4814997  26.0989988 120.9750810 102.9629208  26.5173173
 131.9520012  99.7584997  32.0219988 131.2640012 100.4164997  31.9259988
 131.9680012  99.5614997  32.9579988 131.8598525  99.8220462  32.1354808
 118.0040012  98.0924997  30.5989988 117.7850012  98.6224997  29.8329988
 117.3360012  98.3194997  31.2459988 117.8837600  98.1956906  30.5816379
 125.3730012 107.5924997  24.1429988 125.0770012 107.2704997  23.2919988
 125.0480012 108.4924997  24.1839988 125.2886371 107.6700215  24.0321801
 120.5730012 105.7684997  30.8859988 119.8330012 106.3664997  30.9899988
 121.2870012 106.3224997  30.5709988 120.5682237 105.9252831  30.8576465
 128.6800012  98.5964997  26.9059988 128.4640012  97.8304997  27.4389988
 129.3350012  99.0684997  27.4189988 128.7390632  98.5555889  27.0482861
 117.5970012  99.9844997  28.5509988 118.2110012 100.6174997  28.9249988
 118.1090012  99.5124997  27.8949988 117.7502296 100.0072370  28.5134252
 118.9800012 107.7324997  31.6739988 118.9750012 108.6124997  31.2959988
 118.1270012 107.6494997  32.0989988 118.8639464 107.8416117  31.6797907
 115.1010012 107.4034997  22.4559988 114.8290012 107.6324997  21.5669988
 115.1470012 108.2414997  22.9159988 115.0700094 107.5481213  22.3965697
 128.7260012 109.0254997  29.1679988 127.7850012 109.0834997  29.3299988
 129.0030012 109.9314997  29.0309988 128.6344679 109.1559443  29.1716815
 129.0270012  97.3114997  30.5859988 128.2910012  97.9224997  30.5479988
 129.7100012  97.7264997  30.0589988 129.0186541  97.4511374  30.5095832
 122.0300012  95.3984997  28.0519988 121.9130012  94.4494997  27.9969988
 121.1750012  95.7304997  28.3249988 121.8983733  95.3135409  28.0813897
 126.9780012 110.8064997  25.7939988 127.4040012 110.0994997  25.3089988
 127.2950012 111.6074997  25.3769988 127.0791019 110.8180994  25.6713130
 128.1380012 108.7074997  24.3019988 127.8800012 108.0174997  23.6909988
 128.2090012 108.2644997  25.1479988 128.1122856 108.5532124  24.3326885
 129.8240012 107.2734997  32.7799988 129.9640012 106.6824997  32.0399988
 129.9910012 108.1464997  32.4229988 129.8656778 107.3106426  32.6306965
 124.2970012 104.2354997  22.5519988 123.5850012 104.7704997  22.1999988
 124.9880012 104.2914997  21.8919988 124.2930132 104.3162543  22.4146289
 124.3500012 102.6934997  19.5909988 125.0510012 102.7154997  20.2419988
 124.6530012 102.0654997  18.9349988 124.4867830 102.6116566  19.5913711
 131.6660012 103.6134997  30.8459988 131.0130012 104.3084997  30.9349988
 132.1310012 103.8234997  30.0359988 131.6395390 103.7369425  30.7486883
 127.7020012 104.4454997  23.5039988 126.9700012 104.6734997  24.0769988
 128.1500012 103.7314997  23.9589988 127.6623095 104.3802571  23.6439119
 127.6000012 102.6194997  32.5709988 127.6800012 103.3824997  33.1429988
 126.9980012 102.8984997  31.8809988 127.5295756 102.7617134  32.5560589
 119.3480012 105.0754997  25.3859988 119.0170012 104.7054997  24.5679988
 119.9360012 104.4054997  25.7329988 119.3821873 104.9341156  25.3208102
 120.7140012 108.5034997  28.0679988 120.6200012 107.9254997  27.3109988
 121.4440012 108.1324997  28.5639988 120.7997981 108.3742390  28.0314165
 119.7140012 103.8444997  29.0199988 120.2800012 103.9654997  28.2569988
 120.0330012 104.4814997  29.6589988 119.8345786 103.9471884  29.0020040
 126.0230012 109.3474997  29.7539988 125.7830012 110.0094997  30.4019988
 125.8250012 108.5134997  30.1789988 125.9633808 109.3253134  29.9001524
 120.5940012 108.2434997  33.7369988 120.2830012 109.0254997  34.1919988
 119.9440012 108.0904997  33.0509988 120.4635558 108.3299105  33.7065871
 126.5730012 103.6074997  21.1889988 127.1530012 103.7574997  21.9359988
 126.9870012 104.0784997  20.4659988 126.7082830 103.6916841  21.1934134
 117.5140012 104.4414997  32.9659988 117.5850012 105.0924997  33.6639988
 116.6240012 104.5444997  32.6309988 117.4033117 104.5445936  33.0162700
 124.3000012 110.3444997  24.6239988 124.7740012 110.6394997  25.4019988
 123.7370012 111.0824997  24.3909988 124.2887653 110.4846932  24.6990136
 118.8340012 110.3154997  34.4999988 118.8410012 110.1794997  33.5529988
 117.9180012 110.1974997  34.7519988 118.7111714 110.2809430  34.4044666
 130.2720012  95.3574997  21.0019988 129.3720012  95.4964997  21.2969988
 130.5240012  96.1884997  20.5999988 130.1828702  95.4889074  20.9880205
 118.3380012 104.1454997  22.9759988 118.0460012 104.9134997  22.4849988
 117.6640012 103.4854997  22.8129988 118.2069081 104.1614406  22.8867340
 131.4610012 109.7234997  19.3779988 131.5350012 110.6624997  19.5489988
 132.3670012 109.4184997  19.3219988 131.5935100 109.8106722  19.3938119
 114.4310012 106.5084997  31.7909988 113.9300012 106.4804997  30.9759988
 114.4360012 105.6024997  32.0999988 114.3631526 106.3822278  31.7212872
 114.1810012 109.2884997  28.6749988 115.1270012 109.1444997  28.6559988
 114.0690012 110.0724997  29.2119988 114.2952727 109.3748046  28.7450072
 132.3790012 109.9544997  34.3569988 132.3300012 108.9994997  34.3199988
 131.5520012 110.2224997  34.7579988 132.2604940 109.8598998  34.4061375
 123.3580012 109.5284997  33.2329988 123.4450012 110.3544997  33.7079988
 122.4940012 109.1984997  33.4819988 123.2531964 109.5969878  33.3316549
 123.7720012 113.3004997  23.0389988 123.6970012 113.1794997  22.0929988
 123.8050012 114.2504997  23.1579988 123.7661848 113.4122500  22.9254834
 117.4250012 112.0894997  24.8199988 117.5780012 111.7414997  25.6989988
 116.5750012 111.7334997  24.5649988 117.3308962 111.9936650  24.9058340
 126.8740012 112.4544997  20.0409988 127.2490012 111.7104997  19.5709988
 126.8780012 112.1844997  20.9599988 126.9258915 112.3161486  20.1007824
 126.5430012 112.3804997  22.7909988 125.6070012 112.4804997  22.9689988
 126.8230012 111.6714997  23.3689988 126.4528255 112.2982711  22.8935391
 129.5310012 101.4474997  34.8369988 129.1240012 101.9284997  34.1159988
 129.5720012 100.5424997  34.5289988 129.4808437 101.3909374  34.6966683
 116.6800012 107.8314997  32.8339988 116.8960012 107.4704997  33.6929988
 115.8250012 107.4574997  32.6239988 116.5939292 107.7314111  32.9233386
 119.2990012  96.3014997  28.8289988 118.4370012  96.2144997  28.4219988
 119.2760012  97.1574997  29.2569988 119.1780330  96.4052765  28.8311863
 123.9620012  96.0234997  32.2039988 124.3820012  95.6084997  32.9569988
 123.0290012  95.8454997  32.3209988 123.8933644  95.9425900  32.3229539
 127.2880012  99.7794997  33.0569988 126.7740012  99.6534997  33.8549988
 127.1330012 100.6914997  32.8129988 127.1966852  99.8856132  33.1332158
 128.0510012 104.6404997  18.8189988 128.0930012 104.4174997  17.8889988
 128.9000012 105.0394997  19.0089988 128.1715396 104.6639155  18.7173627
 123.6230012  98.5164997  19.4889988 123.3700012  98.5354997  20.4119988
 123.3670012  97.6444997  19.1879988 123.5537790  98.4012437  19.5746263
 119.3900012 101.2674997  29.9239988 118.7480012 101.2264997  30.6329988
 119.4270012 102.1934997  29.6869988 119.3071324 101.3871559  29.9889824
 119.3870012 101.4884997  24.8359988 118.4940012 101.1474997  24.7779988
 119.8370012 101.1114997  24.0809988 119.3257305 101.3908484  24.7259177
 124.9220012 101.9044997  23.6529988 124.5130012 102.7194997  23.3619988
 125.6430012 101.7644997  23.0389988 124.9634537 101.9972018  23.5301342
 124.0240012 102.0794997  35.1409988 123.4620012 101.3754997  35.4619988
 124.8510012 101.9594997  35.6089988 124.0587095 101.9667883  35.2482330
 125.9270012 101.3504997  26.4669988 125.7320012 101.9554997  25.7519988
 126.1080012 100.5164997  26.0329988 125.9247614 101.3206300  26.3104405
 117.1400012 101.5874997  31.7909988 117.1020012 101.9874997  32.6599988
 116.6490012 100.7704997  31.8819988 117.0684684 101.5318069  31.9221059
 120.5060012  98.9614997  18.5899988 120.0750012  98.5164997  19.3199988
 119.7880012  99.3334997  18.0779988 120.3499438  98.9508940  18.6206799
 113.7480012  98.7034997  25.6419988 114.3790012  98.6744997  26.3609988
 114.1970012  98.2784997  24.9119988 113.8950774  98.6420492  25.6416553
 115.0220012  99.4494997  21.0659988 115.4960012 100.0404997  20.4809988
 114.3050012  99.9804997  21.4129988 114.9899341  99.6020867  21.0328836
 125.1910012 102.9884997  31.1389988 125.5140012 102.3574997  30.4959988
 124.7510012 102.4534997  31.7989988 125.1756895 102.8298441  31.1402850
 121.9680012  98.9154997  25.9229988 121.0570012  98.9724997  26.2109988
 122.4740012  98.8554997  26.7329988 121.9115413  98.9151985  26.0720622
 116.7970012 100.5444997  24.7489988 115.9070012 100.6444997  24.4089988
 117.0930012  99.7024997  24.4029988 116.7152823 100.4443545  24.6557213
 120.4500012 100.5444997  22.4059988 121.3810012 100.6734997  22.5839988
 120.2350012 101.2144997  21.7559988 120.5484247 100.6526565  22.3425747
 126.3730012  98.1504997  29.1869988 125.6970012  98.2814997  29.8509988
 125.8880012  97.9954997  28.3769988 126.2147145  98.1474905  29.1684517
 119.1240012 101.7394997  19.9729988 118.5810012 101.3594997  19.2809988
 119.9570012 101.9334997  19.5439988 119.1624399 101.7138124  19.8204526
 129.6610012 113.8224997  35.4639988 129.8610012 114.2464997  34.6289988
 130.3160012 114.1654997  36.0709988 129.7770051 113.9269648  35.4317836
 117.2590012 106.2964997  35.0719988 117.9910012 106.5504997  35.6329988
 116.4790012 106.5004997  35.5869988 117.2538232 106.3589177  35.2185760
 123.2880012 101.7034997  27.8099988 123.8530012 101.1564997  27.2629988
 123.1410012 101.1814997  28.5979988 123.3452918 101.5582024  27.8418454
 118.2900012  97.8394997  24.2279988 117.9730012  96.9374997  24.1929988
 119.0720012  97.8414997  23.6749988 118.3522284  97.7161628  24.1484783
 121.9150012 100.0914997  30.2239988 121.0790012 100.5454997  30.3339988
 122.4390012 100.3674997  30.9759988 121.8714414 100.1909376  30.3407136
 122.4590012 106.3044997  21.9079988 121.7140012 105.7974997  21.5859988
 122.3250012 106.3534997  22.8549988 122.3388776 106.2416940  21.9918647
 129.6090012 105.4374997  30.6949988 130.2510012 105.8944997  30.1509988
 128.7790012 105.5504997  30.2319988 129.5845963 105.5152704  30.5580177
 126.3570012  99.1184997  20.1079988 125.4180012  99.2304997  19.9559988
 126.6540012  99.9754997  20.4139988 126.2687666  99.2496443  20.1285768
 123.9780012 106.4884997  33.1449988 123.6330012 106.1074997  33.9519988
 123.7780012 107.4224997  33.2169988 123.9038061 106.5625228  33.2650961
 127.0750012 100.9854997  21.7679988 127.9670012 100.8484997  22.0869988
 127.1320012 101.7764997  21.2319988 127.2046285 101.0736660  21.7391691
 117.5840012 105.5994997  27.6779988 118.3290012 105.5974997  27.0769988
 117.6620012 104.7764997  28.1599988 117.6965518 105.4879315  27.6608929
 124.5850012 107.7634997  20.9339988 124.2890012 108.5894997  21.3149988
 123.8820012 107.1434997  21.1299988 124.4494914 107.7928199  21.0126443
 114.5920012 104.0604997  32.9929988 114.8150012 103.6424997  33.8249988
 113.9900012 103.4474997  32.5699988 114.5411759 103.9204668  33.0497022
 121.6080012 103.5774997  35.2059988 121.3120012 103.4114997  34.3109988
 122.5400012 103.3574997  35.1949988 121.6934166 103.5250640  35.0820536
 126.2290012 108.9504997  33.0959988 125.3280012 109.1334997  32.8279988
 126.2630012 109.2094997  34.0169988 126.1103041 109.0105512  33.1838197
 131.9600012 101.1954997  21.4629988 131.4060012 100.7994997  20.7909988
 132.0600012 102.1054997  21.1849988 131.8977059 101.2643586  21.3334401
 131.9230012 106.9954997  34.2999988 131.0720012 107.2334997  33.9329988
 132.5140012 106.9784997  33.5469988 131.8862487 107.0258258  34.1478893
 130.2550012 109.9814997  21.9279988 129.8820012 109.1554997  22.2369988
 130.5330012 109.7984997  21.0309988 130.2415630 109.8437303  21.8489626
 127.4160012 104.7894997  28.9489988 126.4870012 104.5574997  28.9219988
 127.8670012 104.0124997  28.6189988 127.3499216 104.6527238  28.9006917
 119.9590012 109.1174997  25.0819988 120.4860012 109.8904997  24.8819988
 119.0790012 109.3424997  24.7809988 119.9121773 109.2538005  25.0139010
 115.7140012 103.9794997  19.6689988 116.3300012 104.6064997  20.0489988
 114.8520012 104.2954997  19.9409988 115.6817698 104.1079430  19.7577183
 121.3860012 106.7804997  24.6589988 121.1450012 107.7054997  24.6999988
 120.6450012 106.3214997  25.0549988 121.2528409 106.8451421  24.7181377
 121.9010012 110.9294997  30.9739988 122.2630012 111.7844997  30.7399988
 122.4320012 110.6374997  31.7139988 122.0224473 111.0071060  31.0420855
 120.0690012 111.8024997  24.2039988 119.1190012 111.9074997  24.2549988
 120.4210012 112.6224997  24.5489988 119.9864203 111.9278314  24.2576650
 125.4450012 107.0284997  30.6739988 125.0190012 106.8014997  31.5009988
 126.0250012 106.2904997  30.4919988 125.4651868 106.8975299  30.7625830
 127.6480012 107.9574997  19.7479988 128.0010012 107.5774997  20.5529988
 126.6990012 107.8644997  19.8349988 127.5680441 107.8929596  19.8698559
 128.1030012 111.5804997  33.1439988 127.5020012 111.0254997  32.6479988
 128.3850012 112.2474997  32.5179988 128.0588519 111.5946841  32.9914952
 132.1510012 112.4374997  19.9489988 132.8950012 113.0234997  19.8089988
 131.4570012 113.0054997  20.2829988 132.1590292 112.5945582  19.9749961
 116.2260012  98.8134997  32.5509988 115.3330012  99.1524997  32.4829988
 116.1270012  97.9584997  32.9689988 116.0904164  98.7442588  32.5982235
 128.5140012 106.6304997  21.9749988 128.2360012 105.9024997  22.5309988
 129.4410012 106.7494997  22.1799988 128.6013124 106.5468802  22.0788845
 115.8770012 110.6184997  30.9859988 116.0940012 109.6864997  30.9549988
 116.1230012 110.8924997  31.8689988 115.9399549 110.5280636  31.1011763
 121.7390012 109.0694997  18.1949988 121.9780012 108.3214997  17.6479988
 121.4700012 108.6814997  19.0279988 121.7353675 108.9146638  18.2326865
 120.6760012 108.6394997  20.6519988 120.8220012 108.1194997  21.4419988
 120.6730012 109.5464997  20.9579988 120.6955989 108.6908853  20.8016088
 117.1290012 105.8924997  21.1619988 116.4430012 106.2444997  21.7289988
 117.6510012 106.6554997  20.9149988 117.1056852 106.0438578  21.2062118
 124.9600012  98.5544997  31.4409988 125.6590012  98.6284997  32.0909988
 124.5790012  97.6904997  31.5949988 125.0041767  98.4477624  31.5508322
 125.7450012  98.2064997  22.5379988 125.9650012  98.6784997  21.7349988
 126.3030012  98.6014997  23.2079988 125.8504968  98.3244285  22.5187331
 123.4130012 110.3374997  21.4009988 122.5970012 110.8344997  21.4529988
 123.9430012 110.8124997  20.7609988 123.3729161 110.4697722  21.3215956
 122.9450012  99.9344997  23.3729988 123.7570012 100.4394997  23.4189988
 122.7000012  99.7894997  24.2869988 123.0230520  99.9840375  23.5028517
 123.4800012 100.9204997  32.5579988 123.5990012 101.4944997  33.3149988
 124.1360012 100.2324997  32.6719988 123.5849757 100.9061079  32.6770825
 123.8280012  97.0154997  24.3109988 123.4820012  97.6334997  24.9559988
 124.4870012  97.5164997  23.8299988 123.8697826  97.1675802  24.3340971
 120.7520012 111.3814997  21.3829988 120.9120012 112.1804997  20.8819988
 120.5540012 111.6874997  22.2679988 120.7471649 111.5324469  21.4339815
 119.4860012  98.0784997  20.9979988 119.4030012  98.9674997  21.3449988
 120.3760012  97.8134997  21.2299988 119.5949469  98.1641430  21.0767626
 129.6850012  98.8274997  33.3929988 128.7680012  99.0904997  33.3049988
 130.0200012  98.8244997  32.4959988 129.6049900  98.8630224  33.2597919
 128.2870012 102.5784997  27.4879988 127.4890012 102.1634997  27.1599988
 128.7320012 101.8874997  27.9789988 128.2379885 102.4283543  27.5094889
 117.7450012 108.5064997  20.0589988 118.3370012 109.2054997  20.3349988
 118.2040012 108.0734997  19.3389988 117.8881142 108.5437049  19.9994830
 116.0610012 101.1704997  19.1749988 116.0160012 102.1094997  19.3529988
 115.1730012 100.9344997  18.9049988 115.9348574 101.2671892  19.1628912
 129.3730012 111.8344997  29.1109988 129.2180012 112.5124997  28.4539988
 130.3060012 111.9064997  29.3139988 129.4778500 111.9370170  29.0485119
 116.8690012  95.9524997  27.8479988 116.6400012  96.0114997  26.9199988
 116.4260012  95.1604997  28.1539988 116.7778530  95.8535753  27.7624786
 115.7990012 109.8924997  24.0079988 114.9670012 110.3654997  24.0359988
 116.3450012 110.4024997  23.4099988 115.7589739 110.0261871  23.9309716
 115.0870012 112.5054997  35.3379988 115.6280012 112.2884997  36.0979988
 114.6060012 111.6994997  35.1489988 115.0959345 112.3669514  35.4163076
 119.6850012 111.4244997  36.9589988 120.4520012 110.9654997  37.2999988
 119.6630012 111.1984997  36.0289988 119.7871434 111.3310409  36.8800043
 123.7770012 110.9324997  18.3339988 123.1330012 110.3014997  18.6549988
 124.5390012 110.4014997  18.1019988 123.7918077 110.7742920  18.3466011
 126.2620012 109.8044997  35.6879988 125.9110012 108.9484997  35.9309988
 126.9880012 109.9474997  36.2949988 126.3120769 109.7065636  35.8033619
 128.3810012 110.7494997  18.5679988 128.6640012 109.9554997  19.0199988
 129.1210012 110.9824997  18.0069988 128.5197486 110.6722803  18.5540698
 114.9940012 106.3154997  36.2929988 115.1380012 105.4134997  36.0059988
 114.2220012 106.6014997  35.8049988 114.9093322 106.2308261  36.1877881
 119.3360012 106.6594997  18.4249988 119.4000012 105.8654997  18.9559988
 119.9890012 106.5404997  17.7349988 119.4330241 106.5347148  18.4044317
 121.6500012 106.2854997  35.7249988 121.3210012 106.5564997  34.8679988
 121.8020012 105.3444997  35.6379988 121.6254809 106.1953862  35.5958244
 124.6880012 107.7064997  18.1609988 124.4190012 107.8864997  19.0619988
 124.4820012 106.7804997  18.0299988 124.6233825 107.6060152  18.2665214
 127.3840012 106.2014997  33.1089988 128.1300012 106.7894997  32.9889988
 126.6270012 106.7834997  33.1719988 127.3837554 106.3607011  33.1010907
 115.8270012 103.5154997  35.7129988 116.2350012 102.6584997  35.5919988
 115.5670012 103.5304997  36.6339988 115.8477568 103.4000807  35.8209588
 120.4850012 104.6314997  20.7309988 120.0250012 104.1474997  21.4169988
 120.7400012 103.9634997  20.0949988 120.4564902 104.4748731  20.7389334
 119.7740012 102.5244997  33.0869988 119.1560012 103.1994997  33.3669988
 120.1180012 102.8454997  32.2539988 119.7359615 102.6602721  33.0126581
 121.5560012 102.8744997  18.9929988 121.3760012 102.7204997  18.0659988
 122.5060012 102.9824997  19.0379988 121.6597776 102.8680175  18.8721843
 124.7940012 104.9964997  36.3639988 125.7470012 105.0794997  36.3369988
 124.6330012 104.2844997  36.9839988 124.9026426 104.9116746  36.4440579
 130.9460012 105.2294997  18.4389988 130.6720012 104.8044997  17.6259988
 130.9850012 106.1604997  18.2219988 130.9137699 105.2972484  18.2983610
 120.1130012  99.8794997  34.1689988 120.2630012  99.1504997  33.5669988
 120.1160012 100.6564997  33.6099988 120.1339302  99.8847851  34.0110692
 120.5260012  98.2494997  31.6619988 121.0620012  98.7004997  31.0099988
 119.6740012  98.1414997  31.2389988 120.4842178  98.2966390  31.5155756
 122.1080012 103.6884997  31.9009988 122.8580012 103.5324997  31.3279988
 121.7690012 104.5404997  31.6259988 122.1648921 103.7822968  31.7853561
 126.5230012 101.5034997  36.9299988 126.7160012 100.5724997  36.8179988
 127.3810012 101.9284997  36.9199988 126.6653020 101.4336389  36.9133361
 127.8400012 104.2924997  35.0069988 127.5590012 105.0014997  34.4299988
 128.7830012 104.2194997  34.8559988 127.9289027 104.3797646  34.9075551
 118.5920012 101.0774997  36.0809988 117.8250012 100.5454997  35.8709988
 119.2710012 100.7674997  35.4809988 118.5787022 100.9627506  35.9711648
 121.3320012  95.7054997  32.0929988 121.2330012  96.6524997  31.9879988
 120.5890012  95.3334997  31.6179988 121.2180564  95.7845902  32.0144560
 122.5960012 100.0274997  35.6569988 122.3600012  99.8074997  36.5589988
 121.8120012  99.8204997  35.1469988 122.4578628  99.9694760  35.7113932
 125.3110012  99.1544997  34.7329988 124.3640012  99.1864997  34.8649988
 125.6240012  98.5294997  35.3859988 125.2235475  99.0743207  34.8394455
 126.9450012  97.7884997  36.7379988 126.8490012  96.8364997  36.7319988
 126.6240012  98.0574997  37.5979988 126.8884070  97.6944035  36.8535441
 116.7720012  98.9984997  35.7849988 116.9840012  98.2914997  35.1749988
 116.6610012  98.5604997  36.6289988 116.7859721  98.8427084  35.8156843
 121.5530012  94.9994997  34.7649988 122.2650012  94.3594997  34.7509988
 121.4520012  95.2664997  33.8509988 121.6367939  94.9479938  34.6395650
 121.9070012  96.6824997  36.8179988 121.7750012  96.2064997  35.9979988
 121.3080012  97.4264997  36.7629988 121.8079071  96.7179618  36.6982886
 121.4530012 113.5654997  19.9949988 122.3860012 113.7234997  20.1379988
 121.1890012 114.2404997  19.3699988 121.5449510 113.6783611  19.9300741
 115.0220012 108.2014997  19.4769988 115.9360012 108.2804997  19.7509988
 115.0290012 107.5144997  18.8109988 115.1481131 108.1193961  19.4244393
 113.6710012 113.5944997  24.5549988 113.0240012 113.1324997  24.0219988
 114.0250012 112.9224997  25.1369988 113.6303849 113.4404723  24.5607959
 114.5410012 111.6754997  26.3589988 114.2060012 110.7954997  26.5309988
 114.7630012 112.0204997  27.2239988 114.5251783 111.6017500  26.4994208
 132.0890012 112.4844997  29.3399988 132.0680012 112.6694997  30.2789988
 132.7800012 113.0534997  28.9989988 132.1794618 112.5866606  29.4223864
 131.6530012 112.0524997  32.2619988 131.1650012 111.3164997  31.8909988
 132.2020012 111.6584997  32.9399988 131.6604872 111.8986249  32.3029160
 130.1030012 107.8414997  36.8999988 129.2370012 107.7364997  37.2939988
 130.4800012 108.6004997  37.3459988 130.0353308 107.9296900  37.0142393
 131.4040012 106.0984997  22.4139988 132.2540012 106.5194997  22.5409988
 131.4100012 105.3584997  23.0209988 131.5211372 106.0560803  22.5134344
 131.7990012 104.1514997  24.2379988 131.0720012 103.6724997  24.6349988
 132.3800012 104.3574997  24.9699988 131.7779375 104.1137090  24.3914129
 131.5580012 106.9364997  29.1849988 132.3910012 106.5584997  28.9049988
 131.6700012 107.8794997  29.0659988 131.6872647 107.0122218  29.1305487
 130.0440012 109.8144997  31.4919988 129.3970012 110.1394997  32.1179988
 129.5270012 109.3744997  30.8179988 129.8854029 109.7995004  31.4865827
 132.0670012 104.0524997  20.6289988 131.5450012 104.4094997  19.9099988
 132.0340012 104.7274997  21.3069988 131.9911634 104.1925413  20.6223145
 130.4160012 101.2924997  19.1799988 130.5120012 101.9594997  18.4989988
 130.2760012 100.4764997  18.6979988 130.4102135 101.2734500  19.0218491
 129.5850012 102.6724997  24.8009988 129.4350012 101.7274997  24.7799988
 129.2320012 102.9534997  25.6439988 129.5166625 102.5810441  24.9122346
 114.6210012 104.7504997  28.8109988 114.8050012 104.6684997  27.8749988
 115.4700012 104.6264997  29.2349988 114.7610139 104.7225003  28.7401455
 130.4420012 104.6424997  34.4389988 131.0250012 103.9084997  34.6309988
 131.0060012 105.4144997  34.4859988 130.5979769 104.6464227  34.4716159
 131.9380012 102.5454997  35.1239988 131.0750012 102.1664997  34.9579988
 132.5430012 101.8064997  35.0499988 131.9015979 102.3938023  35.0912817
 129.6630012  98.7004997  18.2969988 130.2740012  98.3294997  18.9339988
 128.8270012  98.2794997  18.4929988 129.6335032  98.5927554  18.4107035
 129.2960012 100.2554997  23.2629988 129.5760012  99.3484997  23.3869988
 130.0550012 100.6894997  22.8739988 129.4369277 100.1900942  23.2273682
 129.9080012 100.8364997  28.6989988 130.8410012 101.0484997  28.6649988
 129.6730012 100.9384997  29.6209988 130.0038036 100.8792769  28.8189976
 129.9370012 101.5734997  31.4749988 129.0940012 101.8414997  31.8409988
 130.3790012 102.3954997  31.2639988 129.8814158 101.7213291  31.4965491
 114.2180012 100.0214997  34.9519988 115.1380012  99.8994997  35.1879988
 113.7690012  99.2714997  35.3409988 114.2831580  99.9033727  35.0369006
 132.2200012  95.5534997  36.8279988 132.5700012  94.8994997  36.2229988
 132.3670012  96.3904997  36.3889988 132.2878419  95.5771591  36.6857118
 129.9090012  97.5184997  23.3109988 130.0920012  97.0694997  24.1369988
 129.3100012  96.9334997  22.8479988 129.8530202  97.3779975  23.3613275
 115.4390012  98.3334997  27.8429988 115.8850012  97.5414997  28.1449988
 115.9060012  99.0494997  28.2739988 115.5630172  98.3220624  27.9424820
 113.7430012 101.3324997  28.9119988 114.2350012 101.1114997  28.1209988
 114.1060012 102.1734997  29.1929988 113.8593126 101.4158357  28.8417531
 131.7400012  97.6624997  35.1779988 130.8220012  97.9334997  35.1419988
 131.8630012  97.1274997  34.3929988 131.6311066  97.6272892  35.0670487
 131.7760012  97.5854997  19.8389988 132.1880012  96.8644997  19.3639988
 132.4580012  98.2554997  19.8979988 131.9245885  97.5772368  19.7818915
 114.0570012  97.5904997  22.9659988 113.1320012  97.7994997  22.8369988
 114.5110012  98.0744997  22.2769988 113.9917368  97.6845993  22.8551226
 128.8280012 112.5744997  24.9119988 129.4800012 112.2274997  24.3039988
 129.3380012 113.0634997  25.5579988 128.9862637 112.5930597  24.9160236
 114.0210012  96.3284997  31.3109988 113.3560012  96.0824997  31.9539988
 113.5780012  96.9504997  30.7329988 113.8700956  96.3788632  31.3209352
 116.2130012 109.5034997  35.4549988 115.3920012 109.6784997  34.9949988
 115.9600012 109.4304997  36.3759988 116.0666164 109.5175622  35.5164923
 119.1670012 110.4784997  31.7139988 118.7420012 111.2874997  31.4309988
 120.0710012 110.5634997  31.4119988 119.2310271 110.6008469  31.6343776
 123.4780012 111.8774997  34.6729988 123.6630012 111.5434997  35.5509988
 124.3240012 112.1864997  34.3509988 123.6177539 111.8736047  34.7495605
 125.8230012 113.1634997  33.9169988 126.5000012 112.5304997  33.6769988
 126.1450012 113.5644997  34.7239988 125.9591637 113.1311154  33.9932793
 130.7400012  95.7524997  32.9969988 129.9280012  96.0774997  32.6089988
 130.9730012  94.9924997  32.4639988 130.6603423  95.6942436  32.8718253
 116.5690012 113.7344997  31.7609988 115.8480012 114.1744997  31.3099988
 116.2030012 113.4834997  32.6099988 116.4209804 113.7607698  31.8139840
 119.0360012 113.3344997  30.7909988 118.1710012 113.4064997  31.1949988
 118.9810012 113.8814997  30.0069988 118.9102085 113.4182685  30.7403362
 123.7460012 113.2224997  29.9659988 123.2900012 113.7514997  29.3119988
 123.9090012 113.8254997  30.6919988 123.7055585 113.3764468  29.9745062
 126.0740012 112.1004997  30.9109988 125.1690012 112.2654997  30.6459988
 126.5030012 112.9534997  30.8459988 126.0080799 112.2384483  30.8659182
 128.6780012 113.6704997  31.2059988 128.4960012 114.5864997  30.9959988
 128.8550012 113.2604997  30.3599988 128.6770210 113.7404822  31.0627885
 115.9830012 112.3574997  28.6709988 115.9650012 111.9324997  29.5289988
 116.7880012 112.0394997  28.2629988 116.0893875 112.2563812  28.7331655
 118.1250012 111.0674997  27.3259988 117.9060012 110.1514997  27.4959988
 118.9490012 111.2074997  27.7919988 118.2064420 110.9610520  27.4122774
 120.6620012 111.5374997  28.1749988 120.8750012 110.6494997  27.8879988
 120.7260012 111.5034997  29.1289988 120.6998231 111.4113102  28.2647397
 124.1700012  97.2014997  27.3189988 123.4960012  96.5724997  27.5749988
 124.7340012  96.7174997  26.7159988 124.1539230  97.0498744  27.2725340
 129.3130012  95.3094997  27.4319988 129.9170012  95.8564997  26.9299988
 128.4430012  95.6284997  27.1919988 129.2781241  95.4275806  27.3307654
 131.0400012  96.4474997  25.7649988 131.6520012  95.9334997  25.2389988
 131.4220012  97.3254997  25.7889988 131.1754540  96.4957140  25.6961830
 116.4970012  95.8354997  25.1409988 115.7200012  95.6014997  24.6339988
 117.0270012  95.0384997  25.1499988 116.4622330  95.6956988  25.0727742
 115.3330012  95.6334997  20.9449988 115.7720012  96.2444997  20.3529988
 114.7000012  96.1714997  21.4189988 115.3074514  95.7899257  20.9280930
 121.0760012  95.7624997  24.9549988 121.9510012  96.1504997  24.9249988
 120.9400012  95.5474997  25.8769988 121.1773695  95.7865184  25.0756440
 126.6330012  95.7924997  26.6039988 126.7090012  95.8874997  25.6539988
 126.3580012  94.8844997  26.7329988 126.6062321  95.6827867  26.4915079
 127.9860012  95.8184997  22.2959988 127.2840012  96.4334997  22.0869988
 127.5420012  94.9804997  22.4269988 127.8296330  95.7895783  22.2850328
 115.2340012 111.5814997  21.8429988 114.5490012 111.5434997  21.1749988
 115.2380012 112.4944997  22.1309988 115.1408193 111.6997016  21.7905284
 117.1940012  97.5494997  19.3869988 117.6860012  96.9194997  18.8599988
 117.8180012  97.8454997  20.0509988 117.3455446  97.5033199  19.4045980
 122.2200012  97.8424997  21.8439988 122.3980012  97.1964997  22.5269988
 122.1670012  98.6764997  22.3119988 122.2371829  97.8667985  22.0005940
 124.0990012 112.7914997  20.2399988 124.9650012 113.1574997  20.0619988
 123.8520012 112.3514997  19.4259988 124.1842392 112.7821756  20.1056289
 130.8080012 112.3544997  22.9189988 130.6130012 111.6064997  22.3539988
 130.7690012 113.1124997  22.3359988 130.7760380 112.3546099  22.7628384
 116.4550012  96.3494997  34.6589988 116.0890012  95.5844997  35.1019988
 117.3680012  96.3784997  34.9459988 116.5282790  96.2487224  34.7584070
 118.4280012  95.7004997  36.1949988 119.3260012  95.4264997  36.0099988
 118.0410012  94.9574997  36.6589988 118.4986612  95.5625914  36.2323643
 117.0520012 112.5014997  18.8679988 116.7850012 112.7884997  19.7409988
 117.8240012 111.9554997  19.0199988 117.1197488 112.4670294  19.0081050
 126.8490012  95.0324997  36.3769988 126.9260012  94.6064997  37.2309988
 127.7430012  95.0464997  36.0339988 126.9803428  94.9760879  36.4475310
 130.0250012 111.1054997  35.0689988 129.2430012 110.9194997  34.5499988
 129.9530012 112.0344997  35.2869988 129.9081777 111.2056492  35.0274048
 144.4310012 104.9914997  25.0999988 144.5200012 105.9354997  24.9679988
 143.7930012 104.7164997  24.4419988 144.3569081 105.0834830  24.9929614
 143.3640012 104.2464997  28.5189988 143.3260012 103.6004997  29.2239988
 143.0420012 103.7804997  27.7479988 143.3152333 104.0949408  28.5112978
 135.7330012 103.8614997  30.1119988 135.7740012 103.2354997  30.8349988
 136.4360012 104.4854997  30.2939988 135.8336363 103.8601196  30.2356044
 136.6560012 108.3114997  28.6469988 136.2870012 107.5094997  28.2769988
 137.5970012 108.1424997  28.6929988 136.7327289 108.1790153  28.6026316
 133.2660012 101.9714997  24.0399988 132.8190012 102.8174997  24.0209988
 132.7050012 101.3914997  23.5239988 133.1289900 102.0089916  23.9676801
 133.9770012 104.1334997  26.1659988 134.1900012 103.3634997  26.6929988
 134.7150012 104.2224997  25.5619988 134.1058496 104.0401394  26.1565300
 144.1820012 112.2904997  27.0329988 144.8020012 111.6134997  26.7589988
 143.9740012 112.0724997  27.9409988 144.2386904 112.1683870  27.1183365
 141.7540012 106.6794997  28.9249988 142.0580012 105.9934997  28.3299988
 142.4750012 106.7974997  29.5429988 141.8930671 106.6016304  28.9271816
 144.8950012 101.0734997  29.2529988 145.0370012 100.1274997  29.2729988
 144.7880012 101.2804997  28.3239988 144.8999863 100.9719534  29.1302339
 138.0490012  99.1744997  26.5249988 138.0930012 100.0344997  26.1069988
 137.5920012  98.6224997  25.8909988 137.9932185  99.2175799  26.3820299
 134.6700012 101.5714997  27.2869988 135.3230012 101.0214997  27.7189988
 134.6940012 101.2974997  26.3699988 134.7626683 101.4591466  27.2222123
 139.8260012 103.1214997  26.5019988 140.4420012 102.5954997  27.0119988
 139.2400012 102.4814997  26.0989988 139.8310810 102.9629208  26.5173173
 136.8600012  98.0924997  30.5989988 136.6410012  98.6224997  29.8329988
 136.1920012  98.3194997  31.2459988 136.7397600  98.1956906  30.5816379
 144.2290012 107.5924997  24.1429988 143.9330012 107.2704997  23.2919988
 143.9040012 108.4924997  24.1839988 144.1446371 107.6700215  24.0321801
 139.4290012 105.7684997  30.8859988 138.6890012 106.3664997  30.9899988
 140.1430012 106.3224997  30.5709988 139.4242237 105.9252831  30.8576465
 136.4530012  99.9844997  28.5509988 137.0670012 100.6174997  28.9249988
 136.9650012  99.5124997  27.8949988 136.6062296 100.0072370  28.5134252
 137.8360012 107.7324997  31.6739988 137.8310012 108.6124997  31.2959988
 136.9830012 107.6494997  32.0989988 137.7199464 107.8416117  31.6797907
 133.9570012 107.4034997  22.4559988 133.6850012 107.6324997  21.5669988
 134.0030012 108.2414997  22.9159988 133.9260094 107.5481213  22.3965697
 140.8860012  95.3984997  28.0519988 140.7690012  94.4494997  27.9969988
 140.0310012  95.7304997  28.3249988 140.7543733  95.3135409  28.0813897
 143.1530012 104.2354997  22.5519988 142.4410012 104.7704997  22.1999988
 143.8440012 104.2914997  21.8919988 143.1490132 104.3162543  22.4146289
 143.2060012 102.6934997  19.5909988 143.9070012 102.7154997  20.2419988
 143.5090012 102.0654997  18.9349988 143.3427830 102.6116566  19.5913711
 138.2040012 105.0754997  25.3859988 137.8730012 104.7054997  24.5679988
 138.7920012 104.4054997  25.7329988 138.2381873 104.9341156  25.3208102
 139.5700012 108.5034997  28.0679988 139.4760012 107.9254997  27.3109988
 140.3000012 108.1324997  28.5639988 139.6557981 108.3742390  28.0314165
 138.5700012 103.8444997  29.0199988 139.1360012 103.9654997  28.2569988
 138.8890012 104.4814997  29.6589988 138.6905786 103.9471884  29.0020040
 144.8790012 109.3474997  29.7539988 144.6390012 110.0094997  30.4019988
 144.6810012 108.5134997  30.1789988 144.8193808 109.3253134  29.9001524
 139.4500012 108.2434997  33.7369988 139.1390012 109.0254997  34.1919988
 138.8000012 108.0904997  33.0509988 139.3195558 108.3299105  33.7065871
 136.3700012 104.4414997  32.9659988 136.4410012 105.0924997  33.6639988
 135.4800012 104.5444997  32.6309988 136.2593117 104.5445936  33.0162700
 143.1560012 110.3444997  24.6239988 143.6300012 110.6394997  25.4019988
 142.5930012 111.0824997  24.3909988 143.1447653 110.4846932  24.6990136
 137.6900012 110.3154997  34.4999988 137.6970012 110.1794997  33.5529988
 136.7740012 110.1974997  34.7519988 137.5671714 110.2809430  34.4044666
 137.1940012 104.1454997  22.9759988 136.9020012 104.9134997  22.4849988
 136.5200012 103.4854997  22.8129988 137.0629081 104.1614406  22.8867340
 133.2870012 106.5084997  31.7909988 132.7860012 106.4804997  30.9759988
 133.2920012 105.6024997  32.0999988 133.2191526 106.3822278  31.7212872
 133.0370012 109.2884997  28.6749988 133.9830012 109.1444997  28.6559988
 132.9250012 110.0724997  29.2119988 133.1512727 109.3748046  28.7450072
 142.2140012 109.5284997  33.2329988 142.3010012 110.3544997  33.7079988
 141.3500012 109.1984997  33.4819988 142.1091964 109.5969878  33.3316549
 142.6280012 113.3004997  23.0389988 142.5530012 113.1794997  22.0929988
 142.6610012 114.2504997  23.1579988 142.6221848 113.4122500  22.9254834
 136.2810012 112.0894997  24.8199988 136.4340012 111.7414997  25.6989988
 135.4310012 111.7334997  24.5649988 136.1868962 111.9936650  24.9058340
 135.5360012 107.8314997  32.8339988 135.7520012 107.4704997  33.6929988
 134.6810012 107.4574997  32.6239988 135.4499292 107.7314111  32.9233386
 138.1550012  96.3014997  28.8289988 137.2930012  96.2144997  28.4219988
 138.1320012  97.1574997  29.2569988 138.0340330  96.4052765  28.8311863
 142.8180012  96.0234997  32.2039988 143.2380012  95.6084997  32.9569988
 141.8850012  95.8454997  32.3209988 142.7493644  95.9425900  32.3229539
 142.4790012  98.5164997  19.4889988 142.2260012  98.5354997  20.4119988
 142.2230012  97.6444997  19.1879988 142.4097790  98.4012437  19.5746263
 138.2460012 101.2674997  29.9239988 137.6040012 101.2264997  30.6329988
 138.2830012 102.1934997  29.6869988 138.1631324 101.3871559  29.9889824
 138.2430012 101.4884997  24.8359988 137.3500012 101.1474997  24.7779988
 138.6930012 101.1114997  24.0809988 138.1817305 101.3908484  24.7259177
 143.7780012 101.9044997  23.6529988 143.3690012 102.7194997  23.3619988
 144.4990012 101.7644997  23.0389988 143.8194537 101.9972018  23.5301342
 142.8800012 102.0794997  35.1409988 142.3180012 101.3754997  35.4619988
 143.7070012 101.9594997  35.6089988 142.9147095 101.9667883  35.2482330
 144.7830012 101.3504997  26.4669988 144.5880012 101.9554997  25.7519988
 144.9640012 100.5164997  26.0329988 144.7807614 101.3206300  26.3104405
 135.9960012 101.5874997  31.7909988 135.9580012 101.9874997  32.6599988
 135.5050012 100.7704997  31.8819988 135.9244684 101.5318069  31.9221059
 139.3620012  98.9614997  18.5899988 138.9310012  98.5164997  19.3199988
 138.6440012  99.3334997  18.0779988 139.2059438  98.9508940  18.6206799
 132.6040012  98.7034997  25.6419988 133.2350012  98.6744997  26.3609988
 133.0530012  98.2784997  24.9119988 132.7510774  98.6420492  25.6416553
 133.8780012  99.4494997  21.0659988 134.3520012 100.0404997  20.4809988
 133.1610012  99.9804997  21.4129988 133.8459341  99.6020867  21.0328836
 144.0470012 102.9884997  31.1389988 144.3700012 102.3574997  30.4959988
 143.6070012 102.4534997  31.7989988 144.0316895 102.8298441  31.1402850
 140.8240012  98.9154997  25.9229988 139.9130012  98.9724997  26.2109988
 141.3300012  98.8554997  26.7329988 140.7675413  98.9151985  26.0720622
 135.6530012 100.5444997  24.7489988 134.7630012 100.6444997  24.4089988
 135.9490012  99.7024997  24.4029988 135.5712823 100.4443545  24.6557213
 139.3060012 100.5444997  22.4059988 140.2370012 100.6734997  22.5839988
 139.0910012 101.2144997  21.7559988 139.4044247 100.6526565  22.3425747
 137.9800012 101.7394997  19.9729988 137.4370012 101.3594997  19.2809988
 138.8130012 101.9334997  19.5439988 138.0184399 101.7138124  19.8204526
 136.1150012 106.2964997  35.0719988 136.8470012 106.5504997  35.6329988
 135.3350012 106.5004997  35.5869988 136.1098232 106.3589177  35.2185760
 142.1440012 101.7034997  27.8099988 142.7090012 101.1564997  27.2629988
 141.9970012 101.1814997  28.5979988 142.2012918 101.5582024  27.8418454
 137.1460012  97.8394997  24.2279988 136.8290012  96.9374997  24.1929988
 137.9280012  97.8414997  23.6749988 137.2082284  97.7161628  24.1484783
 140.7710012 100.0914997  30.2239988 139.9350012 100.5454997  30.3339988
 141.2950012 100.3674997  30.9759988 140.7274414 100.1909376  30.3407136
 141.3150012 106.3044997  21.9079988 140.5700012 105.7974997  21.5859988
 141.1810012 106.3534997  22.8549988 141.1948776 106.2416940  21.9918647
 142.8340012 106.4884997  33.1449988 142.4890012 106.1074997  33.9519988
 142.6340012 107.4224997  33.2169988 142.7598061 106.5625228  33.2650961
 136.4400012 105.5994997  27.6779988 137.1850012 105.5974997  27.0769988
 136.5180012 104.7764997  28.1599988 136.5525518 105.4879315  27.6608929
 143.4410012 107.7634997  20.9339988 143.1450012 108.5894997  21.3149988
 142.7380012 107.1434997  21.1299988 143.3054914 107.7928199  21.0126443
 133.4480012 104.0604997  32.9929988 133.6710012 103.6424997  33.8249988
 132.8460012 103.4474997  32.5699988 133.3971759 103.9204668  33.0497022
 140.4640012 103.5774997  35.2059988 140.1680012 103.4114997  34.3109988
 141.3960012 103.3574997  35.1949988 140.5494166 103.5250640  35.0820536
 138.8150012 109.1174997  25.0819988 139.3420012 109.8904997  24.8819988
 137.9350012 109.3424997  24.7809988 138.7681773 109.2538005  25.0139010
 134.5700012 103.9794997  19.6689988 135.1860012 104.6064997  20.0489988
 133.7080012 104.2954997  19.9409988 134.5377698 104.1079430  19.7577183
 140.2420012 106.7804997  24.6589988 140.0010012 107.7054997  24.6999988
 139.5010012 106.3214997  25.0549988 140.1088409 106.8451421  24.7181377
 140.7570012 110.9294997  30.9739988 141.1190012 111.7844997  30.7399988
 141.2880012 110.6374997  31.7139988 140.8784473 111.0071060  31.0420855
 138.9250012 111.8024997  24.2039988 137.9750012 111.9074997  24.2549988
 139.2770012 112.6224997  24.5489988 138.8424203 111.9278314  24.2576650
 144.3010012 107.0284997  30.6739988 143.8750012 106.8014997  31.5009988
 144.8810012 106.2904997  30.4919988 144.3211868 106.8975299  30.7625830
 135.0820012  98.8134997  32.5509988 134.1890012  99.1524997  32.4829988
 134.9830012  97.9584997  32.9689988 134.9464164  98.7442588  32.5982235
 134.7330012 110.6184997  30.9859988 134.9500012 109.6864997  30.9549988
 134.9790012 110.8924997  31.8689988 134.7959549 110.5280636  31.1011763
 140.5950012 109.0694997  18.1949988 140.8340012 108.3214997  17.6479988
 140.3260012 108.6814997  19.0279988 140.5913675 108.9146638  18.2326865
 139.5320012 108.6394997  20.6519988 139.6780012 108.1194997  21.4419988
 139.5290012 109.5464997  20.9579988 139.5515989 108.6908853  20.8016088
 135.9850012 105.8924997  21.1619988 135.2990012 106.2444997  21.7289988
 136.5070012 106.6554997  20.9149988 135.9616852 106.0438578  21.2062118
 143.8160012  98.5544997  31.4409988 144.5150012  98.6284997  32.0909988
 143.4350012  97.6904997  31.5949988 143.8601767  98.4477624  31.5508322
 144.6010012  98.2064997  22.5379988 144.8210012  98.6784997  21.7349988
 145.1590012  98.6014997  23.2079988 144.7064968  98.3244285  22.5187331
 142.2690012 110.3374997  21.4009988 141.4530012 110.8344997  21.4529988
 142.7990012 110.8124997  20.7609988 142.2289161 110.4697722  21.3215956
 141.8010012  99.9344997  23.3729988 142.6130012 100.4394997  23.4189988
 141.5560012  99.7894997  24.2869988 141.8790520  99.9840375  23.5028517
 142.3360012 100.9204997  32.5579988 142.4550012 101.4944997  33.3149988
 142.9920012 100.2324997  32.6719988 142.4409757 100.9061079  32.6770825
 142.6840012  97.0154997  24.3109988 142.3380012  97.6334997  24.9559988
 143.3430012  97.5164997  23.8299988 142.7257826  97.1675802  24.3340971
 139.6080012 111.3814997  21.3829988 139.7680012 112.1804997  20.8819988
 139.4100012 111.6874997  22.2679988 139.6031649 111.5324469  21.4339815
 138.3420012  98.0784997  20.9979988 138.2590012  98.9674997  21.3449988
 139.2320012  97.8134997  21.2299988 138.4509469  98.1641430  21.0767626
 136.6010012 108.5064997  20.0589988 137.1930012 109.2054997  20.3349988
 137.0600012 108.0734997  19.3389988 136.7441142 108.5437049  19.9994830
 134.9170012 101.1704997  19.1749988 134.8720012 102.1094997  19.3529988
 134.0290012 100.9344997  18.9049988 134.7908574 101.2671892  19.1628912
 135.7250012  95.9524997  27.8479988 135.4960012  96.0114997  26.9199988
 135.2820012  95.1604997  28.1539988 135.6338530  95.8535753  27.7624786
 134.6550012 109.8924997  24.0079988 133.8230012 110.3654997  24.0359988
 135.2010012 110.4024997  23.4099988 134.6149739 110.0261871  23.9309716
 133.9430012 112.5054997  35.3379988 134.4840012 112.2884997  36.0979988
 133.4620012 111.6994997  35.1489988 133.9519345 112.3669514  35.4163076
 138.5410012 111.4244997  36.9589988 139.3080012 110.9654997  37.2999988
 138.5190012 111.1984997  36.0289988 138.6431434 111.3310409  36.8800043
 142.6330012 110.9324997  18.3339988 141.9890012 110.3014997  18.6549988
 143.3950012 110.4014997  18.1019988 142.6478077 110.7742920  18.3466011
 133.8500012 106.3154997  36.2929988 133.9940012 105.4134997  36.0059988
 133.0780012 106.6014997  35.8049988 133.7653322 106.2308261  36.1877881
 138.1920012 106.6594997  18.4249988 138.2560012 105.8654997  18.9559988
 138.8450012 106.5404997  17.7349988 138.2890241 106.5347148  18.4044317
 140.5060012 106.2854997  35.7249988 140.1770012 106.5564997  34.8679988
 140.6580012 105.3444997  35.6379988 140.4814809 106.1953862  35.5958244
 143.5440012 107.7064997  18.1609988 143.2750012 107.8864997  19.0619988
 143.3380012 106.7804997  18.0299988 143.4793825 107.6060152  18.2665214
 134.6830012 103.5154997  35.7129988 135.0910012 102.6584997  35.5919988
 134.4230012 103.5304997  36.6339988 134.7037568 103.4000807  35.8209588
 139.3410012 104.6314997  20.7309988 138.8810012 104.1474997  21.4169988
 139.5960012 103.9634997  20.0949988 139.3124902 104.4748731  20.7389334
 138.6300012 102.5244997  33.0869988 138.0120012 103.1994997  33.3669988
 138.9740012 102.8454997  32.2539988 138.5919615 102.6602721  33.0126581
 140.4120012 102.8744997  18.9929988 140.2320012 102.7204997  18.0659988
 141.3620012 102.9824997  19.0379988 140.5157776 102.8680175  18.8721843
 143.6500012 104.9964997  36.3639988 144.6030012 105.0794997  36.3369988
 143.4890012 104.2844997  36.9839988 143.7586426 104.9116746  36.4440579
 138.9690012  99.8794997  34.1689988 139.1190012  99.1504997  33.5669988
 138.9720012 100.6564997  33.6099988 138.9899302  99.8847851  34.0110692
 139.3820012  98.2494997  31.6619988 139.9180012  98.7004997  31.0099988
 138.5300012  98.1414997  31.2389988 139.3402178  98.2966390  31.5155756
 140.9640012 103.6884997  31.9009988 141.7140012 103.5324997  31.3279988
 140.6250012 104.5404997  31.6259988 141.0208921 103.7822968  31.7853561
 137.4480012 101.0774997  36.0809988 136.6810012 100.5454997  35.8709988
 138.1270012 100.7674997  35.4809988 137.4347022 100.9627506  35.9711648
 140.1880012  95.7054997  32.0929988 140.0890012  96.6524997  31.9879988
 139.4450012  95.3334997  31.6179988 140.0740564  95.7845902  32.0144560
 141.4520012 100.0274997  35.6569988 141.2160012  99.8074997  36.5589988
 140.6680012  99.8204997  35.1469988 141.3138628  99.9694760  35.7113932
 144.1670012  99.1544997  34.7329988 143.2200012  99.1864997  34.8649988
 144.4800012  98.5294997  35.3859988 144.0795475  99.0743207  34.8394455
 135.6280012  98.9984997  35.7849988 135.8400012  98.2914997  35.1749988
 135.5170012  98.5604997  36.6289988 135.6419721  98.8427084  35.8156843
 140.4090012  94.9994997  34.7649988 141.1210012  94.3594997  34.7509988
 140.3080012  95.2664997  33.8509988 140.4927939  94.9479938  34.6395650
 140.7630012  96.6824997  36.8179988 140.6310012  96.2064997  35.9979988
 140.1640012  97.4264997  36.7629988 140.6639071  96.7179618  36.6982886
 140.3090012 113.5654997  19.9949988 141.2420012 113.7234997  20.1379988
 140.0450012 114.2404997  19.3699988 140.4009510 113.6783611  19.9300741
 133.8780012 108.2014997  19.4769988 134.7920012 108.2804997  19.7509988
 133.8850012 107.5144997  18.8109988 134.0041131 108.1193961  19.4244393
 132.5270012 113.5944997  24.5549988 131.8800012 113.1324997  24.0219988
 132.8810012 112.9224997  25.1369988 132.4863849 113.4404723  24.5607959
 133.3970012 111.6754997  26.3589988 133.0620012 110.7954997  26.5309988
 133.6190012 112.0204997  27.2239988 133.3811783 111.6017501  26.4994208
 133.4770012 104.7504997  28.8109988 133.6610012 104.6684997  27.8749988
 134.3260012 104.6264997  29.2349988 133.6170139 104.7225003  28.7401455
 133.0740012 100.0214997  34.9519988 133.9940012  99.8994997  35.1879988
 132.6250012  99.2714997  35.3409988 133.1391580  99.9033727  35.0369006
 134.2950012  98.3334997  27.8429988 134.7410012  97.5414997  28.1449988
 134.7620012  99.0494997  28.2739988 134.4190172  98.3220624  27.9424820
 132.5990012 101.3324997  28.9119988 133.0910012 101.1114997  28.1209988
 132.9620012 102.1734997  29.1929988 132.7153126 101.4158357  28.8417531
 132.9130012  97.5904997  22.9659988 131.9880012  97.7994997  22.8369988
 133.3670012  98.0744997  22.2769988 132.8477368  97.6845993  22.8551226
 132.8770012  96.3284997  31.3109988 132.2120012  96.0824997  31.9539988
 132.4340012  96.9504997  30.7329988 132.7260956  96.3788632  31.3209352
 135.0690012 109.5034997  35.4549988 134.2480012 109.6784997  34.9949988
 134.8160012 109.4304997  36.3759988 134.9226164 109.5175622  35.5164923
 138.0230012 110.4784997  31.7139988 137.5980012 111.2874997  31.4309988
 138.9270012 110.5634997  31.4119988 138.0870271 110.6008469  31.6343776
 142.3340012 111.8774997  34.6729988 142.5190012 111.5434997  35.5509988
 143.1800012 112.1864997  34.3509988 142.4737539 111.8736047  34.7495605
 144.6790012 113.1634997  33.9169988 145.3560012 112.5304997  33.6769988
 145.0010012 113.5644997  34.7239988 144.8151637 113.1311154  33.9932793
 135.4250012 113.7344997  31.7609988 134.7040012 114.1744997  31.3099988
 135.0590012 113.4834997  32.6099988 135.2769804 113.7607698  31.8139840
 137.8920012 113.3344997  30.7909988 137.0270012 113.4064997  31.1949988
 137.8370012 113.8814997  30.0069988 137.7662085 113.4182685  30.7403362
 142.6020012 113.2224997  29.9659988 142.1460012 113.7514997  29.3119988
 142.7650012 113.8254997  30.6919988 142.5615585 113.3764468  29.9745062
 134.8390012 112.3574997  28.6709988 134.8210012 111.9324997  29.5289988
 135.6440012 112.0394997  28.2629988 134.9453875 112.2563812  28.7331655
 136.9810012 111.0674997  27.3259988 136.7620012 110.1514997  27.4959988
 137.8050012 111.2074997  27.7919988 137.0624420 110.9610520  27.4122774
 139.5180012 111.5374997  28.1749988 139.7310012 110.6494997  27.8879988
 139.5820012 111.5034997  29.1289988 139.5558232 111.4113102  28.2647397
 143.0260012  97.2014997  27.3189988 142.3520012  96.5724997  27.5749988
 143.5900012  96.7174997  26.7159988 143.0099230  97.0498744  27.2725340
 135.3530012  95.8354997  25.1409988 134.5760012  95.6014997  24.6339988
 135.8830012  95.0384997  25.1499988 135.3182330  95.6956988  25.0727742
 134.1890012  95.6334997  20.9449988 134.6280012  96.2444997  20.3529988
 133.5560012  96.1714997  21.4189988 134.1634514  95.7899257  20.9280930
 139.9320012  95.7624997  24.9549988 140.8070012  96.1504997  24.9249988
 139.7960012  95.5474997  25.8769988 140.0333695  95.7865184  25.0756440
 134.0900012 111.5814997  21.8429988 133.4050012 111.5434997  21.1749988
 134.0940012 112.4944997  22.1309988 133.9968193 111.6997016  21.7905284
 136.0500012  97.5494997  19.3869988 136.5420012  96.9194997  18.8599988
 136.6740012  97.8454997  20.0509988 136.2015446  97.5033199  19.4045980
 141.0760012  97.8424997  21.8439988 141.2540012  97.1964997  22.5269988
 141.0230012  98.6764997  22.3119988 141.0931829  97.8667985  22.0005940
 142.9550012 112.7914997  20.2399988 143.8210012 113.1574997  20.0619988
 142.7080012 112.3514997  19.4259988 143.0402392 112.7821756  20.1056289
 135.3110012  96.3494997  34.6589988 134.9450012  95.5844997  35.1019988
 136.2240012  96.3784997  34.9459988 135.3842790  96.2487224  34.7584070
 137.2840012  95.7004997  36.1949988 138.1820012  95.4264997  36.0099988
 136.8970012  94.9574997  36.6589988 137.3546612  95.5625914  36.2323643
 135.9080012 112.5014997  18.8679988 135.6410012 112.7884997  19.7409988
 136.6800012 111.9554997  19.0199988 135.9757488 112.4670294  19.0081050
  12.4390012 123.8474997  25.0999988  12.5280012 124.7914997  24.9679988
  11.8010012 123.5724997  24.4419988  12.3649081 123.9394830  24.9929614
  11.3720012 123.1024997  28.5189988  11.3340012 122.4564997  29.2239988
  11.0500012 122.6364997  27.7479988  11.3232333 122.9509408  28.5112978
   3.7410012 122.7174997  30.1119988   3.7820012 122.0914997  30.8349988
   4.4440012 123.3414997  30.2939988   3.8416363 122.7161196  30.2356044
  15.0780012 126.0414997  26.8199988  14.6380012 125.3214997  27.2709988
  15.0650012 126.7624997  27.4499988  15.0160226 126.0403731  26.9668494
   4.6640012 127.1674997  28.6469988   4.2950012 126.3654997  28.2769988
   5.6050012 126.9984997  28.6929988   4.7407289 127.0350153  28.6026316
   1.2740012 120.8274997  24.0399988   0.8270012 121.6734997  24.0209988
   0.7130012 120.2474997  23.5239988   1.1369900 120.8649916  23.9676801
   1.9850012 122.9894997  26.1659988   2.1980012 122.2194997  26.6929988
   2.7230012 123.0784997  25.5619988   2.1138496 122.8961394  26.1565300
  12.1900012 131.1464997  27.0329988  12.8100012 130.4694997  26.7589988
  11.9820012 130.9284997  27.9409988  12.2466904 131.0243870  27.1183365
   9.7620012 125.5354997  28.9249988  10.0660012 124.8494997  28.3299988
  10.4830012 125.6534997  29.5429988   9.9010671 125.4576304  28.9271816
  18.4250012 117.1364997  29.7859988  18.4740012 117.7464997  30.5219988
  18.8500012 117.5974997  29.0629988  18.4891824 117.2823741  29.7890205
  12.9030012 119.9294997  29.2529988  13.0450012 118.9834997  29.2729988
  12.7960012 120.1364997  28.3239988  12.9079864 119.8279534  29.1302339
   6.0570012 118.0304997  26.5249988   6.1010012 118.8904997  26.1069988
   5.6000012 117.4784997  25.8909988   6.0012185 118.0735799  26.3820299
  13.7800012 118.1614997  24.9259988  14.4260012 117.8324997  25.5509988
  14.2900012 118.6794997  24.3029988  13.9374264 118.1864611  24.9273862
   2.6780012 120.4274997  27.2869988   3.3310012 119.8774997  27.7189988
   2.7020012 120.1534997  26.3699988   2.7706683 120.3151466  27.2222123
   7.8340012 121.9774997  26.5019988   8.4500012 121.4514997  27.0119988
   7.2480012 121.3374997  26.0989988   7.8390810 121.8189208  26.5173173
  18.8160012 118.6144997  32.0219988  18.1280012 119.2724997  31.9259988
  18.8320012 118.4174997  32.9579988  18.7238525 118.6780462  32.1354808
   4.8680012 116.9484997  30.5989988   4.6490012 117.4784997  29.8329988
   4.2000012 117.1754997  31.2459988   4.7477600 117.0516906  30.5816379
  12.2370012 126.4484997  24.1429988  11.9410012 126.1264997  23.2919988
  11.9120012 127.3484997  24.1839988  12.1526371 126.5260215  24.0321801
   7.4370012 124.6244997  30.8859988   6.6970012 125.2224997  30.9899988
   8.1510012 125.1784997  30.5709988   7.4322237 124.7812831  30.8576465
  15.5440012 117.4524997  26.9059988  15.3280012 116.6864997  27.4389988
  16.1990012 117.9244997  27.4189988  15.6030632 117.4115889  27.0482861
   4.4610012 118.8404997  28.5509988   5.0750012 119.4734997  28.9249988
   4.9730012 118.3684997  27.8949988   4.6142296 118.8632370  28.5134252
   5.8440012 126.5884997  31.6739988   5.8390012 127.4684997  31.2959988
   4.9910012 126.5054997  32.0989988   5.7279464 126.6976117  31.6797907
   1.9650012 126.2594997  22.4559988   1.6930012 126.4884997  21.5669988
   2.0110012 127.0974997  22.9159988   1.9340094 126.4041213  22.3965697
  15.5900012 127.8814997  29.1679988  14.6490012 127.9394997  29.3299988
  15.8670012 128.7874997  29.0309988  15.4984679 128.0119443  29.1716815
  15.8910012 116.1674997  30.5859988  15.1550012 116.7784997  30.5479988
  16.5740012 116.5824997  30.0589988  15.8826541 116.3071374  30.5095832
   8.8940012 114.2544997  28.0519988   8.7770012 113.3054997  27.9969988
   8.0390012 114.5864997  28.3249988   8.7623733 114.1695409  28.0813897
  13.8420012 129.6624997  25.7939988  14.2680012 128.9554997  25.3089988
  14.1590012 130.4634997  25.3769988  13.9431019 129.6740994  25.6713130
  15.0020012 127.5634997  24.3019988  14.7440012 126.8734997  23.6909988
  15.0730012 127.1204997  25.1479988  14.9762856 127.4092124  24.3326885
  16.6880012 126.1294997  32.7799988  16.8280012 125.5384997  32.0399988
  16.8550012 127.0024997  32.4229988  16.7296778 126.1666426  32.6306965
  11.1610012 123.0914997  22.5519988  10.4490012 123.6264997  22.1999988
  11.8520012 123.1474997  21.8919988  11.1570132 123.1722543  22.4146289
  11.2140012 121.5494997  19.5909988  11.9150012 121.5714997  20.2419988
  11.5170012 120.9214997  18.9349988  11.3507830 121.4676566  19.5913711
  18.5300012 122.4694997  30.8459988  17.8770012 123.1644997  30.9349988
  18.9950012 122.6794997  30.0359988  18.5035390 122.5929425  30.7486883
  14.5660012 123.3014997  23.5039988  13.8340012 123.5294997  24.0769988
  15.0140012 122.5874997  23.9589988  14.5263095 123.2362571  23.6439119
  14.4640012 121.4754997  32.5709988  14.5440012 122.2384997  33.1429988
  13.8620012 121.7544997  31.8809988  14.3935756 121.6177134  32.5560589
   6.2120012 123.9314997  25.3859988   5.8810012 123.5614997  24.5679988
   6.8000012 123.2614997  25.7329988   6.2461873 123.7901156  25.3208102
   7.5780012 127.3594997  28.0679988   7.4840012 126.7814997  27.3109988
   8.3080012 126.9884997  28.5639988   7.6637981 127.2302390  28.0314165
   6.5780012 122.7004997  29.0199988   7.1440012 122.8214997  28.2569988
   6.8970012 123.3374997  29.6589988   6.6985786 122.8031884  29.0020040
  12.8870012 128.2034997  29.7539988  12.6470012 128.8654997  30.4019988
  12.6890012 127.3694997  30.1789988  12.8273808 128.1813134  29.9001524
   7.4580012 127.0994997  33.7369988   7.1470012 127.8814997  34.1919988
   6.8080012 126.9464997  33.0509988   7.3275558 127.1859105  33.7065871
  13.4370012 122.4634997  21.1889988  14.0170012 122.6134997  21.9359988
  13.8510012 122.9344997  20.4659988  13.5722830 122.5476841  21.1934134
   4.3780012 123.2974997  32.9659988   4.4490012 123.9484997  33.6639988
   3.4880012 123.4004997  32.6309988   4.2673117 123.4005936  33.0162700
  11.1640012 129.2004997  24.6239988  11.6380012 129.4954997  25.4019988
  10.6010012 129.9384997  24.3909988  11.1527653 129.3406932  24.6990136
   5.6980012 129.1714997  34.4999988   5.7050012 129.0354997  33.5529988
   4.7820012 129.0534997  34.7519988   5.5751714 129.1369430  34.4044666
  17.1360012 114.2134997  21.0019988  16.2360012 114.3524997  21.2969988
  17.3880012 115.0444997  20.5999988  17.0468702 114.3449074  20.9880205
   5.2020012 123.0014997  22.9759988   4.9100012 123.7694997  22.4849988
   4.5280012 122.3414997  22.8129988   5.0709081 123.0174406  22.8867340
  18.3250012 128.5794997  19.3779988  18.3990012 129.5184997  19.5489988
  19.2310012 128.2744997  19.3219988  18.4575100 128.6666722  19.3938119
   1.2950012 125.3644997  31.7909988   0.7940012 125.3364997  30.9759988
   1.3000012 124.4584997  32.0999988   1.2271526 125.2382278  31.7212872
   1.0450012 128.1444997  28.6749988   1.9910012 128.0004997  28.6559988
   0.9330012 128.9284997  29.2119988   1.1592727 128.2308046  28.7450072
  19.2430012 128.8104997  34.3569988  19.1940012 127.8554997  34.3199988
  18.4160012 129.0784997  34.7579988  19.1244940 128.7158998  34.4061375
  10.2220012 128.3844997  33.2329988  10.3090012 129.2104997  33.7079988
   9.3580012 128.0544997  33.4819988  10.1171964 128.4529878  33.3316549
  10.6360012 132.1564997  23.0389988  10.5610012 132.0354997  22.0929988
  10.6690012 133.1064997  23.1579988  10.6301848 132.2682500  22.9254834
   4.2890012 130.9454997  24.8199988   4.4420012 130.5974997  25.6989988
   3.4390012 130.5894997  24.5649988   4.1948962 130.8496650  24.9058340
  13.7380012 131.3104997  20.0409988  14.1130012 130.5664997  19.5709988
  13.7420012 131.0404997  20.9599988  13.7898915 131.1721486  20.1007824
  13.4070012 131.2364997  22.7909988  12.4710012 131.3364997  22.9689988
  13.6870012 130.5274997  23.3689988  13.3168255 131.1542711  22.8935391
  16.3950012 120.3034997  34.8369988  15.9880012 120.7844997  34.1159988
  16.4360012 119.3984997  34.5289988  16.3448437 120.2469374  34.6966683
   3.5440012 126.6874997  32.8339988   3.7600012 126.3264997  33.6929988
   2.6890012 126.3134997  32.6239988   3.4579292 126.5874111  32.9233386
   6.1630012 115.1574997  28.8289988   5.3010012 115.0704997  28.4219988
   6.1400012 116.0134997  29.2569988   6.0420330 115.2612765  28.8311863
  10.8260012 114.8794997  32.2039988  11.2460012 114.4644997  32.9569988
   9.8930012 114.7014997  32.3209988  10.7573644 114.7985900  32.3229539
  14.1520012 118.6354997  33.0569988  13.6380012 118.5094997  33.8549988
  13.9970012 119.5474997  32.8129988  14.0606852 118.7416132  33.1332158
  14.9150012 123.4964997  18.8189988  14.9570012 123.2734997  17.8889988
  15.7640012 123.8954997  19.0089988  15.0355396 123.5199155  18.7173627
  10.4870012 117.3724997  19.4889988  10.2340012 117.3914997  20.4119988
  10.2310012 116.5004997  19.1879988  10.4177790 117.2572437  19.5746263
   6.2540012 120.1234997  29.9239988   5.6120012 120.0824997  30.6329988
   6.2910012 121.0494997  29.6869988   6.1711324 120.2431559  29.9889824
   6.2510012 120.3444997  24.8359988   5.3580012 120.0034997  24.7779988
   6.7010012 119.9674997  24.0809988   6.1897305 120.2468484  24.7259177
  11.7860012 120.7604997  23.6529988  11.3770012 121.5754997  23.3619988
  12.5070012 120.6204997  23.0389988  11.8274537 120.8532018  23.5301342
  10.8880012 120.9354997  35.1409988  10.3260012 120.2314997  35.4619988
  11.7150012 120.8154997  35.6089988  10.9227095 120.8227883  35.2482330
  12.7910012 120.2064997  26.4669988  12.5960012 120.8114997  25.7519988
  12.9720012 119.3724997  26.0329988  12.7887614 120.1766300  26.3104405
   4.0040012 120.4434997  31.7909988   3.9660012 120.8434997  32.6599988
   3.5130012 119.6264997  31.8819988   3.9324684 120.3878069  31.9221059
   7.3700012 117.8174997  18.5899988   6.9390012 117.3724997  19.3199988
   6.6520012 118.1894997  18.0779988   7.2139438 117.8068940  18.6206799
   0.6120012 117.5594997  25.6419988   1.2430012 117.5304997  26.3609988
   1.0610012 117.1344997  24.9119988   0.7590774 117.4980492  25.6416553
   1.8860012 118.3054997  21.0659988   2.3600012 118.8964997  20.4809988
   1.1690012 118.8364997  21.4129988   1.8539341 118.4580867  21.0328836
  12.0550012 121.8444997  31.1389988  12.3780012 121.2134997  30.4959988
  11.6150012 121.3094997  31.7989988  12.0396895 121.6858441  31.1402850
   8.8320012 117.7714997  25.9229988   7.9210012 117.8284997  26.2109988
   9.3380012 117.7114997  26.7329988   8.7755413 117.7711985  26.0720622
   3.6610012 119.4004997  24.7489988   2.7710012 119.5004997  24.4089988
   3.9570012 118.5584997  24.4029988   3.5792823 119.3003545  24.6557213
   7.3140012 119.4004997  22.4059988   8.2450012 119.5294997  22.5839988
   7.0990012 120.0704997  21.7559988   7.4124247 119.5086565  22.3425747
  13.2370012 117.0064997  29.1869988  12.5610012 117.1374997  29.8509988
  12.7520012 116.8514997  28.3769988  13.0787145 117.0034905  29.1684517
   5.9880012 120.5954997  19.9729988   5.4450012 120.2154997  19.2809988
   6.8210012 120.7894997  19.5439988   6.0264399 120.5698124  19.8204526
  16.5250012 132.6784997  35.4639988  16.7250012 133.1024997  34.6289988
  17.1800012 133.0214997  36.0709988  16.6410051 132.7829648  35.4317836
   4.1230012 125.1524997  35.0719988   4.8550012 125.4064997  35.6329988
   3.3430012 125.3564997  35.5869988   4.1178232 125.2149177  35.2185760
  10.1520012 120.5594997  27.8099988  10.7170012 120.0124997  27.2629988
  10.0050012 120.0374997  28.5979988  10.2092918 120.4142024  27.8418454
   5.1540012 116.6954997  24.2279988   4.8370012 115.7934997  24.1929988
   5.9360012 116.6974997  23.6749988   5.2162284 116.5721628  24.1484783
   8.7790012 118.9474997  30.2239988   7.9430012 119.4014997  30.3339988
   9.3030012 119.2234997  30.9759988   8.7354414 119.0469376  30.3407136
   9.3230012 125.1604997  21.9079988   8.5780012 124.6534997  21.5859988
   9.1890012 125.2094997  22.8549988   9.2028776 125.0976940  21.9918647
  16.4730012 124.2934997  30.6949988  17.1150012 124.7504997  30.1509988
  15.6430012 124.4064997  30.2319988  16.4485963 124.3712704  30.5580177
  13.2210012 117.9744997  20.1079988  12.2820012 118.0864997  19.9559988
  13.5180012 118.8314997  20.4139988  13.1327666 118.1056443  20.1285768
  10.8420012 125.3444997  33.1449988  10.4970012 124.9634997  33.9519988
  10.6420012 126.2784997  33.2169988  10.7678061 125.4185228  33.2650961
  13.9390012 119.8414997  21.7679988  14.8310012 119.7044997  22.0869988
  13.9960012 120.6324997  21.2319988  14.0686285 119.9296660  21.7391690
   4.4480012 124.4554997  27.6779988   5.1930012 124.4534997  27.0769988
   4.5260012 123.6324997  28.1599988   4.5605518 124.3439315  27.6608929
  11.4490012 126.6194997  20.9339988  11.1530012 127.4454997  21.3149988
  10.7460012 125.9994997  21.1299988  11.3134914 126.6488199  21.0126443
   1.4560012 122.9164997  32.9929988   1.6790012 122.4984997  33.8249988
   0.8540012 122.3034997  32.5699988   1.4051759 122.7764668  33.0497022
   8.4720012 122.4334997  35.2059988   8.1760012 122.2674997  34.3109988
   9.4040012 122.2134997  35.1949988   8.5574166 122.3810640  35.0820536
  13.0930012 127.8064997  33.0959988  12.1920012 127.9894997  32.8279988
  13.1270012 128.0654997  34.0169988  12.9743041 127.8665512  33.1838197
  18.8240012 120.0514997  21.4629988  18.2700012 119.6554997  20.7909988
  18.9240012 120.9614997  21.1849988  18.7617059 120.1203586  21.3334401
  18.7870012 125.8514997  34.2999988  17.9360012 126.0894997  33.9329988
  19.3780012 125.8344997  33.5469988  18.7502487 125.8818258  34.1478893
  17.1190012 128.8374997  21.9279988  16.7460012 128.0114997  22.2369988
  17.3970012 128.6544997  21.0309988  17.1055630 128.6997303  21.8489626
  14.2800012 123.6454997  28.9489988  13.3510012 123.4134997  28.9219988
  14.7310012 122.8684997  28.6189988  14.2139216 123.5087238  28.9006917
   6.8230012 127.9734997  25.0819988   7.3500012 128.7464997  24.8819988
   5.9430012 128.1984997  24.7809988   6.7761773 128.1098005  25.0139010
   2.5780012 122.8354997  19.6689988   3.1940012 123.4624997  20.0489988
   1.7160012 123.1514997  19.9409988   2.5457698 122.9639430  19.7577183
   8.2500012 125.6364997  24.6589988   8.0090012 126.5614997  24.6999988
   7.5090012 125.1774997  25.0549988   8.1168409 125.7011421  24.7181377
   8.7650012 129.7854997  30.9739988   9.1270012 130.6404997  30.7399988
   9.2960012 129.4934997  31.7139988   8.8864473 129.8631060  31.0420855
   6.9330012 130.6584997  24.2039988   5.9830012 130.7634997  24.2549988
   7.2850012 131.4784997  24.5489988   6.8504203 130.7838314  24.2576650
  12.3090012 125.8844997  30.6739988  11.8830012 125.6574997  31.5009988
  12.8890012 125.1464997  30.4919988  12.3291868 125.7535299  30.7625830
  14.5120012 126.8134997  19.7479988  14.8650012 126.4334997  20.5529988
  13.5630012 126.7204997  19.8349988  14.4320441 126.7489596  19.8698559
  14.9670012 130.4364997  33.1439988  14.3660012 129.8814997  32.6479988
  15.2490012 131.1034997  32.5179988  14.9228519 130.4506841  32.9914952
  19.0150012 131.2934997  19.9489988  19.7590012 131.8794997  19.8089988
  18.3210012 131.8614997  20.2829988  19.0230292 131.4505582  19.9749961
   3.0900012 117.6694997  32.5509988   2.1970012 118.0084997  32.4829988
   2.9910012 116.8144997  32.9689988   2.9544164 117.6002588  32.5982235
  15.3780012 125.4864997  21.9749988  15.1000012 124.7584997  22.5309988
  16.3050012 125.6054997  22.1799988  15.4653124 125.4028802  22.0788845
   2.7410012 129.4744997  30.9859988   2.9580012 128.5424997  30.9549988
   2.9870012 129.7484997  31.8689988   2.8039549 129.3840636  31.1011763
   8.6030012 127.9254997  18.1949988   8.8420012 127.1774997  17.6479988
   8.3340012 127.5374997  19.0279988   8.5993675 127.7706638  18.2326865
   7.5400012 127.4954997  20.6519988   7.6860012 126.9754997  21.4419988
   7.5370012 128.4024997  20.9579988   7.5595989 127.5468853  20.8016088
   3.9930012 124.7484997  21.1619988   3.3070012 125.1004997  21.7289988
   4.5150012 125.5114997  20.9149988   3.9696852 124.8998578  21.2062118
  11.8240012 117.4104997  31.4409988  12.5230012 117.4844997  32.0909988
  11.4430012 116.5464997  31.5949988  11.8681767 117.3037624  31.5508322
  12.6090012 117.0624997  22.5379988  12.8290012 117.5344997  21.7349988
  13.1670012 117.4574997  23.2079988  12.7144968 117.1804285  22.5187331
  10.2770012 129.1934997  21.4009988   9.4610012 129.6904997  21.4529988
  10.8070012 129.6684997  20.7609988  10.2369161 129.3257722  21.3215956
   9.8090012 118.7904997  23.3729988  10.6210012 119.2954997  23.4189988
   9.5640012 118.6454997  24.2869988   9.8870520 118.8400375  23.5028517
  10.3440012 119.7764997  32.5579988  10.4630012 120.3504997  33.3149988
  11.0000012 119.0884997  32.6719988  10.4489757 119.7621079  32.6770825
  10.6920012 115.8714997  24.3109988  10.3460012 116.4894997  24.9559988
  11.3510012 116.3724997  23.8299988  10.7337826 116.0235802  24.3340971
   7.6160012 130.2374997  21.3829988   7.7760012 131.0364997  20.8819988
   7.4180012 130.5434997  22.2679988   7.6111649 130.3884469  21.4339815
   6.3500012 116.9344997  20.9979988   6.2670012 117.8234997  21.3449988
   7.2400012 116.6694997  21.2299988   6.4589469 117.0201430  21.0767626
  16.5490012 117.6834997  33.3929988  15.6320012 117.9464997  33.3049988
  16.8840012 117.6804997  32.4959988  16.4689900 117.7190224  33.2597919
  15.1510012 121.4344997  27.4879988  14.3530012 121.0194997  27.1599988
  15.5960012 120.7434997  27.9789988  15.1019885 121.2843543  27.5094889
   4.6090012 127.3624997  20.0589988   5.2010012 128.0614997  20.3349988
   5.0680012 126.9294997  19.3389988   4.7521142 127.3997049  19.9994830
   2.9250012 120.0264997  19.1749988   2.8800012 120.9654997  19.3529988
   2.0370012 119.7904997  18.9049988   2.7988574 120.1231892  19.1628912
  16.2370012 130.6904997  29.1109988  16.0820012 131.3684997  28.4539988
  17.1700012 130.7624997  29.3139988  16.3418500 130.7930170  29.0485119
   3.7330012 114.8084997  27.8479988   3.5040012 114.8674997  26.9199988
   3.2900012 114.0164997  28.1539988   3.6418530 114.7095753  27.7624786
   2.6630012 128.7484997  24.0079988   1.8310012 129.2214997  24.0359988
   3.2090012 129.2584997  23.4099988   2.6229739 128.8821871  23.9309716
   1.9510012 131.3614997  35.3379988   2.4920012 131.1444997  36.0979988
   1.4700012 130.5554997  35.1489988   1.9599345 131.2229514  35.4163076
   6.5490012 130.2804997  36.9589988   7.3160012 129.8214997  37.2999988
   6.5270012 130.0544997  36.0289988   6.6511434 130.1870409  36.8800043
  10.6410012 129.7884997  18.3339988   9.9970012 129.1574997  18.6549988
  11.4030012 129.2574997  18.1019988  10.6558077 129.6302920  18.3466011
  13.1260012 128.6604997  35.6879988  12.7750012 127.8044997  35.9309988
  13.8520012 128.8034997  36.2949988  13.1760769 128.5625636  35.8033619
  15.2450012 129.6054997  18.5679988  15.5280012 128.8114997  19.0199988
  15.9850012 129.8384997  18.0069988  15.3837486 129.5282803  18.5540698
   1.8580012 125.1714997  36.2929988   2.0020012 124.2694997  36.0059988
   1.0860012 125.4574997  35.8049988   1.7733322 125.0868261  36.1877881
   6.2000012 125.5154997  18.4249988   6.2640012 124.7214997  18.9559988
   6.8530012 125.3964997  17.7349988   6.2970241 125.3907148  18.4044317
   8.5140012 125.1414997  35.7249988   8.1850012 125.4124997  34.8679988
   8.6660012 124.2004997  35.6379988   8.4894809 125.0513862  35.5958244
  11.5520012 126.5624997  18.1609988  11.2830012 126.7424997  19.0619988
  11.3460012 125.6364997  18.0299988  11.4873825 126.4620152  18.2665214
  14.2480012 125.0574997  33.1089988  14.9940012 125.6454997  32.9889988
  13.4910012 125.6394997  33.1719988  14.2477554 125.2167011  33.1010907
   2.6910012 122.3714997  35.7129988   3.0990012 121.5144997  35.5919988
   2.4310012 122.3864997  36.6339988   2.7117568 122.2560807  35.8209588
   7.3490012 123.4874997  20.7309988   6.8890012 123.0034997  21.4169988
   7.6040012 122.8194997  20.0949988   7.3204902 123.3308731  20.7389334
   6.6380012 121.3804997  33.0869988   6.0200012 122.0554997  33.3669988
   6.9820012 121.7014997  32.2539988   6.5999615 121.5162721  33.0126581
   8.4200012 121.7304997  18.9929988   8.2400012 121.5764997  18.0659988
   9.3700012 121.8384997  19.0379988   8.5237776 121.7240175  18.8721843
  11.6580012 123.8524997  36.3639988  12.6110012 123.9354997  36.3369988
  11.4970012 123.1404997  36.9839988  11.7666426 123.7676746  36.4440579
  17.8100012 124.0854997  18.4389988  17.5360012 123.6604997  17.6259988
  17.8490012 125.0164997  18.2219988  17.7777699 124.1532484  18.2983610
   6.9770012 118.7354997  34.1689988   7.1270012 118.0064997  33.5669988
   6.9800012 119.5124997  33.6099988   6.9979302 118.7407851  34.0110692
   7.3900012 117.1054997  31.6619988   7.9260012 117.5564997  31.0099988
   6.5380012 116.9974997  31.2389988   7.3482178 117.1526390  31.5155756
   8.9720012 122.5444997  31.9009988   9.7220012 122.3884997  31.3279988
   8.6330012 123.3964997  31.6259988   9.0288921 122.6382968  31.7853561
  13.3870012 120.3594997  36.9299988  13.5800012 119.4284997  36.8179988
  14.2450012 120.7844997  36.9199988  13.5293020 120.2896389  36.9133361
  14.7040012 123.1484997  35.0069988  14.4230012 123.8574997  34.4299988
  15.6470012 123.0754997  34.8559988  14.7929027 123.2357646  34.9075551
   5.4560012 119.9334997  36.0809988   4.6890012 119.4014997  35.8709988
   6.1350012 119.6234997  35.4809988   5.4427022 119.8187506  35.9711648
   8.1960012 114.5614997  32.0929988   8.0970012 115.5084997  31.9879988
   7.4530012 114.1894997  31.6179988   8.0820563 114.6405902  32.0144560
   9.4600012 118.8834997  35.6569988   9.2240012 118.6634997  36.5589988
   8.6760012 118.6764997  35.1469988   9.3218628 118.8254760  35.7113932
  12.1750012 118.0104997  34.7329988  11.2280012 118.0424997  34.8649988
  12.4880012 117.3854997  35.3859988  12.0875475 117.9303207  34.8394455
  13.8090012 116.6444997  36.7379988  13.7130012 115.6924997  36.7319988
  13.4880012 116.9134997  37.5979988  13.7524070 116.5504035  36.8535441
   3.6360012 117.8544997  35.7849988   3.8480012 117.1474997  35.1749988
   3.5250012 117.4164997  36.6289988   3.6499721 117.6987084  35.8156843
   8.4170012 113.8554997  34.7649988   9.1290012 113.2154997  34.7509988
   8.3160012 114.1224997  33.8509988   8.5007939 113.8039938  34.6395650
   8.7710012 115.5384997  36.8179988   8.6390012 115.0624997  35.9979988
   8.1720012 116.2824997  36.7629988   8.6719071 115.5739618  36.6982886
   8.3170012 132.4214997  19.9949988   9.2500012 132.5794997  20.1379988
   8.0530012 133.0964997  19.3699988   8.4089510 132.5343611  19.9300741
   1.8860012 127.0574997  19.4769988   2.8000012 127.1364997  19.7509988
   1.8930012 126.3704997  18.8109988   2.0121131 126.9753961  19.4244393
   0.5350012 132.4504997  24.5549988  -0.1119988 131.9884997  24.0219988
   0.8890012 131.7784997  25.1369988   0.4943849 132.2964723  24.5607959
   1.4050012 130.5314997  26.3589988   1.0700012 129.6514997  26.5309988
   1.6270012 130.8764997  27.2239988   1.3891783 130.4577501  26.4994208
  18.9530012 131.3404997  29.3399988  18.9320012 131.5254997  30.2789988
  19.6440012 131.9094997  28.9989988  19.0434618 131.4426606  29.4223864
  18.5170012 130.9084997  32.2619988  18.0290012 130.1724997  31.8909988
  19.0660012 130.5144997  32.9399988  18.5244872 130.7546249  32.3029160
  16.9670012 126.6974997  36.8999988  16.1010012 126.5924997  37.2939988
  17.3440012 127.4564997  37.3459988  16.8993308 126.7856900  37.0142393
  18.2680012 124.9544997  22.4139988  19.1180012 125.3754997  22.5409988
  18.2740012 124.2144997  23.0209988  18.3851372 124.9120803  22.5134344
  18.6630012 123.0074997  24.2379988  17.9360012 122.5284997  24.6349988
  19.2440012 123.2134997  24.9699988  18.6419375 122.9697090  24.3914129
  18.4220012 125.7924997  29.1849988  19.2550012 125.4144997  28.9049988
  18.5340012 126.7354997  29.0659988  18.5512647 125.8682218  29.1305487
  16.9080012 128.6704997  31.4919988  16.2610012 128.9954997  32.1179988
  16.3910012 128.2304997  30.8179988  16.7494029 128.6555004  31.4865827
  18.9310012 122.9084997  20.6289988  18.4090012 123.2654997  19.9099988
  18.8980012 123.5834997  21.3069988  18.8551634 123.0485413  20.6223145
  17.2800012 120.1484997  19.1799988  17.3760012 120.8154997  18.4989988
  17.1400012 119.3324997  18.6979988  17.2742135 120.1294500  19.0218491
  16.4490012 121.5284997  24.8009988  16.2990012 120.5834997  24.7799988
  16.0960012 121.8094997  25.6439988  16.3806625 121.4370441  24.9122346
   1.4850012 123.6064997  28.8109988   1.6690012 123.5244997  27.8749988
   2.3340012 123.4824997  29.2349988   1.6250139 123.5785003  28.7401455
  17.3060012 123.4984997  34.4389988  17.8890012 122.7644997  34.6309988
  17.8700012 124.2704997  34.4859988  17.4619769 123.5024227  34.4716159
  18.8020012 121.4014997  35.1239988  17.9390012 121.0224997  34.9579988
  19.4070012 120.6624997  35.0499988  18.7655979 121.2498023  35.0912817
  16.5270012 117.5564997  18.2969988  17.1380012 117.1854997  18.9339988
  15.6910012 117.1354997  18.4929988  16.4975032 117.4487554  18.4107035
  16.1600012 119.1114997  23.2629988  16.4400012 118.2044997  23.3869988
  16.9190012 119.5454997  22.8739988  16.3009277 119.0460942  23.2273682
  16.7720012 119.6924997  28.6989988  17.7050012 119.9044997  28.6649988
  16.5370012 119.7944997  29.6209988  16.8678036 119.7352769  28.8189976
  16.8010012 120.4294997  31.4749988  15.9580012 120.6974997  31.8409988
  17.2430012 121.2514997  31.2639988  16.7454158 120.5773291  31.4965491
   1.0820012 118.8774997  34.9519988   2.0020012 118.7554997  35.1879988
   0.6330012 118.1274997  35.3409988   1.1471580 118.7593727  35.0369006
  19.0840012 114.4094997  36.8279988  19.4340012 113.7554997  36.2229988
  19.2310012 115.2464997  36.3889988  19.1518419 114.4331591  36.6857118
  16.7730012 116.3744997  23.3109988  16.9560012 115.9254997  24.1369988
  16.1740012 115.7894997  22.8479988  16.7170202 116.2339975  23.3613275
   2.3030012 117.1894997  27.8429988   2.7490012 116.3974997  28.1449988
   2.7700012 117.9054997  28.2739988   2.4270172 117.1780624  27.9424820
   0.6070012 120.1884997  28.9119988   1.0990012 119.9674997  28.1209988
   0.9700012 121.0294997  29.1929988   0.7233126 120.2718357  28.8417531
  18.6040012 116.5184997  35.1779988  17.6860012 116.7894997  35.1419988
  18.7270012 115.9834997  34.3929988  18.4951066 116.4832892  35.0670487
  18.6400012 116.4414997  19.8389988  19.0520012 115.7204997  19.3639988
  19.3220012 117.1114997  19.8979988  18.7885885 116.4332368  19.7818915
   0.9210012 116.4464997  22.9659988  -0.0039988 116.6554997  22.8369988
   1.3750012 116.9304997  22.2769988   0.8557368 116.5405993  22.8551226
  15.6920012 131.4304997  24.9119988  16.3440012 131.0834997  24.3039988
  16.2020012 131.9194997  25.5579988  15.8502637 131.4490597  24.9160236
   0.8850012 115.1844997  31.3109988   0.2200012 114.9384997  31.9539988
   0.4420012 115.8064997  30.7329988   0.7340956 115.2348632  31.3209352
   3.0770012 128.3594997  35.4549988   2.2560012 128.5344997  34.9949988
   2.8240012 128.2864997  36.3759988   2.9306164 128.3735622  35.5164923
   6.0310012 129.3344997  31.7139988   5.6060012 130.1434997  31.4309988
   6.9350012 129.4194997  31.4119988   6.0950271 129.4568469  31.6343776
  10.3420012 130.7334997  34.6729988  10.5270012 130.3994997  35.5509988
  11.1880012 131.0424997  34.3509988  10.4817539 130.7296047  34.7495605
  12.6870012 132.0194997  33.9169988  13.3640012 131.3864997  33.6769988
  13.0090012 132.4204997  34.7239988  12.8231637 131.9871154  33.9932793
  17.6040012 114.6084997  32.9969988  16.7920012 114.9334997  32.6089988
  17.8370012 113.8484997  32.4639988  17.5243423 114.5502436  32.8718253
   3.4330012 132.5904997  31.7609988   2.7120012 133.0304997  31.3099988
   3.0670012 132.3394997  32.6099988   3.2849804 132.6167698  31.8139840
   5.9000012 132.1904997  30.7909988   5.0350012 132.2624997  31.1949988
   5.8450012 132.7374997  30.0069988   5.7742085 132.2742685  30.7403362
  10.6100012 132.0784997  29.9659988  10.1540012 132.6074997  29.3119988
  10.7730012 132.6814997  30.6919988  10.5695585 132.2324468  29.9745062
  12.9380012 130.9564997  30.9109988  12.0330012 131.1214997  30.6459988
  13.3670012 131.8094997  30.8459988  12.8720799 131.0944483  30.8659182
  15.5420012 132.5264997  31.2059988  15.3600012 133.4424997  30.9959988
  15.7190012 132.1164997  30.3599988  15.5410210 132.5964822  31.0627885
   2.8470012 131.2134997  28.6709988   2.8290012 130.7884997  29.5289988
   3.6520012 130.8954997  28.2629988   2.9533875 131.1123812  28.7331655
   4.9890012 129.9234997  27.3259988   4.7700012 129.0074997  27.4959988
   5.8130012 130.0634997  27.7919988   5.0704420 129.8170520  27.4122774
   7.5260012 130.3934997  28.1749988   7.7390012 129.5054997  27.8879988
   7.5900012 130.3594997  29.1289988   7.5638231 130.2673102  28.2647397
  11.0340012 116.0574997  27.3189988  10.3600012 115.4284997  27.5749988
  11.5980012 115.5734997  26.7159988  11.0179230 115.9058744  27.2725340
  16.1770012 114.1654997  27.4319988  16.7810012 114.7124997  26.9299988
  15.3070012 114.4844997  27.1919988  16.1421241 114.2835806  27.3307654
  17.9040012 115.3034997  25.7649988  18.5160012 114.7894997  25.2389988
  18.2860012 116.1814997  25.7889988  18.0394540 115.3517140  25.6961830
   3.3610012 114.6914997  25.1409988   2.5840012 114.4574997  24.6339988
   3.8910012 113.8944997  25.1499988   3.3262330 114.5516988  25.0727742
   2.1970012 114.4894997  20.9449988   2.6360012 115.1004997  20.3529988
   1.5640012 115.0274997  21.4189988   2.1714514 114.6459257  20.9280930
   7.9400012 114.6184997  24.9549988   8.8150012 115.0064997  24.9249988
   7.8040012 114.4034997  25.8769988   8.0413695 114.6425184  25.0756440
  13.4970012 114.6484997  26.6039988  13.5730012 114.7434997  25.6539988
  13.2220012 113.7404997  26.7329988  13.4702321 114.5387867  26.4915079
  14.8500012 114.6744997  22.2959988  14.1480012 115.2894997  22.0869988
  14.4060012 113.8364997  22.4269988  14.6936330 114.6455783  22.2850328
   2.0980012 130.4374997  21.8429988   1.4130012 130.3994997  21.1749988
   2.1020012 131.3504997  22.1309988   2.0048193 130.5557016  21.7905284
   4.0580012 116.4054997  19.3869988   4.5500012 115.7754997  18.8599988
   4.6820012 116.7014997  20.0509988   4.2095446 116.3593199  19.4045980
   9.0840012 116.6984997  21.8439988   9.2620012 116.0524997  22.5269988
   9.0310012 117.5324997  22.3119988   9.1011829 116.7227985  22.0005940
  10.9630012 131.6474997  20.2399988  11.8290012 132.0134997  20.0619988
  10.7160012 131.2074997  19.4259988  11.0482392 131.6381756  20.1056289
  17.6720012 131.2104997  22.9189988  17.4770012 130.4624997  22.3539988
  17.6330012 131.9684997  22.3359988  17.6400380 131.2106099  22.7628384
   3.3190012 115.2054997  34.6589988   2.9530012 114.4404997  35.1019988
   4.2320012 115.2344997  34.9459988   3.3922790 115.1047224  34.7584070
   5.2920012 114.5564997  36.1949988   6.1900012 114.2824997  36.0099988
   4.9050012 113.8134997  36.6589988   5.3626612 114.4185914  36.2323643
   3.9160012 131.3574997  18.8679988   3.6490012 131.6444997  19.7409988
   4.6880012 130.8114997  19.0199988   3.9837488 131.3230294  19.0081050
  13.7130012 113.8884997  36.3769988  13.7900012 113.4624997  37.2309988
  14.6070012 113.9024997  36.0339988  13.8443428 113.8320879  36.4475310
  16.8890012 129.9614997  35.0689988  16.1070012 129.7754997  34.5499988
  16.8170012 130.8904997  35.2869988  16.7721777 130.0616492  35.0274048
  31.2950012 123.8474997  25.0999988  31.3840012 124.7914997  24.9679988
  30.6570012 123.5724997  24.4419988  31.2209081 123.9394830  24.9929614
  30.2280012 123.1024997  28.5189988  30.1900012 122.4564997  29.2239988
  29.9060012 122.6364997  27.7479988  30.1792333 122.9509408  28.5112978
  22.5970012 122.7174997  30.1119988  22.6380012 122.0914997  30.8349988
  23.3000012 123.3414997  30.2939988  22.6976363 122.7161196  30.2356044
  33.9340012 126.0414997  26.8199988  33.4940012 125.3214997  27.2709988
  33.9210012 126.7624997  27.4499988  33.8720226 126.0403731  26.9668494
  23.5200012 127.1674997  28.6469988  23.1510012 126.3654997  28.2769988
  24.4610012 126.9984997  28.6929988  23.5967289 127.0350153  28.6026316
  20.1300012 120.8274997  24.0399988  19.6830012 121.6734997  24.0209988
  19.5690012 120.2474997  23.5239988  19.9929900 120.8649916  23.9676801
  20.8410012 122.9894997  26.1659988  21.0540012 122.2194997  26.6929988
  21.5790012 123.0784997  25.5619988  20.9698496 122.8961394  26.1565300
  31.0460012 131.1464997  27.0329988  31.6660012 130.4694997  26.7589988
  30.8380012 130.9284997  27.9409988  31.1026904 131.0243870  27.1183365
  28.6180012 125.5354997  28.9249988  28.9220012 124.8494997  28.3299988
  29.3390012 125.6534997  29.5429988  28.7570671 125.4576305  28.9271816
  37.2810012 117.1364997  29.7859988  37.3300012 117.7464997  30.5219988
  37.7060012 117.5974997  29.0629988  37.3451824 117.2823741  29.7890205
  31.7590012 119.9294997  29.2529988  31.9010012 118.9834997  29.2729988
  31.6520012 120.1364997  28.3239988  31.7639864 119.8279534  29.1302339
  24.9130012 118.0304997  26.5249988  24.9570012 118.8904997  26.1069988
  24.4560012 117.4784997  25.8909988  24.8572185 118.0735799  26.3820299
  32.6360012 118.1614997  24.9259988  33.2820012 117.8324997  25.5509988
  33.1460012 118.6794997  24.3029988  32.7934264 118.1864611  24.9273862
  21.5340012 120.4274997  27.2869988  22.1870012 119.8774997  27.7189988
  21.5580012 120.1534997  26.3699988  21.6266683 120.3151466  27.2222123
  26.6900012 121.9774997  26.5019988  27.3060012 121.4514997  27.0119988
  26.1040012 121.3374997  26.0989988  26.6950810 121.8189208  26.5173173
  37.6720012 118.6144997  32.0219988  36.9840012 119.2724997  31.9259988
  37.6880012 118.4174997  32.9579988  37.5798525 118.6780462  32.1354808
  23.7240012 116.9484997  30.5989988  23.5050012 117.4784997  29.8329988
  23.0560012 117.1754997  31.2459988  23.6037600 117.0516906  30.5816379
  31.0930012 126.4484997  24.1429988  30.7970012 126.1264997  23.2919988
  30.7680012 127.3484997  24.1839988  31.0086371 126.5260215  24.0321801
  26.2930012 124.6244997  30.8859988  25.5530012 125.2224997  30.9899988
  27.0070012 125.1784997  30.5709988  26.2882237 124.7812831  30.8576465
  34.4000012 117.4524997  26.9059988  34.1840012 116.6864997  27.4389988
  35.0550012 117.9244997  27.4189988  34.4590632 117.4115889  27.0482861
  23.3170012 118.8404997  28.5509988  23.9310012 119.4734997  28.9249988
  23.8290012 118.3684997  27.8949988  23.4702296 118.8632370  28.5134252
  24.7000012 126.5884997  31.6739988  24.6950012 127.4684997  31.2959988
  23.8470012 126.5054997  32.0989988  24.5839464 126.6976117  31.6797907
  20.8210012 126.2594997  22.4559988  20.5490012 126.4884997  21.5669988
  20.8670012 127.0974997  22.9159988  20.7900094 126.4041213  22.3965697
  34.4460012 127.8814997  29.1679988  33.5050012 127.9394997  29.3299988
  34.7230012 128.7874997  29.0309988  34.3544679 128.0119443  29.1716815
  34.7470012 116.1674997  30.5859988  34.0110012 116.7784997  30.5479988
  35.4300012 116.5824997  30.0589988  34.7386541 116.3071374  30.5095832
  27.7500012 114.2544997  28.0519988  27.6330012 113.3054997  27.9969988
  26.8950012 114.5864997  28.3249988  27.6183733 114.1695409  28.0813897
  32.6980012 129.6624997  25.7939988  33.1240012 128.9554997  25.3089988
  33.0150012 130.4634997  25.3769988  32.7991019 129.6740994  25.6713130
  33.8580012 127.5634997  24.3019988  33.6000012 126.8734997  23.6909988
  33.9290012 127.1204997  25.1479988  33.8322856 127.4092124  24.3326885
  35.5440012 126.1294997  32.7799988  35.6840012 125.5384997  32.0399988
  35.7110012 127.0024997  32.4229988  35.5856778 126.1666426  32.6306965
  30.0170012 123.0914997  22.5519988  29.3050012 123.6264997  22.1999988
  30.7080012 123.1474997  21.8919988  30.0130132 123.1722543  22.4146289
  30.0700012 121.5494997  19.5909988  30.7710012 121.5714997  20.2419988
  30.3730012 120.9214997  18.9349988  30.2067830 121.4676566  19.5913711
  37.3860012 122.4694997  30.8459988  36.7330012 123.1644997  30.9349988
  37.8510012 122.6794997  30.0359988  37.3595390 122.5929425  30.7486883
  33.4220012 123.3014997  23.5039988  32.6900012 123.5294997  24.0769988
  33.8700012 122.5874997  23.9589988  33.3823095 123.2362571  23.6439119
  33.3200012 121.4754997  32.5709988  33.4000012 122.2384997  33.1429988
  32.7180012 121.7544997  31.8809988  33.2495756 121.6177134  32.5560589
  25.0680012 123.9314997  25.3859988  24.7370012 123.5614997  24.5679988
  25.6560012 123.2614997  25.7329988  25.1021873 123.7901156  25.3208102
  26.4340012 127.3594997  28.0679988  26.3400012 126.7814997  27.3109988
  27.1640012 126.9884997  28.5639988  26.5197981 127.2302390  28.0314165
  25.4340012 122.7004997  29.0199988  26.0000012 122.8214997  28.2569988
  25.7530012 123.3374997  29.6589988  25.5545786 122.8031884  29.0020040
  31.7430012 128.2034997  29.7539988  31.5030012 128.8654997  30.4019988
  31.5450012 127.3694997  30.1789988  31.6833808 128.1813134  29.9001524
  26.3140012 127.0994997  33.7369988  26.0030012 127.8814997  34.1919988
  25.6640012 126.9464997  33.0509988  26.1835558 127.1859105  33.7065871
  32.2930012 122.4634997  21.1889988  32.8730012 122.6134997  21.9359988
  32.7070012 122.9344997  20.4659988  32.4282830 122.5476841  21.1934134
  23.2340012 123.2974997  32.9659988  23.3050012 123.9484997  33.6639988
  22.3440012 123.4004997  32.6309988  23.1233117 123.4005936  33.0162700
  30.0200012 129.2004997  24.6239988  30.4940012 129.4954997  25.4019988
  29.4570012 129.9384997  24.3909988  30.0087653 129.3406932  24.6990136
  24.5540012 129.1714997  34.4999988  24.5610012 129.0354997  33.5529988
  23.6380012 129.0534997  34.7519988  24.4311714 129.1369430  34.4044666
  35.9920012 114.2134997  21.0019988  35.0920012 114.3524997  21.2969988
  36.2440012 115.0444997  20.5999988  35.9028702 114.3449074  20.9880205
  24.0580012 123.0014997  22.9759988  23.7660012 123.7694997  22.4849988
  23.3840012 122.3414997  22.8129988  23.9269081 123.0174406  22.8867340
  37.1810012 128.5794997  19.3779988  37.2550012 129.5184997  19.5489988
  38.0870012 128.2744997  19.3219988  37.3135100 128.6666722  19.3938119
  20.1510012 125.3644997  31.7909988  19.6500012 125.3364997  30.9759988
  20.1560012 124.4584997  32.0999988  20.0831526 125.2382278  31.7212872
  19.9010012 128.1444997  28.6749988  20.8470012 128.0004997  28.6559988
  19.7890012 128.9284997  29.2119988  20.0152727 128.2308046  28.7450072
  38.0990012 128.8104997  34.3569988  38.0500012 127.8554997  34.3199988
  37.2720012 129.0784997  34.7579988  37.9804940 128.7158998  34.4061375
  29.0780012 128.3844997  33.2329988  29.1650012 129.2104997  33.7079988
  28.2140012 128.0544997  33.4819988  28.9731964 128.4529878  33.3316549
  29.4920012 132.1564997  23.0389988  29.4170012 132.0354997  22.0929988
  29.5250012 133.1064997  23.1579988  29.4861848 132.2682500  22.9254834
  23.1450012 130.9454997  24.8199988  23.2980012 130.5974997  25.6989988
  22.2950012 130.5894997  24.5649988  23.0508962 130.8496650  24.9058340
  32.5940012 131.3104997  20.0409988  32.9690012 130.5664997  19.5709988
  32.5980012 131.0404997  20.9599988  32.6458915 131.1721486  20.1007824
  32.2630012 131.2364997  22.7909988  31.3270012 131.3364997  22.9689988
  32.5430012 130.5274997  23.3689988  32.1728255 131.1542711  22.8935391
  35.2510012 120.3034997  34.8369988  34.8440012 120.7844997  34.1159988
  35.2920012 119.3984997  34.5289988  35.2008437 120.2469374  34.6966683
  22.4000012 126.6874997  32.8339988  22.6160012 126.3264997  33.6929988
  21.5450012 126.3134997  32.6239988  22.3139292 126.5874111  32.9233386
  25.0190012 115.1574997  28.8289988  24.1570012 115.0704997  28.4219988
  24.9960012 116.0134997  29.2569988  24.8980330 115.2612765  28.8311863
  29.6820012 114.8794997  32.2039988  30.1020012 114.4644997  32.9569988
  28.7490012 114.7014997  32.3209988  29.6133644 114.7985900  32.3229539
  33.0080012 118.6354997  33.0569988  32.4940012 118.5094997  33.8549988
  32.8530012 119.5474997  32.8129988  32.9166852 118.7416132  33.1332158
  33.7710012 123.4964997  18.8189988  33.8130012 123.2734997  17.8889988
  34.6200012 123.8954997  19.0089988  33.8915396 123.5199155  18.7173627
  29.3430012 117.3724997  19.4889988  29.0900012 117.3914997  20.4119988
  29.0870012 116.5004997  19.1879988  29.2737790 117.2572437  19.5746263
  25.1100012 120.1234997  29.9239988  24.4680012 120.0824997  30.6329988
  25.1470012 121.0494997  29.6869988  25.0271324 120.2431559  29.9889824
  25.1070012 120.3444997  24.8359988  24.2140012 120.0034997  24.7779988
  25.5570012 119.9674997  24.0809988  25.0457305 120.2468484  24.7259177
  30.6420012 120.7604997  23.6529988  30.2330012 121.5754997  23.3619988
  31.3630012 120.6204997  23.0389988  30.6834537 120.8532018  23.5301342
  29.7440012 120.9354997  35.1409988  29.1820012 120.2314997  35.4619988
  30.5710012 120.8154997  35.6089988  29.7787095 120.8227883  35.2482330
  31.6470012 120.2064997  26.4669988  31.4520012 120.8114997  25.7519988
  31.8280012 119.3724997  26.0329988  31.6447614 120.1766300  26.3104405
  22.8600012 120.4434997  31.7909988  22.8220012 120.8434997  32.6599988
  22.3690012 119.6264997  31.8819988  22.7884684 120.3878069  31.9221059
  26.2260012 117.8174997  18.5899988  25.7950012 117.3724997  19.3199988
  25.5080012 118.1894997  18.0779988  26.0699438 117.8068940  18.6206799
  19.4680012 117.5594997  25.6419988  20.0990012 117.5304997  26.3609988
  19.9170012 117.1344997  24.9119988  19.6150774 117.4980492  25.6416553
  20.7420012 118.3054997  21.0659988  21.2160012 118.8964997  20.4809988
  20.0250012 118.8364997  21.4129988  20.7099341 118.4580867  21.0328836
  30.9110012 121.8444997  31.1389988  31.2340012 121.2134997  30.4959988
  30.4710012 121.3094997  31.7989988  30.8956895 121.6858441  31.1402850
  27.6880012 117.7714997  25.9229988  26.7770012 117.8284997  26.2109988
  28.1940012 117.7114997  26.7329988  27.6315413 117.7711985  26.0720622
  22.5170012 119.4004997  24.7489988  21.6270012 119.5004997  24.4089988
  22.8130012 118.5584997  24.4029988  22.4352823 119.3003545  24.6557213
  26.1700012 119.4004997  22.4059988  27.1010012 119.5294997  22.5839988
  25.9550012 120.0704997  21.7559988  26.2684247 119.5086565  22.3425747
  32.0930012 117.0064997  29.1869988  31.4170012 117.1374997  29.8509988
  31.6080012 116.8514997  28.3769988  31.9347145 117.0034905  29.1684517
  24.8440012 120.5954997  19.9729988  24.3010012 120.2154997  19.2809988
  25.6770012 120.7894997  19.5439988  24.8824399 120.5698124  19.8204526
  35.3810012 132.6784997  35.4639988  35.5810012 133.1024997  34.6289988
  36.0360012 133.0214997  36.0709988  35.4970051 132.7829648  35.4317836
  22.9790012 125.1524997  35.0719988  23.7110012 125.4064997  35.6329988
  22.1990012 125.3564997  35.5869988  22.9738232 125.2149177  35.2185760
  29.0080012 120.5594997  27.8099988  29.5730012 120.0124997  27.2629988
  28.8610012 120.0374997  28.5979988  29.0652918 120.4142024  27.8418454
  24.0100012 116.6954997  24.2279988  23.6930012 115.7934997  24.1929988
  24.7920012 116.6974997  23.6749988  24.0722284 116.5721628  24.1484783
  27.6350012 118.9474997  30.2239988  26.7990012 119.4014997  30.3339988
  28.1590012 119.2234997  30.9759988  27.5914414 119.0469376  30.3407136
  28.1790012 125.1604997  21.9079988  27.4340012 124.6534997  21.5859988
  28.0450012 125.2094997  22.8549988  28.0588776 125.0976940  21.9918647
  35.3290012 124.2934997  30.6949988  35.9710012 124.7504997  30.1509988
  34.4990012 124.4064997  30.2319988  35.3045963 124.3712704  30.5580177
  32.0770012 117.9744997  20.1079988  31.1380012 118.0864997  19.9559988
  32.3740012 118.8314997  20.4139988  31.9887666 118.1056443  20.1285768
  29.6980012 125.3444997  33.1449988  29.3530012 124.9634997  33.9519988
  29.4980012 126.2784997  33.2169988  29.6238061 125.4185228  33.2650961
  32.7950012 119.8414997  21.7679988  33.6870012 119.7044997  22.0869988
  32.8520012 120.6324997  21.2319988  32.9246285 119.9296660  21.7391690
  23.3040012 124.4554997  27.6779988  24.0490012 124.4534997  27.0769988
  23.3820012 123.6324997  28.1599988  23.4165518 124.3439315  27.6608929
  30.3050012 126.6194997  20.9339988  30.0090012 127.4454997  21.3149988
  29.6020012 125.9994997  21.1299988  30.1694914 126.6488199  21.0126443
  20.3120012 122.9164997  32.9929988  20.5350012 122.4984997  33.8249988
  19.7100012 122.3034997  32.5699988  20.2611759 122.7764668  33.0497022
  27.3280012 122.4334997  35.2059988  27.0320012 122.2674997  34.3109988
  28.2600012 122.2134997  35.1949988  27.4134166 122.3810640  35.0820536
  31.9490012 127.8064997  33.0959988  31.0480012 127.9894997  32.8279988
  31.9830012 128.0654997  34.0169988  31.8303041 127.8665512  33.1838197
  37.6800012 120.0514997  21.4629988  37.1260012 119.6554997  20.7909988
  37.7800012 120.9614997  21.1849988  37.6177059 120.1203586  21.3334401
  37.6430012 125.8514997  34.2999988  36.7920012 126.0894997  33.9329988
  38.2340012 125.8344997  33.5469988  37.6062487 125.8818258  34.1478893
  35.9750012 128.8374997  21.9279988  35.6020012 128.0114997  22.2369988
  36.2530012 128.6544997  21.0309988  35.9615630 128.6997303  21.8489626
  33.1360012 123.6454997  28.9489988  32.2070012 123.4134997  28.9219988
  33.5870012 122.8684997  28.6189988  33.0699216 123.5087238  28.9006917
  25.6790012 127.9734997  25.0819988  26.2060012 128.7464997  24.8819988
  24.7990012 128.1984997  24.7809988  25.6321773 128.1098005  25.0139010
  21.4340012 122.8354997  19.6689988  22.0500012 123.4624997  20.0489988
  20.5720012 123.1514997  19.9409988  21.4017698 122.9639430  19.7577183
  27.1060012 125.6364997  24.6589988  26.8650012 126.5614997  24.6999988
  26.3650012 125.1774997  25.0549988  26.9728409 125.7011421  24.7181377
  27.6210012 129.7854997  30.9739988  27.9830012 130.6404997  30.7399988
  28.1520012 129.4934997  31.7139988  27.7424473 129.8631060  31.0420855
  25.7890012 130.6584997  24.2039988  24.8390012 130.7634997  24.2549988
  26.1410012 131.4784997  24.5489988  25.7064203 130.7838314  24.2576650
  31.1650012 125.8844997  30.6739988  30.7390012 125.6574997  31.5009988
  31.7450012 125.1464997  30.4919988  31.1851868 125.7535299  30.7625830
  33.3680012 126.8134997  19.7479988  33.7210012 126.4334997  20.5529988
  32.4190012 126.7204997  19.8349988  33.2880441 126.7489596  19.8698559
  33.8230012 130.4364997  33.1439988  33.2220012 129.8814997  32.6479988
  34.1050012 131.1034997  32.5179988  33.7788519 130.4506841  32.9914952
  37.8710012 131.2934997  19.9489988  38.6150012 131.8794997  19.8089988
  37.1770012 131.8614997  20.2829988  37.8790292 131.4505582  19.9749961
  21.9460012 117.6694997  32.5509988  21.0530012 118.0084997  32.4829988
  21.8470012 116.8144997  32.9689988  21.8104164 117.6002588  32.5982235
  34.2340012 125.4864997  21.9749988  33.9560012 124.7584997  22.5309988
  35.1610012 125.6054997  22.1799988  34.3213124 125.4028802  22.0788845
  21.5970012 129.4744997  30.9859988  21.8140012 128.5424997  30.9549988
  21.8430012 129.7484997  31.8689988  21.6599549 129.3840636  31.1011763
  27.4590012 127.9254997  18.1949988  27.6980012 127.1774997  17.6479988
  27.1900012 127.5374997  19.0279988  27.4553675 127.7706638  18.2326865
  26.3960012 127.4954997  20.6519988  26.5420012 126.9754997  21.4419988
  26.3930012 128.4024997  20.9579988  26.4155989 127.5468853  20.8016088
  22.8490012 124.7484997  21.1619988  22.1630012 125.1004997  21.7289988
  23.3710012 125.5114997  20.9149988  22.8256852 124.8998578  21.2062118
  30.6800012 117.4104997  31.4409988  31.3790012 117.4844997  32.0909988
  30.2990012 116.5464997  31.5949988  30.7241767 117.3037624  31.5508322
  31.4650012 117.0624997  22.5379988  31.6850012 117.5344997  21.7349988
  32.0230012 117.4574997  23.2079988  31.5704968 117.1804285  22.5187331
  29.1330012 129.1934997  21.4009988  28.3170012 129.6904997  21.4529988
  29.6630012 129.6684997  20.7609988  29.0929161 129.3257722  21.3215956
  28.6650012 118.7904997  23.3729988  29.4770012 119.2954997  23.4189988
  28.4200012 118.6454997  24.2869988  28.7430520 118.8400375  23.5028517
  29.2000012 119.7764997  32.5579988  29.3190012 120.3504997  33.3149988
  29.8560012 119.0884997  32.6719988  29.3049757 119.7621079  32.6770825
  29.5480012 115.8714997  24.3109988  29.2020012 116.4894997  24.9559988
  30.2070012 116.3724997  23.8299988  29.5897826 116.0235802  24.3340971
  26.4720012 130.2374997  21.3829988  26.6320012 131.0364997  20.8819988
  26.2740012 130.5434997  22.2679988  26.4671649 130.3884469  21.4339815
  25.2060012 116.9344997  20.9979988  25.1230012 117.8234997  21.3449988
  26.0960012 116.6694997  21.2299988  25.3149469 117.0201430  21.0767626
  35.4050012 117.6834997  33.3929988  34.4880012 117.9464997  33.3049988
  35.7400012 117.6804997  32.4959988  35.3249900 117.7190224  33.2597919
  34.0070012 121.4344997  27.4879988  33.2090012 121.0194997  27.1599988
  34.4520012 120.7434997  27.9789988  33.9579885 121.2843543  27.5094889
  23.4650012 127.3624997  20.0589988  24.0570012 128.0614997  20.3349988
  23.9240012 126.9294997  19.3389988  23.6081142 127.3997049  19.9994830
  21.7810012 120.0264997  19.1749988  21.7360012 120.9654997  19.3529988
  20.8930012 119.7904997  18.9049988  21.6548574 120.1231892  19.1628912
  35.0930012 130.6904997  29.1109988  34.9380012 131.3684997  28.4539988
  36.0260012 130.7624997  29.3139988  35.1978500 130.7930170  29.0485119
  22.5890012 114.8084997  27.8479988  22.3600012 114.8674997  26.9199988
  22.1460012 114.0164997  28.1539988  22.4978530 114.7095753  27.7624786
  21.5190012 128.7484997  24.0079988  20.6870012 129.2214997  24.0359988
  22.0650012 129.2584997  23.4099988  21.4789739 128.8821871  23.9309716
  20.8070012 131.3614997  35.3379988  21.3480012 131.1444997  36.0979988
  20.3260012 130.5554997  35.1489988  20.8159345 131.2229514  35.4163076
  25.4050012 130.2804997  36.9589988  26.1720012 129.8214997  37.2999988
  25.3830012 130.0544997  36.0289988  25.5071434 130.1870409  36.8800043
  29.4970012 129.7884997  18.3339988  28.8530012 129.1574997  18.6549988
  30.2590012 129.2574997  18.1019988  29.5118077 129.6302920  18.3466011
  31.9820012 128.6604997  35.6879988  31.6310012 127.8044997  35.9309988
  32.7080012 128.8034997  36.2949988  32.0320769 128.5625636  35.8033619
  34.1010012 129.6054997  18.5679988  34.3840012 128.8114997  19.0199988
  34.8410012 129.8384997  18.0069988  34.2397486 129.5282803  18.5540698
  20.7140012 125.1714997  36.2929988  20.8580012 124.2694997  36.0059988
  19.9420012 125.4574997  35.8049988  20.6293322 125.0868261  36.1877881
  25.0560012 125.5154997  18.4249988  25.1200012 124.7214997  18.9559988
  25.7090012 125.3964997  17.7349988  25.1530241 125.3907148  18.4044317
  27.3700012 125.1414997  35.7249988  27.0410012 125.4124997  34.8679988
  27.5220012 124.2004997  35.6379988  27.3454809 125.0513862  35.5958244
  30.4080012 126.5624997  18.1609988  30.1390012 126.7424997  19.0619988
  30.2020012 125.6364997  18.0299988  30.3433825 126.4620152  18.2665214
  33.1040012 125.0574997  33.1089988  33.8500012 125.6454997  32.9889988
  32.3470012 125.6394997  33.1719988  33.1037554 125.2167011  33.1010907
  21.5470012 122.3714997  35.7129988  21.9550012 121.5144997  35.5919988
  21.2870012 122.3864997  36.6339988  21.5677568 122.2560807  35.8209588
  26.2050012 123.4874997  20.7309988  25.7450012 123.0034997  21.4169988
  26.4600012 122.8194997  20.0949988  26.1764902 123.3308731  20.7389334
  25.4940012 121.3804997  33.0869988  24.8760012 122.0554997  33.3669988
  25.8380012 121.7014997  32.2539988  25.4559615 121.5162721  33.0126581
  27.2760012 121.7304997  18.9929988  27.0960012 121.5764997  18.0659988
  28.2260012 121.8384997  19.0379988  27.3797776 121.7240175  18.8721843
  30.5140012 123.8524997  36.3639988  31.4670012 123.9354997  36.3369988
  30.3530012 123.1404997  36.9839988  30.6226426 123.7676746  36.4440579
  36.6660012 124.0854997  18.4389988  36.3920012 123.6604997  17.6259988
  36.7050012 125.0164997  18.2219988  36.6337699 124.1532484  18.2983610
  25.8330012 118.7354997  34.1689988  25.9830012 118.0064997  33.5669988
  25.8360012 119.5124997  33.6099988  25.8539302 118.7407851  34.0110692
  26.2460012 117.1054997  31.6619988  26.7820012 117.5564997  31.0099988
  25.3940012 116.9974997  31.2389988  26.2042178 117.1526390  31.5155756
  27.8280012 122.5444997  31.9009988  28.5780012 122.3884997  31.3279988
  27.4890012 123.3964997  31.6259988  27.8848921 122.6382968  31.7853561
  32.2430012 120.3594997  36.9299988  32.4360012 119.4284997  36.8179988
  33.1010012 120.7844997  36.9199988  32.3853020 120.2896389  36.9133361
  33.5600012 123.1484997  35.0069988  33.2790012 123.8574997  34.4299988
  34.5030012 123.0754997  34.8559988  33.6489027 123.2357646  34.9075551
  24.3120012 119.9334997  36.0809988  23.5450012 119.4014997  35.8709988
  24.9910012 119.6234997  35.4809988  24.2987022 119.8187506  35.9711648
  27.0520012 114.5614997  32.0929988  26.9530012 115.5084997  31.9879988
  26.3090012 114.1894997  31.6179988  26.9380563 114.6405902  32.0144560
  28.3160012 118.8834997  35.6569988  28.0800012 118.6634997  36.5589988
  27.5320012 118.6764997  35.1469988  28.1778628 118.8254760  35.7113932
  31.0310012 118.0104997  34.7329988  30.0840012 118.0424997  34.8649988
  31.3440012 117.3854997  35.3859988  30.9435475 117.9303207  34.8394455
  32.6650012 116.6444997  36.7379988  32.5690012 115.6924997  36.7319988
  32.3440012 116.9134997  37.5979988  32.6084070 116.5504035  36.8535441
  22.4920012 117.8544997  35.7849988  22.7040012 117.1474997  35.1749988
  22.3810012 117.4164997  36.6289988  22.5059721 117.6987084  35.8156843
  27.2730012 113.8554997  34.7649988  27.9850012 113.2154997  34.7509988
  27.1720012 114.1224997  33.8509988  27.3567939 113.8039938  34.6395650
  27.6270012 115.5384997  36.8179988  27.4950012 115.0624997  35.9979988
  27.0280012 116.2824997  36.7629988  27.5279071 115.5739618  36.6982886
  27.1730012 132.4214997  19.9949988  28.1060012 132.5794997  20.1379988
  26.9090012 133.0964997  19.3699988  27.2649510 132.5343611  19.9300741
  20.7420012 127.0574997  19.4769988  21.6560012 127.1364997  19.7509988
  20.7490012 126.3704997  18.8109988  20.8681131 126.9753961  19.4244393
  19.3910012 132.4504997  24.5549988  18.7440012 131.9884997  24.0219988
  19.7450012 131.7784997  25.1369988  19.3503849 132.2964723  24.5607959
  20.2610012 130.5314997  26.3589988  19.9260012 129.6514997  26.5309988
  20.4830012 130.8764997  27.2239988  20.2451783 130.4577500  26.4994208
  37.8090012 131.3404997  29.3399988  37.7880012 131.5254997  30.2789988
  38.5000012 131.9094997  28.9989988  37.8994618 131.4426606  29.4223864
  37.3730012 130.9084997  32.2619988  36.8850012 130.1724997  31.8909988
  37.9220012 130.5144997  32.9399988  37.3804872 130.7546249  32.3029160
  35.8230012 126.6974997  36.8999988  34.9570012 126.5924997  37.2939988
  36.2000012 127.4564997  37.3459988  35.7553308 126.7856900  37.0142393
  37.1240012 124.9544997  22.4139988  37.9740012 125.3754997  22.5409988
  37.1300012 124.2144997  23.0209988  37.2411372 124.9120803  22.5134344
  37.5190012 123.0074997  24.2379988  36.7920012 122.5284997  24.6349988
  38.1000012 123.2134997  24.9699988  37.4979375 122.9697090  24.3914129
  37.2780012 125.7924997  29.1849988  38.1110012 125.4144997  28.9049988
  37.3900012 126.7354997  29.0659988  37.4072647 125.8682218  29.1305487
  35.7640012 128.6704997  31.4919988  35.1170012 128.9954997  32.1179988
  35.2470012 128.2304997  30.8179988  35.6054029 128.6555004  31.4865827
  37.7870012 122.9084997  20.6289988  37.2650012 123.2654997  19.9099988
  37.7540012 123.5834997  21.3069988  37.7111634 123.0485413  20.6223145
  36.1360012 120.1484997  19.1799988  36.2320012 120.8154997  18.4989988
  35.9960012 119.3324997  18.6979988  36.1302135 120.1294500  19.0218491
  35.3050012 121.5284997  24.8009988  35.1550012 120.5834997  24.7799988
  34.9520012 121.8094997  25.6439988  35.2366625 121.4370441  24.9122346
  20.3410012 123.6064997  28.8109988  20.5250012 123.5244997  27.8749988
  21.1900012 123.4824997  29.2349988  20.4810139 123.5785003  28.7401455
  36.1620012 123.4984997  34.4389988  36.7450012 122.7644997  34.6309988
  36.7260012 124.2704997  34.4859988  36.3179769 123.5024227  34.4716159
  37.6580012 121.4014997  35.1239988  36.7950012 121.0224997  34.9579988
  38.2630012 120.6624997  35.0499988  37.6215979 121.2498023  35.0912817
  35.3830012 117.5564997  18.2969988  35.9940012 117.1854997  18.9339988
  34.5470012 117.1354997  18.4929988  35.3535032 117.4487554  18.4107035
  35.0160012 119.1114997  23.2629988  35.2960012 118.2044997  23.3869988
  35.7750012 119.5454997  22.8739988  35.1569277 119.0460942  23.2273682
  35.6280012 119.6924997  28.6989988  36.5610012 119.9044997  28.6649988
  35.3930012 119.7944997  29.6209988  35.7238036 119.7352769  28.8189976
  35.6570012 120.4294997  31.4749988  34.8140012 120.6974997  31.8409988
  36.0990012 121.2514997  31.2639988  35.6014158 120.5773291  31.4965491
  19.9380012 118.8774997  34.9519988  20.8580012 118.7554997  35.1879988
  19.4890012 118.1274997  35.3409988  20.0031580 118.7593727  35.0369006
  37.9400012 114.4094997  36.8279988  38.2900012 113.7554997  36.2229988
  38.0870012 115.2464997  36.3889988  38.0078419 114.4331591  36.6857118
  35.6290012 116.3744997  23.3109988  35.8120012 115.9254997  24.1369988
  35.0300012 115.7894997  22.8479988  35.5730202 116.2339975  23.3613275
  21.1590012 117.1894997  27.8429988  21.6050012 116.3974997  28.1449988
  21.6260012 117.9054997  28.2739988  21.2830172 117.1780624  27.9424820
  19.4630012 120.1884997  28.9119988  19.9550012 119.9674997  28.1209988
  19.8260012 121.0294997  29.1929988  19.5793126 120.2718357  28.8417531
  37.4600012 116.5184997  35.1779988  36.5420012 116.7894997  35.1419988
  37.5830012 115.9834997  34.3929988  37.3511066 116.4832892  35.0670487
  37.4960012 116.4414997  19.8389988  37.9080012 115.7204997  19.3639988
  38.1780012 117.1114997  19.8979988  37.6445885 116.4332368  19.7818915
  19.7770012 116.4464997  22.9659988  18.8520012 116.6554997  22.8369988
  20.2310012 116.9304997  22.2769988  19.7117368 116.5405993  22.8551226
  34.5480012 131.4304997  24.9119988  35.2000012 131.0834997  24.3039988
  35.0580012 131.9194997  25.5579988  34.7062637 131.4490597  24.9160236
  19.7410012 115.1844997  31.3109988  19.0760012 114.9384997  31.9539988
  19.2980012 115.8064997  30.7329988  19.5900956 115.2348632  31.3209352
  21.9330012 128.3594997  35.4549988  21.1120012 128.5344997  34.9949988
  21.6800012 128.2864997  36.3759988  21.7866164 128.3735622  35.5164923
  24.8870012 129.3344997  31.7139988  24.4620012 130.1434997  31.4309988
  25.7910012 129.4194997  31.4119988  24.9510271 129.4568469  31.6343776
  29.1980012 130.7334997  34.6729988  29.3830012 130.3994997  35.5509988
  30.0440012 131.0424997  34.3509988  29.3377539 130.7296047  34.7495605
  31.5430012 132.0194997  33.9169988  32.2200012 131.3864997  33.6769988
  31.8650012 132.4204997  34.7239988  31.6791637 131.9871154  33.9932793
  36.4600012 114.6084997  32.9969988  35.6480012 114.9334997  32.6089988
  36.6930012 113.8484997  32.4639988  36.3803423 114.5502436  32.8718253
  22.2890012 132.5904997  31.7609988  21.5680012 133.0304997  31.3099988
  21.9230012 132.3394997  32.6099988  22.1409804 132.6167698  31.8139840
  24.7560012 132.1904997  30.7909988  23.8910012 132.2624997  31.1949988
  24.7010012 132.7374997  30.0069988  24.6302085 132.2742685  30.7403362
  29.4660012 132.0784997  29.9659988  29.0100012 132.6074997  29.3119988
  29.6290012 132.6814997  30.6919988  29.4255585 132.2324468  29.9745062
  31.7940012 130.9564997  30.9109988  30.8890012 131.1214997  30.6459988
  32.2230012 131.8094997  30.8459988  31.7280799 131.0944483  30.8659182
  34.3980012 132.5264997  31.2059988  34.2160012 133.4424997  30.9959988
  34.5750012 132.1164997  30.3599988  34.3970210 132.5964822  31.0627885
  21.7030012 131.2134997  28.6709988  21.6850012 130.7884997  29.5289988
  22.5080012 130.8954997  28.2629988  21.8093875 131.1123812  28.7331655
  23.8450012 129.9234997  27.3259988  23.6260012 129.0074997  27.4959988
  24.6690012 130.0634997  27.7919988  23.9264420 129.8170520  27.4122773
  26.3820012 130.3934997  28.1749988  26.5950012 129.5054997  27.8879988
  26.4460012 130.3594997  29.1289988  26.4198231 130.2673102  28.2647397
  29.8900012 116.0574997  27.3189988  29.2160012 115.4284997  27.5749988
  30.4540012 115.5734997  26.7159988  29.8739230 115.9058744  27.2725340
  35.0330012 114.1654997  27.4319988  35.6370012 114.7124997  26.9299988
  34.1630012 114.4844997  27.1919988  34.9981241 114.2835806  27.3307654
  36.7600012 115.3034997  25.7649988  37.3720012 114.7894997  25.2389988
  37.1420012 116.1814997  25.7889988  36.8954540 115.3517140  25.6961830
  22.2170012 114.6914997  25.1409988  21.4400012 114.4574997  24.6339988
  22.7470012 113.8944997  25.1499988  22.1822330 114.5516988  25.0727742
  21.0530012 114.4894997  20.9449988  21.4920012 115.1004997  20.3529988
  20.4200012 115.0274997  21.4189988  21.0274514 114.6459257  20.9280930
  26.7960012 114.6184997  24.9549988  27.6710012 115.0064997  24.9249988
  26.6600012 114.4034997  25.8769988  26.8973695 114.6425184  25.0756440
  32.3530012 114.6484997  26.6039988  32.4290012 114.7434997  25.6539988
  32.0780012 113.7404997  26.7329988  32.3262321 114.5387867  26.4915079
  33.7060012 114.6744997  22.2959988  33.0040012 115.2894997  22.0869988
  33.2620012 113.8364997  22.4269988  33.5496330 114.6455783  22.2850328
  20.9540012 130.4374997  21.8429988  20.2690012 130.3994997  21.1749988
  20.9580012 131.3504997  22.1309988  20.8608193 130.5557016  21.7905284
  22.9140012 116.4054997  19.3869988  23.4060012 115.7754997  18.8599988
  23.5380012 116.7014997  20.0509988  23.0655446 116.3593199  19.4045980
  27.9400012 116.6984997  21.8439988  28.1180012 116.0524997  22.5269988
  27.8870012 117.5324997  22.3119988  27.9571829 116.7227985  22.0005940
  29.8190012 131.6474997  20.2399988  30.6850012 132.0134997  20.0619988
  29.5720012 131.2074997  19.4259988  29.9042392 131.6381756  20.1056289
  36.5280012 131.2104997  22.9189988  36.3330012 130.4624997  22.3539988
  36.4890012 131.9684997  22.3359988  36.4960380 131.2106099  22.7628384
  22.1750012 115.2054997  34.6589988  21.8090012 114.4404997  35.1019988
  23.0880012 115.2344997  34.9459988  22.2482790 115.1047224  34.7584070
  24.1480012 114.5564997  36.1949988  25.0460012 114.2824997  36.0099988
  23.7610012 113.8134997  36.6589988  24.2186612 114.4185914  36.2323643
  22.7720012 131.3574997  18.8679988  22.5050012 131.6444997  19.7409988
  23.5440012 130.8114997  19.0199988  22.8397488 131.3230294  19.0081050
  32.5690012 113.8884997  36.3769988  32.6460012 113.4624997  37.2309988
  33.4630012 113.9024997  36.0339988  32.7003428 113.8320879  36.4475310
  35.7450012 129.9614997  35.0689988  34.9630012 129.7754997  34.5499988
  35.6730012 130.8904997  35.2869988  35.6281777 130.0616492  35.0274048
  50.1510012 123.8474997  25.0999988  50.2400012 124.7914997  24.9679988
  49.5130012 123.5724997  24.4419988  50.0769081 123.9394830  24.9929614
  49.0840012 123.1024997  28.5189988  49.0460012 122.4564997  29.2239988
  48.7620012 122.6364997  27.7479988  49.0352333 122.9509408  28.5112978
  41.4530012 122.7174997  30.1119988  41.4940012 122.0914997  30.8349988
  42.1560012 123.3414997  30.2939988  41.5536363 122.7161196  30.2356044
  52.7900012 126.0414997  26.8199988  52.3500012 125.3214997  27.2709988
  52.7770012 126.7624997  27.4499988  52.7280226 126.0403731  26.9668494
  42.3760012 127.1674997  28.6469988  42.0070012 126.3654997  28.2769988
  43.3170012 126.9984997  28.6929988  42.4527289 127.0350153  28.6026316
  38.9860012 120.8274997  24.0399988  38.5390012 121.6734997  24.0209988
  38.4250012 120.2474997  23.5239988  38.8489900 120.8649916  23.9676801
  39.6970012 122.9894997  26.1659988  39.9100012 122.2194997  26.6929988
  40.4350012 123.0784997  25.5619988  39.8258496 122.8961394  26.1565300
  49.9020012 131.1464997  27.0329988  50.5220012 130.4694997  26.7589988
  49.6940012 130.9284997  27.9409988  49.9586904 131.0243870  27.1183365
  47.4740012 125.5354997  28.9249988  47.7780012 124.8494997  28.3299988
  48.1950012 125.6534997  29.5429988  47.6130671 125.4576304  28.9271816
  56.1370012 117.1364997  29.7859988  56.1860012 117.7464997  30.5219988
  56.5620012 117.5974997  29.0629988  56.2011824 117.2823741  29.7890205
  50.6150012 119.9294997  29.2529988  50.7570012 118.9834997  29.2729988
  50.5080012 120.1364997  28.3239988  50.6199864 119.8279534  29.1302339
  43.7690012 118.0304997  26.5249988  43.8130012 118.8904997  26.1069988
  43.3120012 117.4784997  25.8909988  43.7132185 118.0735799  26.3820299
  51.4920012 118.1614997  24.9259988  52.1380012 117.8324997  25.5509988
  52.0020012 118.6794997  24.3029988  51.6494264 118.1864611  24.9273862
  40.3900012 120.4274997  27.2869988  41.0430012 119.8774997  27.7189988
  40.4140012 120.1534997  26.3699988  40.4826683 120.3151466  27.2222123
  45.5460012 121.9774997  26.5019988  46.1620012 121.4514997  27.0119988
  44.9600012 121.3374997  26.0989988  45.5510810 121.8189208  26.5173173
  56.5280012 118.6144997  32.0219988  55.8400012 119.2724997  31.9259988
  56.5440012 118.4174997  32.9579988  56.4358525 118.6780462  32.1354808
  42.5800012 116.9484997  30.5989988  42.3610012 117.4784997  29.8329988
  41.9120012 117.1754997  31.2459988  42.4597600 117.0516906  30.5816379
  49.9490012 126.4484997  24.1429988  49.6530012 126.1264997  23.2919988
  49.6240012 127.3484997  24.1839988  49.8646371 126.5260215  24.0321801
  45.1490012 124.6244997  30.8859988  44.4090012 125.2224997  30.9899988
  45.8630012 125.1784997  30.5709988  45.1442237 124.7812831  30.8576465
  53.2560012 117.4524997  26.9059988  53.0400012 116.6864997  27.4389988
  53.9110012 117.9244997  27.4189988  53.3150632 117.4115889  27.0482861
  42.1730012 118.8404997  28.5509988  42.7870012 119.4734997  28.9249988
  42.6850012 118.3684997  27.8949988  42.3262296 118.8632370  28.5134252
  43.5560012 126.5884997  31.6739988  43.5510012 127.4684997  31.2959988
  42.7030012 126.5054997  32.0989988  43.4399464 126.6976117  31.6797907
  39.6770012 126.2594997  22.4559988  39.4050012 126.4884997  21.5669988
  39.7230012 127.0974997  22.9159988  39.6460094 126.4041213  22.3965697
  53.3020012 127.8814997  29.1679988  52.3610012 127.9394997  29.3299988
  53.5790012 128.7874997  29.0309988  53.2104679 128.0119443  29.1716815
  53.6030012 116.1674997  30.5859988  52.8670012 116.7784997  30.5479988
  54.2860012 116.5824997  30.0589988  53.5946541 116.3071374  30.5095832
  46.6060012 114.2544997  28.0519988  46.4890012 113.3054997  27.9969988
  45.7510012 114.5864997  28.3249988  46.4743733 114.1695409  28.0813897
  51.5540012 129.6624997  25.7939988  51.9800012 128.9554997  25.3089988
  51.8710012 130.4634997  25.3769988  51.6551019 129.6740994  25.6713130
  52.7140012 127.5634997  24.3019988  52.4560012 126.8734997  23.6909988
  52.7850012 127.1204997  25.1479988  52.6882856 127.4092124  24.3326885
  54.4000012 126.1294997  32.7799988  54.5400012 125.5384997  32.0399988
  54.5670012 127.0024997  32.4229988  54.4416778 126.1666426  32.6306965
  48.8730012 123.0914997  22.5519988  48.1610012 123.6264997  22.1999988
  49.5640012 123.1474997  21.8919988  48.8690132 123.1722543  22.4146289
  48.9260012 121.5494997  19.5909988  49.6270012 121.5714997  20.2419988
  49.2290012 120.9214997  18.9349988  49.0627830 121.4676566  19.5913711
  56.2420012 122.4694997  30.8459988  55.5890012 123.1644997  30.9349988
  56.7070012 122.6794997  30.0359988  56.2155390 122.5929425  30.7486883
  52.2780012 123.3014997  23.5039988  51.5460012 123.5294997  24.0769988
  52.7260012 122.5874997  23.9589988  52.2383095 123.2362571  23.6439119
  52.1760012 121.4754997  32.5709988  52.2560012 122.2384997  33.1429988
  51.5740012 121.7544997  31.8809988  52.1055756 121.6177134  32.5560589
  43.9240012 123.9314997  25.3859988  43.5930012 123.5614997  24.5679988
  44.5120012 123.2614997  25.7329988  43.9581873 123.7901156  25.3208102
  45.2900012 127.3594997  28.0679988  45.1960012 126.7814997  27.3109988
  46.0200012 126.9884997  28.5639988  45.3757981 127.2302390  28.0314165
  44.2900012 122.7004997  29.0199988  44.8560012 122.8214997  28.2569988
  44.6090012 123.3374997  29.6589988  44.4105786 122.8031884  29.0020040
  50.5990012 128.2034997  29.7539988  50.3590012 128.8654997  30.4019988
  50.4010012 127.3694997  30.1789988  50.5393808 128.1813134  29.9001524
  45.1700012 127.0994997  33.7369988  44.8590012 127.8814997  34.1919988
  44.5200012 126.9464997  33.0509988  45.0395558 127.1859105  33.7065871
  51.1490012 122.4634997  21.1889988  51.7290012 122.6134997  21.9359988
  51.5630012 122.9344997  20.4659988  51.2842830 122.5476841  21.1934134
  42.0900012 123.2974997  32.9659988  42.1610012 123.9484997  33.6639988
  41.2000012 123.4004997  32.6309988  41.9793117 123.4005936  33.0162700
  48.8760012 129.2004997  24.6239988  49.3500012 129.4954997  25.4019988
  48.3130012 129.9384997  24.3909988  48.8647653 129.3406932  24.6990136
  43.4100012 129.1714997  34.4999988  43.4170012 129.0354997  33.5529988
  42.4940012 129.0534997  34.7519988  43.2871714 129.1369430  34.4044666
  54.8480012 114.2134997  21.0019988  53.9480012 114.3524997  21.2969988
  55.1000012 115.0444997  20.5999988  54.7588702 114.3449074  20.9880205
  42.9140012 123.0014997  22.9759988  42.6220012 123.7694997  22.4849988
  42.2400012 122.3414997  22.8129988  42.7829081 123.0174406  22.8867340
  56.0370012 128.5794997  19.3779988  56.1110012 129.5184997  19.5489988
  56.9430012 128.2744997  19.3219988  56.1695100 128.6666722  19.3938119
  39.0070012 125.3644997  31.7909988  38.5060012 125.3364997  30.9759988
  39.0120012 124.4584997  32.0999988  38.9391526 125.2382278  31.7212872
  38.7570012 128.1444997  28.6749988  39.7030012 128.0004997  28.6559988
  38.6450012 128.9284997  29.2119988  38.8712727 128.2308046  28.7450072
  56.9550012 128.8104997  34.3569988  56.9060012 127.8554997  34.3199988
  56.1280012 129.0784997  34.7579988  56.8364940 128.7158998  34.4061375
  47.9340012 128.3844997  33.2329988  48.0210012 129.2104997  33.7079988
  47.0700012 128.0544997  33.4819988  47.8291964 128.4529878  33.3316549
  48.3480012 132.1564997  23.0389988  48.2730012 132.0354997  22.0929988
  48.3810012 133.1064997  23.1579988  48.3421848 132.2682500  22.9254834
  42.0010012 130.9454997  24.8199988  42.1540012 130.5974997  25.6989988
  41.1510012 130.5894997  24.5649988  41.9068962 130.8496650  24.9058340
  51.4500012 131.3104997  20.0409988  51.8250012 130.5664997  19.5709988
  51.4540012 131.0404997  20.9599988  51.5018915 131.1721486  20.1007824
  51.1190012 131.2364997  22.7909988  50.1830012 131.3364997  22.9689988
  51.3990012 130.5274997  23.3689988  51.0288255 131.1542711  22.8935391
  54.1070012 120.3034997  34.8369988  53.7000012 120.7844997  34.1159988
  54.1480012 119.3984997  34.5289988  54.0568437 120.2469374  34.6966683
  41.2560012 126.6874997  32.8339988  41.4720012 126.3264997  33.6929988
  40.4010012 126.3134997  32.6239988  41.1699292 126.5874111  32.9233386
  43.8750012 115.1574997  28.8289988  43.0130012 115.0704997  28.4219988
  43.8520012 116.0134997  29.2569988  43.7540330 115.2612765  28.8311863
  48.5380012 114.8794997  32.2039988  48.9580012 114.4644997  32.9569988
  47.6050012 114.7014997  32.3209988  48.4693644 114.7985900  32.3229539
  51.8640012 118.6354997  33.0569988  51.3500012 118.5094997  33.8549988
  51.7090012 119.5474997  32.8129988  51.7726852 118.7416132  33.1332158
  52.6270012 123.4964997  18.8189988  52.6690012 123.2734997  17.8889988
  53.4760012 123.8954997  19.0089988  52.7475396 123.5199155  18.7173627
  48.1990012 117.3724997  19.4889988  47.9460012 117.3914997  20.4119988
  47.9430012 116.5004997  19.1879988  48.1297790 117.2572437  19.5746263
  43.9660012 120.1234997  29.9239988  43.3240012 120.0824997  30.6329988
  44.0030012 121.0494997  29.6869988  43.8831324 120.2431559  29.9889824
  43.9630012 120.3444997  24.8359988  43.0700012 120.0034997  24.7779988
  44.4130012 119.9674997  24.0809988  43.9017305 120.2468484  24.7259177
  49.4980012 120.7604997  23.6529988  49.0890012 121.5754997  23.3619988
  50.2190012 120.6204997  23.0389988  49.5394537 120.8532018  23.5301342
  48.6000012 120.9354997  35.1409988  48.0380012 120.2314997  35.4619988
  49.4270012 120.8154997  35.6089988  48.6347095 120.8227883  35.2482330
  50.5030012 120.2064997  26.4669988  50.3080012 120.8114997  25.7519988
  50.6840012 119.3724997  26.0329988  50.5007614 120.1766300  26.3104405
  41.7160012 120.4434997  31.7909988  41.6780012 120.8434997  32.6599988
  41.2250012 119.6264997  31.8819988  41.6444684 120.3878069  31.9221059
  45.0820012 117.8174997  18.5899988  44.6510012 117.3724997  19.3199988
  44.3640012 118.1894997  18.0779988  44.9259438 117.8068940  18.6206799
  38.3240012 117.5594997  25.6419988  38.9550012 117.5304997  26.3609988
  38.7730012 117.1344997  24.9119988  38.4710774 117.4980492  25.6416553
  39.5980012 118.3054997  21.0659988  40.0720012 118.8964997  20.4809988
  38.8810012 118.8364997  21.4129988  39.5659341 118.4580867  21.0328836
  49.7670012 121.8444997  31.1389988  50.0900012 121.2134997  30.4959988
  49.3270012 121.3094997  31.7989988  49.7516895 121.6858440  31.1402850
  46.5440012 117.7714997  25.9229988  45.6330012 117.8284997  26.2109988
  47.0500012 117.7114997  26.7329988  46.4875413 117.7711985  26.0720622
  41.3730012 119.4004997  24.7489988  40.4830012 119.5004997  24.4089988
  41.6690012 118.5584997  24.4029988  41.2912823 119.3003545  24.6557213
  45.0260012 119.4004997  22.4059988  45.9570012 119.5294997  22.5839988
  44.8110012 120.0704997  21.7559988  45.1244247 119.5086565  22.3425747
  50.9490012 117.0064997  29.1869988  50.2730012 117.1374997  29.8509988
  50.4640012 116.8514997  28.3769988  50.7907145 117.0034905  29.1684517
  43.7000012 120.5954997  19.9729988  43.1570012 120.2154997  19.2809988
  44.5330012 120.7894997  19.5439988  43.7384399 120.5698124  19.8204526
  54.2370012 132.6784997  35.4639988  54.4370012 133.1024997  34.6289988
  54.8920012 133.0214997  36.0709988  54.3530051 132.7829648  35.4317836
  41.8350012 125.1524997  35.0719988  42.5670012 125.4064997  35.6329988
  41.0550012 125.3564997  35.5869988  41.8298232 125.2149177  35.2185760
  47.8640012 120.5594997  27.8099988  48.4290012 120.0124997  27.2629988
  47.7170012 120.0374997  28.5979988  47.9212918 120.4142024  27.8418454
  42.8660012 116.6954997  24.2279988  42.5490012 115.7934997  24.1929988
  43.6480012 116.6974997  23.6749988  42.9282284 116.5721628  24.1484783
  46.4910012 118.9474997  30.2239988  45.6550012 119.4014997  30.3339988
  47.0150012 119.2234997  30.9759988  46.4474414 119.0469376  30.3407136
  47.0350012 125.1604997  21.9079988  46.2900012 124.6534997  21.5859988
  46.9010012 125.2094997  22.8549988  46.9148776 125.0976940  21.9918647
  54.1850012 124.2934997  30.6949988  54.8270012 124.7504997  30.1509988
  53.3550012 124.4064997  30.2319988  54.1605963 124.3712704  30.5580177
  50.9330012 117.9744997  20.1079988  49.9940012 118.0864997  19.9559988
  51.2300012 118.8314997  20.4139988  50.8447666 118.1056443  20.1285768
  48.5540012 125.3444997  33.1449988  48.2090012 124.9634997  33.9519988
  48.3540012 126.2784997  33.2169988  48.4798061 125.4185228  33.2650961
  51.6510012 119.8414997  21.7679988  52.5430012 119.7044997  22.0869988
  51.7080012 120.6324997  21.2319988  51.7806285 119.9296660  21.7391691
  42.1600012 124.4554997  27.6779988  42.9050012 124.4534997  27.0769988
  42.2380012 123.6324997  28.1599988  42.2725518 124.3439315  27.6608929
  49.1610012 126.6194997  20.9339988  48.8650012 127.4454997  21.3149988
  48.4580012 125.9994997  21.1299988  49.0254914 126.6488199  21.0126443
  39.1680012 122.9164997  32.9929988  39.3910012 122.4984997  33.8249988
  38.5660012 122.3034997  32.5699988  39.1171759 122.7764668  33.0497022
  46.1840012 122.4334997  35.2059988  45.8880012 122.2674997  34.3109988
  47.1160012 122.2134997  35.1949988  46.2694166 122.3810640  35.0820536
  50.8050012 127.8064997  33.0959988  49.9040012 127.9894997  32.8279988
  50.8390012 128.0654997  34.0169988  50.6863041 127.8665512  33.1838197
  56.5360012 120.0514997  21.4629988  55.9820012 119.6554997  20.7909988
  56.6360012 120.9614997  21.1849988  56.4737059 120.1203586  21.3334401
  56.4990012 125.8514997  34.2999988  55.6480012 126.0894997  33.9329988
  57.0900012 125.8344997  33.5469988  56.4622487 125.8818258  34.1478893
  54.8310012 128.8374997  21.9279988  54.4580012 128.0114997  22.2369988
  55.1090012 128.6544997  21.0309988  54.8175630 128.6997303  21.8489626
  51.9920012 123.6454997  28.9489988  51.0630012 123.4134997  28.9219988
  52.4430012 122.8684997  28.6189988  51.9259216 123.5087238  28.9006917
  44.5350012 127.9734997  25.0819988  45.0620012 128.7464997  24.8819988
  43.6550012 128.1984997  24.7809988  44.4881773 128.1098005  25.0139010
  40.2900012 122.8354997  19.6689988  40.9060012 123.4624997  20.0489988
  39.4280012 123.1514997  19.9409988  40.2577698 122.9639430  19.7577183
  45.9620012 125.6364997  24.6589988  45.7210012 126.5614997  24.6999988
  45.2210012 125.1774997  25.0549988  45.8288409 125.7011421  24.7181377
  46.4770012 129.7854997  30.9739988  46.8390012 130.6404997  30.7399988
  47.0080012 129.4934997  31.7139988  46.5984473 129.8631060  31.0420855
  44.6450012 130.6584997  24.2039988  43.6950012 130.7634997  24.2549988
  44.9970012 131.4784997  24.5489988  44.5624203 130.7838314  24.2576650
  50.0210012 125.8844997  30.6739988  49.5950012 125.6574997  31.5009988
  50.6010012 125.1464997  30.4919988  50.0411868 125.7535299  30.7625830
  52.2240012 126.8134997  19.7479988  52.5770012 126.4334997  20.5529988
  51.2750012 126.7204997  19.8349988  52.1440441 126.7489596  19.8698559
  52.6790012 130.4364997  33.1439988  52.0780012 129.8814997  32.6479988
  52.9610012 131.1034997  32.5179988  52.6348519 130.4506841  32.9914952
  56.7270012 131.2934997  19.9489988  57.4710012 131.8794997  19.8089988
  56.0330012 131.8614997  20.2829988  56.7350292 131.4505582  19.9749961
  40.8020012 117.6694997  32.5509988  39.9090012 118.0084997  32.4829988
  40.7030012 116.8144997  32.9689988  40.6664164 117.6002588  32.5982235
  53.0900012 125.4864997  21.9749988  52.8120012 124.7584997  22.5309988
  54.0170012 125.6054997  22.1799988  53.1773124 125.4028802  22.0788845
  40.4530012 129.4744997  30.9859988  40.6700012 128.5424997  30.9549988
  40.6990012 129.7484997  31.8689988  40.5159549 129.3840636  31.1011763
  46.3150012 127.9254997  18.1949988  46.5540012 127.1774997  17.6479988
  46.0460012 127.5374997  19.0279988  46.3113675 127.7706638  18.2326865
  45.2520012 127.4954997  20.6519988  45.3980012 126.9754997  21.4419988
  45.2490012 128.4024997  20.9579988  45.2715989 127.5468853  20.8016088
  41.7050012 124.7484997  21.1619988  41.0190012 125.1004997  21.7289988
  42.2270012 125.5114997  20.9149988  41.6816852 124.8998578  21.2062118
  49.5360012 117.4104997  31.4409988  50.2350012 117.4844997  32.0909988
  49.1550012 116.5464997  31.5949988  49.5801767 117.3037624  31.5508322
  50.3210012 117.0624997  22.5379988  50.5410012 117.5344997  21.7349988
  50.8790012 117.4574997  23.2079988  50.4264968 117.1804285  22.5187331
  47.9890012 129.1934997  21.4009988  47.1730012 129.6904997  21.4529988
  48.5190012 129.6684997  20.7609988  47.9489161 129.3257722  21.3215956
  47.5210012 118.7904997  23.3729988  48.3330012 119.2954997  23.4189988
  47.2760012 118.6454997  24.2869988  47.5990520 118.8400375  23.5028517
  48.0560012 119.7764997  32.5579988  48.1750012 120.3504997  33.3149988
  48.7120012 119.0884997  32.6719988  48.1609757 119.7621079  32.6770825
  48.4040012 115.8714997  24.3109988  48.0580012 116.4894997  24.9559988
  49.0630012 116.3724997  23.8299988  48.4457826 116.0235802  24.3340971
  45.3280012 130.2374997  21.3829988  45.4880012 131.0364997  20.8819988
  45.1300012 130.5434997  22.2679988  45.3231649 130.3884469  21.4339815
  44.0620012 116.9344997  20.9979988  43.9790012 117.8234997  21.3449988
  44.9520012 116.6694997  21.2299988  44.1709469 117.0201430  21.0767626
  54.2610012 117.6834997  33.3929988  53.3440012 117.9464997  33.3049988
  54.5960012 117.6804997  32.4959988  54.1809900 117.7190224  33.2597919
  52.8630012 121.4344997  27.4879988  52.0650012 121.0194997  27.1599988
  53.3080012 120.7434997  27.9789988  52.8139885 121.2843543  27.5094889
  42.3210012 127.3624997  20.0589988  42.9130012 128.0614997  20.3349988
  42.7800012 126.9294997  19.3389988  42.4641142 127.3997049  19.9994830
  40.6370012 120.0264997  19.1749988  40.5920012 120.9654997  19.3529988
  39.7490012 119.7904997  18.9049988  40.5108574 120.1231892  19.1628912
  53.9490012 130.6904997  29.1109988  53.7940012 131.3684997  28.4539988
  54.8820012 130.7624997  29.3139988  54.0538500 130.7930170  29.0485119
  41.4450012 114.8084997  27.8479988  41.2160012 114.8674997  26.9199988
  41.0020012 114.0164997  28.1539988  41.3538530 114.7095753  27.7624786
  40.3750012 128.7484997  24.0079988  39.5430012 129.2214997  24.0359988
  40.9210012 129.2584997  23.4099988  40.3349739 128.8821871  23.9309716
  39.6630012 131.3614997  35.3379988  40.2040012 131.1444997  36.0979988
  39.1820012 130.5554997  35.1489988  39.6719345 131.2229514  35.4163076
  44.2610012 130.2804997  36.9589988  45.0280012 129.8214997  37.2999988
  44.2390012 130.0544997  36.0289988  44.3631434 130.1870409  36.8800043
  48.3530012 129.7884997  18.3339988  47.7090012 129.1574997  18.6549988
  49.1150012 129.2574997  18.1019988  48.3678077 129.6302920  18.3466011
  50.8380012 128.6604997  35.6879988  50.4870012 127.8044997  35.9309988
  51.5640012 128.8034997  36.2949988  50.8880769 128.5625636  35.8033619
  52.9570012 129.6054997  18.5679988  53.2400012 128.8114997  19.0199988
  53.6970012 129.8384997  18.0069988  53.0957486 129.5282803  18.5540698
  39.5700012 125.1714997  36.2929988  39.7140012 124.2694997  36.0059988
  38.7980012 125.4574997  35.8049988  39.4853322 125.0868261  36.1877881
  43.9120012 125.5154997  18.4249988  43.9760012 124.7214997  18.9559988
  44.5650012 125.3964997  17.7349988  44.0090241 125.3907148  18.4044317
  46.2260012 125.1414997  35.7249988  45.8970012 125.4124997  34.8679988
  46.3780012 124.2004997  35.6379988  46.2014809 125.0513862  35.5958244
  49.2640012 126.5624997  18.1609988  48.9950012 126.7424997  19.0619988
  49.0580012 125.6364997  18.0299988  49.1993825 126.4620152  18.2665214
  51.9600012 125.0574997  33.1089988  52.7060012 125.6454997  32.9889988
  51.2030012 125.6394997  33.1719988  51.9597554 125.2167011  33.1010907
  40.4030012 122.3714997  35.7129988  40.8110012 121.5144997  35.5919988
  40.1430012 122.3864997  36.6339988  40.4237568 122.2560807  35.8209588
  45.0610012 123.4874997  20.7309988  44.6010012 123.0034997  21.4169988
  45.3160012 122.8194997  20.0949988  45.0324902 123.3308731  20.7389334
  44.3500012 121.3804997  33.0869988  43.7320012 122.0554997  33.3669988
  44.6940012 121.7014997  32.2539988  44.3119615 121.5162721  33.0126581
  46.1320012 121.7304997  18.9929988  45.9520012 121.5764997  18.0659988
  47.0820012 121.8384997  19.0379988  46.2357776 121.7240175  18.8721843
  49.3700012 123.8524997  36.3639988  50.3230012 123.9354997  36.3369988
  49.2090012 123.1404997  36.9839988  49.4786426 123.7676746  36.4440579
  55.5220012 124.0854997  18.4389988  55.2480012 123.6604997  17.6259988
  55.5610012 125.0164997  18.2219988  55.4897699 124.1532484  18.2983610
  44.6890012 118.7354997  34.1689988  44.8390012 118.0064997  33.5669988
  44.6920012 119.5124997  33.6099988  44.7099302 118.7407851  34.0110692
  45.1020012 117.1054997  31.6619988  45.6380012 117.5564997  31.0099988
  44.2500012 116.9974997  31.2389988  45.0602178 117.1526390  31.5155756
  46.6840012 122.5444997  31.9009988  47.4340012 122.3884997  31.3279988
  46.3450012 123.3964997  31.6259988  46.7408921 122.6382968  31.7853561
  51.0990012 120.3594997  36.9299988  51.2920012 119.4284997  36.8179988
  51.9570012 120.7844997  36.9199988  51.2413020 120.2896389  36.9133361
  52.4160012 123.1484997  35.0069988  52.1350012 123.8574997  34.4299988
  53.3590012 123.0754997  34.8559988  52.5049027 123.2357646  34.9075551
  43.1680012 119.9334997  36.0809988  42.4010012 119.4014997  35.8709988
  43.8470012 119.6234997  35.4809988  43.1547022 119.8187506  35.9711648
  45.9080012 114.5614997  32.0929988  45.8090012 115.5084997  31.9879988
  45.1650012 114.1894997  31.6179988  45.7940563 114.6405902  32.0144560
  47.1720012 118.8834997  35.6569988  46.9360012 118.6634997  36.5589988
  46.3880012 118.6764997  35.1469988  47.0338628 118.8254760  35.7113932
  49.8870012 118.0104997  34.7329988  48.9400012 118.0424997  34.8649988
  50.2000012 117.3854997  35.3859988  49.7995475 117.9303207  34.8394455
  51.5210012 116.6444997  36.7379988  51.4250012 115.6924997  36.7319988
  51.2000012 116.9134997  37.5979988  51.4644070 116.5504035  36.8535441
  41.3480012 117.8544997  35.7849988  41.5600012 117.1474997  35.1749988
  41.2370012 117.4164997  36.6289988  41.3619721 117.6987084  35.8156843
  46.1290012 113.8554997  34.7649988  46.8410012 113.2154997  34.7509988
  46.0280012 114.1224997  33.8509988  46.2127939 113.8039938  34.6395650
  46.4830012 115.5384997  36.8179988  46.3510012 115.0624997  35.9979988
  45.8840012 116.2824997  36.7629988  46.3839071 115.5739618  36.6982886
  46.0290012 132.4214997  19.9949988  46.9620012 132.5794997  20.1379988
  45.7650012 133.0964997  19.3699988  46.1209510 132.5343611  19.9300741
  39.5980012 127.0574997  19.4769988  40.5120012 127.1364997  19.7509988
  39.6050012 126.3704997  18.8109988  39.7241131 126.9753961  19.4244393
  38.2470012 132.4504997  24.5549988  37.6000012 131.9884997  24.0219988
  38.6010012 131.7784997  25.1369988  38.2063849 132.2964723  24.5607959
  39.1170012 130.5314997  26.3589988  38.7820012 129.6514997  26.5309988
  39.3390012 130.8764997  27.2239988  39.1011783 130.4577500  26.4994208
  56.6650012 131.3404997  29.3399988  56.6440012 131.5254997  30.2789988
  57.3560012 131.9094997  28.9989988  56.7554618 131.4426606  29.4223864
  56.2290012 130.9084997  32.2619988  55.7410012 130.1724997  31.8909988
  56.7780012 130.5144997  32.9399988  56.2364872 130.7546249  32.3029160
  54.6790012 126.6974997  36.8999988  53.8130012 126.5924997  37.2939988
  55.0560012 127.4564997  37.3459988  54.6113308 126.7856900  37.0142393
  55.9800012 124.9544997  22.4139988  56.8300012 125.3754997  22.5409988
  55.9860012 124.2144997  23.0209988  56.0971372 124.9120803  22.5134344
  56.3750012 123.0074997  24.2379988  55.6480012 122.5284997  24.6349988
  56.9560012 123.2134997  24.9699988  56.3539375 122.9697090  24.3914129
  56.1340012 125.7924997  29.1849988  56.9670012 125.4144997  28.9049988
  56.2460012 126.7354997  29.0659988  56.2632647 125.8682218  29.1305487
  54.6200012 128.6704997  31.4919988  53.9730012 128.9954997  32.1179988
  54.1030012 128.2304997  30.8179988  54.4614029 128.6555004  31.4865827
  56.6430012 122.9084997  20.6289988  56.1210012 123.2654997  19.9099988
  56.6100012 123.5834997  21.3069988  56.5671634 123.0485413  20.6223145
  54.9920012 120.1484997  19.1799988  55.0880012 120.8154997  18.4989988
  54.8520012 119.3324997  18.6979988  54.9862135 120.1294500  19.0218491
  54.1610012 121.5284997  24.8009988  54.0110012 120.5834997  24.7799988
  53.8080012 121.8094997  25.6439988  54.0926625 121.4370441  24.9122346
  39.1970012 123.6064997  28.8109988  39.3810012 123.5244997  27.8749988
  40.0460012 123.4824997  29.2349988  39.3370139 123.5785003  28.7401455
  55.0180012 123.4984997  34.4389988  55.6010012 122.7644997  34.6309988
  55.5820012 124.2704997  34.4859988  55.1739769 123.5024227  34.4716159
  56.5140012 121.4014997  35.1239988  55.6510012 121.0224997  34.9579988
  57.1190012 120.6624997  35.0499988  56.4775979 121.2498023  35.0912817
  54.2390012 117.5564997  18.2969988  54.8500012 117.1854997  18.9339988
  53.4030012 117.1354997  18.4929988  54.2095032 117.4487554  18.4107035
  53.8720012 119.1114997  23.2629988  54.1520012 118.2044997  23.3869988
  54.6310012 119.5454997  22.8739988  54.0129277 119.0460942  23.2273682
  54.4840012 119.6924997  28.6989988  55.4170012 119.9044997  28.6649988
  54.2490012 119.7944997  29.6209988  54.5798036 119.7352769  28.8189976
  54.5130012 120.4294997  31.4749988  53.6700012 120.6974997  31.8409988
  54.9550012 121.2514997  31.2639988  54.4574158 120.5773291  31.4965491
  38.7940012 118.8774997  34.9519988  39.7140012 118.7554997  35.1879988
  38.3450012 118.1274997  35.3409988  38.8591580 118.7593727  35.0369006
  56.7960012 114.4094997  36.8279988  57.1460012 113.7554997  36.2229988
  56.9430012 115.2464997  36.3889988  56.8638419 114.4331591  36.6857118
  54.4850012 116.3744997  23.3109988  54.6680012 115.9254997  24.1369988
  53.8860012 115.7894997  22.8479988  54.4290202 116.2339975  23.3613275
  40.0150012 117.1894997  27.8429988  40.4610012 116.3974997  28.1449988
  40.4820012 117.9054997  28.2739988  40.1390172 117.1780624  27.9424820
  38.3190012 120.1884997  28.9119988  38.8110012 119.9674997  28.1209988
  38.6820012 121.0294997  29.1929988  38.4353126 120.2718357  28.8417531
  56.3160012 116.5184997  35.1779988  55.3980012 116.7894997  35.1419988
  56.4390012 115.9834997  34.3929988  56.2071066 116.4832892  35.0670487
  56.3520012 116.4414997  19.8389988  56.7640012 115.7204997  19.3639988
  57.0340012 117.1114997  19.8979988  56.5005885 116.4332368  19.7818915
  38.6330012 116.4464997  22.9659988  37.7080012 116.6554997  22.8369988
  39.0870012 116.9304997  22.2769988  38.5677368 116.5405993  22.8551226
  53.4040012 131.4304997  24.9119988  54.0560012 131.0834997  24.3039988
  53.9140012 131.9194997  25.5579988  53.5622637 131.4490597  24.9160236
  38.5970012 115.1844997  31.3109988  37.9320012 114.9384997  31.9539988
  38.1540012 115.8064997  30.7329988  38.4460956 115.2348632  31.3209352
  40.7890012 128.3594997  35.4549988  39.9680012 128.5344997  34.9949988
  40.5360012 128.2864997  36.3759988  40.6426164 128.3735622  35.5164923
  43.7430012 129.3344997  31.7139988  43.3180012 130.1434997  31.4309988
  44.6470012 129.4194997  31.4119988  43.8070271 129.4568469  31.6343776
  48.0540012 130.7334997  34.6729988  48.2390012 130.3994997  35.5509988
  48.9000012 131.0424997  34.3509988  48.1937539 130.7296047  34.7495605
  50.3990012 132.0194997  33.9169988  51.0760012 131.3864997  33.6769988
  50.7210012 132.4204997  34.7239988  50.5351637 131.9871154  33.9932793
  55.3160012 114.6084997  32.9969988  54.5040012 114.9334997  32.6089988
  55.5490012 113.8484997  32.4639988  55.2363423 114.5502436  32.8718253
  41.1450012 132.5904997  31.7609988  40.4240012 133.0304997  31.3099988
  40.7790012 132.3394997  32.6099988  40.9969804 132.6167698  31.8139840
  43.6120012 132.1904997  30.7909988  42.7470012 132.2624997  31.1949988
  43.5570012 132.7374997  30.0069988  43.4862085 132.2742685  30.7403362
  48.3220012 132.0784997  29.9659988  47.8660012 132.6074997  29.3119988
  48.4850012 132.6814997  30.6919988  48.2815585 132.2324468  29.9745062
  50.6500012 130.9564997  30.9109988  49.7450012 131.1214997  30.6459988
  51.0790012 131.8094997  30.8459988  50.5840799 131.0944483  30.8659182
  53.2540012 132.5264997  31.2059988  53.0720012 133.4424997  30.9959988
  53.4310012 132.1164997  30.3599988  53.2530210 132.5964822  31.0627885
  40.5590012 131.2134997  28.6709988  40.5410012 130.7884997  29.5289988
  41.3640012 130.8954997  28.2629988  40.6653875 131.1123812  28.7331655
  42.7010012 129.9234997  27.3259988  42.4820012 129.0074997  27.4959988
  43.5250012 130.0634997  27.7919988  42.7824420 129.8170520  27.4122774
  45.2380012 130.3934997  28.1749988  45.4510012 129.5054997  27.8879988
  45.3020012 130.3594997  29.1289988  45.2758232 130.2673102  28.2647397
  48.7460012 116.0574997  27.3189988  48.0720012 115.4284997  27.5749988
  49.3100012 115.5734997  26.7159988  48.7299230 115.9058744  27.2725340
  53.8890012 114.1654997  27.4319988  54.4930012 114.7124997  26.9299988
  53.0190012 114.4844997  27.1919988  53.8541241 114.2835806  27.3307654
  55.6160012 115.3034997  25.7649988  56.2280012 114.7894997  25.2389988
  55.9980012 116.1814997  25.7889988  55.7514540 115.3517140  25.6961830
  41.0730012 114.6914997  25.1409988  40.2960012 114.4574997  24.6339988
  41.6030012 113.8944997  25.1499988  41.0382330 114.5516988  25.0727742
  39.9090012 114.4894997  20.9449988  40.3480012 115.1004997  20.3529988
  39.2760012 115.0274997  21.4189988  39.8834514 114.6459257  20.9280930
  45.6520012 114.6184997  24.9549988  46.5270012 115.0064997  24.9249988
  45.5160012 114.4034997  25.8769988  45.7533695 114.6425184  25.0756440
  51.2090012 114.6484997  26.6039988  51.2850012 114.7434997  25.6539988
  50.9340012 113.7404997  26.7329988  51.1822321 114.5387867  26.4915079
  52.5620012 114.6744997  22.2959988  51.8600012 115.2894997  22.0869988
  52.1180012 113.8364997  22.4269988  52.4056330 114.6455783  22.2850328
  39.8100012 130.4374997  21.8429988  39.1250012 130.3994997  21.1749988
  39.8140012 131.3504997  22.1309988  39.7168193 130.5557016  21.7905284
  41.7700012 116.4054997  19.3869988  42.2620012 115.7754997  18.8599988
  42.3940012 116.7014997  20.0509988  41.9215446 116.3593199  19.4045980
  46.7960012 116.6984997  21.8439988  46.9740012 116.0524997  22.5269988
  46.7430012 117.5324997  22.3119988  46.8131829 116.7227985  22.0005940
  48.6750012 131.6474997  20.2399988  49.5410012 132.0134997  20.0619988
  48.4280012 131.2074997  19.4259988  48.7602392 131.6381756  20.1056289
  55.3840012 131.2104997  22.9189988  55.1890012 130.4624997  22.3539988
  55.3450012 131.9684997  22.3359988  55.3520380 131.2106099  22.7628384
  41.0310012 115.2054997  34.6589988  40.6650012 114.4404997  35.1019988
  41.9440012 115.2344997  34.9459988  41.1042790 115.1047224  34.7584070
  43.0040012 114.5564997  36.1949988  43.9020012 114.2824997  36.0099988
  42.6170012 113.8134997  36.6589988  43.0746612 114.4185914  36.2323643
  41.6280012 131.3574997  18.8679988  41.3610012 131.6444997  19.7409988
  42.4000012 130.8114997  19.0199988  41.6957488 131.3230294  19.0081050
  51.4250012 113.8884997  36.3769988  51.5020012 113.4624997  37.2309988
  52.3190012 113.9024997  36.0339988  51.5563428 113.8320879  36.4475310
  54.6010012 129.9614997  35.0689988  53.8190012 129.7754997  34.5499988
  54.5290012 130.8904997  35.2869988  54.4841777 130.0616492  35.0274048
  69.0070012 123.8474997  25.0999988  69.0960012 124.7914997  24.9679988
  68.3690012 123.5724997  24.4419988  68.9329081 123.9394830  24.9929614
  67.9400012 123.1024997  28.5189988  67.9020012 122.4564997  29.2239988
  67.6180012 122.6364997  27.7479988  67.8912333 122.9509408  28.5112978
  60.3090012 122.7174997  30.1119988  60.3500012 122.0914997  30.8349988
  61.0120012 123.3414997  30.2939988  60.4096363 122.7161196  30.2356044
  71.6460012 126.0414997  26.8199988  71.2060012 125.3214997  27.2709988
  71.6330012 126.7624997  27.4499988  71.5840226 126.0403731  26.9668494
  61.2320012 127.1674997  28.6469988  60.8630012 126.3654997  28.2769988
  62.1730012 126.9984997  28.6929988  61.3087289 127.0350153  28.6026316
  57.8420012 120.8274997  24.0399988  57.3950012 121.6734997  24.0209988
  57.2810012 120.2474997  23.5239988  57.7049900 120.8649916  23.9676801
  58.5530012 122.9894997  26.1659988  58.7660012 122.2194997  26.6929988
  59.2910012 123.0784997  25.5619988  58.6818496 122.8961394  26.1565300
  68.7580012 131.1464997  27.0329988  69.3780012 130.4694997  26.7589988
  68.5500012 130.9284997  27.9409988  68.8146904 131.0243870  27.1183365
  66.3300012 125.5354997  28.9249988  66.6340012 124.8494997  28.3299988
  67.0510012 125.6534997  29.5429988  66.4690671 125.4576305  28.9271816
  74.9930012 117.1364997  29.7859988  75.0420012 117.7464997  30.5219988
  75.4180012 117.5974997  29.0629988  75.0571824 117.2823741  29.7890205
  69.4710012 119.9294997  29.2529988  69.6130012 118.9834997  29.2729988
  69.3640012 120.1364997  28.3239988  69.4759864 119.8279534  29.1302339
  62.6250012 118.0304997  26.5249988  62.6690012 118.8904997  26.1069988
  62.1680012 117.4784997  25.8909988  62.5692185 118.0735799  26.3820299
  70.3480012 118.1614997  24.9259988  70.9940012 117.8324997  25.5509988
  70.8580012 118.6794997  24.3029988  70.5054264 118.1864611  24.9273862
  59.2460012 120.4274997  27.2869988  59.8990012 119.8774997  27.7189988
  59.2700012 120.1534997  26.3699988  59.3386683 120.3151466  27.2222123
  64.4020012 121.9774997  26.5019988  65.0180012 121.4514997  27.0119988
  63.8160012 121.3374997  26.0989988  64.4070810 121.8189208  26.5173173
  75.3840012 118.6144997  32.0219988  74.6960012 119.2724997  31.9259988
  75.4000012 118.4174997  32.9579988  75.2918525 118.6780462  32.1354808
  61.4360012 116.9484997  30.5989988  61.2170012 117.4784997  29.8329988
  60.7680012 117.1754997  31.2459988  61.3157600 117.0516906  30.5816379
  68.8050012 126.4484997  24.1429988  68.5090012 126.1264997  23.2919988
  68.4800012 127.3484997  24.1839988  68.7206371 126.5260215  24.0321801
  64.0050012 124.6244997  30.8859988  63.2650012 125.2224997  30.9899988
  64.7190012 125.1784997  30.5709988  64.0002237 124.7812831  30.8576465
  72.1120012 117.4524997  26.9059988  71.8960012 116.6864997  27.4389988
  72.7670012 117.9244997  27.4189988  72.1710632 117.4115889  27.0482861
  61.0290012 118.8404997  28.5509988  61.6430012 119.4734997  28.9249988
  61.5410012 118.3684997  27.8949988  61.1822296 118.8632370  28.5134252
  62.4120012 126.5884997  31.6739988  62.4070012 127.4684997  31.2959988
  61.5590012 126.5054997  32.0989988  62.2959464 126.6976117  31.6797907
  58.5330012 126.2594997  22.4559988  58.2610012 126.4884997  21.5669988
  58.5790012 127.0974997  22.9159988  58.5020094 126.4041213  22.3965697
  72.1580012 127.8814997  29.1679988  71.2170012 127.9394997  29.3299988
  72.4350012 128.7874997  29.0309988  72.0664679 128.0119443  29.1716815
  72.4590012 116.1674997  30.5859988  71.7230012 116.7784997  30.5479988
  73.1420012 116.5824997  30.0589988  72.4506541 116.3071374  30.5095832
  65.4620012 114.2544997  28.0519988  65.3450012 113.3054997  27.9969988
  64.6070012 114.5864997  28.3249988  65.3303733 114.1695409  28.0813897
  70.4100012 129.6624997  25.7939988  70.8360012 128.9554997  25.3089988
  70.7270012 130.4634997  25.3769988  70.5111019 129.6740994  25.6713130
  71.5700012 127.5634997  24.3019988  71.3120012 126.8734997  23.6909988
  71.6410012 127.1204997  25.1479988  71.5442856 127.4092124  24.3326885
  73.2560012 126.1294997  32.7799988  73.3960012 125.5384997  32.0399988
  73.4230012 127.0024997  32.4229988  73.2976778 126.1666426  32.6306965
  67.7290012 123.0914997  22.5519988  67.0170012 123.6264997  22.1999988
  68.4200012 123.1474997  21.8919988  67.7250132 123.1722543  22.4146289
  67.7820012 121.5494997  19.5909988  68.4830012 121.5714997  20.2419988
  68.0850012 120.9214997  18.9349988  67.9187830 121.4676566  19.5913711
  75.0980012 122.4694997  30.8459988  74.4450012 123.1644997  30.9349988
  75.5630012 122.6794997  30.0359988  75.0715390 122.5929425  30.7486883
  71.1340012 123.3014997  23.5039988  70.4020012 123.5294997  24.0769988
  71.5820012 122.5874997  23.9589988  71.0943095 123.2362571  23.6439119
  71.0320012 121.4754997  32.5709988  71.1120012 122.2384997  33.1429988
  70.4300012 121.7544997  31.8809988  70.9615756 121.6177134  32.5560589
  62.7800012 123.9314997  25.3859988  62.4490012 123.5614997  24.5679988
  63.3680012 123.2614997  25.7329988  62.8141873 123.7901156  25.3208102
  64.1460012 127.3594997  28.0679988  64.0520012 126.7814997  27.3109988
  64.8760012 126.9884997  28.5639988  64.2317981 127.2302390  28.0314165
  63.1460012 122.7004997  29.0199988  63.7120012 122.8214997  28.2569988
  63.4650012 123.3374997  29.6589988  63.2665786 122.8031884  29.0020040
  69.4550012 128.2034997  29.7539988  69.2150012 128.8654997  30.4019988
  69.2570012 127.3694997  30.1789988  69.3953808 128.1813134  29.9001524
  64.0260012 127.0994997  33.7369988  63.7150012 127.8814997  34.1919988
  63.3760012 126.9464997  33.0509988  63.8955558 127.1859105  33.7065871
  70.0050012 122.4634997  21.1889988  70.5850012 122.6134997  21.9359988
  70.4190012 122.9344997  20.4659988  70.1402831 122.5476841  21.1934134
  60.9460012 123.2974997  32.9659988  61.0170012 123.9484997  33.6639988
  60.0560012 123.4004997  32.6309988  60.8353117 123.4005936  33.0162700
  67.7320012 129.2004997  24.6239988  68.2060012 129.4954997  25.4019988
  67.1690012 129.9384997  24.3909988  67.7207653 129.3406932  24.6990136
  62.2660012 129.1714997  34.4999988  62.2730012 129.0354997  33.5529988
  61.3500012 129.0534997  34.7519988  62.1431714 129.1369430  34.4044666
  73.7040012 114.2134997  21.0019988  72.8040012 114.3524997  21.2969988
  73.9560012 115.0444997  20.5999988  73.6148702 114.3449074  20.9880205
  61.7700012 123.0014997  22.9759988  61.4780012 123.7694997  22.4849988
  61.0960012 122.3414997  22.8129988  61.6389081 123.0174406  22.8867340
  74.8930012 128.5794997  19.3779988  74.9670012 129.5184997  19.5489988
  75.7990012 128.2744997  19.3219988  75.0255100 128.6666722  19.3938119
  57.8630012 125.3644997  31.7909988  57.3620012 125.3364997  30.9759988
  57.8680012 124.4584997  32.0999988  57.7951526 125.2382278  31.7212872
  57.6130012 128.1444997  28.6749988  58.5590012 128.0004997  28.6559988
  57.5010012 128.9284997  29.2119988  57.7272727 128.2308046  28.7450072
  75.8110012 128.8104997  34.3569988  75.7620012 127.8554997  34.3199988
  74.9840012 129.0784997  34.7579988  75.6924940 128.7158998  34.4061375
  66.7900012 128.3844997  33.2329988  66.8770012 129.2104997  33.7079988
  65.9260012 128.0544997  33.4819988  66.6851964 128.4529878  33.3316549
  67.2040012 132.1564997  23.0389988  67.1290012 132.0354997  22.0929988
  67.2370012 133.1064997  23.1579988  67.1981848 132.2682500  22.9254834
  60.8570012 130.9454997  24.8199988  61.0100012 130.5974997  25.6989988
  60.0070012 130.5894997  24.5649988  60.7628962 130.8496650  24.9058340
  70.3060012 131.3104997  20.0409988  70.6810012 130.5664997  19.5709988
  70.3100012 131.0404997  20.9599988  70.3578915 131.1721486  20.1007824
  69.9750012 131.2364997  22.7909988  69.0390012 131.3364997  22.9689988
  70.2550012 130.5274997  23.3689988  69.8848255 131.1542711  22.8935391
  72.9630012 120.3034997  34.8369988  72.5560012 120.7844997  34.1159988
  73.0040012 119.3984997  34.5289988  72.9128437 120.2469374  34.6966683
  60.1120012 126.6874997  32.8339988  60.3280012 126.3264997  33.6929988
  59.2570012 126.3134997  32.6239988  60.0259292 126.5874111  32.9233386
  62.7310012 115.1574997  28.8289988  61.8690012 115.0704997  28.4219988
  62.7080012 116.0134997  29.2569988  62.6100330 115.2612765  28.8311863
  67.3940012 114.8794997  32.2039988  67.8140012 114.4644997  32.9569988
  66.4610012 114.7014997  32.3209988  67.3253644 114.7985900  32.3229539
  70.7200012 118.6354997  33.0569988  70.2060012 118.5094997  33.8549988
  70.5650012 119.5474997  32.8129988  70.6286852 118.7416132  33.1332158
  71.4830012 123.4964997  18.8189988  71.5250012 123.2734997  17.8889988
  72.3320012 123.8954997  19.0089988  71.6035396 123.5199155  18.7173627
  67.0550012 117.3724997  19.4889988  66.8020012 117.3914997  20.4119988
  66.7990012 116.5004997  19.1879988  66.9857790 117.2572437  19.5746263
  62.8220012 120.1234997  29.9239988  62.1800012 120.0824997  30.6329988
  62.8590012 121.0494997  29.6869988  62.7391324 120.2431559  29.9889824
  62.8190012 120.3444997  24.8359988  61.9260012 120.0034997  24.7779988
  63.2690012 119.9674997  24.0809988  62.7577305 120.2468484  24.7259177
  68.3540012 120.7604997  23.6529988  67.9450012 121.5754997  23.3619988
  69.0750012 120.6204997  23.0389988  68.3954537 120.8532018  23.5301342
  67.4560012 120.9354997  35.1409988  66.8940012 120.2314997  35.4619988
  68.2830012 120.8154997  35.6089988  67.4907095 120.8227883  35.2482330
  69.3590012 120.2064997  26.4669988  69.1640012 120.8114997  25.7519988
  69.5400012 119.3724997  26.0329988  69.3567614 120.1766300  26.3104405
  60.5720012 120.4434997  31.7909988  60.5340012 120.8434997  32.6599988
  60.0810012 119.6264997  31.8819988  60.5004684 120.3878069  31.9221059
  63.9380012 117.8174997  18.5899988  63.5070012 117.3724997  19.3199988
  63.2200012 118.1894997  18.0779988  63.7819438 117.8068940  18.6206799
  57.1800012 117.5594997  25.6419988  57.8110012 117.5304997  26.3609988
  57.6290012 117.1344997  24.9119988  57.3270774 117.4980492  25.6416553
  58.4540012 118.3054997  21.0659988  58.9280012 118.8964997  20.4809988
  57.7370012 118.8364997  21.4129988  58.4219341 118.4580867  21.0328836
  68.6230012 121.8444997  31.1389988  68.9460012 121.2134997  30.4959988
  68.1830012 121.3094997  31.7989988  68.6076895 121.6858440  31.1402850
  65.4000012 117.7714997  25.9229988  64.4890012 117.8284997  26.2109988
  65.9060012 117.7114997  26.7329988  65.3435413 117.7711985  26.0720622
  60.2290012 119.4004997  24.7489988  59.3390012 119.5004997  24.4089988
  60.5250012 118.5584997  24.4029988  60.1472823 119.3003545  24.6557213
  63.8820012 119.4004997  22.4059988  64.8130012 119.5294997  22.5839988
  63.6670012 120.0704997  21.7559988  63.9804247 119.5086565  22.3425747
  69.8050012 117.0064997  29.1869988  69.1290012 117.1374997  29.8509988
  69.3200012 116.8514997  28.3769988  69.6467145 117.0034905  29.1684517
  62.5560012 120.5954997  19.9729988  62.0130012 120.2154997  19.2809988
  63.3890012 120.7894997  19.5439988  62.5944399 120.5698124  19.8204526
  73.0930012 132.6784997  35.4639988  73.2930012 133.1024997  34.6289988
  73.7480012 133.0214997  36.0709988  73.2090051 132.7829648  35.4317836
  60.6910012 125.1524997  35.0719988  61.4230012 125.4064997  35.6329988
  59.9110012 125.3564997  35.5869988  60.6858232 125.2149177  35.2185760
  66.7200012 120.5594997  27.8099988  67.2850012 120.0124997  27.2629988
  66.5730012 120.0374997  28.5979988  66.7772918 120.4142024  27.8418454
  61.7220012 116.6954997  24.2279988  61.4050012 115.7934997  24.1929988
  62.5040012 116.6974997  23.6749988  61.7842284 116.5721628  24.1484783
  65.3470012 118.9474997  30.2239988  64.5110012 119.4014997  30.3339988
  65.8710012 119.2234997  30.9759988  65.3034414 119.0469376  30.3407136
  65.8910012 125.1604997  21.9079988  65.1460012 124.6534997  21.5859988
  65.7570012 125.2094997  22.8549988  65.7708776 125.0976940  21.9918647
  73.0410012 124.2934997  30.6949988  73.6830012 124.7504997  30.1509988
  72.2110012 124.4064997  30.2319988  73.0165963 124.3712704  30.5580177
  69.7890012 117.9744997  20.1079988  68.8500012 118.0864997  19.9559988
  70.0860012 118.8314997  20.4139988  69.7007666 118.1056443  20.1285768
  67.4100012 125.3444997  33.1449988  67.0650012 124.9634997  33.9519988
  67.2100012 126.2784997  33.2169988  67.3358061 125.4185228  33.2650961
  70.5070012 119.8414997  21.7679988  71.3990012 119.7044997  22.0869988
  70.5640012 120.6324997  21.2319988  70.6366285 119.9296660  21.7391691
  61.0160012 124.4554997  27.6779988  61.7610012 124.4534997  27.0769988
  61.0940012 123.6324997  28.1599988  61.1285518 124.3439315  27.6608929
  68.0170012 126.6194997  20.9339988  67.7210012 127.4454997  21.3149988
  67.3140012 125.9994997  21.1299988  67.8814914 126.6488199  21.0126443
  58.0240012 122.9164997  32.9929988  58.2470012 122.4984997  33.8249988
  57.4220012 122.3034997  32.5699988  57.9731759 122.7764668  33.0497022
  65.0400012 122.4334997  35.2059988  64.7440012 122.2674997  34.3109988
  65.9720012 122.2134997  35.1949988  65.1254166 122.3810640  35.0820536
  69.6610012 127.8064997  33.0959988  68.7600012 127.9894997  32.8279988
  69.6950012 128.0654997  34.0169988  69.5423041 127.8665512  33.1838197
  75.3920012 120.0514997  21.4629988  74.8380012 119.6554997  20.7909988
  75.4920012 120.9614997  21.1849988  75.3297059 120.1203586  21.3334401
  75.3550012 125.8514997  34.2999988  74.5040012 126.0894997  33.9329988
  75.9460012 125.8344997  33.5469988  75.3182487 125.8818258  34.1478893
  73.6870012 128.8374997  21.9279988  73.3140012 128.0114997  22.2369988
  73.9650012 128.6544997  21.0309988  73.6735630 128.6997303  21.8489626
  70.8480012 123.6454997  28.9489988  69.9190012 123.4134997  28.9219988
  71.2990012 122.8684997  28.6189988  70.7819216 123.5087238  28.9006917
  63.3910012 127.9734997  25.0819988  63.9180012 128.7464997  24.8819988
  62.5110012 128.1984997  24.7809988  63.3441773 128.1098005  25.0139010
  59.1460012 122.8354997  19.6689988  59.7620012 123.4624997  20.0489988
  58.2840012 123.1514997  19.9409988  59.1137698 122.9639430  19.7577183
  64.8180012 125.6364997  24.6589988  64.5770012 126.5614997  24.6999988
  64.0770012 125.1774997  25.0549988  64.6848409 125.7011421  24.7181377
  65.3330012 129.7854997  30.9739988  65.6950012 130.6404997  30.7399988
  65.8640012 129.4934997  31.7139988  65.4544473 129.8631060  31.0420855
  63.5010012 130.6584997  24.2039988  62.5510012 130.7634997  24.2549988
  63.8530012 131.4784997  24.5489988  63.4184203 130.7838314  24.2576650
  68.8770012 125.8844997  30.6739988  68.4510012 125.6574997  31.5009988
  69.4570012 125.1464997  30.4919988  68.8971868 125.7535299  30.7625830
  71.0800012 126.8134997  19.7479988  71.4330012 126.4334997  20.5529988
  70.1310012 126.7204997  19.8349988  71.0000441 126.7489596  19.8698559
  71.5350012 130.4364997  33.1439988  70.9340012 129.8814997  32.6479988
  71.8170012 131.1034997  32.5179988  71.4908519 130.4506841  32.9914952
  75.5830012 131.2934997  19.9489988  76.3270012 131.8794997  19.8089988
  74.8890012 131.8614997  20.2829988  75.5910292 131.4505582  19.9749961
  59.6580012 117.6694997  32.5509988  58.7650012 118.0084997  32.4829988
  59.5590012 116.8144997  32.9689988  59.5224164 117.6002588  32.5982235
  71.9460012 125.4864997  21.9749988  71.6680012 124.7584997  22.5309988
  72.8730012 125.6054997  22.1799988  72.0333124 125.4028802  22.0788845
  59.3090012 129.4744997  30.9859988  59.5260012 128.5424997  30.9549988
  59.5550012 129.7484997  31.8689988  59.3719549 129.3840636  31.1011763
  65.1710012 127.9254997  18.1949988  65.4100012 127.1774997  17.6479988
  64.9020012 127.5374997  19.0279988  65.1673675 127.7706638  18.2326865
  64.1080012 127.4954997  20.6519988  64.2540012 126.9754997  21.4419988
  64.1050012 128.4024997  20.9579988  64.1275989 127.5468853  20.8016088
  60.5610012 124.7484997  21.1619988  59.8750012 125.1004997  21.7289988
  61.0830012 125.5114997  20.9149988  60.5376852 124.8998578  21.2062118
  68.3920012 117.4104997  31.4409988  69.0910012 117.4844997  32.0909988
  68.0110012 116.5464997  31.5949988  68.4361767 117.3037624  31.5508322
  69.1770012 117.0624997  22.5379988  69.3970012 117.5344997  21.7349988
  69.7350012 117.4574997  23.2079988  69.2824968 117.1804285  22.5187331
  66.8450012 129.1934997  21.4009988  66.0290012 129.6904997  21.4529988
  67.3750012 129.6684997  20.7609988  66.8049161 129.3257722  21.3215956
  66.3770012 118.7904997  23.3729988  67.1890012 119.2954997  23.4189988
  66.1320012 118.6454997  24.2869988  66.4550520 118.8400375  23.5028517
  66.9120012 119.7764997  32.5579988  67.0310012 120.3504997  33.3149988
  67.5680012 119.0884997  32.6719988  67.0169757 119.7621079  32.6770825
  67.2600012 115.8714997  24.3109988  66.9140012 116.4894997  24.9559988
  67.9190012 116.3724997  23.8299988  67.3017826 116.0235802  24.3340971
  64.1840012 130.2374997  21.3829988  64.3440012 131.0364997  20.8819988
  63.9860012 130.5434997  22.2679988  64.1791649 130.3884469  21.4339815
  62.9180012 116.9344997  20.9979988  62.8350012 117.8234997  21.3449988
  63.8080012 116.6694997  21.2299988  63.0269469 117.0201430  21.0767626
  73.1170012 117.6834997  33.3929988  72.2000012 117.9464997  33.3049988
  73.4520012 117.6804997  32.4959988  73.0369900 117.7190224  33.2597919
  71.7190012 121.4344997  27.4879988  70.9210012 121.0194997  27.1599988
  72.1640012 120.7434997  27.9789988  71.6699885 121.2843543  27.5094889
  61.1770012 127.3624997  20.0589988  61.7690012 128.0614997  20.3349988
  61.6360012 126.9294997  19.3389988  61.3201142 127.3997049  19.9994830
  59.4930012 120.0264997  19.1749988  59.4480012 120.9654997  19.3529988
  58.6050012 119.7904997  18.9049988  59.3668574 120.1231892  19.1628912
  72.8050012 130.6904997  29.1109988  72.6500012 131.3684997  28.4539988
  73.7380012 130.7624997  29.3139988  72.9098500 130.7930170  29.0485119
  60.3010012 114.8084997  27.8479988  60.0720012 114.8674997  26.9199988
  59.8580012 114.0164997  28.1539988  60.2098530 114.7095753  27.7624786
  59.2310012 128.7484997  24.0079988  58.3990012 129.2214997  24.0359988
  59.7770012 129.2584997  23.4099988  59.1909739 128.8821871  23.9309716
  58.5190012 131.3614997  35.3379988  59.0600012 131.1444997  36.0979988
  58.0380012 130.5554997  35.1489988  58.5279345 131.2229514  35.4163076
  63.1170012 130.2804997  36.9589988  63.8840012 129.8214997  37.2999988
  63.0950012 130.0544997  36.0289988  63.2191434 130.1870409  36.8800043
  67.2090012 129.7884997  18.3339988  66.5650012 129.1574997  18.6549988
  67.9710012 129.2574997  18.1019988  67.2238077 129.6302920  18.3466011
  69.6940012 128.6604997  35.6879988  69.3430012 127.8044997  35.9309988
  70.4200012 128.8034997  36.2949988  69.7440769 128.5625636  35.8033619
  71.8130012 129.6054997  18.5679988  72.0960012 128.8114997  19.0199988
  72.5530012 129.8384997  18.0069988  71.9517486 129.5282803  18.5540698
  58.4260012 125.1714997  36.2929988  58.5700012 124.2694997  36.0059988
  57.6540012 125.4574997  35.8049988  58.3413322 125.0868261  36.1877881
  62.7680012 125.5154997  18.4249988  62.8320012 124.7214997  18.9559988
  63.4210012 125.3964997  17.7349988  62.8650241 125.3907148  18.4044317
  65.0820012 125.1414997  35.7249988  64.7530012 125.4124997  34.8679988
  65.2340012 124.2004997  35.6379988  65.0574809 125.0513862  35.5958244
  68.1200012 126.5624997  18.1609988  67.8510012 126.7424997  19.0619988
  67.9140012 125.6364997  18.0299988  68.0553825 126.4620152  18.2665214
  70.8160012 125.0574997  33.1089988  71.5620012 125.6454997  32.9889988
  70.0590012 125.6394997  33.1719988  70.8157554 125.2167011  33.1010907
  59.2590012 122.3714997  35.7129988  59.6670012 121.5144997  35.5919988
  58.9990012 122.3864997  36.6339988  59.2797568 122.2560807  35.8209588
  63.9170012 123.4874997  20.7309988  63.4570012 123.0034997  21.4169988
  64.1720012 122.8194997  20.0949988  63.8884902 123.3308731  20.7389334
  63.2060012 121.3804997  33.0869988  62.5880012 122.0554997  33.3669988
  63.5500012 121.7014997  32.2539988  63.1679615 121.5162721  33.0126581
  64.9880012 121.7304997  18.9929988  64.8080012 121.5764997  18.0659988
  65.9380012 121.8384997  19.0379988  65.0917776 121.7240175  18.8721843
  68.2260012 123.8524997  36.3639988  69.1790012 123.9354997  36.3369988
  68.0650012 123.1404997  36.9839988  68.3346426 123.7676746  36.4440579
  74.3780012 124.0854997  18.4389988  74.1040012 123.6604997  17.6259988
  74.4170012 125.0164997  18.2219988  74.3457699 124.1532484  18.2983610
  63.5450012 118.7354997  34.1689988  63.6950012 118.0064997  33.5669988
  63.5480012 119.5124997  33.6099988  63.5659302 118.7407851  34.0110692
  63.9580012 117.1054997  31.6619988  64.4940012 117.5564997  31.0099988
  63.1060012 116.9974997  31.2389988  63.9162178 117.1526390  31.5155756
  65.5400012 122.5444997  31.9009988  66.2900012 122.3884997  31.3279988
  65.2010012 123.3964997  31.6259988  65.5968921 122.6382968  31.7853561
  69.9550012 120.3594997  36.9299988  70.1480012 119.4284997  36.8179988
  70.8130012 120.7844997  36.9199988  70.0973020 120.2896389  36.9133361
  71.2720012 123.1484997  35.0069988  70.9910012 123.8574997  34.4299988
  72.2150012 123.0754997  34.8559988  71.3609027 123.2357646  34.9075551
  62.0240012 119.9334997  36.0809988  61.2570012 119.4014997  35.8709988
  62.7030012 119.6234997  35.4809988  62.0107022 119.8187506  35.9711648
  64.7640012 114.5614997  32.0929988  64.6650012 115.5084997  31.9879988
  64.0210012 114.1894997  31.6179988  64.6500564 114.6405902  32.0144560
  66.0280012 118.8834997  35.6569988  65.7920012 118.6634997  36.5589988
  65.2440012 118.6764997  35.1469988  65.8898628 118.8254760  35.7113932
  68.7430012 118.0104997  34.7329988  67.7960012 118.0424997  34.8649988
  69.0560012 117.3854997  35.3859988  68.6555475 117.9303207  34.8394455
  70.3770012 116.6444997  36.7379988  70.2810012 115.6924997  36.7319988
  70.0560012 116.9134997  37.5979988  70.3204070 116.5504035  36.8535441
  60.2040012 117.8544997  35.7849988  60.4160012 117.1474997  35.1749988
  60.0930012 117.4164997  36.6289988  60.2179721 117.6987084  35.8156843
  64.9850012 113.8554997  34.7649988  65.6970012 113.2154997  34.7509988
  64.8840012 114.1224997  33.8509988  65.0687939 113.8039938  34.6395650
  65.3390012 115.5384997  36.8179988  65.2070012 115.0624997  35.9979988
  64.7400012 116.2824997  36.7629988  65.2399071 115.5739618  36.6982886
  64.8850012 132.4214997  19.9949988  65.8180012 132.5794997  20.1379988
  64.6210012 133.0964997  19.3699988  64.9769510 132.5343611  19.9300741
  58.4540012 127.0574997  19.4769988  59.3680012 127.1364997  19.7509988
  58.4610012 126.3704997  18.8109988  58.5801131 126.9753961  19.4244393
  57.1030012 132.4504997  24.5549988  56.4560012 131.9884997  24.0219988
  57.4570012 131.7784997  25.1369988  57.0623849 132.2964723  24.5607959
  57.9730012 130.5314997  26.3589988  57.6380012 129.6514997  26.5309988
  58.1950012 130.8764997  27.2239988  57.9571783 130.4577500  26.4994208
  75.5210012 131.3404997  29.3399988  75.5000012 131.5254997  30.2789988
  76.2120012 131.9094997  28.9989988  75.6114618 131.4426606  29.4223864
  75.0850012 130.9084997  32.2619988  74.5970012 130.1724997  31.8909988
  75.6340012 130.5144997  32.9399988  75.0924872 130.7546249  32.3029160
  73.5350012 126.6974997  36.8999988  72.6690012 126.5924997  37.2939988
  73.9120012 127.4564997  37.3459988  73.4673308 126.7856900  37.0142393
  74.8360012 124.9544997  22.4139988  75.6860012 125.3754997  22.5409988
  74.8420012 124.2144997  23.0209988  74.9531372 124.9120803  22.5134344
  75.2310012 123.0074997  24.2379988  74.5040012 122.5284997  24.6349988
  75.8120012 123.2134997  24.9699988  75.2099375 122.9697090  24.3914129
  74.9900012 125.7924997  29.1849988  75.8230012 125.4144997  28.9049988
  75.1020012 126.7354997  29.0659988  75.1192647 125.8682218  29.1305487
  73.4760012 128.6704997  31.4919988  72.8290012 128.9954997  32.1179988
  72.9590012 128.2304997  30.8179988  73.3174029 128.6555004  31.4865827
  75.4990012 122.9084997  20.6289988  74.9770012 123.2654997  19.9099988
  75.4660012 123.5834997  21.3069988  75.4231634 123.0485413  20.6223145
  73.8480012 120.1484997  19.1799988  73.9440012 120.8154997  18.4989988
  73.7080012 119.3324997  18.6979988  73.8422135 120.1294500  19.0218491
  73.0170012 121.5284997  24.8009988  72.8670012 120.5834997  24.7799988
  72.6640012 121.8094997  25.6439988  72.9486625 121.4370441  24.9122346
  58.0530012 123.6064997  28.8109988  58.2370012 123.5244997  27.8749988
  58.9020012 123.4824997  29.2349988  58.1930139 123.5785003  28.7401455
  73.8740012 123.4984997  34.4389988  74.4570012 122.7644997  34.6309988
  74.4380012 124.2704997  34.4859988  74.0299769 123.5024227  34.4716159
  75.3700012 121.4014997  35.1239988  74.5070012 121.0224997  34.9579988
  75.9750012 120.6624997  35.0499988  75.3335979 121.2498023  35.0912817
  73.0950012 117.5564997  18.2969988  73.7060012 117.1854997  18.9339988
  72.2590012 117.1354997  18.4929988  73.0655032 117.4487554  18.4107035
  72.7280012 119.1114997  23.2629988  73.0080012 118.2044997  23.3869988
  73.4870012 119.5454997  22.8739988  72.8689277 119.0460942  23.2273682
  73.3400012 119.6924997  28.6989988  74.2730012 119.9044997  28.6649988
  73.1050012 119.7944997  29.6209988  73.4358036 119.7352769  28.8189976
  73.3690012 120.4294997  31.4749988  72.5260012 120.6974997  31.8409988
  73.8110012 121.2514997  31.2639988  73.3134158 120.5773291  31.4965491
  57.6500012 118.8774997  34.9519988  58.5700012 118.7554997  35.1879988
  57.2010012 118.1274997  35.3409988  57.7151580 118.7593727  35.0369006
  75.6520012 114.4094997  36.8279988  76.0020012 113.7554997  36.2229988
  75.7990012 115.2464997  36.3889988  75.7198419 114.4331591  36.6857118
  73.3410012 116.3744997  23.3109988  73.5240012 115.9254997  24.1369988
  72.7420012 115.7894997  22.8479988  73.2850202 116.2339975  23.3613275
  58.8710012 117.1894997  27.8429988  59.3170012 116.3974997  28.1449988
  59.3380012 117.9054997  28.2739988  58.9950172 117.1780624  27.9424820
  57.1750012 120.1884997  28.9119988  57.6670012 119.9674997  28.1209988
  57.5380012 121.0294997  29.1929988  57.2913126 120.2718357  28.8417531
  75.1720012 116.5184997  35.1779988  74.2540012 116.7894997  35.1419988
  75.2950012 115.9834997  34.3929988  75.0631066 116.4832892  35.0670487
  75.2080012 116.4414997  19.8389988  75.6200012 115.7204997  19.3639988
  75.8900012 117.1114997  19.8979988  75.3565885 116.4332368  19.7818915
  57.4890012 116.4464997  22.9659988  56.5640012 116.6554997  22.8369988
  57.9430012 116.9304997  22.2769988  57.4237368 116.5405993  22.8551226
  72.2600012 131.4304997  24.9119988  72.9120012 131.0834997  24.3039988
  72.7700012 131.9194997  25.5579988  72.4182637 131.4490597  24.9160236
  57.4530012 115.1844997  31.3109988  56.7880012 114.9384997  31.9539988
  57.0100012 115.8064997  30.7329988  57.3020956 115.2348632  31.3209352
  59.6450012 128.3594997  35.4549988  58.8240012 128.5344997  34.9949988
  59.3920012 128.2864997  36.3759988  59.4986164 128.3735622  35.5164923
  62.5990012 129.3344997  31.7139988  62.1740012 130.1434997  31.4309988
  63.5030012 129.4194997  31.4119988  62.6630271 129.4568469  31.6343776
  66.9100012 130.7334997  34.6729988  67.0950012 130.3994997  35.5509988
  67.7560012 131.0424997  34.3509988  67.0497539 130.7296047  34.7495605
  69.2550012 132.0194997  33.9169988  69.9320012 131.3864997  33.6769988
  69.5770012 132.4204997  34.7239988  69.3911637 131.9871154  33.9932793
  74.1720012 114.6084997  32.9969988  73.3600012 114.9334997  32.6089988
  74.4050012 113.8484997  32.4639988  74.0923423 114.5502436  32.8718253
  60.0010012 132.5904997  31.7609988  59.2800012 133.0304997  31.3099988
  59.6350012 132.3394997  32.6099988  59.8529804 132.6167698  31.8139840
  62.4680012 132.1904997  30.7909988  61.6030012 132.2624997  31.1949988
  62.4130012 132.7374997  30.0069988  62.3422085 132.2742685  30.7403362
  67.1780012 132.0784997  29.9659988  66.7220012 132.6074997  29.3119988
  67.3410012 132.6814997  30.6919988  67.1375585 132.2324468  29.9745062
  69.5060012 130.9564997  30.9109988  68.6010012 131.1214997  30.6459988
  69.9350012 131.8094997  30.8459988  69.4400799 131.0944483  30.8659182
  72.1100012 132.5264997  31.2059988  71.9280012 133.4424997  30.9959988
  72.2870012 132.1164997  30.3599988  72.1090210 132.5964822  31.0627885
  59.4150012 131.2134997  28.6709988  59.3970012 130.7884997  29.5289988
  60.2200012 130.8954997  28.2629988  59.5213875 131.1123812  28.7331655
  61.5570012 129.9234997  27.3259988  61.3380012 129.0074997  27.4959988
  62.3810012 130.0634997  27.7919988  61.6384420 129.8170520  27.4122774
  64.0940012 130.3934997  28.1749988  64.3070012 129.5054997  27.8879988
  64.1580012 130.3594997  29.1289988  64.1318232 130.2673102  28.2647397
  67.6020012 116.0574997  27.3189988  66.9280012 115.4284997  27.5749988
  68.1660012 115.5734997  26.7159988  67.5859230 115.9058744  27.2725340
  72.7450012 114.1654997  27.4319988  73.3490012 114.7124997  26.9299988
  71.8750012 114.4844997  27.1919988  72.7101241 114.2835806  27.3307654
  74.4720012 115.3034997  25.7649988  75.0840012 114.7894997  25.2389988
  74.8540012 116.1814997  25.7889988  74.6074540 115.3517140  25.6961830
  59.9290012 114.6914997  25.1409988  59.1520012 114.4574997  24.6339988
  60.4590012 113.8944997  25.1499988  59.8942330 114.5516988  25.0727742
  58.7650012 114.4894997  20.9449988  59.2040012 115.1004997  20.3529988
  58.1320012 115.0274997  21.4189988  58.7394514 114.6459257  20.9280930
  64.5080012 114.6184997  24.9549988  65.3830012 115.0064997  24.9249988
  64.3720012 114.4034997  25.8769988  64.6093695 114.6425184  25.0756440
  70.0650012 114.6484997  26.6039988  70.1410012 114.7434997  25.6539988
  69.7900012 113.7404997  26.7329988  70.0382321 114.5387867  26.4915079
  71.4180012 114.6744997  22.2959988  70.7160012 115.2894997  22.0869988
  70.9740012 113.8364997  22.4269988  71.2616330 114.6455783  22.2850328
  58.6660012 130.4374997  21.8429988  57.9810012 130.3994997  21.1749988
  58.6700012 131.3504997  22.1309988  58.5728193 130.5557016  21.7905284
  60.6260012 116.4054997  19.3869988  61.1180012 115.7754997  18.8599988
  61.2500012 116.7014997  20.0509988  60.7775446 116.3593199  19.4045980
  65.6520012 116.6984997  21.8439988  65.8300012 116.0524997  22.5269988
  65.5990012 117.5324997  22.3119988  65.6691829 116.7227985  22.0005940
  67.5310012 131.6474997  20.2399988  68.3970012 132.0134997  20.0619988
  67.2840012 131.2074997  19.4259988  67.6162392 131.6381756  20.1056289
  74.2400012 131.2104997  22.9189988  74.0450012 130.4624997  22.3539988
  74.2010012 131.9684997  22.3359988  74.2080380 131.2106099  22.7628384
  59.8870012 115.2054997  34.6589988  59.5210012 114.4404997  35.1019988
  60.8000012 115.2344997  34.9459988  59.9602790 115.1047224  34.7584070
  61.8600012 114.5564997  36.1949988  62.7580012 114.2824997  36.0099988
  61.4730012 113.8134997  36.6589988  61.9306612 114.4185914  36.2323643
  60.4840012 131.3574997  18.8679988  60.2170012 131.6444997  19.7409988
  61.2560012 130.8114997  19.0199988  60.5517488 131.3230294  19.0081050
  70.2810012 113.8884997  36.3769988  70.3580012 113.4624997  37.2309988
  71.1750012 113.9024997  36.0339988  70.4123428 113.8320879  36.4475310
  73.4570012 129.9614997  35.0689988  72.6750012 129.7754997  34.5499988
  73.3850012 130.8904997  35.2869988  73.3401777 130.0616492  35.0274048
  87.8630012 123.8474997  25.0999988  87.9520012 124.7914997  24.9679988
  87.2250012 123.5724997  24.4419988  87.7889081 123.9394830  24.9929614
  86.7960012 123.1024997  28.5189988  86.7580012 122.4564997  29.2239988
  86.4740012 122.6364997  27.7479988  86.7472333 122.9509408  28.5112978
  79.1650012 122.7174997  30.1119988  79.2060012 122.0914997  30.8349988
  79.8680012 123.3414997  30.2939988  79.2656363 122.7161196  30.2356044
  90.5020012 126.0414997  26.8199988  90.0620012 125.3214997  27.2709988
  90.4890012 126.7624997  27.4499988  90.4400226 126.0403731  26.9668494
  80.0880012 127.1674997  28.6469988  79.7190012 126.3654997  28.2769988
  81.0290012 126.9984997  28.6929988  80.1647289 127.0350153  28.6026316
  76.6980012 120.8274997  24.0399988  76.2510012 121.6734997  24.0209988
  76.1370012 120.2474997  23.5239988  76.5609900 120.8649916  23.9676801
  77.4090012 122.9894997  26.1659988  77.6220012 122.2194997  26.6929988
  78.1470012 123.0784997  25.5619988  77.5378496 122.8961394  26.1565300
  87.6140012 131.1464997  27.0329988  88.2340012 130.4694997  26.7589988
  87.4060012 130.9284997  27.9409988  87.6706904 131.0243870  27.1183365
  85.1860012 125.5354997  28.9249988  85.4900012 124.8494997  28.3299988
  85.9070012 125.6534997  29.5429988  85.3250671 125.4576305  28.9271816
  93.8490012 117.1364997  29.7859988  93.8980012 117.7464997  30.5219988
  94.2740012 117.5974997  29.0629988  93.9131824 117.2823741  29.7890205
  88.3270012 119.9294997  29.2529988  88.4690012 118.9834997  29.2729988
  88.2200012 120.1364997  28.3239988  88.3319864 119.8279534  29.1302339
  81.4810012 118.0304997  26.5249988  81.5250012 118.8904997  26.1069988
  81.0240012 117.4784997  25.8909988  81.4252185 118.0735799  26.3820299
  89.2040012 118.1614997  24.9259988  89.8500012 117.8324997  25.5509988
  89.7140012 118.6794997  24.3029988  89.3614264 118.1864611  24.9273862
  78.1020012 120.4274997  27.2869988  78.7550012 119.8774997  27.7189988
  78.1260012 120.1534997  26.3699988  78.1946683 120.3151466  27.2222123
  83.2580012 121.9774997  26.5019988  83.8740012 121.4514997  27.0119988
  82.6720012 121.3374997  26.0989988  83.2630810 121.8189208  26.5173173
  94.2400012 118.6144997  32.0219988  93.5520012 119.2724997  31.9259988
  94.2560012 118.4174997  32.9579988  94.1478525 118.6780462  32.1354808
  80.2920012 116.9484997  30.5989988  80.0730012 117.4784997  29.8329988
  79.6240012 117.1754997  31.2459988  80.1717600 117.0516906  30.5816379
  87.6610012 126.4484997  24.1429988  87.3650012 126.1264997  23.2919988
  87.3360012 127.3484997  24.1839988  87.5766371 126.5260215  24.0321801
  82.8610012 124.6244997  30.8859988  82.1210012 125.2224997  30.9899988
  83.5750012 125.1784997  30.5709988  82.8562237 124.7812831  30.8576465
  90.9680012 117.4524997  26.9059988  90.7520012 116.6864997  27.4389988
  91.6230012 117.9244997  27.4189988  91.0270632 117.4115889  27.0482861
  79.8850012 118.8404997  28.5509988  80.4990012 119.4734997  28.9249988
  80.3970012 118.3684997  27.8949988  80.0382296 118.8632370  28.5134252
  81.2680012 126.5884997  31.6739988  81.2630012 127.4684997  31.2959988
  80.4150012 126.5054997  32.0989988  81.1519464 126.6976117  31.6797907
  77.3890012 126.2594997  22.4559988  77.1170012 126.4884997  21.5669988
  77.4350012 127.0974997  22.9159988  77.3580094 126.4041213  22.3965697
  91.0140012 127.8814997  29.1679988  90.0730012 127.9394997  29.3299988
  91.2910012 128.7874997  29.0309988  90.9224679 128.0119443  29.1716815
  91.3150012 116.1674997  30.5859988  90.5790012 116.7784997  30.5479988
  91.9980012 116.5824997  30.0589988  91.3066541 116.3071374  30.5095832
  84.3180012 114.2544997  28.0519988  84.2010012 113.3054997  27.9969988
  83.4630012 114.5864997  28.3249988  84.1863733 114.1695409  28.0813897
  89.2660012 129.6624997  25.7939988  89.6920012 128.9554997  25.3089988
  89.5830012 130.4634997  25.3769988  89.3671019 129.6740994  25.6713130
  90.4260012 127.5634997  24.3019988  90.1680012 126.8734997  23.6909988
  90.4970012 127.1204997  25.1479988  90.4002856 127.4092124  24.3326885
  92.1120012 126.1294997  32.7799988  92.2520012 125.5384997  32.0399988
  92.2790012 127.0024997  32.4229988  92.1536778 126.1666426  32.6306965
  86.5850012 123.0914997  22.5519988  85.8730012 123.6264997  22.1999988
  87.2760012 123.1474997  21.8919988  86.5810132 123.1722543  22.4146289
  86.6380012 121.5494997  19.5909988  87.3390012 121.5714997  20.2419988
  86.9410012 120.9214997  18.9349988  86.7747830 121.4676566  19.5913711
  93.9540012 122.4694997  30.8459988  93.3010012 123.1644997  30.9349988
  94.4190012 122.6794997  30.0359988  93.9275390 122.5929425  30.7486883
  89.9900012 123.3014997  23.5039988  89.2580012 123.5294997  24.0769988
  90.4380012 122.5874997  23.9589988  89.9503095 123.2362571  23.6439119
  89.8880012 121.4754997  32.5709988  89.9680012 122.2384997  33.1429988
  89.2860012 121.7544997  31.8809988  89.8175756 121.6177134  32.5560589
  81.6360012 123.9314997  25.3859988  81.3050012 123.5614997  24.5679988
  82.2240012 123.2614997  25.7329988  81.6701873 123.7901156  25.3208102
  83.0020012 127.3594997  28.0679988  82.9080012 126.7814997  27.3109988
  83.7320012 126.9884997  28.5639988  83.0877981 127.2302390  28.0314165
  82.0020012 122.7004997  29.0199988  82.5680012 122.8214997  28.2569988
  82.3210012 123.3374997  29.6589988  82.1225786 122.8031884  29.0020040
  88.3110012 128.2034997  29.7539988  88.0710012 128.8654997  30.4019988
  88.1130012 127.3694997  30.1789988  88.2513808 128.1813134  29.9001524
  82.8820012 127.0994997  33.7369988  82.5710012 127.8814997  34.1919988
  82.2320012 126.9464997  33.0509988  82.7515558 127.1859105  33.7065871
  88.8610012 122.4634997  21.1889988  89.4410012 122.6134997  21.9359988
  89.2750012 122.9344997  20.4659988  88.9962830 122.5476841  21.1934134
  79.8020012 123.2974997  32.9659988  79.8730012 123.9484997  33.6639988
  78.9120012 123.4004997  32.6309988  79.6913117 123.4005936  33.0162700
  86.5880012 129.2004997  24.6239988  87.0620012 129.4954997  25.4019988
  86.0250012 129.9384997  24.3909988  86.5767653 129.3406932  24.6990136
  81.1220012 129.1714997  34.4999988  81.1290012 129.0354997  33.5529988
  80.2060012 129.0534997  34.7519988  80.9991714 129.1369430  34.4044666
  92.5600012 114.2134997  21.0019988  91.6600012 114.3524997  21.2969988
  92.8120012 115.0444997  20.5999988  92.4708702 114.3449074  20.9880205
  80.6260012 123.0014997  22.9759988  80.3340012 123.7694997  22.4849988
  79.9520012 122.3414997  22.8129988  80.4949081 123.0174406  22.8867340
  93.7490012 128.5794997  19.3779988  93.8230012 129.5184997  19.5489988
  94.6550012 128.2744997  19.3219988  93.8815100 128.6666722  19.3938119
  76.7190012 125.3644997  31.7909988  76.2180012 125.3364997  30.9759988
  76.7240012 124.4584997  32.0999988  76.6511526 125.2382278  31.7212872
  76.4690012 128.1444997  28.6749988  77.4150012 128.0004997  28.6559988
  76.3570012 128.9284997  29.2119988  76.5832727 128.2308046  28.7450072
  94.6670012 128.8104997  34.3569988  94.6180012 127.8554997  34.3199988
  93.8400012 129.0784997  34.7579988  94.5484940 128.7158998  34.4061375
  85.6460012 128.3844997  33.2329988  85.7330012 129.2104997  33.7079988
  84.7820012 128.0544997  33.4819988  85.5411964 128.4529878  33.3316549
  86.0600012 132.1564997  23.0389988  85.9850012 132.0354997  22.0929988
  86.0930012 133.1064997  23.1579988  86.0541848 132.2682500  22.9254834
  79.7130012 130.9454997  24.8199988  79.8660012 130.5974997  25.6989988
  78.8630012 130.5894997  24.5649988  79.6188962 130.8496650  24.9058340
  89.1620012 131.3104997  20.0409988  89.5370012 130.5664997  19.5709988
  89.1660012 131.0404997  20.9599988  89.2138915 131.1721486  20.1007824
  88.8310012 131.2364997  22.7909988  87.8950012 131.3364997  22.9689988
  89.1110012 130.5274997  23.3689988  88.7408255 131.1542711  22.8935391
  91.8190012 120.3034997  34.8369988  91.4120012 120.7844997  34.1159988
  91.8600012 119.3984997  34.5289988  91.7688437 120.2469374  34.6966683
  78.9680012 126.6874997  32.8339988  79.1840012 126.3264997  33.6929988
  78.1130012 126.3134997  32.6239988  78.8819292 126.5874111  32.9233386
  81.5870012 115.1574997  28.8289988  80.7250012 115.0704997  28.4219988
  81.5640012 116.0134997  29.2569988  81.4660330 115.2612765  28.8311863
  86.2500012 114.8794997  32.2039988  86.6700012 114.4644997  32.9569988
  85.3170012 114.7014997  32.3209988  86.1813644 114.7985900  32.3229539
  89.5760012 118.6354997  33.0569988  89.0620012 118.5094997  33.8549988
  89.4210012 119.5474997  32.8129988  89.4846852 118.7416132  33.1332158
  90.3390012 123.4964997  18.8189988  90.3810012 123.2734997  17.8889988
  91.1880012 123.8954997  19.0089988  90.4595396 123.5199155  18.7173627
  85.9110012 117.3724997  19.4889988  85.6580012 117.3914997  20.4119988
  85.6550012 116.5004997  19.1879988  85.8417790 117.2572437  19.5746263
  81.6780012 120.1234997  29.9239988  81.0360012 120.0824997  30.6329988
  81.7150012 121.0494997  29.6869988  81.5951324 120.2431559  29.9889824
  81.6750012 120.3444997  24.8359988  80.7820012 120.0034997  24.7779988
  82.1250012 119.9674997  24.0809988  81.6137305 120.2468484  24.7259177
  87.2100012 120.7604997  23.6529988  86.8010012 121.5754997  23.3619988
  87.9310012 120.6204997  23.0389988  87.2514537 120.8532018  23.5301342
  86.3120012 120.9354997  35.1409988  85.7500012 120.2314997  35.4619988
  87.1390012 120.8154997  35.6089988  86.3467095 120.8227883  35.2482330
  88.2150012 120.2064997  26.4669988  88.0200012 120.8114997  25.7519988
  88.3960012 119.3724997  26.0329988  88.2127614 120.1766300  26.3104405
  79.4280012 120.4434997  31.7909988  79.3900012 120.8434997  32.6599988
  78.9370012 119.6264997  31.8819988  79.3564684 120.3878069  31.9221059
  82.7940012 117.8174997  18.5899988  82.3630012 117.3724997  19.3199988
  82.0760012 118.1894997  18.0779988  82.6379438 117.8068940  18.6206799
  76.0360012 117.5594997  25.6419988  76.6670012 117.5304997  26.3609988
  76.4850012 117.1344997  24.9119988  76.1830774 117.4980492  25.6416553
  77.3100012 118.3054997  21.0659988  77.7840012 118.8964997  20.4809988
  76.5930012 118.8364997  21.4129988  77.2779341 118.4580867  21.0328836
  87.4790012 121.8444997  31.1389988  87.8020012 121.2134997  30.4959988
  87.0390012 121.3094997  31.7989988  87.4636895 121.6858441  31.1402850
  84.2560012 117.7714997  25.9229988  83.3450012 117.8284997  26.2109988
  84.7620012 117.7114997  26.7329988  84.1995413 117.7711985  26.0720622
  79.0850012 119.4004997  24.7489988  78.1950012 119.5004997  24.4089988
  79.3810012 118.5584997  24.4029988  79.0032823 119.3003545  24.6557213
  82.7380012 119.4004997  22.4059988  83.6690012 119.5294997  22.5839988
  82.5230012 120.0704997  21.7559988  82.8364247 119.5086565  22.3425747
  88.6610012 117.0064997  29.1869988  87.9850012 117.1374997  29.8509988
  88.1760012 116.8514997  28.3769988  88.5027145 117.0034905  29.1684517
  81.4120012 120.5954997  19.9729988  80.8690012 120.2154997  19.2809988
  82.2450012 120.7894997  19.5439988  81.4504399 120.5698124  19.8204526
  91.9490012 132.6784997  35.4639988  92.1490012 133.1024997  34.6289988
  92.6040012 133.0214997  36.0709988  92.0650051 132.7829648  35.4317836
  79.5470012 125.1524997  35.0719988  80.2790012 125.4064997  35.6329988
  78.7670012 125.3564997  35.5869988  79.5418232 125.2149177  35.2185760
  85.5760012 120.5594997  27.8099988  86.1410012 120.0124997  27.2629988
  85.4290012 120.0374997  28.5979988  85.6332918 120.4142024  27.8418454
  80.5780012 116.6954997  24.2279988  80.2610012 115.7934997  24.1929988
  81.3600012 116.6974997  23.6749988  80.6402284 116.5721628  24.1484783
  84.2030012 118.9474997  30.2239988  83.3670012 119.4014997  30.3339988
  84.7270012 119.2234997  30.9759988  84.1594414 119.0469376  30.3407136
  84.7470012 125.1604997  21.9079988  84.0020012 124.6534997  21.5859988
  84.6130012 125.2094997  22.8549988  84.6268776 125.0976940  21.9918647
  91.8970012 124.2934997  30.6949988  92.5390012 124.7504997  30.1509988
  91.0670012 124.4064997  30.2319988  91.8725963 124.3712704  30.5580177
  88.6450012 117.9744997  20.1079988  87.7060012 118.0864997  19.9559988
  88.9420012 118.8314997  20.4139988  88.5567666 118.1056443  20.1285768
  86.2660012 125.3444997  33.1449988  85.9210012 124.9634997  33.9519988
  86.0660012 126.2784997  33.2169988  86.1918061 125.4185228  33.2650961
  89.3630012 119.8414997  21.7679988  90.2550012 119.7044997  22.0869988
  89.4200012 120.6324997  21.2319988  89.4926285 119.9296660  21.7391691
  79.8720012 124.4554997  27.6779988  80.6170012 124.4534997  27.0769988
  79.9500012 123.6324997  28.1599988  79.9845518 124.3439315  27.6608929
  86.8730012 126.6194997  20.9339988  86.5770012 127.4454997  21.3149988
  86.1700012 125.9994997  21.1299988  86.7374914 126.6488199  21.0126443
  76.8800012 122.9164997  32.9929988  77.1030012 122.4984997  33.8249988
  76.2780012 122.3034997  32.5699988  76.8291759 122.7764668  33.0497022
  83.8960012 122.4334997  35.2059988  83.6000012 122.2674997  34.3109988
  84.8280012 122.2134997  35.1949988  83.9814166 122.3810640  35.0820536
  88.5170012 127.8064997  33.0959988  87.6160012 127.9894997  32.8279988
  88.5510012 128.0654997  34.0169988  88.3983041 127.8665512  33.1838197
  94.2480012 120.0514997  21.4629988  93.6940012 119.6554997  20.7909988
  94.3480012 120.9614997  21.1849988  94.1857059 120.1203586  21.3334401
  94.2110012 125.8514997  34.2999988  93.3600012 126.0894997  33.9329988
  94.8020012 125.8344997  33.5469988  94.1742487 125.8818258  34.1478893
  92.5430012 128.8374997  21.9279988  92.1700012 128.0114997  22.2369988
  92.8210012 128.6544997  21.0309988  92.5295630 128.6997303  21.8489626
  89.7040012 123.6454997  28.9489988  88.7750012 123.4134997  28.9219988
  90.1550012 122.8684997  28.6189988  89.6379216 123.5087238  28.9006917
  82.2470012 127.9734997  25.0819988  82.7740012 128.7464997  24.8819988
  81.3670012 128.1984997  24.7809988  82.2001773 128.1098005  25.0139010
  78.0020012 122.8354997  19.6689988  78.6180012 123.4624997  20.0489988
  77.1400012 123.1514997  19.9409988  77.9697698 122.9639430  19.7577183
  83.6740012 125.6364997  24.6589988  83.4330012 126.5614997  24.6999988
  82.9330012 125.1774997  25.0549988  83.5408409 125.7011421  24.7181377
  84.1890012 129.7854997  30.9739988  84.5510012 130.6404997  30.7399988
  84.7200012 129.4934997  31.7139988  84.3104473 129.8631060  31.0420855
  82.3570012 130.6584997  24.2039988  81.4070012 130.7634997  24.2549988
  82.7090012 131.4784997  24.5489988  82.2744203 130.7838314  24.2576650
  87.7330012 125.8844997  30.6739988  87.3070012 125.6574997  31.5009988
  88.3130012 125.1464997  30.4919988  87.7531868 125.7535299  30.7625830
  89.9360012 126.8134997  19.7479988  90.2890012 126.4334997  20.5529988
  88.9870012 126.7204997  19.8349988  89.8560441 126.7489596  19.8698559
  90.3910012 130.4364997  33.1439988  89.7900012 129.8814997  32.6479988
  90.6730012 131.1034997  32.5179988  90.3468519 130.4506841  32.9914952
  94.4390012 131.2934997  19.9489988  95.1830012 131.8794997  19.8089988
  93.7450012 131.8614997  20.2829988  94.4470292 131.4505582  19.9749961
  78.5140012 117.6694997  32.5509988  77.6210012 118.0084997  32.4829988
  78.4150012 116.8144997  32.9689988  78.3784164 117.6002588  32.5982235
  90.8020012 125.4864997  21.9749988  90.5240012 124.7584997  22.5309988
  91.7290012 125.6054997  22.1799988  90.8893124 125.4028802  22.0788845
  78.1650012 129.4744997  30.9859988  78.3820012 128.5424997  30.9549988
  78.4110012 129.7484997  31.8689988  78.2279549 129.3840636  31.1011763
  84.0270012 127.9254997  18.1949988  84.2660012 127.1774997  17.6479988
  83.7580012 127.5374997  19.0279988  84.0233675 127.7706638  18.2326865
  82.9640012 127.4954997  20.6519988  83.1100012 126.9754997  21.4419988
  82.9610012 128.4024997  20.9579988  82.9835989 127.5468853  20.8016088
  79.4170012 124.7484997  21.1619988  78.7310012 125.1004997  21.7289988
  79.9390012 125.5114997  20.9149988  79.3936852 124.8998578  21.2062118
  87.2480012 117.4104997  31.4409988  87.9470012 117.4844997  32.0909988
  86.8670012 116.5464997  31.5949988  87.2921767 117.3037624  31.5508322
  88.0330012 117.0624997  22.5379988  88.2530012 117.5344997  21.7349988
  88.5910012 117.4574997  23.2079988  88.1384968 117.1804285  22.5187331
  85.7010012 129.1934997  21.4009988  84.8850012 129.6904997  21.4529988
  86.2310012 129.6684997  20.7609988  85.6609161 129.3257722  21.3215956
  85.2330012 118.7904997  23.3729988  86.0450012 119.2954997  23.4189988
  84.9880012 118.6454997  24.2869988  85.3110520 118.8400375  23.5028517
  85.7680012 119.7764997  32.5579988  85.8870012 120.3504997  33.3149988
  86.4240012 119.0884997  32.6719988  85.8729757 119.7621079  32.6770825
  86.1160012 115.8714997  24.3109988  85.7700012 116.4894997  24.9559988
  86.7750012 116.3724997  23.8299988  86.1577826 116.0235802  24.3340971
  83.0400012 130.2374997  21.3829988  83.2000012 131.0364997  20.8819988
  82.8420012 130.5434997  22.2679988  83.0351649 130.3884469  21.4339815
  81.7740012 116.9344997  20.9979988  81.6910012 117.8234997  21.3449988
  82.6640012 116.6694997  21.2299988  81.8829469 117.0201430  21.0767626
  91.9730012 117.6834997  33.3929988  91.0560012 117.9464997  33.3049988
  92.3080012 117.6804997  32.4959988  91.8929900 117.7190224  33.2597919
  90.5750012 121.4344997  27.4879988  89.7770012 121.0194997  27.1599988
  91.0200012 120.7434997  27.9789988  90.5259885 121.2843543  27.5094889
  80.0330012 127.3624997  20.0589988  80.6250012 128.0614997  20.3349988
  80.4920012 126.9294997  19.3389988  80.1761142 127.3997049  19.9994830
  78.3490012 120.0264997  19.1749988  78.3040012 120.9654997  19.3529988
  77.4610012 119.7904997  18.9049988  78.2228574 120.1231892  19.1628912
  91.6610012 130.6904997  29.1109988  91.5060012 131.3684997  28.4539988
  92.5940012 130.7624997  29.3139988  91.7658500 130.7930170  29.0485119
  79.1570012 114.8084997  27.8479988  78.9280012 114.8674997  26.9199988
  78.7140012 114.0164997  28.1539988  79.0658530 114.7095753  27.7624786
  78.0870012 128.7484997  24.0079988  77.2550012 129.2214997  24.0359988
  78.6330012 129.2584997  23.4099988  78.0469739 128.8821871  23.9309716
  77.3750012 131.3614997  35.3379988  77.9160012 131.1444997  36.0979988
  76.8940012 130.5554997  35.1489988  77.3839345 131.2229514  35.4163076
  81.9730012 130.2804997  36.9589988  82.7400012 129.8214997  37.2999988
  81.9510012 130.0544997  36.0289988  82.0751434 130.1870409  36.8800043
  86.0650012 129.7884997  18.3339988  85.4210012 129.1574997  18.6549988
  86.8270012 129.2574997  18.1019988  86.0798077 129.6302920  18.3466011
  88.5500012 128.6604997  35.6879988  88.1990012 127.8044997  35.9309988
  89.2760012 128.8034997  36.2949988  88.6000769 128.5625636  35.8033619
  90.6690012 129.6054997  18.5679988  90.9520012 128.8114997  19.0199988
  91.4090012 129.8384997  18.0069988  90.8077486 129.5282803  18.5540698
  77.2820012 125.1714997  36.2929988  77.4260012 124.2694997  36.0059988
  76.5100012 125.4574997  35.8049988  77.1973322 125.0868261  36.1877881
  81.6240012 125.5154997  18.4249988  81.6880012 124.7214997  18.9559988
  82.2770012 125.3964997  17.7349988  81.7210241 125.3907148  18.4044317
  83.9380012 125.1414997  35.7249988  83.6090012 125.4124997  34.8679988
  84.0900012 124.2004997  35.6379988  83.9134809 125.0513862  35.5958244
  86.9760012 126.5624997  18.1609988  86.7070012 126.7424997  19.0619988
  86.7700012 125.6364997  18.0299988  86.9113825 126.4620152  18.2665214
  89.6720012 125.0574997  33.1089988  90.4180012 125.6454997  32.9889988
  88.9150012 125.6394997  33.1719988  89.6717554 125.2167011  33.1010907
  78.1150012 122.3714997  35.7129988  78.5230012 121.5144997  35.5919988
  77.8550012 122.3864997  36.6339988  78.1357568 122.2560807  35.8209588
  82.7730012 123.4874997  20.7309988  82.3130012 123.0034997  21.4169988
  83.0280012 122.8194997  20.0949988  82.7444902 123.3308731  20.7389334
  82.0620012 121.3804997  33.0869988  81.4440012 122.0554997  33.3669988
  82.4060012 121.7014997  32.2539988  82.0239615 121.5162721  33.0126581
  83.8440012 121.7304997  18.9929988  83.6640012 121.5764997  18.0659988
  84.7940012 121.8384997  19.0379988  83.9477776 121.7240175  18.8721843
  87.0820012 123.8524997  36.3639988  88.0350012 123.9354997  36.3369988
  86.9210012 123.1404997  36.9839988  87.1906426 123.7676746  36.4440579
  93.2340012 124.0854997  18.4389988  92.9600012 123.6604997  17.6259988
  93.2730012 125.0164997  18.2219988  93.2017699 124.1532484  18.2983610
  82.4010012 118.7354997  34.1689988  82.5510012 118.0064997  33.5669988
  82.4040012 119.5124997  33.6099988  82.4219302 118.7407851  34.0110692
  82.8140012 117.1054997  31.6619988  83.3500012 117.5564997  31.0099988
  81.9620012 116.9974997  31.2389988  82.7722178 117.1526390  31.5155756
  84.3960012 122.5444997  31.9009988  85.1460012 122.3884997  31.3279988
  84.0570012 123.3964997  31.6259988  84.4528921 122.6382968  31.7853561
  88.8110012 120.3594997  36.9299988  89.0040012 119.4284997  36.8179988
  89.6690012 120.7844997  36.9199988  88.9533020 120.2896389  36.9133361
  90.1280012 123.1484997  35.0069988  89.8470012 123.8574997  34.4299988
  91.0710012 123.0754997  34.8559988  90.2169027 123.2357646  34.9075551
  80.8800012 119.9334997  36.0809988  80.1130012 119.4014997  35.8709988
  81.5590012 119.6234997  35.4809988  80.8667022 119.8187506  35.9711648
  83.6200012 114.5614997  32.0929988  83.5210012 115.5084997  31.9879988
  82.8770012 114.1894997  31.6179988  83.5060564 114.6405902  32.0144560
  84.8840012 118.8834997  35.6569988  84.6480012 118.6634997  36.5589988
  84.1000012 118.6764997  35.1469988  84.7458628 118.8254760  35.7113932
  87.5990012 118.0104997  34.7329988  86.6520012 118.0424997  34.8649988
  87.9120012 117.3854997  35.3859988  87.5115475 117.9303207  34.8394455
  89.2330012 116.6444997  36.7379988  89.1370012 115.6924997  36.7319988
  88.9120012 116.9134997  37.5979988  89.1764070 116.5504035  36.8535441
  79.0600012 117.8544997  35.7849988  79.2720012 117.1474997  35.1749988
  78.9490012 117.4164997  36.6289988  79.0739721 117.6987084  35.8156843
  83.8410012 113.8554997  34.7649988  84.5530012 113.2154997  34.7509988
  83.7400012 114.1224997  33.8509988  83.9247939 113.8039938  34.6395650
  84.1950012 115.5384997  36.8179988  84.0630012 115.0624997  35.9979988
  83.5960012 116.2824997  36.7629988  84.0959071 115.5739618  36.6982886
  83.7410012 132.4214997  19.9949988  84.6740012 132.5794997  20.1379988
  83.4770012 133.0964997  19.3699988  83.8329510 132.5343611  19.9300741
  77.3100012 127.0574997  19.4769988  78.2240012 127.1364997  19.7509988
  77.3170012 126.3704997  18.8109988  77.4361131 126.9753961  19.4244393
  75.9590012 132.4504997  24.5549988  75.3120012 131.9884997  24.0219988
  76.3130012 131.7784997  25.1369988  75.9183849 132.2964723  24.5607959
  76.8290012 130.5314997  26.3589988  76.4940012 129.6514997  26.5309988
  77.0510012 130.8764997  27.2239988  76.8131783 130.4577500  26.4994208
  94.3770012 131.3404997  29.3399988  94.3560012 131.5254997  30.2789988
  95.0680012 131.9094997  28.9989988  94.4674618 131.4426606  29.4223864
  93.9410012 130.9084997  32.2619988  93.4530012 130.1724997  31.8909988
  94.4900012 130.5144997  32.9399988  93.9484872 130.7546249  32.3029160
  92.3910012 126.6974997  36.8999988  91.5250012 126.5924997  37.2939988
  92.7680012 127.4564997  37.3459988  92.3233308 126.7856900  37.0142393
  93.6920012 124.9544997  22.4139988  94.5420012 125.3754997  22.5409988
  93.6980012 124.2144997  23.0209988  93.8091372 124.9120803  22.5134344
  94.0870012 123.0074997  24.2379988  93.3600012 122.5284997  24.6349988
  94.6680012 123.2134997  24.9699988  94.0659375 122.9697090  24.3914129
  93.8460012 125.7924997  29.1849988  94.6790012 125.4144997  28.9049988
  93.9580012 126.7354997  29.0659988  93.9752647 125.8682218  29.1305487
  92.3320012 128.6704997  31.4919988  91.6850012 128.9954997  32.1179988
  91.8150012 128.2304997  30.8179988  92.1734029 128.6555004  31.4865827
  94.3550012 122.9084997  20.6289988  93.8330012 123.2654997  19.9099988
  94.3220012 123.5834997  21.3069988  94.2791634 123.0485413  20.6223145
  92.7040012 120.1484997  19.1799988  92.8000012 120.8154997  18.4989988
  92.5640012 119.3324997  18.6979988  92.6982135 120.1294500  19.0218491
  91.8730012 121.5284997  24.8009988  91.7230012 120.5834997  24.7799988
  91.5200012 121.8094997  25.6439988  91.8046625 121.4370441  24.9122346
  76.9090012 123.6064997  28.8109988  77.0930012 123.5244997  27.8749988
  77.7580012 123.4824997  29.2349988  77.0490139 123.5785003  28.7401455
  92.7300012 123.4984997  34.4389988  93.3130012 122.7644997  34.6309988
  93.2940012 124.2704997  34.4859988  92.8859769 123.5024227  34.4716159
  94.2260012 121.4014997  35.1239988  93.3630012 121.0224997  34.9579988
  94.8310012 120.6624997  35.0499988  94.1895979 121.2498023  35.0912817
  91.9510012 117.5564997  18.2969988  92.5620012 117.1854997  18.9339988
  91.1150012 117.1354997  18.4929988  91.9215032 117.4487554  18.4107035
  91.5840012 119.1114997  23.2629988  91.8640012 118.2044997  23.3869988
  92.3430012 119.5454997  22.8739988  91.7249277 119.0460942  23.2273682
  92.1960012 119.6924997  28.6989988  93.1290012 119.9044997  28.6649988
  91.9610012 119.7944997  29.6209988  92.2918036 119.7352769  28.8189976
  92.2250012 120.4294997  31.4749988  91.3820012 120.6974997  31.8409988
  92.6670012 121.2514997  31.2639988  92.1694158 120.5773291  31.4965491
  76.5060012 118.8774997  34.9519988  77.4260012 118.7554997  35.1879988
  76.0570012 118.1274997  35.3409988  76.5711580 118.7593727  35.0369006
  94.5080012 114.4094997  36.8279988  94.8580012 113.7554997  36.2229988
  94.6550012 115.2464997  36.3889988  94.5758419 114.4331591  36.6857118
  92.1970012 116.3744997  23.3109988  92.3800012 115.9254997  24.1369988
  91.5980012 115.7894997  22.8479988  92.1410202 116.2339975  23.3613275
  77.7270012 117.1894997  27.8429988  78.1730012 116.3974997  28.1449988
  78.1940012 117.9054997  28.2739988  77.8510172 117.1780624  27.9424820
  76.0310012 120.1884997  28.9119988  76.5230012 119.9674997  28.1209988
  76.3940012 121.0294997  29.1929988  76.1473126 120.2718357  28.8417531
  94.0280012 116.5184997  35.1779988  93.1100012 116.7894997  35.1419988
  94.1510012 115.9834997  34.3929988  93.9191066 116.4832892  35.0670487
  94.0640012 116.4414997  19.8389988  94.4760012 115.7204997  19.3639988
  94.7460012 117.1114997  19.8979988  94.2125885 116.4332368  19.7818915
  76.3450012 116.4464997  22.9659988  75.4200012 116.6554997  22.8369988
  76.7990012 116.9304997  22.2769988  76.2797368 116.5405993  22.8551226
  91.1160012 131.4304997  24.9119988  91.7680012 131.0834997  24.3039988
  91.6260012 131.9194997  25.5579988  91.2742637 131.4490597  24.9160236
  76.3090012 115.1844997  31.3109988  75.6440012 114.9384997  31.9539988
  75.8660012 115.8064997  30.7329988  76.1580956 115.2348632  31.3209352
  78.5010012 128.3594997  35.4549988  77.6800012 128.5344997  34.9949988
  78.2480012 128.2864997  36.3759988  78.3546164 128.3735622  35.5164923
  81.4550012 129.3344997  31.7139988  81.0300012 130.1434997  31.4309988
  82.3590012 129.4194997  31.4119988  81.5190271 129.4568469  31.6343776
  85.7660012 130.7334997  34.6729988  85.9510012 130.3994997  35.5509988
  86.6120012 131.0424997  34.3509988  85.9057539 130.7296047  34.7495605
  88.1110012 132.0194997  33.9169988  88.7880012 131.3864997  33.6769988
  88.4330012 132.4204997  34.7239988  88.2471637 131.9871154  33.9932793
  93.0280012 114.6084997  32.9969988  92.2160012 114.9334997  32.6089988
  93.2610012 113.8484997  32.4639988  92.9483423 114.5502436  32.8718253
  78.8570012 132.5904997  31.7609988  78.1360012 133.0304997  31.3099988
  78.4910012 132.3394997  32.6099988  78.7089804 132.6167698  31.8139840
  81.3240012 132.1904997  30.7909988  80.4590012 132.2624997  31.1949988
  81.2690012 132.7374997  30.0069988  81.1982085 132.2742685  30.7403362
  86.0340012 132.0784997  29.9659988  85.5780012 132.6074997  29.3119988
  86.1970012 132.6814997  30.6919988  85.9935585 132.2324468  29.9745062
  88.3620012 130.9564997  30.9109988  87.4570012 131.1214997  30.6459988
  88.7910012 131.8094997  30.8459988  88.2960799 131.0944483  30.8659182
  90.9660012 132.5264997  31.2059988  90.7840012 133.4424997  30.9959988
  91.1430012 132.1164997  30.3599988  90.9650210 132.5964822  31.0627885
  78.2710012 131.2134997  28.6709988  78.2530012 130.7884997  29.5289988
  79.0760012 130.8954997  28.2629988  78.3773875 131.1123812  28.7331655
  80.4130012 129.9234997  27.3259988  80.1940012 129.0074997  27.4959988
  81.2370012 130.0634997  27.7919988  80.4944420 129.8170520  27.4122774
  82.9500012 130.3934997  28.1749988  83.1630012 129.5054997  27.8879988
  83.0140012 130.3594997  29.1289988  82.9878232 130.2673102  28.2647397
  86.4580012 116.0574997  27.3189988  85.7840012 115.4284997  27.5749988
  87.0220012 115.5734997  26.7159988  86.4419230 115.9058744  27.2725340
  91.6010012 114.1654997  27.4319988  92.2050012 114.7124997  26.9299988
  90.7310012 114.4844997  27.1919988  91.5661241 114.2835806  27.3307654
  93.3280012 115.3034997  25.7649988  93.9400012 114.7894997  25.2389988
  93.7100012 116.1814997  25.7889988  93.4634540 115.3517140  25.6961830
  78.7850012 114.6914997  25.1409988  78.0080012 114.4574997  24.6339988
  79.3150012 113.8944997  25.1499988  78.7502330 114.5516988  25.0727742
  77.6210012 114.4894997  20.9449988  78.0600012 115.1004997  20.3529988
  76.9880012 115.0274997  21.4189988  77.5954514 114.6459257  20.9280930
  83.3640012 114.6184997  24.9549988  84.2390012 115.0064997  24.9249988
  83.2280012 114.4034997  25.8769988  83.4653695 114.6425184  25.0756440
  88.9210012 114.6484997  26.6039988  88.9970012 114.7434997  25.6539988
  88.6460012 113.7404997  26.7329988  88.8942321 114.5387867  26.4915079
  90.2740012 114.6744997  22.2959988  89.5720012 115.2894997  22.0869988
  89.8300012 113.8364997  22.4269988  90.1176330 114.6455783  22.2850328
  77.5220012 130.4374997  21.8429988  76.8370012 130.3994997  21.1749988
  77.5260012 131.3504997  22.1309988  77.4288193 130.5557016  21.7905284
  79.4820012 116.4054997  19.3869988  79.9740012 115.7754997  18.8599988
  80.1060012 116.7014997  20.0509988  79.6335446 116.3593199  19.4045980
  84.5080012 116.6984997  21.8439988  84.6860012 116.0524997  22.5269988
  84.4550012 117.5324997  22.3119988  84.5251829 116.7227985  22.0005940
  86.3870012 131.6474997  20.2399988  87.2530012 132.0134997  20.0619988
  86.1400012 131.2074997  19.4259988  86.4722392 131.6381756  20.1056289
  93.0960012 131.2104997  22.9189988  92.9010012 130.4624997  22.3539988
  93.0570012 131.9684997  22.3359988  93.0640380 131.2106099  22.7628384
  78.7430012 115.2054997  34.6589988  78.3770012 114.4404997  35.1019988
  79.6560012 115.2344997  34.9459988  78.8162790 115.1047224  34.7584070
  80.7160012 114.5564997  36.1949988  81.6140012 114.2824997  36.0099988
  80.3290012 113.8134997  36.6589988  80.7866612 114.4185914  36.2323643
  79.3400012 131.3574997  18.8679988  79.0730012 131.6444997  19.7409988
  80.1120012 130.8114997  19.0199988  79.4077488 131.3230294  19.0081050
  89.1370012 113.8884997  36.3769988  89.2140012 113.4624997  37.2309988
  90.0310012 113.9024997  36.0339988  89.2683428 113.8320879  36.4475310
  92.3130012 129.9614997  35.0689988  91.5310012 129.7754997  34.5499988
  92.2410012 130.8904997  35.2869988  92.1961777 130.0616492  35.0274048
 106.7190012 123.8474997  25.0999988 106.8080012 124.7914997  24.9679988
 106.0810012 123.5724997  24.4419988 106.6449081 123.9394830  24.9929614
 105.6520012 123.1024997  28.5189988 105.6140012 122.4564997  29.2239988
 105.3300012 122.6364997  27.7479988 105.6032333 122.9509408  28.5112978
  98.0210012 122.7174997  30.1119988  98.0620012 122.0914997  30.8349988
  98.7240012 123.3414997  30.2939988  98.1216363 122.7161196  30.2356044
 109.3580012 126.0414997  26.8199988 108.9180012 125.3214997  27.2709988
 109.3450012 126.7624997  27.4499988 109.2960226 126.0403731  26.9668494
  98.9440012 127.1674997  28.6469988  98.5750012 126.3654997  28.2769988
  99.8850012 126.9984997  28.6929988  99.0207289 127.0350153  28.6026316
  95.5540012 120.8274997  24.0399988  95.1070012 121.6734997  24.0209988
  94.9930012 120.2474997  23.5239988  95.4169900 120.8649916  23.9676801
  96.2650012 122.9894997  26.1659988  96.4780012 122.2194997  26.6929988
  97.0030012 123.0784997  25.5619988  96.3938496 122.8961394  26.1565300
 106.4700012 131.1464997  27.0329988 107.0900012 130.4694997  26.7589988
 106.2620012 130.9284997  27.9409988 106.5266904 131.0243870  27.1183365
 104.0420012 125.5354997  28.9249988 104.3460012 124.8494997  28.3299988
 104.7630012 125.6534997  29.5429988 104.1810671 125.4576305  28.9271816
 112.7050012 117.1364997  29.7859988 112.7540012 117.7464997  30.5219988
 113.1300012 117.5974997  29.0629988 112.7691824 117.2823741  29.7890205
 107.1830012 119.9294997  29.2529988 107.3250012 118.9834997  29.2729988
 107.0760012 120.1364997  28.3239988 107.1879864 119.8279534  29.1302339
 100.3370012 118.0304997  26.5249988 100.3810012 118.8904997  26.1069988
  99.8800012 117.4784997  25.8909988 100.2812185 118.0735799  26.3820299
 108.0600012 118.1614997  24.9259988 108.7060012 117.8324997  25.5509988
 108.5700012 118.6794997  24.3029988 108.2174264 118.1864611  24.9273862
  96.9580012 120.4274997  27.2869988  97.6110012 119.8774997  27.7189988
  96.9820012 120.1534997  26.3699988  97.0506683 120.3151466  27.2222123
 102.1140012 121.9774997  26.5019988 102.7300012 121.4514997  27.0119988
 101.5280012 121.3374997  26.0989988 102.1190810 121.8189208  26.5173173
 113.0960012 118.6144997  32.0219988 112.4080012 119.2724997  31.9259988
 113.1120012 118.4174997  32.9579988 113.0038525 118.6780462  32.1354808
  99.1480012 116.9484997  30.5989988  98.9290012 117.4784997  29.8329988
  98.4800012 117.1754997  31.2459988  99.0277600 117.0516906  30.5816379
 106.5170012 126.4484997  24.1429988 106.2210012 126.1264997  23.2919988
 106.1920012 127.3484997  24.1839988 106.4326371 126.5260215  24.0321801
 101.7170012 124.6244997  30.8859988 100.9770012 125.2224997  30.9899988
 102.4310012 125.1784997  30.5709988 101.7122237 124.7812831  30.8576465
 109.8240012 117.4524997  26.9059988 109.6080012 116.6864997  27.4389988
 110.4790012 117.9244997  27.4189988 109.8830632 117.4115889  27.0482861
  98.7410012 118.8404997  28.5509988  99.3550012 119.4734997  28.9249988
  99.2530012 118.3684997  27.8949988  98.8942296 118.8632370  28.5134252
 100.1240012 126.5884997  31.6739988 100.1190012 127.4684997  31.2959988
  99.2710012 126.5054997  32.0989988 100.0079464 126.6976117  31.6797907
  96.2450012 126.2594997  22.4559988  95.9730012 126.4884997  21.5669988
  96.2910012 127.0974997  22.9159988  96.2140094 126.4041213  22.3965697
 109.8700012 127.8814997  29.1679988 108.9290012 127.9394997  29.3299988
 110.1470012 128.7874997  29.0309988 109.7784679 128.0119443  29.1716815
 110.1710012 116.1674997  30.5859988 109.4350012 116.7784997  30.5479988
 110.8540012 116.5824997  30.0589988 110.1626541 116.3071374  30.5095832
 103.1740012 114.2544997  28.0519988 103.0570012 113.3054997  27.9969988
 102.3190012 114.5864997  28.3249988 103.0423733 114.1695409  28.0813897
 108.1220012 129.6624997  25.7939988 108.5480012 128.9554997  25.3089988
 108.4390012 130.4634997  25.3769988 108.2231019 129.6740994  25.6713130
 109.2820012 127.5634997  24.3019988 109.0240012 126.8734997  23.6909988
 109.3530012 127.1204997  25.1479988 109.2562856 127.4092124  24.3326885
 110.9680012 126.1294997  32.7799988 111.1080012 125.5384997  32.0399988
 111.1350012 127.0024997  32.4229988 111.0096778 126.1666426  32.6306965
 105.4410012 123.0914997  22.5519988 104.7290012 123.6264997  22.1999988
 106.1320012 123.1474997  21.8919988 105.4370132 123.1722543  22.4146289
 105.4940012 121.5494997  19.5909988 106.1950012 121.5714997  20.2419988
 105.7970012 120.9214997  18.9349988 105.6307830 121.4676566  19.5913711
 112.8100012 122.4694997  30.8459988 112.1570012 123.1644997  30.9349988
 113.2750012 122.6794997  30.0359988 112.7835390 122.5929425  30.7486883
 108.8460012 123.3014997  23.5039988 108.1140012 123.5294997  24.0769988
 109.2940012 122.5874997  23.9589988 108.8063095 123.2362571  23.6439119
 108.7440012 121.4754997  32.5709988 108.8240012 122.2384997  33.1429988
 108.1420012 121.7544997  31.8809988 108.6735756 121.6177134  32.5560589
 100.4920012 123.9314997  25.3859988 100.1610012 123.5614997  24.5679988
 101.0800012 123.2614997  25.7329988 100.5261873 123.7901156  25.3208102
 101.8580012 127.3594997  28.0679988 101.7640012 126.7814997  27.3109988
 102.5880012 126.9884997  28.5639988 101.9437981 127.2302390  28.0314165
 100.8580012 122.7004997  29.0199988 101.4240012 122.8214997  28.2569988
 101.1770012 123.3374997  29.6589988 100.9785786 122.8031884  29.0020040
 107.1670012 128.2034997  29.7539988 106.9270012 128.8654997  30.4019988
 106.9690012 127.3694997  30.1789988 107.1073808 128.1813134  29.9001524
 101.7380012 127.0994997  33.7369988 101.4270012 127.8814997  34.1919988
 101.0880012 126.9464997  33.0509988 101.6075558 127.1859105  33.7065871
 107.7170012 122.4634997  21.1889988 108.2970012 122.6134997  21.9359988
 108.1310012 122.9344997  20.4659988 107.8522830 122.5476841  21.1934134
  98.6580012 123.2974997  32.9659988  98.7290012 123.9484997  33.6639988
  97.7680012 123.4004997  32.6309988  98.5473117 123.4005936  33.0162700
 105.4440012 129.2004997  24.6239988 105.9180012 129.4954997  25.4019988
 104.8810012 129.9384997  24.3909988 105.4327653 129.3406932  24.6990136
  99.9780012 129.1714997  34.4999988  99.9850012 129.0354997  33.5529988
  99.0620012 129.0534997  34.7519988  99.8551714 129.1369430  34.4044666
 111.4160012 114.2134997  21.0019988 110.5160012 114.3524997  21.2969988
 111.6680012 115.0444997  20.5999988 111.3268702 114.3449074  20.9880205
  99.4820012 123.0014997  22.9759988  99.1900012 123.7694997  22.4849988
  98.8080012 122.3414997  22.8129988  99.3509081 123.0174406  22.8867340
 112.6050012 128.5794997  19.3779988 112.6790012 129.5184997  19.5489988
 113.5110012 128.2744997  19.3219988 112.7375100 128.6666722  19.3938119
  95.5750012 125.3644997  31.7909988  95.0740012 125.3364997  30.9759988
  95.5800012 124.4584997  32.0999988  95.5071526 125.2382278  31.7212872
  95.3250012 128.1444997  28.6749988  96.2710012 128.0004997  28.6559988
  95.2130012 128.9284997  29.2119988  95.4392727 128.2308046  28.7450072
 113.5230012 128.8104997  34.3569988 113.4740012 127.8554997  34.3199988
 112.6960012 129.0784997  34.7579988 113.4044940 128.7158998  34.4061375
 104.5020012 128.3844997  33.2329988 104.5890012 129.2104997  33.7079988
 103.6380012 128.0544997  33.4819988 104.3971964 128.4529878  33.3316549
 104.9160012 132.1564997  23.0389988 104.8410012 132.0354997  22.0929988
 104.9490012 133.1064997  23.1579988 104.9101848 132.2682500  22.9254834
  98.5690012 130.9454997  24.8199988  98.7220012 130.5974997  25.6989988
  97.7190012 130.5894997  24.5649988  98.4748962 130.8496650  24.9058340
 108.0180012 131.3104997  20.0409988 108.3930012 130.5664997  19.5709988
 108.0220012 131.0404997  20.9599988 108.0698915 131.1721486  20.1007824
 107.6870012 131.2364997  22.7909988 106.7510012 131.3364997  22.9689988
 107.9670012 130.5274997  23.3689988 107.5968255 131.1542711  22.8935391
 110.6750012 120.3034997  34.8369988 110.2680012 120.7844997  34.1159988
 110.7160012 119.3984997  34.5289988 110.6248437 120.2469374  34.6966683
  97.8240012 126.6874997  32.8339988  98.0400012 126.3264997  33.6929988
  96.9690012 126.3134997  32.6239988  97.7379292 126.5874111  32.9233386
 100.4430012 115.1574997  28.8289988  99.5810012 115.0704997  28.4219988
 100.4200012 116.0134997  29.2569988 100.3220330 115.2612765  28.8311863
 105.1060012 114.8794997  32.2039988 105.5260012 114.4644997  32.9569988
 104.1730012 114.7014997  32.3209988 105.0373644 114.7985900  32.3229539
 108.4320012 118.6354997  33.0569988 107.9180012 118.5094997  33.8549988
 108.2770012 119.5474997  32.8129988 108.3406852 118.7416132  33.1332158
 109.1950012 123.4964997  18.8189988 109.2370012 123.2734997  17.8889988
 110.0440012 123.8954997  19.0089988 109.3155396 123.5199155  18.7173627
 104.7670012 117.3724997  19.4889988 104.5140012 117.3914997  20.4119988
 104.5110012 116.5004997  19.1879988 104.6977790 117.2572437  19.5746263
 100.5340012 120.1234997  29.9239988  99.8920012 120.0824997  30.6329988
 100.5710012 121.0494997  29.6869988 100.4511324 120.2431559  29.9889824
 100.5310012 120.3444997  24.8359988  99.6380012 120.0034997  24.7779988
 100.9810012 119.9674997  24.0809988 100.4697305 120.2468484  24.7259177
 106.0660012 120.7604997  23.6529988 105.6570012 121.5754997  23.3619988
 106.7870012 120.6204997  23.0389988 106.1074537 120.8532018  23.5301342
 105.1680012 120.9354997  35.1409988 104.6060012 120.2314997  35.4619988
 105.9950012 120.8154997  35.6089988 105.2027095 120.8227883  35.2482330
 107.0710012 120.2064997  26.4669988 106.8760012 120.8114997  25.7519988
 107.2520012 119.3724997  26.0329988 107.0687614 120.1766300  26.3104405
  98.2840012 120.4434997  31.7909988  98.2460012 120.8434997  32.6599988
  97.7930012 119.6264997  31.8819988  98.2124684 120.3878069  31.9221059
 101.6500012 117.8174997  18.5899988 101.2190012 117.3724997  19.3199988
 100.9320012 118.1894997  18.0779988 101.4939438 117.8068940  18.6206799
  94.8920012 117.5594997  25.6419988  95.5230012 117.5304997  26.3609988
  95.3410012 117.1344997  24.9119988  95.0390774 117.4980492  25.6416553
  96.1660012 118.3054997  21.0659988  96.6400012 118.8964997  20.4809988
  95.4490012 118.8364997  21.4129988  96.1339341 118.4580867  21.0328836
 106.3350012 121.8444997  31.1389988 106.6580012 121.2134997  30.4959988
 105.8950012 121.3094997  31.7989988 106.3196895 121.6858441  31.1402850
 103.1120012 117.7714997  25.9229988 102.2010012 117.8284997  26.2109988
 103.6180012 117.7114997  26.7329988 103.0555413 117.7711985  26.0720622
  97.9410012 119.4004997  24.7489988  97.0510012 119.5004997  24.4089988
  98.2370012 118.5584997  24.4029988  97.8592823 119.3003545  24.6557213
 101.5940012 119.4004997  22.4059988 102.5250012 119.5294997  22.5839988
 101.3790012 120.0704997  21.7559988 101.6924247 119.5086565  22.3425747
 107.5170012 117.0064997  29.1869988 106.8410012 117.1374997  29.8509988
 107.0320012 116.8514997  28.3769988 107.3587145 117.0034905  29.1684517
 100.2680012 120.5954997  19.9729988  99.7250012 120.2154997  19.2809988
 101.1010012 120.7894997  19.5439988 100.3064399 120.5698124  19.8204526
 110.8050012 132.6784997  35.4639988 111.0050012 133.1024997  34.6289988
 111.4600012 133.0214997  36.0709988 110.9210051 132.7829648  35.4317836
  98.4030012 125.1524997  35.0719988  99.1350012 125.4064997  35.6329988
  97.6230012 125.3564997  35.5869988  98.3978232 125.2149177  35.2185760
 104.4320012 120.5594997  27.8099988 104.9970012 120.0124997  27.2629988
 104.2850012 120.0374997  28.5979988 104.4892918 120.4142024  27.8418454
  99.4340012 116.6954997  24.2279988  99.1170012 115.7934997  24.1929988
 100.2160012 116.6974997  23.6749988  99.4962284 116.5721628  24.1484783
 103.0590012 118.9474997  30.2239988 102.2230012 119.4014997  30.3339988
 103.5830012 119.2234997  30.9759988 103.0154414 119.0469376  30.3407136
 103.6030012 125.1604997  21.9079988 102.8580012 124.6534997  21.5859988
 103.4690012 125.2094997  22.8549988 103.4828776 125.0976940  21.9918647
 110.7530012 124.2934997  30.6949988 111.3950012 124.7504997  30.1509988
 109.9230012 124.4064997  30.2319988 110.7285963 124.3712704  30.5580177
 107.5010012 117.9744997  20.1079988 106.5620012 118.0864997  19.9559988
 107.7980012 118.8314997  20.4139988 107.4127666 118.1056443  20.1285768
 105.1220012 125.3444997  33.1449988 104.7770012 124.9634997  33.9519988
 104.9220012 126.2784997  33.2169988 105.0478061 125.4185228  33.2650961
 108.2190012 119.8414997  21.7679988 109.1110012 119.7044997  22.0869988
 108.2760012 120.6324997  21.2319988 108.3486285 119.9296660  21.7391690
  98.7280012 124.4554997  27.6779988  99.4730012 124.4534997  27.0769988
  98.8060012 123.6324997  28.1599988  98.8405518 124.3439315  27.6608929
 105.7290012 126.6194997  20.9339988 105.4330012 127.4454997  21.3149988
 105.0260012 125.9994997  21.1299988 105.5934914 126.6488199  21.0126443
  95.7360012 122.9164997  32.9929988  95.9590012 122.4984997  33.8249988
  95.1340012 122.3034997  32.5699988  95.6851759 122.7764668  33.0497022
 102.7520012 122.4334997  35.2059988 102.4560012 122.2674997  34.3109988
 103.6840012 122.2134997  35.1949988 102.8374166 122.3810640  35.0820536
 107.3730012 127.8064997  33.0959988 106.4720012 127.9894997  32.8279988
 107.4070012 128.0654997  34.0169988 107.2543041 127.8665512  33.1838197
 113.1040012 120.0514997  21.4629988 112.5500012 119.6554997  20.7909988
 113.2040012 120.9614997  21.1849988 113.0417059 120.1203586  21.3334401
 113.0670012 125.8514997  34.2999988 112.2160012 126.0894997  33.9329988
 113.6580012 125.8344997  33.5469988 113.0302487 125.8818258  34.1478893
 111.3990012 128.8374997  21.9279988 111.0260012 128.0114997  22.2369988
 111.6770012 128.6544997  21.0309988 111.3855630 128.6997303  21.8489626
 108.5600012 123.6454997  28.9489988 107.6310012 123.4134997  28.9219988
 109.0110012 122.8684997  28.6189988 108.4939216 123.5087238  28.9006917
 101.1030012 127.9734997  25.0819988 101.6300012 128.7464997  24.8819988
 100.2230012 128.1984997  24.7809988 101.0561773 128.1098005  25.0139010
  96.8580012 122.8354997  19.6689988  97.4740012 123.4624997  20.0489988
  95.9960012 123.1514997  19.9409988  96.8257698 122.9639430  19.7577183
 102.5300012 125.6364997  24.6589988 102.2890012 126.5614997  24.6999988
 101.7890012 125.1774997  25.0549988 102.3968409 125.7011421  24.7181377
 103.0450012 129.7854997  30.9739988 103.4070012 130.6404997  30.7399988
 103.5760012 129.4934997  31.7139988 103.1664473 129.8631060  31.0420855
 101.2130012 130.6584997  24.2039988 100.2630012 130.7634997  24.2549988
 101.5650012 131.4784997  24.5489988 101.1304203 130.7838314  24.2576650
 106.5890012 125.8844997  30.6739988 106.1630012 125.6574997  31.5009988
 107.1690012 125.1464997  30.4919988 106.6091868 125.7535299  30.7625830
 108.7920012 126.8134997  19.7479988 109.1450012 126.4334997  20.5529988
 107.8430012 126.7204997  19.8349988 108.7120441 126.7489596  19.8698559
 109.2470012 130.4364997  33.1439988 108.6460012 129.8814997  32.6479988
 109.5290012 131.1034997  32.5179988 109.2028519 130.4506841  32.9914952
 113.2950012 131.2934997  19.9489988 114.0390012 131.8794997  19.8089988
 112.6010012 131.8614997  20.2829988 113.3030292 131.4505582  19.9749961
  97.3700012 117.6694997  32.5509988  96.4770012 118.0084997  32.4829988
  97.2710012 116.8144997  32.9689988  97.2344164 117.6002588  32.5982235
 109.6580012 125.4864997  21.9749988 109.3800012 124.7584997  22.5309988
 110.5850012 125.6054997  22.1799988 109.7453124 125.4028802  22.0788845
  97.0210012 129.4744997  30.9859988  97.2380012 128.5424997  30.9549988
  97.2670012 129.7484997  31.8689988  97.0839549 129.3840636  31.1011763
 102.8830012 127.9254997  18.1949988 103.1220012 127.1774997  17.6479988
 102.6140012 127.5374997  19.0279988 102.8793675 127.7706638  18.2326865
 101.8200012 127.4954997  20.6519988 101.9660012 126.9754997  21.4419988
 101.8170012 128.4024997  20.9579988 101.8395989 127.5468853  20.8016088
  98.2730012 124.7484997  21.1619988  97.5870012 125.1004997  21.7289988
  98.7950012 125.5114997  20.9149988  98.2496852 124.8998578  21.2062118
 106.1040012 117.4104997  31.4409988 106.8030012 117.4844997  32.0909988
 105.7230012 116.5464997  31.5949988 106.1481767 117.3037624  31.5508322
 106.8890012 117.0624997  22.5379988 107.1090012 117.5344997  21.7349988
 107.4470012 117.4574997  23.2079988 106.9944968 117.1804285  22.5187331
 104.5570012 129.1934997  21.4009988 103.7410012 129.6904997  21.4529988
 105.0870012 129.6684997  20.7609988 104.5169161 129.3257722  21.3215956
 104.0890012 118.7904997  23.3729988 104.9010012 119.2954997  23.4189988
 103.8440012 118.6454997  24.2869988 104.1670520 118.8400375  23.5028517
 104.6240012 119.7764997  32.5579988 104.7430012 120.3504997  33.3149988
 105.2800012 119.0884997  32.6719988 104.7289757 119.7621079  32.6770825
 104.9720012 115.8714997  24.3109988 104.6260012 116.4894997  24.9559988
 105.6310012 116.3724997  23.8299988 105.0137826 116.0235802  24.3340971
 101.8960012 130.2374997  21.3829988 102.0560012 131.0364997  20.8819988
 101.6980012 130.5434997  22.2679988 101.8911649 130.3884469  21.4339815
 100.6300012 116.9344997  20.9979988 100.5470012 117.8234997  21.3449988
 101.5200012 116.6694997  21.2299988 100.7389469 117.0201430  21.0767626
 110.8290012 117.6834997  33.3929988 109.9120012 117.9464997  33.3049988
 111.1640012 117.6804997  32.4959988 110.7489900 117.7190224  33.2597919
 109.4310012 121.4344997  27.4879988 108.6330012 121.0194997  27.1599988
 109.8760012 120.7434997  27.9789988 109.3819885 121.2843543  27.5094889
  98.8890012 127.3624997  20.0589988  99.4810012 128.0614997  20.3349988
  99.3480012 126.9294997  19.3389988  99.0321142 127.3997049  19.9994830
  97.2050012 120.0264997  19.1749988  97.1600012 120.9654997  19.3529988
  96.3170012 119.7904997  18.9049988  97.0788574 120.1231892  19.1628912
 110.5170012 130.6904997  29.1109988 110.3620012 131.3684997  28.4539988
 111.4500012 130.7624997  29.3139988 110.6218500 130.7930170  29.0485119
  98.0130012 114.8084997  27.8479988  97.7840012 114.8674997  26.9199988
  97.5700012 114.0164997  28.1539988  97.9218530 114.7095753  27.7624786
  96.9430012 128.7484997  24.0079988  96.1110012 129.2214997  24.0359988
  97.4890012 129.2584997  23.4099988  96.9029739 128.8821871  23.9309716
  96.2310012 131.3614997  35.3379988  96.7720012 131.1444997  36.0979988
  95.7500012 130.5554997  35.1489988  96.2399345 131.2229514  35.4163076
 100.8290012 130.2804997  36.9589988 101.5960012 129.8214997  37.2999988
 100.8070012 130.0544997  36.0289988 100.9311434 130.1870409  36.8800043
 104.9210012 129.7884997  18.3339988 104.2770012 129.1574997  18.6549988
 105.6830012 129.2574997  18.1019988 104.9358077 129.6302920  18.3466011
 107.4060012 128.6604997  35.6879988 107.0550012 127.8044997  35.9309988
 108.1320012 128.8034997  36.2949988 107.4560769 128.5625636  35.8033619
 109.5250012 129.6054997  18.5679988 109.8080012 128.8114997  19.0199988
 110.2650012 129.8384997  18.0069988 109.6637486 129.5282803  18.5540698
  96.1380012 125.1714997  36.2929988  96.2820012 124.2694997  36.0059988
  95.3660012 125.4574997  35.8049988  96.0533322 125.0868261  36.1877881
 100.4800012 125.5154997  18.4249988 100.5440012 124.7214997  18.9559988
 101.1330012 125.3964997  17.7349988 100.5770241 125.3907148  18.4044317
 102.7940012 125.1414997  35.7249988 102.4650012 125.4124997  34.8679988
 102.9460012 124.2004997  35.6379988 102.7694809 125.0513862  35.5958244
 105.8320012 126.5624997  18.1609988 105.5630012 126.7424997  19.0619988
 105.6260012 125.6364997  18.0299988 105.7673825 126.4620152  18.2665214
 108.5280012 125.0574997  33.1089988 109.2740012 125.6454997  32.9889988
 107.7710012 125.6394997  33.1719988 108.5277554 125.2167011  33.1010907
  96.9710012 122.3714997  35.7129988  97.3790012 121.5144997  35.5919988
  96.7110012 122.3864997  36.6339988  96.9917568 122.2560807  35.8209588
 101.6290012 123.4874997  20.7309988 101.1690012 123.0034997  21.4169988
 101.8840012 122.8194997  20.0949988 101.6004902 123.3308731  20.7389334
 100.9180012 121.3804997  33.0869988 100.3000012 122.0554997  33.3669988
 101.2620012 121.7014997  32.2539988 100.8799615 121.5162721  33.0126581
 102.7000012 121.7304997  18.9929988 102.5200012 121.5764997  18.0659988
 103.6500012 121.8384997  19.0379988 102.8037776 121.7240175  18.8721843
 105.9380012 123.8524997  36.3639988 106.8910012 123.9354997  36.3369988
 105.7770012 123.1404997  36.9839988 106.0466426 123.7676746  36.4440579
 112.0900012 124.0854997  18.4389988 111.8160012 123.6604997  17.6259988
 112.1290012 125.0164997  18.2219988 112.0577699 124.1532484  18.2983610
 101.2570012 118.7354997  34.1689988 101.4070012 118.0064997  33.5669988
 101.2600012 119.5124997  33.6099988 101.2779302 118.7407851  34.0110692
 101.6700012 117.1054997  31.6619988 102.2060012 117.5564997  31.0099988
 100.8180012 116.9974997  31.2389988 101.6282178 117.1526390  31.5155756
 103.2520012 122.5444997  31.9009988 104.0020012 122.3884997  31.3279988
 102.9130012 123.3964997  31.6259988 103.3088921 122.6382968  31.7853561
 107.6670012 120.3594997  36.9299988 107.8600012 119.4284997  36.8179988
 108.5250012 120.7844997  36.9199988 107.8093020 120.2896389  36.9133361
 108.9840012 123.1484997  35.0069988 108.7030012 123.8574997  34.4299988
 109.9270012 123.0754997  34.8559988 109.0729027 123.2357646  34.9075551
  99.7360012 119.9334997  36.0809988  98.9690012 119.4014997  35.8709988
 100.4150012 119.6234997  35.4809988  99.7227022 119.8187506  35.9711648
 102.4760012 114.5614997  32.0929988 102.3770012 115.5084997  31.9879988
 101.7330012 114.1894997  31.6179988 102.3620564 114.6405902  32.0144560
 103.7400012 118.8834997  35.6569988 103.5040012 118.6634997  36.5589988
 102.9560012 118.6764997  35.1469988 103.6018628 118.8254760  35.7113932
 106.4550012 118.0104997  34.7329988 105.5080012 118.0424997  34.8649988
 106.7680012 117.3854997  35.3859988 106.3675475 117.9303207  34.8394455
 108.0890012 116.6444997  36.7379988 107.9930012 115.6924997  36.7319988
 107.7680012 116.9134997  37.5979988 108.0324070 116.5504035  36.8535441
  97.9160012 117.8544997  35.7849988  98.1280012 117.1474997  35.1749988
  97.8050012 117.4164997  36.6289988  97.9299721 117.6987084  35.8156843
 102.6970012 113.8554997  34.7649988 103.4090012 113.2154997  34.7509988
 102.5960012 114.1224997  33.8509988 102.7807939 113.8039938  34.6395650
 103.0510012 115.5384997  36.8179988 102.9190012 115.0624997  35.9979988
 102.4520012 116.2824997  36.7629988 102.9519071 115.5739618  36.6982886
 102.5970012 132.4214997  19.9949988 103.5300012 132.5794997  20.1379988
 102.3330012 133.0964997  19.3699988 102.6889510 132.5343611  19.9300741
  96.1660012 127.0574997  19.4769988  97.0800012 127.1364997  19.7509988
  96.1730012 126.3704997  18.8109988  96.2921131 126.9753961  19.4244393
  94.8150012 132.4504997  24.5549988  94.1680012 131.9884997  24.0219988
  95.1690012 131.7784997  25.1369988  94.7743849 132.2964723  24.5607959
  95.6850012 130.5314997  26.3589988  95.3500012 129.6514997  26.5309988
  95.9070012 130.8764997  27.2239988  95.6691783 130.4577501  26.4994208
 113.2330012 131.3404997  29.3399988 113.2120012 131.5254997  30.2789988
 113.9240012 131.9094997  28.9989988 113.3234618 131.4426606  29.4223864
 112.7970012 130.9084997  32.2619988 112.3090012 130.1724997  31.8909988
 113.3460012 130.5144997  32.9399988 112.8044872 130.7546249  32.3029160
 111.2470012 126.6974997  36.8999988 110.3810012 126.5924997  37.2939988
 111.6240012 127.4564997  37.3459988 111.1793308 126.7856900  37.0142393
 112.5480012 124.9544997  22.4139988 113.3980012 125.3754997  22.5409988
 112.5540012 124.2144997  23.0209988 112.6651372 124.9120803  22.5134344
 112.9430012 123.0074997  24.2379988 112.2160012 122.5284997  24.6349988
 113.5240012 123.2134997  24.9699988 112.9219375 122.9697090  24.3914129
 112.7020012 125.7924997  29.1849988 113.5350012 125.4144997  28.9049988
 112.8140012 126.7354997  29.0659988 112.8312647 125.8682218  29.1305487
 111.1880012 128.6704997  31.4919988 110.5410012 128.9954997  32.1179988
 110.6710012 128.2304997  30.8179988 111.0294029 128.6555004  31.4865827
 113.2110012 122.9084997  20.6289988 112.6890012 123.2654997  19.9099988
 113.1780012 123.5834997  21.3069988 113.1351634 123.0485413  20.6223145
 111.5600012 120.1484997  19.1799988 111.6560012 120.8154997  18.4989988
 111.4200012 119.3324997  18.6979988 111.5542135 120.1294500  19.0218491
 110.7290012 121.5284997  24.8009988 110.5790012 120.5834997  24.7799988
 110.3760012 121.8094997  25.6439988 110.6606625 121.4370441  24.9122346
  95.7650012 123.6064997  28.8109988  95.9490012 123.5244997  27.8749988
  96.6140012 123.4824997  29.2349988  95.9050139 123.5785003  28.7401455
 111.5860012 123.4984997  34.4389988 112.1690012 122.7644997  34.6309988
 112.1500012 124.2704997  34.4859988 111.7419769 123.5024227  34.4716159
 113.0820012 121.4014997  35.1239988 112.2190012 121.0224997  34.9579988
 113.6870012 120.6624997  35.0499988 113.0455979 121.2498023  35.0912817
 110.8070012 117.5564997  18.2969988 111.4180012 117.1854997  18.9339988
 109.9710012 117.1354997  18.4929988 110.7775032 117.4487554  18.4107035
 110.4400012 119.1114997  23.2629988 110.7200012 118.2044997  23.3869988
 111.1990012 119.5454997  22.8739988 110.5809277 119.0460942  23.2273682
 111.0520012 119.6924997  28.6989988 111.9850012 119.9044997  28.6649988
 110.8170012 119.7944997  29.6209988 111.1478036 119.7352769  28.8189976
 111.0810012 120.4294997  31.4749988 110.2380012 120.6974997  31.8409988
 111.5230012 121.2514997  31.2639988 111.0254158 120.5773291  31.4965491
  95.3620012 118.8774997  34.9519988  96.2820012 118.7554997  35.1879988
  94.9130012 118.1274997  35.3409988  95.4271580 118.7593727  35.0369006
 113.3640012 114.4094997  36.8279988 113.7140012 113.7554997  36.2229988
 113.5110012 115.2464997  36.3889988 113.4318419 114.4331591  36.6857118
 111.0530012 116.3744997  23.3109988 111.2360012 115.9254997  24.1369988
 110.4540012 115.7894997  22.8479988 110.9970202 116.2339975  23.3613275
  96.5830012 117.1894997  27.8429988  97.0290012 116.3974997  28.1449988
  97.0500012 117.9054997  28.2739988  96.7070172 117.1780624  27.9424820
  94.8870012 120.1884997  28.9119988  95.3790012 119.9674997  28.1209988
  95.2500012 121.0294997  29.1929988  95.0033126 120.2718357  28.8417531
 112.8840012 116.5184997  35.1779988 111.9660012 116.7894997  35.1419988
 113.0070012 115.9834997  34.3929988 112.7751066 116.4832892  35.0670487
 112.9200012 116.4414997  19.8389988 113.3320012 115.7204997  19.3639988
 113.6020012 117.1114997  19.8979988 113.0685885 116.4332368  19.7818915
  95.2010012 116.4464997  22.9659988  94.2760012 116.6554997  22.8369988
  95.6550012 116.9304997  22.2769988  95.1357368 116.5405993  22.8551226
 109.9720012 131.4304997  24.9119988 110.6240012 131.0834997  24.3039988
 110.4820012 131.9194997  25.5579988 110.1302637 131.4490597  24.9160236
  95.1650012 115.1844997  31.3109988  94.5000012 114.9384997  31.9539988
  94.7220012 115.8064997  30.7329988  95.0140956 115.2348632  31.3209352
  97.3570012 128.3594997  35.4549988  96.5360012 128.5344997  34.9949988
  97.1040012 128.2864997  36.3759988  97.2106164 128.3735622  35.5164923
 100.3110012 129.3344997  31.7139988  99.8860012 130.1434997  31.4309988
 101.2150012 129.4194997  31.4119988 100.3750271 129.4568469  31.6343776
 104.6220012 130.7334997  34.6729988 104.8070012 130.3994997  35.5509988
 105.4680012 131.0424997  34.3509988 104.7617539 130.7296047  34.7495605
 106.9670012 132.0194997  33.9169988 107.6440012 131.3864997  33.6769988
 107.2890012 132.4204997  34.7239988 107.1031637 131.9871154  33.9932793
 111.8840012 114.6084997  32.9969988 111.0720012 114.9334997  32.6089988
 112.1170012 113.8484997  32.4639988 111.8043423 114.5502436  32.8718253
  97.7130012 132.5904997  31.7609988  96.9920012 133.0304997  31.3099988
  97.3470012 132.3394997  32.6099988  97.5649804 132.6167698  31.8139840
 100.1800012 132.1904997  30.7909988  99.3150012 132.2624997  31.1949988
 100.1250012 132.7374997  30.0069988 100.0542085 132.2742685  30.7403362
 104.8900012 132.0784997  29.9659988 104.4340012 132.6074997  29.3119988
 105.0530012 132.6814997  30.6919988 104.8495585 132.2324468  29.9745062
 107.2180012 130.9564997  30.9109988 106.3130012 131.1214997  30.6459988
 107.6470012 131.8094997  30.8459988 107.1520799 131.0944483  30.8659182
 109.8220012 132.5264997  31.2059988 109.6400012 133.4424997  30.9959988
 109.9990012 132.1164997  30.3599988 109.8210210 132.5964822  31.0627885
  97.1270012 131.2134997  28.6709988  97.1090012 130.7884997  29.5289988
  97.9320012 130.8954997  28.2629988  97.2333875 131.1123812  28.7331655
  99.2690012 129.9234997  27.3259988  99.0500012 129.0074997  27.4959988
 100.0930012 130.0634997  27.7919988  99.3504420 129.8170520  27.4122774
 101.8060012 130.3934997  28.1749988 102.0190012 129.5054997  27.8879988
 101.8700012 130.3594997  29.1289988 101.8438232 130.2673102  28.2647397
 105.3140012 116.0574997  27.3189988 104.6400012 115.4284997  27.5749988
 105.8780012 115.5734997  26.7159988 105.2979230 115.9058744  27.2725340
 110.4570012 114.1654997  27.4319988 111.0610012 114.7124997  26.9299988
 109.5870012 114.4844997  27.1919988 110.4221241 114.2835806  27.3307654
 112.1840012 115.3034997  25.7649988 112.7960012 114.7894997  25.2389988
 112.5660012 116.1814997  25.7889988 112.3194540 115.3517140  25.6961830
  97.6410012 114.6914997  25.1409988  96.8640012 114.4574997  24.6339988
  98.1710012 113.8944997  25.1499988  97.6062330 114.5516988  25.0727742
  96.4770012 114.4894997  20.9449988  96.9160012 115.1004997  20.3529988
  95.8440012 115.0274997  21.4189988  96.4514514 114.6459257  20.9280930
 102.2200012 114.6184997  24.9549988 103.0950012 115.0064997  24.9249988
 102.0840012 114.4034997  25.8769988 102.3213695 114.6425184  25.0756440
 107.7770012 114.6484997  26.6039988 107.8530012 114.7434997  25.6539988
 107.5020012 113.7404997  26.7329988 107.7502321 114.5387867  26.4915079
 109.1300012 114.6744997  22.2959988 108.4280012 115.2894997  22.0869988
 108.6860012 113.8364997  22.4269988 108.9736330 114.6455783  22.2850328
  96.3780012 130.4374997  21.8429988  95.6930012 130.3994997  21.1749988
  96.3820012 131.3504997  22.1309988  96.2848193 130.5557016  21.7905284
  98.3380012 116.4054997  19.3869988  98.8300012 115.7754997  18.8599988
  98.9620012 116.7014997  20.0509988  98.4895446 116.3593199  19.4045980
 103.3640012 116.6984997  21.8439988 103.5420012 116.0524997  22.5269988
 103.3110012 117.5324997  22.3119988 103.3811829 116.7227985  22.0005940
 105.2430012 131.6474997  20.2399988 106.1090012 132.0134997  20.0619988
 104.9960012 131.2074997  19.4259988 105.3282392 131.6381756  20.1056289
 111.9520012 131.2104997  22.9189988 111.7570012 130.4624997  22.3539988
 111.9130012 131.9684997  22.3359988 111.9200380 131.2106099  22.7628384
  97.5990012 115.2054997  34.6589988  97.2330012 114.4404997  35.1019988
  98.5120012 115.2344997  34.9459988  97.6722790 115.1047224  34.7584070
  99.5720012 114.5564997  36.1949988 100.4700012 114.2824997  36.0099988
  99.1850012 113.8134997  36.6589988  99.6426612 114.4185914  36.2323643
  98.1960012 131.3574997  18.8679988  97.9290012 131.6444997  19.7409988
  98.9680012 130.8114997  19.0199988  98.2637488 131.3230294  19.0081050
 107.9930012 113.8884997  36.3769988 108.0700012 113.4624997  37.2309988
 108.8870012 113.9024997  36.0339988 108.1243428 113.8320879  36.4475310
 111.1690012 129.9614997  35.0689988 110.3870012 129.7754997  34.5499988
 111.0970012 130.8904997  35.2869988 111.0521777 130.0616492  35.0274048
 125.5750012 123.8474997  25.0999988 125.6640012 124.7914997  24.9679988
 124.9370012 123.5724997  24.4419988 125.5009081 123.9394830  24.9929614
 124.5080012 123.1024997  28.5189988 124.4700012 122.4564997  29.2239988
 124.1860012 122.6364997  27.7479988 124.4592333 122.9509408  28.5112978
 116.8770012 122.7174997  30.1119988 116.9180012 122.0914997  30.8349988
 117.5800012 123.3414997  30.2939988 116.9776363 122.7161196  30.2356044
 128.2140012 126.0414997  26.8199988 127.7740012 125.3214997  27.2709988
 128.2010012 126.7624997  27.4499988 128.1520226 126.0403731  26.9668494
 117.8000012 127.1674997  28.6469988 117.4310012 126.3654997  28.2769988
 118.7410012 126.9984997  28.6929988 117.8767289 127.0350153  28.6026316
 114.4100012 120.8274997  24.0399988 113.9630012 121.6734997  24.0209988
 113.8490012 120.2474997  23.5239988 114.2729900 120.8649916  23.9676801
 115.1210012 122.9894997  26.1659988 115.3340012 122.2194997  26.6929988
 115.8590012 123.0784997  25.5619988 115.2498496 122.8961394  26.1565300
 125.3260012 131.1464997  27.0329988 125.9460012 130.4694997  26.7589988
 125.1180012 130.9284997  27.9409988 125.3826904 131.0243870  27.1183365
 122.8980012 125.5354997  28.9249988 123.2020012 124.8494997  28.3299988
 123.6190012 125.6534997  29.5429988 123.0370671 125.4576305  28.9271816
 131.5610012 117.1364997  29.7859988 131.6100012 117.7464997  30.5219988
 131.9860012 117.5974997  29.0629988 131.6251824 117.2823741  29.7890205
 126.0390012 119.9294997  29.2529988 126.1810012 118.9834997  29.2729988
 125.9320012 120.1364997  28.3239988 126.0439864 119.8279534  29.1302339
 119.1930012 118.0304997  26.5249988 119.2370012 118.8904997  26.1069988
 118.7360012 117.4784997  25.8909988 119.1372185 118.0735799  26.3820299
 126.9160012 118.1614997  24.9259988 127.5620012 117.8324997  25.5509988
 127.4260012 118.6794997  24.3029988 127.0734264 118.1864611  24.9273862
 115.8140012 120.4274997  27.2869988 116.4670012 119.8774997  27.7189988
 115.8380012 120.1534997  26.3699988 115.9066683 120.3151466  27.2222123
 120.9700012 121.9774997  26.5019988 121.5860012 121.4514997  27.0119988
 120.3840012 121.3374997  26.0989988 120.9750810 121.8189208  26.5173173
 131.9520012 118.6144997  32.0219988 131.2640012 119.2724997  31.9259988
 131.9680012 118.4174997  32.9579988 131.8598525 118.6780462  32.1354808
 118.0040012 116.9484997  30.5989988 117.7850012 117.4784997  29.8329988
 117.3360012 117.1754997  31.2459988 117.8837600 117.0516906  30.5816379
 125.3730012 126.4484997  24.1429988 125.0770012 126.1264997  23.2919988
 125.0480012 127.3484997  24.1839988 125.2886371 126.5260215  24.0321801
 120.5730012 124.6244997  30.8859988 119.8330012 125.2224997  30.9899988
 121.2870012 125.1784997  30.5709988 120.5682237 124.7812831  30.8576465
 128.6800012 117.4524997  26.9059988 128.4640012 116.6864997  27.4389988
 129.3350012 117.9244997  27.4189988 128.7390632 117.4115889  27.0482861
 117.5970012 118.8404997  28.5509988 118.2110012 119.4734997  28.9249988
 118.1090012 118.3684997  27.8949988 117.7502296 118.8632370  28.5134252
 118.9800012 126.5884997  31.6739988 118.9750012 127.4684997  31.2959988
 118.1270012 126.5054997  32.0989988 118.8639464 126.6976117  31.6797907
 115.1010012 126.2594997  22.4559988 114.8290012 126.4884997  21.5669988
 115.1470012 127.0974997  22.9159988 115.0700094 126.4041213  22.3965697
 128.7260012 127.8814997  29.1679988 127.7850012 127.9394997  29.3299988
 129.0030012 128.7874997  29.0309988 128.6344679 128.0119443  29.1716815
 129.0270012 116.1674997  30.5859988 128.2910012 116.7784997  30.5479988
 129.7100012 116.5824997  30.0589988 129.0186541 116.3071374  30.5095832
 122.0300012 114.2544997  28.0519988 121.9130012 113.3054997  27.9969988
 121.1750012 114.5864997  28.3249988 121.8983733 114.1695409  28.0813897
 126.9780012 129.6624997  25.7939988 127.4040012 128.9554997  25.3089988
 127.2950012 130.4634997  25.3769988 127.0791019 129.6740994  25.6713130
 128.1380012 127.5634997  24.3019988 127.8800012 126.8734997  23.6909988
 128.2090012 127.1204997  25.1479988 128.1122856 127.4092124  24.3326885
 129.8240012 126.1294997  32.7799988 129.9640012 125.5384997  32.0399988
 129.9910012 127.0024997  32.4229988 129.8656778 126.1666426  32.6306965
 124.2970012 123.0914997  22.5519988 123.5850012 123.6264997  22.1999988
 124.9880012 123.1474997  21.8919988 124.2930132 123.1722543  22.4146289
 124.3500012 121.5494997  19.5909988 125.0510012 121.5714997  20.2419988
 124.6530012 120.9214997  18.9349988 124.4867830 121.4676566  19.5913711
 131.6660012 122.4694997  30.8459988 131.0130012 123.1644997  30.9349988
 132.1310012 122.6794997  30.0359988 131.6395390 122.5929425  30.7486883
 127.7020012 123.3014997  23.5039988 126.9700012 123.5294997  24.0769988
 128.1500012 122.5874997  23.9589988 127.6623095 123.2362571  23.6439119
 127.6000012 121.4754997  32.5709988 127.6800012 122.2384997  33.1429988
 126.9980012 121.7544997  31.8809988 127.5295756 121.6177134  32.5560589
 119.3480012 123.9314997  25.3859988 119.0170012 123.5614997  24.5679988
 119.9360012 123.2614997  25.7329988 119.3821873 123.7901156  25.3208102
 120.7140012 127.3594997  28.0679988 120.6200012 126.7814997  27.3109988
 121.4440012 126.9884997  28.5639988 120.7997981 127.2302390  28.0314165
 119.7140012 122.7004997  29.0199988 120.2800012 122.8214997  28.2569988
 120.0330012 123.3374997  29.6589988 119.8345786 122.8031884  29.0020040
 126.0230012 128.2034997  29.7539988 125.7830012 128.8654997  30.4019988
 125.8250012 127.3694997  30.1789988 125.9633808 128.1813134  29.9001524
 120.5940012 127.0994997  33.7369988 120.2830012 127.8814997  34.1919988
 119.9440012 126.9464997  33.0509988 120.4635558 127.1859105  33.7065871
 126.5730012 122.4634997  21.1889988 127.1530012 122.6134997  21.9359988
 126.9870012 122.9344997  20.4659988 126.7082830 122.5476841  21.1934134
 117.5140012 123.2974997  32.9659988 117.5850012 123.9484997  33.6639988
 116.6240012 123.4004997  32.6309988 117.4033117 123.4005936  33.0162700
 124.3000012 129.2004997  24.6239988 124.7740012 129.4954997  25.4019988
 123.7370012 129.9384997  24.3909988 124.2887653 129.3406932  24.6990136
 118.8340012 129.1714997  34.4999988 118.8410012 129.0354997  33.5529988
 117.9180012 129.0534997  34.7519988 118.7111714 129.1369430  34.4044666
 130.2720012 114.2134997  21.0019988 129.3720012 114.3524997  21.2969988
 130.5240012 115.0444997  20.5999988 130.1828702 114.3449074  20.9880205
 118.3380012 123.0014997  22.9759988 118.0460012 123.7694997  22.4849988
 117.6640012 122.3414997  22.8129988 118.2069081 123.0174406  22.8867340
 131.4610012 128.5794997  19.3779988 131.5350012 129.5184997  19.5489988
 132.3670012 128.2744997  19.3219988 131.5935100 128.6666722  19.3938119
 114.4310012 125.3644997  31.7909988 113.9300012 125.3364997  30.9759988
 114.4360012 124.4584997  32.0999988 114.3631526 125.2382278  31.7212872
 114.1810012 128.1444997  28.6749988 115.1270012 128.0004997  28.6559988
 114.0690012 128.9284997  29.2119988 114.2952727 128.2308046  28.7450072
 132.3790012 128.8104997  34.3569988 132.3300012 127.8554997  34.3199988
 131.5520012 129.0784997  34.7579988 132.2604940 128.7158998  34.4061375
 123.3580012 128.3844997  33.2329988 123.4450012 129.2104997  33.7079988
 122.4940012 128.0544997  33.4819988 123.2531964 128.4529878  33.3316549
 123.7720012 132.1564997  23.0389988 123.6970012 132.0354997  22.0929988
 123.8050012 133.1064997  23.1579988 123.7661848 132.2682500  22.9254834
 117.4250012 130.9454997  24.8199988 117.5780012 130.5974997  25.6989988
 116.5750012 130.5894997  24.5649988 117.3308962 130.8496650  24.9058340
 126.8740012 131.3104997  20.0409988 127.2490012 130.5664997  19.5709988
 126.8780012 131.0404997  20.9599988 126.9258915 131.1721486  20.1007824
 126.5430012 131.2364997  22.7909988 125.6070012 131.3364997  22.9689988
 126.8230012 130.5274997  23.3689988 126.4528255 131.1542711  22.8935391
 129.5310012 120.3034997  34.8369988 129.1240012 120.7844997  34.1159988
 129.5720012 119.3984997  34.5289988 129.4808437 120.2469374  34.6966683
 116.6800012 126.6874997  32.8339988 116.8960012 126.3264997  33.6929988
 115.8250012 126.3134997  32.6239988 116.5939292 126.5874111  32.9233386
 119.2990012 115.1574997  28.8289988 118.4370012 115.0704997  28.4219988
 119.2760012 116.0134997  29.2569988 119.1780330 115.2612765  28.8311863
 123.9620012 114.8794997  32.2039988 124.3820012 114.4644997  32.9569988
 123.0290012 114.7014997  32.3209988 123.8933644 114.7985900  32.3229539
 127.2880012 118.6354997  33.0569988 126.7740012 118.5094997  33.8549988
 127.1330012 119.5474997  32.8129988 127.1966852 118.7416132  33.1332158
 128.0510012 123.4964997  18.8189988 128.0930012 123.2734997  17.8889988
 128.9000012 123.8954997  19.0089988 128.1715396 123.5199155  18.7173627
 123.6230012 117.3724997  19.4889988 123.3700012 117.3914997  20.4119988
 123.3670012 116.5004997  19.1879988 123.5537790 117.2572437  19.5746263
 119.3900012 120.1234997  29.9239988 118.7480012 120.0824997  30.6329988
 119.4270012 121.0494997  29.6869988 119.3071324 120.2431559  29.9889824
 119.3870012 120.3444997  24.8359988 118.4940012 120.0034997  24.7779988
 119.8370012 119.9674997  24.0809988 119.3257305 120.2468484  24.7259177
 124.9220012 120.7604997  23.6529988 124.5130012 121.5754997  23.3619988
 125.6430012 120.6204997  23.0389988 124.9634537 120.8532018  23.5301342
 124.0240012 120.9354997  35.1409988 123.4620012 120.2314997  35.4619988
 124.8510012 120.8154997  35.6089988 124.0587095 120.8227883  35.2482330
 125.9270012 120.2064997  26.4669988 125.7320012 120.8114997  25.7519988
 126.1080012 119.3724997  26.0329988 125.9247614 120.1766300  26.3104405
 117.1400012 120.4434997  31.7909988 117.1020012 120.8434997  32.6599988
 116.6490012 119.6264997  31.8819988 117.0684684 120.3878069  31.9221059
 120.5060012 117.8174997  18.5899988 120.0750012 117.3724997  19.3199988
 119.7880012 118.1894997  18.0779988 120.3499438 117.8068940  18.6206799
 113.7480012 117.5594997  25.6419988 114.3790012 117.5304997  26.3609988
 114.1970012 117.1344997  24.9119988 113.8950774 117.4980492  25.6416553
 115.0220012 118.3054997  21.0659988 115.4960012 118.8964997  20.4809988
 114.3050012 118.8364997  21.4129988 114.9899341 118.4580867  21.0328836
 125.1910012 121.8444997  31.1389988 125.5140012 121.2134997  30.4959988
 124.7510012 121.3094997  31.7989988 125.1756895 121.6858441  31.1402850
 121.9680012 117.7714997  25.9229988 121.0570012 117.8284997  26.2109988
 122.4740012 117.7114997  26.7329988 121.9115413 117.7711985  26.0720622
 116.7970012 119.4004997  24.7489988 115.9070012 119.5004997  24.4089988
 117.0930012 118.5584997  24.4029988 116.7152823 119.3003545  24.6557213
 120.4500012 119.4004997  22.4059988 121.3810012 119.5294997  22.5839988
 120.2350012 120.0704997  21.7559988 120.5484247 119.5086565  22.3425747
 126.3730012 117.0064997  29.1869988 125.6970012 117.1374997  29.8509988
 125.8880012 116.8514997  28.3769988 126.2147145 117.0034905  29.1684517
 119.1240012 120.5954997  19.9729988 118.5810012 120.2154997  19.2809988
 119.9570012 120.7894997  19.5439988 119.1624399 120.5698124  19.8204526
 129.6610012 132.6784997  35.4639988 129.8610012 133.1024997  34.6289988
 130.3160012 133.0214997  36.0709988 129.7770051 132.7829648  35.4317836
 117.2590012 125.1524997  35.0719988 117.9910012 125.4064997  35.6329988
 116.4790012 125.3564997  35.5869988 117.2538232 125.2149177  35.2185760
 123.2880012 120.5594997  27.8099988 123.8530012 120.0124997  27.2629988
 123.1410012 120.0374997  28.5979988 123.3452918 120.4142024  27.8418454
 118.2900012 116.6954997  24.2279988 117.9730012 115.7934997  24.1929988
 119.0720012 116.6974997  23.6749988 118.3522284 116.5721628  24.1484783
 121.9150012 118.9474997  30.2239988 121.0790012 119.4014997  30.3339988
 122.4390012 119.2234997  30.9759988 121.8714414 119.0469376  30.3407136
 122.4590012 125.1604997  21.9079988 121.7140012 124.6534997  21.5859988
 122.3250012 125.2094997  22.8549988 122.3388776 125.0976940  21.9918647
 129.6090012 124.2934997  30.6949988 130.2510012 124.7504997  30.1509988
 128.7790012 124.4064997  30.2319988 129.5845963 124.3712704  30.5580177
 126.3570012 117.9744997  20.1079988 125.4180012 118.0864997  19.9559988
 126.6540012 118.8314997  20.4139988 126.2687666 118.1056443  20.1285768
 123.9780012 125.3444997  33.1449988 123.6330012 124.9634997  33.9519988
 123.7780012 126.2784997  33.2169988 123.9038061 125.4185228  33.2650961
 127.0750012 119.8414997  21.7679988 127.9670012 119.7044997  22.0869988
 127.1320012 120.6324997  21.2319988 127.2046285 119.9296660  21.7391691
 117.5840012 124.4554997  27.6779988 118.3290012 124.4534997  27.0769988
 117.6620012 123.6324997  28.1599988 117.6965518 124.3439315  27.6608929
 124.5850012 126.6194997  20.9339988 124.2890012 127.4454997  21.3149988
 123.8820012 125.9994997  21.1299988 124.4494914 126.6488199  21.0126443
 114.5920012 122.9164997  32.9929988 114.8150012 122.4984997  33.8249988
 113.9900012 122.3034997  32.5699988 114.5411759 122.7764668  33.0497022
 121.6080012 122.4334997  35.2059988 121.3120012 122.2674997  34.3109988
 122.5400012 122.2134997  35.1949988 121.6934166 122.3810640  35.0820536
 126.2290012 127.8064997  33.0959988 125.3280012 127.9894997  32.8279988
 126.2630012 128.0654997  34.0169988 126.1103041 127.8665512  33.1838197
 131.9600012 120.0514997  21.4629988 131.4060012 119.6554997  20.7909988
 132.0600012 120.9614997  21.1849988 131.8977059 120.1203586  21.3334401
 131.9230012 125.8514997  34.2999988 131.0720012 126.0894997  33.9329988
 132.5140012 125.8344997  33.5469988 131.8862487 125.8818258  34.1478893
 130.2550012 128.8374997  21.9279988 129.8820012 128.0114997  22.2369988
 130.5330012 128.6544997  21.0309988 130.2415630 128.6997303  21.8489626
 127.4160012 123.6454997  28.9489988 126.4870012 123.4134997  28.9219988
 127.8670012 122.8684997  28.6189988 127.3499216 123.5087238  28.9006917
 119.9590012 127.9734997  25.0819988 120.4860012 128.7464997  24.8819988
 119.0790012 128.1984997  24.7809988 119.9121773 128.1098005  25.0139010
 115.7140012 122.8354997  19.6689988 116.3300012 123.4624997  20.0489988
 114.8520012 123.1514997  19.9409988 115.6817698 122.9639430  19.7577183
 121.3860012 125.6364997  24.6589988 121.1450012 126.5614997  24.6999988
 120.6450012 125.1774997  25.0549988 121.2528409 125.7011421  24.7181377
 121.9010012 129.7854997  30.9739988 122.2630012 130.6404997  30.7399988
 122.4320012 129.4934997  31.7139988 122.0224473 129.8631060  31.0420855
 120.0690012 130.6584997  24.2039988 119.1190012 130.7634997  24.2549988
 120.4210012 131.4784997  24.5489988 119.9864203 130.7838314  24.2576650
 125.4450012 125.8844997  30.6739988 125.0190012 125.6574997  31.5009988
 126.0250012 125.1464997  30.4919988 125.4651868 125.7535299  30.7625830
 127.6480012 126.8134997  19.7479988 128.0010012 126.4334997  20.5529988
 126.6990012 126.7204997  19.8349988 127.5680441 126.7489596  19.8698559
 128.1030012 130.4364997  33.1439988 127.5020012 129.8814997  32.6479988
 128.3850012 131.1034997  32.5179988 128.0588519 130.4506841  32.9914952
 132.1510012 131.2934997  19.9489988 132.8950012 131.8794997  19.8089988
 131.4570012 131.8614997  20.2829988 132.1590292 131.4505582  19.9749961
 116.2260012 117.6694997  32.5509988 115.3330012 118.0084997  32.4829988
 116.1270012 116.8144997  32.9689988 116.0904164 117.6002588  32.5982235
 128.5140012 125.4864997  21.9749988 128.2360012 124.7584997  22.5309988
 129.4410012 125.6054997  22.1799988 128.6013124 125.4028802  22.0788845
 115.8770012 129.4744997  30.9859988 116.0940012 128.5424997  30.9549988
 116.1230012 129.7484997  31.8689988 115.9399549 129.3840636  31.1011763
 121.7390012 127.9254997  18.1949988 121.9780012 127.1774997  17.6479988
 121.4700012 127.5374997  19.0279988 121.7353675 127.7706638  18.2326865
 120.6760012 127.4954997  20.6519988 120.8220012 126.9754997  21.4419988
 120.6730012 128.4024997  20.9579988 120.6955989 127.5468853  20.8016088
 117.1290012 124.7484997  21.1619988 116.4430012 125.1004997  21.7289988
 117.6510012 125.5114997  20.9149988 117.1056852 124.8998578  21.2062118
 124.9600012 117.4104997  31.4409988 125.6590012 117.4844997  32.0909988
 124.5790012 116.5464997  31.5949988 125.0041767 117.3037624  31.5508322
 125.7450012 117.0624997  22.5379988 125.9650012 117.5344997  21.7349988
 126.3030012 117.4574997  23.2079988 125.8504968 117.1804285  22.5187331
 123.4130012 129.1934997  21.4009988 122.5970012 129.6904997  21.4529988
 123.9430012 129.6684997  20.7609988 123.3729161 129.3257722  21.3215956
 122.9450012 118.7904997  23.3729988 123.7570012 119.2954997  23.4189988
 122.7000012 118.6454997  24.2869988 123.0230520 118.8400375  23.5028517
 123.4800012 119.7764997  32.5579988 123.5990012 120.3504997  33.3149988
 124.1360012 119.0884997  32.6719988 123.5849757 119.7621079  32.6770825
 123.8280012 115.8714997  24.3109988 123.4820012 116.4894997  24.9559988
 124.4870012 116.3724997  23.8299988 123.8697826 116.0235802  24.3340971
 120.7520012 130.2374997  21.3829988 120.9120012 131.0364997  20.8819988
 120.5540012 130.5434997  22.2679988 120.7471649 130.3884469  21.4339815
 119.4860012 116.9344997  20.9979988 119.4030012 117.8234997  21.3449988
 120.3760012 116.6694997  21.2299988 119.5949469 117.0201430  21.0767626
 129.6850012 117.6834997  33.3929988 128.7680012 117.9464997  33.3049988
 130.0200012 117.6804997  32.4959988 129.6049900 117.7190224  33.2597919
 128.2870012 121.4344997  27.4879988 127.4890012 121.0194997  27.1599988
 128.7320012 120.7434997  27.9789988 128.2379885 121.2843543  27.5094889
 117.7450012 127.3624997  20.0589988 118.3370012 128.0614997  20.3349988
 118.2040012 126.9294997  19.3389988 117.8881142 127.3997049  19.9994830
 116.0610012 120.0264997  19.1749988 116.0160012 120.9654997  19.3529988
 115.1730012 119.7904997  18.9049988 115.9348574 120.1231892  19.1628912
 129.3730012 130.6904997  29.1109988 129.2180012 131.3684997  28.4539988
 130.3060012 130.7624997  29.3139988 129.4778500 130.7930170  29.0485119
 116.8690012 114.8084997  27.8479988 116.6400012 114.8674997  26.9199988
 116.4260012 114.0164997  28.1539988 116.7778530 114.7095753  27.7624786
 115.7990012 128.7484997  24.0079988 114.9670012 129.2214997  24.0359988
 116.3450012 129.2584997  23.4099988 115.7589739 128.8821871  23.9309716
 115.0870012 131.3614997  35.3379988 115.6280012 131.1444997  36.0979988
 114.6060012 130.5554997  35.1489988 115.0959345 131.2229514  35.4163076
 119.6850012 130.2804997  36.9589988 120.4520012 129.8214997  37.2999988
 119.6630012 130.0544997  36.0289988 119.7871434 130.1870409  36.8800043
 123.7770012 129.7884997  18.3339988 123.1330012 129.1574997  18.6549988
 124.5390012 129.2574997  18.1019988 123.7918077 129.6302920  18.3466011
 126.2620012 128.6604997  35.6879988 125.9110012 127.8044997  35.9309988
 126.9880012 128.8034997  36.2949988 126.3120769 128.5625636  35.8033619
 128.3810012 129.6054997  18.5679988 128.6640012 128.8114997  19.0199988
 129.1210012 129.8384997  18.0069988 128.5197486 129.5282803  18.5540698
 114.9940012 125.1714997  36.2929988 115.1380012 124.2694997  36.0059988
 114.2220012 125.4574997  35.8049988 114.9093322 125.0868261  36.1877881
 119.3360012 125.5154997  18.4249988 119.4000012 124.7214997  18.9559988
 119.9890012 125.3964997  17.7349988 119.4330241 125.3907148  18.4044317
 121.6500012 125.1414997  35.7249988 121.3210012 125.4124997  34.8679988
 121.8020012 124.2004997  35.6379988 121.6254809 125.0513862  35.5958244
 124.6880012 126.5624997  18.1609988 124.4190012 126.7424997  19.0619988
 124.4820012 125.6364997  18.0299988 124.6233825 126.4620152  18.2665214
 127.3840012 125.0574997  33.1089988 128.1300012 125.6454997  32.9889988
 126.6270012 125.6394997  33.1719988 127.3837554 125.2167011  33.1010907
 115.8270012 122.3714997  35.7129988 116.2350012 121.5144997  35.5919988
 115.5670012 122.3864997  36.6339988 115.8477568 122.2560807  35.8209588
 120.4850012 123.4874997  20.7309988 120.0250012 123.0034997  21.4169988
 120.7400012 122.8194997  20.0949988 120.4564902 123.3308731  20.7389334
 119.7740012 121.3804997  33.0869988 119.1560012 122.0554997  33.3669988
 120.1180012 121.7014997  32.2539988 119.7359615 121.5162721  33.0126581
 121.5560012 121.7304997  18.9929988 121.3760012 121.5764997  18.0659988
 122.5060012 121.8384997  19.0379988 121.6597776 121.7240175  18.8721843
 124.7940012 123.8524997  36.3639988 125.7470012 123.9354997  36.3369988
 124.6330012 123.1404997  36.9839988 124.9026426 123.7676746  36.4440579
 130.9460012 124.0854997  18.4389988 130.6720012 123.6604997  17.6259988
 130.9850012 125.0164997  18.2219988 130.9137699 124.1532484  18.2983610
 120.1130012 118.7354997  34.1689988 120.2630012 118.0064997  33.5669988
 120.1160012 119.5124997  33.6099988 120.1339302 118.7407851  34.0110692
 120.5260012 117.1054997  31.6619988 121.0620012 117.5564997  31.0099988
 119.6740012 116.9974997  31.2389988 120.4842178 117.1526390  31.5155756
 122.1080012 122.5444997  31.9009988 122.8580012 122.3884997  31.3279988
 121.7690012 123.3964997  31.6259988 122.1648921 122.6382968  31.7853561
 126.5230012 120.3594997  36.9299988 126.7160012 119.4284997  36.8179988
 127.3810012 120.7844997  36.9199988 126.6653020 120.2896389  36.9133361
 127.8400012 123.1484997  35.0069988 127.5590012 123.8574997  34.4299988
 128.7830012 123.0754997  34.8559988 127.9289027 123.2357646  34.9075551
 118.5920012 119.9334997  36.0809988 117.8250012 119.4014997  35.8709988
 119.2710012 119.6234997  35.4809988 118.5787022 119.8187506  35.9711648
 121.3320012 114.5614997  32.0929988 121.2330012 115.5084997  31.9879988
 120.5890012 114.1894997  31.6179988 121.2180564 114.6405902  32.0144560
 122.5960012 118.8834997  35.6569988 122.3600012 118.6634997  36.5589988
 121.8120012 118.6764997  35.1469988 122.4578628 118.8254760  35.7113932
 125.3110012 118.0104997  34.7329988 124.3640012 118.0424997  34.8649988
 125.6240012 117.3854997  35.3859988 125.2235475 117.9303207  34.8394455
 126.9450012 116.6444997  36.7379988 126.8490012 115.6924997  36.7319988
 126.6240012 116.9134997  37.5979988 126.8884070 116.5504035  36.8535441
 116.7720012 117.8544997  35.7849988 116.9840012 117.1474997  35.1749988
 116.6610012 117.4164997  36.6289988 116.7859721 117.6987084  35.8156843
 121.5530012 113.8554997  34.7649988 122.2650012 113.2154997  34.7509988
 121.4520012 114.1224997  33.8509988 121.6367939 113.8039938  34.6395650
 121.9070012 115.5384997  36.8179988 121.7750012 115.0624997  35.9979988
 121.3080012 116.2824997  36.7629988 121.8079071 115.5739618  36.6982886
 121.4530012 132.4214997  19.9949988 122.3860012 132.5794997  20.1379988
 121.1890012 133.0964997  19.3699988 121.5449510 132.5343611  19.9300741
 115.0220012 127.0574997  19.4769988 115.9360012 127.1364997  19.7509988
 115.0290012 126.3704997  18.8109988 115.1481131 126.9753961  19.4244393
 113.6710012 132.4504997  24.5549988 113.0240012 131.9884997  24.0219988
 114.0250012 131.7784997  25.1369988 113.6303849 132.2964723  24.5607959
 114.5410012 130.5314997  26.3589988 114.2060012 129.6514997  26.5309988
 114.7630012 130.8764997  27.2239988 114.5251783 130.4577500  26.4994208
 132.0890012 131.3404997  29.3399988 132.0680012 131.5254997  30.2789988
 132.7800012 131.9094997  28.9989988 132.1794618 131.4426606  29.4223864
 131.6530012 130.9084997  32.2619988 131.1650012 130.1724997  31.8909988
 132.2020012 130.5144997  32.9399988 131.6604872 130.7546249  32.3029160
 130.1030012 126.6974997  36.8999988 129.2370012 126.5924997  37.2939988
 130.4800012 127.4564997  37.3459988 130.0353308 126.7856900  37.0142393
 131.4040012 124.9544997  22.4139988 132.2540012 125.3754997  22.5409988
 131.4100012 124.2144997  23.0209988 131.5211372 124.9120803  22.5134344
 131.7990012 123.0074997  24.2379988 131.0720012 122.5284997  24.6349988
 132.3800012 123.2134997  24.9699988 131.7779375 122.9697090  24.3914129
 131.5580012 125.7924997  29.1849988 132.3910012 125.4144997  28.9049988
 131.6700012 126.7354997  29.0659988 131.6872647 125.8682218  29.1305487
 130.0440012 128.6704997  31.4919988 129.3970012 128.9954997  32.1179988
 129.5270012 128.2304997  30.8179988 129.8854029 128.6555004  31.4865827
 132.0670012 122.9084997  20.6289988 131.5450012 123.2654997  19.9099988
 132.0340012 123.5834997  21.3069988 131.9911634 123.0485413  20.6223145
 130.4160012 120.1484997  19.1799988 130.5120012 120.8154997  18.4989988
 130.2760012 119.3324997  18.6979988 130.4102135 120.1294500  19.0218491
 129.5850012 121.5284997  24.8009988 129.4350012 120.5834997  24.7799988
 129.2320012 121.8094997  25.6439988 129.5166625 121.4370441  24.9122346
 114.6210012 123.6064997  28.8109988 114.8050012 123.5244997  27.8749988
 115.4700012 123.4824997  29.2349988 114.7610139 123.5785003  28.7401455
 130.4420012 123.4984997  34.4389988 131.0250012 122.7644997  34.6309988
 131.0060012 124.2704997  34.4859988 130.5979769 123.5024227  34.4716159
 131.9380012 121.4014997  35.1239988 131.0750012 121.0224997  34.9579988
 132.5430012 120.6624997  35.0499988 131.9015979 121.2498023  35.0912817
 129.6630012 117.5564997  18.2969988 130.2740012 117.1854997  18.9339988
 128.8270012 117.1354997  18.4929988 129.6335032 117.4487554  18.4107035
 129.2960012 119.1114997  23.2629988 129.5760012 118.2044997  23.3869988
 130.0550012 119.5454997  22.8739988 129.4369277 119.0460942  23.2273682
 129.9080012 119.6924997  28.6989988 130.8410012 119.9044997  28.6649988
 129.6730012 119.7944997  29.6209988 130.0038036 119.7352769  28.8189976
 129.9370012 120.4294997  31.4749988 129.0940012 120.6974997  31.8409988
 130.3790012 121.2514997  31.2639988 129.8814158 120.5773291  31.4965491
 114.2180012 118.8774997  34.9519988 115.1380012 118.7554997  35.1879988
 113.7690012 118.1274997  35.3409988 114.2831580 118.7593727  35.0369006
 132.2200012 114.4094997  36.8279988 132.5700012 113.7554997  36.2229988
 132.3670012 115.2464997  36.3889988 132.2878419 114.4331591  36.6857118
 129.9090012 116.3744997  23.3109988 130.0920012 115.9254997  24.1369988
 129.3100012 115.7894997  22.8479988 129.8530202 116.2339975  23.3613275
 115.4390012 117.1894997  27.8429988 115.8850012 116.3974997  28.1449988
 115.9060012 117.9054997  28.2739988 115.5630172 117.1780624  27.9424820
 113.7430012 120.1884997  28.9119988 114.2350012 119.9674997  28.1209988
 114.1060012 121.0294997  29.1929988 113.8593126 120.2718357  28.8417531
 131.7400012 116.5184997  35.1779988 130.8220012 116.7894997  35.1419988
 131.8630012 115.9834997  34.3929988 131.6311066 116.4832892  35.0670487
 131.7760012 116.4414997  19.8389988 132.1880012 115.7204997  19.3639988
 132.4580012 117.1114997  19.8979988 131.9245885 116.4332368  19.7818915
 114.0570012 116.4464997  22.9659988 113.1320012 116.6554997  22.8369988
 114.5110012 116.9304997  22.2769988 113.9917368 116.5405993  22.8551226
 128.8280012 131.4304997  24.9119988 129.4800012 131.0834997  24.3039988
 129.3380012 131.9194997  25.5579988 128.9862637 131.4490597  24.9160236
 114.0210012 115.1844997  31.3109988 113.3560012 114.9384997  31.9539988
 113.5780012 115.8064997  30.7329988 113.8700956 115.2348632  31.3209352
 116.2130012 128.3594997  35.4549988 115.3920012 128.5344997  34.9949988
 115.9600012 128.2864997  36.3759988 116.0666164 128.3735622  35.5164923
 119.1670012 129.3344997  31.7139988 118.7420012 130.1434997  31.4309988
 120.0710012 129.4194997  31.4119988 119.2310271 129.4568469  31.6343776
 123.4780012 130.7334997  34.6729988 123.6630012 130.3994997  35.5509988
 124.3240012 131.0424997  34.3509988 123.6177539 130.7296047  34.7495605
 125.8230012 132.0194997  33.9169988 126.5000012 131.3864997  33.6769988
 126.1450012 132.4204997  34.7239988 125.9591637 131.9871154  33.9932793
 130.7400012 114.6084997  32.9969988 129.9280012 114.9334997  32.6089988
 130.9730012 113.8484997  32.4639988 130.6603423 114.5502436  32.8718253
 116.5690012 132.5904997  31.7609988 115.8480012 133.0304997  31.3099988
 116.2030012 132.3394997  32.6099988 116.4209804 132.6167698  31.8139840
 119.0360012 132.1904997  30.7909988 118.1710012 132.2624997  31.1949988
 118.9810012 132.7374997  30.0069988 118.9102085 132.2742685  30.7403362
 123.7460012 132.0784997  29.9659988 123.2900012 132.6074997  29.3119988
 123.9090012 132.6814997  30.6919988 123.7055585 132.2324468  29.9745062
 126.0740012 130.9564997  30.9109988 125.1690012 131.1214997  30.6459988
 126.5030012 131.8094997  30.8459988 126.0080799 131.0944483  30.8659182
 128.6780012 132.5264997  31.2059988 128.4960012 133.4424997  30.9959988
 128.8550012 132.1164997  30.3599988 128.6770210 132.5964822  31.0627885
 115.9830012 131.2134997  28.6709988 115.9650012 130.7884997  29.5289988
 116.7880012 130.8954997  28.2629988 116.0893875 131.1123812  28.7331655
 118.1250012 129.9234997  27.3259988 117.9060012 129.0074997  27.4959988
 118.9490012 130.0634997  27.7919988 118.2064420 129.8170520  27.4122774
 120.6620012 130.3934997  28.1749988 120.8750012 129.5054997  27.8879988
 120.7260012 130.3594997  29.1289988 120.6998232 130.2673102  28.2647397
 124.1700012 116.0574997  27.3189988 123.4960012 115.4284997  27.5749988
 124.7340012 115.5734997  26.7159988 124.1539230 115.9058744  27.2725340
 129.3130012 114.1654997  27.4319988 129.9170012 114.7124997  26.9299988
 128.4430012 114.4844997  27.1919988 129.2781241 114.2835806  27.3307654
 131.0400012 115.3034997  25.7649988 131.6520012 114.7894997  25.2389988
 131.4220012 116.1814997  25.7889988 131.1754540 115.3517140  25.6961830
 116.4970012 114.6914997  25.1409988 115.7200012 114.4574997  24.6339988
 117.0270012 113.8944997  25.1499988 116.4622330 114.5516988  25.0727742
 115.3330012 114.4894997  20.9449988 115.7720012 115.1004997  20.3529988
 114.7000012 115.0274997  21.4189988 115.3074514 114.6459257  20.9280930
 121.0760012 114.6184997  24.9549988 121.9510012 115.0064997  24.9249988
 120.9400012 114.4034997  25.8769988 121.1773695 114.6425184  25.0756440
 126.6330012 114.6484997  26.6039988 126.7090012 114.7434997  25.6539988
 126.3580012 113.7404997  26.7329988 126.6062321 114.5387867  26.4915079
 127.9860012 114.6744997  22.2959988 127.2840012 115.2894997  22.0869988
 127.5420012 113.8364997  22.4269988 127.8296330 114.6455783  22.2850328
 115.2340012 130.4374997  21.8429988 114.5490012 130.3994997  21.1749988
 115.2380012 131.3504997  22.1309988 115.1408193 130.5557016  21.7905284
 117.1940012 116.4054997  19.3869988 117.6860012 115.7754997  18.8599988
 117.8180012 116.7014997  20.0509988 117.3455446 116.3593199  19.4045980
 122.2200012 116.6984997  21.8439988 122.3980012 116.0524997  22.5269988
 122.1670012 117.5324997  22.3119988 122.2371829 116.7227985  22.0005940
 124.0990012 131.6474997  20.2399988 124.9650012 132.0134997  20.0619988
 123.8520012 131.2074997  19.4259988 124.1842392 131.6381756  20.1056289
 130.8080012 131.2104997  22.9189988 130.6130012 130.4624997  22.3539988
 130.7690012 131.9684997  22.3359988 130.7760380 131.2106099  22.7628384
 116.4550012 115.2054997  34.6589988 116.0890012 114.4404997  35.1019988
 117.3680012 115.2344997  34.9459988 116.5282790 115.1047224  34.7584070
 118.4280012 114.5564997  36.1949988 119.3260012 114.2824997  36.0099988
 118.0410012 113.8134997  36.6589988 118.4986612 114.4185914  36.2323643
 117.0520012 131.3574997  18.8679988 116.7850012 131.6444997  19.7409988
 117.8240012 130.8114997  19.0199988 117.1197488 131.3230294  19.0081050
 126.8490012 113.8884997  36.3769988 126.9260012 113.4624997  37.2309988
 127.7430012 113.9024997  36.0339988 126.9803428 113.8320879  36.4475310
 130.0250012 129.9614997  35.0689988 129.2430012 129.7754997  34.5499988
 129.9530012 130.8904997  35.2869988 129.9081777 130.0616492  35.0274048
 144.4310012 123.8474997  25.0999988 144.5200012 124.7914997  24.9679988
 143.7930012 123.5724997  24.4419988 144.3569081 123.9394830  24.9929614
 143.3640012 123.1024997  28.5189988 143.3260012 122.4564997  29.2239988
 143.0420012 122.6364997  27.7479988 143.3152333 122.9509408  28.5112978
 135.7330012 122.7174997  30.1119988 135.7740012 122.0914997  30.8349988
 136.4360012 123.3414997  30.2939988 135.8336363 122.7161196  30.2356044
 136.6560012 127.1674997  28.6469988 136.2870012 126.3654997  28.2769988
 137.5970012 126.9984997  28.6929988 136.7327289 127.0350153  28.6026316
 133.2660012 120.8274997  24.0399988 132.8190012 121.6734997  24.0209988
 132.7050012 120.2474997  23.5239988 133.1289900 120.8649916  23.9676801
 133.9770012 122.9894997  26.1659988 134.1900012 122.2194997  26.6929988
 134.7150012 123.0784997  25.5619988 134.1058496 122.8961394  26.1565300
 144.1820012 131.1464997  27.0329988 144.8020012 130.4694997  26.7589988
 143.9740012 130.9284997  27.9409988 144.2386904 131.0243870  27.1183365
 141.7540012 125.5354997  28.9249988 142.0580012 124.8494997  28.3299988
 142.4750012 125.6534997  29.5429988 141.8930671 125.4576304  28.9271816
 144.8950012 119.9294997  29.2529988 145.0370012 118.9834997  29.2729988
 144.7880012 120.1364997  28.3239988 144.8999863 119.8279534  29.1302339
 138.0490012 118.0304997  26.5249988 138.0930012 118.8904997  26.1069988
 137.5920012 117.4784997  25.8909988 137.9932185 118.0735799  26.3820299
 134.6700012 120.4274997  27.2869988 135.3230012 119.8774997  27.7189988
 134.6940012 120.1534997  26.3699988 134.7626683 120.3151466  27.2222123
 139.8260012 121.9774997  26.5019988 140.4420012 121.4514997  27.0119988
 139.2400012 121.3374997  26.0989988 139.8310810 121.8189208  26.5173173
 136.8600012 116.9484997  30.5989988 136.6410012 117.4784997  29.8329988
 136.1920012 117.1754997  31.2459988 136.7397600 117.0516906  30.5816379
 144.2290012 126.4484997  24.1429988 143.9330012 126.1264997  23.2919988
 143.9040012 127.3484997  24.1839988 144.1446371 126.5260215  24.0321801
 139.4290012 124.6244997  30.8859988 138.6890012 125.2224997  30.9899988
 140.1430012 125.1784997  30.5709988 139.4242237 124.7812831  30.8576465
 136.4530012 118.8404997  28.5509988 137.0670012 119.4734997  28.9249988
 136.9650012 118.3684997  27.8949988 136.6062296 118.8632370  28.5134252
 137.8360012 126.5884997  31.6739988 137.8310012 127.4684997  31.2959988
 136.9830012 126.5054997  32.0989988 137.7199464 126.6976117  31.6797907
 133.9570012 126.2594997  22.4559988 133.6850012 126.4884997  21.5669988
 134.0030012 127.0974997  22.9159988 133.9260094 126.4041213  22.3965697
 140.8860012 114.2544997  28.0519988 140.7690012 113.3054997  27.9969988
 140.0310012 114.5864997  28.3249988 140.7543733 114.1695409  28.0813897
 143.1530012 123.0914997  22.5519988 142.4410012 123.6264997  22.1999988
 143.8440012 123.1474997  21.8919988 143.1490132 123.1722543  22.4146289
 143.2060012 121.5494997  19.5909988 143.9070012 121.5714997  20.2419988
 143.5090012 120.9214997  18.9349988 143.3427830 121.4676566  19.5913711
 138.2040012 123.9314997  25.3859988 137.8730012 123.5614997  24.5679988
 138.7920012 123.2614997  25.7329988 138.2381873 123.7901156  25.3208102
 139.5700012 127.3594997  28.0679988 139.4760012 126.7814997  27.3109988
 140.3000012 126.9884997  28.5639988 139.6557981 127.2302390  28.0314165
 138.5700012 122.7004997  29.0199988 139.1360012 122.8214997  28.2569988
 138.8890012 123.3374997  29.6589988 138.6905786 122.8031884  29.0020040
 144.8790012 128.2034997  29.7539988 144.6390012 128.8654997  30.4019988
 144.6810012 127.3694997  30.1789988 144.8193808 128.1813134  29.9001524
 139.4500012 127.0994997  33.7369988 139.1390012 127.8814997  34.1919988
 138.8000012 126.9464997  33.0509988 139.3195558 127.1859105  33.7065871
 136.3700012 123.2974997  32.9659988 136.4410012 123.9484997  33.6639988
 135.4800012 123.4004997  32.6309988 136.2593117 123.4005936  33.0162700
 143.1560012 129.2004997  24.6239988 143.6300012 129.4954997  25.4019988
 142.5930012 129.9384997  24.3909988 143.1447653 129.3406932  24.6990136
 137.6900012 129.1714997  34.4999988 137.6970012 129.0354997  33.5529988
 136.7740012 129.0534997  34.7519988 137.5671714 129.1369430  34.4044666
 137.1940012 123.0014997  22.9759988 136.9020012 123.7694997  22.4849988
 136.5200012 122.3414997  22.8129988 137.0629081 123.0174406  22.8867340
 133.2870012 125.3644997  31.7909988 132.7860012 125.3364997  30.9759988
 133.2920012 124.4584997  32.0999988 133.2191526 125.2382278  31.7212872
 133.0370012 128.1444997  28.6749988 133.9830012 128.0004997  28.6559988
 132.9250012 128.9284997  29.2119988 133.1512727 128.2308046  28.7450072
 142.2140012 128.3844997  33.2329988 142.3010012 129.2104997  33.7079988
 141.3500012 128.0544997  33.4819988 142.1091964 128.4529878  33.3316549
 142.6280012 132.1564997  23.0389988 142.5530012 132.0354997  22.0929988
 142.6610012 133.1064997  23.1579988 142.6221848 132.2682500  22.9254834
 136.2810012 130.9454997  24.8199988 136.4340012 130.5974997  25.6989988
 135.4310012 130.5894997  24.5649988 136.1868962 130.8496650  24.9058340
 135.5360012 126.6874997  32.8339988 135.7520012 126.3264997  33.6929988
 134.6810012 126.3134997  32.6239988 135.4499292 126.5874111  32.9233386
 138.1550012 115.1574997  28.8289988 137.2930012 115.0704997  28.4219988
 138.1320012 116.0134997  29.2569988 138.0340330 115.2612765  28.8311863
 142.8180012 114.8794997  32.2039988 143.2380012 114.4644997  32.9569988
 141.8850012 114.7014997  32.3209988 142.7493644 114.7985900  32.3229539
 142.4790012 117.3724997  19.4889988 142.2260012 117.3914997  20.4119988
 142.2230012 116.5004997  19.1879988 142.4097790 117.2572437  19.5746263
 138.2460012 120.1234997  29.9239988 137.6040012 120.0824997  30.6329988
 138.2830012 121.0494997  29.6869988 138.1631324 120.2431559  29.9889824
 138.2430012 120.3444997  24.8359988 137.3500012 120.0034997  24.7779988
 138.6930012 119.9674997  24.0809988 138.1817305 120.2468484  24.7259177
 143.7780012 120.7604997  23.6529988 143.3690012 121.5754997  23.3619988
 144.4990012 120.6204997  23.0389988 143.8194537 120.8532018  23.5301342
 142.8800012 120.9354997  35.1409988 142.3180012 120.2314997  35.4619988
 143.7070012 120.8154997  35.6089988 142.9147095 120.8227883  35.2482330
 144.7830012 120.2064997  26.4669988 144.5880012 120.8114997  25.7519988
 144.9640012 119.3724997  26.0329988 144.7807614 120.1766300  26.3104405
 135.9960012 120.4434997  31.7909988 135.9580012 120.8434997  32.6599988
 135.5050012 119.6264997  31.8819988 135.9244684 120.3878069  31.9221059
 139.3620012 117.8174997  18.5899988 138.9310012 117.3724997  19.3199988
 138.6440012 118.1894997  18.0779988 139.2059438 117.8068940  18.6206799
 132.6040012 117.5594997  25.6419988 133.2350012 117.5304997  26.3609988
 133.0530012 117.1344997  24.9119988 132.7510774 117.4980492  25.6416553
 133.8780012 118.3054997  21.0659988 134.3520012 118.8964997  20.4809988
 133.1610012 118.8364997  21.4129988 133.8459341 118.4580867  21.0328836
 144.0470012 121.8444997  31.1389988 144.3700012 121.2134997  30.4959988
 143.6070012 121.3094997  31.7989988 144.0316895 121.6858440  31.1402850
 140.8240012 117.7714997  25.9229988 139.9130012 117.8284997  26.2109988
 141.3300012 117.7114997  26.7329988 140.7675413 117.7711985  26.0720622
 135.6530012 119.4004997  24.7489988 134.7630012 119.5004997  24.4089988
 135.9490012 118.5584997  24.4029988 135.5712823 119.3003545  24.6557213
 139.3060012 119.4004997  22.4059988 140.2370012 119.5294997  22.5839988
 139.0910012 120.0704997  21.7559988 139.4044247 119.5086565  22.3425747
 137.9800012 120.5954997  19.9729988 137.4370012 120.2154997  19.2809988
 138.8130012 120.7894997  19.5439988 138.0184399 120.5698124  19.8204526
 136.1150012 125.1524997  35.0719988 136.8470012 125.4064997  35.6329988
 135.3350012 125.3564997  35.5869988 136.1098232 125.2149177  35.2185760
 142.1440012 120.5594997  27.8099988 142.7090012 120.0124997  27.2629988
 141.9970012 120.0374997  28.5979988 142.2012918 120.4142024  27.8418454
 137.1460012 116.6954997  24.2279988 136.8290012 115.7934997  24.1929988
 137.9280012 116.6974997  23.6749988 137.2082284 116.5721628  24.1484783
 140.7710012 118.9474997  30.2239988 139.9350012 119.4014997  30.3339988
 141.2950012 119.2234997  30.9759988 140.7274414 119.0469376  30.3407136
 141.3150012 125.1604997  21.9079988 140.5700012 124.6534997  21.5859988
 141.1810012 125.2094997  22.8549988 141.1948776 125.0976940  21.9918647
 142.8340012 125.3444997  33.1449988 142.4890012 124.9634997  33.9519988
 142.6340012 126.2784997  33.2169988 142.7598061 125.4185228  33.2650961
 136.4400012 124.4554997  27.6779988 137.1850012 124.4534997  27.0769988
 136.5180012 123.6324997  28.1599988 136.5525518 124.3439315  27.6608929
 143.4410012 126.6194997  20.9339988 143.1450012 127.4454997  21.3149988
 142.7380012 125.9994997  21.1299988 143.3054914 126.6488199  21.0126443
 133.4480012 122.9164997  32.9929988 133.6710012 122.4984997  33.8249988
 132.8460012 122.3034997  32.5699988 133.3971759 122.7764668  33.0497022
 140.4640012 122.4334997  35.2059988 140.1680012 122.2674997  34.3109988
 141.3960012 122.2134997  35.1949988 140.5494166 122.3810640  35.0820536
 138.8150012 127.9734997  25.0819988 139.3420012 128.7464997  24.8819988
 137.9350012 128.1984997  24.7809988 138.7681773 128.1098005  25.0139010
 134.5700012 122.8354997  19.6689988 135.1860012 123.4624997  20.0489988
 133.7080012 123.1514997  19.9409988 134.5377698 122.9639430  19.7577183
 140.2420012 125.6364997  24.6589988 140.0010012 126.5614997  24.6999988
 139.5010012 125.1774997  25.0549988 140.1088409 125.7011421  24.7181377
 140.7570012 129.7854997  30.9739988 141.1190012 130.6404997  30.7399988
 141.2880012 129.4934997  31.7139988 140.8784473 129.8631060  31.0420855
 138.9250012 130.6584997  24.2039988 137.9750012 130.7634997  24.2549988
 139.2770012 131.4784997  24.5489988 138.8424203 130.7838314  24.2576650
 144.3010012 125.8844997  30.6739988 143.8750012 125.6574997  31.5009988
 144.8810012 125.1464997  30.4919988 144.3211868 125.7535299  30.7625830
 135.0820012 117.6694997  32.5509988 134.1890012 118.0084997  32.4829988
 134.9830012 116.8144997  32.9689988 134.9464164 117.6002588  32.5982235
 134.7330012 129.4744997  30.9859988 134.9500012 128.5424997  30.9549988
 134.9790012 129.7484997  31.8689988 134.7959549 129.3840636  31.1011763
 140.5950012 127.9254997  18.1949988 140.8340012 127.1774997  17.6479988
 140.3260012 127.5374997  19.0279988 140.5913675 127.7706638  18.2326865
 139.5320012 127.4954997  20.6519988 139.6780012 126.9754997  21.4419988
 139.5290012 128.4024997  20.9579988 139.5515989 127.5468853  20.8016088
 135.9850012 124.7484997  21.1619988 135.2990012 125.1004997  21.7289988
 136.5070012 125.5114997  20.9149988 135.9616852 124.8998578  21.2062118
 143.8160012 117.4104997  31.4409988 144.5150012 117.4844997  32.0909988
 143.4350012 116.5464997  31.5949988 143.8601767 117.3037624  31.5508322
 144.6010012 117.0624997  22.5379988 144.8210012 117.5344997  21.7349988
 145.1590012 117.4574997  23.2079988 144.7064968 117.1804285  22.5187331
 142.2690012 129.1934997  21.4009988 141.4530012 129.6904997  21.4529988
 142.7990012 129.6684997  20.7609988 142.2289161 129.3257722  21.3215956
 141.8010012 118.7904997  23.3729988 142.6130012 119.2954997  23.4189988
 141.5560012 118.6454997  24.2869988 141.8790520 118.8400375  23.5028517
 142.3360012 119.7764997  32.5579988 142.4550012 120.3504997  33.3149988
 142.9920012 119.0884997  32.6719988 142.4409757 119.7621079  32.6770825
 142.6840012 115.8714997  24.3109988 142.3380012 116.4894997  24.9559988
 143.3430012 116.3724997  23.8299988 142.7257826 116.0235802  24.3340971
 139.6080012 130.2374997  21.3829988 139.7680012 131.0364997  20.8819988
 139.4100012 130.5434997  22.2679988 139.6031649 130.3884469  21.4339815
 138.3420012 116.9344997  20.9979988 138.2590012 117.8234997  21.3449988
 139.2320012 116.6694997  21.2299988 138.4509469 117.0201430  21.0767626
 136.6010012 127.3624997  20.0589988 137.1930012 128.0614997  20.3349988
 137.0600012 126.9294997  19.3389988 136.7441142 127.3997049  19.9994830
 134.9170012 120.0264997  19.1749988 134.8720012 120.9654997  19.3529988
 134.0290012 119.7904997  18.9049988 134.7908574 120.1231892  19.1628912
 135.7250012 114.8084997  27.8479988 135.4960012 114.8674997  26.9199988
 135.2820012 114.0164997  28.1539988 135.6338530 114.7095753  27.7624786
 134.6550012 128.7484997  24.0079988 133.8230012 129.2214997  24.0359988
 135.2010012 129.2584997  23.4099988 134.6149739 128.8821871  23.9309716
 133.9430012 131.3614997  35.3379988 134.4840012 131.1444997  36.0979988
 133.4620012 130.5554997  35.1489988 133.9519345 131.2229514  35.4163076
 138.5410012 130.2804997  36.9589988 139.3080012 129.8214997  37.2999988
 138.5190012 130.0544997  36.0289988 138.6431434 130.1870409  36.8800043
 142.6330012 129.7884997  18.3339988 141.9890012 129.1574997  18.6549988
 143.3950012 129.2574997  18.1019988 142.6478077 129.6302920  18.3466011
 133.8500012 125.1714997  36.2929988 133.9940012 124.2694997  36.0059988
 133.0780012 125.4574997  35.8049988 133.7653322 125.0868261  36.1877881
 138.1920012 125.5154997  18.4249988 138.2560012 124.7214997  18.9559988
 138.8450012 125.3964997  17.7349988 138.2890241 125.3907148  18.4044317
 140.5060012 125.1414997  35.7249988 140.1770012 125.4124997  34.8679988
 140.6580012 124.2004997  35.6379988 140.4814809 125.0513862  35.5958244
 143.5440012 126.5624997  18.1609988 143.2750012 126.7424997  19.0619988
 143.3380012 125.6364997  18.0299988 143.4793825 126.4620152  18.2665214
 134.6830012 122.3714997  35.7129988 135.0910012 121.5144997  35.5919988
 134.4230012 122.3864997  36.6339988 134.7037568 122.2560807  35.8209588
 139.3410012 123.4874997  20.7309988 138.8810012 123.0034997  21.4169988
 139.5960012 122.8194997  20.0949988 139.3124902 123.3308731  20.7389334
 138.6300012 121.3804997  33.0869988 138.0120012 122.0554997  33.3669988
 138.9740012 121.7014997  32.2539988 138.5919615 121.5162721  33.0126581
 140.4120012 121.7304997  18.9929988 140.2320012 121.5764997  18.0659988
 141.3620012 121.8384997  19.0379988 140.5157776 121.7240175  18.8721843
 143.6500012 123.8524997  36.3639988 144.6030012 123.9354997  36.3369988
 143.4890012 123.1404997  36.9839988 143.7586426 123.7676746  36.4440579
 138.9690012 118.7354997  34.1689988 139.1190012 118.0064997  33.5669988
 138.9720012 119.5124997  33.6099988 138.9899302 118.7407851  34.0110692
 139.3820012 117.1054997  31.6619988 139.9180012 117.5564997  31.0099988
 138.5300012 116.9974997  31.2389988 139.3402178 117.1526390  31.5155756
 140.9640012 122.5444997  31.9009988 141.7140012 122.3884997  31.3279988
 140.6250012 123.3964997  31.6259988 141.0208921 122.6382968  31.7853561
 137.4480012 119.9334997  36.0809988 136.6810012 119.4014997  35.8709988
 138.1270012 119.6234997  35.4809988 137.4347022 119.8187506  35.9711648
 140.1880012 114.5614997  32.0929988 140.0890012 115.5084997  31.9879988
 139.4450012 114.1894997  31.6179988 140.0740564 114.6405902  32.0144560
 141.4520012 118.8834997  35.6569988 141.2160012 118.6634997  36.5589988
 140.6680012 118.6764997  35.1469988 141.3138628 118.8254760  35.7113932
 144.1670012 118.0104997  34.7329988 143.2200012 118.0424997  34.8649988
 144.4800012 117.3854997  35.3859988 144.0795475 117.9303207  34.8394455
 135.6280012 117.8544997  35.7849988 135.8400012 117.1474997  35.1749988
 135.5170012 117.4164997  36.6289988 135.6419721 117.6987084  35.8156843
 140.4090012 113.8554997  34.7649988 141.1210012 113.2154997  34.7509988
 140.3080012 114.1224997  33.8509988 140.4927939 113.8039938  34.6395650
 140.7630012 115.5384997  36.8179988 140.6310012 115.0624997  35.9979988
 140.1640012 116.2824997  36.7629988 140.6639071 115.5739618  36.6982886
 140.3090012 132.4214997  19.9949988 141.2420012 132.5794997  20.1379988
 140.0450012 133.0964997  19.3699988 140.4009510 132.5343611  19.9300741
 133.8780012 127.0574997  19.4769988 134.7920012 127.1364997  19.7509988
 133.8850012 126.3704997  18.8109988 134.0041131 126.9753961  19.4244393
 132.5270012 132.4504997  24.5549988 131.8800012 131.9884997  24.0219988
 132.8810012 131.7784997  25.1369988 132.4863849 132.2964723  24.5607959
 133.3970012 130.5314997  26.3589988 133.0620012 129.6514997  26.5309988
 133.6190012 130.8764997  27.2239988 133.3811783 130.4577501  26.4994208
 133.4770012 123.6064997  28.8109988 133.6610012 123.5244997  27.8749988
 134.3260012 123.4824997  29.2349988 133.6170139 123.5785003  28.7401455
 133.0740012 118.8774997  34.9519988 133.9940012 118.7554997  35.1879988
 132.6250012 118.1274997  35.3409988 133.1391580 118.7593727  35.0369006
 134.2950012 117.1894997  27.8429988 134.7410012 116.3974997  28.1449988
 134.7620012 117.9054997  28.2739988 134.4190172 117.1780624  27.9424820
 132.5990012 120.1884997  28.9119988 133.0910012 119.9674997  28.1209988
 132.9620012 121.0294997  29.1929988 132.7153126 120.2718357  28.8417531
 132.9130012 116.4464997  22.9659988 131.9880012 116.6554997  22.8369988
 133.3670012 116.9304997  22.2769988 132.8477368 116.5405993  22.8551226
 132.8770012 115.1844997  31.3109988 132.2120012 114.9384997  31.9539988
 132.4340012 115.8064997  30.7329988 132.7260956 115.2348632  31.3209352
 135.0690012 128.3594997  35.4549988 134.2480012 128.5344997  34.9949988
 134.8160012 128.2864997  36.3759988 134.9226164 128.3735622  35.5164923
 138.0230012 129.3344997  31.7139988 137.5980012 130.1434997  31.4309988
 138.9270012 129.4194997  31.4119988 138.0870271 129.4568469  31.6343776
 142.3340012 130.7334997  34.6729988 142.5190012 130.3994997  35.5509988
 143.1800012 131.0424997  34.3509988 142.4737539 130.7296047  34.7495605
 144.6790012 132.0194997  33.9169988 145.3560012 131.3864997  33.6769988
 145.0010012 132.4204997  34.7239988 144.8151637 131.9871154  33.9932793
 135.4250012 132.5904997  31.7609988 134.7040012 133.0304997  31.3099988
 135.0590012 132.3394997  32.6099988 135.2769804 132.6167698  31.8139840
 137.8920012 132.1904997  30.7909988 137.0270012 132.2624997  31.1949988
 137.8370012 132.7374997  30.0069988 137.7662085 132.2742685  30.7403362
 142.6020012 132.0784997  29.9659988 142.1460012 132.6074997  29.3119988
 142.7650012 132.6814997  30.6919988 142.5615585 132.2324468  29.9745062
 134.8390012 131.2134997  28.6709988 134.8210012 130.7884997  29.5289988
 135.6440012 130.8954997  28.2629988 134.9453875 131.1123812  28.7331655
 136.9810012 129.9234997  27.3259988 136.7620012 129.0074997  27.4959988
 137.8050012 130.0634997  27.7919988 137.0624420 129.8170520  27.4122774
 139.5180012 130.3934997  28.1749988 139.7310012 129.5054997  27.8879988
 139.5820012 130.3594997  29.1289988 139.5558231 130.2673102  28.2647397
 143.0260012 116.0574997  27.3189988 142.3520012 115.4284997  27.5749988
 143.5900012 115.5734997  26.7159988 143.0099230 115.9058744  27.2725340
 135.3530012 114.6914997  25.1409988 134.5760012 114.4574997  24.6339988
 135.8830012 113.8944997  25.1499988 135.3182330 114.5516988  25.0727742
 134.1890012 114.4894997  20.9449988 134.6280012 115.1004997  20.3529988
 133.5560012 115.0274997  21.4189988 134.1634514 114.6459257  20.9280930
 139.9320012 114.6184997  24.9549988 140.8070012 115.0064997  24.9249988
 139.7960012 114.4034997  25.8769988 140.0333695 114.6425184  25.0756440
 134.0900012 130.4374997  21.8429988 133.4050012 130.3994997  21.1749988
 134.0940012 131.3504997  22.1309988 133.9968193 130.5557016  21.7905284
 136.0500012 116.4054997  19.3869988 136.5420012 115.7754997  18.8599988
 136.6740012 116.7014997  20.0509988 136.2015446 116.3593199  19.4045980
 141.0760012 116.6984997  21.8439988 141.2540012 116.0524997  22.5269988
 141.0230012 117.5324997  22.3119988 141.0931829 116.7227985  22.0005940
 142.9550012 131.6474997  20.2399988 143.8210012 132.0134997  20.0619988
 142.7080012 131.2074997  19.4259988 143.0402392 131.6381756  20.1056289
 135.3110012 115.2054997  34.6589988 134.9450012 114.4404997  35.1019988
 136.2240012 115.2344997  34.9459988 135.3842790 115.1047224  34.7584070
 137.2840012 114.5564997  36.1949988 138.1820012 114.2824997  36.0099988
 136.8970012 113.8134997  36.6589988 137.3546612 114.4185914  36.2323643
 135.9080012 131.3574997  18.8679988 135.6410012 131.6444997  19.7409988
 136.6800012 130.8114997  19.0199988 135.9757488 131.3230294  19.0081050
  12.4390012 142.7034997  25.0999988  12.5280012 143.6474997  24.9679988
  11.8010012 142.4284997  24.4419988  12.3649081 142.7954830  24.9929614
  11.3720012 141.9584997  28.5189988  11.3340012 141.3124997  29.2239988
  11.0500012 141.4924997  27.7479988  11.3232333 141.8069408  28.5112978
   3.7410012 141.5734997  30.1119988   3.7820012 140.9474997  30.8349988
   4.4440012 142.1974997  30.2939988   3.8416363 141.5721196  30.2356044
  15.0780012 144.8974997  26.8199988  14.6380012 144.1774997  27.2709988
  15.0650012 145.6184997  27.4499988  15.0160226 144.8963731  26.9668494
   1.2740012 139.6834997  24.0399988   0.8270012 140.5294997  24.0209988
   0.7130012 139.1034997  23.5239988   1.1369900 139.7209916  23.9676801
   1.9850012 141.8454997  26.1659988   2.1980012 141.0754997  26.6929988
   2.7230012 141.9344997  25.5619988   2.1138496 141.7521394  26.1565300
   9.7620012 144.3914997  28.9249988  10.0660012 143.7054997  28.3299988
  10.4830012 144.5094997  29.5429988   9.9010671 144.3136305  28.9271816
  18.4250012 135.9924997  29.7859988  18.4740012 136.6024997  30.5219988
  18.8500012 136.4534997  29.0629988  18.4891824 136.1383741  29.7890205
  12.9030012 138.7854997  29.2529988  13.0450012 137.8394997  29.2729988
  12.7960012 138.9924997  28.3239988  12.9079864 138.6839534  29.1302339
   6.0570012 136.8864997  26.5249988   6.1010012 137.7464997  26.1069988
   5.6000012 136.3344997  25.8909988   6.0012185 136.9295799  26.3820299
  13.7800012 137.0174997  24.9259988  14.4260012 136.6884997  25.5509988
  14.2900012 137.5354997  24.3029988  13.9374264 137.0424611  24.9273862
   2.6780012 139.2834997  27.2869988   3.3310012 138.7334997  27.7189988
   2.7020012 139.0094997  26.3699988   2.7706683 139.1711466  27.2222123
   7.8340012 140.8334997  26.5019988   8.4500012 140.3074997  27.0119988
   7.2480012 140.1934997  26.0989988   7.8390810 140.6749208  26.5173173
  18.8160012 137.4704997  32.0219988  18.1280012 138.1284997  31.9259988
  18.8320012 137.2734997  32.9579988  18.7238525 137.5340462  32.1354808
   4.8680012 135.8044997  30.5989988   4.6490012 136.3344997  29.8329988
   4.2000012 136.0314997  31.2459988   4.7477600 135.9076906  30.5816379
   7.4370012 143.4804997  30.8859988   6.6970012 144.0784997  30.9899988
   8.1510012 144.0344997  30.5709988   7.4322237 143.6372831  30.8576465
  15.5440012 136.3084997  26.9059988  15.3280012 135.5424997  27.4389988
  16.1990012 136.7804997  27.4189988  15.6030632 136.2675889  27.0482861
   4.4610012 137.6964997  28.5509988   5.0750012 138.3294997  28.9249988
   4.9730012 137.2244997  27.8949988   4.6142296 137.7192370  28.5134252
  15.8910012 135.0234997  30.5859988  15.1550012 135.6344997  30.5479988
  16.5740012 135.4384997  30.0589988  15.8826541 135.1631374  30.5095832
   8.8940012 133.1104997  28.0519988   8.7770012 132.1614997  27.9969988
   8.0390012 133.4424997  28.3249988   8.7623733 133.0255409  28.0813897
  16.6880012 144.9854997  32.7799988  16.8280012 144.3944997  32.0399988
  16.8550012 145.8584997  32.4229988  16.7296778 145.0226426  32.6306965
  11.1610012 141.9474997  22.5519988  10.4490012 142.4824997  22.1999988
  11.8520012 142.0034997  21.8919988  11.1570132 142.0282543  22.4146289
  11.2140012 140.4054997  19.5909988  11.9150012 140.4274997  20.2419988
  11.5170012 139.7774997  18.9349988  11.3507830 140.3236566  19.5913711
  18.5300012 141.3254997  30.8459988  17.8770012 142.0204997  30.9349988
  18.9950012 141.5354997  30.0359988  18.5035390 141.4489425  30.7486883
  14.5660012 142.1574997  23.5039988  13.8340012 142.3854997  24.0769988
  15.0140012 141.4434997  23.9589988  14.5263095 142.0922571  23.6439119
  14.4640012 140.3314997  32.5709988  14.5440012 141.0944997  33.1429988
  13.8620012 140.6104997  31.8809988  14.3935756 140.4737134  32.5560589
   6.2120012 142.7874997  25.3859988   5.8810012 142.4174997  24.5679988
   6.8000012 142.1174997  25.7329988   6.2461873 142.6461156  25.3208102
   6.5780012 141.5564997  29.0199988   7.1440012 141.6774997  28.2569988
   6.8970012 142.1934997  29.6589988   6.6985786 141.6591884  29.0020040
  13.4370012 141.3194997  21.1889988  14.0170012 141.4694997  21.9359988
  13.8510012 141.7904997  20.4659988  13.5722830 141.4036841  21.1934134
   4.3780012 142.1534997  32.9659988   4.4490012 142.8044997  33.6639988
   3.4880012 142.2564997  32.6309988   4.2673117 142.2565936  33.0162700
  17.1360012 133.0694997  21.0019988  16.2360012 133.2084997  21.2969988
  17.3880012 133.9004997  20.5999988  17.0468702 133.2009074  20.9880205
   5.2020012 141.8574997  22.9759988   4.9100012 142.6254997  22.4849988
   4.5280012 141.1974997  22.8129988   5.0709081 141.8734406  22.8867340
   1.2950012 144.2204997  31.7909988   0.7940012 144.1924997  30.9759988
   1.3000012 143.3144997  32.0999988   1.2271526 144.0942278  31.7212872
  16.3950012 139.1594997  34.8369988  15.9880012 139.6404997  34.1159988
  16.4360012 138.2544997  34.5289988  16.3448437 139.1029374  34.6966683
   6.1630012 134.0134997  28.8289988   5.3010012 133.9264997  28.4219988
   6.1400012 134.8694997  29.2569988   6.0420330 134.1172765  28.8311863
  10.8260012 133.7354997  32.2039988  11.2460012 133.3204997  32.9569988
   9.8930012 133.5574997  32.3209988  10.7573644 133.6545900  32.3229539
  14.1520012 137.4914997  33.0569988  13.6380012 137.3654997  33.8549988
  13.9970012 138.4034997  32.8129988  14.0606852 137.5976132  33.1332158
  14.9150012 142.3524997  18.8189988  14.9570012 142.1294997  17.8889988
  15.7640012 142.7514997  19.0089988  15.0355396 142.3759155  18.7173627
  10.4870012 136.2284997  19.4889988  10.2340012 136.2474997  20.4119988
  10.2310012 135.3564997  19.1879988  10.4177790 136.1132437  19.5746263
   6.2540012 138.9794997  29.9239988   5.6120012 138.9384997  30.6329988
   6.2910012 139.9054997  29.6869988   6.1711324 139.0991559  29.9889824
   6.2510012 139.2004997  24.8359988   5.3580012 138.8594997  24.7779988
   6.7010012 138.8234997  24.0809988   6.1897305 139.1028484  24.7259177
  11.7860012 139.6164997  23.6529988  11.3770012 140.4314997  23.3619988
  12.5070012 139.4764997  23.0389988  11.8274537 139.7092018  23.5301342
  10.8880012 139.7914997  35.1409988  10.3260012 139.0874997  35.4619988
  11.7150012 139.6714997  35.6089988  10.9227095 139.6787883  35.2482330
  12.7910012 139.0624997  26.4669988  12.5960012 139.6674997  25.7519988
  12.9720012 138.2284997  26.0329988  12.7887614 139.0326300  26.3104405
   4.0040012 139.2994997  31.7909988   3.9660012 139.6994997  32.6599988
   3.5130012 138.4824997  31.8819988   3.9324684 139.2438069  31.9221059
   7.3700012 136.6734997  18.5899988   6.9390012 136.2284997  19.3199988
   6.6520012 137.0454997  18.0779988   7.2139438 136.6628940  18.6206799
   0.6120012 136.4154997  25.6419988   1.2430012 136.3864997  26.3609988
   1.0610012 135.9904997  24.9119988   0.7590774 136.3540492  25.6416553
   1.8860012 137.1614997  21.0659988   2.3600012 137.7524997  20.4809988
   1.1690012 137.6924997  21.4129988   1.8539341 137.3140867  21.0328836
  12.0550012 140.7004997  31.1389988  12.3780012 140.0694997  30.4959988
  11.6150012 140.1654997  31.7989988  12.0396895 140.5418441  31.1402850
   8.8320012 136.6274997  25.9229988   7.9210012 136.6844997  26.2109988
   9.3380012 136.5674997  26.7329988   8.7755413 136.6271985  26.0720622
   3.6610012 138.2564997  24.7489988   2.7710012 138.3564997  24.4089988
   3.9570012 137.4144997  24.4029988   3.5792823 138.1563546  24.6557213
   7.3140012 138.2564997  22.4059988   8.2450012 138.3854997  22.5839988
   7.0990012 138.9264997  21.7559988   7.4124247 138.3646565  22.3425747
  13.2370012 135.8624997  29.1869988  12.5610012 135.9934997  29.8509988
  12.7520012 135.7074997  28.3769988  13.0787145 135.8594905  29.1684517
   5.9880012 139.4514997  19.9729988   5.4450012 139.0714997  19.2809988
   6.8210012 139.6454997  19.5439988   6.0264399 139.4258124  19.8204526
   4.1230012 144.0084997  35.0719988   4.8550012 144.2624997  35.6329988
   3.3430012 144.2124997  35.5869988   4.1178232 144.0709177  35.2185760
  10.1520012 139.4154997  27.8099988  10.7170012 138.8684997  27.2629988
  10.0050012 138.8934997  28.5979988  10.2092918 139.2702024  27.8418454
   5.1540012 135.5514997  24.2279988   4.8370012 134.6494997  24.1929988
   5.9360012 135.5534997  23.6749988   5.2162284 135.4281628  24.1484783
   8.7790012 137.8034997  30.2239988   7.9430012 138.2574997  30.3339988
   9.3030012 138.0794997  30.9759988   8.7354414 137.9029376  30.3407136
   9.3230012 144.0164997  21.9079988   8.5780012 143.5094997  21.5859988
   9.1890012 144.0654997  22.8549988   9.2028776 143.9536940  21.9918647
  16.4730012 143.1494997  30.6949988  17.1150012 143.6064997  30.1509988
  15.6430012 143.2624997  30.2319988  16.4485963 143.2272704  30.5580177
  13.2210012 136.8304997  20.1079988  12.2820012 136.9424997  19.9559988
  13.5180012 137.6874997  20.4139988  13.1327666 136.9616443  20.1285768
  10.8420012 144.2004997  33.1449988  10.4970012 143.8194997  33.9519988
  10.6420012 145.1344997  33.2169988  10.7678061 144.2745228  33.2650961
  13.9390012 138.6974997  21.7679988  14.8310012 138.5604997  22.0869988
  13.9960012 139.4884997  21.2319988  14.0686285 138.7856660  21.7391691
   4.4480012 143.3114997  27.6779988   5.1930012 143.3094997  27.0769988
   4.5260012 142.4884997  28.1599988   4.5605518 143.1999315  27.6608929
   1.4560012 141.7724997  32.9929988   1.6790012 141.3544997  33.8249988
   0.8540012 141.1594997  32.5699988   1.4051759 141.6324668  33.0497022
   8.4720012 141.2894997  35.2059988   8.1760012 141.1234997  34.3109988
   9.4040012 141.0694997  35.1949988   8.5574166 141.2370640  35.0820536
  18.8240012 138.9074997  21.4629988  18.2700012 138.5114997  20.7909988
  18.9240012 139.8174997  21.1849988  18.7617059 138.9763586  21.3334401
  18.7870012 144.7074997  34.2999988  17.9360012 144.9454997  33.9329988
  19.3780012 144.6904997  33.5469988  18.7502487 144.7378258  34.1478893
  14.2800012 142.5014997  28.9489988  13.3510012 142.2694997  28.9219988
  14.7310012 141.7244997  28.6189988  14.2139216 142.3647238  28.9006917
   2.5780012 141.6914997  19.6689988   3.1940012 142.3184997  20.0489988
   1.7160012 142.0074997  19.9409988   2.5457698 141.8199430  19.7577183
   8.2500012 144.4924997  24.6589988   8.0090012 145.4174997  24.6999988
   7.5090012 144.0334997  25.0549988   8.1168409 144.5571421  24.7181377
  12.3090012 144.7404997  30.6739988  11.8830012 144.5134997  31.5009988
  12.8890012 144.0024997  30.4919988  12.3291868 144.6095299  30.7625830
   3.0900012 136.5254997  32.5509988   2.1970012 136.8644997  32.4829988
   2.9910012 135.6704997  32.9689988   2.9544164 136.4562588  32.5982235
  15.3780012 144.3424997  21.9749988  15.1000012 143.6144997  22.5309988
  16.3050012 144.4614997  22.1799988  15.4653124 144.2588802  22.0788845
   3.9930012 143.6044997  21.1619988   3.3070012 143.9564997  21.7289988
   4.5150012 144.3674997  20.9149988   3.9696852 143.7558578  21.2062118
  11.8240012 136.2664997  31.4409988  12.5230012 136.3404997  32.0909988
  11.4430012 135.4024997  31.5949988  11.8681767 136.1597624  31.5508322
  12.6090012 135.9184997  22.5379988  12.8290012 136.3904997  21.7349988
  13.1670012 136.3134997  23.2079988  12.7144968 136.0364285  22.5187331
   9.8090012 137.6464997  23.3729988  10.6210012 138.1514997  23.4189988
   9.5640012 137.5014997  24.2869988   9.8870520 137.6960375  23.5028517
  10.3440012 138.6324997  32.5579988  10.4630012 139.2064997  33.3149988
  11.0000012 137.9444997  32.6719988  10.4489757 138.6181079  32.6770825
  10.6920012 134.7274997  24.3109988  10.3460012 135.3454997  24.9559988
  11.3510012 135.2284997  23.8299988  10.7337826 134.8795802  24.3340971
   6.3500012 135.7904997  20.9979988   6.2670012 136.6794997  21.3449988
   7.2400012 135.5254997  21.2299988   6.4589469 135.8761430  21.0767626
  16.5490012 136.5394997  33.3929988  15.6320012 136.8024997  33.3049988
  16.8840012 136.5364997  32.4959988  16.4689900 136.5750224  33.2597919
  15.1510012 140.2904997  27.4879988  14.3530012 139.8754997  27.1599988
  15.5960012 139.5994997  27.9789988  15.1019885 140.1403543  27.5094889
   2.9250012 138.8824997  19.1749988   2.8800012 139.8214997  19.3529988
   2.0370012 138.6464997  18.9049988   2.7988574 138.9791892  19.1628912
   3.7330012 133.6644997  27.8479988   3.5040012 133.7234997  26.9199988
   3.2900012 132.8724997  28.1539988   3.6418530 133.5655753  27.7624786
   1.8580012 144.0274997  36.2929988   2.0020012 143.1254997  36.0059988
   1.0860012 144.3134997  35.8049988   1.7733322 143.9428261  36.1877881
   6.2000012 144.3714997  18.4249988   6.2640012 143.5774997  18.9559988
   6.8530012 144.2524997  17.7349988   6.2970241 144.2467148  18.4044317
   8.5140012 143.9974997  35.7249988   8.1850012 144.2684997  34.8679988
   8.6660012 143.0564997  35.6379988   8.4894809 143.9073862  35.5958244
  14.2480012 143.9134997  33.1089988  14.9940012 144.5014997  32.9889988
  13.4910012 144.4954997  33.1719988  14.2477554 144.0727011  33.1010907
   2.6910012 141.2274997  35.7129988   3.0990012 140.3704997  35.5919988
   2.4310012 141.2424997  36.6339988   2.7117568 141.1120807  35.8209588
   7.3490012 142.3434997  20.7309988   6.8890012 141.8594997  21.4169988
   7.6040012 141.6754997  20.0949988   7.3204902 142.1868731  20.7389334
   6.6380012 140.2364997  33.0869988   6.0200012 140.9114997  33.3669988
   6.9820012 140.5574997  32.2539988   6.5999615 140.3722721  33.0126581
   8.4200012 140.5864997  18.9929988   8.2400012 140.4324997  18.0659988
   9.3700012 140.6944997  19.0379988   8.5237776 140.5800175  18.8721843
  11.6580012 142.7084997  36.3639988  12.6110012 142.7914997  36.3369988
  11.4970012 141.9964997  36.9839988  11.7666426 142.6236746  36.4440579
  17.8100012 142.9414997  18.4389988  17.5360012 142.5164997  17.6259988
  17.8490012 143.8724997  18.2219988  17.7777699 143.0092484  18.2983610
   6.9770012 137.5914997  34.1689988   7.1270012 136.8624997  33.5669988
   6.9800012 138.3684997  33.6099988   6.9979302 137.5967851  34.0110692
   7.3900012 135.9614997  31.6619988   7.9260012 136.4124997  31.0099988
   6.5380012 135.8534997  31.2389988   7.3482178 136.0086390  31.5155756
   8.9720012 141.4004997  31.9009988   9.7220012 141.2444997  31.3279988
   8.6330012 142.2524997  31.6259988   9.0288921 141.4942968  31.7853561
  13.3870012 139.2154997  36.9299988  13.5800012 138.2844997  36.8179988
  14.2450012 139.6404997  36.9199988  13.5293020 139.1456389  36.9133361
  14.7040012 142.0044997  35.0069988  14.4230012 142.7134997  34.4299988
  15.6470012 141.9314997  34.8559988  14.7929027 142.0917646  34.9075551
   5.4560012 138.7894997  36.0809988   4.6890012 138.2574997  35.8709988
   6.1350012 138.4794997  35.4809988   5.4427022 138.6747506  35.9711648
   8.1960012 133.4174997  32.0929988   8.0970012 134.3644997  31.9879988
   7.4530012 133.0454997  31.6179988   8.0820563 133.4965902  32.0144560
   9.4600012 137.7394997  35.6569988   9.2240012 137.5194997  36.5589988
   8.6760012 137.5324997  35.1469988   9.3218628 137.6814760  35.7113932
  12.1750012 136.8664997  34.7329988  11.2280012 136.8984997  34.8649988
  12.4880012 136.2414997  35.3859988  12.0875475 136.7863207  34.8394455
  13.8090012 135.5004997  36.7379988  13.7130012 134.5484997  36.7319988
  13.4880012 135.7694997  37.5979988  13.7524070 135.4064035  36.8535441
   3.6360012 136.7104997  35.7849988   3.8480012 136.0034997  35.1749988
   3.5250012 136.2724997  36.6289988   3.6499721 136.5547084  35.8156843
   8.4170012 132.7114997  34.7649988   9.1290012 132.0714997  34.7509988
   8.3160012 132.9784997  33.8509988   8.5007939 132.6599938  34.6395650
   8.7710012 134.3944997  36.8179988   8.6390012 133.9184997  35.9979988
   8.1720012 135.1384997  36.7629988   8.6719071 134.4299618  36.6982886
  18.2680012 143.8104997  22.4139988  19.1180012 144.2314997  22.5409988
  18.2740012 143.0704997  23.0209988  18.3851372 143.7680803  22.5134344
  18.6630012 141.8634997  24.2379988  17.9360012 141.3844997  24.6349988
  19.2440012 142.0694997  24.9699988  18.6419375 141.8257090  24.3914129
  18.4220012 144.6484997  29.1849988  19.2550012 144.2704997  28.9049988
  18.5340012 145.5914997  29.0659988  18.5512647 144.7242218  29.1305487
  18.9310012 141.7644997  20.6289988  18.4090012 142.1214997  19.9099988
  18.8980012 142.4394997  21.3069988  18.8551634 141.9045413  20.6223145
  17.2800012 139.0044997  19.1799988  17.3760012 139.6714997  18.4989988
  17.1400012 138.1884997  18.6979988  17.2742135 138.9854500  19.0218491
  16.4490012 140.3844997  24.8009988  16.2990012 139.4394997  24.7799988
  16.0960012 140.6654997  25.6439988  16.3806625 140.2930441  24.9122346
   1.4850012 142.4624997  28.8109988   1.6690012 142.3804997  27.8749988
   2.3340012 142.3384997  29.2349988   1.6250139 142.4345003  28.7401455
  17.3060012 142.3544997  34.4389988  17.8890012 141.6204997  34.6309988
  17.8700012 143.1264997  34.4859988  17.4619769 142.3584227  34.4716159
  18.8020012 140.2574997  35.1239988  17.9390012 139.8784997  34.9579988
  19.4070012 139.5184997  35.0499988  18.7655979 140.1058023  35.0912817
  16.5270012 136.4124997  18.2969988  17.1380012 136.0414997  18.9339988
  15.6910012 135.9914997  18.4929988  16.4975032 136.3047554  18.4107035
  16.1600012 137.9674997  23.2629988  16.4400012 137.0604997  23.3869988
  16.9190012 138.4014997  22.8739988  16.3009277 137.9020942  23.2273682
  16.7720012 138.5484997  28.6989988  17.7050012 138.7604997  28.6649988
  16.5370012 138.6504997  29.6209988  16.8678036 138.5912769  28.8189976
  16.8010012 139.2854997  31.4749988  15.9580012 139.5534997  31.8409988
  17.2430012 140.1074997  31.2639988  16.7454158 139.4333291  31.4965491
   1.0820012 137.7334997  34.9519988   2.0020012 137.6114997  35.1879988
   0.6330012 136.9834997  35.3409988   1.1471580 137.6153727  35.0369006
  19.0840012 133.2654997  36.8279988  19.4340012 132.6114997  36.2229988
  19.2310012 134.1024997  36.3889988  19.1518419 133.2891591  36.6857118
  16.7730012 135.2304997  23.3109988  16.9560012 134.7814997  24.1369988
  16.1740012 134.6454997  22.8479988  16.7170202 135.0899975  23.3613275
   2.3030012 136.0454997  27.8429988   2.7490012 135.2534997  28.1449988
   2.7700012 136.7614997  28.2739988   2.4270172 136.0340624  27.9424820
   0.6070012 139.0444997  28.9119988   1.0990012 138.8234997  28.1209988
   0.9700012 139.8854997  29.1929988   0.7233126 139.1278357  28.8417531
  18.6040012 135.3744997  35.1779988  17.6860012 135.6454997  35.1419988
  18.7270012 134.8394997  34.3929988  18.4951066 135.3392892  35.0670487
  18.6400012 135.2974997  19.8389988  19.0520012 134.5764997  19.3639988
  19.3220012 135.9674997  19.8979988  18.7885885 135.2892368  19.7818915
   0.9210012 135.3024997  22.9659988  -0.0039988 135.5114997  22.8369988
   1.3750012 135.7864997  22.2769988   0.8557368 135.3965993  22.8551226
   0.8850012 134.0404997  31.3109988   0.2200012 133.7944997  31.9539988
   0.4420012 134.6624997  30.7329988   0.7340956 134.0908632  31.3209352
  17.6040012 133.4644997  32.9969988  16.7920012 133.7894997  32.6089988
  17.8370012 132.7044997  32.4639988  17.5243423 133.4062436  32.8718253
  11.0340012 134.9134997  27.3189988  10.3600012 134.2844997  27.5749988
  11.5980012 134.4294997  26.7159988  11.0179230 134.7618744  27.2725340
  16.1770012 133.0214997  27.4319988  16.7810012 133.5684997  26.9299988
  15.3070012 133.3404997  27.1919988  16.1421241 133.1395806  27.3307654
  17.9040012 134.1594997  25.7649988  18.5160012 133.6454997  25.2389988
  18.2860012 135.0374997  25.7889988  18.0394540 134.2077140  25.6961830
   3.3610012 133.5474997  25.1409988   2.5840012 133.3134997  24.6339988
   3.8910012 132.7504997  25.1499988   3.3262330 133.4076988  25.0727742
   2.1970012 133.3454997  20.9449988   2.6360012 133.9564997  20.3529988
   1.5640012 133.8834997  21.4189988   2.1714514 133.5019257  20.9280930
   7.9400012 133.4744997  24.9549988   8.8150012 133.8624997  24.9249988
   7.8040012 133.2594997  25.8769988   8.0413695 133.4985184  25.0756440
  13.4970012 133.5044997  26.6039988  13.5730012 133.5994997  25.6539988
  13.2220012 132.5964997  26.7329988  13.4702321 133.3947867  26.4915079
  14.8500012 133.5304997  22.2959988  14.1480012 134.1454997  22.0869988
  14.4060012 132.6924997  22.4269988  14.6936330 133.5015783  22.2850328
   4.0580012 135.2614997  19.3869988   4.5500012 134.6314997  18.8599988
   4.6820012 135.5574997  20.0509988   4.2095446 135.2153199  19.4045980
   9.0840012 135.5544997  21.8439988   9.2620012 134.9084997  22.5269988
   9.0310012 136.3884997  22.3119988   9.1011829 135.5787985  22.0005940
   3.3190012 134.0614997  34.6589988   2.9530012 133.2964997  35.1019988
   4.2320012 134.0904997  34.9459988   3.3922790 133.9607224  34.7584070
   5.2920012 133.4124997  36.1949988   6.1900012 133.1384997  36.0099988
   4.9050012 132.6694997  36.6589988   5.3626612 133.2745914  36.2323643
  13.7130012 132.7444997  36.3769988  13.7900012 132.3184997  37.2309988
  14.6070012 132.7584997  36.0339988  13.8443428 132.6880879  36.4475310
  31.2950012 142.7034997  25.0999988  31.3840012 143.6474997  24.9679988
  30.6570012 142.4284997  24.4419988  31.2209081 142.7954830  24.9929614
  30.2280012 141.9584997  28.5189988  30.1900012 141.3124997  29.2239988
  29.9060012 141.4924997  27.7479988  30.1792333 141.8069408  28.5112978
  22.5970012 141.5734997  30.1119988  22.6380012 140.9474997  30.8349988
  23.3000012 142.1974997  30.2939988  22.6976363 141.5721196  30.2356044
  33.9340012 144.8974997  26.8199988  33.4940012 144.1774997  27.2709988
  33.9210012 145.6184997  27.4499988  33.8720226 144.8963731  26.9668494
  20.1300012 139.6834997  24.0399988  19.6830012 140.5294997  24.0209988
  19.5690012 139.1034997  23.5239988  19.9929900 139.7209916  23.9676801
  20.8410012 141.8454997  26.1659988  21.0540012 141.0754997  26.6929988
  21.5790012 141.9344997  25.5619988  20.9698496 141.7521394  26.1565300
  28.6180012 144.3914997  28.9249988  28.9220012 143.7054997  28.3299988
  29.3390012 144.5094997  29.5429988  28.7570671 144.3136305  28.9271816
  37.2810012 135.9924997  29.7859988  37.3300012 136.6024997  30.5219988
  37.7060012 136.4534997  29.0629988  37.3451824 136.1383741  29.7890205
  31.7590012 138.7854997  29.2529988  31.9010012 137.8394997  29.2729988
  31.6520012 138.9924997  28.3239988  31.7639864 138.6839534  29.1302339
  24.9130012 136.8864997  26.5249988  24.9570012 137.7464997  26.1069988
  24.4560012 136.3344997  25.8909988  24.8572185 136.9295799  26.3820299
  32.6360012 137.0174997  24.9259988  33.2820012 136.6884997  25.5509988
  33.1460012 137.5354997  24.3029988  32.7934264 137.0424611  24.9273862
  21.5340012 139.2834997  27.2869988  22.1870012 138.7334997  27.7189988
  21.5580012 139.0094997  26.3699988  21.6266683 139.1711466  27.2222123
  26.6900012 140.8334997  26.5019988  27.3060012 140.3074997  27.0119988
  26.1040012 140.1934997  26.0989988  26.6950810 140.6749208  26.5173173
  37.6720012 137.4704997  32.0219988  36.9840012 138.1284997  31.9259988
  37.6880012 137.2734997  32.9579988  37.5798525 137.5340462  32.1354808
  23.7240012 135.8044997  30.5989988  23.5050012 136.3344997  29.8329988
  23.0560012 136.0314997  31.2459988  23.6037600 135.9076906  30.5816379
  26.2930012 143.4804997  30.8859988  25.5530012 144.0784997  30.9899988
  27.0070012 144.0344997  30.5709988  26.2882237 143.6372831  30.8576465
  34.4000012 136.3084997  26.9059988  34.1840012 135.5424997  27.4389988
  35.0550012 136.7804997  27.4189988  34.4590632 136.2675889  27.0482861
  23.3170012 137.6964997  28.5509988  23.9310012 138.3294997  28.9249988
  23.8290012 137.2244997  27.8949988  23.4702296 137.7192370  28.5134252
  34.7470012 135.0234997  30.5859988  34.0110012 135.6344997  30.5479988
  35.4300012 135.4384997  30.0589988  34.7386541 135.1631374  30.5095832
  27.7500012 133.1104997  28.0519988  27.6330012 132.1614997  27.9969988
  26.8950012 133.4424997  28.3249988  27.6183733 133.0255409  28.0813897
  35.5440012 144.9854997  32.7799988  35.6840012 144.3944997  32.0399988
  35.7110012 145.8584997  32.4229988  35.5856778 145.0226426  32.6306965
  30.0170012 141.9474997  22.5519988  29.3050012 142.4824997  22.1999988
  30.7080012 142.0034997  21.8919988  30.0130132 142.0282543  22.4146289
  30.0700012 140.4054997  19.5909988  30.7710012 140.4274997  20.2419988
  30.3730012 139.7774997  18.9349988  30.2067830 140.3236566  19.5913711
  37.3860012 141.3254997  30.8459988  36.7330012 142.0204997  30.9349988
  37.8510012 141.5354997  30.0359988  37.3595390 141.4489425  30.7486883
  33.4220012 142.1574997  23.5039988  32.6900012 142.3854997  24.0769988
  33.8700012 141.4434997  23.9589988  33.3823095 142.0922571  23.6439119
  33.3200012 140.3314997  32.5709988  33.4000012 141.0944997  33.1429988
  32.7180012 140.6104997  31.8809988  33.2495756 140.4737134  32.5560589
  25.0680012 142.7874997  25.3859988  24.7370012 142.4174997  24.5679988
  25.6560012 142.1174997  25.7329988  25.1021873 142.6461156  25.3208102
  25.4340012 141.5564997  29.0199988  26.0000012 141.6774997  28.2569988
  25.7530012 142.1934997  29.6589988  25.5545786 141.6591884  29.0020040
  32.2930012 141.3194997  21.1889988  32.8730012 141.4694997  21.9359988
  32.7070012 141.7904997  20.4659988  32.4282830 141.4036841  21.1934134
  23.2340012 142.1534997  32.9659988  23.3050012 142.8044997  33.6639988
  22.3440012 142.2564997  32.6309988  23.1233117 142.2565936  33.0162700
  35.9920012 133.0694997  21.0019988  35.0920012 133.2084997  21.2969988
  36.2440012 133.9004997  20.5999988  35.9028702 133.2009074  20.9880205
  24.0580012 141.8574997  22.9759988  23.7660012 142.6254997  22.4849988
  23.3840012 141.1974997  22.8129988  23.9269081 141.8734406  22.8867340
  20.1510012 144.2204997  31.7909988  19.6500012 144.1924997  30.9759988
  20.1560012 143.3144997  32.0999988  20.0831526 144.0942278  31.7212872
  35.2510012 139.1594997  34.8369988  34.8440012 139.6404997  34.1159988
  35.2920012 138.2544997  34.5289988  35.2008437 139.1029374  34.6966683
  25.0190012 134.0134997  28.8289988  24.1570012 133.9264997  28.4219988
  24.9960012 134.8694997  29.2569988  24.8980330 134.1172765  28.8311863
  29.6820012 133.7354997  32.2039988  30.1020012 133.3204997  32.9569988
  28.7490012 133.5574997  32.3209988  29.6133644 133.6545900  32.3229539
  33.0080012 137.4914997  33.0569988  32.4940012 137.3654997  33.8549988
  32.8530012 138.4034997  32.8129988  32.9166852 137.5976132  33.1332158
  33.7710012 142.3524997  18.8189988  33.8130012 142.1294997  17.8889988
  34.6200012 142.7514997  19.0089988  33.8915396 142.3759155  18.7173627
  29.3430012 136.2284997  19.4889988  29.0900012 136.2474997  20.4119988
  29.0870012 135.3564997  19.1879988  29.2737790 136.1132437  19.5746263
  25.1100012 138.9794997  29.9239988  24.4680012 138.9384997  30.6329988
  25.1470012 139.9054997  29.6869988  25.0271324 139.0991559  29.9889824
  25.1070012 139.2004997  24.8359988  24.2140012 138.8594997  24.7779988
  25.5570012 138.8234997  24.0809988  25.0457305 139.1028484  24.7259177
  30.6420012 139.6164997  23.6529988  30.2330012 140.4314997  23.3619988
  31.3630012 139.4764997  23.0389988  30.6834537 139.7092018  23.5301342
  29.7440012 139.7914997  35.1409988  29.1820012 139.0874997  35.4619988
  30.5710012 139.6714997  35.6089988  29.7787095 139.6787883  35.2482330
  31.6470012 139.0624997  26.4669988  31.4520012 139.6674997  25.7519988
  31.8280012 138.2284997  26.0329988  31.6447614 139.0326300  26.3104405
  22.8600012 139.2994997  31.7909988  22.8220012 139.6994997  32.6599988
  22.3690012 138.4824997  31.8819988  22.7884684 139.2438069  31.9221059
  26.2260012 136.6734997  18.5899988  25.7950012 136.2284997  19.3199988
  25.5080012 137.0454997  18.0779988  26.0699438 136.6628940  18.6206799
  19.4680012 136.4154997  25.6419988  20.0990012 136.3864997  26.3609988
  19.9170012 135.9904997  24.9119988  19.6150774 136.3540492  25.6416553
  20.7420012 137.1614997  21.0659988  21.2160012 137.7524997  20.4809988
  20.0250012 137.6924997  21.4129988  20.7099341 137.3140867  21.0328836
  30.9110012 140.7004997  31.1389988  31.2340012 140.0694997  30.4959988
  30.4710012 140.1654997  31.7989988  30.8956895 140.5418441  31.1402850
  27.6880012 136.6274997  25.9229988  26.7770012 136.6844997  26.2109988
  28.1940012 136.5674997  26.7329988  27.6315413 136.6271985  26.0720622
  22.5170012 138.2564997  24.7489988  21.6270012 138.3564997  24.4089988
  22.8130012 137.4144997  24.4029988  22.4352823 138.1563545  24.6557213
  26.1700012 138.2564997  22.4059988  27.1010012 138.3854997  22.5839988
  25.9550012 138.9264997  21.7559988  26.2684247 138.3646565  22.3425747
  32.0930012 135.8624997  29.1869988  31.4170012 135.9934997  29.8509988
  31.6080012 135.7074997  28.3769988  31.9347145 135.8594905  29.1684517
  24.8440012 139.4514997  19.9729988  24.3010012 139.0714997  19.2809988
  25.6770012 139.6454997  19.5439988  24.8824399 139.4258124  19.8204526
  22.9790012 144.0084997  35.0719988  23.7110012 144.2624997  35.6329988
  22.1990012 144.2124997  35.5869988  22.9738232 144.0709177  35.2185760
  29.0080012 139.4154997  27.8099988  29.5730012 138.8684997  27.2629988
  28.8610012 138.8934997  28.5979988  29.0652918 139.2702024  27.8418454
  24.0100012 135.5514997  24.2279988  23.6930012 134.6494997  24.1929988
  24.7920012 135.5534997  23.6749988  24.0722284 135.4281628  24.1484783
  27.6350012 137.8034997  30.2239988  26.7990012 138.2574997  30.3339988
  28.1590012 138.0794997  30.9759988  27.5914414 137.9029376  30.3407136
  28.1790012 144.0164997  21.9079988  27.4340012 143.5094997  21.5859988
  28.0450012 144.0654997  22.8549988  28.0588776 143.9536940  21.9918647
  35.3290012 143.1494997  30.6949988  35.9710012 143.6064997  30.1509988
  34.4990012 143.2624997  30.2319988  35.3045963 143.2272704  30.5580177
  32.0770012 136.8304997  20.1079988  31.1380012 136.9424997  19.9559988
  32.3740012 137.6874997  20.4139988  31.9887666 136.9616443  20.1285768
  29.6980012 144.2004997  33.1449988  29.3530012 143.8194997  33.9519988
  29.4980012 145.1344997  33.2169988  29.6238061 144.2745228  33.2650961
  32.7950012 138.6974997  21.7679988  33.6870012 138.5604997  22.0869988
  32.8520012 139.4884997  21.2319988  32.9246285 138.7856660  21.7391691
  23.3040012 143.3114997  27.6779988  24.0490012 143.3094997  27.0769988
  23.3820012 142.4884997  28.1599988  23.4165518 143.1999315  27.6608929
  20.3120012 141.7724997  32.9929988  20.5350012 141.3544997  33.8249988
  19.7100012 141.1594997  32.5699988  20.2611759 141.6324668  33.0497022
  27.3280012 141.2894997  35.2059988  27.0320012 141.1234997  34.3109988
  28.2600012 141.0694997  35.1949988  27.4134166 141.2370640  35.0820536
  37.6800012 138.9074997  21.4629988  37.1260012 138.5114997  20.7909988
  37.7800012 139.8174997  21.1849988  37.6177059 138.9763586  21.3334401
  37.6430012 144.7074997  34.2999988  36.7920012 144.9454997  33.9329988
  38.2340012 144.6904997  33.5469988  37.6062487 144.7378258  34.1478893
  33.1360012 142.5014997  28.9489988  32.2070012 142.2694997  28.9219988
  33.5870012 141.7244997  28.6189988  33.0699216 142.3647238  28.9006917
  21.4340012 141.6914997  19.6689988  22.0500012 142.3184997  20.0489988
  20.5720012 142.0074997  19.9409988  21.4017698 141.8199430  19.7577183
  27.1060012 144.4924997  24.6589988  26.8650012 145.4174997  24.6999988
  26.3650012 144.0334997  25.0549988  26.9728409 144.5571421  24.7181377
  31.1650012 144.7404997  30.6739988  30.7390012 144.5134997  31.5009988
  31.7450012 144.0024997  30.4919988  31.1851868 144.6095299  30.7625830
  21.9460012 136.5254997  32.5509988  21.0530012 136.8644997  32.4829988
  21.8470012 135.6704997  32.9689988  21.8104164 136.4562588  32.5982235
  34.2340012 144.3424997  21.9749988  33.9560012 143.6144997  22.5309988
  35.1610012 144.4614997  22.1799988  34.3213124 144.2588802  22.0788845
  22.8490012 143.6044997  21.1619988  22.1630012 143.9564997  21.7289988
  23.3710012 144.3674997  20.9149988  22.8256852 143.7558578  21.2062118
  30.6800012 136.2664997  31.4409988  31.3790012 136.3404997  32.0909988
  30.2990012 135.4024997  31.5949988  30.7241767 136.1597624  31.5508322
  31.4650012 135.9184997  22.5379988  31.6850012 136.3904997  21.7349988
  32.0230012 136.3134997  23.2079988  31.5704968 136.0364285  22.5187331
  28.6650012 137.6464997  23.3729988  29.4770012 138.1514997  23.4189988
  28.4200012 137.5014997  24.2869988  28.7430520 137.6960375  23.5028517
  29.2000012 138.6324997  32.5579988  29.3190012 139.2064997  33.3149988
  29.8560012 137.9444997  32.6719988  29.3049757 138.6181079  32.6770825
  29.5480012 134.7274997  24.3109988  29.2020012 135.3454997  24.9559988
  30.2070012 135.2284997  23.8299988  29.5897826 134.8795802  24.3340971
  25.2060012 135.7904997  20.9979988  25.1230012 136.6794997  21.3449988
  26.0960012 135.5254997  21.2299988  25.3149469 135.8761430  21.0767626
  35.4050012 136.5394997  33.3929988  34.4880012 136.8024997  33.3049988
  35.7400012 136.5364997  32.4959988  35.3249900 136.5750224  33.2597919
  34.0070012 140.2904997  27.4879988  33.2090012 139.8754997  27.1599988
  34.4520012 139.5994997  27.9789988  33.9579885 140.1403543  27.5094889
  21.7810012 138.8824997  19.1749988  21.7360012 139.8214997  19.3529988
  20.8930012 138.6464997  18.9049988  21.6548574 138.9791892  19.1628912
  22.5890012 133.6644997  27.8479988  22.3600012 133.7234997  26.9199988
  22.1460012 132.8724997  28.1539988  22.4978530 133.5655753  27.7624786
  20.7140012 144.0274997  36.2929988  20.8580012 143.1254997  36.0059988
  19.9420012 144.3134997  35.8049988  20.6293322 143.9428261  36.1877881
  25.0560012 144.3714997  18.4249988  25.1200012 143.5774997  18.9559988
  25.7090012 144.2524997  17.7349988  25.1530241 144.2467148  18.4044317
  27.3700012 143.9974997  35.7249988  27.0410012 144.2684997  34.8679988
  27.5220012 143.0564997  35.6379988  27.3454809 143.9073862  35.5958244
  33.1040012 143.9134997  33.1089988  33.8500012 144.5014997  32.9889988
  32.3470012 144.4954997  33.1719988  33.1037554 144.0727011  33.1010907
  21.5470012 141.2274997  35.7129988  21.9550012 140.3704997  35.5919988
  21.2870012 141.2424997  36.6339988  21.5677568 141.1120807  35.8209588
  26.2050012 142.3434997  20.7309988  25.7450012 141.8594997  21.4169988
  26.4600012 141.6754997  20.0949988  26.1764902 142.1868731  20.7389334
  25.4940012 140.2364997  33.0869988  24.8760012 140.9114997  33.3669988
  25.8380012 140.5574997  32.2539988  25.4559615 140.3722721  33.0126581
  27.2760012 140.5864997  18.9929988  27.0960012 140.4324997  18.0659988
  28.2260012 140.6944997  19.0379988  27.3797776 140.5800175  18.8721843
  30.5140012 142.7084997  36.3639988  31.4670012 142.7914997  36.3369988
  30.3530012 141.9964997  36.9839988  30.6226426 142.6236746  36.4440579
  36.6660012 142.9414997  18.4389988  36.3920012 142.5164997  17.6259988
  36.7050012 143.8724997  18.2219988  36.6337699 143.0092484  18.2983610
  25.8330012 137.5914997  34.1689988  25.9830012 136.8624997  33.5669988
  25.8360012 138.3684997  33.6099988  25.8539302 137.5967851  34.0110692
  26.2460012 135.9614997  31.6619988  26.7820012 136.4124997  31.0099988
  25.3940012 135.8534997  31.2389988  26.2042178 136.0086390  31.5155756
  27.8280012 141.4004997  31.9009988  28.5780012 141.2444997  31.3279988
  27.4890012 142.2524997  31.6259988  27.8848921 141.4942968  31.7853561
  32.2430012 139.2154997  36.9299988  32.4360012 138.2844997  36.8179988
  33.1010012 139.6404997  36.9199988  32.3853020 139.1456389  36.9133361
  33.5600012 142.0044997  35.0069988  33.2790012 142.7134997  34.4299988
  34.5030012 141.9314997  34.8559988  33.6489027 142.0917646  34.9075551
  24.3120012 138.7894997  36.0809988  23.5450012 138.2574997  35.8709988
  24.9910012 138.4794997  35.4809988  24.2987022 138.6747506  35.9711648
  27.0520012 133.4174997  32.0929988  26.9530012 134.3644997  31.9879988
  26.3090012 133.0454997  31.6179988  26.9380563 133.4965902  32.0144560
  28.3160012 137.7394997  35.6569988  28.0800012 137.5194997  36.5589988
  27.5320012 137.5324997  35.1469988  28.1778628 137.6814760  35.7113932
  31.0310012 136.8664997  34.7329988  30.0840012 136.8984997  34.8649988
  31.3440012 136.2414997  35.3859988  30.9435475 136.7863207  34.8394455
  32.6650012 135.5004997  36.7379988  32.5690012 134.5484997  36.7319988
  32.3440012 135.7694997  37.5979988  32.6084070 135.4064035  36.8535441
  22.4920012 136.7104997  35.7849988  22.7040012 136.0034997  35.1749988
  22.3810012 136.2724997  36.6289988  22.5059721 136.5547084  35.8156843
  27.2730012 132.7114997  34.7649988  27.9850012 132.0714997  34.7509988
  27.1720012 132.9784997  33.8509988  27.3567939 132.6599938  34.6395650
  27.6270012 134.3944997  36.8179988  27.4950012 133.9184997  35.9979988
  27.0280012 135.1384997  36.7629988  27.5279071 134.4299618  36.6982886
  37.1240012 143.8104997  22.4139988  37.9740012 144.2314997  22.5409988
  37.1300012 143.0704997  23.0209988  37.2411372 143.7680803  22.5134344
  37.5190012 141.8634997  24.2379988  36.7920012 141.3844997  24.6349988
  38.1000012 142.0694997  24.9699988  37.4979375 141.8257090  24.3914129
  37.2780012 144.6484997  29.1849988  38.1110012 144.2704997  28.9049988
  37.3900012 145.5914997  29.0659988  37.4072647 144.7242218  29.1305487
  37.7870012 141.7644997  20.6289988  37.2650012 142.1214997  19.9099988
  37.7540012 142.4394997  21.3069988  37.7111634 141.9045413  20.6223145
  36.1360012 139.0044997  19.1799988  36.2320012 139.6714997  18.4989988
  35.9960012 138.1884997  18.6979988  36.1302135 138.9854500  19.0218491
  35.3050012 140.3844997  24.8009988  35.1550012 139.4394997  24.7799988
  34.9520012 140.6654997  25.6439988  35.2366625 140.2930441  24.9122346
  20.3410012 142.4624997  28.8109988  20.5250012 142.3804997  27.8749988
  21.1900012 142.3384997  29.2349988  20.4810139 142.4345003  28.7401455
  36.1620012 142.3544997  34.4389988  36.7450012 141.6204997  34.6309988
  36.7260012 143.1264997  34.4859988  36.3179769 142.3584227  34.4716159
  37.6580012 140.2574997  35.1239988  36.7950012 139.8784997  34.9579988
  38.2630012 139.5184997  35.0499988  37.6215979 140.1058023  35.0912817
  35.3830012 136.4124997  18.2969988  35.9940012 136.0414997  18.9339988
  34.5470012 135.9914997  18.4929988  35.3535032 136.3047554  18.4107035
  35.0160012 137.9674997  23.2629988  35.2960012 137.0604997  23.3869988
  35.7750012 138.4014997  22.8739988  35.1569277 137.9020942  23.2273682
  35.6280012 138.5484997  28.6989988  36.5610012 138.7604997  28.6649988
  35.3930012 138.6504997  29.6209988  35.7238036 138.5912769  28.8189976
  35.6570012 139.2854997  31.4749988  34.8140012 139.5534997  31.8409988
  36.0990012 140.1074997  31.2639988  35.6014158 139.4333291  31.4965491
  19.9380012 137.7334997  34.9519988  20.8580012 137.6114997  35.1879988
  19.4890012 136.9834997  35.3409988  20.0031580 137.6153727  35.0369006
  37.9400012 133.2654997  36.8279988  38.2900012 132.6114997  36.2229988
  38.0870012 134.1024997  36.3889988  38.0078419 133.2891591  36.6857118
  35.6290012 135.2304997  23.3109988  35.8120012 134.7814997  24.1369988
  35.0300012 134.6454997  22.8479988  35.5730202 135.0899975  23.3613275
  21.1590012 136.0454997  27.8429988  21.6050012 135.2534997  28.1449988
  21.6260012 136.7614997  28.2739988  21.2830172 136.0340624  27.9424820
  19.4630012 139.0444997  28.9119988  19.9550012 138.8234997  28.1209988
  19.8260012 139.8854997  29.1929988  19.5793126 139.1278357  28.8417531
  37.4600012 135.3744997  35.1779988  36.5420012 135.6454997  35.1419988
  37.5830012 134.8394997  34.3929988  37.3511066 135.3392892  35.0670487
  37.4960012 135.2974997  19.8389988  37.9080012 134.5764997  19.3639988
  38.1780012 135.9674997  19.8979988  37.6445885 135.2892368  19.7818915
  19.7770012 135.3024997  22.9659988  18.8520012 135.5114997  22.8369988
  20.2310012 135.7864997  22.2769988  19.7117368 135.3965993  22.8551226
  19.7410012 134.0404997  31.3109988  19.0760012 133.7944997  31.9539988
  19.2980012 134.6624997  30.7329988  19.5900956 134.0908632  31.3209352
  36.4600012 133.4644997  32.9969988  35.6480012 133.7894997  32.6089988
  36.6930012 132.7044997  32.4639988  36.3803423 133.4062436  32.8718253
  29.8900012 134.9134997  27.3189988  29.2160012 134.2844997  27.5749988
  30.4540012 134.4294997  26.7159988  29.8739230 134.7618744  27.2725340
  35.0330012 133.0214997  27.4319988  35.6370012 133.5684997  26.9299988
  34.1630012 133.3404997  27.1919988  34.9981241 133.1395806  27.3307654
  36.7600012 134.1594997  25.7649988  37.3720012 133.6454997  25.2389988
  37.1420012 135.0374997  25.7889988  36.8954540 134.2077140  25.6961830
  22.2170012 133.5474997  25.1409988  21.4400012 133.3134997  24.6339988
  22.7470012 132.7504997  25.1499988  22.1822330 133.4076988  25.0727742
  21.0530012 133.3454997  20.9449988  21.4920012 133.9564997  20.3529988
  20.4200012 133.8834997  21.4189988  21.0274514 133.5019257  20.9280930
  26.7960012 133.4744997  24.9549988  27.6710012 133.8624997  24.9249988
  26.6600012 133.2594997  25.8769988  26.8973695 133.4985184  25.0756440
  32.3530012 133.5044997  26.6039988  32.4290012 133.5994997  25.6539988
  32.0780012 132.5964997  26.7329988  32.3262321 133.3947867  26.4915079
  33.7060012 133.5304997  22.2959988  33.0040012 134.1454997  22.0869988
  33.2620012 132.6924997  22.4269988  33.5496330 133.5015783  22.2850328
  22.9140012 135.2614997  19.3869988  23.4060012 134.6314997  18.8599988
  23.5380012 135.5574997  20.0509988  23.0655446 135.2153199  19.4045980
  27.9400012 135.5544997  21.8439988  28.1180012 134.9084997  22.5269988
  27.8870012 136.3884997  22.3119988  27.9571829 135.5787985  22.0005940
  22.1750012 134.0614997  34.6589988  21.8090012 133.2964997  35.1019988
  23.0880012 134.0904997  34.9459988  22.2482790 133.9607224  34.7584070
  24.1480012 133.4124997  36.1949988  25.0460012 133.1384997  36.0099988
  23.7610012 132.6694997  36.6589988  24.2186612 133.2745914  36.2323643
  32.5690012 132.7444997  36.3769988  32.6460012 132.3184997  37.2309988
  33.4630012 132.7584997  36.0339988  32.7003428 132.6880879  36.4475310
  50.1510012 142.7034997  25.0999988  50.2400012 143.6474997  24.9679988
  49.5130012 142.4284997  24.4419988  50.0769081 142.7954830  24.9929614
  49.0840012 141.9584997  28.5189988  49.0460012 141.3124997  29.2239988
  48.7620012 141.4924997  27.7479988  49.0352333 141.8069408  28.5112978
  41.4530012 141.5734997  30.1119988  41.4940012 140.9474997  30.8349988
  42.1560012 142.1974997  30.2939988  41.5536363 141.5721196  30.2356044
  52.7900012 144.8974997  26.8199988  52.3500012 144.1774997  27.2709988
  52.7770012 145.6184997  27.4499988  52.7280226 144.8963731  26.9668494
  38.9860012 139.6834997  24.0399988  38.5390012 140.5294997  24.0209988
  38.4250012 139.1034997  23.5239988  38.8489900 139.7209916  23.9676801
  39.6970012 141.8454997  26.1659988  39.9100012 141.0754997  26.6929988
  40.4350012 141.9344997  25.5619988  39.8258496 141.7521394  26.1565300
  47.4740012 144.3914997  28.9249988  47.7780012 143.7054997  28.3299988
  48.1950012 144.5094997  29.5429988  47.6130671 144.3136305  28.9271816
  56.1370012 135.9924997  29.7859988  56.1860012 136.6024997  30.5219988
  56.5620012 136.4534997  29.0629988  56.2011824 136.1383741  29.7890205
  50.6150012 138.7854997  29.2529988  50.7570012 137.8394997  29.2729988
  50.5080012 138.9924997  28.3239988  50.6199864 138.6839534  29.1302339
  43.7690012 136.8864997  26.5249988  43.8130012 137.7464997  26.1069988
  43.3120012 136.3344997  25.8909988  43.7132185 136.9295799  26.3820299
  51.4920012 137.0174997  24.9259988  52.1380012 136.6884997  25.5509988
  52.0020012 137.5354997  24.3029988  51.6494264 137.0424611  24.9273862
  40.3900012 139.2834997  27.2869988  41.0430012 138.7334997  27.7189988
  40.4140012 139.0094997  26.3699988  40.4826683 139.1711466  27.2222123
  45.5460012 140.8334997  26.5019988  46.1620012 140.3074997  27.0119988
  44.9600012 140.1934997  26.0989988  45.5510810 140.6749208  26.5173173
  56.5280012 137.4704997  32.0219988  55.8400012 138.1284997  31.9259988
  56.5440012 137.2734997  32.9579988  56.4358525 137.5340462  32.1354808
  42.5800012 135.8044997  30.5989988  42.3610012 136.3344997  29.8329988
  41.9120012 136.0314997  31.2459988  42.4597600 135.9076906  30.5816379
  45.1490012 143.4804997  30.8859988  44.4090012 144.0784997  30.9899988
  45.8630012 144.0344997  30.5709988  45.1442237 143.6372831  30.8576465
  53.2560012 136.3084997  26.9059988  53.0400012 135.5424997  27.4389988
  53.9110012 136.7804997  27.4189988  53.3150632 136.2675889  27.0482861
  42.1730012 137.6964997  28.5509988  42.7870012 138.3294997  28.9249988
  42.6850012 137.2244997  27.8949988  42.3262296 137.7192370  28.5134252
  53.6030012 135.0234997  30.5859988  52.8670012 135.6344997  30.5479988
  54.2860012 135.4384997  30.0589988  53.5946541 135.1631374  30.5095832
  46.6060012 133.1104997  28.0519988  46.4890012 132.1614997  27.9969988
  45.7510012 133.4424997  28.3249988  46.4743733 133.0255409  28.0813897
  54.4000012 144.9854997  32.7799988  54.5400012 144.3944997  32.0399988
  54.5670012 145.8584997  32.4229988  54.4416778 145.0226426  32.6306965
  48.8730012 141.9474997  22.5519988  48.1610012 142.4824997  22.1999988
  49.5640012 142.0034997  21.8919988  48.8690132 142.0282543  22.4146289
  48.9260012 140.4054997  19.5909988  49.6270012 140.4274997  20.2419988
  49.2290012 139.7774997  18.9349988  49.0627830 140.3236566  19.5913711
  56.2420012 141.3254997  30.8459988  55.5890012 142.0204997  30.9349988
  56.7070012 141.5354997  30.0359988  56.2155390 141.4489425  30.7486883
  52.2780012 142.1574997  23.5039988  51.5460012 142.3854997  24.0769988
  52.7260012 141.4434997  23.9589988  52.2383095 142.0922571  23.6439119
  52.1760012 140.3314997  32.5709988  52.2560012 141.0944997  33.1429988
  51.5740012 140.6104997  31.8809988  52.1055756 140.4737134  32.5560589
  43.9240012 142.7874997  25.3859988  43.5930012 142.4174997  24.5679988
  44.5120012 142.1174997  25.7329988  43.9581873 142.6461156  25.3208102
  44.2900012 141.5564997  29.0199988  44.8560012 141.6774997  28.2569988
  44.6090012 142.1934997  29.6589988  44.4105786 141.6591884  29.0020040
  51.1490012 141.3194997  21.1889988  51.7290012 141.4694997  21.9359988
  51.5630012 141.7904997  20.4659988  51.2842830 141.4036841  21.1934134
  42.0900012 142.1534997  32.9659988  42.1610012 142.8044997  33.6639988
  41.2000012 142.2564997  32.6309988  41.9793117 142.2565936  33.0162700
  54.8480012 133.0694997  21.0019988  53.9480012 133.2084997  21.2969988
  55.1000012 133.9004997  20.5999988  54.7588702 133.2009074  20.9880205
  42.9140012 141.8574997  22.9759988  42.6220012 142.6254997  22.4849988
  42.2400012 141.1974997  22.8129988  42.7829081 141.8734406  22.8867340
  39.0070012 144.2204997  31.7909988  38.5060012 144.1924997  30.9759988
  39.0120012 143.3144997  32.0999988  38.9391526 144.0942278  31.7212872
  54.1070012 139.1594997  34.8369988  53.7000012 139.6404997  34.1159988
  54.1480012 138.2544997  34.5289988  54.0568437 139.1029374  34.6966683
  43.8750012 134.0134997  28.8289988  43.0130012 133.9264997  28.4219988
  43.8520012 134.8694997  29.2569988  43.7540330 134.1172765  28.8311863
  48.5380012 133.7354997  32.2039988  48.9580012 133.3204997  32.9569988
  47.6050012 133.5574997  32.3209988  48.4693644 133.6545900  32.3229539
  51.8640012 137.4914997  33.0569988  51.3500012 137.3654997  33.8549988
  51.7090012 138.4034997  32.8129988  51.7726852 137.5976132  33.1332158
  52.6270012 142.3524997  18.8189988  52.6690012 142.1294997  17.8889988
  53.4760012 142.7514997  19.0089988  52.7475396 142.3759155  18.7173627
  48.1990012 136.2284997  19.4889988  47.9460012 136.2474997  20.4119988
  47.9430012 135.3564997  19.1879988  48.1297790 136.1132437  19.5746263
  43.9660012 138.9794997  29.9239988  43.3240012 138.9384997  30.6329988
  44.0030012 139.9054997  29.6869988  43.8831324 139.0991559  29.9889824
  43.9630012 139.2004997  24.8359988  43.0700012 138.8594997  24.7779988
  44.4130012 138.8234997  24.0809988  43.9017305 139.1028484  24.7259177
  49.4980012 139.6164997  23.6529988  49.0890012 140.4314997  23.3619988
  50.2190012 139.4764997  23.0389988  49.5394537 139.7092018  23.5301342
  48.6000012 139.7914997  35.1409988  48.0380012 139.0874997  35.4619988
  49.4270012 139.6714997  35.6089988  48.6347095 139.6787883  35.2482330
  50.5030012 139.0624997  26.4669988  50.3080012 139.6674997  25.7519988
  50.6840012 138.2284997  26.0329988  50.5007614 139.0326300  26.3104405
  41.7160012 139.2994997  31.7909988  41.6780012 139.6994997  32.6599988
  41.2250012 138.4824997  31.8819988  41.6444684 139.2438069  31.9221059
  45.0820012 136.6734997  18.5899988  44.6510012 136.2284997  19.3199988
  44.3640012 137.0454997  18.0779988  44.9259438 136.6628940  18.6206799
  38.3240012 136.4154997  25.6419988  38.9550012 136.3864997  26.3609988
  38.7730012 135.9904997  24.9119988  38.4710774 136.3540492  25.6416553
  39.5980012 137.1614997  21.0659988  40.0720012 137.7524997  20.4809988
  38.8810012 137.6924997  21.4129988  39.5659341 137.3140867  21.0328836
  49.7670012 140.7004997  31.1389988  50.0900012 140.0694997  30.4959988
  49.3270012 140.1654997  31.7989988  49.7516895 140.5418441  31.1402850
  46.5440012 136.6274997  25.9229988  45.6330012 136.6844997  26.2109988
  47.0500012 136.5674997  26.7329988  46.4875413 136.6271985  26.0720622
  41.3730012 138.2564997  24.7489988  40.4830012 138.3564997  24.4089988
  41.6690012 137.4144997  24.4029988  41.2912823 138.1563546  24.6557213
  45.0260012 138.2564997  22.4059988  45.9570012 138.3854997  22.5839988
  44.8110012 138.9264997  21.7559988  45.1244247 138.3646565  22.3425747
  50.9490012 135.8624997  29.1869988  50.2730012 135.9934997  29.8509988
  50.4640012 135.7074997  28.3769988  50.7907145 135.8594905  29.1684517
  43.7000012 139.4514997  19.9729988  43.1570012 139.0714997  19.2809988
  44.5330012 139.6454997  19.5439988  43.7384399 139.4258124  19.8204526
  41.8350012 144.0084997  35.0719988  42.5670012 144.2624997  35.6329988
  41.0550012 144.2124997  35.5869988  41.8298232 144.0709177  35.2185760
  47.8640012 139.4154997  27.8099988  48.4290012 138.8684997  27.2629988
  47.7170012 138.8934997  28.5979988  47.9212918 139.2702024  27.8418454
  42.8660012 135.5514997  24.2279988  42.5490012 134.6494997  24.1929988
  43.6480012 135.5534997  23.6749988  42.9282284 135.4281628  24.1484783
  46.4910012 137.8034997  30.2239988  45.6550012 138.2574997  30.3339988
  47.0150012 138.0794997  30.9759988  46.4474414 137.9029376  30.3407136
  47.0350012 144.0164997  21.9079988  46.2900012 143.5094997  21.5859988
  46.9010012 144.0654997  22.8549988  46.9148776 143.9536940  21.9918647
  54.1850012 143.1494997  30.6949988  54.8270012 143.6064997  30.1509988
  53.3550012 143.2624997  30.2319988  54.1605963 143.2272704  30.5580177
  50.9330012 136.8304997  20.1079988  49.9940012 136.9424997  19.9559988
  51.2300012 137.6874997  20.4139988  50.8447666 136.9616443  20.1285768
  48.5540012 144.2004997  33.1449988  48.2090012 143.8194997  33.9519988
  48.3540012 145.1344997  33.2169988  48.4798061 144.2745228  33.2650961
  51.6510012 138.6974997  21.7679988  52.5430012 138.5604997  22.0869988
  51.7080012 139.4884997  21.2319988  51.7806285 138.7856660  21.7391691
  42.1600012 143.3114997  27.6779988  42.9050012 143.3094997  27.0769988
  42.2380012 142.4884997  28.1599988  42.2725518 143.1999315  27.6608929
  39.1680012 141.7724997  32.9929988  39.3910012 141.3544997  33.8249988
  38.5660012 141.1594997  32.5699988  39.1171759 141.6324668  33.0497022
  46.1840012 141.2894997  35.2059988  45.8880012 141.1234997  34.3109988
  47.1160012 141.0694997  35.1949988  46.2694166 141.2370640  35.0820536
  56.5360012 138.9074997  21.4629988  55.9820012 138.5114997  20.7909988
  56.6360012 139.8174997  21.1849988  56.4737059 138.9763586  21.3334401
  56.4990012 144.7074997  34.2999988  55.6480012 144.9454997  33.9329988
  57.0900012 144.6904997  33.5469988  56.4622487 144.7378258  34.1478893
  51.9920012 142.5014997  28.9489988  51.0630012 142.2694997  28.9219988
  52.4430012 141.7244997  28.6189988  51.9259216 142.3647238  28.9006917
  40.2900012 141.6914997  19.6689988  40.9060012 142.3184997  20.0489988
  39.4280012 142.0074997  19.9409988  40.2577698 141.8199430  19.7577183
  45.9620012 144.4924997  24.6589988  45.7210012 145.4174997  24.6999988
  45.2210012 144.0334997  25.0549988  45.8288409 144.5571421  24.7181377
  50.0210012 144.7404997  30.6739988  49.5950012 144.5134997  31.5009988
  50.6010012 144.0024997  30.4919988  50.0411868 144.6095299  30.7625830
  40.8020012 136.5254997  32.5509988  39.9090012 136.8644997  32.4829988
  40.7030012 135.6704997  32.9689988  40.6664164 136.4562588  32.5982235
  53.0900012 144.3424997  21.9749988  52.8120012 143.6144997  22.5309988
  54.0170012 144.4614997  22.1799988  53.1773124 144.2588802  22.0788845
  41.7050012 143.6044997  21.1619988  41.0190012 143.9564997  21.7289988
  42.2270012 144.3674997  20.9149988  41.6816852 143.7558578  21.2062118
  49.5360012 136.2664997  31.4409988  50.2350012 136.3404997  32.0909988
  49.1550012 135.4024997  31.5949988  49.5801767 136.1597624  31.5508322
  50.3210012 135.9184997  22.5379988  50.5410012 136.3904997  21.7349988
  50.8790012 136.3134997  23.2079988  50.4264968 136.0364285  22.5187331
  47.5210012 137.6464997  23.3729988  48.3330012 138.1514997  23.4189988
  47.2760012 137.5014997  24.2869988  47.5990520 137.6960375  23.5028517
  48.0560012 138.6324997  32.5579988  48.1750012 139.2064997  33.3149988
  48.7120012 137.9444997  32.6719988  48.1609757 138.6181079  32.6770825
  48.4040012 134.7274997  24.3109988  48.0580012 135.3454997  24.9559988
  49.0630012 135.2284997  23.8299988  48.4457826 134.8795802  24.3340971
  44.0620012 135.7904997  20.9979988  43.9790012 136.6794997  21.3449988
  44.9520012 135.5254997  21.2299988  44.1709469 135.8761430  21.0767626
  54.2610012 136.5394997  33.3929988  53.3440012 136.8024997  33.3049988
  54.5960012 136.5364997  32.4959988  54.1809900 136.5750224  33.2597919
  52.8630012 140.2904997  27.4879988  52.0650012 139.8754997  27.1599988
  53.3080012 139.5994997  27.9789988  52.8139885 140.1403543  27.5094889
  40.6370012 138.8824997  19.1749988  40.5920012 139.8214997  19.3529988
  39.7490012 138.6464997  18.9049988  40.5108574 138.9791892  19.1628912
  41.4450012 133.6644997  27.8479988  41.2160012 133.7234997  26.9199988
  41.0020012 132.8724997  28.1539988  41.3538530 133.5655753  27.7624786
  39.5700012 144.0274997  36.2929988  39.7140012 143.1254997  36.0059988
  38.7980012 144.3134997  35.8049988  39.4853322 143.9428261  36.1877881
  43.9120012 144.3714997  18.4249988  43.9760012 143.5774997  18.9559988
  44.5650012 144.2524997  17.7349988  44.0090241 144.2467148  18.4044317
  46.2260012 143.9974997  35.7249988  45.8970012 144.2684997  34.8679988
  46.3780012 143.0564997  35.6379988  46.2014809 143.9073862  35.5958244
  51.9600012 143.9134997  33.1089988  52.7060012 144.5014997  32.9889988
  51.2030012 144.4954997  33.1719988  51.9597554 144.0727011  33.1010907
  40.4030012 141.2274997  35.7129988  40.8110012 140.3704997  35.5919988
  40.1430012 141.2424997  36.6339988  40.4237568 141.1120807  35.8209588
  45.0610012 142.3434997  20.7309988  44.6010012 141.8594997  21.4169988
  45.3160012 141.6754997  20.0949988  45.0324902 142.1868731  20.7389334
  44.3500012 140.2364997  33.0869988  43.7320012 140.9114997  33.3669988
  44.6940012 140.5574997  32.2539988  44.3119615 140.3722721  33.0126581
  46.1320012 140.5864997  18.9929988  45.9520012 140.4324997  18.0659988
  47.0820012 140.6944997  19.0379988  46.2357776 140.5800175  18.8721843
  49.3700012 142.7084997  36.3639988  50.3230012 142.7914997  36.3369988
  49.2090012 141.9964997  36.9839988  49.4786426 142.6236746  36.4440579
  55.5220012 142.9414997  18.4389988  55.2480012 142.5164997  17.6259988
  55.5610012 143.8724997  18.2219988  55.4897699 143.0092484  18.2983610
  44.6890012 137.5914997  34.1689988  44.8390012 136.8624997  33.5669988
  44.6920012 138.3684997  33.6099988  44.7099302 137.5967851  34.0110692
  45.1020012 135.9614997  31.6619988  45.6380012 136.4124997  31.0099988
  44.2500012 135.8534997  31.2389988  45.0602178 136.0086390  31.5155756
  46.6840012 141.4004997  31.9009988  47.4340012 141.2444997  31.3279988
  46.3450012 142.2524997  31.6259988  46.7408921 141.4942968  31.7853561
  51.0990012 139.2154997  36.9299988  51.2920012 138.2844997  36.8179988
  51.9570012 139.6404997  36.9199988  51.2413020 139.1456389  36.9133361
  52.4160012 142.0044997  35.0069988  52.1350012 142.7134997  34.4299988
  53.3590012 141.9314997  34.8559988  52.5049027 142.0917646  34.9075551
  43.1680012 138.7894997  36.0809988  42.4010012 138.2574997  35.8709988
  43.8470012 138.4794997  35.4809988  43.1547022 138.6747506  35.9711648
  45.9080012 133.4174997  32.0929988  45.8090012 134.3644997  31.9879988
  45.1650012 133.0454997  31.6179988  45.7940563 133.4965902  32.0144560
  47.1720012 137.7394997  35.6569988  46.9360012 137.5194997  36.5589988
  46.3880012 137.5324997  35.1469988  47.0338628 137.6814760  35.7113932
  49.8870012 136.8664997  34.7329988  48.9400012 136.8984997  34.8649988
  50.2000012 136.2414997  35.3859988  49.7995475 136.7863207  34.8394455
  51.5210012 135.5004997  36.7379988  51.4250012 134.5484997  36.7319988
  51.2000012 135.7694997  37.5979988  51.4644070 135.4064035  36.8535441
  41.3480012 136.7104997  35.7849988  41.5600012 136.0034997  35.1749988
  41.2370012 136.2724997  36.6289988  41.3619721 136.5547084  35.8156843
  46.1290012 132.7114997  34.7649988  46.8410012 132.0714997  34.7509988
  46.0280012 132.9784997  33.8509988  46.2127939 132.6599938  34.6395650
  46.4830012 134.3944997  36.8179988  46.3510012 133.9184997  35.9979988
  45.8840012 135.1384997  36.7629988  46.3839071 134.4299618  36.6982886
  55.9800012 143.8104997  22.4139988  56.8300012 144.2314997  22.5409988
  55.9860012 143.0704997  23.0209988  56.0971372 143.7680803  22.5134344
  56.3750012 141.8634997  24.2379988  55.6480012 141.3844997  24.6349988
  56.9560012 142.0694997  24.9699988  56.3539375 141.8257090  24.3914129
  56.1340012 144.6484997  29.1849988  56.9670012 144.2704997  28.9049988
  56.2460012 145.5914997  29.0659988  56.2632647 144.7242218  29.1305487
  56.6430012 141.7644997  20.6289988  56.1210012 142.1214997  19.9099988
  56.6100012 142.4394997  21.3069988  56.5671634 141.9045413  20.6223145
  54.9920012 139.0044997  19.1799988  55.0880012 139.6714997  18.4989988
  54.8520012 138.1884997  18.6979988  54.9862135 138.9854500  19.0218491
  54.1610012 140.3844997  24.8009988  54.0110012 139.4394997  24.7799988
  53.8080012 140.6654997  25.6439988  54.0926625 140.2930441  24.9122346
  39.1970012 142.4624997  28.8109988  39.3810012 142.3804997  27.8749988
  40.0460012 142.3384997  29.2349988  39.3370139 142.4345003  28.7401455
  55.0180012 142.3544997  34.4389988  55.6010012 141.6204997  34.6309988
  55.5820012 143.1264997  34.4859988  55.1739769 142.3584227  34.4716159
  56.5140012 140.2574997  35.1239988  55.6510012 139.8784997  34.9579988
  57.1190012 139.5184997  35.0499988  56.4775979 140.1058023  35.0912817
  54.2390012 136.4124997  18.2969988  54.8500012 136.0414997  18.9339988
  53.4030012 135.9914997  18.4929988  54.2095032 136.3047554  18.4107035
  53.8720012 137.9674997  23.2629988  54.1520012 137.0604997  23.3869988
  54.6310012 138.4014997  22.8739988  54.0129277 137.9020942  23.2273682
  54.4840012 138.5484997  28.6989988  55.4170012 138.7604997  28.6649988
  54.2490012 138.6504997  29.6209988  54.5798036 138.5912769  28.8189976
  54.5130012 139.2854997  31.4749988  53.6700012 139.5534997  31.8409988
  54.9550012 140.1074997  31.2639988  54.4574158 139.4333291  31.4965491
  38.7940012 137.7334997  34.9519988  39.7140012 137.6114997  35.1879988
  38.3450012 136.9834997  35.3409988  38.8591580 137.6153727  35.0369006
  56.7960012 133.2654997  36.8279988  57.1460012 132.6114997  36.2229988
  56.9430012 134.1024997  36.3889988  56.8638419 133.2891591  36.6857118
  54.4850012 135.2304997  23.3109988  54.6680012 134.7814997  24.1369988
  53.8860012 134.6454997  22.8479988  54.4290202 135.0899975  23.3613275
  40.0150012 136.0454997  27.8429988  40.4610012 135.2534997  28.1449988
  40.4820012 136.7614997  28.2739988  40.1390172 136.0340624  27.9424820
  38.3190012 139.0444997  28.9119988  38.8110012 138.8234997  28.1209988
  38.6820012 139.8854997  29.1929988  38.4353126 139.1278357  28.8417531
  56.3160012 135.3744997  35.1779988  55.3980012 135.6454997  35.1419988
  56.4390012 134.8394997  34.3929988  56.2071066 135.3392892  35.0670487
  56.3520012 135.2974997  19.8389988  56.7640012 134.5764997  19.3639988
  57.0340012 135.9674997  19.8979988  56.5005885 135.2892368  19.7818915
  38.6330012 135.3024997  22.9659988  37.7080012 135.5114997  22.8369988
  39.0870012 135.7864997  22.2769988  38.5677368 135.3965993  22.8551226
  38.5970012 134.0404997  31.3109988  37.9320012 133.7944997  31.9539988
  38.1540012 134.6624997  30.7329988  38.4460956 134.0908632  31.3209352
  55.3160012 133.4644997  32.9969988  54.5040012 133.7894997  32.6089988
  55.5490012 132.7044997  32.4639988  55.2363423 133.4062436  32.8718253
  48.7460012 134.9134997  27.3189988  48.0720012 134.2844997  27.5749988
  49.3100012 134.4294997  26.7159988  48.7299230 134.7618744  27.2725340
  53.8890012 133.0214997  27.4319988  54.4930012 133.5684997  26.9299988
  53.0190012 133.3404997  27.1919988  53.8541241 133.1395806  27.3307654
  55.6160012 134.1594997  25.7649988  56.2280012 133.6454997  25.2389988
  55.9980012 135.0374997  25.7889988  55.7514540 134.2077140  25.6961830
  41.0730012 133.5474997  25.1409988  40.2960012 133.3134997  24.6339988
  41.6030012 132.7504997  25.1499988  41.0382330 133.4076988  25.0727742
  39.9090012 133.3454997  20.9449988  40.3480012 133.9564997  20.3529988
  39.2760012 133.8834997  21.4189988  39.8834514 133.5019257  20.9280930
  45.6520012 133.4744997  24.9549988  46.5270012 133.8624997  24.9249988
  45.5160012 133.2594997  25.8769988  45.7533695 133.4985184  25.0756440
  51.2090012 133.5044997  26.6039988  51.2850012 133.5994997  25.6539988
  50.9340012 132.5964997  26.7329988  51.1822321 133.3947867  26.4915079
  52.5620012 133.5304997  22.2959988  51.8600012 134.1454997  22.0869988
  52.1180012 132.6924997  22.4269988  52.4056330 133.5015783  22.2850328
  41.7700012 135.2614997  19.3869988  42.2620012 134.6314997  18.8599988
  42.3940012 135.5574997  20.0509988  41.9215446 135.2153199  19.4045980
  46.7960012 135.5544997  21.8439988  46.9740012 134.9084997  22.5269988
  46.7430012 136.3884997  22.3119988  46.8131829 135.5787985  22.0005940
  41.0310012 134.0614997  34.6589988  40.6650012 133.2964997  35.1019988
  41.9440012 134.0904997  34.9459988  41.1042790 133.9607224  34.7584070
  43.0040012 133.4124997  36.1949988  43.9020012 133.1384997  36.0099988
  42.6170012 132.6694997  36.6589988  43.0746612 133.2745914  36.2323643
  51.4250012 132.7444997  36.3769988  51.5020012 132.3184997  37.2309988
  52.3190012 132.7584997  36.0339988  51.5563428 132.6880879  36.4475310
  69.0070012 142.7034997  25.0999988  69.0960012 143.6474997  24.9679988
  68.3690012 142.4284997  24.4419988  68.9329081 142.7954830  24.9929614
  67.9400012 141.9584997  28.5189988  67.9020012 141.3124997  29.2239988
  67.6180012 141.4924997  27.7479988  67.8912333 141.8069408  28.5112978
  60.3090012 141.5734997  30.1119988  60.3500012 140.9474997  30.8349988
  61.0120012 142.1974997  30.2939988  60.4096363 141.5721196  30.2356044
  71.6460012 144.8974997  26.8199988  71.2060012 144.1774997  27.2709988
  71.6330012 145.6184997  27.4499988  71.5840226 144.8963731  26.9668494
  57.8420012 139.6834997  24.0399988  57.3950012 140.5294997  24.0209988
  57.2810012 139.1034997  23.5239988  57.7049900 139.7209916  23.9676801
  58.5530012 141.8454997  26.1659988  58.7660012 141.0754997  26.6929988
  59.2910012 141.9344997  25.5619988  58.6818496 141.7521394  26.1565300
  66.3300012 144.3914997  28.9249988  66.6340012 143.7054997  28.3299988
  67.0510012 144.5094997  29.5429988  66.4690671 144.3136305  28.9271816
  74.9930012 135.9924997  29.7859988  75.0420012 136.6024997  30.5219988
  75.4180012 136.4534997  29.0629988  75.0571824 136.1383741  29.7890205
  69.4710012 138.7854997  29.2529988  69.6130012 137.8394997  29.2729988
  69.3640012 138.9924997  28.3239988  69.4759864 138.6839534  29.1302339
  62.6250012 136.8864997  26.5249988  62.6690012 137.7464997  26.1069988
  62.1680012 136.3344997  25.8909988  62.5692185 136.9295799  26.3820299
  70.3480012 137.0174997  24.9259988  70.9940012 136.6884997  25.5509988
  70.8580012 137.5354997  24.3029988  70.5054264 137.0424611  24.9273862
  59.2460012 139.2834997  27.2869988  59.8990012 138.7334997  27.7189988
  59.2700012 139.0094997  26.3699988  59.3386683 139.1711466  27.2222123
  64.4020012 140.8334997  26.5019988  65.0180012 140.3074997  27.0119988
  63.8160012 140.1934997  26.0989988  64.4070810 140.6749208  26.5173173
  75.3840012 137.4704997  32.0219988  74.6960012 138.1284997  31.9259988
  75.4000012 137.2734997  32.9579988  75.2918525 137.5340462  32.1354808
  61.4360012 135.8044997  30.5989988  61.2170012 136.3344997  29.8329988
  60.7680012 136.0314997  31.2459988  61.3157600 135.9076906  30.5816379
  64.0050012 143.4804997  30.8859988  63.2650012 144.0784997  30.9899988
  64.7190012 144.0344997  30.5709988  64.0002237 143.6372831  30.8576465
  72.1120012 136.3084997  26.9059988  71.8960012 135.5424997  27.4389988
  72.7670012 136.7804997  27.4189988  72.1710632 136.2675889  27.0482861
  61.0290012 137.6964997  28.5509988  61.6430012 138.3294997  28.9249988
  61.5410012 137.2244997  27.8949988  61.1822296 137.7192370  28.5134252
  72.4590012 135.0234997  30.5859988  71.7230012 135.6344997  30.5479988
  73.1420012 135.4384997  30.0589988  72.4506541 135.1631374  30.5095832
  65.4620012 133.1104997  28.0519988  65.3450012 132.1614997  27.9969988
  64.6070012 133.4424997  28.3249988  65.3303733 133.0255409  28.0813897
  73.2560012 144.9854997  32.7799988  73.3960012 144.3944997  32.0399988
  73.4230012 145.8584997  32.4229988  73.2976778 145.0226426  32.6306965
  67.7290012 141.9474997  22.5519988  67.0170012 142.4824997  22.1999988
  68.4200012 142.0034997  21.8919988  67.7250132 142.0282543  22.4146289
  67.7820012 140.4054997  19.5909988  68.4830012 140.4274997  20.2419988
  68.0850012 139.7774997  18.9349988  67.9187830 140.3236566  19.5913711
  75.0980012 141.3254997  30.8459988  74.4450012 142.0204997  30.9349988
  75.5630012 141.5354997  30.0359988  75.0715390 141.4489425  30.7486883
  71.1340012 142.1574997  23.5039988  70.4020012 142.3854997  24.0769988
  71.5820012 141.4434997  23.9589988  71.0943095 142.0922571  23.6439119
  71.0320012 140.3314997  32.5709988  71.1120012 141.0944997  33.1429988
  70.4300012 140.6104997  31.8809988  70.9615756 140.4737134  32.5560589
  62.7800012 142.7874997  25.3859988  62.4490012 142.4174997  24.5679988
  63.3680012 142.1174997  25.7329988  62.8141873 142.6461156  25.3208102
  63.1460012 141.5564997  29.0199988  63.7120012 141.6774997  28.2569988
  63.4650012 142.1934997  29.6589988  63.2665786 141.6591884  29.0020040
  70.0050012 141.3194997  21.1889988  70.5850012 141.4694997  21.9359988
  70.4190012 141.7904997  20.4659988  70.1402830 141.4036841  21.1934134
  60.9460012 142.1534997  32.9659988  61.0170012 142.8044997  33.6639988
  60.0560012 142.2564997  32.6309988  60.8353117 142.2565936  33.0162700
  73.7040012 133.0694997  21.0019988  72.8040012 133.2084997  21.2969988
  73.9560012 133.9004997  20.5999988  73.6148702 133.2009074  20.9880205
  61.7700012 141.8574997  22.9759988  61.4780012 142.6254997  22.4849988
  61.0960012 141.1974997  22.8129988  61.6389081 141.8734406  22.8867340
  57.8630012 144.2204997  31.7909988  57.3620012 144.1924997  30.9759988
  57.8680012 143.3144997  32.0999988  57.7951526 144.0942278  31.7212872
  72.9630012 139.1594997  34.8369988  72.5560012 139.6404997  34.1159988
  73.0040012 138.2544997  34.5289988  72.9128437 139.1029374  34.6966683
  62.7310012 134.0134997  28.8289988  61.8690012 133.9264997  28.4219988
  62.7080012 134.8694997  29.2569988  62.6100330 134.1172765  28.8311863
  67.3940012 133.7354997  32.2039988  67.8140012 133.3204997  32.9569988
  66.4610012 133.5574997  32.3209988  67.3253644 133.6545900  32.3229539
  70.7200012 137.4914997  33.0569988  70.2060012 137.3654997  33.8549988
  70.5650012 138.4034997  32.8129988  70.6286852 137.5976132  33.1332158
  71.4830012 142.3524997  18.8189988  71.5250012 142.1294997  17.8889988
  72.3320012 142.7514997  19.0089988  71.6035396 142.3759155  18.7173627
  67.0550012 136.2284997  19.4889988  66.8020012 136.2474997  20.4119988
  66.7990012 135.3564997  19.1879988  66.9857790 136.1132437  19.5746263
  62.8220012 138.9794997  29.9239988  62.1800012 138.9384997  30.6329988
  62.8590012 139.9054997  29.6869988  62.7391324 139.0991559  29.9889824
  62.8190012 139.2004997  24.8359988  61.9260012 138.8594997  24.7779988
  63.2690012 138.8234997  24.0809988  62.7577305 139.1028484  24.7259177
  68.3540012 139.6164997  23.6529988  67.9450012 140.4314997  23.3619988
  69.0750012 139.4764997  23.0389988  68.3954537 139.7092018  23.5301342
  67.4560012 139.7914997  35.1409988  66.8940012 139.0874997  35.4619988
  68.2830012 139.6714997  35.6089988  67.4907095 139.6787883  35.2482330
  69.3590012 139.0624997  26.4669988  69.1640012 139.6674997  25.7519988
  69.5400012 138.2284997  26.0329988  69.3567614 139.0326300  26.3104405
  60.5720012 139.2994997  31.7909988  60.5340012 139.6994997  32.6599988
  60.0810012 138.4824997  31.8819988  60.5004684 139.2438069  31.9221059
  63.9380012 136.6734997  18.5899988  63.5070012 136.2284997  19.3199988
  63.2200012 137.0454997  18.0779988  63.7819438 136.6628940  18.6206799
  57.1800012 136.4154997  25.6419988  57.8110012 136.3864997  26.3609988
  57.6290012 135.9904997  24.9119988  57.3270774 136.3540492  25.6416553
  58.4540012 137.1614997  21.0659988  58.9280012 137.7524997  20.4809988
  57.7370012 137.6924997  21.4129988  58.4219341 137.3140867  21.0328836
  68.6230012 140.7004997  31.1389988  68.9460012 140.0694997  30.4959988
  68.1830012 140.1654997  31.7989988  68.6076895 140.5418441  31.1402850
  65.4000012 136.6274997  25.9229988  64.4890012 136.6844997  26.2109988
  65.9060012 136.5674997  26.7329988  65.3435413 136.6271985  26.0720622
  60.2290012 138.2564997  24.7489988  59.3390012 138.3564997  24.4089988
  60.5250012 137.4144997  24.4029988  60.1472823 138.1563546  24.6557213
  63.8820012 138.2564997  22.4059988  64.8130012 138.3854997  22.5839988
  63.6670012 138.9264997  21.7559988  63.9804247 138.3646565  22.3425747
  69.8050012 135.8624997  29.1869988  69.1290012 135.9934997  29.8509988
  69.3200012 135.7074997  28.3769988  69.6467145 135.8594905  29.1684517
  62.5560012 139.4514997  19.9729988  62.0130012 139.0714997  19.2809988
  63.3890012 139.6454997  19.5439988  62.5944399 139.4258124  19.8204526
  60.6910012 144.0084997  35.0719988  61.4230012 144.2624997  35.6329988
  59.9110012 144.2124997  35.5869988  60.6858232 144.0709177  35.2185760
  66.7200012 139.4154997  27.8099988  67.2850012 138.8684997  27.2629988
  66.5730012 138.8934997  28.5979988  66.7772918 139.2702024  27.8418454
  61.7220012 135.5514997  24.2279988  61.4050012 134.6494997  24.1929988
  62.5040012 135.5534997  23.6749988  61.7842284 135.4281628  24.1484783
  65.3470012 137.8034997  30.2239988  64.5110012 138.2574997  30.3339988
  65.8710012 138.0794997  30.9759988  65.3034414 137.9029376  30.3407136
  65.8910012 144.0164997  21.9079988  65.1460012 143.5094997  21.5859988
  65.7570012 144.0654997  22.8549988  65.7708776 143.9536940  21.9918647
  73.0410012 143.1494997  30.6949988  73.6830012 143.6064997  30.1509988
  72.2110012 143.2624997  30.2319988  73.0165963 143.2272704  30.5580177
  69.7890012 136.8304997  20.1079988  68.8500012 136.9424997  19.9559988
  70.0860012 137.6874997  20.4139988  69.7007666 136.9616443  20.1285768
  67.4100012 144.2004997  33.1449988  67.0650012 143.8194997  33.9519988
  67.2100012 145.1344997  33.2169988  67.3358061 144.2745228  33.2650961
  70.5070012 138.6974997  21.7679988  71.3990012 138.5604997  22.0869988
  70.5640012 139.4884997  21.2319988  70.6366285 138.7856660  21.7391691
  61.0160012 143.3114997  27.6779988  61.7610012 143.3094997  27.0769988
  61.0940012 142.4884997  28.1599988  61.1285518 143.1999315  27.6608929
  58.0240012 141.7724997  32.9929988  58.2470012 141.3544997  33.8249988
  57.4220012 141.1594997  32.5699988  57.9731759 141.6324668  33.0497022
  65.0400012 141.2894997  35.2059988  64.7440012 141.1234997  34.3109988
  65.9720012 141.0694997  35.1949988  65.1254166 141.2370640  35.0820536
  75.3920012 138.9074997  21.4629988  74.8380012 138.5114997  20.7909988
  75.4920012 139.8174997  21.1849988  75.3297059 138.9763586  21.3334401
  75.3550012 144.7074997  34.2999988  74.5040012 144.9454997  33.9329988
  75.9460012 144.6904997  33.5469988  75.3182487 144.7378258  34.1478893
  70.8480012 142.5014997  28.9489988  69.9190012 142.2694997  28.9219988
  71.2990012 141.7244997  28.6189988  70.7819216 142.3647238  28.9006917
  59.1460012 141.6914997  19.6689988  59.7620012 142.3184997  20.0489988
  58.2840012 142.0074997  19.9409988  59.1137698 141.8199430  19.7577183
  64.8180012 144.4924997  24.6589988  64.5770012 145.4174997  24.6999988
  64.0770012 144.0334997  25.0549988  64.6848409 144.5571421  24.7181377
  68.8770012 144.7404997  30.6739988  68.4510012 144.5134997  31.5009988
  69.4570012 144.0024997  30.4919988  68.8971868 144.6095299  30.7625830
  59.6580012 136.5254997  32.5509988  58.7650012 136.8644997  32.4829988
  59.5590012 135.6704997  32.9689988  59.5224164 136.4562588  32.5982235
  71.9460012 144.3424997  21.9749988  71.6680012 143.6144997  22.5309988
  72.8730012 144.4614997  22.1799988  72.0333124 144.2588802  22.0788845
  60.5610012 143.6044997  21.1619988  59.8750012 143.9564997  21.7289988
  61.0830012 144.3674997  20.9149988  60.5376852 143.7558578  21.2062118
  68.3920012 136.2664997  31.4409988  69.0910012 136.3404997  32.0909988
  68.0110012 135.4024997  31.5949988  68.4361767 136.1597624  31.5508322
  69.1770012 135.9184997  22.5379988  69.3970012 136.3904997  21.7349988
  69.7350012 136.3134997  23.2079988  69.2824968 136.0364285  22.5187331
  66.3770012 137.6464997  23.3729988  67.1890012 138.1514997  23.4189988
  66.1320012 137.5014997  24.2869988  66.4550520 137.6960375  23.5028517
  66.9120012 138.6324997  32.5579988  67.0310012 139.2064997  33.3149988
  67.5680012 137.9444997  32.6719988  67.0169757 138.6181079  32.6770825
  67.2600012 134.7274997  24.3109988  66.9140012 135.3454997  24.9559988
  67.9190012 135.2284997  23.8299988  67.3017826 134.8795802  24.3340971
  62.9180012 135.7904997  20.9979988  62.8350012 136.6794997  21.3449988
  63.8080012 135.5254997  21.2299988  63.0269469 135.8761430  21.0767626
  73.1170012 136.5394997  33.3929988  72.2000012 136.8024997  33.3049988
  73.4520012 136.5364997  32.4959988  73.0369900 136.5750224  33.2597919
  71.7190012 140.2904997  27.4879988  70.9210012 139.8754997  27.1599988
  72.1640012 139.5994997  27.9789988  71.6699885 140.1403543  27.5094889
  59.4930012 138.8824997  19.1749988  59.4480012 139.8214997  19.3529988
  58.6050012 138.6464997  18.9049988  59.3668574 138.9791892  19.1628912
  60.3010012 133.6644997  27.8479988  60.0720012 133.7234997  26.9199988
  59.8580012 132.8724997  28.1539988  60.2098530 133.5655753  27.7624786
  58.4260012 144.0274997  36.2929988  58.5700012 143.1254997  36.0059988
  57.6540012 144.3134997  35.8049988  58.3413322 143.9428261  36.1877881
  62.7680012 144.3714997  18.4249988  62.8320012 143.5774997  18.9559988
  63.4210012 144.2524997  17.7349988  62.8650241 144.2467148  18.4044317
  65.0820012 143.9974997  35.7249988  64.7530012 144.2684997  34.8679988
  65.2340012 143.0564997  35.6379988  65.0574809 143.9073862  35.5958244
  70.8160012 143.9134997  33.1089988  71.5620012 144.5014997  32.9889988
  70.0590012 144.4954997  33.1719988  70.8157554 144.0727011  33.1010907
  59.2590012 141.2274997  35.7129988  59.6670012 140.3704997  35.5919988
  58.9990012 141.2424997  36.6339988  59.2797568 141.1120807  35.8209588
  63.9170012 142.3434997  20.7309988  63.4570012 141.8594997  21.4169988
  64.1720012 141.6754997  20.0949988  63.8884902 142.1868731  20.7389334
  63.2060012 140.2364997  33.0869988  62.5880012 140.9114997  33.3669988
  63.5500012 140.5574997  32.2539988  63.1679615 140.3722721  33.0126581
  64.9880012 140.5864997  18.9929988  64.8080012 140.4324997  18.0659988
  65.9380012 140.6944997  19.0379988  65.0917776 140.5800175  18.8721843
  68.2260012 142.7084997  36.3639988  69.1790012 142.7914997  36.3369988
  68.0650012 141.9964997  36.9839988  68.3346426 142.6236746  36.4440579
  74.3780012 142.9414997  18.4389988  74.1040012 142.5164997  17.6259988
  74.4170012 143.8724997  18.2219988  74.3457699 143.0092484  18.2983610
  63.5450012 137.5914997  34.1689988  63.6950012 136.8624997  33.5669988
  63.5480012 138.3684997  33.6099988  63.5659302 137.5967851  34.0110692
  63.9580012 135.9614997  31.6619988  64.4940012 136.4124997  31.0099988
  63.1060012 135.8534997  31.2389988  63.9162178 136.0086390  31.5155756
  65.5400012 141.4004997  31.9009988  66.2900012 141.2444997  31.3279988
  65.2010012 142.2524997  31.6259988  65.5968921 141.4942968  31.7853561
  69.9550012 139.2154997  36.9299988  70.1480012 138.2844997  36.8179988
  70.8130012 139.6404997  36.9199988  70.0973020 139.1456389  36.9133361
  71.2720012 142.0044997  35.0069988  70.9910012 142.7134997  34.4299988
  72.2150012 141.9314997  34.8559988  71.3609027 142.0917646  34.9075551
  62.0240012 138.7894997  36.0809988  61.2570012 138.2574997  35.8709988
  62.7030012 138.4794997  35.4809988  62.0107022 138.6747506  35.9711648
  64.7640012 133.4174997  32.0929988  64.6650012 134.3644997  31.9879988
  64.0210012 133.0454997  31.6179988  64.6500564 133.4965902  32.0144560
  66.0280012 137.7394997  35.6569988  65.7920012 137.5194997  36.5589988
  65.2440012 137.5324997  35.1469988  65.8898628 137.6814760  35.7113932
  68.7430012 136.8664997  34.7329988  67.7960012 136.8984997  34.8649988
  69.0560012 136.2414997  35.3859988  68.6555475 136.7863207  34.8394455
  70.3770012 135.5004997  36.7379988  70.2810012 134.5484997  36.7319988
  70.0560012 135.7694997  37.5979988  70.3204070 135.4064035  36.8535441
  60.2040012 136.7104997  35.7849988  60.4160012 136.0034997  35.1749988
  60.0930012 136.2724997  36.6289988  60.2179721 136.5547084  35.8156843
  64.9850012 132.7114997  34.7649988  65.6970012 132.0714997  34.7509988
  64.8840012 132.9784997  33.8509988  65.0687939 132.6599938  34.6395650
  65.3390012 134.3944997  36.8179988  65.2070012 133.9184997  35.9979988
  64.7400012 135.1384997  36.7629988  65.2399071 134.4299618  36.6982886
  74.8360012 143.8104997  22.4139988  75.6860012 144.2314997  22.5409988
  74.8420012 143.0704997  23.0209988  74.9531372 143.7680803  22.5134344
  75.2310012 141.8634997  24.2379988  74.5040012 141.3844997  24.6349988
  75.8120012 142.0694997  24.9699988  75.2099375 141.8257090  24.3914129
  74.9900012 144.6484997  29.1849988  75.8230012 144.2704997  28.9049988
  75.1020012 145.5914997  29.0659988  75.1192647 144.7242218  29.1305487
  75.4990012 141.7644997  20.6289988  74.9770012 142.1214997  19.9099988
  75.4660012 142.4394997  21.3069988  75.4231634 141.9045413  20.6223145
  73.8480012 139.0044997  19.1799988  73.9440012 139.6714997  18.4989988
  73.7080012 138.1884997  18.6979988  73.8422135 138.9854500  19.0218491
  73.0170012 140.3844997  24.8009988  72.8670012 139.4394997  24.7799988
  72.6640012 140.6654997  25.6439988  72.9486625 140.2930441  24.9122346
  58.0530012 142.4624997  28.8109988  58.2370012 142.3804997  27.8749988
  58.9020012 142.3384997  29.2349988  58.1930139 142.4345003  28.7401455
  73.8740012 142.3544997  34.4389988  74.4570012 141.6204997  34.6309988
  74.4380012 143.1264997  34.4859988  74.0299769 142.3584227  34.4716159
  75.3700012 140.2574997  35.1239988  74.5070012 139.8784997  34.9579988
  75.9750012 139.5184997  35.0499988  75.3335979 140.1058023  35.0912817
  73.0950012 136.4124997  18.2969988  73.7060012 136.0414997  18.9339988
  72.2590012 135.9914997  18.4929988  73.0655032 136.3047554  18.4107035
  72.7280012 137.9674997  23.2629988  73.0080012 137.0604997  23.3869988
  73.4870012 138.4014997  22.8739988  72.8689277 137.9020942  23.2273682
  73.3400012 138.5484997  28.6989988  74.2730012 138.7604997  28.6649988
  73.1050012 138.6504997  29.6209988  73.4358036 138.5912769  28.8189976
  73.3690012 139.2854997  31.4749988  72.5260012 139.5534997  31.8409988
  73.8110012 140.1074997  31.2639988  73.3134158 139.4333291  31.4965491
  57.6500012 137.7334997  34.9519988  58.5700012 137.6114997  35.1879988
  57.2010012 136.9834997  35.3409988  57.7151580 137.6153727  35.0369006
  75.6520012 133.2654997  36.8279988  76.0020012 132.6114997  36.2229988
  75.7990012 134.1024997  36.3889988  75.7198419 133.2891591  36.6857118
  73.3410012 135.2304997  23.3109988  73.5240012 134.7814997  24.1369988
  72.7420012 134.6454997  22.8479988  73.2850202 135.0899975  23.3613275
  58.8710012 136.0454997  27.8429988  59.3170012 135.2534997  28.1449988
  59.3380012 136.7614997  28.2739988  58.9950172 136.0340624  27.9424820
  57.1750012 139.0444997  28.9119988  57.6670012 138.8234997  28.1209988
  57.5380012 139.8854997  29.1929988  57.2913126 139.1278357  28.8417531
  75.1720012 135.3744997  35.1779988  74.2540012 135.6454997  35.1419988
  75.2950012 134.8394997  34.3929988  75.0631066 135.3392892  35.0670487
  75.2080012 135.2974997  19.8389988  75.6200012 134.5764997  19.3639988
  75.8900012 135.9674997  19.8979988  75.3565885 135.2892368  19.7818915
  57.4890012 135.3024997  22.9659988  56.5640012 135.5114997  22.8369988
  57.9430012 135.7864997  22.2769988  57.4237368 135.3965993  22.8551226
  57.4530012 134.0404997  31.3109988  56.7880012 133.7944997  31.9539988
  57.0100012 134.6624997  30.7329988  57.3020956 134.0908632  31.3209352
  74.1720012 133.4644997  32.9969988  73.3600012 133.7894997  32.6089988
  74.4050012 132.7044997  32.4639988  74.0923423 133.4062436  32.8718253
  67.6020012 134.9134997  27.3189988  66.9280012 134.2844997  27.5749988
  68.1660012 134.4294997  26.7159988  67.5859230 134.7618744  27.2725340
  72.7450012 133.0214997  27.4319988  73.3490012 133.5684997  26.9299988
  71.8750012 133.3404997  27.1919988  72.7101241 133.1395806  27.3307654
  74.4720012 134.1594997  25.7649988  75.0840012 133.6454997  25.2389988
  74.8540012 135.0374997  25.7889988  74.6074540 134.2077140  25.6961830
  59.9290012 133.5474997  25.1409988  59.1520012 133.3134997  24.6339988
  60.4590012 132.7504997  25.1499988  59.8942330 133.4076988  25.0727742
  58.7650012 133.3454997  20.9449988  59.2040012 133.9564997  20.3529988
  58.1320012 133.8834997  21.4189988  58.7394514 133.5019257  20.9280930
  64.5080012 133.4744997  24.9549988  65.3830012 133.8624997  24.9249988
  64.3720012 133.2594997  25.8769988  64.6093695 133.4985184  25.0756440
  70.0650012 133.5044997  26.6039988  70.1410012 133.5994997  25.6539988
  69.7900012 132.5964997  26.7329988  70.0382321 133.3947867  26.4915079
  71.4180012 133.5304997  22.2959988  70.7160012 134.1454997  22.0869988
  70.9740012 132.6924997  22.4269988  71.2616330 133.5015783  22.2850328
  60.6260012 135.2614997  19.3869988  61.1180012 134.6314997  18.8599988
  61.2500012 135.5574997  20.0509988  60.7775446 135.2153199  19.4045980
  65.6520012 135.5544997  21.8439988  65.8300012 134.9084997  22.5269988
  65.5990012 136.3884997  22.3119988  65.6691829 135.5787985  22.0005940
  59.8870012 134.0614997  34.6589988  59.5210012 133.2964997  35.1019988
  60.8000012 134.0904997  34.9459988  59.9602790 133.9607224  34.7584070
  61.8600012 133.4124997  36.1949988  62.7580012 133.1384997  36.0099988
  61.4730012 132.6694997  36.6589988  61.9306612 133.2745914  36.2323643
  70.2810012 132.7444997  36.3769988  70.3580012 132.3184997  37.2309988
  71.1750012 132.7584997  36.0339988  70.4123428 132.6880879  36.4475310
  87.8630012 142.7034997  25.0999988  87.9520012 143.6474997  24.9679988
  87.2250012 142.4284997  24.4419988  87.7889081 142.7954830  24.9929614
  86.7960012 141.9584997  28.5189988  86.7580012 141.3124997  29.2239988
  86.4740012 141.4924997  27.7479988  86.7472333 141.8069408  28.5112978
  79.1650012 141.5734997  30.1119988  79.2060012 140.9474997  30.8349988
  79.8680012 142.1974997  30.2939988  79.2656363 141.5721196  30.2356044
  90.5020012 144.8974997  26.8199988  90.0620012 144.1774997  27.2709988
  90.4890012 145.6184997  27.4499988  90.4400226 144.8963731  26.9668494
  76.6980012 139.6834997  24.0399988  76.2510012 140.5294997  24.0209988
  76.1370012 139.1034997  23.5239988  76.5609900 139.7209916  23.9676801
  77.4090012 141.8454997  26.1659988  77.6220012 141.0754997  26.6929988
  78.1470012 141.9344997  25.5619988  77.5378496 141.7521394  26.1565300
  85.1860012 144.3914997  28.9249988  85.4900012 143.7054997  28.3299988
  85.9070012 144.5094997  29.5429988  85.3250671 144.3136305  28.9271816
  93.8490012 135.9924997  29.7859988  93.8980012 136.6024997  30.5219988
  94.2740012 136.4534997  29.0629988  93.9131824 136.1383741  29.7890205
  88.3270012 138.7854997  29.2529988  88.4690012 137.8394997  29.2729988
  88.2200012 138.9924997  28.3239988  88.3319864 138.6839534  29.1302339
  81.4810012 136.8864997  26.5249988  81.5250012 137.7464997  26.1069988
  81.0240012 136.3344997  25.8909988  81.4252185 136.9295799  26.3820299
  89.2040012 137.0174997  24.9259988  89.8500012 136.6884997  25.5509988
  89.7140012 137.5354997  24.3029988  89.3614264 137.0424611  24.9273862
  78.1020012 139.2834997  27.2869988  78.7550012 138.7334997  27.7189988
  78.1260012 139.0094997  26.3699988  78.1946683 139.1711466  27.2222123
  83.2580012 140.8334997  26.5019988  83.8740012 140.3074997  27.0119988
  82.6720012 140.1934997  26.0989988  83.2630810 140.6749208  26.5173173
  94.2400012 137.4704997  32.0219988  93.5520012 138.1284997  31.9259988
  94.2560012 137.2734997  32.9579988  94.1478525 137.5340462  32.1354808
  80.2920012 135.8044997  30.5989988  80.0730012 136.3344997  29.8329988
  79.6240012 136.0314997  31.2459988  80.1717600 135.9076906  30.5816379
  82.8610012 143.4804997  30.8859988  82.1210012 144.0784997  30.9899988
  83.5750012 144.0344997  30.5709988  82.8562237 143.6372831  30.8576465
  90.9680012 136.3084997  26.9059988  90.7520012 135.5424997  27.4389988
  91.6230012 136.7804997  27.4189988  91.0270633 136.2675889  27.0482861
  79.8850012 137.6964997  28.5509988  80.4990012 138.3294997  28.9249988
  80.3970012 137.2244997  27.8949988  80.0382296 137.7192370  28.5134252
  91.3150012 135.0234997  30.5859988  90.5790012 135.6344997  30.5479988
  91.9980012 135.4384997  30.0589988  91.3066541 135.1631374  30.5095832
  84.3180012 133.1104997  28.0519988  84.2010012 132.1614997  27.9969988
  83.4630012 133.4424997  28.3249988  84.1863733 133.0255409  28.0813897
  92.1120012 144.9854997  32.7799988  92.2520012 144.3944997  32.0399988
  92.2790012 145.8584997  32.4229988  92.1536778 145.0226426  32.6306965
  86.5850012 141.9474997  22.5519988  85.8730012 142.4824997  22.1999988
  87.2760012 142.0034997  21.8919988  86.5810132 142.0282543  22.4146289
  86.6380012 140.4054997  19.5909988  87.3390012 140.4274997  20.2419988
  86.9410012 139.7774997  18.9349988  86.7747830 140.3236566  19.5913711
  93.9540012 141.3254997  30.8459988  93.3010012 142.0204997  30.9349988
  94.4190012 141.5354997  30.0359988  93.9275390 141.4489425  30.7486883
  89.9900012 142.1574997  23.5039988  89.2580012 142.3854997  24.0769988
  90.4380012 141.4434997  23.9589988  89.9503095 142.0922571  23.6439119
  89.8880012 140.3314997  32.5709988  89.9680012 141.0944997  33.1429988
  89.2860012 140.6104997  31.8809988  89.8175756 140.4737134  32.5560589
  81.6360012 142.7874997  25.3859988  81.3050012 142.4174997  24.5679988
  82.2240012 142.1174997  25.7329988  81.6701873 142.6461156  25.3208102
  82.0020012 141.5564997  29.0199988  82.5680012 141.6774997  28.2569988
  82.3210012 142.1934997  29.6589988  82.1225786 141.6591884  29.0020040
  88.8610012 141.3194997  21.1889988  89.4410012 141.4694997  21.9359988
  89.2750012 141.7904997  20.4659988  88.9962830 141.4036841  21.1934134
  79.8020012 142.1534997  32.9659988  79.8730012 142.8044997  33.6639988
  78.9120012 142.2564997  32.6309988  79.6913117 142.2565936  33.0162700
  92.5600012 133.0694997  21.0019988  91.6600012 133.2084997  21.2969988
  92.8120012 133.9004997  20.5999988  92.4708702 133.2009074  20.9880205
  80.6260012 141.8574997  22.9759988  80.3340012 142.6254997  22.4849988
  79.9520012 141.1974997  22.8129988  80.4949081 141.8734406  22.8867340
  76.7190012 144.2204997  31.7909988  76.2180012 144.1924997  30.9759988
  76.7240012 143.3144997  32.0999988  76.6511526 144.0942278  31.7212872
  91.8190012 139.1594997  34.8369988  91.4120012 139.6404997  34.1159988
  91.8600012 138.2544997  34.5289988  91.7688437 139.1029374  34.6966683
  81.5870012 134.0134997  28.8289988  80.7250012 133.9264997  28.4219988
  81.5640012 134.8694997  29.2569988  81.4660330 134.1172765  28.8311863
  86.2500012 133.7354997  32.2039988  86.6700012 133.3204997  32.9569988
  85.3170012 133.5574997  32.3209988  86.1813644 133.6545900  32.3229539
  89.5760012 137.4914997  33.0569988  89.0620012 137.3654997  33.8549988
  89.4210012 138.4034997  32.8129988  89.4846852 137.5976132  33.1332158
  90.3390012 142.3524997  18.8189988  90.3810012 142.1294997  17.8889988
  91.1880012 142.7514997  19.0089988  90.4595396 142.3759155  18.7173627
  85.9110012 136.2284997  19.4889988  85.6580012 136.2474997  20.4119988
  85.6550012 135.3564997  19.1879988  85.8417790 136.1132437  19.5746263
  81.6780012 138.9794997  29.9239988  81.0360012 138.9384997  30.6329988
  81.7150012 139.9054997  29.6869988  81.5951324 139.0991559  29.9889824
  81.6750012 139.2004997  24.8359988  80.7820012 138.8594997  24.7779988
  82.1250012 138.8234997  24.0809988  81.6137305 139.1028484  24.7259177
  87.2100012 139.6164997  23.6529988  86.8010012 140.4314997  23.3619988
  87.9310012 139.4764997  23.0389988  87.2514537 139.7092018  23.5301342
  86.3120012 139.7914997  35.1409988  85.7500012 139.0874997  35.4619988
  87.1390012 139.6714997  35.6089988  86.3467095 139.6787883  35.2482330
  88.2150012 139.0624997  26.4669988  88.0200012 139.6674997  25.7519988
  88.3960012 138.2284997  26.0329988  88.2127614 139.0326300  26.3104405
  79.4280012 139.2994997  31.7909988  79.3900012 139.6994997  32.6599988
  78.9370012 138.4824997  31.8819988  79.3564684 139.2438069  31.9221059
  82.7940012 136.6734997  18.5899988  82.3630012 136.2284997  19.3199988
  82.0760012 137.0454997  18.0779988  82.6379438 136.6628940  18.6206799
  76.0360012 136.4154997  25.6419988  76.6670012 136.3864997  26.3609988
  76.4850012 135.9904997  24.9119988  76.1830774 136.3540492  25.6416553
  77.3100012 137.1614997  21.0659988  77.7840012 137.7524997  20.4809988
  76.5930012 137.6924997  21.4129988  77.2779341 137.3140867  21.0328836
  87.4790012 140.7004997  31.1389988  87.8020012 140.0694997  30.4959988
  87.0390012 140.1654997  31.7989988  87.4636895 140.5418441  31.1402850
  84.2560012 136.6274997  25.9229988  83.3450012 136.6844997  26.2109988
  84.7620012 136.5674997  26.7329988  84.1995413 136.6271985  26.0720622
  79.0850012 138.2564997  24.7489988  78.1950012 138.3564997  24.4089988
  79.3810012 137.4144997  24.4029988  79.0032823 138.1563545  24.6557213
  82.7380012 138.2564997  22.4059988  83.6690012 138.3854997  22.5839988
  82.5230012 138.9264997  21.7559988  82.8364247 138.3646565  22.3425747
  88.6610012 135.8624997  29.1869988  87.9850012 135.9934997  29.8509988
  88.1760012 135.7074997  28.3769988  88.5027145 135.8594905  29.1684517
  81.4120012 139.4514997  19.9729988  80.8690012 139.0714997  19.2809988
  82.2450012 139.6454997  19.5439988  81.4504399 139.4258124  19.8204526
  79.5470012 144.0084997  35.0719988  80.2790012 144.2624997  35.6329988
  78.7670012 144.2124997  35.5869988  79.5418232 144.0709177  35.2185760
  85.5760012 139.4154997  27.8099988  86.1410012 138.8684997  27.2629988
  85.4290012 138.8934997  28.5979988  85.6332918 139.2702024  27.8418454
  80.5780012 135.5514997  24.2279988  80.2610012 134.6494997  24.1929988
  81.3600012 135.5534997  23.6749988  80.6402284 135.4281628  24.1484783
  84.2030012 137.8034997  30.2239988  83.3670012 138.2574997  30.3339988
  84.7270012 138.0794997  30.9759988  84.1594414 137.9029376  30.3407136
  84.7470012 144.0164997  21.9079988  84.0020012 143.5094997  21.5859988
  84.6130012 144.0654997  22.8549988  84.6268776 143.9536940  21.9918647
  91.8970012 143.1494997  30.6949988  92.5390012 143.6064997  30.1509988
  91.0670012 143.2624997  30.2319988  91.8725963 143.2272704  30.5580177
  88.6450012 136.8304997  20.1079988  87.7060012 136.9424997  19.9559988
  88.9420012 137.6874997  20.4139988  88.5567666 136.9616443  20.1285768
  86.2660012 144.2004997  33.1449988  85.9210012 143.8194997  33.9519988
  86.0660012 145.1344997  33.2169988  86.1918061 144.2745228  33.2650961
  89.3630012 138.6974997  21.7679988  90.2550012 138.5604997  22.0869988
  89.4200012 139.4884997  21.2319988  89.4926285 138.7856660  21.7391691
  79.8720012 143.3114997  27.6779988  80.6170012 143.3094997  27.0769988
  79.9500012 142.4884997  28.1599988  79.9845518 143.1999315  27.6608929
  76.8800012 141.7724997  32.9929988  77.1030012 141.3544997  33.8249988
  76.2780012 141.1594997  32.5699988  76.8291759 141.6324668  33.0497022
  83.8960012 141.2894997  35.2059988  83.6000012 141.1234997  34.3109988
  84.8280012 141.0694997  35.1949988  83.9814166 141.2370640  35.0820536
  94.2480012 138.9074997  21.4629988  93.6940012 138.5114997  20.7909988
  94.3480012 139.8174997  21.1849988  94.1857059 138.9763586  21.3334401
  94.2110012 144.7074997  34.2999988  93.3600012 144.9454997  33.9329988
  94.8020012 144.6904997  33.5469988  94.1742487 144.7378258  34.1478893
  89.7040012 142.5014997  28.9489988  88.7750012 142.2694997  28.9219988
  90.1550012 141.7244997  28.6189988  89.6379216 142.3647238  28.9006917
  78.0020012 141.6914997  19.6689988  78.6180012 142.3184997  20.0489988
  77.1400012 142.0074997  19.9409988  77.9697698 141.8199430  19.7577183
  83.6740012 144.4924997  24.6589988  83.4330012 145.4174997  24.6999988
  82.9330012 144.0334997  25.0549988  83.5408409 144.5571421  24.7181377
  87.7330012 144.7404997  30.6739988  87.3070012 144.5134997  31.5009988
  88.3130012 144.0024997  30.4919988  87.7531868 144.6095299  30.7625830
  78.5140012 136.5254997  32.5509988  77.6210012 136.8644997  32.4829988
  78.4150012 135.6704997  32.9689988  78.3784164 136.4562588  32.5982235
  90.8020012 144.3424997  21.9749988  90.5240012 143.6144997  22.5309988
  91.7290012 144.4614997  22.1799988  90.8893124 144.2588802  22.0788845
  79.4170012 143.6044997  21.1619988  78.7310012 143.9564997  21.7289988
  79.9390012 144.3674997  20.9149988  79.3936852 143.7558578  21.2062118
  87.2480012 136.2664997  31.4409988  87.9470012 136.3404997  32.0909988
  86.8670012 135.4024997  31.5949988  87.2921767 136.1597624  31.5508322
  88.0330012 135.9184997  22.5379988  88.2530012 136.3904997  21.7349988
  88.5910012 136.3134997  23.2079988  88.1384968 136.0364285  22.5187331
  85.2330012 137.6464997  23.3729988  86.0450012 138.1514997  23.4189988
  84.9880012 137.5014997  24.2869988  85.3110520 137.6960375  23.5028517
  85.7680012 138.6324997  32.5579988  85.8870012 139.2064997  33.3149988
  86.4240012 137.9444997  32.6719988  85.8729757 138.6181079  32.6770825
  86.1160012 134.7274997  24.3109988  85.7700012 135.3454997  24.9559988
  86.7750012 135.2284997  23.8299988  86.1577826 134.8795802  24.3340971
  81.7740012 135.7904997  20.9979988  81.6910012 136.6794997  21.3449988
  82.6640012 135.5254997  21.2299988  81.8829469 135.8761430  21.0767626
  91.9730012 136.5394997  33.3929988  91.0560012 136.8024997  33.3049988
  92.3080012 136.5364997  32.4959988  91.8929900 136.5750224  33.2597919
  90.5750012 140.2904997  27.4879988  89.7770012 139.8754997  27.1599988
  91.0200012 139.5994997  27.9789988  90.5259885 140.1403543  27.5094889
  78.3490012 138.8824997  19.1749988  78.3040012 139.8214997  19.3529988
  77.4610012 138.6464997  18.9049988  78.2228574 138.9791892  19.1628912
  79.1570012 133.6644997  27.8479988  78.9280012 133.7234997  26.9199988
  78.7140012 132.8724997  28.1539988  79.0658530 133.5655753  27.7624786
  77.2820012 144.0274997  36.2929988  77.4260012 143.1254997  36.0059988
  76.5100012 144.3134997  35.8049988  77.1973322 143.9428261  36.1877881
  81.6240012 144.3714997  18.4249988  81.6880012 143.5774997  18.9559988
  82.2770012 144.2524997  17.7349988  81.7210241 144.2467148  18.4044317
  83.9380012 143.9974997  35.7249988  83.6090012 144.2684997  34.8679988
  84.0900012 143.0564997  35.6379988  83.9134809 143.9073862  35.5958244
  89.6720012 143.9134997  33.1089988  90.4180012 144.5014997  32.9889988
  88.9150012 144.4954997  33.1719988  89.6717554 144.0727011  33.1010907
  78.1150012 141.2274997  35.7129988  78.5230012 140.3704997  35.5919988
  77.8550012 141.2424997  36.6339988  78.1357568 141.1120807  35.8209588
  82.7730012 142.3434997  20.7309988  82.3130012 141.8594997  21.4169988
  83.0280012 141.6754997  20.0949988  82.7444902 142.1868731  20.7389334
  82.0620012 140.2364997  33.0869988  81.4440012 140.9114997  33.3669988
  82.4060012 140.5574997  32.2539988  82.0239615 140.3722721  33.0126581
  83.8440012 140.5864997  18.9929988  83.6640012 140.4324997  18.0659988
  84.7940012 140.6944997  19.0379988  83.9477776 140.5800175  18.8721843
  87.0820012 142.7084997  36.3639988  88.0350012 142.7914997  36.3369988
  86.9210012 141.9964997  36.9839988  87.1906426 142.6236746  36.4440579
  93.2340012 142.9414997  18.4389988  92.9600012 142.5164997  17.6259988
  93.2730012 143.8724997  18.2219988  93.2017699 143.0092484  18.2983610
  82.4010012 137.5914997  34.1689988  82.5510012 136.8624997  33.5669988
  82.4040012 138.3684997  33.6099988  82.4219302 137.5967851  34.0110692
  82.8140012 135.9614997  31.6619988  83.3500012 136.4124997  31.0099988
  81.9620012 135.8534997  31.2389988  82.7722178 136.0086390  31.5155756
  84.3960012 141.4004997  31.9009988  85.1460012 141.2444997  31.3279988
  84.0570012 142.2524997  31.6259988  84.4528921 141.4942968  31.7853561
  88.8110012 139.2154997  36.9299988  89.0040012 138.2844997  36.8179988
  89.6690012 139.6404997  36.9199988  88.9533020 139.1456389  36.9133361
  90.1280012 142.0044997  35.0069988  89.8470012 142.7134997  34.4299988
  91.0710012 141.9314997  34.8559988  90.2169027 142.0917646  34.9075551
  80.8800012 138.7894997  36.0809988  80.1130012 138.2574997  35.8709988
  81.5590012 138.4794997  35.4809988  80.8667022 138.6747506  35.9711648
  83.6200012 133.4174997  32.0929988  83.5210012 134.3644997  31.9879988
  82.8770012 133.0454997  31.6179988  83.5060564 133.4965902  32.0144560
  84.8840012 137.7394997  35.6569988  84.6480012 137.5194997  36.5589988
  84.1000012 137.5324997  35.1469988  84.7458628 137.6814760  35.7113932
  87.5990012 136.8664997  34.7329988  86.6520012 136.8984997  34.8649988
  87.9120012 136.2414997  35.3859988  87.5115475 136.7863207  34.8394455
  89.2330012 135.5004997  36.7379988  89.1370012 134.5484997  36.7319988
  88.9120012 135.7694997  37.5979988  89.1764070 135.4064035  36.8535441
  79.0600012 136.7104997  35.7849988  79.2720012 136.0034997  35.1749988
  78.9490012 136.2724997  36.6289988  79.0739721 136.5547084  35.8156843
  83.8410012 132.7114997  34.7649988  84.5530012 132.0714997  34.7509988
  83.7400012 132.9784997  33.8509988  83.9247939 132.6599938  34.6395650
  84.1950012 134.3944997  36.8179988  84.0630012 133.9184997  35.9979988
  83.5960012 135.1384997  36.7629988  84.0959071 134.4299618  36.6982886
  93.6920012 143.8104997  22.4139988  94.5420012 144.2314997  22.5409988
  93.6980012 143.0704997  23.0209988  93.8091372 143.7680803  22.5134344
  94.0870012 141.8634997  24.2379988  93.3600012 141.3844997  24.6349988
  94.6680012 142.0694997  24.9699988  94.0659375 141.8257090  24.3914129
  93.8460012 144.6484997  29.1849988  94.6790012 144.2704997  28.9049988
  93.9580012 145.5914997  29.0659988  93.9752647 144.7242218  29.1305487
  94.3550012 141.7644997  20.6289988  93.8330012 142.1214997  19.9099988
  94.3220012 142.4394997  21.3069988  94.2791634 141.9045413  20.6223145
  92.7040012 139.0044997  19.1799988  92.8000012 139.6714997  18.4989988
  92.5640012 138.1884997  18.6979988  92.6982135 138.9854500  19.0218491
  91.8730012 140.3844997  24.8009988  91.7230012 139.4394997  24.7799988
  91.5200012 140.6654997  25.6439988  91.8046625 140.2930441  24.9122346
  76.9090012 142.4624997  28.8109988  77.0930012 142.3804997  27.8749988
  77.7580012 142.3384997  29.2349988  77.0490139 142.4345003  28.7401455
  92.7300012 142.3544997  34.4389988  93.3130012 141.6204997  34.6309988
  93.2940012 143.1264997  34.4859988  92.8859769 142.3584227  34.4716159
  94.2260012 140.2574997  35.1239988  93.3630012 139.8784997  34.9579988
  94.8310012 139.5184997  35.0499988  94.1895979 140.1058023  35.0912817
  91.9510012 136.4124997  18.2969988  92.5620012 136.0414997  18.9339988
  91.1150012 135.9914997  18.4929988  91.9215032 136.3047554  18.4107035
  91.5840012 137.9674997  23.2629988  91.8640012 137.0604997  23.3869988
  92.3430012 138.4014997  22.8739988  91.7249277 137.9020942  23.2273682
  92.1960012 138.5484997  28.6989988  93.1290012 138.7604997  28.6649988
  91.9610012 138.6504997  29.6209988  92.2918036 138.5912769  28.8189976
  92.2250012 139.2854997  31.4749988  91.3820012 139.5534997  31.8409988
  92.6670012 140.1074997  31.2639988  92.1694158 139.4333291  31.4965491
  76.5060012 137.7334997  34.9519988  77.4260012 137.6114997  35.1879988
  76.0570012 136.9834997  35.3409988  76.5711580 137.6153727  35.0369006
  94.5080012 133.2654997  36.8279988  94.8580012 132.6114997  36.2229988
  94.6550012 134.1024997  36.3889988  94.5758419 133.2891591  36.6857118
  92.1970012 135.2304997  23.3109988  92.3800012 134.7814997  24.1369988
  91.5980012 134.6454997  22.8479988  92.1410202 135.0899975  23.3613275
  77.7270012 136.0454997  27.8429988  78.1730012 135.2534997  28.1449988
  78.1940012 136.7614997  28.2739988  77.8510172 136.0340624  27.9424820
  76.0310012 139.0444997  28.9119988  76.5230012 138.8234997  28.1209988
  76.3940012 139.8854997  29.1929988  76.1473126 139.1278357  28.8417531
  94.0280012 135.3744997  35.1779988  93.1100012 135.6454997  35.1419988
  94.1510012 134.8394997  34.3929988  93.9191066 135.3392892  35.0670487
  94.0640012 135.2974997  19.8389988  94.4760012 134.5764997  19.3639988
  94.7460012 135.9674997  19.8979988  94.2125885 135.2892368  19.7818915
  76.3450012 135.3024997  22.9659988  75.4200012 135.5114997  22.8369988
  76.7990012 135.7864997  22.2769988  76.2797368 135.3965993  22.8551226
  76.3090012 134.0404997  31.3109988  75.6440012 133.7944997  31.9539988
  75.8660012 134.6624997  30.7329988  76.1580956 134.0908632  31.3209352
  93.0280012 133.4644997  32.9969988  92.2160012 133.7894997  32.6089988
  93.2610012 132.7044997  32.4639988  92.9483423 133.4062436  32.8718253
  86.4580012 134.9134997  27.3189988  85.7840012 134.2844997  27.5749988
  87.0220012 134.4294997  26.7159988  86.4419230 134.7618744  27.2725340
  91.6010012 133.0214997  27.4319988  92.2050012 133.5684997  26.9299988
  90.7310012 133.3404997  27.1919988  91.5661241 133.1395806  27.3307654
  93.3280012 134.1594997  25.7649988  93.9400012 133.6454997  25.2389988
  93.7100012 135.0374997  25.7889988  93.4634540 134.2077140  25.6961830
  78.7850012 133.5474997  25.1409988  78.0080012 133.3134997  24.6339988
  79.3150012 132.7504997  25.1499988  78.7502330 133.4076988  25.0727742
  77.6210012 133.3454997  20.9449988  78.0600012 133.9564997  20.3529988
  76.9880012 133.8834997  21.4189988  77.5954514 133.5019257  20.9280930
  83.3640012 133.4744997  24.9549988  84.2390012 133.8624997  24.9249988
  83.2280012 133.2594997  25.8769988  83.4653695 133.4985184  25.0756440
  88.9210012 133.5044997  26.6039988  88.9970012 133.5994997  25.6539988
  88.6460012 132.5964997  26.7329988  88.8942321 133.3947867  26.4915079
  90.2740012 133.5304997  22.2959988  89.5720012 134.1454997  22.0869988
  89.8300012 132.6924997  22.4269988  90.1176330 133.5015783  22.2850328
  79.4820012 135.2614997  19.3869988  79.9740012 134.6314997  18.8599988
  80.1060012 135.5574997  20.0509988  79.6335446 135.2153199  19.4045980
  84.5080012 135.5544997  21.8439988  84.6860012 134.9084997  22.5269988
  84.4550012 136.3884997  22.3119988  84.5251829 135.5787985  22.0005940
  78.7430012 134.0614997  34.6589988  78.3770012 133.2964997  35.1019988
  79.6560012 134.0904997  34.9459988  78.8162790 133.9607224  34.7584070
  80.7160012 133.4124997  36.1949988  81.6140012 133.1384997  36.0099988
  80.3290012 132.6694997  36.6589988  80.7866612 133.2745914  36.2323643
  89.1370012 132.7444997  36.3769988  89.2140012 132.3184997  37.2309988
  90.0310012 132.7584997  36.0339988  89.2683428 132.6880879  36.4475310
 106.7190012 142.7034997  25.0999988 106.8080012 143.6474997  24.9679988
 106.0810012 142.4284997  24.4419988 106.6449081 142.7954830  24.9929614
 105.6520012 141.9584997  28.5189988 105.6140012 141.3124997  29.2239988
 105.3300012 141.4924997  27.7479988 105.6032333 141.8069408  28.5112978
  98.0210012 141.5734997  30.1119988  98.0620012 140.9474997  30.8349988
  98.7240012 142.1974997  30.2939988  98.1216363 141.5721196  30.2356044
 109.3580012 144.8974997  26.8199988 108.9180012 144.1774997  27.2709988
 109.3450012 145.6184997  27.4499988 109.2960226 144.8963731  26.9668494
  95.5540012 139.6834997  24.0399988  95.1070012 140.5294997  24.0209988
  94.9930012 139.1034997  23.5239988  95.4169900 139.7209916  23.9676801
  96.2650012 141.8454997  26.1659988  96.4780012 141.0754997  26.6929988
  97.0030012 141.9344997  25.5619988  96.3938496 141.7521394  26.1565300
 104.0420012 144.3914997  28.9249988 104.3460012 143.7054997  28.3299988
 104.7630012 144.5094997  29.5429988 104.1810671 144.3136305  28.9271816
 112.7050012 135.9924997  29.7859988 112.7540012 136.6024997  30.5219988
 113.1300012 136.4534997  29.0629988 112.7691824 136.1383741  29.7890205
 107.1830012 138.7854997  29.2529988 107.3250012 137.8394997  29.2729988
 107.0760012 138.9924997  28.3239988 107.1879864 138.6839534  29.1302339
 100.3370012 136.8864997  26.5249988 100.3810012 137.7464997  26.1069988
  99.8800012 136.3344997  25.8909988 100.2812185 136.9295799  26.3820299
 108.0600012 137.0174997  24.9259988 108.7060012 136.6884997  25.5509988
 108.5700012 137.5354997  24.3029988 108.2174264 137.0424611  24.9273862
  96.9580012 139.2834997  27.2869988  97.6110012 138.7334997  27.7189988
  96.9820012 139.0094997  26.3699988  97.0506683 139.1711466  27.2222123
 102.1140012 140.8334997  26.5019988 102.7300012 140.3074997  27.0119988
 101.5280012 140.1934997  26.0989988 102.1190810 140.6749208  26.5173173
 113.0960012 137.4704997  32.0219988 112.4080012 138.1284997  31.9259988
 113.1120012 137.2734997  32.9579988 113.0038525 137.5340462  32.1354808
  99.1480012 135.8044997  30.5989988  98.9290012 136.3344997  29.8329988
  98.4800012 136.0314997  31.2459988  99.0277600 135.9076906  30.5816379
 101.7170012 143.4804997  30.8859988 100.9770012 144.0784997  30.9899988
 102.4310012 144.0344997  30.5709988 101.7122237 143.6372831  30.8576465
 109.8240012 136.3084997  26.9059988 109.6080012 135.5424997  27.4389988
 110.4790012 136.7804997  27.4189988 109.8830632 136.2675889  27.0482861
  98.7410012 137.6964997  28.5509988  99.3550012 138.3294997  28.9249988
  99.2530012 137.2244997  27.8949988  98.8942296 137.7192370  28.5134252
 110.1710012 135.0234997  30.5859988 109.4350012 135.6344997  30.5479988
 110.8540012 135.4384997  30.0589988 110.1626541 135.1631374  30.5095832
 103.1740012 133.1104997  28.0519988 103.0570012 132.1614997  27.9969988
 102.3190012 133.4424997  28.3249988 103.0423733 133.0255409  28.0813897
 110.9680012 144.9854997  32.7799988 111.1080012 144.3944997  32.0399988
 111.1350012 145.8584997  32.4229988 111.0096778 145.0226426  32.6306965
 105.4410012 141.9474997  22.5519988 104.7290012 142.4824997  22.1999988
 106.1320012 142.0034997  21.8919988 105.4370132 142.0282543  22.4146289
 105.4940012 140.4054997  19.5909988 106.1950012 140.4274997  20.2419988
 105.7970012 139.7774997  18.9349988 105.6307830 140.3236566  19.5913711
 112.8100012 141.3254997  30.8459988 112.1570012 142.0204997  30.9349988
 113.2750012 141.5354997  30.0359988 112.7835390 141.4489425  30.7486883
 108.8460012 142.1574997  23.5039988 108.1140012 142.3854997  24.0769988
 109.2940012 141.4434997  23.9589988 108.8063095 142.0922571  23.6439119
 108.7440012 140.3314997  32.5709988 108.8240012 141.0944997  33.1429988
 108.1420012 140.6104997  31.8809988 108.6735756 140.4737134  32.5560589
 100.4920012 142.7874997  25.3859988 100.1610012 142.4174997  24.5679988
 101.0800012 142.1174997  25.7329988 100.5261873 142.6461156  25.3208102
 100.8580012 141.5564997  29.0199988 101.4240012 141.6774997  28.2569988
 101.1770012 142.1934997  29.6589988 100.9785786 141.6591884  29.0020040
 107.7170012 141.3194997  21.1889988 108.2970012 141.4694997  21.9359988
 108.1310012 141.7904997  20.4659988 107.8522830 141.4036841  21.1934134
  98.6580012 142.1534997  32.9659988  98.7290012 142.8044997  33.6639988
  97.7680012 142.2564997  32.6309988  98.5473117 142.2565936  33.0162700
 111.4160012 133.0694997  21.0019988 110.5160012 133.2084997  21.2969988
 111.6680012 133.9004997  20.5999988 111.3268702 133.2009074  20.9880205
  99.4820012 141.8574997  22.9759988  99.1900012 142.6254997  22.4849988
  98.8080012 141.1974997  22.8129988  99.3509081 141.8734406  22.8867340
  95.5750012 144.2204997  31.7909988  95.0740012 144.1924997  30.9759988
  95.5800012 143.3144997  32.0999988  95.5071526 144.0942278  31.7212872
 110.6750012 139.1594997  34.8369988 110.2680012 139.6404997  34.1159988
 110.7160012 138.2544997  34.5289988 110.6248437 139.1029374  34.6966683
 100.4430012 134.0134997  28.8289988  99.5810012 133.9264997  28.4219988
 100.4200012 134.8694997  29.2569988 100.3220330 134.1172765  28.8311863
 105.1060012 133.7354997  32.2039988 105.5260012 133.3204997  32.9569988
 104.1730012 133.5574997  32.3209988 105.0373644 133.6545900  32.3229539
 108.4320012 137.4914997  33.0569988 107.9180012 137.3654997  33.8549988
 108.2770012 138.4034997  32.8129988 108.3406852 137.5976132  33.1332158
 109.1950012 142.3524997  18.8189988 109.2370012 142.1294997  17.8889988
 110.0440012 142.7514997  19.0089988 109.3155396 142.3759155  18.7173627
 104.7670012 136.2284997  19.4889988 104.5140012 136.2474997  20.4119988
 104.5110012 135.3564997  19.1879988 104.6977790 136.1132437  19.5746263
 100.5340012 138.9794997  29.9239988  99.8920012 138.9384997  30.6329988
 100.5710012 139.9054997  29.6869988 100.4511324 139.0991559  29.9889824
 100.5310012 139.2004997  24.8359988  99.6380012 138.8594997  24.7779988
 100.9810012 138.8234997  24.0809988 100.4697305 139.1028484  24.7259177
 106.0660012 139.6164997  23.6529988 105.6570012 140.4314997  23.3619988
 106.7870012 139.4764997  23.0389988 106.1074537 139.7092018  23.5301342
 105.1680012 139.7914997  35.1409988 104.6060012 139.0874997  35.4619988
 105.9950012 139.6714997  35.6089988 105.2027095 139.6787883  35.2482330
 107.0710012 139.0624997  26.4669988 106.8760012 139.6674997  25.7519988
 107.2520012 138.2284997  26.0329988 107.0687614 139.0326300  26.3104405
  98.2840012 139.2994997  31.7909988  98.2460012 139.6994997  32.6599988
  97.7930012 138.4824997  31.8819988  98.2124684 139.2438069  31.9221059
 101.6500012 136.6734997  18.5899988 101.2190012 136.2284997  19.3199988
 100.9320012 137.0454997  18.0779988 101.4939438 136.6628940  18.6206799
  94.8920012 136.4154997  25.6419988  95.5230012 136.3864997  26.3609988
  95.3410012 135.9904997  24.9119988  95.0390774 136.3540492  25.6416553
  96.1660012 137.1614997  21.0659988  96.6400012 137.7524997  20.4809988
  95.4490012 137.6924997  21.4129988  96.1339341 137.3140867  21.0328836
 106.3350012 140.7004997  31.1389988 106.6580012 140.0694997  30.4959988
 105.8950012 140.1654997  31.7989988 106.3196895 140.5418441  31.1402850
 103.1120012 136.6274997  25.9229988 102.2010012 136.6844997  26.2109988
 103.6180012 136.5674997  26.7329988 103.0555413 136.6271985  26.0720622
  97.9410012 138.2564997  24.7489988  97.0510012 138.3564997  24.4089988
  98.2370012 137.4144997  24.4029988  97.8592823 138.1563545  24.6557213
 101.5940012 138.2564997  22.4059988 102.5250012 138.3854997  22.5839988
 101.3790012 138.9264997  21.7559988 101.6924247 138.3646565  22.3425747
 107.5170012 135.8624997  29.1869988 106.8410012 135.9934997  29.8509988
 107.0320012 135.7074997  28.3769988 107.3587145 135.8594905  29.1684517
 100.2680012 139.4514997  19.9729988  99.7250012 139.0714997  19.2809988
 101.1010012 139.6454997  19.5439988 100.3064399 139.4258124  19.8204526
  98.4030012 144.0084997  35.0719988  99.1350012 144.2624997  35.6329988
  97.6230012 144.2124997  35.5869988  98.3978232 144.0709177  35.2185760
 104.4320012 139.4154997  27.8099988 104.9970012 138.8684997  27.2629988
 104.2850012 138.8934997  28.5979988 104.4892918 139.2702024  27.8418454
  99.4340012 135.5514997  24.2279988  99.1170012 134.6494997  24.1929988
 100.2160012 135.5534997  23.6749988  99.4962284 135.4281628  24.1484783
 103.0590012 137.8034997  30.2239988 102.2230012 138.2574997  30.3339988
 103.5830012 138.0794997  30.9759988 103.0154414 137.9029376  30.3407136
 103.6030012 144.0164997  21.9079988 102.8580012 143.5094997  21.5859988
 103.4690012 144.0654997  22.8549988 103.4828776 143.9536940  21.9918647
 110.7530012 143.1494997  30.6949988 111.3950012 143.6064997  30.1509988
 109.9230012 143.2624997  30.2319988 110.7285963 143.2272704  30.5580177
 107.5010012 136.8304997  20.1079988 106.5620012 136.9424997  19.9559988
 107.7980012 137.6874997  20.4139988 107.4127666 136.9616443  20.1285768
 105.1220012 144.2004997  33.1449988 104.7770012 143.8194997  33.9519988
 104.9220012 145.1344997  33.2169988 105.0478061 144.2745228  33.2650961
 108.2190012 138.6974997  21.7679988 109.1110012 138.5604997  22.0869988
 108.2760012 139.4884997  21.2319988 108.3486285 138.7856660  21.7391691
  98.7280012 143.3114997  27.6779988  99.4730012 143.3094997  27.0769988
  98.8060012 142.4884997  28.1599988  98.8405518 143.1999315  27.6608929
  95.7360012 141.7724997  32.9929988  95.9590012 141.3544997  33.8249988
  95.1340012 141.1594997  32.5699988  95.6851759 141.6324668  33.0497022
 102.7520012 141.2894997  35.2059988 102.4560012 141.1234997  34.3109988
 103.6840012 141.0694997  35.1949988 102.8374166 141.2370640  35.0820536
 113.1040012 138.9074997  21.4629988 112.5500012 138.5114997  20.7909988
 113.2040012 139.8174997  21.1849988 113.0417059 138.9763586  21.3334401
 113.0670012 144.7074997  34.2999988 112.2160012 144.9454997  33.9329988
 113.6580012 144.6904997  33.5469988 113.0302487 144.7378258  34.1478893
 108.5600012 142.5014997  28.9489988 107.6310012 142.2694997  28.9219988
 109.0110012 141.7244997  28.6189988 108.4939216 142.3647238  28.9006917
  96.8580012 141.6914997  19.6689988  97.4740012 142.3184997  20.0489988
  95.9960012 142.0074997  19.9409988  96.8257698 141.8199430  19.7577183
 102.5300012 144.4924997  24.6589988 102.2890012 145.4174997  24.6999988
 101.7890012 144.0334997  25.0549988 102.3968409 144.5571421  24.7181377
 106.5890012 144.7404997  30.6739988 106.1630012 144.5134997  31.5009988
 107.1690012 144.0024997  30.4919988 106.6091868 144.6095299  30.7625830
  97.3700012 136.5254997  32.5509988  96.4770012 136.8644997  32.4829988
  97.2710012 135.6704997  32.9689988  97.2344164 136.4562588  32.5982235
 109.6580012 144.3424997  21.9749988 109.3800012 143.6144997  22.5309988
 110.5850012 144.4614997  22.1799988 109.7453124 144.2588802  22.0788845
  98.2730012 143.6044997  21.1619988  97.5870012 143.9564997  21.7289988
  98.7950012 144.3674997  20.9149988  98.2496852 143.7558578  21.2062118
 106.1040012 136.2664997  31.4409988 106.8030012 136.3404997  32.0909988
 105.7230012 135.4024997  31.5949988 106.1481767 136.1597624  31.5508322
 106.8890012 135.9184997  22.5379988 107.1090012 136.3904997  21.7349988
 107.4470012 136.3134997  23.2079988 106.9944968 136.0364285  22.5187331
 104.0890012 137.6464997  23.3729988 104.9010012 138.1514997  23.4189988
 103.8440012 137.5014997  24.2869988 104.1670520 137.6960375  23.5028517
 104.6240012 138.6324997  32.5579988 104.7430012 139.2064997  33.3149988
 105.2800012 137.9444997  32.6719988 104.7289757 138.6181079  32.6770825
 104.9720012 134.7274997  24.3109988 104.6260012 135.3454997  24.9559988
 105.6310012 135.2284997  23.8299988 105.0137826 134.8795802  24.3340971
 100.6300012 135.7904997  20.9979988 100.5470012 136.6794997  21.3449988
 101.5200012 135.5254997  21.2299988 100.7389469 135.8761430  21.0767626
 110.8290012 136.5394997  33.3929988 109.9120012 136.8024997  33.3049988
 111.1640012 136.5364997  32.4959988 110.7489900 136.5750224  33.2597919
 109.4310012 140.2904997  27.4879988 108.6330012 139.8754997  27.1599988
 109.8760012 139.5994997  27.9789988 109.3819885 140.1403543  27.5094889
  97.2050012 138.8824997  19.1749988  97.1600012 139.8214997  19.3529988
  96.3170012 138.6464997  18.9049988  97.0788574 138.9791892  19.1628912
  98.0130012 133.6644997  27.8479988  97.7840012 133.7234997  26.9199988
  97.5700012 132.8724997  28.1539988  97.9218530 133.5655753  27.7624786
  96.1380012 144.0274997  36.2929988  96.2820012 143.1254997  36.0059988
  95.3660012 144.3134997  35.8049988  96.0533322 143.9428261  36.1877881
 100.4800012 144.3714997  18.4249988 100.5440012 143.5774997  18.9559988
 101.1330012 144.2524997  17.7349988 100.5770241 144.2467148  18.4044317
 102.7940012 143.9974997  35.7249988 102.4650012 144.2684997  34.8679988
 102.9460012 143.0564997  35.6379988 102.7694809 143.9073862  35.5958244
 108.5280012 143.9134997  33.1089988 109.2740012 144.5014997  32.9889988
 107.7710012 144.4954997  33.1719988 108.5277554 144.0727011  33.1010907
  96.9710012 141.2274997  35.7129988  97.3790012 140.3704997  35.5919988
  96.7110012 141.2424997  36.6339988  96.9917568 141.1120807  35.8209588
 101.6290012 142.3434997  20.7309988 101.1690012 141.8594997  21.4169988
 101.8840012 141.6754997  20.0949988 101.6004902 142.1868731  20.7389334
 100.9180012 140.2364997  33.0869988 100.3000012 140.9114997  33.3669988
 101.2620012 140.5574997  32.2539988 100.8799615 140.3722721  33.0126581
 102.7000012 140.5864997  18.9929988 102.5200012 140.4324997  18.0659988
 103.6500012 140.6944997  19.0379988 102.8037776 140.5800175  18.8721843
 105.9380012 142.7084997  36.3639988 106.8910012 142.7914997  36.3369988
 105.7770012 141.9964997  36.9839988 106.0466426 142.6236746  36.4440579
 112.0900012 142.9414997  18.4389988 111.8160012 142.5164997  17.6259988
 112.1290012 143.8724997  18.2219988 112.0577699 143.0092484  18.2983610
 101.2570012 137.5914997  34.1689988 101.4070012 136.8624997  33.5669988
 101.2600012 138.3684997  33.6099988 101.2779302 137.5967851  34.0110692
 101.6700012 135.9614997  31.6619988 102.2060012 136.4124997  31.0099988
 100.8180012 135.8534997  31.2389988 101.6282178 136.0086390  31.5155756
 103.2520012 141.4004997  31.9009988 104.0020012 141.2444997  31.3279988
 102.9130012 142.2524997  31.6259988 103.3088921 141.4942968  31.7853561
 107.6670012 139.2154997  36.9299988 107.8600012 138.2844997  36.8179988
 108.5250012 139.6404997  36.9199988 107.8093020 139.1456389  36.9133361
 108.9840012 142.0044997  35.0069988 108.7030012 142.7134997  34.4299988
 109.9270012 141.9314997  34.8559988 109.0729027 142.0917646  34.9075551
  99.7360012 138.7894997  36.0809988  98.9690012 138.2574997  35.8709988
 100.4150012 138.4794997  35.4809988  99.7227022 138.6747506  35.9711648
 102.4760012 133.4174997  32.0929988 102.3770012 134.3644997  31.9879988
 101.7330012 133.0454997  31.6179988 102.3620564 133.4965902  32.0144560
 103.7400012 137.7394997  35.6569988 103.5040012 137.5194997  36.5589988
 102.9560012 137.5324997  35.1469988 103.6018628 137.6814760  35.7113932
 106.4550012 136.8664997  34.7329988 105.5080012 136.8984997  34.8649988
 106.7680012 136.2414997  35.3859988 106.3675475 136.7863207  34.8394455
 108.0890012 135.5004997  36.7379988 107.9930012 134.5484997  36.7319988
 107.7680012 135.7694997  37.5979988 108.0324070 135.4064035  36.8535441
  97.9160012 136.7104997  35.7849988  98.1280012 136.0034997  35.1749988
  97.8050012 136.2724997  36.6289988  97.9299721 136.5547084  35.8156843
 102.6970012 132.7114997  34.7649988 103.4090012 132.0714997  34.7509988
 102.5960012 132.9784997  33.8509988 102.7807939 132.6599938  34.6395650
 103.0510012 134.3944997  36.8179988 102.9190012 133.9184997  35.9979988
 102.4520012 135.1384997  36.7629988 102.9519071 134.4299618  36.6982886
 112.5480012 143.8104997  22.4139988 113.3980012 144.2314997  22.5409988
 112.5540012 143.0704997  23.0209988 112.6651372 143.7680803  22.5134344
 112.9430012 141.8634997  24.2379988 112.2160012 141.3844997  24.6349988
 113.5240012 142.0694997  24.9699988 112.9219375 141.8257090  24.3914129
 112.7020012 144.6484997  29.1849988 113.5350012 144.2704997  28.9049988
 112.8140012 145.5914997  29.0659988 112.8312647 144.7242218  29.1305487
 113.2110012 141.7644997  20.6289988 112.6890012 142.1214997  19.9099988
 113.1780012 142.4394997  21.3069988 113.1351634 141.9045413  20.6223145
 111.5600012 139.0044997  19.1799988 111.6560012 139.6714997  18.4989988
 111.4200012 138.1884997  18.6979988 111.5542135 138.9854500  19.0218491
 110.7290012 140.3844997  24.8009988 110.5790012 139.4394997  24.7799988
 110.3760012 140.6654997  25.6439988 110.6606625 140.2930441  24.9122346
  95.7650012 142.4624997  28.8109988  95.9490012 142.3804997  27.8749988
  96.6140012 142.3384997  29.2349988  95.9050139 142.4345003  28.7401455
 111.5860012 142.3544997  34.4389988 112.1690012 141.6204997  34.6309988
 112.1500012 143.1264997  34.4859988 111.7419769 142.3584227  34.4716159
 113.0820012 140.2574997  35.1239988 112.2190012 139.8784997  34.9579988
 113.6870012 139.5184997  35.0499988 113.0455979 140.1058023  35.0912817
 110.8070012 136.4124997  18.2969988 111.4180012 136.0414997  18.9339988
 109.9710012 135.9914997  18.4929988 110.7775032 136.3047554  18.4107035
 110.4400012 137.9674997  23.2629988 110.7200012 137.0604997  23.3869988
 111.1990012 138.4014997  22.8739988 110.5809277 137.9020942  23.2273682
 111.0520012 138.5484997  28.6989988 111.9850012 138.7604997  28.6649988
 110.8170012 138.6504997  29.6209988 111.1478036 138.5912769  28.8189976
 111.0810012 139.2854997  31.4749988 110.2380012 139.5534997  31.8409988
 111.5230012 140.1074997  31.2639988 111.0254158 139.4333291  31.4965491
  95.3620012 137.7334997  34.9519988  96.2820012 137.6114997  35.1879988
  94.9130012 136.9834997  35.3409988  95.4271580 137.6153727  35.0369006
 113.3640012 133.2654997  36.8279988 113.7140012 132.6114997  36.2229988
 113.5110012 134.1024997  36.3889988 113.4318419 133.2891591  36.6857118
 111.0530012 135.2304997  23.3109988 111.2360012 134.7814997  24.1369988
 110.4540012 134.6454997  22.8479988 110.9970202 135.0899975  23.3613275
  96.5830012 136.0454997  27.8429988  97.0290012 135.2534997  28.1449988
  97.0500012 136.7614997  28.2739988  96.7070172 136.0340624  27.9424820
  94.8870012 139.0444997  28.9119988  95.3790012 138.8234997  28.1209988
  95.2500012 139.8854997  29.1929988  95.0033126 139.1278357  28.8417531
 112.8840012 135.3744997  35.1779988 111.9660012 135.6454997  35.1419988
 113.0070012 134.8394997  34.3929988 112.7751066 135.3392892  35.0670487
 112.9200012 135.2974997  19.8389988 113.3320012 134.5764997  19.3639988
 113.6020012 135.9674997  19.8979988 113.0685885 135.2892368  19.7818915
  95.2010012 135.3024997  22.9659988  94.2760012 135.5114997  22.8369988
  95.6550012 135.7864997  22.2769988  95.1357368 135.3965993  22.8551226
  95.1650012 134.0404997  31.3109988  94.5000012 133.7944997  31.9539988
  94.7220012 134.6624997  30.7329988  95.0140956 134.0908632  31.3209352
 111.8840012 133.4644997  32.9969988 111.0720012 133.7894997  32.6089988
 112.1170012 132.7044997  32.4639988 111.8043423 133.4062436  32.8718253
 105.3140012 134.9134997  27.3189988 104.6400012 134.2844997  27.5749988
 105.8780012 134.4294997  26.7159988 105.2979230 134.7618744  27.2725340
 110.4570012 133.0214997  27.4319988 111.0610012 133.5684997  26.9299988
 109.5870012 133.3404997  27.1919988 110.4221241 133.1395806  27.3307654
 112.1840012 134.1594997  25.7649988 112.7960012 133.6454997  25.2389988
 112.5660012 135.0374997  25.7889988 112.3194540 134.2077140  25.6961830
  97.6410012 133.5474997  25.1409988  96.8640012 133.3134997  24.6339988
  98.1710012 132.7504997  25.1499988  97.6062330 133.4076988  25.0727742
  96.4770012 133.3454997  20.9449988  96.9160012 133.9564997  20.3529988
  95.8440012 133.8834997  21.4189988  96.4514514 133.5019257  20.9280930
 102.2200012 133.4744997  24.9549988 103.0950012 133.8624997  24.9249988
 102.0840012 133.2594997  25.8769988 102.3213695 133.4985184  25.0756440
 107.7770012 133.5044997  26.6039988 107.8530012 133.5994997  25.6539988
 107.5020012 132.5964997  26.7329988 107.7502321 133.3947867  26.4915079
 109.1300012 133.5304997  22.2959988 108.4280012 134.1454997  22.0869988
 108.6860012 132.6924997  22.4269988 108.9736330 133.5015783  22.2850328
  98.3380012 135.2614997  19.3869988  98.8300012 134.6314997  18.8599988
  98.9620012 135.5574997  20.0509988  98.4895446 135.2153199  19.4045980
 103.3640012 135.5544997  21.8439988 103.5420012 134.9084997  22.5269988
 103.3110012 136.3884997  22.3119988 103.3811829 135.5787985  22.0005940
  97.5990012 134.0614997  34.6589988  97.2330012 133.2964997  35.1019988
  98.5120012 134.0904997  34.9459988  97.6722790 133.9607224  34.7584070
  99.5720012 133.4124997  36.1949988 100.4700012 133.1384997  36.0099988
  99.1850012 132.6694997  36.6589988  99.6426612 133.2745914  36.2323643
 107.9930012 132.7444997  36.3769988 108.0700012 132.3184997  37.2309988
 108.8870012 132.7584997  36.0339988 108.1243428 132.6880879  36.4475310
 125.5750012 142.7034997  25.0999988 125.6640012 143.6474997  24.9679988
 124.9370012 142.4284997  24.4419988 125.5009081 142.7954830  24.9929614
 124.5080012 141.9584997  28.5189988 124.4700012 141.3124997  29.2239988
 124.1860012 141.4924997  27.7479988 124.4592333 141.8069408  28.5112978
 116.8770012 141.5734997  30.1119988 116.9180012 140.9474997  30.8349988
 117.5800012 142.1974997  30.2939988 116.9776363 141.5721196  30.2356044
 128.2140012 144.8974997  26.8199988 127.7740012 144.1774997  27.2709988
 128.2010012 145.6184997  27.4499988 128.1520226 144.8963731  26.9668494
 114.4100012 139.6834997  24.0399988 113.9630012 140.5294997  24.0209988
 113.8490012 139.1034997  23.5239988 114.2729900 139.7209916  23.9676801
 115.1210012 141.8454997  26.1659988 115.3340012 141.0754997  26.6929988
 115.8590012 141.9344997  25.5619988 115.2498496 141.7521394  26.1565300
 122.8980012 144.3914997  28.9249988 123.2020012 143.7054997  28.3299988
 123.6190012 144.5094997  29.5429988 123.0370671 144.3136305  28.9271816
 131.5610012 135.9924997  29.7859988 131.6100012 136.6024997  30.5219988
 131.9860012 136.4534997  29.0629988 131.6251824 136.1383741  29.7890205
 126.0390012 138.7854997  29.2529988 126.1810012 137.8394997  29.2729988
 125.9320012 138.9924997  28.3239988 126.0439864 138.6839534  29.1302339
 119.1930012 136.8864997  26.5249988 119.2370012 137.7464997  26.1069988
 118.7360012 136.3344997  25.8909988 119.1372185 136.9295799  26.3820299
 126.9160012 137.0174997  24.9259988 127.5620012 136.6884997  25.5509988
 127.4260012 137.5354997  24.3029988 127.0734264 137.0424611  24.9273862
 115.8140012 139.2834997  27.2869988 116.4670012 138.7334997  27.7189988
 115.8380012 139.0094997  26.3699988 115.9066683 139.1711466  27.2222123
 120.9700012 140.8334997  26.5019988 121.5860012 140.3074997  27.0119988
 120.3840012 140.1934997  26.0989988 120.9750810 140.6749208  26.5173173
 131.9520012 137.4704997  32.0219988 131.2640012 138.1284997  31.9259988
 131.9680012 137.2734997  32.9579988 131.8598525 137.5340462  32.1354808
 118.0040012 135.8044997  30.5989988 117.7850012 136.3344997  29.8329988
 117.3360012 136.0314997  31.2459988 117.8837600 135.9076906  30.5816379
 120.5730012 143.4804997  30.8859988 119.8330012 144.0784997  30.9899988
 121.2870012 144.0344997  30.5709988 120.5682237 143.6372831  30.8576465
 128.6800012 136.3084997  26.9059988 128.4640012 135.5424997  27.4389988
 129.3350012 136.7804997  27.4189988 128.7390632 136.2675889  27.0482861
 117.5970012 137.6964997  28.5509988 118.2110012 138.3294997  28.9249988
 118.1090012 137.2244997  27.8949988 117.7502296 137.7192370  28.5134252
 129.0270012 135.0234997  30.5859988 128.2910012 135.6344997  30.5479988
 129.7100012 135.4384997  30.0589988 129.0186541 135.1631374  30.5095832
 122.0300012 133.1104997  28.0519988 121.9130012 132.1614997  27.9969988
 121.1750012 133.4424997  28.3249988 121.8983733 133.0255409  28.0813897
 129.8240012 144.9854997  32.7799988 129.9640012 144.3944997  32.0399988
 129.9910012 145.8584997  32.4229988 129.8656778 145.0226426  32.6306965
 124.2970012 141.9474997  22.5519988 123.5850012 142.4824997  22.1999988
 124.9880012 142.0034997  21.8919988 124.2930132 142.0282543  22.4146289
 124.3500012 140.4054997  19.5909988 125.0510012 140.4274997  20.2419988
 124.6530012 139.7774997  18.9349988 124.4867830 140.3236566  19.5913711
 131.6660012 141.3254997  30.8459988 131.0130012 142.0204997  30.9349988
 132.1310012 141.5354997  30.0359988 131.6395390 141.4489425  30.7486883
 127.7020012 142.1574997  23.5039988 126.9700012 142.3854997  24.0769988
 128.1500012 141.4434997  23.9589988 127.6623095 142.0922571  23.6439119
 127.6000012 140.3314997  32.5709988 127.6800012 141.0944997  33.1429988
 126.9980012 140.6104997  31.8809988 127.5295756 140.4737134  32.5560589
 119.3480012 142.7874997  25.3859988 119.0170012 142.4174997  24.5679988
 119.9360012 142.1174997  25.7329988 119.3821873 142.6461156  25.3208102
 119.7140012 141.5564997  29.0199988 120.2800012 141.6774997  28.2569988
 120.0330012 142.1934997  29.6589988 119.8345786 141.6591884  29.0020040
 126.5730012 141.3194997  21.1889988 127.1530012 141.4694997  21.9359988
 126.9870012 141.7904997  20.4659988 126.7082830 141.4036841  21.1934134
 117.5140012 142.1534997  32.9659988 117.5850012 142.8044997  33.6639988
 116.6240012 142.2564997  32.6309988 117.4033117 142.2565936  33.0162700
 130.2720012 133.0694997  21.0019988 129.3720012 133.2084997  21.2969988
 130.5240012 133.9004997  20.5999988 130.1828702 133.2009074  20.9880205
 118.3380012 141.8574997  22.9759988 118.0460012 142.6254997  22.4849988
 117.6640012 141.1974997  22.8129988 118.2069081 141.8734406  22.8867340
 114.4310012 144.2204997  31.7909988 113.9300012 144.1924997  30.9759988
 114.4360012 143.3144997  32.0999988 114.3631526 144.0942278  31.7212872
 129.5310012 139.1594997  34.8369988 129.1240012 139.6404997  34.1159988
 129.5720012 138.2544997  34.5289988 129.4808437 139.1029374  34.6966683
 119.2990012 134.0134997  28.8289988 118.4370012 133.9264997  28.4219988
 119.2760012 134.8694997  29.2569988 119.1780330 134.1172765  28.8311863
 123.9620012 133.7354997  32.2039988 124.3820012 133.3204997  32.9569988
 123.0290012 133.5574997  32.3209988 123.8933644 133.6545900  32.3229539
 127.2880012 137.4914997  33.0569988 126.7740012 137.3654997  33.8549988
 127.1330012 138.4034997  32.8129988 127.1966852 137.5976132  33.1332158
 128.0510012 142.3524997  18.8189988 128.0930012 142.1294997  17.8889988
 128.9000012 142.7514997  19.0089988 128.1715396 142.3759155  18.7173627
 123.6230012 136.2284997  19.4889988 123.3700012 136.2474997  20.4119988
 123.3670012 135.3564997  19.1879988 123.5537790 136.1132437  19.5746263
 119.3900012 138.9794997  29.9239988 118.7480012 138.9384997  30.6329988
 119.4270012 139.9054997  29.6869988 119.3071324 139.0991559  29.9889824
 119.3870012 139.2004997  24.8359988 118.4940012 138.8594997  24.7779988
 119.8370012 138.8234997  24.0809988 119.3257305 139.1028484  24.7259177
 124.9220012 139.6164997  23.6529988 124.5130012 140.4314997  23.3619988
 125.6430012 139.4764997  23.0389988 124.9634537 139.7092018  23.5301342
 124.0240012 139.7914997  35.1409988 123.4620012 139.0874997  35.4619988
 124.8510012 139.6714997  35.6089988 124.0587095 139.6787883  35.2482330
 125.9270012 139.0624997  26.4669988 125.7320012 139.6674997  25.7519988
 126.1080012 138.2284997  26.0329988 125.9247614 139.0326300  26.3104405
 117.1400012 139.2994997  31.7909988 117.1020012 139.6994997  32.6599988
 116.6490012 138.4824997  31.8819988 117.0684684 139.2438069  31.9221059
 120.5060012 136.6734997  18.5899988 120.0750012 136.2284997  19.3199988
 119.7880012 137.0454997  18.0779988 120.3499438 136.6628940  18.6206799
 113.7480012 136.4154997  25.6419988 114.3790012 136.3864997  26.3609988
 114.1970012 135.9904997  24.9119988 113.8950774 136.3540492  25.6416553
 115.0220012 137.1614997  21.0659988 115.4960012 137.7524997  20.4809988
 114.3050012 137.6924997  21.4129988 114.9899341 137.3140867  21.0328836
 125.1910012 140.7004997  31.1389988 125.5140012 140.0694997  30.4959988
 124.7510012 140.1654997  31.7989988 125.1756895 140.5418441  31.1402850
 121.9680012 136.6274997  25.9229988 121.0570012 136.6844997  26.2109988
 122.4740012 136.5674997  26.7329988 121.9115413 136.6271985  26.0720622
 116.7970012 138.2564997  24.7489988 115.9070012 138.3564997  24.4089988
 117.0930012 137.4144997  24.4029988 116.7152823 138.1563545  24.6557213
 120.4500012 138.2564997  22.4059988 121.3810012 138.3854997  22.5839988
 120.2350012 138.9264997  21.7559988 120.5484247 138.3646565  22.3425747
 126.3730012 135.8624997  29.1869988 125.6970012 135.9934997  29.8509988
 125.8880012 135.7074997  28.3769988 126.2147145 135.8594905  29.1684517
 119.1240012 139.4514997  19.9729988 118.5810012 139.0714997  19.2809988
 119.9570012 139.6454997  19.5439988 119.1624399 139.4258124  19.8204526
 117.2590012 144.0084997  35.0719988 117.9910012 144.2624997  35.6329988
 116.4790012 144.2124997  35.5869988 117.2538232 144.0709177  35.2185760
 123.2880012 139.4154997  27.8099988 123.8530012 138.8684997  27.2629988
 123.1410012 138.8934997  28.5979988 123.3452918 139.2702024  27.8418454
 118.2900012 135.5514997  24.2279988 117.9730012 134.6494997  24.1929988
 119.0720012 135.5534997  23.6749988 118.3522284 135.4281628  24.1484783
 121.9150012 137.8034997  30.2239988 121.0790012 138.2574997  30.3339988
 122.4390012 138.0794997  30.9759988 121.8714414 137.9029376  30.3407136
 122.4590012 144.0164997  21.9079988 121.7140012 143.5094997  21.5859988
 122.3250012 144.0654997  22.8549988 122.3388776 143.9536940  21.9918647
 129.6090012 143.1494997  30.6949988 130.2510012 143.6064997  30.1509988
 128.7790012 143.2624997  30.2319988 129.5845963 143.2272704  30.5580177
 126.3570012 136.8304997  20.1079988 125.4180012 136.9424997  19.9559988
 126.6540012 137.6874997  20.4139988 126.2687666 136.9616443  20.1285768
 123.9780012 144.2004997  33.1449988 123.6330012 143.8194997  33.9519988
 123.7780012 145.1344997  33.2169988 123.9038061 144.2745228  33.2650961
 127.0750012 138.6974997  21.7679988 127.9670012 138.5604997  22.0869988
 127.1320012 139.4884997  21.2319988 127.2046285 138.7856660  21.7391690
 117.5840012 143.3114997  27.6779988 118.3290012 143.3094997  27.0769988
 117.6620012 142.4884997  28.1599988 117.6965518 143.1999315  27.6608929
 114.5920012 141.7724997  32.9929988 114.8150012 141.3544997  33.8249988
 113.9900012 141.1594997  32.5699988 114.5411759 141.6324668  33.0497022
 121.6080012 141.2894997  35.2059988 121.3120012 141.1234997  34.3109988
 122.5400012 141.0694997  35.1949988 121.6934166 141.2370640  35.0820536
 131.9600012 138.9074997  21.4629988 131.4060012 138.5114997  20.7909988
 132.0600012 139.8174997  21.1849988 131.8977059 138.9763586  21.3334401
 131.9230012 144.7074997  34.2999988 131.0720012 144.9454997  33.9329988
 132.5140012 144.6904997  33.5469988 131.8862487 144.7378258  34.1478893
 127.4160012 142.5014997  28.9489988 126.4870012 142.2694997  28.9219988
 127.8670012 141.7244997  28.6189988 127.3499216 142.3647238  28.9006917
 115.7140012 141.6914997  19.6689988 116.3300012 142.3184997  20.0489988
 114.8520012 142.0074997  19.9409988 115.6817698 141.8199430  19.7577183
 121.3860012 144.4924997  24.6589988 121.1450012 145.4174997  24.6999988
 120.6450012 144.0334997  25.0549988 121.2528409 144.5571421  24.7181377
 125.4450012 144.7404997  30.6739988 125.0190012 144.5134997  31.5009988
 126.0250012 144.0024997  30.4919988 125.4651868 144.6095299  30.7625830
 116.2260012 136.5254997  32.5509988 115.3330012 136.8644997  32.4829988
 116.1270012 135.6704997  32.9689988 116.0904164 136.4562588  32.5982235
 128.5140012 144.3424997  21.9749988 128.2360012 143.6144997  22.5309988
 129.4410012 144.4614997  22.1799988 128.6013124 144.2588802  22.0788845
 117.1290012 143.6044997  21.1619988 116.4430012 143.9564997  21.7289988
 117.6510012 144.3674997  20.9149988 117.1056852 143.7558578  21.2062118
 124.9600012 136.2664997  31.4409988 125.6590012 136.3404997  32.0909988
 124.5790012 135.4024997  31.5949988 125.0041767 136.1597624  31.5508322
 125.7450012 135.9184997  22.5379988 125.9650012 136.3904997  21.7349988
 126.3030012 136.3134997  23.2079988 125.8504968 136.0364285  22.5187331
 122.9450012 137.6464997  23.3729988 123.7570012 138.1514997  23.4189988
 122.7000012 137.5014997  24.2869988 123.0230520 137.6960375  23.5028517
 123.4800012 138.6324997  32.5579988 123.5990012 139.2064997  33.3149988
 124.1360012 137.9444997  32.6719988 123.5849757 138.6181079  32.6770825
 123.8280012 134.7274997  24.3109988 123.4820012 135.3454997  24.9559988
 124.4870012 135.2284997  23.8299988 123.8697826 134.8795802  24.3340971
 119.4860012 135.7904997  20.9979988 119.4030012 136.6794997  21.3449988
 120.3760012 135.5254997  21.2299988 119.5949469 135.8761430  21.0767626
 129.6850012 136.5394997  33.3929988 128.7680012 136.8024997  33.3049988
 130.0200012 136.5364997  32.4959988 129.6049900 136.5750224  33.2597919
 128.2870012 140.2904997  27.4879988 127.4890012 139.8754997  27.1599988
 128.7320012 139.5994997  27.9789988 128.2379885 140.1403543  27.5094889
 116.0610012 138.8824997  19.1749988 116.0160012 139.8214997  19.3529988
 115.1730012 138.6464997  18.9049988 115.9348574 138.9791892  19.1628912
 116.8690012 133.6644997  27.8479988 116.6400012 133.7234997  26.9199988
 116.4260012 132.8724997  28.1539988 116.7778530 133.5655753  27.7624786
 114.9940012 144.0274997  36.2929988 115.1380012 143.1254997  36.0059988
 114.2220012 144.3134997  35.8049988 114.9093322 143.9428261  36.1877881
 119.3360012 144.3714997  18.4249988 119.4000012 143.5774997  18.9559988
 119.9890012 144.2524997  17.7349988 119.4330241 144.2467148  18.4044317
 121.6500012 143.9974997  35.7249988 121.3210012 144.2684997  34.8679988
 121.8020012 143.0564997  35.6379988 121.6254809 143.9073862  35.5958244
 127.3840012 143.9134997  33.1089988 128.1300012 144.5014997  32.9889988
 126.6270012 144.4954997  33.1719988 127.3837554 144.0727011  33.1010907
 115.8270012 141.2274997  35.7129988 116.2350012 140.3704997  35.5919988
 115.5670012 141.2424997  36.6339988 115.8477568 141.1120807  35.8209588
 120.4850012 142.3434997  20.7309988 120.0250012 141.8594997  21.4169988
 120.7400012 141.6754997  20.0949988 120.4564902 142.1868731  20.7389334
 119.7740012 140.2364997  33.0869988 119.1560012 140.9114997  33.3669988
 120.1180012 140.5574997  32.2539988 119.7359615 140.3722721  33.0126581
 121.5560012 140.5864997  18.9929988 121.3760012 140.4324997  18.0659988
 122.5060012 140.6944997  19.0379988 121.6597776 140.5800175  18.8721843
 124.7940012 142.7084997  36.3639988 125.7470012 142.7914997  36.3369988
 124.6330012 141.9964997  36.9839988 124.9026426 142.6236746  36.4440579
 130.9460012 142.9414997  18.4389988 130.6720012 142.5164997  17.6259988
 130.9850012 143.8724997  18.2219988 130.9137699 143.0092484  18.2983610
 120.1130012 137.5914997  34.1689988 120.2630012 136.8624997  33.5669988
 120.1160012 138.3684997  33.6099988 120.1339302 137.5967851  34.0110692
 120.5260012 135.9614997  31.6619988 121.0620012 136.4124997  31.0099988
 119.6740012 135.8534997  31.2389988 120.4842178 136.0086390  31.5155756
 122.1080012 141.4004997  31.9009988 122.8580012 141.2444997  31.3279988
 121.7690012 142.2524997  31.6259988 122.1648921 141.4942968  31.7853561
 126.5230012 139.2154997  36.9299988 126.7160012 138.2844997  36.8179988
 127.3810012 139.6404997  36.9199988 126.6653020 139.1456389  36.9133361
 127.8400012 142.0044997  35.0069988 127.5590012 142.7134997  34.4299988
 128.7830012 141.9314997  34.8559988 127.9289027 142.0917646  34.9075551
 118.5920012 138.7894997  36.0809988 117.8250012 138.2574997  35.8709988
 119.2710012 138.4794997  35.4809988 118.5787022 138.6747506  35.9711648
 121.3320012 133.4174997  32.0929988 121.2330012 134.3644997  31.9879988
 120.5890012 133.0454997  31.6179988 121.2180564 133.4965902  32.0144560
 122.5960012 137.7394997  35.6569988 122.3600012 137.5194997  36.5589988
 121.8120012 137.5324997  35.1469988 122.4578628 137.6814760  35.7113932
 125.3110012 136.8664997  34.7329988 124.3640012 136.8984997  34.8649988
 125.6240012 136.2414997  35.3859988 125.2235475 136.7863207  34.8394455
 126.9450012 135.5004997  36.7379988 126.8490012 134.5484997  36.7319988
 126.6240012 135.7694997  37.5979988 126.8884070 135.4064035  36.8535441
 116.7720012 136.7104997  35.7849988 116.9840012 136.0034997  35.1749988
 116.6610012 136.2724997  36.6289988 116.7859721 136.5547084  35.8156843
 121.5530012 132.7114997  34.7649988 122.2650012 132.0714997  34.7509988
 121.4520012 132.9784997  33.8509988 121.6367939 132.6599938  34.6395650
 121.9070012 134.3944997  36.8179988 121.7750012 133.9184997  35.9979988
 121.3080012 135.1384997  36.7629988 121.8079071 134.4299618  36.6982886
 131.4040012 143.8104997  22.4139988 132.2540012 144.2314997  22.5409988
 131.4100012 143.0704997  23.0209988 131.5211372 143.7680803  22.5134344
 131.7990012 141.8634997  24.2379988 131.0720012 141.3844997  24.6349988
 132.3800012 142.0694997  24.9699988 131.7779375 141.8257090  24.3914129
 131.5580012 144.6484997  29.1849988 132.3910012 144.2704997  28.9049988
 131.6700012 145.5914997  29.0659988 131.6872647 144.7242218  29.1305487
 132.0670012 141.7644997  20.6289988 131.5450012 142.1214997  19.9099988
 132.0340012 142.4394997  21.3069988 131.9911634 141.9045413  20.6223145
 130.4160012 139.0044997  19.1799988 130.5120012 139.6714997  18.4989988
 130.2760012 138.1884997  18.6979988 130.4102135 138.9854500  19.0218491
 129.5850012 140.3844997  24.8009988 129.4350012 139.4394997  24.7799988
 129.2320012 140.6654997  25.6439988 129.5166625 140.2930441  24.9122346
 114.6210012 142.4624997  28.8109988 114.8050012 142.3804997  27.8749988
 115.4700012 142.3384997  29.2349988 114.7610139 142.4345003  28.7401455
 130.4420012 142.3544997  34.4389988 131.0250012 141.6204997  34.6309988
 131.0060012 143.1264997  34.4859988 130.5979769 142.3584227  34.4716159
 131.9380012 140.2574997  35.1239988 131.0750012 139.8784997  34.9579988
 132.5430012 139.5184997  35.0499988 131.9015979 140.1058023  35.0912817
 129.6630012 136.4124997  18.2969988 130.2740012 136.0414997  18.9339988
 128.8270012 135.9914997  18.4929988 129.6335032 136.3047554  18.4107035
 129.2960012 137.9674997  23.2629988 129.5760012 137.0604997  23.3869988
 130.0550012 138.4014997  22.8739988 129.4369277 137.9020942  23.2273682
 129.9080012 138.5484997  28.6989988 130.8410012 138.7604997  28.6649988
 129.6730012 138.6504997  29.6209988 130.0038036 138.5912769  28.8189976
 129.9370012 139.2854997  31.4749988 129.0940012 139.5534997  31.8409988
 130.3790012 140.1074997  31.2639988 129.8814158 139.4333291  31.4965491
 114.2180012 137.7334997  34.9519988 115.1380012 137.6114997  35.1879988
 113.7690012 136.9834997  35.3409988 114.2831580 137.6153727  35.0369006
 132.2200012 133.2654997  36.8279988 132.5700012 132.6114997  36.2229988
 132.3670012 134.1024997  36.3889988 132.2878419 133.2891591  36.6857118
 129.9090012 135.2304997  23.3109988 130.0920012 134.7814997  24.1369988
 129.3100012 134.6454997  22.8479988 129.8530202 135.0899975  23.3613275
 115.4390012 136.0454997  27.8429988 115.8850012 135.2534997  28.1449988
 115.9060012 136.7614997  28.2739988 115.5630172 136.0340624  27.9424820
 113.7430012 139.0444997  28.9119988 114.2350012 138.8234997  28.1209988
 114.1060012 139.8854997  29.1929988 113.8593126 139.1278357  28.8417531
 131.7400012 135.3744997  35.1779988 130.8220012 135.6454997  35.1419988
 131.8630012 134.8394997  34.3929988 131.6311066 135.3392892  35.0670487
 131.7760012 135.2974997  19.8389988 132.1880012 134.5764997  19.3639988
 132.4580012 135.9674997  19.8979988 131.9245885 135.2892368  19.7818915
 114.0570012 135.3024997  22.9659988 113.1320012 135.5114997  22.8369988
 114.5110012 135.7864997  22.2769988 113.9917368 135.3965993  22.8551226
 114.0210012 134.0404997  31.3109988 113.3560012 133.7944997  31.9539988
 113.5780012 134.6624997  30.7329988 113.8700956 134.0908632  31.3209352
 130.7400012 133.4644997  32.9969988 129.9280012 133.7894997  32.6089988
 130.9730012 132.7044997  32.4639988 130.6603423 133.4062436  32.8718253
 124.1700012 134.9134997  27.3189988 123.4960012 134.2844997  27.5749988
 124.7340012 134.4294997  26.7159988 124.1539230 134.7618744  27.2725340
 129.3130012 133.0214997  27.4319988 129.9170012 133.5684997  26.9299988
 128.4430012 133.3404997  27.1919988 129.2781241 133.1395806  27.3307654
 131.0400012 134.1594997  25.7649988 131.6520012 133.6454997  25.2389988
 131.4220012 135.0374997  25.7889988 131.1754540 134.2077140  25.6961830
 116.4970012 133.5474997  25.1409988 115.7200012 133.3134997  24.6339988
 117.0270012 132.7504997  25.1499988 116.4622330 133.4076988  25.0727742
 115.3330012 133.3454997  20.9449988 115.7720012 133.9564997  20.3529988
 114.7000012 133.8834997  21.4189988 115.3074514 133.5019257  20.9280930
 121.0760012 133.4744997  24.9549988 121.9510012 133.8624997  24.9249988
 120.9400012 133.2594997  25.8769988 121.1773695 133.4985184  25.0756440
 126.6330012 133.5044997  26.6039988 126.7090012 133.5994997  25.6539988
 126.3580012 132.5964997  26.7329988 126.6062321 133.3947867  26.4915079
 127.9860012 133.5304997  22.2959988 127.2840012 134.1454997  22.0869988
 127.5420012 132.6924997  22.4269988 127.8296330 133.5015783  22.2850328
 117.1940012 135.2614997  19.3869988 117.6860012 134.6314997  18.8599988
 117.8180012 135.5574997  20.0509988 117.3455446 135.2153199  19.4045980
 122.2200012 135.5544997  21.8439988 122.3980012 134.9084997  22.5269988
 122.1670012 136.3884997  22.3119988 122.2371829 135.5787985  22.0005940
 116.4550012 134.0614997  34.6589988 116.0890012 133.2964997  35.1019988
 117.3680012 134.0904997  34.9459988 116.5282790 133.9607224  34.7584070
 118.4280012 133.4124997  36.1949988 119.3260012 133.1384997  36.0099988
 118.0410012 132.6694997  36.6589988 118.4986612 133.2745914  36.2323643
 126.8490012 132.7444997  36.3769988 126.9260012 132.3184997  37.2309988
 127.7430012 132.7584997  36.0339988 126.9803428 132.6880879  36.4475310
 144.4310012 142.7034997  25.0999988 144.5200012 143.6474997  24.9679988
 143.7930012 142.4284997  24.4419988 144.3569081 142.7954830  24.9929614
 143.3640012 141.9584997  28.5189988 143.3260012 141.3124997  29.2239988
 143.0420012 141.4924997  27.7479988 143.3152333 141.8069408  28.5112978
 135.7330012 141.5734997  30.1119988 135.7740012 140.9474997  30.8349988
 136.4360012 142.1974997  30.2939988 135.8336363 141.5721196  30.2356044
 133.2660012 139.6834997  24.0399988 132.8190012 140.5294997  24.0209988
 132.7050012 139.1034997  23.5239988 133.1289900 139.7209916  23.9676801
 133.9770012 141.8454997  26.1659988 134.1900012 141.0754997  26.6929988
 134.7150012 141.9344997  25.5619988 134.1058496 141.7521394  26.1565300
 141.7540012 144.3914997  28.9249988 142.0580012 143.7054997  28.3299988
 142.4750012 144.5094997  29.5429988 141.8930671 144.3136305  28.9271816
 144.8950012 138.7854997  29.2529988 145.0370012 137.8394997  29.2729988
 144.7880012 138.9924997  28.3239988 144.8999864 138.6839534  29.1302339
 138.0490012 136.8864997  26.5249988 138.0930012 137.7464997  26.1069988
 137.5920012 136.3344997  25.8909988 137.9932185 136.9295799  26.3820299
 134.6700012 139.2834997  27.2869988 135.3230012 138.7334997  27.7189988
 134.6940012 139.0094997  26.3699988 134.7626683 139.1711466  27.2222123
 139.8260012 140.8334997  26.5019988 140.4420012 140.3074997  27.0119988
 139.2400012 140.1934997  26.0989988 139.8310810 140.6749208  26.5173173
 136.8600012 135.8044997  30.5989988 136.6410012 136.3344997  29.8329988
 136.1920012 136.0314997  31.2459988 136.7397600 135.9076906  30.5816379
 139.4290012 143.4804997  30.8859988 138.6890012 144.0784997  30.9899988
 140.1430012 144.0344997  30.5709988 139.4242237 143.6372831  30.8576465
 136.4530012 137.6964997  28.5509988 137.0670012 138.3294997  28.9249988
 136.9650012 137.2244997  27.8949988 136.6062296 137.7192370  28.5134252
 140.8860012 133.1104997  28.0519988 140.7690012 132.1614997  27.9969988
 140.0310012 133.4424997  28.3249988 140.7543733 133.0255409  28.0813897
 143.1530012 141.9474997  22.5519988 142.4410012 142.4824997  22.1999988
 143.8440012 142.0034997  21.8919988 143.1490132 142.0282543  22.4146289
 143.2060012 140.4054997  19.5909988 143.9070012 140.4274997  20.2419988
 143.5090012 139.7774997  18.9349988 143.3427830 140.3236566  19.5913711
 138.2040012 142.7874997  25.3859988 137.8730012 142.4174997  24.5679988
 138.7920012 142.1174997  25.7329988 138.2381873 142.6461156  25.3208102
 138.5700012 141.5564997  29.0199988 139.1360012 141.6774997  28.2569988
 138.8890012 142.1934997  29.6589988 138.6905786 141.6591884  29.0020040
 136.3700012 142.1534997  32.9659988 136.4410012 142.8044997  33.6639988
 135.4800012 142.2564997  32.6309988 136.2593117 142.2565936  33.0162700
 137.1940012 141.8574997  22.9759988 136.9020012 142.6254997  22.4849988
 136.5200012 141.1974997  22.8129988 137.0629081 141.8734406  22.8867340
 133.2870012 144.2204997  31.7909988 132.7860012 144.1924997  30.9759988
 133.2920012 143.3144997  32.0999988 133.2191526 144.0942278  31.7212872
 138.1550012 134.0134997  28.8289988 137.2930012 133.9264997  28.4219988
 138.1320012 134.8694997  29.2569988 138.0340330 134.1172765  28.8311863
 142.8180012 133.7354997  32.2039988 143.2380012 133.3204997  32.9569988
 141.8850012 133.5574997  32.3209988 142.7493644 133.6545900  32.3229539
 142.4790012 136.2284997  19.4889988 142.2260012 136.2474997  20.4119988
 142.2230012 135.3564997  19.1879988 142.4097790 136.1132437  19.5746263
 138.2460012 138.9794997  29.9239988 137.6040012 138.9384997  30.6329988
 138.2830012 139.9054997  29.6869988 138.1631324 139.0991559  29.9889824
 138.2430012 139.2004997  24.8359988 137.3500012 138.8594997  24.7779988
 138.6930012 138.8234997  24.0809988 138.1817305 139.1028484  24.7259177
 143.7780012 139.6164997  23.6529988 143.3690012 140.4314997  23.3619988
 144.4990012 139.4764997  23.0389988 143.8194537 139.7092018  23.5301342
 142.8800012 139.7914997  35.1409988 142.3180012 139.0874997  35.4619988
 143.7070012 139.6714997  35.6089988 142.9147095 139.6787883  35.2482330
 144.7830012 139.0624997  26.4669988 144.5880012 139.6674997  25.7519988
 144.9640012 138.2284997  26.0329988 144.7807614 139.0326300  26.3104405
 135.9960012 139.2994997  31.7909988 135.9580012 139.6994997  32.6599988
 135.5050012 138.4824997  31.8819988 135.9244684 139.2438069  31.9221059
 139.3620012 136.6734997  18.5899988 138.9310012 136.2284997  19.3199988
 138.6440012 137.0454997  18.0779988 139.2059438 136.6628940  18.6206799
 132.6040012 136.4154997  25.6419988 133.2350012 136.3864997  26.3609988
 133.0530012 135.9904997  24.9119988 132.7510774 136.3540492  25.6416553
 133.8780012 137.1614997  21.0659988 134.3520012 137.7524997  20.4809988
 133.1610012 137.6924997  21.4129988 133.8459341 137.3140867  21.0328836
 144.0470012 140.7004997  31.1389988 144.3700012 140.0694997  30.4959988
 143.6070012 140.1654997  31.7989988 144.0316895 140.5418441  31.1402850
 140.8240012 136.6274997  25.9229988 139.9130012 136.6844997  26.2109988
 141.3300012 136.5674997  26.7329988 140.7675413 136.6271985  26.0720622
 135.6530012 138.2564997  24.7489988 134.7630012 138.3564997  24.4089988
 135.9490012 137.4144997  24.4029988 135.5712823 138.1563546  24.6557213
 139.3060012 138.2564997  22.4059988 140.2370012 138.3854997  22.5839988
 139.0910012 138.9264997  21.7559988 139.4044247 138.3646565  22.3425747
 137.9800012 139.4514997  19.9729988 137.4370012 139.0714997  19.2809988
 138.8130012 139.6454997  19.5439988 138.0184399 139.4258124  19.8204526
 136.1150012 144.0084997  35.0719988 136.8470012 144.2624997  35.6329988
 135.3350012 144.2124997  35.5869988 136.1098232 144.0709177  35.2185760
 142.1440012 139.4154997  27.8099988 142.7090012 138.8684997  27.2629988
 141.9970012 138.8934997  28.5979988 142.2012918 139.2702024  27.8418454
 137.1460012 135.5514997  24.2279988 136.8290012 134.6494997  24.1929988
 137.9280012 135.5534997  23.6749988 137.2082284 135.4281628  24.1484783
 140.7710012 137.8034997  30.2239988 139.9350012 138.2574997  30.3339988
 141.2950012 138.0794997  30.9759988 140.7274414 137.9029376  30.3407136
 141.3150012 144.0164997  21.9079988 140.5700012 143.5094997  21.5859988
 141.1810012 144.0654997  22.8549988 141.1948776 143.9536940  21.9918647
 142.8340012 144.2004997  33.1449988 142.4890012 143.8194997  33.9519988
 142.6340012 145.1344997  33.2169988 142.7598061 144.2745228  33.2650961
 136.4400012 143.3114997  27.6779988 137.1850012 143.3094997  27.0769988
 136.5180012 142.4884997  28.1599988 136.5525518 143.1999315  27.6608929
 133.4480012 141.7724997  32.9929988 133.6710012 141.3544997  33.8249988
 132.8460012 141.1594997  32.5699988 133.3971759 141.6324668  33.0497022
 140.4640012 141.2894997  35.2059988 140.1680012 141.1234997  34.3109988
 141.3960012 141.0694997  35.1949988 140.5494166 141.2370640  35.0820536
 134.5700012 141.6914997  19.6689988 135.1860012 142.3184997  20.0489988
 133.7080012 142.0074997  19.9409988 134.5377698 141.8199430  19.7577183
 140.2420012 144.4924997  24.6589988 140.0010012 145.4174997  24.6999988
 139.5010012 144.0334997  25.0549988 140.1088409 144.5571421  24.7181377
 144.3010012 144.7404997  30.6739988 143.8750012 144.5134997  31.5009988
 144.8810012 144.0024997  30.4919988 144.3211868 144.6095299  30.7625830
 135.0820012 136.5254997  32.5509988 134.1890012 136.8644997  32.4829988
 134.9830012 135.6704997  32.9689988 134.9464164 136.4562588  32.5982235
 135.9850012 143.6044997  21.1619988 135.2990012 143.9564997  21.7289988
 136.5070012 144.3674997  20.9149988 135.9616852 143.7558578  21.2062118
 143.8160012 136.2664997  31.4409988 144.5150012 136.3404997  32.0909988
 143.4350012 135.4024997  31.5949988 143.8601767 136.1597624  31.5508322
 144.6010012 135.9184997  22.5379988 144.8210012 136.3904997  21.7349988
 145.1590012 136.3134997  23.2079988 144.7064968 136.0364285  22.5187331
 141.8010012 137.6464997  23.3729988 142.6130012 138.1514997  23.4189988
 141.5560012 137.5014997  24.2869988 141.8790520 137.6960375  23.5028517
 142.3360012 138.6324997  32.5579988 142.4550012 139.2064997  33.3149988
 142.9920012 137.9444997  32.6719988 142.4409757 138.6181079  32.6770825
 142.6840012 134.7274997  24.3109988 142.3380012 135.3454997  24.9559988
 143.3430012 135.2284997  23.8299988 142.7257826 134.8795802  24.3340971
 138.3420012 135.7904997  20.9979988 138.2590012 136.6794997  21.3449988
 139.2320012 135.5254997  21.2299988 138.4509469 135.8761430  21.0767626
 134.9170012 138.8824997  19.1749988 134.8720012 139.8214997  19.3529988
 134.0290012 138.6464997  18.9049988 134.7908574 138.9791892  19.1628912
 135.7250012 133.6644997  27.8479988 135.4960012 133.7234997  26.9199988
 135.2820012 132.8724997  28.1539988 135.6338530 133.5655753  27.7624786
 133.8500012 144.0274997  36.2929988 133.9940012 143.1254997  36.0059988
 133.0780012 144.3134997  35.8049988 133.7653322 143.9428261  36.1877881
 138.1920012 144.3714997  18.4249988 138.2560012 143.5774997  18.9559988
 138.8450012 144.2524997  17.7349988 138.2890241 144.2467148  18.4044317
 140.5060012 143.9974997  35.7249988 140.1770012 144.2684997  34.8679988
 140.6580012 143.0564997  35.6379988 140.4814809 143.9073862  35.5958244
 134.6830012 141.2274997  35.7129988 135.0910012 140.3704997  35.5919988
 134.4230012 141.2424997  36.6339988 134.7037568 141.1120807  35.8209588
 139.3410012 142.3434997  20.7309988 138.8810012 141.8594997  21.4169988
 139.5960012 141.6754997  20.0949988 139.3124902 142.1868731  20.7389334
 138.6300012 140.2364997  33.0869988 138.0120012 140.9114997  33.3669988
 138.9740012 140.5574997  32.2539988 138.5919615 140.3722721  33.0126581
 140.4120012 140.5864997  18.9929988 140.2320012 140.4324997  18.0659988
 141.3620012 140.6944997  19.0379988 140.5157776 140.5800175  18.8721843
 143.6500012 142.7084997  36.3639988 144.6030012 142.7914997  36.3369988
 143.4890012 141.9964997  36.9839988 143.7586426 142.6236746  36.4440579
 138.9690012 137.5914997  34.1689988 139.1190012 136.8624997  33.5669988
 138.9720012 138.3684997  33.6099988 138.9899302 137.5967851  34.0110692
 139.3820012 135.9614997  31.6619988 139.9180012 136.4124997  31.0099988
 138.5300012 135.8534997  31.2389988 139.3402178 136.0086390  31.5155756
 140.9640012 141.4004997  31.9009988 141.7140012 141.2444997  31.3279988
 140.6250012 142.2524997  31.6259988 141.0208921 141.4942968  31.7853561
 137.4480012 138.7894997  36.0809988 136.6810012 138.2574997  35.8709988
 138.1270012 138.4794997  35.4809988 137.4347022 138.6747506  35.9711648
 140.1880012 133.4174997  32.0929988 140.0890012 134.3644997  31.9879988
 139.4450012 133.0454997  31.6179988 140.0740564 133.4965902  32.0144560
 141.4520012 137.7394997  35.6569988 141.2160012 137.5194997  36.5589988
 140.6680012 137.5324997  35.1469988 141.3138628 137.6814760  35.7113932
 144.1670012 136.8664997  34.7329988 143.2200012 136.8984997  34.8649988
 144.4800012 136.2414997  35.3859988 144.0795475 136.7863207  34.8394455
 135.6280012 136.7104997  35.7849988 135.8400012 136.0034997  35.1749988
 135.5170012 136.2724997  36.6289988 135.6419721 136.5547084  35.8156843
 140.4090012 132.7114997  34.7649988 141.1210012 132.0714997  34.7509988
 140.3080012 132.9784997  33.8509988 140.4927939 132.6599938  34.6395650
 140.7630012 134.3944997  36.8179988 140.6310012 133.9184997  35.9979988
 140.1640012 135.1384997  36.7629988 140.6639071 134.4299618  36.6982886
 133.4770012 142.4624997  28.8109988 133.6610012 142.3804997  27.8749988
 134.3260012 142.3384997  29.2349988 133.6170139 142.4345003  28.7401455
 133.0740012 137.7334997  34.9519988 133.9940012 137.6114997  35.1879988
 132.6250012 136.9834997  35.3409988 133.1391580 137.6153727  35.0369006
 134.2950012 136.0454997  27.8429988 134.7410012 135.2534997  28.1449988
 134.7620012 136.7614997  28.2739988 134.4190172 136.0340624  27.9424820
 132.5990012 139.0444997  28.9119988 133.0910012 138.8234997  28.1209988
 132.9620012 139.8854997  29.1929988 132.7153126 139.1278357  28.8417531
 132.9130012 135.3024997  22.9659988 131.9880012 135.5114997  22.8369988
 133.3670012 135.7864997  22.2769988 132.8477368 135.3965993  22.8551226
 132.8770012 134.0404997  31.3109988 132.2120012 133.7944997  31.9539988
 132.4340012 134.6624997  30.7329988 132.7260956 134.0908632  31.3209352
 143.0260012 134.9134997  27.3189988 142.3520012 134.2844997  27.5749988
 143.5900012 134.4294997  26.7159988 143.0099230 134.7618744  27.2725340
 135.3530012 133.5474997  25.1409988 134.5760012 133.3134997  24.6339988
 135.8830012 132.7504997  25.1499988 135.3182330 133.4076988  25.0727742
 134.1890012 133.3454997  20.9449988 134.6280012 133.9564997  20.3529988
 133.5560012 133.8834997  21.4189988 134.1634514 133.5019257  20.9280930
 139.9320012 133.4744997  24.9549988 140.8070012 133.8624997  24.9249988
 139.7960012 133.2594997  25.8769988 140.0333695 133.4985184  25.0756440
 136.0500012 135.2614997  19.3869988 136.5420012 134.6314997  18.8599988
 136.6740012 135.5574997  20.0509988 136.2015446 135.2153199  19.4045980
 141.0760012 135.5544997  21.8439988 141.2540012 134.9084997  22.5269988
 141.0230012 136.3884997  22.3119988 141.0931829 135.5787985  22.0005940
 135.3110012 134.0614997  34.6589988 134.9450012 133.2964997  35.1019988
 136.2240012 134.0904997  34.9459988 135.3842790 133.9607224  34.7584070
 137.2840012 133.4124997  36.1949988 138.1820012 133.1384997  36.0099988
 136.8970012 132.6694997  36.6589988 137.3546612 133.2745914  36.2323643
  12.4390012  10.7114997  43.9559988  12.5280012  11.6554997  43.8239988
  11.8010012  10.4364997  43.2979988  12.3649081  10.8034830  43.8489614
  11.3720012   9.9664997  47.3749988  11.3340012   9.3204997  48.0799988
  11.0500012   9.5004997  46.6039988  11.3232333   9.8149408  47.3672978
   3.7410012   9.5814997  48.9679988   3.7820012   8.9554997  49.6909988
   4.4440012  10.2054997  49.1499988   3.8416363   9.5801196  49.0916044
  15.0780012  12.9054997  45.6759988  14.6380012  12.1854997  46.1269988
  15.0650012  13.6264997  46.3059988  15.0160226  12.9043731  45.8228494
   4.6640012  14.0314997  47.5029988   4.2950012  13.2294997  47.1329988
   5.6050012  13.8624997  47.5489988   4.7407289  13.8990153  47.4586316
   1.2740012   7.6914997  42.8959988   0.8270012   8.5374997  42.8769988
   0.7130012   7.1114997  42.3799988   1.1369900   7.7289916  42.8236801
   1.9850012   9.8534997  45.0219988   2.1980012   9.0834997  45.5489988
   2.7230012   9.9424997  44.4179988   2.1138496   9.7601394  45.0125300
  12.1900012  18.0104997  45.8889988  12.8100012  17.3334997  45.6149988
  11.9820012  17.7924997  46.7969988  12.2466904  17.8883870  45.9743365
   9.7620012  12.3994997  47.7809988  10.0660012  11.7134997  47.1859988
  10.4830012  12.5174997  48.3989988   9.9010671  12.3216305  47.7831816
  18.4250012   4.0004997  48.6419988  18.4740012   4.6104997  49.3779988
  18.8500012   4.4614997  47.9189988  18.4891824   4.1463741  48.6450205
  12.9030012   6.7934997  48.1089988  13.0450012   5.8474997  48.1289988
  12.7960012   7.0004997  47.1799988  12.9079864   6.6919534  47.9862339
   6.0570012   4.8944997  45.3809988   6.1010012   5.7544997  44.9629988
   5.6000012   4.3424997  44.7469988   6.0012185   4.9375799  45.2380299
  13.7800012   5.0254997  43.7819988  14.4260012   4.6964997  44.4069988
  14.2900012   5.5434997  43.1589988  13.9374264   5.0504611  43.7833862
   2.6780012   7.2914997  46.1429988   3.3310012   6.7414997  46.5749988
   2.7020012   7.0174997  45.2259988   2.7706683   7.1791466  46.0782123
   7.8340012   8.8414997  45.3579988   8.4500012   8.3154997  45.8679988
   7.2480012   8.2014997  44.9549988   7.8390810   8.6829208  45.3733173
  18.8160012   5.4784997  50.8779988  18.1280012   6.1364997  50.7819988
  18.8320012   5.2814997  51.8139988  18.7238525   5.5420462  50.9914808
   4.8680012   3.8124997  49.4549988   4.6490012   4.3424997  48.6889988
   4.2000012   4.0394997  50.1019988   4.7477600   3.9156906  49.4376379
  12.2370012  13.3124997  42.9989988  11.9410012  12.9904997  42.1479988
  11.9120012  14.2124997  43.0399988  12.1526371  13.3900215  42.8881801
   7.4370012  11.4884997  49.7419988   6.6970012  12.0864997  49.8459988
   8.1510012  12.0424997  49.4269988   7.4322237  11.6452831  49.7136465
  15.5440012   4.3164997  45.7619988  15.3280012   3.5504997  46.2949988
  16.1990012   4.7884997  46.2749988  15.6030632   4.2755889  45.9042861
   4.4610012   5.7044997  47.4069988   5.0750012   6.3374997  47.7809988
   4.9730012   5.2324997  46.7509988   4.6142296   5.7272370  47.3694252
   5.8440012  13.4524997  50.5299988   5.8390012  14.3324997  50.1519988
   4.9910012  13.3694997  50.9549988   5.7279464  13.5616117  50.5357907
   1.9650012  13.1234997  41.3119988   1.6930012  13.3524997  40.4229988
   2.0110012  13.9614997  41.7719988   1.9340094  13.2681213  41.2525697
  15.5900012  14.7454997  48.0239988  14.6490012  14.8034997  48.1859988
  15.8670012  15.6514997  47.8869988  15.4984679  14.8759443  48.0276815
  15.8910012   3.0314997  49.4419988  15.1550012   3.6424997  49.4039988
  16.5740012   3.4464997  48.9149988  15.8826541   3.1711374  49.3655832
   8.8940012   1.1184997  46.9079988   8.7770012   0.1694997  46.8529988
   8.0390012   1.4504997  47.1809988   8.7623733   1.0335409  46.9373897
  13.8420012  16.5264997  44.6499988  14.2680012  15.8194997  44.1649988
  14.1590012  17.3274997  44.2329988  13.9431019  16.5380994  44.5273130
  15.0020012  14.4274997  43.1579988  14.7440012  13.7374997  42.5469988
  15.0730012  13.9844997  44.0039988  14.9762856  14.2732124  43.1886885
  16.6880012  12.9934997  51.6359988  16.8280012  12.4024997  50.8959988
  16.8550012  13.8664997  51.2789988  16.7296778  13.0306426  51.4866965
  11.1610012   9.9554997  41.4079988  10.4490012  10.4904997  41.0559988
  11.8520012  10.0114997  40.7479988  11.1570132  10.0362543  41.2706289
  11.2140012   8.4134997  38.4469988  11.9150012   8.4354997  39.0979988
  11.5170012   7.7854997  37.7909988  11.3507830   8.3316566  38.4473711
  18.5300012   9.3334997  49.7019988  17.8770012  10.0284997  49.7909988
  18.9950012   9.5434997  48.8919988  18.5035390   9.4569425  49.6046883
  14.5660012  10.1654997  42.3599988  13.8340012  10.3934997  42.9329988
  15.0140012   9.4514997  42.8149988  14.5263095  10.1002571  42.4999119
  14.4640012   8.3394997  51.4269988  14.5440012   9.1024997  51.9989988
  13.8620012   8.6184997  50.7369988  14.3935756   8.4817134  51.4120589
   6.2120012  10.7954997  44.2419988   5.8810012  10.4254997  43.4239988
   6.8000012  10.1254997  44.5889988   6.2461873  10.6541156  44.1768102
   7.5780012  14.2234997  46.9239988   7.4840012  13.6454997  46.1669988
   8.3080012  13.8524997  47.4199988   7.6637981  14.0942390  46.8874165
   6.5780012   9.5644997  47.8759988   7.1440012   9.6854997  47.1129988
   6.8970012  10.2014997  48.5149988   6.6985786   9.6671884  47.8580040
  12.8870012  15.0674997  48.6099988  12.6470012  15.7294997  49.2579988
  12.6890012  14.2334997  49.0349988  12.8273808  15.0453134  48.7561524
   7.4580012  13.9634997  52.5929988   7.1470012  14.7454997  53.0479988
   6.8080012  13.8104997  51.9069988   7.3275558  14.0499105  52.5625871
  13.4370012   9.3274997  40.0449988  14.0170012   9.4774997  40.7919988
  13.8510012   9.7984997  39.3219988  13.5722830   9.4116841  40.0494134
   4.3780012  10.1614997  51.8219988   4.4490012  10.8124997  52.5199988
   3.4880012  10.2644997  51.4869988   4.2673117  10.2645936  51.8722700
  11.1640012  16.0644997  43.4799988  11.6380012  16.3594997  44.2579988
  10.6010012  16.8024997  43.2469988  11.1527653  16.2046932  43.5550136
   5.6980012  16.0354997  53.3559988   5.7050012  15.8994997  52.4089988
   4.7820012  15.9174997  53.6079988   5.5751714  16.0009430  53.2604666
  17.1360012   1.0774997  39.8579988  16.2360012   1.2164997  40.1529988
  17.3880012   1.9084997  39.4559988  17.0468702   1.2089074  39.8440205
   5.2020012   9.8654997  41.8319988   4.9100012  10.6334997  41.3409988
   4.5280012   9.2054997  41.6689988   5.0709081   9.8814406  41.7427340
  18.3250012  15.4434997  38.2339988  18.3990012  16.3824997  38.4049988
  19.2310012  15.1384997  38.1779988  18.4575100  15.5306722  38.2498119
   1.2950012  12.2284997  50.6469988   0.7940012  12.2004997  49.8319988
   1.3000012  11.3224997  50.9559988   1.2271526  12.1022278  50.5772872
   1.0450012  15.0084997  47.5309988   1.9910012  14.8644997  47.5119988
   0.9330012  15.7924997  48.0679988   1.1592727  15.0948046  47.6010072
  19.2430012  15.6744997  53.2129988  19.1940012  14.7194997  53.1759988
  18.4160012  15.9424997  53.6139988  19.1244940  15.5798998  53.2621375
  10.2220012  15.2484997  52.0889988  10.3090012  16.0744997  52.5639988
   9.3580012  14.9184997  52.3379988  10.1171964  15.3169878  52.1876549
  10.6360012  19.0204997  41.8949988  10.5610012  18.8994997  40.9489988
  10.6690012  19.9704997  42.0139988  10.6301848  19.1322500  41.7814834
   4.2890012  17.8094997  43.6759988   4.4420012  17.4614997  44.5549988
   3.4390012  17.4534997  43.4209988   4.1948962  17.7136650  43.7618340
  13.7380012  18.1744997  38.8969988  14.1130012  17.4304997  38.4269988
  13.7420012  17.9044997  39.8159988  13.7898915  18.0361486  38.9567824
  13.4070012  18.1004997  41.6469988  12.4710012  18.2004997  41.8249988
  13.6870012  17.3914997  42.2249988  13.3168255  18.0182711  41.7495391
  16.3950012   7.1674997  53.6929988  15.9880012   7.6484997  52.9719988
  16.4360012   6.2624997  53.3849988  16.3448437   7.1109374  53.5526683
   3.5440012  13.5514997  51.6899988   3.7600012  13.1904997  52.5489988
   2.6890012  13.1774997  51.4799988   3.4579292  13.4514111  51.7793386
   6.1630012   2.0214997  47.6849988   5.3010012   1.9344997  47.2779988
   6.1400012   2.8774997  48.1129988   6.0420330   2.1252765  47.6871863
  10.8260012   1.7434997  51.0599988  11.2460012   1.3284997  51.8129988
   9.8930012   1.5654997  51.1769988  10.7573644   1.6625900  51.1789539
  14.1520012   5.4994997  51.9129988  13.6380012   5.3734997  52.7109988
  13.9970012   6.4114997  51.6689988  14.0606852   5.6056132  51.9892158
  14.9150012  10.3604997  37.6749988  14.9570012  10.1374997  36.7449988
  15.7640012  10.7594997  37.8649988  15.0355396  10.3839155  37.5733627
  10.4870012   4.2364997  38.3449988  10.2340012   4.2554997  39.2679988
  10.2310012   3.3644997  38.0439988  10.4177790   4.1212437  38.4306263
   6.2540012   6.9874997  48.7799988   5.6120012   6.9464997  49.4889988
   6.2910012   7.9134997  48.5429988   6.1711324   7.1071559  48.8449824
   6.2510012   7.2084997  43.6919988   5.3580012   6.8674997  43.6339988
   6.7010012   6.8314997  42.9369988   6.1897305   7.1108484  43.5819177
  11.7860012   7.6244997  42.5089988  11.3770012   8.4394997  42.2179988
  12.5070012   7.4844997  41.8949988  11.8274537   7.7172018  42.3861342
  10.8880012   7.7994997  53.9969988  10.3260012   7.0954997  54.3179988
  11.7150012   7.6794997  54.4649988  10.9227095   7.6867883  54.1042330
  12.7910012   7.0704997  45.3229988  12.5960012   7.6754997  44.6079988
  12.9720012   6.2364997  44.8889988  12.7887614   7.0406300  45.1664405
   4.0040012   7.3074997  50.6469988   3.9660012   7.7074997  51.5159988
   3.5130012   6.4904997  50.7379988   3.9324684   7.2518069  50.7781059
   7.3700012   4.6814997  37.4459988   6.9390012   4.2364997  38.1759988
   6.6520012   5.0534997  36.9339988   7.2139438   4.6708940  37.4766799
   0.6120012   4.4234997  44.4979988   1.2430012   4.3944997  45.2169988
   1.0610012   3.9984997  43.7679988   0.7590774   4.3620492  44.4976553
   1.8860012   5.1694997  39.9219988   2.3600012   5.7604997  39.3369988
   1.1690012   5.7004997  40.2689988   1.8539341   5.3220867  39.8888836
  12.0550012   8.7084997  49.9949988  12.3780012   8.0774997  49.3519988
  11.6150012   8.1734997  50.6549988  12.0396895   8.5498441  49.9962850
   8.8320012   4.6354997  44.7789988   7.9210012   4.6924997  45.0669988
   9.3380012   4.5754997  45.5889988   8.7755413   4.6351985  44.9280622
   3.6610012   6.2644997  43.6049988   2.7710012   6.3644997  43.2649988
   3.9570012   5.4224997  43.2589988   3.5792823   6.1643545  43.5117213
   7.3140012   6.2644997  41.2619988   8.2450012   6.3934997  41.4399988
   7.0990012   6.9344997  40.6119988   7.4124247   6.3726565  41.1985747
  13.2370012   3.8704997  48.0429988  12.5610012   4.0014997  48.7069988
  12.7520012   3.7154997  47.2329988  13.0787145   3.8674905  48.0244517
   5.9880012   7.4594997  38.8289988   5.4450012   7.0794997  38.1369988
   6.8210012   7.6534997  38.3999988   6.0264399   7.4338124  38.6764526
  16.5250012  19.5424997  54.3199988  16.7250012  19.9664997  53.4849988
  17.1800012  19.8854997  54.9269988  16.6410051  19.6469648  54.2877836
   4.1230012  12.0164997  53.9279988   4.8550012  12.2704997  54.4889988
   3.3430012  12.2204997  54.4429988   4.1178232  12.0789177  54.0745760
  10.1520012   7.4234997  46.6659988  10.7170012   6.8764997  46.1189988
  10.0050012   6.9014997  47.4539988  10.2092918   7.2782024  46.6978454
   5.1540012   3.5594997  43.0839988   4.8370012   2.6574997  43.0489988
   5.9360012   3.5614997  42.5309988   5.2162284   3.4361628  43.0044783
   8.7790012   5.8114997  49.0799988   7.9430012   6.2654997  49.1899988
   9.3030012   6.0874997  49.8319988   8.7354414   5.9109376  49.1967136
   9.3230012  12.0244997  40.7639988   8.5780012  11.5174997  40.4419988
   9.1890012  12.0734997  41.7109988   9.2028776  11.9616940  40.8478647
  16.4730012  11.1574997  49.5509988  17.1150012  11.6144997  49.0069988
  15.6430012  11.2704997  49.0879988  16.4485963  11.2352704  49.4140177
  13.2210012   4.8384997  38.9639988  12.2820012   4.9504997  38.8119988
  13.5180012   5.6954997  39.2699988  13.1327666   4.9696443  38.9845768
  10.8420012  12.2084997  52.0009988  10.4970012  11.8274997  52.8079988
  10.6420012  13.1424997  52.0729988  10.7678061  12.2825228  52.1210961
  13.9390012   6.7054997  40.6239988  14.8310012   6.5684997  40.9429988
  13.9960012   7.4964997  40.0879988  14.0686285   6.7936660  40.5951691
   4.4480012  11.3194997  46.5339988   5.1930012  11.3174997  45.9329988
   4.5260012  10.4964997  47.0159988   4.5605518  11.2079315  46.5168929
  11.4490012  13.4834997  39.7899988  11.1530012  14.3094997  40.1709988
  10.7460012  12.8634997  39.9859988  11.3134914  13.5128199  39.8686443
   1.4560012   9.7804997  51.8489988   1.6790012   9.3624997  52.6809988
   0.8540012   9.1674997  51.4259988   1.4051759   9.6404668  51.9057022
   8.4720012   9.2974997  54.0619988   8.1760012   9.1314997  53.1669988
   9.4040012   9.0774997  54.0509988   8.5574166   9.2450640  53.9380536
  13.0930012  14.6704997  51.9519988  12.1920012  14.8534997  51.6839988
  13.1270012  14.9294997  52.8729988  12.9743041  14.7305512  52.0398197
  18.8240012   6.9154997  40.3189988  18.2700012   6.5194997  39.6469988
  18.9240012   7.8254997  40.0409988  18.7617059   6.9843586  40.1894401
  18.7870012  12.7154997  53.1559988  17.9360012  12.9534997  52.7889988
  19.3780012  12.6984997  52.4029988  18.7502487  12.7458258  53.0038893
  17.1190012  15.7014997  40.7839988  16.7460012  14.8754997  41.0929988
  17.3970012  15.5184997  39.8869988  17.1055630  15.5637303  40.7049626
  14.2800012  10.5094997  47.8049988  13.3510012  10.2774997  47.7779988
  14.7310012   9.7324997  47.4749988  14.2139216  10.3727238  47.7566917
   6.8230012  14.8374997  43.9379988   7.3500012  15.6104997  43.7379988
   5.9430012  15.0624997  43.6369988   6.7761773  14.9738005  43.8699010
   2.5780012   9.6994997  38.5249988   3.1940012  10.3264997  38.9049988
   1.7160012  10.0154997  38.7969988   2.5457698   9.8279430  38.6137183
   8.2500012  12.5004997  43.5149988   8.0090012  13.4254997  43.5559988
   7.5090012  12.0414997  43.9109988   8.1168409  12.5651421  43.5741377
   8.7650012  16.6494997  49.8299988   9.1270012  17.5044997  49.5959988
   9.2960012  16.3574997  50.5699988   8.8864473  16.7271060  49.8980855
   6.9330012  17.5224997  43.0599988   5.9830012  17.6274997  43.1109988
   7.2850012  18.3424997  43.4049988   6.8504203  17.6478314  43.1136650
  12.3090012  12.7484997  49.5299988  11.8830012  12.5214997  50.3569988
  12.8890012  12.0104997  49.3479988  12.3291868  12.6175299  49.6185830
  14.5120012  13.6774997  38.6039988  14.8650012  13.2974997  39.4089988
  13.5630012  13.5844997  38.6909988  14.4320441  13.6129596  38.7258559
  14.9670012  17.3004997  51.9999988  14.3660012  16.7454997  51.5039988
  15.2490012  17.9674997  51.3739988  14.9228519  17.3146841  51.8474952
  19.0150012  18.1574997  38.8049988  19.7590012  18.7434997  38.6649988
  18.3210012  18.7254997  39.1389988  19.0230292  18.3145582  38.8309961
   3.0900012   4.5334997  51.4069988   2.1970012   4.8724997  51.3389988
   2.9910012   3.6784997  51.8249988   2.9544164   4.4642588  51.4542235
  15.3780012  12.3504997  40.8309988  15.1000012  11.6224997  41.3869988
  16.3050012  12.4694997  41.0359988  15.4653124  12.2668802  40.9348845
   2.7410012  16.3384997  49.8419988   2.9580012  15.4064997  49.8109988
   2.9870012  16.6124997  50.7249988   2.8039549  16.2480636  49.9571763
   8.6030012  14.7894997  37.0509988   8.8420012  14.0414997  36.5039988
   8.3340012  14.4014997  37.8839988   8.5993675  14.6346638  37.0886865
   7.5400012  14.3594997  39.5079988   7.6860012  13.8394997  40.2979988
   7.5370012  15.2664997  39.8139988   7.5595989  14.4108853  39.6576088
   3.9930012  11.6124997  40.0179988   3.3070012  11.9644997  40.5849988
   4.5150012  12.3754997  39.7709988   3.9696852  11.7638578  40.0622118
  11.8240012   4.2744997  50.2969988  12.5230012   4.3484997  50.9469988
  11.4430012   3.4104997  50.4509988  11.8681767   4.1677624  50.4068322
  12.6090012   3.9264997  41.3939988  12.8290012   4.3984997  40.5909988
  13.1670012   4.3214997  42.0639988  12.7144968   4.0444285  41.3747331
  10.2770012  16.0574997  40.2569988   9.4610012  16.5544997  40.3089988
  10.8070012  16.5324997  39.6169988  10.2369161  16.1897722  40.1775956
   9.8090012   5.6544997  42.2289988  10.6210012   6.1594997  42.2749988
   9.5640012   5.5094997  43.1429988   9.8870520   5.7040375  42.3588517
  10.3440012   6.6404997  51.4139988  10.4630012   7.2144997  52.1709988
  11.0000012   5.9524997  51.5279988  10.4489757   6.6261079  51.5330825
  10.6920012   2.7354997  43.1669988  10.3460012   3.3534997  43.8119988
  11.3510012   3.2364997  42.6859988  10.7337826   2.8875802  43.1900971
   7.6160012  17.1014997  40.2389988   7.7760012  17.9004997  39.7379988
   7.4180012  17.4074997  41.1239988   7.6111649  17.2524469  40.2899815
   6.3500012   3.7984997  39.8539988   6.2670012   4.6874997  40.2009988
   7.2400012   3.5334997  40.0859988   6.4589469   3.8841430  39.9327626
  16.5490012   4.5474997  52.2489988  15.6320012   4.8104997  52.1609988
  16.8840012   4.5444997  51.3519988  16.4689900   4.5830224  52.1157919
  15.1510012   8.2984997  46.3439988  14.3530012   7.8834997  46.0159988
  15.5960012   7.6074997  46.8349988  15.1019885   8.1483543  46.3654889
   4.6090012  14.2264997  38.9149988   5.2010012  14.9254997  39.1909988
   5.0680012  13.7934997  38.1949988   4.7521142  14.2637049  38.8554830
   2.9250012   6.8904997  38.0309988   2.8800012   7.8294997  38.2089988
   2.0370012   6.6544997  37.7609988   2.7988574   6.9871892  38.0188912
  16.2370012  17.5544997  47.9669988  16.0820012  18.2324997  47.3099988
  17.1700012  17.6264997  48.1699988  16.3418500  17.6570170  47.9045119
   3.7330012   1.6724997  46.7039988   3.5040012   1.7314997  45.7759988
   3.2900012   0.8804997  47.0099988   3.6418530   1.5735753  46.6184786
   2.6630012  15.6124997  42.8639988   1.8310012  16.0854997  42.8919988
   3.2090012  16.1224997  42.2659988   2.6229739  15.7461871  42.7869716
   1.9510012  18.2254997  54.1939988   2.4920012  18.0084997  54.9539988
   1.4700012  17.4194997  54.0049988   1.9599345  18.0869514  54.2723076
   6.5490012  17.1444997  55.8149988   7.3160012  16.6854997  56.1559988
   6.5270012  16.9184997  54.8849988   6.6511434  17.0510409  55.7360043
  10.6410012  16.6524997  37.1899988   9.9970012  16.0214997  37.5109988
  11.4030012  16.1214997  36.9579988  10.6558077  16.4942920  37.2026011
  13.1260012  15.5244997  54.5439988  12.7750012  14.6684997  54.7869988
  13.8520012  15.6674997  55.1509988  13.1760769  15.4265636  54.6593619
  15.2450012  16.4694997  37.4239988  15.5280012  15.6754997  37.8759988
  15.9850012  16.7024997  36.8629988  15.3837486  16.3922803  37.4100698
   1.8580012  12.0354997  55.1489988   2.0020012  11.1334997  54.8619988
   1.0860012  12.3214997  54.6609988   1.7733322  11.9508261  55.0437881
   6.2000012  12.3794997  37.2809988   6.2640012  11.5854997  37.8119988
   6.8530012  12.2604997  36.5909988   6.2970241  12.2547148  37.2604317
   8.5140012  12.0054997  54.5809988   8.1850012  12.2764997  53.7239988
   8.6660012  11.0644997  54.4939988   8.4894809  11.9153862  54.4518244
  11.5520012  13.4264997  37.0169988  11.2830012  13.6064997  37.9179988
  11.3460012  12.5004997  36.8859988  11.4873825  13.3260152  37.1225214
  14.2480012  11.9214997  51.9649988  14.9940012  12.5094997  51.8449988
  13.4910012  12.5034997  52.0279988  14.2477554  12.0807011  51.9570907
   2.6910012   9.2354997  54.5689988   3.0990012   8.3784997  54.4479988
   2.4310012   9.2504997  55.4899988   2.7117568   9.1200807  54.6769588
   7.3490012  10.3514997  39.5869988   6.8890012   9.8674997  40.2729988
   7.6040012   9.6834997  38.9509988   7.3204902  10.1948731  39.5949334
   6.6380012   8.2444997  51.9429988   6.0200012   8.9194997  52.2229988
   6.9820012   8.5654997  51.1099988   6.5999615   8.3802721  51.8686581
   8.4200012   8.5944997  37.8489988   8.2400012   8.4404997  36.9219988
   9.3700012   8.7024997  37.8939988   8.5237776   8.5880175  37.7281843
  11.6580012  10.7164997  55.2199988  12.6110012  10.7994997  55.1929988
  11.4970012  10.0044997  55.8399988  11.7666426  10.6316746  55.3000579
  17.8100012  10.9494997  37.2949988  17.5360012  10.5244997  36.4819988
  17.8490012  11.8804997  37.0779988  17.7777699  11.0172484  37.1543610
   6.9770012   5.5994997  53.0249988   7.1270012   4.8704997  52.4229988
   6.9800012   6.3764997  52.4659988   6.9979302   5.6047851  52.8670692
   7.3900012   3.9694997  50.5179988   7.9260012   4.4204997  49.8659988
   6.5380012   3.8614997  50.0949988   7.3482178   4.0166390  50.3715756
   8.9720012   9.4084997  50.7569988   9.7220012   9.2524997  50.1839988
   8.6330012  10.2604997  50.4819988   9.0288921   9.5022968  50.6413561
  13.3870012   7.2234997  55.7859988  13.5800012   6.2924997  55.6739988
  14.2450012   7.6484997  55.7759988  13.5293020   7.1536389  55.7693361
  14.7040012  10.0124997  53.8629988  14.4230012  10.7214997  53.2859988
  15.6470012   9.9394997  53.7119988  14.7929027  10.0997646  53.7635551
   5.4560012   6.7974997  54.9369988   4.6890012   6.2654997  54.7269988
   6.1350012   6.4874997  54.3369988   5.4427022   6.6827506  54.8271648
   8.1960012   1.4254997  50.9489988   8.0970012   2.3724997  50.8439988
   7.4530012   1.0534997  50.4739988   8.0820564   1.5045902  50.8704560
   9.4600012   5.7474997  54.5129988   9.2240012   5.5274997  55.4149988
   8.6760012   5.5404997  54.0029988   9.3218628   5.6894760  54.5673932
  12.1750012   4.8744997  53.5889988  11.2280012   4.9064997  53.7209988
  12.4880012   4.2494997  54.2419988  12.0875475   4.7943207  53.6954455
  13.8090012   3.5084997  55.5939988  13.7130012   2.5564997  55.5879988
  13.4880012   3.7774997  56.4539988  13.7524070   3.4144035  55.7095441
   3.6360012   4.7184997  54.6409988   3.8480012   4.0114997  54.0309988
   3.5250012   4.2804997  55.4849988   3.6499721   4.5627084  54.6716843
   8.4170012   0.7194997  53.6209988   9.1290012   0.0794997  53.6069988
   8.3160012   0.9864997  52.7069988   8.5007939   0.6679938  53.4955650
   8.7710012   2.4024997  55.6739988   8.6390012   1.9264997  54.8539988
   8.1720012   3.1464997  55.6189988   8.6719071   2.4379618  55.5542886
   8.3170012  19.2854997  38.8509988   9.2500012  19.4434997  38.9939988
   8.0530012  19.9604997  38.2259988   8.4089510  19.3983611  38.7860741
   1.8860012  13.9214997  38.3329988   2.8000012  14.0004997  38.6069988
   1.8930012  13.2344997  37.6669988   2.0121131  13.8393961  38.2804393
   0.5350012  19.3144997  43.4109988  -0.1119988  18.8524997  42.8779988
   0.8890012  18.6424997  43.9929988   0.4943849  19.1604723  43.4167959
   1.4050012  17.3954997  45.2149988   1.0700012  16.5154997  45.3869988
   1.6270012  17.7404997  46.0799988   1.3891783  17.3217501  45.3554208
  18.9530012  18.2044997  48.1959988  18.9320012  18.3894997  49.1349988
  19.6440012  18.7734997  47.8549988  19.0434618  18.3066606  48.2783864
  18.5170012  17.7724997  51.1179988  18.0290012  17.0364997  50.7469988
  19.0660012  17.3784997  51.7959988  18.5244872  17.6186249  51.1589160
  16.9670012  13.5614997  55.7559988  16.1010012  13.4564997  56.1499988
  17.3440012  14.3204997  56.2019988  16.8993308  13.6496900  55.8702393
  18.2680012  11.8184997  41.2699988  19.1180012  12.2394997  41.3969988
  18.2740012  11.0784997  41.8769988  18.3851372  11.7760803  41.3694344
  18.6630012   9.8714997  43.0939988  17.9360012   9.3924997  43.4909988
  19.2440012  10.0774997  43.8259988  18.6419375   9.8337090  43.2474129
  18.4220012  12.6564997  48.0409988  19.2550012  12.2784997  47.7609988
  18.5340012  13.5994997  47.9219988  18.5512647  12.7322218  47.9865487
  16.9080012  15.5344997  50.3479988  16.2610012  15.8594997  50.9739988
  16.3910012  15.0944997  49.6739988  16.7494029  15.5195004  50.3425827
  18.9310012   9.7724997  39.4849988  18.4090012  10.1294997  38.7659988
  18.8980012  10.4474997  40.1629988  18.8551634   9.9125413  39.4783145
  17.2800012   7.0124997  38.0359988  17.3760012   7.6794997  37.3549988
  17.1400012   6.1964997  37.5539988  17.2742135   6.9934500  37.8778491
  16.4490012   8.3924997  43.6569988  16.2990012   7.4474997  43.6359988
  16.0960012   8.6734997  44.4999988  16.3806625   8.3010441  43.7682346
   1.4850012  10.4704997  47.6669988   1.6690012  10.3884997  46.7309988
   2.3340012  10.3464997  48.0909988   1.6250139  10.4425003  47.5961455
  17.3060012  10.3624997  53.2949988  17.8890012   9.6284997  53.4869988
  17.8700012  11.1344997  53.3419988  17.4619769  10.3664227  53.3276159
  18.8020012   8.2654997  53.9799988  17.9390012   7.8864997  53.8139988
  19.4070012   7.5264997  53.9059988  18.7655979   8.1138023  53.9472817
  16.5270012   4.4204997  37.1529988  17.1380012   4.0494997  37.7899988
  15.6910012   3.9994997  37.3489988  16.4975032   4.3127554  37.2667035
  16.1600012   5.9754997  42.1189988  16.4400012   5.0684997  42.2429988
  16.9190012   6.4094997  41.7299988  16.3009277   5.9100942  42.0833682
  16.7720012   6.5564997  47.5549988  17.7050012   6.7684997  47.5209988
  16.5370012   6.6584997  48.4769988  16.8678036   6.5992769  47.6749976
  16.8010012   7.2934997  50.3309988  15.9580012   7.5614997  50.6969988
  17.2430012   8.1154997  50.1199988  16.7454158   7.4413291  50.3525491
   1.0820012   5.7414997  53.8079988   2.0020012   5.6194997  54.0439988
   0.6330012   4.9914997  54.1969988   1.1471580   5.6233727  53.8929006
  19.0840012   1.2734997  55.6839988  19.4340012   0.6194997  55.0789988
  19.2310012   2.1104997  55.2449988  19.1518419   1.2971591  55.5417118
  16.7730012   3.2384997  42.1669988  16.9560012   2.7894997  42.9929988
  16.1740012   2.6534997  41.7039988  16.7170202   3.0979975  42.2173275
   2.3030012   4.0534997  46.6989988   2.7490012   3.2614997  47.0009988
   2.7700012   4.7694997  47.1299988   2.4270172   4.0420624  46.7984820
   0.6070012   7.0524997  47.7679988   1.0990012   6.8314997  46.9769988
   0.9700012   7.8934997  48.0489988   0.7233126   7.1358357  47.6977531
  18.6040012   3.3824997  54.0339988  17.6860012   3.6534997  53.9979988
  18.7270012   2.8474997  53.2489988  18.4951066   3.3472892  53.9230487
  18.6400012   3.3054997  38.6949988  19.0520012   2.5844997  38.2199988
  19.3220012   3.9754997  38.7539988  18.7885885   3.2972368  38.6378915
   0.9210012   3.3104997  41.8219988  -0.0039988   3.5194997  41.6929988
   1.3750012   3.7944997  41.1329988   0.8557368   3.4045993  41.7111226
  15.6920012  18.2944997  43.7679988  16.3440012  17.9474997  43.1599988
  16.2020012  18.7834997  44.4139988  15.8502637  18.3130597  43.7720236
   0.8850012   2.0484997  50.1669988   0.2200012   1.8024997  50.8099988
   0.4420012   2.6704997  49.5889988   0.7340956   2.0988632  50.1769352
   3.0770012  15.2234997  54.3109988   2.2560012  15.3984997  53.8509988
   2.8240012  15.1504997  55.2319988   2.9306164  15.2375622  54.3724923
   6.0310012  16.1984997  50.5699988   5.6060012  17.0074997  50.2869988
   6.9350012  16.2834997  50.2679988   6.0950271  16.3208469  50.4903776
  10.3420012  17.5974997  53.5289988  10.5270012  17.2634997  54.4069988
  11.1880012  17.9064997  53.2069988  10.4817539  17.5936047  53.6055605
  12.6870012  18.8834997  52.7729988  13.3640012  18.2504997  52.5329988
  13.0090012  19.2844997  53.5799988  12.8231637  18.8511154  52.8492793
  17.6040012   1.4724997  51.8529988  16.7920012   1.7974997  51.4649988
  17.8370012   0.7124997  51.3199988  17.5243423   1.4142436  51.7278253
   3.4330012  19.4544997  50.6169988   2.7120012  19.8944997  50.1659988
   3.0670012  19.2034997  51.4659988   3.2849804  19.4807698  50.6699840
   5.9000012  19.0544997  49.6469988   5.0350012  19.1264997  50.0509988
   5.8450012  19.6014997  48.8629988   5.7742085  19.1382685  49.5963362
  10.6100012  18.9424997  48.8219988  10.1540012  19.4714997  48.1679988
  10.7730012  19.5454997  49.5479988  10.5695585  19.0964468  48.8305062
  12.9380012  17.8204997  49.7669988  12.0330012  17.9854997  49.5019988
  13.3670012  18.6734997  49.7019988  12.8720799  17.9584483  49.7219182
  15.5420012  19.3904997  50.0619988  15.3600012  20.3064997  49.8519988
  15.7190012  18.9804997  49.2159988  15.5410210  19.4604822  49.9187885
   2.8470012  18.0774997  47.5269988   2.8290012  17.6524997  48.3849988
   3.6520012  17.7594997  47.1189988   2.9533875  17.9763812  47.5891655
   4.9890012  16.7874997  46.1819988   4.7700012  15.8714997  46.3519988
   5.8130012  16.9274997  46.6479988   5.0704420  16.6810520  46.2682774
   7.5260012  17.2574997  47.0309988   7.7390012  16.3694997  46.7439988
   7.5900012  17.2234997  47.9849988   7.5638232  17.1313102  47.1207397
  11.0340012   2.9214997  46.1749988  10.3600012   2.2924997  46.4309988
  11.5980012   2.4374997  45.5719988  11.0179230   2.7698744  46.1285340
  16.1770012   1.0294997  46.2879988  16.7810012   1.5764997  45.7859988
  15.3070012   1.3484997  46.0479988  16.1421241   1.1475806  46.1867654
  17.9040012   2.1674997  44.6209988  18.5160012   1.6534997  44.0949988
  18.2860012   3.0454997  44.6449988  18.0394540   2.2157140  44.5521830
   3.3610012   1.5554997  43.9969988   2.5840012   1.3214997  43.4899988
   3.8910012   0.7584997  44.0059988   3.3262330   1.4156988  43.9287742
   2.1970012   1.3534997  39.8009988   2.6360012   1.9644997  39.2089988
   1.5640012   1.8914997  40.2749988   2.1714514   1.5099257  39.7840930
   7.9400012   1.4824997  43.8109988   8.8150012   1.8704997  43.7809988
   7.8040012   1.2674997  44.7329988   8.0413695   1.5065184  43.9316440
  13.4970012   1.5124997  45.4599988  13.5730012   1.6074997  44.5099988
  13.2220012   0.6044997  45.5889988  13.4702321   1.4027867  45.3475079
  14.8500012   1.5384997  41.1519988  14.1480012   2.1534997  40.9429988
  14.4060012   0.7004997  41.2829988  14.6936330   1.5095783  41.1410328
   2.0980012  17.3014997  40.6989988   1.4130012  17.2634997  40.0309988
   2.1020012  18.2144997  40.9869988   2.0048193  17.4197016  40.6465284
   4.0580012   3.2694997  38.2429988   4.5500012   2.6394997  37.7159988
   4.6820012   3.5654997  38.9069988   4.2095446   3.2233199  38.2605980
   9.0840012   3.5624997  40.6999988   9.2620012   2.9164997  41.3829988
   9.0310012   4.3964997  41.1679988   9.1011829   3.5867985  40.8565940
  10.9630012  18.5114997  39.0959988  11.8290012  18.8774997  38.9179988
  10.7160012  18.0714997  38.2819988  11.0482392  18.5021756  38.9616289
  17.6720012  18.0744997  41.7749988  17.4770012  17.3264997  41.2099988
  17.6330012  18.8324997  41.1919988  17.6400380  18.0746099  41.6188384
   3.3190012   2.0694997  53.5149988   2.9530012   1.3044997  53.9579988
   4.2320012   2.0984997  53.8019988   3.3922790   1.9687224  53.6144070
   5.2920012   1.4204997  55.0509988   6.1900012   1.1464997  54.8659988
   4.9050012   0.6774997  55.5149988   5.3626612   1.2825914  55.0883643
   3.9160012  18.2214997  37.7239988   3.6490012  18.5084997  38.5969988
   4.6880012  17.6754997  37.8759988   3.9837488  18.1870294  37.8641050
  13.7130012   0.7524997  55.2329988  13.7900012   0.3264997  56.0869988
  14.6070012   0.7664997  54.8899988  13.8443428   0.6960880  55.3035310
  16.8890012  16.8254997  53.9249988  16.1070012  16.6394997  53.4059988
  16.8170012  17.7544997  54.1429988  16.7721777  16.9256492  53.8834048
  31.2950012  10.7114997  43.9559988  31.3840012  11.6554997  43.8239988
  30.6570012  10.4364997  43.2979988  31.2209081  10.8034830  43.8489614
  30.2280012   9.9664997  47.3749988  30.1900012   9.3204997  48.0799988
  29.9060012   9.5004997  46.6039988  30.1792333   9.8149408  47.3672978
  22.5970012   9.5814997  48.9679988  22.6380012   8.9554997  49.6909988
  23.3000012  10.2054997  49.1499988  22.6976363   9.5801196  49.0916044
  33.9340012  12.9054997  45.6759988  33.4940012  12.1854997  46.1269988
  33.9210012  13.6264997  46.3059988  33.8720226  12.9043731  45.8228494
  23.5200012  14.0314997  47.5029988  23.1510012  13.2294997  47.1329988
  24.4610012  13.8624997  47.5489988  23.5967289  13.8990153  47.4586316
  20.1300012   7.6914997  42.8959988  19.6830012   8.5374997  42.8769988
  19.5690012   7.1114997  42.3799988  19.9929900   7.7289916  42.8236801
  20.8410012   9.8534997  45.0219988  21.0540012   9.0834997  45.5489988
  21.5790012   9.9424997  44.4179988  20.9698496   9.7601394  45.0125300
  31.0460012  18.0104997  45.8889988  31.6660012  17.3334997  45.6149988
  30.8380012  17.7924997  46.7969988  31.1026904  17.8883870  45.9743365
  28.6180012  12.3994997  47.7809988  28.9220012  11.7134997  47.1859988
  29.3390012  12.5174997  48.3989988  28.7570671  12.3216305  47.7831816
  37.2810012   4.0004997  48.6419988  37.3300012   4.6104997  49.3779988
  37.7060012   4.4614997  47.9189988  37.3451824   4.1463741  48.6450205
  31.7590012   6.7934997  48.1089988  31.9010012   5.8474997  48.1289988
  31.6520012   7.0004997  47.1799988  31.7639864   6.6919534  47.9862339
  24.9130012   4.8944997  45.3809988  24.9570012   5.7544997  44.9629988
  24.4560012   4.3424997  44.7469988  24.8572185   4.9375799  45.2380299
  32.6360012   5.0254997  43.7819988  33.2820012   4.6964997  44.4069988
  33.1460012   5.5434997  43.1589988  32.7934264   5.0504611  43.7833862
  21.5340012   7.2914997  46.1429988  22.1870012   6.7414997  46.5749988
  21.5580012   7.0174997  45.2259988  21.6266683   7.1791466  46.0782123
  26.6900012   8.8414997  45.3579988  27.3060012   8.3154997  45.8679988
  26.1040012   8.2014997  44.9549988  26.6950810   8.6829208  45.3733173
  37.6720012   5.4784997  50.8779988  36.9840012   6.1364997  50.7819988
  37.6880012   5.2814997  51.8139988  37.5798525   5.5420462  50.9914808
  23.7240012   3.8124997  49.4549988  23.5050012   4.3424997  48.6889988
  23.0560012   4.0394997  50.1019988  23.6037600   3.9156906  49.4376379
  31.0930012  13.3124997  42.9989988  30.7970012  12.9904997  42.1479988
  30.7680012  14.2124997  43.0399988  31.0086371  13.3900215  42.8881801
  26.2930012  11.4884997  49.7419988  25.5530012  12.0864997  49.8459988
  27.0070012  12.0424997  49.4269988  26.2882237  11.6452831  49.7136465
  34.4000012   4.3164997  45.7619988  34.1840012   3.5504997  46.2949988
  35.0550012   4.7884997  46.2749988  34.4590632   4.2755889  45.9042861
  23.3170012   5.7044997  47.4069988  23.9310012   6.3374997  47.7809988
  23.8290012   5.2324997  46.7509988  23.4702296   5.7272370  47.3694252
  24.7000012  13.4524997  50.5299988  24.6950012  14.3324997  50.1519988
  23.8470012  13.3694997  50.9549988  24.5839464  13.5616117  50.5357907
  20.8210012  13.1234997  41.3119988  20.5490012  13.3524997  40.4229988
  20.8670012  13.9614997  41.7719988  20.7900094  13.2681213  41.2525697
  34.4460012  14.7454997  48.0239988  33.5050012  14.8034997  48.1859988
  34.7230012  15.6514997  47.8869988  34.3544679  14.8759443  48.0276815
  34.7470012   3.0314997  49.4419988  34.0110012   3.6424997  49.4039988
  35.4300012   3.4464997  48.9149988  34.7386541   3.1711374  49.3655832
  27.7500012   1.1184997  46.9079988  27.6330012   0.1694997  46.8529988
  26.8950012   1.4504997  47.1809988  27.6183733   1.0335409  46.9373897
  32.6980012  16.5264997  44.6499988  33.1240012  15.8194997  44.1649988
  33.0150012  17.3274997  44.2329988  32.7991019  16.5380994  44.5273130
  33.8580012  14.4274997  43.1579988  33.6000012  13.7374997  42.5469988
  33.9290012  13.9844997  44.0039988  33.8322856  14.2732124  43.1886885
  35.5440012  12.9934997  51.6359988  35.6840012  12.4024997  50.8959988
  35.7110012  13.8664997  51.2789988  35.5856778  13.0306426  51.4866965
  30.0170012   9.9554997  41.4079988  29.3050012  10.4904997  41.0559988
  30.7080012  10.0114997  40.7479988  30.0130132  10.0362543  41.2706289
  30.0700012   8.4134997  38.4469988  30.7710012   8.4354997  39.0979988
  30.3730012   7.7854997  37.7909988  30.2067830   8.3316566  38.4473711
  37.3860012   9.3334997  49.7019988  36.7330012  10.0284997  49.7909988
  37.8510012   9.5434997  48.8919988  37.3595390   9.4569425  49.6046883
  33.4220012  10.1654997  42.3599988  32.6900012  10.3934997  42.9329988
  33.8700012   9.4514997  42.8149988  33.3823095  10.1002571  42.4999119
  33.3200012   8.3394997  51.4269988  33.4000012   9.1024997  51.9989988
  32.7180012   8.6184997  50.7369988  33.2495756   8.4817134  51.4120589
  25.0680012  10.7954997  44.2419988  24.7370012  10.4254997  43.4239988
  25.6560012  10.1254997  44.5889988  25.1021873  10.6541156  44.1768102
  26.4340012  14.2234997  46.9239988  26.3400012  13.6454997  46.1669988
  27.1640012  13.8524997  47.4199988  26.5197981  14.0942390  46.8874165
  25.4340012   9.5644997  47.8759988  26.0000012   9.6854997  47.1129988
  25.7530012  10.2014997  48.5149988  25.5545786   9.6671884  47.8580040
  31.7430012  15.0674997  48.6099988  31.5030012  15.7294997  49.2579988
  31.5450012  14.2334997  49.0349988  31.6833808  15.0453134  48.7561524
  26.3140012  13.9634997  52.5929988  26.0030012  14.7454997  53.0479988
  25.6640012  13.8104997  51.9069988  26.1835558  14.0499105  52.5625871
  32.2930012   9.3274997  40.0449988  32.8730012   9.4774997  40.7919988
  32.7070012   9.7984997  39.3219988  32.4282830   9.4116841  40.0494134
  23.2340012  10.1614997  51.8219988  23.3050012  10.8124997  52.5199988
  22.3440012  10.2644997  51.4869988  23.1233117  10.2645936  51.8722700
  30.0200012  16.0644997  43.4799988  30.4940012  16.3594997  44.2579988
  29.4570012  16.8024997  43.2469988  30.0087653  16.2046932  43.5550136
  24.5540012  16.0354997  53.3559988  24.5610012  15.8994997  52.4089988
  23.6380012  15.9174997  53.6079988  24.4311714  16.0009430  53.2604666
  35.9920012   1.0774997  39.8579988  35.0920012   1.2164997  40.1529988
  36.2440012   1.9084997  39.4559988  35.9028702   1.2089074  39.8440205
  24.0580012   9.8654997  41.8319988  23.7660012  10.6334997  41.3409988
  23.3840012   9.2054997  41.6689988  23.9269081   9.8814406  41.7427340
  37.1810012  15.4434997  38.2339988  37.2550012  16.3824997  38.4049988
  38.0870012  15.1384997  38.1779988  37.3135100  15.5306722  38.2498119
  20.1510012  12.2284997  50.6469988  19.6500012  12.2004997  49.8319988
  20.1560012  11.3224997  50.9559988  20.0831526  12.1022278  50.5772872
  19.9010012  15.0084997  47.5309988  20.8470012  14.8644997  47.5119988
  19.7890012  15.7924997  48.0679988  20.0152727  15.0948046  47.6010072
  38.0990012  15.6744997  53.2129988  38.0500012  14.7194997  53.1759988
  37.2720012  15.9424997  53.6139988  37.9804940  15.5798998  53.2621375
  29.0780012  15.2484997  52.0889988  29.1650012  16.0744997  52.5639988
  28.2140012  14.9184997  52.3379988  28.9731964  15.3169878  52.1876549
  29.4920012  19.0204997  41.8949988  29.4170012  18.8994997  40.9489988
  29.5250012  19.9704997  42.0139988  29.4861848  19.1322500  41.7814834
  23.1450012  17.8094997  43.6759988  23.2980012  17.4614997  44.5549988
  22.2950012  17.4534997  43.4209988  23.0508962  17.7136650  43.7618340
  32.5940012  18.1744997  38.8969988  32.9690012  17.4304997  38.4269988
  32.5980012  17.9044997  39.8159988  32.6458915  18.0361486  38.9567824
  32.2630012  18.1004997  41.6469988  31.3270012  18.2004997  41.8249988
  32.5430012  17.3914997  42.2249988  32.1728255  18.0182711  41.7495391
  35.2510012   7.1674997  53.6929988  34.8440012   7.6484997  52.9719988
  35.2920012   6.2624997  53.3849988  35.2008437   7.1109374  53.5526683
  22.4000012  13.5514997  51.6899988  22.6160012  13.1904997  52.5489988
  21.5450012  13.1774997  51.4799988  22.3139292  13.4514111  51.7793386
  25.0190012   2.0214997  47.6849988  24.1570012   1.9344997  47.2779988
  24.9960012   2.8774997  48.1129988  24.8980330   2.1252765  47.6871863
  29.6820012   1.7434997  51.0599988  30.1020012   1.3284997  51.8129988
  28.7490012   1.5654997  51.1769988  29.6133644   1.6625900  51.1789539
  33.0080012   5.4994997  51.9129988  32.4940012   5.3734997  52.7109988
  32.8530012   6.4114997  51.6689988  32.9166852   5.6056132  51.9892158
  33.7710012  10.3604997  37.6749988  33.8130012  10.1374997  36.7449988
  34.6200012  10.7594997  37.8649988  33.8915396  10.3839155  37.5733627
  29.3430012   4.2364997  38.3449988  29.0900012   4.2554997  39.2679988
  29.0870012   3.3644997  38.0439988  29.2737790   4.1212437  38.4306263
  25.1100012   6.9874997  48.7799988  24.4680012   6.9464997  49.4889988
  25.1470012   7.9134997  48.5429988  25.0271324   7.1071559  48.8449824
  25.1070012   7.2084997  43.6919988  24.2140012   6.8674997  43.6339988
  25.5570012   6.8314997  42.9369988  25.0457305   7.1108484  43.5819177
  30.6420012   7.6244997  42.5089988  30.2330012   8.4394997  42.2179988
  31.3630012   7.4844997  41.8949988  30.6834537   7.7172018  42.3861342
  29.7440012   7.7994997  53.9969988  29.1820012   7.0954997  54.3179988
  30.5710012   7.6794997  54.4649988  29.7787095   7.6867883  54.1042330
  31.6470012   7.0704997  45.3229988  31.4520012   7.6754997  44.6079988
  31.8280012   6.2364997  44.8889988  31.6447614   7.0406300  45.1664405
  22.8600012   7.3074997  50.6469988  22.8220012   7.7074997  51.5159988
  22.3690012   6.4904997  50.7379988  22.7884684   7.2518069  50.7781059
  26.2260012   4.6814997  37.4459988  25.7950012   4.2364997  38.1759988
  25.5080012   5.0534997  36.9339988  26.0699438   4.6708940  37.4766799
  19.4680012   4.4234997  44.4979988  20.0990012   4.3944997  45.2169988
  19.9170012   3.9984997  43.7679988  19.6150774   4.3620492  44.4976553
  20.7420012   5.1694997  39.9219988  21.2160012   5.7604997  39.3369988
  20.0250012   5.7004997  40.2689988  20.7099341   5.3220867  39.8888836
  30.9110012   8.7084997  49.9949988  31.2340012   8.0774997  49.3519988
  30.4710012   8.1734997  50.6549988  30.8956895   8.5498441  49.9962850
  27.6880012   4.6354997  44.7789988  26.7770012   4.6924997  45.0669988
  28.1940012   4.5754997  45.5889988  27.6315413   4.6351985  44.9280622
  22.5170012   6.2644997  43.6049988  21.6270012   6.3644997  43.2649988
  22.8130012   5.4224997  43.2589988  22.4352823   6.1643545  43.5117213
  26.1700012   6.2644997  41.2619988  27.1010012   6.3934997  41.4399988
  25.9550012   6.9344997  40.6119988  26.2684247   6.3726565  41.1985747
  32.0930012   3.8704997  48.0429988  31.4170012   4.0014997  48.7069988
  31.6080012   3.7154997  47.2329988  31.9347145   3.8674905  48.0244517
  24.8440012   7.4594997  38.8289988  24.3010012   7.0794997  38.1369988
  25.6770012   7.6534997  38.3999988  24.8824399   7.4338124  38.6764526
  35.3810012  19.5424997  54.3199988  35.5810012  19.9664997  53.4849988
  36.0360012  19.8854997  54.9269988  35.4970051  19.6469648  54.2877836
  22.9790012  12.0164997  53.9279988  23.7110012  12.2704997  54.4889988
  22.1990012  12.2204997  54.4429988  22.9738232  12.0789177  54.0745760
  29.0080012   7.4234997  46.6659988  29.5730012   6.8764997  46.1189988
  28.8610012   6.9014997  47.4539988  29.0652918   7.2782024  46.6978454
  24.0100012   3.5594997  43.0839988  23.6930012   2.6574997  43.0489988
  24.7920012   3.5614997  42.5309988  24.0722284   3.4361628  43.0044783
  27.6350012   5.8114997  49.0799988  26.7990012   6.2654997  49.1899988
  28.1590012   6.0874997  49.8319988  27.5914414   5.9109376  49.1967136
  28.1790012  12.0244997  40.7639988  27.4340012  11.5174997  40.4419988
  28.0450012  12.0734997  41.7109988  28.0588776  11.9616940  40.8478647
  35.3290012  11.1574997  49.5509988  35.9710012  11.6144997  49.0069988
  34.4990012  11.2704997  49.0879988  35.3045963  11.2352704  49.4140177
  32.0770012   4.8384997  38.9639988  31.1380012   4.9504997  38.8119988
  32.3740012   5.6954997  39.2699988  31.9887666   4.9696443  38.9845768
  29.6980012  12.2084997  52.0009988  29.3530012  11.8274997  52.8079988
  29.4980012  13.1424997  52.0729988  29.6238061  12.2825228  52.1210961
  32.7950012   6.7054997  40.6239988  33.6870012   6.5684997  40.9429988
  32.8520012   7.4964997  40.0879988  32.9246285   6.7936660  40.5951691
  23.3040012  11.3194997  46.5339988  24.0490012  11.3174997  45.9329988
  23.3820012  10.4964997  47.0159988  23.4165518  11.2079315  46.5168929
  30.3050012  13.4834997  39.7899988  30.0090012  14.3094997  40.1709988
  29.6020012  12.8634997  39.9859988  30.1694914  13.5128199  39.8686443
  20.3120012   9.7804997  51.8489988  20.5350012   9.3624997  52.6809988
  19.7100012   9.1674997  51.4259988  20.2611759   9.6404668  51.9057022
  27.3280012   9.2974997  54.0619988  27.0320012   9.1314997  53.1669988
  28.2600012   9.0774997  54.0509988  27.4134166   9.2450640  53.9380536
  31.9490012  14.6704997  51.9519988  31.0480012  14.8534997  51.6839988
  31.9830012  14.9294997  52.8729988  31.8303041  14.7305512  52.0398197
  37.6800012   6.9154997  40.3189988  37.1260012   6.5194997  39.6469988
  37.7800012   7.8254997  40.0409988  37.6177059   6.9843586  40.1894401
  37.6430012  12.7154997  53.1559988  36.7920012  12.9534997  52.7889988
  38.2340012  12.6984997  52.4029988  37.6062487  12.7458258  53.0038893
  35.9750012  15.7014997  40.7839988  35.6020012  14.8754997  41.0929988
  36.2530012  15.5184997  39.8869988  35.9615630  15.5637303  40.7049626
  33.1360012  10.5094997  47.8049988  32.2070012  10.2774997  47.7779988
  33.5870012   9.7324997  47.4749988  33.0699216  10.3727238  47.7566917
  25.6790012  14.8374997  43.9379988  26.2060012  15.6104997  43.7379988
  24.7990012  15.0624997  43.6369988  25.6321773  14.9738005  43.8699010
  21.4340012   9.6994997  38.5249988  22.0500012  10.3264997  38.9049988
  20.5720012  10.0154997  38.7969988  21.4017698   9.8279430  38.6137183
  27.1060012  12.5004997  43.5149988  26.8650012  13.4254997  43.5559988
  26.3650012  12.0414997  43.9109988  26.9728409  12.5651421  43.5741377
  27.6210012  16.6494997  49.8299988  27.9830012  17.5044997  49.5959988
  28.1520012  16.3574997  50.5699988  27.7424473  16.7271060  49.8980855
  25.7890012  17.5224997  43.0599988  24.8390012  17.6274997  43.1109988
  26.1410012  18.3424997  43.4049988  25.7064203  17.6478314  43.1136650
  31.1650012  12.7484997  49.5299988  30.7390012  12.5214997  50.3569988
  31.7450012  12.0104997  49.3479988  31.1851868  12.6175299  49.6185830
  33.3680012  13.6774997  38.6039988  33.7210012  13.2974997  39.4089988
  32.4190012  13.5844997  38.6909988  33.2880441  13.6129596  38.7258559
  33.8230012  17.3004997  51.9999988  33.2220012  16.7454997  51.5039988
  34.1050012  17.9674997  51.3739988  33.7788519  17.3146841  51.8474952
  37.8710012  18.1574997  38.8049988  38.6150012  18.7434997  38.6649988
  37.1770012  18.7254997  39.1389988  37.8790292  18.3145582  38.8309961
  21.9460012   4.5334997  51.4069988  21.0530012   4.8724997  51.3389988
  21.8470012   3.6784997  51.8249988  21.8104164   4.4642588  51.4542235
  34.2340012  12.3504997  40.8309988  33.9560012  11.6224997  41.3869988
  35.1610012  12.4694997  41.0359988  34.3213124  12.2668802  40.9348845
  21.5970012  16.3384997  49.8419988  21.8140012  15.4064997  49.8109988
  21.8430012  16.6124997  50.7249988  21.6599549  16.2480636  49.9571763
  27.4590012  14.7894997  37.0509988  27.6980012  14.0414997  36.5039988
  27.1900012  14.4014997  37.8839988  27.4553675  14.6346638  37.0886865
  26.3960012  14.3594997  39.5079988  26.5420012  13.8394997  40.2979988
  26.3930012  15.2664997  39.8139988  26.4155989  14.4108853  39.6576088
  22.8490012  11.6124997  40.0179988  22.1630012  11.9644997  40.5849988
  23.3710012  12.3754997  39.7709988  22.8256852  11.7638578  40.0622118
  30.6800012   4.2744997  50.2969988  31.3790012   4.3484997  50.9469988
  30.2990012   3.4104997  50.4509988  30.7241767   4.1677624  50.4068322
  31.4650012   3.9264997  41.3939988  31.6850012   4.3984997  40.5909988
  32.0230012   4.3214997  42.0639988  31.5704968   4.0444285  41.3747331
  29.1330012  16.0574997  40.2569988  28.3170012  16.5544997  40.3089988
  29.6630012  16.5324997  39.6169988  29.0929161  16.1897722  40.1775956
  28.6650012   5.6544997  42.2289988  29.4770012   6.1594997  42.2749988
  28.4200012   5.5094997  43.1429988  28.7430520   5.7040375  42.3588517
  29.2000012   6.6404997  51.4139988  29.3190012   7.2144997  52.1709988
  29.8560012   5.9524997  51.5279988  29.3049757   6.6261079  51.5330825
  29.5480012   2.7354997  43.1669988  29.2020012   3.3534997  43.8119988
  30.2070012   3.2364997  42.6859988  29.5897826   2.8875802  43.1900971
  26.4720012  17.1014997  40.2389988  26.6320012  17.9004997  39.7379988
  26.2740012  17.4074997  41.1239988  26.4671649  17.2524469  40.2899815
  25.2060012   3.7984997  39.8539988  25.1230012   4.6874997  40.2009988
  26.0960012   3.5334997  40.0859988  25.3149469   3.8841430  39.9327626
  35.4050012   4.5474997  52.2489988  34.4880012   4.8104997  52.1609988
  35.7400012   4.5444997  51.3519988  35.3249900   4.5830224  52.1157919
  34.0070012   8.2984997  46.3439988  33.2090012   7.8834997  46.0159988
  34.4520012   7.6074997  46.8349988  33.9579885   8.1483543  46.3654889
  23.4650012  14.2264997  38.9149988  24.0570012  14.9254997  39.1909988
  23.9240012  13.7934997  38.1949988  23.6081142  14.2637049  38.8554830
  21.7810012   6.8904997  38.0309988  21.7360012   7.8294997  38.2089988
  20.8930012   6.6544997  37.7609988  21.6548574   6.9871892  38.0188912
  35.0930012  17.5544997  47.9669988  34.9380012  18.2324997  47.3099988
  36.0260012  17.6264997  48.1699988  35.1978500  17.6570170  47.9045119
  22.5890012   1.6724997  46.7039988  22.3600012   1.7314997  45.7759988
  22.1460012   0.8804997  47.0099988  22.4978530   1.5735753  46.6184786
  21.5190012  15.6124997  42.8639988  20.6870012  16.0854997  42.8919988
  22.0650012  16.1224997  42.2659988  21.4789739  15.7461871  42.7869716
  20.8070012  18.2254997  54.1939988  21.3480012  18.0084997  54.9539988
  20.3260012  17.4194997  54.0049988  20.8159345  18.0869514  54.2723076
  25.4050012  17.1444997  55.8149988  26.1720012  16.6854997  56.1559988
  25.3830012  16.9184997  54.8849988  25.5071434  17.0510409  55.7360043
  29.4970012  16.6524997  37.1899988  28.8530012  16.0214997  37.5109988
  30.2590012  16.1214997  36.9579988  29.5118077  16.4942920  37.2026011
  31.9820012  15.5244997  54.5439988  31.6310012  14.6684997  54.7869988
  32.7080012  15.6674997  55.1509988  32.0320769  15.4265636  54.6593619
  34.1010012  16.4694997  37.4239988  34.3840012  15.6754997  37.8759988
  34.8410012  16.7024997  36.8629988  34.2397486  16.3922803  37.4100698
  20.7140012  12.0354997  55.1489988  20.8580012  11.1334997  54.8619988
  19.9420012  12.3214997  54.6609988  20.6293323  11.9508261  55.0437881
  25.0560012  12.3794997  37.2809988  25.1200012  11.5854997  37.8119988
  25.7090012  12.2604997  36.5909988  25.1530241  12.2547148  37.2604317
  27.3700012  12.0054997  54.5809988  27.0410012  12.2764997  53.7239988
  27.5220012  11.0644997  54.4939988  27.3454809  11.9153862  54.4518244
  30.4080012  13.4264997  37.0169988  30.1390012  13.6064997  37.9179988
  30.2020012  12.5004997  36.8859988  30.3433825  13.3260152  37.1225214
  33.1040012  11.9214997  51.9649988  33.8500012  12.5094997  51.8449988
  32.3470012  12.5034997  52.0279988  33.1037554  12.0807011  51.9570907
  21.5470012   9.2354997  54.5689988  21.9550012   8.3784997  54.4479988
  21.2870012   9.2504997  55.4899988  21.5677568   9.1200807  54.6769588
  26.2050012  10.3514997  39.5869988  25.7450012   9.8674997  40.2729988
  26.4600012   9.6834997  38.9509988  26.1764902  10.1948731  39.5949334
  25.4940012   8.2444997  51.9429988  24.8760012   8.9194997  52.2229988
  25.8380012   8.5654997  51.1099988  25.4559615   8.3802721  51.8686581
  27.2760012   8.5944997  37.8489988  27.0960012   8.4404997  36.9219988
  28.2260012   8.7024997  37.8939988  27.3797776   8.5880175  37.7281843
  30.5140012  10.7164997  55.2199988  31.4670012  10.7994997  55.1929988
  30.3530012  10.0044997  55.8399988  30.6226426  10.6316746  55.3000579
  36.6660012  10.9494997  37.2949988  36.3920012  10.5244997  36.4819988
  36.7050012  11.8804997  37.0779988  36.6337699  11.0172484  37.1543610
  25.8330012   5.5994997  53.0249988  25.9830012   4.8704997  52.4229988
  25.8360012   6.3764997  52.4659988  25.8539302   5.6047851  52.8670692
  26.2460012   3.9694997  50.5179988  26.7820012   4.4204997  49.8659988
  25.3940012   3.8614997  50.0949988  26.2042178   4.0166390  50.3715756
  27.8280012   9.4084997  50.7569988  28.5780012   9.2524997  50.1839988
  27.4890012  10.2604997  50.4819988  27.8848921   9.5022968  50.6413561
  32.2430012   7.2234997  55.7859988  32.4360012   6.2924997  55.6739988
  33.1010012   7.6484997  55.7759988  32.3853020   7.1536389  55.7693361
  33.5600012  10.0124997  53.8629988  33.2790012  10.7214997  53.2859988
  34.5030012   9.9394997  53.7119988  33.6489027  10.0997646  53.7635551
  24.3120012   6.7974997  54.9369988  23.5450012   6.2654997  54.7269988
  24.9910012   6.4874997  54.3369988  24.2987022   6.6827506  54.8271648
  27.0520012   1.4254997  50.9489988  26.9530012   2.3724997  50.8439988
  26.3090012   1.0534997  50.4739988  26.9380563   1.5045902  50.8704560
  28.3160012   5.7474997  54.5129988  28.0800012   5.5274997  55.4149988
  27.5320012   5.5404997  54.0029988  28.1778628   5.6894760  54.5673932
  31.0310012   4.8744997  53.5889988  30.0840012   4.9064997  53.7209988
  31.3440012   4.2494997  54.2419988  30.9435475   4.7943207  53.6954455
  32.6650012   3.5084997  55.5939988  32.5690012   2.5564997  55.5879988
  32.3440012   3.7774997  56.4539988  32.6084070   3.4144035  55.7095441
  22.4920012   4.7184997  54.6409988  22.7040012   4.0114997  54.0309988
  22.3810012   4.2804997  55.4849988  22.5059721   4.5627084  54.6716843
  27.2730012   0.7194997  53.6209988  27.9850012   0.0794997  53.6069988
  27.1720012   0.9864997  52.7069988  27.3567939   0.6679938  53.4955650
  27.6270012   2.4024997  55.6739988  27.4950012   1.9264997  54.8539988
  27.0280012   3.1464997  55.6189988  27.5279071   2.4379618  55.5542886
  27.1730012  19.2854997  38.8509988  28.1060012  19.4434997  38.9939988
  26.9090012  19.9604997  38.2259988  27.2649510  19.3983611  38.7860741
  20.7420012  13.9214997  38.3329988  21.6560012  14.0004997  38.6069988
  20.7490012  13.2344997  37.6669988  20.8681131  13.8393961  38.2804393
  19.3910012  19.3144997  43.4109988  18.7440012  18.8524997  42.8779988
  19.7450012  18.6424997  43.9929988  19.3503849  19.1604723  43.4167959
  20.2610012  17.3954997  45.2149988  19.9260012  16.5154997  45.3869988
  20.4830012  17.7404997  46.0799988  20.2451783  17.3217500  45.3554208
  37.8090012  18.2044997  48.1959988  37.7880012  18.3894997  49.1349988
  38.5000012  18.7734997  47.8549988  37.8994618  18.3066606  48.2783864
  37.3730012  17.7724997  51.1179988  36.8850012  17.0364997  50.7469988
  37.9220012  17.3784997  51.7959988  37.3804872  17.6186249  51.1589160
  35.8230012  13.5614997  55.7559988  34.9570012  13.4564997  56.1499988
  36.2000012  14.3204997  56.2019988  35.7553308  13.6496900  55.8702393
  37.1240012  11.8184997  41.2699988  37.9740012  12.2394997  41.3969988
  37.1300012  11.0784997  41.8769988  37.2411372  11.7760803  41.3694344
  37.5190012   9.8714997  43.0939988  36.7920012   9.3924997  43.4909988
  38.1000012  10.0774997  43.8259988  37.4979375   9.8337090  43.2474129
  37.2780012  12.6564997  48.0409988  38.1110012  12.2784997  47.7609988
  37.3900012  13.5994997  47.9219988  37.4072647  12.7322218  47.9865487
  35.7640012  15.5344997  50.3479988  35.1170012  15.8594997  50.9739988
  35.2470012  15.0944997  49.6739988  35.6054029  15.5195004  50.3425827
  37.7870012   9.7724997  39.4849988  37.2650012  10.1294997  38.7659988
  37.7540012  10.4474997  40.1629988  37.7111634   9.9125413  39.4783145
  36.1360012   7.0124997  38.0359988  36.2320012   7.6794997  37.3549988
  35.9960012   6.1964997  37.5539988  36.1302135   6.9934500  37.8778491
  35.3050012   8.3924997  43.6569988  35.1550012   7.4474997  43.6359988
  34.9520012   8.6734997  44.4999988  35.2366625   8.3010441  43.7682346
  20.3410012  10.4704997  47.6669988  20.5250012  10.3884997  46.7309988
  21.1900012  10.3464997  48.0909988  20.4810139  10.4425003  47.5961455
  36.1620012  10.3624997  53.2949988  36.7450012   9.6284997  53.4869988
  36.7260012  11.1344997  53.3419988  36.3179769  10.3664227  53.3276159
  37.6580012   8.2654997  53.9799988  36.7950012   7.8864997  53.8139988
  38.2630012   7.5264997  53.9059988  37.6215979   8.1138023  53.9472817
  35.3830012   4.4204997  37.1529988  35.9940012   4.0494997  37.7899988
  34.5470012   3.9994997  37.3489988  35.3535032   4.3127554  37.2667035
  35.0160012   5.9754997  42.1189988  35.2960012   5.0684997  42.2429988
  35.7750012   6.4094997  41.7299988  35.1569277   5.9100942  42.0833682
  35.6280012   6.5564997  47.5549988  36.5610012   6.7684997  47.5209988
  35.3930012   6.6584997  48.4769988  35.7238036   6.5992769  47.6749976
  35.6570012   7.2934997  50.3309988  34.8140012   7.5614997  50.6969988
  36.0990012   8.1154997  50.1199988  35.6014158   7.4413291  50.3525491
  19.9380012   5.7414997  53.8079988  20.8580012   5.6194997  54.0439988
  19.4890012   4.9914997  54.1969988  20.0031580   5.6233727  53.8929006
  37.9400012   1.2734997  55.6839988  38.2900012   0.6194997  55.0789988
  38.0870012   2.1104997  55.2449988  38.0078419   1.2971591  55.5417118
  35.6290012   3.2384997  42.1669988  35.8120012   2.7894997  42.9929988
  35.0300012   2.6534997  41.7039988  35.5730202   3.0979975  42.2173275
  21.1590012   4.0534997  46.6989988  21.6050012   3.2614997  47.0009988
  21.6260012   4.7694997  47.1299988  21.2830172   4.0420624  46.7984820
  19.4630012   7.0524997  47.7679988  19.9550012   6.8314997  46.9769988
  19.8260012   7.8934997  48.0489988  19.5793126   7.1358357  47.6977531
  37.4600012   3.3824997  54.0339988  36.5420012   3.6534997  53.9979988
  37.5830012   2.8474997  53.2489988  37.3511066   3.3472892  53.9230487
  37.4960012   3.3054997  38.6949988  37.9080012   2.5844997  38.2199988
  38.1780012   3.9754997  38.7539988  37.6445885   3.2972368  38.6378915
  19.7770012   3.3104997  41.8219988  18.8520012   3.5194997  41.6929988
  20.2310012   3.7944997  41.1329988  19.7117368   3.4045993  41.7111226
  34.5480012  18.2944997  43.7679988  35.2000012  17.9474997  43.1599988
  35.0580012  18.7834997  44.4139988  34.7062637  18.3130597  43.7720236
  19.7410012   2.0484997  50.1669988  19.0760012   1.8024997  50.8099988
  19.2980012   2.6704997  49.5889988  19.5900956   2.0988632  50.1769352
  21.9330012  15.2234997  54.3109988  21.1120012  15.3984997  53.8509988
  21.6800012  15.1504997  55.2319988  21.7866164  15.2375622  54.3724923
  24.8870012  16.1984997  50.5699988  24.4620012  17.0074997  50.2869988
  25.7910012  16.2834997  50.2679988  24.9510271  16.3208469  50.4903776
  29.1980012  17.5974997  53.5289988  29.3830012  17.2634997  54.4069988
  30.0440012  17.9064997  53.2069988  29.3377539  17.5936047  53.6055605
  31.5430012  18.8834997  52.7729988  32.2200012  18.2504997  52.5329988
  31.8650012  19.2844997  53.5799988  31.6791637  18.8511154  52.8492793
  36.4600012   1.4724997  51.8529988  35.6480012   1.7974997  51.4649988
  36.6930012   0.7124997  51.3199988  36.3803423   1.4142436  51.7278253
  22.2890012  19.4544997  50.6169988  21.5680012  19.8944997  50.1659988
  21.9230012  19.2034997  51.4659988  22.1409804  19.4807698  50.6699840
  24.7560012  19.0544997  49.6469988  23.8910012  19.1264997  50.0509988
  24.7010012  19.6014997  48.8629988  24.6302085  19.1382685  49.5963362
  29.4660012  18.9424997  48.8219988  29.0100012  19.4714997  48.1679988
  29.6290012  19.5454997  49.5479988  29.4255585  19.0964468  48.8305062
  31.7940012  17.8204997  49.7669988  30.8890012  17.9854997  49.5019988
  32.2230012  18.6734997  49.7019988  31.7280799  17.9584483  49.7219182
  34.3980012  19.3904997  50.0619988  34.2160012  20.3064997  49.8519988
  34.5750012  18.9804997  49.2159988  34.3970210  19.4604822  49.9187885
  21.7030012  18.0774997  47.5269988  21.6850012  17.6524997  48.3849988
  22.5080012  17.7594997  47.1189988  21.8093875  17.9763812  47.5891655
  23.8450012  16.7874997  46.1819988  23.6260012  15.8714997  46.3519988
  24.6690012  16.9274997  46.6479988  23.9264420  16.6810520  46.2682774
  26.3820012  17.2574997  47.0309988  26.5950012  16.3694997  46.7439988
  26.4460012  17.2234997  47.9849988  26.4198232  17.1313102  47.1207397
  29.8900012   2.9214997  46.1749988  29.2160012   2.2924997  46.4309988
  30.4540012   2.4374997  45.5719988  29.8739230   2.7698744  46.1285340
  35.0330012   1.0294997  46.2879988  35.6370012   1.5764997  45.7859988
  34.1630012   1.3484997  46.0479988  34.9981241   1.1475806  46.1867654
  36.7600012   2.1674997  44.6209988  37.3720012   1.6534997  44.0949988
  37.1420012   3.0454997  44.6449988  36.8954540   2.2157140  44.5521830
  22.2170012   1.5554997  43.9969988  21.4400012   1.3214997  43.4899988
  22.7470012   0.7584997  44.0059988  22.1822330   1.4156988  43.9287742
  21.0530012   1.3534997  39.8009988  21.4920012   1.9644997  39.2089988
  20.4200012   1.8914997  40.2749988  21.0274514   1.5099257  39.7840930
  26.7960012   1.4824997  43.8109988  27.6710012   1.8704997  43.7809988
  26.6600012   1.2674997  44.7329988  26.8973695   1.5065184  43.9316440
  32.3530012   1.5124997  45.4599988  32.4290012   1.6074997  44.5099988
  32.0780012   0.6044997  45.5889988  32.3262321   1.4027867  45.3475079
  33.7060012   1.5384997  41.1519988  33.0040012   2.1534997  40.9429988
  33.2620012   0.7004997  41.2829988  33.5496330   1.5095783  41.1410328
  20.9540012  17.3014997  40.6989988  20.2690012  17.2634997  40.0309988
  20.9580012  18.2144997  40.9869988  20.8608193  17.4197016  40.6465284
  22.9140012   3.2694997  38.2429988  23.4060012   2.6394997  37.7159988
  23.5380012   3.5654997  38.9069988  23.0655446   3.2233199  38.2605980
  27.9400012   3.5624997  40.6999988  28.1180012   2.9164997  41.3829988
  27.8870012   4.3964997  41.1679988  27.9571829   3.5867985  40.8565940
  29.8190012  18.5114997  39.0959988  30.6850012  18.8774997  38.9179988
  29.5720012  18.0714997  38.2819988  29.9042392  18.5021756  38.9616289
  36.5280012  18.0744997  41.7749988  36.3330012  17.3264997  41.2099988
  36.4890012  18.8324997  41.1919988  36.4960380  18.0746099  41.6188384
  22.1750012   2.0694997  53.5149988  21.8090012   1.3044997  53.9579988
  23.0880012   2.0984997  53.8019988  22.2482790   1.9687224  53.6144070
  24.1480012   1.4204997  55.0509988  25.0460012   1.1464997  54.8659988
  23.7610012   0.6774997  55.5149988  24.2186612   1.2825914  55.0883643
  22.7720012  18.2214997  37.7239988  22.5050012  18.5084997  38.5969988
  23.5440012  17.6754997  37.8759988  22.8397488  18.1870294  37.8641050
  32.5690012   0.7524997  55.2329988  32.6460012   0.3264997  56.0869988
  33.4630012   0.7664997  54.8899988  32.7003428   0.6960880  55.3035310
  35.7450012  16.8254997  53.9249988  34.9630012  16.6394997  53.4059988
  35.6730012  17.7544997  54.1429988  35.6281777  16.9256492  53.8834048
  50.1510012  10.7114997  43.9559988  50.2400012  11.6554997  43.8239988
  49.5130012  10.4364997  43.2979988  50.0769081  10.8034830  43.8489614
  49.0840012   9.9664997  47.3749988  49.0460012   9.3204997  48.0799988
  48.7620012   9.5004997  46.6039988  49.0352333   9.8149408  47.3672978
  41.4530012   9.5814997  48.9679988  41.4940012   8.9554997  49.6909988
  42.1560012  10.2054997  49.1499988  41.5536363   9.5801196  49.0916044
  52.7900012  12.9054997  45.6759988  52.3500012  12.1854997  46.1269988
  52.7770012  13.6264997  46.3059988  52.7280226  12.9043731  45.8228494
  42.3760012  14.0314997  47.5029988  42.0070012  13.2294997  47.1329988
  43.3170012  13.8624997  47.5489988  42.4527289  13.8990153  47.4586316
  38.9860012   7.6914997  42.8959988  38.5390012   8.5374997  42.8769988
  38.4250012   7.1114997  42.3799988  38.8489900   7.7289916  42.8236801
  39.6970012   9.8534997  45.0219988  39.9100012   9.0834997  45.5489988
  40.4350012   9.9424997  44.4179988  39.8258496   9.7601394  45.0125300
  49.9020012  18.0104997  45.8889988  50.5220012  17.3334997  45.6149988
  49.6940012  17.7924997  46.7969988  49.9586904  17.8883870  45.9743365
  47.4740012  12.3994997  47.7809988  47.7780012  11.7134997  47.1859988
  48.1950012  12.5174997  48.3989988  47.6130671  12.3216305  47.7831816
  56.1370012   4.0004997  48.6419988  56.1860012   4.6104997  49.3779988
  56.5620012   4.4614997  47.9189988  56.2011824   4.1463741  48.6450205
  50.6150012   6.7934997  48.1089988  50.7570012   5.8474997  48.1289988
  50.5080012   7.0004997  47.1799988  50.6199864   6.6919534  47.9862339
  43.7690012   4.8944997  45.3809988  43.8130012   5.7544997  44.9629988
  43.3120012   4.3424997  44.7469988  43.7132185   4.9375799  45.2380299
  51.4920012   5.0254997  43.7819988  52.1380012   4.6964997  44.4069988
  52.0020012   5.5434997  43.1589988  51.6494264   5.0504611  43.7833862
  40.3900012   7.2914997  46.1429988  41.0430012   6.7414997  46.5749988
  40.4140012   7.0174997  45.2259988  40.4826683   7.1791466  46.0782123
  45.5460012   8.8414997  45.3579988  46.1620012   8.3154997  45.8679988
  44.9600012   8.2014997  44.9549988  45.5510810   8.6829208  45.3733173
  56.5280012   5.4784997  50.8779988  55.8400012   6.1364997  50.7819988
  56.5440012   5.2814997  51.8139988  56.4358525   5.5420462  50.9914808
  42.5800012   3.8124997  49.4549988  42.3610012   4.3424997  48.6889988
  41.9120012   4.0394997  50.1019988  42.4597600   3.9156906  49.4376379
  49.9490012  13.3124997  42.9989988  49.6530012  12.9904997  42.1479988
  49.6240012  14.2124997  43.0399988  49.8646371  13.3900215  42.8881801
  45.1490012  11.4884997  49.7419988  44.4090012  12.0864997  49.8459988
  45.8630012  12.0424997  49.4269988  45.1442237  11.6452831  49.7136465
  53.2560012   4.3164997  45.7619988  53.0400012   3.5504997  46.2949988
  53.9110012   4.7884997  46.2749988  53.3150632   4.2755889  45.9042861
  42.1730012   5.7044997  47.4069988  42.7870012   6.3374997  47.7809988
  42.6850012   5.2324997  46.7509988  42.3262296   5.7272370  47.3694252
  43.5560012  13.4524997  50.5299988  43.5510012  14.3324997  50.1519988
  42.7030012  13.3694997  50.9549988  43.4399464  13.5616117  50.5357907
  39.6770012  13.1234997  41.3119988  39.4050012  13.3524997  40.4229988
  39.7230012  13.9614997  41.7719988  39.6460094  13.2681213  41.2525697
  53.3020012  14.7454997  48.0239988  52.3610012  14.8034997  48.1859988
  53.5790012  15.6514997  47.8869988  53.2104679  14.8759443  48.0276815
  53.6030012   3.0314997  49.4419988  52.8670012   3.6424997  49.4039988
  54.2860012   3.4464997  48.9149988  53.5946541   3.1711374  49.3655832
  46.6060012   1.1184997  46.9079988  46.4890012   0.1694997  46.8529988
  45.7510012   1.4504997  47.1809988  46.4743733   1.0335409  46.9373897
  51.5540012  16.5264997  44.6499988  51.9800012  15.8194997  44.1649988
  51.8710012  17.3274997  44.2329988  51.6551019  16.5380994  44.5273130
  52.7140012  14.4274997  43.1579988  52.4560012  13.7374997  42.5469988
  52.7850012  13.9844997  44.0039988  52.6882856  14.2732124  43.1886885
  54.4000012  12.9934997  51.6359988  54.5400012  12.4024997  50.8959988
  54.5670012  13.8664997  51.2789988  54.4416778  13.0306426  51.4866965
  48.8730012   9.9554997  41.4079988  48.1610012  10.4904997  41.0559988
  49.5640012  10.0114997  40.7479988  48.8690132  10.0362543  41.2706289
  48.9260012   8.4134997  38.4469988  49.6270012   8.4354997  39.0979988
  49.2290012   7.7854997  37.7909988  49.0627830   8.3316566  38.4473711
  56.2420012   9.3334997  49.7019988  55.5890012  10.0284997  49.7909988
  56.7070012   9.5434997  48.8919988  56.2155390   9.4569425  49.6046883
  52.2780012  10.1654997  42.3599988  51.5460012  10.3934997  42.9329988
  52.7260012   9.4514997  42.8149988  52.2383095  10.1002571  42.4999119
  52.1760012   8.3394997  51.4269988  52.2560012   9.1024997  51.9989988
  51.5740012   8.6184997  50.7369988  52.1055756   8.4817134  51.4120589
  43.9240012  10.7954997  44.2419988  43.5930012  10.4254997  43.4239988
  44.5120012  10.1254997  44.5889988  43.9581873  10.6541156  44.1768102
  45.2900012  14.2234997  46.9239988  45.1960012  13.6454997  46.1669988
  46.0200012  13.8524997  47.4199988  45.3757981  14.0942390  46.8874165
  44.2900012   9.5644997  47.8759988  44.8560012   9.6854997  47.1129988
  44.6090012  10.2014997  48.5149988  44.4105786   9.6671884  47.8580040
  50.5990012  15.0674997  48.6099988  50.3590012  15.7294997  49.2579988
  50.4010012  14.2334997  49.0349988  50.5393808  15.0453134  48.7561524
  45.1700012  13.9634997  52.5929988  44.8590012  14.7454997  53.0479988
  44.5200012  13.8104997  51.9069988  45.0395558  14.0499105  52.5625871
  51.1490012   9.3274997  40.0449988  51.7290012   9.4774997  40.7919988
  51.5630012   9.7984997  39.3219988  51.2842830   9.4116841  40.0494134
  42.0900012  10.1614997  51.8219988  42.1610012  10.8124997  52.5199988
  41.2000012  10.2644997  51.4869988  41.9793117  10.2645936  51.8722700
  48.8760012  16.0644997  43.4799988  49.3500012  16.3594997  44.2579988
  48.3130012  16.8024997  43.2469988  48.8647653  16.2046932  43.5550136
  43.4100012  16.0354997  53.3559988  43.4170012  15.8994997  52.4089988
  42.4940012  15.9174997  53.6079988  43.2871714  16.0009430  53.2604666
  54.8480012   1.0774997  39.8579988  53.9480012   1.2164997  40.1529988
  55.1000012   1.9084997  39.4559988  54.7588702   1.2089074  39.8440205
  42.9140012   9.8654997  41.8319988  42.6220012  10.6334997  41.3409988
  42.2400012   9.2054997  41.6689988  42.7829081   9.8814406  41.7427340
  56.0370012  15.4434997  38.2339988  56.1110012  16.3824997  38.4049988
  56.9430012  15.1384997  38.1779988  56.1695100  15.5306722  38.2498119
  39.0070012  12.2284997  50.6469988  38.5060012  12.2004997  49.8319988
  39.0120012  11.3224997  50.9559988  38.9391526  12.1022278  50.5772872
  38.7570012  15.0084997  47.5309988  39.7030012  14.8644997  47.5119988
  38.6450012  15.7924997  48.0679988  38.8712727  15.0948046  47.6010072
  56.9550012  15.6744997  53.2129988  56.9060012  14.7194997  53.1759988
  56.1280012  15.9424997  53.6139988  56.8364940  15.5798998  53.2621375
  47.9340012  15.2484997  52.0889988  48.0210012  16.0744997  52.5639988
  47.0700012  14.9184997  52.3379988  47.8291964  15.3169878  52.1876549
  48.3480012  19.0204997  41.8949988  48.2730012  18.8994997  40.9489988
  48.3810012  19.9704997  42.0139988  48.3421848  19.1322500  41.7814834
  42.0010012  17.8094997  43.6759988  42.1540012  17.4614997  44.5549988
  41.1510012  17.4534997  43.4209988  41.9068962  17.7136650  43.7618340
  51.4500012  18.1744997  38.8969988  51.8250012  17.4304997  38.4269988
  51.4540012  17.9044997  39.8159988  51.5018915  18.0361486  38.9567824
  51.1190012  18.1004997  41.6469988  50.1830012  18.2004997  41.8249988
  51.3990012  17.3914997  42.2249988  51.0288255  18.0182711  41.7495391
  54.1070012   7.1674997  53.6929988  53.7000012   7.6484997  52.9719988
  54.1480012   6.2624997  53.3849988  54.0568437   7.1109374  53.5526683
  41.2560012  13.5514997  51.6899988  41.4720012  13.1904997  52.5489988
  40.4010012  13.1774997  51.4799988  41.1699292  13.4514111  51.7793386
  43.8750012   2.0214997  47.6849988  43.0130012   1.9344997  47.2779988
  43.8520012   2.8774997  48.1129988  43.7540330   2.1252765  47.6871863
  48.5380012   1.7434997  51.0599988  48.9580012   1.3284997  51.8129988
  47.6050012   1.5654997  51.1769988  48.4693644   1.6625900  51.1789539
  51.8640012   5.4994997  51.9129988  51.3500012   5.3734997  52.7109988
  51.7090012   6.4114997  51.6689988  51.7726852   5.6056132  51.9892158
  52.6270012  10.3604997  37.6749988  52.6690012  10.1374997  36.7449988
  53.4760012  10.7594997  37.8649988  52.7475396  10.3839155  37.5733627
  48.1990012   4.2364997  38.3449988  47.9460012   4.2554997  39.2679988
  47.9430012   3.3644997  38.0439988  48.1297790   4.1212437  38.4306263
  43.9660012   6.9874997  48.7799988  43.3240012   6.9464997  49.4889988
  44.0030012   7.9134997  48.5429988  43.8831324   7.1071559  48.8449824
  43.9630012   7.2084997  43.6919988  43.0700012   6.8674997  43.6339988
  44.4130012   6.8314997  42.9369988  43.9017305   7.1108484  43.5819177
  49.4980012   7.6244997  42.5089988  49.0890012   8.4394997  42.2179988
  50.2190012   7.4844997  41.8949988  49.5394537   7.7172018  42.3861342
  48.6000012   7.7994997  53.9969988  48.0380012   7.0954997  54.3179988
  49.4270012   7.6794997  54.4649988  48.6347095   7.6867883  54.1042330
  50.5030012   7.0704997  45.3229988  50.3080012   7.6754997  44.6079988
  50.6840012   6.2364997  44.8889988  50.5007614   7.0406300  45.1664405
  41.7160012   7.3074997  50.6469988  41.6780012   7.7074997  51.5159988
  41.2250012   6.4904997  50.7379988  41.6444684   7.2518069  50.7781059
  45.0820012   4.6814997  37.4459988  44.6510012   4.2364997  38.1759988
  44.3640012   5.0534997  36.9339988  44.9259438   4.6708940  37.4766799
  38.3240012   4.4234997  44.4979988  38.9550012   4.3944997  45.2169988
  38.7730012   3.9984997  43.7679988  38.4710774   4.3620492  44.4976553
  39.5980012   5.1694997  39.9219988  40.0720012   5.7604997  39.3369988
  38.8810012   5.7004997  40.2689988  39.5659341   5.3220867  39.8888836
  49.7670012   8.7084997  49.9949988  50.0900012   8.0774997  49.3519988
  49.3270012   8.1734997  50.6549988  49.7516895   8.5498441  49.9962850
  46.5440012   4.6354997  44.7789988  45.6330012   4.6924997  45.0669988
  47.0500012   4.5754997  45.5889988  46.4875413   4.6351985  44.9280622
  41.3730012   6.2644997  43.6049988  40.4830012   6.3644997  43.2649988
  41.6690012   5.4224997  43.2589988  41.2912823   6.1643545  43.5117213
  45.0260012   6.2644997  41.2619988  45.9570012   6.3934997  41.4399988
  44.8110012   6.9344997  40.6119988  45.1244247   6.3726565  41.1985747
  50.9490012   3.8704997  48.0429988  50.2730012   4.0014997  48.7069988
  50.4640012   3.7154997  47.2329988  50.7907145   3.8674905  48.0244517
  43.7000012   7.4594997  38.8289988  43.1570012   7.0794997  38.1369988
  44.5330012   7.6534997  38.3999988  43.7384399   7.4338124  38.6764526
  54.2370012  19.5424997  54.3199988  54.4370012  19.9664997  53.4849988
  54.8920012  19.8854997  54.9269988  54.3530051  19.6469648  54.2877836
  41.8350012  12.0164997  53.9279988  42.5670012  12.2704997  54.4889988
  41.0550012  12.2204997  54.4429988  41.8298232  12.0789177  54.0745760
  47.8640012   7.4234997  46.6659988  48.4290012   6.8764997  46.1189988
  47.7170012   6.9014997  47.4539988  47.9212918   7.2782024  46.6978454
  42.8660012   3.5594997  43.0839988  42.5490012   2.6574997  43.0489988
  43.6480012   3.5614997  42.5309988  42.9282284   3.4361628  43.0044783
  46.4910012   5.8114997  49.0799988  45.6550012   6.2654997  49.1899988
  47.0150012   6.0874997  49.8319988  46.4474414   5.9109376  49.1967136
  47.0350012  12.0244997  40.7639988  46.2900012  11.5174997  40.4419988
  46.9010012  12.0734997  41.7109988  46.9148776  11.9616940  40.8478647
  54.1850012  11.1574997  49.5509988  54.8270012  11.6144997  49.0069988
  53.3550012  11.2704997  49.0879988  54.1605963  11.2352704  49.4140177
  50.9330012   4.8384997  38.9639988  49.9940012   4.9504997  38.8119988
  51.2300012   5.6954997  39.2699988  50.8447666   4.9696443  38.9845768
  48.5540012  12.2084997  52.0009988  48.2090012  11.8274997  52.8079988
  48.3540012  13.1424997  52.0729988  48.4798061  12.2825228  52.1210961
  51.6510012   6.7054997  40.6239988  52.5430012   6.5684997  40.9429988
  51.7080012   7.4964997  40.0879988  51.7806285   6.7936660  40.5951691
  42.1600012  11.3194997  46.5339988  42.9050012  11.3174997  45.9329988
  42.2380012  10.4964997  47.0159988  42.2725518  11.2079315  46.5168929
  49.1610012  13.4834997  39.7899988  48.8650012  14.3094997  40.1709988
  48.4580012  12.8634997  39.9859988  49.0254914  13.5128199  39.8686443
  39.1680012   9.7804997  51.8489988  39.3910012   9.3624997  52.6809988
  38.5660012   9.1674997  51.4259988  39.1171759   9.6404668  51.9057022
  46.1840012   9.2974997  54.0619988  45.8880012   9.1314997  53.1669988
  47.1160012   9.0774997  54.0509988  46.2694166   9.2450640  53.9380536
  50.8050012  14.6704997  51.9519988  49.9040012  14.8534997  51.6839988
  50.8390012  14.9294997  52.8729988  50.6863041  14.7305512  52.0398197
  56.5360012   6.9154997  40.3189988  55.9820012   6.5194997  39.6469988
  56.6360012   7.8254997  40.0409988  56.4737059   6.9843586  40.1894401
  56.4990012  12.7154997  53.1559988  55.6480012  12.9534997  52.7889988
  57.0900012  12.6984997  52.4029988  56.4622487  12.7458258  53.0038893
  54.8310012  15.7014997  40.7839988  54.4580012  14.8754997  41.0929988
  55.1090012  15.5184997  39.8869988  54.8175630  15.5637303  40.7049626
  51.9920012  10.5094997  47.8049988  51.0630012  10.2774997  47.7779988
  52.4430012   9.7324997  47.4749988  51.9259216  10.3727238  47.7566917
  44.5350012  14.8374997  43.9379988  45.0620012  15.6104997  43.7379988
  43.6550012  15.0624997  43.6369988  44.4881773  14.9738005  43.8699010
  40.2900012   9.6994997  38.5249988  40.9060012  10.3264997  38.9049988
  39.4280012  10.0154997  38.7969988  40.2577698   9.8279430  38.6137183
  45.9620012  12.5004997  43.5149988  45.7210012  13.4254997  43.5559988
  45.2210012  12.0414997  43.9109988  45.8288409  12.5651421  43.5741377
  46.4770012  16.6494997  49.8299988  46.8390012  17.5044997  49.5959988
  47.0080012  16.3574997  50.5699988  46.5984473  16.7271060  49.8980855
  44.6450012  17.5224997  43.0599988  43.6950012  17.6274997  43.1109988
  44.9970012  18.3424997  43.4049988  44.5624203  17.6478314  43.1136650
  50.0210012  12.7484997  49.5299988  49.5950012  12.5214997  50.3569988
  50.6010012  12.0104997  49.3479988  50.0411868  12.6175299  49.6185830
  52.2240012  13.6774997  38.6039988  52.5770012  13.2974997  39.4089988
  51.2750012  13.5844997  38.6909988  52.1440441  13.6129596  38.7258559
  52.6790012  17.3004997  51.9999988  52.0780012  16.7454997  51.5039988
  52.9610012  17.9674997  51.3739988  52.6348519  17.3146841  51.8474952
  56.7270012  18.1574997  38.8049988  57.4710012  18.7434997  38.6649988
  56.0330012  18.7254997  39.1389988  56.7350292  18.3145582  38.8309961
  40.8020012   4.5334997  51.4069988  39.9090012   4.8724997  51.3389988
  40.7030012   3.6784997  51.8249988  40.6664164   4.4642588  51.4542235
  53.0900012  12.3504997  40.8309988  52.8120012  11.6224997  41.3869988
  54.0170012  12.4694997  41.0359988  53.1773124  12.2668802  40.9348845
  40.4530012  16.3384997  49.8419988  40.6700012  15.4064997  49.8109988
  40.6990012  16.6124997  50.7249988  40.5159549  16.2480636  49.9571763
  46.3150012  14.7894997  37.0509988  46.5540012  14.0414997  36.5039988
  46.0460012  14.4014997  37.8839988  46.3113675  14.6346638  37.0886865
  45.2520012  14.3594997  39.5079988  45.3980012  13.8394997  40.2979988
  45.2490012  15.2664997  39.8139988  45.2715989  14.4108853  39.6576088
  41.7050012  11.6124997  40.0179988  41.0190012  11.9644997  40.5849988
  42.2270012  12.3754997  39.7709988  41.6816852  11.7638578  40.0622118
  49.5360012   4.2744997  50.2969988  50.2350012   4.3484997  50.9469988
  49.1550012   3.4104997  50.4509988  49.5801767   4.1677624  50.4068322
  50.3210012   3.9264997  41.3939988  50.5410012   4.3984997  40.5909988
  50.8790012   4.3214997  42.0639988  50.4264968   4.0444285  41.3747331
  47.9890012  16.0574997  40.2569988  47.1730012  16.5544997  40.3089988
  48.5190012  16.5324997  39.6169988  47.9489161  16.1897722  40.1775956
  47.5210012   5.6544997  42.2289988  48.3330012   6.1594997  42.2749988
  47.2760012   5.5094997  43.1429988  47.5990520   5.7040375  42.3588517
  48.0560012   6.6404997  51.4139988  48.1750012   7.2144997  52.1709988
  48.7120012   5.9524997  51.5279988  48.1609757   6.6261079  51.5330825
  48.4040012   2.7354997  43.1669988  48.0580012   3.3534997  43.8119988
  49.0630012   3.2364997  42.6859988  48.4457826   2.8875802  43.1900971
  45.3280012  17.1014997  40.2389988  45.4880012  17.9004997  39.7379988
  45.1300012  17.4074997  41.1239988  45.3231649  17.2524469  40.2899815
  44.0620012   3.7984997  39.8539988  43.9790012   4.6874997  40.2009988
  44.9520012   3.5334997  40.0859988  44.1709469   3.8841430  39.9327626
  54.2610012   4.5474997  52.2489988  53.3440012   4.8104997  52.1609988
  54.5960012   4.5444997  51.3519988  54.1809900   4.5830224  52.1157919
  52.8630012   8.2984997  46.3439988  52.0650012   7.8834997  46.0159988
  53.3080012   7.6074997  46.8349988  52.8139885   8.1483543  46.3654889
  42.3210012  14.2264997  38.9149988  42.9130012  14.9254997  39.1909988
  42.7800012  13.7934997  38.1949988  42.4641142  14.2637049  38.8554830
  40.6370012   6.8904997  38.0309988  40.5920012   7.8294997  38.2089988
  39.7490012   6.6544997  37.7609988  40.5108574   6.9871892  38.0188912
  53.9490012  17.5544997  47.9669988  53.7940012  18.2324997  47.3099988
  54.8820012  17.6264997  48.1699988  54.0538500  17.6570170  47.9045119
  41.4450012   1.6724997  46.7039988  41.2160012   1.7314997  45.7759988
  41.0020012   0.8804997  47.0099988  41.3538530   1.5735753  46.6184786
  40.3750012  15.6124997  42.8639988  39.5430012  16.0854997  42.8919988
  40.9210012  16.1224997  42.2659988  40.3349739  15.7461871  42.7869716
  39.6630012  18.2254997  54.1939988  40.2040012  18.0084997  54.9539988
  39.1820012  17.4194997  54.0049988  39.6719345  18.0869514  54.2723076
  44.2610012  17.1444997  55.8149988  45.0280012  16.6854997  56.1559988
  44.2390012  16.9184997  54.8849988  44.3631434  17.0510409  55.7360043
  48.3530012  16.6524997  37.1899988  47.7090012  16.0214997  37.5109988
  49.1150012  16.1214997  36.9579988  48.3678077  16.4942920  37.2026011
  50.8380012  15.5244997  54.5439988  50.4870012  14.6684997  54.7869988
  51.5640012  15.6674997  55.1509988  50.8880769  15.4265636  54.6593619
  52.9570012  16.4694997  37.4239988  53.2400012  15.6754997  37.8759988
  53.6970012  16.7024997  36.8629988  53.0957486  16.3922803  37.4100698
  39.5700012  12.0354997  55.1489988  39.7140012  11.1334997  54.8619988
  38.7980012  12.3214997  54.6609988  39.4853323  11.9508261  55.0437881
  43.9120012  12.3794997  37.2809988  43.9760012  11.5854997  37.8119988
  44.5650012  12.2604997  36.5909988  44.0090241  12.2547148  37.2604317
  46.2260012  12.0054997  54.5809988  45.8970012  12.2764997  53.7239988
  46.3780012  11.0644997  54.4939988  46.2014809  11.9153862  54.4518244
  49.2640012  13.4264997  37.0169988  48.9950012  13.6064997  37.9179988
  49.0580012  12.5004997  36.8859988  49.1993825  13.3260152  37.1225214
  51.9600012  11.9214997  51.9649988  52.7060012  12.5094997  51.8449988
  51.2030012  12.5034997  52.0279988  51.9597554  12.0807011  51.9570907
  40.4030012   9.2354997  54.5689988  40.8110012   8.3784997  54.4479988
  40.1430012   9.2504997  55.4899988  40.4237568   9.1200807  54.6769588
  45.0610012  10.3514997  39.5869988  44.6010012   9.8674997  40.2729988
  45.3160012   9.6834997  38.9509988  45.0324902  10.1948731  39.5949334
  44.3500012   8.2444997  51.9429988  43.7320012   8.9194997  52.2229988
  44.6940012   8.5654997  51.1099988  44.3119615   8.3802721  51.8686581
  46.1320012   8.5944997  37.8489988  45.9520012   8.4404997  36.9219988
  47.0820012   8.7024997  37.8939988  46.2357776   8.5880175  37.7281843
  49.3700012  10.7164997  55.2199988  50.3230012  10.7994997  55.1929988
  49.2090012  10.0044997  55.8399988  49.4786426  10.6316746  55.3000579
  55.5220012  10.9494997  37.2949988  55.2480012  10.5244997  36.4819988
  55.5610012  11.8804997  37.0779988  55.4897699  11.0172484  37.1543610
  44.6890012   5.5994997  53.0249988  44.8390012   4.8704997  52.4229988
  44.6920012   6.3764997  52.4659988  44.7099302   5.6047851  52.8670692
  45.1020012   3.9694997  50.5179988  45.6380012   4.4204997  49.8659988
  44.2500012   3.8614997  50.0949988  45.0602178   4.0166390  50.3715756
  46.6840012   9.4084997  50.7569988  47.4340012   9.2524997  50.1839988
  46.3450012  10.2604997  50.4819988  46.7408921   9.5022968  50.6413561
  51.0990012   7.2234997  55.7859988  51.2920012   6.2924997  55.6739988
  51.9570012   7.6484997  55.7759988  51.2413020   7.1536389  55.7693361
  52.4160012  10.0124997  53.8629988  52.1350012  10.7214997  53.2859988
  53.3590012   9.9394997  53.7119988  52.5049027  10.0997646  53.7635551
  43.1680012   6.7974997  54.9369988  42.4010012   6.2654997  54.7269988
  43.8470012   6.4874997  54.3369988  43.1547022   6.6827506  54.8271648
  45.9080012   1.4254997  50.9489988  45.8090012   2.3724997  50.8439988
  45.1650012   1.0534997  50.4739988  45.7940564   1.5045902  50.8704560
  47.1720012   5.7474997  54.5129988  46.9360012   5.5274997  55.4149988
  46.3880012   5.5404997  54.0029988  47.0338628   5.6894760  54.5673932
  49.8870012   4.8744997  53.5889988  48.9400012   4.9064997  53.7209988
  50.2000012   4.2494997  54.2419988  49.7995475   4.7943207  53.6954455
  51.5210012   3.5084997  55.5939988  51.4250012   2.5564997  55.5879988
  51.2000012   3.7774997  56.4539988  51.4644070   3.4144035  55.7095441
  41.3480012   4.7184997  54.6409988  41.5600012   4.0114997  54.0309988
  41.2370012   4.2804997  55.4849988  41.3619721   4.5627084  54.6716843
  46.1290012   0.7194997  53.6209988  46.8410012   0.0794997  53.6069988
  46.0280012   0.9864997  52.7069988  46.2127939   0.6679938  53.4955650
  46.4830012   2.4024997  55.6739988  46.3510012   1.9264997  54.8539988
  45.8840012   3.1464997  55.6189988  46.3839071   2.4379618  55.5542886
  46.0290012  19.2854997  38.8509988  46.9620012  19.4434997  38.9939988
  45.7650012  19.9604997  38.2259988  46.1209510  19.3983611  38.7860741
  39.5980012  13.9214997  38.3329988  40.5120012  14.0004997  38.6069988
  39.6050012  13.2344997  37.6669988  39.7241131  13.8393961  38.2804393
  38.2470012  19.3144997  43.4109988  37.6000012  18.8524997  42.8779988
  38.6010012  18.6424997  43.9929988  38.2063849  19.1604723  43.4167959
  39.1170012  17.3954997  45.2149988  38.7820012  16.5154997  45.3869988
  39.3390012  17.7404997  46.0799988  39.1011783  17.3217500  45.3554208
  56.6650012  18.2044997  48.1959988  56.6440012  18.3894997  49.1349988
  57.3560012  18.7734997  47.8549988  56.7554618  18.3066606  48.2783864
  56.2290012  17.7724997  51.1179988  55.7410012  17.0364997  50.7469988
  56.7780012  17.3784997  51.7959988  56.2364872  17.6186249  51.1589160
  54.6790012  13.5614997  55.7559988  53.8130012  13.4564997  56.1499988
  55.0560012  14.3204997  56.2019988  54.6113308  13.6496900  55.8702393
  55.9800012  11.8184997  41.2699988  56.8300012  12.2394997  41.3969988
  55.9860012  11.0784997  41.8769988  56.0971372  11.7760803  41.3694344
  56.3750012   9.8714997  43.0939988  55.6480012   9.3924997  43.4909988
  56.9560012  10.0774997  43.8259988  56.3539375   9.8337090  43.2474129
  56.1340012  12.6564997  48.0409988  56.9670012  12.2784997  47.7609988
  56.2460012  13.5994997  47.9219988  56.2632647  12.7322218  47.9865487
  54.6200012  15.5344997  50.3479988  53.9730012  15.8594997  50.9739988
  54.1030012  15.0944997  49.6739988  54.4614029  15.5195004  50.3425827
  56.6430012   9.7724997  39.4849988  56.1210012  10.1294997  38.7659988
  56.6100012  10.4474997  40.1629988  56.5671634   9.9125413  39.4783145
  54.9920012   7.0124997  38.0359988  55.0880012   7.6794997  37.3549988
  54.8520012   6.1964997  37.5539988  54.9862135   6.9934500  37.8778491
  54.1610012   8.3924997  43.6569988  54.0110012   7.4474997  43.6359988
  53.8080012   8.6734997  44.4999988  54.0926625   8.3010441  43.7682346
  39.1970012  10.4704997  47.6669988  39.3810012  10.3884997  46.7309988
  40.0460012  10.3464997  48.0909988  39.3370139  10.4425003  47.5961455
  55.0180012  10.3624997  53.2949988  55.6010012   9.6284997  53.4869988
  55.5820012  11.1344997  53.3419988  55.1739769  10.3664227  53.3276159
  56.5140012   8.2654997  53.9799988  55.6510012   7.8864997  53.8139988
  57.1190012   7.5264997  53.9059988  56.4775979   8.1138023  53.9472817
  54.2390012   4.4204997  37.1529988  54.8500012   4.0494997  37.7899988
  53.4030012   3.9994997  37.3489988  54.2095032   4.3127554  37.2667035
  53.8720012   5.9754997  42.1189988  54.1520012   5.0684997  42.2429988
  54.6310012   6.4094997  41.7299988  54.0129277   5.9100942  42.0833682
  54.4840012   6.5564997  47.5549988  55.4170012   6.7684997  47.5209988
  54.2490012   6.6584997  48.4769988  54.5798036   6.5992769  47.6749976
  54.5130012   7.2934997  50.3309988  53.6700012   7.5614997  50.6969988
  54.9550012   8.1154997  50.1199988  54.4574158   7.4413291  50.3525491
  38.7940012   5.7414997  53.8079988  39.7140012   5.6194997  54.0439988
  38.3450012   4.9914997  54.1969988  38.8591580   5.6233727  53.8929006
  56.7960012   1.2734997  55.6839988  57.1460012   0.6194997  55.0789988
  56.9430012   2.1104997  55.2449988  56.8638419   1.2971591  55.5417118
  54.4850012   3.2384997  42.1669988  54.6680012   2.7894997  42.9929988
  53.8860012   2.6534997  41.7039988  54.4290202   3.0979975  42.2173275
  40.0150012   4.0534997  46.6989988  40.4610012   3.2614997  47.0009988
  40.4820012   4.7694997  47.1299988  40.1390172   4.0420624  46.7984820
  38.3190012   7.0524997  47.7679988  38.8110012   6.8314997  46.9769988
  38.6820012   7.8934997  48.0489988  38.4353126   7.1358357  47.6977531
  56.3160012   3.3824997  54.0339988  55.3980012   3.6534997  53.9979988
  56.4390012   2.8474997  53.2489988  56.2071066   3.3472892  53.9230487
  56.3520012   3.3054997  38.6949988  56.7640012   2.5844997  38.2199988
  57.0340012   3.9754997  38.7539988  56.5005885   3.2972368  38.6378915
  38.6330012   3.3104997  41.8219988  37.7080012   3.5194997  41.6929988
  39.0870012   3.7944997  41.1329988  38.5677368   3.4045993  41.7111226
  53.4040012  18.2944997  43.7679988  54.0560012  17.9474997  43.1599988
  53.9140012  18.7834997  44.4139988  53.5622637  18.3130597  43.7720236
  38.5970012   2.0484997  50.1669988  37.9320012   1.8024997  50.8099988
  38.1540012   2.6704997  49.5889988  38.4460956   2.0988632  50.1769352
  40.7890012  15.2234997  54.3109988  39.9680012  15.3984997  53.8509988
  40.5360012  15.1504997  55.2319988  40.6426164  15.2375622  54.3724923
  43.7430012  16.1984997  50.5699988  43.3180012  17.0074997  50.2869988
  44.6470012  16.2834997  50.2679988  43.8070271  16.3208469  50.4903776
  48.0540012  17.5974997  53.5289988  48.2390012  17.2634997  54.4069988
  48.9000012  17.9064997  53.2069988  48.1937539  17.5936047  53.6055605
  50.3990012  18.8834997  52.7729988  51.0760012  18.2504997  52.5329988
  50.7210012  19.2844997  53.5799988  50.5351637  18.8511154  52.8492793
  55.3160012   1.4724997  51.8529988  54.5040012   1.7974997  51.4649988
  55.5490012   0.7124997  51.3199988  55.2363423   1.4142436  51.7278253
  41.1450012  19.4544997  50.6169988  40.4240012  19.8944997  50.1659988
  40.7790012  19.2034997  51.4659988  40.9969804  19.4807698  50.6699840
  43.6120012  19.0544997  49.6469988  42.7470012  19.1264997  50.0509988
  43.5570012  19.6014997  48.8629988  43.4862085  19.1382685  49.5963362
  48.3220012  18.9424997  48.8219988  47.8660012  19.4714997  48.1679988
  48.4850012  19.5454997  49.5479988  48.2815585  19.0964468  48.8305062
  50.6500012  17.8204997  49.7669988  49.7450012  17.9854997  49.5019988
  51.0790012  18.6734997  49.7019988  50.5840799  17.9584483  49.7219182
  53.2540012  19.3904997  50.0619988  53.0720012  20.3064997  49.8519988
  53.4310012  18.9804997  49.2159988  53.2530210  19.4604822  49.9187885
  40.5590012  18.0774997  47.5269988  40.5410012  17.6524997  48.3849988
  41.3640012  17.7594997  47.1189988  40.6653875  17.9763812  47.5891655
  42.7010012  16.7874997  46.1819988  42.4820012  15.8714997  46.3519988
  43.5250012  16.9274997  46.6479988  42.7824420  16.6810520  46.2682774
  45.2380012  17.2574997  47.0309988  45.4510012  16.3694997  46.7439988
  45.3020012  17.2234997  47.9849988  45.2758232  17.1313102  47.1207397
  48.7460012   2.9214997  46.1749988  48.0720012   2.2924997  46.4309988
  49.3100012   2.4374997  45.5719988  48.7299230   2.7698744  46.1285340
  53.8890012   1.0294997  46.2879988  54.4930012   1.5764997  45.7859988
  53.0190012   1.3484997  46.0479988  53.8541241   1.1475806  46.1867654
  55.6160012   2.1674997  44.6209988  56.2280012   1.6534997  44.0949988
  55.9980012   3.0454997  44.6449988  55.7514540   2.2157140  44.5521830
  41.0730012   1.5554997  43.9969988  40.2960012   1.3214997  43.4899988
  41.6030012   0.7584997  44.0059988  41.0382330   1.4156988  43.9287742
  39.9090012   1.3534997  39.8009988  40.3480012   1.9644997  39.2089988
  39.2760012   1.8914997  40.2749988  39.8834514   1.5099257  39.7840930
  45.6520012   1.4824997  43.8109988  46.5270012   1.8704997  43.7809988
  45.5160012   1.2674997  44.7329988  45.7533695   1.5065184  43.9316440
  51.2090012   1.5124997  45.4599988  51.2850012   1.6074997  44.5099988
  50.9340012   0.6044997  45.5889988  51.1822321   1.4027867  45.3475079
  52.5620012   1.5384997  41.1519988  51.8600012   2.1534997  40.9429988
  52.1180012   0.7004997  41.2829988  52.4056330   1.5095783  41.1410328
  39.8100012  17.3014997  40.6989988  39.1250012  17.2634997  40.0309988
  39.8140012  18.2144997  40.9869988  39.7168193  17.4197016  40.6465284
  41.7700012   3.2694997  38.2429988  42.2620012   2.6394997  37.7159988
  42.3940012   3.5654997  38.9069988  41.9215446   3.2233199  38.2605980
  46.7960012   3.5624997  40.6999988  46.9740012   2.9164997  41.3829988
  46.7430012   4.3964997  41.1679988  46.8131829   3.5867985  40.8565940
  48.6750012  18.5114997  39.0959988  49.5410012  18.8774997  38.9179988
  48.4280012  18.0714997  38.2819988  48.7602392  18.5021756  38.9616289
  55.3840012  18.0744997  41.7749988  55.1890012  17.3264997  41.2099988
  55.3450012  18.8324997  41.1919988  55.3520380  18.0746099  41.6188384
  41.0310012   2.0694997  53.5149988  40.6650012   1.3044997  53.9579988
  41.9440012   2.0984997  53.8019988  41.1042790   1.9687224  53.6144070
  43.0040012   1.4204997  55.0509988  43.9020012   1.1464997  54.8659988
  42.6170012   0.6774997  55.5149988  43.0746612   1.2825914  55.0883643
  41.6280012  18.2214997  37.7239988  41.3610012  18.5084997  38.5969988
  42.4000012  17.6754997  37.8759988  41.6957488  18.1870294  37.8641050
  51.4250012   0.7524997  55.2329988  51.5020012   0.3264997  56.0869988
  52.3190012   0.7664997  54.8899988  51.5563428   0.6960879  55.3035310
  54.6010012  16.8254997  53.9249988  53.8190012  16.6394997  53.4059988
  54.5290012  17.7544997  54.1429988  54.4841777  16.9256492  53.8834048
  69.0070012  10.7114997  43.9559988  69.0960012  11.6554997  43.8239988
  68.3690012  10.4364997  43.2979988  68.9329081  10.8034830  43.8489614
  67.9400012   9.9664997  47.3749988  67.9020012   9.3204997  48.0799988
  67.6180012   9.5004997  46.6039988  67.8912333   9.8149408  47.3672978
  60.3090012   9.5814997  48.9679988  60.3500012   8.9554997  49.6909988
  61.0120012  10.2054997  49.1499988  60.4096363   9.5801196  49.0916044
  71.6460012  12.9054997  45.6759988  71.2060012  12.1854997  46.1269988
  71.6330012  13.6264997  46.3059988  71.5840226  12.9043731  45.8228494
  61.2320012  14.0314997  47.5029988  60.8630012  13.2294997  47.1329988
  62.1730012  13.8624997  47.5489988  61.3087289  13.8990153  47.4586316
  57.8420012   7.6914997  42.8959988  57.3950012   8.5374997  42.8769988
  57.2810012   7.1114997  42.3799988  57.7049900   7.7289916  42.8236801
  58.5530012   9.8534997  45.0219988  58.7660012   9.0834997  45.5489988
  59.2910012   9.9424997  44.4179988  58.6818496   9.7601394  45.0125300
  68.7580012  18.0104997  45.8889988  69.3780012  17.3334997  45.6149988
  68.5500012  17.7924997  46.7969988  68.8146904  17.8883870  45.9743365
  66.3300012  12.3994997  47.7809988  66.6340012  11.7134997  47.1859988
  67.0510012  12.5174997  48.3989988  66.4690671  12.3216305  47.7831816
  74.9930012   4.0004997  48.6419988  75.0420012   4.6104997  49.3779988
  75.4180012   4.4614997  47.9189988  75.0571824   4.1463741  48.6450205
  69.4710012   6.7934997  48.1089988  69.6130012   5.8474997  48.1289988
  69.3640012   7.0004997  47.1799988  69.4759864   6.6919534  47.9862339
  62.6250012   4.8944997  45.3809988  62.6690012   5.7544997  44.9629988
  62.1680012   4.3424997  44.7469988  62.5692185   4.9375799  45.2380299
  70.3480012   5.0254997  43.7819988  70.9940012   4.6964997  44.4069988
  70.8580012   5.5434997  43.1589988  70.5054264   5.0504611  43.7833862
  59.2460012   7.2914997  46.1429988  59.8990012   6.7414997  46.5749988
  59.2700012   7.0174997  45.2259988  59.3386683   7.1791466  46.0782123
  64.4020012   8.8414997  45.3579988  65.0180012   8.3154997  45.8679988
  63.8160012   8.2014997  44.9549988  64.4070810   8.6829208  45.3733173
  75.3840012   5.4784997  50.8779988  74.6960012   6.1364997  50.7819988
  75.4000012   5.2814997  51.8139988  75.2918525   5.5420462  50.9914808
  61.4360012   3.8124997  49.4549988  61.2170012   4.3424997  48.6889988
  60.7680012   4.0394997  50.1019988  61.3157600   3.9156906  49.4376379
  68.8050012  13.3124997  42.9989988  68.5090012  12.9904997  42.1479988
  68.4800012  14.2124997  43.0399988  68.7206371  13.3900215  42.8881801
  64.0050012  11.4884997  49.7419988  63.2650012  12.0864997  49.8459988
  64.7190012  12.0424997  49.4269988  64.0002237  11.6452831  49.7136465
  72.1120012   4.3164997  45.7619988  71.8960012   3.5504997  46.2949988
  72.7670012   4.7884997  46.2749988  72.1710632   4.2755889  45.9042861
  61.0290012   5.7044997  47.4069988  61.6430012   6.3374997  47.7809988
  61.5410012   5.2324997  46.7509988  61.1822296   5.7272370  47.3694252
  62.4120012  13.4524997  50.5299988  62.4070012  14.3324997  50.1519988
  61.5590012  13.3694997  50.9549988  62.2959464  13.5616117  50.5357907
  58.5330012  13.1234997  41.3119988  58.2610012  13.3524997  40.4229988
  58.5790012  13.9614997  41.7719988  58.5020094  13.2681213  41.2525697
  72.1580012  14.7454997  48.0239988  71.2170012  14.8034997  48.1859988
  72.4350012  15.6514997  47.8869988  72.0664679  14.8759443  48.0276815
  72.4590012   3.0314997  49.4419988  71.7230012   3.6424997  49.4039988
  73.1420012   3.4464997  48.9149988  72.4506541   3.1711374  49.3655832
  65.4620012   1.1184997  46.9079988  65.3450012   0.1694997  46.8529988
  64.6070012   1.4504997  47.1809988  65.3303733   1.0335409  46.9373897
  70.4100012  16.5264997  44.6499988  70.8360012  15.8194997  44.1649988
  70.7270012  17.3274997  44.2329988  70.5111019  16.5380994  44.5273130
  71.5700012  14.4274997  43.1579988  71.3120012  13.7374997  42.5469988
  71.6410012  13.9844997  44.0039988  71.5442856  14.2732124  43.1886885
  73.2560012  12.9934997  51.6359988  73.3960012  12.4024997  50.8959988
  73.4230012  13.8664997  51.2789988  73.2976778  13.0306426  51.4866965
  67.7290012   9.9554997  41.4079988  67.0170012  10.4904997  41.0559988
  68.4200012  10.0114997  40.7479988  67.7250132  10.0362543  41.2706289
  67.7820012   8.4134997  38.4469988  68.4830012   8.4354997  39.0979988
  68.0850012   7.7854997  37.7909988  67.9187830   8.3316566  38.4473711
  75.0980012   9.3334997  49.7019988  74.4450012  10.0284997  49.7909988
  75.5630012   9.5434997  48.8919988  75.0715390   9.4569425  49.6046883
  71.1340012  10.1654997  42.3599988  70.4020012  10.3934997  42.9329988
  71.5820012   9.4514997  42.8149988  71.0943095  10.1002571  42.4999119
  71.0320012   8.3394997  51.4269988  71.1120012   9.1024997  51.9989988
  70.4300012   8.6184997  50.7369988  70.9615756   8.4817134  51.4120589
  62.7800012  10.7954997  44.2419988  62.4490012  10.4254997  43.4239988
  63.3680012  10.1254997  44.5889988  62.8141873  10.6541156  44.1768102
  64.1460012  14.2234997  46.9239988  64.0520012  13.6454997  46.1669988
  64.8760012  13.8524997  47.4199988  64.2317981  14.0942390  46.8874165
  63.1460012   9.5644997  47.8759988  63.7120012   9.6854997  47.1129988
  63.4650012  10.2014997  48.5149988  63.2665786   9.6671884  47.8580040
  69.4550012  15.0674997  48.6099988  69.2150012  15.7294997  49.2579988
  69.2570012  14.2334997  49.0349988  69.3953808  15.0453134  48.7561524
  64.0260012  13.9634997  52.5929988  63.7150012  14.7454997  53.0479988
  63.3760012  13.8104997  51.9069988  63.8955558  14.0499105  52.5625871
  70.0050012   9.3274997  40.0449988  70.5850012   9.4774997  40.7919988
  70.4190012   9.7984997  39.3219988  70.1402831   9.4116841  40.0494134
  60.9460012  10.1614997  51.8219988  61.0170012  10.8124997  52.5199988
  60.0560012  10.2644997  51.4869988  60.8353117  10.2645936  51.8722700
  67.7320012  16.0644997  43.4799988  68.2060012  16.3594997  44.2579988
  67.1690012  16.8024997  43.2469988  67.7207653  16.2046932  43.5550136
  62.2660012  16.0354997  53.3559988  62.2730012  15.8994997  52.4089988
  61.3500012  15.9174997  53.6079988  62.1431714  16.0009430  53.2604666
  73.7040012   1.0774997  39.8579988  72.8040012   1.2164997  40.1529988
  73.9560012   1.9084997  39.4559988  73.6148702   1.2089074  39.8440205
  61.7700012   9.8654997  41.8319988  61.4780012  10.6334997  41.3409988
  61.0960012   9.2054997  41.6689988  61.6389081   9.8814406  41.7427340
  74.8930012  15.4434997  38.2339988  74.9670012  16.3824997  38.4049988
  75.7990012  15.1384997  38.1779988  75.0255100  15.5306722  38.2498119
  57.8630012  12.2284997  50.6469988  57.3620012  12.2004997  49.8319988
  57.8680012  11.3224997  50.9559988  57.7951526  12.1022278  50.5772872
  57.6130012  15.0084997  47.5309988  58.5590012  14.8644997  47.5119988
  57.5010012  15.7924997  48.0679988  57.7272727  15.0948046  47.6010072
  75.8110012  15.6744997  53.2129988  75.7620012  14.7194997  53.1759988
  74.9840012  15.9424997  53.6139988  75.6924940  15.5798998  53.2621375
  66.7900012  15.2484997  52.0889988  66.8770012  16.0744997  52.5639988
  65.9260012  14.9184997  52.3379988  66.6851964  15.3169878  52.1876549
  67.2040012  19.0204997  41.8949988  67.1290012  18.8994997  40.9489988
  67.2370012  19.9704997  42.0139988  67.1981848  19.1322500  41.7814834
  60.8570012  17.8094997  43.6759988  61.0100012  17.4614997  44.5549988
  60.0070012  17.4534997  43.4209988  60.7628962  17.7136650  43.7618340
  70.3060012  18.1744997  38.8969988  70.6810012  17.4304997  38.4269988
  70.3100012  17.9044997  39.8159988  70.3578915  18.0361486  38.9567824
  69.9750012  18.1004997  41.6469988  69.0390012  18.2004997  41.8249988
  70.2550012  17.3914997  42.2249988  69.8848255  18.0182711  41.7495391
  72.9630012   7.1674997  53.6929988  72.5560012   7.6484997  52.9719988
  73.0040012   6.2624997  53.3849988  72.9128437   7.1109374  53.5526683
  60.1120012  13.5514997  51.6899988  60.3280012  13.1904997  52.5489988
  59.2570012  13.1774997  51.4799988  60.0259292  13.4514111  51.7793386
  62.7310012   2.0214997  47.6849988  61.8690012   1.9344997  47.2779988
  62.7080012   2.8774997  48.1129988  62.6100330   2.1252765  47.6871863
  67.3940012   1.7434997  51.0599988  67.8140012   1.3284997  51.8129988
  66.4610012   1.5654997  51.1769988  67.3253644   1.6625900  51.1789539
  70.7200012   5.4994997  51.9129988  70.2060012   5.3734997  52.7109988
  70.5650012   6.4114997  51.6689988  70.6286852   5.6056132  51.9892158
  71.4830012  10.3604997  37.6749988  71.5250012  10.1374997  36.7449988
  72.3320012  10.7594997  37.8649988  71.6035396  10.3839155  37.5733627
  67.0550012   4.2364997  38.3449988  66.8020012   4.2554997  39.2679988
  66.7990012   3.3644997  38.0439988  66.9857790   4.1212437  38.4306263
  62.8220012   6.9874997  48.7799988  62.1800012   6.9464997  49.4889988
  62.8590012   7.9134997  48.5429988  62.7391324   7.1071559  48.8449824
  62.8190012   7.2084997  43.6919988  61.9260012   6.8674997  43.6339988
  63.2690012   6.8314997  42.9369988  62.7577305   7.1108484  43.5819177
  68.3540012   7.6244997  42.5089988  67.9450012   8.4394997  42.2179988
  69.0750012   7.4844997  41.8949988  68.3954537   7.7172018  42.3861342
  67.4560012   7.7994997  53.9969988  66.8940012   7.0954997  54.3179988
  68.2830012   7.6794997  54.4649988  67.4907095   7.6867883  54.1042330
  69.3590012   7.0704997  45.3229988  69.1640012   7.6754997  44.6079988
  69.5400012   6.2364997  44.8889988  69.3567614   7.0406300  45.1664405
  60.5720012   7.3074997  50.6469988  60.5340012   7.7074997  51.5159988
  60.0810012   6.4904997  50.7379988  60.5004684   7.2518069  50.7781059
  63.9380012   4.6814997  37.4459988  63.5070012   4.2364997  38.1759988
  63.2200012   5.0534997  36.9339988  63.7819438   4.6708940  37.4766799
  57.1800012   4.4234997  44.4979988  57.8110012   4.3944997  45.2169988
  57.6290012   3.9984997  43.7679988  57.3270774   4.3620492  44.4976553
  58.4540012   5.1694997  39.9219988  58.9280012   5.7604997  39.3369988
  57.7370012   5.7004997  40.2689988  58.4219341   5.3220867  39.8888836
  68.6230012   8.7084997  49.9949988  68.9460012   8.0774997  49.3519988
  68.1830012   8.1734997  50.6549988  68.6076895   8.5498440  49.9962850
  65.4000012   4.6354997  44.7789988  64.4890012   4.6924997  45.0669988
  65.9060012   4.5754997  45.5889988  65.3435413   4.6351985  44.9280622
  60.2290012   6.2644997  43.6049988  59.3390012   6.3644997  43.2649988
  60.5250012   5.4224997  43.2589988  60.1472823   6.1643545  43.5117213
  63.8820012   6.2644997  41.2619988  64.8130012   6.3934997  41.4399988
  63.6670012   6.9344997  40.6119988  63.9804247   6.3726565  41.1985747
  69.8050012   3.8704997  48.0429988  69.1290012   4.0014997  48.7069988
  69.3200012   3.7154997  47.2329988  69.6467145   3.8674905  48.0244517
  62.5560012   7.4594997  38.8289988  62.0130012   7.0794997  38.1369988
  63.3890012   7.6534997  38.3999988  62.5944399   7.4338124  38.6764526
  73.0930012  19.5424997  54.3199988  73.2930012  19.9664997  53.4849988
  73.7480012  19.8854997  54.9269988  73.2090051  19.6469648  54.2877836
  60.6910012  12.0164997  53.9279988  61.4230012  12.2704997  54.4889988
  59.9110012  12.2204997  54.4429988  60.6858232  12.0789177  54.0745760
  66.7200012   7.4234997  46.6659988  67.2850012   6.8764997  46.1189988
  66.5730012   6.9014997  47.4539988  66.7772918   7.2782024  46.6978454
  61.7220012   3.5594997  43.0839988  61.4050012   2.6574997  43.0489988
  62.5040012   3.5614997  42.5309988  61.7842284   3.4361628  43.0044783
  65.3470012   5.8114997  49.0799988  64.5110012   6.2654997  49.1899988
  65.8710012   6.0874997  49.8319988  65.3034414   5.9109376  49.1967136
  65.8910012  12.0244997  40.7639988  65.1460012  11.5174997  40.4419988
  65.7570012  12.0734997  41.7109988  65.7708776  11.9616940  40.8478647
  73.0410012  11.1574997  49.5509988  73.6830012  11.6144997  49.0069988
  72.2110012  11.2704997  49.0879988  73.0165963  11.2352704  49.4140177
  69.7890012   4.8384997  38.9639988  68.8500012   4.9504997  38.8119988
  70.0860012   5.6954997  39.2699988  69.7007666   4.9696443  38.9845768
  67.4100012  12.2084997  52.0009988  67.0650012  11.8274997  52.8079988
  67.2100012  13.1424997  52.0729988  67.3358061  12.2825228  52.1210961
  70.5070012   6.7054997  40.6239988  71.3990012   6.5684997  40.9429988
  70.5640012   7.4964997  40.0879988  70.6366285   6.7936660  40.5951690
  61.0160012  11.3194997  46.5339988  61.7610012  11.3174997  45.9329988
  61.0940012  10.4964997  47.0159988  61.1285518  11.2079315  46.5168929
  68.0170012  13.4834997  39.7899988  67.7210012  14.3094997  40.1709988
  67.3140012  12.8634997  39.9859988  67.8814914  13.5128199  39.8686443
  58.0240012   9.7804997  51.8489988  58.2470012   9.3624997  52.6809988
  57.4220012   9.1674997  51.4259988  57.9731759   9.6404668  51.9057022
  65.0400012   9.2974997  54.0619988  64.7440012   9.1314997  53.1669988
  65.9720012   9.0774997  54.0509988  65.1254166   9.2450640  53.9380536
  69.6610012  14.6704997  51.9519988  68.7600012  14.8534997  51.6839988
  69.6950012  14.9294997  52.8729988  69.5423041  14.7305512  52.0398197
  75.3920012   6.9154997  40.3189988  74.8380012   6.5194997  39.6469988
  75.4920012   7.8254997  40.0409988  75.3297059   6.9843586  40.1894401
  75.3550012  12.7154997  53.1559988  74.5040012  12.9534997  52.7889988
  75.9460012  12.6984997  52.4029988  75.3182487  12.7458258  53.0038893
  73.6870012  15.7014997  40.7839988  73.3140012  14.8754997  41.0929988
  73.9650012  15.5184997  39.8869988  73.6735630  15.5637303  40.7049626
  70.8480012  10.5094997  47.8049988  69.9190012  10.2774997  47.7779988
  71.2990012   9.7324997  47.4749988  70.7819216  10.3727238  47.7566917
  63.3910012  14.8374997  43.9379988  63.9180012  15.6104997  43.7379988
  62.5110012  15.0624997  43.6369988  63.3441773  14.9738005  43.8699010
  59.1460012   9.6994997  38.5249988  59.7620012  10.3264997  38.9049988
  58.2840012  10.0154997  38.7969988  59.1137698   9.8279430  38.6137183
  64.8180012  12.5004997  43.5149988  64.5770012  13.4254997  43.5559988
  64.0770012  12.0414997  43.9109988  64.6848409  12.5651421  43.5741377
  65.3330012  16.6494997  49.8299988  65.6950012  17.5044997  49.5959988
  65.8640012  16.3574997  50.5699988  65.4544473  16.7271060  49.8980855
  63.5010012  17.5224997  43.0599988  62.5510012  17.6274997  43.1109988
  63.8530012  18.3424997  43.4049988  63.4184203  17.6478314  43.1136650
  68.8770012  12.7484997  49.5299988  68.4510012  12.5214997  50.3569988
  69.4570012  12.0104997  49.3479988  68.8971868  12.6175299  49.6185830
  71.0800012  13.6774997  38.6039988  71.4330012  13.2974997  39.4089988
  70.1310012  13.5844997  38.6909988  71.0000441  13.6129596  38.7258559
  71.5350012  17.3004997  51.9999988  70.9340012  16.7454997  51.5039988
  71.8170012  17.9674997  51.3739988  71.4908519  17.3146841  51.8474951
  75.5830012  18.1574997  38.8049988  76.3270012  18.7434997  38.6649988
  74.8890012  18.7254997  39.1389988  75.5910292  18.3145582  38.8309961
  59.6580012   4.5334997  51.4069988  58.7650012   4.8724997  51.3389988
  59.5590012   3.6784997  51.8249988  59.5224164   4.4642588  51.4542235
  71.9460012  12.3504997  40.8309988  71.6680012  11.6224997  41.3869988
  72.8730012  12.4694997  41.0359988  72.0333124  12.2668802  40.9348845
  59.3090012  16.3384997  49.8419988  59.5260012  15.4064997  49.8109988
  59.5550012  16.6124997  50.7249988  59.3719549  16.2480636  49.9571763
  65.1710012  14.7894997  37.0509988  65.4100012  14.0414997  36.5039988
  64.9020012  14.4014997  37.8839988  65.1673675  14.6346638  37.0886865
  64.1080012  14.3594997  39.5079988  64.2540012  13.8394997  40.2979988
  64.1050012  15.2664997  39.8139988  64.1275989  14.4108853  39.6576088
  60.5610012  11.6124997  40.0179988  59.8750012  11.9644997  40.5849988
  61.0830012  12.3754997  39.7709988  60.5376852  11.7638578  40.0622118
  68.3920012   4.2744997  50.2969988  69.0910012   4.3484997  50.9469988
  68.0110012   3.4104997  50.4509988  68.4361767   4.1677624  50.4068322
  69.1770012   3.9264997  41.3939988  69.3970012   4.3984997  40.5909988
  69.7350012   4.3214997  42.0639988  69.2824968   4.0444285  41.3747331
  66.8450012  16.0574997  40.2569988  66.0290012  16.5544997  40.3089988
  67.3750012  16.5324997  39.6169988  66.8049161  16.1897722  40.1775956
  66.3770012   5.6544997  42.2289988  67.1890012   6.1594997  42.2749988
  66.1320012   5.5094997  43.1429988  66.4550520   5.7040375  42.3588517
  66.9120012   6.6404997  51.4139988  67.0310012   7.2144997  52.1709988
  67.5680012   5.9524997  51.5279988  67.0169757   6.6261079  51.5330825
  67.2600012   2.7354997  43.1669988  66.9140012   3.3534997  43.8119988
  67.9190012   3.2364997  42.6859988  67.3017826   2.8875802  43.1900971
  64.1840012  17.1014997  40.2389988  64.3440012  17.9004997  39.7379988
  63.9860012  17.4074997  41.1239988  64.1791649  17.2524469  40.2899815
  62.9180012   3.7984997  39.8539988  62.8350012   4.6874997  40.2009988
  63.8080012   3.5334997  40.0859988  63.0269469   3.8841430  39.9327626
  73.1170012   4.5474997  52.2489988  72.2000012   4.8104997  52.1609988
  73.4520012   4.5444997  51.3519988  73.0369900   4.5830224  52.1157919
  71.7190012   8.2984997  46.3439988  70.9210012   7.8834997  46.0159988
  72.1640012   7.6074997  46.8349988  71.6699885   8.1483543  46.3654889
  61.1770012  14.2264997  38.9149988  61.7690012  14.9254997  39.1909988
  61.6360012  13.7934997  38.1949988  61.3201142  14.2637049  38.8554830
  59.4930012   6.8904997  38.0309988  59.4480012   7.8294997  38.2089988
  58.6050012   6.6544997  37.7609988  59.3668574   6.9871892  38.0188912
  72.8050012  17.5544997  47.9669988  72.6500012  18.2324997  47.3099988
  73.7380012  17.6264997  48.1699988  72.9098500  17.6570170  47.9045119
  60.3010012   1.6724997  46.7039988  60.0720012   1.7314997  45.7759988
  59.8580012   0.8804997  47.0099988  60.2098530   1.5735753  46.6184786
  59.2310012  15.6124997  42.8639988  58.3990012  16.0854997  42.8919988
  59.7770012  16.1224997  42.2659988  59.1909739  15.7461871  42.7869716
  58.5190012  18.2254997  54.1939988  59.0600012  18.0084997  54.9539988
  58.0380012  17.4194997  54.0049988  58.5279345  18.0869514  54.2723076
  63.1170012  17.1444997  55.8149988  63.8840012  16.6854997  56.1559988
  63.0950012  16.9184997  54.8849988  63.2191434  17.0510409  55.7360043
  67.2090012  16.6524997  37.1899988  66.5650012  16.0214997  37.5109988
  67.9710012  16.1214997  36.9579988  67.2238077  16.4942920  37.2026011
  69.6940012  15.5244997  54.5439988  69.3430012  14.6684997  54.7869988
  70.4200012  15.6674997  55.1509988  69.7440769  15.4265636  54.6593619
  71.8130012  16.4694997  37.4239988  72.0960012  15.6754997  37.8759988
  72.5530012  16.7024997  36.8629988  71.9517486  16.3922803  37.4100698
  58.4260012  12.0354997  55.1489988  58.5700012  11.1334997  54.8619988
  57.6540012  12.3214997  54.6609988  58.3413323  11.9508261  55.0437881
  62.7680012  12.3794997  37.2809988  62.8320012  11.5854997  37.8119988
  63.4210012  12.2604997  36.5909988  62.8650241  12.2547148  37.2604317
  65.0820012  12.0054997  54.5809988  64.7530012  12.2764997  53.7239988
  65.2340012  11.0644997  54.4939988  65.0574809  11.9153862  54.4518244
  68.1200012  13.4264997  37.0169988  67.8510012  13.6064997  37.9179988
  67.9140012  12.5004997  36.8859988  68.0553825  13.3260152  37.1225214
  70.8160012  11.9214997  51.9649988  71.5620012  12.5094997  51.8449988
  70.0590012  12.5034997  52.0279988  70.8157554  12.0807011  51.9570907
  59.2590012   9.2354997  54.5689988  59.6670012   8.3784997  54.4479988
  58.9990012   9.2504997  55.4899988  59.2797568   9.1200807  54.6769588
  63.9170012  10.3514997  39.5869988  63.4570012   9.8674997  40.2729988
  64.1720012   9.6834997  38.9509988  63.8884902  10.1948731  39.5949334
  63.2060012   8.2444997  51.9429988  62.5880012   8.9194997  52.2229988
  63.5500012   8.5654997  51.1099988  63.1679615   8.3802721  51.8686581
  64.9880012   8.5944997  37.8489988  64.8080012   8.4404997  36.9219988
  65.9380012   8.7024997  37.8939988  65.0917776   8.5880175  37.7281843
  68.2260012  10.7164997  55.2199988  69.1790012  10.7994997  55.1929988
  68.0650012  10.0044997  55.8399988  68.3346426  10.6316746  55.3000579
  74.3780012  10.9494997  37.2949988  74.1040012  10.5244997  36.4819988
  74.4170012  11.8804997  37.0779988  74.3457699  11.0172484  37.1543610
  63.5450012   5.5994997  53.0249988  63.6950012   4.8704997  52.4229988
  63.5480012   6.3764997  52.4659988  63.5659302   5.6047851  52.8670692
  63.9580012   3.9694997  50.5179988  64.4940012   4.4204997  49.8659988
  63.1060012   3.8614997  50.0949988  63.9162178   4.0166390  50.3715756
  65.5400012   9.4084997  50.7569988  66.2900012   9.2524997  50.1839988
  65.2010012  10.2604997  50.4819988  65.5968921   9.5022968  50.6413561
  69.9550012   7.2234997  55.7859988  70.1480012   6.2924997  55.6739988
  70.8130012   7.6484997  55.7759988  70.0973020   7.1536389  55.7693361
  71.2720012  10.0124997  53.8629988  70.9910012  10.7214997  53.2859988
  72.2150012   9.9394997  53.7119988  71.3609027  10.0997646  53.7635551
  62.0240012   6.7974997  54.9369988  61.2570012   6.2654997  54.7269988
  62.7030012   6.4874997  54.3369988  62.0107022   6.6827506  54.8271648
  64.7640012   1.4254997  50.9489988  64.6650012   2.3724997  50.8439988
  64.0210012   1.0534997  50.4739988  64.6500564   1.5045902  50.8704560
  66.0280012   5.7474997  54.5129988  65.7920012   5.5274997  55.4149988
  65.2440012   5.5404997  54.0029988  65.8898628   5.6894760  54.5673932
  68.7430012   4.8744997  53.5889988  67.7960012   4.9064997  53.7209988
  69.0560012   4.2494997  54.2419988  68.6555475   4.7943207  53.6954455
  70.3770012   3.5084997  55.5939988  70.2810012   2.5564997  55.5879988
  70.0560012   3.7774997  56.4539988  70.3204070   3.4144035  55.7095441
  60.2040012   4.7184997  54.6409988  60.4160012   4.0114997  54.0309988
  60.0930012   4.2804997  55.4849988  60.2179721   4.5627084  54.6716843
  64.9850012   0.7194997  53.6209988  65.6970012   0.0794997  53.6069988
  64.8840012   0.9864997  52.7069988  65.0687939   0.6679938  53.4955650
  65.3390012   2.4024997  55.6739988  65.2070012   1.9264997  54.8539988
  64.7400012   3.1464997  55.6189988  65.2399071   2.4379618  55.5542886
  64.8850012  19.2854997  38.8509988  65.8180012  19.4434997  38.9939988
  64.6210012  19.9604997  38.2259988  64.9769510  19.3983611  38.7860741
  58.4540012  13.9214997  38.3329988  59.3680012  14.0004997  38.6069988
  58.4610012  13.2344997  37.6669988  58.5801131  13.8393961  38.2804393
  57.1030012  19.3144997  43.4109988  56.4560012  18.8524997  42.8779988
  57.4570012  18.6424997  43.9929988  57.0623849  19.1604723  43.4167959
  57.9730012  17.3954997  45.2149988  57.6380012  16.5154997  45.3869988
  58.1950012  17.7404997  46.0799988  57.9571783  17.3217500  45.3554208
  75.5210012  18.2044997  48.1959988  75.5000012  18.3894997  49.1349988
  76.2120012  18.7734997  47.8549988  75.6114618  18.3066606  48.2783864
  75.0850012  17.7724997  51.1179988  74.5970012  17.0364997  50.7469988
  75.6340012  17.3784997  51.7959988  75.0924872  17.6186249  51.1589160
  73.5350012  13.5614997  55.7559988  72.6690012  13.4564997  56.1499988
  73.9120012  14.3204997  56.2019988  73.4673308  13.6496900  55.8702393
  74.8360012  11.8184997  41.2699988  75.6860012  12.2394997  41.3969988
  74.8420012  11.0784997  41.8769988  74.9531372  11.7760803  41.3694344
  75.2310012   9.8714997  43.0939988  74.5040012   9.3924997  43.4909988
  75.8120012  10.0774997  43.8259988  75.2099375   9.8337090  43.2474129
  74.9900012  12.6564997  48.0409988  75.8230012  12.2784997  47.7609988
  75.1020012  13.5994997  47.9219988  75.1192647  12.7322218  47.9865487
  73.4760012  15.5344997  50.3479988  72.8290012  15.8594997  50.9739988
  72.9590012  15.0944997  49.6739988  73.3174029  15.5195004  50.3425827
  75.4990012   9.7724997  39.4849988  74.9770012  10.1294997  38.7659988
  75.4660012  10.4474997  40.1629988  75.4231634   9.9125413  39.4783145
  73.8480012   7.0124997  38.0359988  73.9440012   7.6794997  37.3549988
  73.7080012   6.1964997  37.5539988  73.8422135   6.9934500  37.8778491
  73.0170012   8.3924997  43.6569988  72.8670012   7.4474997  43.6359988
  72.6640012   8.6734997  44.4999988  72.9486625   8.3010441  43.7682346
  58.0530012  10.4704997  47.6669988  58.2370012  10.3884997  46.7309988
  58.9020012  10.3464997  48.0909988  58.1930139  10.4425003  47.5961455
  73.8740012  10.3624997  53.2949988  74.4570012   9.6284997  53.4869988
  74.4380012  11.1344997  53.3419988  74.0299769  10.3664227  53.3276159
  75.3700012   8.2654997  53.9799988  74.5070012   7.8864997  53.8139988
  75.9750012   7.5264997  53.9059988  75.3335979   8.1138023  53.9472817
  73.0950012   4.4204997  37.1529988  73.7060012   4.0494997  37.7899988
  72.2590012   3.9994997  37.3489988  73.0655032   4.3127554  37.2667035
  72.7280012   5.9754997  42.1189988  73.0080012   5.0684997  42.2429988
  73.4870012   6.4094997  41.7299988  72.8689277   5.9100942  42.0833682
  73.3400012   6.5564997  47.5549988  74.2730012   6.7684997  47.5209988
  73.1050012   6.6584997  48.4769988  73.4358036   6.5992769  47.6749976
  73.3690012   7.2934997  50.3309988  72.5260012   7.5614997  50.6969988
  73.8110012   8.1154997  50.1199988  73.3134158   7.4413291  50.3525491
  57.6500012   5.7414997  53.8079988  58.5700012   5.6194997  54.0439988
  57.2010012   4.9914997  54.1969988  57.7151580   5.6233727  53.8929006
  75.6520012   1.2734997  55.6839988  76.0020012   0.6194997  55.0789988
  75.7990012   2.1104997  55.2449988  75.7198419   1.2971591  55.5417118
  73.3410012   3.2384997  42.1669988  73.5240012   2.7894997  42.9929988
  72.7420012   2.6534997  41.7039988  73.2850202   3.0979975  42.2173275
  58.8710012   4.0534997  46.6989988  59.3170012   3.2614997  47.0009988
  59.3380012   4.7694997  47.1299988  58.9950172   4.0420624  46.7984820
  57.1750012   7.0524997  47.7679988  57.6670012   6.8314997  46.9769988
  57.5380012   7.8934997  48.0489988  57.2913126   7.1358357  47.6977531
  75.1720012   3.3824997  54.0339988  74.2540012   3.6534997  53.9979988
  75.2950012   2.8474997  53.2489988  75.0631066   3.3472892  53.9230487
  75.2080012   3.3054997  38.6949988  75.6200012   2.5844997  38.2199988
  75.8900012   3.9754997  38.7539988  75.3565885   3.2972368  38.6378915
  57.4890012   3.3104997  41.8219988  56.5640012   3.5194997  41.6929988
  57.9430012   3.7944997  41.1329988  57.4237368   3.4045993  41.7111226
  72.2600012  18.2944997  43.7679988  72.9120012  17.9474997  43.1599988
  72.7700012  18.7834997  44.4139988  72.4182637  18.3130597  43.7720236
  57.4530012   2.0484997  50.1669988  56.7880012   1.8024997  50.8099988
  57.0100012   2.6704997  49.5889988  57.3020956   2.0988632  50.1769352
  59.6450012  15.2234997  54.3109988  58.8240012  15.3984997  53.8509988
  59.3920012  15.1504997  55.2319988  59.4986164  15.2375622  54.3724923
  62.5990012  16.1984997  50.5699988  62.1740012  17.0074997  50.2869988
  63.5030012  16.2834997  50.2679988  62.6630271  16.3208469  50.4903776
  66.9100012  17.5974997  53.5289988  67.0950012  17.2634997  54.4069988
  67.7560012  17.9064997  53.2069988  67.0497539  17.5936047  53.6055605
  69.2550012  18.8834997  52.7729988  69.9320012  18.2504997  52.5329988
  69.5770012  19.2844997  53.5799988  69.3911637  18.8511154  52.8492793
  74.1720012   1.4724997  51.8529988  73.3600012   1.7974997  51.4649988
  74.4050012   0.7124997  51.3199988  74.0923423   1.4142436  51.7278253
  60.0010012  19.4544997  50.6169988  59.2800012  19.8944997  50.1659988
  59.6350012  19.2034997  51.4659988  59.8529804  19.4807698  50.6699840
  62.4680012  19.0544997  49.6469988  61.6030012  19.1264997  50.0509988
  62.4130012  19.6014997  48.8629988  62.3422085  19.1382685  49.5963362
  67.1780012  18.9424997  48.8219988  66.7220012  19.4714997  48.1679988
  67.3410012  19.5454997  49.5479988  67.1375585  19.0964468  48.8305062
  69.5060012  17.8204997  49.7669988  68.6010012  17.9854997  49.5019988
  69.9350012  18.6734997  49.7019988  69.4400799  17.9584483  49.7219182
  72.1100012  19.3904997  50.0619988  71.9280012  20.3064997  49.8519988
  72.2870012  18.9804997  49.2159988  72.1090210  19.4604822  49.9187885
  59.4150012  18.0774997  47.5269988  59.3970012  17.6524997  48.3849988
  60.2200012  17.7594997  47.1189988  59.5213875  17.9763812  47.5891655
  61.5570012  16.7874997  46.1819988  61.3380012  15.8714997  46.3519988
  62.3810012  16.9274997  46.6479988  61.6384420  16.6810520  46.2682774
  64.0940012  17.2574997  47.0309988  64.3070012  16.3694997  46.7439988
  64.1580012  17.2234997  47.9849988  64.1318232  17.1313102  47.1207397
  67.6020012   2.9214997  46.1749988  66.9280012   2.2924997  46.4309988
  68.1660012   2.4374997  45.5719988  67.5859230   2.7698744  46.1285340
  72.7450012   1.0294997  46.2879988  73.3490012   1.5764997  45.7859988
  71.8750012   1.3484997  46.0479988  72.7101241   1.1475806  46.1867654
  74.4720012   2.1674997  44.6209988  75.0840012   1.6534997  44.0949988
  74.8540012   3.0454997  44.6449988  74.6074540   2.2157140  44.5521830
  59.9290012   1.5554997  43.9969988  59.1520012   1.3214997  43.4899988
  60.4590012   0.7584997  44.0059988  59.8942330   1.4156988  43.9287742
  58.7650012   1.3534997  39.8009988  59.2040012   1.9644997  39.2089988
  58.1320012   1.8914997  40.2749988  58.7394514   1.5099257  39.7840930
  64.5080012   1.4824997  43.8109988  65.3830012   1.8704997  43.7809988
  64.3720012   1.2674997  44.7329988  64.6093695   1.5065184  43.9316440
  70.0650012   1.5124997  45.4599988  70.1410012   1.6074997  44.5099988
  69.7900012   0.6044997  45.5889988  70.0382321   1.4027867  45.3475079
  71.4180012   1.5384997  41.1519988  70.7160012   2.1534997  40.9429988
  70.9740012   0.7004997  41.2829988  71.2616330   1.5095783  41.1410328
  58.6660012  17.3014997  40.6989988  57.9810012  17.2634997  40.0309988
  58.6700012  18.2144997  40.9869988  58.5728193  17.4197016  40.6465284
  60.6260012   3.2694997  38.2429988  61.1180012   2.6394997  37.7159988
  61.2500012   3.5654997  38.9069988  60.7775446   3.2233199  38.2605980
  65.6520012   3.5624997  40.6999988  65.8300012   2.9164997  41.3829988
  65.5990012   4.3964997  41.1679988  65.6691829   3.5867985  40.8565940
  67.5310012  18.5114997  39.0959988  68.3970012  18.8774997  38.9179988
  67.2840012  18.0714997  38.2819988  67.6162392  18.5021756  38.9616289
  74.2400012  18.0744997  41.7749988  74.0450012  17.3264997  41.2099988
  74.2010012  18.8324997  41.1919988  74.2080380  18.0746099  41.6188384
  59.8870012   2.0694997  53.5149988  59.5210012   1.3044997  53.9579988
  60.8000012   2.0984997  53.8019988  59.9602790   1.9687224  53.6144070
  61.8600012   1.4204997  55.0509988  62.7580012   1.1464997  54.8659988
  61.4730012   0.6774997  55.5149988  61.9306612   1.2825914  55.0883643
  60.4840012  18.2214997  37.7239988  60.2170012  18.5084997  38.5969988
  61.2560012  17.6754997  37.8759988  60.5517488  18.1870294  37.8641050
  70.2810012   0.7524997  55.2329988  70.3580012   0.3264997  56.0869988
  71.1750012   0.7664997  54.8899988  70.4123428   0.6960879  55.3035310
  73.4570012  16.8254997  53.9249988  72.6750012  16.6394997  53.4059988
  73.3850012  17.7544997  54.1429988  73.3401777  16.9256492  53.8834048
  87.8630012  10.7114997  43.9559988  87.9520012  11.6554997  43.8239988
  87.2250012  10.4364997  43.2979988  87.7889081  10.8034830  43.8489614
  86.7960012   9.9664997  47.3749988  86.7580012   9.3204997  48.0799988
  86.4740012   9.5004997  46.6039988  86.7472333   9.8149408  47.3672978
  79.1650012   9.5814997  48.9679988  79.2060012   8.9554997  49.6909988
  79.8680012  10.2054997  49.1499988  79.2656363   9.5801196  49.0916044
  90.5020012  12.9054997  45.6759988  90.0620012  12.1854997  46.1269988
  90.4890012  13.6264997  46.3059988  90.4400226  12.9043731  45.8228494
  80.0880012  14.0314997  47.5029988  79.7190012  13.2294997  47.1329988
  81.0290012  13.8624997  47.5489988  80.1647289  13.8990153  47.4586316
  76.6980012   7.6914997  42.8959988  76.2510012   8.5374997  42.8769988
  76.1370012   7.1114997  42.3799988  76.5609900   7.7289916  42.8236801
  77.4090012   9.8534997  45.0219988  77.6220012   9.0834997  45.5489988
  78.1470012   9.9424997  44.4179988  77.5378496   9.7601394  45.0125300
  87.6140012  18.0104997  45.8889988  88.2340012  17.3334997  45.6149988
  87.4060012  17.7924997  46.7969988  87.6706904  17.8883870  45.9743365
  85.1860012  12.3994997  47.7809988  85.4900012  11.7134997  47.1859988
  85.9070012  12.5174997  48.3989988  85.3250671  12.3216305  47.7831816
  93.8490012   4.0004997  48.6419988  93.8980012   4.6104997  49.3779988
  94.2740012   4.4614997  47.9189988  93.9131824   4.1463741  48.6450205
  88.3270012   6.7934997  48.1089988  88.4690012   5.8474997  48.1289988
  88.2200012   7.0004997  47.1799988  88.3319864   6.6919534  47.9862339
  81.4810012   4.8944997  45.3809988  81.5250012   5.7544997  44.9629988
  81.0240012   4.3424997  44.7469988  81.4252185   4.9375799  45.2380299
  89.2040012   5.0254997  43.7819988  89.8500012   4.6964997  44.4069988
  89.7140012   5.5434997  43.1589988  89.3614264   5.0504611  43.7833862
  78.1020012   7.2914997  46.1429988  78.7550012   6.7414997  46.5749988
  78.1260012   7.0174997  45.2259988  78.1946683   7.1791466  46.0782123
  83.2580012   8.8414997  45.3579988  83.8740012   8.3154997  45.8679988
  82.6720012   8.2014997  44.9549988  83.2630810   8.6829208  45.3733173
  94.2400012   5.4784997  50.8779988  93.5520012   6.1364997  50.7819988
  94.2560012   5.2814997  51.8139988  94.1478525   5.5420462  50.9914808
  80.2920012   3.8124997  49.4549988  80.0730012   4.3424997  48.6889988
  79.6240012   4.0394997  50.1019988  80.1717600   3.9156906  49.4376379
  87.6610012  13.3124997  42.9989988  87.3650012  12.9904997  42.1479988
  87.3360012  14.2124997  43.0399988  87.5766371  13.3900215  42.8881801
  82.8610012  11.4884997  49.7419988  82.1210012  12.0864997  49.8459988
  83.5750012  12.0424997  49.4269988  82.8562237  11.6452831  49.7136465
  90.9680012   4.3164997  45.7619988  90.7520012   3.5504997  46.2949988
  91.6230012   4.7884997  46.2749988  91.0270632   4.2755889  45.9042861
  79.8850012   5.7044997  47.4069988  80.4990012   6.3374997  47.7809988
  80.3970012   5.2324997  46.7509988  80.0382296   5.7272370  47.3694252
  81.2680012  13.4524997  50.5299988  81.2630012  14.3324997  50.1519988
  80.4150012  13.3694997  50.9549988  81.1519464  13.5616117  50.5357907
  77.3890012  13.1234997  41.3119988  77.1170012  13.3524997  40.4229988
  77.4350012  13.9614997  41.7719988  77.3580094  13.2681213  41.2525697
  91.0140012  14.7454997  48.0239988  90.0730012  14.8034997  48.1859988
  91.2910012  15.6514997  47.8869988  90.9224679  14.8759443  48.0276815
  91.3150012   3.0314997  49.4419988  90.5790012   3.6424997  49.4039988
  91.9980012   3.4464997  48.9149988  91.3066541   3.1711374  49.3655832
  84.3180012   1.1184997  46.9079988  84.2010012   0.1694997  46.8529988
  83.4630012   1.4504997  47.1809988  84.1863733   1.0335409  46.9373897
  89.2660012  16.5264997  44.6499988  89.6920012  15.8194997  44.1649988
  89.5830012  17.3274997  44.2329988  89.3671019  16.5380994  44.5273130
  90.4260012  14.4274997  43.1579988  90.1680012  13.7374997  42.5469988
  90.4970012  13.9844997  44.0039988  90.4002856  14.2732124  43.1886885
  92.1120012  12.9934997  51.6359988  92.2520012  12.4024997  50.8959988
  92.2790012  13.8664997  51.2789988  92.1536778  13.0306426  51.4866965
  86.5850012   9.9554997  41.4079988  85.8730012  10.4904997  41.0559988
  87.2760012  10.0114997  40.7479988  86.5810132  10.0362543  41.2706289
  86.6380012   8.4134997  38.4469988  87.3390012   8.4354997  39.0979988
  86.9410012   7.7854997  37.7909988  86.7747830   8.3316566  38.4473711
  93.9540012   9.3334997  49.7019988  93.3010012  10.0284997  49.7909988
  94.4190012   9.5434997  48.8919988  93.9275390   9.4569425  49.6046883
  89.9900012  10.1654997  42.3599988  89.2580012  10.3934997  42.9329988
  90.4380012   9.4514997  42.8149988  89.9503095  10.1002571  42.4999119
  89.8880012   8.3394997  51.4269988  89.9680012   9.1024997  51.9989988
  89.2860012   8.6184997  50.7369988  89.8175756   8.4817134  51.4120589
  81.6360012  10.7954997  44.2419988  81.3050012  10.4254997  43.4239988
  82.2240012  10.1254997  44.5889988  81.6701873  10.6541156  44.1768102
  83.0020012  14.2234997  46.9239988  82.9080012  13.6454997  46.1669988
  83.7320012  13.8524997  47.4199988  83.0877981  14.0942390  46.8874165
  82.0020012   9.5644997  47.8759988  82.5680012   9.6854997  47.1129988
  82.3210012  10.2014997  48.5149988  82.1225786   9.6671884  47.8580040
  88.3110012  15.0674997  48.6099988  88.0710012  15.7294997  49.2579988
  88.1130012  14.2334997  49.0349988  88.2513808  15.0453134  48.7561524
  82.8820012  13.9634997  52.5929988  82.5710012  14.7454997  53.0479988
  82.2320012  13.8104997  51.9069988  82.7515558  14.0499105  52.5625871
  88.8610012   9.3274997  40.0449988  89.4410012   9.4774997  40.7919988
  89.2750012   9.7984997  39.3219988  88.9962830   9.4116841  40.0494134
  79.8020012  10.1614997  51.8219988  79.8730012  10.8124997  52.5199988
  78.9120012  10.2644997  51.4869988  79.6913117  10.2645936  51.8722700
  86.5880012  16.0644997  43.4799988  87.0620012  16.3594997  44.2579988
  86.0250012  16.8024997  43.2469988  86.5767653  16.2046932  43.5550136
  81.1220012  16.0354997  53.3559988  81.1290012  15.8994997  52.4089988
  80.2060012  15.9174997  53.6079988  80.9991714  16.0009430  53.2604666
  92.5600012   1.0774997  39.8579988  91.6600012   1.2164997  40.1529988
  92.8120012   1.9084997  39.4559988  92.4708702   1.2089074  39.8440205
  80.6260012   9.8654997  41.8319988  80.3340012  10.6334997  41.3409988
  79.9520012   9.2054997  41.6689988  80.4949081   9.8814406  41.7427340
  93.7490012  15.4434997  38.2339988  93.8230012  16.3824997  38.4049988
  94.6550012  15.1384997  38.1779988  93.8815100  15.5306722  38.2498119
  76.7190012  12.2284997  50.6469988  76.2180012  12.2004997  49.8319988
  76.7240012  11.3224997  50.9559988  76.6511526  12.1022278  50.5772872
  76.4690012  15.0084997  47.5309988  77.4150012  14.8644997  47.5119988
  76.3570012  15.7924997  48.0679988  76.5832727  15.0948046  47.6010072
  94.6670012  15.6744997  53.2129988  94.6180012  14.7194997  53.1759988
  93.8400012  15.9424997  53.6139988  94.5484940  15.5798998  53.2621375
  85.6460012  15.2484997  52.0889988  85.7330012  16.0744997  52.5639988
  84.7820012  14.9184997  52.3379988  85.5411964  15.3169878  52.1876549
  86.0600012  19.0204997  41.8949988  85.9850012  18.8994997  40.9489988
  86.0930012  19.9704997  42.0139988  86.0541848  19.1322500  41.7814834
  79.7130012  17.8094997  43.6759988  79.8660012  17.4614997  44.5549988
  78.8630012  17.4534997  43.4209988  79.6188962  17.7136650  43.7618340
  89.1620012  18.1744997  38.8969988  89.5370012  17.4304997  38.4269988
  89.1660012  17.9044997  39.8159988  89.2138915  18.0361486  38.9567824
  88.8310012  18.1004997  41.6469988  87.8950012  18.2004997  41.8249988
  89.1110012  17.3914997  42.2249988  88.7408255  18.0182711  41.7495391
  91.8190012   7.1674997  53.6929988  91.4120012   7.6484997  52.9719988
  91.8600012   6.2624997  53.3849988  91.7688437   7.1109374  53.5526683
  78.9680012  13.5514997  51.6899988  79.1840012  13.1904997  52.5489988
  78.1130012  13.1774997  51.4799988  78.8819292  13.4514111  51.7793386
  81.5870012   2.0214997  47.6849988  80.7250012   1.9344997  47.2779988
  81.5640012   2.8774997  48.1129988  81.4660330   2.1252765  47.6871863
  86.2500012   1.7434997  51.0599988  86.6700012   1.3284997  51.8129988
  85.3170012   1.5654997  51.1769988  86.1813644   1.6625900  51.1789539
  89.5760012   5.4994997  51.9129988  89.0620012   5.3734997  52.7109988
  89.4210012   6.4114997  51.6689988  89.4846852   5.6056132  51.9892158
  90.3390012  10.3604997  37.6749988  90.3810012  10.1374997  36.7449988
  91.1880012  10.7594997  37.8649988  90.4595396  10.3839155  37.5733627
  85.9110012   4.2364997  38.3449988  85.6580012   4.2554997  39.2679988
  85.6550012   3.3644997  38.0439988  85.8417790   4.1212437  38.4306263
  81.6780012   6.9874997  48.7799988  81.0360012   6.9464997  49.4889988
  81.7150012   7.9134997  48.5429988  81.5951324   7.1071559  48.8449824
  81.6750012   7.2084997  43.6919988  80.7820012   6.8674997  43.6339988
  82.1250012   6.8314997  42.9369988  81.6137305   7.1108484  43.5819177
  87.2100012   7.6244997  42.5089988  86.8010012   8.4394997  42.2179988
  87.9310012   7.4844997  41.8949988  87.2514537   7.7172018  42.3861342
  86.3120012   7.7994997  53.9969988  85.7500012   7.0954997  54.3179988
  87.1390012   7.6794997  54.4649988  86.3467095   7.6867883  54.1042330
  88.2150012   7.0704997  45.3229988  88.0200012   7.6754997  44.6079988
  88.3960012   6.2364997  44.8889988  88.2127614   7.0406300  45.1664405
  79.4280012   7.3074997  50.6469988  79.3900012   7.7074997  51.5159988
  78.9370012   6.4904997  50.7379988  79.3564684   7.2518069  50.7781059
  82.7940012   4.6814997  37.4459988  82.3630012   4.2364997  38.1759988
  82.0760012   5.0534997  36.9339988  82.6379438   4.6708940  37.4766799
  76.0360012   4.4234997  44.4979988  76.6670012   4.3944997  45.2169988
  76.4850012   3.9984997  43.7679988  76.1830774   4.3620492  44.4976553
  77.3100012   5.1694997  39.9219988  77.7840012   5.7604997  39.3369988
  76.5930012   5.7004997  40.2689988  77.2779341   5.3220867  39.8888836
  87.4790012   8.7084997  49.9949988  87.8020012   8.0774997  49.3519988
  87.0390012   8.1734997  50.6549988  87.4636895   8.5498441  49.9962850
  84.2560012   4.6354997  44.7789988  83.3450012   4.6924997  45.0669988
  84.7620012   4.5754997  45.5889988  84.1995413   4.6351985  44.9280622
  79.0850012   6.2644997  43.6049988  78.1950012   6.3644997  43.2649988
  79.3810012   5.4224997  43.2589988  79.0032823   6.1643545  43.5117213
  82.7380012   6.2644997  41.2619988  83.6690012   6.3934997  41.4399988
  82.5230012   6.9344997  40.6119988  82.8364247   6.3726565  41.1985747
  88.6610012   3.8704997  48.0429988  87.9850012   4.0014997  48.7069988
  88.1760012   3.7154997  47.2329988  88.5027145   3.8674905  48.0244517
  81.4120012   7.4594997  38.8289988  80.8690012   7.0794997  38.1369988
  82.2450012   7.6534997  38.3999988  81.4504399   7.4338124  38.6764526
  91.9490012  19.5424997  54.3199988  92.1490012  19.9664997  53.4849988
  92.6040012  19.8854997  54.9269988  92.0650051  19.6469648  54.2877836
  79.5470012  12.0164997  53.9279988  80.2790012  12.2704997  54.4889988
  78.7670012  12.2204997  54.4429988  79.5418232  12.0789177  54.0745760
  85.5760012   7.4234997  46.6659988  86.1410012   6.8764997  46.1189988
  85.4290012   6.9014997  47.4539988  85.6332918   7.2782024  46.6978454
  80.5780012   3.5594997  43.0839988  80.2610012   2.6574997  43.0489988
  81.3600012   3.5614997  42.5309988  80.6402284   3.4361628  43.0044783
  84.2030012   5.8114997  49.0799988  83.3670012   6.2654997  49.1899988
  84.7270012   6.0874997  49.8319988  84.1594414   5.9109376  49.1967136
  84.7470012  12.0244997  40.7639988  84.0020012  11.5174997  40.4419988
  84.6130012  12.0734997  41.7109988  84.6268776  11.9616940  40.8478647
  91.8970012  11.1574997  49.5509988  92.5390012  11.6144997  49.0069988
  91.0670012  11.2704997  49.0879988  91.8725963  11.2352704  49.4140177
  88.6450012   4.8384997  38.9639988  87.7060012   4.9504997  38.8119988
  88.9420012   5.6954997  39.2699988  88.5567666   4.9696443  38.9845768
  86.2660012  12.2084997  52.0009988  85.9210012  11.8274997  52.8079988
  86.0660012  13.1424997  52.0729988  86.1918061  12.2825228  52.1210961
  89.3630012   6.7054997  40.6239988  90.2550012   6.5684997  40.9429988
  89.4200012   7.4964997  40.0879988  89.4926285   6.7936660  40.5951691
  79.8720012  11.3194997  46.5339988  80.6170012  11.3174997  45.9329988
  79.9500012  10.4964997  47.0159988  79.9845518  11.2079315  46.5168929
  86.8730012  13.4834997  39.7899988  86.5770012  14.3094997  40.1709988
  86.1700012  12.8634997  39.9859988  86.7374914  13.5128199  39.8686443
  76.8800012   9.7804997  51.8489988  77.1030012   9.3624997  52.6809988
  76.2780012   9.1674997  51.4259988  76.8291759   9.6404668  51.9057022
  83.8960012   9.2974997  54.0619988  83.6000012   9.1314997  53.1669988
  84.8280012   9.0774997  54.0509988  83.9814166   9.2450640  53.9380536
  88.5170012  14.6704997  51.9519988  87.6160012  14.8534997  51.6839988
  88.5510012  14.9294997  52.8729988  88.3983041  14.7305512  52.0398197
  94.2480012   6.9154997  40.3189988  93.6940012   6.5194997  39.6469988
  94.3480012   7.8254997  40.0409988  94.1857059   6.9843586  40.1894401
  94.2110012  12.7154997  53.1559988  93.3600012  12.9534997  52.7889988
  94.8020012  12.6984997  52.4029988  94.1742487  12.7458258  53.0038893
  92.5430012  15.7014997  40.7839988  92.1700012  14.8754997  41.0929988
  92.8210012  15.5184997  39.8869988  92.5295630  15.5637303  40.7049626
  89.7040012  10.5094997  47.8049988  88.7750012  10.2774997  47.7779988
  90.1550012   9.7324997  47.4749988  89.6379216  10.3727238  47.7566917
  82.2470012  14.8374997  43.9379988  82.7740012  15.6104997  43.7379988
  81.3670012  15.0624997  43.6369988  82.2001773  14.9738005  43.8699010
  78.0020012   9.6994997  38.5249988  78.6180012  10.3264997  38.9049988
  77.1400012  10.0154997  38.7969988  77.9697698   9.8279430  38.6137183
  83.6740012  12.5004997  43.5149988  83.4330012  13.4254997  43.5559988
  82.9330012  12.0414997  43.9109988  83.5408409  12.5651421  43.5741377
  84.1890012  16.6494997  49.8299988  84.5510012  17.5044997  49.5959988
  84.7200012  16.3574997  50.5699988  84.3104473  16.7271060  49.8980855
  82.3570012  17.5224997  43.0599988  81.4070012  17.6274997  43.1109988
  82.7090012  18.3424997  43.4049988  82.2744203  17.6478314  43.1136650
  87.7330012  12.7484997  49.5299988  87.3070012  12.5214997  50.3569988
  88.3130012  12.0104997  49.3479988  87.7531868  12.6175299  49.6185830
  89.9360012  13.6774997  38.6039988  90.2890012  13.2974997  39.4089988
  88.9870012  13.5844997  38.6909988  89.8560441  13.6129596  38.7258559
  90.3910012  17.3004997  51.9999988  89.7900012  16.7454997  51.5039988
  90.6730012  17.9674997  51.3739988  90.3468519  17.3146841  51.8474952
  94.4390012  18.1574997  38.8049988  95.1830012  18.7434997  38.6649988
  93.7450012  18.7254997  39.1389988  94.4470292  18.3145582  38.8309961
  78.5140012   4.5334997  51.4069988  77.6210012   4.8724997  51.3389988
  78.4150012   3.6784997  51.8249988  78.3784164   4.4642588  51.4542235
  90.8020012  12.3504997  40.8309988  90.5240012  11.6224997  41.3869988
  91.7290012  12.4694997  41.0359988  90.8893124  12.2668802  40.9348845
  78.1650012  16.3384997  49.8419988  78.3820012  15.4064997  49.8109988
  78.4110012  16.6124997  50.7249988  78.2279549  16.2480636  49.9571763
  84.0270012  14.7894997  37.0509988  84.2660012  14.0414997  36.5039988
  83.7580012  14.4014997  37.8839988  84.0233675  14.6346638  37.0886865
  82.9640012  14.3594997  39.5079988  83.1100012  13.8394997  40.2979988
  82.9610012  15.2664997  39.8139988  82.9835989  14.4108853  39.6576088
  79.4170012  11.6124997  40.0179988  78.7310012  11.9644997  40.5849988
  79.9390012  12.3754997  39.7709988  79.3936852  11.7638578  40.0622118
  87.2480012   4.2744997  50.2969988  87.9470012   4.3484997  50.9469988
  86.8670012   3.4104997  50.4509988  87.2921767   4.1677624  50.4068322
  88.0330012   3.9264997  41.3939988  88.2530012   4.3984997  40.5909988
  88.5910012   4.3214997  42.0639988  88.1384968   4.0444285  41.3747331
  85.7010012  16.0574997  40.2569988  84.8850012  16.5544997  40.3089988
  86.2310012  16.5324997  39.6169988  85.6609161  16.1897722  40.1775956
  85.2330012   5.6544997  42.2289988  86.0450012   6.1594997  42.2749988
  84.9880012   5.5094997  43.1429988  85.3110520   5.7040375  42.3588517
  85.7680012   6.6404997  51.4139988  85.8870012   7.2144997  52.1709988
  86.4240012   5.9524997  51.5279988  85.8729757   6.6261079  51.5330825
  86.1160012   2.7354997  43.1669988  85.7700012   3.3534997  43.8119988
  86.7750012   3.2364997  42.6859988  86.1577826   2.8875802  43.1900971
  83.0400012  17.1014997  40.2389988  83.2000012  17.9004997  39.7379988
  82.8420012  17.4074997  41.1239988  83.0351649  17.2524469  40.2899815
  81.7740012   3.7984997  39.8539988  81.6910012   4.6874997  40.2009988
  82.6640012   3.5334997  40.0859988  81.8829469   3.8841430  39.9327626
  91.9730012   4.5474997  52.2489988  91.0560012   4.8104997  52.1609988
  92.3080012   4.5444997  51.3519988  91.8929900   4.5830224  52.1157919
  90.5750012   8.2984997  46.3439988  89.7770012   7.8834997  46.0159988
  91.0200012   7.6074997  46.8349988  90.5259885   8.1483543  46.3654889
  80.0330012  14.2264997  38.9149988  80.6250012  14.9254997  39.1909988
  80.4920012  13.7934997  38.1949988  80.1761142  14.2637049  38.8554830
  78.3490012   6.8904997  38.0309988  78.3040012   7.8294997  38.2089988
  77.4610012   6.6544997  37.7609988  78.2228574   6.9871892  38.0188912
  91.6610012  17.5544997  47.9669988  91.5060012  18.2324997  47.3099988
  92.5940012  17.6264997  48.1699988  91.7658500  17.6570170  47.9045119
  79.1570012   1.6724997  46.7039988  78.9280012   1.7314997  45.7759988
  78.7140012   0.8804997  47.0099988  79.0658530   1.5735753  46.6184786
  78.0870012  15.6124997  42.8639988  77.2550012  16.0854997  42.8919988
  78.6330012  16.1224997  42.2659988  78.0469739  15.7461871  42.7869716
  77.3750012  18.2254997  54.1939988  77.9160012  18.0084997  54.9539988
  76.8940012  17.4194997  54.0049988  77.3839345  18.0869514  54.2723076
  81.9730012  17.1444997  55.8149988  82.7400012  16.6854997  56.1559988
  81.9510012  16.9184997  54.8849988  82.0751434  17.0510409  55.7360043
  86.0650012  16.6524997  37.1899988  85.4210012  16.0214997  37.5109988
  86.8270012  16.1214997  36.9579988  86.0798077  16.4942920  37.2026011
  88.5500012  15.5244997  54.5439988  88.1990012  14.6684997  54.7869988
  89.2760012  15.6674997  55.1509988  88.6000769  15.4265636  54.6593619
  90.6690012  16.4694997  37.4239988  90.9520012  15.6754997  37.8759988
  91.4090012  16.7024997  36.8629988  90.8077486  16.3922803  37.4100698
  77.2820012  12.0354997  55.1489988  77.4260012  11.1334997  54.8619988
  76.5100012  12.3214997  54.6609988  77.1973323  11.9508261  55.0437881
  81.6240012  12.3794997  37.2809988  81.6880012  11.5854997  37.8119988
  82.2770012  12.2604997  36.5909988  81.7210241  12.2547148  37.2604317
  83.9380012  12.0054997  54.5809988  83.6090012  12.2764997  53.7239988
  84.0900012  11.0644997  54.4939988  83.9134809  11.9153862  54.4518244
  86.9760012  13.4264997  37.0169988  86.7070012  13.6064997  37.9179988
  86.7700012  12.5004997  36.8859988  86.9113825  13.3260152  37.1225214
  89.6720012  11.9214997  51.9649988  90.4180012  12.5094997  51.8449988
  88.9150012  12.5034997  52.0279988  89.6717554  12.0807011  51.9570907
  78.1150012   9.2354997  54.5689988  78.5230012   8.3784997  54.4479988
  77.8550012   9.2504997  55.4899988  78.1357568   9.1200807  54.6769588
  82.7730012  10.3514997  39.5869988  82.3130012   9.8674997  40.2729988
  83.0280012   9.6834997  38.9509988  82.7444902  10.1948731  39.5949334
  82.0620012   8.2444997  51.9429988  81.4440012   8.9194997  52.2229988
  82.4060012   8.5654997  51.1099988  82.0239615   8.3802721  51.8686581
  83.8440012   8.5944997  37.8489988  83.6640012   8.4404997  36.9219988
  84.7940012   8.7024997  37.8939988  83.9477776   8.5880175  37.7281843
  87.0820012  10.7164997  55.2199988  88.0350012  10.7994997  55.1929988
  86.9210012  10.0044997  55.8399988  87.1906426  10.6316746  55.3000579
  93.2340012  10.9494997  37.2949988  92.9600012  10.5244997  36.4819988
  93.2730012  11.8804997  37.0779988  93.2017699  11.0172484  37.1543610
  82.4010012   5.5994997  53.0249988  82.5510012   4.8704997  52.4229988
  82.4040012   6.3764997  52.4659988  82.4219302   5.6047851  52.8670692
  82.8140012   3.9694997  50.5179988  83.3500012   4.4204997  49.8659988
  81.9620012   3.8614997  50.0949988  82.7722178   4.0166390  50.3715756
  84.3960012   9.4084997  50.7569988  85.1460012   9.2524997  50.1839988
  84.0570012  10.2604997  50.4819988  84.4528921   9.5022968  50.6413561
  88.8110012   7.2234997  55.7859988  89.0040012   6.2924997  55.6739988
  89.6690012   7.6484997  55.7759988  88.9533020   7.1536389  55.7693361
  90.1280012  10.0124997  53.8629988  89.8470012  10.7214997  53.2859988
  91.0710012   9.9394997  53.7119988  90.2169027  10.0997646  53.7635551
  80.8800012   6.7974997  54.9369988  80.1130012   6.2654997  54.7269988
  81.5590012   6.4874997  54.3369988  80.8667022   6.6827506  54.8271648
  83.6200012   1.4254997  50.9489988  83.5210012   2.3724997  50.8439988
  82.8770012   1.0534997  50.4739988  83.5060564   1.5045902  50.8704560
  84.8840012   5.7474997  54.5129988  84.6480012   5.5274997  55.4149988
  84.1000012   5.5404997  54.0029988  84.7458628   5.6894760  54.5673932
  87.5990012   4.8744997  53.5889988  86.6520012   4.9064997  53.7209988
  87.9120012   4.2494997  54.2419988  87.5115475   4.7943207  53.6954455
  89.2330012   3.5084997  55.5939988  89.1370012   2.5564997  55.5879988
  88.9120012   3.7774997  56.4539988  89.1764070   3.4144035  55.7095441
  79.0600012   4.7184997  54.6409988  79.2720012   4.0114997  54.0309988
  78.9490012   4.2804997  55.4849988  79.0739721   4.5627084  54.6716843
  83.8410012   0.7194997  53.6209988  84.5530012   0.0794997  53.6069988
  83.7400012   0.9864997  52.7069988  83.9247939   0.6679938  53.4955650
  84.1950012   2.4024997  55.6739988  84.0630012   1.9264997  54.8539988
  83.5960012   3.1464997  55.6189988  84.0959071   2.4379618  55.5542886
  83.7410012  19.2854997  38.8509988  84.6740012  19.4434997  38.9939988
  83.4770012  19.9604997  38.2259988  83.8329510  19.3983611  38.7860741
  77.3100012  13.9214997  38.3329988  78.2240012  14.0004997  38.6069988
  77.3170012  13.2344997  37.6669988  77.4361131  13.8393961  38.2804393
  75.9590012  19.3144997  43.4109988  75.3120012  18.8524997  42.8779988
  76.3130012  18.6424997  43.9929988  75.9183849  19.1604723  43.4167959
  76.8290012  17.3954997  45.2149988  76.4940012  16.5154997  45.3869988
  77.0510012  17.7404997  46.0799988  76.8131783  17.3217500  45.3554208
  94.3770012  18.2044997  48.1959988  94.3560012  18.3894997  49.1349988
  95.0680012  18.7734997  47.8549988  94.4674618  18.3066606  48.2783864
  93.9410012  17.7724997  51.1179988  93.4530012  17.0364997  50.7469988
  94.4900012  17.3784997  51.7959988  93.9484872  17.6186249  51.1589160
  92.3910012  13.5614997  55.7559988  91.5250012  13.4564997  56.1499988
  92.7680012  14.3204997  56.2019988  92.3233308  13.6496900  55.8702393
  93.6920012  11.8184997  41.2699988  94.5420012  12.2394997  41.3969988
  93.6980012  11.0784997  41.8769988  93.8091372  11.7760803  41.3694344
  94.0870012   9.8714997  43.0939988  93.3600012   9.3924997  43.4909988
  94.6680012  10.0774997  43.8259988  94.0659375   9.8337090  43.2474129
  93.8460012  12.6564997  48.0409988  94.6790012  12.2784997  47.7609988
  93.9580012  13.5994997  47.9219988  93.9752647  12.7322218  47.9865487
  92.3320012  15.5344997  50.3479988  91.6850012  15.8594997  50.9739988
  91.8150012  15.0944997  49.6739988  92.1734029  15.5195004  50.3425827
  94.3550012   9.7724997  39.4849988  93.8330012  10.1294997  38.7659988
  94.3220012  10.4474997  40.1629988  94.2791634   9.9125413  39.4783145
  92.7040012   7.0124997  38.0359988  92.8000012   7.6794997  37.3549988
  92.5640012   6.1964997  37.5539988  92.6982135   6.9934500  37.8778491
  91.8730012   8.3924997  43.6569988  91.7230012   7.4474997  43.6359988
  91.5200012   8.6734997  44.4999988  91.8046625   8.3010441  43.7682346
  76.9090012  10.4704997  47.6669988  77.0930012  10.3884997  46.7309988
  77.7580012  10.3464997  48.0909988  77.0490139  10.4425003  47.5961455
  92.7300012  10.3624997  53.2949988  93.3130012   9.6284997  53.4869988
  93.2940012  11.1344997  53.3419988  92.8859769  10.3664227  53.3276159
  94.2260012   8.2654997  53.9799988  93.3630012   7.8864997  53.8139988
  94.8310012   7.5264997  53.9059988  94.1895979   8.1138023  53.9472817
  91.9510012   4.4204997  37.1529988  92.5620012   4.0494997  37.7899988
  91.1150012   3.9994997  37.3489988  91.9215032   4.3127554  37.2667035
  91.5840012   5.9754997  42.1189988  91.8640012   5.0684997  42.2429988
  92.3430012   6.4094997  41.7299988  91.7249277   5.9100942  42.0833682
  92.1960012   6.5564997  47.5549988  93.1290012   6.7684997  47.5209988
  91.9610012   6.6584997  48.4769988  92.2918036   6.5992769  47.6749976
  92.2250012   7.2934997  50.3309988  91.3820012   7.5614997  50.6969988
  92.6670012   8.1154997  50.1199988  92.1694158   7.4413291  50.3525491
  76.5060012   5.7414997  53.8079988  77.4260012   5.6194997  54.0439988
  76.0570012   4.9914997  54.1969988  76.5711580   5.6233727  53.8929006
  94.5080012   1.2734997  55.6839988  94.8580012   0.6194997  55.0789988
  94.6550012   2.1104997  55.2449988  94.5758419   1.2971591  55.5417118
  92.1970012   3.2384997  42.1669988  92.3800012   2.7894997  42.9929988
  91.5980012   2.6534997  41.7039988  92.1410202   3.0979975  42.2173275
  77.7270012   4.0534997  46.6989988  78.1730012   3.2614997  47.0009988
  78.1940012   4.7694997  47.1299988  77.8510172   4.0420624  46.7984820
  76.0310012   7.0524997  47.7679988  76.5230012   6.8314997  46.9769988
  76.3940012   7.8934997  48.0489988  76.1473126   7.1358357  47.6977531
  94.0280012   3.3824997  54.0339988  93.1100012   3.6534997  53.9979988
  94.1510012   2.8474997  53.2489988  93.9191066   3.3472892  53.9230487
  94.0640012   3.3054997  38.6949988  94.4760012   2.5844997  38.2199988
  94.7460012   3.9754997  38.7539988  94.2125885   3.2972368  38.6378915
  76.3450012   3.3104997  41.8219988  75.4200012   3.5194997  41.6929988
  76.7990012   3.7944997  41.1329988  76.2797368   3.4045993  41.7111226
  91.1160012  18.2944997  43.7679988  91.7680012  17.9474997  43.1599988
  91.6260012  18.7834997  44.4139988  91.2742637  18.3130597  43.7720236
  76.3090012   2.0484997  50.1669988  75.6440012   1.8024997  50.8099988
  75.8660012   2.6704997  49.5889988  76.1580956   2.0988632  50.1769352
  78.5010012  15.2234997  54.3109988  77.6800012  15.3984997  53.8509988
  78.2480012  15.1504997  55.2319988  78.3546164  15.2375622  54.3724923
  81.4550012  16.1984997  50.5699988  81.0300012  17.0074997  50.2869988
  82.3590012  16.2834997  50.2679988  81.5190271  16.3208469  50.4903776
  85.7660012  17.5974997  53.5289988  85.9510012  17.2634997  54.4069988
  86.6120012  17.9064997  53.2069988  85.9057539  17.5936047  53.6055605
  88.1110012  18.8834997  52.7729988  88.7880012  18.2504997  52.5329988
  88.4330012  19.2844997  53.5799988  88.2471637  18.8511154  52.8492793
  93.0280012   1.4724997  51.8529988  92.2160012   1.7974997  51.4649988
  93.2610012   0.7124997  51.3199988  92.9483423   1.4142436  51.7278253
  78.8570012  19.4544997  50.6169988  78.1360012  19.8944997  50.1659988
  78.4910012  19.2034997  51.4659988  78.7089804  19.4807698  50.6699840
  81.3240012  19.0544997  49.6469988  80.4590012  19.1264997  50.0509988
  81.2690012  19.6014997  48.8629988  81.1982085  19.1382685  49.5963362
  86.0340012  18.9424997  48.8219988  85.5780012  19.4714997  48.1679988
  86.1970012  19.5454997  49.5479988  85.9935585  19.0964468  48.8305062
  88.3620012  17.8204997  49.7669988  87.4570012  17.9854997  49.5019988
  88.7910012  18.6734997  49.7019988  88.2960799  17.9584483  49.7219182
  90.9660012  19.3904997  50.0619988  90.7840012  20.3064997  49.8519988
  91.1430012  18.9804997  49.2159988  90.9650210  19.4604822  49.9187885
  78.2710012  18.0774997  47.5269988  78.2530012  17.6524997  48.3849988
  79.0760012  17.7594997  47.1189988  78.3773875  17.9763812  47.5891655
  80.4130012  16.7874997  46.1819988  80.1940012  15.8714997  46.3519988
  81.2370012  16.9274997  46.6479988  80.4944420  16.6810520  46.2682774
  82.9500012  17.2574997  47.0309988  83.1630012  16.3694997  46.7439988
  83.0140012  17.2234997  47.9849988  82.9878232  17.1313102  47.1207397
  86.4580012   2.9214997  46.1749988  85.7840012   2.2924997  46.4309988
  87.0220012   2.4374997  45.5719988  86.4419230   2.7698744  46.1285340
  91.6010012   1.0294997  46.2879988  92.2050012   1.5764997  45.7859988
  90.7310012   1.3484997  46.0479988  91.5661241   1.1475806  46.1867654
  93.3280012   2.1674997  44.6209988  93.9400012   1.6534997  44.0949988
  93.7100012   3.0454997  44.6449988  93.4634540   2.2157140  44.5521830
  78.7850012   1.5554997  43.9969988  78.0080012   1.3214997  43.4899988
  79.3150012   0.7584997  44.0059988  78.7502330   1.4156988  43.9287742
  77.6210012   1.3534997  39.8009988  78.0600012   1.9644997  39.2089988
  76.9880012   1.8914997  40.2749988  77.5954514   1.5099257  39.7840930
  83.3640012   1.4824997  43.8109988  84.2390012   1.8704997  43.7809988
  83.2280012   1.2674997  44.7329988  83.4653695   1.5065184  43.9316440
  88.9210012   1.5124997  45.4599988  88.9970012   1.6074997  44.5099988
  88.6460012   0.6044997  45.5889988  88.8942321   1.4027867  45.3475079
  90.2740012   1.5384997  41.1519988  89.5720012   2.1534997  40.9429988
  89.8300012   0.7004997  41.2829988  90.1176330   1.5095783  41.1410328
  77.5220012  17.3014997  40.6989988  76.8370012  17.2634997  40.0309988
  77.5260012  18.2144997  40.9869988  77.4288193  17.4197016  40.6465284
  79.4820012   3.2694997  38.2429988  79.9740012   2.6394997  37.7159988
  80.1060012   3.5654997  38.9069988  79.6335446   3.2233199  38.2605980
  84.5080012   3.5624997  40.6999988  84.6860012   2.9164997  41.3829988
  84.4550012   4.3964997  41.1679988  84.5251829   3.5867985  40.8565940
  86.3870012  18.5114997  39.0959988  87.2530012  18.8774997  38.9179988
  86.1400012  18.0714997  38.2819988  86.4722392  18.5021756  38.9616289
  93.0960012  18.0744997  41.7749988  92.9010012  17.3264997  41.2099988
  93.0570012  18.8324997  41.1919988  93.0640380  18.0746099  41.6188384
  78.7430012   2.0694997  53.5149988  78.3770012   1.3044997  53.9579988
  79.6560012   2.0984997  53.8019988  78.8162790   1.9687224  53.6144070
  80.7160012   1.4204997  55.0509988  81.6140012   1.1464997  54.8659988
  80.3290012   0.6774997  55.5149988  80.7866612   1.2825914  55.0883643
  79.3400012  18.2214997  37.7239988  79.0730012  18.5084997  38.5969988
  80.1120012  17.6754997  37.8759988  79.4077488  18.1870294  37.8641050
  89.1370012   0.7524997  55.2329988  89.2140012   0.3264997  56.0869988
  90.0310012   0.7664997  54.8899988  89.2683428   0.6960879  55.3035310
  92.3130012  16.8254997  53.9249988  91.5310012  16.6394997  53.4059988
  92.2410012  17.7544997  54.1429988  92.1961777  16.9256492  53.8834048
 106.7190012  10.7114997  43.9559988 106.8080012  11.6554997  43.8239988
 106.0810012  10.4364997  43.2979988 106.6449081  10.8034830  43.8489614
 105.6520012   9.9664997  47.3749988 105.6140012   9.3204997  48.0799988
 105.3300012   9.5004997  46.6039988 105.6032333   9.8149408  47.3672978
  98.0210012   9.5814997  48.9679988  98.0620012   8.9554997  49.6909988
  98.7240012  10.2054997  49.1499988  98.1216363   9.5801196  49.0916044
 109.3580012  12.9054997  45.6759988 108.9180012  12.1854997  46.1269988
 109.3450012  13.6264997  46.3059988 109.2960226  12.9043731  45.8228494
  98.9440012  14.0314997  47.5029988  98.5750012  13.2294997  47.1329988
  99.8850012  13.8624997  47.5489988  99.0207289  13.8990153  47.4586316
  95.5540012   7.6914997  42.8959988  95.1070012   8.5374997  42.8769988
  94.9930012   7.1114997  42.3799988  95.4169900   7.7289916  42.8236801
  96.2650012   9.8534997  45.0219988  96.4780012   9.0834997  45.5489988
  97.0030012   9.9424997  44.4179988  96.3938496   9.7601394  45.0125300
 106.4700012  18.0104997  45.8889988 107.0900012  17.3334997  45.6149988
 106.2620012  17.7924997  46.7969988 106.5266904  17.8883870  45.9743365
 104.0420012  12.3994997  47.7809988 104.3460012  11.7134997  47.1859988
 104.7630012  12.5174997  48.3989988 104.1810671  12.3216304  47.7831816
 112.7050012   4.0004997  48.6419988 112.7540012   4.6104997  49.3779988
 113.1300012   4.4614997  47.9189988 112.7691824   4.1463741  48.6450205
 107.1830012   6.7934997  48.1089988 107.3250012   5.8474997  48.1289988
 107.0760012   7.0004997  47.1799988 107.1879864   6.6919534  47.9862339
 100.3370012   4.8944997  45.3809988 100.3810012   5.7544997  44.9629988
  99.8800012   4.3424997  44.7469988 100.2812185   4.9375799  45.2380299
 108.0600012   5.0254997  43.7819988 108.7060012   4.6964997  44.4069988
 108.5700012   5.5434997  43.1589988 108.2174264   5.0504611  43.7833862
  96.9580012   7.2914997  46.1429988  97.6110012   6.7414997  46.5749988
  96.9820012   7.0174997  45.2259988  97.0506683   7.1791466  46.0782123
 102.1140012   8.8414997  45.3579988 102.7300012   8.3154997  45.8679988
 101.5280012   8.2014997  44.9549988 102.1190810   8.6829208  45.3733173
 113.0960012   5.4784997  50.8779988 112.4080012   6.1364997  50.7819988
 113.1120012   5.2814997  51.8139988 113.0038525   5.5420462  50.9914808
  99.1480012   3.8124997  49.4549988  98.9290012   4.3424997  48.6889988
  98.4800012   4.0394997  50.1019988  99.0277600   3.9156906  49.4376379
 106.5170012  13.3124997  42.9989988 106.2210012  12.9904997  42.1479988
 106.1920012  14.2124997  43.0399988 106.4326371  13.3900215  42.8881801
 101.7170012  11.4884997  49.7419988 100.9770012  12.0864997  49.8459988
 102.4310012  12.0424997  49.4269988 101.7122237  11.6452831  49.7136465
 109.8240012   4.3164997  45.7619988 109.6080012   3.5504997  46.2949988
 110.4790012   4.7884997  46.2749988 109.8830632   4.2755889  45.9042861
  98.7410012   5.7044997  47.4069988  99.3550012   6.3374997  47.7809988
  99.2530012   5.2324997  46.7509988  98.8942296   5.7272370  47.3694252
 100.1240012  13.4524997  50.5299988 100.1190012  14.3324997  50.1519988
  99.2710012  13.3694997  50.9549988 100.0079464  13.5616117  50.5357907
  96.2450012  13.1234997  41.3119988  95.9730012  13.3524997  40.4229988
  96.2910012  13.9614997  41.7719988  96.2140094  13.2681213  41.2525697
 109.8700012  14.7454997  48.0239988 108.9290012  14.8034997  48.1859988
 110.1470012  15.6514997  47.8869988 109.7784679  14.8759443  48.0276815
 110.1710012   3.0314997  49.4419988 109.4350012   3.6424997  49.4039988
 110.8540012   3.4464997  48.9149988 110.1626541   3.1711374  49.3655832
 103.1740012   1.1184997  46.9079988 103.0570012   0.1694997  46.8529988
 102.3190012   1.4504997  47.1809988 103.0423733   1.0335409  46.9373897
 108.1220012  16.5264997  44.6499988 108.5480012  15.8194997  44.1649988
 108.4390012  17.3274997  44.2329988 108.2231019  16.5380994  44.5273130
 109.2820012  14.4274997  43.1579988 109.0240012  13.7374997  42.5469988
 109.3530012  13.9844997  44.0039988 109.2562856  14.2732124  43.1886885
 110.9680012  12.9934997  51.6359988 111.1080012  12.4024997  50.8959988
 111.1350012  13.8664997  51.2789988 111.0096778  13.0306426  51.4866965
 105.4410012   9.9554997  41.4079988 104.7290012  10.4904997  41.0559988
 106.1320012  10.0114997  40.7479988 105.4370132  10.0362543  41.2706289
 105.4940012   8.4134997  38.4469988 106.1950012   8.4354997  39.0979988
 105.7970012   7.7854997  37.7909988 105.6307830   8.3316566  38.4473711
 112.8100012   9.3334997  49.7019988 112.1570012  10.0284997  49.7909988
 113.2750012   9.5434997  48.8919988 112.7835390   9.4569425  49.6046883
 108.8460012  10.1654997  42.3599988 108.1140012  10.3934997  42.9329988
 109.2940012   9.4514997  42.8149988 108.8063095  10.1002571  42.4999119
 108.7440012   8.3394997  51.4269988 108.8240012   9.1024997  51.9989988
 108.1420012   8.6184997  50.7369988 108.6735756   8.4817134  51.4120589
 100.4920012  10.7954997  44.2419988 100.1610012  10.4254997  43.4239988
 101.0800012  10.1254997  44.5889988 100.5261873  10.6541156  44.1768102
 101.8580012  14.2234997  46.9239988 101.7640012  13.6454997  46.1669988
 102.5880012  13.8524997  47.4199988 101.9437981  14.0942390  46.8874165
 100.8580012   9.5644997  47.8759988 101.4240012   9.6854997  47.1129988
 101.1770012  10.2014997  48.5149988 100.9785786   9.6671884  47.8580040
 107.1670012  15.0674997  48.6099988 106.9270012  15.7294997  49.2579988
 106.9690012  14.2334997  49.0349988 107.1073808  15.0453134  48.7561524
 101.7380012  13.9634997  52.5929988 101.4270012  14.7454997  53.0479988
 101.0880012  13.8104997  51.9069988 101.6075558  14.0499105  52.5625871
 107.7170012   9.3274997  40.0449988 108.2970012   9.4774997  40.7919988
 108.1310012   9.7984997  39.3219988 107.8522830   9.4116841  40.0494134
  98.6580012  10.1614997  51.8219988  98.7290012  10.8124997  52.5199988
  97.7680012  10.2644997  51.4869988  98.5473117  10.2645936  51.8722700
 105.4440012  16.0644997  43.4799988 105.9180012  16.3594997  44.2579988
 104.8810012  16.8024997  43.2469988 105.4327653  16.2046932  43.5550136
  99.9780012  16.0354997  53.3559988  99.9850012  15.8994997  52.4089988
  99.0620012  15.9174997  53.6079988  99.8551714  16.0009430  53.2604666
 111.4160012   1.0774997  39.8579988 110.5160012   1.2164997  40.1529988
 111.6680012   1.9084997  39.4559988 111.3268702   1.2089074  39.8440205
  99.4820012   9.8654997  41.8319988  99.1900012  10.6334997  41.3409988
  98.8080012   9.2054997  41.6689988  99.3509081   9.8814406  41.7427340
 112.6050012  15.4434997  38.2339988 112.6790012  16.3824997  38.4049988
 113.5110012  15.1384997  38.1779988 112.7375100  15.5306722  38.2498119
  95.5750012  12.2284997  50.6469988  95.0740012  12.2004997  49.8319988
  95.5800012  11.3224997  50.9559988  95.5071526  12.1022278  50.5772872
  95.3250012  15.0084997  47.5309988  96.2710012  14.8644997  47.5119988
  95.2130012  15.7924997  48.0679988  95.4392727  15.0948046  47.6010072
 113.5230012  15.6744997  53.2129988 113.4740012  14.7194997  53.1759988
 112.6960012  15.9424997  53.6139988 113.4044940  15.5798998  53.2621375
 104.5020012  15.2484997  52.0889988 104.5890012  16.0744997  52.5639988
 103.6380012  14.9184997  52.3379988 104.3971964  15.3169878  52.1876549
 104.9160012  19.0204997  41.8949988 104.8410012  18.8994997  40.9489988
 104.9490012  19.9704997  42.0139988 104.9101848  19.1322500  41.7814834
  98.5690012  17.8094997  43.6759988  98.7220012  17.4614997  44.5549988
  97.7190012  17.4534997  43.4209988  98.4748962  17.7136650  43.7618340
 108.0180012  18.1744997  38.8969988 108.3930012  17.4304997  38.4269988
 108.0220012  17.9044997  39.8159988 108.0698915  18.0361486  38.9567824
 107.6870012  18.1004997  41.6469988 106.7510012  18.2004997  41.8249988
 107.9670012  17.3914997  42.2249988 107.5968255  18.0182711  41.7495391
 110.6750012   7.1674997  53.6929988 110.2680012   7.6484997  52.9719988
 110.7160012   6.2624997  53.3849988 110.6248437   7.1109374  53.5526683
  97.8240012  13.5514997  51.6899988  98.0400012  13.1904997  52.5489988
  96.9690012  13.1774997  51.4799988  97.7379292  13.4514111  51.7793386
 100.4430012   2.0214997  47.6849988  99.5810012   1.9344997  47.2779988
 100.4200012   2.8774997  48.1129988 100.3220330   2.1252765  47.6871863
 105.1060012   1.7434997  51.0599988 105.5260012   1.3284997  51.8129988
 104.1730012   1.5654997  51.1769988 105.0373644   1.6625900  51.1789539
 108.4320012   5.4994997  51.9129988 107.9180012   5.3734997  52.7109988
 108.2770012   6.4114997  51.6689988 108.3406852   5.6056132  51.9892158
 109.1950012  10.3604997  37.6749988 109.2370012  10.1374997  36.7449988
 110.0440012  10.7594997  37.8649988 109.3155396  10.3839155  37.5733627
 104.7670012   4.2364997  38.3449988 104.5140012   4.2554997  39.2679988
 104.5110012   3.3644997  38.0439988 104.6977790   4.1212437  38.4306263
 100.5340012   6.9874997  48.7799988  99.8920012   6.9464997  49.4889988
 100.5710012   7.9134997  48.5429988 100.4511324   7.1071559  48.8449824
 100.5310012   7.2084997  43.6919988  99.6380012   6.8674997  43.6339988
 100.9810012   6.8314997  42.9369988 100.4697305   7.1108484  43.5819177
 106.0660012   7.6244997  42.5089988 105.6570012   8.4394997  42.2179988
 106.7870012   7.4844997  41.8949988 106.1074537   7.7172018  42.3861342
 105.1680012   7.7994997  53.9969988 104.6060012   7.0954997  54.3179988
 105.9950012   7.6794997  54.4649988 105.2027095   7.6867883  54.1042330
 107.0710012   7.0704997  45.3229988 106.8760012   7.6754997  44.6079988
 107.2520012   6.2364997  44.8889988 107.0687614   7.0406300  45.1664405
  98.2840012   7.3074997  50.6469988  98.2460012   7.7074997  51.5159988
  97.7930012   6.4904997  50.7379988  98.2124684   7.2518069  50.7781059
 101.6500012   4.6814997  37.4459988 101.2190012   4.2364997  38.1759988
 100.9320012   5.0534997  36.9339988 101.4939438   4.6708940  37.4766799
  94.8920012   4.4234997  44.4979988  95.5230012   4.3944997  45.2169988
  95.3410012   3.9984997  43.7679988  95.0390774   4.3620492  44.4976553
  96.1660012   5.1694997  39.9219988  96.6400012   5.7604997  39.3369988
  95.4490012   5.7004997  40.2689988  96.1339341   5.3220867  39.8888836
 106.3350012   8.7084997  49.9949988 106.6580012   8.0774997  49.3519988
 105.8950012   8.1734997  50.6549988 106.3196895   8.5498441  49.9962850
 103.1120012   4.6354997  44.7789988 102.2010012   4.6924997  45.0669988
 103.6180012   4.5754997  45.5889988 103.0555413   4.6351985  44.9280622
  97.9410012   6.2644997  43.6049988  97.0510012   6.3644997  43.2649988
  98.2370012   5.4224997  43.2589988  97.8592823   6.1643545  43.5117213
 101.5940012   6.2644997  41.2619988 102.5250012   6.3934997  41.4399988
 101.3790012   6.9344997  40.6119988 101.6924247   6.3726565  41.1985747
 107.5170012   3.8704997  48.0429988 106.8410012   4.0014997  48.7069988
 107.0320012   3.7154997  47.2329988 107.3587145   3.8674905  48.0244517
 100.2680012   7.4594997  38.8289988  99.7250012   7.0794997  38.1369988
 101.1010012   7.6534997  38.3999988 100.3064399   7.4338124  38.6764526
 110.8050012  19.5424997  54.3199988 111.0050012  19.9664997  53.4849988
 111.4600012  19.8854997  54.9269988 110.9210051  19.6469648  54.2877836
  98.4030012  12.0164997  53.9279988  99.1350012  12.2704997  54.4889988
  97.6230012  12.2204997  54.4429988  98.3978232  12.0789177  54.0745760
 104.4320012   7.4234997  46.6659988 104.9970012   6.8764997  46.1189988
 104.2850012   6.9014997  47.4539988 104.4892918   7.2782024  46.6978454
  99.4340012   3.5594997  43.0839988  99.1170012   2.6574997  43.0489988
 100.2160012   3.5614997  42.5309988  99.4962284   3.4361628  43.0044783
 103.0590012   5.8114997  49.0799988 102.2230012   6.2654997  49.1899988
 103.5830012   6.0874997  49.8319988 103.0154414   5.9109376  49.1967136
 103.6030012  12.0244997  40.7639988 102.8580012  11.5174997  40.4419988
 103.4690012  12.0734997  41.7109988 103.4828776  11.9616940  40.8478647
 110.7530012  11.1574997  49.5509988 111.3950012  11.6144997  49.0069988
 109.9230012  11.2704997  49.0879988 110.7285963  11.2352704  49.4140177
 107.5010012   4.8384997  38.9639988 106.5620012   4.9504997  38.8119988
 107.7980012   5.6954997  39.2699988 107.4127666   4.9696443  38.9845768
 105.1220012  12.2084997  52.0009988 104.7770012  11.8274997  52.8079988
 104.9220012  13.1424997  52.0729988 105.0478061  12.2825228  52.1210961
 108.2190012   6.7054997  40.6239988 109.1110012   6.5684997  40.9429988
 108.2760012   7.4964997  40.0879988 108.3486285   6.7936660  40.5951691
  98.7280012  11.3194997  46.5339988  99.4730012  11.3174997  45.9329988
  98.8060012  10.4964997  47.0159988  98.8405518  11.2079315  46.5168929
 105.7290012  13.4834997  39.7899988 105.4330012  14.3094997  40.1709988
 105.0260012  12.8634997  39.9859988 105.5934914  13.5128199  39.8686443
  95.7360012   9.7804997  51.8489988  95.9590012   9.3624997  52.6809988
  95.1340012   9.1674997  51.4259988  95.6851759   9.6404668  51.9057022
 102.7520012   9.2974997  54.0619988 102.4560012   9.1314997  53.1669988
 103.6840012   9.0774997  54.0509988 102.8374166   9.2450640  53.9380536
 107.3730012  14.6704997  51.9519988 106.4720012  14.8534997  51.6839988
 107.4070012  14.9294997  52.8729988 107.2543041  14.7305512  52.0398197
 113.1040012   6.9154997  40.3189988 112.5500012   6.5194997  39.6469988
 113.2040012   7.8254997  40.0409988 113.0417059   6.9843586  40.1894401
 113.0670012  12.7154997  53.1559988 112.2160012  12.9534997  52.7889988
 113.6580012  12.6984997  52.4029988 113.0302487  12.7458258  53.0038893
 111.3990012  15.7014997  40.7839988 111.0260012  14.8754997  41.0929988
 111.6770012  15.5184997  39.8869988 111.3855630  15.5637303  40.7049626
 108.5600012  10.5094997  47.8049988 107.6310012  10.2774997  47.7779988
 109.0110012   9.7324997  47.4749988 108.4939216  10.3727238  47.7566917
 101.1030012  14.8374997  43.9379988 101.6300012  15.6104997  43.7379988
 100.2230012  15.0624997  43.6369988 101.0561773  14.9738005  43.8699010
  96.8580012   9.6994997  38.5249988  97.4740012  10.3264997  38.9049988
  95.9960012  10.0154997  38.7969988  96.8257698   9.8279430  38.6137183
 102.5300012  12.5004997  43.5149988 102.2890012  13.4254997  43.5559988
 101.7890012  12.0414997  43.9109988 102.3968409  12.5651421  43.5741377
 103.0450012  16.6494997  49.8299988 103.4070012  17.5044997  49.5959988
 103.5760012  16.3574997  50.5699988 103.1664473  16.7271060  49.8980855
 101.2130012  17.5224997  43.0599988 100.2630012  17.6274997  43.1109988
 101.5650012  18.3424997  43.4049988 101.1304203  17.6478314  43.1136650
 106.5890012  12.7484997  49.5299988 106.1630012  12.5214997  50.3569988
 107.1690012  12.0104997  49.3479988 106.6091868  12.6175299  49.6185830
 108.7920012  13.6774997  38.6039988 109.1450012  13.2974997  39.4089988
 107.8430012  13.5844997  38.6909988 108.7120441  13.6129596  38.7258559
 109.2470012  17.3004997  51.9999988 108.6460012  16.7454997  51.5039988
 109.5290012  17.9674997  51.3739988 109.2028519  17.3146841  51.8474952
 113.2950012  18.1574997  38.8049988 114.0390012  18.7434997  38.6649988
 112.6010012  18.7254997  39.1389988 113.3030292  18.3145582  38.8309961
  97.3700012   4.5334997  51.4069988  96.4770012   4.8724997  51.3389988
  97.2710012   3.6784997  51.8249988  97.2344164   4.4642588  51.4542235
 109.6580012  12.3504997  40.8309988 109.3800012  11.6224997  41.3869988
 110.5850012  12.4694997  41.0359988 109.7453124  12.2668802  40.9348845
  97.0210012  16.3384997  49.8419988  97.2380012  15.4064997  49.8109988
  97.2670012  16.6124997  50.7249988  97.0839549  16.2480636  49.9571763
 102.8830012  14.7894997  37.0509988 103.1220012  14.0414997  36.5039988
 102.6140012  14.4014997  37.8839988 102.8793675  14.6346638  37.0886865
 101.8200012  14.3594997  39.5079988 101.9660012  13.8394997  40.2979988
 101.8170012  15.2664997  39.8139988 101.8395989  14.4108853  39.6576088
  98.2730012  11.6124997  40.0179988  97.5870012  11.9644997  40.5849988
  98.7950012  12.3754997  39.7709988  98.2496852  11.7638578  40.0622118
 106.1040012   4.2744997  50.2969988 106.8030012   4.3484997  50.9469988
 105.7230012   3.4104997  50.4509988 106.1481767   4.1677624  50.4068322
 106.8890012   3.9264997  41.3939988 107.1090012   4.3984997  40.5909988
 107.4470012   4.3214997  42.0639988 106.9944968   4.0444285  41.3747331
 104.5570012  16.0574997  40.2569988 103.7410012  16.5544997  40.3089988
 105.0870012  16.5324997  39.6169988 104.5169161  16.1897722  40.1775956
 104.0890012   5.6544997  42.2289988 104.9010012   6.1594997  42.2749988
 103.8440012   5.5094997  43.1429988 104.1670520   5.7040375  42.3588517
 104.6240012   6.6404997  51.4139988 104.7430012   7.2144997  52.1709988
 105.2800012   5.9524997  51.5279988 104.7289757   6.6261079  51.5330825
 104.9720012   2.7354997  43.1669988 104.6260012   3.3534997  43.8119988
 105.6310012   3.2364997  42.6859988 105.0137826   2.8875802  43.1900971
 101.8960012  17.1014997  40.2389988 102.0560012  17.9004997  39.7379988
 101.6980012  17.4074997  41.1239988 101.8911649  17.2524469  40.2899815
 100.6300012   3.7984997  39.8539988 100.5470012   4.6874997  40.2009988
 101.5200012   3.5334997  40.0859988 100.7389469   3.8841430  39.9327626
 110.8290012   4.5474997  52.2489988 109.9120012   4.8104997  52.1609988
 111.1640012   4.5444997  51.3519988 110.7489900   4.5830224  52.1157919
 109.4310012   8.2984997  46.3439988 108.6330012   7.8834997  46.0159988
 109.8760012   7.6074997  46.8349988 109.3819885   8.1483543  46.3654889
  98.8890012  14.2264997  38.9149988  99.4810012  14.9254997  39.1909988
  99.3480012  13.7934997  38.1949988  99.0321142  14.2637049  38.8554830
  97.2050012   6.8904997  38.0309988  97.1600012   7.8294997  38.2089988
  96.3170012   6.6544997  37.7609988  97.0788574   6.9871892  38.0188912
 110.5170012  17.5544997  47.9669988 110.3620012  18.2324997  47.3099988
 111.4500012  17.6264997  48.1699988 110.6218500  17.6570170  47.9045119
  98.0130012   1.6724997  46.7039988  97.7840012   1.7314997  45.7759988
  97.5700012   0.8804997  47.0099988  97.9218530   1.5735753  46.6184786
  96.9430012  15.6124997  42.8639988  96.1110012  16.0854997  42.8919988
  97.4890012  16.1224997  42.2659988  96.9029739  15.7461871  42.7869716
  96.2310012  18.2254997  54.1939988  96.7720012  18.0084997  54.9539988
  95.7500012  17.4194997  54.0049988  96.2399345  18.0869514  54.2723076
 100.8290012  17.1444997  55.8149988 101.5960012  16.6854997  56.1559988
 100.8070012  16.9184997  54.8849988 100.9311434  17.0510409  55.7360043
 104.9210012  16.6524997  37.1899988 104.2770012  16.0214997  37.5109988
 105.6830012  16.1214997  36.9579988 104.9358077  16.4942920  37.2026011
 107.4060012  15.5244997  54.5439988 107.0550012  14.6684997  54.7869988
 108.1320012  15.6674997  55.1509988 107.4560769  15.4265636  54.6593619
 109.5250012  16.4694997  37.4239988 109.8080012  15.6754997  37.8759988
 110.2650012  16.7024997  36.8629988 109.6637486  16.3922803  37.4100698
  96.1380012  12.0354997  55.1489988  96.2820012  11.1334997  54.8619988
  95.3660012  12.3214997  54.6609988  96.0533323  11.9508261  55.0437881
 100.4800012  12.3794997  37.2809988 100.5440012  11.5854997  37.8119988
 101.1330012  12.2604997  36.5909988 100.5770241  12.2547148  37.2604317
 102.7940012  12.0054997  54.5809988 102.4650012  12.2764997  53.7239988
 102.9460012  11.0644997  54.4939988 102.7694809  11.9153862  54.4518244
 105.8320012  13.4264997  37.0169988 105.5630012  13.6064997  37.9179988
 105.6260012  12.5004997  36.8859988 105.7673825  13.3260152  37.1225214
 108.5280012  11.9214997  51.9649988 109.2740012  12.5094997  51.8449988
 107.7710012  12.5034997  52.0279988 108.5277554  12.0807011  51.9570907
  96.9710012   9.2354997  54.5689988  97.3790012   8.3784997  54.4479988
  96.7110012   9.2504997  55.4899988  96.9917568   9.1200807  54.6769588
 101.6290012  10.3514997  39.5869988 101.1690012   9.8674997  40.2729988
 101.8840012   9.6834997  38.9509988 101.6004902  10.1948731  39.5949334
 100.9180012   8.2444997  51.9429988 100.3000012   8.9194997  52.2229988
 101.2620012   8.5654997  51.1099988 100.8799615   8.3802721  51.8686581
 102.7000012   8.5944997  37.8489988 102.5200012   8.4404997  36.9219988
 103.6500012   8.7024997  37.8939988 102.8037776   8.5880175  37.7281843
 105.9380012  10.7164997  55.2199988 106.8910012  10.7994997  55.1929988
 105.7770012  10.0044997  55.8399988 106.0466426  10.6316746  55.3000579
 112.0900012  10.9494997  37.2949988 111.8160012  10.5244997  36.4819988
 112.1290012  11.8804997  37.0779988 112.0577699  11.0172484  37.1543610
 101.2570012   5.5994997  53.0249988 101.4070012   4.8704997  52.4229988
 101.2600012   6.3764997  52.4659988 101.2779302   5.6047851  52.8670692
 101.6700012   3.9694997  50.5179988 102.2060012   4.4204997  49.8659988
 100.8180012   3.8614997  50.0949988 101.6282178   4.0166390  50.3715756
 103.2520012   9.4084997  50.7569988 104.0020012   9.2524997  50.1839988
 102.9130012  10.2604997  50.4819988 103.3088921   9.5022968  50.6413561
 107.6670012   7.2234997  55.7859988 107.8600012   6.2924997  55.6739988
 108.5250012   7.6484997  55.7759988 107.8093020   7.1536389  55.7693361
 108.9840012  10.0124997  53.8629988 108.7030012  10.7214997  53.2859988
 109.9270012   9.9394997  53.7119988 109.0729027  10.0997646  53.7635551
  99.7360012   6.7974997  54.9369988  98.9690012   6.2654997  54.7269988
 100.4150012   6.4874997  54.3369988  99.7227022   6.6827506  54.8271648
 102.4760012   1.4254997  50.9489988 102.3770012   2.3724997  50.8439988
 101.7330012   1.0534997  50.4739988 102.3620563   1.5045902  50.8704560
 103.7400012   5.7474997  54.5129988 103.5040012   5.5274997  55.4149988
 102.9560012   5.5404997  54.0029988 103.6018628   5.6894760  54.5673932
 106.4550012   4.8744997  53.5889988 105.5080012   4.9064997  53.7209988
 106.7680012   4.2494997  54.2419988 106.3675475   4.7943207  53.6954455
 108.0890012   3.5084997  55.5939988 107.9930012   2.5564997  55.5879988
 107.7680012   3.7774997  56.4539988 108.0324070   3.4144035  55.7095441
  97.9160012   4.7184997  54.6409988  98.1280012   4.0114997  54.0309988
  97.8050012   4.2804997  55.4849988  97.9299721   4.5627084  54.6716843
 102.6970012   0.7194997  53.6209988 103.4090012   0.0794997  53.6069988
 102.5960012   0.9864997  52.7069988 102.7807939   0.6679938  53.4955650
 103.0510012   2.4024997  55.6739988 102.9190012   1.9264997  54.8539988
 102.4520012   3.1464997  55.6189988 102.9519071   2.4379618  55.5542886
 102.5970012  19.2854997  38.8509988 103.5300012  19.4434997  38.9939988
 102.3330012  19.9604997  38.2259988 102.6889510  19.3983611  38.7860741
  96.1660012  13.9214997  38.3329988  97.0800012  14.0004997  38.6069988
  96.1730012  13.2344997  37.6669988  96.2921131  13.8393961  38.2804393
  94.8150012  19.3144997  43.4109988  94.1680012  18.8524997  42.8779988
  95.1690012  18.6424997  43.9929988  94.7743849  19.1604723  43.4167959
  95.6850012  17.3954997  45.2149988  95.3500012  16.5154997  45.3869988
  95.9070012  17.7404997  46.0799988  95.6691783  17.3217500  45.3554208
 113.2330012  18.2044997  48.1959988 113.2120012  18.3894997  49.1349988
 113.9240012  18.7734997  47.8549988 113.3234618  18.3066606  48.2783864
 112.7970012  17.7724997  51.1179988 112.3090012  17.0364997  50.7469988
 113.3460012  17.3784997  51.7959988 112.8044872  17.6186249  51.1589160
 111.2470012  13.5614997  55.7559988 110.3810012  13.4564997  56.1499988
 111.6240012  14.3204997  56.2019988 111.1793308  13.6496900  55.8702393
 112.5480012  11.8184997  41.2699988 113.3980012  12.2394997  41.3969988
 112.5540012  11.0784997  41.8769988 112.6651372  11.7760803  41.3694344
 112.9430012   9.8714997  43.0939988 112.2160012   9.3924997  43.4909988
 113.5240012  10.0774997  43.8259988 112.9219375   9.8337090  43.2474129
 112.7020012  12.6564997  48.0409988 113.5350012  12.2784997  47.7609988
 112.8140012  13.5994997  47.9219988 112.8312647  12.7322218  47.9865487
 111.1880012  15.5344997  50.3479988 110.5410012  15.8594997  50.9739988
 110.6710012  15.0944997  49.6739988 111.0294029  15.5195004  50.3425827
 113.2110012   9.7724997  39.4849988 112.6890012  10.1294997  38.7659988
 113.1780012  10.4474997  40.1629988 113.1351634   9.9125413  39.4783145
 111.5600012   7.0124997  38.0359988 111.6560012   7.6794997  37.3549988
 111.4200012   6.1964997  37.5539988 111.5542135   6.9934500  37.8778491
 110.7290012   8.3924997  43.6569988 110.5790012   7.4474997  43.6359988
 110.3760012   8.6734997  44.4999988 110.6606625   8.3010441  43.7682346
  95.7650012  10.4704997  47.6669988  95.9490012  10.3884997  46.7309988
  96.6140012  10.3464997  48.0909988  95.9050139  10.4425003  47.5961455
 111.5860012  10.3624997  53.2949988 112.1690012   9.6284997  53.4869988
 112.1500012  11.1344997  53.3419988 111.7419769  10.3664227  53.3276159
 113.0820012   8.2654997  53.9799988 112.2190012   7.8864997  53.8139988
 113.6870012   7.5264997  53.9059988 113.0455979   8.1138023  53.9472817
 110.8070012   4.4204997  37.1529988 111.4180012   4.0494997  37.7899988
 109.9710012   3.9994997  37.3489988 110.7775032   4.3127554  37.2667035
 110.4400012   5.9754997  42.1189988 110.7200012   5.0684997  42.2429988
 111.1990012   6.4094997  41.7299988 110.5809277   5.9100942  42.0833682
 111.0520012   6.5564997  47.5549988 111.9850012   6.7684997  47.5209988
 110.8170012   6.6584997  48.4769988 111.1478036   6.5992769  47.6749976
 111.0810012   7.2934997  50.3309988 110.2380012   7.5614997  50.6969988
 111.5230012   8.1154997  50.1199988 111.0254158   7.4413291  50.3525491
  95.3620012   5.7414997  53.8079988  96.2820012   5.6194997  54.0439988
  94.9130012   4.9914997  54.1969988  95.4271580   5.6233727  53.8929006
 113.3640012   1.2734997  55.6839988 113.7140012   0.6194997  55.0789988
 113.5110012   2.1104997  55.2449988 113.4318419   1.2971591  55.5417118
 111.0530012   3.2384997  42.1669988 111.2360012   2.7894997  42.9929988
 110.4540012   2.6534997  41.7039988 110.9970202   3.0979975  42.2173275
  96.5830012   4.0534997  46.6989988  97.0290012   3.2614997  47.0009988
  97.0500012   4.7694997  47.1299988  96.7070172   4.0420624  46.7984820
  94.8870012   7.0524997  47.7679988  95.3790012   6.8314997  46.9769988
  95.2500012   7.8934997  48.0489988  95.0033126   7.1358357  47.6977531
 112.8840012   3.3824997  54.0339988 111.9660012   3.6534997  53.9979988
 113.0070012   2.8474997  53.2489988 112.7751066   3.3472892  53.9230487
 112.9200012   3.3054997  38.6949988 113.3320012   2.5844997  38.2199988
 113.6020012   3.9754997  38.7539988 113.0685885   3.2972368  38.6378915
  95.2010012   3.3104997  41.8219988  94.2760012   3.5194997  41.6929988
  95.6550012   3.7944997  41.1329988  95.1357368   3.4045993  41.7111226
 109.9720012  18.2944997  43.7679988 110.6240012  17.9474997  43.1599988
 110.4820012  18.7834997  44.4139988 110.1302637  18.3130597  43.7720236
  95.1650012   2.0484997  50.1669988  94.5000012   1.8024997  50.8099988
  94.7220012   2.6704997  49.5889988  95.0140956   2.0988632  50.1769352
  97.3570012  15.2234997  54.3109988  96.5360012  15.3984997  53.8509988
  97.1040012  15.1504997  55.2319988  97.2106164  15.2375622  54.3724923
 100.3110012  16.1984997  50.5699988  99.8860012  17.0074997  50.2869988
 101.2150012  16.2834997  50.2679988 100.3750271  16.3208469  50.4903776
 104.6220012  17.5974997  53.5289988 104.8070012  17.2634997  54.4069988
 105.4680012  17.9064997  53.2069988 104.7617539  17.5936047  53.6055605
 106.9670012  18.8834997  52.7729988 107.6440012  18.2504997  52.5329988
 107.2890012  19.2844997  53.5799988 107.1031637  18.8511154  52.8492793
 111.8840012   1.4724997  51.8529988 111.0720012   1.7974997  51.4649988
 112.1170012   0.7124997  51.3199988 111.8043423   1.4142436  51.7278253
  97.7130012  19.4544997  50.6169988  96.9920012  19.8944997  50.1659988
  97.3470012  19.2034997  51.4659988  97.5649804  19.4807698  50.6699840
 100.1800012  19.0544997  49.6469988  99.3150012  19.1264997  50.0509988
 100.1250012  19.6014997  48.8629988 100.0542085  19.1382685  49.5963362
 104.8900012  18.9424997  48.8219988 104.4340012  19.4714997  48.1679988
 105.0530012  19.5454997  49.5479988 104.8495585  19.0964468  48.8305062
 107.2180012  17.8204997  49.7669988 106.3130012  17.9854997  49.5019988
 107.6470012  18.6734997  49.7019988 107.1520799  17.9584483  49.7219182
 109.8220012  19.3904997  50.0619988 109.6400012  20.3064997  49.8519988
 109.9990012  18.9804997  49.2159988 109.8210210  19.4604822  49.9187885
  97.1270012  18.0774997  47.5269988  97.1090012  17.6524997  48.3849988
  97.9320012  17.7594997  47.1189988  97.2333875  17.9763812  47.5891655
  99.2690012  16.7874997  46.1819988  99.0500012  15.8714997  46.3519988
 100.0930012  16.9274997  46.6479988  99.3504420  16.6810520  46.2682774
 101.8060012  17.2574997  47.0309988 102.0190012  16.3694997  46.7439988
 101.8700012  17.2234997  47.9849988 101.8438232  17.1313102  47.1207397
 105.3140012   2.9214997  46.1749988 104.6400012   2.2924997  46.4309988
 105.8780012   2.4374997  45.5719988 105.2979230   2.7698744  46.1285340
 110.4570012   1.0294997  46.2879988 111.0610012   1.5764997  45.7859988
 109.5870012   1.3484997  46.0479988 110.4221241   1.1475806  46.1867654
 112.1840012   2.1674997  44.6209988 112.7960012   1.6534997  44.0949988
 112.5660012   3.0454997  44.6449988 112.3194540   2.2157140  44.5521830
  97.6410012   1.5554997  43.9969988  96.8640012   1.3214997  43.4899988
  98.1710012   0.7584997  44.0059988  97.6062330   1.4156988  43.9287742
  96.4770012   1.3534997  39.8009988  96.9160012   1.9644997  39.2089988
  95.8440012   1.8914997  40.2749988  96.4514514   1.5099257  39.7840930
 102.2200012   1.4824997  43.8109988 103.0950012   1.8704997  43.7809988
 102.0840012   1.2674997  44.7329988 102.3213695   1.5065184  43.9316440
 107.7770012   1.5124997  45.4599988 107.8530012   1.6074997  44.5099988
 107.5020012   0.6044997  45.5889988 107.7502321   1.4027867  45.3475079
 109.1300012   1.5384997  41.1519988 108.4280012   2.1534997  40.9429988
 108.6860012   0.7004997  41.2829988 108.9736330   1.5095783  41.1410328
  96.3780012  17.3014997  40.6989988  95.6930012  17.2634997  40.0309988
  96.3820012  18.2144997  40.9869988  96.2848193  17.4197016  40.6465284
  98.3380012   3.2694997  38.2429988  98.8300012   2.6394997  37.7159988
  98.9620012   3.5654997  38.9069988  98.4895446   3.2233199  38.2605980
 103.3640012   3.5624997  40.6999988 103.5420012   2.9164997  41.3829988
 103.3110012   4.3964997  41.1679988 103.3811829   3.5867985  40.8565940
 105.2430012  18.5114997  39.0959988 106.1090012  18.8774997  38.9179988
 104.9960012  18.0714997  38.2819988 105.3282392  18.5021756  38.9616289
 111.9520012  18.0744997  41.7749988 111.7570012  17.3264997  41.2099988
 111.9130012  18.8324997  41.1919988 111.9200380  18.0746099  41.6188384
  97.5990012   2.0694997  53.5149988  97.2330012   1.3044997  53.9579988
  98.5120012   2.0984997  53.8019988  97.6722790   1.9687224  53.6144070
  99.5720012   1.4204997  55.0509988 100.4700012   1.1464997  54.8659988
  99.1850012   0.6774997  55.5149988  99.6426612   1.2825914  55.0883643
  98.1960012  18.2214997  37.7239988  97.9290012  18.5084997  38.5969988
  98.9680012  17.6754997  37.8759988  98.2637488  18.1870294  37.8641050
 107.9930012   0.7524997  55.2329988 108.0700012   0.3264997  56.0869988
 108.8870012   0.7664997  54.8899988 108.1243428   0.6960880  55.3035310
 111.1690012  16.8254997  53.9249988 110.3870012  16.6394997  53.4059988
 111.0970012  17.7544997  54.1429988 111.0521777  16.9256492  53.8834048
 125.5750012  10.7114997  43.9559988 125.6640012  11.6554997  43.8239988
 124.9370012  10.4364997  43.2979988 125.5009081  10.8034830  43.8489614
 124.5080012   9.9664997  47.3749988 124.4700012   9.3204997  48.0799988
 124.1860012   9.5004997  46.6039988 124.4592333   9.8149408  47.3672978
 116.8770012   9.5814997  48.9679988 116.9180012   8.9554997  49.6909988
 117.5800012  10.2054997  49.1499988 116.9776363   9.5801196  49.0916044
 128.2140012  12.9054997  45.6759988 127.7740012  12.1854997  46.1269988
 128.2010012  13.6264997  46.3059988 128.1520226  12.9043731  45.8228494
 117.8000012  14.0314997  47.5029988 117.4310012  13.2294997  47.1329988
 118.7410012  13.8624997  47.5489988 117.8767289  13.8990153  47.4586316
 114.4100012   7.6914997  42.8959988 113.9630012   8.5374997  42.8769988
 113.8490012   7.1114997  42.3799988 114.2729900   7.7289916  42.8236801
 115.1210012   9.8534997  45.0219988 115.3340012   9.0834997  45.5489988
 115.8590012   9.9424997  44.4179988 115.2498496   9.7601394  45.0125300
 125.3260012  18.0104997  45.8889988 125.9460012  17.3334997  45.6149988
 125.1180012  17.7924997  46.7969988 125.3826904  17.8883870  45.9743365
 122.8980012  12.3994997  47.7809988 123.2020012  11.7134997  47.1859988
 123.6190012  12.5174997  48.3989988 123.0370671  12.3216305  47.7831816
 131.5610012   4.0004997  48.6419988 131.6100012   4.6104997  49.3779988
 131.9860012   4.4614997  47.9189988 131.6251824   4.1463741  48.6450205
 126.0390012   6.7934997  48.1089988 126.1810012   5.8474997  48.1289988
 125.9320012   7.0004997  47.1799988 126.0439864   6.6919534  47.9862339
 119.1930012   4.8944997  45.3809988 119.2370012   5.7544997  44.9629988
 118.7360012   4.3424997  44.7469988 119.1372185   4.9375799  45.2380299
 126.9160012   5.0254997  43.7819988 127.5620012   4.6964997  44.4069988
 127.4260012   5.5434997  43.1589988 127.0734264   5.0504611  43.7833862
 115.8140012   7.2914997  46.1429988 116.4670012   6.7414997  46.5749988
 115.8380012   7.0174997  45.2259988 115.9066683   7.1791466  46.0782123
 120.9700012   8.8414997  45.3579988 121.5860012   8.3154997  45.8679988
 120.3840012   8.2014997  44.9549988 120.9750810   8.6829208  45.3733173
 131.9520012   5.4784997  50.8779988 131.2640012   6.1364997  50.7819988
 131.9680012   5.2814997  51.8139988 131.8598525   5.5420462  50.9914808
 118.0040012   3.8124997  49.4549988 117.7850012   4.3424997  48.6889988
 117.3360012   4.0394997  50.1019988 117.8837600   3.9156906  49.4376379
 125.3730012  13.3124997  42.9989988 125.0770012  12.9904997  42.1479988
 125.0480012  14.2124997  43.0399988 125.2886371  13.3900215  42.8881801
 120.5730012  11.4884997  49.7419988 119.8330012  12.0864997  49.8459988
 121.2870012  12.0424997  49.4269988 120.5682237  11.6452831  49.7136465
 128.6800012   4.3164997  45.7619988 128.4640012   3.5504997  46.2949988
 129.3350012   4.7884997  46.2749988 128.7390632   4.2755889  45.9042861
 117.5970012   5.7044997  47.4069988 118.2110012   6.3374997  47.7809988
 118.1090012   5.2324997  46.7509988 117.7502296   5.7272370  47.3694252
 118.9800012  13.4524997  50.5299988 118.9750012  14.3324997  50.1519988
 118.1270012  13.3694997  50.9549988 118.8639464  13.5616117  50.5357907
 115.1010012  13.1234997  41.3119988 114.8290012  13.3524997  40.4229988
 115.1470012  13.9614997  41.7719988 115.0700094  13.2681213  41.2525697
 128.7260012  14.7454997  48.0239988 127.7850012  14.8034997  48.1859988
 129.0030012  15.6514997  47.8869988 128.6344679  14.8759443  48.0276815
 129.0270012   3.0314997  49.4419988 128.2910012   3.6424997  49.4039988
 129.7100012   3.4464997  48.9149988 129.0186541   3.1711374  49.3655832
 122.0300012   1.1184997  46.9079988 121.9130012   0.1694997  46.8529988
 121.1750012   1.4504997  47.1809988 121.8983733   1.0335409  46.9373897
 126.9780012  16.5264997  44.6499988 127.4040012  15.8194997  44.1649988
 127.2950012  17.3274997  44.2329988 127.0791019  16.5380994  44.5273130
 128.1380012  14.4274997  43.1579988 127.8800012  13.7374997  42.5469988
 128.2090012  13.9844997  44.0039988 128.1122856  14.2732124  43.1886885
 129.8240012  12.9934997  51.6359988 129.9640012  12.4024997  50.8959988
 129.9910012  13.8664997  51.2789988 129.8656778  13.0306426  51.4866965
 124.2970012   9.9554997  41.4079988 123.5850012  10.4904997  41.0559988
 124.9880012  10.0114997  40.7479988 124.2930132  10.0362543  41.2706289
 124.3500012   8.4134997  38.4469988 125.0510012   8.4354997  39.0979988
 124.6530012   7.7854997  37.7909988 124.4867830   8.3316566  38.4473711
 131.6660012   9.3334997  49.7019988 131.0130012  10.0284997  49.7909988
 132.1310012   9.5434997  48.8919988 131.6395390   9.4569425  49.6046883
 127.7020012  10.1654997  42.3599988 126.9700012  10.3934997  42.9329988
 128.1500012   9.4514997  42.8149988 127.6623095  10.1002571  42.4999119
 127.6000012   8.3394997  51.4269988 127.6800012   9.1024997  51.9989988
 126.9980012   8.6184997  50.7369988 127.5295756   8.4817134  51.4120589
 119.3480012  10.7954997  44.2419988 119.0170012  10.4254997  43.4239988
 119.9360012  10.1254997  44.5889988 119.3821873  10.6541156  44.1768102
 120.7140012  14.2234997  46.9239988 120.6200012  13.6454997  46.1669988
 121.4440012  13.8524997  47.4199988 120.7997981  14.0942390  46.8874165
 119.7140012   9.5644997  47.8759988 120.2800012   9.6854997  47.1129988
 120.0330012  10.2014997  48.5149988 119.8345786   9.6671884  47.8580040
 126.0230012  15.0674997  48.6099988 125.7830012  15.7294997  49.2579988
 125.8250012  14.2334997  49.0349988 125.9633808  15.0453134  48.7561524
 120.5940012  13.9634997  52.5929988 120.2830012  14.7454997  53.0479988
 119.9440012  13.8104997  51.9069988 120.4635558  14.0499105  52.5625871
 126.5730012   9.3274997  40.0449988 127.1530012   9.4774997  40.7919988
 126.9870012   9.7984997  39.3219988 126.7082830   9.4116841  40.0494134
 117.5140012  10.1614997  51.8219988 117.5850012  10.8124997  52.5199988
 116.6240012  10.2644997  51.4869988 117.4033117  10.2645936  51.8722700
 124.3000012  16.0644997  43.4799988 124.7740012  16.3594997  44.2579988
 123.7370012  16.8024997  43.2469988 124.2887653  16.2046932  43.5550136
 118.8340012  16.0354997  53.3559988 118.8410012  15.8994997  52.4089988
 117.9180012  15.9174997  53.6079988 118.7111714  16.0009430  53.2604666
 130.2720012   1.0774997  39.8579988 129.3720012   1.2164997  40.1529988
 130.5240012   1.9084997  39.4559988 130.1828702   1.2089074  39.8440205
 118.3380012   9.8654997  41.8319988 118.0460012  10.6334997  41.3409988
 117.6640012   9.2054997  41.6689988 118.2069081   9.8814406  41.7427340
 131.4610012  15.4434997  38.2339988 131.5350012  16.3824997  38.4049988
 132.3670012  15.1384997  38.1779988 131.5935100  15.5306722  38.2498119
 114.4310012  12.2284997  50.6469988 113.9300012  12.2004997  49.8319988
 114.4360012  11.3224997  50.9559988 114.3631526  12.1022278  50.5772872
 114.1810012  15.0084997  47.5309988 115.1270012  14.8644997  47.5119988
 114.0690012  15.7924997  48.0679988 114.2952727  15.0948046  47.6010072
 132.3790012  15.6744997  53.2129988 132.3300012  14.7194997  53.1759988
 131.5520012  15.9424997  53.6139988 132.2604940  15.5798998  53.2621375
 123.3580012  15.2484997  52.0889988 123.4450012  16.0744997  52.5639988
 122.4940012  14.9184997  52.3379988 123.2531964  15.3169878  52.1876549
 123.7720012  19.0204997  41.8949988 123.6970012  18.8994997  40.9489988
 123.8050012  19.9704997  42.0139988 123.7661848  19.1322500  41.7814834
 117.4250012  17.8094997  43.6759988 117.5780012  17.4614997  44.5549988
 116.5750012  17.4534997  43.4209988 117.3308962  17.7136650  43.7618340
 126.8740012  18.1744997  38.8969988 127.2490012  17.4304997  38.4269988
 126.8780012  17.9044997  39.8159988 126.9258915  18.0361486  38.9567824
 126.5430012  18.1004997  41.6469988 125.6070012  18.2004997  41.8249988
 126.8230012  17.3914997  42.2249988 126.4528255  18.0182711  41.7495391
 129.5310012   7.1674997  53.6929988 129.1240012   7.6484997  52.9719988
 129.5720012   6.2624997  53.3849988 129.4808437   7.1109374  53.5526683
 116.6800012  13.5514997  51.6899988 116.8960012  13.1904997  52.5489988
 115.8250012  13.1774997  51.4799988 116.5939292  13.4514111  51.7793386
 119.2990012   2.0214997  47.6849988 118.4370012   1.9344997  47.2779988
 119.2760012   2.8774997  48.1129988 119.1780330   2.1252765  47.6871863
 123.9620012   1.7434997  51.0599988 124.3820012   1.3284997  51.8129988
 123.0290012   1.5654997  51.1769988 123.8933644   1.6625900  51.1789539
 127.2880012   5.4994997  51.9129988 126.7740012   5.3734997  52.7109988
 127.1330012   6.4114997  51.6689988 127.1966852   5.6056132  51.9892158
 128.0510012  10.3604997  37.6749988 128.0930012  10.1374997  36.7449988
 128.9000012  10.7594997  37.8649988 128.1715396  10.3839155  37.5733627
 123.6230012   4.2364997  38.3449988 123.3700012   4.2554997  39.2679988
 123.3670012   3.3644997  38.0439988 123.5537790   4.1212437  38.4306263
 119.3900012   6.9874997  48.7799988 118.7480012   6.9464997  49.4889988
 119.4270012   7.9134997  48.5429988 119.3071324   7.1071559  48.8449824
 119.3870012   7.2084997  43.6919988 118.4940012   6.8674997  43.6339988
 119.8370012   6.8314997  42.9369988 119.3257305   7.1108484  43.5819177
 124.9220012   7.6244997  42.5089988 124.5130012   8.4394997  42.2179988
 125.6430012   7.4844997  41.8949988 124.9634537   7.7172018  42.3861342
 124.0240012   7.7994997  53.9969988 123.4620012   7.0954997  54.3179988
 124.8510012   7.6794997  54.4649988 124.0587095   7.6867883  54.1042330
 125.9270012   7.0704997  45.3229988 125.7320012   7.6754997  44.6079988
 126.1080012   6.2364997  44.8889988 125.9247614   7.0406300  45.1664405
 117.1400012   7.3074997  50.6469988 117.1020012   7.7074997  51.5159988
 116.6490012   6.4904997  50.7379988 117.0684684   7.2518069  50.7781059
 120.5060012   4.6814997  37.4459988 120.0750012   4.2364997  38.1759988
 119.7880012   5.0534997  36.9339988 120.3499438   4.6708940  37.4766799
 113.7480012   4.4234997  44.4979988 114.3790012   4.3944997  45.2169988
 114.1970012   3.9984997  43.7679988 113.8950774   4.3620492  44.4976553
 115.0220012   5.1694997  39.9219988 115.4960012   5.7604997  39.3369988
 114.3050012   5.7004997  40.2689988 114.9899341   5.3220867  39.8888836
 125.1910012   8.7084997  49.9949988 125.5140012   8.0774997  49.3519988
 124.7510012   8.1734997  50.6549988 125.1756895   8.5498441  49.9962850
 121.9680012   4.6354997  44.7789988 121.0570012   4.6924997  45.0669988
 122.4740012   4.5754997  45.5889988 121.9115413   4.6351985  44.9280622
 116.7970012   6.2644997  43.6049988 115.9070012   6.3644997  43.2649988
 117.0930012   5.4224997  43.2589988 116.7152823   6.1643545  43.5117213
 120.4500012   6.2644997  41.2619988 121.3810012   6.3934997  41.4399988
 120.2350012   6.9344997  40.6119988 120.5484247   6.3726565  41.1985747
 126.3730012   3.8704997  48.0429988 125.6970012   4.0014997  48.7069988
 125.8880012   3.7154997  47.2329988 126.2147145   3.8674905  48.0244517
 119.1240012   7.4594997  38.8289988 118.5810012   7.0794997  38.1369988
 119.9570012   7.6534997  38.3999988 119.1624399   7.4338124  38.6764526
 129.6610012  19.5424997  54.3199988 129.8610012  19.9664997  53.4849988
 130.3160012  19.8854997  54.9269988 129.7770051  19.6469648  54.2877836
 117.2590012  12.0164997  53.9279988 117.9910012  12.2704997  54.4889988
 116.4790012  12.2204997  54.4429988 117.2538232  12.0789177  54.0745760
 123.2880012   7.4234997  46.6659988 123.8530012   6.8764997  46.1189988
 123.1410012   6.9014997  47.4539988 123.3452918   7.2782024  46.6978454
 118.2900012   3.5594997  43.0839988 117.9730012   2.6574997  43.0489988
 119.0720012   3.5614997  42.5309988 118.3522284   3.4361628  43.0044783
 121.9150012   5.8114997  49.0799988 121.0790012   6.2654997  49.1899988
 122.4390012   6.0874997  49.8319988 121.8714414   5.9109376  49.1967136
 122.4590012  12.0244997  40.7639988 121.7140012  11.5174997  40.4419988
 122.3250012  12.0734997  41.7109988 122.3388776  11.9616940  40.8478647
 129.6090012  11.1574997  49.5509988 130.2510012  11.6144997  49.0069988
 128.7790012  11.2704997  49.0879988 129.5845963  11.2352704  49.4140177
 126.3570012   4.8384997  38.9639988 125.4180012   4.9504997  38.8119988
 126.6540012   5.6954997  39.2699988 126.2687666   4.9696443  38.9845768
 123.9780012  12.2084997  52.0009988 123.6330012  11.8274997  52.8079988
 123.7780012  13.1424997  52.0729988 123.9038061  12.2825228  52.1210961
 127.0750012   6.7054997  40.6239988 127.9670012   6.5684997  40.9429988
 127.1320012   7.4964997  40.0879988 127.2046285   6.7936660  40.5951691
 117.5840012  11.3194997  46.5339988 118.3290012  11.3174997  45.9329988
 117.6620012  10.4964997  47.0159988 117.6965518  11.2079315  46.5168929
 124.5850012  13.4834997  39.7899988 124.2890012  14.3094997  40.1709988
 123.8820012  12.8634997  39.9859988 124.4494914  13.5128199  39.8686443
 114.5920012   9.7804997  51.8489988 114.8150012   9.3624997  52.6809988
 113.9900012   9.1674997  51.4259988 114.5411759   9.6404668  51.9057022
 121.6080012   9.2974997  54.0619988 121.3120012   9.1314997  53.1669988
 122.5400012   9.0774997  54.0509988 121.6934166   9.2450640  53.9380536
 126.2290012  14.6704997  51.9519988 125.3280012  14.8534997  51.6839988
 126.2630012  14.9294997  52.8729988 126.1103041  14.7305512  52.0398197
 131.9600012   6.9154997  40.3189988 131.4060012   6.5194997  39.6469988
 132.0600012   7.8254997  40.0409988 131.8977059   6.9843586  40.1894401
 131.9230012  12.7154997  53.1559988 131.0720012  12.9534997  52.7889988
 132.5140012  12.6984997  52.4029988 131.8862487  12.7458258  53.0038893
 130.2550012  15.7014997  40.7839988 129.8820012  14.8754997  41.0929988
 130.5330012  15.5184997  39.8869988 130.2415630  15.5637303  40.7049626
 127.4160012  10.5094997  47.8049988 126.4870012  10.2774997  47.7779988
 127.8670012   9.7324997  47.4749988 127.3499216  10.3727238  47.7566917
 119.9590012  14.8374997  43.9379988 120.4860012  15.6104997  43.7379988
 119.0790012  15.0624997  43.6369988 119.9121773  14.9738005  43.8699010
 115.7140012   9.6994997  38.5249988 116.3300012  10.3264997  38.9049988
 114.8520012  10.0154997  38.7969988 115.6817698   9.8279430  38.6137183
 121.3860012  12.5004997  43.5149988 121.1450012  13.4254997  43.5559988
 120.6450012  12.0414997  43.9109988 121.2528409  12.5651421  43.5741377
 121.9010012  16.6494997  49.8299988 122.2630012  17.5044997  49.5959988
 122.4320012  16.3574997  50.5699988 122.0224473  16.7271060  49.8980855
 120.0690012  17.5224997  43.0599988 119.1190012  17.6274997  43.1109988
 120.4210012  18.3424997  43.4049988 119.9864203  17.6478314  43.1136650
 125.4450012  12.7484997  49.5299988 125.0190012  12.5214997  50.3569988
 126.0250012  12.0104997  49.3479988 125.4651868  12.6175299  49.6185830
 127.6480012  13.6774997  38.6039988 128.0010012  13.2974997  39.4089988
 126.6990012  13.5844997  38.6909988 127.5680441  13.6129596  38.7258559
 128.1030012  17.3004997  51.9999988 127.5020012  16.7454997  51.5039988
 128.3850012  17.9674997  51.3739988 128.0588519  17.3146841  51.8474952
 132.1510012  18.1574997  38.8049988 132.8950012  18.7434997  38.6649988
 131.4570012  18.7254997  39.1389988 132.1590292  18.3145582  38.8309961
 116.2260012   4.5334997  51.4069988 115.3330012   4.8724997  51.3389988
 116.1270012   3.6784997  51.8249988 116.0904164   4.4642588  51.4542235
 128.5140012  12.3504997  40.8309988 128.2360012  11.6224997  41.3869988
 129.4410012  12.4694997  41.0359988 128.6013124  12.2668802  40.9348845
 115.8770012  16.3384997  49.8419988 116.0940012  15.4064997  49.8109988
 116.1230012  16.6124997  50.7249988 115.9399549  16.2480636  49.9571763
 121.7390012  14.7894997  37.0509988 121.9780012  14.0414997  36.5039988
 121.4700012  14.4014997  37.8839988 121.7353675  14.6346638  37.0886865
 120.6760012  14.3594997  39.5079988 120.8220012  13.8394997  40.2979988
 120.6730012  15.2664997  39.8139988 120.6955989  14.4108853  39.6576088
 117.1290012  11.6124997  40.0179988 116.4430012  11.9644997  40.5849988
 117.6510012  12.3754997  39.7709988 117.1056852  11.7638578  40.0622118
 124.9600012   4.2744997  50.2969988 125.6590012   4.3484997  50.9469988
 124.5790012   3.4104997  50.4509988 125.0041767   4.1677624  50.4068322
 125.7450012   3.9264997  41.3939988 125.9650012   4.3984997  40.5909988
 126.3030012   4.3214997  42.0639988 125.8504968   4.0444285  41.3747331
 123.4130012  16.0574997  40.2569988 122.5970012  16.5544997  40.3089988
 123.9430012  16.5324997  39.6169988 123.3729161  16.1897722  40.1775956
 122.9450012   5.6544997  42.2289988 123.7570012   6.1594997  42.2749988
 122.7000012   5.5094997  43.1429988 123.0230520   5.7040375  42.3588517
 123.4800012   6.6404997  51.4139988 123.5990012   7.2144997  52.1709988
 124.1360012   5.9524997  51.5279988 123.5849757   6.6261079  51.5330825
 123.8280012   2.7354997  43.1669988 123.4820012   3.3534997  43.8119988
 124.4870012   3.2364997  42.6859988 123.8697826   2.8875802  43.1900971
 120.7520012  17.1014997  40.2389988 120.9120012  17.9004997  39.7379988
 120.5540012  17.4074997  41.1239988 120.7471649  17.2524469  40.2899815
 119.4860012   3.7984997  39.8539988 119.4030012   4.6874997  40.2009988
 120.3760012   3.5334997  40.0859988 119.5949469   3.8841430  39.9327626
 129.6850012   4.5474997  52.2489988 128.7680012   4.8104997  52.1609988
 130.0200012   4.5444997  51.3519988 129.6049900   4.5830224  52.1157919
 128.2870012   8.2984997  46.3439988 127.4890012   7.8834997  46.0159988
 128.7320012   7.6074997  46.8349988 128.2379885   8.1483543  46.3654889
 117.7450012  14.2264997  38.9149988 118.3370012  14.9254997  39.1909988
 118.2040012  13.7934997  38.1949988 117.8881142  14.2637049  38.8554830
 116.0610012   6.8904997  38.0309988 116.0160012   7.8294997  38.2089988
 115.1730012   6.6544997  37.7609988 115.9348574   6.9871892  38.0188912
 129.3730012  17.5544997  47.9669988 129.2180012  18.2324997  47.3099988
 130.3060012  17.6264997  48.1699988 129.4778500  17.6570170  47.9045119
 116.8690012   1.6724997  46.7039988 116.6400012   1.7314997  45.7759988
 116.4260012   0.8804997  47.0099988 116.7778530   1.5735753  46.6184786
 115.7990012  15.6124997  42.8639988 114.9670012  16.0854997  42.8919988
 116.3450012  16.1224997  42.2659988 115.7589739  15.7461871  42.7869716
 115.0870012  18.2254997  54.1939988 115.6280012  18.0084997  54.9539988
 114.6060012  17.4194997  54.0049988 115.0959345  18.0869514  54.2723076
 119.6850012  17.1444997  55.8149988 120.4520012  16.6854997  56.1559988
 119.6630012  16.9184997  54.8849988 119.7871434  17.0510409  55.7360043
 123.7770012  16.6524997  37.1899988 123.1330012  16.0214997  37.5109988
 124.5390012  16.1214997  36.9579988 123.7918077  16.4942920  37.2026011
 126.2620012  15.5244997  54.5439988 125.9110012  14.6684997  54.7869988
 126.9880012  15.6674997  55.1509988 126.3120769  15.4265636  54.6593619
 128.3810012  16.4694997  37.4239988 128.6640012  15.6754997  37.8759988
 129.1210012  16.7024997  36.8629988 128.5197486  16.3922803  37.4100698
 114.9940012  12.0354997  55.1489988 115.1380012  11.1334997  54.8619988
 114.2220012  12.3214997  54.6609988 114.9093323  11.9508261  55.0437881
 119.3360012  12.3794997  37.2809988 119.4000012  11.5854997  37.8119988
 119.9890012  12.2604997  36.5909988 119.4330241  12.2547148  37.2604317
 121.6500012  12.0054997  54.5809988 121.3210012  12.2764997  53.7239988
 121.8020012  11.0644997  54.4939988 121.6254809  11.9153862  54.4518244
 124.6880012  13.4264997  37.0169988 124.4190012  13.6064997  37.9179988
 124.4820012  12.5004997  36.8859988 124.6233825  13.3260152  37.1225214
 127.3840012  11.9214997  51.9649988 128.1300012  12.5094997  51.8449988
 126.6270012  12.5034997  52.0279988 127.3837554  12.0807011  51.9570907
 115.8270012   9.2354997  54.5689988 116.2350012   8.3784997  54.4479988
 115.5670012   9.2504997  55.4899988 115.8477568   9.1200807  54.6769588
 120.4850012  10.3514997  39.5869988 120.0250012   9.8674997  40.2729988
 120.7400012   9.6834997  38.9509988 120.4564902  10.1948731  39.5949334
 119.7740012   8.2444997  51.9429988 119.1560012   8.9194997  52.2229988
 120.1180012   8.5654997  51.1099988 119.7359615   8.3802721  51.8686581
 121.5560012   8.5944997  37.8489988 121.3760012   8.4404997  36.9219988
 122.5060012   8.7024997  37.8939988 121.6597776   8.5880175  37.7281843
 124.7940012  10.7164997  55.2199988 125.7470012  10.7994997  55.1929988
 124.6330012  10.0044997  55.8399988 124.9026426  10.6316746  55.3000579
 130.9460012  10.9494997  37.2949988 130.6720012  10.5244997  36.4819988
 130.9850012  11.8804997  37.0779988 130.9137699  11.0172484  37.1543610
 120.1130012   5.5994997  53.0249988 120.2630012   4.8704997  52.4229988
 120.1160012   6.3764997  52.4659988 120.1339302   5.6047851  52.8670692
 120.5260012   3.9694997  50.5179988 121.0620012   4.4204997  49.8659988
 119.6740012   3.8614997  50.0949988 120.4842178   4.0166390  50.3715756
 122.1080012   9.4084997  50.7569988 122.8580012   9.2524997  50.1839988
 121.7690012  10.2604997  50.4819988 122.1648921   9.5022968  50.6413561
 126.5230012   7.2234997  55.7859988 126.7160012   6.2924997  55.6739988
 127.3810012   7.6484997  55.7759988 126.6653020   7.1536389  55.7693361
 127.8400012  10.0124997  53.8629988 127.5590012  10.7214997  53.2859988
 128.7830012   9.9394997  53.7119988 127.9289027  10.0997646  53.7635551
 118.5920012   6.7974997  54.9369988 117.8250012   6.2654997  54.7269988
 119.2710012   6.4874997  54.3369988 118.5787022   6.6827506  54.8271648
 121.3320012   1.4254997  50.9489988 121.2330012   2.3724997  50.8439988
 120.5890012   1.0534997  50.4739988 121.2180564   1.5045902  50.8704560
 122.5960012   5.7474997  54.5129988 122.3600012   5.5274997  55.4149988
 121.8120012   5.5404997  54.0029988 122.4578628   5.6894760  54.5673932
 125.3110012   4.8744997  53.5889988 124.3640012   4.9064997  53.7209988
 125.6240012   4.2494997  54.2419988 125.2235475   4.7943207  53.6954455
 126.9450012   3.5084997  55.5939988 126.8490012   2.5564997  55.5879988
 126.6240012   3.7774997  56.4539988 126.8884070   3.4144035  55.7095441
 116.7720012   4.7184997  54.6409988 116.9840012   4.0114997  54.0309988
 116.6610012   4.2804997  55.4849988 116.7859721   4.5627084  54.6716843
 121.5530012   0.7194997  53.6209988 122.2650012   0.0794997  53.6069988
 121.4520012   0.9864997  52.7069988 121.6367939   0.6679938  53.4955650
 121.9070012   2.4024997  55.6739988 121.7750012   1.9264997  54.8539988
 121.3080012   3.1464997  55.6189988 121.8079071   2.4379618  55.5542886
 121.4530012  19.2854997  38.8509988 122.3860012  19.4434997  38.9939988
 121.1890012  19.9604997  38.2259988 121.5449510  19.3983611  38.7860741
 115.0220012  13.9214997  38.3329988 115.9360012  14.0004997  38.6069988
 115.0290012  13.2344997  37.6669988 115.1481131  13.8393961  38.2804393
 113.6710012  19.3144997  43.4109988 113.0240012  18.8524997  42.8779988
 114.0250012  18.6424997  43.9929988 113.6303849  19.1604723  43.4167959
 114.5410012  17.3954997  45.2149988 114.2060012  16.5154997  45.3869988
 114.7630012  17.7404997  46.0799988 114.5251783  17.3217500  45.3554208
 132.0890012  18.2044997  48.1959988 132.0680012  18.3894997  49.1349988
 132.7800012  18.7734997  47.8549988 132.1794618  18.3066606  48.2783864
 131.6530012  17.7724997  51.1179988 131.1650012  17.0364997  50.7469988
 132.2020012  17.3784997  51.7959988 131.6604872  17.6186249  51.1589160
 130.1030012  13.5614997  55.7559988 129.2370012  13.4564997  56.1499988
 130.4800012  14.3204997  56.2019988 130.0353308  13.6496900  55.8702393
 131.4040012  11.8184997  41.2699988 132.2540012  12.2394997  41.3969988
 131.4100012  11.0784997  41.8769988 131.5211372  11.7760803  41.3694344
 131.7990012   9.8714997  43.0939988 131.0720012   9.3924997  43.4909988
 132.3800012  10.0774997  43.8259988 131.7779375   9.8337090  43.2474129
 131.5580012  12.6564997  48.0409988 132.3910012  12.2784997  47.7609988
 131.6700012  13.5994997  47.9219988 131.6872647  12.7322218  47.9865487
 130.0440012  15.5344997  50.3479988 129.3970012  15.8594997  50.9739988
 129.5270012  15.0944997  49.6739988 129.8854029  15.5195004  50.3425827
 132.0670012   9.7724997  39.4849988 131.5450012  10.1294997  38.7659988
 132.0340012  10.4474997  40.1629988 131.9911634   9.9125413  39.4783145
 130.4160012   7.0124997  38.0359988 130.5120012   7.6794997  37.3549988
 130.2760012   6.1964997  37.5539988 130.4102135   6.9934500  37.8778491
 129.5850012   8.3924997  43.6569988 129.4350012   7.4474997  43.6359988
 129.2320012   8.6734997  44.4999988 129.5166625   8.3010441  43.7682346
 114.6210012  10.4704997  47.6669988 114.8050012  10.3884997  46.7309988
 115.4700012  10.3464997  48.0909988 114.7610139  10.4425003  47.5961455
 130.4420012  10.3624997  53.2949988 131.0250012   9.6284997  53.4869988
 131.0060012  11.1344997  53.3419988 130.5979769  10.3664227  53.3276159
 131.9380012   8.2654997  53.9799988 131.0750012   7.8864997  53.8139988
 132.5430012   7.5264997  53.9059988 131.9015979   8.1138023  53.9472817
 129.6630012   4.4204997  37.1529988 130.2740012   4.0494997  37.7899988
 128.8270012   3.9994997  37.3489988 129.6335032   4.3127554  37.2667035
 129.2960012   5.9754997  42.1189988 129.5760012   5.0684997  42.2429988
 130.0550012   6.4094997  41.7299988 129.4369277   5.9100942  42.0833682
 129.9080012   6.5564997  47.5549988 130.8410012   6.7684997  47.5209988
 129.6730012   6.6584997  48.4769988 130.0038036   6.5992769  47.6749976
 129.9370012   7.2934997  50.3309988 129.0940012   7.5614997  50.6969988
 130.3790012   8.1154997  50.1199988 129.8814158   7.4413291  50.3525491
 114.2180012   5.7414997  53.8079988 115.1380012   5.6194997  54.0439988
 113.7690012   4.9914997  54.1969988 114.2831580   5.6233727  53.8929006
 132.2200012   1.2734997  55.6839988 132.5700012   0.6194997  55.0789988
 132.3670012   2.1104997  55.2449988 132.2878419   1.2971591  55.5417118
 129.9090012   3.2384997  42.1669988 130.0920012   2.7894997  42.9929988
 129.3100012   2.6534997  41.7039988 129.8530202   3.0979975  42.2173275
 115.4390012   4.0534997  46.6989988 115.8850012   3.2614997  47.0009988
 115.9060012   4.7694997  47.1299988 115.5630172   4.0420624  46.7984820
 113.7430012   7.0524997  47.7679988 114.2350012   6.8314997  46.9769988
 114.1060012   7.8934997  48.0489988 113.8593126   7.1358357  47.6977531
 131.7400012   3.3824997  54.0339988 130.8220012   3.6534997  53.9979988
 131.8630012   2.8474997  53.2489988 131.6311066   3.3472892  53.9230487
 131.7760012   3.3054997  38.6949988 132.1880012   2.5844997  38.2199988
 132.4580012   3.9754997  38.7539988 131.9245885   3.2972368  38.6378915
 114.0570012   3.3104997  41.8219988 113.1320012   3.5194997  41.6929988
 114.5110012   3.7944997  41.1329988 113.9917368   3.4045993  41.7111226
 128.8280012  18.2944997  43.7679988 129.4800012  17.9474997  43.1599988
 129.3380012  18.7834997  44.4139988 128.9862637  18.3130597  43.7720236
 114.0210012   2.0484997  50.1669988 113.3560012   1.8024997  50.8099988
 113.5780012   2.6704997  49.5889988 113.8700956   2.0988632  50.1769352
 116.2130012  15.2234997  54.3109988 115.3920012  15.3984997  53.8509988
 115.9600012  15.1504997  55.2319988 116.0666164  15.2375622  54.3724923
 119.1670012  16.1984997  50.5699988 118.7420012  17.0074997  50.2869988
 120.0710012  16.2834997  50.2679988 119.2310271  16.3208469  50.4903776
 123.4780012  17.5974997  53.5289988 123.6630012  17.2634997  54.4069988
 124.3240012  17.9064997  53.2069988 123.6177539  17.5936047  53.6055605
 125.8230012  18.8834997  52.7729988 126.5000012  18.2504997  52.5329988
 126.1450012  19.2844997  53.5799988 125.9591637  18.8511154  52.8492793
 130.7400012   1.4724997  51.8529988 129.9280012   1.7974997  51.4649988
 130.9730012   0.7124997  51.3199988 130.6603423   1.4142436  51.7278253
 116.5690012  19.4544997  50.6169988 115.8480012  19.8944997  50.1659988
 116.2030012  19.2034997  51.4659988 116.4209804  19.4807698  50.6699840
 119.0360012  19.0544997  49.6469988 118.1710012  19.1264997  50.0509988
 118.9810012  19.6014997  48.8629988 118.9102085  19.1382685  49.5963362
 123.7460012  18.9424997  48.8219988 123.2900012  19.4714997  48.1679988
 123.9090012  19.5454997  49.5479988 123.7055585  19.0964468  48.8305062
 126.0740012  17.8204997  49.7669988 125.1690012  17.9854997  49.5019988
 126.5030012  18.6734997  49.7019988 126.0080799  17.9584483  49.7219182
 128.6780012  19.3904997  50.0619988 128.4960012  20.3064997  49.8519988
 128.8550012  18.9804997  49.2159988 128.6770210  19.4604822  49.9187885
 115.9830012  18.0774997  47.5269988 115.9650012  17.6524997  48.3849988
 116.7880012  17.7594997  47.1189988 116.0893875  17.9763812  47.5891655
 118.1250012  16.7874997  46.1819988 117.9060012  15.8714997  46.3519988
 118.9490012  16.9274997  46.6479988 118.2064420  16.6810520  46.2682774
 120.6620012  17.2574997  47.0309988 120.8750012  16.3694997  46.7439988
 120.7260012  17.2234997  47.9849988 120.6998232  17.1313102  47.1207397
 124.1700012   2.9214997  46.1749988 123.4960012   2.2924997  46.4309988
 124.7340012   2.4374997  45.5719988 124.1539230   2.7698744  46.1285340
 129.3130012   1.0294997  46.2879988 129.9170012   1.5764997  45.7859988
 128.4430012   1.3484997  46.0479988 129.2781241   1.1475806  46.1867654
 131.0400012   2.1674997  44.6209988 131.6520012   1.6534997  44.0949988
 131.4220012   3.0454997  44.6449988 131.1754540   2.2157140  44.5521830
 116.4970012   1.5554997  43.9969988 115.7200012   1.3214997  43.4899988
 117.0270012   0.7584997  44.0059988 116.4622330   1.4156988  43.9287742
 115.3330012   1.3534997  39.8009988 115.7720012   1.9644997  39.2089988
 114.7000012   1.8914997  40.2749988 115.3074514   1.5099257  39.7840930
 121.0760012   1.4824997  43.8109988 121.9510012   1.8704997  43.7809988
 120.9400012   1.2674997  44.7329988 121.1773695   1.5065184  43.9316440
 126.6330012   1.5124997  45.4599988 126.7090012   1.6074997  44.5099988
 126.3580012   0.6044997  45.5889988 126.6062321   1.4027867  45.3475079
 127.9860012   1.5384997  41.1519988 127.2840012   2.1534997  40.9429988
 127.5420012   0.7004997  41.2829988 127.8296330   1.5095783  41.1410328
 115.2340012  17.3014997  40.6989988 114.5490012  17.2634997  40.0309988
 115.2380012  18.2144997  40.9869988 115.1408193  17.4197016  40.6465284
 117.1940012   3.2694997  38.2429988 117.6860012   2.6394997  37.7159988
 117.8180012   3.5654997  38.9069988 117.3455446   3.2233199  38.2605980
 122.2200012   3.5624997  40.6999988 122.3980012   2.9164997  41.3829988
 122.1670012   4.3964997  41.1679988 122.2371829   3.5867985  40.8565940
 124.0990012  18.5114997  39.0959988 124.9650012  18.8774997  38.9179988
 123.8520012  18.0714997  38.2819988 124.1842392  18.5021756  38.9616289
 130.8080012  18.0744997  41.7749988 130.6130012  17.3264997  41.2099988
 130.7690012  18.8324997  41.1919988 130.7760380  18.0746099  41.6188384
 116.4550012   2.0694997  53.5149988 116.0890012   1.3044997  53.9579988
 117.3680012   2.0984997  53.8019988 116.5282790   1.9687224  53.6144070
 118.4280012   1.4204997  55.0509988 119.3260012   1.1464997  54.8659988
 118.0410012   0.6774997  55.5149988 118.4986612   1.2825914  55.0883643
 117.0520012  18.2214997  37.7239988 116.7850012  18.5084997  38.5969988
 117.8240012  17.6754997  37.8759988 117.1197488  18.1870294  37.8641050
 126.8490012   0.7524997  55.2329988 126.9260012   0.3264997  56.0869988
 127.7430012   0.7664997  54.8899988 126.9803428   0.6960880  55.3035310
 130.0250012  16.8254997  53.9249988 129.2430012  16.6394997  53.4059988
 129.9530012  17.7544997  54.1429988 129.9081777  16.9256492  53.8834048
 144.4310012  10.7114997  43.9559988 144.5200012  11.6554997  43.8239988
 143.7930012  10.4364997  43.2979988 144.3569081  10.8034830  43.8489614
 143.3640012   9.9664997  47.3749988 143.3260012   9.3204997  48.0799988
 143.0420012   9.5004997  46.6039988 143.3152333   9.8149408  47.3672978
 135.7330012   9.5814997  48.9679988 135.7740012   8.9554997  49.6909988
 136.4360012  10.2054997  49.1499988 135.8336363   9.5801196  49.0916044
 136.6560012  14.0314997  47.5029988 136.2870012  13.2294997  47.1329988
 137.5970012  13.8624997  47.5489988 136.7327289  13.8990153  47.4586316
 133.2660012   7.6914997  42.8959988 132.8190012   8.5374997  42.8769988
 132.7050012   7.1114997  42.3799988 133.1289900   7.7289916  42.8236801
 133.9770012   9.8534997  45.0219988 134.1900012   9.0834997  45.5489988
 134.7150012   9.9424997  44.4179988 134.1058496   9.7601394  45.0125300
 144.1820012  18.0104997  45.8889988 144.8020012  17.3334997  45.6149988
 143.9740012  17.7924997  46.7969988 144.2386904  17.8883870  45.9743365
 141.7540012  12.3994997  47.7809988 142.0580012  11.7134997  47.1859988
 142.4750012  12.5174997  48.3989988 141.8930671  12.3216305  47.7831816
 144.8950012   6.7934997  48.1089988 145.0370012   5.8474997  48.1289988
 144.7880012   7.0004997  47.1799988 144.8999863   6.6919534  47.9862339
 138.0490012   4.8944997  45.3809988 138.0930012   5.7544997  44.9629988
 137.5920012   4.3424997  44.7469988 137.9932185   4.9375799  45.2380299
 134.6700012   7.2914997  46.1429988 135.3230012   6.7414997  46.5749988
 134.6940012   7.0174997  45.2259988 134.7626683   7.1791466  46.0782123
 139.8260012   8.8414997  45.3579988 140.4420012   8.3154997  45.8679988
 139.2400012   8.2014997  44.9549988 139.8310810   8.6829208  45.3733173
 136.8600012   3.8124997  49.4549988 136.6410012   4.3424997  48.6889988
 136.1920012   4.0394997  50.1019988 136.7397600   3.9156906  49.4376379
 144.2290012  13.3124997  42.9989988 143.9330012  12.9904997  42.1479988
 143.9040012  14.2124997  43.0399988 144.1446371  13.3900215  42.8881801
 139.4290012  11.4884997  49.7419988 138.6890012  12.0864997  49.8459988
 140.1430012  12.0424997  49.4269988 139.4242237  11.6452831  49.7136465
 136.4530012   5.7044997  47.4069988 137.0670012   6.3374997  47.7809988
 136.9650012   5.2324997  46.7509988 136.6062296   5.7272370  47.3694252
 137.8360012  13.4524997  50.5299988 137.8310012  14.3324997  50.1519988
 136.9830012  13.3694997  50.9549988 137.7199464  13.5616117  50.5357907
 133.9570012  13.1234997  41.3119988 133.6850012  13.3524997  40.4229988
 134.0030012  13.9614997  41.7719988 133.9260094  13.2681213  41.2525697
 140.8860012   1.1184997  46.9079988 140.7690012   0.1694997  46.8529988
 140.0310012   1.4504997  47.1809988 140.7543733   1.0335409  46.9373897
 143.1530012   9.9554997  41.4079988 142.4410012  10.4904997  41.0559988
 143.8440012  10.0114997  40.7479988 143.1490132  10.0362543  41.2706289
 143.2060012   8.4134997  38.4469988 143.9070012   8.4354997  39.0979988
 143.5090012   7.7854997  37.7909988 143.3427830   8.3316566  38.4473711
 138.2040012  10.7954997  44.2419988 137.8730012  10.4254997  43.4239988
 138.7920012  10.1254997  44.5889988 138.2381873  10.6541156  44.1768102
 139.5700012  14.2234997  46.9239988 139.4760012  13.6454997  46.1669988
 140.3000012  13.8524997  47.4199988 139.6557981  14.0942390  46.8874165
 138.5700012   9.5644997  47.8759988 139.1360012   9.6854997  47.1129988
 138.8890012  10.2014997  48.5149988 138.6905786   9.6671884  47.8580040
 144.8790012  15.0674997  48.6099988 144.6390012  15.7294997  49.2579988
 144.6810012  14.2334997  49.0349988 144.8193808  15.0453134  48.7561524
 139.4500012  13.9634997  52.5929988 139.1390012  14.7454997  53.0479988
 138.8000012  13.8104997  51.9069988 139.3195558  14.0499105  52.5625871
 136.3700012  10.1614997  51.8219988 136.4410012  10.8124997  52.5199988
 135.4800012  10.2644997  51.4869988 136.2593117  10.2645936  51.8722700
 143.1560012  16.0644997  43.4799988 143.6300012  16.3594997  44.2579988
 142.5930012  16.8024997  43.2469988 143.1447653  16.2046932  43.5550136
 137.6900012  16.0354997  53.3559988 137.6970012  15.8994997  52.4089988
 136.7740012  15.9174997  53.6079988 137.5671714  16.0009430  53.2604666
 137.1940012   9.8654997  41.8319988 136.9020012  10.6334997  41.3409988
 136.5200012   9.2054997  41.6689988 137.0629081   9.8814406  41.7427340
 133.2870012  12.2284997  50.6469988 132.7860012  12.2004997  49.8319988
 133.2920012  11.3224997  50.9559988 133.2191526  12.1022278  50.5772872
 133.0370012  15.0084997  47.5309988 133.9830012  14.8644997  47.5119988
 132.9250012  15.7924997  48.0679988 133.1512727  15.0948046  47.6010072
 142.2140012  15.2484997  52.0889988 142.3010012  16.0744997  52.5639988
 141.3500012  14.9184997  52.3379988 142.1091964  15.3169878  52.1876549
 142.6280012  19.0204997  41.8949988 142.5530012  18.8994997  40.9489988
 142.6610012  19.9704997  42.0139988 142.6221848  19.1322500  41.7814834
 136.2810012  17.8094997  43.6759988 136.4340012  17.4614997  44.5549988
 135.4310012  17.4534997  43.4209988 136.1868962  17.7136650  43.7618340
 135.5360012  13.5514997  51.6899988 135.7520012  13.1904997  52.5489988
 134.6810012  13.1774997  51.4799988 135.4499292  13.4514111  51.7793386
 138.1550012   2.0214997  47.6849988 137.2930012   1.9344997  47.2779988
 138.1320012   2.8774997  48.1129988 138.0340330   2.1252765  47.6871863
 142.8180012   1.7434997  51.0599988 143.2380012   1.3284997  51.8129988
 141.8850012   1.5654997  51.1769988 142.7493644   1.6625900  51.1789539
 142.4790012   4.2364997  38.3449988 142.2260012   4.2554997  39.2679988
 142.2230012   3.3644997  38.0439988 142.4097790   4.1212437  38.4306263
 138.2460012   6.9874997  48.7799988 137.6040012   6.9464997  49.4889988
 138.2830012   7.9134997  48.5429988 138.1631324   7.1071559  48.8449824
 138.2430012   7.2084997  43.6919988 137.3500012   6.8674997  43.6339988
 138.6930012   6.8314997  42.9369988 138.1817305   7.1108484  43.5819177
 143.7780012   7.6244997  42.5089988 143.3690012   8.4394997  42.2179988
 144.4990012   7.4844997  41.8949988 143.8194537   7.7172018  42.3861342
 142.8800012   7.7994997  53.9969988 142.3180012   7.0954997  54.3179988
 143.7070012   7.6794997  54.4649988 142.9147095   7.6867883  54.1042330
 144.7830012   7.0704997  45.3229988 144.5880012   7.6754997  44.6079988
 144.9640012   6.2364997  44.8889988 144.7807614   7.0406300  45.1664405
 135.9960012   7.3074997  50.6469988 135.9580012   7.7074997  51.5159988
 135.5050012   6.4904997  50.7379988 135.9244684   7.2518069  50.7781059
 139.3620012   4.6814997  37.4459988 138.9310012   4.2364997  38.1759988
 138.6440012   5.0534997  36.9339988 139.2059438   4.6708940  37.4766799
 132.6040012   4.4234997  44.4979988 133.2350012   4.3944997  45.2169988
 133.0530012   3.9984997  43.7679988 132.7510774   4.3620492  44.4976553
 133.8780012   5.1694997  39.9219988 134.3520012   5.7604997  39.3369988
 133.1610012   5.7004997  40.2689988 133.8459341   5.3220867  39.8888836
 144.0470012   8.7084997  49.9949988 144.3700012   8.0774997  49.3519988
 143.6070012   8.1734997  50.6549988 144.0316895   8.5498441  49.9962850
 140.8240012   4.6354997  44.7789988 139.9130012   4.6924997  45.0669988
 141.3300012   4.5754997  45.5889988 140.7675413   4.6351985  44.9280622
 135.6530012   6.2644997  43.6049988 134.7630012   6.3644997  43.2649988
 135.9490012   5.4224997  43.2589988 135.5712823   6.1643545  43.5117213
 139.3060012   6.2644997  41.2619988 140.2370012   6.3934997  41.4399988
 139.0910012   6.9344997  40.6119988 139.4044247   6.3726565  41.1985747
 137.9800012   7.4594997  38.8289988 137.4370012   7.0794997  38.1369988
 138.8130012   7.6534997  38.3999988 138.0184399   7.4338124  38.6764526
 136.1150012  12.0164997  53.9279988 136.8470012  12.2704997  54.4889988
 135.3350012  12.2204997  54.4429988 136.1098232  12.0789177  54.0745760
 142.1440012   7.4234997  46.6659988 142.7090012   6.8764997  46.1189988
 141.9970012   6.9014997  47.4539988 142.2012918   7.2782024  46.6978454
 137.1460012   3.5594997  43.0839988 136.8290012   2.6574997  43.0489988
 137.9280012   3.5614997  42.5309988 137.2082284   3.4361628  43.0044783
 140.7710012   5.8114997  49.0799988 139.9350012   6.2654997  49.1899988
 141.2950012   6.0874997  49.8319988 140.7274414   5.9109376  49.1967136
 141.3150012  12.0244997  40.7639988 140.5700012  11.5174997  40.4419988
 141.1810012  12.0734997  41.7109988 141.1948776  11.9616940  40.8478647
 142.8340012  12.2084997  52.0009988 142.4890012  11.8274997  52.8079988
 142.6340012  13.1424997  52.0729988 142.7598061  12.2825228  52.1210961
 136.4400012  11.3194997  46.5339988 137.1850012  11.3174997  45.9329988
 136.5180012  10.4964997  47.0159988 136.5525518  11.2079315  46.5168929
 143.4410012  13.4834997  39.7899988 143.1450012  14.3094997  40.1709988
 142.7380012  12.8634997  39.9859988 143.3054914  13.5128199  39.8686443
 133.4480012   9.7804997  51.8489988 133.6710012   9.3624997  52.6809988
 132.8460012   9.1674997  51.4259988 133.3971759   9.6404668  51.9057022
 140.4640012   9.2974997  54.0619988 140.1680012   9.1314997  53.1669988
 141.3960012   9.0774997  54.0509988 140.5494166   9.2450640  53.9380536
 138.8150012  14.8374997  43.9379988 139.3420012  15.6104997  43.7379988
 137.9350012  15.0624997  43.6369988 138.7681773  14.9738005  43.8699010
 134.5700012   9.6994997  38.5249988 135.1860012  10.3264997  38.9049988
 133.7080012  10.0154997  38.7969988 134.5377698   9.8279430  38.6137183
 140.2420012  12.5004997  43.5149988 140.0010012  13.4254997  43.5559988
 139.5010012  12.0414997  43.9109988 140.1088409  12.5651421  43.5741377
 140.7570012  16.6494997  49.8299988 141.1190012  17.5044997  49.5959988
 141.2880012  16.3574997  50.5699988 140.8784473  16.7271060  49.8980855
 138.9250012  17.5224997  43.0599988 137.9750012  17.6274997  43.1109988
 139.2770012  18.3424997  43.4049988 138.8424203  17.6478314  43.1136650
 144.3010012  12.7484997  49.5299988 143.8750012  12.5214997  50.3569988
 144.8810012  12.0104997  49.3479988 144.3211868  12.6175299  49.6185830
 135.0820012   4.5334997  51.4069988 134.1890012   4.8724997  51.3389988
 134.9830012   3.6784997  51.8249988 134.9464164   4.4642588  51.4542235
 134.7330012  16.3384997  49.8419988 134.9500012  15.4064997  49.8109988
 134.9790012  16.6124997  50.7249988 134.7959549  16.2480636  49.9571763
 140.5950012  14.7894997  37.0509988 140.8340012  14.0414997  36.5039988
 140.3260012  14.4014997  37.8839988 140.5913675  14.6346638  37.0886865
 139.5320012  14.3594997  39.5079988 139.6780012  13.8394997  40.2979988
 139.5290012  15.2664997  39.8139988 139.5515989  14.4108853  39.6576088
 135.9850012  11.6124997  40.0179988 135.2990012  11.9644997  40.5849988
 136.5070012  12.3754997  39.7709988 135.9616852  11.7638578  40.0622118
 143.8160012   4.2744997  50.2969988 144.5150012   4.3484997  50.9469988
 143.4350012   3.4104997  50.4509988 143.8601767   4.1677624  50.4068322
 144.6010012   3.9264997  41.3939988 144.8210012   4.3984997  40.5909988
 145.1590012   4.3214997  42.0639988 144.7064968   4.0444285  41.3747331
 142.2690012  16.0574997  40.2569988 141.4530012  16.5544997  40.3089988
 142.7990012  16.5324997  39.6169988 142.2289161  16.1897722  40.1775956
 141.8010012   5.6544997  42.2289988 142.6130012   6.1594997  42.2749988
 141.5560012   5.5094997  43.1429988 141.8790520   5.7040375  42.3588517
 142.3360012   6.6404997  51.4139988 142.4550012   7.2144997  52.1709988
 142.9920012   5.9524997  51.5279988 142.4409757   6.6261079  51.5330825
 142.6840012   2.7354997  43.1669988 142.3380012   3.3534997  43.8119988
 143.3430012   3.2364997  42.6859988 142.7257826   2.8875802  43.1900971
 139.6080012  17.1014997  40.2389988 139.7680012  17.9004997  39.7379988
 139.4100012  17.4074997  41.1239988 139.6031649  17.2524469  40.2899815
 138.3420012   3.7984997  39.8539988 138.2590012   4.6874997  40.2009988
 139.2320012   3.5334997  40.0859988 138.4509469   3.8841430  39.9327626
 136.6010012  14.2264997  38.9149988 137.1930012  14.9254997  39.1909988
 137.0600012  13.7934997  38.1949988 136.7441142  14.2637049  38.8554830
 134.9170012   6.8904997  38.0309988 134.8720012   7.8294997  38.2089988
 134.0290012   6.6544997  37.7609988 134.7908574   6.9871892  38.0188912
 135.7250012   1.6724997  46.7039988 135.4960012   1.7314997  45.7759988
 135.2820012   0.8804997  47.0099988 135.6338530   1.5735753  46.6184786
 134.6550012  15.6124997  42.8639988 133.8230012  16.0854997  42.8919988
 135.2010012  16.1224997  42.2659988 134.6149739  15.7461871  42.7869716
 133.9430012  18.2254997  54.1939988 134.4840012  18.0084997  54.9539988
 133.4620012  17.4194997  54.0049988 133.9519345  18.0869514  54.2723076
 138.5410012  17.1444997  55.8149988 139.3080012  16.6854997  56.1559988
 138.5190012  16.9184997  54.8849988 138.6431434  17.0510409  55.7360043
 142.6330012  16.6524997  37.1899988 141.9890012  16.0214997  37.5109988
 143.3950012  16.1214997  36.9579988 142.6478077  16.4942920  37.2026011
 133.8500012  12.0354997  55.1489988 133.9940012  11.1334997  54.8619988
 133.0780012  12.3214997  54.6609988 133.7653323  11.9508261  55.0437881
 138.1920012  12.3794997  37.2809988 138.2560012  11.5854997  37.8119988
 138.8450012  12.2604997  36.5909988 138.2890241  12.2547148  37.2604317
 140.5060012  12.0054997  54.5809988 140.1770012  12.2764997  53.7239988
 140.6580012  11.0644997  54.4939988 140.4814809  11.9153862  54.4518244
 143.5440012  13.4264997  37.0169988 143.2750012  13.6064997  37.9179988
 143.3380012  12.5004997  36.8859988 143.4793825  13.3260152  37.1225214
 134.6830012   9.2354997  54.5689988 135.0910012   8.3784997  54.4479988
 134.4230012   9.2504997  55.4899988 134.7037568   9.1200807  54.6769588
 139.3410012  10.3514997  39.5869988 138.8810012   9.8674997  40.2729988
 139.5960012   9.6834997  38.9509988 139.3124902  10.1948731  39.5949334
 138.6300012   8.2444997  51.9429988 138.0120012   8.9194997  52.2229988
 138.9740012   8.5654997  51.1099988 138.5919615   8.3802721  51.8686581
 140.4120012   8.5944997  37.8489988 140.2320012   8.4404997  36.9219988
 141.3620012   8.7024997  37.8939988 140.5157776   8.5880175  37.7281843
 143.6500012  10.7164997  55.2199988 144.6030012  10.7994997  55.1929988
 143.4890012  10.0044997  55.8399988 143.7586426  10.6316746  55.3000579
 138.9690012   5.5994997  53.0249988 139.1190012   4.8704997  52.4229988
 138.9720012   6.3764997  52.4659988 138.9899302   5.6047851  52.8670692
 139.3820012   3.9694997  50.5179988 139.9180012   4.4204997  49.8659988
 138.5300012   3.8614997  50.0949988 139.3402178   4.0166390  50.3715756
 140.9640012   9.4084997  50.7569988 141.7140012   9.2524997  50.1839988
 140.6250012  10.2604997  50.4819988 141.0208921   9.5022968  50.6413561
 137.4480012   6.7974997  54.9369988 136.6810012   6.2654997  54.7269988
 138.1270012   6.4874997  54.3369988 137.4347022   6.6827506  54.8271648
 140.1880012   1.4254997  50.9489988 140.0890012   2.3724997  50.8439988
 139.4450012   1.0534997  50.4739988 140.0740564   1.5045902  50.8704560
 141.4520012   5.7474997  54.5129988 141.2160012   5.5274997  55.4149988
 140.6680012   5.5404997  54.0029988 141.3138628   5.6894760  54.5673932
 144.1670012   4.8744997  53.5889988 143.2200012   4.9064997  53.7209988
 144.4800012   4.2494997  54.2419988 144.0795475   4.7943207  53.6954455
 135.6280012   4.7184997  54.6409988 135.8400012   4.0114997  54.0309988
 135.5170012   4.2804997  55.4849988 135.6419721   4.5627084  54.6716843
 140.4090012   0.7194997  53.6209988 141.1210012   0.0794997  53.6069988
 140.3080012   0.9864997  52.7069988 140.4927939   0.6679938  53.4955650
 140.7630012   2.4024997  55.6739988 140.6310012   1.9264997  54.8539988
 140.1640012   3.1464997  55.6189988 140.6639071   2.4379618  55.5542886
 140.3090012  19.2854997  38.8509988 141.2420012  19.4434997  38.9939988
 140.0450012  19.9604997  38.2259988 140.4009510  19.3983611  38.7860741
 133.8780012  13.9214997  38.3329988 134.7920012  14.0004997  38.6069988
 133.8850012  13.2344997  37.6669988 134.0041131  13.8393961  38.2804393
 132.5270012  19.3144997  43.4109988 131.8800012  18.8524997  42.8779988
 132.8810012  18.6424997  43.9929988 132.4863849  19.1604723  43.4167959
 133.3970012  17.3954997  45.2149988 133.0620012  16.5154997  45.3869988
 133.6190012  17.7404997  46.0799988 133.3811783  17.3217500  45.3554208
 133.4770012  10.4704997  47.6669988 133.6610012  10.3884997  46.7309988
 134.3260012  10.3464997  48.0909988 133.6170139  10.4425003  47.5961455
 133.0740012   5.7414997  53.8079988 133.9940012   5.6194997  54.0439988
 132.6250012   4.9914997  54.1969988 133.1391580   5.6233727  53.8929006
 134.2950012   4.0534997  46.6989988 134.7410012   3.2614997  47.0009988
 134.7620012   4.7694997  47.1299988 134.4190172   4.0420624  46.7984820
 132.5990012   7.0524997  47.7679988 133.0910012   6.8314997  46.9769988
 132.9620012   7.8934997  48.0489988 132.7153126   7.1358357  47.6977531
 132.9130012   3.3104997  41.8219988 131.9880012   3.5194997  41.6929988
 133.3670012   3.7944997  41.1329988 132.8477368   3.4045993  41.7111226
 132.8770012   2.0484997  50.1669988 132.2120012   1.8024997  50.8099988
 132.4340012   2.6704997  49.5889988 132.7260956   2.0988632  50.1769352
 135.0690012  15.2234997  54.3109988 134.2480012  15.3984997  53.8509988
 134.8160012  15.1504997  55.2319988 134.9226164  15.2375622  54.3724923
 138.0230012  16.1984997  50.5699988 137.5980012  17.0074997  50.2869988
 138.9270012  16.2834997  50.2679988 138.0870271  16.3208469  50.4903776
 142.3340012  17.5974997  53.5289988 142.5190012  17.2634997  54.4069988
 143.1800012  17.9064997  53.2069988 142.4737539  17.5936047  53.6055605
 144.6790012  18.8834997  52.7729988 145.3560012  18.2504997  52.5329988
 145.0010012  19.2844997  53.5799988 144.8151637  18.8511154  52.8492793
 135.4250012  19.4544997  50.6169988 134.7040012  19.8944997  50.1659988
 135.0590012  19.2034997  51.4659988 135.2769804  19.4807698  50.6699840
 137.8920012  19.0544997  49.6469988 137.0270012  19.1264997  50.0509988
 137.8370012  19.6014997  48.8629988 137.7662085  19.1382685  49.5963362
 142.6020012  18.9424997  48.8219988 142.1460012  19.4714997  48.1679988
 142.7650012  19.5454997  49.5479988 142.5615585  19.0964468  48.8305062
 134.8390012  18.0774997  47.5269988 134.8210012  17.6524997  48.3849988
 135.6440012  17.7594997  47.1189988 134.9453875  17.9763812  47.5891655
 136.9810012  16.7874997  46.1819988 136.7620012  15.8714997  46.3519988
 137.8050012  16.9274997  46.6479988 137.0624420  16.6810520  46.2682774
 139.5180012  17.2574997  47.0309988 139.7310012  16.3694997  46.7439988
 139.5820012  17.2234997  47.9849988 139.5558232  17.1313102  47.1207397
 143.0260012   2.9214997  46.1749988 142.3520012   2.2924997  46.4309988
 143.5900012   2.4374997  45.5719988 143.0099230   2.7698744  46.1285340
 135.3530012   1.5554997  43.9969988 134.5760012   1.3214997  43.4899988
 135.8830012   0.7584997  44.0059988 135.3182330   1.4156988  43.9287742
 134.1890012   1.3534997  39.8009988 134.6280012   1.9644997  39.2089988
 133.5560012   1.8914997  40.2749988 134.1634514   1.5099257  39.7840930
 139.9320012   1.4824997  43.8109988 140.8070012   1.8704997  43.7809988
 139.7960012   1.2674997  44.7329988 140.0333695   1.5065184  43.9316440
 134.0900012  17.3014997  40.6989988 133.4050012  17.2634997  40.0309988
 134.0940012  18.2144997  40.9869988 133.9968193  17.4197016  40.6465284
 136.0500012   3.2694997  38.2429988 136.5420012   2.6394997  37.7159988
 136.6740012   3.5654997  38.9069988 136.2015446   3.2233199  38.2605980
 141.0760012   3.5624997  40.6999988 141.2540012   2.9164997  41.3829988
 141.0230012   4.3964997  41.1679988 141.0931829   3.5867985  40.8565940
 142.9550012  18.5114997  39.0959988 143.8210012  18.8774997  38.9179988
 142.7080012  18.0714997  38.2819988 143.0402392  18.5021756  38.9616289
 135.3110012   2.0694997  53.5149988 134.9450012   1.3044997  53.9579988
 136.2240012   2.0984997  53.8019988 135.3842790   1.9687224  53.6144070
 137.2840012   1.4204997  55.0509988 138.1820012   1.1464997  54.8659988
 136.8970012   0.6774997  55.5149988 137.3546612   1.2825914  55.0883643
 135.9080012  18.2214997  37.7239988 135.6410012  18.5084997  38.5969988
 136.6800012  17.6754997  37.8759988 135.9757488  18.1870294  37.8641050
  12.4390012  29.5674997  43.9559988  12.5280012  30.5114997  43.8239988
  11.8010012  29.2924997  43.2979988  12.3649081  29.6594830  43.8489614
  11.3720012  28.8224997  47.3749988  11.3340012  28.1764997  48.0799988
  11.0500012  28.3564997  46.6039988  11.3232333  28.6709408  47.3672978
   3.7410012  28.4374997  48.9679988   3.7820012  27.8114997  49.6909988
   4.4440012  29.0614997  49.1499988   3.8416363  28.4361196  49.0916044
  15.0780012  31.7614997  45.6759988  14.6380012  31.0414997  46.1269988
  15.0650012  32.4824997  46.3059988  15.0160226  31.7603731  45.8228494
   4.6640012  32.8874997  47.5029988   4.2950012  32.0854997  47.1329988
   5.6050012  32.7184997  47.5489988   4.7407289  32.7550153  47.4586316
   1.2740012  26.5474997  42.8959988   0.8270012  27.3934997  42.8769988
   0.7130012  25.9674997  42.3799988   1.1369900  26.5849916  42.8236801
   1.9850012  28.7094997  45.0219988   2.1980012  27.9394997  45.5489988
   2.7230012  28.7984997  44.4179988   2.1138496  28.6161394  45.0125300
  12.1900012  36.8664997  45.8889988  12.8100012  36.1894997  45.6149988
  11.9820012  36.6484997  46.7969988  12.2466904  36.7443870  45.9743365
   9.7620012  31.2554997  47.7809988  10.0660012  30.5694997  47.1859988
  10.4830012  31.3734997  48.3989988   9.9010671  31.1776305  47.7831816
  18.4250012  22.8564997  48.6419988  18.4740012  23.4664997  49.3779988
  18.8500012  23.3174997  47.9189988  18.4891824  23.0023741  48.6450205
  12.9030012  25.6494997  48.1089988  13.0450012  24.7034997  48.1289988
  12.7960012  25.8564997  47.1799988  12.9079864  25.5479534  47.9862339
   6.0570012  23.7504997  45.3809988   6.1010012  24.6104997  44.9629988
   5.6000012  23.1984997  44.7469988   6.0012185  23.7935799  45.2380299
  13.7800012  23.8814997  43.7819988  14.4260012  23.5524997  44.4069988
  14.2900012  24.3994997  43.1589988  13.9374264  23.9064611  43.7833862
   2.6780012  26.1474997  46.1429988   3.3310012  25.5974997  46.5749988
   2.7020012  25.8734997  45.2259988   2.7706683  26.0351466  46.0782123
   7.8340012  27.6974997  45.3579988   8.4500012  27.1714997  45.8679988
   7.2480012  27.0574997  44.9549988   7.8390810  27.5389208  45.3733173
  18.8160012  24.3344997  50.8779988  18.1280012  24.9924997  50.7819988
  18.8320012  24.1374997  51.8139988  18.7238525  24.3980462  50.9914808
   4.8680012  22.6684997  49.4549988   4.6490012  23.1984997  48.6889988
   4.2000012  22.8954997  50.1019988   4.7477600  22.7716906  49.4376379
  12.2370012  32.1684997  42.9989988  11.9410012  31.8464997  42.1479988
  11.9120012  33.0684997  43.0399988  12.1526371  32.2460215  42.8881801
   7.4370012  30.3444997  49.7419988   6.6970012  30.9424997  49.8459988
   8.1510012  30.8984997  49.4269988   7.4322237  30.5012831  49.7136465
  15.5440012  23.1724997  45.7619988  15.3280012  22.4064997  46.2949988
  16.1990012  23.6444997  46.2749988  15.6030632  23.1315889  45.9042861
   4.4610012  24.5604997  47.4069988   5.0750012  25.1934997  47.7809988
   4.9730012  24.0884997  46.7509988   4.6142296  24.5832370  47.3694252
   5.8440012  32.3084997  50.5299988   5.8390012  33.1884997  50.1519988
   4.9910012  32.2254997  50.9549988   5.7279464  32.4176117  50.5357907
   1.9650012  31.9794997  41.3119988   1.6930012  32.2084997  40.4229988
   2.0110012  32.8174997  41.7719988   1.9340094  32.1241213  41.2525697
  15.5900012  33.6014997  48.0239988  14.6490012  33.6594997  48.1859988
  15.8670012  34.5074997  47.8869988  15.4984679  33.7319443  48.0276815
  15.8910012  21.8874997  49.4419988  15.1550012  22.4984997  49.4039988
  16.5740012  22.3024997  48.9149988  15.8826541  22.0271374  49.3655832
   8.8940012  19.9744997  46.9079988   8.7770012  19.0254997  46.8529988
   8.0390012  20.3064997  47.1809988   8.7623733  19.8895409  46.9373897
  13.8420012  35.3824997  44.6499988  14.2680012  34.6754997  44.1649988
  14.1590012  36.1834997  44.2329988  13.9431019  35.3940994  44.5273130
  15.0020012  33.2834997  43.1579988  14.7440012  32.5934997  42.5469988
  15.0730012  32.8404997  44.0039988  14.9762856  33.1292124  43.1886885
  16.6880012  31.8494997  51.6359988  16.8280012  31.2584997  50.8959988
  16.8550012  32.7224997  51.2789988  16.7296778  31.8866426  51.4866965
  11.1610012  28.8114997  41.4079988  10.4490012  29.3464997  41.0559988
  11.8520012  28.8674997  40.7479988  11.1570132  28.8922543  41.2706289
  11.2140012  27.2694997  38.4469988  11.9150012  27.2914997  39.0979988
  11.5170012  26.6414997  37.7909988  11.3507830  27.1876566  38.4473711
  18.5300012  28.1894997  49.7019988  17.8770012  28.8844997  49.7909988
  18.9950012  28.3994997  48.8919988  18.5035390  28.3129425  49.6046883
  14.5660012  29.0214997  42.3599988  13.8340012  29.2494997  42.9329988
  15.0140012  28.3074997  42.8149988  14.5263095  28.9562571  42.4999119
  14.4640012  27.1954997  51.4269988  14.5440012  27.9584997  51.9989988
  13.8620012  27.4744997  50.7369988  14.3935756  27.3377134  51.4120589
   6.2120012  29.6514997  44.2419988   5.8810012  29.2814997  43.4239988
   6.8000012  28.9814997  44.5889988   6.2461873  29.5101156  44.1768102
   7.5780012  33.0794997  46.9239988   7.4840012  32.5014997  46.1669988
   8.3080012  32.7084997  47.4199988   7.6637981  32.9502390  46.8874165
   6.5780012  28.4204997  47.8759988   7.1440012  28.5414997  47.1129988
   6.8970012  29.0574997  48.5149988   6.6985786  28.5231884  47.8580040
  12.8870012  33.9234997  48.6099988  12.6470012  34.5854997  49.2579988
  12.6890012  33.0894997  49.0349988  12.8273808  33.9013134  48.7561524
   7.4580012  32.8194997  52.5929988   7.1470012  33.6014997  53.0479988
   6.8080012  32.6664997  51.9069988   7.3275558  32.9059105  52.5625871
  13.4370012  28.1834997  40.0449988  14.0170012  28.3334997  40.7919988
  13.8510012  28.6544997  39.3219988  13.5722830  28.2676841  40.0494134
   4.3780012  29.0174997  51.8219988   4.4490012  29.6684997  52.5199988
   3.4880012  29.1204997  51.4869988   4.2673117  29.1205936  51.8722700
  11.1640012  34.9204997  43.4799988  11.6380012  35.2154997  44.2579988
  10.6010012  35.6584997  43.2469988  11.1527653  35.0606932  43.5550136
   5.6980012  34.8914997  53.3559988   5.7050012  34.7554997  52.4089988
   4.7820012  34.7734997  53.6079988   5.5751714  34.8569430  53.2604666
  17.1360012  19.9334997  39.8579988  16.2360012  20.0724997  40.1529988
  17.3880012  20.7644997  39.4559988  17.0468702  20.0649074  39.8440205
   5.2020012  28.7214997  41.8319988   4.9100012  29.4894997  41.3409988
   4.5280012  28.0614997  41.6689988   5.0709081  28.7374406  41.7427340
  18.3250012  34.2994997  38.2339988  18.3990012  35.2384997  38.4049988
  19.2310012  33.9944997  38.1779988  18.4575100  34.3866722  38.2498119
   1.2950012  31.0844997  50.6469988   0.7940012  31.0564997  49.8319988
   1.3000012  30.1784997  50.9559988   1.2271526  30.9582278  50.5772872
   1.0450012  33.8644997  47.5309988   1.9910012  33.7204997  47.5119988
   0.9330012  34.6484997  48.0679988   1.1592727  33.9508046  47.6010072
  19.2430012  34.5304997  53.2129988  19.1940012  33.5754997  53.1759988
  18.4160012  34.7984997  53.6139988  19.1244940  34.4358998  53.2621375
  10.2220012  34.1044997  52.0889988  10.3090012  34.9304997  52.5639988
   9.3580012  33.7744997  52.3379988  10.1171964  34.1729878  52.1876549
  10.6360012  37.8764997  41.8949988  10.5610012  37.7554997  40.9489988
  10.6690012  38.8264997  42.0139988  10.6301848  37.9882500  41.7814834
   4.2890012  36.6654997  43.6759988   4.4420012  36.3174997  44.5549988
   3.4390012  36.3094997  43.4209988   4.1948962  36.5696650  43.7618340
  13.7380012  37.0304997  38.8969988  14.1130012  36.2864997  38.4269988
  13.7420012  36.7604997  39.8159988  13.7898915  36.8921486  38.9567824
  13.4070012  36.9564997  41.6469988  12.4710012  37.0564997  41.8249988
  13.6870012  36.2474997  42.2249988  13.3168255  36.8742711  41.7495391
  16.3950012  26.0234997  53.6929988  15.9880012  26.5044997  52.9719988
  16.4360012  25.1184997  53.3849988  16.3448437  25.9669374  53.5526683
   3.5440012  32.4074997  51.6899988   3.7600012  32.0464997  52.5489988
   2.6890012  32.0334997  51.4799988   3.4579292  32.3074111  51.7793386
   6.1630012  20.8774997  47.6849988   5.3010012  20.7904997  47.2779988
   6.1400012  21.7334997  48.1129988   6.0420330  20.9812765  47.6871863
  10.8260012  20.5994997  51.0599988  11.2460012  20.1844997  51.8129988
   9.8930012  20.4214997  51.1769988  10.7573644  20.5185900  51.1789539
  14.1520012  24.3554997  51.9129988  13.6380012  24.2294997  52.7109988
  13.9970012  25.2674997  51.6689988  14.0606852  24.4616132  51.9892158
  14.9150012  29.2164997  37.6749988  14.9570012  28.9934997  36.7449988
  15.7640012  29.6154997  37.8649988  15.0355396  29.2399155  37.5733627
  10.4870012  23.0924997  38.3449988  10.2340012  23.1114997  39.2679988
  10.2310012  22.2204997  38.0439988  10.4177790  22.9772437  38.4306263
   6.2540012  25.8434997  48.7799988   5.6120012  25.8024997  49.4889988
   6.2910012  26.7694997  48.5429988   6.1711324  25.9631559  48.8449824
   6.2510012  26.0644997  43.6919988   5.3580012  25.7234997  43.6339988
   6.7010012  25.6874997  42.9369988   6.1897305  25.9668484  43.5819177
  11.7860012  26.4804997  42.5089988  11.3770012  27.2954997  42.2179988
  12.5070012  26.3404997  41.8949988  11.8274537  26.5732018  42.3861342
  10.8880012  26.6554997  53.9969988  10.3260012  25.9514997  54.3179988
  11.7150012  26.5354997  54.4649988  10.9227095  26.5427883  54.1042330
  12.7910012  25.9264997  45.3229988  12.5960012  26.5314997  44.6079988
  12.9720012  25.0924997  44.8889988  12.7887614  25.8966300  45.1664405
   4.0040012  26.1634997  50.6469988   3.9660012  26.5634997  51.5159988
   3.5130012  25.3464997  50.7379988   3.9324684  26.1078069  50.7781059
   7.3700012  23.5374997  37.4459988   6.9390012  23.0924997  38.1759988
   6.6520012  23.9094997  36.9339988   7.2139438  23.5268940  37.4766799
   0.6120012  23.2794997  44.4979988   1.2430012  23.2504997  45.2169988
   1.0610012  22.8544997  43.7679988   0.7590774  23.2180492  44.4976553
   1.8860012  24.0254997  39.9219988   2.3600012  24.6164997  39.3369988
   1.1690012  24.5564997  40.2689988   1.8539341  24.1780867  39.8888836
  12.0550012  27.5644997  49.9949988  12.3780012  26.9334997  49.3519988
  11.6150012  27.0294997  50.6549988  12.0396895  27.4058441  49.9962850
   8.8320012  23.4914997  44.7789988   7.9210012  23.5484997  45.0669988
   9.3380012  23.4314997  45.5889988   8.7755413  23.4911985  44.9280622
   3.6610012  25.1204997  43.6049988   2.7710012  25.2204997  43.2649988
   3.9570012  24.2784997  43.2589988   3.5792823  25.0203545  43.5117213
   7.3140012  25.1204997  41.2619988   8.2450012  25.2494997  41.4399988
   7.0990012  25.7904997  40.6119988   7.4124247  25.2286565  41.1985747
  13.2370012  22.7264997  48.0429988  12.5610012  22.8574997  48.7069988
  12.7520012  22.5714997  47.2329988  13.0787145  22.7234905  48.0244517
   5.9880012  26.3154997  38.8289988   5.4450012  25.9354997  38.1369988
   6.8210012  26.5094997  38.3999988   6.0264399  26.2898124  38.6764526
  16.5250012  38.3984997  54.3199988  16.7250012  38.8224997  53.4849988
  17.1800012  38.7414997  54.9269988  16.6410051  38.5029648  54.2877836
   4.1230012  30.8724997  53.9279988   4.8550012  31.1264997  54.4889988
   3.3430012  31.0764997  54.4429988   4.1178232  30.9349177  54.0745760
  10.1520012  26.2794997  46.6659988  10.7170012  25.7324997  46.1189988
  10.0050012  25.7574997  47.4539988  10.2092918  26.1342024  46.6978454
   5.1540012  22.4154997  43.0839988   4.8370012  21.5134997  43.0489988
   5.9360012  22.4174997  42.5309988   5.2162284  22.2921628  43.0044783
   8.7790012  24.6674997  49.0799988   7.9430012  25.1214997  49.1899988
   9.3030012  24.9434997  49.8319988   8.7354414  24.7669376  49.1967136
   9.3230012  30.8804997  40.7639988   8.5780012  30.3734997  40.4419988
   9.1890012  30.9294997  41.7109988   9.2028776  30.8176940  40.8478647
  16.4730012  30.0134997  49.5509988  17.1150012  30.4704997  49.0069988
  15.6430012  30.1264997  49.0879988  16.4485963  30.0912704  49.4140177
  13.2210012  23.6944997  38.9639988  12.2820012  23.8064997  38.8119988
  13.5180012  24.5514997  39.2699988  13.1327666  23.8256443  38.9845768
  10.8420012  31.0644997  52.0009988  10.4970012  30.6834997  52.8079988
  10.6420012  31.9984997  52.0729988  10.7678061  31.1385228  52.1210961
  13.9390012  25.5614997  40.6239988  14.8310012  25.4244997  40.9429988
  13.9960012  26.3524997  40.0879988  14.0686285  25.6496660  40.5951691
   4.4480012  30.1754997  46.5339988   5.1930012  30.1734997  45.9329988
   4.5260012  29.3524997  47.0159988   4.5605518  30.0639315  46.5168929
  11.4490012  32.3394997  39.7899988  11.1530012  33.1654997  40.1709988
  10.7460012  31.7194997  39.9859988  11.3134914  32.3688199  39.8686443
   1.4560012  28.6364997  51.8489988   1.6790012  28.2184997  52.6809988
   0.8540012  28.0234997  51.4259988   1.4051759  28.4964668  51.9057022
   8.4720012  28.1534997  54.0619988   8.1760012  27.9874997  53.1669988
   9.4040012  27.9334997  54.0509988   8.5574166  28.1010640  53.9380536
  13.0930012  33.5264997  51.9519988  12.1920012  33.7094997  51.6839988
  13.1270012  33.7854997  52.8729988  12.9743041  33.5865512  52.0398197
  18.8240012  25.7714997  40.3189988  18.2700012  25.3754997  39.6469988
  18.9240012  26.6814997  40.0409988  18.7617059  25.8403586  40.1894401
  18.7870012  31.5714997  53.1559988  17.9360012  31.8094997  52.7889988
  19.3780012  31.5544997  52.4029988  18.7502487  31.6018258  53.0038893
  17.1190012  34.5574997  40.7839988  16.7460012  33.7314997  41.0929988
  17.3970012  34.3744997  39.8869988  17.1055630  34.4197303  40.7049626
  14.2800012  29.3654997  47.8049988  13.3510012  29.1334997  47.7779988
  14.7310012  28.5884997  47.4749988  14.2139216  29.2287238  47.7566917
   6.8230012  33.6934997  43.9379988   7.3500012  34.4664997  43.7379988
   5.9430012  33.9184997  43.6369988   6.7761773  33.8298005  43.8699010
   2.5780012  28.5554997  38.5249988   3.1940012  29.1824997  38.9049988
   1.7160012  28.8714997  38.7969988   2.5457698  28.6839430  38.6137183
   8.2500012  31.3564997  43.5149988   8.0090012  32.2814997  43.5559988
   7.5090012  30.8974997  43.9109988   8.1168409  31.4211421  43.5741377
   8.7650012  35.5054997  49.8299988   9.1270012  36.3604997  49.5959988
   9.2960012  35.2134997  50.5699988   8.8864473  35.5831060  49.8980855
   6.9330012  36.3784997  43.0599988   5.9830012  36.4834997  43.1109988
   7.2850012  37.1984997  43.4049988   6.8504203  36.5038314  43.1136650
  12.3090012  31.6044997  49.5299988  11.8830012  31.3774997  50.3569988
  12.8890012  30.8664997  49.3479988  12.3291868  31.4735299  49.6185830
  14.5120012  32.5334997  38.6039988  14.8650012  32.1534997  39.4089988
  13.5630012  32.4404997  38.6909988  14.4320441  32.4689596  38.7258559
  14.9670012  36.1564997  51.9999988  14.3660012  35.6014997  51.5039988
  15.2490012  36.8234997  51.3739988  14.9228519  36.1706841  51.8474952
  19.0150012  37.0134997  38.8049988  19.7590012  37.5994997  38.6649988
  18.3210012  37.5814997  39.1389988  19.0230292  37.1705582  38.8309961
   3.0900012  23.3894997  51.4069988   2.1970012  23.7284997  51.3389988
   2.9910012  22.5344997  51.8249988   2.9544164  23.3202588  51.4542235
  15.3780012  31.2064997  40.8309988  15.1000012  30.4784997  41.3869988
  16.3050012  31.3254997  41.0359988  15.4653124  31.1228802  40.9348845
   2.7410012  35.1944997  49.8419988   2.9580012  34.2624997  49.8109988
   2.9870012  35.4684997  50.7249988   2.8039549  35.1040636  49.9571763
   8.6030012  33.6454997  37.0509988   8.8420012  32.8974997  36.5039988
   8.3340012  33.2574997  37.8839988   8.5993675  33.4906638  37.0886865
   7.5400012  33.2154997  39.5079988   7.6860012  32.6954997  40.2979988
   7.5370012  34.1224997  39.8139988   7.5595989  33.2668853  39.6576088
   3.9930012  30.4684997  40.0179988   3.3070012  30.8204997  40.5849988
   4.5150012  31.2314997  39.7709988   3.9696852  30.6198578  40.0622118
  11.8240012  23.1304997  50.2969988  12.5230012  23.2044997  50.9469988
  11.4430012  22.2664997  50.4509988  11.8681767  23.0237624  50.4068322
  12.6090012  22.7824997  41.3939988  12.8290012  23.2544997  40.5909988
  13.1670012  23.1774997  42.0639988  12.7144968  22.9004285  41.3747331
  10.2770012  34.9134997  40.2569988   9.4610012  35.4104997  40.3089988
  10.8070012  35.3884997  39.6169988  10.2369161  35.0457722  40.1775956
   9.8090012  24.5104997  42.2289988  10.6210012  25.0154997  42.2749988
   9.5640012  24.3654997  43.1429988   9.8870520  24.5600375  42.3588517
  10.3440012  25.4964997  51.4139988  10.4630012  26.0704997  52.1709988
  11.0000012  24.8084997  51.5279988  10.4489757  25.4821079  51.5330825
  10.6920012  21.5914997  43.1669988  10.3460012  22.2094997  43.8119988
  11.3510012  22.0924997  42.6859988  10.7337826  21.7435802  43.1900971
   7.6160012  35.9574997  40.2389988   7.7760012  36.7564997  39.7379988
   7.4180012  36.2634997  41.1239988   7.6111649  36.1084469  40.2899815
   6.3500012  22.6544997  39.8539988   6.2670012  23.5434997  40.2009988
   7.2400012  22.3894997  40.0859988   6.4589469  22.7401430  39.9327626
  16.5490012  23.4034997  52.2489988  15.6320012  23.6664997  52.1609988
  16.8840012  23.4004997  51.3519988  16.4689900  23.4390224  52.1157919
  15.1510012  27.1544997  46.3439988  14.3530012  26.7394997  46.0159988
  15.5960012  26.4634997  46.8349988  15.1019885  27.0043543  46.3654889
   4.6090012  33.0824997  38.9149988   5.2010012  33.7814997  39.1909988
   5.0680012  32.6494997  38.1949988   4.7521142  33.1197049  38.8554830
   2.9250012  25.7464997  38.0309988   2.8800012  26.6854997  38.2089988
   2.0370012  25.5104997  37.7609988   2.7988574  25.8431892  38.0188912
  16.2370012  36.4104997  47.9669988  16.0820012  37.0884997  47.3099988
  17.1700012  36.4824997  48.1699988  16.3418500  36.5130170  47.9045119
   3.7330012  20.5284997  46.7039988   3.5040012  20.5874997  45.7759988
   3.2900012  19.7364997  47.0099988   3.6418530  20.4295753  46.6184786
   2.6630012  34.4684997  42.8639988   1.8310012  34.9414997  42.8919988
   3.2090012  34.9784997  42.2659988   2.6229739  34.6021871  42.7869716
   1.9510012  37.0814997  54.1939988   2.4920012  36.8644997  54.9539988
   1.4700012  36.2754997  54.0049988   1.9599345  36.9429514  54.2723076
   6.5490012  36.0004997  55.8149988   7.3160012  35.5414997  56.1559988
   6.5270012  35.7744997  54.8849988   6.6511434  35.9070409  55.7360043
  10.6410012  35.5084997  37.1899988   9.9970012  34.8774997  37.5109988
  11.4030012  34.9774997  36.9579988  10.6558077  35.3502920  37.2026011
  13.1260012  34.3804997  54.5439988  12.7750012  33.5244997  54.7869988
  13.8520012  34.5234997  55.1509988  13.1760769  34.2825636  54.6593619
  15.2450012  35.3254997  37.4239988  15.5280012  34.5314997  37.8759988
  15.9850012  35.5584997  36.8629988  15.3837486  35.2482803  37.4100698
   1.8580012  30.8914997  55.1489988   2.0020012  29.9894997  54.8619988
   1.0860012  31.1774997  54.6609988   1.7733322  30.8068261  55.0437881
   6.2000012  31.2354997  37.2809988   6.2640012  30.4414997  37.8119988
   6.8530012  31.1164997  36.5909988   6.2970241  31.1107148  37.2604317
   8.5140012  30.8614997  54.5809988   8.1850012  31.1324997  53.7239988
   8.6660012  29.9204997  54.4939988   8.4894809  30.7713862  54.4518244
  11.5520012  32.2824997  37.0169988  11.2830012  32.4624997  37.9179988
  11.3460012  31.3564997  36.8859988  11.4873825  32.1820152  37.1225214
  14.2480012  30.7774997  51.9649988  14.9940012  31.3654997  51.8449988
  13.4910012  31.3594997  52.0279988  14.2477554  30.9367011  51.9570907
   2.6910012  28.0914997  54.5689988   3.0990012  27.2344997  54.4479988
   2.4310012  28.1064997  55.4899988   2.7117568  27.9760807  54.6769588
   7.3490012  29.2074997  39.5869988   6.8890012  28.7234997  40.2729988
   7.6040012  28.5394997  38.9509988   7.3204902  29.0508731  39.5949334
   6.6380012  27.1004997  51.9429988   6.0200012  27.7754997  52.2229988
   6.9820012  27.4214997  51.1099988   6.5999615  27.2362721  51.8686581
   8.4200012  27.4504997  37.8489988   8.2400012  27.2964997  36.9219988
   9.3700012  27.5584997  37.8939988   8.5237776  27.4440175  37.7281843
  11.6580012  29.5724997  55.2199988  12.6110012  29.6554997  55.1929988
  11.4970012  28.8604997  55.8399988  11.7666426  29.4876746  55.3000579
  17.8100012  29.8054997  37.2949988  17.5360012  29.3804997  36.4819988
  17.8490012  30.7364997  37.0779988  17.7777699  29.8732484  37.1543610
   6.9770012  24.4554997  53.0249988   7.1270012  23.7264997  52.4229988
   6.9800012  25.2324997  52.4659988   6.9979302  24.4607851  52.8670692
   7.3900012  22.8254997  50.5179988   7.9260012  23.2764997  49.8659988
   6.5380012  22.7174997  50.0949988   7.3482178  22.8726390  50.3715756
   8.9720012  28.2644997  50.7569988   9.7220012  28.1084997  50.1839988
   8.6330012  29.1164997  50.4819988   9.0288921  28.3582968  50.6413561
  13.3870012  26.0794997  55.7859988  13.5800012  25.1484997  55.6739988
  14.2450012  26.5044997  55.7759988  13.5293020  26.0096389  55.7693361
  14.7040012  28.8684997  53.8629988  14.4230012  29.5774997  53.2859988
  15.6470012  28.7954997  53.7119988  14.7929027  28.9557646  53.7635551
   5.4560012  25.6534997  54.9369988   4.6890012  25.1214997  54.7269988
   6.1350012  25.3434997  54.3369988   5.4427022  25.5387506  54.8271648
   8.1960012  20.2814997  50.9489988   8.0970012  21.2284997  50.8439988
   7.4530012  19.9094997  50.4739988   8.0820563  20.3605902  50.8704560
   9.4600012  24.6034997  54.5129988   9.2240012  24.3834997  55.4149988
   8.6760012  24.3964997  54.0029988   9.3218628  24.5454760  54.5673932
  12.1750012  23.7304997  53.5889988  11.2280012  23.7624997  53.7209988
  12.4880012  23.1054997  54.2419988  12.0875475  23.6503207  53.6954455
  13.8090012  22.3644997  55.5939988  13.7130012  21.4124997  55.5879988
  13.4880012  22.6334997  56.4539988  13.7524070  22.2704035  55.7095441
   3.6360012  23.5744997  54.6409988   3.8480012  22.8674997  54.0309988
   3.5250012  23.1364997  55.4849988   3.6499721  23.4187084  54.6716843
   8.4170012  19.5754997  53.6209988   9.1290012  18.9354997  53.6069988
   8.3160012  19.8424997  52.7069988   8.5007939  19.5239938  53.4955650
   8.7710012  21.2584997  55.6739988   8.6390012  20.7824997  54.8539988
   8.1720012  22.0024997  55.6189988   8.6719071  21.2939618  55.5542886
   8.3170012  38.1414997  38.8509988   9.2500012  38.2994997  38.9939988
   8.0530012  38.8164997  38.2259988   8.4089510  38.2543611  38.7860741
   1.8860012  32.7774997  38.3329988   2.8000012  32.8564997  38.6069988
   1.8930012  32.0904997  37.6669988   2.0121131  32.6953961  38.2804393
   0.5350012  38.1704997  43.4109988  -0.1119988  37.7084997  42.8779988
   0.8890012  37.4984997  43.9929988   0.4943849  38.0164723  43.4167959
   1.4050012  36.2514997  45.2149988   1.0700012  35.3714997  45.3869988
   1.6270012  36.5964997  46.0799988   1.3891783  36.1777501  45.3554208
  18.9530012  37.0604997  48.1959988  18.9320012  37.2454997  49.1349988
  19.6440012  37.6294997  47.8549988  19.0434618  37.1626606  48.2783864
  18.5170012  36.6284997  51.1179988  18.0290012  35.8924997  50.7469988
  19.0660012  36.2344997  51.7959988  18.5244872  36.4746249  51.1589160
  16.9670012  32.4174997  55.7559988  16.1010012  32.3124997  56.1499988
  17.3440012  33.1764997  56.2019988  16.8993308  32.5056900  55.8702393
  18.2680012  30.6744997  41.2699988  19.1180012  31.0954997  41.3969988
  18.2740012  29.9344997  41.8769988  18.3851372  30.6320803  41.3694344
  18.6630012  28.7274997  43.0939988  17.9360012  28.2484997  43.4909988
  19.2440012  28.9334997  43.8259988  18.6419375  28.6897090  43.2474129
  18.4220012  31.5124997  48.0409988  19.2550012  31.1344997  47.7609988
  18.5340012  32.4554997  47.9219988  18.5512647  31.5882218  47.9865487
  16.9080012  34.3904997  50.3479988  16.2610012  34.7154997  50.9739988
  16.3910012  33.9504997  49.6739988  16.7494029  34.3755004  50.3425827
  18.9310012  28.6284997  39.4849988  18.4090012  28.9854997  38.7659988
  18.8980012  29.3034997  40.1629988  18.8551634  28.7685413  39.4783145
  17.2800012  25.8684997  38.0359988  17.3760012  26.5354997  37.3549988
  17.1400012  25.0524997  37.5539988  17.2742135  25.8494500  37.8778491
  16.4490012  27.2484997  43.6569988  16.2990012  26.3034997  43.6359988
  16.0960012  27.5294997  44.4999988  16.3806625  27.1570441  43.7682346
   1.4850012  29.3264997  47.6669988   1.6690012  29.2444997  46.7309988
   2.3340012  29.2024997  48.0909988   1.6250139  29.2985003  47.5961455
  17.3060012  29.2184997  53.2949988  17.8890012  28.4844997  53.4869988
  17.8700012  29.9904997  53.3419988  17.4619769  29.2224227  53.3276159
  18.8020012  27.1214997  53.9799988  17.9390012  26.7424997  53.8139988
  19.4070012  26.3824997  53.9059988  18.7655979  26.9698023  53.9472817
  16.5270012  23.2764997  37.1529988  17.1380012  22.9054997  37.7899988
  15.6910012  22.8554997  37.3489988  16.4975032  23.1687554  37.2667035
  16.1600012  24.8314997  42.1189988  16.4400012  23.9244997  42.2429988
  16.9190012  25.2654997  41.7299988  16.3009277  24.7660942  42.0833682
  16.7720012  25.4124997  47.5549988  17.7050012  25.6244997  47.5209988
  16.5370012  25.5144997  48.4769988  16.8678036  25.4552769  47.6749976
  16.8010012  26.1494997  50.3309988  15.9580012  26.4174997  50.6969988
  17.2430012  26.9714997  50.1199988  16.7454158  26.2973291  50.3525491
   1.0820012  24.5974997  53.8079988   2.0020012  24.4754997  54.0439988
   0.6330012  23.8474997  54.1969988   1.1471580  24.4793727  53.8929006
  19.0840012  20.1294997  55.6839988  19.4340012  19.4754997  55.0789988
  19.2310012  20.9664997  55.2449988  19.1518419  20.1531591  55.5417118
  16.7730012  22.0944997  42.1669988  16.9560012  21.6454997  42.9929988
  16.1740012  21.5094997  41.7039988  16.7170202  21.9539975  42.2173275
   2.3030012  22.9094997  46.6989988   2.7490012  22.1174997  47.0009988
   2.7700012  23.6254997  47.1299988   2.4270172  22.8980624  46.7984820
   0.6070012  25.9084997  47.7679988   1.0990012  25.6874997  46.9769988
   0.9700012  26.7494997  48.0489988   0.7233126  25.9918357  47.6977531
  18.6040012  22.2384997  54.0339988  17.6860012  22.5094997  53.9979988
  18.7270012  21.7034997  53.2489988  18.4951066  22.2032892  53.9230487
  18.6400012  22.1614997  38.6949988  19.0520012  21.4404997  38.2199988
  19.3220012  22.8314997  38.7539988  18.7885885  22.1532368  38.6378915
   0.9210012  22.1664997  41.8219988  -0.0039988  22.3754997  41.6929988
   1.3750012  22.6504997  41.1329988   0.8557368  22.2605993  41.7111226
  15.6920012  37.1504997  43.7679988  16.3440012  36.8034997  43.1599988
  16.2020012  37.6394997  44.4139988  15.8502637  37.1690597  43.7720236
   0.8850012  20.9044997  50.1669988   0.2200012  20.6584997  50.8099988
   0.4420012  21.5264997  49.5889988   0.7340956  20.9548632  50.1769352
   3.0770012  34.0794997  54.3109988   2.2560012  34.2544997  53.8509988
   2.8240012  34.0064997  55.2319988   2.9306164  34.0935622  54.3724923
   6.0310012  35.0544997  50.5699988   5.6060012  35.8634997  50.2869988
   6.9350012  35.1394997  50.2679988   6.0950271  35.1768469  50.4903776
  10.3420012  36.4534997  53.5289988  10.5270012  36.1194997  54.4069988
  11.1880012  36.7624997  53.2069988  10.4817539  36.4496047  53.6055605
  12.6870012  37.7394997  52.7729988  13.3640012  37.1064997  52.5329988
  13.0090012  38.1404997  53.5799988  12.8231637  37.7071154  52.8492793
  17.6040012  20.3284997  51.8529988  16.7920012  20.6534997  51.4649988
  17.8370012  19.5684997  51.3199988  17.5243423  20.2702436  51.7278253
   3.4330012  38.3104997  50.6169988   2.7120012  38.7504997  50.1659988
   3.0670012  38.0594997  51.4659988   3.2849804  38.3367698  50.6699840
   5.9000012  37.9104997  49.6469988   5.0350012  37.9824997  50.0509988
   5.8450012  38.4574997  48.8629988   5.7742085  37.9942685  49.5963362
  10.6100012  37.7984997  48.8219988  10.1540012  38.3274997  48.1679988
  10.7730012  38.4014997  49.5479988  10.5695585  37.9524468  48.8305062
  12.9380012  36.6764997  49.7669988  12.0330012  36.8414997  49.5019988
  13.3670012  37.5294997  49.7019988  12.8720799  36.8144483  49.7219182
  15.5420012  38.2464997  50.0619988  15.3600012  39.1624997  49.8519988
  15.7190012  37.8364997  49.2159988  15.5410210  38.3164822  49.9187885
   2.8470012  36.9334997  47.5269988   2.8290012  36.5084997  48.3849988
   3.6520012  36.6154997  47.1189988   2.9533875  36.8323812  47.5891655
   4.9890012  35.6434997  46.1819988   4.7700012  34.7274997  46.3519988
   5.8130012  35.7834997  46.6479988   5.0704420  35.5370520  46.2682774
   7.5260012  36.1134997  47.0309988   7.7390012  35.2254997  46.7439988
   7.5900012  36.0794997  47.9849988   7.5638231  35.9873102  47.1207397
  11.0340012  21.7774997  46.1749988  10.3600012  21.1484997  46.4309988
  11.5980012  21.2934997  45.5719988  11.0179230  21.6258744  46.1285340
  16.1770012  19.8854997  46.2879988  16.7810012  20.4324997  45.7859988
  15.3070012  20.2044997  46.0479988  16.1421241  20.0035806  46.1867654
  17.9040012  21.0234997  44.6209988  18.5160012  20.5094997  44.0949988
  18.2860012  21.9014997  44.6449988  18.0394540  21.0717140  44.5521830
   3.3610012  20.4114997  43.9969988   2.5840012  20.1774997  43.4899988
   3.8910012  19.6144997  44.0059988   3.3262330  20.2716988  43.9287742
   2.1970012  20.2094997  39.8009988   2.6360012  20.8204997  39.2089988
   1.5640012  20.7474997  40.2749988   2.1714514  20.3659257  39.7840930
   7.9400012  20.3384997  43.8109988   8.8150012  20.7264997  43.7809988
   7.8040012  20.1234997  44.7329988   8.0413695  20.3625184  43.9316440
  13.4970012  20.3684997  45.4599988  13.5730012  20.4634997  44.5099988
  13.2220012  19.4604997  45.5889988  13.4702321  20.2587867  45.3475079
  14.8500012  20.3944997  41.1519988  14.1480012  21.0094997  40.9429988
  14.4060012  19.5564997  41.2829988  14.6936330  20.3655783  41.1410328
   2.0980012  36.1574997  40.6989988   1.4130012  36.1194997  40.0309988
   2.1020012  37.0704997  40.9869988   2.0048193  36.2757016  40.6465284
   4.0580012  22.1254997  38.2429988   4.5500012  21.4954997  37.7159988
   4.6820012  22.4214997  38.9069988   4.2095446  22.0793199  38.2605980
   9.0840012  22.4184997  40.6999988   9.2620012  21.7724997  41.3829988
   9.0310012  23.2524997  41.1679988   9.1011829  22.4427985  40.8565940
  10.9630012  37.3674997  39.0959988  11.8290012  37.7334997  38.9179988
  10.7160012  36.9274997  38.2819988  11.0482392  37.3581756  38.9616289
  17.6720012  36.9304997  41.7749988  17.4770012  36.1824997  41.2099988
  17.6330012  37.6884997  41.1919988  17.6400380  36.9306099  41.6188384
   3.3190012  20.9254997  53.5149988   2.9530012  20.1604997  53.9579988
   4.2320012  20.9544997  53.8019988   3.3922790  20.8247224  53.6144070
   5.2920012  20.2764997  55.0509988   6.1900012  20.0024997  54.8659988
   4.9050012  19.5334997  55.5149988   5.3626612  20.1385914  55.0883643
   3.9160012  37.0774997  37.7239988   3.6490012  37.3644997  38.5969988
   4.6880012  36.5314997  37.8759988   3.9837488  37.0430294  37.8641050
  13.7130012  19.6084997  55.2329988  13.7900012  19.1824997  56.0869988
  14.6070012  19.6224997  54.8899988  13.8443428  19.5520880  55.3035310
  16.8890012  35.6814997  53.9249988  16.1070012  35.4954997  53.4059988
  16.8170012  36.6104997  54.1429988  16.7721777  35.7816492  53.8834048
  31.2950012  29.5674997  43.9559988  31.3840012  30.5114997  43.8239988
  30.6570012  29.2924997  43.2979988  31.2209081  29.6594830  43.8489614
  30.2280012  28.8224997  47.3749988  30.1900012  28.1764997  48.0799988
  29.9060012  28.3564997  46.6039988  30.1792333  28.6709408  47.3672978
  22.5970012  28.4374997  48.9679988  22.6380012  27.8114997  49.6909988
  23.3000012  29.0614997  49.1499988  22.6976363  28.4361196  49.0916044
  33.9340012  31.7614997  45.6759988  33.4940012  31.0414997  46.1269988
  33.9210012  32.4824997  46.3059988  33.8720226  31.7603731  45.8228494
  23.5200012  32.8874997  47.5029988  23.1510012  32.0854997  47.1329988
  24.4610012  32.7184997  47.5489988  23.5967289  32.7550153  47.4586316
  20.1300012  26.5474997  42.8959988  19.6830012  27.3934997  42.8769988
  19.5690012  25.9674997  42.3799988  19.9929900  26.5849916  42.8236801
  20.8410012  28.7094997  45.0219988  21.0540012  27.9394997  45.5489988
  21.5790012  28.7984997  44.4179988  20.9698496  28.6161394  45.0125300
  31.0460012  36.8664997  45.8889988  31.6660012  36.1894997  45.6149988
  30.8380012  36.6484997  46.7969988  31.1026904  36.7443870  45.9743365
  28.6180012  31.2554997  47.7809988  28.9220012  30.5694997  47.1859988
  29.3390012  31.3734997  48.3989988  28.7570671  31.1776305  47.7831816
  37.2810012  22.8564997  48.6419988  37.3300012  23.4664997  49.3779988
  37.7060012  23.3174997  47.9189988  37.3451824  23.0023741  48.6450205
  31.7590012  25.6494997  48.1089988  31.9010012  24.7034997  48.1289988
  31.6520012  25.8564997  47.1799988  31.7639864  25.5479534  47.9862339
  24.9130012  23.7504997  45.3809988  24.9570012  24.6104997  44.9629988
  24.4560012  23.1984997  44.7469988  24.8572185  23.7935799  45.2380299
  32.6360012  23.8814997  43.7819988  33.2820012  23.5524997  44.4069988
  33.1460012  24.3994997  43.1589988  32.7934264  23.9064611  43.7833862
  21.5340012  26.1474997  46.1429988  22.1870012  25.5974997  46.5749988
  21.5580012  25.8734997  45.2259988  21.6266683  26.0351466  46.0782123
  26.6900012  27.6974997  45.3579988  27.3060012  27.1714997  45.8679988
  26.1040012  27.0574997  44.9549988  26.6950810  27.5389208  45.3733173
  37.6720012  24.3344997  50.8779988  36.9840012  24.9924997  50.7819988
  37.6880012  24.1374997  51.8139988  37.5798525  24.3980462  50.9914808
  23.7240012  22.6684997  49.4549988  23.5050012  23.1984997  48.6889988
  23.0560012  22.8954997  50.1019988  23.6037600  22.7716906  49.4376379
  31.0930012  32.1684997  42.9989988  30.7970012  31.8464997  42.1479988
  30.7680012  33.0684997  43.0399988  31.0086371  32.2460215  42.8881801
  26.2930012  30.3444997  49.7419988  25.5530012  30.9424997  49.8459988
  27.0070012  30.8984997  49.4269988  26.2882237  30.5012831  49.7136465
  34.4000012  23.1724997  45.7619988  34.1840012  22.4064997  46.2949988
  35.0550012  23.6444997  46.2749988  34.4590632  23.1315889  45.9042861
  23.3170012  24.5604997  47.4069988  23.9310012  25.1934997  47.7809988
  23.8290012  24.0884997  46.7509988  23.4702296  24.5832370  47.3694252
  24.7000012  32.3084997  50.5299988  24.6950012  33.1884997  50.1519988
  23.8470012  32.2254997  50.9549988  24.5839464  32.4176117  50.5357907
  20.8210012  31.9794997  41.3119988  20.5490012  32.2084997  40.4229988
  20.8670012  32.8174997  41.7719988  20.7900094  32.1241213  41.2525697
  34.4460012  33.6014997  48.0239988  33.5050012  33.6594997  48.1859988
  34.7230012  34.5074997  47.8869988  34.3544679  33.7319443  48.0276815
  34.7470012  21.8874997  49.4419988  34.0110012  22.4984997  49.4039988
  35.4300012  22.3024997  48.9149988  34.7386541  22.0271374  49.3655832
  27.7500012  19.9744997  46.9079988  27.6330012  19.0254997  46.8529988
  26.8950012  20.3064997  47.1809988  27.6183733  19.8895409  46.9373897
  32.6980012  35.3824997  44.6499988  33.1240012  34.6754997  44.1649988
  33.0150012  36.1834997  44.2329988  32.7991019  35.3940994  44.5273130
  33.8580012  33.2834997  43.1579988  33.6000012  32.5934997  42.5469988
  33.9290012  32.8404997  44.0039988  33.8322856  33.1292124  43.1886885
  35.5440012  31.8494997  51.6359988  35.6840012  31.2584997  50.8959988
  35.7110012  32.7224997  51.2789988  35.5856778  31.8866426  51.4866965
  30.0170012  28.8114997  41.4079988  29.3050012  29.3464997  41.0559988
  30.7080012  28.8674997  40.7479988  30.0130132  28.8922543  41.2706289
  30.0700012  27.2694997  38.4469988  30.7710012  27.2914997  39.0979988
  30.3730012  26.6414997  37.7909988  30.2067830  27.1876566  38.4473711
  37.3860012  28.1894997  49.7019988  36.7330012  28.8844997  49.7909988
  37.8510012  28.3994997  48.8919988  37.3595390  28.3129425  49.6046883
  33.4220012  29.0214997  42.3599988  32.6900012  29.2494997  42.9329988
  33.8700012  28.3074997  42.8149988  33.3823095  28.9562571  42.4999119
  33.3200012  27.1954997  51.4269988  33.4000012  27.9584997  51.9989988
  32.7180012  27.4744997  50.7369988  33.2495756  27.3377134  51.4120589
  25.0680012  29.6514997  44.2419988  24.7370012  29.2814997  43.4239988
  25.6560012  28.9814997  44.5889988  25.1021873  29.5101156  44.1768102
  26.4340012  33.0794997  46.9239988  26.3400012  32.5014997  46.1669988
  27.1640012  32.7084997  47.4199988  26.5197981  32.9502390  46.8874165
  25.4340012  28.4204997  47.8759988  26.0000012  28.5414997  47.1129988
  25.7530012  29.0574997  48.5149988  25.5545786  28.5231884  47.8580040
  31.7430012  33.9234997  48.6099988  31.5030012  34.5854997  49.2579988
  31.5450012  33.0894997  49.0349988  31.6833808  33.9013134  48.7561524
  26.3140012  32.8194997  52.5929988  26.0030012  33.6014997  53.0479988
  25.6640012  32.6664997  51.9069988  26.1835558  32.9059105  52.5625871
  32.2930012  28.1834997  40.0449988  32.8730012  28.3334997  40.7919988
  32.7070012  28.6544997  39.3219988  32.4282830  28.2676841  40.0494134
  23.2340012  29.0174997  51.8219988  23.3050012  29.6684997  52.5199988
  22.3440012  29.1204997  51.4869988  23.1233117  29.1205936  51.8722700
  30.0200012  34.9204997  43.4799988  30.4940012  35.2154997  44.2579988
  29.4570012  35.6584997  43.2469988  30.0087653  35.0606932  43.5550136
  24.5540012  34.8914997  53.3559988  24.5610012  34.7554997  52.4089988
  23.6380012  34.7734997  53.6079988  24.4311714  34.8569430  53.2604666
  35.9920012  19.9334997  39.8579988  35.0920012  20.0724997  40.1529988
  36.2440012  20.7644997  39.4559988  35.9028702  20.0649074  39.8440205
  24.0580012  28.7214997  41.8319988  23.7660012  29.4894997  41.3409988
  23.3840012  28.0614997  41.6689988  23.9269081  28.7374406  41.7427340
  37.1810012  34.2994997  38.2339988  37.2550012  35.2384997  38.4049988
  38.0870012  33.9944997  38.1779988  37.3135100  34.3866722  38.2498119
  20.1510012  31.0844997  50.6469988  19.6500012  31.0564997  49.8319988
  20.1560012  30.1784997  50.9559988  20.0831526  30.9582278  50.5772872
  19.9010012  33.8644997  47.5309988  20.8470012  33.7204997  47.5119988
  19.7890012  34.6484997  48.0679988  20.0152727  33.9508046  47.6010072
  38.0990012  34.5304997  53.2129988  38.0500012  33.5754997  53.1759988
  37.2720012  34.7984997  53.6139988  37.9804940  34.4358998  53.2621375
  29.0780012  34.1044997  52.0889988  29.1650012  34.9304997  52.5639988
  28.2140012  33.7744997  52.3379988  28.9731964  34.1729878  52.1876549
  29.4920012  37.8764997  41.8949988  29.4170012  37.7554997  40.9489988
  29.5250012  38.8264997  42.0139988  29.4861848  37.9882500  41.7814834
  23.1450012  36.6654997  43.6759988  23.2980012  36.3174997  44.5549988
  22.2950012  36.3094997  43.4209988  23.0508962  36.5696650  43.7618340
  32.5940012  37.0304997  38.8969988  32.9690012  36.2864997  38.4269988
  32.5980012  36.7604997  39.8159988  32.6458915  36.8921486  38.9567824
  32.2630012  36.9564997  41.6469988  31.3270012  37.0564997  41.8249988
  32.5430012  36.2474997  42.2249988  32.1728255  36.8742711  41.7495391
  35.2510012  26.0234997  53.6929988  34.8440012  26.5044997  52.9719988
  35.2920012  25.1184997  53.3849988  35.2008437  25.9669374  53.5526683
  22.4000012  32.4074997  51.6899988  22.6160012  32.0464997  52.5489988
  21.5450012  32.0334997  51.4799988  22.3139292  32.3074111  51.7793386
  25.0190012  20.8774997  47.6849988  24.1570012  20.7904997  47.2779988
  24.9960012  21.7334997  48.1129988  24.8980330  20.9812765  47.6871863
  29.6820012  20.5994997  51.0599988  30.1020012  20.1844997  51.8129988
  28.7490012  20.4214997  51.1769988  29.6133644  20.5185900  51.1789539
  33.0080012  24.3554997  51.9129988  32.4940012  24.2294997  52.7109988
  32.8530012  25.2674997  51.6689988  32.9166852  24.4616132  51.9892158
  33.7710012  29.2164997  37.6749988  33.8130012  28.9934997  36.7449988
  34.6200012  29.6154997  37.8649988  33.8915396  29.2399155  37.5733627
  29.3430012  23.0924997  38.3449988  29.0900012  23.1114997  39.2679988
  29.0870012  22.2204997  38.0439988  29.2737790  22.9772437  38.4306263
  25.1100012  25.8434997  48.7799988  24.4680012  25.8024997  49.4889988
  25.1470012  26.7694997  48.5429988  25.0271324  25.9631559  48.8449824
  25.1070012  26.0644997  43.6919988  24.2140012  25.7234997  43.6339988
  25.5570012  25.6874997  42.9369988  25.0457305  25.9668484  43.5819177
  30.6420012  26.4804997  42.5089988  30.2330012  27.2954997  42.2179988
  31.3630012  26.3404997  41.8949988  30.6834537  26.5732018  42.3861342
  29.7440012  26.6554997  53.9969988  29.1820012  25.9514997  54.3179988
  30.5710012  26.5354997  54.4649988  29.7787095  26.5427883  54.1042330
  31.6470012  25.9264997  45.3229988  31.4520012  26.5314997  44.6079988
  31.8280012  25.0924997  44.8889988  31.6447614  25.8966300  45.1664405
  22.8600012  26.1634997  50.6469988  22.8220012  26.5634997  51.5159988
  22.3690012  25.3464997  50.7379988  22.7884684  26.1078069  50.7781059
  26.2260012  23.5374997  37.4459988  25.7950012  23.0924997  38.1759988
  25.5080012  23.9094997  36.9339988  26.0699438  23.5268940  37.4766799
  19.4680012  23.2794997  44.4979988  20.0990012  23.2504997  45.2169988
  19.9170012  22.8544997  43.7679988  19.6150774  23.2180492  44.4976553
  20.7420012  24.0254997  39.9219988  21.2160012  24.6164997  39.3369988
  20.0250012  24.5564997  40.2689988  20.7099341  24.1780867  39.8888836
  30.9110012  27.5644997  49.9949988  31.2340012  26.9334997  49.3519988
  30.4710012  27.0294997  50.6549988  30.8956895  27.4058441  49.9962850
  27.6880012  23.4914997  44.7789988  26.7770012  23.5484997  45.0669988
  28.1940012  23.4314997  45.5889988  27.6315413  23.4911985  44.9280622
  22.5170012  25.1204997  43.6049988  21.6270012  25.2204997  43.2649988
  22.8130012  24.2784997  43.2589988  22.4352823  25.0203545  43.5117213
  26.1700012  25.1204997  41.2619988  27.1010012  25.2494997  41.4399988
  25.9550012  25.7904997  40.6119988  26.2684247  25.2286565  41.1985747
  32.0930012  22.7264997  48.0429988  31.4170012  22.8574997  48.7069988
  31.6080012  22.5714997  47.2329988  31.9347145  22.7234905  48.0244517
  24.8440012  26.3154997  38.8289988  24.3010012  25.9354997  38.1369988
  25.6770012  26.5094997  38.3999988  24.8824399  26.2898124  38.6764526
  35.3810012  38.3984997  54.3199988  35.5810012  38.8224997  53.4849988
  36.0360012  38.7414997  54.9269988  35.4970051  38.5029648  54.2877836
  22.9790012  30.8724997  53.9279988  23.7110012  31.1264997  54.4889988
  22.1990012  31.0764997  54.4429988  22.9738232  30.9349177  54.0745760
  29.0080012  26.2794997  46.6659988  29.5730012  25.7324997  46.1189988
  28.8610012  25.7574997  47.4539988  29.0652918  26.1342024  46.6978454
  24.0100012  22.4154997  43.0839988  23.6930012  21.5134997  43.0489988
  24.7920012  22.4174997  42.5309988  24.0722284  22.2921628  43.0044783
  27.6350012  24.6674997  49.0799988  26.7990012  25.1214997  49.1899988
  28.1590012  24.9434997  49.8319988  27.5914414  24.7669376  49.1967136
  28.1790012  30.8804997  40.7639988  27.4340012  30.3734997  40.4419988
  28.0450012  30.9294997  41.7109988  28.0588776  30.8176940  40.8478647
  35.3290012  30.0134997  49.5509988  35.9710012  30.4704997  49.0069988
  34.4990012  30.1264997  49.0879988  35.3045963  30.0912704  49.4140177
  32.0770012  23.6944997  38.9639988  31.1380012  23.8064997  38.8119988
  32.3740012  24.5514997  39.2699988  31.9887666  23.8256443  38.9845768
  29.6980012  31.0644997  52.0009988  29.3530012  30.6834997  52.8079988
  29.4980012  31.9984997  52.0729988  29.6238061  31.1385228  52.1210961
  32.7950012  25.5614997  40.6239988  33.6870012  25.4244997  40.9429988
  32.8520012  26.3524997  40.0879988  32.9246285  25.6496660  40.5951691
  23.3040012  30.1754997  46.5339988  24.0490012  30.1734997  45.9329988
  23.3820012  29.3524997  47.0159988  23.4165518  30.0639315  46.5168929
  30.3050012  32.3394997  39.7899988  30.0090012  33.1654997  40.1709988
  29.6020012  31.7194997  39.9859988  30.1694914  32.3688199  39.8686443
  20.3120012  28.6364997  51.8489988  20.5350012  28.2184997  52.6809988
  19.7100012  28.0234997  51.4259988  20.2611759  28.4964668  51.9057022
  27.3280012  28.1534997  54.0619988  27.0320012  27.9874997  53.1669988
  28.2600012  27.9334997  54.0509988  27.4134166  28.1010640  53.9380536
  31.9490012  33.5264997  51.9519988  31.0480012  33.7094997  51.6839988
  31.9830012  33.7854997  52.8729988  31.8303041  33.5865512  52.0398197
  37.6800012  25.7714997  40.3189988  37.1260012  25.3754997  39.6469988
  37.7800012  26.6814997  40.0409988  37.6177059  25.8403586  40.1894401
  37.6430012  31.5714997  53.1559988  36.7920012  31.8094997  52.7889988
  38.2340012  31.5544997  52.4029988  37.6062487  31.6018258  53.0038893
  35.9750012  34.5574997  40.7839988  35.6020012  33.7314997  41.0929988
  36.2530012  34.3744997  39.8869988  35.9615630  34.4197303  40.7049626
  33.1360012  29.3654997  47.8049988  32.2070012  29.1334997  47.7779988
  33.5870012  28.5884997  47.4749988  33.0699216  29.2287238  47.7566917
  25.6790012  33.6934997  43.9379988  26.2060012  34.4664997  43.7379988
  24.7990012  33.9184997  43.6369988  25.6321773  33.8298005  43.8699010
  21.4340012  28.5554997  38.5249988  22.0500012  29.1824997  38.9049988
  20.5720012  28.8714997  38.7969988  21.4017698  28.6839430  38.6137183
  27.1060012  31.3564997  43.5149988  26.8650012  32.2814997  43.5559988
  26.3650012  30.8974997  43.9109988  26.9728409  31.4211421  43.5741377
  27.6210012  35.5054997  49.8299988  27.9830012  36.3604997  49.5959988
  28.1520012  35.2134997  50.5699988  27.7424473  35.5831060  49.8980855
  25.7890012  36.3784997  43.0599988  24.8390012  36.4834997  43.1109988
  26.1410012  37.1984997  43.4049988  25.7064203  36.5038314  43.1136650
  31.1650012  31.6044997  49.5299988  30.7390012  31.3774997  50.3569988
  31.7450012  30.8664997  49.3479988  31.1851868  31.4735299  49.6185830
  33.3680012  32.5334997  38.6039988  33.7210012  32.1534997  39.4089988
  32.4190012  32.4404997  38.6909988  33.2880441  32.4689596  38.7258559
  33.8230012  36.1564997  51.9999988  33.2220012  35.6014997  51.5039988
  34.1050012  36.8234997  51.3739988  33.7788519  36.1706841  51.8474952
  37.8710012  37.0134997  38.8049988  38.6150012  37.5994997  38.6649988
  37.1770012  37.5814997  39.1389988  37.8790292  37.1705582  38.8309961
  21.9460012  23.3894997  51.4069988  21.0530012  23.7284997  51.3389988
  21.8470012  22.5344997  51.8249988  21.8104164  23.3202588  51.4542235
  34.2340012  31.2064997  40.8309988  33.9560012  30.4784997  41.3869988
  35.1610012  31.3254997  41.0359988  34.3213124  31.1228802  40.9348845
  21.5970012  35.1944997  49.8419988  21.8140012  34.2624997  49.8109988
  21.8430012  35.4684997  50.7249988  21.6599549  35.1040636  49.9571763
  27.4590012  33.6454997  37.0509988  27.6980012  32.8974997  36.5039988
  27.1900012  33.2574997  37.8839988  27.4553675  33.4906638  37.0886865
  26.3960012  33.2154997  39.5079988  26.5420012  32.6954997  40.2979988
  26.3930012  34.1224997  39.8139988  26.4155989  33.2668853  39.6576088
  22.8490012  30.4684997  40.0179988  22.1630012  30.8204997  40.5849988
  23.3710012  31.2314997  39.7709988  22.8256852  30.6198578  40.0622118
  30.6800012  23.1304997  50.2969988  31.3790012  23.2044997  50.9469988
  30.2990012  22.2664997  50.4509988  30.7241767  23.0237624  50.4068322
  31.4650012  22.7824997  41.3939988  31.6850012  23.2544997  40.5909988
  32.0230012  23.1774997  42.0639988  31.5704968  22.9004285  41.3747331
  29.1330012  34.9134997  40.2569988  28.3170012  35.4104997  40.3089988
  29.6630012  35.3884997  39.6169988  29.0929161  35.0457722  40.1775956
  28.6650012  24.5104997  42.2289988  29.4770012  25.0154997  42.2749988
  28.4200012  24.3654997  43.1429988  28.7430520  24.5600375  42.3588517
  29.2000012  25.4964997  51.4139988  29.3190012  26.0704997  52.1709988
  29.8560012  24.8084997  51.5279988  29.3049757  25.4821079  51.5330825
  29.5480012  21.5914997  43.1669988  29.2020012  22.2094997  43.8119988
  30.2070012  22.0924997  42.6859988  29.5897826  21.7435802  43.1900971
  26.4720012  35.9574997  40.2389988  26.6320012  36.7564997  39.7379988
  26.2740012  36.2634997  41.1239988  26.4671649  36.1084469  40.2899815
  25.2060012  22.6544997  39.8539988  25.1230012  23.5434997  40.2009988
  26.0960012  22.3894997  40.0859988  25.3149469  22.7401430  39.9327626
  35.4050012  23.4034997  52.2489988  34.4880012  23.6664997  52.1609988
  35.7400012  23.4004997  51.3519988  35.3249900  23.4390224  52.1157919
  34.0070012  27.1544997  46.3439988  33.2090012  26.7394997  46.0159988
  34.4520012  26.4634997  46.8349988  33.9579885  27.0043543  46.3654889
  23.4650012  33.0824997  38.9149988  24.0570012  33.7814997  39.1909988
  23.9240012  32.6494997  38.1949988  23.6081142  33.1197049  38.8554830
  21.7810012  25.7464997  38.0309988  21.7360012  26.6854997  38.2089988
  20.8930012  25.5104997  37.7609988  21.6548574  25.8431892  38.0188912
  35.0930012  36.4104997  47.9669988  34.9380012  37.0884997  47.3099988
  36.0260012  36.4824997  48.1699988  35.1978500  36.5130170  47.9045119
  22.5890012  20.5284997  46.7039988  22.3600012  20.5874997  45.7759988
  22.1460012  19.7364997  47.0099988  22.4978530  20.4295753  46.6184786
  21.5190012  34.4684997  42.8639988  20.6870012  34.9414997  42.8919988
  22.0650012  34.9784997  42.2659988  21.4789739  34.6021871  42.7869716
  20.8070012  37.0814997  54.1939988  21.3480012  36.8644997  54.9539988
  20.3260012  36.2754997  54.0049988  20.8159345  36.9429514  54.2723076
  25.4050012  36.0004997  55.8149988  26.1720012  35.5414997  56.1559988
  25.3830012  35.7744997  54.8849988  25.5071434  35.9070409  55.7360043
  29.4970012  35.5084997  37.1899988  28.8530012  34.8774997  37.5109988
  30.2590012  34.9774997  36.9579988  29.5118077  35.3502920  37.2026011
  31.9820012  34.3804997  54.5439988  31.6310012  33.5244997  54.7869988
  32.7080012  34.5234997  55.1509988  32.0320769  34.2825636  54.6593619
  34.1010012  35.3254997  37.4239988  34.3840012  34.5314997  37.8759988
  34.8410012  35.5584997  36.8629988  34.2397486  35.2482803  37.4100698
  20.7140012  30.8914997  55.1489988  20.8580012  29.9894997  54.8619988
  19.9420012  31.1774997  54.6609988  20.6293322  30.8068261  55.0437881
  25.0560012  31.2354997  37.2809988  25.1200012  30.4414997  37.8119988
  25.7090012  31.1164997  36.5909988  25.1530241  31.1107148  37.2604317
  27.3700012  30.8614997  54.5809988  27.0410012  31.1324997  53.7239988
  27.5220012  29.9204997  54.4939988  27.3454809  30.7713862  54.4518244
  30.4080012  32.2824997  37.0169988  30.1390012  32.4624997  37.9179988
  30.2020012  31.3564997  36.8859988  30.3433825  32.1820152  37.1225214
  33.1040012  30.7774997  51.9649988  33.8500012  31.3654997  51.8449988
  32.3470012  31.3594997  52.0279988  33.1037554  30.9367011  51.9570907
  21.5470012  28.0914997  54.5689988  21.9550012  27.2344997  54.4479988
  21.2870012  28.1064997  55.4899988  21.5677568  27.9760807  54.6769588
  26.2050012  29.2074997  39.5869988  25.7450012  28.7234997  40.2729988
  26.4600012  28.5394997  38.9509988  26.1764902  29.0508731  39.5949334
  25.4940012  27.1004997  51.9429988  24.8760012  27.7754997  52.2229988
  25.8380012  27.4214997  51.1099988  25.4559615  27.2362721  51.8686581
  27.2760012  27.4504997  37.8489988  27.0960012  27.2964997  36.9219988
  28.2260012  27.5584997  37.8939988  27.3797776  27.4440175  37.7281843
  30.5140012  29.5724997  55.2199988  31.4670012  29.6554997  55.1929988
  30.3530012  28.8604997  55.8399988  30.6226426  29.4876746  55.3000579
  36.6660012  29.8054997  37.2949988  36.3920012  29.3804997  36.4819988
  36.7050012  30.7364997  37.0779988  36.6337699  29.8732484  37.1543610
  25.8330012  24.4554997  53.0249988  25.9830012  23.7264997  52.4229988
  25.8360012  25.2324997  52.4659988  25.8539302  24.4607851  52.8670692
  26.2460012  22.8254997  50.5179988  26.7820012  23.2764997  49.8659988
  25.3940012  22.7174997  50.0949988  26.2042178  22.8726390  50.3715756
  27.8280012  28.2644997  50.7569988  28.5780012  28.1084997  50.1839988
  27.4890012  29.1164997  50.4819988  27.8848921  28.3582968  50.6413561
  32.2430012  26.0794997  55.7859988  32.4360012  25.1484997  55.6739988
  33.1010012  26.5044997  55.7759988  32.3853020  26.0096389  55.7693361
  33.5600012  28.8684997  53.8629988  33.2790012  29.5774997  53.2859988
  34.5030012  28.7954997  53.7119988  33.6489027  28.9557646  53.7635551
  24.3120012  25.6534997  54.9369988  23.5450012  25.1214997  54.7269988
  24.9910012  25.3434997  54.3369988  24.2987022  25.5387506  54.8271648
  27.0520012  20.2814997  50.9489988  26.9530012  21.2284997  50.8439988
  26.3090012  19.9094997  50.4739988  26.9380564  20.3605902  50.8704560
  28.3160012  24.6034997  54.5129988  28.0800012  24.3834997  55.4149988
  27.5320012  24.3964997  54.0029988  28.1778628  24.5454760  54.5673932
  31.0310012  23.7304997  53.5889988  30.0840012  23.7624997  53.7209988
  31.3440012  23.1054997  54.2419988  30.9435475  23.6503207  53.6954455
  32.6650012  22.3644997  55.5939988  32.5690012  21.4124997  55.5879988
  32.3440012  22.6334997  56.4539988  32.6084070  22.2704035  55.7095441
  22.4920012  23.5744997  54.6409988  22.7040012  22.8674997  54.0309988
  22.3810012  23.1364997  55.4849988  22.5059721  23.4187084  54.6716843
  27.2730012  19.5754997  53.6209988  27.9850012  18.9354997  53.6069988
  27.1720012  19.8424997  52.7069988  27.3567939  19.5239938  53.4955650
  27.6270012  21.2584997  55.6739988  27.4950012  20.7824997  54.8539988
  27.0280012  22.0024997  55.6189988  27.5279071  21.2939618  55.5542886
  27.1730012  38.1414997  38.8509988  28.1060012  38.2994997  38.9939988
  26.9090012  38.8164997  38.2259988  27.2649510  38.2543611  38.7860741
  20.7420012  32.7774997  38.3329988  21.6560012  32.8564997  38.6069988
  20.7490012  32.0904997  37.6669988  20.8681131  32.6953961  38.2804393
  19.3910012  38.1704997  43.4109988  18.7440012  37.7084997  42.8779988
  19.7450012  37.4984997  43.9929988  19.3503849  38.0164723  43.4167959
  20.2610012  36.2514997  45.2149988  19.9260012  35.3714997  45.3869988
  20.4830012  36.5964997  46.0799988  20.2451783  36.1777500  45.3554208
  37.8090012  37.0604997  48.1959988  37.7880012  37.2454997  49.1349988
  38.5000012  37.6294997  47.8549988  37.8994618  37.1626606  48.2783864
  37.3730012  36.6284997  51.1179988  36.8850012  35.8924997  50.7469988
  37.9220012  36.2344997  51.7959988  37.3804872  36.4746249  51.1589160
  35.8230012  32.4174997  55.7559988  34.9570012  32.3124997  56.1499988
  36.2000012  33.1764997  56.2019988  35.7553308  32.5056900  55.8702393
  37.1240012  30.6744997  41.2699988  37.9740012  31.0954997  41.3969988
  37.1300012  29.9344997  41.8769988  37.2411372  30.6320803  41.3694344
  37.5190012  28.7274997  43.0939988  36.7920012  28.2484997  43.4909988
  38.1000012  28.9334997  43.8259988  37.4979375  28.6897090  43.2474129
  37.2780012  31.5124997  48.0409988  38.1110012  31.1344997  47.7609988
  37.3900012  32.4554997  47.9219988  37.4072647  31.5882218  47.9865487
  35.7640012  34.3904997  50.3479988  35.1170012  34.7154997  50.9739988
  35.2470012  33.9504997  49.6739988  35.6054029  34.3755004  50.3425827
  37.7870012  28.6284997  39.4849988  37.2650012  28.9854997  38.7659988
  37.7540012  29.3034997  40.1629988  37.7111634  28.7685413  39.4783145
  36.1360012  25.8684997  38.0359988  36.2320012  26.5354997  37.3549988
  35.9960012  25.0524997  37.5539988  36.1302135  25.8494500  37.8778491
  35.3050012  27.2484997  43.6569988  35.1550012  26.3034997  43.6359988
  34.9520012  27.5294997  44.4999988  35.2366625  27.1570441  43.7682346
  20.3410012  29.3264997  47.6669988  20.5250012  29.2444997  46.7309988
  21.1900012  29.2024997  48.0909988  20.4810139  29.2985003  47.5961455
  36.1620012  29.2184997  53.2949988  36.7450012  28.4844997  53.4869988
  36.7260012  29.9904997  53.3419988  36.3179769  29.2224227  53.3276159
  37.6580012  27.1214997  53.9799988  36.7950012  26.7424997  53.8139988
  38.2630012  26.3824997  53.9059988  37.6215979  26.9698023  53.9472817
  35.3830012  23.2764997  37.1529988  35.9940012  22.9054997  37.7899988
  34.5470012  22.8554997  37.3489988  35.3535032  23.1687554  37.2667035
  35.0160012  24.8314997  42.1189988  35.2960012  23.9244997  42.2429988
  35.7750012  25.2654997  41.7299988  35.1569277  24.7660942  42.0833682
  35.6280012  25.4124997  47.5549988  36.5610012  25.6244997  47.5209988
  35.3930012  25.5144997  48.4769988  35.7238036  25.4552769  47.6749976
  35.6570012  26.1494997  50.3309988  34.8140012  26.4174997  50.6969988
  36.0990012  26.9714997  50.1199988  35.6014158  26.2973291  50.3525491
  19.9380012  24.5974997  53.8079988  20.8580012  24.4754997  54.0439988
  19.4890012  23.8474997  54.1969988  20.0031580  24.4793727  53.8929006
  37.9400012  20.1294997  55.6839988  38.2900012  19.4754997  55.0789988
  38.0870012  20.9664997  55.2449988  38.0078419  20.1531591  55.5417118
  35.6290012  22.0944997  42.1669988  35.8120012  21.6454997  42.9929988
  35.0300012  21.5094997  41.7039988  35.5730202  21.9539975  42.2173275
  21.1590012  22.9094997  46.6989988  21.6050012  22.1174997  47.0009988
  21.6260012  23.6254997  47.1299988  21.2830172  22.8980624  46.7984820
  19.4630012  25.9084997  47.7679988  19.9550012  25.6874997  46.9769988
  19.8260012  26.7494997  48.0489988  19.5793126  25.9918357  47.6977531
  37.4600012  22.2384997  54.0339988  36.5420012  22.5094997  53.9979988
  37.5830012  21.7034997  53.2489988  37.3511066  22.2032892  53.9230487
  37.4960012  22.1614997  38.6949988  37.9080012  21.4404997  38.2199988
  38.1780012  22.8314997  38.7539988  37.6445885  22.1532368  38.6378915
  19.7770012  22.1664997  41.8219988  18.8520012  22.3754997  41.6929988
  20.2310012  22.6504997  41.1329988  19.7117368  22.2605993  41.7111226
  34.5480012  37.1504997  43.7679988  35.2000012  36.8034997  43.1599988
  35.0580012  37.6394997  44.4139988  34.7062637  37.1690597  43.7720236
  19.7410012  20.9044997  50.1669988  19.0760012  20.6584997  50.8099988
  19.2980012  21.5264997  49.5889988  19.5900956  20.9548632  50.1769352
  21.9330012  34.0794997  54.3109988  21.1120012  34.2544997  53.8509988
  21.6800012  34.0064997  55.2319988  21.7866164  34.0935622  54.3724923
  24.8870012  35.0544997  50.5699988  24.4620012  35.8634997  50.2869988
  25.7910012  35.1394997  50.2679988  24.9510271  35.1768469  50.4903776
  29.1980012  36.4534997  53.5289988  29.3830012  36.1194997  54.4069988
  30.0440012  36.7624997  53.2069988  29.3377539  36.4496047  53.6055605
  31.5430012  37.7394997  52.7729988  32.2200012  37.1064997  52.5329988
  31.8650012  38.1404997  53.5799988  31.6791637  37.7071154  52.8492793
  36.4600012  20.3284997  51.8529988  35.6480012  20.6534997  51.4649988
  36.6930012  19.5684997  51.3199988  36.3803423  20.2702436  51.7278253
  22.2890012  38.3104997  50.6169988  21.5680012  38.7504997  50.1659988
  21.9230012  38.0594997  51.4659988  22.1409804  38.3367698  50.6699840
  24.7560012  37.9104997  49.6469988  23.8910012  37.9824997  50.0509988
  24.7010012  38.4574997  48.8629988  24.6302085  37.9942685  49.5963362
  29.4660012  37.7984997  48.8219988  29.0100012  38.3274997  48.1679988
  29.6290012  38.4014997  49.5479988  29.4255585  37.9524468  48.8305062
  31.7940012  36.6764997  49.7669988  30.8890012  36.8414997  49.5019988
  32.2230012  37.5294997  49.7019988  31.7280799  36.8144483  49.7219182
  34.3980012  38.2464997  50.0619988  34.2160012  39.1624997  49.8519988
  34.5750012  37.8364997  49.2159988  34.3970210  38.3164822  49.9187885
  21.7030012  36.9334997  47.5269988  21.6850012  36.5084997  48.3849988
  22.5080012  36.6154997  47.1189988  21.8093875  36.8323812  47.5891655
  23.8450012  35.6434997  46.1819988  23.6260012  34.7274997  46.3519988
  24.6690012  35.7834997  46.6479988  23.9264420  35.5370520  46.2682773
  26.3820012  36.1134997  47.0309988  26.5950012  35.2254997  46.7439988
  26.4460012  36.0794997  47.9849988  26.4198231  35.9873102  47.1207397
  29.8900012  21.7774997  46.1749988  29.2160012  21.1484997  46.4309988
  30.4540012  21.2934997  45.5719988  29.8739230  21.6258744  46.1285340
  35.0330012  19.8854997  46.2879988  35.6370012  20.4324997  45.7859988
  34.1630012  20.2044997  46.0479988  34.9981241  20.0035806  46.1867654
  36.7600012  21.0234997  44.6209988  37.3720012  20.5094997  44.0949988
  37.1420012  21.9014997  44.6449988  36.8954540  21.0717140  44.5521830
  22.2170012  20.4114997  43.9969988  21.4400012  20.1774997  43.4899988
  22.7470012  19.6144997  44.0059988  22.1822330  20.2716988  43.9287742
  21.0530012  20.2094997  39.8009988  21.4920012  20.8204997  39.2089988
  20.4200012  20.7474997  40.2749988  21.0274514  20.3659257  39.7840930
  26.7960012  20.3384997  43.8109988  27.6710012  20.7264997  43.7809988
  26.6600012  20.1234997  44.7329988  26.8973695  20.3625184  43.9316440
  32.3530012  20.3684997  45.4599988  32.4290012  20.4634997  44.5099988
  32.0780012  19.4604997  45.5889988  32.3262321  20.2587867  45.3475079
  33.7060012  20.3944997  41.1519988  33.0040012  21.0094997  40.9429988
  33.2620012  19.5564997  41.2829988  33.5496330  20.3655783  41.1410328
  20.9540012  36.1574997  40.6989988  20.2690012  36.1194997  40.0309988
  20.9580012  37.0704997  40.9869988  20.8608193  36.2757016  40.6465284
  22.9140012  22.1254997  38.2429988  23.4060012  21.4954997  37.7159988
  23.5380012  22.4214997  38.9069988  23.0655446  22.0793199  38.2605980
  27.9400012  22.4184997  40.6999988  28.1180012  21.7724997  41.3829988
  27.8870012  23.2524997  41.1679988  27.9571829  22.4427985  40.8565940
  29.8190012  37.3674997  39.0959988  30.6850012  37.7334997  38.9179988
  29.5720012  36.9274997  38.2819988  29.9042392  37.3581756  38.9616289
  36.5280012  36.9304997  41.7749988  36.3330012  36.1824997  41.2099988
  36.4890012  37.6884997  41.1919988  36.4960380  36.9306099  41.6188384
  22.1750012  20.9254997  53.5149988  21.8090012  20.1604997  53.9579988
  23.0880012  20.9544997  53.8019988  22.2482790  20.8247224  53.6144070
  24.1480012  20.2764997  55.0509988  25.0460012  20.0024997  54.8659988
  23.7610012  19.5334997  55.5149988  24.2186612  20.1385914  55.0883643
  22.7720012  37.0774997  37.7239988  22.5050012  37.3644997  38.5969988
  23.5440012  36.5314997  37.8759988  22.8397488  37.0430294  37.8641050
  32.5690012  19.6084997  55.2329988  32.6460012  19.1824997  56.0869988
  33.4630012  19.6224997  54.8899988  32.7003428  19.5520880  55.3035310
  35.7450012  35.6814997  53.9249988  34.9630012  35.4954997  53.4059988
  35.6730012  36.6104997  54.1429988  35.6281777  35.7816492  53.8834048
  50.1510012  29.5674997  43.9559988  50.2400012  30.5114997  43.8239988
  49.5130012  29.2924997  43.2979988  50.0769081  29.6594830  43.8489614
  49.0840012  28.8224997  47.3749988  49.0460012  28.1764997  48.0799988
  48.7620012  28.3564997  46.6039988  49.0352333  28.6709408  47.3672978
  41.4530012  28.4374997  48.9679988  41.4940012  27.8114997  49.6909988
  42.1560012  29.0614997  49.1499988  41.5536363  28.4361196  49.0916044
  52.7900012  31.7614997  45.6759988  52.3500012  31.0414997  46.1269988
  52.7770012  32.4824997  46.3059988  52.7280226  31.7603731  45.8228494
  42.3760012  32.8874997  47.5029988  42.0070012  32.0854997  47.1329988
  43.3170012  32.7184997  47.5489988  42.4527289  32.7550153  47.4586316
  38.9860012  26.5474997  42.8959988  38.5390012  27.3934997  42.8769988
  38.4250012  25.9674997  42.3799988  38.8489900  26.5849916  42.8236801
  39.6970012  28.7094997  45.0219988  39.9100012  27.9394997  45.5489988
  40.4350012  28.7984997  44.4179988  39.8258496  28.6161394  45.0125300
  49.9020012  36.8664997  45.8889988  50.5220012  36.1894997  45.6149988
  49.6940012  36.6484997  46.7969988  49.9586904  36.7443870  45.9743365
  47.4740012  31.2554997  47.7809988  47.7780012  30.5694997  47.1859988
  48.1950012  31.3734997  48.3989988  47.6130671  31.1776305  47.7831816
  56.1370012  22.8564997  48.6419988  56.1860012  23.4664997  49.3779988
  56.5620012  23.3174997  47.9189988  56.2011824  23.0023741  48.6450205
  50.6150012  25.6494997  48.1089988  50.7570012  24.7034997  48.1289988
  50.5080012  25.8564997  47.1799988  50.6199864  25.5479534  47.9862339
  43.7690012  23.7504997  45.3809988  43.8130012  24.6104997  44.9629988
  43.3120012  23.1984997  44.7469988  43.7132185  23.7935799  45.2380299
  51.4920012  23.8814997  43.7819988  52.1380012  23.5524997  44.4069988
  52.0020012  24.3994997  43.1589988  51.6494264  23.9064611  43.7833862
  40.3900012  26.1474997  46.1429988  41.0430012  25.5974997  46.5749988
  40.4140012  25.8734997  45.2259988  40.4826683  26.0351466  46.0782123
  45.5460012  27.6974997  45.3579988  46.1620012  27.1714997  45.8679988
  44.9600012  27.0574997  44.9549988  45.5510810  27.5389208  45.3733173
  56.5280012  24.3344997  50.8779988  55.8400012  24.9924997  50.7819988
  56.5440012  24.1374997  51.8139988  56.4358525  24.3980462  50.9914808
  42.5800012  22.6684997  49.4549988  42.3610012  23.1984997  48.6889988
  41.9120012  22.8954997  50.1019988  42.4597600  22.7716906  49.4376379
  49.9490012  32.1684997  42.9989988  49.6530012  31.8464997  42.1479988
  49.6240012  33.0684997  43.0399988  49.8646371  32.2460215  42.8881801
  45.1490012  30.3444997  49.7419988  44.4090012  30.9424997  49.8459988
  45.8630012  30.8984997  49.4269988  45.1442237  30.5012831  49.7136465
  53.2560012  23.1724997  45.7619988  53.0400012  22.4064997  46.2949988
  53.9110012  23.6444997  46.2749988  53.3150632  23.1315889  45.9042861
  42.1730012  24.5604997  47.4069988  42.7870012  25.1934997  47.7809988
  42.6850012  24.0884997  46.7509988  42.3262296  24.5832370  47.3694252
  43.5560012  32.3084997  50.5299988  43.5510012  33.1884997  50.1519988
  42.7030012  32.2254997  50.9549988  43.4399464  32.4176117  50.5357907
  39.6770012  31.9794997  41.3119988  39.4050012  32.2084997  40.4229988
  39.7230012  32.8174997  41.7719988  39.6460094  32.1241213  41.2525697
  53.3020012  33.6014997  48.0239988  52.3610012  33.6594997  48.1859988
  53.5790012  34.5074997  47.8869988  53.2104679  33.7319443  48.0276815
  53.6030012  21.8874997  49.4419988  52.8670012  22.4984997  49.4039988
  54.2860012  22.3024997  48.9149988  53.5946541  22.0271374  49.3655832
  46.6060012  19.9744997  46.9079988  46.4890012  19.0254997  46.8529988
  45.7510012  20.3064997  47.1809988  46.4743733  19.8895409  46.9373897
  51.5540012  35.3824997  44.6499988  51.9800012  34.6754997  44.1649988
  51.8710012  36.1834997  44.2329988  51.6551019  35.3940994  44.5273130
  52.7140012  33.2834997  43.1579988  52.4560012  32.5934997  42.5469988
  52.7850012  32.8404997  44.0039988  52.6882856  33.1292124  43.1886885
  54.4000012  31.8494997  51.6359988  54.5400012  31.2584997  50.8959988
  54.5670012  32.7224997  51.2789988  54.4416778  31.8866426  51.4866965
  48.8730012  28.8114997  41.4079988  48.1610012  29.3464997  41.0559988
  49.5640012  28.8674997  40.7479988  48.8690132  28.8922543  41.2706289
  48.9260012  27.2694997  38.4469988  49.6270012  27.2914997  39.0979988
  49.2290012  26.6414997  37.7909988  49.0627830  27.1876566  38.4473711
  56.2420012  28.1894997  49.7019988  55.5890012  28.8844997  49.7909988
  56.7070012  28.3994997  48.8919988  56.2155390  28.3129425  49.6046883
  52.2780012  29.0214997  42.3599988  51.5460012  29.2494997  42.9329988
  52.7260012  28.3074997  42.8149988  52.2383095  28.9562571  42.4999119
  52.1760012  27.1954997  51.4269988  52.2560012  27.9584997  51.9989988
  51.5740012  27.4744997  50.7369988  52.1055756  27.3377134  51.4120589
  43.9240012  29.6514997  44.2419988  43.5930012  29.2814997  43.4239988
  44.5120012  28.9814997  44.5889988  43.9581873  29.5101156  44.1768102
  45.2900012  33.0794997  46.9239988  45.1960012  32.5014997  46.1669988
  46.0200012  32.7084997  47.4199988  45.3757981  32.9502390  46.8874165
  44.2900012  28.4204997  47.8759988  44.8560012  28.5414997  47.1129988
  44.6090012  29.0574997  48.5149988  44.4105786  28.5231884  47.8580040
  50.5990012  33.9234997  48.6099988  50.3590012  34.5854997  49.2579988
  50.4010012  33.0894997  49.0349988  50.5393808  33.9013134  48.7561524
  45.1700012  32.8194997  52.5929988  44.8590012  33.6014997  53.0479988
  44.5200012  32.6664997  51.9069988  45.0395558  32.9059105  52.5625871
  51.1490012  28.1834997  40.0449988  51.7290012  28.3334997  40.7919988
  51.5630012  28.6544997  39.3219988  51.2842830  28.2676841  40.0494134
  42.0900012  29.0174997  51.8219988  42.1610012  29.6684997  52.5199988
  41.2000012  29.1204997  51.4869988  41.9793117  29.1205936  51.8722700
  48.8760012  34.9204997  43.4799988  49.3500012  35.2154997  44.2579988
  48.3130012  35.6584997  43.2469988  48.8647653  35.0606932  43.5550136
  43.4100012  34.8914997  53.3559988  43.4170012  34.7554997  52.4089988
  42.4940012  34.7734997  53.6079988  43.2871714  34.8569430  53.2604666
  54.8480012  19.9334997  39.8579988  53.9480012  20.0724997  40.1529988
  55.1000012  20.7644997  39.4559988  54.7588702  20.0649074  39.8440205
  42.9140012  28.7214997  41.8319988  42.6220012  29.4894997  41.3409988
  42.2400012  28.0614997  41.6689988  42.7829081  28.7374406  41.7427340
  56.0370012  34.2994997  38.2339988  56.1110012  35.2384997  38.4049988
  56.9430012  33.9944997  38.1779988  56.1695100  34.3866722  38.2498119
  39.0070012  31.0844997  50.6469988  38.5060012  31.0564997  49.8319988
  39.0120012  30.1784997  50.9559988  38.9391526  30.9582278  50.5772872
  38.7570012  33.8644997  47.5309988  39.7030012  33.7204997  47.5119988
  38.6450012  34.6484997  48.0679988  38.8712727  33.9508046  47.6010072
  56.9550012  34.5304997  53.2129988  56.9060012  33.5754997  53.1759988
  56.1280012  34.7984997  53.6139988  56.8364940  34.4358998  53.2621375
  47.9340012  34.1044997  52.0889988  48.0210012  34.9304997  52.5639988
  47.0700012  33.7744997  52.3379988  47.8291964  34.1729878  52.1876549
  48.3480012  37.8764997  41.8949988  48.2730012  37.7554997  40.9489988
  48.3810012  38.8264997  42.0139988  48.3421848  37.9882500  41.7814834
  42.0010012  36.6654997  43.6759988  42.1540012  36.3174997  44.5549988
  41.1510012  36.3094997  43.4209988  41.9068962  36.5696650  43.7618340
  51.4500012  37.0304997  38.8969988  51.8250012  36.2864997  38.4269988
  51.4540012  36.7604997  39.8159988  51.5018915  36.8921486  38.9567824
  51.1190012  36.9564997  41.6469988  50.1830012  37.0564997  41.8249988
  51.3990012  36.2474997  42.2249988  51.0288255  36.8742711  41.7495391
  54.1070012  26.0234997  53.6929988  53.7000012  26.5044997  52.9719988
  54.1480012  25.1184997  53.3849988  54.0568437  25.9669374  53.5526683
  41.2560012  32.4074997  51.6899988  41.4720012  32.0464997  52.5489988
  40.4010012  32.0334997  51.4799988  41.1699292  32.3074111  51.7793386
  43.8750012  20.8774997  47.6849988  43.0130012  20.7904997  47.2779988
  43.8520012  21.7334997  48.1129988  43.7540330  20.9812765  47.6871863
  48.5380012  20.5994997  51.0599988  48.9580012  20.1844997  51.8129988
  47.6050012  20.4214997  51.1769988  48.4693644  20.5185900  51.1789539
  51.8640012  24.3554997  51.9129988  51.3500012  24.2294997  52.7109988
  51.7090012  25.2674997  51.6689988  51.7726852  24.4616132  51.9892158
  52.6270012  29.2164997  37.6749988  52.6690012  28.9934997  36.7449988
  53.4760012  29.6154997  37.8649988  52.7475396  29.2399155  37.5733627
  48.1990012  23.0924997  38.3449988  47.9460012  23.1114997  39.2679988
  47.9430012  22.2204997  38.0439988  48.1297790  22.9772437  38.4306263
  43.9660012  25.8434997  48.7799988  43.3240012  25.8024997  49.4889988
  44.0030012  26.7694997  48.5429988  43.8831324  25.9631559  48.8449824
  43.9630012  26.0644997  43.6919988  43.0700012  25.7234997  43.6339988
  44.4130012  25.6874997  42.9369988  43.9017305  25.9668484  43.5819177
  49.4980012  26.4804997  42.5089988  49.0890012  27.2954997  42.2179988
  50.2190012  26.3404997  41.8949988  49.5394537  26.5732018  42.3861342
  48.6000012  26.6554997  53.9969988  48.0380012  25.9514997  54.3179988
  49.4270012  26.5354997  54.4649988  48.6347095  26.5427883  54.1042330
  50.5030012  25.9264997  45.3229988  50.3080012  26.5314997  44.6079988
  50.6840012  25.0924997  44.8889988  50.5007614  25.8966300  45.1664405
  41.7160012  26.1634997  50.6469988  41.6780012  26.5634997  51.5159988
  41.2250012  25.3464997  50.7379988  41.6444684  26.1078069  50.7781059
  45.0820012  23.5374997  37.4459988  44.6510012  23.0924997  38.1759988
  44.3640012  23.9094997  36.9339988  44.9259438  23.5268940  37.4766799
  38.3240012  23.2794997  44.4979988  38.9550012  23.2504997  45.2169988
  38.7730012  22.8544997  43.7679988  38.4710774  23.2180492  44.4976553
  39.5980012  24.0254997  39.9219988  40.0720012  24.6164997  39.3369988
  38.8810012  24.5564997  40.2689988  39.5659341  24.1780867  39.8888836
  49.7670012  27.5644997  49.9949988  50.0900012  26.9334997  49.3519988
  49.3270012  27.0294997  50.6549988  49.7516895  27.4058441  49.9962850
  46.5440012  23.4914997  44.7789988  45.6330012  23.5484997  45.0669988
  47.0500012  23.4314997  45.5889988  46.4875413  23.4911985  44.9280622
  41.3730012  25.1204997  43.6049988  40.4830012  25.2204997  43.2649988
  41.6690012  24.2784997  43.2589988  41.2912823  25.0203545  43.5117213
  45.0260012  25.1204997  41.2619988  45.9570012  25.2494997  41.4399988
  44.8110012  25.7904997  40.6119988  45.1244247  25.2286565  41.1985747
  50.9490012  22.7264997  48.0429988  50.2730012  22.8574997  48.7069988
  50.4640012  22.5714997  47.2329988  50.7907145  22.7234905  48.0244517
  43.7000012  26.3154997  38.8289988  43.1570012  25.9354997  38.1369988
  44.5330012  26.5094997  38.3999988  43.7384399  26.2898124  38.6764526
  54.2370012  38.3984997  54.3199988  54.4370012  38.8224997  53.4849988
  54.8920012  38.7414997  54.9269988  54.3530051  38.5029648  54.2877836
  41.8350012  30.8724997  53.9279988  42.5670012  31.1264997  54.4889988
  41.0550012  31.0764997  54.4429988  41.8298232  30.9349177  54.0745760
  47.8640012  26.2794997  46.6659988  48.4290012  25.7324997  46.1189988
  47.7170012  25.7574997  47.4539988  47.9212918  26.1342024  46.6978454
  42.8660012  22.4154997  43.0839988  42.5490012  21.5134997  43.0489988
  43.6480012  22.4174997  42.5309988  42.9282284  22.2921628  43.0044783
  46.4910012  24.6674997  49.0799988  45.6550012  25.1214997  49.1899988
  47.0150012  24.9434997  49.8319988  46.4474414  24.7669376  49.1967136
  47.0350012  30.8804997  40.7639988  46.2900012  30.3734997  40.4419988
  46.9010012  30.9294997  41.7109988  46.9148776  30.8176940  40.8478647
  54.1850012  30.0134997  49.5509988  54.8270012  30.4704997  49.0069988
  53.3550012  30.1264997  49.0879988  54.1605963  30.0912704  49.4140177
  50.9330012  23.6944997  38.9639988  49.9940012  23.8064997  38.8119988
  51.2300012  24.5514997  39.2699988  50.8447666  23.8256443  38.9845768
  48.5540012  31.0644997  52.0009988  48.2090012  30.6834997  52.8079988
  48.3540012  31.9984997  52.0729988  48.4798061  31.1385228  52.1210961
  51.6510012  25.5614997  40.6239988  52.5430012  25.4244997  40.9429988
  51.7080012  26.3524997  40.0879988  51.7806285  25.6496660  40.5951691
  42.1600012  30.1754997  46.5339988  42.9050012  30.1734997  45.9329988
  42.2380012  29.3524997  47.0159988  42.2725518  30.0639315  46.5168929
  49.1610012  32.3394997  39.7899988  48.8650012  33.1654997  40.1709988
  48.4580012  31.7194997  39.9859988  49.0254914  32.3688199  39.8686443
  39.1680012  28.6364997  51.8489988  39.3910012  28.2184997  52.6809988
  38.5660012  28.0234997  51.4259988  39.1171759  28.4964668  51.9057022
  46.1840012  28.1534997  54.0619988  45.8880012  27.9874997  53.1669988
  47.1160012  27.9334997  54.0509988  46.2694166  28.1010640  53.9380536
  50.8050012  33.5264997  51.9519988  49.9040012  33.7094997  51.6839988
  50.8390012  33.7854997  52.8729988  50.6863041  33.5865512  52.0398197
  56.5360012  25.7714997  40.3189988  55.9820012  25.3754997  39.6469988
  56.6360012  26.6814997  40.0409988  56.4737059  25.8403586  40.1894401
  56.4990012  31.5714997  53.1559988  55.6480012  31.8094997  52.7889988
  57.0900012  31.5544997  52.4029988  56.4622487  31.6018258  53.0038893
  54.8310012  34.5574997  40.7839988  54.4580012  33.7314997  41.0929988
  55.1090012  34.3744997  39.8869988  54.8175630  34.4197303  40.7049626
  51.9920012  29.3654997  47.8049988  51.0630012  29.1334997  47.7779988
  52.4430012  28.5884997  47.4749988  51.9259216  29.2287238  47.7566917
  44.5350012  33.6934997  43.9379988  45.0620012  34.4664997  43.7379988
  43.6550012  33.9184997  43.6369988  44.4881773  33.8298005  43.8699010
  40.2900012  28.5554997  38.5249988  40.9060012  29.1824997  38.9049988
  39.4280012  28.8714997  38.7969988  40.2577698  28.6839430  38.6137183
  45.9620012  31.3564997  43.5149988  45.7210012  32.2814997  43.5559988
  45.2210012  30.8974997  43.9109988  45.8288409  31.4211421  43.5741377
  46.4770012  35.5054997  49.8299988  46.8390012  36.3604997  49.5959988
  47.0080012  35.2134997  50.5699988  46.5984473  35.5831060  49.8980855
  44.6450012  36.3784997  43.0599988  43.6950012  36.4834997  43.1109988
  44.9970012  37.1984997  43.4049988  44.5624203  36.5038314  43.1136650
  50.0210012  31.6044997  49.5299988  49.5950012  31.3774997  50.3569988
  50.6010012  30.8664997  49.3479988  50.0411868  31.4735299  49.6185830
  52.2240012  32.5334997  38.6039988  52.5770012  32.1534997  39.4089988
  51.2750012  32.4404997  38.6909988  52.1440441  32.4689596  38.7258559
  52.6790012  36.1564997  51.9999988  52.0780012  35.6014997  51.5039988
  52.9610012  36.8234997  51.3739988  52.6348519  36.1706841  51.8474952
  56.7270012  37.0134997  38.8049988  57.4710012  37.5994997  38.6649988
  56.0330012  37.5814997  39.1389988  56.7350292  37.1705582  38.8309961
  40.8020012  23.3894997  51.4069988  39.9090012  23.7284997  51.3389988
  40.7030012  22.5344997  51.8249988  40.6664164  23.3202588  51.4542235
  53.0900012  31.2064997  40.8309988  52.8120012  30.4784997  41.3869988
  54.0170012  31.3254997  41.0359988  53.1773124  31.1228802  40.9348845
  40.4530012  35.1944997  49.8419988  40.6700012  34.2624997  49.8109988
  40.6990012  35.4684997  50.7249988  40.5159549  35.1040636  49.9571763
  46.3150012  33.6454997  37.0509988  46.5540012  32.8974997  36.5039988
  46.0460012  33.2574997  37.8839988  46.3113675  33.4906638  37.0886865
  45.2520012  33.2154997  39.5079988  45.3980012  32.6954997  40.2979988
  45.2490012  34.1224997  39.8139988  45.2715989  33.2668853  39.6576088
  41.7050012  30.4684997  40.0179988  41.0190012  30.8204997  40.5849988
  42.2270012  31.2314997  39.7709988  41.6816852  30.6198578  40.0622118
  49.5360012  23.1304997  50.2969988  50.2350012  23.2044997  50.9469988
  49.1550012  22.2664997  50.4509988  49.5801767  23.0237624  50.4068322
  50.3210012  22.7824997  41.3939988  50.5410012  23.2544997  40.5909988
  50.8790012  23.1774997  42.0639988  50.4264968  22.9004285  41.3747331
  47.9890012  34.9134997  40.2569988  47.1730012  35.4104997  40.3089988
  48.5190012  35.3884997  39.6169988  47.9489161  35.0457722  40.1775956
  47.5210012  24.5104997  42.2289988  48.3330012  25.0154997  42.2749988
  47.2760012  24.3654997  43.1429988  47.5990520  24.5600375  42.3588517
  48.0560012  25.4964997  51.4139988  48.1750012  26.0704997  52.1709988
  48.7120012  24.8084997  51.5279988  48.1609757  25.4821079  51.5330825
  48.4040012  21.5914997  43.1669988  48.0580012  22.2094997  43.8119988
  49.0630012  22.0924997  42.6859988  48.4457826  21.7435802  43.1900971
  45.3280012  35.9574997  40.2389988  45.4880012  36.7564997  39.7379988
  45.1300012  36.2634997  41.1239988  45.3231649  36.1084469  40.2899815
  44.0620012  22.6544997  39.8539988  43.9790012  23.5434997  40.2009988
  44.9520012  22.3894997  40.0859988  44.1709469  22.7401430  39.9327626
  54.2610012  23.4034997  52.2489988  53.3440012  23.6664997  52.1609988
  54.5960012  23.4004997  51.3519988  54.1809900  23.4390224  52.1157919
  52.8630012  27.1544997  46.3439988  52.0650012  26.7394997  46.0159988
  53.3080012  26.4634997  46.8349988  52.8139885  27.0043543  46.3654889
  42.3210012  33.0824997  38.9149988  42.9130012  33.7814997  39.1909988
  42.7800012  32.6494997  38.1949988  42.4641142  33.1197049  38.8554830
  40.6370012  25.7464997  38.0309988  40.5920012  26.6854997  38.2089988
  39.7490012  25.5104997  37.7609988  40.5108574  25.8431892  38.0188912
  53.9490012  36.4104997  47.9669988  53.7940012  37.0884997  47.3099988
  54.8820012  36.4824997  48.1699988  54.0538500  36.5130170  47.9045119
  41.4450012  20.5284997  46.7039988  41.2160012  20.5874997  45.7759988
  41.0020012  19.7364997  47.0099988  41.3538530  20.4295753  46.6184786
  40.3750012  34.4684997  42.8639988  39.5430012  34.9414997  42.8919988
  40.9210012  34.9784997  42.2659988  40.3349739  34.6021871  42.7869716
  39.6630012  37.0814997  54.1939988  40.2040012  36.8644997  54.9539988
  39.1820012  36.2754997  54.0049988  39.6719345  36.9429514  54.2723076
  44.2610012  36.0004997  55.8149988  45.0280012  35.5414997  56.1559988
  44.2390012  35.7744997  54.8849988  44.3631434  35.9070409  55.7360043
  48.3530012  35.5084997  37.1899988  47.7090012  34.8774997  37.5109988
  49.1150012  34.9774997  36.9579988  48.3678077  35.3502920  37.2026011
  50.8380012  34.3804997  54.5439988  50.4870012  33.5244997  54.7869988
  51.5640012  34.5234997  55.1509988  50.8880769  34.2825636  54.6593619
  52.9570012  35.3254997  37.4239988  53.2400012  34.5314997  37.8759988
  53.6970012  35.5584997  36.8629988  53.0957486  35.2482803  37.4100698
  39.5700012  30.8914997  55.1489988  39.7140012  29.9894997  54.8619988
  38.7980012  31.1774997  54.6609988  39.4853322  30.8068261  55.0437881
  43.9120012  31.2354997  37.2809988  43.9760012  30.4414997  37.8119988
  44.5650012  31.1164997  36.5909988  44.0090241  31.1107148  37.2604317
  46.2260012  30.8614997  54.5809988  45.8970012  31.1324997  53.7239988
  46.3780012  29.9204997  54.4939988  46.2014809  30.7713862  54.4518244
  49.2640012  32.2824997  37.0169988  48.9950012  32.4624997  37.9179988
  49.0580012  31.3564997  36.8859988  49.1993825  32.1820152  37.1225214
  51.9600012  30.7774997  51.9649988  52.7060012  31.3654997  51.8449988
  51.2030012  31.3594997  52.0279988  51.9597554  30.9367011  51.9570907
  40.4030012  28.0914997  54.5689988  40.8110012  27.2344997  54.4479988
  40.1430012  28.1064997  55.4899988  40.4237568  27.9760807  54.6769588
  45.0610012  29.2074997  39.5869988  44.6010012  28.7234997  40.2729988
  45.3160012  28.5394997  38.9509988  45.0324902  29.0508731  39.5949334
  44.3500012  27.1004997  51.9429988  43.7320012  27.7754997  52.2229988
  44.6940012  27.4214997  51.1099988  44.3119615  27.2362721  51.8686581
  46.1320012  27.4504997  37.8489988  45.9520012  27.2964997  36.9219988
  47.0820012  27.5584997  37.8939988  46.2357776  27.4440175  37.7281843
  49.3700012  29.5724997  55.2199988  50.3230012  29.6554997  55.1929988
  49.2090012  28.8604997  55.8399988  49.4786426  29.4876746  55.3000579
  55.5220012  29.8054997  37.2949988  55.2480012  29.3804997  36.4819988
  55.5610012  30.7364997  37.0779988  55.4897699  29.8732484  37.1543610
  44.6890012  24.4554997  53.0249988  44.8390012  23.7264997  52.4229988
  44.6920012  25.2324997  52.4659988  44.7099302  24.4607851  52.8670692
  45.1020012  22.8254997  50.5179988  45.6380012  23.2764997  49.8659988
  44.2500012  22.7174997  50.0949988  45.0602178  22.8726390  50.3715756
  46.6840012  28.2644997  50.7569988  47.4340012  28.1084997  50.1839988
  46.3450012  29.1164997  50.4819988  46.7408921  28.3582968  50.6413561
  51.0990012  26.0794997  55.7859988  51.2920012  25.1484997  55.6739988
  51.9570012  26.5044997  55.7759988  51.2413020  26.0096389  55.7693361
  52.4160012  28.8684997  53.8629988  52.1350012  29.5774997  53.2859988
  53.3590012  28.7954997  53.7119988  52.5049027  28.9557646  53.7635551
  43.1680012  25.6534997  54.9369988  42.4010012  25.1214997  54.7269988
  43.8470012  25.3434997  54.3369988  43.1547022  25.5387506  54.8271648
  45.9080012  20.2814997  50.9489988  45.8090012  21.2284997  50.8439988
  45.1650012  19.9094997  50.4739988  45.7940563  20.3605902  50.8704560
  47.1720012  24.6034997  54.5129988  46.9360012  24.3834997  55.4149988
  46.3880012  24.3964997  54.0029988  47.0338628  24.5454760  54.5673932
  49.8870012  23.7304997  53.5889988  48.9400012  23.7624997  53.7209988
  50.2000012  23.1054997  54.2419988  49.7995475  23.6503207  53.6954455
  51.5210012  22.3644997  55.5939988  51.4250012  21.4124997  55.5879988
  51.2000012  22.6334997  56.4539988  51.4644070  22.2704035  55.7095441
  41.3480012  23.5744997  54.6409988  41.5600012  22.8674997  54.0309988
  41.2370012  23.1364997  55.4849988  41.3619721  23.4187084  54.6716843
  46.1290012  19.5754997  53.6209988  46.8410012  18.9354997  53.6069988
  46.0280012  19.8424997  52.7069988  46.2127939  19.5239938  53.4955650
  46.4830012  21.2584997  55.6739988  46.3510012  20.7824997  54.8539988
  45.8840012  22.0024997  55.6189988  46.3839071  21.2939618  55.5542886
  46.0290012  38.1414997  38.8509988  46.9620012  38.2994997  38.9939988
  45.7650012  38.8164997  38.2259988  46.1209510  38.2543611  38.7860741
  39.5980012  32.7774997  38.3329988  40.5120012  32.8564997  38.6069988
  39.6050012  32.0904997  37.6669988  39.7241131  32.6953961  38.2804393
  38.2470012  38.1704997  43.4109988  37.6000012  37.7084997  42.8779988
  38.6010012  37.4984997  43.9929988  38.2063849  38.0164723  43.4167959
  39.1170012  36.2514997  45.2149988  38.7820012  35.3714997  45.3869988
  39.3390012  36.5964997  46.0799988  39.1011783  36.1777500  45.3554208
  56.6650012  37.0604997  48.1959988  56.6440012  37.2454997  49.1349988
  57.3560012  37.6294997  47.8549988  56.7554618  37.1626606  48.2783864
  56.2290012  36.6284997  51.1179988  55.7410012  35.8924997  50.7469988
  56.7780012  36.2344997  51.7959988  56.2364872  36.4746249  51.1589160
  54.6790012  32.4174997  55.7559988  53.8130012  32.3124997  56.1499988
  55.0560012  33.1764997  56.2019988  54.6113308  32.5056900  55.8702393
  55.9800012  30.6744997  41.2699988  56.8300012  31.0954997  41.3969988
  55.9860012  29.9344997  41.8769988  56.0971372  30.6320803  41.3694344
  56.3750012  28.7274997  43.0939988  55.6480012  28.2484997  43.4909988
  56.9560012  28.9334997  43.8259988  56.3539375  28.6897090  43.2474129
  56.1340012  31.5124997  48.0409988  56.9670012  31.1344997  47.7609988
  56.2460012  32.4554997  47.9219988  56.2632647  31.5882218  47.9865487
  54.6200012  34.3904997  50.3479988  53.9730012  34.7154997  50.9739988
  54.1030012  33.9504997  49.6739988  54.4614029  34.3755004  50.3425827
  56.6430012  28.6284997  39.4849988  56.1210012  28.9854997  38.7659988
  56.6100012  29.3034997  40.1629988  56.5671634  28.7685413  39.4783145
  54.9920012  25.8684997  38.0359988  55.0880012  26.5354997  37.3549988
  54.8520012  25.0524997  37.5539988  54.9862135  25.8494500  37.8778491
  54.1610012  27.2484997  43.6569988  54.0110012  26.3034997  43.6359988
  53.8080012  27.5294997  44.4999988  54.0926625  27.1570441  43.7682346
  39.1970012  29.3264997  47.6669988  39.3810012  29.2444997  46.7309988
  40.0460012  29.2024997  48.0909988  39.3370139  29.2985003  47.5961455
  55.0180012  29.2184997  53.2949988  55.6010012  28.4844997  53.4869988
  55.5820012  29.9904997  53.3419988  55.1739769  29.2224227  53.3276159
  56.5140012  27.1214997  53.9799988  55.6510012  26.7424997  53.8139988
  57.1190012  26.3824997  53.9059988  56.4775979  26.9698023  53.9472817
  54.2390012  23.2764997  37.1529988  54.8500012  22.9054997  37.7899988
  53.4030012  22.8554997  37.3489988  54.2095032  23.1687554  37.2667035
  53.8720012  24.8314997  42.1189988  54.1520012  23.9244997  42.2429988
  54.6310012  25.2654997  41.7299988  54.0129277  24.7660942  42.0833682
  54.4840012  25.4124997  47.5549988  55.4170012  25.6244997  47.5209988
  54.2490012  25.5144997  48.4769988  54.5798036  25.4552769  47.6749976
  54.5130012  26.1494997  50.3309988  53.6700012  26.4174997  50.6969988
  54.9550012  26.9714997  50.1199988  54.4574158  26.2973291  50.3525491
  38.7940012  24.5974997  53.8079988  39.7140012  24.4754997  54.0439988
  38.3450012  23.8474997  54.1969988  38.8591580  24.4793727  53.8929006
  56.7960012  20.1294997  55.6839988  57.1460012  19.4754997  55.0789988
  56.9430012  20.9664997  55.2449988  56.8638419  20.1531591  55.5417118
  54.4850012  22.0944997  42.1669988  54.6680012  21.6454997  42.9929988
  53.8860012  21.5094997  41.7039988  54.4290202  21.9539975  42.2173275
  40.0150012  22.9094997  46.6989988  40.4610012  22.1174997  47.0009988
  40.4820012  23.6254997  47.1299988  40.1390172  22.8980624  46.7984820
  38.3190012  25.9084997  47.7679988  38.8110012  25.6874997  46.9769988
  38.6820012  26.7494997  48.0489988  38.4353126  25.9918357  47.6977531
  56.3160012  22.2384997  54.0339988  55.3980012  22.5094997  53.9979988
  56.4390012  21.7034997  53.2489988  56.2071066  22.2032892  53.9230487
  56.3520012  22.1614997  38.6949988  56.7640012  21.4404997  38.2199988
  57.0340012  22.8314997  38.7539988  56.5005885  22.1532368  38.6378915
  38.6330012  22.1664997  41.8219988  37.7080012  22.3754997  41.6929988
  39.0870012  22.6504997  41.1329988  38.5677368  22.2605993  41.7111226
  53.4040012  37.1504997  43.7679988  54.0560012  36.8034997  43.1599988
  53.9140012  37.6394997  44.4139988  53.5622637  37.1690597  43.7720236
  38.5970012  20.9044997  50.1669988  37.9320012  20.6584997  50.8099988
  38.1540012  21.5264997  49.5889988  38.4460956  20.9548632  50.1769352
  40.7890012  34.0794997  54.3109988  39.9680012  34.2544997  53.8509988
  40.5360012  34.0064997  55.2319988  40.6426164  34.0935622  54.3724923
  43.7430012  35.0544997  50.5699988  43.3180012  35.8634997  50.2869988
  44.6470012  35.1394997  50.2679988  43.8070271  35.1768469  50.4903776
  48.0540012  36.4534997  53.5289988  48.2390012  36.1194997  54.4069988
  48.9000012  36.7624997  53.2069988  48.1937539  36.4496047  53.6055605
  50.3990012  37.7394997  52.7729988  51.0760012  37.1064997  52.5329988
  50.7210012  38.1404997  53.5799988  50.5351637  37.7071154  52.8492793
  55.3160012  20.3284997  51.8529988  54.5040012  20.6534997  51.4649988
  55.5490012  19.5684997  51.3199988  55.2363423  20.2702436  51.7278253
  41.1450012  38.3104997  50.6169988  40.4240012  38.7504997  50.1659988
  40.7790012  38.0594997  51.4659988  40.9969804  38.3367698  50.6699840
  43.6120012  37.9104997  49.6469988  42.7470012  37.9824997  50.0509988
  43.5570012  38.4574997  48.8629988  43.4862085  37.9942685  49.5963362
  48.3220012  37.7984997  48.8219988  47.8660012  38.3274997  48.1679988
  48.4850012  38.4014997  49.5479988  48.2815585  37.9524468  48.8305062
  50.6500012  36.6764997  49.7669988  49.7450012  36.8414997  49.5019988
  51.0790012  37.5294997  49.7019988  50.5840799  36.8144483  49.7219182
  53.2540012  38.2464997  50.0619988  53.0720012  39.1624997  49.8519988
  53.4310012  37.8364997  49.2159988  53.2530210  38.3164822  49.9187885
  40.5590012  36.9334997  47.5269988  40.5410012  36.5084997  48.3849988
  41.3640012  36.6154997  47.1189988  40.6653875  36.8323812  47.5891655
  42.7010012  35.6434997  46.1819988  42.4820012  34.7274997  46.3519988
  43.5250012  35.7834997  46.6479988  42.7824420  35.5370520  46.2682774
  45.2380012  36.1134997  47.0309988  45.4510012  35.2254997  46.7439988
  45.3020012  36.0794997  47.9849988  45.2758232  35.9873102  47.1207397
  48.7460012  21.7774997  46.1749988  48.0720012  21.1484997  46.4309988
  49.3100012  21.2934997  45.5719988  48.7299230  21.6258744  46.1285340
  53.8890012  19.8854997  46.2879988  54.4930012  20.4324997  45.7859988
  53.0190012  20.2044997  46.0479988  53.8541241  20.0035806  46.1867654
  55.6160012  21.0234997  44.6209988  56.2280012  20.5094997  44.0949988
  55.9980012  21.9014997  44.6449988  55.7514540  21.0717140  44.5521830
  41.0730012  20.4114997  43.9969988  40.2960012  20.1774997  43.4899988
  41.6030012  19.6144997  44.0059988  41.0382330  20.2716988  43.9287742
  39.9090012  20.2094997  39.8009988  40.3480012  20.8204997  39.2089988
  39.2760012  20.7474997  40.2749988  39.8834514  20.3659257  39.7840930
  45.6520012  20.3384997  43.8109988  46.5270012  20.7264997  43.7809988
  45.5160012  20.1234997  44.7329988  45.7533695  20.3625184  43.9316440
  51.2090012  20.3684997  45.4599988  51.2850012  20.4634997  44.5099988
  50.9340012  19.4604997  45.5889988  51.1822321  20.2587867  45.3475079
  52.5620012  20.3944997  41.1519988  51.8600012  21.0094997  40.9429988
  52.1180012  19.5564997  41.2829988  52.4056330  20.3655783  41.1410328
  39.8100012  36.1574997  40.6989988  39.1250012  36.1194997  40.0309988
  39.8140012  37.0704997  40.9869988  39.7168193  36.2757016  40.6465284
  41.7700012  22.1254997  38.2429988  42.2620012  21.4954997  37.7159988
  42.3940012  22.4214997  38.9069988  41.9215446  22.0793199  38.2605980
  46.7960012  22.4184997  40.6999988  46.9740012  21.7724997  41.3829988
  46.7430012  23.2524997  41.1679988  46.8131829  22.4427985  40.8565940
  48.6750012  37.3674997  39.0959988  49.5410012  37.7334997  38.9179988
  48.4280012  36.9274997  38.2819988  48.7602392  37.3581756  38.9616289
  55.3840012  36.9304997  41.7749988  55.1890012  36.1824997  41.2099988
  55.3450012  37.6884997  41.1919988  55.3520380  36.9306099  41.6188384
  41.0310012  20.9254997  53.5149988  40.6650012  20.1604997  53.9579988
  41.9440012  20.9544997  53.8019988  41.1042790  20.8247224  53.6144070
  43.0040012  20.2764997  55.0509988  43.9020012  20.0024997  54.8659988
  42.6170012  19.5334997  55.5149988  43.0746612  20.1385914  55.0883643
  41.6280012  37.0774997  37.7239988  41.3610012  37.3644997  38.5969988
  42.4000012  36.5314997  37.8759988  41.6957488  37.0430294  37.8641050
  51.4250012  19.6084997  55.2329988  51.5020012  19.1824997  56.0869988
  52.3190012  19.6224997  54.8899988  51.5563428  19.5520879  55.3035310
  54.6010012  35.6814997  53.9249988  53.8190012  35.4954997  53.4059988
  54.5290012  36.6104997  54.1429988  54.4841777  35.7816492  53.8834048
  69.0070012  29.5674997  43.9559988  69.0960012  30.5114997  43.8239988
  68.3690012  29.2924997  43.2979988  68.9329081  29.6594830  43.8489614
  67.9400012  28.8224997  47.3749988  67.9020012  28.1764997  48.0799988
  67.6180012  28.3564997  46.6039988  67.8912333  28.6709408  47.3672978
  60.3090012  28.4374997  48.9679988  60.3500012  27.8114997  49.6909988
  61.0120012  29.0614997  49.1499988  60.4096363  28.4361196  49.0916044
  71.6460012  31.7614997  45.6759988  71.2060012  31.0414997  46.1269988
  71.6330012  32.4824997  46.3059988  71.5840226  31.7603731  45.8228494
  61.2320012  32.8874997  47.5029988  60.8630012  32.0854997  47.1329988
  62.1730012  32.7184997  47.5489988  61.3087289  32.7550153  47.4586316
  57.8420012  26.5474997  42.8959988  57.3950012  27.3934997  42.8769988
  57.2810012  25.9674997  42.3799988  57.7049900  26.5849916  42.8236801
  58.5530012  28.7094997  45.0219988  58.7660012  27.9394997  45.5489988
  59.2910012  28.7984997  44.4179988  58.6818496  28.6161394  45.0125300
  68.7580012  36.8664997  45.8889988  69.3780012  36.1894997  45.6149988
  68.5500012  36.6484997  46.7969988  68.8146904  36.7443870  45.9743365
  66.3300012  31.2554997  47.7809988  66.6340012  30.5694997  47.1859988
  67.0510012  31.3734997  48.3989988  66.4690671  31.1776305  47.7831816
  74.9930012  22.8564997  48.6419988  75.0420012  23.4664997  49.3779988
  75.4180012  23.3174997  47.9189988  75.0571824  23.0023741  48.6450205
  69.4710012  25.6494997  48.1089988  69.6130012  24.7034997  48.1289988
  69.3640012  25.8564997  47.1799988  69.4759864  25.5479534  47.9862339
  62.6250012  23.7504997  45.3809988  62.6690012  24.6104997  44.9629988
  62.1680012  23.1984997  44.7469988  62.5692185  23.7935799  45.2380299
  70.3480012  23.8814997  43.7819988  70.9940012  23.5524997  44.4069988
  70.8580012  24.3994997  43.1589988  70.5054264  23.9064611  43.7833862
  59.2460012  26.1474997  46.1429988  59.8990012  25.5974997  46.5749988
  59.2700012  25.8734997  45.2259988  59.3386683  26.0351466  46.0782123
  64.4020012  27.6974997  45.3579988  65.0180012  27.1714997  45.8679988
  63.8160012  27.0574997  44.9549988  64.4070810  27.5389208  45.3733173
  75.3840012  24.3344997  50.8779988  74.6960012  24.9924997  50.7819988
  75.4000012  24.1374997  51.8139988  75.2918525  24.3980462  50.9914808
  61.4360012  22.6684997  49.4549988  61.2170012  23.1984997  48.6889988
  60.7680012  22.8954997  50.1019988  61.3157600  22.7716906  49.4376379
  68.8050012  32.1684997  42.9989988  68.5090012  31.8464997  42.1479988
  68.4800012  33.0684997  43.0399988  68.7206371  32.2460215  42.8881801
  64.0050012  30.3444997  49.7419988  63.2650012  30.9424997  49.8459988
  64.7190012  30.8984997  49.4269988  64.0002237  30.5012831  49.7136465
  72.1120012  23.1724997  45.7619988  71.8960012  22.4064997  46.2949988
  72.7670012  23.6444997  46.2749988  72.1710632  23.1315889  45.9042861
  61.0290012  24.5604997  47.4069988  61.6430012  25.1934997  47.7809988
  61.5410012  24.0884997  46.7509988  61.1822296  24.5832370  47.3694252
  62.4120012  32.3084997  50.5299988  62.4070012  33.1884997  50.1519988
  61.5590012  32.2254997  50.9549988  62.2959464  32.4176117  50.5357907
  58.5330012  31.9794997  41.3119988  58.2610012  32.2084997  40.4229988
  58.5790012  32.8174997  41.7719988  58.5020094  32.1241213  41.2525697
  72.1580012  33.6014997  48.0239988  71.2170012  33.6594997  48.1859988
  72.4350012  34.5074997  47.8869988  72.0664679  33.7319443  48.0276815
  72.4590012  21.8874997  49.4419988  71.7230012  22.4984997  49.4039988
  73.1420012  22.3024997  48.9149988  72.4506541  22.0271374  49.3655832
  65.4620012  19.9744997  46.9079988  65.3450012  19.0254997  46.8529988
  64.6070012  20.3064997  47.1809988  65.3303733  19.8895409  46.9373897
  70.4100012  35.3824997  44.6499988  70.8360012  34.6754997  44.1649988
  70.7270012  36.1834997  44.2329988  70.5111019  35.3940994  44.5273130
  71.5700012  33.2834997  43.1579988  71.3120012  32.5934997  42.5469988
  71.6410012  32.8404997  44.0039988  71.5442856  33.1292124  43.1886885
  73.2560012  31.8494997  51.6359988  73.3960012  31.2584997  50.8959988
  73.4230012  32.7224997  51.2789988  73.2976778  31.8866426  51.4866965
  67.7290012  28.8114997  41.4079988  67.0170012  29.3464997  41.0559988
  68.4200012  28.8674997  40.7479988  67.7250132  28.8922543  41.2706289
  67.7820012  27.2694997  38.4469988  68.4830012  27.2914997  39.0979988
  68.0850012  26.6414997  37.7909988  67.9187830  27.1876566  38.4473711
  75.0980012  28.1894997  49.7019988  74.4450012  28.8844997  49.7909988
  75.5630012  28.3994997  48.8919988  75.0715390  28.3129425  49.6046883
  71.1340012  29.0214997  42.3599988  70.4020012  29.2494997  42.9329988
  71.5820012  28.3074997  42.8149988  71.0943095  28.9562571  42.4999119
  71.0320012  27.1954997  51.4269988  71.1120012  27.9584997  51.9989988
  70.4300012  27.4744997  50.7369988  70.9615756  27.3377134  51.4120589
  62.7800012  29.6514997  44.2419988  62.4490012  29.2814997  43.4239988
  63.3680012  28.9814997  44.5889988  62.8141873  29.5101156  44.1768102
  64.1460012  33.0794997  46.9239988  64.0520012  32.5014997  46.1669988
  64.8760012  32.7084997  47.4199988  64.2317981  32.9502390  46.8874165
  63.1460012  28.4204997  47.8759988  63.7120012  28.5414997  47.1129988
  63.4650012  29.0574997  48.5149988  63.2665786  28.5231884  47.8580040
  69.4550012  33.9234997  48.6099988  69.2150012  34.5854997  49.2579988
  69.2570012  33.0894997  49.0349988  69.3953808  33.9013134  48.7561524
  64.0260012  32.8194997  52.5929988  63.7150012  33.6014997  53.0479988
  63.3760012  32.6664997  51.9069988  63.8955558  32.9059105  52.5625871
  70.0050012  28.1834997  40.0449988  70.5850012  28.3334997  40.7919988
  70.4190012  28.6544997  39.3219988  70.1402830  28.2676841  40.0494134
  60.9460012  29.0174997  51.8219988  61.0170012  29.6684997  52.5199988
  60.0560012  29.1204997  51.4869988  60.8353117  29.1205936  51.8722700
  67.7320012  34.9204997  43.4799988  68.2060012  35.2154997  44.2579988
  67.1690012  35.6584997  43.2469988  67.7207653  35.0606932  43.5550136
  62.2660012  34.8914997  53.3559988  62.2730012  34.7554997  52.4089988
  61.3500012  34.7734997  53.6079988  62.1431714  34.8569430  53.2604666
  73.7040012  19.9334997  39.8579988  72.8040012  20.0724997  40.1529988
  73.9560012  20.7644997  39.4559988  73.6148702  20.0649074  39.8440205
  61.7700012  28.7214997  41.8319988  61.4780012  29.4894997  41.3409988
  61.0960012  28.0614997  41.6689988  61.6389081  28.7374406  41.7427340
  74.8930012  34.2994997  38.2339988  74.9670012  35.2384997  38.4049988
  75.7990012  33.9944997  38.1779988  75.0255100  34.3866722  38.2498119
  57.8630012  31.0844997  50.6469988  57.3620012  31.0564997  49.8319988
  57.8680012  30.1784997  50.9559988  57.7951526  30.9582278  50.5772872
  57.6130012  33.8644997  47.5309988  58.5590012  33.7204997  47.5119988
  57.5010012  34.6484997  48.0679988  57.7272727  33.9508046  47.6010072
  75.8110012  34.5304997  53.2129988  75.7620012  33.5754997  53.1759988
  74.9840012  34.7984997  53.6139988  75.6924940  34.4358998  53.2621375
  66.7900012  34.1044997  52.0889988  66.8770012  34.9304997  52.5639988
  65.9260012  33.7744997  52.3379988  66.6851964  34.1729878  52.1876549
  67.2040012  37.8764997  41.8949988  67.1290012  37.7554997  40.9489988
  67.2370012  38.8264997  42.0139988  67.1981848  37.9882500  41.7814834
  60.8570012  36.6654997  43.6759988  61.0100012  36.3174997  44.5549988
  60.0070012  36.3094997  43.4209988  60.7628962  36.5696650  43.7618340
  70.3060012  37.0304997  38.8969988  70.6810012  36.2864997  38.4269988
  70.3100012  36.7604997  39.8159988  70.3578915  36.8921486  38.9567824
  69.9750012  36.9564997  41.6469988  69.0390012  37.0564997  41.8249988
  70.2550012  36.2474997  42.2249988  69.8848255  36.8742711  41.7495391
  72.9630012  26.0234997  53.6929988  72.5560012  26.5044997  52.9719988
  73.0040012  25.1184997  53.3849988  72.9128437  25.9669374  53.5526683
  60.1120012  32.4074997  51.6899988  60.3280012  32.0464997  52.5489988
  59.2570012  32.0334997  51.4799988  60.0259292  32.3074111  51.7793386
  62.7310012  20.8774997  47.6849988  61.8690012  20.7904997  47.2779988
  62.7080012  21.7334997  48.1129988  62.6100330  20.9812765  47.6871863
  67.3940012  20.5994997  51.0599988  67.8140012  20.1844997  51.8129988
  66.4610012  20.4214997  51.1769988  67.3253644  20.5185900  51.1789539
  70.7200012  24.3554997  51.9129988  70.2060012  24.2294997  52.7109988
  70.5650012  25.2674997  51.6689988  70.6286852  24.4616132  51.9892158
  71.4830012  29.2164997  37.6749988  71.5250012  28.9934997  36.7449988
  72.3320012  29.6154997  37.8649988  71.6035396  29.2399155  37.5733627
  67.0550012  23.0924997  38.3449988  66.8020012  23.1114997  39.2679988
  66.7990012  22.2204997  38.0439988  66.9857790  22.9772437  38.4306263
  62.8220012  25.8434997  48.7799988  62.1800012  25.8024997  49.4889988
  62.8590012  26.7694997  48.5429988  62.7391324  25.9631559  48.8449824
  62.8190012  26.0644997  43.6919988  61.9260012  25.7234997  43.6339988
  63.2690012  25.6874997  42.9369988  62.7577305  25.9668484  43.5819177
  68.3540012  26.4804997  42.5089988  67.9450012  27.2954997  42.2179988
  69.0750012  26.3404997  41.8949988  68.3954537  26.5732018  42.3861342
  67.4560012  26.6554997  53.9969988  66.8940012  25.9514997  54.3179988
  68.2830012  26.5354997  54.4649988  67.4907095  26.5427883  54.1042330
  69.3590012  25.9264997  45.3229988  69.1640012  26.5314997  44.6079988
  69.5400012  25.0924997  44.8889988  69.3567614  25.8966300  45.1664405
  60.5720012  26.1634997  50.6469988  60.5340012  26.5634997  51.5159988
  60.0810012  25.3464997  50.7379988  60.5004684  26.1078069  50.7781059
  63.9380012  23.5374997  37.4459988  63.5070012  23.0924997  38.1759988
  63.2200012  23.9094997  36.9339988  63.7819438  23.5268940  37.4766799
  57.1800012  23.2794997  44.4979988  57.8110012  23.2504997  45.2169988
  57.6290012  22.8544997  43.7679988  57.3270774  23.2180492  44.4976553
  58.4540012  24.0254997  39.9219988  58.9280012  24.6164997  39.3369988
  57.7370012  24.5564997  40.2689988  58.4219341  24.1780867  39.8888836
  68.6230012  27.5644997  49.9949988  68.9460012  26.9334997  49.3519988
  68.1830012  27.0294997  50.6549988  68.6076895  27.4058440  49.9962850
  65.4000012  23.4914997  44.7789988  64.4890012  23.5484997  45.0669988
  65.9060012  23.4314997  45.5889988  65.3435413  23.4911985  44.9280622
  60.2290012  25.1204997  43.6049988  59.3390012  25.2204997  43.2649988
  60.5250012  24.2784997  43.2589988  60.1472823  25.0203545  43.5117213
  63.8820012  25.1204997  41.2619988  64.8130012  25.2494997  41.4399988
  63.6670012  25.7904997  40.6119988  63.9804247  25.2286565  41.1985747
  69.8050012  22.7264997  48.0429988  69.1290012  22.8574997  48.7069988
  69.3200012  22.5714997  47.2329988  69.6467145  22.7234905  48.0244517
  62.5560012  26.3154997  38.8289988  62.0130012  25.9354997  38.1369988
  63.3890012  26.5094997  38.3999988  62.5944399  26.2898124  38.6764526
  73.0930012  38.3984997  54.3199988  73.2930012  38.8224997  53.4849988
  73.7480012  38.7414997  54.9269988  73.2090051  38.5029648  54.2877836
  60.6910012  30.8724997  53.9279988  61.4230012  31.1264997  54.4889988
  59.9110012  31.0764997  54.4429988  60.6858232  30.9349177  54.0745760
  66.7200012  26.2794997  46.6659988  67.2850012  25.7324997  46.1189988
  66.5730012  25.7574997  47.4539988  66.7772918  26.1342024  46.6978454
  61.7220012  22.4154997  43.0839988  61.4050012  21.5134997  43.0489988
  62.5040012  22.4174997  42.5309988  61.7842284  22.2921628  43.0044783
  65.3470012  24.6674997  49.0799988  64.5110012  25.1214997  49.1899988
  65.8710012  24.9434997  49.8319988  65.3034414  24.7669376  49.1967136
  65.8910012  30.8804997  40.7639988  65.1460012  30.3734997  40.4419988
  65.7570012  30.9294997  41.7109988  65.7708776  30.8176940  40.8478647
  73.0410012  30.0134997  49.5509988  73.6830012  30.4704997  49.0069988
  72.2110012  30.1264997  49.0879988  73.0165963  30.0912704  49.4140177
  69.7890012  23.6944997  38.9639988  68.8500012  23.8064997  38.8119988
  70.0860012  24.5514997  39.2699988  69.7007666  23.8256443  38.9845768
  67.4100012  31.0644997  52.0009988  67.0650012  30.6834997  52.8079988
  67.2100012  31.9984997  52.0729988  67.3358061  31.1385228  52.1210961
  70.5070012  25.5614997  40.6239988  71.3990012  25.4244997  40.9429988
  70.5640012  26.3524997  40.0879988  70.6366285  25.6496660  40.5951691
  61.0160012  30.1754997  46.5339988  61.7610012  30.1734997  45.9329988
  61.0940012  29.3524997  47.0159988  61.1285518  30.0639315  46.5168929
  68.0170012  32.3394997  39.7899988  67.7210012  33.1654997  40.1709988
  67.3140012  31.7194997  39.9859988  67.8814914  32.3688199  39.8686443
  58.0240012  28.6364997  51.8489988  58.2470012  28.2184997  52.6809988
  57.4220012  28.0234997  51.4259988  57.9731759  28.4964668  51.9057022
  65.0400012  28.1534997  54.0619988  64.7440012  27.9874997  53.1669988
  65.9720012  27.9334997  54.0509988  65.1254166  28.1010640  53.9380536
  69.6610012  33.5264997  51.9519988  68.7600012  33.7094997  51.6839988
  69.6950012  33.7854997  52.8729988  69.5423041  33.5865512  52.0398197
  75.3920012  25.7714997  40.3189988  74.8380012  25.3754997  39.6469988
  75.4920012  26.6814997  40.0409988  75.3297059  25.8403586  40.1894401
  75.3550012  31.5714997  53.1559988  74.5040012  31.8094997  52.7889988
  75.9460012  31.5544997  52.4029988  75.3182487  31.6018258  53.0038893
  73.6870012  34.5574997  40.7839988  73.3140012  33.7314997  41.0929988
  73.9650012  34.3744997  39.8869988  73.6735630  34.4197303  40.7049626
  70.8480012  29.3654997  47.8049988  69.9190012  29.1334997  47.7779988
  71.2990012  28.5884997  47.4749988  70.7819216  29.2287238  47.7566917
  63.3910012  33.6934997  43.9379988  63.9180012  34.4664997  43.7379988
  62.5110012  33.9184997  43.6369988  63.3441773  33.8298005  43.8699010
  59.1460012  28.5554997  38.5249988  59.7620012  29.1824997  38.9049988
  58.2840012  28.8714997  38.7969988  59.1137698  28.6839430  38.6137183
  64.8180012  31.3564997  43.5149988  64.5770012  32.2814997  43.5559988
  64.0770012  30.8974997  43.9109988  64.6848409  31.4211421  43.5741377
  65.3330012  35.5054997  49.8299988  65.6950012  36.3604997  49.5959988
  65.8640012  35.2134997  50.5699988  65.4544473  35.5831060  49.8980855
  63.5010012  36.3784997  43.0599988  62.5510012  36.4834997  43.1109988
  63.8530012  37.1984997  43.4049988  63.4184203  36.5038314  43.1136650
  68.8770012  31.6044997  49.5299988  68.4510012  31.3774997  50.3569988
  69.4570012  30.8664997  49.3479988  68.8971868  31.4735299  49.6185830
  71.0800012  32.5334997  38.6039988  71.4330012  32.1534997  39.4089988
  70.1310012  32.4404997  38.6909988  71.0000441  32.4689596  38.7258559
  71.5350012  36.1564997  51.9999988  70.9340012  35.6014997  51.5039988
  71.8170012  36.8234997  51.3739988  71.4908519  36.1706841  51.8474952
  75.5830012  37.0134997  38.8049988  76.3270012  37.5994997  38.6649988
  74.8890012  37.5814997  39.1389988  75.5910292  37.1705582  38.8309961
  59.6580012  23.3894997  51.4069988  58.7650012  23.7284997  51.3389988
  59.5590012  22.5344997  51.8249988  59.5224164  23.3202588  51.4542235
  71.9460012  31.2064997  40.8309988  71.6680012  30.4784997  41.3869988
  72.8730012  31.3254997  41.0359988  72.0333124  31.1228802  40.9348845
  59.3090012  35.1944997  49.8419988  59.5260012  34.2624997  49.8109988
  59.5550012  35.4684997  50.7249988  59.3719549  35.1040636  49.9571763
  65.1710012  33.6454997  37.0509988  65.4100012  32.8974997  36.5039988
  64.9020012  33.2574997  37.8839988  65.1673675  33.4906638  37.0886865
  64.1080012  33.2154997  39.5079988  64.2540012  32.6954997  40.2979988
  64.1050012  34.1224997  39.8139988  64.1275989  33.2668853  39.6576088
  60.5610012  30.4684997  40.0179988  59.8750012  30.8204997  40.5849988
  61.0830012  31.2314997  39.7709988  60.5376852  30.6198578  40.0622118
  68.3920012  23.1304997  50.2969988  69.0910012  23.2044997  50.9469988
  68.0110012  22.2664997  50.4509988  68.4361767  23.0237624  50.4068322
  69.1770012  22.7824997  41.3939988  69.3970012  23.2544997  40.5909988
  69.7350012  23.1774997  42.0639988  69.2824968  22.9004285  41.3747331
  66.8450012  34.9134997  40.2569988  66.0290012  35.4104997  40.3089988
  67.3750012  35.3884997  39.6169988  66.8049161  35.0457722  40.1775956
  66.3770012  24.5104997  42.2289988  67.1890012  25.0154997  42.2749988
  66.1320012  24.3654997  43.1429988  66.4550520  24.5600375  42.3588517
  66.9120012  25.4964997  51.4139988  67.0310012  26.0704997  52.1709988
  67.5680012  24.8084997  51.5279988  67.0169757  25.4821079  51.5330825
  67.2600012  21.5914997  43.1669988  66.9140012  22.2094997  43.8119988
  67.9190012  22.0924997  42.6859988  67.3017826  21.7435802  43.1900971
  64.1840012  35.9574997  40.2389988  64.3440012  36.7564997  39.7379988
  63.9860012  36.2634997  41.1239988  64.1791649  36.1084469  40.2899815
  62.9180012  22.6544997  39.8539988  62.8350012  23.5434997  40.2009988
  63.8080012  22.3894997  40.0859988  63.0269469  22.7401430  39.9327626
  73.1170012  23.4034997  52.2489988  72.2000012  23.6664997  52.1609988
  73.4520012  23.4004997  51.3519988  73.0369900  23.4390224  52.1157919
  71.7190012  27.1544997  46.3439988  70.9210012  26.7394997  46.0159988
  72.1640012  26.4634997  46.8349988  71.6699885  27.0043543  46.3654889
  61.1770012  33.0824997  38.9149988  61.7690012  33.7814997  39.1909988
  61.6360012  32.6494997  38.1949988  61.3201142  33.1197049  38.8554830
  59.4930012  25.7464997  38.0309988  59.4480012  26.6854997  38.2089988
  58.6050012  25.5104997  37.7609988  59.3668574  25.8431892  38.0188912
  72.8050012  36.4104997  47.9669988  72.6500012  37.0884997  47.3099988
  73.7380012  36.4824997  48.1699988  72.9098500  36.5130170  47.9045119
  60.3010012  20.5284997  46.7039988  60.0720012  20.5874997  45.7759988
  59.8580012  19.7364997  47.0099988  60.2098530  20.4295753  46.6184786
  59.2310012  34.4684997  42.8639988  58.3990012  34.9414997  42.8919988
  59.7770012  34.9784997  42.2659988  59.1909739  34.6021871  42.7869716
  58.5190012  37.0814997  54.1939988  59.0600012  36.8644997  54.9539988
  58.0380012  36.2754997  54.0049988  58.5279345  36.9429514  54.2723076
  63.1170012  36.0004997  55.8149988  63.8840012  35.5414997  56.1559988
  63.0950012  35.7744997  54.8849988  63.2191434  35.9070409  55.7360043
  67.2090012  35.5084997  37.1899988  66.5650012  34.8774997  37.5109988
  67.9710012  34.9774997  36.9579988  67.2238077  35.3502920  37.2026011
  69.6940012  34.3804997  54.5439988  69.3430012  33.5244997  54.7869988
  70.4200012  34.5234997  55.1509988  69.7440769  34.2825636  54.6593619
  71.8130012  35.3254997  37.4239988  72.0960012  34.5314997  37.8759988
  72.5530012  35.5584997  36.8629988  71.9517486  35.2482803  37.4100698
  58.4260012  30.8914997  55.1489988  58.5700012  29.9894997  54.8619988
  57.6540012  31.1774997  54.6609988  58.3413322  30.8068261  55.0437881
  62.7680012  31.2354997  37.2809988  62.8320012  30.4414997  37.8119988
  63.4210012  31.1164997  36.5909988  62.8650241  31.1107148  37.2604317
  65.0820012  30.8614997  54.5809988  64.7530012  31.1324997  53.7239988
  65.2340012  29.9204997  54.4939988  65.0574809  30.7713862  54.4518244
  68.1200012  32.2824997  37.0169988  67.8510012  32.4624997  37.9179988
  67.9140012  31.3564997  36.8859988  68.0553825  32.1820152  37.1225214
  70.8160012  30.7774997  51.9649988  71.5620012  31.3654997  51.8449988
  70.0590012  31.3594997  52.0279988  70.8157554  30.9367011  51.9570907
  59.2590012  28.0914997  54.5689988  59.6670012  27.2344997  54.4479988
  58.9990012  28.1064997  55.4899988  59.2797568  27.9760807  54.6769588
  63.9170012  29.2074997  39.5869988  63.4570012  28.7234997  40.2729988
  64.1720012  28.5394997  38.9509988  63.8884902  29.0508731  39.5949334
  63.2060012  27.1004997  51.9429988  62.5880012  27.7754997  52.2229988
  63.5500012  27.4214997  51.1099988  63.1679615  27.2362721  51.8686581
  64.9880012  27.4504997  37.8489988  64.8080012  27.2964997  36.9219988
  65.9380012  27.5584997  37.8939988  65.0917776  27.4440175  37.7281843
  68.2260012  29.5724997  55.2199988  69.1790012  29.6554997  55.1929988
  68.0650012  28.8604997  55.8399988  68.3346426  29.4876746  55.3000579
  74.3780012  29.8054997  37.2949988  74.1040012  29.3804997  36.4819988
  74.4170012  30.7364997  37.0779988  74.3457699  29.8732484  37.1543610
  63.5450012  24.4554997  53.0249988  63.6950012  23.7264997  52.4229988
  63.5480012  25.2324997  52.4659988  63.5659302  24.4607851  52.8670692
  63.9580012  22.8254997  50.5179988  64.4940012  23.2764997  49.8659988
  63.1060012  22.7174997  50.0949988  63.9162178  22.8726390  50.3715756
  65.5400012  28.2644997  50.7569988  66.2900012  28.1084997  50.1839988
  65.2010012  29.1164997  50.4819988  65.5968921  28.3582968  50.6413561
  69.9550012  26.0794997  55.7859988  70.1480012  25.1484997  55.6739988
  70.8130012  26.5044997  55.7759988  70.0973020  26.0096389  55.7693361
  71.2720012  28.8684997  53.8629988  70.9910012  29.5774997  53.2859988
  72.2150012  28.7954997  53.7119988  71.3609027  28.9557646  53.7635551
  62.0240012  25.6534997  54.9369988  61.2570012  25.1214997  54.7269988
  62.7030012  25.3434997  54.3369988  62.0107022  25.5387506  54.8271648
  64.7640012  20.2814997  50.9489988  64.6650012  21.2284997  50.8439988
  64.0210012  19.9094997  50.4739988  64.6500563  20.3605902  50.8704560
  66.0280012  24.6034997  54.5129988  65.7920012  24.3834997  55.4149988
  65.2440012  24.3964997  54.0029988  65.8898628  24.5454760  54.5673932
  68.7430012  23.7304997  53.5889988  67.7960012  23.7624997  53.7209988
  69.0560012  23.1054997  54.2419988  68.6555475  23.6503207  53.6954455
  70.3770012  22.3644997  55.5939988  70.2810012  21.4124997  55.5879988
  70.0560012  22.6334997  56.4539988  70.3204070  22.2704035  55.7095441
  60.2040012  23.5744997  54.6409988  60.4160012  22.8674997  54.0309988
  60.0930012  23.1364997  55.4849988  60.2179721  23.4187084  54.6716843
  64.9850012  19.5754997  53.6209988  65.6970012  18.9354997  53.6069988
  64.8840012  19.8424997  52.7069988  65.0687939  19.5239938  53.4955650
  65.3390012  21.2584997  55.6739988  65.2070012  20.7824997  54.8539988
  64.7400012  22.0024997  55.6189988  65.2399071  21.2939618  55.5542886
  64.8850012  38.1414997  38.8509988  65.8180012  38.2994997  38.9939988
  64.6210012  38.8164997  38.2259988  64.9769510  38.2543611  38.7860741
  58.4540012  32.7774997  38.3329988  59.3680012  32.8564997  38.6069988
  58.4610012  32.0904997  37.6669988  58.5801131  32.6953961  38.2804393
  57.1030012  38.1704997  43.4109988  56.4560012  37.7084997  42.8779988
  57.4570012  37.4984997  43.9929988  57.0623849  38.0164723  43.4167959
  57.9730012  36.2514997  45.2149988  57.6380012  35.3714997  45.3869988
  58.1950012  36.5964997  46.0799988  57.9571783  36.1777500  45.3554208
  75.5210012  37.0604997  48.1959988  75.5000012  37.2454997  49.1349988
  76.2120012  37.6294997  47.8549988  75.6114618  37.1626606  48.2783864
  75.0850012  36.6284997  51.1179988  74.5970012  35.8924997  50.7469988
  75.6340012  36.2344997  51.7959988  75.0924872  36.4746249  51.1589160
  73.5350012  32.4174997  55.7559988  72.6690012  32.3124997  56.1499988
  73.9120012  33.1764997  56.2019988  73.4673308  32.5056900  55.8702393
  74.8360012  30.6744997  41.2699988  75.6860012  31.0954997  41.3969988
  74.8420012  29.9344997  41.8769988  74.9531372  30.6320803  41.3694344
  75.2310012  28.7274997  43.0939988  74.5040012  28.2484997  43.4909988
  75.8120012  28.9334997  43.8259988  75.2099375  28.6897090  43.2474129
  74.9900012  31.5124997  48.0409988  75.8230012  31.1344997  47.7609988
  75.1020012  32.4554997  47.9219988  75.1192647  31.5882218  47.9865487
  73.4760012  34.3904997  50.3479988  72.8290012  34.7154997  50.9739988
  72.9590012  33.9504997  49.6739988  73.3174029  34.3755004  50.3425827
  75.4990012  28.6284997  39.4849988  74.9770012  28.9854997  38.7659988
  75.4660012  29.3034997  40.1629988  75.4231634  28.7685413  39.4783145
  73.8480012  25.8684997  38.0359988  73.9440012  26.5354997  37.3549988
  73.7080012  25.0524997  37.5539988  73.8422135  25.8494500  37.8778491
  73.0170012  27.2484997  43.6569988  72.8670012  26.3034997  43.6359988
  72.6640012  27.5294997  44.4999988  72.9486625  27.1570441  43.7682346
  58.0530012  29.3264997  47.6669988  58.2370012  29.2444997  46.7309988
  58.9020012  29.2024997  48.0909988  58.1930139  29.2985003  47.5961455
  73.8740012  29.2184997  53.2949988  74.4570012  28.4844997  53.4869988
  74.4380012  29.9904997  53.3419988  74.0299769  29.2224227  53.3276159
  75.3700012  27.1214997  53.9799988  74.5070012  26.7424997  53.8139988
  75.9750012  26.3824997  53.9059988  75.3335979  26.9698023  53.9472817
  73.0950012  23.2764997  37.1529988  73.7060012  22.9054997  37.7899988
  72.2590012  22.8554997  37.3489988  73.0655032  23.1687554  37.2667035
  72.7280012  24.8314997  42.1189988  73.0080012  23.9244997  42.2429988
  73.4870012  25.2654997  41.7299988  72.8689277  24.7660942  42.0833682
  73.3400012  25.4124997  47.5549988  74.2730012  25.6244997  47.5209988
  73.1050012  25.5144997  48.4769988  73.4358036  25.4552769  47.6749976
  73.3690012  26.1494997  50.3309988  72.5260012  26.4174997  50.6969988
  73.8110012  26.9714997  50.1199988  73.3134158  26.2973291  50.3525491
  57.6500012  24.5974997  53.8079988  58.5700012  24.4754997  54.0439988
  57.2010012  23.8474997  54.1969988  57.7151580  24.4793727  53.8929006
  75.6520012  20.1294997  55.6839988  76.0020012  19.4754997  55.0789988
  75.7990012  20.9664997  55.2449988  75.7198419  20.1531591  55.5417118
  73.3410012  22.0944997  42.1669988  73.5240012  21.6454997  42.9929988
  72.7420012  21.5094997  41.7039988  73.2850202  21.9539975  42.2173275
  58.8710012  22.9094997  46.6989988  59.3170012  22.1174997  47.0009988
  59.3380012  23.6254997  47.1299988  58.9950172  22.8980624  46.7984820
  57.1750012  25.9084997  47.7679988  57.6670012  25.6874997  46.9769988
  57.5380012  26.7494997  48.0489988  57.2913126  25.9918357  47.6977531
  75.1720012  22.2384997  54.0339988  74.2540012  22.5094997  53.9979988
  75.2950012  21.7034997  53.2489988  75.0631066  22.2032892  53.9230487
  75.2080012  22.1614997  38.6949988  75.6200012  21.4404997  38.2199988
  75.8900012  22.8314997  38.7539988  75.3565885  22.1532368  38.6378915
  57.4890012  22.1664997  41.8219988  56.5640012  22.3754997  41.6929988
  57.9430012  22.6504997  41.1329988  57.4237368  22.2605993  41.7111226
  72.2600012  37.1504997  43.7679988  72.9120012  36.8034997  43.1599988
  72.7700012  37.6394997  44.4139988  72.4182637  37.1690597  43.7720236
  57.4530012  20.9044997  50.1669988  56.7880012  20.6584997  50.8099988
  57.0100012  21.5264997  49.5889988  57.3020956  20.9548632  50.1769352
  59.6450012  34.0794997  54.3109988  58.8240012  34.2544997  53.8509988
  59.3920012  34.0064997  55.2319988  59.4986164  34.0935622  54.3724923
  62.5990012  35.0544997  50.5699988  62.1740012  35.8634997  50.2869988
  63.5030012  35.1394997  50.2679988  62.6630271  35.1768469  50.4903776
  66.9100012  36.4534997  53.5289988  67.0950012  36.1194997  54.4069988
  67.7560012  36.7624997  53.2069988  67.0497539  36.4496047  53.6055605
  69.2550012  37.7394997  52.7729988  69.9320012  37.1064997  52.5329988
  69.5770012  38.1404997  53.5799988  69.3911637  37.7071154  52.8492793
  74.1720012  20.3284997  51.8529988  73.3600012  20.6534997  51.4649988
  74.4050012  19.5684997  51.3199988  74.0923423  20.2702436  51.7278253
  60.0010012  38.3104997  50.6169988  59.2800012  38.7504997  50.1659988
  59.6350012  38.0594997  51.4659988  59.8529804  38.3367698  50.6699840
  62.4680012  37.9104997  49.6469988  61.6030012  37.9824997  50.0509988
  62.4130012  38.4574997  48.8629988  62.3422085  37.9942685  49.5963362
  67.1780012  37.7984997  48.8219988  66.7220012  38.3274997  48.1679988
  67.3410012  38.4014997  49.5479988  67.1375585  37.9524468  48.8305062
  69.5060012  36.6764997  49.7669988  68.6010012  36.8414997  49.5019988
  69.9350012  37.5294997  49.7019988  69.4400799  36.8144483  49.7219182
  72.1100012  38.2464997  50.0619988  71.9280012  39.1624997  49.8519988
  72.2870012  37.8364997  49.2159988  72.1090210  38.3164822  49.9187885
  59.4150012  36.9334997  47.5269988  59.3970012  36.5084997  48.3849988
  60.2200012  36.6154997  47.1189988  59.5213875  36.8323812  47.5891655
  61.5570012  35.6434997  46.1819988  61.3380012  34.7274997  46.3519988
  62.3810012  35.7834997  46.6479988  61.6384420  35.5370520  46.2682774
  64.0940012  36.1134997  47.0309988  64.3070012  35.2254997  46.7439988
  64.1580012  36.0794997  47.9849988  64.1318232  35.9873102  47.1207397
  67.6020012  21.7774997  46.1749988  66.9280012  21.1484997  46.4309988
  68.1660012  21.2934997  45.5719988  67.5859230  21.6258744  46.1285340
  72.7450012  19.8854997  46.2879988  73.3490012  20.4324997  45.7859988
  71.8750012  20.2044997  46.0479988  72.7101241  20.0035806  46.1867654
  74.4720012  21.0234997  44.6209988  75.0840012  20.5094997  44.0949988
  74.8540012  21.9014997  44.6449988  74.6074540  21.0717140  44.5521830
  59.9290012  20.4114997  43.9969988  59.1520012  20.1774997  43.4899988
  60.4590012  19.6144997  44.0059988  59.8942330  20.2716988  43.9287742
  58.7650012  20.2094997  39.8009988  59.2040012  20.8204997  39.2089988
  58.1320012  20.7474997  40.2749988  58.7394514  20.3659257  39.7840930
  64.5080012  20.3384997  43.8109988  65.3830012  20.7264997  43.7809988
  64.3720012  20.1234997  44.7329988  64.6093695  20.3625184  43.9316440
  70.0650012  20.3684997  45.4599988  70.1410012  20.4634997  44.5099988
  69.7900012  19.4604997  45.5889988  70.0382321  20.2587867  45.3475079
  71.4180012  20.3944997  41.1519988  70.7160012  21.0094997  40.9429988
  70.9740012  19.5564997  41.2829988  71.2616330  20.3655783  41.1410328
  58.6660012  36.1574997  40.6989988  57.9810012  36.1194997  40.0309988
  58.6700012  37.0704997  40.9869988  58.5728193  36.2757016  40.6465284
  60.6260012  22.1254997  38.2429988  61.1180012  21.4954997  37.7159988
  61.2500012  22.4214997  38.9069988  60.7775446  22.0793199  38.2605980
  65.6520012  22.4184997  40.6999988  65.8300012  21.7724997  41.3829988
  65.5990012  23.2524997  41.1679988  65.6691829  22.4427985  40.8565940
  67.5310012  37.3674997  39.0959988  68.3970012  37.7334997  38.9179988
  67.2840012  36.9274997  38.2819988  67.6162392  37.3581756  38.9616289
  74.2400012  36.9304997  41.7749988  74.0450012  36.1824997  41.2099988
  74.2010012  37.6884997  41.1919988  74.2080380  36.9306099  41.6188384
  59.8870012  20.9254997  53.5149988  59.5210012  20.1604997  53.9579988
  60.8000012  20.9544997  53.8019988  59.9602790  20.8247224  53.6144070
  61.8600012  20.2764997  55.0509988  62.7580012  20.0024997  54.8659988
  61.4730012  19.5334997  55.5149988  61.9306612  20.1385914  55.0883643
  60.4840012  37.0774997  37.7239988  60.2170012  37.3644997  38.5969988
  61.2560012  36.5314997  37.8759988  60.5517488  37.0430294  37.8641050
  70.2810012  19.6084997  55.2329988  70.3580012  19.1824997  56.0869988
  71.1750012  19.6224997  54.8899988  70.4123428  19.5520879  55.3035310
  73.4570012  35.6814997  53.9249988  72.6750012  35.4954997  53.4059988
  73.3850012  36.6104997  54.1429988  73.3401777  35.7816492  53.8834048
  87.8630012  29.5674997  43.9559988  87.9520012  30.5114997  43.8239988
  87.2250012  29.2924997  43.2979988  87.7889081  29.6594830  43.8489614
  86.7960012  28.8224997  47.3749988  86.7580012  28.1764997  48.0799988
  86.4740012  28.3564997  46.6039988  86.7472333  28.6709408  47.3672978
  79.1650012  28.4374997  48.9679988  79.2060012  27.8114997  49.6909988
  79.8680012  29.0614997  49.1499988  79.2656363  28.4361196  49.0916044
  90.5020012  31.7614997  45.6759988  90.0620012  31.0414997  46.1269988
  90.4890012  32.4824997  46.3059988  90.4400226  31.7603731  45.8228494
  80.0880012  32.8874997  47.5029988  79.7190012  32.0854997  47.1329988
  81.0290012  32.7184997  47.5489988  80.1647289  32.7550153  47.4586316
  76.6980012  26.5474997  42.8959988  76.2510012  27.3934997  42.8769988
  76.1370012  25.9674997  42.3799988  76.5609900  26.5849916  42.8236801
  77.4090012  28.7094997  45.0219988  77.6220012  27.9394997  45.5489988
  78.1470012  28.7984997  44.4179988  77.5378496  28.6161394  45.0125300
  87.6140012  36.8664997  45.8889988  88.2340012  36.1894997  45.6149988
  87.4060012  36.6484997  46.7969988  87.6706904  36.7443870  45.9743365
  85.1860012  31.2554997  47.7809988  85.4900012  30.5694997  47.1859988
  85.9070012  31.3734997  48.3989988  85.3250671  31.1776305  47.7831816
  93.8490012  22.8564997  48.6419988  93.8980012  23.4664997  49.3779988
  94.2740012  23.3174997  47.9189988  93.9131824  23.0023741  48.6450205
  88.3270012  25.6494997  48.1089988  88.4690012  24.7034997  48.1289988
  88.2200012  25.8564997  47.1799988  88.3319864  25.5479534  47.9862339
  81.4810012  23.7504997  45.3809988  81.5250012  24.6104997  44.9629988
  81.0240012  23.1984997  44.7469988  81.4252185  23.7935799  45.2380299
  89.2040012  23.8814997  43.7819988  89.8500012  23.5524997  44.4069988
  89.7140012  24.3994997  43.1589988  89.3614264  23.9064611  43.7833862
  78.1020012  26.1474997  46.1429988  78.7550012  25.5974997  46.5749988
  78.1260012  25.8734997  45.2259988  78.1946683  26.0351466  46.0782123
  83.2580012  27.6974997  45.3579988  83.8740012  27.1714997  45.8679988
  82.6720012  27.0574997  44.9549988  83.2630810  27.5389208  45.3733173
  94.2400012  24.3344997  50.8779988  93.5520012  24.9924997  50.7819988
  94.2560012  24.1374997  51.8139988  94.1478525  24.3980462  50.9914808
  80.2920012  22.6684997  49.4549988  80.0730012  23.1984997  48.6889988
  79.6240012  22.8954997  50.1019988  80.1717600  22.7716906  49.4376379
  87.6610012  32.1684997  42.9989988  87.3650012  31.8464997  42.1479988
  87.3360012  33.0684997  43.0399988  87.5766371  32.2460215  42.8881801
  82.8610012  30.3444997  49.7419988  82.1210012  30.9424997  49.8459988
  83.5750012  30.8984997  49.4269988  82.8562237  30.5012831  49.7136465
  90.9680012  23.1724997  45.7619988  90.7520012  22.4064997  46.2949988
  91.6230012  23.6444997  46.2749988  91.0270632  23.1315889  45.9042861
  79.8850012  24.5604997  47.4069988  80.4990012  25.1934997  47.7809988
  80.3970012  24.0884997  46.7509988  80.0382296  24.5832370  47.3694252
  81.2680012  32.3084997  50.5299988  81.2630012  33.1884997  50.1519988
  80.4150012  32.2254997  50.9549988  81.1519464  32.4176117  50.5357907
  77.3890012  31.9794997  41.3119988  77.1170012  32.2084997  40.4229988
  77.4350012  32.8174997  41.7719988  77.3580094  32.1241213  41.2525697
  91.0140012  33.6014997  48.0239988  90.0730012  33.6594997  48.1859988
  91.2910012  34.5074997  47.8869988  90.9224679  33.7319443  48.0276815
  91.3150012  21.8874997  49.4419988  90.5790012  22.4984997  49.4039988
  91.9980012  22.3024997  48.9149988  91.3066541  22.0271374  49.3655832
  84.3180012  19.9744997  46.9079988  84.2010012  19.0254997  46.8529988
  83.4630012  20.3064997  47.1809988  84.1863733  19.8895409  46.9373897
  89.2660012  35.3824997  44.6499988  89.6920012  34.6754997  44.1649988
  89.5830012  36.1834997  44.2329988  89.3671019  35.3940994  44.5273130
  90.4260012  33.2834997  43.1579988  90.1680012  32.5934997  42.5469988
  90.4970012  32.8404997  44.0039988  90.4002856  33.1292124  43.1886885
  92.1120012  31.8494997  51.6359988  92.2520012  31.2584997  50.8959988
  92.2790012  32.7224997  51.2789988  92.1536778  31.8866426  51.4866965
  86.5850012  28.8114997  41.4079988  85.8730012  29.3464997  41.0559988
  87.2760012  28.8674997  40.7479988  86.5810132  28.8922543  41.2706289
  86.6380012  27.2694997  38.4469988  87.3390012  27.2914997  39.0979988
  86.9410012  26.6414997  37.7909988  86.7747830  27.1876566  38.4473711
  93.9540012  28.1894997  49.7019988  93.3010012  28.8844997  49.7909988
  94.4190012  28.3994997  48.8919988  93.9275390  28.3129425  49.6046883
  89.9900012  29.0214997  42.3599988  89.2580012  29.2494997  42.9329988
  90.4380012  28.3074997  42.8149988  89.9503095  28.9562571  42.4999119
  89.8880012  27.1954997  51.4269988  89.9680012  27.9584997  51.9989988
  89.2860012  27.4744997  50.7369988  89.8175756  27.3377134  51.4120589
  81.6360012  29.6514997  44.2419988  81.3050012  29.2814997  43.4239988
  82.2240012  28.9814997  44.5889988  81.6701873  29.5101156  44.1768102
  83.0020012  33.0794997  46.9239988  82.9080012  32.5014997  46.1669988
  83.7320012  32.7084997  47.4199988  83.0877981  32.9502390  46.8874165
  82.0020012  28.4204997  47.8759988  82.5680012  28.5414997  47.1129988
  82.3210012  29.0574997  48.5149988  82.1225786  28.5231884  47.8580040
  88.3110012  33.9234997  48.6099988  88.0710012  34.5854997  49.2579988
  88.1130012  33.0894997  49.0349988  88.2513808  33.9013134  48.7561524
  82.8820012  32.8194997  52.5929988  82.5710012  33.6014997  53.0479988
  82.2320012  32.6664997  51.9069988  82.7515558  32.9059105  52.5625871
  88.8610012  28.1834997  40.0449988  89.4410012  28.3334997  40.7919988
  89.2750012  28.6544997  39.3219988  88.9962830  28.2676841  40.0494134
  79.8020012  29.0174997  51.8219988  79.8730012  29.6684997  52.5199988
  78.9120012  29.1204997  51.4869988  79.6913117  29.1205936  51.8722700
  86.5880012  34.9204997  43.4799988  87.0620012  35.2154997  44.2579988
  86.0250012  35.6584997  43.2469988  86.5767653  35.0606932  43.5550136
  81.1220012  34.8914997  53.3559988  81.1290012  34.7554997  52.4089988
  80.2060012  34.7734997  53.6079988  80.9991714  34.8569430  53.2604666
  92.5600012  19.9334997  39.8579988  91.6600012  20.0724997  40.1529988
  92.8120012  20.7644997  39.4559988  92.4708702  20.0649074  39.8440205
  80.6260012  28.7214997  41.8319988  80.3340012  29.4894997  41.3409988
  79.9520012  28.0614997  41.6689988  80.4949081  28.7374406  41.7427340
  93.7490012  34.2994997  38.2339988  93.8230012  35.2384997  38.4049988
  94.6550012  33.9944997  38.1779988  93.8815100  34.3866722  38.2498119
  76.7190012  31.0844997  50.6469988  76.2180012  31.0564997  49.8319988
  76.7240012  30.1784997  50.9559988  76.6511526  30.9582278  50.5772872
  76.4690012  33.8644997  47.5309988  77.4150012  33.7204997  47.5119988
  76.3570012  34.6484997  48.0679988  76.5832727  33.9508046  47.6010072
  94.6670012  34.5304997  53.2129988  94.6180012  33.5754997  53.1759988
  93.8400012  34.7984997  53.6139988  94.5484940  34.4358998  53.2621375
  85.6460012  34.1044997  52.0889988  85.7330012  34.9304997  52.5639988
  84.7820012  33.7744997  52.3379988  85.5411964  34.1729878  52.1876549
  86.0600012  37.8764997  41.8949988  85.9850012  37.7554997  40.9489988
  86.0930012  38.8264997  42.0139988  86.0541848  37.9882500  41.7814834
  79.7130012  36.6654997  43.6759988  79.8660012  36.3174997  44.5549988
  78.8630012  36.3094997  43.4209988  79.6188962  36.5696650  43.7618340
  89.1620012  37.0304997  38.8969988  89.5370012  36.2864997  38.4269988
  89.1660012  36.7604997  39.8159988  89.2138915  36.8921486  38.9567824
  88.8310012  36.9564997  41.6469988  87.8950012  37.0564997  41.8249988
  89.1110012  36.2474997  42.2249988  88.7408255  36.8742711  41.7495391
  91.8190012  26.0234997  53.6929988  91.4120012  26.5044997  52.9719988
  91.8600012  25.1184997  53.3849988  91.7688437  25.9669374  53.5526683
  78.9680012  32.4074997  51.6899988  79.1840012  32.0464997  52.5489988
  78.1130012  32.0334997  51.4799988  78.8819292  32.3074111  51.7793386
  81.5870012  20.8774997  47.6849988  80.7250012  20.7904997  47.2779988
  81.5640012  21.7334997  48.1129988  81.4660330  20.9812765  47.6871863
  86.2500012  20.5994997  51.0599988  86.6700012  20.1844997  51.8129988
  85.3170012  20.4214997  51.1769988  86.1813644  20.5185900  51.1789539
  89.5760012  24.3554997  51.9129988  89.0620012  24.2294997  52.7109988
  89.4210012  25.2674997  51.6689988  89.4846852  24.4616132  51.9892158
  90.3390012  29.2164997  37.6749988  90.3810012  28.9934997  36.7449988
  91.1880012  29.6154997  37.8649988  90.4595396  29.2399155  37.5733627
  85.9110012  23.0924997  38.3449988  85.6580012  23.1114997  39.2679988
  85.6550012  22.2204997  38.0439988  85.8417790  22.9772437  38.4306263
  81.6780012  25.8434997  48.7799988  81.0360012  25.8024997  49.4889988
  81.7150012  26.7694997  48.5429988  81.5951324  25.9631559  48.8449824
  81.6750012  26.0644997  43.6919988  80.7820012  25.7234997  43.6339988
  82.1250012  25.6874997  42.9369988  81.6137305  25.9668484  43.5819177
  87.2100012  26.4804997  42.5089988  86.8010012  27.2954997  42.2179988
  87.9310012  26.3404997  41.8949988  87.2514537  26.5732018  42.3861342
  86.3120012  26.6554997  53.9969988  85.7500012  25.9514997  54.3179988
  87.1390012  26.5354997  54.4649988  86.3467095  26.5427883  54.1042330
  88.2150012  25.9264997  45.3229988  88.0200012  26.5314997  44.6079988
  88.3960012  25.0924997  44.8889988  88.2127614  25.8966300  45.1664405
  79.4280012  26.1634997  50.6469988  79.3900012  26.5634997  51.5159988
  78.9370012  25.3464997  50.7379988  79.3564684  26.1078069  50.7781059
  82.7940012  23.5374997  37.4459988  82.3630012  23.0924997  38.1759988
  82.0760012  23.9094997  36.9339988  82.6379438  23.5268940  37.4766799
  76.0360012  23.2794997  44.4979988  76.6670012  23.2504997  45.2169988
  76.4850012  22.8544997  43.7679988  76.1830774  23.2180492  44.4976553
  77.3100012  24.0254997  39.9219988  77.7840012  24.6164997  39.3369988
  76.5930012  24.5564997  40.2689988  77.2779341  24.1780867  39.8888836
  87.4790012  27.5644997  49.9949988  87.8020012  26.9334997  49.3519988
  87.0390012  27.0294997  50.6549988  87.4636895  27.4058441  49.9962850
  84.2560012  23.4914997  44.7789988  83.3450012  23.5484997  45.0669988
  84.7620012  23.4314997  45.5889988  84.1995413  23.4911985  44.9280622
  79.0850012  25.1204997  43.6049988  78.1950012  25.2204997  43.2649988
  79.3810012  24.2784997  43.2589988  79.0032823  25.0203545  43.5117213
  82.7380012  25.1204997  41.2619988  83.6690012  25.2494997  41.4399988
  82.5230012  25.7904997  40.6119988  82.8364247  25.2286565  41.1985747
  88.6610012  22.7264997  48.0429988  87.9850012  22.8574997  48.7069988
  88.1760012  22.5714997  47.2329988  88.5027145  22.7234905  48.0244517
  81.4120012  26.3154997  38.8289988  80.8690012  25.9354997  38.1369988
  82.2450012  26.5094997  38.3999988  81.4504399  26.2898124  38.6764526
  91.9490012  38.3984997  54.3199988  92.1490012  38.8224997  53.4849988
  92.6040012  38.7414997  54.9269988  92.0650051  38.5029648  54.2877836
  79.5470012  30.8724997  53.9279988  80.2790012  31.1264997  54.4889988
  78.7670012  31.0764997  54.4429988  79.5418232  30.9349177  54.0745760
  85.5760012  26.2794997  46.6659988  86.1410012  25.7324997  46.1189988
  85.4290012  25.7574997  47.4539988  85.6332918  26.1342024  46.6978454
  80.5780012  22.4154997  43.0839988  80.2610012  21.5134997  43.0489988
  81.3600012  22.4174997  42.5309988  80.6402284  22.2921628  43.0044783
  84.2030012  24.6674997  49.0799988  83.3670012  25.1214997  49.1899988
  84.7270012  24.9434997  49.8319988  84.1594414  24.7669376  49.1967136
  84.7470012  30.8804997  40.7639988  84.0020012  30.3734997  40.4419988
  84.6130012  30.9294997  41.7109988  84.6268776  30.8176940  40.8478647
  91.8970012  30.0134997  49.5509988  92.5390012  30.4704997  49.0069988
  91.0670012  30.1264997  49.0879988  91.8725963  30.0912704  49.4140177
  88.6450012  23.6944997  38.9639988  87.7060012  23.8064997  38.8119988
  88.9420012  24.5514997  39.2699988  88.5567666  23.8256443  38.9845768
  86.2660012  31.0644997  52.0009988  85.9210012  30.6834997  52.8079988
  86.0660012  31.9984997  52.0729988  86.1918061  31.1385228  52.1210961
  89.3630012  25.5614997  40.6239988  90.2550012  25.4244997  40.9429988
  89.4200012  26.3524997  40.0879988  89.4926285  25.6496660  40.5951691
  79.8720012  30.1754997  46.5339988  80.6170012  30.1734997  45.9329988
  79.9500012  29.3524997  47.0159988  79.9845518  30.0639315  46.5168929
  86.8730012  32.3394997  39.7899988  86.5770012  33.1654997  40.1709988
  86.1700012  31.7194997  39.9859988  86.7374914  32.3688199  39.8686443
  76.8800012  28.6364997  51.8489988  77.1030012  28.2184997  52.6809988
  76.2780012  28.0234997  51.4259988  76.8291759  28.4964668  51.9057022
  83.8960012  28.1534997  54.0619988  83.6000012  27.9874997  53.1669988
  84.8280012  27.9334997  54.0509988  83.9814166  28.1010640  53.9380536
  88.5170012  33.5264997  51.9519988  87.6160012  33.7094997  51.6839988
  88.5510012  33.7854997  52.8729988  88.3983041  33.5865512  52.0398197
  94.2480012  25.7714997  40.3189988  93.6940012  25.3754997  39.6469988
  94.3480012  26.6814997  40.0409988  94.1857059  25.8403586  40.1894401
  94.2110012  31.5714997  53.1559988  93.3600012  31.8094997  52.7889988
  94.8020012  31.5544997  52.4029988  94.1742487  31.6018258  53.0038893
  92.5430012  34.5574997  40.7839988  92.1700012  33.7314997  41.0929988
  92.8210012  34.3744997  39.8869988  92.5295630  34.4197303  40.7049626
  89.7040012  29.3654997  47.8049988  88.7750012  29.1334997  47.7779988
  90.1550012  28.5884997  47.4749988  89.6379216  29.2287238  47.7566917
  82.2470012  33.6934997  43.9379988  82.7740012  34.4664997  43.7379988
  81.3670012  33.9184997  43.6369988  82.2001773  33.8298005  43.8699010
  78.0020012  28.5554997  38.5249988  78.6180012  29.1824997  38.9049988
  77.1400012  28.8714997  38.7969988  77.9697698  28.6839430  38.6137183
  83.6740012  31.3564997  43.5149988  83.4330012  32.2814997  43.5559988
  82.9330012  30.8974997  43.9109988  83.5408409  31.4211421  43.5741377
  84.1890012  35.5054997  49.8299988  84.5510012  36.3604997  49.5959988
  84.7200012  35.2134997  50.5699988  84.3104473  35.5831060  49.8980855
  82.3570012  36.3784997  43.0599988  81.4070012  36.4834997  43.1109988
  82.7090012  37.1984997  43.4049988  82.2744203  36.5038314  43.1136650
  87.7330012  31.6044997  49.5299988  87.3070012  31.3774997  50.3569988
  88.3130012  30.8664997  49.3479988  87.7531868  31.4735299  49.6185830
  89.9360012  32.5334997  38.6039988  90.2890012  32.1534997  39.4089988
  88.9870012  32.4404997  38.6909988  89.8560441  32.4689596  38.7258559
  90.3910012  36.1564997  51.9999988  89.7900012  35.6014997  51.5039988
  90.6730012  36.8234997  51.3739988  90.3468519  36.1706841  51.8474952
  94.4390012  37.0134997  38.8049988  95.1830012  37.5994997  38.6649988
  93.7450012  37.5814997  39.1389988  94.4470292  37.1705582  38.8309961
  78.5140012  23.3894997  51.4069988  77.6210012  23.7284997  51.3389988
  78.4150012  22.5344997  51.8249988  78.3784164  23.3202588  51.4542235
  90.8020012  31.2064997  40.8309988  90.5240012  30.4784997  41.3869988
  91.7290012  31.3254997  41.0359988  90.8893124  31.1228802  40.9348845
  78.1650012  35.1944997  49.8419988  78.3820012  34.2624997  49.8109988
  78.4110012  35.4684997  50.7249988  78.2279549  35.1040636  49.9571763
  84.0270012  33.6454997  37.0509988  84.2660012  32.8974997  36.5039988
  83.7580012  33.2574997  37.8839988  84.0233675  33.4906638  37.0886865
  82.9640012  33.2154997  39.5079988  83.1100012  32.6954997  40.2979988
  82.9610012  34.1224997  39.8139988  82.9835989  33.2668853  39.6576088
  79.4170012  30.4684997  40.0179988  78.7310012  30.8204997  40.5849988
  79.9390012  31.2314997  39.7709988  79.3936852  30.6198578  40.0622118
  87.2480012  23.1304997  50.2969988  87.9470012  23.2044997  50.9469988
  86.8670012  22.2664997  50.4509988  87.2921767  23.0237624  50.4068322
  88.0330012  22.7824997  41.3939988  88.2530012  23.2544997  40.5909988
  88.5910012  23.1774997  42.0639988  88.1384968  22.9004285  41.3747331
  85.7010012  34.9134997  40.2569988  84.8850012  35.4104997  40.3089988
  86.2310012  35.3884997  39.6169988  85.6609161  35.0457722  40.1775956
  85.2330012  24.5104997  42.2289988  86.0450012  25.0154997  42.2749988
  84.9880012  24.3654997  43.1429988  85.3110520  24.5600375  42.3588517
  85.7680012  25.4964997  51.4139988  85.8870012  26.0704997  52.1709988
  86.4240012  24.8084997  51.5279988  85.8729757  25.4821079  51.5330825
  86.1160012  21.5914997  43.1669988  85.7700012  22.2094997  43.8119988
  86.7750012  22.0924997  42.6859988  86.1577826  21.7435802  43.1900971
  83.0400012  35.9574997  40.2389988  83.2000012  36.7564997  39.7379988
  82.8420012  36.2634997  41.1239988  83.0351649  36.1084469  40.2899815
  81.7740012  22.6544997  39.8539988  81.6910012  23.5434997  40.2009988
  82.6640012  22.3894997  40.0859988  81.8829469  22.7401430  39.9327626
  91.9730012  23.4034997  52.2489988  91.0560012  23.6664997  52.1609988
  92.3080012  23.4004997  51.3519988  91.8929900  23.4390224  52.1157919
  90.5750012  27.1544997  46.3439988  89.7770012  26.7394997  46.0159988
  91.0200012  26.4634997  46.8349988  90.5259885  27.0043543  46.3654889
  80.0330012  33.0824997  38.9149988  80.6250012  33.7814997  39.1909988
  80.4920012  32.6494997  38.1949988  80.1761142  33.1197049  38.8554830
  78.3490012  25.7464997  38.0309988  78.3040012  26.6854997  38.2089988
  77.4610012  25.5104997  37.7609988  78.2228574  25.8431892  38.0188912
  91.6610012  36.4104997  47.9669988  91.5060012  37.0884997  47.3099988
  92.5940012  36.4824997  48.1699988  91.7658500  36.5130170  47.9045119
  79.1570012  20.5284997  46.7039988  78.9280012  20.5874997  45.7759988
  78.7140012  19.7364997  47.0099988  79.0658530  20.4295753  46.6184786
  78.0870012  34.4684997  42.8639988  77.2550012  34.9414997  42.8919988
  78.6330012  34.9784997  42.2659988  78.0469739  34.6021871  42.7869716
  77.3750012  37.0814997  54.1939988  77.9160012  36.8644997  54.9539988
  76.8940012  36.2754997  54.0049988  77.3839345  36.9429514  54.2723076
  81.9730012  36.0004997  55.8149988  82.7400012  35.5414997  56.1559988
  81.9510012  35.7744997  54.8849988  82.0751434  35.9070409  55.7360043
  86.0650012  35.5084997  37.1899988  85.4210012  34.8774997  37.5109988
  86.8270012  34.9774997  36.9579988  86.0798077  35.3502920  37.2026011
  88.5500012  34.3804997  54.5439988  88.1990012  33.5244997  54.7869988
  89.2760012  34.5234997  55.1509988  88.6000769  34.2825636  54.6593619
  90.6690012  35.3254997  37.4239988  90.9520012  34.5314997  37.8759988
  91.4090012  35.5584997  36.8629988  90.8077486  35.2482803  37.4100698
  77.2820012  30.8914997  55.1489988  77.4260012  29.9894997  54.8619988
  76.5100012  31.1774997  54.6609988  77.1973322  30.8068261  55.0437881
  81.6240012  31.2354997  37.2809988  81.6880012  30.4414997  37.8119988
  82.2770012  31.1164997  36.5909988  81.7210241  31.1107148  37.2604317
  83.9380012  30.8614997  54.5809988  83.6090012  31.1324997  53.7239988
  84.0900012  29.9204997  54.4939988  83.9134809  30.7713862  54.4518244
  86.9760012  32.2824997  37.0169988  86.7070012  32.4624997  37.9179988
  86.7700012  31.3564997  36.8859988  86.9113825  32.1820152  37.1225214
  89.6720012  30.7774997  51.9649988  90.4180012  31.3654997  51.8449988
  88.9150012  31.3594997  52.0279988  89.6717554  30.9367011  51.9570907
  78.1150012  28.0914997  54.5689988  78.5230012  27.2344997  54.4479988
  77.8550012  28.1064997  55.4899988  78.1357568  27.9760807  54.6769588
  82.7730012  29.2074997  39.5869988  82.3130012  28.7234997  40.2729988
  83.0280012  28.5394997  38.9509988  82.7444902  29.0508731  39.5949334
  82.0620012  27.1004997  51.9429988  81.4440012  27.7754997  52.2229988
  82.4060012  27.4214997  51.1099988  82.0239615  27.2362721  51.8686581
  83.8440012  27.4504997  37.8489988  83.6640012  27.2964997  36.9219988
  84.7940012  27.5584997  37.8939988  83.9477776  27.4440175  37.7281843
  87.0820012  29.5724997  55.2199988  88.0350012  29.6554997  55.1929988
  86.9210012  28.8604997  55.8399988  87.1906426  29.4876746  55.3000579
  93.2340012  29.8054997  37.2949988  92.9600012  29.3804997  36.4819988
  93.2730012  30.7364997  37.0779988  93.2017699  29.8732484  37.1543610
  82.4010012  24.4554997  53.0249988  82.5510012  23.7264997  52.4229988
  82.4040012  25.2324997  52.4659988  82.4219302  24.4607851  52.8670692
  82.8140012  22.8254997  50.5179988  83.3500012  23.2764997  49.8659988
  81.9620012  22.7174997  50.0949988  82.7722178  22.8726390  50.3715756
  84.3960012  28.2644997  50.7569988  85.1460012  28.1084997  50.1839988
  84.0570012  29.1164997  50.4819988  84.4528921  28.3582968  50.6413561
  88.8110012  26.0794997  55.7859988  89.0040012  25.1484997  55.6739988
  89.6690012  26.5044997  55.7759988  88.9533020  26.0096389  55.7693361
  90.1280012  28.8684997  53.8629988  89.8470012  29.5774997  53.2859988
  91.0710012  28.7954997  53.7119988  90.2169027  28.9557646  53.7635551
  80.8800012  25.6534997  54.9369988  80.1130012  25.1214997  54.7269988
  81.5590012  25.3434997  54.3369988  80.8667022  25.5387506  54.8271648
  83.6200012  20.2814997  50.9489988  83.5210012  21.2284997  50.8439988
  82.8770012  19.9094997  50.4739988  83.5060564  20.3605902  50.8704560
  84.8840012  24.6034997  54.5129988  84.6480012  24.3834997  55.4149988
  84.1000012  24.3964997  54.0029988  84.7458628  24.5454760  54.5673932
  87.5990012  23.7304997  53.5889988  86.6520012  23.7624997  53.7209988
  87.9120012  23.1054997  54.2419988  87.5115475  23.6503207  53.6954455
  89.2330012  22.3644997  55.5939988  89.1370012  21.4124997  55.5879988
  88.9120012  22.6334997  56.4539988  89.1764070  22.2704035  55.7095441
  79.0600012  23.5744997  54.6409988  79.2720012  22.8674997  54.0309988
  78.9490012  23.1364997  55.4849988  79.0739721  23.4187084  54.6716843
  83.8410012  19.5754997  53.6209988  84.5530012  18.9354997  53.6069988
  83.7400012  19.8424997  52.7069988  83.9247939  19.5239938  53.4955650
  84.1950012  21.2584997  55.6739988  84.0630012  20.7824997  54.8539988
  83.5960012  22.0024997  55.6189988  84.0959071  21.2939618  55.5542886
  83.7410012  38.1414997  38.8509988  84.6740012  38.2994997  38.9939988
  83.4770012  38.8164997  38.2259988  83.8329510  38.2543611  38.7860741
  77.3100012  32.7774997  38.3329988  78.2240012  32.8564997  38.6069988
  77.3170012  32.0904997  37.6669988  77.4361131  32.6953961  38.2804393
  75.9590012  38.1704997  43.4109988  75.3120012  37.7084997  42.8779988
  76.3130012  37.4984997  43.9929988  75.9183849  38.0164723  43.4167959
  76.8290012  36.2514997  45.2149988  76.4940012  35.3714997  45.3869988
  77.0510012  36.5964997  46.0799988  76.8131783  36.1777500  45.3554208
  94.3770012  37.0604997  48.1959988  94.3560012  37.2454997  49.1349988
  95.0680012  37.6294997  47.8549988  94.4674618  37.1626606  48.2783864
  93.9410012  36.6284997  51.1179988  93.4530012  35.8924997  50.7469988
  94.4900012  36.2344997  51.7959988  93.9484872  36.4746249  51.1589160
  92.3910012  32.4174997  55.7559988  91.5250012  32.3124997  56.1499988
  92.7680012  33.1764997  56.2019988  92.3233308  32.5056900  55.8702393
  93.6920012  30.6744997  41.2699988  94.5420012  31.0954997  41.3969988
  93.6980012  29.9344997  41.8769988  93.8091372  30.6320803  41.3694344
  94.0870012  28.7274997  43.0939988  93.3600012  28.2484997  43.4909988
  94.6680012  28.9334997  43.8259988  94.0659375  28.6897090  43.2474129
  93.8460012  31.5124997  48.0409988  94.6790012  31.1344997  47.7609988
  93.9580012  32.4554997  47.9219988  93.9752647  31.5882218  47.9865487
  92.3320012  34.3904997  50.3479988  91.6850012  34.7154997  50.9739988
  91.8150012  33.9504997  49.6739988  92.1734029  34.3755004  50.3425827
  94.3550012  28.6284997  39.4849988  93.8330012  28.9854997  38.7659988
  94.3220012  29.3034997  40.1629988  94.2791634  28.7685413  39.4783145
  92.7040012  25.8684997  38.0359988  92.8000012  26.5354997  37.3549988
  92.5640012  25.0524997  37.5539988  92.6982135  25.8494500  37.8778491
  91.8730012  27.2484997  43.6569988  91.7230012  26.3034997  43.6359988
  91.5200012  27.5294997  44.4999988  91.8046625  27.1570441  43.7682346
  76.9090012  29.3264997  47.6669988  77.0930012  29.2444997  46.7309988
  77.7580012  29.2024997  48.0909988  77.0490139  29.2985003  47.5961455
  92.7300012  29.2184997  53.2949988  93.3130012  28.4844997  53.4869988
  93.2940012  29.9904997  53.3419988  92.8859769  29.2224227  53.3276159
  94.2260012  27.1214997  53.9799988  93.3630012  26.7424997  53.8139988
  94.8310012  26.3824997  53.9059988  94.1895979  26.9698023  53.9472817
  91.9510012  23.2764997  37.1529988  92.5620012  22.9054997  37.7899988
  91.1150012  22.8554997  37.3489988  91.9215032  23.1687554  37.2667035
  91.5840012  24.8314997  42.1189988  91.8640012  23.9244997  42.2429988
  92.3430012  25.2654997  41.7299988  91.7249277  24.7660942  42.0833682
  92.1960012  25.4124997  47.5549988  93.1290012  25.6244997  47.5209988
  91.9610012  25.5144997  48.4769988  92.2918036  25.4552769  47.6749976
  92.2250012  26.1494997  50.3309988  91.3820012  26.4174997  50.6969988
  92.6670012  26.9714997  50.1199988  92.1694158  26.2973291  50.3525491
  76.5060012  24.5974997  53.8079988  77.4260012  24.4754997  54.0439988
  76.0570012  23.8474997  54.1969988  76.5711580  24.4793727  53.8929006
  94.5080012  20.1294997  55.6839988  94.8580012  19.4754997  55.0789988
  94.6550012  20.9664997  55.2449988  94.5758419  20.1531591  55.5417118
  92.1970012  22.0944997  42.1669988  92.3800012  21.6454997  42.9929988
  91.5980012  21.5094997  41.7039988  92.1410202  21.9539975  42.2173275
  77.7270012  22.9094997  46.6989988  78.1730012  22.1174997  47.0009988
  78.1940012  23.6254997  47.1299988  77.8510172  22.8980624  46.7984820
  76.0310012  25.9084997  47.7679988  76.5230012  25.6874997  46.9769988
  76.3940012  26.7494997  48.0489988  76.1473126  25.9918357  47.6977531
  94.0280012  22.2384997  54.0339988  93.1100012  22.5094997  53.9979988
  94.1510012  21.7034997  53.2489988  93.9191066  22.2032892  53.9230487
  94.0640012  22.1614997  38.6949988  94.4760012  21.4404997  38.2199988
  94.7460012  22.8314997  38.7539988  94.2125885  22.1532368  38.6378915
  76.3450012  22.1664997  41.8219988  75.4200012  22.3754997  41.6929988
  76.7990012  22.6504997  41.1329988  76.2797368  22.2605993  41.7111226
  91.1160012  37.1504997  43.7679988  91.7680012  36.8034997  43.1599988
  91.6260012  37.6394997  44.4139988  91.2742637  37.1690597  43.7720236
  76.3090012  20.9044997  50.1669988  75.6440012  20.6584997  50.8099988
  75.8660012  21.5264997  49.5889988  76.1580956  20.9548632  50.1769352
  78.5010012  34.0794997  54.3109988  77.6800012  34.2544997  53.8509988
  78.2480012  34.0064997  55.2319988  78.3546164  34.0935622  54.3724923
  81.4550012  35.0544997  50.5699988  81.0300012  35.8634997  50.2869988
  82.3590012  35.1394997  50.2679988  81.5190271  35.1768469  50.4903776
  85.7660012  36.4534997  53.5289988  85.9510012  36.1194997  54.4069988
  86.6120012  36.7624997  53.2069988  85.9057539  36.4496047  53.6055605
  88.1110012  37.7394997  52.7729988  88.7880012  37.1064997  52.5329988
  88.4330012  38.1404997  53.5799988  88.2471637  37.7071154  52.8492793
  93.0280012  20.3284997  51.8529988  92.2160012  20.6534997  51.4649988
  93.2610012  19.5684997  51.3199988  92.9483423  20.2702436  51.7278253
  78.8570012  38.3104997  50.6169988  78.1360012  38.7504997  50.1659988
  78.4910012  38.0594997  51.4659988  78.7089804  38.3367698  50.6699840
  81.3240012  37.9104997  49.6469988  80.4590012  37.9824997  50.0509988
  81.2690012  38.4574997  48.8629988  81.1982085  37.9942685  49.5963362
  86.0340012  37.7984997  48.8219988  85.5780012  38.3274997  48.1679988
  86.1970012  38.4014997  49.5479988  85.9935585  37.9524468  48.8305062
  88.3620012  36.6764997  49.7669988  87.4570012  36.8414997  49.5019988
  88.7910012  37.5294997  49.7019988  88.2960799  36.8144483  49.7219182
  90.9660012  38.2464997  50.0619988  90.7840012  39.1624997  49.8519988
  91.1430012  37.8364997  49.2159988  90.9650210  38.3164822  49.9187885
  78.2710012  36.9334997  47.5269988  78.2530012  36.5084997  48.3849988
  79.0760012  36.6154997  47.1189988  78.3773875  36.8323812  47.5891655
  80.4130012  35.6434997  46.1819988  80.1940012  34.7274997  46.3519988
  81.2370012  35.7834997  46.6479988  80.4944420  35.5370520  46.2682774
  82.9500012  36.1134997  47.0309988  83.1630012  35.2254997  46.7439988
  83.0140012  36.0794997  47.9849988  82.9878232  35.9873102  47.1207397
  86.4580012  21.7774997  46.1749988  85.7840012  21.1484997  46.4309988
  87.0220012  21.2934997  45.5719988  86.4419230  21.6258744  46.1285340
  91.6010012  19.8854997  46.2879988  92.2050012  20.4324997  45.7859988
  90.7310012  20.2044997  46.0479988  91.5661241  20.0035806  46.1867654
  93.3280012  21.0234997  44.6209988  93.9400012  20.5094997  44.0949988
  93.7100012  21.9014997  44.6449988  93.4634540  21.0717140  44.5521830
  78.7850012  20.4114997  43.9969988  78.0080012  20.1774997  43.4899988
  79.3150012  19.6144997  44.0059988  78.7502330  20.2716988  43.9287742
  77.6210012  20.2094997  39.8009988  78.0600012  20.8204997  39.2089988
  76.9880012  20.7474997  40.2749988  77.5954514  20.3659257  39.7840930
  83.3640012  20.3384997  43.8109988  84.2390012  20.7264997  43.7809988
  83.2280012  20.1234997  44.7329988  83.4653695  20.3625184  43.9316440
  88.9210012  20.3684997  45.4599988  88.9970012  20.4634997  44.5099988
  88.6460012  19.4604997  45.5889988  88.8942321  20.2587867  45.3475079
  90.2740012  20.3944997  41.1519988  89.5720012  21.0094997  40.9429988
  89.8300012  19.5564997  41.2829988  90.1176330  20.3655783  41.1410328
  77.5220012  36.1574997  40.6989988  76.8370012  36.1194997  40.0309988
  77.5260012  37.0704997  40.9869988  77.4288193  36.2757016  40.6465284
  79.4820012  22.1254997  38.2429988  79.9740012  21.4954997  37.7159988
  80.1060012  22.4214997  38.9069988  79.6335446  22.0793199  38.2605980
  84.5080012  22.4184997  40.6999988  84.6860012  21.7724997  41.3829988
  84.4550012  23.2524997  41.1679988  84.5251829  22.4427985  40.8565940
  86.3870012  37.3674997  39.0959988  87.2530012  37.7334997  38.9179988
  86.1400012  36.9274997  38.2819988  86.4722392  37.3581756  38.9616289
  93.0960012  36.9304997  41.7749988  92.9010012  36.1824997  41.2099988
  93.0570012  37.6884997  41.1919988  93.0640380  36.9306099  41.6188384
  78.7430012  20.9254997  53.5149988  78.3770012  20.1604997  53.9579988
  79.6560012  20.9544997  53.8019988  78.8162790  20.8247224  53.6144070
  80.7160012  20.2764997  55.0509988  81.6140012  20.0024997  54.8659988
  80.3290012  19.5334997  55.5149988  80.7866612  20.1385914  55.0883643
  79.3400012  37.0774997  37.7239988  79.0730012  37.3644997  38.5969988
  80.1120012  36.5314997  37.8759988  79.4077488  37.0430294  37.8641050
  89.1370012  19.6084997  55.2329988  89.2140012  19.1824997  56.0869988
  90.0310012  19.6224997  54.8899988  89.2683428  19.5520879  55.3035310
  92.3130012  35.6814997  53.9249988  91.5310012  35.4954997  53.4059988
  92.2410012  36.6104997  54.1429988  92.1961777  35.7816492  53.8834048
 106.7190012  29.5674997  43.9559988 106.8080012  30.5114997  43.8239988
 106.0810012  29.2924997  43.2979988 106.6449081  29.6594830  43.8489614
 105.6520012  28.8224997  47.3749988 105.6140012  28.1764997  48.0799988
 105.3300012  28.3564997  46.6039988 105.6032333  28.6709408  47.3672978
  98.0210012  28.4374997  48.9679988  98.0620012  27.8114997  49.6909988
  98.7240012  29.0614997  49.1499988  98.1216363  28.4361196  49.0916044
 109.3580012  31.7614997  45.6759988 108.9180012  31.0414997  46.1269988
 109.3450012  32.4824997  46.3059988 109.2960226  31.7603731  45.8228494
  98.9440012  32.8874997  47.5029988  98.5750012  32.0854997  47.1329988
  99.8850012  32.7184997  47.5489988  99.0207289  32.7550153  47.4586316
  95.5540012  26.5474997  42.8959988  95.1070012  27.3934997  42.8769988
  94.9930012  25.9674997  42.3799988  95.4169900  26.5849916  42.8236801
  96.2650012  28.7094997  45.0219988  96.4780012  27.9394997  45.5489988
  97.0030012  28.7984997  44.4179988  96.3938496  28.6161394  45.0125300
 106.4700012  36.8664997  45.8889988 107.0900012  36.1894997  45.6149988
 106.2620012  36.6484997  46.7969988 106.5266904  36.7443870  45.9743365
 104.0420012  31.2554997  47.7809988 104.3460012  30.5694997  47.1859988
 104.7630012  31.3734997  48.3989988 104.1810671  31.1776304  47.7831816
 112.7050012  22.8564997  48.6419988 112.7540012  23.4664997  49.3779988
 113.1300012  23.3174997  47.9189988 112.7691824  23.0023741  48.6450205
 107.1830012  25.6494997  48.1089988 107.3250012  24.7034997  48.1289988
 107.0760012  25.8564997  47.1799988 107.1879864  25.5479534  47.9862339
 100.3370012  23.7504997  45.3809988 100.3810012  24.6104997  44.9629988
  99.8800012  23.1984997  44.7469988 100.2812185  23.7935799  45.2380299
 108.0600012  23.8814997  43.7819988 108.7060012  23.5524997  44.4069988
 108.5700012  24.3994997  43.1589988 108.2174264  23.9064611  43.7833862
  96.9580012  26.1474997  46.1429988  97.6110012  25.5974997  46.5749988
  96.9820012  25.8734997  45.2259988  97.0506683  26.0351466  46.0782123
 102.1140012  27.6974997  45.3579988 102.7300012  27.1714997  45.8679988
 101.5280012  27.0574997  44.9549988 102.1190810  27.5389208  45.3733173
 113.0960012  24.3344997  50.8779988 112.4080012  24.9924997  50.7819988
 113.1120012  24.1374997  51.8139988 113.0038525  24.3980462  50.9914808
  99.1480012  22.6684997  49.4549988  98.9290012  23.1984997  48.6889988
  98.4800012  22.8954997  50.1019988  99.0277600  22.7716906  49.4376379
 106.5170012  32.1684997  42.9989988 106.2210012  31.8464997  42.1479988
 106.1920012  33.0684997  43.0399988 106.4326371  32.2460215  42.8881801
 101.7170012  30.3444997  49.7419988 100.9770012  30.9424997  49.8459988
 102.4310012  30.8984997  49.4269988 101.7122237  30.5012831  49.7136465
 109.8240012  23.1724997  45.7619988 109.6080012  22.4064997  46.2949988
 110.4790012  23.6444997  46.2749988 109.8830632  23.1315889  45.9042861
  98.7410012  24.5604997  47.4069988  99.3550012  25.1934997  47.7809988
  99.2530012  24.0884997  46.7509988  98.8942296  24.5832370  47.3694252
 100.1240012  32.3084997  50.5299988 100.1190012  33.1884997  50.1519988
  99.2710012  32.2254997  50.9549988 100.0079464  32.4176117  50.5357907
  96.2450012  31.9794997  41.3119988  95.9730012  32.2084997  40.4229988
  96.2910012  32.8174997  41.7719988  96.2140094  32.1241213  41.2525697
 109.8700012  33.6014997  48.0239988 108.9290012  33.6594997  48.1859988
 110.1470012  34.5074997  47.8869988 109.7784679  33.7319443  48.0276815
 110.1710012  21.8874997  49.4419988 109.4350012  22.4984997  49.4039988
 110.8540012  22.3024997  48.9149988 110.1626541  22.0271374  49.3655832
 103.1740012  19.9744997  46.9079988 103.0570012  19.0254997  46.8529988
 102.3190012  20.3064997  47.1809988 103.0423733  19.8895409  46.9373897
 108.1220012  35.3824997  44.6499988 108.5480012  34.6754997  44.1649988
 108.4390012  36.1834997  44.2329988 108.2231019  35.3940994  44.5273130
 109.2820012  33.2834997  43.1579988 109.0240012  32.5934997  42.5469988
 109.3530012  32.8404997  44.0039988 109.2562856  33.1292124  43.1886885
 110.9680012  31.8494997  51.6359988 111.1080012  31.2584997  50.8959988
 111.1350012  32.7224997  51.2789988 111.0096778  31.8866426  51.4866965
 105.4410012  28.8114997  41.4079988 104.7290012  29.3464997  41.0559988
 106.1320012  28.8674997  40.7479988 105.4370132  28.8922543  41.2706289
 105.4940012  27.2694997  38.4469988 106.1950012  27.2914997  39.0979988
 105.7970012  26.6414997  37.7909988 105.6307830  27.1876566  38.4473711
 112.8100012  28.1894997  49.7019988 112.1570012  28.8844997  49.7909988
 113.2750012  28.3994997  48.8919988 112.7835390  28.3129425  49.6046883
 108.8460012  29.0214997  42.3599988 108.1140012  29.2494997  42.9329988
 109.2940012  28.3074997  42.8149988 108.8063095  28.9562571  42.4999119
 108.7440012  27.1954997  51.4269988 108.8240012  27.9584997  51.9989988
 108.1420012  27.4744997  50.7369988 108.6735756  27.3377134  51.4120589
 100.4920012  29.6514997  44.2419988 100.1610012  29.2814997  43.4239988
 101.0800012  28.9814997  44.5889988 100.5261873  29.5101156  44.1768102
 101.8580012  33.0794997  46.9239988 101.7640012  32.5014997  46.1669988
 102.5880012  32.7084997  47.4199988 101.9437981  32.9502390  46.8874165
 100.8580012  28.4204997  47.8759988 101.4240012  28.5414997  47.1129988
 101.1770012  29.0574997  48.5149988 100.9785786  28.5231884  47.8580040
 107.1670012  33.9234997  48.6099988 106.9270012  34.5854997  49.2579988
 106.9690012  33.0894997  49.0349988 107.1073808  33.9013134  48.7561524
 101.7380012  32.8194997  52.5929988 101.4270012  33.6014997  53.0479988
 101.0880012  32.6664997  51.9069988 101.6075558  32.9059105  52.5625871
 107.7170012  28.1834997  40.0449988 108.2970012  28.3334997  40.7919988
 108.1310012  28.6544997  39.3219988 107.8522830  28.2676841  40.0494134
  98.6580012  29.0174997  51.8219988  98.7290012  29.6684997  52.5199988
  97.7680012  29.1204997  51.4869988  98.5473117  29.1205936  51.8722700
 105.4440012  34.9204997  43.4799988 105.9180012  35.2154997  44.2579988
 104.8810012  35.6584997  43.2469988 105.4327653  35.0606932  43.5550136
  99.9780012  34.8914997  53.3559988  99.9850012  34.7554997  52.4089988
  99.0620012  34.7734997  53.6079988  99.8551714  34.8569430  53.2604666
 111.4160012  19.9334997  39.8579988 110.5160012  20.0724997  40.1529988
 111.6680012  20.7644997  39.4559988 111.3268702  20.0649074  39.8440205
  99.4820012  28.7214997  41.8319988  99.1900012  29.4894997  41.3409988
  98.8080012  28.0614997  41.6689988  99.3509081  28.7374406  41.7427340
 112.6050012  34.2994997  38.2339988 112.6790012  35.2384997  38.4049988
 113.5110012  33.9944997  38.1779988 112.7375100  34.3866722  38.2498119
  95.5750012  31.0844997  50.6469988  95.0740012  31.0564997  49.8319988
  95.5800012  30.1784997  50.9559988  95.5071526  30.9582278  50.5772872
  95.3250012  33.8644997  47.5309988  96.2710012  33.7204997  47.5119988
  95.2130012  34.6484997  48.0679988  95.4392727  33.9508046  47.6010072
 113.5230012  34.5304997  53.2129988 113.4740012  33.5754997  53.1759988
 112.6960012  34.7984997  53.6139988 113.4044940  34.4358998  53.2621375
 104.5020012  34.1044997  52.0889988 104.5890012  34.9304997  52.5639988
 103.6380012  33.7744997  52.3379988 104.3971964  34.1729878  52.1876549
 104.9160012  37.8764997  41.8949988 104.8410012  37.7554997  40.9489988
 104.9490012  38.8264997  42.0139988 104.9101848  37.9882500  41.7814834
  98.5690012  36.6654997  43.6759988  98.7220012  36.3174997  44.5549988
  97.7190012  36.3094997  43.4209988  98.4748962  36.5696650  43.7618340
 108.0180012  37.0304997  38.8969988 108.3930012  36.2864997  38.4269988
 108.0220012  36.7604997  39.8159988 108.0698915  36.8921486  38.9567824
 107.6870012  36.9564997  41.6469988 106.7510012  37.0564997  41.8249988
 107.9670012  36.2474997  42.2249988 107.5968255  36.8742711  41.7495391
 110.6750012  26.0234997  53.6929988 110.2680012  26.5044997  52.9719988
 110.7160012  25.1184997  53.3849988 110.6248437  25.9669374  53.5526683
  97.8240012  32.4074997  51.6899988  98.0400012  32.0464997  52.5489988
  96.9690012  32.0334997  51.4799988  97.7379292  32.3074111  51.7793386
 100.4430012  20.8774997  47.6849988  99.5810012  20.7904997  47.2779988
 100.4200012  21.7334997  48.1129988 100.3220330  20.9812765  47.6871863
 105.1060012  20.5994997  51.0599988 105.5260012  20.1844997  51.8129988
 104.1730012  20.4214997  51.1769988 105.0373644  20.5185900  51.1789539
 108.4320012  24.3554997  51.9129988 107.9180012  24.2294997  52.7109988
 108.2770012  25.2674997  51.6689988 108.3406852  24.4616132  51.9892158
 109.1950012  29.2164997  37.6749988 109.2370012  28.9934997  36.7449988
 110.0440012  29.6154997  37.8649988 109.3155396  29.2399155  37.5733627
 104.7670012  23.0924997  38.3449988 104.5140012  23.1114997  39.2679988
 104.5110012  22.2204997  38.0439988 104.6977790  22.9772437  38.4306263
 100.5340012  25.8434997  48.7799988  99.8920012  25.8024997  49.4889988
 100.5710012  26.7694997  48.5429988 100.4511324  25.9631559  48.8449824
 100.5310012  26.0644997  43.6919988  99.6380012  25.7234997  43.6339988
 100.9810012  25.6874997  42.9369988 100.4697305  25.9668484  43.5819177
 106.0660012  26.4804997  42.5089988 105.6570012  27.2954997  42.2179988
 106.7870012  26.3404997  41.8949988 106.1074537  26.5732018  42.3861342
 105.1680012  26.6554997  53.9969988 104.6060012  25.9514997  54.3179988
 105.9950012  26.5354997  54.4649988 105.2027095  26.5427883  54.1042330
 107.0710012  25.9264997  45.3229988 106.8760012  26.5314997  44.6079988
 107.2520012  25.0924997  44.8889988 107.0687614  25.8966300  45.1664405
  98.2840012  26.1634997  50.6469988  98.2460012  26.5634997  51.5159988
  97.7930012  25.3464997  50.7379988  98.2124684  26.1078069  50.7781059
 101.6500012  23.5374997  37.4459988 101.2190012  23.0924997  38.1759988
 100.9320012  23.9094997  36.9339988 101.4939438  23.5268940  37.4766799
  94.8920012  23.2794997  44.4979988  95.5230012  23.2504997  45.2169988
  95.3410012  22.8544997  43.7679988  95.0390774  23.2180492  44.4976553
  96.1660012  24.0254997  39.9219988  96.6400012  24.6164997  39.3369988
  95.4490012  24.5564997  40.2689988  96.1339341  24.1780867  39.8888836
 106.3350012  27.5644997  49.9949988 106.6580012  26.9334997  49.3519988
 105.8950012  27.0294997  50.6549988 106.3196895  27.4058441  49.9962850
 103.1120012  23.4914997  44.7789988 102.2010012  23.5484997  45.0669988
 103.6180012  23.4314997  45.5889988 103.0555413  23.4911985  44.9280622
  97.9410012  25.1204997  43.6049988  97.0510012  25.2204997  43.2649988
  98.2370012  24.2784997  43.2589988  97.8592823  25.0203545  43.5117213
 101.5940012  25.1204997  41.2619988 102.5250012  25.2494997  41.4399988
 101.3790012  25.7904997  40.6119988 101.6924247  25.2286565  41.1985747
 107.5170012  22.7264997  48.0429988 106.8410012  22.8574997  48.7069988
 107.0320012  22.5714997  47.2329988 107.3587145  22.7234905  48.0244517
 100.2680012  26.3154997  38.8289988  99.7250012  25.9354997  38.1369988
 101.1010012  26.5094997  38.3999988 100.3064399  26.2898124  38.6764526
 110.8050012  38.3984997  54.3199988 111.0050012  38.8224997  53.4849988
 111.4600012  38.7414997  54.9269988 110.9210051  38.5029648  54.2877836
  98.4030012  30.8724997  53.9279988  99.1350012  31.1264997  54.4889988
  97.6230012  31.0764997  54.4429988  98.3978232  30.9349177  54.0745760
 104.4320012  26.2794997  46.6659988 104.9970012  25.7324997  46.1189988
 104.2850012  25.7574997  47.4539988 104.4892918  26.1342024  46.6978454
  99.4340012  22.4154997  43.0839988  99.1170012  21.5134997  43.0489988
 100.2160012  22.4174997  42.5309988  99.4962284  22.2921628  43.0044783
 103.0590012  24.6674997  49.0799988 102.2230012  25.1214997  49.1899988
 103.5830012  24.9434997  49.8319988 103.0154414  24.7669376  49.1967136
 103.6030012  30.8804997  40.7639988 102.8580012  30.3734997  40.4419988
 103.4690012  30.9294997  41.7109988 103.4828776  30.8176940  40.8478647
 110.7530012  30.0134997  49.5509988 111.3950012  30.4704997  49.0069988
 109.9230012  30.1264997  49.0879988 110.7285963  30.0912704  49.4140177
 107.5010012  23.6944997  38.9639988 106.5620012  23.8064997  38.8119988
 107.7980012  24.5514997  39.2699988 107.4127666  23.8256443  38.9845768
 105.1220012  31.0644997  52.0009988 104.7770012  30.6834997  52.8079988
 104.9220012  31.9984997  52.0729988 105.0478061  31.1385228  52.1210961
 108.2190012  25.5614997  40.6239988 109.1110012  25.4244997  40.9429988
 108.2760012  26.3524997  40.0879988 108.3486285  25.6496660  40.5951691
  98.7280012  30.1754997  46.5339988  99.4730012  30.1734997  45.9329988
  98.8060012  29.3524997  47.0159988  98.8405518  30.0639315  46.5168929
 105.7290012  32.3394997  39.7899988 105.4330012  33.1654997  40.1709988
 105.0260012  31.7194997  39.9859988 105.5934914  32.3688199  39.8686443
  95.7360012  28.6364997  51.8489988  95.9590012  28.2184997  52.6809988
  95.1340012  28.0234997  51.4259988  95.6851759  28.4964668  51.9057022
 102.7520012  28.1534997  54.0619988 102.4560012  27.9874997  53.1669988
 103.6840012  27.9334997  54.0509988 102.8374166  28.1010640  53.9380536
 107.3730012  33.5264997  51.9519988 106.4720012  33.7094997  51.6839988
 107.4070012  33.7854997  52.8729988 107.2543041  33.5865512  52.0398197
 113.1040012  25.7714997  40.3189988 112.5500012  25.3754997  39.6469988
 113.2040012  26.6814997  40.0409988 113.0417059  25.8403586  40.1894401
 113.0670012  31.5714997  53.1559988 112.2160012  31.8094997  52.7889988
 113.6580012  31.5544997  52.4029988 113.0302487  31.6018258  53.0038893
 111.3990012  34.5574997  40.7839988 111.0260012  33.7314997  41.0929988
 111.6770012  34.3744997  39.8869988 111.3855630  34.4197303  40.7049626
 108.5600012  29.3654997  47.8049988 107.6310012  29.1334997  47.7779988
 109.0110012  28.5884997  47.4749988 108.4939216  29.2287238  47.7566917
 101.1030012  33.6934997  43.9379988 101.6300012  34.4664997  43.7379988
 100.2230012  33.9184997  43.6369988 101.0561773  33.8298005  43.8699010
  96.8580012  28.5554997  38.5249988  97.4740012  29.1824997  38.9049988
  95.9960012  28.8714997  38.7969988  96.8257698  28.6839430  38.6137183
 102.5300012  31.3564997  43.5149988 102.2890012  32.2814997  43.5559988
 101.7890012  30.8974997  43.9109988 102.3968409  31.4211421  43.5741377
 103.0450012  35.5054997  49.8299988 103.4070012  36.3604997  49.5959988
 103.5760012  35.2134997  50.5699988 103.1664473  35.5831060  49.8980855
 101.2130012  36.3784997  43.0599988 100.2630012  36.4834997  43.1109988
 101.5650012  37.1984997  43.4049988 101.1304203  36.5038314  43.1136650
 106.5890012  31.6044997  49.5299988 106.1630012  31.3774997  50.3569988
 107.1690012  30.8664997  49.3479988 106.6091868  31.4735299  49.6185830
 108.7920012  32.5334997  38.6039988 109.1450012  32.1534997  39.4089988
 107.8430012  32.4404997  38.6909988 108.7120441  32.4689596  38.7258559
 109.2470012  36.1564997  51.9999988 108.6460012  35.6014997  51.5039988
 109.5290012  36.8234997  51.3739988 109.2028519  36.1706841  51.8474952
 113.2950012  37.0134997  38.8049988 114.0390012  37.5994997  38.6649988
 112.6010012  37.5814997  39.1389988 113.3030292  37.1705582  38.8309961
  97.3700012  23.3894997  51.4069988  96.4770012  23.7284997  51.3389988
  97.2710012  22.5344997  51.8249988  97.2344164  23.3202588  51.4542235
 109.6580012  31.2064997  40.8309988 109.3800012  30.4784997  41.3869988
 110.5850012  31.3254997  41.0359988 109.7453124  31.1228802  40.9348845
  97.0210012  35.1944997  49.8419988  97.2380012  34.2624997  49.8109988
  97.2670012  35.4684997  50.7249988  97.0839549  35.1040636  49.9571763
 102.8830012  33.6454997  37.0509988 103.1220012  32.8974997  36.5039988
 102.6140012  33.2574997  37.8839988 102.8793675  33.4906638  37.0886865
 101.8200012  33.2154997  39.5079988 101.9660012  32.6954997  40.2979988
 101.8170012  34.1224997  39.8139988 101.8395989  33.2668853  39.6576088
  98.2730012  30.4684997  40.0179988  97.5870012  30.8204997  40.5849988
  98.7950012  31.2314997  39.7709988  98.2496852  30.6198578  40.0622118
 106.1040012  23.1304997  50.2969988 106.8030012  23.2044997  50.9469988
 105.7230012  22.2664997  50.4509988 106.1481767  23.0237624  50.4068322
 106.8890012  22.7824997  41.3939988 107.1090012  23.2544997  40.5909988
 107.4470012  23.1774997  42.0639988 106.9944968  22.9004285  41.3747331
 104.5570012  34.9134997  40.2569988 103.7410012  35.4104997  40.3089988
 105.0870012  35.3884997  39.6169988 104.5169161  35.0457722  40.1775956
 104.0890012  24.5104997  42.2289988 104.9010012  25.0154997  42.2749988
 103.8440012  24.3654997  43.1429988 104.1670520  24.5600375  42.3588517
 104.6240012  25.4964997  51.4139988 104.7430012  26.0704997  52.1709988
 105.2800012  24.8084997  51.5279988 104.7289757  25.4821079  51.5330825
 104.9720012  21.5914997  43.1669988 104.6260012  22.2094997  43.8119988
 105.6310012  22.0924997  42.6859988 105.0137826  21.7435802  43.1900971
 101.8960012  35.9574997  40.2389988 102.0560012  36.7564997  39.7379988
 101.6980012  36.2634997  41.1239988 101.8911649  36.1084469  40.2899815
 100.6300012  22.6544997  39.8539988 100.5470012  23.5434997  40.2009988
 101.5200012  22.3894997  40.0859988 100.7389469  22.7401430  39.9327626
 110.8290012  23.4034997  52.2489988 109.9120012  23.6664997  52.1609988
 111.1640012  23.4004997  51.3519988 110.7489900  23.4390224  52.1157919
 109.4310012  27.1544997  46.3439988 108.6330012  26.7394997  46.0159988
 109.8760012  26.4634997  46.8349988 109.3819885  27.0043543  46.3654889
  98.8890012  33.0824997  38.9149988  99.4810012  33.7814997  39.1909988
  99.3480012  32.6494997  38.1949988  99.0321142  33.1197049  38.8554830
  97.2050012  25.7464997  38.0309988  97.1600012  26.6854997  38.2089988
  96.3170012  25.5104997  37.7609988  97.0788574  25.8431892  38.0188912
 110.5170012  36.4104997  47.9669988 110.3620012  37.0884997  47.3099988
 111.4500012  36.4824997  48.1699988 110.6218500  36.5130170  47.9045119
  98.0130012  20.5284997  46.7039988  97.7840012  20.5874997  45.7759988
  97.5700012  19.7364997  47.0099988  97.9218530  20.4295753  46.6184786
  96.9430012  34.4684997  42.8639988  96.1110012  34.9414997  42.8919988
  97.4890012  34.9784997  42.2659988  96.9029739  34.6021871  42.7869716
  96.2310012  37.0814997  54.1939988  96.7720012  36.8644997  54.9539988
  95.7500012  36.2754997  54.0049988  96.2399345  36.9429514  54.2723076
 100.8290012  36.0004997  55.8149988 101.5960012  35.5414997  56.1559988
 100.8070012  35.7744997  54.8849988 100.9311434  35.9070409  55.7360043
 104.9210012  35.5084997  37.1899988 104.2770012  34.8774997  37.5109988
 105.6830012  34.9774997  36.9579988 104.9358077  35.3502920  37.2026011
 107.4060012  34.3804997  54.5439988 107.0550012  33.5244997  54.7869988
 108.1320012  34.5234997  55.1509988 107.4560769  34.2825636  54.6593619
 109.5250012  35.3254997  37.4239988 109.8080012  34.5314997  37.8759988
 110.2650012  35.5584997  36.8629988 109.6637486  35.2482803  37.4100698
  96.1380012  30.8914997  55.1489988  96.2820012  29.9894997  54.8619988
  95.3660012  31.1774997  54.6609988  96.0533322  30.8068261  55.0437881
 100.4800012  31.2354997  37.2809988 100.5440012  30.4414997  37.8119988
 101.1330012  31.1164997  36.5909988 100.5770241  31.1107148  37.2604317
 102.7940012  30.8614997  54.5809988 102.4650012  31.1324997  53.7239988
 102.9460012  29.9204997  54.4939988 102.7694809  30.7713862  54.4518244
 105.8320012  32.2824997  37.0169988 105.5630012  32.4624997  37.9179988
 105.6260012  31.3564997  36.8859988 105.7673825  32.1820152  37.1225214
 108.5280012  30.7774997  51.9649988 109.2740012  31.3654997  51.8449988
 107.7710012  31.3594997  52.0279988 108.5277554  30.9367011  51.9570907
  96.9710012  28.0914997  54.5689988  97.3790012  27.2344997  54.4479988
  96.7110012  28.1064997  55.4899988  96.9917568  27.9760807  54.6769588
 101.6290012  29.2074997  39.5869988 101.1690012  28.7234997  40.2729988
 101.8840012  28.5394997  38.9509988 101.6004902  29.0508731  39.5949334
 100.9180012  27.1004997  51.9429988 100.3000012  27.7754997  52.2229988
 101.2620012  27.4214997  51.1099988 100.8799615  27.2362721  51.8686581
 102.7000012  27.4504997  37.8489988 102.5200012  27.2964997  36.9219988
 103.6500012  27.5584997  37.8939988 102.8037776  27.4440175  37.7281843
 105.9380012  29.5724997  55.2199988 106.8910012  29.6554997  55.1929988
 105.7770012  28.8604997  55.8399988 106.0466426  29.4876746  55.3000579
 112.0900012  29.8054997  37.2949988 111.8160012  29.3804997  36.4819988
 112.1290012  30.7364997  37.0779988 112.0577699  29.8732484  37.1543610
 101.2570012  24.4554997  53.0249988 101.4070012  23.7264997  52.4229988
 101.2600012  25.2324997  52.4659988 101.2779302  24.4607851  52.8670692
 101.6700012  22.8254997  50.5179988 102.2060012  23.2764997  49.8659988
 100.8180012  22.7174997  50.0949988 101.6282178  22.8726390  50.3715756
 103.2520012  28.2644997  50.7569988 104.0020012  28.1084997  50.1839988
 102.9130012  29.1164997  50.4819988 103.3088921  28.3582968  50.6413561
 107.6670012  26.0794997  55.7859988 107.8600012  25.1484997  55.6739988
 108.5250012  26.5044997  55.7759988 107.8093020  26.0096389  55.7693361
 108.9840012  28.8684997  53.8629988 108.7030012  29.5774997  53.2859988
 109.9270012  28.7954997  53.7119988 109.0729027  28.9557646  53.7635551
  99.7360012  25.6534997  54.9369988  98.9690012  25.1214997  54.7269988
 100.4150012  25.3434997  54.3369988  99.7227022  25.5387506  54.8271648
 102.4760012  20.2814997  50.9489988 102.3770012  21.2284997  50.8439988
 101.7330012  19.9094997  50.4739988 102.3620563  20.3605902  50.8704560
 103.7400012  24.6034997  54.5129988 103.5040012  24.3834997  55.4149988
 102.9560012  24.3964997  54.0029988 103.6018628  24.5454760  54.5673932
 106.4550012  23.7304997  53.5889988 105.5080012  23.7624997  53.7209988
 106.7680012  23.1054997  54.2419988 106.3675475  23.6503207  53.6954455
 108.0890012  22.3644997  55.5939988 107.9930012  21.4124997  55.5879988
 107.7680012  22.6334997  56.4539988 108.0324070  22.2704035  55.7095441
  97.9160012  23.5744997  54.6409988  98.1280012  22.8674997  54.0309988
  97.8050012  23.1364997  55.4849988  97.9299721  23.4187084  54.6716843
 102.6970012  19.5754997  53.6209988 103.4090012  18.9354997  53.6069988
 102.5960012  19.8424997  52.7069988 102.7807939  19.5239938  53.4955650
 103.0510012  21.2584997  55.6739988 102.9190012  20.7824997  54.8539988
 102.4520012  22.0024997  55.6189988 102.9519071  21.2939618  55.5542886
 102.5970012  38.1414997  38.8509988 103.5300012  38.2994997  38.9939988
 102.3330012  38.8164997  38.2259988 102.6889510  38.2543611  38.7860741
  96.1660012  32.7774997  38.3329988  97.0800012  32.8564997  38.6069988
  96.1730012  32.0904997  37.6669988  96.2921131  32.6953961  38.2804393
  94.8150012  38.1704997  43.4109988  94.1680012  37.7084997  42.8779988
  95.1690012  37.4984997  43.9929988  94.7743849  38.0164723  43.4167959
  95.6850012  36.2514997  45.2149988  95.3500012  35.3714997  45.3869988
  95.9070012  36.5964997  46.0799988  95.6691783  36.1777500  45.3554208
 113.2330012  37.0604997  48.1959988 113.2120012  37.2454997  49.1349988
 113.9240012  37.6294997  47.8549988 113.3234618  37.1626606  48.2783864
 112.7970012  36.6284997  51.1179988 112.3090012  35.8924997  50.7469988
 113.3460012  36.2344997  51.7959988 112.8044872  36.4746249  51.1589160
 111.2470012  32.4174997  55.7559988 110.3810012  32.3124997  56.1499988
 111.6240012  33.1764997  56.2019988 111.1793308  32.5056900  55.8702393
 112.5480012  30.6744997  41.2699988 113.3980012  31.0954997  41.3969988
 112.5540012  29.9344997  41.8769988 112.6651372  30.6320803  41.3694344
 112.9430012  28.7274997  43.0939988 112.2160012  28.2484997  43.4909988
 113.5240012  28.9334997  43.8259988 112.9219375  28.6897090  43.2474129
 112.7020012  31.5124997  48.0409988 113.5350012  31.1344997  47.7609988
 112.8140012  32.4554997  47.9219988 112.8312647  31.5882218  47.9865487
 111.1880012  34.3904997  50.3479988 110.5410012  34.7154997  50.9739988
 110.6710012  33.9504997  49.6739988 111.0294029  34.3755004  50.3425827
 113.2110012  28.6284997  39.4849988 112.6890012  28.9854997  38.7659988
 113.1780012  29.3034997  40.1629988 113.1351634  28.7685413  39.4783145
 111.5600012  25.8684997  38.0359988 111.6560012  26.5354997  37.3549988
 111.4200012  25.0524997  37.5539988 111.5542135  25.8494500  37.8778491
 110.7290012  27.2484997  43.6569988 110.5790012  26.3034997  43.6359988
 110.3760012  27.5294997  44.4999988 110.6606625  27.1570441  43.7682346
  95.7650012  29.3264997  47.6669988  95.9490012  29.2444997  46.7309988
  96.6140012  29.2024997  48.0909988  95.9050139  29.2985003  47.5961455
 111.5860012  29.2184997  53.2949988 112.1690012  28.4844997  53.4869988
 112.1500012  29.9904997  53.3419988 111.7419769  29.2224227  53.3276159
 113.0820012  27.1214997  53.9799988 112.2190012  26.7424997  53.8139988
 113.6870012  26.3824997  53.9059988 113.0455979  26.9698023  53.9472817
 110.8070012  23.2764997  37.1529988 111.4180012  22.9054997  37.7899988
 109.9710012  22.8554997  37.3489988 110.7775032  23.1687554  37.2667035
 110.4400012  24.8314997  42.1189988 110.7200012  23.9244997  42.2429988
 111.1990012  25.2654997  41.7299988 110.5809277  24.7660942  42.0833682
 111.0520012  25.4124997  47.5549988 111.9850012  25.6244997  47.5209988
 110.8170012  25.5144997  48.4769988 111.1478036  25.4552769  47.6749976
 111.0810012  26.1494997  50.3309988 110.2380012  26.4174997  50.6969988
 111.5230012  26.9714997  50.1199988 111.0254158  26.2973291  50.3525491
  95.3620012  24.5974997  53.8079988  96.2820012  24.4754997  54.0439988
  94.9130012  23.8474997  54.1969988  95.4271580  24.4793727  53.8929006
 113.3640012  20.1294997  55.6839988 113.7140012  19.4754997  55.0789988
 113.5110012  20.9664997  55.2449988 113.4318419  20.1531591  55.5417118
 111.0530012  22.0944997  42.1669988 111.2360012  21.6454997  42.9929988
 110.4540012  21.5094997  41.7039988 110.9970202  21.9539975  42.2173275
  96.5830012  22.9094997  46.6989988  97.0290012  22.1174997  47.0009988
  97.0500012  23.6254997  47.1299988  96.7070172  22.8980624  46.7984820
  94.8870012  25.9084997  47.7679988  95.3790012  25.6874997  46.9769988
  95.2500012  26.7494997  48.0489988  95.0033126  25.9918357  47.6977531
 112.8840012  22.2384997  54.0339988 111.9660012  22.5094997  53.9979988
 113.0070012  21.7034997  53.2489988 112.7751066  22.2032892  53.9230487
 112.9200012  22.1614997  38.6949988 113.3320012  21.4404997  38.2199988
 113.6020012  22.8314997  38.7539988 113.0685885  22.1532368  38.6378915
  95.2010012  22.1664997  41.8219988  94.2760012  22.3754997  41.6929988
  95.6550012  22.6504997  41.1329988  95.1357368  22.2605993  41.7111226
 109.9720012  37.1504997  43.7679988 110.6240012  36.8034997  43.1599988
 110.4820012  37.6394997  44.4139988 110.1302637  37.1690597  43.7720236
  95.1650012  20.9044997  50.1669988  94.5000012  20.6584997  50.8099988
  94.7220012  21.5264997  49.5889988  95.0140956  20.9548632  50.1769352
  97.3570012  34.0794997  54.3109988  96.5360012  34.2544997  53.8509988
  97.1040012  34.0064997  55.2319988  97.2106164  34.0935622  54.3724923
 100.3110012  35.0544997  50.5699988  99.8860012  35.8634997  50.2869988
 101.2150012  35.1394997  50.2679988 100.3750271  35.1768469  50.4903776
 104.6220012  36.4534997  53.5289988 104.8070012  36.1194997  54.4069988
 105.4680012  36.7624997  53.2069988 104.7617539  36.4496047  53.6055605
 106.9670012  37.7394997  52.7729988 107.6440012  37.1064997  52.5329988
 107.2890012  38.1404997  53.5799988 107.1031637  37.7071154  52.8492793
 111.8840012  20.3284997  51.8529988 111.0720012  20.6534997  51.4649988
 112.1170012  19.5684997  51.3199988 111.8043423  20.2702436  51.7278253
  97.7130012  38.3104997  50.6169988  96.9920012  38.7504997  50.1659988
  97.3470012  38.0594997  51.4659988  97.5649804  38.3367698  50.6699840
 100.1800012  37.9104997  49.6469988  99.3150012  37.9824997  50.0509988
 100.1250012  38.4574997  48.8629988 100.0542085  37.9942685  49.5963362
 104.8900012  37.7984997  48.8219988 104.4340012  38.3274997  48.1679988
 105.0530012  38.4014997  49.5479988 104.8495585  37.9524468  48.8305062
 107.2180012  36.6764997  49.7669988 106.3130012  36.8414997  49.5019988
 107.6470012  37.5294997  49.7019988 107.1520799  36.8144483  49.7219182
 109.8220012  38.2464997  50.0619988 109.6400012  39.1624997  49.8519988
 109.9990012  37.8364997  49.2159988 109.8210210  38.3164822  49.9187885
  97.1270012  36.9334997  47.5269988  97.1090012  36.5084997  48.3849988
  97.9320012  36.6154997  47.1189988  97.2333875  36.8323812  47.5891655
  99.2690012  35.6434997  46.1819988  99.0500012  34.7274997  46.3519988
 100.0930012  35.7834997  46.6479988  99.3504420  35.5370520  46.2682774
 101.8060012  36.1134997  47.0309988 102.0190012  35.2254997  46.7439988
 101.8700012  36.0794997  47.9849988 101.8438232  35.9873102  47.1207397
 105.3140012  21.7774997  46.1749988 104.6400012  21.1484997  46.4309988
 105.8780012  21.2934997  45.5719988 105.2979230  21.6258744  46.1285340
 110.4570012  19.8854997  46.2879988 111.0610012  20.4324997  45.7859988
 109.5870012  20.2044997  46.0479988 110.4221241  20.0035806  46.1867654
 112.1840012  21.0234997  44.6209988 112.7960012  20.5094997  44.0949988
 112.5660012  21.9014997  44.6449988 112.3194540  21.0717140  44.5521830
  97.6410012  20.4114997  43.9969988  96.8640012  20.1774997  43.4899988
  98.1710012  19.6144997  44.0059988  97.6062330  20.2716988  43.9287742
  96.4770012  20.2094997  39.8009988  96.9160012  20.8204997  39.2089988
  95.8440012  20.7474997  40.2749988  96.4514514  20.3659257  39.7840930
 102.2200012  20.3384997  43.8109988 103.0950012  20.7264997  43.7809988
 102.0840012  20.1234997  44.7329988 102.3213695  20.3625184  43.9316440
 107.7770012  20.3684997  45.4599988 107.8530012  20.4634997  44.5099988
 107.5020012  19.4604997  45.5889988 107.7502321  20.2587867  45.3475079
 109.1300012  20.3944997  41.1519988 108.4280012  21.0094997  40.9429988
 108.6860012  19.5564997  41.2829988 108.9736330  20.3655783  41.1410328
  96.3780012  36.1574997  40.6989988  95.6930012  36.1194997  40.0309988
  96.3820012  37.0704997  40.9869988  96.2848193  36.2757016  40.6465284
  98.3380012  22.1254997  38.2429988  98.8300012  21.4954997  37.7159988
  98.9620012  22.4214997  38.9069988  98.4895446  22.0793199  38.2605980
 103.3640012  22.4184997  40.6999988 103.5420012  21.7724997  41.3829988
 103.3110012  23.2524997  41.1679988 103.3811829  22.4427985  40.8565940
 105.2430012  37.3674997  39.0959988 106.1090012  37.7334997  38.9179988
 104.9960012  36.9274997  38.2819988 105.3282392  37.3581756  38.9616289
 111.9520012  36.9304997  41.7749988 111.7570012  36.1824997  41.2099988
 111.9130012  37.6884997  41.1919988 111.9200380  36.9306099  41.6188384
  97.5990012  20.9254997  53.5149988  97.2330012  20.1604997  53.9579988
  98.5120012  20.9544997  53.8019988  97.6722790  20.8247224  53.6144070
  99.5720012  20.2764997  55.0509988 100.4700012  20.0024997  54.8659988
  99.1850012  19.5334997  55.5149988  99.6426612  20.1385914  55.0883643
  98.1960012  37.0774997  37.7239988  97.9290012  37.3644997  38.5969988
  98.9680012  36.5314997  37.8759988  98.2637488  37.0430294  37.8641050
 107.9930012  19.6084997  55.2329988 108.0700012  19.1824997  56.0869988
 108.8870012  19.6224997  54.8899988 108.1243428  19.5520880  55.3035310
 111.1690012  35.6814997  53.9249988 110.3870012  35.4954997  53.4059988
 111.0970012  36.6104997  54.1429988 111.0521777  35.7816492  53.8834048
 125.5750012  29.5674997  43.9559988 125.6640012  30.5114997  43.8239988
 124.9370012  29.2924997  43.2979988 125.5009081  29.6594830  43.8489614
 124.5080012  28.8224997  47.3749988 124.4700012  28.1764997  48.0799988
 124.1860012  28.3564997  46.6039988 124.4592333  28.6709408  47.3672978
 116.8770012  28.4374997  48.9679988 116.9180012  27.8114997  49.6909988
 117.5800012  29.0614997  49.1499988 116.9776363  28.4361196  49.0916044
 128.2140012  31.7614997  45.6759988 127.7740012  31.0414997  46.1269988
 128.2010012  32.4824997  46.3059988 128.1520226  31.7603731  45.8228494
 117.8000012  32.8874997  47.5029988 117.4310012  32.0854997  47.1329988
 118.7410012  32.7184997  47.5489988 117.8767289  32.7550153  47.4586316
 114.4100012  26.5474997  42.8959988 113.9630012  27.3934997  42.8769988
 113.8490012  25.9674997  42.3799988 114.2729900  26.5849916  42.8236801
 115.1210012  28.7094997  45.0219988 115.3340012  27.9394997  45.5489988
 115.8590012  28.7984997  44.4179988 115.2498496  28.6161394  45.0125300
 125.3260012  36.8664997  45.8889988 125.9460012  36.1894997  45.6149988
 125.1180012  36.6484997  46.7969988 125.3826904  36.7443870  45.9743365
 122.8980012  31.2554997  47.7809988 123.2020012  30.5694997  47.1859988
 123.6190012  31.3734997  48.3989988 123.0370671  31.1776305  47.7831816
 131.5610012  22.8564997  48.6419988 131.6100012  23.4664997  49.3779988
 131.9860012  23.3174997  47.9189988 131.6251824  23.0023741  48.6450205
 126.0390012  25.6494997  48.1089988 126.1810012  24.7034997  48.1289988
 125.9320012  25.8564997  47.1799988 126.0439864  25.5479534  47.9862339
 119.1930012  23.7504997  45.3809988 119.2370012  24.6104997  44.9629988
 118.7360012  23.1984997  44.7469988 119.1372185  23.7935799  45.2380299
 126.9160012  23.8814997  43.7819988 127.5620012  23.5524997  44.4069988
 127.4260012  24.3994997  43.1589988 127.0734264  23.9064611  43.7833862
 115.8140012  26.1474997  46.1429988 116.4670012  25.5974997  46.5749988
 115.8380012  25.8734997  45.2259988 115.9066683  26.0351466  46.0782123
 120.9700012  27.6974997  45.3579988 121.5860012  27.1714997  45.8679988
 120.3840012  27.0574997  44.9549988 120.9750810  27.5389208  45.3733173
 131.9520012  24.3344997  50.8779988 131.2640012  24.9924997  50.7819988
 131.9680012  24.1374997  51.8139988 131.8598525  24.3980462  50.9914808
 118.0040012  22.6684997  49.4549988 117.7850012  23.1984997  48.6889988
 117.3360012  22.8954997  50.1019988 117.8837600  22.7716906  49.4376379
 125.3730012  32.1684997  42.9989988 125.0770012  31.8464997  42.1479988
 125.0480012  33.0684997  43.0399988 125.2886371  32.2460215  42.8881801
 120.5730012  30.3444997  49.7419988 119.8330012  30.9424997  49.8459988
 121.2870012  30.8984997  49.4269988 120.5682237  30.5012831  49.7136465
 128.6800012  23.1724997  45.7619988 128.4640012  22.4064997  46.2949988
 129.3350012  23.6444997  46.2749988 128.7390632  23.1315889  45.9042861
 117.5970012  24.5604997  47.4069988 118.2110012  25.1934997  47.7809988
 118.1090012  24.0884997  46.7509988 117.7502296  24.5832370  47.3694252
 118.9800012  32.3084997  50.5299988 118.9750012  33.1884997  50.1519988
 118.1270012  32.2254997  50.9549988 118.8639464  32.4176117  50.5357907
 115.1010012  31.9794997  41.3119988 114.8290012  32.2084997  40.4229988
 115.1470012  32.8174997  41.7719988 115.0700094  32.1241213  41.2525697
 128.7260012  33.6014997  48.0239988 127.7850012  33.6594997  48.1859988
 129.0030012  34.5074997  47.8869988 128.6344679  33.7319443  48.0276815
 129.0270012  21.8874997  49.4419988 128.2910012  22.4984997  49.4039988
 129.7100012  22.3024997  48.9149988 129.0186541  22.0271374  49.3655832
 122.0300012  19.9744997  46.9079988 121.9130012  19.0254997  46.8529988
 121.1750012  20.3064997  47.1809988 121.8983733  19.8895409  46.9373897
 126.9780012  35.3824997  44.6499988 127.4040012  34.6754997  44.1649988
 127.2950012  36.1834997  44.2329988 127.0791019  35.3940994  44.5273130
 128.1380012  33.2834997  43.1579988 127.8800012  32.5934997  42.5469988
 128.2090012  32.8404997  44.0039988 128.1122856  33.1292124  43.1886885
 129.8240012  31.8494997  51.6359988 129.9640012  31.2584997  50.8959988
 129.9910012  32.7224997  51.2789988 129.8656778  31.8866426  51.4866965
 124.2970012  28.8114997  41.4079988 123.5850012  29.3464997  41.0559988
 124.9880012  28.8674997  40.7479988 124.2930132  28.8922543  41.2706289
 124.3500012  27.2694997  38.4469988 125.0510012  27.2914997  39.0979988
 124.6530012  26.6414997  37.7909988 124.4867830  27.1876566  38.4473711
 131.6660012  28.1894997  49.7019988 131.0130012  28.8844997  49.7909988
 132.1310012  28.3994997  48.8919988 131.6395390  28.3129425  49.6046883
 127.7020012  29.0214997  42.3599988 126.9700012  29.2494997  42.9329988
 128.1500012  28.3074997  42.8149988 127.6623095  28.9562571  42.4999119
 127.6000012  27.1954997  51.4269988 127.6800012  27.9584997  51.9989988
 126.9980012  27.4744997  50.7369988 127.5295756  27.3377134  51.4120589
 119.3480012  29.6514997  44.2419988 119.0170012  29.2814997  43.4239988
 119.9360012  28.9814997  44.5889988 119.3821873  29.5101156  44.1768102
 120.7140012  33.0794997  46.9239988 120.6200012  32.5014997  46.1669988
 121.4440012  32.7084997  47.4199988 120.7997981  32.9502390  46.8874165
 119.7140012  28.4204997  47.8759988 120.2800012  28.5414997  47.1129988
 120.0330012  29.0574997  48.5149988 119.8345786  28.5231884  47.8580040
 126.0230012  33.9234997  48.6099988 125.7830012  34.5854997  49.2579988
 125.8250012  33.0894997  49.0349988 125.9633808  33.9013134  48.7561524
 120.5940012  32.8194997  52.5929988 120.2830012  33.6014997  53.0479988
 119.9440012  32.6664997  51.9069988 120.4635558  32.9059105  52.5625871
 126.5730012  28.1834997  40.0449988 127.1530012  28.3334997  40.7919988
 126.9870012  28.6544997  39.3219988 126.7082830  28.2676841  40.0494134
 117.5140012  29.0174997  51.8219988 117.5850012  29.6684997  52.5199988
 116.6240012  29.1204997  51.4869988 117.4033117  29.1205936  51.8722700
 124.3000012  34.9204997  43.4799988 124.7740012  35.2154997  44.2579988
 123.7370012  35.6584997  43.2469988 124.2887653  35.0606932  43.5550136
 118.8340012  34.8914997  53.3559988 118.8410012  34.7554997  52.4089988
 117.9180012  34.7734997  53.6079988 118.7111714  34.8569430  53.2604666
 130.2720012  19.9334997  39.8579988 129.3720012  20.0724997  40.1529988
 130.5240012  20.7644997  39.4559988 130.1828702  20.0649074  39.8440205
 118.3380012  28.7214997  41.8319988 118.0460012  29.4894997  41.3409988
 117.6640012  28.0614997  41.6689988 118.2069081  28.7374406  41.7427340
 131.4610012  34.2994997  38.2339988 131.5350012  35.2384997  38.4049988
 132.3670012  33.9944997  38.1779988 131.5935100  34.3866722  38.2498119
 114.4310012  31.0844997  50.6469988 113.9300012  31.0564997  49.8319988
 114.4360012  30.1784997  50.9559988 114.3631526  30.9582278  50.5772872
 114.1810012  33.8644997  47.5309988 115.1270012  33.7204997  47.5119988
 114.0690012  34.6484997  48.0679988 114.2952727  33.9508046  47.6010072
 132.3790012  34.5304997  53.2129988 132.3300012  33.5754997  53.1759988
 131.5520012  34.7984997  53.6139988 132.2604940  34.4358998  53.2621375
 123.3580012  34.1044997  52.0889988 123.4450012  34.9304997  52.5639988
 122.4940012  33.7744997  52.3379988 123.2531964  34.1729878  52.1876549
 123.7720012  37.8764997  41.8949988 123.6970012  37.7554997  40.9489988
 123.8050012  38.8264997  42.0139988 123.7661848  37.9882500  41.7814834
 117.4250012  36.6654997  43.6759988 117.5780012  36.3174997  44.5549988
 116.5750012  36.3094997  43.4209988 117.3308962  36.5696650  43.7618340
 126.8740012  37.0304997  38.8969988 127.2490012  36.2864997  38.4269988
 126.8780012  36.7604997  39.8159988 126.9258915  36.8921486  38.9567824
 126.5430012  36.9564997  41.6469988 125.6070012  37.0564997  41.8249988
 126.8230012  36.2474997  42.2249988 126.4528255  36.8742711  41.7495391
 129.5310012  26.0234997  53.6929988 129.1240012  26.5044997  52.9719988
 129.5720012  25.1184997  53.3849988 129.4808437  25.9669374  53.5526683
 116.6800012  32.4074997  51.6899988 116.8960012  32.0464997  52.5489988
 115.8250012  32.0334997  51.4799988 116.5939292  32.3074111  51.7793386
 119.2990012  20.8774997  47.6849988 118.4370012  20.7904997  47.2779988
 119.2760012  21.7334997  48.1129988 119.1780330  20.9812765  47.6871863
 123.9620012  20.5994997  51.0599988 124.3820012  20.1844997  51.8129988
 123.0290012  20.4214997  51.1769988 123.8933644  20.5185900  51.1789539
 127.2880012  24.3554997  51.9129988 126.7740012  24.2294997  52.7109988
 127.1330012  25.2674997  51.6689988 127.1966852  24.4616132  51.9892158
 128.0510012  29.2164997  37.6749988 128.0930012  28.9934997  36.7449988
 128.9000012  29.6154997  37.8649988 128.1715396  29.2399155  37.5733627
 123.6230012  23.0924997  38.3449988 123.3700012  23.1114997  39.2679988
 123.3670012  22.2204997  38.0439988 123.5537790  22.9772437  38.4306263
 119.3900012  25.8434997  48.7799988 118.7480012  25.8024997  49.4889988
 119.4270012  26.7694997  48.5429988 119.3071324  25.9631559  48.8449824
 119.3870012  26.0644997  43.6919988 118.4940012  25.7234997  43.6339988
 119.8370012  25.6874997  42.9369988 119.3257305  25.9668484  43.5819177
 124.9220012  26.4804997  42.5089988 124.5130012  27.2954997  42.2179988
 125.6430012  26.3404997  41.8949988 124.9634537  26.5732018  42.3861342
 124.0240012  26.6554997  53.9969988 123.4620012  25.9514997  54.3179988
 124.8510012  26.5354997  54.4649988 124.0587095  26.5427883  54.1042330
 125.9270012  25.9264997  45.3229988 125.7320012  26.5314997  44.6079988
 126.1080012  25.0924997  44.8889988 125.9247614  25.8966300  45.1664405
 117.1400012  26.1634997  50.6469988 117.1020012  26.5634997  51.5159988
 116.6490012  25.3464997  50.7379988 117.0684684  26.1078069  50.7781059
 120.5060012  23.5374997  37.4459988 120.0750012  23.0924997  38.1759988
 119.7880012  23.9094997  36.9339988 120.3499438  23.5268940  37.4766799
 113.7480012  23.2794997  44.4979988 114.3790012  23.2504997  45.2169988
 114.1970012  22.8544997  43.7679988 113.8950774  23.2180492  44.4976553
 115.0220012  24.0254997  39.9219988 115.4960012  24.6164997  39.3369988
 114.3050012  24.5564997  40.2689988 114.9899341  24.1780867  39.8888836
 125.1910012  27.5644997  49.9949988 125.5140012  26.9334997  49.3519988
 124.7510012  27.0294997  50.6549988 125.1756895  27.4058441  49.9962850
 121.9680012  23.4914997  44.7789988 121.0570012  23.5484997  45.0669988
 122.4740012  23.4314997  45.5889988 121.9115413  23.4911985  44.9280622
 116.7970012  25.1204997  43.6049988 115.9070012  25.2204997  43.2649988
 117.0930012  24.2784997  43.2589988 116.7152823  25.0203545  43.5117213
 120.4500012  25.1204997  41.2619988 121.3810012  25.2494997  41.4399988
 120.2350012  25.7904997  40.6119988 120.5484247  25.2286565  41.1985747
 126.3730012  22.7264997  48.0429988 125.6970012  22.8574997  48.7069988
 125.8880012  22.5714997  47.2329988 126.2147145  22.7234905  48.0244517
 119.1240012  26.3154997  38.8289988 118.5810012  25.9354997  38.1369988
 119.9570012  26.5094997  38.3999988 119.1624399  26.2898124  38.6764526
 129.6610012  38.3984997  54.3199988 129.8610012  38.8224997  53.4849988
 130.3160012  38.7414997  54.9269988 129.7770051  38.5029648  54.2877836
 117.2590012  30.8724997  53.9279988 117.9910012  31.1264997  54.4889988
 116.4790012  31.0764997  54.4429988 117.2538232  30.9349177  54.0745760
 123.2880012  26.2794997  46.6659988 123.8530012  25.7324997  46.1189988
 123.1410012  25.7574997  47.4539988 123.3452918  26.1342024  46.6978454
 118.2900012  22.4154997  43.0839988 117.9730012  21.5134997  43.0489988
 119.0720012  22.4174997  42.5309988 118.3522284  22.2921628  43.0044783
 121.9150012  24.6674997  49.0799988 121.0790012  25.1214997  49.1899988
 122.4390012  24.9434997  49.8319988 121.8714414  24.7669376  49.1967136
 122.4590012  30.8804997  40.7639988 121.7140012  30.3734997  40.4419988
 122.3250012  30.9294997  41.7109988 122.3388776  30.8176940  40.8478647
 129.6090012  30.0134997  49.5509988 130.2510012  30.4704997  49.0069988
 128.7790012  30.1264997  49.0879988 129.5845963  30.0912704  49.4140177
 126.3570012  23.6944997  38.9639988 125.4180012  23.8064997  38.8119988
 126.6540012  24.5514997  39.2699988 126.2687666  23.8256443  38.9845768
 123.9780012  31.0644997  52.0009988 123.6330012  30.6834997  52.8079988
 123.7780012  31.9984997  52.0729988 123.9038061  31.1385228  52.1210961
 127.0750012  25.5614997  40.6239988 127.9670012  25.4244997  40.9429988
 127.1320012  26.3524997  40.0879988 127.2046285  25.6496660  40.5951691
 117.5840012  30.1754997  46.5339988 118.3290012  30.1734997  45.9329988
 117.6620012  29.3524997  47.0159988 117.6965518  30.0639315  46.5168929
 124.5850012  32.3394997  39.7899988 124.2890012  33.1654997  40.1709988
 123.8820012  31.7194997  39.9859988 124.4494914  32.3688199  39.8686443
 114.5920012  28.6364997  51.8489988 114.8150012  28.2184997  52.6809988
 113.9900012  28.0234997  51.4259988 114.5411759  28.4964668  51.9057022
 121.6080012  28.1534997  54.0619988 121.3120012  27.9874997  53.1669988
 122.5400012  27.9334997  54.0509988 121.6934166  28.1010640  53.9380536
 126.2290012  33.5264997  51.9519988 125.3280012  33.7094997  51.6839988
 126.2630012  33.7854997  52.8729988 126.1103041  33.5865512  52.0398197
 131.9600012  25.7714997  40.3189988 131.4060012  25.3754997  39.6469988
 132.0600012  26.6814997  40.0409988 131.8977059  25.8403586  40.1894401
 131.9230012  31.5714997  53.1559988 131.0720012  31.8094997  52.7889988
 132.5140012  31.5544997  52.4029988 131.8862487  31.6018258  53.0038893
 130.2550012  34.5574997  40.7839988 129.8820012  33.7314997  41.0929988
 130.5330012  34.3744997  39.8869988 130.2415630  34.4197303  40.7049626
 127.4160012  29.3654997  47.8049988 126.4870012  29.1334997  47.7779988
 127.8670012  28.5884997  47.4749988 127.3499216  29.2287238  47.7566917
 119.9590012  33.6934997  43.9379988 120.4860012  34.4664997  43.7379988
 119.0790012  33.9184997  43.6369988 119.9121773  33.8298005  43.8699010
 115.7140012  28.5554997  38.5249988 116.3300012  29.1824997  38.9049988
 114.8520012  28.8714997  38.7969988 115.6817698  28.6839430  38.6137183
 121.3860012  31.3564997  43.5149988 121.1450012  32.2814997  43.5559988
 120.6450012  30.8974997  43.9109988 121.2528409  31.4211421  43.5741377
 121.9010012  35.5054997  49.8299988 122.2630012  36.3604997  49.5959988
 122.4320012  35.2134997  50.5699988 122.0224473  35.5831060  49.8980855
 120.0690012  36.3784997  43.0599988 119.1190012  36.4834997  43.1109988
 120.4210012  37.1984997  43.4049988 119.9864203  36.5038314  43.1136650
 125.4450012  31.6044997  49.5299988 125.0190012  31.3774997  50.3569988
 126.0250012  30.8664997  49.3479988 125.4651868  31.4735299  49.6185830
 127.6480012  32.5334997  38.6039988 128.0010012  32.1534997  39.4089988
 126.6990012  32.4404997  38.6909988 127.5680441  32.4689596  38.7258559
 128.1030012  36.1564997  51.9999988 127.5020012  35.6014997  51.5039988
 128.3850012  36.8234997  51.3739988 128.0588519  36.1706841  51.8474952
 132.1510012  37.0134997  38.8049988 132.8950012  37.5994997  38.6649988
 131.4570012  37.5814997  39.1389988 132.1590292  37.1705582  38.8309961
 116.2260012  23.3894997  51.4069988 115.3330012  23.7284997  51.3389988
 116.1270012  22.5344997  51.8249988 116.0904164  23.3202588  51.4542235
 128.5140012  31.2064997  40.8309988 128.2360012  30.4784997  41.3869988
 129.4410012  31.3254997  41.0359988 128.6013124  31.1228802  40.9348845
 115.8770012  35.1944997  49.8419988 116.0940012  34.2624997  49.8109988
 116.1230012  35.4684997  50.7249988 115.9399549  35.1040636  49.9571763
 121.7390012  33.6454997  37.0509988 121.9780012  32.8974997  36.5039988
 121.4700012  33.2574997  37.8839988 121.7353675  33.4906638  37.0886865
 120.6760012  33.2154997  39.5079988 120.8220012  32.6954997  40.2979988
 120.6730012  34.1224997  39.8139988 120.6955989  33.2668853  39.6576088
 117.1290012  30.4684997  40.0179988 116.4430012  30.8204997  40.5849988
 117.6510012  31.2314997  39.7709988 117.1056852  30.6198578  40.0622118
 124.9600012  23.1304997  50.2969988 125.6590012  23.2044997  50.9469988
 124.5790012  22.2664997  50.4509988 125.0041767  23.0237624  50.4068322
 125.7450012  22.7824997  41.3939988 125.9650012  23.2544997  40.5909988
 126.3030012  23.1774997  42.0639988 125.8504968  22.9004285  41.3747331
 123.4130012  34.9134997  40.2569988 122.5970012  35.4104997  40.3089988
 123.9430012  35.3884997  39.6169988 123.3729161  35.0457722  40.1775956
 122.9450012  24.5104997  42.2289988 123.7570012  25.0154997  42.2749988
 122.7000012  24.3654997  43.1429988 123.0230520  24.5600375  42.3588517
 123.4800012  25.4964997  51.4139988 123.5990012  26.0704997  52.1709988
 124.1360012  24.8084997  51.5279988 123.5849757  25.4821079  51.5330825
 123.8280012  21.5914997  43.1669988 123.4820012  22.2094997  43.8119988
 124.4870012  22.0924997  42.6859988 123.8697826  21.7435802  43.1900971
 120.7520012  35.9574997  40.2389988 120.9120012  36.7564997  39.7379988
 120.5540012  36.2634997  41.1239988 120.7471649  36.1084469  40.2899815
 119.4860012  22.6544997  39.8539988 119.4030012  23.5434997  40.2009988
 120.3760012  22.3894997  40.0859988 119.5949469  22.7401430  39.9327626
 129.6850012  23.4034997  52.2489988 128.7680012  23.6664997  52.1609988
 130.0200012  23.4004997  51.3519988 129.6049900  23.4390224  52.1157919
 128.2870012  27.1544997  46.3439988 127.4890012  26.7394997  46.0159988
 128.7320012  26.4634997  46.8349988 128.2379885  27.0043543  46.3654889
 117.7450012  33.0824997  38.9149988 118.3370012  33.7814997  39.1909988
 118.2040012  32.6494997  38.1949988 117.8881142  33.1197049  38.8554830
 116.0610012  25.7464997  38.0309988 116.0160012  26.6854997  38.2089988
 115.1730012  25.5104997  37.7609988 115.9348574  25.8431892  38.0188912
 129.3730012  36.4104997  47.9669988 129.2180012  37.0884997  47.3099988
 130.3060012  36.4824997  48.1699988 129.4778500  36.5130170  47.9045119
 116.8690012  20.5284997  46.7039988 116.6400012  20.5874997  45.7759988
 116.4260012  19.7364997  47.0099988 116.7778530  20.4295753  46.6184786
 115.7990012  34.4684997  42.8639988 114.9670012  34.9414997  42.8919988
 116.3450012  34.9784997  42.2659988 115.7589739  34.6021871  42.7869716
 115.0870012  37.0814997  54.1939988 115.6280012  36.8644997  54.9539988
 114.6060012  36.2754997  54.0049988 115.0959345  36.9429514  54.2723076
 119.6850012  36.0004997  55.8149988 120.4520012  35.5414997  56.1559988
 119.6630012  35.7744997  54.8849988 119.7871434  35.9070409  55.7360043
 123.7770012  35.5084997  37.1899988 123.1330012  34.8774997  37.5109988
 124.5390012  34.9774997  36.9579988 123.7918077  35.3502920  37.2026011
 126.2620012  34.3804997  54.5439988 125.9110012  33.5244997  54.7869988
 126.9880012  34.5234997  55.1509988 126.3120769  34.2825636  54.6593619
 128.3810012  35.3254997  37.4239988 128.6640012  34.5314997  37.8759988
 129.1210012  35.5584997  36.8629988 128.5197486  35.2482803  37.4100698
 114.9940012  30.8914997  55.1489988 115.1380012  29.9894997  54.8619988
 114.2220012  31.1774997  54.6609988 114.9093322  30.8068261  55.0437881
 119.3360012  31.2354997  37.2809988 119.4000012  30.4414997  37.8119988
 119.9890012  31.1164997  36.5909988 119.4330241  31.1107148  37.2604317
 121.6500012  30.8614997  54.5809988 121.3210012  31.1324997  53.7239988
 121.8020012  29.9204997  54.4939988 121.6254809  30.7713862  54.4518244
 124.6880012  32.2824997  37.0169988 124.4190012  32.4624997  37.9179988
 124.4820012  31.3564997  36.8859988 124.6233825  32.1820152  37.1225214
 127.3840012  30.7774997  51.9649988 128.1300012  31.3654997  51.8449988
 126.6270012  31.3594997  52.0279988 127.3837554  30.9367011  51.9570907
 115.8270012  28.0914997  54.5689988 116.2350012  27.2344997  54.4479988
 115.5670012  28.1064997  55.4899988 115.8477568  27.9760807  54.6769588
 120.4850012  29.2074997  39.5869988 120.0250012  28.7234997  40.2729988
 120.7400012  28.5394997  38.9509988 120.4564902  29.0508731  39.5949334
 119.7740012  27.1004997  51.9429988 119.1560012  27.7754997  52.2229988
 120.1180012  27.4214997  51.1099988 119.7359615  27.2362721  51.8686581
 121.5560012  27.4504997  37.8489988 121.3760012  27.2964997  36.9219988
 122.5060012  27.5584997  37.8939988 121.6597776  27.4440175  37.7281843
 124.7940012  29.5724997  55.2199988 125.7470012  29.6554997  55.1929988
 124.6330012  28.8604997  55.8399988 124.9026426  29.4876746  55.3000579
 130.9460012  29.8054997  37.2949988 130.6720012  29.3804997  36.4819988
 130.9850012  30.7364997  37.0779988 130.9137699  29.8732484  37.1543610
 120.1130012  24.4554997  53.0249988 120.2630012  23.7264997  52.4229988
 120.1160012  25.2324997  52.4659988 120.1339302  24.4607851  52.8670692
 120.5260012  22.8254997  50.5179988 121.0620012  23.2764997  49.8659988
 119.6740012  22.7174997  50.0949988 120.4842178  22.8726390  50.3715756
 122.1080012  28.2644997  50.7569988 122.8580012  28.1084997  50.1839988
 121.7690012  29.1164997  50.4819988 122.1648921  28.3582968  50.6413561
 126.5230012  26.0794997  55.7859988 126.7160012  25.1484997  55.6739988
 127.3810012  26.5044997  55.7759988 126.6653020  26.0096389  55.7693361
 127.8400012  28.8684997  53.8629988 127.5590012  29.5774997  53.2859988
 128.7830012  28.7954997  53.7119988 127.9289027  28.9557646  53.7635551
 118.5920012  25.6534997  54.9369988 117.8250012  25.1214997  54.7269988
 119.2710012  25.3434997  54.3369988 118.5787022  25.5387506  54.8271648
 121.3320012  20.2814997  50.9489988 121.2330012  21.2284997  50.8439988
 120.5890012  19.9094997  50.4739988 121.2180564  20.3605902  50.8704560
 122.5960012  24.6034997  54.5129988 122.3600012  24.3834997  55.4149988
 121.8120012  24.3964997  54.0029988 122.4578628  24.5454760  54.5673932
 125.3110012  23.7304997  53.5889988 124.3640012  23.7624997  53.7209988
 125.6240012  23.1054997  54.2419988 125.2235475  23.6503207  53.6954455
 126.9450012  22.3644997  55.5939988 126.8490012  21.4124997  55.5879988
 126.6240012  22.6334997  56.4539988 126.8884070  22.2704035  55.7095441
 116.7720012  23.5744997  54.6409988 116.9840012  22.8674997  54.0309988
 116.6610012  23.1364997  55.4849988 116.7859721  23.4187084  54.6716843
 121.5530012  19.5754997  53.6209988 122.2650012  18.9354997  53.6069988
 121.4520012  19.8424997  52.7069988 121.6367939  19.5239938  53.4955650
 121.9070012  21.2584997  55.6739988 121.7750012  20.7824997  54.8539988
 121.3080012  22.0024997  55.6189988 121.8079071  21.2939618  55.5542886
 121.4530012  38.1414997  38.8509988 122.3860012  38.2994997  38.9939988
 121.1890012  38.8164997  38.2259988 121.5449510  38.2543611  38.7860741
 115.0220012  32.7774997  38.3329988 115.9360012  32.8564997  38.6069988
 115.0290012  32.0904997  37.6669988 115.1481131  32.6953961  38.2804393
 113.6710012  38.1704997  43.4109988 113.0240012  37.7084997  42.8779988
 114.0250012  37.4984997  43.9929988 113.6303849  38.0164723  43.4167959
 114.5410012  36.2514997  45.2149988 114.2060012  35.3714997  45.3869988
 114.7630012  36.5964997  46.0799988 114.5251783  36.1777500  45.3554208
 132.0890012  37.0604997  48.1959988 132.0680012  37.2454997  49.1349988
 132.7800012  37.6294997  47.8549988 132.1794618  37.1626606  48.2783864
 131.6530012  36.6284997  51.1179988 131.1650012  35.8924997  50.7469988
 132.2020012  36.2344997  51.7959988 131.6604872  36.4746249  51.1589160
 130.1030012  32.4174997  55.7559988 129.2370012  32.3124997  56.1499988
 130.4800012  33.1764997  56.2019988 130.0353308  32.5056900  55.8702393
 131.4040012  30.6744997  41.2699988 132.2540012  31.0954997  41.3969988
 131.4100012  29.9344997  41.8769988 131.5211372  30.6320803  41.3694344
 131.7990012  28.7274997  43.0939988 131.0720012  28.2484997  43.4909988
 132.3800012  28.9334997  43.8259988 131.7779375  28.6897090  43.2474129
 131.5580012  31.5124997  48.0409988 132.3910012  31.1344997  47.7609988
 131.6700012  32.4554997  47.9219988 131.6872647  31.5882218  47.9865487
 130.0440012  34.3904997  50.3479988 129.3970012  34.7154997  50.9739988
 129.5270012  33.9504997  49.6739988 129.8854029  34.3755004  50.3425827
 132.0670012  28.6284997  39.4849988 131.5450012  28.9854997  38.7659988
 132.0340012  29.3034997  40.1629988 131.9911634  28.7685413  39.4783145
 130.4160012  25.8684997  38.0359988 130.5120012  26.5354997  37.3549988
 130.2760012  25.0524997  37.5539988 130.4102135  25.8494500  37.8778491
 129.5850012  27.2484997  43.6569988 129.4350012  26.3034997  43.6359988
 129.2320012  27.5294997  44.4999988 129.5166625  27.1570441  43.7682346
 114.6210012  29.3264997  47.6669988 114.8050012  29.2444997  46.7309988
 115.4700012  29.2024997  48.0909988 114.7610139  29.2985003  47.5961455
 130.4420012  29.2184997  53.2949988 131.0250012  28.4844997  53.4869988
 131.0060012  29.9904997  53.3419988 130.5979769  29.2224227  53.3276159
 131.9380012  27.1214997  53.9799988 131.0750012  26.7424997  53.8139988
 132.5430012  26.3824997  53.9059988 131.9015979  26.9698023  53.9472817
 129.6630012  23.2764997  37.1529988 130.2740012  22.9054997  37.7899988
 128.8270012  22.8554997  37.3489988 129.6335032  23.1687554  37.2667035
 129.2960012  24.8314997  42.1189988 129.5760012  23.9244997  42.2429988
 130.0550012  25.2654997  41.7299988 129.4369277  24.7660942  42.0833682
 129.9080012  25.4124997  47.5549988 130.8410012  25.6244997  47.5209988
 129.6730012  25.5144997  48.4769988 130.0038036  25.4552769  47.6749976
 129.9370012  26.1494997  50.3309988 129.0940012  26.4174997  50.6969988
 130.3790012  26.9714997  50.1199988 129.8814158  26.2973291  50.3525491
 114.2180012  24.5974997  53.8079988 115.1380012  24.4754997  54.0439988
 113.7690012  23.8474997  54.1969988 114.2831580  24.4793727  53.8929006
 132.2200012  20.1294997  55.6839988 132.5700012  19.4754997  55.0789988
 132.3670012  20.9664997  55.2449988 132.2878419  20.1531591  55.5417118
 129.9090012  22.0944997  42.1669988 130.0920012  21.6454997  42.9929988
 129.3100012  21.5094997  41.7039988 129.8530202  21.9539975  42.2173275
 115.4390012  22.9094997  46.6989988 115.8850012  22.1174997  47.0009988
 115.9060012  23.6254997  47.1299988 115.5630172  22.8980624  46.7984820
 113.7430012  25.9084997  47.7679988 114.2350012  25.6874997  46.9769988
 114.1060012  26.7494997  48.0489988 113.8593126  25.9918357  47.6977531
 131.7400012  22.2384997  54.0339988 130.8220012  22.5094997  53.9979988
 131.8630012  21.7034997  53.2489988 131.6311066  22.2032892  53.9230487
 131.7760012  22.1614997  38.6949988 132.1880012  21.4404997  38.2199988
 132.4580012  22.8314997  38.7539988 131.9245885  22.1532368  38.6378915
 114.0570012  22.1664997  41.8219988 113.1320012  22.3754997  41.6929988
 114.5110012  22.6504997  41.1329988 113.9917368  22.2605993  41.7111226
 128.8280012  37.1504997  43.7679988 129.4800012  36.8034997  43.1599988
 129.3380012  37.6394997  44.4139988 128.9862637  37.1690597  43.7720236
 114.0210012  20.9044997  50.1669988 113.3560012  20.6584997  50.8099988
 113.5780012  21.5264997  49.5889988 113.8700956  20.9548632  50.1769352
 116.2130012  34.0794997  54.3109988 115.3920012  34.2544997  53.8509988
 115.9600012  34.0064997  55.2319988 116.0666164  34.0935622  54.3724923
 119.1670012  35.0544997  50.5699988 118.7420012  35.8634997  50.2869988
 120.0710012  35.1394997  50.2679988 119.2310271  35.1768469  50.4903776
 123.4780012  36.4534997  53.5289988 123.6630012  36.1194997  54.4069988
 124.3240012  36.7624997  53.2069988 123.6177539  36.4496047  53.6055605
 125.8230012  37.7394997  52.7729988 126.5000012  37.1064997  52.5329988
 126.1450012  38.1404997  53.5799988 125.9591637  37.7071154  52.8492793
 130.7400012  20.3284997  51.8529988 129.9280012  20.6534997  51.4649988
 130.9730012  19.5684997  51.3199988 130.6603423  20.2702436  51.7278253
 116.5690012  38.3104997  50.6169988 115.8480012  38.7504997  50.1659988
 116.2030012  38.0594997  51.4659988 116.4209804  38.3367698  50.6699840
 119.0360012  37.9104997  49.6469988 118.1710012  37.9824997  50.0509988
 118.9810012  38.4574997  48.8629988 118.9102085  37.9942685  49.5963362
 123.7460012  37.7984997  48.8219988 123.2900012  38.3274997  48.1679988
 123.9090012  38.4014997  49.5479988 123.7055585  37.9524468  48.8305062
 126.0740012  36.6764997  49.7669988 125.1690012  36.8414997  49.5019988
 126.5030012  37.5294997  49.7019988 126.0080799  36.8144483  49.7219182
 128.6780012  38.2464997  50.0619988 128.4960012  39.1624997  49.8519988
 128.8550012  37.8364997  49.2159988 128.6770210  38.3164822  49.9187885
 115.9830012  36.9334997  47.5269988 115.9650012  36.5084997  48.3849988
 116.7880012  36.6154997  47.1189988 116.0893875  36.8323812  47.5891655
 118.1250012  35.6434997  46.1819988 117.9060012  34.7274997  46.3519988
 118.9490012  35.7834997  46.6479988 118.2064420  35.5370520  46.2682774
 120.6620012  36.1134997  47.0309988 120.8750012  35.2254997  46.7439988
 120.7260012  36.0794997  47.9849988 120.6998232  35.9873102  47.1207397
 124.1700012  21.7774997  46.1749988 123.4960012  21.1484997  46.4309988
 124.7340012  21.2934997  45.5719988 124.1539230  21.6258744  46.1285340
 129.3130012  19.8854997  46.2879988 129.9170012  20.4324997  45.7859988
 128.4430012  20.2044997  46.0479988 129.2781241  20.0035806  46.1867654
 131.0400012  21.0234997  44.6209988 131.6520012  20.5094997  44.0949988
 131.4220012  21.9014997  44.6449988 131.1754540  21.0717140  44.5521830
 116.4970012  20.4114997  43.9969988 115.7200012  20.1774997  43.4899988
 117.0270012  19.6144997  44.0059988 116.4622330  20.2716988  43.9287742
 115.3330012  20.2094997  39.8009988 115.7720012  20.8204997  39.2089988
 114.7000012  20.7474997  40.2749988 115.3074514  20.3659257  39.7840930
 121.0760012  20.3384997  43.8109988 121.9510012  20.7264997  43.7809988
 120.9400012  20.1234997  44.7329988 121.1773695  20.3625184  43.9316440
 126.6330012  20.3684997  45.4599988 126.7090012  20.4634997  44.5099988
 126.3580012  19.4604997  45.5889988 126.6062321  20.2587867  45.3475079
 127.9860012  20.3944997  41.1519988 127.2840012  21.0094997  40.9429988
 127.5420012  19.5564997  41.2829988 127.8296330  20.3655783  41.1410328
 115.2340012  36.1574997  40.6989988 114.5490012  36.1194997  40.0309988
 115.2380012  37.0704997  40.9869988 115.1408193  36.2757016  40.6465284
 117.1940012  22.1254997  38.2429988 117.6860012  21.4954997  37.7159988
 117.8180012  22.4214997  38.9069988 117.3455446  22.0793199  38.2605980
 122.2200012  22.4184997  40.6999988 122.3980012  21.7724997  41.3829988
 122.1670012  23.2524997  41.1679988 122.2371829  22.4427985  40.8565940
 124.0990012  37.3674997  39.0959988 124.9650012  37.7334997  38.9179988
 123.8520012  36.9274997  38.2819988 124.1842392  37.3581756  38.9616289
 130.8080012  36.9304997  41.7749988 130.6130012  36.1824997  41.2099988
 130.7690012  37.6884997  41.1919988 130.7760380  36.9306099  41.6188384
 116.4550012  20.9254997  53.5149988 116.0890012  20.1604997  53.9579988
 117.3680012  20.9544997  53.8019988 116.5282790  20.8247224  53.6144070
 118.4280012  20.2764997  55.0509988 119.3260012  20.0024997  54.8659988
 118.0410012  19.5334997  55.5149988 118.4986612  20.1385914  55.0883643
 117.0520012  37.0774997  37.7239988 116.7850012  37.3644997  38.5969988
 117.8240012  36.5314997  37.8759988 117.1197488  37.0430294  37.8641050
 126.8490012  19.6084997  55.2329988 126.9260012  19.1824997  56.0869988
 127.7430012  19.6224997  54.8899988 126.9803428  19.5520880  55.3035310
 130.0250012  35.6814997  53.9249988 129.2430012  35.4954997  53.4059988
 129.9530012  36.6104997  54.1429988 129.9081777  35.7816492  53.8834048
 144.4310012  29.5674997  43.9559988 144.5200012  30.5114997  43.8239988
 143.7930012  29.2924997  43.2979988 144.3569081  29.6594830  43.8489614
 143.3640012  28.8224997  47.3749988 143.3260012  28.1764997  48.0799988
 143.0420012  28.3564997  46.6039988 143.3152333  28.6709408  47.3672978
 135.7330012  28.4374997  48.9679988 135.7740012  27.8114997  49.6909988
 136.4360012  29.0614997  49.1499988 135.8336363  28.4361196  49.0916044
 136.6560012  32.8874997  47.5029988 136.2870012  32.0854997  47.1329988
 137.5970012  32.7184997  47.5489988 136.7327289  32.7550153  47.4586316
 133.2660012  26.5474997  42.8959988 132.8190012  27.3934997  42.8769988
 132.7050012  25.9674997  42.3799988 133.1289900  26.5849916  42.8236801
 133.9770012  28.7094997  45.0219988 134.1900012  27.9394997  45.5489988
 134.7150012  28.7984997  44.4179988 134.1058496  28.6161394  45.0125300
 144.1820012  36.8664997  45.8889988 144.8020012  36.1894997  45.6149988
 143.9740012  36.6484997  46.7969988 144.2386904  36.7443870  45.9743365
 141.7540012  31.2554997  47.7809988 142.0580012  30.5694997  47.1859988
 142.4750012  31.3734997  48.3989988 141.8930671  31.1776305  47.7831816
 144.8950012  25.6494997  48.1089988 145.0370012  24.7034997  48.1289988
 144.7880012  25.8564997  47.1799988 144.8999863  25.5479534  47.9862339
 138.0490012  23.7504997  45.3809988 138.0930012  24.6104997  44.9629988
 137.5920012  23.1984997  44.7469988 137.9932185  23.7935799  45.2380299
 134.6700012  26.1474997  46.1429988 135.3230012  25.5974997  46.5749988
 134.6940012  25.8734997  45.2259988 134.7626683  26.0351466  46.0782123
 139.8260012  27.6974997  45.3579988 140.4420012  27.1714997  45.8679988
 139.2400012  27.0574997  44.9549988 139.8310810  27.5389208  45.3733173
 136.8600012  22.6684997  49.4549988 136.6410012  23.1984997  48.6889988
 136.1920012  22.8954997  50.1019988 136.7397600  22.7716906  49.4376379
 144.2290012  32.1684997  42.9989988 143.9330012  31.8464997  42.1479988
 143.9040012  33.0684997  43.0399988 144.1446371  32.2460215  42.8881801
 139.4290012  30.3444997  49.7419988 138.6890012  30.9424997  49.8459988
 140.1430012  30.8984997  49.4269988 139.4242237  30.5012831  49.7136465
 136.4530012  24.5604997  47.4069988 137.0670012  25.1934997  47.7809988
 136.9650012  24.0884997  46.7509988 136.6062296  24.5832370  47.3694252
 137.8360012  32.3084997  50.5299988 137.8310012  33.1884997  50.1519988
 136.9830012  32.2254997  50.9549988 137.7199464  32.4176117  50.5357907
 133.9570012  31.9794997  41.3119988 133.6850012  32.2084997  40.4229988
 134.0030012  32.8174997  41.7719988 133.9260094  32.1241213  41.2525697
 140.8860012  19.9744997  46.9079988 140.7690012  19.0254997  46.8529988
 140.0310012  20.3064997  47.1809988 140.7543733  19.8895409  46.9373897
 143.1530012  28.8114997  41.4079988 142.4410012  29.3464997  41.0559988
 143.8440012  28.8674997  40.7479988 143.1490132  28.8922543  41.2706289
 143.2060012  27.2694997  38.4469988 143.9070012  27.2914997  39.0979988
 143.5090012  26.6414997  37.7909988 143.3427830  27.1876566  38.4473711
 138.2040012  29.6514997  44.2419988 137.8730012  29.2814997  43.4239988
 138.7920012  28.9814997  44.5889988 138.2381873  29.5101156  44.1768102
 139.5700012  33.0794997  46.9239988 139.4760012  32.5014997  46.1669988
 140.3000012  32.7084997  47.4199988 139.6557981  32.9502390  46.8874165
 138.5700012  28.4204997  47.8759988 139.1360012  28.5414997  47.1129988
 138.8890012  29.0574997  48.5149988 138.6905786  28.5231884  47.8580040
 144.8790012  33.9234997  48.6099988 144.6390012  34.5854997  49.2579988
 144.6810012  33.0894997  49.0349988 144.8193808  33.9013134  48.7561524
 139.4500012  32.8194997  52.5929988 139.1390012  33.6014997  53.0479988
 138.8000012  32.6664997  51.9069988 139.3195558  32.9059105  52.5625871
 136.3700012  29.0174997  51.8219988 136.4410012  29.6684997  52.5199988
 135.4800012  29.1204997  51.4869988 136.2593117  29.1205936  51.8722700
 143.1560012  34.9204997  43.4799988 143.6300012  35.2154997  44.2579988
 142.5930012  35.6584997  43.2469988 143.1447653  35.0606932  43.5550136
 137.6900012  34.8914997  53.3559988 137.6970012  34.7554997  52.4089988
 136.7740012  34.7734997  53.6079988 137.5671714  34.8569430  53.2604666
 137.1940012  28.7214997  41.8319988 136.9020012  29.4894997  41.3409988
 136.5200012  28.0614997  41.6689988 137.0629081  28.7374406  41.7427340
 133.2870012  31.0844997  50.6469988 132.7860012  31.0564997  49.8319988
 133.2920012  30.1784997  50.9559988 133.2191526  30.9582278  50.5772872
 133.0370012  33.8644997  47.5309988 133.9830012  33.7204997  47.5119988
 132.9250012  34.6484997  48.0679988 133.1512727  33.9508046  47.6010072
 142.2140012  34.1044997  52.0889988 142.3010012  34.9304997  52.5639988
 141.3500012  33.7744997  52.3379988 142.1091964  34.1729878  52.1876549
 142.6280012  37.8764997  41.8949988 142.5530012  37.7554997  40.9489988
 142.6610012  38.8264997  42.0139988 142.6221848  37.9882500  41.7814834
 136.2810012  36.6654997  43.6759988 136.4340012  36.3174997  44.5549988
 135.4310012  36.3094997  43.4209988 136.1868962  36.5696650  43.7618340
 135.5360012  32.4074997  51.6899988 135.7520012  32.0464997  52.5489988
 134.6810012  32.0334997  51.4799988 135.4499292  32.3074111  51.7793386
 138.1550012  20.8774997  47.6849988 137.2930012  20.7904997  47.2779988
 138.1320012  21.7334997  48.1129988 138.0340330  20.9812765  47.6871863
 142.8180012  20.5994997  51.0599988 143.2380012  20.1844997  51.8129988
 141.8850012  20.4214997  51.1769988 142.7493644  20.5185900  51.1789539
 142.4790012  23.0924997  38.3449988 142.2260012  23.1114997  39.2679988
 142.2230012  22.2204997  38.0439988 142.4097790  22.9772437  38.4306263
 138.2460012  25.8434997  48.7799988 137.6040012  25.8024997  49.4889988
 138.2830012  26.7694997  48.5429988 138.1631324  25.9631559  48.8449824
 138.2430012  26.0644997  43.6919988 137.3500012  25.7234997  43.6339988
 138.6930012  25.6874997  42.9369988 138.1817305  25.9668484  43.5819177
 143.7780012  26.4804997  42.5089988 143.3690012  27.2954997  42.2179988
 144.4990012  26.3404997  41.8949988 143.8194537  26.5732018  42.3861342
 142.8800012  26.6554997  53.9969988 142.3180012  25.9514997  54.3179988
 143.7070012  26.5354997  54.4649988 142.9147095  26.5427883  54.1042330
 144.7830012  25.9264997  45.3229988 144.5880012  26.5314997  44.6079988
 144.9640012  25.0924997  44.8889988 144.7807614  25.8966300  45.1664405
 135.9960012  26.1634997  50.6469988 135.9580012  26.5634997  51.5159988
 135.5050012  25.3464997  50.7379988 135.9244684  26.1078069  50.7781059
 139.3620012  23.5374997  37.4459988 138.9310012  23.0924997  38.1759988
 138.6440012  23.9094997  36.9339988 139.2059438  23.5268940  37.4766799
 132.6040012  23.2794997  44.4979988 133.2350012  23.2504997  45.2169988
 133.0530012  22.8544997  43.7679988 132.7510774  23.2180492  44.4976553
 133.8780012  24.0254997  39.9219988 134.3520012  24.6164997  39.3369988
 133.1610012  24.5564997  40.2689988 133.8459341  24.1780867  39.8888836
 144.0470012  27.5644997  49.9949988 144.3700012  26.9334997  49.3519988
 143.6070012  27.0294997  50.6549988 144.0316895  27.4058441  49.9962850
 140.8240012  23.4914997  44.7789988 139.9130012  23.5484997  45.0669988
 141.3300012  23.4314997  45.5889988 140.7675413  23.4911985  44.9280622
 135.6530012  25.1204997  43.6049988 134.7630012  25.2204997  43.2649988
 135.9490012  24.2784997  43.2589988 135.5712823  25.0203545  43.5117213
 139.3060012  25.1204997  41.2619988 140.2370012  25.2494997  41.4399988
 139.0910012  25.7904997  40.6119988 139.4044247  25.2286565  41.1985747
 137.9800012  26.3154997  38.8289988 137.4370012  25.9354997  38.1369988
 138.8130012  26.5094997  38.3999988 138.0184399  26.2898124  38.6764526
 136.1150012  30.8724997  53.9279988 136.8470012  31.1264997  54.4889988
 135.3350012  31.0764997  54.4429988 136.1098232  30.9349177  54.0745760
 142.1440012  26.2794997  46.6659988 142.7090012  25.7324997  46.1189988
 141.9970012  25.7574997  47.4539988 142.2012918  26.1342024  46.6978454
 137.1460012  22.4154997  43.0839988 136.8290012  21.5134997  43.0489988
 137.9280012  22.4174997  42.5309988 137.2082284  22.2921628  43.0044783
 140.7710012  24.6674997  49.0799988 139.9350012  25.1214997  49.1899988
 141.2950012  24.9434997  49.8319988 140.7274414  24.7669376  49.1967136
 141.3150012  30.8804997  40.7639988 140.5700012  30.3734997  40.4419988
 141.1810012  30.9294997  41.7109988 141.1948776  30.8176940  40.8478647
 142.8340012  31.0644997  52.0009988 142.4890012  30.6834997  52.8079988
 142.6340012  31.9984997  52.0729988 142.7598061  31.1385228  52.1210961
 136.4400012  30.1754997  46.5339988 137.1850012  30.1734997  45.9329988
 136.5180012  29.3524997  47.0159988 136.5525518  30.0639315  46.5168929
 143.4410012  32.3394997  39.7899988 143.1450012  33.1654997  40.1709988
 142.7380012  31.7194997  39.9859988 143.3054914  32.3688199  39.8686443
 133.4480012  28.6364997  51.8489988 133.6710012  28.2184997  52.6809988
 132.8460012  28.0234997  51.4259988 133.3971759  28.4964668  51.9057022
 140.4640012  28.1534997  54.0619988 140.1680012  27.9874997  53.1669988
 141.3960012  27.9334997  54.0509988 140.5494166  28.1010640  53.9380536
 138.8150012  33.6934997  43.9379988 139.3420012  34.4664997  43.7379988
 137.9350012  33.9184997  43.6369988 138.7681773  33.8298005  43.8699010
 134.5700012  28.5554997  38.5249988 135.1860012  29.1824997  38.9049988
 133.7080012  28.8714997  38.7969988 134.5377698  28.6839430  38.6137183
 140.2420012  31.3564997  43.5149988 140.0010012  32.2814997  43.5559988
 139.5010012  30.8974997  43.9109988 140.1088409  31.4211421  43.5741377
 140.7570012  35.5054997  49.8299988 141.1190012  36.3604997  49.5959988
 141.2880012  35.2134997  50.5699988 140.8784473  35.5831060  49.8980855
 138.9250012  36.3784997  43.0599988 137.9750012  36.4834997  43.1109988
 139.2770012  37.1984997  43.4049988 138.8424203  36.5038314  43.1136650
 144.3010012  31.6044997  49.5299988 143.8750012  31.3774997  50.3569988
 144.8810012  30.8664997  49.3479988 144.3211868  31.4735299  49.6185830
 135.0820012  23.3894997  51.4069988 134.1890012  23.7284997  51.3389988
 134.9830012  22.5344997  51.8249988 134.9464164  23.3202588  51.4542235
 134.7330012  35.1944997  49.8419988 134.9500012  34.2624997  49.8109988
 134.9790012  35.4684997  50.7249988 134.7959549  35.1040636  49.9571763
 140.5950012  33.6454997  37.0509988 140.8340012  32.8974997  36.5039988
 140.3260012  33.2574997  37.8839988 140.5913675  33.4906638  37.0886865
 139.5320012  33.2154997  39.5079988 139.6780012  32.6954997  40.2979988
 139.5290012  34.1224997  39.8139988 139.5515989  33.2668853  39.6576088
 135.9850012  30.4684997  40.0179988 135.2990012  30.8204997  40.5849988
 136.5070012  31.2314997  39.7709988 135.9616852  30.6198578  40.0622118
 143.8160012  23.1304997  50.2969988 144.5150012  23.2044997  50.9469988
 143.4350012  22.2664997  50.4509988 143.8601767  23.0237624  50.4068322
 144.6010012  22.7824997  41.3939988 144.8210012  23.2544997  40.5909988
 145.1590012  23.1774997  42.0639988 144.7064968  22.9004285  41.3747331
 142.2690012  34.9134997  40.2569988 141.4530012  35.4104997  40.3089988
 142.7990012  35.3884997  39.6169988 142.2289161  35.0457722  40.1775956
 141.8010012  24.5104997  42.2289988 142.6130012  25.0154997  42.2749988
 141.5560012  24.3654997  43.1429988 141.8790520  24.5600375  42.3588517
 142.3360012  25.4964997  51.4139988 142.4550012  26.0704997  52.1709988
 142.9920012  24.8084997  51.5279988 142.4409757  25.4821079  51.5330825
 142.6840012  21.5914997  43.1669988 142.3380012  22.2094997  43.8119988
 143.3430012  22.0924997  42.6859988 142.7257826  21.7435802  43.1900971
 139.6080012  35.9574997  40.2389988 139.7680012  36.7564997  39.7379988
 139.4100012  36.2634997  41.1239988 139.6031649  36.1084469  40.2899815
 138.3420012  22.6544997  39.8539988 138.2590012  23.5434997  40.2009988
 139.2320012  22.3894997  40.0859988 138.4509469  22.7401430  39.9327626
 136.6010012  33.0824997  38.9149988 137.1930012  33.7814997  39.1909988
 137.0600012  32.6494997  38.1949988 136.7441142  33.1197049  38.8554830
 134.9170012  25.7464997  38.0309988 134.8720012  26.6854997  38.2089988
 134.0290012  25.5104997  37.7609988 134.7908574  25.8431892  38.0188912
 135.7250012  20.5284997  46.7039988 135.4960012  20.5874997  45.7759988
 135.2820012  19.7364997  47.0099988 135.6338530  20.4295753  46.6184786
 134.6550012  34.4684997  42.8639988 133.8230012  34.9414997  42.8919988
 135.2010012  34.9784997  42.2659988 134.6149739  34.6021871  42.7869716
 133.9430012  37.0814997  54.1939988 134.4840012  36.8644997  54.9539988
 133.4620012  36.2754997  54.0049988 133.9519345  36.9429514  54.2723076
 138.5410012  36.0004997  55.8149988 139.3080012  35.5414997  56.1559988
 138.5190012  35.7744997  54.8849988 138.6431434  35.9070409  55.7360043
 142.6330012  35.5084997  37.1899988 141.9890012  34.8774997  37.5109988
 143.3950012  34.9774997  36.9579988 142.6478077  35.3502920  37.2026011
 133.8500012  30.8914997  55.1489988 133.9940012  29.9894997  54.8619988
 133.0780012  31.1774997  54.6609988 133.7653322  30.8068261  55.0437881
 138.1920012  31.2354997  37.2809988 138.2560012  30.4414997  37.8119988
 138.8450012  31.1164997  36.5909988 138.2890241  31.1107148  37.2604317
 140.5060012  30.8614997  54.5809988 140.1770012  31.1324997  53.7239988
 140.6580012  29.9204997  54.4939988 140.4814809  30.7713862  54.4518244
 143.5440012  32.2824997  37.0169988 143.2750012  32.4624997  37.9179988
 143.3380012  31.3564997  36.8859988 143.4793825  32.1820152  37.1225214
 134.6830012  28.0914997  54.5689988 135.0910012  27.2344997  54.4479988
 134.4230012  28.1064997  55.4899988 134.7037568  27.9760807  54.6769588
 139.3410012  29.2074997  39.5869988 138.8810012  28.7234997  40.2729988
 139.5960012  28.5394997  38.9509988 139.3124902  29.0508731  39.5949334
 138.6300012  27.1004997  51.9429988 138.0120012  27.7754997  52.2229988
 138.9740012  27.4214997  51.1099988 138.5919615  27.2362721  51.8686581
 140.4120012  27.4504997  37.8489988 140.2320012  27.2964997  36.9219988
 141.3620012  27.5584997  37.8939988 140.5157776  27.4440175  37.7281843
 143.6500012  29.5724997  55.2199988 144.6030012  29.6554997  55.1929988
 143.4890012  28.8604997  55.8399988 143.7586426  29.4876746  55.3000579
 138.9690012  24.4554997  53.0249988 139.1190012  23.7264997  52.4229988
 138.9720012  25.2324997  52.4659988 138.9899302  24.4607851  52.8670692
 139.3820012  22.8254997  50.5179988 139.9180012  23.2764997  49.8659988
 138.5300012  22.7174997  50.0949988 139.3402178  22.8726390  50.3715756
 140.9640012  28.2644997  50.7569988 141.7140012  28.1084997  50.1839988
 140.6250012  29.1164997  50.4819988 141.0208921  28.3582968  50.6413561
 137.4480012  25.6534997  54.9369988 136.6810012  25.1214997  54.7269988
 138.1270012  25.3434997  54.3369988 137.4347022  25.5387506  54.8271648
 140.1880012  20.2814997  50.9489988 140.0890012  21.2284997  50.8439988
 139.4450012  19.9094997  50.4739988 140.0740563  20.3605902  50.8704560
 141.4520012  24.6034997  54.5129988 141.2160012  24.3834997  55.4149988
 140.6680012  24.3964997  54.0029988 141.3138628  24.5454760  54.5673932
 144.1670012  23.7304997  53.5889988 143.2200012  23.7624997  53.7209988
 144.4800012  23.1054997  54.2419988 144.0795475  23.6503207  53.6954455
 135.6280012  23.5744997  54.6409988 135.8400012  22.8674997  54.0309988
 135.5170012  23.1364997  55.4849988 135.6419721  23.4187084  54.6716843
 140.4090012  19.5754997  53.6209988 141.1210012  18.9354997  53.6069988
 140.3080012  19.8424997  52.7069988 140.4927939  19.5239938  53.4955650
 140.7630012  21.2584997  55.6739988 140.6310012  20.7824997  54.8539988
 140.1640012  22.0024997  55.6189988 140.6639071  21.2939618  55.5542886
 140.3090012  38.1414997  38.8509988 141.2420012  38.2994997  38.9939988
 140.0450012  38.8164997  38.2259988 140.4009510  38.2543611  38.7860741
 133.8780012  32.7774997  38.3329988 134.7920012  32.8564997  38.6069988
 133.8850012  32.0904997  37.6669988 134.0041131  32.6953961  38.2804393
 132.5270012  38.1704997  43.4109988 131.8800012  37.7084997  42.8779988
 132.8810012  37.4984997  43.9929988 132.4863849  38.0164723  43.4167959
 133.3970012  36.2514997  45.2149988 133.0620012  35.3714997  45.3869988
 133.6190012  36.5964997  46.0799988 133.3811783  36.1777500  45.3554208
 133.4770012  29.3264997  47.6669988 133.6610012  29.2444997  46.7309988
 134.3260012  29.2024997  48.0909988 133.6170139  29.2985003  47.5961455
 133.0740012  24.5974997  53.8079988 133.9940012  24.4754997  54.0439988
 132.6250012  23.8474997  54.1969988 133.1391580  24.4793727  53.8929006
 134.2950012  22.9094997  46.6989988 134.7410012  22.1174997  47.0009988
 134.7620012  23.6254997  47.1299988 134.4190172  22.8980624  46.7984820
 132.5990012  25.9084997  47.7679988 133.0910012  25.6874997  46.9769988
 132.9620012  26.7494997  48.0489988 132.7153126  25.9918357  47.6977531
 132.9130012  22.1664997  41.8219988 131.9880012  22.3754997  41.6929988
 133.3670012  22.6504997  41.1329988 132.8477368  22.2605993  41.7111226
 132.8770012  20.9044997  50.1669988 132.2120012  20.6584997  50.8099988
 132.4340012  21.5264997  49.5889988 132.7260956  20.9548632  50.1769352
 135.0690012  34.0794997  54.3109988 134.2480012  34.2544997  53.8509988
 134.8160012  34.0064997  55.2319988 134.9226164  34.0935622  54.3724923
 138.0230012  35.0544997  50.5699988 137.5980012  35.8634997  50.2869988
 138.9270012  35.1394997  50.2679988 138.0870271  35.1768469  50.4903776
 142.3340012  36.4534997  53.5289988 142.5190012  36.1194997  54.4069988
 143.1800012  36.7624997  53.2069988 142.4737539  36.4496047  53.6055605
 144.6790012  37.7394997  52.7729988 145.3560012  37.1064997  52.5329988
 145.0010012  38.1404997  53.5799988 144.8151637  37.7071154  52.8492793
 135.4250012  38.3104997  50.6169988 134.7040012  38.7504997  50.1659988
 135.0590012  38.0594997  51.4659988 135.2769804  38.3367698  50.6699840
 137.8920012  37.9104997  49.6469988 137.0270012  37.9824997  50.0509988
 137.8370012  38.4574997  48.8629988 137.7662085  37.9942685  49.5963362
 142.6020012  37.7984997  48.8219988 142.1460012  38.3274997  48.1679988
 142.7650012  38.4014997  49.5479988 142.5615585  37.9524468  48.8305062
 134.8390012  36.9334997  47.5269988 134.8210012  36.5084997  48.3849988
 135.6440012  36.6154997  47.1189988 134.9453875  36.8323812  47.5891655
 136.9810012  35.6434997  46.1819988 136.7620012  34.7274997  46.3519988
 137.8050012  35.7834997  46.6479988 137.0624420  35.5370520  46.2682774
 139.5180012  36.1134997  47.0309988 139.7310012  35.2254997  46.7439988
 139.5820012  36.0794997  47.9849988 139.5558231  35.9873102  47.1207397
 143.0260012  21.7774997  46.1749988 142.3520012  21.1484997  46.4309988
 143.5900012  21.2934997  45.5719988 143.0099230  21.6258744  46.1285340
 135.3530012  20.4114997  43.9969988 134.5760012  20.1774997  43.4899988
 135.8830012  19.6144997  44.0059988 135.3182330  20.2716988  43.9287742
 134.1890012  20.2094997  39.8009988 134.6280012  20.8204997  39.2089988
 133.5560012  20.7474997  40.2749988 134.1634514  20.3659257  39.7840930
 139.9320012  20.3384997  43.8109988 140.8070012  20.7264997  43.7809988
 139.7960012  20.1234997  44.7329988 140.0333695  20.3625184  43.9316440
 134.0900012  36.1574997  40.6989988 133.4050012  36.1194997  40.0309988
 134.0940012  37.0704997  40.9869988 133.9968193  36.2757016  40.6465284
 136.0500012  22.1254997  38.2429988 136.5420012  21.4954997  37.7159988
 136.6740012  22.4214997  38.9069988 136.2015446  22.0793199  38.2605980
 141.0760012  22.4184997  40.6999988 141.2540012  21.7724997  41.3829988
 141.0230012  23.2524997  41.1679988 141.0931829  22.4427985  40.8565940
 142.9550012  37.3674997  39.0959988 143.8210012  37.7334997  38.9179988
 142.7080012  36.9274997  38.2819988 143.0402392  37.3581756  38.9616289
 135.3110012  20.9254997  53.5149988 134.9450012  20.1604997  53.9579988
 136.2240012  20.9544997  53.8019988 135.3842790  20.8247224  53.6144070
 137.2840012  20.2764997  55.0509988 138.1820012  20.0024997  54.8659988
 136.8970012  19.5334997  55.5149988 137.3546612  20.1385914  55.0883643
 135.9080012  37.0774997  37.7239988 135.6410012  37.3644997  38.5969988
 136.6800012  36.5314997  37.8759988 135.9757488  37.0430294  37.8641050
  12.4390012  48.4234997  43.9559988  12.5280012  49.3674997  43.8239988
  11.8010012  48.1484997  43.2979988  12.3649081  48.5154830  43.8489614
  11.3720012  47.6784997  47.3749988  11.3340012  47.0324997  48.0799988
  11.0500012  47.2124997  46.6039988  11.3232333  47.5269408  47.3672978
   3.7410012  47.2934997  48.9679988   3.7820012  46.6674997  49.6909988
   4.4440012  47.9174997  49.1499988   3.8416363  47.2921196  49.0916044
  15.0780012  50.6174997  45.6759988  14.6380012  49.8974997  46.1269988
  15.0650012  51.3384997  46.3059988  15.0160226  50.6163731  45.8228494
   4.6640012  51.7434997  47.5029988   4.2950012  50.9414997  47.1329988
   5.6050012  51.5744997  47.5489988   4.7407289  51.6110153  47.4586316
   1.2740012  45.4034997  42.8959988   0.8270012  46.2494997  42.8769988
   0.7130012  44.8234997  42.3799988   1.1369900  45.4409916  42.8236801
   1.9850012  47.5654997  45.0219988   2.1980012  46.7954997  45.5489988
   2.7230012  47.6544997  44.4179988   2.1138496  47.4721394  45.0125300
  12.1900012  55.7224997  45.8889988  12.8100012  55.0454997  45.6149988
  11.9820012  55.5044997  46.7969988  12.2466904  55.6003870  45.9743365
   9.7620012  50.1114997  47.7809988  10.0660012  49.4254997  47.1859988
  10.4830012  50.2294997  48.3989988   9.9010671  50.0336305  47.7831816
  18.4250012  41.7124997  48.6419988  18.4740012  42.3224997  49.3779988
  18.8500012  42.1734997  47.9189988  18.4891824  41.8583741  48.6450205
  12.9030012  44.5054997  48.1089988  13.0450012  43.5594997  48.1289988
  12.7960012  44.7124997  47.1799988  12.9079864  44.4039534  47.9862339
   6.0570012  42.6064997  45.3809988   6.1010012  43.4664997  44.9629988
   5.6000012  42.0544997  44.7469988   6.0012185  42.6495799  45.2380299
  13.7800012  42.7374997  43.7819988  14.4260012  42.4084997  44.4069988
  14.2900012  43.2554997  43.1589988  13.9374264  42.7624611  43.7833862
   2.6780012  45.0034997  46.1429988   3.3310012  44.4534997  46.5749988
   2.7020012  44.7294997  45.2259988   2.7706683  44.8911466  46.0782123
   7.8340012  46.5534997  45.3579988   8.4500012  46.0274997  45.8679988
   7.2480012  45.9134997  44.9549988   7.8390810  46.3949208  45.3733173
  18.8160012  43.1904997  50.8779988  18.1280012  43.8484997  50.7819988
  18.8320012  42.9934997  51.8139988  18.7238525  43.2540462  50.9914808
   4.8680012  41.5244997  49.4549988   4.6490012  42.0544997  48.6889988
   4.2000012  41.7514997  50.1019988   4.7477600  41.6276906  49.4376379
  12.2370012  51.0244997  42.9989988  11.9410012  50.7024997  42.1479988
  11.9120012  51.9244997  43.0399988  12.1526371  51.1020215  42.8881801
   7.4370012  49.2004997  49.7419988   6.6970012  49.7984997  49.8459988
   8.1510012  49.7544997  49.4269988   7.4322237  49.3572831  49.7136465
  15.5440012  42.0284997  45.7619988  15.3280012  41.2624997  46.2949988
  16.1990012  42.5004997  46.2749988  15.6030632  41.9875889  45.9042861
   4.4610012  43.4164997  47.4069988   5.0750012  44.0494997  47.7809988
   4.9730012  42.9444997  46.7509988   4.6142296  43.4392370  47.3694252
   5.8440012  51.1644997  50.5299988   5.8390012  52.0444997  50.1519988
   4.9910012  51.0814997  50.9549988   5.7279464  51.2736117  50.5357907
   1.9650012  50.8354997  41.3119988   1.6930012  51.0644997  40.4229988
   2.0110012  51.6734997  41.7719988   1.9340094  50.9801213  41.2525697
  15.5900012  52.4574997  48.0239988  14.6490012  52.5154997  48.1859988
  15.8670012  53.3634997  47.8869988  15.4984679  52.5879443  48.0276815
  15.8910012  40.7434997  49.4419988  15.1550012  41.3544997  49.4039988
  16.5740012  41.1584997  48.9149988  15.8826541  40.8831374  49.3655832
   8.8940012  38.8304997  46.9079988   8.7770012  37.8814997  46.8529988
   8.0390012  39.1624997  47.1809988   8.7623733  38.7455409  46.9373897
  13.8420012  54.2384997  44.6499988  14.2680012  53.5314997  44.1649988
  14.1590012  55.0394997  44.2329988  13.9431019  54.2500994  44.5273130
  15.0020012  52.1394997  43.1579988  14.7440012  51.4494997  42.5469988
  15.0730012  51.6964997  44.0039988  14.9762856  51.9852124  43.1886885
  16.6880012  50.7054997  51.6359988  16.8280012  50.1144997  50.8959988
  16.8550012  51.5784997  51.2789988  16.7296778  50.7426426  51.4866965
  11.1610012  47.6674997  41.4079988  10.4490012  48.2024997  41.0559988
  11.8520012  47.7234997  40.7479988  11.1570132  47.7482543  41.2706289
  11.2140012  46.1254997  38.4469988  11.9150012  46.1474997  39.0979988
  11.5170012  45.4974997  37.7909988  11.3507830  46.0436566  38.4473711
  18.5300012  47.0454997  49.7019988  17.8770012  47.7404997  49.7909988
  18.9950012  47.2554997  48.8919988  18.5035390  47.1689425  49.6046883
  14.5660012  47.8774997  42.3599988  13.8340012  48.1054997  42.9329988
  15.0140012  47.1634997  42.8149988  14.5263095  47.8122571  42.4999119
  14.4640012  46.0514997  51.4269988  14.5440012  46.8144997  51.9989988
  13.8620012  46.3304997  50.7369988  14.3935756  46.1937134  51.4120589
   6.2120012  48.5074997  44.2419988   5.8810012  48.1374997  43.4239988
   6.8000012  47.8374997  44.5889988   6.2461873  48.3661156  44.1768102
   7.5780012  51.9354997  46.9239988   7.4840012  51.3574997  46.1669988
   8.3080012  51.5644997  47.4199988   7.6637981  51.8062390  46.8874165
   6.5780012  47.2764997  47.8759988   7.1440012  47.3974997  47.1129988
   6.8970012  47.9134997  48.5149988   6.6985786  47.3791884  47.8580040
  12.8870012  52.7794997  48.6099988  12.6470012  53.4414997  49.2579988
  12.6890012  51.9454997  49.0349988  12.8273808  52.7573134  48.7561524
   7.4580012  51.6754997  52.5929988   7.1470012  52.4574997  53.0479988
   6.8080012  51.5224997  51.9069988   7.3275558  51.7619105  52.5625871
  13.4370012  47.0394997  40.0449988  14.0170012  47.1894997  40.7919988
  13.8510012  47.5104997  39.3219988  13.5722830  47.1236841  40.0494134
   4.3780012  47.8734997  51.8219988   4.4490012  48.5244997  52.5199988
   3.4880012  47.9764997  51.4869988   4.2673117  47.9765936  51.8722700
  11.1640012  53.7764997  43.4799988  11.6380012  54.0714997  44.2579988
  10.6010012  54.5144997  43.2469988  11.1527653  53.9166932  43.5550136
   5.6980012  53.7474997  53.3559988   5.7050012  53.6114997  52.4089988
   4.7820012  53.6294997  53.6079988   5.5751714  53.7129430  53.2604666
  17.1360012  38.7894997  39.8579988  16.2360012  38.9284997  40.1529988
  17.3880012  39.6204997  39.4559988  17.0468702  38.9209074  39.8440205
   5.2020012  47.5774997  41.8319988   4.9100012  48.3454997  41.3409988
   4.5280012  46.9174997  41.6689988   5.0709081  47.5934406  41.7427340
  18.3250012  53.1554997  38.2339988  18.3990012  54.0944997  38.4049988
  19.2310012  52.8504997  38.1779988  18.4575100  53.2426722  38.2498119
   1.2950012  49.9404997  50.6469988   0.7940012  49.9124997  49.8319988
   1.3000012  49.0344997  50.9559988   1.2271526  49.8142278  50.5772872
   1.0450012  52.7204997  47.5309988   1.9910012  52.5764997  47.5119988
   0.9330012  53.5044997  48.0679988   1.1592727  52.8068046  47.6010072
  19.2430012  53.3864997  53.2129988  19.1940012  52.4314997  53.1759988
  18.4160012  53.6544997  53.6139988  19.1244940  53.2918998  53.2621375
  10.2220012  52.9604997  52.0889988  10.3090012  53.7864997  52.5639988
   9.3580012  52.6304997  52.3379988  10.1171964  53.0289878  52.1876549
  10.6360012  56.7324997  41.8949988  10.5610012  56.6114997  40.9489988
  10.6690012  57.6824997  42.0139988  10.6301848  56.8442500  41.7814834
   4.2890012  55.5214997  43.6759988   4.4420012  55.1734997  44.5549988
   3.4390012  55.1654997  43.4209988   4.1948962  55.4256650  43.7618340
  13.7380012  55.8864997  38.8969988  14.1130012  55.1424997  38.4269988
  13.7420012  55.6164997  39.8159988  13.7898915  55.7481486  38.9567824
  13.4070012  55.8124997  41.6469988  12.4710012  55.9124997  41.8249988
  13.6870012  55.1034997  42.2249988  13.3168255  55.7302711  41.7495391
  16.3950012  44.8794997  53.6929988  15.9880012  45.3604997  52.9719988
  16.4360012  43.9744997  53.3849988  16.3448437  44.8229374  53.5526683
   3.5440012  51.2634997  51.6899988   3.7600012  50.9024997  52.5489988
   2.6890012  50.8894997  51.4799988   3.4579292  51.1634111  51.7793386
   6.1630012  39.7334997  47.6849988   5.3010012  39.6464997  47.2779988
   6.1400012  40.5894997  48.1129988   6.0420330  39.8372765  47.6871863
  10.8260012  39.4554997  51.0599988  11.2460012  39.0404997  51.8129988
   9.8930012  39.2774997  51.1769988  10.7573644  39.3745900  51.1789539
  14.1520012  43.2114997  51.9129988  13.6380012  43.0854997  52.7109988
  13.9970012  44.1234997  51.6689988  14.0606852  43.3176132  51.9892158
  14.9150012  48.0724997  37.6749988  14.9570012  47.8494997  36.7449988
  15.7640012  48.4714997  37.8649988  15.0355396  48.0959155  37.5733627
  10.4870012  41.9484997  38.3449988  10.2340012  41.9674997  39.2679988
  10.2310012  41.0764997  38.0439988  10.4177790  41.8332437  38.4306263
   6.2540012  44.6994997  48.7799988   5.6120012  44.6584997  49.4889988
   6.2910012  45.6254997  48.5429988   6.1711324  44.8191559  48.8449824
   6.2510012  44.9204997  43.6919988   5.3580012  44.5794997  43.6339988
   6.7010012  44.5434997  42.9369988   6.1897305  44.8228484  43.5819177
  11.7860012  45.3364997  42.5089988  11.3770012  46.1514997  42.2179988
  12.5070012  45.1964997  41.8949988  11.8274537  45.4292018  42.3861342
  10.8880012  45.5114997  53.9969988  10.3260012  44.8074997  54.3179988
  11.7150012  45.3914997  54.4649988  10.9227095  45.3987883  54.1042330
  12.7910012  44.7824997  45.3229988  12.5960012  45.3874997  44.6079988
  12.9720012  43.9484997  44.8889988  12.7887614  44.7526300  45.1664405
   4.0040012  45.0194997  50.6469988   3.9660012  45.4194997  51.5159988
   3.5130012  44.2024997  50.7379988   3.9324684  44.9638069  50.7781059
   7.3700012  42.3934997  37.4459988   6.9390012  41.9484997  38.1759988
   6.6520012  42.7654997  36.9339988   7.2139438  42.3828940  37.4766799
   0.6120012  42.1354997  44.4979988   1.2430012  42.1064997  45.2169988
   1.0610012  41.7104997  43.7679988   0.7590774  42.0740492  44.4976553
   1.8860012  42.8814997  39.9219988   2.3600012  43.4724997  39.3369988
   1.1690012  43.4124997  40.2689988   1.8539341  43.0340867  39.8888836
  12.0550012  46.4204997  49.9949988  12.3780012  45.7894997  49.3519988
  11.6150012  45.8854997  50.6549988  12.0396895  46.2618441  49.9962850
   8.8320012  42.3474997  44.7789988   7.9210012  42.4044997  45.0669988
   9.3380012  42.2874997  45.5889988   8.7755413  42.3471985  44.9280622
   3.6610012  43.9764997  43.6049988   2.7710012  44.0764997  43.2649988
   3.9570012  43.1344997  43.2589988   3.5792823  43.8763545  43.5117213
   7.3140012  43.9764997  41.2619988   8.2450012  44.1054997  41.4399988
   7.0990012  44.6464997  40.6119988   7.4124247  44.0846565  41.1985747
  13.2370012  41.5824997  48.0429988  12.5610012  41.7134997  48.7069988
  12.7520012  41.4274997  47.2329988  13.0787145  41.5794905  48.0244517
   5.9880012  45.1714997  38.8289988   5.4450012  44.7914997  38.1369988
   6.8210012  45.3654997  38.3999988   6.0264399  45.1458124  38.6764526
  16.5250012  57.2544997  54.3199988  16.7250012  57.6784997  53.4849988
  17.1800012  57.5974997  54.9269988  16.6410051  57.3589648  54.2877836
   4.1230012  49.7284997  53.9279988   4.8550012  49.9824997  54.4889988
   3.3430012  49.9324997  54.4429988   4.1178232  49.7909177  54.0745760
  10.1520012  45.1354997  46.6659988  10.7170012  44.5884997  46.1189988
  10.0050012  44.6134997  47.4539988  10.2092918  44.9902024  46.6978454
   5.1540012  41.2714997  43.0839988   4.8370012  40.3694997  43.0489988
   5.9360012  41.2734997  42.5309988   5.2162284  41.1481628  43.0044783
   8.7790012  43.5234997  49.0799988   7.9430012  43.9774997  49.1899988
   9.3030012  43.7994997  49.8319988   8.7354414  43.6229376  49.1967136
   9.3230012  49.7364997  40.7639988   8.5780012  49.2294997  40.4419988
   9.1890012  49.7854997  41.7109988   9.2028776  49.6736940  40.8478647
  16.4730012  48.8694997  49.5509988  17.1150012  49.3264997  49.0069988
  15.6430012  48.9824997  49.0879988  16.4485963  48.9472704  49.4140177
  13.2210012  42.5504997  38.9639988  12.2820012  42.6624997  38.8119988
  13.5180012  43.4074997  39.2699988  13.1327666  42.6816443  38.9845768
  10.8420012  49.9204997  52.0009988  10.4970012  49.5394997  52.8079988
  10.6420012  50.8544997  52.0729988  10.7678061  49.9945228  52.1210961
  13.9390012  44.4174997  40.6239988  14.8310012  44.2804997  40.9429988
  13.9960012  45.2084997  40.0879988  14.0686285  44.5056660  40.5951690
   4.4480012  49.0314997  46.5339988   5.1930012  49.0294997  45.9329988
   4.5260012  48.2084997  47.0159988   4.5605518  48.9199315  46.5168929
  11.4490012  51.1954997  39.7899988  11.1530012  52.0214997  40.1709988
  10.7460012  50.5754997  39.9859988  11.3134914  51.2248199  39.8686443
   1.4560012  47.4924997  51.8489988   1.6790012  47.0744997  52.6809988
   0.8540012  46.8794997  51.4259988   1.4051759  47.3524668  51.9057022
   8.4720012  47.0094997  54.0619988   8.1760012  46.8434997  53.1669988
   9.4040012  46.7894997  54.0509988   8.5574166  46.9570640  53.9380536
  13.0930012  52.3824997  51.9519988  12.1920012  52.5654997  51.6839988
  13.1270012  52.6414997  52.8729988  12.9743041  52.4425512  52.0398197
  18.8240012  44.6274997  40.3189988  18.2700012  44.2314997  39.6469988
  18.9240012  45.5374997  40.0409988  18.7617059  44.6963586  40.1894401
  18.7870012  50.4274997  53.1559988  17.9360012  50.6654997  52.7889988
  19.3780012  50.4104997  52.4029988  18.7502487  50.4578258  53.0038893
  17.1190012  53.4134997  40.7839988  16.7460012  52.5874997  41.0929988
  17.3970012  53.2304997  39.8869988  17.1055630  53.2757303  40.7049626
  14.2800012  48.2214997  47.8049988  13.3510012  47.9894997  47.7779988
  14.7310012  47.4444997  47.4749988  14.2139216  48.0847238  47.7566917
   6.8230012  52.5494997  43.9379988   7.3500012  53.3224997  43.7379988
   5.9430012  52.7744997  43.6369988   6.7761773  52.6858005  43.8699010
   2.5780012  47.4114997  38.5249988   3.1940012  48.0384997  38.9049988
   1.7160012  47.7274997  38.7969988   2.5457698  47.5399430  38.6137183
   8.2500012  50.2124997  43.5149988   8.0090012  51.1374997  43.5559988
   7.5090012  49.7534997  43.9109988   8.1168409  50.2771421  43.5741377
   8.7650012  54.3614997  49.8299988   9.1270012  55.2164997  49.5959988
   9.2960012  54.0694997  50.5699988   8.8864473  54.4391060  49.8980855
   6.9330012  55.2344997  43.0599988   5.9830012  55.3394997  43.1109988
   7.2850012  56.0544997  43.4049988   6.8504203  55.3598314  43.1136650
  12.3090012  50.4604997  49.5299988  11.8830012  50.2334997  50.3569988
  12.8890012  49.7224997  49.3479988  12.3291868  50.3295299  49.6185830
  14.5120012  51.3894997  38.6039988  14.8650012  51.0094997  39.4089988
  13.5630012  51.2964997  38.6909988  14.4320441  51.3249596  38.7258559
  14.9670012  55.0124997  51.9999988  14.3660012  54.4574997  51.5039988
  15.2490012  55.6794997  51.3739988  14.9228519  55.0266841  51.8474952
  19.0150012  55.8694997  38.8049988  19.7590012  56.4554997  38.6649988
  18.3210012  56.4374997  39.1389988  19.0230292  56.0265582  38.8309961
   3.0900012  42.2454997  51.4069988   2.1970012  42.5844997  51.3389988
   2.9910012  41.3904997  51.8249988   2.9544164  42.1762588  51.4542235
  15.3780012  50.0624997  40.8309988  15.1000012  49.3344997  41.3869988
  16.3050012  50.1814997  41.0359988  15.4653124  49.9788802  40.9348845
   2.7410012  54.0504997  49.8419988   2.9580012  53.1184997  49.8109988
   2.9870012  54.3244997  50.7249988   2.8039549  53.9600636  49.9571763
   8.6030012  52.5014997  37.0509988   8.8420012  51.7534997  36.5039988
   8.3340012  52.1134997  37.8839988   8.5993675  52.3466638  37.0886865
   7.5400012  52.0714997  39.5079988   7.6860012  51.5514997  40.2979988
   7.5370012  52.9784997  39.8139988   7.5595989  52.1228853  39.6576088
   3.9930012  49.3244997  40.0179988   3.3070012  49.6764997  40.5849988
   4.5150012  50.0874997  39.7709988   3.9696852  49.4758578  40.0622118
  11.8240012  41.9864997  50.2969988  12.5230012  42.0604997  50.9469988
  11.4430012  41.1224997  50.4509988  11.8681767  41.8797624  50.4068322
  12.6090012  41.6384997  41.3939988  12.8290012  42.1104997  40.5909988
  13.1670012  42.0334997  42.0639988  12.7144968  41.7564285  41.3747331
  10.2770012  53.7694997  40.2569988   9.4610012  54.2664997  40.3089988
  10.8070012  54.2444997  39.6169988  10.2369161  53.9017722  40.1775956
   9.8090012  43.3664997  42.2289988  10.6210012  43.8714997  42.2749988
   9.5640012  43.2214997  43.1429988   9.8870520  43.4160375  42.3588517
  10.3440012  44.3524997  51.4139988  10.4630012  44.9264997  52.1709988
  11.0000012  43.6644997  51.5279988  10.4489757  44.3381079  51.5330825
  10.6920012  40.4474997  43.1669988  10.3460012  41.0654997  43.8119988
  11.3510012  40.9484997  42.6859988  10.7337826  40.5995802  43.1900971
   7.6160012  54.8134997  40.2389988   7.7760012  55.6124997  39.7379988
   7.4180012  55.1194997  41.1239988   7.6111649  54.9644469  40.2899815
   6.3500012  41.5104997  39.8539988   6.2670012  42.3994997  40.2009988
   7.2400012  41.2454997  40.0859988   6.4589469  41.5961430  39.9327626
  16.5490012  42.2594997  52.2489988  15.6320012  42.5224997  52.1609988
  16.8840012  42.2564997  51.3519988  16.4689900  42.2950224  52.1157919
  15.1510012  46.0104997  46.3439988  14.3530012  45.5954997  46.0159988
  15.5960012  45.3194997  46.8349988  15.1019885  45.8603543  46.3654889
   4.6090012  51.9384997  38.9149988   5.2010012  52.6374997  39.1909988
   5.0680012  51.5054997  38.1949988   4.7521142  51.9757049  38.8554830
   2.9250012  44.6024997  38.0309988   2.8800012  45.5414997  38.2089988
   2.0370012  44.3664997  37.7609988   2.7988574  44.6991892  38.0188912
  16.2370012  55.2664997  47.9669988  16.0820012  55.9444997  47.3099988
  17.1700012  55.3384997  48.1699988  16.3418500  55.3690170  47.9045119
   3.7330012  39.3844997  46.7039988   3.5040012  39.4434997  45.7759988
   3.2900012  38.5924997  47.0099988   3.6418530  39.2855753  46.6184786
   2.6630012  53.3244997  42.8639988   1.8310012  53.7974997  42.8919988
   3.2090012  53.8344997  42.2659988   2.6229739  53.4581871  42.7869716
   1.9510012  55.9374997  54.1939988   2.4920012  55.7204997  54.9539988
   1.4700012  55.1314997  54.0049988   1.9599345  55.7989514  54.2723076
   6.5490012  54.8564997  55.8149988   7.3160012  54.3974997  56.1559988
   6.5270012  54.6304997  54.8849988   6.6511434  54.7630409  55.7360043
  10.6410012  54.3644997  37.1899988   9.9970012  53.7334997  37.5109988
  11.4030012  53.8334997  36.9579988  10.6558077  54.2062920  37.2026011
  13.1260012  53.2364997  54.5439988  12.7750012  52.3804997  54.7869988
  13.8520012  53.3794997  55.1509988  13.1760769  53.1385636  54.6593619
  15.2450012  54.1814997  37.4239988  15.5280012  53.3874997  37.8759988
  15.9850012  54.4144997  36.8629988  15.3837486  54.1042803  37.4100698
   1.8580012  49.7474997  55.1489988   2.0020012  48.8454997  54.8619988
   1.0860012  50.0334997  54.6609988   1.7733322  49.6628261  55.0437881
   6.2000012  50.0914997  37.2809988   6.2640012  49.2974997  37.8119988
   6.8530012  49.9724997  36.5909988   6.2970241  49.9667148  37.2604317
   8.5140012  49.7174997  54.5809988   8.1850012  49.9884997  53.7239988
   8.6660012  48.7764997  54.4939988   8.4894809  49.6273862  54.4518244
  11.5520012  51.1384997  37.0169988  11.2830012  51.3184997  37.9179988
  11.3460012  50.2124997  36.8859988  11.4873825  51.0380152  37.1225214
  14.2480012  49.6334997  51.9649988  14.9940012  50.2214997  51.8449988
  13.4910012  50.2154997  52.0279988  14.2477554  49.7927011  51.9570907
   2.6910012  46.9474997  54.5689988   3.0990012  46.0904997  54.4479988
   2.4310012  46.9624997  55.4899988   2.7117568  46.8320807  54.6769588
   7.3490012  48.0634997  39.5869988   6.8890012  47.5794997  40.2729988
   7.6040012  47.3954997  38.9509988   7.3204902  47.9068731  39.5949334
   6.6380012  45.9564997  51.9429988   6.0200012  46.6314997  52.2229988
   6.9820012  46.2774997  51.1099988   6.5999615  46.0922721  51.8686581
   8.4200012  46.3064997  37.8489988   8.2400012  46.1524997  36.9219988
   9.3700012  46.4144997  37.8939988   8.5237776  46.3000175  37.7281843
  11.6580012  48.4284997  55.2199988  12.6110012  48.5114997  55.1929988
  11.4970012  47.7164997  55.8399988  11.7666426  48.3436746  55.3000579
  17.8100012  48.6614997  37.2949988  17.5360012  48.2364997  36.4819988
  17.8490012  49.5924997  37.0779988  17.7777699  48.7292484  37.1543610
   6.9770012  43.3114997  53.0249988   7.1270012  42.5824997  52.4229988
   6.9800012  44.0884997  52.4659988   6.9979302  43.3167851  52.8670692
   7.3900012  41.6814997  50.5179988   7.9260012  42.1324997  49.8659988
   6.5380012  41.5734997  50.0949988   7.3482178  41.7286390  50.3715756
   8.9720012  47.1204997  50.7569988   9.7220012  46.9644997  50.1839988
   8.6330012  47.9724997  50.4819988   9.0288921  47.2142968  50.6413561
  13.3870012  44.9354997  55.7859988  13.5800012  44.0044997  55.6739988
  14.2450012  45.3604997  55.7759988  13.5293020  44.8656389  55.7693361
  14.7040012  47.7244997  53.8629988  14.4230012  48.4334997  53.2859988
  15.6470012  47.6514997  53.7119988  14.7929027  47.8117646  53.7635551
   5.4560012  44.5094997  54.9369988   4.6890012  43.9774997  54.7269988
   6.1350012  44.1994997  54.3369988   5.4427022  44.3947506  54.8271648
   8.1960012  39.1374997  50.9489988   8.0970012  40.0844997  50.8439988
   7.4530012  38.7654997  50.4739988   8.0820564  39.2165902  50.8704560
   9.4600012  43.4594997  54.5129988   9.2240012  43.2394997  55.4149988
   8.6760012  43.2524997  54.0029988   9.3218628  43.4014760  54.5673932
  12.1750012  42.5864997  53.5889988  11.2280012  42.6184997  53.7209988
  12.4880012  41.9614997  54.2419988  12.0875475  42.5063207  53.6954455
  13.8090012  41.2204997  55.5939988  13.7130012  40.2684997  55.5879988
  13.4880012  41.4894997  56.4539988  13.7524070  41.1264035  55.7095441
   3.6360012  42.4304997  54.6409988   3.8480012  41.7234997  54.0309988
   3.5250012  41.9924997  55.4849988   3.6499721  42.2747084  54.6716843
   8.4170012  38.4314997  53.6209988   9.1290012  37.7914997  53.6069988
   8.3160012  38.6984997  52.7069988   8.5007939  38.3799938  53.4955650
   8.7710012  40.1144997  55.6739988   8.6390012  39.6384997  54.8539988
   8.1720012  40.8584997  55.6189988   8.6719071  40.1499618  55.5542886
   8.3170012  56.9974997  38.8509988   9.2500012  57.1554997  38.9939988
   8.0530012  57.6724997  38.2259988   8.4089510  57.1103611  38.7860741
   1.8860012  51.6334997  38.3329988   2.8000012  51.7124997  38.6069988
   1.8930012  50.9464997  37.6669988   2.0121131  51.5513961  38.2804393
   0.5350012  57.0264997  43.4109988  -0.1119988  56.5644997  42.8779988
   0.8890012  56.3544997  43.9929988   0.4943849  56.8724723  43.4167959
   1.4050012  55.1074997  45.2149988   1.0700012  54.2274997  45.3869988
   1.6270012  55.4524997  46.0799988   1.3891783  55.0337500  45.3554208
  18.9530012  55.9164997  48.1959988  18.9320012  56.1014997  49.1349988
  19.6440012  56.4854997  47.8549988  19.0434618  56.0186606  48.2783864
  18.5170012  55.4844997  51.1179988  18.0290012  54.7484997  50.7469988
  19.0660012  55.0904997  51.7959988  18.5244872  55.3306249  51.1589160
  16.9670012  51.2734997  55.7559988  16.1010012  51.1684997  56.1499988
  17.3440012  52.0324997  56.2019988  16.8993308  51.3616900  55.8702393
  18.2680012  49.5304997  41.2699988  19.1180012  49.9514997  41.3969988
  18.2740012  48.7904997  41.8769988  18.3851372  49.4880803  41.3694344
  18.6630012  47.5834997  43.0939988  17.9360012  47.1044997  43.4909988
  19.2440012  47.7894997  43.8259988  18.6419375  47.5457090  43.2474129
  18.4220012  50.3684997  48.0409988  19.2550012  49.9904997  47.7609988
  18.5340012  51.3114997  47.9219988  18.5512647  50.4442218  47.9865487
  16.9080012  53.2464997  50.3479988  16.2610012  53.5714997  50.9739988
  16.3910012  52.8064997  49.6739988  16.7494029  53.2315004  50.3425827
  18.9310012  47.4844997  39.4849988  18.4090012  47.8414997  38.7659988
  18.8980012  48.1594997  40.1629988  18.8551634  47.6245413  39.4783145
  17.2800012  44.7244997  38.0359988  17.3760012  45.3914997  37.3549988
  17.1400012  43.9084997  37.5539988  17.2742135  44.7054500  37.8778491
  16.4490012  46.1044997  43.6569988  16.2990012  45.1594997  43.6359988
  16.0960012  46.3854997  44.4999988  16.3806625  46.0130441  43.7682346
   1.4850012  48.1824997  47.6669988   1.6690012  48.1004997  46.7309988
   2.3340012  48.0584997  48.0909988   1.6250139  48.1545003  47.5961455
  17.3060012  48.0744997  53.2949988  17.8890012  47.3404997  53.4869988
  17.8700012  48.8464997  53.3419988  17.4619769  48.0784227  53.3276159
  18.8020012  45.9774997  53.9799988  17.9390012  45.5984997  53.8139988
  19.4070012  45.2384997  53.9059988  18.7655979  45.8258023  53.9472817
  16.5270012  42.1324997  37.1529988  17.1380012  41.7614997  37.7899988
  15.6910012  41.7114997  37.3489988  16.4975032  42.0247554  37.2667035
  16.1600012  43.6874997  42.1189988  16.4400012  42.7804997  42.2429988
  16.9190012  44.1214997  41.7299988  16.3009277  43.6220942  42.0833682
  16.7720012  44.2684997  47.5549988  17.7050012  44.4804997  47.5209988
  16.5370012  44.3704997  48.4769988  16.8678036  44.3112769  47.6749976
  16.8010012  45.0054997  50.3309988  15.9580012  45.2734997  50.6969988
  17.2430012  45.8274997  50.1199988  16.7454158  45.1533291  50.3525491
   1.0820012  43.4534997  53.8079988   2.0020012  43.3314997  54.0439988
   0.6330012  42.7034997  54.1969988   1.1471580  43.3353727  53.8929006
  19.0840012  38.9854997  55.6839988  19.4340012  38.3314997  55.0789988
  19.2310012  39.8224997  55.2449988  19.1518419  39.0091591  55.5417118
  16.7730012  40.9504997  42.1669988  16.9560012  40.5014997  42.9929988
  16.1740012  40.3654997  41.7039988  16.7170202  40.8099975  42.2173275
   2.3030012  41.7654997  46.6989988   2.7490012  40.9734997  47.0009988
   2.7700012  42.4814997  47.1299988   2.4270172  41.7540624  46.7984820
   0.6070012  44.7644997  47.7679988   1.0990012  44.5434997  46.9769988
   0.9700012  45.6054997  48.0489988   0.7233126  44.8478357  47.6977531
  18.6040012  41.0944997  54.0339988  17.6860012  41.3654997  53.9979988
  18.7270012  40.5594997  53.2489988  18.4951066  41.0592892  53.9230487
  18.6400012  41.0174997  38.6949988  19.0520012  40.2964997  38.2199988
  19.3220012  41.6874997  38.7539988  18.7885885  41.0092368  38.6378915
   0.9210012  41.0224997  41.8219988  -0.0039988  41.2314997  41.6929988
   1.3750012  41.5064997  41.1329988   0.8557368  41.1165993  41.7111226
  15.6920012  56.0064997  43.7679988  16.3440012  55.6594997  43.1599988
  16.2020012  56.4954997  44.4139988  15.8502637  56.0250597  43.7720236
   0.8850012  39.7604997  50.1669988   0.2200012  39.5144997  50.8099988
   0.4420012  40.3824997  49.5889988   0.7340956  39.8108632  50.1769352
   3.0770012  52.9354997  54.3109988   2.2560012  53.1104997  53.8509988
   2.8240012  52.8624997  55.2319988   2.9306164  52.9495622  54.3724923
   6.0310012  53.9104997  50.5699988   5.6060012  54.7194997  50.2869988
   6.9350012  53.9954997  50.2679988   6.0950271  54.0328469  50.4903776
  10.3420012  55.3094997  53.5289988  10.5270012  54.9754997  54.4069988
  11.1880012  55.6184997  53.2069988  10.4817539  55.3056047  53.6055605
  12.6870012  56.5954997  52.7729988  13.3640012  55.9624997  52.5329988
  13.0090012  56.9964997  53.5799988  12.8231637  56.5631154  52.8492793
  17.6040012  39.1844997  51.8529988  16.7920012  39.5094997  51.4649988
  17.8370012  38.4244997  51.3199988  17.5243423  39.1262436  51.7278253
   3.4330012  57.1664997  50.6169988   2.7120012  57.6064997  50.1659988
   3.0670012  56.9154997  51.4659988   3.2849804  57.1927698  50.6699840
   5.9000012  56.7664997  49.6469988   5.0350012  56.8384997  50.0509988
   5.8450012  57.3134997  48.8629988   5.7742085  56.8502685  49.5963362
  10.6100012  56.6544997  48.8219988  10.1540012  57.1834997  48.1679988
  10.7730012  57.2574997  49.5479988  10.5695585  56.8084468  48.8305062
  12.9380012  55.5324997  49.7669988  12.0330012  55.6974997  49.5019988
  13.3670012  56.3854997  49.7019988  12.8720799  55.6704483  49.7219182
  15.5420012  57.1024997  50.0619988  15.3600012  58.0184997  49.8519988
  15.7190012  56.6924997  49.2159988  15.5410210  57.1724822  49.9187885
   2.8470012  55.7894997  47.5269988   2.8290012  55.3644997  48.3849988
   3.6520012  55.4714997  47.1189988   2.9533875  55.6883812  47.5891655
   4.9890012  54.4994997  46.1819988   4.7700012  53.5834997  46.3519988
   5.8130012  54.6394997  46.6479988   5.0704420  54.3930520  46.2682774
   7.5260012  54.9694997  47.0309988   7.7390012  54.0814997  46.7439988
   7.5900012  54.9354997  47.9849988   7.5638231  54.8433102  47.1207397
  11.0340012  40.6334997  46.1749988  10.3600012  40.0044997  46.4309988
  11.5980012  40.1494997  45.5719988  11.0179230  40.4818744  46.1285340
  16.1770012  38.7414997  46.2879988  16.7810012  39.2884997  45.7859988
  15.3070012  39.0604997  46.0479988  16.1421241  38.8595806  46.1867654
  17.9040012  39.8794997  44.6209988  18.5160012  39.3654997  44.0949988
  18.2860012  40.7574997  44.6449988  18.0394540  39.9277140  44.5521830
   3.3610012  39.2674997  43.9969988   2.5840012  39.0334997  43.4899988
   3.8910012  38.4704997  44.0059988   3.3262330  39.1276988  43.9287742
   2.1970012  39.0654997  39.8009988   2.6360012  39.6764997  39.2089988
   1.5640012  39.6034997  40.2749988   2.1714514  39.2219257  39.7840930
   7.9400012  39.1944997  43.8109988   8.8150012  39.5824997  43.7809988
   7.8040012  38.9794997  44.7329988   8.0413695  39.2185184  43.9316440
  13.4970012  39.2244997  45.4599988  13.5730012  39.3194997  44.5099988
  13.2220012  38.3164997  45.5889988  13.4702321  39.1147867  45.3475079
  14.8500012  39.2504997  41.1519988  14.1480012  39.8654997  40.9429988
  14.4060012  38.4124997  41.2829988  14.6936330  39.2215783  41.1410328
   2.0980012  55.0134997  40.6989988   1.4130012  54.9754997  40.0309988
   2.1020012  55.9264997  40.9869988   2.0048193  55.1317016  40.6465284
   4.0580012  40.9814997  38.2429988   4.5500012  40.3514997  37.7159988
   4.6820012  41.2774997  38.9069988   4.2095446  40.9353199  38.2605980
   9.0840012  41.2744997  40.6999988   9.2620012  40.6284997  41.3829988
   9.0310012  42.1084997  41.1679988   9.1011829  41.2987985  40.8565940
  10.9630012  56.2234997  39.0959988  11.8290012  56.5894997  38.9179988
  10.7160012  55.7834997  38.2819988  11.0482392  56.2141756  38.9616289
  17.6720012  55.7864997  41.7749988  17.4770012  55.0384997  41.2099988
  17.6330012  56.5444997  41.1919988  17.6400380  55.7866099  41.6188384
   3.3190012  39.7814997  53.5149988   2.9530012  39.0164997  53.9579988
   4.2320012  39.8104997  53.8019988   3.3922790  39.6807224  53.6144070
   5.2920012  39.1324997  55.0509988   6.1900012  38.8584997  54.8659988
   4.9050012  38.3894997  55.5149988   5.3626612  38.9945914  55.0883643
   3.9160012  55.9334997  37.7239988   3.6490012  56.2204997  38.5969988
   4.6880012  55.3874997  37.8759988   3.9837488  55.8990294  37.8641050
  13.7130012  38.4644997  55.2329988  13.7900012  38.0384997  56.0869988
  14.6070012  38.4784997  54.8899988  13.8443428  38.4080880  55.3035310
  16.8890012  54.5374997  53.9249988  16.1070012  54.3514997  53.4059988
  16.8170012  55.4664997  54.1429988  16.7721777  54.6376492  53.8834048
  31.2950012  48.4234997  43.9559988  31.3840012  49.3674997  43.8239988
  30.6570012  48.1484997  43.2979988  31.2209081  48.5154830  43.8489614
  30.2280012  47.6784997  47.3749988  30.1900012  47.0324997  48.0799988
  29.9060012  47.2124997  46.6039988  30.1792333  47.5269408  47.3672978
  22.5970012  47.2934997  48.9679988  22.6380012  46.6674997  49.6909988
  23.3000012  47.9174997  49.1499988  22.6976363  47.2921196  49.0916044
  33.9340012  50.6174997  45.6759988  33.4940012  49.8974997  46.1269988
  33.9210012  51.3384997  46.3059988  33.8720226  50.6163731  45.8228494
  23.5200012  51.7434997  47.5029988  23.1510012  50.9414997  47.1329988
  24.4610012  51.5744997  47.5489988  23.5967289  51.6110153  47.4586316
  20.1300012  45.4034997  42.8959988  19.6830012  46.2494997  42.8769988
  19.5690012  44.8234997  42.3799988  19.9929900  45.4409916  42.8236801
  20.8410012  47.5654997  45.0219988  21.0540012  46.7954997  45.5489988
  21.5790012  47.6544997  44.4179988  20.9698496  47.4721394  45.0125300
  31.0460012  55.7224997  45.8889988  31.6660012  55.0454997  45.6149988
  30.8380012  55.5044997  46.7969988  31.1026904  55.6003870  45.9743365
  28.6180012  50.1114997  47.7809988  28.9220012  49.4254997  47.1859988
  29.3390012  50.2294997  48.3989988  28.7570671  50.0336305  47.7831816
  37.2810012  41.7124997  48.6419988  37.3300012  42.3224997  49.3779988
  37.7060012  42.1734997  47.9189988  37.3451824  41.8583741  48.6450205
  31.7590012  44.5054997  48.1089988  31.9010012  43.5594997  48.1289988
  31.6520012  44.7124997  47.1799988  31.7639864  44.4039534  47.9862339
  24.9130012  42.6064997  45.3809988  24.9570012  43.4664997  44.9629988
  24.4560012  42.0544997  44.7469988  24.8572185  42.6495799  45.2380299
  32.6360012  42.7374997  43.7819988  33.2820012  42.4084997  44.4069988
  33.1460012  43.2554997  43.1589988  32.7934264  42.7624611  43.7833862
  21.5340012  45.0034997  46.1429988  22.1870012  44.4534997  46.5749988
  21.5580012  44.7294997  45.2259988  21.6266683  44.8911466  46.0782123
  26.6900012  46.5534997  45.3579988  27.3060012  46.0274997  45.8679988
  26.1040012  45.9134997  44.9549988  26.6950810  46.3949208  45.3733173
  37.6720012  43.1904997  50.8779988  36.9840012  43.8484997  50.7819988
  37.6880012  42.9934997  51.8139988  37.5798525  43.2540462  50.9914808
  23.7240012  41.5244997  49.4549988  23.5050012  42.0544997  48.6889988
  23.0560012  41.7514997  50.1019988  23.6037600  41.6276906  49.4376379
  31.0930012  51.0244997  42.9989988  30.7970012  50.7024997  42.1479988
  30.7680012  51.9244997  43.0399988  31.0086371  51.1020215  42.8881801
  26.2930012  49.2004997  49.7419988  25.5530012  49.7984997  49.8459988
  27.0070012  49.7544997  49.4269988  26.2882237  49.3572831  49.7136465
  34.4000012  42.0284997  45.7619988  34.1840012  41.2624997  46.2949988
  35.0550012  42.5004997  46.2749988  34.4590632  41.9875889  45.9042861
  23.3170012  43.4164997  47.4069988  23.9310012  44.0494997  47.7809988
  23.8290012  42.9444997  46.7509988  23.4702296  43.4392370  47.3694252
  24.7000012  51.1644997  50.5299988  24.6950012  52.0444997  50.1519988
  23.8470012  51.0814997  50.9549988  24.5839464  51.2736117  50.5357907
  20.8210012  50.8354997  41.3119988  20.5490012  51.0644997  40.4229988
  20.8670012  51.6734997  41.7719988  20.7900094  50.9801213  41.2525697
  34.4460012  52.4574997  48.0239988  33.5050012  52.5154997  48.1859988
  34.7230012  53.3634997  47.8869988  34.3544679  52.5879443  48.0276815
  34.7470012  40.7434997  49.4419988  34.0110012  41.3544997  49.4039988
  35.4300012  41.1584997  48.9149988  34.7386541  40.8831374  49.3655832
  27.7500012  38.8304997  46.9079988  27.6330012  37.8814997  46.8529988
  26.8950012  39.1624997  47.1809988  27.6183733  38.7455409  46.9373897
  32.6980012  54.2384997  44.6499988  33.1240012  53.5314997  44.1649988
  33.0150012  55.0394997  44.2329988  32.7991019  54.2500994  44.5273130
  33.8580012  52.1394997  43.1579988  33.6000012  51.4494997  42.5469988
  33.9290012  51.6964997  44.0039988  33.8322856  51.9852124  43.1886885
  35.5440012  50.7054997  51.6359988  35.6840012  50.1144997  50.8959988
  35.7110012  51.5784997  51.2789988  35.5856778  50.7426426  51.4866965
  30.0170012  47.6674997  41.4079988  29.3050012  48.2024997  41.0559988
  30.7080012  47.7234997  40.7479988  30.0130132  47.7482543  41.2706289
  30.0700012  46.1254997  38.4469988  30.7710012  46.1474997  39.0979988
  30.3730012  45.4974997  37.7909988  30.2067830  46.0436566  38.4473711
  37.3860012  47.0454997  49.7019988  36.7330012  47.7404997  49.7909988
  37.8510012  47.2554997  48.8919988  37.3595390  47.1689425  49.6046883
  33.4220012  47.8774997  42.3599988  32.6900012  48.1054997  42.9329988
  33.8700012  47.1634997  42.8149988  33.3823095  47.8122571  42.4999119
  33.3200012  46.0514997  51.4269988  33.4000012  46.8144997  51.9989988
  32.7180012  46.3304997  50.7369988  33.2495756  46.1937134  51.4120589
  25.0680012  48.5074997  44.2419988  24.7370012  48.1374997  43.4239988
  25.6560012  47.8374997  44.5889988  25.1021873  48.3661156  44.1768102
  26.4340012  51.9354997  46.9239988  26.3400012  51.3574997  46.1669988
  27.1640012  51.5644997  47.4199988  26.5197981  51.8062390  46.8874165
  25.4340012  47.2764997  47.8759988  26.0000012  47.3974997  47.1129988
  25.7530012  47.9134997  48.5149988  25.5545786  47.3791884  47.8580040
  31.7430012  52.7794997  48.6099988  31.5030012  53.4414997  49.2579988
  31.5450012  51.9454997  49.0349988  31.6833808  52.7573134  48.7561524
  26.3140012  51.6754997  52.5929988  26.0030012  52.4574997  53.0479988
  25.6640012  51.5224997  51.9069988  26.1835558  51.7619105  52.5625871
  32.2930012  47.0394997  40.0449988  32.8730012  47.1894997  40.7919988
  32.7070012  47.5104997  39.3219988  32.4282831  47.1236841  40.0494134
  23.2340012  47.8734997  51.8219988  23.3050012  48.5244997  52.5199988
  22.3440012  47.9764997  51.4869988  23.1233117  47.9765936  51.8722700
  30.0200012  53.7764997  43.4799988  30.4940012  54.0714997  44.2579988
  29.4570012  54.5144997  43.2469988  30.0087653  53.9166932  43.5550136
  24.5540012  53.7474997  53.3559988  24.5610012  53.6114997  52.4089988
  23.6380012  53.6294997  53.6079988  24.4311714  53.7129430  53.2604666
  35.9920012  38.7894997  39.8579988  35.0920012  38.9284997  40.1529988
  36.2440012  39.6204997  39.4559988  35.9028702  38.9209074  39.8440205
  24.0580012  47.5774997  41.8319988  23.7660012  48.3454997  41.3409988
  23.3840012  46.9174997  41.6689988  23.9269081  47.5934406  41.7427340
  37.1810012  53.1554997  38.2339988  37.2550012  54.0944997  38.4049988
  38.0870012  52.8504997  38.1779988  37.3135100  53.2426722  38.2498119
  20.1510012  49.9404997  50.6469988  19.6500012  49.9124997  49.8319988
  20.1560012  49.0344997  50.9559988  20.0831526  49.8142278  50.5772872
  19.9010012  52.7204997  47.5309988  20.8470012  52.5764997  47.5119988
  19.7890012  53.5044997  48.0679988  20.0152727  52.8068046  47.6010072
  38.0990012  53.3864997  53.2129988  38.0500012  52.4314997  53.1759988
  37.2720012  53.6544997  53.6139988  37.9804940  53.2918998  53.2621375
  29.0780012  52.9604997  52.0889988  29.1650012  53.7864997  52.5639988
  28.2140012  52.6304997  52.3379988  28.9731964  53.0289878  52.1876549
  29.4920012  56.7324997  41.8949988  29.4170012  56.6114997  40.9489988
  29.5250012  57.6824997  42.0139988  29.4861848  56.8442500  41.7814834
  23.1450012  55.5214997  43.6759988  23.2980012  55.1734997  44.5549988
  22.2950012  55.1654997  43.4209988  23.0508962  55.4256650  43.7618340
  32.5940012  55.8864997  38.8969988  32.9690012  55.1424997  38.4269988
  32.5980012  55.6164997  39.8159988  32.6458915  55.7481486  38.9567824
  32.2630012  55.8124997  41.6469988  31.3270012  55.9124997  41.8249988
  32.5430012  55.1034997  42.2249988  32.1728255  55.7302711  41.7495391
  35.2510012  44.8794997  53.6929988  34.8440012  45.3604997  52.9719988
  35.2920012  43.9744997  53.3849988  35.2008437  44.8229374  53.5526683
  22.4000012  51.2634997  51.6899988  22.6160012  50.9024997  52.5489988
  21.5450012  50.8894997  51.4799988  22.3139292  51.1634111  51.7793386
  25.0190012  39.7334997  47.6849988  24.1570012  39.6464997  47.2779988
  24.9960012  40.5894997  48.1129988  24.8980330  39.8372765  47.6871863
  29.6820012  39.4554997  51.0599988  30.1020012  39.0404997  51.8129988
  28.7490012  39.2774997  51.1769988  29.6133644  39.3745900  51.1789539
  33.0080012  43.2114997  51.9129988  32.4940012  43.0854997  52.7109988
  32.8530012  44.1234997  51.6689988  32.9166852  43.3176132  51.9892158
  33.7710012  48.0724997  37.6749988  33.8130012  47.8494997  36.7449988
  34.6200012  48.4714997  37.8649988  33.8915396  48.0959155  37.5733627
  29.3430012  41.9484997  38.3449988  29.0900012  41.9674997  39.2679988
  29.0870012  41.0764997  38.0439988  29.2737790  41.8332437  38.4306263
  25.1100012  44.6994997  48.7799988  24.4680012  44.6584997  49.4889988
  25.1470012  45.6254997  48.5429988  25.0271324  44.8191559  48.8449824
  25.1070012  44.9204997  43.6919988  24.2140012  44.5794997  43.6339988
  25.5570012  44.5434997  42.9369988  25.0457305  44.8228484  43.5819177
  30.6420012  45.3364997  42.5089988  30.2330012  46.1514997  42.2179988
  31.3630012  45.1964997  41.8949988  30.6834537  45.4292018  42.3861342
  29.7440012  45.5114997  53.9969988  29.1820012  44.8074997  54.3179988
  30.5710012  45.3914997  54.4649988  29.7787095  45.3987883  54.1042330
  31.6470012  44.7824997  45.3229988  31.4520012  45.3874997  44.6079988
  31.8280012  43.9484997  44.8889988  31.6447614  44.7526300  45.1664405
  22.8600012  45.0194997  50.6469988  22.8220012  45.4194997  51.5159988
  22.3690012  44.2024997  50.7379988  22.7884684  44.9638069  50.7781059
  26.2260012  42.3934997  37.4459988  25.7950012  41.9484997  38.1759988
  25.5080012  42.7654997  36.9339988  26.0699438  42.3828940  37.4766799
  19.4680012  42.1354997  44.4979988  20.0990012  42.1064997  45.2169988
  19.9170012  41.7104997  43.7679988  19.6150774  42.0740492  44.4976553
  20.7420012  42.8814997  39.9219988  21.2160012  43.4724997  39.3369988
  20.0250012  43.4124997  40.2689988  20.7099341  43.0340867  39.8888836
  30.9110012  46.4204997  49.9949988  31.2340012  45.7894997  49.3519988
  30.4710012  45.8854997  50.6549988  30.8956895  46.2618441  49.9962850
  27.6880012  42.3474997  44.7789988  26.7770012  42.4044997  45.0669988
  28.1940012  42.2874997  45.5889988  27.6315413  42.3471985  44.9280622
  22.5170012  43.9764997  43.6049988  21.6270012  44.0764997  43.2649988
  22.8130012  43.1344997  43.2589988  22.4352823  43.8763545  43.5117213
  26.1700012  43.9764997  41.2619988  27.1010012  44.1054997  41.4399988
  25.9550012  44.6464997  40.6119988  26.2684247  44.0846565  41.1985747
  32.0930012  41.5824997  48.0429988  31.4170012  41.7134997  48.7069988
  31.6080012  41.4274997  47.2329988  31.9347145  41.5794905  48.0244517
  24.8440012  45.1714997  38.8289988  24.3010012  44.7914997  38.1369988
  25.6770012  45.3654997  38.3999988  24.8824399  45.1458124  38.6764526
  35.3810012  57.2544997  54.3199988  35.5810012  57.6784997  53.4849988
  36.0360012  57.5974997  54.9269988  35.4970051  57.3589648  54.2877836
  22.9790012  49.7284997  53.9279988  23.7110012  49.9824997  54.4889988
  22.1990012  49.9324997  54.4429988  22.9738232  49.7909177  54.0745760
  29.0080012  45.1354997  46.6659988  29.5730012  44.5884997  46.1189988
  28.8610012  44.6134997  47.4539988  29.0652918  44.9902024  46.6978454
  24.0100012  41.2714997  43.0839988  23.6930012  40.3694997  43.0489988
  24.7920012  41.2734997  42.5309988  24.0722284  41.1481628  43.0044783
  27.6350012  43.5234997  49.0799988  26.7990012  43.9774997  49.1899988
  28.1590012  43.7994997  49.8319988  27.5914414  43.6229376  49.1967136
  28.1790012  49.7364997  40.7639988  27.4340012  49.2294997  40.4419988
  28.0450012  49.7854997  41.7109988  28.0588776  49.6736940  40.8478647
  35.3290012  48.8694997  49.5509988  35.9710012  49.3264997  49.0069988
  34.4990012  48.9824997  49.0879988  35.3045963  48.9472704  49.4140177
  32.0770012  42.5504997  38.9639988  31.1380012  42.6624997  38.8119988
  32.3740012  43.4074997  39.2699988  31.9887666  42.6816443  38.9845768
  29.6980012  49.9204997  52.0009988  29.3530012  49.5394997  52.8079988
  29.4980012  50.8544997  52.0729988  29.6238061  49.9945228  52.1210961
  32.7950012  44.4174997  40.6239988  33.6870012  44.2804997  40.9429988
  32.8520012  45.2084997  40.0879988  32.9246285  44.5056660  40.5951690
  23.3040012  49.0314997  46.5339988  24.0490012  49.0294997  45.9329988
  23.3820012  48.2084997  47.0159988  23.4165518  48.9199315  46.5168929
  30.3050012  51.1954997  39.7899988  30.0090012  52.0214997  40.1709988
  29.6020012  50.5754997  39.9859988  30.1694914  51.2248199  39.8686443
  20.3120012  47.4924997  51.8489988  20.5350012  47.0744997  52.6809988
  19.7100012  46.8794997  51.4259988  20.2611759  47.3524668  51.9057022
  27.3280012  47.0094997  54.0619988  27.0320012  46.8434997  53.1669988
  28.2600012  46.7894997  54.0509988  27.4134166  46.9570640  53.9380536
  31.9490012  52.3824997  51.9519988  31.0480012  52.5654997  51.6839988
  31.9830012  52.6414997  52.8729988  31.8303041  52.4425512  52.0398197
  37.6800012  44.6274997  40.3189988  37.1260012  44.2314997  39.6469988
  37.7800012  45.5374997  40.0409988  37.6177059  44.6963586  40.1894401
  37.6430012  50.4274997  53.1559988  36.7920012  50.6654997  52.7889988
  38.2340012  50.4104997  52.4029988  37.6062487  50.4578258  53.0038893
  35.9750012  53.4134997  40.7839988  35.6020012  52.5874997  41.0929988
  36.2530012  53.2304997  39.8869988  35.9615630  53.2757303  40.7049626
  33.1360012  48.2214997  47.8049988  32.2070012  47.9894997  47.7779988
  33.5870012  47.4444997  47.4749988  33.0699216  48.0847238  47.7566917
  25.6790012  52.5494997  43.9379988  26.2060012  53.3224997  43.7379988
  24.7990012  52.7744997  43.6369988  25.6321773  52.6858005  43.8699010
  21.4340012  47.4114997  38.5249988  22.0500012  48.0384997  38.9049988
  20.5720012  47.7274997  38.7969988  21.4017698  47.5399430  38.6137183
  27.1060012  50.2124997  43.5149988  26.8650012  51.1374997  43.5559988
  26.3650012  49.7534997  43.9109988  26.9728409  50.2771421  43.5741377
  27.6210012  54.3614997  49.8299988  27.9830012  55.2164997  49.5959988
  28.1520012  54.0694997  50.5699988  27.7424473  54.4391060  49.8980855
  25.7890012  55.2344997  43.0599988  24.8390012  55.3394997  43.1109988
  26.1410012  56.0544997  43.4049988  25.7064203  55.3598314  43.1136650
  31.1650012  50.4604997  49.5299988  30.7390012  50.2334997  50.3569988
  31.7450012  49.7224997  49.3479988  31.1851868  50.3295299  49.6185830
  33.3680012  51.3894997  38.6039988  33.7210012  51.0094997  39.4089988
  32.4190012  51.2964997  38.6909988  33.2880441  51.3249596  38.7258559
  33.8230012  55.0124997  51.9999988  33.2220012  54.4574997  51.5039988
  34.1050012  55.6794997  51.3739988  33.7788519  55.0266841  51.8474952
  37.8710012  55.8694997  38.8049988  38.6150012  56.4554997  38.6649988
  37.1770012  56.4374997  39.1389988  37.8790292  56.0265582  38.8309961
  21.9460012  42.2454997  51.4069988  21.0530012  42.5844997  51.3389988
  21.8470012  41.3904997  51.8249988  21.8104164  42.1762588  51.4542235
  34.2340012  50.0624997  40.8309988  33.9560012  49.3344997  41.3869988
  35.1610012  50.1814997  41.0359988  34.3213124  49.9788802  40.9348845
  21.5970012  54.0504997  49.8419988  21.8140012  53.1184997  49.8109988
  21.8430012  54.3244997  50.7249988  21.6599549  53.9600636  49.9571763
  27.4590012  52.5014997  37.0509988  27.6980012  51.7534997  36.5039988
  27.1900012  52.1134997  37.8839988  27.4553675  52.3466638  37.0886865
  26.3960012  52.0714997  39.5079988  26.5420012  51.5514997  40.2979988
  26.3930012  52.9784997  39.8139988  26.4155989  52.1228853  39.6576088
  22.8490012  49.3244997  40.0179988  22.1630012  49.6764997  40.5849988
  23.3710012  50.0874997  39.7709988  22.8256852  49.4758578  40.0622118
  30.6800012  41.9864997  50.2969988  31.3790012  42.0604997  50.9469988
  30.2990012  41.1224997  50.4509988  30.7241767  41.8797624  50.4068322
  31.4650012  41.6384997  41.3939988  31.6850012  42.1104997  40.5909988
  32.0230012  42.0334997  42.0639988  31.5704968  41.7564285  41.3747331
  29.1330012  53.7694997  40.2569988  28.3170012  54.2664997  40.3089988
  29.6630012  54.2444997  39.6169988  29.0929161  53.9017722  40.1775956
  28.6650012  43.3664997  42.2289988  29.4770012  43.8714997  42.2749988
  28.4200012  43.2214997  43.1429988  28.7430520  43.4160375  42.3588517
  29.2000012  44.3524997  51.4139988  29.3190012  44.9264997  52.1709988
  29.8560012  43.6644997  51.5279988  29.3049757  44.3381079  51.5330825
  29.5480012  40.4474997  43.1669988  29.2020012  41.0654997  43.8119988
  30.2070012  40.9484997  42.6859988  29.5897826  40.5995802  43.1900971
  26.4720012  54.8134997  40.2389988  26.6320012  55.6124997  39.7379988
  26.2740012  55.1194997  41.1239988  26.4671649  54.9644469  40.2899815
  25.2060012  41.5104997  39.8539988  25.1230012  42.3994997  40.2009988
  26.0960012  41.2454997  40.0859988  25.3149469  41.5961430  39.9327626
  35.4050012  42.2594997  52.2489988  34.4880012  42.5224997  52.1609988
  35.7400012  42.2564997  51.3519988  35.3249900  42.2950224  52.1157919
  34.0070012  46.0104997  46.3439988  33.2090012  45.5954997  46.0159988
  34.4520012  45.3194997  46.8349988  33.9579885  45.8603543  46.3654889
  23.4650012  51.9384997  38.9149988  24.0570012  52.6374997  39.1909988
  23.9240012  51.5054997  38.1949988  23.6081142  51.9757049  38.8554830
  21.7810012  44.6024997  38.0309988  21.7360012  45.5414997  38.2089988
  20.8930012  44.3664997  37.7609988  21.6548574  44.6991892  38.0188912
  35.0930012  55.2664997  47.9669988  34.9380012  55.9444997  47.3099988
  36.0260012  55.3384997  48.1699988  35.1978500  55.3690170  47.9045119
  22.5890012  39.3844997  46.7039988  22.3600012  39.4434997  45.7759988
  22.1460012  38.5924997  47.0099988  22.4978530  39.2855753  46.6184786
  21.5190012  53.3244997  42.8639988  20.6870012  53.7974997  42.8919988
  22.0650012  53.8344997  42.2659988  21.4789739  53.4581871  42.7869716
  20.8070012  55.9374997  54.1939988  21.3480012  55.7204997  54.9539988
  20.3260012  55.1314997  54.0049988  20.8159345  55.7989514  54.2723076
  25.4050012  54.8564997  55.8149988  26.1720012  54.3974997  56.1559988
  25.3830012  54.6304997  54.8849988  25.5071434  54.7630409  55.7360043
  29.4970012  54.3644997  37.1899988  28.8530012  53.7334997  37.5109988
  30.2590012  53.8334997  36.9579988  29.5118077  54.2062920  37.2026011
  31.9820012  53.2364997  54.5439988  31.6310012  52.3804997  54.7869988
  32.7080012  53.3794997  55.1509988  32.0320769  53.1385636  54.6593619
  34.1010012  54.1814997  37.4239988  34.3840012  53.3874997  37.8759988
  34.8410012  54.4144997  36.8629988  34.2397486  54.1042803  37.4100698
  20.7140012  49.7474997  55.1489988  20.8580012  48.8454997  54.8619988
  19.9420012  50.0334997  54.6609988  20.6293322  49.6628261  55.0437881
  25.0560012  50.0914997  37.2809988  25.1200012  49.2974997  37.8119988
  25.7090012  49.9724997  36.5909988  25.1530241  49.9667148  37.2604317
  27.3700012  49.7174997  54.5809988  27.0410012  49.9884997  53.7239988
  27.5220012  48.7764997  54.4939988  27.3454809  49.6273862  54.4518244
  30.4080012  51.1384997  37.0169988  30.1390012  51.3184997  37.9179988
  30.2020012  50.2124997  36.8859988  30.3433825  51.0380152  37.1225214
  33.1040012  49.6334997  51.9649988  33.8500012  50.2214997  51.8449988
  32.3470012  50.2154997  52.0279988  33.1037554  49.7927011  51.9570907
  21.5470012  46.9474997  54.5689988  21.9550012  46.0904997  54.4479988
  21.2870012  46.9624997  55.4899988  21.5677568  46.8320807  54.6769588
  26.2050012  48.0634997  39.5869988  25.7450012  47.5794997  40.2729988
  26.4600012  47.3954997  38.9509988  26.1764902  47.9068731  39.5949334
  25.4940012  45.9564997  51.9429988  24.8760012  46.6314997  52.2229988
  25.8380012  46.2774997  51.1099988  25.4559615  46.0922721  51.8686581
  27.2760012  46.3064997  37.8489988  27.0960012  46.1524997  36.9219988
  28.2260012  46.4144997  37.8939988  27.3797776  46.3000175  37.7281843
  30.5140012  48.4284997  55.2199988  31.4670012  48.5114997  55.1929988
  30.3530012  47.7164997  55.8399988  30.6226426  48.3436746  55.3000579
  36.6660012  48.6614997  37.2949988  36.3920012  48.2364997  36.4819988
  36.7050012  49.5924997  37.0779988  36.6337699  48.7292484  37.1543610
  25.8330012  43.3114997  53.0249988  25.9830012  42.5824997  52.4229988
  25.8360012  44.0884997  52.4659988  25.8539302  43.3167851  52.8670692
  26.2460012  41.6814997  50.5179988  26.7820012  42.1324997  49.8659988
  25.3940012  41.5734997  50.0949988  26.2042178  41.7286390  50.3715756
  27.8280012  47.1204997  50.7569988  28.5780012  46.9644997  50.1839988
  27.4890012  47.9724997  50.4819988  27.8848921  47.2142968  50.6413561
  32.2430012  44.9354997  55.7859988  32.4360012  44.0044997  55.6739988
  33.1010012  45.3604997  55.7759988  32.3853020  44.8656389  55.7693361
  33.5600012  47.7244997  53.8629988  33.2790012  48.4334997  53.2859988
  34.5030012  47.6514997  53.7119988  33.6489027  47.8117646  53.7635551
  24.3120012  44.5094997  54.9369988  23.5450012  43.9774997  54.7269988
  24.9910012  44.1994997  54.3369988  24.2987022  44.3947506  54.8271648
  27.0520012  39.1374997  50.9489988  26.9530012  40.0844997  50.8439988
  26.3090012  38.7654997  50.4739988  26.9380563  39.2165902  50.8704560
  28.3160012  43.4594997  54.5129988  28.0800012  43.2394997  55.4149988
  27.5320012  43.2524997  54.0029988  28.1778628  43.4014760  54.5673932
  31.0310012  42.5864997  53.5889988  30.0840012  42.6184997  53.7209988
  31.3440012  41.9614997  54.2419988  30.9435475  42.5063207  53.6954455
  32.6650012  41.2204997  55.5939988  32.5690012  40.2684997  55.5879988
  32.3440012  41.4894997  56.4539988  32.6084070  41.1264035  55.7095441
  22.4920012  42.4304997  54.6409988  22.7040012  41.7234997  54.0309988
  22.3810012  41.9924997  55.4849988  22.5059721  42.2747084  54.6716843
  27.2730012  38.4314997  53.6209988  27.9850012  37.7914997  53.6069988
  27.1720012  38.6984997  52.7069988  27.3567939  38.3799938  53.4955650
  27.6270012  40.1144997  55.6739988  27.4950012  39.6384997  54.8539988
  27.0280012  40.8584997  55.6189988  27.5279071  40.1499618  55.5542886
  27.1730012  56.9974997  38.8509988  28.1060012  57.1554997  38.9939988
  26.9090012  57.6724997  38.2259988  27.2649510  57.1103611  38.7860741
  20.7420012  51.6334997  38.3329988  21.6560012  51.7124997  38.6069988
  20.7490012  50.9464997  37.6669988  20.8681131  51.5513961  38.2804393
  19.3910012  57.0264997  43.4109988  18.7440012  56.5644997  42.8779988
  19.7450012  56.3544997  43.9929988  19.3503849  56.8724723  43.4167959
  20.2610012  55.1074997  45.2149988  19.9260012  54.2274997  45.3869988
  20.4830012  55.4524997  46.0799988  20.2451783  55.0337500  45.3554208
  37.8090012  55.9164997  48.1959988  37.7880012  56.1014997  49.1349988
  38.5000012  56.4854997  47.8549988  37.8994618  56.0186606  48.2783864
  37.3730012  55.4844997  51.1179988  36.8850012  54.7484997  50.7469988
  37.9220012  55.0904997  51.7959988  37.3804872  55.3306249  51.1589160
  35.8230012  51.2734997  55.7559988  34.9570012  51.1684997  56.1499988
  36.2000012  52.0324997  56.2019988  35.7553308  51.3616900  55.8702393
  37.1240012  49.5304997  41.2699988  37.9740012  49.9514997  41.3969988
  37.1300012  48.7904997  41.8769988  37.2411372  49.4880803  41.3694344
  37.5190012  47.5834997  43.0939988  36.7920012  47.1044997  43.4909988
  38.1000012  47.7894997  43.8259988  37.4979375  47.5457090  43.2474129
  37.2780012  50.3684997  48.0409988  38.1110012  49.9904997  47.7609988
  37.3900012  51.3114997  47.9219988  37.4072647  50.4442218  47.9865487
  35.7640012  53.2464997  50.3479988  35.1170012  53.5714997  50.9739988
  35.2470012  52.8064997  49.6739988  35.6054029  53.2315004  50.3425827
  37.7870012  47.4844997  39.4849988  37.2650012  47.8414997  38.7659988
  37.7540012  48.1594997  40.1629988  37.7111634  47.6245413  39.4783145
  36.1360012  44.7244997  38.0359988  36.2320012  45.3914997  37.3549988
  35.9960012  43.9084997  37.5539988  36.1302135  44.7054500  37.8778491
  35.3050012  46.1044997  43.6569988  35.1550012  45.1594997  43.6359988
  34.9520012  46.3854997  44.4999988  35.2366625  46.0130441  43.7682346
  20.3410012  48.1824997  47.6669988  20.5250012  48.1004997  46.7309988
  21.1900012  48.0584997  48.0909988  20.4810139  48.1545003  47.5961455
  36.1620012  48.0744997  53.2949988  36.7450012  47.3404997  53.4869988
  36.7260012  48.8464997  53.3419988  36.3179769  48.0784227  53.3276159
  37.6580012  45.9774997  53.9799988  36.7950012  45.5984997  53.8139988
  38.2630012  45.2384997  53.9059988  37.6215979  45.8258023  53.9472817
  35.3830012  42.1324997  37.1529988  35.9940012  41.7614997  37.7899988
  34.5470012  41.7114997  37.3489988  35.3535032  42.0247554  37.2667035
  35.0160012  43.6874997  42.1189988  35.2960012  42.7804997  42.2429988
  35.7750012  44.1214997  41.7299988  35.1569277  43.6220942  42.0833682
  35.6280012  44.2684997  47.5549988  36.5610012  44.4804997  47.5209988
  35.3930012  44.3704997  48.4769988  35.7238036  44.3112769  47.6749976
  35.6570012  45.0054997  50.3309988  34.8140012  45.2734997  50.6969988
  36.0990012  45.8274997  50.1199988  35.6014158  45.1533291  50.3525491
  19.9380012  43.4534997  53.8079988  20.8580012  43.3314997  54.0439988
  19.4890012  42.7034997  54.1969988  20.0031580  43.3353727  53.8929006
  37.9400012  38.9854997  55.6839988  38.2900012  38.3314997  55.0789988
  38.0870012  39.8224997  55.2449988  38.0078419  39.0091591  55.5417118
  35.6290012  40.9504997  42.1669988  35.8120012  40.5014997  42.9929988
  35.0300012  40.3654997  41.7039988  35.5730202  40.8099975  42.2173275
  21.1590012  41.7654997  46.6989988  21.6050012  40.9734997  47.0009988
  21.6260012  42.4814997  47.1299988  21.2830172  41.7540624  46.7984820
  19.4630012  44.7644997  47.7679988  19.9550012  44.5434997  46.9769988
  19.8260012  45.6054997  48.0489988  19.5793126  44.8478357  47.6977531
  37.4600012  41.0944997  54.0339988  36.5420012  41.3654997  53.9979988
  37.5830012  40.5594997  53.2489988  37.3511066  41.0592892  53.9230487
  37.4960012  41.0174997  38.6949988  37.9080012  40.2964997  38.2199988
  38.1780012  41.6874997  38.7539988  37.6445885  41.0092368  38.6378915
  19.7770012  41.0224997  41.8219988  18.8520012  41.2314997  41.6929988
  20.2310012  41.5064997  41.1329988  19.7117368  41.1165993  41.7111226
  34.5480012  56.0064997  43.7679988  35.2000012  55.6594997  43.1599988
  35.0580012  56.4954997  44.4139988  34.7062637  56.0250597  43.7720236
  19.7410012  39.7604997  50.1669988  19.0760012  39.5144997  50.8099988
  19.2980012  40.3824997  49.5889988  19.5900956  39.8108632  50.1769352
  21.9330012  52.9354997  54.3109988  21.1120012  53.1104997  53.8509988
  21.6800012  52.8624997  55.2319988  21.7866164  52.9495622  54.3724923
  24.8870012  53.9104997  50.5699988  24.4620012  54.7194997  50.2869988
  25.7910012  53.9954997  50.2679988  24.9510271  54.0328469  50.4903776
  29.1980012  55.3094997  53.5289988  29.3830012  54.9754997  54.4069988
  30.0440012  55.6184997  53.2069988  29.3377539  55.3056047  53.6055605
  31.5430012  56.5954997  52.7729988  32.2200012  55.9624997  52.5329988
  31.8650012  56.9964997  53.5799988  31.6791637  56.5631154  52.8492793
  36.4600012  39.1844997  51.8529988  35.6480012  39.5094997  51.4649988
  36.6930012  38.4244997  51.3199988  36.3803423  39.1262436  51.7278253
  22.2890012  57.1664997  50.6169988  21.5680012  57.6064997  50.1659988
  21.9230012  56.9154997  51.4659988  22.1409804  57.1927698  50.6699840
  24.7560012  56.7664997  49.6469988  23.8910012  56.8384997  50.0509988
  24.7010012  57.3134997  48.8629988  24.6302085  56.8502685  49.5963362
  29.4660012  56.6544997  48.8219988  29.0100012  57.1834997  48.1679988
  29.6290012  57.2574997  49.5479988  29.4255585  56.8084468  48.8305062
  31.7940012  55.5324997  49.7669988  30.8890012  55.6974997  49.5019988
  32.2230012  56.3854997  49.7019988  31.7280799  55.6704483  49.7219182
  34.3980012  57.1024997  50.0619988  34.2160012  58.0184997  49.8519988
  34.5750012  56.6924997  49.2159988  34.3970210  57.1724822  49.9187885
  21.7030012  55.7894997  47.5269988  21.6850012  55.3644997  48.3849988
  22.5080012  55.4714997  47.1189988  21.8093875  55.6883812  47.5891655
  23.8450012  54.4994997  46.1819988  23.6260012  53.5834997  46.3519988
  24.6690012  54.6394997  46.6479988  23.9264420  54.3930520  46.2682774
  26.3820012  54.9694997  47.0309988  26.5950012  54.0814997  46.7439988
  26.4460012  54.9354997  47.9849988  26.4198231  54.8433102  47.1207397
  29.8900012  40.6334997  46.1749988  29.2160012  40.0044997  46.4309988
  30.4540012  40.1494997  45.5719988  29.8739230  40.4818744  46.1285340
  35.0330012  38.7414997  46.2879988  35.6370012  39.2884997  45.7859988
  34.1630012  39.0604997  46.0479988  34.9981241  38.8595806  46.1867654
  36.7600012  39.8794997  44.6209988  37.3720012  39.3654997  44.0949988
  37.1420012  40.7574997  44.6449988  36.8954540  39.9277140  44.5521830
  22.2170012  39.2674997  43.9969988  21.4400012  39.0334997  43.4899988
  22.7470012  38.4704997  44.0059988  22.1822330  39.1276988  43.9287742
  21.0530012  39.0654997  39.8009988  21.4920012  39.6764997  39.2089988
  20.4200012  39.6034997  40.2749988  21.0274514  39.2219257  39.7840930
  26.7960012  39.1944997  43.8109988  27.6710012  39.5824997  43.7809988
  26.6600012  38.9794997  44.7329988  26.8973695  39.2185184  43.9316440
  32.3530012  39.2244997  45.4599988  32.4290012  39.3194997  44.5099988
  32.0780012  38.3164997  45.5889988  32.3262321  39.1147867  45.3475079
  33.7060012  39.2504997  41.1519988  33.0040012  39.8654997  40.9429988
  33.2620012  38.4124997  41.2829988  33.5496330  39.2215783  41.1410328
  20.9540012  55.0134997  40.6989988  20.2690012  54.9754997  40.0309988
  20.9580012  55.9264997  40.9869988  20.8608193  55.1317016  40.6465284
  22.9140012  40.9814997  38.2429988  23.4060012  40.3514997  37.7159988
  23.5380012  41.2774997  38.9069988  23.0655446  40.9353199  38.2605980
  27.9400012  41.2744997  40.6999988  28.1180012  40.6284997  41.3829988
  27.8870012  42.1084997  41.1679988  27.9571829  41.2987985  40.8565940
  29.8190012  56.2234997  39.0959988  30.6850012  56.5894997  38.9179988
  29.5720012  55.7834997  38.2819988  29.9042392  56.2141756  38.9616289
  36.5280012  55.7864997  41.7749988  36.3330012  55.0384997  41.2099988
  36.4890012  56.5444997  41.1919988  36.4960380  55.7866099  41.6188384
  22.1750012  39.7814997  53.5149988  21.8090012  39.0164997  53.9579988
  23.0880012  39.8104997  53.8019988  22.2482790  39.6807224  53.6144070
  24.1480012  39.1324997  55.0509988  25.0460012  38.8584997  54.8659988
  23.7610012  38.3894997  55.5149988  24.2186612  38.9945914  55.0883643
  22.7720012  55.9334997  37.7239988  22.5050012  56.2204997  38.5969988
  23.5440012  55.3874997  37.8759988  22.8397488  55.8990294  37.8641050
  32.5690012  38.4644997  55.2329988  32.6460012  38.0384997  56.0869988
  33.4630012  38.4784997  54.8899988  32.7003428  38.4080880  55.3035310
  35.7450012  54.5374997  53.9249988  34.9630012  54.3514997  53.4059988
  35.6730012  55.4664997  54.1429988  35.6281777  54.6376492  53.8834048
  50.1510012  48.4234997  43.9559988  50.2400012  49.3674997  43.8239988
  49.5130012  48.1484997  43.2979988  50.0769081  48.5154830  43.8489614
  49.0840012  47.6784997  47.3749988  49.0460012  47.0324997  48.0799988
  48.7620012  47.2124997  46.6039988  49.0352333  47.5269408  47.3672978
  41.4530012  47.2934997  48.9679988  41.4940012  46.6674997  49.6909988
  42.1560012  47.9174997  49.1499988  41.5536363  47.2921196  49.0916044
  52.7900012  50.6174997  45.6759988  52.3500012  49.8974997  46.1269988
  52.7770012  51.3384997  46.3059988  52.7280226  50.6163731  45.8228494
  42.3760012  51.7434997  47.5029988  42.0070012  50.9414997  47.1329988
  43.3170012  51.5744997  47.5489988  42.4527289  51.6110153  47.4586316
  38.9860012  45.4034997  42.8959988  38.5390012  46.2494997  42.8769988
  38.4250012  44.8234997  42.3799988  38.8489900  45.4409916  42.8236801
  39.6970012  47.5654997  45.0219988  39.9100012  46.7954997  45.5489988
  40.4350012  47.6544997  44.4179988  39.8258496  47.4721394  45.0125300
  49.9020012  55.7224997  45.8889988  50.5220012  55.0454997  45.6149988
  49.6940012  55.5044997  46.7969988  49.9586904  55.6003870  45.9743365
  47.4740012  50.1114997  47.7809988  47.7780012  49.4254997  47.1859988
  48.1950012  50.2294997  48.3989988  47.6130671  50.0336305  47.7831816
  56.1370012  41.7124997  48.6419988  56.1860012  42.3224997  49.3779988
  56.5620012  42.1734997  47.9189988  56.2011824  41.8583741  48.6450205
  50.6150012  44.5054997  48.1089988  50.7570012  43.5594997  48.1289988
  50.5080012  44.7124997  47.1799988  50.6199864  44.4039534  47.9862339
  43.7690012  42.6064997  45.3809988  43.8130012  43.4664997  44.9629988
  43.3120012  42.0544997  44.7469988  43.7132185  42.6495799  45.2380299
  51.4920012  42.7374997  43.7819988  52.1380012  42.4084997  44.4069988
  52.0020012  43.2554997  43.1589988  51.6494264  42.7624611  43.7833862
  40.3900012  45.0034997  46.1429988  41.0430012  44.4534997  46.5749988
  40.4140012  44.7294997  45.2259988  40.4826683  44.8911466  46.0782123
  45.5460012  46.5534997  45.3579988  46.1620012  46.0274997  45.8679988
  44.9600012  45.9134997  44.9549988  45.5510810  46.3949208  45.3733173
  56.5280012  43.1904997  50.8779988  55.8400012  43.8484997  50.7819988
  56.5440012  42.9934997  51.8139988  56.4358525  43.2540462  50.9914808
  42.5800012  41.5244997  49.4549988  42.3610012  42.0544997  48.6889988
  41.9120012  41.7514997  50.1019988  42.4597600  41.6276906  49.4376379
  49.9490012  51.0244997  42.9989988  49.6530012  50.7024997  42.1479988
  49.6240012  51.9244997  43.0399988  49.8646371  51.1020215  42.8881801
  45.1490012  49.2004997  49.7419988  44.4090012  49.7984997  49.8459988
  45.8630012  49.7544997  49.4269988  45.1442237  49.3572831  49.7136465
  53.2560012  42.0284997  45.7619988  53.0400012  41.2624997  46.2949988
  53.9110012  42.5004997  46.2749988  53.3150632  41.9875889  45.9042861
  42.1730012  43.4164997  47.4069988  42.7870012  44.0494997  47.7809988
  42.6850012  42.9444997  46.7509988  42.3262296  43.4392370  47.3694252
  43.5560012  51.1644997  50.5299988  43.5510012  52.0444997  50.1519988
  42.7030012  51.0814997  50.9549988  43.4399464  51.2736117  50.5357907
  39.6770012  50.8354997  41.3119988  39.4050012  51.0644997  40.4229988
  39.7230012  51.6734997  41.7719988  39.6460094  50.9801213  41.2525697
  53.3020012  52.4574997  48.0239988  52.3610012  52.5154997  48.1859988
  53.5790012  53.3634997  47.8869988  53.2104679  52.5879443  48.0276815
  53.6030012  40.7434997  49.4419988  52.8670012  41.3544997  49.4039988
  54.2860012  41.1584997  48.9149988  53.5946541  40.8831374  49.3655832
  46.6060012  38.8304997  46.9079988  46.4890012  37.8814997  46.8529988
  45.7510012  39.1624997  47.1809988  46.4743733  38.7455409  46.9373897
  51.5540012  54.2384997  44.6499988  51.9800012  53.5314997  44.1649988
  51.8710012  55.0394997  44.2329988  51.6551019  54.2500994  44.5273130
  52.7140012  52.1394997  43.1579988  52.4560012  51.4494997  42.5469988
  52.7850012  51.6964997  44.0039988  52.6882856  51.9852124  43.1886885
  54.4000012  50.7054997  51.6359988  54.5400012  50.1144997  50.8959988
  54.5670012  51.5784997  51.2789988  54.4416778  50.7426426  51.4866965
  48.8730012  47.6674997  41.4079988  48.1610012  48.2024997  41.0559988
  49.5640012  47.7234997  40.7479988  48.8690132  47.7482543  41.2706289
  48.9260012  46.1254997  38.4469988  49.6270012  46.1474997  39.0979988
  49.2290012  45.4974997  37.7909988  49.0627830  46.0436566  38.4473711
  56.2420012  47.0454997  49.7019988  55.5890012  47.7404997  49.7909988
  56.7070012  47.2554997  48.8919988  56.2155390  47.1689425  49.6046883
  52.2780012  47.8774997  42.3599988  51.5460012  48.1054997  42.9329988
  52.7260012  47.1634997  42.8149988  52.2383095  47.8122571  42.4999119
  52.1760012  46.0514997  51.4269988  52.2560012  46.8144997  51.9989988
  51.5740012  46.3304997  50.7369988  52.1055756  46.1937134  51.4120589
  43.9240012  48.5074997  44.2419988  43.5930012  48.1374997  43.4239988
  44.5120012  47.8374997  44.5889988  43.9581873  48.3661156  44.1768102
  45.2900012  51.9354997  46.9239988  45.1960012  51.3574997  46.1669988
  46.0200012  51.5644997  47.4199988  45.3757981  51.8062390  46.8874165
  44.2900012  47.2764997  47.8759988  44.8560012  47.3974997  47.1129988
  44.6090012  47.9134997  48.5149988  44.4105786  47.3791884  47.8580040
  50.5990012  52.7794997  48.6099988  50.3590012  53.4414997  49.2579988
  50.4010012  51.9454997  49.0349988  50.5393808  52.7573134  48.7561524
  45.1700012  51.6754997  52.5929988  44.8590012  52.4574997  53.0479988
  44.5200012  51.5224997  51.9069988  45.0395558  51.7619105  52.5625871
  51.1490012  47.0394997  40.0449988  51.7290012  47.1894997  40.7919988
  51.5630012  47.5104997  39.3219988  51.2842830  47.1236841  40.0494134
  42.0900012  47.8734997  51.8219988  42.1610012  48.5244997  52.5199988
  41.2000012  47.9764997  51.4869988  41.9793117  47.9765936  51.8722700
  48.8760012  53.7764997  43.4799988  49.3500012  54.0714997  44.2579988
  48.3130012  54.5144997  43.2469988  48.8647653  53.9166932  43.5550136
  43.4100012  53.7474997  53.3559988  43.4170012  53.6114997  52.4089988
  42.4940012  53.6294997  53.6079988  43.2871714  53.7129430  53.2604666
  54.8480012  38.7894997  39.8579988  53.9480012  38.9284997  40.1529988
  55.1000012  39.6204997  39.4559988  54.7588702  38.9209074  39.8440205
  42.9140012  47.5774997  41.8319988  42.6220012  48.3454997  41.3409988
  42.2400012  46.9174997  41.6689988  42.7829081  47.5934406  41.7427340
  56.0370012  53.1554997  38.2339988  56.1110012  54.0944997  38.4049988
  56.9430012  52.8504997  38.1779988  56.1695100  53.2426722  38.2498119
  39.0070012  49.9404997  50.6469988  38.5060012  49.9124997  49.8319988
  39.0120012  49.0344997  50.9559988  38.9391526  49.8142278  50.5772872
  38.7570012  52.7204997  47.5309988  39.7030012  52.5764997  47.5119988
  38.6450012  53.5044997  48.0679988  38.8712727  52.8068046  47.6010072
  56.9550012  53.3864997  53.2129988  56.9060012  52.4314997  53.1759988
  56.1280012  53.6544997  53.6139988  56.8364940  53.2918998  53.2621375
  47.9340012  52.9604997  52.0889988  48.0210012  53.7864997  52.5639988
  47.0700012  52.6304997  52.3379988  47.8291964  53.0289878  52.1876549
  48.3480012  56.7324997  41.8949988  48.2730012  56.6114997  40.9489988
  48.3810012  57.6824997  42.0139988  48.3421848  56.8442500  41.7814834
  42.0010012  55.5214997  43.6759988  42.1540012  55.1734997  44.5549988
  41.1510012  55.1654997  43.4209988  41.9068962  55.4256650  43.7618340
  51.4500012  55.8864997  38.8969988  51.8250012  55.1424997  38.4269988
  51.4540012  55.6164997  39.8159988  51.5018915  55.7481486  38.9567824
  51.1190012  55.8124997  41.6469988  50.1830012  55.9124997  41.8249988
  51.3990012  55.1034997  42.2249988  51.0288255  55.7302711  41.7495391
  54.1070012  44.8794997  53.6929988  53.7000012  45.3604997  52.9719988
  54.1480012  43.9744997  53.3849988  54.0568437  44.8229374  53.5526683
  41.2560012  51.2634997  51.6899988  41.4720012  50.9024997  52.5489988
  40.4010012  50.8894997  51.4799988  41.1699292  51.1634111  51.7793386
  43.8750012  39.7334997  47.6849988  43.0130012  39.6464997  47.2779988
  43.8520012  40.5894997  48.1129988  43.7540330  39.8372765  47.6871863
  48.5380012  39.4554997  51.0599988  48.9580012  39.0404997  51.8129988
  47.6050012  39.2774997  51.1769988  48.4693644  39.3745900  51.1789539
  51.8640012  43.2114997  51.9129988  51.3500012  43.0854997  52.7109988
  51.7090012  44.1234997  51.6689988  51.7726852  43.3176132  51.9892158
  52.6270012  48.0724997  37.6749988  52.6690012  47.8494997  36.7449988
  53.4760012  48.4714997  37.8649988  52.7475396  48.0959155  37.5733627
  48.1990012  41.9484997  38.3449988  47.9460012  41.9674997  39.2679988
  47.9430012  41.0764997  38.0439988  48.1297790  41.8332437  38.4306263
  43.9660012  44.6994997  48.7799988  43.3240012  44.6584997  49.4889988
  44.0030012  45.6254997  48.5429988  43.8831324  44.8191559  48.8449824
  43.9630012  44.9204997  43.6919988  43.0700012  44.5794997  43.6339988
  44.4130012  44.5434997  42.9369988  43.9017305  44.8228484  43.5819177
  49.4980012  45.3364997  42.5089988  49.0890012  46.1514997  42.2179988
  50.2190012  45.1964997  41.8949988  49.5394537  45.4292018  42.3861342
  48.6000012  45.5114997  53.9969988  48.0380012  44.8074997  54.3179988
  49.4270012  45.3914997  54.4649988  48.6347095  45.3987883  54.1042330
  50.5030012  44.7824997  45.3229988  50.3080012  45.3874997  44.6079988
  50.6840012  43.9484997  44.8889988  50.5007614  44.7526300  45.1664405
  41.7160012  45.0194997  50.6469988  41.6780012  45.4194997  51.5159988
  41.2250012  44.2024997  50.7379988  41.6444684  44.9638069  50.7781059
  45.0820012  42.3934997  37.4459988  44.6510012  41.9484997  38.1759988
  44.3640012  42.7654997  36.9339988  44.9259438  42.3828940  37.4766799
  38.3240012  42.1354997  44.4979988  38.9550012  42.1064997  45.2169988
  38.7730012  41.7104997  43.7679988  38.4710774  42.0740492  44.4976553
  39.5980012  42.8814997  39.9219988  40.0720012  43.4724997  39.3369988
  38.8810012  43.4124997  40.2689988  39.5659341  43.0340867  39.8888836
  49.7670012  46.4204997  49.9949988  50.0900012  45.7894997  49.3519988
  49.3270012  45.8854997  50.6549988  49.7516895  46.2618441  49.9962850
  46.5440012  42.3474997  44.7789988  45.6330012  42.4044997  45.0669988
  47.0500012  42.2874997  45.5889988  46.4875413  42.3471985  44.9280622
  41.3730012  43.9764997  43.6049988  40.4830012  44.0764997  43.2649988
  41.6690012  43.1344997  43.2589988  41.2912823  43.8763545  43.5117213
  45.0260012  43.9764997  41.2619988  45.9570012  44.1054997  41.4399988
  44.8110012  44.6464997  40.6119988  45.1244247  44.0846565  41.1985747
  50.9490012  41.5824997  48.0429988  50.2730012  41.7134997  48.7069988
  50.4640012  41.4274997  47.2329988  50.7907145  41.5794905  48.0244517
  43.7000012  45.1714997  38.8289988  43.1570012  44.7914997  38.1369988
  44.5330012  45.3654997  38.3999988  43.7384399  45.1458124  38.6764526
  54.2370012  57.2544997  54.3199988  54.4370012  57.6784997  53.4849988
  54.8920012  57.5974997  54.9269988  54.3530051  57.3589648  54.2877836
  41.8350012  49.7284997  53.9279988  42.5670012  49.9824997  54.4889988
  41.0550012  49.9324997  54.4429988  41.8298232  49.7909177  54.0745760
  47.8640012  45.1354997  46.6659988  48.4290012  44.5884997  46.1189988
  47.7170012  44.6134997  47.4539988  47.9212918  44.9902024  46.6978454
  42.8660012  41.2714997  43.0839988  42.5490012  40.3694997  43.0489988
  43.6480012  41.2734997  42.5309988  42.9282284  41.1481628  43.0044783
  46.4910012  43.5234997  49.0799988  45.6550012  43.9774997  49.1899988
  47.0150012  43.7994997  49.8319988  46.4474414  43.6229376  49.1967136
  47.0350012  49.7364997  40.7639988  46.2900012  49.2294997  40.4419988
  46.9010012  49.7854997  41.7109988  46.9148776  49.6736940  40.8478647
  54.1850012  48.8694997  49.5509988  54.8270012  49.3264997  49.0069988
  53.3550012  48.9824997  49.0879988  54.1605963  48.9472704  49.4140177
  50.9330012  42.5504997  38.9639988  49.9940012  42.6624997  38.8119988
  51.2300012  43.4074997  39.2699988  50.8447666  42.6816443  38.9845768
  48.5540012  49.9204997  52.0009988  48.2090012  49.5394997  52.8079988
  48.3540012  50.8544997  52.0729988  48.4798061  49.9945228  52.1210961
  51.6510012  44.4174997  40.6239988  52.5430012  44.2804997  40.9429988
  51.7080012  45.2084997  40.0879988  51.7806285  44.5056660  40.5951691
  42.1600012  49.0314997  46.5339988  42.9050012  49.0294997  45.9329988
  42.2380012  48.2084997  47.0159988  42.2725518  48.9199315  46.5168929
  49.1610012  51.1954997  39.7899988  48.8650012  52.0214997  40.1709988
  48.4580012  50.5754997  39.9859988  49.0254914  51.2248199  39.8686443
  39.1680012  47.4924997  51.8489988  39.3910012  47.0744997  52.6809988
  38.5660012  46.8794997  51.4259988  39.1171759  47.3524668  51.9057022
  46.1840012  47.0094997  54.0619988  45.8880012  46.8434997  53.1669988
  47.1160012  46.7894997  54.0509988  46.2694166  46.9570640  53.9380536
  50.8050012  52.3824997  51.9519988  49.9040012  52.5654997  51.6839988
  50.8390012  52.6414997  52.8729988  50.6863041  52.4425512  52.0398197
  56.5360012  44.6274997  40.3189988  55.9820012  44.2314997  39.6469988
  56.6360012  45.5374997  40.0409988  56.4737059  44.6963586  40.1894401
  56.4990012  50.4274997  53.1559988  55.6480012  50.6654997  52.7889988
  57.0900012  50.4104997  52.4029988  56.4622487  50.4578258  53.0038893
  54.8310012  53.4134997  40.7839988  54.4580012  52.5874997  41.0929988
  55.1090012  53.2304997  39.8869988  54.8175630  53.2757303  40.7049626
  51.9920012  48.2214997  47.8049988  51.0630012  47.9894997  47.7779988
  52.4430012  47.4444997  47.4749988  51.9259216  48.0847238  47.7566917
  44.5350012  52.5494997  43.9379988  45.0620012  53.3224997  43.7379988
  43.6550012  52.7744997  43.6369988  44.4881773  52.6858005  43.8699010
  40.2900012  47.4114997  38.5249988  40.9060012  48.0384997  38.9049988
  39.4280012  47.7274997  38.7969988  40.2577698  47.5399430  38.6137183
  45.9620012  50.2124997  43.5149988  45.7210012  51.1374997  43.5559988
  45.2210012  49.7534997  43.9109988  45.8288409  50.2771421  43.5741377
  46.4770012  54.3614997  49.8299988  46.8390012  55.2164997  49.5959988
  47.0080012  54.0694997  50.5699988  46.5984473  54.4391060  49.8980855
  44.6450012  55.2344997  43.0599988  43.6950012  55.3394997  43.1109988
  44.9970012  56.0544997  43.4049988  44.5624203  55.3598314  43.1136650
  50.0210012  50.4604997  49.5299988  49.5950012  50.2334997  50.3569988
  50.6010012  49.7224997  49.3479988  50.0411868  50.3295299  49.6185830
  52.2240012  51.3894997  38.6039988  52.5770012  51.0094997  39.4089988
  51.2750012  51.2964997  38.6909988  52.1440441  51.3249596  38.7258559
  52.6790012  55.0124997  51.9999988  52.0780012  54.4574997  51.5039988
  52.9610012  55.6794997  51.3739988  52.6348519  55.0266841  51.8474952
  56.7270012  55.8694997  38.8049988  57.4710012  56.4554997  38.6649988
  56.0330012  56.4374997  39.1389988  56.7350292  56.0265582  38.8309961
  40.8020012  42.2454997  51.4069988  39.9090012  42.5844997  51.3389988
  40.7030012  41.3904997  51.8249988  40.6664164  42.1762588  51.4542235
  53.0900012  50.0624997  40.8309988  52.8120012  49.3344997  41.3869988
  54.0170012  50.1814997  41.0359988  53.1773124  49.9788802  40.9348845
  40.4530012  54.0504997  49.8419988  40.6700012  53.1184997  49.8109988
  40.6990012  54.3244997  50.7249988  40.5159549  53.9600636  49.9571763
  46.3150012  52.5014997  37.0509988  46.5540012  51.7534997  36.5039988
  46.0460012  52.1134997  37.8839988  46.3113675  52.3466638  37.0886865
  45.2520012  52.0714997  39.5079988  45.3980012  51.5514997  40.2979988
  45.2490012  52.9784997  39.8139988  45.2715989  52.1228853  39.6576088
  41.7050012  49.3244997  40.0179988  41.0190012  49.6764997  40.5849988
  42.2270012  50.0874997  39.7709988  41.6816852  49.4758578  40.0622118
  49.5360012  41.9864997  50.2969988  50.2350012  42.0604997  50.9469988
  49.1550012  41.1224997  50.4509988  49.5801767  41.8797624  50.4068322
  50.3210012  41.6384997  41.3939988  50.5410012  42.1104997  40.5909988
  50.8790012  42.0334997  42.0639988  50.4264968  41.7564285  41.3747331
  47.9890012  53.7694997  40.2569988  47.1730012  54.2664997  40.3089988
  48.5190012  54.2444997  39.6169988  47.9489161  53.9017722  40.1775956
  47.5210012  43.3664997  42.2289988  48.3330012  43.8714997  42.2749988
  47.2760012  43.2214997  43.1429988  47.5990520  43.4160375  42.3588517
  48.0560012  44.3524997  51.4139988  48.1750012  44.9264997  52.1709988
  48.7120012  43.6644997  51.5279988  48.1609757  44.3381079  51.5330825
  48.4040012  40.4474997  43.1669988  48.0580012  41.0654997  43.8119988
  49.0630012  40.9484997  42.6859988  48.4457826  40.5995802  43.1900971
  45.3280012  54.8134997  40.2389988  45.4880012  55.6124997  39.7379988
  45.1300012  55.1194997  41.1239988  45.3231649  54.9644469  40.2899815
  44.0620012  41.5104997  39.8539988  43.9790012  42.3994997  40.2009988
  44.9520012  41.2454997  40.0859988  44.1709469  41.5961430  39.9327626
  54.2610012  42.2594997  52.2489988  53.3440012  42.5224997  52.1609988
  54.5960012  42.2564997  51.3519988  54.1809900  42.2950224  52.1157919
  52.8630012  46.0104997  46.3439988  52.0650012  45.5954997  46.0159988
  53.3080012  45.3194997  46.8349988  52.8139885  45.8603543  46.3654889
  42.3210012  51.9384997  38.9149988  42.9130012  52.6374997  39.1909988
  42.7800012  51.5054997  38.1949988  42.4641142  51.9757049  38.8554830
  40.6370012  44.6024997  38.0309988  40.5920012  45.5414997  38.2089988
  39.7490012  44.3664997  37.7609988  40.5108574  44.6991892  38.0188912
  53.9490012  55.2664997  47.9669988  53.7940012  55.9444997  47.3099988
  54.8820012  55.3384997  48.1699988  54.0538500  55.3690170  47.9045119
  41.4450012  39.3844997  46.7039988  41.2160012  39.4434997  45.7759988
  41.0020012  38.5924997  47.0099988  41.3538530  39.2855753  46.6184786
  40.3750012  53.3244997  42.8639988  39.5430012  53.7974997  42.8919988
  40.9210012  53.8344997  42.2659988  40.3349739  53.4581871  42.7869716
  39.6630012  55.9374997  54.1939988  40.2040012  55.7204997  54.9539988
  39.1820012  55.1314997  54.0049988  39.6719345  55.7989514  54.2723076
  44.2610012  54.8564997  55.8149988  45.0280012  54.3974997  56.1559988
  44.2390012  54.6304997  54.8849988  44.3631434  54.7630409  55.7360043
  48.3530012  54.3644997  37.1899988  47.7090012  53.7334997  37.5109988
  49.1150012  53.8334997  36.9579988  48.3678077  54.2062920  37.2026011
  50.8380012  53.2364997  54.5439988  50.4870012  52.3804997  54.7869988
  51.5640012  53.3794997  55.1509988  50.8880769  53.1385636  54.6593619
  52.9570012  54.1814997  37.4239988  53.2400012  53.3874997  37.8759988
  53.6970012  54.4144997  36.8629988  53.0957486  54.1042803  37.4100698
  39.5700012  49.7474997  55.1489988  39.7140012  48.8454997  54.8619988
  38.7980012  50.0334997  54.6609988  39.4853322  49.6628261  55.0437881
  43.9120012  50.0914997  37.2809988  43.9760012  49.2974997  37.8119988
  44.5650012  49.9724997  36.5909988  44.0090241  49.9667148  37.2604317
  46.2260012  49.7174997  54.5809988  45.8970012  49.9884997  53.7239988
  46.3780012  48.7764997  54.4939988  46.2014809  49.6273862  54.4518244
  49.2640012  51.1384997  37.0169988  48.9950012  51.3184997  37.9179988
  49.0580012  50.2124997  36.8859988  49.1993825  51.0380152  37.1225214
  51.9600012  49.6334997  51.9649988  52.7060012  50.2214997  51.8449988
  51.2030012  50.2154997  52.0279988  51.9597554  49.7927011  51.9570907
  40.4030012  46.9474997  54.5689988  40.8110012  46.0904997  54.4479988
  40.1430012  46.9624997  55.4899988  40.4237568  46.8320807  54.6769588
  45.0610012  48.0634997  39.5869988  44.6010012  47.5794997  40.2729988
  45.3160012  47.3954997  38.9509988  45.0324902  47.9068731  39.5949334
  44.3500012  45.9564997  51.9429988  43.7320012  46.6314997  52.2229988
  44.6940012  46.2774997  51.1099988  44.3119615  46.0922721  51.8686581
  46.1320012  46.3064997  37.8489988  45.9520012  46.1524997  36.9219988
  47.0820012  46.4144997  37.8939988  46.2357776  46.3000175  37.7281843
  49.3700012  48.4284997  55.2199988  50.3230012  48.5114997  55.1929988
  49.2090012  47.7164997  55.8399988  49.4786426  48.3436746  55.3000579
  55.5220012  48.6614997  37.2949988  55.2480012  48.2364997  36.4819988
  55.5610012  49.5924997  37.0779988  55.4897699  48.7292484  37.1543610
  44.6890012  43.3114997  53.0249988  44.8390012  42.5824997  52.4229988
  44.6920012  44.0884997  52.4659988  44.7099302  43.3167851  52.8670692
  45.1020012  41.6814997  50.5179988  45.6380012  42.1324997  49.8659988
  44.2500012  41.5734997  50.0949988  45.0602178  41.7286390  50.3715756
  46.6840012  47.1204997  50.7569988  47.4340012  46.9644997  50.1839988
  46.3450012  47.9724997  50.4819988  46.7408921  47.2142968  50.6413561
  51.0990012  44.9354997  55.7859988  51.2920012  44.0044997  55.6739988
  51.9570012  45.3604997  55.7759988  51.2413020  44.8656389  55.7693361
  52.4160012  47.7244997  53.8629988  52.1350012  48.4334997  53.2859988
  53.3590012  47.6514997  53.7119988  52.5049027  47.8117646  53.7635551
  43.1680012  44.5094997  54.9369988  42.4010012  43.9774997  54.7269988
  43.8470012  44.1994997  54.3369988  43.1547022  44.3947506  54.8271648
  45.9080012  39.1374997  50.9489988  45.8090012  40.0844997  50.8439988
  45.1650012  38.7654997  50.4739988  45.7940564  39.2165902  50.8704560
  47.1720012  43.4594997  54.5129988  46.9360012  43.2394997  55.4149988
  46.3880012  43.2524997  54.0029988  47.0338628  43.4014760  54.5673932
  49.8870012  42.5864997  53.5889988  48.9400012  42.6184997  53.7209988
  50.2000012  41.9614997  54.2419988  49.7995475  42.5063207  53.6954455
  51.5210012  41.2204997  55.5939988  51.4250012  40.2684997  55.5879988
  51.2000012  41.4894997  56.4539988  51.4644070  41.1264035  55.7095441
  41.3480012  42.4304997  54.6409988  41.5600012  41.7234997  54.0309988
  41.2370012  41.9924997  55.4849988  41.3619721  42.2747084  54.6716843
  46.1290012  38.4314997  53.6209988  46.8410012  37.7914997  53.6069988
  46.0280012  38.6984997  52.7069988  46.2127939  38.3799938  53.4955650
  46.4830012  40.1144997  55.6739988  46.3510012  39.6384997  54.8539988
  45.8840012  40.8584997  55.6189988  46.3839071  40.1499618  55.5542886
  46.0290012  56.9974997  38.8509988  46.9620012  57.1554997  38.9939988
  45.7650012  57.6724997  38.2259988  46.1209510  57.1103611  38.7860741
  39.5980012  51.6334997  38.3329988  40.5120012  51.7124997  38.6069988
  39.6050012  50.9464997  37.6669988  39.7241131  51.5513961  38.2804393
  38.2470012  57.0264997  43.4109988  37.6000012  56.5644997  42.8779988
  38.6010012  56.3544997  43.9929988  38.2063849  56.8724723  43.4167959
  39.1170012  55.1074997  45.2149988  38.7820012  54.2274997  45.3869988
  39.3390012  55.4524997  46.0799988  39.1011783  55.0337500  45.3554208
  56.6650012  55.9164997  48.1959988  56.6440012  56.1014997  49.1349988
  57.3560012  56.4854997  47.8549988  56.7554618  56.0186606  48.2783864
  56.2290012  55.4844997  51.1179988  55.7410012  54.7484997  50.7469988
  56.7780012  55.0904997  51.7959988  56.2364872  55.3306249  51.1589160
  54.6790012  51.2734997  55.7559988  53.8130012  51.1684997  56.1499988
  55.0560012  52.0324997  56.2019988  54.6113308  51.3616900  55.8702393
  55.9800012  49.5304997  41.2699988  56.8300012  49.9514997  41.3969988
  55.9860012  48.7904997  41.8769988  56.0971372  49.4880803  41.3694344
  56.3750012  47.5834997  43.0939988  55.6480012  47.1044997  43.4909988
  56.9560012  47.7894997  43.8259988  56.3539375  47.5457090  43.2474129
  56.1340012  50.3684997  48.0409988  56.9670012  49.9904997  47.7609988
  56.2460012  51.3114997  47.9219988  56.2632647  50.4442218  47.9865487
  54.6200012  53.2464997  50.3479988  53.9730012  53.5714997  50.9739988
  54.1030012  52.8064997  49.6739988  54.4614029  53.2315004  50.3425827
  56.6430012  47.4844997  39.4849988  56.1210012  47.8414997  38.7659988
  56.6100012  48.1594997  40.1629988  56.5671634  47.6245413  39.4783145
  54.9920012  44.7244997  38.0359988  55.0880012  45.3914997  37.3549988
  54.8520012  43.9084997  37.5539988  54.9862135  44.7054500  37.8778491
  54.1610012  46.1044997  43.6569988  54.0110012  45.1594997  43.6359988
  53.8080012  46.3854997  44.4999988  54.0926625  46.0130441  43.7682346
  39.1970012  48.1824997  47.6669988  39.3810012  48.1004997  46.7309988
  40.0460012  48.0584997  48.0909988  39.3370139  48.1545003  47.5961455
  55.0180012  48.0744997  53.2949988  55.6010012  47.3404997  53.4869988
  55.5820012  48.8464997  53.3419988  55.1739769  48.0784227  53.3276159
  56.5140012  45.9774997  53.9799988  55.6510012  45.5984997  53.8139988
  57.1190012  45.2384997  53.9059988  56.4775979  45.8258023  53.9472817
  54.2390012  42.1324997  37.1529988  54.8500012  41.7614997  37.7899988
  53.4030012  41.7114997  37.3489988  54.2095032  42.0247554  37.2667035
  53.8720012  43.6874997  42.1189988  54.1520012  42.7804997  42.2429988
  54.6310012  44.1214997  41.7299988  54.0129277  43.6220942  42.0833682
  54.4840012  44.2684997  47.5549988  55.4170012  44.4804997  47.5209988
  54.2490012  44.3704997  48.4769988  54.5798036  44.3112769  47.6749976
  54.5130012  45.0054997  50.3309988  53.6700012  45.2734997  50.6969988
  54.9550012  45.8274997  50.1199988  54.4574158  45.1533291  50.3525491
  38.7940012  43.4534997  53.8079988  39.7140012  43.3314997  54.0439988
  38.3450012  42.7034997  54.1969988  38.8591580  43.3353727  53.8929006
  56.7960012  38.9854997  55.6839988  57.1460012  38.3314997  55.0789988
  56.9430012  39.8224997  55.2449988  56.8638419  39.0091591  55.5417118
  54.4850012  40.9504997  42.1669988  54.6680012  40.5014997  42.9929988
  53.8860012  40.3654997  41.7039988  54.4290202  40.8099975  42.2173275
  40.0150012  41.7654997  46.6989988  40.4610012  40.9734997  47.0009988
  40.4820012  42.4814997  47.1299988  40.1390172  41.7540624  46.7984820
  38.3190012  44.7644997  47.7679988  38.8110012  44.5434997  46.9769988
  38.6820012  45.6054997  48.0489988  38.4353126  44.8478357  47.6977531
  56.3160012  41.0944997  54.0339988  55.3980012  41.3654997  53.9979988
  56.4390012  40.5594997  53.2489988  56.2071066  41.0592892  53.9230487
  56.3520012  41.0174997  38.6949988  56.7640012  40.2964997  38.2199988
  57.0340012  41.6874997  38.7539988  56.5005885  41.0092368  38.6378915
  38.6330012  41.0224997  41.8219988  37.7080012  41.2314997  41.6929988
  39.0870012  41.5064997  41.1329988  38.5677368  41.1165993  41.7111226
  53.4040012  56.0064997  43.7679988  54.0560012  55.6594997  43.1599988
  53.9140012  56.4954997  44.4139988  53.5622637  56.0250597  43.7720236
  38.5970012  39.7604997  50.1669988  37.9320012  39.5144997  50.8099988
  38.1540012  40.3824997  49.5889988  38.4460956  39.8108632  50.1769352
  40.7890012  52.9354997  54.3109988  39.9680012  53.1104997  53.8509988
  40.5360012  52.8624997  55.2319988  40.6426164  52.9495622  54.3724923
  43.7430012  53.9104997  50.5699988  43.3180012  54.7194997  50.2869988
  44.6470012  53.9954997  50.2679988  43.8070271  54.0328469  50.4903776
  48.0540012  55.3094997  53.5289988  48.2390012  54.9754997  54.4069988
  48.9000012  55.6184997  53.2069988  48.1937539  55.3056047  53.6055605
  50.3990012  56.5954997  52.7729988  51.0760012  55.9624997  52.5329988
  50.7210012  56.9964997  53.5799988  50.5351637  56.5631154  52.8492793
  55.3160012  39.1844997  51.8529988  54.5040012  39.5094997  51.4649988
  55.5490012  38.4244997  51.3199988  55.2363423  39.1262436  51.7278253
  41.1450012  57.1664997  50.6169988  40.4240012  57.6064997  50.1659988
  40.7790012  56.9154997  51.4659988  40.9969804  57.1927698  50.6699840
  43.6120012  56.7664997  49.6469988  42.7470012  56.8384997  50.0509988
  43.5570012  57.3134997  48.8629988  43.4862085  56.8502685  49.5963362
  48.3220012  56.6544997  48.8219988  47.8660012  57.1834997  48.1679988
  48.4850012  57.2574997  49.5479988  48.2815585  56.8084468  48.8305062
  50.6500012  55.5324997  49.7669988  49.7450012  55.6974997  49.5019988
  51.0790012  56.3854997  49.7019988  50.5840799  55.6704483  49.7219182
  53.2540012  57.1024997  50.0619988  53.0720012  58.0184997  49.8519988
  53.4310012  56.6924997  49.2159988  53.2530210  57.1724822  49.9187885
  40.5590012  55.7894997  47.5269988  40.5410012  55.3644997  48.3849988
  41.3640012  55.4714997  47.1189988  40.6653875  55.6883812  47.5891655
  42.7010012  54.4994997  46.1819988  42.4820012  53.5834997  46.3519988
  43.5250012  54.6394997  46.6479988  42.7824420  54.3930520  46.2682774
  45.2380012  54.9694997  47.0309988  45.4510012  54.0814997  46.7439988
  45.3020012  54.9354997  47.9849988  45.2758232  54.8433102  47.1207397
  48.7460012  40.6334997  46.1749988  48.0720012  40.0044997  46.4309988
  49.3100012  40.1494997  45.5719988  48.7299230  40.4818744  46.1285340
  53.8890012  38.7414997  46.2879988  54.4930012  39.2884997  45.7859988
  53.0190012  39.0604997  46.0479988  53.8541241  38.8595806  46.1867654
  55.6160012  39.8794997  44.6209988  56.2280012  39.3654997  44.0949988
  55.9980012  40.7574997  44.6449988  55.7514540  39.9277140  44.5521830
  41.0730012  39.2674997  43.9969988  40.2960012  39.0334997  43.4899988
  41.6030012  38.4704997  44.0059988  41.0382330  39.1276988  43.9287742
  39.9090012  39.0654997  39.8009988  40.3480012  39.6764997  39.2089988
  39.2760012  39.6034997  40.2749988  39.8834514  39.2219257  39.7840930
  45.6520012  39.1944997  43.8109988  46.5270012  39.5824997  43.7809988
  45.5160012  38.9794997  44.7329988  45.7533695  39.2185184  43.9316440
  51.2090012  39.2244997  45.4599988  51.2850012  39.3194997  44.5099988
  50.9340012  38.3164997  45.5889988  51.1822321  39.1147867  45.3475079
  52.5620012  39.2504997  41.1519988  51.8600012  39.8654997  40.9429988
  52.1180012  38.4124997  41.2829988  52.4056330  39.2215783  41.1410328
  39.8100012  55.0134997  40.6989988  39.1250012  54.9754997  40.0309988
  39.8140012  55.9264997  40.9869988  39.7168193  55.1317016  40.6465284
  41.7700012  40.9814997  38.2429988  42.2620012  40.3514997  37.7159988
  42.3940012  41.2774997  38.9069988  41.9215446  40.9353199  38.2605980
  46.7960012  41.2744997  40.6999988  46.9740012  40.6284997  41.3829988
  46.7430012  42.1084997  41.1679988  46.8131829  41.2987985  40.8565940
  48.6750012  56.2234997  39.0959988  49.5410012  56.5894997  38.9179988
  48.4280012  55.7834997  38.2819988  48.7602392  56.2141756  38.9616289
  55.3840012  55.7864997  41.7749988  55.1890012  55.0384997  41.2099988
  55.3450012  56.5444997  41.1919988  55.3520380  55.7866099  41.6188384
  41.0310012  39.7814997  53.5149988  40.6650012  39.0164997  53.9579988
  41.9440012  39.8104997  53.8019988  41.1042790  39.6807224  53.6144070
  43.0040012  39.1324997  55.0509988  43.9020012  38.8584997  54.8659988
  42.6170012  38.3894997  55.5149988  43.0746612  38.9945914  55.0883643
  41.6280012  55.9334997  37.7239988  41.3610012  56.2204997  38.5969988
  42.4000012  55.3874997  37.8759988  41.6957488  55.8990294  37.8641050
  51.4250012  38.4644997  55.2329988  51.5020012  38.0384997  56.0869988
  52.3190012  38.4784997  54.8899988  51.5563428  38.4080879  55.3035310
  54.6010012  54.5374997  53.9249988  53.8190012  54.3514997  53.4059988
  54.5290012  55.4664997  54.1429988  54.4841777  54.6376492  53.8834048
  69.0070012  48.4234997  43.9559988  69.0960012  49.3674997  43.8239988
  68.3690012  48.1484997  43.2979988  68.9329081  48.5154830  43.8489614
  67.9400012  47.6784997  47.3749988  67.9020012  47.0324997  48.0799988
  67.6180012  47.2124997  46.6039988  67.8912333  47.5269408  47.3672978
  60.3090012  47.2934997  48.9679988  60.3500012  46.6674997  49.6909988
  61.0120012  47.9174997  49.1499988  60.4096363  47.2921196  49.0916044
  71.6460012  50.6174997  45.6759988  71.2060012  49.8974997  46.1269988
  71.6330012  51.3384997  46.3059988  71.5840226  50.6163731  45.8228494
  61.2320012  51.7434997  47.5029988  60.8630012  50.9414997  47.1329988
  62.1730012  51.5744997  47.5489988  61.3087289  51.6110153  47.4586316
  57.8420012  45.4034997  42.8959988  57.3950012  46.2494997  42.8769988
  57.2810012  44.8234997  42.3799988  57.7049900  45.4409916  42.8236801
  58.5530012  47.5654997  45.0219988  58.7660012  46.7954997  45.5489988
  59.2910012  47.6544997  44.4179988  58.6818496  47.4721394  45.0125300
  66.3300012  50.1114997  47.7809988  66.6340012  49.4254997  47.1859988
  67.0510012  50.2294997  48.3989988  66.4690671  50.0336305  47.7831816
  74.9930012  41.7124997  48.6419988  75.0420012  42.3224997  49.3779988
  75.4180012  42.1734997  47.9189988  75.0571824  41.8583741  48.6450205
  69.4710012  44.5054997  48.1089988  69.6130012  43.5594997  48.1289988
  69.3640012  44.7124997  47.1799988  69.4759864  44.4039534  47.9862339
  62.6250012  42.6064997  45.3809988  62.6690012  43.4664997  44.9629988
  62.1680012  42.0544997  44.7469988  62.5692185  42.6495799  45.2380299
  70.3480012  42.7374997  43.7819988  70.9940012  42.4084997  44.4069988
  70.8580012  43.2554997  43.1589988  70.5054264  42.7624611  43.7833862
  59.2460012  45.0034997  46.1429988  59.8990012  44.4534997  46.5749988
  59.2700012  44.7294997  45.2259988  59.3386683  44.8911466  46.0782123
  64.4020012  46.5534997  45.3579988  65.0180012  46.0274997  45.8679988
  63.8160012  45.9134997  44.9549988  64.4070810  46.3949208  45.3733173
  75.3840012  43.1904997  50.8779988  74.6960012  43.8484997  50.7819988
  75.4000012  42.9934997  51.8139988  75.2918525  43.2540462  50.9914808
  61.4360012  41.5244997  49.4549988  61.2170012  42.0544997  48.6889988
  60.7680012  41.7514997  50.1019988  61.3157600  41.6276906  49.4376379
  68.8050012  51.0244997  42.9989988  68.5090012  50.7024997  42.1479988
  68.4800012  51.9244997  43.0399988  68.7206371  51.1020215  42.8881801
  64.0050012  49.2004997  49.7419988  63.2650012  49.7984997  49.8459988
  64.7190012  49.7544997  49.4269988  64.0002237  49.3572831  49.7136465
  72.1120012  42.0284997  45.7619988  71.8960012  41.2624997  46.2949988
  72.7670012  42.5004997  46.2749988  72.1710632  41.9875889  45.9042861
  61.0290012  43.4164997  47.4069988  61.6430012  44.0494997  47.7809988
  61.5410012  42.9444997  46.7509988  61.1822296  43.4392370  47.3694252
  62.4120012  51.1644997  50.5299988  62.4070012  52.0444997  50.1519988
  61.5590012  51.0814997  50.9549988  62.2959464  51.2736117  50.5357907
  58.5330012  50.8354997  41.3119988  58.2610012  51.0644997  40.4229988
  58.5790012  51.6734997  41.7719988  58.5020094  50.9801213  41.2525697
  72.1580012  52.4574997  48.0239988  71.2170012  52.5154997  48.1859988
  72.4350012  53.3634997  47.8869988  72.0664679  52.5879443  48.0276815
  72.4590012  40.7434997  49.4419988  71.7230012  41.3544997  49.4039988
  73.1420012  41.1584997  48.9149988  72.4506541  40.8831374  49.3655832
  65.4620012  38.8304997  46.9079988  65.3450012  37.8814997  46.8529988
  64.6070012  39.1624997  47.1809988  65.3303733  38.7455409  46.9373897
  71.5700012  52.1394997  43.1579988  71.3120012  51.4494997  42.5469988
  71.6410012  51.6964997  44.0039988  71.5442856  51.9852124  43.1886885
  73.2560012  50.7054997  51.6359988  73.3960012  50.1144997  50.8959988
  73.4230012  51.5784997  51.2789988  73.2976778  50.7426426  51.4866965
  75.0980012  47.0454997  49.7019988  74.4450012  47.7404997  49.7909988
  75.5630012  47.2554997  48.8919988  75.0715390  47.1689425  49.6046883
  71.1340012  47.8774997  42.3599988  70.4020012  48.1054997  42.9329988
  71.5820012  47.1634997  42.8149988  71.0943095  47.8122571  42.4999119
  71.0320012  46.0514997  51.4269988  71.1120012  46.8144997  51.9989988
  70.4300012  46.3304997  50.7369988  70.9615756  46.1937134  51.4120589
  64.1460012  51.9354997  46.9239988  64.0520012  51.3574997  46.1669988
  64.8760012  51.5644997  47.4199988  64.2317981  51.8062390  46.8874165
  63.1460012  47.2764997  47.8759988  63.7120012  47.3974997  47.1129988
  63.4650012  47.9134997  48.5149988  63.2665786  47.3791884  47.8580040
  69.4550012  52.7794997  48.6099988  69.2150012  53.4414997  49.2579988
  69.2570012  51.9454997  49.0349988  69.3953808  52.7573134  48.7561524
  64.0260012  51.6754997  52.5929988  63.7150012  52.4574997  53.0479988
  63.3760012  51.5224997  51.9069988  63.8955558  51.7619105  52.5625871
  60.9460012  47.8734997  51.8219988  61.0170012  48.5244997  52.5199988
  60.0560012  47.9764997  51.4869988  60.8353117  47.9765936  51.8722700
  62.2660012  53.7474997  53.3559988  62.2730012  53.6114997  52.4089988
  61.3500012  53.6294997  53.6079988  62.1431714  53.7129430  53.2604666
  73.7040012  38.7894997  39.8579988  72.8040012  38.9284997  40.1529988
  73.9560012  39.6204997  39.4559988  73.6148702  38.9209074  39.8440205
  61.7700012  47.5774997  41.8319988  61.4780012  48.3454997  41.3409988
  61.0960012  46.9174997  41.6689988  61.6389081  47.5934406  41.7427340
  57.8630012  49.9404997  50.6469988  57.3620012  49.9124997  49.8319988
  57.8680012  49.0344997  50.9559988  57.7951526  49.8142278  50.5772872
  57.6130012  52.7204997  47.5309988  58.5590012  52.5764997  47.5119988
  57.5010012  53.5044997  48.0679988  57.7272727  52.8068046  47.6010072
  75.8110012  53.3864997  53.2129988  75.7620012  52.4314997  53.1759988
  74.9840012  53.6544997  53.6139988  75.6924940  53.2918998  53.2621375
  66.7900012  52.9604997  52.0889988  66.8770012  53.7864997  52.5639988
  65.9260012  52.6304997  52.3379988  66.6851964  53.0289878  52.1876549
  60.8570012  55.5214997  43.6759988  61.0100012  55.1734997  44.5549988
  60.0070012  55.1654997  43.4209988  60.7628962  55.4256650  43.7618340
  72.9630012  44.8794997  53.6929988  72.5560012  45.3604997  52.9719988
  73.0040012  43.9744997  53.3849988  72.9128437  44.8229374  53.5526683
  60.1120012  51.2634997  51.6899988  60.3280012  50.9024997  52.5489988
  59.2570012  50.8894997  51.4799988  60.0259292  51.1634111  51.7793386
  62.7310012  39.7334997  47.6849988  61.8690012  39.6464997  47.2779988
  62.7080012  40.5894997  48.1129988  62.6100330  39.8372765  47.6871863
  67.3940012  39.4554997  51.0599988  67.8140012  39.0404997  51.8129988
  66.4610012  39.2774997  51.1769988  67.3253644  39.3745900  51.1789539
  70.7200012  43.2114997  51.9129988  70.2060012  43.0854997  52.7109988
  70.5650012  44.1234997  51.6689988  70.6286852  43.3176132  51.9892158
  67.0550012  41.9484997  38.3449988  66.8020012  41.9674997  39.2679988
  66.7990012  41.0764997  38.0439988  66.9857790  41.8332437  38.4306263
  62.8220012  44.6994997  48.7799988  62.1800012  44.6584997  49.4889988
  62.8590012  45.6254997  48.5429988  62.7391324  44.8191559  48.8449824
  62.8190012  44.9204997  43.6919988  61.9260012  44.5794997  43.6339988
  63.2690012  44.5434997  42.9369988  62.7577305  44.8228484  43.5819177
  68.3540012  45.3364997  42.5089988  67.9450012  46.1514997  42.2179988
  69.0750012  45.1964997  41.8949988  68.3954537  45.4292018  42.3861342
  67.4560012  45.5114997  53.9969988  66.8940012  44.8074997  54.3179988
  68.2830012  45.3914997  54.4649988  67.4907095  45.3987883  54.1042330
  69.3590012  44.7824997  45.3229988  69.1640012  45.3874997  44.6079988
  69.5400012  43.9484997  44.8889988  69.3567614  44.7526300  45.1664405
  60.5720012  45.0194997  50.6469988  60.5340012  45.4194997  51.5159988
  60.0810012  44.2024997  50.7379988  60.5004684  44.9638069  50.7781059
  63.9380012  42.3934997  37.4459988  63.5070012  41.9484997  38.1759988
  63.2200012  42.7654997  36.9339988  63.7819438  42.3828940  37.4766799
  57.1800012  42.1354997  44.4979988  57.8110012  42.1064997  45.2169988
  57.6290012  41.7104997  43.7679988  57.3270774  42.0740492  44.4976553
  58.4540012  42.8814997  39.9219988  58.9280012  43.4724997  39.3369988
  57.7370012  43.4124997  40.2689988  58.4219341  43.0340867  39.8888836
  68.6230012  46.4204997  49.9949988  68.9460012  45.7894997  49.3519988
  68.1830012  45.8854997  50.6549988  68.6076895  46.2618441  49.9962850
  65.4000012  42.3474997  44.7789988  64.4890012  42.4044997  45.0669988
  65.9060012  42.2874997  45.5889988  65.3435413  42.3471985  44.9280622
  60.2290012  43.9764997  43.6049988  59.3390012  44.0764997  43.2649988
  60.5250012  43.1344997  43.2589988  60.1472823  43.8763545  43.5117213
  63.8820012  43.9764997  41.2619988  64.8130012  44.1054997  41.4399988
  63.6670012  44.6464997  40.6119988  63.9804247  44.0846565  41.1985747
  69.8050012  41.5824997  48.0429988  69.1290012  41.7134997  48.7069988
  69.3200012  41.4274997  47.2329988  69.6467145  41.5794905  48.0244517
  62.5560012  45.1714997  38.8289988  62.0130012  44.7914997  38.1369988
  63.3890012  45.3654997  38.3999988  62.5944399  45.1458124  38.6764526
  73.0930012  57.2544997  54.3199988  73.2930012  57.6784997  53.4849988
  73.7480012  57.5974997  54.9269988  73.2090051  57.3589648  54.2877836
  60.6910012  49.7284997  53.9279988  61.4230012  49.9824997  54.4889988
  59.9110012  49.9324997  54.4429988  60.6858232  49.7909177  54.0745760
  66.7200012  45.1354997  46.6659988  67.2850012  44.5884997  46.1189988
  66.5730012  44.6134997  47.4539988  66.7772918  44.9902024  46.6978454
  61.7220012  41.2714997  43.0839988  61.4050012  40.3694997  43.0489988
  62.5040012  41.2734997  42.5309988  61.7842284  41.1481628  43.0044783
  65.3470012  43.5234997  49.0799988  64.5110012  43.9774997  49.1899988
  65.8710012  43.7994997  49.8319988  65.3034414  43.6229376  49.1967136
  73.0410012  48.8694997  49.5509988  73.6830012  49.3264997  49.0069988
  72.2110012  48.9824997  49.0879988  73.0165963  48.9472704  49.4140177
  69.7890012  42.5504997  38.9639988  68.8500012  42.6624997  38.8119988
  70.0860012  43.4074997  39.2699988  69.7007666  42.6816443  38.9845768
  67.4100012  49.9204997  52.0009988  67.0650012  49.5394997  52.8079988
  67.2100012  50.8544997  52.0729988  67.3358061  49.9945228  52.1210961
  70.5070012  44.4174997  40.6239988  71.3990012  44.2804997  40.9429988
  70.5640012  45.2084997  40.0879988  70.6366285  44.5056660  40.5951691
  61.0160012  49.0314997  46.5339988  61.7610012  49.0294997  45.9329988
  61.0940012  48.2084997  47.0159988  61.1285518  48.9199315  46.5168929
  58.0240012  47.4924997  51.8489988  58.2470012  47.0744997  52.6809988
  57.4220012  46.8794997  51.4259988  57.9731759  47.3524668  51.9057022
  65.0400012  47.0094997  54.0619988  64.7440012  46.8434997  53.1669988
  65.9720012  46.7894997  54.0509988  65.1254166  46.9570640  53.9380536
  69.6610012  52.3824997  51.9519988  68.7600012  52.5654997  51.6839988
  69.6950012  52.6414997  52.8729988  69.5423041  52.4425512  52.0398197
  75.3920012  44.6274997  40.3189988  74.8380012  44.2314997  39.6469988
  75.4920012  45.5374997  40.0409988  75.3297059  44.6963586  40.1894401
  75.3550012  50.4274997  53.1559988  74.5040012  50.6654997  52.7889988
  75.9460012  50.4104997  52.4029988  75.3182487  50.4578258  53.0038893
  70.8480012  48.2214997  47.8049988  69.9190012  47.9894997  47.7779988
  71.2990012  47.4444997  47.4749988  70.7819216  48.0847238  47.7566917
  59.1460012  47.4114997  38.5249988  59.7620012  48.0384997  38.9049988
  58.2840012  47.7274997  38.7969988  59.1137698  47.5399430  38.6137183
  68.8770012  50.4604997  49.5299988  68.4510012  50.2334997  50.3569988
  69.4570012  49.7224997  49.3479988  68.8971868  50.3295299  49.6185830
  71.5350012  55.0124997  51.9999988  70.9340012  54.4574997  51.5039988
  71.8170012  55.6794997  51.3739988  71.4908519  55.0266841  51.8474952
  59.6580012  42.2454997  51.4069988  58.7650012  42.5844997  51.3389988
  59.5590012  41.3904997  51.8249988  59.5224164  42.1762588  51.4542235
  71.9460012  50.0624997  40.8309988  71.6680012  49.3344997  41.3869988
  72.8730012  50.1814997  41.0359988  72.0333124  49.9788802  40.9348845
  59.3090012  54.0504997  49.8419988  59.5260012  53.1184997  49.8109988
  59.5550012  54.3244997  50.7249988  59.3719549  53.9600636  49.9571763
  60.5610012  49.3244997  40.0179988  59.8750012  49.6764997  40.5849988
  61.0830012  50.0874997  39.7709988  60.5376852  49.4758578  40.0622118
  68.3920012  41.9864997  50.2969988  69.0910012  42.0604997  50.9469988
  68.0110012  41.1224997  50.4509988  68.4361767  41.8797624  50.4068322
  69.1770012  41.6384997  41.3939988  69.3970012  42.1104997  40.5909988
  69.7350012  42.0334997  42.0639988  69.2824968  41.7564285  41.3747331
  66.3770012  43.3664997  42.2289988  67.1890012  43.8714997  42.2749988
  66.1320012  43.2214997  43.1429988  66.4550520  43.4160375  42.3588517
  66.9120012  44.3524997  51.4139988  67.0310012  44.9264997  52.1709988
  67.5680012  43.6644997  51.5279988  67.0169757  44.3381079  51.5330825
  67.2600012  40.4474997  43.1669988  66.9140012  41.0654997  43.8119988
  67.9190012  40.9484997  42.6859988  67.3017826  40.5995802  43.1900971
  62.9180012  41.5104997  39.8539988  62.8350012  42.3994997  40.2009988
  63.8080012  41.2454997  40.0859988  63.0269469  41.5961430  39.9327626
  73.1170012  42.2594997  52.2489988  72.2000012  42.5224997  52.1609988
  73.4520012  42.2564997  51.3519988  73.0369900  42.2950224  52.1157919
  71.7190012  46.0104997  46.3439988  70.9210012  45.5954997  46.0159988
  72.1640012  45.3194997  46.8349988  71.6699885  45.8603543  46.3654889
  61.1770012  51.9384997  38.9149988  61.7690012  52.6374997  39.1909988
  61.6360012  51.5054997  38.1949988  61.3201142  51.9757049  38.8554830
  59.4930012  44.6024997  38.0309988  59.4480012  45.5414997  38.2089988
  58.6050012  44.3664997  37.7609988  59.3668574  44.6991892  38.0188912
  72.8050012  55.2664997  47.9669988  72.6500012  55.9444997  47.3099988
  73.7380012  55.3384997  48.1699988  72.9098500  55.3690170  47.9045119
  60.3010012  39.3844997  46.7039988  60.0720012  39.4434997  45.7759988
  59.8580012  38.5924997  47.0099988  60.2098530  39.2855753  46.6184786
  59.2310012  53.3244997  42.8639988  58.3990012  53.7974997  42.8919988
  59.7770012  53.8344997  42.2659988  59.1909739  53.4581871  42.7869716
  58.5190012  55.9374997  54.1939988  59.0600012  55.7204997  54.9539988
  58.0380012  55.1314997  54.0049988  58.5279345  55.7989514  54.2723076
  63.1170012  54.8564997  55.8149988  63.8840012  54.3974997  56.1559988
  63.0950012  54.6304997  54.8849988  63.2191434  54.7630409  55.7360043
  69.6940012  53.2364997  54.5439988  69.3430012  52.3804997  54.7869988
  70.4200012  53.3794997  55.1509988  69.7440769  53.1385636  54.6593619
  58.4260012  49.7474997  55.1489988  58.5700012  48.8454997  54.8619988
  57.6540012  50.0334997  54.6609988  58.3413322  49.6628261  55.0437881
  62.7680012  50.0914997  37.2809988  62.8320012  49.2974997  37.8119988
  63.4210012  49.9724997  36.5909988  62.8650241  49.9667148  37.2604317
  65.0820012  49.7174997  54.5809988  64.7530012  49.9884997  53.7239988
  65.2340012  48.7764997  54.4939988  65.0574809  49.6273862  54.4518244
  70.8160012  49.6334997  51.9649988  71.5620012  50.2214997  51.8449988
  70.0590012  50.2154997  52.0279988  70.8157554  49.7927011  51.9570907
  59.2590012  46.9474997  54.5689988  59.6670012  46.0904997  54.4479988
  58.9990012  46.9624997  55.4899988  59.2797568  46.8320807  54.6769588
  63.2060012  45.9564997  51.9429988  62.5880012  46.6314997  52.2229988
  63.5500012  46.2774997  51.1099988  63.1679615  46.0922721  51.8686581
  68.2260012  48.4284997  55.2199988  69.1790012  48.5114997  55.1929988
  68.0650012  47.7164997  55.8399988  68.3346426  48.3436746  55.3000579
  63.5450012  43.3114997  53.0249988  63.6950012  42.5824997  52.4229988
  63.5480012  44.0884997  52.4659988  63.5659302  43.3167851  52.8670692
  63.9580012  41.6814997  50.5179988  64.4940012  42.1324997  49.8659988
  63.1060012  41.5734997  50.0949988  63.9162178  41.7286390  50.3715756
  65.5400012  47.1204997  50.7569988  66.2900012  46.9644997  50.1839988
  65.2010012  47.9724997  50.4819988  65.5968921  47.2142968  50.6413561
  69.9550012  44.9354997  55.7859988  70.1480012  44.0044997  55.6739988
  70.8130012  45.3604997  55.7759988  70.0973020  44.8656389  55.7693361
  71.2720012  47.7244997  53.8629988  70.9910012  48.4334997  53.2859988
  72.2150012  47.6514997  53.7119988  71.3609027  47.8117646  53.7635551
  62.0240012  44.5094997  54.9369988  61.2570012  43.9774997  54.7269988
  62.7030012  44.1994997  54.3369988  62.0107022  44.3947506  54.8271648
  64.7640012  39.1374997  50.9489988  64.6650012  40.0844997  50.8439988
  64.0210012  38.7654997  50.4739988  64.6500564  39.2165902  50.8704560
  66.0280012  43.4594997  54.5129988  65.7920012  43.2394997  55.4149988
  65.2440012  43.2524997  54.0029988  65.8898628  43.4014760  54.5673932
  68.7430012  42.5864997  53.5889988  67.7960012  42.6184997  53.7209988
  69.0560012  41.9614997  54.2419988  68.6555475  42.5063207  53.6954455
  70.3770012  41.2204997  55.5939988  70.2810012  40.2684997  55.5879988
  70.0560012  41.4894997  56.4539988  70.3204070  41.1264035  55.7095441
  60.2040012  42.4304997  54.6409988  60.4160012  41.7234997  54.0309988
  60.0930012  41.9924997  55.4849988  60.2179721  42.2747084  54.6716843
  64.9850012  38.4314997  53.6209988  65.6970012  37.7914997  53.6069988
  64.8840012  38.6984997  52.7069988  65.0687939  38.3799938  53.4955650
  65.3390012  40.1144997  55.6739988  65.2070012  39.6384997  54.8539988
  64.7400012  40.8584997  55.6189988  65.2399071  40.1499618  55.5542886
  58.4540012  51.6334997  38.3329988  59.3680012  51.7124997  38.6069988
  58.4610012  50.9464997  37.6669988  58.5801131  51.5513961  38.2804393
  57.1030012  57.0264997  43.4109988  56.4560012  56.5644997  42.8779988
  57.4570012  56.3544997  43.9929988  57.0623849  56.8724723  43.4167959
  57.9730012  55.1074997  45.2149988  57.6380012  54.2274997  45.3869988
  58.1950012  55.4524997  46.0799988  57.9571783  55.0337500  45.3554208
  75.5210012  55.9164997  48.1959988  75.5000012  56.1014997  49.1349988
  76.2120012  56.4854997  47.8549988  75.6114618  56.0186606  48.2783864
  75.0850012  55.4844997  51.1179988  74.5970012  54.7484997  50.7469988
  75.6340012  55.0904997  51.7959988  75.0924872  55.3306249  51.1589160
  73.5350012  51.2734997  55.7559988  72.6690012  51.1684997  56.1499988
  73.9120012  52.0324997  56.2019988  73.4673308  51.3616900  55.8702393
  74.8360012  49.5304997  41.2699988  75.6860012  49.9514997  41.3969988
  74.8420012  48.7904997  41.8769988  74.9531372  49.4880803  41.3694344
  75.2310012  47.5834997  43.0939988  74.5040012  47.1044997  43.4909988
  75.8120012  47.7894997  43.8259988  75.2099375  47.5457090  43.2474129
  74.9900012  50.3684997  48.0409988  75.8230012  49.9904997  47.7609988
  75.1020012  51.3114997  47.9219988  75.1192647  50.4442218  47.9865487
  73.4760012  53.2464997  50.3479988  72.8290012  53.5714997  50.9739988
  72.9590012  52.8064997  49.6739988  73.3174029  53.2315004  50.3425827
  75.4990012  47.4844997  39.4849988  74.9770012  47.8414997  38.7659988
  75.4660012  48.1594997  40.1629988  75.4231634  47.6245413  39.4783145
  73.8480012  44.7244997  38.0359988  73.9440012  45.3914997  37.3549988
  73.7080012  43.9084997  37.5539988  73.8422135  44.7054500  37.8778491
  73.0170012  46.1044997  43.6569988  72.8670012  45.1594997  43.6359988
  72.6640012  46.3854997  44.4999988  72.9486625  46.0130441  43.7682346
  58.0530012  48.1824997  47.6669988  58.2370012  48.1004997  46.7309988
  58.9020012  48.0584997  48.0909988  58.1930139  48.1545003  47.5961455
  73.8740012  48.0744997  53.2949988  74.4570012  47.3404997  53.4869988
  74.4380012  48.8464997  53.3419988  74.0299769  48.0784227  53.3276159
  75.3700012  45.9774997  53.9799988  74.5070012  45.5984997  53.8139988
  75.9750012  45.2384997  53.9059988  75.3335979  45.8258023  53.9472817
  73.0950012  42.1324997  37.1529988  73.7060012  41.7614997  37.7899988
  72.2590012  41.7114997  37.3489988  73.0655032  42.0247554  37.2667035
  72.7280012  43.6874997  42.1189988  73.0080012  42.7804997  42.2429988
  73.4870012  44.1214997  41.7299988  72.8689277  43.6220942  42.0833682
  73.3400012  44.2684997  47.5549988  74.2730012  44.4804997  47.5209988
  73.1050012  44.3704997  48.4769988  73.4358036  44.3112769  47.6749976
  73.3690012  45.0054997  50.3309988  72.5260012  45.2734997  50.6969988
  73.8110012  45.8274997  50.1199988  73.3134158  45.1533291  50.3525491
  57.6500012  43.4534997  53.8079988  58.5700012  43.3314997  54.0439988
  57.2010012  42.7034997  54.1969988  57.7151580  43.3353727  53.8929006
  75.6520012  38.9854997  55.6839988  76.0020012  38.3314997  55.0789988
  75.7990012  39.8224997  55.2449988  75.7198419  39.0091591  55.5417118
  73.3410012  40.9504997  42.1669988  73.5240012  40.5014997  42.9929988
  72.7420012  40.3654997  41.7039988  73.2850202  40.8099975  42.2173275
  58.8710012  41.7654997  46.6989988  59.3170012  40.9734997  47.0009988
  59.3380012  42.4814997  47.1299988  58.9950172  41.7540624  46.7984820
  57.1750012  44.7644997  47.7679988  57.6670012  44.5434997  46.9769988
  57.5380012  45.6054997  48.0489988  57.2913126  44.8478357  47.6977531
  75.1720012  41.0944997  54.0339988  74.2540012  41.3654997  53.9979988
  75.2950012  40.5594997  53.2489988  75.0631066  41.0592892  53.9230487
  75.2080012  41.0174997  38.6949988  75.6200012  40.2964997  38.2199988
  75.8900012  41.6874997  38.7539988  75.3565885  41.0092368  38.6378915
  57.4890012  41.0224997  41.8219988  56.5640012  41.2314997  41.6929988
  57.9430012  41.5064997  41.1329988  57.4237368  41.1165993  41.7111226
  57.4530012  39.7604997  50.1669988  56.7880012  39.5144997  50.8099988
  57.0100012  40.3824997  49.5889988  57.3020956  39.8108632  50.1769352
  59.6450012  52.9354997  54.3109988  58.8240012  53.1104997  53.8509988
  59.3920012  52.8624997  55.2319988  59.4986164  52.9495622  54.3724923
  62.5990012  53.9104997  50.5699988  62.1740012  54.7194997  50.2869988
  63.5030012  53.9954997  50.2679988  62.6630271  54.0328469  50.4903776
  66.9100012  55.3094997  53.5289988  67.0950012  54.9754997  54.4069988
  67.7560012  55.6184997  53.2069988  67.0497539  55.3056047  53.6055605
  69.2550012  56.5954997  52.7729988  69.9320012  55.9624997  52.5329988
  69.5770012  56.9964997  53.5799988  69.3911637  56.5631154  52.8492793
  74.1720012  39.1844997  51.8529988  73.3600012  39.5094997  51.4649988
  74.4050012  38.4244997  51.3199988  74.0923423  39.1262436  51.7278253
  60.0010012  57.1664997  50.6169988  59.2800012  57.6064997  50.1659988
  59.6350012  56.9154997  51.4659988  59.8529804  57.1927698  50.6699840
  72.1100012  57.1024997  50.0619988  71.9280012  58.0184997  49.8519988
  72.2870012  56.6924997  49.2159988  72.1090210  57.1724822  49.9187885
  59.4150012  55.7894997  47.5269988  59.3970012  55.3644997  48.3849988
  60.2200012  55.4714997  47.1189988  59.5213875  55.6883812  47.5891655
  61.5570012  54.4994997  46.1819988  61.3380012  53.5834997  46.3519988
  62.3810012  54.6394997  46.6479988  61.6384420  54.3930520  46.2682774
  67.6020012  40.6334997  46.1749988  66.9280012  40.0044997  46.4309988
  68.1660012  40.1494997  45.5719988  67.5859230  40.4818744  46.1285340
  72.7450012  38.7414997  46.2879988  73.3490012  39.2884997  45.7859988
  71.8750012  39.0604997  46.0479988  72.7101241  38.8595806  46.1867654
  74.4720012  39.8794997  44.6209988  75.0840012  39.3654997  44.0949988
  74.8540012  40.7574997  44.6449988  74.6074540  39.9277140  44.5521830
  59.9290012  39.2674997  43.9969988  59.1520012  39.0334997  43.4899988
  60.4590012  38.4704997  44.0059988  59.8942330  39.1276988  43.9287742
  58.7650012  39.0654997  39.8009988  59.2040012  39.6764997  39.2089988
  58.1320012  39.6034997  40.2749988  58.7394514  39.2219257  39.7840930
  64.5080012  39.1944997  43.8109988  65.3830012  39.5824997  43.7809988
  64.3720012  38.9794997  44.7329988  64.6093695  39.2185184  43.9316440
  70.0650012  39.2244997  45.4599988  70.1410012  39.3194997  44.5099988
  69.7900012  38.3164997  45.5889988  70.0382321  39.1147867  45.3475079
  71.4180012  39.2504997  41.1519988  70.7160012  39.8654997  40.9429988
  70.9740012  38.4124997  41.2829988  71.2616330  39.2215783  41.1410328
  58.6660012  55.0134997  40.6989988  57.9810012  54.9754997  40.0309988
  58.6700012  55.9264997  40.9869988  58.5728193  55.1317016  40.6465284
  60.6260012  40.9814997  38.2429988  61.1180012  40.3514997  37.7159988
  61.2500012  41.2774997  38.9069988  60.7775446  40.9353199  38.2605980
  65.6520012  41.2744997  40.6999988  65.8300012  40.6284997  41.3829988
  65.5990012  42.1084997  41.1679988  65.6691829  41.2987985  40.8565940
  74.2400012  55.7864997  41.7749988  74.0450012  55.0384997  41.2099988
  74.2010012  56.5444997  41.1919988  74.2080380  55.7866099  41.6188384
  59.8870012  39.7814997  53.5149988  59.5210012  39.0164997  53.9579988
  60.8000012  39.8104997  53.8019988  59.9602790  39.6807224  53.6144070
  61.8600012  39.1324997  55.0509988  62.7580012  38.8584997  54.8659988
  61.4730012  38.3894997  55.5149988  61.9306612  38.9945914  55.0883643
  70.2810012  38.4644997  55.2329988  70.3580012  38.0384997  56.0869988
  71.1750012  38.4784997  54.8899988  70.4123428  38.4080879  55.3035310
  73.4570012  54.5374997  53.9249988  72.6750012  54.3514997  53.4059988
  73.3850012  55.4664997  54.1429988  73.3401777  54.6376492  53.8834048
  87.8630012  48.4234997  43.9559988  87.9520012  49.3674997  43.8239988
  87.2250012  48.1484997  43.2979988  87.7889081  48.5154830  43.8489614
  86.7960012  47.6784997  47.3749988  86.7580012  47.0324997  48.0799988
  86.4740012  47.2124997  46.6039988  86.7472333  47.5269408  47.3672978
  79.1650012  47.2934997  48.9679988  79.2060012  46.6674997  49.6909988
  79.8680012  47.9174997  49.1499988  79.2656363  47.2921196  49.0916044
  90.5020012  50.6174997  45.6759988  90.0620012  49.8974997  46.1269988
  90.4890012  51.3384997  46.3059988  90.4400226  50.6163731  45.8228494
  80.0880012  51.7434997  47.5029988  79.7190012  50.9414997  47.1329988
  81.0290012  51.5744997  47.5489988  80.1647289  51.6110153  47.4586316
  76.6980012  45.4034997  42.8959988  76.2510012  46.2494997  42.8769988
  76.1370012  44.8234997  42.3799988  76.5609900  45.4409916  42.8236801
  77.4090012  47.5654997  45.0219988  77.6220012  46.7954997  45.5489988
  78.1470012  47.6544997  44.4179988  77.5378496  47.4721394  45.0125300
  87.6140012  55.7224997  45.8889988  88.2340012  55.0454997  45.6149988
  87.4060012  55.5044997  46.7969988  87.6706904  55.6003870  45.9743365
  85.1860012  50.1114997  47.7809988  85.4900012  49.4254997  47.1859988
  85.9070012  50.2294997  48.3989988  85.3250671  50.0336305  47.7831816
  93.8490012  41.7124997  48.6419988  93.8980012  42.3224997  49.3779988
  94.2740012  42.1734997  47.9189988  93.9131824  41.8583741  48.6450205
  88.3270012  44.5054997  48.1089988  88.4690012  43.5594997  48.1289988
  88.2200012  44.7124997  47.1799988  88.3319864  44.4039534  47.9862339
  81.4810012  42.6064997  45.3809988  81.5250012  43.4664997  44.9629988
  81.0240012  42.0544997  44.7469988  81.4252185  42.6495799  45.2380299
  89.2040012  42.7374997  43.7819988  89.8500012  42.4084997  44.4069988
  89.7140012  43.2554997  43.1589988  89.3614264  42.7624611  43.7833862
  78.1020012  45.0034997  46.1429988  78.7550012  44.4534997  46.5749988
  78.1260012  44.7294997  45.2259988  78.1946683  44.8911466  46.0782123
  83.2580012  46.5534997  45.3579988  83.8740012  46.0274997  45.8679988
  82.6720012  45.9134997  44.9549988  83.2630810  46.3949208  45.3733173
  94.2400012  43.1904997  50.8779988  93.5520012  43.8484997  50.7819988
  94.2560012  42.9934997  51.8139988  94.1478525  43.2540462  50.9914808
  80.2920012  41.5244997  49.4549988  80.0730012  42.0544997  48.6889988
  79.6240012  41.7514997  50.1019988  80.1717600  41.6276906  49.4376379
  87.6610012  51.0244997  42.9989988  87.3650012  50.7024997  42.1479988
  87.3360012  51.9244997  43.0399988  87.5766371  51.1020215  42.8881801
  82.8610012  49.2004997  49.7419988  82.1210012  49.7984997  49.8459988
  83.5750012  49.7544997  49.4269988  82.8562237  49.3572831  49.7136465
  90.9680012  42.0284997  45.7619988  90.7520012  41.2624997  46.2949988
  91.6230012  42.5004997  46.2749988  91.0270632  41.9875889  45.9042861
  79.8850012  43.4164997  47.4069988  80.4990012  44.0494997  47.7809988
  80.3970012  42.9444997  46.7509988  80.0382296  43.4392370  47.3694252
  81.2680012  51.1644997  50.5299988  81.2630012  52.0444997  50.1519988
  80.4150012  51.0814997  50.9549988  81.1519464  51.2736117  50.5357907
  91.0140012  52.4574997  48.0239988  90.0730012  52.5154997  48.1859988
  91.2910012  53.3634997  47.8869988  90.9224679  52.5879443  48.0276815
  91.3150012  40.7434997  49.4419988  90.5790012  41.3544997  49.4039988
  91.9980012  41.1584997  48.9149988  91.3066541  40.8831374  49.3655832
  84.3180012  38.8304997  46.9079988  84.2010012  37.8814997  46.8529988
  83.4630012  39.1624997  47.1809988  84.1863733  38.7455409  46.9373897
  89.2660012  54.2384997  44.6499988  89.6920012  53.5314997  44.1649988
  89.5830012  55.0394997  44.2329988  89.3671019  54.2500994  44.5273130
  90.4260012  52.1394997  43.1579988  90.1680012  51.4494997  42.5469988
  90.4970012  51.6964997  44.0039988  90.4002856  51.9852124  43.1886885
  92.1120012  50.7054997  51.6359988  92.2520012  50.1144997  50.8959988
  92.2790012  51.5784997  51.2789988  92.1536778  50.7426426  51.4866965
  86.5850012  47.6674997  41.4079988  85.8730012  48.2024997  41.0559988
  87.2760012  47.7234997  40.7479988  86.5810132  47.7482543  41.2706289
  86.6380012  46.1254997  38.4469988  87.3390012  46.1474997  39.0979988
  86.9410012  45.4974997  37.7909988  86.7747830  46.0436566  38.4473711
  93.9540012  47.0454997  49.7019988  93.3010012  47.7404997  49.7909988
  94.4190012  47.2554997  48.8919988  93.9275390  47.1689425  49.6046883
  89.9900012  47.8774997  42.3599988  89.2580012  48.1054997  42.9329988
  90.4380012  47.1634997  42.8149988  89.9503095  47.8122571  42.4999119
  89.8880012  46.0514997  51.4269988  89.9680012  46.8144997  51.9989988
  89.2860012  46.3304997  50.7369988  89.8175756  46.1937134  51.4120589
  81.6360012  48.5074997  44.2419988  81.3050012  48.1374997  43.4239988
  82.2240012  47.8374997  44.5889988  81.6701873  48.3661156  44.1768102
  83.0020012  51.9354997  46.9239988  82.9080012  51.3574997  46.1669988
  83.7320012  51.5644997  47.4199988  83.0877981  51.8062390  46.8874165
  82.0020012  47.2764997  47.8759988  82.5680012  47.3974997  47.1129988
  82.3210012  47.9134997  48.5149988  82.1225786  47.3791884  47.8580040
  88.3110012  52.7794997  48.6099988  88.0710012  53.4414997  49.2579988
  88.1130012  51.9454997  49.0349988  88.2513808  52.7573134  48.7561524
  82.8820012  51.6754997  52.5929988  82.5710012  52.4574997  53.0479988
  82.2320012  51.5224997  51.9069988  82.7515558  51.7619105  52.5625871
  88.8610012  47.0394997  40.0449988  89.4410012  47.1894997  40.7919988
  89.2750012  47.5104997  39.3219988  88.9962830  47.1236841  40.0494134
  79.8020012  47.8734997  51.8219988  79.8730012  48.5244997  52.5199988
  78.9120012  47.9764997  51.4869988  79.6913117  47.9765936  51.8722700
  86.5880012  53.7764997  43.4799988  87.0620012  54.0714997  44.2579988
  86.0250012  54.5144997  43.2469988  86.5767653  53.9166932  43.5550136
  81.1220012  53.7474997  53.3559988  81.1290012  53.6114997  52.4089988
  80.2060012  53.6294997  53.6079988  80.9991714  53.7129430  53.2604666
  92.5600012  38.7894997  39.8579988  91.6600012  38.9284997  40.1529988
  92.8120012  39.6204997  39.4559988  92.4708702  38.9209074  39.8440205
  80.6260012  47.5774997  41.8319988  80.3340012  48.3454997  41.3409988
  79.9520012  46.9174997  41.6689988  80.4949081  47.5934406  41.7427340
  93.7490012  53.1554997  38.2339988  93.8230012  54.0944997  38.4049988
  94.6550012  52.8504997  38.1779988  93.8815100  53.2426722  38.2498119
  76.7190012  49.9404997  50.6469988  76.2180012  49.9124997  49.8319988
  76.7240012  49.0344997  50.9559988  76.6511526  49.8142278  50.5772872
  76.4690012  52.7204997  47.5309988  77.4150012  52.5764997  47.5119988
  76.3570012  53.5044997  48.0679988  76.5832727  52.8068046  47.6010072
  94.6670012  53.3864997  53.2129988  94.6180012  52.4314997  53.1759988
  93.8400012  53.6544997  53.6139988  94.5484940  53.2918998  53.2621375
  85.6460012  52.9604997  52.0889988  85.7330012  53.7864997  52.5639988
  84.7820012  52.6304997  52.3379988  85.5411964  53.0289878  52.1876549
  86.0600012  56.7324997  41.8949988  85.9850012  56.6114997  40.9489988
  86.0930012  57.6824997  42.0139988  86.0541848  56.8442500  41.7814834
  91.8190012  44.8794997  53.6929988  91.4120012  45.3604997  52.9719988
  91.8600012  43.9744997  53.3849988  91.7688437  44.8229374  53.5526683
  78.9680012  51.2634997  51.6899988  79.1840012  50.9024997  52.5489988
  78.1130012  50.8894997  51.4799988  78.8819292  51.1634111  51.7793386
  81.5870012  39.7334997  47.6849988  80.7250012  39.6464997  47.2779988
  81.5640012  40.5894997  48.1129988  81.4660330  39.8372765  47.6871863
  86.2500012  39.4554997  51.0599988  86.6700012  39.0404997  51.8129988
  85.3170012  39.2774997  51.1769988  86.1813644  39.3745900  51.1789539
  89.5760012  43.2114997  51.9129988  89.0620012  43.0854997  52.7109988
  89.4210012  44.1234997  51.6689988  89.4846852  43.3176132  51.9892158
  90.3390012  48.0724997  37.6749988  90.3810012  47.8494997  36.7449988
  91.1880012  48.4714997  37.8649988  90.4595396  48.0959155  37.5733627
  85.9110012  41.9484997  38.3449988  85.6580012  41.9674997  39.2679988
  85.6550012  41.0764997  38.0439988  85.8417790  41.8332437  38.4306263
  81.6780012  44.6994997  48.7799988  81.0360012  44.6584997  49.4889988
  81.7150012  45.6254997  48.5429988  81.5951324  44.8191559  48.8449824
  81.6750012  44.9204997  43.6919988  80.7820012  44.5794997  43.6339988
  82.1250012  44.5434997  42.9369988  81.6137305  44.8228484  43.5819177
  87.2100012  45.3364997  42.5089988  86.8010012  46.1514997  42.2179988
  87.9310012  45.1964997  41.8949988  87.2514537  45.4292018  42.3861342
  86.3120012  45.5114997  53.9969988  85.7500012  44.8074997  54.3179988
  87.1390012  45.3914997  54.4649988  86.3467095  45.3987883  54.1042330
  88.2150012  44.7824997  45.3229988  88.0200012  45.3874997  44.6079988
  88.3960012  43.9484997  44.8889988  88.2127614  44.7526300  45.1664405
  79.4280012  45.0194997  50.6469988  79.3900012  45.4194997  51.5159988
  78.9370012  44.2024997  50.7379988  79.3564684  44.9638069  50.7781059
  82.7940012  42.3934997  37.4459988  82.3630012  41.9484997  38.1759988
  82.0760012  42.7654997  36.9339988  82.6379438  42.3828940  37.4766799
  76.0360012  42.1354997  44.4979988  76.6670012  42.1064997  45.2169988
  76.4850012  41.7104997  43.7679988  76.1830774  42.0740492  44.4976553
  77.3100012  42.8814997  39.9219988  77.7840012  43.4724997  39.3369988
  76.5930012  43.4124997  40.2689988  77.2779341  43.0340867  39.8888836
  87.4790012  46.4204997  49.9949988  87.8020012  45.7894997  49.3519988
  87.0390012  45.8854997  50.6549988  87.4636895  46.2618441  49.9962850
  84.2560012  42.3474997  44.7789988  83.3450012  42.4044997  45.0669988
  84.7620012  42.2874997  45.5889988  84.1995413  42.3471985  44.9280622
  79.0850012  43.9764997  43.6049988  78.1950012  44.0764997  43.2649988
  79.3810012  43.1344997  43.2589988  79.0032823  43.8763545  43.5117213
  82.7380012  43.9764997  41.2619988  83.6690012  44.1054997  41.4399988
  82.5230012  44.6464997  40.6119988  82.8364247  44.0846565  41.1985747
  88.6610012  41.5824997  48.0429988  87.9850012  41.7134997  48.7069988
  88.1760012  41.4274997  47.2329988  88.5027145  41.5794905  48.0244517
  81.4120012  45.1714997  38.8289988  80.8690012  44.7914997  38.1369988
  82.2450012  45.3654997  38.3999988  81.4504399  45.1458124  38.6764526
  91.9490012  57.2544997  54.3199988  92.1490012  57.6784997  53.4849988
  92.6040012  57.5974997  54.9269988  92.0650051  57.3589648  54.2877836
  79.5470012  49.7284997  53.9279988  80.2790012  49.9824997  54.4889988
  78.7670012  49.9324997  54.4429988  79.5418232  49.7909177  54.0745760
  85.5760012  45.1354997  46.6659988  86.1410012  44.5884997  46.1189988
  85.4290012  44.6134997  47.4539988  85.6332918  44.9902024  46.6978454
  80.5780012  41.2714997  43.0839988  80.2610012  40.3694997  43.0489988
  81.3600012  41.2734997  42.5309988  80.6402284  41.1481628  43.0044783
  84.2030012  43.5234997  49.0799988  83.3670012  43.9774997  49.1899988
  84.7270012  43.7994997  49.8319988  84.1594414  43.6229376  49.1967136
  84.7470012  49.7364997  40.7639988  84.0020012  49.2294997  40.4419988
  84.6130012  49.7854997  41.7109988  84.6268776  49.6736940  40.8478647
  91.8970012  48.8694997  49.5509988  92.5390012  49.3264997  49.0069988
  91.0670012  48.9824997  49.0879988  91.8725963  48.9472704  49.4140177
  88.6450012  42.5504997  38.9639988  87.7060012  42.6624997  38.8119988
  88.9420012  43.4074997  39.2699988  88.5567666  42.6816443  38.9845768
  86.2660012  49.9204997  52.0009988  85.9210012  49.5394997  52.8079988
  86.0660012  50.8544997  52.0729988  86.1918061  49.9945228  52.1210961
  89.3630012  44.4174997  40.6239988  90.2550012  44.2804997  40.9429988
  89.4200012  45.2084997  40.0879988  89.4926285  44.5056660  40.5951691
  79.8720012  49.0314997  46.5339988  80.6170012  49.0294997  45.9329988
  79.9500012  48.2084997  47.0159988  79.9845518  48.9199315  46.5168929
  86.8730012  51.1954997  39.7899988  86.5770012  52.0214997  40.1709988
  86.1700012  50.5754997  39.9859988  86.7374914  51.2248199  39.8686443
  76.8800012  47.4924997  51.8489988  77.1030012  47.0744997  52.6809988
  76.2780012  46.8794997  51.4259988  76.8291759  47.3524668  51.9057022
  83.8960012  47.0094997  54.0619988  83.6000012  46.8434997  53.1669988
  84.8280012  46.7894997  54.0509988  83.9814166  46.9570640  53.9380536
  88.5170012  52.3824997  51.9519988  87.6160012  52.5654997  51.6839988
  88.5510012  52.6414997  52.8729988  88.3983041  52.4425512  52.0398197
  94.2480012  44.6274997  40.3189988  93.6940012  44.2314997  39.6469988
  94.3480012  45.5374997  40.0409988  94.1857059  44.6963586  40.1894401
  94.2110012  50.4274997  53.1559988  93.3600012  50.6654997  52.7889988
  94.8020012  50.4104997  52.4029988  94.1742487  50.4578258  53.0038893
  92.5430012  53.4134997  40.7839988  92.1700012  52.5874997  41.0929988
  92.8210012  53.2304997  39.8869988  92.5295630  53.2757303  40.7049626
  89.7040012  48.2214997  47.8049988  88.7750012  47.9894997  47.7779988
  90.1550012  47.4444997  47.4749988  89.6379216  48.0847238  47.7566917
  82.2470012  52.5494997  43.9379988  82.7740012  53.3224997  43.7379988
  81.3670012  52.7744997  43.6369988  82.2001773  52.6858005  43.8699010
  78.0020012  47.4114997  38.5249988  78.6180012  48.0384997  38.9049988
  77.1400012  47.7274997  38.7969988  77.9697698  47.5399430  38.6137183
  83.6740012  50.2124997  43.5149988  83.4330012  51.1374997  43.5559988
  82.9330012  49.7534997  43.9109988  83.5408409  50.2771421  43.5741377
  84.1890012  54.3614997  49.8299988  84.5510012  55.2164997  49.5959988
  84.7200012  54.0694997  50.5699988  84.3104473  54.4391060  49.8980855
  82.3570012  55.2344997  43.0599988  81.4070012  55.3394997  43.1109988
  82.7090012  56.0544997  43.4049988  82.2744203  55.3598314  43.1136650
  87.7330012  50.4604997  49.5299988  87.3070012  50.2334997  50.3569988
  88.3130012  49.7224997  49.3479988  87.7531868  50.3295299  49.6185830
  89.9360012  51.3894997  38.6039988  90.2890012  51.0094997  39.4089988
  88.9870012  51.2964997  38.6909988  89.8560441  51.3249596  38.7258559
  90.3910012  55.0124997  51.9999988  89.7900012  54.4574997  51.5039988
  90.6730012  55.6794997  51.3739988  90.3468519  55.0266841  51.8474952
  94.4390012  55.8694997  38.8049988  95.1830012  56.4554997  38.6649988
  93.7450012  56.4374997  39.1389988  94.4470292  56.0265582  38.8309961
  78.5140012  42.2454997  51.4069988  77.6210012  42.5844997  51.3389988
  78.4150012  41.3904997  51.8249988  78.3784164  42.1762588  51.4542235
  90.8020012  50.0624997  40.8309988  90.5240012  49.3344997  41.3869988
  91.7290012  50.1814997  41.0359988  90.8893124  49.9788802  40.9348845
  78.1650012  54.0504997  49.8419988  78.3820012  53.1184997  49.8109988
  78.4110012  54.3244997  50.7249988  78.2279549  53.9600636  49.9571763
  84.0270012  52.5014997  37.0509988  84.2660012  51.7534997  36.5039988
  83.7580012  52.1134997  37.8839988  84.0233675  52.3466638  37.0886865
  82.9640012  52.0714997  39.5079988  83.1100012  51.5514997  40.2979988
  82.9610012  52.9784997  39.8139988  82.9835989  52.1228853  39.6576088
  79.4170012  49.3244997  40.0179988  78.7310012  49.6764997  40.5849988
  79.9390012  50.0874997  39.7709988  79.3936852  49.4758578  40.0622118
  87.2480012  41.9864997  50.2969988  87.9470012  42.0604997  50.9469988
  86.8670012  41.1224997  50.4509988  87.2921767  41.8797624  50.4068322
  88.0330012  41.6384997  41.3939988  88.2530012  42.1104997  40.5909988
  88.5910012  42.0334997  42.0639988  88.1384968  41.7564285  41.3747331
  85.7010012  53.7694997  40.2569988  84.8850012  54.2664997  40.3089988
  86.2310012  54.2444997  39.6169988  85.6609161  53.9017722  40.1775956
  85.2330012  43.3664997  42.2289988  86.0450012  43.8714997  42.2749988
  84.9880012  43.2214997  43.1429988  85.3110520  43.4160375  42.3588517
  85.7680012  44.3524997  51.4139988  85.8870012  44.9264997  52.1709988
  86.4240012  43.6644997  51.5279988  85.8729757  44.3381079  51.5330825
  86.1160012  40.4474997  43.1669988  85.7700012  41.0654997  43.8119988
  86.7750012  40.9484997  42.6859988  86.1577826  40.5995802  43.1900971
  83.0400012  54.8134997  40.2389988  83.2000012  55.6124997  39.7379988
  82.8420012  55.1194997  41.1239988  83.0351649  54.9644469  40.2899815
  81.7740012  41.5104997  39.8539988  81.6910012  42.3994997  40.2009988
  82.6640012  41.2454997  40.0859988  81.8829469  41.5961430  39.9327626
  91.9730012  42.2594997  52.2489988  91.0560012  42.5224997  52.1609988
  92.3080012  42.2564997  51.3519988  91.8929900  42.2950224  52.1157919
  90.5750012  46.0104997  46.3439988  89.7770012  45.5954997  46.0159988
  91.0200012  45.3194997  46.8349988  90.5259885  45.8603543  46.3654889
  80.0330012  51.9384997  38.9149988  80.6250012  52.6374997  39.1909988
  80.4920012  51.5054997  38.1949988  80.1761142  51.9757049  38.8554830
  78.3490012  44.6024997  38.0309988  78.3040012  45.5414997  38.2089988
  77.4610012  44.3664997  37.7609988  78.2228574  44.6991892  38.0188912
  91.6610012  55.2664997  47.9669988  91.5060012  55.9444997  47.3099988
  92.5940012  55.3384997  48.1699988  91.7658500  55.3690170  47.9045119
  79.1570012  39.3844997  46.7039988  78.9280012  39.4434997  45.7759988
  78.7140012  38.5924997  47.0099988  79.0658530  39.2855753  46.6184786
  78.0870012  53.3244997  42.8639988  77.2550012  53.7974997  42.8919988
  78.6330012  53.8344997  42.2659988  78.0469739  53.4581871  42.7869716
  77.3750012  55.9374997  54.1939988  77.9160012  55.7204997  54.9539988
  76.8940012  55.1314997  54.0049988  77.3839345  55.7989514  54.2723076
  81.9730012  54.8564997  55.8149988  82.7400012  54.3974997  56.1559988
  81.9510012  54.6304997  54.8849988  82.0751434  54.7630409  55.7360043
  88.5500012  53.2364997  54.5439988  88.1990012  52.3804997  54.7869988
  89.2760012  53.3794997  55.1509988  88.6000769  53.1385636  54.6593619
  90.6690012  54.1814997  37.4239988  90.9520012  53.3874997  37.8759988
  91.4090012  54.4144997  36.8629988  90.8077486  54.1042803  37.4100698
  77.2820012  49.7474997  55.1489988  77.4260012  48.8454997  54.8619988
  76.5100012  50.0334997  54.6609988  77.1973322  49.6628261  55.0437881
  81.6240012  50.0914997  37.2809988  81.6880012  49.2974997  37.8119988
  82.2770012  49.9724997  36.5909988  81.7210241  49.9667148  37.2604317
  83.9380012  49.7174997  54.5809988  83.6090012  49.9884997  53.7239988
  84.0900012  48.7764997  54.4939988  83.9134809  49.6273862  54.4518244
  86.9760012  51.1384997  37.0169988  86.7070012  51.3184997  37.9179988
  86.7700012  50.2124997  36.8859988  86.9113825  51.0380152  37.1225214
  89.6720012  49.6334997  51.9649988  90.4180012  50.2214997  51.8449988
  88.9150012  50.2154997  52.0279988  89.6717554  49.7927011  51.9570907
  78.1150012  46.9474997  54.5689988  78.5230012  46.0904997  54.4479988
  77.8550012  46.9624997  55.4899988  78.1357568  46.8320807  54.6769588
  82.7730012  48.0634997  39.5869988  82.3130012  47.5794997  40.2729988
  83.0280012  47.3954997  38.9509988  82.7444902  47.9068731  39.5949334
  82.0620012  45.9564997  51.9429988  81.4440012  46.6314997  52.2229988
  82.4060012  46.2774997  51.1099988  82.0239615  46.0922721  51.8686581
  83.8440012  46.3064997  37.8489988  83.6640012  46.1524997  36.9219988
  84.7940012  46.4144997  37.8939988  83.9477776  46.3000175  37.7281843
  87.0820012  48.4284997  55.2199988  88.0350012  48.5114997  55.1929988
  86.9210012  47.7164997  55.8399988  87.1906426  48.3436746  55.3000579
  93.2340012  48.6614997  37.2949988  92.9600012  48.2364997  36.4819988
  93.2730012  49.5924997  37.0779988  93.2017699  48.7292484  37.1543610
  82.4010012  43.3114997  53.0249988  82.5510012  42.5824997  52.4229988
  82.4040012  44.0884997  52.4659988  82.4219302  43.3167851  52.8670692
  82.8140012  41.6814997  50.5179988  83.3500012  42.1324997  49.8659988
  81.9620012  41.5734997  50.0949988  82.7722178  41.7286390  50.3715756
  84.3960012  47.1204997  50.7569988  85.1460012  46.9644997  50.1839988
  84.0570012  47.9724997  50.4819988  84.4528921  47.2142968  50.6413561
  88.8110012  44.9354997  55.7859988  89.0040012  44.0044997  55.6739988
  89.6690012  45.3604997  55.7759988  88.9533020  44.8656389  55.7693361
  90.1280012  47.7244997  53.8629988  89.8470012  48.4334997  53.2859988
  91.0710012  47.6514997  53.7119988  90.2169027  47.8117646  53.7635551
  80.8800012  44.5094997  54.9369988  80.1130012  43.9774997  54.7269988
  81.5590012  44.1994997  54.3369988  80.8667022  44.3947506  54.8271648
  83.6200012  39.1374997  50.9489988  83.5210012  40.0844997  50.8439988
  82.8770012  38.7654997  50.4739988  83.5060564  39.2165902  50.8704560
  84.8840012  43.4594997  54.5129988  84.6480012  43.2394997  55.4149988
  84.1000012  43.2524997  54.0029988  84.7458628  43.4014760  54.5673932
  87.5990012  42.5864997  53.5889988  86.6520012  42.6184997  53.7209988
  87.9120012  41.9614997  54.2419988  87.5115475  42.5063207  53.6954455
  89.2330012  41.2204997  55.5939988  89.1370012  40.2684997  55.5879988
  88.9120012  41.4894997  56.4539988  89.1764070  41.1264035  55.7095441
  79.0600012  42.4304997  54.6409988  79.2720012  41.7234997  54.0309988
  78.9490012  41.9924997  55.4849988  79.0739721  42.2747084  54.6716843
  83.8410012  38.4314997  53.6209988  84.5530012  37.7914997  53.6069988
  83.7400012  38.6984997  52.7069988  83.9247939  38.3799938  53.4955650
  84.1950012  40.1144997  55.6739988  84.0630012  39.6384997  54.8539988
  83.5960012  40.8584997  55.6189988  84.0959071  40.1499618  55.5542886
  94.3770012  55.9164997  48.1959988  94.3560012  56.1014997  49.1349988
  95.0680012  56.4854997  47.8549988  94.4674618  56.0186606  48.2783864
  93.9410012  55.4844997  51.1179988  93.4530012  54.7484997  50.7469988
  94.4900012  55.0904997  51.7959988  93.9484872  55.3306249  51.1589160
  92.3910012  51.2734997  55.7559988  91.5250012  51.1684997  56.1499988
  92.7680012  52.0324997  56.2019988  92.3233308  51.3616900  55.8702393
  93.6920012  49.5304997  41.2699988  94.5420012  49.9514997  41.3969988
  93.6980012  48.7904997  41.8769988  93.8091372  49.4880803  41.3694344
  94.0870012  47.5834997  43.0939988  93.3600012  47.1044997  43.4909988
  94.6680012  47.7894997  43.8259988  94.0659375  47.5457090  43.2474129
  93.8460012  50.3684997  48.0409988  94.6790012  49.9904997  47.7609988
  93.9580012  51.3114997  47.9219988  93.9752647  50.4442218  47.9865487
  92.3320012  53.2464997  50.3479988  91.6850012  53.5714997  50.9739988
  91.8150012  52.8064997  49.6739988  92.1734029  53.2315004  50.3425827
  94.3550012  47.4844997  39.4849988  93.8330012  47.8414997  38.7659988
  94.3220012  48.1594997  40.1629988  94.2791634  47.6245413  39.4783145
  92.7040012  44.7244997  38.0359988  92.8000012  45.3914997  37.3549988
  92.5640012  43.9084997  37.5539988  92.6982135  44.7054500  37.8778491
  91.8730012  46.1044997  43.6569988  91.7230012  45.1594997  43.6359988
  91.5200012  46.3854997  44.4999988  91.8046625  46.0130441  43.7682346
  76.9090012  48.1824997  47.6669988  77.0930012  48.1004997  46.7309988
  77.7580012  48.0584997  48.0909988  77.0490139  48.1545003  47.5961455
  92.7300012  48.0744997  53.2949988  93.3130012  47.3404997  53.4869988
  93.2940012  48.8464997  53.3419988  92.8859769  48.0784227  53.3276159
  94.2260012  45.9774997  53.9799988  93.3630012  45.5984997  53.8139988
  94.8310012  45.2384997  53.9059988  94.1895979  45.8258023  53.9472817
  91.9510012  42.1324997  37.1529988  92.5620012  41.7614997  37.7899988
  91.1150012  41.7114997  37.3489988  91.9215032  42.0247554  37.2667035
  91.5840012  43.6874997  42.1189988  91.8640012  42.7804997  42.2429988
  92.3430012  44.1214997  41.7299988  91.7249277  43.6220942  42.0833682
  92.1960012  44.2684997  47.5549988  93.1290012  44.4804997  47.5209988
  91.9610012  44.3704997  48.4769988  92.2918036  44.3112769  47.6749976
  92.2250012  45.0054997  50.3309988  91.3820012  45.2734997  50.6969988
  92.6670012  45.8274997  50.1199988  92.1694158  45.1533291  50.3525491
  76.5060012  43.4534997  53.8079988  77.4260012  43.3314997  54.0439988
  76.0570012  42.7034997  54.1969988  76.5711580  43.3353727  53.8929006
  94.5080012  38.9854997  55.6839988  94.8580012  38.3314997  55.0789988
  94.6550012  39.8224997  55.2449988  94.5758419  39.0091591  55.5417118
  92.1970012  40.9504997  42.1669988  92.3800012  40.5014997  42.9929988
  91.5980012  40.3654997  41.7039988  92.1410202  40.8099975  42.2173275
  77.7270012  41.7654997  46.6989988  78.1730012  40.9734997  47.0009988
  78.1940012  42.4814997  47.1299988  77.8510172  41.7540624  46.7984820
  76.0310012  44.7644997  47.7679988  76.5230012  44.5434997  46.9769988
  76.3940012  45.6054997  48.0489988  76.1473126  44.8478357  47.6977531
  94.0280012  41.0944997  54.0339988  93.1100012  41.3654997  53.9979988
  94.1510012  40.5594997  53.2489988  93.9191066  41.0592892  53.9230487
  94.0640012  41.0174997  38.6949988  94.4760012  40.2964997  38.2199988
  94.7460012  41.6874997  38.7539988  94.2125885  41.0092368  38.6378915
  76.3450012  41.0224997  41.8219988  75.4200012  41.2314997  41.6929988
  76.7990012  41.5064997  41.1329988  76.2797368  41.1165993  41.7111226
  91.1160012  56.0064997  43.7679988  91.7680012  55.6594997  43.1599988
  91.6260012  56.4954997  44.4139988  91.2742637  56.0250597  43.7720236
  76.3090012  39.7604997  50.1669988  75.6440012  39.5144997  50.8099988
  75.8660012  40.3824997  49.5889988  76.1580956  39.8108632  50.1769352
  78.5010012  52.9354997  54.3109988  77.6800012  53.1104997  53.8509988
  78.2480012  52.8624997  55.2319988  78.3546164  52.9495622  54.3724923
  81.4550012  53.9104997  50.5699988  81.0300012  54.7194997  50.2869988
  82.3590012  53.9954997  50.2679988  81.5190271  54.0328469  50.4903776
  85.7660012  55.3094997  53.5289988  85.9510012  54.9754997  54.4069988
  86.6120012  55.6184997  53.2069988  85.9057539  55.3056047  53.6055605
  88.1110012  56.5954997  52.7729988  88.7880012  55.9624997  52.5329988
  88.4330012  56.9964997  53.5799988  88.2471637  56.5631154  52.8492793
  93.0280012  39.1844997  51.8529988  92.2160012  39.5094997  51.4649988
  93.2610012  38.4244997  51.3199988  92.9483423  39.1262436  51.7278253
  78.8570012  57.1664997  50.6169988  78.1360012  57.6064997  50.1659988
  78.4910012  56.9154997  51.4659988  78.7089804  57.1927698  50.6699840
  81.3240012  56.7664997  49.6469988  80.4590012  56.8384997  50.0509988
  81.2690012  57.3134997  48.8629988  81.1982085  56.8502685  49.5963362
  86.0340012  56.6544997  48.8219988  85.5780012  57.1834997  48.1679988
  86.1970012  57.2574997  49.5479988  85.9935585  56.8084468  48.8305062
  88.3620012  55.5324997  49.7669988  87.4570012  55.6974997  49.5019988
  88.7910012  56.3854997  49.7019988  88.2960799  55.6704483  49.7219182
  90.9660012  57.1024997  50.0619988  90.7840012  58.0184997  49.8519988
  91.1430012  56.6924997  49.2159988  90.9650210  57.1724822  49.9187885
  78.2710012  55.7894997  47.5269988  78.2530012  55.3644997  48.3849988
  79.0760012  55.4714997  47.1189988  78.3773875  55.6883812  47.5891655
  80.4130012  54.4994997  46.1819988  80.1940012  53.5834997  46.3519988
  81.2370012  54.6394997  46.6479988  80.4944420  54.3930520  46.2682774
  82.9500012  54.9694997  47.0309988  83.1630012  54.0814997  46.7439988
  83.0140012  54.9354997  47.9849988  82.9878232  54.8433102  47.1207397
  86.4580012  40.6334997  46.1749988  85.7840012  40.0044997  46.4309988
  87.0220012  40.1494997  45.5719988  86.4419230  40.4818744  46.1285340
  91.6010012  38.7414997  46.2879988  92.2050012  39.2884997  45.7859988
  90.7310012  39.0604997  46.0479988  91.5661241  38.8595806  46.1867654
  93.3280012  39.8794997  44.6209988  93.9400012  39.3654997  44.0949988
  93.7100012  40.7574997  44.6449988  93.4634540  39.9277140  44.5521830
  78.7850012  39.2674997  43.9969988  78.0080012  39.0334997  43.4899988
  79.3150012  38.4704997  44.0059988  78.7502330  39.1276988  43.9287742
  77.6210012  39.0654997  39.8009988  78.0600012  39.6764997  39.2089988
  76.9880012  39.6034997  40.2749988  77.5954514  39.2219257  39.7840930
  83.3640012  39.1944997  43.8109988  84.2390012  39.5824997  43.7809988
  83.2280012  38.9794997  44.7329988  83.4653695  39.2185184  43.9316440
  88.9210012  39.2244997  45.4599988  88.9970012  39.3194997  44.5099988
  88.6460012  38.3164997  45.5889988  88.8942321  39.1147867  45.3475079
  90.2740012  39.2504997  41.1519988  89.5720012  39.8654997  40.9429988
  89.8300012  38.4124997  41.2829988  90.1176330  39.2215783  41.1410328
  79.4820012  40.9814997  38.2429988  79.9740012  40.3514997  37.7159988
  80.1060012  41.2774997  38.9069988  79.6335446  40.9353199  38.2605980
  84.5080012  41.2744997  40.6999988  84.6860012  40.6284997  41.3829988
  84.4550012  42.1084997  41.1679988  84.5251829  41.2987985  40.8565940
  93.0960012  55.7864997  41.7749988  92.9010012  55.0384997  41.2099988
  93.0570012  56.5444997  41.1919988  93.0640380  55.7866099  41.6188384
  78.7430012  39.7814997  53.5149988  78.3770012  39.0164997  53.9579988
  79.6560012  39.8104997  53.8019988  78.8162790  39.6807224  53.6144070
  80.7160012  39.1324997  55.0509988  81.6140012  38.8584997  54.8659988
  80.3290012  38.3894997  55.5149988  80.7866612  38.9945914  55.0883643
  89.1370012  38.4644997  55.2329988  89.2140012  38.0384997  56.0869988
  90.0310012  38.4784997  54.8899988  89.2683428  38.4080879  55.3035310
  92.3130012  54.5374997  53.9249988  91.5310012  54.3514997  53.4059988
  92.2410012  55.4664997  54.1429988  92.1961777  54.6376492  53.8834048
 106.7190012  48.4234997  43.9559988 106.8080012  49.3674997  43.8239988
 106.0810012  48.1484997  43.2979988 106.6449081  48.5154830  43.8489614
 105.6520012  47.6784997  47.3749988 105.6140012  47.0324997  48.0799988
 105.3300012  47.2124997  46.6039988 105.6032333  47.5269408  47.3672978
  98.0210012  47.2934997  48.9679988  98.0620012  46.6674997  49.6909988
  98.7240012  47.9174997  49.1499988  98.1216363  47.2921196  49.0916044
 109.3580012  50.6174997  45.6759988 108.9180012  49.8974997  46.1269988
 109.3450012  51.3384997  46.3059988 109.2960226  50.6163731  45.8228494
  98.9440012  51.7434997  47.5029988  98.5750012  50.9414997  47.1329988
  99.8850012  51.5744997  47.5489988  99.0207289  51.6110153  47.4586316
  95.5540012  45.4034997  42.8959988  95.1070012  46.2494997  42.8769988
  94.9930012  44.8234997  42.3799988  95.4169900  45.4409916  42.8236801
  96.2650012  47.5654997  45.0219988  96.4780012  46.7954997  45.5489988
  97.0030012  47.6544997  44.4179988  96.3938496  47.4721394  45.0125300
 106.4700012  55.7224997  45.8889988 107.0900012  55.0454997  45.6149988
 106.2620012  55.5044997  46.7969988 106.5266904  55.6003870  45.9743365
 104.0420012  50.1114997  47.7809988 104.3460012  49.4254997  47.1859988
 104.7630012  50.2294997  48.3989988 104.1810671  50.0336305  47.7831816
 112.7050012  41.7124997  48.6419988 112.7540012  42.3224997  49.3779988
 113.1300012  42.1734997  47.9189988 112.7691824  41.8583741  48.6450205
 107.1830012  44.5054997  48.1089988 107.3250012  43.5594997  48.1289988
 107.0760012  44.7124997  47.1799988 107.1879864  44.4039534  47.9862339
 100.3370012  42.6064997  45.3809988 100.3810012  43.4664997  44.9629988
  99.8800012  42.0544997  44.7469988 100.2812185  42.6495799  45.2380299
 108.0600012  42.7374997  43.7819988 108.7060012  42.4084997  44.4069988
 108.5700012  43.2554997  43.1589988 108.2174264  42.7624611  43.7833862
  96.9580012  45.0034997  46.1429988  97.6110012  44.4534997  46.5749988
  96.9820012  44.7294997  45.2259988  97.0506683  44.8911466  46.0782123
 102.1140012  46.5534997  45.3579988 102.7300012  46.0274997  45.8679988
 101.5280012  45.9134997  44.9549988 102.1190810  46.3949208  45.3733173
 113.0960012  43.1904997  50.8779988 112.4080012  43.8484997  50.7819988
 113.1120012  42.9934997  51.8139988 113.0038525  43.2540462  50.9914808
  99.1480012  41.5244997  49.4549988  98.9290012  42.0544997  48.6889988
  98.4800012  41.7514997  50.1019988  99.0277600  41.6276906  49.4376379
 106.5170012  51.0244997  42.9989988 106.2210012  50.7024997  42.1479988
 106.1920012  51.9244997  43.0399988 106.4326371  51.1020215  42.8881801
 101.7170012  49.2004997  49.7419988 100.9770012  49.7984997  49.8459988
 102.4310012  49.7544997  49.4269988 101.7122237  49.3572831  49.7136465
 109.8240012  42.0284997  45.7619988 109.6080012  41.2624997  46.2949988
 110.4790012  42.5004997  46.2749988 109.8830632  41.9875889  45.9042861
  98.7410012  43.4164997  47.4069988  99.3550012  44.0494997  47.7809988
  99.2530012  42.9444997  46.7509988  98.8942296  43.4392370  47.3694252
 100.1240012  51.1644997  50.5299988 100.1190012  52.0444997  50.1519988
  99.2710012  51.0814997  50.9549988 100.0079464  51.2736117  50.5357907
  96.2450012  50.8354997  41.3119988  95.9730012  51.0644997  40.4229988
  96.2910012  51.6734997  41.7719988  96.2140094  50.9801213  41.2525697
 109.8700012  52.4574997  48.0239988 108.9290012  52.5154997  48.1859988
 110.1470012  53.3634997  47.8869988 109.7784679  52.5879443  48.0276815
 110.1710012  40.7434997  49.4419988 109.4350012  41.3544997  49.4039988
 110.8540012  41.1584997  48.9149988 110.1626541  40.8831374  49.3655832
 103.1740012  38.8304997  46.9079988 103.0570012  37.8814997  46.8529988
 102.3190012  39.1624997  47.1809988 103.0423733  38.7455409  46.9373897
 108.1220012  54.2384997  44.6499988 108.5480012  53.5314997  44.1649988
 108.4390012  55.0394997  44.2329988 108.2231019  54.2500994  44.5273130
 109.2820012  52.1394997  43.1579988 109.0240012  51.4494997  42.5469988
 109.3530012  51.6964997  44.0039988 109.2562856  51.9852124  43.1886885
 110.9680012  50.7054997  51.6359988 111.1080012  50.1144997  50.8959988
 111.1350012  51.5784997  51.2789988 111.0096778  50.7426426  51.4866965
 105.4410012  47.6674997  41.4079988 104.7290012  48.2024997  41.0559988
 106.1320012  47.7234997  40.7479988 105.4370132  47.7482543  41.2706289
 105.4940012  46.1254997  38.4469988 106.1950012  46.1474997  39.0979988
 105.7970012  45.4974997  37.7909988 105.6307830  46.0436566  38.4473711
 112.8100012  47.0454997  49.7019988 112.1570012  47.7404997  49.7909988
 113.2750012  47.2554997  48.8919988 112.7835390  47.1689425  49.6046883
 108.8460012  47.8774997  42.3599988 108.1140012  48.1054997  42.9329988
 109.2940012  47.1634997  42.8149988 108.8063095  47.8122571  42.4999119
 108.7440012  46.0514997  51.4269988 108.8240012  46.8144997  51.9989988
 108.1420012  46.3304997  50.7369988 108.6735756  46.1937134  51.4120589
 100.4920012  48.5074997  44.2419988 100.1610012  48.1374997  43.4239988
 101.0800012  47.8374997  44.5889988 100.5261873  48.3661156  44.1768102
 101.8580012  51.9354997  46.9239988 101.7640012  51.3574997  46.1669988
 102.5880012  51.5644997  47.4199988 101.9437981  51.8062390  46.8874165
 100.8580012  47.2764997  47.8759988 101.4240012  47.3974997  47.1129988
 101.1770012  47.9134997  48.5149988 100.9785786  47.3791884  47.8580040
 107.1670012  52.7794997  48.6099988 106.9270012  53.4414997  49.2579988
 106.9690012  51.9454997  49.0349988 107.1073808  52.7573134  48.7561524
 101.7380012  51.6754997  52.5929988 101.4270012  52.4574997  53.0479988
 101.0880012  51.5224997  51.9069988 101.6075558  51.7619105  52.5625871
 107.7170012  47.0394997  40.0449988 108.2970012  47.1894997  40.7919988
 108.1310012  47.5104997  39.3219988 107.8522831  47.1236841  40.0494134
  98.6580012  47.8734997  51.8219988  98.7290012  48.5244997  52.5199988
  97.7680012  47.9764997  51.4869988  98.5473117  47.9765936  51.8722700
 105.4440012  53.7764997  43.4799988 105.9180012  54.0714997  44.2579988
 104.8810012  54.5144997  43.2469988 105.4327653  53.9166932  43.5550136
  99.9780012  53.7474997  53.3559988  99.9850012  53.6114997  52.4089988
  99.0620012  53.6294997  53.6079988  99.8551714  53.7129430  53.2604666
 111.4160012  38.7894997  39.8579988 110.5160012  38.9284997  40.1529988
 111.6680012  39.6204997  39.4559988 111.3268702  38.9209074  39.8440205
  99.4820012  47.5774997  41.8319988  99.1900012  48.3454997  41.3409988
  98.8080012  46.9174997  41.6689988  99.3509081  47.5934406  41.7427340
 112.6050012  53.1554997  38.2339988 112.6790012  54.0944997  38.4049988
 113.5110012  52.8504997  38.1779988 112.7375100  53.2426722  38.2498119
  95.5750012  49.9404997  50.6469988  95.0740012  49.9124997  49.8319988
  95.5800012  49.0344997  50.9559988  95.5071526  49.8142278  50.5772872
  95.3250012  52.7204997  47.5309988  96.2710012  52.5764997  47.5119988
  95.2130012  53.5044997  48.0679988  95.4392727  52.8068046  47.6010072
 113.5230012  53.3864997  53.2129988 113.4740012  52.4314997  53.1759988
 112.6960012  53.6544997  53.6139988 113.4044940  53.2918998  53.2621375
 104.5020012  52.9604997  52.0889988 104.5890012  53.7864997  52.5639988
 103.6380012  52.6304997  52.3379988 104.3971964  53.0289878  52.1876549
 104.9160012  56.7324997  41.8949988 104.8410012  56.6114997  40.9489988
 104.9490012  57.6824997  42.0139988 104.9101848  56.8442500  41.7814834
  98.5690012  55.5214997  43.6759988  98.7220012  55.1734997  44.5549988
  97.7190012  55.1654997  43.4209988  98.4748962  55.4256650  43.7618340
 108.0180012  55.8864997  38.8969988 108.3930012  55.1424997  38.4269988
 108.0220012  55.6164997  39.8159988 108.0698915  55.7481486  38.9567824
 107.6870012  55.8124997  41.6469988 106.7510012  55.9124997  41.8249988
 107.9670012  55.1034997  42.2249988 107.5968255  55.7302711  41.7495391
 110.6750012  44.8794997  53.6929988 110.2680012  45.3604997  52.9719988
 110.7160012  43.9744997  53.3849988 110.6248437  44.8229374  53.5526683
  97.8240012  51.2634997  51.6899988  98.0400012  50.9024997  52.5489988
  96.9690012  50.8894997  51.4799988  97.7379292  51.1634111  51.7793386
 100.4430012  39.7334997  47.6849988  99.5810012  39.6464997  47.2779988
 100.4200012  40.5894997  48.1129988 100.3220330  39.8372765  47.6871863
 105.1060012  39.4554997  51.0599988 105.5260012  39.0404997  51.8129988
 104.1730012  39.2774997  51.1769988 105.0373644  39.3745900  51.1789539
 108.4320012  43.2114997  51.9129988 107.9180012  43.0854997  52.7109988
 108.2770012  44.1234997  51.6689988 108.3406852  43.3176132  51.9892158
 109.1950012  48.0724997  37.6749988 109.2370012  47.8494997  36.7449988
 110.0440012  48.4714997  37.8649988 109.3155396  48.0959155  37.5733627
 104.7670012  41.9484997  38.3449988 104.5140012  41.9674997  39.2679988
 104.5110012  41.0764997  38.0439988 104.6977790  41.8332437  38.4306263
 100.5340012  44.6994997  48.7799988  99.8920012  44.6584997  49.4889988
 100.5710012  45.6254997  48.5429988 100.4511324  44.8191559  48.8449824
 100.5310012  44.9204997  43.6919988  99.6380012  44.5794997  43.6339988
 100.9810012  44.5434997  42.9369988 100.4697305  44.8228484  43.5819177
 106.0660012  45.3364997  42.5089988 105.6570012  46.1514997  42.2179988
 106.7870012  45.1964997  41.8949988 106.1074537  45.4292018  42.3861342
 105.1680012  45.5114997  53.9969988 104.6060012  44.8074997  54.3179988
 105.9950012  45.3914997  54.4649988 105.2027095  45.3987883  54.1042330
 107.0710012  44.7824997  45.3229988 106.8760012  45.3874997  44.6079988
 107.2520012  43.9484997  44.8889988 107.0687614  44.7526300  45.1664405
  98.2840012  45.0194997  50.6469988  98.2460012  45.4194997  51.5159988
  97.7930012  44.2024997  50.7379988  98.2124684  44.9638069  50.7781059
 101.6500012  42.3934997  37.4459988 101.2190012  41.9484997  38.1759988
 100.9320012  42.7654997  36.9339988 101.4939438  42.3828940  37.4766799
  94.8920012  42.1354997  44.4979988  95.5230012  42.1064997  45.2169988
  95.3410012  41.7104997  43.7679988  95.0390774  42.0740492  44.4976553
  96.1660012  42.8814997  39.9219988  96.6400012  43.4724997  39.3369988
  95.4490012  43.4124997  40.2689988  96.1339341  43.0340867  39.8888836
 106.3350012  46.4204997  49.9949988 106.6580012  45.7894997  49.3519988
 105.8950012  45.8854997  50.6549988 106.3196895  46.2618441  49.9962850
 103.1120012  42.3474997  44.7789988 102.2010012  42.4044997  45.0669988
 103.6180012  42.2874997  45.5889988 103.0555413  42.3471985  44.9280622
  97.9410012  43.9764997  43.6049988  97.0510012  44.0764997  43.2649988
  98.2370012  43.1344997  43.2589988  97.8592823  43.8763545  43.5117213
 101.5940012  43.9764997  41.2619988 102.5250012  44.1054997  41.4399988
 101.3790012  44.6464997  40.6119988 101.6924247  44.0846565  41.1985747
 107.5170012  41.5824997  48.0429988 106.8410012  41.7134997  48.7069988
 107.0320012  41.4274997  47.2329988 107.3587145  41.5794905  48.0244517
 100.2680012  45.1714997  38.8289988  99.7250012  44.7914997  38.1369988
 101.1010012  45.3654997  38.3999988 100.3064399  45.1458124  38.6764526
 110.8050012  57.2544997  54.3199988 111.0050012  57.6784997  53.4849988
 111.4600012  57.5974997  54.9269988 110.9210051  57.3589648  54.2877836
  98.4030012  49.7284997  53.9279988  99.1350012  49.9824997  54.4889988
  97.6230012  49.9324997  54.4429988  98.3978232  49.7909177  54.0745760
 104.4320012  45.1354997  46.6659988 104.9970012  44.5884997  46.1189988
 104.2850012  44.6134997  47.4539988 104.4892918  44.9902024  46.6978454
  99.4340012  41.2714997  43.0839988  99.1170012  40.3694997  43.0489988
 100.2160012  41.2734997  42.5309988  99.4962284  41.1481628  43.0044783
 103.0590012  43.5234997  49.0799988 102.2230012  43.9774997  49.1899988
 103.5830012  43.7994997  49.8319988 103.0154414  43.6229376  49.1967136
 103.6030012  49.7364997  40.7639988 102.8580012  49.2294997  40.4419988
 103.4690012  49.7854997  41.7109988 103.4828776  49.6736940  40.8478647
 110.7530012  48.8694997  49.5509988 111.3950012  49.3264997  49.0069988
 109.9230012  48.9824997  49.0879988 110.7285963  48.9472704  49.4140177
 107.5010012  42.5504997  38.9639988 106.5620012  42.6624997  38.8119988
 107.7980012  43.4074997  39.2699988 107.4127666  42.6816443  38.9845768
 105.1220012  49.9204997  52.0009988 104.7770012  49.5394997  52.8079988
 104.9220012  50.8544997  52.0729988 105.0478061  49.9945228  52.1210961
 108.2190012  44.4174997  40.6239988 109.1110012  44.2804997  40.9429988
 108.2760012  45.2084997  40.0879988 108.3486285  44.5056660  40.5951690
  98.7280012  49.0314997  46.5339988  99.4730012  49.0294997  45.9329988
  98.8060012  48.2084997  47.0159988  98.8405518  48.9199315  46.5168929
 105.7290012  51.1954997  39.7899988 105.4330012  52.0214997  40.1709988
 105.0260012  50.5754997  39.9859988 105.5934914  51.2248199  39.8686443
  95.7360012  47.4924997  51.8489988  95.9590012  47.0744997  52.6809988
  95.1340012  46.8794997  51.4259988  95.6851759  47.3524668  51.9057022
 102.7520012  47.0094997  54.0619988 102.4560012  46.8434997  53.1669988
 103.6840012  46.7894997  54.0509988 102.8374166  46.9570640  53.9380536
 107.3730012  52.3824997  51.9519988 106.4720012  52.5654997  51.6839988
 107.4070012  52.6414997  52.8729988 107.2543041  52.4425512  52.0398197
 113.1040012  44.6274997  40.3189988 112.5500012  44.2314997  39.6469988
 113.2040012  45.5374997  40.0409988 113.0417059  44.6963586  40.1894401
 113.0670012  50.4274997  53.1559988 112.2160012  50.6654997  52.7889988
 113.6580012  50.4104997  52.4029988 113.0302487  50.4578258  53.0038893
 111.3990012  53.4134997  40.7839988 111.0260012  52.5874997  41.0929988
 111.6770012  53.2304997  39.8869988 111.3855630  53.2757303  40.7049626
 108.5600012  48.2214997  47.8049988 107.6310012  47.9894997  47.7779988
 109.0110012  47.4444997  47.4749988 108.4939216  48.0847238  47.7566917
 101.1030012  52.5494997  43.9379988 101.6300012  53.3224997  43.7379988
 100.2230012  52.7744997  43.6369988 101.0561773  52.6858005  43.8699010
  96.8580012  47.4114997  38.5249988  97.4740012  48.0384997  38.9049988
  95.9960012  47.7274997  38.7969988  96.8257698  47.5399430  38.6137183
 102.5300012  50.2124997  43.5149988 102.2890012  51.1374997  43.5559988
 101.7890012  49.7534997  43.9109988 102.3968409  50.2771421  43.5741377
 103.0450012  54.3614997  49.8299988 103.4070012  55.2164997  49.5959988
 103.5760012  54.0694997  50.5699988 103.1664473  54.4391060  49.8980855
 101.2130012  55.2344997  43.0599988 100.2630012  55.3394997  43.1109988
 101.5650012  56.0544997  43.4049988 101.1304203  55.3598314  43.1136650
 106.5890012  50.4604997  49.5299988 106.1630012  50.2334997  50.3569988
 107.1690012  49.7224997  49.3479988 106.6091868  50.3295299  49.6185830
 108.7920012  51.3894997  38.6039988 109.1450012  51.0094997  39.4089988
 107.8430012  51.2964997  38.6909988 108.7120441  51.3249596  38.7258559
 109.2470012  55.0124997  51.9999988 108.6460012  54.4574997  51.5039988
 109.5290012  55.6794997  51.3739988 109.2028519  55.0266841  51.8474952
 113.2950012  55.8694997  38.8049988 114.0390012  56.4554997  38.6649988
 112.6010012  56.4374997  39.1389988 113.3030292  56.0265582  38.8309961
  97.3700012  42.2454997  51.4069988  96.4770012  42.5844997  51.3389988
  97.2710012  41.3904997  51.8249988  97.2344164  42.1762588  51.4542235
 109.6580012  50.0624997  40.8309988 109.3800012  49.3344997  41.3869988
 110.5850012  50.1814997  41.0359988 109.7453124  49.9788802  40.9348845
  97.0210012  54.0504997  49.8419988  97.2380012  53.1184997  49.8109988
  97.2670012  54.3244997  50.7249988  97.0839549  53.9600636  49.9571763
 102.8830012  52.5014997  37.0509988 103.1220012  51.7534997  36.5039988
 102.6140012  52.1134997  37.8839988 102.8793675  52.3466638  37.0886865
 101.8200012  52.0714997  39.5079988 101.9660012  51.5514997  40.2979988
 101.8170012  52.9784997  39.8139988 101.8395989  52.1228853  39.6576088
  98.2730012  49.3244997  40.0179988  97.5870012  49.6764997  40.5849988
  98.7950012  50.0874997  39.7709988  98.2496852  49.4758578  40.0622118
 106.1040012  41.9864997  50.2969988 106.8030012  42.0604997  50.9469988
 105.7230012  41.1224997  50.4509988 106.1481767  41.8797624  50.4068322
 106.8890012  41.6384997  41.3939988 107.1090012  42.1104997  40.5909988
 107.4470012  42.0334997  42.0639988 106.9944968  41.7564285  41.3747331
 104.5570012  53.7694997  40.2569988 103.7410012  54.2664997  40.3089988
 105.0870012  54.2444997  39.6169988 104.5169161  53.9017722  40.1775956
 104.0890012  43.3664997  42.2289988 104.9010012  43.8714997  42.2749988
 103.8440012  43.2214997  43.1429988 104.1670520  43.4160375  42.3588517
 104.6240012  44.3524997  51.4139988 104.7430012  44.9264997  52.1709988
 105.2800012  43.6644997  51.5279988 104.7289757  44.3381079  51.5330825
 104.9720012  40.4474997  43.1669988 104.6260012  41.0654997  43.8119988
 105.6310012  40.9484997  42.6859988 105.0137826  40.5995802  43.1900971
 101.8960012  54.8134997  40.2389988 102.0560012  55.6124997  39.7379988
 101.6980012  55.1194997  41.1239988 101.8911649  54.9644469  40.2899815
 100.6300012  41.5104997  39.8539988 100.5470012  42.3994997  40.2009988
 101.5200012  41.2454997  40.0859988 100.7389469  41.5961430  39.9327626
 110.8290012  42.2594997  52.2489988 109.9120012  42.5224997  52.1609988
 111.1640012  42.2564997  51.3519988 110.7489900  42.2950224  52.1157919
 109.4310012  46.0104997  46.3439988 108.6330012  45.5954997  46.0159988
 109.8760012  45.3194997  46.8349988 109.3819885  45.8603543  46.3654889
  98.8890012  51.9384997  38.9149988  99.4810012  52.6374997  39.1909988
  99.3480012  51.5054997  38.1949988  99.0321142  51.9757049  38.8554830
  97.2050012  44.6024997  38.0309988  97.1600012  45.5414997  38.2089988
  96.3170012  44.3664997  37.7609988  97.0788574  44.6991892  38.0188912
 110.5170012  55.2664997  47.9669988 110.3620012  55.9444997  47.3099988
 111.4500012  55.3384997  48.1699988 110.6218500  55.3690170  47.9045119
  98.0130012  39.3844997  46.7039988  97.7840012  39.4434997  45.7759988
  97.5700012  38.5924997  47.0099988  97.9218530  39.2855753  46.6184786
  96.9430012  53.3244997  42.8639988  96.1110012  53.7974997  42.8919988
  97.4890012  53.8344997  42.2659988  96.9029739  53.4581871  42.7869716
  96.2310012  55.9374997  54.1939988  96.7720012  55.7204997  54.9539988
  95.7500012  55.1314997  54.0049988  96.2399345  55.7989514  54.2723076
 100.8290012  54.8564997  55.8149988 101.5960012  54.3974997  56.1559988
 100.8070012  54.6304997  54.8849988 100.9311434  54.7630409  55.7360043
 104.9210012  54.3644997  37.1899988 104.2770012  53.7334997  37.5109988
 105.6830012  53.8334997  36.9579988 104.9358077  54.2062920  37.2026011
 107.4060012  53.2364997  54.5439988 107.0550012  52.3804997  54.7869988
 108.1320012  53.3794997  55.1509988 107.4560769  53.1385636  54.6593619
 109.5250012  54.1814997  37.4239988 109.8080012  53.3874997  37.8759988
 110.2650012  54.4144997  36.8629988 109.6637486  54.1042803  37.4100698
  96.1380012  49.7474997  55.1489988  96.2820012  48.8454997  54.8619988
  95.3660012  50.0334997  54.6609988  96.0533322  49.6628261  55.0437881
 100.4800012  50.0914997  37.2809988 100.5440012  49.2974997  37.8119988
 101.1330012  49.9724997  36.5909988 100.5770241  49.9667148  37.2604317
 102.7940012  49.7174997  54.5809988 102.4650012  49.9884997  53.7239988
 102.9460012  48.7764997  54.4939988 102.7694809  49.6273862  54.4518244
 105.8320012  51.1384997  37.0169988 105.5630012  51.3184997  37.9179988
 105.6260012  50.2124997  36.8859988 105.7673825  51.0380152  37.1225214
 108.5280012  49.6334997  51.9649988 109.2740012  50.2214997  51.8449988
 107.7710012  50.2154997  52.0279988 108.5277554  49.7927011  51.9570907
  96.9710012  46.9474997  54.5689988  97.3790012  46.0904997  54.4479988
  96.7110012  46.9624997  55.4899988  96.9917568  46.8320807  54.6769588
 101.6290012  48.0634997  39.5869988 101.1690012  47.5794997  40.2729988
 101.8840012  47.3954997  38.9509988 101.6004902  47.9068731  39.5949334
 100.9180012  45.9564997  51.9429988 100.3000012  46.6314997  52.2229988
 101.2620012  46.2774997  51.1099988 100.8799615  46.0922721  51.8686581
 102.7000012  46.3064997  37.8489988 102.5200012  46.1524997  36.9219988
 103.6500012  46.4144997  37.8939988 102.8037776  46.3000175  37.7281843
 105.9380012  48.4284997  55.2199988 106.8910012  48.5114997  55.1929988
 105.7770012  47.7164997  55.8399988 106.0466426  48.3436746  55.3000579
 112.0900012  48.6614997  37.2949988 111.8160012  48.2364997  36.4819988
 112.1290012  49.5924997  37.0779988 112.0577699  48.7292484  37.1543610
 101.2570012  43.3114997  53.0249988 101.4070012  42.5824997  52.4229988
 101.2600012  44.0884997  52.4659988 101.2779302  43.3167851  52.8670692
 101.6700012  41.6814997  50.5179988 102.2060012  42.1324997  49.8659988
 100.8180012  41.5734997  50.0949988 101.6282178  41.7286390  50.3715756
 103.2520012  47.1204997  50.7569988 104.0020012  46.9644997  50.1839988
 102.9130012  47.9724997  50.4819988 103.3088921  47.2142968  50.6413561
 107.6670012  44.9354997  55.7859988 107.8600012  44.0044997  55.6739988
 108.5250012  45.3604997  55.7759988 107.8093020  44.8656389  55.7693361
 108.9840012  47.7244997  53.8629988 108.7030012  48.4334997  53.2859988
 109.9270012  47.6514997  53.7119988 109.0729027  47.8117646  53.7635551
  99.7360012  44.5094997  54.9369988  98.9690012  43.9774997  54.7269988
 100.4150012  44.1994997  54.3369988  99.7227022  44.3947506  54.8271648
 102.4760012  39.1374997  50.9489988 102.3770012  40.0844997  50.8439988
 101.7330012  38.7654997  50.4739988 102.3620563  39.2165902  50.8704560
 103.7400012  43.4594997  54.5129988 103.5040012  43.2394997  55.4149988
 102.9560012  43.2524997  54.0029988 103.6018628  43.4014760  54.5673932
 106.4550012  42.5864997  53.5889988 105.5080012  42.6184997  53.7209988
 106.7680012  41.9614997  54.2419988 106.3675475  42.5063207  53.6954455
 108.0890012  41.2204997  55.5939988 107.9930012  40.2684997  55.5879988
 107.7680012  41.4894997  56.4539988 108.0324070  41.1264035  55.7095441
  97.9160012  42.4304997  54.6409988  98.1280012  41.7234997  54.0309988
  97.8050012  41.9924997  55.4849988  97.9299721  42.2747084  54.6716843
 102.6970012  38.4314997  53.6209988 103.4090012  37.7914997  53.6069988
 102.5960012  38.6984997  52.7069988 102.7807939  38.3799938  53.4955650
 103.0510012  40.1144997  55.6739988 102.9190012  39.6384997  54.8539988
 102.4520012  40.8584997  55.6189988 102.9519071  40.1499618  55.5542886
 102.5970012  56.9974997  38.8509988 103.5300012  57.1554997  38.9939988
 102.3330012  57.6724997  38.2259988 102.6889510  57.1103611  38.7860741
  96.1660012  51.6334997  38.3329988  97.0800012  51.7124997  38.6069988
  96.1730012  50.9464997  37.6669988  96.2921131  51.5513961  38.2804393
  94.8150012  57.0264997  43.4109988  94.1680012  56.5644997  42.8779988
  95.1690012  56.3544997  43.9929988  94.7743849  56.8724723  43.4167959
  95.6850012  55.1074997  45.2149988  95.3500012  54.2274997  45.3869988
  95.9070012  55.4524997  46.0799988  95.6691783  55.0337500  45.3554208
 113.2330012  55.9164997  48.1959988 113.2120012  56.1014997  49.1349988
 113.9240012  56.4854997  47.8549988 113.3234618  56.0186606  48.2783864
 112.7970012  55.4844997  51.1179988 112.3090012  54.7484997  50.7469988
 113.3460012  55.0904997  51.7959988 112.8044872  55.3306249  51.1589160
 111.2470012  51.2734997  55.7559988 110.3810012  51.1684997  56.1499988
 111.6240012  52.0324997  56.2019988 111.1793308  51.3616900  55.8702393
 112.5480012  49.5304997  41.2699988 113.3980012  49.9514997  41.3969988
 112.5540012  48.7904997  41.8769988 112.6651372  49.4880803  41.3694344
 112.9430012  47.5834997  43.0939988 112.2160012  47.1044997  43.4909988
 113.5240012  47.7894997  43.8259988 112.9219375  47.5457090  43.2474129
 112.7020012  50.3684997  48.0409988 113.5350012  49.9904997  47.7609988
 112.8140012  51.3114997  47.9219988 112.8312647  50.4442218  47.9865487
 111.1880012  53.2464997  50.3479988 110.5410012  53.5714997  50.9739988
 110.6710012  52.8064997  49.6739988 111.0294029  53.2315004  50.3425827
 113.2110012  47.4844997  39.4849988 112.6890012  47.8414997  38.7659988
 113.1780012  48.1594997  40.1629988 113.1351634  47.6245413  39.4783145
 111.5600012  44.7244997  38.0359988 111.6560012  45.3914997  37.3549988
 111.4200012  43.9084997  37.5539988 111.5542135  44.7054500  37.8778491
 110.7290012  46.1044997  43.6569988 110.5790012  45.1594997  43.6359988
 110.3760012  46.3854997  44.4999988 110.6606625  46.0130441  43.7682346
  95.7650012  48.1824997  47.6669988  95.9490012  48.1004997  46.7309988
  96.6140012  48.0584997  48.0909988  95.9050139  48.1545003  47.5961455
 111.5860012  48.0744997  53.2949988 112.1690012  47.3404997  53.4869988
 112.1500012  48.8464997  53.3419988 111.7419769  48.0784227  53.3276159
 113.0820012  45.9774997  53.9799988 112.2190012  45.5984997  53.8139988
 113.6870012  45.2384997  53.9059988 113.0455979  45.8258023  53.9472817
 110.8070012  42.1324997  37.1529988 111.4180012  41.7614997  37.7899988
 109.9710012  41.7114997  37.3489988 110.7775032  42.0247554  37.2667035
 110.4400012  43.6874997  42.1189988 110.7200012  42.7804997  42.2429988
 111.1990012  44.1214997  41.7299988 110.5809277  43.6220942  42.0833682
 111.0520012  44.2684997  47.5549988 111.9850012  44.4804997  47.5209988
 110.8170012  44.3704997  48.4769988 111.1478036  44.3112769  47.6749976
 111.0810012  45.0054997  50.3309988 110.2380012  45.2734997  50.6969988
 111.5230012  45.8274997  50.1199988 111.0254158  45.1533291  50.3525491
  95.3620012  43.4534997  53.8079988  96.2820012  43.3314997  54.0439988
  94.9130012  42.7034997  54.1969988  95.4271580  43.3353727  53.8929006
 113.3640012  38.9854997  55.6839988 113.7140012  38.3314997  55.0789988
 113.5110012  39.8224997  55.2449988 113.4318419  39.0091591  55.5417118
 111.0530012  40.9504997  42.1669988 111.2360012  40.5014997  42.9929988
 110.4540012  40.3654997  41.7039988 110.9970202  40.8099975  42.2173275
  96.5830012  41.7654997  46.6989988  97.0290012  40.9734997  47.0009988
  97.0500012  42.4814997  47.1299988  96.7070172  41.7540624  46.7984820
  94.8870012  44.7644997  47.7679988  95.3790012  44.5434997  46.9769988
  95.2500012  45.6054997  48.0489988  95.0033126  44.8478357  47.6977531
 112.8840012  41.0944997  54.0339988 111.9660012  41.3654997  53.9979988
 113.0070012  40.5594997  53.2489988 112.7751066  41.0592892  53.9230487
 112.9200012  41.0174997  38.6949988 113.3320012  40.2964997  38.2199988
 113.6020012  41.6874997  38.7539988 113.0685885  41.0092368  38.6378915
  95.2010012  41.0224997  41.8219988  94.2760012  41.2314997  41.6929988
  95.6550012  41.5064997  41.1329988  95.1357368  41.1165993  41.7111226
 109.9720012  56.0064997  43.7679988 110.6240012  55.6594997  43.1599988
 110.4820012  56.4954997  44.4139988 110.1302637  56.0250597  43.7720236
  95.1650012  39.7604997  50.1669988  94.5000012  39.5144997  50.8099988
  94.7220012  40.3824997  49.5889988  95.0140956  39.8108632  50.1769352
  97.3570012  52.9354997  54.3109988  96.5360012  53.1104997  53.8509988
  97.1040012  52.8624997  55.2319988  97.2106164  52.9495622  54.3724923
 100.3110012  53.9104997  50.5699988  99.8860012  54.7194997  50.2869988
 101.2150012  53.9954997  50.2679988 100.3750271  54.0328469  50.4903776
 104.6220012  55.3094997  53.5289988 104.8070012  54.9754997  54.4069988
 105.4680012  55.6184997  53.2069988 104.7617539  55.3056047  53.6055605
 106.9670012  56.5954997  52.7729988 107.6440012  55.9624997  52.5329988
 107.2890012  56.9964997  53.5799988 107.1031637  56.5631154  52.8492793
 111.8840012  39.1844997  51.8529988 111.0720012  39.5094997  51.4649988
 112.1170012  38.4244997  51.3199988 111.8043423  39.1262436  51.7278253
  97.7130012  57.1664997  50.6169988  96.9920012  57.6064997  50.1659988
  97.3470012  56.9154997  51.4659988  97.5649804  57.1927698  50.6699840
 100.1800012  56.7664997  49.6469988  99.3150012  56.8384997  50.0509988
 100.1250012  57.3134997  48.8629988 100.0542085  56.8502685  49.5963362
 104.8900012  56.6544997  48.8219988 104.4340012  57.1834997  48.1679988
 105.0530012  57.2574997  49.5479988 104.8495585  56.8084468  48.8305062
 107.2180012  55.5324997  49.7669988 106.3130012  55.6974997  49.5019988
 107.6470012  56.3854997  49.7019988 107.1520799  55.6704483  49.7219182
 109.8220012  57.1024997  50.0619988 109.6400012  58.0184997  49.8519988
 109.9990012  56.6924997  49.2159988 109.8210210  57.1724822  49.9187885
  97.1270012  55.7894997  47.5269988  97.1090012  55.3644997  48.3849988
  97.9320012  55.4714997  47.1189988  97.2333875  55.6883812  47.5891655
  99.2690012  54.4994997  46.1819988  99.0500012  53.5834997  46.3519988
 100.0930012  54.6394997  46.6479988  99.3504420  54.3930520  46.2682774
 101.8060012  54.9694997  47.0309988 102.0190012  54.0814997  46.7439988
 101.8700012  54.9354997  47.9849988 101.8438232  54.8433102  47.1207397
 105.3140012  40.6334997  46.1749988 104.6400012  40.0044997  46.4309988
 105.8780012  40.1494997  45.5719988 105.2979230  40.4818744  46.1285340
 110.4570012  38.7414997  46.2879988 111.0610012  39.2884997  45.7859988
 109.5870012  39.0604997  46.0479988 110.4221241  38.8595806  46.1867654
 112.1840012  39.8794997  44.6209988 112.7960012  39.3654997  44.0949988
 112.5660012  40.7574997  44.6449988 112.3194540  39.9277140  44.5521830
  97.6410012  39.2674997  43.9969988  96.8640012  39.0334997  43.4899988
  98.1710012  38.4704997  44.0059988  97.6062330  39.1276988  43.9287742
  96.4770012  39.0654997  39.8009988  96.9160012  39.6764997  39.2089988
  95.8440012  39.6034997  40.2749988  96.4514514  39.2219257  39.7840930
 102.2200012  39.1944997  43.8109988 103.0950012  39.5824997  43.7809988
 102.0840012  38.9794997  44.7329988 102.3213695  39.2185184  43.9316440
 107.7770012  39.2244997  45.4599988 107.8530012  39.3194997  44.5099988
 107.5020012  38.3164997  45.5889988 107.7502321  39.1147867  45.3475079
 109.1300012  39.2504997  41.1519988 108.4280012  39.8654997  40.9429988
 108.6860012  38.4124997  41.2829988 108.9736330  39.2215783  41.1410328
  96.3780012  55.0134997  40.6989988  95.6930012  54.9754997  40.0309988
  96.3820012  55.9264997  40.9869988  96.2848193  55.1317016  40.6465284
  98.3380012  40.9814997  38.2429988  98.8300012  40.3514997  37.7159988
  98.9620012  41.2774997  38.9069988  98.4895446  40.9353199  38.2605980
 103.3640012  41.2744997  40.6999988 103.5420012  40.6284997  41.3829988
 103.3110012  42.1084997  41.1679988 103.3811829  41.2987985  40.8565940
 105.2430012  56.2234997  39.0959988 106.1090012  56.5894997  38.9179988
 104.9960012  55.7834997  38.2819988 105.3282392  56.2141756  38.9616289
 111.9520012  55.7864997  41.7749988 111.7570012  55.0384997  41.2099988
 111.9130012  56.5444997  41.1919988 111.9200380  55.7866099  41.6188384
  97.5990012  39.7814997  53.5149988  97.2330012  39.0164997  53.9579988
  98.5120012  39.8104997  53.8019988  97.6722790  39.6807224  53.6144070
  99.5720012  39.1324997  55.0509988 100.4700012  38.8584997  54.8659988
  99.1850012  38.3894997  55.5149988  99.6426612  38.9945914  55.0883643
  98.1960012  55.9334997  37.7239988  97.9290012  56.2204997  38.5969988
  98.9680012  55.3874997  37.8759988  98.2637488  55.8990294  37.8641050
 107.9930012  38.4644997  55.2329988 108.0700012  38.0384997  56.0869988
 108.8870012  38.4784997  54.8899988 108.1243428  38.4080880  55.3035310
 111.1690012  54.5374997  53.9249988 110.3870012  54.3514997  53.4059988
 111.0970012  55.4664997  54.1429988 111.0521777  54.6376492  53.8834048
 125.5750012  48.4234997  43.9559988 125.6640012  49.3674997  43.8239988
 124.9370012  48.1484997  43.2979988 125.5009081  48.5154830  43.8489614
 124.5080012  47.6784997  47.3749988 124.4700012  47.0324997  48.0799988
 124.1860012  47.2124997  46.6039988 124.4592333  47.5269408  47.3672978
 116.8770012  47.2934997  48.9679988 116.9180012  46.6674997  49.6909988
 117.5800012  47.9174997  49.1499988 116.9776363  47.2921196  49.0916044
 128.2140012  50.6174997  45.6759988 127.7740012  49.8974997  46.1269988
 128.2010012  51.3384997  46.3059988 128.1520226  50.6163731  45.8228494
 117.8000012  51.7434997  47.5029988 117.4310012  50.9414997  47.1329988
 118.7410012  51.5744997  47.5489988 117.8767289  51.6110153  47.4586316
 114.4100012  45.4034997  42.8959988 113.9630012  46.2494997  42.8769988
 113.8490012  44.8234997  42.3799988 114.2729900  45.4409916  42.8236801
 115.1210012  47.5654997  45.0219988 115.3340012  46.7954997  45.5489988
 115.8590012  47.6544997  44.4179988 115.2498496  47.4721394  45.0125300
 125.3260012  55.7224997  45.8889988 125.9460012  55.0454997  45.6149988
 125.1180012  55.5044997  46.7969988 125.3826904  55.6003870  45.9743365
 122.8980012  50.1114997  47.7809988 123.2020012  49.4254997  47.1859988
 123.6190012  50.2294997  48.3989988 123.0370671  50.0336305  47.7831816
 131.5610012  41.7124997  48.6419988 131.6100012  42.3224997  49.3779988
 131.9860012  42.1734997  47.9189988 131.6251824  41.8583741  48.6450205
 126.0390012  44.5054997  48.1089988 126.1810012  43.5594997  48.1289988
 125.9320012  44.7124997  47.1799988 126.0439864  44.4039534  47.9862339
 119.1930012  42.6064997  45.3809988 119.2370012  43.4664997  44.9629988
 118.7360012  42.0544997  44.7469988 119.1372185  42.6495799  45.2380299
 126.9160012  42.7374997  43.7819988 127.5620012  42.4084997  44.4069988
 127.4260012  43.2554997  43.1589988 127.0734264  42.7624611  43.7833862
 115.8140012  45.0034997  46.1429988 116.4670012  44.4534997  46.5749988
 115.8380012  44.7294997  45.2259988 115.9066683  44.8911466  46.0782123
 120.9700012  46.5534997  45.3579988 121.5860012  46.0274997  45.8679988
 120.3840012  45.9134997  44.9549988 120.9750810  46.3949208  45.3733173
 131.9520012  43.1904997  50.8779988 131.2640012  43.8484997  50.7819988
 131.9680012  42.9934997  51.8139988 131.8598525  43.2540462  50.9914808
 118.0040012  41.5244997  49.4549988 117.7850012  42.0544997  48.6889988
 117.3360012  41.7514997  50.1019988 117.8837600  41.6276906  49.4376379
 125.3730012  51.0244997  42.9989988 125.0770012  50.7024997  42.1479988
 125.0480012  51.9244997  43.0399988 125.2886371  51.1020215  42.8881801
 120.5730012  49.2004997  49.7419988 119.8330012  49.7984997  49.8459988
 121.2870012  49.7544997  49.4269988 120.5682237  49.3572831  49.7136465
 128.6800012  42.0284997  45.7619988 128.4640012  41.2624997  46.2949988
 129.3350012  42.5004997  46.2749988 128.7390632  41.9875889  45.9042861
 117.5970012  43.4164997  47.4069988 118.2110012  44.0494997  47.7809988
 118.1090012  42.9444997  46.7509988 117.7502296  43.4392370  47.3694252
 118.9800012  51.1644997  50.5299988 118.9750012  52.0444997  50.1519988
 118.1270012  51.0814997  50.9549988 118.8639464  51.2736117  50.5357907
 115.1010012  50.8354997  41.3119988 114.8290012  51.0644997  40.4229988
 115.1470012  51.6734997  41.7719988 115.0700094  50.9801213  41.2525697
 128.7260012  52.4574997  48.0239988 127.7850012  52.5154997  48.1859988
 129.0030012  53.3634997  47.8869988 128.6344679  52.5879443  48.0276815
 129.0270012  40.7434997  49.4419988 128.2910012  41.3544997  49.4039988
 129.7100012  41.1584997  48.9149988 129.0186541  40.8831374  49.3655832
 122.0300012  38.8304997  46.9079988 121.9130012  37.8814997  46.8529988
 121.1750012  39.1624997  47.1809988 121.8983733  38.7455409  46.9373897
 126.9780012  54.2384997  44.6499988 127.4040012  53.5314997  44.1649988
 127.2950012  55.0394997  44.2329988 127.0791019  54.2500994  44.5273130
 128.1380012  52.1394997  43.1579988 127.8800012  51.4494997  42.5469988
 128.2090012  51.6964997  44.0039988 128.1122856  51.9852124  43.1886885
 129.8240012  50.7054997  51.6359988 129.9640012  50.1144997  50.8959988
 129.9910012  51.5784997  51.2789988 129.8656778  50.7426426  51.4866965
 124.2970012  47.6674997  41.4079988 123.5850012  48.2024997  41.0559988
 124.9880012  47.7234997  40.7479988 124.2930132  47.7482543  41.2706289
 124.3500012  46.1254997  38.4469988 125.0510012  46.1474997  39.0979988
 124.6530012  45.4974997  37.7909988 124.4867830  46.0436566  38.4473711
 131.6660012  47.0454997  49.7019988 131.0130012  47.7404997  49.7909988
 132.1310012  47.2554997  48.8919988 131.6395390  47.1689425  49.6046883
 127.7020012  47.8774997  42.3599988 126.9700012  48.1054997  42.9329988
 128.1500012  47.1634997  42.8149988 127.6623095  47.8122571  42.4999119
 127.6000012  46.0514997  51.4269988 127.6800012  46.8144997  51.9989988
 126.9980012  46.3304997  50.7369988 127.5295756  46.1937134  51.4120589
 119.3480012  48.5074997  44.2419988 119.0170012  48.1374997  43.4239988
 119.9360012  47.8374997  44.5889988 119.3821873  48.3661156  44.1768102
 120.7140012  51.9354997  46.9239988 120.6200012  51.3574997  46.1669988
 121.4440012  51.5644997  47.4199988 120.7997981  51.8062390  46.8874165
 119.7140012  47.2764997  47.8759988 120.2800012  47.3974997  47.1129988
 120.0330012  47.9134997  48.5149988 119.8345786  47.3791884  47.8580040
 126.0230012  52.7794997  48.6099988 125.7830012  53.4414997  49.2579988
 125.8250012  51.9454997  49.0349988 125.9633808  52.7573134  48.7561524
 120.5940012  51.6754997  52.5929988 120.2830012  52.4574997  53.0479988
 119.9440012  51.5224997  51.9069988 120.4635558  51.7619105  52.5625871
 126.5730012  47.0394997  40.0449988 127.1530012  47.1894997  40.7919988
 126.9870012  47.5104997  39.3219988 126.7082830  47.1236841  40.0494134
 117.5140012  47.8734997  51.8219988 117.5850012  48.5244997  52.5199988
 116.6240012  47.9764997  51.4869988 117.4033117  47.9765936  51.8722700
 124.3000012  53.7764997  43.4799988 124.7740012  54.0714997  44.2579988
 123.7370012  54.5144997  43.2469988 124.2887653  53.9166932  43.5550136
 118.8340012  53.7474997  53.3559988 118.8410012  53.6114997  52.4089988
 117.9180012  53.6294997  53.6079988 118.7111714  53.7129430  53.2604666
 130.2720012  38.7894997  39.8579988 129.3720012  38.9284997  40.1529988
 130.5240012  39.6204997  39.4559988 130.1828702  38.9209074  39.8440205
 118.3380012  47.5774997  41.8319988 118.0460012  48.3454997  41.3409988
 117.6640012  46.9174997  41.6689988 118.2069081  47.5934406  41.7427340
 131.4610012  53.1554997  38.2339988 131.5350012  54.0944997  38.4049988
 132.3670012  52.8504997  38.1779988 131.5935100  53.2426722  38.2498119
 114.4310012  49.9404997  50.6469988 113.9300012  49.9124997  49.8319988
 114.4360012  49.0344997  50.9559988 114.3631526  49.8142278  50.5772872
 114.1810012  52.7204997  47.5309988 115.1270012  52.5764997  47.5119988
 114.0690012  53.5044997  48.0679988 114.2952727  52.8068046  47.6010072
 132.3790012  53.3864997  53.2129988 132.3300012  52.4314997  53.1759988
 131.5520012  53.6544997  53.6139988 132.2604940  53.2918998  53.2621375
 123.3580012  52.9604997  52.0889988 123.4450012  53.7864997  52.5639988
 122.4940012  52.6304997  52.3379988 123.2531964  53.0289878  52.1876549
 123.7720012  56.7324997  41.8949988 123.6970012  56.6114997  40.9489988
 123.8050012  57.6824997  42.0139988 123.7661848  56.8442500  41.7814834
 117.4250012  55.5214997  43.6759988 117.5780012  55.1734997  44.5549988
 116.5750012  55.1654997  43.4209988 117.3308962  55.4256650  43.7618340
 126.8740012  55.8864997  38.8969988 127.2490012  55.1424997  38.4269988
 126.8780012  55.6164997  39.8159988 126.9258915  55.7481486  38.9567824
 126.5430012  55.8124997  41.6469988 125.6070012  55.9124997  41.8249988
 126.8230012  55.1034997  42.2249988 126.4528255  55.7302711  41.7495391
 129.5310012  44.8794997  53.6929988 129.1240012  45.3604997  52.9719988
 129.5720012  43.9744997  53.3849988 129.4808437  44.8229374  53.5526683
 116.6800012  51.2634997  51.6899988 116.8960012  50.9024997  52.5489988
 115.8250012  50.8894997  51.4799988 116.5939292  51.1634111  51.7793386
 119.2990012  39.7334997  47.6849988 118.4370012  39.6464997  47.2779988
 119.2760012  40.5894997  48.1129988 119.1780330  39.8372765  47.6871863
 123.9620012  39.4554997  51.0599988 124.3820012  39.0404997  51.8129988
 123.0290012  39.2774997  51.1769988 123.8933644  39.3745900  51.1789539
 127.2880012  43.2114997  51.9129988 126.7740012  43.0854997  52.7109988
 127.1330012  44.1234997  51.6689988 127.1966852  43.3176132  51.9892158
 128.0510012  48.0724997  37.6749988 128.0930012  47.8494997  36.7449988
 128.9000012  48.4714997  37.8649988 128.1715396  48.0959155  37.5733627
 123.6230012  41.9484997  38.3449988 123.3700012  41.9674997  39.2679988
 123.3670012  41.0764997  38.0439988 123.5537790  41.8332437  38.4306263
 119.3900012  44.6994997  48.7799988 118.7480012  44.6584997  49.4889988
 119.4270012  45.6254997  48.5429988 119.3071324  44.8191559  48.8449824
 119.3870012  44.9204997  43.6919988 118.4940012  44.5794997  43.6339988
 119.8370012  44.5434997  42.9369988 119.3257305  44.8228484  43.5819177
 124.9220012  45.3364997  42.5089988 124.5130012  46.1514997  42.2179988
 125.6430012  45.1964997  41.8949988 124.9634537  45.4292018  42.3861342
 124.0240012  45.5114997  53.9969988 123.4620012  44.8074997  54.3179988
 124.8510012  45.3914997  54.4649988 124.0587095  45.3987883  54.1042330
 125.9270012  44.7824997  45.3229988 125.7320012  45.3874997  44.6079988
 126.1080012  43.9484997  44.8889988 125.9247614  44.7526300  45.1664405
 117.1400012  45.0194997  50.6469988 117.1020012  45.4194997  51.5159988
 116.6490012  44.2024997  50.7379988 117.0684684  44.9638069  50.7781059
 120.5060012  42.3934997  37.4459988 120.0750012  41.9484997  38.1759988
 119.7880012  42.7654997  36.9339988 120.3499438  42.3828940  37.4766799
 113.7480012  42.1354997  44.4979988 114.3790012  42.1064997  45.2169988
 114.1970012  41.7104997  43.7679988 113.8950774  42.0740492  44.4976553
 115.0220012  42.8814997  39.9219988 115.4960012  43.4724997  39.3369988
 114.3050012  43.4124997  40.2689988 114.9899341  43.0340867  39.8888836
 125.1910012  46.4204997  49.9949988 125.5140012  45.7894997  49.3519988
 124.7510012  45.8854997  50.6549988 125.1756895  46.2618441  49.9962850
 121.9680012  42.3474997  44.7789988 121.0570012  42.4044997  45.0669988
 122.4740012  42.2874997  45.5889988 121.9115413  42.3471985  44.9280622
 116.7970012  43.9764997  43.6049988 115.9070012  44.0764997  43.2649988
 117.0930012  43.1344997  43.2589988 116.7152823  43.8763545  43.5117213
 120.4500012  43.9764997  41.2619988 121.3810012  44.1054997  41.4399988
 120.2350012  44.6464997  40.6119988 120.5484247  44.0846565  41.1985747
 126.3730012  41.5824997  48.0429988 125.6970012  41.7134997  48.7069988
 125.8880012  41.4274997  47.2329988 126.2147145  41.5794905  48.0244517
 119.1240012  45.1714997  38.8289988 118.5810012  44.7914997  38.1369988
 119.9570012  45.3654997  38.3999988 119.1624399  45.1458124  38.6764526
 129.6610012  57.2544997  54.3199988 129.8610012  57.6784997  53.4849988
 130.3160012  57.5974997  54.9269988 129.7770051  57.3589648  54.2877836
 117.2590012  49.7284997  53.9279988 117.9910012  49.9824997  54.4889988
 116.4790012  49.9324997  54.4429988 117.2538232  49.7909177  54.0745760
 123.2880012  45.1354997  46.6659988 123.8530012  44.5884997  46.1189988
 123.1410012  44.6134997  47.4539988 123.3452918  44.9902024  46.6978454
 118.2900012  41.2714997  43.0839988 117.9730012  40.3694997  43.0489988
 119.0720012  41.2734997  42.5309988 118.3522284  41.1481628  43.0044783
 121.9150012  43.5234997  49.0799988 121.0790012  43.9774997  49.1899988
 122.4390012  43.7994997  49.8319988 121.8714414  43.6229376  49.1967136
 122.4590012  49.7364997  40.7639988 121.7140012  49.2294997  40.4419988
 122.3250012  49.7854997  41.7109988 122.3388776  49.6736940  40.8478647
 129.6090012  48.8694997  49.5509988 130.2510012  49.3264997  49.0069988
 128.7790012  48.9824997  49.0879988 129.5845963  48.9472704  49.4140177
 126.3570012  42.5504997  38.9639988 125.4180012  42.6624997  38.8119988
 126.6540012  43.4074997  39.2699988 126.2687666  42.6816443  38.9845768
 123.9780012  49.9204997  52.0009988 123.6330012  49.5394997  52.8079988
 123.7780012  50.8544997  52.0729988 123.9038061  49.9945228  52.1210961
 127.0750012  44.4174997  40.6239988 127.9670012  44.2804997  40.9429988
 127.1320012  45.2084997  40.0879988 127.2046285  44.5056660  40.5951691
 117.5840012  49.0314997  46.5339988 118.3290012  49.0294997  45.9329988
 117.6620012  48.2084997  47.0159988 117.6965518  48.9199315  46.5168929
 124.5850012  51.1954997  39.7899988 124.2890012  52.0214997  40.1709988
 123.8820012  50.5754997  39.9859988 124.4494914  51.2248199  39.8686443
 114.5920012  47.4924997  51.8489988 114.8150012  47.0744997  52.6809988
 113.9900012  46.8794997  51.4259988 114.5411759  47.3524668  51.9057022
 121.6080012  47.0094997  54.0619988 121.3120012  46.8434997  53.1669988
 122.5400012  46.7894997  54.0509988 121.6934166  46.9570640  53.9380536
 126.2290012  52.3824997  51.9519988 125.3280012  52.5654997  51.6839988
 126.2630012  52.6414997  52.8729988 126.1103041  52.4425512  52.0398197
 131.9600012  44.6274997  40.3189988 131.4060012  44.2314997  39.6469988
 132.0600012  45.5374997  40.0409988 131.8977059  44.6963586  40.1894401
 131.9230012  50.4274997  53.1559988 131.0720012  50.6654997  52.7889988
 132.5140012  50.4104997  52.4029988 131.8862487  50.4578258  53.0038893
 130.2550012  53.4134997  40.7839988 129.8820012  52.5874997  41.0929988
 130.5330012  53.2304997  39.8869988 130.2415630  53.2757303  40.7049626
 127.4160012  48.2214997  47.8049988 126.4870012  47.9894997  47.7779988
 127.8670012  47.4444997  47.4749988 127.3499216  48.0847238  47.7566917
 119.9590012  52.5494997  43.9379988 120.4860012  53.3224997  43.7379988
 119.0790012  52.7744997  43.6369988 119.9121773  52.6858005  43.8699010
 115.7140012  47.4114997  38.5249988 116.3300012  48.0384997  38.9049988
 114.8520012  47.7274997  38.7969988 115.6817698  47.5399430  38.6137183
 121.3860012  50.2124997  43.5149988 121.1450012  51.1374997  43.5559988
 120.6450012  49.7534997  43.9109988 121.2528409  50.2771421  43.5741377
 121.9010012  54.3614997  49.8299988 122.2630012  55.2164997  49.5959988
 122.4320012  54.0694997  50.5699988 122.0224473  54.4391060  49.8980855
 120.0690012  55.2344997  43.0599988 119.1190012  55.3394997  43.1109988
 120.4210012  56.0544997  43.4049988 119.9864203  55.3598314  43.1136650
 125.4450012  50.4604997  49.5299988 125.0190012  50.2334997  50.3569988
 126.0250012  49.7224997  49.3479988 125.4651868  50.3295299  49.6185830
 127.6480012  51.3894997  38.6039988 128.0010012  51.0094997  39.4089988
 126.6990012  51.2964997  38.6909988 127.5680441  51.3249596  38.7258559
 128.1030012  55.0124997  51.9999988 127.5020012  54.4574997  51.5039988
 128.3850012  55.6794997  51.3739988 128.0588519  55.0266841  51.8474952
 132.1510012  55.8694997  38.8049988 132.8950012  56.4554997  38.6649988
 131.4570012  56.4374997  39.1389988 132.1590292  56.0265582  38.8309961
 116.2260012  42.2454997  51.4069988 115.3330012  42.5844997  51.3389988
 116.1270012  41.3904997  51.8249988 116.0904164  42.1762588  51.4542235
 128.5140012  50.0624997  40.8309988 128.2360012  49.3344997  41.3869988
 129.4410012  50.1814997  41.0359988 128.6013124  49.9788802  40.9348845
 115.8770012  54.0504997  49.8419988 116.0940012  53.1184997  49.8109988
 116.1230012  54.3244997  50.7249988 115.9399549  53.9600636  49.9571763
 121.7390012  52.5014997  37.0509988 121.9780012  51.7534997  36.5039988
 121.4700012  52.1134997  37.8839988 121.7353675  52.3466638  37.0886865
 120.6760012  52.0714997  39.5079988 120.8220012  51.5514997  40.2979988
 120.6730012  52.9784997  39.8139988 120.6955989  52.1228853  39.6576088
 117.1290012  49.3244997  40.0179988 116.4430012  49.6764997  40.5849988
 117.6510012  50.0874997  39.7709988 117.1056852  49.4758578  40.0622118
 124.9600012  41.9864997  50.2969988 125.6590012  42.0604997  50.9469988
 124.5790012  41.1224997  50.4509988 125.0041767  41.8797624  50.4068322
 125.7450012  41.6384997  41.3939988 125.9650012  42.1104997  40.5909988
 126.3030012  42.0334997  42.0639988 125.8504968  41.7564285  41.3747331
 123.4130012  53.7694997  40.2569988 122.5970012  54.2664997  40.3089988
 123.9430012  54.2444997  39.6169988 123.3729161  53.9017722  40.1775956
 122.9450012  43.3664997  42.2289988 123.7570012  43.8714997  42.2749988
 122.7000012  43.2214997  43.1429988 123.0230520  43.4160375  42.3588517
 123.4800012  44.3524997  51.4139988 123.5990012  44.9264997  52.1709988
 124.1360012  43.6644997  51.5279988 123.5849757  44.3381079  51.5330825
 123.8280012  40.4474997  43.1669988 123.4820012  41.0654997  43.8119988
 124.4870012  40.9484997  42.6859988 123.8697826  40.5995802  43.1900971
 120.7520012  54.8134997  40.2389988 120.9120012  55.6124997  39.7379988
 120.5540012  55.1194997  41.1239988 120.7471649  54.9644469  40.2899815
 119.4860012  41.5104997  39.8539988 119.4030012  42.3994997  40.2009988
 120.3760012  41.2454997  40.0859988 119.5949469  41.5961430  39.9327626
 129.6850012  42.2594997  52.2489988 128.7680012  42.5224997  52.1609988
 130.0200012  42.2564997  51.3519988 129.6049900  42.2950224  52.1157919
 128.2870012  46.0104997  46.3439988 127.4890012  45.5954997  46.0159988
 128.7320012  45.3194997  46.8349988 128.2379885  45.8603543  46.3654889
 117.7450012  51.9384997  38.9149988 118.3370012  52.6374997  39.1909988
 118.2040012  51.5054997  38.1949988 117.8881142  51.9757049  38.8554830
 116.0610012  44.6024997  38.0309988 116.0160012  45.5414997  38.2089988
 115.1730012  44.3664997  37.7609988 115.9348574  44.6991892  38.0188912
 129.3730012  55.2664997  47.9669988 129.2180012  55.9444997  47.3099988
 130.3060012  55.3384997  48.1699988 129.4778500  55.3690170  47.9045119
 116.8690012  39.3844997  46.7039988 116.6400012  39.4434997  45.7759988
 116.4260012  38.5924997  47.0099988 116.7778530  39.2855753  46.6184786
 115.7990012  53.3244997  42.8639988 114.9670012  53.7974997  42.8919988
 116.3450012  53.8344997  42.2659988 115.7589739  53.4581871  42.7869716
 115.0870012  55.9374997  54.1939988 115.6280012  55.7204997  54.9539988
 114.6060012  55.1314997  54.0049988 115.0959345  55.7989514  54.2723076
 119.6850012  54.8564997  55.8149988 120.4520012  54.3974997  56.1559988
 119.6630012  54.6304997  54.8849988 119.7871434  54.7630409  55.7360043
 123.7770012  54.3644997  37.1899988 123.1330012  53.7334997  37.5109988
 124.5390012  53.8334997  36.9579988 123.7918077  54.2062920  37.2026011
 126.2620012  53.2364997  54.5439988 125.9110012  52.3804997  54.7869988
 126.9880012  53.3794997  55.1509988 126.3120769  53.1385636  54.6593619
 128.3810012  54.1814997  37.4239988 128.6640012  53.3874997  37.8759988
 129.1210012  54.4144997  36.8629988 128.5197486  54.1042803  37.4100698
 114.9940012  49.7474997  55.1489988 115.1380012  48.8454997  54.8619988
 114.2220012  50.0334997  54.6609988 114.9093322  49.6628261  55.0437881
 119.3360012  50.0914997  37.2809988 119.4000012  49.2974997  37.8119988
 119.9890012  49.9724997  36.5909988 119.4330241  49.9667148  37.2604317
 121.6500012  49.7174997  54.5809988 121.3210012  49.9884997  53.7239988
 121.8020012  48.7764997  54.4939988 121.6254809  49.6273862  54.4518244
 124.6880012  51.1384997  37.0169988 124.4190012  51.3184997  37.9179988
 124.4820012  50.2124997  36.8859988 124.6233825  51.0380152  37.1225214
 127.3840012  49.6334997  51.9649988 128.1300012  50.2214997  51.8449988
 126.6270012  50.2154997  52.0279988 127.3837554  49.7927011  51.9570907
 115.8270012  46.9474997  54.5689988 116.2350012  46.0904997  54.4479988
 115.5670012  46.9624997  55.4899988 115.8477568  46.8320807  54.6769588
 120.4850012  48.0634997  39.5869988 120.0250012  47.5794997  40.2729988
 120.7400012  47.3954997  38.9509988 120.4564902  47.9068731  39.5949334
 119.7740012  45.9564997  51.9429988 119.1560012  46.6314997  52.2229988
 120.1180012  46.2774997  51.1099988 119.7359615  46.0922721  51.8686581
 121.5560012  46.3064997  37.8489988 121.3760012  46.1524997  36.9219988
 122.5060012  46.4144997  37.8939988 121.6597776  46.3000175  37.7281843
 124.7940012  48.4284997  55.2199988 125.7470012  48.5114997  55.1929988
 124.6330012  47.7164997  55.8399988 124.9026426  48.3436746  55.3000579
 130.9460012  48.6614997  37.2949988 130.6720012  48.2364997  36.4819988
 130.9850012  49.5924997  37.0779988 130.9137699  48.7292484  37.1543610
 120.1130012  43.3114997  53.0249988 120.2630012  42.5824997  52.4229988
 120.1160012  44.0884997  52.4659988 120.1339302  43.3167851  52.8670692
 120.5260012  41.6814997  50.5179988 121.0620012  42.1324997  49.8659988
 119.6740012  41.5734997  50.0949988 120.4842178  41.7286390  50.3715756
 122.1080012  47.1204997  50.7569988 122.8580012  46.9644997  50.1839988
 121.7690012  47.9724997  50.4819988 122.1648921  47.2142968  50.6413561
 126.5230012  44.9354997  55.7859988 126.7160012  44.0044997  55.6739988
 127.3810012  45.3604997  55.7759988 126.6653020  44.8656389  55.7693361
 127.8400012  47.7244997  53.8629988 127.5590012  48.4334997  53.2859988
 128.7830012  47.6514997  53.7119988 127.9289027  47.8117646  53.7635551
 118.5920012  44.5094997  54.9369988 117.8250012  43.9774997  54.7269988
 119.2710012  44.1994997  54.3369988 118.5787022  44.3947506  54.8271648
 121.3320012  39.1374997  50.9489988 121.2330012  40.0844997  50.8439988
 120.5890012  38.7654997  50.4739988 121.2180564  39.2165902  50.8704560
 122.5960012  43.4594997  54.5129988 122.3600012  43.2394997  55.4149988
 121.8120012  43.2524997  54.0029988 122.4578628  43.4014760  54.5673932
 125.3110012  42.5864997  53.5889988 124.3640012  42.6184997  53.7209988
 125.6240012  41.9614997  54.2419988 125.2235475  42.5063207  53.6954455
 126.9450012  41.2204997  55.5939988 126.8490012  40.2684997  55.5879988
 126.6240012  41.4894997  56.4539988 126.8884070  41.1264035  55.7095441
 116.7720012  42.4304997  54.6409988 116.9840012  41.7234997  54.0309988
 116.6610012  41.9924997  55.4849988 116.7859721  42.2747084  54.6716843
 121.5530012  38.4314997  53.6209988 122.2650012  37.7914997  53.6069988
 121.4520012  38.6984997  52.7069988 121.6367939  38.3799938  53.4955650
 121.9070012  40.1144997  55.6739988 121.7750012  39.6384997  54.8539988
 121.3080012  40.8584997  55.6189988 121.8079071  40.1499618  55.5542886
 121.4530012  56.9974997  38.8509988 122.3860012  57.1554997  38.9939988
 121.1890012  57.6724997  38.2259988 121.5449510  57.1103611  38.7860741
 115.0220012  51.6334997  38.3329988 115.9360012  51.7124997  38.6069988
 115.0290012  50.9464997  37.6669988 115.1481131  51.5513961  38.2804393
 113.6710012  57.0264997  43.4109988 113.0240012  56.5644997  42.8779988
 114.0250012  56.3544997  43.9929988 113.6303849  56.8724723  43.4167959
 114.5410012  55.1074997  45.2149988 114.2060012  54.2274997  45.3869988
 114.7630012  55.4524997  46.0799988 114.5251783  55.0337500  45.3554208
 132.0890012  55.9164997  48.1959988 132.0680012  56.1014997  49.1349988
 132.7800012  56.4854997  47.8549988 132.1794618  56.0186606  48.2783864
 131.6530012  55.4844997  51.1179988 131.1650012  54.7484997  50.7469988
 132.2020012  55.0904997  51.7959988 131.6604872  55.3306249  51.1589160
 130.1030012  51.2734997  55.7559988 129.2370012  51.1684997  56.1499988
 130.4800012  52.0324997  56.2019988 130.0353308  51.3616900  55.8702393
 131.4040012  49.5304997  41.2699988 132.2540012  49.9514997  41.3969988
 131.4100012  48.7904997  41.8769988 131.5211372  49.4880803  41.3694344
 131.7990012  47.5834997  43.0939988 131.0720012  47.1044997  43.4909988
 132.3800012  47.7894997  43.8259988 131.7779375  47.5457090  43.2474129
 131.5580012  50.3684997  48.0409988 132.3910012  49.9904997  47.7609988
 131.6700012  51.3114997  47.9219988 131.6872647  50.4442218  47.9865487
 130.0440012  53.2464997  50.3479988 129.3970012  53.5714997  50.9739988
 129.5270012  52.8064997  49.6739988 129.8854029  53.2315004  50.3425827
 132.0670012  47.4844997  39.4849988 131.5450012  47.8414997  38.7659988
 132.0340012  48.1594997  40.1629988 131.9911634  47.6245413  39.4783145
 130.4160012  44.7244997  38.0359988 130.5120012  45.3914997  37.3549988
 130.2760012  43.9084997  37.5539988 130.4102135  44.7054500  37.8778491
 129.5850012  46.1044997  43.6569988 129.4350012  45.1594997  43.6359988
 129.2320012  46.3854997  44.4999988 129.5166625  46.0130441  43.7682346
 114.6210012  48.1824997  47.6669988 114.8050012  48.1004997  46.7309988
 115.4700012  48.0584997  48.0909988 114.7610139  48.1545003  47.5961455
 130.4420012  48.0744997  53.2949988 131.0250012  47.3404997  53.4869988
 131.0060012  48.8464997  53.3419988 130.5979769  48.0784227  53.3276159
 131.9380012  45.9774997  53.9799988 131.0750012  45.5984997  53.8139988
 132.5430012  45.2384997  53.9059988 131.9015979  45.8258023  53.9472817
 129.6630012  42.1324997  37.1529988 130.2740012  41.7614997  37.7899988
 128.8270012  41.7114997  37.3489988 129.6335032  42.0247554  37.2667035
 129.2960012  43.6874997  42.1189988 129.5760012  42.7804997  42.2429988
 130.0550012  44.1214997  41.7299988 129.4369277  43.6220942  42.0833682
 129.9080012  44.2684997  47.5549988 130.8410012  44.4804997  47.5209988
 129.6730012  44.3704997  48.4769988 130.0038036  44.3112769  47.6749976
 129.9370012  45.0054997  50.3309988 129.0940012  45.2734997  50.6969988
 130.3790012  45.8274997  50.1199988 129.8814158  45.1533291  50.3525491
 114.2180012  43.4534997  53.8079988 115.1380012  43.3314997  54.0439988
 113.7690012  42.7034997  54.1969988 114.2831580  43.3353727  53.8929006
 132.2200012  38.9854997  55.6839988 132.5700012  38.3314997  55.0789988
 132.3670012  39.8224997  55.2449988 132.2878419  39.0091591  55.5417118
 129.9090012  40.9504997  42.1669988 130.0920012  40.5014997  42.9929988
 129.3100012  40.3654997  41.7039988 129.8530202  40.8099975  42.2173275
 115.4390012  41.7654997  46.6989988 115.8850012  40.9734997  47.0009988
 115.9060012  42.4814997  47.1299988 115.5630172  41.7540624  46.7984820
 113.7430012  44.7644997  47.7679988 114.2350012  44.5434997  46.9769988
 114.1060012  45.6054997  48.0489988 113.8593126  44.8478357  47.6977531
 131.7400012  41.0944997  54.0339988 130.8220012  41.3654997  53.9979988
 131.8630012  40.5594997  53.2489988 131.6311066  41.0592892  53.9230487
 131.7760012  41.0174997  38.6949988 132.1880012  40.2964997  38.2199988
 132.4580012  41.6874997  38.7539988 131.9245885  41.0092368  38.6378915
 114.0570012  41.0224997  41.8219988 113.1320012  41.2314997  41.6929988
 114.5110012  41.5064997  41.1329988 113.9917368  41.1165993  41.7111226
 128.8280012  56.0064997  43.7679988 129.4800012  55.6594997  43.1599988
 129.3380012  56.4954997  44.4139988 128.9862637  56.0250597  43.7720236
 114.0210012  39.7604997  50.1669988 113.3560012  39.5144997  50.8099988
 113.5780012  40.3824997  49.5889988 113.8700956  39.8108632  50.1769352
 116.2130012  52.9354997  54.3109988 115.3920012  53.1104997  53.8509988
 115.9600012  52.8624997  55.2319988 116.0666164  52.9495622  54.3724923
 119.1670012  53.9104997  50.5699988 118.7420012  54.7194997  50.2869988
 120.0710012  53.9954997  50.2679988 119.2310271  54.0328469  50.4903776
 123.4780012  55.3094997  53.5289988 123.6630012  54.9754997  54.4069988
 124.3240012  55.6184997  53.2069988 123.6177539  55.3056047  53.6055605
 125.8230012  56.5954997  52.7729988 126.5000012  55.9624997  52.5329988
 126.1450012  56.9964997  53.5799988 125.9591637  56.5631154  52.8492793
 130.7400012  39.1844997  51.8529988 129.9280012  39.5094997  51.4649988
 130.9730012  38.4244997  51.3199988 130.6603423  39.1262436  51.7278253
 116.5690012  57.1664997  50.6169988 115.8480012  57.6064997  50.1659988
 116.2030012  56.9154997  51.4659988 116.4209804  57.1927698  50.6699840
 119.0360012  56.7664997  49.6469988 118.1710012  56.8384997  50.0509988
 118.9810012  57.3134997  48.8629988 118.9102085  56.8502685  49.5963362
 123.7460012  56.6544997  48.8219988 123.2900012  57.1834997  48.1679988
 123.9090012  57.2574997  49.5479988 123.7055585  56.8084468  48.8305062
 126.0740012  55.5324997  49.7669988 125.1690012  55.6974997  49.5019988
 126.5030012  56.3854997  49.7019988 126.0080799  55.6704483  49.7219182
 128.6780012  57.1024997  50.0619988 128.4960012  58.0184997  49.8519988
 128.8550012  56.6924997  49.2159988 128.6770210  57.1724822  49.9187885
 115.9830012  55.7894997  47.5269988 115.9650012  55.3644997  48.3849988
 116.7880012  55.4714997  47.1189988 116.0893875  55.6883812  47.5891655
 118.1250012  54.4994997  46.1819988 117.9060012  53.5834997  46.3519988
 118.9490012  54.6394997  46.6479988 118.2064420  54.3930520  46.2682774
 120.6620012  54.9694997  47.0309988 120.8750012  54.0814997  46.7439988
 120.7260012  54.9354997  47.9849988 120.6998232  54.8433102  47.1207397
 124.1700012  40.6334997  46.1749988 123.4960012  40.0044997  46.4309988
 124.7340012  40.1494997  45.5719988 124.1539230  40.4818744  46.1285340
 129.3130012  38.7414997  46.2879988 129.9170012  39.2884997  45.7859988
 128.4430012  39.0604997  46.0479988 129.2781241  38.8595806  46.1867654
 131.0400012  39.8794997  44.6209988 131.6520012  39.3654997  44.0949988
 131.4220012  40.7574997  44.6449988 131.1754540  39.9277140  44.5521830
 116.4970012  39.2674997  43.9969988 115.7200012  39.0334997  43.4899988
 117.0270012  38.4704997  44.0059988 116.4622330  39.1276988  43.9287742
 115.3330012  39.0654997  39.8009988 115.7720012  39.6764997  39.2089988
 114.7000012  39.6034997  40.2749988 115.3074514  39.2219257  39.7840930
 121.0760012  39.1944997  43.8109988 121.9510012  39.5824997  43.7809988
 120.9400012  38.9794997  44.7329988 121.1773695  39.2185184  43.9316440
 126.6330012  39.2244997  45.4599988 126.7090012  39.3194997  44.5099988
 126.3580012  38.3164997  45.5889988 126.6062321  39.1147867  45.3475079
 127.9860012  39.2504997  41.1519988 127.2840012  39.8654997  40.9429988
 127.5420012  38.4124997  41.2829988 127.8296330  39.2215783  41.1410328
 115.2340012  55.0134997  40.6989988 114.5490012  54.9754997  40.0309988
 115.2380012  55.9264997  40.9869988 115.1408193  55.1317016  40.6465284
 117.1940012  40.9814997  38.2429988 117.6860012  40.3514997  37.7159988
 117.8180012  41.2774997  38.9069988 117.3455446  40.9353199  38.2605980
 122.2200012  41.2744997  40.6999988 122.3980012  40.6284997  41.3829988
 122.1670012  42.1084997  41.1679988 122.2371829  41.2987985  40.8565940
 124.0990012  56.2234997  39.0959988 124.9650012  56.5894997  38.9179988
 123.8520012  55.7834997  38.2819988 124.1842392  56.2141756  38.9616289
 130.8080012  55.7864997  41.7749988 130.6130012  55.0384997  41.2099988
 130.7690012  56.5444997  41.1919988 130.7760380  55.7866099  41.6188384
 116.4550012  39.7814997  53.5149988 116.0890012  39.0164997  53.9579988
 117.3680012  39.8104997  53.8019988 116.5282790  39.6807224  53.6144070
 118.4280012  39.1324997  55.0509988 119.3260012  38.8584997  54.8659988
 118.0410012  38.3894997  55.5149988 118.4986612  38.9945914  55.0883643
 117.0520012  55.9334997  37.7239988 116.7850012  56.2204997  38.5969988
 117.8240012  55.3874997  37.8759988 117.1197488  55.8990294  37.8641050
 126.8490012  38.4644997  55.2329988 126.9260012  38.0384997  56.0869988
 127.7430012  38.4784997  54.8899988 126.9803428  38.4080880  55.3035310
 130.0250012  54.5374997  53.9249988 129.2430012  54.3514997  53.4059988
 129.9530012  55.4664997  54.1429988 129.9081777  54.6376492  53.8834048
 144.4310012  48.4234997  43.9559988 144.5200012  49.3674997  43.8239988
 143.7930012  48.1484997  43.2979988 144.3569081  48.5154830  43.8489614
 143.3640012  47.6784997  47.3749988 143.3260012  47.0324997  48.0799988
 143.0420012  47.2124997  46.6039988 143.3152333  47.5269408  47.3672978
 135.7330012  47.2934997  48.9679988 135.7740012  46.6674997  49.6909988
 136.4360012  47.9174997  49.1499988 135.8336363  47.2921196  49.0916044
 136.6560012  51.7434997  47.5029988 136.2870012  50.9414997  47.1329988
 137.5970012  51.5744997  47.5489988 136.7327289  51.6110153  47.4586316
 133.2660012  45.4034997  42.8959988 132.8190012  46.2494997  42.8769988
 132.7050012  44.8234997  42.3799988 133.1289900  45.4409916  42.8236801
 133.9770012  47.5654997  45.0219988 134.1900012  46.7954997  45.5489988
 134.7150012  47.6544997  44.4179988 134.1058496  47.4721394  45.0125300
 144.1820012  55.7224997  45.8889988 144.8020012  55.0454997  45.6149988
 143.9740012  55.5044997  46.7969988 144.2386904  55.6003870  45.9743365
 141.7540012  50.1114997  47.7809988 142.0580012  49.4254997  47.1859988
 142.4750012  50.2294997  48.3989988 141.8930671  50.0336305  47.7831816
 144.8950012  44.5054997  48.1089988 145.0370012  43.5594997  48.1289988
 144.7880012  44.7124997  47.1799988 144.8999863  44.4039534  47.9862339
 138.0490012  42.6064997  45.3809988 138.0930012  43.4664997  44.9629988
 137.5920012  42.0544997  44.7469988 137.9932185  42.6495799  45.2380299
 134.6700012  45.0034997  46.1429988 135.3230012  44.4534997  46.5749988
 134.6940012  44.7294997  45.2259988 134.7626683  44.8911466  46.0782123
 139.8260012  46.5534997  45.3579988 140.4420012  46.0274997  45.8679988
 139.2400012  45.9134997  44.9549988 139.8310810  46.3949208  45.3733173
 136.8600012  41.5244997  49.4549988 136.6410012  42.0544997  48.6889988
 136.1920012  41.7514997  50.1019988 136.7397600  41.6276906  49.4376379
 144.2290012  51.0244997  42.9989988 143.9330012  50.7024997  42.1479988
 143.9040012  51.9244997  43.0399988 144.1446371  51.1020215  42.8881801
 139.4290012  49.2004997  49.7419988 138.6890012  49.7984997  49.8459988
 140.1430012  49.7544997  49.4269988 139.4242237  49.3572831  49.7136465
 136.4530012  43.4164997  47.4069988 137.0670012  44.0494997  47.7809988
 136.9650012  42.9444997  46.7509988 136.6062296  43.4392370  47.3694252
 137.8360012  51.1644997  50.5299988 137.8310012  52.0444997  50.1519988
 136.9830012  51.0814997  50.9549988 137.7199464  51.2736117  50.5357907
 133.9570012  50.8354997  41.3119988 133.6850012  51.0644997  40.4229988
 134.0030012  51.6734997  41.7719988 133.9260094  50.9801213  41.2525697
 140.8860012  38.8304997  46.9079988 140.7690012  37.8814997  46.8529988
 140.0310012  39.1624997  47.1809988 140.7543733  38.7455409  46.9373897
 143.1530012  47.6674997  41.4079988 142.4410012  48.2024997  41.0559988
 143.8440012  47.7234997  40.7479988 143.1490132  47.7482543  41.2706289
 143.2060012  46.1254997  38.4469988 143.9070012  46.1474997  39.0979988
 143.5090012  45.4974997  37.7909988 143.3427830  46.0436566  38.4473711
 138.2040012  48.5074997  44.2419988 137.8730012  48.1374997  43.4239988
 138.7920012  47.8374997  44.5889988 138.2381873  48.3661156  44.1768102
 139.5700012  51.9354997  46.9239988 139.4760012  51.3574997  46.1669988
 140.3000012  51.5644997  47.4199988 139.6557981  51.8062390  46.8874165
 138.5700012  47.2764997  47.8759988 139.1360012  47.3974997  47.1129988
 138.8890012  47.9134997  48.5149988 138.6905786  47.3791884  47.8580040
 144.8790012  52.7794997  48.6099988 144.6390012  53.4414997  49.2579988
 144.6810012  51.9454997  49.0349988 144.8193808  52.7573134  48.7561524
 139.4500012  51.6754997  52.5929988 139.1390012  52.4574997  53.0479988
 138.8000012  51.5224997  51.9069988 139.3195558  51.7619105  52.5625871
 136.3700012  47.8734997  51.8219988 136.4410012  48.5244997  52.5199988
 135.4800012  47.9764997  51.4869988 136.2593117  47.9765936  51.8722700
 143.1560012  53.7764997  43.4799988 143.6300012  54.0714997  44.2579988
 142.5930012  54.5144997  43.2469988 143.1447653  53.9166932  43.5550136
 137.6900012  53.7474997  53.3559988 137.6970012  53.6114997  52.4089988
 136.7740012  53.6294997  53.6079988 137.5671714  53.7129430  53.2604666
 137.1940012  47.5774997  41.8319988 136.9020012  48.3454997  41.3409988
 136.5200012  46.9174997  41.6689988 137.0629081  47.5934406  41.7427340
 133.2870012  49.9404997  50.6469988 132.7860012  49.9124997  49.8319988
 133.2920012  49.0344997  50.9559988 133.2191526  49.8142278  50.5772872
 133.0370012  52.7204997  47.5309988 133.9830012  52.5764997  47.5119988
 132.9250012  53.5044997  48.0679988 133.1512727  52.8068046  47.6010072
 142.2140012  52.9604997  52.0889988 142.3010012  53.7864997  52.5639988
 141.3500012  52.6304997  52.3379988 142.1091964  53.0289878  52.1876549
 142.6280012  56.7324997  41.8949988 142.5530012  56.6114997  40.9489988
 142.6610012  57.6824997  42.0139988 142.6221848  56.8442500  41.7814834
 136.2810012  55.5214997  43.6759988 136.4340012  55.1734997  44.5549988
 135.4310012  55.1654997  43.4209988 136.1868962  55.4256650  43.7618340
 135.5360012  51.2634997  51.6899988 135.7520012  50.9024997  52.5489988
 134.6810012  50.8894997  51.4799988 135.4499292  51.1634111  51.7793386
 138.1550012  39.7334997  47.6849988 137.2930012  39.6464997  47.2779988
 138.1320012  40.5894997  48.1129988 138.0340330  39.8372765  47.6871863
 142.8180012  39.4554997  51.0599988 143.2380012  39.0404997  51.8129988
 141.8850012  39.2774997  51.1769988 142.7493644  39.3745900  51.1789539
 142.4790012  41.9484997  38.3449988 142.2260012  41.9674997  39.2679988
 142.2230012  41.0764997  38.0439988 142.4097790  41.8332437  38.4306263
 138.2460012  44.6994997  48.7799988 137.6040012  44.6584997  49.4889988
 138.2830012  45.6254997  48.5429988 138.1631324  44.8191559  48.8449824
 138.2430012  44.9204997  43.6919988 137.3500012  44.5794997  43.6339988
 138.6930012  44.5434997  42.9369988 138.1817305  44.8228484  43.5819177
 143.7780012  45.3364997  42.5089988 143.3690012  46.1514997  42.2179988
 144.4990012  45.1964997  41.8949988 143.8194537  45.4292018  42.3861342
 142.8800012  45.5114997  53.9969988 142.3180012  44.8074997  54.3179988
 143.7070012  45.3914997  54.4649988 142.9147095  45.3987883  54.1042330
 144.7830012  44.7824997  45.3229988 144.5880012  45.3874997  44.6079988
 144.9640012  43.9484997  44.8889988 144.7807614  44.7526300  45.1664405
 135.9960012  45.0194997  50.6469988 135.9580012  45.4194997  51.5159988
 135.5050012  44.2024997  50.7379988 135.9244684  44.9638069  50.7781059
 139.3620012  42.3934997  37.4459988 138.9310012  41.9484997  38.1759988
 138.6440012  42.7654997  36.9339988 139.2059438  42.3828940  37.4766799
 132.6040012  42.1354997  44.4979988 133.2350012  42.1064997  45.2169988
 133.0530012  41.7104997  43.7679988 132.7510774  42.0740492  44.4976553
 133.8780012  42.8814997  39.9219988 134.3520012  43.4724997  39.3369988
 133.1610012  43.4124997  40.2689988 133.8459341  43.0340867  39.8888836
 144.0470012  46.4204997  49.9949988 144.3700012  45.7894997  49.3519988
 143.6070012  45.8854997  50.6549988 144.0316895  46.2618441  49.9962850
 140.8240012  42.3474997  44.7789988 139.9130012  42.4044997  45.0669988
 141.3300012  42.2874997  45.5889988 140.7675413  42.3471985  44.9280622
 135.6530012  43.9764997  43.6049988 134.7630012  44.0764997  43.2649988
 135.9490012  43.1344997  43.2589988 135.5712823  43.8763545  43.5117213
 139.3060012  43.9764997  41.2619988 140.2370012  44.1054997  41.4399988
 139.0910012  44.6464997  40.6119988 139.4044247  44.0846565  41.1985747
 137.9800012  45.1714997  38.8289988 137.4370012  44.7914997  38.1369988
 138.8130012  45.3654997  38.3999988 138.0184399  45.1458124  38.6764526
 136.1150012  49.7284997  53.9279988 136.8470012  49.9824997  54.4889988
 135.3350012  49.9324997  54.4429988 136.1098232  49.7909177  54.0745760
 142.1440012  45.1354997  46.6659988 142.7090012  44.5884997  46.1189988
 141.9970012  44.6134997  47.4539988 142.2012918  44.9902024  46.6978454
 137.1460012  41.2714997  43.0839988 136.8290012  40.3694997  43.0489988
 137.9280012  41.2734997  42.5309988 137.2082284  41.1481628  43.0044783
 140.7710012  43.5234997  49.0799988 139.9350012  43.9774997  49.1899988
 141.2950012  43.7994997  49.8319988 140.7274414  43.6229376  49.1967136
 141.3150012  49.7364997  40.7639988 140.5700012  49.2294997  40.4419988
 141.1810012  49.7854997  41.7109988 141.1948776  49.6736940  40.8478647
 142.8340012  49.9204997  52.0009988 142.4890012  49.5394997  52.8079988
 142.6340012  50.8544997  52.0729988 142.7598061  49.9945228  52.1210961
 136.4400012  49.0314997  46.5339988 137.1850012  49.0294997  45.9329988
 136.5180012  48.2084997  47.0159988 136.5525518  48.9199315  46.5168929
 143.4410012  51.1954997  39.7899988 143.1450012  52.0214997  40.1709988
 142.7380012  50.5754997  39.9859988 143.3054914  51.2248199  39.8686443
 133.4480012  47.4924997  51.8489988 133.6710012  47.0744997  52.6809988
 132.8460012  46.8794997  51.4259988 133.3971759  47.3524668  51.9057022
 140.4640012  47.0094997  54.0619988 140.1680012  46.8434997  53.1669988
 141.3960012  46.7894997  54.0509988 140.5494166  46.9570640  53.9380536
 138.8150012  52.5494997  43.9379988 139.3420012  53.3224997  43.7379988
 137.9350012  52.7744997  43.6369988 138.7681773  52.6858005  43.8699010
 134.5700012  47.4114997  38.5249988 135.1860012  48.0384997  38.9049988
 133.7080012  47.7274997  38.7969988 134.5377698  47.5399430  38.6137183
 140.2420012  50.2124997  43.5149988 140.0010012  51.1374997  43.5559988
 139.5010012  49.7534997  43.9109988 140.1088409  50.2771421  43.5741377
 140.7570012  54.3614997  49.8299988 141.1190012  55.2164997  49.5959988
 141.2880012  54.0694997  50.5699988 140.8784473  54.4391060  49.8980855
 138.9250012  55.2344997  43.0599988 137.9750012  55.3394997  43.1109988
 139.2770012  56.0544997  43.4049988 138.8424203  55.3598314  43.1136650
 144.3010012  50.4604997  49.5299988 143.8750012  50.2334997  50.3569988
 144.8810012  49.7224997  49.3479988 144.3211868  50.3295299  49.6185830
 135.0820012  42.2454997  51.4069988 134.1890012  42.5844997  51.3389988
 134.9830012  41.3904997  51.8249988 134.9464164  42.1762588  51.4542235
 134.7330012  54.0504997  49.8419988 134.9500012  53.1184997  49.8109988
 134.9790012  54.3244997  50.7249988 134.7959549  53.9600636  49.9571763
 140.5950012  52.5014997  37.0509988 140.8340012  51.7534997  36.5039988
 140.3260012  52.1134997  37.8839988 140.5913675  52.3466638  37.0886865
 139.5320012  52.0714997  39.5079988 139.6780012  51.5514997  40.2979988
 139.5290012  52.9784997  39.8139988 139.5515989  52.1228853  39.6576088
 135.9850012  49.3244997  40.0179988 135.2990012  49.6764997  40.5849988
 136.5070012  50.0874997  39.7709988 135.9616852  49.4758578  40.0622118
 143.8160012  41.9864997  50.2969988 144.5150012  42.0604997  50.9469988
 143.4350012  41.1224997  50.4509988 143.8601767  41.8797624  50.4068322
 144.6010012  41.6384997  41.3939988 144.8210012  42.1104997  40.5909988
 145.1590012  42.0334997  42.0639988 144.7064968  41.7564285  41.3747331
 142.2690012  53.7694997  40.2569988 141.4530012  54.2664997  40.3089988
 142.7990012  54.2444997  39.6169988 142.2289161  53.9017722  40.1775956
 141.8010012  43.3664997  42.2289988 142.6130012  43.8714997  42.2749988
 141.5560012  43.2214997  43.1429988 141.8790520  43.4160375  42.3588517
 142.3360012  44.3524997  51.4139988 142.4550012  44.9264997  52.1709988
 142.9920012  43.6644997  51.5279988 142.4409757  44.3381079  51.5330825
 142.6840012  40.4474997  43.1669988 142.3380012  41.0654997  43.8119988
 143.3430012  40.9484997  42.6859988 142.7257826  40.5995802  43.1900971
 139.6080012  54.8134997  40.2389988 139.7680012  55.6124997  39.7379988
 139.4100012  55.1194997  41.1239988 139.6031649  54.9644469  40.2899815
 138.3420012  41.5104997  39.8539988 138.2590012  42.3994997  40.2009988
 139.2320012  41.2454997  40.0859988 138.4509469  41.5961430  39.9327626
 136.6010012  51.9384997  38.9149988 137.1930012  52.6374997  39.1909988
 137.0600012  51.5054997  38.1949988 136.7441142  51.9757049  38.8554830
 134.9170012  44.6024997  38.0309988 134.8720012  45.5414997  38.2089988
 134.0290012  44.3664997  37.7609988 134.7908574  44.6991892  38.0188912
 135.7250012  39.3844997  46.7039988 135.4960012  39.4434997  45.7759988
 135.2820012  38.5924997  47.0099988 135.6338530  39.2855753  46.6184786
 134.6550012  53.3244997  42.8639988 133.8230012  53.7974997  42.8919988
 135.2010012  53.8344997  42.2659988 134.6149739  53.4581871  42.7869716
 133.9430012  55.9374997  54.1939988 134.4840012  55.7204997  54.9539988
 133.4620012  55.1314997  54.0049988 133.9519345  55.7989514  54.2723076
 138.5410012  54.8564997  55.8149988 139.3080012  54.3974997  56.1559988
 138.5190012  54.6304997  54.8849988 138.6431434  54.7630409  55.7360043
 142.6330012  54.3644997  37.1899988 141.9890012  53.7334997  37.5109988
 143.3950012  53.8334997  36.9579988 142.6478077  54.2062920  37.2026011
 133.8500012  49.7474997  55.1489988 133.9940012  48.8454997  54.8619988
 133.0780012  50.0334997  54.6609988 133.7653322  49.6628261  55.0437881
 138.1920012  50.0914997  37.2809988 138.2560012  49.2974997  37.8119988
 138.8450012  49.9724997  36.5909988 138.2890241  49.9667148  37.2604317
 140.5060012  49.7174997  54.5809988 140.1770012  49.9884997  53.7239988
 140.6580012  48.7764997  54.4939988 140.4814809  49.6273862  54.4518244
 143.5440012  51.1384997  37.0169988 143.2750012  51.3184997  37.9179988
 143.3380012  50.2124997  36.8859988 143.4793825  51.0380152  37.1225214
 134.6830012  46.9474997  54.5689988 135.0910012  46.0904997  54.4479988
 134.4230012  46.9624997  55.4899988 134.7037568  46.8320807  54.6769588
 139.3410012  48.0634997  39.5869988 138.8810012  47.5794997  40.2729988
 139.5960012  47.3954997  38.9509988 139.3124902  47.9068731  39.5949334
 138.6300012  45.9564997  51.9429988 138.0120012  46.6314997  52.2229988
 138.9740012  46.2774997  51.1099988 138.5919615  46.0922721  51.8686581
 140.4120012  46.3064997  37.8489988 140.2320012  46.1524997  36.9219988
 141.3620012  46.4144997  37.8939988 140.5157776  46.3000175  37.7281843
 143.6500012  48.4284997  55.2199988 144.6030012  48.5114997  55.1929988
 143.4890012  47.7164997  55.8399988 143.7586426  48.3436746  55.3000579
 138.9690012  43.3114997  53.0249988 139.1190012  42.5824997  52.4229988
 138.9720012  44.0884997  52.4659988 138.9899302  43.3167851  52.8670692
 139.3820012  41.6814997  50.5179988 139.9180012  42.1324997  49.8659988
 138.5300012  41.5734997  50.0949988 139.3402178  41.7286390  50.3715756
 140.9640012  47.1204997  50.7569988 141.7140012  46.9644997  50.1839988
 140.6250012  47.9724997  50.4819988 141.0208921  47.2142968  50.6413561
 137.4480012  44.5094997  54.9369988 136.6810012  43.9774997  54.7269988
 138.1270012  44.1994997  54.3369988 137.4347022  44.3947506  54.8271648
 140.1880012  39.1374997  50.9489988 140.0890012  40.0844997  50.8439988
 139.4450012  38.7654997  50.4739988 140.0740564  39.2165902  50.8704560
 141.4520012  43.4594997  54.5129988 141.2160012  43.2394997  55.4149988
 140.6680012  43.2524997  54.0029988 141.3138628  43.4014760  54.5673932
 144.1670012  42.5864997  53.5889988 143.2200012  42.6184997  53.7209988
 144.4800012  41.9614997  54.2419988 144.0795475  42.5063207  53.6954455
 135.6280012  42.4304997  54.6409988 135.8400012  41.7234997  54.0309988
 135.5170012  41.9924997  55.4849988 135.6419721  42.2747084  54.6716843
 140.4090012  38.4314997  53.6209988 141.1210012  37.7914997  53.6069988
 140.3080012  38.6984997  52.7069988 140.4927939  38.3799938  53.4955650
 140.7630012  40.1144997  55.6739988 140.6310012  39.6384997  54.8539988
 140.1640012  40.8584997  55.6189988 140.6639071  40.1499618  55.5542886
 140.3090012  56.9974997  38.8509988 141.2420012  57.1554997  38.9939988
 140.0450012  57.6724997  38.2259988 140.4009510  57.1103611  38.7860741
 133.8780012  51.6334997  38.3329988 134.7920012  51.7124997  38.6069988
 133.8850012  50.9464997  37.6669988 134.0041131  51.5513961  38.2804393
 132.5270012  57.0264997  43.4109988 131.8800012  56.5644997  42.8779988
 132.8810012  56.3544997  43.9929988 132.4863849  56.8724723  43.4167959
 133.3970012  55.1074997  45.2149988 133.0620012  54.2274997  45.3869988
 133.6190012  55.4524997  46.0799988 133.3811783  55.0337500  45.3554208
 133.4770012  48.1824997  47.6669988 133.6610012  48.1004997  46.7309988
 134.3260012  48.0584997  48.0909988 133.6170139  48.1545003  47.5961455
 133.0740012  43.4534997  53.8079988 133.9940012  43.3314997  54.0439988
 132.6250012  42.7034997  54.1969988 133.1391580  43.3353727  53.8929006
 134.2950012  41.7654997  46.6989988 134.7410012  40.9734997  47.0009988
 134.7620012  42.4814997  47.1299988 134.4190172  41.7540624  46.7984820
 132.5990012  44.7644997  47.7679988 133.0910012  44.5434997  46.9769988
 132.9620012  45.6054997  48.0489988 132.7153126  44.8478357  47.6977531
 132.9130012  41.0224997  41.8219988 131.9880012  41.2314997  41.6929988
 133.3670012  41.5064997  41.1329988 132.8477368  41.1165993  41.7111226
 132.8770012  39.7604997  50.1669988 132.2120012  39.5144997  50.8099988
 132.4340012  40.3824997  49.5889988 132.7260956  39.8108632  50.1769352
 135.0690012  52.9354997  54.3109988 134.2480012  53.1104997  53.8509988
 134.8160012  52.8624997  55.2319988 134.9226164  52.9495622  54.3724923
 138.0230012  53.9104997  50.5699988 137.5980012  54.7194997  50.2869988
 138.9270012  53.9954997  50.2679988 138.0870271  54.0328469  50.4903776
 142.3340012  55.3094997  53.5289988 142.5190012  54.9754997  54.4069988
 143.1800012  55.6184997  53.2069988 142.4737539  55.3056047  53.6055605
 144.6790012  56.5954997  52.7729988 145.3560012  55.9624997  52.5329988
 145.0010012  56.9964997  53.5799988 144.8151637  56.5631154  52.8492793
 135.4250012  57.1664997  50.6169988 134.7040012  57.6064997  50.1659988
 135.0590012  56.9154997  51.4659988 135.2769804  57.1927698  50.6699840
 137.8920012  56.7664997  49.6469988 137.0270012  56.8384997  50.0509988
 137.8370012  57.3134997  48.8629988 137.7662085  56.8502685  49.5963362
 142.6020012  56.6544997  48.8219988 142.1460012  57.1834997  48.1679988
 142.7650012  57.2574997  49.5479988 142.5615585  56.8084468  48.8305062
 134.8390012  55.7894997  47.5269988 134.8210012  55.3644997  48.3849988
 135.6440012  55.4714997  47.1189988 134.9453875  55.6883812  47.5891655
 136.9810012  54.4994997  46.1819988 136.7620012  53.5834997  46.3519988
 137.8050012  54.6394997  46.6479988 137.0624420  54.3930520  46.2682774
 139.5180012  54.9694997  47.0309988 139.7310012  54.0814997  46.7439988
 139.5820012  54.9354997  47.9849988 139.5558231  54.8433102  47.1207397
 143.0260012  40.6334997  46.1749988 142.3520012  40.0044997  46.4309988
 143.5900012  40.1494997  45.5719988 143.0099230  40.4818744  46.1285340
 135.3530012  39.2674997  43.9969988 134.5760012  39.0334997  43.4899988
 135.8830012  38.4704997  44.0059988 135.3182330  39.1276988  43.9287742
 134.1890012  39.0654997  39.8009988 134.6280012  39.6764997  39.2089988
 133.5560012  39.6034997  40.2749988 134.1634514  39.2219257  39.7840930
 139.9320012  39.1944997  43.8109988 140.8070012  39.5824997  43.7809988
 139.7960012  38.9794997  44.7329988 140.0333695  39.2185184  43.9316440
 134.0900012  55.0134997  40.6989988 133.4050012  54.9754997  40.0309988
 134.0940012  55.9264997  40.9869988 133.9968193  55.1317016  40.6465284
 136.0500012  40.9814997  38.2429988 136.5420012  40.3514997  37.7159988
 136.6740012  41.2774997  38.9069988 136.2015446  40.9353199  38.2605980
 141.0760012  41.2744997  40.6999988 141.2540012  40.6284997  41.3829988
 141.0230012  42.1084997  41.1679988 141.0931829  41.2987985  40.8565940
 142.9550012  56.2234997  39.0959988 143.8210012  56.5894997  38.9179988
 142.7080012  55.7834997  38.2819988 143.0402392  56.2141756  38.9616289
 135.3110012  39.7814997  53.5149988 134.9450012  39.0164997  53.9579988
 136.2240012  39.8104997  53.8019988 135.3842790  39.6807224  53.6144070
 137.2840012  39.1324997  55.0509988 138.1820012  38.8584997  54.8659988
 136.8970012  38.3894997  55.5149988 137.3546612  38.9945914  55.0883643
 135.9080012  55.9334997  37.7239988 135.6410012  56.2204997  38.5969988
 136.6800012  55.3874997  37.8759988 135.9757488  55.8990294  37.8641050
  12.4390012  67.2794997  43.9559988  12.5280012  68.2234997  43.8239988
  11.8010012  67.0044997  43.2979988  12.3649081  67.3714830  43.8489614
  11.3720012  66.5344997  47.3749988  11.3340012  65.8884997  48.0799988
  11.0500012  66.0684997  46.6039988  11.3232333  66.3829408  47.3672978
   3.7410012  66.1494997  48.9679988   3.7820012  65.5234997  49.6909988
   4.4440012  66.7734997  49.1499988   3.8416363  66.1481196  49.0916044
  15.0780012  69.4734997  45.6759988  14.6380012  68.7534997  46.1269988
  15.0650012  70.1944997  46.3059988  15.0160226  69.4723731  45.8228494
   4.6640012  70.5994997  47.5029988   4.2950012  69.7974997  47.1329988
   5.6050012  70.4304997  47.5489988   4.7407289  70.4670153  47.4586316
   1.2740012  64.2594997  42.8959988   0.8270012  65.1054997  42.8769988
   0.7130012  63.6794997  42.3799988   1.1369900  64.2969916  42.8236801
   1.9850012  66.4214997  45.0219988   2.1980012  65.6514997  45.5489988
   2.7230012  66.5104997  44.4179988   2.1138496  66.3281394  45.0125300
  12.1900012  74.5784997  45.8889988  12.8100012  73.9014997  45.6149988
  11.9820012  74.3604997  46.7969988  12.2466904  74.4563870  45.9743365
   9.7620012  68.9674997  47.7809988  10.0660012  68.2814997  47.1859988
  10.4830012  69.0854997  48.3989988   9.9010671  68.8896305  47.7831816
  18.4250012  60.5684997  48.6419988  18.4740012  61.1784997  49.3779988
  18.8500012  61.0294997  47.9189988  18.4891824  60.7143741  48.6450205
  12.9030012  63.3614997  48.1089988  13.0450012  62.4154997  48.1289988
  12.7960012  63.5684997  47.1799988  12.9079864  63.2599534  47.9862339
   6.0570012  61.4624997  45.3809988   6.1010012  62.3224997  44.9629988
   5.6000012  60.9104997  44.7469988   6.0012185  61.5055799  45.2380299
  13.7800012  61.5934997  43.7819988  14.4260012  61.2644997  44.4069988
  14.2900012  62.1114997  43.1589988  13.9374264  61.6184611  43.7833862
   2.6780012  63.8594997  46.1429988   3.3310012  63.3094997  46.5749988
   2.7020012  63.5854997  45.2259988   2.7706683  63.7471466  46.0782123
   7.8340012  65.4094997  45.3579988   8.4500012  64.8834997  45.8679988
   7.2480012  64.7694997  44.9549988   7.8390810  65.2509208  45.3733173
  18.8160012  62.0464997  50.8779988  18.1280012  62.7044997  50.7819988
  18.8320012  61.8494997  51.8139988  18.7238525  62.1100462  50.9914808
   4.8680012  60.3804997  49.4549988   4.6490012  60.9104997  48.6889988
   4.2000012  60.6074997  50.1019988   4.7477600  60.4836906  49.4376379
  12.2370012  69.8804997  42.9989988  11.9410012  69.5584997  42.1479988
  11.9120012  70.7804997  43.0399988  12.1526371  69.9580215  42.8881801
   7.4370012  68.0564997  49.7419988   6.6970012  68.6544997  49.8459988
   8.1510012  68.6104997  49.4269988   7.4322237  68.2132831  49.7136465
  15.5440012  60.8844997  45.7619988  15.3280012  60.1184997  46.2949988
  16.1990012  61.3564997  46.2749988  15.6030632  60.8435889  45.9042861
   4.4610012  62.2724997  47.4069988   5.0750012  62.9054997  47.7809988
   4.9730012  61.8004997  46.7509988   4.6142296  62.2952370  47.3694252
   5.8440012  70.0204997  50.5299988   5.8390012  70.9004997  50.1519988
   4.9910012  69.9374997  50.9549988   5.7279464  70.1296117  50.5357907
   1.9650012  69.6914997  41.3119988   1.6930012  69.9204997  40.4229988
   2.0110012  70.5294997  41.7719988   1.9340094  69.8361213  41.2525697
  15.5900012  71.3134997  48.0239988  14.6490012  71.3714997  48.1859988
  15.8670012  72.2194997  47.8869988  15.4984679  71.4439443  48.0276815
  15.8910012  59.5994997  49.4419988  15.1550012  60.2104997  49.4039988
  16.5740012  60.0144997  48.9149988  15.8826541  59.7391374  49.3655832
   8.8940012  57.6864997  46.9079988   8.7770012  56.7374997  46.8529988
   8.0390012  58.0184997  47.1809988   8.7623733  57.6015409  46.9373897
  13.8420012  73.0944997  44.6499988  14.2680012  72.3874997  44.1649988
  14.1590012  73.8954997  44.2329988  13.9431019  73.1060994  44.5273130
  15.0020012  70.9954997  43.1579988  14.7440012  70.3054997  42.5469988
  15.0730012  70.5524997  44.0039988  14.9762856  70.8412124  43.1886885
  16.6880012  69.5614997  51.6359988  16.8280012  68.9704997  50.8959988
  16.8550012  70.4344997  51.2789988  16.7296778  69.5986426  51.4866965
  11.1610012  66.5234997  41.4079988  10.4490012  67.0584997  41.0559988
  11.8520012  66.5794997  40.7479988  11.1570132  66.6042543  41.2706289
  11.2140012  64.9814997  38.4469988  11.9150012  65.0034997  39.0979988
  11.5170012  64.3534997  37.7909988  11.3507830  64.8996566  38.4473711
  18.5300012  65.9014997  49.7019988  17.8770012  66.5964997  49.7909988
  18.9950012  66.1114997  48.8919988  18.5035390  66.0249425  49.6046883
  14.5660012  66.7334997  42.3599988  13.8340012  66.9614997  42.9329988
  15.0140012  66.0194997  42.8149988  14.5263095  66.6682571  42.4999119
  14.4640012  64.9074997  51.4269988  14.5440012  65.6704997  51.9989988
  13.8620012  65.1864997  50.7369988  14.3935756  65.0497134  51.4120589
   6.2120012  67.3634997  44.2419988   5.8810012  66.9934997  43.4239988
   6.8000012  66.6934997  44.5889988   6.2461873  67.2221156  44.1768102
   7.5780012  70.7914997  46.9239988   7.4840012  70.2134997  46.1669988
   8.3080012  70.4204997  47.4199988   7.6637981  70.6622390  46.8874165
   6.5780012  66.1324997  47.8759988   7.1440012  66.2534997  47.1129988
   6.8970012  66.7694997  48.5149988   6.6985786  66.2351884  47.8580040
  12.8870012  71.6354997  48.6099988  12.6470012  72.2974997  49.2579988
  12.6890012  70.8014997  49.0349988  12.8273808  71.6133134  48.7561524
   7.4580012  70.5314997  52.5929988   7.1470012  71.3134997  53.0479988
   6.8080012  70.3784997  51.9069988   7.3275558  70.6179105  52.5625871
  13.4370012  65.8954997  40.0449988  14.0170012  66.0454997  40.7919988
  13.8510012  66.3664997  39.3219988  13.5722830  65.9796841  40.0494134
   4.3780012  66.7294997  51.8219988   4.4490012  67.3804997  52.5199988
   3.4880012  66.8324997  51.4869988   4.2673117  66.8325936  51.8722700
  11.1640012  72.6324997  43.4799988  11.6380012  72.9274997  44.2579988
  10.6010012  73.3704997  43.2469988  11.1527653  72.7726932  43.5550136
   5.6980012  72.6034997  53.3559988   5.7050012  72.4674997  52.4089988
   4.7820012  72.4854997  53.6079988   5.5751714  72.5689430  53.2604666
  17.1360012  57.6454997  39.8579988  16.2360012  57.7844997  40.1529988
  17.3880012  58.4764997  39.4559988  17.0468702  57.7769074  39.8440205
   5.2020012  66.4334997  41.8319988   4.9100012  67.2014997  41.3409988
   4.5280012  65.7734997  41.6689988   5.0709081  66.4494406  41.7427340
  18.3250012  72.0114997  38.2339988  18.3990012  72.9504997  38.4049988
  19.2310012  71.7064997  38.1779988  18.4575100  72.0986722  38.2498119
   1.2950012  68.7964997  50.6469988   0.7940012  68.7684997  49.8319988
   1.3000012  67.8904997  50.9559988   1.2271526  68.6702278  50.5772872
   1.0450012  71.5764997  47.5309988   1.9910012  71.4324997  47.5119988
   0.9330012  72.3604997  48.0679988   1.1592727  71.6628046  47.6010072
  19.2430012  72.2424997  53.2129988  19.1940012  71.2874997  53.1759988
  18.4160012  72.5104997  53.6139988  19.1244940  72.1478998  53.2621375
  10.2220012  71.8164997  52.0889988  10.3090012  72.6424997  52.5639988
   9.3580012  71.4864997  52.3379988  10.1171964  71.8849878  52.1876549
  10.6360012  75.5884997  41.8949988  10.5610012  75.4674997  40.9489988
  10.6690012  76.5384997  42.0139988  10.6301848  75.7002500  41.7814834
   4.2890012  74.3774997  43.6759988   4.4420012  74.0294997  44.5549988
   3.4390012  74.0214997  43.4209988   4.1948962  74.2816650  43.7618340
  13.7380012  74.7424997  38.8969988  14.1130012  73.9984997  38.4269988
  13.7420012  74.4724997  39.8159988  13.7898915  74.6041486  38.9567824
  13.4070012  74.6684997  41.6469988  12.4710012  74.7684997  41.8249988
  13.6870012  73.9594997  42.2249988  13.3168255  74.5862711  41.7495391
  16.3950012  63.7354997  53.6929988  15.9880012  64.2164997  52.9719988
  16.4360012  62.8304997  53.3849988  16.3448437  63.6789374  53.5526683
   3.5440012  70.1194997  51.6899988   3.7600012  69.7584997  52.5489988
   2.6890012  69.7454997  51.4799988   3.4579292  70.0194111  51.7793386
   6.1630012  58.5894997  47.6849988   5.3010012  58.5024997  47.2779988
   6.1400012  59.4454997  48.1129988   6.0420330  58.6932765  47.6871863
  10.8260012  58.3114997  51.0599988  11.2460012  57.8964997  51.8129988
   9.8930012  58.1334997  51.1769988  10.7573644  58.2305900  51.1789539
  14.1520012  62.0674997  51.9129988  13.6380012  61.9414997  52.7109988
  13.9970012  62.9794997  51.6689988  14.0606852  62.1736132  51.9892158
  14.9150012  66.9284997  37.6749988  14.9570012  66.7054997  36.7449988
  15.7640012  67.3274997  37.8649988  15.0355396  66.9519155  37.5733627
  10.4870012  60.8044997  38.3449988  10.2340012  60.8234997  39.2679988
  10.2310012  59.9324997  38.0439988  10.4177790  60.6892437  38.4306263
   6.2540012  63.5554997  48.7799988   5.6120012  63.5144997  49.4889988
   6.2910012  64.4814997  48.5429988   6.1711324  63.6751559  48.8449824
   6.2510012  63.7764997  43.6919988   5.3580012  63.4354997  43.6339988
   6.7010012  63.3994997  42.9369988   6.1897305  63.6788484  43.5819177
  11.7860012  64.1924997  42.5089988  11.3770012  65.0074997  42.2179988
  12.5070012  64.0524997  41.8949988  11.8274537  64.2852018  42.3861342
  10.8880012  64.3674997  53.9969988  10.3260012  63.6634997  54.3179988
  11.7150012  64.2474997  54.4649988  10.9227095  64.2547883  54.1042330
  12.7910012  63.6384997  45.3229988  12.5960012  64.2434997  44.6079988
  12.9720012  62.8044997  44.8889988  12.7887614  63.6086300  45.1664405
   4.0040012  63.8754997  50.6469988   3.9660012  64.2754997  51.5159988
   3.5130012  63.0584997  50.7379988   3.9324684  63.8198069  50.7781059
   7.3700012  61.2494997  37.4459988   6.9390012  60.8044997  38.1759988
   6.6520012  61.6214997  36.9339988   7.2139438  61.2388940  37.4766799
   0.6120012  60.9914997  44.4979988   1.2430012  60.9624997  45.2169988
   1.0610012  60.5664997  43.7679988   0.7590774  60.9300492  44.4976553
   1.8860012  61.7374997  39.9219988   2.3600012  62.3284997  39.3369988
   1.1690012  62.2684997  40.2689988   1.8539341  61.8900867  39.8888836
  12.0550012  65.2764997  49.9949988  12.3780012  64.6454997  49.3519988
  11.6150012  64.7414997  50.6549988  12.0396895  65.1178441  49.9962850
   8.8320012  61.2034997  44.7789988   7.9210012  61.2604997  45.0669988
   9.3380012  61.1434997  45.5889988   8.7755413  61.2031985  44.9280622
   3.6610012  62.8324997  43.6049988   2.7710012  62.9324997  43.2649988
   3.9570012  61.9904997  43.2589988   3.5792823  62.7323545  43.5117213
   7.3140012  62.8324997  41.2619988   8.2450012  62.9614997  41.4399988
   7.0990012  63.5024997  40.6119988   7.4124247  62.9406565  41.1985747
  13.2370012  60.4384997  48.0429988  12.5610012  60.5694997  48.7069988
  12.7520012  60.2834997  47.2329988  13.0787145  60.4354905  48.0244517
   5.9880012  64.0274997  38.8289988   5.4450012  63.6474997  38.1369988
   6.8210012  64.2214997  38.3999988   6.0264399  64.0018124  38.6764526
  16.5250012  76.1104997  54.3199988  16.7250012  76.5344997  53.4849988
  17.1800012  76.4534997  54.9269988  16.6410051  76.2149648  54.2877836
   4.1230012  68.5844997  53.9279988   4.8550012  68.8384997  54.4889988
   3.3430012  68.7884997  54.4429988   4.1178232  68.6469177  54.0745760
  10.1520012  63.9914997  46.6659988  10.7170012  63.4444997  46.1189988
  10.0050012  63.4694997  47.4539988  10.2092918  63.8462024  46.6978454
   5.1540012  60.1274997  43.0839988   4.8370012  59.2254997  43.0489988
   5.9360012  60.1294997  42.5309988   5.2162284  60.0041628  43.0044783
   8.7790012  62.3794997  49.0799988   7.9430012  62.8334997  49.1899988
   9.3030012  62.6554997  49.8319988   8.7354414  62.4789376  49.1967136
   9.3230012  68.5924997  40.7639988   8.5780012  68.0854997  40.4419988
   9.1890012  68.6414997  41.7109988   9.2028776  68.5296940  40.8478647
  16.4730012  67.7254997  49.5509988  17.1150012  68.1824997  49.0069988
  15.6430012  67.8384997  49.0879988  16.4485963  67.8032704  49.4140177
  13.2210012  61.4064997  38.9639988  12.2820012  61.5184997  38.8119988
  13.5180012  62.2634997  39.2699988  13.1327666  61.5376443  38.9845768
  10.8420012  68.7764997  52.0009988  10.4970012  68.3954997  52.8079988
  10.6420012  69.7104997  52.0729988  10.7678061  68.8505228  52.1210961
  13.9390012  63.2734997  40.6239988  14.8310012  63.1364997  40.9429988
  13.9960012  64.0644997  40.0879988  14.0686285  63.3616660  40.5951690
   4.4480012  67.8874997  46.5339988   5.1930012  67.8854997  45.9329988
   4.5260012  67.0644997  47.0159988   4.5605518  67.7759315  46.5168929
  11.4490012  70.0514997  39.7899988  11.1530012  70.8774997  40.1709988
  10.7460012  69.4314997  39.9859988  11.3134914  70.0808199  39.8686443
   1.4560012  66.3484997  51.8489988   1.6790012  65.9304997  52.6809988
   0.8540012  65.7354997  51.4259988   1.4051759  66.2084668  51.9057022
   8.4720012  65.8654997  54.0619988   8.1760012  65.6994997  53.1669988
   9.4040012  65.6454997  54.0509988   8.5574166  65.8130640  53.9380536
  13.0930012  71.2384997  51.9519988  12.1920012  71.4214997  51.6839988
  13.1270012  71.4974997  52.8729988  12.9743041  71.2985512  52.0398197
  18.8240012  63.4834997  40.3189988  18.2700012  63.0874997  39.6469988
  18.9240012  64.3934997  40.0409988  18.7617059  63.5523586  40.1894401
  18.7870012  69.2834997  53.1559988  17.9360012  69.5214997  52.7889988
  19.3780012  69.2664997  52.4029988  18.7502487  69.3138258  53.0038893
  17.1190012  72.2694997  40.7839988  16.7460012  71.4434997  41.0929988
  17.3970012  72.0864997  39.8869988  17.1055630  72.1317303  40.7049626
  14.2800012  67.0774997  47.8049988  13.3510012  66.8454997  47.7779988
  14.7310012  66.3004997  47.4749988  14.2139216  66.9407238  47.7566917
   6.8230012  71.4054997  43.9379988   7.3500012  72.1784997  43.7379988
   5.9430012  71.6304997  43.6369988   6.7761773  71.5418005  43.8699010
   2.5780012  66.2674997  38.5249988   3.1940012  66.8944997  38.9049988
   1.7160012  66.5834997  38.7969988   2.5457698  66.3959430  38.6137183
   8.2500012  69.0684997  43.5149988   8.0090012  69.9934997  43.5559988
   7.5090012  68.6094997  43.9109988   8.1168409  69.1331421  43.5741377
   8.7650012  73.2174997  49.8299988   9.1270012  74.0724997  49.5959988
   9.2960012  72.9254997  50.5699988   8.8864473  73.2951060  49.8980855
   6.9330012  74.0904997  43.0599988   5.9830012  74.1954997  43.1109988
   7.2850012  74.9104997  43.4049988   6.8504203  74.2158314  43.1136650
  12.3090012  69.3164997  49.5299988  11.8830012  69.0894997  50.3569988
  12.8890012  68.5784997  49.3479988  12.3291868  69.1855299  49.6185830
  14.5120012  70.2454997  38.6039988  14.8650012  69.8654997  39.4089988
  13.5630012  70.1524997  38.6909988  14.4320441  70.1809596  38.7258559
  14.9670012  73.8684997  51.9999988  14.3660012  73.3134997  51.5039988
  15.2490012  74.5354997  51.3739988  14.9228519  73.8826841  51.8474952
  19.0150012  74.7254997  38.8049988  19.7590012  75.3114997  38.6649988
  18.3210012  75.2934997  39.1389988  19.0230292  74.8825582  38.8309961
   3.0900012  61.1014997  51.4069988   2.1970012  61.4404997  51.3389988
   2.9910012  60.2464997  51.8249988   2.9544164  61.0322588  51.4542235
  15.3780012  68.9184997  40.8309988  15.1000012  68.1904997  41.3869988
  16.3050012  69.0374997  41.0359988  15.4653124  68.8348802  40.9348845
   2.7410012  72.9064997  49.8419988   2.9580012  71.9744997  49.8109988
   2.9870012  73.1804997  50.7249988   2.8039549  72.8160636  49.9571763
   8.6030012  71.3574997  37.0509988   8.8420012  70.6094997  36.5039988
   8.3340012  70.9694997  37.8839988   8.5993675  71.2026638  37.0886865
   7.5400012  70.9274997  39.5079988   7.6860012  70.4074997  40.2979988
   7.5370012  71.8344997  39.8139988   7.5595989  70.9788853  39.6576088
   3.9930012  68.1804997  40.0179988   3.3070012  68.5324997  40.5849988
   4.5150012  68.9434997  39.7709988   3.9696852  68.3318578  40.0622118
  11.8240012  60.8424997  50.2969988  12.5230012  60.9164997  50.9469988
  11.4430012  59.9784997  50.4509988  11.8681767  60.7357624  50.4068322
  12.6090012  60.4944997  41.3939988  12.8290012  60.9664997  40.5909988
  13.1670012  60.8894997  42.0639988  12.7144968  60.6124285  41.3747331
  10.2770012  72.6254997  40.2569988   9.4610012  73.1224997  40.3089988
  10.8070012  73.1004997  39.6169988  10.2369161  72.7577722  40.1775956
   9.8090012  62.2224997  42.2289988  10.6210012  62.7274997  42.2749988
   9.5640012  62.0774997  43.1429988   9.8870520  62.2720375  42.3588517
  10.3440012  63.2084997  51.4139988  10.4630012  63.7824997  52.1709988
  11.0000012  62.5204997  51.5279988  10.4489757  63.1941079  51.5330825
  10.6920012  59.3034997  43.1669988  10.3460012  59.9214997  43.8119988
  11.3510012  59.8044997  42.6859988  10.7337826  59.4555802  43.1900971
   7.6160012  73.6694997  40.2389988   7.7760012  74.4684997  39.7379988
   7.4180012  73.9754997  41.1239988   7.6111649  73.8204469  40.2899815
   6.3500012  60.3664997  39.8539988   6.2670012  61.2554997  40.2009988
   7.2400012  60.1014997  40.0859988   6.4589469  60.4521430  39.9327626
  16.5490012  61.1154997  52.2489988  15.6320012  61.3784997  52.1609988
  16.8840012  61.1124997  51.3519988  16.4689900  61.1510224  52.1157919
  15.1510012  64.8664997  46.3439988  14.3530012  64.4514997  46.0159988
  15.5960012  64.1754997  46.8349988  15.1019885  64.7163543  46.3654889
   4.6090012  70.7944997  38.9149988   5.2010012  71.4934997  39.1909988
   5.0680012  70.3614997  38.1949988   4.7521142  70.8317049  38.8554830
   2.9250012  63.4584997  38.0309988   2.8800012  64.3974997  38.2089988
   2.0370012  63.2224997  37.7609988   2.7988574  63.5551892  38.0188912
  16.2370012  74.1224997  47.9669988  16.0820012  74.8004997  47.3099988
  17.1700012  74.1944997  48.1699988  16.3418500  74.2250170  47.9045119
   3.7330012  58.2404997  46.7039988   3.5040012  58.2994997  45.7759988
   3.2900012  57.4484997  47.0099988   3.6418530  58.1415753  46.6184786
   2.6630012  72.1804997  42.8639988   1.8310012  72.6534997  42.8919988
   3.2090012  72.6904997  42.2659988   2.6229739  72.3141871  42.7869716
   1.9510012  74.7934997  54.1939988   2.4920012  74.5764997  54.9539988
   1.4700012  73.9874997  54.0049988   1.9599345  74.6549514  54.2723076
   6.5490012  73.7124997  55.8149988   7.3160012  73.2534997  56.1559988
   6.5270012  73.4864997  54.8849988   6.6511434  73.6190409  55.7360043
  10.6410012  73.2204997  37.1899988   9.9970012  72.5894997  37.5109988
  11.4030012  72.6894997  36.9579988  10.6558077  73.0622920  37.2026011
  13.1260012  72.0924997  54.5439988  12.7750012  71.2364997  54.7869988
  13.8520012  72.2354997  55.1509988  13.1760769  71.9945636  54.6593619
  15.2450012  73.0374997  37.4239988  15.5280012  72.2434997  37.8759988
  15.9850012  73.2704997  36.8629988  15.3837486  72.9602803  37.4100698
   1.8580012  68.6034997  55.1489988   2.0020012  67.7014997  54.8619988
   1.0860012  68.8894997  54.6609988   1.7733322  68.5188261  55.0437881
   6.2000012  68.9474997  37.2809988   6.2640012  68.1534997  37.8119988
   6.8530012  68.8284997  36.5909988   6.2970241  68.8227148  37.2604317
   8.5140012  68.5734997  54.5809988   8.1850012  68.8444997  53.7239988
   8.6660012  67.6324997  54.4939988   8.4894809  68.4833862  54.4518244
  11.5520012  69.9944997  37.0169988  11.2830012  70.1744997  37.9179988
  11.3460012  69.0684997  36.8859988  11.4873825  69.8940152  37.1225214
  14.2480012  68.4894997  51.9649988  14.9940012  69.0774997  51.8449988
  13.4910012  69.0714997  52.0279988  14.2477554  68.6487011  51.9570907
   2.6910012  65.8034997  54.5689988   3.0990012  64.9464997  54.4479988
   2.4310012  65.8184997  55.4899988   2.7117568  65.6880807  54.6769588
   7.3490012  66.9194997  39.5869988   6.8890012  66.4354997  40.2729988
   7.6040012  66.2514997  38.9509988   7.3204902  66.7628731  39.5949334
   6.6380012  64.8124997  51.9429988   6.0200012  65.4874997  52.2229988
   6.9820012  65.1334997  51.1099988   6.5999615  64.9482721  51.8686581
   8.4200012  65.1624997  37.8489988   8.2400012  65.0084997  36.9219988
   9.3700012  65.2704997  37.8939988   8.5237776  65.1560175  37.7281843
  11.6580012  67.2844997  55.2199988  12.6110012  67.3674997  55.1929988
  11.4970012  66.5724997  55.8399988  11.7666426  67.1996746  55.3000579
  17.8100012  67.5174997  37.2949988  17.5360012  67.0924997  36.4819988
  17.8490012  68.4484997  37.0779988  17.7777699  67.5852484  37.1543610
   6.9770012  62.1674997  53.0249988   7.1270012  61.4384997  52.4229988
   6.9800012  62.9444997  52.4659988   6.9979302  62.1727851  52.8670692
   7.3900012  60.5374997  50.5179988   7.9260012  60.9884997  49.8659988
   6.5380012  60.4294997  50.0949988   7.3482178  60.5846390  50.3715756
   8.9720012  65.9764997  50.7569988   9.7220012  65.8204997  50.1839988
   8.6330012  66.8284997  50.4819988   9.0288921  66.0702968  50.6413561
  13.3870012  63.7914997  55.7859988  13.5800012  62.8604997  55.6739988
  14.2450012  64.2164997  55.7759988  13.5293020  63.7216389  55.7693361
  14.7040012  66.5804997  53.8629988  14.4230012  67.2894997  53.2859988
  15.6470012  66.5074997  53.7119988  14.7929027  66.6677646  53.7635551
   5.4560012  63.3654997  54.9369988   4.6890012  62.8334997  54.7269988
   6.1350012  63.0554997  54.3369988   5.4427022  63.2507506  54.8271648
   8.1960012  57.9934997  50.9489988   8.0970012  58.9404997  50.8439988
   7.4530012  57.6214997  50.4739988   8.0820564  58.0725902  50.8704560
   9.4600012  62.3154997  54.5129988   9.2240012  62.0954997  55.4149988
   8.6760012  62.1084997  54.0029988   9.3218628  62.2574760  54.5673932
  12.1750012  61.4424997  53.5889988  11.2280012  61.4744997  53.7209988
  12.4880012  60.8174997  54.2419988  12.0875475  61.3623207  53.6954455
  13.8090012  60.0764997  55.5939988  13.7130012  59.1244997  55.5879988
  13.4880012  60.3454997  56.4539988  13.7524070  59.9824035  55.7095441
   3.6360012  61.2864997  54.6409988   3.8480012  60.5794997  54.0309988
   3.5250012  60.8484997  55.4849988   3.6499721  61.1307084  54.6716843
   8.4170012  57.2874997  53.6209988   9.1290012  56.6474997  53.6069988
   8.3160012  57.5544997  52.7069988   8.5007939  57.2359938  53.4955650
   8.7710012  58.9704997  55.6739988   8.6390012  58.4944997  54.8539988
   8.1720012  59.7144997  55.6189988   8.6719071  59.0059618  55.5542886
   8.3170012  75.8534997  38.8509988   9.2500012  76.0114997  38.9939988
   8.0530012  76.5284997  38.2259988   8.4089510  75.9663611  38.7860741
   1.8860012  70.4894997  38.3329988   2.8000012  70.5684997  38.6069988
   1.8930012  69.8024997  37.6669988   2.0121131  70.4073961  38.2804393
   0.5350012  75.8824997  43.4109988  -0.1119988  75.4204997  42.8779988
   0.8890012  75.2104997  43.9929988   0.4943849  75.7284723  43.4167959
   1.4050012  73.9634997  45.2149988   1.0700012  73.0834997  45.3869988
   1.6270012  74.3084997  46.0799988   1.3891783  73.8897501  45.3554208
  18.9530012  74.7724997  48.1959988  18.9320012  74.9574997  49.1349988
  19.6440012  75.3414997  47.8549988  19.0434618  74.8746606  48.2783864
  18.5170012  74.3404997  51.1179988  18.0290012  73.6044997  50.7469988
  19.0660012  73.9464997  51.7959988  18.5244872  74.1866249  51.1589160
  16.9670012  70.1294997  55.7559988  16.1010012  70.0244997  56.1499988
  17.3440012  70.8884997  56.2019988  16.8993308  70.2176900  55.8702393
  18.2680012  68.3864997  41.2699988  19.1180012  68.8074997  41.3969988
  18.2740012  67.6464997  41.8769988  18.3851372  68.3440803  41.3694344
  18.6630012  66.4394997  43.0939988  17.9360012  65.9604997  43.4909988
  19.2440012  66.6454997  43.8259988  18.6419375  66.4017090  43.2474129
  18.4220012  69.2244997  48.0409988  19.2550012  68.8464997  47.7609988
  18.5340012  70.1674997  47.9219988  18.5512647  69.3002218  47.9865487
  16.9080012  72.1024997  50.3479988  16.2610012  72.4274997  50.9739988
  16.3910012  71.6624997  49.6739988  16.7494029  72.0875004  50.3425827
  18.9310012  66.3404997  39.4849988  18.4090012  66.6974997  38.7659988
  18.8980012  67.0154997  40.1629988  18.8551634  66.4805413  39.4783145
  17.2800012  63.5804997  38.0359988  17.3760012  64.2474997  37.3549988
  17.1400012  62.7644997  37.5539988  17.2742135  63.5614500  37.8778491
  16.4490012  64.9604997  43.6569988  16.2990012  64.0154997  43.6359988
  16.0960012  65.2414997  44.4999988  16.3806625  64.8690441  43.7682346
   1.4850012  67.0384997  47.6669988   1.6690012  66.9564997  46.7309988
   2.3340012  66.9144997  48.0909988   1.6250139  67.0105003  47.5961455
  17.3060012  66.9304997  53.2949988  17.8890012  66.1964997  53.4869988
  17.8700012  67.7024997  53.3419988  17.4619769  66.9344227  53.3276159
  18.8020012  64.8334997  53.9799988  17.9390012  64.4544997  53.8139988
  19.4070012  64.0944997  53.9059988  18.7655979  64.6818023  53.9472817
  16.5270012  60.9884997  37.1529988  17.1380012  60.6174997  37.7899988
  15.6910012  60.5674997  37.3489988  16.4975032  60.8807554  37.2667035
  16.1600012  62.5434997  42.1189988  16.4400012  61.6364997  42.2429988
  16.9190012  62.9774997  41.7299988  16.3009277  62.4780942  42.0833682
  16.7720012  63.1244997  47.5549988  17.7050012  63.3364997  47.5209988
  16.5370012  63.2264997  48.4769988  16.8678036  63.1672769  47.6749976
  16.8010012  63.8614997  50.3309988  15.9580012  64.1294997  50.6969988
  17.2430012  64.6834997  50.1199988  16.7454158  64.0093291  50.3525491
   1.0820012  62.3094997  53.8079988   2.0020012  62.1874997  54.0439988
   0.6330012  61.5594997  54.1969988   1.1471580  62.1913727  53.8929006
  19.0840012  57.8414997  55.6839988  19.4340012  57.1874997  55.0789988
  19.2310012  58.6784997  55.2449988  19.1518419  57.8651591  55.5417118
  16.7730012  59.8064997  42.1669988  16.9560012  59.3574997  42.9929988
  16.1740012  59.2214997  41.7039988  16.7170202  59.6659975  42.2173275
   2.3030012  60.6214997  46.6989988   2.7490012  59.8294997  47.0009988
   2.7700012  61.3374997  47.1299988   2.4270172  60.6100624  46.7984820
   0.6070012  63.6204997  47.7679988   1.0990012  63.3994997  46.9769988
   0.9700012  64.4614997  48.0489988   0.7233126  63.7038357  47.6977531
  18.6040012  59.9504997  54.0339988  17.6860012  60.2214997  53.9979988
  18.7270012  59.4154997  53.2489988  18.4951066  59.9152892  53.9230487
  18.6400012  59.8734997  38.6949988  19.0520012  59.1524997  38.2199988
  19.3220012  60.5434997  38.7539988  18.7885885  59.8652368  38.6378915
   0.9210012  59.8784997  41.8219988  -0.0039988  60.0874997  41.6929988
   1.3750012  60.3624997  41.1329988   0.8557368  59.9725993  41.7111226
  15.6920012  74.8624997  43.7679988  16.3440012  74.5154997  43.1599988
  16.2020012  75.3514997  44.4139988  15.8502637  74.8810597  43.7720236
   0.8850012  58.6164997  50.1669988   0.2200012  58.3704997  50.8099988
   0.4420012  59.2384997  49.5889988   0.7340956  58.6668632  50.1769352
   3.0770012  71.7914997  54.3109988   2.2560012  71.9664997  53.8509988
   2.8240012  71.7184997  55.2319988   2.9306164  71.8055622  54.3724923
   6.0310012  72.7664997  50.5699988   5.6060012  73.5754997  50.2869988
   6.9350012  72.8514997  50.2679988   6.0950271  72.8888469  50.4903776
  10.3420012  74.1654997  53.5289988  10.5270012  73.8314997  54.4069988
  11.1880012  74.4744997  53.2069988  10.4817539  74.1616047  53.6055605
  12.6870012  75.4514997  52.7729988  13.3640012  74.8184997  52.5329988
  13.0090012  75.8524997  53.5799988  12.8231637  75.4191154  52.8492793
  17.6040012  58.0404997  51.8529988  16.7920012  58.3654997  51.4649988
  17.8370012  57.2804997  51.3199988  17.5243423  57.9822436  51.7278253
   3.4330012  76.0224997  50.6169988   2.7120012  76.4624997  50.1659988
   3.0670012  75.7714997  51.4659988   3.2849804  76.0487698  50.6699840
   5.9000012  75.6224997  49.6469988   5.0350012  75.6944997  50.0509988
   5.8450012  76.1694997  48.8629988   5.7742085  75.7062685  49.5963362
  10.6100012  75.5104997  48.8219988  10.1540012  76.0394997  48.1679988
  10.7730012  76.1134997  49.5479988  10.5695585  75.6644468  48.8305062
  12.9380012  74.3884997  49.7669988  12.0330012  74.5534997  49.5019988
  13.3670012  75.2414997  49.7019988  12.8720799  74.5264483  49.7219182
  15.5420012  75.9584997  50.0619988  15.3600012  76.8744997  49.8519988
  15.7190012  75.5484997  49.2159988  15.5410210  76.0284822  49.9187885
   2.8470012  74.6454997  47.5269988   2.8290012  74.2204997  48.3849988
   3.6520012  74.3274997  47.1189988   2.9533875  74.5443812  47.5891655
   4.9890012  73.3554997  46.1819988   4.7700012  72.4394997  46.3519988
   5.8130012  73.4954997  46.6479988   5.0704420  73.2490520  46.2682774
   7.5260012  73.8254997  47.0309988   7.7390012  72.9374997  46.7439988
   7.5900012  73.7914997  47.9849988   7.5638232  73.6993102  47.1207397
  11.0340012  59.4894997  46.1749988  10.3600012  58.8604997  46.4309988
  11.5980012  59.0054997  45.5719988  11.0179230  59.3378744  46.1285340
  16.1770012  57.5974997  46.2879988  16.7810012  58.1444997  45.7859988
  15.3070012  57.9164997  46.0479988  16.1421241  57.7155806  46.1867654
  17.9040012  58.7354997  44.6209988  18.5160012  58.2214997  44.0949988
  18.2860012  59.6134997  44.6449988  18.0394540  58.7837140  44.5521830
   3.3610012  58.1234997  43.9969988   2.5840012  57.8894997  43.4899988
   3.8910012  57.3264997  44.0059988   3.3262330  57.9836988  43.9287742
   2.1970012  57.9214997  39.8009988   2.6360012  58.5324997  39.2089988
   1.5640012  58.4594997  40.2749988   2.1714514  58.0779257  39.7840930
   7.9400012  58.0504997  43.8109988   8.8150012  58.4384997  43.7809988
   7.8040012  57.8354997  44.7329988   8.0413695  58.0745184  43.9316440
  13.4970012  58.0804997  45.4599988  13.5730012  58.1754997  44.5099988
  13.2220012  57.1724997  45.5889988  13.4702321  57.9707867  45.3475079
  14.8500012  58.1064997  41.1519988  14.1480012  58.7214997  40.9429988
  14.4060012  57.2684997  41.2829988  14.6936330  58.0775783  41.1410328
   2.0980012  73.8694997  40.6989988   1.4130012  73.8314997  40.0309988
   2.1020012  74.7824997  40.9869988   2.0048193  73.9877016  40.6465284
   4.0580012  59.8374997  38.2429988   4.5500012  59.2074997  37.7159988
   4.6820012  60.1334997  38.9069988   4.2095446  59.7913199  38.2605980
   9.0840012  60.1304997  40.6999988   9.2620012  59.4844997  41.3829988
   9.0310012  60.9644997  41.1679988   9.1011829  60.1547985  40.8565940
  10.9630012  75.0794997  39.0959988  11.8290012  75.4454997  38.9179988
  10.7160012  74.6394997  38.2819988  11.0482392  75.0701756  38.9616289
  17.6720012  74.6424997  41.7749988  17.4770012  73.8944997  41.2099988
  17.6330012  75.4004997  41.1919988  17.6400380  74.6426099  41.6188384
   3.3190012  58.6374997  53.5149988   2.9530012  57.8724997  53.9579988
   4.2320012  58.6664997  53.8019988   3.3922790  58.5367224  53.6144070
   5.2920012  57.9884997  55.0509988   6.1900012  57.7144997  54.8659988
   4.9050012  57.2454997  55.5149988   5.3626612  57.8505914  55.0883643
   3.9160012  74.7894997  37.7239988   3.6490012  75.0764997  38.5969988
   4.6880012  74.2434997  37.8759988   3.9837488  74.7550294  37.8641050
  13.7130012  57.3204997  55.2329988  13.7900012  56.8944997  56.0869988
  14.6070012  57.3344997  54.8899988  13.8443428  57.2640879  55.3035310
  16.8890012  73.3934997  53.9249988  16.1070012  73.2074997  53.4059988
  16.8170012  74.3224997  54.1429988  16.7721777  73.4936492  53.8834048
  31.2950012  67.2794997  43.9559988  31.3840012  68.2234997  43.8239988
  30.6570012  67.0044997  43.2979988  31.2209081  67.3714830  43.8489614
  30.2280012  66.5344997  47.3749988  30.1900012  65.8884997  48.0799988
  29.9060012  66.0684997  46.6039988  30.1792333  66.3829408  47.3672978
  22.5970012  66.1494997  48.9679988  22.6380012  65.5234997  49.6909988
  23.3000012  66.7734997  49.1499988  22.6976363  66.1481196  49.0916044
  33.9340012  69.4734997  45.6759988  33.4940012  68.7534997  46.1269988
  33.9210012  70.1944997  46.3059988  33.8720226  69.4723731  45.8228494
  23.5200012  70.5994997  47.5029988  23.1510012  69.7974997  47.1329988
  24.4610012  70.4304997  47.5489988  23.5967289  70.4670153  47.4586316
  20.1300012  64.2594997  42.8959988  19.6830012  65.1054997  42.8769988
  19.5690012  63.6794997  42.3799988  19.9929900  64.2969916  42.8236801
  20.8410012  66.4214997  45.0219988  21.0540012  65.6514997  45.5489988
  21.5790012  66.5104997  44.4179988  20.9698496  66.3281394  45.0125300
  31.0460012  74.5784997  45.8889988  31.6660012  73.9014997  45.6149988
  30.8380012  74.3604997  46.7969988  31.1026904  74.4563870  45.9743365
  28.6180012  68.9674997  47.7809988  28.9220012  68.2814997  47.1859988
  29.3390012  69.0854997  48.3989988  28.7570671  68.8896305  47.7831816
  37.2810012  60.5684997  48.6419988  37.3300012  61.1784997  49.3779988
  37.7060012  61.0294997  47.9189988  37.3451824  60.7143741  48.6450205
  31.7590012  63.3614997  48.1089988  31.9010012  62.4154997  48.1289988
  31.6520012  63.5684997  47.1799988  31.7639864  63.2599534  47.9862339
  24.9130012  61.4624997  45.3809988  24.9570012  62.3224997  44.9629988
  24.4560012  60.9104997  44.7469988  24.8572185  61.5055799  45.2380299
  32.6360012  61.5934997  43.7819988  33.2820012  61.2644997  44.4069988
  33.1460012  62.1114997  43.1589988  32.7934264  61.6184611  43.7833862
  21.5340012  63.8594997  46.1429988  22.1870012  63.3094997  46.5749988
  21.5580012  63.5854997  45.2259988  21.6266683  63.7471466  46.0782123
  26.6900012  65.4094997  45.3579988  27.3060012  64.8834997  45.8679988
  26.1040012  64.7694997  44.9549988  26.6950810  65.2509208  45.3733173
  37.6720012  62.0464997  50.8779988  36.9840012  62.7044997  50.7819988
  37.6880012  61.8494997  51.8139988  37.5798525  62.1100462  50.9914808
  23.7240012  60.3804997  49.4549988  23.5050012  60.9104997  48.6889988
  23.0560012  60.6074997  50.1019988  23.6037600  60.4836906  49.4376379
  31.0930012  69.8804997  42.9989988  30.7970012  69.5584997  42.1479988
  30.7680012  70.7804997  43.0399988  31.0086371  69.9580215  42.8881801
  26.2930012  68.0564997  49.7419988  25.5530012  68.6544997  49.8459988
  27.0070012  68.6104997  49.4269988  26.2882237  68.2132831  49.7136465
  34.4000012  60.8844997  45.7619988  34.1840012  60.1184997  46.2949988
  35.0550012  61.3564997  46.2749988  34.4590632  60.8435889  45.9042861
  23.3170012  62.2724997  47.4069988  23.9310012  62.9054997  47.7809988
  23.8290012  61.8004997  46.7509988  23.4702296  62.2952370  47.3694252
  24.7000012  70.0204997  50.5299988  24.6950012  70.9004997  50.1519988
  23.8470012  69.9374997  50.9549988  24.5839464  70.1296117  50.5357907
  20.8210012  69.6914997  41.3119988  20.5490012  69.9204997  40.4229988
  20.8670012  70.5294997  41.7719988  20.7900094  69.8361213  41.2525697
  34.4460012  71.3134997  48.0239988  33.5050012  71.3714997  48.1859988
  34.7230012  72.2194997  47.8869988  34.3544679  71.4439443  48.0276815
  34.7470012  59.5994997  49.4419988  34.0110012  60.2104997  49.4039988
  35.4300012  60.0144997  48.9149988  34.7386541  59.7391374  49.3655832
  27.7500012  57.6864997  46.9079988  27.6330012  56.7374997  46.8529988
  26.8950012  58.0184997  47.1809988  27.6183733  57.6015409  46.9373897
  32.6980012  73.0944997  44.6499988  33.1240012  72.3874997  44.1649988
  33.0150012  73.8954997  44.2329988  32.7991019  73.1060994  44.5273130
  33.8580012  70.9954997  43.1579988  33.6000012  70.3054997  42.5469988
  33.9290012  70.5524997  44.0039988  33.8322856  70.8412124  43.1886885
  35.5440012  69.5614997  51.6359988  35.6840012  68.9704997  50.8959988
  35.7110012  70.4344997  51.2789988  35.5856778  69.5986426  51.4866965
  30.0170012  66.5234997  41.4079988  29.3050012  67.0584997  41.0559988
  30.7080012  66.5794997  40.7479988  30.0130132  66.6042543  41.2706289
  30.0700012  64.9814997  38.4469988  30.7710012  65.0034997  39.0979988
  30.3730012  64.3534997  37.7909988  30.2067830  64.8996566  38.4473711
  37.3860012  65.9014997  49.7019988  36.7330012  66.5964997  49.7909988
  37.8510012  66.1114997  48.8919988  37.3595390  66.0249425  49.6046883
  33.4220012  66.7334997  42.3599988  32.6900012  66.9614997  42.9329988
  33.8700012  66.0194997  42.8149988  33.3823095  66.6682571  42.4999119
  33.3200012  64.9074997  51.4269988  33.4000012  65.6704997  51.9989988
  32.7180012  65.1864997  50.7369988  33.2495756  65.0497134  51.4120589
  25.0680012  67.3634997  44.2419988  24.7370012  66.9934997  43.4239988
  25.6560012  66.6934997  44.5889988  25.1021873  67.2221156  44.1768102
  26.4340012  70.7914997  46.9239988  26.3400012  70.2134997  46.1669988
  27.1640012  70.4204997  47.4199988  26.5197981  70.6622390  46.8874165
  25.4340012  66.1324997  47.8759988  26.0000012  66.2534997  47.1129988
  25.7530012  66.7694997  48.5149988  25.5545786  66.2351884  47.8580040
  31.7430012  71.6354997  48.6099988  31.5030012  72.2974997  49.2579988
  31.5450012  70.8014997  49.0349988  31.6833808  71.6133134  48.7561524
  26.3140012  70.5314997  52.5929988  26.0030012  71.3134997  53.0479988
  25.6640012  70.3784997  51.9069988  26.1835558  70.6179105  52.5625871
  32.2930012  65.8954997  40.0449988  32.8730012  66.0454997  40.7919988
  32.7070012  66.3664997  39.3219988  32.4282830  65.9796841  40.0494134
  23.2340012  66.7294997  51.8219988  23.3050012  67.3804997  52.5199988
  22.3440012  66.8324997  51.4869988  23.1233117  66.8325936  51.8722700
  30.0200012  72.6324997  43.4799988  30.4940012  72.9274997  44.2579988
  29.4570012  73.3704997  43.2469988  30.0087653  72.7726932  43.5550136
  24.5540012  72.6034997  53.3559988  24.5610012  72.4674997  52.4089988
  23.6380012  72.4854997  53.6079988  24.4311714  72.5689430  53.2604666
  35.9920012  57.6454997  39.8579988  35.0920012  57.7844997  40.1529988
  36.2440012  58.4764997  39.4559988  35.9028702  57.7769074  39.8440205
  24.0580012  66.4334997  41.8319988  23.7660012  67.2014997  41.3409988
  23.3840012  65.7734997  41.6689988  23.9269081  66.4494406  41.7427340
  37.1810012  72.0114997  38.2339988  37.2550012  72.9504997  38.4049988
  38.0870012  71.7064997  38.1779988  37.3135100  72.0986722  38.2498119
  20.1510012  68.7964997  50.6469988  19.6500012  68.7684997  49.8319988
  20.1560012  67.8904997  50.9559988  20.0831526  68.6702278  50.5772872
  19.9010012  71.5764997  47.5309988  20.8470012  71.4324997  47.5119988
  19.7890012  72.3604997  48.0679988  20.0152727  71.6628046  47.6010072
  38.0990012  72.2424997  53.2129988  38.0500012  71.2874997  53.1759988
  37.2720012  72.5104997  53.6139988  37.9804940  72.1478998  53.2621375
  29.0780012  71.8164997  52.0889988  29.1650012  72.6424997  52.5639988
  28.2140012  71.4864997  52.3379988  28.9731964  71.8849878  52.1876549
  29.4920012  75.5884997  41.8949988  29.4170012  75.4674997  40.9489988
  29.5250012  76.5384997  42.0139988  29.4861848  75.7002500  41.7814834
  23.1450012  74.3774997  43.6759988  23.2980012  74.0294997  44.5549988
  22.2950012  74.0214997  43.4209988  23.0508962  74.2816650  43.7618340
  32.5940012  74.7424997  38.8969988  32.9690012  73.9984997  38.4269988
  32.5980012  74.4724997  39.8159988  32.6458915  74.6041486  38.9567824
  32.2630012  74.6684997  41.6469988  31.3270012  74.7684997  41.8249988
  32.5430012  73.9594997  42.2249988  32.1728255  74.5862711  41.7495391
  35.2510012  63.7354997  53.6929988  34.8440012  64.2164997  52.9719988
  35.2920012  62.8304997  53.3849988  35.2008437  63.6789374  53.5526683
  22.4000012  70.1194997  51.6899988  22.6160012  69.7584997  52.5489988
  21.5450012  69.7454997  51.4799988  22.3139292  70.0194111  51.7793386
  25.0190012  58.5894997  47.6849988  24.1570012  58.5024997  47.2779988
  24.9960012  59.4454997  48.1129988  24.8980330  58.6932765  47.6871863
  29.6820012  58.3114997  51.0599988  30.1020012  57.8964997  51.8129988
  28.7490012  58.1334997  51.1769988  29.6133644  58.2305900  51.1789539
  33.0080012  62.0674997  51.9129988  32.4940012  61.9414997  52.7109988
  32.8530012  62.9794997  51.6689988  32.9166852  62.1736132  51.9892158
  33.7710012  66.9284997  37.6749988  33.8130012  66.7054997  36.7449988
  34.6200012  67.3274997  37.8649988  33.8915396  66.9519155  37.5733627
  29.3430012  60.8044997  38.3449988  29.0900012  60.8234997  39.2679988
  29.0870012  59.9324997  38.0439988  29.2737790  60.6892437  38.4306263
  25.1100012  63.5554997  48.7799988  24.4680012  63.5144997  49.4889988
  25.1470012  64.4814997  48.5429988  25.0271324  63.6751559  48.8449824
  25.1070012  63.7764997  43.6919988  24.2140012  63.4354997  43.6339988
  25.5570012  63.3994997  42.9369988  25.0457305  63.6788484  43.5819177
  30.6420012  64.1924997  42.5089988  30.2330012  65.0074997  42.2179988
  31.3630012  64.0524997  41.8949988  30.6834537  64.2852018  42.3861342
  29.7440012  64.3674997  53.9969988  29.1820012  63.6634997  54.3179988
  30.5710012  64.2474997  54.4649988  29.7787095  64.2547883  54.1042330
  31.6470012  63.6384997  45.3229988  31.4520012  64.2434997  44.6079988
  31.8280012  62.8044997  44.8889988  31.6447614  63.6086300  45.1664405
  22.8600012  63.8754997  50.6469988  22.8220012  64.2754997  51.5159988
  22.3690012  63.0584997  50.7379988  22.7884684  63.8198069  50.7781059
  26.2260012  61.2494997  37.4459988  25.7950012  60.8044997  38.1759988
  25.5080012  61.6214997  36.9339988  26.0699438  61.2388940  37.4766799
  19.4680012  60.9914997  44.4979988  20.0990012  60.9624997  45.2169988
  19.9170012  60.5664997  43.7679988  19.6150774  60.9300492  44.4976553
  20.7420012  61.7374997  39.9219988  21.2160012  62.3284997  39.3369988
  20.0250012  62.2684997  40.2689988  20.7099341  61.8900867  39.8888836
  30.9110012  65.2764997  49.9949988  31.2340012  64.6454997  49.3519988
  30.4710012  64.7414997  50.6549988  30.8956895  65.1178441  49.9962850
  27.6880012  61.2034997  44.7789988  26.7770012  61.2604997  45.0669988
  28.1940012  61.1434997  45.5889988  27.6315413  61.2031985  44.9280622
  22.5170012  62.8324997  43.6049988  21.6270012  62.9324997  43.2649988
  22.8130012  61.9904997  43.2589988  22.4352823  62.7323545  43.5117213
  26.1700012  62.8324997  41.2619988  27.1010012  62.9614997  41.4399988
  25.9550012  63.5024997  40.6119988  26.2684247  62.9406565  41.1985747
  32.0930012  60.4384997  48.0429988  31.4170012  60.5694997  48.7069988
  31.6080012  60.2834997  47.2329988  31.9347145  60.4354905  48.0244517
  24.8440012  64.0274997  38.8289988  24.3010012  63.6474997  38.1369988
  25.6770012  64.2214997  38.3999988  24.8824399  64.0018124  38.6764526
  35.3810012  76.1104997  54.3199988  35.5810012  76.5344997  53.4849988
  36.0360012  76.4534997  54.9269988  35.4970051  76.2149648  54.2877836
  22.9790012  68.5844997  53.9279988  23.7110012  68.8384997  54.4889988
  22.1990012  68.7884997  54.4429988  22.9738232  68.6469177  54.0745760
  29.0080012  63.9914997  46.6659988  29.5730012  63.4444997  46.1189988
  28.8610012  63.4694997  47.4539988  29.0652918  63.8462024  46.6978454
  24.0100012  60.1274997  43.0839988  23.6930012  59.2254997  43.0489988
  24.7920012  60.1294997  42.5309988  24.0722284  60.0041628  43.0044783
  27.6350012  62.3794997  49.0799988  26.7990012  62.8334997  49.1899988
  28.1590012  62.6554997  49.8319988  27.5914414  62.4789376  49.1967136
  28.1790012  68.5924997  40.7639988  27.4340012  68.0854997  40.4419988
  28.0450012  68.6414997  41.7109988  28.0588776  68.5296940  40.8478647
  35.3290012  67.7254997  49.5509988  35.9710012  68.1824997  49.0069988
  34.4990012  67.8384997  49.0879988  35.3045963  67.8032704  49.4140177
  32.0770012  61.4064997  38.9639988  31.1380012  61.5184997  38.8119988
  32.3740012  62.2634997  39.2699988  31.9887666  61.5376443  38.9845768
  29.6980012  68.7764997  52.0009988  29.3530012  68.3954997  52.8079988
  29.4980012  69.7104997  52.0729988  29.6238061  68.8505228  52.1210961
  32.7950012  63.2734997  40.6239988  33.6870012  63.1364997  40.9429988
  32.8520012  64.0644997  40.0879988  32.9246285  63.3616660  40.5951690
  23.3040012  67.8874997  46.5339988  24.0490012  67.8854997  45.9329988
  23.3820012  67.0644997  47.0159988  23.4165518  67.7759315  46.5168929
  30.3050012  70.0514997  39.7899988  30.0090012  70.8774997  40.1709988
  29.6020012  69.4314997  39.9859988  30.1694914  70.0808199  39.8686443
  20.3120012  66.3484997  51.8489988  20.5350012  65.9304997  52.6809988
  19.7100012  65.7354997  51.4259988  20.2611759  66.2084668  51.9057022
  27.3280012  65.8654997  54.0619988  27.0320012  65.6994997  53.1669988
  28.2600012  65.6454997  54.0509988  27.4134166  65.8130640  53.9380536
  31.9490012  71.2384997  51.9519988  31.0480012  71.4214997  51.6839988
  31.9830012  71.4974997  52.8729988  31.8303041  71.2985512  52.0398197
  37.6800012  63.4834997  40.3189988  37.1260012  63.0874997  39.6469988
  37.7800012  64.3934997  40.0409988  37.6177059  63.5523586  40.1894401
  37.6430012  69.2834997  53.1559988  36.7920012  69.5214997  52.7889988
  38.2340012  69.2664997  52.4029988  37.6062487  69.3138258  53.0038893
  35.9750012  72.2694997  40.7839988  35.6020012  71.4434997  41.0929988
  36.2530012  72.0864997  39.8869988  35.9615630  72.1317303  40.7049626
  33.1360012  67.0774997  47.8049988  32.2070012  66.8454997  47.7779988
  33.5870012  66.3004997  47.4749988  33.0699216  66.9407238  47.7566917
  25.6790012  71.4054997  43.9379988  26.2060012  72.1784997  43.7379988
  24.7990012  71.6304997  43.6369988  25.6321773  71.5418005  43.8699010
  21.4340012  66.2674997  38.5249988  22.0500012  66.8944997  38.9049988
  20.5720012  66.5834997  38.7969988  21.4017698  66.3959430  38.6137183
  27.1060012  69.0684997  43.5149988  26.8650012  69.9934997  43.5559988
  26.3650012  68.6094997  43.9109988  26.9728409  69.1331421  43.5741377
  27.6210012  73.2174997  49.8299988  27.9830012  74.0724997  49.5959988
  28.1520012  72.9254997  50.5699988  27.7424473  73.2951060  49.8980855
  25.7890012  74.0904997  43.0599988  24.8390012  74.1954997  43.1109988
  26.1410012  74.9104997  43.4049988  25.7064203  74.2158314  43.1136650
  31.1650012  69.3164997  49.5299988  30.7390012  69.0894997  50.3569988
  31.7450012  68.5784997  49.3479988  31.1851868  69.1855299  49.6185830
  33.3680012  70.2454997  38.6039988  33.7210012  69.8654997  39.4089988
  32.4190012  70.1524997  38.6909988  33.2880441  70.1809596  38.7258559
  33.8230012  73.8684997  51.9999988  33.2220012  73.3134997  51.5039988
  34.1050012  74.5354997  51.3739988  33.7788519  73.8826841  51.8474952
  37.8710012  74.7254997  38.8049988  38.6150012  75.3114997  38.6649988
  37.1770012  75.2934997  39.1389988  37.8790292  74.8825582  38.8309961
  21.9460012  61.1014997  51.4069988  21.0530012  61.4404997  51.3389988
  21.8470012  60.2464997  51.8249988  21.8104164  61.0322588  51.4542235
  34.2340012  68.9184997  40.8309988  33.9560012  68.1904997  41.3869988
  35.1610012  69.0374997  41.0359988  34.3213124  68.8348802  40.9348845
  21.5970012  72.9064997  49.8419988  21.8140012  71.9744997  49.8109988
  21.8430012  73.1804997  50.7249988  21.6599549  72.8160636  49.9571763
  27.4590012  71.3574997  37.0509988  27.6980012  70.6094997  36.5039988
  27.1900012  70.9694997  37.8839988  27.4553675  71.2026638  37.0886865
  26.3960012  70.9274997  39.5079988  26.5420012  70.4074997  40.2979988
  26.3930012  71.8344997  39.8139988  26.4155989  70.9788853  39.6576088
  22.8490012  68.1804997  40.0179988  22.1630012  68.5324997  40.5849988
  23.3710012  68.9434997  39.7709988  22.8256852  68.3318578  40.0622118
  30.6800012  60.8424997  50.2969988  31.3790012  60.9164997  50.9469988
  30.2990012  59.9784997  50.4509988  30.7241767  60.7357624  50.4068322
  31.4650012  60.4944997  41.3939988  31.6850012  60.9664997  40.5909988
  32.0230012  60.8894997  42.0639988  31.5704968  60.6124285  41.3747331
  29.1330012  72.6254997  40.2569988  28.3170012  73.1224997  40.3089988
  29.6630012  73.1004997  39.6169988  29.0929161  72.7577722  40.1775956
  28.6650012  62.2224997  42.2289988  29.4770012  62.7274997  42.2749988
  28.4200012  62.0774997  43.1429988  28.7430520  62.2720375  42.3588517
  29.2000012  63.2084997  51.4139988  29.3190012  63.7824997  52.1709988
  29.8560012  62.5204997  51.5279988  29.3049757  63.1941079  51.5330825
  29.5480012  59.3034997  43.1669988  29.2020012  59.9214997  43.8119988
  30.2070012  59.8044997  42.6859988  29.5897826  59.4555802  43.1900971
  26.4720012  73.6694997  40.2389988  26.6320012  74.4684997  39.7379988
  26.2740012  73.9754997  41.1239988  26.4671649  73.8204469  40.2899815
  25.2060012  60.3664997  39.8539988  25.1230012  61.2554997  40.2009988
  26.0960012  60.1014997  40.0859988  25.3149469  60.4521430  39.9327626
  35.4050012  61.1154997  52.2489988  34.4880012  61.3784997  52.1609988
  35.7400012  61.1124997  51.3519988  35.3249900  61.1510224  52.1157919
  34.0070012  64.8664997  46.3439988  33.2090012  64.4514997  46.0159988
  34.4520012  64.1754997  46.8349988  33.9579885  64.7163543  46.3654889
  23.4650012  70.7944997  38.9149988  24.0570012  71.4934997  39.1909988
  23.9240012  70.3614997  38.1949988  23.6081142  70.8317049  38.8554830
  21.7810012  63.4584997  38.0309988  21.7360012  64.3974997  38.2089988
  20.8930012  63.2224997  37.7609988  21.6548574  63.5551892  38.0188912
  35.0930012  74.1224997  47.9669988  34.9380012  74.8004997  47.3099988
  36.0260012  74.1944997  48.1699988  35.1978500  74.2250170  47.9045119
  22.5890012  58.2404997  46.7039988  22.3600012  58.2994997  45.7759988
  22.1460012  57.4484997  47.0099988  22.4978530  58.1415753  46.6184786
  21.5190012  72.1804997  42.8639988  20.6870012  72.6534997  42.8919988
  22.0650012  72.6904997  42.2659988  21.4789739  72.3141871  42.7869716
  20.8070012  74.7934997  54.1939988  21.3480012  74.5764997  54.9539988
  20.3260012  73.9874997  54.0049988  20.8159345  74.6549514  54.2723076
  25.4050012  73.7124997  55.8149988  26.1720012  73.2534997  56.1559988
  25.3830012  73.4864997  54.8849988  25.5071434  73.6190409  55.7360043
  29.4970012  73.2204997  37.1899988  28.8530012  72.5894997  37.5109988
  30.2590012  72.6894997  36.9579988  29.5118077  73.0622920  37.2026011
  31.9820012  72.0924997  54.5439988  31.6310012  71.2364997  54.7869988
  32.7080012  72.2354997  55.1509988  32.0320769  71.9945636  54.6593619
  34.1010012  73.0374997  37.4239988  34.3840012  72.2434997  37.8759988
  34.8410012  73.2704997  36.8629988  34.2397486  72.9602803  37.4100698
  20.7140012  68.6034997  55.1489988  20.8580012  67.7014997  54.8619988
  19.9420012  68.8894997  54.6609988  20.6293322  68.5188261  55.0437881
  25.0560012  68.9474997  37.2809988  25.1200012  68.1534997  37.8119988
  25.7090012  68.8284997  36.5909988  25.1530241  68.8227148  37.2604317
  27.3700012  68.5734997  54.5809988  27.0410012  68.8444997  53.7239988
  27.5220012  67.6324997  54.4939988  27.3454809  68.4833862  54.4518244
  30.4080012  69.9944997  37.0169988  30.1390012  70.1744997  37.9179988
  30.2020012  69.0684997  36.8859988  30.3433825  69.8940152  37.1225214
  33.1040012  68.4894997  51.9649988  33.8500012  69.0774997  51.8449988
  32.3470012  69.0714997  52.0279988  33.1037554  68.6487011  51.9570907
  21.5470012  65.8034997  54.5689988  21.9550012  64.9464997  54.4479988
  21.2870012  65.8184997  55.4899988  21.5677568  65.6880807  54.6769588
  26.2050012  66.9194997  39.5869988  25.7450012  66.4354997  40.2729988
  26.4600012  66.2514997  38.9509988  26.1764902  66.7628731  39.5949334
  25.4940012  64.8124997  51.9429988  24.8760012  65.4874997  52.2229988
  25.8380012  65.1334997  51.1099988  25.4559615  64.9482721  51.8686581
  27.2760012  65.1624997  37.8489988  27.0960012  65.0084997  36.9219988
  28.2260012  65.2704997  37.8939988  27.3797776  65.1560175  37.7281843
  30.5140012  67.2844997  55.2199988  31.4670012  67.3674997  55.1929988
  30.3530012  66.5724997  55.8399988  30.6226426  67.1996746  55.3000579
  36.6660012  67.5174997  37.2949988  36.3920012  67.0924997  36.4819988
  36.7050012  68.4484997  37.0779988  36.6337699  67.5852484  37.1543610
  25.8330012  62.1674997  53.0249988  25.9830012  61.4384997  52.4229988
  25.8360012  62.9444997  52.4659988  25.8539302  62.1727851  52.8670692
  26.2460012  60.5374997  50.5179988  26.7820012  60.9884997  49.8659988
  25.3940012  60.4294997  50.0949988  26.2042178  60.5846390  50.3715756
  27.8280012  65.9764997  50.7569988  28.5780012  65.8204997  50.1839988
  27.4890012  66.8284997  50.4819988  27.8848921  66.0702968  50.6413561
  32.2430012  63.7914997  55.7859988  32.4360012  62.8604997  55.6739988
  33.1010012  64.2164997  55.7759988  32.3853020  63.7216389  55.7693361
  33.5600012  66.5804997  53.8629988  33.2790012  67.2894997  53.2859988
  34.5030012  66.5074997  53.7119988  33.6489027  66.6677646  53.7635551
  24.3120012  63.3654997  54.9369988  23.5450012  62.8334997  54.7269988
  24.9910012  63.0554997  54.3369988  24.2987022  63.2507506  54.8271648
  27.0520012  57.9934997  50.9489988  26.9530012  58.9404997  50.8439988
  26.3090012  57.6214997  50.4739988  26.9380564  58.0725902  50.8704560
  28.3160012  62.3154997  54.5129988  28.0800012  62.0954997  55.4149988
  27.5320012  62.1084997  54.0029988  28.1778628  62.2574760  54.5673932
  31.0310012  61.4424997  53.5889988  30.0840012  61.4744997  53.7209988
  31.3440012  60.8174997  54.2419988  30.9435475  61.3623207  53.6954455
  32.6650012  60.0764997  55.5939988  32.5690012  59.1244997  55.5879988
  32.3440012  60.3454997  56.4539988  32.6084070  59.9824035  55.7095441
  22.4920012  61.2864997  54.6409988  22.7040012  60.5794997  54.0309988
  22.3810012  60.8484997  55.4849988  22.5059721  61.1307084  54.6716843
  27.2730012  57.2874997  53.6209988  27.9850012  56.6474997  53.6069988
  27.1720012  57.5544997  52.7069988  27.3567939  57.2359938  53.4955650
  27.6270012  58.9704997  55.6739988  27.4950012  58.4944997  54.8539988
  27.0280012  59.7144997  55.6189988  27.5279071  59.0059618  55.5542886
  27.1730012  75.8534997  38.8509988  28.1060012  76.0114997  38.9939988
  26.9090012  76.5284997  38.2259988  27.2649510  75.9663611  38.7860741
  20.7420012  70.4894997  38.3329988  21.6560012  70.5684997  38.6069988
  20.7490012  69.8024997  37.6669988  20.8681131  70.4073961  38.2804393
  19.3910012  75.8824997  43.4109988  18.7440012  75.4204997  42.8779988
  19.7450012  75.2104997  43.9929988  19.3503849  75.7284723  43.4167959
  20.2610012  73.9634997  45.2149988  19.9260012  73.0834997  45.3869988
  20.4830012  74.3084997  46.0799988  20.2451783  73.8897500  45.3554208
  37.8090012  74.7724997  48.1959988  37.7880012  74.9574997  49.1349988
  38.5000012  75.3414997  47.8549988  37.8994618  74.8746606  48.2783864
  37.3730012  74.3404997  51.1179988  36.8850012  73.6044997  50.7469988
  37.9220012  73.9464997  51.7959988  37.3804872  74.1866249  51.1589160
  35.8230012  70.1294997  55.7559988  34.9570012  70.0244997  56.1499988
  36.2000012  70.8884997  56.2019988  35.7553308  70.2176900  55.8702393
  37.1240012  68.3864997  41.2699988  37.9740012  68.8074997  41.3969988
  37.1300012  67.6464997  41.8769988  37.2411372  68.3440803  41.3694344
  37.5190012  66.4394997  43.0939988  36.7920012  65.9604997  43.4909988
  38.1000012  66.6454997  43.8259988  37.4979375  66.4017090  43.2474129
  37.2780012  69.2244997  48.0409988  38.1110012  68.8464997  47.7609988
  37.3900012  70.1674997  47.9219988  37.4072647  69.3002218  47.9865487
  35.7640012  72.1024997  50.3479988  35.1170012  72.4274997  50.9739988
  35.2470012  71.6624997  49.6739988  35.6054029  72.0875004  50.3425827
  37.7870012  66.3404997  39.4849988  37.2650012  66.6974997  38.7659988
  37.7540012  67.0154997  40.1629988  37.7111634  66.4805413  39.4783145
  36.1360012  63.5804997  38.0359988  36.2320012  64.2474997  37.3549988
  35.9960012  62.7644997  37.5539988  36.1302135  63.5614500  37.8778491
  35.3050012  64.9604997  43.6569988  35.1550012  64.0154997  43.6359988
  34.9520012  65.2414997  44.4999988  35.2366625  64.8690441  43.7682346
  20.3410012  67.0384997  47.6669988  20.5250012  66.9564997  46.7309988
  21.1900012  66.9144997  48.0909988  20.4810139  67.0105003  47.5961455
  36.1620012  66.9304997  53.2949988  36.7450012  66.1964997  53.4869988
  36.7260012  67.7024997  53.3419988  36.3179769  66.9344227  53.3276159
  37.6580012  64.8334997  53.9799988  36.7950012  64.4544997  53.8139988
  38.2630012  64.0944997  53.9059988  37.6215979  64.6818023  53.9472817
  35.3830012  60.9884997  37.1529988  35.9940012  60.6174997  37.7899988
  34.5470012  60.5674997  37.3489988  35.3535032  60.8807554  37.2667035
  35.0160012  62.5434997  42.1189988  35.2960012  61.6364997  42.2429988
  35.7750012  62.9774997  41.7299988  35.1569277  62.4780942  42.0833682
  35.6280012  63.1244997  47.5549988  36.5610012  63.3364997  47.5209988
  35.3930012  63.2264997  48.4769988  35.7238036  63.1672769  47.6749976
  35.6570012  63.8614997  50.3309988  34.8140012  64.1294997  50.6969988
  36.0990012  64.6834997  50.1199988  35.6014158  64.0093291  50.3525491
  19.9380012  62.3094997  53.8079988  20.8580012  62.1874997  54.0439988
  19.4890012  61.5594997  54.1969988  20.0031580  62.1913727  53.8929006
  37.9400012  57.8414997  55.6839988  38.2900012  57.1874997  55.0789988
  38.0870012  58.6784997  55.2449988  38.0078419  57.8651591  55.5417118
  35.6290012  59.8064997  42.1669988  35.8120012  59.3574997  42.9929988
  35.0300012  59.2214997  41.7039988  35.5730202  59.6659975  42.2173275
  21.1590012  60.6214997  46.6989988  21.6050012  59.8294997  47.0009988
  21.6260012  61.3374997  47.1299988  21.2830172  60.6100624  46.7984820
  19.4630012  63.6204997  47.7679988  19.9550012  63.3994997  46.9769988
  19.8260012  64.4614997  48.0489988  19.5793126  63.7038357  47.6977531
  37.4600012  59.9504997  54.0339988  36.5420012  60.2214997  53.9979988
  37.5830012  59.4154997  53.2489988  37.3511066  59.9152892  53.9230487
  37.4960012  59.8734997  38.6949988  37.9080012  59.1524997  38.2199988
  38.1780012  60.5434997  38.7539988  37.6445885  59.8652368  38.6378915
  19.7770012  59.8784997  41.8219988  18.8520012  60.0874997  41.6929988
  20.2310012  60.3624997  41.1329988  19.7117368  59.9725993  41.7111226
  34.5480012  74.8624997  43.7679988  35.2000012  74.5154997  43.1599988
  35.0580012  75.3514997  44.4139988  34.7062637  74.8810597  43.7720236
  19.7410012  58.6164997  50.1669988  19.0760012  58.3704997  50.8099988
  19.2980012  59.2384997  49.5889988  19.5900956  58.6668632  50.1769352
  21.9330012  71.7914997  54.3109988  21.1120012  71.9664997  53.8509988
  21.6800012  71.7184997  55.2319988  21.7866164  71.8055622  54.3724923
  24.8870012  72.7664997  50.5699988  24.4620012  73.5754997  50.2869988
  25.7910012  72.8514997  50.2679988  24.9510271  72.8888469  50.4903776
  29.1980012  74.1654997  53.5289988  29.3830012  73.8314997  54.4069988
  30.0440012  74.4744997  53.2069988  29.3377539  74.1616047  53.6055605
  31.5430012  75.4514997  52.7729988  32.2200012  74.8184997  52.5329988
  31.8650012  75.8524997  53.5799988  31.6791637  75.4191154  52.8492793
  36.4600012  58.0404997  51.8529988  35.6480012  58.3654997  51.4649988
  36.6930012  57.2804997  51.3199988  36.3803423  57.9822436  51.7278253
  22.2890012  76.0224997  50.6169988  21.5680012  76.4624997  50.1659988
  21.9230012  75.7714997  51.4659988  22.1409804  76.0487698  50.6699840
  24.7560012  75.6224997  49.6469988  23.8910012  75.6944997  50.0509988
  24.7010012  76.1694997  48.8629988  24.6302085  75.7062685  49.5963362
  29.4660012  75.5104997  48.8219988  29.0100012  76.0394997  48.1679988
  29.6290012  76.1134997  49.5479988  29.4255585  75.6644468  48.8305062
  31.7940012  74.3884997  49.7669988  30.8890012  74.5534997  49.5019988
  32.2230012  75.2414997  49.7019988  31.7280799  74.5264483  49.7219182
  34.3980012  75.9584997  50.0619988  34.2160012  76.8744997  49.8519988
  34.5750012  75.5484997  49.2159988  34.3970210  76.0284822  49.9187885
  21.7030012  74.6454997  47.5269988  21.6850012  74.2204997  48.3849988
  22.5080012  74.3274997  47.1189988  21.8093875  74.5443812  47.5891655
  23.8450012  73.3554997  46.1819988  23.6260012  72.4394997  46.3519988
  24.6690012  73.4954997  46.6479988  23.9264420  73.2490520  46.2682774
  26.3820012  73.8254997  47.0309988  26.5950012  72.9374997  46.7439988
  26.4460012  73.7914997  47.9849988  26.4198231  73.6993102  47.1207397
  29.8900012  59.4894997  46.1749988  29.2160012  58.8604997  46.4309988
  30.4540012  59.0054997  45.5719988  29.8739230  59.3378744  46.1285340
  35.0330012  57.5974997  46.2879988  35.6370012  58.1444997  45.7859988
  34.1630012  57.9164997  46.0479988  34.9981241  57.7155806  46.1867654
  36.7600012  58.7354997  44.6209988  37.3720012  58.2214997  44.0949988
  37.1420012  59.6134997  44.6449988  36.8954540  58.7837140  44.5521830
  22.2170012  58.1234997  43.9969988  21.4400012  57.8894997  43.4899988
  22.7470012  57.3264997  44.0059988  22.1822330  57.9836988  43.9287742
  21.0530012  57.9214997  39.8009988  21.4920012  58.5324997  39.2089988
  20.4200012  58.4594997  40.2749988  21.0274514  58.0779257  39.7840930
  26.7960012  58.0504997  43.8109988  27.6710012  58.4384997  43.7809988
  26.6600012  57.8354997  44.7329988  26.8973695  58.0745184  43.9316440
  32.3530012  58.0804997  45.4599988  32.4290012  58.1754997  44.5099988
  32.0780012  57.1724997  45.5889988  32.3262321  57.9707867  45.3475079
  33.7060012  58.1064997  41.1519988  33.0040012  58.7214997  40.9429988
  33.2620012  57.2684997  41.2829988  33.5496330  58.0775783  41.1410328
  20.9540012  73.8694997  40.6989988  20.2690012  73.8314997  40.0309988
  20.9580012  74.7824997  40.9869988  20.8608193  73.9877016  40.6465284
  22.9140012  59.8374997  38.2429988  23.4060012  59.2074997  37.7159988
  23.5380012  60.1334997  38.9069988  23.0655446  59.7913199  38.2605980
  27.9400012  60.1304997  40.6999988  28.1180012  59.4844997  41.3829988
  27.8870012  60.9644997  41.1679988  27.9571829  60.1547985  40.8565940
  29.8190012  75.0794997  39.0959988  30.6850012  75.4454997  38.9179988
  29.5720012  74.6394997  38.2819988  29.9042392  75.0701756  38.9616289
  36.5280012  74.6424997  41.7749988  36.3330012  73.8944997  41.2099988
  36.4890012  75.4004997  41.1919988  36.4960380  74.6426099  41.6188384
  22.1750012  58.6374997  53.5149988  21.8090012  57.8724997  53.9579988
  23.0880012  58.6664997  53.8019988  22.2482790  58.5367224  53.6144070
  24.1480012  57.9884997  55.0509988  25.0460012  57.7144997  54.8659988
  23.7610012  57.2454997  55.5149988  24.2186612  57.8505914  55.0883643
  22.7720012  74.7894997  37.7239988  22.5050012  75.0764997  38.5969988
  23.5440012  74.2434997  37.8759988  22.8397488  74.7550294  37.8641050
  32.5690012  57.3204997  55.2329988  32.6460012  56.8944997  56.0869988
  33.4630012  57.3344997  54.8899988  32.7003428  57.2640879  55.3035310
  35.7450012  73.3934997  53.9249988  34.9630012  73.2074997  53.4059988
  35.6730012  74.3224997  54.1429988  35.6281777  73.4936492  53.8834048
  50.1510012  67.2794997  43.9559988  50.2400012  68.2234997  43.8239988
  49.5130012  67.0044997  43.2979988  50.0769081  67.3714830  43.8489614
  49.0840012  66.5344997  47.3749988  49.0460012  65.8884997  48.0799988
  48.7620012  66.0684997  46.6039988  49.0352333  66.3829408  47.3672978
  41.4530012  66.1494997  48.9679988  41.4940012  65.5234997  49.6909988
  42.1560012  66.7734997  49.1499988  41.5536363  66.1481196  49.0916044
  52.7900012  69.4734997  45.6759988  52.3500012  68.7534997  46.1269988
  52.7770012  70.1944997  46.3059988  52.7280226  69.4723731  45.8228494
  42.3760012  70.5994997  47.5029988  42.0070012  69.7974997  47.1329988
  43.3170012  70.4304997  47.5489988  42.4527289  70.4670153  47.4586316
  38.9860012  64.2594997  42.8959988  38.5390012  65.1054997  42.8769988
  38.4250012  63.6794997  42.3799988  38.8489900  64.2969916  42.8236801
  39.6970012  66.4214997  45.0219988  39.9100012  65.6514997  45.5489988
  40.4350012  66.5104997  44.4179988  39.8258496  66.3281394  45.0125300
  49.9020012  74.5784997  45.8889988  50.5220012  73.9014997  45.6149988
  49.6940012  74.3604997  46.7969988  49.9586904  74.4563870  45.9743365
  47.4740012  68.9674997  47.7809988  47.7780012  68.2814997  47.1859988
  48.1950012  69.0854997  48.3989988  47.6130671  68.8896305  47.7831816
  56.1370012  60.5684997  48.6419988  56.1860012  61.1784997  49.3779988
  56.5620012  61.0294997  47.9189988  56.2011824  60.7143741  48.6450205
  50.6150012  63.3614997  48.1089988  50.7570012  62.4154997  48.1289988
  50.5080012  63.5684997  47.1799988  50.6199863  63.2599534  47.9862339
  43.7690012  61.4624997  45.3809988  43.8130012  62.3224997  44.9629988
  43.3120012  60.9104997  44.7469988  43.7132185  61.5055799  45.2380299
  51.4920012  61.5934997  43.7819988  52.1380012  61.2644997  44.4069988
  52.0020012  62.1114997  43.1589988  51.6494264  61.6184611  43.7833862
  40.3900012  63.8594997  46.1429988  41.0430012  63.3094997  46.5749988
  40.4140012  63.5854997  45.2259988  40.4826683  63.7471466  46.0782123
  45.5460012  65.4094997  45.3579988  46.1620012  64.8834997  45.8679988
  44.9600012  64.7694997  44.9549988  45.5510810  65.2509208  45.3733173
  56.5280012  62.0464997  50.8779988  55.8400012  62.7044997  50.7819988
  56.5440012  61.8494997  51.8139988  56.4358525  62.1100462  50.9914808
  42.5800012  60.3804997  49.4549988  42.3610012  60.9104997  48.6889988
  41.9120012  60.6074997  50.1019988  42.4597600  60.4836906  49.4376379
  49.9490012  69.8804997  42.9989988  49.6530012  69.5584997  42.1479988
  49.6240012  70.7804997  43.0399988  49.8646371  69.9580215  42.8881801
  45.1490012  68.0564997  49.7419988  44.4090012  68.6544997  49.8459988
  45.8630012  68.6104997  49.4269988  45.1442237  68.2132831  49.7136465
  53.2560012  60.8844997  45.7619988  53.0400012  60.1184997  46.2949988
  53.9110012  61.3564997  46.2749988  53.3150632  60.8435889  45.9042861
  42.1730012  62.2724997  47.4069988  42.7870012  62.9054997  47.7809988
  42.6850012  61.8004997  46.7509988  42.3262296  62.2952370  47.3694252
  43.5560012  70.0204997  50.5299988  43.5510012  70.9004997  50.1519988
  42.7030012  69.9374997  50.9549988  43.4399464  70.1296117  50.5357907
  39.6770012  69.6914997  41.3119988  39.4050012  69.9204997  40.4229988
  39.7230012  70.5294997  41.7719988  39.6460094  69.8361213  41.2525697
  53.3020012  71.3134997  48.0239988  52.3610012  71.3714997  48.1859988
  53.5790012  72.2194997  47.8869988  53.2104679  71.4439443  48.0276815
  53.6030012  59.5994997  49.4419988  52.8670012  60.2104997  49.4039988
  54.2860012  60.0144997  48.9149988  53.5946541  59.7391374  49.3655832
  46.6060012  57.6864997  46.9079988  46.4890012  56.7374997  46.8529988
  45.7510012  58.0184997  47.1809988  46.4743733  57.6015409  46.9373897
  51.5540012  73.0944997  44.6499988  51.9800012  72.3874997  44.1649988
  51.8710012  73.8954997  44.2329988  51.6551019  73.1060994  44.5273130
  52.7140012  70.9954997  43.1579988  52.4560012  70.3054997  42.5469988
  52.7850012  70.5524997  44.0039988  52.6882856  70.8412124  43.1886885
  48.8730012  66.5234997  41.4079988  48.1610012  67.0584997  41.0559988
  49.5640012  66.5794997  40.7479988  48.8690132  66.6042543  41.2706289
  48.9260012  64.9814997  38.4469988  49.6270012  65.0034997  39.0979988
  49.2290012  64.3534997  37.7909988  49.0627830  64.8996566  38.4473711
  52.2780012  66.7334997  42.3599988  51.5460012  66.9614997  42.9329988
  52.7260012  66.0194997  42.8149988  52.2383095  66.6682571  42.4999119
  52.1760012  64.9074997  51.4269988  52.2560012  65.6704997  51.9989988
  51.5740012  65.1864997  50.7369988  52.1055756  65.0497134  51.4120589
  43.9240012  67.3634997  44.2419988  43.5930012  66.9934997  43.4239988
  44.5120012  66.6934997  44.5889988  43.9581873  67.2221156  44.1768102
  45.2900012  70.7914997  46.9239988  45.1960012  70.2134997  46.1669988
  46.0200012  70.4204997  47.4199988  45.3757981  70.6622390  46.8874165
  44.2900012  66.1324997  47.8759988  44.8560012  66.2534997  47.1129988
  44.6090012  66.7694997  48.5149988  44.4105786  66.2351884  47.8580040
  50.5990012  71.6354997  48.6099988  50.3590012  72.2974997  49.2579988
  50.4010012  70.8014997  49.0349988  50.5393808  71.6133134  48.7561524
  45.1700012  70.5314997  52.5929988  44.8590012  71.3134997  53.0479988
  44.5200012  70.3784997  51.9069988  45.0395558  70.6179105  52.5625871
  51.1490012  65.8954997  40.0449988  51.7290012  66.0454997  40.7919988
  51.5630012  66.3664997  39.3219988  51.2842830  65.9796841  40.0494134
  42.0900012  66.7294997  51.8219988  42.1610012  67.3804997  52.5199988
  41.2000012  66.8324997  51.4869988  41.9793117  66.8325936  51.8722700
  48.8760012  72.6324997  43.4799988  49.3500012  72.9274997  44.2579988
  48.3130012  73.3704997  43.2469988  48.8647653  72.7726932  43.5550136
  43.4100012  72.6034997  53.3559988  43.4170012  72.4674997  52.4089988
  42.4940012  72.4854997  53.6079988  43.2871714  72.5689430  53.2604666
  54.8480012  57.6454997  39.8579988  53.9480012  57.7844997  40.1529988
  55.1000012  58.4764997  39.4559988  54.7588702  57.7769074  39.8440205
  42.9140012  66.4334997  41.8319988  42.6220012  67.2014997  41.3409988
  42.2400012  65.7734997  41.6689988  42.7829081  66.4494406  41.7427340
  56.0370012  72.0114997  38.2339988  56.1110012  72.9504997  38.4049988
  56.9430012  71.7064997  38.1779988  56.1695100  72.0986722  38.2498119
  39.0070012  68.7964997  50.6469988  38.5060012  68.7684997  49.8319988
  39.0120012  67.8904997  50.9559988  38.9391526  68.6702278  50.5772872
  38.7570012  71.5764997  47.5309988  39.7030012  71.4324997  47.5119988
  38.6450012  72.3604997  48.0679988  38.8712727  71.6628046  47.6010072
  47.9340012  71.8164997  52.0889988  48.0210012  72.6424997  52.5639988
  47.0700012  71.4864997  52.3379988  47.8291964  71.8849878  52.1876549
  48.3480012  75.5884997  41.8949988  48.2730012  75.4674997  40.9489988
  48.3810012  76.5384997  42.0139988  48.3421848  75.7002500  41.7814834
  42.0010012  74.3774997  43.6759988  42.1540012  74.0294997  44.5549988
  41.1510012  74.0214997  43.4209988  41.9068962  74.2816650  43.7618340
  51.4500012  74.7424997  38.8969988  51.8250012  73.9984997  38.4269988
  51.4540012  74.4724997  39.8159988  51.5018915  74.6041486  38.9567824
  51.1190012  74.6684997  41.6469988  50.1830012  74.7684997  41.8249988
  51.3990012  73.9594997  42.2249988  51.0288255  74.5862711  41.7495391
  54.1070012  63.7354997  53.6929988  53.7000012  64.2164997  52.9719988
  54.1480012  62.8304997  53.3849988  54.0568437  63.6789374  53.5526683
  41.2560012  70.1194997  51.6899988  41.4720012  69.7584997  52.5489988
  40.4010012  69.7454997  51.4799988  41.1699292  70.0194111  51.7793386
  43.8750012  58.5894997  47.6849988  43.0130012  58.5024997  47.2779988
  43.8520012  59.4454997  48.1129988  43.7540330  58.6932765  47.6871863
  48.5380012  58.3114997  51.0599988  48.9580012  57.8964997  51.8129988
  47.6050012  58.1334997  51.1769988  48.4693644  58.2305900  51.1789539
  51.8640012  62.0674997  51.9129988  51.3500012  61.9414997  52.7109988
  51.7090012  62.9794997  51.6689988  51.7726852  62.1736132  51.9892158
  52.6270012  66.9284997  37.6749988  52.6690012  66.7054997  36.7449988
  53.4760012  67.3274997  37.8649988  52.7475396  66.9519155  37.5733627
  48.1990012  60.8044997  38.3449988  47.9460012  60.8234997  39.2679988
  47.9430012  59.9324997  38.0439988  48.1297790  60.6892437  38.4306263
  43.9660012  63.5554997  48.7799988  43.3240012  63.5144997  49.4889988
  44.0030012  64.4814997  48.5429988  43.8831324  63.6751559  48.8449824
  43.9630012  63.7764997  43.6919988  43.0700012  63.4354997  43.6339988
  44.4130012  63.3994997  42.9369988  43.9017305  63.6788484  43.5819177
  49.4980012  64.1924997  42.5089988  49.0890012  65.0074997  42.2179988
  50.2190012  64.0524997  41.8949988  49.5394537  64.2852018  42.3861342
  48.6000012  64.3674997  53.9969988  48.0380012  63.6634997  54.3179988
  49.4270012  64.2474997  54.4649988  48.6347095  64.2547883  54.1042330
  50.5030012  63.6384997  45.3229988  50.3080012  64.2434997  44.6079988
  50.6840012  62.8044997  44.8889988  50.5007614  63.6086300  45.1664405
  41.7160012  63.8754997  50.6469988  41.6780012  64.2754997  51.5159988
  41.2250012  63.0584997  50.7379988  41.6444684  63.8198069  50.7781059
  45.0820012  61.2494997  37.4459988  44.6510012  60.8044997  38.1759988
  44.3640012  61.6214997  36.9339988  44.9259438  61.2388940  37.4766799
  38.3240012  60.9914997  44.4979988  38.9550012  60.9624997  45.2169988
  38.7730012  60.5664997  43.7679988  38.4710774  60.9300492  44.4976553
  39.5980012  61.7374997  39.9219988  40.0720012  62.3284997  39.3369988
  38.8810012  62.2684997  40.2689988  39.5659341  61.8900867  39.8888836
  49.7670012  65.2764997  49.9949988  50.0900012  64.6454997  49.3519988
  49.3270012  64.7414997  50.6549988  49.7516895  65.1178441  49.9962850
  46.5440012  61.2034997  44.7789988  45.6330012  61.2604997  45.0669988
  47.0500012  61.1434997  45.5889988  46.4875413  61.2031985  44.9280622
  41.3730012  62.8324997  43.6049988  40.4830012  62.9324997  43.2649988
  41.6690012  61.9904997  43.2589988  41.2912823  62.7323545  43.5117213
  45.0260012  62.8324997  41.2619988  45.9570012  62.9614997  41.4399988
  44.8110012  63.5024997  40.6119988  45.1244247  62.9406565  41.1985747
  50.9490012  60.4384997  48.0429988  50.2730012  60.5694997  48.7069988
  50.4640012  60.2834997  47.2329988  50.7907145  60.4354904  48.0244517
  43.7000012  64.0274997  38.8289988  43.1570012  63.6474997  38.1369988
  44.5330012  64.2214997  38.3999988  43.7384399  64.0018124  38.6764526
  41.8350012  68.5844997  53.9279988  42.5670012  68.8384997  54.4889988
  41.0550012  68.7884997  54.4429988  41.8298232  68.6469177  54.0745760
  47.8640012  63.9914997  46.6659988  48.4290012  63.4444997  46.1189988
  47.7170012  63.4694997  47.4539988  47.9212918  63.8462024  46.6978454
  42.8660012  60.1274997  43.0839988  42.5490012  59.2254997  43.0489988
  43.6480012  60.1294997  42.5309988  42.9282284  60.0041628  43.0044783
  46.4910012  62.3794997  49.0799988  45.6550012  62.8334997  49.1899988
  47.0150012  62.6554997  49.8319988  46.4474414  62.4789376  49.1967136
  47.0350012  68.5924997  40.7639988  46.2900012  68.0854997  40.4419988
  46.9010012  68.6414997  41.7109988  46.9148776  68.5296940  40.8478647
  50.9330012  61.4064997  38.9639988  49.9940012  61.5184997  38.8119988
  51.2300012  62.2634997  39.2699988  50.8447666  61.5376443  38.9845768
  48.5540012  68.7764997  52.0009988  48.2090012  68.3954997  52.8079988
  48.3540012  69.7104997  52.0729988  48.4798061  68.8505228  52.1210961
  51.6510012  63.2734997  40.6239988  52.5430012  63.1364997  40.9429988
  51.7080012  64.0644997  40.0879988  51.7806285  63.3616660  40.5951691
  42.1600012  67.8874997  46.5339988  42.9050012  67.8854997  45.9329988
  42.2380012  67.0644997  47.0159988  42.2725518  67.7759315  46.5168929
  49.1610012  70.0514997  39.7899988  48.8650012  70.8774997  40.1709988
  48.4580012  69.4314997  39.9859988  49.0254914  70.0808199  39.8686443
  39.1680012  66.3484997  51.8489988  39.3910012  65.9304997  52.6809988
  38.5660012  65.7354997  51.4259988  39.1171759  66.2084668  51.9057022
  46.1840012  65.8654997  54.0619988  45.8880012  65.6994997  53.1669988
  47.1160012  65.6454997  54.0509988  46.2694166  65.8130640  53.9380536
  50.8050012  71.2384997  51.9519988  49.9040012  71.4214997  51.6839988
  50.8390012  71.4974997  52.8729988  50.6863041  71.2985512  52.0398197
  56.5360012  63.4834997  40.3189988  55.9820012  63.0874997  39.6469988
  56.6360012  64.3934997  40.0409988  56.4737059  63.5523586  40.1894401
  54.8310012  72.2694997  40.7839988  54.4580012  71.4434997  41.0929988
  55.1090012  72.0864997  39.8869988  54.8175630  72.1317303  40.7049626
  51.9920012  67.0774997  47.8049988  51.0630012  66.8454997  47.7779988
  52.4430012  66.3004997  47.4749988  51.9259216  66.9407238  47.7566917
  44.5350012  71.4054997  43.9379988  45.0620012  72.1784997  43.7379988
  43.6550012  71.6304997  43.6369988  44.4881773  71.5418005  43.8699010
  40.2900012  66.2674997  38.5249988  40.9060012  66.8944997  38.9049988
  39.4280012  66.5834997  38.7969988  40.2577698  66.3959430  38.6137183
  45.9620012  69.0684997  43.5149988  45.7210012  69.9934997  43.5559988
  45.2210012  68.6094997  43.9109988  45.8288409  69.1331421  43.5741377
  46.4770012  73.2174997  49.8299988  46.8390012  74.0724997  49.5959988
  47.0080012  72.9254997  50.5699988  46.5984473  73.2951060  49.8980855
  44.6450012  74.0904997  43.0599988  43.6950012  74.1954997  43.1109988
  44.9970012  74.9104997  43.4049988  44.5624203  74.2158314  43.1136650
  50.0210012  69.3164997  49.5299988  49.5950012  69.0894997  50.3569988
  50.6010012  68.5784997  49.3479988  50.0411868  69.1855299  49.6185830
  52.2240012  70.2454997  38.6039988  52.5770012  69.8654997  39.4089988
  51.2750012  70.1524997  38.6909988  52.1440441  70.1809596  38.7258559
  56.7270012  74.7254997  38.8049988  57.4710012  75.3114997  38.6649988
  56.0330012  75.2934997  39.1389988  56.7350292  74.8825582  38.8309961
  40.8020012  61.1014997  51.4069988  39.9090012  61.4404997  51.3389988
  40.7030012  60.2464997  51.8249988  40.6664164  61.0322588  51.4542235
  53.0900012  68.9184997  40.8309988  52.8120012  68.1904997  41.3869988
  54.0170012  69.0374997  41.0359988  53.1773124  68.8348802  40.9348845
  40.4530012  72.9064997  49.8419988  40.6700012  71.9744997  49.8109988
  40.6990012  73.1804997  50.7249988  40.5159549  72.8160636  49.9571763
  46.3150012  71.3574997  37.0509988  46.5540012  70.6094997  36.5039988
  46.0460012  70.9694997  37.8839988  46.3113675  71.2026638  37.0886865
  45.2520012  70.9274997  39.5079988  45.3980012  70.4074997  40.2979988
  45.2490012  71.8344997  39.8139988  45.2715989  70.9788853  39.6576088
  41.7050012  68.1804997  40.0179988  41.0190012  68.5324997  40.5849988
  42.2270012  68.9434997  39.7709988  41.6816852  68.3318578  40.0622118
  49.5360012  60.8424997  50.2969988  50.2350012  60.9164997  50.9469988
  49.1550012  59.9784997  50.4509988  49.5801767  60.7357624  50.4068322
  50.3210012  60.4944997  41.3939988  50.5410012  60.9664997  40.5909988
  50.8790012  60.8894997  42.0639988  50.4264968  60.6124285  41.3747331
  47.9890012  72.6254997  40.2569988  47.1730012  73.1224997  40.3089988
  48.5190012  73.1004997  39.6169988  47.9489161  72.7577722  40.1775956
  47.5210012  62.2224997  42.2289988  48.3330012  62.7274997  42.2749988
  47.2760012  62.0774997  43.1429988  47.5990520  62.2720375  42.3588517
  48.0560012  63.2084997  51.4139988  48.1750012  63.7824997  52.1709988
  48.7120012  62.5204997  51.5279988  48.1609757  63.1941079  51.5330825
  48.4040012  59.3034997  43.1669988  48.0580012  59.9214997  43.8119988
  49.0630012  59.8044997  42.6859988  48.4457826  59.4555802  43.1900971
  45.3280012  73.6694997  40.2389988  45.4880012  74.4684997  39.7379988
  45.1300012  73.9754997  41.1239988  45.3231649  73.8204469  40.2899815
  44.0620012  60.3664997  39.8539988  43.9790012  61.2554997  40.2009988
  44.9520012  60.1014997  40.0859988  44.1709469  60.4521430  39.9327626
  54.2610012  61.1154997  52.2489988  53.3440012  61.3784997  52.1609988
  54.5960012  61.1124997  51.3519988  54.1809900  61.1510224  52.1157919
  52.8630012  64.8664997  46.3439988  52.0650012  64.4514997  46.0159988
  53.3080012  64.1754997  46.8349988  52.8139885  64.7163543  46.3654889
  42.3210012  70.7944997  38.9149988  42.9130012  71.4934997  39.1909988
  42.7800012  70.3614997  38.1949988  42.4641142  70.8317049  38.8554830
  40.6370012  63.4584997  38.0309988  40.5920012  64.3974997  38.2089988
  39.7490012  63.2224997  37.7609988  40.5108574  63.5551892  38.0188912
  53.9490012  74.1224997  47.9669988  53.7940012  74.8004997  47.3099988
  54.8820012  74.1944997  48.1699988  54.0538500  74.2250170  47.9045119
  41.4450012  58.2404997  46.7039988  41.2160012  58.2994997  45.7759988
  41.0020012  57.4484997  47.0099988  41.3538530  58.1415753  46.6184786
  40.3750012  72.1804997  42.8639988  39.5430012  72.6534997  42.8919988
  40.9210012  72.6904997  42.2659988  40.3349739  72.3141871  42.7869716
  39.6630012  74.7934997  54.1939988  40.2040012  74.5764997  54.9539988
  39.1820012  73.9874997  54.0049988  39.6719345  74.6549514  54.2723076
  44.2610012  73.7124997  55.8149988  45.0280012  73.2534997  56.1559988
  44.2390012  73.4864997  54.8849988  44.3631434  73.6190409  55.7360043
  48.3530012  73.2204997  37.1899988  47.7090012  72.5894997  37.5109988
  49.1150012  72.6894997  36.9579988  48.3678077  73.0622920  37.2026011
  50.8380012  72.0924997  54.5439988  50.4870012  71.2364997  54.7869988
  51.5640012  72.2354997  55.1509988  50.8880769  71.9945636  54.6593619
  52.9570012  73.0374997  37.4239988  53.2400012  72.2434997  37.8759988
  53.6970012  73.2704997  36.8629988  53.0957486  72.9602803  37.4100698
  39.5700012  68.6034997  55.1489988  39.7140012  67.7014997  54.8619988
  38.7980012  68.8894997  54.6609988  39.4853323  68.5188261  55.0437881
  43.9120012  68.9474997  37.2809988  43.9760012  68.1534997  37.8119988
  44.5650012  68.8284997  36.5909988  44.0090241  68.8227148  37.2604317
  46.2260012  68.5734997  54.5809988  45.8970012  68.8444997  53.7239988
  46.3780012  67.6324997  54.4939988  46.2014809  68.4833862  54.4518244
  49.2640012  69.9944997  37.0169988  48.9950012  70.1744997  37.9179988
  49.0580012  69.0684997  36.8859988  49.1993825  69.8940152  37.1225214
  51.9600012  68.4894997  51.9649988  52.7060012  69.0774997  51.8449988
  51.2030012  69.0714997  52.0279988  51.9597554  68.6487011  51.9570907
  40.4030012  65.8034997  54.5689988  40.8110012  64.9464997  54.4479988
  40.1430012  65.8184997  55.4899988  40.4237568  65.6880807  54.6769588
  45.0610012  66.9194997  39.5869988  44.6010012  66.4354997  40.2729988
  45.3160012  66.2514997  38.9509988  45.0324902  66.7628731  39.5949334
  44.3500012  64.8124997  51.9429988  43.7320012  65.4874997  52.2229988
  44.6940012  65.1334997  51.1099988  44.3119615  64.9482721  51.8686581
  46.1320012  65.1624997  37.8489988  45.9520012  65.0084997  36.9219988
  47.0820012  65.2704997  37.8939988  46.2357776  65.1560175  37.7281843
  49.3700012  67.2844997  55.2199988  50.3230012  67.3674997  55.1929988
  49.2090012  66.5724997  55.8399988  49.4786426  67.1996746  55.3000579
  55.5220012  67.5174997  37.2949988  55.2480012  67.0924997  36.4819988
  55.5610012  68.4484997  37.0779988  55.4897699  67.5852484  37.1543610
  44.6890012  62.1674997  53.0249988  44.8390012  61.4384997  52.4229988
  44.6920012  62.9444997  52.4659988  44.7099302  62.1727851  52.8670692
  45.1020012  60.5374997  50.5179988  45.6380012  60.9884997  49.8659988
  44.2500012  60.4294997  50.0949988  45.0602178  60.5846390  50.3715756
  46.6840012  65.9764997  50.7569988  47.4340012  65.8204997  50.1839988
  46.3450012  66.8284997  50.4819988  46.7408921  66.0702968  50.6413561
  51.0990012  63.7914997  55.7859988  51.2920012  62.8604997  55.6739988
  51.9570012  64.2164997  55.7759988  51.2413020  63.7216389  55.7693361
  52.4160012  66.5804997  53.8629988  52.1350012  67.2894997  53.2859988
  53.3590012  66.5074997  53.7119988  52.5049027  66.6677646  53.7635551
  43.1680012  63.3654997  54.9369988  42.4010012  62.8334997  54.7269988
  43.8470012  63.0554997  54.3369988  43.1547022  63.2507506  54.8271648
  45.9080012  57.9934997  50.9489988  45.8090012  58.9404997  50.8439988
  45.1650012  57.6214997  50.4739988  45.7940563  58.0725902  50.8704560
  47.1720012  62.3154997  54.5129988  46.9360012  62.0954997  55.4149988
  46.3880012  62.1084997  54.0029988  47.0338628  62.2574760  54.5673932
  49.8870012  61.4424997  53.5889988  48.9400012  61.4744997  53.7209988
  50.2000012  60.8174997  54.2419988  49.7995475  61.3623207  53.6954455
  51.5210012  60.0764997  55.5939988  51.4250012  59.1244997  55.5879988
  51.2000012  60.3454997  56.4539988  51.4644070  59.9824035  55.7095441
  41.3480012  61.2864997  54.6409988  41.5600012  60.5794997  54.0309988
  41.2370012  60.8484997  55.4849988  41.3619721  61.1307084  54.6716843
  46.1290012  57.2874997  53.6209988  46.8410012  56.6474997  53.6069988
  46.0280012  57.5544997  52.7069988  46.2127939  57.2359938  53.4955650
  46.4830012  58.9704997  55.6739988  46.3510012  58.4944997  54.8539988
  45.8840012  59.7144997  55.6189988  46.3839071  59.0059618  55.5542886
  46.0290012  75.8534997  38.8509988  46.9620012  76.0114997  38.9939988
  45.7650012  76.5284997  38.2259988  46.1209510  75.9663611  38.7860741
  39.5980012  70.4894997  38.3329988  40.5120012  70.5684997  38.6069988
  39.6050012  69.8024997  37.6669988  39.7241131  70.4073961  38.2804393
  38.2470012  75.8824997  43.4109988  37.6000012  75.4204997  42.8779988
  38.6010012  75.2104997  43.9929988  38.2063849  75.7284723  43.4167959
  39.1170012  73.9634997  45.2149988  38.7820012  73.0834997  45.3869988
  39.3390012  74.3084997  46.0799988  39.1011783  73.8897501  45.3554208
  55.9800012  68.3864997  41.2699988  56.8300012  68.8074997  41.3969988
  55.9860012  67.6464997  41.8769988  56.0971372  68.3440803  41.3694344
  56.6430012  66.3404997  39.4849988  56.1210012  66.6974997  38.7659988
  56.6100012  67.0154997  40.1629988  56.5671634  66.4805413  39.4783145
  54.9920012  63.5804997  38.0359988  55.0880012  64.2474997  37.3549988
  54.8520012  62.7644997  37.5539988  54.9862135  63.5614500  37.8778491
  54.1610012  64.9604997  43.6569988  54.0110012  64.0154997  43.6359988
  53.8080012  65.2414997  44.4999988  54.0926625  64.8690441  43.7682346
  39.1970012  67.0384997  47.6669988  39.3810012  66.9564997  46.7309988
  40.0460012  66.9144997  48.0909988  39.3370139  67.0105003  47.5961455
  54.2390012  60.9884997  37.1529988  54.8500012  60.6174997  37.7899988
  53.4030012  60.5674997  37.3489988  54.2095032  60.8807554  37.2667035
  53.8720012  62.5434997  42.1189988  54.1520012  61.6364997  42.2429988
  54.6310012  62.9774997  41.7299988  54.0129277  62.4780942  42.0833682
  54.4840012  63.1244997  47.5549988  55.4170012  63.3364997  47.5209988
  54.2490012  63.2264997  48.4769988  54.5798036  63.1672769  47.6749976
  54.5130012  63.8614997  50.3309988  53.6700012  64.1294997  50.6969988
  54.9550012  64.6834997  50.1199988  54.4574158  64.0093291  50.3525491
  38.7940012  62.3094997  53.8079988  39.7140012  62.1874997  54.0439988
  38.3450012  61.5594997  54.1969988  38.8591580  62.1913727  53.8929006
  56.7960012  57.8414997  55.6839988  57.1460012  57.1874997  55.0789988
  56.9430012  58.6784997  55.2449988  56.8638419  57.8651591  55.5417118
  54.4850012  59.8064997  42.1669988  54.6680012  59.3574997  42.9929988
  53.8860012  59.2214997  41.7039988  54.4290202  59.6659975  42.2173275
  40.0150012  60.6214997  46.6989988  40.4610012  59.8294997  47.0009988
  40.4820012  61.3374997  47.1299988  40.1390172  60.6100624  46.7984820
  38.3190012  63.6204997  47.7679988  38.8110012  63.3994997  46.9769988
  38.6820012  64.4614997  48.0489988  38.4353126  63.7038357  47.6977531
  56.3160012  59.9504997  54.0339988  55.3980012  60.2214997  53.9979988
  56.4390012  59.4154997  53.2489988  56.2071066  59.9152892  53.9230487
  56.3520012  59.8734997  38.6949988  56.7640012  59.1524997  38.2199988
  57.0340012  60.5434997  38.7539988  56.5005885  59.8652368  38.6378915
  38.6330012  59.8784997  41.8219988  37.7080012  60.0874997  41.6929988
  39.0870012  60.3624997  41.1329988  38.5677368  59.9725993  41.7111226
  53.4040012  74.8624997  43.7679988  54.0560012  74.5154997  43.1599988
  53.9140012  75.3514997  44.4139988  53.5622637  74.8810597  43.7720236
  38.5970012  58.6164997  50.1669988  37.9320012  58.3704997  50.8099988
  38.1540012  59.2384997  49.5889988  38.4460956  58.6668632  50.1769352
  40.7890012  71.7914997  54.3109988  39.9680012  71.9664997  53.8509988
  40.5360012  71.7184997  55.2319988  40.6426164  71.8055622  54.3724923
  43.7430012  72.7664997  50.5699988  43.3180012  73.5754997  50.2869988
  44.6470012  72.8514997  50.2679988  43.8070271  72.8888469  50.4903776
  48.0540012  74.1654997  53.5289988  48.2390012  73.8314997  54.4069988
  48.9000012  74.4744997  53.2069988  48.1937539  74.1616047  53.6055605
  55.3160012  58.0404997  51.8529988  54.5040012  58.3654997  51.4649988
  55.5490012  57.2804997  51.3199988  55.2363423  57.9822436  51.7278253
  41.1450012  76.0224997  50.6169988  40.4240012  76.4624997  50.1659988
  40.7790012  75.7714997  51.4659988  40.9969804  76.0487698  50.6699840
  43.6120012  75.6224997  49.6469988  42.7470012  75.6944997  50.0509988
  43.5570012  76.1694997  48.8629988  43.4862085  75.7062685  49.5963362
  48.3220012  75.5104997  48.8219988  47.8660012  76.0394997  48.1679988
  48.4850012  76.1134997  49.5479988  48.2815585  75.6644468  48.8305062
  50.6500012  74.3884997  49.7669988  49.7450012  74.5534997  49.5019988
  51.0790012  75.2414997  49.7019988  50.5840799  74.5264483  49.7219182
  40.5590012  74.6454997  47.5269988  40.5410012  74.2204997  48.3849988
  41.3640012  74.3274997  47.1189988  40.6653875  74.5443812  47.5891655
  42.7010012  73.3554997  46.1819988  42.4820012  72.4394997  46.3519988
  43.5250012  73.4954997  46.6479988  42.7824420  73.2490520  46.2682774
  45.2380012  73.8254997  47.0309988  45.4510012  72.9374997  46.7439988
  45.3020012  73.7914997  47.9849988  45.2758232  73.6993102  47.1207397
  48.7460012  59.4894997  46.1749988  48.0720012  58.8604997  46.4309988
  49.3100012  59.0054997  45.5719988  48.7299230  59.3378744  46.1285340
  53.8890012  57.5974997  46.2879988  54.4930012  58.1444997  45.7859988
  53.0190012  57.9164997  46.0479988  53.8541241  57.7155806  46.1867654
  55.6160012  58.7354997  44.6209988  56.2280012  58.2214997  44.0949988
  55.9980012  59.6134997  44.6449988  55.7514540  58.7837140  44.5521830
  41.0730012  58.1234997  43.9969988  40.2960012  57.8894997  43.4899988
  41.6030012  57.3264997  44.0059988  41.0382330  57.9836988  43.9287742
  39.9090012  57.9214997  39.8009988  40.3480012  58.5324997  39.2089988
  39.2760012  58.4594997  40.2749988  39.8834514  58.0779257  39.7840930
  45.6520012  58.0504997  43.8109988  46.5270012  58.4384997  43.7809988
  45.5160012  57.8354997  44.7329988  45.7533695  58.0745184  43.9316440
  51.2090012  58.0804997  45.4599988  51.2850012  58.1754997  44.5099988
  50.9340012  57.1724997  45.5889988  51.1822321  57.9707867  45.3475079
  52.5620012  58.1064997  41.1519988  51.8600012  58.7214997  40.9429988
  52.1180012  57.2684997  41.2829988  52.4056330  58.0775783  41.1410328
  39.8100012  73.8694997  40.6989988  39.1250012  73.8314997  40.0309988
  39.8140012  74.7824997  40.9869988  39.7168193  73.9877016  40.6465284
  41.7700012  59.8374997  38.2429988  42.2620012  59.2074997  37.7159988
  42.3940012  60.1334997  38.9069988  41.9215446  59.7913199  38.2605980
  46.7960012  60.1304997  40.6999988  46.9740012  59.4844997  41.3829988
  46.7430012  60.9644997  41.1679988  46.8131829  60.1547985  40.8565940
  48.6750012  75.0794997  39.0959988  49.5410012  75.4454997  38.9179988
  48.4280012  74.6394997  38.2819988  48.7602392  75.0701756  38.9616289
  55.3840012  74.6424997  41.7749988  55.1890012  73.8944997  41.2099988
  55.3450012  75.4004997  41.1919988  55.3520380  74.6426099  41.6188384
  41.0310012  58.6374997  53.5149988  40.6650012  57.8724997  53.9579988
  41.9440012  58.6664997  53.8019988  41.1042790  58.5367224  53.6144070
  43.0040012  57.9884997  55.0509988  43.9020012  57.7144997  54.8659988
  42.6170012  57.2454997  55.5149988  43.0746612  57.8505914  55.0883643
  41.6280012  74.7894997  37.7239988  41.3610012  75.0764997  38.5969988
  42.4000012  74.2434997  37.8759988  41.6957488  74.7550294  37.8641050
  51.4250012  57.3204997  55.2329988  51.5020012  56.8944997  56.0869988
  52.3190012  57.3344997  54.8899988  51.5563428  57.2640879  55.3035310
  74.9930012  60.5684997  48.6419988  75.0420012  61.1784997  49.3779988
  75.4180012  61.0294997  47.9189988  75.0571824  60.7143741  48.6450205
  75.3840012  62.0464997  50.8779988  74.6960012  62.7044997  50.7819988
  75.4000012  61.8494997  51.8139988  75.2918525  62.1100462  50.9914808
  72.4590012  59.5994997  49.4419988  71.7230012  60.2104997  49.4039988
  73.1420012  60.0144997  48.9149988  72.4506541  59.7391374  49.3655832
  75.0980012  65.9014997  49.7019988  74.4450012  66.5964997  49.7909988
  75.5630012  66.1114997  48.8919988  75.0715390  66.0249425  49.6046883
  75.8110012  72.2424997  53.2129988  75.7620012  71.2874997  53.1759988
  74.9840012  72.5104997  53.6139988  75.6924940  72.1478998  53.2621375
  67.3940012  58.3114997  51.0599988  67.8140012  57.8964997  51.8129988
  66.4610012  58.1334997  51.1769988  67.3253644  58.2305900  51.1789539
  57.1800012  60.9914997  44.4979988  57.8110012  60.9624997  45.2169988
  57.6290012  60.5664997  43.7679988  57.3270774  60.9300492  44.4976553
  73.0930012  76.1104997  54.3199988  73.2930012  76.5344997  53.4849988
  73.7480012  76.4534997  54.9269988  73.2090051  76.2149648  54.2877836
  75.3550012  69.2834997  53.1559988  74.5040012  69.5214997  52.7889988
  75.9460012  69.2664997  52.4029988  75.3182487  69.3138258  53.0038893
  75.5830012  74.7254997  38.8049988  76.3270012  75.3114997  38.6649988
  74.8890012  75.2934997  39.1389988  75.5910292  74.8825582  38.8309961
  59.6580012  61.1014997  51.4069988  58.7650012  61.4404997  51.3389988
  59.5590012  60.2464997  51.8249988  59.5224164  61.0322588  51.4542235
  73.1170012  61.1154997  52.2489988  72.2000012  61.3784997  52.1609988
  73.4520012  61.1124997  51.3519988  73.0369900  61.1510224  52.1157919
  60.3010012  58.2404997  46.7039988  60.0720012  58.2994997  45.7759988
  59.8580012  57.4484997  47.0099988  60.2098530  58.1415753  46.6184786
  59.2590012  65.8034997  54.5689988  59.6670012  64.9464997  54.4479988
  58.9990012  65.8184997  55.4899988  59.2797568  65.6880807  54.6769588
  71.2720012  66.5804997  53.8629988  70.9910012  67.2894997  53.2859988
  72.2150012  66.5074997  53.7119988  71.3609027  66.6677646  53.7635551
  60.2040012  61.2864997  54.6409988  60.4160012  60.5794997  54.0309988
  60.0930012  60.8484997  55.4849988  60.2179721  61.1307084  54.6716843
  64.8850012  75.8534997  38.8509988  65.8180012  76.0114997  38.9939988
  64.6210012  76.5284997  38.2259988  64.9769510  75.9663611  38.7860741
  75.0850012  74.3404997  51.1179988  74.5970012  73.6044997  50.7469988
  75.6340012  73.9464997  51.7959988  75.0924872  74.1866249  51.1589160
  73.5350012  70.1294997  55.7559988  72.6690012  70.0244997  56.1499988
  73.9120012  70.8884997  56.2019988  73.4673308  70.2176900  55.8702393
  74.9900012  69.2244997  48.0409988  75.8230012  68.8464997  47.7609988
  75.1020012  70.1674997  47.9219988  75.1192647  69.3002218  47.9865487
  73.8740012  66.9304997  53.2949988  74.4570012  66.1964997  53.4869988
  74.4380012  67.7024997  53.3419988  74.0299769  66.9344227  53.3276159
  75.3700012  64.8334997  53.9799988  74.5070012  64.4544997  53.8139988
  75.9750012  64.0944997  53.9059988  75.3335979  64.6818023  53.9472817
  73.3400012  63.1244997  47.5549988  74.2730012  63.3364997  47.5209988
  73.1050012  63.2264997  48.4769988  73.4358036  63.1672769  47.6749976
  73.3690012  63.8614997  50.3309988  72.5260012  64.1294997  50.6969988
  73.8110012  64.6834997  50.1199988  73.3134158  64.0093291  50.3525491
  57.6500012  62.3094997  53.8079988  58.5700012  62.1874997  54.0439988
  57.2010012  61.5594997  54.1969988  57.7151580  62.1913727  53.8929006
  75.6520012  57.8414997  55.6839988  76.0020012  57.1874997  55.0789988
  75.7990012  58.6784997  55.2449988  75.7198419  57.8651591  55.5417118
  75.1720012  59.9504997  54.0339988  74.2540012  60.2214997  53.9979988
  75.2950012  59.4154997  53.2489988  75.0631066  59.9152892  53.9230487
  57.4530012  58.6164997  50.1669988  56.7880012  58.3704997  50.8099988
  57.0100012  59.2384997  49.5889988  57.3020956  58.6668632  50.1769352
  69.2550012  75.4514997  52.7729988  69.9320012  74.8184997  52.5329988
  69.5770012  75.8524997  53.5799988  69.3911637  75.4191154  52.8492793
  74.1720012  58.0404997  51.8529988  73.3600012  58.3654997  51.4649988
  74.4050012  57.2804997  51.3199988  74.0923423  57.9822436  51.7278253
  59.9290012  58.1234997  43.9969988  59.1520012  57.8894997  43.4899988
  60.4590012  57.3264997  44.0059988  59.8942330  57.9836988  43.9287742
  58.7650012  57.9214997  39.8009988  59.2040012  58.5324997  39.2089988
  58.1320012  58.4594997  40.2749988  58.7394514  58.0779257  39.7840930
  60.6260012  59.8374997  38.2429988  61.1180012  59.2074997  37.7159988
  61.2500012  60.1334997  38.9069988  60.7775446  59.7913199  38.2605980
  67.5310012  75.0794997  39.0959988  68.3970012  75.4454997  38.9179988
  67.2840012  74.6394997  38.2819988  67.6162392  75.0701756  38.9616289
  59.8870012  58.6374997  53.5149988  59.5210012  57.8724997  53.9579988
  60.8000012  58.6664997  53.8019988  59.9602790  58.5367224  53.6144070
  61.8600012  57.9884997  55.0509988  62.7580012  57.7144997  54.8659988
  61.4730012  57.2454997  55.5149988  61.9306612  57.8505914  55.0883643
  70.2810012  57.3204997  55.2329988  70.3580012  56.8944997  56.0869988
  71.1750012  57.3344997  54.8899988  70.4123428  57.2640879  55.3035310
  80.0880012  70.5994997  47.5029988  79.7190012  69.7974997  47.1329988
  81.0290012  70.4304997  47.5489988  80.1647289  70.4670153  47.4586316
  77.4090012  66.4214997  45.0219988  77.6220012  65.6514997  45.5489988
  78.1470012  66.5104997  44.4179988  77.5378496  66.3281394  45.0125300
  93.8490012  60.5684997  48.6419988  93.8980012  61.1784997  49.3779988
  94.2740012  61.0294997  47.9189988  93.9131824  60.7143741  48.6450205
  81.4810012  61.4624997  45.3809988  81.5250012  62.3224997  44.9629988
  81.0240012  60.9104997  44.7469988  81.4252185  61.5055799  45.2380299
  78.1020012  63.8594997  46.1429988  78.7550012  63.3094997  46.5749988
  78.1260012  63.5854997  45.2259988  78.1946683  63.7471466  46.0782123
  94.2400012  62.0464997  50.8779988  93.5520012  62.7044997  50.7819988
  94.2560012  61.8494997  51.8139988  94.1478525  62.1100462  50.9914808
  80.2920012  60.3804997  49.4549988  80.0730012  60.9104997  48.6889988
  79.6240012  60.6074997  50.1019988  80.1717600  60.4836906  49.4376379
  82.8610012  68.0564997  49.7419988  82.1210012  68.6544997  49.8459988
  83.5750012  68.6104997  49.4269988  82.8562237  68.2132831  49.7136465
  79.8850012  62.2724997  47.4069988  80.4990012  62.9054997  47.7809988
  80.3970012  61.8004997  46.7509988  80.0382296  62.2952370  47.3694252
  91.3150012  59.5994997  49.4419988  90.5790012  60.2104997  49.4039988
  91.9980012  60.0144997  48.9149988  91.3066541  59.7391374  49.3655832
  84.3180012  57.6864997  46.9079988  84.2010012  56.7374997  46.8529988
  83.4630012  58.0184997  47.1809988  84.1863733  57.6015409  46.9373897
  92.1120012  69.5614997  51.6359988  92.2520012  68.9704997  50.8959988
  92.2790012  70.4344997  51.2789988  92.1536778  69.5986426  51.4866965
  93.9540012  65.9014997  49.7019988  93.3010012  66.5964997  49.7909988
  94.4190012  66.1114997  48.8919988  93.9275390  66.0249425  49.6046883
  89.8880012  64.9074997  51.4269988  89.9680012  65.6704997  51.9989988
  89.2860012  65.1864997  50.7369988  89.8175756  65.0497134  51.4120589
  82.0020012  66.1324997  47.8759988  82.5680012  66.2534997  47.1129988
  82.3210012  66.7694997  48.5149988  82.1225786  66.2351884  47.8580040
  76.7190012  68.7964997  50.6469988  76.2180012  68.7684997  49.8319988
  76.7240012  67.8904997  50.9559988  76.6511526  68.6702278  50.5772872
  94.6670012  72.2424997  53.2129988  94.6180012  71.2874997  53.1759988
  93.8400012  72.5104997  53.6139988  94.5484940  72.1478998  53.2621375
  91.8190012  63.7354997  53.6929988  91.4120012  64.2164997  52.9719988
  91.8600012  62.8304997  53.3849988  91.7688437  63.6789374  53.5526683
  78.9680012  70.1194997  51.6899988  79.1840012  69.7584997  52.5489988
  78.1130012  69.7454997  51.4799988  78.8819292  70.0194111  51.7793386
  81.5870012  58.5894997  47.6849988  80.7250012  58.5024997  47.2779988
  81.5640012  59.4454997  48.1129988  81.4660330  58.6932765  47.6871863
  86.2500012  58.3114997  51.0599988  86.6700012  57.8964997  51.8129988
  85.3170012  58.1334997  51.1769988  86.1813644  58.2305900  51.1789539
  89.5760012  62.0674997  51.9129988  89.0620012  61.9414997  52.7109988
  89.4210012  62.9794997  51.6689988  89.4846852  62.1736132  51.9892158
  81.6780012  63.5554997  48.7799988  81.0360012  63.5144997  49.4889988
  81.7150012  64.4814997  48.5429988  81.5951324  63.6751559  48.8449824
  86.3120012  64.3674997  53.9969988  85.7500012  63.6634997  54.3179988
  87.1390012  64.2474997  54.4649988  86.3467095  64.2547883  54.1042330
  84.2560012  61.2034997  44.7789988  83.3450012  61.2604997  45.0669988
  84.7620012  61.1434997  45.5889988  84.1995413  61.2031985  44.9280622
  88.6610012  60.4384997  48.0429988  87.9850012  60.5694997  48.7069988
  88.1760012  60.2834997  47.2329988  88.5027145  60.4354905  48.0244517
  91.9490012  76.1104997  54.3199988  92.1490012  76.5344997  53.4849988
  92.6040012  76.4534997  54.9269988  92.0650051  76.2149648  54.2877836
  79.8720012  67.8874997  46.5339988  80.6170012  67.8854997  45.9329988
  79.9500012  67.0644997  47.0159988  79.9845518  67.7759315  46.5168929
  94.2110012  69.2834997  53.1559988  93.3600012  69.5214997  52.7889988
  94.8020012  69.2664997  52.4029988  94.1742487  69.3138258  53.0038893
  90.3910012  73.8684997  51.9999988  89.7900012  73.3134997  51.5039988
  90.6730012  74.5354997  51.3739988  90.3468519  73.8826841  51.8474951
  78.5140012  61.1014997  51.4069988  77.6210012  61.4404997  51.3389988
  78.4150012  60.2464997  51.8249988  78.3784164  61.0322588  51.4542235
  78.1650012  72.9064997  49.8419988  78.3820012  71.9744997  49.8109988
  78.4110012  73.1804997  50.7249988  78.2279549  72.8160636  49.9571763
  87.2480012  60.8424997  50.2969988  87.9470012  60.9164997  50.9469988
  86.8670012  59.9784997  50.4509988  87.2921767  60.7357624  50.4068322
  85.7680012  63.2084997  51.4139988  85.8870012  63.7824997  52.1709988
  86.4240012  62.5204997  51.5279988  85.8729757  63.1941079  51.5330825
  86.1160012  59.3034997  43.1669988  85.7700012  59.9214997  43.8119988
  86.7750012  59.8044997  42.6859988  86.1577826  59.4555802  43.1900971
  91.9730012  61.1154997  52.2489988  91.0560012  61.3784997  52.1609988
  92.3080012  61.1124997  51.3519988  91.8929900  61.1510224  52.1157919
  79.1570012  58.2404997  46.7039988  78.9280012  58.2994997  45.7759988
  78.7140012  57.4484997  47.0099988  79.0658530  58.1415753  46.6184786
  77.3750012  74.7934997  54.1939988  77.9160012  74.5764997  54.9539988
  76.8940012  73.9874997  54.0049988  77.3839345  74.6549514  54.2723076
  88.5500012  72.0924997  54.5439988  88.1990012  71.2364997  54.7869988
  89.2760012  72.2354997  55.1509988  88.6000769  71.9945636  54.6593619
  77.2820012  68.6034997  55.1489988  77.4260012  67.7014997  54.8619988
  76.5100012  68.8894997  54.6609988  77.1973322  68.5188261  55.0437881
  87.0820012  67.2844997  55.2199988  88.0350012  67.3674997  55.1929988
  86.9210012  66.5724997  55.8399988  87.1906426  67.1996746  55.3000579
  82.4010012  62.1674997  53.0249988  82.5510012  61.4384997  52.4229988
  82.4040012  62.9444997  52.4659988  82.4219302  62.1727851  52.8670692
  82.8140012  60.5374997  50.5179988  83.3500012  60.9884997  49.8659988
  81.9620012  60.4294997  50.0949988  82.7722178  60.5846390  50.3715756
  84.3960012  65.9764997  50.7569988  85.1460012  65.8204997  50.1839988
  84.0570012  66.8284997  50.4819988  84.4528921  66.0702968  50.6413561
  90.1280012  66.5804997  53.8629988  89.8470012  67.2894997  53.2859988
  91.0710012  66.5074997  53.7119988  90.2169027  66.6677646  53.7635551
  80.8800012  63.3654997  54.9369988  80.1130012  62.8334997  54.7269988
  81.5590012  63.0554997  54.3369988  80.8667022  63.2507506  54.8271648
  83.6200012  57.9934997  50.9489988  83.5210012  58.9404997  50.8439988
  82.8770012  57.6214997  50.4739988  83.5060564  58.0725902  50.8704560
  84.8840012  62.3154997  54.5129988  84.6480012  62.0954997  55.4149988
  84.1000012  62.1084997  54.0029988  84.7458628  62.2574760  54.5673932
  87.5990012  61.4424997  53.5889988  86.6520012  61.4744997  53.7209988
  87.9120012  60.8174997  54.2419988  87.5115475  61.3623207  53.6954455
  89.2330012  60.0764997  55.5939988  89.1370012  59.1244997  55.5879988
  88.9120012  60.3454997  56.4539988  89.1764070  59.9824035  55.7095441
  79.0600012  61.2864997  54.6409988  79.2720012  60.5794997  54.0309988
  78.9490012  60.8484997  55.4849988  79.0739721  61.1307084  54.6716843
  83.8410012  57.2874997  53.6209988  84.5530012  56.6474997  53.6069988
  83.7400012  57.5544997  52.7069988  83.9247939  57.2359938  53.4955650
  84.1950012  58.9704997  55.6739988  84.0630012  58.4944997  54.8539988
  83.5960012  59.7144997  55.6189988  84.0959071  59.0059618  55.5542886
  94.3770012  74.7724997  48.1959988  94.3560012  74.9574997  49.1349988
  95.0680012  75.3414997  47.8549988  94.4674618  74.8746606  48.2783864
  93.9410012  74.3404997  51.1179988  93.4530012  73.6044997  50.7469988
  94.4900012  73.9464997  51.7959988  93.9484872  74.1866249  51.1589160
  92.3910012  70.1294997  55.7559988  91.5250012  70.0244997  56.1499988
  92.7680012  70.8884997  56.2019988  92.3233308  70.2176900  55.8702393
  92.3320012  72.1024997  50.3479988  91.6850012  72.4274997  50.9739988
  91.8150012  71.6624997  49.6739988  92.1734029  72.0875004  50.3425827
  76.9090012  67.0384997  47.6669988  77.0930012  66.9564997  46.7309988
  77.7580012  66.9144997  48.0909988  77.0490139  67.0105003  47.5961455
  92.7300012  66.9304997  53.2949988  93.3130012  66.1964997  53.4869988
  93.2940012  67.7024997  53.3419988  92.8859769  66.9344227  53.3276159
  94.2260012  64.8334997  53.9799988  93.3630012  64.4544997  53.8139988
  94.8310012  64.0944997  53.9059988  94.1895979  64.6818023  53.9472817
  92.1960012  63.1244997  47.5549988  93.1290012  63.3364997  47.5209988
  91.9610012  63.2264997  48.4769988  92.2918036  63.1672769  47.6749976
  92.2250012  63.8614997  50.3309988  91.3820012  64.1294997  50.6969988
  92.6670012  64.6834997  50.1199988  92.1694158  64.0093291  50.3525491
  76.5060012  62.3094997  53.8079988  77.4260012  62.1874997  54.0439988
  76.0570012  61.5594997  54.1969988  76.5711580  62.1913727  53.8929006
  94.5080012  57.8414997  55.6839988  94.8580012  57.1874997  55.0789988
  94.6550012  58.6784997  55.2449988  94.5758419  57.8651591  55.5417118
  77.7270012  60.6214997  46.6989988  78.1730012  59.8294997  47.0009988
  78.1940012  61.3374997  47.1299988  77.8510172  60.6100624  46.7984820
  76.0310012  63.6204997  47.7679988  76.5230012  63.3994997  46.9769988
  76.3940012  64.4614997  48.0489988  76.1473126  63.7038357  47.6977531
  94.0280012  59.9504997  54.0339988  93.1100012  60.2214997  53.9979988
  94.1510012  59.4154997  53.2489988  93.9191066  59.9152892  53.9230487
  76.3090012  58.6164997  50.1669988  75.6440012  58.3704997  50.8099988
  75.8660012  59.2384997  49.5889988  76.1580956  58.6668632  50.1769352
  85.7660012  74.1654997  53.5289988  85.9510012  73.8314997  54.4069988
  86.6120012  74.4744997  53.2069988  85.9057539  74.1616047  53.6055605
  88.1110012  75.4514997  52.7729988  88.7880012  74.8184997  52.5329988
  88.4330012  75.8524997  53.5799988  88.2471637  75.4191154  52.8492793
  93.0280012  58.0404997  51.8529988  92.2160012  58.3654997  51.4649988
  93.2610012  57.2804997  51.3199988  92.9483423  57.9822436  51.7278253
  78.8570012  76.0224997  50.6169988  78.1360012  76.4624997  50.1659988
  78.4910012  75.7714997  51.4659988  78.7089804  76.0487698  50.6699840
  81.3240012  75.6224997  49.6469988  80.4590012  75.6944997  50.0509988
  81.2690012  76.1694997  48.8629988  81.1982085  75.7062685  49.5963362
  86.0340012  75.5104997  48.8219988  85.5780012  76.0394997  48.1679988
  86.1970012  76.1134997  49.5479988  85.9935585  75.6644468  48.8305062
  88.3620012  74.3884997  49.7669988  87.4570012  74.5534997  49.5019988
  88.7910012  75.2414997  49.7019988  88.2960799  74.5264483  49.7219182
  90.9660012  75.9584997  50.0619988  90.7840012  76.8744997  49.8519988
  91.1430012  75.5484997  49.2159988  90.9650210  76.0284822  49.9187885
  86.4580012  59.4894997  46.1749988  85.7840012  58.8604997  46.4309988
  87.0220012  59.0054997  45.5719988  86.4419230  59.3378744  46.1285340
  91.6010012  57.5974997  46.2879988  92.2050012  58.1444997  45.7859988
  90.7310012  57.9164997  46.0479988  91.5661241  57.7155806  46.1867654
  93.3280012  58.7354997  44.6209988  93.9400012  58.2214997  44.0949988
  93.7100012  59.6134997  44.6449988  93.4634540  58.7837140  44.5521830
  88.9210012  58.0804997  45.4599988  88.9970012  58.1754997  44.5099988
  88.6460012  57.1724997  45.5889988  88.8942321  57.9707867  45.3475079
  78.7430012  58.6374997  53.5149988  78.3770012  57.8724997  53.9579988
  79.6560012  58.6664997  53.8019988  78.8162790  58.5367224  53.6144070
  80.7160012  57.9884997  55.0509988  81.6140012  57.7144997  54.8659988
  80.3290012  57.2454997  55.5149988  80.7866612  57.8505914  55.0883643
  89.1370012  57.3204997  55.2329988  89.2140012  56.8944997  56.0869988
  90.0310012  57.3344997  54.8899988  89.2683428  57.2640879  55.3035310
  92.3130012  73.3934997  53.9249988  91.5310012  73.2074997  53.4059988
  92.2410012  74.3224997  54.1429988  92.1961777  73.4936492  53.8834048
 106.7190012  67.2794997  43.9559988 106.8080012  68.2234997  43.8239988
 106.0810012  67.0044997  43.2979988 106.6449081  67.3714830  43.8489614
 105.6520012  66.5344997  47.3749988 105.6140012  65.8884997  48.0799988
 105.3300012  66.0684997  46.6039988 105.6032333  66.3829408  47.3672978
  98.0210012  66.1494997  48.9679988  98.0620012  65.5234997  49.6909988
  98.7240012  66.7734997  49.1499988  98.1216363  66.1481196  49.0916044
 109.3580012  69.4734997  45.6759988 108.9180012  68.7534997  46.1269988
 109.3450012  70.1944997  46.3059988 109.2960226  69.4723731  45.8228494
  98.9440012  70.5994997  47.5029988  98.5750012  69.7974997  47.1329988
  99.8850012  70.4304997  47.5489988  99.0207289  70.4670153  47.4586316
  95.5540012  64.2594997  42.8959988  95.1070012  65.1054997  42.8769988
  94.9930012  63.6794997  42.3799988  95.4169900  64.2969916  42.8236801
  96.2650012  66.4214997  45.0219988  96.4780012  65.6514997  45.5489988
  97.0030012  66.5104997  44.4179988  96.3938496  66.3281394  45.0125300
 106.4700012  74.5784997  45.8889988 107.0900012  73.9014997  45.6149988
 106.2620012  74.3604997  46.7969988 106.5266904  74.4563870  45.9743365
 104.0420012  68.9674997  47.7809988 104.3460012  68.2814997  47.1859988
 104.7630012  69.0854997  48.3989988 104.1810671  68.8896305  47.7831816
 112.7050012  60.5684997  48.6419988 112.7540012  61.1784997  49.3779988
 113.1300012  61.0294997  47.9189988 112.7691824  60.7143741  48.6450205
 107.1830012  63.3614997  48.1089988 107.3250012  62.4154997  48.1289988
 107.0760012  63.5684997  47.1799988 107.1879864  63.2599534  47.9862339
 100.3370012  61.4624997  45.3809988 100.3810012  62.3224997  44.9629988
  99.8800012  60.9104997  44.7469988 100.2812185  61.5055799  45.2380299
 108.0600012  61.5934997  43.7819988 108.7060012  61.2644997  44.4069988
 108.5700012  62.1114997  43.1589988 108.2174264  61.6184611  43.7833862
  96.9580012  63.8594997  46.1429988  97.6110012  63.3094997  46.5749988
  96.9820012  63.5854997  45.2259988  97.0506683  63.7471466  46.0782123
 102.1140012  65.4094997  45.3579988 102.7300012  64.8834997  45.8679988
 101.5280012  64.7694997  44.9549988 102.1190810  65.2509208  45.3733173
 113.0960012  62.0464997  50.8779988 112.4080012  62.7044997  50.7819988
 113.1120012  61.8494997  51.8139988 113.0038525  62.1100462  50.9914808
  99.1480012  60.3804997  49.4549988  98.9290012  60.9104997  48.6889988
  98.4800012  60.6074997  50.1019988  99.0277600  60.4836906  49.4376379
 106.5170012  69.8804997  42.9989988 106.2210012  69.5584997  42.1479988
 106.1920012  70.7804997  43.0399988 106.4326371  69.9580215  42.8881801
 101.7170012  68.0564997  49.7419988 100.9770012  68.6544997  49.8459988
 102.4310012  68.6104997  49.4269988 101.7122237  68.2132831  49.7136465
 109.8240012  60.8844997  45.7619988 109.6080012  60.1184997  46.2949988
 110.4790012  61.3564997  46.2749988 109.8830632  60.8435889  45.9042861
  98.7410012  62.2724997  47.4069988  99.3550012  62.9054997  47.7809988
  99.2530012  61.8004997  46.7509988  98.8942296  62.2952370  47.3694252
 100.1240012  70.0204997  50.5299988 100.1190012  70.9004997  50.1519988
  99.2710012  69.9374997  50.9549988 100.0079464  70.1296117  50.5357907
 109.8700012  71.3134997  48.0239988 108.9290012  71.3714997  48.1859988
 110.1470012  72.2194997  47.8869988 109.7784679  71.4439443  48.0276815
 110.1710012  59.5994997  49.4419988 109.4350012  60.2104997  49.4039988
 110.8540012  60.0144997  48.9149988 110.1626541  59.7391374  49.3655832
 103.1740012  57.6864997  46.9079988 103.0570012  56.7374997  46.8529988
 102.3190012  58.0184997  47.1809988 103.0423733  57.6015409  46.9373897
 108.1220012  73.0944997  44.6499988 108.5480012  72.3874997  44.1649988
 108.4390012  73.8954997  44.2329988 108.2231019  73.1060994  44.5273130
 109.2820012  70.9954997  43.1579988 109.0240012  70.3054997  42.5469988
 109.3530012  70.5524997  44.0039988 109.2562856  70.8412124  43.1886885
 110.9680012  69.5614997  51.6359988 111.1080012  68.9704997  50.8959988
 111.1350012  70.4344997  51.2789988 111.0096778  69.5986426  51.4866965
 105.4410012  66.5234997  41.4079988 104.7290012  67.0584997  41.0559988
 106.1320012  66.5794997  40.7479988 105.4370132  66.6042543  41.2706289
 105.4940012  64.9814997  38.4469988 106.1950012  65.0034997  39.0979988
 105.7970012  64.3534997  37.7909988 105.6307830  64.8996566  38.4473711
 112.8100012  65.9014997  49.7019988 112.1570012  66.5964997  49.7909988
 113.2750012  66.1114997  48.8919988 112.7835390  66.0249425  49.6046883
 108.8460012  66.7334997  42.3599988 108.1140012  66.9614997  42.9329988
 109.2940012  66.0194997  42.8149988 108.8063095  66.6682571  42.4999119
 108.7440012  64.9074997  51.4269988 108.8240012  65.6704997  51.9989988
 108.1420012  65.1864997  50.7369988 108.6735756  65.0497134  51.4120589
 100.4920012  67.3634997  44.2419988 100.1610012  66.9934997  43.4239988
 101.0800012  66.6934997  44.5889988 100.5261873  67.2221156  44.1768102
 101.8580012  70.7914997  46.9239988 101.7640012  70.2134997  46.1669988
 102.5880012  70.4204997  47.4199988 101.9437981  70.6622390  46.8874165
 100.8580012  66.1324997  47.8759988 101.4240012  66.2534997  47.1129988
 101.1770012  66.7694997  48.5149988 100.9785786  66.2351884  47.8580040
 107.1670012  71.6354997  48.6099988 106.9270012  72.2974997  49.2579988
 106.9690012  70.8014997  49.0349988 107.1073808  71.6133134  48.7561524
 101.7380012  70.5314997  52.5929988 101.4270012  71.3134997  53.0479988
 101.0880012  70.3784997  51.9069988 101.6075558  70.6179105  52.5625871
 107.7170012  65.8954997  40.0449988 108.2970012  66.0454997  40.7919988
 108.1310012  66.3664997  39.3219988 107.8522830  65.9796841  40.0494134
  98.6580012  66.7294997  51.8219988  98.7290012  67.3804997  52.5199988
  97.7680012  66.8324997  51.4869988  98.5473117  66.8325936  51.8722700
 105.4440012  72.6324997  43.4799988 105.9180012  72.9274997  44.2579988
 104.8810012  73.3704997  43.2469988 105.4327653  72.7726932  43.5550136
  99.9780012  72.6034997  53.3559988  99.9850012  72.4674997  52.4089988
  99.0620012  72.4854997  53.6079988  99.8551714  72.5689430  53.2604666
 111.4160012  57.6454997  39.8579988 110.5160012  57.7844997  40.1529988
 111.6680012  58.4764997  39.4559988 111.3268702  57.7769074  39.8440205
  99.4820012  66.4334997  41.8319988  99.1900012  67.2014997  41.3409988
  98.8080012  65.7734997  41.6689988  99.3509081  66.4494406  41.7427340
 112.6050012  72.0114997  38.2339988 112.6790012  72.9504997  38.4049988
 113.5110012  71.7064997  38.1779988 112.7375100  72.0986722  38.2498119
  95.5750012  68.7964997  50.6469988  95.0740012  68.7684997  49.8319988
  95.5800012  67.8904997  50.9559988  95.5071526  68.6702278  50.5772872
  95.3250012  71.5764997  47.5309988  96.2710012  71.4324997  47.5119988
  95.2130012  72.3604997  48.0679988  95.4392727  71.6628046  47.6010072
 113.5230012  72.2424997  53.2129988 113.4740012  71.2874997  53.1759988
 112.6960012  72.5104997  53.6139988 113.4044940  72.1478998  53.2621375
 104.5020012  71.8164997  52.0889988 104.5890012  72.6424997  52.5639988
 103.6380012  71.4864997  52.3379988 104.3971964  71.8849878  52.1876549
 104.9160012  75.5884997  41.8949988 104.8410012  75.4674997  40.9489988
 104.9490012  76.5384997  42.0139988 104.9101848  75.7002500  41.7814834
  98.5690012  74.3774997  43.6759988  98.7220012  74.0294997  44.5549988
  97.7190012  74.0214997  43.4209988  98.4748962  74.2816650  43.7618340
 108.0180012  74.7424997  38.8969988 108.3930012  73.9984997  38.4269988
 108.0220012  74.4724997  39.8159988 108.0698915  74.6041486  38.9567824
 107.6870012  74.6684997  41.6469988 106.7510012  74.7684997  41.8249988
 107.9670012  73.9594997  42.2249988 107.5968255  74.5862711  41.7495391
 110.6750012  63.7354997  53.6929988 110.2680012  64.2164997  52.9719988
 110.7160012  62.8304997  53.3849988 110.6248437  63.6789374  53.5526683
  97.8240012  70.1194997  51.6899988  98.0400012  69.7584997  52.5489988
  96.9690012  69.7454997  51.4799988  97.7379292  70.0194111  51.7793386
 100.4430012  58.5894997  47.6849988  99.5810012  58.5024997  47.2779988
 100.4200012  59.4454997  48.1129988 100.3220330  58.6932765  47.6871863
 105.1060012  58.3114997  51.0599988 105.5260012  57.8964997  51.8129988
 104.1730012  58.1334997  51.1769988 105.0373644  58.2305900  51.1789539
 108.4320012  62.0674997  51.9129988 107.9180012  61.9414997  52.7109988
 108.2770012  62.9794997  51.6689988 108.3406852  62.1736132  51.9892158
 109.1950012  66.9284997  37.6749988 109.2370012  66.7054997  36.7449988
 110.0440012  67.3274997  37.8649988 109.3155396  66.9519155  37.5733627
 104.7670012  60.8044997  38.3449988 104.5140012  60.8234997  39.2679988
 104.5110012  59.9324997  38.0439988 104.6977790  60.6892437  38.4306263
 100.5340012  63.5554997  48.7799988  99.8920012  63.5144997  49.4889988
 100.5710012  64.4814997  48.5429988 100.4511324  63.6751559  48.8449824
 100.5310012  63.7764997  43.6919988  99.6380012  63.4354997  43.6339988
 100.9810012  63.3994997  42.9369988 100.4697305  63.6788484  43.5819177
 106.0660012  64.1924997  42.5089988 105.6570012  65.0074997  42.2179988
 106.7870012  64.0524997  41.8949988 106.1074537  64.2852018  42.3861342
 105.1680012  64.3674997  53.9969988 104.6060012  63.6634997  54.3179988
 105.9950012  64.2474997  54.4649988 105.2027095  64.2547883  54.1042330
 107.0710012  63.6384997  45.3229988 106.8760012  64.2434997  44.6079988
 107.2520012  62.8044997  44.8889988 107.0687614  63.6086300  45.1664405
  98.2840012  63.8754997  50.6469988  98.2460012  64.2754997  51.5159988
  97.7930012  63.0584997  50.7379988  98.2124684  63.8198069  50.7781059
 101.6500012  61.2494997  37.4459988 101.2190012  60.8044997  38.1759988
 100.9320012  61.6214997  36.9339988 101.4939438  61.2388940  37.4766799
  94.8920012  60.9914997  44.4979988  95.5230012  60.9624997  45.2169988
  95.3410012  60.5664997  43.7679988  95.0390774  60.9300492  44.4976553
  96.1660012  61.7374997  39.9219988  96.6400012  62.3284997  39.3369988
  95.4490012  62.2684997  40.2689988  96.1339341  61.8900867  39.8888836
 106.3350012  65.2764997  49.9949988 106.6580012  64.6454997  49.3519988
 105.8950012  64.7414997  50.6549988 106.3196895  65.1178441  49.9962850
 103.1120012  61.2034997  44.7789988 102.2010012  61.2604997  45.0669988
 103.6180012  61.1434997  45.5889988 103.0555413  61.2031985  44.9280622
  97.9410012  62.8324997  43.6049988  97.0510012  62.9324997  43.2649988
  98.2370012  61.9904997  43.2589988  97.8592823  62.7323545  43.5117213
 101.5940012  62.8324997  41.2619988 102.5250012  62.9614997  41.4399988
 101.3790012  63.5024997  40.6119988 101.6924247  62.9406565  41.1985747
 107.5170012  60.4384997  48.0429988 106.8410012  60.5694997  48.7069988
 107.0320012  60.2834997  47.2329988 107.3587145  60.4354905  48.0244517
 100.2680012  64.0274997  38.8289988  99.7250012  63.6474997  38.1369988
 101.1010012  64.2214997  38.3999988 100.3064399  64.0018124  38.6764526
 110.8050012  76.1104997  54.3199988 111.0050012  76.5344997  53.4849988
 111.4600012  76.4534997  54.9269988 110.9210051  76.2149648  54.2877836
  98.4030012  68.5844997  53.9279988  99.1350012  68.8384997  54.4889988
  97.6230012  68.7884997  54.4429988  98.3978232  68.6469177  54.0745760
 104.4320012  63.9914997  46.6659988 104.9970012  63.4444997  46.1189988
 104.2850012  63.4694997  47.4539988 104.4892918  63.8462024  46.6978454
  99.4340012  60.1274997  43.0839988  99.1170012  59.2254997  43.0489988
 100.2160012  60.1294997  42.5309988  99.4962284  60.0041628  43.0044783
 103.0590012  62.3794997  49.0799988 102.2230012  62.8334997  49.1899988
 103.5830012  62.6554997  49.8319988 103.0154414  62.4789376  49.1967136
 103.6030012  68.5924997  40.7639988 102.8580012  68.0854997  40.4419988
 103.4690012  68.6414997  41.7109988 103.4828776  68.5296940  40.8478647
 110.7530012  67.7254997  49.5509988 111.3950012  68.1824997  49.0069988
 109.9230012  67.8384997  49.0879988 110.7285963  67.8032704  49.4140177
 107.5010012  61.4064997  38.9639988 106.5620012  61.5184997  38.8119988
 107.7980012  62.2634997  39.2699988 107.4127666  61.5376443  38.9845768
 105.1220012  68.7764997  52.0009988 104.7770012  68.3954997  52.8079988
 104.9220012  69.7104997  52.0729988 105.0478061  68.8505228  52.1210961
 108.2190012  63.2734997  40.6239988 109.1110012  63.1364997  40.9429988
 108.2760012  64.0644997  40.0879988 108.3486285  63.3616660  40.5951690
  98.7280012  67.8874997  46.5339988  99.4730012  67.8854997  45.9329988
  98.8060012  67.0644997  47.0159988  98.8405518  67.7759315  46.5168929
 105.7290012  70.0514997  39.7899988 105.4330012  70.8774997  40.1709988
 105.0260012  69.4314997  39.9859988 105.5934914  70.0808199  39.8686443
  95.7360012  66.3484997  51.8489988  95.9590012  65.9304997  52.6809988
  95.1340012  65.7354997  51.4259988  95.6851759  66.2084668  51.9057022
 102.7520012  65.8654997  54.0619988 102.4560012  65.6994997  53.1669988
 103.6840012  65.6454997  54.0509988 102.8374166  65.8130640  53.9380536
 107.3730012  71.2384997  51.9519988 106.4720012  71.4214997  51.6839988
 107.4070012  71.4974997  52.8729988 107.2543041  71.2985512  52.0398197
 113.1040012  63.4834997  40.3189988 112.5500012  63.0874997  39.6469988
 113.2040012  64.3934997  40.0409988 113.0417059  63.5523586  40.1894401
 113.0670012  69.2834997  53.1559988 112.2160012  69.5214997  52.7889988
 113.6580012  69.2664997  52.4029988 113.0302487  69.3138258  53.0038893
 111.3990012  72.2694997  40.7839988 111.0260012  71.4434997  41.0929988
 111.6770012  72.0864997  39.8869988 111.3855630  72.1317303  40.7049626
 108.5600012  67.0774997  47.8049988 107.6310012  66.8454997  47.7779988
 109.0110012  66.3004997  47.4749988 108.4939216  66.9407238  47.7566917
 101.1030012  71.4054997  43.9379988 101.6300012  72.1784997  43.7379988
 100.2230012  71.6304997  43.6369988 101.0561773  71.5418005  43.8699010
 102.5300012  69.0684997  43.5149988 102.2890012  69.9934997  43.5559988
 101.7890012  68.6094997  43.9109988 102.3968409  69.1331421  43.5741377
 103.0450012  73.2174997  49.8299988 103.4070012  74.0724997  49.5959988
 103.5760012  72.9254997  50.5699988 103.1664473  73.2951060  49.8980855
 101.2130012  74.0904997  43.0599988 100.2630012  74.1954997  43.1109988
 101.5650012  74.9104997  43.4049988 101.1304203  74.2158314  43.1136650
 106.5890012  69.3164997  49.5299988 106.1630012  69.0894997  50.3569988
 107.1690012  68.5784997  49.3479988 106.6091868  69.1855299  49.6185830
 108.7920012  70.2454997  38.6039988 109.1450012  69.8654997  39.4089988
 107.8430012  70.1524997  38.6909988 108.7120441  70.1809596  38.7258559
 109.2470012  73.8684997  51.9999988 108.6460012  73.3134997  51.5039988
 109.5290012  74.5354997  51.3739988 109.2028519  73.8826841  51.8474952
 113.2950012  74.7254997  38.8049988 114.0390012  75.3114997  38.6649988
 112.6010012  75.2934997  39.1389988 113.3030292  74.8825582  38.8309961
  97.3700012  61.1014997  51.4069988  96.4770012  61.4404997  51.3389988
  97.2710012  60.2464997  51.8249988  97.2344164  61.0322588  51.4542235
 109.6580012  68.9184997  40.8309988 109.3800012  68.1904997  41.3869988
 110.5850012  69.0374997  41.0359988 109.7453124  68.8348802  40.9348845
  97.0210012  72.9064997  49.8419988  97.2380012  71.9744997  49.8109988
  97.2670012  73.1804997  50.7249988  97.0839549  72.8160636  49.9571763
 102.8830012  71.3574997  37.0509988 103.1220012  70.6094997  36.5039988
 102.6140012  70.9694997  37.8839988 102.8793675  71.2026638  37.0886865
 101.8200012  70.9274997  39.5079988 101.9660012  70.4074997  40.2979988
 101.8170012  71.8344997  39.8139988 101.8395989  70.9788853  39.6576088
 106.1040012  60.8424997  50.2969988 106.8030012  60.9164997  50.9469988
 105.7230012  59.9784997  50.4509988 106.1481767  60.7357624  50.4068322
 106.8890012  60.4944997  41.3939988 107.1090012  60.9664997  40.5909988
 107.4470012  60.8894997  42.0639988 106.9944968  60.6124285  41.3747331
 104.5570012  72.6254997  40.2569988 103.7410012  73.1224997  40.3089988
 105.0870012  73.1004997  39.6169988 104.5169161  72.7577722  40.1775956
 104.0890012  62.2224997  42.2289988 104.9010012  62.7274997  42.2749988
 103.8440012  62.0774997  43.1429988 104.1670520  62.2720375  42.3588517
 104.6240012  63.2084997  51.4139988 104.7430012  63.7824997  52.1709988
 105.2800012  62.5204997  51.5279988 104.7289757  63.1941079  51.5330825
 104.9720012  59.3034997  43.1669988 104.6260012  59.9214997  43.8119988
 105.6310012  59.8044997  42.6859988 105.0137826  59.4555802  43.1900971
 100.6300012  60.3664997  39.8539988 100.5470012  61.2554997  40.2009988
 101.5200012  60.1014997  40.0859988 100.7389469  60.4521430  39.9327626
 110.8290012  61.1154997  52.2489988 109.9120012  61.3784997  52.1609988
 111.1640012  61.1124997  51.3519988 110.7489900  61.1510224  52.1157919
 109.4310012  64.8664997  46.3439988 108.6330012  64.4514997  46.0159988
 109.8760012  64.1754997  46.8349988 109.3819885  64.7163543  46.3654889
  97.2050012  63.4584997  38.0309988  97.1600012  64.3974997  38.2089988
  96.3170012  63.2224997  37.7609988  97.0788574  63.5551892  38.0188912
 110.5170012  74.1224997  47.9669988 110.3620012  74.8004997  47.3099988
 111.4500012  74.1944997  48.1699988 110.6218500  74.2250170  47.9045119
  98.0130012  58.2404997  46.7039988  97.7840012  58.2994997  45.7759988
  97.5700012  57.4484997  47.0099988  97.9218530  58.1415753  46.6184786
  96.2310012  74.7934997  54.1939988  96.7720012  74.5764997  54.9539988
  95.7500012  73.9874997  54.0049988  96.2399345  74.6549514  54.2723076
 100.8290012  73.7124997  55.8149988 101.5960012  73.2534997  56.1559988
 100.8070012  73.4864997  54.8849988 100.9311434  73.6190409  55.7360043
 104.9210012  73.2204997  37.1899988 104.2770012  72.5894997  37.5109988
 105.6830012  72.6894997  36.9579988 104.9358077  73.0622920  37.2026011
 107.4060012  72.0924997  54.5439988 107.0550012  71.2364997  54.7869988
 108.1320012  72.2354997  55.1509988 107.4560769  71.9945636  54.6593619
 109.5250012  73.0374997  37.4239988 109.8080012  72.2434997  37.8759988
 110.2650012  73.2704997  36.8629988 109.6637486  72.9602803  37.4100698
  96.1380012  68.6034997  55.1489988  96.2820012  67.7014997  54.8619988
  95.3660012  68.8894997  54.6609988  96.0533323  68.5188261  55.0437881
 100.4800012  68.9474997  37.2809988 100.5440012  68.1534997  37.8119988
 101.1330012  68.8284997  36.5909988 100.5770241  68.8227148  37.2604317
 102.7940012  68.5734997  54.5809988 102.4650012  68.8444997  53.7239988
 102.9460012  67.6324997  54.4939988 102.7694809  68.4833862  54.4518244
 105.8320012  69.9944997  37.0169988 105.5630012  70.1744997  37.9179988
 105.6260012  69.0684997  36.8859988 105.7673825  69.8940152  37.1225214
 108.5280012  68.4894997  51.9649988 109.2740012  69.0774997  51.8449988
 107.7710012  69.0714997  52.0279988 108.5277554  68.6487011  51.9570907
  96.9710012  65.8034997  54.5689988  97.3790012  64.9464997  54.4479988
  96.7110012  65.8184997  55.4899988  96.9917568  65.6880807  54.6769588
 101.6290012  66.9194997  39.5869988 101.1690012  66.4354997  40.2729988
 101.8840012  66.2514997  38.9509988 101.6004902  66.7628731  39.5949334
 100.9180012  64.8124997  51.9429988 100.3000012  65.4874997  52.2229988
 101.2620012  65.1334997  51.1099988 100.8799615  64.9482721  51.8686581
 102.7000012  65.1624997  37.8489988 102.5200012  65.0084997  36.9219988
 103.6500012  65.2704997  37.8939988 102.8037776  65.1560175  37.7281843
 105.9380012  67.2844997  55.2199988 106.8910012  67.3674997  55.1929988
 105.7770012  66.5724997  55.8399988 106.0466426  67.1996746  55.3000579
 112.0900012  67.5174997  37.2949988 111.8160012  67.0924997  36.4819988
 112.1290012  68.4484997  37.0779988 112.0577699  67.5852484  37.1543610
 101.2570012  62.1674997  53.0249988 101.4070012  61.4384997  52.4229988
 101.2600012  62.9444997  52.4659988 101.2779302  62.1727851  52.8670692
 101.6700012  60.5374997  50.5179988 102.2060012  60.9884997  49.8659988
 100.8180012  60.4294997  50.0949988 101.6282178  60.5846390  50.3715756
 103.2520012  65.9764997  50.7569988 104.0020012  65.8204997  50.1839988
 102.9130012  66.8284997  50.4819988 103.3088921  66.0702968  50.6413561
 107.6670012  63.7914997  55.7859988 107.8600012  62.8604997  55.6739988
 108.5250012  64.2164997  55.7759988 107.8093020  63.7216389  55.7693361
 108.9840012  66.5804997  53.8629988 108.7030012  67.2894997  53.2859988
 109.9270012  66.5074997  53.7119988 109.0729027  66.6677646  53.7635551
  99.7360012  63.3654997  54.9369988  98.9690012  62.8334997  54.7269988
 100.4150012  63.0554997  54.3369988  99.7227022  63.2507506  54.8271648
 102.4760012  57.9934997  50.9489988 102.3770012  58.9404997  50.8439988
 101.7330012  57.6214997  50.4739988 102.3620563  58.0725902  50.8704560
 103.7400012  62.3154997  54.5129988 103.5040012  62.0954997  55.4149988
 102.9560012  62.1084997  54.0029988 103.6018628  62.2574760  54.5673932
 106.4550012  61.4424997  53.5889988 105.5080012  61.4744997  53.7209988
 106.7680012  60.8174997  54.2419988 106.3675475  61.3623207  53.6954455
 108.0890012  60.0764997  55.5939988 107.9930012  59.1244997  55.5879988
 107.7680012  60.3454997  56.4539988 108.0324070  59.9824035  55.7095441
  97.9160012  61.2864997  54.6409988  98.1280012  60.5794997  54.0309988
  97.8050012  60.8484997  55.4849988  97.9299721  61.1307084  54.6716843
 102.6970012  57.2874997  53.6209988 103.4090012  56.6474997  53.6069988
 102.5960012  57.5544997  52.7069988 102.7807939  57.2359938  53.4955650
 103.0510012  58.9704997  55.6739988 102.9190012  58.4944997  54.8539988
 102.4520012  59.7144997  55.6189988 102.9519071  59.0059618  55.5542886
 113.2330012  74.7724997  48.1959988 113.2120012  74.9574997  49.1349988
 113.9240012  75.3414997  47.8549988 113.3234618  74.8746606  48.2783864
 112.7970012  74.3404997  51.1179988 112.3090012  73.6044997  50.7469988
 113.3460012  73.9464997  51.7959988 112.8044872  74.1866249  51.1589160
 111.2470012  70.1294997  55.7559988 110.3810012  70.0244997  56.1499988
 111.6240012  70.8884997  56.2019988 111.1793308  70.2176900  55.8702393
 112.5480012  68.3864997  41.2699988 113.3980012  68.8074997  41.3969988
 112.5540012  67.6464997  41.8769988 112.6651372  68.3440803  41.3694344
 112.9430012  66.4394997  43.0939988 112.2160012  65.9604997  43.4909988
 113.5240012  66.6454997  43.8259988 112.9219375  66.4017090  43.2474129
 112.7020012  69.2244997  48.0409988 113.5350012  68.8464997  47.7609988
 112.8140012  70.1674997  47.9219988 112.8312647  69.3002218  47.9865487
 111.1880012  72.1024997  50.3479988 110.5410012  72.4274997  50.9739988
 110.6710012  71.6624997  49.6739988 111.0294029  72.0875004  50.3425827
 113.2110012  66.3404997  39.4849988 112.6890012  66.6974997  38.7659988
 113.1780012  67.0154997  40.1629988 113.1351634  66.4805413  39.4783145
 111.5600012  63.5804997  38.0359988 111.6560012  64.2474997  37.3549988
 111.4200012  62.7644997  37.5539988 111.5542135  63.5614500  37.8778491
 110.7290012  64.9604997  43.6569988 110.5790012  64.0154997  43.6359988
 110.3760012  65.2414997  44.4999988 110.6606625  64.8690441  43.7682346
  95.7650012  67.0384997  47.6669988  95.9490012  66.9564997  46.7309988
  96.6140012  66.9144997  48.0909988  95.9050139  67.0105003  47.5961455
 111.5860012  66.9304997  53.2949988 112.1690012  66.1964997  53.4869988
 112.1500012  67.7024997  53.3419988 111.7419769  66.9344227  53.3276159
 113.0820012  64.8334997  53.9799988 112.2190012  64.4544997  53.8139988
 113.6870012  64.0944997  53.9059988 113.0455979  64.6818023  53.9472817
 110.8070012  60.9884997  37.1529988 111.4180012  60.6174997  37.7899988
 109.9710012  60.5674997  37.3489988 110.7775032  60.8807554  37.2667035
 110.4400012  62.5434997  42.1189988 110.7200012  61.6364997  42.2429988
 111.1990012  62.9774997  41.7299988 110.5809277  62.4780942  42.0833682
 111.0520012  63.1244997  47.5549988 111.9850012  63.3364997  47.5209988
 110.8170012  63.2264997  48.4769988 111.1478036  63.1672769  47.6749976
 111.0810012  63.8614997  50.3309988 110.2380012  64.1294997  50.6969988
 111.5230012  64.6834997  50.1199988 111.0254158  64.0093291  50.3525491
  95.3620012  62.3094997  53.8079988  96.2820012  62.1874997  54.0439988
  94.9130012  61.5594997  54.1969988  95.4271580  62.1913727  53.8929006
 113.3640012  57.8414997  55.6839988 113.7140012  57.1874997  55.0789988
 113.5110012  58.6784997  55.2449988 113.4318419  57.8651591  55.5417118
 111.0530012  59.8064997  42.1669988 111.2360012  59.3574997  42.9929988
 110.4540012  59.2214997  41.7039988 110.9970202  59.6659975  42.2173275
  96.5830012  60.6214997  46.6989988  97.0290012  59.8294997  47.0009988
  97.0500012  61.3374997  47.1299988  96.7070172  60.6100624  46.7984820
  94.8870012  63.6204997  47.7679988  95.3790012  63.3994997  46.9769988
  95.2500012  64.4614997  48.0489988  95.0033126  63.7038357  47.6977531
 112.8840012  59.9504997  54.0339988 111.9660012  60.2214997  53.9979988
 113.0070012  59.4154997  53.2489988 112.7751066  59.9152892  53.9230487
 112.9200012  59.8734997  38.6949988 113.3320012  59.1524997  38.2199988
 113.6020012  60.5434997  38.7539988 113.0685885  59.8652368  38.6378915
  95.2010012  59.8784997  41.8219988  94.2760012  60.0874997  41.6929988
  95.6550012  60.3624997  41.1329988  95.1357368  59.9725993  41.7111226
 109.9720012  74.8624997  43.7679988 110.6240012  74.5154997  43.1599988
 110.4820012  75.3514997  44.4139988 110.1302637  74.8810597  43.7720236
  95.1650012  58.6164997  50.1669988  94.5000012  58.3704997  50.8099988
  94.7220012  59.2384997  49.5889988  95.0140956  58.6668632  50.1769352
  97.3570012  71.7914997  54.3109988  96.5360012  71.9664997  53.8509988
  97.1040012  71.7184997  55.2319988  97.2106164  71.8055622  54.3724923
 100.3110012  72.7664997  50.5699988  99.8860012  73.5754997  50.2869988
 101.2150012  72.8514997  50.2679988 100.3750271  72.8888469  50.4903776
 104.6220012  74.1654997  53.5289988 104.8070012  73.8314997  54.4069988
 105.4680012  74.4744997  53.2069988 104.7617539  74.1616047  53.6055605
 106.9670012  75.4514997  52.7729988 107.6440012  74.8184997  52.5329988
 107.2890012  75.8524997  53.5799988 107.1031637  75.4191154  52.8492793
 111.8840012  58.0404997  51.8529988 111.0720012  58.3654997  51.4649988
 112.1170012  57.2804997  51.3199988 111.8043423  57.9822436  51.7278253
  97.7130012  76.0224997  50.6169988  96.9920012  76.4624997  50.1659988
  97.3470012  75.7714997  51.4659988  97.5649804  76.0487698  50.6699840
 100.1800012  75.6224997  49.6469988  99.3150012  75.6944997  50.0509988
 100.1250012  76.1694997  48.8629988 100.0542085  75.7062685  49.5963362
 104.8900012  75.5104997  48.8219988 104.4340012  76.0394997  48.1679988
 105.0530012  76.1134997  49.5479988 104.8495585  75.6644468  48.8305062
 107.2180012  74.3884997  49.7669988 106.3130012  74.5534997  49.5019988
 107.6470012  75.2414997  49.7019988 107.1520799  74.5264483  49.7219182
 109.8220012  75.9584997  50.0619988 109.6400012  76.8744997  49.8519988
 109.9990012  75.5484997  49.2159988 109.8210210  76.0284822  49.9187885
  97.1270012  74.6454997  47.5269988  97.1090012  74.2204997  48.3849988
  97.9320012  74.3274997  47.1189988  97.2333875  74.5443812  47.5891655
  99.2690012  73.3554997  46.1819988  99.0500012  72.4394997  46.3519988
 100.0930012  73.4954997  46.6479988  99.3504420  73.2490520  46.2682774
 101.8060012  73.8254997  47.0309988 102.0190012  72.9374997  46.7439988
 101.8700012  73.7914997  47.9849988 101.8438232  73.6993102  47.1207397
 105.3140012  59.4894997  46.1749988 104.6400012  58.8604997  46.4309988
 105.8780012  59.0054997  45.5719988 105.2979230  59.3378744  46.1285340
 110.4570012  57.5974997  46.2879988 111.0610012  58.1444997  45.7859988
 109.5870012  57.9164997  46.0479988 110.4221241  57.7155806  46.1867654
 112.1840012  58.7354997  44.6209988 112.7960012  58.2214997  44.0949988
 112.5660012  59.6134997  44.6449988 112.3194540  58.7837140  44.5521830
  97.6410012  58.1234997  43.9969988  96.8640012  57.8894997  43.4899988
  98.1710012  57.3264997  44.0059988  97.6062330  57.9836988  43.9287742
  96.4770012  57.9214997  39.8009988  96.9160012  58.5324997  39.2089988
  95.8440012  58.4594997  40.2749988  96.4514514  58.0779257  39.7840930
 102.2200012  58.0504997  43.8109988 103.0950012  58.4384997  43.7809988
 102.0840012  57.8354997  44.7329988 102.3213695  58.0745184  43.9316440
 107.7770012  58.0804997  45.4599988 107.8530012  58.1754997  44.5099988
 107.5020012  57.1724997  45.5889988 107.7502321  57.9707867  45.3475079
 109.1300012  58.1064997  41.1519988 108.4280012  58.7214997  40.9429988
 108.6860012  57.2684997  41.2829988 108.9736330  58.0775783  41.1410328
  98.3380012  59.8374997  38.2429988  98.8300012  59.2074997  37.7159988
  98.9620012  60.1334997  38.9069988  98.4895446  59.7913199  38.2605980
 103.3640012  60.1304997  40.6999988 103.5420012  59.4844997  41.3829988
 103.3110012  60.9644997  41.1679988 103.3811829  60.1547985  40.8565940
 105.2430012  75.0794997  39.0959988 106.1090012  75.4454997  38.9179988
 104.9960012  74.6394997  38.2819988 105.3282392  75.0701756  38.9616289
 111.9520012  74.6424997  41.7749988 111.7570012  73.8944997  41.2099988
 111.9130012  75.4004997  41.1919988 111.9200380  74.6426099  41.6188384
  97.5990012  58.6374997  53.5149988  97.2330012  57.8724997  53.9579988
  98.5120012  58.6664997  53.8019988  97.6722790  58.5367224  53.6144070
  99.5720012  57.9884997  55.0509988 100.4700012  57.7144997  54.8659988
  99.1850012  57.2454997  55.5149988  99.6426612  57.8505914  55.0883643
 107.9930012  57.3204997  55.2329988 108.0700012  56.8944997  56.0869988
 108.8870012  57.3344997  54.8899988 108.1243428  57.2640879  55.3035310
 111.1690012  73.3934997  53.9249988 110.3870012  73.2074997  53.4059988
 111.0970012  74.3224997  54.1429988 111.0521777  73.4936492  53.8834048
 125.5750012  67.2794997  43.9559988 125.6640012  68.2234997  43.8239988
 124.9370012  67.0044997  43.2979988 125.5009081  67.3714830  43.8489614
 124.5080012  66.5344997  47.3749988 124.4700012  65.8884997  48.0799988
 124.1860012  66.0684997  46.6039988 124.4592333  66.3829408  47.3672978
 116.8770012  66.1494997  48.9679988 116.9180012  65.5234997  49.6909988
 117.5800012  66.7734997  49.1499988 116.9776363  66.1481196  49.0916044
 128.2140012  69.4734997  45.6759988 127.7740012  68.7534997  46.1269988
 128.2010012  70.1944997  46.3059988 128.1520226  69.4723731  45.8228494
 117.8000012  70.5994997  47.5029988 117.4310012  69.7974997  47.1329988
 118.7410012  70.4304997  47.5489988 117.8767289  70.4670153  47.4586316
 114.4100012  64.2594997  42.8959988 113.9630012  65.1054997  42.8769988
 113.8490012  63.6794997  42.3799988 114.2729900  64.2969916  42.8236801
 115.1210012  66.4214997  45.0219988 115.3340012  65.6514997  45.5489988
 115.8590012  66.5104997  44.4179988 115.2498496  66.3281394  45.0125300
 125.3260012  74.5784997  45.8889988 125.9460012  73.9014997  45.6149988
 125.1180012  74.3604997  46.7969988 125.3826904  74.4563870  45.9743365
 122.8980012  68.9674997  47.7809988 123.2020012  68.2814997  47.1859988
 123.6190012  69.0854997  48.3989988 123.0370671  68.8896305  47.7831816
 131.5610012  60.5684997  48.6419988 131.6100012  61.1784997  49.3779988
 131.9860012  61.0294997  47.9189988 131.6251824  60.7143741  48.6450205
 126.0390012  63.3614997  48.1089988 126.1810012  62.4154997  48.1289988
 125.9320012  63.5684997  47.1799988 126.0439864  63.2599534  47.9862339
 119.1930012  61.4624997  45.3809988 119.2370012  62.3224997  44.9629988
 118.7360012  60.9104997  44.7469988 119.1372185  61.5055799  45.2380299
 126.9160012  61.5934997  43.7819988 127.5620012  61.2644997  44.4069988
 127.4260012  62.1114997  43.1589988 127.0734264  61.6184611  43.7833862
 115.8140012  63.8594997  46.1429988 116.4670012  63.3094997  46.5749988
 115.8380012  63.5854997  45.2259988 115.9066683  63.7471466  46.0782123
 120.9700012  65.4094997  45.3579988 121.5860012  64.8834997  45.8679988
 120.3840012  64.7694997  44.9549988 120.9750810  65.2509208  45.3733173
 131.9520012  62.0464997  50.8779988 131.2640012  62.7044997  50.7819988
 131.9680012  61.8494997  51.8139988 131.8598525  62.1100462  50.9914808
 118.0040012  60.3804997  49.4549988 117.7850012  60.9104997  48.6889988
 117.3360012  60.6074997  50.1019988 117.8837600  60.4836906  49.4376379
 125.3730012  69.8804997  42.9989988 125.0770012  69.5584997  42.1479988
 125.0480012  70.7804997  43.0399988 125.2886371  69.9580215  42.8881801
 120.5730012  68.0564997  49.7419988 119.8330012  68.6544997  49.8459988
 121.2870012  68.6104997  49.4269988 120.5682237  68.2132831  49.7136465
 128.6800012  60.8844997  45.7619988 128.4640012  60.1184997  46.2949988
 129.3350012  61.3564997  46.2749988 128.7390632  60.8435889  45.9042861
 117.5970012  62.2724997  47.4069988 118.2110012  62.9054997  47.7809988
 118.1090012  61.8004997  46.7509988 117.7502296  62.2952370  47.3694252
 118.9800012  70.0204997  50.5299988 118.9750012  70.9004997  50.1519988
 118.1270012  69.9374997  50.9549988 118.8639464  70.1296117  50.5357907
 115.1010012  69.6914997  41.3119988 114.8290012  69.9204997  40.4229988
 115.1470012  70.5294997  41.7719988 115.0700094  69.8361213  41.2525697
 128.7260012  71.3134997  48.0239988 127.7850012  71.3714997  48.1859988
 129.0030012  72.2194997  47.8869988 128.6344679  71.4439443  48.0276815
 129.0270012  59.5994997  49.4419988 128.2910012  60.2104997  49.4039988
 129.7100012  60.0144997  48.9149988 129.0186541  59.7391374  49.3655832
 122.0300012  57.6864997  46.9079988 121.9130012  56.7374997  46.8529988
 121.1750012  58.0184997  47.1809988 121.8983733  57.6015409  46.9373897
 126.9780012  73.0944997  44.6499988 127.4040012  72.3874997  44.1649988
 127.2950012  73.8954997  44.2329988 127.0791019  73.1060994  44.5273130
 128.1380012  70.9954997  43.1579988 127.8800012  70.3054997  42.5469988
 128.2090012  70.5524997  44.0039988 128.1122856  70.8412124  43.1886885
 129.8240012  69.5614997  51.6359988 129.9640012  68.9704997  50.8959988
 129.9910012  70.4344997  51.2789988 129.8656778  69.5986426  51.4866965
 124.2970012  66.5234997  41.4079988 123.5850012  67.0584997  41.0559988
 124.9880012  66.5794997  40.7479988 124.2930132  66.6042543  41.2706289
 124.3500012  64.9814997  38.4469988 125.0510012  65.0034997  39.0979988
 124.6530012  64.3534997  37.7909988 124.4867830  64.8996566  38.4473711
 131.6660012  65.9014997  49.7019988 131.0130012  66.5964997  49.7909988
 132.1310012  66.1114997  48.8919988 131.6395390  66.0249425  49.6046883
 127.7020012  66.7334997  42.3599988 126.9700012  66.9614997  42.9329988
 128.1500012  66.0194997  42.8149988 127.6623095  66.6682571  42.4999119
 127.6000012  64.9074997  51.4269988 127.6800012  65.6704997  51.9989988
 126.9980012  65.1864997  50.7369988 127.5295756  65.0497134  51.4120589
 119.3480012  67.3634997  44.2419988 119.0170012  66.9934997  43.4239988
 119.9360012  66.6934997  44.5889988 119.3821873  67.2221156  44.1768102
 120.7140012  70.7914997  46.9239988 120.6200012  70.2134997  46.1669988
 121.4440012  70.4204997  47.4199988 120.7997981  70.6622390  46.8874165
 119.7140012  66.1324997  47.8759988 120.2800012  66.2534997  47.1129988
 120.0330012  66.7694997  48.5149988 119.8345786  66.2351884  47.8580040
 126.0230012  71.6354997  48.6099988 125.7830012  72.2974997  49.2579988
 125.8250012  70.8014997  49.0349988 125.9633808  71.6133134  48.7561524
 120.5940012  70.5314997  52.5929988 120.2830012  71.3134997  53.0479988
 119.9440012  70.3784997  51.9069988 120.4635558  70.6179105  52.5625871
 126.5730012  65.8954997  40.0449988 127.1530012  66.0454997  40.7919988
 126.9870012  66.3664997  39.3219988 126.7082830  65.9796841  40.0494134
 117.5140012  66.7294997  51.8219988 117.5850012  67.3804997  52.5199988
 116.6240012  66.8324997  51.4869988 117.4033117  66.8325936  51.8722700
 124.3000012  72.6324997  43.4799988 124.7740012  72.9274997  44.2579988
 123.7370012  73.3704997  43.2469988 124.2887653  72.7726932  43.5550136
 118.8340012  72.6034997  53.3559988 118.8410012  72.4674997  52.4089988
 117.9180012  72.4854997  53.6079988 118.7111714  72.5689430  53.2604666
 130.2720012  57.6454997  39.8579988 129.3720012  57.7844997  40.1529988
 130.5240012  58.4764997  39.4559988 130.1828702  57.7769074  39.8440205
 118.3380012  66.4334997  41.8319988 118.0460012  67.2014997  41.3409988
 117.6640012  65.7734997  41.6689988 118.2069081  66.4494406  41.7427340
 131.4610012  72.0114997  38.2339988 131.5350012  72.9504997  38.4049988
 132.3670012  71.7064997  38.1779988 131.5935100  72.0986722  38.2498119
 114.4310012  68.7964997  50.6469988 113.9300012  68.7684997  49.8319988
 114.4360012  67.8904997  50.9559988 114.3631526  68.6702278  50.5772872
 114.1810012  71.5764997  47.5309988 115.1270012  71.4324997  47.5119988
 114.0690012  72.3604997  48.0679988 114.2952727  71.6628046  47.6010072
 132.3790012  72.2424997  53.2129988 132.3300012  71.2874997  53.1759988
 131.5520012  72.5104997  53.6139988 132.2604940  72.1478998  53.2621375
 123.3580012  71.8164997  52.0889988 123.4450012  72.6424997  52.5639988
 122.4940012  71.4864997  52.3379988 123.2531964  71.8849878  52.1876549
 123.7720012  75.5884997  41.8949988 123.6970012  75.4674997  40.9489988
 123.8050012  76.5384997  42.0139988 123.7661848  75.7002500  41.7814834
 117.4250012  74.3774997  43.6759988 117.5780012  74.0294997  44.5549988
 116.5750012  74.0214997  43.4209988 117.3308962  74.2816650  43.7618340
 126.8740012  74.7424997  38.8969988 127.2490012  73.9984997  38.4269988
 126.8780012  74.4724997  39.8159988 126.9258915  74.6041486  38.9567824
 126.5430012  74.6684997  41.6469988 125.6070012  74.7684997  41.8249988
 126.8230012  73.9594997  42.2249988 126.4528255  74.5862711  41.7495391
 129.5310012  63.7354997  53.6929988 129.1240012  64.2164997  52.9719988
 129.5720012  62.8304997  53.3849988 129.4808437  63.6789374  53.5526683
 116.6800012  70.1194997  51.6899988 116.8960012  69.7584997  52.5489988
 115.8250012  69.7454997  51.4799988 116.5939292  70.0194111  51.7793386
 119.2990012  58.5894997  47.6849988 118.4370012  58.5024997  47.2779988
 119.2760012  59.4454997  48.1129988 119.1780330  58.6932765  47.6871863
 123.9620012  58.3114997  51.0599988 124.3820012  57.8964997  51.8129988
 123.0290012  58.1334997  51.1769988 123.8933644  58.2305900  51.1789539
 127.2880012  62.0674997  51.9129988 126.7740012  61.9414997  52.7109988
 127.1330012  62.9794997  51.6689988 127.1966852  62.1736132  51.9892158
 128.0510012  66.9284997  37.6749988 128.0930012  66.7054997  36.7449988
 128.9000012  67.3274997  37.8649988 128.1715396  66.9519155  37.5733627
 123.6230012  60.8044997  38.3449988 123.3700012  60.8234997  39.2679988
 123.3670012  59.9324997  38.0439988 123.5537790  60.6892437  38.4306263
 119.3900012  63.5554997  48.7799988 118.7480012  63.5144997  49.4889988
 119.4270012  64.4814997  48.5429988 119.3071324  63.6751559  48.8449824
 119.3870012  63.7764997  43.6919988 118.4940012  63.4354997  43.6339988
 119.8370012  63.3994997  42.9369988 119.3257305  63.6788484  43.5819177
 124.9220012  64.1924997  42.5089988 124.5130012  65.0074997  42.2179988
 125.6430012  64.0524997  41.8949988 124.9634537  64.2852018  42.3861342
 124.0240012  64.3674997  53.9969988 123.4620012  63.6634997  54.3179988
 124.8510012  64.2474997  54.4649988 124.0587095  64.2547883  54.1042330
 125.9270012  63.6384997  45.3229988 125.7320012  64.2434997  44.6079988
 126.1080012  62.8044997  44.8889988 125.9247614  63.6086300  45.1664405
 117.1400012  63.8754997  50.6469988 117.1020012  64.2754997  51.5159988
 116.6490012  63.0584997  50.7379988 117.0684684  63.8198069  50.7781059
 120.5060012  61.2494997  37.4459988 120.0750012  60.8044997  38.1759988
 119.7880012  61.6214997  36.9339988 120.3499438  61.2388940  37.4766799
 113.7480012  60.9914997  44.4979988 114.3790012  60.9624997  45.2169988
 114.1970012  60.5664997  43.7679988 113.8950774  60.9300492  44.4976553
 115.0220012  61.7374997  39.9219988 115.4960012  62.3284997  39.3369988
 114.3050012  62.2684997  40.2689988 114.9899341  61.8900867  39.8888836
 125.1910012  65.2764997  49.9949988 125.5140012  64.6454997  49.3519988
 124.7510012  64.7414997  50.6549988 125.1756895  65.1178441  49.9962850
 121.9680012  61.2034997  44.7789988 121.0570012  61.2604997  45.0669988
 122.4740012  61.1434997  45.5889988 121.9115413  61.2031985  44.9280622
 116.7970012  62.8324997  43.6049988 115.9070012  62.9324997  43.2649988
 117.0930012  61.9904997  43.2589988 116.7152823  62.7323545  43.5117213
 120.4500012  62.8324997  41.2619988 121.3810012  62.9614997  41.4399988
 120.2350012  63.5024997  40.6119988 120.5484247  62.9406565  41.1985747
 126.3730012  60.4384997  48.0429988 125.6970012  60.5694997  48.7069988
 125.8880012  60.2834997  47.2329988 126.2147145  60.4354905  48.0244517
 119.1240012  64.0274997  38.8289988 118.5810012  63.6474997  38.1369988
 119.9570012  64.2214997  38.3999988 119.1624399  64.0018124  38.6764526
 129.6610012  76.1104997  54.3199988 129.8610012  76.5344997  53.4849988
 130.3160012  76.4534997  54.9269988 129.7770051  76.2149648  54.2877836
 117.2590012  68.5844997  53.9279988 117.9910012  68.8384997  54.4889988
 116.4790012  68.7884997  54.4429988 117.2538232  68.6469177  54.0745760
 123.2880012  63.9914997  46.6659988 123.8530012  63.4444997  46.1189988
 123.1410012  63.4694997  47.4539988 123.3452918  63.8462024  46.6978454
 118.2900012  60.1274997  43.0839988 117.9730012  59.2254997  43.0489988
 119.0720012  60.1294997  42.5309988 118.3522284  60.0041628  43.0044783
 121.9150012  62.3794997  49.0799988 121.0790012  62.8334997  49.1899988
 122.4390012  62.6554997  49.8319988 121.8714414  62.4789376  49.1967136
 122.4590012  68.5924997  40.7639988 121.7140012  68.0854997  40.4419988
 122.3250012  68.6414997  41.7109988 122.3388776  68.5296940  40.8478647
 129.6090012  67.7254997  49.5509988 130.2510012  68.1824997  49.0069988
 128.7790012  67.8384997  49.0879988 129.5845963  67.8032704  49.4140177
 126.3570012  61.4064997  38.9639988 125.4180012  61.5184997  38.8119988
 126.6540012  62.2634997  39.2699988 126.2687666  61.5376443  38.9845768
 123.9780012  68.7764997  52.0009988 123.6330012  68.3954997  52.8079988
 123.7780012  69.7104997  52.0729988 123.9038061  68.8505228  52.1210961
 127.0750012  63.2734997  40.6239988 127.9670012  63.1364997  40.9429988
 127.1320012  64.0644997  40.0879988 127.2046285  63.3616660  40.5951691
 117.5840012  67.8874997  46.5339988 118.3290012  67.8854997  45.9329988
 117.6620012  67.0644997  47.0159988 117.6965518  67.7759315  46.5168929
 124.5850012  70.0514997  39.7899988 124.2890012  70.8774997  40.1709988
 123.8820012  69.4314997  39.9859988 124.4494914  70.0808199  39.8686443
 114.5920012  66.3484997  51.8489988 114.8150012  65.9304997  52.6809988
 113.9900012  65.7354997  51.4259988 114.5411759  66.2084668  51.9057022
 121.6080012  65.8654997  54.0619988 121.3120012  65.6994997  53.1669988
 122.5400012  65.6454997  54.0509988 121.6934166  65.8130640  53.9380536
 126.2290012  71.2384997  51.9519988 125.3280012  71.4214997  51.6839988
 126.2630012  71.4974997  52.8729988 126.1103041  71.2985512  52.0398197
 131.9600012  63.4834997  40.3189988 131.4060012  63.0874997  39.6469988
 132.0600012  64.3934997  40.0409988 131.8977059  63.5523586  40.1894401
 131.9230012  69.2834997  53.1559988 131.0720012  69.5214997  52.7889988
 132.5140012  69.2664997  52.4029988 131.8862487  69.3138258  53.0038893
 130.2550012  72.2694997  40.7839988 129.8820012  71.4434997  41.0929988
 130.5330012  72.0864997  39.8869988 130.2415630  72.1317303  40.7049626
 127.4160012  67.0774997  47.8049988 126.4870012  66.8454997  47.7779988
 127.8670012  66.3004997  47.4749988 127.3499216  66.9407238  47.7566917
 119.9590012  71.4054997  43.9379988 120.4860012  72.1784997  43.7379988
 119.0790012  71.6304997  43.6369988 119.9121773  71.5418005  43.8699010
 115.7140012  66.2674997  38.5249988 116.3300012  66.8944997  38.9049988
 114.8520012  66.5834997  38.7969988 115.6817698  66.3959430  38.6137183
 121.3860012  69.0684997  43.5149988 121.1450012  69.9934997  43.5559988
 120.6450012  68.6094997  43.9109988 121.2528409  69.1331421  43.5741377
 121.9010012  73.2174997  49.8299988 122.2630012  74.0724997  49.5959988
 122.4320012  72.9254997  50.5699988 122.0224473  73.2951060  49.8980855
 120.0690012  74.0904997  43.0599988 119.1190012  74.1954997  43.1109988
 120.4210012  74.9104997  43.4049988 119.9864203  74.2158314  43.1136650
 125.4450012  69.3164997  49.5299988 125.0190012  69.0894997  50.3569988
 126.0250012  68.5784997  49.3479988 125.4651868  69.1855299  49.6185830
 127.6480012  70.2454997  38.6039988 128.0010012  69.8654997  39.4089988
 126.6990012  70.1524997  38.6909988 127.5680441  70.1809596  38.7258559
 128.1030012  73.8684997  51.9999988 127.5020012  73.3134997  51.5039988
 128.3850012  74.5354997  51.3739988 128.0588519  73.8826841  51.8474952
 132.1510012  74.7254997  38.8049988 132.8950012  75.3114997  38.6649988
 131.4570012  75.2934997  39.1389988 132.1590292  74.8825582  38.8309961
 116.2260012  61.1014997  51.4069988 115.3330012  61.4404997  51.3389988
 116.1270012  60.2464997  51.8249988 116.0904164  61.0322588  51.4542235
 128.5140012  68.9184997  40.8309988 128.2360012  68.1904997  41.3869988
 129.4410012  69.0374997  41.0359988 128.6013124  68.8348802  40.9348845
 115.8770012  72.9064997  49.8419988 116.0940012  71.9744997  49.8109988
 116.1230012  73.1804997  50.7249988 115.9399549  72.8160636  49.9571763
 121.7390012  71.3574997  37.0509988 121.9780012  70.6094997  36.5039988
 121.4700012  70.9694997  37.8839988 121.7353675  71.2026638  37.0886865
 120.6760012  70.9274997  39.5079988 120.8220012  70.4074997  40.2979988
 120.6730012  71.8344997  39.8139988 120.6955989  70.9788853  39.6576088
 117.1290012  68.1804997  40.0179988 116.4430012  68.5324997  40.5849988
 117.6510012  68.9434997  39.7709988 117.1056852  68.3318578  40.0622118
 124.9600012  60.8424997  50.2969988 125.6590012  60.9164997  50.9469988
 124.5790012  59.9784997  50.4509988 125.0041767  60.7357624  50.4068322
 125.7450012  60.4944997  41.3939988 125.9650012  60.9664997  40.5909988
 126.3030012  60.8894997  42.0639988 125.8504968  60.6124285  41.3747331
 123.4130012  72.6254997  40.2569988 122.5970012  73.1224997  40.3089988
 123.9430012  73.1004997  39.6169988 123.3729161  72.7577722  40.1775956
 122.9450012  62.2224997  42.2289988 123.7570012  62.7274997  42.2749988
 122.7000012  62.0774997  43.1429988 123.0230520  62.2720375  42.3588517
 123.4800012  63.2084997  51.4139988 123.5990012  63.7824997  52.1709988
 124.1360012  62.5204997  51.5279988 123.5849757  63.1941079  51.5330825
 123.8280012  59.3034997  43.1669988 123.4820012  59.9214997  43.8119988
 124.4870012  59.8044997  42.6859988 123.8697826  59.4555802  43.1900971
 120.7520012  73.6694997  40.2389988 120.9120012  74.4684997  39.7379988
 120.5540012  73.9754997  41.1239988 120.7471649  73.8204469  40.2899815
 119.4860012  60.3664997  39.8539988 119.4030012  61.2554997  40.2009988
 120.3760012  60.1014997  40.0859988 119.5949469  60.4521430  39.9327626
 129.6850012  61.1154997  52.2489988 128.7680012  61.3784997  52.1609988
 130.0200012  61.1124997  51.3519988 129.6049900  61.1510224  52.1157919
 128.2870012  64.8664997  46.3439988 127.4890012  64.4514997  46.0159988
 128.7320012  64.1754997  46.8349988 128.2379885  64.7163543  46.3654889
 117.7450012  70.7944997  38.9149988 118.3370012  71.4934997  39.1909988
 118.2040012  70.3614997  38.1949988 117.8881142  70.8317049  38.8554830
 116.0610012  63.4584997  38.0309988 116.0160012  64.3974997  38.2089988
 115.1730012  63.2224997  37.7609988 115.9348574  63.5551892  38.0188912
 129.3730012  74.1224997  47.9669988 129.2180012  74.8004997  47.3099988
 130.3060012  74.1944997  48.1699988 129.4778500  74.2250170  47.9045119
 116.8690012  58.2404997  46.7039988 116.6400012  58.2994997  45.7759988
 116.4260012  57.4484997  47.0099988 116.7778530  58.1415753  46.6184786
 115.7990012  72.1804997  42.8639988 114.9670012  72.6534997  42.8919988
 116.3450012  72.6904997  42.2659988 115.7589739  72.3141871  42.7869716
 115.0870012  74.7934997  54.1939988 115.6280012  74.5764997  54.9539988
 114.6060012  73.9874997  54.0049988 115.0959345  74.6549514  54.2723076
 119.6850012  73.7124997  55.8149988 120.4520012  73.2534997  56.1559988
 119.6630012  73.4864997  54.8849988 119.7871434  73.6190409  55.7360043
 123.7770012  73.2204997  37.1899988 123.1330012  72.5894997  37.5109988
 124.5390012  72.6894997  36.9579988 123.7918077  73.0622920  37.2026011
 126.2620012  72.0924997  54.5439988 125.9110012  71.2364997  54.7869988
 126.9880012  72.2354997  55.1509988 126.3120769  71.9945636  54.6593619
 128.3810012  73.0374997  37.4239988 128.6640012  72.2434997  37.8759988
 129.1210012  73.2704997  36.8629988 128.5197486  72.9602803  37.4100698
 114.9940012  68.6034997  55.1489988 115.1380012  67.7014997  54.8619988
 114.2220012  68.8894997  54.6609988 114.9093322  68.5188261  55.0437881
 119.3360012  68.9474997  37.2809988 119.4000012  68.1534997  37.8119988
 119.9890012  68.8284997  36.5909988 119.4330241  68.8227148  37.2604317
 121.6500012  68.5734997  54.5809988 121.3210012  68.8444997  53.7239988
 121.8020012  67.6324997  54.4939988 121.6254809  68.4833862  54.4518244
 124.6880012  69.9944997  37.0169988 124.4190012  70.1744997  37.9179988
 124.4820012  69.0684997  36.8859988 124.6233825  69.8940152  37.1225214
 127.3840012  68.4894997  51.9649988 128.1300012  69.0774997  51.8449988
 126.6270012  69.0714997  52.0279988 127.3837554  68.6487011  51.9570907
 115.8270012  65.8034997  54.5689988 116.2350012  64.9464997  54.4479988
 115.5670012  65.8184997  55.4899988 115.8477568  65.6880807  54.6769588
 120.4850012  66.9194997  39.5869988 120.0250012  66.4354997  40.2729988
 120.7400012  66.2514997  38.9509988 120.4564902  66.7628731  39.5949334
 119.7740012  64.8124997  51.9429988 119.1560012  65.4874997  52.2229988
 120.1180012  65.1334997  51.1099988 119.7359615  64.9482721  51.8686581
 121.5560012  65.1624997  37.8489988 121.3760012  65.0084997  36.9219988
 122.5060012  65.2704997  37.8939988 121.6597776  65.1560175  37.7281843
 124.7940012  67.2844997  55.2199988 125.7470012  67.3674997  55.1929988
 124.6330012  66.5724997  55.8399988 124.9026426  67.1996746  55.3000579
 130.9460012  67.5174997  37.2949988 130.6720012  67.0924997  36.4819988
 130.9850012  68.4484997  37.0779988 130.9137699  67.5852484  37.1543610
 120.1130012  62.1674997  53.0249988 120.2630012  61.4384997  52.4229988
 120.1160012  62.9444997  52.4659988 120.1339302  62.1727851  52.8670692
 120.5260012  60.5374997  50.5179988 121.0620012  60.9884997  49.8659988
 119.6740012  60.4294997  50.0949988 120.4842178  60.5846390  50.3715756
 122.1080012  65.9764997  50.7569988 122.8580012  65.8204997  50.1839988
 121.7690012  66.8284997  50.4819988 122.1648921  66.0702968  50.6413561
 126.5230012  63.7914997  55.7859988 126.7160012  62.8604997  55.6739988
 127.3810012  64.2164997  55.7759988 126.6653020  63.7216389  55.7693361
 127.8400012  66.5804997  53.8629988 127.5590012  67.2894997  53.2859988
 128.7830012  66.5074997  53.7119988 127.9289027  66.6677646  53.7635551
 118.5920012  63.3654997  54.9369988 117.8250012  62.8334997  54.7269988
 119.2710012  63.0554997  54.3369988 118.5787022  63.2507506  54.8271648
 121.3320012  57.9934997  50.9489988 121.2330012  58.9404997  50.8439988
 120.5890012  57.6214997  50.4739988 121.2180564  58.0725902  50.8704560
 122.5960012  62.3154997  54.5129988 122.3600012  62.0954997  55.4149988
 121.8120012  62.1084997  54.0029988 122.4578628  62.2574760  54.5673932
 125.3110012  61.4424997  53.5889988 124.3640012  61.4744997  53.7209988
 125.6240012  60.8174997  54.2419988 125.2235475  61.3623207  53.6954455
 126.9450012  60.0764997  55.5939988 126.8490012  59.1244997  55.5879988
 126.6240012  60.3454997  56.4539988 126.8884070  59.9824035  55.7095441
 116.7720012  61.2864997  54.6409988 116.9840012  60.5794997  54.0309988
 116.6610012  60.8484997  55.4849988 116.7859721  61.1307084  54.6716843
 121.5530012  57.2874997  53.6209988 122.2650012  56.6474997  53.6069988
 121.4520012  57.5544997  52.7069988 121.6367939  57.2359938  53.4955650
 121.9070012  58.9704997  55.6739988 121.7750012  58.4944997  54.8539988
 121.3080012  59.7144997  55.6189988 121.8079071  59.0059618  55.5542886
 121.4530012  75.8534997  38.8509988 122.3860012  76.0114997  38.9939988
 121.1890012  76.5284997  38.2259988 121.5449510  75.9663611  38.7860741
 115.0220012  70.4894997  38.3329988 115.9360012  70.5684997  38.6069988
 115.0290012  69.8024997  37.6669988 115.1481131  70.4073961  38.2804393
 113.6710012  75.8824997  43.4109988 113.0240012  75.4204997  42.8779988
 114.0250012  75.2104997  43.9929988 113.6303849  75.7284723  43.4167959
 114.5410012  73.9634997  45.2149988 114.2060012  73.0834997  45.3869988
 114.7630012  74.3084997  46.0799988 114.5251783  73.8897500  45.3554208
 132.0890012  74.7724997  48.1959988 132.0680012  74.9574997  49.1349988
 132.7800012  75.3414997  47.8549988 132.1794618  74.8746606  48.2783864
 131.6530012  74.3404997  51.1179988 131.1650012  73.6044997  50.7469988
 132.2020012  73.9464997  51.7959988 131.6604872  74.1866249  51.1589160
 130.1030012  70.1294997  55.7559988 129.2370012  70.0244997  56.1499988
 130.4800012  70.8884997  56.2019988 130.0353308  70.2176900  55.8702393
 131.4040012  68.3864997  41.2699988 132.2540012  68.8074997  41.3969988
 131.4100012  67.6464997  41.8769988 131.5211372  68.3440803  41.3694344
 131.7990012  66.4394997  43.0939988 131.0720012  65.9604997  43.4909988
 132.3800012  66.6454997  43.8259988 131.7779375  66.4017090  43.2474129
 131.5580012  69.2244997  48.0409988 132.3910012  68.8464997  47.7609988
 131.6700012  70.1674997  47.9219988 131.6872647  69.3002218  47.9865487
 130.0440012  72.1024997  50.3479988 129.3970012  72.4274997  50.9739988
 129.5270012  71.6624997  49.6739988 129.8854029  72.0875004  50.3425827
 132.0670012  66.3404997  39.4849988 131.5450012  66.6974997  38.7659988
 132.0340012  67.0154997  40.1629988 131.9911634  66.4805413  39.4783145
 130.4160012  63.5804997  38.0359988 130.5120012  64.2474997  37.3549988
 130.2760012  62.7644997  37.5539988 130.4102135  63.5614500  37.8778491
 129.5850012  64.9604997  43.6569988 129.4350012  64.0154997  43.6359988
 129.2320012  65.2414997  44.4999988 129.5166625  64.8690441  43.7682346
 114.6210012  67.0384997  47.6669988 114.8050012  66.9564997  46.7309988
 115.4700012  66.9144997  48.0909988 114.7610139  67.0105003  47.5961455
 130.4420012  66.9304997  53.2949988 131.0250012  66.1964997  53.4869988
 131.0060012  67.7024997  53.3419988 130.5979769  66.9344227  53.3276159
 131.9380012  64.8334997  53.9799988 131.0750012  64.4544997  53.8139988
 132.5430012  64.0944997  53.9059988 131.9015979  64.6818023  53.9472817
 129.6630012  60.9884997  37.1529988 130.2740012  60.6174997  37.7899988
 128.8270012  60.5674997  37.3489988 129.6335032  60.8807554  37.2667035
 129.2960012  62.5434997  42.1189988 129.5760012  61.6364997  42.2429988
 130.0550012  62.9774997  41.7299988 129.4369277  62.4780942  42.0833682
 129.9080012  63.1244997  47.5549988 130.8410012  63.3364997  47.5209988
 129.6730012  63.2264997  48.4769988 130.0038036  63.1672769  47.6749976
 129.9370012  63.8614997  50.3309988 129.0940012  64.1294997  50.6969988
 130.3790012  64.6834997  50.1199988 129.8814158  64.0093291  50.3525491
 114.2180012  62.3094997  53.8079988 115.1380012  62.1874997  54.0439988
 113.7690012  61.5594997  54.1969988 114.2831580  62.1913727  53.8929006
 132.2200012  57.8414997  55.6839988 132.5700012  57.1874997  55.0789988
 132.3670012  58.6784997  55.2449988 132.2878419  57.8651591  55.5417118
 129.9090012  59.8064997  42.1669988 130.0920012  59.3574997  42.9929988
 129.3100012  59.2214997  41.7039988 129.8530202  59.6659975  42.2173275
 115.4390012  60.6214997  46.6989988 115.8850012  59.8294997  47.0009988
 115.9060012  61.3374997  47.1299988 115.5630172  60.6100624  46.7984820
 113.7430012  63.6204997  47.7679988 114.2350012  63.3994997  46.9769988
 114.1060012  64.4614997  48.0489988 113.8593126  63.7038357  47.6977531
 131.7400012  59.9504997  54.0339988 130.8220012  60.2214997  53.9979988
 131.8630012  59.4154997  53.2489988 131.6311066  59.9152892  53.9230487
 131.7760012  59.8734997  38.6949988 132.1880012  59.1524997  38.2199988
 132.4580012  60.5434997  38.7539988 131.9245885  59.8652368  38.6378915
 114.0570012  59.8784997  41.8219988 113.1320012  60.0874997  41.6929988
 114.5110012  60.3624997  41.1329988 113.9917368  59.9725993  41.7111226
 128.8280012  74.8624997  43.7679988 129.4800012  74.5154997  43.1599988
 129.3380012  75.3514997  44.4139988 128.9862637  74.8810597  43.7720236
 114.0210012  58.6164997  50.1669988 113.3560012  58.3704997  50.8099988
 113.5780012  59.2384997  49.5889988 113.8700956  58.6668632  50.1769352
 116.2130012  71.7914997  54.3109988 115.3920012  71.9664997  53.8509988
 115.9600012  71.7184997  55.2319988 116.0666164  71.8055622  54.3724923
 119.1670012  72.7664997  50.5699988 118.7420012  73.5754997  50.2869988
 120.0710012  72.8514997  50.2679988 119.2310271  72.8888469  50.4903776
 123.4780012  74.1654997  53.5289988 123.6630012  73.8314997  54.4069988
 124.3240012  74.4744997  53.2069988 123.6177539  74.1616047  53.6055605
 125.8230012  75.4514997  52.7729988 126.5000012  74.8184997  52.5329988
 126.1450012  75.8524997  53.5799988 125.9591637  75.4191154  52.8492793
 130.7400012  58.0404997  51.8529988 129.9280012  58.3654997  51.4649988
 130.9730012  57.2804997  51.3199988 130.6603423  57.9822436  51.7278253
 116.5690012  76.0224997  50.6169988 115.8480012  76.4624997  50.1659988
 116.2030012  75.7714997  51.4659988 116.4209804  76.0487698  50.6699840
 119.0360012  75.6224997  49.6469988 118.1710012  75.6944997  50.0509988
 118.9810012  76.1694997  48.8629988 118.9102085  75.7062685  49.5963362
 123.7460012  75.5104997  48.8219988 123.2900012  76.0394997  48.1679988
 123.9090012  76.1134997  49.5479988 123.7055585  75.6644468  48.8305062
 126.0740012  74.3884997  49.7669988 125.1690012  74.5534997  49.5019988
 126.5030012  75.2414997  49.7019988 126.0080799  74.5264483  49.7219182
 128.6780012  75.9584997  50.0619988 128.4960012  76.8744997  49.8519988
 128.8550012  75.5484997  49.2159988 128.6770210  76.0284822  49.9187885
 115.9830012  74.6454997  47.5269988 115.9650012  74.2204997  48.3849988
 116.7880012  74.3274997  47.1189988 116.0893875  74.5443812  47.5891655
 118.1250012  73.3554997  46.1819988 117.9060012  72.4394997  46.3519988
 118.9490012  73.4954997  46.6479988 118.2064420  73.2490520  46.2682774
 120.6620012  73.8254997  47.0309988 120.8750012  72.9374997  46.7439988
 120.7260012  73.7914997  47.9849988 120.6998232  73.6993102  47.1207397
 124.1700012  59.4894997  46.1749988 123.4960012  58.8604997  46.4309988
 124.7340012  59.0054997  45.5719988 124.1539230  59.3378744  46.1285340
 129.3130012  57.5974997  46.2879988 129.9170012  58.1444997  45.7859988
 128.4430012  57.9164997  46.0479988 129.2781241  57.7155806  46.1867654
 131.0400012  58.7354997  44.6209988 131.6520012  58.2214997  44.0949988
 131.4220012  59.6134997  44.6449988 131.1754540  58.7837140  44.5521830
 116.4970012  58.1234997  43.9969988 115.7200012  57.8894997  43.4899988
 117.0270012  57.3264997  44.0059988 116.4622330  57.9836988  43.9287742
 115.3330012  57.9214997  39.8009988 115.7720012  58.5324997  39.2089988
 114.7000012  58.4594997  40.2749988 115.3074514  58.0779257  39.7840930
 121.0760012  58.0504997  43.8109988 121.9510012  58.4384997  43.7809988
 120.9400012  57.8354997  44.7329988 121.1773695  58.0745184  43.9316440
 126.6330012  58.0804997  45.4599988 126.7090012  58.1754997  44.5099988
 126.3580012  57.1724997  45.5889988 126.6062321  57.9707867  45.3475079
 127.9860012  58.1064997  41.1519988 127.2840012  58.7214997  40.9429988
 127.5420012  57.2684997  41.2829988 127.8296330  58.0775783  41.1410328
 115.2340012  73.8694997  40.6989988 114.5490012  73.8314997  40.0309988
 115.2380012  74.7824997  40.9869988 115.1408193  73.9877016  40.6465284
 117.1940012  59.8374997  38.2429988 117.6860012  59.2074997  37.7159988
 117.8180012  60.1334997  38.9069988 117.3455446  59.7913199  38.2605980
 122.2200012  60.1304997  40.6999988 122.3980012  59.4844997  41.3829988
 122.1670012  60.9644997  41.1679988 122.2371829  60.1547985  40.8565940
 124.0990012  75.0794997  39.0959988 124.9650012  75.4454997  38.9179988
 123.8520012  74.6394997  38.2819988 124.1842392  75.0701756  38.9616289
 130.8080012  74.6424997  41.7749988 130.6130012  73.8944997  41.2099988
 130.7690012  75.4004997  41.1919988 130.7760380  74.6426099  41.6188384
 116.4550012  58.6374997  53.5149988 116.0890012  57.8724997  53.9579988
 117.3680012  58.6664997  53.8019988 116.5282790  58.5367224  53.6144070
 118.4280012  57.9884997  55.0509988 119.3260012  57.7144997  54.8659988
 118.0410012  57.2454997  55.5149988 118.4986612  57.8505914  55.0883643
 117.0520012  74.7894997  37.7239988 116.7850012  75.0764997  38.5969988
 117.8240012  74.2434997  37.8759988 117.1197488  74.7550294  37.8641050
 126.8490012  57.3204997  55.2329988 126.9260012  56.8944997  56.0869988
 127.7430012  57.3344997  54.8899988 126.9803428  57.2640879  55.3035310
 130.0250012  73.3934997  53.9249988 129.2430012  73.2074997  53.4059988
 129.9530012  74.3224997  54.1429988 129.9081777  73.4936492  53.8834048
 144.4310012  67.2794997  43.9559988 144.5200012  68.2234997  43.8239988
 143.7930012  67.0044997  43.2979988 144.3569081  67.3714830  43.8489614
 143.3640012  66.5344997  47.3749988 143.3260012  65.8884997  48.0799988
 143.0420012  66.0684997  46.6039988 143.3152333  66.3829408  47.3672978
 135.7330012  66.1494997  48.9679988 135.7740012  65.5234997  49.6909988
 136.4360012  66.7734997  49.1499988 135.8336363  66.1481196  49.0916044
 136.6560012  70.5994997  47.5029988 136.2870012  69.7974997  47.1329988
 137.5970012  70.4304997  47.5489988 136.7327289  70.4670153  47.4586316
 133.2660012  64.2594997  42.8959988 132.8190012  65.1054997  42.8769988
 132.7050012  63.6794997  42.3799988 133.1289900  64.2969916  42.8236801
 133.9770012  66.4214997  45.0219988 134.1900012  65.6514997  45.5489988
 134.7150012  66.5104997  44.4179988 134.1058496  66.3281394  45.0125300
 144.1820012  74.5784997  45.8889988 144.8020012  73.9014997  45.6149988
 143.9740012  74.3604997  46.7969988 144.2386904  74.4563870  45.9743365
 141.7540012  68.9674997  47.7809988 142.0580012  68.2814997  47.1859988
 142.4750012  69.0854997  48.3989988 141.8930671  68.8896305  47.7831816
 144.8950012  63.3614997  48.1089988 145.0370012  62.4154997  48.1289988
 144.7880012  63.5684997  47.1799988 144.8999864  63.2599534  47.9862339
 138.0490012  61.4624997  45.3809988 138.0930012  62.3224997  44.9629988
 137.5920012  60.9104997  44.7469988 137.9932185  61.5055799  45.2380299
 134.6700012  63.8594997  46.1429988 135.3230012  63.3094997  46.5749988
 134.6940012  63.5854997  45.2259988 134.7626683  63.7471466  46.0782123
 139.8260012  65.4094997  45.3579988 140.4420012  64.8834997  45.8679988
 139.2400012  64.7694997  44.9549988 139.8310810  65.2509208  45.3733173
 136.8600012  60.3804997  49.4549988 136.6410012  60.9104997  48.6889988
 136.1920012  60.6074997  50.1019988 136.7397600  60.4836906  49.4376379
 144.2290012  69.8804997  42.9989988 143.9330012  69.5584997  42.1479988
 143.9040012  70.7804997  43.0399988 144.1446371  69.9580215  42.8881801
 139.4290012  68.0564997  49.7419988 138.6890012  68.6544997  49.8459988
 140.1430012  68.6104997  49.4269988 139.4242237  68.2132831  49.7136465
 136.4530012  62.2724997  47.4069988 137.0670012  62.9054997  47.7809988
 136.9650012  61.8004997  46.7509988 136.6062296  62.2952370  47.3694252
 137.8360012  70.0204997  50.5299988 137.8310012  70.9004997  50.1519988
 136.9830012  69.9374997  50.9549988 137.7199464  70.1296117  50.5357907
 133.9570012  69.6914997  41.3119988 133.6850012  69.9204997  40.4229988
 134.0030012  70.5294997  41.7719988 133.9260094  69.8361213  41.2525697
 140.8860012  57.6864997  46.9079988 140.7690012  56.7374997  46.8529988
 140.0310012  58.0184997  47.1809988 140.7543733  57.6015409  46.9373897
 143.1530012  66.5234997  41.4079988 142.4410012  67.0584997  41.0559988
 143.8440012  66.5794997  40.7479988 143.1490132  66.6042543  41.2706289
 143.2060012  64.9814997  38.4469988 143.9070012  65.0034997  39.0979988
 143.5090012  64.3534997  37.7909988 143.3427830  64.8996566  38.4473711
 138.2040012  67.3634997  44.2419988 137.8730012  66.9934997  43.4239988
 138.7920012  66.6934997  44.5889988 138.2381873  67.2221156  44.1768102
 139.5700012  70.7914997  46.9239988 139.4760012  70.2134997  46.1669988
 140.3000012  70.4204997  47.4199988 139.6557981  70.6622390  46.8874165
 138.5700012  66.1324997  47.8759988 139.1360012  66.2534997  47.1129988
 138.8890012  66.7694997  48.5149988 138.6905786  66.2351884  47.8580040
 144.8790012  71.6354997  48.6099988 144.6390012  72.2974997  49.2579988
 144.6810012  70.8014997  49.0349988 144.8193808  71.6133134  48.7561524
 139.4500012  70.5314997  52.5929988 139.1390012  71.3134997  53.0479988
 138.8000012  70.3784997  51.9069988 139.3195558  70.6179105  52.5625871
 136.3700012  66.7294997  51.8219988 136.4410012  67.3804997  52.5199988
 135.4800012  66.8324997  51.4869988 136.2593117  66.8325936  51.8722700
 143.1560012  72.6324997  43.4799988 143.6300012  72.9274997  44.2579988
 142.5930012  73.3704997  43.2469988 143.1447653  72.7726932  43.5550136
 137.6900012  72.6034997  53.3559988 137.6970012  72.4674997  52.4089988
 136.7740012  72.4854997  53.6079988 137.5671714  72.5689430  53.2604666
 137.1940012  66.4334997  41.8319988 136.9020012  67.2014997  41.3409988
 136.5200012  65.7734997  41.6689988 137.0629081  66.4494406  41.7427340
 133.2870012  68.7964997  50.6469988 132.7860012  68.7684997  49.8319988
 133.2920012  67.8904997  50.9559988 133.2191526  68.6702278  50.5772872
 133.0370012  71.5764997  47.5309988 133.9830012  71.4324997  47.5119988
 132.9250012  72.3604997  48.0679988 133.1512727  71.6628046  47.6010072
 142.2140012  71.8164997  52.0889988 142.3010012  72.6424997  52.5639988
 141.3500012  71.4864997  52.3379988 142.1091964  71.8849878  52.1876549
 142.6280012  75.5884997  41.8949988 142.5530012  75.4674997  40.9489988
 142.6610012  76.5384997  42.0139988 142.6221848  75.7002500  41.7814834
 136.2810012  74.3774997  43.6759988 136.4340012  74.0294997  44.5549988
 135.4310012  74.0214997  43.4209988 136.1868962  74.2816650  43.7618340
 135.5360012  70.1194997  51.6899988 135.7520012  69.7584997  52.5489988
 134.6810012  69.7454997  51.4799988 135.4499292  70.0194111  51.7793386
 138.1550012  58.5894997  47.6849988 137.2930012  58.5024997  47.2779988
 138.1320012  59.4454997  48.1129988 138.0340330  58.6932765  47.6871863
 142.8180012  58.3114997  51.0599988 143.2380012  57.8964997  51.8129988
 141.8850012  58.1334997  51.1769988 142.7493644  58.2305900  51.1789539
 142.4790012  60.8044997  38.3449988 142.2260012  60.8234997  39.2679988
 142.2230012  59.9324997  38.0439988 142.4097790  60.6892437  38.4306263
 138.2460012  63.5554997  48.7799988 137.6040012  63.5144997  49.4889988
 138.2830012  64.4814997  48.5429988 138.1631324  63.6751559  48.8449824
 138.2430012  63.7764997  43.6919988 137.3500012  63.4354997  43.6339988
 138.6930012  63.3994997  42.9369988 138.1817305  63.6788484  43.5819177
 143.7780012  64.1924997  42.5089988 143.3690012  65.0074997  42.2179988
 144.4990012  64.0524997  41.8949988 143.8194537  64.2852018  42.3861342
 142.8800012  64.3674997  53.9969988 142.3180012  63.6634997  54.3179988
 143.7070012  64.2474997  54.4649988 142.9147095  64.2547883  54.1042330
 144.7830012  63.6384997  45.3229988 144.5880012  64.2434997  44.6079988
 144.9640012  62.8044997  44.8889988 144.7807614  63.6086300  45.1664405
 135.9960012  63.8754997  50.6469988 135.9580012  64.2754997  51.5159988
 135.5050012  63.0584997  50.7379988 135.9244684  63.8198069  50.7781059
 139.3620012  61.2494997  37.4459988 138.9310012  60.8044997  38.1759988
 138.6440012  61.6214997  36.9339988 139.2059438  61.2388940  37.4766799
 132.6040012  60.9914997  44.4979988 133.2350012  60.9624997  45.2169988
 133.0530012  60.5664997  43.7679988 132.7510774  60.9300492  44.4976553
 133.8780012  61.7374997  39.9219988 134.3520012  62.3284997  39.3369988
 133.1610012  62.2684997  40.2689988 133.8459341  61.8900867  39.8888836
 144.0470012  65.2764997  49.9949988 144.3700012  64.6454997  49.3519988
 143.6070012  64.7414997  50.6549988 144.0316895  65.1178441  49.9962850
 140.8240012  61.2034997  44.7789988 139.9130012  61.2604997  45.0669988
 141.3300012  61.1434997  45.5889988 140.7675413  61.2031985  44.9280622
 135.6530012  62.8324997  43.6049988 134.7630012  62.9324997  43.2649988
 135.9490012  61.9904997  43.2589988 135.5712823  62.7323545  43.5117213
 139.3060012  62.8324997  41.2619988 140.2370012  62.9614997  41.4399988
 139.0910012  63.5024997  40.6119988 139.4044247  62.9406565  41.1985747
 137.9800012  64.0274997  38.8289988 137.4370012  63.6474997  38.1369988
 138.8130012  64.2214997  38.3999988 138.0184399  64.0018124  38.6764526
 136.1150012  68.5844997  53.9279988 136.8470012  68.8384997  54.4889988
 135.3350012  68.7884997  54.4429988 136.1098232  68.6469177  54.0745760
 142.1440012  63.9914997  46.6659988 142.7090012  63.4444997  46.1189988
 141.9970012  63.4694997  47.4539988 142.2012918  63.8462024  46.6978454
 137.1460012  60.1274997  43.0839988 136.8290012  59.2254997  43.0489988
 137.9280012  60.1294997  42.5309988 137.2082284  60.0041628  43.0044783
 140.7710012  62.3794997  49.0799988 139.9350012  62.8334997  49.1899988
 141.2950012  62.6554997  49.8319988 140.7274414  62.4789376  49.1967136
 141.3150012  68.5924997  40.7639988 140.5700012  68.0854997  40.4419988
 141.1810012  68.6414997  41.7109988 141.1948776  68.5296940  40.8478647
 142.8340012  68.7764997  52.0009988 142.4890012  68.3954997  52.8079988
 142.6340012  69.7104997  52.0729988 142.7598061  68.8505228  52.1210961
 136.4400012  67.8874997  46.5339988 137.1850012  67.8854997  45.9329988
 136.5180012  67.0644997  47.0159988 136.5525518  67.7759315  46.5168929
 143.4410012  70.0514997  39.7899988 143.1450012  70.8774997  40.1709988
 142.7380012  69.4314997  39.9859988 143.3054914  70.0808199  39.8686443
 133.4480012  66.3484997  51.8489988 133.6710012  65.9304997  52.6809988
 132.8460012  65.7354997  51.4259988 133.3971759  66.2084668  51.9057022
 140.4640012  65.8654997  54.0619988 140.1680012  65.6994997  53.1669988
 141.3960012  65.6454997  54.0509988 140.5494166  65.8130640  53.9380536
 138.8150012  71.4054997  43.9379988 139.3420012  72.1784997  43.7379988
 137.9350012  71.6304997  43.6369988 138.7681773  71.5418005  43.8699010
 134.5700012  66.2674997  38.5249988 135.1860012  66.8944997  38.9049988
 133.7080012  66.5834997  38.7969988 134.5377698  66.3959430  38.6137183
 140.2420012  69.0684997  43.5149988 140.0010012  69.9934997  43.5559988
 139.5010012  68.6094997  43.9109988 140.1088409  69.1331421  43.5741377
 140.7570012  73.2174997  49.8299988 141.1190012  74.0724997  49.5959988
 141.2880012  72.9254997  50.5699988 140.8784473  73.2951060  49.8980855
 138.9250012  74.0904997  43.0599988 137.9750012  74.1954997  43.1109988
 139.2770012  74.9104997  43.4049988 138.8424203  74.2158314  43.1136650
 144.3010012  69.3164997  49.5299988 143.8750012  69.0894997  50.3569988
 144.8810012  68.5784997  49.3479988 144.3211868  69.1855299  49.6185830
 135.0820012  61.1014997  51.4069988 134.1890012  61.4404997  51.3389988
 134.9830012  60.2464997  51.8249988 134.9464164  61.0322588  51.4542235
 134.7330012  72.9064997  49.8419988 134.9500012  71.9744997  49.8109988
 134.9790012  73.1804997  50.7249988 134.7959549  72.8160636  49.9571763
 140.5950012  71.3574997  37.0509988 140.8340012  70.6094997  36.5039988
 140.3260012  70.9694997  37.8839988 140.5913675  71.2026638  37.0886865
 139.5320012  70.9274997  39.5079988 139.6780012  70.4074997  40.2979988
 139.5290012  71.8344997  39.8139988 139.5515989  70.9788853  39.6576088
 135.9850012  68.1804997  40.0179988 135.2990012  68.5324997  40.5849988
 136.5070012  68.9434997  39.7709988 135.9616852  68.3318578  40.0622118
 143.8160012  60.8424997  50.2969988 144.5150012  60.9164997  50.9469988
 143.4350012  59.9784997  50.4509988 143.8601767  60.7357624  50.4068322
 144.6010012  60.4944997  41.3939988 144.8210012  60.9664997  40.5909988
 145.1590012  60.8894997  42.0639988 144.7064968  60.6124285  41.3747331
 142.2690012  72.6254997  40.2569988 141.4530012  73.1224997  40.3089988
 142.7990012  73.1004997  39.6169988 142.2289161  72.7577722  40.1775956
 141.8010012  62.2224997  42.2289988 142.6130012  62.7274997  42.2749988
 141.5560012  62.0774997  43.1429988 141.8790520  62.2720375  42.3588517
 142.3360012  63.2084997  51.4139988 142.4550012  63.7824997  52.1709988
 142.9920012  62.5204997  51.5279988 142.4409757  63.1941079  51.5330825
 142.6840012  59.3034997  43.1669988 142.3380012  59.9214997  43.8119988
 143.3430012  59.8044997  42.6859988 142.7257826  59.4555802  43.1900971
 139.6080012  73.6694997  40.2389988 139.7680012  74.4684997  39.7379988
 139.4100012  73.9754997  41.1239988 139.6031649  73.8204469  40.2899815
 138.3420012  60.3664997  39.8539988 138.2590012  61.2554997  40.2009988
 139.2320012  60.1014997  40.0859988 138.4509469  60.4521430  39.9327626
 136.6010012  70.7944997  38.9149988 137.1930012  71.4934997  39.1909988
 137.0600012  70.3614997  38.1949988 136.7441142  70.8317049  38.8554830
 134.9170012  63.4584997  38.0309988 134.8720012  64.3974997  38.2089988
 134.0290012  63.2224997  37.7609988 134.7908574  63.5551892  38.0188912
 135.7250012  58.2404997  46.7039988 135.4960012  58.2994997  45.7759988
 135.2820012  57.4484997  47.0099988 135.6338530  58.1415753  46.6184786
 134.6550012  72.1804997  42.8639988 133.8230012  72.6534997  42.8919988
 135.2010012  72.6904997  42.2659988 134.6149739  72.3141871  42.7869716
 133.9430012  74.7934997  54.1939988 134.4840012  74.5764997  54.9539988
 133.4620012  73.9874997  54.0049988 133.9519345  74.6549514  54.2723076
 138.5410012  73.7124997  55.8149988 139.3080012  73.2534997  56.1559988
 138.5190012  73.4864997  54.8849988 138.6431434  73.6190409  55.7360043
 142.6330012  73.2204997  37.1899988 141.9890012  72.5894997  37.5109988
 143.3950012  72.6894997  36.9579988 142.6478077  73.0622920  37.2026011
 133.8500012  68.6034997  55.1489988 133.9940012  67.7014997  54.8619988
 133.0780012  68.8894997  54.6609988 133.7653323  68.5188261  55.0437881
 138.1920012  68.9474997  37.2809988 138.2560012  68.1534997  37.8119988
 138.8450012  68.8284997  36.5909988 138.2890241  68.8227148  37.2604317
 140.5060012  68.5734997  54.5809988 140.1770012  68.8444997  53.7239988
 140.6580012  67.6324997  54.4939988 140.4814809  68.4833862  54.4518244
 143.5440012  69.9944997  37.0169988 143.2750012  70.1744997  37.9179988
 143.3380012  69.0684997  36.8859988 143.4793825  69.8940152  37.1225214
 134.6830012  65.8034997  54.5689988 135.0910012  64.9464997  54.4479988
 134.4230012  65.8184997  55.4899988 134.7037568  65.6880807  54.6769588
 139.3410012  66.9194997  39.5869988 138.8810012  66.4354997  40.2729988
 139.5960012  66.2514997  38.9509988 139.3124902  66.7628731  39.5949334
 138.6300012  64.8124997  51.9429988 138.0120012  65.4874997  52.2229988
 138.9740012  65.1334997  51.1099988 138.5919615  64.9482721  51.8686581
 140.4120012  65.1624997  37.8489988 140.2320012  65.0084997  36.9219988
 141.3620012  65.2704997  37.8939988 140.5157776  65.1560175  37.7281843
 143.6500012  67.2844997  55.2199988 144.6030012  67.3674997  55.1929988
 143.4890012  66.5724997  55.8399988 143.7586426  67.1996746  55.3000579
 138.9690012  62.1674997  53.0249988 139.1190012  61.4384997  52.4229988
 138.9720012  62.9444997  52.4659988 138.9899302  62.1727851  52.8670692
 139.3820012  60.5374997  50.5179988 139.9180012  60.9884997  49.8659988
 138.5300012  60.4294997  50.0949988 139.3402178  60.5846390  50.3715756
 140.9640012  65.9764997  50.7569988 141.7140012  65.8204997  50.1839988
 140.6250012  66.8284997  50.4819988 141.0208921  66.0702968  50.6413561
 137.4480012  63.3654997  54.9369988 136.6810012  62.8334997  54.7269988
 138.1270012  63.0554997  54.3369988 137.4347022  63.2507506  54.8271648
 140.1880012  57.9934997  50.9489988 140.0890012  58.9404997  50.8439988
 139.4450012  57.6214997  50.4739988 140.0740564  58.0725902  50.8704560
 141.4520012  62.3154997  54.5129988 141.2160012  62.0954997  55.4149988
 140.6680012  62.1084997  54.0029988 141.3138628  62.2574760  54.5673932
 144.1670012  61.4424997  53.5889988 143.2200012  61.4744997  53.7209988
 144.4800012  60.8174997  54.2419988 144.0795475  61.3623207  53.6954455
 135.6280012  61.2864997  54.6409988 135.8400012  60.5794997  54.0309988
 135.5170012  60.8484997  55.4849988 135.6419721  61.1307084  54.6716843
 140.4090012  57.2874997  53.6209988 141.1210012  56.6474997  53.6069988
 140.3080012  57.5544997  52.7069988 140.4927939  57.2359938  53.4955650
 140.7630012  58.9704997  55.6739988 140.6310012  58.4944997  54.8539988
 140.1640012  59.7144997  55.6189988 140.6639071  59.0059618  55.5542886
 140.3090012  75.8534997  38.8509988 141.2420012  76.0114997  38.9939988
 140.0450012  76.5284997  38.2259988 140.4009510  75.9663611  38.7860741
 133.8780012  70.4894997  38.3329988 134.7920012  70.5684997  38.6069988
 133.8850012  69.8024997  37.6669988 134.0041131  70.4073961  38.2804393
 132.5270012  75.8824997  43.4109988 131.8800012  75.4204997  42.8779988
 132.8810012  75.2104997  43.9929988 132.4863849  75.7284723  43.4167959
 133.3970012  73.9634997  45.2149988 133.0620012  73.0834997  45.3869988
 133.6190012  74.3084997  46.0799988 133.3811783  73.8897500  45.3554208
 133.4770012  67.0384997  47.6669988 133.6610012  66.9564997  46.7309988
 134.3260012  66.9144997  48.0909988 133.6170139  67.0105003  47.5961455
 133.0740012  62.3094997  53.8079988 133.9940012  62.1874997  54.0439988
 132.6250012  61.5594997  54.1969988 133.1391580  62.1913727  53.8929006
 134.2950012  60.6214997  46.6989988 134.7410012  59.8294997  47.0009988
 134.7620012  61.3374997  47.1299988 134.4190172  60.6100624  46.7984820
 132.5990012  63.6204997  47.7679988 133.0910012  63.3994997  46.9769988
 132.9620012  64.4614997  48.0489988 132.7153126  63.7038357  47.6977531
 132.9130012  59.8784997  41.8219988 131.9880012  60.0874997  41.6929988
 133.3670012  60.3624997  41.1329988 132.8477368  59.9725993  41.7111226
 132.8770012  58.6164997  50.1669988 132.2120012  58.3704997  50.8099988
 132.4340012  59.2384997  49.5889988 132.7260956  58.6668632  50.1769352
 135.0690012  71.7914997  54.3109988 134.2480012  71.9664997  53.8509988
 134.8160012  71.7184997  55.2319988 134.9226164  71.8055622  54.3724923
 138.0230012  72.7664997  50.5699988 137.5980012  73.5754997  50.2869988
 138.9270012  72.8514997  50.2679988 138.0870271  72.8888469  50.4903776
 142.3340012  74.1654997  53.5289988 142.5190012  73.8314997  54.4069988
 143.1800012  74.4744997  53.2069988 142.4737539  74.1616047  53.6055605
 144.6790012  75.4514997  52.7729988 145.3560012  74.8184997  52.5329988
 145.0010012  75.8524997  53.5799988 144.8151637  75.4191154  52.8492793
 135.4250012  76.0224997  50.6169988 134.7040012  76.4624997  50.1659988
 135.0590012  75.7714997  51.4659988 135.2769804  76.0487698  50.6699840
 137.8920012  75.6224997  49.6469988 137.0270012  75.6944997  50.0509988
 137.8370012  76.1694997  48.8629988 137.7662085  75.7062685  49.5963362
 142.6020012  75.5104997  48.8219988 142.1460012  76.0394997  48.1679988
 142.7650012  76.1134997  49.5479988 142.5615585  75.6644468  48.8305062
 134.8390012  74.6454997  47.5269988 134.8210012  74.2204997  48.3849988
 135.6440012  74.3274997  47.1189988 134.9453875  74.5443812  47.5891655
 136.9810012  73.3554997  46.1819988 136.7620012  72.4394997  46.3519988
 137.8050012  73.4954997  46.6479988 137.0624420  73.2490520  46.2682774
 139.5180012  73.8254997  47.0309988 139.7310012  72.9374997  46.7439988
 139.5820012  73.7914997  47.9849988 139.5558232  73.6993102  47.1207397
 143.0260012  59.4894997  46.1749988 142.3520012  58.8604997  46.4309988
 143.5900012  59.0054997  45.5719988 143.0099230  59.3378744  46.1285340
 135.3530012  58.1234997  43.9969988 134.5760012  57.8894997  43.4899988
 135.8830012  57.3264997  44.0059988 135.3182330  57.9836988  43.9287742
 134.1890012  57.9214997  39.8009988 134.6280012  58.5324997  39.2089988
 133.5560012  58.4594997  40.2749988 134.1634514  58.0779257  39.7840930
 139.9320012  58.0504997  43.8109988 140.8070012  58.4384997  43.7809988
 139.7960012  57.8354997  44.7329988 140.0333695  58.0745184  43.9316440
 134.0900012  73.8694997  40.6989988 133.4050012  73.8314997  40.0309988
 134.0940012  74.7824997  40.9869988 133.9968193  73.9877016  40.6465284
 136.0500012  59.8374997  38.2429988 136.5420012  59.2074997  37.7159988
 136.6740012  60.1334997  38.9069988 136.2015446  59.7913199  38.2605980
 141.0760012  60.1304997  40.6999988 141.2540012  59.4844997  41.3829988
 141.0230012  60.9644997  41.1679988 141.0931829  60.1547985  40.8565940
 142.9550012  75.0794997  39.0959988 143.8210012  75.4454997  38.9179988
 142.7080012  74.6394997  38.2819988 143.0402392  75.0701756  38.9616289
 135.3110012  58.6374997  53.5149988 134.9450012  57.8724997  53.9579988
 136.2240012  58.6664997  53.8019988 135.3842790  58.5367224  53.6144070
 137.2840012  57.9884997  55.0509988 138.1820012  57.7144997  54.8659988
 136.8970012  57.2454997  55.5149988 137.3546612  57.8505914  55.0883643
 135.9080012  74.7894997  37.7239988 135.6410012  75.0764997  38.5969988
 136.6800012  74.2434997  37.8759988 135.9757488  74.7550294  37.8641050
  12.4390012  86.1354997  43.9559988  12.5280012  87.0794997  43.8239988
  11.8010012  85.8604997  43.2979988  12.3649081  86.2274830  43.8489614
  11.3720012  85.3904997  47.3749988  11.3340012  84.7444997  48.0799988
  11.0500012  84.9244997  46.6039988  11.3232333  85.2389408  47.3672978
   3.7410012  85.0054997  48.9679988   3.7820012  84.3794997  49.6909988
   4.4440012  85.6294997  49.1499988   3.8416363  85.0041196  49.0916044
  15.0780012  88.3294997  45.6759988  14.6380012  87.6094997  46.1269988
  15.0650012  89.0504997  46.3059988  15.0160226  88.3283731  45.8228494
   4.6640012  89.4554997  47.5029988   4.2950012  88.6534997  47.1329988
   5.6050012  89.2864997  47.5489988   4.7407289  89.3230153  47.4586316
   1.2740012  83.1154997  42.8959988   0.8270012  83.9614997  42.8769988
   0.7130012  82.5354997  42.3799988   1.1369900  83.1529916  42.8236801
   1.9850012  85.2774997  45.0219988   2.1980012  84.5074997  45.5489988
   2.7230012  85.3664997  44.4179988   2.1138496  85.1841394  45.0125300
  12.1900012  93.4344997  45.8889988  12.8100012  92.7574997  45.6149988
  11.9820012  93.2164997  46.7969988  12.2466904  93.3123870  45.9743365
   9.7620012  87.8234997  47.7809988  10.0660012  87.1374997  47.1859988
  10.4830012  87.9414997  48.3989988   9.9010671  87.7456305  47.7831816
  18.4250012  79.4244997  48.6419988  18.4740012  80.0344997  49.3779988
  18.8500012  79.8854997  47.9189988  18.4891824  79.5703741  48.6450205
  12.9030012  82.2174997  48.1089988  13.0450012  81.2714997  48.1289988
  12.7960012  82.4244997  47.1799988  12.9079864  82.1159534  47.9862339
   6.0570012  80.3184997  45.3809988   6.1010012  81.1784997  44.9629988
   5.6000012  79.7664997  44.7469988   6.0012185  80.3615799  45.2380299
  13.7800012  80.4494997  43.7819988  14.4260012  80.1204997  44.4069988
  14.2900012  80.9674997  43.1589988  13.9374264  80.4744611  43.7833862
   2.6780012  82.7154997  46.1429988   3.3310012  82.1654997  46.5749988
   2.7020012  82.4414997  45.2259988   2.7706683  82.6031466  46.0782123
   7.8340012  84.2654997  45.3579988   8.4500012  83.7394997  45.8679988
   7.2480012  83.6254997  44.9549988   7.8390810  84.1069208  45.3733173
  18.8160012  80.9024997  50.8779988  18.1280012  81.5604997  50.7819988
  18.8320012  80.7054997  51.8139988  18.7238525  80.9660462  50.9914808
   4.8680012  79.2364997  49.4549988   4.6490012  79.7664997  48.6889988
   4.2000012  79.4634997  50.1019988   4.7477600  79.3396906  49.4376379
  12.2370012  88.7364997  42.9989988  11.9410012  88.4144997  42.1479988
  11.9120012  89.6364997  43.0399988  12.1526371  88.8140215  42.8881801
   7.4370012  86.9124997  49.7419988   6.6970012  87.5104997  49.8459988
   8.1510012  87.4664997  49.4269988   7.4322237  87.0692831  49.7136465
  15.5440012  79.7404997  45.7619988  15.3280012  78.9744997  46.2949988
  16.1990012  80.2124997  46.2749988  15.6030632  79.6995889  45.9042861
   4.4610012  81.1284997  47.4069988   5.0750012  81.7614997  47.7809988
   4.9730012  80.6564997  46.7509988   4.6142296  81.1512370  47.3694252
   5.8440012  88.8764997  50.5299988   5.8390012  89.7564997  50.1519988
   4.9910012  88.7934997  50.9549988   5.7279464  88.9856117  50.5357907
   1.9650012  88.5474997  41.3119988   1.6930012  88.7764997  40.4229988
   2.0110012  89.3854997  41.7719988   1.9340094  88.6921213  41.2525697
  15.5900012  90.1694997  48.0239988  14.6490012  90.2274997  48.1859988
  15.8670012  91.0754997  47.8869988  15.4984679  90.2999443  48.0276815
  15.8910012  78.4554997  49.4419988  15.1550012  79.0664997  49.4039988
  16.5740012  78.8704997  48.9149988  15.8826541  78.5951374  49.3655832
   8.8940012  76.5424997  46.9079988   8.7770012  75.5934997  46.8529988
   8.0390012  76.8744997  47.1809988   8.7623733  76.4575409  46.9373897
  13.8420012  91.9504997  44.6499988  14.2680012  91.2434997  44.1649988
  14.1590012  92.7514997  44.2329988  13.9431019  91.9620994  44.5273130
  15.0020012  89.8514997  43.1579988  14.7440012  89.1614997  42.5469988
  15.0730012  89.4084997  44.0039988  14.9762856  89.6972124  43.1886885
  16.6880012  88.4174997  51.6359988  16.8280012  87.8264997  50.8959988
  16.8550012  89.2904997  51.2789988  16.7296778  88.4546426  51.4866965
  11.1610012  85.3794997  41.4079988  10.4490012  85.9144997  41.0559988
  11.8520012  85.4354997  40.7479988  11.1570132  85.4602543  41.2706289
  11.2140012  83.8374997  38.4469988  11.9150012  83.8594997  39.0979988
  11.5170012  83.2094997  37.7909988  11.3507830  83.7556566  38.4473711
  18.5300012  84.7574997  49.7019988  17.8770012  85.4524997  49.7909988
  18.9950012  84.9674997  48.8919988  18.5035390  84.8809425  49.6046883
  14.5660012  85.5894997  42.3599988  13.8340012  85.8174997  42.9329988
  15.0140012  84.8754997  42.8149988  14.5263095  85.5242571  42.4999119
  14.4640012  83.7634997  51.4269988  14.5440012  84.5264997  51.9989988
  13.8620012  84.0424997  50.7369988  14.3935756  83.9057134  51.4120589
   6.2120012  86.2194997  44.2419988   5.8810012  85.8494997  43.4239988
   6.8000012  85.5494997  44.5889988   6.2461873  86.0781156  44.1768102
   7.5780012  89.6474997  46.9239988   7.4840012  89.0694997  46.1669988
   8.3080012  89.2764997  47.4199988   7.6637981  89.5182390  46.8874165
   6.5780012  84.9884997  47.8759988   7.1440012  85.1094997  47.1129988
   6.8970012  85.6254997  48.5149988   6.6985786  85.0911884  47.8580040
  12.8870012  90.4914997  48.6099988  12.6470012  91.1534997  49.2579988
  12.6890012  89.6574997  49.0349988  12.8273808  90.4693134  48.7561524
   7.4580012  89.3874997  52.5929988   7.1470012  90.1694997  53.0479988
   6.8080012  89.2344997  51.9069988   7.3275558  89.4739105  52.5625871
  13.4370012  84.7514997  40.0449988  14.0170012  84.9014997  40.7919988
  13.8510012  85.2224997  39.3219988  13.5722830  84.8356841  40.0494134
   4.3780012  85.5854997  51.8219988   4.4490012  86.2364997  52.5199988
   3.4880012  85.6884997  51.4869988   4.2673117  85.6885936  51.8722700
  11.1640012  91.4884997  43.4799988  11.6380012  91.7834997  44.2579988
  10.6010012  92.2264997  43.2469988  11.1527653  91.6286932  43.5550136
   5.6980012  91.4594997  53.3559988   5.7050012  91.3234997  52.4089988
   4.7820012  91.3414997  53.6079988   5.5751714  91.4249430  53.2604666
  17.1360012  76.5014997  39.8579988  16.2360012  76.6404997  40.1529988
  17.3880012  77.3324997  39.4559988  17.0468702  76.6329074  39.8440205
   5.2020012  85.2894997  41.8319988   4.9100012  86.0574997  41.3409988
   4.5280012  84.6294997  41.6689988   5.0709081  85.3054406  41.7427340
  18.3250012  90.8674997  38.2339988  18.3990012  91.8064997  38.4049988
  19.2310012  90.5624997  38.1779988  18.4575100  90.9546722  38.2498119
   1.2950012  87.6524997  50.6469988   0.7940012  87.6244997  49.8319988
   1.3000012  86.7464997  50.9559988   1.2271526  87.5262278  50.5772872
   1.0450012  90.4324997  47.5309988   1.9910012  90.2884997  47.5119988
   0.9330012  91.2164997  48.0679988   1.1592727  90.5188046  47.6010072
  19.2430012  91.0984997  53.2129988  19.1940012  90.1434997  53.1759988
  18.4160012  91.3664997  53.6139988  19.1244940  91.0038998  53.2621375
  10.2220012  90.6724997  52.0889988  10.3090012  91.4984997  52.5639988
   9.3580012  90.3424997  52.3379988  10.1171964  90.7409878  52.1876549
  10.6360012  94.4444997  41.8949988  10.5610012  94.3234997  40.9489988
  10.6690012  95.3944997  42.0139988  10.6301848  94.5562500  41.7814834
   4.2890012  93.2334997  43.6759988   4.4420012  92.8854997  44.5549988
   3.4390012  92.8774997  43.4209988   4.1948962  93.1376650  43.7618340
  13.7380012  93.5984997  38.8969988  14.1130012  92.8544997  38.4269988
  13.7420012  93.3284997  39.8159988  13.7898915  93.4601486  38.9567824
  13.4070012  93.5244997  41.6469988  12.4710012  93.6244997  41.8249988
  13.6870012  92.8154997  42.2249988  13.3168255  93.4422711  41.7495391
  16.3950012  82.5914997  53.6929988  15.9880012  83.0724997  52.9719988
  16.4360012  81.6864997  53.3849988  16.3448437  82.5349374  53.5526683
   3.5440012  88.9754997  51.6899988   3.7600012  88.6144997  52.5489988
   2.6890012  88.6014997  51.4799988   3.4579292  88.8754111  51.7793386
   6.1630012  77.4454997  47.6849988   5.3010012  77.3584997  47.2779988
   6.1400012  78.3014997  48.1129988   6.0420330  77.5492765  47.6871863
  10.8260012  77.1674997  51.0599988  11.2460012  76.7524997  51.8129988
   9.8930012  76.9894997  51.1769988  10.7573644  77.0865900  51.1789539
  14.1520012  80.9234997  51.9129988  13.6380012  80.7974997  52.7109988
  13.9970012  81.8354997  51.6689988  14.0606852  81.0296132  51.9892158
  14.9150012  85.7844997  37.6749988  14.9570012  85.5614997  36.7449988
  15.7640012  86.1834997  37.8649988  15.0355396  85.8079155  37.5733627
  10.4870012  79.6604997  38.3449988  10.2340012  79.6794997  39.2679988
  10.2310012  78.7884997  38.0439988  10.4177790  79.5452437  38.4306263
   6.2540012  82.4114997  48.7799988   5.6120012  82.3704997  49.4889988
   6.2910012  83.3374997  48.5429988   6.1711324  82.5311559  48.8449824
   6.2510012  82.6324997  43.6919988   5.3580012  82.2914997  43.6339988
   6.7010012  82.2554997  42.9369988   6.1897305  82.5348484  43.5819177
  11.7860012  83.0484997  42.5089988  11.3770012  83.8634997  42.2179988
  12.5070012  82.9084997  41.8949988  11.8274537  83.1412018  42.3861342
  10.8880012  83.2234997  53.9969988  10.3260012  82.5194997  54.3179988
  11.7150012  83.1034997  54.4649988  10.9227095  83.1107883  54.1042330
  12.7910012  82.4944997  45.3229988  12.5960012  83.0994997  44.6079988
  12.9720012  81.6604997  44.8889988  12.7887614  82.4646300  45.1664405
   4.0040012  82.7314997  50.6469988   3.9660012  83.1314997  51.5159988
   3.5130012  81.9144997  50.7379988   3.9324684  82.6758069  50.7781059
   7.3700012  80.1054997  37.4459988   6.9390012  79.6604997  38.1759988
   6.6520012  80.4774997  36.9339988   7.2139438  80.0948940  37.4766799
   0.6120012  79.8474997  44.4979988   1.2430012  79.8184997  45.2169988
   1.0610012  79.4224997  43.7679988   0.7590774  79.7860492  44.4976553
   1.8860012  80.5934997  39.9219988   2.3600012  81.1844997  39.3369988
   1.1690012  81.1244997  40.2689988   1.8539341  80.7460867  39.8888836
  12.0550012  84.1324997  49.9949988  12.3780012  83.5014997  49.3519988
  11.6150012  83.5974997  50.6549988  12.0396895  83.9738441  49.9962850
   8.8320012  80.0594997  44.7789988   7.9210012  80.1164997  45.0669988
   9.3380012  79.9994997  45.5889988   8.7755413  80.0591985  44.9280622
   3.6610012  81.6884997  43.6049988   2.7710012  81.7884997  43.2649988
   3.9570012  80.8464997  43.2589988   3.5792823  81.5883546  43.5117213
   7.3140012  81.6884997  41.2619988   8.2450012  81.8174997  41.4399988
   7.0990012  82.3584997  40.6119988   7.4124247  81.7966565  41.1985747
  13.2370012  79.2944997  48.0429988  12.5610012  79.4254997  48.7069988
  12.7520012  79.1394997  47.2329988  13.0787145  79.2914905  48.0244517
   5.9880012  82.8834997  38.8289988   5.4450012  82.5034997  38.1369988
   6.8210012  83.0774997  38.3999988   6.0264399  82.8578124  38.6764526
  16.5250012  94.9664997  54.3199988  16.7250012  95.3904997  53.4849988
  17.1800012  95.3094997  54.9269988  16.6410051  95.0709648  54.2877836
   4.1230012  87.4404997  53.9279988   4.8550012  87.6944997  54.4889988
   3.3430012  87.6444997  54.4429988   4.1178232  87.5029177  54.0745760
  10.1520012  82.8474997  46.6659988  10.7170012  82.3004997  46.1189988
  10.0050012  82.3254997  47.4539988  10.2092918  82.7022024  46.6978454
   5.1540012  78.9834997  43.0839988   4.8370012  78.0814997  43.0489988
   5.9360012  78.9854997  42.5309988   5.2162284  78.8601628  43.0044783
   8.7790012  81.2354997  49.0799988   7.9430012  81.6894997  49.1899988
   9.3030012  81.5114997  49.8319988   8.7354414  81.3349376  49.1967136
   9.3230012  87.4484997  40.7639988   8.5780012  86.9414997  40.4419988
   9.1890012  87.4974997  41.7109988   9.2028776  87.3856940  40.8478647
  16.4730012  86.5814997  49.5509988  17.1150012  87.0384997  49.0069988
  15.6430012  86.6944997  49.0879988  16.4485963  86.6592704  49.4140177
  13.2210012  80.2624997  38.9639988  12.2820012  80.3744997  38.8119988
  13.5180012  81.1194997  39.2699988  13.1327666  80.3936443  38.9845768
  10.8420012  87.6324997  52.0009988  10.4970012  87.2514997  52.8079988
  10.6420012  88.5664997  52.0729988  10.7678061  87.7065228  52.1210961
  13.9390012  82.1294997  40.6239988  14.8310012  81.9924997  40.9429988
  13.9960012  82.9204997  40.0879988  14.0686285  82.2176660  40.5951690
   4.4480012  86.7434997  46.5339988   5.1930012  86.7414997  45.9329988
   4.5260012  85.9204997  47.0159988   4.5605518  86.6319315  46.5168929
  11.4490012  88.9074997  39.7899988  11.1530012  89.7334997  40.1709988
  10.7460012  88.2874997  39.9859988  11.3134914  88.9368199  39.8686443
   1.4560012  85.2044997  51.8489988   1.6790012  84.7864997  52.6809988
   0.8540012  84.5914997  51.4259988   1.4051759  85.0644668  51.9057022
   8.4720012  84.7214997  54.0619988   8.1760012  84.5554997  53.1669988
   9.4040012  84.5014997  54.0509988   8.5574166  84.6690640  53.9380536
  13.0930012  90.0944997  51.9519988  12.1920012  90.2774997  51.6839988
  13.1270012  90.3534997  52.8729988  12.9743041  90.1545512  52.0398197
  18.8240012  82.3394997  40.3189988  18.2700012  81.9434997  39.6469988
  18.9240012  83.2494997  40.0409988  18.7617059  82.4083586  40.1894401
  18.7870012  88.1394997  53.1559988  17.9360012  88.3774997  52.7889988
  19.3780012  88.1224997  52.4029988  18.7502487  88.1698258  53.0038893
  17.1190012  91.1254997  40.7839988  16.7460012  90.2994997  41.0929988
  17.3970012  90.9424997  39.8869988  17.1055630  90.9877303  40.7049626
  14.2800012  85.9334997  47.8049988  13.3510012  85.7014997  47.7779988
  14.7310012  85.1564997  47.4749988  14.2139216  85.7967238  47.7566917
   6.8230012  90.2614997  43.9379988   7.3500012  91.0344997  43.7379988
   5.9430012  90.4864997  43.6369988   6.7761773  90.3978005  43.8699010
   2.5780012  85.1234997  38.5249988   3.1940012  85.7504997  38.9049988
   1.7160012  85.4394997  38.7969988   2.5457698  85.2519430  38.6137183
   8.2500012  87.9244997  43.5149988   8.0090012  88.8494997  43.5559988
   7.5090012  87.4654997  43.9109988   8.1168409  87.9891421  43.5741377
   8.7650012  92.0734997  49.8299988   9.1270012  92.9284997  49.5959988
   9.2960012  91.7814997  50.5699988   8.8864473  92.1511060  49.8980855
   6.9330012  92.9464997  43.0599988   5.9830012  93.0514997  43.1109988
   7.2850012  93.7664997  43.4049988   6.8504203  93.0718314  43.1136650
  12.3090012  88.1724997  49.5299988  11.8830012  87.9454997  50.3569988
  12.8890012  87.4344997  49.3479988  12.3291868  88.0415299  49.6185830
  14.5120012  89.1014997  38.6039988  14.8650012  88.7214997  39.4089988
  13.5630012  89.0084997  38.6909988  14.4320441  89.0369596  38.7258559
  14.9670012  92.7244997  51.9999988  14.3660012  92.1694997  51.5039988
  15.2490012  93.3914997  51.3739988  14.9228519  92.7386841  51.8474952
  19.0150012  93.5814997  38.8049988  19.7590012  94.1674997  38.6649988
  18.3210012  94.1494997  39.1389988  19.0230292  93.7385582  38.8309961
   3.0900012  79.9574997  51.4069988   2.1970012  80.2964997  51.3389988
   2.9910012  79.1024997  51.8249988   2.9544164  79.8882588  51.4542235
  15.3780012  87.7744997  40.8309988  15.1000012  87.0464997  41.3869988
  16.3050012  87.8934997  41.0359988  15.4653124  87.6908802  40.9348845
   2.7410012  91.7624997  49.8419988   2.9580012  90.8304997  49.8109988
   2.9870012  92.0364997  50.7249988   2.8039549  91.6720636  49.9571763
   8.6030012  90.2134997  37.0509988   8.8420012  89.4654997  36.5039988
   8.3340012  89.8254997  37.8839988   8.5993675  90.0586638  37.0886865
   7.5400012  89.7834997  39.5079988   7.6860012  89.2634997  40.2979988
   7.5370012  90.6904997  39.8139988   7.5595989  89.8348853  39.6576088
   3.9930012  87.0364997  40.0179988   3.3070012  87.3884997  40.5849988
   4.5150012  87.7994997  39.7709988   3.9696852  87.1878578  40.0622118
  11.8240012  79.6984997  50.2969988  12.5230012  79.7724997  50.9469988
  11.4430012  78.8344997  50.4509988  11.8681767  79.5917624  50.4068322
  12.6090012  79.3504997  41.3939988  12.8290012  79.8224997  40.5909988
  13.1670012  79.7454997  42.0639988  12.7144968  79.4684285  41.3747331
  10.2770012  91.4814997  40.2569988   9.4610012  91.9784997  40.3089988
  10.8070012  91.9564997  39.6169988  10.2369161  91.6137722  40.1775956
   9.8090012  81.0784997  42.2289988  10.6210012  81.5834997  42.2749988
   9.5640012  80.9334997  43.1429988   9.8870520  81.1280375  42.3588517
  10.3440012  82.0644997  51.4139988  10.4630012  82.6384997  52.1709988
  11.0000012  81.3764997  51.5279988  10.4489757  82.0501079  51.5330825
  10.6920012  78.1594997  43.1669988  10.3460012  78.7774997  43.8119988
  11.3510012  78.6604997  42.6859988  10.7337826  78.3115802  43.1900971
   7.6160012  92.5254997  40.2389988   7.7760012  93.3244997  39.7379988
   7.4180012  92.8314997  41.1239988   7.6111649  92.6764469  40.2899815
   6.3500012  79.2224997  39.8539988   6.2670012  80.1114997  40.2009988
   7.2400012  78.9574997  40.0859988   6.4589469  79.3081430  39.9327626
  16.5490012  79.9714997  52.2489988  15.6320012  80.2344997  52.1609988
  16.8840012  79.9684997  51.3519988  16.4689900  80.0070224  52.1157919
  15.1510012  83.7224997  46.3439988  14.3530012  83.3074997  46.0159988
  15.5960012  83.0314997  46.8349988  15.1019885  83.5723543  46.3654889
   4.6090012  89.6504997  38.9149988   5.2010012  90.3494997  39.1909988
   5.0680012  89.2174997  38.1949988   4.7521142  89.6877049  38.8554830
   2.9250012  82.3144997  38.0309988   2.8800012  83.2534997  38.2089988
   2.0370012  82.0784997  37.7609988   2.7988574  82.4111892  38.0188912
  16.2370012  92.9784997  47.9669988  16.0820012  93.6564997  47.3099988
  17.1700012  93.0504997  48.1699988  16.3418500  93.0810170  47.9045119
   3.7330012  77.0964997  46.7039988   3.5040012  77.1554997  45.7759988
   3.2900012  76.3044997  47.0099988   3.6418530  76.9975753  46.6184786
   2.6630012  91.0364997  42.8639988   1.8310012  91.5094997  42.8919988
   3.2090012  91.5464997  42.2659988   2.6229739  91.1701871  42.7869716
   1.9510012  93.6494997  54.1939988   2.4920012  93.4324997  54.9539988
   1.4700012  92.8434997  54.0049988   1.9599345  93.5109514  54.2723076
   6.5490012  92.5684997  55.8149988   7.3160012  92.1094997  56.1559988
   6.5270012  92.3424997  54.8849988   6.6511434  92.4750409  55.7360043
  10.6410012  92.0764997  37.1899988   9.9970012  91.4454997  37.5109988
  11.4030012  91.5454997  36.9579988  10.6558077  91.9182920  37.2026011
  13.1260012  90.9484997  54.5439988  12.7750012  90.0924997  54.7869988
  13.8520012  91.0914997  55.1509988  13.1760769  90.8505636  54.6593619
  15.2450012  91.8934997  37.4239988  15.5280012  91.0994997  37.8759988
  15.9850012  92.1264997  36.8629988  15.3837486  91.8162803  37.4100698
   1.8580012  87.4594997  55.1489988   2.0020012  86.5574997  54.8619988
   1.0860012  87.7454997  54.6609988   1.7733322  87.3748261  55.0437881
   6.2000012  87.8034997  37.2809988   6.2640012  87.0094997  37.8119988
   6.8530012  87.6844997  36.5909988   6.2970241  87.6787148  37.2604317
   8.5140012  87.4294997  54.5809988   8.1850012  87.7004997  53.7239988
   8.6660012  86.4884997  54.4939988   8.4894809  87.3393862  54.4518244
  11.5520012  88.8504997  37.0169988  11.2830012  89.0304997  37.9179988
  11.3460012  87.9244997  36.8859988  11.4873825  88.7500152  37.1225214
  14.2480012  87.3454997  51.9649988  14.9940012  87.9334997  51.8449988
  13.4910012  87.9274997  52.0279988  14.2477554  87.5047011  51.9570907
   2.6910012  84.6594997  54.5689988   3.0990012  83.8024997  54.4479988
   2.4310012  84.6744997  55.4899988   2.7117568  84.5440807  54.6769588
   7.3490012  85.7754997  39.5869988   6.8890012  85.2914997  40.2729988
   7.6040012  85.1074997  38.9509988   7.3204902  85.6188731  39.5949334
   6.6380012  83.6684997  51.9429988   6.0200012  84.3434997  52.2229988
   6.9820012  83.9894997  51.1099988   6.5999615  83.8042721  51.8686581
   8.4200012  84.0184997  37.8489988   8.2400012  83.8644997  36.9219988
   9.3700012  84.1264997  37.8939988   8.5237776  84.0120175  37.7281843
  11.6580012  86.1404997  55.2199988  12.6110012  86.2234997  55.1929988
  11.4970012  85.4284997  55.8399988  11.7666426  86.0556746  55.3000579
  17.8100012  86.3734997  37.2949988  17.5360012  85.9484997  36.4819988
  17.8490012  87.3044997  37.0779988  17.7777699  86.4412484  37.1543610
   6.9770012  81.0234997  53.0249988   7.1270012  80.2944997  52.4229988
   6.9800012  81.8004997  52.4659988   6.9979302  81.0287851  52.8670692
   7.3900012  79.3934997  50.5179988   7.9260012  79.8444997  49.8659988
   6.5380012  79.2854997  50.0949988   7.3482178  79.4406390  50.3715756
   8.9720012  84.8324997  50.7569988   9.7220012  84.6764997  50.1839988
   8.6330012  85.6844997  50.4819988   9.0288921  84.9262968  50.6413561
  13.3870012  82.6474997  55.7859988  13.5800012  81.7164997  55.6739988
  14.2450012  83.0724997  55.7759988  13.5293020  82.5776389  55.7693361
  14.7040012  85.4364997  53.8629988  14.4230012  86.1454997  53.2859988
  15.6470012  85.3634997  53.7119988  14.7929027  85.5237646  53.7635551
   5.4560012  82.2214997  54.9369988   4.6890012  81.6894997  54.7269988
   6.1350012  81.9114997  54.3369988   5.4427022  82.1067506  54.8271648
   8.1960012  76.8494997  50.9489988   8.0970012  77.7964997  50.8439988
   7.4530012  76.4774997  50.4739988   8.0820564  76.9285902  50.8704560
   9.4600012  81.1714997  54.5129988   9.2240012  80.9514997  55.4149988
   8.6760012  80.9644997  54.0029988   9.3218628  81.1134760  54.5673932
  12.1750012  80.2984997  53.5889988  11.2280012  80.3304997  53.7209988
  12.4880012  79.6734997  54.2419988  12.0875475  80.2183207  53.6954455
  13.8090012  78.9324997  55.5939988  13.7130012  77.9804997  55.5879988
  13.4880012  79.2014997  56.4539988  13.7524070  78.8384035  55.7095441
   3.6360012  80.1424997  54.6409988   3.8480012  79.4354997  54.0309988
   3.5250012  79.7044997  55.4849988   3.6499721  79.9867084  54.6716843
   8.4170012  76.1434997  53.6209988   9.1290012  75.5034997  53.6069988
   8.3160012  76.4104997  52.7069988   8.5007939  76.0919938  53.4955650
   8.7710012  77.8264997  55.6739988   8.6390012  77.3504997  54.8539988
   8.1720012  78.5704997  55.6189988   8.6719071  77.8619618  55.5542886
   8.3170012  94.7094997  38.8509988   9.2500012  94.8674997  38.9939988
   8.0530012  95.3844997  38.2259988   8.4089510  94.8223611  38.7860741
   1.8860012  89.3454997  38.3329988   2.8000012  89.4244997  38.6069988
   1.8930012  88.6584997  37.6669988   2.0121131  89.2633961  38.2804393
   0.5350012  94.7384997  43.4109988  -0.1119988  94.2764997  42.8779988
   0.8890012  94.0664997  43.9929988   0.4943849  94.5844723  43.4167959
   1.4050012  92.8194997  45.2149988   1.0700012  91.9394997  45.3869988
   1.6270012  93.1644997  46.0799988   1.3891783  92.7457500  45.3554208
  18.9530012  93.6284997  48.1959988  18.9320012  93.8134997  49.1349988
  19.6440012  94.1974997  47.8549988  19.0434618  93.7306606  48.2783864
  18.5170012  93.1964997  51.1179988  18.0290012  92.4604997  50.7469988
  19.0660012  92.8024997  51.7959988  18.5244872  93.0426249  51.1589160
  16.9670012  88.9854997  55.7559988  16.1010012  88.8804997  56.1499988
  17.3440012  89.7444997  56.2019988  16.8993308  89.0736900  55.8702393
  18.2680012  87.2424997  41.2699988  19.1180012  87.6634997  41.3969988
  18.2740012  86.5024997  41.8769988  18.3851372  87.2000803  41.3694344
  18.6630012  85.2954997  43.0939988  17.9360012  84.8164997  43.4909988
  19.2440012  85.5014997  43.8259988  18.6419375  85.2577090  43.2474129
  18.4220012  88.0804997  48.0409988  19.2550012  87.7024997  47.7609988
  18.5340012  89.0234997  47.9219988  18.5512647  88.1562218  47.9865487
  16.9080012  90.9584997  50.3479988  16.2610012  91.2834997  50.9739988
  16.3910012  90.5184997  49.6739988  16.7494029  90.9435004  50.3425827
  18.9310012  85.1964997  39.4849988  18.4090012  85.5534997  38.7659988
  18.8980012  85.8714997  40.1629988  18.8551634  85.3365413  39.4783145
  17.2800012  82.4364997  38.0359988  17.3760012  83.1034997  37.3549988
  17.1400012  81.6204997  37.5539988  17.2742135  82.4174500  37.8778491
  16.4490012  83.8164997  43.6569988  16.2990012  82.8714997  43.6359988
  16.0960012  84.0974997  44.4999988  16.3806625  83.7250441  43.7682346
   1.4850012  85.8944997  47.6669988   1.6690012  85.8124997  46.7309988
   2.3340012  85.7704997  48.0909988   1.6250139  85.8665003  47.5961455
  17.3060012  85.7864997  53.2949988  17.8890012  85.0524997  53.4869988
  17.8700012  86.5584997  53.3419988  17.4619769  85.7904227  53.3276159
  18.8020012  83.6894997  53.9799988  17.9390012  83.3104997  53.8139988
  19.4070012  82.9504997  53.9059988  18.7655979  83.5378023  53.9472817
  16.5270012  79.8444997  37.1529988  17.1380012  79.4734997  37.7899988
  15.6910012  79.4234997  37.3489988  16.4975032  79.7367554  37.2667035
  16.1600012  81.3994997  42.1189988  16.4400012  80.4924997  42.2429988
  16.9190012  81.8334997  41.7299988  16.3009277  81.3340942  42.0833682
  16.7720012  81.9804997  47.5549988  17.7050012  82.1924997  47.5209988
  16.5370012  82.0824997  48.4769988  16.8678036  82.0232769  47.6749976
  16.8010012  82.7174997  50.3309988  15.9580012  82.9854997  50.6969988
  17.2430012  83.5394997  50.1199988  16.7454158  82.8653291  50.3525491
   1.0820012  81.1654997  53.8079988   2.0020012  81.0434997  54.0439988
   0.6330012  80.4154997  54.1969988   1.1471580  81.0473727  53.8929006
  19.0840012  76.6974997  55.6839988  19.4340012  76.0434997  55.0789988
  19.2310012  77.5344997  55.2449988  19.1518419  76.7211591  55.5417118
  16.7730012  78.6624997  42.1669988  16.9560012  78.2134997  42.9929988
  16.1740012  78.0774997  41.7039988  16.7170202  78.5219975  42.2173275
   2.3030012  79.4774997  46.6989988   2.7490012  78.6854997  47.0009988
   2.7700012  80.1934997  47.1299988   2.4270172  79.4660624  46.7984820
   0.6070012  82.4764997  47.7679988   1.0990012  82.2554997  46.9769988
   0.9700012  83.3174997  48.0489988   0.7233126  82.5598357  47.6977531
  18.6040012  78.8064997  54.0339988  17.6860012  79.0774997  53.9979988
  18.7270012  78.2714997  53.2489988  18.4951066  78.7712892  53.9230487
  18.6400012  78.7294997  38.6949988  19.0520012  78.0084997  38.2199988
  19.3220012  79.3994997  38.7539988  18.7885885  78.7212368  38.6378915
   0.9210012  78.7344997  41.8219988  -0.0039988  78.9434997  41.6929988
   1.3750012  79.2184997  41.1329988   0.8557368  78.8285993  41.7111226
  15.6920012  93.7184997  43.7679988  16.3440012  93.3714997  43.1599988
  16.2020012  94.2074997  44.4139988  15.8502637  93.7370597  43.7720236
   0.8850012  77.4724997  50.1669988   0.2200012  77.2264997  50.8099988
   0.4420012  78.0944997  49.5889988   0.7340956  77.5228632  50.1769352
   3.0770012  90.6474997  54.3109988   2.2560012  90.8224997  53.8509988
   2.8240012  90.5744997  55.2319988   2.9306164  90.6615622  54.3724923
   6.0310012  91.6224997  50.5699988   5.6060012  92.4314997  50.2869988
   6.9350012  91.7074997  50.2679988   6.0950271  91.7448469  50.4903776
  10.3420012  93.0214997  53.5289988  10.5270012  92.6874997  54.4069988
  11.1880012  93.3304997  53.2069988  10.4817539  93.0176047  53.6055605
  12.6870012  94.3074997  52.7729988  13.3640012  93.6744997  52.5329988
  13.0090012  94.7084997  53.5799988  12.8231637  94.2751154  52.8492793
  17.6040012  76.8964997  51.8529988  16.7920012  77.2214997  51.4649988
  17.8370012  76.1364997  51.3199988  17.5243423  76.8382436  51.7278253
   3.4330012  94.8784997  50.6169988   2.7120012  95.3184997  50.1659988
   3.0670012  94.6274997  51.4659988   3.2849804  94.9047698  50.6699840
   5.9000012  94.4784997  49.6469988   5.0350012  94.5504997  50.0509988
   5.8450012  95.0254997  48.8629988   5.7742085  94.5622685  49.5963362
  10.6100012  94.3664997  48.8219988  10.1540012  94.8954997  48.1679988
  10.7730012  94.9694997  49.5479988  10.5695585  94.5204468  48.8305062
  12.9380012  93.2444997  49.7669988  12.0330012  93.4094997  49.5019988
  13.3670012  94.0974997  49.7019988  12.8720799  93.3824483  49.7219182
  15.5420012  94.8144997  50.0619988  15.3600012  95.7304997  49.8519988
  15.7190012  94.4044997  49.2159988  15.5410210  94.8844822  49.9187885
   2.8470012  93.5014997  47.5269988   2.8290012  93.0764997  48.3849988
   3.6520012  93.1834997  47.1189988   2.9533875  93.4003812  47.5891655
   4.9890012  92.2114997  46.1819988   4.7700012  91.2954997  46.3519988
   5.8130012  92.3514997  46.6479988   5.0704420  92.1050520  46.2682774
   7.5260012  92.6814997  47.0309988   7.7390012  91.7934997  46.7439988
   7.5900012  92.6474997  47.9849988   7.5638232  92.5553102  47.1207397
  11.0340012  78.3454997  46.1749988  10.3600012  77.7164997  46.4309988
  11.5980012  77.8614997  45.5719988  11.0179230  78.1938744  46.1285340
  16.1770012  76.4534997  46.2879988  16.7810012  77.0004997  45.7859988
  15.3070012  76.7724997  46.0479988  16.1421241  76.5715806  46.1867654
  17.9040012  77.5914997  44.6209988  18.5160012  77.0774997  44.0949988
  18.2860012  78.4694997  44.6449988  18.0394540  77.6397140  44.5521830
   3.3610012  76.9794997  43.9969988   2.5840012  76.7454997  43.4899988
   3.8910012  76.1824997  44.0059988   3.3262330  76.8396988  43.9287742
   2.1970012  76.7774997  39.8009988   2.6360012  77.3884997  39.2089988
   1.5640012  77.3154997  40.2749988   2.1714514  76.9339257  39.7840930
   7.9400012  76.9064997  43.8109988   8.8150012  77.2944997  43.7809988
   7.8040012  76.6914997  44.7329988   8.0413695  76.9305184  43.9316440
  13.4970012  76.9364997  45.4599988  13.5730012  77.0314997  44.5099988
  13.2220012  76.0284997  45.5889988  13.4702321  76.8267867  45.3475079
  14.8500012  76.9624997  41.1519988  14.1480012  77.5774997  40.9429988
  14.4060012  76.1244997  41.2829988  14.6936330  76.9335783  41.1410328
   2.0980012  92.7254997  40.6989988   1.4130012  92.6874997  40.0309988
   2.1020012  93.6384997  40.9869988   2.0048193  92.8437016  40.6465284
   4.0580012  78.6934997  38.2429988   4.5500012  78.0634997  37.7159988
   4.6820012  78.9894997  38.9069988   4.2095446  78.6473199  38.2605980
   9.0840012  78.9864997  40.6999988   9.2620012  78.3404997  41.3829988
   9.0310012  79.8204997  41.1679988   9.1011829  79.0107985  40.8565940
  10.9630012  93.9354997  39.0959988  11.8290012  94.3014997  38.9179988
  10.7160012  93.4954997  38.2819988  11.0482392  93.9261756  38.9616289
  17.6720012  93.4984997  41.7749988  17.4770012  92.7504997  41.2099988
  17.6330012  94.2564997  41.1919988  17.6400380  93.4986099  41.6188384
   3.3190012  77.4934997  53.5149988   2.9530012  76.7284997  53.9579988
   4.2320012  77.5224997  53.8019988   3.3922790  77.3927224  53.6144070
   5.2920012  76.8444997  55.0509988   6.1900012  76.5704997  54.8659988
   4.9050012  76.1014997  55.5149988   5.3626612  76.7065914  55.0883643
   3.9160012  93.6454997  37.7239988   3.6490012  93.9324997  38.5969988
   4.6880012  93.0994997  37.8759988   3.9837488  93.6110294  37.8641050
  13.7130012  76.1764997  55.2329988  13.7900012  75.7504997  56.0869988
  14.6070012  76.1904997  54.8899988  13.8443428  76.1200879  55.3035310
  16.8890012  92.2494997  53.9249988  16.1070012  92.0634997  53.4059988
  16.8170012  93.1784997  54.1429988  16.7721777  92.3496492  53.8834048
  31.2950012  86.1354997  43.9559988  31.3840012  87.0794997  43.8239988
  30.6570012  85.8604997  43.2979988  31.2209081  86.2274830  43.8489614
  30.2280012  85.3904997  47.3749988  30.1900012  84.7444997  48.0799988
  29.9060012  84.9244997  46.6039988  30.1792333  85.2389408  47.3672978
  22.5970012  85.0054997  48.9679988  22.6380012  84.3794997  49.6909988
  23.3000012  85.6294997  49.1499988  22.6976363  85.0041196  49.0916044
  33.9340012  88.3294997  45.6759988  33.4940012  87.6094997  46.1269988
  33.9210012  89.0504997  46.3059988  33.8720226  88.3283731  45.8228494
  23.5200012  89.4554997  47.5029988  23.1510012  88.6534997  47.1329988
  24.4610012  89.2864997  47.5489988  23.5967289  89.3230153  47.4586316
  20.1300012  83.1154997  42.8959988  19.6830012  83.9614997  42.8769988
  19.5690012  82.5354997  42.3799988  19.9929900  83.1529916  42.8236801
  20.8410012  85.2774997  45.0219988  21.0540012  84.5074997  45.5489988
  21.5790012  85.3664997  44.4179988  20.9698496  85.1841394  45.0125300
  31.0460012  93.4344997  45.8889988  31.6660012  92.7574997  45.6149988
  30.8380012  93.2164997  46.7969988  31.1026904  93.3123870  45.9743365
  28.6180012  87.8234997  47.7809988  28.9220012  87.1374997  47.1859988
  29.3390012  87.9414997  48.3989988  28.7570671  87.7456304  47.7831816
  37.2810012  79.4244997  48.6419988  37.3300012  80.0344997  49.3779988
  37.7060012  79.8854997  47.9189988  37.3451824  79.5703741  48.6450205
  31.7590012  82.2174997  48.1089988  31.9010012  81.2714997  48.1289988
  31.6520012  82.4244997  47.1799988  31.7639864  82.1159534  47.9862339
  24.9130012  80.3184997  45.3809988  24.9570012  81.1784997  44.9629988
  24.4560012  79.7664997  44.7469988  24.8572185  80.3615799  45.2380299
  32.6360012  80.4494997  43.7819988  33.2820012  80.1204997  44.4069988
  33.1460012  80.9674997  43.1589988  32.7934264  80.4744611  43.7833862
  21.5340012  82.7154997  46.1429988  22.1870012  82.1654997  46.5749988
  21.5580012  82.4414997  45.2259988  21.6266683  82.6031466  46.0782123
  26.6900012  84.2654997  45.3579988  27.3060012  83.7394997  45.8679988
  26.1040012  83.6254997  44.9549988  26.6950810  84.1069208  45.3733173
  37.6720012  80.9024997  50.8779988  36.9840012  81.5604997  50.7819988
  37.6880012  80.7054997  51.8139988  37.5798525  80.9660462  50.9914808
  23.7240012  79.2364997  49.4549988  23.5050012  79.7664997  48.6889988
  23.0560012  79.4634997  50.1019988  23.6037600  79.3396906  49.4376379
  31.0930012  88.7364997  42.9989988  30.7970012  88.4144997  42.1479988
  30.7680012  89.6364997  43.0399988  31.0086371  88.8140215  42.8881801
  26.2930012  86.9124997  49.7419988  25.5530012  87.5104997  49.8459988
  27.0070012  87.4664997  49.4269988  26.2882237  87.0692831  49.7136465
  34.4000012  79.7404997  45.7619988  34.1840012  78.9744997  46.2949988
  35.0550012  80.2124997  46.2749988  34.4590632  79.6995889  45.9042861
  23.3170012  81.1284997  47.4069988  23.9310012  81.7614997  47.7809988
  23.8290012  80.6564997  46.7509988  23.4702296  81.1512370  47.3694252
  24.7000012  88.8764997  50.5299988  24.6950012  89.7564997  50.1519988
  23.8470012  88.7934997  50.9549988  24.5839464  88.9856117  50.5357907
  20.8210012  88.5474997  41.3119988  20.5490012  88.7764997  40.4229988
  20.8670012  89.3854997  41.7719988  20.7900094  88.6921213  41.2525697
  34.4460012  90.1694997  48.0239988  33.5050012  90.2274997  48.1859988
  34.7230012  91.0754997  47.8869988  34.3544679  90.2999443  48.0276815
  34.7470012  78.4554997  49.4419988  34.0110012  79.0664997  49.4039988
  35.4300012  78.8704997  48.9149988  34.7386541  78.5951374  49.3655832
  27.7500012  76.5424997  46.9079988  27.6330012  75.5934997  46.8529988
  26.8950012  76.8744997  47.1809988  27.6183733  76.4575409  46.9373897
  32.6980012  91.9504997  44.6499988  33.1240012  91.2434997  44.1649988
  33.0150012  92.7514997  44.2329988  32.7991019  91.9620994  44.5273130
  33.8580012  89.8514997  43.1579988  33.6000012  89.1614997  42.5469988
  33.9290012  89.4084997  44.0039988  33.8322856  89.6972124  43.1886885
  35.5440012  88.4174997  51.6359988  35.6840012  87.8264997  50.8959988
  35.7110012  89.2904997  51.2789988  35.5856778  88.4546426  51.4866965
  30.0170012  85.3794997  41.4079988  29.3050012  85.9144997  41.0559988
  30.7080012  85.4354997  40.7479988  30.0130132  85.4602543  41.2706289
  30.0700012  83.8374997  38.4469988  30.7710012  83.8594997  39.0979988
  30.3730012  83.2094997  37.7909988  30.2067830  83.7556566  38.4473711
  37.3860012  84.7574997  49.7019988  36.7330012  85.4524997  49.7909988
  37.8510012  84.9674997  48.8919988  37.3595390  84.8809425  49.6046883
  33.4220012  85.5894997  42.3599988  32.6900012  85.8174997  42.9329988
  33.8700012  84.8754997  42.8149988  33.3823095  85.5242571  42.4999119
  33.3200012  83.7634997  51.4269988  33.4000012  84.5264997  51.9989988
  32.7180012  84.0424997  50.7369988  33.2495756  83.9057134  51.4120589
  25.0680012  86.2194997  44.2419988  24.7370012  85.8494997  43.4239988
  25.6560012  85.5494997  44.5889988  25.1021873  86.0781156  44.1768102
  26.4340012  89.6474997  46.9239988  26.3400012  89.0694997  46.1669988
  27.1640012  89.2764997  47.4199988  26.5197981  89.5182390  46.8874165
  25.4340012  84.9884997  47.8759988  26.0000012  85.1094997  47.1129988
  25.7530012  85.6254997  48.5149988  25.5545786  85.0911884  47.8580040
  31.7430012  90.4914997  48.6099988  31.5030012  91.1534997  49.2579988
  31.5450012  89.6574997  49.0349988  31.6833808  90.4693134  48.7561524
  26.3140012  89.3874997  52.5929988  26.0030012  90.1694997  53.0479988
  25.6640012  89.2344997  51.9069988  26.1835558  89.4739105  52.5625871
  32.2930012  84.7514997  40.0449988  32.8730012  84.9014997  40.7919988
  32.7070012  85.2224997  39.3219988  32.4282830  84.8356841  40.0494134
  23.2340012  85.5854997  51.8219988  23.3050012  86.2364997  52.5199988
  22.3440012  85.6884997  51.4869988  23.1233117  85.6885936  51.8722700
  30.0200012  91.4884997  43.4799988  30.4940012  91.7834997  44.2579988
  29.4570012  92.2264997  43.2469988  30.0087653  91.6286932  43.5550136
  24.5540012  91.4594997  53.3559988  24.5610012  91.3234997  52.4089988
  23.6380012  91.3414997  53.6079988  24.4311714  91.4249430  53.2604666
  35.9920012  76.5014997  39.8579988  35.0920012  76.6404997  40.1529988
  36.2440012  77.3324997  39.4559988  35.9028702  76.6329074  39.8440205
  24.0580012  85.2894997  41.8319988  23.7660012  86.0574997  41.3409988
  23.3840012  84.6294997  41.6689988  23.9269081  85.3054406  41.7427339
  37.1810012  90.8674997  38.2339988  37.2550012  91.8064997  38.4049988
  38.0870012  90.5624997  38.1779988  37.3135100  90.9546722  38.2498119
  20.1510012  87.6524997  50.6469988  19.6500012  87.6244997  49.8319988
  20.1560012  86.7464997  50.9559988  20.0831526  87.5262278  50.5772872
  19.9010012  90.4324997  47.5309988  20.8470012  90.2884997  47.5119988
  19.7890012  91.2164997  48.0679988  20.0152727  90.5188046  47.6010072
  38.0990012  91.0984997  53.2129988  38.0500012  90.1434997  53.1759988
  37.2720012  91.3664997  53.6139988  37.9804940  91.0038998  53.2621375
  29.0780012  90.6724997  52.0889988  29.1650012  91.4984997  52.5639988
  28.2140012  90.3424997  52.3379988  28.9731964  90.7409878  52.1876549
  29.4920012  94.4444997  41.8949988  29.4170012  94.3234997  40.9489988
  29.5250012  95.3944997  42.0139988  29.4861848  94.5562500  41.7814834
  23.1450012  93.2334997  43.6759988  23.2980012  92.8854997  44.5549988
  22.2950012  92.8774997  43.4209988  23.0508962  93.1376650  43.7618340
  32.5940012  93.5984997  38.8969988  32.9690012  92.8544997  38.4269988
  32.5980012  93.3284997  39.8159988  32.6458915  93.4601486  38.9567824
  32.2630012  93.5244997  41.6469988  31.3270012  93.6244997  41.8249988
  32.5430012  92.8154997  42.2249988  32.1728255  93.4422711  41.7495391
  35.2510012  82.5914997  53.6929988  34.8440012  83.0724997  52.9719988
  35.2920012  81.6864997  53.3849988  35.2008437  82.5349374  53.5526683
  22.4000012  88.9754997  51.6899988  22.6160012  88.6144997  52.5489988
  21.5450012  88.6014997  51.4799988  22.3139292  88.8754111  51.7793386
  25.0190012  77.4454997  47.6849988  24.1570012  77.3584997  47.2779988
  24.9960012  78.3014997  48.1129988  24.8980330  77.5492765  47.6871863
  29.6820012  77.1674997  51.0599988  30.1020012  76.7524997  51.8129988
  28.7490012  76.9894997  51.1769988  29.6133644  77.0865900  51.1789539
  33.0080012  80.9234997  51.9129988  32.4940012  80.7974997  52.7109988
  32.8530012  81.8354997  51.6689988  32.9166852  81.0296132  51.9892158
  33.7710012  85.7844997  37.6749988  33.8130012  85.5614997  36.7449988
  34.6200012  86.1834997  37.8649988  33.8915396  85.8079155  37.5733627
  29.3430012  79.6604997  38.3449988  29.0900012  79.6794997  39.2679988
  29.0870012  78.7884997  38.0439988  29.2737790  79.5452437  38.4306263
  25.1100012  82.4114997  48.7799988  24.4680012  82.3704997  49.4889988
  25.1470012  83.3374997  48.5429988  25.0271324  82.5311559  48.8449824
  25.1070012  82.6324997  43.6919988  24.2140012  82.2914997  43.6339988
  25.5570012  82.2554997  42.9369988  25.0457305  82.5348484  43.5819177
  30.6420012  83.0484997  42.5089988  30.2330012  83.8634997  42.2179988
  31.3630012  82.9084997  41.8949988  30.6834537  83.1412018  42.3861342
  29.7440012  83.2234997  53.9969988  29.1820012  82.5194997  54.3179988
  30.5710012  83.1034997  54.4649988  29.7787095  83.1107883  54.1042330
  31.6470012  82.4944997  45.3229988  31.4520012  83.0994997  44.6079988
  31.8280012  81.6604997  44.8889988  31.6447614  82.4646300  45.1664405
  22.8600012  82.7314997  50.6469988  22.8220012  83.1314997  51.5159988
  22.3690012  81.9144997  50.7379988  22.7884684  82.6758069  50.7781059
  26.2260012  80.1054997  37.4459988  25.7950012  79.6604997  38.1759988
  25.5080012  80.4774997  36.9339988  26.0699438  80.0948940  37.4766799
  19.4680012  79.8474997  44.4979988  20.0990012  79.8184997  45.2169988
  19.9170012  79.4224997  43.7679988  19.6150774  79.7860492  44.4976553
  20.7420012  80.5934997  39.9219988  21.2160012  81.1844997  39.3369988
  20.0250012  81.1244997  40.2689988  20.7099341  80.7460867  39.8888836
  30.9110012  84.1324997  49.9949988  31.2340012  83.5014997  49.3519988
  30.4710012  83.5974997  50.6549988  30.8956895  83.9738441  49.9962850
  27.6880012  80.0594997  44.7789988  26.7770012  80.1164997  45.0669988
  28.1940012  79.9994997  45.5889988  27.6315413  80.0591985  44.9280622
  22.5170012  81.6884997  43.6049988  21.6270012  81.7884997  43.2649988
  22.8130012  80.8464997  43.2589988  22.4352823  81.5883545  43.5117213
  26.1700012  81.6884997  41.2619988  27.1010012  81.8174997  41.4399988
  25.9550012  82.3584997  40.6119988  26.2684247  81.7966565  41.1985747
  32.0930012  79.2944997  48.0429988  31.4170012  79.4254997  48.7069988
  31.6080012  79.1394997  47.2329988  31.9347145  79.2914905  48.0244517
  24.8440012  82.8834997  38.8289988  24.3010012  82.5034997  38.1369988
  25.6770012  83.0774997  38.3999988  24.8824399  82.8578124  38.6764526
  35.3810012  94.9664997  54.3199988  35.5810012  95.3904997  53.4849988
  36.0360012  95.3094997  54.9269988  35.4970051  95.0709648  54.2877836
  22.9790012  87.4404997  53.9279988  23.7110012  87.6944997  54.4889988
  22.1990012  87.6444997  54.4429988  22.9738232  87.5029177  54.0745760
  29.0080012  82.8474997  46.6659988  29.5730012  82.3004997  46.1189988
  28.8610012  82.3254997  47.4539988  29.0652918  82.7022024  46.6978454
  24.0100012  78.9834997  43.0839988  23.6930012  78.0814997  43.0489988
  24.7920012  78.9854997  42.5309988  24.0722284  78.8601628  43.0044783
  27.6350012  81.2354997  49.0799988  26.7990012  81.6894997  49.1899988
  28.1590012  81.5114997  49.8319988  27.5914414  81.3349376  49.1967136
  28.1790012  87.4484997  40.7639988  27.4340012  86.9414997  40.4419988
  28.0450012  87.4974997  41.7109988  28.0588776  87.3856940  40.8478647
  35.3290012  86.5814997  49.5509988  35.9710012  87.0384997  49.0069988
  34.4990012  86.6944997  49.0879988  35.3045963  86.6592704  49.4140177
  32.0770012  80.2624997  38.9639988  31.1380012  80.3744997  38.8119988
  32.3740012  81.1194997  39.2699988  31.9887666  80.3936443  38.9845768
  29.6980012  87.6324997  52.0009988  29.3530012  87.2514997  52.8079988
  29.4980012  88.5664997  52.0729988  29.6238061  87.7065228  52.1210961
  32.7950012  82.1294997  40.6239988  33.6870012  81.9924997  40.9429988
  32.8520012  82.9204997  40.0879988  32.9246285  82.2176660  40.5951690
  23.3040012  86.7434997  46.5339988  24.0490012  86.7414997  45.9329988
  23.3820012  85.9204997  47.0159988  23.4165518  86.6319315  46.5168929
  30.3050012  88.9074997  39.7899988  30.0090012  89.7334997  40.1709988
  29.6020012  88.2874997  39.9859988  30.1694914  88.9368199  39.8686443
  20.3120012  85.2044997  51.8489988  20.5350012  84.7864997  52.6809988
  19.7100012  84.5914997  51.4259988  20.2611759  85.0644668  51.9057022
  27.3280012  84.7214997  54.0619988  27.0320012  84.5554997  53.1669988
  28.2600012  84.5014997  54.0509988  27.4134166  84.6690640  53.9380536
  31.9490012  90.0944997  51.9519988  31.0480012  90.2774997  51.6839988
  31.9830012  90.3534997  52.8729988  31.8303041  90.1545512  52.0398197
  37.6800012  82.3394997  40.3189988  37.1260012  81.9434997  39.6469988
  37.7800012  83.2494997  40.0409988  37.6177059  82.4083586  40.1894401
  37.6430012  88.1394997  53.1559988  36.7920012  88.3774997  52.7889988
  38.2340012  88.1224997  52.4029988  37.6062487  88.1698258  53.0038893
  35.9750012  91.1254997  40.7839988  35.6020012  90.2994997  41.0929988
  36.2530012  90.9424997  39.8869988  35.9615630  90.9877303  40.7049626
  33.1360012  85.9334997  47.8049988  32.2070012  85.7014997  47.7779988
  33.5870012  85.1564997  47.4749988  33.0699216  85.7967238  47.7566917
  25.6790012  90.2614997  43.9379988  26.2060012  91.0344997  43.7379988
  24.7990012  90.4864997  43.6369988  25.6321773  90.3978005  43.8699010
  21.4340012  85.1234997  38.5249988  22.0500012  85.7504997  38.9049988
  20.5720012  85.4394997  38.7969988  21.4017698  85.2519430  38.6137183
  27.1060012  87.9244997  43.5149988  26.8650012  88.8494997  43.5559988
  26.3650012  87.4654997  43.9109988  26.9728409  87.9891421  43.5741377
  27.6210012  92.0734997  49.8299988  27.9830012  92.9284997  49.5959988
  28.1520012  91.7814997  50.5699988  27.7424473  92.1511060  49.8980855
  25.7890012  92.9464997  43.0599988  24.8390012  93.0514997  43.1109988
  26.1410012  93.7664997  43.4049988  25.7064203  93.0718314  43.1136650
  31.1650012  88.1724997  49.5299988  30.7390012  87.9454997  50.3569988
  31.7450012  87.4344997  49.3479988  31.1851868  88.0415299  49.6185830
  33.3680012  89.1014997  38.6039988  33.7210012  88.7214997  39.4089988
  32.4190012  89.0084997  38.6909988  33.2880441  89.0369596  38.7258559
  33.8230012  92.7244997  51.9999988  33.2220012  92.1694997  51.5039988
  34.1050012  93.3914997  51.3739988  33.7788519  92.7386841  51.8474952
  37.8710012  93.5814997  38.8049988  38.6150012  94.1674997  38.6649988
  37.1770012  94.1494997  39.1389988  37.8790292  93.7385582  38.8309961
  21.9460012  79.9574997  51.4069988  21.0530012  80.2964997  51.3389988
  21.8470012  79.1024997  51.8249988  21.8104164  79.8882588  51.4542235
  34.2340012  87.7744997  40.8309988  33.9560012  87.0464997  41.3869988
  35.1610012  87.8934997  41.0359988  34.3213124  87.6908802  40.9348845
  21.5970012  91.7624997  49.8419988  21.8140012  90.8304997  49.8109988
  21.8430012  92.0364997  50.7249988  21.6599549  91.6720636  49.9571763
  27.4590012  90.2134997  37.0509988  27.6980012  89.4654997  36.5039988
  27.1900012  89.8254997  37.8839988  27.4553675  90.0586638  37.0886865
  26.3960012  89.7834997  39.5079988  26.5420012  89.2634997  40.2979988
  26.3930012  90.6904997  39.8139988  26.4155989  89.8348853  39.6576088
  22.8490012  87.0364997  40.0179988  22.1630012  87.3884997  40.5849988
  23.3710012  87.7994997  39.7709988  22.8256852  87.1878578  40.0622118
  30.6800012  79.6984997  50.2969988  31.3790012  79.7724997  50.9469988
  30.2990012  78.8344997  50.4509988  30.7241767  79.5917624  50.4068322
  31.4650012  79.3504997  41.3939988  31.6850012  79.8224997  40.5909988
  32.0230012  79.7454997  42.0639988  31.5704968  79.4684285  41.3747331
  29.1330012  91.4814997  40.2569988  28.3170012  91.9784997  40.3089988
  29.6630012  91.9564997  39.6169988  29.0929161  91.6137722  40.1775956
  28.6650012  81.0784997  42.2289988  29.4770012  81.5834997  42.2749988
  28.4200012  80.9334997  43.1429988  28.7430520  81.1280375  42.3588517
  29.2000012  82.0644997  51.4139988  29.3190012  82.6384997  52.1709988
  29.8560012  81.3764997  51.5279988  29.3049757  82.0501079  51.5330825
  29.5480012  78.1594997  43.1669988  29.2020012  78.7774997  43.8119988
  30.2070012  78.6604997  42.6859988  29.5897826  78.3115802  43.1900971
  26.4720012  92.5254997  40.2389988  26.6320012  93.3244997  39.7379988
  26.2740012  92.8314997  41.1239988  26.4671649  92.6764469  40.2899815
  25.2060012  79.2224997  39.8539988  25.1230012  80.1114997  40.2009988
  26.0960012  78.9574997  40.0859988  25.3149469  79.3081430  39.9327626
  35.4050012  79.9714997  52.2489988  34.4880012  80.2344997  52.1609988
  35.7400012  79.9684997  51.3519988  35.3249900  80.0070224  52.1157919
  34.0070012  83.7224997  46.3439988  33.2090012  83.3074997  46.0159988
  34.4520012  83.0314997  46.8349988  33.9579885  83.5723543  46.3654889
  23.4650012  89.6504997  38.9149988  24.0570012  90.3494997  39.1909988
  23.9240012  89.2174997  38.1949988  23.6081142  89.6877049  38.8554830
  21.7810012  82.3144997  38.0309988  21.7360012  83.2534997  38.2089988
  20.8930012  82.0784997  37.7609988  21.6548574  82.4111892  38.0188912
  35.0930012  92.9784997  47.9669988  34.9380012  93.6564997  47.3099988
  36.0260012  93.0504997  48.1699988  35.1978500  93.0810170  47.9045119
  22.5890012  77.0964997  46.7039988  22.3600012  77.1554997  45.7759988
  22.1460012  76.3044997  47.0099988  22.4978530  76.9975753  46.6184786
  21.5190012  91.0364997  42.8639988  20.6870012  91.5094997  42.8919988
  22.0650012  91.5464997  42.2659988  21.4789739  91.1701871  42.7869716
  20.8070012  93.6494997  54.1939988  21.3480012  93.4324997  54.9539988
  20.3260012  92.8434997  54.0049988  20.8159345  93.5109514  54.2723076
  25.4050012  92.5684997  55.8149988  26.1720012  92.1094997  56.1559988
  25.3830012  92.3424997  54.8849988  25.5071434  92.4750409  55.7360043
  29.4970012  92.0764997  37.1899988  28.8530012  91.4454997  37.5109988
  30.2590012  91.5454997  36.9579988  29.5118077  91.9182920  37.2026011
  31.9820012  90.9484997  54.5439988  31.6310012  90.0924997  54.7869988
  32.7080012  91.0914997  55.1509988  32.0320769  90.8505636  54.6593619
  34.1010012  91.8934997  37.4239988  34.3840012  91.0994997  37.8759988
  34.8410012  92.1264997  36.8629988  34.2397486  91.8162803  37.4100698
  20.7140012  87.4594997  55.1489988  20.8580012  86.5574997  54.8619988
  19.9420012  87.7454997  54.6609988  20.6293322  87.3748261  55.0437881
  25.0560012  87.8034997  37.2809988  25.1200012  87.0094997  37.8119988
  25.7090012  87.6844997  36.5909988  25.1530241  87.6787148  37.2604317
  27.3700012  87.4294997  54.5809988  27.0410012  87.7004997  53.7239988
  27.5220012  86.4884997  54.4939988  27.3454809  87.3393862  54.4518244
  30.4080012  88.8504997  37.0169988  30.1390012  89.0304997  37.9179988
  30.2020012  87.9244997  36.8859988  30.3433825  88.7500152  37.1225214
  33.1040012  87.3454997  51.9649988  33.8500012  87.9334997  51.8449988
  32.3470012  87.9274997  52.0279988  33.1037554  87.5047011  51.9570907
  21.5470012  84.6594997  54.5689988  21.9550012  83.8024997  54.4479988
  21.2870012  84.6744997  55.4899988  21.5677568  84.5440807  54.6769588
  26.2050012  85.7754997  39.5869988  25.7450012  85.2914997  40.2729988
  26.4600012  85.1074997  38.9509988  26.1764902  85.6188731  39.5949334
  25.4940012  83.6684997  51.9429988  24.8760012  84.3434997  52.2229988
  25.8380012  83.9894997  51.1099988  25.4559615  83.8042721  51.8686581
  27.2760012  84.0184997  37.8489988  27.0960012  83.8644997  36.9219988
  28.2260012  84.1264997  37.8939988  27.3797776  84.0120175  37.7281843
  30.5140012  86.1404997  55.2199988  31.4670012  86.2234997  55.1929988
  30.3530012  85.4284997  55.8399988  30.6226426  86.0556746  55.3000579
  36.6660012  86.3734997  37.2949988  36.3920012  85.9484997  36.4819988
  36.7050012  87.3044997  37.0779988  36.6337699  86.4412484  37.1543610
  25.8330012  81.0234997  53.0249988  25.9830012  80.2944997  52.4229988
  25.8360012  81.8004997  52.4659988  25.8539302  81.0287851  52.8670692
  26.2460012  79.3934997  50.5179988  26.7820012  79.8444997  49.8659988
  25.3940012  79.2854997  50.0949988  26.2042178  79.4406390  50.3715756
  27.8280012  84.8324997  50.7569988  28.5780012  84.6764997  50.1839988
  27.4890012  85.6844997  50.4819988  27.8848921  84.9262968  50.6413561
  32.2430012  82.6474997  55.7859988  32.4360012  81.7164997  55.6739988
  33.1010012  83.0724997  55.7759988  32.3853020  82.5776389  55.7693361
  33.5600012  85.4364997  53.8629988  33.2790012  86.1454997  53.2859988
  34.5030012  85.3634997  53.7119988  33.6489027  85.5237646  53.7635551
  24.3120012  82.2214997  54.9369988  23.5450012  81.6894997  54.7269988
  24.9910012  81.9114997  54.3369988  24.2987022  82.1067506  54.8271648
  27.0520012  76.8494997  50.9489988  26.9530012  77.7964997  50.8439988
  26.3090012  76.4774997  50.4739988  26.9380564  76.9285902  50.8704560
  28.3160012  81.1714997  54.5129988  28.0800012  80.9514997  55.4149988
  27.5320012  80.9644997  54.0029988  28.1778628  81.1134760  54.5673932
  31.0310012  80.2984997  53.5889988  30.0840012  80.3304997  53.7209988
  31.3440012  79.6734997  54.2419988  30.9435475  80.2183207  53.6954455
  32.6650012  78.9324997  55.5939988  32.5690012  77.9804997  55.5879988
  32.3440012  79.2014997  56.4539988  32.6084070  78.8384035  55.7095441
  22.4920012  80.1424997  54.6409988  22.7040012  79.4354997  54.0309988
  22.3810012  79.7044997  55.4849988  22.5059721  79.9867084  54.6716843
  27.2730012  76.1434997  53.6209988  27.9850012  75.5034997  53.6069988
  27.1720012  76.4104997  52.7069988  27.3567939  76.0919938  53.4955650
  27.6270012  77.8264997  55.6739988  27.4950012  77.3504997  54.8539988
  27.0280012  78.5704997  55.6189988  27.5279071  77.8619618  55.5542886
  27.1730012  94.7094997  38.8509988  28.1060012  94.8674997  38.9939988
  26.9090012  95.3844997  38.2259988  27.2649510  94.8223611  38.7860741
  20.7420012  89.3454997  38.3329988  21.6560012  89.4244997  38.6069988
  20.7490012  88.6584997  37.6669988  20.8681131  89.2633961  38.2804393
  19.3910012  94.7384997  43.4109988  18.7440012  94.2764997  42.8779988
  19.7450012  94.0664997  43.9929988  19.3503849  94.5844723  43.4167959
  20.2610012  92.8194997  45.2149988  19.9260012  91.9394997  45.3869988
  20.4830012  93.1644997  46.0799988  20.2451783  92.7457500  45.3554208
  37.8090012  93.6284997  48.1959988  37.7880012  93.8134997  49.1349988
  38.5000012  94.1974997  47.8549988  37.8994618  93.7306606  48.2783864
  37.3730012  93.1964997  51.1179988  36.8850012  92.4604997  50.7469988
  37.9220012  92.8024997  51.7959988  37.3804872  93.0426249  51.1589160
  35.8230012  88.9854997  55.7559988  34.9570012  88.8804997  56.1499988
  36.2000012  89.7444997  56.2019988  35.7553308  89.0736900  55.8702393
  37.1240012  87.2424997  41.2699988  37.9740012  87.6634997  41.3969988
  37.1300012  86.5024997  41.8769988  37.2411372  87.2000803  41.3694344
  37.5190012  85.2954997  43.0939988  36.7920012  84.8164997  43.4909988
  38.1000012  85.5014997  43.8259988  37.4979375  85.2577090  43.2474129
  37.2780012  88.0804997  48.0409988  38.1110012  87.7024997  47.7609988
  37.3900012  89.0234997  47.9219988  37.4072647  88.1562218  47.9865487
  35.7640012  90.9584997  50.3479988  35.1170012  91.2834997  50.9739988
  35.2470012  90.5184997  49.6739988  35.6054029  90.9435004  50.3425827
  37.7870012  85.1964997  39.4849988  37.2650012  85.5534997  38.7659988
  37.7540012  85.8714997  40.1629988  37.7111634  85.3365413  39.4783145
  36.1360012  82.4364997  38.0359988  36.2320012  83.1034997  37.3549988
  35.9960012  81.6204997  37.5539988  36.1302135  82.4174500  37.8778491
  35.3050012  83.8164997  43.6569988  35.1550012  82.8714997  43.6359988
  34.9520012  84.0974997  44.4999988  35.2366625  83.7250441  43.7682346
  20.3410012  85.8944997  47.6669988  20.5250012  85.8124997  46.7309988
  21.1900012  85.7704997  48.0909988  20.4810139  85.8665003  47.5961455
  36.1620012  85.7864997  53.2949988  36.7450012  85.0524997  53.4869988
  36.7260012  86.5584997  53.3419988  36.3179769  85.7904227  53.3276159
  37.6580012  83.6894997  53.9799988  36.7950012  83.3104997  53.8139988
  38.2630012  82.9504997  53.9059988  37.6215979  83.5378023  53.9472817
  35.3830012  79.8444997  37.1529988  35.9940012  79.4734997  37.7899988
  34.5470012  79.4234997  37.3489988  35.3535032  79.7367554  37.2667035
  35.0160012  81.3994997  42.1189988  35.2960012  80.4924997  42.2429988
  35.7750012  81.8334997  41.7299988  35.1569277  81.3340942  42.0833682
  35.6280012  81.9804997  47.5549988  36.5610012  82.1924997  47.5209988
  35.3930012  82.0824997  48.4769988  35.7238036  82.0232769  47.6749976
  35.6570012  82.7174997  50.3309988  34.8140012  82.9854997  50.6969988
  36.0990012  83.5394997  50.1199988  35.6014158  82.8653291  50.3525491
  19.9380012  81.1654997  53.8079988  20.8580012  81.0434997  54.0439988
  19.4890012  80.4154997  54.1969988  20.0031580  81.0473727  53.8929006
  37.9400012  76.6974997  55.6839988  38.2900012  76.0434997  55.0789988
  38.0870012  77.5344997  55.2449988  38.0078419  76.7211591  55.5417118
  35.6290012  78.6624997  42.1669988  35.8120012  78.2134997  42.9929988
  35.0300012  78.0774997  41.7039988  35.5730202  78.5219975  42.2173275
  21.1590012  79.4774997  46.6989988  21.6050012  78.6854997  47.0009988
  21.6260012  80.1934997  47.1299988  21.2830172  79.4660624  46.7984820
  19.4630012  82.4764997  47.7679988  19.9550012  82.2554997  46.9769988
  19.8260012  83.3174997  48.0489988  19.5793126  82.5598357  47.6977531
  37.4600012  78.8064997  54.0339988  36.5420012  79.0774997  53.9979988
  37.5830012  78.2714997  53.2489988  37.3511066  78.7712892  53.9230487
  37.4960012  78.7294997  38.6949988  37.9080012  78.0084997  38.2199988
  38.1780012  79.3994997  38.7539988  37.6445885  78.7212368  38.6378915
  19.7770012  78.7344997  41.8219988  18.8520012  78.9434997  41.6929988
  20.2310012  79.2184997  41.1329988  19.7117368  78.8285993  41.7111226
  34.5480012  93.7184997  43.7679988  35.2000012  93.3714997  43.1599988
  35.0580012  94.2074997  44.4139988  34.7062637  93.7370597  43.7720236
  19.7410012  77.4724997  50.1669988  19.0760012  77.2264997  50.8099988
  19.2980012  78.0944997  49.5889988  19.5900956  77.5228632  50.1769352
  21.9330012  90.6474997  54.3109988  21.1120012  90.8224997  53.8509988
  21.6800012  90.5744997  55.2319988  21.7866164  90.6615622  54.3724923
  24.8870012  91.6224997  50.5699988  24.4620012  92.4314997  50.2869988
  25.7910012  91.7074997  50.2679988  24.9510271  91.7448469  50.4903776
  29.1980012  93.0214997  53.5289988  29.3830012  92.6874997  54.4069988
  30.0440012  93.3304997  53.2069988  29.3377539  93.0176047  53.6055605
  31.5430012  94.3074997  52.7729988  32.2200012  93.6744997  52.5329988
  31.8650012  94.7084997  53.5799988  31.6791637  94.2751154  52.8492793
  36.4600012  76.8964997  51.8529988  35.6480012  77.2214997  51.4649988
  36.6930012  76.1364997  51.3199988  36.3803423  76.8382436  51.7278253
  22.2890012  94.8784997  50.6169988  21.5680012  95.3184997  50.1659988
  21.9230012  94.6274997  51.4659988  22.1409804  94.9047698  50.6699840
  24.7560012  94.4784997  49.6469988  23.8910012  94.5504997  50.0509988
  24.7010012  95.0254997  48.8629988  24.6302085  94.5622685  49.5963362
  29.4660012  94.3664997  48.8219988  29.0100012  94.8954997  48.1679988
  29.6290012  94.9694997  49.5479988  29.4255585  94.5204468  48.8305062
  31.7940012  93.2444997  49.7669988  30.8890012  93.4094997  49.5019988
  32.2230012  94.0974997  49.7019988  31.7280799  93.3824483  49.7219182
  34.3980012  94.8144997  50.0619988  34.2160012  95.7304997  49.8519988
  34.5750012  94.4044997  49.2159988  34.3970210  94.8844822  49.9187885
  21.7030012  93.5014997  47.5269988  21.6850012  93.0764997  48.3849988
  22.5080012  93.1834997  47.1189988  21.8093875  93.4003812  47.5891655
  23.8450012  92.2114997  46.1819988  23.6260012  91.2954997  46.3519988
  24.6690012  92.3514997  46.6479988  23.9264420  92.1050520  46.2682774
  26.3820012  92.6814997  47.0309988  26.5950012  91.7934997  46.7439988
  26.4460012  92.6474997  47.9849988  26.4198231  92.5553102  47.1207397
  29.8900012  78.3454997  46.1749988  29.2160012  77.7164997  46.4309988
  30.4540012  77.8614997  45.5719988  29.8739230  78.1938744  46.1285340
  35.0330012  76.4534997  46.2879988  35.6370012  77.0004997  45.7859988
  34.1630012  76.7724997  46.0479988  34.9981241  76.5715806  46.1867654
  36.7600012  77.5914997  44.6209988  37.3720012  77.0774997  44.0949988
  37.1420012  78.4694997  44.6449988  36.8954540  77.6397140  44.5521830
  22.2170012  76.9794997  43.9969988  21.4400012  76.7454997  43.4899988
  22.7470012  76.1824997  44.0059988  22.1822330  76.8396988  43.9287742
  21.0530012  76.7774997  39.8009988  21.4920012  77.3884997  39.2089988
  20.4200012  77.3154997  40.2749988  21.0274514  76.9339257  39.7840930
  26.7960012  76.9064997  43.8109988  27.6710012  77.2944997  43.7809988
  26.6600012  76.6914997  44.7329988  26.8973695  76.9305184  43.9316440
  32.3530012  76.9364997  45.4599988  32.4290012  77.0314997  44.5099988
  32.0780012  76.0284997  45.5889988  32.3262321  76.8267867  45.3475079
  33.7060012  76.9624997  41.1519988  33.0040012  77.5774997  40.9429988
  33.2620012  76.1244997  41.2829988  33.5496330  76.9335783  41.1410328
  20.9540012  92.7254997  40.6989988  20.2690012  92.6874997  40.0309988
  20.9580012  93.6384997  40.9869988  20.8608193  92.8437016  40.6465284
  22.9140012  78.6934997  38.2429988  23.4060012  78.0634997  37.7159988
  23.5380012  78.9894997  38.9069988  23.0655446  78.6473199  38.2605980
  27.9400012  78.9864997  40.6999988  28.1180012  78.3404997  41.3829988
  27.8870012  79.8204997  41.1679988  27.9571829  79.0107985  40.8565940
  29.8190012  93.9354997  39.0959988  30.6850012  94.3014997  38.9179988
  29.5720012  93.4954997  38.2819988  29.9042392  93.9261756  38.9616289
  36.5280012  93.4984997  41.7749988  36.3330012  92.7504997  41.2099988
  36.4890012  94.2564997  41.1919988  36.4960380  93.4986099  41.6188384
  22.1750012  77.4934997  53.5149988  21.8090012  76.7284997  53.9579988
  23.0880012  77.5224997  53.8019988  22.2482790  77.3927224  53.6144070
  24.1480012  76.8444997  55.0509988  25.0460012  76.5704997  54.8659988
  23.7610012  76.1014997  55.5149988  24.2186612  76.7065914  55.0883643
  22.7720012  93.6454997  37.7239988  22.5050012  93.9324997  38.5969988
  23.5440012  93.0994997  37.8759988  22.8397488  93.6110294  37.8641050
  32.5690012  76.1764997  55.2329988  32.6460012  75.7504997  56.0869988
  33.4630012  76.1904997  54.8899988  32.7003428  76.1200879  55.3035310
  35.7450012  92.2494997  53.9249988  34.9630012  92.0634997  53.4059988
  35.6730012  93.1784997  54.1429988  35.6281777  92.3496492  53.8834048
  50.1510012  86.1354997  43.9559988  50.2400012  87.0794997  43.8239988
  49.5130012  85.8604997  43.2979988  50.0769081  86.2274830  43.8489614
  49.0840012  85.3904997  47.3749988  49.0460012  84.7444997  48.0799988
  48.7620012  84.9244997  46.6039988  49.0352333  85.2389408  47.3672978
  41.4530012  85.0054997  48.9679988  41.4940012  84.3794997  49.6909988
  42.1560012  85.6294997  49.1499988  41.5536363  85.0041196  49.0916044
  52.7900012  88.3294997  45.6759988  52.3500012  87.6094997  46.1269988
  52.7770012  89.0504997  46.3059988  52.7280226  88.3283731  45.8228494
  42.3760012  89.4554997  47.5029988  42.0070012  88.6534997  47.1329988
  43.3170012  89.2864997  47.5489988  42.4527289  89.3230153  47.4586316
  38.9860012  83.1154997  42.8959988  38.5390012  83.9614997  42.8769988
  38.4250012  82.5354997  42.3799988  38.8489900  83.1529916  42.8236801
  39.6970012  85.2774997  45.0219988  39.9100012  84.5074997  45.5489988
  40.4350012  85.3664997  44.4179988  39.8258496  85.1841394  45.0125300
  49.9020012  93.4344997  45.8889988  50.5220012  92.7574997  45.6149988
  49.6940012  93.2164997  46.7969988  49.9586904  93.3123870  45.9743365
  47.4740012  87.8234997  47.7809988  47.7780012  87.1374997  47.1859988
  48.1950012  87.9414997  48.3989988  47.6130671  87.7456305  47.7831816
  56.1370012  79.4244997  48.6419988  56.1860012  80.0344997  49.3779988
  56.5620012  79.8854997  47.9189988  56.2011824  79.5703741  48.6450205
  50.6150012  82.2174997  48.1089988  50.7570012  81.2714997  48.1289988
  50.5080012  82.4244997  47.1799988  50.6199863  82.1159534  47.9862339
  43.7690012  80.3184997  45.3809988  43.8130012  81.1784997  44.9629988
  43.3120012  79.7664997  44.7469988  43.7132185  80.3615799  45.2380299
  51.4920012  80.4494997  43.7819988  52.1380012  80.1204997  44.4069988
  52.0020012  80.9674997  43.1589988  51.6494264  80.4744611  43.7833862
  40.3900012  82.7154997  46.1429988  41.0430012  82.1654997  46.5749988
  40.4140012  82.4414997  45.2259988  40.4826683  82.6031466  46.0782123
  45.5460012  84.2654997  45.3579988  46.1620012  83.7394997  45.8679988
  44.9600012  83.6254997  44.9549988  45.5510810  84.1069208  45.3733173
  42.5800012  79.2364997  49.4549988  42.3610012  79.7664997  48.6889988
  41.9120012  79.4634997  50.1019988  42.4597600  79.3396906  49.4376379
  49.9490012  88.7364997  42.9989988  49.6530012  88.4144997  42.1479988
  49.6240012  89.6364997  43.0399988  49.8646371  88.8140215  42.8881801
  45.1490012  86.9124997  49.7419988  44.4090012  87.5104997  49.8459988
  45.8630012  87.4664997  49.4269988  45.1442237  87.0692831  49.7136465
  53.2560012  79.7404997  45.7619988  53.0400012  78.9744997  46.2949988
  53.9110012  80.2124997  46.2749988  53.3150632  79.6995889  45.9042861
  42.1730012  81.1284997  47.4069988  42.7870012  81.7614997  47.7809988
  42.6850012  80.6564997  46.7509988  42.3262296  81.1512370  47.3694252
  43.5560012  88.8764997  50.5299988  43.5510012  89.7564997  50.1519988
  42.7030012  88.7934997  50.9549988  43.4399464  88.9856117  50.5357907
  39.6770012  88.5474997  41.3119988  39.4050012  88.7764997  40.4229988
  39.7230012  89.3854997  41.7719988  39.6460094  88.6921213  41.2525697
  53.3020012  90.1694997  48.0239988  52.3610012  90.2274997  48.1859988
  53.5790012  91.0754997  47.8869988  53.2104679  90.2999443  48.0276815
  46.6060012  76.5424997  46.9079988  46.4890012  75.5934997  46.8529988
  45.7510012  76.8744997  47.1809988  46.4743733  76.4575409  46.9373897
  51.5540012  91.9504997  44.6499988  51.9800012  91.2434997  44.1649988
  51.8710012  92.7514997  44.2329988  51.6551019  91.9620994  44.5273130
  52.7140012  89.8514997  43.1579988  52.4560012  89.1614997  42.5469988
  52.7850012  89.4084997  44.0039988  52.6882856  89.6972124  43.1886885
  48.8730012  85.3794997  41.4079988  48.1610012  85.9144997  41.0559988
  49.5640012  85.4354997  40.7479988  48.8690132  85.4602543  41.2706289
  48.9260012  83.8374997  38.4469988  49.6270012  83.8594997  39.0979988
  49.2290012  83.2094997  37.7909988  49.0627830  83.7556566  38.4473711
  52.2780012  85.5894997  42.3599988  51.5460012  85.8174997  42.9329988
  52.7260012  84.8754997  42.8149988  52.2383095  85.5242571  42.4999119
  52.1760012  83.7634997  51.4269988  52.2560012  84.5264997  51.9989988
  51.5740012  84.0424997  50.7369988  52.1055756  83.9057134  51.4120589
  43.9240012  86.2194997  44.2419988  43.5930012  85.8494997  43.4239988
  44.5120012  85.5494997  44.5889988  43.9581873  86.0781156  44.1768102
  45.2900012  89.6474997  46.9239988  45.1960012  89.0694997  46.1669988
  46.0200012  89.2764997  47.4199988  45.3757981  89.5182390  46.8874165
  44.2900012  84.9884997  47.8759988  44.8560012  85.1094997  47.1129988
  44.6090012  85.6254997  48.5149988  44.4105786  85.0911884  47.8580040
  50.5990012  90.4914997  48.6099988  50.3590012  91.1534997  49.2579988
  50.4010012  89.6574997  49.0349988  50.5393808  90.4693134  48.7561524
  45.1700012  89.3874997  52.5929988  44.8590012  90.1694997  53.0479988
  44.5200012  89.2344997  51.9069988  45.0395558  89.4739105  52.5625871
  51.1490012  84.7514997  40.0449988  51.7290012  84.9014997  40.7919988
  51.5630012  85.2224997  39.3219988  51.2842830  84.8356841  40.0494134
  42.0900012  85.5854997  51.8219988  42.1610012  86.2364997  52.5199988
  41.2000012  85.6884997  51.4869988  41.9793117  85.6885936  51.8722700
  48.8760012  91.4884997  43.4799988  49.3500012  91.7834997  44.2579988
  48.3130012  92.2264997  43.2469988  48.8647653  91.6286932  43.5550136
  43.4100012  91.4594997  53.3559988  43.4170012  91.3234997  52.4089988
  42.4940012  91.3414997  53.6079988  43.2871714  91.4249430  53.2604666
  54.8480012  76.5014997  39.8579988  53.9480012  76.6404997  40.1529988
  55.1000012  77.3324997  39.4559988  54.7588702  76.6329074  39.8440205
  42.9140012  85.2894997  41.8319988  42.6220012  86.0574997  41.3409988
  42.2400012  84.6294997  41.6689988  42.7829081  85.3054406  41.7427340
  56.0370012  90.8674997  38.2339988  56.1110012  91.8064997  38.4049988
  56.9430012  90.5624997  38.1779988  56.1695100  90.9546722  38.2498119
  39.0070012  87.6524997  50.6469988  38.5060012  87.6244997  49.8319988
  39.0120012  86.7464997  50.9559988  38.9391526  87.5262278  50.5772872
  38.7570012  90.4324997  47.5309988  39.7030012  90.2884997  47.5119988
  38.6450012  91.2164997  48.0679988  38.8712727  90.5188046  47.6010072
  47.9340012  90.6724997  52.0889988  48.0210012  91.4984997  52.5639988
  47.0700012  90.3424997  52.3379988  47.8291964  90.7409878  52.1876549
  48.3480012  94.4444997  41.8949988  48.2730012  94.3234997  40.9489988
  48.3810012  95.3944997  42.0139988  48.3421848  94.5562500  41.7814834
  42.0010012  93.2334997  43.6759988  42.1540012  92.8854997  44.5549988
  41.1510012  92.8774997  43.4209988  41.9068962  93.1376650  43.7618340
  51.4500012  93.5984997  38.8969988  51.8250012  92.8544997  38.4269988
  51.4540012  93.3284997  39.8159988  51.5018915  93.4601486  38.9567824
  51.1190012  93.5244997  41.6469988  50.1830012  93.6244997  41.8249988
  51.3990012  92.8154997  42.2249988  51.0288255  93.4422711  41.7495391
  54.1070012  82.5914997  53.6929988  53.7000012  83.0724997  52.9719988
  54.1480012  81.6864997  53.3849988  54.0568437  82.5349374  53.5526683
  41.2560012  88.9754997  51.6899988  41.4720012  88.6144997  52.5489988
  40.4010012  88.6014997  51.4799988  41.1699292  88.8754111  51.7793386
  43.8750012  77.4454997  47.6849988  43.0130012  77.3584997  47.2779988
  43.8520012  78.3014997  48.1129988  43.7540330  77.5492765  47.6871863
  48.5380012  77.1674997  51.0599988  48.9580012  76.7524997  51.8129988
  47.6050012  76.9894997  51.1769988  48.4693644  77.0865900  51.1789539
  51.8640012  80.9234997  51.9129988  51.3500012  80.7974997  52.7109988
  51.7090012  81.8354997  51.6689988  51.7726852  81.0296132  51.9892158
  52.6270012  85.7844997  37.6749988  52.6690012  85.5614997  36.7449988
  53.4760012  86.1834997  37.8649988  52.7475396  85.8079155  37.5733627
  48.1990012  79.6604997  38.3449988  47.9460012  79.6794997  39.2679988
  47.9430012  78.7884997  38.0439988  48.1297790  79.5452437  38.4306263
  43.9660012  82.4114997  48.7799988  43.3240012  82.3704997  49.4889988
  44.0030012  83.3374997  48.5429988  43.8831324  82.5311559  48.8449824
  43.9630012  82.6324997  43.6919988  43.0700012  82.2914997  43.6339988
  44.4130012  82.2554997  42.9369988  43.9017305  82.5348484  43.5819177
  49.4980012  83.0484997  42.5089988  49.0890012  83.8634997  42.2179988
  50.2190012  82.9084997  41.8949988  49.5394537  83.1412018  42.3861342
  48.6000012  83.2234997  53.9969988  48.0380012  82.5194997  54.3179988
  49.4270012  83.1034997  54.4649988  48.6347095  83.1107883  54.1042330
  50.5030012  82.4944997  45.3229988  50.3080012  83.0994997  44.6079988
  50.6840012  81.6604997  44.8889988  50.5007614  82.4646300  45.1664405
  41.7160012  82.7314997  50.6469988  41.6780012  83.1314997  51.5159988
  41.2250012  81.9144997  50.7379988  41.6444684  82.6758069  50.7781059
  45.0820012  80.1054997  37.4459988  44.6510012  79.6604997  38.1759988
  44.3640012  80.4774997  36.9339988  44.9259438  80.0948940  37.4766799
  38.3240012  79.8474997  44.4979988  38.9550012  79.8184997  45.2169988
  38.7730012  79.4224997  43.7679988  38.4710774  79.7860492  44.4976553
  39.5980012  80.5934997  39.9219988  40.0720012  81.1844997  39.3369988
  38.8810012  81.1244997  40.2689988  39.5659341  80.7460867  39.8888836
  49.7670012  84.1324997  49.9949988  50.0900012  83.5014997  49.3519988
  49.3270012  83.5974997  50.6549988  49.7516895  83.9738441  49.9962850
  46.5440012  80.0594997  44.7789988  45.6330012  80.1164997  45.0669988
  47.0500012  79.9994997  45.5889988  46.4875413  80.0591985  44.9280622
  41.3730012  81.6884997  43.6049988  40.4830012  81.7884997  43.2649988
  41.6690012  80.8464997  43.2589988  41.2912823  81.5883545  43.5117213
  45.0260012  81.6884997  41.2619988  45.9570012  81.8174997  41.4399988
  44.8110012  82.3584997  40.6119988  45.1244247  81.7966565  41.1985747
  50.9490012  79.2944997  48.0429988  50.2730012  79.4254997  48.7069988
  50.4640012  79.1394997  47.2329988  50.7907145  79.2914905  48.0244517
  43.7000012  82.8834997  38.8289988  43.1570012  82.5034997  38.1369988
  44.5330012  83.0774997  38.3999988  43.7384399  82.8578124  38.6764526
  54.2370012  94.9664997  54.3199988  54.4370012  95.3904997  53.4849988
  54.8920012  95.3094997  54.9269988  54.3530051  95.0709648  54.2877836
  41.8350012  87.4404997  53.9279988  42.5670012  87.6944997  54.4889988
  41.0550012  87.6444997  54.4429988  41.8298232  87.5029177  54.0745760
  47.8640012  82.8474997  46.6659988  48.4290012  82.3004997  46.1189988
  47.7170012  82.3254997  47.4539988  47.9212918  82.7022024  46.6978454
  42.8660012  78.9834997  43.0839988  42.5490012  78.0814997  43.0489988
  43.6480012  78.9854997  42.5309988  42.9282284  78.8601628  43.0044783
  46.4910012  81.2354997  49.0799988  45.6550012  81.6894997  49.1899988
  47.0150012  81.5114997  49.8319988  46.4474414  81.3349376  49.1967136
  47.0350012  87.4484997  40.7639988  46.2900012  86.9414997  40.4419988
  46.9010012  87.4974997  41.7109988  46.9148776  87.3856940  40.8478647
  50.9330012  80.2624997  38.9639988  49.9940012  80.3744997  38.8119988
  51.2300012  81.1194997  39.2699988  50.8447666  80.3936443  38.9845768
  48.5540012  87.6324997  52.0009988  48.2090012  87.2514997  52.8079988
  48.3540012  88.5664997  52.0729988  48.4798061  87.7065228  52.1210961
  51.6510012  82.1294997  40.6239988  52.5430012  81.9924997  40.9429988
  51.7080012  82.9204997  40.0879988  51.7806285  82.2176660  40.5951691
  42.1600012  86.7434997  46.5339988  42.9050012  86.7414997  45.9329988
  42.2380012  85.9204997  47.0159988  42.2725518  86.6319315  46.5168929
  49.1610012  88.9074997  39.7899988  48.8650012  89.7334997  40.1709988
  48.4580012  88.2874997  39.9859988  49.0254914  88.9368199  39.8686443
  39.1680012  85.2044997  51.8489988  39.3910012  84.7864997  52.6809988
  38.5660012  84.5914997  51.4259988  39.1171759  85.0644668  51.9057022
  46.1840012  84.7214997  54.0619988  45.8880012  84.5554997  53.1669988
  47.1160012  84.5014997  54.0509988  46.2694166  84.6690640  53.9380536
  50.8050012  90.0944997  51.9519988  49.9040012  90.2774997  51.6839988
  50.8390012  90.3534997  52.8729988  50.6863041  90.1545512  52.0398197
  56.5360012  82.3394997  40.3189988  55.9820012  81.9434997  39.6469988
  56.6360012  83.2494997  40.0409988  56.4737059  82.4083586  40.1894401
  54.8310012  91.1254997  40.7839988  54.4580012  90.2994997  41.0929988
  55.1090012  90.9424997  39.8869988  54.8175630  90.9877303  40.7049626
  51.9920012  85.9334997  47.8049988  51.0630012  85.7014997  47.7779988
  52.4430012  85.1564997  47.4749988  51.9259216  85.7967238  47.7566917
  44.5350012  90.2614997  43.9379988  45.0620012  91.0344997  43.7379988
  43.6550012  90.4864997  43.6369988  44.4881773  90.3978005  43.8699010
  40.2900012  85.1234997  38.5249988  40.9060012  85.7504997  38.9049988
  39.4280012  85.4394997  38.7969988  40.2577698  85.2519430  38.6137183
  45.9620012  87.9244997  43.5149988  45.7210012  88.8494997  43.5559988
  45.2210012  87.4654997  43.9109988  45.8288409  87.9891421  43.5741377
  46.4770012  92.0734997  49.8299988  46.8390012  92.9284997  49.5959988
  47.0080012  91.7814997  50.5699988  46.5984473  92.1511060  49.8980855
  44.6450012  92.9464997  43.0599988  43.6950012  93.0514997  43.1109988
  44.9970012  93.7664997  43.4049988  44.5624203  93.0718314  43.1136650
  50.0210012  88.1724997  49.5299988  49.5950012  87.9454997  50.3569988
  50.6010012  87.4344997  49.3479988  50.0411868  88.0415299  49.6185830
  52.2240012  89.1014997  38.6039988  52.5770012  88.7214997  39.4089988
  51.2750012  89.0084997  38.6909988  52.1440441  89.0369596  38.7258559
  52.6790012  92.7244997  51.9999988  52.0780012  92.1694997  51.5039988
  52.9610012  93.3914997  51.3739988  52.6348519  92.7386841  51.8474952
  56.7270012  93.5814997  38.8049988  57.4710012  94.1674997  38.6649988
  56.0330012  94.1494997  39.1389988  56.7350292  93.7385582  38.8309961
  40.8020012  79.9574997  51.4069988  39.9090012  80.2964997  51.3389988
  40.7030012  79.1024997  51.8249988  40.6664164  79.8882588  51.4542235
  53.0900012  87.7744997  40.8309988  52.8120012  87.0464997  41.3869988
  54.0170012  87.8934997  41.0359988  53.1773124  87.6908802  40.9348845
  40.4530012  91.7624997  49.8419988  40.6700012  90.8304997  49.8109988
  40.6990012  92.0364997  50.7249988  40.5159549  91.6720636  49.9571763
  46.3150012  90.2134997  37.0509988  46.5540012  89.4654997  36.5039988
  46.0460012  89.8254997  37.8839988  46.3113675  90.0586638  37.0886865
  45.2520012  89.7834997  39.5079988  45.3980012  89.2634997  40.2979988
  45.2490012  90.6904997  39.8139988  45.2715989  89.8348853  39.6576088
  41.7050012  87.0364997  40.0179988  41.0190012  87.3884997  40.5849988
  42.2270012  87.7994997  39.7709988  41.6816852  87.1878578  40.0622118
  49.5360012  79.6984997  50.2969988  50.2350012  79.7724997  50.9469988
  49.1550012  78.8344997  50.4509988  49.5801767  79.5917624  50.4068322
  50.3210012  79.3504997  41.3939988  50.5410012  79.8224997  40.5909988
  50.8790012  79.7454997  42.0639988  50.4264968  79.4684285  41.3747331
  47.9890012  91.4814997  40.2569988  47.1730012  91.9784997  40.3089988
  48.5190012  91.9564997  39.6169988  47.9489161  91.6137722  40.1775956
  47.5210012  81.0784997  42.2289988  48.3330012  81.5834997  42.2749988
  47.2760012  80.9334997  43.1429988  47.5990520  81.1280375  42.3588517
  48.0560012  82.0644997  51.4139988  48.1750012  82.6384997  52.1709988
  48.7120012  81.3764997  51.5279988  48.1609757  82.0501079  51.5330825
  48.4040012  78.1594997  43.1669988  48.0580012  78.7774997  43.8119988
  49.0630012  78.6604997  42.6859988  48.4457826  78.3115802  43.1900971
  45.3280012  92.5254997  40.2389988  45.4880012  93.3244997  39.7379988
  45.1300012  92.8314997  41.1239988  45.3231649  92.6764469  40.2899815
  44.0620012  79.2224997  39.8539988  43.9790012  80.1114997  40.2009988
  44.9520012  78.9574997  40.0859988  44.1709469  79.3081430  39.9327626
  52.8630012  83.7224997  46.3439988  52.0650012  83.3074997  46.0159988
  53.3080012  83.0314997  46.8349988  52.8139885  83.5723543  46.3654889
  42.3210012  89.6504997  38.9149988  42.9130012  90.3494997  39.1909988
  42.7800012  89.2174997  38.1949988  42.4641142  89.6877049  38.8554830
  40.6370012  82.3144997  38.0309988  40.5920012  83.2534997  38.2089988
  39.7490012  82.0784997  37.7609988  40.5108574  82.4111892  38.0188912
  53.9490012  92.9784997  47.9669988  53.7940012  93.6564997  47.3099988
  54.8820012  93.0504997  48.1699988  54.0538500  93.0810170  47.9045119
  41.4450012  77.0964997  46.7039988  41.2160012  77.1554997  45.7759988
  41.0020012  76.3044997  47.0099988  41.3538530  76.9975753  46.6184786
  40.3750012  91.0364997  42.8639988  39.5430012  91.5094997  42.8919988
  40.9210012  91.5464997  42.2659988  40.3349739  91.1701871  42.7869716
  39.6630012  93.6494997  54.1939988  40.2040012  93.4324997  54.9539988
  39.1820012  92.8434997  54.0049988  39.6719345  93.5109514  54.2723076
  44.2610012  92.5684997  55.8149988  45.0280012  92.1094997  56.1559988
  44.2390012  92.3424997  54.8849988  44.3631434  92.4750409  55.7360043
  48.3530012  92.0764997  37.1899988  47.7090012  91.4454997  37.5109988
  49.1150012  91.5454997  36.9579988  48.3678077  91.9182920  37.2026011
  50.8380012  90.9484997  54.5439988  50.4870012  90.0924997  54.7869988
  51.5640012  91.0914997  55.1509988  50.8880769  90.8505636  54.6593619
  52.9570012  91.8934997  37.4239988  53.2400012  91.0994997  37.8759988
  53.6970012  92.1264997  36.8629988  53.0957486  91.8162803  37.4100698
  39.5700012  87.4594997  55.1489988  39.7140012  86.5574997  54.8619988
  38.7980012  87.7454997  54.6609988  39.4853322  87.3748261  55.0437881
  43.9120012  87.8034997  37.2809988  43.9760012  87.0094997  37.8119988
  44.5650012  87.6844997  36.5909988  44.0090241  87.6787148  37.2604317
  46.2260012  87.4294997  54.5809988  45.8970012  87.7004997  53.7239988
  46.3780012  86.4884997  54.4939988  46.2014809  87.3393862  54.4518244
  49.2640012  88.8504997  37.0169988  48.9950012  89.0304997  37.9179988
  49.0580012  87.9244997  36.8859988  49.1993825  88.7500152  37.1225214
  51.9600012  87.3454997  51.9649988  52.7060012  87.9334997  51.8449988
  51.2030012  87.9274997  52.0279988  51.9597554  87.5047011  51.9570907
  40.4030012  84.6594997  54.5689988  40.8110012  83.8024997  54.4479988
  40.1430012  84.6744997  55.4899988  40.4237568  84.5440807  54.6769588
  45.0610012  85.7754997  39.5869988  44.6010012  85.2914997  40.2729988
  45.3160012  85.1074997  38.9509988  45.0324902  85.6188731  39.5949334
  44.3500012  83.6684997  51.9429988  43.7320012  84.3434997  52.2229988
  44.6940012  83.9894997  51.1099988  44.3119615  83.8042721  51.8686581
  46.1320012  84.0184997  37.8489988  45.9520012  83.8644997  36.9219988
  47.0820012  84.1264997  37.8939988  46.2357776  84.0120175  37.7281843
  49.3700012  86.1404997  55.2199988  50.3230012  86.2234997  55.1929988
  49.2090012  85.4284997  55.8399988  49.4786426  86.0556746  55.3000579
  55.5220012  86.3734997  37.2949988  55.2480012  85.9484997  36.4819988
  55.5610012  87.3044997  37.0779988  55.4897699  86.4412484  37.1543610
  44.6890012  81.0234997  53.0249988  44.8390012  80.2944997  52.4229988
  44.6920012  81.8004997  52.4659988  44.7099302  81.0287851  52.8670692
  45.1020012  79.3934997  50.5179988  45.6380012  79.8444997  49.8659988
  44.2500012  79.2854997  50.0949988  45.0602178  79.4406390  50.3715756
  46.6840012  84.8324997  50.7569988  47.4340012  84.6764997  50.1839988
  46.3450012  85.6844997  50.4819988  46.7408921  84.9262968  50.6413561
  51.0990012  82.6474997  55.7859988  51.2920012  81.7164997  55.6739988
  51.9570012  83.0724997  55.7759988  51.2413020  82.5776389  55.7693361
  52.4160012  85.4364997  53.8629988  52.1350012  86.1454997  53.2859988
  53.3590012  85.3634997  53.7119988  52.5049027  85.5237646  53.7635551
  43.1680012  82.2214997  54.9369988  42.4010012  81.6894997  54.7269988
  43.8470012  81.9114997  54.3369988  43.1547022  82.1067506  54.8271648
  45.9080012  76.8494997  50.9489988  45.8090012  77.7964997  50.8439988
  45.1650012  76.4774997  50.4739988  45.7940563  76.9285902  50.8704560
  47.1720012  81.1714997  54.5129988  46.9360012  80.9514997  55.4149988
  46.3880012  80.9644997  54.0029988  47.0338628  81.1134760  54.5673932
  49.8870012  80.2984997  53.5889988  48.9400012  80.3304997  53.7209988
  50.2000012  79.6734997  54.2419988  49.7995475  80.2183207  53.6954455
  51.5210012  78.9324997  55.5939988  51.4250012  77.9804997  55.5879988
  51.2000012  79.2014997  56.4539988  51.4644070  78.8384035  55.7095441
  41.3480012  80.1424997  54.6409988  41.5600012  79.4354997  54.0309988
  41.2370012  79.7044997  55.4849988  41.3619721  79.9867084  54.6716843
  46.1290012  76.1434997  53.6209988  46.8410012  75.5034997  53.6069988
  46.0280012  76.4104997  52.7069988  46.2127939  76.0919938  53.4955650
  46.4830012  77.8264997  55.6739988  46.3510012  77.3504997  54.8539988
  45.8840012  78.5704997  55.6189988  46.3839071  77.8619618  55.5542886
  46.0290012  94.7094997  38.8509988  46.9620012  94.8674997  38.9939988
  45.7650012  95.3844997  38.2259988  46.1209510  94.8223611  38.7860741
  39.5980012  89.3454997  38.3329988  40.5120012  89.4244997  38.6069988
  39.6050012  88.6584997  37.6669988  39.7241131  89.2633961  38.2804393
  38.2470012  94.7384997  43.4109988  37.6000012  94.2764997  42.8779988
  38.6010012  94.0664997  43.9929988  38.2063849  94.5844723  43.4167959
  39.1170012  92.8194997  45.2149988  38.7820012  91.9394997  45.3869988
  39.3390012  93.1644997  46.0799988  39.1011783  92.7457500  45.3554208
  56.6650012  93.6284997  48.1959988  56.6440012  93.8134997  49.1349988
  57.3560012  94.1974997  47.8549988  56.7554618  93.7306606  48.2783864
  54.6790012  88.9854997  55.7559988  53.8130012  88.8804997  56.1499988
  55.0560012  89.7444997  56.2019988  54.6113308  89.0736900  55.8702393
  55.9800012  87.2424997  41.2699988  56.8300012  87.6634997  41.3969988
  55.9860012  86.5024997  41.8769988  56.0971372  87.2000803  41.3694344
  56.3750012  85.2954997  43.0939988  55.6480012  84.8164997  43.4909988
  56.9560012  85.5014997  43.8259988  56.3539375  85.2577090  43.2474129
  56.6430012  85.1964997  39.4849988  56.1210012  85.5534997  38.7659988
  56.6100012  85.8714997  40.1629988  56.5671634  85.3365413  39.4783145
  54.9920012  82.4364997  38.0359988  55.0880012  83.1034997  37.3549988
  54.8520012  81.6204997  37.5539988  54.9862135  82.4174500  37.8778491
  54.1610012  83.8164997  43.6569988  54.0110012  82.8714997  43.6359988
  53.8080012  84.0974997  44.4999988  54.0926625  83.7250441  43.7682346
  39.1970012  85.8944997  47.6669988  39.3810012  85.8124997  46.7309988
  40.0460012  85.7704997  48.0909988  39.3370139  85.8665003  47.5961455
  54.2390012  79.8444997  37.1529988  54.8500012  79.4734997  37.7899988
  53.4030012  79.4234997  37.3489988  54.2095032  79.7367554  37.2667035
  53.8720012  81.3994997  42.1189988  54.1520012  80.4924997  42.2429988
  54.6310012  81.8334997  41.7299988  54.0129277  81.3340942  42.0833682
  54.4840012  81.9804997  47.5549988  55.4170012  82.1924997  47.5209988
  54.2490012  82.0824997  48.4769988  54.5798036  82.0232769  47.6749976
  54.5130012  82.7174997  50.3309988  53.6700012  82.9854997  50.6969988
  54.9550012  83.5394997  50.1199988  54.4574158  82.8653291  50.3525491
  38.7940012  81.1654997  53.8079988  39.7140012  81.0434997  54.0439988
  38.3450012  80.4154997  54.1969988  38.8591580  81.0473727  53.8929006
  54.4850012  78.6624997  42.1669988  54.6680012  78.2134997  42.9929988
  53.8860012  78.0774997  41.7039988  54.4290202  78.5219975  42.2173275
  40.0150012  79.4774997  46.6989988  40.4610012  78.6854997  47.0009988
  40.4820012  80.1934997  47.1299988  40.1390172  79.4660624  46.7984820
  38.3190012  82.4764997  47.7679988  38.8110012  82.2554997  46.9769988
  38.6820012  83.3174997  48.0489988  38.4353126  82.5598357  47.6977531
  56.3520012  78.7294997  38.6949988  56.7640012  78.0084997  38.2199988
  57.0340012  79.3994997  38.7539988  56.5005885  78.7212368  38.6378915
  38.6330012  78.7344997  41.8219988  37.7080012  78.9434997  41.6929988
  39.0870012  79.2184997  41.1329988  38.5677368  78.8285993  41.7111226
  53.4040012  93.7184997  43.7679988  54.0560012  93.3714997  43.1599988
  53.9140012  94.2074997  44.4139988  53.5622637  93.7370597  43.7720236
  38.5970012  77.4724997  50.1669988  37.9320012  77.2264997  50.8099988
  38.1540012  78.0944997  49.5889988  38.4460956  77.5228632  50.1769352
  40.7890012  90.6474997  54.3109988  39.9680012  90.8224997  53.8509988
  40.5360012  90.5744997  55.2319988  40.6426164  90.6615622  54.3724923
  43.7430012  91.6224997  50.5699988  43.3180012  92.4314997  50.2869988
  44.6470012  91.7074997  50.2679988  43.8070271  91.7448469  50.4903776
  48.0540012  93.0214997  53.5289988  48.2390012  92.6874997  54.4069988
  48.9000012  93.3304997  53.2069988  48.1937539  93.0176047  53.6055605
  50.3990012  94.3074997  52.7729988  51.0760012  93.6744997  52.5329988
  50.7210012  94.7084997  53.5799988  50.5351637  94.2751154  52.8492793
  41.1450012  94.8784997  50.6169988  40.4240012  95.3184997  50.1659988
  40.7790012  94.6274997  51.4659988  40.9969804  94.9047698  50.6699840
  43.6120012  94.4784997  49.6469988  42.7470012  94.5504997  50.0509988
  43.5570012  95.0254997  48.8629988  43.4862085  94.5622685  49.5963362
  48.3220012  94.3664997  48.8219988  47.8660012  94.8954997  48.1679988
  48.4850012  94.9694997  49.5479988  48.2815585  94.5204468  48.8305062
  50.6500012  93.2444997  49.7669988  49.7450012  93.4094997  49.5019988
  51.0790012  94.0974997  49.7019988  50.5840799  93.3824483  49.7219182
  53.2540012  94.8144997  50.0619988  53.0720012  95.7304997  49.8519988
  53.4310012  94.4044997  49.2159988  53.2530210  94.8844822  49.9187885
  40.5590012  93.5014997  47.5269988  40.5410012  93.0764997  48.3849988
  41.3640012  93.1834997  47.1189988  40.6653875  93.4003812  47.5891655
  42.7010012  92.2114997  46.1819988  42.4820012  91.2954997  46.3519988
  43.5250012  92.3514997  46.6479988  42.7824420  92.1050520  46.2682774
  45.2380012  92.6814997  47.0309988  45.4510012  91.7934997  46.7439988
  45.3020012  92.6474997  47.9849988  45.2758232  92.5553102  47.1207397
  48.7460012  78.3454997  46.1749988  48.0720012  77.7164997  46.4309988
  49.3100012  77.8614997  45.5719988  48.7299230  78.1938744  46.1285340
  53.8890012  76.4534997  46.2879988  54.4930012  77.0004997  45.7859988
  53.0190012  76.7724997  46.0479988  53.8541241  76.5715806  46.1867654
  41.0730012  76.9794997  43.9969988  40.2960012  76.7454997  43.4899988
  41.6030012  76.1824997  44.0059988  41.0382330  76.8396988  43.9287742
  39.9090012  76.7774997  39.8009988  40.3480012  77.3884997  39.2089988
  39.2760012  77.3154997  40.2749988  39.8834514  76.9339257  39.7840930
  45.6520012  76.9064997  43.8109988  46.5270012  77.2944997  43.7809988
  45.5160012  76.6914997  44.7329988  45.7533695  76.9305184  43.9316440
  51.2090012  76.9364997  45.4599988  51.2850012  77.0314997  44.5099988
  50.9340012  76.0284997  45.5889988  51.1822321  76.8267867  45.3475079
  52.5620012  76.9624997  41.1519988  51.8600012  77.5774997  40.9429988
  52.1180012  76.1244997  41.2829988  52.4056330  76.9335783  41.1410328
  39.8100012  92.7254997  40.6989988  39.1250012  92.6874997  40.0309988
  39.8140012  93.6384997  40.9869988  39.7168193  92.8437016  40.6465284
  41.7700012  78.6934997  38.2429988  42.2620012  78.0634997  37.7159988
  42.3940012  78.9894997  38.9069988  41.9215446  78.6473199  38.2605980
  46.7960012  78.9864997  40.6999988  46.9740012  78.3404997  41.3829988
  46.7430012  79.8204997  41.1679988  46.8131829  79.0107985  40.8565940
  48.6750012  93.9354997  39.0959988  49.5410012  94.3014997  38.9179988
  48.4280012  93.4954997  38.2819988  48.7602392  93.9261756  38.9616289
  55.3840012  93.4984997  41.7749988  55.1890012  92.7504997  41.2099988
  55.3450012  94.2564997  41.1919988  55.3520380  93.4986099  41.6188384
  41.0310012  77.4934997  53.5149988  40.6650012  76.7284997  53.9579988
  41.9440012  77.5224997  53.8019988  41.1042790  77.3927224  53.6144070
  43.0040012  76.8444997  55.0509988  43.9020012  76.5704997  54.8659988
  42.6170012  76.1014997  55.5149988  43.0746612  76.7065914  55.0883643
  41.6280012  93.6454997  37.7239988  41.3610012  93.9324997  38.5969988
  42.4000012  93.0994997  37.8759988  41.6957488  93.6110294  37.8641050
  54.6010012  92.2494997  53.9249988  53.8190012  92.0634997  53.4059988
  54.5290012  93.1784997  54.1429988  54.4841777  92.3496492  53.8834048
  57.8420012  83.1154997  42.8959988  57.3950012  83.9614997  42.8769988
  57.2810012  82.5354997  42.3799988  57.7049900  83.1529916  42.8236801
  68.7580012  93.4344997  45.8889988  69.3780012  92.7574997  45.6149988
  68.5500012  93.2164997  46.7969988  68.8146904  93.3123870  45.9743365
  69.4710012  82.2174997  48.1089988  69.6130012  81.2714997  48.1289988
  69.3640012  82.4244997  47.1799988  69.4759864  82.1159534  47.9862339
  70.3480012  80.4494997  43.7819988  70.9940012  80.1204997  44.4069988
  70.8580012  80.9674997  43.1589988  70.5054264  80.4744611  43.7833862
  64.4020012  84.2654997  45.3579988  65.0180012  83.7394997  45.8679988
  63.8160012  83.6254997  44.9549988  64.4070810  84.1069208  45.3733173
  68.8050012  88.7364997  42.9989988  68.5090012  88.4144997  42.1479988
  68.4800012  89.6364997  43.0399988  68.7206371  88.8140215  42.8881801
  64.0050012  86.9124997  49.7419988  63.2650012  87.5104997  49.8459988
  64.7190012  87.4664997  49.4269988  64.0002237  87.0692831  49.7136465
  58.5330012  88.5474997  41.3119988  58.2610012  88.7764997  40.4229988
  58.5790012  89.3854997  41.7719988  58.5020094  88.6921213  41.2525697
  70.4100012  91.9504997  44.6499988  70.8360012  91.2434997  44.1649988
  70.7270012  92.7514997  44.2329988  70.5111019  91.9620994  44.5273130
  71.5700012  89.8514997  43.1579988  71.3120012  89.1614997  42.5469988
  71.6410012  89.4084997  44.0039988  71.5442856  89.6972124  43.1886885
  73.2560012  88.4174997  51.6359988  73.3960012  87.8264997  50.8959988
  73.4230012  89.2904997  51.2789988  73.2976778  88.4546426  51.4866965
  67.7290012  85.3794997  41.4079988  67.0170012  85.9144997  41.0559988
  68.4200012  85.4354997  40.7479988  67.7250132  85.4602543  41.2706289
  67.7820012  83.8374997  38.4469988  68.4830012  83.8594997  39.0979988
  68.0850012  83.2094997  37.7909988  67.9187830  83.7556566  38.4473711
  71.0320012  83.7634997  51.4269988  71.1120012  84.5264997  51.9989988
  70.4300012  84.0424997  50.7369988  70.9615756  83.9057134  51.4120589
  62.7800012  86.2194997  44.2419988  62.4490012  85.8494997  43.4239988
  63.3680012  85.5494997  44.5889988  62.8141873  86.0781156  44.1768102
  64.1460012  89.6474997  46.9239988  64.0520012  89.0694997  46.1669988
  64.8760012  89.2764997  47.4199988  64.2317981  89.5182390  46.8874165
  63.1460012  84.9884997  47.8759988  63.7120012  85.1094997  47.1129988
  63.4650012  85.6254997  48.5149988  63.2665786  85.0911884  47.8580040
  64.0260012  89.3874997  52.5929988  63.7150012  90.1694997  53.0479988
  63.3760012  89.2344997  51.9069988  63.8955558  89.4739105  52.5625871
  67.7320012  91.4884997  43.4799988  68.2060012  91.7834997  44.2579988
  67.1690012  92.2264997  43.2469988  67.7207653  91.6286932  43.5550136
  62.2660012  91.4594997  53.3559988  62.2730012  91.3234997  52.4089988
  61.3500012  91.3414997  53.6079988  62.1431714  91.4249430  53.2604666
  74.8930012  90.8674997  38.2339988  74.9670012  91.8064997  38.4049988
  75.7990012  90.5624997  38.1779988  75.0255100  90.9546722  38.2498119
  75.8110012  91.0984997  53.2129988  75.7620012  90.1434997  53.1759988
  74.9840012  91.3664997  53.6139988  75.6924940  91.0038998  53.2621375
  66.7900012  90.6724997  52.0889988  66.8770012  91.4984997  52.5639988
  65.9260012  90.3424997  52.3379988  66.6851964  90.7409878  52.1876549
  67.2040012  94.4444997  41.8949988  67.1290012  94.3234997  40.9489988
  67.2370012  95.3944997  42.0139988  67.1981848  94.5562500  41.7814834
  60.8570012  93.2334997  43.6759988  61.0100012  92.8854997  44.5549988
  60.0070012  92.8774997  43.4209988  60.7628962  93.1376650  43.7618340
  70.3060012  93.5984997  38.8969988  70.6810012  92.8544997  38.4269988
  70.3100012  93.3284997  39.8159988  70.3578915  93.4601486  38.9567824
  69.9750012  93.5244997  41.6469988  69.0390012  93.6244997  41.8249988
  70.2550012  92.8154997  42.2249988  69.8848255  93.4422711  41.7495391
  72.9630012  82.5914997  53.6929988  72.5560012  83.0724997  52.9719988
  73.0040012  81.6864997  53.3849988  72.9128437  82.5349374  53.5526683
  70.7200012  80.9234997  51.9129988  70.2060012  80.7974997  52.7109988
  70.5650012  81.8354997  51.6689988  70.6286852  81.0296132  51.9892158
  71.4830012  85.7844997  37.6749988  71.5250012  85.5614997  36.7449988
  72.3320012  86.1834997  37.8649988  71.6035396  85.8079155  37.5733627
  67.0550012  79.6604997  38.3449988  66.8020012  79.6794997  39.2679988
  66.7990012  78.7884997  38.0439988  66.9857790  79.5452437  38.4306263
  68.3540012  83.0484997  42.5089988  67.9450012  83.8634997  42.2179988
  69.0750012  82.9084997  41.8949988  68.3954537  83.1412018  42.3861342
  69.3590012  82.4944997  45.3229988  69.1640012  83.0994997  44.6079988
  69.5400012  81.6604997  44.8889988  69.3567614  82.4646300  45.1664405
  63.9380012  80.1054997  37.4459988  63.5070012  79.6604997  38.1759988
  63.2200012  80.4774997  36.9339988  63.7819438  80.0948940  37.4766799
  58.4540012  80.5934997  39.9219988  58.9280012  81.1844997  39.3369988
  57.7370012  81.1244997  40.2689988  58.4219341  80.7460867  39.8888836
  68.6230012  84.1324997  49.9949988  68.9460012  83.5014997  49.3519988
  68.1830012  83.5974997  50.6549988  68.6076895  83.9738441  49.9962850
  65.4000012  80.0594997  44.7789988  64.4890012  80.1164997  45.0669988
  65.9060012  79.9994997  45.5889988  65.3435413  80.0591985  44.9280622
  63.8820012  81.6884997  41.2619988  64.8130012  81.8174997  41.4399988
  63.6670012  82.3584997  40.6119988  63.9804247  81.7966565  41.1985747
  62.5560012  82.8834997  38.8289988  62.0130012  82.5034997  38.1369988
  63.3890012  83.0774997  38.3999988  62.5944399  82.8578124  38.6764526
  73.0930012  94.9664997  54.3199988  73.2930012  95.3904997  53.4849988
  73.7480012  95.3094997  54.9269988  73.2090051  95.0709648  54.2877836
  66.7200012  82.8474997  46.6659988  67.2850012  82.3004997  46.1189988
  66.5730012  82.3254997  47.4539988  66.7772918  82.7022024  46.6978454
  65.8910012  87.4484997  40.7639988  65.1460012  86.9414997  40.4419988
  65.7570012  87.4974997  41.7109988  65.7708776  87.3856940  40.8478647
  69.7890012  80.2624997  38.9639988  68.8500012  80.3744997  38.8119988
  70.0860012  81.1194997  39.2699988  69.7007666  80.3936443  38.9845768
  67.4100012  87.6324997  52.0009988  67.0650012  87.2514997  52.8079988
  67.2100012  88.5664997  52.0729988  67.3358061  87.7065228  52.1210961
  70.5070012  82.1294997  40.6239988  71.3990012  81.9924997  40.9429988
  70.5640012  82.9204997  40.0879988  70.6366285  82.2176660  40.5951691
  68.0170012  88.9074997  39.7899988  67.7210012  89.7334997  40.1709988
  67.3140012  88.2874997  39.9859988  67.8814914  88.9368199  39.8686443
  65.0400012  84.7214997  54.0619988  64.7440012  84.5554997  53.1669988
  65.9720012  84.5014997  54.0509988  65.1254166  84.6690640  53.9380536
  69.6610012  90.0944997  51.9519988  68.7600012  90.2774997  51.6839988
  69.6950012  90.3534997  52.8729988  69.5423041  90.1545512  52.0398197
  75.3550012  88.1394997  53.1559988  74.5040012  88.3774997  52.7889988
  75.9460012  88.1224997  52.4029988  75.3182487  88.1698258  53.0038893
  73.6870012  91.1254997  40.7839988  73.3140012  90.2994997  41.0929988
  73.9650012  90.9424997  39.8869988  73.6735630  90.9877303  40.7049626
  63.3910012  90.2614997  43.9379988  63.9180012  91.0344997  43.7379988
  62.5110012  90.4864997  43.6369988  63.3441773  90.3978005  43.8699010
  59.1460012  85.1234997  38.5249988  59.7620012  85.7504997  38.9049988
  58.2840012  85.4394997  38.7969988  59.1137698  85.2519430  38.6137183
  64.8180012  87.9244997  43.5149988  64.5770012  88.8494997  43.5559988
  64.0770012  87.4654997  43.9109988  64.6848409  87.9891421  43.5741377
  65.3330012  92.0734997  49.8299988  65.6950012  92.9284997  49.5959988
  65.8640012  91.7814997  50.5699988  65.4544473  92.1511060  49.8980855
  63.5010012  92.9464997  43.0599988  62.5510012  93.0514997  43.1109988
  63.8530012  93.7664997  43.4049988  63.4184203  93.0718314  43.1136650
  71.0800012  89.1014997  38.6039988  71.4330012  88.7214997  39.4089988
  70.1310012  89.0084997  38.6909988  71.0000441  89.0369596  38.7258559
  71.5350012  92.7244997  51.9999988  70.9340012  92.1694997  51.5039988
  71.8170012  93.3914997  51.3739988  71.4908519  92.7386841  51.8474952
  75.5830012  93.5814997  38.8049988  76.3270012  94.1674997  38.6649988
  74.8890012  94.1494997  39.1389988  75.5910292  93.7385582  38.8309961
  71.9460012  87.7744997  40.8309988  71.6680012  87.0464997  41.3869988
  72.8730012  87.8934997  41.0359988  72.0333124  87.6908802  40.9348845
  65.1710012  90.2134997  37.0509988  65.4100012  89.4654997  36.5039988
  64.9020012  89.8254997  37.8839988  65.1673675  90.0586638  37.0886865
  64.1080012  89.7834997  39.5079988  64.2540012  89.2634997  40.2979988
  64.1050012  90.6904997  39.8139988  64.1275989  89.8348853  39.6576088
  60.5610012  87.0364997  40.0179988  59.8750012  87.3884997  40.5849988
  61.0830012  87.7994997  39.7709988  60.5376852  87.1878578  40.0622118
  69.1770012  79.3504997  41.3939988  69.3970012  79.8224997  40.5909988
  69.7350012  79.7454997  42.0639988  69.2824968  79.4684285  41.3747331
  66.8450012  91.4814997  40.2569988  66.0290012  91.9784997  40.3089988
  67.3750012  91.9564997  39.6169988  66.8049161  91.6137722  40.1775956
  66.3770012  81.0784997  42.2289988  67.1890012  81.5834997  42.2749988
  66.1320012  80.9334997  43.1429988  66.4550520  81.1280375  42.3588517
  64.1840012  92.5254997  40.2389988  64.3440012  93.3244997  39.7379988
  63.9860012  92.8314997  41.1239988  64.1791649  92.6764469  40.2899815
  62.9180012  79.2224997  39.8539988  62.8350012  80.1114997  40.2009988
  63.8080012  78.9574997  40.0859988  63.0269469  79.3081430  39.9327626
  73.1170012  79.9714997  52.2489988  72.2000012  80.2344997  52.1609988
  73.4520012  79.9684997  51.3519988  73.0369900  80.0070224  52.1157919
  61.1770012  89.6504997  38.9149988  61.7690012  90.3494997  39.1909988
  61.6360012  89.2174997  38.1949988  61.3201142  89.6877049  38.8554830
  59.4930012  82.3144997  38.0309988  59.4480012  83.2534997  38.2089988
  58.6050012  82.0784997  37.7609988  59.3668574  82.4111892  38.0188912
  72.8050012  92.9784997  47.9669988  72.6500012  93.6564997  47.3099988
  73.7380012  93.0504997  48.1699988  72.9098500  93.0810170  47.9045119
  59.2310012  91.0364997  42.8639988  58.3990012  91.5094997  42.8919988
  59.7770012  91.5464997  42.2659988  59.1909739  91.1701871  42.7869716
  58.5190012  93.6494997  54.1939988  59.0600012  93.4324997  54.9539988
  58.0380012  92.8434997  54.0049988  58.5279345  93.5109514  54.2723076
  63.1170012  92.5684997  55.8149988  63.8840012  92.1094997  56.1559988
  63.0950012  92.3424997  54.8849988  63.2191434  92.4750409  55.7360043
  67.2090012  92.0764997  37.1899988  66.5650012  91.4454997  37.5109988
  67.9710012  91.5454997  36.9579988  67.2238077  91.9182920  37.2026011
  71.8130012  91.8934997  37.4239988  72.0960012  91.0994997  37.8759988
  72.5530012  92.1264997  36.8629988  71.9517486  91.8162803  37.4100698
  62.7680012  87.8034997  37.2809988  62.8320012  87.0094997  37.8119988
  63.4210012  87.6844997  36.5909988  62.8650241  87.6787148  37.2604317
  65.0820012  87.4294997  54.5809988  64.7530012  87.7004997  53.7239988
  65.2340012  86.4884997  54.4939988  65.0574809  87.3393862  54.4518244
  68.1200012  88.8504997  37.0169988  67.8510012  89.0304997  37.9179988
  67.9140012  87.9244997  36.8859988  68.0553825  88.7500152  37.1225214
  70.8160012  87.3454997  51.9649988  71.5620012  87.9334997  51.8449988
  70.0590012  87.9274997  52.0279988  70.8157554  87.5047011  51.9570907
  63.9170012  85.7754997  39.5869988  63.4570012  85.2914997  40.2729988
  64.1720012  85.1074997  38.9509988  63.8884902  85.6188731  39.5949334
  64.9880012  84.0184997  37.8489988  64.8080012  83.8644997  36.9219988
  65.9380012  84.1264997  37.8939988  65.0917776  84.0120175  37.7281843
  74.3780012  86.3734997  37.2949988  74.1040012  85.9484997  36.4819988
  74.4170012  87.3044997  37.0779988  74.3457699  86.4412484  37.1543610
  65.5400012  84.8324997  50.7569988  66.2900012  84.6764997  50.1839988
  65.2010012  85.6844997  50.4819988  65.5968921  84.9262968  50.6413561
  68.7430012  80.2984997  53.5889988  67.7960012  80.3304997  53.7209988
  69.0560012  79.6734997  54.2419988  68.6555475  80.2183207  53.6954455
  70.3770012  78.9324997  55.5939988  70.2810012  77.9804997  55.5879988
  70.0560012  79.2014997  56.4539988  70.3204070  78.8384035  55.7095441
  64.8850012  94.7094997  38.8509988  65.8180012  94.8674997  38.9939988
  64.6210012  95.3844997  38.2259988  64.9769510  94.8223611  38.7860741
  58.4540012  89.3454997  38.3329988  59.3680012  89.4244997  38.6069988
  58.4610012  88.6584997  37.6669988  58.5801131  89.2633961  38.2804393
  57.1030012  94.7384997  43.4109988  56.4560012  94.2764997  42.8779988
  57.4570012  94.0664997  43.9929988  57.0623849  94.5844723  43.4167959
  57.9730012  92.8194997  45.2149988  57.6380012  91.9394997  45.3869988
  58.1950012  93.1644997  46.0799988  57.9571783  92.7457500  45.3554208
  75.5210012  93.6284997  48.1959988  75.5000012  93.8134997  49.1349988
  76.2120012  94.1974997  47.8549988  75.6114618  93.7306606  48.2783864
  75.0850012  93.1964997  51.1179988  74.5970012  92.4604997  50.7469988
  75.6340012  92.8024997  51.7959988  75.0924872  93.0426249  51.1589160
  74.8360012  87.2424997  41.2699988  75.6860012  87.6634997  41.3969988
  74.8420012  86.5024997  41.8769988  74.9531372  87.2000803  41.3694344
  73.4760012  90.9584997  50.3479988  72.8290012  91.2834997  50.9739988
  72.9590012  90.5184997  49.6739988  73.3174029  90.9435004  50.3425827
  75.4990012  85.1964997  39.4849988  74.9770012  85.5534997  38.7659988
  75.4660012  85.8714997  40.1629988  75.4231634  85.3365413  39.4783145
  75.6520012  76.6974997  55.6839988  76.0020012  76.0434997  55.0789988
  75.7990012  77.5344997  55.2449988  75.7198419  76.7211591  55.5417118
  75.1720012  78.8064997  54.0339988  74.2540012  79.0774997  53.9979988
  75.2950012  78.2714997  53.2489988  75.0631066  78.7712892  53.9230487
  57.4890012  78.7344997  41.8219988  56.5640012  78.9434997  41.6929988
  57.9430012  79.2184997  41.1329988  57.4237368  78.8285993  41.7111226
  72.2600012  93.7184997  43.7679988  72.9120012  93.3714997  43.1599988
  72.7700012  94.2074997  44.4139988  72.4182637  93.7370597  43.7720236
  62.5990012  91.6224997  50.5699988  62.1740012  92.4314997  50.2869988
  63.5030012  91.7074997  50.2679988  62.6630271  91.7448469  50.4903776
  66.9100012  93.0214997  53.5289988  67.0950012  92.6874997  54.4069988
  67.7560012  93.3304997  53.2069988  67.0497539  93.0176047  53.6055605
  69.2550012  94.3074997  52.7729988  69.9320012  93.6744997  52.5329988
  69.5770012  94.7084997  53.5799988  69.3911637  94.2751154  52.8492793
  60.0010012  94.8784997  50.6169988  59.2800012  95.3184997  50.1659988
  59.6350012  94.6274997  51.4659988  59.8529804  94.9047698  50.6699840
  62.4680012  94.4784997  49.6469988  61.6030012  94.5504997  50.0509988
  62.4130012  95.0254997  48.8629988  62.3422085  94.5622685  49.5963362
  67.1780012  94.3664997  48.8219988  66.7220012  94.8954997  48.1679988
  67.3410012  94.9694997  49.5479988  67.1375585  94.5204468  48.8305062
  69.5060012  93.2444997  49.7669988  68.6010012  93.4094997  49.5019988
  69.9350012  94.0974997  49.7019988  69.4400799  93.3824483  49.7219182
  72.1100012  94.8144997  50.0619988  71.9280012  95.7304997  49.8519988
  72.2870012  94.4044997  49.2159988  72.1090210  94.8844822  49.9187885
  59.4150012  93.5014997  47.5269988  59.3970012  93.0764997  48.3849988
  60.2200012  93.1834997  47.1189988  59.5213875  93.4003812  47.5891655
  61.5570012  92.2114997  46.1819988  61.3380012  91.2954997  46.3519988
  62.3810012  92.3514997  46.6479988  61.6384420  92.1050520  46.2682774
  64.0940012  92.6814997  47.0309988  64.3070012  91.7934997  46.7439988
  64.1580012  92.6474997  47.9849988  64.1318232  92.5553102  47.1207397
  58.7650012  76.7774997  39.8009988  59.2040012  77.3884997  39.2089988
  58.1320012  77.3154997  40.2749988  58.7394514  76.9339257  39.7840930
  58.6660012  92.7254997  40.6989988  57.9810012  92.6874997  40.0309988
  58.6700012  93.6384997  40.9869988  58.5728193  92.8437016  40.6465284
  60.6260012  78.6934997  38.2429988  61.1180012  78.0634997  37.7159988
  61.2500012  78.9894997  38.9069988  60.7775446  78.6473199  38.2605980
  65.6520012  78.9864997  40.6999988  65.8300012  78.3404997  41.3829988
  65.5990012  79.8204997  41.1679988  65.6691829  79.0107985  40.8565940
  67.5310012  93.9354997  39.0959988  68.3970012  94.3014997  38.9179988
  67.2840012  93.4954997  38.2819988  67.6162392  93.9261756  38.9616289
  74.2400012  93.4984997  41.7749988  74.0450012  92.7504997  41.2099988
  74.2010012  94.2564997  41.1919988  74.2080380  93.4986099  41.6188384
  60.4840012  93.6454997  37.7239988  60.2170012  93.9324997  38.5969988
  61.2560012  93.0994997  37.8759988  60.5517488  93.6110294  37.8641050
  73.4570012  92.2494997  53.9249988  72.6750012  92.0634997  53.4059988
  73.3850012  93.1784997  54.1429988  73.3401777  92.3496492  53.8834048
  87.8630012  86.1354997  43.9559988  87.9520012  87.0794997  43.8239988
  87.2250012  85.8604997  43.2979988  87.7889081  86.2274830  43.8489614
  86.7960012  85.3904997  47.3749988  86.7580012  84.7444997  48.0799988
  86.4740012  84.9244997  46.6039988  86.7472333  85.2389408  47.3672978
  79.1650012  85.0054997  48.9679988  79.2060012  84.3794997  49.6909988
  79.8680012  85.6294997  49.1499988  79.2656363  85.0041196  49.0916044
  90.5020012  88.3294997  45.6759988  90.0620012  87.6094997  46.1269988
  90.4890012  89.0504997  46.3059988  90.4400226  88.3283731  45.8228494
  80.0880012  89.4554997  47.5029988  79.7190012  88.6534997  47.1329988
  81.0290012  89.2864997  47.5489988  80.1647289  89.3230153  47.4586316
  87.6140012  93.4344997  45.8889988  88.2340012  92.7574997  45.6149988
  87.4060012  93.2164997  46.7969988  87.6706904  93.3123870  45.9743365
  85.1860012  87.8234997  47.7809988  85.4900012  87.1374997  47.1859988
  85.9070012  87.9414997  48.3989988  85.3250671  87.7456305  47.7831816
  93.8490012  79.4244997  48.6419988  93.8980012  80.0344997  49.3779988
  94.2740012  79.8854997  47.9189988  93.9131824  79.5703741  48.6450205
  88.3270012  82.2174997  48.1089988  88.4690012  81.2714997  48.1289988
  88.2200012  82.4244997  47.1799988  88.3319863  82.1159534  47.9862339
  83.2580012  84.2654997  45.3579988  83.8740012  83.7394997  45.8679988
  82.6720012  83.6254997  44.9549988  83.2630810  84.1069208  45.3733173
  94.2400012  80.9024997  50.8779988  93.5520012  81.5604997  50.7819988
  94.2560012  80.7054997  51.8139988  94.1478525  80.9660462  50.9914808
  80.2920012  79.2364997  49.4549988  80.0730012  79.7664997  48.6889988
  79.6240012  79.4634997  50.1019988  80.1717600  79.3396906  49.4376379
  87.6610012  88.7364997  42.9989988  87.3650012  88.4144997  42.1479988
  87.3360012  89.6364997  43.0399988  87.5766371  88.8140215  42.8881801
  82.8610012  86.9124997  49.7419988  82.1210012  87.5104997  49.8459988
  83.5750012  87.4664997  49.4269988  82.8562237  87.0692831  49.7136465
  81.2680012  88.8764997  50.5299988  81.2630012  89.7564997  50.1519988
  80.4150012  88.7934997  50.9549988  81.1519464  88.9856117  50.5357907
  77.3890012  88.5474997  41.3119988  77.1170012  88.7764997  40.4229988
  77.4350012  89.3854997  41.7719988  77.3580094  88.6921213  41.2525697
  91.0140012  90.1694997  48.0239988  90.0730012  90.2274997  48.1859988
  91.2910012  91.0754997  47.8869988  90.9224679  90.2999443  48.0276815
  91.3150012  78.4554997  49.4419988  90.5790012  79.0664997  49.4039988
  91.9980012  78.8704997  48.9149988  91.3066541  78.5951374  49.3655832
  89.2660012  91.9504997  44.6499988  89.6920012  91.2434997  44.1649988
  89.5830012  92.7514997  44.2329988  89.3671019  91.9620994  44.5273130
  90.4260012  89.8514997  43.1579988  90.1680012  89.1614997  42.5469988
  90.4970012  89.4084997  44.0039988  90.4002856  89.6972124  43.1886885
  92.1120012  88.4174997  51.6359988  92.2520012  87.8264997  50.8959988
  92.2790012  89.2904997  51.2789988  92.1536778  88.4546426  51.4866965
  93.9540012  84.7574997  49.7019988  93.3010012  85.4524997  49.7909988
  94.4190012  84.9674997  48.8919988  93.9275390  84.8809425  49.6046883
  89.9900012  85.5894997  42.3599988  89.2580012  85.8174997  42.9329988
  90.4380012  84.8754997  42.8149988  89.9503095  85.5242571  42.4999119
  89.8880012  83.7634997  51.4269988  89.9680012  84.5264997  51.9989988
  89.2860012  84.0424997  50.7369988  89.8175756  83.9057134  51.4120589
  81.6360012  86.2194997  44.2419988  81.3050012  85.8494997  43.4239988
  82.2240012  85.5494997  44.5889988  81.6701873  86.0781156  44.1768102
  83.0020012  89.6474997  46.9239988  82.9080012  89.0694997  46.1669988
  83.7320012  89.2764997  47.4199988  83.0877981  89.5182390  46.8874165
  82.0020012  84.9884997  47.8759988  82.5680012  85.1094997  47.1129988
  82.3210012  85.6254997  48.5149988  82.1225786  85.0911884  47.8580040
  88.3110012  90.4914997  48.6099988  88.0710012  91.1534997  49.2579988
  88.1130012  89.6574997  49.0349988  88.2513808  90.4693134  48.7561524
  82.8820012  89.3874997  52.5929988  82.5710012  90.1694997  53.0479988
  82.2320012  89.2344997  51.9069988  82.7515558  89.4739105  52.5625871
  79.8020012  85.5854997  51.8219988  79.8730012  86.2364997  52.5199988
  78.9120012  85.6884997  51.4869988  79.6913117  85.6885936  51.8722700
  86.5880012  91.4884997  43.4799988  87.0620012  91.7834997  44.2579988
  86.0250012  92.2264997  43.2469988  86.5767653  91.6286932  43.5550136
  81.1220012  91.4594997  53.3559988  81.1290012  91.3234997  52.4089988
  80.2060012  91.3414997  53.6079988  80.9991714  91.4249430  53.2604666
  93.7490012  90.8674997  38.2339988  93.8230012  91.8064997  38.4049988
  94.6550012  90.5624997  38.1779988  93.8815100  90.9546722  38.2498119
  76.7190012  87.6524997  50.6469988  76.2180012  87.6244997  49.8319988
  76.7240012  86.7464997  50.9559988  76.6511526  87.5262278  50.5772872
  76.4690012  90.4324997  47.5309988  77.4150012  90.2884997  47.5119988
  76.3570012  91.2164997  48.0679988  76.5832727  90.5188046  47.6010072
  94.6670012  91.0984997  53.2129988  94.6180012  90.1434997  53.1759988
  93.8400012  91.3664997  53.6139988  94.5484940  91.0038998  53.2621375
  85.6460012  90.6724997  52.0889988  85.7330012  91.4984997  52.5639988
  84.7820012  90.3424997  52.3379988  85.5411964  90.7409878  52.1876549
  86.0600012  94.4444997  41.8949988  85.9850012  94.3234997  40.9489988
  86.0930012  95.3944997  42.0139988  86.0541848  94.5562500  41.7814834
  79.7130012  93.2334997  43.6759988  79.8660012  92.8854997  44.5549988
  78.8630012  92.8774997  43.4209988  79.6188962  93.1376650  43.7618340
  89.1620012  93.5984997  38.8969988  89.5370012  92.8544997  38.4269988
  89.1660012  93.3284997  39.8159988  89.2138915  93.4601486  38.9567824
  88.8310012  93.5244997  41.6469988  87.8950012  93.6244997  41.8249988
  89.1110012  92.8154997  42.2249988  88.7408255  93.4422711  41.7495391
  91.8190012  82.5914997  53.6929988  91.4120012  83.0724997  52.9719988
  91.8600012  81.6864997  53.3849988  91.7688437  82.5349374  53.5526683
  78.9680012  88.9754997  51.6899988  79.1840012  88.6144997  52.5489988
  78.1130012  88.6014997  51.4799988  78.8819292  88.8754111  51.7793386
  81.5870012  77.4454997  47.6849988  80.7250012  77.3584997  47.2779988
  81.5640012  78.3014997  48.1129988  81.4660330  77.5492765  47.6871863
  86.2500012  77.1674997  51.0599988  86.6700012  76.7524997  51.8129988
  85.3170012  76.9894997  51.1769988  86.1813644  77.0865900  51.1789539
  89.5760012  80.9234997  51.9129988  89.0620012  80.7974997  52.7109988
  89.4210012  81.8354997  51.6689988  89.4846852  81.0296132  51.9892158
  90.3390012  85.7844997  37.6749988  90.3810012  85.5614997  36.7449988
  91.1880012  86.1834997  37.8649988  90.4595396  85.8079155  37.5733627
  81.6780012  82.4114997  48.7799988  81.0360012  82.3704997  49.4889988
  81.7150012  83.3374997  48.5429988  81.5951324  82.5311559  48.8449824
  86.3120012  83.2234997  53.9969988  85.7500012  82.5194997  54.3179988
  87.1390012  83.1034997  54.4649988  86.3467095  83.1107883  54.1042330
  79.4280012  82.7314997  50.6469988  79.3900012  83.1314997  51.5159988
  78.9370012  81.9144997  50.7379988  79.3564684  82.6758069  50.7781059
  87.4790012  84.1324997  49.9949988  87.8020012  83.5014997  49.3519988
  87.0390012  83.5974997  50.6549988  87.4636895  83.9738441  49.9962850
  91.9490012  94.9664997  54.3199988  92.1490012  95.3904997  53.4849988
  92.6040012  95.3094997  54.9269988  92.0650051  95.0709648  54.2877836
  79.5470012  87.4404997  53.9279988  80.2790012  87.6944997  54.4889988
  78.7670012  87.6444997  54.4429988  79.5418232  87.5029177  54.0745760
  85.5760012  82.8474997  46.6659988  86.1410012  82.3004997  46.1189988
  85.4290012  82.3254997  47.4539988  85.6332918  82.7022024  46.6978454
  84.2030012  81.2354997  49.0799988  83.3670012  81.6894997  49.1899988
  84.7270012  81.5114997  49.8319988  84.1594414  81.3349376  49.1967136
  91.8970012  86.5814997  49.5509988  92.5390012  87.0384997  49.0069988
  91.0670012  86.6944997  49.0879988  91.8725963  86.6592704  49.4140177
  86.2660012  87.6324997  52.0009988  85.9210012  87.2514997  52.8079988
  86.0660012  88.5664997  52.0729988  86.1918061  87.7065228  52.1210961
  79.8720012  86.7434997  46.5339988  80.6170012  86.7414997  45.9329988
  79.9500012  85.9204997  47.0159988  79.9845518  86.6319315  46.5168929
  86.8730012  88.9074997  39.7899988  86.5770012  89.7334997  40.1709988
  86.1700012  88.2874997  39.9859988  86.7374914  88.9368199  39.8686443
  76.8800012  85.2044997  51.8489988  77.1030012  84.7864997  52.6809988
  76.2780012  84.5914997  51.4259988  76.8291759  85.0644668  51.9057022
  83.8960012  84.7214997  54.0619988  83.6000012  84.5554997  53.1669988
  84.8280012  84.5014997  54.0509988  83.9814166  84.6690640  53.9380536
  88.5170012  90.0944997  51.9519988  87.6160012  90.2774997  51.6839988
  88.5510012  90.3534997  52.8729988  88.3983041  90.1545512  52.0398197
  94.2110012  88.1394997  53.1559988  93.3600012  88.3774997  52.7889988
  94.8020012  88.1224997  52.4029988  94.1742487  88.1698258  53.0038893
  92.5430012  91.1254997  40.7839988  92.1700012  90.2994997  41.0929988
  92.8210012  90.9424997  39.8869988  92.5295630  90.9877303  40.7049626
  89.7040012  85.9334997  47.8049988  88.7750012  85.7014997  47.7779988
  90.1550012  85.1564997  47.4749988  89.6379216  85.7967238  47.7566917
  82.2470012  90.2614997  43.9379988  82.7740012  91.0344997  43.7379988
  81.3670012  90.4864997  43.6369988  82.2001773  90.3978005  43.8699010
  83.6740012  87.9244997  43.5149988  83.4330012  88.8494997  43.5559988
  82.9330012  87.4654997  43.9109988  83.5408409  87.9891421  43.5741377
  84.1890012  92.0734997  49.8299988  84.5510012  92.9284997  49.5959988
  84.7200012  91.7814997  50.5699988  84.3104473  92.1511060  49.8980855
  82.3570012  92.9464997  43.0599988  81.4070012  93.0514997  43.1109988
  82.7090012  93.7664997  43.4049988  82.2744203  93.0718314  43.1136650
  87.7330012  88.1724997  49.5299988  87.3070012  87.9454997  50.3569988
  88.3130012  87.4344997  49.3479988  87.7531868  88.0415299  49.6185830
  89.9360012  89.1014997  38.6039988  90.2890012  88.7214997  39.4089988
  88.9870012  89.0084997  38.6909988  89.8560441  89.0369596  38.7258559
  90.3910012  92.7244997  51.9999988  89.7900012  92.1694997  51.5039988
  90.6730012  93.3914997  51.3739988  90.3468519  92.7386841  51.8474952
  94.4390012  93.5814997  38.8049988  95.1830012  94.1674997  38.6649988
  93.7450012  94.1494997  39.1389988  94.4470292  93.7385582  38.8309961
  78.5140012  79.9574997  51.4069988  77.6210012  80.2964997  51.3389988
  78.4150012  79.1024997  51.8249988  78.3784164  79.8882588  51.4542235
  90.8020012  87.7744997  40.8309988  90.5240012  87.0464997  41.3869988
  91.7290012  87.8934997  41.0359988  90.8893124  87.6908802  40.9348845
  78.1650012  91.7624997  49.8419988  78.3820012  90.8304997  49.8109988
  78.4110012  92.0364997  50.7249988  78.2279549  91.6720636  49.9571763
  84.0270012  90.2134997  37.0509988  84.2660012  89.4654997  36.5039988
  83.7580012  89.8254997  37.8839988  84.0233675  90.0586638  37.0886865
  82.9640012  89.7834997  39.5079988  83.1100012  89.2634997  40.2979988
  82.9610012  90.6904997  39.8139988  82.9835989  89.8348853  39.6576088
  87.2480012  79.6984997  50.2969988  87.9470012  79.7724997  50.9469988
  86.8670012  78.8344997  50.4509988  87.2921767  79.5917624  50.4068322
  85.7010012  91.4814997  40.2569988  84.8850012  91.9784997  40.3089988
  86.2310012  91.9564997  39.6169988  85.6609161  91.6137722  40.1775956
  85.7680012  82.0644997  51.4139988  85.8870012  82.6384997  52.1709988
  86.4240012  81.3764997  51.5279988  85.8729757  82.0501079  51.5330825
  83.0400012  92.5254997  40.2389988  83.2000012  93.3244997  39.7379988
  82.8420012  92.8314997  41.1239988  83.0351649  92.6764469  40.2899815
  91.9730012  79.9714997  52.2489988  91.0560012  80.2344997  52.1609988
  92.3080012  79.9684997  51.3519988  91.8929900  80.0070224  52.1157919
  90.5750012  83.7224997  46.3439988  89.7770012  83.3074997  46.0159988
  91.0200012  83.0314997  46.8349988  90.5259885  83.5723543  46.3654889
  80.0330012  89.6504997  38.9149988  80.6250012  90.3494997  39.1909988
  80.4920012  89.2174997  38.1949988  80.1761142  89.6877049  38.8554830
  91.6610012  92.9784997  47.9669988  91.5060012  93.6564997  47.3099988
  92.5940012  93.0504997  48.1699988  91.7658500  93.0810170  47.9045119
  78.0870012  91.0364997  42.8639988  77.2550012  91.5094997  42.8919988
  78.6330012  91.5464997  42.2659988  78.0469739  91.1701871  42.7869716
  77.3750012  93.6494997  54.1939988  77.9160012  93.4324997  54.9539988
  76.8940012  92.8434997  54.0049988  77.3839345  93.5109514  54.2723076
  81.9730012  92.5684997  55.8149988  82.7400012  92.1094997  56.1559988
  81.9510012  92.3424997  54.8849988  82.0751434  92.4750409  55.7360043
  86.0650012  92.0764997  37.1899988  85.4210012  91.4454997  37.5109988
  86.8270012  91.5454997  36.9579988  86.0798077  91.9182920  37.2026011
  88.5500012  90.9484997  54.5439988  88.1990012  90.0924997  54.7869988
  89.2760012  91.0914997  55.1509988  88.6000769  90.8505636  54.6593619
  90.6690012  91.8934997  37.4239988  90.9520012  91.0994997  37.8759988
  91.4090012  92.1264997  36.8629988  90.8077486  91.8162803  37.4100698
  83.9380012  87.4294997  54.5809988  83.6090012  87.7004997  53.7239988
  84.0900012  86.4884997  54.4939988  83.9134809  87.3393862  54.4518244
  86.9760012  88.8504997  37.0169988  86.7070012  89.0304997  37.9179988
  86.7700012  87.9244997  36.8859988  86.9113825  88.7500152  37.1225214
  89.6720012  87.3454997  51.9649988  90.4180012  87.9334997  51.8449988
  88.9150012  87.9274997  52.0279988  89.6717554  87.5047011  51.9570907
  82.0620012  83.6684997  51.9429988  81.4440012  84.3434997  52.2229988
  82.4060012  83.9894997  51.1099988  82.0239615  83.8042721  51.8686581
  87.0820012  86.1404997  55.2199988  88.0350012  86.2234997  55.1929988
  86.9210012  85.4284997  55.8399988  87.1906426  86.0556746  55.3000579
  82.4010012  81.0234997  53.0249988  82.5510012  80.2944997  52.4229988
  82.4040012  81.8004997  52.4659988  82.4219302  81.0287851  52.8670692
  82.8140012  79.3934997  50.5179988  83.3500012  79.8444997  49.8659988
  81.9620012  79.2854997  50.0949988  82.7722178  79.4406390  50.3715756
  84.3960012  84.8324997  50.7569988  85.1460012  84.6764997  50.1839988
  84.0570012  85.6844997  50.4819988  84.4528921  84.9262968  50.6413561
  88.8110012  82.6474997  55.7859988  89.0040012  81.7164997  55.6739988
  89.6690012  83.0724997  55.7759988  88.9533020  82.5776389  55.7693361
  90.1280012  85.4364997  53.8629988  89.8470012  86.1454997  53.2859988
  91.0710012  85.3634997  53.7119988  90.2169027  85.5237646  53.7635551
  80.8800012  82.2214997  54.9369988  80.1130012  81.6894997  54.7269988
  81.5590012  81.9114997  54.3369988  80.8667022  82.1067506  54.8271648
  83.6200012  76.8494997  50.9489988  83.5210012  77.7964997  50.8439988
  82.8770012  76.4774997  50.4739988  83.5060564  76.9285902  50.8704560
  84.8840012  81.1714997  54.5129988  84.6480012  80.9514997  55.4149988
  84.1000012  80.9644997  54.0029988  84.7458628  81.1134760  54.5673932
  87.5990012  80.2984997  53.5889988  86.6520012  80.3304997  53.7209988
  87.9120012  79.6734997  54.2419988  87.5115475  80.2183207  53.6954455
  89.2330012  78.9324997  55.5939988  89.1370012  77.9804997  55.5879988
  88.9120012  79.2014997  56.4539988  89.1764070  78.8384035  55.7095441
  79.0600012  80.1424997  54.6409988  79.2720012  79.4354997  54.0309988
  78.9490012  79.7044997  55.4849988  79.0739721  79.9867084  54.6716843
  84.1950012  77.8264997  55.6739988  84.0630012  77.3504997  54.8539988
  83.5960012  78.5704997  55.6189988  84.0959071  77.8619618  55.5542886
  83.7410012  94.7094997  38.8509988  84.6740012  94.8674997  38.9939988
  83.4770012  95.3844997  38.2259988  83.8329510  94.8223611  38.7860741
  77.3100012  89.3454997  38.3329988  78.2240012  89.4244997  38.6069988
  77.3170012  88.6584997  37.6669988  77.4361131  89.2633961  38.2804393
  75.9590012  94.7384997  43.4109988  75.3120012  94.2764997  42.8779988
  76.3130012  94.0664997  43.9929988  75.9183849  94.5844723  43.4167959
  76.8290012  92.8194997  45.2149988  76.4940012  91.9394997  45.3869988
  77.0510012  93.1644997  46.0799988  76.8131783  92.7457500  45.3554208
  94.3770012  93.6284997  48.1959988  94.3560012  93.8134997  49.1349988
  95.0680012  94.1974997  47.8549988  94.4674618  93.7306606  48.2783864
  93.9410012  93.1964997  51.1179988  93.4530012  92.4604997  50.7469988
  94.4900012  92.8024997  51.7959988  93.9484872  93.0426249  51.1589160
  92.3910012  88.9854997  55.7559988  91.5250012  88.8804997  56.1499988
  92.7680012  89.7444997  56.2019988  92.3233308  89.0736900  55.8702393
  93.8460012  88.0804997  48.0409988  94.6790012  87.7024997  47.7609988
  93.9580012  89.0234997  47.9219988  93.9752647  88.1562218  47.9865487
  92.3320012  90.9584997  50.3479988  91.6850012  91.2834997  50.9739988
  91.8150012  90.5184997  49.6739988  92.1734029  90.9435004  50.3425827
  76.9090012  85.8944997  47.6669988  77.0930012  85.8124997  46.7309988
  77.7580012  85.7704997  48.0909988  77.0490139  85.8665003  47.5961455
  92.7300012  85.7864997  53.2949988  93.3130012  85.0524997  53.4869988
  93.2940012  86.5584997  53.3419988  92.8859769  85.7904227  53.3276159
  94.2260012  83.6894997  53.9799988  93.3630012  83.3104997  53.8139988
  94.8310012  82.9504997  53.9059988  94.1895979  83.5378023  53.9472817
  92.1960012  81.9804997  47.5549988  93.1290012  82.1924997  47.5209988
  91.9610012  82.0824997  48.4769988  92.2918036  82.0232769  47.6749976
  92.2250012  82.7174997  50.3309988  91.3820012  82.9854997  50.6969988
  92.6670012  83.5394997  50.1199988  92.1694158  82.8653291  50.3525491
  76.5060012  81.1654997  53.8079988  77.4260012  81.0434997  54.0439988
  76.0570012  80.4154997  54.1969988  76.5711580  81.0473727  53.8929006
  94.5080012  76.6974997  55.6839988  94.8580012  76.0434997  55.0789988
  94.6550012  77.5344997  55.2449988  94.5758419  76.7211591  55.5417118
  94.0280012  78.8064997  54.0339988  93.1100012  79.0774997  53.9979988
  94.1510012  78.2714997  53.2489988  93.9191066  78.7712892  53.9230487
  91.1160012  93.7184997  43.7679988  91.7680012  93.3714997  43.1599988
  91.6260012  94.2074997  44.4139988  91.2742637  93.7370597  43.7720236
  78.5010012  90.6474997  54.3109988  77.6800012  90.8224997  53.8509988
  78.2480012  90.5744997  55.2319988  78.3546164  90.6615622  54.3724923
  81.4550012  91.6224997  50.5699988  81.0300012  92.4314997  50.2869988
  82.3590012  91.7074997  50.2679988  81.5190271  91.7448469  50.4903776
  85.7660012  93.0214997  53.5289988  85.9510012  92.6874997  54.4069988
  86.6120012  93.3304997  53.2069988  85.9057539  93.0176047  53.6055605
  88.1110012  94.3074997  52.7729988  88.7880012  93.6744997  52.5329988
  88.4330012  94.7084997  53.5799988  88.2471637  94.2751154  52.8492793
  93.0280012  76.8964997  51.8529988  92.2160012  77.2214997  51.4649988
  93.2610012  76.1364997  51.3199988  92.9483423  76.8382436  51.7278253
  78.8570012  94.8784997  50.6169988  78.1360012  95.3184997  50.1659988
  78.4910012  94.6274997  51.4659988  78.7089804  94.9047698  50.6699840
  81.3240012  94.4784997  49.6469988  80.4590012  94.5504997  50.0509988
  81.2690012  95.0254997  48.8629988  81.1982085  94.5622685  49.5963362
  86.0340012  94.3664997  48.8219988  85.5780012  94.8954997  48.1679988
  86.1970012  94.9694997  49.5479988  85.9935585  94.5204468  48.8305062
  88.3620012  93.2444997  49.7669988  87.4570012  93.4094997  49.5019988
  88.7910012  94.0974997  49.7019988  88.2960799  93.3824483  49.7219182
  90.9660012  94.8144997  50.0619988  90.7840012  95.7304997  49.8519988
  91.1430012  94.4044997  49.2159988  90.9650210  94.8844822  49.9187885
  78.2710012  93.5014997  47.5269988  78.2530012  93.0764997  48.3849988
  79.0760012  93.1834997  47.1189988  78.3773875  93.4003812  47.5891655
  80.4130012  92.2114997  46.1819988  80.1940012  91.2954997  46.3519988
  81.2370012  92.3514997  46.6479988  80.4944420  92.1050520  46.2682774
  82.9500012  92.6814997  47.0309988  83.1630012  91.7934997  46.7439988
  83.0140012  92.6474997  47.9849988  82.9878232  92.5553102  47.1207397
  77.5220012  92.7254997  40.6989988  76.8370012  92.6874997  40.0309988
  77.5260012  93.6384997  40.9869988  77.4288193  92.8437016  40.6465284
  86.3870012  93.9354997  39.0959988  87.2530012  94.3014997  38.9179988
  86.1400012  93.4954997  38.2819988  86.4722392  93.9261756  38.9616289
  93.0960012  93.4984997  41.7749988  92.9010012  92.7504997  41.2099988
  93.0570012  94.2564997  41.1919988  93.0640380  93.4986099  41.6188384
  78.7430012  77.4934997  53.5149988  78.3770012  76.7284997  53.9579988
  79.6560012  77.5224997  53.8019988  78.8162790  77.3927224  53.6144070
  80.7160012  76.8444997  55.0509988  81.6140012  76.5704997  54.8659988
  80.3290012  76.1014997  55.5149988  80.7866612  76.7065914  55.0883643
  79.3400012  93.6454997  37.7239988  79.0730012  93.9324997  38.5969988
  80.1120012  93.0994997  37.8759988  79.4077488  93.6110294  37.8641050
  89.1370012  76.1764997  55.2329988  89.2140012  75.7504997  56.0869988
  90.0310012  76.1904997  54.8899988  89.2683428  76.1200879  55.3035310
  92.3130012  92.2494997  53.9249988  91.5310012  92.0634997  53.4059988
  92.2410012  93.1784997  54.1429988  92.1961777  92.3496492  53.8834048
 106.7190012  86.1354997  43.9559988 106.8080012  87.0794997  43.8239988
 106.0810012  85.8604997  43.2979988 106.6449081  86.2274830  43.8489614
 105.6520012  85.3904997  47.3749988 105.6140012  84.7444997  48.0799988
 105.3300012  84.9244997  46.6039988 105.6032333  85.2389408  47.3672978
  98.0210012  85.0054997  48.9679988  98.0620012  84.3794997  49.6909988
  98.7240012  85.6294997  49.1499988  98.1216363  85.0041196  49.0916044
 109.3580012  88.3294997  45.6759988 108.9180012  87.6094997  46.1269988
 109.3450012  89.0504997  46.3059988 109.2960226  88.3283731  45.8228494
  98.9440012  89.4554997  47.5029988  98.5750012  88.6534997  47.1329988
  99.8850012  89.2864997  47.5489988  99.0207289  89.3230153  47.4586316
  96.2650012  85.2774997  45.0219988  96.4780012  84.5074997  45.5489988
  97.0030012  85.3664997  44.4179988  96.3938496  85.1841394  45.0125300
 106.4700012  93.4344997  45.8889988 107.0900012  92.7574997  45.6149988
 106.2620012  93.2164997  46.7969988 106.5266904  93.3123870  45.9743365
 104.0420012  87.8234997  47.7809988 104.3460012  87.1374997  47.1859988
 104.7630012  87.9414997  48.3989988 104.1810671  87.7456305  47.7831816
 112.7050012  79.4244997  48.6419988 112.7540012  80.0344997  49.3779988
 113.1300012  79.8854997  47.9189988 112.7691824  79.5703741  48.6450205
 107.1830012  82.2174997  48.1089988 107.3250012  81.2714997  48.1289988
 107.0760012  82.4244997  47.1799988 107.1879864  82.1159534  47.9862339
 100.3370012  80.3184997  45.3809988 100.3810012  81.1784997  44.9629988
  99.8800012  79.7664997  44.7469988 100.2812185  80.3615799  45.2380299
 108.0600012  80.4494997  43.7819988 108.7060012  80.1204997  44.4069988
 108.5700012  80.9674997  43.1589988 108.2174264  80.4744611  43.7833862
  96.9580012  82.7154997  46.1429988  97.6110012  82.1654997  46.5749988
  96.9820012  82.4414997  45.2259988  97.0506683  82.6031466  46.0782123
 102.1140012  84.2654997  45.3579988 102.7300012  83.7394997  45.8679988
 101.5280012  83.6254997  44.9549988 102.1190810  84.1069208  45.3733173
 113.0960012  80.9024997  50.8779988 112.4080012  81.5604997  50.7819988
 113.1120012  80.7054997  51.8139988 113.0038525  80.9660462  50.9914808
  99.1480012  79.2364997  49.4549988  98.9290012  79.7664997  48.6889988
  98.4800012  79.4634997  50.1019988  99.0277600  79.3396906  49.4376379
 106.5170012  88.7364997  42.9989988 106.2210012  88.4144997  42.1479988
 106.1920012  89.6364997  43.0399988 106.4326371  88.8140215  42.8881801
 101.7170012  86.9124997  49.7419988 100.9770012  87.5104997  49.8459988
 102.4310012  87.4664997  49.4269988 101.7122237  87.0692831  49.7136465
 109.8240012  79.7404997  45.7619988 109.6080012  78.9744997  46.2949988
 110.4790012  80.2124997  46.2749988 109.8830632  79.6995889  45.9042861
  98.7410012  81.1284997  47.4069988  99.3550012  81.7614997  47.7809988
  99.2530012  80.6564997  46.7509988  98.8942296  81.1512370  47.3694252
 100.1240012  88.8764997  50.5299988 100.1190012  89.7564997  50.1519988
  99.2710012  88.7934997  50.9549988 100.0079464  88.9856117  50.5357907
 109.8700012  90.1694997  48.0239988 108.9290012  90.2274997  48.1859988
 110.1470012  91.0754997  47.8869988 109.7784679  90.2999443  48.0276815
 110.1710012  78.4554997  49.4419988 109.4350012  79.0664997  49.4039988
 110.8540012  78.8704997  48.9149988 110.1626541  78.5951374  49.3655832
 103.1740012  76.5424997  46.9079988 103.0570012  75.5934997  46.8529988
 102.3190012  76.8744997  47.1809988 103.0423733  76.4575409  46.9373897
 108.1220012  91.9504997  44.6499988 108.5480012  91.2434997  44.1649988
 108.4390012  92.7514997  44.2329988 108.2231019  91.9620994  44.5273130
 109.2820012  89.8514997  43.1579988 109.0240012  89.1614997  42.5469988
 109.3530012  89.4084997  44.0039988 109.2562856  89.6972124  43.1886885
 110.9680012  88.4174997  51.6359988 111.1080012  87.8264997  50.8959988
 111.1350012  89.2904997  51.2789988 111.0096778  88.4546426  51.4866965
 105.4410012  85.3794997  41.4079988 104.7290012  85.9144997  41.0559988
 106.1320012  85.4354997  40.7479988 105.4370132  85.4602543  41.2706289
 105.4940012  83.8374997  38.4469988 106.1950012  83.8594997  39.0979988
 105.7970012  83.2094997  37.7909988 105.6307830  83.7556566  38.4473711
 112.8100012  84.7574997  49.7019988 112.1570012  85.4524997  49.7909988
 113.2750012  84.9674997  48.8919988 112.7835390  84.8809425  49.6046883
 108.8460012  85.5894997  42.3599988 108.1140012  85.8174997  42.9329988
 109.2940012  84.8754997  42.8149988 108.8063095  85.5242571  42.4999119
 108.7440012  83.7634997  51.4269988 108.8240012  84.5264997  51.9989988
 108.1420012  84.0424997  50.7369988 108.6735756  83.9057134  51.4120589
 100.4920012  86.2194997  44.2419988 100.1610012  85.8494997  43.4239988
 101.0800012  85.5494997  44.5889988 100.5261873  86.0781156  44.1768102
 101.8580012  89.6474997  46.9239988 101.7640012  89.0694997  46.1669988
 102.5880012  89.2764997  47.4199988 101.9437981  89.5182390  46.8874165
 100.8580012  84.9884997  47.8759988 101.4240012  85.1094997  47.1129988
 101.1770012  85.6254997  48.5149988 100.9785786  85.0911884  47.8580040
 107.1670012  90.4914997  48.6099988 106.9270012  91.1534997  49.2579988
 106.9690012  89.6574997  49.0349988 107.1073808  90.4693134  48.7561524
 101.7380012  89.3874997  52.5929988 101.4270012  90.1694997  53.0479988
 101.0880012  89.2344997  51.9069988 101.6075558  89.4739105  52.5625871
 107.7170012  84.7514997  40.0449988 108.2970012  84.9014997  40.7919988
 108.1310012  85.2224997  39.3219988 107.8522830  84.8356841  40.0494134
  98.6580012  85.5854997  51.8219988  98.7290012  86.2364997  52.5199988
  97.7680012  85.6884997  51.4869988  98.5473117  85.6885936  51.8722700
 105.4440012  91.4884997  43.4799988 105.9180012  91.7834997  44.2579988
 104.8810012  92.2264997  43.2469988 105.4327653  91.6286932  43.5550136
  99.9780012  91.4594997  53.3559988  99.9850012  91.3234997  52.4089988
  99.0620012  91.3414997  53.6079988  99.8551714  91.4249430  53.2604666
 111.4160012  76.5014997  39.8579988 110.5160012  76.6404997  40.1529988
 111.6680012  77.3324997  39.4559988 111.3268702  76.6329074  39.8440205
  99.4820012  85.2894997  41.8319988  99.1900012  86.0574997  41.3409988
  98.8080012  84.6294997  41.6689988  99.3509081  85.3054406  41.7427339
 112.6050012  90.8674997  38.2339988 112.6790012  91.8064997  38.4049988
 113.5110012  90.5624997  38.1779988 112.7375100  90.9546722  38.2498119
  95.5750012  87.6524997  50.6469988  95.0740012  87.6244997  49.8319988
  95.5800012  86.7464997  50.9559988  95.5071526  87.5262278  50.5772872
  95.3250012  90.4324997  47.5309988  96.2710012  90.2884997  47.5119988
  95.2130012  91.2164997  48.0679988  95.4392727  90.5188046  47.6010072
 113.5230012  91.0984997  53.2129988 113.4740012  90.1434997  53.1759988
 112.6960012  91.3664997  53.6139988 113.4044940  91.0038998  53.2621375
 104.5020012  90.6724997  52.0889988 104.5890012  91.4984997  52.5639988
 103.6380012  90.3424997  52.3379988 104.3971964  90.7409878  52.1876549
 104.9160012  94.4444997  41.8949988 104.8410012  94.3234997  40.9489988
 104.9490012  95.3944997  42.0139988 104.9101848  94.5562500  41.7814834
  98.5690012  93.2334997  43.6759988  98.7220012  92.8854997  44.5549988
  97.7190012  92.8774997  43.4209988  98.4748962  93.1376650  43.7618340
 108.0180012  93.5984997  38.8969988 108.3930012  92.8544997  38.4269988
 108.0220012  93.3284997  39.8159988 108.0698915  93.4601486  38.9567824
 107.6870012  93.5244997  41.6469988 106.7510012  93.6244997  41.8249988
 107.9670012  92.8154997  42.2249988 107.5968255  93.4422711  41.7495391
 110.6750012  82.5914997  53.6929988 110.2680012  83.0724997  52.9719988
 110.7160012  81.6864997  53.3849988 110.6248437  82.5349374  53.5526683
  97.8240012  88.9754997  51.6899988  98.0400012  88.6144997  52.5489988
  96.9690012  88.6014997  51.4799988  97.7379292  88.8754111  51.7793386
 100.4430012  77.4454997  47.6849988  99.5810012  77.3584997  47.2779988
 100.4200012  78.3014997  48.1129988 100.3220330  77.5492765  47.6871863
 105.1060012  77.1674997  51.0599988 105.5260012  76.7524997  51.8129988
 104.1730012  76.9894997  51.1769988 105.0373644  77.0865900  51.1789539
 108.4320012  80.9234997  51.9129988 107.9180012  80.7974997  52.7109988
 108.2770012  81.8354997  51.6689988 108.3406852  81.0296132  51.9892158
 109.1950012  85.7844997  37.6749988 109.2370012  85.5614997  36.7449988
 110.0440012  86.1834997  37.8649988 109.3155396  85.8079155  37.5733627
 104.7670012  79.6604997  38.3449988 104.5140012  79.6794997  39.2679988
 104.5110012  78.7884997  38.0439988 104.6977790  79.5452437  38.4306263
 100.5340012  82.4114997  48.7799988  99.8920012  82.3704997  49.4889988
 100.5710012  83.3374997  48.5429988 100.4511324  82.5311559  48.8449824
 100.5310012  82.6324997  43.6919988  99.6380012  82.2914997  43.6339988
 100.9810012  82.2554997  42.9369988 100.4697305  82.5348484  43.5819177
 106.0660012  83.0484997  42.5089988 105.6570012  83.8634997  42.2179988
 106.7870012  82.9084997  41.8949988 106.1074537  83.1412018  42.3861342
 105.1680012  83.2234997  53.9969988 104.6060012  82.5194997  54.3179988
 105.9950012  83.1034997  54.4649988 105.2027095  83.1107883  54.1042330
 107.0710012  82.4944997  45.3229988 106.8760012  83.0994997  44.6079988
 107.2520012  81.6604997  44.8889988 107.0687614  82.4646300  45.1664405
  98.2840012  82.7314997  50.6469988  98.2460012  83.1314997  51.5159988
  97.7930012  81.9144997  50.7379988  98.2124684  82.6758069  50.7781059
 101.6500012  80.1054997  37.4459988 101.2190012  79.6604997  38.1759988
 100.9320012  80.4774997  36.9339988 101.4939438  80.0948940  37.4766799
 106.3350012  84.1324997  49.9949988 106.6580012  83.5014997  49.3519988
 105.8950012  83.5974997  50.6549988 106.3196895  83.9738441  49.9962850
 103.1120012  80.0594997  44.7789988 102.2010012  80.1164997  45.0669988
 103.6180012  79.9994997  45.5889988 103.0555413  80.0591985  44.9280622
 101.5940012  81.6884997  41.2619988 102.5250012  81.8174997  41.4399988
 101.3790012  82.3584997  40.6119988 101.6924247  81.7966565  41.1985747
 107.5170012  79.2944997  48.0429988 106.8410012  79.4254997  48.7069988
 107.0320012  79.1394997  47.2329988 107.3587145  79.2914905  48.0244517
 100.2680012  82.8834997  38.8289988  99.7250012  82.5034997  38.1369988
 101.1010012  83.0774997  38.3999988 100.3064399  82.8578124  38.6764526
 110.8050012  94.9664997  54.3199988 111.0050012  95.3904997  53.4849988
 111.4600012  95.3094997  54.9269988 110.9210051  95.0709648  54.2877836
  98.4030012  87.4404997  53.9279988  99.1350012  87.6944997  54.4889988
  97.6230012  87.6444997  54.4429988  98.3978232  87.5029177  54.0745760
 104.4320012  82.8474997  46.6659988 104.9970012  82.3004997  46.1189988
 104.2850012  82.3254997  47.4539988 104.4892918  82.7022024  46.6978454
  99.4340012  78.9834997  43.0839988  99.1170012  78.0814997  43.0489988
 100.2160012  78.9854997  42.5309988  99.4962284  78.8601628  43.0044783
 103.0590012  81.2354997  49.0799988 102.2230012  81.6894997  49.1899988
 103.5830012  81.5114997  49.8319988 103.0154414  81.3349376  49.1967136
 103.6030012  87.4484997  40.7639988 102.8580012  86.9414997  40.4419988
 103.4690012  87.4974997  41.7109988 103.4828776  87.3856940  40.8478647
 110.7530012  86.5814997  49.5509988 111.3950012  87.0384997  49.0069988
 109.9230012  86.6944997  49.0879988 110.7285963  86.6592704  49.4140177
 107.5010012  80.2624997  38.9639988 106.5620012  80.3744997  38.8119988
 107.7980012  81.1194997  39.2699988 107.4127666  80.3936443  38.9845768
 105.1220012  87.6324997  52.0009988 104.7770012  87.2514997  52.8079988
 104.9220012  88.5664997  52.0729988 105.0478061  87.7065228  52.1210961
 108.2190012  82.1294997  40.6239988 109.1110012  81.9924997  40.9429988
 108.2760012  82.9204997  40.0879988 108.3486285  82.2176660  40.5951690
  98.7280012  86.7434997  46.5339988  99.4730012  86.7414997  45.9329988
  98.8060012  85.9204997  47.0159988  98.8405518  86.6319315  46.5168929
 105.7290012  88.9074997  39.7899988 105.4330012  89.7334997  40.1709988
 105.0260012  88.2874997  39.9859988 105.5934914  88.9368199  39.8686443
  95.7360012  85.2044997  51.8489988  95.9590012  84.7864997  52.6809988
  95.1340012  84.5914997  51.4259988  95.6851759  85.0644668  51.9057022
 102.7520012  84.7214997  54.0619988 102.4560012  84.5554997  53.1669988
 103.6840012  84.5014997  54.0509988 102.8374166  84.6690640  53.9380536
 107.3730012  90.0944997  51.9519988 106.4720012  90.2774997  51.6839988
 107.4070012  90.3534997  52.8729988 107.2543041  90.1545512  52.0398197
 113.1040012  82.3394997  40.3189988 112.5500012  81.9434997  39.6469988
 113.2040012  83.2494997  40.0409988 113.0417059  82.4083586  40.1894401
 113.0670012  88.1394997  53.1559988 112.2160012  88.3774997  52.7889988
 113.6580012  88.1224997  52.4029988 113.0302487  88.1698258  53.0038893
 111.3990012  91.1254997  40.7839988 111.0260012  90.2994997  41.0929988
 111.6770012  90.9424997  39.8869988 111.3855630  90.9877303  40.7049626
 108.5600012  85.9334997  47.8049988 107.6310012  85.7014997  47.7779988
 109.0110012  85.1564997  47.4749988 108.4939216  85.7967238  47.7566917
 101.1030012  90.2614997  43.9379988 101.6300012  91.0344997  43.7379988
 100.2230012  90.4864997  43.6369988 101.0561773  90.3978005  43.8699010
 102.5300012  87.9244997  43.5149988 102.2890012  88.8494997  43.5559988
 101.7890012  87.4654997  43.9109988 102.3968409  87.9891421  43.5741377
 103.0450012  92.0734997  49.8299988 103.4070012  92.9284997  49.5959988
 103.5760012  91.7814997  50.5699988 103.1664473  92.1511060  49.8980855
 101.2130012  92.9464997  43.0599988 100.2630012  93.0514997  43.1109988
 101.5650012  93.7664997  43.4049988 101.1304203  93.0718314  43.1136650
 106.5890012  88.1724997  49.5299988 106.1630012  87.9454997  50.3569988
 107.1690012  87.4344997  49.3479988 106.6091868  88.0415299  49.6185830
 108.7920012  89.1014997  38.6039988 109.1450012  88.7214997  39.4089988
 107.8430012  89.0084997  38.6909988 108.7120441  89.0369596  38.7258559
 109.2470012  92.7244997  51.9999988 108.6460012  92.1694997  51.5039988
 109.5290012  93.3914997  51.3739988 109.2028519  92.7386841  51.8474952
 113.2950012  93.5814997  38.8049988 114.0390012  94.1674997  38.6649988
 112.6010012  94.1494997  39.1389988 113.3030292  93.7385582  38.8309961
  97.3700012  79.9574997  51.4069988  96.4770012  80.2964997  51.3389988
  97.2710012  79.1024997  51.8249988  97.2344164  79.8882588  51.4542235
 109.6580012  87.7744997  40.8309988 109.3800012  87.0464997  41.3869988
 110.5850012  87.8934997  41.0359988 109.7453124  87.6908802  40.9348845
  97.0210012  91.7624997  49.8419988  97.2380012  90.8304997  49.8109988
  97.2670012  92.0364997  50.7249988  97.0839549  91.6720636  49.9571763
 102.8830012  90.2134997  37.0509988 103.1220012  89.4654997  36.5039988
 102.6140012  89.8254997  37.8839988 102.8793675  90.0586638  37.0886865
 101.8200012  89.7834997  39.5079988 101.9660012  89.2634997  40.2979988
 101.8170012  90.6904997  39.8139988 101.8395989  89.8348853  39.6576088
  98.2730012  87.0364997  40.0179988  97.5870012  87.3884997  40.5849988
  98.7950012  87.7994997  39.7709988  98.2496852  87.1878578  40.0622118
 106.1040012  79.6984997  50.2969988 106.8030012  79.7724997  50.9469988
 105.7230012  78.8344997  50.4509988 106.1481767  79.5917624  50.4068322
 106.8890012  79.3504997  41.3939988 107.1090012  79.8224997  40.5909988
 107.4470012  79.7454997  42.0639988 106.9944968  79.4684285  41.3747331
 104.5570012  91.4814997  40.2569988 103.7410012  91.9784997  40.3089988
 105.0870012  91.9564997  39.6169988 104.5169161  91.6137722  40.1775956
 104.0890012  81.0784997  42.2289988 104.9010012  81.5834997  42.2749988
 103.8440012  80.9334997  43.1429988 104.1670520  81.1280375  42.3588517
 104.6240012  82.0644997  51.4139988 104.7430012  82.6384997  52.1709988
 105.2800012  81.3764997  51.5279988 104.7289757  82.0501079  51.5330825
 104.9720012  78.1594997  43.1669988 104.6260012  78.7774997  43.8119988
 105.6310012  78.6604997  42.6859988 105.0137826  78.3115802  43.1900971
 101.8960012  92.5254997  40.2389988 102.0560012  93.3244997  39.7379988
 101.6980012  92.8314997  41.1239988 101.8911649  92.6764469  40.2899815
 110.8290012  79.9714997  52.2489988 109.9120012  80.2344997  52.1609988
 111.1640012  79.9684997  51.3519988 110.7489900  80.0070224  52.1157919
 109.4310012  83.7224997  46.3439988 108.6330012  83.3074997  46.0159988
 109.8760012  83.0314997  46.8349988 109.3819885  83.5723543  46.3654889
  98.8890012  89.6504997  38.9149988  99.4810012  90.3494997  39.1909988
  99.3480012  89.2174997  38.1949988  99.0321142  89.6877049  38.8554830
 110.5170012  92.9784997  47.9669988 110.3620012  93.6564997  47.3099988
 111.4500012  93.0504997  48.1699988 110.6218500  93.0810170  47.9045119
  98.0130012  77.0964997  46.7039988  97.7840012  77.1554997  45.7759988
  97.5700012  76.3044997  47.0099988  97.9218530  76.9975753  46.6184786
  96.9430012  91.0364997  42.8639988  96.1110012  91.5094997  42.8919988
  97.4890012  91.5464997  42.2659988  96.9029739  91.1701871  42.7869716
  96.2310012  93.6494997  54.1939988  96.7720012  93.4324997  54.9539988
  95.7500012  92.8434997  54.0049988  96.2399345  93.5109514  54.2723076
 100.8290012  92.5684997  55.8149988 101.5960012  92.1094997  56.1559988
 100.8070012  92.3424997  54.8849988 100.9311434  92.4750409  55.7360043
 104.9210012  92.0764997  37.1899988 104.2770012  91.4454997  37.5109988
 105.6830012  91.5454997  36.9579988 104.9358077  91.9182920  37.2026011
 107.4060012  90.9484997  54.5439988 107.0550012  90.0924997  54.7869988
 108.1320012  91.0914997  55.1509988 107.4560769  90.8505636  54.6593619
 109.5250012  91.8934997  37.4239988 109.8080012  91.0994997  37.8759988
 110.2650012  92.1264997  36.8629988 109.6637486  91.8162803  37.4100698
  96.1380012  87.4594997  55.1489988  96.2820012  86.5574997  54.8619988
  95.3660012  87.7454997  54.6609988  96.0533322  87.3748261  55.0437881
 100.4800012  87.8034997  37.2809988 100.5440012  87.0094997  37.8119988
 101.1330012  87.6844997  36.5909988 100.5770241  87.6787148  37.2604317
 102.7940012  87.4294997  54.5809988 102.4650012  87.7004997  53.7239988
 102.9460012  86.4884997  54.4939988 102.7694809  87.3393862  54.4518244
 105.8320012  88.8504997  37.0169988 105.5630012  89.0304997  37.9179988
 105.6260012  87.9244997  36.8859988 105.7673825  88.7500152  37.1225214
 108.5280012  87.3454997  51.9649988 109.2740012  87.9334997  51.8449988
 107.7710012  87.9274997  52.0279988 108.5277554  87.5047011  51.9570907
  96.9710012  84.6594997  54.5689988  97.3790012  83.8024997  54.4479988
  96.7110012  84.6744997  55.4899988  96.9917568  84.5440807  54.6769588
 101.6290012  85.7754997  39.5869988 101.1690012  85.2914997  40.2729988
 101.8840012  85.1074997  38.9509988 101.6004902  85.6188731  39.5949334
 100.9180012  83.6684997  51.9429988 100.3000012  84.3434997  52.2229988
 101.2620012  83.9894997  51.1099988 100.8799615  83.8042721  51.8686581
 102.7000012  84.0184997  37.8489988 102.5200012  83.8644997  36.9219988
 103.6500012  84.1264997  37.8939988 102.8037776  84.0120175  37.7281843
 105.9380012  86.1404997  55.2199988 106.8910012  86.2234997  55.1929988
 105.7770012  85.4284997  55.8399988 106.0466426  86.0556746  55.3000579
 112.0900012  86.3734997  37.2949988 111.8160012  85.9484997  36.4819988
 112.1290012  87.3044997  37.0779988 112.0577699  86.4412484  37.1543610
 101.2570012  81.0234997  53.0249988 101.4070012  80.2944997  52.4229988
 101.2600012  81.8004997  52.4659988 101.2779302  81.0287851  52.8670692
 101.6700012  79.3934997  50.5179988 102.2060012  79.8444997  49.8659988
 100.8180012  79.2854997  50.0949988 101.6282178  79.4406390  50.3715756
 103.2520012  84.8324997  50.7569988 104.0020012  84.6764997  50.1839988
 102.9130012  85.6844997  50.4819988 103.3088921  84.9262968  50.6413561
 107.6670012  82.6474997  55.7859988 107.8600012  81.7164997  55.6739988
 108.5250012  83.0724997  55.7759988 107.8093020  82.5776389  55.7693361
 108.9840012  85.4364997  53.8629988 108.7030012  86.1454997  53.2859988
 109.9270012  85.3634997  53.7119988 109.0729027  85.5237646  53.7635551
  99.7360012  82.2214997  54.9369988  98.9690012  81.6894997  54.7269988
 100.4150012  81.9114997  54.3369988  99.7227022  82.1067506  54.8271648
 102.4760012  76.8494997  50.9489988 102.3770012  77.7964997  50.8439988
 101.7330012  76.4774997  50.4739988 102.3620564  76.9285902  50.8704560
 103.7400012  81.1714997  54.5129988 103.5040012  80.9514997  55.4149988
 102.9560012  80.9644997  54.0029988 103.6018628  81.1134760  54.5673932
 106.4550012  80.2984997  53.5889988 105.5080012  80.3304997  53.7209988
 106.7680012  79.6734997  54.2419988 106.3675475  80.2183207  53.6954455
 108.0890012  78.9324997  55.5939988 107.9930012  77.9804997  55.5879988
 107.7680012  79.2014997  56.4539988 108.0324070  78.8384035  55.7095441
  97.9160012  80.1424997  54.6409988  98.1280012  79.4354997  54.0309988
  97.8050012  79.7044997  55.4849988  97.9299721  79.9867084  54.6716843
 102.6970012  76.1434997  53.6209988 103.4090012  75.5034997  53.6069988
 102.5960012  76.4104997  52.7069988 102.7807939  76.0919938  53.4955650
 103.0510012  77.8264997  55.6739988 102.9190012  77.3504997  54.8539988
 102.4520012  78.5704997  55.6189988 102.9519071  77.8619618  55.5542886
 102.5970012  94.7094997  38.8509988 103.5300012  94.8674997  38.9939988
 102.3330012  95.3844997  38.2259988 102.6889510  94.8223611  38.7860741
  96.1660012  89.3454997  38.3329988  97.0800012  89.4244997  38.6069988
  96.1730012  88.6584997  37.6669988  96.2921131  89.2633961  38.2804393
  94.8150012  94.7384997  43.4109988  94.1680012  94.2764997  42.8779988
  95.1690012  94.0664997  43.9929988  94.7743849  94.5844723  43.4167959
  95.6850012  92.8194997  45.2149988  95.3500012  91.9394997  45.3869988
  95.9070012  93.1644997  46.0799988  95.6691783  92.7457500  45.3554208
 113.2330012  93.6284997  48.1959988 113.2120012  93.8134997  49.1349988
 113.9240012  94.1974997  47.8549988 113.3234618  93.7306606  48.2783864
 112.7970012  93.1964997  51.1179988 112.3090012  92.4604997  50.7469988
 113.3460012  92.8024997  51.7959988 112.8044872  93.0426249  51.1589160
 111.2470012  88.9854997  55.7559988 110.3810012  88.8804997  56.1499988
 111.6240012  89.7444997  56.2019988 111.1793308  89.0736900  55.8702393
 112.5480012  87.2424997  41.2699988 113.3980012  87.6634997  41.3969988
 112.5540012  86.5024997  41.8769988 112.6651372  87.2000803  41.3694344
 112.9430012  85.2954997  43.0939988 112.2160012  84.8164997  43.4909988
 113.5240012  85.5014997  43.8259988 112.9219375  85.2577090  43.2474129
 112.7020012  88.0804997  48.0409988 113.5350012  87.7024997  47.7609988
 112.8140012  89.0234997  47.9219988 112.8312647  88.1562218  47.9865487
 111.1880012  90.9584997  50.3479988 110.5410012  91.2834997  50.9739988
 110.6710012  90.5184997  49.6739988 111.0294029  90.9435004  50.3425827
 113.2110012  85.1964997  39.4849988 112.6890012  85.5534997  38.7659988
 113.1780012  85.8714997  40.1629988 113.1351634  85.3365413  39.4783145
 111.5600012  82.4364997  38.0359988 111.6560012  83.1034997  37.3549988
 111.4200012  81.6204997  37.5539988 111.5542135  82.4174500  37.8778491
 110.7290012  83.8164997  43.6569988 110.5790012  82.8714997  43.6359988
 110.3760012  84.0974997  44.4999988 110.6606625  83.7250441  43.7682346
  95.7650012  85.8944997  47.6669988  95.9490012  85.8124997  46.7309988
  96.6140012  85.7704997  48.0909988  95.9050139  85.8665003  47.5961455
 111.5860012  85.7864997  53.2949988 112.1690012  85.0524997  53.4869988
 112.1500012  86.5584997  53.3419988 111.7419769  85.7904227  53.3276159
 113.0820012  83.6894997  53.9799988 112.2190012  83.3104997  53.8139988
 113.6870012  82.9504997  53.9059988 113.0455979  83.5378023  53.9472817
 110.8070012  79.8444997  37.1529988 111.4180012  79.4734997  37.7899988
 109.9710012  79.4234997  37.3489988 110.7775032  79.7367554  37.2667035
 110.4400012  81.3994997  42.1189988 110.7200012  80.4924997  42.2429988
 111.1990012  81.8334997  41.7299988 110.5809277  81.3340942  42.0833682
 111.0520012  81.9804997  47.5549988 111.9850012  82.1924997  47.5209988
 110.8170012  82.0824997  48.4769988 111.1478036  82.0232769  47.6749976
 111.0810012  82.7174997  50.3309988 110.2380012  82.9854997  50.6969988
 111.5230012  83.5394997  50.1199988 111.0254158  82.8653291  50.3525491
  95.3620012  81.1654997  53.8079988  96.2820012  81.0434997  54.0439988
  94.9130012  80.4154997  54.1969988  95.4271580  81.0473727  53.8929006
 113.3640012  76.6974997  55.6839988 113.7140012  76.0434997  55.0789988
 113.5110012  77.5344997  55.2449988 113.4318419  76.7211591  55.5417118
 111.0530012  78.6624997  42.1669988 111.2360012  78.2134997  42.9929988
 110.4540012  78.0774997  41.7039988 110.9970202  78.5219975  42.2173275
  96.5830012  79.4774997  46.6989988  97.0290012  78.6854997  47.0009988
  97.0500012  80.1934997  47.1299988  96.7070172  79.4660624  46.7984820
  94.8870012  82.4764997  47.7679988  95.3790012  82.2554997  46.9769988
  95.2500012  83.3174997  48.0489988  95.0033126  82.5598357  47.6977531
 112.8840012  78.8064997  54.0339988 111.9660012  79.0774997  53.9979988
 113.0070012  78.2714997  53.2489988 112.7751066  78.7712892  53.9230487
 112.9200012  78.7294997  38.6949988 113.3320012  78.0084997  38.2199988
 113.6020012  79.3994997  38.7539988 113.0685885  78.7212368  38.6378915
 109.9720012  93.7184997  43.7679988 110.6240012  93.3714997  43.1599988
 110.4820012  94.2074997  44.4139988 110.1302637  93.7370597  43.7720236
  95.1650012  77.4724997  50.1669988  94.5000012  77.2264997  50.8099988
  94.7220012  78.0944997  49.5889988  95.0140956  77.5228632  50.1769352
  97.3570012  90.6474997  54.3109988  96.5360012  90.8224997  53.8509988
  97.1040012  90.5744997  55.2319988  97.2106164  90.6615622  54.3724923
 100.3110012  91.6224997  50.5699988  99.8860012  92.4314997  50.2869988
 101.2150012  91.7074997  50.2679988 100.3750271  91.7448469  50.4903776
 104.6220012  93.0214997  53.5289988 104.8070012  92.6874997  54.4069988
 105.4680012  93.3304997  53.2069988 104.7617539  93.0176047  53.6055605
 106.9670012  94.3074997  52.7729988 107.6440012  93.6744997  52.5329988
 107.2890012  94.7084997  53.5799988 107.1031637  94.2751154  52.8492793
 111.8840012  76.8964997  51.8529988 111.0720012  77.2214997  51.4649988
 112.1170012  76.1364997  51.3199988 111.8043423  76.8382436  51.7278253
  97.7130012  94.8784997  50.6169988  96.9920012  95.3184997  50.1659988
  97.3470012  94.6274997  51.4659988  97.5649804  94.9047698  50.6699840
 100.1800012  94.4784997  49.6469988  99.3150012  94.5504997  50.0509988
 100.1250012  95.0254997  48.8629988 100.0542085  94.5622685  49.5963362
 104.8900012  94.3664997  48.8219988 104.4340012  94.8954997  48.1679988
 105.0530012  94.9694997  49.5479988 104.8495585  94.5204468  48.8305062
 107.2180012  93.2444997  49.7669988 106.3130012  93.4094997  49.5019988
 107.6470012  94.0974997  49.7019988 107.1520799  93.3824483  49.7219182
 109.8220012  94.8144997  50.0619988 109.6400012  95.7304997  49.8519988
 109.9990012  94.4044997  49.2159988 109.8210210  94.8844822  49.9187885
  97.1270012  93.5014997  47.5269988  97.1090012  93.0764997  48.3849988
  97.9320012  93.1834997  47.1189988  97.2333875  93.4003812  47.5891655
  99.2690012  92.2114997  46.1819988  99.0500012  91.2954997  46.3519988
 100.0930012  92.3514997  46.6479988  99.3504420  92.1050520  46.2682774
 101.8060012  92.6814997  47.0309988 102.0190012  91.7934997  46.7439988
 101.8700012  92.6474997  47.9849988 101.8438232  92.5553102  47.1207397
 105.3140012  78.3454997  46.1749988 104.6400012  77.7164997  46.4309988
 105.8780012  77.8614997  45.5719988 105.2979230  78.1938744  46.1285340
 110.4570012  76.4534997  46.2879988 111.0610012  77.0004997  45.7859988
 109.5870012  76.7724997  46.0479988 110.4221241  76.5715806  46.1867654
 112.1840012  77.5914997  44.6209988 112.7960012  77.0774997  44.0949988
 112.5660012  78.4694997  44.6449988 112.3194540  77.6397140  44.5521830
  97.6410012  76.9794997  43.9969988  96.8640012  76.7454997  43.4899988
  98.1710012  76.1824997  44.0059988  97.6062330  76.8396988  43.9287742
 102.2200012  76.9064997  43.8109988 103.0950012  77.2944997  43.7809988
 102.0840012  76.6914997  44.7329988 102.3213695  76.9305184  43.9316440
 107.7770012  76.9364997  45.4599988 107.8530012  77.0314997  44.5099988
 107.5020012  76.0284997  45.5889988 107.7502321  76.8267867  45.3475079
 109.1300012  76.9624997  41.1519988 108.4280012  77.5774997  40.9429988
 108.6860012  76.1244997  41.2829988 108.9736330  76.9335783  41.1410328
  96.3780012  92.7254997  40.6989988  95.6930012  92.6874997  40.0309988
  96.3820012  93.6384997  40.9869988  96.2848193  92.8437016  40.6465284
 105.2430012  93.9354997  39.0959988 106.1090012  94.3014997  38.9179988
 104.9960012  93.4954997  38.2819988 105.3282392  93.9261756  38.9616289
 111.9520012  93.4984997  41.7749988 111.7570012  92.7504997  41.2099988
 111.9130012  94.2564997  41.1919988 111.9200380  93.4986099  41.6188384
  97.5990012  77.4934997  53.5149988  97.2330012  76.7284997  53.9579988
  98.5120012  77.5224997  53.8019988  97.6722790  77.3927224  53.6144070
  99.5720012  76.8444997  55.0509988 100.4700012  76.5704997  54.8659988
  99.1850012  76.1014997  55.5149988  99.6426612  76.7065914  55.0883643
  98.1960012  93.6454997  37.7239988  97.9290012  93.9324997  38.5969988
  98.9680012  93.0994997  37.8759988  98.2637488  93.6110294  37.8641050
 107.9930012  76.1764997  55.2329988 108.0700012  75.7504997  56.0869988
 108.8870012  76.1904997  54.8899988 108.1243428  76.1200879  55.3035310
 111.1690012  92.2494997  53.9249988 110.3870012  92.0634997  53.4059988
 111.0970012  93.1784997  54.1429988 111.0521777  92.3496492  53.8834048
 125.5750012  86.1354997  43.9559988 125.6640012  87.0794997  43.8239988
 124.9370012  85.8604997  43.2979988 125.5009081  86.2274830  43.8489614
 124.5080012  85.3904997  47.3749988 124.4700012  84.7444997  48.0799988
 124.1860012  84.9244997  46.6039988 124.4592333  85.2389408  47.3672978
 116.8770012  85.0054997  48.9679988 116.9180012  84.3794997  49.6909988
 117.5800012  85.6294997  49.1499988 116.9776363  85.0041196  49.0916044
 128.2140012  88.3294997  45.6759988 127.7740012  87.6094997  46.1269988
 128.2010012  89.0504997  46.3059988 128.1520226  88.3283731  45.8228494
 117.8000012  89.4554997  47.5029988 117.4310012  88.6534997  47.1329988
 118.7410012  89.2864997  47.5489988 117.8767289  89.3230153  47.4586316
 114.4100012  83.1154997  42.8959988 113.9630012  83.9614997  42.8769988
 113.8490012  82.5354997  42.3799988 114.2729900  83.1529916  42.8236801
 115.1210012  85.2774997  45.0219988 115.3340012  84.5074997  45.5489988
 115.8590012  85.3664997  44.4179988 115.2498496  85.1841394  45.0125300
 125.3260012  93.4344997  45.8889988 125.9460012  92.7574997  45.6149988
 125.1180012  93.2164997  46.7969988 125.3826904  93.3123870  45.9743365
 122.8980012  87.8234997  47.7809988 123.2020012  87.1374997  47.1859988
 123.6190012  87.9414997  48.3989988 123.0370671  87.7456304  47.7831816
 131.5610012  79.4244997  48.6419988 131.6100012  80.0344997  49.3779988
 131.9860012  79.8854997  47.9189988 131.6251824  79.5703741  48.6450205
 126.0390012  82.2174997  48.1089988 126.1810012  81.2714997  48.1289988
 125.9320012  82.4244997  47.1799988 126.0439864  82.1159534  47.9862339
 119.1930012  80.3184997  45.3809988 119.2370012  81.1784997  44.9629988
 118.7360012  79.7664997  44.7469988 119.1372185  80.3615799  45.2380299
 126.9160012  80.4494997  43.7819988 127.5620012  80.1204997  44.4069988
 127.4260012  80.9674997  43.1589988 127.0734264  80.4744611  43.7833862
 115.8140012  82.7154997  46.1429988 116.4670012  82.1654997  46.5749988
 115.8380012  82.4414997  45.2259988 115.9066683  82.6031466  46.0782123
 120.9700012  84.2654997  45.3579988 121.5860012  83.7394997  45.8679988
 120.3840012  83.6254997  44.9549988 120.9750810  84.1069208  45.3733173
 131.9520012  80.9024997  50.8779988 131.2640012  81.5604997  50.7819988
 131.9680012  80.7054997  51.8139988 131.8598525  80.9660462  50.9914808
 118.0040012  79.2364997  49.4549988 117.7850012  79.7664997  48.6889988
 117.3360012  79.4634997  50.1019988 117.8837600  79.3396906  49.4376379
 125.3730012  88.7364997  42.9989988 125.0770012  88.4144997  42.1479988
 125.0480012  89.6364997  43.0399988 125.2886371  88.8140215  42.8881801
 120.5730012  86.9124997  49.7419988 119.8330012  87.5104997  49.8459988
 121.2870012  87.4664997  49.4269988 120.5682237  87.0692831  49.7136465
 128.6800012  79.7404997  45.7619988 128.4640012  78.9744997  46.2949988
 129.3350012  80.2124997  46.2749988 128.7390632  79.6995889  45.9042861
 117.5970012  81.1284997  47.4069988 118.2110012  81.7614997  47.7809988
 118.1090012  80.6564997  46.7509988 117.7502296  81.1512370  47.3694252
 118.9800012  88.8764997  50.5299988 118.9750012  89.7564997  50.1519988
 118.1270012  88.7934997  50.9549988 118.8639464  88.9856117  50.5357907
 115.1010012  88.5474997  41.3119988 114.8290012  88.7764997  40.4229988
 115.1470012  89.3854997  41.7719988 115.0700094  88.6921213  41.2525697
 128.7260012  90.1694997  48.0239988 127.7850012  90.2274997  48.1859988
 129.0030012  91.0754997  47.8869988 128.6344679  90.2999443  48.0276815
 129.0270012  78.4554997  49.4419988 128.2910012  79.0664997  49.4039988
 129.7100012  78.8704997  48.9149988 129.0186541  78.5951374  49.3655832
 122.0300012  76.5424997  46.9079988 121.9130012  75.5934997  46.8529988
 121.1750012  76.8744997  47.1809988 121.8983733  76.4575409  46.9373897
 126.9780012  91.9504997  44.6499988 127.4040012  91.2434997  44.1649988
 127.2950012  92.7514997  44.2329988 127.0791019  91.9620994  44.5273130
 128.1380012  89.8514997  43.1579988 127.8800012  89.1614997  42.5469988
 128.2090012  89.4084997  44.0039988 128.1122856  89.6972124  43.1886885
 129.8240012  88.4174997  51.6359988 129.9640012  87.8264997  50.8959988
 129.9910012  89.2904997  51.2789988 129.8656778  88.4546426  51.4866965
 124.2970012  85.3794997  41.4079988 123.5850012  85.9144997  41.0559988
 124.9880012  85.4354997  40.7479988 124.2930132  85.4602543  41.2706289
 124.3500012  83.8374997  38.4469988 125.0510012  83.8594997  39.0979988
 124.6530012  83.2094997  37.7909988 124.4867830  83.7556566  38.4473711
 131.6660012  84.7574997  49.7019988 131.0130012  85.4524997  49.7909988
 132.1310012  84.9674997  48.8919988 131.6395390  84.8809425  49.6046883
 127.7020012  85.5894997  42.3599988 126.9700012  85.8174997  42.9329988
 128.1500012  84.8754997  42.8149988 127.6623095  85.5242571  42.4999119
 127.6000012  83.7634997  51.4269988 127.6800012  84.5264997  51.9989988
 126.9980012  84.0424997  50.7369988 127.5295756  83.9057134  51.4120589
 119.3480012  86.2194997  44.2419988 119.0170012  85.8494997  43.4239988
 119.9360012  85.5494997  44.5889988 119.3821873  86.0781156  44.1768102
 120.7140012  89.6474997  46.9239988 120.6200012  89.0694997  46.1669988
 121.4440012  89.2764997  47.4199988 120.7997981  89.5182390  46.8874165
 119.7140012  84.9884997  47.8759988 120.2800012  85.1094997  47.1129988
 120.0330012  85.6254997  48.5149988 119.8345786  85.0911884  47.8580040
 126.0230012  90.4914997  48.6099988 125.7830012  91.1534997  49.2579988
 125.8250012  89.6574997  49.0349988 125.9633808  90.4693134  48.7561524
 120.5940012  89.3874997  52.5929988 120.2830012  90.1694997  53.0479988
 119.9440012  89.2344997  51.9069988 120.4635558  89.4739105  52.5625871
 126.5730012  84.7514997  40.0449988 127.1530012  84.9014997  40.7919988
 126.9870012  85.2224997  39.3219988 126.7082830  84.8356841  40.0494134
 117.5140012  85.5854997  51.8219988 117.5850012  86.2364997  52.5199988
 116.6240012  85.6884997  51.4869988 117.4033117  85.6885936  51.8722700
 124.3000012  91.4884997  43.4799988 124.7740012  91.7834997  44.2579988
 123.7370012  92.2264997  43.2469988 124.2887653  91.6286932  43.5550136
 118.8340012  91.4594997  53.3559988 118.8410012  91.3234997  52.4089988
 117.9180012  91.3414997  53.6079988 118.7111714  91.4249430  53.2604666
 130.2720012  76.5014997  39.8579988 129.3720012  76.6404997  40.1529988
 130.5240012  77.3324997  39.4559988 130.1828702  76.6329074  39.8440205
 118.3380012  85.2894997  41.8319988 118.0460012  86.0574997  41.3409988
 117.6640012  84.6294997  41.6689988 118.2069081  85.3054406  41.7427339
 131.4610012  90.8674997  38.2339988 131.5350012  91.8064997  38.4049988
 132.3670012  90.5624997  38.1779988 131.5935100  90.9546722  38.2498119
 114.4310012  87.6524997  50.6469988 113.9300012  87.6244997  49.8319988
 114.4360012  86.7464997  50.9559988 114.3631526  87.5262278  50.5772872
 114.1810012  90.4324997  47.5309988 115.1270012  90.2884997  47.5119988
 114.0690012  91.2164997  48.0679988 114.2952727  90.5188046  47.6010072
 132.3790012  91.0984997  53.2129988 132.3300012  90.1434997  53.1759988
 131.5520012  91.3664997  53.6139988 132.2604940  91.0038998  53.2621375
 123.3580012  90.6724997  52.0889988 123.4450012  91.4984997  52.5639988
 122.4940012  90.3424997  52.3379988 123.2531964  90.7409878  52.1876549
 123.7720012  94.4444997  41.8949988 123.6970012  94.3234997  40.9489988
 123.8050012  95.3944997  42.0139988 123.7661848  94.5562500  41.7814834
 117.4250012  93.2334997  43.6759988 117.5780012  92.8854997  44.5549988
 116.5750012  92.8774997  43.4209988 117.3308962  93.1376650  43.7618340
 126.8740012  93.5984997  38.8969988 127.2490012  92.8544997  38.4269988
 126.8780012  93.3284997  39.8159988 126.9258915  93.4601486  38.9567824
 126.5430012  93.5244997  41.6469988 125.6070012  93.6244997  41.8249988
 126.8230012  92.8154997  42.2249988 126.4528255  93.4422711  41.7495391
 129.5310012  82.5914997  53.6929988 129.1240012  83.0724997  52.9719988
 129.5720012  81.6864997  53.3849988 129.4808437  82.5349374  53.5526683
 116.6800012  88.9754997  51.6899988 116.8960012  88.6144997  52.5489988
 115.8250012  88.6014997  51.4799988 116.5939292  88.8754111  51.7793386
 119.2990012  77.4454997  47.6849988 118.4370012  77.3584997  47.2779988
 119.2760012  78.3014997  48.1129988 119.1780330  77.5492765  47.6871863
 123.9620012  77.1674997  51.0599988 124.3820012  76.7524997  51.8129988
 123.0290012  76.9894997  51.1769988 123.8933644  77.0865900  51.1789539
 127.2880012  80.9234997  51.9129988 126.7740012  80.7974997  52.7109988
 127.1330012  81.8354997  51.6689988 127.1966852  81.0296132  51.9892158
 128.0510012  85.7844997  37.6749988 128.0930012  85.5614997  36.7449988
 128.9000012  86.1834997  37.8649988 128.1715396  85.8079155  37.5733627
 123.6230012  79.6604997  38.3449988 123.3700012  79.6794997  39.2679988
 123.3670012  78.7884997  38.0439988 123.5537790  79.5452437  38.4306263
 119.3900012  82.4114997  48.7799988 118.7480012  82.3704997  49.4889988
 119.4270012  83.3374997  48.5429988 119.3071324  82.5311559  48.8449824
 119.3870012  82.6324997  43.6919988 118.4940012  82.2914997  43.6339988
 119.8370012  82.2554997  42.9369988 119.3257305  82.5348484  43.5819177
 124.9220012  83.0484997  42.5089988 124.5130012  83.8634997  42.2179988
 125.6430012  82.9084997  41.8949988 124.9634537  83.1412018  42.3861342
 124.0240012  83.2234997  53.9969988 123.4620012  82.5194997  54.3179988
 124.8510012  83.1034997  54.4649988 124.0587095  83.1107883  54.1042330
 125.9270012  82.4944997  45.3229988 125.7320012  83.0994997  44.6079988
 126.1080012  81.6604997  44.8889988 125.9247614  82.4646300  45.1664405
 117.1400012  82.7314997  50.6469988 117.1020012  83.1314997  51.5159988
 116.6490012  81.9144997  50.7379988 117.0684684  82.6758069  50.7781059
 120.5060012  80.1054997  37.4459988 120.0750012  79.6604997  38.1759988
 119.7880012  80.4774997  36.9339988 120.3499438  80.0948940  37.4766799
 113.7480012  79.8474997  44.4979988 114.3790012  79.8184997  45.2169988
 114.1970012  79.4224997  43.7679988 113.8950774  79.7860492  44.4976553
 115.0220012  80.5934997  39.9219988 115.4960012  81.1844997  39.3369988
 114.3050012  81.1244997  40.2689988 114.9899341  80.7460867  39.8888836
 125.1910012  84.1324997  49.9949988 125.5140012  83.5014997  49.3519988
 124.7510012  83.5974997  50.6549988 125.1756895  83.9738441  49.9962850
 121.9680012  80.0594997  44.7789988 121.0570012  80.1164997  45.0669988
 122.4740012  79.9994997  45.5889988 121.9115413  80.0591985  44.9280622
 116.7970012  81.6884997  43.6049988 115.9070012  81.7884997  43.2649988
 117.0930012  80.8464997  43.2589988 116.7152823  81.5883545  43.5117213
 120.4500012  81.6884997  41.2619988 121.3810012  81.8174997  41.4399988
 120.2350012  82.3584997  40.6119988 120.5484247  81.7966565  41.1985747
 126.3730012  79.2944997  48.0429988 125.6970012  79.4254997  48.7069988
 125.8880012  79.1394997  47.2329988 126.2147145  79.2914905  48.0244517
 119.1240012  82.8834997  38.8289988 118.5810012  82.5034997  38.1369988
 119.9570012  83.0774997  38.3999988 119.1624399  82.8578124  38.6764526
 129.6610012  94.9664997  54.3199988 129.8610012  95.3904997  53.4849988
 130.3160012  95.3094997  54.9269988 129.7770051  95.0709648  54.2877836
 117.2590012  87.4404997  53.9279988 117.9910012  87.6944997  54.4889988
 116.4790012  87.6444997  54.4429988 117.2538232  87.5029177  54.0745760
 123.2880012  82.8474997  46.6659988 123.8530012  82.3004997  46.1189988
 123.1410012  82.3254997  47.4539988 123.3452918  82.7022024  46.6978454
 118.2900012  78.9834997  43.0839988 117.9730012  78.0814997  43.0489988
 119.0720012  78.9854997  42.5309988 118.3522284  78.8601628  43.0044783
 121.9150012  81.2354997  49.0799988 121.0790012  81.6894997  49.1899988
 122.4390012  81.5114997  49.8319988 121.8714414  81.3349376  49.1967136
 122.4590012  87.4484997  40.7639988 121.7140012  86.9414997  40.4419988
 122.3250012  87.4974997  41.7109988 122.3388776  87.3856940  40.8478647
 129.6090012  86.5814997  49.5509988 130.2510012  87.0384997  49.0069988
 128.7790012  86.6944997  49.0879988 129.5845963  86.6592704  49.4140177
 126.3570012  80.2624997  38.9639988 125.4180012  80.3744997  38.8119988
 126.6540012  81.1194997  39.2699988 126.2687666  80.3936443  38.9845768
 123.9780012  87.6324997  52.0009988 123.6330012  87.2514997  52.8079988
 123.7780012  88.5664997  52.0729988 123.9038061  87.7065228  52.1210961
 127.0750012  82.1294997  40.6239988 127.9670012  81.9924997  40.9429988
 127.1320012  82.9204997  40.0879988 127.2046285  82.2176660  40.5951691
 117.5840012  86.7434997  46.5339988 118.3290012  86.7414997  45.9329988
 117.6620012  85.9204997  47.0159988 117.6965518  86.6319315  46.5168929
 124.5850012  88.9074997  39.7899988 124.2890012  89.7334997  40.1709988
 123.8820012  88.2874997  39.9859988 124.4494914  88.9368199  39.8686443
 114.5920012  85.2044997  51.8489988 114.8150012  84.7864997  52.6809988
 113.9900012  84.5914997  51.4259988 114.5411759  85.0644668  51.9057022
 121.6080012  84.7214997  54.0619988 121.3120012  84.5554997  53.1669988
 122.5400012  84.5014997  54.0509988 121.6934166  84.6690640  53.9380536
 126.2290012  90.0944997  51.9519988 125.3280012  90.2774997  51.6839988
 126.2630012  90.3534997  52.8729988 126.1103041  90.1545512  52.0398197
 131.9600012  82.3394997  40.3189988 131.4060012  81.9434997  39.6469988
 132.0600012  83.2494997  40.0409988 131.8977059  82.4083586  40.1894401
 131.9230012  88.1394997  53.1559988 131.0720012  88.3774997  52.7889988
 132.5140012  88.1224997  52.4029988 131.8862487  88.1698258  53.0038893
 130.2550012  91.1254997  40.7839988 129.8820012  90.2994997  41.0929988
 130.5330012  90.9424997  39.8869988 130.2415630  90.9877303  40.7049626
 127.4160012  85.9334997  47.8049988 126.4870012  85.7014997  47.7779988
 127.8670012  85.1564997  47.4749988 127.3499216  85.7967238  47.7566917
 119.9590012  90.2614997  43.9379988 120.4860012  91.0344997  43.7379988
 119.0790012  90.4864997  43.6369988 119.9121773  90.3978005  43.8699010
 115.7140012  85.1234997  38.5249988 116.3300012  85.7504997  38.9049988
 114.8520012  85.4394997  38.7969988 115.6817698  85.2519430  38.6137183
 121.3860012  87.9244997  43.5149988 121.1450012  88.8494997  43.5559988
 120.6450012  87.4654997  43.9109988 121.2528409  87.9891421  43.5741377
 121.9010012  92.0734997  49.8299988 122.2630012  92.9284997  49.5959988
 122.4320012  91.7814997  50.5699988 122.0224473  92.1511060  49.8980855
 120.0690012  92.9464997  43.0599988 119.1190012  93.0514997  43.1109988
 120.4210012  93.7664997  43.4049988 119.9864203  93.0718314  43.1136650
 125.4450012  88.1724997  49.5299988 125.0190012  87.9454997  50.3569988
 126.0250012  87.4344997  49.3479988 125.4651868  88.0415299  49.6185830
 127.6480012  89.1014997  38.6039988 128.0010012  88.7214997  39.4089988
 126.6990012  89.0084997  38.6909988 127.5680441  89.0369596  38.7258559
 128.1030012  92.7244997  51.9999988 127.5020012  92.1694997  51.5039988
 128.3850012  93.3914997  51.3739988 128.0588519  92.7386841  51.8474952
 132.1510012  93.5814997  38.8049988 132.8950012  94.1674997  38.6649988
 131.4570012  94.1494997  39.1389988 132.1590292  93.7385582  38.8309961
 116.2260012  79.9574997  51.4069988 115.3330012  80.2964997  51.3389988
 116.1270012  79.1024997  51.8249988 116.0904164  79.8882588  51.4542235
 128.5140012  87.7744997  40.8309988 128.2360012  87.0464997  41.3869988
 129.4410012  87.8934997  41.0359988 128.6013124  87.6908802  40.9348845
 115.8770012  91.7624997  49.8419988 116.0940012  90.8304997  49.8109988
 116.1230012  92.0364997  50.7249988 115.9399549  91.6720636  49.9571763
 121.7390012  90.2134997  37.0509988 121.9780012  89.4654997  36.5039988
 121.4700012  89.8254997  37.8839988 121.7353675  90.0586638  37.0886865
 120.6760012  89.7834997  39.5079988 120.8220012  89.2634997  40.2979988
 120.6730012  90.6904997  39.8139988 120.6955989  89.8348853  39.6576088
 117.1290012  87.0364997  40.0179988 116.4430012  87.3884997  40.5849988
 117.6510012  87.7994997  39.7709988 117.1056852  87.1878578  40.0622118
 124.9600012  79.6984997  50.2969988 125.6590012  79.7724997  50.9469988
 124.5790012  78.8344997  50.4509988 125.0041767  79.5917624  50.4068322
 125.7450012  79.3504997  41.3939988 125.9650012  79.8224997  40.5909988
 126.3030012  79.7454997  42.0639988 125.8504968  79.4684285  41.3747331
 123.4130012  91.4814997  40.2569988 122.5970012  91.9784997  40.3089988
 123.9430012  91.9564997  39.6169988 123.3729161  91.6137722  40.1775956
 122.9450012  81.0784997  42.2289988 123.7570012  81.5834997  42.2749988
 122.7000012  80.9334997  43.1429988 123.0230520  81.1280375  42.3588517
 123.4800012  82.0644997  51.4139988 123.5990012  82.6384997  52.1709988
 124.1360012  81.3764997  51.5279988 123.5849757  82.0501079  51.5330825
 123.8280012  78.1594997  43.1669988 123.4820012  78.7774997  43.8119988
 124.4870012  78.6604997  42.6859988 123.8697826  78.3115802  43.1900971
 120.7520012  92.5254997  40.2389988 120.9120012  93.3244997  39.7379988
 120.5540012  92.8314997  41.1239988 120.7471649  92.6764469  40.2899815
 119.4860012  79.2224997  39.8539988 119.4030012  80.1114997  40.2009988
 120.3760012  78.9574997  40.0859988 119.5949469  79.3081430  39.9327626
 129.6850012  79.9714997  52.2489988 128.7680012  80.2344997  52.1609988
 130.0200012  79.9684997  51.3519988 129.6049900  80.0070224  52.1157919
 128.2870012  83.7224997  46.3439988 127.4890012  83.3074997  46.0159988
 128.7320012  83.0314997  46.8349988 128.2379885  83.5723543  46.3654889
 117.7450012  89.6504997  38.9149988 118.3370012  90.3494997  39.1909988
 118.2040012  89.2174997  38.1949988 117.8881142  89.6877049  38.8554830
 116.0610012  82.3144997  38.0309988 116.0160012  83.2534997  38.2089988
 115.1730012  82.0784997  37.7609988 115.9348574  82.4111892  38.0188912
 129.3730012  92.9784997  47.9669988 129.2180012  93.6564997  47.3099988
 130.3060012  93.0504997  48.1699988 129.4778500  93.0810170  47.9045119
 116.8690012  77.0964997  46.7039988 116.6400012  77.1554997  45.7759988
 116.4260012  76.3044997  47.0099988 116.7778530  76.9975753  46.6184786
 115.7990012  91.0364997  42.8639988 114.9670012  91.5094997  42.8919988
 116.3450012  91.5464997  42.2659988 115.7589739  91.1701871  42.7869716
 115.0870012  93.6494997  54.1939988 115.6280012  93.4324997  54.9539988
 114.6060012  92.8434997  54.0049988 115.0959345  93.5109514  54.2723076
 119.6850012  92.5684997  55.8149988 120.4520012  92.1094997  56.1559988
 119.6630012  92.3424997  54.8849988 119.7871434  92.4750409  55.7360043
 123.7770012  92.0764997  37.1899988 123.1330012  91.4454997  37.5109988
 124.5390012  91.5454997  36.9579988 123.7918077  91.9182920  37.2026011
 126.2620012  90.9484997  54.5439988 125.9110012  90.0924997  54.7869988
 126.9880012  91.0914997  55.1509988 126.3120769  90.8505636  54.6593619
 128.3810012  91.8934997  37.4239988 128.6640012  91.0994997  37.8759988
 129.1210012  92.1264997  36.8629988 128.5197486  91.8162803  37.4100698
 114.9940012  87.4594997  55.1489988 115.1380012  86.5574997  54.8619988
 114.2220012  87.7454997  54.6609988 114.9093322  87.3748261  55.0437881
 119.3360012  87.8034997  37.2809988 119.4000012  87.0094997  37.8119988
 119.9890012  87.6844997  36.5909988 119.4330241  87.6787148  37.2604317
 121.6500012  87.4294997  54.5809988 121.3210012  87.7004997  53.7239988
 121.8020012  86.4884997  54.4939988 121.6254809  87.3393862  54.4518244
 124.6880012  88.8504997  37.0169988 124.4190012  89.0304997  37.9179988
 124.4820012  87.9244997  36.8859988 124.6233825  88.7500152  37.1225214
 127.3840012  87.3454997  51.9649988 128.1300012  87.9334997  51.8449988
 126.6270012  87.9274997  52.0279988 127.3837554  87.5047011  51.9570907
 115.8270012  84.6594997  54.5689988 116.2350012  83.8024997  54.4479988
 115.5670012  84.6744997  55.4899988 115.8477568  84.5440807  54.6769588
 120.4850012  85.7754997  39.5869988 120.0250012  85.2914997  40.2729988
 120.7400012  85.1074997  38.9509988 120.4564902  85.6188731  39.5949334
 119.7740012  83.6684997  51.9429988 119.1560012  84.3434997  52.2229988
 120.1180012  83.9894997  51.1099988 119.7359615  83.8042721  51.8686581
 121.5560012  84.0184997  37.8489988 121.3760012  83.8644997  36.9219988
 122.5060012  84.1264997  37.8939988 121.6597776  84.0120175  37.7281843
 124.7940012  86.1404997  55.2199988 125.7470012  86.2234997  55.1929988
 124.6330012  85.4284997  55.8399988 124.9026426  86.0556746  55.3000579
 130.9460012  86.3734997  37.2949988 130.6720012  85.9484997  36.4819988
 130.9850012  87.3044997  37.0779988 130.9137699  86.4412484  37.1543610
 120.1130012  81.0234997  53.0249988 120.2630012  80.2944997  52.4229988
 120.1160012  81.8004997  52.4659988 120.1339302  81.0287851  52.8670692
 120.5260012  79.3934997  50.5179988 121.0620012  79.8444997  49.8659988
 119.6740012  79.2854997  50.0949988 120.4842178  79.4406390  50.3715756
 122.1080012  84.8324997  50.7569988 122.8580012  84.6764997  50.1839988
 121.7690012  85.6844997  50.4819988 122.1648921  84.9262968  50.6413561
 126.5230012  82.6474997  55.7859988 126.7160012  81.7164997  55.6739988
 127.3810012  83.0724997  55.7759988 126.6653020  82.5776389  55.7693361
 127.8400012  85.4364997  53.8629988 127.5590012  86.1454997  53.2859988
 128.7830012  85.3634997  53.7119988 127.9289027  85.5237646  53.7635551
 118.5920012  82.2214997  54.9369988 117.8250012  81.6894997  54.7269988
 119.2710012  81.9114997  54.3369988 118.5787022  82.1067506  54.8271648
 121.3320012  76.8494997  50.9489988 121.2330012  77.7964997  50.8439988
 120.5890012  76.4774997  50.4739988 121.2180564  76.9285902  50.8704560
 122.5960012  81.1714997  54.5129988 122.3600012  80.9514997  55.4149988
 121.8120012  80.9644997  54.0029988 122.4578628  81.1134760  54.5673932
 125.3110012  80.2984997  53.5889988 124.3640012  80.3304997  53.7209988
 125.6240012  79.6734997  54.2419988 125.2235475  80.2183207  53.6954455
 126.9450012  78.9324997  55.5939988 126.8490012  77.9804997  55.5879988
 126.6240012  79.2014997  56.4539988 126.8884070  78.8384035  55.7095441
 116.7720012  80.1424997  54.6409988 116.9840012  79.4354997  54.0309988
 116.6610012  79.7044997  55.4849988 116.7859721  79.9867084  54.6716843
 121.5530012  76.1434997  53.6209988 122.2650012  75.5034997  53.6069988
 121.4520012  76.4104997  52.7069988 121.6367939  76.0919938  53.4955650
 121.9070012  77.8264997  55.6739988 121.7750012  77.3504997  54.8539988
 121.3080012  78.5704997  55.6189988 121.8079071  77.8619618  55.5542886
 121.4530012  94.7094997  38.8509988 122.3860012  94.8674997  38.9939988
 121.1890012  95.3844997  38.2259988 121.5449510  94.8223611  38.7860741
 115.0220012  89.3454997  38.3329988 115.9360012  89.4244997  38.6069988
 115.0290012  88.6584997  37.6669988 115.1481131  89.2633961  38.2804393
 113.6710012  94.7384997  43.4109988 113.0240012  94.2764997  42.8779988
 114.0250012  94.0664997  43.9929988 113.6303849  94.5844723  43.4167959
 114.5410012  92.8194997  45.2149988 114.2060012  91.9394997  45.3869988
 114.7630012  93.1644997  46.0799988 114.5251783  92.7457500  45.3554208
 132.0890012  93.6284997  48.1959988 132.0680012  93.8134997  49.1349988
 132.7800012  94.1974997  47.8549988 132.1794618  93.7306606  48.2783864
 131.6530012  93.1964997  51.1179988 131.1650012  92.4604997  50.7469988
 132.2020012  92.8024997  51.7959988 131.6604872  93.0426249  51.1589160
 130.1030012  88.9854997  55.7559988 129.2370012  88.8804997  56.1499988
 130.4800012  89.7444997  56.2019988 130.0353308  89.0736900  55.8702393
 131.4040012  87.2424997  41.2699988 132.2540012  87.6634997  41.3969988
 131.4100012  86.5024997  41.8769988 131.5211372  87.2000803  41.3694344
 131.7990012  85.2954997  43.0939988 131.0720012  84.8164997  43.4909988
 132.3800012  85.5014997  43.8259988 131.7779375  85.2577090  43.2474129
 131.5580012  88.0804997  48.0409988 132.3910012  87.7024997  47.7609988
 131.6700012  89.0234997  47.9219988 131.6872647  88.1562218  47.9865487
 130.0440012  90.9584997  50.3479988 129.3970012  91.2834997  50.9739988
 129.5270012  90.5184997  49.6739988 129.8854029  90.9435004  50.3425827
 132.0670012  85.1964997  39.4849988 131.5450012  85.5534997  38.7659988
 132.0340012  85.8714997  40.1629988 131.9911634  85.3365413  39.4783145
 130.4160012  82.4364997  38.0359988 130.5120012  83.1034997  37.3549988
 130.2760012  81.6204997  37.5539988 130.4102135  82.4174500  37.8778491
 129.5850012  83.8164997  43.6569988 129.4350012  82.8714997  43.6359988
 129.2320012  84.0974997  44.4999988 129.5166625  83.7250441  43.7682346
 114.6210012  85.8944997  47.6669988 114.8050012  85.8124997  46.7309988
 115.4700012  85.7704997  48.0909988 114.7610139  85.8665003  47.5961455
 130.4420012  85.7864997  53.2949988 131.0250012  85.0524997  53.4869988
 131.0060012  86.5584997  53.3419988 130.5979769  85.7904227  53.3276159
 131.9380012  83.6894997  53.9799988 131.0750012  83.3104997  53.8139988
 132.5430012  82.9504997  53.9059988 131.9015979  83.5378023  53.9472817
 129.6630012  79.8444997  37.1529988 130.2740012  79.4734997  37.7899988
 128.8270012  79.4234997  37.3489988 129.6335032  79.7367554  37.2667035
 129.2960012  81.3994997  42.1189988 129.5760012  80.4924997  42.2429988
 130.0550012  81.8334997  41.7299988 129.4369277  81.3340942  42.0833682
 129.9080012  81.9804997  47.5549988 130.8410012  82.1924997  47.5209988
 129.6730012  82.0824997  48.4769988 130.0038036  82.0232769  47.6749976
 129.9370012  82.7174997  50.3309988 129.0940012  82.9854997  50.6969988
 130.3790012  83.5394997  50.1199988 129.8814158  82.8653291  50.3525491
 114.2180012  81.1654997  53.8079988 115.1380012  81.0434997  54.0439988
 113.7690012  80.4154997  54.1969988 114.2831580  81.0473727  53.8929006
 132.2200012  76.6974997  55.6839988 132.5700012  76.0434997  55.0789988
 132.3670012  77.5344997  55.2449988 132.2878419  76.7211591  55.5417118
 129.9090012  78.6624997  42.1669988 130.0920012  78.2134997  42.9929988
 129.3100012  78.0774997  41.7039988 129.8530202  78.5219975  42.2173275
 115.4390012  79.4774997  46.6989988 115.8850012  78.6854997  47.0009988
 115.9060012  80.1934997  47.1299988 115.5630172  79.4660624  46.7984820
 113.7430012  82.4764997  47.7679988 114.2350012  82.2554997  46.9769988
 114.1060012  83.3174997  48.0489988 113.8593126  82.5598357  47.6977531
 131.7400012  78.8064997  54.0339988 130.8220012  79.0774997  53.9979988
 131.8630012  78.2714997  53.2489988 131.6311066  78.7712892  53.9230487
 131.7760012  78.7294997  38.6949988 132.1880012  78.0084997  38.2199988
 132.4580012  79.3994997  38.7539988 131.9245885  78.7212368  38.6378915
 114.0570012  78.7344997  41.8219988 113.1320012  78.9434997  41.6929988
 114.5110012  79.2184997  41.1329988 113.9917368  78.8285993  41.7111226
 128.8280012  93.7184997  43.7679988 129.4800012  93.3714997  43.1599988
 129.3380012  94.2074997  44.4139988 128.9862637  93.7370597  43.7720236
 114.0210012  77.4724997  50.1669988 113.3560012  77.2264997  50.8099988
 113.5780012  78.0944997  49.5889988 113.8700956  77.5228632  50.1769352
 116.2130012  90.6474997  54.3109988 115.3920012  90.8224997  53.8509988
 115.9600012  90.5744997  55.2319988 116.0666164  90.6615622  54.3724923
 119.1670012  91.6224997  50.5699988 118.7420012  92.4314997  50.2869988
 120.0710012  91.7074997  50.2679988 119.2310271  91.7448469  50.4903776
 123.4780012  93.0214997  53.5289988 123.6630012  92.6874997  54.4069988
 124.3240012  93.3304997  53.2069988 123.6177539  93.0176047  53.6055605
 125.8230012  94.3074997  52.7729988 126.5000012  93.6744997  52.5329988
 126.1450012  94.7084997  53.5799988 125.9591637  94.2751154  52.8492793
 130.7400012  76.8964997  51.8529988 129.9280012  77.2214997  51.4649988
 130.9730012  76.1364997  51.3199988 130.6603423  76.8382436  51.7278253
 116.5690012  94.8784997  50.6169988 115.8480012  95.3184997  50.1659988
 116.2030012  94.6274997  51.4659988 116.4209804  94.9047698  50.6699840
 119.0360012  94.4784997  49.6469988 118.1710012  94.5504997  50.0509988
 118.9810012  95.0254997  48.8629988 118.9102085  94.5622685  49.5963362
 123.7460012  94.3664997  48.8219988 123.2900012  94.8954997  48.1679988
 123.9090012  94.9694997  49.5479988 123.7055585  94.5204468  48.8305062
 126.0740012  93.2444997  49.7669988 125.1690012  93.4094997  49.5019988
 126.5030012  94.0974997  49.7019988 126.0080799  93.3824483  49.7219182
 128.6780012  94.8144997  50.0619988 128.4960012  95.7304997  49.8519988
 128.8550012  94.4044997  49.2159988 128.6770210  94.8844822  49.9187885
 115.9830012  93.5014997  47.5269988 115.9650012  93.0764997  48.3849988
 116.7880012  93.1834997  47.1189988 116.0893875  93.4003812  47.5891655
 118.1250012  92.2114997  46.1819988 117.9060012  91.2954997  46.3519988
 118.9490012  92.3514997  46.6479988 118.2064420  92.1050520  46.2682774
 120.6620012  92.6814997  47.0309988 120.8750012  91.7934997  46.7439988
 120.7260012  92.6474997  47.9849988 120.6998232  92.5553102  47.1207397
 124.1700012  78.3454997  46.1749988 123.4960012  77.7164997  46.4309988
 124.7340012  77.8614997  45.5719988 124.1539230  78.1938744  46.1285340
 129.3130012  76.4534997  46.2879988 129.9170012  77.0004997  45.7859988
 128.4430012  76.7724997  46.0479988 129.2781241  76.5715806  46.1867654
 131.0400012  77.5914997  44.6209988 131.6520012  77.0774997  44.0949988
 131.4220012  78.4694997  44.6449988 131.1754540  77.6397140  44.5521830
 116.4970012  76.9794997  43.9969988 115.7200012  76.7454997  43.4899988
 117.0270012  76.1824997  44.0059988 116.4622330  76.8396988  43.9287742
 115.3330012  76.7774997  39.8009988 115.7720012  77.3884997  39.2089988
 114.7000012  77.3154997  40.2749988 115.3074514  76.9339257  39.7840930
 121.0760012  76.9064997  43.8109988 121.9510012  77.2944997  43.7809988
 120.9400012  76.6914997  44.7329988 121.1773695  76.9305184  43.9316440
 126.6330012  76.9364997  45.4599988 126.7090012  77.0314997  44.5099988
 126.3580012  76.0284997  45.5889988 126.6062321  76.8267867  45.3475079
 127.9860012  76.9624997  41.1519988 127.2840012  77.5774997  40.9429988
 127.5420012  76.1244997  41.2829988 127.8296330  76.9335783  41.1410328
 115.2340012  92.7254997  40.6989988 114.5490012  92.6874997  40.0309988
 115.2380012  93.6384997  40.9869988 115.1408193  92.8437016  40.6465284
 117.1940012  78.6934997  38.2429988 117.6860012  78.0634997  37.7159988
 117.8180012  78.9894997  38.9069988 117.3455446  78.6473199  38.2605980
 122.2200012  78.9864997  40.6999988 122.3980012  78.3404997  41.3829988
 122.1670012  79.8204997  41.1679988 122.2371829  79.0107985  40.8565940
 124.0990012  93.9354997  39.0959988 124.9650012  94.3014997  38.9179988
 123.8520012  93.4954997  38.2819988 124.1842392  93.9261756  38.9616289
 130.8080012  93.4984997  41.7749988 130.6130012  92.7504997  41.2099988
 130.7690012  94.2564997  41.1919988 130.7760380  93.4986099  41.6188384
 116.4550012  77.4934997  53.5149988 116.0890012  76.7284997  53.9579988
 117.3680012  77.5224997  53.8019988 116.5282790  77.3927224  53.6144070
 118.4280012  76.8444997  55.0509988 119.3260012  76.5704997  54.8659988
 118.0410012  76.1014997  55.5149988 118.4986612  76.7065914  55.0883643
 117.0520012  93.6454997  37.7239988 116.7850012  93.9324997  38.5969988
 117.8240012  93.0994997  37.8759988 117.1197488  93.6110294  37.8641050
 126.8490012  76.1764997  55.2329988 126.9260012  75.7504997  56.0869988
 127.7430012  76.1904997  54.8899988 126.9803428  76.1200879  55.3035310
 130.0250012  92.2494997  53.9249988 129.2430012  92.0634997  53.4059988
 129.9530012  93.1784997  54.1429988 129.9081777  92.3496492  53.8834048
 144.4310012  86.1354997  43.9559988 144.5200012  87.0794997  43.8239988
 143.7930012  85.8604997  43.2979988 144.3569081  86.2274830  43.8489614
 143.3640012  85.3904997  47.3749988 143.3260012  84.7444997  48.0799988
 143.0420012  84.9244997  46.6039988 143.3152333  85.2389408  47.3672978
 135.7330012  85.0054997  48.9679988 135.7740012  84.3794997  49.6909988
 136.4360012  85.6294997  49.1499988 135.8336363  85.0041196  49.0916044
 136.6560012  89.4554997  47.5029988 136.2870012  88.6534997  47.1329988
 137.5970012  89.2864997  47.5489988 136.7327289  89.3230153  47.4586316
 133.2660012  83.1154997  42.8959988 132.8190012  83.9614997  42.8769988
 132.7050012  82.5354997  42.3799988 133.1289900  83.1529916  42.8236801
 133.9770012  85.2774997  45.0219988 134.1900012  84.5074997  45.5489988
 134.7150012  85.3664997  44.4179988 134.1058496  85.1841394  45.0125300
 144.1820012  93.4344997  45.8889988 144.8020012  92.7574997  45.6149988
 143.9740012  93.2164997  46.7969988 144.2386904  93.3123870  45.9743365
 141.7540012  87.8234997  47.7809988 142.0580012  87.1374997  47.1859988
 142.4750012  87.9414997  48.3989988 141.8930671  87.7456305  47.7831816
 144.8950012  82.2174997  48.1089988 145.0370012  81.2714997  48.1289988
 144.7880012  82.4244997  47.1799988 144.8999864  82.1159534  47.9862339
 138.0490012  80.3184997  45.3809988 138.0930012  81.1784997  44.9629988
 137.5920012  79.7664997  44.7469988 137.9932185  80.3615799  45.2380299
 134.6700012  82.7154997  46.1429988 135.3230012  82.1654997  46.5749988
 134.6940012  82.4414997  45.2259988 134.7626683  82.6031466  46.0782123
 139.8260012  84.2654997  45.3579988 140.4420012  83.7394997  45.8679988
 139.2400012  83.6254997  44.9549988 139.8310810  84.1069208  45.3733173
 136.8600012  79.2364997  49.4549988 136.6410012  79.7664997  48.6889988
 136.1920012  79.4634997  50.1019988 136.7397600  79.3396906  49.4376379
 144.2290012  88.7364997  42.9989988 143.9330012  88.4144997  42.1479988
 143.9040012  89.6364997  43.0399988 144.1446371  88.8140215  42.8881801
 139.4290012  86.9124997  49.7419988 138.6890012  87.5104997  49.8459988
 140.1430012  87.4664997  49.4269988 139.4242237  87.0692831  49.7136465
 136.4530012  81.1284997  47.4069988 137.0670012  81.7614997  47.7809988
 136.9650012  80.6564997  46.7509988 136.6062296  81.1512370  47.3694252
 137.8360012  88.8764997  50.5299988 137.8310012  89.7564997  50.1519988
 136.9830012  88.7934997  50.9549988 137.7199464  88.9856117  50.5357907
 133.9570012  88.5474997  41.3119988 133.6850012  88.7764997  40.4229988
 134.0030012  89.3854997  41.7719988 133.9260094  88.6921213  41.2525697
 140.8860012  76.5424997  46.9079988 140.7690012  75.5934997  46.8529988
 140.0310012  76.8744997  47.1809988 140.7543733  76.4575409  46.9373897
 143.1530012  85.3794997  41.4079988 142.4410012  85.9144997  41.0559988
 143.8440012  85.4354997  40.7479988 143.1490132  85.4602543  41.2706289
 143.2060012  83.8374997  38.4469988 143.9070012  83.8594997  39.0979988
 143.5090012  83.2094997  37.7909988 143.3427830  83.7556566  38.4473711
 138.2040012  86.2194997  44.2419988 137.8730012  85.8494997  43.4239988
 138.7920012  85.5494997  44.5889988 138.2381873  86.0781156  44.1768102
 139.5700012  89.6474997  46.9239988 139.4760012  89.0694997  46.1669988
 140.3000012  89.2764997  47.4199988 139.6557981  89.5182390  46.8874165
 138.5700012  84.9884997  47.8759988 139.1360012  85.1094997  47.1129988
 138.8890012  85.6254997  48.5149988 138.6905786  85.0911884  47.8580040
 144.8790012  90.4914997  48.6099988 144.6390012  91.1534997  49.2579988
 144.6810012  89.6574997  49.0349988 144.8193808  90.4693134  48.7561524
 139.4500012  89.3874997  52.5929988 139.1390012  90.1694997  53.0479988
 138.8000012  89.2344997  51.9069988 139.3195558  89.4739105  52.5625871
 136.3700012  85.5854997  51.8219988 136.4410012  86.2364997  52.5199988
 135.4800012  85.6884997  51.4869988 136.2593117  85.6885936  51.8722700
 143.1560012  91.4884997  43.4799988 143.6300012  91.7834997  44.2579988
 142.5930012  92.2264997  43.2469988 143.1447653  91.6286932  43.5550136
 137.6900012  91.4594997  53.3559988 137.6970012  91.3234997  52.4089988
 136.7740012  91.3414997  53.6079988 137.5671714  91.4249430  53.2604666
 137.1940012  85.2894997  41.8319988 136.9020012  86.0574997  41.3409988
 136.5200012  84.6294997  41.6689988 137.0629081  85.3054406  41.7427340
 133.2870012  87.6524997  50.6469988 132.7860012  87.6244997  49.8319988
 133.2920012  86.7464997  50.9559988 133.2191526  87.5262278  50.5772872
 133.0370012  90.4324997  47.5309988 133.9830012  90.2884997  47.5119988
 132.9250012  91.2164997  48.0679988 133.1512727  90.5188046  47.6010072
 142.2140012  90.6724997  52.0889988 142.3010012  91.4984997  52.5639988
 141.3500012  90.3424997  52.3379988 142.1091964  90.7409878  52.1876549
 142.6280012  94.4444997  41.8949988 142.5530012  94.3234997  40.9489988
 142.6610012  95.3944997  42.0139988 142.6221848  94.5562500  41.7814834
 136.2810012  93.2334997  43.6759988 136.4340012  92.8854997  44.5549988
 135.4310012  92.8774997  43.4209988 136.1868962  93.1376650  43.7618340
 135.5360012  88.9754997  51.6899988 135.7520012  88.6144997  52.5489988
 134.6810012  88.6014997  51.4799988 135.4499292  88.8754111  51.7793386
 138.1550012  77.4454997  47.6849988 137.2930012  77.3584997  47.2779988
 138.1320012  78.3014997  48.1129988 138.0340330  77.5492765  47.6871863
 142.8180012  77.1674997  51.0599988 143.2380012  76.7524997  51.8129988
 141.8850012  76.9894997  51.1769988 142.7493644  77.0865900  51.1789539
 142.4790012  79.6604997  38.3449988 142.2260012  79.6794997  39.2679988
 142.2230012  78.7884997  38.0439988 142.4097790  79.5452437  38.4306263
 138.2460012  82.4114997  48.7799988 137.6040012  82.3704997  49.4889988
 138.2830012  83.3374997  48.5429988 138.1631324  82.5311559  48.8449824
 138.2430012  82.6324997  43.6919988 137.3500012  82.2914997  43.6339988
 138.6930012  82.2554997  42.9369988 138.1817305  82.5348484  43.5819177
 143.7780012  83.0484997  42.5089988 143.3690012  83.8634997  42.2179988
 144.4990012  82.9084997  41.8949988 143.8194537  83.1412018  42.3861342
 142.8800012  83.2234997  53.9969988 142.3180012  82.5194997  54.3179988
 143.7070012  83.1034997  54.4649988 142.9147095  83.1107883  54.1042330
 144.7830012  82.4944997  45.3229988 144.5880012  83.0994997  44.6079988
 144.9640012  81.6604997  44.8889988 144.7807614  82.4646300  45.1664405
 135.9960012  82.7314997  50.6469988 135.9580012  83.1314997  51.5159988
 135.5050012  81.9144997  50.7379988 135.9244684  82.6758069  50.7781059
 139.3620012  80.1054997  37.4459988 138.9310012  79.6604997  38.1759988
 138.6440012  80.4774997  36.9339988 139.2059438  80.0948940  37.4766799
 132.6040012  79.8474997  44.4979988 133.2350012  79.8184997  45.2169988
 133.0530012  79.4224997  43.7679988 132.7510774  79.7860492  44.4976553
 133.8780012  80.5934997  39.9219988 134.3520012  81.1844997  39.3369988
 133.1610012  81.1244997  40.2689988 133.8459341  80.7460867  39.8888836
 144.0470012  84.1324997  49.9949988 144.3700012  83.5014997  49.3519988
 143.6070012  83.5974997  50.6549988 144.0316895  83.9738441  49.9962850
 140.8240012  80.0594997  44.7789988 139.9130012  80.1164997  45.0669988
 141.3300012  79.9994997  45.5889988 140.7675413  80.0591985  44.9280622
 135.6530012  81.6884997  43.6049988 134.7630012  81.7884997  43.2649988
 135.9490012  80.8464997  43.2589988 135.5712823  81.5883546  43.5117213
 139.3060012  81.6884997  41.2619988 140.2370012  81.8174997  41.4399988
 139.0910012  82.3584997  40.6119988 139.4044247  81.7966565  41.1985747
 137.9800012  82.8834997  38.8289988 137.4370012  82.5034997  38.1369988
 138.8130012  83.0774997  38.3999988 138.0184399  82.8578124  38.6764526
 136.1150012  87.4404997  53.9279988 136.8470012  87.6944997  54.4889988
 135.3350012  87.6444997  54.4429988 136.1098232  87.5029177  54.0745760
 142.1440012  82.8474997  46.6659988 142.7090012  82.3004997  46.1189988
 141.9970012  82.3254997  47.4539988 142.2012918  82.7022024  46.6978454
 137.1460012  78.9834997  43.0839988 136.8290012  78.0814997  43.0489988
 137.9280012  78.9854997  42.5309988 137.2082284  78.8601628  43.0044783
 140.7710012  81.2354997  49.0799988 139.9350012  81.6894997  49.1899988
 141.2950012  81.5114997  49.8319988 140.7274414  81.3349376  49.1967136
 141.3150012  87.4484997  40.7639988 140.5700012  86.9414997  40.4419988
 141.1810012  87.4974997  41.7109988 141.1948776  87.3856940  40.8478647
 142.8340012  87.6324997  52.0009988 142.4890012  87.2514997  52.8079988
 142.6340012  88.5664997  52.0729988 142.7598061  87.7065228  52.1210961
 136.4400012  86.7434997  46.5339988 137.1850012  86.7414997  45.9329988
 136.5180012  85.9204997  47.0159988 136.5525518  86.6319315  46.5168929
 143.4410012  88.9074997  39.7899988 143.1450012  89.7334997  40.1709988
 142.7380012  88.2874997  39.9859988 143.3054914  88.9368199  39.8686443
 133.4480012  85.2044997  51.8489988 133.6710012  84.7864997  52.6809988
 132.8460012  84.5914997  51.4259988 133.3971759  85.0644668  51.9057022
 140.4640012  84.7214997  54.0619988 140.1680012  84.5554997  53.1669988
 141.3960012  84.5014997  54.0509988 140.5494166  84.6690640  53.9380536
 138.8150012  90.2614997  43.9379988 139.3420012  91.0344997  43.7379988
 137.9350012  90.4864997  43.6369988 138.7681773  90.3978005  43.8699010
 134.5700012  85.1234997  38.5249988 135.1860012  85.7504997  38.9049988
 133.7080012  85.4394997  38.7969988 134.5377698  85.2519430  38.6137183
 140.2420012  87.9244997  43.5149988 140.0010012  88.8494997  43.5559988
 139.5010012  87.4654997  43.9109988 140.1088409  87.9891421  43.5741377
 140.7570012  92.0734997  49.8299988 141.1190012  92.9284997  49.5959988
 141.2880012  91.7814997  50.5699988 140.8784473  92.1511060  49.8980855
 138.9250012  92.9464997  43.0599988 137.9750012  93.0514997  43.1109988
 139.2770012  93.7664997  43.4049988 138.8424203  93.0718314  43.1136650
 144.3010012  88.1724997  49.5299988 143.8750012  87.9454997  50.3569988
 144.8810012  87.4344997  49.3479988 144.3211868  88.0415299  49.6185830
 135.0820012  79.9574997  51.4069988 134.1890012  80.2964997  51.3389988
 134.9830012  79.1024997  51.8249988 134.9464164  79.8882588  51.4542235
 134.7330012  91.7624997  49.8419988 134.9500012  90.8304997  49.8109988
 134.9790012  92.0364997  50.7249988 134.7959549  91.6720636  49.9571763
 140.5950012  90.2134997  37.0509988 140.8340012  89.4654997  36.5039988
 140.3260012  89.8254997  37.8839988 140.5913675  90.0586638  37.0886865
 139.5320012  89.7834997  39.5079988 139.6780012  89.2634997  40.2979988
 139.5290012  90.6904997  39.8139988 139.5515989  89.8348853  39.6576088
 135.9850012  87.0364997  40.0179988 135.2990012  87.3884997  40.5849988
 136.5070012  87.7994997  39.7709988 135.9616852  87.1878578  40.0622118
 143.8160012  79.6984997  50.2969988 144.5150012  79.7724997  50.9469988
 143.4350012  78.8344997  50.4509988 143.8601767  79.5917624  50.4068322
 144.6010012  79.3504997  41.3939988 144.8210012  79.8224997  40.5909988
 145.1590012  79.7454997  42.0639988 144.7064968  79.4684285  41.3747331
 142.2690012  91.4814997  40.2569988 141.4530012  91.9784997  40.3089988
 142.7990012  91.9564997  39.6169988 142.2289161  91.6137722  40.1775956
 141.8010012  81.0784997  42.2289988 142.6130012  81.5834997  42.2749988
 141.5560012  80.9334997  43.1429988 141.8790520  81.1280375  42.3588517
 142.3360012  82.0644997  51.4139988 142.4550012  82.6384997  52.1709988
 142.9920012  81.3764997  51.5279988 142.4409757  82.0501079  51.5330825
 142.6840012  78.1594997  43.1669988 142.3380012  78.7774997  43.8119988
 143.3430012  78.6604997  42.6859988 142.7257826  78.3115802  43.1900971
 139.6080012  92.5254997  40.2389988 139.7680012  93.3244997  39.7379988
 139.4100012  92.8314997  41.1239988 139.6031649  92.6764469  40.2899815
 138.3420012  79.2224997  39.8539988 138.2590012  80.1114997  40.2009988
 139.2320012  78.9574997  40.0859988 138.4509469  79.3081430  39.9327626
 136.6010012  89.6504997  38.9149988 137.1930012  90.3494997  39.1909988
 137.0600012  89.2174997  38.1949988 136.7441142  89.6877049  38.8554830
 134.9170012  82.3144997  38.0309988 134.8720012  83.2534997  38.2089988
 134.0290012  82.0784997  37.7609988 134.7908574  82.4111892  38.0188912
 135.7250012  77.0964997  46.7039988 135.4960012  77.1554997  45.7759988
 135.2820012  76.3044997  47.0099988 135.6338530  76.9975753  46.6184786
 134.6550012  91.0364997  42.8639988 133.8230012  91.5094997  42.8919988
 135.2010012  91.5464997  42.2659988 134.6149739  91.1701871  42.7869716
 133.9430012  93.6494997  54.1939988 134.4840012  93.4324997  54.9539988
 133.4620012  92.8434997  54.0049988 133.9519345  93.5109514  54.2723076
 138.5410012  92.5684997  55.8149988 139.3080012  92.1094997  56.1559988
 138.5190012  92.3424997  54.8849988 138.6431434  92.4750409  55.7360043
 142.6330012  92.0764997  37.1899988 141.9890012  91.4454997  37.5109988
 143.3950012  91.5454997  36.9579988 142.6478077  91.9182920  37.2026011
 133.8500012  87.4594997  55.1489988 133.9940012  86.5574997  54.8619988
 133.0780012  87.7454997  54.6609988 133.7653322  87.3748261  55.0437881
 138.1920012  87.8034997  37.2809988 138.2560012  87.0094997  37.8119988
 138.8450012  87.6844997  36.5909988 138.2890241  87.6787148  37.2604317
 140.5060012  87.4294997  54.5809988 140.1770012  87.7004997  53.7239988
 140.6580012  86.4884997  54.4939988 140.4814809  87.3393862  54.4518244
 143.5440012  88.8504997  37.0169988 143.2750012  89.0304997  37.9179988
 143.3380012  87.9244997  36.8859988 143.4793825  88.7500152  37.1225214
 134.6830012  84.6594997  54.5689988 135.0910012  83.8024997  54.4479988
 134.4230012  84.6744997  55.4899988 134.7037568  84.5440807  54.6769588
 139.3410012  85.7754997  39.5869988 138.8810012  85.2914997  40.2729988
 139.5960012  85.1074997  38.9509988 139.3124902  85.6188731  39.5949334
 138.6300012  83.6684997  51.9429988 138.0120012  84.3434997  52.2229988
 138.9740012  83.9894997  51.1099988 138.5919615  83.8042721  51.8686581
 140.4120012  84.0184997  37.8489988 140.2320012  83.8644997  36.9219988
 141.3620012  84.1264997  37.8939988 140.5157776  84.0120175  37.7281843
 143.6500012  86.1404997  55.2199988 144.6030012  86.2234997  55.1929988
 143.4890012  85.4284997  55.8399988 143.7586426  86.0556746  55.3000579
 138.9690012  81.0234997  53.0249988 139.1190012  80.2944997  52.4229988
 138.9720012  81.8004997  52.4659988 138.9899302  81.0287851  52.8670692
 139.3820012  79.3934997  50.5179988 139.9180012  79.8444997  49.8659988
 138.5300012  79.2854997  50.0949988 139.3402178  79.4406390  50.3715756
 140.9640012  84.8324997  50.7569988 141.7140012  84.6764997  50.1839988
 140.6250012  85.6844997  50.4819988 141.0208921  84.9262968  50.6413561
 137.4480012  82.2214997  54.9369988 136.6810012  81.6894997  54.7269988
 138.1270012  81.9114997  54.3369988 137.4347022  82.1067506  54.8271648
 140.1880012  76.8494997  50.9489988 140.0890012  77.7964997  50.8439988
 139.4450012  76.4774997  50.4739988 140.0740564  76.9285902  50.8704560
 141.4520012  81.1714997  54.5129988 141.2160012  80.9514997  55.4149988
 140.6680012  80.9644997  54.0029988 141.3138628  81.1134760  54.5673932
 144.1670012  80.2984997  53.5889988 143.2200012  80.3304997  53.7209988
 144.4800012  79.6734997  54.2419988 144.0795475  80.2183207  53.6954455
 135.6280012  80.1424997  54.6409988 135.8400012  79.4354997  54.0309988
 135.5170012  79.7044997  55.4849988 135.6419721  79.9867084  54.6716843
 140.4090012  76.1434997  53.6209988 141.1210012  75.5034997  53.6069988
 140.3080012  76.4104997  52.7069988 140.4927939  76.0919938  53.4955650
 140.7630012  77.8264997  55.6739988 140.6310012  77.3504997  54.8539988
 140.1640012  78.5704997  55.6189988 140.6639071  77.8619618  55.5542886
 140.3090012  94.7094997  38.8509988 141.2420012  94.8674997  38.9939988
 140.0450012  95.3844997  38.2259988 140.4009510  94.8223611  38.7860741
 133.8780012  89.3454997  38.3329988 134.7920012  89.4244997  38.6069988
 133.8850012  88.6584997  37.6669988 134.0041131  89.2633961  38.2804393
 132.5270012  94.7384997  43.4109988 131.8800012  94.2764997  42.8779988
 132.8810012  94.0664997  43.9929988 132.4863849  94.5844723  43.4167959
 133.3970012  92.8194997  45.2149988 133.0620012  91.9394997  45.3869988
 133.6190012  93.1644997  46.0799988 133.3811783  92.7457500  45.3554208
 133.4770012  85.8944997  47.6669988 133.6610012  85.8124997  46.7309988
 134.3260012  85.7704997  48.0909988 133.6170139  85.8665003  47.5961455
 133.0740012  81.1654997  53.8079988 133.9940012  81.0434997  54.0439988
 132.6250012  80.4154997  54.1969988 133.1391580  81.0473727  53.8929006
 134.2950012  79.4774997  46.6989988 134.7410012  78.6854997  47.0009988
 134.7620012  80.1934997  47.1299988 134.4190172  79.4660624  46.7984820
 132.5990012  82.4764997  47.7679988 133.0910012  82.2554997  46.9769988
 132.9620012  83.3174997  48.0489988 132.7153126  82.5598357  47.6977531
 132.9130012  78.7344997  41.8219988 131.9880012  78.9434997  41.6929988
 133.3670012  79.2184997  41.1329988 132.8477368  78.8285993  41.7111226
 132.8770012  77.4724997  50.1669988 132.2120012  77.2264997  50.8099988
 132.4340012  78.0944997  49.5889988 132.7260956  77.5228632  50.1769352
 135.0690012  90.6474997  54.3109988 134.2480012  90.8224997  53.8509988
 134.8160012  90.5744997  55.2319988 134.9226164  90.6615622  54.3724923
 138.0230012  91.6224997  50.5699988 137.5980012  92.4314997  50.2869988
 138.9270012  91.7074997  50.2679988 138.0870271  91.7448469  50.4903776
 142.3340012  93.0214997  53.5289988 142.5190012  92.6874997  54.4069988
 143.1800012  93.3304997  53.2069988 142.4737539  93.0176047  53.6055605
 144.6790012  94.3074997  52.7729988 145.3560012  93.6744997  52.5329988
 145.0010012  94.7084997  53.5799988 144.8151637  94.2751154  52.8492793
 135.4250012  94.8784997  50.6169988 134.7040012  95.3184997  50.1659988
 135.0590012  94.6274997  51.4659988 135.2769804  94.9047698  50.6699840
 137.8920012  94.4784997  49.6469988 137.0270012  94.5504997  50.0509988
 137.8370012  95.0254997  48.8629988 137.7662085  94.5622685  49.5963362
 142.6020012  94.3664997  48.8219988 142.1460012  94.8954997  48.1679988
 142.7650012  94.9694997  49.5479988 142.5615585  94.5204468  48.8305062
 134.8390012  93.5014997  47.5269988 134.8210012  93.0764997  48.3849988
 135.6440012  93.1834997  47.1189988 134.9453875  93.4003812  47.5891655
 136.9810012  92.2114997  46.1819988 136.7620012  91.2954997  46.3519988
 137.8050012  92.3514997  46.6479988 137.0624420  92.1050520  46.2682774
 139.5180012  92.6814997  47.0309988 139.7310012  91.7934997  46.7439988
 139.5820012  92.6474997  47.9849988 139.5558232  92.5553102  47.1207397
 143.0260012  78.3454997  46.1749988 142.3520012  77.7164997  46.4309988
 143.5900012  77.8614997  45.5719988 143.0099230  78.1938744  46.1285340
 135.3530012  76.9794997  43.9969988 134.5760012  76.7454997  43.4899988
 135.8830012  76.1824997  44.0059988 135.3182330  76.8396988  43.9287742
 134.1890012  76.7774997  39.8009988 134.6280012  77.3884997  39.2089988
 133.5560012  77.3154997  40.2749988 134.1634514  76.9339257  39.7840930
 139.9320012  76.9064997  43.8109988 140.8070012  77.2944997  43.7809988
 139.7960012  76.6914997  44.7329988 140.0333695  76.9305184  43.9316440
 134.0900012  92.7254997  40.6989988 133.4050012  92.6874997  40.0309988
 134.0940012  93.6384997  40.9869988 133.9968193  92.8437016  40.6465284
 136.0500012  78.6934997  38.2429988 136.5420012  78.0634997  37.7159988
 136.6740012  78.9894997  38.9069988 136.2015446  78.6473199  38.2605980
 141.0760012  78.9864997  40.6999988 141.2540012  78.3404997  41.3829988
 141.0230012  79.8204997  41.1679988 141.0931829  79.0107985  40.8565940
 142.9550012  93.9354997  39.0959988 143.8210012  94.3014997  38.9179988
 142.7080012  93.4954997  38.2819988 143.0402392  93.9261756  38.9616289
 135.3110012  77.4934997  53.5149988 134.9450012  76.7284997  53.9579988
 136.2240012  77.5224997  53.8019988 135.3842790  77.3927224  53.6144070
 137.2840012  76.8444997  55.0509988 138.1820012  76.5704997  54.8659988
 136.8970012  76.1014997  55.5149988 137.3546612  76.7065914  55.0883643
 135.9080012  93.6454997  37.7239988 135.6410012  93.9324997  38.5969988
 136.6800012  93.0994997  37.8759988 135.9757488  93.6110294  37.8641050
  12.4390012 104.9914997  43.9559988  12.5280012 105.9354997  43.8239988
  11.8010012 104.7164997  43.2979988  12.3649081 105.0834830  43.8489614
  11.3720012 104.2464997  47.3749988  11.3340012 103.6004997  48.0799988
  11.0500012 103.7804997  46.6039988  11.3232333 104.0949408  47.3672978
   3.7410012 103.8614997  48.9679988   3.7820012 103.2354997  49.6909988
   4.4440012 104.4854997  49.1499988   3.8416363 103.8601196  49.0916044
  15.0780012 107.1854997  45.6759988  14.6380012 106.4654997  46.1269988
  15.0650012 107.9064997  46.3059988  15.0160226 107.1843731  45.8228494
   4.6640012 108.3114997  47.5029988   4.2950012 107.5094997  47.1329988
   5.6050012 108.1424997  47.5489988   4.7407289 108.1790153  47.4586316
   1.2740012 101.9714997  42.8959988   0.8270012 102.8174997  42.8769988
   0.7130012 101.3914997  42.3799988   1.1369900 102.0089916  42.8236801
   1.9850012 104.1334997  45.0219988   2.1980012 103.3634997  45.5489988
   2.7230012 104.2224997  44.4179988   2.1138496 104.0401394  45.0125300
  12.1900012 112.2904997  45.8889988  12.8100012 111.6134997  45.6149988
  11.9820012 112.0724997  46.7969988  12.2466904 112.1683870  45.9743365
   9.7620012 106.6794997  47.7809988  10.0660012 105.9934997  47.1859988
  10.4830012 106.7974997  48.3989988   9.9010671 106.6016305  47.7831816
  18.4250012  98.2804997  48.6419988  18.4740012  98.8904997  49.3779988
  18.8500012  98.7414997  47.9189988  18.4891824  98.4263741  48.6450205
  12.9030012 101.0734997  48.1089988  13.0450012 100.1274997  48.1289988
  12.7960012 101.2804997  47.1799988  12.9079864 100.9719534  47.9862339
   6.0570012  99.1744997  45.3809988   6.1010012 100.0344997  44.9629988
   5.6000012  98.6224997  44.7469988   6.0012185  99.2175799  45.2380299
  13.7800012  99.3054997  43.7819988  14.4260012  98.9764997  44.4069988
  14.2900012  99.8234997  43.1589988  13.9374264  99.3304611  43.7833862
   2.6780012 101.5714997  46.1429988   3.3310012 101.0214997  46.5749988
   2.7020012 101.2974997  45.2259988   2.7706683 101.4591466  46.0782123
   7.8340012 103.1214997  45.3579988   8.4500012 102.5954997  45.8679988
   7.2480012 102.4814997  44.9549988   7.8390810 102.9629208  45.3733173
  18.8160012  99.7584997  50.8779988  18.1280012 100.4164997  50.7819988
  18.8320012  99.5614997  51.8139988  18.7238525  99.8220462  50.9914808
   4.8680012  98.0924997  49.4549988   4.6490012  98.6224997  48.6889988
   4.2000012  98.3194997  50.1019988   4.7477600  98.1956906  49.4376379
  12.2370012 107.5924997  42.9989988  11.9410012 107.2704997  42.1479988
  11.9120012 108.4924997  43.0399988  12.1526371 107.6700215  42.8881801
   7.4370012 105.7684997  49.7419988   6.6970012 106.3664997  49.8459988
   8.1510012 106.3224997  49.4269988   7.4322237 105.9252831  49.7136465
  15.5440012  98.5964997  45.7619988  15.3280012  97.8304997  46.2949988
  16.1990012  99.0684997  46.2749988  15.6030632  98.5555889  45.9042861
   4.4610012  99.9844997  47.4069988   5.0750012 100.6174997  47.7809988
   4.9730012  99.5124997  46.7509988   4.6142296 100.0072370  47.3694252
   5.8440012 107.7324997  50.5299988   5.8390012 108.6124997  50.1519988
   4.9910012 107.6494997  50.9549988   5.7279464 107.8416117  50.5357907
   1.9650012 107.4034997  41.3119988   1.6930012 107.6324997  40.4229988
   2.0110012 108.2414997  41.7719988   1.9340094 107.5481213  41.2525697
  15.5900012 109.0254997  48.0239988  14.6490012 109.0834997  48.1859988
  15.8670012 109.9314997  47.8869988  15.4984679 109.1559443  48.0276815
  15.8910012  97.3114997  49.4419988  15.1550012  97.9224997  49.4039988
  16.5740012  97.7264997  48.9149988  15.8826541  97.4511374  49.3655832
   8.8940012  95.3984997  46.9079988   8.7770012  94.4494997  46.8529988
   8.0390012  95.7304997  47.1809988   8.7623733  95.3135409  46.9373897
  13.8420012 110.8064997  44.6499988  14.2680012 110.0994997  44.1649988
  14.1590012 111.6074997  44.2329988  13.9431019 110.8180994  44.5273130
  15.0020012 108.7074997  43.1579988  14.7440012 108.0174997  42.5469988
  15.0730012 108.2644997  44.0039988  14.9762856 108.5532124  43.1886885
  16.6880012 107.2734997  51.6359988  16.8280012 106.6824997  50.8959988
  16.8550012 108.1464997  51.2789988  16.7296778 107.3106426  51.4866965
  11.1610012 104.2354997  41.4079988  10.4490012 104.7704997  41.0559988
  11.8520012 104.2914997  40.7479988  11.1570132 104.3162543  41.2706289
  11.2140012 102.6934997  38.4469988  11.9150012 102.7154997  39.0979988
  11.5170012 102.0654997  37.7909988  11.3507830 102.6116566  38.4473711
  18.5300012 103.6134997  49.7019988  17.8770012 104.3084997  49.7909988
  18.9950012 103.8234997  48.8919988  18.5035390 103.7369425  49.6046883
  14.5660012 104.4454997  42.3599988  13.8340012 104.6734997  42.9329988
  15.0140012 103.7314997  42.8149988  14.5263095 104.3802571  42.4999119
  14.4640012 102.6194997  51.4269988  14.5440012 103.3824997  51.9989988
  13.8620012 102.8984997  50.7369988  14.3935756 102.7617134  51.4120589
   6.2120012 105.0754997  44.2419988   5.8810012 104.7054997  43.4239988
   6.8000012 104.4054997  44.5889988   6.2461873 104.9341156  44.1768102
   7.5780012 108.5034997  46.9239988   7.4840012 107.9254997  46.1669988
   8.3080012 108.1324997  47.4199988   7.6637981 108.3742390  46.8874165
   6.5780012 103.8444997  47.8759988   7.1440012 103.9654997  47.1129988
   6.8970012 104.4814997  48.5149988   6.6985786 103.9471884  47.8580040
  12.8870012 109.3474997  48.6099988  12.6470012 110.0094997  49.2579988
  12.6890012 108.5134997  49.0349988  12.8273808 109.3253134  48.7561524
   7.4580012 108.2434997  52.5929988   7.1470012 109.0254997  53.0479988
   6.8080012 108.0904997  51.9069988   7.3275558 108.3299105  52.5625871
  13.4370012 103.6074997  40.0449988  14.0170012 103.7574997  40.7919988
  13.8510012 104.0784997  39.3219988  13.5722830 103.6916841  40.0494134
   4.3780012 104.4414997  51.8219988   4.4490012 105.0924997  52.5199988
   3.4880012 104.5444997  51.4869988   4.2673117 104.5445936  51.8722700
  11.1640012 110.3444997  43.4799988  11.6380012 110.6394997  44.2579988
  10.6010012 111.0824997  43.2469988  11.1527653 110.4846932  43.5550136
   5.6980012 110.3154997  53.3559988   5.7050012 110.1794997  52.4089988
   4.7820012 110.1974997  53.6079988   5.5751714 110.2809430  53.2604666
  17.1360012  95.3574997  39.8579988  16.2360012  95.4964997  40.1529988
  17.3880012  96.1884997  39.4559988  17.0468702  95.4889074  39.8440205
   5.2020012 104.1454997  41.8319988   4.9100012 104.9134997  41.3409988
   4.5280012 103.4854997  41.6689988   5.0709081 104.1614406  41.7427340
  18.3250012 109.7234997  38.2339988  18.3990012 110.6624997  38.4049988
  19.2310012 109.4184997  38.1779988  18.4575100 109.8106722  38.2498119
   1.2950012 106.5084997  50.6469988   0.7940012 106.4804997  49.8319988
   1.3000012 105.6024997  50.9559988   1.2271526 106.3822278  50.5772872
   1.0450012 109.2884997  47.5309988   1.9910012 109.1444997  47.5119988
   0.9330012 110.0724997  48.0679988   1.1592727 109.3748046  47.6010072
  19.2430012 109.9544997  53.2129988  19.1940012 108.9994997  53.1759988
  18.4160012 110.2224997  53.6139988  19.1244940 109.8598998  53.2621375
  10.2220012 109.5284997  52.0889988  10.3090012 110.3544997  52.5639988
   9.3580012 109.1984997  52.3379988  10.1171964 109.5969878  52.1876549
  10.6360012 113.3004997  41.8949988  10.5610012 113.1794997  40.9489988
  10.6690012 114.2504997  42.0139988  10.6301848 113.4122500  41.7814834
   4.2890012 112.0894997  43.6759988   4.4420012 111.7414997  44.5549988
   3.4390012 111.7334997  43.4209988   4.1948962 111.9936650  43.7618340
  13.7380012 112.4544997  38.8969988  14.1130012 111.7104997  38.4269988
  13.7420012 112.1844997  39.8159988  13.7898915 112.3161486  38.9567824
  13.4070012 112.3804997  41.6469988  12.4710012 112.4804997  41.8249988
  13.6870012 111.6714997  42.2249988  13.3168255 112.2982711  41.7495391
  16.3950012 101.4474997  53.6929988  15.9880012 101.9284997  52.9719988
  16.4360012 100.5424997  53.3849988  16.3448437 101.3909374  53.5526683
   3.5440012 107.8314997  51.6899988   3.7600012 107.4704997  52.5489988
   2.6890012 107.4574997  51.4799988   3.4579292 107.7314111  51.7793386
   6.1630012  96.3014997  47.6849988   5.3010012  96.2144997  47.2779988
   6.1400012  97.1574997  48.1129988   6.0420330  96.4052765  47.6871863
  10.8260012  96.0234997  51.0599988  11.2460012  95.6084997  51.8129988
   9.8930012  95.8454997  51.1769988  10.7573644  95.9425900  51.1789539
  14.1520012  99.7794997  51.9129988  13.6380012  99.6534997  52.7109988
  13.9970012 100.6914997  51.6689988  14.0606852  99.8856132  51.9892158
  14.9150012 104.6404997  37.6749988  14.9570012 104.4174997  36.7449988
  15.7640012 105.0394997  37.8649988  15.0355396 104.6639155  37.5733627
  10.4870012  98.5164997  38.3449988  10.2340012  98.5354997  39.2679988
  10.2310012  97.6444997  38.0439988  10.4177790  98.4012437  38.4306263
   6.2540012 101.2674997  48.7799988   5.6120012 101.2264997  49.4889988
   6.2910012 102.1934997  48.5429988   6.1711324 101.3871559  48.8449824
   6.2510012 101.4884997  43.6919988   5.3580012 101.1474997  43.6339988
   6.7010012 101.1114997  42.9369988   6.1897305 101.3908484  43.5819177
  11.7860012 101.9044997  42.5089988  11.3770012 102.7194997  42.2179988
  12.5070012 101.7644997  41.8949988  11.8274537 101.9972018  42.3861342
  10.8880012 102.0794997  53.9969988  10.3260012 101.3754997  54.3179988
  11.7150012 101.9594997  54.4649988  10.9227095 101.9667883  54.1042330
  12.7910012 101.3504997  45.3229988  12.5960012 101.9554997  44.6079988
  12.9720012 100.5164997  44.8889988  12.7887614 101.3206300  45.1664405
   4.0040012 101.5874997  50.6469988   3.9660012 101.9874997  51.5159988
   3.5130012 100.7704997  50.7379988   3.9324684 101.5318069  50.7781059
   7.3700012  98.9614997  37.4459988   6.9390012  98.5164997  38.1759988
   6.6520012  99.3334997  36.9339988   7.2139438  98.9508940  37.4766799
   0.6120012  98.7034997  44.4979988   1.2430012  98.6744997  45.2169988
   1.0610012  98.2784997  43.7679988   0.7590774  98.6420492  44.4976553
   1.8860012  99.4494997  39.9219988   2.3600012 100.0404997  39.3369988
   1.1690012  99.9804997  40.2689988   1.8539341  99.6020867  39.8888836
  12.0550012 102.9884997  49.9949988  12.3780012 102.3574997  49.3519988
  11.6150012 102.4534997  50.6549988  12.0396895 102.8298441  49.9962850
   8.8320012  98.9154997  44.7789988   7.9210012  98.9724997  45.0669988
   9.3380012  98.8554997  45.5889988   8.7755413  98.9151985  44.9280622
   3.6610012 100.5444997  43.6049988   2.7710012 100.6444997  43.2649988
   3.9570012  99.7024997  43.2589988   3.5792823 100.4443545  43.5117213
   7.3140012 100.5444997  41.2619988   8.2450012 100.6734997  41.4399988
   7.0990012 101.2144997  40.6119988   7.4124247 100.6526565  41.1985747
  13.2370012  98.1504997  48.0429988  12.5610012  98.2814997  48.7069988
  12.7520012  97.9954997  47.2329988  13.0787145  98.1474905  48.0244517
   5.9880012 101.7394997  38.8289988   5.4450012 101.3594997  38.1369988
   6.8210012 101.9334997  38.3999988   6.0264399 101.7138124  38.6764526
  16.5250012 113.8224997  54.3199988  16.7250012 114.2464997  53.4849988
  17.1800012 114.1654997  54.9269988  16.6410051 113.9269648  54.2877836
   4.1230012 106.2964997  53.9279988   4.8550012 106.5504997  54.4889988
   3.3430012 106.5004997  54.4429988   4.1178232 106.3589177  54.0745760
  10.1520012 101.7034997  46.6659988  10.7170012 101.1564997  46.1189988
  10.0050012 101.1814997  47.4539988  10.2092918 101.5582024  46.6978454
   5.1540012  97.8394997  43.0839988   4.8370012  96.9374997  43.0489988
   5.9360012  97.8414997  42.5309988   5.2162284  97.7161628  43.0044783
   8.7790012 100.0914997  49.0799988   7.9430012 100.5454997  49.1899988
   9.3030012 100.3674997  49.8319988   8.7354414 100.1909376  49.1967136
   9.3230012 106.3044997  40.7639988   8.5780012 105.7974997  40.4419988
   9.1890012 106.3534997  41.7109988   9.2028776 106.2416940  40.8478647
  16.4730012 105.4374997  49.5509988  17.1150012 105.8944997  49.0069988
  15.6430012 105.5504997  49.0879988  16.4485963 105.5152704  49.4140177
  13.2210012  99.1184997  38.9639988  12.2820012  99.2304997  38.8119988
  13.5180012  99.9754997  39.2699988  13.1327666  99.2496443  38.9845768
  10.8420012 106.4884997  52.0009988  10.4970012 106.1074997  52.8079988
  10.6420012 107.4224997  52.0729988  10.7678061 106.5625228  52.1210961
  13.9390012 100.9854997  40.6239988  14.8310012 100.8484997  40.9429988
  13.9960012 101.7764997  40.0879988  14.0686285 101.0736660  40.5951690
   4.4480012 105.5994997  46.5339988   5.1930012 105.5974997  45.9329988
   4.5260012 104.7764997  47.0159988   4.5605518 105.4879315  46.5168929
  11.4490012 107.7634997  39.7899988  11.1530012 108.5894997  40.1709988
  10.7460012 107.1434997  39.9859988  11.3134914 107.7928199  39.8686443
   1.4560012 104.0604997  51.8489988   1.6790012 103.6424997  52.6809988
   0.8540012 103.4474997  51.4259988   1.4051759 103.9204668  51.9057022
   8.4720012 103.5774997  54.0619988   8.1760012 103.4114997  53.1669988
   9.4040012 103.3574997  54.0509988   8.5574166 103.5250640  53.9380536
  13.0930012 108.9504997  51.9519988  12.1920012 109.1334997  51.6839988
  13.1270012 109.2094997  52.8729988  12.9743041 109.0105512  52.0398197
  18.8240012 101.1954997  40.3189988  18.2700012 100.7994997  39.6469988
  18.9240012 102.1054997  40.0409988  18.7617059 101.2643586  40.1894401
  18.7870012 106.9954997  53.1559988  17.9360012 107.2334997  52.7889988
  19.3780012 106.9784997  52.4029988  18.7502487 107.0258258  53.0038893
  17.1190012 109.9814997  40.7839988  16.7460012 109.1554997  41.0929988
  17.3970012 109.7984997  39.8869988  17.1055630 109.8437303  40.7049626
  14.2800012 104.7894997  47.8049988  13.3510012 104.5574997  47.7779988
  14.7310012 104.0124997  47.4749988  14.2139216 104.6527238  47.7566917
   6.8230012 109.1174997  43.9379988   7.3500012 109.8904997  43.7379988
   5.9430012 109.3424997  43.6369988   6.7761773 109.2538005  43.8699010
   2.5780012 103.9794997  38.5249988   3.1940012 104.6064997  38.9049988
   1.7160012 104.2954997  38.7969988   2.5457698 104.1079430  38.6137183
   8.2500012 106.7804997  43.5149988   8.0090012 107.7054997  43.5559988
   7.5090012 106.3214997  43.9109988   8.1168409 106.8451421  43.5741377
   8.7650012 110.9294997  49.8299988   9.1270012 111.7844997  49.5959988
   9.2960012 110.6374997  50.5699988   8.8864473 111.0071060  49.8980855
   6.9330012 111.8024997  43.0599988   5.9830012 111.9074997  43.1109988
   7.2850012 112.6224997  43.4049988   6.8504203 111.9278314  43.1136650
  12.3090012 107.0284997  49.5299988  11.8830012 106.8014997  50.3569988
  12.8890012 106.2904997  49.3479988  12.3291868 106.8975299  49.6185830
  14.5120012 107.9574997  38.6039988  14.8650012 107.5774997  39.4089988
  13.5630012 107.8644997  38.6909988  14.4320441 107.8929596  38.7258559
  14.9670012 111.5804997  51.9999988  14.3660012 111.0254997  51.5039988
  15.2490012 112.2474997  51.3739988  14.9228519 111.5946841  51.8474952
  19.0150012 112.4374997  38.8049988  19.7590012 113.0234997  38.6649988
  18.3210012 113.0054997  39.1389988  19.0230292 112.5945582  38.8309961
   3.0900012  98.8134997  51.4069988   2.1970012  99.1524997  51.3389988
   2.9910012  97.9584997  51.8249988   2.9544164  98.7442588  51.4542235
  15.3780012 106.6304997  40.8309988  15.1000012 105.9024997  41.3869988
  16.3050012 106.7494997  41.0359988  15.4653124 106.5468802  40.9348845
   2.7410012 110.6184997  49.8419988   2.9580012 109.6864997  49.8109988
   2.9870012 110.8924997  50.7249988   2.8039549 110.5280636  49.9571763
   8.6030012 109.0694997  37.0509988   8.8420012 108.3214997  36.5039988
   8.3340012 108.6814997  37.8839988   8.5993675 108.9146638  37.0886865
   7.5400012 108.6394997  39.5079988   7.6860012 108.1194997  40.2979988
   7.5370012 109.5464997  39.8139988   7.5595989 108.6908853  39.6576088
   3.9930012 105.8924997  40.0179988   3.3070012 106.2444997  40.5849988
   4.5150012 106.6554997  39.7709988   3.9696852 106.0438578  40.0622118
  11.8240012  98.5544997  50.2969988  12.5230012  98.6284997  50.9469988
  11.4430012  97.6904997  50.4509988  11.8681767  98.4477624  50.4068322
  12.6090012  98.2064997  41.3939988  12.8290012  98.6784997  40.5909988
  13.1670012  98.6014997  42.0639988  12.7144968  98.3244285  41.3747331
  10.2770012 110.3374997  40.2569988   9.4610012 110.8344997  40.3089988
  10.8070012 110.8124997  39.6169988  10.2369161 110.4697722  40.1775956
   9.8090012  99.9344997  42.2289988  10.6210012 100.4394997  42.2749988
   9.5640012  99.7894997  43.1429988   9.8870520  99.9840375  42.3588517
  10.3440012 100.9204997  51.4139988  10.4630012 101.4944997  52.1709988
  11.0000012 100.2324997  51.5279988  10.4489757 100.9061079  51.5330825
  10.6920012  97.0154997  43.1669988  10.3460012  97.6334997  43.8119988
  11.3510012  97.5164997  42.6859988  10.7337826  97.1675802  43.1900971
   7.6160012 111.3814997  40.2389988   7.7760012 112.1804997  39.7379988
   7.4180012 111.6874997  41.1239988   7.6111649 111.5324469  40.2899815
   6.3500012  98.0784997  39.8539988   6.2670012  98.9674997  40.2009988
   7.2400012  97.8134997  40.0859988   6.4589469  98.1641430  39.9327626
  16.5490012  98.8274997  52.2489988  15.6320012  99.0904997  52.1609988
  16.8840012  98.8244997  51.3519988  16.4689900  98.8630224  52.1157919
  15.1510012 102.5784997  46.3439988  14.3530012 102.1634997  46.0159988
  15.5960012 101.8874997  46.8349988  15.1019885 102.4283543  46.3654889
   4.6090012 108.5064997  38.9149988   5.2010012 109.2054997  39.1909988
   5.0680012 108.0734997  38.1949988   4.7521142 108.5437049  38.8554830
   2.9250012 101.1704997  38.0309988   2.8800012 102.1094997  38.2089988
   2.0370012 100.9344997  37.7609988   2.7988574 101.2671892  38.0188912
  16.2370012 111.8344997  47.9669988  16.0820012 112.5124997  47.3099988
  17.1700012 111.9064997  48.1699988  16.3418500 111.9370170  47.9045119
   3.7330012  95.9524997  46.7039988   3.5040012  96.0114997  45.7759988
   3.2900012  95.1604997  47.0099988   3.6418530  95.8535753  46.6184786
   2.6630012 109.8924997  42.8639988   1.8310012 110.3654997  42.8919988
   3.2090012 110.4024997  42.2659988   2.6229739 110.0261871  42.7869716
   1.9510012 112.5054997  54.1939988   2.4920012 112.2884997  54.9539988
   1.4700012 111.6994997  54.0049988   1.9599345 112.3669514  54.2723076
   6.5490012 111.4244997  55.8149988   7.3160012 110.9654997  56.1559988
   6.5270012 111.1984997  54.8849988   6.6511434 111.3310409  55.7360043
  10.6410012 110.9324997  37.1899988   9.9970012 110.3014997  37.5109988
  11.4030012 110.4014997  36.9579988  10.6558077 110.7742920  37.2026011
  13.1260012 109.8044997  54.5439988  12.7750012 108.9484997  54.7869988
  13.8520012 109.9474997  55.1509988  13.1760769 109.7065636  54.6593619
  15.2450012 110.7494997  37.4239988  15.5280012 109.9554997  37.8759988
  15.9850012 110.9824997  36.8629988  15.3837486 110.6722803  37.4100698
   1.8580012 106.3154997  55.1489988   2.0020012 105.4134997  54.8619988
   1.0860012 106.6014997  54.6609988   1.7733322 106.2308261  55.0437881
   6.2000012 106.6594997  37.2809988   6.2640012 105.8654997  37.8119988
   6.8530012 106.5404997  36.5909988   6.2970241 106.5347148  37.2604317
   8.5140012 106.2854997  54.5809988   8.1850012 106.5564997  53.7239988
   8.6660012 105.3444997  54.4939988   8.4894809 106.1953862  54.4518244
  11.5520012 107.7064997  37.0169988  11.2830012 107.8864997  37.9179988
  11.3460012 106.7804997  36.8859988  11.4873825 107.6060152  37.1225214
  14.2480012 106.2014997  51.9649988  14.9940012 106.7894997  51.8449988
  13.4910012 106.7834997  52.0279988  14.2477554 106.3607011  51.9570907
   2.6910012 103.5154997  54.5689988   3.0990012 102.6584997  54.4479988
   2.4310012 103.5304997  55.4899988   2.7117568 103.4000807  54.6769588
   7.3490012 104.6314997  39.5869988   6.8890012 104.1474997  40.2729988
   7.6040012 103.9634997  38.9509988   7.3204902 104.4748731  39.5949334
   6.6380012 102.5244997  51.9429988   6.0200012 103.1994997  52.2229988
   6.9820012 102.8454997  51.1099988   6.5999615 102.6602721  51.8686581
   8.4200012 102.8744997  37.8489988   8.2400012 102.7204997  36.9219988
   9.3700012 102.9824997  37.8939988   8.5237776 102.8680175  37.7281843
  11.6580012 104.9964997  55.2199988  12.6110012 105.0794997  55.1929988
  11.4970012 104.2844997  55.8399988  11.7666426 104.9116746  55.3000579
  17.8100012 105.2294997  37.2949988  17.5360012 104.8044997  36.4819988
  17.8490012 106.1604997  37.0779988  17.7777699 105.2972484  37.1543610
   6.9770012  99.8794997  53.0249988   7.1270012  99.1504997  52.4229988
   6.9800012 100.6564997  52.4659988   6.9979302  99.8847851  52.8670692
   7.3900012  98.2494997  50.5179988   7.9260012  98.7004997  49.8659988
   6.5380012  98.1414997  50.0949988   7.3482178  98.2966390  50.3715756
   8.9720012 103.6884997  50.7569988   9.7220012 103.5324997  50.1839988
   8.6330012 104.5404997  50.4819988   9.0288921 103.7822968  50.6413561
  13.3870012 101.5034997  55.7859988  13.5800012 100.5724997  55.6739988
  14.2450012 101.9284997  55.7759988  13.5293020 101.4336389  55.7693361
  14.7040012 104.2924997  53.8629988  14.4230012 105.0014997  53.2859988
  15.6470012 104.2194997  53.7119988  14.7929027 104.3797646  53.7635551
   5.4560012 101.0774997  54.9369988   4.6890012 100.5454997  54.7269988
   6.1350012 100.7674997  54.3369988   5.4427022 100.9627506  54.8271648
   8.1960012  95.7054997  50.9489988   8.0970012  96.6524997  50.8439988
   7.4530012  95.3334997  50.4739988   8.0820564  95.7845902  50.8704560
   9.4600012 100.0274997  54.5129988   9.2240012  99.8074997  55.4149988
   8.6760012  99.8204997  54.0029988   9.3218628  99.9694760  54.5673932
  12.1750012  99.1544997  53.5889988  11.2280012  99.1864997  53.7209988
  12.4880012  98.5294997  54.2419988  12.0875475  99.0743207  53.6954455
  13.8090012  97.7884997  55.5939988  13.7130012  96.8364997  55.5879988
  13.4880012  98.0574997  56.4539988  13.7524070  97.6944035  55.7095441
   3.6360012  98.9984997  54.6409988   3.8480012  98.2914997  54.0309988
   3.5250012  98.5604997  55.4849988   3.6499721  98.8427084  54.6716843
   8.4170012  94.9994997  53.6209988   9.1290012  94.3594997  53.6069988
   8.3160012  95.2664997  52.7069988   8.5007939  94.9479938  53.4955650
   8.7710012  96.6824997  55.6739988   8.6390012  96.2064997  54.8539988
   8.1720012  97.4264997  55.6189988   8.6719071  96.7179618  55.5542886
   8.3170012 113.5654997  38.8509988   9.2500012 113.7234997  38.9939988
   8.0530012 114.2404997  38.2259988   8.4089510 113.6783611  38.7860741
   1.8860012 108.2014997  38.3329988   2.8000012 108.2804997  38.6069988
   1.8930012 107.5144997  37.6669988   2.0121131 108.1193961  38.2804393
   0.5350012 113.5944997  43.4109988  -0.1119988 113.1324997  42.8779988
   0.8890012 112.9224997  43.9929988   0.4943849 113.4404723  43.4167959
   1.4050012 111.6754997  45.2149988   1.0700012 110.7954997  45.3869988
   1.6270012 112.0204997  46.0799988   1.3891783 111.6017501  45.3554208
  18.9530012 112.4844997  48.1959988  18.9320012 112.6694997  49.1349988
  19.6440012 113.0534997  47.8549988  19.0434618 112.5866606  48.2783864
  18.5170012 112.0524997  51.1179988  18.0290012 111.3164997  50.7469988
  19.0660012 111.6584997  51.7959988  18.5244872 111.8986249  51.1589160
  16.9670012 107.8414997  55.7559988  16.1010012 107.7364997  56.1499988
  17.3440012 108.6004997  56.2019988  16.8993308 107.9296900  55.8702393
  18.2680012 106.0984997  41.2699988  19.1180012 106.5194997  41.3969988
  18.2740012 105.3584997  41.8769988  18.3851372 106.0560803  41.3694344
  18.6630012 104.1514997  43.0939988  17.9360012 103.6724997  43.4909988
  19.2440012 104.3574997  43.8259988  18.6419375 104.1137090  43.2474129
  18.4220012 106.9364997  48.0409988  19.2550012 106.5584997  47.7609988
  18.5340012 107.8794997  47.9219988  18.5512647 107.0122218  47.9865487
  16.9080012 109.8144997  50.3479988  16.2610012 110.1394997  50.9739988
  16.3910012 109.3744997  49.6739988  16.7494029 109.7995004  50.3425827
  18.9310012 104.0524997  39.4849988  18.4090012 104.4094997  38.7659988
  18.8980012 104.7274997  40.1629988  18.8551634 104.1925413  39.4783145
  17.2800012 101.2924997  38.0359988  17.3760012 101.9594997  37.3549988
  17.1400012 100.4764997  37.5539988  17.2742135 101.2734500  37.8778491
  16.4490012 102.6724997  43.6569988  16.2990012 101.7274997  43.6359988
  16.0960012 102.9534997  44.4999988  16.3806625 102.5810441  43.7682346
   1.4850012 104.7504997  47.6669988   1.6690012 104.6684997  46.7309988
   2.3340012 104.6264997  48.0909988   1.6250139 104.7225003  47.5961455
  17.3060012 104.6424997  53.2949988  17.8890012 103.9084997  53.4869988
  17.8700012 105.4144997  53.3419988  17.4619769 104.6464227  53.3276159
  18.8020012 102.5454997  53.9799988  17.9390012 102.1664997  53.8139988
  19.4070012 101.8064997  53.9059988  18.7655979 102.3938023  53.9472817
  16.5270012  98.7004997  37.1529988  17.1380012  98.3294997  37.7899988
  15.6910012  98.2794997  37.3489988  16.4975032  98.5927554  37.2667035
  16.1600012 100.2554997  42.1189988  16.4400012  99.3484997  42.2429988
  16.9190012 100.6894997  41.7299988  16.3009277 100.1900942  42.0833682
  16.7720012 100.8364997  47.5549988  17.7050012 101.0484997  47.5209988
  16.5370012 100.9384997  48.4769988  16.8678036 100.8792769  47.6749976
  16.8010012 101.5734997  50.3309988  15.9580012 101.8414997  50.6969988
  17.2430012 102.3954997  50.1199988  16.7454158 101.7213291  50.3525491
   1.0820012 100.0214997  53.8079988   2.0020012  99.8994997  54.0439988
   0.6330012  99.2714997  54.1969988   1.1471580  99.9033727  53.8929006
  19.0840012  95.5534997  55.6839988  19.4340012  94.8994997  55.0789988
  19.2310012  96.3904997  55.2449988  19.1518419  95.5771591  55.5417118
  16.7730012  97.5184997  42.1669988  16.9560012  97.0694997  42.9929988
  16.1740012  96.9334997  41.7039988  16.7170202  97.3779975  42.2173275
   2.3030012  98.3334997  46.6989988   2.7490012  97.5414997  47.0009988
   2.7700012  99.0494997  47.1299988   2.4270172  98.3220624  46.7984820
   0.6070012 101.3324997  47.7679988   1.0990012 101.1114997  46.9769988
   0.9700012 102.1734997  48.0489988   0.7233126 101.4158357  47.6977531
  18.6040012  97.6624997  54.0339988  17.6860012  97.9334997  53.9979988
  18.7270012  97.1274997  53.2489988  18.4951066  97.6272892  53.9230487
  18.6400012  97.5854997  38.6949988  19.0520012  96.8644997  38.2199988
  19.3220012  98.2554997  38.7539988  18.7885885  97.5772368  38.6378915
   0.9210012  97.5904997  41.8219988  -0.0039988  97.7994997  41.6929988
   1.3750012  98.0744997  41.1329988   0.8557368  97.6845993  41.7111226
  15.6920012 112.5744997  43.7679988  16.3440012 112.2274997  43.1599988
  16.2020012 113.0634997  44.4139988  15.8502637 112.5930597  43.7720236
   0.8850012  96.3284997  50.1669988   0.2200012  96.0824997  50.8099988
   0.4420012  96.9504997  49.5889988   0.7340956  96.3788632  50.1769352
   3.0770012 109.5034997  54.3109988   2.2560012 109.6784997  53.8509988
   2.8240012 109.4304997  55.2319988   2.9306164 109.5175622  54.3724923
   6.0310012 110.4784997  50.5699988   5.6060012 111.2874997  50.2869988
   6.9350012 110.5634997  50.2679988   6.0950271 110.6008469  50.4903776
  10.3420012 111.8774997  53.5289988  10.5270012 111.5434997  54.4069988
  11.1880012 112.1864997  53.2069988  10.4817539 111.8736047  53.6055605
  12.6870012 113.1634997  52.7729988  13.3640012 112.5304997  52.5329988
  13.0090012 113.5644997  53.5799988  12.8231637 113.1311154  52.8492793
  17.6040012  95.7524997  51.8529988  16.7920012  96.0774997  51.4649988
  17.8370012  94.9924997  51.3199988  17.5243423  95.6942436  51.7278253
   3.4330012 113.7344997  50.6169988   2.7120012 114.1744997  50.1659988
   3.0670012 113.4834997  51.4659988   3.2849804 113.7607698  50.6699840
   5.9000012 113.3344997  49.6469988   5.0350012 113.4064997  50.0509988
   5.8450012 113.8814997  48.8629988   5.7742085 113.4182685  49.5963362
  10.6100012 113.2224997  48.8219988  10.1540012 113.7514997  48.1679988
  10.7730012 113.8254997  49.5479988  10.5695585 113.3764468  48.8305062
  12.9380012 112.1004997  49.7669988  12.0330012 112.2654997  49.5019988
  13.3670012 112.9534997  49.7019988  12.8720799 112.2384483  49.7219182
  15.5420012 113.6704997  50.0619988  15.3600012 114.5864997  49.8519988
  15.7190012 113.2604997  49.2159988  15.5410210 113.7404822  49.9187885
   2.8470012 112.3574997  47.5269988   2.8290012 111.9324997  48.3849988
   3.6520012 112.0394997  47.1189988   2.9533875 112.2563812  47.5891655
   4.9890012 111.0674997  46.1819988   4.7700012 110.1514997  46.3519988
   5.8130012 111.2074997  46.6479988   5.0704420 110.9610520  46.2682774
   7.5260012 111.5374997  47.0309988   7.7390012 110.6494997  46.7439988
   7.5900012 111.5034997  47.9849988   7.5638232 111.4113102  47.1207397
  11.0340012  97.2014997  46.1749988  10.3600012  96.5724997  46.4309988
  11.5980012  96.7174997  45.5719988  11.0179230  97.0498744  46.1285340
  16.1770012  95.3094997  46.2879988  16.7810012  95.8564997  45.7859988
  15.3070012  95.6284997  46.0479988  16.1421241  95.4275806  46.1867654
  17.9040012  96.4474997  44.6209988  18.5160012  95.9334997  44.0949988
  18.2860012  97.3254997  44.6449988  18.0394540  96.4957140  44.5521830
   3.3610012  95.8354997  43.9969988   2.5840012  95.6014997  43.4899988
   3.8910012  95.0384997  44.0059988   3.3262330  95.6956988  43.9287742
   2.1970012  95.6334997  39.8009988   2.6360012  96.2444997  39.2089988
   1.5640012  96.1714997  40.2749988   2.1714514  95.7899257  39.7840930
   7.9400012  95.7624997  43.8109988   8.8150012  96.1504997  43.7809988
   7.8040012  95.5474997  44.7329988   8.0413695  95.7865184  43.9316440
  13.4970012  95.7924997  45.4599988  13.5730012  95.8874997  44.5099988
  13.2220012  94.8844997  45.5889988  13.4702321  95.6827867  45.3475079
  14.8500012  95.8184997  41.1519988  14.1480012  96.4334997  40.9429988
  14.4060012  94.9804997  41.2829988  14.6936330  95.7895783  41.1410328
   2.0980012 111.5814997  40.6989988   1.4130012 111.5434997  40.0309988
   2.1020012 112.4944997  40.9869988   2.0048193 111.6997016  40.6465284
   4.0580012  97.5494997  38.2429988   4.5500012  96.9194997  37.7159988
   4.6820012  97.8454997  38.9069988   4.2095446  97.5033199  38.2605980
   9.0840012  97.8424997  40.6999988   9.2620012  97.1964997  41.3829988
   9.0310012  98.6764997  41.1679988   9.1011829  97.8667985  40.8565940
  10.9630012 112.7914997  39.0959988  11.8290012 113.1574997  38.9179988
  10.7160012 112.3514997  38.2819988  11.0482392 112.7821756  38.9616289
  17.6720012 112.3544997  41.7749988  17.4770012 111.6064997  41.2099988
  17.6330012 113.1124997  41.1919988  17.6400380 112.3546099  41.6188384
   3.3190012  96.3494997  53.5149988   2.9530012  95.5844997  53.9579988
   4.2320012  96.3784997  53.8019988   3.3922790  96.2487224  53.6144070
   5.2920012  95.7004997  55.0509988   6.1900012  95.4264997  54.8659988
   4.9050012  94.9574997  55.5149988   5.3626612  95.5625914  55.0883643
   3.9160012 112.5014997  37.7239988   3.6490012 112.7884997  38.5969988
   4.6880012 111.9554997  37.8759988   3.9837488 112.4670294  37.8641050
  13.7130012  95.0324997  55.2329988  13.7900012  94.6064997  56.0869988
  14.6070012  95.0464997  54.8899988  13.8443428  94.9760880  55.3035310
  16.8890012 111.1054997  53.9249988  16.1070012 110.9194997  53.4059988
  16.8170012 112.0344997  54.1429988  16.7721777 111.2056492  53.8834048
  31.2950012 104.9914997  43.9559988  31.3840012 105.9354997  43.8239988
  30.6570012 104.7164997  43.2979988  31.2209081 105.0834830  43.8489614
  30.2280012 104.2464997  47.3749988  30.1900012 103.6004997  48.0799988
  29.9060012 103.7804997  46.6039988  30.1792333 104.0949408  47.3672978
  22.5970012 103.8614997  48.9679988  22.6380012 103.2354997  49.6909988
  23.3000012 104.4854997  49.1499988  22.6976363 103.8601196  49.0916044
  33.9340012 107.1854997  45.6759988  33.4940012 106.4654997  46.1269988
  33.9210012 107.9064997  46.3059988  33.8720226 107.1843731  45.8228494
  23.5200012 108.3114997  47.5029988  23.1510012 107.5094997  47.1329988
  24.4610012 108.1424997  47.5489988  23.5967289 108.1790153  47.4586316
  20.1300012 101.9714997  42.8959988  19.6830012 102.8174997  42.8769988
  19.5690012 101.3914997  42.3799988  19.9929900 102.0089916  42.8236801
  20.8410012 104.1334997  45.0219988  21.0540012 103.3634997  45.5489988
  21.5790012 104.2224997  44.4179988  20.9698496 104.0401394  45.0125300
  31.0460012 112.2904997  45.8889988  31.6660012 111.6134997  45.6149988
  30.8380012 112.0724997  46.7969988  31.1026904 112.1683870  45.9743365
  28.6180012 106.6794997  47.7809988  28.9220012 105.9934997  47.1859988
  29.3390012 106.7974997  48.3989988  28.7570671 106.6016305  47.7831816
  37.2810012  98.2804997  48.6419988  37.3300012  98.8904997  49.3779988
  37.7060012  98.7414997  47.9189988  37.3451824  98.4263741  48.6450205
  31.7590012 101.0734997  48.1089988  31.9010012 100.1274997  48.1289988
  31.6520012 101.2804997  47.1799988  31.7639864 100.9719534  47.9862339
  24.9130012  99.1744997  45.3809988  24.9570012 100.0344997  44.9629988
  24.4560012  98.6224997  44.7469988  24.8572185  99.2175799  45.2380299
  32.6360012  99.3054997  43.7819988  33.2820012  98.9764997  44.4069988
  33.1460012  99.8234997  43.1589988  32.7934264  99.3304611  43.7833862
  21.5340012 101.5714997  46.1429988  22.1870012 101.0214997  46.5749988
  21.5580012 101.2974997  45.2259988  21.6266683 101.4591466  46.0782123
  26.6900012 103.1214997  45.3579988  27.3060012 102.5954997  45.8679988
  26.1040012 102.4814997  44.9549988  26.6950810 102.9629208  45.3733173
  37.6720012  99.7584997  50.8779988  36.9840012 100.4164997  50.7819988
  37.6880012  99.5614997  51.8139988  37.5798525  99.8220462  50.9914808
  23.7240012  98.0924997  49.4549988  23.5050012  98.6224997  48.6889988
  23.0560012  98.3194997  50.1019988  23.6037600  98.1956906  49.4376379
  31.0930012 107.5924997  42.9989988  30.7970012 107.2704997  42.1479988
  30.7680012 108.4924997  43.0399988  31.0086371 107.6700215  42.8881801
  26.2930012 105.7684997  49.7419988  25.5530012 106.3664997  49.8459988
  27.0070012 106.3224997  49.4269988  26.2882237 105.9252831  49.7136465
  34.4000012  98.5964997  45.7619988  34.1840012  97.8304997  46.2949988
  35.0550012  99.0684997  46.2749988  34.4590632  98.5555889  45.9042861
  23.3170012  99.9844997  47.4069988  23.9310012 100.6174997  47.7809988
  23.8290012  99.5124997  46.7509988  23.4702296 100.0072370  47.3694252
  24.7000012 107.7324997  50.5299988  24.6950012 108.6124997  50.1519988
  23.8470012 107.6494997  50.9549988  24.5839464 107.8416117  50.5357907
  20.8210012 107.4034997  41.3119988  20.5490012 107.6324997  40.4229988
  20.8670012 108.2414997  41.7719988  20.7900094 107.5481213  41.2525697
  34.4460012 109.0254997  48.0239988  33.5050012 109.0834997  48.1859988
  34.7230012 109.9314997  47.8869988  34.3544679 109.1559443  48.0276815
  34.7470012  97.3114997  49.4419988  34.0110012  97.9224997  49.4039988
  35.4300012  97.7264997  48.9149988  34.7386541  97.4511374  49.3655832
  27.7500012  95.3984997  46.9079988  27.6330012  94.4494997  46.8529988
  26.8950012  95.7304997  47.1809988  27.6183733  95.3135409  46.9373897
  32.6980012 110.8064997  44.6499988  33.1240012 110.0994997  44.1649988
  33.0150012 111.6074997  44.2329988  32.7991019 110.8180994  44.5273130
  33.8580012 108.7074997  43.1579988  33.6000012 108.0174997  42.5469988
  33.9290012 108.2644997  44.0039988  33.8322856 108.5532124  43.1886885
  35.5440012 107.2734997  51.6359988  35.6840012 106.6824997  50.8959988
  35.7110012 108.1464997  51.2789988  35.5856778 107.3106426  51.4866965
  30.0170012 104.2354997  41.4079988  29.3050012 104.7704997  41.0559988
  30.7080012 104.2914997  40.7479988  30.0130132 104.3162543  41.2706289
  30.0700012 102.6934997  38.4469988  30.7710012 102.7154997  39.0979988
  30.3730012 102.0654997  37.7909988  30.2067830 102.6116566  38.4473711
  37.3860012 103.6134997  49.7019988  36.7330012 104.3084997  49.7909988
  37.8510012 103.8234997  48.8919988  37.3595390 103.7369425  49.6046883
  33.4220012 104.4454997  42.3599988  32.6900012 104.6734997  42.9329988
  33.8700012 103.7314997  42.8149988  33.3823095 104.3802571  42.4999119
  33.3200012 102.6194997  51.4269988  33.4000012 103.3824997  51.9989988
  32.7180012 102.8984997  50.7369988  33.2495756 102.7617134  51.4120589
  25.0680012 105.0754997  44.2419988  24.7370012 104.7054997  43.4239988
  25.6560012 104.4054997  44.5889988  25.1021873 104.9341156  44.1768102
  26.4340012 108.5034997  46.9239988  26.3400012 107.9254997  46.1669988
  27.1640012 108.1324997  47.4199988  26.5197981 108.3742390  46.8874165
  25.4340012 103.8444997  47.8759988  26.0000012 103.9654997  47.1129988
  25.7530012 104.4814997  48.5149988  25.5545786 103.9471884  47.8580040
  31.7430012 109.3474997  48.6099988  31.5030012 110.0094997  49.2579988
  31.5450012 108.5134997  49.0349988  31.6833808 109.3253134  48.7561524
  26.3140012 108.2434997  52.5929988  26.0030012 109.0254997  53.0479988
  25.6640012 108.0904997  51.9069988  26.1835558 108.3299105  52.5625871
  32.2930012 103.6074997  40.0449988  32.8730012 103.7574997  40.7919988
  32.7070012 104.0784997  39.3219988  32.4282830 103.6916841  40.0494134
  23.2340012 104.4414997  51.8219988  23.3050012 105.0924997  52.5199988
  22.3440012 104.5444997  51.4869988  23.1233117 104.5445936  51.8722700
  30.0200012 110.3444997  43.4799988  30.4940012 110.6394997  44.2579988
  29.4570012 111.0824997  43.2469988  30.0087653 110.4846932  43.5550136
  24.5540012 110.3154997  53.3559988  24.5610012 110.1794997  52.4089988
  23.6380012 110.1974997  53.6079988  24.4311714 110.2809430  53.2604666
  35.9920012  95.3574997  39.8579988  35.0920012  95.4964997  40.1529988
  36.2440012  96.1884997  39.4559988  35.9028702  95.4889074  39.8440205
  24.0580012 104.1454997  41.8319988  23.7660012 104.9134997  41.3409988
  23.3840012 103.4854997  41.6689988  23.9269081 104.1614406  41.7427340
  37.1810012 109.7234997  38.2339988  37.2550012 110.6624997  38.4049988
  38.0870012 109.4184997  38.1779988  37.3135100 109.8106722  38.2498119
  20.1510012 106.5084997  50.6469988  19.6500012 106.4804997  49.8319988
  20.1560012 105.6024997  50.9559988  20.0831526 106.3822278  50.5772872
  19.9010012 109.2884997  47.5309988  20.8470012 109.1444997  47.5119988
  19.7890012 110.0724997  48.0679988  20.0152727 109.3748046  47.6010072
  38.0990012 109.9544997  53.2129988  38.0500012 108.9994997  53.1759988
  37.2720012 110.2224997  53.6139988  37.9804940 109.8598998  53.2621375
  29.0780012 109.5284997  52.0889988  29.1650012 110.3544997  52.5639988
  28.2140012 109.1984997  52.3379988  28.9731964 109.5969878  52.1876549
  29.4920012 113.3004997  41.8949988  29.4170012 113.1794997  40.9489988
  29.5250012 114.2504997  42.0139988  29.4861848 113.4122500  41.7814834
  23.1450012 112.0894997  43.6759988  23.2980012 111.7414997  44.5549988
  22.2950012 111.7334997  43.4209988  23.0508962 111.9936650  43.7618340
  32.5940012 112.4544997  38.8969988  32.9690012 111.7104997  38.4269988
  32.5980012 112.1844997  39.8159988  32.6458915 112.3161486  38.9567824
  32.2630012 112.3804997  41.6469988  31.3270012 112.4804997  41.8249988
  32.5430012 111.6714997  42.2249988  32.1728255 112.2982711  41.7495391
  35.2510012 101.4474997  53.6929988  34.8440012 101.9284997  52.9719988
  35.2920012 100.5424997  53.3849988  35.2008437 101.3909374  53.5526683
  22.4000012 107.8314997  51.6899988  22.6160012 107.4704997  52.5489988
  21.5450012 107.4574997  51.4799988  22.3139292 107.7314111  51.7793386
  25.0190012  96.3014997  47.6849988  24.1570012  96.2144997  47.2779988
  24.9960012  97.1574997  48.1129988  24.8980330  96.4052765  47.6871863
  29.6820012  96.0234997  51.0599988  30.1020012  95.6084997  51.8129988
  28.7490012  95.8454997  51.1769988  29.6133644  95.9425900  51.1789539
  33.0080012  99.7794997  51.9129988  32.4940012  99.6534997  52.7109988
  32.8530012 100.6914997  51.6689988  32.9166852  99.8856132  51.9892158
  33.7710012 104.6404997  37.6749988  33.8130012 104.4174997  36.7449988
  34.6200012 105.0394997  37.8649988  33.8915396 104.6639155  37.5733627
  29.3430012  98.5164997  38.3449988  29.0900012  98.5354997  39.2679988
  29.0870012  97.6444997  38.0439988  29.2737790  98.4012437  38.4306263
  25.1100012 101.2674997  48.7799988  24.4680012 101.2264997  49.4889988
  25.1470012 102.1934997  48.5429988  25.0271324 101.3871559  48.8449824
  25.1070012 101.4884997  43.6919988  24.2140012 101.1474997  43.6339988
  25.5570012 101.1114997  42.9369988  25.0457305 101.3908484  43.5819177
  30.6420012 101.9044997  42.5089988  30.2330012 102.7194997  42.2179988
  31.3630012 101.7644997  41.8949988  30.6834537 101.9972018  42.3861342
  29.7440012 102.0794997  53.9969988  29.1820012 101.3754997  54.3179988
  30.5710012 101.9594997  54.4649988  29.7787095 101.9667883  54.1042330
  31.6470012 101.3504997  45.3229988  31.4520012 101.9554997  44.6079988
  31.8280012 100.5164997  44.8889988  31.6447614 101.3206300  45.1664405
  22.8600012 101.5874997  50.6469988  22.8220012 101.9874997  51.5159988
  22.3690012 100.7704997  50.7379988  22.7884684 101.5318069  50.7781059
  26.2260012  98.9614997  37.4459988  25.7950012  98.5164997  38.1759988
  25.5080012  99.3334997  36.9339988  26.0699438  98.9508940  37.4766799
  19.4680012  98.7034997  44.4979988  20.0990012  98.6744997  45.2169988
  19.9170012  98.2784997  43.7679988  19.6150774  98.6420492  44.4976553
  20.7420012  99.4494997  39.9219988  21.2160012 100.0404997  39.3369988
  20.0250012  99.9804997  40.2689988  20.7099341  99.6020867  39.8888836
  30.9110012 102.9884997  49.9949988  31.2340012 102.3574997  49.3519988
  30.4710012 102.4534997  50.6549988  30.8956895 102.8298441  49.9962850
  27.6880012  98.9154997  44.7789988  26.7770012  98.9724997  45.0669988
  28.1940012  98.8554997  45.5889988  27.6315413  98.9151985  44.9280622
  22.5170012 100.5444997  43.6049988  21.6270012 100.6444997  43.2649988
  22.8130012  99.7024997  43.2589988  22.4352823 100.4443546  43.5117213
  26.1700012 100.5444997  41.2619988  27.1010012 100.6734997  41.4399988
  25.9550012 101.2144997  40.6119988  26.2684247 100.6526565  41.1985747
  32.0930012  98.1504997  48.0429988  31.4170012  98.2814997  48.7069988
  31.6080012  97.9954997  47.2329988  31.9347145  98.1474905  48.0244517
  24.8440012 101.7394997  38.8289988  24.3010012 101.3594997  38.1369988
  25.6770012 101.9334997  38.3999988  24.8824399 101.7138124  38.6764526
  35.3810012 113.8224997  54.3199988  35.5810012 114.2464997  53.4849988
  36.0360012 114.1654997  54.9269988  35.4970051 113.9269648  54.2877836
  22.9790012 106.2964997  53.9279988  23.7110012 106.5504997  54.4889988
  22.1990012 106.5004997  54.4429988  22.9738232 106.3589177  54.0745760
  29.0080012 101.7034997  46.6659988  29.5730012 101.1564997  46.1189988
  28.8610012 101.1814997  47.4539988  29.0652918 101.5582024  46.6978454
  24.0100012  97.8394997  43.0839988  23.6930012  96.9374997  43.0489988
  24.7920012  97.8414997  42.5309988  24.0722284  97.7161628  43.0044783
  27.6350012 100.0914997  49.0799988  26.7990012 100.5454997  49.1899988
  28.1590012 100.3674997  49.8319988  27.5914414 100.1909376  49.1967136
  28.1790012 106.3044997  40.7639988  27.4340012 105.7974997  40.4419988
  28.0450012 106.3534997  41.7109988  28.0588776 106.2416940  40.8478647
  35.3290012 105.4374997  49.5509988  35.9710012 105.8944997  49.0069988
  34.4990012 105.5504997  49.0879988  35.3045963 105.5152704  49.4140177
  32.0770012  99.1184997  38.9639988  31.1380012  99.2304997  38.8119988
  32.3740012  99.9754997  39.2699988  31.9887666  99.2496443  38.9845768
  29.6980012 106.4884997  52.0009988  29.3530012 106.1074997  52.8079988
  29.4980012 107.4224997  52.0729988  29.6238061 106.5625228  52.1210961
  32.7950012 100.9854997  40.6239988  33.6870012 100.8484997  40.9429988
  32.8520012 101.7764997  40.0879988  32.9246285 101.0736660  40.5951690
  23.3040012 105.5994997  46.5339988  24.0490012 105.5974997  45.9329988
  23.3820012 104.7764997  47.0159988  23.4165518 105.4879315  46.5168929
  30.3050012 107.7634997  39.7899988  30.0090012 108.5894997  40.1709988
  29.6020012 107.1434997  39.9859988  30.1694914 107.7928199  39.8686443
  20.3120012 104.0604997  51.8489988  20.5350012 103.6424997  52.6809988
  19.7100012 103.4474997  51.4259988  20.2611759 103.9204668  51.9057022
  27.3280012 103.5774997  54.0619988  27.0320012 103.4114997  53.1669988
  28.2600012 103.3574997  54.0509988  27.4134166 103.5250640  53.9380536
  31.9490012 108.9504997  51.9519988  31.0480012 109.1334997  51.6839988
  31.9830012 109.2094997  52.8729988  31.8303041 109.0105512  52.0398197
  37.6800012 101.1954997  40.3189988  37.1260012 100.7994997  39.6469988
  37.7800012 102.1054997  40.0409988  37.6177059 101.2643586  40.1894401
  37.6430012 106.9954997  53.1559988  36.7920012 107.2334997  52.7889988
  38.2340012 106.9784997  52.4029988  37.6062487 107.0258258  53.0038893
  35.9750012 109.9814997  40.7839988  35.6020012 109.1554997  41.0929988
  36.2530012 109.7984997  39.8869988  35.9615630 109.8437303  40.7049626
  33.1360012 104.7894997  47.8049988  32.2070012 104.5574997  47.7779988
  33.5870012 104.0124997  47.4749988  33.0699216 104.6527238  47.7566917
  25.6790012 109.1174997  43.9379988  26.2060012 109.8904997  43.7379988
  24.7990012 109.3424997  43.6369988  25.6321773 109.2538005  43.8699010
  21.4340012 103.9794997  38.5249988  22.0500012 104.6064997  38.9049988
  20.5720012 104.2954997  38.7969988  21.4017698 104.1079430  38.6137183
  27.1060012 106.7804997  43.5149988  26.8650012 107.7054997  43.5559988
  26.3650012 106.3214997  43.9109988  26.9728409 106.8451421  43.5741377
  27.6210012 110.9294997  49.8299988  27.9830012 111.7844997  49.5959988
  28.1520012 110.6374997  50.5699988  27.7424473 111.0071060  49.8980855
  25.7890012 111.8024997  43.0599988  24.8390012 111.9074997  43.1109988
  26.1410012 112.6224997  43.4049988  25.7064203 111.9278314  43.1136650
  31.1650012 107.0284997  49.5299988  30.7390012 106.8014997  50.3569988
  31.7450012 106.2904997  49.3479988  31.1851868 106.8975299  49.6185830
  33.3680012 107.9574997  38.6039988  33.7210012 107.5774997  39.4089988
  32.4190012 107.8644997  38.6909988  33.2880441 107.8929596  38.7258559
  33.8230012 111.5804997  51.9999988  33.2220012 111.0254997  51.5039988
  34.1050012 112.2474997  51.3739988  33.7788519 111.5946841  51.8474952
  37.8710012 112.4374997  38.8049988  38.6150012 113.0234997  38.6649988
  37.1770012 113.0054997  39.1389988  37.8790292 112.5945582  38.8309961
  21.9460012  98.8134997  51.4069988  21.0530012  99.1524997  51.3389988
  21.8470012  97.9584997  51.8249988  21.8104164  98.7442588  51.4542235
  34.2340012 106.6304997  40.8309988  33.9560012 105.9024997  41.3869988
  35.1610012 106.7494997  41.0359988  34.3213124 106.5468802  40.9348845
  21.5970012 110.6184997  49.8419988  21.8140012 109.6864997  49.8109988
  21.8430012 110.8924997  50.7249988  21.6599549 110.5280636  49.9571763
  27.4590012 109.0694997  37.0509988  27.6980012 108.3214997  36.5039988
  27.1900012 108.6814997  37.8839988  27.4553675 108.9146638  37.0886865
  26.3960012 108.6394997  39.5079988  26.5420012 108.1194997  40.2979988
  26.3930012 109.5464997  39.8139988  26.4155989 108.6908853  39.6576088
  22.8490012 105.8924997  40.0179988  22.1630012 106.2444997  40.5849988
  23.3710012 106.6554997  39.7709988  22.8256852 106.0438578  40.0622118
  30.6800012  98.5544997  50.2969988  31.3790012  98.6284997  50.9469988
  30.2990012  97.6904997  50.4509988  30.7241767  98.4477624  50.4068322
  31.4650012  98.2064997  41.3939988  31.6850012  98.6784997  40.5909988
  32.0230012  98.6014997  42.0639988  31.5704968  98.3244285  41.3747331
  29.1330012 110.3374997  40.2569988  28.3170012 110.8344997  40.3089988
  29.6630012 110.8124997  39.6169988  29.0929161 110.4697722  40.1775956
  28.6650012  99.9344997  42.2289988  29.4770012 100.4394997  42.2749988
  28.4200012  99.7894997  43.1429988  28.7430520  99.9840375  42.3588517
  29.2000012 100.9204997  51.4139988  29.3190012 101.4944997  52.1709988
  29.8560012 100.2324997  51.5279988  29.3049757 100.9061079  51.5330825
  29.5480012  97.0154997  43.1669988  29.2020012  97.6334997  43.8119988
  30.2070012  97.5164997  42.6859988  29.5897826  97.1675802  43.1900971
  26.4720012 111.3814997  40.2389988  26.6320012 112.1804997  39.7379988
  26.2740012 111.6874997  41.1239988  26.4671649 111.5324469  40.2899815
  25.2060012  98.0784997  39.8539988  25.1230012  98.9674997  40.2009988
  26.0960012  97.8134997  40.0859988  25.3149469  98.1641430  39.9327626
  35.4050012  98.8274997  52.2489988  34.4880012  99.0904997  52.1609988
  35.7400012  98.8244997  51.3519988  35.3249900  98.8630224  52.1157919
  34.0070012 102.5784997  46.3439988  33.2090012 102.1634997  46.0159988
  34.4520012 101.8874997  46.8349988  33.9579885 102.4283543  46.3654889
  23.4650012 108.5064997  38.9149988  24.0570012 109.2054997  39.1909988
  23.9240012 108.0734997  38.1949988  23.6081142 108.5437049  38.8554830
  21.7810012 101.1704997  38.0309988  21.7360012 102.1094997  38.2089988
  20.8930012 100.9344997  37.7609988  21.6548574 101.2671892  38.0188912
  35.0930012 111.8344997  47.9669988  34.9380012 112.5124997  47.3099988
  36.0260012 111.9064997  48.1699988  35.1978500 111.9370170  47.9045119
  22.5890012  95.9524997  46.7039988  22.3600012  96.0114997  45.7759988
  22.1460012  95.1604997  47.0099988  22.4978530  95.8535753  46.6184786
  21.5190012 109.8924997  42.8639988  20.6870012 110.3654997  42.8919988
  22.0650012 110.4024997  42.2659988  21.4789739 110.0261871  42.7869716
  20.8070012 112.5054997  54.1939988  21.3480012 112.2884997  54.9539988
  20.3260012 111.6994997  54.0049988  20.8159345 112.3669514  54.2723076
  25.4050012 111.4244997  55.8149988  26.1720012 110.9654997  56.1559988
  25.3830012 111.1984997  54.8849988  25.5071434 111.3310409  55.7360043
  29.4970012 110.9324997  37.1899988  28.8530012 110.3014997  37.5109988
  30.2590012 110.4014997  36.9579988  29.5118077 110.7742920  37.2026011
  31.9820012 109.8044997  54.5439988  31.6310012 108.9484997  54.7869988
  32.7080012 109.9474997  55.1509988  32.0320769 109.7065636  54.6593619
  34.1010012 110.7494997  37.4239988  34.3840012 109.9554997  37.8759988
  34.8410012 110.9824997  36.8629988  34.2397486 110.6722803  37.4100698
  20.7140012 106.3154997  55.1489988  20.8580012 105.4134997  54.8619988
  19.9420012 106.6014997  54.6609988  20.6293323 106.2308261  55.0437881
  25.0560012 106.6594997  37.2809988  25.1200012 105.8654997  37.8119988
  25.7090012 106.5404997  36.5909988  25.1530241 106.5347148  37.2604317
  27.3700012 106.2854997  54.5809988  27.0410012 106.5564997  53.7239988
  27.5220012 105.3444997  54.4939988  27.3454809 106.1953862  54.4518244
  30.4080012 107.7064997  37.0169988  30.1390012 107.8864997  37.9179988
  30.2020012 106.7804997  36.8859988  30.3433825 107.6060152  37.1225214
  33.1040012 106.2014997  51.9649988  33.8500012 106.7894997  51.8449988
  32.3470012 106.7834997  52.0279988  33.1037554 106.3607011  51.9570907
  21.5470012 103.5154997  54.5689988  21.9550012 102.6584997  54.4479988
  21.2870012 103.5304997  55.4899988  21.5677568 103.4000807  54.6769588
  26.2050012 104.6314997  39.5869988  25.7450012 104.1474997  40.2729988
  26.4600012 103.9634997  38.9509988  26.1764902 104.4748731  39.5949334
  25.4940012 102.5244997  51.9429988  24.8760012 103.1994997  52.2229988
  25.8380012 102.8454997  51.1099988  25.4559615 102.6602721  51.8686581
  27.2760012 102.8744997  37.8489988  27.0960012 102.7204997  36.9219988
  28.2260012 102.9824997  37.8939988  27.3797776 102.8680175  37.7281843
  30.5140012 104.9964997  55.2199988  31.4670012 105.0794997  55.1929988
  30.3530012 104.2844997  55.8399988  30.6226426 104.9116746  55.3000579
  36.6660012 105.2294997  37.2949988  36.3920012 104.8044997  36.4819988
  36.7050012 106.1604997  37.0779988  36.6337699 105.2972484  37.1543610
  25.8330012  99.8794997  53.0249988  25.9830012  99.1504997  52.4229988
  25.8360012 100.6564997  52.4659988  25.8539302  99.8847851  52.8670692
  26.2460012  98.2494997  50.5179988  26.7820012  98.7004997  49.8659988
  25.3940012  98.1414997  50.0949988  26.2042178  98.2966390  50.3715756
  27.8280012 103.6884997  50.7569988  28.5780012 103.5324997  50.1839988
  27.4890012 104.5404997  50.4819988  27.8848921 103.7822968  50.6413561
  32.2430012 101.5034997  55.7859988  32.4360012 100.5724997  55.6739988
  33.1010012 101.9284997  55.7759988  32.3853020 101.4336389  55.7693361
  33.5600012 104.2924997  53.8629988  33.2790012 105.0014997  53.2859988
  34.5030012 104.2194997  53.7119988  33.6489027 104.3797646  53.7635551
  24.3120012 101.0774997  54.9369988  23.5450012 100.5454997  54.7269988
  24.9910012 100.7674997  54.3369988  24.2987022 100.9627506  54.8271648
  27.0520012  95.7054997  50.9489988  26.9530012  96.6524997  50.8439988
  26.3090012  95.3334997  50.4739988  26.9380563  95.7845902  50.8704560
  28.3160012 100.0274997  54.5129988  28.0800012  99.8074997  55.4149988
  27.5320012  99.8204997  54.0029988  28.1778628  99.9694760  54.5673932
  31.0310012  99.1544997  53.5889988  30.0840012  99.1864997  53.7209988
  31.3440012  98.5294997  54.2419988  30.9435475  99.0743207  53.6954455
  32.6650012  97.7884997  55.5939988  32.5690012  96.8364997  55.5879988
  32.3440012  98.0574997  56.4539988  32.6084070  97.6944035  55.7095441
  22.4920012  98.9984997  54.6409988  22.7040012  98.2914997  54.0309988
  22.3810012  98.5604997  55.4849988  22.5059721  98.8427084  54.6716843
  27.2730012  94.9994997  53.6209988  27.9850012  94.3594997  53.6069988
  27.1720012  95.2664997  52.7069988  27.3567939  94.9479938  53.4955650
  27.6270012  96.6824997  55.6739988  27.4950012  96.2064997  54.8539988
  27.0280012  97.4264997  55.6189988  27.5279071  96.7179618  55.5542886
  27.1730012 113.5654997  38.8509988  28.1060012 113.7234997  38.9939988
  26.9090012 114.2404997  38.2259988  27.2649510 113.6783611  38.7860741
  20.7420012 108.2014997  38.3329988  21.6560012 108.2804997  38.6069988
  20.7490012 107.5144997  37.6669988  20.8681131 108.1193961  38.2804393
  19.3910012 113.5944997  43.4109988  18.7440012 113.1324997  42.8779988
  19.7450012 112.9224997  43.9929988  19.3503849 113.4404723  43.4167959
  20.2610012 111.6754997  45.2149988  19.9260012 110.7954997  45.3869988
  20.4830012 112.0204997  46.0799988  20.2451783 111.6017500  45.3554208
  37.8090012 112.4844997  48.1959988  37.7880012 112.6694997  49.1349988
  38.5000012 113.0534997  47.8549988  37.8994618 112.5866606  48.2783864
  37.3730012 112.0524997  51.1179988  36.8850012 111.3164997  50.7469988
  37.9220012 111.6584997  51.7959988  37.3804872 111.8986249  51.1589160
  35.8230012 107.8414997  55.7559988  34.9570012 107.7364997  56.1499988
  36.2000012 108.6004997  56.2019988  35.7553308 107.9296900  55.8702393
  37.1240012 106.0984997  41.2699988  37.9740012 106.5194997  41.3969988
  37.1300012 105.3584997  41.8769988  37.2411372 106.0560803  41.3694344
  37.5190012 104.1514997  43.0939988  36.7920012 103.6724997  43.4909988
  38.1000012 104.3574997  43.8259988  37.4979375 104.1137090  43.2474129
  37.2780012 106.9364997  48.0409988  38.1110012 106.5584997  47.7609988
  37.3900012 107.8794997  47.9219988  37.4072647 107.0122218  47.9865487
  35.7640012 109.8144997  50.3479988  35.1170012 110.1394997  50.9739988
  35.2470012 109.3744997  49.6739988  35.6054029 109.7995004  50.3425827
  37.7870012 104.0524997  39.4849988  37.2650012 104.4094997  38.7659988
  37.7540012 104.7274997  40.1629988  37.7111634 104.1925413  39.4783145
  36.1360012 101.2924997  38.0359988  36.2320012 101.9594997  37.3549988
  35.9960012 100.4764997  37.5539988  36.1302135 101.2734500  37.8778491
  35.3050012 102.6724997  43.6569988  35.1550012 101.7274997  43.6359988
  34.9520012 102.9534997  44.4999988  35.2366625 102.5810441  43.7682346
  20.3410012 104.7504997  47.6669988  20.5250012 104.6684997  46.7309988
  21.1900012 104.6264997  48.0909988  20.4810139 104.7225003  47.5961455
  36.1620012 104.6424997  53.2949988  36.7450012 103.9084997  53.4869988
  36.7260012 105.4144997  53.3419988  36.3179769 104.6464227  53.3276159
  37.6580012 102.5454997  53.9799988  36.7950012 102.1664997  53.8139988
  38.2630012 101.8064997  53.9059988  37.6215979 102.3938023  53.9472817
  35.3830012  98.7004997  37.1529988  35.9940012  98.3294997  37.7899988
  34.5470012  98.2794997  37.3489988  35.3535032  98.5927554  37.2667035
  35.0160012 100.2554997  42.1189988  35.2960012  99.3484997  42.2429988
  35.7750012 100.6894997  41.7299988  35.1569277 100.1900942  42.0833682
  35.6280012 100.8364997  47.5549988  36.5610012 101.0484997  47.5209988
  35.3930012 100.9384997  48.4769988  35.7238036 100.8792769  47.6749976
  35.6570012 101.5734997  50.3309988  34.8140012 101.8414997  50.6969988
  36.0990012 102.3954997  50.1199988  35.6014158 101.7213291  50.3525491
  19.9380012 100.0214997  53.8079988  20.8580012  99.8994997  54.0439988
  19.4890012  99.2714997  54.1969988  20.0031580  99.9033727  53.8929006
  37.9400012  95.5534997  55.6839988  38.2900012  94.8994997  55.0789988
  38.0870012  96.3904997  55.2449988  38.0078419  95.5771591  55.5417118
  35.6290012  97.5184997  42.1669988  35.8120012  97.0694997  42.9929988
  35.0300012  96.9334997  41.7039988  35.5730202  97.3779975  42.2173275
  21.1590012  98.3334997  46.6989988  21.6050012  97.5414997  47.0009988
  21.6260012  99.0494997  47.1299988  21.2830172  98.3220624  46.7984820
  19.4630012 101.3324997  47.7679988  19.9550012 101.1114997  46.9769988
  19.8260012 102.1734997  48.0489988  19.5793126 101.4158357  47.6977531
  37.4600012  97.6624997  54.0339988  36.5420012  97.9334997  53.9979988
  37.5830012  97.1274997  53.2489988  37.3511066  97.6272892  53.9230487
  37.4960012  97.5854997  38.6949988  37.9080012  96.8644997  38.2199988
  38.1780012  98.2554997  38.7539988  37.6445885  97.5772368  38.6378915
  19.7770012  97.5904997  41.8219988  18.8520012  97.7994997  41.6929988
  20.2310012  98.0744997  41.1329988  19.7117368  97.6845993  41.7111226
  34.5480012 112.5744997  43.7679988  35.2000012 112.2274997  43.1599988
  35.0580012 113.0634997  44.4139988  34.7062637 112.5930597  43.7720236
  19.7410012  96.3284997  50.1669988  19.0760012  96.0824997  50.8099988
  19.2980012  96.9504997  49.5889988  19.5900956  96.3788632  50.1769352
  21.9330012 109.5034997  54.3109988  21.1120012 109.6784997  53.8509988
  21.6800012 109.4304997  55.2319988  21.7866164 109.5175622  54.3724923
  24.8870012 110.4784997  50.5699988  24.4620012 111.2874997  50.2869988
  25.7910012 110.5634997  50.2679988  24.9510271 110.6008469  50.4903776
  29.1980012 111.8774997  53.5289988  29.3830012 111.5434997  54.4069988
  30.0440012 112.1864997  53.2069988  29.3377539 111.8736047  53.6055605
  31.5430012 113.1634997  52.7729988  32.2200012 112.5304997  52.5329988
  31.8650012 113.5644997  53.5799988  31.6791637 113.1311154  52.8492793
  36.4600012  95.7524997  51.8529988  35.6480012  96.0774997  51.4649988
  36.6930012  94.9924997  51.3199988  36.3803423  95.6942436  51.7278253
  22.2890012 113.7344997  50.6169988  21.5680012 114.1744997  50.1659988
  21.9230012 113.4834997  51.4659988  22.1409804 113.7607698  50.6699840
  24.7560012 113.3344997  49.6469988  23.8910012 113.4064997  50.0509988
  24.7010012 113.8814997  48.8629988  24.6302085 113.4182685  49.5963362
  29.4660012 113.2224997  48.8219988  29.0100012 113.7514997  48.1679988
  29.6290012 113.8254997  49.5479988  29.4255585 113.3764468  48.8305062
  31.7940012 112.1004997  49.7669988  30.8890012 112.2654997  49.5019988
  32.2230012 112.9534997  49.7019988  31.7280799 112.2384483  49.7219182
  34.3980012 113.6704997  50.0619988  34.2160012 114.5864997  49.8519988
  34.5750012 113.2604997  49.2159988  34.3970210 113.7404822  49.9187885
  21.7030012 112.3574997  47.5269988  21.6850012 111.9324997  48.3849988
  22.5080012 112.0394997  47.1189988  21.8093875 112.2563812  47.5891655
  23.8450012 111.0674997  46.1819988  23.6260012 110.1514997  46.3519988
  24.6690012 111.2074997  46.6479988  23.9264420 110.9610520  46.2682773
  26.3820012 111.5374997  47.0309988  26.5950012 110.6494997  46.7439988
  26.4460012 111.5034997  47.9849988  26.4198231 111.4113102  47.1207397
  29.8900012  97.2014997  46.1749988  29.2160012  96.5724997  46.4309988
  30.4540012  96.7174997  45.5719988  29.8739230  97.0498744  46.1285340
  35.0330012  95.3094997  46.2879988  35.6370012  95.8564997  45.7859988
  34.1630012  95.6284997  46.0479988  34.9981241  95.4275806  46.1867654
  36.7600012  96.4474997  44.6209988  37.3720012  95.9334997  44.0949988
  37.1420012  97.3254997  44.6449988  36.8954540  96.4957140  44.5521830
  22.2170012  95.8354997  43.9969988  21.4400012  95.6014997  43.4899988
  22.7470012  95.0384997  44.0059988  22.1822330  95.6956988  43.9287742
  21.0530012  95.6334997  39.8009988  21.4920012  96.2444997  39.2089988
  20.4200012  96.1714997  40.2749988  21.0274514  95.7899257  39.7840930
  26.7960012  95.7624997  43.8109988  27.6710012  96.1504997  43.7809988
  26.6600012  95.5474997  44.7329988  26.8973695  95.7865184  43.9316440
  32.3530012  95.7924997  45.4599988  32.4290012  95.8874997  44.5099988
  32.0780012  94.8844997  45.5889988  32.3262321  95.6827867  45.3475079
  33.7060012  95.8184997  41.1519988  33.0040012  96.4334997  40.9429988
  33.2620012  94.9804997  41.2829988  33.5496330  95.7895783  41.1410328
  20.9540012 111.5814997  40.6989988  20.2690012 111.5434997  40.0309988
  20.9580012 112.4944997  40.9869988  20.8608193 111.6997016  40.6465284
  22.9140012  97.5494997  38.2429988  23.4060012  96.9194997  37.7159988
  23.5380012  97.8454997  38.9069988  23.0655446  97.5033199  38.2605980
  27.9400012  97.8424997  40.6999988  28.1180012  97.1964997  41.3829988
  27.8870012  98.6764997  41.1679988  27.9571829  97.8667985  40.8565940
  29.8190012 112.7914997  39.0959988  30.6850012 113.1574997  38.9179988
  29.5720012 112.3514997  38.2819988  29.9042392 112.7821756  38.9616289
  36.5280012 112.3544997  41.7749988  36.3330012 111.6064997  41.2099988
  36.4890012 113.1124997  41.1919988  36.4960380 112.3546099  41.6188384
  22.1750012  96.3494997  53.5149988  21.8090012  95.5844997  53.9579988
  23.0880012  96.3784997  53.8019988  22.2482790  96.2487224  53.6144070
  24.1480012  95.7004997  55.0509988  25.0460012  95.4264997  54.8659988
  23.7610012  94.9574997  55.5149988  24.2186612  95.5625914  55.0883643
  22.7720012 112.5014997  37.7239988  22.5050012 112.7884997  38.5969988
  23.5440012 111.9554997  37.8759988  22.8397488 112.4670294  37.8641050
  32.5690012  95.0324997  55.2329988  32.6460012  94.6064997  56.0869988
  33.4630012  95.0464997  54.8899988  32.7003428  94.9760880  55.3035310
  35.7450012 111.1054997  53.9249988  34.9630012 110.9194997  53.4059988
  35.6730012 112.0344997  54.1429988  35.6281777 111.2056492  53.8834048
  50.1510012 104.9914997  43.9559988  50.2400012 105.9354997  43.8239988
  49.5130012 104.7164997  43.2979988  50.0769081 105.0834830  43.8489614
  49.0840012 104.2464997  47.3749988  49.0460012 103.6004997  48.0799988
  48.7620012 103.7804997  46.6039988  49.0352333 104.0949408  47.3672978
  41.4530012 103.8614997  48.9679988  41.4940012 103.2354997  49.6909988
  42.1560012 104.4854997  49.1499988  41.5536363 103.8601196  49.0916044
  52.7900012 107.1854997  45.6759988  52.3500012 106.4654997  46.1269988
  52.7770012 107.9064997  46.3059988  52.7280226 107.1843731  45.8228494
  42.3760012 108.3114997  47.5029988  42.0070012 107.5094997  47.1329988
  43.3170012 108.1424997  47.5489988  42.4527289 108.1790153  47.4586316
  38.9860012 101.9714997  42.8959988  38.5390012 102.8174997  42.8769988
  38.4250012 101.3914997  42.3799988  38.8489900 102.0089916  42.8236801
  39.6970012 104.1334997  45.0219988  39.9100012 103.3634997  45.5489988
  40.4350012 104.2224997  44.4179988  39.8258496 104.0401394  45.0125300
  49.9020012 112.2904997  45.8889988  50.5220012 111.6134997  45.6149988
  49.6940012 112.0724997  46.7969988  49.9586904 112.1683870  45.9743365
  47.4740012 106.6794997  47.7809988  47.7780012 105.9934997  47.1859988
  48.1950012 106.7974997  48.3989988  47.6130671 106.6016305  47.7831816
  56.1370012  98.2804997  48.6419988  56.1860012  98.8904997  49.3779988
  56.5620012  98.7414997  47.9189988  56.2011824  98.4263741  48.6450205
  50.6150012 101.0734997  48.1089988  50.7570012 100.1274997  48.1289988
  50.5080012 101.2804997  47.1799988  50.6199863 100.9719534  47.9862339
  43.7690012  99.1744997  45.3809988  43.8130012 100.0344997  44.9629988
  43.3120012  98.6224997  44.7469988  43.7132185  99.2175799  45.2380299
  51.4920012  99.3054997  43.7819988  52.1380012  98.9764997  44.4069988
  52.0020012  99.8234997  43.1589988  51.6494264  99.3304611  43.7833862
  40.3900012 101.5714997  46.1429988  41.0430012 101.0214997  46.5749988
  40.4140012 101.2974997  45.2259988  40.4826683 101.4591466  46.0782123
  45.5460012 103.1214997  45.3579988  46.1620012 102.5954997  45.8679988
  44.9600012 102.4814997  44.9549988  45.5510810 102.9629208  45.3733173
  56.5280012  99.7584997  50.8779988  55.8400012 100.4164997  50.7819988
  56.5440012  99.5614997  51.8139988  56.4358525  99.8220462  50.9914808
  42.5800012  98.0924997  49.4549988  42.3610012  98.6224997  48.6889988
  41.9120012  98.3194997  50.1019988  42.4597600  98.1956906  49.4376379
  49.9490012 107.5924997  42.9989988  49.6530012 107.2704997  42.1479988
  49.6240012 108.4924997  43.0399988  49.8646371 107.6700215  42.8881801
  45.1490012 105.7684997  49.7419988  44.4090012 106.3664997  49.8459988
  45.8630012 106.3224997  49.4269988  45.1442237 105.9252831  49.7136465
  53.2560012  98.5964997  45.7619988  53.0400012  97.8304997  46.2949988
  53.9110012  99.0684997  46.2749988  53.3150632  98.5555889  45.9042861
  42.1730012  99.9844997  47.4069988  42.7870012 100.6174997  47.7809988
  42.6850012  99.5124997  46.7509988  42.3262296 100.0072370  47.3694252
  43.5560012 107.7324997  50.5299988  43.5510012 108.6124997  50.1519988
  42.7030012 107.6494997  50.9549988  43.4399464 107.8416117  50.5357907
  39.6770012 107.4034997  41.3119988  39.4050012 107.6324997  40.4229988
  39.7230012 108.2414997  41.7719988  39.6460094 107.5481213  41.2525697
  53.3020012 109.0254997  48.0239988  52.3610012 109.0834997  48.1859988
  53.5790012 109.9314997  47.8869988  53.2104679 109.1559443  48.0276815
  53.6030012  97.3114997  49.4419988  52.8670012  97.9224997  49.4039988
  54.2860012  97.7264997  48.9149988  53.5946541  97.4511374  49.3655832
  46.6060012  95.3984997  46.9079988  46.4890012  94.4494997  46.8529988
  45.7510012  95.7304997  47.1809988  46.4743733  95.3135409  46.9373897
  51.5540012 110.8064997  44.6499988  51.9800012 110.0994997  44.1649988
  51.8710012 111.6074997  44.2329988  51.6551019 110.8180994  44.5273130
  52.7140012 108.7074997  43.1579988  52.4560012 108.0174997  42.5469988
  52.7850012 108.2644997  44.0039988  52.6882856 108.5532124  43.1886885
  54.4000012 107.2734997  51.6359988  54.5400012 106.6824997  50.8959988
  54.5670012 108.1464997  51.2789988  54.4416778 107.3106426  51.4866965
  48.8730012 104.2354997  41.4079988  48.1610012 104.7704997  41.0559988
  49.5640012 104.2914997  40.7479988  48.8690132 104.3162543  41.2706289
  48.9260012 102.6934997  38.4469988  49.6270012 102.7154997  39.0979988
  49.2290012 102.0654997  37.7909988  49.0627830 102.6116566  38.4473711
  56.2420012 103.6134997  49.7019988  55.5890012 104.3084997  49.7909988
  56.7070012 103.8234997  48.8919988  56.2155390 103.7369425  49.6046883
  52.2780012 104.4454997  42.3599988  51.5460012 104.6734997  42.9329988
  52.7260012 103.7314997  42.8149988  52.2383095 104.3802571  42.4999119
  52.1760012 102.6194997  51.4269988  52.2560012 103.3824997  51.9989988
  51.5740012 102.8984997  50.7369988  52.1055756 102.7617134  51.4120589
  43.9240012 105.0754997  44.2419988  43.5930012 104.7054997  43.4239988
  44.5120012 104.4054997  44.5889988  43.9581873 104.9341156  44.1768102
  45.2900012 108.5034997  46.9239988  45.1960012 107.9254997  46.1669988
  46.0200012 108.1324997  47.4199988  45.3757981 108.3742390  46.8874165
  44.2900012 103.8444997  47.8759988  44.8560012 103.9654997  47.1129988
  44.6090012 104.4814997  48.5149988  44.4105786 103.9471884  47.8580040
  50.5990012 109.3474997  48.6099988  50.3590012 110.0094997  49.2579988
  50.4010012 108.5134997  49.0349988  50.5393808 109.3253134  48.7561524
  45.1700012 108.2434997  52.5929988  44.8590012 109.0254997  53.0479988
  44.5200012 108.0904997  51.9069988  45.0395558 108.3299105  52.5625871
  51.1490012 103.6074997  40.0449988  51.7290012 103.7574997  40.7919988
  51.5630012 104.0784997  39.3219988  51.2842830 103.6916841  40.0494134
  42.0900012 104.4414997  51.8219988  42.1610012 105.0924997  52.5199988
  41.2000012 104.5444997  51.4869988  41.9793117 104.5445936  51.8722700
  48.8760012 110.3444997  43.4799988  49.3500012 110.6394997  44.2579988
  48.3130012 111.0824997  43.2469988  48.8647653 110.4846932  43.5550136
  43.4100012 110.3154997  53.3559988  43.4170012 110.1794997  52.4089988
  42.4940012 110.1974997  53.6079988  43.2871714 110.2809430  53.2604666
  54.8480012  95.3574997  39.8579988  53.9480012  95.4964997  40.1529988
  55.1000012  96.1884997  39.4559988  54.7588702  95.4889074  39.8440205
  42.9140012 104.1454997  41.8319988  42.6220012 104.9134997  41.3409988
  42.2400012 103.4854997  41.6689988  42.7829081 104.1614406  41.7427340
  56.0370012 109.7234997  38.2339988  56.1110012 110.6624997  38.4049988
  56.9430012 109.4184997  38.1779988  56.1695100 109.8106722  38.2498119
  39.0070012 106.5084997  50.6469988  38.5060012 106.4804997  49.8319988
  39.0120012 105.6024997  50.9559988  38.9391526 106.3822278  50.5772872
  38.7570012 109.2884997  47.5309988  39.7030012 109.1444997  47.5119988
  38.6450012 110.0724997  48.0679988  38.8712727 109.3748046  47.6010072
  56.9550012 109.9544997  53.2129988  56.9060012 108.9994997  53.1759988
  56.1280012 110.2224997  53.6139988  56.8364940 109.8598998  53.2621375
  47.9340012 109.5284997  52.0889988  48.0210012 110.3544997  52.5639988
  47.0700012 109.1984997  52.3379988  47.8291964 109.5969878  52.1876549
  48.3480012 113.3004997  41.8949988  48.2730012 113.1794997  40.9489988
  48.3810012 114.2504997  42.0139988  48.3421848 113.4122500  41.7814834
  42.0010012 112.0894997  43.6759988  42.1540012 111.7414997  44.5549988
  41.1510012 111.7334997  43.4209988  41.9068962 111.9936650  43.7618340
  51.4500012 112.4544997  38.8969988  51.8250012 111.7104997  38.4269988
  51.4540012 112.1844997  39.8159988  51.5018915 112.3161486  38.9567824
  51.1190012 112.3804997  41.6469988  50.1830012 112.4804997  41.8249988
  51.3990012 111.6714997  42.2249988  51.0288255 112.2982711  41.7495391
  54.1070012 101.4474997  53.6929988  53.7000012 101.9284997  52.9719988
  54.1480012 100.5424997  53.3849988  54.0568437 101.3909374  53.5526683
  41.2560012 107.8314997  51.6899988  41.4720012 107.4704997  52.5489988
  40.4010012 107.4574997  51.4799988  41.1699292 107.7314111  51.7793386
  43.8750012  96.3014997  47.6849988  43.0130012  96.2144997  47.2779988
  43.8520012  97.1574997  48.1129988  43.7540330  96.4052765  47.6871863
  48.5380012  96.0234997  51.0599988  48.9580012  95.6084997  51.8129988
  47.6050012  95.8454997  51.1769988  48.4693644  95.9425900  51.1789539
  51.8640012  99.7794997  51.9129988  51.3500012  99.6534997  52.7109988
  51.7090012 100.6914997  51.6689988  51.7726852  99.8856132  51.9892158
  52.6270012 104.6404997  37.6749988  52.6690012 104.4174997  36.7449988
  53.4760012 105.0394997  37.8649988  52.7475396 104.6639155  37.5733627
  48.1990012  98.5164997  38.3449988  47.9460012  98.5354997  39.2679988
  47.9430012  97.6444997  38.0439988  48.1297790  98.4012437  38.4306263
  43.9660012 101.2674997  48.7799988  43.3240012 101.2264997  49.4889988
  44.0030012 102.1934997  48.5429988  43.8831324 101.3871559  48.8449824
  43.9630012 101.4884997  43.6919988  43.0700012 101.1474997  43.6339988
  44.4130012 101.1114997  42.9369988  43.9017305 101.3908484  43.5819177
  49.4980012 101.9044997  42.5089988  49.0890012 102.7194997  42.2179988
  50.2190012 101.7644997  41.8949988  49.5394537 101.9972018  42.3861342
  48.6000012 102.0794997  53.9969988  48.0380012 101.3754997  54.3179988
  49.4270012 101.9594997  54.4649988  48.6347095 101.9667883  54.1042330
  50.5030012 101.3504997  45.3229988  50.3080012 101.9554997  44.6079988
  50.6840012 100.5164997  44.8889988  50.5007614 101.3206300  45.1664405
  41.7160012 101.5874997  50.6469988  41.6780012 101.9874997  51.5159988
  41.2250012 100.7704997  50.7379988  41.6444684 101.5318069  50.7781059
  45.0820012  98.9614997  37.4459988  44.6510012  98.5164997  38.1759988
  44.3640012  99.3334997  36.9339988  44.9259438  98.9508940  37.4766799
  38.3240012  98.7034997  44.4979988  38.9550012  98.6744997  45.2169988
  38.7730012  98.2784997  43.7679988  38.4710774  98.6420492  44.4976553
  39.5980012  99.4494997  39.9219988  40.0720012 100.0404997  39.3369988
  38.8810012  99.9804997  40.2689988  39.5659341  99.6020867  39.8888836
  49.7670012 102.9884997  49.9949988  50.0900012 102.3574997  49.3519988
  49.3270012 102.4534997  50.6549988  49.7516895 102.8298441  49.9962850
  46.5440012  98.9154997  44.7789988  45.6330012  98.9724997  45.0669988
  47.0500012  98.8554997  45.5889988  46.4875413  98.9151985  44.9280622
  41.3730012 100.5444997  43.6049988  40.4830012 100.6444997  43.2649988
  41.6690012  99.7024997  43.2589988  41.2912823 100.4443546  43.5117213
  45.0260012 100.5444997  41.2619988  45.9570012 100.6734997  41.4399988
  44.8110012 101.2144997  40.6119988  45.1244247 100.6526565  41.1985747
  50.9490012  98.1504997  48.0429988  50.2730012  98.2814997  48.7069988
  50.4640012  97.9954997  47.2329988  50.7907145  98.1474905  48.0244517
  43.7000012 101.7394997  38.8289988  43.1570012 101.3594997  38.1369988
  44.5330012 101.9334997  38.3999988  43.7384399 101.7138124  38.6764526
  54.2370012 113.8224997  54.3199988  54.4370012 114.2464997  53.4849988
  54.8920012 114.1654997  54.9269988  54.3530051 113.9269648  54.2877836
  41.8350012 106.2964997  53.9279988  42.5670012 106.5504997  54.4889988
  41.0550012 106.5004997  54.4429988  41.8298232 106.3589177  54.0745760
  47.8640012 101.7034997  46.6659988  48.4290012 101.1564997  46.1189988
  47.7170012 101.1814997  47.4539988  47.9212918 101.5582024  46.6978454
  42.8660012  97.8394997  43.0839988  42.5490012  96.9374997  43.0489988
  43.6480012  97.8414997  42.5309988  42.9282284  97.7161628  43.0044783
  46.4910012 100.0914997  49.0799988  45.6550012 100.5454997  49.1899988
  47.0150012 100.3674997  49.8319988  46.4474414 100.1909376  49.1967136
  47.0350012 106.3044997  40.7639988  46.2900012 105.7974997  40.4419988
  46.9010012 106.3534997  41.7109988  46.9148776 106.2416940  40.8478647
  54.1850012 105.4374997  49.5509988  54.8270012 105.8944997  49.0069988
  53.3550012 105.5504997  49.0879988  54.1605963 105.5152704  49.4140177
  50.9330012  99.1184997  38.9639988  49.9940012  99.2304997  38.8119988
  51.2300012  99.9754997  39.2699988  50.8447666  99.2496443  38.9845768
  48.5540012 106.4884997  52.0009988  48.2090012 106.1074997  52.8079988
  48.3540012 107.4224997  52.0729988  48.4798061 106.5625228  52.1210961
  51.6510012 100.9854997  40.6239988  52.5430012 100.8484997  40.9429988
  51.7080012 101.7764997  40.0879988  51.7806285 101.0736660  40.5951691
  42.1600012 105.5994997  46.5339988  42.9050012 105.5974997  45.9329988
  42.2380012 104.7764997  47.0159988  42.2725518 105.4879315  46.5168929
  49.1610012 107.7634997  39.7899988  48.8650012 108.5894997  40.1709988
  48.4580012 107.1434997  39.9859988  49.0254914 107.7928199  39.8686443
  39.1680012 104.0604997  51.8489988  39.3910012 103.6424997  52.6809988
  38.5660012 103.4474997  51.4259988  39.1171759 103.9204668  51.9057022
  46.1840012 103.5774997  54.0619988  45.8880012 103.4114997  53.1669988
  47.1160012 103.3574997  54.0509988  46.2694166 103.5250640  53.9380536
  50.8050012 108.9504997  51.9519988  49.9040012 109.1334997  51.6839988
  50.8390012 109.2094997  52.8729988  50.6863041 109.0105512  52.0398197
  56.5360012 101.1954997  40.3189988  55.9820012 100.7994997  39.6469988
  56.6360012 102.1054997  40.0409988  56.4737059 101.2643586  40.1894401
  56.4990012 106.9954997  53.1559988  55.6480012 107.2334997  52.7889988
  57.0900012 106.9784997  52.4029988  56.4622487 107.0258258  53.0038893
  54.8310012 109.9814997  40.7839988  54.4580012 109.1554997  41.0929988
  55.1090012 109.7984997  39.8869988  54.8175630 109.8437303  40.7049626
  51.9920012 104.7894997  47.8049988  51.0630012 104.5574997  47.7779988
  52.4430012 104.0124997  47.4749988  51.9259216 104.6527238  47.7566917
  44.5350012 109.1174997  43.9379988  45.0620012 109.8904997  43.7379988
  43.6550012 109.3424997  43.6369988  44.4881773 109.2538005  43.8699010
  40.2900012 103.9794997  38.5249988  40.9060012 104.6064997  38.9049988
  39.4280012 104.2954997  38.7969988  40.2577698 104.1079430  38.6137183
  45.9620012 106.7804997  43.5149988  45.7210012 107.7054997  43.5559988
  45.2210012 106.3214997  43.9109988  45.8288409 106.8451421  43.5741377
  46.4770012 110.9294997  49.8299988  46.8390012 111.7844997  49.5959988
  47.0080012 110.6374997  50.5699988  46.5984473 111.0071060  49.8980855
  44.6450012 111.8024997  43.0599988  43.6950012 111.9074997  43.1109988
  44.9970012 112.6224997  43.4049988  44.5624203 111.9278314  43.1136650
  50.0210012 107.0284997  49.5299988  49.5950012 106.8014997  50.3569988
  50.6010012 106.2904997  49.3479988  50.0411868 106.8975299  49.6185830
  52.2240012 107.9574997  38.6039988  52.5770012 107.5774997  39.4089988
  51.2750012 107.8644997  38.6909988  52.1440441 107.8929596  38.7258559
  52.6790012 111.5804997  51.9999988  52.0780012 111.0254997  51.5039988
  52.9610012 112.2474997  51.3739988  52.6348519 111.5946841  51.8474952
  56.7270012 112.4374997  38.8049988  57.4710012 113.0234997  38.6649988
  56.0330012 113.0054997  39.1389988  56.7350292 112.5945582  38.8309961
  40.8020012  98.8134997  51.4069988  39.9090012  99.1524997  51.3389988
  40.7030012  97.9584997  51.8249988  40.6664164  98.7442588  51.4542235
  53.0900012 106.6304997  40.8309988  52.8120012 105.9024997  41.3869988
  54.0170012 106.7494997  41.0359988  53.1773124 106.5468802  40.9348845
  40.4530012 110.6184997  49.8419988  40.6700012 109.6864997  49.8109988
  40.6990012 110.8924997  50.7249988  40.5159549 110.5280636  49.9571763
  46.3150012 109.0694997  37.0509988  46.5540012 108.3214997  36.5039988
  46.0460012 108.6814997  37.8839988  46.3113675 108.9146638  37.0886865
  45.2520012 108.6394997  39.5079988  45.3980012 108.1194997  40.2979988
  45.2490012 109.5464997  39.8139988  45.2715989 108.6908853  39.6576088
  41.7050012 105.8924997  40.0179988  41.0190012 106.2444997  40.5849988
  42.2270012 106.6554997  39.7709988  41.6816852 106.0438578  40.0622118
  49.5360012  98.5544997  50.2969988  50.2350012  98.6284997  50.9469988
  49.1550012  97.6904997  50.4509988  49.5801767  98.4477624  50.4068322
  50.3210012  98.2064997  41.3939988  50.5410012  98.6784997  40.5909988
  50.8790012  98.6014997  42.0639988  50.4264968  98.3244285  41.3747331
  47.9890012 110.3374997  40.2569988  47.1730012 110.8344997  40.3089988
  48.5190012 110.8124997  39.6169988  47.9489161 110.4697722  40.1775956
  47.5210012  99.9344997  42.2289988  48.3330012 100.4394997  42.2749988
  47.2760012  99.7894997  43.1429988  47.5990520  99.9840375  42.3588517
  48.0560012 100.9204997  51.4139988  48.1750012 101.4944997  52.1709988
  48.7120012 100.2324997  51.5279988  48.1609757 100.9061079  51.5330825
  48.4040012  97.0154997  43.1669988  48.0580012  97.6334997  43.8119988
  49.0630012  97.5164997  42.6859988  48.4457826  97.1675802  43.1900971
  45.3280012 111.3814997  40.2389988  45.4880012 112.1804997  39.7379988
  45.1300012 111.6874997  41.1239988  45.3231649 111.5324469  40.2899815
  44.0620012  98.0784997  39.8539988  43.9790012  98.9674997  40.2009988
  44.9520012  97.8134997  40.0859988  44.1709469  98.1641430  39.9327626
  54.2610012  98.8274997  52.2489988  53.3440012  99.0904997  52.1609988
  54.5960012  98.8244997  51.3519988  54.1809900  98.8630224  52.1157919
  52.8630012 102.5784997  46.3439988  52.0650012 102.1634997  46.0159988
  53.3080012 101.8874997  46.8349988  52.8139885 102.4283543  46.3654889
  42.3210012 108.5064997  38.9149988  42.9130012 109.2054997  39.1909988
  42.7800012 108.0734997  38.1949988  42.4641142 108.5437049  38.8554830
  40.6370012 101.1704997  38.0309988  40.5920012 102.1094997  38.2089988
  39.7490012 100.9344997  37.7609988  40.5108574 101.2671892  38.0188912
  53.9490012 111.8344997  47.9669988  53.7940012 112.5124997  47.3099988
  54.8820012 111.9064997  48.1699988  54.0538500 111.9370170  47.9045119
  41.4450012  95.9524997  46.7039988  41.2160012  96.0114997  45.7759988
  41.0020012  95.1604997  47.0099988  41.3538530  95.8535753  46.6184786
  40.3750012 109.8924997  42.8639988  39.5430012 110.3654997  42.8919988
  40.9210012 110.4024997  42.2659988  40.3349739 110.0261871  42.7869716
  39.6630012 112.5054997  54.1939988  40.2040012 112.2884997  54.9539988
  39.1820012 111.6994997  54.0049988  39.6719345 112.3669514  54.2723076
  44.2610012 111.4244997  55.8149988  45.0280012 110.9654997  56.1559988
  44.2390012 111.1984997  54.8849988  44.3631434 111.3310409  55.7360043
  48.3530012 110.9324997  37.1899988  47.7090012 110.3014997  37.5109988
  49.1150012 110.4014997  36.9579988  48.3678077 110.7742920  37.2026011
  50.8380012 109.8044997  54.5439988  50.4870012 108.9484997  54.7869988
  51.5640012 109.9474997  55.1509988  50.8880769 109.7065636  54.6593619
  52.9570012 110.7494997  37.4239988  53.2400012 109.9554997  37.8759988
  53.6970012 110.9824997  36.8629988  53.0957486 110.6722803  37.4100698
  39.5700012 106.3154997  55.1489988  39.7140012 105.4134997  54.8619988
  38.7980012 106.6014997  54.6609988  39.4853323 106.2308261  55.0437881
  43.9120012 106.6594997  37.2809988  43.9760012 105.8654997  37.8119988
  44.5650012 106.5404997  36.5909988  44.0090241 106.5347148  37.2604317
  46.2260012 106.2854997  54.5809988  45.8970012 106.5564997  53.7239988
  46.3780012 105.3444997  54.4939988  46.2014809 106.1953862  54.4518244
  49.2640012 107.7064997  37.0169988  48.9950012 107.8864997  37.9179988
  49.0580012 106.7804997  36.8859988  49.1993825 107.6060152  37.1225214
  51.9600012 106.2014997  51.9649988  52.7060012 106.7894997  51.8449988
  51.2030012 106.7834997  52.0279988  51.9597554 106.3607011  51.9570907
  40.4030012 103.5154997  54.5689988  40.8110012 102.6584997  54.4479988
  40.1430012 103.5304997  55.4899988  40.4237568 103.4000807  54.6769588
  45.0610012 104.6314997  39.5869988  44.6010012 104.1474997  40.2729988
  45.3160012 103.9634997  38.9509988  45.0324902 104.4748731  39.5949334
  44.3500012 102.5244997  51.9429988  43.7320012 103.1994997  52.2229988
  44.6940012 102.8454997  51.1099988  44.3119615 102.6602721  51.8686581
  46.1320012 102.8744997  37.8489988  45.9520012 102.7204997  36.9219988
  47.0820012 102.9824997  37.8939988  46.2357776 102.8680175  37.7281843
  49.3700012 104.9964997  55.2199988  50.3230012 105.0794997  55.1929988
  49.2090012 104.2844997  55.8399988  49.4786426 104.9116746  55.3000579
  55.5220012 105.2294997  37.2949988  55.2480012 104.8044997  36.4819988
  55.5610012 106.1604997  37.0779988  55.4897699 105.2972484  37.1543610
  44.6890012  99.8794997  53.0249988  44.8390012  99.1504997  52.4229988
  44.6920012 100.6564997  52.4659988  44.7099302  99.8847851  52.8670692
  45.1020012  98.2494997  50.5179988  45.6380012  98.7004997  49.8659988
  44.2500012  98.1414997  50.0949988  45.0602178  98.2966390  50.3715756
  46.6840012 103.6884997  50.7569988  47.4340012 103.5324997  50.1839988
  46.3450012 104.5404997  50.4819988  46.7408921 103.7822968  50.6413561
  51.0990012 101.5034997  55.7859988  51.2920012 100.5724997  55.6739988
  51.9570012 101.9284997  55.7759988  51.2413020 101.4336389  55.7693361
  52.4160012 104.2924997  53.8629988  52.1350012 105.0014997  53.2859988
  53.3590012 104.2194997  53.7119988  52.5049027 104.3797646  53.7635551
  43.1680012 101.0774997  54.9369988  42.4010012 100.5454997  54.7269988
  43.8470012 100.7674997  54.3369988  43.1547022 100.9627506  54.8271648
  45.9080012  95.7054997  50.9489988  45.8090012  96.6524997  50.8439988
  45.1650012  95.3334997  50.4739988  45.7940564  95.7845902  50.8704560
  47.1720012 100.0274997  54.5129988  46.9360012  99.8074997  55.4149988
  46.3880012  99.8204997  54.0029988  47.0338628  99.9694760  54.5673932
  49.8870012  99.1544997  53.5889988  48.9400012  99.1864997  53.7209988
  50.2000012  98.5294997  54.2419988  49.7995475  99.0743207  53.6954455
  51.5210012  97.7884997  55.5939988  51.4250012  96.8364997  55.5879988
  51.2000012  98.0574997  56.4539988  51.4644070  97.6944035  55.7095441
  41.3480012  98.9984997  54.6409988  41.5600012  98.2914997  54.0309988
  41.2370012  98.5604997  55.4849988  41.3619721  98.8427084  54.6716843
  46.1290012  94.9994997  53.6209988  46.8410012  94.3594997  53.6069988
  46.0280012  95.2664997  52.7069988  46.2127939  94.9479938  53.4955650
  46.4830012  96.6824997  55.6739988  46.3510012  96.2064997  54.8539988
  45.8840012  97.4264997  55.6189988  46.3839071  96.7179618  55.5542886
  46.0290012 113.5654997  38.8509988  46.9620012 113.7234997  38.9939988
  45.7650012 114.2404997  38.2259988  46.1209510 113.6783611  38.7860741
  39.5980012 108.2014997  38.3329988  40.5120012 108.2804997  38.6069988
  39.6050012 107.5144997  37.6669988  39.7241131 108.1193961  38.2804393
  38.2470012 113.5944997  43.4109988  37.6000012 113.1324997  42.8779988
  38.6010012 112.9224997  43.9929988  38.2063849 113.4404723  43.4167959
  39.1170012 111.6754997  45.2149988  38.7820012 110.7954997  45.3869988
  39.3390012 112.0204997  46.0799988  39.1011783 111.6017500  45.3554208
  56.6650012 112.4844997  48.1959988  56.6440012 112.6694997  49.1349988
  57.3560012 113.0534997  47.8549988  56.7554618 112.5866606  48.2783864
  56.2290012 112.0524997  51.1179988  55.7410012 111.3164997  50.7469988
  56.7780012 111.6584997  51.7959988  56.2364872 111.8986249  51.1589160
  54.6790012 107.8414997  55.7559988  53.8130012 107.7364997  56.1499988
  55.0560012 108.6004997  56.2019988  54.6113308 107.9296900  55.8702393
  55.9800012 106.0984997  41.2699988  56.8300012 106.5194997  41.3969988
  55.9860012 105.3584997  41.8769988  56.0971372 106.0560803  41.3694344
  56.3750012 104.1514997  43.0939988  55.6480012 103.6724997  43.4909988
  56.9560012 104.3574997  43.8259988  56.3539375 104.1137090  43.2474129
  56.1340012 106.9364997  48.0409988  56.9670012 106.5584997  47.7609988
  56.2460012 107.8794997  47.9219988  56.2632647 107.0122218  47.9865487
  54.6200012 109.8144997  50.3479988  53.9730012 110.1394997  50.9739988
  54.1030012 109.3744997  49.6739988  54.4614029 109.7995004  50.3425827
  56.6430012 104.0524997  39.4849988  56.1210012 104.4094997  38.7659988
  56.6100012 104.7274997  40.1629988  56.5671634 104.1925413  39.4783145
  54.9920012 101.2924997  38.0359988  55.0880012 101.9594997  37.3549988
  54.8520012 100.4764997  37.5539988  54.9862135 101.2734500  37.8778491
  54.1610012 102.6724997  43.6569988  54.0110012 101.7274997  43.6359988
  53.8080012 102.9534997  44.4999988  54.0926625 102.5810441  43.7682346
  39.1970012 104.7504997  47.6669988  39.3810012 104.6684997  46.7309988
  40.0460012 104.6264997  48.0909988  39.3370139 104.7225003  47.5961455
  55.0180012 104.6424997  53.2949988  55.6010012 103.9084997  53.4869988
  55.5820012 105.4144997  53.3419988  55.1739769 104.6464227  53.3276159
  56.5140012 102.5454997  53.9799988  55.6510012 102.1664997  53.8139988
  57.1190012 101.8064997  53.9059988  56.4775979 102.3938023  53.9472817
  54.2390012  98.7004997  37.1529988  54.8500012  98.3294997  37.7899988
  53.4030012  98.2794997  37.3489988  54.2095032  98.5927554  37.2667035
  53.8720012 100.2554997  42.1189988  54.1520012  99.3484997  42.2429988
  54.6310012 100.6894997  41.7299988  54.0129277 100.1900942  42.0833682
  54.4840012 100.8364997  47.5549988  55.4170012 101.0484997  47.5209988
  54.2490012 100.9384997  48.4769988  54.5798036 100.8792769  47.6749976
  54.5130012 101.5734997  50.3309988  53.6700012 101.8414997  50.6969988
  54.9550012 102.3954997  50.1199988  54.4574158 101.7213291  50.3525491
  38.7940012 100.0214997  53.8079988  39.7140012  99.8994997  54.0439988
  38.3450012  99.2714997  54.1969988  38.8591580  99.9033727  53.8929006
  56.7960012  95.5534997  55.6839988  57.1460012  94.8994997  55.0789988
  56.9430012  96.3904997  55.2449988  56.8638419  95.5771591  55.5417118
  54.4850012  97.5184997  42.1669988  54.6680012  97.0694997  42.9929988
  53.8860012  96.9334997  41.7039988  54.4290202  97.3779975  42.2173275
  40.0150012  98.3334997  46.6989988  40.4610012  97.5414997  47.0009988
  40.4820012  99.0494997  47.1299988  40.1390172  98.3220624  46.7984820
  38.3190012 101.3324997  47.7679988  38.8110012 101.1114997  46.9769988
  38.6820012 102.1734997  48.0489988  38.4353126 101.4158357  47.6977531
  56.3160012  97.6624997  54.0339988  55.3980012  97.9334997  53.9979988
  56.4390012  97.1274997  53.2489988  56.2071066  97.6272892  53.9230487
  56.3520012  97.5854997  38.6949988  56.7640012  96.8644997  38.2199988
  57.0340012  98.2554997  38.7539988  56.5005885  97.5772368  38.6378915
  38.6330012  97.5904997  41.8219988  37.7080012  97.7994997  41.6929988
  39.0870012  98.0744997  41.1329988  38.5677368  97.6845993  41.7111226
  53.4040012 112.5744997  43.7679988  54.0560012 112.2274997  43.1599988
  53.9140012 113.0634997  44.4139988  53.5622637 112.5930597  43.7720236
  38.5970012  96.3284997  50.1669988  37.9320012  96.0824997  50.8099988
  38.1540012  96.9504997  49.5889988  38.4460956  96.3788632  50.1769352
  40.7890012 109.5034997  54.3109988  39.9680012 109.6784997  53.8509988
  40.5360012 109.4304997  55.2319988  40.6426164 109.5175622  54.3724923
  43.7430012 110.4784997  50.5699988  43.3180012 111.2874997  50.2869988
  44.6470012 110.5634997  50.2679988  43.8070271 110.6008469  50.4903776
  48.0540012 111.8774997  53.5289988  48.2390012 111.5434997  54.4069988
  48.9000012 112.1864997  53.2069988  48.1937539 111.8736047  53.6055605
  50.3990012 113.1634997  52.7729988  51.0760012 112.5304997  52.5329988
  50.7210012 113.5644997  53.5799988  50.5351637 113.1311154  52.8492793
  55.3160012  95.7524997  51.8529988  54.5040012  96.0774997  51.4649988
  55.5490012  94.9924997  51.3199988  55.2363423  95.6942436  51.7278253
  41.1450012 113.7344997  50.6169988  40.4240012 114.1744997  50.1659988
  40.7790012 113.4834997  51.4659988  40.9969804 113.7607698  50.6699840
  43.6120012 113.3344997  49.6469988  42.7470012 113.4064997  50.0509988
  43.5570012 113.8814997  48.8629988  43.4862085 113.4182685  49.5963362
  48.3220012 113.2224997  48.8219988  47.8660012 113.7514997  48.1679988
  48.4850012 113.8254997  49.5479988  48.2815585 113.3764468  48.8305062
  50.6500012 112.1004997  49.7669988  49.7450012 112.2654997  49.5019988
  51.0790012 112.9534997  49.7019988  50.5840799 112.2384483  49.7219182
  53.2540012 113.6704997  50.0619988  53.0720012 114.5864997  49.8519988
  53.4310012 113.2604997  49.2159988  53.2530210 113.7404822  49.9187885
  40.5590012 112.3574997  47.5269988  40.5410012 111.9324997  48.3849988
  41.3640012 112.0394997  47.1189988  40.6653875 112.2563812  47.5891655
  42.7010012 111.0674997  46.1819988  42.4820012 110.1514997  46.3519988
  43.5250012 111.2074997  46.6479988  42.7824420 110.9610520  46.2682774
  45.2380012 111.5374997  47.0309988  45.4510012 110.6494997  46.7439988
  45.3020012 111.5034997  47.9849988  45.2758231 111.4113102  47.1207397
  48.7460012  97.2014997  46.1749988  48.0720012  96.5724997  46.4309988
  49.3100012  96.7174997  45.5719988  48.7299230  97.0498744  46.1285340
  53.8890012  95.3094997  46.2879988  54.4930012  95.8564997  45.7859988
  53.0190012  95.6284997  46.0479988  53.8541241  95.4275806  46.1867654
  55.6160012  96.4474997  44.6209988  56.2280012  95.9334997  44.0949988
  55.9980012  97.3254997  44.6449988  55.7514540  96.4957140  44.5521830
  41.0730012  95.8354997  43.9969988  40.2960012  95.6014997  43.4899988
  41.6030012  95.0384997  44.0059988  41.0382330  95.6956988  43.9287742
  39.9090012  95.6334997  39.8009988  40.3480012  96.2444997  39.2089988
  39.2760012  96.1714997  40.2749988  39.8834514  95.7899257  39.7840930
  45.6520012  95.7624997  43.8109988  46.5270012  96.1504997  43.7809988
  45.5160012  95.5474997  44.7329988  45.7533695  95.7865184  43.9316440
  51.2090012  95.7924997  45.4599988  51.2850012  95.8874997  44.5099988
  50.9340012  94.8844997  45.5889988  51.1822321  95.6827867  45.3475079
  52.5620012  95.8184997  41.1519988  51.8600012  96.4334997  40.9429988
  52.1180012  94.9804997  41.2829988  52.4056330  95.7895783  41.1410328
  39.8100012 111.5814997  40.6989988  39.1250012 111.5434997  40.0309988
  39.8140012 112.4944997  40.9869988  39.7168193 111.6997016  40.6465284
  41.7700012  97.5494997  38.2429988  42.2620012  96.9194997  37.7159988
  42.3940012  97.8454997  38.9069988  41.9215446  97.5033199  38.2605980
  46.7960012  97.8424997  40.6999988  46.9740012  97.1964997  41.3829988
  46.7430012  98.6764997  41.1679988  46.8131829  97.8667985  40.8565940
  48.6750012 112.7914997  39.0959988  49.5410012 113.1574997  38.9179988
  48.4280012 112.3514997  38.2819988  48.7602392 112.7821756  38.9616289
  55.3840012 112.3544997  41.7749988  55.1890012 111.6064997  41.2099988
  55.3450012 113.1124997  41.1919988  55.3520380 112.3546099  41.6188384
  41.0310012  96.3494997  53.5149988  40.6650012  95.5844997  53.9579988
  41.9440012  96.3784997  53.8019988  41.1042790  96.2487224  53.6144070
  43.0040012  95.7004997  55.0509988  43.9020012  95.4264997  54.8659988
  42.6170012  94.9574997  55.5149988  43.0746612  95.5625914  55.0883643
  41.6280012 112.5014997  37.7239988  41.3610012 112.7884997  38.5969988
  42.4000012 111.9554997  37.8759988  41.6957488 112.4670294  37.8641050
  51.4250012  95.0324997  55.2329988  51.5020012  94.6064997  56.0869988
  52.3190012  95.0464997  54.8899988  51.5563428  94.9760879  55.3035310
  54.6010012 111.1054997  53.9249988  53.8190012 110.9194997  53.4059988
  54.5290012 112.0344997  54.1429988  54.4841777 111.2056492  53.8834048
  69.0070012 104.9914997  43.9559988  69.0960012 105.9354997  43.8239988
  68.3690012 104.7164997  43.2979988  68.9329081 105.0834830  43.8489614
  67.9400012 104.2464997  47.3749988  67.9020012 103.6004997  48.0799988
  67.6180012 103.7804997  46.6039988  67.8912333 104.0949408  47.3672978
  60.3090012 103.8614997  48.9679988  60.3500012 103.2354997  49.6909988
  61.0120012 104.4854997  49.1499988  60.4096363 103.8601196  49.0916044
  71.6460012 107.1854997  45.6759988  71.2060012 106.4654997  46.1269988
  71.6330012 107.9064997  46.3059988  71.5840226 107.1843731  45.8228494
  61.2320012 108.3114997  47.5029988  60.8630012 107.5094997  47.1329988
  62.1730012 108.1424997  47.5489988  61.3087289 108.1790153  47.4586316
  57.8420012 101.9714997  42.8959988  57.3950012 102.8174997  42.8769988
  57.2810012 101.3914997  42.3799988  57.7049900 102.0089916  42.8236801
  58.5530012 104.1334997  45.0219988  58.7660012 103.3634997  45.5489988
  59.2910012 104.2224997  44.4179988  58.6818496 104.0401394  45.0125300
  68.7580012 112.2904997  45.8889988  69.3780012 111.6134997  45.6149988
  68.5500012 112.0724997  46.7969988  68.8146904 112.1683870  45.9743365
  66.3300012 106.6794997  47.7809988  66.6340012 105.9934997  47.1859988
  67.0510012 106.7974997  48.3989988  66.4690671 106.6016305  47.7831816
  74.9930012  98.2804997  48.6419988  75.0420012  98.8904997  49.3779988
  75.4180012  98.7414997  47.9189988  75.0571824  98.4263741  48.6450205
  69.4710012 101.0734997  48.1089988  69.6130012 100.1274997  48.1289988
  69.3640012 101.2804997  47.1799988  69.4759864 100.9719534  47.9862339
  62.6250012  99.1744997  45.3809988  62.6690012 100.0344997  44.9629988
  62.1680012  98.6224997  44.7469988  62.5692185  99.2175799  45.2380299
  70.3480012  99.3054997  43.7819988  70.9940012  98.9764997  44.4069988
  70.8580012  99.8234997  43.1589988  70.5054264  99.3304611  43.7833862
  59.2460012 101.5714997  46.1429988  59.8990012 101.0214997  46.5749988
  59.2700012 101.2974997  45.2259988  59.3386683 101.4591466  46.0782123
  64.4020012 103.1214997  45.3579988  65.0180012 102.5954997  45.8679988
  63.8160012 102.4814997  44.9549988  64.4070810 102.9629208  45.3733173
  75.3840012  99.7584997  50.8779988  74.6960012 100.4164997  50.7819988
  75.4000012  99.5614997  51.8139988  75.2918525  99.8220462  50.9914808
  61.4360012  98.0924997  49.4549988  61.2170012  98.6224997  48.6889988
  60.7680012  98.3194997  50.1019988  61.3157600  98.1956906  49.4376379
  68.8050012 107.5924997  42.9989988  68.5090012 107.2704997  42.1479988
  68.4800012 108.4924997  43.0399988  68.7206371 107.6700215  42.8881801
  64.0050012 105.7684997  49.7419988  63.2650012 106.3664997  49.8459988
  64.7190012 106.3224997  49.4269988  64.0002237 105.9252831  49.7136465
  72.1120012  98.5964997  45.7619988  71.8960012  97.8304997  46.2949988
  72.7670012  99.0684997  46.2749988  72.1710632  98.5555889  45.9042861
  61.0290012  99.9844997  47.4069988  61.6430012 100.6174997  47.7809988
  61.5410012  99.5124997  46.7509988  61.1822296 100.0072370  47.3694252
  62.4120012 107.7324997  50.5299988  62.4070012 108.6124997  50.1519988
  61.5590012 107.6494997  50.9549988  62.2959464 107.8416117  50.5357907
  58.5330012 107.4034997  41.3119988  58.2610012 107.6324997  40.4229988
  58.5790012 108.2414997  41.7719988  58.5020094 107.5481213  41.2525697
  72.1580012 109.0254997  48.0239988  71.2170012 109.0834997  48.1859988
  72.4350012 109.9314997  47.8869988  72.0664679 109.1559443  48.0276815
  72.4590012  97.3114997  49.4419988  71.7230012  97.9224997  49.4039988
  73.1420012  97.7264997  48.9149988  72.4506541  97.4511374  49.3655832
  65.4620012  95.3984997  46.9079988  65.3450012  94.4494997  46.8529988
  64.6070012  95.7304997  47.1809988  65.3303733  95.3135409  46.9373897
  70.4100012 110.8064997  44.6499988  70.8360012 110.0994997  44.1649988
  70.7270012 111.6074997  44.2329988  70.5111019 110.8180994  44.5273130
  71.5700012 108.7074997  43.1579988  71.3120012 108.0174997  42.5469988
  71.6410012 108.2644997  44.0039988  71.5442856 108.5532124  43.1886885
  73.2560012 107.2734997  51.6359988  73.3960012 106.6824997  50.8959988
  73.4230012 108.1464997  51.2789988  73.2976778 107.3106426  51.4866965
  67.7290012 104.2354997  41.4079988  67.0170012 104.7704997  41.0559988
  68.4200012 104.2914997  40.7479988  67.7250132 104.3162543  41.2706289
  67.7820012 102.6934997  38.4469988  68.4830012 102.7154997  39.0979988
  68.0850012 102.0654997  37.7909988  67.9187830 102.6116566  38.4473711
  75.0980012 103.6134997  49.7019988  74.4450012 104.3084997  49.7909988
  75.5630012 103.8234997  48.8919988  75.0715390 103.7369425  49.6046883
  71.1340012 104.4454997  42.3599988  70.4020012 104.6734997  42.9329988
  71.5820012 103.7314997  42.8149988  71.0943095 104.3802571  42.4999119
  71.0320012 102.6194997  51.4269988  71.1120012 103.3824997  51.9989988
  70.4300012 102.8984997  50.7369988  70.9615756 102.7617134  51.4120589
  62.7800012 105.0754997  44.2419988  62.4490012 104.7054997  43.4239988
  63.3680012 104.4054997  44.5889988  62.8141873 104.9341156  44.1768102
  64.1460012 108.5034997  46.9239988  64.0520012 107.9254997  46.1669988
  64.8760012 108.1324997  47.4199988  64.2317981 108.3742390  46.8874165
  63.1460012 103.8444997  47.8759988  63.7120012 103.9654997  47.1129988
  63.4650012 104.4814997  48.5149988  63.2665786 103.9471884  47.8580040
  69.4550012 109.3474997  48.6099988  69.2150012 110.0094997  49.2579988
  69.2570012 108.5134997  49.0349988  69.3953808 109.3253134  48.7561524
  64.0260012 108.2434997  52.5929988  63.7150012 109.0254997  53.0479988
  63.3760012 108.0904997  51.9069988  63.8955558 108.3299105  52.5625871
  70.0050012 103.6074997  40.0449988  70.5850012 103.7574997  40.7919988
  70.4190012 104.0784997  39.3219988  70.1402830 103.6916841  40.0494134
  60.9460012 104.4414997  51.8219988  61.0170012 105.0924997  52.5199988
  60.0560012 104.5444997  51.4869988  60.8353117 104.5445936  51.8722700
  67.7320012 110.3444997  43.4799988  68.2060012 110.6394997  44.2579988
  67.1690012 111.0824997  43.2469988  67.7207653 110.4846932  43.5550136
  62.2660012 110.3154997  53.3559988  62.2730012 110.1794997  52.4089988
  61.3500012 110.1974997  53.6079988  62.1431714 110.2809430  53.2604666
  73.7040012  95.3574997  39.8579988  72.8040012  95.4964997  40.1529988
  73.9560012  96.1884997  39.4559988  73.6148702  95.4889074  39.8440205
  61.7700012 104.1454997  41.8319988  61.4780012 104.9134997  41.3409988
  61.0960012 103.4854997  41.6689988  61.6389081 104.1614406  41.7427340
  74.8930012 109.7234997  38.2339988  74.9670012 110.6624997  38.4049988
  75.7990012 109.4184997  38.1779988  75.0255100 109.8106722  38.2498119
  57.8630012 106.5084997  50.6469988  57.3620012 106.4804997  49.8319988
  57.8680012 105.6024997  50.9559988  57.7951526 106.3822278  50.5772872
  57.6130012 109.2884997  47.5309988  58.5590012 109.1444997  47.5119988
  57.5010012 110.0724997  48.0679988  57.7272727 109.3748046  47.6010072
  75.8110012 109.9544997  53.2129988  75.7620012 108.9994997  53.1759988
  74.9840012 110.2224997  53.6139988  75.6924940 109.8598998  53.2621375
  66.7900012 109.5284997  52.0889988  66.8770012 110.3544997  52.5639988
  65.9260012 109.1984997  52.3379988  66.6851964 109.5969878  52.1876549
  67.2040012 113.3004997  41.8949988  67.1290012 113.1794997  40.9489988
  67.2370012 114.2504997  42.0139988  67.1981848 113.4122500  41.7814834
  60.8570012 112.0894997  43.6759988  61.0100012 111.7414997  44.5549988
  60.0070012 111.7334997  43.4209988  60.7628962 111.9936650  43.7618340
  70.3060012 112.4544997  38.8969988  70.6810012 111.7104997  38.4269988
  70.3100012 112.1844997  39.8159988  70.3578915 112.3161486  38.9567824
  69.9750012 112.3804997  41.6469988  69.0390012 112.4804997  41.8249988
  70.2550012 111.6714997  42.2249988  69.8848255 112.2982711  41.7495391
  72.9630012 101.4474997  53.6929988  72.5560012 101.9284997  52.9719988
  73.0040012 100.5424997  53.3849988  72.9128437 101.3909374  53.5526683
  60.1120012 107.8314997  51.6899988  60.3280012 107.4704997  52.5489988
  59.2570012 107.4574997  51.4799988  60.0259292 107.7314111  51.7793386
  62.7310012  96.3014997  47.6849988  61.8690012  96.2144997  47.2779988
  62.7080012  97.1574997  48.1129988  62.6100330  96.4052765  47.6871863
  67.3940012  96.0234997  51.0599988  67.8140012  95.6084997  51.8129988
  66.4610012  95.8454997  51.1769988  67.3253644  95.9425900  51.1789539
  70.7200012  99.7794997  51.9129988  70.2060012  99.6534997  52.7109988
  70.5650012 100.6914997  51.6689988  70.6286852  99.8856132  51.9892158
  71.4830012 104.6404997  37.6749988  71.5250012 104.4174997  36.7449988
  72.3320012 105.0394997  37.8649988  71.6035396 104.6639155  37.5733627
  67.0550012  98.5164997  38.3449988  66.8020012  98.5354997  39.2679988
  66.7990012  97.6444997  38.0439988  66.9857790  98.4012437  38.4306263
  62.8220012 101.2674997  48.7799988  62.1800012 101.2264997  49.4889988
  62.8590012 102.1934997  48.5429988  62.7391324 101.3871559  48.8449824
  62.8190012 101.4884997  43.6919988  61.9260012 101.1474997  43.6339988
  63.2690012 101.1114997  42.9369988  62.7577305 101.3908484  43.5819177
  68.3540012 101.9044997  42.5089988  67.9450012 102.7194997  42.2179988
  69.0750012 101.7644997  41.8949988  68.3954537 101.9972018  42.3861342
  67.4560012 102.0794997  53.9969988  66.8940012 101.3754997  54.3179988
  68.2830012 101.9594997  54.4649988  67.4907095 101.9667883  54.1042330
  69.3590012 101.3504997  45.3229988  69.1640012 101.9554997  44.6079988
  69.5400012 100.5164997  44.8889988  69.3567614 101.3206300  45.1664405
  60.5720012 101.5874997  50.6469988  60.5340012 101.9874997  51.5159988
  60.0810012 100.7704997  50.7379988  60.5004684 101.5318069  50.7781059
  63.9380012  98.9614997  37.4459988  63.5070012  98.5164997  38.1759988
  63.2200012  99.3334997  36.9339988  63.7819438  98.9508940  37.4766799
  57.1800012  98.7034997  44.4979988  57.8110012  98.6744997  45.2169988
  57.6290012  98.2784997  43.7679988  57.3270774  98.6420492  44.4976553
  58.4540012  99.4494997  39.9219988  58.9280012 100.0404997  39.3369988
  57.7370012  99.9804997  40.2689988  58.4219341  99.6020867  39.8888836
  68.6230012 102.9884997  49.9949988  68.9460012 102.3574997  49.3519988
  68.1830012 102.4534997  50.6549988  68.6076895 102.8298441  49.9962850
  65.4000012  98.9154997  44.7789988  64.4890012  98.9724997  45.0669988
  65.9060012  98.8554997  45.5889988  65.3435413  98.9151985  44.9280622
  60.2290012 100.5444997  43.6049988  59.3390012 100.6444997  43.2649988
  60.5250012  99.7024997  43.2589988  60.1472823 100.4443545  43.5117213
  63.8820012 100.5444997  41.2619988  64.8130012 100.6734997  41.4399988
  63.6670012 101.2144997  40.6119988  63.9804247 100.6526565  41.1985747
  69.8050012  98.1504997  48.0429988  69.1290012  98.2814997  48.7069988
  69.3200012  97.9954997  47.2329988  69.6467145  98.1474905  48.0244517
  62.5560012 101.7394997  38.8289988  62.0130012 101.3594997  38.1369988
  63.3890012 101.9334997  38.3999988  62.5944399 101.7138124  38.6764526
  73.0930012 113.8224997  54.3199988  73.2930012 114.2464997  53.4849988
  73.7480012 114.1654997  54.9269988  73.2090051 113.9269648  54.2877836
  60.6910012 106.2964997  53.9279988  61.4230012 106.5504997  54.4889988
  59.9110012 106.5004997  54.4429988  60.6858232 106.3589177  54.0745760
  66.7200012 101.7034997  46.6659988  67.2850012 101.1564997  46.1189988
  66.5730012 101.1814997  47.4539988  66.7772918 101.5582024  46.6978454
  61.7220012  97.8394997  43.0839988  61.4050012  96.9374997  43.0489988
  62.5040012  97.8414997  42.5309988  61.7842284  97.7161628  43.0044783
  65.3470012 100.0914997  49.0799988  64.5110012 100.5454997  49.1899988
  65.8710012 100.3674997  49.8319988  65.3034414 100.1909376  49.1967136
  65.8910012 106.3044997  40.7639988  65.1460012 105.7974997  40.4419988
  65.7570012 106.3534997  41.7109988  65.7708776 106.2416940  40.8478647
  73.0410012 105.4374997  49.5509988  73.6830012 105.8944997  49.0069988
  72.2110012 105.5504997  49.0879988  73.0165963 105.5152704  49.4140177
  69.7890012  99.1184997  38.9639988  68.8500012  99.2304997  38.8119988
  70.0860012  99.9754997  39.2699988  69.7007666  99.2496443  38.9845768
  67.4100012 106.4884997  52.0009988  67.0650012 106.1074997  52.8079988
  67.2100012 107.4224997  52.0729988  67.3358061 106.5625228  52.1210961
  70.5070012 100.9854997  40.6239988  71.3990012 100.8484997  40.9429988
  70.5640012 101.7764997  40.0879988  70.6366285 101.0736660  40.5951691
  61.0160012 105.5994997  46.5339988  61.7610012 105.5974997  45.9329988
  61.0940012 104.7764997  47.0159988  61.1285518 105.4879315  46.5168929
  68.0170012 107.7634997  39.7899988  67.7210012 108.5894997  40.1709988
  67.3140012 107.1434997  39.9859988  67.8814914 107.7928199  39.8686443
  58.0240012 104.0604997  51.8489988  58.2470012 103.6424997  52.6809988
  57.4220012 103.4474997  51.4259988  57.9731759 103.9204668  51.9057022
  65.0400012 103.5774997  54.0619988  64.7440012 103.4114997  53.1669988
  65.9720012 103.3574997  54.0509988  65.1254166 103.5250640  53.9380536
  69.6610012 108.9504997  51.9519988  68.7600012 109.1334997  51.6839988
  69.6950012 109.2094997  52.8729988  69.5423041 109.0105512  52.0398197
  75.3920012 101.1954997  40.3189988  74.8380012 100.7994997  39.6469988
  75.4920012 102.1054997  40.0409988  75.3297059 101.2643586  40.1894401
  75.3550012 106.9954997  53.1559988  74.5040012 107.2334997  52.7889988
  75.9460012 106.9784997  52.4029988  75.3182487 107.0258258  53.0038893
  73.6870012 109.9814997  40.7839988  73.3140012 109.1554997  41.0929988
  73.9650012 109.7984997  39.8869988  73.6735630 109.8437303  40.7049626
  70.8480012 104.7894997  47.8049988  69.9190012 104.5574997  47.7779988
  71.2990012 104.0124997  47.4749988  70.7819216 104.6527238  47.7566917
  63.3910012 109.1174997  43.9379988  63.9180012 109.8904997  43.7379988
  62.5110012 109.3424997  43.6369988  63.3441773 109.2538005  43.8699010
  59.1460012 103.9794997  38.5249988  59.7620012 104.6064997  38.9049988
  58.2840012 104.2954997  38.7969988  59.1137698 104.1079430  38.6137183
  64.8180012 106.7804997  43.5149988  64.5770012 107.7054997  43.5559988
  64.0770012 106.3214997  43.9109988  64.6848409 106.8451421  43.5741377
  65.3330012 110.9294997  49.8299988  65.6950012 111.7844997  49.5959988
  65.8640012 110.6374997  50.5699988  65.4544473 111.0071060  49.8980855
  63.5010012 111.8024997  43.0599988  62.5510012 111.9074997  43.1109988
  63.8530012 112.6224997  43.4049988  63.4184203 111.9278314  43.1136650
  68.8770012 107.0284997  49.5299988  68.4510012 106.8014997  50.3569988
  69.4570012 106.2904997  49.3479988  68.8971868 106.8975299  49.6185830
  71.0800012 107.9574997  38.6039988  71.4330012 107.5774997  39.4089988
  70.1310012 107.8644997  38.6909988  71.0000441 107.8929596  38.7258559
  71.5350012 111.5804997  51.9999988  70.9340012 111.0254997  51.5039988
  71.8170012 112.2474997  51.3739988  71.4908519 111.5946841  51.8474952
  75.5830012 112.4374997  38.8049988  76.3270012 113.0234997  38.6649988
  74.8890012 113.0054997  39.1389988  75.5910292 112.5945582  38.8309961
  59.6580012  98.8134997  51.4069988  58.7650012  99.1524997  51.3389988
  59.5590012  97.9584997  51.8249988  59.5224164  98.7442588  51.4542235
  71.9460012 106.6304997  40.8309988  71.6680012 105.9024997  41.3869988
  72.8730012 106.7494997  41.0359988  72.0333124 106.5468802  40.9348845
  59.3090012 110.6184997  49.8419988  59.5260012 109.6864997  49.8109988
  59.5550012 110.8924997  50.7249988  59.3719549 110.5280636  49.9571763
  65.1710012 109.0694997  37.0509988  65.4100012 108.3214997  36.5039988
  64.9020012 108.6814997  37.8839988  65.1673675 108.9146638  37.0886865
  64.1080012 108.6394997  39.5079988  64.2540012 108.1194997  40.2979988
  64.1050012 109.5464997  39.8139988  64.1275989 108.6908853  39.6576088
  60.5610012 105.8924997  40.0179988  59.8750012 106.2444997  40.5849988
  61.0830012 106.6554997  39.7709988  60.5376852 106.0438578  40.0622118
  68.3920012  98.5544997  50.2969988  69.0910012  98.6284997  50.9469988
  68.0110012  97.6904997  50.4509988  68.4361767  98.4477624  50.4068322
  69.1770012  98.2064997  41.3939988  69.3970012  98.6784997  40.5909988
  69.7350012  98.6014997  42.0639988  69.2824968  98.3244285  41.3747331
  66.8450012 110.3374997  40.2569988  66.0290012 110.8344997  40.3089988
  67.3750012 110.8124997  39.6169988  66.8049161 110.4697722  40.1775956
  66.3770012  99.9344997  42.2289988  67.1890012 100.4394997  42.2749988
  66.1320012  99.7894997  43.1429988  66.4550520  99.9840375  42.3588517
  66.9120012 100.9204997  51.4139988  67.0310012 101.4944997  52.1709988
  67.5680012 100.2324997  51.5279988  67.0169757 100.9061079  51.5330825
  67.2600012  97.0154997  43.1669988  66.9140012  97.6334997  43.8119988
  67.9190012  97.5164997  42.6859988  67.3017826  97.1675802  43.1900971
  64.1840012 111.3814997  40.2389988  64.3440012 112.1804997  39.7379988
  63.9860012 111.6874997  41.1239988  64.1791649 111.5324469  40.2899815
  62.9180012  98.0784997  39.8539988  62.8350012  98.9674997  40.2009988
  63.8080012  97.8134997  40.0859988  63.0269469  98.1641430  39.9327626
  73.1170012  98.8274997  52.2489988  72.2000012  99.0904997  52.1609988
  73.4520012  98.8244997  51.3519988  73.0369900  98.8630224  52.1157919
  71.7190012 102.5784997  46.3439988  70.9210012 102.1634997  46.0159988
  72.1640012 101.8874997  46.8349988  71.6699885 102.4283543  46.3654889
  61.1770012 108.5064997  38.9149988  61.7690012 109.2054997  39.1909988
  61.6360012 108.0734997  38.1949988  61.3201142 108.5437049  38.8554830
  59.4930012 101.1704997  38.0309988  59.4480012 102.1094997  38.2089988
  58.6050012 100.9344997  37.7609988  59.3668574 101.2671892  38.0188912
  72.8050012 111.8344997  47.9669988  72.6500012 112.5124997  47.3099988
  73.7380012 111.9064997  48.1699988  72.9098500 111.9370170  47.9045119
  60.3010012  95.9524997  46.7039988  60.0720012  96.0114997  45.7759988
  59.8580012  95.1604997  47.0099988  60.2098530  95.8535753  46.6184786
  59.2310012 109.8924997  42.8639988  58.3990012 110.3654997  42.8919988
  59.7770012 110.4024997  42.2659988  59.1909739 110.0261871  42.7869716
  58.5190012 112.5054997  54.1939988  59.0600012 112.2884997  54.9539988
  58.0380012 111.6994997  54.0049988  58.5279345 112.3669514  54.2723076
  63.1170012 111.4244997  55.8149988  63.8840012 110.9654997  56.1559988
  63.0950012 111.1984997  54.8849988  63.2191434 111.3310409  55.7360043
  67.2090012 110.9324997  37.1899988  66.5650012 110.3014997  37.5109988
  67.9710012 110.4014997  36.9579988  67.2238077 110.7742920  37.2026011
  69.6940012 109.8044997  54.5439988  69.3430012 108.9484997  54.7869988
  70.4200012 109.9474997  55.1509988  69.7440769 109.7065636  54.6593619
  71.8130012 110.7494997  37.4239988  72.0960012 109.9554997  37.8759988
  72.5530012 110.9824997  36.8629988  71.9517486 110.6722803  37.4100698
  58.4260012 106.3154997  55.1489988  58.5700012 105.4134997  54.8619988
  57.6540012 106.6014997  54.6609988  58.3413323 106.2308261  55.0437881
  62.7680012 106.6594997  37.2809988  62.8320012 105.8654997  37.8119988
  63.4210012 106.5404997  36.5909988  62.8650241 106.5347148  37.2604317
  65.0820012 106.2854997  54.5809988  64.7530012 106.5564997  53.7239988
  65.2340012 105.3444997  54.4939988  65.0574809 106.1953862  54.4518244
  68.1200012 107.7064997  37.0169988  67.8510012 107.8864997  37.9179988
  67.9140012 106.7804997  36.8859988  68.0553825 107.6060152  37.1225214
  70.8160012 106.2014997  51.9649988  71.5620012 106.7894997  51.8449988
  70.0590012 106.7834997  52.0279988  70.8157554 106.3607011  51.9570907
  59.2590012 103.5154997  54.5689988  59.6670012 102.6584997  54.4479988
  58.9990012 103.5304997  55.4899988  59.2797568 103.4000807  54.6769588
  63.9170012 104.6314997  39.5869988  63.4570012 104.1474997  40.2729988
  64.1720012 103.9634997  38.9509988  63.8884902 104.4748731  39.5949334
  63.2060012 102.5244997  51.9429988  62.5880012 103.1994997  52.2229988
  63.5500012 102.8454997  51.1099988  63.1679615 102.6602721  51.8686581
  64.9880012 102.8744997  37.8489988  64.8080012 102.7204997  36.9219988
  65.9380012 102.9824997  37.8939988  65.0917776 102.8680175  37.7281843
  68.2260012 104.9964997  55.2199988  69.1790012 105.0794997  55.1929988
  68.0650012 104.2844997  55.8399988  68.3346426 104.9116746  55.3000579
  74.3780012 105.2294997  37.2949988  74.1040012 104.8044997  36.4819988
  74.4170012 106.1604997  37.0779988  74.3457699 105.2972484  37.1543610
  63.5450012  99.8794997  53.0249988  63.6950012  99.1504997  52.4229988
  63.5480012 100.6564997  52.4659988  63.5659302  99.8847851  52.8670692
  63.9580012  98.2494997  50.5179988  64.4940012  98.7004997  49.8659988
  63.1060012  98.1414997  50.0949988  63.9162178  98.2966390  50.3715756
  65.5400012 103.6884997  50.7569988  66.2900012 103.5324997  50.1839988
  65.2010012 104.5404997  50.4819988  65.5968921 103.7822968  50.6413561
  69.9550012 101.5034997  55.7859988  70.1480012 100.5724997  55.6739988
  70.8130012 101.9284997  55.7759988  70.0973020 101.4336389  55.7693361
  71.2720012 104.2924997  53.8629988  70.9910012 105.0014997  53.2859988
  72.2150012 104.2194997  53.7119988  71.3609027 104.3797646  53.7635551
  62.0240012 101.0774997  54.9369988  61.2570012 100.5454997  54.7269988
  62.7030012 100.7674997  54.3369988  62.0107022 100.9627506  54.8271648
  64.7640012  95.7054997  50.9489988  64.6650012  96.6524997  50.8439988
  64.0210012  95.3334997  50.4739988  64.6500564  95.7845902  50.8704560
  66.0280012 100.0274997  54.5129988  65.7920012  99.8074997  55.4149988
  65.2440012  99.8204997  54.0029988  65.8898628  99.9694760  54.5673932
  68.7430012  99.1544997  53.5889988  67.7960012  99.1864997  53.7209988
  69.0560012  98.5294997  54.2419988  68.6555475  99.0743207  53.6954455
  70.3770012  97.7884997  55.5939988  70.2810012  96.8364997  55.5879988
  70.0560012  98.0574997  56.4539988  70.3204070  97.6944035  55.7095441
  60.2040012  98.9984997  54.6409988  60.4160012  98.2914997  54.0309988
  60.0930012  98.5604997  55.4849988  60.2179721  98.8427084  54.6716843
  64.9850012  94.9994997  53.6209988  65.6970012  94.3594997  53.6069988
  64.8840012  95.2664997  52.7069988  65.0687939  94.9479938  53.4955650
  65.3390012  96.6824997  55.6739988  65.2070012  96.2064997  54.8539988
  64.7400012  97.4264997  55.6189988  65.2399071  96.7179618  55.5542886
  64.8850012 113.5654997  38.8509988  65.8180012 113.7234997  38.9939988
  64.6210012 114.2404997  38.2259988  64.9769510 113.6783611  38.7860741
  58.4540012 108.2014997  38.3329988  59.3680012 108.2804997  38.6069988
  58.4610012 107.5144997  37.6669988  58.5801131 108.1193961  38.2804393
  57.1030012 113.5944997  43.4109988  56.4560012 113.1324997  42.8779988
  57.4570012 112.9224997  43.9929988  57.0623849 113.4404723  43.4167959
  57.9730012 111.6754997  45.2149988  57.6380012 110.7954997  45.3869988
  58.1950012 112.0204997  46.0799988  57.9571783 111.6017500  45.3554208
  75.5210012 112.4844997  48.1959988  75.5000012 112.6694997  49.1349988
  76.2120012 113.0534997  47.8549988  75.6114618 112.5866606  48.2783864
  75.0850012 112.0524997  51.1179988  74.5970012 111.3164997  50.7469988
  75.6340012 111.6584997  51.7959988  75.0924872 111.8986249  51.1589160
  73.5350012 107.8414997  55.7559988  72.6690012 107.7364997  56.1499988
  73.9120012 108.6004997  56.2019988  73.4673308 107.9296900  55.8702393
  74.8360012 106.0984997  41.2699988  75.6860012 106.5194997  41.3969988
  74.8420012 105.3584997  41.8769988  74.9531372 106.0560803  41.3694344
  75.2310012 104.1514997  43.0939988  74.5040012 103.6724997  43.4909988
  75.8120012 104.3574997  43.8259988  75.2099375 104.1137090  43.2474129
  74.9900012 106.9364997  48.0409988  75.8230012 106.5584997  47.7609988
  75.1020012 107.8794997  47.9219988  75.1192647 107.0122218  47.9865487
  73.4760012 109.8144997  50.3479988  72.8290012 110.1394997  50.9739988
  72.9590012 109.3744997  49.6739988  73.3174029 109.7995004  50.3425827
  75.4990012 104.0524997  39.4849988  74.9770012 104.4094997  38.7659988
  75.4660012 104.7274997  40.1629988  75.4231634 104.1925413  39.4783145
  73.8480012 101.2924997  38.0359988  73.9440012 101.9594997  37.3549988
  73.7080012 100.4764997  37.5539988  73.8422135 101.2734500  37.8778491
  73.0170012 102.6724997  43.6569988  72.8670012 101.7274997  43.6359988
  72.6640012 102.9534997  44.4999988  72.9486625 102.5810441  43.7682346
  58.0530012 104.7504997  47.6669988  58.2370012 104.6684997  46.7309988
  58.9020012 104.6264997  48.0909988  58.1930139 104.7225003  47.5961455
  73.8740012 104.6424997  53.2949988  74.4570012 103.9084997  53.4869988
  74.4380012 105.4144997  53.3419988  74.0299769 104.6464227  53.3276159
  75.3700012 102.5454997  53.9799988  74.5070012 102.1664997  53.8139988
  75.9750012 101.8064997  53.9059988  75.3335979 102.3938023  53.9472817
  73.0950012  98.7004997  37.1529988  73.7060012  98.3294997  37.7899988
  72.2590012  98.2794997  37.3489988  73.0655032  98.5927554  37.2667035
  72.7280012 100.2554997  42.1189988  73.0080012  99.3484997  42.2429988
  73.4870012 100.6894997  41.7299988  72.8689277 100.1900942  42.0833682
  73.3400012 100.8364997  47.5549988  74.2730012 101.0484997  47.5209988
  73.1050012 100.9384997  48.4769988  73.4358036 100.8792769  47.6749976
  73.3690012 101.5734997  50.3309988  72.5260012 101.8414997  50.6969988
  73.8110012 102.3954997  50.1199988  73.3134158 101.7213291  50.3525491
  57.6500012 100.0214997  53.8079988  58.5700012  99.8994997  54.0439988
  57.2010012  99.2714997  54.1969988  57.7151580  99.9033727  53.8929006
  75.6520012  95.5534997  55.6839988  76.0020012  94.8994997  55.0789988
  75.7990012  96.3904997  55.2449988  75.7198419  95.5771591  55.5417118
  73.3410012  97.5184997  42.1669988  73.5240012  97.0694997  42.9929988
  72.7420012  96.9334997  41.7039988  73.2850202  97.3779975  42.2173275
  58.8710012  98.3334997  46.6989988  59.3170012  97.5414997  47.0009988
  59.3380012  99.0494997  47.1299988  58.9950172  98.3220624  46.7984820
  57.1750012 101.3324997  47.7679988  57.6670012 101.1114997  46.9769988
  57.5380012 102.1734997  48.0489988  57.2913126 101.4158357  47.6977531
  75.1720012  97.6624997  54.0339988  74.2540012  97.9334997  53.9979988
  75.2950012  97.1274997  53.2489988  75.0631066  97.6272892  53.9230487
  75.2080012  97.5854997  38.6949988  75.6200012  96.8644997  38.2199988
  75.8900012  98.2554997  38.7539988  75.3565885  97.5772368  38.6378915
  57.4890012  97.5904997  41.8219988  56.5640012  97.7994997  41.6929988
  57.9430012  98.0744997  41.1329988  57.4237368  97.6845993  41.7111226
  72.2600012 112.5744997  43.7679988  72.9120012 112.2274997  43.1599988
  72.7700012 113.0634997  44.4139988  72.4182637 112.5930597  43.7720236
  57.4530012  96.3284997  50.1669988  56.7880012  96.0824997  50.8099988
  57.0100012  96.9504997  49.5889988  57.3020956  96.3788632  50.1769352
  59.6450012 109.5034997  54.3109988  58.8240012 109.6784997  53.8509988
  59.3920012 109.4304997  55.2319988  59.4986164 109.5175622  54.3724923
  62.5990012 110.4784997  50.5699988  62.1740012 111.2874997  50.2869988
  63.5030012 110.5634997  50.2679988  62.6630271 110.6008469  50.4903776
  66.9100012 111.8774997  53.5289988  67.0950012 111.5434997  54.4069988
  67.7560012 112.1864997  53.2069988  67.0497539 111.8736047  53.6055605
  69.2550012 113.1634997  52.7729988  69.9320012 112.5304997  52.5329988
  69.5770012 113.5644997  53.5799988  69.3911637 113.1311154  52.8492793
  74.1720012  95.7524997  51.8529988  73.3600012  96.0774997  51.4649988
  74.4050012  94.9924997  51.3199988  74.0923423  95.6942436  51.7278253
  60.0010012 113.7344997  50.6169988  59.2800012 114.1744997  50.1659988
  59.6350012 113.4834997  51.4659988  59.8529804 113.7607698  50.6699840
  62.4680012 113.3344997  49.6469988  61.6030012 113.4064997  50.0509988
  62.4130012 113.8814997  48.8629988  62.3422085 113.4182685  49.5963362
  67.1780012 113.2224997  48.8219988  66.7220012 113.7514997  48.1679988
  67.3410012 113.8254997  49.5479988  67.1375585 113.3764468  48.8305062
  69.5060012 112.1004997  49.7669988  68.6010012 112.2654997  49.5019988
  69.9350012 112.9534997  49.7019988  69.4400799 112.2384483  49.7219182
  72.1100012 113.6704997  50.0619988  71.9280012 114.5864997  49.8519988
  72.2870012 113.2604997  49.2159988  72.1090210 113.7404822  49.9187885
  59.4150012 112.3574997  47.5269988  59.3970012 111.9324997  48.3849988
  60.2200012 112.0394997  47.1189988  59.5213875 112.2563812  47.5891655
  61.5570012 111.0674997  46.1819988  61.3380012 110.1514997  46.3519988
  62.3810012 111.2074997  46.6479988  61.6384420 110.9610520  46.2682774
  64.0940012 111.5374997  47.0309988  64.3070012 110.6494997  46.7439988
  64.1580012 111.5034997  47.9849988  64.1318231 111.4113102  47.1207397
  67.6020012  97.2014997  46.1749988  66.9280012  96.5724997  46.4309988
  68.1660012  96.7174997  45.5719988  67.5859230  97.0498744  46.1285340
  72.7450012  95.3094997  46.2879988  73.3490012  95.8564997  45.7859988
  71.8750012  95.6284997  46.0479988  72.7101241  95.4275806  46.1867654
  74.4720012  96.4474997  44.6209988  75.0840012  95.9334997  44.0949988
  74.8540012  97.3254997  44.6449988  74.6074540  96.4957140  44.5521830
  59.9290012  95.8354997  43.9969988  59.1520012  95.6014997  43.4899988
  60.4590012  95.0384997  44.0059988  59.8942330  95.6956988  43.9287742
  58.7650012  95.6334997  39.8009988  59.2040012  96.2444997  39.2089988
  58.1320012  96.1714997  40.2749988  58.7394514  95.7899257  39.7840930
  64.5080012  95.7624997  43.8109988  65.3830012  96.1504997  43.7809988
  64.3720012  95.5474997  44.7329988  64.6093695  95.7865184  43.9316440
  70.0650012  95.7924997  45.4599988  70.1410012  95.8874997  44.5099988
  69.7900012  94.8844997  45.5889988  70.0382321  95.6827867  45.3475079
  71.4180012  95.8184997  41.1519988  70.7160012  96.4334997  40.9429988
  70.9740012  94.9804997  41.2829988  71.2616330  95.7895783  41.1410328
  58.6660012 111.5814997  40.6989988  57.9810012 111.5434997  40.0309988
  58.6700012 112.4944997  40.9869988  58.5728193 111.6997016  40.6465284
  60.6260012  97.5494997  38.2429988  61.1180012  96.9194997  37.7159988
  61.2500012  97.8454997  38.9069988  60.7775446  97.5033199  38.2605980
  65.6520012  97.8424997  40.6999988  65.8300012  97.1964997  41.3829988
  65.5990012  98.6764997  41.1679988  65.6691829  97.8667985  40.8565940
  67.5310012 112.7914997  39.0959988  68.3970012 113.1574997  38.9179988
  67.2840012 112.3514997  38.2819988  67.6162392 112.7821756  38.9616289
  74.2400012 112.3544997  41.7749988  74.0450012 111.6064997  41.2099988
  74.2010012 113.1124997  41.1919988  74.2080380 112.3546099  41.6188384
  59.8870012  96.3494997  53.5149988  59.5210012  95.5844997  53.9579988
  60.8000012  96.3784997  53.8019988  59.9602790  96.2487224  53.6144070
  61.8600012  95.7004997  55.0509988  62.7580012  95.4264997  54.8659988
  61.4730012  94.9574997  55.5149988  61.9306612  95.5625914  55.0883643
  60.4840012 112.5014997  37.7239988  60.2170012 112.7884997  38.5969988
  61.2560012 111.9554997  37.8759988  60.5517488 112.4670294  37.8641050
  70.2810012  95.0324997  55.2329988  70.3580012  94.6064997  56.0869988
  71.1750012  95.0464997  54.8899988  70.4123428  94.9760879  55.3035310
  73.4570012 111.1054997  53.9249988  72.6750012 110.9194997  53.4059988
  73.3850012 112.0344997  54.1429988  73.3401777 111.2056492  53.8834048
  87.8630012 104.9914997  43.9559988  87.9520012 105.9354997  43.8239988
  87.2250012 104.7164997  43.2979988  87.7889081 105.0834830  43.8489614
  86.7960012 104.2464997  47.3749988  86.7580012 103.6004997  48.0799988
  86.4740012 103.7804997  46.6039988  86.7472333 104.0949408  47.3672978
  79.1650012 103.8614997  48.9679988  79.2060012 103.2354997  49.6909988
  79.8680012 104.4854997  49.1499988  79.2656363 103.8601196  49.0916044
  90.5020012 107.1854997  45.6759988  90.0620012 106.4654997  46.1269988
  90.4890012 107.9064997  46.3059988  90.4400226 107.1843731  45.8228494
  80.0880012 108.3114997  47.5029988  79.7190012 107.5094997  47.1329988
  81.0290012 108.1424997  47.5489988  80.1647289 108.1790153  47.4586316
  76.6980012 101.9714997  42.8959988  76.2510012 102.8174997  42.8769988
  76.1370012 101.3914997  42.3799988  76.5609900 102.0089916  42.8236801
  77.4090012 104.1334997  45.0219988  77.6220012 103.3634997  45.5489988
  78.1470012 104.2224997  44.4179988  77.5378496 104.0401394  45.0125300
  87.6140012 112.2904997  45.8889988  88.2340012 111.6134997  45.6149988
  87.4060012 112.0724997  46.7969988  87.6706904 112.1683870  45.9743365
  85.1860012 106.6794997  47.7809988  85.4900012 105.9934997  47.1859988
  85.9070012 106.7974997  48.3989988  85.3250671 106.6016305  47.7831816
  93.8490012  98.2804997  48.6419988  93.8980012  98.8904997  49.3779988
  94.2740012  98.7414997  47.9189988  93.9131824  98.4263741  48.6450205
  88.3270012 101.0734997  48.1089988  88.4690012 100.1274997  48.1289988
  88.2200012 101.2804997  47.1799988  88.3319863 100.9719534  47.9862339
  81.4810012  99.1744997  45.3809988  81.5250012 100.0344997  44.9629988
  81.0240012  98.6224997  44.7469988  81.4252185  99.2175799  45.2380299
  89.2040012  99.3054997  43.7819988  89.8500012  98.9764997  44.4069988
  89.7140012  99.8234997  43.1589988  89.3614264  99.3304611  43.7833862
  78.1020012 101.5714997  46.1429988  78.7550012 101.0214997  46.5749988
  78.1260012 101.2974997  45.2259988  78.1946683 101.4591466  46.0782123
  83.2580012 103.1214997  45.3579988  83.8740012 102.5954997  45.8679988
  82.6720012 102.4814997  44.9549988  83.2630810 102.9629208  45.3733173
  94.2400012  99.7584997  50.8779988  93.5520012 100.4164997  50.7819988
  94.2560012  99.5614997  51.8139988  94.1478525  99.8220462  50.9914808
  80.2920012  98.0924997  49.4549988  80.0730012  98.6224997  48.6889988
  79.6240012  98.3194997  50.1019988  80.1717600  98.1956906  49.4376379
  87.6610012 107.5924997  42.9989988  87.3650012 107.2704997  42.1479988
  87.3360012 108.4924997  43.0399988  87.5766371 107.6700215  42.8881801
  82.8610012 105.7684997  49.7419988  82.1210012 106.3664997  49.8459988
  83.5750012 106.3224997  49.4269988  82.8562237 105.9252831  49.7136465
  90.9680012  98.5964997  45.7619988  90.7520012  97.8304997  46.2949988
  91.6230012  99.0684997  46.2749988  91.0270632  98.5555889  45.9042861
  79.8850012  99.9844997  47.4069988  80.4990012 100.6174997  47.7809988
  80.3970012  99.5124997  46.7509988  80.0382296 100.0072370  47.3694252
  81.2680012 107.7324997  50.5299988  81.2630012 108.6124997  50.1519988
  80.4150012 107.6494997  50.9549988  81.1519464 107.8416117  50.5357907
  77.3890012 107.4034997  41.3119988  77.1170012 107.6324997  40.4229988
  77.4350012 108.2414997  41.7719988  77.3580094 107.5481213  41.2525697
  91.0140012 109.0254997  48.0239988  90.0730012 109.0834997  48.1859988
  91.2910012 109.9314997  47.8869988  90.9224679 109.1559443  48.0276815
  91.3150012  97.3114997  49.4419988  90.5790012  97.9224997  49.4039988
  91.9980012  97.7264997  48.9149988  91.3066541  97.4511374  49.3655832
  84.3180012  95.3984997  46.9079988  84.2010012  94.4494997  46.8529988
  83.4630012  95.7304997  47.1809988  84.1863733  95.3135409  46.9373897
  89.2660012 110.8064997  44.6499988  89.6920012 110.0994997  44.1649988
  89.5830012 111.6074997  44.2329988  89.3671019 110.8180994  44.5273130
  90.4260012 108.7074997  43.1579988  90.1680012 108.0174997  42.5469988
  90.4970012 108.2644997  44.0039988  90.4002856 108.5532124  43.1886885
  92.1120012 107.2734997  51.6359988  92.2520012 106.6824997  50.8959988
  92.2790012 108.1464997  51.2789988  92.1536778 107.3106426  51.4866965
  86.5850012 104.2354997  41.4079988  85.8730012 104.7704997  41.0559988
  87.2760012 104.2914997  40.7479988  86.5810132 104.3162543  41.2706289
  86.6380012 102.6934997  38.4469988  87.3390012 102.7154997  39.0979988
  86.9410012 102.0654997  37.7909988  86.7747830 102.6116566  38.4473711
  93.9540012 103.6134997  49.7019988  93.3010012 104.3084997  49.7909988
  94.4190012 103.8234997  48.8919988  93.9275390 103.7369425  49.6046883
  89.9900012 104.4454997  42.3599988  89.2580012 104.6734997  42.9329988
  90.4380012 103.7314997  42.8149988  89.9503095 104.3802571  42.4999119
  89.8880012 102.6194997  51.4269988  89.9680012 103.3824997  51.9989988
  89.2860012 102.8984997  50.7369988  89.8175756 102.7617134  51.4120589
  81.6360012 105.0754997  44.2419988  81.3050012 104.7054997  43.4239988
  82.2240012 104.4054997  44.5889988  81.6701873 104.9341156  44.1768102
  83.0020012 108.5034997  46.9239988  82.9080012 107.9254997  46.1669988
  83.7320012 108.1324997  47.4199988  83.0877981 108.3742390  46.8874165
  82.0020012 103.8444997  47.8759988  82.5680012 103.9654997  47.1129988
  82.3210012 104.4814997  48.5149988  82.1225786 103.9471884  47.8580040
  88.3110012 109.3474997  48.6099988  88.0710012 110.0094997  49.2579988
  88.1130012 108.5134997  49.0349988  88.2513808 109.3253134  48.7561524
  82.8820012 108.2434997  52.5929988  82.5710012 109.0254997  53.0479988
  82.2320012 108.0904997  51.9069988  82.7515558 108.3299105  52.5625871
  88.8610012 103.6074997  40.0449988  89.4410012 103.7574997  40.7919988
  89.2750012 104.0784997  39.3219988  88.9962830 103.6916841  40.0494134
  79.8020012 104.4414997  51.8219988  79.8730012 105.0924997  52.5199988
  78.9120012 104.5444997  51.4869988  79.6913117 104.5445936  51.8722700
  86.5880012 110.3444997  43.4799988  87.0620012 110.6394997  44.2579988
  86.0250012 111.0824997  43.2469988  86.5767653 110.4846932  43.5550136
  81.1220012 110.3154997  53.3559988  81.1290012 110.1794997  52.4089988
  80.2060012 110.1974997  53.6079988  80.9991714 110.2809430  53.2604666
  92.5600012  95.3574997  39.8579988  91.6600012  95.4964997  40.1529988
  92.8120012  96.1884997  39.4559988  92.4708702  95.4889074  39.8440205
  80.6260012 104.1454997  41.8319988  80.3340012 104.9134997  41.3409988
  79.9520012 103.4854997  41.6689988  80.4949081 104.1614406  41.7427340
  93.7490012 109.7234997  38.2339988  93.8230012 110.6624997  38.4049988
  94.6550012 109.4184997  38.1779988  93.8815100 109.8106722  38.2498119
  76.7190012 106.5084997  50.6469988  76.2180012 106.4804997  49.8319988
  76.7240012 105.6024997  50.9559988  76.6511526 106.3822278  50.5772872
  76.4690012 109.2884997  47.5309988  77.4150012 109.1444997  47.5119988
  76.3570012 110.0724997  48.0679988  76.5832727 109.3748046  47.6010072
  94.6670012 109.9544997  53.2129988  94.6180012 108.9994997  53.1759988
  93.8400012 110.2224997  53.6139988  94.5484940 109.8598998  53.2621375
  85.6460012 109.5284997  52.0889988  85.7330012 110.3544997  52.5639988
  84.7820012 109.1984997  52.3379988  85.5411964 109.5969878  52.1876549
  86.0600012 113.3004997  41.8949988  85.9850012 113.1794997  40.9489988
  86.0930012 114.2504997  42.0139988  86.0541848 113.4122500  41.7814834
  79.7130012 112.0894997  43.6759988  79.8660012 111.7414997  44.5549988
  78.8630012 111.7334997  43.4209988  79.6188962 111.9936650  43.7618340
  89.1620012 112.4544997  38.8969988  89.5370012 111.7104997  38.4269988
  89.1660012 112.1844997  39.8159988  89.2138915 112.3161486  38.9567824
  88.8310012 112.3804997  41.6469988  87.8950012 112.4804997  41.8249988
  89.1110012 111.6714997  42.2249988  88.7408255 112.2982711  41.7495391
  91.8190012 101.4474997  53.6929988  91.4120012 101.9284997  52.9719988
  91.8600012 100.5424997  53.3849988  91.7688437 101.3909374  53.5526683
  78.9680012 107.8314997  51.6899988  79.1840012 107.4704997  52.5489988
  78.1130012 107.4574997  51.4799988  78.8819292 107.7314111  51.7793386
  81.5870012  96.3014997  47.6849988  80.7250012  96.2144997  47.2779988
  81.5640012  97.1574997  48.1129988  81.4660330  96.4052765  47.6871863
  86.2500012  96.0234997  51.0599988  86.6700012  95.6084997  51.8129988
  85.3170012  95.8454997  51.1769988  86.1813644  95.9425900  51.1789539
  89.5760012  99.7794997  51.9129988  89.0620012  99.6534997  52.7109988
  89.4210012 100.6914997  51.6689988  89.4846852  99.8856132  51.9892158
  90.3390012 104.6404997  37.6749988  90.3810012 104.4174997  36.7449988
  91.1880012 105.0394997  37.8649988  90.4595396 104.6639155  37.5733627
  85.9110012  98.5164997  38.3449988  85.6580012  98.5354997  39.2679988
  85.6550012  97.6444997  38.0439988  85.8417790  98.4012437  38.4306263
  81.6780012 101.2674997  48.7799988  81.0360012 101.2264997  49.4889988
  81.7150012 102.1934997  48.5429988  81.5951324 101.3871559  48.8449824
  81.6750012 101.4884997  43.6919988  80.7820012 101.1474997  43.6339988
  82.1250012 101.1114997  42.9369988  81.6137305 101.3908484  43.5819177
  87.2100012 101.9044997  42.5089988  86.8010012 102.7194997  42.2179988
  87.9310012 101.7644997  41.8949988  87.2514537 101.9972018  42.3861342
  86.3120012 102.0794997  53.9969988  85.7500012 101.3754997  54.3179988
  87.1390012 101.9594997  54.4649988  86.3467095 101.9667883  54.1042330
  88.2150012 101.3504997  45.3229988  88.0200012 101.9554997  44.6079988
  88.3960012 100.5164997  44.8889988  88.2127614 101.3206300  45.1664405
  79.4280012 101.5874997  50.6469988  79.3900012 101.9874997  51.5159988
  78.9370012 100.7704997  50.7379988  79.3564684 101.5318069  50.7781059
  82.7940012  98.9614997  37.4459988  82.3630012  98.5164997  38.1759988
  82.0760012  99.3334997  36.9339988  82.6379438  98.9508940  37.4766799
  76.0360012  98.7034997  44.4979988  76.6670012  98.6744997  45.2169988
  76.4850012  98.2784997  43.7679988  76.1830774  98.6420492  44.4976553
  77.3100012  99.4494997  39.9219988  77.7840012 100.0404997  39.3369988
  76.5930012  99.9804997  40.2689988  77.2779341  99.6020867  39.8888836
  87.4790012 102.9884997  49.9949988  87.8020012 102.3574997  49.3519988
  87.0390012 102.4534997  50.6549988  87.4636895 102.8298441  49.9962850
  84.2560012  98.9154997  44.7789988  83.3450012  98.9724997  45.0669988
  84.7620012  98.8554997  45.5889988  84.1995413  98.9151985  44.9280622
  79.0850012 100.5444997  43.6049988  78.1950012 100.6444997  43.2649988
  79.3810012  99.7024997  43.2589988  79.0032823 100.4443545  43.5117213
  82.7380012 100.5444997  41.2619988  83.6690012 100.6734997  41.4399988
  82.5230012 101.2144997  40.6119988  82.8364247 100.6526565  41.1985747
  88.6610012  98.1504997  48.0429988  87.9850012  98.2814997  48.7069988
  88.1760012  97.9954997  47.2329988  88.5027145  98.1474905  48.0244517
  81.4120012 101.7394997  38.8289988  80.8690012 101.3594997  38.1369988
  82.2450012 101.9334997  38.3999988  81.4504399 101.7138124  38.6764526
  91.9490012 113.8224997  54.3199988  92.1490012 114.2464997  53.4849988
  92.6040012 114.1654997  54.9269988  92.0650051 113.9269648  54.2877836
  79.5470012 106.2964997  53.9279988  80.2790012 106.5504997  54.4889988
  78.7670012 106.5004997  54.4429988  79.5418232 106.3589177  54.0745760
  85.5760012 101.7034997  46.6659988  86.1410012 101.1564997  46.1189988
  85.4290012 101.1814997  47.4539988  85.6332918 101.5582024  46.6978454
  80.5780012  97.8394997  43.0839988  80.2610012  96.9374997  43.0489988
  81.3600012  97.8414997  42.5309988  80.6402284  97.7161628  43.0044783
  84.2030012 100.0914997  49.0799988  83.3670012 100.5454997  49.1899988
  84.7270012 100.3674997  49.8319988  84.1594414 100.1909376  49.1967136
  84.7470012 106.3044997  40.7639988  84.0020012 105.7974997  40.4419988
  84.6130012 106.3534997  41.7109988  84.6268776 106.2416940  40.8478647
  91.8970012 105.4374997  49.5509988  92.5390012 105.8944997  49.0069988
  91.0670012 105.5504997  49.0879988  91.8725963 105.5152704  49.4140177
  88.6450012  99.1184997  38.9639988  87.7060012  99.2304997  38.8119988
  88.9420012  99.9754997  39.2699988  88.5567666  99.2496443  38.9845768
  86.2660012 106.4884997  52.0009988  85.9210012 106.1074997  52.8079988
  86.0660012 107.4224997  52.0729988  86.1918061 106.5625228  52.1210961
  89.3630012 100.9854997  40.6239988  90.2550012 100.8484997  40.9429988
  89.4200012 101.7764997  40.0879988  89.4926285 101.0736660  40.5951691
  79.8720012 105.5994997  46.5339988  80.6170012 105.5974997  45.9329988
  79.9500012 104.7764997  47.0159988  79.9845518 105.4879315  46.5168929
  86.8730012 107.7634997  39.7899988  86.5770012 108.5894997  40.1709988
  86.1700012 107.1434997  39.9859988  86.7374914 107.7928199  39.8686443
  76.8800012 104.0604997  51.8489988  77.1030012 103.6424997  52.6809988
  76.2780012 103.4474997  51.4259988  76.8291759 103.9204668  51.9057022
  83.8960012 103.5774997  54.0619988  83.6000012 103.4114997  53.1669988
  84.8280012 103.3574997  54.0509988  83.9814166 103.5250640  53.9380536
  88.5170012 108.9504997  51.9519988  87.6160012 109.1334997  51.6839988
  88.5510012 109.2094997  52.8729988  88.3983041 109.0105512  52.0398197
  94.2480012 101.1954997  40.3189988  93.6940012 100.7994997  39.6469988
  94.3480012 102.1054997  40.0409988  94.1857059 101.2643586  40.1894401
  94.2110012 106.9954997  53.1559988  93.3600012 107.2334997  52.7889988
  94.8020012 106.9784997  52.4029988  94.1742487 107.0258258  53.0038893
  92.5430012 109.9814997  40.7839988  92.1700012 109.1554997  41.0929988
  92.8210012 109.7984997  39.8869988  92.5295630 109.8437303  40.7049626
  89.7040012 104.7894997  47.8049988  88.7750012 104.5574997  47.7779988
  90.1550012 104.0124997  47.4749988  89.6379216 104.6527238  47.7566917
  82.2470012 109.1174997  43.9379988  82.7740012 109.8904997  43.7379988
  81.3670012 109.3424997  43.6369988  82.2001773 109.2538005  43.8699010
  78.0020012 103.9794997  38.5249988  78.6180012 104.6064997  38.9049988
  77.1400012 104.2954997  38.7969988  77.9697698 104.1079430  38.6137183
  83.6740012 106.7804997  43.5149988  83.4330012 107.7054997  43.5559988
  82.9330012 106.3214997  43.9109988  83.5408409 106.8451421  43.5741377
  84.1890012 110.9294997  49.8299988  84.5510012 111.7844997  49.5959988
  84.7200012 110.6374997  50.5699988  84.3104473 111.0071060  49.8980855
  82.3570012 111.8024997  43.0599988  81.4070012 111.9074997  43.1109988
  82.7090012 112.6224997  43.4049988  82.2744203 111.9278314  43.1136650
  87.7330012 107.0284997  49.5299988  87.3070012 106.8014997  50.3569988
  88.3130012 106.2904997  49.3479988  87.7531868 106.8975299  49.6185830
  89.9360012 107.9574997  38.6039988  90.2890012 107.5774997  39.4089988
  88.9870012 107.8644997  38.6909988  89.8560441 107.8929596  38.7258559
  90.3910012 111.5804997  51.9999988  89.7900012 111.0254997  51.5039988
  90.6730012 112.2474997  51.3739988  90.3468519 111.5946841  51.8474952
  94.4390012 112.4374997  38.8049988  95.1830012 113.0234997  38.6649988
  93.7450012 113.0054997  39.1389988  94.4470292 112.5945582  38.8309961
  78.5140012  98.8134997  51.4069988  77.6210012  99.1524997  51.3389988
  78.4150012  97.9584997  51.8249988  78.3784164  98.7442588  51.4542235
  90.8020012 106.6304997  40.8309988  90.5240012 105.9024997  41.3869988
  91.7290012 106.7494997  41.0359988  90.8893124 106.5468802  40.9348845
  78.1650012 110.6184997  49.8419988  78.3820012 109.6864997  49.8109988
  78.4110012 110.8924997  50.7249988  78.2279549 110.5280636  49.9571763
  84.0270012 109.0694997  37.0509988  84.2660012 108.3214997  36.5039988
  83.7580012 108.6814997  37.8839988  84.0233675 108.9146638  37.0886865
  82.9640012 108.6394997  39.5079988  83.1100012 108.1194997  40.2979988
  82.9610012 109.5464997  39.8139988  82.9835989 108.6908853  39.6576088
  79.4170012 105.8924997  40.0179988  78.7310012 106.2444997  40.5849988
  79.9390012 106.6554997  39.7709988  79.3936852 106.0438578  40.0622118
  87.2480012  98.5544997  50.2969988  87.9470012  98.6284997  50.9469988
  86.8670012  97.6904997  50.4509988  87.2921767  98.4477624  50.4068322
  88.0330012  98.2064997  41.3939988  88.2530012  98.6784997  40.5909988
  88.5910012  98.6014997  42.0639988  88.1384968  98.3244285  41.3747331
  85.7010012 110.3374997  40.2569988  84.8850012 110.8344997  40.3089988
  86.2310012 110.8124997  39.6169988  85.6609161 110.4697722  40.1775956
  85.2330012  99.9344997  42.2289988  86.0450012 100.4394997  42.2749988
  84.9880012  99.7894997  43.1429988  85.3110520  99.9840375  42.3588517
  85.7680012 100.9204997  51.4139988  85.8870012 101.4944997  52.1709988
  86.4240012 100.2324997  51.5279988  85.8729757 100.9061079  51.5330825
  86.1160012  97.0154997  43.1669988  85.7700012  97.6334997  43.8119988
  86.7750012  97.5164997  42.6859988  86.1577826  97.1675802  43.1900971
  83.0400012 111.3814997  40.2389988  83.2000012 112.1804997  39.7379988
  82.8420012 111.6874997  41.1239988  83.0351649 111.5324469  40.2899815
  81.7740012  98.0784997  39.8539988  81.6910012  98.9674997  40.2009988
  82.6640012  97.8134997  40.0859988  81.8829469  98.1641430  39.9327626
  91.9730012  98.8274997  52.2489988  91.0560012  99.0904997  52.1609988
  92.3080012  98.8244997  51.3519988  91.8929900  98.8630224  52.1157919
  90.5750012 102.5784997  46.3439988  89.7770012 102.1634997  46.0159988
  91.0200012 101.8874997  46.8349988  90.5259885 102.4283543  46.3654889
  80.0330012 108.5064997  38.9149988  80.6250012 109.2054997  39.1909988
  80.4920012 108.0734997  38.1949988  80.1761142 108.5437049  38.8554830
  78.3490012 101.1704997  38.0309988  78.3040012 102.1094997  38.2089988
  77.4610012 100.9344997  37.7609988  78.2228574 101.2671892  38.0188912
  91.6610012 111.8344997  47.9669988  91.5060012 112.5124997  47.3099988
  92.5940012 111.9064997  48.1699988  91.7658500 111.9370170  47.9045119
  79.1570012  95.9524997  46.7039988  78.9280012  96.0114997  45.7759988
  78.7140012  95.1604997  47.0099988  79.0658530  95.8535753  46.6184786
  78.0870012 109.8924997  42.8639988  77.2550012 110.3654997  42.8919988
  78.6330012 110.4024997  42.2659988  78.0469739 110.0261871  42.7869716
  77.3750012 112.5054997  54.1939988  77.9160012 112.2884997  54.9539988
  76.8940012 111.6994997  54.0049988  77.3839345 112.3669514  54.2723076
  81.9730012 111.4244997  55.8149988  82.7400012 110.9654997  56.1559988
  81.9510012 111.1984997  54.8849988  82.0751434 111.3310409  55.7360043
  86.0650012 110.9324997  37.1899988  85.4210012 110.3014997  37.5109988
  86.8270012 110.4014997  36.9579988  86.0798077 110.7742920  37.2026011
  88.5500012 109.8044997  54.5439988  88.1990012 108.9484997  54.7869988
  89.2760012 109.9474997  55.1509988  88.6000769 109.7065636  54.6593619
  90.6690012 110.7494997  37.4239988  90.9520012 109.9554997  37.8759988
  91.4090012 110.9824997  36.8629988  90.8077486 110.6722803  37.4100698
  77.2820012 106.3154997  55.1489988  77.4260012 105.4134997  54.8619988
  76.5100012 106.6014997  54.6609988  77.1973323 106.2308261  55.0437881
  81.6240012 106.6594997  37.2809988  81.6880012 105.8654997  37.8119988
  82.2770012 106.5404997  36.5909988  81.7210241 106.5347148  37.2604317
  83.9380012 106.2854997  54.5809988  83.6090012 106.5564997  53.7239988
  84.0900012 105.3444997  54.4939988  83.9134809 106.1953862  54.4518244
  86.9760012 107.7064997  37.0169988  86.7070012 107.8864997  37.9179988
  86.7700012 106.7804997  36.8859988  86.9113825 107.6060152  37.1225214
  89.6720012 106.2014997  51.9649988  90.4180012 106.7894997  51.8449988
  88.9150012 106.7834997  52.0279988  89.6717554 106.3607011  51.9570907
  78.1150012 103.5154997  54.5689988  78.5230012 102.6584997  54.4479988
  77.8550012 103.5304997  55.4899988  78.1357568 103.4000807  54.6769588
  82.7730012 104.6314997  39.5869988  82.3130012 104.1474997  40.2729988
  83.0280012 103.9634997  38.9509988  82.7444902 104.4748731  39.5949334
  82.0620012 102.5244997  51.9429988  81.4440012 103.1994997  52.2229988
  82.4060012 102.8454997  51.1099988  82.0239615 102.6602721  51.8686581
  83.8440012 102.8744997  37.8489988  83.6640012 102.7204997  36.9219988
  84.7940012 102.9824997  37.8939988  83.9477776 102.8680175  37.7281843
  87.0820012 104.9964997  55.2199988  88.0350012 105.0794997  55.1929988
  86.9210012 104.2844997  55.8399988  87.1906426 104.9116746  55.3000579
  93.2340012 105.2294997  37.2949988  92.9600012 104.8044997  36.4819988
  93.2730012 106.1604997  37.0779988  93.2017699 105.2972484  37.1543610
  82.4010012  99.8794997  53.0249988  82.5510012  99.1504997  52.4229988
  82.4040012 100.6564997  52.4659988  82.4219302  99.8847851  52.8670692
  82.8140012  98.2494997  50.5179988  83.3500012  98.7004997  49.8659988
  81.9620012  98.1414997  50.0949988  82.7722178  98.2966390  50.3715756
  84.3960012 103.6884997  50.7569988  85.1460012 103.5324997  50.1839988
  84.0570012 104.5404997  50.4819988  84.4528921 103.7822968  50.6413561
  88.8110012 101.5034997  55.7859988  89.0040012 100.5724997  55.6739988
  89.6690012 101.9284997  55.7759988  88.9533020 101.4336389  55.7693361
  90.1280012 104.2924997  53.8629988  89.8470012 105.0014997  53.2859988
  91.0710012 104.2194997  53.7119988  90.2169027 104.3797646  53.7635551
  80.8800012 101.0774997  54.9369988  80.1130012 100.5454997  54.7269988
  81.5590012 100.7674997  54.3369988  80.8667022 100.9627506  54.8271648
  83.6200012  95.7054997  50.9489988  83.5210012  96.6524997  50.8439988
  82.8770012  95.3334997  50.4739988  83.5060564  95.7845902  50.8704560
  84.8840012 100.0274997  54.5129988  84.6480012  99.8074997  55.4149988
  84.1000012  99.8204997  54.0029988  84.7458628  99.9694760  54.5673932
  87.5990012  99.1544997  53.5889988  86.6520012  99.1864997  53.7209988
  87.9120012  98.5294997  54.2419988  87.5115475  99.0743207  53.6954455
  89.2330012  97.7884997  55.5939988  89.1370012  96.8364997  55.5879988
  88.9120012  98.0574997  56.4539988  89.1764070  97.6944035  55.7095441
  79.0600012  98.9984997  54.6409988  79.2720012  98.2914997  54.0309988
  78.9490012  98.5604997  55.4849988  79.0739721  98.8427084  54.6716843
  83.8410012  94.9994997  53.6209988  84.5530012  94.3594997  53.6069988
  83.7400012  95.2664997  52.7069988  83.9247939  94.9479938  53.4955650
  84.1950012  96.6824997  55.6739988  84.0630012  96.2064997  54.8539988
  83.5960012  97.4264997  55.6189988  84.0959071  96.7179618  55.5542886
  83.7410012 113.5654997  38.8509988  84.6740012 113.7234997  38.9939988
  83.4770012 114.2404997  38.2259988  83.8329510 113.6783611  38.7860741
  77.3100012 108.2014997  38.3329988  78.2240012 108.2804997  38.6069988
  77.3170012 107.5144997  37.6669988  77.4361131 108.1193961  38.2804393
  75.9590012 113.5944997  43.4109988  75.3120012 113.1324997  42.8779988
  76.3130012 112.9224997  43.9929988  75.9183849 113.4404723  43.4167959
  76.8290012 111.6754997  45.2149988  76.4940012 110.7954997  45.3869988
  77.0510012 112.0204997  46.0799988  76.8131783 111.6017500  45.3554208
  94.3770012 112.4844997  48.1959988  94.3560012 112.6694997  49.1349988
  95.0680012 113.0534997  47.8549988  94.4674618 112.5866606  48.2783864
  93.9410012 112.0524997  51.1179988  93.4530012 111.3164997  50.7469988
  94.4900012 111.6584997  51.7959988  93.9484872 111.8986249  51.1589160
  92.3910012 107.8414997  55.7559988  91.5250012 107.7364997  56.1499988
  92.7680012 108.6004997  56.2019988  92.3233308 107.9296900  55.8702393
  93.6920012 106.0984997  41.2699988  94.5420012 106.5194997  41.3969988
  93.6980012 105.3584997  41.8769988  93.8091372 106.0560803  41.3694344
  94.0870012 104.1514997  43.0939988  93.3600012 103.6724997  43.4909988
  94.6680012 104.3574997  43.8259988  94.0659375 104.1137090  43.2474129
  93.8460012 106.9364997  48.0409988  94.6790012 106.5584997  47.7609988
  93.9580012 107.8794997  47.9219988  93.9752647 107.0122218  47.9865487
  92.3320012 109.8144997  50.3479988  91.6850012 110.1394997  50.9739988
  91.8150012 109.3744997  49.6739988  92.1734029 109.7995004  50.3425827
  94.3550012 104.0524997  39.4849988  93.8330012 104.4094997  38.7659988
  94.3220012 104.7274997  40.1629988  94.2791634 104.1925413  39.4783145
  92.7040012 101.2924997  38.0359988  92.8000012 101.9594997  37.3549988
  92.5640012 100.4764997  37.5539988  92.6982135 101.2734500  37.8778491
  91.8730012 102.6724997  43.6569988  91.7230012 101.7274997  43.6359988
  91.5200012 102.9534997  44.4999988  91.8046625 102.5810441  43.7682346
  76.9090012 104.7504997  47.6669988  77.0930012 104.6684997  46.7309988
  77.7580012 104.6264997  48.0909988  77.0490139 104.7225003  47.5961455
  92.7300012 104.6424997  53.2949988  93.3130012 103.9084997  53.4869988
  93.2940012 105.4144997  53.3419988  92.8859769 104.6464227  53.3276159
  94.2260012 102.5454997  53.9799988  93.3630012 102.1664997  53.8139988
  94.8310012 101.8064997  53.9059988  94.1895979 102.3938023  53.9472817
  91.9510012  98.7004997  37.1529988  92.5620012  98.3294997  37.7899988
  91.1150012  98.2794997  37.3489988  91.9215032  98.5927554  37.2667035
  91.5840012 100.2554997  42.1189988  91.8640012  99.3484997  42.2429988
  92.3430012 100.6894997  41.7299988  91.7249277 100.1900942  42.0833682
  92.1960012 100.8364997  47.5549988  93.1290012 101.0484997  47.5209988
  91.9610012 100.9384997  48.4769988  92.2918036 100.8792769  47.6749976
  92.2250012 101.5734997  50.3309988  91.3820012 101.8414997  50.6969988
  92.6670012 102.3954997  50.1199988  92.1694158 101.7213291  50.3525491
  76.5060012 100.0214997  53.8079988  77.4260012  99.8994997  54.0439988
  76.0570012  99.2714997  54.1969988  76.5711580  99.9033727  53.8929006
  94.5080012  95.5534997  55.6839988  94.8580012  94.8994997  55.0789988
  94.6550012  96.3904997  55.2449988  94.5758419  95.5771591  55.5417118
  92.1970012  97.5184997  42.1669988  92.3800012  97.0694997  42.9929988
  91.5980012  96.9334997  41.7039988  92.1410202  97.3779975  42.2173275
  77.7270012  98.3334997  46.6989988  78.1730012  97.5414997  47.0009988
  78.1940012  99.0494997  47.1299988  77.8510172  98.3220624  46.7984820
  76.0310012 101.3324997  47.7679988  76.5230012 101.1114997  46.9769988
  76.3940012 102.1734997  48.0489988  76.1473126 101.4158357  47.6977531
  94.0280012  97.6624997  54.0339988  93.1100012  97.9334997  53.9979988
  94.1510012  97.1274997  53.2489988  93.9191066  97.6272892  53.9230487
  94.0640012  97.5854997  38.6949988  94.4760012  96.8644997  38.2199988
  94.7460012  98.2554997  38.7539988  94.2125885  97.5772368  38.6378915
  76.3450012  97.5904997  41.8219988  75.4200012  97.7994997  41.6929988
  76.7990012  98.0744997  41.1329988  76.2797368  97.6845993  41.7111226
  91.1160012 112.5744997  43.7679988  91.7680012 112.2274997  43.1599988
  91.6260012 113.0634997  44.4139988  91.2742637 112.5930597  43.7720236
  76.3090012  96.3284997  50.1669988  75.6440012  96.0824997  50.8099988
  75.8660012  96.9504997  49.5889988  76.1580956  96.3788632  50.1769352
  78.5010012 109.5034997  54.3109988  77.6800012 109.6784997  53.8509988
  78.2480012 109.4304997  55.2319988  78.3546164 109.5175622  54.3724923
  81.4550012 110.4784997  50.5699988  81.0300012 111.2874997  50.2869988
  82.3590012 110.5634997  50.2679988  81.5190271 110.6008469  50.4903776
  85.7660012 111.8774997  53.5289988  85.9510012 111.5434997  54.4069988
  86.6120012 112.1864997  53.2069988  85.9057539 111.8736047  53.6055605
  88.1110012 113.1634997  52.7729988  88.7880012 112.5304997  52.5329988
  88.4330012 113.5644997  53.5799988  88.2471637 113.1311154  52.8492793
  93.0280012  95.7524997  51.8529988  92.2160012  96.0774997  51.4649988
  93.2610012  94.9924997  51.3199988  92.9483423  95.6942436  51.7278253
  78.8570012 113.7344997  50.6169988  78.1360012 114.1744997  50.1659988
  78.4910012 113.4834997  51.4659988  78.7089804 113.7607698  50.6699840
  81.3240012 113.3344997  49.6469988  80.4590012 113.4064997  50.0509988
  81.2690012 113.8814997  48.8629988  81.1982085 113.4182685  49.5963362
  86.0340012 113.2224997  48.8219988  85.5780012 113.7514997  48.1679988
  86.1970012 113.8254997  49.5479988  85.9935585 113.3764468  48.8305062
  88.3620012 112.1004997  49.7669988  87.4570012 112.2654997  49.5019988
  88.7910012 112.9534997  49.7019988  88.2960799 112.2384483  49.7219182
  90.9660012 113.6704997  50.0619988  90.7840012 114.5864997  49.8519988
  91.1430012 113.2604997  49.2159988  90.9650210 113.7404822  49.9187885
  78.2710012 112.3574997  47.5269988  78.2530012 111.9324997  48.3849988
  79.0760012 112.0394997  47.1189988  78.3773875 112.2563812  47.5891655
  80.4130012 111.0674997  46.1819988  80.1940012 110.1514997  46.3519988
  81.2370012 111.2074997  46.6479988  80.4944420 110.9610520  46.2682774
  82.9500012 111.5374997  47.0309988  83.1630012 110.6494997  46.7439988
  83.0140012 111.5034997  47.9849988  82.9878231 111.4113102  47.1207397
  86.4580012  97.2014997  46.1749988  85.7840012  96.5724997  46.4309988
  87.0220012  96.7174997  45.5719988  86.4419230  97.0498744  46.1285340
  91.6010012  95.3094997  46.2879988  92.2050012  95.8564997  45.7859988
  90.7310012  95.6284997  46.0479988  91.5661241  95.4275806  46.1867654
  93.3280012  96.4474997  44.6209988  93.9400012  95.9334997  44.0949988
  93.7100012  97.3254997  44.6449988  93.4634540  96.4957140  44.5521830
  78.7850012  95.8354997  43.9969988  78.0080012  95.6014997  43.4899988
  79.3150012  95.0384997  44.0059988  78.7502330  95.6956988  43.9287742
  77.6210012  95.6334997  39.8009988  78.0600012  96.2444997  39.2089988
  76.9880012  96.1714997  40.2749988  77.5954514  95.7899257  39.7840930
  83.3640012  95.7624997  43.8109988  84.2390012  96.1504997  43.7809988
  83.2280012  95.5474997  44.7329988  83.4653695  95.7865184  43.9316440
  88.9210012  95.7924997  45.4599988  88.9970012  95.8874997  44.5099988
  88.6460012  94.8844997  45.5889988  88.8942321  95.6827867  45.3475079
  90.2740012  95.8184997  41.1519988  89.5720012  96.4334997  40.9429988
  89.8300012  94.9804997  41.2829988  90.1176330  95.7895783  41.1410328
  77.5220012 111.5814997  40.6989988  76.8370012 111.5434997  40.0309988
  77.5260012 112.4944997  40.9869988  77.4288193 111.6997016  40.6465284
  79.4820012  97.5494997  38.2429988  79.9740012  96.9194997  37.7159988
  80.1060012  97.8454997  38.9069988  79.6335446  97.5033199  38.2605980
  84.5080012  97.8424997  40.6999988  84.6860012  97.1964997  41.3829988
  84.4550012  98.6764997  41.1679988  84.5251829  97.8667985  40.8565940
  86.3870012 112.7914997  39.0959988  87.2530012 113.1574997  38.9179988
  86.1400012 112.3514997  38.2819988  86.4722392 112.7821756  38.9616289
  93.0960012 112.3544997  41.7749988  92.9010012 111.6064997  41.2099988
  93.0570012 113.1124997  41.1919988  93.0640380 112.3546099  41.6188384
  78.7430012  96.3494997  53.5149988  78.3770012  95.5844997  53.9579988
  79.6560012  96.3784997  53.8019988  78.8162790  96.2487224  53.6144070
  80.7160012  95.7004997  55.0509988  81.6140012  95.4264997  54.8659988
  80.3290012  94.9574997  55.5149988  80.7866612  95.5625914  55.0883643
  79.3400012 112.5014997  37.7239988  79.0730012 112.7884997  38.5969988
  80.1120012 111.9554997  37.8759988  79.4077488 112.4670294  37.8641050
  89.1370012  95.0324997  55.2329988  89.2140012  94.6064997  56.0869988
  90.0310012  95.0464997  54.8899988  89.2683428  94.9760879  55.3035310
  92.3130012 111.1054997  53.9249988  91.5310012 110.9194997  53.4059988
  92.2410012 112.0344997  54.1429988  92.1961777 111.2056492  53.8834048
 106.7190012 104.9914997  43.9559988 106.8080012 105.9354997  43.8239988
 106.0810012 104.7164997  43.2979988 106.6449081 105.0834830  43.8489614
 105.6520012 104.2464997  47.3749988 105.6140012 103.6004997  48.0799988
 105.3300012 103.7804997  46.6039988 105.6032333 104.0949408  47.3672978
  98.0210012 103.8614997  48.9679988  98.0620012 103.2354997  49.6909988
  98.7240012 104.4854997  49.1499988  98.1216363 103.8601196  49.0916044
 109.3580012 107.1854997  45.6759988 108.9180012 106.4654997  46.1269988
 109.3450012 107.9064997  46.3059988 109.2960226 107.1843731  45.8228494
  98.9440012 108.3114997  47.5029988  98.5750012 107.5094997  47.1329988
  99.8850012 108.1424997  47.5489988  99.0207289 108.1790153  47.4586316
  95.5540012 101.9714997  42.8959988  95.1070012 102.8174997  42.8769988
  94.9930012 101.3914997  42.3799988  95.4169900 102.0089916  42.8236801
  96.2650012 104.1334997  45.0219988  96.4780012 103.3634997  45.5489988
  97.0030012 104.2224997  44.4179988  96.3938496 104.0401394  45.0125300
 106.4700012 112.2904997  45.8889988 107.0900012 111.6134997  45.6149988
 106.2620012 112.0724997  46.7969988 106.5266904 112.1683870  45.9743365
 104.0420012 106.6794997  47.7809988 104.3460012 105.9934997  47.1859988
 104.7630012 106.7974997  48.3989988 104.1810671 106.6016304  47.7831816
 112.7050012  98.2804997  48.6419988 112.7540012  98.8904997  49.3779988
 113.1300012  98.7414997  47.9189988 112.7691824  98.4263741  48.6450205
 107.1830012 101.0734997  48.1089988 107.3250012 100.1274997  48.1289988
 107.0760012 101.2804997  47.1799988 107.1879864 100.9719534  47.9862339
 100.3370012  99.1744997  45.3809988 100.3810012 100.0344997  44.9629988
  99.8800012  98.6224997  44.7469988 100.2812185  99.2175799  45.2380299
 108.0600012  99.3054997  43.7819988 108.7060012  98.9764997  44.4069988
 108.5700012  99.8234997  43.1589988 108.2174264  99.3304611  43.7833862
  96.9580012 101.5714997  46.1429988  97.6110012 101.0214997  46.5749988
  96.9820012 101.2974997  45.2259988  97.0506683 101.4591466  46.0782123
 102.1140012 103.1214997  45.3579988 102.7300012 102.5954997  45.8679988
 101.5280012 102.4814997  44.9549988 102.1190810 102.9629208  45.3733173
 113.0960012  99.7584997  50.8779988 112.4080012 100.4164997  50.7819988
 113.1120012  99.5614997  51.8139988 113.0038525  99.8220462  50.9914808
  99.1480012  98.0924997  49.4549988  98.9290012  98.6224997  48.6889988
  98.4800012  98.3194997  50.1019988  99.0277600  98.1956906  49.4376379
 106.5170012 107.5924997  42.9989988 106.2210012 107.2704997  42.1479988
 106.1920012 108.4924997  43.0399988 106.4326371 107.6700215  42.8881801
 101.7170012 105.7684997  49.7419988 100.9770012 106.3664997  49.8459988
 102.4310012 106.3224997  49.4269988 101.7122237 105.9252831  49.7136465
 109.8240012  98.5964997  45.7619988 109.6080012  97.8304997  46.2949988
 110.4790012  99.0684997  46.2749988 109.8830632  98.5555889  45.9042861
  98.7410012  99.9844997  47.4069988  99.3550012 100.6174997  47.7809988
  99.2530012  99.5124997  46.7509988  98.8942296 100.0072370  47.3694252
 100.1240012 107.7324997  50.5299988 100.1190012 108.6124997  50.1519988
  99.2710012 107.6494997  50.9549988 100.0079464 107.8416117  50.5357907
  96.2450012 107.4034997  41.3119988  95.9730012 107.6324997  40.4229988
  96.2910012 108.2414997  41.7719988  96.2140094 107.5481213  41.2525697
 109.8700012 109.0254997  48.0239988 108.9290012 109.0834997  48.1859988
 110.1470012 109.9314997  47.8869988 109.7784679 109.1559443  48.0276815
 110.1710012  97.3114997  49.4419988 109.4350012  97.9224997  49.4039988
 110.8540012  97.7264997  48.9149988 110.1626541  97.4511374  49.3655832
 103.1740012  95.3984997  46.9079988 103.0570012  94.4494997  46.8529988
 102.3190012  95.7304997  47.1809988 103.0423733  95.3135409  46.9373897
 108.1220012 110.8064997  44.6499988 108.5480012 110.0994997  44.1649988
 108.4390012 111.6074997  44.2329988 108.2231019 110.8180994  44.5273130
 109.2820012 108.7074997  43.1579988 109.0240012 108.0174997  42.5469988
 109.3530012 108.2644997  44.0039988 109.2562856 108.5532124  43.1886885
 110.9680012 107.2734997  51.6359988 111.1080012 106.6824997  50.8959988
 111.1350012 108.1464997  51.2789988 111.0096778 107.3106426  51.4866965
 105.4410012 104.2354997  41.4079988 104.7290012 104.7704997  41.0559988
 106.1320012 104.2914997  40.7479988 105.4370132 104.3162543  41.2706289
 105.4940012 102.6934997  38.4469988 106.1950012 102.7154997  39.0979988
 105.7970012 102.0654997  37.7909988 105.6307830 102.6116566  38.4473711
 112.8100012 103.6134997  49.7019988 112.1570012 104.3084997  49.7909988
 113.2750012 103.8234997  48.8919988 112.7835390 103.7369425  49.6046883
 108.8460012 104.4454997  42.3599988 108.1140012 104.6734997  42.9329988
 109.2940012 103.7314997  42.8149988 108.8063095 104.3802571  42.4999119
 108.7440012 102.6194997  51.4269988 108.8240012 103.3824997  51.9989988
 108.1420012 102.8984997  50.7369988 108.6735756 102.7617134  51.4120589
 100.4920012 105.0754997  44.2419988 100.1610012 104.7054997  43.4239988
 101.0800012 104.4054997  44.5889988 100.5261873 104.9341156  44.1768102
 101.8580012 108.5034997  46.9239988 101.7640012 107.9254997  46.1669988
 102.5880012 108.1324997  47.4199988 101.9437981 108.3742390  46.8874165
 100.8580012 103.8444997  47.8759988 101.4240012 103.9654997  47.1129988
 101.1770012 104.4814997  48.5149988 100.9785786 103.9471884  47.8580040
 107.1670012 109.3474997  48.6099988 106.9270012 110.0094997  49.2579988
 106.9690012 108.5134997  49.0349988 107.1073808 109.3253134  48.7561524
 101.7380012 108.2434997  52.5929988 101.4270012 109.0254997  53.0479988
 101.0880012 108.0904997  51.9069988 101.6075558 108.3299105  52.5625871
 107.7170012 103.6074997  40.0449988 108.2970012 103.7574997  40.7919988
 108.1310012 104.0784997  39.3219988 107.8522830 103.6916841  40.0494134
  98.6580012 104.4414997  51.8219988  98.7290012 105.0924997  52.5199988
  97.7680012 104.5444997  51.4869988  98.5473117 104.5445936  51.8722700
 105.4440012 110.3444997  43.4799988 105.9180012 110.6394997  44.2579988
 104.8810012 111.0824997  43.2469988 105.4327653 110.4846932  43.5550136
  99.9780012 110.3154997  53.3559988  99.9850012 110.1794997  52.4089988
  99.0620012 110.1974997  53.6079988  99.8551714 110.2809430  53.2604666
 111.4160012  95.3574997  39.8579988 110.5160012  95.4964997  40.1529988
 111.6680012  96.1884997  39.4559988 111.3268702  95.4889074  39.8440205
  99.4820012 104.1454997  41.8319988  99.1900012 104.9134997  41.3409988
  98.8080012 103.4854997  41.6689988  99.3509081 104.1614406  41.7427340
 112.6050012 109.7234997  38.2339988 112.6790012 110.6624997  38.4049988
 113.5110012 109.4184997  38.1779988 112.7375100 109.8106722  38.2498119
  95.5750012 106.5084997  50.6469988  95.0740012 106.4804997  49.8319988
  95.5800012 105.6024997  50.9559988  95.5071526 106.3822278  50.5772872
  95.3250012 109.2884997  47.5309988  96.2710012 109.1444997  47.5119988
  95.2130012 110.0724997  48.0679988  95.4392727 109.3748046  47.6010072
 113.5230012 109.9544997  53.2129988 113.4740012 108.9994997  53.1759988
 112.6960012 110.2224997  53.6139988 113.4044940 109.8598998  53.2621375
 104.5020012 109.5284997  52.0889988 104.5890012 110.3544997  52.5639988
 103.6380012 109.1984997  52.3379988 104.3971964 109.5969878  52.1876549
 104.9160012 113.3004997  41.8949988 104.8410012 113.1794997  40.9489988
 104.9490012 114.2504997  42.0139988 104.9101848 113.4122500  41.7814834
  98.5690012 112.0894997  43.6759988  98.7220012 111.7414997  44.5549988
  97.7190012 111.7334997  43.4209988  98.4748962 111.9936650  43.7618340
 108.0180012 112.4544997  38.8969988 108.3930012 111.7104997  38.4269988
 108.0220012 112.1844997  39.8159988 108.0698915 112.3161486  38.9567824
 107.6870012 112.3804997  41.6469988 106.7510012 112.4804997  41.8249988
 107.9670012 111.6714997  42.2249988 107.5968255 112.2982711  41.7495391
 110.6750012 101.4474997  53.6929988 110.2680012 101.9284997  52.9719988
 110.7160012 100.5424997  53.3849988 110.6248437 101.3909374  53.5526683
  97.8240012 107.8314997  51.6899988  98.0400012 107.4704997  52.5489988
  96.9690012 107.4574997  51.4799988  97.7379292 107.7314111  51.7793386
 100.4430012  96.3014997  47.6849988  99.5810012  96.2144997  47.2779988
 100.4200012  97.1574997  48.1129988 100.3220330  96.4052765  47.6871863
 105.1060012  96.0234997  51.0599988 105.5260012  95.6084997  51.8129988
 104.1730012  95.8454997  51.1769988 105.0373644  95.9425900  51.1789539
 108.4320012  99.7794997  51.9129988 107.9180012  99.6534997  52.7109988
 108.2770012 100.6914997  51.6689988 108.3406852  99.8856132  51.9892158
 109.1950012 104.6404997  37.6749988 109.2370012 104.4174997  36.7449988
 110.0440012 105.0394997  37.8649988 109.3155396 104.6639155  37.5733627
 104.7670012  98.5164997  38.3449988 104.5140012  98.5354997  39.2679988
 104.5110012  97.6444997  38.0439988 104.6977790  98.4012437  38.4306263
 100.5340012 101.2674997  48.7799988  99.8920012 101.2264997  49.4889988
 100.5710012 102.1934997  48.5429988 100.4511324 101.3871559  48.8449824
 100.5310012 101.4884997  43.6919988  99.6380012 101.1474997  43.6339988
 100.9810012 101.1114997  42.9369988 100.4697305 101.3908484  43.5819177
 106.0660012 101.9044997  42.5089988 105.6570012 102.7194997  42.2179988
 106.7870012 101.7644997  41.8949988 106.1074537 101.9972018  42.3861342
 105.1680012 102.0794997  53.9969988 104.6060012 101.3754997  54.3179988
 105.9950012 101.9594997  54.4649988 105.2027095 101.9667883  54.1042330
 107.0710012 101.3504997  45.3229988 106.8760012 101.9554997  44.6079988
 107.2520012 100.5164997  44.8889988 107.0687614 101.3206300  45.1664405
  98.2840012 101.5874997  50.6469988  98.2460012 101.9874997  51.5159988
  97.7930012 100.7704997  50.7379988  98.2124684 101.5318069  50.7781059
 101.6500012  98.9614997  37.4459988 101.2190012  98.5164997  38.1759988
 100.9320012  99.3334997  36.9339988 101.4939438  98.9508940  37.4766799
  94.8920012  98.7034997  44.4979988  95.5230012  98.6744997  45.2169988
  95.3410012  98.2784997  43.7679988  95.0390774  98.6420492  44.4976553
  96.1660012  99.4494997  39.9219988  96.6400012 100.0404997  39.3369988
  95.4490012  99.9804997  40.2689988  96.1339341  99.6020867  39.8888836
 106.3350012 102.9884997  49.9949988 106.6580012 102.3574997  49.3519988
 105.8950012 102.4534997  50.6549988 106.3196895 102.8298441  49.9962850
 103.1120012  98.9154997  44.7789988 102.2010012  98.9724997  45.0669988
 103.6180012  98.8554997  45.5889988 103.0555413  98.9151985  44.9280622
  97.9410012 100.5444997  43.6049988  97.0510012 100.6444997  43.2649988
  98.2370012  99.7024997  43.2589988  97.8592823 100.4443546  43.5117213
 101.5940012 100.5444997  41.2619988 102.5250012 100.6734997  41.4399988
 101.3790012 101.2144997  40.6119988 101.6924247 100.6526565  41.1985747
 107.5170012  98.1504997  48.0429988 106.8410012  98.2814997  48.7069988
 107.0320012  97.9954997  47.2329988 107.3587145  98.1474905  48.0244517
 100.2680012 101.7394997  38.8289988  99.7250012 101.3594997  38.1369988
 101.1010012 101.9334997  38.3999988 100.3064399 101.7138124  38.6764526
 110.8050012 113.8224997  54.3199988 111.0050012 114.2464997  53.4849988
 111.4600012 114.1654997  54.9269988 110.9210051 113.9269648  54.2877836
  98.4030012 106.2964997  53.9279988  99.1350012 106.5504997  54.4889988
  97.6230012 106.5004997  54.4429988  98.3978232 106.3589177  54.0745760
 104.4320012 101.7034997  46.6659988 104.9970012 101.1564997  46.1189988
 104.2850012 101.1814997  47.4539988 104.4892918 101.5582024  46.6978454
  99.4340012  97.8394997  43.0839988  99.1170012  96.9374997  43.0489988
 100.2160012  97.8414997  42.5309988  99.4962284  97.7161628  43.0044783
 103.0590012 100.0914997  49.0799988 102.2230012 100.5454997  49.1899988
 103.5830012 100.3674997  49.8319988 103.0154414 100.1909376  49.1967136
 103.6030012 106.3044997  40.7639988 102.8580012 105.7974997  40.4419988
 103.4690012 106.3534997  41.7109988 103.4828776 106.2416940  40.8478647
 110.7530012 105.4374997  49.5509988 111.3950012 105.8944997  49.0069988
 109.9230012 105.5504997  49.0879988 110.7285963 105.5152704  49.4140177
 107.5010012  99.1184997  38.9639988 106.5620012  99.2304997  38.8119988
 107.7980012  99.9754997  39.2699988 107.4127666  99.2496443  38.9845768
 105.1220012 106.4884997  52.0009988 104.7770012 106.1074997  52.8079988
 104.9220012 107.4224997  52.0729988 105.0478061 106.5625228  52.1210961
 108.2190012 100.9854997  40.6239988 109.1110012 100.8484997  40.9429988
 108.2760012 101.7764997  40.0879988 108.3486285 101.0736660  40.5951690
  98.7280012 105.5994997  46.5339988  99.4730012 105.5974997  45.9329988
  98.8060012 104.7764997  47.0159988  98.8405518 105.4879315  46.5168929
 105.7290012 107.7634997  39.7899988 105.4330012 108.5894997  40.1709988
 105.0260012 107.1434997  39.9859988 105.5934914 107.7928199  39.8686443
  95.7360012 104.0604997  51.8489988  95.9590012 103.6424997  52.6809988
  95.1340012 103.4474997  51.4259988  95.6851759 103.9204668  51.9057022
 102.7520012 103.5774997  54.0619988 102.4560012 103.4114997  53.1669988
 103.6840012 103.3574997  54.0509988 102.8374166 103.5250640  53.9380536
 107.3730012 108.9504997  51.9519988 106.4720012 109.1334997  51.6839988
 107.4070012 109.2094997  52.8729988 107.2543041 109.0105512  52.0398197
 113.1040012 101.1954997  40.3189988 112.5500012 100.7994997  39.6469988
 113.2040012 102.1054997  40.0409988 113.0417059 101.2643586  40.1894401
 113.0670012 106.9954997  53.1559988 112.2160012 107.2334997  52.7889988
 113.6580012 106.9784997  52.4029988 113.0302487 107.0258258  53.0038893
 111.3990012 109.9814997  40.7839988 111.0260012 109.1554997  41.0929988
 111.6770012 109.7984997  39.8869988 111.3855630 109.8437303  40.7049626
 108.5600012 104.7894997  47.8049988 107.6310012 104.5574997  47.7779988
 109.0110012 104.0124997  47.4749988 108.4939216 104.6527238  47.7566917
 101.1030012 109.1174997  43.9379988 101.6300012 109.8904997  43.7379988
 100.2230012 109.3424997  43.6369988 101.0561773 109.2538005  43.8699010
  96.8580012 103.9794997  38.5249988  97.4740012 104.6064997  38.9049988
  95.9960012 104.2954997  38.7969988  96.8257698 104.1079430  38.6137183
 102.5300012 106.7804997  43.5149988 102.2890012 107.7054997  43.5559988
 101.7890012 106.3214997  43.9109988 102.3968409 106.8451421  43.5741377
 103.0450012 110.9294997  49.8299988 103.4070012 111.7844997  49.5959988
 103.5760012 110.6374997  50.5699988 103.1664473 111.0071060  49.8980855
 101.2130012 111.8024997  43.0599988 100.2630012 111.9074997  43.1109988
 101.5650012 112.6224997  43.4049988 101.1304203 111.9278314  43.1136650
 106.5890012 107.0284997  49.5299988 106.1630012 106.8014997  50.3569988
 107.1690012 106.2904997  49.3479988 106.6091868 106.8975299  49.6185830
 108.7920012 107.9574997  38.6039988 109.1450012 107.5774997  39.4089988
 107.8430012 107.8644997  38.6909988 108.7120441 107.8929596  38.7258559
 109.2470012 111.5804997  51.9999988 108.6460012 111.0254997  51.5039988
 109.5290012 112.2474997  51.3739988 109.2028519 111.5946841  51.8474952
 113.2950012 112.4374997  38.8049988 114.0390012 113.0234997  38.6649988
 112.6010012 113.0054997  39.1389988 113.3030292 112.5945582  38.8309961
  97.3700012  98.8134997  51.4069988  96.4770012  99.1524997  51.3389988
  97.2710012  97.9584997  51.8249988  97.2344164  98.7442588  51.4542235
 109.6580012 106.6304997  40.8309988 109.3800012 105.9024997  41.3869988
 110.5850012 106.7494997  41.0359988 109.7453124 106.5468802  40.9348845
  97.0210012 110.6184997  49.8419988  97.2380012 109.6864997  49.8109988
  97.2670012 110.8924997  50.7249988  97.0839549 110.5280636  49.9571763
 102.8830012 109.0694997  37.0509988 103.1220012 108.3214997  36.5039988
 102.6140012 108.6814997  37.8839988 102.8793675 108.9146638  37.0886865
 101.8200012 108.6394997  39.5079988 101.9660012 108.1194997  40.2979988
 101.8170012 109.5464997  39.8139988 101.8395989 108.6908853  39.6576088
  98.2730012 105.8924997  40.0179988  97.5870012 106.2444997  40.5849988
  98.7950012 106.6554997  39.7709988  98.2496852 106.0438578  40.0622118
 106.1040012  98.5544997  50.2969988 106.8030012  98.6284997  50.9469988
 105.7230012  97.6904997  50.4509988 106.1481767  98.4477624  50.4068322
 106.8890012  98.2064997  41.3939988 107.1090012  98.6784997  40.5909988
 107.4470012  98.6014997  42.0639988 106.9944968  98.3244285  41.3747331
 104.5570012 110.3374997  40.2569988 103.7410012 110.8344997  40.3089988
 105.0870012 110.8124997  39.6169988 104.5169161 110.4697722  40.1775956
 104.0890012  99.9344997  42.2289988 104.9010012 100.4394997  42.2749988
 103.8440012  99.7894997  43.1429988 104.1670520  99.9840375  42.3588517
 104.6240012 100.9204997  51.4139988 104.7430012 101.4944997  52.1709988
 105.2800012 100.2324997  51.5279988 104.7289757 100.9061079  51.5330825
 104.9720012  97.0154997  43.1669988 104.6260012  97.6334997  43.8119988
 105.6310012  97.5164997  42.6859988 105.0137826  97.1675802  43.1900971
 101.8960012 111.3814997  40.2389988 102.0560012 112.1804997  39.7379988
 101.6980012 111.6874997  41.1239988 101.8911649 111.5324469  40.2899815
 100.6300012  98.0784997  39.8539988 100.5470012  98.9674997  40.2009988
 101.5200012  97.8134997  40.0859988 100.7389469  98.1641430  39.9327626
 110.8290012  98.8274997  52.2489988 109.9120012  99.0904997  52.1609988
 111.1640012  98.8244997  51.3519988 110.7489900  98.8630224  52.1157919
 109.4310012 102.5784997  46.3439988 108.6330012 102.1634997  46.0159988
 109.8760012 101.8874997  46.8349988 109.3819885 102.4283543  46.3654889
  98.8890012 108.5064997  38.9149988  99.4810012 109.2054997  39.1909988
  99.3480012 108.0734997  38.1949988  99.0321142 108.5437049  38.8554830
  97.2050012 101.1704997  38.0309988  97.1600012 102.1094997  38.2089988
  96.3170012 100.9344997  37.7609988  97.0788574 101.2671892  38.0188912
 110.5170012 111.8344997  47.9669988 110.3620012 112.5124997  47.3099988
 111.4500012 111.9064997  48.1699988 110.6218500 111.9370170  47.9045119
  98.0130012  95.9524997  46.7039988  97.7840012  96.0114997  45.7759988
  97.5700012  95.1604997  47.0099988  97.9218530  95.8535753  46.6184786
  96.9430012 109.8924997  42.8639988  96.1110012 110.3654997  42.8919988
  97.4890012 110.4024997  42.2659988  96.9029739 110.0261871  42.7869716
  96.2310012 112.5054997  54.1939988  96.7720012 112.2884997  54.9539988
  95.7500012 111.6994997  54.0049988  96.2399345 112.3669514  54.2723076
 100.8290012 111.4244997  55.8149988 101.5960012 110.9654997  56.1559988
 100.8070012 111.1984997  54.8849988 100.9311434 111.3310409  55.7360043
 104.9210012 110.9324997  37.1899988 104.2770012 110.3014997  37.5109988
 105.6830012 110.4014997  36.9579988 104.9358077 110.7742920  37.2026011
 107.4060012 109.8044997  54.5439988 107.0550012 108.9484997  54.7869988
 108.1320012 109.9474997  55.1509988 107.4560769 109.7065636  54.6593619
 109.5250012 110.7494997  37.4239988 109.8080012 109.9554997  37.8759988
 110.2650012 110.9824997  36.8629988 109.6637486 110.6722803  37.4100698
  96.1380012 106.3154997  55.1489988  96.2820012 105.4134997  54.8619988
  95.3660012 106.6014997  54.6609988  96.0533323 106.2308261  55.0437881
 100.4800012 106.6594997  37.2809988 100.5440012 105.8654997  37.8119988
 101.1330012 106.5404997  36.5909988 100.5770241 106.5347148  37.2604317
 102.7940012 106.2854997  54.5809988 102.4650012 106.5564997  53.7239988
 102.9460012 105.3444997  54.4939988 102.7694809 106.1953862  54.4518244
 105.8320012 107.7064997  37.0169988 105.5630012 107.8864997  37.9179988
 105.6260012 106.7804997  36.8859988 105.7673825 107.6060152  37.1225214
 108.5280012 106.2014997  51.9649988 109.2740012 106.7894997  51.8449988
 107.7710012 106.7834997  52.0279988 108.5277554 106.3607011  51.9570907
  96.9710012 103.5154997  54.5689988  97.3790012 102.6584997  54.4479988
  96.7110012 103.5304997  55.4899988  96.9917568 103.4000807  54.6769588
 101.6290012 104.6314997  39.5869988 101.1690012 104.1474997  40.2729988
 101.8840012 103.9634997  38.9509988 101.6004902 104.4748731  39.5949334
 100.9180012 102.5244997  51.9429988 100.3000012 103.1994997  52.2229988
 101.2620012 102.8454997  51.1099988 100.8799615 102.6602721  51.8686581
 102.7000012 102.8744997  37.8489988 102.5200012 102.7204997  36.9219988
 103.6500012 102.9824997  37.8939988 102.8037776 102.8680175  37.7281843
 105.9380012 104.9964997  55.2199988 106.8910012 105.0794997  55.1929988
 105.7770012 104.2844997  55.8399988 106.0466426 104.9116746  55.3000579
 112.0900012 105.2294997  37.2949988 111.8160012 104.8044997  36.4819988
 112.1290012 106.1604997  37.0779988 112.0577699 105.2972484  37.1543610
 101.2570012  99.8794997  53.0249988 101.4070012  99.1504997  52.4229988
 101.2600012 100.6564997  52.4659988 101.2779302  99.8847851  52.8670692
 101.6700012  98.2494997  50.5179988 102.2060012  98.7004997  49.8659988
 100.8180012  98.1414997  50.0949988 101.6282178  98.2966390  50.3715756
 103.2520012 103.6884997  50.7569988 104.0020012 103.5324997  50.1839988
 102.9130012 104.5404997  50.4819988 103.3088921 103.7822968  50.6413561
 107.6670012 101.5034997  55.7859988 107.8600012 100.5724997  55.6739988
 108.5250012 101.9284997  55.7759988 107.8093020 101.4336389  55.7693361
 108.9840012 104.2924997  53.8629988 108.7030012 105.0014997  53.2859988
 109.9270012 104.2194997  53.7119988 109.0729027 104.3797646  53.7635551
  99.7360012 101.0774997  54.9369988  98.9690012 100.5454997  54.7269988
 100.4150012 100.7674997  54.3369988  99.7227022 100.9627506  54.8271648
 102.4760012  95.7054997  50.9489988 102.3770012  96.6524997  50.8439988
 101.7330012  95.3334997  50.4739988 102.3620563  95.7845902  50.8704560
 103.7400012 100.0274997  54.5129988 103.5040012  99.8074997  55.4149988
 102.9560012  99.8204997  54.0029988 103.6018628  99.9694760  54.5673932
 106.4550012  99.1544997  53.5889988 105.5080012  99.1864997  53.7209988
 106.7680012  98.5294997  54.2419988 106.3675475  99.0743207  53.6954455
 108.0890012  97.7884997  55.5939988 107.9930012  96.8364997  55.5879988
 107.7680012  98.0574997  56.4539988 108.0324070  97.6944035  55.7095441
  97.9160012  98.9984997  54.6409988  98.1280012  98.2914997  54.0309988
  97.8050012  98.5604997  55.4849988  97.9299721  98.8427084  54.6716843
 102.6970012  94.9994997  53.6209988 103.4090012  94.3594997  53.6069988
 102.5960012  95.2664997  52.7069988 102.7807939  94.9479938  53.4955650
 103.0510012  96.6824997  55.6739988 102.9190012  96.2064997  54.8539988
 102.4520012  97.4264997  55.6189988 102.9519071  96.7179618  55.5542886
 102.5970012 113.5654997  38.8509988 103.5300012 113.7234997  38.9939988
 102.3330012 114.2404997  38.2259988 102.6889510 113.6783611  38.7860741
  96.1660012 108.2014997  38.3329988  97.0800012 108.2804997  38.6069988
  96.1730012 107.5144997  37.6669988  96.2921131 108.1193961  38.2804393
  94.8150012 113.5944997  43.4109988  94.1680012 113.1324997  42.8779988
  95.1690012 112.9224997  43.9929988  94.7743849 113.4404723  43.4167959
  95.6850012 111.6754997  45.2149988  95.3500012 110.7954997  45.3869988
  95.9070012 112.0204997  46.0799988  95.6691783 111.6017500  45.3554208
 113.2330012 112.4844997  48.1959988 113.2120012 112.6694997  49.1349988
 113.9240012 113.0534997  47.8549988 113.3234618 112.5866606  48.2783864
 112.7970012 112.0524997  51.1179988 112.3090012 111.3164997  50.7469988
 113.3460012 111.6584997  51.7959988 112.8044872 111.8986249  51.1589160
 111.2470012 107.8414997  55.7559988 110.3810012 107.7364997  56.1499988
 111.6240012 108.6004997  56.2019988 111.1793308 107.9296900  55.8702393
 112.5480012 106.0984997  41.2699988 113.3980012 106.5194997  41.3969988
 112.5540012 105.3584997  41.8769988 112.6651372 106.0560803  41.3694344
 112.9430012 104.1514997  43.0939988 112.2160012 103.6724997  43.4909988
 113.5240012 104.3574997  43.8259988 112.9219375 104.1137090  43.2474129
 112.7020012 106.9364997  48.0409988 113.5350012 106.5584997  47.7609988
 112.8140012 107.8794997  47.9219988 112.8312647 107.0122218  47.9865487
 111.1880012 109.8144997  50.3479988 110.5410012 110.1394997  50.9739988
 110.6710012 109.3744997  49.6739988 111.0294029 109.7995004  50.3425827
 113.2110012 104.0524997  39.4849988 112.6890012 104.4094997  38.7659988
 113.1780012 104.7274997  40.1629988 113.1351634 104.1925413  39.4783145
 111.5600012 101.2924997  38.0359988 111.6560012 101.9594997  37.3549988
 111.4200012 100.4764997  37.5539988 111.5542135 101.2734500  37.8778491
 110.7290012 102.6724997  43.6569988 110.5790012 101.7274997  43.6359988
 110.3760012 102.9534997  44.4999988 110.6606625 102.5810441  43.7682346
  95.7650012 104.7504997  47.6669988  95.9490012 104.6684997  46.7309988
  96.6140012 104.6264997  48.0909988  95.9050139 104.7225003  47.5961455
 111.5860012 104.6424997  53.2949988 112.1690012 103.9084997  53.4869988
 112.1500012 105.4144997  53.3419988 111.7419769 104.6464227  53.3276159
 113.0820012 102.5454997  53.9799988 112.2190012 102.1664997  53.8139988
 113.6870012 101.8064997  53.9059988 113.0455979 102.3938023  53.9472817
 110.8070012  98.7004997  37.1529988 111.4180012  98.3294997  37.7899988
 109.9710012  98.2794997  37.3489988 110.7775032  98.5927554  37.2667035
 110.4400012 100.2554997  42.1189988 110.7200012  99.3484997  42.2429988
 111.1990012 100.6894997  41.7299988 110.5809277 100.1900942  42.0833682
 111.0520012 100.8364997  47.5549988 111.9850012 101.0484997  47.5209988
 110.8170012 100.9384997  48.4769988 111.1478036 100.8792769  47.6749976
 111.0810012 101.5734997  50.3309988 110.2380012 101.8414997  50.6969988
 111.5230012 102.3954997  50.1199988 111.0254158 101.7213291  50.3525491
  95.3620012 100.0214997  53.8079988  96.2820012  99.8994997  54.0439988
  94.9130012  99.2714997  54.1969988  95.4271580  99.9033727  53.8929006
 113.3640012  95.5534997  55.6839988 113.7140012  94.8994997  55.0789988
 113.5110012  96.3904997  55.2449988 113.4318419  95.5771591  55.5417118
 111.0530012  97.5184997  42.1669988 111.2360012  97.0694997  42.9929988
 110.4540012  96.9334997  41.7039988 110.9970202  97.3779975  42.2173275
  96.5830012  98.3334997  46.6989988  97.0290012  97.5414997  47.0009988
  97.0500012  99.0494997  47.1299988  96.7070172  98.3220624  46.7984820
  94.8870012 101.3324997  47.7679988  95.3790012 101.1114997  46.9769988
  95.2500012 102.1734997  48.0489988  95.0033126 101.4158357  47.6977531
 112.8840012  97.6624997  54.0339988 111.9660012  97.9334997  53.9979988
 113.0070012  97.1274997  53.2489988 112.7751066  97.6272892  53.9230487
 112.9200012  97.5854997  38.6949988 113.3320012  96.8644997  38.2199988
 113.6020012  98.2554997  38.7539988 113.0685885  97.5772368  38.6378915
  95.2010012  97.5904997  41.8219988  94.2760012  97.7994997  41.6929988
  95.6550012  98.0744997  41.1329988  95.1357368  97.6845993  41.7111226
 109.9720012 112.5744997  43.7679988 110.6240012 112.2274997  43.1599988
 110.4820012 113.0634997  44.4139988 110.1302637 112.5930597  43.7720236
  95.1650012  96.3284997  50.1669988  94.5000012  96.0824997  50.8099988
  94.7220012  96.9504997  49.5889988  95.0140956  96.3788632  50.1769352
  97.3570012 109.5034997  54.3109988  96.5360012 109.6784997  53.8509988
  97.1040012 109.4304997  55.2319988  97.2106164 109.5175622  54.3724923
 100.3110012 110.4784997  50.5699988  99.8860012 111.2874997  50.2869988
 101.2150012 110.5634997  50.2679988 100.3750271 110.6008469  50.4903776
 104.6220012 111.8774997  53.5289988 104.8070012 111.5434997  54.4069988
 105.4680012 112.1864997  53.2069988 104.7617539 111.8736047  53.6055605
 106.9670012 113.1634997  52.7729988 107.6440012 112.5304997  52.5329988
 107.2890012 113.5644997  53.5799988 107.1031637 113.1311154  52.8492793
 111.8840012  95.7524997  51.8529988 111.0720012  96.0774997  51.4649988
 112.1170012  94.9924997  51.3199988 111.8043423  95.6942436  51.7278253
  97.7130012 113.7344997  50.6169988  96.9920012 114.1744997  50.1659988
  97.3470012 113.4834997  51.4659988  97.5649804 113.7607698  50.6699840
 100.1800012 113.3344997  49.6469988  99.3150012 113.4064997  50.0509988
 100.1250012 113.8814997  48.8629988 100.0542085 113.4182685  49.5963362
 104.8900012 113.2224997  48.8219988 104.4340012 113.7514997  48.1679988
 105.0530012 113.8254997  49.5479988 104.8495585 113.3764468  48.8305062
 107.2180012 112.1004997  49.7669988 106.3130012 112.2654997  49.5019988
 107.6470012 112.9534997  49.7019988 107.1520799 112.2384483  49.7219182
 109.8220012 113.6704997  50.0619988 109.6400012 114.5864997  49.8519988
 109.9990012 113.2604997  49.2159988 109.8210210 113.7404822  49.9187885
  97.1270012 112.3574997  47.5269988  97.1090012 111.9324997  48.3849988
  97.9320012 112.0394997  47.1189988  97.2333875 112.2563812  47.5891655
  99.2690012 111.0674997  46.1819988  99.0500012 110.1514997  46.3519988
 100.0930012 111.2074997  46.6479988  99.3504420 110.9610520  46.2682774
 101.8060012 111.5374997  47.0309988 102.0190012 110.6494997  46.7439988
 101.8700012 111.5034997  47.9849988 101.8438231 111.4113102  47.1207397
 105.3140012  97.2014997  46.1749988 104.6400012  96.5724997  46.4309988
 105.8780012  96.7174997  45.5719988 105.2979230  97.0498744  46.1285340
 110.4570012  95.3094997  46.2879988 111.0610012  95.8564997  45.7859988
 109.5870012  95.6284997  46.0479988 110.4221241  95.4275806  46.1867654
 112.1840012  96.4474997  44.6209988 112.7960012  95.9334997  44.0949988
 112.5660012  97.3254997  44.6449988 112.3194540  96.4957140  44.5521830
  97.6410012  95.8354997  43.9969988  96.8640012  95.6014997  43.4899988
  98.1710012  95.0384997  44.0059988  97.6062330  95.6956988  43.9287742
  96.4770012  95.6334997  39.8009988  96.9160012  96.2444997  39.2089988
  95.8440012  96.1714997  40.2749988  96.4514514  95.7899257  39.7840930
 102.2200012  95.7624997  43.8109988 103.0950012  96.1504997  43.7809988
 102.0840012  95.5474997  44.7329988 102.3213695  95.7865184  43.9316440
 107.7770012  95.7924997  45.4599988 107.8530012  95.8874997  44.5099988
 107.5020012  94.8844997  45.5889988 107.7502321  95.6827867  45.3475079
 109.1300012  95.8184997  41.1519988 108.4280012  96.4334997  40.9429988
 108.6860012  94.9804997  41.2829988 108.9736330  95.7895783  41.1410328
  96.3780012 111.5814997  40.6989988  95.6930012 111.5434997  40.0309988
  96.3820012 112.4944997  40.9869988  96.2848193 111.6997016  40.6465284
  98.3380012  97.5494997  38.2429988  98.8300012  96.9194997  37.7159988
  98.9620012  97.8454997  38.9069988  98.4895446  97.5033199  38.2605980
 103.3640012  97.8424997  40.6999988 103.5420012  97.1964997  41.3829988
 103.3110012  98.6764997  41.1679988 103.3811829  97.8667985  40.8565940
 105.2430012 112.7914997  39.0959988 106.1090012 113.1574997  38.9179988
 104.9960012 112.3514997  38.2819988 105.3282392 112.7821756  38.9616289
 111.9520012 112.3544997  41.7749988 111.7570012 111.6064997  41.2099988
 111.9130012 113.1124997  41.1919988 111.9200380 112.3546099  41.6188384
  97.5990012  96.3494997  53.5149988  97.2330012  95.5844997  53.9579988
  98.5120012  96.3784997  53.8019988  97.6722790  96.2487224  53.6144070
  99.5720012  95.7004997  55.0509988 100.4700012  95.4264997  54.8659988
  99.1850012  94.9574997  55.5149988  99.6426612  95.5625914  55.0883643
  98.1960012 112.5014997  37.7239988  97.9290012 112.7884997  38.5969988
  98.9680012 111.9554997  37.8759988  98.2637488 112.4670294  37.8641050
 107.9930012  95.0324997  55.2329988 108.0700012  94.6064997  56.0869988
 108.8870012  95.0464997  54.8899988 108.1243428  94.9760880  55.3035310
 111.1690012 111.1054997  53.9249988 110.3870012 110.9194997  53.4059988
 111.0970012 112.0344997  54.1429988 111.0521777 111.2056492  53.8834048
 125.5750012 104.9914997  43.9559988 125.6640012 105.9354997  43.8239988
 124.9370012 104.7164997  43.2979988 125.5009081 105.0834830  43.8489614
 124.5080012 104.2464997  47.3749988 124.4700012 103.6004997  48.0799988
 124.1860012 103.7804997  46.6039988 124.4592333 104.0949408  47.3672978
 116.8770012 103.8614997  48.9679988 116.9180012 103.2354997  49.6909988
 117.5800012 104.4854997  49.1499988 116.9776363 103.8601196  49.0916044
 128.2140012 107.1854997  45.6759988 127.7740012 106.4654997  46.1269988
 128.2010012 107.9064997  46.3059988 128.1520226 107.1843731  45.8228494
 117.8000012 108.3114997  47.5029988 117.4310012 107.5094997  47.1329988
 118.7410012 108.1424997  47.5489988 117.8767289 108.1790153  47.4586316
 114.4100012 101.9714997  42.8959988 113.9630012 102.8174997  42.8769988
 113.8490012 101.3914997  42.3799988 114.2729900 102.0089916  42.8236801
 115.1210012 104.1334997  45.0219988 115.3340012 103.3634997  45.5489988
 115.8590012 104.2224997  44.4179988 115.2498496 104.0401394  45.0125300
 125.3260012 112.2904997  45.8889988 125.9460012 111.6134997  45.6149988
 125.1180012 112.0724997  46.7969988 125.3826904 112.1683870  45.9743365
 122.8980012 106.6794997  47.7809988 123.2020012 105.9934997  47.1859988
 123.6190012 106.7974997  48.3989988 123.0370671 106.6016305  47.7831816
 131.5610012  98.2804997  48.6419988 131.6100012  98.8904997  49.3779988
 131.9860012  98.7414997  47.9189988 131.6251824  98.4263741  48.6450205
 126.0390012 101.0734997  48.1089988 126.1810012 100.1274997  48.1289988
 125.9320012 101.2804997  47.1799988 126.0439864 100.9719534  47.9862339
 119.1930012  99.1744997  45.3809988 119.2370012 100.0344997  44.9629988
 118.7360012  98.6224997  44.7469988 119.1372185  99.2175799  45.2380299
 126.9160012  99.3054997  43.7819988 127.5620012  98.9764997  44.4069988
 127.4260012  99.8234997  43.1589988 127.0734264  99.3304611  43.7833862
 115.8140012 101.5714997  46.1429988 116.4670012 101.0214997  46.5749988
 115.8380012 101.2974997  45.2259988 115.9066683 101.4591466  46.0782123
 120.9700012 103.1214997  45.3579988 121.5860012 102.5954997  45.8679988
 120.3840012 102.4814997  44.9549988 120.9750810 102.9629208  45.3733173
 131.9520012  99.7584997  50.8779988 131.2640012 100.4164997  50.7819988
 131.9680012  99.5614997  51.8139988 131.8598525  99.8220462  50.9914808
 118.0040012  98.0924997  49.4549988 117.7850012  98.6224997  48.6889988
 117.3360012  98.3194997  50.1019988 117.8837600  98.1956906  49.4376379
 125.3730012 107.5924997  42.9989988 125.0770012 107.2704997  42.1479988
 125.0480012 108.4924997  43.0399988 125.2886371 107.6700215  42.8881801
 120.5730012 105.7684997  49.7419988 119.8330012 106.3664997  49.8459988
 121.2870012 106.3224997  49.4269988 120.5682237 105.9252831  49.7136465
 128.6800012  98.5964997  45.7619988 128.4640012  97.8304997  46.2949988
 129.3350012  99.0684997  46.2749988 128.7390632  98.5555889  45.9042861
 117.5970012  99.9844997  47.4069988 118.2110012 100.6174997  47.7809988
 118.1090012  99.5124997  46.7509988 117.7502296 100.0072370  47.3694252
 118.9800012 107.7324997  50.5299988 118.9750012 108.6124997  50.1519988
 118.1270012 107.6494997  50.9549988 118.8639464 107.8416117  50.5357907
 115.1010012 107.4034997  41.3119988 114.8290012 107.6324997  40.4229988
 115.1470012 108.2414997  41.7719988 115.0700094 107.5481213  41.2525697
 128.7260012 109.0254997  48.0239988 127.7850012 109.0834997  48.1859988
 129.0030012 109.9314997  47.8869988 128.6344679 109.1559443  48.0276815
 129.0270012  97.3114997  49.4419988 128.2910012  97.9224997  49.4039988
 129.7100012  97.7264997  48.9149988 129.0186541  97.4511374  49.3655832
 122.0300012  95.3984997  46.9079988 121.9130012  94.4494997  46.8529988
 121.1750012  95.7304997  47.1809988 121.8983733  95.3135409  46.9373897
 126.9780012 110.8064997  44.6499988 127.4040012 110.0994997  44.1649988
 127.2950012 111.6074997  44.2329988 127.0791019 110.8180994  44.5273130
 128.1380012 108.7074997  43.1579988 127.8800012 108.0174997  42.5469988
 128.2090012 108.2644997  44.0039988 128.1122856 108.5532124  43.1886885
 129.8240012 107.2734997  51.6359988 129.9640012 106.6824997  50.8959988
 129.9910012 108.1464997  51.2789988 129.8656778 107.3106426  51.4866965
 124.2970012 104.2354997  41.4079988 123.5850012 104.7704997  41.0559988
 124.9880012 104.2914997  40.7479988 124.2930132 104.3162543  41.2706289
 124.3500012 102.6934997  38.4469988 125.0510012 102.7154997  39.0979988
 124.6530012 102.0654997  37.7909988 124.4867830 102.6116566  38.4473711
 131.6660012 103.6134997  49.7019988 131.0130012 104.3084997  49.7909988
 132.1310012 103.8234997  48.8919988 131.6395390 103.7369425  49.6046883
 127.7020012 104.4454997  42.3599988 126.9700012 104.6734997  42.9329988
 128.1500012 103.7314997  42.8149988 127.6623095 104.3802571  42.4999119
 127.6000012 102.6194997  51.4269988 127.6800012 103.3824997  51.9989988
 126.9980012 102.8984997  50.7369988 127.5295756 102.7617134  51.4120589
 119.3480012 105.0754997  44.2419988 119.0170012 104.7054997  43.4239988
 119.9360012 104.4054997  44.5889988 119.3821873 104.9341156  44.1768102
 120.7140012 108.5034997  46.9239988 120.6200012 107.9254997  46.1669988
 121.4440012 108.1324997  47.4199988 120.7997981 108.3742390  46.8874165
 119.7140012 103.8444997  47.8759988 120.2800012 103.9654997  47.1129988
 120.0330012 104.4814997  48.5149988 119.8345786 103.9471884  47.8580040
 126.0230012 109.3474997  48.6099988 125.7830012 110.0094997  49.2579988
 125.8250012 108.5134997  49.0349988 125.9633808 109.3253134  48.7561524
 120.5940012 108.2434997  52.5929988 120.2830012 109.0254997  53.0479988
 119.9440012 108.0904997  51.9069988 120.4635558 108.3299105  52.5625871
 126.5730012 103.6074997  40.0449988 127.1530012 103.7574997  40.7919988
 126.9870012 104.0784997  39.3219988 126.7082830 103.6916841  40.0494134
 117.5140012 104.4414997  51.8219988 117.5850012 105.0924997  52.5199988
 116.6240012 104.5444997  51.4869988 117.4033117 104.5445936  51.8722700
 124.3000012 110.3444997  43.4799988 124.7740012 110.6394997  44.2579988
 123.7370012 111.0824997  43.2469988 124.2887653 110.4846932  43.5550136
 118.8340012 110.3154997  53.3559988 118.8410012 110.1794997  52.4089988
 117.9180012 110.1974997  53.6079988 118.7111714 110.2809430  53.2604666
 130.2720012  95.3574997  39.8579988 129.3720012  95.4964997  40.1529988
 130.5240012  96.1884997  39.4559988 130.1828702  95.4889074  39.8440205
 118.3380012 104.1454997  41.8319988 118.0460012 104.9134997  41.3409988
 117.6640012 103.4854997  41.6689988 118.2069081 104.1614406  41.7427340
 131.4610012 109.7234997  38.2339988 131.5350012 110.6624997  38.4049988
 132.3670012 109.4184997  38.1779988 131.5935100 109.8106722  38.2498119
 114.4310012 106.5084997  50.6469988 113.9300012 106.4804997  49.8319988
 114.4360012 105.6024997  50.9559988 114.3631526 106.3822278  50.5772872
 114.1810012 109.2884997  47.5309988 115.1270012 109.1444997  47.5119988
 114.0690012 110.0724997  48.0679988 114.2952727 109.3748046  47.6010072
 132.3790012 109.9544997  53.2129988 132.3300012 108.9994997  53.1759988
 131.5520012 110.2224997  53.6139988 132.2604940 109.8598998  53.2621375
 123.3580012 109.5284997  52.0889988 123.4450012 110.3544997  52.5639988
 122.4940012 109.1984997  52.3379988 123.2531964 109.5969878  52.1876549
 123.7720012 113.3004997  41.8949988 123.6970012 113.1794997  40.9489988
 123.8050012 114.2504997  42.0139988 123.7661848 113.4122500  41.7814834
 117.4250012 112.0894997  43.6759988 117.5780012 111.7414997  44.5549988
 116.5750012 111.7334997  43.4209988 117.3308962 111.9936650  43.7618340
 126.8740012 112.4544997  38.8969988 127.2490012 111.7104997  38.4269988
 126.8780012 112.1844997  39.8159988 126.9258915 112.3161486  38.9567824
 126.5430012 112.3804997  41.6469988 125.6070012 112.4804997  41.8249988
 126.8230012 111.6714997  42.2249988 126.4528255 112.2982711  41.7495391
 129.5310012 101.4474997  53.6929988 129.1240012 101.9284997  52.9719988
 129.5720012 100.5424997  53.3849988 129.4808437 101.3909374  53.5526683
 116.6800012 107.8314997  51.6899988 116.8960012 107.4704997  52.5489988
 115.8250012 107.4574997  51.4799988 116.5939292 107.7314111  51.7793386
 119.2990012  96.3014997  47.6849988 118.4370012  96.2144997  47.2779988
 119.2760012  97.1574997  48.1129988 119.1780330  96.4052765  47.6871863
 123.9620012  96.0234997  51.0599988 124.3820012  95.6084997  51.8129988
 123.0290012  95.8454997  51.1769988 123.8933644  95.9425900  51.1789539
 127.2880012  99.7794997  51.9129988 126.7740012  99.6534997  52.7109988
 127.1330012 100.6914997  51.6689988 127.1966852  99.8856132  51.9892158
 128.0510012 104.6404997  37.6749988 128.0930012 104.4174997  36.7449988
 128.9000012 105.0394997  37.8649988 128.1715396 104.6639155  37.5733627
 123.6230012  98.5164997  38.3449988 123.3700012  98.5354997  39.2679988
 123.3670012  97.6444997  38.0439988 123.5537790  98.4012437  38.4306263
 119.3900012 101.2674997  48.7799988 118.7480012 101.2264997  49.4889988
 119.4270012 102.1934997  48.5429988 119.3071324 101.3871559  48.8449824
 119.3870012 101.4884997  43.6919988 118.4940012 101.1474997  43.6339988
 119.8370012 101.1114997  42.9369988 119.3257305 101.3908484  43.5819177
 124.9220012 101.9044997  42.5089988 124.5130012 102.7194997  42.2179988
 125.6430012 101.7644997  41.8949988 124.9634537 101.9972018  42.3861342
 124.0240012 102.0794997  53.9969988 123.4620012 101.3754997  54.3179988
 124.8510012 101.9594997  54.4649988 124.0587095 101.9667883  54.1042330
 125.9270012 101.3504997  45.3229988 125.7320012 101.9554997  44.6079988
 126.1080012 100.5164997  44.8889988 125.9247614 101.3206300  45.1664405
 117.1400012 101.5874997  50.6469988 117.1020012 101.9874997  51.5159988
 116.6490012 100.7704997  50.7379988 117.0684684 101.5318069  50.7781059
 120.5060012  98.9614997  37.4459988 120.0750012  98.5164997  38.1759988
 119.7880012  99.3334997  36.9339988 120.3499438  98.9508940  37.4766799
 113.7480012  98.7034997  44.4979988 114.3790012  98.6744997  45.2169988
 114.1970012  98.2784997  43.7679988 113.8950774  98.6420492  44.4976553
 115.0220012  99.4494997  39.9219988 115.4960012 100.0404997  39.3369988
 114.3050012  99.9804997  40.2689988 114.9899341  99.6020867  39.8888836
 125.1910012 102.9884997  49.9949988 125.5140012 102.3574997  49.3519988
 124.7510012 102.4534997  50.6549988 125.1756895 102.8298441  49.9962850
 121.9680012  98.9154997  44.7789988 121.0570012  98.9724997  45.0669988
 122.4740012  98.8554997  45.5889988 121.9115413  98.9151985  44.9280622
 116.7970012 100.5444997  43.6049988 115.9070012 100.6444997  43.2649988
 117.0930012  99.7024997  43.2589988 116.7152823 100.4443546  43.5117213
 120.4500012 100.5444997  41.2619988 121.3810012 100.6734997  41.4399988
 120.2350012 101.2144997  40.6119988 120.5484247 100.6526565  41.1985747
 126.3730012  98.1504997  48.0429988 125.6970012  98.2814997  48.7069988
 125.8880012  97.9954997  47.2329988 126.2147145  98.1474905  48.0244517
 119.1240012 101.7394997  38.8289988 118.5810012 101.3594997  38.1369988
 119.9570012 101.9334997  38.3999988 119.1624399 101.7138124  38.6764526
 129.6610012 113.8224997  54.3199988 129.8610012 114.2464997  53.4849988
 130.3160012 114.1654997  54.9269988 129.7770051 113.9269648  54.2877836
 117.2590012 106.2964997  53.9279988 117.9910012 106.5504997  54.4889988
 116.4790012 106.5004997  54.4429988 117.2538232 106.3589177  54.0745760
 123.2880012 101.7034997  46.6659988 123.8530012 101.1564997  46.1189988
 123.1410012 101.1814997  47.4539988 123.3452918 101.5582024  46.6978454
 118.2900012  97.8394997  43.0839988 117.9730012  96.9374997  43.0489988
 119.0720012  97.8414997  42.5309988 118.3522284  97.7161628  43.0044783
 121.9150012 100.0914997  49.0799988 121.0790012 100.5454997  49.1899988
 122.4390012 100.3674997  49.8319988 121.8714414 100.1909376  49.1967136
 122.4590012 106.3044997  40.7639988 121.7140012 105.7974997  40.4419988
 122.3250012 106.3534997  41.7109988 122.3388776 106.2416940  40.8478647
 129.6090012 105.4374997  49.5509988 130.2510012 105.8944997  49.0069988
 128.7790012 105.5504997  49.0879988 129.5845963 105.5152704  49.4140177
 126.3570012  99.1184997  38.9639988 125.4180012  99.2304997  38.8119988
 126.6540012  99.9754997  39.2699988 126.2687666  99.2496443  38.9845768
 123.9780012 106.4884997  52.0009988 123.6330012 106.1074997  52.8079988
 123.7780012 107.4224997  52.0729988 123.9038061 106.5625228  52.1210961
 127.0750012 100.9854997  40.6239988 127.9670012 100.8484997  40.9429988
 127.1320012 101.7764997  40.0879988 127.2046285 101.0736660  40.5951691
 117.5840012 105.5994997  46.5339988 118.3290012 105.5974997  45.9329988
 117.6620012 104.7764997  47.0159988 117.6965518 105.4879315  46.5168929
 124.5850012 107.7634997  39.7899988 124.2890012 108.5894997  40.1709988
 123.8820012 107.1434997  39.9859988 124.4494914 107.7928199  39.8686443
 114.5920012 104.0604997  51.8489988 114.8150012 103.6424997  52.6809988
 113.9900012 103.4474997  51.4259988 114.5411759 103.9204668  51.9057022
 121.6080012 103.5774997  54.0619988 121.3120012 103.4114997  53.1669988
 122.5400012 103.3574997  54.0509988 121.6934166 103.5250640  53.9380536
 126.2290012 108.9504997  51.9519988 125.3280012 109.1334997  51.6839988
 126.2630012 109.2094997  52.8729988 126.1103041 109.0105512  52.0398197
 131.9600012 101.1954997  40.3189988 131.4060012 100.7994997  39.6469988
 132.0600012 102.1054997  40.0409988 131.8977059 101.2643586  40.1894401
 131.9230012 106.9954997  53.1559988 131.0720012 107.2334997  52.7889988
 132.5140012 106.9784997  52.4029988 131.8862487 107.0258258  53.0038893
 130.2550012 109.9814997  40.7839988 129.8820012 109.1554997  41.0929988
 130.5330012 109.7984997  39.8869988 130.2415630 109.8437303  40.7049626
 127.4160012 104.7894997  47.8049988 126.4870012 104.5574997  47.7779988
 127.8670012 104.0124997  47.4749988 127.3499216 104.6527238  47.7566917
 119.9590012 109.1174997  43.9379988 120.4860012 109.8904997  43.7379988
 119.0790012 109.3424997  43.6369988 119.9121773 109.2538005  43.8699010
 115.7140012 103.9794997  38.5249988 116.3300012 104.6064997  38.9049988
 114.8520012 104.2954997  38.7969988 115.6817698 104.1079430  38.6137183
 121.3860012 106.7804997  43.5149988 121.1450012 107.7054997  43.5559988
 120.6450012 106.3214997  43.9109988 121.2528409 106.8451421  43.5741377
 121.9010012 110.9294997  49.8299988 122.2630012 111.7844997  49.5959988
 122.4320012 110.6374997  50.5699988 122.0224473 111.0071060  49.8980855
 120.0690012 111.8024997  43.0599988 119.1190012 111.9074997  43.1109988
 120.4210012 112.6224997  43.4049988 119.9864203 111.9278314  43.1136650
 125.4450012 107.0284997  49.5299988 125.0190012 106.8014997  50.3569988
 126.0250012 106.2904997  49.3479988 125.4651868 106.8975299  49.6185830
 127.6480012 107.9574997  38.6039988 128.0010012 107.5774997  39.4089988
 126.6990012 107.8644997  38.6909988 127.5680441 107.8929596  38.7258559
 128.1030012 111.5804997  51.9999988 127.5020012 111.0254997  51.5039988
 128.3850012 112.2474997  51.3739988 128.0588519 111.5946841  51.8474952
 132.1510012 112.4374997  38.8049988 132.8950012 113.0234997  38.6649988
 131.4570012 113.0054997  39.1389988 132.1590292 112.5945582  38.8309961
 116.2260012  98.8134997  51.4069988 115.3330012  99.1524997  51.3389988
 116.1270012  97.9584997  51.8249988 116.0904164  98.7442588  51.4542235
 128.5140012 106.6304997  40.8309988 128.2360012 105.9024997  41.3869988
 129.4410012 106.7494997  41.0359988 128.6013124 106.5468802  40.9348845
 115.8770012 110.6184997  49.8419988 116.0940012 109.6864997  49.8109988
 116.1230012 110.8924997  50.7249988 115.9399549 110.5280636  49.9571763
 121.7390012 109.0694997  37.0509988 121.9780012 108.3214997  36.5039988
 121.4700012 108.6814997  37.8839988 121.7353675 108.9146638  37.0886865
 120.6760012 108.6394997  39.5079988 120.8220012 108.1194997  40.2979988
 120.6730012 109.5464997  39.8139988 120.6955989 108.6908853  39.6576088
 117.1290012 105.8924997  40.0179988 116.4430012 106.2444997  40.5849988
 117.6510012 106.6554997  39.7709988 117.1056852 106.0438578  40.0622118
 124.9600012  98.5544997  50.2969988 125.6590012  98.6284997  50.9469988
 124.5790012  97.6904997  50.4509988 125.0041767  98.4477624  50.4068322
 125.7450012  98.2064997  41.3939988 125.9650012  98.6784997  40.5909988
 126.3030012  98.6014997  42.0639988 125.8504968  98.3244285  41.3747331
 123.4130012 110.3374997  40.2569988 122.5970012 110.8344997  40.3089988
 123.9430012 110.8124997  39.6169988 123.3729161 110.4697722  40.1775956
 122.9450012  99.9344997  42.2289988 123.7570012 100.4394997  42.2749988
 122.7000012  99.7894997  43.1429988 123.0230520  99.9840375  42.3588517
 123.4800012 100.9204997  51.4139988 123.5990012 101.4944997  52.1709988
 124.1360012 100.2324997  51.5279988 123.5849757 100.9061079  51.5330825
 123.8280012  97.0154997  43.1669988 123.4820012  97.6334997  43.8119988
 124.4870012  97.5164997  42.6859988 123.8697826  97.1675802  43.1900971
 120.7520012 111.3814997  40.2389988 120.9120012 112.1804997  39.7379988
 120.5540012 111.6874997  41.1239988 120.7471649 111.5324469  40.2899815
 119.4860012  98.0784997  39.8539988 119.4030012  98.9674997  40.2009988
 120.3760012  97.8134997  40.0859988 119.5949469  98.1641430  39.9327626
 129.6850012  98.8274997  52.2489988 128.7680012  99.0904997  52.1609988
 130.0200012  98.8244997  51.3519988 129.6049900  98.8630224  52.1157919
 128.2870012 102.5784997  46.3439988 127.4890012 102.1634997  46.0159988
 128.7320012 101.8874997  46.8349988 128.2379885 102.4283543  46.3654889
 117.7450012 108.5064997  38.9149988 118.3370012 109.2054997  39.1909988
 118.2040012 108.0734997  38.1949988 117.8881142 108.5437049  38.8554830
 116.0610012 101.1704997  38.0309988 116.0160012 102.1094997  38.2089988
 115.1730012 100.9344997  37.7609988 115.9348574 101.2671892  38.0188912
 129.3730012 111.8344997  47.9669988 129.2180012 112.5124997  47.3099988
 130.3060012 111.9064997  48.1699988 129.4778500 111.9370170  47.9045119
 116.8690012  95.9524997  46.7039988 116.6400012  96.0114997  45.7759988
 116.4260012  95.1604997  47.0099988 116.7778530  95.8535753  46.6184786
 115.7990012 109.8924997  42.8639988 114.9670012 110.3654997  42.8919988
 116.3450012 110.4024997  42.2659988 115.7589739 110.0261871  42.7869716
 115.0870012 112.5054997  54.1939988 115.6280012 112.2884997  54.9539988
 114.6060012 111.6994997  54.0049988 115.0959345 112.3669514  54.2723076
 119.6850012 111.4244997  55.8149988 120.4520012 110.9654997  56.1559988
 119.6630012 111.1984997  54.8849988 119.7871434 111.3310409  55.7360043
 123.7770012 110.9324997  37.1899988 123.1330012 110.3014997  37.5109988
 124.5390012 110.4014997  36.9579988 123.7918077 110.7742920  37.2026011
 126.2620012 109.8044997  54.5439988 125.9110012 108.9484997  54.7869988
 126.9880012 109.9474997  55.1509988 126.3120769 109.7065636  54.6593619
 128.3810012 110.7494997  37.4239988 128.6640012 109.9554997  37.8759988
 129.1210012 110.9824997  36.8629988 128.5197486 110.6722803  37.4100698
 114.9940012 106.3154997  55.1489988 115.1380012 105.4134997  54.8619988
 114.2220012 106.6014997  54.6609988 114.9093323 106.2308261  55.0437881
 119.3360012 106.6594997  37.2809988 119.4000012 105.8654997  37.8119988
 119.9890012 106.5404997  36.5909988 119.4330241 106.5347148  37.2604317
 121.6500012 106.2854997  54.5809988 121.3210012 106.5564997  53.7239988
 121.8020012 105.3444997  54.4939988 121.6254809 106.1953862  54.4518244
 124.6880012 107.7064997  37.0169988 124.4190012 107.8864997  37.9179988
 124.4820012 106.7804997  36.8859988 124.6233825 107.6060152  37.1225214
 127.3840012 106.2014997  51.9649988 128.1300012 106.7894997  51.8449988
 126.6270012 106.7834997  52.0279988 127.3837554 106.3607011  51.9570907
 115.8270012 103.5154997  54.5689988 116.2350012 102.6584997  54.4479988
 115.5670012 103.5304997  55.4899988 115.8477568 103.4000807  54.6769588
 120.4850012 104.6314997  39.5869988 120.0250012 104.1474997  40.2729988
 120.7400012 103.9634997  38.9509988 120.4564902 104.4748731  39.5949334
 119.7740012 102.5244997  51.9429988 119.1560012 103.1994997  52.2229988
 120.1180012 102.8454997  51.1099988 119.7359615 102.6602721  51.8686581
 121.5560012 102.8744997  37.8489988 121.3760012 102.7204997  36.9219988
 122.5060012 102.9824997  37.8939988 121.6597776 102.8680175  37.7281843
 124.7940012 104.9964997  55.2199988 125.7470012 105.0794997  55.1929988
 124.6330012 104.2844997  55.8399988 124.9026426 104.9116746  55.3000579
 130.9460012 105.2294997  37.2949988 130.6720012 104.8044997  36.4819988
 130.9850012 106.1604997  37.0779988 130.9137699 105.2972484  37.1543610
 120.1130012  99.8794997  53.0249988 120.2630012  99.1504997  52.4229988
 120.1160012 100.6564997  52.4659988 120.1339302  99.8847851  52.8670692
 120.5260012  98.2494997  50.5179988 121.0620012  98.7004997  49.8659988
 119.6740012  98.1414997  50.0949988 120.4842178  98.2966390  50.3715756
 122.1080012 103.6884997  50.7569988 122.8580012 103.5324997  50.1839988
 121.7690012 104.5404997  50.4819988 122.1648921 103.7822968  50.6413561
 126.5230012 101.5034997  55.7859988 126.7160012 100.5724997  55.6739988
 127.3810012 101.9284997  55.7759988 126.6653020 101.4336389  55.7693361
 127.8400012 104.2924997  53.8629988 127.5590012 105.0014997  53.2859988
 128.7830012 104.2194997  53.7119988 127.9289027 104.3797646  53.7635551
 118.5920012 101.0774997  54.9369988 117.8250012 100.5454997  54.7269988
 119.2710012 100.7674997  54.3369988 118.5787022 100.9627506  54.8271648
 121.3320012  95.7054997  50.9489988 121.2330012  96.6524997  50.8439988
 120.5890012  95.3334997  50.4739988 121.2180564  95.7845902  50.8704560
 122.5960012 100.0274997  54.5129988 122.3600012  99.8074997  55.4149988
 121.8120012  99.8204997  54.0029988 122.4578628  99.9694760  54.5673932
 125.3110012  99.1544997  53.5889988 124.3640012  99.1864997  53.7209988
 125.6240012  98.5294997  54.2419988 125.2235475  99.0743207  53.6954455
 126.9450012  97.7884997  55.5939988 126.8490012  96.8364997  55.5879988
 126.6240012  98.0574997  56.4539988 126.8884070  97.6944035  55.7095441
 116.7720012  98.9984997  54.6409988 116.9840012  98.2914997  54.0309988
 116.6610012  98.5604997  55.4849988 116.7859721  98.8427084  54.6716843
 121.5530012  94.9994997  53.6209988 122.2650012  94.3594997  53.6069988
 121.4520012  95.2664997  52.7069988 121.6367939  94.9479938  53.4955650
 121.9070012  96.6824997  55.6739988 121.7750012  96.2064997  54.8539988
 121.3080012  97.4264997  55.6189988 121.8079071  96.7179618  55.5542886
 121.4530012 113.5654997  38.8509988 122.3860012 113.7234997  38.9939988
 121.1890012 114.2404997  38.2259988 121.5449510 113.6783611  38.7860741
 115.0220012 108.2014997  38.3329988 115.9360012 108.2804997  38.6069988
 115.0290012 107.5144997  37.6669988 115.1481131 108.1193961  38.2804393
 113.6710012 113.5944997  43.4109988 113.0240012 113.1324997  42.8779988
 114.0250012 112.9224997  43.9929988 113.6303849 113.4404723  43.4167959
 114.5410012 111.6754997  45.2149988 114.2060012 110.7954997  45.3869988
 114.7630012 112.0204997  46.0799988 114.5251783 111.6017500  45.3554208
 132.0890012 112.4844997  48.1959988 132.0680012 112.6694997  49.1349988
 132.7800012 113.0534997  47.8549988 132.1794618 112.5866606  48.2783864
 131.6530012 112.0524997  51.1179988 131.1650012 111.3164997  50.7469988
 132.2020012 111.6584997  51.7959988 131.6604872 111.8986249  51.1589160
 130.1030012 107.8414997  55.7559988 129.2370012 107.7364997  56.1499988
 130.4800012 108.6004997  56.2019988 130.0353308 107.9296900  55.8702393
 131.4040012 106.0984997  41.2699988 132.2540012 106.5194997  41.3969988
 131.4100012 105.3584997  41.8769988 131.5211372 106.0560803  41.3694344
 131.7990012 104.1514997  43.0939988 131.0720012 103.6724997  43.4909988
 132.3800012 104.3574997  43.8259988 131.7779375 104.1137090  43.2474129
 131.5580012 106.9364997  48.0409988 132.3910012 106.5584997  47.7609988
 131.6700012 107.8794997  47.9219988 131.6872647 107.0122218  47.9865487
 130.0440012 109.8144997  50.3479988 129.3970012 110.1394997  50.9739988
 129.5270012 109.3744997  49.6739988 129.8854029 109.7995004  50.3425827
 132.0670012 104.0524997  39.4849988 131.5450012 104.4094997  38.7659988
 132.0340012 104.7274997  40.1629988 131.9911634 104.1925413  39.4783145
 130.4160012 101.2924997  38.0359988 130.5120012 101.9594997  37.3549988
 130.2760012 100.4764997  37.5539988 130.4102135 101.2734500  37.8778491
 129.5850012 102.6724997  43.6569988 129.4350012 101.7274997  43.6359988
 129.2320012 102.9534997  44.4999988 129.5166625 102.5810441  43.7682346
 114.6210012 104.7504997  47.6669988 114.8050012 104.6684997  46.7309988
 115.4700012 104.6264997  48.0909988 114.7610139 104.7225003  47.5961455
 130.4420012 104.6424997  53.2949988 131.0250012 103.9084997  53.4869988
 131.0060012 105.4144997  53.3419988 130.5979769 104.6464227  53.3276159
 131.9380012 102.5454997  53.9799988 131.0750012 102.1664997  53.8139988
 132.5430012 101.8064997  53.9059988 131.9015979 102.3938023  53.9472817
 129.6630012  98.7004997  37.1529988 130.2740012  98.3294997  37.7899988
 128.8270012  98.2794997  37.3489988 129.6335032  98.5927554  37.2667035
 129.2960012 100.2554997  42.1189988 129.5760012  99.3484997  42.2429988
 130.0550012 100.6894997  41.7299988 129.4369277 100.1900942  42.0833682
 129.9080012 100.8364997  47.5549988 130.8410012 101.0484997  47.5209988
 129.6730012 100.9384997  48.4769988 130.0038036 100.8792769  47.6749976
 129.9370012 101.5734997  50.3309988 129.0940012 101.8414997  50.6969988
 130.3790012 102.3954997  50.1199988 129.8814158 101.7213291  50.3525491
 114.2180012 100.0214997  53.8079988 115.1380012  99.8994997  54.0439988
 113.7690012  99.2714997  54.1969988 114.2831580  99.9033727  53.8929006
 132.2200012  95.5534997  55.6839988 132.5700012  94.8994997  55.0789988
 132.3670012  96.3904997  55.2449988 132.2878419  95.5771591  55.5417118
 129.9090012  97.5184997  42.1669988 130.0920012  97.0694997  42.9929988
 129.3100012  96.9334997  41.7039988 129.8530202  97.3779975  42.2173275
 115.4390012  98.3334997  46.6989988 115.8850012  97.5414997  47.0009988
 115.9060012  99.0494997  47.1299988 115.5630172  98.3220624  46.7984820
 113.7430012 101.3324997  47.7679988 114.2350012 101.1114997  46.9769988
 114.1060012 102.1734997  48.0489988 113.8593126 101.4158357  47.6977531
 131.7400012  97.6624997  54.0339988 130.8220012  97.9334997  53.9979988
 131.8630012  97.1274997  53.2489988 131.6311066  97.6272892  53.9230487
 131.7760012  97.5854997  38.6949988 132.1880012  96.8644997  38.2199988
 132.4580012  98.2554997  38.7539988 131.9245885  97.5772368  38.6378915
 114.0570012  97.5904997  41.8219988 113.1320012  97.7994997  41.6929988
 114.5110012  98.0744997  41.1329988 113.9917368  97.6845993  41.7111226
 128.8280012 112.5744997  43.7679988 129.4800012 112.2274997  43.1599988
 129.3380012 113.0634997  44.4139988 128.9862637 112.5930597  43.7720236
 114.0210012  96.3284997  50.1669988 113.3560012  96.0824997  50.8099988
 113.5780012  96.9504997  49.5889988 113.8700956  96.3788632  50.1769352
 116.2130012 109.5034997  54.3109988 115.3920012 109.6784997  53.8509988
 115.9600012 109.4304997  55.2319988 116.0666164 109.5175622  54.3724923
 119.1670012 110.4784997  50.5699988 118.7420012 111.2874997  50.2869988
 120.0710012 110.5634997  50.2679988 119.2310271 110.6008469  50.4903776
 123.4780012 111.8774997  53.5289988 123.6630012 111.5434997  54.4069988
 124.3240012 112.1864997  53.2069988 123.6177539 111.8736047  53.6055605
 125.8230012 113.1634997  52.7729988 126.5000012 112.5304997  52.5329988
 126.1450012 113.5644997  53.5799988 125.9591637 113.1311154  52.8492793
 130.7400012  95.7524997  51.8529988 129.9280012  96.0774997  51.4649988
 130.9730012  94.9924997  51.3199988 130.6603423  95.6942436  51.7278253
 116.5690012 113.7344997  50.6169988 115.8480012 114.1744997  50.1659988
 116.2030012 113.4834997  51.4659988 116.4209804 113.7607698  50.6699840
 119.0360012 113.3344997  49.6469988 118.1710012 113.4064997  50.0509988
 118.9810012 113.8814997  48.8629988 118.9102085 113.4182685  49.5963362
 123.7460012 113.2224997  48.8219988 123.2900012 113.7514997  48.1679988
 123.9090012 113.8254997  49.5479988 123.7055585 113.3764468  48.8305062
 126.0740012 112.1004997  49.7669988 125.1690012 112.2654997  49.5019988
 126.5030012 112.9534997  49.7019988 126.0080799 112.2384483  49.7219182
 128.6780012 113.6704997  50.0619988 128.4960012 114.5864997  49.8519988
 128.8550012 113.2604997  49.2159988 128.6770210 113.7404822  49.9187885
 115.9830012 112.3574997  47.5269988 115.9650012 111.9324997  48.3849988
 116.7880012 112.0394997  47.1189988 116.0893875 112.2563812  47.5891655
 118.1250012 111.0674997  46.1819988 117.9060012 110.1514997  46.3519988
 118.9490012 111.2074997  46.6479988 118.2064420 110.9610520  46.2682774
 120.6620012 111.5374997  47.0309988 120.8750012 110.6494997  46.7439988
 120.7260012 111.5034997  47.9849988 120.6998231 111.4113102  47.1207397
 124.1700012  97.2014997  46.1749988 123.4960012  96.5724997  46.4309988
 124.7340012  96.7174997  45.5719988 124.1539230  97.0498744  46.1285340
 129.3130012  95.3094997  46.2879988 129.9170012  95.8564997  45.7859988
 128.4430012  95.6284997  46.0479988 129.2781241  95.4275806  46.1867654
 131.0400012  96.4474997  44.6209988 131.6520012  95.9334997  44.0949988
 131.4220012  97.3254997  44.6449988 131.1754540  96.4957140  44.5521830
 116.4970012  95.8354997  43.9969988 115.7200012  95.6014997  43.4899988
 117.0270012  95.0384997  44.0059988 116.4622330  95.6956988  43.9287742
 115.3330012  95.6334997  39.8009988 115.7720012  96.2444997  39.2089988
 114.7000012  96.1714997  40.2749988 115.3074514  95.7899257  39.7840930
 121.0760012  95.7624997  43.8109988 121.9510012  96.1504997  43.7809988
 120.9400012  95.5474997  44.7329988 121.1773695  95.7865184  43.9316440
 126.6330012  95.7924997  45.4599988 126.7090012  95.8874997  44.5099988
 126.3580012  94.8844997  45.5889988 126.6062321  95.6827867  45.3475079
 127.9860012  95.8184997  41.1519988 127.2840012  96.4334997  40.9429988
 127.5420012  94.9804997  41.2829988 127.8296330  95.7895783  41.1410328
 115.2340012 111.5814997  40.6989988 114.5490012 111.5434997  40.0309988
 115.2380012 112.4944997  40.9869988 115.1408193 111.6997016  40.6465284
 117.1940012  97.5494997  38.2429988 117.6860012  96.9194997  37.7159988
 117.8180012  97.8454997  38.9069988 117.3455446  97.5033199  38.2605980
 122.2200012  97.8424997  40.6999988 122.3980012  97.1964997  41.3829988
 122.1670012  98.6764997  41.1679988 122.2371829  97.8667985  40.8565940
 124.0990012 112.7914997  39.0959988 124.9650012 113.1574997  38.9179988
 123.8520012 112.3514997  38.2819988 124.1842392 112.7821756  38.9616289
 130.8080012 112.3544997  41.7749988 130.6130012 111.6064997  41.2099988
 130.7690012 113.1124997  41.1919988 130.7760380 112.3546099  41.6188384
 116.4550012  96.3494997  53.5149988 116.0890012  95.5844997  53.9579988
 117.3680012  96.3784997  53.8019988 116.5282790  96.2487224  53.6144070
 118.4280012  95.7004997  55.0509988 119.3260012  95.4264997  54.8659988
 118.0410012  94.9574997  55.5149988 118.4986612  95.5625914  55.0883643
 117.0520012 112.5014997  37.7239988 116.7850012 112.7884997  38.5969988
 117.8240012 111.9554997  37.8759988 117.1197488 112.4670294  37.8641050
 126.8490012  95.0324997  55.2329988 126.9260012  94.6064997  56.0869988
 127.7430012  95.0464997  54.8899988 126.9803428  94.9760880  55.3035310
 130.0250012 111.1054997  53.9249988 129.2430012 110.9194997  53.4059988
 129.9530012 112.0344997  54.1429988 129.9081777 111.2056492  53.8834048
 144.4310012 104.9914997  43.9559988 144.5200012 105.9354997  43.8239988
 143.7930012 104.7164997  43.2979988 144.3569081 105.0834830  43.8489614
 143.3640012 104.2464997  47.3749988 143.3260012 103.6004997  48.0799988
 143.0420012 103.7804997  46.6039988 143.3152333 104.0949408  47.3672978
 135.7330012 103.8614997  48.9679988 135.7740012 103.2354997  49.6909988
 136.4360012 104.4854997  49.1499988 135.8336363 103.8601196  49.0916044
 136.6560012 108.3114997  47.5029988 136.2870012 107.5094997  47.1329988
 137.5970012 108.1424997  47.5489988 136.7327289 108.1790153  47.4586316
 133.2660012 101.9714997  42.8959988 132.8190012 102.8174997  42.8769988
 132.7050012 101.3914997  42.3799988 133.1289900 102.0089916  42.8236801
 133.9770012 104.1334997  45.0219988 134.1900012 103.3634997  45.5489988
 134.7150012 104.2224997  44.4179988 134.1058496 104.0401394  45.0125300
 144.1820012 112.2904997  45.8889988 144.8020012 111.6134997  45.6149988
 143.9740012 112.0724997  46.7969988 144.2386904 112.1683870  45.9743365
 141.7540012 106.6794997  47.7809988 142.0580012 105.9934997  47.1859988
 142.4750012 106.7974997  48.3989988 141.8930671 106.6016305  47.7831816
 144.8950012 101.0734997  48.1089988 145.0370012 100.1274997  48.1289988
 144.7880012 101.2804997  47.1799988 144.8999863 100.9719534  47.9862339
 138.0490012  99.1744997  45.3809988 138.0930012 100.0344997  44.9629988
 137.5920012  98.6224997  44.7469988 137.9932185  99.2175799  45.2380299
 134.6700012 101.5714997  46.1429988 135.3230012 101.0214997  46.5749988
 134.6940012 101.2974997  45.2259988 134.7626683 101.4591466  46.0782123
 139.8260012 103.1214997  45.3579988 140.4420012 102.5954997  45.8679988
 139.2400012 102.4814997  44.9549988 139.8310810 102.9629208  45.3733173
 136.8600012  98.0924997  49.4549988 136.6410012  98.6224997  48.6889988
 136.1920012  98.3194997  50.1019988 136.7397600  98.1956906  49.4376379
 144.2290012 107.5924997  42.9989988 143.9330012 107.2704997  42.1479988
 143.9040012 108.4924997  43.0399988 144.1446371 107.6700215  42.8881801
 139.4290012 105.7684997  49.7419988 138.6890012 106.3664997  49.8459988
 140.1430012 106.3224997  49.4269988 139.4242237 105.9252831  49.7136465
 136.4530012  99.9844997  47.4069988 137.0670012 100.6174997  47.7809988
 136.9650012  99.5124997  46.7509988 136.6062296 100.0072370  47.3694252
 137.8360012 107.7324997  50.5299988 137.8310012 108.6124997  50.1519988
 136.9830012 107.6494997  50.9549988 137.7199464 107.8416117  50.5357907
 133.9570012 107.4034997  41.3119988 133.6850012 107.6324997  40.4229988
 134.0030012 108.2414997  41.7719988 133.9260094 107.5481213  41.2525697
 140.8860012  95.3984997  46.9079988 140.7690012  94.4494997  46.8529988
 140.0310012  95.7304997  47.1809988 140.7543733  95.3135409  46.9373897
 143.1530012 104.2354997  41.4079988 142.4410012 104.7704997  41.0559988
 143.8440012 104.2914997  40.7479988 143.1490132 104.3162543  41.2706289
 143.2060012 102.6934997  38.4469988 143.9070012 102.7154997  39.0979988
 143.5090012 102.0654997  37.7909988 143.3427830 102.6116566  38.4473711
 138.2040012 105.0754997  44.2419988 137.8730012 104.7054997  43.4239988
 138.7920012 104.4054997  44.5889988 138.2381873 104.9341156  44.1768102
 139.5700012 108.5034997  46.9239988 139.4760012 107.9254997  46.1669988
 140.3000012 108.1324997  47.4199988 139.6557981 108.3742390  46.8874165
 138.5700012 103.8444997  47.8759988 139.1360012 103.9654997  47.1129988
 138.8890012 104.4814997  48.5149988 138.6905786 103.9471884  47.8580040
 144.8790012 109.3474997  48.6099988 144.6390012 110.0094997  49.2579988
 144.6810012 108.5134997  49.0349988 144.8193808 109.3253134  48.7561524
 139.4500012 108.2434997  52.5929988 139.1390012 109.0254997  53.0479988
 138.8000012 108.0904997  51.9069988 139.3195558 108.3299105  52.5625871
 136.3700012 104.4414997  51.8219988 136.4410012 105.0924997  52.5199988
 135.4800012 104.5444997  51.4869988 136.2593117 104.5445936  51.8722700
 143.1560012 110.3444997  43.4799988 143.6300012 110.6394997  44.2579988
 142.5930012 111.0824997  43.2469988 143.1447653 110.4846932  43.5550136
 137.6900012 110.3154997  53.3559988 137.6970012 110.1794997  52.4089988
 136.7740012 110.1974997  53.6079988 137.5671714 110.2809430  53.2604666
 137.1940012 104.1454997  41.8319988 136.9020012 104.9134997  41.3409988
 136.5200012 103.4854997  41.6689988 137.0629081 104.1614406  41.7427340
 133.2870012 106.5084997  50.6469988 132.7860012 106.4804997  49.8319988
 133.2920012 105.6024997  50.9559988 133.2191526 106.3822278  50.5772872
 133.0370012 109.2884997  47.5309988 133.9830012 109.1444997  47.5119988
 132.9250012 110.0724997  48.0679988 133.1512727 109.3748046  47.6010072
 142.2140012 109.5284997  52.0889988 142.3010012 110.3544997  52.5639988
 141.3500012 109.1984997  52.3379988 142.1091964 109.5969878  52.1876549
 142.6280012 113.3004997  41.8949988 142.5530012 113.1794997  40.9489988
 142.6610012 114.2504997  42.0139988 142.6221848 113.4122500  41.7814834
 136.2810012 112.0894997  43.6759988 136.4340012 111.7414997  44.5549988
 135.4310012 111.7334997  43.4209988 136.1868962 111.9936650  43.7618340
 135.5360012 107.8314997  51.6899988 135.7520012 107.4704997  52.5489988
 134.6810012 107.4574997  51.4799988 135.4499292 107.7314111  51.7793386
 138.1550012  96.3014997  47.6849988 137.2930012  96.2144997  47.2779988
 138.1320012  97.1574997  48.1129988 138.0340330  96.4052765  47.6871863
 142.8180012  96.0234997  51.0599988 143.2380012  95.6084997  51.8129988
 141.8850012  95.8454997  51.1769988 142.7493644  95.9425900  51.1789539
 142.4790012  98.5164997  38.3449988 142.2260012  98.5354997  39.2679988
 142.2230012  97.6444997  38.0439988 142.4097790  98.4012437  38.4306263
 138.2460012 101.2674997  48.7799988 137.6040012 101.2264997  49.4889988
 138.2830012 102.1934997  48.5429988 138.1631324 101.3871559  48.8449824
 138.2430012 101.4884997  43.6919988 137.3500012 101.1474997  43.6339988
 138.6930012 101.1114997  42.9369988 138.1817305 101.3908484  43.5819177
 143.7780012 101.9044997  42.5089988 143.3690012 102.7194997  42.2179988
 144.4990012 101.7644997  41.8949988 143.8194537 101.9972018  42.3861342
 142.8800012 102.0794997  53.9969988 142.3180012 101.3754997  54.3179988
 143.7070012 101.9594997  54.4649988 142.9147095 101.9667883  54.1042330
 144.7830012 101.3504997  45.3229988 144.5880012 101.9554997  44.6079988
 144.9640012 100.5164997  44.8889988 144.7807614 101.3206300  45.1664405
 135.9960012 101.5874997  50.6469988 135.9580012 101.9874997  51.5159988
 135.5050012 100.7704997  50.7379988 135.9244684 101.5318069  50.7781059
 139.3620012  98.9614997  37.4459988 138.9310012  98.5164997  38.1759988
 138.6440012  99.3334997  36.9339988 139.2059438  98.9508940  37.4766799
 132.6040012  98.7034997  44.4979988 133.2350012  98.6744997  45.2169988
 133.0530012  98.2784997  43.7679988 132.7510774  98.6420492  44.4976553
 133.8780012  99.4494997  39.9219988 134.3520012 100.0404997  39.3369988
 133.1610012  99.9804997  40.2689988 133.8459341  99.6020867  39.8888836
 144.0470012 102.9884997  49.9949988 144.3700012 102.3574997  49.3519988
 143.6070012 102.4534997  50.6549988 144.0316895 102.8298441  49.9962850
 140.8240012  98.9154997  44.7789988 139.9130012  98.9724997  45.0669988
 141.3300012  98.8554997  45.5889988 140.7675413  98.9151985  44.9280622
 135.6530012 100.5444997  43.6049988 134.7630012 100.6444997  43.2649988
 135.9490012  99.7024997  43.2589988 135.5712823 100.4443546  43.5117213
 139.3060012 100.5444997  41.2619988 140.2370012 100.6734997  41.4399988
 139.0910012 101.2144997  40.6119988 139.4044247 100.6526565  41.1985747
 137.9800012 101.7394997  38.8289988 137.4370012 101.3594997  38.1369988
 138.8130012 101.9334997  38.3999988 138.0184399 101.7138124  38.6764526
 136.1150012 106.2964997  53.9279988 136.8470012 106.5504997  54.4889988
 135.3350012 106.5004997  54.4429988 136.1098232 106.3589177  54.0745760
 142.1440012 101.7034997  46.6659988 142.7090012 101.1564997  46.1189988
 141.9970012 101.1814997  47.4539988 142.2012918 101.5582024  46.6978454
 137.1460012  97.8394997  43.0839988 136.8290012  96.9374997  43.0489988
 137.9280012  97.8414997  42.5309988 137.2082284  97.7161628  43.0044783
 140.7710012 100.0914997  49.0799988 139.9350012 100.5454997  49.1899988
 141.2950012 100.3674997  49.8319988 140.7274414 100.1909376  49.1967136
 141.3150012 106.3044997  40.7639988 140.5700012 105.7974997  40.4419988
 141.1810012 106.3534997  41.7109988 141.1948776 106.2416940  40.8478647
 142.8340012 106.4884997  52.0009988 142.4890012 106.1074997  52.8079988
 142.6340012 107.4224997  52.0729988 142.7598061 106.5625228  52.1210961
 136.4400012 105.5994997  46.5339988 137.1850012 105.5974997  45.9329988
 136.5180012 104.7764997  47.0159988 136.5525518 105.4879315  46.5168929
 143.4410012 107.7634997  39.7899988 143.1450012 108.5894997  40.1709988
 142.7380012 107.1434997  39.9859988 143.3054914 107.7928199  39.8686443
 133.4480012 104.0604997  51.8489988 133.6710012 103.6424997  52.6809988
 132.8460012 103.4474997  51.4259988 133.3971759 103.9204668  51.9057022
 140.4640012 103.5774997  54.0619988 140.1680012 103.4114997  53.1669988
 141.3960012 103.3574997  54.0509988 140.5494166 103.5250640  53.9380536
 138.8150012 109.1174997  43.9379988 139.3420012 109.8904997  43.7379988
 137.9350012 109.3424997  43.6369988 138.7681773 109.2538005  43.8699010
 134.5700012 103.9794997  38.5249988 135.1860012 104.6064997  38.9049988
 133.7080012 104.2954997  38.7969988 134.5377698 104.1079430  38.6137183
 140.2420012 106.7804997  43.5149988 140.0010012 107.7054997  43.5559988
 139.5010012 106.3214997  43.9109988 140.1088409 106.8451421  43.5741377
 140.7570012 110.9294997  49.8299988 141.1190012 111.7844997  49.5959988
 141.2880012 110.6374997  50.5699988 140.8784473 111.0071060  49.8980855
 138.9250012 111.8024997  43.0599988 137.9750012 111.9074997  43.1109988
 139.2770012 112.6224997  43.4049988 138.8424203 111.9278314  43.1136650
 144.3010012 107.0284997  49.5299988 143.8750012 106.8014997  50.3569988
 144.8810012 106.2904997  49.3479988 144.3211868 106.8975299  49.6185830
 135.0820012  98.8134997  51.4069988 134.1890012  99.1524997  51.3389988
 134.9830012  97.9584997  51.8249988 134.9464164  98.7442588  51.4542235
 134.7330012 110.6184997  49.8419988 134.9500012 109.6864997  49.8109988
 134.9790012 110.8924997  50.7249988 134.7959549 110.5280636  49.9571763
 140.5950012 109.0694997  37.0509988 140.8340012 108.3214997  36.5039988
 140.3260012 108.6814997  37.8839988 140.5913675 108.9146638  37.0886865
 139.5320012 108.6394997  39.5079988 139.6780012 108.1194997  40.2979988
 139.5290012 109.5464997  39.8139988 139.5515989 108.6908853  39.6576088
 135.9850012 105.8924997  40.0179988 135.2990012 106.2444997  40.5849988
 136.5070012 106.6554997  39.7709988 135.9616852 106.0438578  40.0622118
 143.8160012  98.5544997  50.2969988 144.5150012  98.6284997  50.9469988
 143.4350012  97.6904997  50.4509988 143.8601767  98.4477624  50.4068322
 144.6010012  98.2064997  41.3939988 144.8210012  98.6784997  40.5909988
 145.1590012  98.6014997  42.0639988 144.7064968  98.3244285  41.3747331
 142.2690012 110.3374997  40.2569988 141.4530012 110.8344997  40.3089988
 142.7990012 110.8124997  39.6169988 142.2289161 110.4697722  40.1775956
 141.8010012  99.9344997  42.2289988 142.6130012 100.4394997  42.2749988
 141.5560012  99.7894997  43.1429988 141.8790520  99.9840375  42.3588517
 142.3360012 100.9204997  51.4139988 142.4550012 101.4944997  52.1709988
 142.9920012 100.2324997  51.5279988 142.4409757 100.9061079  51.5330825
 142.6840012  97.0154997  43.1669988 142.3380012  97.6334997  43.8119988
 143.3430012  97.5164997  42.6859988 142.7257826  97.1675802  43.1900971
 139.6080012 111.3814997  40.2389988 139.7680012 112.1804997  39.7379988
 139.4100012 111.6874997  41.1239988 139.6031649 111.5324469  40.2899815
 138.3420012  98.0784997  39.8539988 138.2590012  98.9674997  40.2009988
 139.2320012  97.8134997  40.0859988 138.4509469  98.1641430  39.9327626
 136.6010012 108.5064997  38.9149988 137.1930012 109.2054997  39.1909988
 137.0600012 108.0734997  38.1949988 136.7441142 108.5437049  38.8554830
 134.9170012 101.1704997  38.0309988 134.8720012 102.1094997  38.2089988
 134.0290012 100.9344997  37.7609988 134.7908574 101.2671892  38.0188912
 135.7250012  95.9524997  46.7039988 135.4960012  96.0114997  45.7759988
 135.2820012  95.1604997  47.0099988 135.6338530  95.8535753  46.6184786
 134.6550012 109.8924997  42.8639988 133.8230012 110.3654997  42.8919988
 135.2010012 110.4024997  42.2659988 134.6149739 110.0261871  42.7869716
 133.9430012 112.5054997  54.1939988 134.4840012 112.2884997  54.9539988
 133.4620012 111.6994997  54.0049988 133.9519345 112.3669514  54.2723076
 138.5410012 111.4244997  55.8149988 139.3080012 110.9654997  56.1559988
 138.5190012 111.1984997  54.8849988 138.6431434 111.3310409  55.7360043
 142.6330012 110.9324997  37.1899988 141.9890012 110.3014997  37.5109988
 143.3950012 110.4014997  36.9579988 142.6478077 110.7742920  37.2026011
 133.8500012 106.3154997  55.1489988 133.9940012 105.4134997  54.8619988
 133.0780012 106.6014997  54.6609988 133.7653323 106.2308261  55.0437881
 138.1920012 106.6594997  37.2809988 138.2560012 105.8654997  37.8119988
 138.8450012 106.5404997  36.5909988 138.2890241 106.5347148  37.2604317
 140.5060012 106.2854997  54.5809988 140.1770012 106.5564997  53.7239988
 140.6580012 105.3444997  54.4939988 140.4814809 106.1953862  54.4518244
 143.5440012 107.7064997  37.0169988 143.2750012 107.8864997  37.9179988
 143.3380012 106.7804997  36.8859988 143.4793825 107.6060152  37.1225214
 134.6830012 103.5154997  54.5689988 135.0910012 102.6584997  54.4479988
 134.4230012 103.5304997  55.4899988 134.7037568 103.4000807  54.6769588
 139.3410012 104.6314997  39.5869988 138.8810012 104.1474997  40.2729988
 139.5960012 103.9634997  38.9509988 139.3124902 104.4748731  39.5949334
 138.6300012 102.5244997  51.9429988 138.0120012 103.1994997  52.2229988
 138.9740012 102.8454997  51.1099988 138.5919615 102.6602721  51.8686581
 140.4120012 102.8744997  37.8489988 140.2320012 102.7204997  36.9219988
 141.3620012 102.9824997  37.8939988 140.5157776 102.8680175  37.7281843
 143.6500012 104.9964997  55.2199988 144.6030012 105.0794997  55.1929988
 143.4890012 104.2844997  55.8399988 143.7586426 104.9116746  55.3000579
 138.9690012  99.8794997  53.0249988 139.1190012  99.1504997  52.4229988
 138.9720012 100.6564997  52.4659988 138.9899302  99.8847851  52.8670692
 139.3820012  98.2494997  50.5179988 139.9180012  98.7004997  49.8659988
 138.5300012  98.1414997  50.0949988 139.3402178  98.2966390  50.3715756
 140.9640012 103.6884997  50.7569988 141.7140012 103.5324997  50.1839988
 140.6250012 104.5404997  50.4819988 141.0208921 103.7822968  50.6413561
 137.4480012 101.0774997  54.9369988 136.6810012 100.5454997  54.7269988
 138.1270012 100.7674997  54.3369988 137.4347022 100.9627506  54.8271648
 140.1880012  95.7054997  50.9489988 140.0890012  96.6524997  50.8439988
 139.4450012  95.3334997  50.4739988 140.0740564  95.7845902  50.8704560
 141.4520012 100.0274997  54.5129988 141.2160012  99.8074997  55.4149988
 140.6680012  99.8204997  54.0029988 141.3138628  99.9694760  54.5673932
 144.1670012  99.1544997  53.5889988 143.2200012  99.1864997  53.7209988
 144.4800012  98.5294997  54.2419988 144.0795475  99.0743207  53.6954455
 135.6280012  98.9984997  54.6409988 135.8400012  98.2914997  54.0309988
 135.5170012  98.5604997  55.4849988 135.6419721  98.8427084  54.6716843
 140.4090012  94.9994997  53.6209988 141.1210012  94.3594997  53.6069988
 140.3080012  95.2664997  52.7069988 140.4927939  94.9479938  53.4955650
 140.7630012  96.6824997  55.6739988 140.6310012  96.2064997  54.8539988
 140.1640012  97.4264997  55.6189988 140.6639071  96.7179618  55.5542886
 140.3090012 113.5654997  38.8509988 141.2420012 113.7234997  38.9939988
 140.0450012 114.2404997  38.2259988 140.4009510 113.6783611  38.7860741
 133.8780012 108.2014997  38.3329988 134.7920012 108.2804997  38.6069988
 133.8850012 107.5144997  37.6669988 134.0041131 108.1193961  38.2804393
 132.5270012 113.5944997  43.4109988 131.8800012 113.1324997  42.8779988
 132.8810012 112.9224997  43.9929988 132.4863849 113.4404723  43.4167959
 133.3970012 111.6754997  45.2149988 133.0620012 110.7954997  45.3869988
 133.6190012 112.0204997  46.0799988 133.3811783 111.6017500  45.3554208
 133.4770012 104.7504997  47.6669988 133.6610012 104.6684997  46.7309988
 134.3260012 104.6264997  48.0909988 133.6170139 104.7225003  47.5961455
 133.0740012 100.0214997  53.8079988 133.9940012  99.8994997  54.0439988
 132.6250012  99.2714997  54.1969988 133.1391580  99.9033727  53.8929006
 134.2950012  98.3334997  46.6989988 134.7410012  97.5414997  47.0009988
 134.7620012  99.0494997  47.1299988 134.4190172  98.3220624  46.7984820
 132.5990012 101.3324997  47.7679988 133.0910012 101.1114997  46.9769988
 132.9620012 102.1734997  48.0489988 132.7153126 101.4158357  47.6977531
 132.9130012  97.5904997  41.8219988 131.9880012  97.7994997  41.6929988
 133.3670012  98.0744997  41.1329988 132.8477368  97.6845993  41.7111226
 132.8770012  96.3284997  50.1669988 132.2120012  96.0824997  50.8099988
 132.4340012  96.9504997  49.5889988 132.7260956  96.3788632  50.1769352
 135.0690012 109.5034997  54.3109988 134.2480012 109.6784997  53.8509988
 134.8160012 109.4304997  55.2319988 134.9226164 109.5175622  54.3724923
 138.0230012 110.4784997  50.5699988 137.5980012 111.2874997  50.2869988
 138.9270012 110.5634997  50.2679988 138.0870271 110.6008469  50.4903776
 142.3340012 111.8774997  53.5289988 142.5190012 111.5434997  54.4069988
 143.1800012 112.1864997  53.2069988 142.4737539 111.8736047  53.6055605
 144.6790012 113.1634997  52.7729988 145.3560012 112.5304997  52.5329988
 145.0010012 113.5644997  53.5799988 144.8151637 113.1311154  52.8492793
 135.4250012 113.7344997  50.6169988 134.7040012 114.1744997  50.1659988
 135.0590012 113.4834997  51.4659988 135.2769804 113.7607698  50.6699840
 137.8920012 113.3344997  49.6469988 137.0270012 113.4064997  50.0509988
 137.8370012 113.8814997  48.8629988 137.7662085 113.4182685  49.5963362
 142.6020012 113.2224997  48.8219988 142.1460012 113.7514997  48.1679988
 142.7650012 113.8254997  49.5479988 142.5615585 113.3764468  48.8305062
 134.8390012 112.3574997  47.5269988 134.8210012 111.9324997  48.3849988
 135.6440012 112.0394997  47.1189988 134.9453875 112.2563812  47.5891655
 136.9810012 111.0674997  46.1819988 136.7620012 110.1514997  46.3519988
 137.8050012 111.2074997  46.6479988 137.0624420 110.9610520  46.2682774
 139.5180012 111.5374997  47.0309988 139.7310012 110.6494997  46.7439988
 139.5820012 111.5034997  47.9849988 139.5558232 111.4113102  47.1207397
 143.0260012  97.2014997  46.1749988 142.3520012  96.5724997  46.4309988
 143.5900012  96.7174997  45.5719988 143.0099230  97.0498744  46.1285340
 135.3530012  95.8354997  43.9969988 134.5760012  95.6014997  43.4899988
 135.8830012  95.0384997  44.0059988 135.3182330  95.6956988  43.9287742
 134.1890012  95.6334997  39.8009988 134.6280012  96.2444997  39.2089988
 133.5560012  96.1714997  40.2749988 134.1634514  95.7899257  39.7840930
 139.9320012  95.7624997  43.8109988 140.8070012  96.1504997  43.7809988
 139.7960012  95.5474997  44.7329988 140.0333695  95.7865184  43.9316440
 134.0900012 111.5814997  40.6989988 133.4050012 111.5434997  40.0309988
 134.0940012 112.4944997  40.9869988 133.9968193 111.6997016  40.6465284
 136.0500012  97.5494997  38.2429988 136.5420012  96.9194997  37.7159988
 136.6740012  97.8454997  38.9069988 136.2015446  97.5033199  38.2605980
 141.0760012  97.8424997  40.6999988 141.2540012  97.1964997  41.3829988
 141.0230012  98.6764997  41.1679988 141.0931829  97.8667985  40.8565940
 142.9550012 112.7914997  39.0959988 143.8210012 113.1574997  38.9179988
 142.7080012 112.3514997  38.2819988 143.0402392 112.7821756  38.9616289
 135.3110012  96.3494997  53.5149988 134.9450012  95.5844997  53.9579988
 136.2240012  96.3784997  53.8019988 135.3842790  96.2487224  53.6144070
 137.2840012  95.7004997  55.0509988 138.1820012  95.4264997  54.8659988
 136.8970012  94.9574997  55.5149988 137.3546612  95.5625914  55.0883643
 135.9080012 112.5014997  37.7239988 135.6410012 112.7884997  38.5969988
 136.6800012 111.9554997  37.8759988 135.9757488 112.4670294  37.8641050
  12.4390012 123.8474997  43.9559988  12.5280012 124.7914997  43.8239988
  11.8010012 123.5724997  43.2979988  12.3649081 123.9394830  43.8489614
  11.3720012 123.1024997  47.3749988  11.3340012 122.4564997  48.0799988
  11.0500012 122.6364997  46.6039988  11.3232333 122.9509408  47.3672978
   3.7410012 122.7174997  48.9679988   3.7820012 122.0914997  49.6909988
   4.4440012 123.3414997  49.1499988   3.8416363 122.7161196  49.0916044
  15.0780012 126.0414997  45.6759988  14.6380012 125.3214997  46.1269988
  15.0650012 126.7624997  46.3059988  15.0160226 126.0403731  45.8228494
   4.6640012 127.1674997  47.5029988   4.2950012 126.3654997  47.1329988
   5.6050012 126.9984997  47.5489988   4.7407289 127.0350153  47.4586316
   1.2740012 120.8274997  42.8959988   0.8270012 121.6734997  42.8769988
   0.7130012 120.2474997  42.3799988   1.1369900 120.8649916  42.8236801
   1.9850012 122.9894997  45.0219988   2.1980012 122.2194997  45.5489988
   2.7230012 123.0784997  44.4179988   2.1138496 122.8961394  45.0125300
  12.1900012 131.1464997  45.8889988  12.8100012 130.4694997  45.6149988
  11.9820012 130.9284997  46.7969988  12.2466904 131.0243870  45.9743365
   9.7620012 125.5354997  47.7809988  10.0660012 124.8494997  47.1859988
  10.4830012 125.6534997  48.3989988   9.9010671 125.4576305  47.7831816
  18.4250012 117.1364997  48.6419988  18.4740012 117.7464997  49.3779988
  18.8500012 117.5974997  47.9189988  18.4891824 117.2823741  48.6450205
  12.9030012 119.9294997  48.1089988  13.0450012 118.9834997  48.1289988
  12.7960012 120.1364997  47.1799988  12.9079864 119.8279534  47.9862339
   6.0570012 118.0304997  45.3809988   6.1010012 118.8904997  44.9629988
   5.6000012 117.4784997  44.7469988   6.0012185 118.0735799  45.2380299
  13.7800012 118.1614997  43.7819988  14.4260012 117.8324997  44.4069988
  14.2900012 118.6794997  43.1589988  13.9374264 118.1864611  43.7833862
   2.6780012 120.4274997  46.1429988   3.3310012 119.8774997  46.5749988
   2.7020012 120.1534997  45.2259988   2.7706683 120.3151466  46.0782123
   7.8340012 121.9774997  45.3579988   8.4500012 121.4514997  45.8679988
   7.2480012 121.3374997  44.9549988   7.8390810 121.8189208  45.3733173
  18.8160012 118.6144997  50.8779988  18.1280012 119.2724997  50.7819988
  18.8320012 118.4174997  51.8139988  18.7238525 118.6780462  50.9914808
   4.8680012 116.9484997  49.4549988   4.6490012 117.4784997  48.6889988
   4.2000012 117.1754997  50.1019988   4.7477600 117.0516906  49.4376379
  12.2370012 126.4484997  42.9989988  11.9410012 126.1264997  42.1479988
  11.9120012 127.3484997  43.0399988  12.1526371 126.5260215  42.8881801
   7.4370012 124.6244997  49.7419988   6.6970012 125.2224997  49.8459988
   8.1510012 125.1784997  49.4269988   7.4322237 124.7812831  49.7136465
  15.5440012 117.4524997  45.7619988  15.3280012 116.6864997  46.2949988
  16.1990012 117.9244997  46.2749988  15.6030632 117.4115889  45.9042861
   4.4610012 118.8404997  47.4069988   5.0750012 119.4734997  47.7809988
   4.9730012 118.3684997  46.7509988   4.6142296 118.8632370  47.3694252
   5.8440012 126.5884997  50.5299988   5.8390012 127.4684997  50.1519988
   4.9910012 126.5054997  50.9549988   5.7279464 126.6976117  50.5357907
   1.9650012 126.2594997  41.3119988   1.6930012 126.4884997  40.4229988
   2.0110012 127.0974997  41.7719988   1.9340094 126.4041213  41.2525697
  15.5900012 127.8814997  48.0239988  14.6490012 127.9394997  48.1859988
  15.8670012 128.7874997  47.8869988  15.4984679 128.0119443  48.0276815
  15.8910012 116.1674997  49.4419988  15.1550012 116.7784997  49.4039988
  16.5740012 116.5824997  48.9149988  15.8826541 116.3071374  49.3655832
   8.8940012 114.2544997  46.9079988   8.7770012 113.3054997  46.8529988
   8.0390012 114.5864997  47.1809988   8.7623733 114.1695409  46.9373897
  13.8420012 129.6624997  44.6499988  14.2680012 128.9554997  44.1649988
  14.1590012 130.4634997  44.2329988  13.9431019 129.6740994  44.5273130
  15.0020012 127.5634997  43.1579988  14.7440012 126.8734997  42.5469988
  15.0730012 127.1204997  44.0039988  14.9762856 127.4092124  43.1886885
  16.6880012 126.1294997  51.6359988  16.8280012 125.5384997  50.8959988
  16.8550012 127.0024997  51.2789988  16.7296778 126.1666426  51.4866965
  11.1610012 123.0914997  41.4079988  10.4490012 123.6264997  41.0559988
  11.8520012 123.1474997  40.7479988  11.1570132 123.1722543  41.2706289
  11.2140012 121.5494997  38.4469988  11.9150012 121.5714997  39.0979988
  11.5170012 120.9214997  37.7909988  11.3507830 121.4676566  38.4473711
  18.5300012 122.4694997  49.7019988  17.8770012 123.1644997  49.7909988
  18.9950012 122.6794997  48.8919988  18.5035390 122.5929425  49.6046883
  14.5660012 123.3014997  42.3599988  13.8340012 123.5294997  42.9329988
  15.0140012 122.5874997  42.8149988  14.5263095 123.2362571  42.4999119
  14.4640012 121.4754997  51.4269988  14.5440012 122.2384997  51.9989988
  13.8620012 121.7544997  50.7369988  14.3935756 121.6177134  51.4120589
   6.2120012 123.9314997  44.2419988   5.8810012 123.5614997  43.4239988
   6.8000012 123.2614997  44.5889988   6.2461873 123.7901156  44.1768102
   7.5780012 127.3594997  46.9239988   7.4840012 126.7814997  46.1669988
   8.3080012 126.9884997  47.4199988   7.6637981 127.2302390  46.8874165
   6.5780012 122.7004997  47.8759988   7.1440012 122.8214997  47.1129988
   6.8970012 123.3374997  48.5149988   6.6985786 122.8031884  47.8580040
  12.8870012 128.2034997  48.6099988  12.6470012 128.8654997  49.2579988
  12.6890012 127.3694997  49.0349988  12.8273808 128.1813134  48.7561524
   7.4580012 127.0994997  52.5929988   7.1470012 127.8814997  53.0479988
   6.8080012 126.9464997  51.9069988   7.3275558 127.1859105  52.5625871
  13.4370012 122.4634997  40.0449988  14.0170012 122.6134997  40.7919988
  13.8510012 122.9344997  39.3219988  13.5722831 122.5476841  40.0494134
   4.3780012 123.2974997  51.8219988   4.4490012 123.9484997  52.5199988
   3.4880012 123.4004997  51.4869988   4.2673117 123.4005936  51.8722700
  11.1640012 129.2004997  43.4799988  11.6380012 129.4954997  44.2579988
  10.6010012 129.9384997  43.2469988  11.1527653 129.3406932  43.5550136
   5.6980012 129.1714997  53.3559988   5.7050012 129.0354997  52.4089988
   4.7820012 129.0534997  53.6079988   5.5751714 129.1369430  53.2604666
  17.1360012 114.2134997  39.8579988  16.2360012 114.3524997  40.1529988
  17.3880012 115.0444997  39.4559988  17.0468702 114.3449074  39.8440205
   5.2020012 123.0014997  41.8319988   4.9100012 123.7694997  41.3409988
   4.5280012 122.3414997  41.6689988   5.0709081 123.0174406  41.7427340
  18.3250012 128.5794997  38.2339988  18.3990012 129.5184997  38.4049988
  19.2310012 128.2744997  38.1779988  18.4575100 128.6666722  38.2498119
   1.2950012 125.3644997  50.6469988   0.7940012 125.3364997  49.8319988
   1.3000012 124.4584997  50.9559988   1.2271526 125.2382278  50.5772872
   1.0450012 128.1444997  47.5309988   1.9910012 128.0004997  47.5119988
   0.9330012 128.9284997  48.0679988   1.1592727 128.2308046  47.6010072
  19.2430012 128.8104997  53.2129988  19.1940012 127.8554997  53.1759988
  18.4160012 129.0784997  53.6139988  19.1244940 128.7158998  53.2621375
  10.2220012 128.3844997  52.0889988  10.3090012 129.2104997  52.5639988
   9.3580012 128.0544997  52.3379988  10.1171964 128.4529878  52.1876549
  10.6360012 132.1564997  41.8949988  10.5610012 132.0354997  40.9489988
  10.6690012 133.1064997  42.0139988  10.6301848 132.2682500  41.7814834
   4.2890012 130.9454997  43.6759988   4.4420012 130.5974997  44.5549988
   3.4390012 130.5894997  43.4209988   4.1948962 130.8496650  43.7618340
  13.7380012 131.3104997  38.8969988  14.1130012 130.5664997  38.4269988
  13.7420012 131.0404997  39.8159988  13.7898915 131.1721486  38.9567824
  13.4070012 131.2364997  41.6469988  12.4710012 131.3364997  41.8249988
  13.6870012 130.5274997  42.2249988  13.3168255 131.1542711  41.7495391
  16.3950012 120.3034997  53.6929988  15.9880012 120.7844997  52.9719988
  16.4360012 119.3984997  53.3849988  16.3448437 120.2469374  53.5526683
   3.5440012 126.6874997  51.6899988   3.7600012 126.3264997  52.5489988
   2.6890012 126.3134997  51.4799988   3.4579292 126.5874111  51.7793386
   6.1630012 115.1574997  47.6849988   5.3010012 115.0704997  47.2779988
   6.1400012 116.0134997  48.1129988   6.0420330 115.2612765  47.6871863
  10.8260012 114.8794997  51.0599988  11.2460012 114.4644997  51.8129988
   9.8930012 114.7014997  51.1769988  10.7573644 114.7985900  51.1789539
  14.1520012 118.6354997  51.9129988  13.6380012 118.5094997  52.7109988
  13.9970012 119.5474997  51.6689988  14.0606852 118.7416132  51.9892158
  14.9150012 123.4964997  37.6749988  14.9570012 123.2734997  36.7449988
  15.7640012 123.8954997  37.8649988  15.0355396 123.5199155  37.5733627
  10.4870012 117.3724997  38.3449988  10.2340012 117.3914997  39.2679988
  10.2310012 116.5004997  38.0439988  10.4177790 117.2572437  38.4306263
   6.2540012 120.1234997  48.7799988   5.6120012 120.0824997  49.4889988
   6.2910012 121.0494997  48.5429988   6.1711324 120.2431559  48.8449824
   6.2510012 120.3444997  43.6919988   5.3580012 120.0034997  43.6339988
   6.7010012 119.9674997  42.9369988   6.1897305 120.2468484  43.5819177
  11.7860012 120.7604997  42.5089988  11.3770012 121.5754997  42.2179988
  12.5070012 120.6204997  41.8949988  11.8274537 120.8532018  42.3861342
  10.8880012 120.9354997  53.9969988  10.3260012 120.2314997  54.3179988
  11.7150012 120.8154997  54.4649988  10.9227095 120.8227883  54.1042330
  12.7910012 120.2064997  45.3229988  12.5960012 120.8114997  44.6079988
  12.9720012 119.3724997  44.8889988  12.7887614 120.1766300  45.1664405
   4.0040012 120.4434997  50.6469988   3.9660012 120.8434997  51.5159988
   3.5130012 119.6264997  50.7379988   3.9324684 120.3878069  50.7781059
   7.3700012 117.8174997  37.4459988   6.9390012 117.3724997  38.1759988
   6.6520012 118.1894997  36.9339988   7.2139438 117.8068940  37.4766799
   0.6120012 117.5594997  44.4979988   1.2430012 117.5304997  45.2169988
   1.0610012 117.1344997  43.7679988   0.7590774 117.4980492  44.4976553
   1.8860012 118.3054997  39.9219988   2.3600012 118.8964997  39.3369988
   1.1690012 118.8364997  40.2689988   1.8539341 118.4580867  39.8888836
  12.0550012 121.8444997  49.9949988  12.3780012 121.2134997  49.3519988
  11.6150012 121.3094997  50.6549988  12.0396895 121.6858441  49.9962850
   8.8320012 117.7714997  44.7789988   7.9210012 117.8284997  45.0669988
   9.3380012 117.7114997  45.5889988   8.7755413 117.7711985  44.9280622
   3.6610012 119.4004997  43.6049988   2.7710012 119.5004997  43.2649988
   3.9570012 118.5584997  43.2589988   3.5792823 119.3003545  43.5117213
   7.3140012 119.4004997  41.2619988   8.2450012 119.5294997  41.4399988
   7.0990012 120.0704997  40.6119988   7.4124247 119.5086565  41.1985747
  13.2370012 117.0064997  48.0429988  12.5610012 117.1374997  48.7069988
  12.7520012 116.8514997  47.2329988  13.0787145 117.0034905  48.0244517
   5.9880012 120.5954997  38.8289988   5.4450012 120.2154997  38.1369988
   6.8210012 120.7894997  38.3999988   6.0264399 120.5698124  38.6764526
  16.5250012 132.6784997  54.3199988  16.7250012 133.1024997  53.4849988
  17.1800012 133.0214997  54.9269988  16.6410051 132.7829648  54.2877836
   4.1230012 125.1524997  53.9279988   4.8550012 125.4064997  54.4889988
   3.3430012 125.3564997  54.4429988   4.1178232 125.2149177  54.0745760
  10.1520012 120.5594997  46.6659988  10.7170012 120.0124997  46.1189988
  10.0050012 120.0374997  47.4539988  10.2092918 120.4142024  46.6978454
   5.1540012 116.6954997  43.0839988   4.8370012 115.7934997  43.0489988
   5.9360012 116.6974997  42.5309988   5.2162284 116.5721628  43.0044783
   8.7790012 118.9474997  49.0799988   7.9430012 119.4014997  49.1899988
   9.3030012 119.2234997  49.8319988   8.7354414 119.0469376  49.1967136
   9.3230012 125.1604997  40.7639988   8.5780012 124.6534997  40.4419988
   9.1890012 125.2094997  41.7109988   9.2028776 125.0976940  40.8478647
  16.4730012 124.2934997  49.5509988  17.1150012 124.7504997  49.0069988
  15.6430012 124.4064997  49.0879988  16.4485963 124.3712704  49.4140177
  13.2210012 117.9744997  38.9639988  12.2820012 118.0864997  38.8119988
  13.5180012 118.8314997  39.2699988  13.1327666 118.1056443  38.9845768
  10.8420012 125.3444997  52.0009988  10.4970012 124.9634997  52.8079988
  10.6420012 126.2784997  52.0729988  10.7678061 125.4185228  52.1210961
  13.9390012 119.8414997  40.6239988  14.8310012 119.7044997  40.9429988
  13.9960012 120.6324997  40.0879988  14.0686285 119.9296660  40.5951691
   4.4480012 124.4554997  46.5339988   5.1930012 124.4534997  45.9329988
   4.5260012 123.6324997  47.0159988   4.5605518 124.3439315  46.5168929
  11.4490012 126.6194997  39.7899988  11.1530012 127.4454997  40.1709988
  10.7460012 125.9994997  39.9859988  11.3134914 126.6488199  39.8686443
   1.4560012 122.9164997  51.8489988   1.6790012 122.4984997  52.6809988
   0.8540012 122.3034997  51.4259988   1.4051759 122.7764668  51.9057022
   8.4720012 122.4334997  54.0619988   8.1760012 122.2674997  53.1669988
   9.4040012 122.2134997  54.0509988   8.5574166 122.3810640  53.9380536
  13.0930012 127.8064997  51.9519988  12.1920012 127.9894997  51.6839988
  13.1270012 128.0654997  52.8729988  12.9743041 127.8665512  52.0398197
  18.8240012 120.0514997  40.3189988  18.2700012 119.6554997  39.6469988
  18.9240012 120.9614997  40.0409988  18.7617059 120.1203586  40.1894401
  18.7870012 125.8514997  53.1559988  17.9360012 126.0894997  52.7889988
  19.3780012 125.8344997  52.4029988  18.7502487 125.8818258  53.0038893
  17.1190012 128.8374997  40.7839988  16.7460012 128.0114997  41.0929988
  17.3970012 128.6544997  39.8869988  17.1055630 128.6997303  40.7049626
  14.2800012 123.6454997  47.8049988  13.3510012 123.4134997  47.7779988
  14.7310012 122.8684997  47.4749988  14.2139216 123.5087238  47.7566917
   6.8230012 127.9734997  43.9379988   7.3500012 128.7464997  43.7379988
   5.9430012 128.1984997  43.6369988   6.7761773 128.1098005  43.8699010
   2.5780012 122.8354997  38.5249988   3.1940012 123.4624997  38.9049988
   1.7160012 123.1514997  38.7969988   2.5457698 122.9639430  38.6137183
   8.2500012 125.6364997  43.5149988   8.0090012 126.5614997  43.5559988
   7.5090012 125.1774997  43.9109988   8.1168409 125.7011421  43.5741377
   8.7650012 129.7854997  49.8299988   9.1270012 130.6404997  49.5959988
   9.2960012 129.4934997  50.5699988   8.8864473 129.8631060  49.8980855
   6.9330012 130.6584997  43.0599988   5.9830012 130.7634997  43.1109988
   7.2850012 131.4784997  43.4049988   6.8504203 130.7838314  43.1136650
  12.3090012 125.8844997  49.5299988  11.8830012 125.6574997  50.3569988
  12.8890012 125.1464997  49.3479988  12.3291868 125.7535299  49.6185830
  14.5120012 126.8134997  38.6039988  14.8650012 126.4334997  39.4089988
  13.5630012 126.7204997  38.6909988  14.4320441 126.7489596  38.7258559
  14.9670012 130.4364997  51.9999988  14.3660012 129.8814997  51.5039988
  15.2490012 131.1034997  51.3739988  14.9228519 130.4506841  51.8474952
  19.0150012 131.2934997  38.8049988  19.7590012 131.8794997  38.6649988
  18.3210012 131.8614997  39.1389988  19.0230292 131.4505582  38.8309961
   3.0900012 117.6694997  51.4069988   2.1970012 118.0084997  51.3389988
   2.9910012 116.8144997  51.8249988   2.9544164 117.6002588  51.4542235
  15.3780012 125.4864997  40.8309988  15.1000012 124.7584997  41.3869988
  16.3050012 125.6054997  41.0359988  15.4653124 125.4028802  40.9348845
   2.7410012 129.4744997  49.8419988   2.9580012 128.5424997  49.8109988
   2.9870012 129.7484997  50.7249988   2.8039549 129.3840636  49.9571763
   8.6030012 127.9254997  37.0509988   8.8420012 127.1774997  36.5039988
   8.3340012 127.5374997  37.8839988   8.5993675 127.7706638  37.0886865
   7.5400012 127.4954997  39.5079988   7.6860012 126.9754997  40.2979988
   7.5370012 128.4024997  39.8139988   7.5595989 127.5468853  39.6576088
   3.9930012 124.7484997  40.0179988   3.3070012 125.1004997  40.5849988
   4.5150012 125.5114997  39.7709988   3.9696852 124.8998578  40.0622118
  11.8240012 117.4104997  50.2969988  12.5230012 117.4844997  50.9469988
  11.4430012 116.5464997  50.4509988  11.8681767 117.3037624  50.4068322
  12.6090012 117.0624997  41.3939988  12.8290012 117.5344997  40.5909988
  13.1670012 117.4574997  42.0639988  12.7144968 117.1804285  41.3747331
  10.2770012 129.1934997  40.2569988   9.4610012 129.6904997  40.3089988
  10.8070012 129.6684997  39.6169988  10.2369161 129.3257722  40.1775956
   9.8090012 118.7904997  42.2289988  10.6210012 119.2954997  42.2749988
   9.5640012 118.6454997  43.1429988   9.8870520 118.8400375  42.3588517
  10.3440012 119.7764997  51.4139988  10.4630012 120.3504997  52.1709988
  11.0000012 119.0884997  51.5279988  10.4489757 119.7621079  51.5330825
  10.6920012 115.8714997  43.1669988  10.3460012 116.4894997  43.8119988
  11.3510012 116.3724997  42.6859988  10.7337826 116.0235802  43.1900971
   7.6160012 130.2374997  40.2389988   7.7760012 131.0364997  39.7379988
   7.4180012 130.5434997  41.1239988   7.6111649 130.3884469  40.2899815
   6.3500012 116.9344997  39.8539988   6.2670012 117.8234997  40.2009988
   7.2400012 116.6694997  40.0859988   6.4589469 117.0201430  39.9327626
  16.5490012 117.6834997  52.2489988  15.6320012 117.9464997  52.1609988
  16.8840012 117.6804997  51.3519988  16.4689900 117.7190224  52.1157919
  15.1510012 121.4344997  46.3439988  14.3530012 121.0194997  46.0159988
  15.5960012 120.7434997  46.8349988  15.1019885 121.2843543  46.3654889
   4.6090012 127.3624997  38.9149988   5.2010012 128.0614997  39.1909988
   5.0680012 126.9294997  38.1949988   4.7521142 127.3997049  38.8554830
   2.9250012 120.0264997  38.0309988   2.8800012 120.9654997  38.2089988
   2.0370012 119.7904997  37.7609988   2.7988574 120.1231892  38.0188912
  16.2370012 130.6904997  47.9669988  16.0820012 131.3684997  47.3099988
  17.1700012 130.7624997  48.1699988  16.3418500 130.7930170  47.9045119
   3.7330012 114.8084997  46.7039988   3.5040012 114.8674997  45.7759988
   3.2900012 114.0164997  47.0099988   3.6418530 114.7095753  46.6184786
   2.6630012 128.7484997  42.8639988   1.8310012 129.2214997  42.8919988
   3.2090012 129.2584997  42.2659988   2.6229739 128.8821871  42.7869716
   1.9510012 131.3614997  54.1939988   2.4920012 131.1444997  54.9539988
   1.4700012 130.5554997  54.0049988   1.9599345 131.2229514  54.2723076
   6.5490012 130.2804997  55.8149988   7.3160012 129.8214997  56.1559988
   6.5270012 130.0544997  54.8849988   6.6511434 130.1870409  55.7360043
  10.6410012 129.7884997  37.1899988   9.9970012 129.1574997  37.5109988
  11.4030012 129.2574997  36.9579988  10.6558077 129.6302920  37.2026011
  13.1260012 128.6604997  54.5439988  12.7750012 127.8044997  54.7869988
  13.8520012 128.8034997  55.1509988  13.1760769 128.5625636  54.6593619
  15.2450012 129.6054997  37.4239988  15.5280012 128.8114997  37.8759988
  15.9850012 129.8384997  36.8629988  15.3837486 129.5282803  37.4100698
   1.8580012 125.1714997  55.1489988   2.0020012 124.2694997  54.8619988
   1.0860012 125.4574997  54.6609988   1.7733322 125.0868261  55.0437881
   6.2000012 125.5154997  37.2809988   6.2640012 124.7214997  37.8119988
   6.8530012 125.3964997  36.5909988   6.2970241 125.3907148  37.2604317
   8.5140012 125.1414997  54.5809988   8.1850012 125.4124997  53.7239988
   8.6660012 124.2004997  54.4939988   8.4894809 125.0513862  54.4518244
  11.5520012 126.5624997  37.0169988  11.2830012 126.7424997  37.9179988
  11.3460012 125.6364997  36.8859988  11.4873825 126.4620152  37.1225214
  14.2480012 125.0574997  51.9649988  14.9940012 125.6454997  51.8449988
  13.4910012 125.6394997  52.0279988  14.2477554 125.2167011  51.9570907
   2.6910012 122.3714997  54.5689988   3.0990012 121.5144997  54.4479988
   2.4310012 122.3864997  55.4899988   2.7117568 122.2560807  54.6769588
   7.3490012 123.4874997  39.5869988   6.8890012 123.0034997  40.2729988
   7.6040012 122.8194997  38.9509988   7.3204902 123.3308731  39.5949334
   6.6380012 121.3804997  51.9429988   6.0200012 122.0554997  52.2229988
   6.9820012 121.7014997  51.1099988   6.5999615 121.5162721  51.8686581
   8.4200012 121.7304997  37.8489988   8.2400012 121.5764997  36.9219988
   9.3700012 121.8384997  37.8939988   8.5237776 121.7240175  37.7281843
  11.6580012 123.8524997  55.2199988  12.6110012 123.9354997  55.1929988
  11.4970012 123.1404997  55.8399988  11.7666426 123.7676746  55.3000579
  17.8100012 124.0854997  37.2949988  17.5360012 123.6604997  36.4819988
  17.8490012 125.0164997  37.0779988  17.7777699 124.1532484  37.1543610
   6.9770012 118.7354997  53.0249988   7.1270012 118.0064997  52.4229988
   6.9800012 119.5124997  52.4659988   6.9979302 118.7407851  52.8670692
   7.3900012 117.1054997  50.5179988   7.9260012 117.5564997  49.8659988
   6.5380012 116.9974997  50.0949988   7.3482178 117.1526390  50.3715756
   8.9720012 122.5444997  50.7569988   9.7220012 122.3884997  50.1839988
   8.6330012 123.3964997  50.4819988   9.0288921 122.6382968  50.6413561
  13.3870012 120.3594997  55.7859988  13.5800012 119.4284997  55.6739988
  14.2450012 120.7844997  55.7759988  13.5293020 120.2896389  55.7693361
  14.7040012 123.1484997  53.8629988  14.4230012 123.8574997  53.2859988
  15.6470012 123.0754997  53.7119988  14.7929027 123.2357646  53.7635551
   5.4560012 119.9334997  54.9369988   4.6890012 119.4014997  54.7269988
   6.1350012 119.6234997  54.3369988   5.4427022 119.8187506  54.8271648
   8.1960012 114.5614997  50.9489988   8.0970012 115.5084997  50.8439988
   7.4530012 114.1894997  50.4739988   8.0820564 114.6405902  50.8704560
   9.4600012 118.8834997  54.5129988   9.2240012 118.6634997  55.4149988
   8.6760012 118.6764997  54.0029988   9.3218628 118.8254760  54.5673932
  12.1750012 118.0104997  53.5889988  11.2280012 118.0424997  53.7209988
  12.4880012 117.3854997  54.2419988  12.0875475 117.9303207  53.6954455
  13.8090012 116.6444997  55.5939988  13.7130012 115.6924997  55.5879988
  13.4880012 116.9134997  56.4539988  13.7524070 116.5504035  55.7095441
   3.6360012 117.8544997  54.6409988   3.8480012 117.1474997  54.0309988
   3.5250012 117.4164997  55.4849988   3.6499721 117.6987084  54.6716843
   8.4170012 113.8554997  53.6209988   9.1290012 113.2154997  53.6069988
   8.3160012 114.1224997  52.7069988   8.5007939 113.8039938  53.4955650
   8.7710012 115.5384997  55.6739988   8.6390012 115.0624997  54.8539988
   8.1720012 116.2824997  55.6189988   8.6719071 115.5739618  55.5542886
   8.3170012 132.4214997  38.8509988   9.2500012 132.5794997  38.9939988
   8.0530012 133.0964997  38.2259988   8.4089510 132.5343611  38.7860741
   1.8860012 127.0574997  38.3329988   2.8000012 127.1364997  38.6069988
   1.8930012 126.3704997  37.6669988   2.0121131 126.9753961  38.2804393
   0.5350012 132.4504997  43.4109988  -0.1119988 131.9884997  42.8779988
   0.8890012 131.7784997  43.9929988   0.4943849 132.2964723  43.4167959
   1.4050012 130.5314997  45.2149988   1.0700012 129.6514997  45.3869988
   1.6270012 130.8764997  46.0799988   1.3891783 130.4577501  45.3554208
  18.9530012 131.3404997  48.1959988  18.9320012 131.5254997  49.1349988
  19.6440012 131.9094997  47.8549988  19.0434618 131.4426606  48.2783864
  18.5170012 130.9084997  51.1179988  18.0290012 130.1724997  50.7469988
  19.0660012 130.5144997  51.7959988  18.5244872 130.7546249  51.1589160
  16.9670012 126.6974997  55.7559988  16.1010012 126.5924997  56.1499988
  17.3440012 127.4564997  56.2019988  16.8993308 126.7856900  55.8702393
  18.2680012 124.9544997  41.2699988  19.1180012 125.3754997  41.3969988
  18.2740012 124.2144997  41.8769988  18.3851372 124.9120803  41.3694344
  18.6630012 123.0074997  43.0939988  17.9360012 122.5284997  43.4909988
  19.2440012 123.2134997  43.8259988  18.6419375 122.9697090  43.2474129
  18.4220012 125.7924997  48.0409988  19.2550012 125.4144997  47.7609988
  18.5340012 126.7354997  47.9219988  18.5512647 125.8682218  47.9865487
  16.9080012 128.6704997  50.3479988  16.2610012 128.9954997  50.9739988
  16.3910012 128.2304997  49.6739988  16.7494029 128.6555004  50.3425827
  18.9310012 122.9084997  39.4849988  18.4090012 123.2654997  38.7659988
  18.8980012 123.5834997  40.1629988  18.8551634 123.0485413  39.4783145
  17.2800012 120.1484997  38.0359988  17.3760012 120.8154997  37.3549988
  17.1400012 119.3324997  37.5539988  17.2742135 120.1294500  37.8778491
  16.4490012 121.5284997  43.6569988  16.2990012 120.5834997  43.6359988
  16.0960012 121.8094997  44.4999988  16.3806625 121.4370441  43.7682346
   1.4850012 123.6064997  47.6669988   1.6690012 123.5244997  46.7309988
   2.3340012 123.4824997  48.0909988   1.6250139 123.5785003  47.5961455
  17.3060012 123.4984997  53.2949988  17.8890012 122.7644997  53.4869988
  17.8700012 124.2704997  53.3419988  17.4619769 123.5024227  53.3276159
  18.8020012 121.4014997  53.9799988  17.9390012 121.0224997  53.8139988
  19.4070012 120.6624997  53.9059988  18.7655979 121.2498023  53.9472817
  16.5270012 117.5564997  37.1529988  17.1380012 117.1854997  37.7899988
  15.6910012 117.1354997  37.3489988  16.4975032 117.4487554  37.2667035
  16.1600012 119.1114997  42.1189988  16.4400012 118.2044997  42.2429988
  16.9190012 119.5454997  41.7299988  16.3009277 119.0460942  42.0833682
  16.7720012 119.6924997  47.5549988  17.7050012 119.9044997  47.5209988
  16.5370012 119.7944997  48.4769988  16.8678036 119.7352769  47.6749976
  16.8010012 120.4294997  50.3309988  15.9580012 120.6974997  50.6969988
  17.2430012 121.2514997  50.1199988  16.7454158 120.5773291  50.3525491
   1.0820012 118.8774997  53.8079988   2.0020012 118.7554997  54.0439988
   0.6330012 118.1274997  54.1969988   1.1471580 118.7593727  53.8929006
  19.0840012 114.4094997  55.6839988  19.4340012 113.7554997  55.0789988
  19.2310012 115.2464997  55.2449988  19.1518419 114.4331591  55.5417118
  16.7730012 116.3744997  42.1669988  16.9560012 115.9254997  42.9929988
  16.1740012 115.7894997  41.7039988  16.7170202 116.2339975  42.2173275
   2.3030012 117.1894997  46.6989988   2.7490012 116.3974997  47.0009988
   2.7700012 117.9054997  47.1299988   2.4270172 117.1780624  46.7984820
   0.6070012 120.1884997  47.7679988   1.0990012 119.9674997  46.9769988
   0.9700012 121.0294997  48.0489988   0.7233126 120.2718357  47.6977531
  18.6040012 116.5184997  54.0339988  17.6860012 116.7894997  53.9979988
  18.7270012 115.9834997  53.2489988  18.4951066 116.4832892  53.9230487
  18.6400012 116.4414997  38.6949988  19.0520012 115.7204997  38.2199988
  19.3220012 117.1114997  38.7539988  18.7885885 116.4332368  38.6378915
   0.9210012 116.4464997  41.8219988  -0.0039988 116.6554997  41.6929988
   1.3750012 116.9304997  41.1329988   0.8557368 116.5405993  41.7111226
  15.6920012 131.4304997  43.7679988  16.3440012 131.0834997  43.1599988
  16.2020012 131.9194997  44.4139988  15.8502637 131.4490597  43.7720236
   0.8850012 115.1844997  50.1669988   0.2200012 114.9384997  50.8099988
   0.4420012 115.8064997  49.5889988   0.7340956 115.2348632  50.1769352
   3.0770012 128.3594997  54.3109988   2.2560012 128.5344997  53.8509988
   2.8240012 128.2864997  55.2319988   2.9306164 128.3735622  54.3724923
   6.0310012 129.3344997  50.5699988   5.6060012 130.1434997  50.2869988
   6.9350012 129.4194997  50.2679988   6.0950271 129.4568469  50.4903776
  10.3420012 130.7334997  53.5289988  10.5270012 130.3994997  54.4069988
  11.1880012 131.0424997  53.2069988  10.4817539 130.7296047  53.6055605
  12.6870012 132.0194997  52.7729988  13.3640012 131.3864997  52.5329988
  13.0090012 132.4204997  53.5799988  12.8231637 131.9871154  52.8492793
  17.6040012 114.6084997  51.8529988  16.7920012 114.9334997  51.4649988
  17.8370012 113.8484997  51.3199988  17.5243423 114.5502436  51.7278253
   3.4330012 132.5904997  50.6169988   2.7120012 133.0304997  50.1659988
   3.0670012 132.3394997  51.4659988   3.2849804 132.6167698  50.6699840
   5.9000012 132.1904997  49.6469988   5.0350012 132.2624997  50.0509988
   5.8450012 132.7374997  48.8629988   5.7742085 132.2742685  49.5963362
  10.6100012 132.0784997  48.8219988  10.1540012 132.6074997  48.1679988
  10.7730012 132.6814997  49.5479988  10.5695585 132.2324468  48.8305062
  12.9380012 130.9564997  49.7669988  12.0330012 131.1214997  49.5019988
  13.3670012 131.8094997  49.7019988  12.8720799 131.0944483  49.7219182
  15.5420012 132.5264997  50.0619988  15.3600012 133.4424997  49.8519988
  15.7190012 132.1164997  49.2159988  15.5410210 132.5964822  49.9187885
   2.8470012 131.2134997  47.5269988   2.8290012 130.7884997  48.3849988
   3.6520012 130.8954997  47.1189988   2.9533875 131.1123812  47.5891655
   4.9890012 129.9234997  46.1819988   4.7700012 129.0074997  46.3519988
   5.8130012 130.0634997  46.6479988   5.0704420 129.8170520  46.2682774
   7.5260012 130.3934997  47.0309988   7.7390012 129.5054997  46.7439988
   7.5900012 130.3594997  47.9849988   7.5638231 130.2673102  47.1207397
  11.0340012 116.0574997  46.1749988  10.3600012 115.4284997  46.4309988
  11.5980012 115.5734997  45.5719988  11.0179230 115.9058744  46.1285340
  16.1770012 114.1654997  46.2879988  16.7810012 114.7124997  45.7859988
  15.3070012 114.4844997  46.0479988  16.1421241 114.2835806  46.1867654
  17.9040012 115.3034997  44.6209988  18.5160012 114.7894997  44.0949988
  18.2860012 116.1814997  44.6449988  18.0394540 115.3517140  44.5521830
   3.3610012 114.6914997  43.9969988   2.5840012 114.4574997  43.4899988
   3.8910012 113.8944997  44.0059988   3.3262330 114.5516988  43.9287742
   2.1970012 114.4894997  39.8009988   2.6360012 115.1004997  39.2089988
   1.5640012 115.0274997  40.2749988   2.1714514 114.6459257  39.7840930
   7.9400012 114.6184997  43.8109988   8.8150012 115.0064997  43.7809988
   7.8040012 114.4034997  44.7329988   8.0413695 114.6425184  43.9316440
  13.4970012 114.6484997  45.4599988  13.5730012 114.7434997  44.5099988
  13.2220012 113.7404997  45.5889988  13.4702321 114.5387867  45.3475079
  14.8500012 114.6744997  41.1519988  14.1480012 115.2894997  40.9429988
  14.4060012 113.8364997  41.2829988  14.6936330 114.6455783  41.1410328
   2.0980012 130.4374997  40.6989988   1.4130012 130.3994997  40.0309988
   2.1020012 131.3504997  40.9869988   2.0048193 130.5557016  40.6465284
   4.0580012 116.4054997  38.2429988   4.5500012 115.7754997  37.7159988
   4.6820012 116.7014997  38.9069988   4.2095446 116.3593199  38.2605980
   9.0840012 116.6984997  40.6999988   9.2620012 116.0524997  41.3829988
   9.0310012 117.5324997  41.1679988   9.1011829 116.7227985  40.8565940
  10.9630012 131.6474997  39.0959988  11.8290012 132.0134997  38.9179988
  10.7160012 131.2074997  38.2819988  11.0482392 131.6381756  38.9616289
  17.6720012 131.2104997  41.7749988  17.4770012 130.4624997  41.2099988
  17.6330012 131.9684997  41.1919988  17.6400380 131.2106099  41.6188384
   3.3190012 115.2054997  53.5149988   2.9530012 114.4404997  53.9579988
   4.2320012 115.2344997  53.8019988   3.3922790 115.1047224  53.6144070
   5.2920012 114.5564997  55.0509988   6.1900012 114.2824997  54.8659988
   4.9050012 113.8134997  55.5149988   5.3626612 114.4185914  55.0883643
   3.9160012 131.3574997  37.7239988   3.6490012 131.6444997  38.5969988
   4.6880012 130.8114997  37.8759988   3.9837488 131.3230294  37.8641050
  13.7130012 113.8884997  55.2329988  13.7900012 113.4624997  56.0869988
  14.6070012 113.9024997  54.8899988  13.8443428 113.8320880  55.3035310
  16.8890012 129.9614997  53.9249988  16.1070012 129.7754997  53.4059988
  16.8170012 130.8904997  54.1429988  16.7721777 130.0616492  53.8834048
  31.2950012 123.8474997  43.9559988  31.3840012 124.7914997  43.8239988
  30.6570012 123.5724997  43.2979988  31.2209081 123.9394830  43.8489614
  30.2280012 123.1024997  47.3749988  30.1900012 122.4564997  48.0799988
  29.9060012 122.6364997  46.6039988  30.1792333 122.9509408  47.3672978
  22.5970012 122.7174997  48.9679988  22.6380012 122.0914997  49.6909988
  23.3000012 123.3414997  49.1499988  22.6976363 122.7161196  49.0916044
  33.9340012 126.0414997  45.6759988  33.4940012 125.3214997  46.1269988
  33.9210012 126.7624997  46.3059988  33.8720226 126.0403731  45.8228494
  23.5200012 127.1674997  47.5029988  23.1510012 126.3654997  47.1329988
  24.4610012 126.9984997  47.5489988  23.5967289 127.0350153  47.4586316
  20.1300012 120.8274997  42.8959988  19.6830012 121.6734997  42.8769988
  19.5690012 120.2474997  42.3799988  19.9929900 120.8649916  42.8236801
  20.8410012 122.9894997  45.0219988  21.0540012 122.2194997  45.5489988
  21.5790012 123.0784997  44.4179988  20.9698496 122.8961394  45.0125300
  31.0460012 131.1464997  45.8889988  31.6660012 130.4694997  45.6149988
  30.8380012 130.9284997  46.7969988  31.1026904 131.0243870  45.9743365
  28.6180012 125.5354997  47.7809988  28.9220012 124.8494997  47.1859988
  29.3390012 125.6534997  48.3989988  28.7570671 125.4576305  47.7831816
  37.2810012 117.1364997  48.6419988  37.3300012 117.7464997  49.3779988
  37.7060012 117.5974997  47.9189988  37.3451824 117.2823741  48.6450205
  31.7590012 119.9294997  48.1089988  31.9010012 118.9834997  48.1289988
  31.6520012 120.1364997  47.1799988  31.7639864 119.8279534  47.9862339
  24.9130012 118.0304997  45.3809988  24.9570012 118.8904997  44.9629988
  24.4560012 117.4784997  44.7469988  24.8572185 118.0735799  45.2380299
  32.6360012 118.1614997  43.7819988  33.2820012 117.8324997  44.4069988
  33.1460012 118.6794997  43.1589988  32.7934264 118.1864611  43.7833862
  21.5340012 120.4274997  46.1429988  22.1870012 119.8774997  46.5749988
  21.5580012 120.1534997  45.2259988  21.6266683 120.3151466  46.0782123
  26.6900012 121.9774997  45.3579988  27.3060012 121.4514997  45.8679988
  26.1040012 121.3374997  44.9549988  26.6950810 121.8189208  45.3733173
  37.6720012 118.6144997  50.8779988  36.9840012 119.2724997  50.7819988
  37.6880012 118.4174997  51.8139988  37.5798525 118.6780462  50.9914808
  23.7240012 116.9484997  49.4549988  23.5050012 117.4784997  48.6889988
  23.0560012 117.1754997  50.1019988  23.6037600 117.0516906  49.4376379
  31.0930012 126.4484997  42.9989988  30.7970012 126.1264997  42.1479988
  30.7680012 127.3484997  43.0399988  31.0086371 126.5260215  42.8881801
  26.2930012 124.6244997  49.7419988  25.5530012 125.2224997  49.8459988
  27.0070012 125.1784997  49.4269988  26.2882237 124.7812831  49.7136465
  34.4000012 117.4524997  45.7619988  34.1840012 116.6864997  46.2949988
  35.0550012 117.9244997  46.2749988  34.4590632 117.4115889  45.9042861
  23.3170012 118.8404997  47.4069988  23.9310012 119.4734997  47.7809988
  23.8290012 118.3684997  46.7509988  23.4702296 118.8632370  47.3694252
  24.7000012 126.5884997  50.5299988  24.6950012 127.4684997  50.1519988
  23.8470012 126.5054997  50.9549988  24.5839464 126.6976117  50.5357907
  20.8210012 126.2594997  41.3119988  20.5490012 126.4884997  40.4229988
  20.8670012 127.0974997  41.7719988  20.7900094 126.4041213  41.2525697
  34.4460012 127.8814997  48.0239988  33.5050012 127.9394997  48.1859988
  34.7230012 128.7874997  47.8869988  34.3544679 128.0119443  48.0276815
  34.7470012 116.1674997  49.4419988  34.0110012 116.7784997  49.4039988
  35.4300012 116.5824997  48.9149988  34.7386541 116.3071374  49.3655832
  27.7500012 114.2544997  46.9079988  27.6330012 113.3054997  46.8529988
  26.8950012 114.5864997  47.1809988  27.6183733 114.1695409  46.9373897
  32.6980012 129.6624997  44.6499988  33.1240012 128.9554997  44.1649988
  33.0150012 130.4634997  44.2329988  32.7991019 129.6740994  44.5273130
  33.8580012 127.5634997  43.1579988  33.6000012 126.8734997  42.5469988
  33.9290012 127.1204997  44.0039988  33.8322856 127.4092124  43.1886885
  35.5440012 126.1294997  51.6359988  35.6840012 125.5384997  50.8959988
  35.7110012 127.0024997  51.2789988  35.5856778 126.1666426  51.4866965
  30.0170012 123.0914997  41.4079988  29.3050012 123.6264997  41.0559988
  30.7080012 123.1474997  40.7479988  30.0130132 123.1722543  41.2706289
  30.0700012 121.5494997  38.4469988  30.7710012 121.5714997  39.0979988
  30.3730012 120.9214997  37.7909988  30.2067830 121.4676566  38.4473711
  37.3860012 122.4694997  49.7019988  36.7330012 123.1644997  49.7909988
  37.8510012 122.6794997  48.8919988  37.3595390 122.5929425  49.6046883
  33.4220012 123.3014997  42.3599988  32.6900012 123.5294997  42.9329988
  33.8700012 122.5874997  42.8149988  33.3823095 123.2362571  42.4999119
  33.3200012 121.4754997  51.4269988  33.4000012 122.2384997  51.9989988
  32.7180012 121.7544997  50.7369988  33.2495756 121.6177134  51.4120589
  25.0680012 123.9314997  44.2419988  24.7370012 123.5614997  43.4239988
  25.6560012 123.2614997  44.5889988  25.1021873 123.7901156  44.1768102
  26.4340012 127.3594997  46.9239988  26.3400012 126.7814997  46.1669988
  27.1640012 126.9884997  47.4199988  26.5197981 127.2302390  46.8874165
  25.4340012 122.7004997  47.8759988  26.0000012 122.8214997  47.1129988
  25.7530012 123.3374997  48.5149988  25.5545786 122.8031884  47.8580040
  31.7430012 128.2034997  48.6099988  31.5030012 128.8654997  49.2579988
  31.5450012 127.3694997  49.0349988  31.6833808 128.1813134  48.7561524
  26.3140012 127.0994997  52.5929988  26.0030012 127.8814997  53.0479988
  25.6640012 126.9464997  51.9069988  26.1835558 127.1859105  52.5625871
  32.2930012 122.4634997  40.0449988  32.8730012 122.6134997  40.7919988
  32.7070012 122.9344997  39.3219988  32.4282830 122.5476841  40.0494134
  23.2340012 123.2974997  51.8219988  23.3050012 123.9484997  52.5199988
  22.3440012 123.4004997  51.4869988  23.1233117 123.4005936  51.8722700
  30.0200012 129.2004997  43.4799988  30.4940012 129.4954997  44.2579988
  29.4570012 129.9384997  43.2469988  30.0087653 129.3406932  43.5550136
  24.5540012 129.1714997  53.3559988  24.5610012 129.0354997  52.4089988
  23.6380012 129.0534997  53.6079988  24.4311714 129.1369430  53.2604666
  35.9920012 114.2134997  39.8579988  35.0920012 114.3524997  40.1529988
  36.2440012 115.0444997  39.4559988  35.9028702 114.3449074  39.8440205
  24.0580012 123.0014997  41.8319988  23.7660012 123.7694997  41.3409988
  23.3840012 122.3414997  41.6689988  23.9269081 123.0174406  41.7427340
  37.1810012 128.5794997  38.2339988  37.2550012 129.5184997  38.4049988
  38.0870012 128.2744997  38.1779988  37.3135100 128.6666722  38.2498119
  20.1510012 125.3644997  50.6469988  19.6500012 125.3364997  49.8319988
  20.1560012 124.4584997  50.9559988  20.0831526 125.2382278  50.5772872
  19.9010012 128.1444997  47.5309988  20.8470012 128.0004997  47.5119988
  19.7890012 128.9284997  48.0679988  20.0152727 128.2308046  47.6010072
  38.0990012 128.8104997  53.2129988  38.0500012 127.8554997  53.1759988
  37.2720012 129.0784997  53.6139988  37.9804940 128.7158998  53.2621375
  29.0780012 128.3844997  52.0889988  29.1650012 129.2104997  52.5639988
  28.2140012 128.0544997  52.3379988  28.9731964 128.4529878  52.1876549
  29.4920012 132.1564997  41.8949988  29.4170012 132.0354997  40.9489988
  29.5250012 133.1064997  42.0139988  29.4861848 132.2682500  41.7814834
  23.1450012 130.9454997  43.6759988  23.2980012 130.5974997  44.5549988
  22.2950012 130.5894997  43.4209988  23.0508962 130.8496650  43.7618340
  32.5940012 131.3104997  38.8969988  32.9690012 130.5664997  38.4269988
  32.5980012 131.0404997  39.8159988  32.6458915 131.1721486  38.9567824
  32.2630012 131.2364997  41.6469988  31.3270012 131.3364997  41.8249988
  32.5430012 130.5274997  42.2249988  32.1728255 131.1542711  41.7495391
  35.2510012 120.3034997  53.6929988  34.8440012 120.7844997  52.9719988
  35.2920012 119.3984997  53.3849988  35.2008437 120.2469374  53.5526683
  22.4000012 126.6874997  51.6899988  22.6160012 126.3264997  52.5489988
  21.5450012 126.3134997  51.4799988  22.3139292 126.5874111  51.7793386
  25.0190012 115.1574997  47.6849988  24.1570012 115.0704997  47.2779988
  24.9960012 116.0134997  48.1129988  24.8980330 115.2612765  47.6871863
  29.6820012 114.8794997  51.0599988  30.1020012 114.4644997  51.8129988
  28.7490012 114.7014997  51.1769988  29.6133644 114.7985900  51.1789539
  33.0080012 118.6354997  51.9129988  32.4940012 118.5094997  52.7109988
  32.8530012 119.5474997  51.6689988  32.9166852 118.7416132  51.9892158
  33.7710012 123.4964997  37.6749988  33.8130012 123.2734997  36.7449988
  34.6200012 123.8954997  37.8649988  33.8915396 123.5199155  37.5733627
  29.3430012 117.3724997  38.3449988  29.0900012 117.3914997  39.2679988
  29.0870012 116.5004997  38.0439988  29.2737790 117.2572437  38.4306263
  25.1100012 120.1234997  48.7799988  24.4680012 120.0824997  49.4889988
  25.1470012 121.0494997  48.5429988  25.0271324 120.2431559  48.8449824
  25.1070012 120.3444997  43.6919988  24.2140012 120.0034997  43.6339988
  25.5570012 119.9674997  42.9369988  25.0457305 120.2468484  43.5819177
  30.6420012 120.7604997  42.5089988  30.2330012 121.5754997  42.2179988
  31.3630012 120.6204997  41.8949988  30.6834537 120.8532018  42.3861342
  29.7440012 120.9354997  53.9969988  29.1820012 120.2314997  54.3179988
  30.5710012 120.8154997  54.4649988  29.7787095 120.8227883  54.1042330
  31.6470012 120.2064997  45.3229988  31.4520012 120.8114997  44.6079988
  31.8280012 119.3724997  44.8889988  31.6447614 120.1766300  45.1664405
  22.8600012 120.4434997  50.6469988  22.8220012 120.8434997  51.5159988
  22.3690012 119.6264997  50.7379988  22.7884684 120.3878069  50.7781059
  26.2260012 117.8174997  37.4459988  25.7950012 117.3724997  38.1759988
  25.5080012 118.1894997  36.9339988  26.0699438 117.8068940  37.4766799
  19.4680012 117.5594997  44.4979988  20.0990012 117.5304997  45.2169988
  19.9170012 117.1344997  43.7679988  19.6150774 117.4980492  44.4976553
  20.7420012 118.3054997  39.9219988  21.2160012 118.8964997  39.3369988
  20.0250012 118.8364997  40.2689988  20.7099341 118.4580867  39.8888836
  30.9110012 121.8444997  49.9949988  31.2340012 121.2134997  49.3519988
  30.4710012 121.3094997  50.6549988  30.8956895 121.6858441  49.9962850
  27.6880012 117.7714997  44.7789988  26.7770012 117.8284997  45.0669988
  28.1940012 117.7114997  45.5889988  27.6315413 117.7711985  44.9280622
  22.5170012 119.4004997  43.6049988  21.6270012 119.5004997  43.2649988
  22.8130012 118.5584997  43.2589988  22.4352823 119.3003545  43.5117213
  26.1700012 119.4004997  41.2619988  27.1010012 119.5294997  41.4399988
  25.9550012 120.0704997  40.6119988  26.2684247 119.5086565  41.1985747
  32.0930012 117.0064997  48.0429988  31.4170012 117.1374997  48.7069988
  31.6080012 116.8514997  47.2329988  31.9347145 117.0034905  48.0244517
  24.8440012 120.5954997  38.8289988  24.3010012 120.2154997  38.1369988
  25.6770012 120.7894997  38.3999988  24.8824399 120.5698124  38.6764526
  35.3810012 132.6784997  54.3199988  35.5810012 133.1024997  53.4849988
  36.0360012 133.0214997  54.9269988  35.4970051 132.7829648  54.2877836
  22.9790012 125.1524997  53.9279988  23.7110012 125.4064997  54.4889988
  22.1990012 125.3564997  54.4429988  22.9738232 125.2149177  54.0745760
  29.0080012 120.5594997  46.6659988  29.5730012 120.0124997  46.1189988
  28.8610012 120.0374997  47.4539988  29.0652918 120.4142024  46.6978454
  24.0100012 116.6954997  43.0839988  23.6930012 115.7934997  43.0489988
  24.7920012 116.6974997  42.5309988  24.0722284 116.5721628  43.0044783
  27.6350012 118.9474997  49.0799988  26.7990012 119.4014997  49.1899988
  28.1590012 119.2234997  49.8319988  27.5914414 119.0469376  49.1967136
  28.1790012 125.1604997  40.7639988  27.4340012 124.6534997  40.4419988
  28.0450012 125.2094997  41.7109988  28.0588776 125.0976940  40.8478647
  35.3290012 124.2934997  49.5509988  35.9710012 124.7504997  49.0069988
  34.4990012 124.4064997  49.0879988  35.3045963 124.3712704  49.4140177
  32.0770012 117.9744997  38.9639988  31.1380012 118.0864997  38.8119988
  32.3740012 118.8314997  39.2699988  31.9887666 118.1056443  38.9845768
  29.6980012 125.3444997  52.0009988  29.3530012 124.9634997  52.8079988
  29.4980012 126.2784997  52.0729988  29.6238061 125.4185228  52.1210961
  32.7950012 119.8414997  40.6239988  33.6870012 119.7044997  40.9429988
  32.8520012 120.6324997  40.0879988  32.9246285 119.9296660  40.5951691
  23.3040012 124.4554997  46.5339988  24.0490012 124.4534997  45.9329988
  23.3820012 123.6324997  47.0159988  23.4165518 124.3439315  46.5168929
  30.3050012 126.6194997  39.7899988  30.0090012 127.4454997  40.1709988
  29.6020012 125.9994997  39.9859988  30.1694914 126.6488199  39.8686443
  20.3120012 122.9164997  51.8489988  20.5350012 122.4984997  52.6809988
  19.7100012 122.3034997  51.4259988  20.2611759 122.7764668  51.9057022
  27.3280012 122.4334997  54.0619988  27.0320012 122.2674997  53.1669988
  28.2600012 122.2134997  54.0509988  27.4134166 122.3810640  53.9380536
  31.9490012 127.8064997  51.9519988  31.0480012 127.9894997  51.6839988
  31.9830012 128.0654997  52.8729988  31.8303041 127.8665512  52.0398197
  37.6800012 120.0514997  40.3189988  37.1260012 119.6554997  39.6469988
  37.7800012 120.9614997  40.0409988  37.6177059 120.1203586  40.1894401
  37.6430012 125.8514997  53.1559988  36.7920012 126.0894997  52.7889988
  38.2340012 125.8344997  52.4029988  37.6062487 125.8818258  53.0038893
  35.9750012 128.8374997  40.7839988  35.6020012 128.0114997  41.0929988
  36.2530012 128.6544997  39.8869988  35.9615630 128.6997303  40.7049626
  33.1360012 123.6454997  47.8049988  32.2070012 123.4134997  47.7779988
  33.5870012 122.8684997  47.4749988  33.0699216 123.5087238  47.7566917
  25.6790012 127.9734997  43.9379988  26.2060012 128.7464997  43.7379988
  24.7990012 128.1984997  43.6369988  25.6321773 128.1098005  43.8699010
  21.4340012 122.8354997  38.5249988  22.0500012 123.4624997  38.9049988
  20.5720012 123.1514997  38.7969988  21.4017698 122.9639430  38.6137183
  27.1060012 125.6364997  43.5149988  26.8650012 126.5614997  43.5559988
  26.3650012 125.1774997  43.9109988  26.9728409 125.7011421  43.5741377
  27.6210012 129.7854997  49.8299988  27.9830012 130.6404997  49.5959988
  28.1520012 129.4934997  50.5699988  27.7424473 129.8631060  49.8980855
  25.7890012 130.6584997  43.0599988  24.8390012 130.7634997  43.1109988
  26.1410012 131.4784997  43.4049988  25.7064203 130.7838314  43.1136650
  31.1650012 125.8844997  49.5299988  30.7390012 125.6574997  50.3569988
  31.7450012 125.1464997  49.3479988  31.1851868 125.7535299  49.6185830
  33.3680012 126.8134997  38.6039988  33.7210012 126.4334997  39.4089988
  32.4190012 126.7204997  38.6909988  33.2880441 126.7489596  38.7258559
  33.8230012 130.4364997  51.9999988  33.2220012 129.8814997  51.5039988
  34.1050012 131.1034997  51.3739988  33.7788519 130.4506841  51.8474952
  37.8710012 131.2934997  38.8049988  38.6150012 131.8794997  38.6649988
  37.1770012 131.8614997  39.1389988  37.8790292 131.4505582  38.8309961
  21.9460012 117.6694997  51.4069988  21.0530012 118.0084997  51.3389988
  21.8470012 116.8144997  51.8249988  21.8104164 117.6002588  51.4542235
  34.2340012 125.4864997  40.8309988  33.9560012 124.7584997  41.3869988
  35.1610012 125.6054997  41.0359988  34.3213124 125.4028802  40.9348845
  21.5970012 129.4744997  49.8419988  21.8140012 128.5424997  49.8109988
  21.8430012 129.7484997  50.7249988  21.6599549 129.3840636  49.9571763
  27.4590012 127.9254997  37.0509988  27.6980012 127.1774997  36.5039988
  27.1900012 127.5374997  37.8839988  27.4553675 127.7706638  37.0886865
  26.3960012 127.4954997  39.5079988  26.5420012 126.9754997  40.2979988
  26.3930012 128.4024997  39.8139988  26.4155989 127.5468853  39.6576088
  22.8490012 124.7484997  40.0179988  22.1630012 125.1004997  40.5849988
  23.3710012 125.5114997  39.7709988  22.8256852 124.8998578  40.0622118
  30.6800012 117.4104997  50.2969988  31.3790012 117.4844997  50.9469988
  30.2990012 116.5464997  50.4509988  30.7241767 117.3037624  50.4068322
  31.4650012 117.0624997  41.3939988  31.6850012 117.5344997  40.5909988
  32.0230012 117.4574997  42.0639988  31.5704968 117.1804285  41.3747331
  29.1330012 129.1934997  40.2569988  28.3170012 129.6904997  40.3089988
  29.6630012 129.6684997  39.6169988  29.0929161 129.3257722  40.1775956
  28.6650012 118.7904997  42.2289988  29.4770012 119.2954997  42.2749988
  28.4200012 118.6454997  43.1429988  28.7430520 118.8400375  42.3588517
  29.2000012 119.7764997  51.4139988  29.3190012 120.3504997  52.1709988
  29.8560012 119.0884997  51.5279988  29.3049757 119.7621079  51.5330825
  29.5480012 115.8714997  43.1669988  29.2020012 116.4894997  43.8119988
  30.2070012 116.3724997  42.6859988  29.5897826 116.0235802  43.1900971
  26.4720012 130.2374997  40.2389988  26.6320012 131.0364997  39.7379988
  26.2740012 130.5434997  41.1239988  26.4671649 130.3884469  40.2899815
  25.2060012 116.9344997  39.8539988  25.1230012 117.8234997  40.2009988
  26.0960012 116.6694997  40.0859988  25.3149469 117.0201430  39.9327626
  35.4050012 117.6834997  52.2489988  34.4880012 117.9464997  52.1609988
  35.7400012 117.6804997  51.3519988  35.3249900 117.7190224  52.1157919
  34.0070012 121.4344997  46.3439988  33.2090012 121.0194997  46.0159988
  34.4520012 120.7434997  46.8349988  33.9579885 121.2843543  46.3654889
  23.4650012 127.3624997  38.9149988  24.0570012 128.0614997  39.1909988
  23.9240012 126.9294997  38.1949988  23.6081142 127.3997049  38.8554830
  21.7810012 120.0264997  38.0309988  21.7360012 120.9654997  38.2089988
  20.8930012 119.7904997  37.7609988  21.6548574 120.1231892  38.0188912
  35.0930012 130.6904997  47.9669988  34.9380012 131.3684997  47.3099988
  36.0260012 130.7624997  48.1699988  35.1978500 130.7930170  47.9045119
  22.5890012 114.8084997  46.7039988  22.3600012 114.8674997  45.7759988
  22.1460012 114.0164997  47.0099988  22.4978530 114.7095753  46.6184786
  21.5190012 128.7484997  42.8639988  20.6870012 129.2214997  42.8919988
  22.0650012 129.2584997  42.2659988  21.4789739 128.8821871  42.7869716
  20.8070012 131.3614997  54.1939988  21.3480012 131.1444997  54.9539988
  20.3260012 130.5554997  54.0049988  20.8159345 131.2229514  54.2723076
  25.4050012 130.2804997  55.8149988  26.1720012 129.8214997  56.1559988
  25.3830012 130.0544997  54.8849988  25.5071434 130.1870409  55.7360043
  29.4970012 129.7884997  37.1899988  28.8530012 129.1574997  37.5109988
  30.2590012 129.2574997  36.9579988  29.5118077 129.6302920  37.2026011
  31.9820012 128.6604997  54.5439988  31.6310012 127.8044997  54.7869988
  32.7080012 128.8034997  55.1509988  32.0320769 128.5625636  54.6593619
  34.1010012 129.6054997  37.4239988  34.3840012 128.8114997  37.8759988
  34.8410012 129.8384997  36.8629988  34.2397486 129.5282803  37.4100698
  20.7140012 125.1714997  55.1489988  20.8580012 124.2694997  54.8619988
  19.9420012 125.4574997  54.6609988  20.6293322 125.0868261  55.0437881
  25.0560012 125.5154997  37.2809988  25.1200012 124.7214997  37.8119988
  25.7090012 125.3964997  36.5909988  25.1530241 125.3907148  37.2604317
  27.3700012 125.1414997  54.5809988  27.0410012 125.4124997  53.7239988
  27.5220012 124.2004997  54.4939988  27.3454809 125.0513862  54.4518244
  30.4080012 126.5624997  37.0169988  30.1390012 126.7424997  37.9179988
  30.2020012 125.6364997  36.8859988  30.3433825 126.4620152  37.1225214
  33.1040012 125.0574997  51.9649988  33.8500012 125.6454997  51.8449988
  32.3470012 125.6394997  52.0279988  33.1037554 125.2167011  51.9570907
  21.5470012 122.3714997  54.5689988  21.9550012 121.5144997  54.4479988
  21.2870012 122.3864997  55.4899988  21.5677568 122.2560807  54.6769588
  26.2050012 123.4874997  39.5869988  25.7450012 123.0034997  40.2729988
  26.4600012 122.8194997  38.9509988  26.1764902 123.3308731  39.5949334
  25.4940012 121.3804997  51.9429988  24.8760012 122.0554997  52.2229988
  25.8380012 121.7014997  51.1099988  25.4559615 121.5162721  51.8686581
  27.2760012 121.7304997  37.8489988  27.0960012 121.5764997  36.9219988
  28.2260012 121.8384997  37.8939988  27.3797776 121.7240175  37.7281843
  30.5140012 123.8524997  55.2199988  31.4670012 123.9354997  55.1929988
  30.3530012 123.1404997  55.8399988  30.6226426 123.7676746  55.3000579
  36.6660012 124.0854997  37.2949988  36.3920012 123.6604997  36.4819988
  36.7050012 125.0164997  37.0779988  36.6337699 124.1532484  37.1543610
  25.8330012 118.7354997  53.0249988  25.9830012 118.0064997  52.4229988
  25.8360012 119.5124997  52.4659988  25.8539302 118.7407851  52.8670692
  26.2460012 117.1054997  50.5179988  26.7820012 117.5564997  49.8659988
  25.3940012 116.9974997  50.0949988  26.2042178 117.1526390  50.3715756
  27.8280012 122.5444997  50.7569988  28.5780012 122.3884997  50.1839988
  27.4890012 123.3964997  50.4819988  27.8848921 122.6382968  50.6413561
  32.2430012 120.3594997  55.7859988  32.4360012 119.4284997  55.6739988
  33.1010012 120.7844997  55.7759988  32.3853020 120.2896389  55.7693361
  33.5600012 123.1484997  53.8629988  33.2790012 123.8574997  53.2859988
  34.5030012 123.0754997  53.7119988  33.6489027 123.2357646  53.7635551
  24.3120012 119.9334997  54.9369988  23.5450012 119.4014997  54.7269988
  24.9910012 119.6234997  54.3369988  24.2987022 119.8187506  54.8271648
  27.0520012 114.5614997  50.9489988  26.9530012 115.5084997  50.8439988
  26.3090012 114.1894997  50.4739988  26.9380563 114.6405902  50.8704560
  28.3160012 118.8834997  54.5129988  28.0800012 118.6634997  55.4149988
  27.5320012 118.6764997  54.0029988  28.1778628 118.8254760  54.5673932
  31.0310012 118.0104997  53.5889988  30.0840012 118.0424997  53.7209988
  31.3440012 117.3854997  54.2419988  30.9435475 117.9303207  53.6954455
  32.6650012 116.6444997  55.5939988  32.5690012 115.6924997  55.5879988
  32.3440012 116.9134997  56.4539988  32.6084070 116.5504035  55.7095441
  22.4920012 117.8544997  54.6409988  22.7040012 117.1474997  54.0309988
  22.3810012 117.4164997  55.4849988  22.5059721 117.6987084  54.6716843
  27.2730012 113.8554997  53.6209988  27.9850012 113.2154997  53.6069988
  27.1720012 114.1224997  52.7069988  27.3567939 113.8039938  53.4955650
  27.6270012 115.5384997  55.6739988  27.4950012 115.0624997  54.8539988
  27.0280012 116.2824997  55.6189988  27.5279071 115.5739618  55.5542886
  27.1730012 132.4214997  38.8509988  28.1060012 132.5794997  38.9939988
  26.9090012 133.0964997  38.2259988  27.2649510 132.5343611  38.7860741
  20.7420012 127.0574997  38.3329988  21.6560012 127.1364997  38.6069988
  20.7490012 126.3704997  37.6669988  20.8681131 126.9753961  38.2804393
  19.3910012 132.4504997  43.4109988  18.7440012 131.9884997  42.8779988
  19.7450012 131.7784997  43.9929988  19.3503849 132.2964723  43.4167959
  20.2610012 130.5314997  45.2149988  19.9260012 129.6514997  45.3869988
  20.4830012 130.8764997  46.0799988  20.2451783 130.4577500  45.3554208
  37.8090012 131.3404997  48.1959988  37.7880012 131.5254997  49.1349988
  38.5000012 131.9094997  47.8549988  37.8994618 131.4426606  48.2783864
  37.3730012 130.9084997  51.1179988  36.8850012 130.1724997  50.7469988
  37.9220012 130.5144997  51.7959988  37.3804872 130.7546249  51.1589160
  35.8230012 126.6974997  55.7559988  34.9570012 126.5924997  56.1499988
  36.2000012 127.4564997  56.2019988  35.7553308 126.7856900  55.8702393
  37.1240012 124.9544997  41.2699988  37.9740012 125.3754997  41.3969988
  37.1300012 124.2144997  41.8769988  37.2411372 124.9120803  41.3694344
  37.5190012 123.0074997  43.0939988  36.7920012 122.5284997  43.4909988
  38.1000012 123.2134997  43.8259988  37.4979375 122.9697090  43.2474129
  37.2780012 125.7924997  48.0409988  38.1110012 125.4144997  47.7609988
  37.3900012 126.7354997  47.9219988  37.4072647 125.8682218  47.9865487
  35.7640012 128.6704997  50.3479988  35.1170012 128.9954997  50.9739988
  35.2470012 128.2304997  49.6739988  35.6054029 128.6555004  50.3425827
  37.7870012 122.9084997  39.4849988  37.2650012 123.2654997  38.7659988
  37.7540012 123.5834997  40.1629988  37.7111634 123.0485413  39.4783145
  36.1360012 120.1484997  38.0359988  36.2320012 120.8154997  37.3549988
  35.9960012 119.3324997  37.5539988  36.1302135 120.1294500  37.8778491
  35.3050012 121.5284997  43.6569988  35.1550012 120.5834997  43.6359988
  34.9520012 121.8094997  44.4999988  35.2366625 121.4370441  43.7682346
  20.3410012 123.6064997  47.6669988  20.5250012 123.5244997  46.7309988
  21.1900012 123.4824997  48.0909988  20.4810139 123.5785003  47.5961455
  36.1620012 123.4984997  53.2949988  36.7450012 122.7644997  53.4869988
  36.7260012 124.2704997  53.3419988  36.3179769 123.5024227  53.3276159
  37.6580012 121.4014997  53.9799988  36.7950012 121.0224997  53.8139988
  38.2630012 120.6624997  53.9059988  37.6215979 121.2498023  53.9472817
  35.3830012 117.5564997  37.1529988  35.9940012 117.1854997  37.7899988
  34.5470012 117.1354997  37.3489988  35.3535032 117.4487554  37.2667035
  35.0160012 119.1114997  42.1189988  35.2960012 118.2044997  42.2429988
  35.7750012 119.5454997  41.7299988  35.1569277 119.0460942  42.0833682
  35.6280012 119.6924997  47.5549988  36.5610012 119.9044997  47.5209988
  35.3930012 119.7944997  48.4769988  35.7238036 119.7352769  47.6749976
  35.6570012 120.4294997  50.3309988  34.8140012 120.6974997  50.6969988
  36.0990012 121.2514997  50.1199988  35.6014158 120.5773291  50.3525491
  19.9380012 118.8774997  53.8079988  20.8580012 118.7554997  54.0439988
  19.4890012 118.1274997  54.1969988  20.0031580 118.7593727  53.8929006
  37.9400012 114.4094997  55.6839988  38.2900012 113.7554997  55.0789988
  38.0870012 115.2464997  55.2449988  38.0078419 114.4331591  55.5417118
  35.6290012 116.3744997  42.1669988  35.8120012 115.9254997  42.9929988
  35.0300012 115.7894997  41.7039988  35.5730202 116.2339975  42.2173275
  21.1590012 117.1894997  46.6989988  21.6050012 116.3974997  47.0009988
  21.6260012 117.9054997  47.1299988  21.2830172 117.1780624  46.7984820
  19.4630012 120.1884997  47.7679988  19.9550012 119.9674997  46.9769988
  19.8260012 121.0294997  48.0489988  19.5793126 120.2718357  47.6977531
  37.4600012 116.5184997  54.0339988  36.5420012 116.7894997  53.9979988
  37.5830012 115.9834997  53.2489988  37.3511066 116.4832892  53.9230487
  37.4960012 116.4414997  38.6949988  37.9080012 115.7204997  38.2199988
  38.1780012 117.1114997  38.7539988  37.6445885 116.4332368  38.6378915
  19.7770012 116.4464997  41.8219988  18.8520012 116.6554997  41.6929988
  20.2310012 116.9304997  41.1329988  19.7117368 116.5405993  41.7111226
  34.5480012 131.4304997  43.7679988  35.2000012 131.0834997  43.1599988
  35.0580012 131.9194997  44.4139988  34.7062637 131.4490597  43.7720236
  19.7410012 115.1844997  50.1669988  19.0760012 114.9384997  50.8099988
  19.2980012 115.8064997  49.5889988  19.5900956 115.2348632  50.1769352
  21.9330012 128.3594997  54.3109988  21.1120012 128.5344997  53.8509988
  21.6800012 128.2864997  55.2319988  21.7866164 128.3735622  54.3724923
  24.8870012 129.3344997  50.5699988  24.4620012 130.1434997  50.2869988
  25.7910012 129.4194997  50.2679988  24.9510271 129.4568469  50.4903776
  29.1980012 130.7334997  53.5289988  29.3830012 130.3994997  54.4069988
  30.0440012 131.0424997  53.2069988  29.3377539 130.7296047  53.6055605
  31.5430012 132.0194997  52.7729988  32.2200012 131.3864997  52.5329988
  31.8650012 132.4204997  53.5799988  31.6791637 131.9871154  52.8492793
  36.4600012 114.6084997  51.8529988  35.6480012 114.9334997  51.4649988
  36.6930012 113.8484997  51.3199988  36.3803423 114.5502436  51.7278253
  22.2890012 132.5904997  50.6169988  21.5680012 133.0304997  50.1659988
  21.9230012 132.3394997  51.4659988  22.1409804 132.6167698  50.6699840
  24.7560012 132.1904997  49.6469988  23.8910012 132.2624997  50.0509988
  24.7010012 132.7374997  48.8629988  24.6302085 132.2742685  49.5963362
  29.4660012 132.0784997  48.8219988  29.0100012 132.6074997  48.1679988
  29.6290012 132.6814997  49.5479988  29.4255585 132.2324468  48.8305062
  31.7940012 130.9564997  49.7669988  30.8890012 131.1214997  49.5019988
  32.2230012 131.8094997  49.7019988  31.7280799 131.0944483  49.7219182
  34.3980012 132.5264997  50.0619988  34.2160012 133.4424997  49.8519988
  34.5750012 132.1164997  49.2159988  34.3970210 132.5964822  49.9187885
  21.7030012 131.2134997  47.5269988  21.6850012 130.7884997  48.3849988
  22.5080012 130.8954997  47.1189988  21.8093875 131.1123812  47.5891655
  23.8450012 129.9234997  46.1819988  23.6260012 129.0074997  46.3519988
  24.6690012 130.0634997  46.6479988  23.9264420 129.8170520  46.2682773
  26.3820012 130.3934997  47.0309988  26.5950012 129.5054997  46.7439988
  26.4460012 130.3594997  47.9849988  26.4198231 130.2673102  47.1207397
  29.8900012 116.0574997  46.1749988  29.2160012 115.4284997  46.4309988
  30.4540012 115.5734997  45.5719988  29.8739230 115.9058744  46.1285340
  35.0330012 114.1654997  46.2879988  35.6370012 114.7124997  45.7859988
  34.1630012 114.4844997  46.0479988  34.9981241 114.2835806  46.1867654
  36.7600012 115.3034997  44.6209988  37.3720012 114.7894997  44.0949988
  37.1420012 116.1814997  44.6449988  36.8954540 115.3517140  44.5521830
  22.2170012 114.6914997  43.9969988  21.4400012 114.4574997  43.4899988
  22.7470012 113.8944997  44.0059988  22.1822330 114.5516988  43.9287742
  21.0530012 114.4894997  39.8009988  21.4920012 115.1004997  39.2089988
  20.4200012 115.0274997  40.2749988  21.0274514 114.6459257  39.7840930
  26.7960012 114.6184997  43.8109988  27.6710012 115.0064997  43.7809988
  26.6600012 114.4034997  44.7329988  26.8973695 114.6425184  43.9316440
  32.3530012 114.6484997  45.4599988  32.4290012 114.7434997  44.5099988
  32.0780012 113.7404997  45.5889988  32.3262321 114.5387867  45.3475079
  33.7060012 114.6744997  41.1519988  33.0040012 115.2894997  40.9429988
  33.2620012 113.8364997  41.2829988  33.5496330 114.6455783  41.1410328
  20.9540012 130.4374997  40.6989988  20.2690012 130.3994997  40.0309988
  20.9580012 131.3504997  40.9869988  20.8608193 130.5557016  40.6465284
  22.9140012 116.4054997  38.2429988  23.4060012 115.7754997  37.7159988
  23.5380012 116.7014997  38.9069988  23.0655446 116.3593199  38.2605980
  27.9400012 116.6984997  40.6999988  28.1180012 116.0524997  41.3829988
  27.8870012 117.5324997  41.1679988  27.9571829 116.7227985  40.8565940
  29.8190012 131.6474997  39.0959988  30.6850012 132.0134997  38.9179988
  29.5720012 131.2074997  38.2819988  29.9042392 131.6381756  38.9616289
  36.5280012 131.2104997  41.7749988  36.3330012 130.4624997  41.2099988
  36.4890012 131.9684997  41.1919988  36.4960380 131.2106099  41.6188384
  22.1750012 115.2054997  53.5149988  21.8090012 114.4404997  53.9579988
  23.0880012 115.2344997  53.8019988  22.2482790 115.1047224  53.6144070
  24.1480012 114.5564997  55.0509988  25.0460012 114.2824997  54.8659988
  23.7610012 113.8134997  55.5149988  24.2186612 114.4185914  55.0883643
  22.7720012 131.3574997  37.7239988  22.5050012 131.6444997  38.5969988
  23.5440012 130.8114997  37.8759988  22.8397488 131.3230294  37.8641050
  32.5690012 113.8884997  55.2329988  32.6460012 113.4624997  56.0869988
  33.4630012 113.9024997  54.8899988  32.7003428 113.8320880  55.3035310
  35.7450012 129.9614997  53.9249988  34.9630012 129.7754997  53.4059988
  35.6730012 130.8904997  54.1429988  35.6281777 130.0616492  53.8834048
  50.1510012 123.8474997  43.9559988  50.2400012 124.7914997  43.8239988
  49.5130012 123.5724997  43.2979988  50.0769081 123.9394830  43.8489614
  49.0840012 123.1024997  47.3749988  49.0460012 122.4564997  48.0799988
  48.7620012 122.6364997  46.6039988  49.0352333 122.9509408  47.3672978
  41.4530012 122.7174997  48.9679988  41.4940012 122.0914997  49.6909988
  42.1560012 123.3414997  49.1499988  41.5536363 122.7161196  49.0916044
  52.7900012 126.0414997  45.6759988  52.3500012 125.3214997  46.1269988
  52.7770012 126.7624997  46.3059988  52.7280226 126.0403731  45.8228494
  42.3760012 127.1674997  47.5029988  42.0070012 126.3654997  47.1329988
  43.3170012 126.9984997  47.5489988  42.4527289 127.0350153  47.4586316
  38.9860012 120.8274997  42.8959988  38.5390012 121.6734997  42.8769988
  38.4250012 120.2474997  42.3799988  38.8489900 120.8649916  42.8236801
  39.6970012 122.9894997  45.0219988  39.9100012 122.2194997  45.5489988
  40.4350012 123.0784997  44.4179988  39.8258496 122.8961394  45.0125300
  49.9020012 131.1464997  45.8889988  50.5220012 130.4694997  45.6149988
  49.6940012 130.9284997  46.7969988  49.9586904 131.0243870  45.9743365
  47.4740012 125.5354997  47.7809988  47.7780012 124.8494997  47.1859988
  48.1950012 125.6534997  48.3989988  47.6130671 125.4576305  47.7831816
  56.1370012 117.1364997  48.6419988  56.1860012 117.7464997  49.3779988
  56.5620012 117.5974997  47.9189988  56.2011824 117.2823741  48.6450205
  50.6150012 119.9294997  48.1089988  50.7570012 118.9834997  48.1289988
  50.5080012 120.1364997  47.1799988  50.6199864 119.8279534  47.9862339
  43.7690012 118.0304997  45.3809988  43.8130012 118.8904997  44.9629988
  43.3120012 117.4784997  44.7469988  43.7132185 118.0735799  45.2380299
  51.4920012 118.1614997  43.7819988  52.1380012 117.8324997  44.4069988
  52.0020012 118.6794997  43.1589988  51.6494264 118.1864611  43.7833862
  40.3900012 120.4274997  46.1429988  41.0430012 119.8774997  46.5749988
  40.4140012 120.1534997  45.2259988  40.4826683 120.3151466  46.0782123
  45.5460012 121.9774997  45.3579988  46.1620012 121.4514997  45.8679988
  44.9600012 121.3374997  44.9549988  45.5510810 121.8189208  45.3733173
  56.5280012 118.6144997  50.8779988  55.8400012 119.2724997  50.7819988
  56.5440012 118.4174997  51.8139988  56.4358525 118.6780462  50.9914808
  42.5800012 116.9484997  49.4549988  42.3610012 117.4784997  48.6889988
  41.9120012 117.1754997  50.1019988  42.4597600 117.0516906  49.4376379
  49.9490012 126.4484997  42.9989988  49.6530012 126.1264997  42.1479988
  49.6240012 127.3484997  43.0399988  49.8646371 126.5260215  42.8881801
  45.1490012 124.6244997  49.7419988  44.4090012 125.2224997  49.8459988
  45.8630012 125.1784997  49.4269988  45.1442237 124.7812831  49.7136465
  53.2560012 117.4524997  45.7619988  53.0400012 116.6864997  46.2949988
  53.9110012 117.9244997  46.2749988  53.3150632 117.4115889  45.9042861
  42.1730012 118.8404997  47.4069988  42.7870012 119.4734997  47.7809988
  42.6850012 118.3684997  46.7509988  42.3262296 118.8632370  47.3694252
  43.5560012 126.5884997  50.5299988  43.5510012 127.4684997  50.1519988
  42.7030012 126.5054997  50.9549988  43.4399464 126.6976117  50.5357907
  39.6770012 126.2594997  41.3119988  39.4050012 126.4884997  40.4229988
  39.7230012 127.0974997  41.7719988  39.6460094 126.4041213  41.2525697
  53.3020012 127.8814997  48.0239988  52.3610012 127.9394997  48.1859988
  53.5790012 128.7874997  47.8869988  53.2104679 128.0119443  48.0276815
  53.6030012 116.1674997  49.4419988  52.8670012 116.7784997  49.4039988
  54.2860012 116.5824997  48.9149988  53.5946541 116.3071374  49.3655832
  46.6060012 114.2544997  46.9079988  46.4890012 113.3054997  46.8529988
  45.7510012 114.5864997  47.1809988  46.4743733 114.1695409  46.9373897
  51.5540012 129.6624997  44.6499988  51.9800012 128.9554997  44.1649988
  51.8710012 130.4634997  44.2329988  51.6551019 129.6740994  44.5273130
  52.7140012 127.5634997  43.1579988  52.4560012 126.8734997  42.5469988
  52.7850012 127.1204997  44.0039988  52.6882856 127.4092124  43.1886885
  54.4000012 126.1294997  51.6359988  54.5400012 125.5384997  50.8959988
  54.5670012 127.0024997  51.2789988  54.4416778 126.1666426  51.4866965
  48.8730012 123.0914997  41.4079988  48.1610012 123.6264997  41.0559988
  49.5640012 123.1474997  40.7479988  48.8690132 123.1722543  41.2706289
  48.9260012 121.5494997  38.4469988  49.6270012 121.5714997  39.0979988
  49.2290012 120.9214997  37.7909988  49.0627830 121.4676566  38.4473711
  56.2420012 122.4694997  49.7019988  55.5890012 123.1644997  49.7909988
  56.7070012 122.6794997  48.8919988  56.2155390 122.5929425  49.6046883
  52.2780012 123.3014997  42.3599988  51.5460012 123.5294997  42.9329988
  52.7260012 122.5874997  42.8149988  52.2383095 123.2362571  42.4999119
  52.1760012 121.4754997  51.4269988  52.2560012 122.2384997  51.9989988
  51.5740012 121.7544997  50.7369988  52.1055756 121.6177134  51.4120589
  43.9240012 123.9314997  44.2419988  43.5930012 123.5614997  43.4239988
  44.5120012 123.2614997  44.5889988  43.9581873 123.7901156  44.1768102
  45.2900012 127.3594997  46.9239988  45.1960012 126.7814997  46.1669988
  46.0200012 126.9884997  47.4199988  45.3757981 127.2302390  46.8874165
  44.2900012 122.7004997  47.8759988  44.8560012 122.8214997  47.1129988
  44.6090012 123.3374997  48.5149988  44.4105786 122.8031884  47.8580040
  50.5990012 128.2034997  48.6099988  50.3590012 128.8654997  49.2579988
  50.4010012 127.3694997  49.0349988  50.5393808 128.1813134  48.7561524
  45.1700012 127.0994997  52.5929988  44.8590012 127.8814997  53.0479988
  44.5200012 126.9464997  51.9069988  45.0395558 127.1859105  52.5625871
  51.1490012 122.4634997  40.0449988  51.7290012 122.6134997  40.7919988
  51.5630012 122.9344997  39.3219988  51.2842830 122.5476841  40.0494134
  42.0900012 123.2974997  51.8219988  42.1610012 123.9484997  52.5199988
  41.2000012 123.4004997  51.4869988  41.9793117 123.4005936  51.8722700
  48.8760012 129.2004997  43.4799988  49.3500012 129.4954997  44.2579988
  48.3130012 129.9384997  43.2469988  48.8647653 129.3406932  43.5550136
  43.4100012 129.1714997  53.3559988  43.4170012 129.0354997  52.4089988
  42.4940012 129.0534997  53.6079988  43.2871714 129.1369430  53.2604666
  54.8480012 114.2134997  39.8579988  53.9480012 114.3524997  40.1529988
  55.1000012 115.0444997  39.4559988  54.7588702 114.3449074  39.8440205
  42.9140012 123.0014997  41.8319988  42.6220012 123.7694997  41.3409988
  42.2400012 122.3414997  41.6689988  42.7829081 123.0174406  41.7427340
  56.0370012 128.5794997  38.2339988  56.1110012 129.5184997  38.4049988
  56.9430012 128.2744997  38.1779988  56.1695100 128.6666722  38.2498119
  39.0070012 125.3644997  50.6469988  38.5060012 125.3364997  49.8319988
  39.0120012 124.4584997  50.9559988  38.9391526 125.2382278  50.5772872
  38.7570012 128.1444997  47.5309988  39.7030012 128.0004997  47.5119988
  38.6450012 128.9284997  48.0679988  38.8712727 128.2308046  47.6010072
  56.9550012 128.8104997  53.2129988  56.9060012 127.8554997  53.1759988
  56.1280012 129.0784997  53.6139988  56.8364940 128.7158998  53.2621375
  47.9340012 128.3844997  52.0889988  48.0210012 129.2104997  52.5639988
  47.0700012 128.0544997  52.3379988  47.8291964 128.4529878  52.1876549
  48.3480012 132.1564997  41.8949988  48.2730012 132.0354997  40.9489988
  48.3810012 133.1064997  42.0139988  48.3421848 132.2682500  41.7814834
  42.0010012 130.9454997  43.6759988  42.1540012 130.5974997  44.5549988
  41.1510012 130.5894997  43.4209988  41.9068962 130.8496650  43.7618340
  51.4500012 131.3104997  38.8969988  51.8250012 130.5664997  38.4269988
  51.4540012 131.0404997  39.8159988  51.5018915 131.1721486  38.9567824
  51.1190012 131.2364997  41.6469988  50.1830012 131.3364997  41.8249988
  51.3990012 130.5274997  42.2249988  51.0288255 131.1542711  41.7495391
  54.1070012 120.3034997  53.6929988  53.7000012 120.7844997  52.9719988
  54.1480012 119.3984997  53.3849988  54.0568437 120.2469374  53.5526683
  41.2560012 126.6874997  51.6899988  41.4720012 126.3264997  52.5489988
  40.4010012 126.3134997  51.4799988  41.1699292 126.5874111  51.7793386
  43.8750012 115.1574997  47.6849988  43.0130012 115.0704997  47.2779988
  43.8520012 116.0134997  48.1129988  43.7540330 115.2612765  47.6871863
  48.5380012 114.8794997  51.0599988  48.9580012 114.4644997  51.8129988
  47.6050012 114.7014997  51.1769988  48.4693644 114.7985900  51.1789539
  51.8640012 118.6354997  51.9129988  51.3500012 118.5094997  52.7109988
  51.7090012 119.5474997  51.6689988  51.7726852 118.7416132  51.9892158
  52.6270012 123.4964997  37.6749988  52.6690012 123.2734997  36.7449988
  53.4760012 123.8954997  37.8649988  52.7475396 123.5199155  37.5733627
  48.1990012 117.3724997  38.3449988  47.9460012 117.3914997  39.2679988
  47.9430012 116.5004997  38.0439988  48.1297790 117.2572437  38.4306263
  43.9660012 120.1234997  48.7799988  43.3240012 120.0824997  49.4889988
  44.0030012 121.0494997  48.5429988  43.8831324 120.2431559  48.8449824
  43.9630012 120.3444997  43.6919988  43.0700012 120.0034997  43.6339988
  44.4130012 119.9674997  42.9369988  43.9017305 120.2468484  43.5819177
  49.4980012 120.7604997  42.5089988  49.0890012 121.5754997  42.2179988
  50.2190012 120.6204997  41.8949988  49.5394537 120.8532018  42.3861342
  48.6000012 120.9354997  53.9969988  48.0380012 120.2314997  54.3179988
  49.4270012 120.8154997  54.4649988  48.6347095 120.8227883  54.1042330
  50.5030012 120.2064997  45.3229988  50.3080012 120.8114997  44.6079988
  50.6840012 119.3724997  44.8889988  50.5007614 120.1766300  45.1664405
  41.7160012 120.4434997  50.6469988  41.6780012 120.8434997  51.5159988
  41.2250012 119.6264997  50.7379988  41.6444684 120.3878069  50.7781059
  45.0820012 117.8174997  37.4459988  44.6510012 117.3724997  38.1759988
  44.3640012 118.1894997  36.9339988  44.9259438 117.8068940  37.4766799
  38.3240012 117.5594997  44.4979988  38.9550012 117.5304997  45.2169988
  38.7730012 117.1344997  43.7679988  38.4710774 117.4980492  44.4976553
  39.5980012 118.3054997  39.9219988  40.0720012 118.8964997  39.3369988
  38.8810012 118.8364997  40.2689988  39.5659341 118.4580867  39.8888836
  49.7670012 121.8444997  49.9949988  50.0900012 121.2134997  49.3519988
  49.3270012 121.3094997  50.6549988  49.7516895 121.6858441  49.9962850
  46.5440012 117.7714997  44.7789988  45.6330012 117.8284997  45.0669988
  47.0500012 117.7114997  45.5889988  46.4875413 117.7711985  44.9280622
  41.3730012 119.4004997  43.6049988  40.4830012 119.5004997  43.2649988
  41.6690012 118.5584997  43.2589988  41.2912823 119.3003546  43.5117213
  45.0260012 119.4004997  41.2619988  45.9570012 119.5294997  41.4399988
  44.8110012 120.0704997  40.6119988  45.1244247 119.5086565  41.1985747
  50.9490012 117.0064997  48.0429988  50.2730012 117.1374997  48.7069988
  50.4640012 116.8514997  47.2329988  50.7907145 117.0034905  48.0244517
  43.7000012 120.5954997  38.8289988  43.1570012 120.2154997  38.1369988
  44.5330012 120.7894997  38.3999988  43.7384399 120.5698124  38.6764526
  54.2370012 132.6784997  54.3199988  54.4370012 133.1024997  53.4849988
  54.8920012 133.0214997  54.9269988  54.3530051 132.7829648  54.2877836
  41.8350012 125.1524997  53.9279988  42.5670012 125.4064997  54.4889988
  41.0550012 125.3564997  54.4429988  41.8298232 125.2149177  54.0745760
  47.8640012 120.5594997  46.6659988  48.4290012 120.0124997  46.1189988
  47.7170012 120.0374997  47.4539988  47.9212918 120.4142024  46.6978454
  42.8660012 116.6954997  43.0839988  42.5490012 115.7934997  43.0489988
  43.6480012 116.6974997  42.5309988  42.9282284 116.5721628  43.0044783
  46.4910012 118.9474997  49.0799988  45.6550012 119.4014997  49.1899988
  47.0150012 119.2234997  49.8319988  46.4474414 119.0469376  49.1967136
  47.0350012 125.1604997  40.7639988  46.2900012 124.6534997  40.4419988
  46.9010012 125.2094997  41.7109988  46.9148776 125.0976940  40.8478647
  54.1850012 124.2934997  49.5509988  54.8270012 124.7504997  49.0069988
  53.3550012 124.4064997  49.0879988  54.1605963 124.3712704  49.4140177
  50.9330012 117.9744997  38.9639988  49.9940012 118.0864997  38.8119988
  51.2300012 118.8314997  39.2699988  50.8447666 118.1056443  38.9845768
  48.5540012 125.3444997  52.0009988  48.2090012 124.9634997  52.8079988
  48.3540012 126.2784997  52.0729988  48.4798061 125.4185228  52.1210961
  51.6510012 119.8414997  40.6239988  52.5430012 119.7044997  40.9429988
  51.7080012 120.6324997  40.0879988  51.7806285 119.9296660  40.5951691
  42.1600012 124.4554997  46.5339988  42.9050012 124.4534997  45.9329988
  42.2380012 123.6324997  47.0159988  42.2725518 124.3439315  46.5168929
  49.1610012 126.6194997  39.7899988  48.8650012 127.4454997  40.1709988
  48.4580012 125.9994997  39.9859988  49.0254914 126.6488199  39.8686443
  39.1680012 122.9164997  51.8489988  39.3910012 122.4984997  52.6809988
  38.5660012 122.3034997  51.4259988  39.1171759 122.7764668  51.9057022
  46.1840012 122.4334997  54.0619988  45.8880012 122.2674997  53.1669988
  47.1160012 122.2134997  54.0509988  46.2694166 122.3810640  53.9380536
  50.8050012 127.8064997  51.9519988  49.9040012 127.9894997  51.6839988
  50.8390012 128.0654997  52.8729988  50.6863041 127.8665512  52.0398197
  56.5360012 120.0514997  40.3189988  55.9820012 119.6554997  39.6469988
  56.6360012 120.9614997  40.0409988  56.4737059 120.1203586  40.1894401
  56.4990012 125.8514997  53.1559988  55.6480012 126.0894997  52.7889988
  57.0900012 125.8344997  52.4029988  56.4622487 125.8818258  53.0038893
  54.8310012 128.8374997  40.7839988  54.4580012 128.0114997  41.0929988
  55.1090012 128.6544997  39.8869988  54.8175630 128.6997303  40.7049626
  51.9920012 123.6454997  47.8049988  51.0630012 123.4134997  47.7779988
  52.4430012 122.8684997  47.4749988  51.9259216 123.5087238  47.7566917
  44.5350012 127.9734997  43.9379988  45.0620012 128.7464997  43.7379988
  43.6550012 128.1984997  43.6369988  44.4881773 128.1098005  43.8699010
  40.2900012 122.8354997  38.5249988  40.9060012 123.4624997  38.9049988
  39.4280012 123.1514997  38.7969988  40.2577698 122.9639430  38.6137183
  45.9620012 125.6364997  43.5149988  45.7210012 126.5614997  43.5559988
  45.2210012 125.1774997  43.9109988  45.8288409 125.7011421  43.5741377
  46.4770012 129.7854997  49.8299988  46.8390012 130.6404997  49.5959988
  47.0080012 129.4934997  50.5699988  46.5984473 129.8631060  49.8980855
  44.6450012 130.6584997  43.0599988  43.6950012 130.7634997  43.1109988
  44.9970012 131.4784997  43.4049988  44.5624203 130.7838314  43.1136650
  50.0210012 125.8844997  49.5299988  49.5950012 125.6574997  50.3569988
  50.6010012 125.1464997  49.3479988  50.0411868 125.7535299  49.6185830
  52.2240012 126.8134997  38.6039988  52.5770012 126.4334997  39.4089988
  51.2750012 126.7204997  38.6909988  52.1440441 126.7489596  38.7258559
  52.6790012 130.4364997  51.9999988  52.0780012 129.8814997  51.5039988
  52.9610012 131.1034997  51.3739988  52.6348519 130.4506841  51.8474952
  56.7270012 131.2934997  38.8049988  57.4710012 131.8794997  38.6649988
  56.0330012 131.8614997  39.1389988  56.7350292 131.4505582  38.8309961
  40.8020012 117.6694997  51.4069988  39.9090012 118.0084997  51.3389988
  40.7030012 116.8144997  51.8249988  40.6664164 117.6002588  51.4542235
  53.0900012 125.4864997  40.8309988  52.8120012 124.7584997  41.3869988
  54.0170012 125.6054997  41.0359988  53.1773124 125.4028802  40.9348845
  40.4530012 129.4744997  49.8419988  40.6700012 128.5424997  49.8109988
  40.6990012 129.7484997  50.7249988  40.5159549 129.3840636  49.9571763
  46.3150012 127.9254997  37.0509988  46.5540012 127.1774997  36.5039988
  46.0460012 127.5374997  37.8839988  46.3113675 127.7706638  37.0886865
  45.2520012 127.4954997  39.5079988  45.3980012 126.9754997  40.2979988
  45.2490012 128.4024997  39.8139988  45.2715989 127.5468853  39.6576088
  41.7050012 124.7484997  40.0179988  41.0190012 125.1004997  40.5849988
  42.2270012 125.5114997  39.7709988  41.6816852 124.8998578  40.0622118
  49.5360012 117.4104997  50.2969988  50.2350012 117.4844997  50.9469988
  49.1550012 116.5464997  50.4509988  49.5801767 117.3037624  50.4068322
  50.3210012 117.0624997  41.3939988  50.5410012 117.5344997  40.5909988
  50.8790012 117.4574997  42.0639988  50.4264968 117.1804285  41.3747331
  47.9890012 129.1934997  40.2569988  47.1730012 129.6904997  40.3089988
  48.5190012 129.6684997  39.6169988  47.9489161 129.3257722  40.1775956
  47.5210012 118.7904997  42.2289988  48.3330012 119.2954997  42.2749988
  47.2760012 118.6454997  43.1429988  47.5990520 118.8400375  42.3588517
  48.0560012 119.7764997  51.4139988  48.1750012 120.3504997  52.1709988
  48.7120012 119.0884997  51.5279988  48.1609757 119.7621079  51.5330825
  48.4040012 115.8714997  43.1669988  48.0580012 116.4894997  43.8119988
  49.0630012 116.3724997  42.6859988  48.4457826 116.0235802  43.1900971
  45.3280012 130.2374997  40.2389988  45.4880012 131.0364997  39.7379988
  45.1300012 130.5434997  41.1239988  45.3231649 130.3884469  40.2899815
  44.0620012 116.9344997  39.8539988  43.9790012 117.8234997  40.2009988
  44.9520012 116.6694997  40.0859988  44.1709469 117.0201430  39.9327626
  54.2610012 117.6834997  52.2489988  53.3440012 117.9464997  52.1609988
  54.5960012 117.6804997  51.3519988  54.1809900 117.7190224  52.1157919
  52.8630012 121.4344997  46.3439988  52.0650012 121.0194997  46.0159988
  53.3080012 120.7434997  46.8349988  52.8139885 121.2843543  46.3654889
  42.3210012 127.3624997  38.9149988  42.9130012 128.0614997  39.1909988
  42.7800012 126.9294997  38.1949988  42.4641142 127.3997049  38.8554830
  40.6370012 120.0264997  38.0309988  40.5920012 120.9654997  38.2089988
  39.7490012 119.7904997  37.7609988  40.5108574 120.1231892  38.0188912
  53.9490012 130.6904997  47.9669988  53.7940012 131.3684997  47.3099988
  54.8820012 130.7624997  48.1699988  54.0538500 130.7930170  47.9045119
  41.4450012 114.8084997  46.7039988  41.2160012 114.8674997  45.7759988
  41.0020012 114.0164997  47.0099988  41.3538530 114.7095753  46.6184786
  40.3750012 128.7484997  42.8639988  39.5430012 129.2214997  42.8919988
  40.9210012 129.2584997  42.2659988  40.3349739 128.8821871  42.7869716
  39.6630012 131.3614997  54.1939988  40.2040012 131.1444997  54.9539988
  39.1820012 130.5554997  54.0049988  39.6719345 131.2229514  54.2723076
  44.2610012 130.2804997  55.8149988  45.0280012 129.8214997  56.1559988
  44.2390012 130.0544997  54.8849988  44.3631434 130.1870409  55.7360043
  48.3530012 129.7884997  37.1899988  47.7090012 129.1574997  37.5109988
  49.1150012 129.2574997  36.9579988  48.3678077 129.6302920  37.2026011
  50.8380012 128.6604997  54.5439988  50.4870012 127.8044997  54.7869988
  51.5640012 128.8034997  55.1509988  50.8880769 128.5625636  54.6593619
  52.9570012 129.6054997  37.4239988  53.2400012 128.8114997  37.8759988
  53.6970012 129.8384997  36.8629988  53.0957486 129.5282803  37.4100698
  39.5700012 125.1714997  55.1489988  39.7140012 124.2694997  54.8619988
  38.7980012 125.4574997  54.6609988  39.4853322 125.0868261  55.0437881
  43.9120012 125.5154997  37.2809988  43.9760012 124.7214997  37.8119988
  44.5650012 125.3964997  36.5909988  44.0090241 125.3907148  37.2604317
  46.2260012 125.1414997  54.5809988  45.8970012 125.4124997  53.7239988
  46.3780012 124.2004997  54.4939988  46.2014809 125.0513862  54.4518244
  49.2640012 126.5624997  37.0169988  48.9950012 126.7424997  37.9179988
  49.0580012 125.6364997  36.8859988  49.1993825 126.4620152  37.1225214
  51.9600012 125.0574997  51.9649988  52.7060012 125.6454997  51.8449988
  51.2030012 125.6394997  52.0279988  51.9597554 125.2167011  51.9570907
  40.4030012 122.3714997  54.5689988  40.8110012 121.5144997  54.4479988
  40.1430012 122.3864997  55.4899988  40.4237568 122.2560807  54.6769588
  45.0610012 123.4874997  39.5869988  44.6010012 123.0034997  40.2729988
  45.3160012 122.8194997  38.9509988  45.0324902 123.3308731  39.5949334
  44.3500012 121.3804997  51.9429988  43.7320012 122.0554997  52.2229988
  44.6940012 121.7014997  51.1099988  44.3119615 121.5162721  51.8686581
  46.1320012 121.7304997  37.8489988  45.9520012 121.5764997  36.9219988
  47.0820012 121.8384997  37.8939988  46.2357776 121.7240175  37.7281843
  49.3700012 123.8524997  55.2199988  50.3230012 123.9354997  55.1929988
  49.2090012 123.1404997  55.8399988  49.4786426 123.7676746  55.3000579
  55.5220012 124.0854997  37.2949988  55.2480012 123.6604997  36.4819988
  55.5610012 125.0164997  37.0779988  55.4897699 124.1532484  37.1543610
  44.6890012 118.7354997  53.0249988  44.8390012 118.0064997  52.4229988
  44.6920012 119.5124997  52.4659988  44.7099302 118.7407851  52.8670692
  45.1020012 117.1054997  50.5179988  45.6380012 117.5564997  49.8659988
  44.2500012 116.9974997  50.0949988  45.0602178 117.1526390  50.3715756
  46.6840012 122.5444997  50.7569988  47.4340012 122.3884997  50.1839988
  46.3450012 123.3964997  50.4819988  46.7408921 122.6382968  50.6413561
  51.0990012 120.3594997  55.7859988  51.2920012 119.4284997  55.6739988
  51.9570012 120.7844997  55.7759988  51.2413020 120.2896389  55.7693361
  52.4160012 123.1484997  53.8629988  52.1350012 123.8574997  53.2859988
  53.3590012 123.0754997  53.7119988  52.5049027 123.2357646  53.7635551
  43.1680012 119.9334997  54.9369988  42.4010012 119.4014997  54.7269988
  43.8470012 119.6234997  54.3369988  43.1547022 119.8187506  54.8271648
  45.9080012 114.5614997  50.9489988  45.8090012 115.5084997  50.8439988
  45.1650012 114.1894997  50.4739988  45.7940564 114.6405902  50.8704560
  47.1720012 118.8834997  54.5129988  46.9360012 118.6634997  55.4149988
  46.3880012 118.6764997  54.0029988  47.0338628 118.8254760  54.5673932
  49.8870012 118.0104997  53.5889988  48.9400012 118.0424997  53.7209988
  50.2000012 117.3854997  54.2419988  49.7995475 117.9303207  53.6954455
  51.5210012 116.6444997  55.5939988  51.4250012 115.6924997  55.5879988
  51.2000012 116.9134997  56.4539988  51.4644070 116.5504035  55.7095441
  41.3480012 117.8544997  54.6409988  41.5600012 117.1474997  54.0309988
  41.2370012 117.4164997  55.4849988  41.3619721 117.6987084  54.6716843
  46.1290012 113.8554997  53.6209988  46.8410012 113.2154997  53.6069988
  46.0280012 114.1224997  52.7069988  46.2127939 113.8039938  53.4955650
  46.4830012 115.5384997  55.6739988  46.3510012 115.0624997  54.8539988
  45.8840012 116.2824997  55.6189988  46.3839071 115.5739618  55.5542886
  46.0290012 132.4214997  38.8509988  46.9620012 132.5794997  38.9939988
  45.7650012 133.0964997  38.2259988  46.1209510 132.5343611  38.7860741
  39.5980012 127.0574997  38.3329988  40.5120012 127.1364997  38.6069988
  39.6050012 126.3704997  37.6669988  39.7241131 126.9753961  38.2804393
  38.2470012 132.4504997  43.4109988  37.6000012 131.9884997  42.8779988
  38.6010012 131.7784997  43.9929988  38.2063849 132.2964723  43.4167959
  39.1170012 130.5314997  45.2149988  38.7820012 129.6514997  45.3869988
  39.3390012 130.8764997  46.0799988  39.1011783 130.4577500  45.3554208
  56.6650012 131.3404997  48.1959988  56.6440012 131.5254997  49.1349988
  57.3560012 131.9094997  47.8549988  56.7554618 131.4426606  48.2783864
  56.2290012 130.9084997  51.1179988  55.7410012 130.1724997  50.7469988
  56.7780012 130.5144997  51.7959988  56.2364872 130.7546249  51.1589160
  54.6790012 126.6974997  55.7559988  53.8130012 126.5924997  56.1499988
  55.0560012 127.4564997  56.2019988  54.6113308 126.7856900  55.8702393
  55.9800012 124.9544997  41.2699988  56.8300012 125.3754997  41.3969988
  55.9860012 124.2144997  41.8769988  56.0971372 124.9120803  41.3694344
  56.3750012 123.0074997  43.0939988  55.6480012 122.5284997  43.4909988
  56.9560012 123.2134997  43.8259988  56.3539375 122.9697090  43.2474129
  56.1340012 125.7924997  48.0409988  56.9670012 125.4144997  47.7609988
  56.2460012 126.7354997  47.9219988  56.2632647 125.8682218  47.9865487
  54.6200012 128.6704997  50.3479988  53.9730012 128.9954997  50.9739988
  54.1030012 128.2304997  49.6739988  54.4614029 128.6555004  50.3425827
  56.6430012 122.9084997  39.4849988  56.1210012 123.2654997  38.7659988
  56.6100012 123.5834997  40.1629988  56.5671634 123.0485413  39.4783145
  54.9920012 120.1484997  38.0359988  55.0880012 120.8154997  37.3549988
  54.8520012 119.3324997  37.5539988  54.9862135 120.1294500  37.8778491
  54.1610012 121.5284997  43.6569988  54.0110012 120.5834997  43.6359988
  53.8080012 121.8094997  44.4999988  54.0926625 121.4370441  43.7682346
  39.1970012 123.6064997  47.6669988  39.3810012 123.5244997  46.7309988
  40.0460012 123.4824997  48.0909988  39.3370139 123.5785003  47.5961455
  55.0180012 123.4984997  53.2949988  55.6010012 122.7644997  53.4869988
  55.5820012 124.2704997  53.3419988  55.1739769 123.5024227  53.3276159
  56.5140012 121.4014997  53.9799988  55.6510012 121.0224997  53.8139988
  57.1190012 120.6624997  53.9059988  56.4775979 121.2498023  53.9472817
  54.2390012 117.5564997  37.1529988  54.8500012 117.1854997  37.7899988
  53.4030012 117.1354997  37.3489988  54.2095032 117.4487554  37.2667035
  53.8720012 119.1114997  42.1189988  54.1520012 118.2044997  42.2429988
  54.6310012 119.5454997  41.7299988  54.0129277 119.0460942  42.0833682
  54.4840012 119.6924997  47.5549988  55.4170012 119.9044997  47.5209988
  54.2490012 119.7944997  48.4769988  54.5798036 119.7352769  47.6749976
  54.5130012 120.4294997  50.3309988  53.6700012 120.6974997  50.6969988
  54.9550012 121.2514997  50.1199988  54.4574158 120.5773291  50.3525491
  38.7940012 118.8774997  53.8079988  39.7140012 118.7554997  54.0439988
  38.3450012 118.1274997  54.1969988  38.8591580 118.7593727  53.8929006
  56.7960012 114.4094997  55.6839988  57.1460012 113.7554997  55.0789988
  56.9430012 115.2464997  55.2449988  56.8638419 114.4331591  55.5417118
  54.4850012 116.3744997  42.1669988  54.6680012 115.9254997  42.9929988
  53.8860012 115.7894997  41.7039988  54.4290202 116.2339975  42.2173275
  40.0150012 117.1894997  46.6989988  40.4610012 116.3974997  47.0009988
  40.4820012 117.9054997  47.1299988  40.1390172 117.1780624  46.7984820
  38.3190012 120.1884997  47.7679988  38.8110012 119.9674997  46.9769988
  38.6820012 121.0294997  48.0489988  38.4353126 120.2718357  47.6977531
  56.3160012 116.5184997  54.0339988  55.3980012 116.7894997  53.9979988
  56.4390012 115.9834997  53.2489988  56.2071066 116.4832892  53.9230487
  56.3520012 116.4414997  38.6949988  56.7640012 115.7204997  38.2199988
  57.0340012 117.1114997  38.7539988  56.5005885 116.4332368  38.6378915
  38.6330012 116.4464997  41.8219988  37.7080012 116.6554997  41.6929988
  39.0870012 116.9304997  41.1329988  38.5677368 116.5405993  41.7111226
  53.4040012 131.4304997  43.7679988  54.0560012 131.0834997  43.1599988
  53.9140012 131.9194997  44.4139988  53.5622637 131.4490597  43.7720236
  38.5970012 115.1844997  50.1669988  37.9320012 114.9384997  50.8099988
  38.1540012 115.8064997  49.5889988  38.4460956 115.2348632  50.1769352
  40.7890012 128.3594997  54.3109988  39.9680012 128.5344997  53.8509988
  40.5360012 128.2864997  55.2319988  40.6426164 128.3735622  54.3724923
  43.7430012 129.3344997  50.5699988  43.3180012 130.1434997  50.2869988
  44.6470012 129.4194997  50.2679988  43.8070271 129.4568469  50.4903776
  48.0540012 130.7334997  53.5289988  48.2390012 130.3994997  54.4069988
  48.9000012 131.0424997  53.2069988  48.1937539 130.7296047  53.6055605
  50.3990012 132.0194997  52.7729988  51.0760012 131.3864997  52.5329988
  50.7210012 132.4204997  53.5799988  50.5351637 131.9871154  52.8492793
  55.3160012 114.6084997  51.8529988  54.5040012 114.9334997  51.4649988
  55.5490012 113.8484997  51.3199988  55.2363423 114.5502436  51.7278253
  41.1450012 132.5904997  50.6169988  40.4240012 133.0304997  50.1659988
  40.7790012 132.3394997  51.4659988  40.9969804 132.6167698  50.6699840
  43.6120012 132.1904997  49.6469988  42.7470012 132.2624997  50.0509988
  43.5570012 132.7374997  48.8629988  43.4862085 132.2742685  49.5963362
  48.3220012 132.0784997  48.8219988  47.8660012 132.6074997  48.1679988
  48.4850012 132.6814997  49.5479988  48.2815585 132.2324468  48.8305062
  50.6500012 130.9564997  49.7669988  49.7450012 131.1214997  49.5019988
  51.0790012 131.8094997  49.7019988  50.5840799 131.0944483  49.7219182
  53.2540012 132.5264997  50.0619988  53.0720012 133.4424997  49.8519988
  53.4310012 132.1164997  49.2159988  53.2530210 132.5964822  49.9187885
  40.5590012 131.2134997  47.5269988  40.5410012 130.7884997  48.3849988
  41.3640012 130.8954997  47.1189988  40.6653875 131.1123812  47.5891655
  42.7010012 129.9234997  46.1819988  42.4820012 129.0074997  46.3519988
  43.5250012 130.0634997  46.6479988  42.7824420 129.8170520  46.2682774
  45.2380012 130.3934997  47.0309988  45.4510012 129.5054997  46.7439988
  45.3020012 130.3594997  47.9849988  45.2758232 130.2673102  47.1207397
  48.7460012 116.0574997  46.1749988  48.0720012 115.4284997  46.4309988
  49.3100012 115.5734997  45.5719988  48.7299230 115.9058744  46.1285340
  53.8890012 114.1654997  46.2879988  54.4930012 114.7124997  45.7859988
  53.0190012 114.4844997  46.0479988  53.8541241 114.2835806  46.1867654
  55.6160012 115.3034997  44.6209988  56.2280012 114.7894997  44.0949988
  55.9980012 116.1814997  44.6449988  55.7514540 115.3517140  44.5521830
  41.0730012 114.6914997  43.9969988  40.2960012 114.4574997  43.4899988
  41.6030012 113.8944997  44.0059988  41.0382330 114.5516988  43.9287742
  39.9090012 114.4894997  39.8009988  40.3480012 115.1004997  39.2089988
  39.2760012 115.0274997  40.2749988  39.8834514 114.6459257  39.7840930
  45.6520012 114.6184997  43.8109988  46.5270012 115.0064997  43.7809988
  45.5160012 114.4034997  44.7329988  45.7533695 114.6425184  43.9316440
  51.2090012 114.6484997  45.4599988  51.2850012 114.7434997  44.5099988
  50.9340012 113.7404997  45.5889988  51.1822321 114.5387867  45.3475079
  52.5620012 114.6744997  41.1519988  51.8600012 115.2894997  40.9429988
  52.1180012 113.8364997  41.2829988  52.4056330 114.6455783  41.1410328
  39.8100012 130.4374997  40.6989988  39.1250012 130.3994997  40.0309988
  39.8140012 131.3504997  40.9869988  39.7168193 130.5557016  40.6465284
  41.7700012 116.4054997  38.2429988  42.2620012 115.7754997  37.7159988
  42.3940012 116.7014997  38.9069988  41.9215446 116.3593199  38.2605980
  46.7960012 116.6984997  40.6999988  46.9740012 116.0524997  41.3829988
  46.7430012 117.5324997  41.1679988  46.8131829 116.7227985  40.8565940
  48.6750012 131.6474997  39.0959988  49.5410012 132.0134997  38.9179988
  48.4280012 131.2074997  38.2819988  48.7602392 131.6381756  38.9616289
  55.3840012 131.2104997  41.7749988  55.1890012 130.4624997  41.2099988
  55.3450012 131.9684997  41.1919988  55.3520380 131.2106099  41.6188384
  41.0310012 115.2054997  53.5149988  40.6650012 114.4404997  53.9579988
  41.9440012 115.2344997  53.8019988  41.1042790 115.1047224  53.6144070
  43.0040012 114.5564997  55.0509988  43.9020012 114.2824997  54.8659988
  42.6170012 113.8134997  55.5149988  43.0746612 114.4185914  55.0883643
  41.6280012 131.3574997  37.7239988  41.3610012 131.6444997  38.5969988
  42.4000012 130.8114997  37.8759988  41.6957488 131.3230294  37.8641050
  51.4250012 113.8884997  55.2329988  51.5020012 113.4624997  56.0869988
  52.3190012 113.9024997  54.8899988  51.5563428 113.8320879  55.3035310
  54.6010012 129.9614997  53.9249988  53.8190012 129.7754997  53.4059988
  54.5290012 130.8904997  54.1429988  54.4841777 130.0616492  53.8834048
  69.0070012 123.8474997  43.9559988  69.0960012 124.7914997  43.8239988
  68.3690012 123.5724997  43.2979988  68.9329081 123.9394830  43.8489614
  67.9400012 123.1024997  47.3749988  67.9020012 122.4564997  48.0799988
  67.6180012 122.6364997  46.6039988  67.8912333 122.9509408  47.3672978
  60.3090012 122.7174997  48.9679988  60.3500012 122.0914997  49.6909988
  61.0120012 123.3414997  49.1499988  60.4096363 122.7161196  49.0916044
  71.6460012 126.0414997  45.6759988  71.2060012 125.3214997  46.1269988
  71.6330012 126.7624997  46.3059988  71.5840226 126.0403731  45.8228494
  61.2320012 127.1674997  47.5029988  60.8630012 126.3654997  47.1329988
  62.1730012 126.9984997  47.5489988  61.3087289 127.0350153  47.4586316
  57.8420012 120.8274997  42.8959988  57.3950012 121.6734997  42.8769988
  57.2810012 120.2474997  42.3799988  57.7049900 120.8649916  42.8236801
  58.5530012 122.9894997  45.0219988  58.7660012 122.2194997  45.5489988
  59.2910012 123.0784997  44.4179988  58.6818496 122.8961394  45.0125300
  68.7580012 131.1464997  45.8889988  69.3780012 130.4694997  45.6149988
  68.5500012 130.9284997  46.7969988  68.8146904 131.0243870  45.9743365
  66.3300012 125.5354997  47.7809988  66.6340012 124.8494997  47.1859988
  67.0510012 125.6534997  48.3989988  66.4690671 125.4576305  47.7831816
  74.9930012 117.1364997  48.6419988  75.0420012 117.7464997  49.3779988
  75.4180012 117.5974997  47.9189988  75.0571824 117.2823741  48.6450205
  69.4710012 119.9294997  48.1089988  69.6130012 118.9834997  48.1289988
  69.3640012 120.1364997  47.1799988  69.4759864 119.8279534  47.9862339
  62.6250012 118.0304997  45.3809988  62.6690012 118.8904997  44.9629988
  62.1680012 117.4784997  44.7469988  62.5692185 118.0735799  45.2380299
  70.3480012 118.1614997  43.7819988  70.9940012 117.8324997  44.4069988
  70.8580012 118.6794997  43.1589988  70.5054264 118.1864611  43.7833862
  59.2460012 120.4274997  46.1429988  59.8990012 119.8774997  46.5749988
  59.2700012 120.1534997  45.2259988  59.3386683 120.3151466  46.0782123
  64.4020012 121.9774997  45.3579988  65.0180012 121.4514997  45.8679988
  63.8160012 121.3374997  44.9549988  64.4070810 121.8189208  45.3733173
  75.3840012 118.6144997  50.8779988  74.6960012 119.2724997  50.7819988
  75.4000012 118.4174997  51.8139988  75.2918525 118.6780462  50.9914808
  61.4360012 116.9484997  49.4549988  61.2170012 117.4784997  48.6889988
  60.7680012 117.1754997  50.1019988  61.3157600 117.0516906  49.4376379
  68.8050012 126.4484997  42.9989988  68.5090012 126.1264997  42.1479988
  68.4800012 127.3484997  43.0399988  68.7206371 126.5260215  42.8881801
  64.0050012 124.6244997  49.7419988  63.2650012 125.2224997  49.8459988
  64.7190012 125.1784997  49.4269988  64.0002237 124.7812831  49.7136465
  72.1120012 117.4524997  45.7619988  71.8960012 116.6864997  46.2949988
  72.7670012 117.9244997  46.2749988  72.1710632 117.4115889  45.9042861
  61.0290012 118.8404997  47.4069988  61.6430012 119.4734997  47.7809988
  61.5410012 118.3684997  46.7509988  61.1822296 118.8632370  47.3694252
  62.4120012 126.5884997  50.5299988  62.4070012 127.4684997  50.1519988
  61.5590012 126.5054997  50.9549988  62.2959464 126.6976117  50.5357907
  58.5330012 126.2594997  41.3119988  58.2610012 126.4884997  40.4229988
  58.5790012 127.0974997  41.7719988  58.5020094 126.4041213  41.2525697
  72.1580012 127.8814997  48.0239988  71.2170012 127.9394997  48.1859988
  72.4350012 128.7874997  47.8869988  72.0664679 128.0119443  48.0276815
  72.4590012 116.1674997  49.4419988  71.7230012 116.7784997  49.4039988
  73.1420012 116.5824997  48.9149988  72.4506541 116.3071374  49.3655832
  65.4620012 114.2544997  46.9079988  65.3450012 113.3054997  46.8529988
  64.6070012 114.5864997  47.1809988  65.3303733 114.1695409  46.9373897
  70.4100012 129.6624997  44.6499988  70.8360012 128.9554997  44.1649988
  70.7270012 130.4634997  44.2329988  70.5111019 129.6740994  44.5273130
  71.5700012 127.5634997  43.1579988  71.3120012 126.8734997  42.5469988
  71.6410012 127.1204997  44.0039988  71.5442856 127.4092124  43.1886885
  73.2560012 126.1294997  51.6359988  73.3960012 125.5384997  50.8959988
  73.4230012 127.0024997  51.2789988  73.2976778 126.1666426  51.4866965
  67.7290012 123.0914997  41.4079988  67.0170012 123.6264997  41.0559988
  68.4200012 123.1474997  40.7479988  67.7250132 123.1722543  41.2706289
  67.7820012 121.5494997  38.4469988  68.4830012 121.5714997  39.0979988
  68.0850012 120.9214997  37.7909988  67.9187830 121.4676566  38.4473711
  75.0980012 122.4694997  49.7019988  74.4450012 123.1644997  49.7909988
  75.5630012 122.6794997  48.8919988  75.0715390 122.5929425  49.6046883
  71.1340012 123.3014997  42.3599988  70.4020012 123.5294997  42.9329988
  71.5820012 122.5874997  42.8149988  71.0943095 123.2362571  42.4999119
  71.0320012 121.4754997  51.4269988  71.1120012 122.2384997  51.9989988
  70.4300012 121.7544997  50.7369988  70.9615756 121.6177134  51.4120589
  62.7800012 123.9314997  44.2419988  62.4490012 123.5614997  43.4239988
  63.3680012 123.2614997  44.5889988  62.8141873 123.7901156  44.1768102
  64.1460012 127.3594997  46.9239988  64.0520012 126.7814997  46.1669988
  64.8760012 126.9884997  47.4199988  64.2317981 127.2302390  46.8874165
  63.1460012 122.7004997  47.8759988  63.7120012 122.8214997  47.1129988
  63.4650012 123.3374997  48.5149988  63.2665786 122.8031884  47.8580040
  69.4550012 128.2034997  48.6099988  69.2150012 128.8654997  49.2579988
  69.2570012 127.3694997  49.0349988  69.3953808 128.1813134  48.7561524
  64.0260012 127.0994997  52.5929988  63.7150012 127.8814997  53.0479988
  63.3760012 126.9464997  51.9069988  63.8955558 127.1859105  52.5625871
  70.0050012 122.4634997  40.0449988  70.5850012 122.6134997  40.7919988
  70.4190012 122.9344997  39.3219988  70.1402831 122.5476841  40.0494134
  60.9460012 123.2974997  51.8219988  61.0170012 123.9484997  52.5199988
  60.0560012 123.4004997  51.4869988  60.8353117 123.4005936  51.8722700
  67.7320012 129.2004997  43.4799988  68.2060012 129.4954997  44.2579988
  67.1690012 129.9384997  43.2469988  67.7207653 129.3406932  43.5550136
  62.2660012 129.1714997  53.3559988  62.2730012 129.0354997  52.4089988
  61.3500012 129.0534997  53.6079988  62.1431714 129.1369430  53.2604666
  73.7040012 114.2134997  39.8579988  72.8040012 114.3524997  40.1529988
  73.9560012 115.0444997  39.4559988  73.6148702 114.3449074  39.8440205
  61.7700012 123.0014997  41.8319988  61.4780012 123.7694997  41.3409988
  61.0960012 122.3414997  41.6689988  61.6389081 123.0174406  41.7427340
  74.8930012 128.5794997  38.2339988  74.9670012 129.5184997  38.4049988
  75.7990012 128.2744997  38.1779988  75.0255100 128.6666722  38.2498119
  57.8630012 125.3644997  50.6469988  57.3620012 125.3364997  49.8319988
  57.8680012 124.4584997  50.9559988  57.7951526 125.2382278  50.5772872
  57.6130012 128.1444997  47.5309988  58.5590012 128.0004997  47.5119988
  57.5010012 128.9284997  48.0679988  57.7272727 128.2308046  47.6010072
  75.8110012 128.8104997  53.2129988  75.7620012 127.8554997  53.1759988
  74.9840012 129.0784997  53.6139988  75.6924940 128.7158998  53.2621375
  66.7900012 128.3844997  52.0889988  66.8770012 129.2104997  52.5639988
  65.9260012 128.0544997  52.3379988  66.6851964 128.4529878  52.1876549
  67.2040012 132.1564997  41.8949988  67.1290012 132.0354997  40.9489988
  67.2370012 133.1064997  42.0139988  67.1981848 132.2682500  41.7814834
  60.8570012 130.9454997  43.6759988  61.0100012 130.5974997  44.5549988
  60.0070012 130.5894997  43.4209988  60.7628962 130.8496650  43.7618340
  70.3060012 131.3104997  38.8969988  70.6810012 130.5664997  38.4269988
  70.3100012 131.0404997  39.8159988  70.3578915 131.1721486  38.9567824
  69.9750012 131.2364997  41.6469988  69.0390012 131.3364997  41.8249988
  70.2550012 130.5274997  42.2249988  69.8848255 131.1542711  41.7495391
  72.9630012 120.3034997  53.6929988  72.5560012 120.7844997  52.9719988
  73.0040012 119.3984997  53.3849988  72.9128437 120.2469374  53.5526683
  60.1120012 126.6874997  51.6899988  60.3280012 126.3264997  52.5489988
  59.2570012 126.3134997  51.4799988  60.0259292 126.5874111  51.7793386
  62.7310012 115.1574997  47.6849988  61.8690012 115.0704997  47.2779988
  62.7080012 116.0134997  48.1129988  62.6100330 115.2612765  47.6871863
  67.3940012 114.8794997  51.0599988  67.8140012 114.4644997  51.8129988
  66.4610012 114.7014997  51.1769988  67.3253644 114.7985900  51.1789539
  70.7200012 118.6354997  51.9129988  70.2060012 118.5094997  52.7109988
  70.5650012 119.5474997  51.6689988  70.6286852 118.7416132  51.9892158
  71.4830012 123.4964997  37.6749988  71.5250012 123.2734997  36.7449988
  72.3320012 123.8954997  37.8649988  71.6035396 123.5199155  37.5733627
  67.0550012 117.3724997  38.3449988  66.8020012 117.3914997  39.2679988
  66.7990012 116.5004997  38.0439988  66.9857790 117.2572437  38.4306263
  62.8220012 120.1234997  48.7799988  62.1800012 120.0824997  49.4889988
  62.8590012 121.0494997  48.5429988  62.7391324 120.2431559  48.8449824
  62.8190012 120.3444997  43.6919988  61.9260012 120.0034997  43.6339988
  63.2690012 119.9674997  42.9369988  62.7577305 120.2468484  43.5819177
  68.3540012 120.7604997  42.5089988  67.9450012 121.5754997  42.2179988
  69.0750012 120.6204997  41.8949988  68.3954537 120.8532018  42.3861342
  67.4560012 120.9354997  53.9969988  66.8940012 120.2314997  54.3179988
  68.2830012 120.8154997  54.4649988  67.4907095 120.8227883  54.1042330
  69.3590012 120.2064997  45.3229988  69.1640012 120.8114997  44.6079988
  69.5400012 119.3724997  44.8889988  69.3567614 120.1766300  45.1664405
  60.5720012 120.4434997  50.6469988  60.5340012 120.8434997  51.5159988
  60.0810012 119.6264997  50.7379988  60.5004684 120.3878069  50.7781059
  63.9380012 117.8174997  37.4459988  63.5070012 117.3724997  38.1759988
  63.2200012 118.1894997  36.9339988  63.7819438 117.8068940  37.4766799
  57.1800012 117.5594997  44.4979988  57.8110012 117.5304997  45.2169988
  57.6290012 117.1344997  43.7679988  57.3270774 117.4980492  44.4976553
  58.4540012 118.3054997  39.9219988  58.9280012 118.8964997  39.3369988
  57.7370012 118.8364997  40.2689988  58.4219341 118.4580867  39.8888836
  68.6230012 121.8444997  49.9949988  68.9460012 121.2134997  49.3519988
  68.1830012 121.3094997  50.6549988  68.6076895 121.6858440  49.9962850
  65.4000012 117.7714997  44.7789988  64.4890012 117.8284997  45.0669988
  65.9060012 117.7114997  45.5889988  65.3435413 117.7711985  44.9280622
  60.2290012 119.4004997  43.6049988  59.3390012 119.5004997  43.2649988
  60.5250012 118.5584997  43.2589988  60.1472823 119.3003545  43.5117213
  63.8820012 119.4004997  41.2619988  64.8130012 119.5294997  41.4399988
  63.6670012 120.0704997  40.6119988  63.9804247 119.5086565  41.1985747
  69.8050012 117.0064997  48.0429988  69.1290012 117.1374997  48.7069988
  69.3200012 116.8514997  47.2329988  69.6467145 117.0034904  48.0244517
  62.5560012 120.5954997  38.8289988  62.0130012 120.2154997  38.1369988
  63.3890012 120.7894997  38.3999988  62.5944399 120.5698124  38.6764526
  73.0930012 132.6784997  54.3199988  73.2930012 133.1024997  53.4849988
  73.7480012 133.0214997  54.9269988  73.2090051 132.7829648  54.2877836
  60.6910012 125.1524997  53.9279988  61.4230012 125.4064997  54.4889988
  59.9110012 125.3564997  54.4429988  60.6858232 125.2149177  54.0745760
  66.7200012 120.5594997  46.6659988  67.2850012 120.0124997  46.1189988
  66.5730012 120.0374997  47.4539988  66.7772918 120.4142024  46.6978454
  61.7220012 116.6954997  43.0839988  61.4050012 115.7934997  43.0489988
  62.5040012 116.6974997  42.5309988  61.7842284 116.5721628  43.0044783
  65.3470012 118.9474997  49.0799988  64.5110012 119.4014997  49.1899988
  65.8710012 119.2234997  49.8319988  65.3034414 119.0469376  49.1967136
  65.8910012 125.1604997  40.7639988  65.1460012 124.6534997  40.4419988
  65.7570012 125.2094997  41.7109988  65.7708776 125.0976940  40.8478647
  73.0410012 124.2934997  49.5509988  73.6830012 124.7504997  49.0069988
  72.2110012 124.4064997  49.0879988  73.0165963 124.3712704  49.4140177
  69.7890012 117.9744997  38.9639988  68.8500012 118.0864997  38.8119988
  70.0860012 118.8314997  39.2699988  69.7007666 118.1056443  38.9845768
  67.4100012 125.3444997  52.0009988  67.0650012 124.9634997  52.8079988
  67.2100012 126.2784997  52.0729988  67.3358061 125.4185228  52.1210961
  70.5070012 119.8414997  40.6239988  71.3990012 119.7044997  40.9429988
  70.5640012 120.6324997  40.0879988  70.6366285 119.9296660  40.5951691
  61.0160012 124.4554997  46.5339988  61.7610012 124.4534997  45.9329988
  61.0940012 123.6324997  47.0159988  61.1285518 124.3439315  46.5168929
  68.0170012 126.6194997  39.7899988  67.7210012 127.4454997  40.1709988
  67.3140012 125.9994997  39.9859988  67.8814914 126.6488199  39.8686443
  58.0240012 122.9164997  51.8489988  58.2470012 122.4984997  52.6809988
  57.4220012 122.3034997  51.4259988  57.9731759 122.7764668  51.9057022
  65.0400012 122.4334997  54.0619988  64.7440012 122.2674997  53.1669988
  65.9720012 122.2134997  54.0509988  65.1254166 122.3810640  53.9380536
  69.6610012 127.8064997  51.9519988  68.7600012 127.9894997  51.6839988
  69.6950012 128.0654997  52.8729988  69.5423041 127.8665512  52.0398197
  75.3920012 120.0514997  40.3189988  74.8380012 119.6554997  39.6469988
  75.4920012 120.9614997  40.0409988  75.3297059 120.1203586  40.1894401
  75.3550012 125.8514997  53.1559988  74.5040012 126.0894997  52.7889988
  75.9460012 125.8344997  52.4029988  75.3182487 125.8818258  53.0038893
  73.6870012 128.8374997  40.7839988  73.3140012 128.0114997  41.0929988
  73.9650012 128.6544997  39.8869988  73.6735630 128.6997303  40.7049626
  70.8480012 123.6454997  47.8049988  69.9190012 123.4134997  47.7779988
  71.2990012 122.8684997  47.4749988  70.7819216 123.5087238  47.7566917
  63.3910012 127.9734997  43.9379988  63.9180012 128.7464997  43.7379988
  62.5110012 128.1984997  43.6369988  63.3441773 128.1098005  43.8699010
  59.1460012 122.8354997  38.5249988  59.7620012 123.4624997  38.9049988
  58.2840012 123.1514997  38.7969988  59.1137698 122.9639430  38.6137183
  64.8180012 125.6364997  43.5149988  64.5770012 126.5614997  43.5559988
  64.0770012 125.1774997  43.9109988  64.6848409 125.7011421  43.5741377
  65.3330012 129.7854997  49.8299988  65.6950012 130.6404997  49.5959988
  65.8640012 129.4934997  50.5699988  65.4544473 129.8631060  49.8980855
  63.5010012 130.6584997  43.0599988  62.5510012 130.7634997  43.1109988
  63.8530012 131.4784997  43.4049988  63.4184203 130.7838314  43.1136650
  68.8770012 125.8844997  49.5299988  68.4510012 125.6574997  50.3569988
  69.4570012 125.1464997  49.3479988  68.8971868 125.7535299  49.6185830
  71.0800012 126.8134997  38.6039988  71.4330012 126.4334997  39.4089988
  70.1310012 126.7204997  38.6909988  71.0000441 126.7489596  38.7258559
  71.5350012 130.4364997  51.9999988  70.9340012 129.8814997  51.5039988
  71.8170012 131.1034997  51.3739988  71.4908519 130.4506841  51.8474951
  75.5830012 131.2934997  38.8049988  76.3270012 131.8794997  38.6649988
  74.8890012 131.8614997  39.1389988  75.5910292 131.4505582  38.8309961
  59.6580012 117.6694997  51.4069988  58.7650012 118.0084997  51.3389988
  59.5590012 116.8144997  51.8249988  59.5224164 117.6002588  51.4542235
  71.9460012 125.4864997  40.8309988  71.6680012 124.7584997  41.3869988
  72.8730012 125.6054997  41.0359988  72.0333124 125.4028802  40.9348845
  59.3090012 129.4744997  49.8419988  59.5260012 128.5424997  49.8109988
  59.5550012 129.7484997  50.7249988  59.3719549 129.3840636  49.9571763
  65.1710012 127.9254997  37.0509988  65.4100012 127.1774997  36.5039988
  64.9020012 127.5374997  37.8839988  65.1673675 127.7706638  37.0886865
  64.1080012 127.4954997  39.5079988  64.2540012 126.9754997  40.2979988
  64.1050012 128.4024997  39.8139988  64.1275989 127.5468853  39.6576088
  60.5610012 124.7484997  40.0179988  59.8750012 125.1004997  40.5849988
  61.0830012 125.5114997  39.7709988  60.5376852 124.8998578  40.0622118
  68.3920012 117.4104997  50.2969988  69.0910012 117.4844997  50.9469988
  68.0110012 116.5464997  50.4509988  68.4361767 117.3037624  50.4068322
  69.1770012 117.0624997  41.3939988  69.3970012 117.5344997  40.5909988
  69.7350012 117.4574997  42.0639988  69.2824968 117.1804285  41.3747331
  66.8450012 129.1934997  40.2569988  66.0290012 129.6904997  40.3089988
  67.3750012 129.6684997  39.6169988  66.8049161 129.3257722  40.1775956
  66.3770012 118.7904997  42.2289988  67.1890012 119.2954997  42.2749988
  66.1320012 118.6454997  43.1429988  66.4550520 118.8400375  42.3588517
  66.9120012 119.7764997  51.4139988  67.0310012 120.3504997  52.1709988
  67.5680012 119.0884997  51.5279988  67.0169757 119.7621079  51.5330825
  67.2600012 115.8714997  43.1669988  66.9140012 116.4894997  43.8119988
  67.9190012 116.3724997  42.6859988  67.3017826 116.0235802  43.1900971
  64.1840012 130.2374997  40.2389988  64.3440012 131.0364997  39.7379988
  63.9860012 130.5434997  41.1239988  64.1791649 130.3884469  40.2899815
  62.9180012 116.9344997  39.8539988  62.8350012 117.8234997  40.2009988
  63.8080012 116.6694997  40.0859988  63.0269469 117.0201430  39.9327626
  73.1170012 117.6834997  52.2489988  72.2000012 117.9464997  52.1609988
  73.4520012 117.6804997  51.3519988  73.0369900 117.7190224  52.1157919
  71.7190012 121.4344997  46.3439988  70.9210012 121.0194997  46.0159988
  72.1640012 120.7434997  46.8349988  71.6699885 121.2843543  46.3654889
  61.1770012 127.3624997  38.9149988  61.7690012 128.0614997  39.1909988
  61.6360012 126.9294997  38.1949988  61.3201142 127.3997049  38.8554830
  59.4930012 120.0264997  38.0309988  59.4480012 120.9654997  38.2089988
  58.6050012 119.7904997  37.7609988  59.3668574 120.1231892  38.0188912
  72.8050012 130.6904997  47.9669988  72.6500012 131.3684997  47.3099988
  73.7380012 130.7624997  48.1699988  72.9098500 130.7930170  47.9045119
  60.3010012 114.8084997  46.7039988  60.0720012 114.8674997  45.7759988
  59.8580012 114.0164997  47.0099988  60.2098530 114.7095753  46.6184786
  59.2310012 128.7484997  42.8639988  58.3990012 129.2214997  42.8919988
  59.7770012 129.2584997  42.2659988  59.1909739 128.8821871  42.7869716
  58.5190012 131.3614997  54.1939988  59.0600012 131.1444997  54.9539988
  58.0380012 130.5554997  54.0049988  58.5279345 131.2229514  54.2723076
  63.1170012 130.2804997  55.8149988  63.8840012 129.8214997  56.1559988
  63.0950012 130.0544997  54.8849988  63.2191434 130.1870409  55.7360043
  67.2090012 129.7884997  37.1899988  66.5650012 129.1574997  37.5109988
  67.9710012 129.2574997  36.9579988  67.2238077 129.6302920  37.2026011
  69.6940012 128.6604997  54.5439988  69.3430012 127.8044997  54.7869988
  70.4200012 128.8034997  55.1509988  69.7440769 128.5625636  54.6593619
  71.8130012 129.6054997  37.4239988  72.0960012 128.8114997  37.8759988
  72.5530012 129.8384997  36.8629988  71.9517486 129.5282803  37.4100698
  58.4260012 125.1714997  55.1489988  58.5700012 124.2694997  54.8619988
  57.6540012 125.4574997  54.6609988  58.3413322 125.0868261  55.0437881
  62.7680012 125.5154997  37.2809988  62.8320012 124.7214997  37.8119988
  63.4210012 125.3964997  36.5909988  62.8650241 125.3907148  37.2604317
  65.0820012 125.1414997  54.5809988  64.7530012 125.4124997  53.7239988
  65.2340012 124.2004997  54.4939988  65.0574809 125.0513862  54.4518244
  68.1200012 126.5624997  37.0169988  67.8510012 126.7424997  37.9179988
  67.9140012 125.6364997  36.8859988  68.0553825 126.4620152  37.1225214
  70.8160012 125.0574997  51.9649988  71.5620012 125.6454997  51.8449988
  70.0590012 125.6394997  52.0279988  70.8157554 125.2167011  51.9570907
  59.2590012 122.3714997  54.5689988  59.6670012 121.5144997  54.4479988
  58.9990012 122.3864997  55.4899988  59.2797568 122.2560807  54.6769588
  63.9170012 123.4874997  39.5869988  63.4570012 123.0034997  40.2729988
  64.1720012 122.8194997  38.9509988  63.8884902 123.3308731  39.5949334
  63.2060012 121.3804997  51.9429988  62.5880012 122.0554997  52.2229988
  63.5500012 121.7014997  51.1099988  63.1679615 121.5162721  51.8686581
  64.9880012 121.7304997  37.8489988  64.8080012 121.5764997  36.9219988
  65.9380012 121.8384997  37.8939988  65.0917776 121.7240175  37.7281843
  68.2260012 123.8524997  55.2199988  69.1790012 123.9354997  55.1929988
  68.0650012 123.1404997  55.8399988  68.3346426 123.7676746  55.3000579
  74.3780012 124.0854997  37.2949988  74.1040012 123.6604997  36.4819988
  74.4170012 125.0164997  37.0779988  74.3457699 124.1532484  37.1543610
  63.5450012 118.7354997  53.0249988  63.6950012 118.0064997  52.4229988
  63.5480012 119.5124997  52.4659988  63.5659302 118.7407851  52.8670692
  63.9580012 117.1054997  50.5179988  64.4940012 117.5564997  49.8659988
  63.1060012 116.9974997  50.0949988  63.9162178 117.1526390  50.3715756
  65.5400012 122.5444997  50.7569988  66.2900012 122.3884997  50.1839988
  65.2010012 123.3964997  50.4819988  65.5968921 122.6382968  50.6413561
  69.9550012 120.3594997  55.7859988  70.1480012 119.4284997  55.6739988
  70.8130012 120.7844997  55.7759988  70.0973020 120.2896389  55.7693361
  71.2720012 123.1484997  53.8629988  70.9910012 123.8574997  53.2859988
  72.2150012 123.0754997  53.7119988  71.3609027 123.2357646  53.7635551
  62.0240012 119.9334997  54.9369988  61.2570012 119.4014997  54.7269988
  62.7030012 119.6234997  54.3369988  62.0107022 119.8187506  54.8271648
  64.7640012 114.5614997  50.9489988  64.6650012 115.5084997  50.8439988
  64.0210012 114.1894997  50.4739988  64.6500564 114.6405902  50.8704560
  66.0280012 118.8834997  54.5129988  65.7920012 118.6634997  55.4149988
  65.2440012 118.6764997  54.0029988  65.8898628 118.8254760  54.5673932
  68.7430012 118.0104997  53.5889988  67.7960012 118.0424997  53.7209988
  69.0560012 117.3854997  54.2419988  68.6555475 117.9303207  53.6954455
  70.3770012 116.6444997  55.5939988  70.2810012 115.6924997  55.5879988
  70.0560012 116.9134997  56.4539988  70.3204070 116.5504035  55.7095441
  60.2040012 117.8544997  54.6409988  60.4160012 117.1474997  54.0309988
  60.0930012 117.4164997  55.4849988  60.2179721 117.6987084  54.6716843
  64.9850012 113.8554997  53.6209988  65.6970012 113.2154997  53.6069988
  64.8840012 114.1224997  52.7069988  65.0687939 113.8039938  53.4955650
  65.3390012 115.5384997  55.6739988  65.2070012 115.0624997  54.8539988
  64.7400012 116.2824997  55.6189988  65.2399071 115.5739618  55.5542886
  64.8850012 132.4214997  38.8509988  65.8180012 132.5794997  38.9939988
  64.6210012 133.0964997  38.2259988  64.9769510 132.5343611  38.7860741
  58.4540012 127.0574997  38.3329988  59.3680012 127.1364997  38.6069988
  58.4610012 126.3704997  37.6669988  58.5801131 126.9753961  38.2804393
  57.1030012 132.4504997  43.4109988  56.4560012 131.9884997  42.8779988
  57.4570012 131.7784997  43.9929988  57.0623849 132.2964723  43.4167959
  57.9730012 130.5314997  45.2149988  57.6380012 129.6514997  45.3869988
  58.1950012 130.8764997  46.0799988  57.9571783 130.4577500  45.3554208
  75.5210012 131.3404997  48.1959988  75.5000012 131.5254997  49.1349988
  76.2120012 131.9094997  47.8549988  75.6114618 131.4426606  48.2783864
  75.0850012 130.9084997  51.1179988  74.5970012 130.1724997  50.7469988
  75.6340012 130.5144997  51.7959988  75.0924872 130.7546249  51.1589160
  73.5350012 126.6974997  55.7559988  72.6690012 126.5924997  56.1499988
  73.9120012 127.4564997  56.2019988  73.4673308 126.7856900  55.8702393
  74.8360012 124.9544997  41.2699988  75.6860012 125.3754997  41.3969988
  74.8420012 124.2144997  41.8769988  74.9531372 124.9120803  41.3694344
  75.2310012 123.0074997  43.0939988  74.5040012 122.5284997  43.4909988
  75.8120012 123.2134997  43.8259988  75.2099375 122.9697090  43.2474129
  74.9900012 125.7924997  48.0409988  75.8230012 125.4144997  47.7609988
  75.1020012 126.7354997  47.9219988  75.1192647 125.8682218  47.9865487
  73.4760012 128.6704997  50.3479988  72.8290012 128.9954997  50.9739988
  72.9590012 128.2304997  49.6739988  73.3174029 128.6555004  50.3425827
  75.4990012 122.9084997  39.4849988  74.9770012 123.2654997  38.7659988
  75.4660012 123.5834997  40.1629988  75.4231634 123.0485413  39.4783145
  73.8480012 120.1484997  38.0359988  73.9440012 120.8154997  37.3549988
  73.7080012 119.3324997  37.5539988  73.8422135 120.1294500  37.8778491
  73.0170012 121.5284997  43.6569988  72.8670012 120.5834997  43.6359988
  72.6640012 121.8094997  44.4999988  72.9486625 121.4370441  43.7682346
  58.0530012 123.6064997  47.6669988  58.2370012 123.5244997  46.7309988
  58.9020012 123.4824997  48.0909988  58.1930139 123.5785003  47.5961455
  73.8740012 123.4984997  53.2949988  74.4570012 122.7644997  53.4869988
  74.4380012 124.2704997  53.3419988  74.0299769 123.5024227  53.3276159
  75.3700012 121.4014997  53.9799988  74.5070012 121.0224997  53.8139988
  75.9750012 120.6624997  53.9059988  75.3335979 121.2498023  53.9472817
  73.0950012 117.5564997  37.1529988  73.7060012 117.1854997  37.7899988
  72.2590012 117.1354997  37.3489988  73.0655032 117.4487554  37.2667035
  72.7280012 119.1114997  42.1189988  73.0080012 118.2044997  42.2429988
  73.4870012 119.5454997  41.7299988  72.8689277 119.0460942  42.0833682
  73.3400012 119.6924997  47.5549988  74.2730012 119.9044997  47.5209988
  73.1050012 119.7944997  48.4769988  73.4358036 119.7352769  47.6749976
  73.3690012 120.4294997  50.3309988  72.5260012 120.6974997  50.6969988
  73.8110012 121.2514997  50.1199988  73.3134158 120.5773291  50.3525491
  57.6500012 118.8774997  53.8079988  58.5700012 118.7554997  54.0439988
  57.2010012 118.1274997  54.1969988  57.7151580 118.7593727  53.8929006
  75.6520012 114.4094997  55.6839988  76.0020012 113.7554997  55.0789988
  75.7990012 115.2464997  55.2449988  75.7198419 114.4331591  55.5417118
  73.3410012 116.3744997  42.1669988  73.5240012 115.9254997  42.9929988
  72.7420012 115.7894997  41.7039988  73.2850202 116.2339975  42.2173275
  58.8710012 117.1894997  46.6989988  59.3170012 116.3974997  47.0009988
  59.3380012 117.9054997  47.1299988  58.9950172 117.1780624  46.7984820
  57.1750012 120.1884997  47.7679988  57.6670012 119.9674997  46.9769988
  57.5380012 121.0294997  48.0489988  57.2913126 120.2718357  47.6977531
  75.1720012 116.5184997  54.0339988  74.2540012 116.7894997  53.9979988
  75.2950012 115.9834997  53.2489988  75.0631066 116.4832892  53.9230487
  75.2080012 116.4414997  38.6949988  75.6200012 115.7204997  38.2199988
  75.8900012 117.1114997  38.7539988  75.3565885 116.4332368  38.6378915
  57.4890012 116.4464997  41.8219988  56.5640012 116.6554997  41.6929988
  57.9430012 116.9304997  41.1329988  57.4237368 116.5405993  41.7111226
  72.2600012 131.4304997  43.7679988  72.9120012 131.0834997  43.1599988
  72.7700012 131.9194997  44.4139988  72.4182637 131.4490597  43.7720236
  57.4530012 115.1844997  50.1669988  56.7880012 114.9384997  50.8099988
  57.0100012 115.8064997  49.5889988  57.3020956 115.2348632  50.1769352
  59.6450012 128.3594997  54.3109988  58.8240012 128.5344997  53.8509988
  59.3920012 128.2864997  55.2319988  59.4986164 128.3735622  54.3724923
  62.5990012 129.3344997  50.5699988  62.1740012 130.1434997  50.2869988
  63.5030012 129.4194997  50.2679988  62.6630271 129.4568469  50.4903776
  66.9100012 130.7334997  53.5289988  67.0950012 130.3994997  54.4069988
  67.7560012 131.0424997  53.2069988  67.0497539 130.7296047  53.6055605
  69.2550012 132.0194997  52.7729988  69.9320012 131.3864997  52.5329988
  69.5770012 132.4204997  53.5799988  69.3911637 131.9871154  52.8492793
  74.1720012 114.6084997  51.8529988  73.3600012 114.9334997  51.4649988
  74.4050012 113.8484997  51.3199988  74.0923423 114.5502436  51.7278253
  60.0010012 132.5904997  50.6169988  59.2800012 133.0304997  50.1659988
  59.6350012 132.3394997  51.4659988  59.8529804 132.6167698  50.6699840
  62.4680012 132.1904997  49.6469988  61.6030012 132.2624997  50.0509988
  62.4130012 132.7374997  48.8629988  62.3422085 132.2742685  49.5963362
  67.1780012 132.0784997  48.8219988  66.7220012 132.6074997  48.1679988
  67.3410012 132.6814997  49.5479988  67.1375585 132.2324468  48.8305062
  69.5060012 130.9564997  49.7669988  68.6010012 131.1214997  49.5019988
  69.9350012 131.8094997  49.7019988  69.4400799 131.0944483  49.7219182
  72.1100012 132.5264997  50.0619988  71.9280012 133.4424997  49.8519988
  72.2870012 132.1164997  49.2159988  72.1090210 132.5964822  49.9187885
  59.4150012 131.2134997  47.5269988  59.3970012 130.7884997  48.3849988
  60.2200012 130.8954997  47.1189988  59.5213875 131.1123812  47.5891655
  61.5570012 129.9234997  46.1819988  61.3380012 129.0074997  46.3519988
  62.3810012 130.0634997  46.6479988  61.6384420 129.8170520  46.2682774
  64.0940012 130.3934997  47.0309988  64.3070012 129.5054997  46.7439988
  64.1580012 130.3594997  47.9849988  64.1318232 130.2673102  47.1207397
  67.6020012 116.0574997  46.1749988  66.9280012 115.4284997  46.4309988
  68.1660012 115.5734997  45.5719988  67.5859230 115.9058744  46.1285340
  72.7450012 114.1654997  46.2879988  73.3490012 114.7124997  45.7859988
  71.8750012 114.4844997  46.0479988  72.7101241 114.2835806  46.1867654
  74.4720012 115.3034997  44.6209988  75.0840012 114.7894997  44.0949988
  74.8540012 116.1814997  44.6449988  74.6074540 115.3517140  44.5521830
  59.9290012 114.6914997  43.9969988  59.1520012 114.4574997  43.4899988
  60.4590012 113.8944997  44.0059988  59.8942330 114.5516988  43.9287742
  58.7650012 114.4894997  39.8009988  59.2040012 115.1004997  39.2089988
  58.1320012 115.0274997  40.2749988  58.7394514 114.6459257  39.7840930
  64.5080012 114.6184997  43.8109988  65.3830012 115.0064997  43.7809988
  64.3720012 114.4034997  44.7329988  64.6093695 114.6425184  43.9316440
  70.0650012 114.6484997  45.4599988  70.1410012 114.7434997  44.5099988
  69.7900012 113.7404997  45.5889988  70.0382321 114.5387867  45.3475079
  71.4180012 114.6744997  41.1519988  70.7160012 115.2894997  40.9429988
  70.9740012 113.8364997  41.2829988  71.2616330 114.6455783  41.1410328
  58.6660012 130.4374997  40.6989988  57.9810012 130.3994997  40.0309988
  58.6700012 131.3504997  40.9869988  58.5728193 130.5557016  40.6465284
  60.6260012 116.4054997  38.2429988  61.1180012 115.7754997  37.7159988
  61.2500012 116.7014997  38.9069988  60.7775446 116.3593199  38.2605980
  65.6520012 116.6984997  40.6999988  65.8300012 116.0524997  41.3829988
  65.5990012 117.5324997  41.1679988  65.6691829 116.7227985  40.8565940
  67.5310012 131.6474997  39.0959988  68.3970012 132.0134997  38.9179988
  67.2840012 131.2074997  38.2819988  67.6162392 131.6381756  38.9616289
  74.2400012 131.2104997  41.7749988  74.0450012 130.4624997  41.2099988
  74.2010012 131.9684997  41.1919988  74.2080380 131.2106099  41.6188384
  59.8870012 115.2054997  53.5149988  59.5210012 114.4404997  53.9579988
  60.8000012 115.2344997  53.8019988  59.9602790 115.1047224  53.6144070
  61.8600012 114.5564997  55.0509988  62.7580012 114.2824997  54.8659988
  61.4730012 113.8134997  55.5149988  61.9306612 114.4185914  55.0883643
  60.4840012 131.3574997  37.7239988  60.2170012 131.6444997  38.5969988
  61.2560012 130.8114997  37.8759988  60.5517488 131.3230294  37.8641050
  70.2810012 113.8884997  55.2329988  70.3580012 113.4624997  56.0869988
  71.1750012 113.9024997  54.8899988  70.4123428 113.8320879  55.3035310
  73.4570012 129.9614997  53.9249988  72.6750012 129.7754997  53.4059988
  73.3850012 130.8904997  54.1429988  73.3401777 130.0616492  53.8834048
  87.8630012 123.8474997  43.9559988  87.9520012 124.7914997  43.8239988
  87.2250012 123.5724997  43.2979988  87.7889081 123.9394830  43.8489614
  86.7960012 123.1024997  47.3749988  86.7580012 122.4564997  48.0799988
  86.4740012 122.6364997  46.6039988  86.7472333 122.9509408  47.3672978
  79.1650012 122.7174997  48.9679988  79.2060012 122.0914997  49.6909988
  79.8680012 123.3414997  49.1499988  79.2656363 122.7161196  49.0916044
  90.5020012 126.0414997  45.6759988  90.0620012 125.3214997  46.1269988
  90.4890012 126.7624997  46.3059988  90.4400226 126.0403731  45.8228494
  80.0880012 127.1674997  47.5029988  79.7190012 126.3654997  47.1329988
  81.0290012 126.9984997  47.5489988  80.1647289 127.0350153  47.4586316
  76.6980012 120.8274997  42.8959988  76.2510012 121.6734997  42.8769988
  76.1370012 120.2474997  42.3799988  76.5609900 120.8649916  42.8236801
  77.4090012 122.9894997  45.0219988  77.6220012 122.2194997  45.5489988
  78.1470012 123.0784997  44.4179988  77.5378496 122.8961394  45.0125300
  87.6140012 131.1464997  45.8889988  88.2340012 130.4694997  45.6149988
  87.4060012 130.9284997  46.7969988  87.6706904 131.0243870  45.9743365
  85.1860012 125.5354997  47.7809988  85.4900012 124.8494997  47.1859988
  85.9070012 125.6534997  48.3989988  85.3250671 125.4576305  47.7831816
  93.8490012 117.1364997  48.6419988  93.8980012 117.7464997  49.3779988
  94.2740012 117.5974997  47.9189988  93.9131824 117.2823741  48.6450205
  88.3270012 119.9294997  48.1089988  88.4690012 118.9834997  48.1289988
  88.2200012 120.1364997  47.1799988  88.3319864 119.8279534  47.9862339
  81.4810012 118.0304997  45.3809988  81.5250012 118.8904997  44.9629988
  81.0240012 117.4784997  44.7469988  81.4252185 118.0735799  45.2380299
  89.2040012 118.1614997  43.7819988  89.8500012 117.8324997  44.4069988
  89.7140012 118.6794997  43.1589988  89.3614264 118.1864611  43.7833862
  78.1020012 120.4274997  46.1429988  78.7550012 119.8774997  46.5749988
  78.1260012 120.1534997  45.2259988  78.1946683 120.3151466  46.0782123
  83.2580012 121.9774997  45.3579988  83.8740012 121.4514997  45.8679988
  82.6720012 121.3374997  44.9549988  83.2630810 121.8189208  45.3733173
  94.2400012 118.6144997  50.8779988  93.5520012 119.2724997  50.7819988
  94.2560012 118.4174997  51.8139988  94.1478525 118.6780462  50.9914808
  80.2920012 116.9484997  49.4549988  80.0730012 117.4784997  48.6889988
  79.6240012 117.1754997  50.1019988  80.1717600 117.0516906  49.4376379
  87.6610012 126.4484997  42.9989988  87.3650012 126.1264997  42.1479988
  87.3360012 127.3484997  43.0399988  87.5766371 126.5260215  42.8881801
  82.8610012 124.6244997  49.7419988  82.1210012 125.2224997  49.8459988
  83.5750012 125.1784997  49.4269988  82.8562237 124.7812831  49.7136465
  90.9680012 117.4524997  45.7619988  90.7520012 116.6864997  46.2949988
  91.6230012 117.9244997  46.2749988  91.0270632 117.4115889  45.9042861
  79.8850012 118.8404997  47.4069988  80.4990012 119.4734997  47.7809988
  80.3970012 118.3684997  46.7509988  80.0382296 118.8632370  47.3694252
  81.2680012 126.5884997  50.5299988  81.2630012 127.4684997  50.1519988
  80.4150012 126.5054997  50.9549988  81.1519464 126.6976117  50.5357907
  77.3890012 126.2594997  41.3119988  77.1170012 126.4884997  40.4229988
  77.4350012 127.0974997  41.7719988  77.3580094 126.4041213  41.2525697
  91.0140012 127.8814997  48.0239988  90.0730012 127.9394997  48.1859988
  91.2910012 128.7874997  47.8869988  90.9224679 128.0119443  48.0276815
  91.3150012 116.1674997  49.4419988  90.5790012 116.7784997  49.4039988
  91.9980012 116.5824997  48.9149988  91.3066541 116.3071374  49.3655832
  84.3180012 114.2544997  46.9079988  84.2010012 113.3054997  46.8529988
  83.4630012 114.5864997  47.1809988  84.1863733 114.1695409  46.9373897
  89.2660012 129.6624997  44.6499988  89.6920012 128.9554997  44.1649988
  89.5830012 130.4634997  44.2329988  89.3671019 129.6740994  44.5273130
  90.4260012 127.5634997  43.1579988  90.1680012 126.8734997  42.5469988
  90.4970012 127.1204997  44.0039988  90.4002856 127.4092124  43.1886885
  92.1120012 126.1294997  51.6359988  92.2520012 125.5384997  50.8959988
  92.2790012 127.0024997  51.2789988  92.1536778 126.1666426  51.4866965
  86.5850012 123.0914997  41.4079988  85.8730012 123.6264997  41.0559988
  87.2760012 123.1474997  40.7479988  86.5810132 123.1722543  41.2706289
  86.6380012 121.5494997  38.4469988  87.3390012 121.5714997  39.0979988
  86.9410012 120.9214997  37.7909988  86.7747830 121.4676566  38.4473711
  93.9540012 122.4694997  49.7019988  93.3010012 123.1644997  49.7909988
  94.4190012 122.6794997  48.8919988  93.9275390 122.5929425  49.6046883
  89.9900012 123.3014997  42.3599988  89.2580012 123.5294997  42.9329988
  90.4380012 122.5874997  42.8149988  89.9503095 123.2362571  42.4999119
  89.8880012 121.4754997  51.4269988  89.9680012 122.2384997  51.9989988
  89.2860012 121.7544997  50.7369988  89.8175756 121.6177134  51.4120589
  81.6360012 123.9314997  44.2419988  81.3050012 123.5614997  43.4239988
  82.2240012 123.2614997  44.5889988  81.6701873 123.7901156  44.1768102
  83.0020012 127.3594997  46.9239988  82.9080012 126.7814997  46.1669988
  83.7320012 126.9884997  47.4199988  83.0877981 127.2302390  46.8874165
  82.0020012 122.7004997  47.8759988  82.5680012 122.8214997  47.1129988
  82.3210012 123.3374997  48.5149988  82.1225786 122.8031884  47.8580040
  88.3110012 128.2034997  48.6099988  88.0710012 128.8654997  49.2579988
  88.1130012 127.3694997  49.0349988  88.2513808 128.1813134  48.7561524
  82.8820012 127.0994997  52.5929988  82.5710012 127.8814997  53.0479988
  82.2320012 126.9464997  51.9069988  82.7515558 127.1859105  52.5625871
  88.8610012 122.4634997  40.0449988  89.4410012 122.6134997  40.7919988
  89.2750012 122.9344997  39.3219988  88.9962830 122.5476841  40.0494134
  79.8020012 123.2974997  51.8219988  79.8730012 123.9484997  52.5199988
  78.9120012 123.4004997  51.4869988  79.6913117 123.4005936  51.8722700
  86.5880012 129.2004997  43.4799988  87.0620012 129.4954997  44.2579988
  86.0250012 129.9384997  43.2469988  86.5767653 129.3406932  43.5550136
  81.1220012 129.1714997  53.3559988  81.1290012 129.0354997  52.4089988
  80.2060012 129.0534997  53.6079988  80.9991714 129.1369430  53.2604666
  92.5600012 114.2134997  39.8579988  91.6600012 114.3524997  40.1529988
  92.8120012 115.0444997  39.4559988  92.4708702 114.3449074  39.8440205
  80.6260012 123.0014997  41.8319988  80.3340012 123.7694997  41.3409988
  79.9520012 122.3414997  41.6689988  80.4949081 123.0174406  41.7427340
  93.7490012 128.5794997  38.2339988  93.8230012 129.5184997  38.4049988
  94.6550012 128.2744997  38.1779988  93.8815100 128.6666722  38.2498119
  76.7190012 125.3644997  50.6469988  76.2180012 125.3364997  49.8319988
  76.7240012 124.4584997  50.9559988  76.6511526 125.2382278  50.5772872
  76.4690012 128.1444997  47.5309988  77.4150012 128.0004997  47.5119988
  76.3570012 128.9284997  48.0679988  76.5832727 128.2308046  47.6010072
  94.6670012 128.8104997  53.2129988  94.6180012 127.8554997  53.1759988
  93.8400012 129.0784997  53.6139988  94.5484940 128.7158998  53.2621375
  85.6460012 128.3844997  52.0889988  85.7330012 129.2104997  52.5639988
  84.7820012 128.0544997  52.3379988  85.5411964 128.4529878  52.1876549
  86.0600012 132.1564997  41.8949988  85.9850012 132.0354997  40.9489988
  86.0930012 133.1064997  42.0139988  86.0541848 132.2682500  41.7814834
  79.7130012 130.9454997  43.6759988  79.8660012 130.5974997  44.5549988
  78.8630012 130.5894997  43.4209988  79.6188962 130.8496650  43.7618340
  89.1620012 131.3104997  38.8969988  89.5370012 130.5664997  38.4269988
  89.1660012 131.0404997  39.8159988  89.2138915 131.1721486  38.9567824
  88.8310012 131.2364997  41.6469988  87.8950012 131.3364997  41.8249988
  89.1110012 130.5274997  42.2249988  88.7408255 131.1542711  41.7495391
  91.8190012 120.3034997  53.6929988  91.4120012 120.7844997  52.9719988
  91.8600012 119.3984997  53.3849988  91.7688437 120.2469374  53.5526683
  78.9680012 126.6874997  51.6899988  79.1840012 126.3264997  52.5489988
  78.1130012 126.3134997  51.4799988  78.8819292 126.5874111  51.7793386
  81.5870012 115.1574997  47.6849988  80.7250012 115.0704997  47.2779988
  81.5640012 116.0134997  48.1129988  81.4660330 115.2612765  47.6871863
  86.2500012 114.8794997  51.0599988  86.6700012 114.4644997  51.8129988
  85.3170012 114.7014997  51.1769988  86.1813644 114.7985900  51.1789539
  89.5760012 118.6354997  51.9129988  89.0620012 118.5094997  52.7109988
  89.4210012 119.5474997  51.6689988  89.4846852 118.7416132  51.9892158
  90.3390012 123.4964997  37.6749988  90.3810012 123.2734997  36.7449988
  91.1880012 123.8954997  37.8649988  90.4595396 123.5199155  37.5733627
  85.9110012 117.3724997  38.3449988  85.6580012 117.3914997  39.2679988
  85.6550012 116.5004997  38.0439988  85.8417790 117.2572437  38.4306263
  81.6780012 120.1234997  48.7799988  81.0360012 120.0824997  49.4889988
  81.7150012 121.0494997  48.5429988  81.5951324 120.2431559  48.8449824
  81.6750012 120.3444997  43.6919988  80.7820012 120.0034997  43.6339988
  82.1250012 119.9674997  42.9369988  81.6137305 120.2468484  43.5819177
  87.2100012 120.7604997  42.5089988  86.8010012 121.5754997  42.2179988
  87.9310012 120.6204997  41.8949988  87.2514537 120.8532018  42.3861342
  86.3120012 120.9354997  53.9969988  85.7500012 120.2314997  54.3179988
  87.1390012 120.8154997  54.4649988  86.3467095 120.8227883  54.1042330
  88.2150012 120.2064997  45.3229988  88.0200012 120.8114997  44.6079988
  88.3960012 119.3724997  44.8889988  88.2127614 120.1766300  45.1664405
  79.4280012 120.4434997  50.6469988  79.3900012 120.8434997  51.5159988
  78.9370012 119.6264997  50.7379988  79.3564684 120.3878069  50.7781059
  82.7940012 117.8174997  37.4459988  82.3630012 117.3724997  38.1759988
  82.0760012 118.1894997  36.9339988  82.6379438 117.8068940  37.4766799
  76.0360012 117.5594997  44.4979988  76.6670012 117.5304997  45.2169988
  76.4850012 117.1344997  43.7679988  76.1830774 117.4980492  44.4976553
  77.3100012 118.3054997  39.9219988  77.7840012 118.8964997  39.3369988
  76.5930012 118.8364997  40.2689988  77.2779341 118.4580867  39.8888836
  87.4790012 121.8444997  49.9949988  87.8020012 121.2134997  49.3519988
  87.0390012 121.3094997  50.6549988  87.4636895 121.6858441  49.9962850
  84.2560012 117.7714997  44.7789988  83.3450012 117.8284997  45.0669988
  84.7620012 117.7114997  45.5889988  84.1995413 117.7711985  44.9280622
  79.0850012 119.4004997  43.6049988  78.1950012 119.5004997  43.2649988
  79.3810012 118.5584997  43.2589988  79.0032823 119.3003545  43.5117213
  82.7380012 119.4004997  41.2619988  83.6690012 119.5294997  41.4399988
  82.5230012 120.0704997  40.6119988  82.8364247 119.5086565  41.1985747
  88.6610012 117.0064997  48.0429988  87.9850012 117.1374997  48.7069988
  88.1760012 116.8514997  47.2329988  88.5027145 117.0034904  48.0244517
  81.4120012 120.5954997  38.8289988  80.8690012 120.2154997  38.1369988
  82.2450012 120.7894997  38.3999988  81.4504399 120.5698124  38.6764526
  91.9490012 132.6784997  54.3199988  92.1490012 133.1024997  53.4849988
  92.6040012 133.0214997  54.9269988  92.0650051 132.7829648  54.2877836
  79.5470012 125.1524997  53.9279988  80.2790012 125.4064997  54.4889988
  78.7670012 125.3564997  54.4429988  79.5418232 125.2149177  54.0745760
  85.5760012 120.5594997  46.6659988  86.1410012 120.0124997  46.1189988
  85.4290012 120.0374997  47.4539988  85.6332918 120.4142024  46.6978454
  80.5780012 116.6954997  43.0839988  80.2610012 115.7934997  43.0489988
  81.3600012 116.6974997  42.5309988  80.6402284 116.5721628  43.0044783
  84.2030012 118.9474997  49.0799988  83.3670012 119.4014997  49.1899988
  84.7270012 119.2234997  49.8319988  84.1594414 119.0469376  49.1967136
  84.7470012 125.1604997  40.7639988  84.0020012 124.6534997  40.4419988
  84.6130012 125.2094997  41.7109988  84.6268776 125.0976940  40.8478647
  91.8970012 124.2934997  49.5509988  92.5390012 124.7504997  49.0069988
  91.0670012 124.4064997  49.0879988  91.8725963 124.3712704  49.4140177
  88.6450012 117.9744997  38.9639988  87.7060012 118.0864997  38.8119988
  88.9420012 118.8314997  39.2699988  88.5567666 118.1056443  38.9845768
  86.2660012 125.3444997  52.0009988  85.9210012 124.9634997  52.8079988
  86.0660012 126.2784997  52.0729988  86.1918061 125.4185228  52.1210961
  89.3630012 119.8414997  40.6239988  90.2550012 119.7044997  40.9429988
  89.4200012 120.6324997  40.0879988  89.4926285 119.9296660  40.5951691
  79.8720012 124.4554997  46.5339988  80.6170012 124.4534997  45.9329988
  79.9500012 123.6324997  47.0159988  79.9845518 124.3439315  46.5168929
  86.8730012 126.6194997  39.7899988  86.5770012 127.4454997  40.1709988
  86.1700012 125.9994997  39.9859988  86.7374914 126.6488199  39.8686443
  76.8800012 122.9164997  51.8489988  77.1030012 122.4984997  52.6809988
  76.2780012 122.3034997  51.4259988  76.8291759 122.7764668  51.9057022
  83.8960012 122.4334997  54.0619988  83.6000012 122.2674997  53.1669988
  84.8280012 122.2134997  54.0509988  83.9814166 122.3810640  53.9380536
  88.5170012 127.8064997  51.9519988  87.6160012 127.9894997  51.6839988
  88.5510012 128.0654997  52.8729988  88.3983041 127.8665512  52.0398197
  94.2480012 120.0514997  40.3189988  93.6940012 119.6554997  39.6469988
  94.3480012 120.9614997  40.0409988  94.1857059 120.1203586  40.1894401
  94.2110012 125.8514997  53.1559988  93.3600012 126.0894997  52.7889988
  94.8020012 125.8344997  52.4029988  94.1742487 125.8818258  53.0038893
  92.5430012 128.8374997  40.7839988  92.1700012 128.0114997  41.0929988
  92.8210012 128.6544997  39.8869988  92.5295630 128.6997303  40.7049626
  89.7040012 123.6454997  47.8049988  88.7750012 123.4134997  47.7779988
  90.1550012 122.8684997  47.4749988  89.6379216 123.5087238  47.7566917
  82.2470012 127.9734997  43.9379988  82.7740012 128.7464997  43.7379988
  81.3670012 128.1984997  43.6369988  82.2001773 128.1098005  43.8699010
  78.0020012 122.8354997  38.5249988  78.6180012 123.4624997  38.9049988
  77.1400012 123.1514997  38.7969988  77.9697698 122.9639430  38.6137183
  83.6740012 125.6364997  43.5149988  83.4330012 126.5614997  43.5559988
  82.9330012 125.1774997  43.9109988  83.5408409 125.7011421  43.5741377
  84.1890012 129.7854997  49.8299988  84.5510012 130.6404997  49.5959988
  84.7200012 129.4934997  50.5699988  84.3104473 129.8631060  49.8980855
  82.3570012 130.6584997  43.0599988  81.4070012 130.7634997  43.1109988
  82.7090012 131.4784997  43.4049988  82.2744203 130.7838314  43.1136650
  87.7330012 125.8844997  49.5299988  87.3070012 125.6574997  50.3569988
  88.3130012 125.1464997  49.3479988  87.7531868 125.7535299  49.6185830
  89.9360012 126.8134997  38.6039988  90.2890012 126.4334997  39.4089988
  88.9870012 126.7204997  38.6909988  89.8560441 126.7489596  38.7258559
  90.3910012 130.4364997  51.9999988  89.7900012 129.8814997  51.5039988
  90.6730012 131.1034997  51.3739988  90.3468519 130.4506841  51.8474952
  94.4390012 131.2934997  38.8049988  95.1830012 131.8794997  38.6649988
  93.7450012 131.8614997  39.1389988  94.4470292 131.4505582  38.8309961
  78.5140012 117.6694997  51.4069988  77.6210012 118.0084997  51.3389988
  78.4150012 116.8144997  51.8249988  78.3784164 117.6002588  51.4542235
  90.8020012 125.4864997  40.8309988  90.5240012 124.7584997  41.3869988
  91.7290012 125.6054997  41.0359988  90.8893124 125.4028802  40.9348845
  78.1650012 129.4744997  49.8419988  78.3820012 128.5424997  49.8109988
  78.4110012 129.7484997  50.7249988  78.2279549 129.3840636  49.9571763
  84.0270012 127.9254997  37.0509988  84.2660012 127.1774997  36.5039988
  83.7580012 127.5374997  37.8839988  84.0233675 127.7706638  37.0886865
  82.9640012 127.4954997  39.5079988  83.1100012 126.9754997  40.2979988
  82.9610012 128.4024997  39.8139988  82.9835989 127.5468853  39.6576088
  79.4170012 124.7484997  40.0179988  78.7310012 125.1004997  40.5849988
  79.9390012 125.5114997  39.7709988  79.3936852 124.8998578  40.0622118
  87.2480012 117.4104997  50.2969988  87.9470012 117.4844997  50.9469988
  86.8670012 116.5464997  50.4509988  87.2921767 117.3037624  50.4068322
  88.0330012 117.0624997  41.3939988  88.2530012 117.5344997  40.5909988
  88.5910012 117.4574997  42.0639988  88.1384968 117.1804285  41.3747331
  85.7010012 129.1934997  40.2569988  84.8850012 129.6904997  40.3089988
  86.2310012 129.6684997  39.6169988  85.6609161 129.3257722  40.1775956
  85.2330012 118.7904997  42.2289988  86.0450012 119.2954997  42.2749988
  84.9880012 118.6454997  43.1429988  85.3110520 118.8400375  42.3588517
  85.7680012 119.7764997  51.4139988  85.8870012 120.3504997  52.1709988
  86.4240012 119.0884997  51.5279988  85.8729757 119.7621079  51.5330825
  86.1160012 115.8714997  43.1669988  85.7700012 116.4894997  43.8119988
  86.7750012 116.3724997  42.6859988  86.1577826 116.0235802  43.1900971
  83.0400012 130.2374997  40.2389988  83.2000012 131.0364997  39.7379988
  82.8420012 130.5434997  41.1239988  83.0351649 130.3884469  40.2899815
  81.7740012 116.9344997  39.8539988  81.6910012 117.8234997  40.2009988
  82.6640012 116.6694997  40.0859988  81.8829469 117.0201430  39.9327626
  91.9730012 117.6834997  52.2489988  91.0560012 117.9464997  52.1609988
  92.3080012 117.6804997  51.3519988  91.8929900 117.7190224  52.1157919
  90.5750012 121.4344997  46.3439988  89.7770012 121.0194997  46.0159988
  91.0200012 120.7434997  46.8349988  90.5259885 121.2843543  46.3654889
  80.0330012 127.3624997  38.9149988  80.6250012 128.0614997  39.1909988
  80.4920012 126.9294997  38.1949988  80.1761142 127.3997049  38.8554830
  78.3490012 120.0264997  38.0309988  78.3040012 120.9654997  38.2089988
  77.4610012 119.7904997  37.7609988  78.2228574 120.1231892  38.0188912
  91.6610012 130.6904997  47.9669988  91.5060012 131.3684997  47.3099988
  92.5940012 130.7624997  48.1699988  91.7658500 130.7930170  47.9045119
  79.1570012 114.8084997  46.7039988  78.9280012 114.8674997  45.7759988
  78.7140012 114.0164997  47.0099988  79.0658530 114.7095753  46.6184786
  78.0870012 128.7484997  42.8639988  77.2550012 129.2214997  42.8919988
  78.6330012 129.2584997  42.2659988  78.0469739 128.8821871  42.7869716
  77.3750012 131.3614997  54.1939988  77.9160012 131.1444997  54.9539988
  76.8940012 130.5554997  54.0049988  77.3839345 131.2229514  54.2723076
  81.9730012 130.2804997  55.8149988  82.7400012 129.8214997  56.1559988
  81.9510012 130.0544997  54.8849988  82.0751434 130.1870409  55.7360043
  86.0650012 129.7884997  37.1899988  85.4210012 129.1574997  37.5109988
  86.8270012 129.2574997  36.9579988  86.0798077 129.6302920  37.2026011
  88.5500012 128.6604997  54.5439988  88.1990012 127.8044997  54.7869988
  89.2760012 128.8034997  55.1509988  88.6000769 128.5625636  54.6593619
  90.6690012 129.6054997  37.4239988  90.9520012 128.8114997  37.8759988
  91.4090012 129.8384997  36.8629988  90.8077486 129.5282803  37.4100698
  77.2820012 125.1714997  55.1489988  77.4260012 124.2694997  54.8619988
  76.5100012 125.4574997  54.6609988  77.1973322 125.0868261  55.0437881
  81.6240012 125.5154997  37.2809988  81.6880012 124.7214997  37.8119988
  82.2770012 125.3964997  36.5909988  81.7210241 125.3907148  37.2604317
  83.9380012 125.1414997  54.5809988  83.6090012 125.4124997  53.7239988
  84.0900012 124.2004997  54.4939988  83.9134809 125.0513862  54.4518244
  86.9760012 126.5624997  37.0169988  86.7070012 126.7424997  37.9179988
  86.7700012 125.6364997  36.8859988  86.9113825 126.4620152  37.1225214
  89.6720012 125.0574997  51.9649988  90.4180012 125.6454997  51.8449988
  88.9150012 125.6394997  52.0279988  89.6717554 125.2167011  51.9570907
  78.1150012 122.3714997  54.5689988  78.5230012 121.5144997  54.4479988
  77.8550012 122.3864997  55.4899988  78.1357568 122.2560807  54.6769588
  82.7730012 123.4874997  39.5869988  82.3130012 123.0034997  40.2729988
  83.0280012 122.8194997  38.9509988  82.7444902 123.3308731  39.5949334
  82.0620012 121.3804997  51.9429988  81.4440012 122.0554997  52.2229988
  82.4060012 121.7014997  51.1099988  82.0239615 121.5162721  51.8686581
  83.8440012 121.7304997  37.8489988  83.6640012 121.5764997  36.9219988
  84.7940012 121.8384997  37.8939988  83.9477776 121.7240175  37.7281843
  87.0820012 123.8524997  55.2199988  88.0350012 123.9354997  55.1929988
  86.9210012 123.1404997  55.8399988  87.1906426 123.7676746  55.3000579
  93.2340012 124.0854997  37.2949988  92.9600012 123.6604997  36.4819988
  93.2730012 125.0164997  37.0779988  93.2017699 124.1532484  37.1543610
  82.4010012 118.7354997  53.0249988  82.5510012 118.0064997  52.4229988
  82.4040012 119.5124997  52.4659988  82.4219302 118.7407851  52.8670692
  82.8140012 117.1054997  50.5179988  83.3500012 117.5564997  49.8659988
  81.9620012 116.9974997  50.0949988  82.7722178 117.1526390  50.3715756
  84.3960012 122.5444997  50.7569988  85.1460012 122.3884997  50.1839988
  84.0570012 123.3964997  50.4819988  84.4528921 122.6382968  50.6413561
  88.8110012 120.3594997  55.7859988  89.0040012 119.4284997  55.6739988
  89.6690012 120.7844997  55.7759988  88.9533020 120.2896389  55.7693361
  90.1280012 123.1484997  53.8629988  89.8470012 123.8574997  53.2859988
  91.0710012 123.0754997  53.7119988  90.2169027 123.2357646  53.7635551
  80.8800012 119.9334997  54.9369988  80.1130012 119.4014997  54.7269988
  81.5590012 119.6234997  54.3369988  80.8667022 119.8187506  54.8271648
  83.6200012 114.5614997  50.9489988  83.5210012 115.5084997  50.8439988
  82.8770012 114.1894997  50.4739988  83.5060564 114.6405902  50.8704560
  84.8840012 118.8834997  54.5129988  84.6480012 118.6634997  55.4149988
  84.1000012 118.6764997  54.0029988  84.7458628 118.8254760  54.5673932
  87.5990012 118.0104997  53.5889988  86.6520012 118.0424997  53.7209988
  87.9120012 117.3854997  54.2419988  87.5115475 117.9303207  53.6954455
  89.2330012 116.6444997  55.5939988  89.1370012 115.6924997  55.5879988
  88.9120012 116.9134997  56.4539988  89.1764070 116.5504035  55.7095441
  79.0600012 117.8544997  54.6409988  79.2720012 117.1474997  54.0309988
  78.9490012 117.4164997  55.4849988  79.0739721 117.6987084  54.6716843
  83.8410012 113.8554997  53.6209988  84.5530012 113.2154997  53.6069988
  83.7400012 114.1224997  52.7069988  83.9247939 113.8039938  53.4955650
  84.1950012 115.5384997  55.6739988  84.0630012 115.0624997  54.8539988
  83.5960012 116.2824997  55.6189988  84.0959071 115.5739618  55.5542886
  83.7410012 132.4214997  38.8509988  84.6740012 132.5794997  38.9939988
  83.4770012 133.0964997  38.2259988  83.8329510 132.5343611  38.7860741
  77.3100012 127.0574997  38.3329988  78.2240012 127.1364997  38.6069988
  77.3170012 126.3704997  37.6669988  77.4361131 126.9753961  38.2804393
  75.9590012 132.4504997  43.4109988  75.3120012 131.9884997  42.8779988
  76.3130012 131.7784997  43.9929988  75.9183849 132.2964723  43.4167959
  76.8290012 130.5314997  45.2149988  76.4940012 129.6514997  45.3869988
  77.0510012 130.8764997  46.0799988  76.8131783 130.4577500  45.3554208
  94.3770012 131.3404997  48.1959988  94.3560012 131.5254997  49.1349988
  95.0680012 131.9094997  47.8549988  94.4674618 131.4426606  48.2783864
  93.9410012 130.9084997  51.1179988  93.4530012 130.1724997  50.7469988
  94.4900012 130.5144997  51.7959988  93.9484872 130.7546249  51.1589160
  92.3910012 126.6974997  55.7559988  91.5250012 126.5924997  56.1499988
  92.7680012 127.4564997  56.2019988  92.3233308 126.7856900  55.8702393
  93.6920012 124.9544997  41.2699988  94.5420012 125.3754997  41.3969988
  93.6980012 124.2144997  41.8769988  93.8091372 124.9120803  41.3694344
  94.0870012 123.0074997  43.0939988  93.3600012 122.5284997  43.4909988
  94.6680012 123.2134997  43.8259988  94.0659375 122.9697090  43.2474129
  93.8460012 125.7924997  48.0409988  94.6790012 125.4144997  47.7609988
  93.9580012 126.7354997  47.9219988  93.9752647 125.8682218  47.9865487
  92.3320012 128.6704997  50.3479988  91.6850012 128.9954997  50.9739988
  91.8150012 128.2304997  49.6739988  92.1734029 128.6555004  50.3425827
  94.3550012 122.9084997  39.4849988  93.8330012 123.2654997  38.7659988
  94.3220012 123.5834997  40.1629988  94.2791634 123.0485413  39.4783145
  92.7040012 120.1484997  38.0359988  92.8000012 120.8154997  37.3549988
  92.5640012 119.3324997  37.5539988  92.6982135 120.1294500  37.8778491
  91.8730012 121.5284997  43.6569988  91.7230012 120.5834997  43.6359988
  91.5200012 121.8094997  44.4999988  91.8046625 121.4370441  43.7682346
  76.9090012 123.6064997  47.6669988  77.0930012 123.5244997  46.7309988
  77.7580012 123.4824997  48.0909988  77.0490139 123.5785003  47.5961455
  92.7300012 123.4984997  53.2949988  93.3130012 122.7644997  53.4869988
  93.2940012 124.2704997  53.3419988  92.8859769 123.5024227  53.3276159
  94.2260012 121.4014997  53.9799988  93.3630012 121.0224997  53.8139988
  94.8310012 120.6624997  53.9059988  94.1895979 121.2498023  53.9472817
  91.9510012 117.5564997  37.1529988  92.5620012 117.1854997  37.7899988
  91.1150012 117.1354997  37.3489988  91.9215032 117.4487554  37.2667035
  91.5840012 119.1114997  42.1189988  91.8640012 118.2044997  42.2429988
  92.3430012 119.5454997  41.7299988  91.7249277 119.0460942  42.0833682
  92.1960012 119.6924997  47.5549988  93.1290012 119.9044997  47.5209988
  91.9610012 119.7944997  48.4769988  92.2918036 119.7352769  47.6749976
  92.2250012 120.4294997  50.3309988  91.3820012 120.6974997  50.6969988
  92.6670012 121.2514997  50.1199988  92.1694158 120.5773291  50.3525491
  76.5060012 118.8774997  53.8079988  77.4260012 118.7554997  54.0439988
  76.0570012 118.1274997  54.1969988  76.5711580 118.7593727  53.8929006
  94.5080012 114.4094997  55.6839988  94.8580012 113.7554997  55.0789988
  94.6550012 115.2464997  55.2449988  94.5758419 114.4331591  55.5417118
  92.1970012 116.3744997  42.1669988  92.3800012 115.9254997  42.9929988
  91.5980012 115.7894997  41.7039988  92.1410202 116.2339975  42.2173275
  77.7270012 117.1894997  46.6989988  78.1730012 116.3974997  47.0009988
  78.1940012 117.9054997  47.1299988  77.8510172 117.1780624  46.7984820
  76.0310012 120.1884997  47.7679988  76.5230012 119.9674997  46.9769988
  76.3940012 121.0294997  48.0489988  76.1473126 120.2718357  47.6977531
  94.0280012 116.5184997  54.0339988  93.1100012 116.7894997  53.9979988
  94.1510012 115.9834997  53.2489988  93.9191066 116.4832892  53.9230487
  94.0640012 116.4414997  38.6949988  94.4760012 115.7204997  38.2199988
  94.7460012 117.1114997  38.7539988  94.2125885 116.4332368  38.6378915
  76.3450012 116.4464997  41.8219988  75.4200012 116.6554997  41.6929988
  76.7990012 116.9304997  41.1329988  76.2797368 116.5405993  41.7111226
  91.1160012 131.4304997  43.7679988  91.7680012 131.0834997  43.1599988
  91.6260012 131.9194997  44.4139988  91.2742637 131.4490597  43.7720236
  76.3090012 115.1844997  50.1669988  75.6440012 114.9384997  50.8099988
  75.8660012 115.8064997  49.5889988  76.1580956 115.2348632  50.1769352
  78.5010012 128.3594997  54.3109988  77.6800012 128.5344997  53.8509988
  78.2480012 128.2864997  55.2319988  78.3546164 128.3735622  54.3724923
  81.4550012 129.3344997  50.5699988  81.0300012 130.1434997  50.2869988
  82.3590012 129.4194997  50.2679988  81.5190271 129.4568469  50.4903776
  85.7660012 130.7334997  53.5289988  85.9510012 130.3994997  54.4069988
  86.6120012 131.0424997  53.2069988  85.9057539 130.7296047  53.6055605
  88.1110012 132.0194997  52.7729988  88.7880012 131.3864997  52.5329988
  88.4330012 132.4204997  53.5799988  88.2471637 131.9871154  52.8492793
  93.0280012 114.6084997  51.8529988  92.2160012 114.9334997  51.4649988
  93.2610012 113.8484997  51.3199988  92.9483423 114.5502436  51.7278253
  78.8570012 132.5904997  50.6169988  78.1360012 133.0304997  50.1659988
  78.4910012 132.3394997  51.4659988  78.7089804 132.6167698  50.6699840
  81.3240012 132.1904997  49.6469988  80.4590012 132.2624997  50.0509988
  81.2690012 132.7374997  48.8629988  81.1982085 132.2742685  49.5963362
  86.0340012 132.0784997  48.8219988  85.5780012 132.6074997  48.1679988
  86.1970012 132.6814997  49.5479988  85.9935585 132.2324468  48.8305062
  88.3620012 130.9564997  49.7669988  87.4570012 131.1214997  49.5019988
  88.7910012 131.8094997  49.7019988  88.2960799 131.0944483  49.7219182
  90.9660012 132.5264997  50.0619988  90.7840012 133.4424997  49.8519988
  91.1430012 132.1164997  49.2159988  90.9650210 132.5964822  49.9187885
  78.2710012 131.2134997  47.5269988  78.2530012 130.7884997  48.3849988
  79.0760012 130.8954997  47.1189988  78.3773875 131.1123812  47.5891655
  80.4130012 129.9234997  46.1819988  80.1940012 129.0074997  46.3519988
  81.2370012 130.0634997  46.6479988  80.4944420 129.8170520  46.2682774
  82.9500012 130.3934997  47.0309988  83.1630012 129.5054997  46.7439988
  83.0140012 130.3594997  47.9849988  82.9878232 130.2673102  47.1207397
  86.4580012 116.0574997  46.1749988  85.7840012 115.4284997  46.4309988
  87.0220012 115.5734997  45.5719988  86.4419230 115.9058744  46.1285340
  91.6010012 114.1654997  46.2879988  92.2050012 114.7124997  45.7859988
  90.7310012 114.4844997  46.0479988  91.5661241 114.2835806  46.1867654
  93.3280012 115.3034997  44.6209988  93.9400012 114.7894997  44.0949988
  93.7100012 116.1814997  44.6449988  93.4634540 115.3517140  44.5521830
  78.7850012 114.6914997  43.9969988  78.0080012 114.4574997  43.4899988
  79.3150012 113.8944997  44.0059988  78.7502330 114.5516988  43.9287742
  77.6210012 114.4894997  39.8009988  78.0600012 115.1004997  39.2089988
  76.9880012 115.0274997  40.2749988  77.5954514 114.6459257  39.7840930
  83.3640012 114.6184997  43.8109988  84.2390012 115.0064997  43.7809988
  83.2280012 114.4034997  44.7329988  83.4653695 114.6425184  43.9316440
  88.9210012 114.6484997  45.4599988  88.9970012 114.7434997  44.5099988
  88.6460012 113.7404997  45.5889988  88.8942321 114.5387867  45.3475079
  90.2740012 114.6744997  41.1519988  89.5720012 115.2894997  40.9429988
  89.8300012 113.8364997  41.2829988  90.1176330 114.6455783  41.1410328
  77.5220012 130.4374997  40.6989988  76.8370012 130.3994997  40.0309988
  77.5260012 131.3504997  40.9869988  77.4288193 130.5557016  40.6465284
  79.4820012 116.4054997  38.2429988  79.9740012 115.7754997  37.7159988
  80.1060012 116.7014997  38.9069988  79.6335446 116.3593199  38.2605980
  84.5080012 116.6984997  40.6999988  84.6860012 116.0524997  41.3829988
  84.4550012 117.5324997  41.1679988  84.5251829 116.7227985  40.8565940
  86.3870012 131.6474997  39.0959988  87.2530012 132.0134997  38.9179988
  86.1400012 131.2074997  38.2819988  86.4722392 131.6381756  38.9616289
  93.0960012 131.2104997  41.7749988  92.9010012 130.4624997  41.2099988
  93.0570012 131.9684997  41.1919988  93.0640380 131.2106099  41.6188384
  78.7430012 115.2054997  53.5149988  78.3770012 114.4404997  53.9579988
  79.6560012 115.2344997  53.8019988  78.8162790 115.1047224  53.6144070
  80.7160012 114.5564997  55.0509988  81.6140012 114.2824997  54.8659988
  80.3290012 113.8134997  55.5149988  80.7866612 114.4185914  55.0883643
  79.3400012 131.3574997  37.7239988  79.0730012 131.6444997  38.5969988
  80.1120012 130.8114997  37.8759988  79.4077488 131.3230294  37.8641050
  89.1370012 113.8884997  55.2329988  89.2140012 113.4624997  56.0869988
  90.0310012 113.9024997  54.8899988  89.2683428 113.8320879  55.3035310
  92.3130012 129.9614997  53.9249988  91.5310012 129.7754997  53.4059988
  92.2410012 130.8904997  54.1429988  92.1961777 130.0616492  53.8834048
 106.7190012 123.8474997  43.9559988 106.8080012 124.7914997  43.8239988
 106.0810012 123.5724997  43.2979988 106.6449081 123.9394830  43.8489614
 105.6520012 123.1024997  47.3749988 105.6140012 122.4564997  48.0799988
 105.3300012 122.6364997  46.6039988 105.6032333 122.9509408  47.3672978
  98.0210012 122.7174997  48.9679988  98.0620012 122.0914997  49.6909988
  98.7240012 123.3414997  49.1499988  98.1216363 122.7161196  49.0916044
 109.3580012 126.0414997  45.6759988 108.9180012 125.3214997  46.1269988
 109.3450012 126.7624997  46.3059988 109.2960226 126.0403731  45.8228494
  98.9440012 127.1674997  47.5029988  98.5750012 126.3654997  47.1329988
  99.8850012 126.9984997  47.5489988  99.0207289 127.0350153  47.4586316
  95.5540012 120.8274997  42.8959988  95.1070012 121.6734997  42.8769988
  94.9930012 120.2474997  42.3799988  95.4169900 120.8649916  42.8236801
  96.2650012 122.9894997  45.0219988  96.4780012 122.2194997  45.5489988
  97.0030012 123.0784997  44.4179988  96.3938496 122.8961394  45.0125300
 106.4700012 131.1464997  45.8889988 107.0900012 130.4694997  45.6149988
 106.2620012 130.9284997  46.7969988 106.5266904 131.0243870  45.9743365
 104.0420012 125.5354997  47.7809988 104.3460012 124.8494997  47.1859988
 104.7630012 125.6534997  48.3989988 104.1810671 125.4576304  47.7831816
 112.7050012 117.1364997  48.6419988 112.7540012 117.7464997  49.3779988
 113.1300012 117.5974997  47.9189988 112.7691824 117.2823741  48.6450205
 107.1830012 119.9294997  48.1089988 107.3250012 118.9834997  48.1289988
 107.0760012 120.1364997  47.1799988 107.1879864 119.8279534  47.9862339
 100.3370012 118.0304997  45.3809988 100.3810012 118.8904997  44.9629988
  99.8800012 117.4784997  44.7469988 100.2812185 118.0735799  45.2380299
 108.0600012 118.1614997  43.7819988 108.7060012 117.8324997  44.4069988
 108.5700012 118.6794997  43.1589988 108.2174264 118.1864611  43.7833862
  96.9580012 120.4274997  46.1429988  97.6110012 119.8774997  46.5749988
  96.9820012 120.1534997  45.2259988  97.0506683 120.3151466  46.0782123
 102.1140012 121.9774997  45.3579988 102.7300012 121.4514997  45.8679988
 101.5280012 121.3374997  44.9549988 102.1190810 121.8189208  45.3733173
 113.0960012 118.6144997  50.8779988 112.4080012 119.2724997  50.7819988
 113.1120012 118.4174997  51.8139988 113.0038525 118.6780462  50.9914808
  99.1480012 116.9484997  49.4549988  98.9290012 117.4784997  48.6889988
  98.4800012 117.1754997  50.1019988  99.0277600 117.0516906  49.4376379
 106.5170012 126.4484997  42.9989988 106.2210012 126.1264997  42.1479988
 106.1920012 127.3484997  43.0399988 106.4326371 126.5260215  42.8881801
 101.7170012 124.6244997  49.7419988 100.9770012 125.2224997  49.8459988
 102.4310012 125.1784997  49.4269988 101.7122237 124.7812831  49.7136465
 109.8240012 117.4524997  45.7619988 109.6080012 116.6864997  46.2949988
 110.4790012 117.9244997  46.2749988 109.8830632 117.4115889  45.9042861
  98.7410012 118.8404997  47.4069988  99.3550012 119.4734997  47.7809988
  99.2530012 118.3684997  46.7509988  98.8942296 118.8632370  47.3694252
 100.1240012 126.5884997  50.5299988 100.1190012 127.4684997  50.1519988
  99.2710012 126.5054997  50.9549988 100.0079464 126.6976117  50.5357907
  96.2450012 126.2594997  41.3119988  95.9730012 126.4884997  40.4229988
  96.2910012 127.0974997  41.7719988  96.2140094 126.4041213  41.2525697
 109.8700012 127.8814997  48.0239988 108.9290012 127.9394997  48.1859988
 110.1470012 128.7874997  47.8869988 109.7784679 128.0119443  48.0276815
 110.1710012 116.1674997  49.4419988 109.4350012 116.7784997  49.4039988
 110.8540012 116.5824997  48.9149988 110.1626541 116.3071374  49.3655832
 103.1740012 114.2544997  46.9079988 103.0570012 113.3054997  46.8529988
 102.3190012 114.5864997  47.1809988 103.0423733 114.1695409  46.9373897
 108.1220012 129.6624997  44.6499988 108.5480012 128.9554997  44.1649988
 108.4390012 130.4634997  44.2329988 108.2231019 129.6740994  44.5273130
 109.2820012 127.5634997  43.1579988 109.0240012 126.8734997  42.5469988
 109.3530012 127.1204997  44.0039988 109.2562856 127.4092124  43.1886885
 110.9680012 126.1294997  51.6359988 111.1080012 125.5384997  50.8959988
 111.1350012 127.0024997  51.2789988 111.0096778 126.1666426  51.4866965
 105.4410012 123.0914997  41.4079988 104.7290012 123.6264997  41.0559988
 106.1320012 123.1474997  40.7479988 105.4370132 123.1722543  41.2706289
 105.4940012 121.5494997  38.4469988 106.1950012 121.5714997  39.0979988
 105.7970012 120.9214997  37.7909988 105.6307830 121.4676566  38.4473711
 112.8100012 122.4694997  49.7019988 112.1570012 123.1644997  49.7909988
 113.2750012 122.6794997  48.8919988 112.7835390 122.5929425  49.6046883
 108.8460012 123.3014997  42.3599988 108.1140012 123.5294997  42.9329988
 109.2940012 122.5874997  42.8149988 108.8063095 123.2362571  42.4999119
 108.7440012 121.4754997  51.4269988 108.8240012 122.2384997  51.9989988
 108.1420012 121.7544997  50.7369988 108.6735756 121.6177134  51.4120589
 100.4920012 123.9314997  44.2419988 100.1610012 123.5614997  43.4239988
 101.0800012 123.2614997  44.5889988 100.5261873 123.7901156  44.1768102
 101.8580012 127.3594997  46.9239988 101.7640012 126.7814997  46.1669988
 102.5880012 126.9884997  47.4199988 101.9437981 127.2302390  46.8874165
 100.8580012 122.7004997  47.8759988 101.4240012 122.8214997  47.1129988
 101.1770012 123.3374997  48.5149988 100.9785786 122.8031884  47.8580040
 107.1670012 128.2034997  48.6099988 106.9270012 128.8654997  49.2579988
 106.9690012 127.3694997  49.0349988 107.1073808 128.1813134  48.7561524
 101.7380012 127.0994997  52.5929988 101.4270012 127.8814997  53.0479988
 101.0880012 126.9464997  51.9069988 101.6075558 127.1859105  52.5625871
 107.7170012 122.4634997  40.0449988 108.2970012 122.6134997  40.7919988
 108.1310012 122.9344997  39.3219988 107.8522830 122.5476841  40.0494134
  98.6580012 123.2974997  51.8219988  98.7290012 123.9484997  52.5199988
  97.7680012 123.4004997  51.4869988  98.5473117 123.4005936  51.8722700
 105.4440012 129.2004997  43.4799988 105.9180012 129.4954997  44.2579988
 104.8810012 129.9384997  43.2469988 105.4327653 129.3406932  43.5550136
  99.9780012 129.1714997  53.3559988  99.9850012 129.0354997  52.4089988
  99.0620012 129.0534997  53.6079988  99.8551714 129.1369430  53.2604666
 111.4160012 114.2134997  39.8579988 110.5160012 114.3524997  40.1529988
 111.6680012 115.0444997  39.4559988 111.3268702 114.3449074  39.8440205
  99.4820012 123.0014997  41.8319988  99.1900012 123.7694997  41.3409988
  98.8080012 122.3414997  41.6689988  99.3509081 123.0174406  41.7427340
 112.6050012 128.5794997  38.2339988 112.6790012 129.5184997  38.4049988
 113.5110012 128.2744997  38.1779988 112.7375100 128.6666722  38.2498119
  95.5750012 125.3644997  50.6469988  95.0740012 125.3364997  49.8319988
  95.5800012 124.4584997  50.9559988  95.5071526 125.2382278  50.5772872
  95.3250012 128.1444997  47.5309988  96.2710012 128.0004997  47.5119988
  95.2130012 128.9284997  48.0679988  95.4392727 128.2308046  47.6010072
 113.5230012 128.8104997  53.2129988 113.4740012 127.8554997  53.1759988
 112.6960012 129.0784997  53.6139988 113.4044940 128.7158998  53.2621375
 104.5020012 128.3844997  52.0889988 104.5890012 129.2104997  52.5639988
 103.6380012 128.0544997  52.3379988 104.3971964 128.4529878  52.1876549
 104.9160012 132.1564997  41.8949988 104.8410012 132.0354997  40.9489988
 104.9490012 133.1064997  42.0139988 104.9101848 132.2682500  41.7814834
  98.5690012 130.9454997  43.6759988  98.7220012 130.5974997  44.5549988
  97.7190012 130.5894997  43.4209988  98.4748962 130.8496650  43.7618340
 108.0180012 131.3104997  38.8969988 108.3930012 130.5664997  38.4269988
 108.0220012 131.0404997  39.8159988 108.0698915 131.1721486  38.9567824
 107.6870012 131.2364997  41.6469988 106.7510012 131.3364997  41.8249988
 107.9670012 130.5274997  42.2249988 107.5968255 131.1542711  41.7495391
 110.6750012 120.3034997  53.6929988 110.2680012 120.7844997  52.9719988
 110.7160012 119.3984997  53.3849988 110.6248437 120.2469374  53.5526683
  97.8240012 126.6874997  51.6899988  98.0400012 126.3264997  52.5489988
  96.9690012 126.3134997  51.4799988  97.7379292 126.5874111  51.7793386
 100.4430012 115.1574997  47.6849988  99.5810012 115.0704997  47.2779988
 100.4200012 116.0134997  48.1129988 100.3220330 115.2612765  47.6871863
 105.1060012 114.8794997  51.0599988 105.5260012 114.4644997  51.8129988
 104.1730012 114.7014997  51.1769988 105.0373644 114.7985900  51.1789539
 108.4320012 118.6354997  51.9129988 107.9180012 118.5094997  52.7109988
 108.2770012 119.5474997  51.6689988 108.3406852 118.7416132  51.9892158
 109.1950012 123.4964997  37.6749988 109.2370012 123.2734997  36.7449988
 110.0440012 123.8954997  37.8649988 109.3155396 123.5199155  37.5733627
 104.7670012 117.3724997  38.3449988 104.5140012 117.3914997  39.2679988
 104.5110012 116.5004997  38.0439988 104.6977790 117.2572437  38.4306263
 100.5340012 120.1234997  48.7799988  99.8920012 120.0824997  49.4889988
 100.5710012 121.0494997  48.5429988 100.4511324 120.2431559  48.8449824
 100.5310012 120.3444997  43.6919988  99.6380012 120.0034997  43.6339988
 100.9810012 119.9674997  42.9369988 100.4697305 120.2468484  43.5819177
 106.0660012 120.7604997  42.5089988 105.6570012 121.5754997  42.2179988
 106.7870012 120.6204997  41.8949988 106.1074537 120.8532018  42.3861342
 105.1680012 120.9354997  53.9969988 104.6060012 120.2314997  54.3179988
 105.9950012 120.8154997  54.4649988 105.2027095 120.8227883  54.1042330
 107.0710012 120.2064997  45.3229988 106.8760012 120.8114997  44.6079988
 107.2520012 119.3724997  44.8889988 107.0687614 120.1766300  45.1664405
  98.2840012 120.4434997  50.6469988  98.2460012 120.8434997  51.5159988
  97.7930012 119.6264997  50.7379988  98.2124684 120.3878069  50.7781059
 101.6500012 117.8174997  37.4459988 101.2190012 117.3724997  38.1759988
 100.9320012 118.1894997  36.9339988 101.4939438 117.8068940  37.4766799
  94.8920012 117.5594997  44.4979988  95.5230012 117.5304997  45.2169988
  95.3410012 117.1344997  43.7679988  95.0390774 117.4980492  44.4976553
  96.1660012 118.3054997  39.9219988  96.6400012 118.8964997  39.3369988
  95.4490012 118.8364997  40.2689988  96.1339341 118.4580867  39.8888836
 106.3350012 121.8444997  49.9949988 106.6580012 121.2134997  49.3519988
 105.8950012 121.3094997  50.6549988 106.3196895 121.6858441  49.9962850
 103.1120012 117.7714997  44.7789988 102.2010012 117.8284997  45.0669988
 103.6180012 117.7114997  45.5889988 103.0555413 117.7711985  44.9280622
  97.9410012 119.4004997  43.6049988  97.0510012 119.5004997  43.2649988
  98.2370012 118.5584997  43.2589988  97.8592823 119.3003545  43.5117213
 101.5940012 119.4004997  41.2619988 102.5250012 119.5294997  41.4399988
 101.3790012 120.0704997  40.6119988 101.6924247 119.5086565  41.1985747
 107.5170012 117.0064997  48.0429988 106.8410012 117.1374997  48.7069988
 107.0320012 116.8514997  47.2329988 107.3587145 117.0034905  48.0244517
 100.2680012 120.5954997  38.8289988  99.7250012 120.2154997  38.1369988
 101.1010012 120.7894997  38.3999988 100.3064399 120.5698124  38.6764526
 110.8050012 132.6784997  54.3199988 111.0050012 133.1024997  53.4849988
 111.4600012 133.0214997  54.9269988 110.9210051 132.7829648  54.2877836
  98.4030012 125.1524997  53.9279988  99.1350012 125.4064997  54.4889988
  97.6230012 125.3564997  54.4429988  98.3978232 125.2149177  54.0745760
 104.4320012 120.5594997  46.6659988 104.9970012 120.0124997  46.1189988
 104.2850012 120.0374997  47.4539988 104.4892918 120.4142024  46.6978454
  99.4340012 116.6954997  43.0839988  99.1170012 115.7934997  43.0489988
 100.2160012 116.6974997  42.5309988  99.4962284 116.5721628  43.0044783
 103.0590012 118.9474997  49.0799988 102.2230012 119.4014997  49.1899988
 103.5830012 119.2234997  49.8319988 103.0154414 119.0469376  49.1967136
 103.6030012 125.1604997  40.7639988 102.8580012 124.6534997  40.4419988
 103.4690012 125.2094997  41.7109988 103.4828776 125.0976940  40.8478647
 110.7530012 124.2934997  49.5509988 111.3950012 124.7504997  49.0069988
 109.9230012 124.4064997  49.0879988 110.7285963 124.3712704  49.4140177
 107.5010012 117.9744997  38.9639988 106.5620012 118.0864997  38.8119988
 107.7980012 118.8314997  39.2699988 107.4127666 118.1056443  38.9845768
 105.1220012 125.3444997  52.0009988 104.7770012 124.9634997  52.8079988
 104.9220012 126.2784997  52.0729988 105.0478061 125.4185228  52.1210961
 108.2190012 119.8414997  40.6239988 109.1110012 119.7044997  40.9429988
 108.2760012 120.6324997  40.0879988 108.3486285 119.9296660  40.5951691
  98.7280012 124.4554997  46.5339988  99.4730012 124.4534997  45.9329988
  98.8060012 123.6324997  47.0159988  98.8405518 124.3439315  46.5168929
 105.7290012 126.6194997  39.7899988 105.4330012 127.4454997  40.1709988
 105.0260012 125.9994997  39.9859988 105.5934914 126.6488199  39.8686443
  95.7360012 122.9164997  51.8489988  95.9590012 122.4984997  52.6809988
  95.1340012 122.3034997  51.4259988  95.6851759 122.7764668  51.9057022
 102.7520012 122.4334997  54.0619988 102.4560012 122.2674997  53.1669988
 103.6840012 122.2134997  54.0509988 102.8374166 122.3810640  53.9380536
 107.3730012 127.8064997  51.9519988 106.4720012 127.9894997  51.6839988
 107.4070012 128.0654997  52.8729988 107.2543041 127.8665512  52.0398197
 113.1040012 120.0514997  40.3189988 112.5500012 119.6554997  39.6469988
 113.2040012 120.9614997  40.0409988 113.0417059 120.1203586  40.1894401
 113.0670012 125.8514997  53.1559988 112.2160012 126.0894997  52.7889988
 113.6580012 125.8344997  52.4029988 113.0302487 125.8818258  53.0038893
 111.3990012 128.8374997  40.7839988 111.0260012 128.0114997  41.0929988
 111.6770012 128.6544997  39.8869988 111.3855630 128.6997303  40.7049626
 108.5600012 123.6454997  47.8049988 107.6310012 123.4134997  47.7779988
 109.0110012 122.8684997  47.4749988 108.4939216 123.5087238  47.7566917
 101.1030012 127.9734997  43.9379988 101.6300012 128.7464997  43.7379988
 100.2230012 128.1984997  43.6369988 101.0561773 128.1098005  43.8699010
  96.8580012 122.8354997  38.5249988  97.4740012 123.4624997  38.9049988
  95.9960012 123.1514997  38.7969988  96.8257698 122.9639430  38.6137183
 102.5300012 125.6364997  43.5149988 102.2890012 126.5614997  43.5559988
 101.7890012 125.1774997  43.9109988 102.3968409 125.7011421  43.5741377
 103.0450012 129.7854997  49.8299988 103.4070012 130.6404997  49.5959988
 103.5760012 129.4934997  50.5699988 103.1664473 129.8631060  49.8980855
 101.2130012 130.6584997  43.0599988 100.2630012 130.7634997  43.1109988
 101.5650012 131.4784997  43.4049988 101.1304203 130.7838314  43.1136650
 106.5890012 125.8844997  49.5299988 106.1630012 125.6574997  50.3569988
 107.1690012 125.1464997  49.3479988 106.6091868 125.7535299  49.6185830
 108.7920012 126.8134997  38.6039988 109.1450012 126.4334997  39.4089988
 107.8430012 126.7204997  38.6909988 108.7120441 126.7489596  38.7258559
 109.2470012 130.4364997  51.9999988 108.6460012 129.8814997  51.5039988
 109.5290012 131.1034997  51.3739988 109.2028519 130.4506841  51.8474952
 113.2950012 131.2934997  38.8049988 114.0390012 131.8794997  38.6649988
 112.6010012 131.8614997  39.1389988 113.3030292 131.4505582  38.8309961
  97.3700012 117.6694997  51.4069988  96.4770012 118.0084997  51.3389988
  97.2710012 116.8144997  51.8249988  97.2344164 117.6002588  51.4542235
 109.6580012 125.4864997  40.8309988 109.3800012 124.7584997  41.3869988
 110.5850012 125.6054997  41.0359988 109.7453124 125.4028802  40.9348845
  97.0210012 129.4744997  49.8419988  97.2380012 128.5424997  49.8109988
  97.2670012 129.7484997  50.7249988  97.0839549 129.3840636  49.9571763
 102.8830012 127.9254997  37.0509988 103.1220012 127.1774997  36.5039988
 102.6140012 127.5374997  37.8839988 102.8793675 127.7706638  37.0886865
 101.8200012 127.4954997  39.5079988 101.9660012 126.9754997  40.2979988
 101.8170012 128.4024997  39.8139988 101.8395989 127.5468853  39.6576088
  98.2730012 124.7484997  40.0179988  97.5870012 125.1004997  40.5849988
  98.7950012 125.5114997  39.7709988  98.2496852 124.8998578  40.0622118
 106.1040012 117.4104997  50.2969988 106.8030012 117.4844997  50.9469988
 105.7230012 116.5464997  50.4509988 106.1481767 117.3037624  50.4068322
 106.8890012 117.0624997  41.3939988 107.1090012 117.5344997  40.5909988
 107.4470012 117.4574997  42.0639988 106.9944968 117.1804285  41.3747331
 104.5570012 129.1934997  40.2569988 103.7410012 129.6904997  40.3089988
 105.0870012 129.6684997  39.6169988 104.5169161 129.3257722  40.1775956
 104.0890012 118.7904997  42.2289988 104.9010012 119.2954997  42.2749988
 103.8440012 118.6454997  43.1429988 104.1670520 118.8400375  42.3588517
 104.6240012 119.7764997  51.4139988 104.7430012 120.3504997  52.1709988
 105.2800012 119.0884997  51.5279988 104.7289757 119.7621079  51.5330825
 104.9720012 115.8714997  43.1669988 104.6260012 116.4894997  43.8119988
 105.6310012 116.3724997  42.6859988 105.0137826 116.0235802  43.1900971
 101.8960012 130.2374997  40.2389988 102.0560012 131.0364997  39.7379988
 101.6980012 130.5434997  41.1239988 101.8911649 130.3884469  40.2899815
 100.6300012 116.9344997  39.8539988 100.5470012 117.8234997  40.2009988
 101.5200012 116.6694997  40.0859988 100.7389469 117.0201430  39.9327626
 110.8290012 117.6834997  52.2489988 109.9120012 117.9464997  52.1609988
 111.1640012 117.6804997  51.3519988 110.7489900 117.7190224  52.1157919
 109.4310012 121.4344997  46.3439988 108.6330012 121.0194997  46.0159988
 109.8760012 120.7434997  46.8349988 109.3819885 121.2843543  46.3654889
  98.8890012 127.3624997  38.9149988  99.4810012 128.0614997  39.1909988
  99.3480012 126.9294997  38.1949988  99.0321142 127.3997049  38.8554830
  97.2050012 120.0264997  38.0309988  97.1600012 120.9654997  38.2089988
  96.3170012 119.7904997  37.7609988  97.0788574 120.1231892  38.0188912
 110.5170012 130.6904997  47.9669988 110.3620012 131.3684997  47.3099988
 111.4500012 130.7624997  48.1699988 110.6218500 130.7930170  47.9045119
  98.0130012 114.8084997  46.7039988  97.7840012 114.8674997  45.7759988
  97.5700012 114.0164997  47.0099988  97.9218530 114.7095753  46.6184786
  96.9430012 128.7484997  42.8639988  96.1110012 129.2214997  42.8919988
  97.4890012 129.2584997  42.2659988  96.9029739 128.8821871  42.7869716
  96.2310012 131.3614997  54.1939988  96.7720012 131.1444997  54.9539988
  95.7500012 130.5554997  54.0049988  96.2399345 131.2229514  54.2723076
 100.8290012 130.2804997  55.8149988 101.5960012 129.8214997  56.1559988
 100.8070012 130.0544997  54.8849988 100.9311434 130.1870409  55.7360043
 104.9210012 129.7884997  37.1899988 104.2770012 129.1574997  37.5109988
 105.6830012 129.2574997  36.9579988 104.9358077 129.6302920  37.2026011
 107.4060012 128.6604997  54.5439988 107.0550012 127.8044997  54.7869988
 108.1320012 128.8034997  55.1509988 107.4560769 128.5625636  54.6593619
 109.5250012 129.6054997  37.4239988 109.8080012 128.8114997  37.8759988
 110.2650012 129.8384997  36.8629988 109.6637486 129.5282803  37.4100698
  96.1380012 125.1714997  55.1489988  96.2820012 124.2694997  54.8619988
  95.3660012 125.4574997  54.6609988  96.0533322 125.0868261  55.0437881
 100.4800012 125.5154997  37.2809988 100.5440012 124.7214997  37.8119988
 101.1330012 125.3964997  36.5909988 100.5770241 125.3907148  37.2604317
 102.7940012 125.1414997  54.5809988 102.4650012 125.4124997  53.7239988
 102.9460012 124.2004997  54.4939988 102.7694809 125.0513862  54.4518244
 105.8320012 126.5624997  37.0169988 105.5630012 126.7424997  37.9179988
 105.6260012 125.6364997  36.8859988 105.7673825 126.4620152  37.1225214
 108.5280012 125.0574997  51.9649988 109.2740012 125.6454997  51.8449988
 107.7710012 125.6394997  52.0279988 108.5277554 125.2167011  51.9570907
  96.9710012 122.3714997  54.5689988  97.3790012 121.5144997  54.4479988
  96.7110012 122.3864997  55.4899988  96.9917568 122.2560807  54.6769588
 101.6290012 123.4874997  39.5869988 101.1690012 123.0034997  40.2729988
 101.8840012 122.8194997  38.9509988 101.6004902 123.3308731  39.5949334
 100.9180012 121.3804997  51.9429988 100.3000012 122.0554997  52.2229988
 101.2620012 121.7014997  51.1099988 100.8799615 121.5162721  51.8686581
 102.7000012 121.7304997  37.8489988 102.5200012 121.5764997  36.9219988
 103.6500012 121.8384997  37.8939988 102.8037776 121.7240175  37.7281843
 105.9380012 123.8524997  55.2199988 106.8910012 123.9354997  55.1929988
 105.7770012 123.1404997  55.8399988 106.0466426 123.7676746  55.3000579
 112.0900012 124.0854997  37.2949988 111.8160012 123.6604997  36.4819988
 112.1290012 125.0164997  37.0779988 112.0577699 124.1532484  37.1543610
 101.2570012 118.7354997  53.0249988 101.4070012 118.0064997  52.4229988
 101.2600012 119.5124997  52.4659988 101.2779302 118.7407851  52.8670692
 101.6700012 117.1054997  50.5179988 102.2060012 117.5564997  49.8659988
 100.8180012 116.9974997  50.0949988 101.6282178 117.1526390  50.3715756
 103.2520012 122.5444997  50.7569988 104.0020012 122.3884997  50.1839988
 102.9130012 123.3964997  50.4819988 103.3088921 122.6382968  50.6413561
 107.6670012 120.3594997  55.7859988 107.8600012 119.4284997  55.6739988
 108.5250012 120.7844997  55.7759988 107.8093020 120.2896389  55.7693361
 108.9840012 123.1484997  53.8629988 108.7030012 123.8574997  53.2859988
 109.9270012 123.0754997  53.7119988 109.0729027 123.2357646  53.7635551
  99.7360012 119.9334997  54.9369988  98.9690012 119.4014997  54.7269988
 100.4150012 119.6234997  54.3369988  99.7227022 119.8187506  54.8271648
 102.4760012 114.5614997  50.9489988 102.3770012 115.5084997  50.8439988
 101.7330012 114.1894997  50.4739988 102.3620563 114.6405902  50.8704560
 103.7400012 118.8834997  54.5129988 103.5040012 118.6634997  55.4149988
 102.9560012 118.6764997  54.0029988 103.6018628 118.8254760  54.5673932
 106.4550012 118.0104997  53.5889988 105.5080012 118.0424997  53.7209988
 106.7680012 117.3854997  54.2419988 106.3675475 117.9303207  53.6954455
 108.0890012 116.6444997  55.5939988 107.9930012 115.6924997  55.5879988
 107.7680012 116.9134997  56.4539988 108.0324070 116.5504035  55.7095441
  97.9160012 117.8544997  54.6409988  98.1280012 117.1474997  54.0309988
  97.8050012 117.4164997  55.4849988  97.9299721 117.6987084  54.6716843
 102.6970012 113.8554997  53.6209988 103.4090012 113.2154997  53.6069988
 102.5960012 114.1224997  52.7069988 102.7807939 113.8039938  53.4955650
 103.0510012 115.5384997  55.6739988 102.9190012 115.0624997  54.8539988
 102.4520012 116.2824997  55.6189988 102.9519071 115.5739618  55.5542886
 102.5970012 132.4214997  38.8509988 103.5300012 132.5794997  38.9939988
 102.3330012 133.0964997  38.2259988 102.6889510 132.5343611  38.7860741
  96.1660012 127.0574997  38.3329988  97.0800012 127.1364997  38.6069988
  96.1730012 126.3704997  37.6669988  96.2921131 126.9753961  38.2804393
  94.8150012 132.4504997  43.4109988  94.1680012 131.9884997  42.8779988
  95.1690012 131.7784997  43.9929988  94.7743849 132.2964723  43.4167959
  95.6850012 130.5314997  45.2149988  95.3500012 129.6514997  45.3869988
  95.9070012 130.8764997  46.0799988  95.6691783 130.4577500  45.3554208
 113.2330012 131.3404997  48.1959988 113.2120012 131.5254997  49.1349988
 113.9240012 131.9094997  47.8549988 113.3234618 131.4426606  48.2783864
 112.7970012 130.9084997  51.1179988 112.3090012 130.1724997  50.7469988
 113.3460012 130.5144997  51.7959988 112.8044872 130.7546249  51.1589160
 111.2470012 126.6974997  55.7559988 110.3810012 126.5924997  56.1499988
 111.6240012 127.4564997  56.2019988 111.1793308 126.7856900  55.8702393
 112.5480012 124.9544997  41.2699988 113.3980012 125.3754997  41.3969988
 112.5540012 124.2144997  41.8769988 112.6651372 124.9120803  41.3694344
 112.9430012 123.0074997  43.0939988 112.2160012 122.5284997  43.4909988
 113.5240012 123.2134997  43.8259988 112.9219375 122.9697090  43.2474129
 112.7020012 125.7924997  48.0409988 113.5350012 125.4144997  47.7609988
 112.8140012 126.7354997  47.9219988 112.8312647 125.8682218  47.9865487
 111.1880012 128.6704997  50.3479988 110.5410012 128.9954997  50.9739988
 110.6710012 128.2304997  49.6739988 111.0294029 128.6555004  50.3425827
 113.2110012 122.9084997  39.4849988 112.6890012 123.2654997  38.7659988
 113.1780012 123.5834997  40.1629988 113.1351634 123.0485413  39.4783145
 111.5600012 120.1484997  38.0359988 111.6560012 120.8154997  37.3549988
 111.4200012 119.3324997  37.5539988 111.5542135 120.1294500  37.8778491
 110.7290012 121.5284997  43.6569988 110.5790012 120.5834997  43.6359988
 110.3760012 121.8094997  44.4999988 110.6606625 121.4370441  43.7682346
  95.7650012 123.6064997  47.6669988  95.9490012 123.5244997  46.7309988
  96.6140012 123.4824997  48.0909988  95.9050139 123.5785003  47.5961455
 111.5860012 123.4984997  53.2949988 112.1690012 122.7644997  53.4869988
 112.1500012 124.2704997  53.3419988 111.7419769 123.5024227  53.3276159
 113.0820012 121.4014997  53.9799988 112.2190012 121.0224997  53.8139988
 113.6870012 120.6624997  53.9059988 113.0455979 121.2498023  53.9472817
 110.8070012 117.5564997  37.1529988 111.4180012 117.1854997  37.7899988
 109.9710012 117.1354997  37.3489988 110.7775032 117.4487554  37.2667035
 110.4400012 119.1114997  42.1189988 110.7200012 118.2044997  42.2429988
 111.1990012 119.5454997  41.7299988 110.5809277 119.0460942  42.0833682
 111.0520012 119.6924997  47.5549988 111.9850012 119.9044997  47.5209988
 110.8170012 119.7944997  48.4769988 111.1478036 119.7352769  47.6749976
 111.0810012 120.4294997  50.3309988 110.2380012 120.6974997  50.6969988
 111.5230012 121.2514997  50.1199988 111.0254158 120.5773291  50.3525491
  95.3620012 118.8774997  53.8079988  96.2820012 118.7554997  54.0439988
  94.9130012 118.1274997  54.1969988  95.4271580 118.7593727  53.8929006
 113.3640012 114.4094997  55.6839988 113.7140012 113.7554997  55.0789988
 113.5110012 115.2464997  55.2449988 113.4318419 114.4331591  55.5417118
 111.0530012 116.3744997  42.1669988 111.2360012 115.9254997  42.9929988
 110.4540012 115.7894997  41.7039988 110.9970202 116.2339975  42.2173275
  96.5830012 117.1894997  46.6989988  97.0290012 116.3974997  47.0009988
  97.0500012 117.9054997  47.1299988  96.7070172 117.1780624  46.7984820
  94.8870012 120.1884997  47.7679988  95.3790012 119.9674997  46.9769988
  95.2500012 121.0294997  48.0489988  95.0033126 120.2718357  47.6977531
 112.8840012 116.5184997  54.0339988 111.9660012 116.7894997  53.9979988
 113.0070012 115.9834997  53.2489988 112.7751066 116.4832892  53.9230487
 112.9200012 116.4414997  38.6949988 113.3320012 115.7204997  38.2199988
 113.6020012 117.1114997  38.7539988 113.0685885 116.4332368  38.6378915
  95.2010012 116.4464997  41.8219988  94.2760012 116.6554997  41.6929988
  95.6550012 116.9304997  41.1329988  95.1357368 116.5405993  41.7111226
 109.9720012 131.4304997  43.7679988 110.6240012 131.0834997  43.1599988
 110.4820012 131.9194997  44.4139988 110.1302637 131.4490597  43.7720236
  95.1650012 115.1844997  50.1669988  94.5000012 114.9384997  50.8099988
  94.7220012 115.8064997  49.5889988  95.0140956 115.2348632  50.1769352
  97.3570012 128.3594997  54.3109988  96.5360012 128.5344997  53.8509988
  97.1040012 128.2864997  55.2319988  97.2106164 128.3735622  54.3724923
 100.3110012 129.3344997  50.5699988  99.8860012 130.1434997  50.2869988
 101.2150012 129.4194997  50.2679988 100.3750271 129.4568469  50.4903776
 104.6220012 130.7334997  53.5289988 104.8070012 130.3994997  54.4069988
 105.4680012 131.0424997  53.2069988 104.7617539 130.7296047  53.6055605
 106.9670012 132.0194997  52.7729988 107.6440012 131.3864997  52.5329988
 107.2890012 132.4204997  53.5799988 107.1031637 131.9871154  52.8492793
 111.8840012 114.6084997  51.8529988 111.0720012 114.9334997  51.4649988
 112.1170012 113.8484997  51.3199988 111.8043423 114.5502436  51.7278253
  97.7130012 132.5904997  50.6169988  96.9920012 133.0304997  50.1659988
  97.3470012 132.3394997  51.4659988  97.5649804 132.6167698  50.6699840
 100.1800012 132.1904997  49.6469988  99.3150012 132.2624997  50.0509988
 100.1250012 132.7374997  48.8629988 100.0542085 132.2742685  49.5963362
 104.8900012 132.0784997  48.8219988 104.4340012 132.6074997  48.1679988
 105.0530012 132.6814997  49.5479988 104.8495585 132.2324468  48.8305062
 107.2180012 130.9564997  49.7669988 106.3130012 131.1214997  49.5019988
 107.6470012 131.8094997  49.7019988 107.1520799 131.0944483  49.7219182
 109.8220012 132.5264997  50.0619988 109.6400012 133.4424997  49.8519988
 109.9990012 132.1164997  49.2159988 109.8210210 132.5964822  49.9187885
  97.1270012 131.2134997  47.5269988  97.1090012 130.7884997  48.3849988
  97.9320012 130.8954997  47.1189988  97.2333875 131.1123812  47.5891655
  99.2690012 129.9234997  46.1819988  99.0500012 129.0074997  46.3519988
 100.0930012 130.0634997  46.6479988  99.3504420 129.8170520  46.2682774
 101.8060012 130.3934997  47.0309988 102.0190012 129.5054997  46.7439988
 101.8700012 130.3594997  47.9849988 101.8438232 130.2673102  47.1207397
 105.3140012 116.0574997  46.1749988 104.6400012 115.4284997  46.4309988
 105.8780012 115.5734997  45.5719988 105.2979230 115.9058744  46.1285340
 110.4570012 114.1654997  46.2879988 111.0610012 114.7124997  45.7859988
 109.5870012 114.4844997  46.0479988 110.4221241 114.2835806  46.1867654
 112.1840012 115.3034997  44.6209988 112.7960012 114.7894997  44.0949988
 112.5660012 116.1814997  44.6449988 112.3194540 115.3517140  44.5521830
  97.6410012 114.6914997  43.9969988  96.8640012 114.4574997  43.4899988
  98.1710012 113.8944997  44.0059988  97.6062330 114.5516988  43.9287742
  96.4770012 114.4894997  39.8009988  96.9160012 115.1004997  39.2089988
  95.8440012 115.0274997  40.2749988  96.4514514 114.6459257  39.7840930
 102.2200012 114.6184997  43.8109988 103.0950012 115.0064997  43.7809988
 102.0840012 114.4034997  44.7329988 102.3213695 114.6425184  43.9316440
 107.7770012 114.6484997  45.4599988 107.8530012 114.7434997  44.5099988
 107.5020012 113.7404997  45.5889988 107.7502321 114.5387867  45.3475079
 109.1300012 114.6744997  41.1519988 108.4280012 115.2894997  40.9429988
 108.6860012 113.8364997  41.2829988 108.9736330 114.6455783  41.1410328
  96.3780012 130.4374997  40.6989988  95.6930012 130.3994997  40.0309988
  96.3820012 131.3504997  40.9869988  96.2848193 130.5557016  40.6465284
  98.3380012 116.4054997  38.2429988  98.8300012 115.7754997  37.7159988
  98.9620012 116.7014997  38.9069988  98.4895446 116.3593199  38.2605980
 103.3640012 116.6984997  40.6999988 103.5420012 116.0524997  41.3829988
 103.3110012 117.5324997  41.1679988 103.3811829 116.7227985  40.8565940
 105.2430012 131.6474997  39.0959988 106.1090012 132.0134997  38.9179988
 104.9960012 131.2074997  38.2819988 105.3282392 131.6381756  38.9616289
 111.9520012 131.2104997  41.7749988 111.7570012 130.4624997  41.2099988
 111.9130012 131.9684997  41.1919988 111.9200380 131.2106099  41.6188384
  97.5990012 115.2054997  53.5149988  97.2330012 114.4404997  53.9579988
  98.5120012 115.2344997  53.8019988  97.6722790 115.1047224  53.6144070
  99.5720012 114.5564997  55.0509988 100.4700012 114.2824997  54.8659988
  99.1850012 113.8134997  55.5149988  99.6426612 114.4185914  55.0883643
  98.1960012 131.3574997  37.7239988  97.9290012 131.6444997  38.5969988
  98.9680012 130.8114997  37.8759988  98.2637488 131.3230294  37.8641050
 107.9930012 113.8884997  55.2329988 108.0700012 113.4624997  56.0869988
 108.8870012 113.9024997  54.8899988 108.1243428 113.8320880  55.3035310
 111.1690012 129.9614997  53.9249988 110.3870012 129.7754997  53.4059988
 111.0970012 130.8904997  54.1429988 111.0521777 130.0616492  53.8834048
 125.5750012 123.8474997  43.9559988 125.6640012 124.7914997  43.8239988
 124.9370012 123.5724997  43.2979988 125.5009081 123.9394830  43.8489614
 124.5080012 123.1024997  47.3749988 124.4700012 122.4564997  48.0799988
 124.1860012 122.6364997  46.6039988 124.4592333 122.9509408  47.3672978
 116.8770012 122.7174997  48.9679988 116.9180012 122.0914997  49.6909988
 117.5800012 123.3414997  49.1499988 116.9776363 122.7161196  49.0916044
 128.2140012 126.0414997  45.6759988 127.7740012 125.3214997  46.1269988
 128.2010012 126.7624997  46.3059988 128.1520226 126.0403731  45.8228494
 117.8000012 127.1674997  47.5029988 117.4310012 126.3654997  47.1329988
 118.7410012 126.9984997  47.5489988 117.8767289 127.0350153  47.4586316
 114.4100012 120.8274997  42.8959988 113.9630012 121.6734997  42.8769988
 113.8490012 120.2474997  42.3799988 114.2729900 120.8649916  42.8236801
 115.1210012 122.9894997  45.0219988 115.3340012 122.2194997  45.5489988
 115.8590012 123.0784997  44.4179988 115.2498496 122.8961394  45.0125300
 125.3260012 131.1464997  45.8889988 125.9460012 130.4694997  45.6149988
 125.1180012 130.9284997  46.7969988 125.3826904 131.0243870  45.9743365
 122.8980012 125.5354997  47.7809988 123.2020012 124.8494997  47.1859988
 123.6190012 125.6534997  48.3989988 123.0370671 125.4576305  47.7831816
 131.5610012 117.1364997  48.6419988 131.6100012 117.7464997  49.3779988
 131.9860012 117.5974997  47.9189988 131.6251824 117.2823741  48.6450205
 126.0390012 119.9294997  48.1089988 126.1810012 118.9834997  48.1289988
 125.9320012 120.1364997  47.1799988 126.0439864 119.8279534  47.9862339
 119.1930012 118.0304997  45.3809988 119.2370012 118.8904997  44.9629988
 118.7360012 117.4784997  44.7469988 119.1372185 118.0735799  45.2380299
 126.9160012 118.1614997  43.7819988 127.5620012 117.8324997  44.4069988
 127.4260012 118.6794997  43.1589988 127.0734264 118.1864611  43.7833862
 115.8140012 120.4274997  46.1429988 116.4670012 119.8774997  46.5749988
 115.8380012 120.1534997  45.2259988 115.9066683 120.3151466  46.0782123
 120.9700012 121.9774997  45.3579988 121.5860012 121.4514997  45.8679988
 120.3840012 121.3374997  44.9549988 120.9750810 121.8189208  45.3733173
 131.9520012 118.6144997  50.8779988 131.2640012 119.2724997  50.7819988
 131.9680012 118.4174997  51.8139988 131.8598525 118.6780462  50.9914808
 118.0040012 116.9484997  49.4549988 117.7850012 117.4784997  48.6889988
 117.3360012 117.1754997  50.1019988 117.8837600 117.0516906  49.4376379
 125.3730012 126.4484997  42.9989988 125.0770012 126.1264997  42.1479988
 125.0480012 127.3484997  43.0399988 125.2886371 126.5260215  42.8881801
 120.5730012 124.6244997  49.7419988 119.8330012 125.2224997  49.8459988
 121.2870012 125.1784997  49.4269988 120.5682237 124.7812831  49.7136465
 128.6800012 117.4524997  45.7619988 128.4640012 116.6864997  46.2949988
 129.3350012 117.9244997  46.2749988 128.7390632 117.4115889  45.9042861
 117.5970012 118.8404997  47.4069988 118.2110012 119.4734997  47.7809988
 118.1090012 118.3684997  46.7509988 117.7502296 118.8632370  47.3694252
 118.9800012 126.5884997  50.5299988 118.9750012 127.4684997  50.1519988
 118.1270012 126.5054997  50.9549988 118.8639464 126.6976117  50.5357907
 115.1010012 126.2594997  41.3119988 114.8290012 126.4884997  40.4229988
 115.1470012 127.0974997  41.7719988 115.0700094 126.4041213  41.2525697
 128.7260012 127.8814997  48.0239988 127.7850012 127.9394997  48.1859988
 129.0030012 128.7874997  47.8869988 128.6344679 128.0119443  48.0276815
 129.0270012 116.1674997  49.4419988 128.2910012 116.7784997  49.4039988
 129.7100012 116.5824997  48.9149988 129.0186541 116.3071374  49.3655832
 122.0300012 114.2544997  46.9079988 121.9130012 113.3054997  46.8529988
 121.1750012 114.5864997  47.1809988 121.8983733 114.1695409  46.9373897
 126.9780012 129.6624997  44.6499988 127.4040012 128.9554997  44.1649988
 127.2950012 130.4634997  44.2329988 127.0791019 129.6740994  44.5273130
 128.1380012 127.5634997  43.1579988 127.8800012 126.8734997  42.5469988
 128.2090012 127.1204997  44.0039988 128.1122856 127.4092124  43.1886885
 129.8240012 126.1294997  51.6359988 129.9640012 125.5384997  50.8959988
 129.9910012 127.0024997  51.2789988 129.8656778 126.1666426  51.4866965
 124.2970012 123.0914997  41.4079988 123.5850012 123.6264997  41.0559988
 124.9880012 123.1474997  40.7479988 124.2930132 123.1722543  41.2706289
 124.3500012 121.5494997  38.4469988 125.0510012 121.5714997  39.0979988
 124.6530012 120.9214997  37.7909988 124.4867830 121.4676566  38.4473711
 131.6660012 122.4694997  49.7019988 131.0130012 123.1644997  49.7909988
 132.1310012 122.6794997  48.8919988 131.6395390 122.5929425  49.6046883
 127.7020012 123.3014997  42.3599988 126.9700012 123.5294997  42.9329988
 128.1500012 122.5874997  42.8149988 127.6623095 123.2362571  42.4999119
 127.6000012 121.4754997  51.4269988 127.6800012 122.2384997  51.9989988
 126.9980012 121.7544997  50.7369988 127.5295756 121.6177134  51.4120589
 119.3480012 123.9314997  44.2419988 119.0170012 123.5614997  43.4239988
 119.9360012 123.2614997  44.5889988 119.3821873 123.7901156  44.1768102
 120.7140012 127.3594997  46.9239988 120.6200012 126.7814997  46.1669988
 121.4440012 126.9884997  47.4199988 120.7997981 127.2302390  46.8874165
 119.7140012 122.7004997  47.8759988 120.2800012 122.8214997  47.1129988
 120.0330012 123.3374997  48.5149988 119.8345786 122.8031884  47.8580040
 126.0230012 128.2034997  48.6099988 125.7830012 128.8654997  49.2579988
 125.8250012 127.3694997  49.0349988 125.9633808 128.1813134  48.7561524
 120.5940012 127.0994997  52.5929988 120.2830012 127.8814997  53.0479988
 119.9440012 126.9464997  51.9069988 120.4635558 127.1859105  52.5625871
 126.5730012 122.4634997  40.0449988 127.1530012 122.6134997  40.7919988
 126.9870012 122.9344997  39.3219988 126.7082830 122.5476841  40.0494134
 117.5140012 123.2974997  51.8219988 117.5850012 123.9484997  52.5199988
 116.6240012 123.4004997  51.4869988 117.4033117 123.4005936  51.8722700
 124.3000012 129.2004997  43.4799988 124.7740012 129.4954997  44.2579988
 123.7370012 129.9384997  43.2469988 124.2887653 129.3406932  43.5550136
 118.8340012 129.1714997  53.3559988 118.8410012 129.0354997  52.4089988
 117.9180012 129.0534997  53.6079988 118.7111714 129.1369430  53.2604666
 130.2720012 114.2134997  39.8579988 129.3720012 114.3524997  40.1529988
 130.5240012 115.0444997  39.4559988 130.1828702 114.3449074  39.8440205
 118.3380012 123.0014997  41.8319988 118.0460012 123.7694997  41.3409988
 117.6640012 122.3414997  41.6689988 118.2069081 123.0174406  41.7427340
 131.4610012 128.5794997  38.2339988 131.5350012 129.5184997  38.4049988
 132.3670012 128.2744997  38.1779988 131.5935100 128.6666722  38.2498119
 114.4310012 125.3644997  50.6469988 113.9300012 125.3364997  49.8319988
 114.4360012 124.4584997  50.9559988 114.3631526 125.2382278  50.5772872
 114.1810012 128.1444997  47.5309988 115.1270012 128.0004997  47.5119988
 114.0690012 128.9284997  48.0679988 114.2952727 128.2308046  47.6010072
 132.3790012 128.8104997  53.2129988 132.3300012 127.8554997  53.1759988
 131.5520012 129.0784997  53.6139988 132.2604940 128.7158998  53.2621375
 123.3580012 128.3844997  52.0889988 123.4450012 129.2104997  52.5639988
 122.4940012 128.0544997  52.3379988 123.2531964 128.4529878  52.1876549
 123.7720012 132.1564997  41.8949988 123.6970012 132.0354997  40.9489988
 123.8050012 133.1064997  42.0139988 123.7661848 132.2682500  41.7814834
 117.4250012 130.9454997  43.6759988 117.5780012 130.5974997  44.5549988
 116.5750012 130.5894997  43.4209988 117.3308962 130.8496650  43.7618340
 126.8740012 131.3104997  38.8969988 127.2490012 130.5664997  38.4269988
 126.8780012 131.0404997  39.8159988 126.9258915 131.1721486  38.9567824
 126.5430012 131.2364997  41.6469988 125.6070012 131.3364997  41.8249988
 126.8230012 130.5274997  42.2249988 126.4528255 131.1542711  41.7495391
 129.5310012 120.3034997  53.6929988 129.1240012 120.7844997  52.9719988
 129.5720012 119.3984997  53.3849988 129.4808437 120.2469374  53.5526683
 116.6800012 126.6874997  51.6899988 116.8960012 126.3264997  52.5489988
 115.8250012 126.3134997  51.4799988 116.5939292 126.5874111  51.7793386
 119.2990012 115.1574997  47.6849988 118.4370012 115.0704997  47.2779988
 119.2760012 116.0134997  48.1129988 119.1780330 115.2612765  47.6871863
 123.9620012 114.8794997  51.0599988 124.3820012 114.4644997  51.8129988
 123.0290012 114.7014997  51.1769988 123.8933644 114.7985900  51.1789539
 127.2880012 118.6354997  51.9129988 126.7740012 118.5094997  52.7109988
 127.1330012 119.5474997  51.6689988 127.1966852 118.7416132  51.9892158
 128.0510012 123.4964997  37.6749988 128.0930012 123.2734997  36.7449988
 128.9000012 123.8954997  37.8649988 128.1715396 123.5199155  37.5733627
 123.6230012 117.3724997  38.3449988 123.3700012 117.3914997  39.2679988
 123.3670012 116.5004997  38.0439988 123.5537790 117.2572437  38.4306263
 119.3900012 120.1234997  48.7799988 118.7480012 120.0824997  49.4889988
 119.4270012 121.0494997  48.5429988 119.3071324 120.2431559  48.8449824
 119.3870012 120.3444997  43.6919988 118.4940012 120.0034997  43.6339988
 119.8370012 119.9674997  42.9369988 119.3257305 120.2468484  43.5819177
 124.9220012 120.7604997  42.5089988 124.5130012 121.5754997  42.2179988
 125.6430012 120.6204997  41.8949988 124.9634537 120.8532018  42.3861342
 124.0240012 120.9354997  53.9969988 123.4620012 120.2314997  54.3179988
 124.8510012 120.8154997  54.4649988 124.0587095 120.8227883  54.1042330
 125.9270012 120.2064997  45.3229988 125.7320012 120.8114997  44.6079988
 126.1080012 119.3724997  44.8889988 125.9247614 120.1766300  45.1664405
 117.1400012 120.4434997  50.6469988 117.1020012 120.8434997  51.5159988
 116.6490012 119.6264997  50.7379988 117.0684684 120.3878069  50.7781059
 120.5060012 117.8174997  37.4459988 120.0750012 117.3724997  38.1759988
 119.7880012 118.1894997  36.9339988 120.3499438 117.8068940  37.4766799
 113.7480012 117.5594997  44.4979988 114.3790012 117.5304997  45.2169988
 114.1970012 117.1344997  43.7679988 113.8950774 117.4980492  44.4976553
 115.0220012 118.3054997  39.9219988 115.4960012 118.8964997  39.3369988
 114.3050012 118.8364997  40.2689988 114.9899341 118.4580867  39.8888836
 125.1910012 121.8444997  49.9949988 125.5140012 121.2134997  49.3519988
 124.7510012 121.3094997  50.6549988 125.1756895 121.6858441  49.9962850
 121.9680012 117.7714997  44.7789988 121.0570012 117.8284997  45.0669988
 122.4740012 117.7114997  45.5889988 121.9115413 117.7711985  44.9280622
 116.7970012 119.4004997  43.6049988 115.9070012 119.5004997  43.2649988
 117.0930012 118.5584997  43.2589988 116.7152823 119.3003545  43.5117213
 120.4500012 119.4004997  41.2619988 121.3810012 119.5294997  41.4399988
 120.2350012 120.0704997  40.6119988 120.5484247 119.5086565  41.1985747
 126.3730012 117.0064997  48.0429988 125.6970012 117.1374997  48.7069988
 125.8880012 116.8514997  47.2329988 126.2147145 117.0034905  48.0244517
 119.1240012 120.5954997  38.8289988 118.5810012 120.2154997  38.1369988
 119.9570012 120.7894997  38.3999988 119.1624399 120.5698124  38.6764526
 129.6610012 132.6784997  54.3199988 129.8610012 133.1024997  53.4849988
 130.3160012 133.0214997  54.9269988 129.7770051 132.7829648  54.2877836
 117.2590012 125.1524997  53.9279988 117.9910012 125.4064997  54.4889988
 116.4790012 125.3564997  54.4429988 117.2538232 125.2149177  54.0745760
 123.2880012 120.5594997  46.6659988 123.8530012 120.0124997  46.1189988
 123.1410012 120.0374997  47.4539988 123.3452918 120.4142024  46.6978454
 118.2900012 116.6954997  43.0839988 117.9730012 115.7934997  43.0489988
 119.0720012 116.6974997  42.5309988 118.3522284 116.5721628  43.0044783
 121.9150012 118.9474997  49.0799988 121.0790012 119.4014997  49.1899988
 122.4390012 119.2234997  49.8319988 121.8714414 119.0469376  49.1967136
 122.4590012 125.1604997  40.7639988 121.7140012 124.6534997  40.4419988
 122.3250012 125.2094997  41.7109988 122.3388776 125.0976940  40.8478647
 129.6090012 124.2934997  49.5509988 130.2510012 124.7504997  49.0069988
 128.7790012 124.4064997  49.0879988 129.5845963 124.3712704  49.4140177
 126.3570012 117.9744997  38.9639988 125.4180012 118.0864997  38.8119988
 126.6540012 118.8314997  39.2699988 126.2687666 118.1056443  38.9845768
 123.9780012 125.3444997  52.0009988 123.6330012 124.9634997  52.8079988
 123.7780012 126.2784997  52.0729988 123.9038061 125.4185228  52.1210961
 127.0750012 119.8414997  40.6239988 127.9670012 119.7044997  40.9429988
 127.1320012 120.6324997  40.0879988 127.2046285 119.9296660  40.5951691
 117.5840012 124.4554997  46.5339988 118.3290012 124.4534997  45.9329988
 117.6620012 123.6324997  47.0159988 117.6965518 124.3439315  46.5168929
 124.5850012 126.6194997  39.7899988 124.2890012 127.4454997  40.1709988
 123.8820012 125.9994997  39.9859988 124.4494914 126.6488199  39.8686443
 114.5920012 122.9164997  51.8489988 114.8150012 122.4984997  52.6809988
 113.9900012 122.3034997  51.4259988 114.5411759 122.7764668  51.9057022
 121.6080012 122.4334997  54.0619988 121.3120012 122.2674997  53.1669988
 122.5400012 122.2134997  54.0509988 121.6934166 122.3810640  53.9380536
 126.2290012 127.8064997  51.9519988 125.3280012 127.9894997  51.6839988
 126.2630012 128.0654997  52.8729988 126.1103041 127.8665512  52.0398197
 131.9600012 120.0514997  40.3189988 131.4060012 119.6554997  39.6469988
 132.0600012 120.9614997  40.0409988 131.8977059 120.1203586  40.1894401
 131.9230012 125.8514997  53.1559988 131.0720012 126.0894997  52.7889988
 132.5140012 125.8344997  52.4029988 131.8862487 125.8818258  53.0038893
 130.2550012 128.8374997  40.7839988 129.8820012 128.0114997  41.0929988
 130.5330012 128.6544997  39.8869988 130.2415630 128.6997303  40.7049626
 127.4160012 123.6454997  47.8049988 126.4870012 123.4134997  47.7779988
 127.8670012 122.8684997  47.4749988 127.3499216 123.5087238  47.7566917
 119.9590012 127.9734997  43.9379988 120.4860012 128.7464997  43.7379988
 119.0790012 128.1984997  43.6369988 119.9121773 128.1098005  43.8699010
 115.7140012 122.8354997  38.5249988 116.3300012 123.4624997  38.9049988
 114.8520012 123.1514997  38.7969988 115.6817698 122.9639430  38.6137183
 121.3860012 125.6364997  43.5149988 121.1450012 126.5614997  43.5559988
 120.6450012 125.1774997  43.9109988 121.2528409 125.7011421  43.5741377
 121.9010012 129.7854997  49.8299988 122.2630012 130.6404997  49.5959988
 122.4320012 129.4934997  50.5699988 122.0224473 129.8631060  49.8980855
 120.0690012 130.6584997  43.0599988 119.1190012 130.7634997  43.1109988
 120.4210012 131.4784997  43.4049988 119.9864203 130.7838314  43.1136650
 125.4450012 125.8844997  49.5299988 125.0190012 125.6574997  50.3569988
 126.0250012 125.1464997  49.3479988 125.4651868 125.7535299  49.6185830
 127.6480012 126.8134997  38.6039988 128.0010012 126.4334997  39.4089988
 126.6990012 126.7204997  38.6909988 127.5680441 126.7489596  38.7258559
 128.1030012 130.4364997  51.9999988 127.5020012 129.8814997  51.5039988
 128.3850012 131.1034997  51.3739988 128.0588519 130.4506841  51.8474952
 132.1510012 131.2934997  38.8049988 132.8950012 131.8794997  38.6649988
 131.4570012 131.8614997  39.1389988 132.1590292 131.4505582  38.8309961
 116.2260012 117.6694997  51.4069988 115.3330012 118.0084997  51.3389988
 116.1270012 116.8144997  51.8249988 116.0904164 117.6002588  51.4542235
 128.5140012 125.4864997  40.8309988 128.2360012 124.7584997  41.3869988
 129.4410012 125.6054997  41.0359988 128.6013124 125.4028802  40.9348845
 115.8770012 129.4744997  49.8419988 116.0940012 128.5424997  49.8109988
 116.1230012 129.7484997  50.7249988 115.9399549 129.3840636  49.9571763
 121.7390012 127.9254997  37.0509988 121.9780012 127.1774997  36.5039988
 121.4700012 127.5374997  37.8839988 121.7353675 127.7706638  37.0886865
 120.6760012 127.4954997  39.5079988 120.8220012 126.9754997  40.2979988
 120.6730012 128.4024997  39.8139988 120.6955989 127.5468853  39.6576088
 117.1290012 124.7484997  40.0179988 116.4430012 125.1004997  40.5849988
 117.6510012 125.5114997  39.7709988 117.1056852 124.8998578  40.0622118
 124.9600012 117.4104997  50.2969988 125.6590012 117.4844997  50.9469988
 124.5790012 116.5464997  50.4509988 125.0041767 117.3037624  50.4068322
 125.7450012 117.0624997  41.3939988 125.9650012 117.5344997  40.5909988
 126.3030012 117.4574997  42.0639988 125.8504968 117.1804285  41.3747331
 123.4130012 129.1934997  40.2569988 122.5970012 129.6904997  40.3089988
 123.9430012 129.6684997  39.6169988 123.3729161 129.3257722  40.1775956
 122.9450012 118.7904997  42.2289988 123.7570012 119.2954997  42.2749988
 122.7000012 118.6454997  43.1429988 123.0230520 118.8400375  42.3588517
 123.4800012 119.7764997  51.4139988 123.5990012 120.3504997  52.1709988
 124.1360012 119.0884997  51.5279988 123.5849757 119.7621079  51.5330825
 123.8280012 115.8714997  43.1669988 123.4820012 116.4894997  43.8119988
 124.4870012 116.3724997  42.6859988 123.8697826 116.0235802  43.1900971
 120.7520012 130.2374997  40.2389988 120.9120012 131.0364997  39.7379988
 120.5540012 130.5434997  41.1239988 120.7471649 130.3884469  40.2899815
 119.4860012 116.9344997  39.8539988 119.4030012 117.8234997  40.2009988
 120.3760012 116.6694997  40.0859988 119.5949469 117.0201430  39.9327626
 129.6850012 117.6834997  52.2489988 128.7680012 117.9464997  52.1609988
 130.0200012 117.6804997  51.3519988 129.6049900 117.7190224  52.1157919
 128.2870012 121.4344997  46.3439988 127.4890012 121.0194997  46.0159988
 128.7320012 120.7434997  46.8349988 128.2379885 121.2843543  46.3654889
 117.7450012 127.3624997  38.9149988 118.3370012 128.0614997  39.1909988
 118.2040012 126.9294997  38.1949988 117.8881142 127.3997049  38.8554830
 116.0610012 120.0264997  38.0309988 116.0160012 120.9654997  38.2089988
 115.1730012 119.7904997  37.7609988 115.9348574 120.1231892  38.0188912
 129.3730012 130.6904997  47.9669988 129.2180012 131.3684997  47.3099988
 130.3060012 130.7624997  48.1699988 129.4778500 130.7930170  47.9045119
 116.8690012 114.8084997  46.7039988 116.6400012 114.8674997  45.7759988
 116.4260012 114.0164997  47.0099988 116.7778530 114.7095753  46.6184786
 115.7990012 128.7484997  42.8639988 114.9670012 129.2214997  42.8919988
 116.3450012 129.2584997  42.2659988 115.7589739 128.8821871  42.7869716
 115.0870012 131.3614997  54.1939988 115.6280012 131.1444997  54.9539988
 114.6060012 130.5554997  54.0049988 115.0959345 131.2229514  54.2723076
 119.6850012 130.2804997  55.8149988 120.4520012 129.8214997  56.1559988
 119.6630012 130.0544997  54.8849988 119.7871434 130.1870409  55.7360043
 123.7770012 129.7884997  37.1899988 123.1330012 129.1574997  37.5109988
 124.5390012 129.2574997  36.9579988 123.7918077 129.6302920  37.2026011
 126.2620012 128.6604997  54.5439988 125.9110012 127.8044997  54.7869988
 126.9880012 128.8034997  55.1509988 126.3120769 128.5625636  54.6593619
 128.3810012 129.6054997  37.4239988 128.6640012 128.8114997  37.8759988
 129.1210012 129.8384997  36.8629988 128.5197486 129.5282803  37.4100698
 114.9940012 125.1714997  55.1489988 115.1380012 124.2694997  54.8619988
 114.2220012 125.4574997  54.6609988 114.9093322 125.0868261  55.0437881
 119.3360012 125.5154997  37.2809988 119.4000012 124.7214997  37.8119988
 119.9890012 125.3964997  36.5909988 119.4330241 125.3907148  37.2604317
 121.6500012 125.1414997  54.5809988 121.3210012 125.4124997  53.7239988
 121.8020012 124.2004997  54.4939988 121.6254809 125.0513862  54.4518244
 124.6880012 126.5624997  37.0169988 124.4190012 126.7424997  37.9179988
 124.4820012 125.6364997  36.8859988 124.6233825 126.4620152  37.1225214
 127.3840012 125.0574997  51.9649988 128.1300012 125.6454997  51.8449988
 126.6270012 125.6394997  52.0279988 127.3837554 125.2167011  51.9570907
 115.8270012 122.3714997  54.5689988 116.2350012 121.5144997  54.4479988
 115.5670012 122.3864997  55.4899988 115.8477568 122.2560807  54.6769588
 120.4850012 123.4874997  39.5869988 120.0250012 123.0034997  40.2729988
 120.7400012 122.8194997  38.9509988 120.4564902 123.3308731  39.5949334
 119.7740012 121.3804997  51.9429988 119.1560012 122.0554997  52.2229988
 120.1180012 121.7014997  51.1099988 119.7359615 121.5162721  51.8686581
 121.5560012 121.7304997  37.8489988 121.3760012 121.5764997  36.9219988
 122.5060012 121.8384997  37.8939988 121.6597776 121.7240175  37.7281843
 124.7940012 123.8524997  55.2199988 125.7470012 123.9354997  55.1929988
 124.6330012 123.1404997  55.8399988 124.9026426 123.7676746  55.3000579
 130.9460012 124.0854997  37.2949988 130.6720012 123.6604997  36.4819988
 130.9850012 125.0164997  37.0779988 130.9137699 124.1532484  37.1543610
 120.1130012 118.7354997  53.0249988 120.2630012 118.0064997  52.4229988
 120.1160012 119.5124997  52.4659988 120.1339302 118.7407851  52.8670692
 120.5260012 117.1054997  50.5179988 121.0620012 117.5564997  49.8659988
 119.6740012 116.9974997  50.0949988 120.4842178 117.1526390  50.3715756
 122.1080012 122.5444997  50.7569988 122.8580012 122.3884997  50.1839988
 121.7690012 123.3964997  50.4819988 122.1648921 122.6382968  50.6413561
 126.5230012 120.3594997  55.7859988 126.7160012 119.4284997  55.6739988
 127.3810012 120.7844997  55.7759988 126.6653020 120.2896389  55.7693361
 127.8400012 123.1484997  53.8629988 127.5590012 123.8574997  53.2859988
 128.7830012 123.0754997  53.7119988 127.9289027 123.2357646  53.7635551
 118.5920012 119.9334997  54.9369988 117.8250012 119.4014997  54.7269988
 119.2710012 119.6234997  54.3369988 118.5787022 119.8187506  54.8271648
 121.3320012 114.5614997  50.9489988 121.2330012 115.5084997  50.8439988
 120.5890012 114.1894997  50.4739988 121.2180564 114.6405902  50.8704560
 122.5960012 118.8834997  54.5129988 122.3600012 118.6634997  55.4149988
 121.8120012 118.6764997  54.0029988 122.4578628 118.8254760  54.5673932
 125.3110012 118.0104997  53.5889988 124.3640012 118.0424997  53.7209988
 125.6240012 117.3854997  54.2419988 125.2235475 117.9303207  53.6954455
 126.9450012 116.6444997  55.5939988 126.8490012 115.6924997  55.5879988
 126.6240012 116.9134997  56.4539988 126.8884070 116.5504035  55.7095441
 116.7720012 117.8544997  54.6409988 116.9840012 117.1474997  54.0309988
 116.6610012 117.4164997  55.4849988 116.7859721 117.6987084  54.6716843
 121.5530012 113.8554997  53.6209988 122.2650012 113.2154997  53.6069988
 121.4520012 114.1224997  52.7069988 121.6367939 113.8039938  53.4955650
 121.9070012 115.5384997  55.6739988 121.7750012 115.0624997  54.8539988
 121.3080012 116.2824997  55.6189988 121.8079071 115.5739618  55.5542886
 121.4530012 132.4214997  38.8509988 122.3860012 132.5794997  38.9939988
 121.1890012 133.0964997  38.2259988 121.5449510 132.5343611  38.7860741
 115.0220012 127.0574997  38.3329988 115.9360012 127.1364997  38.6069988
 115.0290012 126.3704997  37.6669988 115.1481131 126.9753961  38.2804393
 113.6710012 132.4504997  43.4109988 113.0240012 131.9884997  42.8779988
 114.0250012 131.7784997  43.9929988 113.6303849 132.2964723  43.4167959
 114.5410012 130.5314997  45.2149988 114.2060012 129.6514997  45.3869988
 114.7630012 130.8764997  46.0799988 114.5251783 130.4577500  45.3554208
 132.0890012 131.3404997  48.1959988 132.0680012 131.5254997  49.1349988
 132.7800012 131.9094997  47.8549988 132.1794618 131.4426606  48.2783864
 131.6530012 130.9084997  51.1179988 131.1650012 130.1724997  50.7469988
 132.2020012 130.5144997  51.7959988 131.6604872 130.7546249  51.1589160
 130.1030012 126.6974997  55.7559988 129.2370012 126.5924997  56.1499988
 130.4800012 127.4564997  56.2019988 130.0353308 126.7856900  55.8702393
 131.4040012 124.9544997  41.2699988 132.2540012 125.3754997  41.3969988
 131.4100012 124.2144997  41.8769988 131.5211372 124.9120803  41.3694344
 131.7990012 123.0074997  43.0939988 131.0720012 122.5284997  43.4909988
 132.3800012 123.2134997  43.8259988 131.7779375 122.9697090  43.2474129
 131.5580012 125.7924997  48.0409988 132.3910012 125.4144997  47.7609988
 131.6700012 126.7354997  47.9219988 131.6872647 125.8682218  47.9865487
 130.0440012 128.6704997  50.3479988 129.3970012 128.9954997  50.9739988
 129.5270012 128.2304997  49.6739988 129.8854029 128.6555004  50.3425827
 132.0670012 122.9084997  39.4849988 131.5450012 123.2654997  38.7659988
 132.0340012 123.5834997  40.1629988 131.9911634 123.0485413  39.4783145
 130.4160012 120.1484997  38.0359988 130.5120012 120.8154997  37.3549988
 130.2760012 119.3324997  37.5539988 130.4102135 120.1294500  37.8778491
 129.5850012 121.5284997  43.6569988 129.4350012 120.5834997  43.6359988
 129.2320012 121.8094997  44.4999988 129.5166625 121.4370441  43.7682346
 114.6210012 123.6064997  47.6669988 114.8050012 123.5244997  46.7309988
 115.4700012 123.4824997  48.0909988 114.7610139 123.5785003  47.5961455
 130.4420012 123.4984997  53.2949988 131.0250012 122.7644997  53.4869988
 131.0060012 124.2704997  53.3419988 130.5979769 123.5024227  53.3276159
 131.9380012 121.4014997  53.9799988 131.0750012 121.0224997  53.8139988
 132.5430012 120.6624997  53.9059988 131.9015979 121.2498023  53.9472817
 129.6630012 117.5564997  37.1529988 130.2740012 117.1854997  37.7899988
 128.8270012 117.1354997  37.3489988 129.6335032 117.4487554  37.2667035
 129.2960012 119.1114997  42.1189988 129.5760012 118.2044997  42.2429988
 130.0550012 119.5454997  41.7299988 129.4369277 119.0460942  42.0833682
 129.9080012 119.6924997  47.5549988 130.8410012 119.9044997  47.5209988
 129.6730012 119.7944997  48.4769988 130.0038036 119.7352769  47.6749976
 129.9370012 120.4294997  50.3309988 129.0940012 120.6974997  50.6969988
 130.3790012 121.2514997  50.1199988 129.8814158 120.5773291  50.3525491
 114.2180012 118.8774997  53.8079988 115.1380012 118.7554997  54.0439988
 113.7690012 118.1274997  54.1969988 114.2831580 118.7593727  53.8929006
 132.2200012 114.4094997  55.6839988 132.5700012 113.7554997  55.0789988
 132.3670012 115.2464997  55.2449988 132.2878419 114.4331591  55.5417118
 129.9090012 116.3744997  42.1669988 130.0920012 115.9254997  42.9929988
 129.3100012 115.7894997  41.7039988 129.8530202 116.2339975  42.2173275
 115.4390012 117.1894997  46.6989988 115.8850012 116.3974997  47.0009988
 115.9060012 117.9054997  47.1299988 115.5630172 117.1780624  46.7984820
 113.7430012 120.1884997  47.7679988 114.2350012 119.9674997  46.9769988
 114.1060012 121.0294997  48.0489988 113.8593126 120.2718357  47.6977531
 131.7400012 116.5184997  54.0339988 130.8220012 116.7894997  53.9979988
 131.8630012 115.9834997  53.2489988 131.6311066 116.4832892  53.9230487
 131.7760012 116.4414997  38.6949988 132.1880012 115.7204997  38.2199988
 132.4580012 117.1114997  38.7539988 131.9245885 116.4332368  38.6378915
 114.0570012 116.4464997  41.8219988 113.1320012 116.6554997  41.6929988
 114.5110012 116.9304997  41.1329988 113.9917368 116.5405993  41.7111226
 128.8280012 131.4304997  43.7679988 129.4800012 131.0834997  43.1599988
 129.3380012 131.9194997  44.4139988 128.9862637 131.4490597  43.7720236
 114.0210012 115.1844997  50.1669988 113.3560012 114.9384997  50.8099988
 113.5780012 115.8064997  49.5889988 113.8700956 115.2348632  50.1769352
 116.2130012 128.3594997  54.3109988 115.3920012 128.5344997  53.8509988
 115.9600012 128.2864997  55.2319988 116.0666164 128.3735622  54.3724923
 119.1670012 129.3344997  50.5699988 118.7420012 130.1434997  50.2869988
 120.0710012 129.4194997  50.2679988 119.2310271 129.4568469  50.4903776
 123.4780012 130.7334997  53.5289988 123.6630012 130.3994997  54.4069988
 124.3240012 131.0424997  53.2069988 123.6177539 130.7296047  53.6055605
 125.8230012 132.0194997  52.7729988 126.5000012 131.3864997  52.5329988
 126.1450012 132.4204997  53.5799988 125.9591637 131.9871154  52.8492793
 130.7400012 114.6084997  51.8529988 129.9280012 114.9334997  51.4649988
 130.9730012 113.8484997  51.3199988 130.6603423 114.5502436  51.7278253
 116.5690012 132.5904997  50.6169988 115.8480012 133.0304997  50.1659988
 116.2030012 132.3394997  51.4659988 116.4209804 132.6167698  50.6699840
 119.0360012 132.1904997  49.6469988 118.1710012 132.2624997  50.0509988
 118.9810012 132.7374997  48.8629988 118.9102085 132.2742685  49.5963362
 123.7460012 132.0784997  48.8219988 123.2900012 132.6074997  48.1679988
 123.9090012 132.6814997  49.5479988 123.7055585 132.2324468  48.8305062
 126.0740012 130.9564997  49.7669988 125.1690012 131.1214997  49.5019988
 126.5030012 131.8094997  49.7019988 126.0080799 131.0944483  49.7219182
 128.6780012 132.5264997  50.0619988 128.4960012 133.4424997  49.8519988
 128.8550012 132.1164997  49.2159988 128.6770210 132.5964822  49.9187885
 115.9830012 131.2134997  47.5269988 115.9650012 130.7884997  48.3849988
 116.7880012 130.8954997  47.1189988 116.0893875 131.1123812  47.5891655
 118.1250012 129.9234997  46.1819988 117.9060012 129.0074997  46.3519988
 118.9490012 130.0634997  46.6479988 118.2064420 129.8170520  46.2682774
 120.6620012 130.3934997  47.0309988 120.8750012 129.5054997  46.7439988
 120.7260012 130.3594997  47.9849988 120.6998232 130.2673102  47.1207397
 124.1700012 116.0574997  46.1749988 123.4960012 115.4284997  46.4309988
 124.7340012 115.5734997  45.5719988 124.1539230 115.9058744  46.1285340
 129.3130012 114.1654997  46.2879988 129.9170012 114.7124997  45.7859988
 128.4430012 114.4844997  46.0479988 129.2781241 114.2835806  46.1867654
 131.0400012 115.3034997  44.6209988 131.6520012 114.7894997  44.0949988
 131.4220012 116.1814997  44.6449988 131.1754540 115.3517140  44.5521830
 116.4970012 114.6914997  43.9969988 115.7200012 114.4574997  43.4899988
 117.0270012 113.8944997  44.0059988 116.4622330 114.5516988  43.9287742
 115.3330012 114.4894997  39.8009988 115.7720012 115.1004997  39.2089988
 114.7000012 115.0274997  40.2749988 115.3074514 114.6459257  39.7840930
 121.0760012 114.6184997  43.8109988 121.9510012 115.0064997  43.7809988
 120.9400012 114.4034997  44.7329988 121.1773695 114.6425184  43.9316440
 126.6330012 114.6484997  45.4599988 126.7090012 114.7434997  44.5099988
 126.3580012 113.7404997  45.5889988 126.6062321 114.5387867  45.3475079
 127.9860012 114.6744997  41.1519988 127.2840012 115.2894997  40.9429988
 127.5420012 113.8364997  41.2829988 127.8296330 114.6455783  41.1410328
 115.2340012 130.4374997  40.6989988 114.5490012 130.3994997  40.0309988
 115.2380012 131.3504997  40.9869988 115.1408193 130.5557016  40.6465284
 117.1940012 116.4054997  38.2429988 117.6860012 115.7754997  37.7159988
 117.8180012 116.7014997  38.9069988 117.3455446 116.3593199  38.2605980
 122.2200012 116.6984997  40.6999988 122.3980012 116.0524997  41.3829988
 122.1670012 117.5324997  41.1679988 122.2371829 116.7227985  40.8565940
 124.0990012 131.6474997  39.0959988 124.9650012 132.0134997  38.9179988
 123.8520012 131.2074997  38.2819988 124.1842392 131.6381756  38.9616289
 130.8080012 131.2104997  41.7749988 130.6130012 130.4624997  41.2099988
 130.7690012 131.9684997  41.1919988 130.7760380 131.2106099  41.6188384
 116.4550012 115.2054997  53.5149988 116.0890012 114.4404997  53.9579988
 117.3680012 115.2344997  53.8019988 116.5282790 115.1047224  53.6144070
 118.4280012 114.5564997  55.0509988 119.3260012 114.2824997  54.8659988
 118.0410012 113.8134997  55.5149988 118.4986612 114.4185914  55.0883643
 117.0520012 131.3574997  37.7239988 116.7850012 131.6444997  38.5969988
 117.8240012 130.8114997  37.8759988 117.1197488 131.3230294  37.8641050
 126.8490012 113.8884997  55.2329988 126.9260012 113.4624997  56.0869988
 127.7430012 113.9024997  54.8899988 126.9803428 113.8320880  55.3035310
 130.0250012 129.9614997  53.9249988 129.2430012 129.7754997  53.4059988
 129.9530012 130.8904997  54.1429988 129.9081777 130.0616492  53.8834048
 144.4310012 123.8474997  43.9559988 144.5200012 124.7914997  43.8239988
 143.7930012 123.5724997  43.2979988 144.3569081 123.9394830  43.8489614
 143.3640012 123.1024997  47.3749988 143.3260012 122.4564997  48.0799988
 143.0420012 122.6364997  46.6039988 143.3152333 122.9509408  47.3672978
 135.7330012 122.7174997  48.9679988 135.7740012 122.0914997  49.6909988
 136.4360012 123.3414997  49.1499988 135.8336363 122.7161196  49.0916044
 136.6560012 127.1674997  47.5029988 136.2870012 126.3654997  47.1329988
 137.5970012 126.9984997  47.5489988 136.7327289 127.0350153  47.4586316
 133.2660012 120.8274997  42.8959988 132.8190012 121.6734997  42.8769988
 132.7050012 120.2474997  42.3799988 133.1289900 120.8649916  42.8236801
 133.9770012 122.9894997  45.0219988 134.1900012 122.2194997  45.5489988
 134.7150012 123.0784997  44.4179988 134.1058496 122.8961394  45.0125300
 144.1820012 131.1464997  45.8889988 144.8020012 130.4694997  45.6149988
 143.9740012 130.9284997  46.7969988 144.2386904 131.0243870  45.9743365
 141.7540012 125.5354997  47.7809988 142.0580012 124.8494997  47.1859988
 142.4750012 125.6534997  48.3989988 141.8930671 125.4576305  47.7831816
 144.8950012 119.9294997  48.1089988 145.0370012 118.9834997  48.1289988
 144.7880012 120.1364997  47.1799988 144.8999863 119.8279534  47.9862339
 138.0490012 118.0304997  45.3809988 138.0930012 118.8904997  44.9629988
 137.5920012 117.4784997  44.7469988 137.9932185 118.0735799  45.2380299
 134.6700012 120.4274997  46.1429988 135.3230012 119.8774997  46.5749988
 134.6940012 120.1534997  45.2259988 134.7626683 120.3151466  46.0782123
 139.8260012 121.9774997  45.3579988 140.4420012 121.4514997  45.8679988
 139.2400012 121.3374997  44.9549988 139.8310810 121.8189208  45.3733173
 136.8600012 116.9484997  49.4549988 136.6410012 117.4784997  48.6889988
 136.1920012 117.1754997  50.1019988 136.7397600 117.0516906  49.4376379
 144.2290012 126.4484997  42.9989988 143.9330012 126.1264997  42.1479988
 143.9040012 127.3484997  43.0399988 144.1446371 126.5260215  42.8881801
 139.4290012 124.6244997  49.7419988 138.6890012 125.2224997  49.8459988
 140.1430012 125.1784997  49.4269988 139.4242237 124.7812831  49.7136465
 136.4530012 118.8404997  47.4069988 137.0670012 119.4734997  47.7809988
 136.9650012 118.3684997  46.7509988 136.6062296 118.8632370  47.3694252
 137.8360012 126.5884997  50.5299988 137.8310012 127.4684997  50.1519988
 136.9830012 126.5054997  50.9549988 137.7199464 126.6976117  50.5357907
 133.9570012 126.2594997  41.3119988 133.6850012 126.4884997  40.4229988
 134.0030012 127.0974997  41.7719988 133.9260094 126.4041213  41.2525697
 140.8860012 114.2544997  46.9079988 140.7690012 113.3054997  46.8529988
 140.0310012 114.5864997  47.1809988 140.7543733 114.1695409  46.9373897
 143.1530012 123.0914997  41.4079988 142.4410012 123.6264997  41.0559988
 143.8440012 123.1474997  40.7479988 143.1490132 123.1722543  41.2706289
 143.2060012 121.5494997  38.4469988 143.9070012 121.5714997  39.0979988
 143.5090012 120.9214997  37.7909988 143.3427830 121.4676566  38.4473711
 138.2040012 123.9314997  44.2419988 137.8730012 123.5614997  43.4239988
 138.7920012 123.2614997  44.5889988 138.2381873 123.7901156  44.1768102
 139.5700012 127.3594997  46.9239988 139.4760012 126.7814997  46.1669988
 140.3000012 126.9884997  47.4199988 139.6557981 127.2302390  46.8874165
 138.5700012 122.7004997  47.8759988 139.1360012 122.8214997  47.1129988
 138.8890012 123.3374997  48.5149988 138.6905786 122.8031884  47.8580040
 144.8790012 128.2034997  48.6099988 144.6390012 128.8654997  49.2579988
 144.6810012 127.3694997  49.0349988 144.8193808 128.1813134  48.7561524
 139.4500012 127.0994997  52.5929988 139.1390012 127.8814997  53.0479988
 138.8000012 126.9464997  51.9069988 139.3195558 127.1859105  52.5625871
 136.3700012 123.2974997  51.8219988 136.4410012 123.9484997  52.5199988
 135.4800012 123.4004997  51.4869988 136.2593117 123.4005936  51.8722700
 143.1560012 129.2004997  43.4799988 143.6300012 129.4954997  44.2579988
 142.5930012 129.9384997  43.2469988 143.1447653 129.3406932  43.5550136
 137.6900012 129.1714997  53.3559988 137.6970012 129.0354997  52.4089988
 136.7740012 129.0534997  53.6079988 137.5671714 129.1369430  53.2604666
 137.1940012 123.0014997  41.8319988 136.9020012 123.7694997  41.3409988
 136.5200012 122.3414997  41.6689988 137.0629081 123.0174406  41.7427340
 133.2870012 125.3644997  50.6469988 132.7860012 125.3364997  49.8319988
 133.2920012 124.4584997  50.9559988 133.2191526 125.2382278  50.5772872
 133.0370012 128.1444997  47.5309988 133.9830012 128.0004997  47.5119988
 132.9250012 128.9284997  48.0679988 133.1512727 128.2308046  47.6010072
 142.2140012 128.3844997  52.0889988 142.3010012 129.2104997  52.5639988
 141.3500012 128.0544997  52.3379988 142.1091964 128.4529878  52.1876549
 142.6280012 132.1564997  41.8949988 142.5530012 132.0354997  40.9489988
 142.6610012 133.1064997  42.0139988 142.6221848 132.2682500  41.7814834
 136.2810012 130.9454997  43.6759988 136.4340012 130.5974997  44.5549988
 135.4310012 130.5894997  43.4209988 136.1868962 130.8496650  43.7618340
 135.5360012 126.6874997  51.6899988 135.7520012 126.3264997  52.5489988
 134.6810012 126.3134997  51.4799988 135.4499292 126.5874111  51.7793386
 138.1550012 115.1574997  47.6849988 137.2930012 115.0704997  47.2779988
 138.1320012 116.0134997  48.1129988 138.0340330 115.2612765  47.6871863
 142.8180012 114.8794997  51.0599988 143.2380012 114.4644997  51.8129988
 141.8850012 114.7014997  51.1769988 142.7493644 114.7985900  51.1789539
 142.4790012 117.3724997  38.3449988 142.2260012 117.3914997  39.2679988
 142.2230012 116.5004997  38.0439988 142.4097790 117.2572437  38.4306263
 138.2460012 120.1234997  48.7799988 137.6040012 120.0824997  49.4889988
 138.2830012 121.0494997  48.5429988 138.1631324 120.2431559  48.8449824
 138.2430012 120.3444997  43.6919988 137.3500012 120.0034997  43.6339988
 138.6930012 119.9674997  42.9369988 138.1817305 120.2468484  43.5819177
 143.7780012 120.7604997  42.5089988 143.3690012 121.5754997  42.2179988
 144.4990012 120.6204997  41.8949988 143.8194537 120.8532018  42.3861342
 142.8800012 120.9354997  53.9969988 142.3180012 120.2314997  54.3179988
 143.7070012 120.8154997  54.4649988 142.9147095 120.8227883  54.1042330
 144.7830012 120.2064997  45.3229988 144.5880012 120.8114997  44.6079988
 144.9640012 119.3724997  44.8889988 144.7807614 120.1766300  45.1664405
 135.9960012 120.4434997  50.6469988 135.9580012 120.8434997  51.5159988
 135.5050012 119.6264997  50.7379988 135.9244684 120.3878069  50.7781059
 139.3620012 117.8174997  37.4459988 138.9310012 117.3724997  38.1759988
 138.6440012 118.1894997  36.9339988 139.2059438 117.8068940  37.4766799
 132.6040012 117.5594997  44.4979988 133.2350012 117.5304997  45.2169988
 133.0530012 117.1344997  43.7679988 132.7510774 117.4980492  44.4976553
 133.8780012 118.3054997  39.9219988 134.3520012 118.8964997  39.3369988
 133.1610012 118.8364997  40.2689988 133.8459341 118.4580867  39.8888836
 144.0470012 121.8444997  49.9949988 144.3700012 121.2134997  49.3519988
 143.6070012 121.3094997  50.6549988 144.0316895 121.6858441  49.9962850
 140.8240012 117.7714997  44.7789988 139.9130012 117.8284997  45.0669988
 141.3300012 117.7114997  45.5889988 140.7675413 117.7711985  44.9280622
 135.6530012 119.4004997  43.6049988 134.7630012 119.5004997  43.2649988
 135.9490012 118.5584997  43.2589988 135.5712823 119.3003546  43.5117213
 139.3060012 119.4004997  41.2619988 140.2370012 119.5294997  41.4399988
 139.0910012 120.0704997  40.6119988 139.4044247 119.5086565  41.1985747
 137.9800012 120.5954997  38.8289988 137.4370012 120.2154997  38.1369988
 138.8130012 120.7894997  38.3999988 138.0184399 120.5698124  38.6764526
 136.1150012 125.1524997  53.9279988 136.8470012 125.4064997  54.4889988
 135.3350012 125.3564997  54.4429988 136.1098232 125.2149177  54.0745760
 142.1440012 120.5594997  46.6659988 142.7090012 120.0124997  46.1189988
 141.9970012 120.0374997  47.4539988 142.2012918 120.4142024  46.6978454
 137.1460012 116.6954997  43.0839988 136.8290012 115.7934997  43.0489988
 137.9280012 116.6974997  42.5309988 137.2082284 116.5721628  43.0044783
 140.7710012 118.9474997  49.0799988 139.9350012 119.4014997  49.1899988
 141.2950012 119.2234997  49.8319988 140.7274414 119.0469376  49.1967136
 141.3150012 125.1604997  40.7639988 140.5700012 124.6534997  40.4419988
 141.1810012 125.2094997  41.7109988 141.1948776 125.0976940  40.8478647
 142.8340012 125.3444997  52.0009988 142.4890012 124.9634997  52.8079988
 142.6340012 126.2784997  52.0729988 142.7598061 125.4185228  52.1210961
 136.4400012 124.4554997  46.5339988 137.1850012 124.4534997  45.9329988
 136.5180012 123.6324997  47.0159988 136.5525518 124.3439315  46.5168929
 143.4410012 126.6194997  39.7899988 143.1450012 127.4454997  40.1709988
 142.7380012 125.9994997  39.9859988 143.3054914 126.6488199  39.8686443
 133.4480012 122.9164997  51.8489988 133.6710012 122.4984997  52.6809988
 132.8460012 122.3034997  51.4259988 133.3971759 122.7764668  51.9057022
 140.4640012 122.4334997  54.0619988 140.1680012 122.2674997  53.1669988
 141.3960012 122.2134997  54.0509988 140.5494166 122.3810640  53.9380536
 138.8150012 127.9734997  43.9379988 139.3420012 128.7464997  43.7379988
 137.9350012 128.1984997  43.6369988 138.7681773 128.1098005  43.8699010
 134.5700012 122.8354997  38.5249988 135.1860012 123.4624997  38.9049988
 133.7080012 123.1514997  38.7969988 134.5377698 122.9639430  38.6137183
 140.2420012 125.6364997  43.5149988 140.0010012 126.5614997  43.5559988
 139.5010012 125.1774997  43.9109988 140.1088409 125.7011421  43.5741377
 140.7570012 129.7854997  49.8299988 141.1190012 130.6404997  49.5959988
 141.2880012 129.4934997  50.5699988 140.8784473 129.8631060  49.8980855
 138.9250012 130.6584997  43.0599988 137.9750012 130.7634997  43.1109988
 139.2770012 131.4784997  43.4049988 138.8424203 130.7838314  43.1136650
 144.3010012 125.8844997  49.5299988 143.8750012 125.6574997  50.3569988
 144.8810012 125.1464997  49.3479988 144.3211868 125.7535299  49.6185830
 135.0820012 117.6694997  51.4069988 134.1890012 118.0084997  51.3389988
 134.9830012 116.8144997  51.8249988 134.9464164 117.6002588  51.4542235
 134.7330012 129.4744997  49.8419988 134.9500012 128.5424997  49.8109988
 134.9790012 129.7484997  50.7249988 134.7959549 129.3840636  49.9571763
 140.5950012 127.9254997  37.0509988 140.8340012 127.1774997  36.5039988
 140.3260012 127.5374997  37.8839988 140.5913675 127.7706638  37.0886865
 139.5320012 127.4954997  39.5079988 139.6780012 126.9754997  40.2979988
 139.5290012 128.4024997  39.8139988 139.5515989 127.5468853  39.6576088
 135.9850012 124.7484997  40.0179988 135.2990012 125.1004997  40.5849988
 136.5070012 125.5114997  39.7709988 135.9616852 124.8998578  40.0622118
 143.8160012 117.4104997  50.2969988 144.5150012 117.4844997  50.9469988
 143.4350012 116.5464997  50.4509988 143.8601767 117.3037624  50.4068322
 144.6010012 117.0624997  41.3939988 144.8210012 117.5344997  40.5909988
 145.1590012 117.4574997  42.0639988 144.7064968 117.1804285  41.3747331
 142.2690012 129.1934997  40.2569988 141.4530012 129.6904997  40.3089988
 142.7990012 129.6684997  39.6169988 142.2289161 129.3257722  40.1775956
 141.8010012 118.7904997  42.2289988 142.6130012 119.2954997  42.2749988
 141.5560012 118.6454997  43.1429988 141.8790520 118.8400375  42.3588517
 142.3360012 119.7764997  51.4139988 142.4550012 120.3504997  52.1709988
 142.9920012 119.0884997  51.5279988 142.4409757 119.7621079  51.5330825
 142.6840012 115.8714997  43.1669988 142.3380012 116.4894997  43.8119988
 143.3430012 116.3724997  42.6859988 142.7257826 116.0235802  43.1900971
 139.6080012 130.2374997  40.2389988 139.7680012 131.0364997  39.7379988
 139.4100012 130.5434997  41.1239988 139.6031649 130.3884469  40.2899815
 138.3420012 116.9344997  39.8539988 138.2590012 117.8234997  40.2009988
 139.2320012 116.6694997  40.0859988 138.4509469 117.0201430  39.9327626
 136.6010012 127.3624997  38.9149988 137.1930012 128.0614997  39.1909988
 137.0600012 126.9294997  38.1949988 136.7441142 127.3997049  38.8554830
 134.9170012 120.0264997  38.0309988 134.8720012 120.9654997  38.2089988
 134.0290012 119.7904997  37.7609988 134.7908574 120.1231892  38.0188912
 135.7250012 114.8084997  46.7039988 135.4960012 114.8674997  45.7759988
 135.2820012 114.0164997  47.0099988 135.6338530 114.7095753  46.6184786
 134.6550012 128.7484997  42.8639988 133.8230012 129.2214997  42.8919988
 135.2010012 129.2584997  42.2659988 134.6149739 128.8821871  42.7869716
 133.9430012 131.3614997  54.1939988 134.4840012 131.1444997  54.9539988
 133.4620012 130.5554997  54.0049988 133.9519345 131.2229514  54.2723076
 138.5410012 130.2804997  55.8149988 139.3080012 129.8214997  56.1559988
 138.5190012 130.0544997  54.8849988 138.6431434 130.1870409  55.7360043
 142.6330012 129.7884997  37.1899988 141.9890012 129.1574997  37.5109988
 143.3950012 129.2574997  36.9579988 142.6478077 129.6302920  37.2026011
 133.8500012 125.1714997  55.1489988 133.9940012 124.2694997  54.8619988
 133.0780012 125.4574997  54.6609988 133.7653322 125.0868261  55.0437881
 138.1920012 125.5154997  37.2809988 138.2560012 124.7214997  37.8119988
 138.8450012 125.3964997  36.5909988 138.2890241 125.3907148  37.2604317
 140.5060012 125.1414997  54.5809988 140.1770012 125.4124997  53.7239988
 140.6580012 124.2004997  54.4939988 140.4814809 125.0513862  54.4518244
 143.5440012 126.5624997  37.0169988 143.2750012 126.7424997  37.9179988
 143.3380012 125.6364997  36.8859988 143.4793825 126.4620152  37.1225214
 134.6830012 122.3714997  54.5689988 135.0910012 121.5144997  54.4479988
 134.4230012 122.3864997  55.4899988 134.7037568 122.2560807  54.6769588
 139.3410012 123.4874997  39.5869988 138.8810012 123.0034997  40.2729988
 139.5960012 122.8194997  38.9509988 139.3124902 123.3308731  39.5949334
 138.6300012 121.3804997  51.9429988 138.0120012 122.0554997  52.2229988
 138.9740012 121.7014997  51.1099988 138.5919615 121.5162721  51.8686581
 140.4120012 121.7304997  37.8489988 140.2320012 121.5764997  36.9219988
 141.3620012 121.8384997  37.8939988 140.5157776 121.7240175  37.7281843
 143.6500012 123.8524997  55.2199988 144.6030012 123.9354997  55.1929988
 143.4890012 123.1404997  55.8399988 143.7586426 123.7676746  55.3000579
 138.9690012 118.7354997  53.0249988 139.1190012 118.0064997  52.4229988
 138.9720012 119.5124997  52.4659988 138.9899302 118.7407851  52.8670692
 139.3820012 117.1054997  50.5179988 139.9180012 117.5564997  49.8659988
 138.5300012 116.9974997  50.0949988 139.3402178 117.1526390  50.3715756
 140.9640012 122.5444997  50.7569988 141.7140012 122.3884997  50.1839988
 140.6250012 123.3964997  50.4819988 141.0208921 122.6382968  50.6413561
 137.4480012 119.9334997  54.9369988 136.6810012 119.4014997  54.7269988
 138.1270012 119.6234997  54.3369988 137.4347022 119.8187506  54.8271648
 140.1880012 114.5614997  50.9489988 140.0890012 115.5084997  50.8439988
 139.4450012 114.1894997  50.4739988 140.0740564 114.6405902  50.8704560
 141.4520012 118.8834997  54.5129988 141.2160012 118.6634997  55.4149988
 140.6680012 118.6764997  54.0029988 141.3138628 118.8254760  54.5673932
 144.1670012 118.0104997  53.5889988 143.2200012 118.0424997  53.7209988
 144.4800012 117.3854997  54.2419988 144.0795475 117.9303207  53.6954455
 135.6280012 117.8544997  54.6409988 135.8400012 117.1474997  54.0309988
 135.5170012 117.4164997  55.4849988 135.6419721 117.6987084  54.6716843
 140.4090012 113.8554997  53.6209988 141.1210012 113.2154997  53.6069988
 140.3080012 114.1224997  52.7069988 140.4927939 113.8039938  53.4955650
 140.7630012 115.5384997  55.6739988 140.6310012 115.0624997  54.8539988
 140.1640012 116.2824997  55.6189988 140.6639071 115.5739618  55.5542886
 140.3090012 132.4214997  38.8509988 141.2420012 132.5794997  38.9939988
 140.0450012 133.0964997  38.2259988 140.4009510 132.5343611  38.7860741
 133.8780012 127.0574997  38.3329988 134.7920012 127.1364997  38.6069988
 133.8850012 126.3704997  37.6669988 134.0041131 126.9753961  38.2804393
 132.5270012 132.4504997  43.4109988 131.8800012 131.9884997  42.8779988
 132.8810012 131.7784997  43.9929988 132.4863849 132.2964723  43.4167959
 133.3970012 130.5314997  45.2149988 133.0620012 129.6514997  45.3869988
 133.6190012 130.8764997  46.0799988 133.3811783 130.4577500  45.3554208
 133.4770012 123.6064997  47.6669988 133.6610012 123.5244997  46.7309988
 134.3260012 123.4824997  48.0909988 133.6170139 123.5785003  47.5961455
 133.0740012 118.8774997  53.8079988 133.9940012 118.7554997  54.0439988
 132.6250012 118.1274997  54.1969988 133.1391580 118.7593727  53.8929006
 134.2950012 117.1894997  46.6989988 134.7410012 116.3974997  47.0009988
 134.7620012 117.9054997  47.1299988 134.4190172 117.1780624  46.7984820
 132.5990012 120.1884997  47.7679988 133.0910012 119.9674997  46.9769988
 132.9620012 121.0294997  48.0489988 132.7153126 120.2718357  47.6977531
 132.9130012 116.4464997  41.8219988 131.9880012 116.6554997  41.6929988
 133.3670012 116.9304997  41.1329988 132.8477368 116.5405993  41.7111226
 132.8770012 115.1844997  50.1669988 132.2120012 114.9384997  50.8099988
 132.4340012 115.8064997  49.5889988 132.7260956 115.2348632  50.1769352
 135.0690012 128.3594997  54.3109988 134.2480012 128.5344997  53.8509988
 134.8160012 128.2864997  55.2319988 134.9226164 128.3735622  54.3724923
 138.0230012 129.3344997  50.5699988 137.5980012 130.1434997  50.2869988
 138.9270012 129.4194997  50.2679988 138.0870271 129.4568469  50.4903776
 142.3340012 130.7334997  53.5289988 142.5190012 130.3994997  54.4069988
 143.1800012 131.0424997  53.2069988 142.4737539 130.7296047  53.6055605
 144.6790012 132.0194997  52.7729988 145.3560012 131.3864997  52.5329988
 145.0010012 132.4204997  53.5799988 144.8151637 131.9871154  52.8492793
 135.4250012 132.5904997  50.6169988 134.7040012 133.0304997  50.1659988
 135.0590012 132.3394997  51.4659988 135.2769804 132.6167698  50.6699840
 137.8920012 132.1904997  49.6469988 137.0270012 132.2624997  50.0509988
 137.8370012 132.7374997  48.8629988 137.7662085 132.2742685  49.5963362
 142.6020012 132.0784997  48.8219988 142.1460012 132.6074997  48.1679988
 142.7650012 132.6814997  49.5479988 142.5615585 132.2324468  48.8305062
 134.8390012 131.2134997  47.5269988 134.8210012 130.7884997  48.3849988
 135.6440012 130.8954997  47.1189988 134.9453875 131.1123812  47.5891655
 136.9810012 129.9234997  46.1819988 136.7620012 129.0074997  46.3519988
 137.8050012 130.0634997  46.6479988 137.0624420 129.8170520  46.2682774
 139.5180012 130.3934997  47.0309988 139.7310012 129.5054997  46.7439988
 139.5820012 130.3594997  47.9849988 139.5558231 130.2673102  47.1207397
 143.0260012 116.0574997  46.1749988 142.3520012 115.4284997  46.4309988
 143.5900012 115.5734997  45.5719988 143.0099230 115.9058744  46.1285340
 135.3530012 114.6914997  43.9969988 134.5760012 114.4574997  43.4899988
 135.8830012 113.8944997  44.0059988 135.3182330 114.5516988  43.9287742
 134.1890012 114.4894997  39.8009988 134.6280012 115.1004997  39.2089988
 133.5560012 115.0274997  40.2749988 134.1634514 114.6459257  39.7840930
 139.9320012 114.6184997  43.8109988 140.8070012 115.0064997  43.7809988
 139.7960012 114.4034997  44.7329988 140.0333695 114.6425184  43.9316440
 134.0900012 130.4374997  40.6989988 133.4050012 130.3994997  40.0309988
 134.0940012 131.3504997  40.9869988 133.9968193 130.5557016  40.6465284
 136.0500012 116.4054997  38.2429988 136.5420012 115.7754997  37.7159988
 136.6740012 116.7014997  38.9069988 136.2015446 116.3593199  38.2605980
 141.0760012 116.6984997  40.6999988 141.2540012 116.0524997  41.3829988
 141.0230012 117.5324997  41.1679988 141.0931829 116.7227985  40.8565940
 142.9550012 131.6474997  39.0959988 143.8210012 132.0134997  38.9179988
 142.7080012 131.2074997  38.2819988 143.0402392 131.6381756  38.9616289
 135.3110012 115.2054997  53.5149988 134.9450012 114.4404997  53.9579988
 136.2240012 115.2344997  53.8019988 135.3842790 115.1047224  53.6144070
 137.2840012 114.5564997  55.0509988 138.1820012 114.2824997  54.8659988
 136.8970012 113.8134997  55.5149988 137.3546612 114.4185914  55.0883643
 135.9080012 131.3574997  37.7239988 135.6410012 131.6444997  38.5969988
 136.6800012 130.8114997  37.8759988 135.9757488 131.3230294  37.8641050
  12.4390012 142.7034997  43.9559988  12.5280012 143.6474997  43.8239988
  11.8010012 142.4284997  43.2979988  12.3649081 142.7954830  43.8489614
  11.3720012 141.9584997  47.3749988  11.3340012 141.3124997  48.0799988
  11.0500012 141.4924997  46.6039988  11.3232333 141.8069408  47.3672978
   3.7410012 141.5734997  48.9679988   3.7820012 140.9474997  49.6909988
   4.4440012 142.1974997  49.1499988   3.8416363 141.5721196  49.0916044
  15.0780012 144.8974997  45.6759988  14.6380012 144.1774997  46.1269988
  15.0650012 145.6184997  46.3059988  15.0160226 144.8963731  45.8228494
   1.2740012 139.6834997  42.8959988   0.8270012 140.5294997  42.8769988
   0.7130012 139.1034997  42.3799988   1.1369900 139.7209916  42.8236801
   1.9850012 141.8454997  45.0219988   2.1980012 141.0754997  45.5489988
   2.7230012 141.9344997  44.4179988   2.1138496 141.7521394  45.0125300
   9.7620012 144.3914997  47.7809988  10.0660012 143.7054997  47.1859988
  10.4830012 144.5094997  48.3989988   9.9010671 144.3136305  47.7831816
  18.4250012 135.9924997  48.6419988  18.4740012 136.6024997  49.3779988
  18.8500012 136.4534997  47.9189988  18.4891824 136.1383741  48.6450205
  12.9030012 138.7854997  48.1089988  13.0450012 137.8394997  48.1289988
  12.7960012 138.9924997  47.1799988  12.9079864 138.6839534  47.9862339
   6.0570012 136.8864997  45.3809988   6.1010012 137.7464997  44.9629988
   5.6000012 136.3344997  44.7469988   6.0012185 136.9295799  45.2380299
  13.7800012 137.0174997  43.7819988  14.4260012 136.6884997  44.4069988
  14.2900012 137.5354997  43.1589988  13.9374264 137.0424611  43.7833862
   2.6780012 139.2834997  46.1429988   3.3310012 138.7334997  46.5749988
   2.7020012 139.0094997  45.2259988   2.7706683 139.1711466  46.0782123
   7.8340012 140.8334997  45.3579988   8.4500012 140.3074997  45.8679988
   7.2480012 140.1934997  44.9549988   7.8390810 140.6749208  45.3733173
  18.8160012 137.4704997  50.8779988  18.1280012 138.1284997  50.7819988
  18.8320012 137.2734997  51.8139988  18.7238525 137.5340462  50.9914808
   4.8680012 135.8044997  49.4549988   4.6490012 136.3344997  48.6889988
   4.2000012 136.0314997  50.1019988   4.7477600 135.9076906  49.4376379
   7.4370012 143.4804997  49.7419988   6.6970012 144.0784997  49.8459988
   8.1510012 144.0344997  49.4269988   7.4322237 143.6372831  49.7136465
  15.5440012 136.3084997  45.7619988  15.3280012 135.5424997  46.2949988
  16.1990012 136.7804997  46.2749988  15.6030632 136.2675889  45.9042861
   4.4610012 137.6964997  47.4069988   5.0750012 138.3294997  47.7809988
   4.9730012 137.2244997  46.7509988   4.6142296 137.7192370  47.3694252
  15.8910012 135.0234997  49.4419988  15.1550012 135.6344997  49.4039988
  16.5740012 135.4384997  48.9149988  15.8826541 135.1631374  49.3655832
   8.8940012 133.1104997  46.9079988   8.7770012 132.1614997  46.8529988
   8.0390012 133.4424997  47.1809988   8.7623733 133.0255409  46.9373897
  16.6880012 144.9854997  51.6359988  16.8280012 144.3944997  50.8959988
  16.8550012 145.8584997  51.2789988  16.7296778 145.0226426  51.4866965
  11.1610012 141.9474997  41.4079988  10.4490012 142.4824997  41.0559988
  11.8520012 142.0034997  40.7479988  11.1570132 142.0282543  41.2706289
  11.2140012 140.4054997  38.4469988  11.9150012 140.4274997  39.0979988
  11.5170012 139.7774997  37.7909988  11.3507830 140.3236566  38.4473711
  18.5300012 141.3254997  49.7019988  17.8770012 142.0204997  49.7909988
  18.9950012 141.5354997  48.8919988  18.5035390 141.4489425  49.6046883
  14.5660012 142.1574997  42.3599988  13.8340012 142.3854997  42.9329988
  15.0140012 141.4434997  42.8149988  14.5263095 142.0922571  42.4999119
  14.4640012 140.3314997  51.4269988  14.5440012 141.0944997  51.9989988
  13.8620012 140.6104997  50.7369988  14.3935756 140.4737134  51.4120589
   6.2120012 142.7874997  44.2419988   5.8810012 142.4174997  43.4239988
   6.8000012 142.1174997  44.5889988   6.2461873 142.6461156  44.1768102
   6.5780012 141.5564997  47.8759988   7.1440012 141.6774997  47.1129988
   6.8970012 142.1934997  48.5149988   6.6985786 141.6591884  47.8580040
  13.4370012 141.3194997  40.0449988  14.0170012 141.4694997  40.7919988
  13.8510012 141.7904997  39.3219988  13.5722831 141.4036841  40.0494134
   4.3780012 142.1534997  51.8219988   4.4490012 142.8044997  52.5199988
   3.4880012 142.2564997  51.4869988   4.2673117 142.2565936  51.8722700
  17.1360012 133.0694997  39.8579988  16.2360012 133.2084997  40.1529988
  17.3880012 133.9004997  39.4559988  17.0468702 133.2009074  39.8440205
   5.2020012 141.8574997  41.8319988   4.9100012 142.6254997  41.3409988
   4.5280012 141.1974997  41.6689988   5.0709081 141.8734406  41.7427340
   1.2950012 144.2204997  50.6469988   0.7940012 144.1924997  49.8319988
   1.3000012 143.3144997  50.9559988   1.2271526 144.0942278  50.5772872
  16.3950012 139.1594997  53.6929988  15.9880012 139.6404997  52.9719988
  16.4360012 138.2544997  53.3849988  16.3448437 139.1029374  53.5526683
   6.1630012 134.0134997  47.6849988   5.3010012 133.9264997  47.2779988
   6.1400012 134.8694997  48.1129988   6.0420330 134.1172765  47.6871863
  10.8260012 133.7354997  51.0599988  11.2460012 133.3204997  51.8129988
   9.8930012 133.5574997  51.1769988  10.7573644 133.6545900  51.1789539
  14.1520012 137.4914997  51.9129988  13.6380012 137.3654997  52.7109988
  13.9970012 138.4034997  51.6689988  14.0606852 137.5976132  51.9892158
  14.9150012 142.3524997  37.6749988  14.9570012 142.1294997  36.7449988
  15.7640012 142.7514997  37.8649988  15.0355396 142.3759155  37.5733627
  10.4870012 136.2284997  38.3449988  10.2340012 136.2474997  39.2679988
  10.2310012 135.3564997  38.0439988  10.4177790 136.1132437  38.4306263
   6.2540012 138.9794997  48.7799988   5.6120012 138.9384997  49.4889988
   6.2910012 139.9054997  48.5429988   6.1711324 139.0991559  48.8449824
   6.2510012 139.2004997  43.6919988   5.3580012 138.8594997  43.6339988
   6.7010012 138.8234997  42.9369988   6.1897305 139.1028484  43.5819177
  11.7860012 139.6164997  42.5089988  11.3770012 140.4314997  42.2179988
  12.5070012 139.4764997  41.8949988  11.8274537 139.7092018  42.3861342
  10.8880012 139.7914997  53.9969988  10.3260012 139.0874997  54.3179988
  11.7150012 139.6714997  54.4649988  10.9227095 139.6787883  54.1042330
  12.7910012 139.0624997  45.3229988  12.5960012 139.6674997  44.6079988
  12.9720012 138.2284997  44.8889988  12.7887614 139.0326300  45.1664405
   4.0040012 139.2994997  50.6469988   3.9660012 139.6994997  51.5159988
   3.5130012 138.4824997  50.7379988   3.9324684 139.2438069  50.7781059
   7.3700012 136.6734997  37.4459988   6.9390012 136.2284997  38.1759988
   6.6520012 137.0454997  36.9339988   7.2139438 136.6628940  37.4766799
   0.6120012 136.4154997  44.4979988   1.2430012 136.3864997  45.2169988
   1.0610012 135.9904997  43.7679988   0.7590774 136.3540492  44.4976553
   1.8860012 137.1614997  39.9219988   2.3600012 137.7524997  39.3369988
   1.1690012 137.6924997  40.2689988   1.8539341 137.3140867  39.8888836
  12.0550012 140.7004997  49.9949988  12.3780012 140.0694997  49.3519988
  11.6150012 140.1654997  50.6549988  12.0396895 140.5418441  49.9962850
   8.8320012 136.6274997  44.7789988   7.9210012 136.6844997  45.0669988
   9.3380012 136.5674997  45.5889988   8.7755413 136.6271985  44.9280622
   3.6610012 138.2564997  43.6049988   2.7710012 138.3564997  43.2649988
   3.9570012 137.4144997  43.2589988   3.5792823 138.1563545  43.5117213
   7.3140012 138.2564997  41.2619988   8.2450012 138.3854997  41.4399988
   7.0990012 138.9264997  40.6119988   7.4124247 138.3646565  41.1985747
  13.2370012 135.8624997  48.0429988  12.5610012 135.9934997  48.7069988
  12.7520012 135.7074997  47.2329988  13.0787145 135.8594905  48.0244517
   5.9880012 139.4514997  38.8289988   5.4450012 139.0714997  38.1369988
   6.8210012 139.6454997  38.3999988   6.0264399 139.4258124  38.6764526
   4.1230012 144.0084997  53.9279988   4.8550012 144.2624997  54.4889988
   3.3430012 144.2124997  54.4429988   4.1178232 144.0709177  54.0745760
  10.1520012 139.4154997  46.6659988  10.7170012 138.8684997  46.1189988
  10.0050012 138.8934997  47.4539988  10.2092918 139.2702024  46.6978454
   5.1540012 135.5514997  43.0839988   4.8370012 134.6494997  43.0489988
   5.9360012 135.5534997  42.5309988   5.2162284 135.4281628  43.0044783
   8.7790012 137.8034997  49.0799988   7.9430012 138.2574997  49.1899988
   9.3030012 138.0794997  49.8319988   8.7354414 137.9029376  49.1967136
   9.3230012 144.0164997  40.7639988   8.5780012 143.5094997  40.4419988
   9.1890012 144.0654997  41.7109988   9.2028776 143.9536940  40.8478647
  16.4730012 143.1494997  49.5509988  17.1150012 143.6064997  49.0069988
  15.6430012 143.2624997  49.0879988  16.4485963 143.2272704  49.4140177
  13.2210012 136.8304997  38.9639988  12.2820012 136.9424997  38.8119988
  13.5180012 137.6874997  39.2699988  13.1327666 136.9616443  38.9845768
  10.8420012 144.2004997  52.0009988  10.4970012 143.8194997  52.8079988
  10.6420012 145.1344997  52.0729988  10.7678061 144.2745228  52.1210961
  13.9390012 138.6974997  40.6239988  14.8310012 138.5604997  40.9429988
  13.9960012 139.4884997  40.0879988  14.0686285 138.7856660  40.5951691
   4.4480012 143.3114997  46.5339988   5.1930012 143.3094997  45.9329988
   4.5260012 142.4884997  47.0159988   4.5605518 143.1999315  46.5168929
   1.4560012 141.7724997  51.8489988   1.6790012 141.3544997  52.6809988
   0.8540012 141.1594997  51.4259988   1.4051759 141.6324668  51.9057022
   8.4720012 141.2894997  54.0619988   8.1760012 141.1234997  53.1669988
   9.4040012 141.0694997  54.0509988   8.5574166 141.2370640  53.9380536
  18.8240012 138.9074997  40.3189988  18.2700012 138.5114997  39.6469988
  18.9240012 139.8174997  40.0409988  18.7617059 138.9763586  40.1894401
  18.7870012 144.7074997  53.1559988  17.9360012 144.9454997  52.7889988
  19.3780012 144.6904997  52.4029988  18.7502487 144.7378258  53.0038893
  14.2800012 142.5014997  47.8049988  13.3510012 142.2694997  47.7779988
  14.7310012 141.7244997  47.4749988  14.2139216 142.3647238  47.7566917
   2.5780012 141.6914997  38.5249988   3.1940012 142.3184997  38.9049988
   1.7160012 142.0074997  38.7969988   2.5457698 141.8199430  38.6137183
   8.2500012 144.4924997  43.5149988   8.0090012 145.4174997  43.5559988
   7.5090012 144.0334997  43.9109988   8.1168409 144.5571421  43.5741377
  12.3090012 144.7404997  49.5299988  11.8830012 144.5134997  50.3569988
  12.8890012 144.0024997  49.3479988  12.3291868 144.6095299  49.6185830
   3.0900012 136.5254997  51.4069988   2.1970012 136.8644997  51.3389988
   2.9910012 135.6704997  51.8249988   2.9544164 136.4562588  51.4542235
  15.3780012 144.3424997  40.8309988  15.1000012 143.6144997  41.3869988
  16.3050012 144.4614997  41.0359988  15.4653124 144.2588802  40.9348845
   3.9930012 143.6044997  40.0179988   3.3070012 143.9564997  40.5849988
   4.5150012 144.3674997  39.7709988   3.9696852 143.7558578  40.0622118
  11.8240012 136.2664997  50.2969988  12.5230012 136.3404997  50.9469988
  11.4430012 135.4024997  50.4509988  11.8681767 136.1597624  50.4068322
  12.6090012 135.9184997  41.3939988  12.8290012 136.3904997  40.5909988
  13.1670012 136.3134997  42.0639988  12.7144968 136.0364285  41.3747331
   9.8090012 137.6464997  42.2289988  10.6210012 138.1514997  42.2749988
   9.5640012 137.5014997  43.1429988   9.8870520 137.6960375  42.3588517
  10.3440012 138.6324997  51.4139988  10.4630012 139.2064997  52.1709988
  11.0000012 137.9444997  51.5279988  10.4489757 138.6181079  51.5330825
  10.6920012 134.7274997  43.1669988  10.3460012 135.3454997  43.8119988
  11.3510012 135.2284997  42.6859988  10.7337826 134.8795802  43.1900971
   6.3500012 135.7904997  39.8539988   6.2670012 136.6794997  40.2009988
   7.2400012 135.5254997  40.0859988   6.4589469 135.8761430  39.9327626
  16.5490012 136.5394997  52.2489988  15.6320012 136.8024997  52.1609988
  16.8840012 136.5364997  51.3519988  16.4689900 136.5750224  52.1157919
  15.1510012 140.2904997  46.3439988  14.3530012 139.8754997  46.0159988
  15.5960012 139.5994997  46.8349988  15.1019885 140.1403543  46.3654889
   2.9250012 138.8824997  38.0309988   2.8800012 139.8214997  38.2089988
   2.0370012 138.6464997  37.7609988   2.7988574 138.9791892  38.0188912
   3.7330012 133.6644997  46.7039988   3.5040012 133.7234997  45.7759988
   3.2900012 132.8724997  47.0099988   3.6418530 133.5655753  46.6184786
   1.8580012 144.0274997  55.1489988   2.0020012 143.1254997  54.8619988
   1.0860012 144.3134997  54.6609988   1.7733322 143.9428261  55.0437881
   6.2000012 144.3714997  37.2809988   6.2640012 143.5774997  37.8119988
   6.8530012 144.2524997  36.5909988   6.2970241 144.2467148  37.2604317
   8.5140012 143.9974997  54.5809988   8.1850012 144.2684997  53.7239988
   8.6660012 143.0564997  54.4939988   8.4894809 143.9073862  54.4518244
  14.2480012 143.9134997  51.9649988  14.9940012 144.5014997  51.8449988
  13.4910012 144.4954997  52.0279988  14.2477554 144.0727011  51.9570907
   2.6910012 141.2274997  54.5689988   3.0990012 140.3704997  54.4479988
   2.4310012 141.2424997  55.4899988   2.7117568 141.1120807  54.6769588
   7.3490012 142.3434997  39.5869988   6.8890012 141.8594997  40.2729988
   7.6040012 141.6754997  38.9509988   7.3204902 142.1868731  39.5949334
   6.6380012 140.2364997  51.9429988   6.0200012 140.9114997  52.2229988
   6.9820012 140.5574997  51.1099988   6.5999615 140.3722721  51.8686581
   8.4200012 140.5864997  37.8489988   8.2400012 140.4324997  36.9219988
   9.3700012 140.6944997  37.8939988   8.5237776 140.5800175  37.7281843
  11.6580012 142.7084997  55.2199988  12.6110012 142.7914997  55.1929988
  11.4970012 141.9964997  55.8399988  11.7666426 142.6236746  55.3000579
  17.8100012 142.9414997  37.2949988  17.5360012 142.5164997  36.4819988
  17.8490012 143.8724997  37.0779988  17.7777699 143.0092484  37.1543610
   6.9770012 137.5914997  53.0249988   7.1270012 136.8624997  52.4229988
   6.9800012 138.3684997  52.4659988   6.9979302 137.5967851  52.8670692
   7.3900012 135.9614997  50.5179988   7.9260012 136.4124997  49.8659988
   6.5380012 135.8534997  50.0949988   7.3482178 136.0086390  50.3715756
   8.9720012 141.4004997  50.7569988   9.7220012 141.2444997  50.1839988
   8.6330012 142.2524997  50.4819988   9.0288921 141.4942968  50.6413561
  13.3870012 139.2154997  55.7859988  13.5800012 138.2844997  55.6739988
  14.2450012 139.6404997  55.7759988  13.5293020 139.1456389  55.7693361
  14.7040012 142.0044997  53.8629988  14.4230012 142.7134997  53.2859988
  15.6470012 141.9314997  53.7119988  14.7929027 142.0917646  53.7635551
   5.4560012 138.7894997  54.9369988   4.6890012 138.2574997  54.7269988
   6.1350012 138.4794997  54.3369988   5.4427022 138.6747506  54.8271648
   8.1960012 133.4174997  50.9489988   8.0970012 134.3644997  50.8439988
   7.4530012 133.0454997  50.4739988   8.0820564 133.4965902  50.8704560
   9.4600012 137.7394997  54.5129988   9.2240012 137.5194997  55.4149988
   8.6760012 137.5324997  54.0029988   9.3218628 137.6814760  54.5673932
  12.1750012 136.8664997  53.5889988  11.2280012 136.8984997  53.7209988
  12.4880012 136.2414997  54.2419988  12.0875475 136.7863207  53.6954455
  13.8090012 135.5004997  55.5939988  13.7130012 134.5484997  55.5879988
  13.4880012 135.7694997  56.4539988  13.7524070 135.4064035  55.7095441
   3.6360012 136.7104997  54.6409988   3.8480012 136.0034997  54.0309988
   3.5250012 136.2724997  55.4849988   3.6499721 136.5547084  54.6716843
   8.4170012 132.7114997  53.6209988   9.1290012 132.0714997  53.6069988
   8.3160012 132.9784997  52.7069988   8.5007939 132.6599938  53.4955650
   8.7710012 134.3944997  55.6739988   8.6390012 133.9184997  54.8539988
   8.1720012 135.1384997  55.6189988   8.6719071 134.4299618  55.5542886
  18.2680012 143.8104997  41.2699988  19.1180012 144.2314997  41.3969988
  18.2740012 143.0704997  41.8769988  18.3851372 143.7680803  41.3694344
  18.6630012 141.8634997  43.0939988  17.9360012 141.3844997  43.4909988
  19.2440012 142.0694997  43.8259988  18.6419375 141.8257090  43.2474129
  18.4220012 144.6484997  48.0409988  19.2550012 144.2704997  47.7609988
  18.5340012 145.5914997  47.9219988  18.5512647 144.7242218  47.9865487
  18.9310012 141.7644997  39.4849988  18.4090012 142.1214997  38.7659988
  18.8980012 142.4394997  40.1629988  18.8551634 141.9045413  39.4783145
  17.2800012 139.0044997  38.0359988  17.3760012 139.6714997  37.3549988
  17.1400012 138.1884997  37.5539988  17.2742135 138.9854500  37.8778491
  16.4490012 140.3844997  43.6569988  16.2990012 139.4394997  43.6359988
  16.0960012 140.6654997  44.4999988  16.3806625 140.2930441  43.7682346
   1.4850012 142.4624997  47.6669988   1.6690012 142.3804997  46.7309988
   2.3340012 142.3384997  48.0909988   1.6250139 142.4345003  47.5961455
  17.3060012 142.3544997  53.2949988  17.8890012 141.6204997  53.4869988
  17.8700012 143.1264997  53.3419988  17.4619769 142.3584227  53.3276159
  18.8020012 140.2574997  53.9799988  17.9390012 139.8784997  53.8139988
  19.4070012 139.5184997  53.9059988  18.7655979 140.1058023  53.9472817
  16.5270012 136.4124997  37.1529988  17.1380012 136.0414997  37.7899988
  15.6910012 135.9914997  37.3489988  16.4975032 136.3047554  37.2667035
  16.1600012 137.9674997  42.1189988  16.4400012 137.0604997  42.2429988
  16.9190012 138.4014997  41.7299988  16.3009277 137.9020942  42.0833682
  16.7720012 138.5484997  47.5549988  17.7050012 138.7604997  47.5209988
  16.5370012 138.6504997  48.4769988  16.8678036 138.5912769  47.6749976
  16.8010012 139.2854997  50.3309988  15.9580012 139.5534997  50.6969988
  17.2430012 140.1074997  50.1199988  16.7454158 139.4333291  50.3525491
   1.0820012 137.7334997  53.8079988   2.0020012 137.6114997  54.0439988
   0.6330012 136.9834997  54.1969988   1.1471580 137.6153727  53.8929006
  19.0840012 133.2654997  55.6839988  19.4340012 132.6114997  55.0789988
  19.2310012 134.1024997  55.2449988  19.1518419 133.2891591  55.5417118
  16.7730012 135.2304997  42.1669988  16.9560012 134.7814997  42.9929988
  16.1740012 134.6454997  41.7039988  16.7170202 135.0899975  42.2173275
   2.3030012 136.0454997  46.6989988   2.7490012 135.2534997  47.0009988
   2.7700012 136.7614997  47.1299988   2.4270172 136.0340624  46.7984820
   0.6070012 139.0444997  47.7679988   1.0990012 138.8234997  46.9769988
   0.9700012 139.8854997  48.0489988   0.7233126 139.1278357  47.6977531
  18.6040012 135.3744997  54.0339988  17.6860012 135.6454997  53.9979988
  18.7270012 134.8394997  53.2489988  18.4951066 135.3392892  53.9230487
  18.6400012 135.2974997  38.6949988  19.0520012 134.5764997  38.2199988
  19.3220012 135.9674997  38.7539988  18.7885885 135.2892368  38.6378915
   0.9210012 135.3024997  41.8219988  -0.0039988 135.5114997  41.6929988
   1.3750012 135.7864997  41.1329988   0.8557368 135.3965993  41.7111226
   0.8850012 134.0404997  50.1669988   0.2200012 133.7944997  50.8099988
   0.4420012 134.6624997  49.5889988   0.7340956 134.0908632  50.1769352
  17.6040012 133.4644997  51.8529988  16.7920012 133.7894997  51.4649988
  17.8370012 132.7044997  51.3199988  17.5243423 133.4062436  51.7278253
  11.0340012 134.9134997  46.1749988  10.3600012 134.2844997  46.4309988
  11.5980012 134.4294997  45.5719988  11.0179230 134.7618744  46.1285340
  16.1770012 133.0214997  46.2879988  16.7810012 133.5684997  45.7859988
  15.3070012 133.3404997  46.0479988  16.1421241 133.1395806  46.1867654
  17.9040012 134.1594997  44.6209988  18.5160012 133.6454997  44.0949988
  18.2860012 135.0374997  44.6449988  18.0394540 134.2077140  44.5521830
   3.3610012 133.5474997  43.9969988   2.5840012 133.3134997  43.4899988
   3.8910012 132.7504997  44.0059988   3.3262330 133.4076988  43.9287742
   2.1970012 133.3454997  39.8009988   2.6360012 133.9564997  39.2089988
   1.5640012 133.8834997  40.2749988   2.1714514 133.5019257  39.7840930
   7.9400012 133.4744997  43.8109988   8.8150012 133.8624997  43.7809988
   7.8040012 133.2594997  44.7329988   8.0413695 133.4985184  43.9316440
  13.4970012 133.5044997  45.4599988  13.5730012 133.5994997  44.5099988
  13.2220012 132.5964997  45.5889988  13.4702321 133.3947867  45.3475079
  14.8500012 133.5304997  41.1519988  14.1480012 134.1454997  40.9429988
  14.4060012 132.6924997  41.2829988  14.6936330 133.5015783  41.1410328
   4.0580012 135.2614997  38.2429988   4.5500012 134.6314997  37.7159988
   4.6820012 135.5574997  38.9069988   4.2095446 135.2153199  38.2605980
   9.0840012 135.5544997  40.6999988   9.2620012 134.9084997  41.3829988
   9.0310012 136.3884997  41.1679988   9.1011829 135.5787985  40.8565940
   3.3190012 134.0614997  53.5149988   2.9530012 133.2964997  53.9579988
   4.2320012 134.0904997  53.8019988   3.3922790 133.9607224  53.6144070
   5.2920012 133.4124997  55.0509988   6.1900012 133.1384997  54.8659988
   4.9050012 132.6694997  55.5149988   5.3626612 133.2745914  55.0883643
  13.7130012 132.7444997  55.2329988  13.7900012 132.3184997  56.0869988
  14.6070012 132.7584997  54.8899988  13.8443428 132.6880879  55.3035310
  31.2950012 142.7034997  43.9559988  31.3840012 143.6474997  43.8239988
  30.6570012 142.4284997  43.2979988  31.2209081 142.7954830  43.8489614
  30.2280012 141.9584997  47.3749988  30.1900012 141.3124997  48.0799988
  29.9060012 141.4924997  46.6039988  30.1792333 141.8069408  47.3672978
  22.5970012 141.5734997  48.9679988  22.6380012 140.9474997  49.6909988
  23.3000012 142.1974997  49.1499988  22.6976363 141.5721196  49.0916044
  33.9340012 144.8974997  45.6759988  33.4940012 144.1774997  46.1269988
  33.9210012 145.6184997  46.3059988  33.8720226 144.8963731  45.8228494
  20.1300012 139.6834997  42.8959988  19.6830012 140.5294997  42.8769988
  19.5690012 139.1034997  42.3799988  19.9929900 139.7209916  42.8236801
  20.8410012 141.8454997  45.0219988  21.0540012 141.0754997  45.5489988
  21.5790012 141.9344997  44.4179988  20.9698496 141.7521394  45.0125300
  28.6180012 144.3914997  47.7809988  28.9220012 143.7054997  47.1859988
  29.3390012 144.5094997  48.3989988  28.7570671 144.3136305  47.7831816
  37.2810012 135.9924997  48.6419988  37.3300012 136.6024997  49.3779988
  37.7060012 136.4534997  47.9189988  37.3451824 136.1383741  48.6450205
  31.7590012 138.7854997  48.1089988  31.9010012 137.8394997  48.1289988
  31.6520012 138.9924997  47.1799988  31.7639864 138.6839534  47.9862339
  24.9130012 136.8864997  45.3809988  24.9570012 137.7464997  44.9629988
  24.4560012 136.3344997  44.7469988  24.8572185 136.9295799  45.2380299
  32.6360012 137.0174997  43.7819988  33.2820012 136.6884997  44.4069988
  33.1460012 137.5354997  43.1589988  32.7934264 137.0424611  43.7833862
  21.5340012 139.2834997  46.1429988  22.1870012 138.7334997  46.5749988
  21.5580012 139.0094997  45.2259988  21.6266683 139.1711466  46.0782123
  26.6900012 140.8334997  45.3579988  27.3060012 140.3074997  45.8679988
  26.1040012 140.1934997  44.9549988  26.6950810 140.6749208  45.3733173
  37.6720012 137.4704997  50.8779988  36.9840012 138.1284997  50.7819988
  37.6880012 137.2734997  51.8139988  37.5798525 137.5340462  50.9914808
  23.7240012 135.8044997  49.4549988  23.5050012 136.3344997  48.6889988
  23.0560012 136.0314997  50.1019988  23.6037600 135.9076906  49.4376379
  26.2930012 143.4804997  49.7419988  25.5530012 144.0784997  49.8459988
  27.0070012 144.0344997  49.4269988  26.2882237 143.6372831  49.7136465
  34.4000012 136.3084997  45.7619988  34.1840012 135.5424997  46.2949988
  35.0550012 136.7804997  46.2749988  34.4590632 136.2675889  45.9042861
  23.3170012 137.6964997  47.4069988  23.9310012 138.3294997  47.7809988
  23.8290012 137.2244997  46.7509988  23.4702296 137.7192370  47.3694252
  34.7470012 135.0234997  49.4419988  34.0110012 135.6344997  49.4039988
  35.4300012 135.4384997  48.9149988  34.7386541 135.1631374  49.3655832
  27.7500012 133.1104997  46.9079988  27.6330012 132.1614997  46.8529988
  26.8950012 133.4424997  47.1809988  27.6183733 133.0255409  46.9373897
  35.5440012 144.9854997  51.6359988  35.6840012 144.3944997  50.8959988
  35.7110012 145.8584997  51.2789988  35.5856778 145.0226426  51.4866965
  30.0170012 141.9474997  41.4079988  29.3050012 142.4824997  41.0559988
  30.7080012 142.0034997  40.7479988  30.0130132 142.0282543  41.2706289
  30.0700012 140.4054997  38.4469988  30.7710012 140.4274997  39.0979988
  30.3730012 139.7774997  37.7909988  30.2067830 140.3236566  38.4473711
  37.3860012 141.3254997  49.7019988  36.7330012 142.0204997  49.7909988
  37.8510012 141.5354997  48.8919988  37.3595390 141.4489425  49.6046883
  33.4220012 142.1574997  42.3599988  32.6900012 142.3854997  42.9329988
  33.8700012 141.4434997  42.8149988  33.3823095 142.0922571  42.4999119
  33.3200012 140.3314997  51.4269988  33.4000012 141.0944997  51.9989988
  32.7180012 140.6104997  50.7369988  33.2495756 140.4737134  51.4120589
  25.0680012 142.7874997  44.2419988  24.7370012 142.4174997  43.4239988
  25.6560012 142.1174997  44.5889988  25.1021873 142.6461156  44.1768102
  25.4340012 141.5564997  47.8759988  26.0000012 141.6774997  47.1129988
  25.7530012 142.1934997  48.5149988  25.5545786 141.6591884  47.8580040
  32.2930012 141.3194997  40.0449988  32.8730012 141.4694997  40.7919988
  32.7070012 141.7904997  39.3219988  32.4282830 141.4036841  40.0494134
  23.2340012 142.1534997  51.8219988  23.3050012 142.8044997  52.5199988
  22.3440012 142.2564997  51.4869988  23.1233117 142.2565936  51.8722700
  35.9920012 133.0694997  39.8579988  35.0920012 133.2084997  40.1529988
  36.2440012 133.9004997  39.4559988  35.9028702 133.2009074  39.8440205
  24.0580012 141.8574997  41.8319988  23.7660012 142.6254997  41.3409988
  23.3840012 141.1974997  41.6689988  23.9269081 141.8734406  41.7427340
  20.1510012 144.2204997  50.6469988  19.6500012 144.1924997  49.8319988
  20.1560012 143.3144997  50.9559988  20.0831526 144.0942278  50.5772872
  35.2510012 139.1594997  53.6929988  34.8440012 139.6404997  52.9719988
  35.2920012 138.2544997  53.3849988  35.2008437 139.1029374  53.5526683
  25.0190012 134.0134997  47.6849988  24.1570012 133.9264997  47.2779988
  24.9960012 134.8694997  48.1129988  24.8980330 134.1172765  47.6871863
  29.6820012 133.7354997  51.0599988  30.1020012 133.3204997  51.8129988
  28.7490012 133.5574997  51.1769988  29.6133644 133.6545900  51.1789539
  33.0080012 137.4914997  51.9129988  32.4940012 137.3654997  52.7109988
  32.8530012 138.4034997  51.6689988  32.9166852 137.5976132  51.9892158
  33.7710012 142.3524997  37.6749988  33.8130012 142.1294997  36.7449988
  34.6200012 142.7514997  37.8649988  33.8915396 142.3759155  37.5733627
  29.3430012 136.2284997  38.3449988  29.0900012 136.2474997  39.2679988
  29.0870012 135.3564997  38.0439988  29.2737790 136.1132437  38.4306263
  25.1100012 138.9794997  48.7799988  24.4680012 138.9384997  49.4889988
  25.1470012 139.9054997  48.5429988  25.0271324 139.0991559  48.8449824
  25.1070012 139.2004997  43.6919988  24.2140012 138.8594997  43.6339988
  25.5570012 138.8234997  42.9369988  25.0457305 139.1028484  43.5819177
  30.6420012 139.6164997  42.5089988  30.2330012 140.4314997  42.2179988
  31.3630012 139.4764997  41.8949988  30.6834537 139.7092018  42.3861342
  29.7440012 139.7914997  53.9969988  29.1820012 139.0874997  54.3179988
  30.5710012 139.6714997  54.4649988  29.7787095 139.6787883  54.1042330
  31.6470012 139.0624997  45.3229988  31.4520012 139.6674997  44.6079988
  31.8280012 138.2284997  44.8889988  31.6447614 139.0326300  45.1664405
  22.8600012 139.2994997  50.6469988  22.8220012 139.6994997  51.5159988
  22.3690012 138.4824997  50.7379988  22.7884684 139.2438069  50.7781059
  26.2260012 136.6734997  37.4459988  25.7950012 136.2284997  38.1759988
  25.5080012 137.0454997  36.9339988  26.0699438 136.6628940  37.4766799
  19.4680012 136.4154997  44.4979988  20.0990012 136.3864997  45.2169988
  19.9170012 135.9904997  43.7679988  19.6150774 136.3540492  44.4976553
  20.7420012 137.1614997  39.9219988  21.2160012 137.7524997  39.3369988
  20.0250012 137.6924997  40.2689988  20.7099341 137.3140867  39.8888836
  30.9110012 140.7004997  49.9949988  31.2340012 140.0694997  49.3519988
  30.4710012 140.1654997  50.6549988  30.8956895 140.5418441  49.9962850
  27.6880012 136.6274997  44.7789988  26.7770012 136.6844997  45.0669988
  28.1940012 136.5674997  45.5889988  27.6315413 136.6271985  44.9280622
  22.5170012 138.2564997  43.6049988  21.6270012 138.3564997  43.2649988
  22.8130012 137.4144997  43.2589988  22.4352823 138.1563545  43.5117213
  26.1700012 138.2564997  41.2619988  27.1010012 138.3854997  41.4399988
  25.9550012 138.9264997  40.6119988  26.2684247 138.3646565  41.1985747
  32.0930012 135.8624997  48.0429988  31.4170012 135.9934997  48.7069988
  31.6080012 135.7074997  47.2329988  31.9347145 135.8594905  48.0244517
  24.8440012 139.4514997  38.8289988  24.3010012 139.0714997  38.1369988
  25.6770012 139.6454997  38.3999988  24.8824399 139.4258124  38.6764526
  22.9790012 144.0084997  53.9279988  23.7110012 144.2624997  54.4889988
  22.1990012 144.2124997  54.4429988  22.9738232 144.0709177  54.0745760
  29.0080012 139.4154997  46.6659988  29.5730012 138.8684997  46.1189988
  28.8610012 138.8934997  47.4539988  29.0652918 139.2702024  46.6978454
  24.0100012 135.5514997  43.0839988  23.6930012 134.6494997  43.0489988
  24.7920012 135.5534997  42.5309988  24.0722284 135.4281628  43.0044783
  27.6350012 137.8034997  49.0799988  26.7990012 138.2574997  49.1899988
  28.1590012 138.0794997  49.8319988  27.5914414 137.9029376  49.1967136
  28.1790012 144.0164997  40.7639988  27.4340012 143.5094997  40.4419988
  28.0450012 144.0654997  41.7109988  28.0588776 143.9536940  40.8478647
  35.3290012 143.1494997  49.5509988  35.9710012 143.6064997  49.0069988
  34.4990012 143.2624997  49.0879988  35.3045963 143.2272704  49.4140177
  32.0770012 136.8304997  38.9639988  31.1380012 136.9424997  38.8119988
  32.3740012 137.6874997  39.2699988  31.9887666 136.9616443  38.9845768
  29.6980012 144.2004997  52.0009988  29.3530012 143.8194997  52.8079988
  29.4980012 145.1344997  52.0729988  29.6238061 144.2745228  52.1210961
  32.7950012 138.6974997  40.6239988  33.6870012 138.5604997  40.9429988
  32.8520012 139.4884997  40.0879988  32.9246285 138.7856660  40.5951691
  23.3040012 143.3114997  46.5339988  24.0490012 143.3094997  45.9329988
  23.3820012 142.4884997  47.0159988  23.4165518 143.1999315  46.5168929
  20.3120012 141.7724997  51.8489988  20.5350012 141.3544997  52.6809988
  19.7100012 141.1594997  51.4259988  20.2611759 141.6324668  51.9057022
  27.3280012 141.2894997  54.0619988  27.0320012 141.1234997  53.1669988
  28.2600012 141.0694997  54.0509988  27.4134166 141.2370640  53.9380536
  37.6800012 138.9074997  40.3189988  37.1260012 138.5114997  39.6469988
  37.7800012 139.8174997  40.0409988  37.6177059 138.9763586  40.1894401
  37.6430012 144.7074997  53.1559988  36.7920012 144.9454997  52.7889988
  38.2340012 144.6904997  52.4029988  37.6062487 144.7378258  53.0038893
  33.1360012 142.5014997  47.8049988  32.2070012 142.2694997  47.7779988
  33.5870012 141.7244997  47.4749988  33.0699216 142.3647238  47.7566917
  21.4340012 141.6914997  38.5249988  22.0500012 142.3184997  38.9049988
  20.5720012 142.0074997  38.7969988  21.4017698 141.8199430  38.6137183
  27.1060012 144.4924997  43.5149988  26.8650012 145.4174997  43.5559988
  26.3650012 144.0334997  43.9109988  26.9728409 144.5571421  43.5741377
  31.1650012 144.7404997  49.5299988  30.7390012 144.5134997  50.3569988
  31.7450012 144.0024997  49.3479988  31.1851868 144.6095299  49.6185830
  21.9460012 136.5254997  51.4069988  21.0530012 136.8644997  51.3389988
  21.8470012 135.6704997  51.8249988  21.8104164 136.4562588  51.4542235
  34.2340012 144.3424997  40.8309988  33.9560012 143.6144997  41.3869988
  35.1610012 144.4614997  41.0359988  34.3213124 144.2588802  40.9348845
  22.8490012 143.6044997  40.0179988  22.1630012 143.9564997  40.5849988
  23.3710012 144.3674997  39.7709988  22.8256852 143.7558578  40.0622118
  30.6800012 136.2664997  50.2969988  31.3790012 136.3404997  50.9469988
  30.2990012 135.4024997  50.4509988  30.7241767 136.1597624  50.4068322
  31.4650012 135.9184997  41.3939988  31.6850012 136.3904997  40.5909988
  32.0230012 136.3134997  42.0639988  31.5704968 136.0364285  41.3747331
  28.6650012 137.6464997  42.2289988  29.4770012 138.1514997  42.2749988
  28.4200012 137.5014997  43.1429988  28.7430520 137.6960375  42.3588517
  29.2000012 138.6324997  51.4139988  29.3190012 139.2064997  52.1709988
  29.8560012 137.9444997  51.5279988  29.3049757 138.6181079  51.5330825
  29.5480012 134.7274997  43.1669988  29.2020012 135.3454997  43.8119988
  30.2070012 135.2284997  42.6859988  29.5897826 134.8795802  43.1900971
  25.2060012 135.7904997  39.8539988  25.1230012 136.6794997  40.2009988
  26.0960012 135.5254997  40.0859988  25.3149469 135.8761430  39.9327626
  35.4050012 136.5394997  52.2489988  34.4880012 136.8024997  52.1609988
  35.7400012 136.5364997  51.3519988  35.3249900 136.5750224  52.1157919
  34.0070012 140.2904997  46.3439988  33.2090012 139.8754997  46.0159988
  34.4520012 139.5994997  46.8349988  33.9579885 140.1403543  46.3654889
  21.7810012 138.8824997  38.0309988  21.7360012 139.8214997  38.2089988
  20.8930012 138.6464997  37.7609988  21.6548574 138.9791892  38.0188912
  22.5890012 133.6644997  46.7039988  22.3600012 133.7234997  45.7759988
  22.1460012 132.8724997  47.0099988  22.4978530 133.5655753  46.6184786
  20.7140012 144.0274997  55.1489988  20.8580012 143.1254997  54.8619988
  19.9420012 144.3134997  54.6609988  20.6293323 143.9428261  55.0437881
  25.0560012 144.3714997  37.2809988  25.1200012 143.5774997  37.8119988
  25.7090012 144.2524997  36.5909988  25.1530241 144.2467148  37.2604317
  27.3700012 143.9974997  54.5809988  27.0410012 144.2684997  53.7239988
  27.5220012 143.0564997  54.4939988  27.3454809 143.9073862  54.4518244
  33.1040012 143.9134997  51.9649988  33.8500012 144.5014997  51.8449988
  32.3470012 144.4954997  52.0279988  33.1037554 144.0727011  51.9570907
  21.5470012 141.2274997  54.5689988  21.9550012 140.3704997  54.4479988
  21.2870012 141.2424997  55.4899988  21.5677568 141.1120807  54.6769588
  26.2050012 142.3434997  39.5869988  25.7450012 141.8594997  40.2729988
  26.4600012 141.6754997  38.9509988  26.1764902 142.1868731  39.5949334
  25.4940012 140.2364997  51.9429988  24.8760012 140.9114997  52.2229988
  25.8380012 140.5574997  51.1099988  25.4559615 140.3722721  51.8686581
  27.2760012 140.5864997  37.8489988  27.0960012 140.4324997  36.9219988
  28.2260012 140.6944997  37.8939988  27.3797776 140.5800175  37.7281843
  30.5140012 142.7084997  55.2199988  31.4670012 142.7914997  55.1929988
  30.3530012 141.9964997  55.8399988  30.6226426 142.6236746  55.3000579
  36.6660012 142.9414997  37.2949988  36.3920012 142.5164997  36.4819988
  36.7050012 143.8724997  37.0779988  36.6337699 143.0092484  37.1543610
  25.8330012 137.5914997  53.0249988  25.9830012 136.8624997  52.4229988
  25.8360012 138.3684997  52.4659988  25.8539302 137.5967851  52.8670692
  26.2460012 135.9614997  50.5179988  26.7820012 136.4124997  49.8659988
  25.3940012 135.8534997  50.0949988  26.2042178 136.0086390  50.3715756
  27.8280012 141.4004997  50.7569988  28.5780012 141.2444997  50.1839988
  27.4890012 142.2524997  50.4819988  27.8848921 141.4942968  50.6413561
  32.2430012 139.2154997  55.7859988  32.4360012 138.2844997  55.6739988
  33.1010012 139.6404997  55.7759988  32.3853020 139.1456389  55.7693361
  33.5600012 142.0044997  53.8629988  33.2790012 142.7134997  53.2859988
  34.5030012 141.9314997  53.7119988  33.6489027 142.0917646  53.7635551
  24.3120012 138.7894997  54.9369988  23.5450012 138.2574997  54.7269988
  24.9910012 138.4794997  54.3369988  24.2987022 138.6747506  54.8271648
  27.0520012 133.4174997  50.9489988  26.9530012 134.3644997  50.8439988
  26.3090012 133.0454997  50.4739988  26.9380563 133.4965902  50.8704560
  28.3160012 137.7394997  54.5129988  28.0800012 137.5194997  55.4149988
  27.5320012 137.5324997  54.0029988  28.1778628 137.6814760  54.5673932
  31.0310012 136.8664997  53.5889988  30.0840012 136.8984997  53.7209988
  31.3440012 136.2414997  54.2419988  30.9435475 136.7863207  53.6954455
  32.6650012 135.5004997  55.5939988  32.5690012 134.5484997  55.5879988
  32.3440012 135.7694997  56.4539988  32.6084070 135.4064035  55.7095441
  22.4920012 136.7104997  54.6409988  22.7040012 136.0034997  54.0309988
  22.3810012 136.2724997  55.4849988  22.5059721 136.5547084  54.6716843
  27.2730012 132.7114997  53.6209988  27.9850012 132.0714997  53.6069988
  27.1720012 132.9784997  52.7069988  27.3567939 132.6599938  53.4955650
  27.6270012 134.3944997  55.6739988  27.4950012 133.9184997  54.8539988
  27.0280012 135.1384997  55.6189988  27.5279071 134.4299618  55.5542886
  37.1240012 143.8104997  41.2699988  37.9740012 144.2314997  41.3969988
  37.1300012 143.0704997  41.8769988  37.2411372 143.7680803  41.3694344
  37.5190012 141.8634997  43.0939988  36.7920012 141.3844997  43.4909988
  38.1000012 142.0694997  43.8259988  37.4979375 141.8257090  43.2474129
  37.2780012 144.6484997  48.0409988  38.1110012 144.2704997  47.7609988
  37.3900012 145.5914997  47.9219988  37.4072647 144.7242218  47.9865487
  37.7870012 141.7644997  39.4849988  37.2650012 142.1214997  38.7659988
  37.7540012 142.4394997  40.1629988  37.7111634 141.9045413  39.4783145
  36.1360012 139.0044997  38.0359988  36.2320012 139.6714997  37.3549988
  35.9960012 138.1884997  37.5539988  36.1302135 138.9854500  37.8778491
  35.3050012 140.3844997  43.6569988  35.1550012 139.4394997  43.6359988
  34.9520012 140.6654997  44.4999988  35.2366625 140.2930441  43.7682346
  20.3410012 142.4624997  47.6669988  20.5250012 142.3804997  46.7309988
  21.1900012 142.3384997  48.0909988  20.4810139 142.4345003  47.5961455
  36.1620012 142.3544997  53.2949988  36.7450012 141.6204997  53.4869988
  36.7260012 143.1264997  53.3419988  36.3179769 142.3584227  53.3276159
  37.6580012 140.2574997  53.9799988  36.7950012 139.8784997  53.8139988
  38.2630012 139.5184997  53.9059988  37.6215979 140.1058023  53.9472817
  35.3830012 136.4124997  37.1529988  35.9940012 136.0414997  37.7899988
  34.5470012 135.9914997  37.3489988  35.3535032 136.3047554  37.2667035
  35.0160012 137.9674997  42.1189988  35.2960012 137.0604997  42.2429988
  35.7750012 138.4014997  41.7299988  35.1569277 137.9020942  42.0833682
  35.6280012 138.5484997  47.5549988  36.5610012 138.7604997  47.5209988
  35.3930012 138.6504997  48.4769988  35.7238036 138.5912769  47.6749976
  35.6570012 139.2854997  50.3309988  34.8140012 139.5534997  50.6969988
  36.0990012 140.1074997  50.1199988  35.6014158 139.4333291  50.3525491
  19.9380012 137.7334997  53.8079988  20.8580012 137.6114997  54.0439988
  19.4890012 136.9834997  54.1969988  20.0031580 137.6153727  53.8929006
  37.9400012 133.2654997  55.6839988  38.2900012 132.6114997  55.0789988
  38.0870012 134.1024997  55.2449988  38.0078419 133.2891591  55.5417118
  35.6290012 135.2304997  42.1669988  35.8120012 134.7814997  42.9929988
  35.0300012 134.6454997  41.7039988  35.5730202 135.0899975  42.2173275
  21.1590012 136.0454997  46.6989988  21.6050012 135.2534997  47.0009988
  21.6260012 136.7614997  47.1299988  21.2830172 136.0340624  46.7984820
  19.4630012 139.0444997  47.7679988  19.9550012 138.8234997  46.9769988
  19.8260012 139.8854997  48.0489988  19.5793126 139.1278357  47.6977531
  37.4600012 135.3744997  54.0339988  36.5420012 135.6454997  53.9979988
  37.5830012 134.8394997  53.2489988  37.3511066 135.3392892  53.9230487
  37.4960012 135.2974997  38.6949988  37.9080012 134.5764997  38.2199988
  38.1780012 135.9674997  38.7539988  37.6445885 135.2892368  38.6378915
  19.7770012 135.3024997  41.8219988  18.8520012 135.5114997  41.6929988
  20.2310012 135.7864997  41.1329988  19.7117368 135.3965993  41.7111226
  19.7410012 134.0404997  50.1669988  19.0760012 133.7944997  50.8099988
  19.2980012 134.6624997  49.5889988  19.5900956 134.0908632  50.1769352
  36.4600012 133.4644997  51.8529988  35.6480012 133.7894997  51.4649988
  36.6930012 132.7044997  51.3199988  36.3803423 133.4062436  51.7278253
  29.8900012 134.9134997  46.1749988  29.2160012 134.2844997  46.4309988
  30.4540012 134.4294997  45.5719988  29.8739230 134.7618744  46.1285340
  35.0330012 133.0214997  46.2879988  35.6370012 133.5684997  45.7859988
  34.1630012 133.3404997  46.0479988  34.9981241 133.1395806  46.1867654
  36.7600012 134.1594997  44.6209988  37.3720012 133.6454997  44.0949988
  37.1420012 135.0374997  44.6449988  36.8954540 134.2077140  44.5521830
  22.2170012 133.5474997  43.9969988  21.4400012 133.3134997  43.4899988
  22.7470012 132.7504997  44.0059988  22.1822330 133.4076988  43.9287742
  21.0530012 133.3454997  39.8009988  21.4920012 133.9564997  39.2089988
  20.4200012 133.8834997  40.2749988  21.0274514 133.5019257  39.7840930
  26.7960012 133.4744997  43.8109988  27.6710012 133.8624997  43.7809988
  26.6600012 133.2594997  44.7329988  26.8973695 133.4985184  43.9316440
  32.3530012 133.5044997  45.4599988  32.4290012 133.5994997  44.5099988
  32.0780012 132.5964997  45.5889988  32.3262321 133.3947867  45.3475079
  33.7060012 133.5304997  41.1519988  33.0040012 134.1454997  40.9429988
  33.2620012 132.6924997  41.2829988  33.5496330 133.5015783  41.1410328
  22.9140012 135.2614997  38.2429988  23.4060012 134.6314997  37.7159988
  23.5380012 135.5574997  38.9069988  23.0655446 135.2153199  38.2605980
  27.9400012 135.5544997  40.6999988  28.1180012 134.9084997  41.3829988
  27.8870012 136.3884997  41.1679988  27.9571829 135.5787985  40.8565940
  22.1750012 134.0614997  53.5149988  21.8090012 133.2964997  53.9579988
  23.0880012 134.0904997  53.8019988  22.2482790 133.9607224  53.6144070
  24.1480012 133.4124997  55.0509988  25.0460012 133.1384997  54.8659988
  23.7610012 132.6694997  55.5149988  24.2186612 133.2745914  55.0883643
  32.5690012 132.7444997  55.2329988  32.6460012 132.3184997  56.0869988
  33.4630012 132.7584997  54.8899988  32.7003428 132.6880879  55.3035310
  50.1510012 142.7034997  43.9559988  50.2400012 143.6474997  43.8239988
  49.5130012 142.4284997  43.2979988  50.0769081 142.7954830  43.8489614
  49.0840012 141.9584997  47.3749988  49.0460012 141.3124997  48.0799988
  48.7620012 141.4924997  46.6039988  49.0352333 141.8069408  47.3672978
  41.4530012 141.5734997  48.9679988  41.4940012 140.9474997  49.6909988
  42.1560012 142.1974997  49.1499988  41.5536363 141.5721196  49.0916044
  52.7900012 144.8974997  45.6759988  52.3500012 144.1774997  46.1269988
  52.7770012 145.6184997  46.3059988  52.7280226 144.8963731  45.8228494
  38.9860012 139.6834997  42.8959988  38.5390012 140.5294997  42.8769988
  38.4250012 139.1034997  42.3799988  38.8489900 139.7209916  42.8236801
  39.6970012 141.8454997  45.0219988  39.9100012 141.0754997  45.5489988
  40.4350012 141.9344997  44.4179988  39.8258496 141.7521394  45.0125300
  47.4740012 144.3914997  47.7809988  47.7780012 143.7054997  47.1859988
  48.1950012 144.5094997  48.3989988  47.6130671 144.3136305  47.7831816
  56.1370012 135.9924997  48.6419988  56.1860012 136.6024997  49.3779988
  56.5620012 136.4534997  47.9189988  56.2011824 136.1383741  48.6450205
  50.6150012 138.7854997  48.1089988  50.7570012 137.8394997  48.1289988
  50.5080012 138.9924997  47.1799988  50.6199864 138.6839534  47.9862339
  43.7690012 136.8864997  45.3809988  43.8130012 137.7464997  44.9629988
  43.3120012 136.3344997  44.7469988  43.7132185 136.9295799  45.2380299
  51.4920012 137.0174997  43.7819988  52.1380012 136.6884997  44.4069988
  52.0020012 137.5354997  43.1589988  51.6494264 137.0424611  43.7833862
  40.3900012 139.2834997  46.1429988  41.0430012 138.7334997  46.5749988
  40.4140012 139.0094997  45.2259988  40.4826683 139.1711466  46.0782123
  45.5460012 140.8334997  45.3579988  46.1620012 140.3074997  45.8679988
  44.9600012 140.1934997  44.9549988  45.5510810 140.6749208  45.3733173
  56.5280012 137.4704997  50.8779988  55.8400012 138.1284997  50.7819988
  56.5440012 137.2734997  51.8139988  56.4358525 137.5340462  50.9914808
  42.5800012 135.8044997  49.4549988  42.3610012 136.3344997  48.6889988
  41.9120012 136.0314997  50.1019988  42.4597600 135.9076906  49.4376379
  45.1490012 143.4804997  49.7419988  44.4090012 144.0784997  49.8459988
  45.8630012 144.0344997  49.4269988  45.1442237 143.6372831  49.7136465
  53.2560012 136.3084997  45.7619988  53.0400012 135.5424997  46.2949988
  53.9110012 136.7804997  46.2749988  53.3150632 136.2675889  45.9042861
  42.1730012 137.6964997  47.4069988  42.7870012 138.3294997  47.7809988
  42.6850012 137.2244997  46.7509988  42.3262296 137.7192370  47.3694252
  53.6030012 135.0234997  49.4419988  52.8670012 135.6344997  49.4039988
  54.2860012 135.4384997  48.9149988  53.5946541 135.1631374  49.3655832
  46.6060012 133.1104997  46.9079988  46.4890012 132.1614997  46.8529988
  45.7510012 133.4424997  47.1809988  46.4743733 133.0255409  46.9373897
  54.4000012 144.9854997  51.6359988  54.5400012 144.3944997  50.8959988
  54.5670012 145.8584997  51.2789988  54.4416778 145.0226426  51.4866965
  48.8730012 141.9474997  41.4079988  48.1610012 142.4824997  41.0559988
  49.5640012 142.0034997  40.7479988  48.8690132 142.0282543  41.2706289
  48.9260012 140.4054997  38.4469988  49.6270012 140.4274997  39.0979988
  49.2290012 139.7774997  37.7909988  49.0627830 140.3236566  38.4473711
  56.2420012 141.3254997  49.7019988  55.5890012 142.0204997  49.7909988
  56.7070012 141.5354997  48.8919988  56.2155390 141.4489425  49.6046883
  52.2780012 142.1574997  42.3599988  51.5460012 142.3854997  42.9329988
  52.7260012 141.4434997  42.8149988  52.2383095 142.0922571  42.4999119
  52.1760012 140.3314997  51.4269988  52.2560012 141.0944997  51.9989988
  51.5740012 140.6104997  50.7369988  52.1055756 140.4737134  51.4120589
  43.9240012 142.7874997  44.2419988  43.5930012 142.4174997  43.4239988
  44.5120012 142.1174997  44.5889988  43.9581873 142.6461156  44.1768102
  44.2900012 141.5564997  47.8759988  44.8560012 141.6774997  47.1129988
  44.6090012 142.1934997  48.5149988  44.4105786 141.6591884  47.8580040
  51.1490012 141.3194997  40.0449988  51.7290012 141.4694997  40.7919988
  51.5630012 141.7904997  39.3219988  51.2842830 141.4036841  40.0494134
  42.0900012 142.1534997  51.8219988  42.1610012 142.8044997  52.5199988
  41.2000012 142.2564997  51.4869988  41.9793117 142.2565936  51.8722700
  54.8480012 133.0694997  39.8579988  53.9480012 133.2084997  40.1529988
  55.1000012 133.9004997  39.4559988  54.7588702 133.2009074  39.8440205
  42.9140012 141.8574997  41.8319988  42.6220012 142.6254997  41.3409988
  42.2400012 141.1974997  41.6689988  42.7829081 141.8734406  41.7427340
  39.0070012 144.2204997  50.6469988  38.5060012 144.1924997  49.8319988
  39.0120012 143.3144997  50.9559988  38.9391526 144.0942278  50.5772872
  54.1070012 139.1594997  53.6929988  53.7000012 139.6404997  52.9719988
  54.1480012 138.2544997  53.3849988  54.0568437 139.1029374  53.5526683
  43.8750012 134.0134997  47.6849988  43.0130012 133.9264997  47.2779988
  43.8520012 134.8694997  48.1129988  43.7540330 134.1172765  47.6871863
  48.5380012 133.7354997  51.0599988  48.9580012 133.3204997  51.8129988
  47.6050012 133.5574997  51.1769988  48.4693644 133.6545900  51.1789539
  51.8640012 137.4914997  51.9129988  51.3500012 137.3654997  52.7109988
  51.7090012 138.4034997  51.6689988  51.7726852 137.5976132  51.9892158
  52.6270012 142.3524997  37.6749988  52.6690012 142.1294997  36.7449988
  53.4760012 142.7514997  37.8649988  52.7475396 142.3759155  37.5733627
  48.1990012 136.2284997  38.3449988  47.9460012 136.2474997  39.2679988
  47.9430012 135.3564997  38.0439988  48.1297790 136.1132437  38.4306263
  43.9660012 138.9794997  48.7799988  43.3240012 138.9384997  49.4889988
  44.0030012 139.9054997  48.5429988  43.8831324 139.0991559  48.8449824
  43.9630012 139.2004997  43.6919988  43.0700012 138.8594997  43.6339988
  44.4130012 138.8234997  42.9369988  43.9017305 139.1028484  43.5819177
  49.4980012 139.6164997  42.5089988  49.0890012 140.4314997  42.2179988
  50.2190012 139.4764997  41.8949988  49.5394537 139.7092018  42.3861342
  48.6000012 139.7914997  53.9969988  48.0380012 139.0874997  54.3179988
  49.4270012 139.6714997  54.4649988  48.6347095 139.6787883  54.1042330
  50.5030012 139.0624997  45.3229988  50.3080012 139.6674997  44.6079988
  50.6840012 138.2284997  44.8889988  50.5007614 139.0326300  45.1664405
  41.7160012 139.2994997  50.6469988  41.6780012 139.6994997  51.5159988
  41.2250012 138.4824997  50.7379988  41.6444684 139.2438069  50.7781059
  45.0820012 136.6734997  37.4459988  44.6510012 136.2284997  38.1759988
  44.3640012 137.0454997  36.9339988  44.9259438 136.6628940  37.4766799
  38.3240012 136.4154997  44.4979988  38.9550012 136.3864997  45.2169988
  38.7730012 135.9904997  43.7679988  38.4710774 136.3540492  44.4976553
  39.5980012 137.1614997  39.9219988  40.0720012 137.7524997  39.3369988
  38.8810012 137.6924997  40.2689988  39.5659341 137.3140867  39.8888836
  49.7670012 140.7004997  49.9949988  50.0900012 140.0694997  49.3519988
  49.3270012 140.1654997  50.6549988  49.7516895 140.5418441  49.9962850
  46.5440012 136.6274997  44.7789988  45.6330012 136.6844997  45.0669988
  47.0500012 136.5674997  45.5889988  46.4875413 136.6271985  44.9280622
  41.3730012 138.2564997  43.6049988  40.4830012 138.3564997  43.2649988
  41.6690012 137.4144997  43.2589988  41.2912823 138.1563545  43.5117213
  45.0260012 138.2564997  41.2619988  45.9570012 138.3854997  41.4399988
  44.8110012 138.9264997  40.6119988  45.1244247 138.3646565  41.1985747
  50.9490012 135.8624997  48.0429988  50.2730012 135.9934997  48.7069988
  50.4640012 135.7074997  47.2329988  50.7907145 135.8594905  48.0244517
  43.7000012 139.4514997  38.8289988  43.1570012 139.0714997  38.1369988
  44.5330012 139.6454997  38.3999988  43.7384399 139.4258124  38.6764526
  41.8350012 144.0084997  53.9279988  42.5670012 144.2624997  54.4889988
  41.0550012 144.2124997  54.4429988  41.8298232 144.0709177  54.0745760
  47.8640012 139.4154997  46.6659988  48.4290012 138.8684997  46.1189988
  47.7170012 138.8934997  47.4539988  47.9212918 139.2702024  46.6978454
  42.8660012 135.5514997  43.0839988  42.5490012 134.6494997  43.0489988
  43.6480012 135.5534997  42.5309988  42.9282284 135.4281628  43.0044783
  46.4910012 137.8034997  49.0799988  45.6550012 138.2574997  49.1899988
  47.0150012 138.0794997  49.8319988  46.4474414 137.9029376  49.1967136
  47.0350012 144.0164997  40.7639988  46.2900012 143.5094997  40.4419988
  46.9010012 144.0654997  41.7109988  46.9148776 143.9536940  40.8478647
  54.1850012 143.1494997  49.5509988  54.8270012 143.6064997  49.0069988
  53.3550012 143.2624997  49.0879988  54.1605963 143.2272704  49.4140177
  50.9330012 136.8304997  38.9639988  49.9940012 136.9424997  38.8119988
  51.2300012 137.6874997  39.2699988  50.8447666 136.9616443  38.9845768
  48.5540012 144.2004997  52.0009988  48.2090012 143.8194997  52.8079988
  48.3540012 145.1344997  52.0729988  48.4798061 144.2745228  52.1210961
  51.6510012 138.6974997  40.6239988  52.5430012 138.5604997  40.9429988
  51.7080012 139.4884997  40.0879988  51.7806285 138.7856660  40.5951691
  42.1600012 143.3114997  46.5339988  42.9050012 143.3094997  45.9329988
  42.2380012 142.4884997  47.0159988  42.2725518 143.1999315  46.5168929
  39.1680012 141.7724997  51.8489988  39.3910012 141.3544997  52.6809988
  38.5660012 141.1594997  51.4259988  39.1171759 141.6324668  51.9057022
  46.1840012 141.2894997  54.0619988  45.8880012 141.1234997  53.1669988
  47.1160012 141.0694997  54.0509988  46.2694166 141.2370640  53.9380536
  56.5360012 138.9074997  40.3189988  55.9820012 138.5114997  39.6469988
  56.6360012 139.8174997  40.0409988  56.4737059 138.9763586  40.1894401
  56.4990012 144.7074997  53.1559988  55.6480012 144.9454997  52.7889988
  57.0900012 144.6904997  52.4029988  56.4622487 144.7378258  53.0038893
  51.9920012 142.5014997  47.8049988  51.0630012 142.2694997  47.7779988
  52.4430012 141.7244997  47.4749988  51.9259216 142.3647238  47.7566917
  40.2900012 141.6914997  38.5249988  40.9060012 142.3184997  38.9049988
  39.4280012 142.0074997  38.7969988  40.2577698 141.8199430  38.6137183
  45.9620012 144.4924997  43.5149988  45.7210012 145.4174997  43.5559988
  45.2210012 144.0334997  43.9109988  45.8288409 144.5571421  43.5741377
  50.0210012 144.7404997  49.5299988  49.5950012 144.5134997  50.3569988
  50.6010012 144.0024997  49.3479988  50.0411868 144.6095299  49.6185830
  40.8020012 136.5254997  51.4069988  39.9090012 136.8644997  51.3389988
  40.7030012 135.6704997  51.8249988  40.6664164 136.4562588  51.4542235
  53.0900012 144.3424997  40.8309988  52.8120012 143.6144997  41.3869988
  54.0170012 144.4614997  41.0359988  53.1773124 144.2588802  40.9348845
  41.7050012 143.6044997  40.0179988  41.0190012 143.9564997  40.5849988
  42.2270012 144.3674997  39.7709988  41.6816852 143.7558578  40.0622118
  49.5360012 136.2664997  50.2969988  50.2350012 136.3404997  50.9469988
  49.1550012 135.4024997  50.4509988  49.5801767 136.1597624  50.4068322
  50.3210012 135.9184997  41.3939988  50.5410012 136.3904997  40.5909988
  50.8790012 136.3134997  42.0639988  50.4264968 136.0364285  41.3747331
  47.5210012 137.6464997  42.2289988  48.3330012 138.1514997  42.2749988
  47.2760012 137.5014997  43.1429988  47.5990520 137.6960375  42.3588517
  48.0560012 138.6324997  51.4139988  48.1750012 139.2064997  52.1709988
  48.7120012 137.9444997  51.5279988  48.1609757 138.6181079  51.5330825
  48.4040012 134.7274997  43.1669988  48.0580012 135.3454997  43.8119988
  49.0630012 135.2284997  42.6859988  48.4457826 134.8795802  43.1900971
  44.0620012 135.7904997  39.8539988  43.9790012 136.6794997  40.2009988
  44.9520012 135.5254997  40.0859988  44.1709469 135.8761430  39.9327626
  54.2610012 136.5394997  52.2489988  53.3440012 136.8024997  52.1609988
  54.5960012 136.5364997  51.3519988  54.1809900 136.5750224  52.1157919
  52.8630012 140.2904997  46.3439988  52.0650012 139.8754997  46.0159988
  53.3080012 139.5994997  46.8349988  52.8139885 140.1403543  46.3654889
  40.6370012 138.8824997  38.0309988  40.5920012 139.8214997  38.2089988
  39.7490012 138.6464997  37.7609988  40.5108574 138.9791892  38.0188912
  41.4450012 133.6644997  46.7039988  41.2160012 133.7234997  45.7759988
  41.0020012 132.8724997  47.0099988  41.3538530 133.5655753  46.6184786
  39.5700012 144.0274997  55.1489988  39.7140012 143.1254997  54.8619988
  38.7980012 144.3134997  54.6609988  39.4853323 143.9428261  55.0437881
  43.9120012 144.3714997  37.2809988  43.9760012 143.5774997  37.8119988
  44.5650012 144.2524997  36.5909988  44.0090241 144.2467148  37.2604317
  46.2260012 143.9974997  54.5809988  45.8970012 144.2684997  53.7239988
  46.3780012 143.0564997  54.4939988  46.2014809 143.9073862  54.4518244
  51.9600012 143.9134997  51.9649988  52.7060012 144.5014997  51.8449988
  51.2030012 144.4954997  52.0279988  51.9597554 144.0727011  51.9570907
  40.4030012 141.2274997  54.5689988  40.8110012 140.3704997  54.4479988
  40.1430012 141.2424997  55.4899988  40.4237568 141.1120807  54.6769588
  45.0610012 142.3434997  39.5869988  44.6010012 141.8594997  40.2729988
  45.3160012 141.6754997  38.9509988  45.0324902 142.1868731  39.5949334
  44.3500012 140.2364997  51.9429988  43.7320012 140.9114997  52.2229988
  44.6940012 140.5574997  51.1099988  44.3119615 140.3722721  51.8686581
  46.1320012 140.5864997  37.8489988  45.9520012 140.4324997  36.9219988
  47.0820012 140.6944997  37.8939988  46.2357776 140.5800175  37.7281843
  49.3700012 142.7084997  55.2199988  50.3230012 142.7914997  55.1929988
  49.2090012 141.9964997  55.8399988  49.4786426 142.6236746  55.3000579
  55.5220012 142.9414997  37.2949988  55.2480012 142.5164997  36.4819988
  55.5610012 143.8724997  37.0779988  55.4897699 143.0092484  37.1543610
  44.6890012 137.5914997  53.0249988  44.8390012 136.8624997  52.4229988
  44.6920012 138.3684997  52.4659988  44.7099302 137.5967851  52.8670692
  45.1020012 135.9614997  50.5179988  45.6380012 136.4124997  49.8659988
  44.2500012 135.8534997  50.0949988  45.0602178 136.0086390  50.3715756
  46.6840012 141.4004997  50.7569988  47.4340012 141.2444997  50.1839988
  46.3450012 142.2524997  50.4819988  46.7408921 141.4942968  50.6413561
  51.0990012 139.2154997  55.7859988  51.2920012 138.2844997  55.6739988
  51.9570012 139.6404997  55.7759988  51.2413020 139.1456389  55.7693361
  52.4160012 142.0044997  53.8629988  52.1350012 142.7134997  53.2859988
  53.3590012 141.9314997  53.7119988  52.5049027 142.0917646  53.7635551
  43.1680012 138.7894997  54.9369988  42.4010012 138.2574997  54.7269988
  43.8470012 138.4794997  54.3369988  43.1547022 138.6747506  54.8271648
  45.9080012 133.4174997  50.9489988  45.8090012 134.3644997  50.8439988
  45.1650012 133.0454997  50.4739988  45.7940564 133.4965902  50.8704560
  47.1720012 137.7394997  54.5129988  46.9360012 137.5194997  55.4149988
  46.3880012 137.5324997  54.0029988  47.0338628 137.6814760  54.5673932
  49.8870012 136.8664997  53.5889988  48.9400012 136.8984997  53.7209988
  50.2000012 136.2414997  54.2419988  49.7995475 136.7863207  53.6954455
  51.5210012 135.5004997  55.5939988  51.4250012 134.5484997  55.5879988
  51.2000012 135.7694997  56.4539988  51.4644070 135.4064035  55.7095441
  41.3480012 136.7104997  54.6409988  41.5600012 136.0034997  54.0309988
  41.2370012 136.2724997  55.4849988  41.3619721 136.5547084  54.6716843
  46.1290012 132.7114997  53.6209988  46.8410012 132.0714997  53.6069988
  46.0280012 132.9784997  52.7069988  46.2127939 132.6599938  53.4955650
  46.4830012 134.3944997  55.6739988  46.3510012 133.9184997  54.8539988
  45.8840012 135.1384997  55.6189988  46.3839071 134.4299618  55.5542886
  55.9800012 143.8104997  41.2699988  56.8300012 144.2314997  41.3969988
  55.9860012 143.0704997  41.8769988  56.0971372 143.7680803  41.3694344
  56.3750012 141.8634997  43.0939988  55.6480012 141.3844997  43.4909988
  56.9560012 142.0694997  43.8259988  56.3539375 141.8257090  43.2474129
  56.1340012 144.6484997  48.0409988  56.9670012 144.2704997  47.7609988
  56.2460012 145.5914997  47.9219988  56.2632647 144.7242218  47.9865487
  56.6430012 141.7644997  39.4849988  56.1210012 142.1214997  38.7659988
  56.6100012 142.4394997  40.1629988  56.5671634 141.9045413  39.4783145
  54.9920012 139.0044997  38.0359988  55.0880012 139.6714997  37.3549988
  54.8520012 138.1884997  37.5539988  54.9862135 138.9854500  37.8778491
  54.1610012 140.3844997  43.6569988  54.0110012 139.4394997  43.6359988
  53.8080012 140.6654997  44.4999988  54.0926625 140.2930441  43.7682346
  39.1970012 142.4624997  47.6669988  39.3810012 142.3804997  46.7309988
  40.0460012 142.3384997  48.0909988  39.3370139 142.4345003  47.5961455
  55.0180012 142.3544997  53.2949988  55.6010012 141.6204997  53.4869988
  55.5820012 143.1264997  53.3419988  55.1739769 142.3584227  53.3276159
  56.5140012 140.2574997  53.9799988  55.6510012 139.8784997  53.8139988
  57.1190012 139.5184997  53.9059988  56.4775979 140.1058023  53.9472817
  54.2390012 136.4124997  37.1529988  54.8500012 136.0414997  37.7899988
  53.4030012 135.9914997  37.3489988  54.2095032 136.3047554  37.2667035
  53.8720012 137.9674997  42.1189988  54.1520012 137.0604997  42.2429988
  54.6310012 138.4014997  41.7299988  54.0129277 137.9020942  42.0833682
  54.4840012 138.5484997  47.5549988  55.4170012 138.7604997  47.5209988
  54.2490012 138.6504997  48.4769988  54.5798036 138.5912769  47.6749976
  54.5130012 139.2854997  50.3309988  53.6700012 139.5534997  50.6969988
  54.9550012 140.1074997  50.1199988  54.4574158 139.4333291  50.3525491
  38.7940012 137.7334997  53.8079988  39.7140012 137.6114997  54.0439988
  38.3450012 136.9834997  54.1969988  38.8591580 137.6153727  53.8929006
  56.7960012 133.2654997  55.6839988  57.1460012 132.6114997  55.0789988
  56.9430012 134.1024997  55.2449988  56.8638419 133.2891591  55.5417118
  54.4850012 135.2304997  42.1669988  54.6680012 134.7814997  42.9929988
  53.8860012 134.6454997  41.7039988  54.4290202 135.0899975  42.2173275
  40.0150012 136.0454997  46.6989988  40.4610012 135.2534997  47.0009988
  40.4820012 136.7614997  47.1299988  40.1390172 136.0340624  46.7984820
  38.3190012 139.0444997  47.7679988  38.8110012 138.8234997  46.9769988
  38.6820012 139.8854997  48.0489988  38.4353126 139.1278357  47.6977531
  56.3160012 135.3744997  54.0339988  55.3980012 135.6454997  53.9979988
  56.4390012 134.8394997  53.2489988  56.2071066 135.3392892  53.9230487
  56.3520012 135.2974997  38.6949988  56.7640012 134.5764997  38.2199988
  57.0340012 135.9674997  38.7539988  56.5005885 135.2892368  38.6378915
  38.6330012 135.3024997  41.8219988  37.7080012 135.5114997  41.6929988
  39.0870012 135.7864997  41.1329988  38.5677368 135.3965993  41.7111226
  38.5970012 134.0404997  50.1669988  37.9320012 133.7944997  50.8099988
  38.1540012 134.6624997  49.5889988  38.4460956 134.0908632  50.1769352
  55.3160012 133.4644997  51.8529988  54.5040012 133.7894997  51.4649988
  55.5490012 132.7044997  51.3199988  55.2363423 133.4062436  51.7278253
  48.7460012 134.9134997  46.1749988  48.0720012 134.2844997  46.4309988
  49.3100012 134.4294997  45.5719988  48.7299230 134.7618744  46.1285340
  53.8890012 133.0214997  46.2879988  54.4930012 133.5684997  45.7859988
  53.0190012 133.3404997  46.0479988  53.8541241 133.1395806  46.1867654
  55.6160012 134.1594997  44.6209988  56.2280012 133.6454997  44.0949988
  55.9980012 135.0374997  44.6449988  55.7514540 134.2077140  44.5521830
  41.0730012 133.5474997  43.9969988  40.2960012 133.3134997  43.4899988
  41.6030012 132.7504997  44.0059988  41.0382330 133.4076988  43.9287742
  39.9090012 133.3454997  39.8009988  40.3480012 133.9564997  39.2089988
  39.2760012 133.8834997  40.2749988  39.8834514 133.5019257  39.7840930
  45.6520012 133.4744997  43.8109988  46.5270012 133.8624997  43.7809988
  45.5160012 133.2594997  44.7329988  45.7533695 133.4985184  43.9316440
  51.2090012 133.5044997  45.4599988  51.2850012 133.5994997  44.5099988
  50.9340012 132.5964997  45.5889988  51.1822321 133.3947867  45.3475079
  52.5620012 133.5304997  41.1519988  51.8600012 134.1454997  40.9429988
  52.1180012 132.6924997  41.2829988  52.4056330 133.5015783  41.1410328
  41.7700012 135.2614997  38.2429988  42.2620012 134.6314997  37.7159988
  42.3940012 135.5574997  38.9069988  41.9215446 135.2153199  38.2605980
  46.7960012 135.5544997  40.6999988  46.9740012 134.9084997  41.3829988
  46.7430012 136.3884997  41.1679988  46.8131829 135.5787985  40.8565940
  41.0310012 134.0614997  53.5149988  40.6650012 133.2964997  53.9579988
  41.9440012 134.0904997  53.8019988  41.1042790 133.9607224  53.6144070
  43.0040012 133.4124997  55.0509988  43.9020012 133.1384997  54.8659988
  42.6170012 132.6694997  55.5149988  43.0746612 133.2745914  55.0883643
  51.4250012 132.7444997  55.2329988  51.5020012 132.3184997  56.0869988
  52.3190012 132.7584997  54.8899988  51.5563428 132.6880879  55.3035310
  69.0070012 142.7034997  43.9559988  69.0960012 143.6474997  43.8239988
  68.3690012 142.4284997  43.2979988  68.9329081 142.7954830  43.8489614
  67.9400012 141.9584997  47.3749988  67.9020012 141.3124997  48.0799988
  67.6180012 141.4924997  46.6039988  67.8912333 141.8069408  47.3672978
  60.3090012 141.5734997  48.9679988  60.3500012 140.9474997  49.6909988
  61.0120012 142.1974997  49.1499988  60.4096363 141.5721196  49.0916044
  71.6460012 144.8974997  45.6759988  71.2060012 144.1774997  46.1269988
  71.6330012 145.6184997  46.3059988  71.5840226 144.8963731  45.8228494
  57.8420012 139.6834997  42.8959988  57.3950012 140.5294997  42.8769988
  57.2810012 139.1034997  42.3799988  57.7049900 139.7209916  42.8236801
  58.5530012 141.8454997  45.0219988  58.7660012 141.0754997  45.5489988
  59.2910012 141.9344997  44.4179988  58.6818496 141.7521394  45.0125300
  66.3300012 144.3914997  47.7809988  66.6340012 143.7054997  47.1859988
  67.0510012 144.5094997  48.3989988  66.4690671 144.3136305  47.7831816
  74.9930012 135.9924997  48.6419988  75.0420012 136.6024997  49.3779988
  75.4180012 136.4534997  47.9189988  75.0571824 136.1383741  48.6450205
  69.4710012 138.7854997  48.1089988  69.6130012 137.8394997  48.1289988
  69.3640012 138.9924997  47.1799988  69.4759864 138.6839534  47.9862339
  62.6250012 136.8864997  45.3809988  62.6690012 137.7464997  44.9629988
  62.1680012 136.3344997  44.7469988  62.5692185 136.9295799  45.2380299
  70.3480012 137.0174997  43.7819988  70.9940012 136.6884997  44.4069988
  70.8580012 137.5354997  43.1589988  70.5054264 137.0424611  43.7833862
  59.2460012 139.2834997  46.1429988  59.8990012 138.7334997  46.5749988
  59.2700012 139.0094997  45.2259988  59.3386683 139.1711466  46.0782123
  64.4020012 140.8334997  45.3579988  65.0180012 140.3074997  45.8679988
  63.8160012 140.1934997  44.9549988  64.4070810 140.6749208  45.3733173
  75.3840012 137.4704997  50.8779988  74.6960012 138.1284997  50.7819988
  75.4000012 137.2734997  51.8139988  75.2918525 137.5340462  50.9914808
  61.4360012 135.8044997  49.4549988  61.2170012 136.3344997  48.6889988
  60.7680012 136.0314997  50.1019988  61.3157600 135.9076906  49.4376379
  64.0050012 143.4804997  49.7419988  63.2650012 144.0784997  49.8459988
  64.7190012 144.0344997  49.4269988  64.0002237 143.6372831  49.7136465
  72.1120012 136.3084997  45.7619988  71.8960012 135.5424997  46.2949988
  72.7670012 136.7804997  46.2749988  72.1710632 136.2675889  45.9042861
  61.0290012 137.6964997  47.4069988  61.6430012 138.3294997  47.7809988
  61.5410012 137.2244997  46.7509988  61.1822296 137.7192370  47.3694252
  72.4590012 135.0234997  49.4419988  71.7230012 135.6344997  49.4039988
  73.1420012 135.4384997  48.9149988  72.4506541 135.1631374  49.3655832
  65.4620012 133.1104997  46.9079988  65.3450012 132.1614997  46.8529988
  64.6070012 133.4424997  47.1809988  65.3303733 133.0255409  46.9373897
  73.2560012 144.9854997  51.6359988  73.3960012 144.3944997  50.8959988
  73.4230012 145.8584997  51.2789988  73.2976778 145.0226426  51.4866965
  67.7290012 141.9474997  41.4079988  67.0170012 142.4824997  41.0559988
  68.4200012 142.0034997  40.7479988  67.7250132 142.0282543  41.2706289
  67.7820012 140.4054997  38.4469988  68.4830012 140.4274997  39.0979988
  68.0850012 139.7774997  37.7909988  67.9187830 140.3236566  38.4473711
  75.0980012 141.3254997  49.7019988  74.4450012 142.0204997  49.7909988
  75.5630012 141.5354997  48.8919988  75.0715390 141.4489425  49.6046883
  71.1340012 142.1574997  42.3599988  70.4020012 142.3854997  42.9329988
  71.5820012 141.4434997  42.8149988  71.0943095 142.0922571  42.4999119
  71.0320012 140.3314997  51.4269988  71.1120012 141.0944997  51.9989988
  70.4300012 140.6104997  50.7369988  70.9615756 140.4737134  51.4120589
  62.7800012 142.7874997  44.2419988  62.4490012 142.4174997  43.4239988
  63.3680012 142.1174997  44.5889988  62.8141873 142.6461156  44.1768102
  63.1460012 141.5564997  47.8759988  63.7120012 141.6774997  47.1129988
  63.4650012 142.1934997  48.5149988  63.2665786 141.6591884  47.8580040
  70.0050012 141.3194997  40.0449988  70.5850012 141.4694997  40.7919988
  70.4190012 141.7904997  39.3219988  70.1402830 141.4036841  40.0494134
  60.9460012 142.1534997  51.8219988  61.0170012 142.8044997  52.5199988
  60.0560012 142.2564997  51.4869988  60.8353117 142.2565936  51.8722700
  73.7040012 133.0694997  39.8579988  72.8040012 133.2084997  40.1529988
  73.9560012 133.9004997  39.4559988  73.6148702 133.2009074  39.8440205
  61.7700012 141.8574997  41.8319988  61.4780012 142.6254997  41.3409988
  61.0960012 141.1974997  41.6689988  61.6389081 141.8734406  41.7427340
  57.8630012 144.2204997  50.6469988  57.3620012 144.1924997  49.8319988
  57.8680012 143.3144997  50.9559988  57.7951526 144.0942278  50.5772872
  72.9630012 139.1594997  53.6929988  72.5560012 139.6404997  52.9719988
  73.0040012 138.2544997  53.3849988  72.9128437 139.1029374  53.5526683
  62.7310012 134.0134997  47.6849988  61.8690012 133.9264997  47.2779988
  62.7080012 134.8694997  48.1129988  62.6100330 134.1172765  47.6871863
  67.3940012 133.7354997  51.0599988  67.8140012 133.3204997  51.8129988
  66.4610012 133.5574997  51.1769988  67.3253644 133.6545900  51.1789539
  70.7200012 137.4914997  51.9129988  70.2060012 137.3654997  52.7109988
  70.5650012 138.4034997  51.6689988  70.6286852 137.5976132  51.9892158
  71.4830012 142.3524997  37.6749988  71.5250012 142.1294997  36.7449988
  72.3320012 142.7514997  37.8649988  71.6035396 142.3759155  37.5733627
  67.0550012 136.2284997  38.3449988  66.8020012 136.2474997  39.2679988
  66.7990012 135.3564997  38.0439988  66.9857790 136.1132437  38.4306263
  62.8220012 138.9794997  48.7799988  62.1800012 138.9384997  49.4889988
  62.8590012 139.9054997  48.5429988  62.7391324 139.0991559  48.8449824
  62.8190012 139.2004997  43.6919988  61.9260012 138.8594997  43.6339988
  63.2690012 138.8234997  42.9369988  62.7577305 139.1028484  43.5819177
  68.3540012 139.6164997  42.5089988  67.9450012 140.4314997  42.2179988
  69.0750012 139.4764997  41.8949988  68.3954537 139.7092018  42.3861342
  67.4560012 139.7914997  53.9969988  66.8940012 139.0874997  54.3179988
  68.2830012 139.6714997  54.4649988  67.4907095 139.6787883  54.1042330
  69.3590012 139.0624997  45.3229988  69.1640012 139.6674997  44.6079988
  69.5400012 138.2284997  44.8889988  69.3567614 139.0326300  45.1664405
  60.5720012 139.2994997  50.6469988  60.5340012 139.6994997  51.5159988
  60.0810012 138.4824997  50.7379988  60.5004684 139.2438069  50.7781059
  63.9380012 136.6734997  37.4459988  63.5070012 136.2284997  38.1759988
  63.2200012 137.0454997  36.9339988  63.7819438 136.6628940  37.4766799
  57.1800012 136.4154997  44.4979988  57.8110012 136.3864997  45.2169988
  57.6290012 135.9904997  43.7679988  57.3270774 136.3540492  44.4976553
  58.4540012 137.1614997  39.9219988  58.9280012 137.7524997  39.3369988
  57.7370012 137.6924997  40.2689988  58.4219341 137.3140867  39.8888836
  68.6230012 140.7004997  49.9949988  68.9460012 140.0694997  49.3519988
  68.1830012 140.1654997  50.6549988  68.6076895 140.5418441  49.9962850
  65.4000012 136.6274997  44.7789988  64.4890012 136.6844997  45.0669988
  65.9060012 136.5674997  45.5889988  65.3435413 136.6271985  44.9280622
  60.2290012 138.2564997  43.6049988  59.3390012 138.3564997  43.2649988
  60.5250012 137.4144997  43.2589988  60.1472823 138.1563545  43.5117213
  63.8820012 138.2564997  41.2619988  64.8130012 138.3854997  41.4399988
  63.6670012 138.9264997  40.6119988  63.9804247 138.3646565  41.1985747
  69.8050012 135.8624997  48.0429988  69.1290012 135.9934997  48.7069988
  69.3200012 135.7074997  47.2329988  69.6467145 135.8594905  48.0244517
  62.5560012 139.4514997  38.8289988  62.0130012 139.0714997  38.1369988
  63.3890012 139.6454997  38.3999988  62.5944399 139.4258124  38.6764526
  60.6910012 144.0084997  53.9279988  61.4230012 144.2624997  54.4889988
  59.9110012 144.2124997  54.4429988  60.6858232 144.0709177  54.0745760
  66.7200012 139.4154997  46.6659988  67.2850012 138.8684997  46.1189988
  66.5730012 138.8934997  47.4539988  66.7772918 139.2702024  46.6978454
  61.7220012 135.5514997  43.0839988  61.4050012 134.6494997  43.0489988
  62.5040012 135.5534997  42.5309988  61.7842284 135.4281628  43.0044783
  65.3470012 137.8034997  49.0799988  64.5110012 138.2574997  49.1899988
  65.8710012 138.0794997  49.8319988  65.3034414 137.9029376  49.1967136
  65.8910012 144.0164997  40.7639988  65.1460012 143.5094997  40.4419988
  65.7570012 144.0654997  41.7109988  65.7708776 143.9536940  40.8478647
  73.0410012 143.1494997  49.5509988  73.6830012 143.6064997  49.0069988
  72.2110012 143.2624997  49.0879988  73.0165963 143.2272704  49.4140177
  69.7890012 136.8304997  38.9639988  68.8500012 136.9424997  38.8119988
  70.0860012 137.6874997  39.2699988  69.7007666 136.9616443  38.9845768
  67.4100012 144.2004997  52.0009988  67.0650012 143.8194997  52.8079988
  67.2100012 145.1344997  52.0729988  67.3358061 144.2745228  52.1210961
  70.5070012 138.6974997  40.6239988  71.3990012 138.5604997  40.9429988
  70.5640012 139.4884997  40.0879988  70.6366285 138.7856660  40.5951690
  61.0160012 143.3114997  46.5339988  61.7610012 143.3094997  45.9329988
  61.0940012 142.4884997  47.0159988  61.1285518 143.1999315  46.5168929
  58.0240012 141.7724997  51.8489988  58.2470012 141.3544997  52.6809988
  57.4220012 141.1594997  51.4259988  57.9731759 141.6324668  51.9057022
  65.0400012 141.2894997  54.0619988  64.7440012 141.1234997  53.1669988
  65.9720012 141.0694997  54.0509988  65.1254166 141.2370640  53.9380536
  75.3920012 138.9074997  40.3189988  74.8380012 138.5114997  39.6469988
  75.4920012 139.8174997  40.0409988  75.3297059 138.9763586  40.1894401
  75.3550012 144.7074997  53.1559988  74.5040012 144.9454997  52.7889988
  75.9460012 144.6904997  52.4029988  75.3182487 144.7378258  53.0038893
  70.8480012 142.5014997  47.8049988  69.9190012 142.2694997  47.7779988
  71.2990012 141.7244997  47.4749988  70.7819216 142.3647238  47.7566917
  59.1460012 141.6914997  38.5249988  59.7620012 142.3184997  38.9049988
  58.2840012 142.0074997  38.7969988  59.1137698 141.8199430  38.6137183
  64.8180012 144.4924997  43.5149988  64.5770012 145.4174997  43.5559988
  64.0770012 144.0334997  43.9109988  64.6848409 144.5571421  43.5741377
  68.8770012 144.7404997  49.5299988  68.4510012 144.5134997  50.3569988
  69.4570012 144.0024997  49.3479988  68.8971868 144.6095299  49.6185830
  59.6580012 136.5254997  51.4069988  58.7650012 136.8644997  51.3389988
  59.5590012 135.6704997  51.8249988  59.5224164 136.4562588  51.4542235
  71.9460012 144.3424997  40.8309988  71.6680012 143.6144997  41.3869988
  72.8730012 144.4614997  41.0359988  72.0333124 144.2588802  40.9348845
  60.5610012 143.6044997  40.0179988  59.8750012 143.9564997  40.5849988
  61.0830012 144.3674997  39.7709988  60.5376852 143.7558578  40.0622118
  68.3920012 136.2664997  50.2969988  69.0910012 136.3404997  50.9469988
  68.0110012 135.4024997  50.4509988  68.4361767 136.1597624  50.4068322
  69.1770012 135.9184997  41.3939988  69.3970012 136.3904997  40.5909988
  69.7350012 136.3134997  42.0639988  69.2824968 136.0364285  41.3747331
  66.3770012 137.6464997  42.2289988  67.1890012 138.1514997  42.2749988
  66.1320012 137.5014997  43.1429988  66.4550520 137.6960375  42.3588517
  66.9120012 138.6324997  51.4139988  67.0310012 139.2064997  52.1709988
  67.5680012 137.9444997  51.5279988  67.0169757 138.6181079  51.5330825
  67.2600012 134.7274997  43.1669988  66.9140012 135.3454997  43.8119988
  67.9190012 135.2284997  42.6859988  67.3017826 134.8795802  43.1900971
  62.9180012 135.7904997  39.8539988  62.8350012 136.6794997  40.2009988
  63.8080012 135.5254997  40.0859988  63.0269469 135.8761430  39.9327626
  73.1170012 136.5394997  52.2489988  72.2000012 136.8024997  52.1609988
  73.4520012 136.5364997  51.3519988  73.0369900 136.5750224  52.1157919
  71.7190012 140.2904997  46.3439988  70.9210012 139.8754997  46.0159988
  72.1640012 139.5994997  46.8349988  71.6699885 140.1403543  46.3654889
  59.4930012 138.8824997  38.0309988  59.4480012 139.8214997  38.2089988
  58.6050012 138.6464997  37.7609988  59.3668574 138.9791892  38.0188912
  60.3010012 133.6644997  46.7039988  60.0720012 133.7234997  45.7759988
  59.8580012 132.8724997  47.0099988  60.2098530 133.5655753  46.6184786
  58.4260012 144.0274997  55.1489988  58.5700012 143.1254997  54.8619988
  57.6540012 144.3134997  54.6609988  58.3413323 143.9428261  55.0437881
  62.7680012 144.3714997  37.2809988  62.8320012 143.5774997  37.8119988
  63.4210012 144.2524997  36.5909988  62.8650241 144.2467148  37.2604317
  65.0820012 143.9974997  54.5809988  64.7530012 144.2684997  53.7239988
  65.2340012 143.0564997  54.4939988  65.0574809 143.9073862  54.4518244
  70.8160012 143.9134997  51.9649988  71.5620012 144.5014997  51.8449988
  70.0590012 144.4954997  52.0279988  70.8157554 144.0727011  51.9570907
  59.2590012 141.2274997  54.5689988  59.6670012 140.3704997  54.4479988
  58.9990012 141.2424997  55.4899988  59.2797568 141.1120807  54.6769588
  63.9170012 142.3434997  39.5869988  63.4570012 141.8594997  40.2729988
  64.1720012 141.6754997  38.9509988  63.8884902 142.1868731  39.5949334
  63.2060012 140.2364997  51.9429988  62.5880012 140.9114997  52.2229988
  63.5500012 140.5574997  51.1099988  63.1679615 140.3722721  51.8686581
  64.9880012 140.5864997  37.8489988  64.8080012 140.4324997  36.9219988
  65.9380012 140.6944997  37.8939988  65.0917776 140.5800175  37.7281843
  68.2260012 142.7084997  55.2199988  69.1790012 142.7914997  55.1929988
  68.0650012 141.9964997  55.8399988  68.3346426 142.6236746  55.3000579
  74.3780012 142.9414997  37.2949988  74.1040012 142.5164997  36.4819988
  74.4170012 143.8724997  37.0779988  74.3457699 143.0092484  37.1543610
  63.5450012 137.5914997  53.0249988  63.6950012 136.8624997  52.4229988
  63.5480012 138.3684997  52.4659988  63.5659302 137.5967851  52.8670692
  63.9580012 135.9614997  50.5179988  64.4940012 136.4124997  49.8659988
  63.1060012 135.8534997  50.0949988  63.9162178 136.0086390  50.3715756
  65.5400012 141.4004997  50.7569988  66.2900012 141.2444997  50.1839988
  65.2010012 142.2524997  50.4819988  65.5968921 141.4942968  50.6413561
  69.9550012 139.2154997  55.7859988  70.1480012 138.2844997  55.6739988
  70.8130012 139.6404997  55.7759988  70.0973020 139.1456389  55.7693361
  71.2720012 142.0044997  53.8629988  70.9910012 142.7134997  53.2859988
  72.2150012 141.9314997  53.7119988  71.3609027 142.0917646  53.7635551
  62.0240012 138.7894997  54.9369988  61.2570012 138.2574997  54.7269988
  62.7030012 138.4794997  54.3369988  62.0107022 138.6747506  54.8271648
  64.7640012 133.4174997  50.9489988  64.6650012 134.3644997  50.8439988
  64.0210012 133.0454997  50.4739988  64.6500564 133.4965902  50.8704560
  66.0280012 137.7394997  54.5129988  65.7920012 137.5194997  55.4149988
  65.2440012 137.5324997  54.0029988  65.8898628 137.6814760  54.5673932
  68.7430012 136.8664997  53.5889988  67.7960012 136.8984997  53.7209988
  69.0560012 136.2414997  54.2419988  68.6555475 136.7863207  53.6954455
  70.3770012 135.5004997  55.5939988  70.2810012 134.5484997  55.5879988
  70.0560012 135.7694997  56.4539988  70.3204070 135.4064035  55.7095441
  60.2040012 136.7104997  54.6409988  60.4160012 136.0034997  54.0309988
  60.0930012 136.2724997  55.4849988  60.2179721 136.5547084  54.6716843
  64.9850012 132.7114997  53.6209988  65.6970012 132.0714997  53.6069988
  64.8840012 132.9784997  52.7069988  65.0687939 132.6599938  53.4955650
  65.3390012 134.3944997  55.6739988  65.2070012 133.9184997  54.8539988
  64.7400012 135.1384997  55.6189988  65.2399071 134.4299618  55.5542886
  74.8360012 143.8104997  41.2699988  75.6860012 144.2314997  41.3969988
  74.8420012 143.0704997  41.8769988  74.9531372 143.7680803  41.3694344
  75.2310012 141.8634997  43.0939988  74.5040012 141.3844997  43.4909988
  75.8120012 142.0694997  43.8259988  75.2099375 141.8257090  43.2474129
  74.9900012 144.6484997  48.0409988  75.8230012 144.2704997  47.7609988
  75.1020012 145.5914997  47.9219988  75.1192647 144.7242218  47.9865487
  75.4990012 141.7644997  39.4849988  74.9770012 142.1214997  38.7659988
  75.4660012 142.4394997  40.1629988  75.4231634 141.9045413  39.4783145
  73.8480012 139.0044997  38.0359988  73.9440012 139.6714997  37.3549988
  73.7080012 138.1884997  37.5539988  73.8422135 138.9854500  37.8778491
  73.0170012 140.3844997  43.6569988  72.8670012 139.4394997  43.6359988
  72.6640012 140.6654997  44.4999988  72.9486625 140.2930441  43.7682346
  58.0530012 142.4624997  47.6669988  58.2370012 142.3804997  46.7309988
  58.9020012 142.3384997  48.0909988  58.1930139 142.4345003  47.5961455
  73.8740012 142.3544997  53.2949988  74.4570012 141.6204997  53.4869988
  74.4380012 143.1264997  53.3419988  74.0299769 142.3584227  53.3276159
  75.3700012 140.2574997  53.9799988  74.5070012 139.8784997  53.8139988
  75.9750012 139.5184997  53.9059988  75.3335979 140.1058023  53.9472817
  73.0950012 136.4124997  37.1529988  73.7060012 136.0414997  37.7899988
  72.2590012 135.9914997  37.3489988  73.0655032 136.3047554  37.2667035
  72.7280012 137.9674997  42.1189988  73.0080012 137.0604997  42.2429988
  73.4870012 138.4014997  41.7299988  72.8689277 137.9020942  42.0833682
  73.3400012 138.5484997  47.5549988  74.2730012 138.7604997  47.5209988
  73.1050012 138.6504997  48.4769988  73.4358036 138.5912769  47.6749976
  73.3690012 139.2854997  50.3309988  72.5260012 139.5534997  50.6969988
  73.8110012 140.1074997  50.1199988  73.3134158 139.4333291  50.3525491
  57.6500012 137.7334997  53.8079988  58.5700012 137.6114997  54.0439988
  57.2010012 136.9834997  54.1969988  57.7151580 137.6153727  53.8929006
  75.6520012 133.2654997  55.6839988  76.0020012 132.6114997  55.0789988
  75.7990012 134.1024997  55.2449988  75.7198419 133.2891591  55.5417118
  73.3410012 135.2304997  42.1669988  73.5240012 134.7814997  42.9929988
  72.7420012 134.6454997  41.7039988  73.2850202 135.0899975  42.2173275
  58.8710012 136.0454997  46.6989988  59.3170012 135.2534997  47.0009988
  59.3380012 136.7614997  47.1299988  58.9950172 136.0340624  46.7984820
  57.1750012 139.0444997  47.7679988  57.6670012 138.8234997  46.9769988
  57.5380012 139.8854997  48.0489988  57.2913126 139.1278357  47.6977531
  75.1720012 135.3744997  54.0339988  74.2540012 135.6454997  53.9979988
  75.2950012 134.8394997  53.2489988  75.0631066 135.3392892  53.9230487
  75.2080012 135.2974997  38.6949988  75.6200012 134.5764997  38.2199988
  75.8900012 135.9674997  38.7539988  75.3565885 135.2892368  38.6378915
  57.4890012 135.3024997  41.8219988  56.5640012 135.5114997  41.6929988
  57.9430012 135.7864997  41.1329988  57.4237368 135.3965993  41.7111226
  57.4530012 134.0404997  50.1669988  56.7880012 133.7944997  50.8099988
  57.0100012 134.6624997  49.5889988  57.3020956 134.0908632  50.1769352
  74.1720012 133.4644997  51.8529988  73.3600012 133.7894997  51.4649988
  74.4050012 132.7044997  51.3199988  74.0923423 133.4062436  51.7278253
  67.6020012 134.9134997  46.1749988  66.9280012 134.2844997  46.4309988
  68.1660012 134.4294997  45.5719988  67.5859230 134.7618744  46.1285340
  72.7450012 133.0214997  46.2879988  73.3490012 133.5684997  45.7859988
  71.8750012 133.3404997  46.0479988  72.7101241 133.1395806  46.1867654
  74.4720012 134.1594997  44.6209988  75.0840012 133.6454997  44.0949988
  74.8540012 135.0374997  44.6449988  74.6074540 134.2077140  44.5521830
  59.9290012 133.5474997  43.9969988  59.1520012 133.3134997  43.4899988
  60.4590012 132.7504997  44.0059988  59.8942330 133.4076988  43.9287742
  58.7650012 133.3454997  39.8009988  59.2040012 133.9564997  39.2089988
  58.1320012 133.8834997  40.2749988  58.7394514 133.5019257  39.7840930
  64.5080012 133.4744997  43.8109988  65.3830012 133.8624997  43.7809988
  64.3720012 133.2594997  44.7329988  64.6093695 133.4985184  43.9316440
  70.0650012 133.5044997  45.4599988  70.1410012 133.5994997  44.5099988
  69.7900012 132.5964997  45.5889988  70.0382321 133.3947867  45.3475079
  71.4180012 133.5304997  41.1519988  70.7160012 134.1454997  40.9429988
  70.9740012 132.6924997  41.2829988  71.2616330 133.5015783  41.1410328
  60.6260012 135.2614997  38.2429988  61.1180012 134.6314997  37.7159988
  61.2500012 135.5574997  38.9069988  60.7775446 135.2153199  38.2605980
  65.6520012 135.5544997  40.6999988  65.8300012 134.9084997  41.3829988
  65.5990012 136.3884997  41.1679988  65.6691829 135.5787985  40.8565940
  59.8870012 134.0614997  53.5149988  59.5210012 133.2964997  53.9579988
  60.8000012 134.0904997  53.8019988  59.9602790 133.9607224  53.6144070
  61.8600012 133.4124997  55.0509988  62.7580012 133.1384997  54.8659988
  61.4730012 132.6694997  55.5149988  61.9306612 133.2745914  55.0883643
  70.2810012 132.7444997  55.2329988  70.3580012 132.3184997  56.0869988
  71.1750012 132.7584997  54.8899988  70.4123428 132.6880879  55.3035310
  87.8630012 142.7034997  43.9559988  87.9520012 143.6474997  43.8239988
  87.2250012 142.4284997  43.2979988  87.7889081 142.7954830  43.8489614
  86.7960012 141.9584997  47.3749988  86.7580012 141.3124997  48.0799988
  86.4740012 141.4924997  46.6039988  86.7472333 141.8069408  47.3672978
  79.1650012 141.5734997  48.9679988  79.2060012 140.9474997  49.6909988
  79.8680012 142.1974997  49.1499988  79.2656363 141.5721196  49.0916044
  90.5020012 144.8974997  45.6759988  90.0620012 144.1774997  46.1269988
  90.4890012 145.6184997  46.3059988  90.4400226 144.8963731  45.8228494
  76.6980012 139.6834997  42.8959988  76.2510012 140.5294997  42.8769988
  76.1370012 139.1034997  42.3799988  76.5609900 139.7209916  42.8236801
  77.4090012 141.8454997  45.0219988  77.6220012 141.0754997  45.5489988
  78.1470012 141.9344997  44.4179988  77.5378496 141.7521394  45.0125300
  85.1860012 144.3914997  47.7809988  85.4900012 143.7054997  47.1859988
  85.9070012 144.5094997  48.3989988  85.3250671 144.3136305  47.7831816
  93.8490012 135.9924997  48.6419988  93.8980012 136.6024997  49.3779988
  94.2740012 136.4534997  47.9189988  93.9131824 136.1383741  48.6450205
  88.3270012 138.7854997  48.1089988  88.4690012 137.8394997  48.1289988
  88.2200012 138.9924997  47.1799988  88.3319864 138.6839534  47.9862339
  81.4810012 136.8864997  45.3809988  81.5250012 137.7464997  44.9629988
  81.0240012 136.3344997  44.7469988  81.4252185 136.9295799  45.2380299
  89.2040012 137.0174997  43.7819988  89.8500012 136.6884997  44.4069988
  89.7140012 137.5354997  43.1589988  89.3614264 137.0424611  43.7833862
  78.1020012 139.2834997  46.1429988  78.7550012 138.7334997  46.5749988
  78.1260012 139.0094997  45.2259988  78.1946683 139.1711466  46.0782123
  83.2580012 140.8334997  45.3579988  83.8740012 140.3074997  45.8679988
  82.6720012 140.1934997  44.9549988  83.2630810 140.6749208  45.3733173
  94.2400012 137.4704997  50.8779988  93.5520012 138.1284997  50.7819988
  94.2560012 137.2734997  51.8139988  94.1478525 137.5340462  50.9914808
  80.2920012 135.8044997  49.4549988  80.0730012 136.3344997  48.6889988
  79.6240012 136.0314997  50.1019988  80.1717600 135.9076906  49.4376379
  82.8610012 143.4804997  49.7419988  82.1210012 144.0784997  49.8459988
  83.5750012 144.0344997  49.4269988  82.8562237 143.6372831  49.7136465
  90.9680012 136.3084997  45.7619988  90.7520012 135.5424997  46.2949988
  91.6230012 136.7804997  46.2749988  91.0270632 136.2675889  45.9042861
  79.8850012 137.6964997  47.4069988  80.4990012 138.3294997  47.7809988
  80.3970012 137.2244997  46.7509988  80.0382296 137.7192370  47.3694252
  91.3150012 135.0234997  49.4419988  90.5790012 135.6344997  49.4039988
  91.9980012 135.4384997  48.9149988  91.3066541 135.1631374  49.3655832
  84.3180012 133.1104997  46.9079988  84.2010012 132.1614997  46.8529988
  83.4630012 133.4424997  47.1809988  84.1863733 133.0255409  46.9373897
  92.1120012 144.9854997  51.6359988  92.2520012 144.3944997  50.8959988
  92.2790012 145.8584997  51.2789988  92.1536778 145.0226426  51.4866965
  86.5850012 141.9474997  41.4079988  85.8730012 142.4824997  41.0559988
  87.2760012 142.0034997  40.7479988  86.5810132 142.0282543  41.2706289
  86.6380012 140.4054997  38.4469988  87.3390012 140.4274997  39.0979988
  86.9410012 139.7774997  37.7909988  86.7747830 140.3236566  38.4473711
  93.9540012 141.3254997  49.7019988  93.3010012 142.0204997  49.7909988
  94.4190012 141.5354997  48.8919988  93.9275390 141.4489425  49.6046883
  89.9900012 142.1574997  42.3599988  89.2580012 142.3854997  42.9329988
  90.4380012 141.4434997  42.8149988  89.9503095 142.0922571  42.4999119
  89.8880012 140.3314997  51.4269988  89.9680012 141.0944997  51.9989988
  89.2860012 140.6104997  50.7369988  89.8175756 140.4737134  51.4120589
  81.6360012 142.7874997  44.2419988  81.3050012 142.4174997  43.4239988
  82.2240012 142.1174997  44.5889988  81.6701873 142.6461156  44.1768102
  82.0020012 141.5564997  47.8759988  82.5680012 141.6774997  47.1129988
  82.3210012 142.1934997  48.5149988  82.1225786 141.6591884  47.8580040
  88.8610012 141.3194997  40.0449988  89.4410012 141.4694997  40.7919988
  89.2750012 141.7904997  39.3219988  88.9962830 141.4036841  40.0494134
  79.8020012 142.1534997  51.8219988  79.8730012 142.8044997  52.5199988
  78.9120012 142.2564997  51.4869988  79.6913117 142.2565936  51.8722700
  92.5600012 133.0694997  39.8579988  91.6600012 133.2084997  40.1529988
  92.8120012 133.9004997  39.4559988  92.4708702 133.2009074  39.8440205
  80.6260012 141.8574997  41.8319988  80.3340012 142.6254997  41.3409988
  79.9520012 141.1974997  41.6689988  80.4949081 141.8734406  41.7427340
  76.7190012 144.2204997  50.6469988  76.2180012 144.1924997  49.8319988
  76.7240012 143.3144997  50.9559988  76.6511526 144.0942278  50.5772872
  91.8190012 139.1594997  53.6929988  91.4120012 139.6404997  52.9719988
  91.8600012 138.2544997  53.3849988  91.7688437 139.1029374  53.5526683
  81.5870012 134.0134997  47.6849988  80.7250012 133.9264997  47.2779988
  81.5640012 134.8694997  48.1129988  81.4660330 134.1172765  47.6871863
  86.2500012 133.7354997  51.0599988  86.6700012 133.3204997  51.8129988
  85.3170012 133.5574997  51.1769988  86.1813644 133.6545900  51.1789539
  89.5760012 137.4914997  51.9129988  89.0620012 137.3654997  52.7109988
  89.4210012 138.4034997  51.6689988  89.4846852 137.5976132  51.9892158
  90.3390012 142.3524997  37.6749988  90.3810012 142.1294997  36.7449988
  91.1880012 142.7514997  37.8649988  90.4595396 142.3759155  37.5733627
  85.9110012 136.2284997  38.3449988  85.6580012 136.2474997  39.2679988
  85.6550012 135.3564997  38.0439988  85.8417790 136.1132437  38.4306263
  81.6780012 138.9794997  48.7799988  81.0360012 138.9384997  49.4889988
  81.7150012 139.9054997  48.5429988  81.5951324 139.0991559  48.8449824
  81.6750012 139.2004997  43.6919988  80.7820012 138.8594997  43.6339988
  82.1250012 138.8234997  42.9369988  81.6137305 139.1028484  43.5819177
  87.2100012 139.6164997  42.5089988  86.8010012 140.4314997  42.2179988
  87.9310012 139.4764997  41.8949988  87.2514537 139.7092018  42.3861342
  86.3120012 139.7914997  53.9969988  85.7500012 139.0874997  54.3179988
  87.1390012 139.6714997  54.4649988  86.3467095 139.6787883  54.1042330
  88.2150012 139.0624997  45.3229988  88.0200012 139.6674997  44.6079988
  88.3960012 138.2284997  44.8889988  88.2127614 139.0326300  45.1664405
  79.4280012 139.2994997  50.6469988  79.3900012 139.6994997  51.5159988
  78.9370012 138.4824997  50.7379988  79.3564684 139.2438069  50.7781059
  82.7940012 136.6734997  37.4459988  82.3630012 136.2284997  38.1759988
  82.0760012 137.0454997  36.9339988  82.6379438 136.6628940  37.4766799
  76.0360012 136.4154997  44.4979988  76.6670012 136.3864997  45.2169988
  76.4850012 135.9904997  43.7679988  76.1830774 136.3540492  44.4976553
  77.3100012 137.1614997  39.9219988  77.7840012 137.7524997  39.3369988
  76.5930012 137.6924997  40.2689988  77.2779341 137.3140867  39.8888836
  87.4790012 140.7004997  49.9949988  87.8020012 140.0694997  49.3519988
  87.0390012 140.1654997  50.6549988  87.4636895 140.5418441  49.9962850
  84.2560012 136.6274997  44.7789988  83.3450012 136.6844997  45.0669988
  84.7620012 136.5674997  45.5889988  84.1995413 136.6271985  44.9280622
  79.0850012 138.2564997  43.6049988  78.1950012 138.3564997  43.2649988
  79.3810012 137.4144997  43.2589988  79.0032823 138.1563545  43.5117213
  82.7380012 138.2564997  41.2619988  83.6690012 138.3854997  41.4399988
  82.5230012 138.9264997  40.6119988  82.8364247 138.3646565  41.1985747
  88.6610012 135.8624997  48.0429988  87.9850012 135.9934997  48.7069988
  88.1760012 135.7074997  47.2329988  88.5027145 135.8594905  48.0244517
  81.4120012 139.4514997  38.8289988  80.8690012 139.0714997  38.1369988
  82.2450012 139.6454997  38.3999988  81.4504399 139.4258124  38.6764526
  79.5470012 144.0084997  53.9279988  80.2790012 144.2624997  54.4889988
  78.7670012 144.2124997  54.4429988  79.5418232 144.0709177  54.0745760
  85.5760012 139.4154997  46.6659988  86.1410012 138.8684997  46.1189988
  85.4290012 138.8934997  47.4539988  85.6332918 139.2702024  46.6978454
  80.5780012 135.5514997  43.0839988  80.2610012 134.6494997  43.0489988
  81.3600012 135.5534997  42.5309988  80.6402284 135.4281628  43.0044783
  84.2030012 137.8034997  49.0799988  83.3670012 138.2574997  49.1899988
  84.7270012 138.0794997  49.8319988  84.1594414 137.9029376  49.1967136
  84.7470012 144.0164997  40.7639988  84.0020012 143.5094997  40.4419988
  84.6130012 144.0654997  41.7109988  84.6268776 143.9536940  40.8478647
  91.8970012 143.1494997  49.5509988  92.5390012 143.6064997  49.0069988
  91.0670012 143.2624997  49.0879988  91.8725963 143.2272704  49.4140177
  88.6450012 136.8304997  38.9639988  87.7060012 136.9424997  38.8119988
  88.9420012 137.6874997  39.2699988  88.5567666 136.9616443  38.9845768
  86.2660012 144.2004997  52.0009988  85.9210012 143.8194997  52.8079988
  86.0660012 145.1344997  52.0729988  86.1918061 144.2745228  52.1210961
  89.3630012 138.6974997  40.6239988  90.2550012 138.5604997  40.9429988
  89.4200012 139.4884997  40.0879988  89.4926285 138.7856660  40.5951691
  79.8720012 143.3114997  46.5339988  80.6170012 143.3094997  45.9329988
  79.9500012 142.4884997  47.0159988  79.9845518 143.1999315  46.5168929
  76.8800012 141.7724997  51.8489988  77.1030012 141.3544997  52.6809988
  76.2780012 141.1594997  51.4259988  76.8291759 141.6324668  51.9057022
  83.8960012 141.2894997  54.0619988  83.6000012 141.1234997  53.1669988
  84.8280012 141.0694997  54.0509988  83.9814166 141.2370640  53.9380536
  94.2480012 138.9074997  40.3189988  93.6940012 138.5114997  39.6469988
  94.3480012 139.8174997  40.0409988  94.1857059 138.9763586  40.1894401
  94.2110012 144.7074997  53.1559988  93.3600012 144.9454997  52.7889988
  94.8020012 144.6904997  52.4029988  94.1742487 144.7378258  53.0038893
  89.7040012 142.5014997  47.8049988  88.7750012 142.2694997  47.7779988
  90.1550012 141.7244997  47.4749988  89.6379216 142.3647238  47.7566917
  78.0020012 141.6914997  38.5249988  78.6180012 142.3184997  38.9049988
  77.1400012 142.0074997  38.7969988  77.9697698 141.8199430  38.6137183
  83.6740012 144.4924997  43.5149988  83.4330012 145.4174997  43.5559988
  82.9330012 144.0334997  43.9109988  83.5408409 144.5571421  43.5741377
  87.7330012 144.7404997  49.5299988  87.3070012 144.5134997  50.3569988
  88.3130012 144.0024997  49.3479988  87.7531868 144.6095299  49.6185830
  78.5140012 136.5254997  51.4069988  77.6210012 136.8644997  51.3389988
  78.4150012 135.6704997  51.8249988  78.3784164 136.4562588  51.4542235
  90.8020012 144.3424997  40.8309988  90.5240012 143.6144997  41.3869988
  91.7290012 144.4614997  41.0359988  90.8893124 144.2588802  40.9348845
  79.4170012 143.6044997  40.0179988  78.7310012 143.9564997  40.5849988
  79.9390012 144.3674997  39.7709988  79.3936852 143.7558578  40.0622118
  87.2480012 136.2664997  50.2969988  87.9470012 136.3404997  50.9469988
  86.8670012 135.4024997  50.4509988  87.2921767 136.1597624  50.4068322
  88.0330012 135.9184997  41.3939988  88.2530012 136.3904997  40.5909988
  88.5910012 136.3134997  42.0639988  88.1384968 136.0364285  41.3747331
  85.2330012 137.6464997  42.2289988  86.0450012 138.1514997  42.2749988
  84.9880012 137.5014997  43.1429988  85.3110520 137.6960375  42.3588517
  85.7680012 138.6324997  51.4139988  85.8870012 139.2064997  52.1709988
  86.4240012 137.9444997  51.5279988  85.8729757 138.6181079  51.5330825
  86.1160012 134.7274997  43.1669988  85.7700012 135.3454997  43.8119988
  86.7750012 135.2284997  42.6859988  86.1577826 134.8795802  43.1900971
  81.7740012 135.7904997  39.8539988  81.6910012 136.6794997  40.2009988
  82.6640012 135.5254997  40.0859988  81.8829469 135.8761430  39.9327626
  91.9730012 136.5394997  52.2489988  91.0560012 136.8024997  52.1609988
  92.3080012 136.5364997  51.3519988  91.8929900 136.5750224  52.1157919
  90.5750012 140.2904997  46.3439988  89.7770012 139.8754997  46.0159988
  91.0200012 139.5994997  46.8349988  90.5259885 140.1403543  46.3654889
  78.3490012 138.8824997  38.0309988  78.3040012 139.8214997  38.2089988
  77.4610012 138.6464997  37.7609988  78.2228574 138.9791892  38.0188912
  79.1570012 133.6644997  46.7039988  78.9280012 133.7234997  45.7759988
  78.7140012 132.8724997  47.0099988  79.0658530 133.5655753  46.6184786
  77.2820012 144.0274997  55.1489988  77.4260012 143.1254997  54.8619988
  76.5100012 144.3134997  54.6609988  77.1973323 143.9428261  55.0437881
  81.6240012 144.3714997  37.2809988  81.6880012 143.5774997  37.8119988
  82.2770012 144.2524997  36.5909988  81.7210241 144.2467148  37.2604317
  83.9380012 143.9974997  54.5809988  83.6090012 144.2684997  53.7239988
  84.0900012 143.0564997  54.4939988  83.9134809 143.9073862  54.4518244
  89.6720012 143.9134997  51.9649988  90.4180012 144.5014997  51.8449988
  88.9150012 144.4954997  52.0279988  89.6717554 144.0727011  51.9570907
  78.1150012 141.2274997  54.5689988  78.5230012 140.3704997  54.4479988
  77.8550012 141.2424997  55.4899988  78.1357568 141.1120807  54.6769588
  82.7730012 142.3434997  39.5869988  82.3130012 141.8594997  40.2729988
  83.0280012 141.6754997  38.9509988  82.7444902 142.1868731  39.5949334
  82.0620012 140.2364997  51.9429988  81.4440012 140.9114997  52.2229988
  82.4060012 140.5574997  51.1099988  82.0239615 140.3722721  51.8686581
  83.8440012 140.5864997  37.8489988  83.6640012 140.4324997  36.9219988
  84.7940012 140.6944997  37.8939988  83.9477776 140.5800175  37.7281843
  87.0820012 142.7084997  55.2199988  88.0350012 142.7914997  55.1929988
  86.9210012 141.9964997  55.8399988  87.1906426 142.6236746  55.3000579
  93.2340012 142.9414997  37.2949988  92.9600012 142.5164997  36.4819988
  93.2730012 143.8724997  37.0779988  93.2017699 143.0092484  37.1543610
  82.4010012 137.5914997  53.0249988  82.5510012 136.8624997  52.4229988
  82.4040012 138.3684997  52.4659988  82.4219302 137.5967851  52.8670692
  82.8140012 135.9614997  50.5179988  83.3500012 136.4124997  49.8659988
  81.9620012 135.8534997  50.0949988  82.7722178 136.0086390  50.3715756
  84.3960012 141.4004997  50.7569988  85.1460012 141.2444997  50.1839988
  84.0570012 142.2524997  50.4819988  84.4528921 141.4942968  50.6413561
  88.8110012 139.2154997  55.7859988  89.0040012 138.2844997  55.6739988
  89.6690012 139.6404997  55.7759988  88.9533020 139.1456389  55.7693361
  90.1280012 142.0044997  53.8629988  89.8470012 142.7134997  53.2859988
  91.0710012 141.9314997  53.7119988  90.2169027 142.0917646  53.7635551
  80.8800012 138.7894997  54.9369988  80.1130012 138.2574997  54.7269988
  81.5590012 138.4794997  54.3369988  80.8667022 138.6747506  54.8271648
  83.6200012 133.4174997  50.9489988  83.5210012 134.3644997  50.8439988
  82.8770012 133.0454997  50.4739988  83.5060564 133.4965902  50.8704560
  84.8840012 137.7394997  54.5129988  84.6480012 137.5194997  55.4149988
  84.1000012 137.5324997  54.0029988  84.7458628 137.6814760  54.5673932
  87.5990012 136.8664997  53.5889988  86.6520012 136.8984997  53.7209988
  87.9120012 136.2414997  54.2419988  87.5115475 136.7863207  53.6954455
  89.2330012 135.5004997  55.5939988  89.1370012 134.5484997  55.5879988
  88.9120012 135.7694997  56.4539988  89.1764070 135.4064035  55.7095441
  79.0600012 136.7104997  54.6409988  79.2720012 136.0034997  54.0309988
  78.9490012 136.2724997  55.4849988  79.0739721 136.5547084  54.6716843
  83.8410012 132.7114997  53.6209988  84.5530012 132.0714997  53.6069988
  83.7400012 132.9784997  52.7069988  83.9247939 132.6599938  53.4955650
  84.1950012 134.3944997  55.6739988  84.0630012 133.9184997  54.8539988
  83.5960012 135.1384997  55.6189988  84.0959071 134.4299618  55.5542886
  93.6920012 143.8104997  41.2699988  94.5420012 144.2314997  41.3969988
  93.6980012 143.0704997  41.8769988  93.8091372 143.7680803  41.3694344
  94.0870012 141.8634997  43.0939988  93.3600012 141.3844997  43.4909988
  94.6680012 142.0694997  43.8259988  94.0659375 141.8257090  43.2474129
  93.8460012 144.6484997  48.0409988  94.6790012 144.2704997  47.7609988
  93.9580012 145.5914997  47.9219988  93.9752647 144.7242218  47.9865487
  94.3550012 141.7644997  39.4849988  93.8330012 142.1214997  38.7659988
  94.3220012 142.4394997  40.1629988  94.2791634 141.9045413  39.4783145
  92.7040012 139.0044997  38.0359988  92.8000012 139.6714997  37.3549988
  92.5640012 138.1884997  37.5539988  92.6982135 138.9854500  37.8778491
  91.8730012 140.3844997  43.6569988  91.7230012 139.4394997  43.6359988
  91.5200012 140.6654997  44.4999988  91.8046625 140.2930441  43.7682346
  76.9090012 142.4624997  47.6669988  77.0930012 142.3804997  46.7309988
  77.7580012 142.3384997  48.0909988  77.0490139 142.4345003  47.5961455
  92.7300012 142.3544997  53.2949988  93.3130012 141.6204997  53.4869988
  93.2940012 143.1264997  53.3419988  92.8859769 142.3584227  53.3276159
  94.2260012 140.2574997  53.9799988  93.3630012 139.8784997  53.8139988
  94.8310012 139.5184997  53.9059988  94.1895979 140.1058023  53.9472817
  91.9510012 136.4124997  37.1529988  92.5620012 136.0414997  37.7899988
  91.1150012 135.9914997  37.3489988  91.9215032 136.3047554  37.2667035
  91.5840012 137.9674997  42.1189988  91.8640012 137.0604997  42.2429988
  92.3430012 138.4014997  41.7299988  91.7249277 137.9020942  42.0833682
  92.1960012 138.5484997  47.5549988  93.1290012 138.7604997  47.5209988
  91.9610012 138.6504997  48.4769988  92.2918036 138.5912769  47.6749976
  92.2250012 139.2854997  50.3309988  91.3820012 139.5534997  50.6969988
  92.6670012 140.1074997  50.1199988  92.1694158 139.4333291  50.3525491
  76.5060012 137.7334997  53.8079988  77.4260012 137.6114997  54.0439988
  76.0570012 136.9834997  54.1969988  76.5711580 137.6153727  53.8929006
  94.5080012 133.2654997  55.6839988  94.8580012 132.6114997  55.0789988
  94.6550012 134.1024997  55.2449988  94.5758419 133.2891591  55.5417118
  92.1970012 135.2304997  42.1669988  92.3800012 134.7814997  42.9929988
  91.5980012 134.6454997  41.7039988  92.1410202 135.0899975  42.2173275
  77.7270012 136.0454997  46.6989988  78.1730012 135.2534997  47.0009988
  78.1940012 136.7614997  47.1299988  77.8510172 136.0340624  46.7984820
  76.0310012 139.0444997  47.7679988  76.5230012 138.8234997  46.9769988
  76.3940012 139.8854997  48.0489988  76.1473126 139.1278357  47.6977531
  94.0280012 135.3744997  54.0339988  93.1100012 135.6454997  53.9979988
  94.1510012 134.8394997  53.2489988  93.9191066 135.3392892  53.9230487
  94.0640012 135.2974997  38.6949988  94.4760012 134.5764997  38.2199988
  94.7460012 135.9674997  38.7539988  94.2125885 135.2892368  38.6378915
  76.3450012 135.3024997  41.8219988  75.4200012 135.5114997  41.6929988
  76.7990012 135.7864997  41.1329988  76.2797368 135.3965993  41.7111226
  76.3090012 134.0404997  50.1669988  75.6440012 133.7944997  50.8099988
  75.8660012 134.6624997  49.5889988  76.1580956 134.0908632  50.1769352
  93.0280012 133.4644997  51.8529988  92.2160012 133.7894997  51.4649988
  93.2610012 132.7044997  51.3199988  92.9483423 133.4062436  51.7278253
  86.4580012 134.9134997  46.1749988  85.7840012 134.2844997  46.4309988
  87.0220012 134.4294997  45.5719988  86.4419230 134.7618744  46.1285340
  91.6010012 133.0214997  46.2879988  92.2050012 133.5684997  45.7859988
  90.7310012 133.3404997  46.0479988  91.5661241 133.1395806  46.1867654
  93.3280012 134.1594997  44.6209988  93.9400012 133.6454997  44.0949988
  93.7100012 135.0374997  44.6449988  93.4634540 134.2077140  44.5521830
  78.7850012 133.5474997  43.9969988  78.0080012 133.3134997  43.4899988
  79.3150012 132.7504997  44.0059988  78.7502330 133.4076988  43.9287742
  77.6210012 133.3454997  39.8009988  78.0600012 133.9564997  39.2089988
  76.9880012 133.8834997  40.2749988  77.5954514 133.5019257  39.7840930
  83.3640012 133.4744997  43.8109988  84.2390012 133.8624997  43.7809988
  83.2280012 133.2594997  44.7329988  83.4653695 133.4985184  43.9316440
  88.9210012 133.5044997  45.4599988  88.9970012 133.5994997  44.5099988
  88.6460012 132.5964997  45.5889988  88.8942321 133.3947867  45.3475079
  90.2740012 133.5304997  41.1519988  89.5720012 134.1454997  40.9429988
  89.8300012 132.6924997  41.2829988  90.1176330 133.5015783  41.1410328
  79.4820012 135.2614997  38.2429988  79.9740012 134.6314997  37.7159988
  80.1060012 135.5574997  38.9069988  79.6335446 135.2153199  38.2605980
  84.5080012 135.5544997  40.6999988  84.6860012 134.9084997  41.3829988
  84.4550012 136.3884997  41.1679988  84.5251829 135.5787985  40.8565940
  78.7430012 134.0614997  53.5149988  78.3770012 133.2964997  53.9579988
  79.6560012 134.0904997  53.8019988  78.8162790 133.9607224  53.6144070
  80.7160012 133.4124997  55.0509988  81.6140012 133.1384997  54.8659988
  80.3290012 132.6694997  55.5149988  80.7866612 133.2745914  55.0883643
  89.1370012 132.7444997  55.2329988  89.2140012 132.3184997  56.0869988
  90.0310012 132.7584997  54.8899988  89.2683428 132.6880879  55.3035310
 106.7190012 142.7034997  43.9559988 106.8080012 143.6474997  43.8239988
 106.0810012 142.4284997  43.2979988 106.6449081 142.7954830  43.8489614
 105.6520012 141.9584997  47.3749988 105.6140012 141.3124997  48.0799988
 105.3300012 141.4924997  46.6039988 105.6032333 141.8069408  47.3672978
  98.0210012 141.5734997  48.9679988  98.0620012 140.9474997  49.6909988
  98.7240012 142.1974997  49.1499988  98.1216363 141.5721196  49.0916044
 109.3580012 144.8974997  45.6759988 108.9180012 144.1774997  46.1269988
 109.3450012 145.6184997  46.3059988 109.2960226 144.8963731  45.8228494
  95.5540012 139.6834997  42.8959988  95.1070012 140.5294997  42.8769988
  94.9930012 139.1034997  42.3799988  95.4169900 139.7209916  42.8236801
  96.2650012 141.8454997  45.0219988  96.4780012 141.0754997  45.5489988
  97.0030012 141.9344997  44.4179988  96.3938496 141.7521394  45.0125300
 104.0420012 144.3914997  47.7809988 104.3460012 143.7054997  47.1859988
 104.7630012 144.5094997  48.3989988 104.1810671 144.3136305  47.7831816
 112.7050012 135.9924997  48.6419988 112.7540012 136.6024997  49.3779988
 113.1300012 136.4534997  47.9189988 112.7691824 136.1383741  48.6450205
 107.1830012 138.7854997  48.1089988 107.3250012 137.8394997  48.1289988
 107.0760012 138.9924997  47.1799988 107.1879864 138.6839534  47.9862339
 100.3370012 136.8864997  45.3809988 100.3810012 137.7464997  44.9629988
  99.8800012 136.3344997  44.7469988 100.2812185 136.9295799  45.2380299
 108.0600012 137.0174997  43.7819988 108.7060012 136.6884997  44.4069988
 108.5700012 137.5354997  43.1589988 108.2174264 137.0424611  43.7833862
  96.9580012 139.2834997  46.1429988  97.6110012 138.7334997  46.5749988
  96.9820012 139.0094997  45.2259988  97.0506683 139.1711466  46.0782123
 102.1140012 140.8334997  45.3579988 102.7300012 140.3074997  45.8679988
 101.5280012 140.1934997  44.9549988 102.1190810 140.6749208  45.3733173
 113.0960012 137.4704997  50.8779988 112.4080012 138.1284997  50.7819988
 113.1120012 137.2734997  51.8139988 113.0038525 137.5340462  50.9914808
  99.1480012 135.8044997  49.4549988  98.9290012 136.3344997  48.6889988
  98.4800012 136.0314997  50.1019988  99.0277600 135.9076906  49.4376379
 101.7170012 143.4804997  49.7419988 100.9770012 144.0784997  49.8459988
 102.4310012 144.0344997  49.4269988 101.7122237 143.6372831  49.7136465
 109.8240012 136.3084997  45.7619988 109.6080012 135.5424997  46.2949988
 110.4790012 136.7804997  46.2749988 109.8830632 136.2675889  45.9042861
  98.7410012 137.6964997  47.4069988  99.3550012 138.3294997  47.7809988
  99.2530012 137.2244997  46.7509988  98.8942296 137.7192370  47.3694252
 110.1710012 135.0234997  49.4419988 109.4350012 135.6344997  49.4039988
 110.8540012 135.4384997  48.9149988 110.1626541 135.1631374  49.3655832
 103.1740012 133.1104997  46.9079988 103.0570012 132.1614997  46.8529988
 102.3190012 133.4424997  47.1809988 103.0423733 133.0255409  46.9373897
 110.9680012 144.9854997  51.6359988 111.1080012 144.3944997  50.8959988
 111.1350012 145.8584997  51.2789988 111.0096778 145.0226426  51.4866965
 105.4410012 141.9474997  41.4079988 104.7290012 142.4824997  41.0559988
 106.1320012 142.0034997  40.7479988 105.4370132 142.0282543  41.2706289
 105.4940012 140.4054997  38.4469988 106.1950012 140.4274997  39.0979988
 105.7970012 139.7774997  37.7909988 105.6307830 140.3236566  38.4473711
 112.8100012 141.3254997  49.7019988 112.1570012 142.0204997  49.7909988
 113.2750012 141.5354997  48.8919988 112.7835390 141.4489425  49.6046883
 108.8460012 142.1574997  42.3599988 108.1140012 142.3854997  42.9329988
 109.2940012 141.4434997  42.8149988 108.8063095 142.0922571  42.4999119
 108.7440012 140.3314997  51.4269988 108.8240012 141.0944997  51.9989988
 108.1420012 140.6104997  50.7369988 108.6735756 140.4737134  51.4120589
 100.4920012 142.7874997  44.2419988 100.1610012 142.4174997  43.4239988
 101.0800012 142.1174997  44.5889988 100.5261873 142.6461156  44.1768102
 100.8580012 141.5564997  47.8759988 101.4240012 141.6774997  47.1129988
 101.1770012 142.1934997  48.5149988 100.9785786 141.6591884  47.8580040
 107.7170012 141.3194997  40.0449988 108.2970012 141.4694997  40.7919988
 108.1310012 141.7904997  39.3219988 107.8522830 141.4036841  40.0494134
  98.6580012 142.1534997  51.8219988  98.7290012 142.8044997  52.5199988
  97.7680012 142.2564997  51.4869988  98.5473117 142.2565936  51.8722700
 111.4160012 133.0694997  39.8579988 110.5160012 133.2084997  40.1529988
 111.6680012 133.9004997  39.4559988 111.3268702 133.2009074  39.8440205
  99.4820012 141.8574997  41.8319988  99.1900012 142.6254997  41.3409988
  98.8080012 141.1974997  41.6689988  99.3509081 141.8734406  41.7427340
  95.5750012 144.2204997  50.6469988  95.0740012 144.1924997  49.8319988
  95.5800012 143.3144997  50.9559988  95.5071526 144.0942278  50.5772872
 110.6750012 139.1594997  53.6929988 110.2680012 139.6404997  52.9719988
 110.7160012 138.2544997  53.3849988 110.6248437 139.1029374  53.5526683
 100.4430012 134.0134997  47.6849988  99.5810012 133.9264997  47.2779988
 100.4200012 134.8694997  48.1129988 100.3220330 134.1172765  47.6871863
 105.1060012 133.7354997  51.0599988 105.5260012 133.3204997  51.8129988
 104.1730012 133.5574997  51.1769988 105.0373644 133.6545900  51.1789539
 108.4320012 137.4914997  51.9129988 107.9180012 137.3654997  52.7109988
 108.2770012 138.4034997  51.6689988 108.3406852 137.5976132  51.9892158
 109.1950012 142.3524997  37.6749988 109.2370012 142.1294997  36.7449988
 110.0440012 142.7514997  37.8649988 109.3155396 142.3759155  37.5733627
 104.7670012 136.2284997  38.3449988 104.5140012 136.2474997  39.2679988
 104.5110012 135.3564997  38.0439988 104.6977790 136.1132437  38.4306263
 100.5340012 138.9794997  48.7799988  99.8920012 138.9384997  49.4889988
 100.5710012 139.9054997  48.5429988 100.4511324 139.0991559  48.8449824
 100.5310012 139.2004997  43.6919988  99.6380012 138.8594997  43.6339988
 100.9810012 138.8234997  42.9369988 100.4697305 139.1028484  43.5819177
 106.0660012 139.6164997  42.5089988 105.6570012 140.4314997  42.2179988
 106.7870012 139.4764997  41.8949988 106.1074537 139.7092018  42.3861342
 105.1680012 139.7914997  53.9969988 104.6060012 139.0874997  54.3179988
 105.9950012 139.6714997  54.4649988 105.2027095 139.6787883  54.1042330
 107.0710012 139.0624997  45.3229988 106.8760012 139.6674997  44.6079988
 107.2520012 138.2284997  44.8889988 107.0687614 139.0326300  45.1664405
  98.2840012 139.2994997  50.6469988  98.2460012 139.6994997  51.5159988
  97.7930012 138.4824997  50.7379988  98.2124684 139.2438069  50.7781059
 101.6500012 136.6734997  37.4459988 101.2190012 136.2284997  38.1759988
 100.9320012 137.0454997  36.9339988 101.4939438 136.6628940  37.4766799
  94.8920012 136.4154997  44.4979988  95.5230012 136.3864997  45.2169988
  95.3410012 135.9904997  43.7679988  95.0390774 136.3540492  44.4976553
  96.1660012 137.1614997  39.9219988  96.6400012 137.7524997  39.3369988
  95.4490012 137.6924997  40.2689988  96.1339341 137.3140867  39.8888836
 106.3350012 140.7004997  49.9949988 106.6580012 140.0694997  49.3519988
 105.8950012 140.1654997  50.6549988 106.3196895 140.5418441  49.9962850
 103.1120012 136.6274997  44.7789988 102.2010012 136.6844997  45.0669988
 103.6180012 136.5674997  45.5889988 103.0555413 136.6271985  44.9280622
  97.9410012 138.2564997  43.6049988  97.0510012 138.3564997  43.2649988
  98.2370012 137.4144997  43.2589988  97.8592823 138.1563545  43.5117213
 101.5940012 138.2564997  41.2619988 102.5250012 138.3854997  41.4399988
 101.3790012 138.9264997  40.6119988 101.6924247 138.3646565  41.1985747
 107.5170012 135.8624997  48.0429988 106.8410012 135.9934997  48.7069988
 107.0320012 135.7074997  47.2329988 107.3587145 135.8594905  48.0244517
 100.2680012 139.4514997  38.8289988  99.7250012 139.0714997  38.1369988
 101.1010012 139.6454997  38.3999988 100.3064399 139.4258124  38.6764526
  98.4030012 144.0084997  53.9279988  99.1350012 144.2624997  54.4889988
  97.6230012 144.2124997  54.4429988  98.3978232 144.0709177  54.0745760
 104.4320012 139.4154997  46.6659988 104.9970012 138.8684997  46.1189988
 104.2850012 138.8934997  47.4539988 104.4892918 139.2702024  46.6978454
  99.4340012 135.5514997  43.0839988  99.1170012 134.6494997  43.0489988
 100.2160012 135.5534997  42.5309988  99.4962284 135.4281628  43.0044783
 103.0590012 137.8034997  49.0799988 102.2230012 138.2574997  49.1899988
 103.5830012 138.0794997  49.8319988 103.0154414 137.9029376  49.1967136
 103.6030012 144.0164997  40.7639988 102.8580012 143.5094997  40.4419988
 103.4690012 144.0654997  41.7109988 103.4828776 143.9536940  40.8478647
 110.7530012 143.1494997  49.5509988 111.3950012 143.6064997  49.0069988
 109.9230012 143.2624997  49.0879988 110.7285963 143.2272704  49.4140177
 107.5010012 136.8304997  38.9639988 106.5620012 136.9424997  38.8119988
 107.7980012 137.6874997  39.2699988 107.4127666 136.9616443  38.9845768
 105.1220012 144.2004997  52.0009988 104.7770012 143.8194997  52.8079988
 104.9220012 145.1344997  52.0729988 105.0478061 144.2745228  52.1210961
 108.2190012 138.6974997  40.6239988 109.1110012 138.5604997  40.9429988
 108.2760012 139.4884997  40.0879988 108.3486285 138.7856660  40.5951691
  98.7280012 143.3114997  46.5339988  99.4730012 143.3094997  45.9329988
  98.8060012 142.4884997  47.0159988  98.8405518 143.1999315  46.5168929
  95.7360012 141.7724997  51.8489988  95.9590012 141.3544997  52.6809988
  95.1340012 141.1594997  51.4259988  95.6851759 141.6324668  51.9057022
 102.7520012 141.2894997  54.0619988 102.4560012 141.1234997  53.1669988
 103.6840012 141.0694997  54.0509988 102.8374166 141.2370640  53.9380536
 113.1040012 138.9074997  40.3189988 112.5500012 138.5114997  39.6469988
 113.2040012 139.8174997  40.0409988 113.0417059 138.9763586  40.1894401
 113.0670012 144.7074997  53.1559988 112.2160012 144.9454997  52.7889988
 113.6580012 144.6904997  52.4029988 113.0302487 144.7378258  53.0038893
 108.5600012 142.5014997  47.8049988 107.6310012 142.2694997  47.7779988
 109.0110012 141.7244997  47.4749988 108.4939216 142.3647238  47.7566917
  96.8580012 141.6914997  38.5249988  97.4740012 142.3184997  38.9049988
  95.9960012 142.0074997  38.7969988  96.8257698 141.8199430  38.6137183
 102.5300012 144.4924997  43.5149988 102.2890012 145.4174997  43.5559988
 101.7890012 144.0334997  43.9109988 102.3968409 144.5571421  43.5741377
 106.5890012 144.7404997  49.5299988 106.1630012 144.5134997  50.3569988
 107.1690012 144.0024997  49.3479988 106.6091868 144.6095299  49.6185830
  97.3700012 136.5254997  51.4069988  96.4770012 136.8644997  51.3389988
  97.2710012 135.6704997  51.8249988  97.2344164 136.4562588  51.4542235
 109.6580012 144.3424997  40.8309988 109.3800012 143.6144997  41.3869988
 110.5850012 144.4614997  41.0359988 109.7453124 144.2588802  40.9348845
  98.2730012 143.6044997  40.0179988  97.5870012 143.9564997  40.5849988
  98.7950012 144.3674997  39.7709988  98.2496852 143.7558578  40.0622118
 106.1040012 136.2664997  50.2969988 106.8030012 136.3404997  50.9469988
 105.7230012 135.4024997  50.4509988 106.1481767 136.1597624  50.4068322
 106.8890012 135.9184997  41.3939988 107.1090012 136.3904997  40.5909988
 107.4470012 136.3134997  42.0639988 106.9944968 136.0364285  41.3747331
 104.0890012 137.6464997  42.2289988 104.9010012 138.1514997  42.2749988
 103.8440012 137.5014997  43.1429988 104.1670520 137.6960375  42.3588517
 104.6240012 138.6324997  51.4139988 104.7430012 139.2064997  52.1709988
 105.2800012 137.9444997  51.5279988 104.7289757 138.6181079  51.5330825
 104.9720012 134.7274997  43.1669988 104.6260012 135.3454997  43.8119988
 105.6310012 135.2284997  42.6859988 105.0137826 134.8795802  43.1900971
 100.6300012 135.7904997  39.8539988 100.5470012 136.6794997  40.2009988
 101.5200012 135.5254997  40.0859988 100.7389469 135.8761430  39.9327626
 110.8290012 136.5394997  52.2489988 109.9120012 136.8024997  52.1609988
 111.1640012 136.5364997  51.3519988 110.7489900 136.5750224  52.1157919
 109.4310012 140.2904997  46.3439988 108.6330012 139.8754997  46.0159988
 109.8760012 139.5994997  46.8349988 109.3819885 140.1403543  46.3654889
  97.2050012 138.8824997  38.0309988  97.1600012 139.8214997  38.2089988
  96.3170012 138.6464997  37.7609988  97.0788574 138.9791892  38.0188912
  98.0130012 133.6644997  46.7039988  97.7840012 133.7234997  45.7759988
  97.5700012 132.8724997  47.0099988  97.9218530 133.5655753  46.6184786
  96.1380012 144.0274997  55.1489988  96.2820012 143.1254997  54.8619988
  95.3660012 144.3134997  54.6609988  96.0533323 143.9428261  55.0437881
 100.4800012 144.3714997  37.2809988 100.5440012 143.5774997  37.8119988
 101.1330012 144.2524997  36.5909988 100.5770241 144.2467148  37.2604317
 102.7940012 143.9974997  54.5809988 102.4650012 144.2684997  53.7239988
 102.9460012 143.0564997  54.4939988 102.7694809 143.9073862  54.4518244
 108.5280012 143.9134997  51.9649988 109.2740012 144.5014997  51.8449988
 107.7710012 144.4954997  52.0279988 108.5277554 144.0727011  51.9570907
  96.9710012 141.2274997  54.5689988  97.3790012 140.3704997  54.4479988
  96.7110012 141.2424997  55.4899988  96.9917568 141.1120807  54.6769588
 101.6290012 142.3434997  39.5869988 101.1690012 141.8594997  40.2729988
 101.8840012 141.6754997  38.9509988 101.6004902 142.1868731  39.5949334
 100.9180012 140.2364997  51.9429988 100.3000012 140.9114997  52.2229988
 101.2620012 140.5574997  51.1099988 100.8799615 140.3722721  51.8686581
 102.7000012 140.5864997  37.8489988 102.5200012 140.4324997  36.9219988
 103.6500012 140.6944997  37.8939988 102.8037776 140.5800175  37.7281843
 105.9380012 142.7084997  55.2199988 106.8910012 142.7914997  55.1929988
 105.7770012 141.9964997  55.8399988 106.0466426 142.6236746  55.3000579
 112.0900012 142.9414997  37.2949988 111.8160012 142.5164997  36.4819988
 112.1290012 143.8724997  37.0779988 112.0577699 143.0092484  37.1543610
 101.2570012 137.5914997  53.0249988 101.4070012 136.8624997  52.4229988
 101.2600012 138.3684997  52.4659988 101.2779302 137.5967851  52.8670692
 101.6700012 135.9614997  50.5179988 102.2060012 136.4124997  49.8659988
 100.8180012 135.8534997  50.0949988 101.6282178 136.0086390  50.3715756
 103.2520012 141.4004997  50.7569988 104.0020012 141.2444997  50.1839988
 102.9130012 142.2524997  50.4819988 103.3088921 141.4942968  50.6413561
 107.6670012 139.2154997  55.7859988 107.8600012 138.2844997  55.6739988
 108.5250012 139.6404997  55.7759988 107.8093020 139.1456389  55.7693361
 108.9840012 142.0044997  53.8629988 108.7030012 142.7134997  53.2859988
 109.9270012 141.9314997  53.7119988 109.0729027 142.0917646  53.7635551
  99.7360012 138.7894997  54.9369988  98.9690012 138.2574997  54.7269988
 100.4150012 138.4794997  54.3369988  99.7227022 138.6747506  54.8271648
 102.4760012 133.4174997  50.9489988 102.3770012 134.3644997  50.8439988
 101.7330012 133.0454997  50.4739988 102.3620563 133.4965902  50.8704560
 103.7400012 137.7394997  54.5129988 103.5040012 137.5194997  55.4149988
 102.9560012 137.5324997  54.0029988 103.6018628 137.6814760  54.5673932
 106.4550012 136.8664997  53.5889988 105.5080012 136.8984997  53.7209988
 106.7680012 136.2414997  54.2419988 106.3675475 136.7863207  53.6954455
 108.0890012 135.5004997  55.5939988 107.9930012 134.5484997  55.5879988
 107.7680012 135.7694997  56.4539988 108.0324070 135.4064035  55.7095441
  97.9160012 136.7104997  54.6409988  98.1280012 136.0034997  54.0309988
  97.8050012 136.2724997  55.4849988  97.9299721 136.5547084  54.6716843
 102.6970012 132.7114997  53.6209988 103.4090012 132.0714997  53.6069988
 102.5960012 132.9784997  52.7069988 102.7807939 132.6599938  53.4955650
 103.0510012 134.3944997  55.6739988 102.9190012 133.9184997  54.8539988
 102.4520012 135.1384997  55.6189988 102.9519071 134.4299618  55.5542886
 112.5480012 143.8104997  41.2699988 113.3980012 144.2314997  41.3969988
 112.5540012 143.0704997  41.8769988 112.6651372 143.7680803  41.3694344
 112.9430012 141.8634997  43.0939988 112.2160012 141.3844997  43.4909988
 113.5240012 142.0694997  43.8259988 112.9219375 141.8257090  43.2474129
 112.7020012 144.6484997  48.0409988 113.5350012 144.2704997  47.7609988
 112.8140012 145.5914997  47.9219988 112.8312647 144.7242218  47.9865487
 113.2110012 141.7644997  39.4849988 112.6890012 142.1214997  38.7659988
 113.1780012 142.4394997  40.1629988 113.1351634 141.9045413  39.4783145
 111.5600012 139.0044997  38.0359988 111.6560012 139.6714997  37.3549988
 111.4200012 138.1884997  37.5539988 111.5542135 138.9854500  37.8778491
 110.7290012 140.3844997  43.6569988 110.5790012 139.4394997  43.6359988
 110.3760012 140.6654997  44.4999988 110.6606625 140.2930441  43.7682346
  95.7650012 142.4624997  47.6669988  95.9490012 142.3804997  46.7309988
  96.6140012 142.3384997  48.0909988  95.9050139 142.4345003  47.5961455
 111.5860012 142.3544997  53.2949988 112.1690012 141.6204997  53.4869988
 112.1500012 143.1264997  53.3419988 111.7419769 142.3584227  53.3276159
 113.0820012 140.2574997  53.9799988 112.2190012 139.8784997  53.8139988
 113.6870012 139.5184997  53.9059988 113.0455979 140.1058023  53.9472817
 110.8070012 136.4124997  37.1529988 111.4180012 136.0414997  37.7899988
 109.9710012 135.9914997  37.3489988 110.7775032 136.3047554  37.2667035
 110.4400012 137.9674997  42.1189988 110.7200012 137.0604997  42.2429988
 111.1990012 138.4014997  41.7299988 110.5809277 137.9020942  42.0833682
 111.0520012 138.5484997  47.5549988 111.9850012 138.7604997  47.5209988
 110.8170012 138.6504997  48.4769988 111.1478036 138.5912769  47.6749976
 111.0810012 139.2854997  50.3309988 110.2380012 139.5534997  50.6969988
 111.5230012 140.1074997  50.1199988 111.0254158 139.4333291  50.3525491
  95.3620012 137.7334997  53.8079988  96.2820012 137.6114997  54.0439988
  94.9130012 136.9834997  54.1969988  95.4271580 137.6153727  53.8929006
 113.3640012 133.2654997  55.6839988 113.7140012 132.6114997  55.0789988
 113.5110012 134.1024997  55.2449988 113.4318419 133.2891591  55.5417118
 111.0530012 135.2304997  42.1669988 111.2360012 134.7814997  42.9929988
 110.4540012 134.6454997  41.7039988 110.9970202 135.0899975  42.2173275
  96.5830012 136.0454997  46.6989988  97.0290012 135.2534997  47.0009988
  97.0500012 136.7614997  47.1299988  96.7070172 136.0340624  46.7984820
  94.8870012 139.0444997  47.7679988  95.3790012 138.8234997  46.9769988
  95.2500012 139.8854997  48.0489988  95.0033126 139.1278357  47.6977531
 112.8840012 135.3744997  54.0339988 111.9660012 135.6454997  53.9979988
 113.0070012 134.8394997  53.2489988 112.7751066 135.3392892  53.9230487
 112.9200012 135.2974997  38.6949988 113.3320012 134.5764997  38.2199988
 113.6020012 135.9674997  38.7539988 113.0685885 135.2892368  38.6378915
  95.2010012 135.3024997  41.8219988  94.2760012 135.5114997  41.6929988
  95.6550012 135.7864997  41.1329988  95.1357368 135.3965993  41.7111226
  95.1650012 134.0404997  50.1669988  94.5000012 133.7944997  50.8099988
  94.7220012 134.6624997  49.5889988  95.0140956 134.0908632  50.1769352
 111.8840012 133.4644997  51.8529988 111.0720012 133.7894997  51.4649988
 112.1170012 132.7044997  51.3199988 111.8043423 133.4062436  51.7278253
 105.3140012 134.9134997  46.1749988 104.6400012 134.2844997  46.4309988
 105.8780012 134.4294997  45.5719988 105.2979230 134.7618744  46.1285340
 110.4570012 133.0214997  46.2879988 111.0610012 133.5684997  45.7859988
 109.5870012 133.3404997  46.0479988 110.4221241 133.1395806  46.1867654
 112.1840012 134.1594997  44.6209988 112.7960012 133.6454997  44.0949988
 112.5660012 135.0374997  44.6449988 112.3194540 134.2077140  44.5521830
  97.6410012 133.5474997  43.9969988  96.8640012 133.3134997  43.4899988
  98.1710012 132.7504997  44.0059988  97.6062330 133.4076988  43.9287742
  96.4770012 133.3454997  39.8009988  96.9160012 133.9564997  39.2089988
  95.8440012 133.8834997  40.2749988  96.4514514 133.5019257  39.7840930
 102.2200012 133.4744997  43.8109988 103.0950012 133.8624997  43.7809988
 102.0840012 133.2594997  44.7329988 102.3213695 133.4985184  43.9316440
 107.7770012 133.5044997  45.4599988 107.8530012 133.5994997  44.5099988
 107.5020012 132.5964997  45.5889988 107.7502321 133.3947867  45.3475079
 109.1300012 133.5304997  41.1519988 108.4280012 134.1454997  40.9429988
 108.6860012 132.6924997  41.2829988 108.9736330 133.5015783  41.1410328
  98.3380012 135.2614997  38.2429988  98.8300012 134.6314997  37.7159988
  98.9620012 135.5574997  38.9069988  98.4895446 135.2153199  38.2605980
 103.3640012 135.5544997  40.6999988 103.5420012 134.9084997  41.3829988
 103.3110012 136.3884997  41.1679988 103.3811829 135.5787985  40.8565940
  97.5990012 134.0614997  53.5149988  97.2330012 133.2964997  53.9579988
  98.5120012 134.0904997  53.8019988  97.6722790 133.9607224  53.6144070
  99.5720012 133.4124997  55.0509988 100.4700012 133.1384997  54.8659988
  99.1850012 132.6694997  55.5149988  99.6426612 133.2745914  55.0883643
 107.9930012 132.7444997  55.2329988 108.0700012 132.3184997  56.0869988
 108.8870012 132.7584997  54.8899988 108.1243428 132.6880879  55.3035310
 125.5750012 142.7034997  43.9559988 125.6640012 143.6474997  43.8239988
 124.9370012 142.4284997  43.2979988 125.5009081 142.7954830  43.8489614
 124.5080012 141.9584997  47.3749988 124.4700012 141.3124997  48.0799988
 124.1860012 141.4924997  46.6039988 124.4592333 141.8069408  47.3672978
 116.8770012 141.5734997  48.9679988 116.9180012 140.9474997  49.6909988
 117.5800012 142.1974997  49.1499988 116.9776363 141.5721196  49.0916044
 128.2140012 144.8974997  45.6759988 127.7740012 144.1774997  46.1269988
 128.2010012 145.6184997  46.3059988 128.1520226 144.8963731  45.8228494
 114.4100012 139.6834997  42.8959988 113.9630012 140.5294997  42.8769988
 113.8490012 139.1034997  42.3799988 114.2729900 139.7209916  42.8236801
 115.1210012 141.8454997  45.0219988 115.3340012 141.0754997  45.5489988
 115.8590012 141.9344997  44.4179988 115.2498496 141.7521394  45.0125300
 122.8980012 144.3914997  47.7809988 123.2020012 143.7054997  47.1859988
 123.6190012 144.5094997  48.3989988 123.0370671 144.3136305  47.7831816
 131.5610012 135.9924997  48.6419988 131.6100012 136.6024997  49.3779988
 131.9860012 136.4534997  47.9189988 131.6251824 136.1383741  48.6450205
 126.0390012 138.7854997  48.1089988 126.1810012 137.8394997  48.1289988
 125.9320012 138.9924997  47.1799988 126.0439864 138.6839534  47.9862339
 119.1930012 136.8864997  45.3809988 119.2370012 137.7464997  44.9629988
 118.7360012 136.3344997  44.7469988 119.1372185 136.9295799  45.2380299
 126.9160012 137.0174997  43.7819988 127.5620012 136.6884997  44.4069988
 127.4260012 137.5354997  43.1589988 127.0734264 137.0424611  43.7833862
 115.8140012 139.2834997  46.1429988 116.4670012 138.7334997  46.5749988
 115.8380012 139.0094997  45.2259988 115.9066683 139.1711466  46.0782123
 120.9700012 140.8334997  45.3579988 121.5860012 140.3074997  45.8679988
 120.3840012 140.1934997  44.9549988 120.9750810 140.6749208  45.3733173
 131.9520012 137.4704997  50.8779988 131.2640012 138.1284997  50.7819988
 131.9680012 137.2734997  51.8139988 131.8598525 137.5340462  50.9914808
 118.0040012 135.8044997  49.4549988 117.7850012 136.3344997  48.6889988
 117.3360012 136.0314997  50.1019988 117.8837600 135.9076906  49.4376379
 120.5730012 143.4804997  49.7419988 119.8330012 144.0784997  49.8459988
 121.2870012 144.0344997  49.4269988 120.5682237 143.6372831  49.7136465
 128.6800012 136.3084997  45.7619988 128.4640012 135.5424997  46.2949988
 129.3350012 136.7804997  46.2749988 128.7390632 136.2675889  45.9042861
 117.5970012 137.6964997  47.4069988 118.2110012 138.3294997  47.7809988
 118.1090012 137.2244997  46.7509988 117.7502296 137.7192370  47.3694252
 129.0270012 135.0234997  49.4419988 128.2910012 135.6344997  49.4039988
 129.7100012 135.4384997  48.9149988 129.0186541 135.1631374  49.3655832
 122.0300012 133.1104997  46.9079988 121.9130012 132.1614997  46.8529988
 121.1750012 133.4424997  47.1809988 121.8983733 133.0255409  46.9373897
 129.8240012 144.9854997  51.6359988 129.9640012 144.3944997  50.8959988
 129.9910012 145.8584997  51.2789988 129.8656778 145.0226426  51.4866965
 124.2970012 141.9474997  41.4079988 123.5850012 142.4824997  41.0559988
 124.9880012 142.0034997  40.7479988 124.2930132 142.0282543  41.2706289
 124.3500012 140.4054997  38.4469988 125.0510012 140.4274997  39.0979988
 124.6530012 139.7774997  37.7909988 124.4867830 140.3236566  38.4473711
 131.6660012 141.3254997  49.7019988 131.0130012 142.0204997  49.7909988
 132.1310012 141.5354997  48.8919988 131.6395390 141.4489425  49.6046883
 127.7020012 142.1574997  42.3599988 126.9700012 142.3854997  42.9329988
 128.1500012 141.4434997  42.8149988 127.6623095 142.0922571  42.4999119
 127.6000012 140.3314997  51.4269988 127.6800012 141.0944997  51.9989988
 126.9980012 140.6104997  50.7369988 127.5295756 140.4737134  51.4120589
 119.3480012 142.7874997  44.2419988 119.0170012 142.4174997  43.4239988
 119.9360012 142.1174997  44.5889988 119.3821873 142.6461156  44.1768102
 119.7140012 141.5564997  47.8759988 120.2800012 141.6774997  47.1129988
 120.0330012 142.1934997  48.5149988 119.8345786 141.6591884  47.8580040
 126.5730012 141.3194997  40.0449988 127.1530012 141.4694997  40.7919988
 126.9870012 141.7904997  39.3219988 126.7082830 141.4036841  40.0494134
 117.5140012 142.1534997  51.8219988 117.5850012 142.8044997  52.5199988
 116.6240012 142.2564997  51.4869988 117.4033117 142.2565936  51.8722700
 130.2720012 133.0694997  39.8579988 129.3720012 133.2084997  40.1529988
 130.5240012 133.9004997  39.4559988 130.1828702 133.2009074  39.8440205
 118.3380012 141.8574997  41.8319988 118.0460012 142.6254997  41.3409988
 117.6640012 141.1974997  41.6689988 118.2069081 141.8734406  41.7427340
 114.4310012 144.2204997  50.6469988 113.9300012 144.1924997  49.8319988
 114.4360012 143.3144997  50.9559988 114.3631526 144.0942278  50.5772872
 129.5310012 139.1594997  53.6929988 129.1240012 139.6404997  52.9719988
 129.5720012 138.2544997  53.3849988 129.4808437 139.1029374  53.5526683
 119.2990012 134.0134997  47.6849988 118.4370012 133.9264997  47.2779988
 119.2760012 134.8694997  48.1129988 119.1780330 134.1172765  47.6871863
 123.9620012 133.7354997  51.0599988 124.3820012 133.3204997  51.8129988
 123.0290012 133.5574997  51.1769988 123.8933644 133.6545900  51.1789539
 127.2880012 137.4914997  51.9129988 126.7740012 137.3654997  52.7109988
 127.1330012 138.4034997  51.6689988 127.1966852 137.5976132  51.9892158
 128.0510012 142.3524997  37.6749988 128.0930012 142.1294997  36.7449988
 128.9000012 142.7514997  37.8649988 128.1715396 142.3759155  37.5733627
 123.6230012 136.2284997  38.3449988 123.3700012 136.2474997  39.2679988
 123.3670012 135.3564997  38.0439988 123.5537790 136.1132437  38.4306263
 119.3900012 138.9794997  48.7799988 118.7480012 138.9384997  49.4889988
 119.4270012 139.9054997  48.5429988 119.3071324 139.0991559  48.8449824
 119.3870012 139.2004997  43.6919988 118.4940012 138.8594997  43.6339988
 119.8370012 138.8234997  42.9369988 119.3257305 139.1028484  43.5819177
 124.9220012 139.6164997  42.5089988 124.5130012 140.4314997  42.2179988
 125.6430012 139.4764997  41.8949988 124.9634537 139.7092018  42.3861342
 124.0240012 139.7914997  53.9969988 123.4620012 139.0874997  54.3179988
 124.8510012 139.6714997  54.4649988 124.0587095 139.6787883  54.1042330
 125.9270012 139.0624997  45.3229988 125.7320012 139.6674997  44.6079988
 126.1080012 138.2284997  44.8889988 125.9247614 139.0326300  45.1664405
 117.1400012 139.2994997  50.6469988 117.1020012 139.6994997  51.5159988
 116.6490012 138.4824997  50.7379988 117.0684684 139.2438069  50.7781059
 120.5060012 136.6734997  37.4459988 120.0750012 136.2284997  38.1759988
 119.7880012 137.0454997  36.9339988 120.3499438 136.6628940  37.4766799
 113.7480012 136.4154997  44.4979988 114.3790012 136.3864997  45.2169988
 114.1970012 135.9904997  43.7679988 113.8950774 136.3540492  44.4976553
 115.0220012 137.1614997  39.9219988 115.4960012 137.7524997  39.3369988
 114.3050012 137.6924997  40.2689988 114.9899341 137.3140867  39.8888836
 125.1910012 140.7004997  49.9949988 125.5140012 140.0694997  49.3519988
 124.7510012 140.1654997  50.6549988 125.1756895 140.5418441  49.9962850
 121.9680012 136.6274997  44.7789988 121.0570012 136.6844997  45.0669988
 122.4740012 136.5674997  45.5889988 121.9115413 136.6271985  44.9280622
 116.7970012 138.2564997  43.6049988 115.9070012 138.3564997  43.2649988
 117.0930012 137.4144997  43.2589988 116.7152823 138.1563545  43.5117213
 120.4500012 138.2564997  41.2619988 121.3810012 138.3854997  41.4399988
 120.2350012 138.9264997  40.6119988 120.5484247 138.3646565  41.1985747
 126.3730012 135.8624997  48.0429988 125.6970012 135.9934997  48.7069988
 125.8880012 135.7074997  47.2329988 126.2147145 135.8594905  48.0244517
 119.1240012 139.4514997  38.8289988 118.5810012 139.0714997  38.1369988
 119.9570012 139.6454997  38.3999988 119.1624399 139.4258124  38.6764526
 117.2590012 144.0084997  53.9279988 117.9910012 144.2624997  54.4889988
 116.4790012 144.2124997  54.4429988 117.2538232 144.0709177  54.0745760
 123.2880012 139.4154997  46.6659988 123.8530012 138.8684997  46.1189988
 123.1410012 138.8934997  47.4539988 123.3452918 139.2702024  46.6978454
 118.2900012 135.5514997  43.0839988 117.9730012 134.6494997  43.0489988
 119.0720012 135.5534997  42.5309988 118.3522284 135.4281628  43.0044783
 121.9150012 137.8034997  49.0799988 121.0790012 138.2574997  49.1899988
 122.4390012 138.0794997  49.8319988 121.8714414 137.9029376  49.1967136
 122.4590012 144.0164997  40.7639988 121.7140012 143.5094997  40.4419988
 122.3250012 144.0654997  41.7109988 122.3388776 143.9536940  40.8478647
 129.6090012 143.1494997  49.5509988 130.2510012 143.6064997  49.0069988
 128.7790012 143.2624997  49.0879988 129.5845963 143.2272704  49.4140177
 126.3570012 136.8304997  38.9639988 125.4180012 136.9424997  38.8119988
 126.6540012 137.6874997  39.2699988 126.2687666 136.9616443  38.9845768
 123.9780012 144.2004997  52.0009988 123.6330012 143.8194997  52.8079988
 123.7780012 145.1344997  52.0729988 123.9038061 144.2745228  52.1210961
 127.0750012 138.6974997  40.6239988 127.9670012 138.5604997  40.9429988
 127.1320012 139.4884997  40.0879988 127.2046285 138.7856660  40.5951691
 117.5840012 143.3114997  46.5339988 118.3290012 143.3094997  45.9329988
 117.6620012 142.4884997  47.0159988 117.6965518 143.1999315  46.5168929
 114.5920012 141.7724997  51.8489988 114.8150012 141.3544997  52.6809988
 113.9900012 141.1594997  51.4259988 114.5411759 141.6324668  51.9057022
 121.6080012 141.2894997  54.0619988 121.3120012 141.1234997  53.1669988
 122.5400012 141.0694997  54.0509988 121.6934166 141.2370640  53.9380536
 131.9600012 138.9074997  40.3189988 131.4060012 138.5114997  39.6469988
 132.0600012 139.8174997  40.0409988 131.8977059 138.9763586  40.1894401
 131.9230012 144.7074997  53.1559988 131.0720012 144.9454997  52.7889988
 132.5140012 144.6904997  52.4029988 131.8862487 144.7378258  53.0038893
 127.4160012 142.5014997  47.8049988 126.4870012 142.2694997  47.7779988
 127.8670012 141.7244997  47.4749988 127.3499216 142.3647238  47.7566917
 115.7140012 141.6914997  38.5249988 116.3300012 142.3184997  38.9049988
 114.8520012 142.0074997  38.7969988 115.6817698 141.8199430  38.6137183
 121.3860012 144.4924997  43.5149988 121.1450012 145.4174997  43.5559988
 120.6450012 144.0334997  43.9109988 121.2528409 144.5571421  43.5741377
 125.4450012 144.7404997  49.5299988 125.0190012 144.5134997  50.3569988
 126.0250012 144.0024997  49.3479988 125.4651868 144.6095299  49.6185830
 116.2260012 136.5254997  51.4069988 115.3330012 136.8644997  51.3389988
 116.1270012 135.6704997  51.8249988 116.0904164 136.4562588  51.4542235
 128.5140012 144.3424997  40.8309988 128.2360012 143.6144997  41.3869988
 129.4410012 144.4614997  41.0359988 128.6013124 144.2588802  40.9348845
 117.1290012 143.6044997  40.0179988 116.4430012 143.9564997  40.5849988
 117.6510012 144.3674997  39.7709988 117.1056852 143.7558578  40.0622118
 124.9600012 136.2664997  50.2969988 125.6590012 136.3404997  50.9469988
 124.5790012 135.4024997  50.4509988 125.0041767 136.1597624  50.4068322
 125.7450012 135.9184997  41.3939988 125.9650012 136.3904997  40.5909988
 126.3030012 136.3134997  42.0639988 125.8504968 136.0364285  41.3747331
 122.9450012 137.6464997  42.2289988 123.7570012 138.1514997  42.2749988
 122.7000012 137.5014997  43.1429988 123.0230520 137.6960375  42.3588517
 123.4800012 138.6324997  51.4139988 123.5990012 139.2064997  52.1709988
 124.1360012 137.9444997  51.5279988 123.5849757 138.6181079  51.5330825
 123.8280012 134.7274997  43.1669988 123.4820012 135.3454997  43.8119988
 124.4870012 135.2284997  42.6859988 123.8697826 134.8795802  43.1900971
 119.4860012 135.7904997  39.8539988 119.4030012 136.6794997  40.2009988
 120.3760012 135.5254997  40.0859988 119.5949469 135.8761430  39.9327626
 129.6850012 136.5394997  52.2489988 128.7680012 136.8024997  52.1609988
 130.0200012 136.5364997  51.3519988 129.6049900 136.5750224  52.1157919
 128.2870012 140.2904997  46.3439988 127.4890012 139.8754997  46.0159988
 128.7320012 139.5994997  46.8349988 128.2379885 140.1403543  46.3654889
 116.0610012 138.8824997  38.0309988 116.0160012 139.8214997  38.2089988
 115.1730012 138.6464997  37.7609988 115.9348574 138.9791892  38.0188912
 116.8690012 133.6644997  46.7039988 116.6400012 133.7234997  45.7759988
 116.4260012 132.8724997  47.0099988 116.7778530 133.5655753  46.6184786
 114.9940012 144.0274997  55.1489988 115.1380012 143.1254997  54.8619988
 114.2220012 144.3134997  54.6609988 114.9093323 143.9428261  55.0437881
 119.3360012 144.3714997  37.2809988 119.4000012 143.5774997  37.8119988
 119.9890012 144.2524997  36.5909988 119.4330241 144.2467148  37.2604317
 121.6500012 143.9974997  54.5809988 121.3210012 144.2684997  53.7239988
 121.8020012 143.0564997  54.4939988 121.6254809 143.9073862  54.4518244
 127.3840012 143.9134997  51.9649988 128.1300012 144.5014997  51.8449988
 126.6270012 144.4954997  52.0279988 127.3837554 144.0727011  51.9570907
 115.8270012 141.2274997  54.5689988 116.2350012 140.3704997  54.4479988
 115.5670012 141.2424997  55.4899988 115.8477568 141.1120807  54.6769588
 120.4850012 142.3434997  39.5869988 120.0250012 141.8594997  40.2729988
 120.7400012 141.6754997  38.9509988 120.4564902 142.1868731  39.5949334
 119.7740012 140.2364997  51.9429988 119.1560012 140.9114997  52.2229988
 120.1180012 140.5574997  51.1099988 119.7359615 140.3722721  51.8686581
 121.5560012 140.5864997  37.8489988 121.3760012 140.4324997  36.9219988
 122.5060012 140.6944997  37.8939988 121.6597776 140.5800175  37.7281843
 124.7940012 142.7084997  55.2199988 125.7470012 142.7914997  55.1929988
 124.6330012 141.9964997  55.8399988 124.9026426 142.6236746  55.3000579
 130.9460012 142.9414997  37.2949988 130.6720012 142.5164997  36.4819988
 130.9850012 143.8724997  37.0779988 130.9137699 143.0092484  37.1543610
 120.1130012 137.5914997  53.0249988 120.2630012 136.8624997  52.4229988
 120.1160012 138.3684997  52.4659988 120.1339302 137.5967851  52.8670692
 120.5260012 135.9614997  50.5179988 121.0620012 136.4124997  49.8659988
 119.6740012 135.8534997  50.0949988 120.4842178 136.0086390  50.3715756
 122.1080012 141.4004997  50.7569988 122.8580012 141.2444997  50.1839988
 121.7690012 142.2524997  50.4819988 122.1648921 141.4942968  50.6413561
 126.5230012 139.2154997  55.7859988 126.7160012 138.2844997  55.6739988
 127.3810012 139.6404997  55.7759988 126.6653020 139.1456389  55.7693361
 127.8400012 142.0044997  53.8629988 127.5590012 142.7134997  53.2859988
 128.7830012 141.9314997  53.7119988 127.9289027 142.0917646  53.7635551
 118.5920012 138.7894997  54.9369988 117.8250012 138.2574997  54.7269988
 119.2710012 138.4794997  54.3369988 118.5787022 138.6747506  54.8271648
 121.3320012 133.4174997  50.9489988 121.2330012 134.3644997  50.8439988
 120.5890012 133.0454997  50.4739988 121.2180564 133.4965902  50.8704560
 122.5960012 137.7394997  54.5129988 122.3600012 137.5194997  55.4149988
 121.8120012 137.5324997  54.0029988 122.4578628 137.6814760  54.5673932
 125.3110012 136.8664997  53.5889988 124.3640012 136.8984997  53.7209988
 125.6240012 136.2414997  54.2419988 125.2235475 136.7863207  53.6954455
 126.9450012 135.5004997  55.5939988 126.8490012 134.5484997  55.5879988
 126.6240012 135.7694997  56.4539988 126.8884070 135.4064035  55.7095441
 116.7720012 136.7104997  54.6409988 116.9840012 136.0034997  54.0309988
 116.6610012 136.2724997  55.4849988 116.7859721 136.5547084  54.6716843
 121.5530012 132.7114997  53.6209988 122.2650012 132.0714997  53.6069988
 121.4520012 132.9784997  52.7069988 121.6367939 132.6599938  53.4955650
 121.9070012 134.3944997  55.6739988 121.7750012 133.9184997  54.8539988
 121.3080012 135.1384997  55.6189988 121.8079071 134.4299618  55.5542886
 131.4040012 143.8104997  41.2699988 132.2540012 144.2314997  41.3969988
 131.4100012 143.0704997  41.8769988 131.5211372 143.7680803  41.3694344
 131.7990012 141.8634997  43.0939988 131.0720012 141.3844997  43.4909988
 132.3800012 142.0694997  43.8259988 131.7779375 141.8257090  43.2474129
 131.5580012 144.6484997  48.0409988 132.3910012 144.2704997  47.7609988
 131.6700012 145.5914997  47.9219988 131.6872647 144.7242218  47.9865487
 132.0670012 141.7644997  39.4849988 131.5450012 142.1214997  38.7659988
 132.0340012 142.4394997  40.1629988 131.9911634 141.9045413  39.4783145
 130.4160012 139.0044997  38.0359988 130.5120012 139.6714997  37.3549988
 130.2760012 138.1884997  37.5539988 130.4102135 138.9854500  37.8778491
 129.5850012 140.3844997  43.6569988 129.4350012 139.4394997  43.6359988
 129.2320012 140.6654997  44.4999988 129.5166625 140.2930441  43.7682346
 114.6210012 142.4624997  47.6669988 114.8050012 142.3804997  46.7309988
 115.4700012 142.3384997  48.0909988 114.7610139 142.4345003  47.5961455
 130.4420012 142.3544997  53.2949988 131.0250012 141.6204997  53.4869988
 131.0060012 143.1264997  53.3419988 130.5979769 142.3584227  53.3276159
 131.9380012 140.2574997  53.9799988 131.0750012 139.8784997  53.8139988
 132.5430012 139.5184997  53.9059988 131.9015979 140.1058023  53.9472817
 129.6630012 136.4124997  37.1529988 130.2740012 136.0414997  37.7899988
 128.8270012 135.9914997  37.3489988 129.6335032 136.3047554  37.2667035
 129.2960012 137.9674997  42.1189988 129.5760012 137.0604997  42.2429988
 130.0550012 138.4014997  41.7299988 129.4369277 137.9020942  42.0833682
 129.9080012 138.5484997  47.5549988 130.8410012 138.7604997  47.5209988
 129.6730012 138.6504997  48.4769988 130.0038036 138.5912769  47.6749976
 129.9370012 139.2854997  50.3309988 129.0940012 139.5534997  50.6969988
 130.3790012 140.1074997  50.1199988 129.8814158 139.4333291  50.3525491
 114.2180012 137.7334997  53.8079988 115.1380012 137.6114997  54.0439988
 113.7690012 136.9834997  54.1969988 114.2831580 137.6153727  53.8929006
 132.2200012 133.2654997  55.6839988 132.5700012 132.6114997  55.0789988
 132.3670012 134.1024997  55.2449988 132.2878419 133.2891591  55.5417118
 129.9090012 135.2304997  42.1669988 130.0920012 134.7814997  42.9929988
 129.3100012 134.6454997  41.7039988 129.8530202 135.0899975  42.2173275
 115.4390012 136.0454997  46.6989988 115.8850012 135.2534997  47.0009988
 115.9060012 136.7614997  47.1299988 115.5630172 136.0340624  46.7984820
 113.7430012 139.0444997  47.7679988 114.2350012 138.8234997  46.9769988
 114.1060012 139.8854997  48.0489988 113.8593126 139.1278357  47.6977531
 131.7400012 135.3744997  54.0339988 130.8220012 135.6454997  53.9979988
 131.8630012 134.8394997  53.2489988 131.6311066 135.3392892  53.9230487
 131.7760012 135.2974997  38.6949988 132.1880012 134.5764997  38.2199988
 132.4580012 135.9674997  38.7539988 131.9245885 135.2892368  38.6378915
 114.0570012 135.3024997  41.8219988 113.1320012 135.5114997  41.6929988
 114.5110012 135.7864997  41.1329988 113.9917368 135.3965993  41.7111226
 114.0210012 134.0404997  50.1669988 113.3560012 133.7944997  50.8099988
 113.5780012 134.6624997  49.5889988 113.8700956 134.0908632  50.1769352
 130.7400012 133.4644997  51.8529988 129.9280012 133.7894997  51.4649988
 130.9730012 132.7044997  51.3199988 130.6603423 133.4062436  51.7278253
 124.1700012 134.9134997  46.1749988 123.4960012 134.2844997  46.4309988
 124.7340012 134.4294997  45.5719988 124.1539230 134.7618744  46.1285340
 129.3130012 133.0214997  46.2879988 129.9170012 133.5684997  45.7859988
 128.4430012 133.3404997  46.0479988 129.2781241 133.1395806  46.1867654
 131.0400012 134.1594997  44.6209988 131.6520012 133.6454997  44.0949988
 131.4220012 135.0374997  44.6449988 131.1754540 134.2077140  44.5521830
 116.4970012 133.5474997  43.9969988 115.7200012 133.3134997  43.4899988
 117.0270012 132.7504997  44.0059988 116.4622330 133.4076988  43.9287742
 115.3330012 133.3454997  39.8009988 115.7720012 133.9564997  39.2089988
 114.7000012 133.8834997  40.2749988 115.3074514 133.5019257  39.7840930
 121.0760012 133.4744997  43.8109988 121.9510012 133.8624997  43.7809988
 120.9400012 133.2594997  44.7329988 121.1773695 133.4985184  43.9316440
 126.6330012 133.5044997  45.4599988 126.7090012 133.5994997  44.5099988
 126.3580012 132.5964997  45.5889988 126.6062321 133.3947867  45.3475079
 127.9860012 133.5304997  41.1519988 127.2840012 134.1454997  40.9429988
 127.5420012 132.6924997  41.2829988 127.8296330 133.5015783  41.1410328
 117.1940012 135.2614997  38.2429988 117.6860012 134.6314997  37.7159988
 117.8180012 135.5574997  38.9069988 117.3455446 135.2153199  38.2605980
 122.2200012 135.5544997  40.6999988 122.3980012 134.9084997  41.3829988
 122.1670012 136.3884997  41.1679988 122.2371829 135.5787985  40.8565940
 116.4550012 134.0614997  53.5149988 116.0890012 133.2964997  53.9579988
 117.3680012 134.0904997  53.8019988 116.5282790 133.9607224  53.6144070
 118.4280012 133.4124997  55.0509988 119.3260012 133.1384997  54.8659988
 118.0410012 132.6694997  55.5149988 118.4986612 133.2745914  55.0883643
 126.8490012 132.7444997  55.2329988 126.9260012 132.3184997  56.0869988
 127.7430012 132.7584997  54.8899988 126.9803428 132.6880879  55.3035310
 144.4310012 142.7034997  43.9559988 144.5200012 143.6474997  43.8239988
 143.7930012 142.4284997  43.2979988 144.3569081 142.7954830  43.8489614
 143.3640012 141.9584997  47.3749988 143.3260012 141.3124997  48.0799988
 143.0420012 141.4924997  46.6039988 143.3152333 141.8069408  47.3672978
 135.7330012 141.5734997  48.9679988 135.7740012 140.9474997  49.6909988
 136.4360012 142.1974997  49.1499988 135.8336363 141.5721196  49.0916044
 133.2660012 139.6834997  42.8959988 132.8190012 140.5294997  42.8769988
 132.7050012 139.1034997  42.3799988 133.1289900 139.7209916  42.8236801
 133.9770012 141.8454997  45.0219988 134.1900012 141.0754997  45.5489988
 134.7150012 141.9344997  44.4179988 134.1058496 141.7521394  45.0125300
 141.7540012 144.3914997  47.7809988 142.0580012 143.7054997  47.1859988
 142.4750012 144.5094997  48.3989988 141.8930671 144.3136305  47.7831816
 144.8950012 138.7854997  48.1089988 145.0370012 137.8394997  48.1289988
 144.7880012 138.9924997  47.1799988 144.8999864 138.6839534  47.9862339
 138.0490012 136.8864997  45.3809988 138.0930012 137.7464997  44.9629988
 137.5920012 136.3344997  44.7469988 137.9932185 136.9295799  45.2380299
 134.6700012 139.2834997  46.1429988 135.3230012 138.7334997  46.5749988
 134.6940012 139.0094997  45.2259988 134.7626683 139.1711466  46.0782123
 139.8260012 140.8334997  45.3579988 140.4420012 140.3074997  45.8679988
 139.2400012 140.1934997  44.9549988 139.8310810 140.6749208  45.3733173
 136.8600012 135.8044997  49.4549988 136.6410012 136.3344997  48.6889988
 136.1920012 136.0314997  50.1019988 136.7397600 135.9076906  49.4376379
 139.4290012 143.4804997  49.7419988 138.6890012 144.0784997  49.8459988
 140.1430012 144.0344997  49.4269988 139.4242237 143.6372831  49.7136465
 136.4530012 137.6964997  47.4069988 137.0670012 138.3294997  47.7809988
 136.9650012 137.2244997  46.7509988 136.6062296 137.7192370  47.3694252
 140.8860012 133.1104997  46.9079988 140.7690012 132.1614997  46.8529988
 140.0310012 133.4424997  47.1809988 140.7543733 133.0255409  46.9373897
 143.1530012 141.9474997  41.4079988 142.4410012 142.4824997  41.0559988
 143.8440012 142.0034997  40.7479988 143.1490132 142.0282543  41.2706289
 143.2060012 140.4054997  38.4469988 143.9070012 140.4274997  39.0979988
 143.5090012 139.7774997  37.7909988 143.3427830 140.3236566  38.4473711
 138.2040012 142.7874997  44.2419988 137.8730012 142.4174997  43.4239988
 138.7920012 142.1174997  44.5889988 138.2381873 142.6461156  44.1768102
 138.5700012 141.5564997  47.8759988 139.1360012 141.6774997  47.1129988
 138.8890012 142.1934997  48.5149988 138.6905786 141.6591884  47.8580040
 136.3700012 142.1534997  51.8219988 136.4410012 142.8044997  52.5199988
 135.4800012 142.2564997  51.4869988 136.2593117 142.2565936  51.8722700
 137.1940012 141.8574997  41.8319988 136.9020012 142.6254997  41.3409988
 136.5200012 141.1974997  41.6689988 137.0629081 141.8734406  41.7427340
 133.2870012 144.2204997  50.6469988 132.7860012 144.1924997  49.8319988
 133.2920012 143.3144997  50.9559988 133.2191526 144.0942278  50.5772872
 138.1550012 134.0134997  47.6849988 137.2930012 133.9264997  47.2779988
 138.1320012 134.8694997  48.1129988 138.0340330 134.1172765  47.6871863
 142.8180012 133.7354997  51.0599988 143.2380012 133.3204997  51.8129988
 141.8850012 133.5574997  51.1769988 142.7493644 133.6545900  51.1789539
 142.4790012 136.2284997  38.3449988 142.2260012 136.2474997  39.2679988
 142.2230012 135.3564997  38.0439988 142.4097790 136.1132437  38.4306263
 138.2460012 138.9794997  48.7799988 137.6040012 138.9384997  49.4889988
 138.2830012 139.9054997  48.5429988 138.1631324 139.0991559  48.8449824
 138.2430012 139.2004997  43.6919988 137.3500012 138.8594997  43.6339988
 138.6930012 138.8234997  42.9369988 138.1817305 139.1028484  43.5819177
 143.7780012 139.6164997  42.5089988 143.3690012 140.4314997  42.2179988
 144.4990012 139.4764997  41.8949988 143.8194537 139.7092018  42.3861342
 142.8800012 139.7914997  53.9969988 142.3180012 139.0874997  54.3179988
 143.7070012 139.6714997  54.4649988 142.9147095 139.6787883  54.1042330
 144.7830012 139.0624997  45.3229988 144.5880012 139.6674997  44.6079988
 144.9640012 138.2284997  44.8889988 144.7807614 139.0326300  45.1664405
 135.9960012 139.2994997  50.6469988 135.9580012 139.6994997  51.5159988
 135.5050012 138.4824997  50.7379988 135.9244684 139.2438069  50.7781059
 139.3620012 136.6734997  37.4459988 138.9310012 136.2284997  38.1759988
 138.6440012 137.0454997  36.9339988 139.2059438 136.6628940  37.4766799
 132.6040012 136.4154997  44.4979988 133.2350012 136.3864997  45.2169988
 133.0530012 135.9904997  43.7679988 132.7510774 136.3540492  44.4976553
 133.8780012 137.1614997  39.9219988 134.3520012 137.7524997  39.3369988
 133.1610012 137.6924997  40.2689988 133.8459341 137.3140867  39.8888836
 144.0470012 140.7004997  49.9949988 144.3700012 140.0694997  49.3519988
 143.6070012 140.1654997  50.6549988 144.0316895 140.5418441  49.9962850
 140.8240012 136.6274997  44.7789988 139.9130012 136.6844997  45.0669988
 141.3300012 136.5674997  45.5889988 140.7675413 136.6271985  44.9280622
 135.6530012 138.2564997  43.6049988 134.7630012 138.3564997  43.2649988
 135.9490012 137.4144997  43.2589988 135.5712823 138.1563545  43.5117213
 139.3060012 138.2564997  41.2619988 140.2370012 138.3854997  41.4399988
 139.0910012 138.9264997  40.6119988 139.4044247 138.3646565  41.1985747
 137.9800012 139.4514997  38.8289988 137.4370012 139.0714997  38.1369988
 138.8130012 139.6454997  38.3999988 138.0184399 139.4258124  38.6764526
 136.1150012 144.0084997  53.9279988 136.8470012 144.2624997  54.4889988
 135.3350012 144.2124997  54.4429988 136.1098232 144.0709177  54.0745760
 142.1440012 139.4154997  46.6659988 142.7090012 138.8684997  46.1189988
 141.9970012 138.8934997  47.4539988 142.2012918 139.2702024  46.6978454
 137.1460012 135.5514997  43.0839988 136.8290012 134.6494997  43.0489988
 137.9280012 135.5534997  42.5309988 137.2082284 135.4281628  43.0044783
 140.7710012 137.8034997  49.0799988 139.9350012 138.2574997  49.1899988
 141.2950012 138.0794997  49.8319988 140.7274414 137.9029376  49.1967136
 141.3150012 144.0164997  40.7639988 140.5700012 143.5094997  40.4419988
 141.1810012 144.0654997  41.7109988 141.1948776 143.9536940  40.8478647
 142.8340012 144.2004997  52.0009988 142.4890012 143.8194997  52.8079988
 142.6340012 145.1344997  52.0729988 142.7598061 144.2745228  52.1210961
 136.4400012 143.3114997  46.5339988 137.1850012 143.3094997  45.9329988
 136.5180012 142.4884997  47.0159988 136.5525518 143.1999315  46.5168929
 133.4480012 141.7724997  51.8489988 133.6710012 141.3544997  52.6809988
 132.8460012 141.1594997  51.4259988 133.3971759 141.6324668  51.9057022
 140.4640012 141.2894997  54.0619988 140.1680012 141.1234997  53.1669988
 141.3960012 141.0694997  54.0509988 140.5494166 141.2370640  53.9380536
 134.5700012 141.6914997  38.5249988 135.1860012 142.3184997  38.9049988
 133.7080012 142.0074997  38.7969988 134.5377698 141.8199430  38.6137183
 140.2420012 144.4924997  43.5149988 140.0010012 145.4174997  43.5559988
 139.5010012 144.0334997  43.9109988 140.1088409 144.5571421  43.5741377
 144.3010012 144.7404997  49.5299988 143.8750012 144.5134997  50.3569988
 144.8810012 144.0024997  49.3479988 144.3211868 144.6095299  49.6185830
 135.0820012 136.5254997  51.4069988 134.1890012 136.8644997  51.3389988
 134.9830012 135.6704997  51.8249988 134.9464164 136.4562588  51.4542235
 135.9850012 143.6044997  40.0179988 135.2990012 143.9564997  40.5849988
 136.5070012 144.3674997  39.7709988 135.9616852 143.7558578  40.0622118
 143.8160012 136.2664997  50.2969988 144.5150012 136.3404997  50.9469988
 143.4350012 135.4024997  50.4509988 143.8601767 136.1597624  50.4068322
 144.6010012 135.9184997  41.3939988 144.8210012 136.3904997  40.5909988
 145.1590012 136.3134997  42.0639988 144.7064968 136.0364285  41.3747331
 141.8010012 137.6464997  42.2289988 142.6130012 138.1514997  42.2749988
 141.5560012 137.5014997  43.1429988 141.8790520 137.6960375  42.3588517
 142.3360012 138.6324997  51.4139988 142.4550012 139.2064997  52.1709988
 142.9920012 137.9444997  51.5279988 142.4409757 138.6181079  51.5330825
 142.6840012 134.7274997  43.1669988 142.3380012 135.3454997  43.8119988
 143.3430012 135.2284997  42.6859988 142.7257826 134.8795802  43.1900971
 138.3420012 135.7904997  39.8539988 138.2590012 136.6794997  40.2009988
 139.2320012 135.5254997  40.0859988 138.4509469 135.8761430  39.9327626
 134.9170012 138.8824997  38.0309988 134.8720012 139.8214997  38.2089988
 134.0290012 138.6464997  37.7609988 134.7908574 138.9791892  38.0188912
 135.7250012 133.6644997  46.7039988 135.4960012 133.7234997  45.7759988
 135.2820012 132.8724997  47.0099988 135.6338530 133.5655753  46.6184786
 133.8500012 144.0274997  55.1489988 133.9940012 143.1254997  54.8619988
 133.0780012 144.3134997  54.6609988 133.7653323 143.9428261  55.0437881
 138.1920012 144.3714997  37.2809988 138.2560012 143.5774997  37.8119988
 138.8450012 144.2524997  36.5909988 138.2890241 144.2467148  37.2604317
 140.5060012 143.9974997  54.5809988 140.1770012 144.2684997  53.7239988
 140.6580012 143.0564997  54.4939988 140.4814809 143.9073862  54.4518244
 134.6830012 141.2274997  54.5689988 135.0910012 140.3704997  54.4479988
 134.4230012 141.2424997  55.4899988 134.7037568 141.1120807  54.6769588
 139.3410012 142.3434997  39.5869988 138.8810012 141.8594997  40.2729988
 139.5960012 141.6754997  38.9509988 139.3124902 142.1868731  39.5949334
 138.6300012 140.2364997  51.9429988 138.0120012 140.9114997  52.2229988
 138.9740012 140.5574997  51.1099988 138.5919615 140.3722721  51.8686581
 140.4120012 140.5864997  37.8489988 140.2320012 140.4324997  36.9219988
 141.3620012 140.6944997  37.8939988 140.5157776 140.5800175  37.7281843
 143.6500012 142.7084997  55.2199988 144.6030012 142.7914997  55.1929988
 143.4890012 141.9964997  55.8399988 143.7586426 142.6236746  55.3000579
 138.9690012 137.5914997  53.0249988 139.1190012 136.8624997  52.4229988
 138.9720012 138.3684997  52.4659988 138.9899302 137.5967851  52.8670692
 139.3820012 135.9614997  50.5179988 139.9180012 136.4124997  49.8659988
 138.5300012 135.8534997  50.0949988 139.3402178 136.0086390  50.3715756
 140.9640012 141.4004997  50.7569988 141.7140012 141.2444997  50.1839988
 140.6250012 142.2524997  50.4819988 141.0208921 141.4942968  50.6413561
 137.4480012 138.7894997  54.9369988 136.6810012 138.2574997  54.7269988
 138.1270012 138.4794997  54.3369988 137.4347022 138.6747506  54.8271648
 140.1880012 133.4174997  50.9489988 140.0890012 134.3644997  50.8439988
 139.4450012 133.0454997  50.4739988 140.0740564 133.4965902  50.8704560
 141.4520012 137.7394997  54.5129988 141.2160012 137.5194997  55.4149988
 140.6680012 137.5324997  54.0029988 141.3138628 137.6814760  54.5673932
 144.1670012 136.8664997  53.5889988 143.2200012 136.8984997  53.7209988
 144.4800012 136.2414997  54.2419988 144.0795475 136.7863207  53.6954455
 135.6280012 136.7104997  54.6409988 135.8400012 136.0034997  54.0309988
 135.5170012 136.2724997  55.4849988 135.6419721 136.5547084  54.6716843
 140.4090012 132.7114997  53.6209988 141.1210012 132.0714997  53.6069988
 140.3080012 132.9784997  52.7069988 140.4927939 132.6599938  53.4955650
 140.7630012 134.3944997  55.6739988 140.6310012 133.9184997  54.8539988
 140.1640012 135.1384997  55.6189988 140.6639071 134.4299618  55.5542886
 133.4770012 142.4624997  47.6669988 133.6610012 142.3804997  46.7309988
 134.3260012 142.3384997  48.0909988 133.6170139 142.4345003  47.5961455
 133.0740012 137.7334997  53.8079988 133.9940012 137.6114997  54.0439988
 132.6250012 136.9834997  54.1969988 133.1391580 137.6153727  53.8929006
 134.2950012 136.0454997  46.6989988 134.7410012 135.2534997  47.0009988
 134.7620012 136.7614997  47.1299988 134.4190172 136.0340624  46.7984820
 132.5990012 139.0444997  47.7679988 133.0910012 138.8234997  46.9769988
 132.9620012 139.8854997  48.0489988 132.7153126 139.1278357  47.6977531
 132.9130012 135.3024997  41.8219988 131.9880012 135.5114997  41.6929988
 133.3670012 135.7864997  41.1329988 132.8477368 135.3965993  41.7111226
 132.8770012 134.0404997  50.1669988 132.2120012 133.7944997  50.8099988
 132.4340012 134.6624997  49.5889988 132.7260956 134.0908632  50.1769352
 143.0260012 134.9134997  46.1749988 142.3520012 134.2844997  46.4309988
 143.5900012 134.4294997  45.5719988 143.0099230 134.7618744  46.1285340
 135.3530012 133.5474997  43.9969988 134.5760012 133.3134997  43.4899988
 135.8830012 132.7504997  44.0059988 135.3182330 133.4076988  43.9287742
 134.1890012 133.3454997  39.8009988 134.6280012 133.9564997  39.2089988
 133.5560012 133.8834997  40.2749988 134.1634514 133.5019257  39.7840930
 139.9320012 133.4744997  43.8109988 140.8070012 133.8624997  43.7809988
 139.7960012 133.2594997  44.7329988 140.0333695 133.4985184  43.9316440
 136.0500012 135.2614997  38.2429988 136.5420012 134.6314997  37.7159988
 136.6740012 135.5574997  38.9069988 136.2015446 135.2153199  38.2605980
 141.0760012 135.5544997  40.6999988 141.2540012 134.9084997  41.3829988
 141.0230012 136.3884997  41.1679988 141.0931829 135.5787985  40.8565940
 135.3110012 134.0614997  53.5149988 134.9450012 133.2964997  53.9579988
 136.2240012 134.0904997  53.8019988 135.3842790 133.9607224  53.6144070
 137.2840012 133.4124997  55.0509988 138.1820012 133.1384997  54.8659988
 136.8970012 132.6694997  55.5149988 137.3546612 133.2745914  55.0883643
   1.2740012   7.6914997  61.7519988   0.8270012   8.5374997  61.7329988
   0.7130012   7.1114997  61.2359988   1.1369900   7.7289916  61.6796801
  12.2370012  13.3124997  61.8549988  11.9410012  12.9904997  61.0039988
  11.9120012  14.2124997  61.8959988  12.1526371  13.3900215  61.7441801
   1.9650012  13.1234997  60.1679988   1.6930012  13.3524997  59.2789988
   2.0110012  13.9614997  60.6279988   1.9340094  13.2681213  60.1085697
  15.0020012  14.4274997  62.0139988  14.7440012  13.7374997  61.4029988
  15.0730012  13.9844997  62.8599988  14.9762856  14.2732124  62.0446885
  11.1610012   9.9554997  60.2639988  10.4490012  10.4904997  59.9119988
  11.8520012  10.0114997  59.6039988  11.1570132  10.0362543  60.1266289
  11.2140012   8.4134997  57.3029988  11.9150012   8.4354997  57.9539988
  11.5170012   7.7854997  56.6469988  11.3507830   8.3316566  57.3033711
  13.4370012   9.3274997  58.9009988  14.0170012   9.4774997  59.6479988
  13.8510012   9.7984997  58.1779988  13.5722830   9.4116841  58.9054134
  11.1640012  16.0644997  62.3359988  11.6380012  16.3594997  63.1139988
  10.6010012  16.8024997  62.1029988  11.1527653  16.2046932  62.4110136
  17.1360012   1.0774997  58.7139988  16.2360012   1.2164997  59.0089988
  17.3880012   1.9084997  58.3119988  17.0468702   1.2089074  58.7000205
   5.2020012   9.8654997  60.6879988   4.9100012  10.6334997  60.1969988
   4.5280012   9.2054997  60.5249988   5.0709081   9.8814406  60.5987340
  18.3250012  15.4434997  57.0899988  18.3990012  16.3824997  57.2609988
  19.2310012  15.1384997  57.0339988  18.4575100  15.5306722  57.1058119
  13.7380012  18.1744997  57.7529988  14.1130012  17.4304997  57.2829988
  13.7420012  17.9044997  58.6719988  13.7898915  18.0361486  57.8127824
  14.9150012  10.3604997  56.5309988  14.9570012  10.1374997  55.6009988
  15.7640012  10.7594997  56.7209988  15.0355396  10.3839155  56.4293627
  10.4870012   4.2364997  57.2009988  10.2340012   4.2554997  58.1239988
  10.2310012   3.3644997  56.8999988  10.4177790   4.1212437  57.2866263
   7.3700012   4.6814997  56.3019988   6.9390012   4.2364997  57.0319988
   6.6520012   5.0534997  55.7899988   7.2139438   4.6708940  56.3326799
   1.8860012   5.1694997  58.7779988   2.3600012   5.7604997  58.1929988
   1.1690012   5.7004997  59.1249988   1.8539341   5.3220867  58.7448836
   7.3140012   6.2644997  60.1179988   8.2450012   6.3934997  60.2959988
   7.0990012   6.9344997  59.4679988   7.4124247   6.3726565  60.0545747
   5.9880012   7.4594997  57.6849988   5.4450012   7.0794997  56.9929988
   6.8210012   7.6534997  57.2559988   6.0264399   7.4338124  57.5324526
   9.3230012  12.0244997  59.6199988   8.5780012  11.5174997  59.2979988
   9.1890012  12.0734997  60.5669988   9.2028776  11.9616940  59.7038647
  13.2210012   4.8384997  57.8199988  12.2820012   4.9504997  57.6679988
  13.5180012   5.6954997  58.1259988  13.1327666   4.9696443  57.8405768
  13.9390012   6.7054997  59.4799988  14.8310012   6.5684997  59.7989988
  13.9960012   7.4964997  58.9439988  14.0686285   6.7936660  59.4511691
  11.4490012  13.4834997  58.6459988  11.1530012  14.3094997  59.0269988
  10.7460012  12.8634997  58.8419988  11.3134914  13.5128199  58.7246443
  18.8240012   6.9154997  59.1749988  18.2700012   6.5194997  58.5029988
  18.9240012   7.8254997  58.8969988  18.7617059   6.9843586  59.0454401
  17.1190012  15.7014997  59.6399988  16.7460012  14.8754997  59.9489988
  17.3970012  15.5184997  58.7429988  17.1055630  15.5637303  59.5609626
   2.5780012   9.6994997  57.3809988   3.1940012  10.3264997  57.7609988
   1.7160012  10.0154997  57.6529988   2.5457698   9.8279430  57.4697183
  14.5120012  13.6774997  57.4599988  14.8650012  13.2974997  58.2649988
  13.5630012  13.5844997  57.5469988  14.4320441  13.6129596  57.5818559
  19.0150012  18.1574997  57.6609988  19.7590012  18.7434997  57.5209988
  18.3210012  18.7254997  57.9949988  19.0230292  18.3145582  57.6869961
  15.3780012  12.3504997  59.6869988  15.1000012  11.6224997  60.2429988
  16.3050012  12.4694997  59.8919988  15.4653124  12.2668802  59.7908845
   8.6030012  14.7894997  55.9069988   8.8420012  14.0414997  55.3599988
   8.3340012  14.4014997  56.7399988   8.5993675  14.6346638  55.9446865
   7.5400012  14.3594997  58.3639988   7.6860012  13.8394997  59.1539988
   7.5370012  15.2664997  58.6699988   7.5595989  14.4108853  58.5136088
   3.9930012  11.6124997  58.8739988   3.3070012  11.9644997  59.4409988
   4.5150012  12.3754997  58.6269988   3.9696852  11.7638578  58.9182118
  12.6090012   3.9264997  60.2499988  12.8290012   4.3984997  59.4469988
  13.1670012   4.3214997  60.9199988  12.7144968   4.0444285  60.2307331
  10.2770012  16.0574997  59.1129988   9.4610012  16.5544997  59.1649988
  10.8070012  16.5324997  58.4729988  10.2369161  16.1897722  59.0335956
   9.8090012   5.6544997  61.0849988  10.6210012   6.1594997  61.1309988
   9.5640012   5.5094997  61.9989988   9.8870520   5.7040375  61.2148517
   6.3500012   3.7984997  58.7099988   6.2670012   4.6874997  59.0569988
   7.2400012   3.5334997  58.9419988   6.4589469   3.8841430  58.7887626
   4.6090012  14.2264997  57.7709988   5.2010012  14.9254997  58.0469988
   5.0680012  13.7934997  57.0509988   4.7521142  14.2637049  57.7114830
   2.9250012   6.8904997  56.8869988   2.8800012   7.8294997  57.0649988
   2.0370012   6.6544997  56.6169988   2.7988574   6.9871892  56.8748912
   2.6630012  15.6124997  61.7199988   1.8310012  16.0854997  61.7479988
   3.2090012  16.1224997  61.1219988   2.6229739  15.7461871  61.6429716
  10.6410012  16.6524997  56.0459988   9.9970012  16.0214997  56.3669988
  11.4030012  16.1214997  55.8139988  10.6558077  16.4942920  56.0586011
  15.2450012  16.4694997  56.2799988  15.5280012  15.6754997  56.7319988
  15.9850012  16.7024997  55.7189988  15.3837486  16.3922803  56.2660698
   6.2000012  12.3794997  56.1369988   6.2640012  11.5854997  56.6679988
   6.8530012  12.2604997  55.4469988   6.2970241  12.2547148  56.1164317
  11.5520012  13.4264997  55.8729988  11.2830012  13.6064997  56.7739988
  11.3460012  12.5004997  55.7419988  11.4873825  13.3260152  55.9785214
   7.3490012  10.3514997  58.4429988   6.8890012   9.8674997  59.1289988
   7.6040012   9.6834997  57.8069988   7.3204902  10.1948731  58.4509334
   8.4200012   8.5944997  56.7049988   8.2400012   8.4404997  55.7779988
   9.3700012   8.7024997  56.7499988   8.5237776   8.5880175  56.5841843
  17.8100012  10.9494997  56.1509988  17.5360012  10.5244997  55.3379988
  17.8490012  11.8804997  55.9339988  17.7777699  11.0172484  56.0103610
   8.3170012  19.2854997  57.7069988   9.2500012  19.4434997  57.8499988
   8.0530012  19.9604997  57.0819988   8.4089510  19.3983611  57.6420741
   1.8860012  13.9214997  57.1889988   2.8000012  14.0004997  57.4629988
   1.8930012  13.2344997  56.5229988   2.0121131  13.8393961  57.1364393
   0.5350012  19.3144997  62.2669988  -0.1119988  18.8524997  61.7339988
   0.8890012  18.6424997  62.8489988   0.4943849  19.1604723  62.2727959
  18.9310012   9.7724997  58.3409988  18.4090012  10.1294997  57.6219988
  18.8980012  10.4474997  59.0189988  18.8551634   9.9125413  58.3343145
  17.2800012   7.0124997  56.8919988  17.3760012   7.6794997  56.2109988
  17.1400012   6.1964997  56.4099988  17.2742135   6.9934500  56.7338491
  16.5270012   4.4204997  56.0089988  17.1380012   4.0494997  56.6459988
  15.6910012   3.9994997  56.2049988  16.4975032   4.3127554  56.1227035
  16.7730012   3.2384997  61.0229988  16.9560012   2.7894997  61.8489988
  16.1740012   2.6534997  60.5599988  16.7170202   3.0979975  61.0733275
  18.6400012   3.3054997  57.5509988  19.0520012   2.5844997  57.0759988
  19.3220012   3.9754997  57.6099988  18.7885885   3.2972368  57.4938915
   0.9210012   3.3104997  60.6779988  -0.0039988   3.5194997  60.5489988
   1.3750012   3.7944997  59.9889988   0.8557368   3.4045993  60.5671226
   2.1970012   1.3534997  58.6569988   2.6360012   1.9644997  58.0649988
   1.5640012   1.8914997  59.1309988   2.1714514   1.5099257  58.6400930
  14.8500012   1.5384997  60.0079988  14.1480012   2.1534997  59.7989988
  14.4060012   0.7004997  60.1389988  14.6936330   1.5095783  59.9970328
   2.0980012  17.3014997  59.5549988   1.4130012  17.2634997  58.8869988
   2.1020012  18.2144997  59.8429988   2.0048193  17.4197016  59.5025284
   4.0580012   3.2694997  57.0989988   4.5500012   2.6394997  56.5719988
   4.6820012   3.5654997  57.7629988   4.2095446   3.2233199  57.1165980
   9.0840012   3.5624997  59.5559988   9.2620012   2.9164997  60.2389988
   9.0310012   4.3964997  60.0239988   9.1011829   3.5867985  59.7125940
  10.9630012  18.5114997  57.9519988  11.8290012  18.8774997  57.7739988
  10.7160012  18.0714997  57.1379988  11.0482392  18.5021756  57.8176289
  17.6720012  18.0744997  60.6309988  17.4770012  17.3264997  60.0659988
  17.6330012  18.8324997  60.0479988  17.6400380  18.0746099  60.4748384
   3.9160012  18.2214997  56.5799988   3.6490012  18.5084997  57.4529988
   4.6880012  17.6754997  56.7319988   3.9837488  18.1870294  56.7201050
  20.8210012  13.1234997  60.1679988  20.5490012  13.3524997  59.2789988
  20.8670012  13.9614997  60.6279988  20.7900094  13.2681213  60.1085697
  33.8580012  14.4274997  62.0139988  33.6000012  13.7374997  61.4029988
  33.9290012  13.9844997  62.8599988  33.8322856  14.2732124  62.0446885
  30.0700012   8.4134997  57.3029988  30.7710012   8.4354997  57.9539988
  30.3730012   7.7854997  56.6469988  30.2067830   8.3316566  57.3033711
  35.9920012   1.0774997  58.7139988  35.0920012   1.2164997  59.0089988
  36.2440012   1.9084997  58.3119988  35.9028702   1.2089074  58.7000205
  24.0580012   9.8654997  60.6879988  23.7660012  10.6334997  60.1969988
  23.3840012   9.2054997  60.5249988  23.9269081   9.8814406  60.5987340
  37.1810012  15.4434997  57.0899988  37.2550012  16.3824997  57.2609988
  38.0870012  15.1384997  57.0339988  37.3135100  15.5306722  57.1058119
  32.5940012  18.1744997  57.7529988  32.9690012  17.4304997  57.2829988
  32.5980012  17.9044997  58.6719988  32.6458915  18.0361486  57.8127824
  32.2630012  18.1004997  60.5029988  31.3270012  18.2004997  60.6809988
  32.5430012  17.3914997  61.0809988  32.1728255  18.0182711  60.6055391
  33.7710012  10.3604997  56.5309988  33.8130012  10.1374997  55.6009988
  34.6200012  10.7594997  56.7209988  33.8915396  10.3839155  56.4293627
  29.3430012   4.2364997  57.2009988  29.0900012   4.2554997  58.1239988
  29.0870012   3.3644997  56.8999988  29.2737790   4.1212437  57.2866263
  26.2260012   4.6814997  56.3019988  25.7950012   4.2364997  57.0319988
  25.5080012   5.0534997  55.7899988  26.0699438   4.6708940  56.3326799
  20.7420012   5.1694997  58.7779988  21.2160012   5.7604997  58.1929988
  20.0250012   5.7004997  59.1249988  20.7099341   5.3220867  58.7448836
  24.8440012   7.4594997  57.6849988  24.3010012   7.0794997  56.9929988
  25.6770012   7.6534997  57.2559988  24.8824399   7.4338124  57.5324526
  28.1790012  12.0244997  59.6199988  27.4340012  11.5174997  59.2979988
  28.0450012  12.0734997  60.5669988  28.0588776  11.9616940  59.7038647
  32.0770012   4.8384997  57.8199988  31.1380012   4.9504997  57.6679988
  32.3740012   5.6954997  58.1259988  31.9887666   4.9696443  57.8405768
  32.7950012   6.7054997  59.4799988  33.6870012   6.5684997  59.7989988
  32.8520012   7.4964997  58.9439988  32.9246285   6.7936660  59.4511691
  30.3050012  13.4834997  58.6459988  30.0090012  14.3094997  59.0269988
  29.6020012  12.8634997  58.8419988  30.1694914  13.5128199  58.7246443
  37.6800012   6.9154997  59.1749988  37.1260012   6.5194997  58.5029988
  37.7800012   7.8254997  58.8969988  37.6177059   6.9843586  59.0454401
  35.9750012  15.7014997  59.6399988  35.6020012  14.8754997  59.9489988
  36.2530012  15.5184997  58.7429988  35.9615630  15.5637303  59.5609626
  21.4340012   9.6994997  57.3809988  22.0500012  10.3264997  57.7609988
  20.5720012  10.0154997  57.6529988  21.4017698   9.8279430  57.4697183
  25.7890012  17.5224997  61.9159988  24.8390012  17.6274997  61.9669988
  26.1410012  18.3424997  62.2609988  25.7064203  17.6478314  61.9696650
  33.3680012  13.6774997  57.4599988  33.7210012  13.2974997  58.2649988
  32.4190012  13.5844997  57.5469988  33.2880441  13.6129596  57.5818559
  37.8710012  18.1574997  57.6609988  38.6150012  18.7434997  57.5209988
  37.1770012  18.7254997  57.9949988  37.8790292  18.3145582  57.6869961
  34.2340012  12.3504997  59.6869988  33.9560012  11.6224997  60.2429988
  35.1610012  12.4694997  59.8919988  34.3213124  12.2668802  59.7908845
  27.4590012  14.7894997  55.9069988  27.6980012  14.0414997  55.3599988
  27.1900012  14.4014997  56.7399988  27.4553675  14.6346638  55.9446865
  26.3960012  14.3594997  58.3639988  26.5420012  13.8394997  59.1539988
  26.3930012  15.2664997  58.6699988  26.4155989  14.4108853  58.5136088
  22.8490012  11.6124997  58.8739988  22.1630012  11.9644997  59.4409988
  23.3710012  12.3754997  58.6269988  22.8256852  11.7638578  58.9182118
  29.1330012  16.0574997  59.1129988  28.3170012  16.5544997  59.1649988
  29.6630012  16.5324997  58.4729988  29.0929161  16.1897722  59.0335956
  26.4720012  17.1014997  59.0949988  26.6320012  17.9004997  58.5939988
  26.2740012  17.4074997  59.9799988  26.4671649  17.2524469  59.1459815
  25.2060012   3.7984997  58.7099988  25.1230012   4.6874997  59.0569988
  26.0960012   3.5334997  58.9419988  25.3149469   3.8841430  58.7887626
  23.4650012  14.2264997  57.7709988  24.0570012  14.9254997  58.0469988
  23.9240012  13.7934997  57.0509988  23.6081142  14.2637049  57.7114830
  21.7810012   6.8904997  56.8869988  21.7360012   7.8294997  57.0649988
  20.8930012   6.6544997  56.6169988  21.6548574   6.9871892  56.8748912
  29.4970012  16.6524997  56.0459988  28.8530012  16.0214997  56.3669988
  30.2590012  16.1214997  55.8139988  29.5118077  16.4942920  56.0586011
  34.1010012  16.4694997  56.2799988  34.3840012  15.6754997  56.7319988
  34.8410012  16.7024997  55.7189988  34.2397486  16.3922803  56.2660698
  25.0560012  12.3794997  56.1369988  25.1200012  11.5854997  56.6679988
  25.7090012  12.2604997  55.4469988  25.1530241  12.2547148  56.1164317
  30.4080012  13.4264997  55.8729988  30.1390012  13.6064997  56.7739988
  30.2020012  12.5004997  55.7419988  30.3433825  13.3260152  55.9785214
  26.2050012  10.3514997  58.4429988  25.7450012   9.8674997  59.1289988
  26.4600012   9.6834997  57.8069988  26.1764902  10.1948731  58.4509334
  27.2760012   8.5944997  56.7049988  27.0960012   8.4404997  55.7779988
  28.2260012   8.7024997  56.7499988  27.3797776   8.5880175  56.5841843
  36.6660012  10.9494997  56.1509988  36.3920012  10.5244997  55.3379988
  36.7050012  11.8804997  55.9339988  36.6337699  11.0172484  56.0103610
  27.1730012  19.2854997  57.7069988  28.1060012  19.4434997  57.8499988
  26.9090012  19.9604997  57.0819988  27.2649510  19.3983611  57.6420741
  20.7420012  13.9214997  57.1889988  21.6560012  14.0004997  57.4629988
  20.7490012  13.2344997  56.5229988  20.8681131  13.8393961  57.1364393
  37.1240012  11.8184997  60.1259988  37.9740012  12.2394997  60.2529988
  37.1300012  11.0784997  60.7329988  37.2411372  11.7760803  60.2254344
  37.7870012   9.7724997  58.3409988  37.2650012  10.1294997  57.6219988
  37.7540012  10.4474997  59.0189988  37.7111634   9.9125413  58.3343145
  36.1360012   7.0124997  56.8919988  36.2320012   7.6794997  56.2109988
  35.9960012   6.1964997  56.4099988  36.1302135   6.9934500  56.7338491
  35.3830012   4.4204997  56.0089988  35.9940012   4.0494997  56.6459988
  34.5470012   3.9994997  56.2049988  35.3535032   4.3127554  56.1227035
  35.6290012   3.2384997  61.0229988  35.8120012   2.7894997  61.8489988
  35.0300012   2.6534997  60.5599988  35.5730202   3.0979975  61.0733275
  37.4960012   3.3054997  57.5509988  37.9080012   2.5844997  57.0759988
  38.1780012   3.9754997  57.6099988  37.6445885   3.2972368  57.4938915
  19.7770012   3.3104997  60.6779988  18.8520012   3.5194997  60.5489988
  20.2310012   3.7944997  59.9889988  19.7117368   3.4045994  60.5671226
  21.0530012   1.3534997  58.6569988  21.4920012   1.9644997  58.0649988
  20.4200012   1.8914997  59.1309988  21.0274514   1.5099257  58.6400930
  33.7060012   1.5384997  60.0079988  33.0040012   2.1534997  59.7989988
  33.2620012   0.7004997  60.1389988  33.5496330   1.5095783  59.9970328
  20.9540012  17.3014997  59.5549988  20.2690012  17.2634997  58.8869988
  20.9580012  18.2144997  59.8429988  20.8608193  17.4197016  59.5025284
  22.9140012   3.2694997  57.0989988  23.4060012   2.6394997  56.5719988
  23.5380012   3.5654997  57.7629988  23.0655446   3.2233199  57.1165980
  27.9400012   3.5624997  59.5559988  28.1180012   2.9164997  60.2389988
  27.8870012   4.3964997  60.0239988  27.9571829   3.5867985  59.7125940
  29.8190012  18.5114997  57.9519988  30.6850012  18.8774997  57.7739988
  29.5720012  18.0714997  57.1379988  29.9042392  18.5021756  57.8176289
  22.7720012  18.2214997  56.5799988  22.5050012  18.5084997  57.4529988
  23.5440012  17.6754997  56.7319988  22.8397488  18.1870294  56.7201050
  48.8730012   9.9554997  60.2639988  48.1610012  10.4904997  59.9119988
  49.5640012  10.0114997  59.6039988  48.8690132  10.0362543  60.1266289
  48.9260012   8.4134997  57.3029988  49.6270012   8.4354997  57.9539988
  49.2290012   7.7854997  56.6469988  49.0627830   8.3316566  57.3033711
  51.1490012   9.3274997  58.9009988  51.7290012   9.4774997  59.6479988
  51.5630012   9.7984997  58.1779988  51.2842830   9.4116841  58.9054134
  54.8480012   1.0774997  58.7139988  53.9480012   1.2164997  59.0089988
  55.1000012   1.9084997  58.3119988  54.7588702   1.2089074  58.7000205
  56.0370012  15.4434997  57.0899988  56.1110012  16.3824997  57.2609988
  56.9430012  15.1384997  57.0339988  56.1695100  15.5306722  57.1058119
  48.3480012  19.0204997  60.7509988  48.2730012  18.8994997  59.8049988
  48.3810012  19.9704997  60.8699988  48.3421848  19.1322500  60.6374834
  51.4500012  18.1744997  57.7529988  51.8250012  17.4304997  57.2829988
  51.4540012  17.9044997  58.6719988  51.5018915  18.0361486  57.8127824
  51.1190012  18.1004997  60.5029988  50.1830012  18.2004997  60.6809988
  51.3990012  17.3914997  61.0809988  51.0288255  18.0182711  60.6055391
  52.6270012  10.3604997  56.5309988  52.6690012  10.1374997  55.6009988
  53.4760012  10.7594997  56.7209988  52.7475396  10.3839155  56.4293627
  48.1990012   4.2364997  57.2009988  47.9460012   4.2554997  58.1239988
  47.9430012   3.3644997  56.8999988  48.1297790   4.1212437  57.2866263
  49.4980012   7.6244997  61.3649988  49.0890012   8.4394997  61.0739988
  50.2190012   7.4844997  60.7509988  49.5394537   7.7172018  61.2421342
  45.0820012   4.6814997  56.3019988  44.6510012   4.2364997  57.0319988
  44.3640012   5.0534997  55.7899988  44.9259438   4.6708940  56.3326799
  39.5980012   5.1694997  58.7779988  40.0720012   5.7604997  58.1929988
  38.8810012   5.7004997  59.1249988  39.5659341   5.3220867  58.7448836
  45.0260012   6.2644997  60.1179988  45.9570012   6.3934997  60.2959988
  44.8110012   6.9344997  59.4679988  45.1244247   6.3726565  60.0545747
  43.7000012   7.4594997  57.6849988  43.1570012   7.0794997  56.9929988
  44.5330012   7.6534997  57.2559988  43.7384399   7.4338124  57.5324526
  50.9330012   4.8384997  57.8199988  49.9940012   4.9504997  57.6679988
  51.2300012   5.6954997  58.1259988  50.8447666   4.9696443  57.8405768
  51.6510012   6.7054997  59.4799988  52.5430012   6.5684997  59.7989988
  51.7080012   7.4964997  58.9439988  51.7806285   6.7936660  59.4511691
  49.1610012  13.4834997  58.6459988  48.8650012  14.3094997  59.0269988
  48.4580012  12.8634997  58.8419988  49.0254914  13.5128199  58.7246443
  56.5360012   6.9154997  59.1749988  55.9820012   6.5194997  58.5029988
  56.6360012   7.8254997  58.8969988  56.4737059   6.9843586  59.0454401
  54.8310012  15.7014997  59.6399988  54.4580012  14.8754997  59.9489988
  55.1090012  15.5184997  58.7429988  54.8175630  15.5637303  59.5609626
  40.2900012   9.6994997  57.3809988  40.9060012  10.3264997  57.7609988
  39.4280012  10.0154997  57.6529988  40.2577698   9.8279430  57.4697183
  52.2240012  13.6774997  57.4599988  52.5770012  13.2974997  58.2649988
  51.2750012  13.5844997  57.5469988  52.1440441  13.6129596  57.5818559
  56.7270012  18.1574997  57.6609988  57.4710012  18.7434997  57.5209988
  56.0330012  18.7254997  57.9949988  56.7350292  18.3145582  57.6869961
  53.0900012  12.3504997  59.6869988  52.8120012  11.6224997  60.2429988
  54.0170012  12.4694997  59.8919988  53.1773124  12.2668802  59.7908845
  46.3150012  14.7894997  55.9069988  46.5540012  14.0414997  55.3599988
  46.0460012  14.4014997  56.7399988  46.3113675  14.6346638  55.9446865
  45.2520012  14.3594997  58.3639988  45.3980012  13.8394997  59.1539988
  45.2490012  15.2664997  58.6699988  45.2715989  14.4108853  58.5136088
  41.7050012  11.6124997  58.8739988  41.0190012  11.9644997  59.4409988
  42.2270012  12.3754997  58.6269988  41.6816852  11.7638578  58.9182118
  50.3210012   3.9264997  60.2499988  50.5410012   4.3984997  59.4469988
  50.8790012   4.3214997  60.9199988  50.4264968   4.0444285  60.2307331
  47.9890012  16.0574997  59.1129988  47.1730012  16.5544997  59.1649988
  48.5190012  16.5324997  58.4729988  47.9489161  16.1897722  59.0335956
  47.5210012   5.6544997  61.0849988  48.3330012   6.1594997  61.1309988
  47.2760012   5.5094997  61.9989988  47.5990520   5.7040375  61.2148517
  45.3280012  17.1014997  59.0949988  45.4880012  17.9004997  58.5939988
  45.1300012  17.4074997  59.9799988  45.3231649  17.2524469  59.1459815
  42.3210012  14.2264997  57.7709988  42.9130012  14.9254997  58.0469988
  42.7800012  13.7934997  57.0509988  42.4641142  14.2637049  57.7114830
  40.6370012   6.8904997  56.8869988  40.5920012   7.8294997  57.0649988
  39.7490012   6.6544997  56.6169988  40.5108574   6.9871892  56.8748912
  48.3530012  16.6524997  56.0459988  47.7090012  16.0214997  56.3669988
  49.1150012  16.1214997  55.8139988  48.3678077  16.4942920  56.0586011
  52.9570012  16.4694997  56.2799988  53.2400012  15.6754997  56.7319988
  53.6970012  16.7024997  55.7189988  53.0957486  16.3922803  56.2660698
  43.9120012  12.3794997  56.1369988  43.9760012  11.5854997  56.6679988
  44.5650012  12.2604997  55.4469988  44.0090241  12.2547148  56.1164317
  49.2640012  13.4264997  55.8729988  48.9950012  13.6064997  56.7739988
  49.0580012  12.5004997  55.7419988  49.1993825  13.3260152  55.9785214
  45.0610012  10.3514997  58.4429988  44.6010012   9.8674997  59.1289988
  45.3160012   9.6834997  57.8069988  45.0324902  10.1948731  58.4509334
  46.1320012   8.5944997  56.7049988  45.9520012   8.4404997  55.7779988
  47.0820012   8.7024997  56.7499988  46.2357776   8.5880175  56.5841843
  55.5220012  10.9494997  56.1509988  55.2480012  10.5244997  55.3379988
  55.5610012  11.8804997  55.9339988  55.4897699  11.0172484  56.0103610
  46.0290012  19.2854997  57.7069988  46.9620012  19.4434997  57.8499988
  45.7650012  19.9604997  57.0819988  46.1209510  19.3983611  57.6420741
  39.5980012  13.9214997  57.1889988  40.5120012  14.0004997  57.4629988
  39.6050012  13.2344997  56.5229988  39.7241131  13.8393961  57.1364393
  55.9800012  11.8184997  60.1259988  56.8300012  12.2394997  60.2529988
  55.9860012  11.0784997  60.7329988  56.0971372  11.7760803  60.2254344
  56.6430012   9.7724997  58.3409988  56.1210012  10.1294997  57.6219988
  56.6100012  10.4474997  59.0189988  56.5671634   9.9125413  58.3343145
  54.9920012   7.0124997  56.8919988  55.0880012   7.6794997  56.2109988
  54.8520012   6.1964997  56.4099988  54.9862135   6.9934500  56.7338491
  54.2390012   4.4204997  56.0089988  54.8500012   4.0494997  56.6459988
  53.4030012   3.9994997  56.2049988  54.2095032   4.3127554  56.1227035
  54.4850012   3.2384997  61.0229988  54.6680012   2.7894997  61.8489988
  53.8860012   2.6534997  60.5599988  54.4290202   3.0979975  61.0733275
  56.3520012   3.3054997  57.5509988  56.7640012   2.5844997  57.0759988
  57.0340012   3.9754997  57.6099988  56.5005885   3.2972368  57.4938915
  38.6330012   3.3104997  60.6779988  37.7080012   3.5194997  60.5489988
  39.0870012   3.7944997  59.9889988  38.5677368   3.4045993  60.5671226
  39.9090012   1.3534997  58.6569988  40.3480012   1.9644997  58.0649988
  39.2760012   1.8914997  59.1309988  39.8834514   1.5099257  58.6400930
  52.5620012   1.5384997  60.0079988  51.8600012   2.1534997  59.7989988
  52.1180012   0.7004997  60.1389988  52.4056330   1.5095783  59.9970328
  39.8100012  17.3014997  59.5549988  39.1250012  17.2634997  58.8869988
  39.8140012  18.2144997  59.8429988  39.7168193  17.4197016  59.5025284
  41.7700012   3.2694997  57.0989988  42.2620012   2.6394997  56.5719988
  42.3940012   3.5654997  57.7629988  41.9215446   3.2233199  57.1165980
  48.6750012  18.5114997  57.9519988  49.5410012  18.8774997  57.7739988
  48.4280012  18.0714997  57.1379988  48.7602392  18.5021756  57.8176289
  55.3840012  18.0744997  60.6309988  55.1890012  17.3264997  60.0659988
  55.3450012  18.8324997  60.0479988  55.3520380  18.0746099  60.4748384
  41.6280012  18.2214997  56.5799988  41.3610012  18.5084997  57.4529988
  42.4000012  17.6754997  56.7319988  41.6957488  18.1870294  56.7201050
  68.8050012  13.3124997  61.8549988  68.5090012  12.9904997  61.0039988
  68.4800012  14.2124997  61.8959988  68.7206371  13.3900215  61.7441801
  67.7820012   8.4134997  57.3029988  68.4830012   8.4354997  57.9539988
  68.0850012   7.7854997  56.6469988  67.9187830   8.3316566  57.3033711
  71.1340012  10.1654997  61.2159988  70.4020012  10.3934997  61.7889988
  71.5820012   9.4514997  61.6709988  71.0943095  10.1002571  61.3559119
  73.7040012   1.0774997  58.7139988  72.8040012   1.2164997  59.0089988
  73.9560012   1.9084997  58.3119988  73.6148702   1.2089074  58.7000205
  61.7700012   9.8654997  60.6879988  61.4780012  10.6334997  60.1969988
  61.0960012   9.2054997  60.5249988  61.6389081   9.8814406  60.5987340
  74.8930012  15.4434997  57.0899988  74.9670012  16.3824997  57.2609988
  75.7990012  15.1384997  57.0339988  75.0255100  15.5306722  57.1058119
  70.3060012  18.1744997  57.7529988  70.6810012  17.4304997  57.2829988
  70.3100012  17.9044997  58.6719988  70.3578915  18.0361486  57.8127824
  71.4830012  10.3604997  56.5309988  71.5250012  10.1374997  55.6009988
  72.3320012  10.7594997  56.7209988  71.6035396  10.3839155  56.4293627
  67.0550012   4.2364997  57.2009988  66.8020012   4.2554997  58.1239988
  66.7990012   3.3644997  56.8999988  66.9857790   4.1212437  57.2866263
  63.9380012   4.6814997  56.3019988  63.5070012   4.2364997  57.0319988
  63.2200012   5.0534997  55.7899988  63.7819438   4.6708940  56.3326799
  58.4540012   5.1694997  58.7779988  58.9280012   5.7604997  58.1929988
  57.7370012   5.7004997  59.1249988  58.4219341   5.3220867  58.7448836
  63.8820012   6.2644997  60.1179988  64.8130012   6.3934997  60.2959988
  63.6670012   6.9344997  59.4679988  63.9804247   6.3726565  60.0545747
  62.5560012   7.4594997  57.6849988  62.0130012   7.0794997  56.9929988
  63.3890012   7.6534997  57.2559988  62.5944399   7.4338124  57.5324526
  65.8910012  12.0244997  59.6199988  65.1460012  11.5174997  59.2979988
  65.7570012  12.0734997  60.5669988  65.7708776  11.9616940  59.7038647
  69.7890012   4.8384997  57.8199988  68.8500012   4.9504997  57.6679988
  70.0860012   5.6954997  58.1259988  69.7007666   4.9696443  57.8405768
  68.0170012  13.4834997  58.6459988  67.7210012  14.3094997  59.0269988
  67.3140012  12.8634997  58.8419988  67.8814914  13.5128199  58.7246443
  75.3920012   6.9154997  59.1749988  74.8380012   6.5194997  58.5029988
  75.4920012   7.8254997  58.8969988  75.3297059   6.9843586  59.0454401
  59.1460012   9.6994997  57.3809988  59.7620012  10.3264997  57.7609988
  58.2840012  10.0154997  57.6529988  59.1137698   9.8279430  57.4697183
  71.0800012  13.6774997  57.4599988  71.4330012  13.2974997  58.2649988
  70.1310012  13.5844997  57.5469988  71.0000441  13.6129596  57.5818559
  75.5830012  18.1574997  57.6609988  76.3270012  18.7434997  57.5209988
  74.8890012  18.7254997  57.9949988  75.5910292  18.3145582  57.6869961
  65.1710012  14.7894997  55.9069988  65.4100012  14.0414997  55.3599988
  64.9020012  14.4014997  56.7399988  65.1673675  14.6346638  55.9446865
  64.1080012  14.3594997  58.3639988  64.2540012  13.8394997  59.1539988
  64.1050012  15.2664997  58.6699988  64.1275989  14.4108853  58.5136088
  60.5610012  11.6124997  58.8739988  59.8750012  11.9644997  59.4409988
  61.0830012  12.3754997  58.6269988  60.5376852  11.7638578  58.9182118
  69.1770012   3.9264997  60.2499988  69.3970012   4.3984997  59.4469988
  69.7350012   4.3214997  60.9199988  69.2824968   4.0444285  60.2307331
  67.2600012   2.7354997  62.0229988  66.9140012   3.3534997  62.6679988
  67.9190012   3.2364997  61.5419988  67.3017826   2.8875802  62.0460971
  62.9180012   3.7984997  58.7099988  62.8350012   4.6874997  59.0569988
  63.8080012   3.5334997  58.9419988  63.0269469   3.8841430  58.7887626
  61.1770012  14.2264997  57.7709988  61.7690012  14.9254997  58.0469988
  61.6360012  13.7934997  57.0509988  61.3201142  14.2637049  57.7114830
  59.4930012   6.8904997  56.8869988  59.4480012   7.8294997  57.0649988
  58.6050012   6.6544997  56.6169988  59.3668574   6.9871892  56.8748912
  67.2090012  16.6524997  56.0459988  66.5650012  16.0214997  56.3669988
  67.9710012  16.1214997  55.8139988  67.2238077  16.4942920  56.0586011
  71.8130012  16.4694997  56.2799988  72.0960012  15.6754997  56.7319988
  72.5530012  16.7024997  55.7189988  71.9517486  16.3922803  56.2660698
  62.7680012  12.3794997  56.1369988  62.8320012  11.5854997  56.6679988
  63.4210012  12.2604997  55.4469988  62.8650241  12.2547148  56.1164317
  68.1200012  13.4264997  55.8729988  67.8510012  13.6064997  56.7739988
  67.9140012  12.5004997  55.7419988  68.0553825  13.3260152  55.9785214
  63.9170012  10.3514997  58.4429988  63.4570012   9.8674997  59.1289988
  64.1720012   9.6834997  57.8069988  63.8884902  10.1948731  58.4509334
  64.9880012   8.5944997  56.7049988  64.8080012   8.4404997  55.7779988
  65.9380012   8.7024997  56.7499988  65.0917776   8.5880175  56.5841843
  74.3780012  10.9494997  56.1509988  74.1040012  10.5244997  55.3379988
  74.4170012  11.8804997  55.9339988  74.3457699  11.0172484  56.0103610
  64.8850012  19.2854997  57.7069988  65.8180012  19.4434997  57.8499988
  64.6210012  19.9604997  57.0819988  64.9769510  19.3983611  57.6420741
  58.4540012  13.9214997  57.1889988  59.3680012  14.0004997  57.4629988
  58.4610012  13.2344997  56.5229988  58.5801131  13.8393961  57.1364393
  75.2310012   9.8714997  61.9499988  74.5040012   9.3924997  62.3469988
  75.8120012  10.0774997  62.6819988  75.2099375   9.8337090  62.1034129
  75.4990012   9.7724997  58.3409988  74.9770012  10.1294997  57.6219988
  75.4660012  10.4474997  59.0189988  75.4231634   9.9125413  58.3343145
  73.8480012   7.0124997  56.8919988  73.9440012   7.6794997  56.2109988
  73.7080012   6.1964997  56.4099988  73.8422135   6.9934500  56.7338491
  73.0950012   4.4204997  56.0089988  73.7060012   4.0494997  56.6459988
  72.2590012   3.9994997  56.2049988  73.0655032   4.3127554  56.1227035
  75.2080012   3.3054997  57.5509988  75.6200012   2.5844997  57.0759988
  75.8900012   3.9754997  57.6099988  75.3565885   3.2972368  57.4938915
  57.4890012   3.3104997  60.6779988  56.5640012   3.5194997  60.5489988
  57.9430012   3.7944997  59.9889988  57.4237368   3.4045993  60.5671226
  58.7650012   1.3534997  58.6569988  59.2040012   1.9644997  58.0649988
  58.1320012   1.8914997  59.1309988  58.7394514   1.5099257  58.6400930
  71.4180012   1.5384997  60.0079988  70.7160012   2.1534997  59.7989988
  70.9740012   0.7004997  60.1389988  71.2616330   1.5095783  59.9970328
  58.6660012  17.3014997  59.5549988  57.9810012  17.2634997  58.8869988
  58.6700012  18.2144997  59.8429988  58.5728193  17.4197016  59.5025284
  60.6260012   3.2694997  57.0989988  61.1180012   2.6394997  56.5719988
  61.2500012   3.5654997  57.7629988  60.7775446   3.2233199  57.1165980
  65.6520012   3.5624997  59.5559988  65.8300012   2.9164997  60.2389988
  65.5990012   4.3964997  60.0239988  65.6691829   3.5867985  59.7125940
  74.2400012  18.0744997  60.6309988  74.0450012  17.3264997  60.0659988
  74.2010012  18.8324997  60.0479988  74.2080380  18.0746099  60.4748384
  60.4840012  18.2214997  56.5799988  60.2170012  18.5084997  57.4529988
  61.2560012  17.6754997  56.7319988  60.5517488  18.1870294  56.7201050
  76.6980012   7.6914997  61.7519988  76.2510012   8.5374997  61.7329988
  76.1370012   7.1114997  61.2359988  76.5609900   7.7289916  61.6796801
  86.5850012   9.9554997  60.2639988  85.8730012  10.4904997  59.9119988
  87.2760012  10.0114997  59.6039988  86.5810132  10.0362543  60.1266289
  86.6380012   8.4134997  57.3029988  87.3390012   8.4354997  57.9539988
  86.9410012   7.7854997  56.6469988  86.7747830   8.3316566  57.3033711
  89.9900012  10.1654997  61.2159988  89.2580012  10.3934997  61.7889988
  90.4380012   9.4514997  61.6709988  89.9503095  10.1002571  61.3559119
  88.8610012   9.3274997  58.9009988  89.4410012   9.4774997  59.6479988
  89.2750012   9.7984997  58.1779988  88.9962830   9.4116841  58.9054134
  92.5600012   1.0774997  58.7139988  91.6600012   1.2164997  59.0089988
  92.8120012   1.9084997  58.3119988  92.4708702   1.2089074  58.7000205
  93.7490012  15.4434997  57.0899988  93.8230012  16.3824997  57.2609988
  94.6550012  15.1384997  57.0339988  93.8815100  15.5306722  57.1058119
  89.1620012  18.1744997  57.7529988  89.5370012  17.4304997  57.2829988
  89.1660012  17.9044997  58.6719988  89.2138915  18.0361486  57.8127824
  88.8310012  18.1004997  60.5029988  87.8950012  18.2004997  60.6809988
  89.1110012  17.3914997  61.0809988  88.7408255  18.0182711  60.6055391
  90.3390012  10.3604997  56.5309988  90.3810012  10.1374997  55.6009988
  91.1880012  10.7594997  56.7209988  90.4595396  10.3839155  56.4293627
  85.9110012   4.2364997  57.2009988  85.6580012   4.2554997  58.1239988
  85.6550012   3.3644997  56.8999988  85.8417790   4.1212437  57.2866263
  82.7940012   4.6814997  56.3019988  82.3630012   4.2364997  57.0319988
  82.0760012   5.0534997  55.7899988  82.6379438   4.6708940  56.3326799
  77.3100012   5.1694997  58.7779988  77.7840012   5.7604997  58.1929988
  76.5930012   5.7004997  59.1249988  77.2779341   5.3220867  58.7448836
  82.7380012   6.2644997  60.1179988  83.6690012   6.3934997  60.2959988
  82.5230012   6.9344997  59.4679988  82.8364247   6.3726565  60.0545747
  81.4120012   7.4594997  57.6849988  80.8690012   7.0794997  56.9929988
  82.2450012   7.6534997  57.2559988  81.4504399   7.4338124  57.5324526
  80.5780012   3.5594997  61.9399988  80.2610012   2.6574997  61.9049988
  81.3600012   3.5614997  61.3869988  80.6402284   3.4361628  61.8604783
  84.7470012  12.0244997  59.6199988  84.0020012  11.5174997  59.2979988
  84.6130012  12.0734997  60.5669988  84.6268776  11.9616940  59.7038647
  88.6450012   4.8384997  57.8199988  87.7060012   4.9504997  57.6679988
  88.9420012   5.6954997  58.1259988  88.5567666   4.9696443  57.8405768
  86.8730012  13.4834997  58.6459988  86.5770012  14.3094997  59.0269988
  86.1700012  12.8634997  58.8419988  86.7374914  13.5128199  58.7246443
  94.2480012   6.9154997  59.1749988  93.6940012   6.5194997  58.5029988
  94.3480012   7.8254997  58.8969988  94.1857059   6.9843586  59.0454401
  92.5430012  15.7014997  59.6399988  92.1700012  14.8754997  59.9489988
  92.8210012  15.5184997  58.7429988  92.5295630  15.5637303  59.5609626
  78.0020012   9.6994997  57.3809988  78.6180012  10.3264997  57.7609988
  77.1400012  10.0154997  57.6529988  77.9697698   9.8279430  57.4697183
  89.9360012  13.6774997  57.4599988  90.2890012  13.2974997  58.2649988
  88.9870012  13.5844997  57.5469988  89.8560441  13.6129596  57.5818559
  94.4390012  18.1574997  57.6609988  95.1830012  18.7434997  57.5209988
  93.7450012  18.7254997  57.9949988  94.4470292  18.3145582  57.6869961
  90.8020012  12.3504997  59.6869988  90.5240012  11.6224997  60.2429988
  91.7290012  12.4694997  59.8919988  90.8893124  12.2668802  59.7908845
  84.0270012  14.7894997  55.9069988  84.2660012  14.0414997  55.3599988
  83.7580012  14.4014997  56.7399988  84.0233675  14.6346638  55.9446865
  82.9640012  14.3594997  58.3639988  83.1100012  13.8394997  59.1539988
  82.9610012  15.2664997  58.6699988  82.9835989  14.4108853  58.5136088
  79.4170012  11.6124997  58.8739988  78.7310012  11.9644997  59.4409988
  79.9390012  12.3754997  58.6269988  79.3936852  11.7638578  58.9182118
  88.0330012   3.9264997  60.2499988  88.2530012   4.3984997  59.4469988
  88.5910012   4.3214997  60.9199988  88.1384968   4.0444285  60.2307331
  85.2330012   5.6544997  61.0849988  86.0450012   6.1594997  61.1309988
  84.9880012   5.5094997  61.9989988  85.3110520   5.7040375  61.2148517
  83.0400012  17.1014997  59.0949988  83.2000012  17.9004997  58.5939988
  82.8420012  17.4074997  59.9799988  83.0351649  17.2524469  59.1459815
  81.7740012   3.7984997  58.7099988  81.6910012   4.6874997  59.0569988
  82.6640012   3.5334997  58.9419988  81.8829469   3.8841430  58.7887626
  80.0330012  14.2264997  57.7709988  80.6250012  14.9254997  58.0469988
  80.4920012  13.7934997  57.0509988  80.1761142  14.2637049  57.7114830
  78.3490012   6.8904997  56.8869988  78.3040012   7.8294997  57.0649988
  77.4610012   6.6544997  56.6169988  78.2228574   6.9871892  56.8748912
  78.0870012  15.6124997  61.7199988  77.2550012  16.0854997  61.7479988
  78.6330012  16.1224997  61.1219988  78.0469739  15.7461871  61.6429716
  86.0650012  16.6524997  56.0459988  85.4210012  16.0214997  56.3669988
  86.8270012  16.1214997  55.8139988  86.0798077  16.4942920  56.0586011
  90.6690012  16.4694997  56.2799988  90.9520012  15.6754997  56.7319988
  91.4090012  16.7024997  55.7189988  90.8077486  16.3922803  56.2660698
  81.6240012  12.3794997  56.1369988  81.6880012  11.5854997  56.6679988
  82.2770012  12.2604997  55.4469988  81.7210241  12.2547148  56.1164317
  86.9760012  13.4264997  55.8729988  86.7070012  13.6064997  56.7739988
  86.7700012  12.5004997  55.7419988  86.9113825  13.3260152  55.9785214
  82.7730012  10.3514997  58.4429988  82.3130012   9.8674997  59.1289988
  83.0280012   9.6834997  57.8069988  82.7444902  10.1948731  58.4509334
  83.8440012   8.5944997  56.7049988  83.6640012   8.4404997  55.7779988
  84.7940012   8.7024997  56.7499988  83.9477776   8.5880175  56.5841843
  93.2340012  10.9494997  56.1509988  92.9600012  10.5244997  55.3379988
  93.2730012  11.8804997  55.9339988  93.2017699  11.0172484  56.0103610
  83.7410012  19.2854997  57.7069988  84.6740012  19.4434997  57.8499988
  83.4770012  19.9604997  57.0819988  83.8329510  19.3983611  57.6420741
  77.3100012  13.9214997  57.1889988  78.2240012  14.0004997  57.4629988
  77.3170012  13.2344997  56.5229988  77.4361131  13.8393961  57.1364393
  75.9590012  19.3144997  62.2669988  75.3120012  18.8524997  61.7339988
  76.3130012  18.6424997  62.8489988  75.9183849  19.1604723  62.2727959
  93.6920012  11.8184997  60.1259988  94.5420012  12.2394997  60.2529988
  93.6980012  11.0784997  60.7329988  93.8091372  11.7760803  60.2254344
  94.3550012   9.7724997  58.3409988  93.8330012  10.1294997  57.6219988
  94.3220012  10.4474997  59.0189988  94.2791634   9.9125413  58.3343145
  92.7040012   7.0124997  56.8919988  92.8000012   7.6794997  56.2109988
  92.5640012   6.1964997  56.4099988  92.6982135   6.9934500  56.7338491
  91.9510012   4.4204997  56.0089988  92.5620012   4.0494997  56.6459988
  91.1150012   3.9994997  56.2049988  91.9215032   4.3127554  56.1227035
  94.0640012   3.3054997  57.5509988  94.4760012   2.5844997  57.0759988
  94.7460012   3.9754997  57.6099988  94.2125885   3.2972368  57.4938915
  77.6210012   1.3534997  58.6569988  78.0600012   1.9644997  58.0649988
  76.9880012   1.8914997  59.1309988  77.5954514   1.5099257  58.6400930
  90.2740012   1.5384997  60.0079988  89.5720012   2.1534997  59.7989988
  89.8300012   0.7004997  60.1389988  90.1176330   1.5095783  59.9970328
  77.5220012  17.3014997  59.5549988  76.8370012  17.2634997  58.8869988
  77.5260012  18.2144997  59.8429988  77.4288193  17.4197016  59.5025284
  79.4820012   3.2694997  57.0989988  79.9740012   2.6394997  56.5719988
  80.1060012   3.5654997  57.7629988  79.6335446   3.2233199  57.1165980
  86.3870012  18.5114997  57.9519988  87.2530012  18.8774997  57.7739988
  86.1400012  18.0714997  57.1379988  86.4722392  18.5021756  57.8176289
  93.0960012  18.0744997  60.6309988  92.9010012  17.3264997  60.0659988
  93.0570012  18.8324997  60.0479988  93.0640380  18.0746099  60.4748384
  79.3400012  18.2214997  56.5799988  79.0730012  18.5084997  57.4529988
  80.1120012  17.6754997  56.7319988  79.4077488  18.1870294  56.7201050
 105.4410012   9.9554997  60.2639988 104.7290012  10.4904997  59.9119988
 106.1320012  10.0114997  59.6039988 105.4370132  10.0362543  60.1266289
 105.4940012   8.4134997  57.3029988 106.1950012   8.4354997  57.9539988
 105.7970012   7.7854997  56.6469988 105.6307830   8.3316566  57.3033711
 107.7170012   9.3274997  58.9009988 108.2970012   9.4774997  59.6479988
 108.1310012   9.7984997  58.1779988 107.8522830   9.4116841  58.9054134
 111.4160012   1.0774997  58.7139988 110.5160012   1.2164997  59.0089988
 111.6680012   1.9084997  58.3119988 111.3268702   1.2089074  58.7000205
  99.4820012   9.8654997  60.6879988  99.1900012  10.6334997  60.1969988
  98.8080012   9.2054997  60.5249988  99.3509081   9.8814406  60.5987340
 112.6050012  15.4434997  57.0899988 112.6790012  16.3824997  57.2609988
 113.5110012  15.1384997  57.0339988 112.7375100  15.5306722  57.1058119
 108.0180012  18.1744997  57.7529988 108.3930012  17.4304997  57.2829988
 108.0220012  17.9044997  58.6719988 108.0698915  18.0361486  57.8127824
 109.1950012  10.3604997  56.5309988 109.2370012  10.1374997  55.6009988
 110.0440012  10.7594997  56.7209988 109.3155396  10.3839155  56.4293627
 104.7670012   4.2364997  57.2009988 104.5140012   4.2554997  58.1239988
 104.5110012   3.3644997  56.8999988 104.6977790   4.1212437  57.2866263
 101.6500012   4.6814997  56.3019988 101.2190012   4.2364997  57.0319988
 100.9320012   5.0534997  55.7899988 101.4939438   4.6708940  56.3326799
  96.1660012   5.1694997  58.7779988  96.6400012   5.7604997  58.1929988
  95.4490012   5.7004997  59.1249988  96.1339341   5.3220867  58.7448836
 101.5940012   6.2644997  60.1179988 102.5250012   6.3934997  60.2959988
 101.3790012   6.9344997  59.4679988 101.6924247   6.3726565  60.0545747
 100.2680012   7.4594997  57.6849988  99.7250012   7.0794997  56.9929988
 101.1010012   7.6534997  57.2559988 100.3064399   7.4338124  57.5324526
 103.6030012  12.0244997  59.6199988 102.8580012  11.5174997  59.2979988
 103.4690012  12.0734997  60.5669988 103.4828776  11.9616940  59.7038647
 107.5010012   4.8384997  57.8199988 106.5620012   4.9504997  57.6679988
 107.7980012   5.6954997  58.1259988 107.4127666   4.9696443  57.8405768
 105.7290012  13.4834997  58.6459988 105.4330012  14.3094997  59.0269988
 105.0260012  12.8634997  58.8419988 105.5934914  13.5128199  58.7246443
 113.1040012   6.9154997  59.1749988 112.5500012   6.5194997  58.5029988
 113.2040012   7.8254997  58.8969988 113.0417059   6.9843586  59.0454401
 111.3990012  15.7014997  59.6399988 111.0260012  14.8754997  59.9489988
 111.6770012  15.5184997  58.7429988 111.3855630  15.5637303  59.5609626
  96.8580012   9.6994997  57.3809988  97.4740012  10.3264997  57.7609988
  95.9960012  10.0154997  57.6529988  96.8257698   9.8279430  57.4697183
 108.7920012  13.6774997  57.4599988 109.1450012  13.2974997  58.2649988
 107.8430012  13.5844997  57.5469988 108.7120441  13.6129596  57.5818559
 113.2950012  18.1574997  57.6609988 114.0390012  18.7434997  57.5209988
 112.6010012  18.7254997  57.9949988 113.3030292  18.3145582  57.6869961
 109.6580012  12.3504997  59.6869988 109.3800012  11.6224997  60.2429988
 110.5850012  12.4694997  59.8919988 109.7453124  12.2668802  59.7908845
 102.8830012  14.7894997  55.9069988 103.1220012  14.0414997  55.3599988
 102.6140012  14.4014997  56.7399988 102.8793675  14.6346638  55.9446865
 101.8200012  14.3594997  58.3639988 101.9660012  13.8394997  59.1539988
 101.8170012  15.2664997  58.6699988 101.8395989  14.4108853  58.5136088
  98.2730012  11.6124997  58.8739988  97.5870012  11.9644997  59.4409988
  98.7950012  12.3754997  58.6269988  98.2496852  11.7638578  58.9182118
 106.8890012   3.9264997  60.2499988 107.1090012   4.3984997  59.4469988
 107.4470012   4.3214997  60.9199988 106.9944968   4.0444285  60.2307331
 104.5570012  16.0574997  59.1129988 103.7410012  16.5544997  59.1649988
 105.0870012  16.5324997  58.4729988 104.5169161  16.1897722  59.0335956
 104.9720012   2.7354997  62.0229988 104.6260012   3.3534997  62.6679988
 105.6310012   3.2364997  61.5419988 105.0137826   2.8875802  62.0460971
 101.8960012  17.1014997  59.0949988 102.0560012  17.9004997  58.5939988
 101.6980012  17.4074997  59.9799988 101.8911649  17.2524469  59.1459815
 100.6300012   3.7984997  58.7099988 100.5470012   4.6874997  59.0569988
 101.5200012   3.5334997  58.9419988 100.7389469   3.8841430  58.7887626
  98.8890012  14.2264997  57.7709988  99.4810012  14.9254997  58.0469988
  99.3480012  13.7934997  57.0509988  99.0321142  14.2637049  57.7114830
  97.2050012   6.8904997  56.8869988  97.1600012   7.8294997  57.0649988
  96.3170012   6.6544997  56.6169988  97.0788574   6.9871892  56.8748912
  96.9430012  15.6124997  61.7199988  96.1110012  16.0854997  61.7479988
  97.4890012  16.1224997  61.1219988  96.9029739  15.7461871  61.6429716
 104.9210012  16.6524997  56.0459988 104.2770012  16.0214997  56.3669988
 105.6830012  16.1214997  55.8139988 104.9358077  16.4942920  56.0586011
 109.5250012  16.4694997  56.2799988 109.8080012  15.6754997  56.7319988
 110.2650012  16.7024997  55.7189988 109.6637486  16.3922803  56.2660698
 100.4800012  12.3794997  56.1369988 100.5440012  11.5854997  56.6679988
 101.1330012  12.2604997  55.4469988 100.5770241  12.2547148  56.1164317
 105.8320012  13.4264997  55.8729988 105.5630012  13.6064997  56.7739988
 105.6260012  12.5004997  55.7419988 105.7673825  13.3260152  55.9785214
 101.6290012  10.3514997  58.4429988 101.1690012   9.8674997  59.1289988
 101.8840012   9.6834997  57.8069988 101.6004902  10.1948731  58.4509334
 102.7000012   8.5944997  56.7049988 102.5200012   8.4404997  55.7779988
 103.6500012   8.7024997  56.7499988 102.8037776   8.5880175  56.5841843
 112.0900012  10.9494997  56.1509988 111.8160012  10.5244997  55.3379988
 112.1290012  11.8804997  55.9339988 112.0577699  11.0172484  56.0103610
 102.5970012  19.2854997  57.7069988 103.5300012  19.4434997  57.8499988
 102.3330012  19.9604997  57.0819988 102.6889510  19.3983611  57.6420741
  96.1660012  13.9214997  57.1889988  97.0800012  14.0004997  57.4629988
  96.1730012  13.2344997  56.5229988  96.2921131  13.8393961  57.1364393
 113.2110012   9.7724997  58.3409988 112.6890012  10.1294997  57.6219988
 113.1780012  10.4474997  59.0189988 113.1351634   9.9125413  58.3343145
 111.5600012   7.0124997  56.8919988 111.6560012   7.6794997  56.2109988
 111.4200012   6.1964997  56.4099988 111.5542135   6.9934500  56.7338491
 110.8070012   4.4204997  56.0089988 111.4180012   4.0494997  56.6459988
 109.9710012   3.9994997  56.2049988 110.7775032   4.3127554  56.1227035
 111.0530012   3.2384997  61.0229988 111.2360012   2.7894997  61.8489988
 110.4540012   2.6534997  60.5599988 110.9970202   3.0979975  61.0733275
 112.9200012   3.3054997  57.5509988 113.3320012   2.5844997  57.0759988
 113.6020012   3.9754997  57.6099988 113.0685885   3.2972368  57.4938915
 109.1300012   1.5384997  60.0079988 108.4280012   2.1534997  59.7989988
 108.6860012   0.7004997  60.1389988 108.9736330   1.5095783  59.9970328
  96.3780012  17.3014997  59.5549988  95.6930012  17.2634997  58.8869988
  96.3820012  18.2144997  59.8429988  96.2848193  17.4197016  59.5025284
  98.3380012   3.2694997  57.0989988  98.8300012   2.6394997  56.5719988
  98.9620012   3.5654997  57.7629988  98.4895446   3.2233199  57.1165980
 103.3640012   3.5624997  59.5559988 103.5420012   2.9164997  60.2389988
 103.3110012   4.3964997  60.0239988 103.3811829   3.5867985  59.7125940
 105.2430012  18.5114997  57.9519988 106.1090012  18.8774997  57.7739988
 104.9960012  18.0714997  57.1379988 105.3282392  18.5021756  57.8176289
 111.9520012  18.0744997  60.6309988 111.7570012  17.3264997  60.0659988
 111.9130012  18.8324997  60.0479988 111.9200380  18.0746099  60.4748384
  98.1960012  18.2214997  56.5799988  97.9290012  18.5084997  57.4529988
  98.9680012  17.6754997  56.7319988  98.2637488  18.1870294  56.7201050
 125.3730012  13.3124997  61.8549988 125.0770012  12.9904997  61.0039988
 125.0480012  14.2124997  61.8959988 125.2886371  13.3900215  61.7441801
 124.2970012   9.9554997  60.2639988 123.5850012  10.4904997  59.9119988
 124.9880012  10.0114997  59.6039988 124.2930132  10.0362543  60.1266289
 124.3500012   8.4134997  57.3029988 125.0510012   8.4354997  57.9539988
 124.6530012   7.7854997  56.6469988 124.4867830   8.3316566  57.3033711
 127.7020012  10.1654997  61.2159988 126.9700012  10.3934997  61.7889988
 128.1500012   9.4514997  61.6709988 127.6623095  10.1002571  61.3559119
 126.5730012   9.3274997  58.9009988 127.1530012   9.4774997  59.6479988
 126.9870012   9.7984997  58.1779988 126.7082830   9.4116841  58.9054134
 124.3000012  16.0644997  62.3359988 124.7740012  16.3594997  63.1139988
 123.7370012  16.8024997  62.1029988 124.2887653  16.2046932  62.4110136
 130.2720012   1.0774997  58.7139988 129.3720012   1.2164997  59.0089988
 130.5240012   1.9084997  58.3119988 130.1828702   1.2089074  58.7000205
 131.4610012  15.4434997  57.0899988 131.5350012  16.3824997  57.2609988
 132.3670012  15.1384997  57.0339988 131.5935100  15.5306722  57.1058119
 123.7720012  19.0204997  60.7509988 123.6970012  18.8994997  59.8049988
 123.8050012  19.9704997  60.8699988 123.7661848  19.1322500  60.6374834
 126.8740012  18.1744997  57.7529988 127.2490012  17.4304997  57.2829988
 126.8780012  17.9044997  58.6719988 126.9258915  18.0361486  57.8127824
 128.0510012  10.3604997  56.5309988 128.0930012  10.1374997  55.6009988
 128.9000012  10.7594997  56.7209988 128.1715396  10.3839155  56.4293627
 123.6230012   4.2364997  57.2009988 123.3700012   4.2554997  58.1239988
 123.3670012   3.3644997  56.8999988 123.5537790   4.1212437  57.2866263
 120.5060012   4.6814997  56.3019988 120.0750012   4.2364997  57.0319988
 119.7880012   5.0534997  55.7899988 120.3499438   4.6708940  56.3326799
 115.0220012   5.1694997  58.7779988 115.4960012   5.7604997  58.1929988
 114.3050012   5.7004997  59.1249988 114.9899341   5.3220867  58.7448836
 119.1240012   7.4594997  57.6849988 118.5810012   7.0794997  56.9929988
 119.9570012   7.6534997  57.2559988 119.1624399   7.4338124  57.5324526
 122.4590012  12.0244997  59.6199988 121.7140012  11.5174997  59.2979988
 122.3250012  12.0734997  60.5669988 122.3388776  11.9616940  59.7038647
 126.3570012   4.8384997  57.8199988 125.4180012   4.9504997  57.6679988
 126.6540012   5.6954997  58.1259988 126.2687666   4.9696443  57.8405768
 124.5850012  13.4834997  58.6459988 124.2890012  14.3094997  59.0269988
 123.8820012  12.8634997  58.8419988 124.4494914  13.5128199  58.7246443
 131.9600012   6.9154997  59.1749988 131.4060012   6.5194997  58.5029988
 132.0600012   7.8254997  58.8969988 131.8977059   6.9843586  59.0454401
 115.7140012   9.6994997  57.3809988 116.3300012  10.3264997  57.7609988
 114.8520012  10.0154997  57.6529988 115.6817698   9.8279430  57.4697183
 127.6480012  13.6774997  57.4599988 128.0010012  13.2974997  58.2649988
 126.6990012  13.5844997  57.5469988 127.5680441  13.6129596  57.5818559
 132.1510012  18.1574997  57.6609988 132.8950012  18.7434997  57.5209988
 131.4570012  18.7254997  57.9949988 132.1590292  18.3145582  57.6869961
 128.5140012  12.3504997  59.6869988 128.2360012  11.6224997  60.2429988
 129.4410012  12.4694997  59.8919988 128.6013124  12.2668802  59.7908845
 121.7390012  14.7894997  55.9069988 121.9780012  14.0414997  55.3599988
 121.4700012  14.4014997  56.7399988 121.7353675  14.6346638  55.9446865
 120.6760012  14.3594997  58.3639988 120.8220012  13.8394997  59.1539988
 120.6730012  15.2664997  58.6699988 120.6955989  14.4108853  58.5136088
 117.1290012  11.6124997  58.8739988 116.4430012  11.9644997  59.4409988
 117.6510012  12.3754997  58.6269988 117.1056852  11.7638578  58.9182118
 123.4130012  16.0574997  59.1129988 122.5970012  16.5544997  59.1649988
 123.9430012  16.5324997  58.4729988 123.3729161  16.1897722  59.0335956
 122.9450012   5.6544997  61.0849988 123.7570012   6.1594997  61.1309988
 122.7000012   5.5094997  61.9989988 123.0230520   5.7040375  61.2148517
 119.4860012   3.7984997  58.7099988 119.4030012   4.6874997  59.0569988
 120.3760012   3.5334997  58.9419988 119.5949469   3.8841430  58.7887626
 117.7450012  14.2264997  57.7709988 118.3370012  14.9254997  58.0469988
 118.2040012  13.7934997  57.0509988 117.8881142  14.2637049  57.7114830
 116.0610012   6.8904997  56.8869988 116.0160012   7.8294997  57.0649988
 115.1730012   6.6544997  56.6169988 115.9348574   6.9871892  56.8748912
 123.7770012  16.6524997  56.0459988 123.1330012  16.0214997  56.3669988
 124.5390012  16.1214997  55.8139988 123.7918077  16.4942920  56.0586011
 128.3810012  16.4694997  56.2799988 128.6640012  15.6754997  56.7319988
 129.1210012  16.7024997  55.7189988 128.5197486  16.3922803  56.2660698
 119.3360012  12.3794997  56.1369988 119.4000012  11.5854997  56.6679988
 119.9890012  12.2604997  55.4469988 119.4330241  12.2547148  56.1164317
 124.6880012  13.4264997  55.8729988 124.4190012  13.6064997  56.7739988
 124.4820012  12.5004997  55.7419988 124.6233825  13.3260152  55.9785214
 120.4850012  10.3514997  58.4429988 120.0250012   9.8674997  59.1289988
 120.7400012   9.6834997  57.8069988 120.4564902  10.1948731  58.4509334
 121.5560012   8.5944997  56.7049988 121.3760012   8.4404997  55.7779988
 122.5060012   8.7024997  56.7499988 121.6597776   8.5880175  56.5841843
 130.9460012  10.9494997  56.1509988 130.6720012  10.5244997  55.3379988
 130.9850012  11.8804997  55.9339988 130.9137699  11.0172484  56.0103610
 121.4530012  19.2854997  57.7069988 122.3860012  19.4434997  57.8499988
 121.1890012  19.9604997  57.0819988 121.5449510  19.3983611  57.6420741
 115.0220012  13.9214997  57.1889988 115.9360012  14.0004997  57.4629988
 115.0290012  13.2344997  56.5229988 115.1481131  13.8393961  57.1364393
 113.6710012  19.3144997  62.2669988 113.0240012  18.8524997  61.7339988
 114.0250012  18.6424997  62.8489988 113.6303849  19.1604723  62.2727959
 131.4040012  11.8184997  60.1259988 132.2540012  12.2394997  60.2529988
 131.4100012  11.0784997  60.7329988 131.5211372  11.7760803  60.2254344
 132.0670012   9.7724997  58.3409988 131.5450012  10.1294997  57.6219988
 132.0340012  10.4474997  59.0189988 131.9911634   9.9125413  58.3343145
 130.4160012   7.0124997  56.8919988 130.5120012   7.6794997  56.2109988
 130.2760012   6.1964997  56.4099988 130.4102135   6.9934500  56.7338491
 129.6630012   4.4204997  56.0089988 130.2740012   4.0494997  56.6459988
 128.8270012   3.9994997  56.2049988 129.6335032   4.3127554  56.1227035
 131.7760012   3.3054997  57.5509988 132.1880012   2.5844997  57.0759988
 132.4580012   3.9754997  57.6099988 131.9245885   3.2972368  57.4938915
 115.3330012   1.3534997  58.6569988 115.7720012   1.9644997  58.0649988
 114.7000012   1.8914997  59.1309988 115.3074514   1.5099257  58.6400930
 127.9860012   1.5384997  60.0079988 127.2840012   2.1534997  59.7989988
 127.5420012   0.7004997  60.1389988 127.8296330   1.5095783  59.9970328
 115.2340012  17.3014997  59.5549988 114.5490012  17.2634997  58.8869988
 115.2380012  18.2144997  59.8429988 115.1408193  17.4197016  59.5025284
 117.1940012   3.2694997  57.0989988 117.6860012   2.6394997  56.5719988
 117.8180012   3.5654997  57.7629988 117.3455446   3.2233199  57.1165980
 122.2200012   3.5624997  59.5559988 122.3980012   2.9164997  60.2389988
 122.1670012   4.3964997  60.0239988 122.2371829   3.5867985  59.7125940
 124.0990012  18.5114997  57.9519988 124.9650012  18.8774997  57.7739988
 123.8520012  18.0714997  57.1379988 124.1842392  18.5021756  57.8176289
 117.0520012  18.2214997  56.5799988 116.7850012  18.5084997  57.4529988
 117.8240012  17.6754997  56.7319988 117.1197488  18.1870294  56.7201050
 133.2660012   7.6914997  61.7519988 132.8190012   8.5374997  61.7329988
 132.7050012   7.1114997  61.2359988 133.1289900   7.7289916  61.6796801
 143.2060012   8.4134997  57.3029988 143.9070012   8.4354997  57.9539988
 143.5090012   7.7854997  56.6469988 143.3427830   8.3316566  57.3033711
 137.1940012   9.8654997  60.6879988 136.9020012  10.6334997  60.1969988
 136.5200012   9.2054997  60.5249988 137.0629081   9.8814406  60.5987340
 142.6280012  19.0204997  60.7509988 142.5530012  18.8994997  59.8049988
 142.6610012  19.9704997  60.8699988 142.6221848  19.1322500  60.6374834
 142.4790012   4.2364997  57.2009988 142.2260012   4.2554997  58.1239988
 142.2230012   3.3644997  56.8999988 142.4097790   4.1212437  57.2866263
 139.3620012   4.6814997  56.3019988 138.9310012   4.2364997  57.0319988
 138.6440012   5.0534997  55.7899988 139.2059438   4.6708940  56.3326799
 133.8780012   5.1694997  58.7779988 134.3520012   5.7604997  58.1929988
 133.1610012   5.7004997  59.1249988 133.8459341   5.3220867  58.7448836
 139.3060012   6.2644997  60.1179988 140.2370012   6.3934997  60.2959988
 139.0910012   6.9344997  59.4679988 139.4044247   6.3726565  60.0545747
 137.9800012   7.4594997  57.6849988 137.4370012   7.0794997  56.9929988
 138.8130012   7.6534997  57.2559988 138.0184399   7.4338124  57.5324526
 141.3150012  12.0244997  59.6199988 140.5700012  11.5174997  59.2979988
 141.1810012  12.0734997  60.5669988 141.1948776  11.9616940  59.7038647
 143.4410012  13.4834997  58.6459988 143.1450012  14.3094997  59.0269988
 142.7380012  12.8634997  58.8419988 143.3054914  13.5128199  58.7246443
 134.5700012   9.6994997  57.3809988 135.1860012  10.3264997  57.7609988
 133.7080012  10.0154997  57.6529988 134.5377698   9.8279430  57.4697183
 140.5950012  14.7894997  55.9069988 140.8340012  14.0414997  55.3599988
 140.3260012  14.4014997  56.7399988 140.5913675  14.6346638  55.9446865
 139.5320012  14.3594997  58.3639988 139.6780012  13.8394997  59.1539988
 139.5290012  15.2664997  58.6699988 139.5515989  14.4108853  58.5136088
 135.9850012  11.6124997  58.8739988 135.2990012  11.9644997  59.4409988
 136.5070012  12.3754997  58.6269988 135.9616852  11.7638578  58.9182118
 144.6010012   3.9264997  60.2499988 144.8210012   4.3984997  59.4469988
 145.1590012   4.3214997  60.9199988 144.7064968   4.0444285  60.2307331
 142.2690012  16.0574997  59.1129988 141.4530012  16.5544997  59.1649988
 142.7990012  16.5324997  58.4729988 142.2289161  16.1897722  59.0335956
 141.8010012   5.6544997  61.0849988 142.6130012   6.1594997  61.1309988
 141.5560012   5.5094997  61.9989988 141.8790520   5.7040375  61.2148517
 142.6840012   2.7354997  62.0229988 142.3380012   3.3534997  62.6679988
 143.3430012   3.2364997  61.5419988 142.7257826   2.8875802  62.0460971
 139.6080012  17.1014997  59.0949988 139.7680012  17.9004997  58.5939988
 139.4100012  17.4074997  59.9799988 139.6031649  17.2524469  59.1459815
 138.3420012   3.7984997  58.7099988 138.2590012   4.6874997  59.0569988
 139.2320012   3.5334997  58.9419988 138.4509469   3.8841430  58.7887626
 136.6010012  14.2264997  57.7709988 137.1930012  14.9254997  58.0469988
 137.0600012  13.7934997  57.0509988 136.7441142  14.2637049  57.7114830
 134.9170012   6.8904997  56.8869988 134.8720012   7.8294997  57.0649988
 134.0290012   6.6544997  56.6169988 134.7908574   6.9871892  56.8748912
 142.6330012  16.6524997  56.0459988 141.9890012  16.0214997  56.3669988
 143.3950012  16.1214997  55.8139988 142.6478077  16.4942920  56.0586011
 138.1920012  12.3794997  56.1369988 138.2560012  11.5854997  56.6679988
 138.8450012  12.2604997  55.4469988 138.2890241  12.2547148  56.1164317
 143.5440012  13.4264997  55.8729988 143.2750012  13.6064997  56.7739988
 143.3380012  12.5004997  55.7419988 143.4793825  13.3260152  55.9785214
 139.3410012  10.3514997  58.4429988 138.8810012   9.8674997  59.1289988
 139.5960012   9.6834997  57.8069988 139.3124902  10.1948731  58.4509334
 140.4120012   8.5944997  56.7049988 140.2320012   8.4404997  55.7779988
 141.3620012   8.7024997  56.7499988 140.5157776   8.5880175  56.5841843
 140.3090012  19.2854997  57.7069988 141.2420012  19.4434997  57.8499988
 140.0450012  19.9604997  57.0819988 140.4009510  19.3983611  57.6420741
 133.8780012  13.9214997  57.1889988 134.7920012  14.0004997  57.4629988
 133.8850012  13.2344997  56.5229988 134.0041131  13.8393961  57.1364393
 134.1890012   1.3534997  58.6569988 134.6280012   1.9644997  58.0649988
 133.5560012   1.8914997  59.1309988 134.1634514   1.5099257  58.6400930
 136.0500012   3.2694997  57.0989988 136.5420012   2.6394997  56.5719988
 136.6740012   3.5654997  57.7629988 136.2015446   3.2233199  57.1165980
 141.0760012   3.5624997  59.5559988 141.2540012   2.9164997  60.2389988
 141.0230012   4.3964997  60.0239988 141.0931829   3.5867985  59.7125940
 142.9550012  18.5114997  57.9519988 143.8210012  18.8774997  57.7739988
 142.7080012  18.0714997  57.1379988 143.0402392  18.5021756  57.8176289
 135.9080012  18.2214997  56.5799988 135.6410012  18.5084997  57.4529988
 136.6800012  17.6754997  56.7319988 135.9757488  18.1870294  56.7201050
   1.9650012  31.9794997  60.1679988   1.6930012  32.2084997  59.2789988
   2.0110012  32.8174997  60.6279988   1.9340094  32.1241213  60.1085697
  17.1360012  19.9334997  58.7139988  16.2360012  20.0724997  59.0089988
  17.3880012  20.7644997  58.3119988  17.0468702  20.0649074  58.7000205
  18.3250012  34.2994997  57.0899988  18.3990012  35.2384997  57.2609988
  19.2310012  33.9944997  57.0339988  18.4575100  34.3866722  57.1058119
  13.7380012  37.0304997  57.7529988  14.1130012  36.2864997  57.2829988
  13.7420012  36.7604997  58.6719988  13.7898915  36.8921486  57.8127824
  14.9150012  29.2164997  56.5309988  14.9570012  28.9934997  55.6009988
  15.7640012  29.6154997  56.7209988  15.0355396  29.2399155  56.4293627
  10.4870012  23.0924997  57.2009988  10.2340012  23.1114997  58.1239988
  10.2310012  22.2204997  56.8999988  10.4177790  22.9772437  57.2866263
   7.3700012  23.5374997  56.3019988   6.9390012  23.0924997  57.0319988
   6.6520012  23.9094997  55.7899988   7.2139438  23.5268940  56.3326799
   1.8860012  24.0254997  58.7779988   2.3600012  24.6164997  58.1929988
   1.1690012  24.5564997  59.1249988   1.8539341  24.1780867  58.7448836
   5.9880012  26.3154997  57.6849988   5.4450012  25.9354997  56.9929988
   6.8210012  26.5094997  57.2559988   6.0264399  26.2898124  57.5324526
  13.2210012  23.6944997  57.8199988  12.2820012  23.8064997  57.6679988
  13.5180012  24.5514997  58.1259988  13.1327666  23.8256443  57.8405768
  11.4490012  32.3394997  58.6459988  11.1530012  33.1654997  59.0269988
  10.7460012  31.7194997  58.8419988  11.3134914  32.3688199  58.7246443
  18.8240012  25.7714997  59.1749988  18.2700012  25.3754997  58.5029988
  18.9240012  26.6814997  58.8969988  18.7617059  25.8403586  59.0454401
   2.5780012  28.5554997  57.3809988   3.1940012  29.1824997  57.7609988
   1.7160012  28.8714997  57.6529988   2.5457698  28.6839430  57.4697183
  14.5120012  32.5334997  57.4599988  14.8650012  32.1534997  58.2649988
  13.5630012  32.4404997  57.5469988  14.4320441  32.4689596  57.5818559
  19.0150012  37.0134997  57.6609988  19.7590012  37.5994997  57.5209988
  18.3210012  37.5814997  57.9949988  19.0230292  37.1705582  57.6869961
  15.3780012  31.2064997  59.6869988  15.1000012  30.4784997  60.2429988
  16.3050012  31.3254997  59.8919988  15.4653124  31.1228802  59.7908845
   8.6030012  33.6454997  55.9069988   8.8420012  32.8974997  55.3599988
   8.3340012  33.2574997  56.7399988   8.5993675  33.4906638  55.9446865
   7.5400012  33.2154997  58.3639988   7.6860012  32.6954997  59.1539988
   7.5370012  34.1224997  58.6699988   7.5595989  33.2668853  58.5136088
   3.9930012  30.4684997  58.8739988   3.3070012  30.8204997  59.4409988
   4.5150012  31.2314997  58.6269988   3.9696852  30.6198578  58.9182118
  12.6090012  22.7824997  60.2499988  12.8290012  23.2544997  59.4469988
  13.1670012  23.1774997  60.9199988  12.7144968  22.9004285  60.2307331
   9.8090012  24.5104997  61.0849988  10.6210012  25.0154997  61.1309988
   9.5640012  24.3654997  61.9989988   9.8870520  24.5600375  61.2148517
  10.6920012  21.5914997  62.0229988  10.3460012  22.2094997  62.6679988
  11.3510012  22.0924997  61.5419988  10.7337826  21.7435802  62.0460971
   7.6160012  35.9574997  59.0949988   7.7760012  36.7564997  58.5939988
   7.4180012  36.2634997  59.9799988   7.6111649  36.1084469  59.1459815
   4.6090012  33.0824997  57.7709988   5.2010012  33.7814997  58.0469988
   5.0680012  32.6494997  57.0509988   4.7521142  33.1197049  57.7114830
   2.9250012  25.7464997  56.8869988   2.8800012  26.6854997  57.0649988
   2.0370012  25.5104997  56.6169988   2.7988574  25.8431892  56.8748912
   2.6630012  34.4684997  61.7199988   1.8310012  34.9414997  61.7479988
   3.2090012  34.9784997  61.1219988   2.6229739  34.6021871  61.6429716
  10.6410012  35.5084997  56.0459988   9.9970012  34.8774997  56.3669988
  11.4030012  34.9774997  55.8139988  10.6558077  35.3502920  56.0586011
  15.2450012  35.3254997  56.2799988  15.5280012  34.5314997  56.7319988
  15.9850012  35.5584997  55.7189988  15.3837486  35.2482803  56.2660698
   6.2000012  31.2354997  56.1369988   6.2640012  30.4414997  56.6679988
   6.8530012  31.1164997  55.4469988   6.2970241  31.1107148  56.1164317
  11.5520012  32.2824997  55.8729988  11.2830012  32.4624997  56.7739988
  11.3460012  31.3564997  55.7419988  11.4873825  32.1820152  55.9785214
   7.3490012  29.2074997  58.4429988   6.8890012  28.7234997  59.1289988
   7.6040012  28.5394997  57.8069988   7.3204902  29.0508731  58.4509334
   8.4200012  27.4504997  56.7049988   8.2400012  27.2964997  55.7779988
   9.3700012  27.5584997  56.7499988   8.5237776  27.4440175  56.5841843
  17.8100012  29.8054997  56.1509988  17.5360012  29.3804997  55.3379988
  17.8490012  30.7364997  55.9339988  17.7777699  29.8732484  56.0103610
   8.3170012  38.1414997  57.7069988   9.2500012  38.2994997  57.8499988
   8.0530012  38.8164997  57.0819988   8.4089510  38.2543611  57.6420741
   1.8860012  32.7774997  57.1889988   2.8000012  32.8564997  57.4629988
   1.8930012  32.0904997  56.5229988   2.0121131  32.6953961  57.1364393
  18.2680012  30.6744997  60.1259988  19.1180012  31.0954997  60.2529988
  18.2740012  29.9344997  60.7329988  18.3851372  30.6320803  60.2254344
  18.6630012  28.7274997  61.9499988  17.9360012  28.2484997  62.3469988
  19.2440012  28.9334997  62.6819988  18.6419375  28.6897090  62.1034129
  18.9310012  28.6284997  58.3409988  18.4090012  28.9854997  57.6219988
  18.8980012  29.3034997  59.0189988  18.8551634  28.7685413  58.3343145
  17.2800012  25.8684997  56.8919988  17.3760012  26.5354997  56.2109988
  17.1400012  25.0524997  56.4099988  17.2742135  25.8494500  56.7338491
  16.5270012  23.2764997  56.0089988  17.1380012  22.9054997  56.6459988
  15.6910012  22.8554997  56.2049988  16.4975032  23.1687554  56.1227035
  18.6400012  22.1614997  57.5509988  19.0520012  21.4404997  57.0759988
  19.3220012  22.8314997  57.6099988  18.7885885  22.1532368  57.4938915
   0.9210012  22.1664997  60.6779988  -0.0039988  22.3754997  60.5489988
   1.3750012  22.6504997  59.9889988   0.8557368  22.2605993  60.5671226
   2.1970012  20.2094997  58.6569988   2.6360012  20.8204997  58.0649988
   1.5640012  20.7474997  59.1309988   2.1714514  20.3659257  58.6400930
   2.0980012  36.1574997  59.5549988   1.4130012  36.1194997  58.8869988
   2.1020012  37.0704997  59.8429988   2.0048193  36.2757016  59.5025284
   4.0580012  22.1254997  57.0989988   4.5500012  21.4954997  56.5719988
   4.6820012  22.4214997  57.7629988   4.2095446  22.0793199  57.1165980
   9.0840012  22.4184997  59.5559988   9.2620012  21.7724997  60.2389988
   9.0310012  23.2524997  60.0239988   9.1011829  22.4427985  59.7125940
  10.9630012  37.3674997  57.9519988  11.8290012  37.7334997  57.7739988
  10.7160012  36.9274997  57.1379988  11.0482392  37.3581756  57.8176289
   3.9160012  37.0774997  56.5799988   3.6490012  37.3644997  57.4529988
   4.6880012  36.5314997  56.7319988   3.9837488  37.0430294  56.7201050
  31.0930012  32.1684997  61.8549988  30.7970012  31.8464997  61.0039988
  30.7680012  33.0684997  61.8959988  31.0086371  32.2460215  61.7441801
  30.0700012  27.2694997  57.3029988  30.7710012  27.2914997  57.9539988
  30.3730012  26.6414997  56.6469988  30.2067830  27.1876566  57.3033711
  33.4220012  29.0214997  61.2159988  32.6900012  29.2494997  61.7889988
  33.8700012  28.3074997  61.6709988  33.3823095  28.9562571  61.3559119
  32.2930012  28.1834997  58.9009988  32.8730012  28.3334997  59.6479988
  32.7070012  28.6544997  58.1779988  32.4282830  28.2676841  58.9054134
  35.9920012  19.9334997  58.7139988  35.0920012  20.0724997  59.0089988
  36.2440012  20.7644997  58.3119988  35.9028702  20.0649074  58.7000205
  24.0580012  28.7214997  60.6879988  23.7660012  29.4894997  60.1969988
  23.3840012  28.0614997  60.5249988  23.9269081  28.7374406  60.5987340
  37.1810012  34.2994997  57.0899988  37.2550012  35.2384997  57.2609988
  38.0870012  33.9944997  57.0339988  37.3135100  34.3866722  57.1058119
  32.5940012  37.0304997  57.7529988  32.9690012  36.2864997  57.2829988
  32.5980012  36.7604997  58.6719988  32.6458915  36.8921486  57.8127824
  33.7710012  29.2164997  56.5309988  33.8130012  28.9934997  55.6009988
  34.6200012  29.6154997  56.7209988  33.8915396  29.2399155  56.4293627
  29.3430012  23.0924997  57.2009988  29.0900012  23.1114997  58.1239988
  29.0870012  22.2204997  56.8999988  29.2737790  22.9772437  57.2866263
  26.2260012  23.5374997  56.3019988  25.7950012  23.0924997  57.0319988
  25.5080012  23.9094997  55.7899988  26.0699438  23.5268940  56.3326799
  20.7420012  24.0254997  58.7779988  21.2160012  24.6164997  58.1929988
  20.0250012  24.5564997  59.1249988  20.7099341  24.1780867  58.7448836
  26.1700012  25.1204997  60.1179988  27.1010012  25.2494997  60.2959988
  25.9550012  25.7904997  59.4679988  26.2684247  25.2286565  60.0545747
  24.8440012  26.3154997  57.6849988  24.3010012  25.9354997  56.9929988
  25.6770012  26.5094997  57.2559988  24.8824399  26.2898124  57.5324526
  24.0100012  22.4154997  61.9399988  23.6930012  21.5134997  61.9049988
  24.7920012  22.4174997  61.3869988  24.0722284  22.2921628  61.8604783
  28.1790012  30.8804997  59.6199988  27.4340012  30.3734997  59.2979988
  28.0450012  30.9294997  60.5669988  28.0588776  30.8176940  59.7038647
  32.0770012  23.6944997  57.8199988  31.1380012  23.8064997  57.6679988
  32.3740012  24.5514997  58.1259988  31.9887666  23.8256443  57.8405768
  32.7950012  25.5614997  59.4799988  33.6870012  25.4244997  59.7989988
  32.8520012  26.3524997  58.9439988  32.9246285  25.6496660  59.4511691
  30.3050012  32.3394997  58.6459988  30.0090012  33.1654997  59.0269988
  29.6020012  31.7194997  58.8419988  30.1694914  32.3688199  58.7246443
  37.6800012  25.7714997  59.1749988  37.1260012  25.3754997  58.5029988
  37.7800012  26.6814997  58.8969988  37.6177059  25.8403586  59.0454401
  21.4340012  28.5554997  57.3809988  22.0500012  29.1824997  57.7609988
  20.5720012  28.8714997  57.6529988  21.4017698  28.6839430  57.4697183
  33.3680012  32.5334997  57.4599988  33.7210012  32.1534997  58.2649988
  32.4190012  32.4404997  57.5469988  33.2880441  32.4689596  57.5818559
  37.8710012  37.0134997  57.6609988  38.6150012  37.5994997  57.5209988
  37.1770012  37.5814997  57.9949988  37.8790292  37.1705582  57.6869961
  27.4590012  33.6454997  55.9069988  27.6980012  32.8974997  55.3599988
  27.1900012  33.2574997  56.7399988  27.4553675  33.4906638  55.9446865
  26.3960012  33.2154997  58.3639988  26.5420012  32.6954997  59.1539988
  26.3930012  34.1224997  58.6699988  26.4155989  33.2668853  58.5136088
  22.8490012  30.4684997  58.8739988  22.1630012  30.8204997  59.4409988
  23.3710012  31.2314997  58.6269988  22.8256852  30.6198578  58.9182118
  26.4720012  35.9574997  59.0949988  26.6320012  36.7564997  58.5939988
  26.2740012  36.2634997  59.9799988  26.4671649  36.1084469  59.1459815
  25.2060012  22.6544997  58.7099988  25.1230012  23.5434997  59.0569988
  26.0960012  22.3894997  58.9419988  25.3149469  22.7401430  58.7887626
  23.4650012  33.0824997  57.7709988  24.0570012  33.7814997  58.0469988
  23.9240012  32.6494997  57.0509988  23.6081142  33.1197049  57.7114830
  21.7810012  25.7464997  56.8869988  21.7360012  26.6854997  57.0649988
  20.8930012  25.5104997  56.6169988  21.6548574  25.8431892  56.8748912
  29.4970012  35.5084997  56.0459988  28.8530012  34.8774997  56.3669988
  30.2590012  34.9774997  55.8139988  29.5118077  35.3502920  56.0586011
  34.1010012  35.3254997  56.2799988  34.3840012  34.5314997  56.7319988
  34.8410012  35.5584997  55.7189988  34.2397486  35.2482803  56.2660698
  25.0560012  31.2354997  56.1369988  25.1200012  30.4414997  56.6679988
  25.7090012  31.1164997  55.4469988  25.1530241  31.1107148  56.1164317
  30.4080012  32.2824997  55.8729988  30.1390012  32.4624997  56.7739988
  30.2020012  31.3564997  55.7419988  30.3433825  32.1820152  55.9785214
  26.2050012  29.2074997  58.4429988  25.7450012  28.7234997  59.1289988
  26.4600012  28.5394997  57.8069988  26.1764902  29.0508731  58.4509334
  27.2760012  27.4504997  56.7049988  27.0960012  27.2964997  55.7779988
  28.2260012  27.5584997  56.7499988  27.3797776  27.4440175  56.5841843
  36.6660012  29.8054997  56.1509988  36.3920012  29.3804997  55.3379988
  36.7050012  30.7364997  55.9339988  36.6337699  29.8732484  56.0103610
  27.1730012  38.1414997  57.7069988  28.1060012  38.2994997  57.8499988
  26.9090012  38.8164997  57.0819988  27.2649510  38.2543611  57.6420741
  20.7420012  32.7774997  57.1889988  21.6560012  32.8564997  57.4629988
  20.7490012  32.0904997  56.5229988  20.8681131  32.6953961  57.1364393
  37.7870012  28.6284997  58.3409988  37.2650012  28.9854997  57.6219988
  37.7540012  29.3034997  59.0189988  37.7111634  28.7685413  58.3343145
  36.1360012  25.8684997  56.8919988  36.2320012  26.5354997  56.2109988
  35.9960012  25.0524997  56.4099988  36.1302135  25.8494500  56.7338491
  35.3830012  23.2764997  56.0089988  35.9940012  22.9054997  56.6459988
  34.5470012  22.8554997  56.2049988  35.3535032  23.1687554  56.1227035
  37.4960012  22.1614997  57.5509988  37.9080012  21.4404997  57.0759988
  38.1780012  22.8314997  57.6099988  37.6445885  22.1532368  57.4938915
  21.0530012  20.2094997  58.6569988  21.4920012  20.8204997  58.0649988
  20.4200012  20.7474997  59.1309988  21.0274514  20.3659257  58.6400930
  33.7060012  20.3944997  60.0079988  33.0040012  21.0094997  59.7989988
  33.2620012  19.5564997  60.1389988  33.5496330  20.3655783  59.9970328
  20.9540012  36.1574997  59.5549988  20.2690012  36.1194997  58.8869988
  20.9580012  37.0704997  59.8429988  20.8608193  36.2757016  59.5025284
  22.9140012  22.1254997  57.0989988  23.4060012  21.4954997  56.5719988
  23.5380012  22.4214997  57.7629988  23.0655446  22.0793199  57.1165980
  29.8190012  37.3674997  57.9519988  30.6850012  37.7334997  57.7739988
  29.5720012  36.9274997  57.1379988  29.9042392  37.3581756  57.8176289
  36.5280012  36.9304997  60.6309988  36.3330012  36.1824997  60.0659988
  36.4890012  37.6884997  60.0479988  36.4960380  36.9306099  60.4748384
  22.7720012  37.0774997  56.5799988  22.5050012  37.3644997  57.4529988
  23.5440012  36.5314997  56.7319988  22.8397488  37.0430294  56.7201050
  49.9490012  32.1684997  61.8549988  49.6530012  31.8464997  61.0039988
  49.6240012  33.0684997  61.8959988  49.8646371  32.2460215  61.7441801
  48.8730012  28.8114997  60.2639988  48.1610012  29.3464997  59.9119988
  49.5640012  28.8674997  59.6039988  48.8690132  28.8922543  60.1266289
  48.9260012  27.2694997  57.3029988  49.6270012  27.2914997  57.9539988
  49.2290012  26.6414997  56.6469988  49.0627830  27.1876566  57.3033711
  51.1490012  28.1834997  58.9009988  51.7290012  28.3334997  59.6479988
  51.5630012  28.6544997  58.1779988  51.2842830  28.2676841  58.9054134
  54.8480012  19.9334997  58.7139988  53.9480012  20.0724997  59.0089988
  55.1000012  20.7644997  58.3119988  54.7588702  20.0649074  58.7000205
  56.0370012  34.2994997  57.0899988  56.1110012  35.2384997  57.2609988
  56.9430012  33.9944997  57.0339988  56.1695100  34.3866722  57.1058119
  51.4500012  37.0304997  57.7529988  51.8250012  36.2864997  57.2829988
  51.4540012  36.7604997  58.6719988  51.5018915  36.8921486  57.8127824
  52.6270012  29.2164997  56.5309988  52.6690012  28.9934997  55.6009988
  53.4760012  29.6154997  56.7209988  52.7475396  29.2399155  56.4293627
  48.1990012  23.0924997  57.2009988  47.9460012  23.1114997  58.1239988
  47.9430012  22.2204997  56.8999988  48.1297790  22.9772437  57.2866263
  45.0820012  23.5374997  56.3019988  44.6510012  23.0924997  57.0319988
  44.3640012  23.9094997  55.7899988  44.9259438  23.5268940  56.3326799
  39.5980012  24.0254997  58.7779988  40.0720012  24.6164997  58.1929988
  38.8810012  24.5564997  59.1249988  39.5659341  24.1780867  58.7448836
  45.0260012  25.1204997  60.1179988  45.9570012  25.2494997  60.2959988
  44.8110012  25.7904997  59.4679988  45.1244247  25.2286565  60.0545747
  43.7000012  26.3154997  57.6849988  43.1570012  25.9354997  56.9929988
  44.5330012  26.5094997  57.2559988  43.7384399  26.2898124  57.5324526
  47.0350012  30.8804997  59.6199988  46.2900012  30.3734997  59.2979988
  46.9010012  30.9294997  60.5669988  46.9148776  30.8176940  59.7038647
  50.9330012  23.6944997  57.8199988  49.9940012  23.8064997  57.6679988
  51.2300012  24.5514997  58.1259988  50.8447666  23.8256443  57.8405768
  51.6510012  25.5614997  59.4799988  52.5430012  25.4244997  59.7989988
  51.7080012  26.3524997  58.9439988  51.7806285  25.6496660  59.4511691
  49.1610012  32.3394997  58.6459988  48.8650012  33.1654997  59.0269988
  48.4580012  31.7194997  58.8419988  49.0254914  32.3688199  58.7246443
  56.5360012  25.7714997  59.1749988  55.9820012  25.3754997  58.5029988
  56.6360012  26.6814997  58.8969988  56.4737059  25.8403586  59.0454401
  40.2900012  28.5554997  57.3809988  40.9060012  29.1824997  57.7609988
  39.4280012  28.8714997  57.6529988  40.2577698  28.6839430  57.4697183
  52.2240012  32.5334997  57.4599988  52.5770012  32.1534997  58.2649988
  51.2750012  32.4404997  57.5469988  52.1440441  32.4689596  57.5818559
  56.7270012  37.0134997  57.6609988  57.4710012  37.5994997  57.5209988
  56.0330012  37.5814997  57.9949988  56.7350292  37.1705582  57.6869961
  53.0900012  31.2064997  59.6869988  52.8120012  30.4784997  60.2429988
  54.0170012  31.3254997  59.8919988  53.1773124  31.1228802  59.7908845
  46.3150012  33.6454997  55.9069988  46.5540012  32.8974997  55.3599988
  46.0460012  33.2574997  56.7399988  46.3113675  33.4906638  55.9446865
  45.2520012  33.2154997  58.3639988  45.3980012  32.6954997  59.1539988
  45.2490012  34.1224997  58.6699988  45.2715989  33.2668853  58.5136088
  41.7050012  30.4684997  58.8739988  41.0190012  30.8204997  59.4409988
  42.2270012  31.2314997  58.6269988  41.6816852  30.6198578  58.9182118
  47.9890012  34.9134997  59.1129988  47.1730012  35.4104997  59.1649988
  48.5190012  35.3884997  58.4729988  47.9489161  35.0457722  59.0335956
  45.3280012  35.9574997  59.0949988  45.4880012  36.7564997  58.5939988
  45.1300012  36.2634997  59.9799988  45.3231649  36.1084469  59.1459815
  42.3210012  33.0824997  57.7709988  42.9130012  33.7814997  58.0469988
  42.7800012  32.6494997  57.0509988  42.4641142  33.1197049  57.7114830
  40.6370012  25.7464997  56.8869988  40.5920012  26.6854997  57.0649988
  39.7490012  25.5104997  56.6169988  40.5108574  25.8431892  56.8748912
  48.3530012  35.5084997  56.0459988  47.7090012  34.8774997  56.3669988
  49.1150012  34.9774997  55.8139988  48.3678077  35.3502920  56.0586011
  52.9570012  35.3254997  56.2799988  53.2400012  34.5314997  56.7319988
  53.6970012  35.5584997  55.7189988  53.0957486  35.2482803  56.2660698
  43.9120012  31.2354997  56.1369988  43.9760012  30.4414997  56.6679988
  44.5650012  31.1164997  55.4469988  44.0090241  31.1107148  56.1164317
  49.2640012  32.2824997  55.8729988  48.9950012  32.4624997  56.7739988
  49.0580012  31.3564997  55.7419988  49.1993825  32.1820152  55.9785214
  45.0610012  29.2074997  58.4429988  44.6010012  28.7234997  59.1289988
  45.3160012  28.5394997  57.8069988  45.0324902  29.0508731  58.4509334
  46.1320012  27.4504997  56.7049988  45.9520012  27.2964997  55.7779988
  47.0820012  27.5584997  56.7499988  46.2357776  27.4440175  56.5841843
  55.5220012  29.8054997  56.1509988  55.2480012  29.3804997  55.3379988
  55.5610012  30.7364997  55.9339988  55.4897699  29.8732484  56.0103610
  46.0290012  38.1414997  57.7069988  46.9620012  38.2994997  57.8499988
  45.7650012  38.8164997  57.0819988  46.1209510  38.2543611  57.6420741
  39.5980012  32.7774997  57.1889988  40.5120012  32.8564997  57.4629988
  39.6050012  32.0904997  56.5229988  39.7241131  32.6953961  57.1364393
  38.2470012  38.1704997  62.2669988  37.6000012  37.7084997  61.7339988
  38.6010012  37.4984997  62.8489988  38.2063849  38.0164723  62.2727959
  55.9800012  30.6744997  60.1259988  56.8300012  31.0954997  60.2529988
  55.9860012  29.9344997  60.7329988  56.0971372  30.6320803  60.2254344
  56.3750012  28.7274997  61.9499988  55.6480012  28.2484997  62.3469988
  56.9560012  28.9334997  62.6819988  56.3539375  28.6897090  62.1034129
  56.6430012  28.6284997  58.3409988  56.1210012  28.9854997  57.6219988
  56.6100012  29.3034997  59.0189988  56.5671634  28.7685413  58.3343145
  54.9920012  25.8684997  56.8919988  55.0880012  26.5354997  56.2109988
  54.8520012  25.0524997  56.4099988  54.9862135  25.8494500  56.7338491
  54.2390012  23.2764997  56.0089988  54.8500012  22.9054997  56.6459988
  53.4030012  22.8554997  56.2049988  54.2095032  23.1687554  56.1227035
  54.4850012  22.0944997  61.0229988  54.6680012  21.6454997  61.8489988
  53.8860012  21.5094997  60.5599988  54.4290202  21.9539975  61.0733275
  56.3520012  22.1614997  57.5509988  56.7640012  21.4404997  57.0759988
  57.0340012  22.8314997  57.6099988  56.5005885  22.1532368  57.4938915
  39.9090012  20.2094997  58.6569988  40.3480012  20.8204997  58.0649988
  39.2760012  20.7474997  59.1309988  39.8834514  20.3659257  58.6400930
  39.8100012  36.1574997  59.5549988  39.1250012  36.1194997  58.8869988
  39.8140012  37.0704997  59.8429988  39.7168193  36.2757016  59.5025284
  41.7700012  22.1254997  57.0989988  42.2620012  21.4954997  56.5719988
  42.3940012  22.4214997  57.7629988  41.9215446  22.0793199  57.1165980
  48.6750012  37.3674997  57.9519988  49.5410012  37.7334997  57.7739988
  48.4280012  36.9274997  57.1379988  48.7602392  37.3581756  57.8176289
  55.3840012  36.9304997  60.6309988  55.1890012  36.1824997  60.0659988
  55.3450012  37.6884997  60.0479988  55.3520380  36.9306099  60.4748384
  41.6280012  37.0774997  56.5799988  41.3610012  37.3644997  57.4529988
  42.4000012  36.5314997  56.7319988  41.6957488  37.0430294  56.7201050
  57.8420012  26.5474997  61.7519988  57.3950012  27.3934997  61.7329988
  57.2810012  25.9674997  61.2359988  57.7049900  26.5849916  61.6796801
  71.5700012  33.2834997  62.0139988  71.3120012  32.5934997  61.4029988
  71.6410012  32.8404997  62.8599988  71.5442856  33.1292124  62.0446885
  67.7820012  27.2694997  57.3029988  68.4830012  27.2914997  57.9539988
  68.0850012  26.6414997  56.6469988  67.9187830  27.1876566  57.3033711
  71.1340012  29.0214997  61.2159988  70.4020012  29.2494997  61.7889988
  71.5820012  28.3074997  61.6709988  71.0943095  28.9562571  61.3559119
  70.0050012  28.1834997  58.9009988  70.5850012  28.3334997  59.6479988
  70.4190012  28.6544997  58.1779988  70.1402830  28.2676841  58.9054134
  73.7040012  19.9334997  58.7139988  72.8040012  20.0724997  59.0089988
  73.9560012  20.7644997  58.3119988  73.6148702  20.0649074  58.7000205
  74.8930012  34.2994997  57.0899988  74.9670012  35.2384997  57.2609988
  75.7990012  33.9944997  57.0339988  75.0255100  34.3866722  57.1058119
  67.2040012  37.8764997  60.7509988  67.1290012  37.7554997  59.8049988
  67.2370012  38.8264997  60.8699988  67.1981848  37.9882500  60.6374834
  70.3060012  37.0304997  57.7529988  70.6810012  36.2864997  57.2829988
  70.3100012  36.7604997  58.6719988  70.3578915  36.8921486  57.8127824
  69.9750012  36.9564997  60.5029988  69.0390012  37.0564997  60.6809988
  70.2550012  36.2474997  61.0809988  69.8848255  36.8742711  60.6055391
  71.4830012  29.2164997  56.5309988  71.5250012  28.9934997  55.6009988
  72.3320012  29.6154997  56.7209988  71.6035396  29.2399155  56.4293627
  67.0550012  23.0924997  57.2009988  66.8020012  23.1114997  58.1239988
  66.7990012  22.2204997  56.8999988  66.9857790  22.9772437  57.2866263
  63.9380012  23.5374997  56.3019988  63.5070012  23.0924997  57.0319988
  63.2200012  23.9094997  55.7899988  63.7819438  23.5268940  56.3326799
  58.4540012  24.0254997  58.7779988  58.9280012  24.6164997  58.1929988
  57.7370012  24.5564997  59.1249988  58.4219341  24.1780867  58.7448836
  63.8820012  25.1204997  60.1179988  64.8130012  25.2494997  60.2959988
  63.6670012  25.7904997  59.4679988  63.9804247  25.2286565  60.0545747
  62.5560012  26.3154997  57.6849988  62.0130012  25.9354997  56.9929988
  63.3890012  26.5094997  57.2559988  62.5944399  26.2898124  57.5324526
  65.8910012  30.8804997  59.6199988  65.1460012  30.3734997  59.2979988
  65.7570012  30.9294997  60.5669988  65.7708776  30.8176940  59.7038647
  69.7890012  23.6944997  57.8199988  68.8500012  23.8064997  57.6679988
  70.0860012  24.5514997  58.1259988  69.7007666  23.8256443  57.8405768
  70.5070012  25.5614997  59.4799988  71.3990012  25.4244997  59.7989988
  70.5640012  26.3524997  58.9439988  70.6366285  25.6496660  59.4511691
  68.0170012  32.3394997  58.6459988  67.7210012  33.1654997  59.0269988
  67.3140012  31.7194997  58.8419988  67.8814914  32.3688199  58.7246443
  73.6870012  34.5574997  59.6399988  73.3140012  33.7314997  59.9489988
  73.9650012  34.3744997  58.7429988  73.6735630  34.4197303  59.5609626
  59.1460012  28.5554997  57.3809988  59.7620012  29.1824997  57.7609988
  58.2840012  28.8714997  57.6529988  59.1137698  28.6839430  57.4697183
  71.0800012  32.5334997  57.4599988  71.4330012  32.1534997  58.2649988
  70.1310012  32.4404997  57.5469988  71.0000441  32.4689596  57.5818559
  75.5830012  37.0134997  57.6609988  76.3270012  37.5994997  57.5209988
  74.8890012  37.5814997  57.9949988  75.5910292  37.1705582  57.6869961
  71.9460012  31.2064997  59.6869988  71.6680012  30.4784997  60.2429988
  72.8730012  31.3254997  59.8919988  72.0333124  31.1228802  59.7908845
  65.1710012  33.6454997  55.9069988  65.4100012  32.8974997  55.3599988
  64.9020012  33.2574997  56.7399988  65.1673675  33.4906638  55.9446865
  64.1080012  33.2154997  58.3639988  64.2540012  32.6954997  59.1539988
  64.1050012  34.1224997  58.6699988  64.1275989  33.2668853  58.5136088
  60.5610012  30.4684997  58.8739988  59.8750012  30.8204997  59.4409988
  61.0830012  31.2314997  58.6269988  60.5376852  30.6198578  58.9182118
  69.1770012  22.7824997  60.2499988  69.3970012  23.2544997  59.4469988
  69.7350012  23.1774997  60.9199988  69.2824968  22.9004285  60.2307331
  62.9180012  22.6544997  58.7099988  62.8350012  23.5434997  59.0569988
  63.8080012  22.3894997  58.9419988  63.0269469  22.7401430  58.7887626
  61.1770012  33.0824997  57.7709988  61.7690012  33.7814997  58.0469988
  61.6360012  32.6494997  57.0509988  61.3201142  33.1197049  57.7114830
  59.4930012  25.7464997  56.8869988  59.4480012  26.6854997  57.0649988
  58.6050012  25.5104997  56.6169988  59.3668574  25.8431892  56.8748912
  67.2090012  35.5084997  56.0459988  66.5650012  34.8774997  56.3669988
  67.9710012  34.9774997  55.8139988  67.2238077  35.3502920  56.0586011
  71.8130012  35.3254997  56.2799988  72.0960012  34.5314997  56.7319988
  72.5530012  35.5584997  55.7189988  71.9517486  35.2482803  56.2660698
  62.7680012  31.2354997  56.1369988  62.8320012  30.4414997  56.6679988
  63.4210012  31.1164997  55.4469988  62.8650241  31.1107148  56.1164317
  68.1200012  32.2824997  55.8729988  67.8510012  32.4624997  56.7739988
  67.9140012  31.3564997  55.7419988  68.0553825  32.1820152  55.9785214
  63.9170012  29.2074997  58.4429988  63.4570012  28.7234997  59.1289988
  64.1720012  28.5394997  57.8069988  63.8884902  29.0508731  58.4509334
  64.9880012  27.4504997  56.7049988  64.8080012  27.2964997  55.7779988
  65.9380012  27.5584997  56.7499988  65.0917776  27.4440175  56.5841843
  74.3780012  29.8054997  56.1509988  74.1040012  29.3804997  55.3379988
  74.4170012  30.7364997  55.9339988  74.3457699  29.8732484  56.0103610
  64.8850012  38.1414997  57.7069988  65.8180012  38.2994997  57.8499988
  64.6210012  38.8164997  57.0819988  64.9769510  38.2543611  57.6420741
  58.4540012  32.7774997  57.1889988  59.3680012  32.8564997  57.4629988
  58.4610012  32.0904997  56.5229988  58.5801131  32.6953961  57.1364393
  75.2310012  28.7274997  61.9499988  74.5040012  28.2484997  62.3469988
  75.8120012  28.9334997  62.6819988  75.2099375  28.6897090  62.1034129
  75.4990012  28.6284997  58.3409988  74.9770012  28.9854997  57.6219988
  75.4660012  29.3034997  59.0189988  75.4231634  28.7685413  58.3343145
  73.8480012  25.8684997  56.8919988  73.9440012  26.5354997  56.2109988
  73.7080012  25.0524997  56.4099988  73.8422135  25.8494500  56.7338491
  73.0950012  23.2764997  56.0089988  73.7060012  22.9054997  56.6459988
  72.2590012  22.8554997  56.2049988  73.0655032  23.1687554  56.1227035
  75.2080012  22.1614997  57.5509988  75.6200012  21.4404997  57.0759988
  75.8900012  22.8314997  57.6099988  75.3565885  22.1532368  57.4938915
  57.4890012  22.1664997  60.6779988  56.5640012  22.3754997  60.5489988
  57.9430012  22.6504997  59.9889988  57.4237368  22.2605993  60.5671226
  58.7650012  20.2094997  58.6569988  59.2040012  20.8204997  58.0649988
  58.1320012  20.7474997  59.1309988  58.7394514  20.3659257  58.6400930
  71.4180012  20.3944997  60.0079988  70.7160012  21.0094997  59.7989988
  70.9740012  19.5564997  60.1389988  71.2616330  20.3655783  59.9970328
  58.6660012  36.1574997  59.5549988  57.9810012  36.1194997  58.8869988
  58.6700012  37.0704997  59.8429988  58.5728193  36.2757016  59.5025284
  60.6260012  22.1254997  57.0989988  61.1180012  21.4954997  56.5719988
  61.2500012  22.4214997  57.7629988  60.7775446  22.0793199  57.1165980
  65.6520012  22.4184997  59.5559988  65.8300012  21.7724997  60.2389988
  65.5990012  23.2524997  60.0239988  65.6691829  22.4427985  59.7125940
  67.5310012  37.3674997  57.9519988  68.3970012  37.7334997  57.7739988
  67.2840012  36.9274997  57.1379988  67.6162392  37.3581756  57.8176289
  74.2400012  36.9304997  60.6309988  74.0450012  36.1824997  60.0659988
  74.2010012  37.6884997  60.0479988  74.2080380  36.9306099  60.4748384
  60.4840012  37.0774997  56.5799988  60.2170012  37.3644997  57.4529988
  61.2560012  36.5314997  56.7319988  60.5517488  37.0430294  56.7201050
  90.4260012  33.2834997  62.0139988  90.1680012  32.5934997  61.4029988
  90.4970012  32.8404997  62.8599988  90.4002856  33.1292124  62.0446885
  86.5850012  28.8114997  60.2639988  85.8730012  29.3464997  59.9119988
  87.2760012  28.8674997  59.6039988  86.5810132  28.8922543  60.1266289
  86.6380012  27.2694997  57.3029988  87.3390012  27.2914997  57.9539988
  86.9410012  26.6414997  56.6469988  86.7747830  27.1876566  57.3033711
  89.9900012  29.0214997  61.2159988  89.2580012  29.2494997  61.7889988
  90.4380012  28.3074997  61.6709988  89.9503095  28.9562571  61.3559119
  88.8610012  28.1834997  58.9009988  89.4410012  28.3334997  59.6479988
  89.2750012  28.6544997  58.1779988  88.9962830  28.2676841  58.9054134
  92.5600012  19.9334997  58.7139988  91.6600012  20.0724997  59.0089988
  92.8120012  20.7644997  58.3119988  92.4708702  20.0649074  58.7000205
  80.6260012  28.7214997  60.6879988  80.3340012  29.4894997  60.1969988
  79.9520012  28.0614997  60.5249988  80.4949081  28.7374406  60.5987340
  93.7490012  34.2994997  57.0899988  93.8230012  35.2384997  57.2609988
  94.6550012  33.9944997  57.0339988  93.8815100  34.3866722  57.1058119
  86.0600012  37.8764997  60.7509988  85.9850012  37.7554997  59.8049988
  86.0930012  38.8264997  60.8699988  86.0541848  37.9882500  60.6374834
  89.1620012  37.0304997  57.7529988  89.5370012  36.2864997  57.2829988
  89.1660012  36.7604997  58.6719988  89.2138915  36.8921486  57.8127824
  88.8310012  36.9564997  60.5029988  87.8950012  37.0564997  60.6809988
  89.1110012  36.2474997  61.0809988  88.7408255  36.8742711  60.6055391
  90.3390012  29.2164997  56.5309988  90.3810012  28.9934997  55.6009988
  91.1880012  29.6154997  56.7209988  90.4595396  29.2399155  56.4293627
  85.9110012  23.0924997  57.2009988  85.6580012  23.1114997  58.1239988
  85.6550012  22.2204997  56.8999988  85.8417790  22.9772437  57.2866263
  82.7940012  23.5374997  56.3019988  82.3630012  23.0924997  57.0319988
  82.0760012  23.9094997  55.7899988  82.6379438  23.5268940  56.3326799
  77.3100012  24.0254997  58.7779988  77.7840012  24.6164997  58.1929988
  76.5930012  24.5564997  59.1249988  77.2779341  24.1780867  58.7448836
  82.7380012  25.1204997  60.1179988  83.6690012  25.2494997  60.2959988
  82.5230012  25.7904997  59.4679988  82.8364247  25.2286565  60.0545747
  81.4120012  26.3154997  57.6849988  80.8690012  25.9354997  56.9929988
  82.2450012  26.5094997  57.2559988  81.4504399  26.2898124  57.5324526
  80.5780012  22.4154997  61.9399988  80.2610012  21.5134997  61.9049988
  81.3600012  22.4174997  61.3869988  80.6402284  22.2921628  61.8604783
  84.7470012  30.8804997  59.6199988  84.0020012  30.3734997  59.2979988
  84.6130012  30.9294997  60.5669988  84.6268776  30.8176940  59.7038647
  88.6450012  23.6944997  57.8199988  87.7060012  23.8064997  57.6679988
  88.9420012  24.5514997  58.1259988  88.5567666  23.8256443  57.8405768
  89.3630012  25.5614997  59.4799988  90.2550012  25.4244997  59.7989988
  89.4200012  26.3524997  58.9439988  89.4926285  25.6496660  59.4511691
  86.8730012  32.3394997  58.6459988  86.5770012  33.1654997  59.0269988
  86.1700012  31.7194997  58.8419988  86.7374914  32.3688199  58.7246443
  78.0020012  28.5554997  57.3809988  78.6180012  29.1824997  57.7609988
  77.1400012  28.8714997  57.6529988  77.9697698  28.6839430  57.4697183
  82.3570012  36.3784997  61.9159988  81.4070012  36.4834997  61.9669988
  82.7090012  37.1984997  62.2609988  82.2744203  36.5038314  61.9696650
  89.9360012  32.5334997  57.4599988  90.2890012  32.1534997  58.2649988
  88.9870012  32.4404997  57.5469988  89.8560441  32.4689596  57.5818559
  94.4390012  37.0134997  57.6609988  95.1830012  37.5994997  57.5209988
  93.7450012  37.5814997  57.9949988  94.4470292  37.1705582  57.6869961
  90.8020012  31.2064997  59.6869988  90.5240012  30.4784997  60.2429988
  91.7290012  31.3254997  59.8919988  90.8893124  31.1228802  59.7908845
  84.0270012  33.6454997  55.9069988  84.2660012  32.8974997  55.3599988
  83.7580012  33.2574997  56.7399988  84.0233675  33.4906638  55.9446865
  82.9640012  33.2154997  58.3639988  83.1100012  32.6954997  59.1539988
  82.9610012  34.1224997  58.6699988  82.9835989  33.2668853  58.5136088
  79.4170012  30.4684997  58.8739988  78.7310012  30.8204997  59.4409988
  79.9390012  31.2314997  58.6269988  79.3936852  30.6198578  58.9182118
  85.7010012  34.9134997  59.1129988  84.8850012  35.4104997  59.1649988
  86.2310012  35.3884997  58.4729988  85.6609161  35.0457722  59.0335956
  85.2330012  24.5104997  61.0849988  86.0450012  25.0154997  61.1309988
  84.9880012  24.3654997  61.9989988  85.3110520  24.5600375  61.2148517
  83.0400012  35.9574997  59.0949988  83.2000012  36.7564997  58.5939988
  82.8420012  36.2634997  59.9799988  83.0351649  36.1084469  59.1459815
  81.7740012  22.6544997  58.7099988  81.6910012  23.5434997  59.0569988
  82.6640012  22.3894997  58.9419988  81.8829469  22.7401430  58.7887626
  80.0330012  33.0824997  57.7709988  80.6250012  33.7814997  58.0469988
  80.4920012  32.6494997  57.0509988  80.1761142  33.1197049  57.7114830
  78.3490012  25.7464997  56.8869988  78.3040012  26.6854997  57.0649988
  77.4610012  25.5104997  56.6169988  78.2228574  25.8431892  56.8748912
  86.0650012  35.5084997  56.0459988  85.4210012  34.8774997  56.3669988
  86.8270012  34.9774997  55.8139988  86.0798077  35.3502920  56.0586011
  90.6690012  35.3254997  56.2799988  90.9520012  34.5314997  56.7319988
  91.4090012  35.5584997  55.7189988  90.8077486  35.2482803  56.2660698
  81.6240012  31.2354997  56.1369988  81.6880012  30.4414997  56.6679988
  82.2770012  31.1164997  55.4469988  81.7210241  31.1107148  56.1164317
  86.9760012  32.2824997  55.8729988  86.7070012  32.4624997  56.7739988
  86.7700012  31.3564997  55.7419988  86.9113825  32.1820152  55.9785214
  82.7730012  29.2074997  58.4429988  82.3130012  28.7234997  59.1289988
  83.0280012  28.5394997  57.8069988  82.7444902  29.0508731  58.4509334
  83.8440012  27.4504997  56.7049988  83.6640012  27.2964997  55.7779988
  84.7940012  27.5584997  56.7499988  83.9477776  27.4440175  56.5841843
  93.2340012  29.8054997  56.1509988  92.9600012  29.3804997  55.3379988
  93.2730012  30.7364997  55.9339988  93.2017699  29.8732484  56.0103610
  83.7410012  38.1414997  57.7069988  84.6740012  38.2994997  57.8499988
  83.4770012  38.8164997  57.0819988  83.8329510  38.2543611  57.6420741
  77.3100012  32.7774997  57.1889988  78.2240012  32.8564997  57.4629988
  77.3170012  32.0904997  56.5229988  77.4361131  32.6953961  57.1364393
  94.3550012  28.6284997  58.3409988  93.8330012  28.9854997  57.6219988
  94.3220012  29.3034997  59.0189988  94.2791634  28.7685413  58.3343145
  92.7040012  25.8684997  56.8919988  92.8000012  26.5354997  56.2109988
  92.5640012  25.0524997  56.4099988  92.6982135  25.8494500  56.7338491
  91.9510012  23.2764997  56.0089988  92.5620012  22.9054997  56.6459988
  91.1150012  22.8554997  56.2049988  91.9215032  23.1687554  56.1227035
  91.5840012  24.8314997  60.9749988  91.8640012  23.9244997  61.0989988
  92.3430012  25.2654997  60.5859988  91.7249277  24.7660942  60.9393682
  92.1970012  22.0944997  61.0229988  92.3800012  21.6454997  61.8489988
  91.5980012  21.5094997  60.5599988  92.1410202  21.9539975  61.0733275
  94.0640012  22.1614997  57.5509988  94.4760012  21.4404997  57.0759988
  94.7460012  22.8314997  57.6099988  94.2125885  22.1532368  57.4938915
  77.6210012  20.2094997  58.6569988  78.0600012  20.8204997  58.0649988
  76.9880012  20.7474997  59.1309988  77.5954514  20.3659257  58.6400930
  90.2740012  20.3944997  60.0079988  89.5720012  21.0094997  59.7989988
  89.8300012  19.5564997  60.1389988  90.1176330  20.3655783  59.9970328
  77.5220012  36.1574997  59.5549988  76.8370012  36.1194997  58.8869988
  77.5260012  37.0704997  59.8429988  77.4288193  36.2757016  59.5025284
  79.4820012  22.1254997  57.0989988  79.9740012  21.4954997  56.5719988
  80.1060012  22.4214997  57.7629988  79.6335446  22.0793199  57.1165980
  84.5080012  22.4184997  59.5559988  84.6860012  21.7724997  60.2389988
  84.4550012  23.2524997  60.0239988  84.5251829  22.4427985  59.7125940
  86.3870012  37.3674997  57.9519988  87.2530012  37.7334997  57.7739988
  86.1400012  36.9274997  57.1379988  86.4722392  37.3581756  57.8176289
  79.3400012  37.0774997  56.5799988  79.0730012  37.3644997  57.4529988
  80.1120012  36.5314997  56.7319988  79.4077488  37.0430294  56.7201050
 106.5170012  32.1684997  61.8549988 106.2210012  31.8464997  61.0039988
 106.1920012  33.0684997  61.8959988 106.4326371  32.2460215  61.7441801
  96.2450012  31.9794997  60.1679988  95.9730012  32.2084997  59.2789988
  96.2910012  32.8174997  60.6279988  96.2140094  32.1241213  60.1085697
 105.4410012  28.8114997  60.2639988 104.7290012  29.3464997  59.9119988
 106.1320012  28.8674997  59.6039988 105.4370132  28.8922543  60.1266289
 105.4940012  27.2694997  57.3029988 106.1950012  27.2914997  57.9539988
 105.7970012  26.6414997  56.6469988 105.6307830  27.1876566  57.3033711
 107.7170012  28.1834997  58.9009988 108.2970012  28.3334997  59.6479988
 108.1310012  28.6544997  58.1779988 107.8522830  28.2676841  58.9054134
 111.4160012  19.9334997  58.7139988 110.5160012  20.0724997  59.0089988
 111.6680012  20.7644997  58.3119988 111.3268702  20.0649074  58.7000205
  99.4820012  28.7214997  60.6879988  99.1900012  29.4894997  60.1969988
  98.8080012  28.0614997  60.5249988  99.3509081  28.7374406  60.5987340
 112.6050012  34.2994997  57.0899988 112.6790012  35.2384997  57.2609988
 113.5110012  33.9944997  57.0339988 112.7375100  34.3866722  57.1058119
 108.0180012  37.0304997  57.7529988 108.3930012  36.2864997  57.2829988
 108.0220012  36.7604997  58.6719988 108.0698915  36.8921486  57.8127824
 107.6870012  36.9564997  60.5029988 106.7510012  37.0564997  60.6809988
 107.9670012  36.2474997  61.0809988 107.5968255  36.8742711  60.6055391
 109.1950012  29.2164997  56.5309988 109.2370012  28.9934997  55.6009988
 110.0440012  29.6154997  56.7209988 109.3155396  29.2399155  56.4293627
 104.7670012  23.0924997  57.2009988 104.5140012  23.1114997  58.1239988
 104.5110012  22.2204997  56.8999988 104.6977790  22.9772437  57.2866263
 101.6500012  23.5374997  56.3019988 101.2190012  23.0924997  57.0319988
 100.9320012  23.9094997  55.7899988 101.4939438  23.5268940  56.3326799
  96.1660012  24.0254997  58.7779988  96.6400012  24.6164997  58.1929988
  95.4490012  24.5564997  59.1249988  96.1339341  24.1780867  58.7448836
 100.2680012  26.3154997  57.6849988  99.7250012  25.9354997  56.9929988
 101.1010012  26.5094997  57.2559988 100.3064399  26.2898124  57.5324526
 103.6030012  30.8804997  59.6199988 102.8580012  30.3734997  59.2979988
 103.4690012  30.9294997  60.5669988 103.4828776  30.8176940  59.7038647
 107.5010012  23.6944997  57.8199988 106.5620012  23.8064997  57.6679988
 107.7980012  24.5514997  58.1259988 107.4127666  23.8256443  57.8405768
 108.2190012  25.5614997  59.4799988 109.1110012  25.4244997  59.7989988
 108.2760012  26.3524997  58.9439988 108.3486285  25.6496660  59.4511691
 105.7290012  32.3394997  58.6459988 105.4330012  33.1654997  59.0269988
 105.0260012  31.7194997  58.8419988 105.5934914  32.3688199  58.7246443
 113.1040012  25.7714997  59.1749988 112.5500012  25.3754997  58.5029988
 113.2040012  26.6814997  58.8969988 113.0417059  25.8403586  59.0454401
 111.3990012  34.5574997  59.6399988 111.0260012  33.7314997  59.9489988
 111.6770012  34.3744997  58.7429988 111.3855630  34.4197303  59.5609626
  96.8580012  28.5554997  57.3809988  97.4740012  29.1824997  57.7609988
  95.9960012  28.8714997  57.6529988  96.8257698  28.6839430  57.4697183
 108.7920012  32.5334997  57.4599988 109.1450012  32.1534997  58.2649988
 107.8430012  32.4404997  57.5469988 108.7120441  32.4689596  57.5818559
 113.2950012  37.0134997  57.6609988 114.0390012  37.5994997  57.5209988
 112.6010012  37.5814997  57.9949988 113.3030292  37.1705582  57.6869961
 102.8830012  33.6454997  55.9069988 103.1220012  32.8974997  55.3599988
 102.6140012  33.2574997  56.7399988 102.8793675  33.4906638  55.9446865
 101.8200012  33.2154997  58.3639988 101.9660012  32.6954997  59.1539988
 101.8170012  34.1224997  58.6699988 101.8395989  33.2668853  58.5136088
  98.2730012  30.4684997  58.8739988  97.5870012  30.8204997  59.4409988
  98.7950012  31.2314997  58.6269988  98.2496852  30.6198578  58.9182118
 106.8890012  22.7824997  60.2499988 107.1090012  23.2544997  59.4469988
 107.4470012  23.1774997  60.9199988 106.9944968  22.9004285  60.2307331
 104.5570012  34.9134997  59.1129988 103.7410012  35.4104997  59.1649988
 105.0870012  35.3884997  58.4729988 104.5169161  35.0457722  59.0335956
 101.8960012  35.9574997  59.0949988 102.0560012  36.7564997  58.5939988
 101.6980012  36.2634997  59.9799988 101.8911649  36.1084469  59.1459815
 100.6300012  22.6544997  58.7099988 100.5470012  23.5434997  59.0569988
 101.5200012  22.3894997  58.9419988 100.7389469  22.7401430  58.7887626
  98.8890012  33.0824997  57.7709988  99.4810012  33.7814997  58.0469988
  99.3480012  32.6494997  57.0509988  99.0321142  33.1197049  57.7114830
  97.2050012  25.7464997  56.8869988  97.1600012  26.6854997  57.0649988
  96.3170012  25.5104997  56.6169988  97.0788574  25.8431892  56.8748912
 104.9210012  35.5084997  56.0459988 104.2770012  34.8774997  56.3669988
 105.6830012  34.9774997  55.8139988 104.9358077  35.3502920  56.0586011
 109.5250012  35.3254997  56.2799988 109.8080012  34.5314997  56.7319988
 110.2650012  35.5584997  55.7189988 109.6637486  35.2482803  56.2660698
 100.4800012  31.2354997  56.1369988 100.5440012  30.4414997  56.6679988
 101.1330012  31.1164997  55.4469988 100.5770241  31.1107148  56.1164317
 105.8320012  32.2824997  55.8729988 105.5630012  32.4624997  56.7739988
 105.6260012  31.3564997  55.7419988 105.7673825  32.1820152  55.9785214
 102.7000012  27.4504997  56.7049988 102.5200012  27.2964997  55.7779988
 103.6500012  27.5584997  56.7499988 102.8037776  27.4440175  56.5841843
 112.0900012  29.8054997  56.1509988 111.8160012  29.3804997  55.3379988
 112.1290012  30.7364997  55.9339988 112.0577699  29.8732484  56.0103610
 102.5970012  38.1414997  57.7069988 103.5300012  38.2994997  57.8499988
 102.3330012  38.8164997  57.0819988 102.6889510  38.2543611  57.6420741
  96.1660012  32.7774997  57.1889988  97.0800012  32.8564997  57.4629988
  96.1730012  32.0904997  56.5229988  96.2921131  32.6953961  57.1364393
 113.2110012  28.6284997  58.3409988 112.6890012  28.9854997  57.6219988
 113.1780012  29.3034997  59.0189988 113.1351634  28.7685413  58.3343145
 111.5600012  25.8684997  56.8919988 111.6560012  26.5354997  56.2109988
 111.4200012  25.0524997  56.4099988 111.5542135  25.8494500  56.7338491
 110.8070012  23.2764997  56.0089988 111.4180012  22.9054997  56.6459988
 109.9710012  22.8554997  56.2049988 110.7775032  23.1687554  56.1227035
 112.9200012  22.1614997  57.5509988 113.3320012  21.4404997  57.0759988
 113.6020012  22.8314997  57.6099988 113.0685885  22.1532368  57.4938915
  96.4770012  20.2094997  58.6569988  96.9160012  20.8204997  58.0649988
  95.8440012  20.7474997  59.1309988  96.4514514  20.3659257  58.6400930
  98.3380012  22.1254997  57.0989988  98.8300012  21.4954997  56.5719988
  98.9620012  22.4214997  57.7629988  98.4895446  22.0793199  57.1165980
 103.3640012  22.4184997  59.5559988 103.5420012  21.7724997  60.2389988
 103.3110012  23.2524997  60.0239988 103.3811829  22.4427985  59.7125940
 105.2430012  37.3674997  57.9519988 106.1090012  37.7334997  57.7739988
 104.9960012  36.9274997  57.1379988 105.3282392  37.3581756  57.8176289
 111.9520012  36.9304997  60.6309988 111.7570012  36.1824997  60.0659988
 111.9130012  37.6884997  60.0479988 111.9200380  36.9306099  60.4748384
  98.1960012  37.0774997  56.5799988  97.9290012  37.3644997  57.4529988
  98.9680012  36.5314997  56.7319988  98.2637488  37.0430294  56.7201050
 114.4100012  26.5474997  61.7519988 113.9630012  27.3934997  61.7329988
 113.8490012  25.9674997  61.2359988 114.2729900  26.5849916  61.6796801
 115.1010012  31.9794997  60.1679988 114.8290012  32.2084997  59.2789988
 115.1470012  32.8174997  60.6279988 115.0700094  32.1241213  60.1085697
 124.2970012  28.8114997  60.2639988 123.5850012  29.3464997  59.9119988
 124.9880012  28.8674997  59.6039988 124.2930132  28.8922543  60.1266289
 124.3500012  27.2694997  57.3029988 125.0510012  27.2914997  57.9539988
 124.6530012  26.6414997  56.6469988 124.4867830  27.1876566  57.3033711
 127.7020012  29.0214997  61.2159988 126.9700012  29.2494997  61.7889988
 128.1500012  28.3074997  61.6709988 127.6623095  28.9562571  61.3559119
 126.5730012  28.1834997  58.9009988 127.1530012  28.3334997  59.6479988
 126.9870012  28.6544997  58.1779988 126.7082830  28.2676841  58.9054134
 130.2720012  19.9334997  58.7139988 129.3720012  20.0724997  59.0089988
 130.5240012  20.7644997  58.3119988 130.1828702  20.0649074  58.7000205
 131.4610012  34.2994997  57.0899988 131.5350012  35.2384997  57.2609988
 132.3670012  33.9944997  57.0339988 131.5935100  34.3866722  57.1058119
 123.7720012  37.8764997  60.7509988 123.6970012  37.7554997  59.8049988
 123.8050012  38.8264997  60.8699988 123.7661848  37.9882500  60.6374834
 126.8740012  37.0304997  57.7529988 127.2490012  36.2864997  57.2829988
 126.8780012  36.7604997  58.6719988 126.9258915  36.8921486  57.8127824
 128.0510012  29.2164997  56.5309988 128.0930012  28.9934997  55.6009988
 128.9000012  29.6154997  56.7209988 128.1715396  29.2399155  56.4293627
 123.6230012  23.0924997  57.2009988 123.3700012  23.1114997  58.1239988
 123.3670012  22.2204997  56.8999988 123.5537790  22.9772437  57.2866263
 124.9220012  26.4804997  61.3649988 124.5130012  27.2954997  61.0739988
 125.6430012  26.3404997  60.7509988 124.9634537  26.5732018  61.2421342
 120.5060012  23.5374997  56.3019988 120.0750012  23.0924997  57.0319988
 119.7880012  23.9094997  55.7899988 120.3499438  23.5268940  56.3326799
 115.0220012  24.0254997  58.7779988 115.4960012  24.6164997  58.1929988
 114.3050012  24.5564997  59.1249988 114.9899341  24.1780867  58.7448836
 119.1240012  26.3154997  57.6849988 118.5810012  25.9354997  56.9929988
 119.9570012  26.5094997  57.2559988 119.1624399  26.2898124  57.5324526
 118.2900012  22.4154997  61.9399988 117.9730012  21.5134997  61.9049988
 119.0720012  22.4174997  61.3869988 118.3522284  22.2921628  61.8604783
 122.4590012  30.8804997  59.6199988 121.7140012  30.3734997  59.2979988
 122.3250012  30.9294997  60.5669988 122.3388776  30.8176940  59.7038647
 126.3570012  23.6944997  57.8199988 125.4180012  23.8064997  57.6679988
 126.6540012  24.5514997  58.1259988 126.2687666  23.8256443  57.8405768
 124.5850012  32.3394997  58.6459988 124.2890012  33.1654997  59.0269988
 123.8820012  31.7194997  58.8419988 124.4494914  32.3688199  58.7246443
 131.9600012  25.7714997  59.1749988 131.4060012  25.3754997  58.5029988
 132.0600012  26.6814997  58.8969988 131.8977059  25.8403586  59.0454401
 115.7140012  28.5554997  57.3809988 116.3300012  29.1824997  57.7609988
 114.8520012  28.8714997  57.6529988 115.6817698  28.6839430  57.4697183
 127.6480012  32.5334997  57.4599988 128.0010012  32.1534997  58.2649988
 126.6990012  32.4404997  57.5469988 127.5680441  32.4689596  57.5818559
 132.1510012  37.0134997  57.6609988 132.8950012  37.5994997  57.5209988
 131.4570012  37.5814997  57.9949988 132.1590292  37.1705582  57.6869961
 121.7390012  33.6454997  55.9069988 121.9780012  32.8974997  55.3599988
 121.4700012  33.2574997  56.7399988 121.7353675  33.4906638  55.9446865
 120.6760012  33.2154997  58.3639988 120.8220012  32.6954997  59.1539988
 120.6730012  34.1224997  58.6699988 120.6955989  33.2668853  58.5136088
 117.1290012  30.4684997  58.8739988 116.4430012  30.8204997  59.4409988
 117.6510012  31.2314997  58.6269988 117.1056852  30.6198578  58.9182118
 123.4130012  34.9134997  59.1129988 122.5970012  35.4104997  59.1649988
 123.9430012  35.3884997  58.4729988 123.3729161  35.0457722  59.0335956
 122.9450012  24.5104997  61.0849988 123.7570012  25.0154997  61.1309988
 122.7000012  24.3654997  61.9989988 123.0230520  24.5600375  61.2148517
 120.7520012  35.9574997  59.0949988 120.9120012  36.7564997  58.5939988
 120.5540012  36.2634997  59.9799988 120.7471649  36.1084469  59.1459815
 119.4860012  22.6544997  58.7099988 119.4030012  23.5434997  59.0569988
 120.3760012  22.3894997  58.9419988 119.5949469  22.7401430  58.7887626
 117.7450012  33.0824997  57.7709988 118.3370012  33.7814997  58.0469988
 118.2040012  32.6494997  57.0509988 117.8881142  33.1197049  57.7114830
 116.0610012  25.7464997  56.8869988 116.0160012  26.6854997  57.0649988
 115.1730012  25.5104997  56.6169988 115.9348574  25.8431892  56.8748912
 123.7770012  35.5084997  56.0459988 123.1330012  34.8774997  56.3669988
 124.5390012  34.9774997  55.8139988 123.7918077  35.3502920  56.0586011
 128.3810012  35.3254997  56.2799988 128.6640012  34.5314997  56.7319988
 129.1210012  35.5584997  55.7189988 128.5197486  35.2482803  56.2660698
 119.3360012  31.2354997  56.1369988 119.4000012  30.4414997  56.6679988
 119.9890012  31.1164997  55.4469988 119.4330241  31.1107148  56.1164317
 124.6880012  32.2824997  55.8729988 124.4190012  32.4624997  56.7739988
 124.4820012  31.3564997  55.7419988 124.6233825  32.1820152  55.9785214
 121.5560012  27.4504997  56.7049988 121.3760012  27.2964997  55.7779988
 122.5060012  27.5584997  56.7499988 121.6597776  27.4440175  56.5841843
 130.9460012  29.8054997  56.1509988 130.6720012  29.3804997  55.3379988
 130.9850012  30.7364997  55.9339988 130.9137699  29.8732484  56.0103610
 121.4530012  38.1414997  57.7069988 122.3860012  38.2994997  57.8499988
 121.1890012  38.8164997  57.0819988 121.5449510  38.2543611  57.6420741
 115.0220012  32.7774997  57.1889988 115.9360012  32.8564997  57.4629988
 115.0290012  32.0904997  56.5229988 115.1481131  32.6953961  57.1364393
 131.4040012  30.6744997  60.1259988 132.2540012  31.0954997  60.2529988
 131.4100012  29.9344997  60.7329988 131.5211372  30.6320803  60.2254344
 132.0670012  28.6284997  58.3409988 131.5450012  28.9854997  57.6219988
 132.0340012  29.3034997  59.0189988 131.9911634  28.7685413  58.3343145
 130.4160012  25.8684997  56.8919988 130.5120012  26.5354997  56.2109988
 130.2760012  25.0524997  56.4099988 130.4102135  25.8494500  56.7338491
 129.6630012  23.2764997  56.0089988 130.2740012  22.9054997  56.6459988
 128.8270012  22.8554997  56.2049988 129.6335032  23.1687554  56.1227035
 131.7760012  22.1614997  57.5509988 132.1880012  21.4404997  57.0759988
 132.4580012  22.8314997  57.6099988 131.9245885  22.1532368  57.4938915
 115.3330012  20.2094997  58.6569988 115.7720012  20.8204997  58.0649988
 114.7000012  20.7474997  59.1309988 115.3074514  20.3659257  58.6400930
 117.1940012  22.1254997  57.0989988 117.6860012  21.4954997  56.5719988
 117.8180012  22.4214997  57.7629988 117.3455446  22.0793199  57.1165980
 122.2200012  22.4184997  59.5559988 122.3980012  21.7724997  60.2389988
 122.1670012  23.2524997  60.0239988 122.2371829  22.4427985  59.7125940
 124.0990012  37.3674997  57.9519988 124.9650012  37.7334997  57.7739988
 123.8520012  36.9274997  57.1379988 124.1842392  37.3581756  57.8176289
 117.0520012  37.0774997  56.5799988 116.7850012  37.3644997  57.4529988
 117.8240012  36.5314997  56.7319988 117.1197488  37.0430294  56.7201050
 144.2290012  32.1684997  61.8549988 143.9330012  31.8464997  61.0039988
 143.9040012  33.0684997  61.8959988 144.1446371  32.2460215  61.7441801
 133.9570012  31.9794997  60.1679988 133.6850012  32.2084997  59.2789988
 134.0030012  32.8174997  60.6279988 133.9260094  32.1241213  60.1085697
 143.2060012  27.2694997  57.3029988 143.9070012  27.2914997  57.9539988
 143.5090012  26.6414997  56.6469988 143.3427830  27.1876566  57.3033711
 137.1940012  28.7214997  60.6879988 136.9020012  29.4894997  60.1969988
 136.5200012  28.0614997  60.5249988 137.0629081  28.7374406  60.5987340
 142.4790012  23.0924997  57.2009988 142.2260012  23.1114997  58.1239988
 142.2230012  22.2204997  56.8999988 142.4097790  22.9772437  57.2866263
 139.3620012  23.5374997  56.3019988 138.9310012  23.0924997  57.0319988
 138.6440012  23.9094997  55.7899988 139.2059438  23.5268940  56.3326799
 133.8780012  24.0254997  58.7779988 134.3520012  24.6164997  58.1929988
 133.1610012  24.5564997  59.1249988 133.8459341  24.1780867  58.7448836
 139.3060012  25.1204997  60.1179988 140.2370012  25.2494997  60.2959988
 139.0910012  25.7904997  59.4679988 139.4044247  25.2286565  60.0545747
 137.9800012  26.3154997  57.6849988 137.4370012  25.9354997  56.9929988
 138.8130012  26.5094997  57.2559988 138.0184399  26.2898124  57.5324526
 141.3150012  30.8804997  59.6199988 140.5700012  30.3734997  59.2979988
 141.1810012  30.9294997  60.5669988 141.1948776  30.8176940  59.7038647
 143.4410012  32.3394997  58.6459988 143.1450012  33.1654997  59.0269988
 142.7380012  31.7194997  58.8419988 143.3054914  32.3688199  58.7246443
 134.5700012  28.5554997  57.3809988 135.1860012  29.1824997  57.7609988
 133.7080012  28.8714997  57.6529988 134.5377698  28.6839430  57.4697183
 140.5950012  33.6454997  55.9069988 140.8340012  32.8974997  55.3599988
 140.3260012  33.2574997  56.7399988 140.5913675  33.4906638  55.9446865
 139.5320012  33.2154997  58.3639988 139.6780012  32.6954997  59.1539988
 139.5290012  34.1224997  58.6699988 139.5515989  33.2668853  58.5136088
 135.9850012  30.4684997  58.8739988 135.2990012  30.8204997  59.4409988
 136.5070012  31.2314997  58.6269988 135.9616852  30.6198578  58.9182118
 144.6010012  22.7824997  60.2499988 144.8210012  23.2544997  59.4469988
 145.1590012  23.1774997  60.9199988 144.7064968  22.9004285  60.2307331
 142.2690012  34.9134997  59.1129988 141.4530012  35.4104997  59.1649988
 142.7990012  35.3884997  58.4729988 142.2289161  35.0457722  59.0335956
 142.6840012  21.5914997  62.0229988 142.3380012  22.2094997  62.6679988
 143.3430012  22.0924997  61.5419988 142.7257826  21.7435802  62.0460971
 139.6080012  35.9574997  59.0949988 139.7680012  36.7564997  58.5939988
 139.4100012  36.2634997  59.9799988 139.6031649  36.1084469  59.1459815
 138.3420012  22.6544997  58.7099988 138.2590012  23.5434997  59.0569988
 139.2320012  22.3894997  58.9419988 138.4509469  22.7401430  58.7887626
 136.6010012  33.0824997  57.7709988 137.1930012  33.7814997  58.0469988
 137.0600012  32.6494997  57.0509988 136.7441142  33.1197049  57.7114830
 134.9170012  25.7464997  56.8869988 134.8720012  26.6854997  57.0649988
 134.0290012  25.5104997  56.6169988 134.7908574  25.8431892  56.8748912
 142.6330012  35.5084997  56.0459988 141.9890012  34.8774997  56.3669988
 143.3950012  34.9774997  55.8139988 142.6478077  35.3502920  56.0586011
 138.1920012  31.2354997  56.1369988 138.2560012  30.4414997  56.6679988
 138.8450012  31.1164997  55.4469988 138.2890241  31.1107148  56.1164317
 143.5440012  32.2824997  55.8729988 143.2750012  32.4624997  56.7739988
 143.3380012  31.3564997  55.7419988 143.4793825  32.1820152  55.9785214
 139.3410012  29.2074997  58.4429988 138.8810012  28.7234997  59.1289988
 139.5960012  28.5394997  57.8069988 139.3124902  29.0508731  58.4509334
 140.4120012  27.4504997  56.7049988 140.2320012  27.2964997  55.7779988
 141.3620012  27.5584997  56.7499988 140.5157776  27.4440175  56.5841843
 140.3090012  38.1414997  57.7069988 141.2420012  38.2994997  57.8499988
 140.0450012  38.8164997  57.0819988 140.4009510  38.2543611  57.6420741
 133.8780012  32.7774997  57.1889988 134.7920012  32.8564997  57.4629988
 133.8850012  32.0904997  56.5229988 134.0041131  32.6953961  57.1364393
 132.9130012  22.1664997  60.6779988 131.9880012  22.3754997  60.5489988
 133.3670012  22.6504997  59.9889988 132.8477368  22.2605993  60.5671226
 136.0500012  22.1254997  57.0989988 136.5420012  21.4954997  56.5719988
 136.6740012  22.4214997  57.7629988 136.2015446  22.0793199  57.1165980
 141.0760012  22.4184997  59.5559988 141.2540012  21.7724997  60.2389988
 141.0230012  23.2524997  60.0239988 141.0931829  22.4427985  59.7125940
 142.9550012  37.3674997  57.9519988 143.8210012  37.7334997  57.7739988
 142.7080012  36.9274997  57.1379988 143.0402392  37.3581756  57.8176289
 135.9080012  37.0774997  56.5799988 135.6410012  37.3644997  57.4529988
 136.6800012  36.5314997  56.7319988 135.9757488  37.0430294  56.7201050
   1.2740012  45.4034997  61.7519988   0.8270012  46.2494997  61.7329988
   0.7130012  44.8234997  61.2359988   1.1369900  45.4409916  61.6796801
  15.0020012  52.1394997  62.0139988  14.7440012  51.4494997  61.4029988
  15.0730012  51.6964997  62.8599988  14.9762856  51.9852124  62.0446885
  11.2140012  46.1254997  57.3029988  11.9150012  46.1474997  57.9539988
  11.5170012  45.4974997  56.6469988  11.3507830  46.0436566  57.3033711
  13.4370012  47.0394997  58.9009988  14.0170012  47.1894997  59.6479988
  13.8510012  47.5104997  58.1779988  13.5722830  47.1236841  58.9054134
  17.1360012  38.7894997  58.7139988  16.2360012  38.9284997  59.0089988
  17.3880012  39.6204997  58.3119988  17.0468702  38.9209074  58.7000205
  18.3250012  53.1554997  57.0899988  18.3990012  54.0944997  57.2609988
  19.2310012  52.8504997  57.0339988  18.4575100  53.2426722  57.1058119
  13.7380012  55.8864997  57.7529988  14.1130012  55.1424997  57.2829988
  13.7420012  55.6164997  58.6719988  13.7898915  55.7481486  57.8127824
  14.9150012  48.0724997  56.5309988  14.9570012  47.8494997  55.6009988
  15.7640012  48.4714997  56.7209988  15.0355396  48.0959155  56.4293627
  10.4870012  41.9484997  57.2009988  10.2340012  41.9674997  58.1239988
  10.2310012  41.0764997  56.8999988  10.4177790  41.8332437  57.2866263
   7.3700012  42.3934997  56.3019988   6.9390012  41.9484997  57.0319988
   6.6520012  42.7654997  55.7899988   7.2139438  42.3828940  56.3326799
   1.8860012  42.8814997  58.7779988   2.3600012  43.4724997  58.1929988
   1.1690012  43.4124997  59.1249988   1.8539341  43.0340867  58.7448836
   7.3140012  43.9764997  60.1179988   8.2450012  44.1054997  60.2959988
   7.0990012  44.6464997  59.4679988   7.4124247  44.0846565  60.0545747
   5.9880012  45.1714997  57.6849988   5.4450012  44.7914997  56.9929988
   6.8210012  45.3654997  57.2559988   6.0264399  45.1458124  57.5324526
   9.3230012  49.7364997  59.6199988   8.5780012  49.2294997  59.2979988
   9.1890012  49.7854997  60.5669988   9.2028776  49.6736940  59.7038647
  13.2210012  42.5504997  57.8199988  12.2820012  42.6624997  57.6679988
  13.5180012  43.4074997  58.1259988  13.1327666  42.6816443  57.8405768
  13.9390012  44.4174997  59.4799988  14.8310012  44.2804997  59.7989988
  13.9960012  45.2084997  58.9439988  14.0686285  44.5056660  59.4511691
  11.4490012  51.1954997  58.6459988  11.1530012  52.0214997  59.0269988
  10.7460012  50.5754997  58.8419988  11.3134914  51.2248199  58.7246443
  18.8240012  44.6274997  59.1749988  18.2700012  44.2314997  58.5029988
  18.9240012  45.5374997  58.8969988  18.7617059  44.6963586  59.0454401
  17.1190012  53.4134997  59.6399988  16.7460012  52.5874997  59.9489988
  17.3970012  53.2304997  58.7429988  17.1055630  53.2757303  59.5609626
   2.5780012  47.4114997  57.3809988   3.1940012  48.0384997  57.7609988
   1.7160012  47.7274997  57.6529988   2.5457698  47.5399430  57.4697183
   8.2500012  50.2124997  62.3709988   8.0090012  51.1374997  62.4119988
   7.5090012  49.7534997  62.7669988   8.1168409  50.2771421  62.4301377
  14.5120012  51.3894997  57.4599988  14.8650012  51.0094997  58.2649988
  13.5630012  51.2964997  57.5469988  14.4320441  51.3249596  57.5818559
  19.0150012  55.8694997  57.6609988  19.7590012  56.4554997  57.5209988
  18.3210012  56.4374997  57.9949988  19.0230292  56.0265582  57.6869961
  15.3780012  50.0624997  59.6869988  15.1000012  49.3344997  60.2429988
  16.3050012  50.1814997  59.8919988  15.4653124  49.9788802  59.7908845
   8.6030012  52.5014997  55.9069988   8.8420012  51.7534997  55.3599988
   8.3340012  52.1134997  56.7399988   8.5993675  52.3466638  55.9446865
   7.5400012  52.0714997  58.3639988   7.6860012  51.5514997  59.1539988
   7.5370012  52.9784997  58.6699988   7.5595989  52.1228853  58.5136088
   7.6160012  54.8134997  59.0949988   7.7760012  55.6124997  58.5939988
   7.4180012  55.1194997  59.9799988   7.6111649  54.9644469  59.1459815
   6.3500012  41.5104997  58.7099988   6.2670012  42.3994997  59.0569988
   7.2400012  41.2454997  58.9419988   6.4589469  41.5961430  58.7887626
   4.6090012  51.9384997  57.7709988   5.2010012  52.6374997  58.0469988
   5.0680012  51.5054997  57.0509988   4.7521142  51.9757049  57.7114830
   2.9250012  44.6024997  56.8869988   2.8800012  45.5414997  57.0649988
   2.0370012  44.3664997  56.6169988   2.7988574  44.6991892  56.8748912
   2.6630012  53.3244997  61.7199988   1.8310012  53.7974997  61.7479988
   3.2090012  53.8344997  61.1219988   2.6229739  53.4581871  61.6429716
  10.6410012  54.3644997  56.0459988   9.9970012  53.7334997  56.3669988
  11.4030012  53.8334997  55.8139988  10.6558077  54.2062920  56.0586011
  15.2450012  54.1814997  56.2799988  15.5280012  53.3874997  56.7319988
  15.9850012  54.4144997  55.7189988  15.3837486  54.1042803  56.2660698
   6.2000012  50.0914997  56.1369988   6.2640012  49.2974997  56.6679988
   6.8530012  49.9724997  55.4469988   6.2970241  49.9667148  56.1164317
  11.5520012  51.1384997  55.8729988  11.2830012  51.3184997  56.7739988
  11.3460012  50.2124997  55.7419988  11.4873825  51.0380152  55.9785214
   7.3490012  48.0634997  58.4429988   6.8890012  47.5794997  59.1289988
   7.6040012  47.3954997  57.8069988   7.3204902  47.9068731  58.4509334
   8.4200012  46.3064997  56.7049988   8.2400012  46.1524997  55.7779988
   9.3700012  46.4144997  56.7499988   8.5237776  46.3000175  56.5841843
  17.8100012  48.6614997  56.1509988  17.5360012  48.2364997  55.3379988
  17.8490012  49.5924997  55.9339988  17.7777699  48.7292484  56.0103610
   8.3170012  56.9974997  57.7069988   9.2500012  57.1554997  57.8499988
   8.0530012  57.6724997  57.0819988   8.4089510  57.1103611  57.6420741
   1.8860012  51.6334997  57.1889988   2.8000012  51.7124997  57.4629988
   1.8930012  50.9464997  56.5229988   2.0121131  51.5513961  57.1364393
  18.9310012  47.4844997  58.3409988  18.4090012  47.8414997  57.6219988
  18.8980012  48.1594997  59.0189988  18.8551634  47.6245413  58.3343145
  17.2800012  44.7244997  56.8919988  17.3760012  45.3914997  56.2109988
  17.1400012  43.9084997  56.4099988  17.2742135  44.7054500  56.7338491
  16.5270012  42.1324997  56.0089988  17.1380012  41.7614997  56.6459988
  15.6910012  41.7114997  56.2049988  16.4975032  42.0247554  56.1227035
  16.1600012  43.6874997  60.9749988  16.4400012  42.7804997  61.0989988
  16.9190012  44.1214997  60.5859988  16.3009277  43.6220942  60.9393682
  16.7730012  40.9504997  61.0229988  16.9560012  40.5014997  61.8489988
  16.1740012  40.3654997  60.5599988  16.7170202  40.8099975  61.0733275
  18.6400012  41.0174997  57.5509988  19.0520012  40.2964997  57.0759988
  19.3220012  41.6874997  57.6099988  18.7885885  41.0092368  57.4938915
   0.9210012  41.0224997  60.6779988  -0.0039988  41.2314997  60.5489988
   1.3750012  41.5064997  59.9889988   0.8557368  41.1165993  60.5671226
   2.1970012  39.0654997  58.6569988   2.6360012  39.6764997  58.0649988
   1.5640012  39.6034997  59.1309988   2.1714514  39.2219257  58.6400930
  14.8500012  39.2504997  60.0079988  14.1480012  39.8654997  59.7989988
  14.4060012  38.4124997  60.1389988  14.6936330  39.2215783  59.9970328
   4.0580012  40.9814997  57.0989988   4.5500012  40.3514997  56.5719988
   4.6820012  41.2774997  57.7629988   4.2095446  40.9353199  57.1165980
   9.0840012  41.2744997  59.5559988   9.2620012  40.6284997  60.2389988
   9.0310012  42.1084997  60.0239988   9.1011829  41.2987985  59.7125940
  10.9630012  56.2234997  57.9519988  11.8290012  56.5894997  57.7739988
  10.7160012  55.7834997  57.1379988  11.0482392  56.2141756  57.8176289
  17.6720012  55.7864997  60.6309988  17.4770012  55.0384997  60.0659988
  17.6330012  56.5444997  60.0479988  17.6400380  55.7866099  60.4748384
   3.9160012  55.9334997  56.5799988   3.6490012  56.2204997  57.4529988
   4.6880012  55.3874997  56.7319988   3.9837488  55.8990294  56.7201050
  30.0170012  47.6674997  60.2639988  29.3050012  48.2024997  59.9119988
  30.7080012  47.7234997  59.6039988  30.0130132  47.7482543  60.1266289
  30.0700012  46.1254997  57.3029988  30.7710012  46.1474997  57.9539988
  30.3730012  45.4974997  56.6469988  30.2067830  46.0436566  57.3033711
  32.2930012  47.0394997  58.9009988  32.8730012  47.1894997  59.6479988
  32.7070012  47.5104997  58.1779988  32.4282831  47.1236841  58.9054134
  30.0200012  53.7764997  62.3359988  30.4940012  54.0714997  63.1139988
  29.4570012  54.5144997  62.1029988  30.0087653  53.9166932  62.4110136
  35.9920012  38.7894997  58.7139988  35.0920012  38.9284997  59.0089988
  36.2440012  39.6204997  58.3119988  35.9028702  38.9209074  58.7000205
  37.1810012  53.1554997  57.0899988  37.2550012  54.0944997  57.2609988
  38.0870012  52.8504997  57.0339988  37.3135100  53.2426722  57.1058119
  29.4920012  56.7324997  60.7509988  29.4170012  56.6114997  59.8049988
  29.5250012  57.6824997  60.8699988  29.4861848  56.8442500  60.6374834
  32.5940012  55.8864997  57.7529988  32.9690012  55.1424997  57.2829988
  32.5980012  55.6164997  58.6719988  32.6458915  55.7481486  57.8127824
  32.2630012  55.8124997  60.5029988  31.3270012  55.9124997  60.6809988
  32.5430012  55.1034997  61.0809988  32.1728255  55.7302711  60.6055391
  33.7710012  48.0724997  56.5309988  33.8130012  47.8494997  55.6009988
  34.6200012  48.4714997  56.7209988  33.8915396  48.0959155  56.4293627
  29.3430012  41.9484997  57.2009988  29.0900012  41.9674997  58.1239988
  29.0870012  41.0764997  56.8999988  29.2737790  41.8332437  57.2866263
  30.6420012  45.3364997  61.3649988  30.2330012  46.1514997  61.0739988
  31.3630012  45.1964997  60.7509988  30.6834537  45.4292018  61.2421342
  26.2260012  42.3934997  56.3019988  25.7950012  41.9484997  57.0319988
  25.5080012  42.7654997  55.7899988  26.0699438  42.3828940  56.3326799
  20.7420012  42.8814997  58.7779988  21.2160012  43.4724997  58.1929988
  20.0250012  43.4124997  59.1249988  20.7099341  43.0340867  58.7448836
  26.1700012  43.9764997  60.1179988  27.1010012  44.1054997  60.2959988
  25.9550012  44.6464997  59.4679988  26.2684247  44.0846565  60.0545747
  24.8440012  45.1714997  57.6849988  24.3010012  44.7914997  56.9929988
  25.6770012  45.3654997  57.2559988  24.8824399  45.1458124  57.5324526
  24.0100012  41.2714997  61.9399988  23.6930012  40.3694997  61.9049988
  24.7920012  41.2734997  61.3869988  24.0722284  41.1481628  61.8604783
  28.1790012  49.7364997  59.6199988  27.4340012  49.2294997  59.2979988
  28.0450012  49.7854997  60.5669988  28.0588776  49.6736940  59.7038647
  32.0770012  42.5504997  57.8199988  31.1380012  42.6624997  57.6679988
  32.3740012  43.4074997  58.1259988  31.9887666  42.6816443  57.8405768
  30.3050012  51.1954997  58.6459988  30.0090012  52.0214997  59.0269988
  29.6020012  50.5754997  58.8419988  30.1694914  51.2248199  58.7246443
  37.6800012  44.6274997  59.1749988  37.1260012  44.2314997  58.5029988
  37.7800012  45.5374997  58.8969988  37.6177059  44.6963586  59.0454401
  35.9750012  53.4134997  59.6399988  35.6020012  52.5874997  59.9489988
  36.2530012  53.2304997  58.7429988  35.9615630  53.2757303  59.5609626
  21.4340012  47.4114997  57.3809988  22.0500012  48.0384997  57.7609988
  20.5720012  47.7274997  57.6529988  21.4017698  47.5399430  57.4697183
  33.3680012  51.3894997  57.4599988  33.7210012  51.0094997  58.2649988
  32.4190012  51.2964997  57.5469988  33.2880441  51.3249596  57.5818559
  37.8710012  55.8694997  57.6609988  38.6150012  56.4554997  57.5209988
  37.1770012  56.4374997  57.9949988  37.8790292  56.0265582  57.6869961
  27.4590012  52.5014997  55.9069988  27.6980012  51.7534997  55.3599988
  27.1900012  52.1134997  56.7399988  27.4553675  52.3466638  55.9446865
  26.3960012  52.0714997  58.3639988  26.5420012  51.5514997  59.1539988
  26.3930012  52.9784997  58.6699988  26.4155989  52.1228853  58.5136088
  22.8490012  49.3244997  58.8739988  22.1630012  49.6764997  59.4409988
  23.3710012  50.0874997  58.6269988  22.8256852  49.4758578  58.9182118
  29.1330012  53.7694997  59.1129988  28.3170012  54.2664997  59.1649988
  29.6630012  54.2444997  58.4729988  29.0929161  53.9017722  59.0335956
  28.6650012  43.3664997  61.0849988  29.4770012  43.8714997  61.1309988
  28.4200012  43.2214997  61.9989988  28.7430520  43.4160375  61.2148517
  29.5480012  40.4474997  62.0229988  29.2020012  41.0654997  62.6679988
  30.2070012  40.9484997  61.5419988  29.5897826  40.5995802  62.0460971
  26.4720012  54.8134997  59.0949988  26.6320012  55.6124997  58.5939988
  26.2740012  55.1194997  59.9799988  26.4671649  54.9644469  59.1459815
  25.2060012  41.5104997  58.7099988  25.1230012  42.3994997  59.0569988
  26.0960012  41.2454997  58.9419988  25.3149469  41.5961430  58.7887626
  23.4650012  51.9384997  57.7709988  24.0570012  52.6374997  58.0469988
  23.9240012  51.5054997  57.0509988  23.6081142  51.9757049  57.7114830
  21.7810012  44.6024997  56.8869988  21.7360012  45.5414997  57.0649988
  20.8930012  44.3664997  56.6169988  21.6548574  44.6991892  56.8748912
  29.4970012  54.3644997  56.0459988  28.8530012  53.7334997  56.3669988
  30.2590012  53.8334997  55.8139988  29.5118077  54.2062920  56.0586011
  34.1010012  54.1814997  56.2799988  34.3840012  53.3874997  56.7319988
  34.8410012  54.4144997  55.7189988  34.2397486  54.1042803  56.2660698
  25.0560012  50.0914997  56.1369988  25.1200012  49.2974997  56.6679988
  25.7090012  49.9724997  55.4469988  25.1530241  49.9667148  56.1164317
  30.4080012  51.1384997  55.8729988  30.1390012  51.3184997  56.7739988
  30.2020012  50.2124997  55.7419988  30.3433825  51.0380152  55.9785214
  27.2760012  46.3064997  56.7049988  27.0960012  46.1524997  55.7779988
  28.2260012  46.4144997  56.7499988  27.3797776  46.3000175  56.5841843
  36.6660012  48.6614997  56.1509988  36.3920012  48.2364997  55.3379988
  36.7050012  49.5924997  55.9339988  36.6337699  48.7292484  56.0103610
  27.1730012  56.9974997  57.7069988  28.1060012  57.1554997  57.8499988
  26.9090012  57.6724997  57.0819988  27.2649510  57.1103611  57.6420741
  20.7420012  51.6334997  57.1889988  21.6560012  51.7124997  57.4629988
  20.7490012  50.9464997  56.5229988  20.8681131  51.5513961  57.1364393
  37.1240012  49.5304997  60.1259988  37.9740012  49.9514997  60.2529988
  37.1300012  48.7904997  60.7329988  37.2411372  49.4880803  60.2254344
  37.5190012  47.5834997  61.9499988  36.7920012  47.1044997  62.3469988
  38.1000012  47.7894997  62.6819988  37.4979375  47.5457090  62.1034129
  37.7870012  47.4844997  58.3409988  37.2650012  47.8414997  57.6219988
  37.7540012  48.1594997  59.0189988  37.7111634  47.6245413  58.3343145
  36.1360012  44.7244997  56.8919988  36.2320012  45.3914997  56.2109988
  35.9960012  43.9084997  56.4099988  36.1302135  44.7054500  56.7338491
  35.3830012  42.1324997  56.0089988  35.9940012  41.7614997  56.6459988
  34.5470012  41.7114997  56.2049988  35.3535032  42.0247554  56.1227035
  37.4960012  41.0174997  57.5509988  37.9080012  40.2964997  57.0759988
  38.1780012  41.6874997  57.6099988  37.6445885  41.0092368  57.4938915
  21.0530012  39.0654997  58.6569988  21.4920012  39.6764997  58.0649988
  20.4200012  39.6034997  59.1309988  21.0274514  39.2219257  58.6400930
  33.7060012  39.2504997  60.0079988  33.0040012  39.8654997  59.7989988
  33.2620012  38.4124997  60.1389988  33.5496330  39.2215783  59.9970328
  20.9540012  55.0134997  59.5549988  20.2690012  54.9754997  58.8869988
  20.9580012  55.9264997  59.8429988  20.8608193  55.1317016  59.5025284
  22.9140012  40.9814997  57.0989988  23.4060012  40.3514997  56.5719988
  23.5380012  41.2774997  57.7629988  23.0655446  40.9353199  57.1165980
  27.9400012  41.2744997  59.5559988  28.1180012  40.6284997  60.2389988
  27.8870012  42.1084997  60.0239988  27.9571829  41.2987985  59.7125940
  29.8190012  56.2234997  57.9519988  30.6850012  56.5894997  57.7739988
  29.5720012  55.7834997  57.1379988  29.9042392  56.2141756  57.8176289
  22.7720012  55.9334997  56.5799988  22.5050012  56.2204997  57.4529988
  23.5440012  55.3874997  56.7319988  22.8397488  55.8990294  56.7201050
  52.7140012  52.1394997  62.0139988  52.4560012  51.4494997  61.4029988
  52.7850012  51.6964997  62.8599988  52.6882856  51.9852124  62.0446885
  48.9260012  46.1254997  57.3029988  49.6270012  46.1474997  57.9539988
  49.2290012  45.4974997  56.6469988  49.0627830  46.0436566  57.3033711
  51.1490012  47.0394997  58.9009988  51.7290012  47.1894997  59.6479988
  51.5630012  47.5104997  58.1779988  51.2842830  47.1236841  58.9054134
  54.8480012  38.7894997  58.7139988  53.9480012  38.9284997  59.0089988
  55.1000012  39.6204997  58.3119988  54.7588702  38.9209074  58.7000205
  56.0370012  53.1554997  57.0899988  56.1110012  54.0944997  57.2609988
  56.9430012  52.8504997  57.0339988  56.1695100  53.2426722  57.1058119
  48.3480012  56.7324997  60.7509988  48.2730012  56.6114997  59.8049988
  48.3810012  57.6824997  60.8699988  48.3421848  56.8442500  60.6374834
  51.4500012  55.8864997  57.7529988  51.8250012  55.1424997  57.2829988
  51.4540012  55.6164997  58.6719988  51.5018915  55.7481486  57.8127824
  51.1190012  55.8124997  60.5029988  50.1830012  55.9124997  60.6809988
  51.3990012  55.1034997  61.0809988  51.0288255  55.7302711  60.6055391
  52.6270012  48.0724997  56.5309988  52.6690012  47.8494997  55.6009988
  53.4760012  48.4714997  56.7209988  52.7475396  48.0959155  56.4293627
  48.1990012  41.9484997  57.2009988  47.9460012  41.9674997  58.1239988
  47.9430012  41.0764997  56.8999988  48.1297790  41.8332437  57.2866263
  45.0820012  42.3934997  56.3019988  44.6510012  41.9484997  57.0319988
  44.3640012  42.7654997  55.7899988  44.9259438  42.3828940  56.3326799
  39.5980012  42.8814997  58.7779988  40.0720012  43.4724997  58.1929988
  38.8810012  43.4124997  59.1249988  39.5659341  43.0340867  58.7448836
  45.0260012  43.9764997  60.1179988  45.9570012  44.1054997  60.2959988
  44.8110012  44.6464997  59.4679988  45.1244247  44.0846565  60.0545747
  43.7000012  45.1714997  57.6849988  43.1570012  44.7914997  56.9929988
  44.5330012  45.3654997  57.2559988  43.7384399  45.1458124  57.5324526
  50.9330012  42.5504997  57.8199988  49.9940012  42.6624997  57.6679988
  51.2300012  43.4074997  58.1259988  50.8447666  42.6816443  57.8405768
  49.1610012  51.1954997  58.6459988  48.8650012  52.0214997  59.0269988
  48.4580012  50.5754997  58.8419988  49.0254914  51.2248199  58.7246443
  56.5360012  44.6274997  59.1749988  55.9820012  44.2314997  58.5029988
  56.6360012  45.5374997  58.8969988  56.4737059  44.6963586  59.0454401
  54.8310012  53.4134997  59.6399988  54.4580012  52.5874997  59.9489988
  55.1090012  53.2304997  58.7429988  54.8175630  53.2757303  59.5609626
  40.2900012  47.4114997  57.3809988  40.9060012  48.0384997  57.7609988
  39.4280012  47.7274997  57.6529988  40.2577698  47.5399430  57.4697183
  52.2240012  51.3894997  57.4599988  52.5770012  51.0094997  58.2649988
  51.2750012  51.2964997  57.5469988  52.1440441  51.3249596  57.5818559
  56.7270012  55.8694997  57.6609988  57.4710012  56.4554997  57.5209988
  56.0330012  56.4374997  57.9949988  56.7350292  56.0265582  57.6869961
  53.0900012  50.0624997  59.6869988  52.8120012  49.3344997  60.2429988
  54.0170012  50.1814997  59.8919988  53.1773124  49.9788802  59.7908845
  46.3150012  52.5014997  55.9069988  46.5540012  51.7534997  55.3599988
  46.0460012  52.1134997  56.7399988  46.3113675  52.3466638  55.9446865
  45.2520012  52.0714997  58.3639988  45.3980012  51.5514997  59.1539988
  45.2490012  52.9784997  58.6699988  45.2715989  52.1228853  58.5136088
  41.7050012  49.3244997  58.8739988  41.0190012  49.6764997  59.4409988
  42.2270012  50.0874997  58.6269988  41.6816852  49.4758578  58.9182118
  50.3210012  41.6384997  60.2499988  50.5410012  42.1104997  59.4469988
  50.8790012  42.0334997  60.9199988  50.4264968  41.7564285  60.2307331
  47.9890012  53.7694997  59.1129988  47.1730012  54.2664997  59.1649988
  48.5190012  54.2444997  58.4729988  47.9489161  53.9017722  59.0335956
  47.5210012  43.3664997  61.0849988  48.3330012  43.8714997  61.1309988
  47.2760012  43.2214997  61.9989988  47.5990520  43.4160375  61.2148517
  48.4040012  40.4474997  62.0229988  48.0580012  41.0654997  62.6679988
  49.0630012  40.9484997  61.5419988  48.4457826  40.5995802  62.0460971
  45.3280012  54.8134997  59.0949988  45.4880012  55.6124997  58.5939988
  45.1300012  55.1194997  59.9799988  45.3231649  54.9644469  59.1459815
  44.0620012  41.5104997  58.7099988  43.9790012  42.3994997  59.0569988
  44.9520012  41.2454997  58.9419988  44.1709469  41.5961430  58.7887626
  42.3210012  51.9384997  57.7709988  42.9130012  52.6374997  58.0469988
  42.7800012  51.5054997  57.0509988  42.4641142  51.9757049  57.7114830
  40.6370012  44.6024997  56.8869988  40.5920012  45.5414997  57.0649988
  39.7490012  44.3664997  56.6169988  40.5108574  44.6991892  56.8748912
  48.3530012  54.3644997  56.0459988  47.7090012  53.7334997  56.3669988
  49.1150012  53.8334997  55.8139988  48.3678077  54.2062920  56.0586011
  52.9570012  54.1814997  56.2799988  53.2400012  53.3874997  56.7319988
  53.6970012  54.4144997  55.7189988  53.0957486  54.1042803  56.2660698
  43.9120012  50.0914997  56.1369988  43.9760012  49.2974997  56.6679988
  44.5650012  49.9724997  55.4469988  44.0090241  49.9667148  56.1164317
  49.2640012  51.1384997  55.8729988  48.9950012  51.3184997  56.7739988
  49.0580012  50.2124997  55.7419988  49.1993825  51.0380152  55.9785214
  45.0610012  48.0634997  58.4429988  44.6010012  47.5794997  59.1289988
  45.3160012  47.3954997  57.8069988  45.0324902  47.9068731  58.4509334
  46.1320012  46.3064997  56.7049988  45.9520012  46.1524997  55.7779988
  47.0820012  46.4144997  56.7499988  46.2357776  46.3000175  56.5841843
  55.5220012  48.6614997  56.1509988  55.2480012  48.2364997  55.3379988
  55.5610012  49.5924997  55.9339988  55.4897699  48.7292484  56.0103610
  46.0290012  56.9974997  57.7069988  46.9620012  57.1554997  57.8499988
  45.7650012  57.6724997  57.0819988  46.1209510  57.1103611  57.6420741
  39.5980012  51.6334997  57.1889988  40.5120012  51.7124997  57.4629988
  39.6050012  50.9464997  56.5229988  39.7241131  51.5513961  57.1364393
  56.6430012  47.4844997  58.3409988  56.1210012  47.8414997  57.6219988
  56.6100012  48.1594997  59.0189988  56.5671634  47.6245413  58.3343145
  54.9920012  44.7244997  56.8919988  55.0880012  45.3914997  56.2109988
  54.8520012  43.9084997  56.4099988  54.9862135  44.7054500  56.7338491
  54.2390012  42.1324997  56.0089988  54.8500012  41.7614997  56.6459988
  53.4030012  41.7114997  56.2049988  54.2095032  42.0247554  56.1227035
  53.8720012  43.6874997  60.9749988  54.1520012  42.7804997  61.0989988
  54.6310012  44.1214997  60.5859988  54.0129277  43.6220942  60.9393682
  54.4850012  40.9504997  61.0229988  54.6680012  40.5014997  61.8489988
  53.8860012  40.3654997  60.5599988  54.4290202  40.8099975  61.0733275
  56.3520012  41.0174997  57.5509988  56.7640012  40.2964997  57.0759988
  57.0340012  41.6874997  57.6099988  56.5005885  41.0092368  57.4938915
  38.6330012  41.0224997  60.6779988  37.7080012  41.2314997  60.5489988
  39.0870012  41.5064997  59.9889988  38.5677368  41.1165993  60.5671226
  39.9090012  39.0654997  58.6569988  40.3480012  39.6764997  58.0649988
  39.2760012  39.6034997  59.1309988  39.8834514  39.2219257  58.6400930
  52.5620012  39.2504997  60.0079988  51.8600012  39.8654997  59.7989988
  52.1180012  38.4124997  60.1389988  52.4056330  39.2215783  59.9970328
  39.8100012  55.0134997  59.5549988  39.1250012  54.9754997  58.8869988
  39.8140012  55.9264997  59.8429988  39.7168193  55.1317016  59.5025284
  41.7700012  40.9814997  57.0989988  42.2620012  40.3514997  56.5719988
  42.3940012  41.2774997  57.7629988  41.9215446  40.9353199  57.1165980
  46.7960012  41.2744997  59.5559988  46.9740012  40.6284997  60.2389988
  46.7430012  42.1084997  60.0239988  46.8131829  41.2987985  59.7125940
  48.6750012  56.2234997  57.9519988  49.5410012  56.5894997  57.7739988
  48.4280012  55.7834997  57.1379988  48.7602392  56.2141756  57.8176289
  41.6280012  55.9334997  56.5799988  41.3610012  56.2204997  57.4529988
  42.4000012  55.3874997  56.7319988  41.6957488  55.8990294  56.7201050
  67.7290012  47.6674997  60.2639988  67.0170012  48.2024997  59.9119988
  68.4200012  47.7234997  59.6039988  67.7250132  47.7482543  60.1266289
  67.7820012  46.1254997  57.3029988  68.4830012  46.1474997  57.9539988
  68.0850012  45.4974997  56.6469988  67.9187830  46.0436566  57.3033711
  71.1340012  47.8774997  61.2159988  70.4020012  48.1054997  61.7889988
  71.5820012  47.1634997  61.6709988  71.0943095  47.8122571  61.3559119
  70.0050012  47.0394997  58.9009988  70.5850012  47.1894997  59.6479988
  70.4190012  47.5104997  58.1779988  70.1402830  47.1236841  58.9054134
  73.7040012  38.7894997  58.7139988  72.8040012  38.9284997  59.0089988
  73.9560012  39.6204997  58.3119988  73.6148702  38.9209074  58.7000205
  61.7700012  47.5774997  60.6879988  61.4780012  48.3454997  60.1969988
  61.0960012  46.9174997  60.5249988  61.6389081  47.5934406  60.5987340
  74.8930012  53.1554997  57.0899988  74.9670012  54.0944997  57.2609988
  75.7990012  52.8504997  57.0339988  75.0255100  53.2426722  57.1058119
  67.2040012  56.7324997  60.7509988  67.1290012  56.6114997  59.8049988
  67.2370012  57.6824997  60.8699988  67.1981848  56.8442500  60.6374834
  70.3060012  55.8864997  57.7529988  70.6810012  55.1424997  57.2829988
  70.3100012  55.6164997  58.6719988  70.3578915  55.7481486  57.8127824
  69.9750012  55.8124997  60.5029988  69.0390012  55.9124997  60.6809988
  70.2550012  55.1034997  61.0809988  69.8848255  55.7302711  60.6055391
  71.4830012  48.0724997  56.5309988  71.5250012  47.8494997  55.6009988
  72.3320012  48.4714997  56.7209988  71.6035396  48.0959155  56.4293627
  67.0550012  41.9484997  57.2009988  66.8020012  41.9674997  58.1239988
  66.7990012  41.0764997  56.8999988  66.9857790  41.8332437  57.2866263
  63.9380012  42.3934997  56.3019988  63.5070012  41.9484997  57.0319988
  63.2200012  42.7654997  55.7899988  63.7819438  42.3828940  56.3326799
  58.4540012  42.8814997  58.7779988  58.9280012  43.4724997  58.1929988
  57.7370012  43.4124997  59.1249988  58.4219341  43.0340867  58.7448836
  63.8820012  43.9764997  60.1179988  64.8130012  44.1054997  60.2959988
  63.6670012  44.6464997  59.4679988  63.9804247  44.0846565  60.0545747
  62.5560012  45.1714997  57.6849988  62.0130012  44.7914997  56.9929988
  63.3890012  45.3654997  57.2559988  62.5944399  45.1458124  57.5324526
  65.8910012  49.7364997  59.6199988  65.1460012  49.2294997  59.2979988
  65.7570012  49.7854997  60.5669988  65.7708776  49.6736940  59.7038647
  69.7890012  42.5504997  57.8199988  68.8500012  42.6624997  57.6679988
  70.0860012  43.4074997  58.1259988  69.7007666  42.6816443  57.8405768
  70.5070012  44.4174997  59.4799988  71.3990012  44.2804997  59.7989988
  70.5640012  45.2084997  58.9439988  70.6366285  44.5056660  59.4511691
  68.0170012  51.1954997  58.6459988  67.7210012  52.0214997  59.0269988
  67.3140012  50.5754997  58.8419988  67.8814914  51.2248199  58.7246443
  75.3920012  44.6274997  59.1749988  74.8380012  44.2314997  58.5029988
  75.4920012  45.5374997  58.8969988  75.3297059  44.6963586  59.0454401
  73.6870012  53.4134997  59.6399988  73.3140012  52.5874997  59.9489988
  73.9650012  53.2304997  58.7429988  73.6735630  53.2757303  59.5609626
  59.1460012  47.4114997  57.3809988  59.7620012  48.0384997  57.7609988
  58.2840012  47.7274997  57.6529988  59.1137698  47.5399430  57.4697183
  64.8180012  50.2124997  62.3709988  64.5770012  51.1374997  62.4119988
  64.0770012  49.7534997  62.7669988  64.6848409  50.2771421  62.4301377
  71.0800012  51.3894997  57.4599988  71.4330012  51.0094997  58.2649988
  70.1310012  51.2964997  57.5469988  71.0000441  51.3249596  57.5818559
  75.5830012  55.8694997  57.6609988  76.3270012  56.4554997  57.5209988
  74.8890012  56.4374997  57.9949988  75.5910292  56.0265582  57.6869961
  71.9460012  50.0624997  59.6869988  71.6680012  49.3344997  60.2429988
  72.8730012  50.1814997  59.8919988  72.0333124  49.9788802  59.7908845
  65.1710012  52.5014997  55.9069988  65.4100012  51.7534997  55.3599988
  64.9020012  52.1134997  56.7399988  65.1673675  52.3466638  55.9446865
  64.1080012  52.0714997  58.3639988  64.2540012  51.5514997  59.1539988
  64.1050012  52.9784997  58.6699988  64.1275989  52.1228853  58.5136088
  66.8450012  53.7694997  59.1129988  66.0290012  54.2664997  59.1649988
  67.3750012  54.2444997  58.4729988  66.8049161  53.9017722  59.0335956
  62.9180012  41.5104997  58.7099988  62.8350012  42.3994997  59.0569988
  63.8080012  41.2454997  58.9419988  63.0269469  41.5961430  58.7887626
  61.1770012  51.9384997  57.7709988  61.7690012  52.6374997  58.0469988
  61.6360012  51.5054997  57.0509988  61.3201142  51.9757049  57.7114830
  59.4930012  44.6024997  56.8869988  59.4480012  45.5414997  57.0649988
  58.6050012  44.3664997  56.6169988  59.3668574  44.6991892  56.8748912
  67.2090012  54.3644997  56.0459988  66.5650012  53.7334997  56.3669988
  67.9710012  53.8334997  55.8139988  67.2238077  54.2062920  56.0586011
  71.8130012  54.1814997  56.2799988  72.0960012  53.3874997  56.7319988
  72.5530012  54.4144997  55.7189988  71.9517486  54.1042803  56.2660698
  62.7680012  50.0914997  56.1369988  62.8320012  49.2974997  56.6679988
  63.4210012  49.9724997  55.4469988  62.8650241  49.9667148  56.1164317
  68.1200012  51.1384997  55.8729988  67.8510012  51.3184997  56.7739988
  67.9140012  50.2124997  55.7419988  68.0553825  51.0380152  55.9785214
  63.9170012  48.0634997  58.4429988  63.4570012  47.5794997  59.1289988
  64.1720012  47.3954997  57.8069988  63.8884902  47.9068731  58.4509334
  64.9880012  46.3064997  56.7049988  64.8080012  46.1524997  55.7779988
  65.9380012  46.4144997  56.7499988  65.0917776  46.3000175  56.5841843
  74.3780012  48.6614997  56.1509988  74.1040012  48.2364997  55.3379988
  74.4170012  49.5924997  55.9339988  74.3457699  48.7292484  56.0103610
  64.8850012  56.9974997  57.7069988  65.8180012  57.1554997  57.8499988
  64.6210012  57.6724997  57.0819988  64.9769510  57.1103611  57.6420741
  58.4540012  51.6334997  57.1889988  59.3680012  51.7124997  57.4629988
  58.4610012  50.9464997  56.5229988  58.5801131  51.5513961  57.1364393
  75.4990012  47.4844997  58.3409988  74.9770012  47.8414997  57.6219988
  75.4660012  48.1594997  59.0189988  75.4231634  47.6245413  58.3343145
  73.8480012  44.7244997  56.8919988  73.9440012  45.3914997  56.2109988
  73.7080012  43.9084997  56.4099988  73.8422135  44.7054500  56.7338491
  73.0950012  42.1324997  56.0089988  73.7060012  41.7614997  56.6459988
  72.2590012  41.7114997  56.2049988  73.0655032  42.0247554  56.1227035
  72.7280012  43.6874997  60.9749988  73.0080012  42.7804997  61.0989988
  73.4870012  44.1214997  60.5859988  72.8689277  43.6220942  60.9393682
  73.3410012  40.9504997  61.0229988  73.5240012  40.5014997  61.8489988
  72.7420012  40.3654997  60.5599988  73.2850202  40.8099975  61.0733275
  75.2080012  41.0174997  57.5509988  75.6200012  40.2964997  57.0759988
  75.8900012  41.6874997  57.6099988  75.3565885  41.0092368  57.4938915
  58.7650012  39.0654997  58.6569988  59.2040012  39.6764997  58.0649988
  58.1320012  39.6034997  59.1309988  58.7394514  39.2219257  58.6400930
  71.4180012  39.2504997  60.0079988  70.7160012  39.8654997  59.7989988
  70.9740012  38.4124997  60.1389988  71.2616330  39.2215783  59.9970328
  58.6660012  55.0134997  59.5549988  57.9810012  54.9754997  58.8869988
  58.6700012  55.9264997  59.8429988  58.5728193  55.1317016  59.5025284
  60.6260012  40.9814997  57.0989988  61.1180012  40.3514997  56.5719988
  61.2500012  41.2774997  57.7629988  60.7775446  40.9353199  57.1165980
  65.6520012  41.2744997  59.5559988  65.8300012  40.6284997  60.2389988
  65.5990012  42.1084997  60.0239988  65.6691829  41.2987985  59.7125940
  67.5310012  56.2234997  57.9519988  68.3970012  56.5894997  57.7739988
  67.2840012  55.7834997  57.1379988  67.6162392  56.2141756  57.8176289
  60.4840012  55.9334997  56.5799988  60.2170012  56.2204997  57.4529988
  61.2560012  55.3874997  56.7319988  60.5517488  55.8990294  56.7201050
  86.5850012  47.6674997  60.2639988  85.8730012  48.2024997  59.9119988
  87.2760012  47.7234997  59.6039988  86.5810132  47.7482543  60.1266289
  86.6380012  46.1254997  57.3029988  87.3390012  46.1474997  57.9539988
  86.9410012  45.4974997  56.6469988  86.7747830  46.0436566  57.3033711
  88.8610012  47.0394997  58.9009988  89.4410012  47.1894997  59.6479988
  89.2750012  47.5104997  58.1779988  88.9962830  47.1236841  58.9054134
  92.5600012  38.7894997  58.7139988  91.6600012  38.9284997  59.0089988
  92.8120012  39.6204997  58.3119988  92.4708702  38.9209074  58.7000205
  80.6260012  47.5774997  60.6879988  80.3340012  48.3454997  60.1969988
  79.9520012  46.9174997  60.5249988  80.4949081  47.5934406  60.5987340
  93.7490012  53.1554997  57.0899988  93.8230012  54.0944997  57.2609988
  94.6550012  52.8504997  57.0339988  93.8815100  53.2426722  57.1058119
  86.0600012  56.7324997  60.7509988  85.9850012  56.6114997  59.8049988
  86.0930012  57.6824997  60.8699988  86.0541848  56.8442500  60.6374834
  89.1620012  55.8864997  57.7529988  89.5370012  55.1424997  57.2829988
  89.1660012  55.6164997  58.6719988  89.2138915  55.7481486  57.8127824
  90.3390012  48.0724997  56.5309988  90.3810012  47.8494997  55.6009988
  91.1880012  48.4714997  56.7209988  90.4595396  48.0959155  56.4293627
  85.9110012  41.9484997  57.2009988  85.6580012  41.9674997  58.1239988
  85.6550012  41.0764997  56.8999988  85.8417790  41.8332437  57.2866263
  82.7940012  42.3934997  56.3019988  82.3630012  41.9484997  57.0319988
  82.0760012  42.7654997  55.7899988  82.6379438  42.3828940  56.3326799
  77.3100012  42.8814997  58.7779988  77.7840012  43.4724997  58.1929988
  76.5930012  43.4124997  59.1249988  77.2779341  43.0340867  58.7448836
  82.7380012  43.9764997  60.1179988  83.6690012  44.1054997  60.2959988
  82.5230012  44.6464997  59.4679988  82.8364247  44.0846565  60.0545747
  81.4120012  45.1714997  57.6849988  80.8690012  44.7914997  56.9929988
  82.2450012  45.3654997  57.2559988  81.4504399  45.1458124  57.5324526
  88.6450012  42.5504997  57.8199988  87.7060012  42.6624997  57.6679988
  88.9420012  43.4074997  58.1259988  88.5567666  42.6816443  57.8405768
  86.8730012  51.1954997  58.6459988  86.5770012  52.0214997  59.0269988
  86.1700012  50.5754997  58.8419988  86.7374914  51.2248199  58.7246443
  92.5430012  53.4134997  59.6399988  92.1700012  52.5874997  59.9489988
  92.8210012  53.2304997  58.7429988  92.5295630  53.2757303  59.5609626
  78.0020012  47.4114997  57.3809988  78.6180012  48.0384997  57.7609988
  77.1400012  47.7274997  57.6529988  77.9697698  47.5399430  57.4697183
  82.3570012  55.2344997  61.9159988  81.4070012  55.3394997  61.9669988
  82.7090012  56.0544997  62.2609988  82.2744203  55.3598314  61.9696650
  89.9360012  51.3894997  57.4599988  90.2890012  51.0094997  58.2649988
  88.9870012  51.2964997  57.5469988  89.8560441  51.3249596  57.5818559
  94.4390012  55.8694997  57.6609988  95.1830012  56.4554997  57.5209988
  93.7450012  56.4374997  57.9949988  94.4470292  56.0265582  57.6869961
  90.8020012  50.0624997  59.6869988  90.5240012  49.3344997  60.2429988
  91.7290012  50.1814997  59.8919988  90.8893124  49.9788802  59.7908845
  84.0270012  52.5014997  55.9069988  84.2660012  51.7534997  55.3599988
  83.7580012  52.1134997  56.7399988  84.0233675  52.3466638  55.9446865
  82.9640012  52.0714997  58.3639988  83.1100012  51.5514997  59.1539988
  82.9610012  52.9784997  58.6699988  82.9835989  52.1228853  58.5136088
  79.4170012  49.3244997  58.8739988  78.7310012  49.6764997  59.4409988
  79.9390012  50.0874997  58.6269988  79.3936852  49.4758578  58.9182118
  83.0400012  54.8134997  59.0949988  83.2000012  55.6124997  58.5939988
  82.8420012  55.1194997  59.9799988  83.0351649  54.9644469  59.1459815
  81.7740012  41.5104997  58.7099988  81.6910012  42.3994997  59.0569988
  82.6640012  41.2454997  58.9419988  81.8829469  41.5961430  58.7887626
  80.0330012  51.9384997  57.7709988  80.6250012  52.6374997  58.0469988
  80.4920012  51.5054997  57.0509988  80.1761142  51.9757049  57.7114830
  78.3490012  44.6024997  56.8869988  78.3040012  45.5414997  57.0649988
  77.4610012  44.3664997  56.6169988  78.2228574  44.6991892  56.8748912
  86.0650012  54.3644997  56.0459988  85.4210012  53.7334997  56.3669988
  86.8270012  53.8334997  55.8139988  86.0798077  54.2062920  56.0586011
  90.6690012  54.1814997  56.2799988  90.9520012  53.3874997  56.7319988
  91.4090012  54.4144997  55.7189988  90.8077486  54.1042803  56.2660698
  81.6240012  50.0914997  56.1369988  81.6880012  49.2974997  56.6679988
  82.2770012  49.9724997  55.4469988  81.7210241  49.9667148  56.1164317
  86.9760012  51.1384997  55.8729988  86.7070012  51.3184997  56.7739988
  86.7700012  50.2124997  55.7419988  86.9113825  51.0380152  55.9785214
  82.7730012  48.0634997  58.4429988  82.3130012  47.5794997  59.1289988
  83.0280012  47.3954997  57.8069988  82.7444902  47.9068731  58.4509334
  83.8440012  46.3064997  56.7049988  83.6640012  46.1524997  55.7779988
  84.7940012  46.4144997  56.7499988  83.9477776  46.3000175  56.5841843
  93.2340012  48.6614997  56.1509988  92.9600012  48.2364997  55.3379988
  93.2730012  49.5924997  55.9339988  93.2017699  48.7292484  56.0103610
  83.7410012  56.9974997  57.7069988  84.6740012  57.1554997  57.8499988
  83.4770012  57.6724997  57.0819988  83.8329510  57.1103611  57.6420741
  77.3100012  51.6334997  57.1889988  78.2240012  51.7124997  57.4629988
  77.3170012  50.9464997  56.5229988  77.4361131  51.5513961  57.1364393
  93.6920012  49.5304997  60.1259988  94.5420012  49.9514997  60.2529988
  93.6980012  48.7904997  60.7329988  93.8091372  49.4880803  60.2254344
  94.3550012  47.4844997  58.3409988  93.8330012  47.8414997  57.6219988
  94.3220012  48.1594997  59.0189988  94.2791634  47.6245413  58.3343145
  92.7040012  44.7244997  56.8919988  92.8000012  45.3914997  56.2109988
  92.5640012  43.9084997  56.4099988  92.6982135  44.7054500  56.7338491
  91.9510012  42.1324997  56.0089988  92.5620012  41.7614997  56.6459988
  91.1150012  41.7114997  56.2049988  91.9215032  42.0247554  56.1227035
  92.1970012  40.9504997  61.0229988  92.3800012  40.5014997  61.8489988
  91.5980012  40.3654997  60.5599988  92.1410202  40.8099975  61.0733275
  94.0640012  41.0174997  57.5509988  94.4760012  40.2964997  57.0759988
  94.7460012  41.6874997  57.6099988  94.2125885  41.0092368  57.4938915
  77.6210012  39.0654997  58.6569988  78.0600012  39.6764997  58.0649988
  76.9880012  39.6034997  59.1309988  77.5954514  39.2219257  58.6400930
  90.2740012  39.2504997  60.0079988  89.5720012  39.8654997  59.7989988
  89.8300012  38.4124997  60.1389988  90.1176330  39.2215783  59.9970328
  79.4820012  40.9814997  57.0989988  79.9740012  40.3514997  56.5719988
  80.1060012  41.2774997  57.7629988  79.6335446  40.9353199  57.1165980
  86.3870012  56.2234997  57.9519988  87.2530012  56.5894997  57.7739988
  86.1400012  55.7834997  57.1379988  86.4722392  56.2141756  57.8176289
  79.3400012  55.9334997  56.5799988  79.0730012  56.2204997  57.4529988
  80.1120012  55.3874997  56.7319988  79.4077488  55.8990294  56.7201050
  95.5540012  45.4034997  61.7519988  95.1070012  46.2494997  61.7329988
  94.9930012  44.8234997  61.2359988  95.4169900  45.4409916  61.6796801
 105.4410012  47.6674997  60.2639988 104.7290012  48.2024997  59.9119988
 106.1320012  47.7234997  59.6039988 105.4370132  47.7482543  60.1266289
 105.4940012  46.1254997  57.3029988 106.1950012  46.1474997  57.9539988
 105.7970012  45.4974997  56.6469988 105.6307830  46.0436566  57.3033711
 107.7170012  47.0394997  58.9009988 108.2970012  47.1894997  59.6479988
 108.1310012  47.5104997  58.1779988 107.8522831  47.1236841  58.9054134
 105.4440012  53.7764997  62.3359988 105.9180012  54.0714997  63.1139988
 104.8810012  54.5144997  62.1029988 105.4327653  53.9166932  62.4110136
  99.4820012  47.5774997  60.6879988  99.1900012  48.3454997  60.1969988
  98.8080012  46.9174997  60.5249988  99.3509081  47.5934406  60.5987340
 112.6050012  53.1554997  57.0899988 112.6790012  54.0944997  57.2609988
 113.5110012  52.8504997  57.0339988 112.7375100  53.2426722  57.1058119
 108.0180012  55.8864997  57.7529988 108.3930012  55.1424997  57.2829988
 108.0220012  55.6164997  58.6719988 108.0698915  55.7481486  57.8127824
 109.1950012  48.0724997  56.5309988 109.2370012  47.8494997  55.6009988
 110.0440012  48.4714997  56.7209988 109.3155396  48.0959155  56.4293627
 104.7670012  41.9484997  57.2009988 104.5140012  41.9674997  58.1239988
 104.5110012  41.0764997  56.8999988 104.6977790  41.8332437  57.2866263
 106.0660012  45.3364997  61.3649988 105.6570012  46.1514997  61.0739988
 106.7870012  45.1964997  60.7509988 106.1074537  45.4292018  61.2421342
 101.6500012  42.3934997  56.3019988 101.2190012  41.9484997  57.0319988
 100.9320012  42.7654997  55.7899988 101.4939438  42.3828940  56.3326799
  96.1660012  42.8814997  58.7779988  96.6400012  43.4724997  58.1929988
  95.4490012  43.4124997  59.1249988  96.1339341  43.0340867  58.7448836
 100.2680012  45.1714997  57.6849988  99.7250012  44.7914997  56.9929988
 101.1010012  45.3654997  57.2559988 100.3064399  45.1458124  57.5324526
 103.6030012  49.7364997  59.6199988 102.8580012  49.2294997  59.2979988
 103.4690012  49.7854997  60.5669988 103.4828776  49.6736940  59.7038647
 107.5010012  42.5504997  57.8199988 106.5620012  42.6624997  57.6679988
 107.7980012  43.4074997  58.1259988 107.4127666  42.6816443  57.8405768
 108.2190012  44.4174997  59.4799988 109.1110012  44.2804997  59.7989988
 108.2760012  45.2084997  58.9439988 108.3486285  44.5056660  59.4511691
 105.7290012  51.1954997  58.6459988 105.4330012  52.0214997  59.0269988
 105.0260012  50.5754997  58.8419988 105.5934914  51.2248199  58.7246443
 113.1040012  44.6274997  59.1749988 112.5500012  44.2314997  58.5029988
 113.2040012  45.5374997  58.8969988 113.0417059  44.6963586  59.0454401
 111.3990012  53.4134997  59.6399988 111.0260012  52.5874997  59.9489988
 111.6770012  53.2304997  58.7429988 111.3855630  53.2757303  59.5609626
  96.8580012  47.4114997  57.3809988  97.4740012  48.0384997  57.7609988
  95.9960012  47.7274997  57.6529988  96.8257698  47.5399430  57.4697183
 108.7920012  51.3894997  57.4599988 109.1450012  51.0094997  58.2649988
 107.8430012  51.2964997  57.5469988 108.7120441  51.3249596  57.5818559
 113.2950012  55.8694997  57.6609988 114.0390012  56.4554997  57.5209988
 112.6010012  56.4374997  57.9949988 113.3030292  56.0265582  57.6869961
 102.8830012  52.5014997  55.9069988 103.1220012  51.7534997  55.3599988
 102.6140012  52.1134997  56.7399988 102.8793675  52.3466638  55.9446865
 101.8200012  52.0714997  58.3639988 101.9660012  51.5514997  59.1539988
 101.8170012  52.9784997  58.6699988 101.8395989  52.1228853  58.5136088
  98.2730012  49.3244997  58.8739988  97.5870012  49.6764997  59.4409988
  98.7950012  50.0874997  58.6269988  98.2496852  49.4758578  58.9182118
 106.8890012  41.6384997  60.2499988 107.1090012  42.1104997  59.4469988
 107.4470012  42.0334997  60.9199988 106.9944968  41.7564285  60.2307331
 104.5570012  53.7694997  59.1129988 103.7410012  54.2664997  59.1649988
 105.0870012  54.2444997  58.4729988 104.5169161  53.9017722  59.0335956
 101.8960012  54.8134997  59.0949988 102.0560012  55.6124997  58.5939988
 101.6980012  55.1194997  59.9799988 101.8911649  54.9644469  59.1459815
  98.8890012  51.9384997  57.7709988  99.4810012  52.6374997  58.0469988
  99.3480012  51.5054997  57.0509988  99.0321142  51.9757049  57.7114830
  97.2050012  44.6024997  56.8869988  97.1600012  45.5414997  57.0649988
  96.3170012  44.3664997  56.6169988  97.0788574  44.6991892  56.8748912
 104.9210012  54.3644997  56.0459988 104.2770012  53.7334997  56.3669988
 105.6830012  53.8334997  55.8139988 104.9358077  54.2062920  56.0586011
 109.5250012  54.1814997  56.2799988 109.8080012  53.3874997  56.7319988
 110.2650012  54.4144997  55.7189988 109.6637486  54.1042803  56.2660698
 100.4800012  50.0914997  56.1369988 100.5440012  49.2974997  56.6679988
 101.1330012  49.9724997  55.4469988 100.5770241  49.9667148  56.1164317
 105.8320012  51.1384997  55.8729988 105.5630012  51.3184997  56.7739988
 105.6260012  50.2124997  55.7419988 105.7673825  51.0380152  55.9785214
 101.6290012  48.0634997  58.4429988 101.1690012  47.5794997  59.1289988
 101.8840012  47.3954997  57.8069988 101.6004902  47.9068731  58.4509334
 102.7000012  46.3064997  56.7049988 102.5200012  46.1524997  55.7779988
 103.6500012  46.4144997  56.7499988 102.8037776  46.3000175  56.5841843
 112.0900012  48.6614997  56.1509988 111.8160012  48.2364997  55.3379988
 112.1290012  49.5924997  55.9339988 112.0577699  48.7292484  56.0103610
 102.5970012  56.9974997  57.7069988 103.5300012  57.1554997  57.8499988
 102.3330012  57.6724997  57.0819988 102.6889510  57.1103611  57.6420741
  96.1660012  51.6334997  57.1889988  97.0800012  51.7124997  57.4629988
  96.1730012  50.9464997  56.5229988  96.2921131  51.5513961  57.1364393
 113.2110012  47.4844997  58.3409988 112.6890012  47.8414997  57.6219988
 113.1780012  48.1594997  59.0189988 113.1351634  47.6245413  58.3343145
 111.5600012  44.7244997  56.8919988 111.6560012  45.3914997  56.2109988
 111.4200012  43.9084997  56.4099988 111.5542135  44.7054500  56.7338491
 110.8070012  42.1324997  56.0089988 111.4180012  41.7614997  56.6459988
 109.9710012  41.7114997  56.2049988 110.7775032  42.0247554  56.1227035
 112.9200012  41.0174997  57.5509988 113.3320012  40.2964997  57.0759988
 113.6020012  41.6874997  57.6099988 113.0685885  41.0092368  57.4938915
  95.2010012  41.0224997  60.6779988  94.2760012  41.2314997  60.5489988
  95.6550012  41.5064997  59.9889988  95.1357368  41.1165993  60.5671226
  96.4770012  39.0654997  58.6569988  96.9160012  39.6764997  58.0649988
  95.8440012  39.6034997  59.1309988  96.4514514  39.2219257  58.6400930
  96.3780012  55.0134997  59.5549988  95.6930012  54.9754997  58.8869988
  96.3820012  55.9264997  59.8429988  96.2848193  55.1317016  59.5025284
  98.3380012  40.9814997  57.0989988  98.8300012  40.3514997  56.5719988
  98.9620012  41.2774997  57.7629988  98.4895446  40.9353199  57.1165980
 105.2430012  56.2234997  57.9519988 106.1090012  56.5894997  57.7739988
 104.9960012  55.7834997  57.1379988 105.3282392  56.2141756  57.8176289
  98.1960012  55.9334997  56.5799988  97.9290012  56.2204997  57.4529988
  98.9680012  55.3874997  56.7319988  98.2637488  55.8990294  56.7201050
 115.1010012  50.8354997  60.1679988 114.8290012  51.0644997  59.2789988
 115.1470012  51.6734997  60.6279988 115.0700094  50.9801213  60.1085697
 128.1380012  52.1394997  62.0139988 127.8800012  51.4494997  61.4029988
 128.2090012  51.6964997  62.8599988 128.1122856  51.9852124  62.0446885
 124.3500012  46.1254997  57.3029988 125.0510012  46.1474997  57.9539988
 124.6530012  45.4974997  56.6469988 124.4867830  46.0436566  57.3033711
 126.5730012  47.0394997  58.9009988 127.1530012  47.1894997  59.6479988
 126.9870012  47.5104997  58.1779988 126.7082830  47.1236841  58.9054134
 130.2720012  38.7894997  58.7139988 129.3720012  38.9284997  59.0089988
 130.5240012  39.6204997  58.3119988 130.1828702  38.9209074  58.7000205
 118.3380012  47.5774997  60.6879988 118.0460012  48.3454997  60.1969988
 117.6640012  46.9174997  60.5249988 118.2069081  47.5934406  60.5987340
 131.4610012  53.1554997  57.0899988 131.5350012  54.0944997  57.2609988
 132.3670012  52.8504997  57.0339988 131.5935100  53.2426722  57.1058119
 126.8740012  55.8864997  57.7529988 127.2490012  55.1424997  57.2829988
 126.8780012  55.6164997  58.6719988 126.9258915  55.7481486  57.8127824
 126.5430012  55.8124997  60.5029988 125.6070012  55.9124997  60.6809988
 126.8230012  55.1034997  61.0809988 126.4528255  55.7302711  60.6055391
 128.0510012  48.0724997  56.5309988 128.0930012  47.8494997  55.6009988
 128.9000012  48.4714997  56.7209988 128.1715396  48.0959155  56.4293627
 123.6230012  41.9484997  57.2009988 123.3700012  41.9674997  58.1239988
 123.3670012  41.0764997  56.8999988 123.5537790  41.8332437  57.2866263
 124.9220012  45.3364997  61.3649988 124.5130012  46.1514997  61.0739988
 125.6430012  45.1964997  60.7509988 124.9634537  45.4292018  61.2421342
 120.5060012  42.3934997  56.3019988 120.0750012  41.9484997  57.0319988
 119.7880012  42.7654997  55.7899988 120.3499438  42.3828940  56.3326799
 115.0220012  42.8814997  58.7779988 115.4960012  43.4724997  58.1929988
 114.3050012  43.4124997  59.1249988 114.9899341  43.0340867  58.7448836
 120.4500012  43.9764997  60.1179988 121.3810012  44.1054997  60.2959988
 120.2350012  44.6464997  59.4679988 120.5484247  44.0846565  60.0545747
 119.1240012  45.1714997  57.6849988 118.5810012  44.7914997  56.9929988
 119.9570012  45.3654997  57.2559988 119.1624399  45.1458124  57.5324526
 122.4590012  49.7364997  59.6199988 121.7140012  49.2294997  59.2979988
 122.3250012  49.7854997  60.5669988 122.3388776  49.6736940  59.7038647
 126.3570012  42.5504997  57.8199988 125.4180012  42.6624997  57.6679988
 126.6540012  43.4074997  58.1259988 126.2687666  42.6816443  57.8405768
 127.0750012  44.4174997  59.4799988 127.9670012  44.2804997  59.7989988
 127.1320012  45.2084997  58.9439988 127.2046285  44.5056660  59.4511691
 124.5850012  51.1954997  58.6459988 124.2890012  52.0214997  59.0269988
 123.8820012  50.5754997  58.8419988 124.4494914  51.2248199  58.7246443
 131.9600012  44.6274997  59.1749988 131.4060012  44.2314997  58.5029988
 132.0600012  45.5374997  58.8969988 131.8977059  44.6963586  59.0454401
 130.2550012  53.4134997  59.6399988 129.8820012  52.5874997  59.9489988
 130.5330012  53.2304997  58.7429988 130.2415630  53.2757303  59.5609626
 115.7140012  47.4114997  57.3809988 116.3300012  48.0384997  57.7609988
 114.8520012  47.7274997  57.6529988 115.6817698  47.5399430  57.4697183
 127.6480012  51.3894997  57.4599988 128.0010012  51.0094997  58.2649988
 126.6990012  51.2964997  57.5469988 127.5680441  51.3249596  57.5818559
 132.1510012  55.8694997  57.6609988 132.8950012  56.4554997  57.5209988
 131.4570012  56.4374997  57.9949988 132.1590292  56.0265582  57.6869961
 128.5140012  50.0624997  59.6869988 128.2360012  49.3344997  60.2429988
 129.4410012  50.1814997  59.8919988 128.6013124  49.9788802  59.7908845
 121.7390012  52.5014997  55.9069988 121.9780012  51.7534997  55.3599988
 121.4700012  52.1134997  56.7399988 121.7353675  52.3466638  55.9446865
 120.6760012  52.0714997  58.3639988 120.8220012  51.5514997  59.1539988
 120.6730012  52.9784997  58.6699988 120.6955989  52.1228853  58.5136088
 117.1290012  49.3244997  58.8739988 116.4430012  49.6764997  59.4409988
 117.6510012  50.0874997  58.6269988 117.1056852  49.4758578  58.9182118
 123.4130012  53.7694997  59.1129988 122.5970012  54.2664997  59.1649988
 123.9430012  54.2444997  58.4729988 123.3729161  53.9017722  59.0335956
 120.7520012  54.8134997  59.0949988 120.9120012  55.6124997  58.5939988
 120.5540012  55.1194997  59.9799988 120.7471649  54.9644469  59.1459815
 119.4860012  41.5104997  58.7099988 119.4030012  42.3994997  59.0569988
 120.3760012  41.2454997  58.9419988 119.5949469  41.5961430  58.7887626
 117.7450012  51.9384997  57.7709988 118.3370012  52.6374997  58.0469988
 118.2040012  51.5054997  57.0509988 117.8881142  51.9757049  57.7114830
 116.0610012  44.6024997  56.8869988 116.0160012  45.5414997  57.0649988
 115.1730012  44.3664997  56.6169988 115.9348574  44.6991892  56.8748912
 123.7770012  54.3644997  56.0459988 123.1330012  53.7334997  56.3669988
 124.5390012  53.8334997  55.8139988 123.7918077  54.2062920  56.0586011
 128.3810012  54.1814997  56.2799988 128.6640012  53.3874997  56.7319988
 129.1210012  54.4144997  55.7189988 128.5197486  54.1042803  56.2660698
 119.3360012  50.0914997  56.1369988 119.4000012  49.2974997  56.6679988
 119.9890012  49.9724997  55.4469988 119.4330241  49.9667148  56.1164317
 124.6880012  51.1384997  55.8729988 124.4190012  51.3184997  56.7739988
 124.4820012  50.2124997  55.7419988 124.6233825  51.0380152  55.9785214
 120.4850012  48.0634997  58.4429988 120.0250012  47.5794997  59.1289988
 120.7400012  47.3954997  57.8069988 120.4564902  47.9068731  58.4509334
 121.5560012  46.3064997  56.7049988 121.3760012  46.1524997  55.7779988
 122.5060012  46.4144997  56.7499988 121.6597776  46.3000175  56.5841843
 130.9460012  48.6614997  56.1509988 130.6720012  48.2364997  55.3379988
 130.9850012  49.5924997  55.9339988 130.9137699  48.7292484  56.0103610
 121.4530012  56.9974997  57.7069988 122.3860012  57.1554997  57.8499988
 121.1890012  57.6724997  57.0819988 121.5449510  57.1103611  57.6420741
 115.0220012  51.6334997  57.1889988 115.9360012  51.7124997  57.4629988
 115.0290012  50.9464997  56.5229988 115.1481131  51.5513961  57.1364393
 131.4040012  49.5304997  60.1259988 132.2540012  49.9514997  60.2529988
 131.4100012  48.7904997  60.7329988 131.5211372  49.4880803  60.2254344
 132.0670012  47.4844997  58.3409988 131.5450012  47.8414997  57.6219988
 132.0340012  48.1594997  59.0189988 131.9911634  47.6245413  58.3343145
 130.4160012  44.7244997  56.8919988 130.5120012  45.3914997  56.2109988
 130.2760012  43.9084997  56.4099988 130.4102135  44.7054500  56.7338491
 129.6630012  42.1324997  56.0089988 130.2740012  41.7614997  56.6459988
 128.8270012  41.7114997  56.2049988 129.6335032  42.0247554  56.1227035
 129.9090012  40.9504997  61.0229988 130.0920012  40.5014997  61.8489988
 129.3100012  40.3654997  60.5599988 129.8530202  40.8099975  61.0733275
 131.7760012  41.0174997  57.5509988 132.1880012  40.2964997  57.0759988
 132.4580012  41.6874997  57.6099988 131.9245885  41.0092368  57.4938915
 115.3330012  39.0654997  58.6569988 115.7720012  39.6764997  58.0649988
 114.7000012  39.6034997  59.1309988 115.3074514  39.2219257  58.6400930
 127.9860012  39.2504997  60.0079988 127.2840012  39.8654997  59.7989988
 127.5420012  38.4124997  60.1389988 127.8296330  39.2215783  59.9970328
 117.1940012  40.9814997  57.0989988 117.6860012  40.3514997  56.5719988
 117.8180012  41.2774997  57.7629988 117.3455446  40.9353199  57.1165980
 124.0990012  56.2234997  57.9519988 124.9650012  56.5894997  57.7739988
 123.8520012  55.7834997  57.1379988 124.1842392  56.2141756  57.8176289
 117.0520012  55.9334997  56.5799988 116.7850012  56.2204997  57.4529988
 117.8240012  55.3874997  56.7319988 117.1197488  55.8990294  56.7201050
 144.2290012  51.0244997  61.8549988 143.9330012  50.7024997  61.0039988
 143.9040012  51.9244997  61.8959988 144.1446371  51.1020215  61.7441801
 143.1530012  47.6674997  60.2639988 142.4410012  48.2024997  59.9119988
 143.8440012  47.7234997  59.6039988 143.1490132  47.7482543  60.1266289
 143.2060012  46.1254997  57.3029988 143.9070012  46.1474997  57.9539988
 143.5090012  45.4974997  56.6469988 143.3427830  46.0436566  57.3033711
 143.1560012  53.7764997  62.3359988 143.6300012  54.0714997  63.1139988
 142.5930012  54.5144997  62.1029988 143.1447653  53.9166932  62.4110136
 137.1940012  47.5774997  60.6879988 136.9020012  48.3454997  60.1969988
 136.5200012  46.9174997  60.5249988 137.0629081  47.5934406  60.5987340
 142.6280012  56.7324997  60.7509988 142.5530012  56.6114997  59.8049988
 142.6610012  57.6824997  60.8699988 142.6221848  56.8442500  60.6374834
 142.4790012  41.9484997  57.2009988 142.2260012  41.9674997  58.1239988
 142.2230012  41.0764997  56.8999988 142.4097790  41.8332437  57.2866263
 143.7780012  45.3364997  61.3649988 143.3690012  46.1514997  61.0739988
 144.4990012  45.1964997  60.7509988 143.8194537  45.4292018  61.2421342
 139.3620012  42.3934997  56.3019988 138.9310012  41.9484997  57.0319988
 138.6440012  42.7654997  55.7899988 139.2059438  42.3828940  56.3326799
 133.8780012  42.8814997  58.7779988 134.3520012  43.4724997  58.1929988
 133.1610012  43.4124997  59.1249988 133.8459341  43.0340867  58.7448836
 137.9800012  45.1714997  57.6849988 137.4370012  44.7914997  56.9929988
 138.8130012  45.3654997  57.2559988 138.0184399  45.1458124  57.5324526
 141.3150012  49.7364997  59.6199988 140.5700012  49.2294997  59.2979988
 141.1810012  49.7854997  60.5669988 141.1948776  49.6736940  59.7038647
 143.4410012  51.1954997  58.6459988 143.1450012  52.0214997  59.0269988
 142.7380012  50.5754997  58.8419988 143.3054914  51.2248199  58.7246443
 134.5700012  47.4114997  57.3809988 135.1860012  48.0384997  57.7609988
 133.7080012  47.7274997  57.6529988 134.5377698  47.5399430  57.4697183
 140.5950012  52.5014997  55.9069988 140.8340012  51.7534997  55.3599988
 140.3260012  52.1134997  56.7399988 140.5913675  52.3466638  55.9446865
 139.5320012  52.0714997  58.3639988 139.6780012  51.5514997  59.1539988
 139.5290012  52.9784997  58.6699988 139.5515989  52.1228853  58.5136088
 135.9850012  49.3244997  58.8739988 135.2990012  49.6764997  59.4409988
 136.5070012  50.0874997  58.6269988 135.9616852  49.4758578  58.9182118
 144.6010012  41.6384997  60.2499988 144.8210012  42.1104997  59.4469988
 145.1590012  42.0334997  60.9199988 144.7064968  41.7564285  60.2307331
 142.2690012  53.7694997  59.1129988 141.4530012  54.2664997  59.1649988
 142.7990012  54.2444997  58.4729988 142.2289161  53.9017722  59.0335956
 142.6840012  40.4474997  62.0229988 142.3380012  41.0654997  62.6679988
 143.3430012  40.9484997  61.5419988 142.7257826  40.5995802  62.0460971
 139.6080012  54.8134997  59.0949988 139.7680012  55.6124997  58.5939988
 139.4100012  55.1194997  59.9799988 139.6031649  54.9644469  59.1459815
 136.6010012  51.9384997  57.7709988 137.1930012  52.6374997  58.0469988
 137.0600012  51.5054997  57.0509988 136.7441142  51.9757049  57.7114830
 134.9170012  44.6024997  56.8869988 134.8720012  45.5414997  57.0649988
 134.0290012  44.3664997  56.6169988 134.7908574  44.6991892  56.8748912
 142.6330012  54.3644997  56.0459988 141.9890012  53.7334997  56.3669988
 143.3950012  53.8334997  55.8139988 142.6478077  54.2062920  56.0586011
 138.1920012  50.0914997  56.1369988 138.2560012  49.2974997  56.6679988
 138.8450012  49.9724997  55.4469988 138.2890241  49.9667148  56.1164317
 143.5440012  51.1384997  55.8729988 143.2750012  51.3184997  56.7739988
 143.3380012  50.2124997  55.7419988 143.4793825  51.0380152  55.9785214
 139.3410012  48.0634997  58.4429988 138.8810012  47.5794997  59.1289988
 139.5960012  47.3954997  57.8069988 139.3124902  47.9068731  58.4509334
 140.4120012  46.3064997  56.7049988 140.2320012  46.1524997  55.7779988
 141.3620012  46.4144997  56.7499988 140.5157776  46.3000175  56.5841843
 140.3090012  56.9974997  57.7069988 141.2420012  57.1554997  57.8499988
 140.0450012  57.6724997  57.0819988 140.4009510  57.1103611  57.6420741
 133.8780012  51.6334997  57.1889988 134.7920012  51.7124997  57.4629988
 133.8850012  50.9464997  56.5229988 134.0041131  51.5513961  57.1364393
 132.9130012  41.0224997  60.6779988 131.9880012  41.2314997  60.5489988
 133.3670012  41.5064997  59.9889988 132.8477368  41.1165993  60.5671226
 134.1890012  39.0654997  58.6569988 134.6280012  39.6764997  58.0649988
 133.5560012  39.6034997  59.1309988 134.1634514  39.2219257  58.6400930
 136.0500012  40.9814997  57.0989988 136.5420012  40.3514997  56.5719988
 136.6740012  41.2774997  57.7629988 136.2015446  40.9353199  57.1165980
 141.0760012  41.2744997  59.5559988 141.2540012  40.6284997  60.2389988
 141.0230012  42.1084997  60.0239988 141.0931829  41.2987985  59.7125940
 142.9550012  56.2234997  57.9519988 143.8210012  56.5894997  57.7739988
 142.7080012  55.7834997  57.1379988 143.0402392  56.2141756  57.8176289
 135.9080012  55.9334997  56.5799988 135.6410012  56.2204997  57.4529988
 136.6800012  55.3874997  56.7319988 135.9757488  55.8990294  56.7201050
   1.2740012  64.2594997  61.7519988   0.8270012  65.1054997  61.7329988
   0.7130012  63.6794997  61.2359988   1.1369900  64.2969916  61.6796801
  12.2370012  69.8804997  61.8549988  11.9410012  69.5584997  61.0039988
  11.9120012  70.7804997  61.8959988  12.1526371  69.9580215  61.7441801
   1.9650012  69.6914997  60.1679988   1.6930012  69.9204997  59.2789988
   2.0110012  70.5294997  60.6279988   1.9340094  69.8361213  60.1085697
  11.1610012  66.5234997  60.2639988  10.4490012  67.0584997  59.9119988
  11.8520012  66.5794997  59.6039988  11.1570132  66.6042543  60.1266289
  11.2140012  64.9814997  57.3029988  11.9150012  65.0034997  57.9539988
  11.5170012  64.3534997  56.6469988  11.3507830  64.8996566  57.3033711
  13.4370012  65.8954997  58.9009988  14.0170012  66.0454997  59.6479988
  13.8510012  66.3664997  58.1779988  13.5722830  65.9796841  58.9054134
  17.1360012  57.6454997  58.7139988  16.2360012  57.7844997  59.0089988
  17.3880012  58.4764997  58.3119988  17.0468702  57.7769074  58.7000205
   5.2020012  66.4334997  60.6879988   4.9100012  67.2014997  60.1969988
   4.5280012  65.7734997  60.5249988   5.0709081  66.4494406  60.5987340
  18.3250012  72.0114997  57.0899988  18.3990012  72.9504997  57.2609988
  19.2310012  71.7064997  57.0339988  18.4575100  72.0986722  57.1058119
  13.7380012  74.7424997  57.7529988  14.1130012  73.9984997  57.2829988
  13.7420012  74.4724997  58.6719988  13.7898915  74.6041486  57.8127824
  14.9150012  66.9284997  56.5309988  14.9570012  66.7054997  55.6009988
  15.7640012  67.3274997  56.7209988  15.0355396  66.9519155  56.4293627
  10.4870012  60.8044997  57.2009988  10.2340012  60.8234997  58.1239988
  10.2310012  59.9324997  56.8999988  10.4177790  60.6892437  57.2866263
   7.3700012  61.2494997  56.3019988   6.9390012  60.8044997  57.0319988
   6.6520012  61.6214997  55.7899988   7.2139438  61.2388940  56.3326799
   1.8860012  61.7374997  58.7779988   2.3600012  62.3284997  58.1929988
   1.1690012  62.2684997  59.1249988   1.8539341  61.8900867  58.7448836
   5.9880012  64.0274997  57.6849988   5.4450012  63.6474997  56.9929988
   6.8210012  64.2214997  57.2559988   6.0264399  64.0018124  57.5324526
   9.3230012  68.5924997  59.6199988   8.5780012  68.0854997  59.2979988
   9.1890012  68.6414997  60.5669988   9.2028776  68.5296940  59.7038647
  13.2210012  61.4064997  57.8199988  12.2820012  61.5184997  57.6679988
  13.5180012  62.2634997  58.1259988  13.1327666  61.5376443  57.8405768
  13.9390012  63.2734997  59.4799988  14.8310012  63.1364997  59.7989988
  13.9960012  64.0644997  58.9439988  14.0686285  63.3616660  59.4511691
  11.4490012  70.0514997  58.6459988  11.1530012  70.8774997  59.0269988
  10.7460012  69.4314997  58.8419988  11.3134914  70.0808199  58.7246443
  18.8240012  63.4834997  59.1749988  18.2700012  63.0874997  58.5029988
  18.9240012  64.3934997  58.8969988  18.7617059  63.5523586  59.0454401
  17.1190012  72.2694997  59.6399988  16.7460012  71.4434997  59.9489988
  17.3970012  72.0864997  58.7429988  17.1055630  72.1317303  59.5609626
   2.5780012  66.2674997  57.3809988   3.1940012  66.8944997  57.7609988
   1.7160012  66.5834997  57.6529988   2.5457698  66.3959430  57.4697183
  14.5120012  70.2454997  57.4599988  14.8650012  69.8654997  58.2649988
  13.5630012  70.1524997  57.5469988  14.4320441  70.1809596  57.5818559
  19.0150012  74.7254997  57.6609988  19.7590012  75.3114997  57.5209988
  18.3210012  75.2934997  57.9949988  19.0230292  74.8825582  57.6869961
  15.3780012  68.9184997  59.6869988  15.1000012  68.1904997  60.2429988
  16.3050012  69.0374997  59.8919988  15.4653124  68.8348802  59.7908845
   8.6030012  71.3574997  55.9069988   8.8420012  70.6094997  55.3599988
   8.3340012  70.9694997  56.7399988   8.5993675  71.2026638  55.9446865
   7.5400012  70.9274997  58.3639988   7.6860012  70.4074997  59.1539988
   7.5370012  71.8344997  58.6699988   7.5595989  70.9788853  58.5136088
   3.9930012  68.1804997  58.8739988   3.3070012  68.5324997  59.4409988
   4.5150012  68.9434997  58.6269988   3.9696852  68.3318578  58.9182118
  12.6090012  60.4944997  60.2499988  12.8290012  60.9664997  59.4469988
  13.1670012  60.8894997  60.9199988  12.7144968  60.6124285  60.2307331
  10.6920012  59.3034997  62.0229988  10.3460012  59.9214997  62.6679988
  11.3510012  59.8044997  61.5419988  10.7337826  59.4555802  62.0460971
   6.3500012  60.3664997  58.7099988   6.2670012  61.2554997  59.0569988
   7.2400012  60.1014997  58.9419988   6.4589469  60.4521430  58.7887626
   4.6090012  70.7944997  57.7709988   5.2010012  71.4934997  58.0469988
   5.0680012  70.3614997  57.0509988   4.7521142  70.8317049  57.7114830
   2.9250012  63.4584997  56.8869988   2.8800012  64.3974997  57.0649988
   2.0370012  63.2224997  56.6169988   2.7988574  63.5551892  56.8748912
   2.6630012  72.1804997  61.7199988   1.8310012  72.6534997  61.7479988
   3.2090012  72.6904997  61.1219988   2.6229739  72.3141871  61.6429716
  10.6410012  73.2204997  56.0459988   9.9970012  72.5894997  56.3669988
  11.4030012  72.6894997  55.8139988  10.6558077  73.0622920  56.0586011
  15.2450012  73.0374997  56.2799988  15.5280012  72.2434997  56.7319988
  15.9850012  73.2704997  55.7189988  15.3837486  72.9602803  56.2660698
   6.2000012  68.9474997  56.1369988   6.2640012  68.1534997  56.6679988
   6.8530012  68.8284997  55.4469988   6.2970241  68.8227148  56.1164317
  11.5520012  69.9944997  55.8729988  11.2830012  70.1744997  56.7739988
  11.3460012  69.0684997  55.7419988  11.4873825  69.8940152  55.9785214
   7.3490012  66.9194997  58.4429988   6.8890012  66.4354997  59.1289988
   7.6040012  66.2514997  57.8069988   7.3204902  66.7628731  58.4509334
   8.4200012  65.1624997  56.7049988   8.2400012  65.0084997  55.7779988
   9.3700012  65.2704997  56.7499988   8.5237776  65.1560175  56.5841843
  17.8100012  67.5174997  56.1509988  17.5360012  67.0924997  55.3379988
  17.8490012  68.4484997  55.9339988  17.7777699  67.5852484  56.0103610
   8.3170012  75.8534997  57.7069988   9.2500012  76.0114997  57.8499988
   8.0530012  76.5284997  57.0819988   8.4089510  75.9663611  57.6420741
   1.8860012  70.4894997  57.1889988   2.8000012  70.5684997  57.4629988
   1.8930012  69.8024997  56.5229988   2.0121131  70.4073961  57.1364393
   0.5350012  75.8824997  62.2669988  -0.1119988  75.4204997  61.7339988
   0.8890012  75.2104997  62.8489988   0.4943849  75.7284723  62.2727959
  18.9310012  66.3404997  58.3409988  18.4090012  66.6974997  57.6219988
  18.8980012  67.0154997  59.0189988  18.8551634  66.4805413  58.3343145
  17.2800012  63.5804997  56.8919988  17.3760012  64.2474997  56.2109988
  17.1400012  62.7644997  56.4099988  17.2742135  63.5614500  56.7338491
  16.5270012  60.9884997  56.0089988  17.1380012  60.6174997  56.6459988
  15.6910012  60.5674997  56.2049988  16.4975032  60.8807554  56.1227035
  18.6400012  59.8734997  57.5509988  19.0520012  59.1524997  57.0759988
  19.3220012  60.5434997  57.6099988  18.7885885  59.8652368  57.4938915
   2.0980012  73.8694997  59.5549988   1.4130012  73.8314997  58.8869988
   2.1020012  74.7824997  59.8429988   2.0048193  73.9877016  59.5025284
   4.0580012  59.8374997  57.0989988   4.5500012  59.2074997  56.5719988
   4.6820012  60.1334997  57.7629988   4.2095446  59.7913199  57.1165980
   9.0840012  60.1304997  59.5559988   9.2620012  59.4844997  60.2389988
   9.0310012  60.9644997  60.0239988   9.1011829  60.1547985  59.7125940
  10.9630012  75.0794997  57.9519988  11.8290012  75.4454997  57.7739988
  10.7160012  74.6394997  57.1379988  11.0482392  75.0701756  57.8176289
   3.9160012  74.7894997  56.5799988   3.6490012  75.0764997  57.4529988
   4.6880012  74.2434997  56.7319988   3.9837488  74.7550294  56.7201050
  20.8210012  69.6914997  60.1679988  20.5490012  69.9204997  59.2789988
  20.8670012  70.5294997  60.6279988  20.7900094  69.8361213  60.1085697
  30.0170012  66.5234997  60.2639988  29.3050012  67.0584997  59.9119988
  30.7080012  66.5794997  59.6039988  30.0130132  66.6042543  60.1266289
  30.0700012  64.9814997  57.3029988  30.7710012  65.0034997  57.9539988
  30.3730012  64.3534997  56.6469988  30.2067830  64.8996566  57.3033711
  33.4220012  66.7334997  61.2159988  32.6900012  66.9614997  61.7889988
  33.8700012  66.0194997  61.6709988  33.3823095  66.6682571  61.3559119
  32.2930012  65.8954997  58.9009988  32.8730012  66.0454997  59.6479988
  32.7070012  66.3664997  58.1779988  32.4282830  65.9796841  58.9054134
  35.9920012  57.6454997  58.7139988  35.0920012  57.7844997  59.0089988
  36.2440012  58.4764997  58.3119988  35.9028702  57.7769074  58.7000205
  37.1810012  72.0114997  57.0899988  37.2550012  72.9504997  57.2609988
  38.0870012  71.7064997  57.0339988  37.3135100  72.0986722  57.1058119
  32.5940012  74.7424997  57.7529988  32.9690012  73.9984997  57.2829988
  32.5980012  74.4724997  58.6719988  32.6458915  74.6041486  57.8127824
  32.2630012  74.6684997  60.5029988  31.3270012  74.7684997  60.6809988
  32.5430012  73.9594997  61.0809988  32.1728255  74.5862711  60.6055391
  33.7710012  66.9284997  56.5309988  33.8130012  66.7054997  55.6009988
  34.6200012  67.3274997  56.7209988  33.8915396  66.9519155  56.4293627
  29.3430012  60.8044997  57.2009988  29.0900012  60.8234997  58.1239988
  29.0870012  59.9324997  56.8999988  29.2737790  60.6892437  57.2866263
  30.6420012  64.1924997  61.3649988  30.2330012  65.0074997  61.0739988
  31.3630012  64.0524997  60.7509988  30.6834537  64.2852018  61.2421342
  26.2260012  61.2494997  56.3019988  25.7950012  60.8044997  57.0319988
  25.5080012  61.6214997  55.7899988  26.0699438  61.2388940  56.3326799
  20.7420012  61.7374997  58.7779988  21.2160012  62.3284997  58.1929988
  20.0250012  62.2684997  59.1249988  20.7099341  61.8900867  58.7448836
  24.8440012  64.0274997  57.6849988  24.3010012  63.6474997  56.9929988
  25.6770012  64.2214997  57.2559988  24.8824399  64.0018124  57.5324526
  28.1790012  68.5924997  59.6199988  27.4340012  68.0854997  59.2979988
  28.0450012  68.6414997  60.5669988  28.0588776  68.5296940  59.7038647
  32.0770012  61.4064997  57.8199988  31.1380012  61.5184997  57.6679988
  32.3740012  62.2634997  58.1259988  31.9887666  61.5376443  57.8405768
  32.7950012  63.2734997  59.4799988  33.6870012  63.1364997  59.7989988
  32.8520012  64.0644997  58.9439988  32.9246285  63.3616660  59.4511691
  30.3050012  70.0514997  58.6459988  30.0090012  70.8774997  59.0269988
  29.6020012  69.4314997  58.8419988  30.1694914  70.0808199  58.7246443
  37.6800012  63.4834997  59.1749988  37.1260012  63.0874997  58.5029988
  37.7800012  64.3934997  58.8969988  37.6177059  63.5523586  59.0454401
  35.9750012  72.2694997  59.6399988  35.6020012  71.4434997  59.9489988
  36.2530012  72.0864997  58.7429988  35.9615630  72.1317303  59.5609626
  21.4340012  66.2674997  57.3809988  22.0500012  66.8944997  57.7609988
  20.5720012  66.5834997  57.6529988  21.4017698  66.3959430  57.4697183
  33.3680012  70.2454997  57.4599988  33.7210012  69.8654997  58.2649988
  32.4190012  70.1524997  57.5469988  33.2880441  70.1809596  57.5818559
  37.8710012  74.7254997  57.6609988  38.6150012  75.3114997  57.5209988
  37.1770012  75.2934997  57.9949988  37.8790292  74.8825582  57.6869961
  27.4590012  71.3574997  55.9069988  27.6980012  70.6094997  55.3599988
  27.1900012  70.9694997  56.7399988  27.4553675  71.2026638  55.9446865
  26.3960012  70.9274997  58.3639988  26.5420012  70.4074997  59.1539988
  26.3930012  71.8344997  58.6699988  26.4155989  70.9788853  58.5136088
  22.8490012  68.1804997  58.8739988  22.1630012  68.5324997  59.4409988
  23.3710012  68.9434997  58.6269988  22.8256852  68.3318578  58.9182118
  29.1330012  72.6254997  59.1129988  28.3170012  73.1224997  59.1649988
  29.6630012  73.1004997  58.4729988  29.0929161  72.7577722  59.0335956
  26.4720012  73.6694997  59.0949988  26.6320012  74.4684997  58.5939988
  26.2740012  73.9754997  59.9799988  26.4671649  73.8204469  59.1459815
  25.2060012  60.3664997  58.7099988  25.1230012  61.2554997  59.0569988
  26.0960012  60.1014997  58.9419988  25.3149469  60.4521430  58.7887626
  23.4650012  70.7944997  57.7709988  24.0570012  71.4934997  58.0469988
  23.9240012  70.3614997  57.0509988  23.6081142  70.8317049  57.7114830
  21.7810012  63.4584997  56.8869988  21.7360012  64.3974997  57.0649988
  20.8930012  63.2224997  56.6169988  21.6548574  63.5551892  56.8748912
  29.4970012  73.2204997  56.0459988  28.8530012  72.5894997  56.3669988
  30.2590012  72.6894997  55.8139988  29.5118077  73.0622920  56.0586011
  34.1010012  73.0374997  56.2799988  34.3840012  72.2434997  56.7319988
  34.8410012  73.2704997  55.7189988  34.2397486  72.9602803  56.2660698
  25.0560012  68.9474997  56.1369988  25.1200012  68.1534997  56.6679988
  25.7090012  68.8284997  55.4469988  25.1530241  68.8227148  56.1164317
  30.4080012  69.9944997  55.8729988  30.1390012  70.1744997  56.7739988
  30.2020012  69.0684997  55.7419988  30.3433825  69.8940152  55.9785214
  26.2050012  66.9194997  58.4429988  25.7450012  66.4354997  59.1289988
  26.4600012  66.2514997  57.8069988  26.1764902  66.7628731  58.4509334
  27.2760012  65.1624997  56.7049988  27.0960012  65.0084997  55.7779988
  28.2260012  65.2704997  56.7499988  27.3797776  65.1560175  56.5841843
  36.6660012  67.5174997  56.1509988  36.3920012  67.0924997  55.3379988
  36.7050012  68.4484997  55.9339988  36.6337699  67.5852484  56.0103610
  27.1730012  75.8534997  57.7069988  28.1060012  76.0114997  57.8499988
  26.9090012  76.5284997  57.0819988  27.2649510  75.9663611  57.6420741
  20.7420012  70.4894997  57.1889988  21.6560012  70.5684997  57.4629988
  20.7490012  69.8024997  56.5229988  20.8681131  70.4073961  57.1364393
  37.1240012  68.3864997  60.1259988  37.9740012  68.8074997  60.2529988
  37.1300012  67.6464997  60.7329988  37.2411372  68.3440803  60.2254344
  37.7870012  66.3404997  58.3409988  37.2650012  66.6974997  57.6219988
  37.7540012  67.0154997  59.0189988  37.7111634  66.4805413  58.3343145
  36.1360012  63.5804997  56.8919988  36.2320012  64.2474997  56.2109988
  35.9960012  62.7644997  56.4099988  36.1302135  63.5614500  56.7338491
  35.3830012  60.9884997  56.0089988  35.9940012  60.6174997  56.6459988
  34.5470012  60.5674997  56.2049988  35.3535032  60.8807554  56.1227035
  37.4960012  59.8734997  57.5509988  37.9080012  59.1524997  57.0759988
  38.1780012  60.5434997  57.6099988  37.6445885  59.8652368  57.4938915
  21.0530012  57.9214997  58.6569988  21.4920012  58.5324997  58.0649988
  20.4200012  58.4594997  59.1309988  21.0274514  58.0779257  58.6400930
  33.7060012  58.1064997  60.0079988  33.0040012  58.7214997  59.7989988
  33.2620012  57.2684997  60.1389988  33.5496330  58.0775783  59.9970328
  22.9140012  59.8374997  57.0989988  23.4060012  59.2074997  56.5719988
  23.5380012  60.1334997  57.7629988  23.0655446  59.7913199  57.1165980
  27.9400012  60.1304997  59.5559988  28.1180012  59.4844997  60.2389988
  27.8870012  60.9644997  60.0239988  27.9571829  60.1547985  59.7125940
  29.8190012  75.0794997  57.9519988  30.6850012  75.4454997  57.7739988
  29.5720012  74.6394997  57.1379988  29.9042392  75.0701756  57.8176289
  22.7720012  74.7894997  56.5799988  22.5050012  75.0764997  57.4529988
  23.5440012  74.2434997  56.7319988  22.8397488  74.7550294  56.7201050
  39.6770012  69.6914997  60.1679988  39.4050012  69.9204997  59.2789988
  39.7230012  70.5294997  60.6279988  39.6460094  69.8361213  60.1085697
  48.8730012  66.5234997  60.2639988  48.1610012  67.0584997  59.9119988
  49.5640012  66.5794997  59.6039988  48.8690132  66.6042543  60.1266289
  48.9260012  64.9814997  57.3029988  49.6270012  65.0034997  57.9539988
  49.2290012  64.3534997  56.6469988  49.0627830  64.8996566  57.3033711
  52.2780012  66.7334997  61.2159988  51.5460012  66.9614997  61.7889988
  52.7260012  66.0194997  61.6709988  52.2383095  66.6682571  61.3559119
  51.1490012  65.8954997  58.9009988  51.7290012  66.0454997  59.6479988
  51.5630012  66.3664997  58.1779988  51.2842830  65.9796841  58.9054134
  42.9140012  66.4334997  60.6879988  42.6220012  67.2014997  60.1969988
  42.2400012  65.7734997  60.5249988  42.7829081  66.4494406  60.5987340
  52.6270012  66.9284997  56.5309988  52.6690012  66.7054997  55.6009988
  53.4760012  67.3274997  56.7209988  52.7475396  66.9519155  56.4293627
  48.1990012  60.8044997  57.2009988  47.9460012  60.8234997  58.1239988
  47.9430012  59.9324997  56.8999988  48.1297790  60.6892437  57.2866263
  45.0820012  61.2494997  56.3019988  44.6510012  60.8044997  57.0319988
  44.3640012  61.6214997  55.7899988  44.9259438  61.2388940  56.3326799
  39.5980012  61.7374997  58.7779988  40.0720012  62.3284997  58.1929988
  38.8810012  62.2684997  59.1249988  39.5659341  61.8900867  58.7448836
  45.0260012  62.8324997  60.1179988  45.9570012  62.9614997  60.2959988
  44.8110012  63.5024997  59.4679988  45.1244247  62.9406565  60.0545747
  43.7000012  64.0274997  57.6849988  43.1570012  63.6474997  56.9929988
  44.5330012  64.2214997  57.2559988  43.7384399  64.0018124  57.5324526
  42.8660012  60.1274997  61.9399988  42.5490012  59.2254997  61.9049988
  43.6480012  60.1294997  61.3869988  42.9282284  60.0041628  61.8604783
  50.9330012  61.4064997  57.8199988  49.9940012  61.5184997  57.6679988
  51.2300012  62.2634997  58.1259988  50.8447666  61.5376443  57.8405768
  51.6510012  63.2734997  59.4799988  52.5430012  63.1364997  59.7989988
  51.7080012  64.0644997  58.9439988  51.7806285  63.3616660  59.4511691
  56.5360012  63.4834997  59.1749988  55.9820012  63.0874997  58.5029988
  56.6360012  64.3934997  58.8969988  56.4737059  63.5523586  59.0454401
  40.2900012  66.2674997  57.3809988  40.9060012  66.8944997  57.7609988
  39.4280012  66.5834997  57.6529988  40.2577698  66.3959430  57.4697183
  46.3150012  71.3574997  55.9069988  46.5540012  70.6094997  55.3599988
  46.0460012  70.9694997  56.7399988  46.3113675  71.2026638  55.9446865
  41.7050012  68.1804997  58.8739988  41.0190012  68.5324997  59.4409988
  42.2270012  68.9434997  58.6269988  41.6816852  68.3318578  58.9182118
  45.3280012  73.6694997  59.0949988  45.4880012  74.4684997  58.5939988
  45.1300012  73.9754997  59.9799988  45.3231649  73.8204469  59.1459815
  44.0620012  60.3664997  58.7099988  43.9790012  61.2554997  59.0569988
  44.9520012  60.1014997  58.9419988  44.1709469  60.4521430  58.7887626
  42.3210012  70.7944997  57.7709988  42.9130012  71.4934997  58.0469988
  42.7800012  70.3614997  57.0509988  42.4641142  70.8317049  57.7114830
  40.6370012  63.4584997  56.8869988  40.5920012  64.3974997  57.0649988
  39.7490012  63.2224997  56.6169988  40.5108574  63.5551892  56.8748912
  48.3530012  73.2204997  56.0459988  47.7090012  72.5894997  56.3669988
  49.1150012  72.6894997  55.8139988  48.3678077  73.0622920  56.0586011
  43.9120012  68.9474997  56.1369988  43.9760012  68.1534997  56.6679988
  44.5650012  68.8284997  55.4469988  44.0090241  68.8227148  56.1164317
  49.2640012  69.9944997  55.8729988  48.9950012  70.1744997  56.7739988
  49.0580012  69.0684997  55.7419988  49.1993825  69.8940152  55.9785214
  45.0610012  66.9194997  58.4429988  44.6010012  66.4354997  59.1289988
  45.3160012  66.2514997  57.8069988  45.0324902  66.7628731  58.4509334
  46.1320012  65.1624997  56.7049988  45.9520012  65.0084997  55.7779988
  47.0820012  65.2704997  56.7499988  46.2357776  65.1560175  56.5841843
  46.0290012  75.8534997  57.7069988  46.9620012  76.0114997  57.8499988
  45.7650012  76.5284997  57.0819988  46.1209510  75.9663611  57.6420741
  39.5980012  70.4894997  57.1889988  40.5120012  70.5684997  57.4629988
  39.6050012  69.8024997  56.5229988  39.7241131  70.4073961  57.1364393
  56.6430012  66.3404997  58.3409988  56.1210012  66.6974997  57.6219988
  56.6100012  67.0154997  59.0189988  56.5671634  66.4805413  58.3343145
  54.9920012  63.5804997  56.8919988  55.0880012  64.2474997  56.2109988
  54.8520012  62.7644997  56.4099988  54.9862135  63.5614500  56.7338491
  54.2390012  60.9884997  56.0089988  54.8500012  60.6174997  56.6459988
  53.4030012  60.5674997  56.2049988  54.2095032  60.8807554  56.1227035
  53.8720012  62.5434997  60.9749988  54.1520012  61.6364997  61.0989988
  54.6310012  62.9774997  60.5859988  54.0129277  62.4780942  60.9393682
  56.3520012  59.8734997  57.5509988  56.7640012  59.1524997  57.0759988
  57.0340012  60.5434997  57.6099988  56.5005885  59.8652368  57.4938915
  38.6330012  59.8784997  60.6779988  37.7080012  60.0874997  60.5489988
  39.0870012  60.3624997  59.9889988  38.5677368  59.9725993  60.5671226
  39.9090012  57.9214997  58.6569988  40.3480012  58.5324997  58.0649988
  39.2760012  58.4594997  59.1309988  39.8834514  58.0779257  58.6400930
  52.5620012  58.1064997  60.0079988  51.8600012  58.7214997  59.7989988
  52.1180012  57.2684997  60.1389988  52.4056330  58.0775783  59.9970328
  39.8100012  73.8694997  59.5549988  39.1250012  73.8314997  58.8869988
  39.8140012  74.7824997  59.8429988  39.7168193  73.9877016  59.5025284
  41.7700012  59.8374997  57.0989988  42.2620012  59.2074997  56.5719988
  42.3940012  60.1334997  57.7629988  41.9215446  59.7913199  57.1165980
  48.6750012  75.0794997  57.9519988  49.5410012  75.4454997  57.7739988
  48.4280012  74.6394997  57.1379988  48.7602392  75.0701756  57.8176289
  41.6280012  74.7894997  56.5799988  41.3610012  75.0764997  57.4529988
  42.4000012  74.2434997  56.7319988  41.6957488  74.7550294  56.7201050
  57.8420012  64.2594997  61.7519988  57.3950012  65.1054997  61.7329988
  57.2810012  63.6794997  61.2359988  57.7049900  64.2969916  61.6796801
  68.8050012  69.8804997  61.8549988  68.5090012  69.5584997  61.0039988
  68.4800012  70.7804997  61.8959988  68.7206371  69.9580215  61.7441801
  58.5330012  69.6914997  60.1679988  58.2610012  69.9204997  59.2789988
  58.5790012  70.5294997  60.6279988  58.5020094  69.8361213  60.1085697
  71.5700012  70.9954997  62.0139988  71.3120012  70.3054997  61.4029988
  71.6410012  70.5524997  62.8599988  71.5442856  70.8412124  62.0446885
  67.7290012  66.5234997  60.2639988  67.0170012  67.0584997  59.9119988
  68.4200012  66.5794997  59.6039988  67.7250132  66.6042543  60.1266289
  70.0050012  65.8954997  58.9009988  70.5850012  66.0454997  59.6479988
  70.4190012  66.3664997  58.1779988  70.1402830  65.9796841  58.9054134
  73.7040012  57.6454997  58.7139988  72.8040012  57.7844997  59.0089988
  73.9560012  58.4764997  58.3119988  73.6148702  57.7769074  58.7000205
  61.7700012  66.4334997  60.6879988  61.4780012  67.2014997  60.1969988
  61.0960012  65.7734997  60.5249988  61.6389081  66.4494406  60.5987340
  74.8930012  72.0114997  57.0899988  74.9670012  72.9504997  57.2609988
  75.7990012  71.7064997  57.0339988  75.0255100  72.0986722  57.1058119
  71.4830012  66.9284997  56.5309988  71.5250012  66.7054997  55.6009988
  72.3320012  67.3274997  56.7209988  71.6035396  66.9519155  56.4293627
  67.0550012  60.8044997  57.2009988  66.8020012  60.8234997  58.1239988
  66.7990012  59.9324997  56.8999988  66.9857790  60.6892437  57.2866263
  68.3540012  64.1924997  61.3649988  67.9450012  65.0074997  61.0739988
  69.0750012  64.0524997  60.7509988  68.3954537  64.2852018  61.2421342
  58.4540012  61.7374997  58.7779988  58.9280012  62.3284997  58.1929988
  57.7370012  62.2684997  59.1249988  58.4219341  61.8900867  58.7448836
  63.8820012  62.8324997  60.1179988  64.8130012  62.9614997  60.2959988
  63.6670012  63.5024997  59.4679988  63.9804247  62.9406565  60.0545747
  61.7220012  60.1274997  61.9399988  61.4050012  59.2254997  61.9049988
  62.5040012  60.1294997  61.3869988  61.7842284  60.0041628  61.8604783
  65.8910012  68.5924997  59.6199988  65.1460012  68.0854997  59.2979988
  65.7570012  68.6414997  60.5669988  65.7708776  68.5296940  59.7038647
  69.7890012  61.4064997  57.8199988  68.8500012  61.5184997  57.6679988
  70.0860012  62.2634997  58.1259988  69.7007666  61.5376443  57.8405768
  70.5070012  63.2734997  59.4799988  71.3990012  63.1364997  59.7989988
  70.5640012  64.0644997  58.9439988  70.6366285  63.3616660  59.4511691
  68.0170012  70.0514997  58.6459988  67.7210012  70.8774997  59.0269988
  67.3140012  69.4314997  58.8419988  67.8814914  70.0808199  58.7246443
  75.3920012  63.4834997  59.1749988  74.8380012  63.0874997  58.5029988
  75.4920012  64.3934997  58.8969988  75.3297059  63.5523586  59.0454401
  59.1460012  66.2674997  57.3809988  59.7620012  66.8944997  57.7609988
  58.2840012  66.5834997  57.6529988  59.1137698  66.3959430  57.4697183
  64.8180012  69.0684997  62.3709988  64.5770012  69.9934997  62.4119988
  64.0770012  68.6094997  62.7669988  64.6848409  69.1331421  62.4301377
  71.0800012  70.2454997  57.4599988  71.4330012  69.8654997  58.2649988
  70.1310012  70.1524997  57.5469988  71.0000441  70.1809596  57.5818559
  75.5830012  74.7254997  57.6609988  76.3270012  75.3114997  57.5209988
  74.8890012  75.2934997  57.9949988  75.5910292  74.8825582  57.6869961
  60.5610012  68.1804997  58.8739988  59.8750012  68.5324997  59.4409988
  61.0830012  68.9434997  58.6269988  60.5376852  68.3318578  58.9182118
  69.1770012  60.4944997  60.2499988  69.3970012  60.9664997  59.4469988
  69.7350012  60.8894997  60.9199988  69.2824968  60.6124285  60.2307331
  66.8450012  72.6254997  59.1129988  66.0290012  73.1224997  59.1649988
  67.3750012  73.1004997  58.4729988  66.8049161  72.7577722  59.0335956
  66.3770012  62.2224997  61.0849988  67.1890012  62.7274997  61.1309988
  66.1320012  62.0774997  61.9989988  66.4550520  62.2720375  61.2148517
  67.2600012  59.3034997  62.0229988  66.9140012  59.9214997  62.6679988
  67.9190012  59.8044997  61.5419988  67.3017826  59.4555802  62.0460971
  62.9180012  60.3664997  58.7099988  62.8350012  61.2554997  59.0569988
  63.8080012  60.1014997  58.9419988  63.0269469  60.4521430  58.7887626
  59.4930012  63.4584997  56.8869988  59.4480012  64.3974997  57.0649988
  58.6050012  63.2224997  56.6169988  59.3668574  63.5551892  56.8748912
  59.2310012  72.1804997  61.7199988  58.3990012  72.6534997  61.7479988
  59.7770012  72.6904997  61.1219988  59.1909739  72.3141871  61.6429716
  63.9170012  66.9194997  58.4429988  63.4570012  66.4354997  59.1289988
  64.1720012  66.2514997  57.8069988  63.8884902  66.7628731  58.4509334
  74.3780012  67.5174997  56.1509988  74.1040012  67.0924997  55.3379988
  74.4170012  68.4484997  55.9339988  74.3457699  67.5852484  56.0103610
  73.8480012  63.5804997  56.8919988  73.9440012  64.2474997  56.2109988
  73.7080012  62.7644997  56.4099988  73.8422135  63.5614500  56.7338491
  73.0950012  60.9884997  56.0089988  73.7060012  60.6174997  56.6459988
  72.2590012  60.5674997  56.2049988  73.0655032  60.8807554  56.1227035
  72.7280012  62.5434997  60.9749988  73.0080012  61.6364997  61.0989988
  73.4870012  62.9774997  60.5859988  72.8689277  62.4780942  60.9393682
  73.3410012  59.8064997  61.0229988  73.5240012  59.3574997  61.8489988
  72.7420012  59.2214997  60.5599988  73.2850202  59.6659975  61.0733275
  75.2080012  59.8734997  57.5509988  75.6200012  59.1524997  57.0759988
  75.8900012  60.5434997  57.6099988  75.3565885  59.8652368  57.4938915
  58.7650012  57.9214997  58.6569988  59.2040012  58.5324997  58.0649988
  58.1320012  58.4594997  59.1309988  58.7394514  58.0779257  58.6400930
  71.4180012  58.1064997  60.0079988  70.7160012  58.7214997  59.7989988
  70.9740012  57.2684997  60.1389988  71.2616330  58.0775783  59.9970328
  60.6260012  59.8374997  57.0989988  61.1180012  59.2074997  56.5719988
  61.2500012  60.1334997  57.7629988  60.7775446  59.7913199  57.1165980
  65.6520012  60.1304997  59.5559988  65.8300012  59.4844997  60.2389988
  65.5990012  60.9644997  60.0239988  65.6691829  60.1547985  59.7125940
  60.4840012  74.7894997  56.5799988  60.2170012  75.0764997  57.4529988
  61.2560012  74.2434997  56.7319988  60.5517488  74.7550294  56.7201050
  89.9900012  66.7334997  61.2159988  89.2580012  66.9614997  61.7889988
  90.4380012  66.0194997  61.6709988  89.9503095  66.6682571  61.3559119
  92.5600012  57.6454997  58.7139988  91.6600012  57.7844997  59.0089988
  92.8120012  58.4764997  58.3119988  92.4708702  57.7769074  58.7000205
  93.7490012  72.0114997  57.0899988  93.8230012  72.9504997  57.2609988
  94.6550012  71.7064997  57.0339988  93.8815100  72.0986722  57.1058119
  89.1620012  74.7424997  57.7529988  89.5370012  73.9984997  57.2829988
  89.1660012  74.4724997  58.6719988  89.2138915  74.6041486  57.8127824
  90.3390012  66.9284997  56.5309988  90.3810012  66.7054997  55.6009988
  91.1880012  67.3274997  56.7209988  90.4595396  66.9519155  56.4293627
  82.7940012  61.2494997  56.3019988  82.3630012  60.8044997  57.0319988
  82.0760012  61.6214997  55.7899988  82.6379438  61.2388940  56.3326799
  77.3100012  61.7374997  58.7779988  77.7840012  62.3284997  58.1929988
  76.5930012  62.2684997  59.1249988  77.2779341  61.8900867  58.7448836
  94.2480012  63.4834997  59.1749988  93.6940012  63.0874997  58.5029988
  94.3480012  64.3934997  58.8969988  94.1857059  63.5523586  59.0454401
  92.5430012  72.2694997  59.6399988  92.1700012  71.4434997  59.9489988
  92.8210012  72.0864997  58.7429988  92.5295630  72.1317303  59.5609626
  78.0020012  66.2674997  57.3809988  78.6180012  66.8944997  57.7609988
  77.1400012  66.5834997  57.6529988  77.9697698  66.3959430  57.4697183
  89.9360012  70.2454997  57.4599988  90.2890012  69.8654997  58.2649988
  88.9870012  70.1524997  57.5469988  89.8560441  70.1809596  57.5818559
  94.4390012  74.7254997  57.6609988  95.1830012  75.3114997  57.5209988
  93.7450012  75.2934997  57.9949988  94.4470292  74.8825582  57.6869961
  81.7740012  60.3664997  58.7099988  81.6910012  61.2554997  59.0569988
  82.6640012  60.1014997  58.9419988  81.8829469  60.4521430  58.7887626
  78.3490012  63.4584997  56.8869988  78.3040012  64.3974997  57.0649988
  77.4610012  63.2224997  56.6169988  78.2228574  63.5551892  56.8748912
  86.0650012  73.2204997  56.0459988  85.4210012  72.5894997  56.3669988
  86.8270012  72.6894997  55.8139988  86.0798077  73.0622920  56.0586011
  90.6690012  73.0374997  56.2799988  90.9520012  72.2434997  56.7319988
  91.4090012  73.2704997  55.7189988  90.8077486  72.9602803  56.2660698
  86.9760012  69.9944997  55.8729988  86.7070012  70.1744997  56.7739988
  86.7700012  69.0684997  55.7419988  86.9113825  69.8940152  55.9785214
  93.2340012  67.5174997  56.1509988  92.9600012  67.0924997  55.3379988
  93.2730012  68.4484997  55.9339988  93.2017699  67.5852484  56.0103610
  93.6920012  68.3864997  60.1259988  94.5420012  68.8074997  60.2529988
  93.6980012  67.6464997  60.7329988  93.8091372  68.3440803  60.2254344
  94.0870012  66.4394997  61.9499988  93.3600012  65.9604997  62.3469988
  94.6680012  66.6454997  62.6819988  94.0659375  66.4017090  62.1034129
  94.3550012  66.3404997  58.3409988  93.8330012  66.6974997  57.6219988
  94.3220012  67.0154997  59.0189988  94.2791634  66.4805413  58.3343145
  92.7040012  63.5804997  56.8919988  92.8000012  64.2474997  56.2109988
  92.5640012  62.7644997  56.4099988  92.6982135  63.5614500  56.7338491
  91.9510012  60.9884997  56.0089988  92.5620012  60.6174997  56.6459988
  91.1150012  60.5674997  56.2049988  91.9215032  60.8807554  56.1227035
  94.0640012  59.8734997  57.5509988  94.4760012  59.1524997  57.0759988
  94.7460012  60.5434997  57.6099988  94.2125885  59.8652368  57.4938915
  77.6210012  57.9214997  58.6569988  78.0600012  58.5324997  58.0649988
  76.9880012  58.4594997  59.1309988  77.5954514  58.0779257  58.6400930
  79.4820012  59.8374997  57.0989988  79.9740012  59.2074997  56.5719988
  80.1060012  60.1334997  57.7629988  79.6335446  59.7913199  57.1165980
  86.3870012  75.0794997  57.9519988  87.2530012  75.4454997  57.7739988
  86.1400012  74.6394997  57.1379988  86.4722392  75.0701756  57.8176289
 105.4940012  64.9814997  57.3029988 106.1950012  65.0034997  57.9539988
 105.7970012  64.3534997  56.6469988 105.6307830  64.8996566  57.3033711
 108.8460012  66.7334997  61.2159988 108.1140012  66.9614997  61.7889988
 109.2940012  66.0194997  61.6709988 108.8063095  66.6682571  61.3559119
 107.7170012  65.8954997  58.9009988 108.2970012  66.0454997  59.6479988
 108.1310012  66.3664997  58.1779988 107.8522830  65.9796841  58.9054134
 111.4160012  57.6454997  58.7139988 110.5160012  57.7844997  59.0089988
 111.6680012  58.4764997  58.3119988 111.3268702  57.7769074  58.7000205
  99.4820012  66.4334997  60.6879988  99.1900012  67.2014997  60.1969988
  98.8080012  65.7734997  60.5249988  99.3509081  66.4494406  60.5987340
 112.6050012  72.0114997  57.0899988 112.6790012  72.9504997  57.2609988
 113.5110012  71.7064997  57.0339988 112.7375100  72.0986722  57.1058119
 108.0180012  74.7424997  57.7529988 108.3930012  73.9984997  57.2829988
 108.0220012  74.4724997  58.6719988 108.0698915  74.6041486  57.8127824
 109.1950012  66.9284997  56.5309988 109.2370012  66.7054997  55.6009988
 110.0440012  67.3274997  56.7209988 109.3155396  66.9519155  56.4293627
 104.7670012  60.8044997  57.2009988 104.5140012  60.8234997  58.1239988
 104.5110012  59.9324997  56.8999988 104.6977790  60.6892437  57.2866263
 101.6500012  61.2494997  56.3019988 101.2190012  60.8044997  57.0319988
 100.9320012  61.6214997  55.7899988 101.4939438  61.2388940  56.3326799
  96.1660012  61.7374997  58.7779988  96.6400012  62.3284997  58.1929988
  95.4490012  62.2684997  59.1249988  96.1339341  61.8900867  58.7448836
 100.2680012  64.0274997  57.6849988  99.7250012  63.6474997  56.9929988
 101.1010012  64.2214997  57.2559988 100.3064399  64.0018124  57.5324526
 103.6030012  68.5924997  59.6199988 102.8580012  68.0854997  59.2979988
 103.4690012  68.6414997  60.5669988 103.4828776  68.5296940  59.7038647
 107.5010012  61.4064997  57.8199988 106.5620012  61.5184997  57.6679988
 107.7980012  62.2634997  58.1259988 107.4127666  61.5376443  57.8405768
 108.2190012  63.2734997  59.4799988 109.1110012  63.1364997  59.7989988
 108.2760012  64.0644997  58.9439988 108.3486285  63.3616660  59.4511691
 105.7290012  70.0514997  58.6459988 105.4330012  70.8774997  59.0269988
 105.0260012  69.4314997  58.8419988 105.5934914  70.0808199  58.7246443
 113.1040012  63.4834997  59.1749988 112.5500012  63.0874997  58.5029988
 113.2040012  64.3934997  58.8969988 113.0417059  63.5523586  59.0454401
  96.8580012  66.2674997  57.3809988  97.4740012  66.8944997  57.7609988
  95.9960012  66.5834997  57.6529988  96.8257698  66.3959430  57.4697183
 102.5300012  69.0684997  62.3709988 102.2890012  69.9934997  62.4119988
 101.7890012  68.6094997  62.7669988 102.3968409  69.1331421  62.4301377
 101.2130012  74.0904997  61.9159988 100.2630012  74.1954997  61.9669988
 101.5650012  74.9104997  62.2609988 101.1304203  74.2158314  61.9696650
 108.7920012  70.2454997  57.4599988 109.1450012  69.8654997  58.2649988
 107.8430012  70.1524997  57.5469988 108.7120441  70.1809596  57.5818559
 113.2950012  74.7254997  57.6609988 114.0390012  75.3114997  57.5209988
 112.6010012  75.2934997  57.9949988 113.3030292  74.8825582  57.6869961
 109.6580012  68.9184997  59.6869988 109.3800012  68.1904997  60.2429988
 110.5850012  69.0374997  59.8919988 109.7453124  68.8348802  59.7908845
 102.8830012  71.3574997  55.9069988 103.1220012  70.6094997  55.3599988
 102.6140012  70.9694997  56.7399988 102.8793675  71.2026638  55.9446865
 101.8200012  70.9274997  58.3639988 101.9660012  70.4074997  59.1539988
 101.8170012  71.8344997  58.6699988 101.8395989  70.9788853  58.5136088
 104.5570012  72.6254997  59.1129988 103.7410012  73.1224997  59.1649988
 105.0870012  73.1004997  58.4729988 104.5169161  72.7577722  59.0335956
 101.8960012  73.6694997  59.0949988 102.0560012  74.4684997  58.5939988
 101.6980012  73.9754997  59.9799988 101.8911649  73.8204469  59.1459815
 100.6300012  60.3664997  58.7099988 100.5470012  61.2554997  59.0569988
 101.5200012  60.1014997  58.9419988 100.7389469  60.4521430  58.7887626
  97.2050012  63.4584997  56.8869988  97.1600012  64.3974997  57.0649988
  96.3170012  63.2224997  56.6169988  97.0788574  63.5551892  56.8748912
 104.9210012  73.2204997  56.0459988 104.2770012  72.5894997  56.3669988
 105.6830012  72.6894997  55.8139988 104.9358077  73.0622920  56.0586011
 109.5250012  73.0374997  56.2799988 109.8080012  72.2434997  56.7319988
 110.2650012  73.2704997  55.7189988 109.6637486  72.9602803  56.2660698
 100.4800012  68.9474997  56.1369988 100.5440012  68.1534997  56.6679988
 101.1330012  68.8284997  55.4469988 100.5770241  68.8227148  56.1164317
 105.8320012  69.9944997  55.8729988 105.5630012  70.1744997  56.7739988
 105.6260012  69.0684997  55.7419988 105.7673825  69.8940152  55.9785214
 101.6290012  66.9194997  58.4429988 101.1690012  66.4354997  59.1289988
 101.8840012  66.2514997  57.8069988 101.6004902  66.7628731  58.4509334
 102.7000012  65.1624997  56.7049988 102.5200012  65.0084997  55.7779988
 103.6500012  65.2704997  56.7499988 102.8037776  65.1560175  56.5841843
 112.0900012  67.5174997  56.1509988 111.8160012  67.0924997  55.3379988
 112.1290012  68.4484997  55.9339988 112.0577699  67.5852484  56.0103610
 102.5970012  75.8534997  57.7069988 103.5300012  76.0114997  57.8499988
 102.3330012  76.5284997  57.0819988 102.6889510  75.9663611  57.6420741
  96.1660012  70.4894997  57.1889988  97.0800012  70.5684997  57.4629988
  96.1730012  69.8024997  56.5229988  96.2921131  70.4073961  57.1364393
  94.8150012  75.8824997  62.2669988  94.1680012  75.4204997  61.7339988
  95.1690012  75.2104997  62.8489988  94.7743849  75.7284723  62.2727959
 112.9430012  66.4394997  61.9499988 112.2160012  65.9604997  62.3469988
 113.5240012  66.6454997  62.6819988 112.9219375  66.4017090  62.1034129
 113.2110012  66.3404997  58.3409988 112.6890012  66.6974997  57.6219988
 113.1780012  67.0154997  59.0189988 113.1351634  66.4805413  58.3343145
 111.5600012  63.5804997  56.8919988 111.6560012  64.2474997  56.2109988
 111.4200012  62.7644997  56.4099988 111.5542135  63.5614500  56.7338491
 110.8070012  60.9884997  56.0089988 111.4180012  60.6174997  56.6459988
 109.9710012  60.5674997  56.2049988 110.7775032  60.8807554  56.1227035
 111.0530012  59.8064997  61.0229988 111.2360012  59.3574997  61.8489988
 110.4540012  59.2214997  60.5599988 110.9970202  59.6659975  61.0733275
 112.9200012  59.8734997  57.5509988 113.3320012  59.1524997  57.0759988
 113.6020012  60.5434997  57.6099988 113.0685885  59.8652368  57.4938915
  96.4770012  57.9214997  58.6569988  96.9160012  58.5324997  58.0649988
  95.8440012  58.4594997  59.1309988  96.4514514  58.0779257  58.6400930
 109.1300012  58.1064997  60.0079988 108.4280012  58.7214997  59.7989988
 108.6860012  57.2684997  60.1389988 108.9736330  58.0775783  59.9970328
  96.3780012  73.8694997  59.5549988  95.6930012  73.8314997  58.8869988
  96.3820012  74.7824997  59.8429988  96.2848193  73.9877016  59.5025284
  98.3380012  59.8374997  57.0989988  98.8300012  59.2074997  56.5719988
  98.9620012  60.1334997  57.7629988  98.4895446  59.7913199  57.1165980
 111.9520012  74.6424997  60.6309988 111.7570012  73.8944997  60.0659988
 111.9130012  75.4004997  60.0479988 111.9200380  74.6426099  60.4748384
  98.1960012  74.7894997  56.5799988  97.9290012  75.0764997  57.4529988
  98.9680012  74.2434997  56.7319988  98.2637488  74.7550294  56.7201050
 125.3730012  69.8804997  61.8549988 125.0770012  69.5584997  61.0039988
 125.0480012  70.7804997  61.8959988 125.2886371  69.9580215  61.7441801
 124.2970012  66.5234997  60.2639988 123.5850012  67.0584997  59.9119988
 124.9880012  66.5794997  59.6039988 124.2930132  66.6042543  60.1266289
 124.3500012  64.9814997  57.3029988 125.0510012  65.0034997  57.9539988
 124.6530012  64.3534997  56.6469988 124.4867830  64.8996566  57.3033711
 127.7020012  66.7334997  61.2159988 126.9700012  66.9614997  61.7889988
 128.1500012  66.0194997  61.6709988 127.6623095  66.6682571  61.3559119
 126.5730012  65.8954997  58.9009988 127.1530012  66.0454997  59.6479988
 126.9870012  66.3664997  58.1779988 126.7082830  65.9796841  58.9054134
 124.3000012  72.6324997  62.3359988 124.7740012  72.9274997  63.1139988
 123.7370012  73.3704997  62.1029988 124.2887653  72.7726932  62.4110136
 130.2720012  57.6454997  58.7139988 129.3720012  57.7844997  59.0089988
 130.5240012  58.4764997  58.3119988 130.1828702  57.7769074  58.7000205
 131.4610012  72.0114997  57.0899988 131.5350012  72.9504997  57.2609988
 132.3670012  71.7064997  57.0339988 131.5935100  72.0986722  57.1058119
 126.8740012  74.7424997  57.7529988 127.2490012  73.9984997  57.2829988
 126.8780012  74.4724997  58.6719988 126.9258915  74.6041486  57.8127824
 126.5430012  74.6684997  60.5029988 125.6070012  74.7684997  60.6809988
 126.8230012  73.9594997  61.0809988 126.4528255  74.5862711  60.6055391
 128.0510012  66.9284997  56.5309988 128.0930012  66.7054997  55.6009988
 128.9000012  67.3274997  56.7209988 128.1715396  66.9519155  56.4293627
 123.6230012  60.8044997  57.2009988 123.3700012  60.8234997  58.1239988
 123.3670012  59.9324997  56.8999988 123.5537790  60.6892437  57.2866263
 120.5060012  61.2494997  56.3019988 120.0750012  60.8044997  57.0319988
 119.7880012  61.6214997  55.7899988 120.3499438  61.2388940  56.3326799
 115.0220012  61.7374997  58.7779988 115.4960012  62.3284997  58.1929988
 114.3050012  62.2684997  59.1249988 114.9899341  61.8900867  58.7448836
 119.1240012  64.0274997  57.6849988 118.5810012  63.6474997  56.9929988
 119.9570012  64.2214997  57.2559988 119.1624399  64.0018124  57.5324526
 126.3570012  61.4064997  57.8199988 125.4180012  61.5184997  57.6679988
 126.6540012  62.2634997  58.1259988 126.2687666  61.5376443  57.8405768
 124.5850012  70.0514997  58.6459988 124.2890012  70.8774997  59.0269988
 123.8820012  69.4314997  58.8419988 124.4494914  70.0808199  58.7246443
 131.9600012  63.4834997  59.1749988 131.4060012  63.0874997  58.5029988
 132.0600012  64.3934997  58.8969988 131.8977059  63.5523586  59.0454401
 115.7140012  66.2674997  57.3809988 116.3300012  66.8944997  57.7609988
 114.8520012  66.5834997  57.6529988 115.6817698  66.3959430  57.4697183
 127.6480012  70.2454997  57.4599988 128.0010012  69.8654997  58.2649988
 126.6990012  70.1524997  57.5469988 127.5680441  70.1809596  57.5818559
 132.1510012  74.7254997  57.6609988 132.8950012  75.3114997  57.5209988
 131.4570012  75.2934997  57.9949988 132.1590292  74.8825582  57.6869961
 128.5140012  68.9184997  59.6869988 128.2360012  68.1904997  60.2429988
 129.4410012  69.0374997  59.8919988 128.6013124  68.8348802  59.7908845
 121.7390012  71.3574997  55.9069988 121.9780012  70.6094997  55.3599988
 121.4700012  70.9694997  56.7399988 121.7353675  71.2026638  55.9446865
 120.6760012  70.9274997  58.3639988 120.8220012  70.4074997  59.1539988
 120.6730012  71.8344997  58.6699988 120.6955989  70.9788853  58.5136088
 117.1290012  68.1804997  58.8739988 116.4430012  68.5324997  59.4409988
 117.6510012  68.9434997  58.6269988 117.1056852  68.3318578  58.9182118
 125.7450012  60.4944997  60.2499988 125.9650012  60.9664997  59.4469988
 126.3030012  60.8894997  60.9199988 125.8504968  60.6124285  60.2307331
 123.4130012  72.6254997  59.1129988 122.5970012  73.1224997  59.1649988
 123.9430012  73.1004997  58.4729988 123.3729161  72.7577722  59.0335956
 122.9450012  62.2224997  61.0849988 123.7570012  62.7274997  61.1309988
 122.7000012  62.0774997  61.9989988 123.0230520  62.2720375  61.2148517
 120.7520012  73.6694997  59.0949988 120.9120012  74.4684997  58.5939988
 120.5540012  73.9754997  59.9799988 120.7471649  73.8204469  59.1459815
 119.4860012  60.3664997  58.7099988 119.4030012  61.2554997  59.0569988
 120.3760012  60.1014997  58.9419988 119.5949469  60.4521430  58.7887626
 117.7450012  70.7944997  57.7709988 118.3370012  71.4934997  58.0469988
 118.2040012  70.3614997  57.0509988 117.8881142  70.8317049  57.7114830
 116.0610012  63.4584997  56.8869988 116.0160012  64.3974997  57.0649988
 115.1730012  63.2224997  56.6169988 115.9348574  63.5551892  56.8748912
 123.7770012  73.2204997  56.0459988 123.1330012  72.5894997  56.3669988
 124.5390012  72.6894997  55.8139988 123.7918077  73.0622920  56.0586011
 128.3810012  73.0374997  56.2799988 128.6640012  72.2434997  56.7319988
 129.1210012  73.2704997  55.7189988 128.5197486  72.9602803  56.2660698
 119.3360012  68.9474997  56.1369988 119.4000012  68.1534997  56.6679988
 119.9890012  68.8284997  55.4469988 119.4330241  68.8227148  56.1164317
 124.6880012  69.9944997  55.8729988 124.4190012  70.1744997  56.7739988
 124.4820012  69.0684997  55.7419988 124.6233825  69.8940152  55.9785214
 121.5560012  65.1624997  56.7049988 121.3760012  65.0084997  55.7779988
 122.5060012  65.2704997  56.7499988 121.6597776  65.1560175  56.5841843
 130.9460012  67.5174997  56.1509988 130.6720012  67.0924997  55.3379988
 130.9850012  68.4484997  55.9339988 130.9137699  67.5852484  56.0103610
 121.4530012  75.8534997  57.7069988 122.3860012  76.0114997  57.8499988
 121.1890012  76.5284997  57.0819988 121.5449510  75.9663611  57.6420741
 115.0220012  70.4894997  57.1889988 115.9360012  70.5684997  57.4629988
 115.0290012  69.8024997  56.5229988 115.1481131  70.4073961  57.1364393
 113.6710012  75.8824997  62.2669988 113.0240012  75.4204997  61.7339988
 114.0250012  75.2104997  62.8489988 113.6303849  75.7284723  62.2727959
 131.4040012  68.3864997  60.1259988 132.2540012  68.8074997  60.2529988
 131.4100012  67.6464997  60.7329988 131.5211372  68.3440803  60.2254344
 132.0670012  66.3404997  58.3409988 131.5450012  66.6974997  57.6219988
 132.0340012  67.0154997  59.0189988 131.9911634  66.4805413  58.3343145
 130.4160012  63.5804997  56.8919988 130.5120012  64.2474997  56.2109988
 130.2760012  62.7644997  56.4099988 130.4102135  63.5614500  56.7338491
 129.6630012  60.9884997  56.0089988 130.2740012  60.6174997  56.6459988
 128.8270012  60.5674997  56.2049988 129.6335032  60.8807554  56.1227035
 131.7760012  59.8734997  57.5509988 132.1880012  59.1524997  57.0759988
 132.4580012  60.5434997  57.6099988 131.9245885  59.8652368  57.4938915
 114.0570012  59.8784997  60.6779988 113.1320012  60.0874997  60.5489988
 114.5110012  60.3624997  59.9889988 113.9917368  59.9725993  60.5671226
 115.3330012  57.9214997  58.6569988 115.7720012  58.5324997  58.0649988
 114.7000012  58.4594997  59.1309988 115.3074514  58.0779257  58.6400930
 127.9860012  58.1064997  60.0079988 127.2840012  58.7214997  59.7989988
 127.5420012  57.2684997  60.1389988 127.8296330  58.0775783  59.9970328
 117.1940012  59.8374997  57.0989988 117.6860012  59.2074997  56.5719988
 117.8180012  60.1334997  57.7629988 117.3455446  59.7913199  57.1165980
 122.2200012  60.1304997  59.5559988 122.3980012  59.4844997  60.2389988
 122.1670012  60.9644997  60.0239988 122.2371829  60.1547985  59.7125940
 124.0990012  75.0794997  57.9519988 124.9650012  75.4454997  57.7739988
 123.8520012  74.6394997  57.1379988 124.1842392  75.0701756  57.8176289
 117.0520012  74.7894997  56.5799988 116.7850012  75.0764997  57.4529988
 117.8240012  74.2434997  56.7319988 117.1197488  74.7550294  56.7201050
 133.2660012  64.2594997  61.7519988 132.8190012  65.1054997  61.7329988
 132.7050012  63.6794997  61.2359988 133.1289900  64.2969916  61.6796801
 143.2060012  64.9814997  57.3029988 143.9070012  65.0034997  57.9539988
 143.5090012  64.3534997  56.6469988 143.3427830  64.8996566  57.3033711
 142.4790012  60.8044997  57.2009988 142.2260012  60.8234997  58.1239988
 142.2230012  59.9324997  56.8999988 142.4097790  60.6892437  57.2866263
 139.3620012  61.2494997  56.3019988 138.9310012  60.8044997  57.0319988
 138.6440012  61.6214997  55.7899988 139.2059438  61.2388940  56.3326799
 133.8780012  61.7374997  58.7779988 134.3520012  62.3284997  58.1929988
 133.1610012  62.2684997  59.1249988 133.8459341  61.8900867  58.7448836
 139.3060012  62.8324997  60.1179988 140.2370012  62.9614997  60.2959988
 139.0910012  63.5024997  59.4679988 139.4044247  62.9406565  60.0545747
 137.9800012  64.0274997  57.6849988 137.4370012  63.6474997  56.9929988
 138.8130012  64.2214997  57.2559988 138.0184399  64.0018124  57.5324526
 141.3150012  68.5924997  59.6199988 140.5700012  68.0854997  59.2979988
 141.1810012  68.6414997  60.5669988 141.1948776  68.5296940  59.7038647
 143.4410012  70.0514997  58.6459988 143.1450012  70.8774997  59.0269988
 142.7380012  69.4314997  58.8419988 143.3054914  70.0808199  58.7246443
 134.5700012  66.2674997  57.3809988 135.1860012  66.8944997  57.7609988
 133.7080012  66.5834997  57.6529988 134.5377698  66.3959430  57.4697183
 140.2420012  69.0684997  62.3709988 140.0010012  69.9934997  62.4119988
 139.5010012  68.6094997  62.7669988 140.1088409  69.1331421  62.4301377
 140.5950012  71.3574997  55.9069988 140.8340012  70.6094997  55.3599988
 140.3260012  70.9694997  56.7399988 140.5913675  71.2026638  55.9446865
 139.5320012  70.9274997  58.3639988 139.6780012  70.4074997  59.1539988
 139.5290012  71.8344997  58.6699988 139.5515989  70.9788853  58.5136088
 144.6010012  60.4944997  60.2499988 144.8210012  60.9664997  59.4469988
 145.1590012  60.8894997  60.9199988 144.7064968  60.6124285  60.2307331
 142.2690012  72.6254997  59.1129988 141.4530012  73.1224997  59.1649988
 142.7990012  73.1004997  58.4729988 142.2289161  72.7577722  59.0335956
 141.8010012  62.2224997  61.0849988 142.6130012  62.7274997  61.1309988
 141.5560012  62.0774997  61.9989988 141.8790520  62.2720375  61.2148517
 142.6840012  59.3034997  62.0229988 142.3380012  59.9214997  62.6679988
 143.3430012  59.8044997  61.5419988 142.7257826  59.4555802  62.0460971
 139.6080012  73.6694997  59.0949988 139.7680012  74.4684997  58.5939988
 139.4100012  73.9754997  59.9799988 139.6031649  73.8204469  59.1459815
 138.3420012  60.3664997  58.7099988 138.2590012  61.2554997  59.0569988
 139.2320012  60.1014997  58.9419988 138.4509469  60.4521430  58.7887626
 136.6010012  70.7944997  57.7709988 137.1930012  71.4934997  58.0469988
 137.0600012  70.3614997  57.0509988 136.7441142  70.8317049  57.7114830
 134.9170012  63.4584997  56.8869988 134.8720012  64.3974997  57.0649988
 134.0290012  63.2224997  56.6169988 134.7908574  63.5551892  56.8748912
 134.6550012  72.1804997  61.7199988 133.8230012  72.6534997  61.7479988
 135.2010012  72.6904997  61.1219988 134.6149739  72.3141871  61.6429716
 142.6330012  73.2204997  56.0459988 141.9890012  72.5894997  56.3669988
 143.3950012  72.6894997  55.8139988 142.6478077  73.0622920  56.0586011
 138.1920012  68.9474997  56.1369988 138.2560012  68.1534997  56.6679988
 138.8450012  68.8284997  55.4469988 138.2890241  68.8227148  56.1164317
 143.5440012  69.9944997  55.8729988 143.2750012  70.1744997  56.7739988
 143.3380012  69.0684997  55.7419988 143.4793825  69.8940152  55.9785214
 139.3410012  66.9194997  58.4429988 138.8810012  66.4354997  59.1289988
 139.5960012  66.2514997  57.8069988 139.3124902  66.7628731  58.4509334
 140.4120012  65.1624997  56.7049988 140.2320012  65.0084997  55.7779988
 141.3620012  65.2704997  56.7499988 140.5157776  65.1560175  56.5841843
 140.3090012  75.8534997  57.7069988 141.2420012  76.0114997  57.8499988
 140.0450012  76.5284997  57.0819988 140.4009510  75.9663611  57.6420741
 133.8780012  70.4894997  57.1889988 134.7920012  70.5684997  57.4629988
 133.8850012  69.8024997  56.5229988 134.0041131  70.4073961  57.1364393
 132.9130012  59.8784997  60.6779988 131.9880012  60.0874997  60.5489988
 133.3670012  60.3624997  59.9889988 132.8477368  59.9725993  60.5671226
 134.1890012  57.9214997  58.6569988 134.6280012  58.5324997  58.0649988
 133.5560012  58.4594997  59.1309988 134.1634514  58.0779257  58.6400930
 134.0900012  73.8694997  59.5549988 133.4050012  73.8314997  58.8869988
 134.0940012  74.7824997  59.8429988 133.9968193  73.9877016  59.5025284
 136.0500012  59.8374997  57.0989988 136.5420012  59.2074997  56.5719988
 136.6740012  60.1334997  57.7629988 136.2015446  59.7913199  57.1165980
 141.0760012  60.1304997  59.5559988 141.2540012  59.4844997  60.2389988
 141.0230012  60.9644997  60.0239988 141.0931829  60.1547985  59.7125940
 142.9550012  75.0794997  57.9519988 143.8210012  75.4454997  57.7739988
 142.7080012  74.6394997  57.1379988 143.0402392  75.0701756  57.8176289
 135.9080012  74.7894997  56.5799988 135.6410012  75.0764997  57.4529988
 136.6800012  74.2434997  56.7319988 135.9757488  74.7550294  56.7201050
   1.2740012  83.1154997  61.7519988   0.8270012  83.9614997  61.7329988
   0.7130012  82.5354997  61.2359988   1.1369900  83.1529916  61.6796801
   1.9650012  88.5474997  60.1679988   1.6930012  88.7764997  59.2789988
   2.0110012  89.3854997  60.6279988   1.9340094  88.6921213  60.1085697
  15.0020012  89.8514997  62.0139988  14.7440012  89.1614997  61.4029988
  15.0730012  89.4084997  62.8599988  14.9762856  89.6972124  62.0446885
  11.1610012  85.3794997  60.2639988  10.4490012  85.9144997  59.9119988
  11.8520012  85.4354997  59.6039988  11.1570132  85.4602543  60.1266289
  11.2140012  83.8374997  57.3029988  11.9150012  83.8594997  57.9539988
  11.5170012  83.2094997  56.6469988  11.3507830  83.7556566  57.3033711
  13.4370012  84.7514997  58.9009988  14.0170012  84.9014997  59.6479988
  13.8510012  85.2224997  58.1779988  13.5722830  84.8356841  58.9054134
  17.1360012  76.5014997  58.7139988  16.2360012  76.6404997  59.0089988
  17.3880012  77.3324997  58.3119988  17.0468702  76.6329074  58.7000205
  18.3250012  90.8674997  57.0899988  18.3990012  91.8064997  57.2609988
  19.2310012  90.5624997  57.0339988  18.4575100  90.9546722  57.1058119
  10.6360012  94.4444997  60.7509988  10.5610012  94.3234997  59.8049988
  10.6690012  95.3944997  60.8699988  10.6301848  94.5562500  60.6374834
  13.7380012  93.5984997  57.7529988  14.1130012  92.8544997  57.2829988
  13.7420012  93.3284997  58.6719988  13.7898915  93.4601486  57.8127824
  14.9150012  85.7844997  56.5309988  14.9570012  85.5614997  55.6009988
  15.7640012  86.1834997  56.7209988  15.0355396  85.8079155  56.4293627
  10.4870012  79.6604997  57.2009988  10.2340012  79.6794997  58.1239988
  10.2310012  78.7884997  56.8999988  10.4177790  79.5452437  57.2866263
  11.7860012  83.0484997  61.3649988  11.3770012  83.8634997  61.0739988
  12.5070012  82.9084997  60.7509988  11.8274537  83.1412018  61.2421342
   7.3700012  80.1054997  56.3019988   6.9390012  79.6604997  57.0319988
   6.6520012  80.4774997  55.7899988   7.2139438  80.0948940  56.3326799
   1.8860012  80.5934997  58.7779988   2.3600012  81.1844997  58.1929988
   1.1690012  81.1244997  59.1249988   1.8539341  80.7460867  58.7448836
   5.9880012  82.8834997  57.6849988   5.4450012  82.5034997  56.9929988
   6.8210012  83.0774997  57.2559988   6.0264399  82.8578124  57.5324526
   9.3230012  87.4484997  59.6199988   8.5780012  86.9414997  59.2979988
   9.1890012  87.4974997  60.5669988   9.2028776  87.3856940  59.7038647
  13.2210012  80.2624997  57.8199988  12.2820012  80.3744997  57.6679988
  13.5180012  81.1194997  58.1259988  13.1327666  80.3936443  57.8405768
  13.9390012  82.1294997  59.4799988  14.8310012  81.9924997  59.7989988
  13.9960012  82.9204997  58.9439988  14.0686285  82.2176660  59.4511691
  11.4490012  88.9074997  58.6459988  11.1530012  89.7334997  59.0269988
  10.7460012  88.2874997  58.8419988  11.3134914  88.9368199  58.7246443
  18.8240012  82.3394997  59.1749988  18.2700012  81.9434997  58.5029988
  18.9240012  83.2494997  58.8969988  18.7617059  82.4083586  59.0454401
  17.1190012  91.1254997  59.6399988  16.7460012  90.2994997  59.9489988
  17.3970012  90.9424997  58.7429988  17.1055630  90.9877303  59.5609626
   2.5780012  85.1234997  57.3809988   3.1940012  85.7504997  57.7609988
   1.7160012  85.4394997  57.6529988   2.5457698  85.2519430  57.4697183
   6.9330012  92.9464997  61.9159988   5.9830012  93.0514997  61.9669988
   7.2850012  93.7664997  62.2609988   6.8504203  93.0718314  61.9696650
  14.5120012  89.1014997  57.4599988  14.8650012  88.7214997  58.2649988
  13.5630012  89.0084997  57.5469988  14.4320441  89.0369596  57.5818559
  19.0150012  93.5814997  57.6609988  19.7590012  94.1674997  57.5209988
  18.3210012  94.1494997  57.9949988  19.0230292  93.7385582  57.6869961
  15.3780012  87.7744997  59.6869988  15.1000012  87.0464997  60.2429988
  16.3050012  87.8934997  59.8919988  15.4653124  87.6908802  59.7908845
   8.6030012  90.2134997  55.9069988   8.8420012  89.4654997  55.3599988
   8.3340012  89.8254997  56.7399988   8.5993675  90.0586638  55.9446865
   7.5400012  89.7834997  58.3639988   7.6860012  89.2634997  59.1539988
   7.5370012  90.6904997  58.6699988   7.5595989  89.8348853  58.5136088
   3.9930012  87.0364997  58.8739988   3.3070012  87.3884997  59.4409988
   4.5150012  87.7994997  58.6269988   3.9696852  87.1878578  58.9182118
  12.6090012  79.3504997  60.2499988  12.8290012  79.8224997  59.4469988
  13.1670012  79.7454997  60.9199988  12.7144968  79.4684285  60.2307331
  10.2770012  91.4814997  59.1129988   9.4610012  91.9784997  59.1649988
  10.8070012  91.9564997  58.4729988  10.2369161  91.6137722  59.0335956
   9.8090012  81.0784997  61.0849988  10.6210012  81.5834997  61.1309988
   9.5640012  80.9334997  61.9989988   9.8870520  81.1280375  61.2148517
   7.6160012  92.5254997  59.0949988   7.7760012  93.3244997  58.5939988
   7.4180012  92.8314997  59.9799988   7.6111649  92.6764469  59.1459815
   6.3500012  79.2224997  58.7099988   6.2670012  80.1114997  59.0569988
   7.2400012  78.9574997  58.9419988   6.4589469  79.3081430  58.7887626
   4.6090012  89.6504997  57.7709988   5.2010012  90.3494997  58.0469988
   5.0680012  89.2174997  57.0509988   4.7521142  89.6877049  57.7114830
   2.9250012  82.3144997  56.8869988   2.8800012  83.2534997  57.0649988
   2.0370012  82.0784997  56.6169988   2.7988574  82.4111892  56.8748912
   2.6630012  91.0364997  61.7199988   1.8310012  91.5094997  61.7479988
   3.2090012  91.5464997  61.1219988   2.6229739  91.1701871  61.6429716
  10.6410012  92.0764997  56.0459988   9.9970012  91.4454997  56.3669988
  11.4030012  91.5454997  55.8139988  10.6558077  91.9182920  56.0586011
  15.2450012  91.8934997  56.2799988  15.5280012  91.0994997  56.7319988
  15.9850012  92.1264997  55.7189988  15.3837486  91.8162803  56.2660698
   6.2000012  87.8034997  56.1369988   6.2640012  87.0094997  56.6679988
   6.8530012  87.6844997  55.4469988   6.2970241  87.6787148  56.1164317
  11.5520012  88.8504997  55.8729988  11.2830012  89.0304997  56.7739988
  11.3460012  87.9244997  55.7419988  11.4873825  88.7500152  55.9785214
   8.4200012  84.0184997  56.7049988   8.2400012  83.8644997  55.7779988
   9.3700012  84.1264997  56.7499988   8.5237776  84.0120175  56.5841843
  17.8100012  86.3734997  56.1509988  17.5360012  85.9484997  55.3379988
  17.8490012  87.3044997  55.9339988  17.7777699  86.4412484  56.0103610
   8.3170012  94.7094997  57.7069988   9.2500012  94.8674997  57.8499988
   8.0530012  95.3844997  57.0819988   8.4089510  94.8223611  57.6420741
   1.8860012  89.3454997  57.1889988   2.8000012  89.4244997  57.4629988
   1.8930012  88.6584997  56.5229988   2.0121131  89.2633961  57.1364393
   0.5350012  94.7384997  62.2669988  -0.1119988  94.2764997  61.7339988
   0.8890012  94.0664997  62.8489988   0.4943849  94.5844723  62.2727959
  18.2680012  87.2424997  60.1259988  19.1180012  87.6634997  60.2529988
  18.2740012  86.5024997  60.7329988  18.3851372  87.2000803  60.2254344
  18.9310012  85.1964997  58.3409988  18.4090012  85.5534997  57.6219988
  18.8980012  85.8714997  59.0189988  18.8551634  85.3365413  58.3343145
  17.2800012  82.4364997  56.8919988  17.3760012  83.1034997  56.2109988
  17.1400012  81.6204997  56.4099988  17.2742135  82.4174500  56.7338491
  16.5270012  79.8444997  56.0089988  17.1380012  79.4734997  56.6459988
  15.6910012  79.4234997  56.2049988  16.4975032  79.7367554  56.1227035
  16.1600012  81.3994997  60.9749988  16.4400012  80.4924997  61.0989988
  16.9190012  81.8334997  60.5859988  16.3009277  81.3340942  60.9393682
  18.6400012  78.7294997  57.5509988  19.0520012  78.0084997  57.0759988
  19.3220012  79.3994997  57.6099988  18.7885885  78.7212368  57.4938915
   0.9210012  78.7344997  60.6779988  -0.0039988  78.9434997  60.5489988
   1.3750012  79.2184997  59.9889988   0.8557368  78.8285993  60.5671226
   2.1970012  76.7774997  58.6569988   2.6360012  77.3884997  58.0649988
   1.5640012  77.3154997  59.1309988   2.1714514  76.9339257  58.6400930
   2.0980012  92.7254997  59.5549988   1.4130012  92.6874997  58.8869988
   2.1020012  93.6384997  59.8429988   2.0048193  92.8437016  59.5025284
   4.0580012  78.6934997  57.0989988   4.5500012  78.0634997  56.5719988
   4.6820012  78.9894997  57.7629988   4.2095446  78.6473199  57.1165980
   9.0840012  78.9864997  59.5559988   9.2620012  78.3404997  60.2389988
   9.0310012  79.8204997  60.0239988   9.1011829  79.0107985  59.7125940
  10.9630012  93.9354997  57.9519988  11.8290012  94.3014997  57.7739988
  10.7160012  93.4954997  57.1379988  11.0482392  93.9261756  57.8176289
   3.9160012  93.6454997  56.5799988   3.6490012  93.9324997  57.4529988
   4.6880012  93.0994997  56.7319988   3.9837488  93.6110294  56.7201050
  30.0700012  83.8374997  57.3029988  30.7710012  83.8594997  57.9539988
  30.3730012  83.2094997  56.6469988  30.2067830  83.7556566  57.3033711
  33.4220012  85.5894997  61.2159988  32.6900012  85.8174997  61.7889988
  33.8700012  84.8754997  61.6709988  33.3823095  85.5242571  61.3559119
  32.2930012  84.7514997  58.9009988  32.8730012  84.9014997  59.6479988
  32.7070012  85.2224997  58.1779988  32.4282830  84.8356841  58.9054134
  30.0200012  91.4884997  62.3359988  30.4940012  91.7834997  63.1139988
  29.4570012  92.2264997  62.1029988  30.0087653  91.6286932  62.4110136
  35.9920012  76.5014997  58.7139988  35.0920012  76.6404997  59.0089988
  36.2440012  77.3324997  58.3119988  35.9028702  76.6329074  58.7000205
  24.0580012  85.2894997  60.6879988  23.7660012  86.0574997  60.1969988
  23.3840012  84.6294997  60.5249988  23.9269081  85.3054406  60.5987340
  37.1810012  90.8674997  57.0899988  37.2550012  91.8064997  57.2609988
  38.0870012  90.5624997  57.0339988  37.3135100  90.9546722  57.1058119
  32.5940012  93.5984997  57.7529988  32.9690012  92.8544997  57.2829988
  32.5980012  93.3284997  58.6719988  32.6458915  93.4601486  57.8127824
  32.2630012  93.5244997  60.5029988  31.3270012  93.6244997  60.6809988
  32.5430012  92.8154997  61.0809988  32.1728255  93.4422711  60.6055391
  33.7710012  85.7844997  56.5309988  33.8130012  85.5614997  55.6009988
  34.6200012  86.1834997  56.7209988  33.8915396  85.8079155  56.4293627
  29.3430012  79.6604997  57.2009988  29.0900012  79.6794997  58.1239988
  29.0870012  78.7884997  56.8999988  29.2737790  79.5452437  57.2866263
  30.6420012  83.0484997  61.3649988  30.2330012  83.8634997  61.0739988
  31.3630012  82.9084997  60.7509988  30.6834537  83.1412018  61.2421342
  26.2260012  80.1054997  56.3019988  25.7950012  79.6604997  57.0319988
  25.5080012  80.4774997  55.7899988  26.0699438  80.0948940  56.3326799
  20.7420012  80.5934997  58.7779988  21.2160012  81.1844997  58.1929988
  20.0250012  81.1244997  59.1249988  20.7099341  80.7460867  58.7448836
  24.8440012  82.8834997  57.6849988  24.3010012  82.5034997  56.9929988
  25.6770012  83.0774997  57.2559988  24.8824399  82.8578124  57.5324526
  32.0770012  80.2624997  57.8199988  31.1380012  80.3744997  57.6679988
  32.3740012  81.1194997  58.1259988  31.9887666  80.3936443  57.8405768
  32.7950012  82.1294997  59.4799988  33.6870012  81.9924997  59.7989988
  32.8520012  82.9204997  58.9439988  32.9246285  82.2176660  59.4511691
  30.3050012  88.9074997  58.6459988  30.0090012  89.7334997  59.0269988
  29.6020012  88.2874997  58.8419988  30.1694914  88.9368199  58.7246443
  35.9750012  91.1254997  59.6399988  35.6020012  90.2994997  59.9489988
  36.2530012  90.9424997  58.7429988  35.9615630  90.9877303  59.5609626
  21.4340012  85.1234997  57.3809988  22.0500012  85.7504997  57.7609988
  20.5720012  85.4394997  57.6529988  21.4017698  85.2519430  57.4697183
  33.3680012  89.1014997  57.4599988  33.7210012  88.7214997  58.2649988
  32.4190012  89.0084997  57.5469988  33.2880441  89.0369596  57.5818559
  37.8710012  93.5814997  57.6609988  38.6150012  94.1674997  57.5209988
  37.1770012  94.1494997  57.9949988  37.8790292  93.7385582  57.6869961
  34.2340012  87.7744997  59.6869988  33.9560012  87.0464997  60.2429988
  35.1610012  87.8934997  59.8919988  34.3213124  87.6908802  59.7908845
  27.4590012  90.2134997  55.9069988  27.6980012  89.4654997  55.3599988
  27.1900012  89.8254997  56.7399988  27.4553675  90.0586638  55.9446865
  26.3960012  89.7834997  58.3639988  26.5420012  89.2634997  59.1539988
  26.3930012  90.6904997  58.6699988  26.4155989  89.8348853  58.5136088
  22.8490012  87.0364997  58.8739988  22.1630012  87.3884997  59.4409988
  23.3710012  87.7994997  58.6269988  22.8256852  87.1878578  58.9182118
  29.1330012  91.4814997  59.1129988  28.3170012  91.9784997  59.1649988
  29.6630012  91.9564997  58.4729988  29.0929161  91.6137722  59.0335956
  28.6650012  81.0784997  61.0849988  29.4770012  81.5834997  61.1309988
  28.4200012  80.9334997  61.9989988  28.7430520  81.1280375  61.2148517
  26.4720012  92.5254997  59.0949988  26.6320012  93.3244997  58.5939988
  26.2740012  92.8314997  59.9799988  26.4671649  92.6764469  59.1459815
  25.2060012  79.2224997  58.7099988  25.1230012  80.1114997  59.0569988
  26.0960012  78.9574997  58.9419988  25.3149469  79.3081430  58.7887626
  23.4650012  89.6504997  57.7709988  24.0570012  90.3494997  58.0469988
  23.9240012  89.2174997  57.0509988  23.6081142  89.6877049  57.7114830
  21.7810012  82.3144997  56.8869988  21.7360012  83.2534997  57.0649988
  20.8930012  82.0784997  56.6169988  21.6548574  82.4111892  56.8748912
  29.4970012  92.0764997  56.0459988  28.8530012  91.4454997  56.3669988
  30.2590012  91.5454997  55.8139988  29.5118077  91.9182920  56.0586011
  34.1010012  91.8934997  56.2799988  34.3840012  91.0994997  56.7319988
  34.8410012  92.1264997  55.7189988  34.2397486  91.8162803  56.2660698
  25.0560012  87.8034997  56.1369988  25.1200012  87.0094997  56.6679988
  25.7090012  87.6844997  55.4469988  25.1530241  87.6787148  56.1164317
  30.4080012  88.8504997  55.8729988  30.1390012  89.0304997  56.7739988
  30.2020012  87.9244997  55.7419988  30.3433825  88.7500152  55.9785214
  26.2050012  85.7754997  58.4429988  25.7450012  85.2914997  59.1289988
  26.4600012  85.1074997  57.8069988  26.1764902  85.6188731  58.4509334
  27.2760012  84.0184997  56.7049988  27.0960012  83.8644997  55.7779988
  28.2260012  84.1264997  56.7499988  27.3797776  84.0120175  56.5841843
  36.6660012  86.3734997  56.1509988  36.3920012  85.9484997  55.3379988
  36.7050012  87.3044997  55.9339988  36.6337699  86.4412484  56.0103610
  27.1730012  94.7094997  57.7069988  28.1060012  94.8674997  57.8499988
  26.9090012  95.3844997  57.0819988  27.2649510  94.8223611  57.6420741
  20.7420012  89.3454997  57.1889988  21.6560012  89.4244997  57.4629988
  20.7490012  88.6584997  56.5229988  20.8681131  89.2633961  57.1364393
  37.1240012  87.2424997  60.1259988  37.9740012  87.6634997  60.2529988
  37.1300012  86.5024997  60.7329988  37.2411372  87.2000803  60.2254344
  37.7870012  85.1964997  58.3409988  37.2650012  85.5534997  57.6219988
  37.7540012  85.8714997  59.0189988  37.7111634  85.3365413  58.3343145
  36.1360012  82.4364997  56.8919988  36.2320012  83.1034997  56.2109988
  35.9960012  81.6204997  56.4099988  36.1302135  82.4174500  56.7338491
  35.3830012  79.8444997  56.0089988  35.9940012  79.4734997  56.6459988
  34.5470012  79.4234997  56.2049988  35.3535032  79.7367554  56.1227035
  37.4960012  78.7294997  57.5509988  37.9080012  78.0084997  57.0759988
  38.1780012  79.3994997  57.6099988  37.6445885  78.7212368  57.4938915
  19.7770012  78.7344997  60.6779988  18.8520012  78.9434997  60.5489988
  20.2310012  79.2184997  59.9889988  19.7117368  78.8285993  60.5671226
  21.0530012  76.7774997  58.6569988  21.4920012  77.3884997  58.0649988
  20.4200012  77.3154997  59.1309988  21.0274514  76.9339257  58.6400930
  20.9540012  92.7254997  59.5549988  20.2690012  92.6874997  58.8869988
  20.9580012  93.6384997  59.8429988  20.8608193  92.8437016  59.5025284
  22.9140012  78.6934997  57.0989988  23.4060012  78.0634997  56.5719988
  23.5380012  78.9894997  57.7629988  23.0655446  78.6473199  57.1165980
  27.9400012  78.9864997  59.5559988  28.1180012  78.3404997  60.2389988
  27.8870012  79.8204997  60.0239988  27.9571829  79.0107985  59.7125940
  29.8190012  93.9354997  57.9519988  30.6850012  94.3014997  57.7739988
  29.5720012  93.4954997  57.1379988  29.9042392  93.9261756  57.8176289
  22.7720012  93.6454997  56.5799988  22.5050012  93.9324997  57.4529988
  23.5440012  93.0994997  56.7319988  22.8397488  93.6110294  56.7201050
  48.9260012  83.8374997  57.3029988  49.6270012  83.8594997  57.9539988
  49.2290012  83.2094997  56.6469988  49.0627830  83.7556566  57.3033711
  51.1490012  84.7514997  58.9009988  51.7290012  84.9014997  59.6479988
  51.5630012  85.2224997  58.1779988  51.2842830  84.8356841  58.9054134
  42.9140012  85.2894997  60.6879988  42.6220012  86.0574997  60.1969988
  42.2400012  84.6294997  60.5249988  42.7829081  85.3054406  60.5987340
  56.0370012  90.8674997  57.0899988  56.1110012  91.8064997  57.2609988
  56.9430012  90.5624997  57.0339988  56.1695100  90.9546722  57.1058119
  51.4500012  93.5984997  57.7529988  51.8250012  92.8544997  57.2829988
  51.4540012  93.3284997  58.6719988  51.5018915  93.4601486  57.8127824
  52.6270012  85.7844997  56.5309988  52.6690012  85.5614997  55.6009988
  53.4760012  86.1834997  56.7209988  52.7475396  85.8079155  56.4293627
  48.1990012  79.6604997  57.2009988  47.9460012  79.6794997  58.1239988
  47.9430012  78.7884997  56.8999988  48.1297790  79.5452437  57.2866263
  45.0820012  80.1054997  56.3019988  44.6510012  79.6604997  57.0319988
  44.3640012  80.4774997  55.7899988  44.9259438  80.0948940  56.3326799
  39.5980012  80.5934997  58.7779988  40.0720012  81.1844997  58.1929988
  38.8810012  81.1244997  59.1249988  39.5659341  80.7460867  58.7448836
  43.7000012  82.8834997  57.6849988  43.1570012  82.5034997  56.9929988
  44.5330012  83.0774997  57.2559988  43.7384399  82.8578124  57.5324526
  47.0350012  87.4484997  59.6199988  46.2900012  86.9414997  59.2979988
  46.9010012  87.4974997  60.5669988  46.9148776  87.3856940  59.7038647
  50.9330012  80.2624997  57.8199988  49.9940012  80.3744997  57.6679988
  51.2300012  81.1194997  58.1259988  50.8447666  80.3936443  57.8405768
  51.6510012  82.1294997  59.4799988  52.5430012  81.9924997  59.7989988
  51.7080012  82.9204997  58.9439988  51.7806285  82.2176660  59.4511691
  49.1610012  88.9074997  58.6459988  48.8650012  89.7334997  59.0269988
  48.4580012  88.2874997  58.8419988  49.0254914  88.9368199  58.7246443
  54.8310012  91.1254997  59.6399988  54.4580012  90.2994997  59.9489988
  55.1090012  90.9424997  58.7429988  54.8175630  90.9877303  59.5609626
  40.2900012  85.1234997  57.3809988  40.9060012  85.7504997  57.7609988
  39.4280012  85.4394997  57.6529988  40.2577698  85.2519430  57.4697183
  52.2240012  89.1014997  57.4599988  52.5770012  88.7214997  58.2649988
  51.2750012  89.0084997  57.5469988  52.1440441  89.0369596  57.5818559
  56.7270012  93.5814997  57.6609988  57.4710012  94.1674997  57.5209988
  56.0330012  94.1494997  57.9949988  56.7350292  93.7385582  57.6869961
  53.0900012  87.7744997  59.6869988  52.8120012  87.0464997  60.2429988
  54.0170012  87.8934997  59.8919988  53.1773124  87.6908802  59.7908845
  46.3150012  90.2134997  55.9069988  46.5540012  89.4654997  55.3599988
  46.0460012  89.8254997  56.7399988  46.3113675  90.0586638  55.9446865
  45.2520012  89.7834997  58.3639988  45.3980012  89.2634997  59.1539988
  45.2490012  90.6904997  58.6699988  45.2715989  89.8348853  58.5136088
  41.7050012  87.0364997  58.8739988  41.0190012  87.3884997  59.4409988
  42.2270012  87.7994997  58.6269988  41.6816852  87.1878578  58.9182118
  50.3210012  79.3504997  60.2499988  50.5410012  79.8224997  59.4469988
  50.8790012  79.7454997  60.9199988  50.4264968  79.4684285  60.2307331
  47.9890012  91.4814997  59.1129988  47.1730012  91.9784997  59.1649988
  48.5190012  91.9564997  58.4729988  47.9489161  91.6137722  59.0335956
  45.3280012  92.5254997  59.0949988  45.4880012  93.3244997  58.5939988
  45.1300012  92.8314997  59.9799988  45.3231649  92.6764469  59.1459815
  42.3210012  89.6504997  57.7709988  42.9130012  90.3494997  58.0469988
  42.7800012  89.2174997  57.0509988  42.4641142  89.6877049  57.7114830
  40.6370012  82.3144997  56.8869988  40.5920012  83.2534997  57.0649988
  39.7490012  82.0784997  56.6169988  40.5108574  82.4111892  56.8748912
  48.3530012  92.0764997  56.0459988  47.7090012  91.4454997  56.3669988
  49.1150012  91.5454997  55.8139988  48.3678077  91.9182920  56.0586011
  52.9570012  91.8934997  56.2799988  53.2400012  91.0994997  56.7319988
  53.6970012  92.1264997  55.7189988  53.0957486  91.8162803  56.2660698
  43.9120012  87.8034997  56.1369988  43.9760012  87.0094997  56.6679988
  44.5650012  87.6844997  55.4469988  44.0090241  87.6787148  56.1164317
  49.2640012  88.8504997  55.8729988  48.9950012  89.0304997  56.7739988
  49.0580012  87.9244997  55.7419988  49.1993825  88.7500152  55.9785214
  45.0610012  85.7754997  58.4429988  44.6010012  85.2914997  59.1289988
  45.3160012  85.1074997  57.8069988  45.0324902  85.6188731  58.4509334
  46.1320012  84.0184997  56.7049988  45.9520012  83.8644997  55.7779988
  47.0820012  84.1264997  56.7499988  46.2357776  84.0120175  56.5841843
  46.0290012  94.7094997  57.7069988  46.9620012  94.8674997  57.8499988
  45.7650012  95.3844997  57.0819988  46.1209510  94.8223611  57.6420741
  39.5980012  89.3454997  57.1889988  40.5120012  89.4244997  57.4629988
  39.6050012  88.6584997  56.5229988  39.7241131  89.2633961  57.1364393
  55.9800012  87.2424997  60.1259988  56.8300012  87.6634997  60.2529988
  55.9860012  86.5024997  60.7329988  56.0971372  87.2000803  60.2254344
  56.3750012  85.2954997  61.9499988  55.6480012  84.8164997  62.3469988
  56.9560012  85.5014997  62.6819988  56.3539375  85.2577090  62.1034129
  53.8720012  81.3994997  60.9749988  54.1520012  80.4924997  61.0989988
  54.6310012  81.8334997  60.5859988  54.0129277  81.3340942  60.9393682
  39.9090012  76.7774997  58.6569988  40.3480012  77.3884997  58.0649988
  39.2760012  77.3154997  59.1309988  39.8834514  76.9339257  58.6400930
  39.8100012  92.7254997  59.5549988  39.1250012  92.6874997  58.8869988
  39.8140012  93.6384997  59.8429988  39.7168193  92.8437016  59.5025284
  41.7700012  78.6934997  57.0989988  42.2620012  78.0634997  56.5719988
  42.3940012  78.9894997  57.7629988  41.9215446  78.6473199  57.1165980
  48.6750012  93.9354997  57.9519988  49.5410012  94.3014997  57.7739988
  48.4280012  93.4954997  57.1379988  48.7602392  93.9261756  57.8176289
  55.3840012  93.4984997  60.6309988  55.1890012  92.7504997  60.0659988
  55.3450012  94.2564997  60.0479988  55.3520380  93.4986099  60.4748384
  41.6280012  93.6454997  56.5799988  41.3610012  93.9324997  57.4529988
  42.4000012  93.0994997  56.7319988  41.6957488  93.6110294  56.7201050
  73.7040012  76.5014997  58.7139988  72.8040012  76.6404997  59.0089988
  73.9560012  77.3324997  58.3119988  73.6148702  76.6329074  58.7000205
  61.7700012  85.2894997  60.6879988  61.4780012  86.0574997  60.1969988
  61.0960012  84.6294997  60.5249988  61.6389081  85.3054406  60.5987340
  70.3060012  93.5984997  57.7529988  70.6810012  92.8544997  57.2829988
  70.3100012  93.3284997  58.6719988  70.3578915  93.4601486  57.8127824
  69.9750012  93.5244997  60.5029988  69.0390012  93.6244997  60.6809988
  70.2550012  92.8154997  61.0809988  69.8848255  93.4422711  60.6055391
  75.5830012  93.5814997  57.6609988  76.3270012  94.1674997  57.5209988
  74.8890012  94.1494997  57.9949988  75.5910292  93.7385582  57.6869961
  65.1710012  90.2134997  55.9069988  65.4100012  89.4654997  55.3599988
  64.9020012  89.8254997  56.7399988  65.1673675  90.0586638  55.9446865
  64.1080012  89.7834997  58.3639988  64.2540012  89.2634997  59.1539988
  64.1050012  90.6904997  58.6699988  64.1275989  89.8348853  58.5136088
  60.5610012  87.0364997  58.8739988  59.8750012  87.3884997  59.4409988
  61.0830012  87.7994997  58.6269988  60.5376852  87.1878578  58.9182118
  66.8450012  91.4814997  59.1129988  66.0290012  91.9784997  59.1649988
  67.3750012  91.9564997  58.4729988  66.8049161  91.6137722  59.0335956
  64.1840012  92.5254997  59.0949988  64.3440012  93.3244997  58.5939988
  63.9860012  92.8314997  59.9799988  64.1791649  92.6764469  59.1459815
  61.1770012  89.6504997  57.7709988  61.7690012  90.3494997  58.0469988
  61.6360012  89.2174997  57.0509988  61.3201142  89.6877049  57.7114830
  67.2090012  92.0764997  56.0459988  66.5650012  91.4454997  56.3669988
  67.9710012  91.5454997  55.8139988  67.2238077  91.9182920  56.0586011
  62.7680012  87.8034997  56.1369988  62.8320012  87.0094997  56.6679988
  63.4210012  87.6844997  55.4469988  62.8650241  87.6787148  56.1164317
  64.8850012  94.7094997  57.7069988  65.8180012  94.8674997  57.8499988
  64.6210012  95.3844997  57.0819988  64.9769510  94.8223611  57.6420741
  58.4540012  89.3454997  57.1889988  59.3680012  89.4244997  57.4629988
  58.4610012  88.6584997  56.5229988  58.5801131  89.2633961  57.1364393
  57.1030012  94.7384997  62.2669988  56.4560012  94.2764997  61.7339988
  57.4570012  94.0664997  62.8489988  57.0623849  94.5844723  62.2727959
  73.0950012  79.8444997  56.0089988  73.7060012  79.4734997  56.6459988
  72.2590012  79.4234997  56.2049988  73.0655032  79.7367554  56.1227035
  71.4180012  76.9624997  60.0079988  70.7160012  77.5774997  59.7989988
  70.9740012  76.1244997  60.1389988  71.2616330  76.9335783  59.9970328
  58.6660012  92.7254997  59.5549988  57.9810012  92.6874997  58.8869988
  58.6700012  93.6384997  59.8429988  58.5728193  92.8437016  59.5025284
  67.5310012  93.9354997  57.9519988  68.3970012  94.3014997  57.7739988
  67.2840012  93.4954997  57.1379988  67.6162392  93.9261756  57.8176289
  60.4840012  93.6454997  56.5799988  60.2170012  93.9324997  57.4529988
  61.2560012  93.0994997  56.7319988  60.5517488  93.6110294  56.7201050
  86.6380012  83.8374997  57.3029988  87.3390012  83.8594997  57.9539988
  86.9410012  83.2094997  56.6469988  86.7747830  83.7556566  57.3033711
  88.8610012  84.7514997  58.9009988  89.4410012  84.9014997  59.6479988
  89.2750012  85.2224997  58.1779988  88.9962830  84.8356841  58.9054134
  92.5600012  76.5014997  58.7139988  91.6600012  76.6404997  59.0089988
  92.8120012  77.3324997  58.3119988  92.4708702  76.6329074  58.7000205
  93.7490012  90.8674997  57.0899988  93.8230012  91.8064997  57.2609988
  94.6550012  90.5624997  57.0339988  93.8815100  90.9546722  57.1058119
  86.0600012  94.4444997  60.7509988  85.9850012  94.3234997  59.8049988
  86.0930012  95.3944997  60.8699988  86.0541848  94.5562500  60.6374834
  89.1620012  93.5984997  57.7529988  89.5370012  92.8544997  57.2829988
  89.1660012  93.3284997  58.6719988  89.2138915  93.4601486  57.8127824
  90.3390012  85.7844997  56.5309988  90.3810012  85.5614997  55.6009988
  91.1880012  86.1834997  56.7209988  90.4595396  85.8079155  56.4293627
  82.7940012  80.1054997  56.3019988  82.3630012  79.6604997  57.0319988
  82.0760012  80.4774997  55.7899988  82.6379438  80.0948940  56.3326799
  84.7470012  87.4484997  59.6199988  84.0020012  86.9414997  59.2979988
  84.6130012  87.4974997  60.5669988  84.6268776  87.3856940  59.7038647
  88.6450012  80.2624997  57.8199988  87.7060012  80.3744997  57.6679988
  88.9420012  81.1194997  58.1259988  88.5567666  80.3936443  57.8405768
  89.3630012  82.1294997  59.4799988  90.2550012  81.9924997  59.7989988
  89.4200012  82.9204997  58.9439988  89.4926285  82.2176660  59.4511691
  86.8730012  88.9074997  58.6459988  86.5770012  89.7334997  59.0269988
  86.1700012  88.2874997  58.8419988  86.7374914  88.9368199  58.7246443
  94.2480012  82.3394997  59.1749988  93.6940012  81.9434997  58.5029988
  94.3480012  83.2494997  58.8969988  94.1857059  82.4083586  59.0454401
  83.6740012  87.9244997  62.3709988  83.4330012  88.8494997  62.4119988
  82.9330012  87.4654997  62.7669988  83.5408409  87.9891421  62.4301377
  89.9360012  89.1014997  57.4599988  90.2890012  88.7214997  58.2649988
  88.9870012  89.0084997  57.5469988  89.8560441  89.0369596  57.5818559
  94.4390012  93.5814997  57.6609988  95.1830012  94.1674997  57.5209988
  93.7450012  94.1494997  57.9949988  94.4470292  93.7385582  57.6869961
  90.8020012  87.7744997  59.6869988  90.5240012  87.0464997  60.2429988
  91.7290012  87.8934997  59.8919988  90.8893124  87.6908802  59.7908845
  84.0270012  90.2134997  55.9069988  84.2660012  89.4654997  55.3599988
  83.7580012  89.8254997  56.7399988  84.0233675  90.0586638  55.9446865
  82.9640012  89.7834997  58.3639988  83.1100012  89.2634997  59.1539988
  82.9610012  90.6904997  58.6699988  82.9835989  89.8348853  58.5136088
  85.7010012  91.4814997  59.1129988  84.8850012  91.9784997  59.1649988
  86.2310012  91.9564997  58.4729988  85.6609161  91.6137722  59.0335956
  83.0400012  92.5254997  59.0949988  83.2000012  93.3244997  58.5939988
  82.8420012  92.8314997  59.9799988  83.0351649  92.6764469  59.1459815
  86.0650012  92.0764997  56.0459988  85.4210012  91.4454997  56.3669988
  86.8270012  91.5454997  55.8139988  86.0798077  91.9182920  56.0586011
  90.6690012  91.8934997  56.2799988  90.9520012  91.0994997  56.7319988
  91.4090012  92.1264997  55.7189988  90.8077486  91.8162803  56.2660698
  81.6240012  87.8034997  56.1369988  81.6880012  87.0094997  56.6679988
  82.2770012  87.6844997  55.4469988  81.7210241  87.6787148  56.1164317
  86.9760012  88.8504997  55.8729988  86.7070012  89.0304997  56.7739988
  86.7700012  87.9244997  55.7419988  86.9113825  88.7500152  55.9785214
  83.8440012  84.0184997  56.7049988  83.6640012  83.8644997  55.7779988
  84.7940012  84.1264997  56.7499988  83.9477776  84.0120175  56.5841843
  93.2340012  86.3734997  56.1509988  92.9600012  85.9484997  55.3379988
  93.2730012  87.3044997  55.9339988  93.2017699  86.4412484  56.0103610
  83.7410012  94.7094997  57.7069988  84.6740012  94.8674997  57.8499988
  83.4770012  95.3844997  57.0819988  83.8329510  94.8223611  57.6420741
  93.6920012  87.2424997  60.1259988  94.5420012  87.6634997  60.2529988
  93.6980012  86.5024997  60.7329988  93.8091372  87.2000803  60.2254344
  94.0870012  85.2954997  61.9499988  93.3600012  84.8164997  62.3469988
  94.6680012  85.5014997  62.6819988  94.0659375  85.2577090  62.1034129
  94.3550012  85.1964997  58.3409988  93.8330012  85.5534997  57.6219988
  94.3220012  85.8714997  59.0189988  94.2791634  85.3365413  58.3343145
  92.7040012  82.4364997  56.8919988  92.8000012  83.1034997  56.2109988
  92.5640012  81.6204997  56.4099988  92.6982135  82.4174500  56.7338491
  91.9510012  79.8444997  56.0089988  92.5620012  79.4734997  56.6459988
  91.1150012  79.4234997  56.2049988  91.9215032  79.7367554  56.1227035
  92.1970012  78.6624997  61.0229988  92.3800012  78.2134997  61.8489988
  91.5980012  78.0774997  60.5599988  92.1410202  78.5219975  61.0733275
  94.0640012  78.7294997  57.5509988  94.4760012  78.0084997  57.0759988
  94.7460012  79.3994997  57.6099988  94.2125885  78.7212368  57.4938915
  86.3870012  93.9354997  57.9519988  87.2530012  94.3014997  57.7739988
  86.1400012  93.4954997  57.1379988  86.4722392  93.9261756  57.8176289
  93.0960012  93.4984997  60.6309988  92.9010012  92.7504997  60.0659988
  93.0570012  94.2564997  60.0479988  93.0640380  93.4986099  60.4748384
  79.3400012  93.6454997  56.5799988  79.0730012  93.9324997  57.4529988
  80.1120012  93.0994997  56.7319988  79.4077488  93.6110294  56.7201050
 106.5170012  88.7364997  61.8549988 106.2210012  88.4144997  61.0039988
 106.1920012  89.6364997  61.8959988 106.4326371  88.8140215  61.7441801
 105.4940012  83.8374997  57.3029988 106.1950012  83.8594997  57.9539988
 105.7970012  83.2094997  56.6469988 105.6307830  83.7556566  57.3033711
 108.8460012  85.5894997  61.2159988 108.1140012  85.8174997  61.7889988
 109.2940012  84.8754997  61.6709988 108.8063095  85.5242571  61.3559119
 107.7170012  84.7514997  58.9009988 108.2970012  84.9014997  59.6479988
 108.1310012  85.2224997  58.1779988 107.8522830  84.8356841  58.9054134
 111.4160012  76.5014997  58.7139988 110.5160012  76.6404997  59.0089988
 111.6680012  77.3324997  58.3119988 111.3268702  76.6329074  58.7000205
  99.4820012  85.2894997  60.6879988  99.1900012  86.0574997  60.1969988
  98.8080012  84.6294997  60.5249988  99.3509081  85.3054406  60.5987340
 112.6050012  90.8674997  57.0899988 112.6790012  91.8064997  57.2609988
 113.5110012  90.5624997  57.0339988 112.7375100  90.9546722  57.1058119
 108.0180012  93.5984997  57.7529988 108.3930012  92.8544997  57.2829988
 108.0220012  93.3284997  58.6719988 108.0698915  93.4601486  57.8127824
 109.1950012  85.7844997  56.5309988 109.2370012  85.5614997  55.6009988
 110.0440012  86.1834997  56.7209988 109.3155396  85.8079155  56.4293627
 104.7670012  79.6604997  57.2009988 104.5140012  79.6794997  58.1239988
 104.5110012  78.7884997  56.8999988 104.6977790  79.5452437  57.2866263
 101.6500012  80.1054997  56.3019988 101.2190012  79.6604997  57.0319988
 100.9320012  80.4774997  55.7899988 101.4939438  80.0948940  56.3326799
  96.1660012  80.5934997  58.7779988  96.6400012  81.1844997  58.1929988
  95.4490012  81.1244997  59.1249988  96.1339341  80.7460867  58.7448836
 100.2680012  82.8834997  57.6849988  99.7250012  82.5034997  56.9929988
 101.1010012  83.0774997  57.2559988 100.3064399  82.8578124  57.5324526
 103.6030012  87.4484997  59.6199988 102.8580012  86.9414997  59.2979988
 103.4690012  87.4974997  60.5669988 103.4828776  87.3856940  59.7038647
 107.5010012  80.2624997  57.8199988 106.5620012  80.3744997  57.6679988
 107.7980012  81.1194997  58.1259988 107.4127666  80.3936443  57.8405768
 108.2190012  82.1294997  59.4799988 109.1110012  81.9924997  59.7989988
 108.2760012  82.9204997  58.9439988 108.3486285  82.2176660  59.4511691
 105.7290012  88.9074997  58.6459988 105.4330012  89.7334997  59.0269988
 105.0260012  88.2874997  58.8419988 105.5934914  88.9368199  58.7246443
 113.1040012  82.3394997  59.1749988 112.5500012  81.9434997  58.5029988
 113.2040012  83.2494997  58.8969988 113.0417059  82.4083586  59.0454401
 111.3990012  91.1254997  59.6399988 111.0260012  90.2994997  59.9489988
 111.6770012  90.9424997  58.7429988 111.3855630  90.9877303  59.5609626
  96.8580012  85.1234997  57.3809988  97.4740012  85.7504997  57.7609988
  95.9960012  85.4394997  57.6529988  96.8257698  85.2519430  57.4697183
 102.5300012  87.9244997  62.3709988 102.2890012  88.8494997  62.4119988
 101.7890012  87.4654997  62.7669988 102.3968409  87.9891421  62.4301377
 108.7920012  89.1014997  57.4599988 109.1450012  88.7214997  58.2649988
 107.8430012  89.0084997  57.5469988 108.7120441  89.0369596  57.5818559
 113.2950012  93.5814997  57.6609988 114.0390012  94.1674997  57.5209988
 112.6010012  94.1494997  57.9949988 113.3030292  93.7385582  57.6869961
 109.6580012  87.7744997  59.6869988 109.3800012  87.0464997  60.2429988
 110.5850012  87.8934997  59.8919988 109.7453124  87.6908802  59.7908845
 102.8830012  90.2134997  55.9069988 103.1220012  89.4654997  55.3599988
 102.6140012  89.8254997  56.7399988 102.8793675  90.0586638  55.9446865
 101.8200012  89.7834997  58.3639988 101.9660012  89.2634997  59.1539988
 101.8170012  90.6904997  58.6699988 101.8395989  89.8348853  58.5136088
  98.2730012  87.0364997  58.8739988  97.5870012  87.3884997  59.4409988
  98.7950012  87.7994997  58.6269988  98.2496852  87.1878578  58.9182118
 106.8890012  79.3504997  60.2499988 107.1090012  79.8224997  59.4469988
 107.4470012  79.7454997  60.9199988 106.9944968  79.4684285  60.2307331
 101.8960012  92.5254997  59.0949988 102.0560012  93.3244997  58.5939988
 101.6980012  92.8314997  59.9799988 101.8911649  92.6764469  59.1459815
 100.6300012  79.2224997  58.7099988 100.5470012  80.1114997  59.0569988
 101.5200012  78.9574997  58.9419988 100.7389469  79.3081430  58.7887626
  98.8890012  89.6504997  57.7709988  99.4810012  90.3494997  58.0469988
  99.3480012  89.2174997  57.0509988  99.0321142  89.6877049  57.7114830
  97.2050012  82.3144997  56.8869988  97.1600012  83.2534997  57.0649988
  96.3170012  82.0784997  56.6169988  97.0788574  82.4111892  56.8748912
 104.9210012  92.0764997  56.0459988 104.2770012  91.4454997  56.3669988
 105.6830012  91.5454997  55.8139988 104.9358077  91.9182920  56.0586011
 109.5250012  91.8934997  56.2799988 109.8080012  91.0994997  56.7319988
 110.2650012  92.1264997  55.7189988 109.6637486  91.8162803  56.2660698
 100.4800012  87.8034997  56.1369988 100.5440012  87.0094997  56.6679988
 101.1330012  87.6844997  55.4469988 100.5770241  87.6787148  56.1164317
 105.8320012  88.8504997  55.8729988 105.5630012  89.0304997  56.7739988
 105.6260012  87.9244997  55.7419988 105.7673825  88.7500152  55.9785214
 101.6290012  85.7754997  58.4429988 101.1690012  85.2914997  59.1289988
 101.8840012  85.1074997  57.8069988 101.6004902  85.6188731  58.4509334
 102.7000012  84.0184997  56.7049988 102.5200012  83.8644997  55.7779988
 103.6500012  84.1264997  56.7499988 102.8037776  84.0120175  56.5841843
 112.0900012  86.3734997  56.1509988 111.8160012  85.9484997  55.3379988
 112.1290012  87.3044997  55.9339988 112.0577699  86.4412484  56.0103610
 102.5970012  94.7094997  57.7069988 103.5300012  94.8674997  57.8499988
 102.3330012  95.3844997  57.0819988 102.6889510  94.8223611  57.6420741
  96.1660012  89.3454997  57.1889988  97.0800012  89.4244997  57.4629988
  96.1730012  88.6584997  56.5229988  96.2921131  89.2633961  57.1364393
 112.5480012  87.2424997  60.1259988 113.3980012  87.6634997  60.2529988
 112.5540012  86.5024997  60.7329988 112.6651372  87.2000803  60.2254344
 113.2110012  85.1964997  58.3409988 112.6890012  85.5534997  57.6219988
 113.1780012  85.8714997  59.0189988 113.1351634  85.3365413  58.3343145
 111.5600012  82.4364997  56.8919988 111.6560012  83.1034997  56.2109988
 111.4200012  81.6204997  56.4099988 111.5542135  82.4174500  56.7338491
 110.8070012  79.8444997  56.0089988 111.4180012  79.4734997  56.6459988
 109.9710012  79.4234997  56.2049988 110.7775032  79.7367554  56.1227035
 111.0530012  78.6624997  61.0229988 111.2360012  78.2134997  61.8489988
 110.4540012  78.0774997  60.5599988 110.9970202  78.5219975  61.0733275
 112.9200012  78.7294997  57.5509988 113.3320012  78.0084997  57.0759988
 113.6020012  79.3994997  57.6099988 113.0685885  78.7212368  57.4938915
  96.4770012  76.7774997  58.6569988  96.9160012  77.3884997  58.0649988
  95.8440012  77.3154997  59.1309988  96.4514514  76.9339257  58.6400930
 109.1300012  76.9624997  60.0079988 108.4280012  77.5774997  59.7989988
 108.6860012  76.1244997  60.1389988 108.9736330  76.9335783  59.9970328
  98.3380012  78.6934997  57.0989988  98.8300012  78.0634997  56.5719988
  98.9620012  78.9894997  57.7629988  98.4895446  78.6473199  57.1165980
 103.3640012  78.9864997  59.5559988 103.5420012  78.3404997  60.2389988
 103.3110012  79.8204997  60.0239988 103.3811829  79.0107985  59.7125940
 105.2430012  93.9354997  57.9519988 106.1090012  94.3014997  57.7739988
 104.9960012  93.4954997  57.1379988 105.3282392  93.9261756  57.8176289
  98.1960012  93.6454997  56.5799988  97.9290012  93.9324997  57.4529988
  98.9680012  93.0994997  56.7319988  98.2637488  93.6110294  56.7201050
 115.1010012  88.5474997  60.1679988 114.8290012  88.7764997  59.2789988
 115.1470012  89.3854997  60.6279988 115.0700094  88.6921213  60.1085697
 124.2970012  85.3794997  60.2639988 123.5850012  85.9144997  59.9119988
 124.9880012  85.4354997  59.6039988 124.2930132  85.4602543  60.1266289
 124.3500012  83.8374997  57.3029988 125.0510012  83.8594997  57.9539988
 124.6530012  83.2094997  56.6469988 124.4867830  83.7556566  57.3033711
 126.5730012  84.7514997  58.9009988 127.1530012  84.9014997  59.6479988
 126.9870012  85.2224997  58.1779988 126.7082830  84.8356841  58.9054134
 130.2720012  76.5014997  58.7139988 129.3720012  76.6404997  59.0089988
 130.5240012  77.3324997  58.3119988 130.1828702  76.6329074  58.7000205
 131.4610012  90.8674997  57.0899988 131.5350012  91.8064997  57.2609988
 132.3670012  90.5624997  57.0339988 131.5935100  90.9546722  57.1058119
 123.7720012  94.4444997  60.7509988 123.6970012  94.3234997  59.8049988
 123.8050012  95.3944997  60.8699988 123.7661848  94.5562500  60.6374834
 126.8740012  93.5984997  57.7529988 127.2490012  92.8544997  57.2829988
 126.8780012  93.3284997  58.6719988 126.9258915  93.4601486  57.8127824
 126.5430012  93.5244997  60.5029988 125.6070012  93.6244997  60.6809988
 126.8230012  92.8154997  61.0809988 126.4528255  93.4422711  60.6055391
 128.0510012  85.7844997  56.5309988 128.0930012  85.5614997  55.6009988
 128.9000012  86.1834997  56.7209988 128.1715396  85.8079155  56.4293627
 123.6230012  79.6604997  57.2009988 123.3700012  79.6794997  58.1239988
 123.3670012  78.7884997  56.8999988 123.5537790  79.5452437  57.2866263
 120.5060012  80.1054997  56.3019988 120.0750012  79.6604997  57.0319988
 119.7880012  80.4774997  55.7899988 120.3499438  80.0948940  56.3326799
 115.0220012  80.5934997  58.7779988 115.4960012  81.1844997  58.1929988
 114.3050012  81.1244997  59.1249988 114.9899341  80.7460867  58.7448836
 120.4500012  81.6884997  60.1179988 121.3810012  81.8174997  60.2959988
 120.2350012  82.3584997  59.4679988 120.5484247  81.7966565  60.0545747
 119.1240012  82.8834997  57.6849988 118.5810012  82.5034997  56.9929988
 119.9570012  83.0774997  57.2559988 119.1624399  82.8578124  57.5324526
 122.4590012  87.4484997  59.6199988 121.7140012  86.9414997  59.2979988
 122.3250012  87.4974997  60.5669988 122.3388776  87.3856940  59.7038647
 126.3570012  80.2624997  57.8199988 125.4180012  80.3744997  57.6679988
 126.6540012  81.1194997  58.1259988 126.2687666  80.3936443  57.8405768
 127.0750012  82.1294997  59.4799988 127.9670012  81.9924997  59.7989988
 127.1320012  82.9204997  58.9439988 127.2046285  82.2176660  59.4511691
 124.5850012  88.9074997  58.6459988 124.2890012  89.7334997  59.0269988
 123.8820012  88.2874997  58.8419988 124.4494914  88.9368199  58.7246443
 131.9600012  82.3394997  59.1749988 131.4060012  81.9434997  58.5029988
 132.0600012  83.2494997  58.8969988 131.8977059  82.4083586  59.0454401
 130.2550012  91.1254997  59.6399988 129.8820012  90.2994997  59.9489988
 130.5330012  90.9424997  58.7429988 130.2415630  90.9877303  59.5609626
 115.7140012  85.1234997  57.3809988 116.3300012  85.7504997  57.7609988
 114.8520012  85.4394997  57.6529988 115.6817698  85.2519430  57.4697183
 127.6480012  89.1014997  57.4599988 128.0010012  88.7214997  58.2649988
 126.6990012  89.0084997  57.5469988 127.5680441  89.0369596  57.5818559
 132.1510012  93.5814997  57.6609988 132.8950012  94.1674997  57.5209988
 131.4570012  94.1494997  57.9949988 132.1590292  93.7385582  57.6869961
 128.5140012  87.7744997  59.6869988 128.2360012  87.0464997  60.2429988
 129.4410012  87.8934997  59.8919988 128.6013124  87.6908802  59.7908845
 121.7390012  90.2134997  55.9069988 121.9780012  89.4654997  55.3599988
 121.4700012  89.8254997  56.7399988 121.7353675  90.0586638  55.9446865
 120.6760012  89.7834997  58.3639988 120.8220012  89.2634997  59.1539988
 120.6730012  90.6904997  58.6699988 120.6955989  89.8348853  58.5136088
 117.1290012  87.0364997  58.8739988 116.4430012  87.3884997  59.4409988
 117.6510012  87.7994997  58.6269988 117.1056852  87.1878578  58.9182118
 125.7450012  79.3504997  60.2499988 125.9650012  79.8224997  59.4469988
 126.3030012  79.7454997  60.9199988 125.8504968  79.4684285  60.2307331
 123.4130012  91.4814997  59.1129988 122.5970012  91.9784997  59.1649988
 123.9430012  91.9564997  58.4729988 123.3729161  91.6137722  59.0335956
 122.9450012  81.0784997  61.0849988 123.7570012  81.5834997  61.1309988
 122.7000012  80.9334997  61.9989988 123.0230520  81.1280375  61.2148517
 120.7520012  92.5254997  59.0949988 120.9120012  93.3244997  58.5939988
 120.5540012  92.8314997  59.9799988 120.7471649  92.6764469  59.1459815
 119.4860012  79.2224997  58.7099988 119.4030012  80.1114997  59.0569988
 120.3760012  78.9574997  58.9419988 119.5949469  79.3081430  58.7887626
 117.7450012  89.6504997  57.7709988 118.3370012  90.3494997  58.0469988
 118.2040012  89.2174997  57.0509988 117.8881142  89.6877049  57.7114830
 116.0610012  82.3144997  56.8869988 116.0160012  83.2534997  57.0649988
 115.1730012  82.0784997  56.6169988 115.9348574  82.4111892  56.8748912
 115.7990012  91.0364997  61.7199988 114.9670012  91.5094997  61.7479988
 116.3450012  91.5464997  61.1219988 115.7589739  91.1701871  61.6429716
 123.7770012  92.0764997  56.0459988 123.1330012  91.4454997  56.3669988
 124.5390012  91.5454997  55.8139988 123.7918077  91.9182920  56.0586011
 128.3810012  91.8934997  56.2799988 128.6640012  91.0994997  56.7319988
 129.1210012  92.1264997  55.7189988 128.5197486  91.8162803  56.2660698
 119.3360012  87.8034997  56.1369988 119.4000012  87.0094997  56.6679988
 119.9890012  87.6844997  55.4469988 119.4330241  87.6787148  56.1164317
 124.6880012  88.8504997  55.8729988 124.4190012  89.0304997  56.7739988
 124.4820012  87.9244997  55.7419988 124.6233825  88.7500152  55.9785214
 120.4850012  85.7754997  58.4429988 120.0250012  85.2914997  59.1289988
 120.7400012  85.1074997  57.8069988 120.4564902  85.6188731  58.4509334
 121.5560012  84.0184997  56.7049988 121.3760012  83.8644997  55.7779988
 122.5060012  84.1264997  56.7499988 121.6597776  84.0120175  56.5841843
 130.9460012  86.3734997  56.1509988 130.6720012  85.9484997  55.3379988
 130.9850012  87.3044997  55.9339988 130.9137699  86.4412484  56.0103610
 121.4530012  94.7094997  57.7069988 122.3860012  94.8674997  57.8499988
 121.1890012  95.3844997  57.0819988 121.5449510  94.8223611  57.6420741
 115.0220012  89.3454997  57.1889988 115.9360012  89.4244997  57.4629988
 115.0290012  88.6584997  56.5229988 115.1481131  89.2633961  57.1364393
 113.6710012  94.7384997  62.2669988 113.0240012  94.2764997  61.7339988
 114.0250012  94.0664997  62.8489988 113.6303849  94.5844723  62.2727959
 132.0670012  85.1964997  58.3409988 131.5450012  85.5534997  57.6219988
 132.0340012  85.8714997  59.0189988 131.9911634  85.3365413  58.3343145
 130.4160012  82.4364997  56.8919988 130.5120012  83.1034997  56.2109988
 130.2760012  81.6204997  56.4099988 130.4102135  82.4174500  56.7338491
 129.6630012  79.8444997  56.0089988 130.2740012  79.4734997  56.6459988
 128.8270012  79.4234997  56.2049988 129.6335032  79.7367554  56.1227035
 129.9090012  78.6624997  61.0229988 130.0920012  78.2134997  61.8489988
 129.3100012  78.0774997  60.5599988 129.8530202  78.5219975  61.0733275
 131.7760012  78.7294997  57.5509988 132.1880012  78.0084997  57.0759988
 132.4580012  79.3994997  57.6099988 131.9245885  78.7212368  57.4938915
 115.3330012  76.7774997  58.6569988 115.7720012  77.3884997  58.0649988
 114.7000012  77.3154997  59.1309988 115.3074514  76.9339257  58.6400930
 127.9860012  76.9624997  60.0079988 127.2840012  77.5774997  59.7989988
 127.5420012  76.1244997  60.1389988 127.8296330  76.9335783  59.9970328
 115.2340012  92.7254997  59.5549988 114.5490012  92.6874997  58.8869988
 115.2380012  93.6384997  59.8429988 115.1408193  92.8437016  59.5025284
 117.1940012  78.6934997  57.0989988 117.6860012  78.0634997  56.5719988
 117.8180012  78.9894997  57.7629988 117.3455446  78.6473199  57.1165980
 122.2200012  78.9864997  59.5559988 122.3980012  78.3404997  60.2389988
 122.1670012  79.8204997  60.0239988 122.2371829  79.0107985  59.7125940
 124.0990012  93.9354997  57.9519988 124.9650012  94.3014997  57.7739988
 123.8520012  93.4954997  57.1379988 124.1842392  93.9261756  57.8176289
 117.0520012  93.6454997  56.5799988 116.7850012  93.9324997  57.4529988
 117.8240012  93.0994997  56.7319988 117.1197488  93.6110294  56.7201050
 143.1530012  85.3794997  60.2639988 142.4410012  85.9144997  59.9119988
 143.8440012  85.4354997  59.6039988 143.1490132  85.4602543  60.1266289
 143.2060012  83.8374997  57.3029988 143.9070012  83.8594997  57.9539988
 143.5090012  83.2094997  56.6469988 143.3427830  83.7556566  57.3033711
 137.1940012  85.2894997  60.6879988 136.9020012  86.0574997  60.1969988
 136.5200012  84.6294997  60.5249988 137.0629081  85.3054406  60.5987340
 142.4790012  79.6604997  57.2009988 142.2260012  79.6794997  58.1239988
 142.2230012  78.7884997  56.8999988 142.4097790  79.5452437  57.2866263
 139.3620012  80.1054997  56.3019988 138.9310012  79.6604997  57.0319988
 138.6440012  80.4774997  55.7899988 139.2059438  80.0948940  56.3326799
 133.8780012  80.5934997  58.7779988 134.3520012  81.1844997  58.1929988
 133.1610012  81.1244997  59.1249988 133.8459341  80.7460867  58.7448836
 139.3060012  81.6884997  60.1179988 140.2370012  81.8174997  60.2959988
 139.0910012  82.3584997  59.4679988 139.4044247  81.7966565  60.0545747
 137.9800012  82.8834997  57.6849988 137.4370012  82.5034997  56.9929988
 138.8130012  83.0774997  57.2559988 138.0184399  82.8578124  57.5324526
 141.3150012  87.4484997  59.6199988 140.5700012  86.9414997  59.2979988
 141.1810012  87.4974997  60.5669988 141.1948776  87.3856940  59.7038647
 143.4410012  88.9074997  58.6459988 143.1450012  89.7334997  59.0269988
 142.7380012  88.2874997  58.8419988 143.3054914  88.9368199  58.7246443
 134.5700012  85.1234997  57.3809988 135.1860012  85.7504997  57.7609988
 133.7080012  85.4394997  57.6529988 134.5377698  85.2519430  57.4697183
 138.9250012  92.9464997  61.9159988 137.9750012  93.0514997  61.9669988
 139.2770012  93.7664997  62.2609988 138.8424203  93.0718314  61.9696650
 140.5950012  90.2134997  55.9069988 140.8340012  89.4654997  55.3599988
 140.3260012  89.8254997  56.7399988 140.5913675  90.0586638  55.9446865
 139.5320012  89.7834997  58.3639988 139.6780012  89.2634997  59.1539988
 139.5290012  90.6904997  58.6699988 139.5515989  89.8348853  58.5136088
 135.9850012  87.0364997  58.8739988 135.2990012  87.3884997  59.4409988
 136.5070012  87.7994997  58.6269988 135.9616852  87.1878578  58.9182118
 144.6010012  79.3504997  60.2499988 144.8210012  79.8224997  59.4469988
 145.1590012  79.7454997  60.9199988 144.7064968  79.4684285  60.2307331
 142.6840012  78.1594997  62.0229988 142.3380012  78.7774997  62.6679988
 143.3430012  78.6604997  61.5419988 142.7257826  78.3115802  62.0460971
 139.6080012  92.5254997  59.0949988 139.7680012  93.3244997  58.5939988
 139.4100012  92.8314997  59.9799988 139.6031649  92.6764469  59.1459815
 138.3420012  79.2224997  58.7099988 138.2590012  80.1114997  59.0569988
 139.2320012  78.9574997  58.9419988 138.4509469  79.3081430  58.7887626
 136.6010012  89.6504997  57.7709988 137.1930012  90.3494997  58.0469988
 137.0600012  89.2174997  57.0509988 136.7441142  89.6877049  57.7114830
 134.9170012  82.3144997  56.8869988 134.8720012  83.2534997  57.0649988
 134.0290012  82.0784997  56.6169988 134.7908574  82.4111892  56.8748912
 134.6550012  91.0364997  61.7199988 133.8230012  91.5094997  61.7479988
 135.2010012  91.5464997  61.1219988 134.6149739  91.1701871  61.6429716
 142.6330012  92.0764997  56.0459988 141.9890012  91.4454997  56.3669988
 143.3950012  91.5454997  55.8139988 142.6478077  91.9182920  56.0586011
 138.1920012  87.8034997  56.1369988 138.2560012  87.0094997  56.6679988
 138.8450012  87.6844997  55.4469988 138.2890241  87.6787148  56.1164317
 143.5440012  88.8504997  55.8729988 143.2750012  89.0304997  56.7739988
 143.3380012  87.9244997  55.7419988 143.4793825  88.7500152  55.9785214
 139.3410012  85.7754997  58.4429988 138.8810012  85.2914997  59.1289988
 139.5960012  85.1074997  57.8069988 139.3124902  85.6188731  58.4509334
 140.4120012  84.0184997  56.7049988 140.2320012  83.8644997  55.7779988
 141.3620012  84.1264997  56.7499988 140.5157776  84.0120175  56.5841843
 140.3090012  94.7094997  57.7069988 141.2420012  94.8674997  57.8499988
 140.0450012  95.3844997  57.0819988 140.4009510  94.8223611  57.6420741
 133.8780012  89.3454997  57.1889988 134.7920012  89.4244997  57.4629988
 133.8850012  88.6584997  56.5229988 134.0041131  89.2633961  57.1364393
 134.0900012  92.7254997  59.5549988 133.4050012  92.6874997  58.8869988
 134.0940012  93.6384997  59.8429988 133.9968193  92.8437016  59.5025284
 136.0500012  78.6934997  57.0989988 136.5420012  78.0634997  56.5719988
 136.6740012  78.9894997  57.7629988 136.2015446  78.6473199  57.1165980
 141.0760012  78.9864997  59.5559988 141.2540012  78.3404997  60.2389988
 141.0230012  79.8204997  60.0239988 141.0931829  79.0107985  59.7125940
 142.9550012  93.9354997  57.9519988 143.8210012  94.3014997  57.7739988
 142.7080012  93.4954997  57.1379988 143.0402392  93.9261756  57.8176289
 135.9080012  93.6454997  56.5799988 135.6410012  93.9324997  57.4529988
 136.6800012  93.0994997  56.7319988 135.9757488  93.6110294  56.7201050
   1.2740012 101.9714997  61.7519988   0.8270012 102.8174997  61.7329988
   0.7130012 101.3914997  61.2359988   1.1369900 102.0089916  61.6796801
   1.9650012 107.4034997  60.1679988   1.6930012 107.6324997  59.2789988
   2.0110012 108.2414997  60.6279988   1.9340094 107.5481213  60.1085697
  15.0020012 108.7074997  62.0139988  14.7440012 108.0174997  61.4029988
  15.0730012 108.2644997  62.8599988  14.9762856 108.5532124  62.0446885
  11.2140012 102.6934997  57.3029988  11.9150012 102.7154997  57.9539988
  11.5170012 102.0654997  56.6469988  11.3507830 102.6116566  57.3033711
  17.1360012  95.3574997  58.7139988  16.2360012  95.4964997  59.0089988
  17.3880012  96.1884997  58.3119988  17.0468702  95.4889074  58.7000205
   5.2020012 104.1454997  60.6879988   4.9100012 104.9134997  60.1969988
   4.5280012 103.4854997  60.5249988   5.0709081 104.1614406  60.5987340
  18.3250012 109.7234997  57.0899988  18.3990012 110.6624997  57.2609988
  19.2310012 109.4184997  57.0339988  18.4575100 109.8106722  57.1058119
  13.7380012 112.4544997  57.7529988  14.1130012 111.7104997  57.2829988
  13.7420012 112.1844997  58.6719988  13.7898915 112.3161486  57.8127824
  14.9150012 104.6404997  56.5309988  14.9570012 104.4174997  55.6009988
  15.7640012 105.0394997  56.7209988  15.0355396 104.6639155  56.4293627
  10.4870012  98.5164997  57.2009988  10.2340012  98.5354997  58.1239988
  10.2310012  97.6444997  56.8999988  10.4177790  98.4012437  57.2866263
   7.3700012  98.9614997  56.3019988   6.9390012  98.5164997  57.0319988
   6.6520012  99.3334997  55.7899988   7.2139438  98.9508940  56.3326799
   1.8860012  99.4494997  58.7779988   2.3600012 100.0404997  58.1929988
   1.1690012  99.9804997  59.1249988   1.8539341  99.6020867  58.7448836
   7.3140012 100.5444997  60.1179988   8.2450012 100.6734997  60.2959988
   7.0990012 101.2144997  59.4679988   7.4124247 100.6526565  60.0545747
   5.9880012 101.7394997  57.6849988   5.4450012 101.3594997  56.9929988
   6.8210012 101.9334997  57.2559988   6.0264399 101.7138124  57.5324526
  13.2210012  99.1184997  57.8199988  12.2820012  99.2304997  57.6679988
  13.5180012  99.9754997  58.1259988  13.1327666  99.2496443  57.8405768
  13.9390012 100.9854997  59.4799988  14.8310012 100.8484997  59.7989988
  13.9960012 101.7764997  58.9439988  14.0686285 101.0736660  59.4511691
  11.4490012 107.7634997  58.6459988  11.1530012 108.5894997  59.0269988
  10.7460012 107.1434997  58.8419988  11.3134914 107.7928199  58.7246443
  18.8240012 101.1954997  59.1749988  18.2700012 100.7994997  58.5029988
  18.9240012 102.1054997  58.8969988  18.7617059 101.2643586  59.0454401
   2.5780012 103.9794997  57.3809988   3.1940012 104.6064997  57.7609988
   1.7160012 104.2954997  57.6529988   2.5457698 104.1079430  57.4697183
   6.9330012 111.8024997  61.9159988   5.9830012 111.9074997  61.9669988
   7.2850012 112.6224997  62.2609988   6.8504203 111.9278314  61.9696650
  14.5120012 107.9574997  57.4599988  14.8650012 107.5774997  58.2649988
  13.5630012 107.8644997  57.5469988  14.4320441 107.8929596  57.5818559
  19.0150012 112.4374997  57.6609988  19.7590012 113.0234997  57.5209988
  18.3210012 113.0054997  57.9949988  19.0230292 112.5945582  57.6869961
  15.3780012 106.6304997  59.6869988  15.1000012 105.9024997  60.2429988
  16.3050012 106.7494997  59.8919988  15.4653124 106.5468802  59.7908845
   8.6030012 109.0694997  55.9069988   8.8420012 108.3214997  55.3599988
   8.3340012 108.6814997  56.7399988   8.5993675 108.9146638  55.9446865
   7.5400012 108.6394997  58.3639988   7.6860012 108.1194997  59.1539988
   7.5370012 109.5464997  58.6699988   7.5595989 108.6908853  58.5136088
   3.9930012 105.8924997  58.8739988   3.3070012 106.2444997  59.4409988
   4.5150012 106.6554997  58.6269988   3.9696852 106.0438578  58.9182118
  12.6090012  98.2064997  60.2499988  12.8290012  98.6784997  59.4469988
  13.1670012  98.6014997  60.9199988  12.7144968  98.3244285  60.2307331
  10.2770012 110.3374997  59.1129988   9.4610012 110.8344997  59.1649988
  10.8070012 110.8124997  58.4729988  10.2369161 110.4697722  59.0335956
  10.6920012  97.0154997  62.0229988  10.3460012  97.6334997  62.6679988
  11.3510012  97.5164997  61.5419988  10.7337826  97.1675802  62.0460971
   7.6160012 111.3814997  59.0949988   7.7760012 112.1804997  58.5939988
   7.4180012 111.6874997  59.9799988   7.6111649 111.5324469  59.1459815
   6.3500012  98.0784997  58.7099988   6.2670012  98.9674997  59.0569988
   7.2400012  97.8134997  58.9419988   6.4589469  98.1641430  58.7887626
   4.6090012 108.5064997  57.7709988   5.2010012 109.2054997  58.0469988
   5.0680012 108.0734997  57.0509988   4.7521142 108.5437049  57.7114830
   2.9250012 101.1704997  56.8869988   2.8800012 102.1094997  57.0649988
   2.0370012 100.9344997  56.6169988   2.7988574 101.2671892  56.8748912
   2.6630012 109.8924997  61.7199988   1.8310012 110.3654997  61.7479988
   3.2090012 110.4024997  61.1219988   2.6229739 110.0261871  61.6429716
  10.6410012 110.9324997  56.0459988   9.9970012 110.3014997  56.3669988
  11.4030012 110.4014997  55.8139988  10.6558077 110.7742920  56.0586011
  15.2450012 110.7494997  56.2799988  15.5280012 109.9554997  56.7319988
  15.9850012 110.9824997  55.7189988  15.3837486 110.6722803  56.2660698
   6.2000012 106.6594997  56.1369988   6.2640012 105.8654997  56.6679988
   6.8530012 106.5404997  55.4469988   6.2970241 106.5347148  56.1164317
  11.5520012 107.7064997  55.8729988  11.2830012 107.8864997  56.7739988
  11.3460012 106.7804997  55.7419988  11.4873825 107.6060152  55.9785214
   7.3490012 104.6314997  58.4429988   6.8890012 104.1474997  59.1289988
   7.6040012 103.9634997  57.8069988   7.3204902 104.4748731  58.4509334
   8.4200012 102.8744997  56.7049988   8.2400012 102.7204997  55.7779988
   9.3700012 102.9824997  56.7499988   8.5237776 102.8680175  56.5841843
  17.8100012 105.2294997  56.1509988  17.5360012 104.8044997  55.3379988
  17.8490012 106.1604997  55.9339988  17.7777699 105.2972484  56.0103610
   8.3170012 113.5654997  57.7069988   9.2500012 113.7234997  57.8499988
   8.0530012 114.2404997  57.0819988   8.4089510 113.6783611  57.6420741
   1.8860012 108.2014997  57.1889988   2.8000012 108.2804997  57.4629988
   1.8930012 107.5144997  56.5229988   2.0121131 108.1193961  57.1364393
  18.9310012 104.0524997  58.3409988  18.4090012 104.4094997  57.6219988
  18.8980012 104.7274997  59.0189988  18.8551634 104.1925413  58.3343145
  17.2800012 101.2924997  56.8919988  17.3760012 101.9594997  56.2109988
  17.1400012 100.4764997  56.4099988  17.2742135 101.2734500  56.7338491
  16.5270012  98.7004997  56.0089988  17.1380012  98.3294997  56.6459988
  15.6910012  98.2794997  56.2049988  16.4975032  98.5927554  56.1227035
  16.1600012 100.2554997  60.9749988  16.4400012  99.3484997  61.0989988
  16.9190012 100.6894997  60.5859988  16.3009277 100.1900942  60.9393682
  16.7730012  97.5184997  61.0229988  16.9560012  97.0694997  61.8489988
  16.1740012  96.9334997  60.5599988  16.7170202  97.3779975  61.0733275
  18.6400012  97.5854997  57.5509988  19.0520012  96.8644997  57.0759988
  19.3220012  98.2554997  57.6099988  18.7885885  97.5772368  57.4938915
   2.1970012  95.6334997  58.6569988   2.6360012  96.2444997  58.0649988
   1.5640012  96.1714997  59.1309988   2.1714514  95.7899257  58.6400930
   2.0980012 111.5814997  59.5549988   1.4130012 111.5434997  58.8869988
   2.1020012 112.4944997  59.8429988   2.0048193 111.6997016  59.5025284
   4.0580012  97.5494997  57.0989988   4.5500012  96.9194997  56.5719988
   4.6820012  97.8454997  57.7629988   4.2095446  97.5033199  57.1165980
   9.0840012  97.8424997  59.5559988   9.2620012  97.1964997  60.2389988
   9.0310012  98.6764997  60.0239988   9.1011829  97.8667985  59.7125940
  10.9630012 112.7914997  57.9519988  11.8290012 113.1574997  57.7739988
  10.7160012 112.3514997  57.1379988  11.0482392 112.7821756  57.8176289
   3.9160012 112.5014997  56.5799988   3.6490012 112.7884997  57.4529988
   4.6880012 111.9554997  56.7319988   3.9837488 112.4670294  56.7201050
  30.0700012 102.6934997  57.3029988  30.7710012 102.7154997  57.9539988
  30.3730012 102.0654997  56.6469988  30.2067830 102.6116566  57.3033711
  32.2930012 103.6074997  58.9009988  32.8730012 103.7574997  59.6479988
  32.7070012 104.0784997  58.1779988  32.4282830 103.6916841  58.9054134
  30.0200012 110.3444997  62.3359988  30.4940012 110.6394997  63.1139988
  29.4570012 111.0824997  62.1029988  30.0087653 110.4846932  62.4110136
  35.9920012  95.3574997  58.7139988  35.0920012  95.4964997  59.0089988
  36.2440012  96.1884997  58.3119988  35.9028702  95.4889074  58.7000205
  37.1810012 109.7234997  57.0899988  37.2550012 110.6624997  57.2609988
  38.0870012 109.4184997  57.0339988  37.3135100 109.8106722  57.1058119
  29.4920012 113.3004997  60.7509988  29.4170012 113.1794997  59.8049988
  29.5250012 114.2504997  60.8699988  29.4861848 113.4122500  60.6374834
  32.5940012 112.4544997  57.7529988  32.9690012 111.7104997  57.2829988
  32.5980012 112.1844997  58.6719988  32.6458915 112.3161486  57.8127824
  32.2630012 112.3804997  60.5029988  31.3270012 112.4804997  60.6809988
  32.5430012 111.6714997  61.0809988  32.1728255 112.2982711  60.6055391
  33.7710012 104.6404997  56.5309988  33.8130012 104.4174997  55.6009988
  34.6200012 105.0394997  56.7209988  33.8915396 104.6639155  56.4293627
  29.3430012  98.5164997  57.2009988  29.0900012  98.5354997  58.1239988
  29.0870012  97.6444997  56.8999988  29.2737790  98.4012437  57.2866263
  26.2260012  98.9614997  56.3019988  25.7950012  98.5164997  57.0319988
  25.5080012  99.3334997  55.7899988  26.0699438  98.9508940  56.3326799
  20.7420012  99.4494997  58.7779988  21.2160012 100.0404997  58.1929988
  20.0250012  99.9804997  59.1249988  20.7099341  99.6020867  58.7448836
  26.1700012 100.5444997  60.1179988  27.1010012 100.6734997  60.2959988
  25.9550012 101.2144997  59.4679988  26.2684247 100.6526565  60.0545747
  24.8440012 101.7394997  57.6849988  24.3010012 101.3594997  56.9929988
  25.6770012 101.9334997  57.2559988  24.8824399 101.7138124  57.5324526
  32.0770012  99.1184997  57.8199988  31.1380012  99.2304997  57.6679988
  32.3740012  99.9754997  58.1259988  31.9887666  99.2496443  57.8405768
  30.3050012 107.7634997  58.6459988  30.0090012 108.5894997  59.0269988
  29.6020012 107.1434997  58.8419988  30.1694914 107.7928199  58.7246443
  35.9750012 109.9814997  59.6399988  35.6020012 109.1554997  59.9489988
  36.2530012 109.7984997  58.7429988  35.9615630 109.8437303  59.5609626
  21.4340012 103.9794997  57.3809988  22.0500012 104.6064997  57.7609988
  20.5720012 104.2954997  57.6529988  21.4017698 104.1079430  57.4697183
  33.3680012 107.9574997  57.4599988  33.7210012 107.5774997  58.2649988
  32.4190012 107.8644997  57.5469988  33.2880441 107.8929596  57.5818559
  37.8710012 112.4374997  57.6609988  38.6150012 113.0234997  57.5209988
  37.1770012 113.0054997  57.9949988  37.8790292 112.5945582  57.6869961
  34.2340012 106.6304997  59.6869988  33.9560012 105.9024997  60.2429988
  35.1610012 106.7494997  59.8919988  34.3213124 106.5468802  59.7908845
  27.4590012 109.0694997  55.9069988  27.6980012 108.3214997  55.3599988
  27.1900012 108.6814997  56.7399988  27.4553675 108.9146638  55.9446865
  26.3960012 108.6394997  58.3639988  26.5420012 108.1194997  59.1539988
  26.3930012 109.5464997  58.6699988  26.4155989 108.6908853  58.5136088
  22.8490012 105.8924997  58.8739988  22.1630012 106.2444997  59.4409988
  23.3710012 106.6554997  58.6269988  22.8256852 106.0438578  58.9182118
  29.1330012 110.3374997  59.1129988  28.3170012 110.8344997  59.1649988
  29.6630012 110.8124997  58.4729988  29.0929161 110.4697722  59.0335956
  26.4720012 111.3814997  59.0949988  26.6320012 112.1804997  58.5939988
  26.2740012 111.6874997  59.9799988  26.4671649 111.5324469  59.1459815
  25.2060012  98.0784997  58.7099988  25.1230012  98.9674997  59.0569988
  26.0960012  97.8134997  58.9419988  25.3149469  98.1641430  58.7887626
  23.4650012 108.5064997  57.7709988  24.0570012 109.2054997  58.0469988
  23.9240012 108.0734997  57.0509988  23.6081142 108.5437049  57.7114830
  21.7810012 101.1704997  56.8869988  21.7360012 102.1094997  57.0649988
  20.8930012 100.9344997  56.6169988  21.6548574 101.2671892  56.8748912
  29.4970012 110.9324997  56.0459988  28.8530012 110.3014997  56.3669988
  30.2590012 110.4014997  55.8139988  29.5118077 110.7742920  56.0586011
  34.1010012 110.7494997  56.2799988  34.3840012 109.9554997  56.7319988
  34.8410012 110.9824997  55.7189988  34.2397486 110.6722803  56.2660698
  25.0560012 106.6594997  56.1369988  25.1200012 105.8654997  56.6679988
  25.7090012 106.5404997  55.4469988  25.1530241 106.5347148  56.1164317
  30.4080012 107.7064997  55.8729988  30.1390012 107.8864997  56.7739988
  30.2020012 106.7804997  55.7419988  30.3433825 107.6060152  55.9785214
  26.2050012 104.6314997  58.4429988  25.7450012 104.1474997  59.1289988
  26.4600012 103.9634997  57.8069988  26.1764902 104.4748731  58.4509334
  27.2760012 102.8744997  56.7049988  27.0960012 102.7204997  55.7779988
  28.2260012 102.9824997  56.7499988  27.3797776 102.8680175  56.5841843
  36.6660012 105.2294997  56.1509988  36.3920012 104.8044997  55.3379988
  36.7050012 106.1604997  55.9339988  36.6337699 105.2972484  56.0103610
  27.1730012 113.5654997  57.7069988  28.1060012 113.7234997  57.8499988
  26.9090012 114.2404997  57.0819988  27.2649510 113.6783611  57.6420741
  20.7420012 108.2014997  57.1889988  21.6560012 108.2804997  57.4629988
  20.7490012 107.5144997  56.5229988  20.8681131 108.1193961  57.1364393
  19.3910012 113.5944997  62.2669988  18.7440012 113.1324997  61.7339988
  19.7450012 112.9224997  62.8489988  19.3503849 113.4404723  62.2727959
  37.1240012 106.0984997  60.1259988  37.9740012 106.5194997  60.2529988
  37.1300012 105.3584997  60.7329988  37.2411372 106.0560803  60.2254344
  37.7870012 104.0524997  58.3409988  37.2650012 104.4094997  57.6219988
  37.7540012 104.7274997  59.0189988  37.7111634 104.1925413  58.3343145
  36.1360012 101.2924997  56.8919988  36.2320012 101.9594997  56.2109988
  35.9960012 100.4764997  56.4099988  36.1302135 101.2734500  56.7338491
  35.3830012  98.7004997  56.0089988  35.9940012  98.3294997  56.6459988
  34.5470012  98.2794997  56.2049988  35.3535032  98.5927554  56.1227035
  35.6290012  97.5184997  61.0229988  35.8120012  97.0694997  61.8489988
  35.0300012  96.9334997  60.5599988  35.5730202  97.3779975  61.0733275
  37.4960012  97.5854997  57.5509988  37.9080012  96.8644997  57.0759988
  38.1780012  98.2554997  57.6099988  37.6445885  97.5772368  57.4938915
  21.0530012  95.6334997  58.6569988  21.4920012  96.2444997  58.0649988
  20.4200012  96.1714997  59.1309988  21.0274514  95.7899257  58.6400930
  33.7060012  95.8184997  60.0079988  33.0040012  96.4334997  59.7989988
  33.2620012  94.9804997  60.1389988  33.5496330  95.7895783  59.9970328
  20.9540012 111.5814997  59.5549988  20.2690012 111.5434997  58.8869988
  20.9580012 112.4944997  59.8429988  20.8608193 111.6997016  59.5025284
  22.9140012  97.5494997  57.0989988  23.4060012  96.9194997  56.5719988
  23.5380012  97.8454997  57.7629988  23.0655446  97.5033199  57.1165980
  29.8190012 112.7914997  57.9519988  30.6850012 113.1574997  57.7739988
  29.5720012 112.3514997  57.1379988  29.9042392 112.7821756  57.8176289
  22.7720012 112.5014997  56.5799988  22.5050012 112.7884997  57.4529988
  23.5440012 111.9554997  56.7319988  22.8397488 112.4670294  56.7201050
  38.9860012 101.9714997  61.7519988  38.5390012 102.8174997  61.7329988
  38.4250012 101.3914997  61.2359988  38.8489900 102.0089916  61.6796801
  49.9490012 107.5924997  61.8549988  49.6530012 107.2704997  61.0039988
  49.6240012 108.4924997  61.8959988  49.8646371 107.6700215  61.7441801
  52.7140012 108.7074997  62.0139988  52.4560012 108.0174997  61.4029988
  52.7850012 108.2644997  62.8599988  52.6882856 108.5532124  62.0446885
  48.9260012 102.6934997  57.3029988  49.6270012 102.7154997  57.9539988
  49.2290012 102.0654997  56.6469988  49.0627830 102.6116566  57.3033711
  54.8480012  95.3574997  58.7139988  53.9480012  95.4964997  59.0089988
  55.1000012  96.1884997  58.3119988  54.7588702  95.4889074  58.7000205
  42.9140012 104.1454997  60.6879988  42.6220012 104.9134997  60.1969988
  42.2400012 103.4854997  60.5249988  42.7829081 104.1614406  60.5987340
  56.0370012 109.7234997  57.0899988  56.1110012 110.6624997  57.2609988
  56.9430012 109.4184997  57.0339988  56.1695100 109.8106722  57.1058119
  51.4500012 112.4544997  57.7529988  51.8250012 111.7104997  57.2829988
  51.4540012 112.1844997  58.6719988  51.5018915 112.3161486  57.8127824
  52.6270012 104.6404997  56.5309988  52.6690012 104.4174997  55.6009988
  53.4760012 105.0394997  56.7209988  52.7475396 104.6639155  56.4293627
  48.1990012  98.5164997  57.2009988  47.9460012  98.5354997  58.1239988
  47.9430012  97.6444997  56.8999988  48.1297790  98.4012437  57.2866263
  45.0820012  98.9614997  56.3019988  44.6510012  98.5164997  57.0319988
  44.3640012  99.3334997  55.7899988  44.9259438  98.9508940  56.3326799
  39.5980012  99.4494997  58.7779988  40.0720012 100.0404997  58.1929988
  38.8810012  99.9804997  59.1249988  39.5659341  99.6020867  58.7448836
  45.0260012 100.5444997  60.1179988  45.9570012 100.6734997  60.2959988
  44.8110012 101.2144997  59.4679988  45.1244247 100.6526565  60.0545747
  43.7000012 101.7394997  57.6849988  43.1570012 101.3594997  56.9929988
  44.5330012 101.9334997  57.2559988  43.7384399 101.7138124  57.5324526
  47.0350012 106.3044997  59.6199988  46.2900012 105.7974997  59.2979988
  46.9010012 106.3534997  60.5669988  46.9148776 106.2416940  59.7038647
  50.9330012  99.1184997  57.8199988  49.9940012  99.2304997  57.6679988
  51.2300012  99.9754997  58.1259988  50.8447666  99.2496443  57.8405768
  49.1610012 107.7634997  58.6459988  48.8650012 108.5894997  59.0269988
  48.4580012 107.1434997  58.8419988  49.0254914 107.7928199  58.7246443
  56.5360012 101.1954997  59.1749988  55.9820012 100.7994997  58.5029988
  56.6360012 102.1054997  58.8969988  56.4737059 101.2643586  59.0454401
  54.8310012 109.9814997  59.6399988  54.4580012 109.1554997  59.9489988
  55.1090012 109.7984997  58.7429988  54.8175630 109.8437303  59.5609626
  40.2900012 103.9794997  57.3809988  40.9060012 104.6064997  57.7609988
  39.4280012 104.2954997  57.6529988  40.2577698 104.1079430  57.4697183
  52.2240012 107.9574997  57.4599988  52.5770012 107.5774997  58.2649988
  51.2750012 107.8644997  57.5469988  52.1440441 107.8929596  57.5818559
  56.7270012 112.4374997  57.6609988  57.4710012 113.0234997  57.5209988
  56.0330012 113.0054997  57.9949988  56.7350292 112.5945582  57.6869961
  53.0900012 106.6304997  59.6869988  52.8120012 105.9024997  60.2429988
  54.0170012 106.7494997  59.8919988  53.1773124 106.5468802  59.7908845
  46.3150012 109.0694997  55.9069988  46.5540012 108.3214997  55.3599988
  46.0460012 108.6814997  56.7399988  46.3113675 108.9146638  55.9446865
  45.2520012 108.6394997  58.3639988  45.3980012 108.1194997  59.1539988
  45.2490012 109.5464997  58.6699988  45.2715989 108.6908853  58.5136088
  41.7050012 105.8924997  58.8739988  41.0190012 106.2444997  59.4409988
  42.2270012 106.6554997  58.6269988  41.6816852 106.0438578  58.9182118
  50.3210012  98.2064997  60.2499988  50.5410012  98.6784997  59.4469988
  50.8790012  98.6014997  60.9199988  50.4264968  98.3244285  60.2307331
  47.9890012 110.3374997  59.1129988  47.1730012 110.8344997  59.1649988
  48.5190012 110.8124997  58.4729988  47.9489161 110.4697722  59.0335956
  47.5210012  99.9344997  61.0849988  48.3330012 100.4394997  61.1309988
  47.2760012  99.7894997  61.9989988  47.5990520  99.9840375  61.2148517
  48.4040012  97.0154997  62.0229988  48.0580012  97.6334997  62.6679988
  49.0630012  97.5164997  61.5419988  48.4457826  97.1675802  62.0460971
  45.3280012 111.3814997  59.0949988  45.4880012 112.1804997  58.5939988
  45.1300012 111.6874997  59.9799988  45.3231649 111.5324469  59.1459815
  44.0620012  98.0784997  58.7099988  43.9790012  98.9674997  59.0569988
  44.9520012  97.8134997  58.9419988  44.1709469  98.1641430  58.7887626
  42.3210012 108.5064997  57.7709988  42.9130012 109.2054997  58.0469988
  42.7800012 108.0734997  57.0509988  42.4641142 108.5437049  57.7114830
  40.6370012 101.1704997  56.8869988  40.5920012 102.1094997  57.0649988
  39.7490012 100.9344997  56.6169988  40.5108574 101.2671892  56.8748912
  48.3530012 110.9324997  56.0459988  47.7090012 110.3014997  56.3669988
  49.1150012 110.4014997  55.8139988  48.3678077 110.7742920  56.0586011
  52.9570012 110.7494997  56.2799988  53.2400012 109.9554997  56.7319988
  53.6970012 110.9824997  55.7189988  53.0957486 110.6722803  56.2660698
  43.9120012 106.6594997  56.1369988  43.9760012 105.8654997  56.6679988
  44.5650012 106.5404997  55.4469988  44.0090241 106.5347148  56.1164317
  49.2640012 107.7064997  55.8729988  48.9950012 107.8864997  56.7739988
  49.0580012 106.7804997  55.7419988  49.1993825 107.6060152  55.9785214
  45.0610012 104.6314997  58.4429988  44.6010012 104.1474997  59.1289988
  45.3160012 103.9634997  57.8069988  45.0324902 104.4748731  58.4509334
  46.1320012 102.8744997  56.7049988  45.9520012 102.7204997  55.7779988
  47.0820012 102.9824997  56.7499988  46.2357776 102.8680175  56.5841843
  55.5220012 105.2294997  56.1509988  55.2480012 104.8044997  55.3379988
  55.5610012 106.1604997  55.9339988  55.4897699 105.2972484  56.0103610
  46.0290012 113.5654997  57.7069988  46.9620012 113.7234997  57.8499988
  45.7650012 114.2404997  57.0819988  46.1209510 113.6783611  57.6420741
  39.5980012 108.2014997  57.1889988  40.5120012 108.2804997  57.4629988
  39.6050012 107.5144997  56.5229988  39.7241131 108.1193961  57.1364393
  56.6430012 104.0524997  58.3409988  56.1210012 104.4094997  57.6219988
  56.6100012 104.7274997  59.0189988  56.5671634 104.1925413  58.3343145
  54.9920012 101.2924997  56.8919988  55.0880012 101.9594997  56.2109988
  54.8520012 100.4764997  56.4099988  54.9862135 101.2734500  56.7338491
  54.2390012  98.7004997  56.0089988  54.8500012  98.3294997  56.6459988
  53.4030012  98.2794997  56.2049988  54.2095032  98.5927554  56.1227035
  53.8720012 100.2554997  60.9749988  54.1520012  99.3484997  61.0989988
  54.6310012 100.6894997  60.5859988  54.0129277 100.1900942  60.9393682
  54.4850012  97.5184997  61.0229988  54.6680012  97.0694997  61.8489988
  53.8860012  96.9334997  60.5599988  54.4290202  97.3779975  61.0733275
  56.3520012  97.5854997  57.5509988  56.7640012  96.8644997  57.0759988
  57.0340012  98.2554997  57.6099988  56.5005885  97.5772368  57.4938915
  38.6330012  97.5904997  60.6779988  37.7080012  97.7994997  60.5489988
  39.0870012  98.0744997  59.9889988  38.5677368  97.6845993  60.5671226
  39.9090012  95.6334997  58.6569988  40.3480012  96.2444997  58.0649988
  39.2760012  96.1714997  59.1309988  39.8834514  95.7899257  58.6400930
  39.8100012 111.5814997  59.5549988  39.1250012 111.5434997  58.8869988
  39.8140012 112.4944997  59.8429988  39.7168193 111.6997016  59.5025284
  41.7700012  97.5494997  57.0989988  42.2620012  96.9194997  56.5719988
  42.3940012  97.8454997  57.7629988  41.9215446  97.5033199  57.1165980
  46.7960012  97.8424997  59.5559988  46.9740012  97.1964997  60.2389988
  46.7430012  98.6764997  60.0239988  46.8131829  97.8667985  59.7125940
  48.6750012 112.7914997  57.9519988  49.5410012 113.1574997  57.7739988
  48.4280012 112.3514997  57.1379988  48.7602392 112.7821756  57.8176289
  55.3840012 112.3544997  60.6309988  55.1890012 111.6064997  60.0659988
  55.3450012 113.1124997  60.0479988  55.3520380 112.3546099  60.4748384
  41.6280012 112.5014997  56.5799988  41.3610012 112.7884997  57.4529988
  42.4000012 111.9554997  56.7319988  41.6957488 112.4670294  56.7201050
  67.7290012 104.2354997  60.2639988  67.0170012 104.7704997  59.9119988
  68.4200012 104.2914997  59.6039988  67.7250132 104.3162543  60.1266289
  67.7820012 102.6934997  57.3029988  68.4830012 102.7154997  57.9539988
  68.0850012 102.0654997  56.6469988  67.9187830 102.6116566  57.3033711
  70.0050012 103.6074997  58.9009988  70.5850012 103.7574997  59.6479988
  70.4190012 104.0784997  58.1779988  70.1402830 103.6916841  58.9054134
  73.7040012  95.3574997  58.7139988  72.8040012  95.4964997  59.0089988
  73.9560012  96.1884997  58.3119988  73.6148702  95.4889074  58.7000205
  61.7700012 104.1454997  60.6879988  61.4780012 104.9134997  60.1969988
  61.0960012 103.4854997  60.5249988  61.6389081 104.1614406  60.5987340
  74.8930012 109.7234997  57.0899988  74.9670012 110.6624997  57.2609988
  75.7990012 109.4184997  57.0339988  75.0255100 109.8106722  57.1058119
  70.3060012 112.4544997  57.7529988  70.6810012 111.7104997  57.2829988
  70.3100012 112.1844997  58.6719988  70.3578915 112.3161486  57.8127824
  69.9750012 112.3804997  60.5029988  69.0390012 112.4804997  60.6809988
  70.2550012 111.6714997  61.0809988  69.8848255 112.2982711  60.6055391
  71.4830012 104.6404997  56.5309988  71.5250012 104.4174997  55.6009988
  72.3320012 105.0394997  56.7209988  71.6035396 104.6639155  56.4293627
  67.0550012  98.5164997  57.2009988  66.8020012  98.5354997  58.1239988
  66.7990012  97.6444997  56.8999988  66.9857790  98.4012437  57.2866263
  63.9380012  98.9614997  56.3019988  63.5070012  98.5164997  57.0319988
  63.2200012  99.3334997  55.7899988  63.7819438  98.9508940  56.3326799
  58.4540012  99.4494997  58.7779988  58.9280012 100.0404997  58.1929988
  57.7370012  99.9804997  59.1249988  58.4219341  99.6020867  58.7448836
  63.8820012 100.5444997  60.1179988  64.8130012 100.6734997  60.2959988
  63.6670012 101.2144997  59.4679988  63.9804247 100.6526565  60.0545747
  62.5560012 101.7394997  57.6849988  62.0130012 101.3594997  56.9929988
  63.3890012 101.9334997  57.2559988  62.5944399 101.7138124  57.5324526
  65.8910012 106.3044997  59.6199988  65.1460012 105.7974997  59.2979988
  65.7570012 106.3534997  60.5669988  65.7708776 106.2416940  59.7038647
  69.7890012  99.1184997  57.8199988  68.8500012  99.2304997  57.6679988
  70.0860012  99.9754997  58.1259988  69.7007666  99.2496443  57.8405768
  70.5070012 100.9854997  59.4799988  71.3990012 100.8484997  59.7989988
  70.5640012 101.7764997  58.9439988  70.6366285 101.0736660  59.4511691
  68.0170012 107.7634997  58.6459988  67.7210012 108.5894997  59.0269988
  67.3140012 107.1434997  58.8419988  67.8814914 107.7928199  58.7246443
  59.1460012 103.9794997  57.3809988  59.7620012 104.6064997  57.7609988
  58.2840012 104.2954997  57.6529988  59.1137698 104.1079430  57.4697183
  71.0800012 107.9574997  57.4599988  71.4330012 107.5774997  58.2649988
  70.1310012 107.8644997  57.5469988  71.0000441 107.8929596  57.5818559
  75.5830012 112.4374997  57.6609988  76.3270012 113.0234997  57.5209988
  74.8890012 113.0054997  57.9949988  75.5910292 112.5945582  57.6869961
  65.1710012 109.0694997  55.9069988  65.4100012 108.3214997  55.3599988
  64.9020012 108.6814997  56.7399988  65.1673675 108.9146638  55.9446865
  64.1080012 108.6394997  58.3639988  64.2540012 108.1194997  59.1539988
  64.1050012 109.5464997  58.6699988  64.1275989 108.6908853  58.5136088
  60.5610012 105.8924997  58.8739988  59.8750012 106.2444997  59.4409988
  61.0830012 106.6554997  58.6269988  60.5376852 106.0438578  58.9182118
  69.1770012  98.2064997  60.2499988  69.3970012  98.6784997  59.4469988
  69.7350012  98.6014997  60.9199988  69.2824968  98.3244285  60.2307331
  66.8450012 110.3374997  59.1129988  66.0290012 110.8344997  59.1649988
  67.3750012 110.8124997  58.4729988  66.8049161 110.4697722  59.0335956
  64.1840012 111.3814997  59.0949988  64.3440012 112.1804997  58.5939988
  63.9860012 111.6874997  59.9799988  64.1791649 111.5324469  59.1459815
  62.9180012  98.0784997  58.7099988  62.8350012  98.9674997  59.0569988
  63.8080012  97.8134997  58.9419988  63.0269469  98.1641430  58.7887626
  61.1770012 108.5064997  57.7709988  61.7690012 109.2054997  58.0469988
  61.6360012 108.0734997  57.0509988  61.3201142 108.5437049  57.7114830
  59.4930012 101.1704997  56.8869988  59.4480012 102.1094997  57.0649988
  58.6050012 100.9344997  56.6169988  59.3668574 101.2671892  56.8748912
  67.2090012 110.9324997  56.0459988  66.5650012 110.3014997  56.3669988
  67.9710012 110.4014997  55.8139988  67.2238077 110.7742920  56.0586011
  71.8130012 110.7494997  56.2799988  72.0960012 109.9554997  56.7319988
  72.5530012 110.9824997  55.7189988  71.9517486 110.6722803  56.2660698
  62.7680012 106.6594997  56.1369988  62.8320012 105.8654997  56.6679988
  63.4210012 106.5404997  55.4469988  62.8650241 106.5347148  56.1164317
  68.1200012 107.7064997  55.8729988  67.8510012 107.8864997  56.7739988
  67.9140012 106.7804997  55.7419988  68.0553825 107.6060152  55.9785214
  63.9170012 104.6314997  58.4429988  63.4570012 104.1474997  59.1289988
  64.1720012 103.9634997  57.8069988  63.8884902 104.4748731  58.4509334
  64.9880012 102.8744997  56.7049988  64.8080012 102.7204997  55.7779988
  65.9380012 102.9824997  56.7499988  65.0917776 102.8680175  56.5841843
  74.3780012 105.2294997  56.1509988  74.1040012 104.8044997  55.3379988
  74.4170012 106.1604997  55.9339988  74.3457699 105.2972484  56.0103610
  64.8850012 113.5654997  57.7069988  65.8180012 113.7234997  57.8499988
  64.6210012 114.2404997  57.0819988  64.9769510 113.6783611  57.6420741
  58.4540012 108.2014997  57.1889988  59.3680012 108.2804997  57.4629988
  58.4610012 107.5144997  56.5229988  58.5801131 108.1193961  57.1364393
  74.8360012 106.0984997  60.1259988  75.6860012 106.5194997  60.2529988
  74.8420012 105.3584997  60.7329988  74.9531372 106.0560803  60.2254344
  75.4990012 104.0524997  58.3409988  74.9770012 104.4094997  57.6219988
  75.4660012 104.7274997  59.0189988  75.4231634 104.1925413  58.3343145
  73.8480012 101.2924997  56.8919988  73.9440012 101.9594997  56.2109988
  73.7080012 100.4764997  56.4099988  73.8422135 101.2734500  56.7338491
  73.0950012  98.7004997  56.0089988  73.7060012  98.3294997  56.6459988
  72.2590012  98.2794997  56.2049988  73.0655032  98.5927554  56.1227035
  75.2080012  97.5854997  57.5509988  75.6200012  96.8644997  57.0759988
  75.8900012  98.2554997  57.6099988  75.3565885  97.5772368  57.4938915
  57.4890012  97.5904997  60.6779988  56.5640012  97.7994997  60.5489988
  57.9430012  98.0744997  59.9889988  57.4237368  97.6845993  60.5671226
  58.7650012  95.6334997  58.6569988  59.2040012  96.2444997  58.0649988
  58.1320012  96.1714997  59.1309988  58.7394514  95.7899257  58.6400930
  71.4180012  95.8184997  60.0079988  70.7160012  96.4334997  59.7989988
  70.9740012  94.9804997  60.1389988  71.2616330  95.7895783  59.9970328
  58.6660012 111.5814997  59.5549988  57.9810012 111.5434997  58.8869988
  58.6700012 112.4944997  59.8429988  58.5728193 111.6997016  59.5025284
  60.6260012  97.5494997  57.0989988  61.1180012  96.9194997  56.5719988
  61.2500012  97.8454997  57.7629988  60.7775446  97.5033199  57.1165980
  67.5310012 112.7914997  57.9519988  68.3970012 113.1574997  57.7739988
  67.2840012 112.3514997  57.1379988  67.6162392 112.7821756  57.8176289
  60.4840012 112.5014997  56.5799988  60.2170012 112.7884997  57.4529988
  61.2560012 111.9554997  56.7319988  60.5517488 112.4670294  56.7201050
  76.6980012 101.9714997  61.7519988  76.2510012 102.8174997  61.7329988
  76.1370012 101.3914997  61.2359988  76.5609900 102.0089916  61.6796801
  86.5850012 104.2354997  60.2639988  85.8730012 104.7704997  59.9119988
  87.2760012 104.2914997  59.6039988  86.5810132 104.3162543  60.1266289
  86.6380012 102.6934997  57.3029988  87.3390012 102.7154997  57.9539988
  86.9410012 102.0654997  56.6469988  86.7747830 102.6116566  57.3033711
  89.9900012 104.4454997  61.2159988  89.2580012 104.6734997  61.7889988
  90.4380012 103.7314997  61.6709988  89.9503095 104.3802571  61.3559119
  92.5600012  95.3574997  58.7139988  91.6600012  95.4964997  59.0089988
  92.8120012  96.1884997  58.3119988  92.4708702  95.4889074  58.7000205
  93.7490012 109.7234997  57.0899988  93.8230012 110.6624997  57.2609988
  94.6550012 109.4184997  57.0339988  93.8815100 109.8106722  57.1058119
  86.0600012 113.3004997  60.7509988  85.9850012 113.1794997  59.8049988
  86.0930012 114.2504997  60.8699988  86.0541848 113.4122500  60.6374834
  89.1620012 112.4544997  57.7529988  89.5370012 111.7104997  57.2829988
  89.1660012 112.1844997  58.6719988  89.2138915 112.3161486  57.8127824
  88.8310012 112.3804997  60.5029988  87.8950012 112.4804997  60.6809988
  89.1110012 111.6714997  61.0809988  88.7408255 112.2982711  60.6055391
  90.3390012 104.6404997  56.5309988  90.3810012 104.4174997  55.6009988
  91.1880012 105.0394997  56.7209988  90.4595396 104.6639155  56.4293627
  85.9110012  98.5164997  57.2009988  85.6580012  98.5354997  58.1239988
  85.6550012  97.6444997  56.8999988  85.8417790  98.4012437  57.2866263
  82.7940012  98.9614997  56.3019988  82.3630012  98.5164997  57.0319988
  82.0760012  99.3334997  55.7899988  82.6379438  98.9508940  56.3326799
  77.3100012  99.4494997  58.7779988  77.7840012 100.0404997  58.1929988
  76.5930012  99.9804997  59.1249988  77.2779341  99.6020867  58.7448836
  82.7380012 100.5444997  60.1179988  83.6690012 100.6734997  60.2959988
  82.5230012 101.2144997  59.4679988  82.8364247 100.6526565  60.0545747
  81.4120012 101.7394997  57.6849988  80.8690012 101.3594997  56.9929988
  82.2450012 101.9334997  57.2559988  81.4504399 101.7138124  57.5324526
  84.7470012 106.3044997  59.6199988  84.0020012 105.7974997  59.2979988
  84.6130012 106.3534997  60.5669988  84.6268776 106.2416940  59.7038647
  88.6450012  99.1184997  57.8199988  87.7060012  99.2304997  57.6679988
  88.9420012  99.9754997  58.1259988  88.5567666  99.2496443  57.8405768
  86.8730012 107.7634997  58.6459988  86.5770012 108.5894997  59.0269988
  86.1700012 107.1434997  58.8419988  86.7374914 107.7928199  58.7246443
  94.2480012 101.1954997  59.1749988  93.6940012 100.7994997  58.5029988
  94.3480012 102.1054997  58.8969988  94.1857059 101.2643586  59.0454401
  92.5430012 109.9814997  59.6399988  92.1700012 109.1554997  59.9489988
  92.8210012 109.7984997  58.7429988  92.5295630 109.8437303  59.5609626
  78.0020012 103.9794997  57.3809988  78.6180012 104.6064997  57.7609988
  77.1400012 104.2954997  57.6529988  77.9697698 104.1079430  57.4697183
  82.3570012 111.8024997  61.9159988  81.4070012 111.9074997  61.9669988
  82.7090012 112.6224997  62.2609988  82.2744203 111.9278314  61.9696650
  89.9360012 107.9574997  57.4599988  90.2890012 107.5774997  58.2649988
  88.9870012 107.8644997  57.5469988  89.8560441 107.8929596  57.5818559
  94.4390012 112.4374997  57.6609988  95.1830012 113.0234997  57.5209988
  93.7450012 113.0054997  57.9949988  94.4470292 112.5945582  57.6869961
  90.8020012 106.6304997  59.6869988  90.5240012 105.9024997  60.2429988
  91.7290012 106.7494997  59.8919988  90.8893124 106.5468802  59.7908845
  84.0270012 109.0694997  55.9069988  84.2660012 108.3214997  55.3599988
  83.7580012 108.6814997  56.7399988  84.0233675 108.9146638  55.9446865
  82.9640012 108.6394997  58.3639988  83.1100012 108.1194997  59.1539988
  82.9610012 109.5464997  58.6699988  82.9835989 108.6908853  58.5136088
  85.7010012 110.3374997  59.1129988  84.8850012 110.8344997  59.1649988
  86.2310012 110.8124997  58.4729988  85.6609161 110.4697722  59.0335956
  86.1160012  97.0154997  62.0229988  85.7700012  97.6334997  62.6679988
  86.7750012  97.5164997  61.5419988  86.1577826  97.1675802  62.0460971
  83.0400012 111.3814997  59.0949988  83.2000012 112.1804997  58.5939988
  82.8420012 111.6874997  59.9799988  83.0351649 111.5324469  59.1459815
  81.7740012  98.0784997  58.7099988  81.6910012  98.9674997  59.0569988
  82.6640012  97.8134997  58.9419988  81.8829469  98.1641430  58.7887626
  80.0330012 108.5064997  57.7709988  80.6250012 109.2054997  58.0469988
  80.4920012 108.0734997  57.0509988  80.1761142 108.5437049  57.7114830
  78.3490012 101.1704997  56.8869988  78.3040012 102.1094997  57.0649988
  77.4610012 100.9344997  56.6169988  78.2228574 101.2671892  56.8748912
  86.0650012 110.9324997  56.0459988  85.4210012 110.3014997  56.3669988
  86.8270012 110.4014997  55.8139988  86.0798077 110.7742920  56.0586011
  90.6690012 110.7494997  56.2799988  90.9520012 109.9554997  56.7319988
  91.4090012 110.9824997  55.7189988  90.8077486 110.6722803  56.2660698
  81.6240012 106.6594997  56.1369988  81.6880012 105.8654997  56.6679988
  82.2770012 106.5404997  55.4469988  81.7210241 106.5347148  56.1164317
  86.9760012 107.7064997  55.8729988  86.7070012 107.8864997  56.7739988
  86.7700012 106.7804997  55.7419988  86.9113825 107.6060152  55.9785214
  82.7730012 104.6314997  58.4429988  82.3130012 104.1474997  59.1289988
  83.0280012 103.9634997  57.8069988  82.7444902 104.4748731  58.4509334
  83.8440012 102.8744997  56.7049988  83.6640012 102.7204997  55.7779988
  84.7940012 102.9824997  56.7499988  83.9477776 102.8680175  56.5841843
  93.2340012 105.2294997  56.1509988  92.9600012 104.8044997  55.3379988
  93.2730012 106.1604997  55.9339988  93.2017699 105.2972484  56.0103610
  83.7410012 113.5654997  57.7069988  84.6740012 113.7234997  57.8499988
  83.4770012 114.2404997  57.0819988  83.8329510 113.6783611  57.6420741
  77.3100012 108.2014997  57.1889988  78.2240012 108.2804997  57.4629988
  77.3170012 107.5144997  56.5229988  77.4361131 108.1193961  57.1364393
  94.3550012 104.0524997  58.3409988  93.8330012 104.4094997  57.6219988
  94.3220012 104.7274997  59.0189988  94.2791634 104.1925413  58.3343145
  92.7040012 101.2924997  56.8919988  92.8000012 101.9594997  56.2109988
  92.5640012 100.4764997  56.4099988  92.6982135 101.2734500  56.7338491
  91.9510012  98.7004997  56.0089988  92.5620012  98.3294997  56.6459988
  91.1150012  98.2794997  56.2049988  91.9215032  98.5927554  56.1227035
  94.0640012  97.5854997  57.5509988  94.4760012  96.8644997  57.0759988
  94.7460012  98.2554997  57.6099988  94.2125885  97.5772368  57.4938915
  77.6210012  95.6334997  58.6569988  78.0600012  96.2444997  58.0649988
  76.9880012  96.1714997  59.1309988  77.5954514  95.7899257  58.6400930
  90.2740012  95.8184997  60.0079988  89.5720012  96.4334997  59.7989988
  89.8300012  94.9804997  60.1389988  90.1176330  95.7895783  59.9970328
  77.5220012 111.5814997  59.5549988  76.8370012 111.5434997  58.8869988
  77.5260012 112.4944997  59.8429988  77.4288193 111.6997016  59.5025284
  79.4820012  97.5494997  57.0989988  79.9740012  96.9194997  56.5719988
  80.1060012  97.8454997  57.7629988  79.6335446  97.5033199  57.1165980
  84.5080012  97.8424997  59.5559988  84.6860012  97.1964997  60.2389988
  84.4550012  98.6764997  60.0239988  84.5251829  97.8667985  59.7125940
  86.3870012 112.7914997  57.9519988  87.2530012 113.1574997  57.7739988
  86.1400012 112.3514997  57.1379988  86.4722392 112.7821756  57.8176289
  93.0960012 112.3544997  60.6309988  92.9010012 111.6064997  60.0659988
  93.0570012 113.1124997  60.0479988  93.0640380 112.3546099  60.4748384
  79.3400012 112.5014997  56.5799988  79.0730012 112.7884997  57.4529988
  80.1120012 111.9554997  56.7319988  79.4077488 112.4670294  56.7201050
  95.5540012 101.9714997  61.7519988  95.1070012 102.8174997  61.7329988
  94.9930012 101.3914997  61.2359988  95.4169900 102.0089916  61.6796801
 106.5170012 107.5924997  61.8549988 106.2210012 107.2704997  61.0039988
 106.1920012 108.4924997  61.8959988 106.4326371 107.6700215  61.7441801
 105.4940012 102.6934997  57.3029988 106.1950012 102.7154997  57.9539988
 105.7970012 102.0654997  56.6469988 105.6307830 102.6116566  57.3033711
 107.7170012 103.6074997  58.9009988 108.2970012 103.7574997  59.6479988
 108.1310012 104.0784997  58.1779988 107.8522830 103.6916841  58.9054134
 111.4160012  95.3574997  58.7139988 110.5160012  95.4964997  59.0089988
 111.6680012  96.1884997  58.3119988 111.3268702  95.4889074  58.7000205
 112.6050012 109.7234997  57.0899988 112.6790012 110.6624997  57.2609988
 113.5110012 109.4184997  57.0339988 112.7375100 109.8106722  57.1058119
 108.0180012 112.4544997  57.7529988 108.3930012 111.7104997  57.2829988
 108.0220012 112.1844997  58.6719988 108.0698915 112.3161486  57.8127824
 107.6870012 112.3804997  60.5029988 106.7510012 112.4804997  60.6809988
 107.9670012 111.6714997  61.0809988 107.5968255 112.2982711  60.6055391
 109.1950012 104.6404997  56.5309988 109.2370012 104.4174997  55.6009988
 110.0440012 105.0394997  56.7209988 109.3155396 104.6639155  56.4293627
 104.7670012  98.5164997  57.2009988 104.5140012  98.5354997  58.1239988
 104.5110012  97.6444997  56.8999988 104.6977790  98.4012437  57.2866263
 106.0660012 101.9044997  61.3649988 105.6570012 102.7194997  61.0739988
 106.7870012 101.7644997  60.7509988 106.1074537 101.9972018  61.2421342
 101.6500012  98.9614997  56.3019988 101.2190012  98.5164997  57.0319988
 100.9320012  99.3334997  55.7899988 101.4939438  98.9508940  56.3326799
  96.1660012  99.4494997  58.7779988  96.6400012 100.0404997  58.1929988
  95.4490012  99.9804997  59.1249988  96.1339341  99.6020867  58.7448836
 100.2680012 101.7394997  57.6849988  99.7250012 101.3594997  56.9929988
 101.1010012 101.9334997  57.2559988 100.3064399 101.7138124  57.5324526
 103.6030012 106.3044997  59.6199988 102.8580012 105.7974997  59.2979988
 103.4690012 106.3534997  60.5669988 103.4828776 106.2416940  59.7038647
 107.5010012  99.1184997  57.8199988 106.5620012  99.2304997  57.6679988
 107.7980012  99.9754997  58.1259988 107.4127666  99.2496443  57.8405768
 108.2190012 100.9854997  59.4799988 109.1110012 100.8484997  59.7989988
 108.2760012 101.7764997  58.9439988 108.3486285 101.0736660  59.4511691
 105.7290012 107.7634997  58.6459988 105.4330012 108.5894997  59.0269988
 105.0260012 107.1434997  58.8419988 105.5934914 107.7928199  58.7246443
 113.1040012 101.1954997  59.1749988 112.5500012 100.7994997  58.5029988
 113.2040012 102.1054997  58.8969988 113.0417059 101.2643586  59.0454401
 111.3990012 109.9814997  59.6399988 111.0260012 109.1554997  59.9489988
 111.6770012 109.7984997  58.7429988 111.3855630 109.8437303  59.5609626
  96.8580012 103.9794997  57.3809988  97.4740012 104.6064997  57.7609988
  95.9960012 104.2954997  57.6529988  96.8257698 104.1079430  57.4697183
 108.7920012 107.9574997  57.4599988 109.1450012 107.5774997  58.2649988
 107.8430012 107.8644997  57.5469988 108.7120441 107.8929596  57.5818559
 113.2950012 112.4374997  57.6609988 114.0390012 113.0234997  57.5209988
 112.6010012 113.0054997  57.9949988 113.3030292 112.5945582  57.6869961
 102.8830012 109.0694997  55.9069988 103.1220012 108.3214997  55.3599988
 102.6140012 108.6814997  56.7399988 102.8793675 108.9146638  55.9446865
 101.8200012 108.6394997  58.3639988 101.9660012 108.1194997  59.1539988
 101.8170012 109.5464997  58.6699988 101.8395989 108.6908853  58.5136088
 106.8890012  98.2064997  60.2499988 107.1090012  98.6784997  59.4469988
 107.4470012  98.6014997  60.9199988 106.9944968  98.3244285  60.2307331
 104.5570012 110.3374997  59.1129988 103.7410012 110.8344997  59.1649988
 105.0870012 110.8124997  58.4729988 104.5169161 110.4697722  59.0335956
 104.9720012  97.0154997  62.0229988 104.6260012  97.6334997  62.6679988
 105.6310012  97.5164997  61.5419988 105.0137826  97.1675802  62.0460971
 101.8960012 111.3814997  59.0949988 102.0560012 112.1804997  58.5939988
 101.6980012 111.6874997  59.9799988 101.8911649 111.5324469  59.1459815
 100.6300012  98.0784997  58.7099988 100.5470012  98.9674997  59.0569988
 101.5200012  97.8134997  58.9419988 100.7389469  98.1641430  58.7887626
  98.8890012 108.5064997  57.7709988  99.4810012 109.2054997  58.0469988
  99.3480012 108.0734997  57.0509988  99.0321142 108.5437049  57.7114830
  97.2050012 101.1704997  56.8869988  97.1600012 102.1094997  57.0649988
  96.3170012 100.9344997  56.6169988  97.0788574 101.2671892  56.8748912
  96.9430012 109.8924997  61.7199988  96.1110012 110.3654997  61.7479988
  97.4890012 110.4024997  61.1219988  96.9029739 110.0261871  61.6429716
 104.9210012 110.9324997  56.0459988 104.2770012 110.3014997  56.3669988
 105.6830012 110.4014997  55.8139988 104.9358077 110.7742920  56.0586011
 109.5250012 110.7494997  56.2799988 109.8080012 109.9554997  56.7319988
 110.2650012 110.9824997  55.7189988 109.6637486 110.6722803  56.2660698
 100.4800012 106.6594997  56.1369988 100.5440012 105.8654997  56.6679988
 101.1330012 106.5404997  55.4469988 100.5770241 106.5347148  56.1164317
 105.8320012 107.7064997  55.8729988 105.5630012 107.8864997  56.7739988
 105.6260012 106.7804997  55.7419988 105.7673825 107.6060152  55.9785214
 101.6290012 104.6314997  58.4429988 101.1690012 104.1474997  59.1289988
 101.8840012 103.9634997  57.8069988 101.6004902 104.4748731  58.4509334
 102.7000012 102.8744997  56.7049988 102.5200012 102.7204997  55.7779988
 103.6500012 102.9824997  56.7499988 102.8037776 102.8680175  56.5841843
 112.0900012 105.2294997  56.1509988 111.8160012 104.8044997  55.3379988
 112.1290012 106.1604997  55.9339988 112.0577699 105.2972484  56.0103610
 102.5970012 113.5654997  57.7069988 103.5300012 113.7234997  57.8499988
 102.3330012 114.2404997  57.0819988 102.6889510 113.6783611  57.6420741
  96.1660012 108.2014997  57.1889988  97.0800012 108.2804997  57.4629988
  96.1730012 107.5144997  56.5229988  96.2921131 108.1193961  57.1364393
 113.2110012 104.0524997  58.3409988 112.6890012 104.4094997  57.6219988
 113.1780012 104.7274997  59.0189988 113.1351634 104.1925413  58.3343145
 111.5600012 101.2924997  56.8919988 111.6560012 101.9594997  56.2109988
 111.4200012 100.4764997  56.4099988 111.5542135 101.2734500  56.7338491
 110.8070012  98.7004997  56.0089988 111.4180012  98.3294997  56.6459988
 109.9710012  98.2794997  56.2049988 110.7775032  98.5927554  56.1227035
 112.9200012  97.5854997  57.5509988 113.3320012  96.8644997  57.0759988
 113.6020012  98.2554997  57.6099988 113.0685885  97.5772368  57.4938915
  96.4770012  95.6334997  58.6569988  96.9160012  96.2444997  58.0649988
  95.8440012  96.1714997  59.1309988  96.4514514  95.7899257  58.6400930
 109.1300012  95.8184997  60.0079988 108.4280012  96.4334997  59.7989988
 108.6860012  94.9804997  60.1389988 108.9736330  95.7895783  59.9970328
  96.3780012 111.5814997  59.5549988  95.6930012 111.5434997  58.8869988
  96.3820012 112.4944997  59.8429988  96.2848193 111.6997016  59.5025284
  98.3380012  97.5494997  57.0989988  98.8300012  96.9194997  56.5719988
  98.9620012  97.8454997  57.7629988  98.4895446  97.5033199  57.1165980
 103.3640012  97.8424997  59.5559988 103.5420012  97.1964997  60.2389988
 103.3110012  98.6764997  60.0239988 103.3811829  97.8667985  59.7125940
 105.2430012 112.7914997  57.9519988 106.1090012 113.1574997  57.7739988
 104.9960012 112.3514997  57.1379988 105.3282392 112.7821756  57.8176289
 111.9520012 112.3544997  60.6309988 111.7570012 111.6064997  60.0659988
 111.9130012 113.1124997  60.0479988 111.9200380 112.3546099  60.4748384
  98.1960012 112.5014997  56.5799988  97.9290012 112.7884997  57.4529988
  98.9680012 111.9554997  56.7319988  98.2637488 112.4670294  56.7201050
 115.1010012 107.4034997  60.1679988 114.8290012 107.6324997  59.2789988
 115.1470012 108.2414997  60.6279988 115.0700094 107.5481213  60.1085697
 124.2970012 104.2354997  60.2639988 123.5850012 104.7704997  59.9119988
 124.9880012 104.2914997  59.6039988 124.2930132 104.3162543  60.1266289
 124.3500012 102.6934997  57.3029988 125.0510012 102.7154997  57.9539988
 124.6530012 102.0654997  56.6469988 124.4867830 102.6116566  57.3033711
 127.7020012 104.4454997  61.2159988 126.9700012 104.6734997  61.7889988
 128.1500012 103.7314997  61.6709988 127.6623095 104.3802571  61.3559119
 126.5730012 103.6074997  58.9009988 127.1530012 103.7574997  59.6479988
 126.9870012 104.0784997  58.1779988 126.7082830 103.6916841  58.9054134
 130.2720012  95.3574997  58.7139988 129.3720012  95.4964997  59.0089988
 130.5240012  96.1884997  58.3119988 130.1828702  95.4889074  58.7000205
 131.4610012 109.7234997  57.0899988 131.5350012 110.6624997  57.2609988
 132.3670012 109.4184997  57.0339988 131.5935100 109.8106722  57.1058119
 123.7720012 113.3004997  60.7509988 123.6970012 113.1794997  59.8049988
 123.8050012 114.2504997  60.8699988 123.7661848 113.4122500  60.6374834
 126.8740012 112.4544997  57.7529988 127.2490012 111.7104997  57.2829988
 126.8780012 112.1844997  58.6719988 126.9258915 112.3161486  57.8127824
 128.0510012 104.6404997  56.5309988 128.0930012 104.4174997  55.6009988
 128.9000012 105.0394997  56.7209988 128.1715396 104.6639155  56.4293627
 123.6230012  98.5164997  57.2009988 123.3700012  98.5354997  58.1239988
 123.3670012  97.6444997  56.8999988 123.5537790  98.4012437  57.2866263
 120.5060012  98.9614997  56.3019988 120.0750012  98.5164997  57.0319988
 119.7880012  99.3334997  55.7899988 120.3499438  98.9508940  56.3326799
 115.0220012  99.4494997  58.7779988 115.4960012 100.0404997  58.1929988
 114.3050012  99.9804997  59.1249988 114.9899341  99.6020867  58.7448836
 120.4500012 100.5444997  60.1179988 121.3810012 100.6734997  60.2959988
 120.2350012 101.2144997  59.4679988 120.5484247 100.6526565  60.0545747
 119.1240012 101.7394997  57.6849988 118.5810012 101.3594997  56.9929988
 119.9570012 101.9334997  57.2559988 119.1624399 101.7138124  57.5324526
 122.4590012 106.3044997  59.6199988 121.7140012 105.7974997  59.2979988
 122.3250012 106.3534997  60.5669988 122.3388776 106.2416940  59.7038647
 126.3570012  99.1184997  57.8199988 125.4180012  99.2304997  57.6679988
 126.6540012  99.9754997  58.1259988 126.2687666  99.2496443  57.8405768
 127.0750012 100.9854997  59.4799988 127.9670012 100.8484997  59.7989988
 127.1320012 101.7764997  58.9439988 127.2046285 101.0736660  59.4511691
 124.5850012 107.7634997  58.6459988 124.2890012 108.5894997  59.0269988
 123.8820012 107.1434997  58.8419988 124.4494914 107.7928199  58.7246443
 131.9600012 101.1954997  59.1749988 131.4060012 100.7994997  58.5029988
 132.0600012 102.1054997  58.8969988 131.8977059 101.2643586  59.0454401
 130.2550012 109.9814997  59.6399988 129.8820012 109.1554997  59.9489988
 130.5330012 109.7984997  58.7429988 130.2415630 109.8437303  59.5609626
 115.7140012 103.9794997  57.3809988 116.3300012 104.6064997  57.7609988
 114.8520012 104.2954997  57.6529988 115.6817698 104.1079430  57.4697183
 127.6480012 107.9574997  57.4599988 128.0010012 107.5774997  58.2649988
 126.6990012 107.8644997  57.5469988 127.5680441 107.8929596  57.5818559
 132.1510012 112.4374997  57.6609988 132.8950012 113.0234997  57.5209988
 131.4570012 113.0054997  57.9949988 132.1590292 112.5945582  57.6869961
 128.5140012 106.6304997  59.6869988 128.2360012 105.9024997  60.2429988
 129.4410012 106.7494997  59.8919988 128.6013124 106.5468802  59.7908845
 121.7390012 109.0694997  55.9069988 121.9780012 108.3214997  55.3599988
 121.4700012 108.6814997  56.7399988 121.7353675 108.9146638  55.9446865
 120.6760012 108.6394997  58.3639988 120.8220012 108.1194997  59.1539988
 120.6730012 109.5464997  58.6699988 120.6955989 108.6908853  58.5136088
 123.4130012 110.3374997  59.1129988 122.5970012 110.8344997  59.1649988
 123.9430012 110.8124997  58.4729988 123.3729161 110.4697722  59.0335956
 122.9450012  99.9344997  61.0849988 123.7570012 100.4394997  61.1309988
 122.7000012  99.7894997  61.9989988 123.0230520  99.9840375  61.2148517
 123.8280012  97.0154997  62.0229988 123.4820012  97.6334997  62.6679988
 124.4870012  97.5164997  61.5419988 123.8697826  97.1675802  62.0460971
 120.7520012 111.3814997  59.0949988 120.9120012 112.1804997  58.5939988
 120.5540012 111.6874997  59.9799988 120.7471649 111.5324469  59.1459815
 119.4860012  98.0784997  58.7099988 119.4030012  98.9674997  59.0569988
 120.3760012  97.8134997  58.9419988 119.5949469  98.1641430  58.7887626
 117.7450012 108.5064997  57.7709988 118.3370012 109.2054997  58.0469988
 118.2040012 108.0734997  57.0509988 117.8881142 108.5437049  57.7114830
 116.0610012 101.1704997  56.8869988 116.0160012 102.1094997  57.0649988
 115.1730012 100.9344997  56.6169988 115.9348574 101.2671892  56.8748912
 123.7770012 110.9324997  56.0459988 123.1330012 110.3014997  56.3669988
 124.5390012 110.4014997  55.8139988 123.7918077 110.7742920  56.0586011
 128.3810012 110.7494997  56.2799988 128.6640012 109.9554997  56.7319988
 129.1210012 110.9824997  55.7189988 128.5197486 110.6722803  56.2660698
 119.3360012 106.6594997  56.1369988 119.4000012 105.8654997  56.6679988
 119.9890012 106.5404997  55.4469988 119.4330241 106.5347148  56.1164317
 124.6880012 107.7064997  55.8729988 124.4190012 107.8864997  56.7739988
 124.4820012 106.7804997  55.7419988 124.6233825 107.6060152  55.9785214
 121.5560012 102.8744997  56.7049988 121.3760012 102.7204997  55.7779988
 122.5060012 102.9824997  56.7499988 121.6597776 102.8680175  56.5841843
 130.9460012 105.2294997  56.1509988 130.6720012 104.8044997  55.3379988
 130.9850012 106.1604997  55.9339988 130.9137699 105.2972484  56.0103610
 121.4530012 113.5654997  57.7069988 122.3860012 113.7234997  57.8499988
 121.1890012 114.2404997  57.0819988 121.5449510 113.6783611  57.6420741
 115.0220012 108.2014997  57.1889988 115.9360012 108.2804997  57.4629988
 115.0290012 107.5144997  56.5229988 115.1481131 108.1193961  57.1364393
 113.6710012 113.5944997  62.2669988 113.0240012 113.1324997  61.7339988
 114.0250012 112.9224997  62.8489988 113.6303849 113.4404723  62.2727959
 130.4160012 101.2924997  56.8919988 130.5120012 101.9594997  56.2109988
 130.2760012 100.4764997  56.4099988 130.4102135 101.2734500  56.7338491
 129.6630012  98.7004997  56.0089988 130.2740012  98.3294997  56.6459988
 128.8270012  98.2794997  56.2049988 129.6335032  98.5927554  56.1227035
 131.7760012  97.5854997  57.5509988 132.1880012  96.8644997  57.0759988
 132.4580012  98.2554997  57.6099988 131.9245885  97.5772368  57.4938915
 114.0570012  97.5904997  60.6779988 113.1320012  97.7994997  60.5489988
 114.5110012  98.0744997  59.9889988 113.9917368  97.6845993  60.5671226
 115.3330012  95.6334997  58.6569988 115.7720012  96.2444997  58.0649988
 114.7000012  96.1714997  59.1309988 115.3074514  95.7899257  58.6400930
 115.2340012 111.5814997  59.5549988 114.5490012 111.5434997  58.8869988
 115.2380012 112.4944997  59.8429988 115.1408193 111.6997016  59.5025284
 117.1940012  97.5494997  57.0989988 117.6860012  96.9194997  56.5719988
 117.8180012  97.8454997  57.7629988 117.3455446  97.5033199  57.1165980
 122.2200012  97.8424997  59.5559988 122.3980012  97.1964997  60.2389988
 122.1670012  98.6764997  60.0239988 122.2371829  97.8667985  59.7125940
 124.0990012 112.7914997  57.9519988 124.9650012 113.1574997  57.7739988
 123.8520012 112.3514997  57.1379988 124.1842392 112.7821756  57.8176289
 130.8080012 112.3544997  60.6309988 130.6130012 111.6064997  60.0659988
 130.7690012 113.1124997  60.0479988 130.7760380 112.3546099  60.4748384
 117.0520012 112.5014997  56.5799988 116.7850012 112.7884997  57.4529988
 117.8240012 111.9554997  56.7319988 117.1197488 112.4670294  56.7201050
 133.2660012 101.9714997  61.7519988 132.8190012 102.8174997  61.7329988
 132.7050012 101.3914997  61.2359988 133.1289900 102.0089916  61.6796801
 143.1530012 104.2354997  60.2639988 142.4410012 104.7704997  59.9119988
 143.8440012 104.2914997  59.6039988 143.1490132 104.3162543  60.1266289
 143.2060012 102.6934997  57.3029988 143.9070012 102.7154997  57.9539988
 143.5090012 102.0654997  56.6469988 143.3427830 102.6116566  57.3033711
 137.1940012 104.1454997  60.6879988 136.9020012 104.9134997  60.1969988
 136.5200012 103.4854997  60.5249988 137.0629081 104.1614406  60.5987340
 142.4790012  98.5164997  57.2009988 142.2260012  98.5354997  58.1239988
 142.2230012  97.6444997  56.8999988 142.4097790  98.4012437  57.2866263
 139.3620012  98.9614997  56.3019988 138.9310012  98.5164997  57.0319988
 138.6440012  99.3334997  55.7899988 139.2059438  98.9508940  56.3326799
 133.8780012  99.4494997  58.7779988 134.3520012 100.0404997  58.1929988
 133.1610012  99.9804997  59.1249988 133.8459341  99.6020867  58.7448836
 137.9800012 101.7394997  57.6849988 137.4370012 101.3594997  56.9929988
 138.8130012 101.9334997  57.2559988 138.0184399 101.7138124  57.5324526
 141.3150012 106.3044997  59.6199988 140.5700012 105.7974997  59.2979988
 141.1810012 106.3534997  60.5669988 141.1948776 106.2416940  59.7038647
 143.4410012 107.7634997  58.6459988 143.1450012 108.5894997  59.0269988
 142.7380012 107.1434997  58.8419988 143.3054914 107.7928199  58.7246443
 134.5700012 103.9794997  57.3809988 135.1860012 104.6064997  57.7609988
 133.7080012 104.2954997  57.6529988 134.5377698 104.1079430  57.4697183
 140.2420012 106.7804997  62.3709988 140.0010012 107.7054997  62.4119988
 139.5010012 106.3214997  62.7669988 140.1088409 106.8451421  62.4301377
 140.5950012 109.0694997  55.9069988 140.8340012 108.3214997  55.3599988
 140.3260012 108.6814997  56.7399988 140.5913675 108.9146638  55.9446865
 139.5320012 108.6394997  58.3639988 139.6780012 108.1194997  59.1539988
 139.5290012 109.5464997  58.6699988 139.5515989 108.6908853  58.5136088
 135.9850012 105.8924997  58.8739988 135.2990012 106.2444997  59.4409988
 136.5070012 106.6554997  58.6269988 135.9616852 106.0438578  58.9182118
 144.6010012  98.2064997  60.2499988 144.8210012  98.6784997  59.4469988
 145.1590012  98.6014997  60.9199988 144.7064968  98.3244285  60.2307331
 142.2690012 110.3374997  59.1129988 141.4530012 110.8344997  59.1649988
 142.7990012 110.8124997  58.4729988 142.2289161 110.4697722  59.0335956
 139.6080012 111.3814997  59.0949988 139.7680012 112.1804997  58.5939988
 139.4100012 111.6874997  59.9799988 139.6031649 111.5324469  59.1459815
 138.3420012  98.0784997  58.7099988 138.2590012  98.9674997  59.0569988
 139.2320012  97.8134997  58.9419988 138.4509469  98.1641430  58.7887626
 136.6010012 108.5064997  57.7709988 137.1930012 109.2054997  58.0469988
 137.0600012 108.0734997  57.0509988 136.7441142 108.5437049  57.7114830
 134.9170012 101.1704997  56.8869988 134.8720012 102.1094997  57.0649988
 134.0290012 100.9344997  56.6169988 134.7908574 101.2671892  56.8748912
 134.6550012 109.8924997  61.7199988 133.8230012 110.3654997  61.7479988
 135.2010012 110.4024997  61.1219988 134.6149739 110.0261871  61.6429716
 142.6330012 110.9324997  56.0459988 141.9890012 110.3014997  56.3669988
 143.3950012 110.4014997  55.8139988 142.6478077 110.7742920  56.0586011
 138.1920012 106.6594997  56.1369988 138.2560012 105.8654997  56.6679988
 138.8450012 106.5404997  55.4469988 138.2890241 106.5347148  56.1164317
 143.5440012 107.7064997  55.8729988 143.2750012 107.8864997  56.7739988
 143.3380012 106.7804997  55.7419988 143.4793825 107.6060152  55.9785214
 139.3410012 104.6314997  58.4429988 138.8810012 104.1474997  59.1289988
 139.5960012 103.9634997  57.8069988 139.3124902 104.4748731  58.4509334
 140.4120012 102.8744997  56.7049988 140.2320012 102.7204997  55.7779988
 141.3620012 102.9824997  56.7499988 140.5157776 102.8680175  56.5841843
 140.3090012 113.5654997  57.7069988 141.2420012 113.7234997  57.8499988
 140.0450012 114.2404997  57.0819988 140.4009510 113.6783611  57.6420741
 133.8780012 108.2014997  57.1889988 134.7920012 108.2804997  57.4629988
 133.8850012 107.5144997  56.5229988 134.0041131 108.1193961  57.1364393
 134.1890012  95.6334997  58.6569988 134.6280012  96.2444997  58.0649988
 133.5560012  96.1714997  59.1309988 134.1634514  95.7899257  58.6400930
 134.0900012 111.5814997  59.5549988 133.4050012 111.5434997  58.8869988
 134.0940012 112.4944997  59.8429988 133.9968193 111.6997016  59.5025284
 136.0500012  97.5494997  57.0989988 136.5420012  96.9194997  56.5719988
 136.6740012  97.8454997  57.7629988 136.2015446  97.5033199  57.1165980
 141.0760012  97.8424997  59.5559988 141.2540012  97.1964997  60.2389988
 141.0230012  98.6764997  60.0239988 141.0931829  97.8667985  59.7125940
 142.9550012 112.7914997  57.9519988 143.8210012 113.1574997  57.7739988
 142.7080012 112.3514997  57.1379988 143.0402392 112.7821756  57.8176289
 135.9080012 112.5014997  56.5799988 135.6410012 112.7884997  57.4529988
 136.6800012 111.9554997  56.7319988 135.9757488 112.4670294  56.7201050
   1.2740012 120.8274997  61.7519988   0.8270012 121.6734997  61.7329988
   0.7130012 120.2474997  61.2359988   1.1369900 120.8649916  61.6796801
  12.2370012 126.4484997  61.8549988  11.9410012 126.1264997  61.0039988
  11.9120012 127.3484997  61.8959988  12.1526371 126.5260215  61.7441801
  11.2140012 121.5494997  57.3029988  11.9150012 121.5714997  57.9539988
  11.5170012 120.9214997  56.6469988  11.3507830 121.4676566  57.3033711
  14.5660012 123.3014997  61.2159988  13.8340012 123.5294997  61.7889988
  15.0140012 122.5874997  61.6709988  14.5263095 123.2362571  61.3559119
  13.4370012 122.4634997  58.9009988  14.0170012 122.6134997  59.6479988
  13.8510012 122.9344997  58.1779988  13.5722831 122.5476841  58.9054134
  17.1360012 114.2134997  58.7139988  16.2360012 114.3524997  59.0089988
  17.3880012 115.0444997  58.3119988  17.0468702 114.3449074  58.7000205
   5.2020012 123.0014997  60.6879988   4.9100012 123.7694997  60.1969988
   4.5280012 122.3414997  60.5249988   5.0709081 123.0174406  60.5987340
  18.3250012 128.5794997  57.0899988  18.3990012 129.5184997  57.2609988
  19.2310012 128.2744997  57.0339988  18.4575100 128.6666722  57.1058119
  13.7380012 131.3104997  57.7529988  14.1130012 130.5664997  57.2829988
  13.7420012 131.0404997  58.6719988  13.7898915 131.1721486  57.8127824
  13.4070012 131.2364997  60.5029988  12.4710012 131.3364997  60.6809988
  13.6870012 130.5274997  61.0809988  13.3168255 131.1542711  60.6055391
  14.9150012 123.4964997  56.5309988  14.9570012 123.2734997  55.6009988
  15.7640012 123.8954997  56.7209988  15.0355396 123.5199155  56.4293627
  10.4870012 117.3724997  57.2009988  10.2340012 117.3914997  58.1239988
  10.2310012 116.5004997  56.8999988  10.4177790 117.2572437  57.2866263
   7.3700012 117.8174997  56.3019988   6.9390012 117.3724997  57.0319988
   6.6520012 118.1894997  55.7899988   7.2139438 117.8068940  56.3326799
   5.9880012 120.5954997  57.6849988   5.4450012 120.2154997  56.9929988
   6.8210012 120.7894997  57.2559988   6.0264399 120.5698124  57.5324526
   9.3230012 125.1604997  59.6199988   8.5780012 124.6534997  59.2979988
   9.1890012 125.2094997  60.5669988   9.2028776 125.0976940  59.7038647
  13.2210012 117.9744997  57.8199988  12.2820012 118.0864997  57.6679988
  13.5180012 118.8314997  58.1259988  13.1327666 118.1056443  57.8405768
  11.4490012 126.6194997  58.6459988  11.1530012 127.4454997  59.0269988
  10.7460012 125.9994997  58.8419988  11.3134914 126.6488199  58.7246443
  18.8240012 120.0514997  59.1749988  18.2700012 119.6554997  58.5029988
  18.9240012 120.9614997  58.8969988  18.7617059 120.1203586  59.0454401
  17.1190012 128.8374997  59.6399988  16.7460012 128.0114997  59.9489988
  17.3970012 128.6544997  58.7429988  17.1055630 128.6997303  59.5609626
   2.5780012 122.8354997  57.3809988   3.1940012 123.4624997  57.7609988
   1.7160012 123.1514997  57.6529988   2.5457698 122.9639430  57.4697183
   8.2500012 125.6364997  62.3709988   8.0090012 126.5614997  62.4119988
   7.5090012 125.1774997  62.7669988   8.1168409 125.7011421  62.4301377
  14.5120012 126.8134997  57.4599988  14.8650012 126.4334997  58.2649988
  13.5630012 126.7204997  57.5469988  14.4320441 126.7489596  57.5818559
  19.0150012 131.2934997  57.6609988  19.7590012 131.8794997  57.5209988
  18.3210012 131.8614997  57.9949988  19.0230292 131.4505582  57.6869961
  15.3780012 125.4864997  59.6869988  15.1000012 124.7584997  60.2429988
  16.3050012 125.6054997  59.8919988  15.4653124 125.4028802  59.7908845
   8.6030012 127.9254997  55.9069988   8.8420012 127.1774997  55.3599988
   8.3340012 127.5374997  56.7399988   8.5993675 127.7706638  55.9446865
   7.5400012 127.4954997  58.3639988   7.6860012 126.9754997  59.1539988
   7.5370012 128.4024997  58.6699988   7.5595989 127.5468853  58.5136088
   3.9930012 124.7484997  58.8739988   3.3070012 125.1004997  59.4409988
   4.5150012 125.5114997  58.6269988   3.9696852 124.8998578  58.9182118
  12.6090012 117.0624997  60.2499988  12.8290012 117.5344997  59.4469988
  13.1670012 117.4574997  60.9199988  12.7144968 117.1804285  60.2307331
   6.3500012 116.9344997  58.7099988   6.2670012 117.8234997  59.0569988
   7.2400012 116.6694997  58.9419988   6.4589469 117.0201430  58.7887626
   4.6090012 127.3624997  57.7709988   5.2010012 128.0614997  58.0469988
   5.0680012 126.9294997  57.0509988   4.7521142 127.3997049  57.7114830
   2.9250012 120.0264997  56.8869988   2.8800012 120.9654997  57.0649988
   2.0370012 119.7904997  56.6169988   2.7988574 120.1231892  56.8748912
  10.6410012 129.7884997  56.0459988   9.9970012 129.1574997  56.3669988
  11.4030012 129.2574997  55.8139988  10.6558077 129.6302920  56.0586011
  15.2450012 129.6054997  56.2799988  15.5280012 128.8114997  56.7319988
  15.9850012 129.8384997  55.7189988  15.3837486 129.5282803  56.2660698
   6.2000012 125.5154997  56.1369988   6.2640012 124.7214997  56.6679988
   6.8530012 125.3964997  55.4469988   6.2970241 125.3907148  56.1164317
  11.5520012 126.5624997  55.8729988  11.2830012 126.7424997  56.7739988
  11.3460012 125.6364997  55.7419988  11.4873825 126.4620152  55.9785214
   7.3490012 123.4874997  58.4429988   6.8890012 123.0034997  59.1289988
   7.6040012 122.8194997  57.8069988   7.3204902 123.3308731  58.4509334
   8.4200012 121.7304997  56.7049988   8.2400012 121.5764997  55.7779988
   9.3700012 121.8384997  56.7499988   8.5237776 121.7240175  56.5841843
  17.8100012 124.0854997  56.1509988  17.5360012 123.6604997  55.3379988
  17.8490012 125.0164997  55.9339988  17.7777699 124.1532484  56.0103610
   8.3170012 132.4214997  57.7069988   9.2500012 132.5794997  57.8499988
   8.0530012 133.0964997  57.0819988   8.4089510 132.5343611  57.6420741
   1.8860012 127.0574997  57.1889988   2.8000012 127.1364997  57.4629988
   1.8930012 126.3704997  56.5229988   2.0121131 126.9753961  57.1364393
  18.9310012 122.9084997  58.3409988  18.4090012 123.2654997  57.6219988
  18.8980012 123.5834997  59.0189988  18.8551634 123.0485413  58.3343145
  17.2800012 120.1484997  56.8919988  17.3760012 120.8154997  56.2109988
  17.1400012 119.3324997  56.4099988  17.2742135 120.1294500  56.7338491
  16.5270012 117.5564997  56.0089988  17.1380012 117.1854997  56.6459988
  15.6910012 117.1354997  56.2049988  16.4975032 117.4487554  56.1227035
  18.6400012 116.4414997  57.5509988  19.0520012 115.7204997  57.0759988
  19.3220012 117.1114997  57.6099988  18.7885885 116.4332368  57.4938915
   2.1970012 114.4894997  58.6569988   2.6360012 115.1004997  58.0649988
   1.5640012 115.0274997  59.1309988   2.1714514 114.6459257  58.6400930
  14.8500012 114.6744997  60.0079988  14.1480012 115.2894997  59.7989988
  14.4060012 113.8364997  60.1389988  14.6936330 114.6455783  59.9970328
   2.0980012 130.4374997  59.5549988   1.4130012 130.3994997  58.8869988
   2.1020012 131.3504997  59.8429988   2.0048193 130.5557016  59.5025284
   4.0580012 116.4054997  57.0989988   4.5500012 115.7754997  56.5719988
   4.6820012 116.7014997  57.7629988   4.2095446 116.3593199  57.1165980
   9.0840012 116.6984997  59.5559988   9.2620012 116.0524997  60.2389988
   9.0310012 117.5324997  60.0239988   9.1011829 116.7227985  59.7125940
  17.6720012 131.2104997  60.6309988  17.4770012 130.4624997  60.0659988
  17.6330012 131.9684997  60.0479988  17.6400380 131.2106099  60.4748384
   3.9160012 131.3574997  56.5799988   3.6490012 131.6444997  57.4529988
   4.6880012 130.8114997  56.7319988   3.9837488 131.3230294  56.7201050
  20.1300012 120.8274997  61.7519988  19.6830012 121.6734997  61.7329988
  19.5690012 120.2474997  61.2359988  19.9929900 120.8649916  61.6796801
  30.0170012 123.0914997  60.2639988  29.3050012 123.6264997  59.9119988
  30.7080012 123.1474997  59.6039988  30.0130132 123.1722543  60.1266289
  30.0700012 121.5494997  57.3029988  30.7710012 121.5714997  57.9539988
  30.3730012 120.9214997  56.6469988  30.2067830 121.4676566  57.3033711
  32.2930012 122.4634997  58.9009988  32.8730012 122.6134997  59.6479988
  32.7070012 122.9344997  58.1779988  32.4282830 122.5476841  58.9054134
  37.1810012 128.5794997  57.0899988  37.2550012 129.5184997  57.2609988
  38.0870012 128.2744997  57.0339988  37.3135100 128.6666722  57.1058119
  32.5940012 131.3104997  57.7529988  32.9690012 130.5664997  57.2829988
  32.5980012 131.0404997  58.6719988  32.6458915 131.1721486  57.8127824
  32.2630012 131.2364997  60.5029988  31.3270012 131.3364997  60.6809988
  32.5430012 130.5274997  61.0809988  32.1728255 131.1542711  60.6055391
  33.7710012 123.4964997  56.5309988  33.8130012 123.2734997  55.6009988
  34.6200012 123.8954997  56.7209988  33.8915396 123.5199155  56.4293627
  29.3430012 117.3724997  57.2009988  29.0900012 117.3914997  58.1239988
  29.0870012 116.5004997  56.8999988  29.2737790 117.2572437  57.2866263
  26.2260012 117.8174997  56.3019988  25.7950012 117.3724997  57.0319988
  25.5080012 118.1894997  55.7899988  26.0699438 117.8068940  56.3326799
  20.7420012 118.3054997  58.7779988  21.2160012 118.8964997  58.1929988
  20.0250012 118.8364997  59.1249988  20.7099341 118.4580867  58.7448836
  26.1700012 119.4004997  60.1179988  27.1010012 119.5294997  60.2959988
  25.9550012 120.0704997  59.4679988  26.2684247 119.5086565  60.0545747
  24.8440012 120.5954997  57.6849988  24.3010012 120.2154997  56.9929988
  25.6770012 120.7894997  57.2559988  24.8824399 120.5698124  57.5324526
  24.0100012 116.6954997  61.9399988  23.6930012 115.7934997  61.9049988
  24.7920012 116.6974997  61.3869988  24.0722284 116.5721628  61.8604783
  28.1790012 125.1604997  59.6199988  27.4340012 124.6534997  59.2979988
  28.0450012 125.2094997  60.5669988  28.0588776 125.0976940  59.7038647
  32.0770012 117.9744997  57.8199988  31.1380012 118.0864997  57.6679988
  32.3740012 118.8314997  58.1259988  31.9887666 118.1056443  57.8405768
  30.3050012 126.6194997  58.6459988  30.0090012 127.4454997  59.0269988
  29.6020012 125.9994997  58.8419988  30.1694914 126.6488199  58.7246443
  37.6800012 120.0514997  59.1749988  37.1260012 119.6554997  58.5029988
  37.7800012 120.9614997  58.8969988  37.6177059 120.1203586  59.0454401
  35.9750012 128.8374997  59.6399988  35.6020012 128.0114997  59.9489988
  36.2530012 128.6544997  58.7429988  35.9615630 128.6997303  59.5609626
  21.4340012 122.8354997  57.3809988  22.0500012 123.4624997  57.7609988
  20.5720012 123.1514997  57.6529988  21.4017698 122.9639430  57.4697183
  33.3680012 126.8134997  57.4599988  33.7210012 126.4334997  58.2649988
  32.4190012 126.7204997  57.5469988  33.2880441 126.7489596  57.5818559
  37.8710012 131.2934997  57.6609988  38.6150012 131.8794997  57.5209988
  37.1770012 131.8614997  57.9949988  37.8790292 131.4505582  57.6869961
  34.2340012 125.4864997  59.6869988  33.9560012 124.7584997  60.2429988
  35.1610012 125.6054997  59.8919988  34.3213124 125.4028802  59.7908845
  27.4590012 127.9254997  55.9069988  27.6980012 127.1774997  55.3599988
  27.1900012 127.5374997  56.7399988  27.4553675 127.7706638  55.9446865
  26.3960012 127.4954997  58.3639988  26.5420012 126.9754997  59.1539988
  26.3930012 128.4024997  58.6699988  26.4155989 127.5468853  58.5136088
  22.8490012 124.7484997  58.8739988  22.1630012 125.1004997  59.4409988
  23.3710012 125.5114997  58.6269988  22.8256852 124.8998578  58.9182118
  29.1330012 129.1934997  59.1129988  28.3170012 129.6904997  59.1649988
  29.6630012 129.6684997  58.4729988  29.0929161 129.3257722  59.0335956
  26.4720012 130.2374997  59.0949988  26.6320012 131.0364997  58.5939988
  26.2740012 130.5434997  59.9799988  26.4671649 130.3884469  59.1459815
  25.2060012 116.9344997  58.7099988  25.1230012 117.8234997  59.0569988
  26.0960012 116.6694997  58.9419988  25.3149469 117.0201430  58.7887626
  23.4650012 127.3624997  57.7709988  24.0570012 128.0614997  58.0469988
  23.9240012 126.9294997  57.0509988  23.6081142 127.3997049  57.7114830
  21.7810012 120.0264997  56.8869988  21.7360012 120.9654997  57.0649988
  20.8930012 119.7904997  56.6169988  21.6548574 120.1231892  56.8748912
  21.5190012 128.7484997  61.7199988  20.6870012 129.2214997  61.7479988
  22.0650012 129.2584997  61.1219988  21.4789739 128.8821871  61.6429716
  29.4970012 129.7884997  56.0459988  28.8530012 129.1574997  56.3669988
  30.2590012 129.2574997  55.8139988  29.5118077 129.6302920  56.0586011
  34.1010012 129.6054997  56.2799988  34.3840012 128.8114997  56.7319988
  34.8410012 129.8384997  55.7189988  34.2397486 129.5282803  56.2660698
  25.0560012 125.5154997  56.1369988  25.1200012 124.7214997  56.6679988
  25.7090012 125.3964997  55.4469988  25.1530241 125.3907148  56.1164317
  30.4080012 126.5624997  55.8729988  30.1390012 126.7424997  56.7739988
  30.2020012 125.6364997  55.7419988  30.3433825 126.4620152  55.9785214
  26.2050012 123.4874997  58.4429988  25.7450012 123.0034997  59.1289988
  26.4600012 122.8194997  57.8069988  26.1764902 123.3308731  58.4509334
  27.2760012 121.7304997  56.7049988  27.0960012 121.5764997  55.7779988
  28.2260012 121.8384997  56.7499988  27.3797776 121.7240175  56.5841843
  36.6660012 124.0854997  56.1509988  36.3920012 123.6604997  55.3379988
  36.7050012 125.0164997  55.9339988  36.6337699 124.1532484  56.0103610
  27.1730012 132.4214997  57.7069988  28.1060012 132.5794997  57.8499988
  26.9090012 133.0964997  57.0819988  27.2649510 132.5343611  57.6420741
  20.7420012 127.0574997  57.1889988  21.6560012 127.1364997  57.4629988
  20.7490012 126.3704997  56.5229988  20.8681131 126.9753961  57.1364393
  37.7870012 122.9084997  58.3409988  37.2650012 123.2654997  57.6219988
  37.7540012 123.5834997  59.0189988  37.7111634 123.0485413  58.3343145
  36.1360012 120.1484997  56.8919988  36.2320012 120.8154997  56.2109988
  35.9960012 119.3324997  56.4099988  36.1302135 120.1294500  56.7338491
  35.3830012 117.5564997  56.0089988  35.9940012 117.1854997  56.6459988
  34.5470012 117.1354997  56.2049988  35.3535032 117.4487554  56.1227035
  35.6290012 116.3744997  61.0229988  35.8120012 115.9254997  61.8489988
  35.0300012 115.7894997  60.5599988  35.5730202 116.2339975  61.0733275
  37.4960012 116.4414997  57.5509988  37.9080012 115.7204997  57.0759988
  38.1780012 117.1114997  57.6099988  37.6445885 116.4332368  57.4938915
  19.7770012 116.4464997  60.6779988  18.8520012 116.6554997  60.5489988
  20.2310012 116.9304997  59.9889988  19.7117368 116.5405994  60.5671226
  21.0530012 114.4894997  58.6569988  21.4920012 115.1004997  58.0649988
  20.4200012 115.0274997  59.1309988  21.0274514 114.6459257  58.6400930
  20.9540012 130.4374997  59.5549988  20.2690012 130.3994997  58.8869988
  20.9580012 131.3504997  59.8429988  20.8608193 130.5557016  59.5025284
  22.9140012 116.4054997  57.0989988  23.4060012 115.7754997  56.5719988
  23.5380012 116.7014997  57.7629988  23.0655446 116.3593199  57.1165980
  29.8190012 131.6474997  57.9519988  30.6850012 132.0134997  57.7739988
  29.5720012 131.2074997  57.1379988  29.9042392 131.6381756  57.8176289
  36.5280012 131.2104997  60.6309988  36.3330012 130.4624997  60.0659988
  36.4890012 131.9684997  60.0479988  36.4960380 131.2106099  60.4748384
  22.7720012 131.3574997  56.5799988  22.5050012 131.6444997  57.4529988
  23.5440012 130.8114997  56.7319988  22.8397488 131.3230294  56.7201050
  38.9860012 120.8274997  61.7519988  38.5390012 121.6734997  61.7329988
  38.4250012 120.2474997  61.2359988  38.8489900 120.8649916  61.6796801
  49.9490012 126.4484997  61.8549988  49.6530012 126.1264997  61.0039988
  49.6240012 127.3484997  61.8959988  49.8646371 126.5260215  61.7441801
  48.8730012 123.0914997  60.2639988  48.1610012 123.6264997  59.9119988
  49.5640012 123.1474997  59.6039988  48.8690132 123.1722543  60.1266289
  48.9260012 121.5494997  57.3029988  49.6270012 121.5714997  57.9539988
  49.2290012 120.9214997  56.6469988  49.0627830 121.4676566  57.3033711
  52.2780012 123.3014997  61.2159988  51.5460012 123.5294997  61.7889988
  52.7260012 122.5874997  61.6709988  52.2383095 123.2362571  61.3559119
  51.1490012 122.4634997  58.9009988  51.7290012 122.6134997  59.6479988
  51.5630012 122.9344997  58.1779988  51.2842830 122.5476841  58.9054134
  54.8480012 114.2134997  58.7139988  53.9480012 114.3524997  59.0089988
  55.1000012 115.0444997  58.3119988  54.7588702 114.3449074  58.7000205
  56.0370012 128.5794997  57.0899988  56.1110012 129.5184997  57.2609988
  56.9430012 128.2744997  57.0339988  56.1695100 128.6666722  57.1058119
  51.4500012 131.3104997  57.7529988  51.8250012 130.5664997  57.2829988
  51.4540012 131.0404997  58.6719988  51.5018915 131.1721486  57.8127824
  52.6270012 123.4964997  56.5309988  52.6690012 123.2734997  55.6009988
  53.4760012 123.8954997  56.7209988  52.7475396 123.5199155  56.4293627
  48.1990012 117.3724997  57.2009988  47.9460012 117.3914997  58.1239988
  47.9430012 116.5004997  56.8999988  48.1297790 117.2572437  57.2866263
  45.0820012 117.8174997  56.3019988  44.6510012 117.3724997  57.0319988
  44.3640012 118.1894997  55.7899988  44.9259438 117.8068940  56.3326799
  39.5980012 118.3054997  58.7779988  40.0720012 118.8964997  58.1929988
  38.8810012 118.8364997  59.1249988  39.5659341 118.4580867  58.7448836
  45.0260012 119.4004997  60.1179988  45.9570012 119.5294997  60.2959988
  44.8110012 120.0704997  59.4679988  45.1244247 119.5086565  60.0545747
  43.7000012 120.5954997  57.6849988  43.1570012 120.2154997  56.9929988
  44.5330012 120.7894997  57.2559988  43.7384399 120.5698124  57.5324526
  47.0350012 125.1604997  59.6199988  46.2900012 124.6534997  59.2979988
  46.9010012 125.2094997  60.5669988  46.9148776 125.0976940  59.7038647
  50.9330012 117.9744997  57.8199988  49.9940012 118.0864997  57.6679988
  51.2300012 118.8314997  58.1259988  50.8447666 118.1056443  57.8405768
  51.6510012 119.8414997  59.4799988  52.5430012 119.7044997  59.7989988
  51.7080012 120.6324997  58.9439988  51.7806285 119.9296660  59.4511691
  49.1610012 126.6194997  58.6459988  48.8650012 127.4454997  59.0269988
  48.4580012 125.9994997  58.8419988  49.0254914 126.6488199  58.7246443
  56.5360012 120.0514997  59.1749988  55.9820012 119.6554997  58.5029988
  56.6360012 120.9614997  58.8969988  56.4737059 120.1203586  59.0454401
  40.2900012 122.8354997  57.3809988  40.9060012 123.4624997  57.7609988
  39.4280012 123.1514997  57.6529988  40.2577698 122.9639430  57.4697183
  52.2240012 126.8134997  57.4599988  52.5770012 126.4334997  58.2649988
  51.2750012 126.7204997  57.5469988  52.1440441 126.7489596  57.5818559
  56.7270012 131.2934997  57.6609988  57.4710012 131.8794997  57.5209988
  56.0330012 131.8614997  57.9949988  56.7350292 131.4505582  57.6869961
  53.0900012 125.4864997  59.6869988  52.8120012 124.7584997  60.2429988
  54.0170012 125.6054997  59.8919988  53.1773124 125.4028802  59.7908845
  46.3150012 127.9254997  55.9069988  46.5540012 127.1774997  55.3599988
  46.0460012 127.5374997  56.7399988  46.3113675 127.7706638  55.9446865
  45.2520012 127.4954997  58.3639988  45.3980012 126.9754997  59.1539988
  45.2490012 128.4024997  58.6699988  45.2715989 127.5468853  58.5136088
  41.7050012 124.7484997  58.8739988  41.0190012 125.1004997  59.4409988
  42.2270012 125.5114997  58.6269988  41.6816852 124.8998578  58.9182118
  50.3210012 117.0624997  60.2499988  50.5410012 117.5344997  59.4469988
  50.8790012 117.4574997  60.9199988  50.4264968 117.1804285  60.2307331
  47.9890012 129.1934997  59.1129988  47.1730012 129.6904997  59.1649988
  48.5190012 129.6684997  58.4729988  47.9489161 129.3257722  59.0335956
  45.3280012 130.2374997  59.0949988  45.4880012 131.0364997  58.5939988
  45.1300012 130.5434997  59.9799988  45.3231649 130.3884469  59.1459815
  44.0620012 116.9344997  58.7099988  43.9790012 117.8234997  59.0569988
  44.9520012 116.6694997  58.9419988  44.1709469 117.0201430  58.7887626
  42.3210012 127.3624997  57.7709988  42.9130012 128.0614997  58.0469988
  42.7800012 126.9294997  57.0509988  42.4641142 127.3997049  57.7114830
  40.6370012 120.0264997  56.8869988  40.5920012 120.9654997  57.0649988
  39.7490012 119.7904997  56.6169988  40.5108574 120.1231892  56.8748912
  48.3530012 129.7884997  56.0459988  47.7090012 129.1574997  56.3669988
  49.1150012 129.2574997  55.8139988  48.3678077 129.6302920  56.0586011
  52.9570012 129.6054997  56.2799988  53.2400012 128.8114997  56.7319988
  53.6970012 129.8384997  55.7189988  53.0957486 129.5282803  56.2660698
  43.9120012 125.5154997  56.1369988  43.9760012 124.7214997  56.6679988
  44.5650012 125.3964997  55.4469988  44.0090241 125.3907148  56.1164317
  49.2640012 126.5624997  55.8729988  48.9950012 126.7424997  56.7739988
  49.0580012 125.6364997  55.7419988  49.1993825 126.4620152  55.9785214
  45.0610012 123.4874997  58.4429988  44.6010012 123.0034997  59.1289988
  45.3160012 122.8194997  57.8069988  45.0324902 123.3308731  58.4509334
  46.1320012 121.7304997  56.7049988  45.9520012 121.5764997  55.7779988
  47.0820012 121.8384997  56.7499988  46.2357776 121.7240175  56.5841843
  55.5220012 124.0854997  56.1509988  55.2480012 123.6604997  55.3379988
  55.5610012 125.0164997  55.9339988  55.4897699 124.1532484  56.0103610
  46.0290012 132.4214997  57.7069988  46.9620012 132.5794997  57.8499988
  45.7650012 133.0964997  57.0819988  46.1209510 132.5343611  57.6420741
  39.5980012 127.0574997  57.1889988  40.5120012 127.1364997  57.4629988
  39.6050012 126.3704997  56.5229988  39.7241131 126.9753961  57.1364393
  56.6430012 122.9084997  58.3409988  56.1210012 123.2654997  57.6219988
  56.6100012 123.5834997  59.0189988  56.5671634 123.0485413  58.3343145
  54.9920012 120.1484997  56.8919988  55.0880012 120.8154997  56.2109988
  54.8520012 119.3324997  56.4099988  54.9862135 120.1294500  56.7338491
  54.2390012 117.5564997  56.0089988  54.8500012 117.1854997  56.6459988
  53.4030012 117.1354997  56.2049988  54.2095032 117.4487554  56.1227035
  56.3520012 116.4414997  57.5509988  56.7640012 115.7204997  57.0759988
  57.0340012 117.1114997  57.6099988  56.5005885 116.4332368  57.4938915
  39.8100012 130.4374997  59.5549988  39.1250012 130.3994997  58.8869988
  39.8140012 131.3504997  59.8429988  39.7168193 130.5557016  59.5025284
  41.7700012 116.4054997  57.0989988  42.2620012 115.7754997  56.5719988
  42.3940012 116.7014997  57.7629988  41.9215446 116.3593199  57.1165980
  46.7960012 116.6984997  59.5559988  46.9740012 116.0524997  60.2389988
  46.7430012 117.5324997  60.0239988  46.8131829 116.7227985  59.7125940
  48.6750012 131.6474997  57.9519988  49.5410012 132.0134997  57.7739988
  48.4280012 131.2074997  57.1379988  48.7602392 131.6381756  57.8176289
  55.3840012 131.2104997  60.6309988  55.1890012 130.4624997  60.0659988
  55.3450012 131.9684997  60.0479988  55.3520380 131.2106099  60.4748384
  41.6280012 131.3574997  56.5799988  41.3610012 131.6444997  57.4529988
  42.4000012 130.8114997  56.7319988  41.6957488 131.3230294  56.7201050
  58.5330012 126.2594997  60.1679988  58.2610012 126.4884997  59.2789988
  58.5790012 127.0974997  60.6279988  58.5020094 126.4041213  60.1085697
  67.7820012 121.5494997  57.3029988  68.4830012 121.5714997  57.9539988
  68.0850012 120.9214997  56.6469988  67.9187830 121.4676566  57.3033711
  70.0050012 122.4634997  58.9009988  70.5850012 122.6134997  59.6479988
  70.4190012 122.9344997  58.1779988  70.1402831 122.5476841  58.9054134
  73.7040012 114.2134997  58.7139988  72.8040012 114.3524997  59.0089988
  73.9560012 115.0444997  58.3119988  73.6148702 114.3449074  58.7000205
  61.7700012 123.0014997  60.6879988  61.4780012 123.7694997  60.1969988
  61.0960012 122.3414997  60.5249988  61.6389081 123.0174406  60.5987340
  74.8930012 128.5794997  57.0899988  74.9670012 129.5184997  57.2609988
  75.7990012 128.2744997  57.0339988  75.0255100 128.6666722  57.1058119
  67.2040012 132.1564997  60.7509988  67.1290012 132.0354997  59.8049988
  67.2370012 133.1064997  60.8699988  67.1981848 132.2682500  60.6374834
  70.3060012 131.3104997  57.7529988  70.6810012 130.5664997  57.2829988
  70.3100012 131.0404997  58.6719988  70.3578915 131.1721486  57.8127824
  69.9750012 131.2364997  60.5029988  69.0390012 131.3364997  60.6809988
  70.2550012 130.5274997  61.0809988  69.8848255 131.1542711  60.6055391
  71.4830012 123.4964997  56.5309988  71.5250012 123.2734997  55.6009988
  72.3320012 123.8954997  56.7209988  71.6035396 123.5199155  56.4293627
  67.0550012 117.3724997  57.2009988  66.8020012 117.3914997  58.1239988
  66.7990012 116.5004997  56.8999988  66.9857790 117.2572437  57.2866263
  68.3540012 120.7604997  61.3649988  67.9450012 121.5754997  61.0739988
  69.0750012 120.6204997  60.7509988  68.3954537 120.8532018  61.2421342
  63.9380012 117.8174997  56.3019988  63.5070012 117.3724997  57.0319988
  63.2200012 118.1894997  55.7899988  63.7819438 117.8068940  56.3326799
  58.4540012 118.3054997  58.7779988  58.9280012 118.8964997  58.1929988
  57.7370012 118.8364997  59.1249988  58.4219341 118.4580867  58.7448836
  62.5560012 120.5954997  57.6849988  62.0130012 120.2154997  56.9929988
  63.3890012 120.7894997  57.2559988  62.5944399 120.5698124  57.5324526
  65.8910012 125.1604997  59.6199988  65.1460012 124.6534997  59.2979988
  65.7570012 125.2094997  60.5669988  65.7708776 125.0976940  59.7038647
  69.7890012 117.9744997  57.8199988  68.8500012 118.0864997  57.6679988
  70.0860012 118.8314997  58.1259988  69.7007666 118.1056443  57.8405768
  75.3920012 120.0514997  59.1749988  74.8380012 119.6554997  58.5029988
  75.4920012 120.9614997  58.8969988  75.3297059 120.1203586  59.0454401
  73.6870012 128.8374997  59.6399988  73.3140012 128.0114997  59.9489988
  73.9650012 128.6544997  58.7429988  73.6735630 128.6997303  59.5609626
  59.1460012 122.8354997  57.3809988  59.7620012 123.4624997  57.7609988
  58.2840012 123.1514997  57.6529988  59.1137698 122.9639430  57.4697183
  71.0800012 126.8134997  57.4599988  71.4330012 126.4334997  58.2649988
  70.1310012 126.7204997  57.5469988  71.0000441 126.7489596  57.5818559
  75.5830012 131.2934997  57.6609988  76.3270012 131.8794997  57.5209988
  74.8890012 131.8614997  57.9949988  75.5910292 131.4505582  57.6869961
  65.1710012 127.9254997  55.9069988  65.4100012 127.1774997  55.3599988
  64.9020012 127.5374997  56.7399988  65.1673675 127.7706638  55.9446865
  64.1080012 127.4954997  58.3639988  64.2540012 126.9754997  59.1539988
  64.1050012 128.4024997  58.6699988  64.1275989 127.5468853  58.5136088
  60.5610012 124.7484997  58.8739988  59.8750012 125.1004997  59.4409988
  61.0830012 125.5114997  58.6269988  60.5376852 124.8998578  58.9182118
  69.1770012 117.0624997  60.2499988  69.3970012 117.5344997  59.4469988
  69.7350012 117.4574997  60.9199988  69.2824968 117.1804285  60.2307331
  66.8450012 129.1934997  59.1129988  66.0290012 129.6904997  59.1649988
  67.3750012 129.6684997  58.4729988  66.8049161 129.3257722  59.0335956
  66.3770012 118.7904997  61.0849988  67.1890012 119.2954997  61.1309988
  66.1320012 118.6454997  61.9989988  66.4550520 118.8400375  61.2148517
  67.2600012 115.8714997  62.0229988  66.9140012 116.4894997  62.6679988
  67.9190012 116.3724997  61.5419988  67.3017826 116.0235802  62.0460971
  62.9180012 116.9344997  58.7099988  62.8350012 117.8234997  59.0569988
  63.8080012 116.6694997  58.9419988  63.0269469 117.0201430  58.7887626
  61.1770012 127.3624997  57.7709988  61.7690012 128.0614997  58.0469988
  61.6360012 126.9294997  57.0509988  61.3201142 127.3997049  57.7114830
  59.4930012 120.0264997  56.8869988  59.4480012 120.9654997  57.0649988
  58.6050012 119.7904997  56.6169988  59.3668574 120.1231892  56.8748912
  59.2310012 128.7484997  61.7199988  58.3990012 129.2214997  61.7479988
  59.7770012 129.2584997  61.1219988  59.1909739 128.8821871  61.6429716
  67.2090012 129.7884997  56.0459988  66.5650012 129.1574997  56.3669988
  67.9710012 129.2574997  55.8139988  67.2238077 129.6302920  56.0586011
  71.8130012 129.6054997  56.2799988  72.0960012 128.8114997  56.7319988
  72.5530012 129.8384997  55.7189988  71.9517486 129.5282803  56.2660698
  62.7680012 125.5154997  56.1369988  62.8320012 124.7214997  56.6679988
  63.4210012 125.3964997  55.4469988  62.8650241 125.3907148  56.1164317
  68.1200012 126.5624997  55.8729988  67.8510012 126.7424997  56.7739988
  67.9140012 125.6364997  55.7419988  68.0553825 126.4620152  55.9785214
  63.9170012 123.4874997  58.4429988  63.4570012 123.0034997  59.1289988
  64.1720012 122.8194997  57.8069988  63.8884902 123.3308731  58.4509334
  64.9880012 121.7304997  56.7049988  64.8080012 121.5764997  55.7779988
  65.9380012 121.8384997  56.7499988  65.0917776 121.7240175  56.5841843
  74.3780012 124.0854997  56.1509988  74.1040012 123.6604997  55.3379988
  74.4170012 125.0164997  55.9339988  74.3457699 124.1532484  56.0103610
  64.8850012 132.4214997  57.7069988  65.8180012 132.5794997  57.8499988
  64.6210012 133.0964997  57.0819988  64.9769510 132.5343611  57.6420741
  58.4540012 127.0574997  57.1889988  59.3680012 127.1364997  57.4629988
  58.4610012 126.3704997  56.5229988  58.5801131 126.9753961  57.1364393
  74.8360012 124.9544997  60.1259988  75.6860012 125.3754997  60.2529988
  74.8420012 124.2144997  60.7329988  74.9531372 124.9120803  60.2254344
  75.4990012 122.9084997  58.3409988  74.9770012 123.2654997  57.6219988
  75.4660012 123.5834997  59.0189988  75.4231634 123.0485413  58.3343145
  73.8480012 120.1484997  56.8919988  73.9440012 120.8154997  56.2109988
  73.7080012 119.3324997  56.4099988  73.8422135 120.1294500  56.7338491
  73.0950012 117.5564997  56.0089988  73.7060012 117.1854997  56.6459988
  72.2590012 117.1354997  56.2049988  73.0655032 117.4487554  56.1227035
  75.2080012 116.4414997  57.5509988  75.6200012 115.7204997  57.0759988
  75.8900012 117.1114997  57.6099988  75.3565885 116.4332368  57.4938915
  58.7650012 114.4894997  58.6569988  59.2040012 115.1004997  58.0649988
  58.1320012 115.0274997  59.1309988  58.7394514 114.6459257  58.6400930
  71.4180012 114.6744997  60.0079988  70.7160012 115.2894997  59.7989988
  70.9740012 113.8364997  60.1389988  71.2616330 114.6455783  59.9970328
  58.6660012 130.4374997  59.5549988  57.9810012 130.3994997  58.8869988
  58.6700012 131.3504997  59.8429988  58.5728193 130.5557016  59.5025284
  60.6260012 116.4054997  57.0989988  61.1180012 115.7754997  56.5719988
  61.2500012 116.7014997  57.7629988  60.7775446 116.3593199  57.1165980
  65.6520012 116.6984997  59.5559988  65.8300012 116.0524997  60.2389988
  65.5990012 117.5324997  60.0239988  65.6691829 116.7227985  59.7125940
  67.5310012 131.6474997  57.9519988  68.3970012 132.0134997  57.7739988
  67.2840012 131.2074997  57.1379988  67.6162392 131.6381756  57.8176289
  60.4840012 131.3574997  56.5799988  60.2170012 131.6444997  57.4529988
  61.2560012 130.8114997  56.7319988  60.5517488 131.3230294  56.7201050
  77.3890012 126.2594997  60.1679988  77.1170012 126.4884997  59.2789988
  77.4350012 127.0974997  60.6279988  77.3580094 126.4041213  60.1085697
  86.5850012 123.0914997  60.2639988  85.8730012 123.6264997  59.9119988
  87.2760012 123.1474997  59.6039988  86.5810132 123.1722543  60.1266289
  86.6380012 121.5494997  57.3029988  87.3390012 121.5714997  57.9539988
  86.9410012 120.9214997  56.6469988  86.7747830 121.4676566  57.3033711
  88.8610012 122.4634997  58.9009988  89.4410012 122.6134997  59.6479988
  89.2750012 122.9344997  58.1779988  88.9962830 122.5476841  58.9054134
  92.5600012 114.2134997  58.7139988  91.6600012 114.3524997  59.0089988
  92.8120012 115.0444997  58.3119988  92.4708702 114.3449074  58.7000205
  93.7490012 128.5794997  57.0899988  93.8230012 129.5184997  57.2609988
  94.6550012 128.2744997  57.0339988  93.8815100 128.6666722  57.1058119
  89.1620012 131.3104997  57.7529988  89.5370012 130.5664997  57.2829988
  89.1660012 131.0404997  58.6719988  89.2138915 131.1721486  57.8127824
  88.8310012 131.2364997  60.5029988  87.8950012 131.3364997  60.6809988
  89.1110012 130.5274997  61.0809988  88.7408255 131.1542711  60.6055391
  90.3390012 123.4964997  56.5309988  90.3810012 123.2734997  55.6009988
  91.1880012 123.8954997  56.7209988  90.4595396 123.5199155  56.4293627
  85.9110012 117.3724997  57.2009988  85.6580012 117.3914997  58.1239988
  85.6550012 116.5004997  56.8999988  85.8417790 117.2572437  57.2866263
  82.7940012 117.8174997  56.3019988  82.3630012 117.3724997  57.0319988
  82.0760012 118.1894997  55.7899988  82.6379438 117.8068940  56.3326799
  77.3100012 118.3054997  58.7779988  77.7840012 118.8964997  58.1929988
  76.5930012 118.8364997  59.1249988  77.2779341 118.4580867  58.7448836
  82.7380012 119.4004997  60.1179988  83.6690012 119.5294997  60.2959988
  82.5230012 120.0704997  59.4679988  82.8364247 119.5086565  60.0545747
  81.4120012 120.5954997  57.6849988  80.8690012 120.2154997  56.9929988
  82.2450012 120.7894997  57.2559988  81.4504399 120.5698124  57.5324526
  88.6450012 117.9744997  57.8199988  87.7060012 118.0864997  57.6679988
  88.9420012 118.8314997  58.1259988  88.5567666 118.1056443  57.8405768
  89.3630012 119.8414997  59.4799988  90.2550012 119.7044997  59.7989988
  89.4200012 120.6324997  58.9439988  89.4926285 119.9296660  59.4511691
  86.8730012 126.6194997  58.6459988  86.5770012 127.4454997  59.0269988
  86.1700012 125.9994997  58.8419988  86.7374914 126.6488199  58.7246443
  94.2480012 120.0514997  59.1749988  93.6940012 119.6554997  58.5029988
  94.3480012 120.9614997  58.8969988  94.1857059 120.1203586  59.0454401
  78.0020012 122.8354997  57.3809988  78.6180012 123.4624997  57.7609988
  77.1400012 123.1514997  57.6529988  77.9697698 122.9639430  57.4697183
  82.3570012 130.6584997  61.9159988  81.4070012 130.7634997  61.9669988
  82.7090012 131.4784997  62.2609988  82.2744203 130.7838314  61.9696650
  89.9360012 126.8134997  57.4599988  90.2890012 126.4334997  58.2649988
  88.9870012 126.7204997  57.5469988  89.8560441 126.7489596  57.5818559
  94.4390012 131.2934997  57.6609988  95.1830012 131.8794997  57.5209988
  93.7450012 131.8614997  57.9949988  94.4470292 131.4505582  57.6869961
  84.0270012 127.9254997  55.9069988  84.2660012 127.1774997  55.3599988
  83.7580012 127.5374997  56.7399988  84.0233675 127.7706638  55.9446865
  82.9640012 127.4954997  58.3639988  83.1100012 126.9754997  59.1539988
  82.9610012 128.4024997  58.6699988  82.9835989 127.5468853  58.5136088
  79.4170012 124.7484997  58.8739988  78.7310012 125.1004997  59.4409988
  79.9390012 125.5114997  58.6269988  79.3936852 124.8998578  58.9182118
  85.7010012 129.1934997  59.1129988  84.8850012 129.6904997  59.1649988
  86.2310012 129.6684997  58.4729988  85.6609161 129.3257722  59.0335956
  83.0400012 130.2374997  59.0949988  83.2000012 131.0364997  58.5939988
  82.8420012 130.5434997  59.9799988  83.0351649 130.3884469  59.1459815
  81.7740012 116.9344997  58.7099988  81.6910012 117.8234997  59.0569988
  82.6640012 116.6694997  58.9419988  81.8829469 117.0201430  58.7887626
  80.0330012 127.3624997  57.7709988  80.6250012 128.0614997  58.0469988
  80.4920012 126.9294997  57.0509988  80.1761142 127.3997049  57.7114830
  78.3490012 120.0264997  56.8869988  78.3040012 120.9654997  57.0649988
  77.4610012 119.7904997  56.6169988  78.2228574 120.1231892  56.8748912
  86.0650012 129.7884997  56.0459988  85.4210012 129.1574997  56.3669988
  86.8270012 129.2574997  55.8139988  86.0798077 129.6302920  56.0586011
  90.6690012 129.6054997  56.2799988  90.9520012 128.8114997  56.7319988
  91.4090012 129.8384997  55.7189988  90.8077486 129.5282803  56.2660698
  81.6240012 125.5154997  56.1369988  81.6880012 124.7214997  56.6679988
  82.2770012 125.3964997  55.4469988  81.7210241 125.3907148  56.1164317
  86.9760012 126.5624997  55.8729988  86.7070012 126.7424997  56.7739988
  86.7700012 125.6364997  55.7419988  86.9113825 126.4620152  55.9785214
  82.7730012 123.4874997  58.4429988  82.3130012 123.0034997  59.1289988
  83.0280012 122.8194997  57.8069988  82.7444902 123.3308731  58.4509334
  83.8440012 121.7304997  56.7049988  83.6640012 121.5764997  55.7779988
  84.7940012 121.8384997  56.7499988  83.9477776 121.7240175  56.5841843
  93.2340012 124.0854997  56.1509988  92.9600012 123.6604997  55.3379988
  93.2730012 125.0164997  55.9339988  93.2017699 124.1532484  56.0103610
  83.7410012 132.4214997  57.7069988  84.6740012 132.5794997  57.8499988
  83.4770012 133.0964997  57.0819988  83.8329510 132.5343611  57.6420741
  77.3100012 127.0574997  57.1889988  78.2240012 127.1364997  57.4629988
  77.3170012 126.3704997  56.5229988  77.4361131 126.9753961  57.1364393
  94.3550012 122.9084997  58.3409988  93.8330012 123.2654997  57.6219988
  94.3220012 123.5834997  59.0189988  94.2791634 123.0485413  58.3343145
  92.7040012 120.1484997  56.8919988  92.8000012 120.8154997  56.2109988
  92.5640012 119.3324997  56.4099988  92.6982135 120.1294500  56.7338491
  91.9510012 117.5564997  56.0089988  92.5620012 117.1854997  56.6459988
  91.1150012 117.1354997  56.2049988  91.9215032 117.4487554  56.1227035
  91.5840012 119.1114997  60.9749988  91.8640012 118.2044997  61.0989988
  92.3430012 119.5454997  60.5859988  91.7249277 119.0460942  60.9393682
  94.0640012 116.4414997  57.5509988  94.4760012 115.7204997  57.0759988
  94.7460012 117.1114997  57.6099988  94.2125885 116.4332368  57.4938915
  77.6210012 114.4894997  58.6569988  78.0600012 115.1004997  58.0649988
  76.9880012 115.0274997  59.1309988  77.5954514 114.6459257  58.6400930
  90.2740012 114.6744997  60.0079988  89.5720012 115.2894997  59.7989988
  89.8300012 113.8364997  60.1389988  90.1176330 114.6455783  59.9970328
  79.4820012 116.4054997  57.0989988  79.9740012 115.7754997  56.5719988
  80.1060012 116.7014997  57.7629988  79.6335446 116.3593199  57.1165980
  84.5080012 116.6984997  59.5559988  84.6860012 116.0524997  60.2389988
  84.4550012 117.5324997  60.0239988  84.5251829 116.7227985  59.7125940
  86.3870012 131.6474997  57.9519988  87.2530012 132.0134997  57.7739988
  86.1400012 131.2074997  57.1379988  86.4722392 131.6381756  57.8176289
  79.3400012 131.3574997  56.5799988  79.0730012 131.6444997  57.4529988
  80.1120012 130.8114997  56.7319988  79.4077488 131.3230294  56.7201050
  96.2450012 126.2594997  60.1679988  95.9730012 126.4884997  59.2789988
  96.2910012 127.0974997  60.6279988  96.2140094 126.4041213  60.1085697
 105.4410012 123.0914997  60.2639988 104.7290012 123.6264997  59.9119988
 106.1320012 123.1474997  59.6039988 105.4370132 123.1722543  60.1266289
 105.4940012 121.5494997  57.3029988 106.1950012 121.5714997  57.9539988
 105.7970012 120.9214997  56.6469988 105.6307830 121.4676566  57.3033711
 107.7170012 122.4634997  58.9009988 108.2970012 122.6134997  59.6479988
 108.1310012 122.9344997  58.1779988 107.8522830 122.5476841  58.9054134
 111.4160012 114.2134997  58.7139988 110.5160012 114.3524997  59.0089988
 111.6680012 115.0444997  58.3119988 111.3268702 114.3449074  58.7000205
 112.6050012 128.5794997  57.0899988 112.6790012 129.5184997  57.2609988
 113.5110012 128.2744997  57.0339988 112.7375100 128.6666722  57.1058119
 108.0180012 131.3104997  57.7529988 108.3930012 130.5664997  57.2829988
 108.0220012 131.0404997  58.6719988 108.0698915 131.1721486  57.8127824
 107.6870012 131.2364997  60.5029988 106.7510012 131.3364997  60.6809988
 107.9670012 130.5274997  61.0809988 107.5968255 131.1542711  60.6055391
 109.1950012 123.4964997  56.5309988 109.2370012 123.2734997  55.6009988
 110.0440012 123.8954997  56.7209988 109.3155396 123.5199155  56.4293627
 104.7670012 117.3724997  57.2009988 104.5140012 117.3914997  58.1239988
 104.5110012 116.5004997  56.8999988 104.6977790 117.2572437  57.2866263
 106.0660012 120.7604997  61.3649988 105.6570012 121.5754997  61.0739988
 106.7870012 120.6204997  60.7509988 106.1074537 120.8532018  61.2421342
 101.6500012 117.8174997  56.3019988 101.2190012 117.3724997  57.0319988
 100.9320012 118.1894997  55.7899988 101.4939438 117.8068940  56.3326799
  96.1660012 118.3054997  58.7779988  96.6400012 118.8964997  58.1929988
  95.4490012 118.8364997  59.1249988  96.1339341 118.4580867  58.7448836
 100.2680012 120.5954997  57.6849988  99.7250012 120.2154997  56.9929988
 101.1010012 120.7894997  57.2559988 100.3064399 120.5698124  57.5324526
 103.6030012 125.1604997  59.6199988 102.8580012 124.6534997  59.2979988
 103.4690012 125.2094997  60.5669988 103.4828776 125.0976940  59.7038647
 107.5010012 117.9744997  57.8199988 106.5620012 118.0864997  57.6679988
 107.7980012 118.8314997  58.1259988 107.4127666 118.1056443  57.8405768
 108.2190012 119.8414997  59.4799988 109.1110012 119.7044997  59.7989988
 108.2760012 120.6324997  58.9439988 108.3486285 119.9296660  59.4511691
 105.7290012 126.6194997  58.6459988 105.4330012 127.4454997  59.0269988
 105.0260012 125.9994997  58.8419988 105.5934914 126.6488199  58.7246443
 113.1040012 120.0514997  59.1749988 112.5500012 119.6554997  58.5029988
 113.2040012 120.9614997  58.8969988 113.0417059 120.1203586  59.0454401
 111.3990012 128.8374997  59.6399988 111.0260012 128.0114997  59.9489988
 111.6770012 128.6544997  58.7429988 111.3855630 128.6997303  59.5609626
  96.8580012 122.8354997  57.3809988  97.4740012 123.4624997  57.7609988
  95.9960012 123.1514997  57.6529988  96.8257698 122.9639430  57.4697183
 108.7920012 126.8134997  57.4599988 109.1450012 126.4334997  58.2649988
 107.8430012 126.7204997  57.5469988 108.7120441 126.7489596  57.5818559
 113.2950012 131.2934997  57.6609988 114.0390012 131.8794997  57.5209988
 112.6010012 131.8614997  57.9949988 113.3030292 131.4505582  57.6869961
 102.8830012 127.9254997  55.9069988 103.1220012 127.1774997  55.3599988
 102.6140012 127.5374997  56.7399988 102.8793675 127.7706638  55.9446865
 101.8200012 127.4954997  58.3639988 101.9660012 126.9754997  59.1539988
 101.8170012 128.4024997  58.6699988 101.8395989 127.5468853  58.5136088
  98.2730012 124.7484997  58.8739988  97.5870012 125.1004997  59.4409988
  98.7950012 125.5114997  58.6269988  98.2496852 124.8998578  58.9182118
 106.8890012 117.0624997  60.2499988 107.1090012 117.5344997  59.4469988
 107.4470012 117.4574997  60.9199988 106.9944968 117.1804285  60.2307331
 104.5570012 129.1934997  59.1129988 103.7410012 129.6904997  59.1649988
 105.0870012 129.6684997  58.4729988 104.5169161 129.3257722  59.0335956
 101.8960012 130.2374997  59.0949988 102.0560012 131.0364997  58.5939988
 101.6980012 130.5434997  59.9799988 101.8911649 130.3884469  59.1459815
 100.6300012 116.9344997  58.7099988 100.5470012 117.8234997  59.0569988
 101.5200012 116.6694997  58.9419988 100.7389469 117.0201430  58.7887626
  98.8890012 127.3624997  57.7709988  99.4810012 128.0614997  58.0469988
  99.3480012 126.9294997  57.0509988  99.0321142 127.3997049  57.7114830
  97.2050012 120.0264997  56.8869988  97.1600012 120.9654997  57.0649988
  96.3170012 119.7904997  56.6169988  97.0788574 120.1231892  56.8748912
 104.9210012 129.7884997  56.0459988 104.2770012 129.1574997  56.3669988
 105.6830012 129.2574997  55.8139988 104.9358077 129.6302920  56.0586011
 109.5250012 129.6054997  56.2799988 109.8080012 128.8114997  56.7319988
 110.2650012 129.8384997  55.7189988 109.6637486 129.5282803  56.2660698
 100.4800012 125.5154997  56.1369988 100.5440012 124.7214997  56.6679988
 101.1330012 125.3964997  55.4469988 100.5770241 125.3907148  56.1164317
 105.8320012 126.5624997  55.8729988 105.5630012 126.7424997  56.7739988
 105.6260012 125.6364997  55.7419988 105.7673825 126.4620152  55.9785214
 101.6290012 123.4874997  58.4429988 101.1690012 123.0034997  59.1289988
 101.8840012 122.8194997  57.8069988 101.6004902 123.3308731  58.4509334
 102.7000012 121.7304997  56.7049988 102.5200012 121.5764997  55.7779988
 103.6500012 121.8384997  56.7499988 102.8037776 121.7240175  56.5841843
 112.0900012 124.0854997  56.1509988 111.8160012 123.6604997  55.3379988
 112.1290012 125.0164997  55.9339988 112.0577699 124.1532484  56.0103610
 102.5970012 132.4214997  57.7069988 103.5300012 132.5794997  57.8499988
 102.3330012 133.0964997  57.0819988 102.6889510 132.5343611  57.6420741
  96.1660012 127.0574997  57.1889988  97.0800012 127.1364997  57.4629988
  96.1730012 126.3704997  56.5229988  96.2921131 126.9753961  57.1364393
 113.2110012 122.9084997  58.3409988 112.6890012 123.2654997  57.6219988
 113.1780012 123.5834997  59.0189988 113.1351634 123.0485413  58.3343145
 111.5600012 120.1484997  56.8919988 111.6560012 120.8154997  56.2109988
 111.4200012 119.3324997  56.4099988 111.5542135 120.1294500  56.7338491
 110.8070012 117.5564997  56.0089988 111.4180012 117.1854997  56.6459988
 109.9710012 117.1354997  56.2049988 110.7775032 117.4487554  56.1227035
 112.9200012 116.4414997  57.5509988 113.3320012 115.7204997  57.0759988
 113.6020012 117.1114997  57.6099988 113.0685885 116.4332368  57.4938915
  96.3780012 130.4374997  59.5549988  95.6930012 130.3994997  58.8869988
  96.3820012 131.3504997  59.8429988  96.2848193 130.5557016  59.5025284
  98.3380012 116.4054997  57.0989988  98.8300012 115.7754997  56.5719988
  98.9620012 116.7014997  57.7629988  98.4895446 116.3593199  57.1165980
 103.3640012 116.6984997  59.5559988 103.5420012 116.0524997  60.2389988
 103.3110012 117.5324997  60.0239988 103.3811829 116.7227985  59.7125940
 105.2430012 131.6474997  57.9519988 106.1090012 132.0134997  57.7739988
 104.9960012 131.2074997  57.1379988 105.3282392 131.6381756  57.8176289
 111.9520012 131.2104997  60.6309988 111.7570012 130.4624997  60.0659988
 111.9130012 131.9684997  60.0479988 111.9200380 131.2106099  60.4748384
  98.1960012 131.3574997  56.5799988  97.9290012 131.6444997  57.4529988
  98.9680012 130.8114997  56.7319988  98.2637488 131.3230294  56.7201050
 115.1010012 126.2594997  60.1679988 114.8290012 126.4884997  59.2789988
 115.1470012 127.0974997  60.6279988 115.0700094 126.4041213  60.1085697
 124.3500012 121.5494997  57.3029988 125.0510012 121.5714997  57.9539988
 124.6530012 120.9214997  56.6469988 124.4867830 121.4676566  57.3033711
 126.5730012 122.4634997  58.9009988 127.1530012 122.6134997  59.6479988
 126.9870012 122.9344997  58.1779988 126.7082830 122.5476841  58.9054134
 130.2720012 114.2134997  58.7139988 129.3720012 114.3524997  59.0089988
 130.5240012 115.0444997  58.3119988 130.1828702 114.3449074  58.7000205
 131.4610012 128.5794997  57.0899988 131.5350012 129.5184997  57.2609988
 132.3670012 128.2744997  57.0339988 131.5935100 128.6666722  57.1058119
 123.7720012 132.1564997  60.7509988 123.6970012 132.0354997  59.8049988
 123.8050012 133.1064997  60.8699988 123.7661848 132.2682500  60.6374834
 126.8740012 131.3104997  57.7529988 127.2490012 130.5664997  57.2829988
 126.8780012 131.0404997  58.6719988 126.9258915 131.1721486  57.8127824
 126.5430012 131.2364997  60.5029988 125.6070012 131.3364997  60.6809988
 126.8230012 130.5274997  61.0809988 126.4528255 131.1542711  60.6055391
 128.0510012 123.4964997  56.5309988 128.0930012 123.2734997  55.6009988
 128.9000012 123.8954997  56.7209988 128.1715396 123.5199155  56.4293627
 123.6230012 117.3724997  57.2009988 123.3700012 117.3914997  58.1239988
 123.3670012 116.5004997  56.8999988 123.5537790 117.2572437  57.2866263
 120.5060012 117.8174997  56.3019988 120.0750012 117.3724997  57.0319988
 119.7880012 118.1894997  55.7899988 120.3499438 117.8068940  56.3326799
 115.0220012 118.3054997  58.7779988 115.4960012 118.8964997  58.1929988
 114.3050012 118.8364997  59.1249988 114.9899341 118.4580867  58.7448836
 120.4500012 119.4004997  60.1179988 121.3810012 119.5294997  60.2959988
 120.2350012 120.0704997  59.4679988 120.5484247 119.5086565  60.0545747
 119.1240012 120.5954997  57.6849988 118.5810012 120.2154997  56.9929988
 119.9570012 120.7894997  57.2559988 119.1624399 120.5698124  57.5324526
 122.4590012 125.1604997  59.6199988 121.7140012 124.6534997  59.2979988
 122.3250012 125.2094997  60.5669988 122.3388776 125.0976940  59.7038647
 126.3570012 117.9744997  57.8199988 125.4180012 118.0864997  57.6679988
 126.6540012 118.8314997  58.1259988 126.2687666 118.1056443  57.8405768
 127.0750012 119.8414997  59.4799988 127.9670012 119.7044997  59.7989988
 127.1320012 120.6324997  58.9439988 127.2046285 119.9296660  59.4511691
 124.5850012 126.6194997  58.6459988 124.2890012 127.4454997  59.0269988
 123.8820012 125.9994997  58.8419988 124.4494914 126.6488199  58.7246443
 131.9600012 120.0514997  59.1749988 131.4060012 119.6554997  58.5029988
 132.0600012 120.9614997  58.8969988 131.8977059 120.1203586  59.0454401
 130.2550012 128.8374997  59.6399988 129.8820012 128.0114997  59.9489988
 130.5330012 128.6544997  58.7429988 130.2415630 128.6997303  59.5609626
 115.7140012 122.8354997  57.3809988 116.3300012 123.4624997  57.7609988
 114.8520012 123.1514997  57.6529988 115.6817698 122.9639430  57.4697183
 127.6480012 126.8134997  57.4599988 128.0010012 126.4334997  58.2649988
 126.6990012 126.7204997  57.5469988 127.5680441 126.7489596  57.5818559
 132.1510012 131.2934997  57.6609988 132.8950012 131.8794997  57.5209988
 131.4570012 131.8614997  57.9949988 132.1590292 131.4505582  57.6869961
 128.5140012 125.4864997  59.6869988 128.2360012 124.7584997  60.2429988
 129.4410012 125.6054997  59.8919988 128.6013124 125.4028802  59.7908845
 121.7390012 127.9254997  55.9069988 121.9780012 127.1774997  55.3599988
 121.4700012 127.5374997  56.7399988 121.7353675 127.7706638  55.9446865
 120.6760012 127.4954997  58.3639988 120.8220012 126.9754997  59.1539988
 120.6730012 128.4024997  58.6699988 120.6955989 127.5468853  58.5136088
 117.1290012 124.7484997  58.8739988 116.4430012 125.1004997  59.4409988
 117.6510012 125.5114997  58.6269988 117.1056852 124.8998578  58.9182118
 123.4130012 129.1934997  59.1129988 122.5970012 129.6904997  59.1649988
 123.9430012 129.6684997  58.4729988 123.3729161 129.3257722  59.0335956
 120.7520012 130.2374997  59.0949988 120.9120012 131.0364997  58.5939988
 120.5540012 130.5434997  59.9799988 120.7471649 130.3884469  59.1459815
 119.4860012 116.9344997  58.7099988 119.4030012 117.8234997  59.0569988
 120.3760012 116.6694997  58.9419988 119.5949469 117.0201430  58.7887626
 117.7450012 127.3624997  57.7709988 118.3370012 128.0614997  58.0469988
 118.2040012 126.9294997  57.0509988 117.8881142 127.3997049  57.7114830
 116.0610012 120.0264997  56.8869988 116.0160012 120.9654997  57.0649988
 115.1730012 119.7904997  56.6169988 115.9348574 120.1231892  56.8748912
 123.7770012 129.7884997  56.0459988 123.1330012 129.1574997  56.3669988
 124.5390012 129.2574997  55.8139988 123.7918077 129.6302920  56.0586011
 128.3810012 129.6054997  56.2799988 128.6640012 128.8114997  56.7319988
 129.1210012 129.8384997  55.7189988 128.5197486 129.5282803  56.2660698
 119.3360012 125.5154997  56.1369988 119.4000012 124.7214997  56.6679988
 119.9890012 125.3964997  55.4469988 119.4330241 125.3907148  56.1164317
 124.6880012 126.5624997  55.8729988 124.4190012 126.7424997  56.7739988
 124.4820012 125.6364997  55.7419988 124.6233825 126.4620152  55.9785214
 120.4850012 123.4874997  58.4429988 120.0250012 123.0034997  59.1289988
 120.7400012 122.8194997  57.8069988 120.4564902 123.3308731  58.4509334
 121.5560012 121.7304997  56.7049988 121.3760012 121.5764997  55.7779988
 122.5060012 121.8384997  56.7499988 121.6597776 121.7240175  56.5841843
 130.9460012 124.0854997  56.1509988 130.6720012 123.6604997  55.3379988
 130.9850012 125.0164997  55.9339988 130.9137699 124.1532484  56.0103610
 121.4530012 132.4214997  57.7069988 122.3860012 132.5794997  57.8499988
 121.1890012 133.0964997  57.0819988 121.5449510 132.5343611  57.6420741
 115.0220012 127.0574997  57.1889988 115.9360012 127.1364997  57.4629988
 115.0290012 126.3704997  56.5229988 115.1481131 126.9753961  57.1364393
 132.0670012 122.9084997  58.3409988 131.5450012 123.2654997  57.6219988
 132.0340012 123.5834997  59.0189988 131.9911634 123.0485413  58.3343145
 130.4160012 120.1484997  56.8919988 130.5120012 120.8154997  56.2109988
 130.2760012 119.3324997  56.4099988 130.4102135 120.1294500  56.7338491
 129.6630012 117.5564997  56.0089988 130.2740012 117.1854997  56.6459988
 128.8270012 117.1354997  56.2049988 129.6335032 117.4487554  56.1227035
 129.2960012 119.1114997  60.9749988 129.5760012 118.2044997  61.0989988
 130.0550012 119.5454997  60.5859988 129.4369277 119.0460942  60.9393682
 131.7760012 116.4414997  57.5509988 132.1880012 115.7204997  57.0759988
 132.4580012 117.1114997  57.6099988 131.9245885 116.4332368  57.4938915
 114.0570012 116.4464997  60.6779988 113.1320012 116.6554997  60.5489988
 114.5110012 116.9304997  59.9889988 113.9917368 116.5405994  60.5671226
 115.3330012 114.4894997  58.6569988 115.7720012 115.1004997  58.0649988
 114.7000012 115.0274997  59.1309988 115.3074514 114.6459257  58.6400930
 117.1940012 116.4054997  57.0989988 117.6860012 115.7754997  56.5719988
 117.8180012 116.7014997  57.7629988 117.3455446 116.3593199  57.1165980
 122.2200012 116.6984997  59.5559988 122.3980012 116.0524997  60.2389988
 122.1670012 117.5324997  60.0239988 122.2371829 116.7227985  59.7125940
 124.0990012 131.6474997  57.9519988 124.9650012 132.0134997  57.7739988
 123.8520012 131.2074997  57.1379988 124.1842392 131.6381756  57.8176289
 117.0520012 131.3574997  56.5799988 116.7850012 131.6444997  57.4529988
 117.8240012 130.8114997  56.7319988 117.1197488 131.3230294  56.7201050
 144.2290012 126.4484997  61.8549988 143.9330012 126.1264997  61.0039988
 143.9040012 127.3484997  61.8959988 144.1446371 126.5260215  61.7441801
 133.9570012 126.2594997  60.1679988 133.6850012 126.4884997  59.2789988
 134.0030012 127.0974997  60.6279988 133.9260094 126.4041213  60.1085697
 143.1530012 123.0914997  60.2639988 142.4410012 123.6264997  59.9119988
 143.8440012 123.1474997  59.6039988 143.1490132 123.1722543  60.1266289
 143.2060012 121.5494997  57.3029988 143.9070012 121.5714997  57.9539988
 143.5090012 120.9214997  56.6469988 143.3427830 121.4676566  57.3033711
 143.1560012 129.2004997  62.3359988 143.6300012 129.4954997  63.1139988
 142.5930012 129.9384997  62.1029988 143.1447653 129.3406932  62.4110136
 137.1940012 123.0014997  60.6879988 136.9020012 123.7694997  60.1969988
 136.5200012 122.3414997  60.5249988 137.0629081 123.0174406  60.5987340
 142.6280012 132.1564997  60.7509988 142.5530012 132.0354997  59.8049988
 142.6610012 133.1064997  60.8699988 142.6221848 132.2682500  60.6374834
 142.4790012 117.3724997  57.2009988 142.2260012 117.3914997  58.1239988
 142.2230012 116.5004997  56.8999988 142.4097790 117.2572437  57.2866263
 139.3620012 117.8174997  56.3019988 138.9310012 117.3724997  57.0319988
 138.6440012 118.1894997  55.7899988 139.2059438 117.8068940  56.3326799
 133.8780012 118.3054997  58.7779988 134.3520012 118.8964997  58.1929988
 133.1610012 118.8364997  59.1249988 133.8459341 118.4580867  58.7448836
 139.3060012 119.4004997  60.1179988 140.2370012 119.5294997  60.2959988
 139.0910012 120.0704997  59.4679988 139.4044247 119.5086565  60.0545747
 137.9800012 120.5954997  57.6849988 137.4370012 120.2154997  56.9929988
 138.8130012 120.7894997  57.2559988 138.0184399 120.5698124  57.5324526
 137.1460012 116.6954997  61.9399988 136.8290012 115.7934997  61.9049988
 137.9280012 116.6974997  61.3869988 137.2082284 116.5721628  61.8604783
 141.3150012 125.1604997  59.6199988 140.5700012 124.6534997  59.2979988
 141.1810012 125.2094997  60.5669988 141.1948776 125.0976940  59.7038647
 143.4410012 126.6194997  58.6459988 143.1450012 127.4454997  59.0269988
 142.7380012 125.9994997  58.8419988 143.3054914 126.6488199  58.7246443
 134.5700012 122.8354997  57.3809988 135.1860012 123.4624997  57.7609988
 133.7080012 123.1514997  57.6529988 134.5377698 122.9639430  57.4697183
 140.2420012 125.6364997  62.3709988 140.0010012 126.5614997  62.4119988
 139.5010012 125.1774997  62.7669988 140.1088409 125.7011421  62.4301377
 140.5950012 127.9254997  55.9069988 140.8340012 127.1774997  55.3599988
 140.3260012 127.5374997  56.7399988 140.5913675 127.7706638  55.9446865
 139.5320012 127.4954997  58.3639988 139.6780012 126.9754997  59.1539988
 139.5290012 128.4024997  58.6699988 139.5515989 127.5468853  58.5136088
 135.9850012 124.7484997  58.8739988 135.2990012 125.1004997  59.4409988
 136.5070012 125.5114997  58.6269988 135.9616852 124.8998578  58.9182118
 144.6010012 117.0624997  60.2499988 144.8210012 117.5344997  59.4469988
 145.1590012 117.4574997  60.9199988 144.7064968 117.1804285  60.2307331
 142.2690012 129.1934997  59.1129988 141.4530012 129.6904997  59.1649988
 142.7990012 129.6684997  58.4729988 142.2289161 129.3257722  59.0335956
 142.6840012 115.8714997  62.0229988 142.3380012 116.4894997  62.6679988
 143.3430012 116.3724997  61.5419988 142.7257826 116.0235802  62.0460971
 138.3420012 116.9344997  58.7099988 138.2590012 117.8234997  59.0569988
 139.2320012 116.6694997  58.9419988 138.4509469 117.0201430  58.7887626
 136.6010012 127.3624997  57.7709988 137.1930012 128.0614997  58.0469988
 137.0600012 126.9294997  57.0509988 136.7441142 127.3997049  57.7114830
 134.9170012 120.0264997  56.8869988 134.8720012 120.9654997  57.0649988
 134.0290012 119.7904997  56.6169988 134.7908574 120.1231892  56.8748912
 142.6330012 129.7884997  56.0459988 141.9890012 129.1574997  56.3669988
 143.3950012 129.2574997  55.8139988 142.6478077 129.6302920  56.0586011
 138.1920012 125.5154997  56.1369988 138.2560012 124.7214997  56.6679988
 138.8450012 125.3964997  55.4469988 138.2890241 125.3907148  56.1164317
 143.5440012 126.5624997  55.8729988 143.2750012 126.7424997  56.7739988
 143.3380012 125.6364997  55.7419988 143.4793825 126.4620152  55.9785214
 139.3410012 123.4874997  58.4429988 138.8810012 123.0034997  59.1289988
 139.5960012 122.8194997  57.8069988 139.3124902 123.3308731  58.4509334
 140.4120012 121.7304997  56.7049988 140.2320012 121.5764997  55.7779988
 141.3620012 121.8384997  56.7499988 140.5157776 121.7240175  56.5841843
 140.3090012 132.4214997  57.7069988 141.2420012 132.5794997  57.8499988
 140.0450012 133.0964997  57.0819988 140.4009510 132.5343611  57.6420741
 133.8780012 127.0574997  57.1889988 134.7920012 127.1364997  57.4629988
 133.8850012 126.3704997  56.5229988 134.0041131 126.9753961  57.1364393
 134.0900012 130.4374997  59.5549988 133.4050012 130.3994997  58.8869988
 134.0940012 131.3504997  59.8429988 133.9968193 130.5557016  59.5025284
 136.0500012 116.4054997  57.0989988 136.5420012 115.7754997  56.5719988
 136.6740012 116.7014997  57.7629988 136.2015446 116.3593199  57.1165980
 141.0760012 116.6984997  59.5559988 141.2540012 116.0524997  60.2389988
 141.0230012 117.5324997  60.0239988 141.0931829 116.7227985  59.7125940
 142.9550012 131.6474997  57.9519988 143.8210012 132.0134997  57.7739988
 142.7080012 131.2074997  57.1379988 143.0402392 131.6381756  57.8176289
 135.9080012 131.3574997  56.5799988 135.6410012 131.6444997  57.4529988
 136.6800012 130.8114997  56.7319988 135.9757488 131.3230294  56.7201050
  11.1610012 141.9474997  60.2639988  10.4490012 142.4824997  59.9119988
  11.8520012 142.0034997  59.6039988  11.1570132 142.0282543  60.1266289
  11.2140012 140.4054997  57.3029988  11.9150012 140.4274997  57.9539988
  11.5170012 139.7774997  56.6469988  11.3507830 140.3236566  57.3033711
  13.4370012 141.3194997  58.9009988  14.0170012 141.4694997  59.6479988
  13.8510012 141.7904997  58.1779988  13.5722831 141.4036841  58.9054134
  17.1360012 133.0694997  58.7139988  16.2360012 133.2084997  59.0089988
  17.3880012 133.9004997  58.3119988  17.0468702 133.2009074  58.7000205
  14.9150012 142.3524997  56.5309988  14.9570012 142.1294997  55.6009988
  15.7640012 142.7514997  56.7209988  15.0355396 142.3759155  56.4293627
  10.4870012 136.2284997  57.2009988  10.2340012 136.2474997  58.1239988
  10.2310012 135.3564997  56.8999988  10.4177790 136.1132437  57.2866263
   7.3700012 136.6734997  56.3019988   6.9390012 136.2284997  57.0319988
   6.6520012 137.0454997  55.7899988   7.2139438 136.6628940  56.3326799
   1.8860012 137.1614997  58.7779988   2.3600012 137.7524997  58.1929988
   1.1690012 137.6924997  59.1249988   1.8539341 137.3140867  58.7448836
   7.3140012 138.2564997  60.1179988   8.2450012 138.3854997  60.2959988
   7.0990012 138.9264997  59.4679988   7.4124247 138.3646565  60.0545747
   5.9880012 139.4514997  57.6849988   5.4450012 139.0714997  56.9929988
   6.8210012 139.6454997  57.2559988   6.0264399 139.4258124  57.5324526
   9.3230012 144.0164997  59.6199988   8.5780012 143.5094997  59.2979988
   9.1890012 144.0654997  60.5669988   9.2028776 143.9536940  59.7038647
  13.2210012 136.8304997  57.8199988  12.2820012 136.9424997  57.6679988
  13.5180012 137.6874997  58.1259988  13.1327666 136.9616443  57.8405768
  13.9390012 138.6974997  59.4799988  14.8310012 138.5604997  59.7989988
  13.9960012 139.4884997  58.9439988  14.0686285 138.7856660  59.4511691
  18.8240012 138.9074997  59.1749988  18.2700012 138.5114997  58.5029988
  18.9240012 139.8174997  58.8969988  18.7617059 138.9763586  59.0454401
   2.5780012 141.6914997  57.3809988   3.1940012 142.3184997  57.7609988
   1.7160012 142.0074997  57.6529988   2.5457698 141.8199430  57.4697183
   3.9930012 143.6044997  58.8739988   3.3070012 143.9564997  59.4409988
   4.5150012 144.3674997  58.6269988   3.9696852 143.7558578  58.9182118
  12.6090012 135.9184997  60.2499988  12.8290012 136.3904997  59.4469988
  13.1670012 136.3134997  60.9199988  12.7144968 136.0364285  60.2307331
   6.3500012 135.7904997  58.7099988   6.2670012 136.6794997  59.0569988
   7.2400012 135.5254997  58.9419988   6.4589469 135.8761430  58.7887626
   2.9250012 138.8824997  56.8869988   2.8800012 139.8214997  57.0649988
   2.0370012 138.6464997  56.6169988   2.7988574 138.9791892  56.8748912
   6.2000012 144.3714997  56.1369988   6.2640012 143.5774997  56.6679988
   6.8530012 144.2524997  55.4469988   6.2970241 144.2467148  56.1164317
   7.3490012 142.3434997  58.4429988   6.8890012 141.8594997  59.1289988
   7.6040012 141.6754997  57.8069988   7.3204902 142.1868731  58.4509334
   8.4200012 140.5864997  56.7049988   8.2400012 140.4324997  55.7779988
   9.3700012 140.6944997  56.7499988   8.5237776 140.5800175  56.5841843
  17.8100012 142.9414997  56.1509988  17.5360012 142.5164997  55.3379988
  17.8490012 143.8724997  55.9339988  17.7777699 143.0092484  56.0103610
  18.2680012 143.8104997  60.1259988  19.1180012 144.2314997  60.2529988
  18.2740012 143.0704997  60.7329988  18.3851372 143.7680803  60.2254344
  18.6630012 141.8634997  61.9499988  17.9360012 141.3844997  62.3469988
  19.2440012 142.0694997  62.6819988  18.6419375 141.8257090  62.1034129
  18.9310012 141.7644997  58.3409988  18.4090012 142.1214997  57.6219988
  18.8980012 142.4394997  59.0189988  18.8551634 141.9045413  58.3343145
  17.2800012 139.0044997  56.8919988  17.3760012 139.6714997  56.2109988
  17.1400012 138.1884997  56.4099988  17.2742135 138.9854500  56.7338491
  16.5270012 136.4124997  56.0089988  17.1380012 136.0414997  56.6459988
  15.6910012 135.9914997  56.2049988  16.4975032 136.3047554  56.1227035
  18.6400012 135.2974997  57.5509988  19.0520012 134.5764997  57.0759988
  19.3220012 135.9674997  57.6099988  18.7885885 135.2892368  57.4938915
   2.1970012 133.3454997  58.6569988   2.6360012 133.9564997  58.0649988
   1.5640012 133.8834997  59.1309988   2.1714514 133.5019257  58.6400930
  14.8500012 133.5304997  60.0079988  14.1480012 134.1454997  59.7989988
  14.4060012 132.6924997  60.1389988  14.6936330 133.5015783  59.9970328
   4.0580012 135.2614997  57.0989988   4.5500012 134.6314997  56.5719988
   4.6820012 135.5574997  57.7629988   4.2095446 135.2153199  57.1165980
   9.0840012 135.5544997  59.5559988   9.2620012 134.9084997  60.2389988
   9.0310012 136.3884997  60.0239988   9.1011829 135.5787985  59.7125940
  30.0170012 141.9474997  60.2639988  29.3050012 142.4824997  59.9119988
  30.7080012 142.0034997  59.6039988  30.0130132 142.0282543  60.1266289
  30.0700012 140.4054997  57.3029988  30.7710012 140.4274997  57.9539988
  30.3730012 139.7774997  56.6469988  30.2067830 140.3236566  57.3033711
  33.4220012 142.1574997  61.2159988  32.6900012 142.3854997  61.7889988
  33.8700012 141.4434997  61.6709988  33.3823095 142.0922571  61.3559119
  32.2930012 141.3194997  58.9009988  32.8730012 141.4694997  59.6479988
  32.7070012 141.7904997  58.1779988  32.4282830 141.4036841  58.9054134
  33.7710012 142.3524997  56.5309988  33.8130012 142.1294997  55.6009988
  34.6200012 142.7514997  56.7209988  33.8915396 142.3759155  56.4293627
  29.3430012 136.2284997  57.2009988  29.0900012 136.2474997  58.1239988
  29.0870012 135.3564997  56.8999988  29.2737790 136.1132437  57.2866263
  26.2260012 136.6734997  56.3019988  25.7950012 136.2284997  57.0319988
  25.5080012 137.0454997  55.7899988  26.0699438 136.6628940  56.3326799
  20.7420012 137.1614997  58.7779988  21.2160012 137.7524997  58.1929988
  20.0250012 137.6924997  59.1249988  20.7099341 137.3140867  58.7448836
  26.1700012 138.2564997  60.1179988  27.1010012 138.3854997  60.2959988
  25.9550012 138.9264997  59.4679988  26.2684247 138.3646565  60.0545747
  24.8440012 139.4514997  57.6849988  24.3010012 139.0714997  56.9929988
  25.6770012 139.6454997  57.2559988  24.8824399 139.4258124  57.5324526
  28.1790012 144.0164997  59.6199988  27.4340012 143.5094997  59.2979988
  28.0450012 144.0654997  60.5669988  28.0588776 143.9536940  59.7038647
  32.0770012 136.8304997  57.8199988  31.1380012 136.9424997  57.6679988
  32.3740012 137.6874997  58.1259988  31.9887666 136.9616443  57.8405768
  32.7950012 138.6974997  59.4799988  33.6870012 138.5604997  59.7989988
  32.8520012 139.4884997  58.9439988  32.9246285 138.7856660  59.4511691
  37.6800012 138.9074997  59.1749988  37.1260012 138.5114997  58.5029988
  37.7800012 139.8174997  58.8969988  37.6177059 138.9763586  59.0454401
  21.4340012 141.6914997  57.3809988  22.0500012 142.3184997  57.7609988
  20.5720012 142.0074997  57.6529988  21.4017698 141.8199430  57.4697183
  22.8490012 143.6044997  58.8739988  22.1630012 143.9564997  59.4409988
  23.3710012 144.3674997  58.6269988  22.8256852 143.7558578  58.9182118
  29.5480012 134.7274997  62.0229988  29.2020012 135.3454997  62.6679988
  30.2070012 135.2284997  61.5419988  29.5897826 134.8795802  62.0460971
  25.2060012 135.7904997  58.7099988  25.1230012 136.6794997  59.0569988
  26.0960012 135.5254997  58.9419988  25.3149469 135.8761430  58.7887626
  21.7810012 138.8824997  56.8869988  21.7360012 139.8214997  57.0649988
  20.8930012 138.6464997  56.6169988  21.6548574 138.9791892  56.8748912
  25.0560012 144.3714997  56.1369988  25.1200012 143.5774997  56.6679988
  25.7090012 144.2524997  55.4469988  25.1530241 144.2467148  56.1164317
  26.2050012 142.3434997  58.4429988  25.7450012 141.8594997  59.1289988
  26.4600012 141.6754997  57.8069988  26.1764902 142.1868731  58.4509334
  27.2760012 140.5864997  56.7049988  27.0960012 140.4324997  55.7779988
  28.2260012 140.6944997  56.7499988  27.3797776 140.5800175  56.5841843
  36.6660012 142.9414997  56.1509988  36.3920012 142.5164997  55.3379988
  36.7050012 143.8724997  55.9339988  36.6337699 143.0092484  56.0103610
  37.7870012 141.7644997  58.3409988  37.2650012 142.1214997  57.6219988
  37.7540012 142.4394997  59.0189988  37.7111634 141.9045413  58.3343145
  36.1360012 139.0044997  56.8919988  36.2320012 139.6714997  56.2109988
  35.9960012 138.1884997  56.4099988  36.1302135 138.9854500  56.7338491
  35.3830012 136.4124997  56.0089988  35.9940012 136.0414997  56.6459988
  34.5470012 135.9914997  56.2049988  35.3535032 136.3047554  56.1227035
  35.0160012 137.9674997  60.9749988  35.2960012 137.0604997  61.0989988
  35.7750012 138.4014997  60.5859988  35.1569277 137.9020942  60.9393682
  35.6290012 135.2304997  61.0229988  35.8120012 134.7814997  61.8489988
  35.0300012 134.6454997  60.5599988  35.5730202 135.0899975  61.0733275
  37.4960012 135.2974997  57.5509988  37.9080012 134.5764997  57.0759988
  38.1780012 135.9674997  57.6099988  37.6445885 135.2892368  57.4938915
  21.0530012 133.3454997  58.6569988  21.4920012 133.9564997  58.0649988
  20.4200012 133.8834997  59.1309988  21.0274514 133.5019257  58.6400930
  22.9140012 135.2614997  57.0989988  23.4060012 134.6314997  56.5719988
  23.5380012 135.5574997  57.7629988  23.0655446 135.2153199  57.1165980
  27.9400012 135.5544997  59.5559988  28.1180012 134.9084997  60.2389988
  27.8870012 136.3884997  60.0239988  27.9571829 135.5787985  59.7125940
  38.9860012 139.6834997  61.7519988  38.5390012 140.5294997  61.7329988
  38.4250012 139.1034997  61.2359988  38.8489900 139.7209916  61.6796801
  48.8730012 141.9474997  60.2639988  48.1610012 142.4824997  59.9119988
  49.5640012 142.0034997  59.6039988  48.8690132 142.0282543  60.1266289
  48.9260012 140.4054997  57.3029988  49.6270012 140.4274997  57.9539988
  49.2290012 139.7774997  56.6469988  49.0627830 140.3236566  57.3033711
  51.1490012 141.3194997  58.9009988  51.7290012 141.4694997  59.6479988
  51.5630012 141.7904997  58.1779988  51.2842830 141.4036841  58.9054134
  54.8480012 133.0694997  58.7139988  53.9480012 133.2084997  59.0089988
  55.1000012 133.9004997  58.3119988  54.7588702 133.2009074  58.7000205
  42.9140012 141.8574997  60.6879988  42.6220012 142.6254997  60.1969988
  42.2400012 141.1974997  60.5249988  42.7829081 141.8734406  60.5987340
  52.6270012 142.3524997  56.5309988  52.6690012 142.1294997  55.6009988
  53.4760012 142.7514997  56.7209988  52.7475396 142.3759155  56.4293627
  48.1990012 136.2284997  57.2009988  47.9460012 136.2474997  58.1239988
  47.9430012 135.3564997  56.8999988  48.1297790 136.1132437  57.2866263
  49.4980012 139.6164997  61.3649988  49.0890012 140.4314997  61.0739988
  50.2190012 139.4764997  60.7509988  49.5394537 139.7092018  61.2421342
  45.0820012 136.6734997  56.3019988  44.6510012 136.2284997  57.0319988
  44.3640012 137.0454997  55.7899988  44.9259438 136.6628940  56.3326799
  39.5980012 137.1614997  58.7779988  40.0720012 137.7524997  58.1929988
  38.8810012 137.6924997  59.1249988  39.5659341 137.3140867  58.7448836
  43.7000012 139.4514997  57.6849988  43.1570012 139.0714997  56.9929988
  44.5330012 139.6454997  57.2559988  43.7384399 139.4258124  57.5324526
  42.8660012 135.5514997  61.9399988  42.5490012 134.6494997  61.9049988
  43.6480012 135.5534997  61.3869988  42.9282284 135.4281628  61.8604783
  47.0350012 144.0164997  59.6199988  46.2900012 143.5094997  59.2979988
  46.9010012 144.0654997  60.5669988  46.9148776 143.9536940  59.7038647
  50.9330012 136.8304997  57.8199988  49.9940012 136.9424997  57.6679988
  51.2300012 137.6874997  58.1259988  50.8447666 136.9616443  57.8405768
  51.6510012 138.6974997  59.4799988  52.5430012 138.5604997  59.7989988
  51.7080012 139.4884997  58.9439988  51.7806285 138.7856660  59.4511691
  56.5360012 138.9074997  59.1749988  55.9820012 138.5114997  58.5029988
  56.6360012 139.8174997  58.8969988  56.4737059 138.9763586  59.0454401
  40.2900012 141.6914997  57.3809988  40.9060012 142.3184997  57.7609988
  39.4280012 142.0074997  57.6529988  40.2577698 141.8199430  57.4697183
  45.9620012 144.4924997  62.3709988  45.7210012 145.4174997  62.4119988
  45.2210012 144.0334997  62.7669988  45.8288409 144.5571421  62.4301377
  53.0900012 144.3424997  59.6869988  52.8120012 143.6144997  60.2429988
  54.0170012 144.4614997  59.8919988  53.1773124 144.2588802  59.7908845
  41.7050012 143.6044997  58.8739988  41.0190012 143.9564997  59.4409988
  42.2270012 144.3674997  58.6269988  41.6816852 143.7558578  58.9182118
  48.4040012 134.7274997  62.0229988  48.0580012 135.3454997  62.6679988
  49.0630012 135.2284997  61.5419988  48.4457826 134.8795802  62.0460971
  44.0620012 135.7904997  58.7099988  43.9790012 136.6794997  59.0569988
  44.9520012 135.5254997  58.9419988  44.1709469 135.8761430  58.7887626
  40.6370012 138.8824997  56.8869988  40.5920012 139.8214997  57.0649988
  39.7490012 138.6464997  56.6169988  40.5108574 138.9791892  56.8748912
  43.9120012 144.3714997  56.1369988  43.9760012 143.5774997  56.6679988
  44.5650012 144.2524997  55.4469988  44.0090241 144.2467148  56.1164317
  45.0610012 142.3434997  58.4429988  44.6010012 141.8594997  59.1289988
  45.3160012 141.6754997  57.8069988  45.0324902 142.1868731  58.4509334
  46.1320012 140.5864997  56.7049988  45.9520012 140.4324997  55.7779988
  47.0820012 140.6944997  56.7499988  46.2357776 140.5800175  56.5841843
  55.5220012 142.9414997  56.1509988  55.2480012 142.5164997  55.3379988
  55.5610012 143.8724997  55.9339988  55.4897699 143.0092484  56.0103610
  56.6430012 141.7644997  58.3409988  56.1210012 142.1214997  57.6219988
  56.6100012 142.4394997  59.0189988  56.5671634 141.9045413  58.3343145
  54.9920012 139.0044997  56.8919988  55.0880012 139.6714997  56.2109988
  54.8520012 138.1884997  56.4099988  54.9862135 138.9854500  56.7338491
  54.2390012 136.4124997  56.0089988  54.8500012 136.0414997  56.6459988
  53.4030012 135.9914997  56.2049988  54.2095032 136.3047554  56.1227035
  56.3520012 135.2974997  57.5509988  56.7640012 134.5764997  57.0759988
  57.0340012 135.9674997  57.6099988  56.5005885 135.2892368  57.4938915
  41.7700012 135.2614997  57.0989988  42.2620012 134.6314997  56.5719988
  42.3940012 135.5574997  57.7629988  41.9215446 135.2153199  57.1165980
  46.7960012 135.5544997  59.5559988  46.9740012 134.9084997  60.2389988
  46.7430012 136.3884997  60.0239988  46.8131829 135.5787985  59.7125940
  67.7290012 141.9474997  60.2639988  67.0170012 142.4824997  59.9119988
  68.4200012 142.0034997  59.6039988  67.7250132 142.0282543  60.1266289
  67.7820012 140.4054997  57.3029988  68.4830012 140.4274997  57.9539988
  68.0850012 139.7774997  56.6469988  67.9187830 140.3236566  57.3033711
  70.0050012 141.3194997  58.9009988  70.5850012 141.4694997  59.6479988
  70.4190012 141.7904997  58.1779988  70.1402830 141.4036841  58.9054134
  73.7040012 133.0694997  58.7139988  72.8040012 133.2084997  59.0089988
  73.9560012 133.9004997  58.3119988  73.6148702 133.2009074  58.7000205
  71.4830012 142.3524997  56.5309988  71.5250012 142.1294997  55.6009988
  72.3320012 142.7514997  56.7209988  71.6035396 142.3759155  56.4293627
  67.0550012 136.2284997  57.2009988  66.8020012 136.2474997  58.1239988
  66.7990012 135.3564997  56.8999988  66.9857790 136.1132437  57.2866263
  63.9380012 136.6734997  56.3019988  63.5070012 136.2284997  57.0319988
  63.2200012 137.0454997  55.7899988  63.7819438 136.6628940  56.3326799
  58.4540012 137.1614997  58.7779988  58.9280012 137.7524997  58.1929988
  57.7370012 137.6924997  59.1249988  58.4219341 137.3140867  58.7448836
  62.5560012 139.4514997  57.6849988  62.0130012 139.0714997  56.9929988
  63.3890012 139.6454997  57.2559988  62.5944399 139.4258124  57.5324526
  65.8910012 144.0164997  59.6199988  65.1460012 143.5094997  59.2979988
  65.7570012 144.0654997  60.5669988  65.7708776 143.9536940  59.7038647
  69.7890012 136.8304997  57.8199988  68.8500012 136.9424997  57.6679988
  70.0860012 137.6874997  58.1259988  69.7007666 136.9616443  57.8405768
  70.5070012 138.6974997  59.4799988  71.3990012 138.5604997  59.7989988
  70.5640012 139.4884997  58.9439988  70.6366285 138.7856660  59.4511691
  59.1460012 141.6914997  57.3809988  59.7620012 142.3184997  57.7609988
  58.2840012 142.0074997  57.6529988  59.1137698 141.8199430  57.4697183
  64.8180012 144.4924997  62.3709988  64.5770012 145.4174997  62.4119988
  64.0770012 144.0334997  62.7669988  64.6848409 144.5571421  62.4301377
  60.5610012 143.6044997  58.8739988  59.8750012 143.9564997  59.4409988
  61.0830012 144.3674997  58.6269988  60.5376852 143.7558578  58.9182118
  62.9180012 135.7904997  58.7099988  62.8350012 136.6794997  59.0569988
  63.8080012 135.5254997  58.9419988  63.0269469 135.8761430  58.7887626
  59.4930012 138.8824997  56.8869988  59.4480012 139.8214997  57.0649988
  58.6050012 138.6464997  56.6169988  59.3668574 138.9791892  56.8748912
  62.7680012 144.3714997  56.1369988  62.8320012 143.5774997  56.6679988
  63.4210012 144.2524997  55.4469988  62.8650241 144.2467148  56.1164317
  63.9170012 142.3434997  58.4429988  63.4570012 141.8594997  59.1289988
  64.1720012 141.6754997  57.8069988  63.8884902 142.1868731  58.4509334
  64.9880012 140.5864997  56.7049988  64.8080012 140.4324997  55.7779988
  65.9380012 140.6944997  56.7499988  65.0917776 140.5800175  56.5841843
  74.3780012 142.9414997  56.1509988  74.1040012 142.5164997  55.3379988
  74.4170012 143.8724997  55.9339988  74.3457699 143.0092484  56.0103610
  74.8360012 143.8104997  60.1259988  75.6860012 144.2314997  60.2529988
  74.8420012 143.0704997  60.7329988  74.9531372 143.7680803  60.2254344
  75.4990012 141.7644997  58.3409988  74.9770012 142.1214997  57.6219988
  75.4660012 142.4394997  59.0189988  75.4231634 141.9045413  58.3343145
  73.8480012 139.0044997  56.8919988  73.9440012 139.6714997  56.2109988
  73.7080012 138.1884997  56.4099988  73.8422135 138.9854500  56.7338491
  73.0950012 136.4124997  56.0089988  73.7060012 136.0414997  56.6459988
  72.2590012 135.9914997  56.2049988  73.0655032 136.3047554  56.1227035
  72.7280012 137.9674997  60.9749988  73.0080012 137.0604997  61.0989988
  73.4870012 138.4014997  60.5859988  72.8689277 137.9020942  60.9393682
  73.3410012 135.2304997  61.0229988  73.5240012 134.7814997  61.8489988
  72.7420012 134.6454997  60.5599988  73.2850202 135.0899975  61.0733275
  75.2080012 135.2974997  57.5509988  75.6200012 134.5764997  57.0759988
  75.8900012 135.9674997  57.6099988  75.3565885 135.2892368  57.4938915
  57.4890012 135.3024997  60.6779988  56.5640012 135.5114997  60.5489988
  57.9430012 135.7864997  59.9889988  57.4237368 135.3965993  60.5671226
  58.7650012 133.3454997  58.6569988  59.2040012 133.9564997  58.0649988
  58.1320012 133.8834997  59.1309988  58.7394514 133.5019257  58.6400930
  71.4180012 133.5304997  60.0079988  70.7160012 134.1454997  59.7989988
  70.9740012 132.6924997  60.1389988  71.2616330 133.5015783  59.9970328
  60.6260012 135.2614997  57.0989988  61.1180012 134.6314997  56.5719988
  61.2500012 135.5574997  57.7629988  60.7775446 135.2153199  57.1165980
  86.5850012 141.9474997  60.2639988  85.8730012 142.4824997  59.9119988
  87.2760012 142.0034997  59.6039988  86.5810132 142.0282543  60.1266289
  86.6380012 140.4054997  57.3029988  87.3390012 140.4274997  57.9539988
  86.9410012 139.7774997  56.6469988  86.7747830 140.3236566  57.3033711
  88.8610012 141.3194997  58.9009988  89.4410012 141.4694997  59.6479988
  89.2750012 141.7904997  58.1779988  88.9962830 141.4036841  58.9054134
  92.5600012 133.0694997  58.7139988  91.6600012 133.2084997  59.0089988
  92.8120012 133.9004997  58.3119988  92.4708702 133.2009074  58.7000205
  80.6260012 141.8574997  60.6879988  80.3340012 142.6254997  60.1969988
  79.9520012 141.1974997  60.5249988  80.4949081 141.8734406  60.5987340
  90.3390012 142.3524997  56.5309988  90.3810012 142.1294997  55.6009988
  91.1880012 142.7514997  56.7209988  90.4595396 142.3759155  56.4293627
  85.9110012 136.2284997  57.2009988  85.6580012 136.2474997  58.1239988
  85.6550012 135.3564997  56.8999988  85.8417790 136.1132437  57.2866263
  82.7940012 136.6734997  56.3019988  82.3630012 136.2284997  57.0319988
  82.0760012 137.0454997  55.7899988  82.6379438 136.6628940  56.3326799
  77.3100012 137.1614997  58.7779988  77.7840012 137.7524997  58.1929988
  76.5930012 137.6924997  59.1249988  77.2779341 137.3140867  58.7448836
  82.7380012 138.2564997  60.1179988  83.6690012 138.3854997  60.2959988
  82.5230012 138.9264997  59.4679988  82.8364247 138.3646565  60.0545747
  81.4120012 139.4514997  57.6849988  80.8690012 139.0714997  56.9929988
  82.2450012 139.6454997  57.2559988  81.4504399 139.4258124  57.5324526
  80.5780012 135.5514997  61.9399988  80.2610012 134.6494997  61.9049988
  81.3600012 135.5534997  61.3869988  80.6402284 135.4281628  61.8604783
  84.7470012 144.0164997  59.6199988  84.0020012 143.5094997  59.2979988
  84.6130012 144.0654997  60.5669988  84.6268776 143.9536940  59.7038647
  88.6450012 136.8304997  57.8199988  87.7060012 136.9424997  57.6679988
  88.9420012 137.6874997  58.1259988  88.5567666 136.9616443  57.8405768
  89.3630012 138.6974997  59.4799988  90.2550012 138.5604997  59.7989988
  89.4200012 139.4884997  58.9439988  89.4926285 138.7856660  59.4511691
  94.2480012 138.9074997  59.1749988  93.6940012 138.5114997  58.5029988
  94.3480012 139.8174997  58.8969988  94.1857059 138.9763586  59.0454401
  78.0020012 141.6914997  57.3809988  78.6180012 142.3184997  57.7609988
  77.1400012 142.0074997  57.6529988  77.9697698 141.8199430  57.4697183
  83.6740012 144.4924997  62.3709988  83.4330012 145.4174997  62.4119988
  82.9330012 144.0334997  62.7669988  83.5408409 144.5571421  62.4301377
  79.4170012 143.6044997  58.8739988  78.7310012 143.9564997  59.4409988
  79.9390012 144.3674997  58.6269988  79.3936852 143.7558578  58.9182118
  81.7740012 135.7904997  58.7099988  81.6910012 136.6794997  59.0569988
  82.6640012 135.5254997  58.9419988  81.8829469 135.8761430  58.7887626
  78.3490012 138.8824997  56.8869988  78.3040012 139.8214997  57.0649988
  77.4610012 138.6464997  56.6169988  78.2228574 138.9791892  56.8748912
  81.6240012 144.3714997  56.1369988  81.6880012 143.5774997  56.6679988
  82.2770012 144.2524997  55.4469988  81.7210241 144.2467148  56.1164317
  82.7730012 142.3434997  58.4429988  82.3130012 141.8594997  59.1289988
  83.0280012 141.6754997  57.8069988  82.7444902 142.1868731  58.4509334
  83.8440012 140.5864997  56.7049988  83.6640012 140.4324997  55.7779988
  84.7940012 140.6944997  56.7499988  83.9477776 140.5800175  56.5841843
  93.2340012 142.9414997  56.1509988  92.9600012 142.5164997  55.3379988
  93.2730012 143.8724997  55.9339988  93.2017699 143.0092484  56.0103610
  94.3550012 141.7644997  58.3409988  93.8330012 142.1214997  57.6219988
  94.3220012 142.4394997  59.0189988  94.2791634 141.9045413  58.3343145
  92.7040012 139.0044997  56.8919988  92.8000012 139.6714997  56.2109988
  92.5640012 138.1884997  56.4099988  92.6982135 138.9854500  56.7338491
  91.9510012 136.4124997  56.0089988  92.5620012 136.0414997  56.6459988
  91.1150012 135.9914997  56.2049988  91.9215032 136.3047554  56.1227035
  94.0640012 135.2974997  57.5509988  94.4760012 134.5764997  57.0759988
  94.7460012 135.9674997  57.6099988  94.2125885 135.2892368  57.4938915
  90.2740012 133.5304997  60.0079988  89.5720012 134.1454997  59.7989988
  89.8300012 132.6924997  60.1389988  90.1176330 133.5015783  59.9970328
  79.4820012 135.2614997  57.0989988  79.9740012 134.6314997  56.5719988
  80.1060012 135.5574997  57.7629988  79.6335446 135.2153199  57.1165980
  95.5540012 139.6834997  61.7519988  95.1070012 140.5294997  61.7329988
  94.9930012 139.1034997  61.2359988  95.4169900 139.7209916  61.6796801
 105.4940012 140.4054997  57.3029988 106.1950012 140.4274997  57.9539988
 105.7970012 139.7774997  56.6469988 105.6307830 140.3236566  57.3033711
 107.7170012 141.3194997  58.9009988 108.2970012 141.4694997  59.6479988
 108.1310012 141.7904997  58.1779988 107.8522830 141.4036841  58.9054134
 111.4160012 133.0694997  58.7139988 110.5160012 133.2084997  59.0089988
 111.6680012 133.9004997  58.3119988 111.3268702 133.2009074  58.7000205
 109.1950012 142.3524997  56.5309988 109.2370012 142.1294997  55.6009988
 110.0440012 142.7514997  56.7209988 109.3155396 142.3759155  56.4293627
 104.7670012 136.2284997  57.2009988 104.5140012 136.2474997  58.1239988
 104.5110012 135.3564997  56.8999988 104.6977790 136.1132437  57.2866263
 106.0660012 139.6164997  61.3649988 105.6570012 140.4314997  61.0739988
 106.7870012 139.4764997  60.7509988 106.1074537 139.7092018  61.2421342
 101.6500012 136.6734997  56.3019988 101.2190012 136.2284997  57.0319988
 100.9320012 137.0454997  55.7899988 101.4939438 136.6628940  56.3326799
  96.1660012 137.1614997  58.7779988  96.6400012 137.7524997  58.1929988
  95.4490012 137.6924997  59.1249988  96.1339341 137.3140867  58.7448836
 101.5940012 138.2564997  60.1179988 102.5250012 138.3854997  60.2959988
 101.3790012 138.9264997  59.4679988 101.6924247 138.3646565  60.0545747
 100.2680012 139.4514997  57.6849988  99.7250012 139.0714997  56.9929988
 101.1010012 139.6454997  57.2559988 100.3064399 139.4258124  57.5324526
 103.6030012 144.0164997  59.6199988 102.8580012 143.5094997  59.2979988
 103.4690012 144.0654997  60.5669988 103.4828776 143.9536940  59.7038647
 108.2190012 138.6974997  59.4799988 109.1110012 138.5604997  59.7989988
 108.2760012 139.4884997  58.9439988 108.3486285 138.7856660  59.4511691
  96.8580012 141.6914997  57.3809988  97.4740012 142.3184997  57.7609988
  95.9960012 142.0074997  57.6529988  96.8257698 141.8199430  57.4697183
 109.6580012 144.3424997  59.6869988 109.3800012 143.6144997  60.2429988
 110.5850012 144.4614997  59.8919988 109.7453124 144.2588802  59.7908845
  98.2730012 143.6044997  58.8739988  97.5870012 143.9564997  59.4409988
  98.7950012 144.3674997  58.6269988  98.2496852 143.7558578  58.9182118
 104.0890012 137.6464997  61.0849988 104.9010012 138.1514997  61.1309988
 103.8440012 137.5014997  61.9989988 104.1670520 137.6960375  61.2148517
 100.6300012 135.7904997  58.7099988 100.5470012 136.6794997  59.0569988
 101.5200012 135.5254997  58.9419988 100.7389469 135.8761430  58.7887626
  97.2050012 138.8824997  56.8869988  97.1600012 139.8214997  57.0649988
  96.3170012 138.6464997  56.6169988  97.0788574 138.9791892  56.8748912
 100.4800012 144.3714997  56.1369988 100.5440012 143.5774997  56.6679988
 101.1330012 144.2524997  55.4469988 100.5770241 144.2467148  56.1164317
 101.6290012 142.3434997  58.4429988 101.1690012 141.8594997  59.1289988
 101.8840012 141.6754997  57.8069988 101.6004902 142.1868731  58.4509334
 102.7000012 140.5864997  56.7049988 102.5200012 140.4324997  55.7779988
 103.6500012 140.6944997  56.7499988 102.8037776 140.5800175  56.5841843
 112.0900012 142.9414997  56.1509988 111.8160012 142.5164997  55.3379988
 112.1290012 143.8724997  55.9339988 112.0577699 143.0092484  56.0103610
 112.5480012 143.8104997  60.1259988 113.3980012 144.2314997  60.2529988
 112.5540012 143.0704997  60.7329988 112.6651372 143.7680803  60.2254344
 113.2110012 141.7644997  58.3409988 112.6890012 142.1214997  57.6219988
 113.1780012 142.4394997  59.0189988 113.1351634 141.9045413  58.3343145
 111.5600012 139.0044997  56.8919988 111.6560012 139.6714997  56.2109988
 111.4200012 138.1884997  56.4099988 111.5542135 138.9854500  56.7338491
 110.8070012 136.4124997  56.0089988 111.4180012 136.0414997  56.6459988
 109.9710012 135.9914997  56.2049988 110.7775032 136.3047554  56.1227035
 112.9200012 135.2974997  57.5509988 113.3320012 134.5764997  57.0759988
 113.6020012 135.9674997  57.6099988 113.0685885 135.2892368  57.4938915
  95.2010012 135.3024997  60.6779988  94.2760012 135.5114997  60.5489988
  95.6550012 135.7864997  59.9889988  95.1357368 135.3965993  60.5671226
  96.4770012 133.3454997  58.6569988  96.9160012 133.9564997  58.0649988
  95.8440012 133.8834997  59.1309988  96.4514514 133.5019257  58.6400930
  98.3380012 135.2614997  57.0989988  98.8300012 134.6314997  56.5719988
  98.9620012 135.5574997  57.7629988  98.4895446 135.2153199  57.1165980
 103.3640012 135.5544997  59.5559988 103.5420012 134.9084997  60.2389988
 103.3110012 136.3884997  60.0239988 103.3811829 135.5787985  59.7125940
 124.2970012 141.9474997  60.2639988 123.5850012 142.4824997  59.9119988
 124.9880012 142.0034997  59.6039988 124.2930132 142.0282543  60.1266289
 124.3500012 140.4054997  57.3029988 125.0510012 140.4274997  57.9539988
 124.6530012 139.7774997  56.6469988 124.4867830 140.3236566  57.3033711
 126.5730012 141.3194997  58.9009988 127.1530012 141.4694997  59.6479988
 126.9870012 141.7904997  58.1779988 126.7082830 141.4036841  58.9054134
 130.2720012 133.0694997  58.7139988 129.3720012 133.2084997  59.0089988
 130.5240012 133.9004997  58.3119988 130.1828702 133.2009074  58.7000205
 118.3380012 141.8574997  60.6879988 118.0460012 142.6254997  60.1969988
 117.6640012 141.1974997  60.5249988 118.2069081 141.8734406  60.5987340
 128.0510012 142.3524997  56.5309988 128.0930012 142.1294997  55.6009988
 128.9000012 142.7514997  56.7209988 128.1715396 142.3759155  56.4293627
 123.6230012 136.2284997  57.2009988 123.3700012 136.2474997  58.1239988
 123.3670012 135.3564997  56.8999988 123.5537790 136.1132437  57.2866263
 124.9220012 139.6164997  61.3649988 124.5130012 140.4314997  61.0739988
 125.6430012 139.4764997  60.7509988 124.9634537 139.7092018  61.2421342
 120.5060012 136.6734997  56.3019988 120.0750012 136.2284997  57.0319988
 119.7880012 137.0454997  55.7899988 120.3499438 136.6628940  56.3326799
 115.0220012 137.1614997  58.7779988 115.4960012 137.7524997  58.1929988
 114.3050012 137.6924997  59.1249988 114.9899341 137.3140867  58.7448836
 119.1240012 139.4514997  57.6849988 118.5810012 139.0714997  56.9929988
 119.9570012 139.6454997  57.2559988 119.1624399 139.4258124  57.5324526
 118.2900012 135.5514997  61.9399988 117.9730012 134.6494997  61.9049988
 119.0720012 135.5534997  61.3869988 118.3522284 135.4281628  61.8604783
 122.4590012 144.0164997  59.6199988 121.7140012 143.5094997  59.2979988
 122.3250012 144.0654997  60.5669988 122.3388776 143.9536940  59.7038647
 126.3570012 136.8304997  57.8199988 125.4180012 136.9424997  57.6679988
 126.6540012 137.6874997  58.1259988 126.2687666 136.9616443  57.8405768
 127.0750012 138.6974997  59.4799988 127.9670012 138.5604997  59.7989988
 127.1320012 139.4884997  58.9439988 127.2046285 138.7856660  59.4511691
 131.9600012 138.9074997  59.1749988 131.4060012 138.5114997  58.5029988
 132.0600012 139.8174997  58.8969988 131.8977059 138.9763586  59.0454401
 115.7140012 141.6914997  57.3809988 116.3300012 142.3184997  57.7609988
 114.8520012 142.0074997  57.6529988 115.6817698 141.8199430  57.4697183
 121.3860012 144.4924997  62.3709988 121.1450012 145.4174997  62.4119988
 120.6450012 144.0334997  62.7669988 121.2528409 144.5571421  62.4301377
 117.1290012 143.6044997  58.8739988 116.4430012 143.9564997  59.4409988
 117.6510012 144.3674997  58.6269988 117.1056852 143.7558578  58.9182118
 116.0610012 138.8824997  56.8869988 116.0160012 139.8214997  57.0649988
 115.1730012 138.6464997  56.6169988 115.9348574 138.9791892  56.8748912
 119.3360012 144.3714997  56.1369988 119.4000012 143.5774997  56.6679988
 119.9890012 144.2524997  55.4469988 119.4330241 144.2467148  56.1164317
 120.4850012 142.3434997  58.4429988 120.0250012 141.8594997  59.1289988
 120.7400012 141.6754997  57.8069988 120.4564902 142.1868731  58.4509334
 121.5560012 140.5864997  56.7049988 121.3760012 140.4324997  55.7779988
 122.5060012 140.6944997  56.7499988 121.6597776 140.5800175  56.5841843
 130.9460012 142.9414997  56.1509988 130.6720012 142.5164997  55.3379988
 130.9850012 143.8724997  55.9339988 130.9137699 143.0092484  56.0103610
 131.4040012 143.8104997  60.1259988 132.2540012 144.2314997  60.2529988
 131.4100012 143.0704997  60.7329988 131.5211372 143.7680803  60.2254344
 132.0670012 141.7644997  58.3409988 131.5450012 142.1214997  57.6219988
 132.0340012 142.4394997  59.0189988 131.9911634 141.9045413  58.3343145
 130.4160012 139.0044997  56.8919988 130.5120012 139.6714997  56.2109988
 130.2760012 138.1884997  56.4099988 130.4102135 138.9854500  56.7338491
 129.6630012 136.4124997  56.0089988 130.2740012 136.0414997  56.6459988
 128.8270012 135.9914997  56.2049988 129.6335032 136.3047554  56.1227035
 129.2960012 137.9674997  60.9749988 129.5760012 137.0604997  61.0989988
 130.0550012 138.4014997  60.5859988 129.4369277 137.9020942  60.9393682
 131.7760012 135.2974997  57.5509988 132.1880012 134.5764997  57.0759988
 132.4580012 135.9674997  57.6099988 131.9245885 135.2892368  57.4938915
 114.0570012 135.3024997  60.6779988 113.1320012 135.5114997  60.5489988
 114.5110012 135.7864997  59.9889988 113.9917368 135.3965993  60.5671226
 115.3330012 133.3454997  58.6569988 115.7720012 133.9564997  58.0649988
 114.7000012 133.8834997  59.1309988 115.3074514 133.5019257  58.6400930
 127.9860012 133.5304997  60.0079988 127.2840012 134.1454997  59.7989988
 127.5420012 132.6924997  60.1389988 127.8296330 133.5015783  59.9970328
 117.1940012 135.2614997  57.0989988 117.6860012 134.6314997  56.5719988
 117.8180012 135.5574997  57.7629988 117.3455446 135.2153199  57.1165980
 143.1530012 141.9474997  60.2639988 142.4410012 142.4824997  59.9119988
 143.8440012 142.0034997  59.6039988 143.1490132 142.0282543  60.1266289
 143.2060012 140.4054997  57.3029988 143.9070012 140.4274997  57.9539988
 143.5090012 139.7774997  56.6469988 143.3427830 140.3236566  57.3033711
 137.1940012 141.8574997  60.6879988 136.9020012 142.6254997  60.1969988
 136.5200012 141.1974997  60.5249988 137.0629081 141.8734406  60.5987340
 142.4790012 136.2284997  57.2009988 142.2260012 136.2474997  58.1239988
 142.2230012 135.3564997  56.8999988 142.4097790 136.1132437  57.2866263
 143.7780012 139.6164997  61.3649988 143.3690012 140.4314997  61.0739988
 144.4990012 139.4764997  60.7509988 143.8194537 139.7092018  61.2421342
 139.3620012 136.6734997  56.3019988 138.9310012 136.2284997  57.0319988
 138.6440012 137.0454997  55.7899988 139.2059438 136.6628940  56.3326799
 133.8780012 137.1614997  58.7779988 134.3520012 137.7524997  58.1929988
 133.1610012 137.6924997  59.1249988 133.8459341 137.3140867  58.7448836
 139.3060012 138.2564997  60.1179988 140.2370012 138.3854997  60.2959988
 139.0910012 138.9264997  59.4679988 139.4044247 138.3646565  60.0545747
 137.9800012 139.4514997  57.6849988 137.4370012 139.0714997  56.9929988
 138.8130012 139.6454997  57.2559988 138.0184399 139.4258124  57.5324526
 141.3150012 144.0164997  59.6199988 140.5700012 143.5094997  59.2979988
 141.1810012 144.0654997  60.5669988 141.1948776 143.9536940  59.7038647
 134.5700012 141.6914997  57.3809988 135.1860012 142.3184997  57.7609988
 133.7080012 142.0074997  57.6529988 134.5377698 141.8199430  57.4697183
 140.2420012 144.4924997  62.3709988 140.0010012 145.4174997  62.4119988
 139.5010012 144.0334997  62.7669988 140.1088409 144.5571421  62.4301377
 135.9850012 143.6044997  58.8739988 135.2990012 143.9564997  59.4409988
 136.5070012 144.3674997  58.6269988 135.9616852 143.7558578  58.9182118
 144.6010012 135.9184997  60.2499988 144.8210012 136.3904997  59.4469988
 145.1590012 136.3134997  60.9199988 144.7064968 136.0364285  60.2307331
 142.6840012 134.7274997  62.0229988 142.3380012 135.3454997  62.6679988
 143.3430012 135.2284997  61.5419988 142.7257826 134.8795802  62.0460971
 138.3420012 135.7904997  58.7099988 138.2590012 136.6794997  59.0569988
 139.2320012 135.5254997  58.9419988 138.4509469 135.8761430  58.7887626
 134.9170012 138.8824997  56.8869988 134.8720012 139.8214997  57.0649988
 134.0290012 138.6464997  56.6169988 134.7908574 138.9791892  56.8748912
 138.1920012 144.3714997  56.1369988 138.2560012 143.5774997  56.6679988
 138.8450012 144.2524997  55.4469988 138.2890241 144.2467148  56.1164317
 139.3410012 142.3434997  58.4429988 138.8810012 141.8594997  59.1289988
 139.5960012 141.6754997  57.8069988 139.3124902 142.1868731  58.4509334
 140.4120012 140.5864997  56.7049988 140.2320012 140.4324997  55.7779988
 141.3620012 140.6944997  56.7499988 140.5157776 140.5800175  56.5841843
 132.9130012 135.3024997  60.6779988 131.9880012 135.5114997  60.5489988
 133.3670012 135.7864997  59.9889988 132.8477368 135.3965993  60.5671226
 134.1890012 133.3454997  58.6569988 134.6280012 133.9564997  58.0649988
 133.5560012 133.8834997  59.1309988 134.1634514 133.5019257  58.6400930
 136.0500012 135.2614997  57.0989988 136.5420012 134.6314997  56.5719988
 136.6740012 135.5574997  57.7629988 136.2015446 135.2153199  57.1165980
 141.0760012 135.5544997  59.5559988 141.2540012 134.9084997  60.2389988
 141.0230012 136.3884997  60.0239988 141.0931829 135.5787985  59.7125940
 145.4680023 145.7789993 164.9419975  90.0000000  90.0000000  90.0000000
